44380717
  -OEChem-09292322502D

 55 57  0     1  0  0  0  0  0999 V2000
    6.3301   -2.8693    0.0000 Cl  0  0  0  0  0  0  0  0  0  0  0  0
    3.7320    0.6307    0.0000 O   0  0  0  0  0  0  0  0  0  0  0  0
    2.8660   -0.8693    0.0000 O   0  0  0  0  0  0  0  0  0  0  0  0
    2.8660   -3.8693    0.0000 O   0  0  0  0  0  0  0  0  0  0  0  0
    7.4128    3.3331    0.0000 N   0  0  3  0  0  0  0  0  0  0  0  0
    5.4641    0.6307    0.0000 N   0  0  0  0  0  0  0  0  0  0  0  0
    4.5981   -3.8693    0.0000 N   0  0  0  0  0  0  0  0  0  0  0  0
    6.3301    2.1307    0.0000 C   0  0  2  0  0  0  0  0  0  0  0  0
    7.2437    1.7240    0.0000 C   0  0  0  0  0  0  0  0  0  0  0  0
    6.4347    3.1252    0.0000 C   0  0  0  0  0  0  0  0  0  0  0  0
    7.9128    2.4671    0.0000 C   0  0  0  0  0  0  0  0  0  0  0  0
    5.4641    1.6307    0.0000 C   0  0  0  0  0  0  0  0  0  0  0  0
    7.8195    4.2467    0.0000 C   0  0  0  0  0  0  0  0  0  0  0  0
    8.8141    4.3512    0.0000 C   0  0  0  0  0  0  0  0  0  0  0  0
    4.5981    0.1307    0.0000 C   0  0  0  0  0  0  0  0  0  0  0  0
    9.2208    5.2648    0.0000 C   0  0  0  0  0  0  0  0  0  0  0  0
    9.4018    3.5422    0.0000 C   0  0  0  0  0  0  0  0  0  0  0  0
    4.5981   -0.8693    0.0000 C   0  0  0  0  0  0  0  0  0  0  0  0
   10.2153    5.3693    0.0000 C   0  0  0  0  0  0  0  0  0  0  0  0
   10.3964    3.6467    0.0000 C   0  0  0  0  0  0  0  0  0  0  0  0
   10.8031    4.5603    0.0000 C   0  0  0  0  0  0  0  0  0  0  0  0
    3.7320   -1.3693    0.0000 C   0  0  0  0  0  0  0  0  0  0  0  0
    5.4641   -1.3693    0.0000 C   0  0  0  0  0  0  0  0  0  0  0  0
    3.7320   -2.3693    0.0000 C   0  0  0  0  0  0  0  0  0  0  0  0
    5.4641   -2.3693    0.0000 C   0  0  0  0  0  0  0  0  0  0  0  0
    4.5981   -2.8693    0.0000 C   0  0  0  0  0  0  0  0  0  0  0  0
    2.0000   -1.3693    0.0000 C   0  0  0  0  0  0  0  0  0  0  0  0
    3.7320   -4.3693    0.0000 C   0  0  0  0  0  0  0  0  0  0  0  0
    3.7320   -5.3693    0.0000 C   0  0  0  0  0  0  0  0  0  0  0  0
    6.3626    1.5116    0.0000 H   0  0  0  0  0  0  0  0  0  0  0  0
    6.9337    1.1870    0.0000 H   0  0  0  0  0  0  0  0  0  0  0  0
    7.7453    1.3596    0.0000 H   0  0  0  0  0  0  0  0  0  0  0  0
    6.3698    3.7418    0.0000 H   0  0  0  0  0  0  0  0  0  0  0  0
    5.8147    3.1252    0.0000 H   0  0  0  0  0  0  0  0  0  0  0  0
    8.3277    2.0064    0.0000 H   0  0  0  0  0  0  0  0  0  0  0  0
    8.4144    2.8315    0.0000 H   0  0  0  0  0  0  0  0  0  0  0  0
    5.2520    2.2133    0.0000 H   0  0  0  0  0  0  0  0  0  0  0  0
    4.8535    1.5230    0.0000 H   0  0  0  0  0  0  0  0  0  0  0  0
    7.8628    4.8652    0.0000 H   0  0  0  0  0  0  0  0  0  0  0  0
    7.2180    4.3967    0.0000 H   0  0  0  0  0  0  0  0  0  0  0  0
    6.0010    0.3207    0.0000 H   0  0  0  0  0  0  0  0  0  0  0  0
    8.8564    5.7664    0.0000 H   0  0  0  0  0  0  0  0  0  0  0  0
    9.1497    2.9758    0.0000 H   0  0  0  0  0  0  0  0  0  0  0  0
   10.4675    5.9357    0.0000 H   0  0  0  0  0  0  0  0  0  0  0  0
   10.7608    3.1451    0.0000 H   0  0  0  0  0  0  0  0  0  0  0  0
   11.4197    4.6251    0.0000 H   0  0  0  0  0  0  0  0  0  0  0  0
    6.0010   -1.0593    0.0000 H   0  0  0  0  0  0  0  0  0  0  0  0
    3.1951   -2.6793    0.0000 H   0  0  0  0  0  0  0  0  0  0  0  0
    5.1350   -4.1793    0.0000 H   0  0  0  0  0  0  0  0  0  0  0  0
    1.6900   -0.8324    0.0000 H   0  0  0  0  0  0  0  0  0  0  0  0
    1.4631   -1.6793    0.0000 H   0  0  0  0  0  0  0  0  0  0  0  0
    2.3100   -1.9062    0.0000 H   0  0  0  0  0  0  0  0  0  0  0  0
    3.1120   -5.3693    0.0000 H   0  0  0  0  0  0  0  0  0  0  0  0
    3.7320   -5.9893    0.0000 H   0  0  0  0  0  0  0  0  0  0  0  0
    4.3520   -5.3693    0.0000 H   0  0  0  0  0  0  0  0  0  0  0  0
  1 25  1  0  0  0  0
  2 15  2  0  0  0  0
  3 22  1  0  0  0  0
  3 27  1  0  0  0  0
  4 28  2  0  0  0  0
  5 10  1  0  0  0  0
  5 11  1  0  0  0  0
  5 13  1  0  0  0  0
  6 12  1  0  0  0  0
  6 15  1  0  0  0  0
  6 41  1  0  0  0  0
  7 26  1  0  0  0  0
  7 28  1  0  0  0  0
  7 49  1  0  0  0  0
  8  9  1  0  0  0  0
  8 10  1  0  0  0  0
  8 12  1  1  0  0  0
  8 30  1  0  0  0  0
  9 11  1  0  0  0  0
  9 31  1  0  0  0  0
  9 32  1  0  0  0  0
 10 33  1  0  0  0  0
 10 34  1  0  0  0  0
 11 35  1  0  0  0  0
 11 36  1  0  0  0  0
 12 37  1  0  0  0  0
 12 38  1  0  0  0  0
 13 14  1  0  0  0  0
 13 39  1  0  0  0  0
 13 40  1  0  0  0  0
 14 16  2  0  0  0  0
 14 17  1  0  0  0  0
 15 18  1  0  0  0  0
 16 19  1  0  0  0  0
 16 42  1  0  0  0  0
 17 20  2  0  0  0  0
 17 43  1  0  0  0  0
 18 22  1  0  0  0  0
 18 23  2  0  0  0  0
 19 21  2  0  0  0  0
 19 44  1  0  0  0  0
 20 21  1  0  0  0  0
 20 45  1  0  0  0  0
 21 46  1  0  0  0  0
 22 24  2  0  0  0  0
 23 25  1  0  0  0  0
 23 47  1  0  0  0  0
 24 26  1  0  0  0  0
 24 48  1  0  0  0  0
 25 26  2  0  0  0  0
 27 50  1  0  0  0  0
 27 51  1  0  0  0  0
 27 52  1  0  0  0  0
 28 29  1  0  0  0  0
 29 53  1  0  0  0  0
 29 54  1  0  0  0  0
 29 55  1  0  0  0  0
M  END
> <PUBCHEM_COMPOUND_CID>
44380717

> <PUBCHEM_COMPOUND_CANONICALIZED>
1

> <PUBCHEM_CACTVS_COMPLEXITY>
555

> <PUBCHEM_CACTVS_HBOND_ACCEPTOR>
4

> <PUBCHEM_CACTVS_HBOND_DONOR>
2

> <PUBCHEM_CACTVS_ROTATABLE_BOND>
7

> <PUBCHEM_CACTVS_SUBSKEYS>
AAADceB7MAAEAAAAAAAAAAAAAAAAAWAAAAAwYAAAAAAAAAABQAAAHgIQAAAADQ7BmCYyxoPABACIAiVSUACCCAAlJwAIiIEObsgMJjbF95vEMWhm9hnI6YeY2SOeCCAAIgAIABAQQABEABAAIAAAAAAAAA==

> <PUBCHEM_IUPAC_OPENEYE_NAME>
4-acetamido-N-[[(3S)-1-benzylpyrrolidin-3-yl]methyl]-5-chloro-2-methoxy-benzamide

> <PUBCHEM_IUPAC_CAS_NAME>
4-acetamido-5-chloro-2-methoxy-N-[[(3S)-1-(phenylmethyl)-3-pyrrolidinyl]methyl]benzamide

> <PUBCHEM_IUPAC_NAME_MARKUP>
4-acetamido-<I>N</I>-[[(3<I>S</I>)-1-benzylpyrrolidin-3-yl]methyl]-5-chloro-2-methoxybenzamide

> <PUBCHEM_IUPAC_NAME>
4-acetamido-N-[[(3S)-1-benzylpyrrolidin-3-yl]methyl]-5-chloro-2-methoxybenzamide

> <PUBCHEM_IUPAC_SYSTEMATIC_NAME>
4-acetamido-5-chloranyl-2-methoxy-N-[[(3S)-1-(phenylmethyl)pyrrolidin-3-yl]methyl]benzamide

> <PUBCHEM_IUPAC_TRADITIONAL_NAME>
4-acetamido-N-[[(3S)-1-benzylpyrrolidin-3-yl]methyl]-5-chloro-2-methoxy-benzamide

> <PUBCHEM_IUPAC_INCHI>
InChI=1S/C22H26ClN3O3/c1-15(27)25-20-11-21(29-2)18(10-19(20)23)22(28)24-12-17-8-9-26(14-17)13-16-6-4-3-5-7-16/h3-7,10-11,17H,8-9,12-14H2,1-2H3,(H,24,28)(H,25,27)/t17-/m0/s1

> <PUBCHEM_IUPAC_INCHIKEY>
FUZBDAGWGHASHR-KRWDZBQOSA-N

> <PUBCHEM_XLOGP3_AA>
2.9

> <PUBCHEM_EXACT_MASS>
415.1662694

> <PUBCHEM_MOLECULAR_FORMULA>
C22H26ClN3O3

> <PUBCHEM_MOLECULAR_WEIGHT>
415.9

> <PUBCHEM_OPENEYE_CAN_SMILES>
CC(=O)NC1=C(C=C(C(=C1)OC)C(=O)NCC2CCN(C2)CC3=CC=CC=C3)Cl

> <PUBCHEM_OPENEYE_ISO_SMILES>
CC(=O)NC1=C(C=C(C(=C1)OC)C(=O)NC[C@@H]2CCN(C2)CC3=CC=CC=C3)Cl

> <PUBCHEM_CACTVS_TPSA>
70.7

> <PUBCHEM_MONOISOTOPIC_WEIGHT>
415.1662694

> <PUBCHEM_TOTAL_CHARGE>
0

> <PUBCHEM_HEAVY_ATOM_COUNT>
29

> <PUBCHEM_ATOM_DEF_STEREO_COUNT>
1

> <PUBCHEM_ATOM_UDEF_STEREO_COUNT>
0

> <PUBCHEM_BOND_DEF_STEREO_COUNT>
0

> <PUBCHEM_BOND_UDEF_STEREO_COUNT>
0

> <PUBCHEM_ISOTOPIC_ATOM_COUNT>
0

> <PUBCHEM_COMPONENT_COUNT>
1

> <PUBCHEM_CACTVS_TAUTO_COUNT>
-1

> <PUBCHEM_COORDINATE_TYPE>
1
5
255

> <PUBCHEM_BONDANNOTATIONS>
14  16  8
14  17  8
16  19  8
17  20  8
18  22  8
18  23  8
19  21  8
20  21  8
22  24  8
23  25  8
24  26  8
25  26  8
8  12  5

$$$$
