56944190
  -OEChem-09292322342D

 56 59  0     0  0  0  0  0  0999 V2000
   13.6365    2.3056    0.0000 Cl  0  0  0  0  0  0  0  0  0  0  0  0
   14.2578    4.2066    0.0000 Cl  0  0  0  0  0  0  0  0  0  0  0  0
   10.3438    3.3818    0.0000 S   0  0  0  0  0  0  0  0  0  0  0  0
    2.0000   -4.7447    0.0000 F   0  0  0  0  0  0  0  0  0  0  0  0
    5.5443   -4.5495    0.0000 O   0  0  0  0  0  0  0  0  0  0  0  0
   10.1376    4.3603    0.0000 O   0  0  0  0  0  0  0  0  0  0  0  0
   10.5500    2.4033    0.0000 O   0  0  0  0  0  0  0  0  0  0  0  0
    6.4763   -0.0884    0.0000 N   0  0  0  0  0  0  0  0  0  0  0  0
    6.1279   -3.7447    0.0000 N   0  0  0  0  0  0  0  0  0  0  0  0
    9.3653    3.1756    0.0000 N   0  0  0  0  0  0  0  0  0  0  0  0
    5.8550   -1.9895    0.0000 C   0  0  0  0  0  0  0  0  0  0  0  0
    5.1871   -1.2452    0.0000 C   0  0  0  0  0  0  0  0  0  0  0  0
    6.8335   -1.7833    0.0000 C   0  0  0  0  0  0  0  0  0  0  0  0
    5.4978   -0.2947    0.0000 C   0  0  0  0  0  0  0  0  0  0  0  0
    7.1441   -0.8327    0.0000 C   0  0  0  0  0  0  0  0  0  0  0  0
    6.7870    0.8621    0.0000 C   0  0  0  0  0  0  0  0  0  0  0  0
    5.5443   -2.9400    0.0000 C   0  0  0  0  0  0  0  0  0  0  0  0
    7.7654    1.0683    0.0000 C   0  0  0  0  0  0  0  0  0  0  0  0
    4.5981   -3.2447    0.0000 C   0  0  0  0  0  0  0  0  0  0  0  0
    8.0761    2.0188    0.0000 C   0  0  0  0  0  0  0  0  0  0  0  0
    4.5981   -4.2447    0.0000 C   0  0  0  0  0  0  0  0  0  0  0  0
    9.0546    2.2250    0.0000 C   0  0  0  0  0  0  0  0  0  0  0  0
    3.7320   -2.7447    0.0000 C   0  0  0  0  0  0  0  0  0  0  0  0
    3.7320   -4.7447    0.0000 C   0  0  0  0  0  0  0  0  0  0  0  0
    2.8660   -3.2447    0.0000 C   0  0  0  0  0  0  0  0  0  0  0  0
    2.8660   -4.2447    0.0000 C   0  0  0  0  0  0  0  0  0  0  0  0
   11.3223    3.5880    0.0000 C   0  0  0  0  0  0  0  0  0  0  0  0
   11.9901    2.8437    0.0000 C   0  0  0  0  0  0  0  0  0  0  0  0
   11.6330    4.5385    0.0000 C   0  0  0  0  0  0  0  0  0  0  0  0
   12.9686    3.0499    0.0000 C   0  0  0  0  0  0  0  0  0  0  0  0
   12.6115    4.7447    0.0000 C   0  0  0  0  0  0  0  0  0  0  0  0
   13.2793    4.0004    0.0000 C   0  0  0  0  0  0  0  0  0  0  0  0
    6.2690   -2.4510    0.0000 H   0  0  0  0  0  0  0  0  0  0  0  0
    4.6402   -0.9532    0.0000 H   0  0  0  0  0  0  0  0  0  0  0  0
    4.8046   -1.7331    0.0000 H   0  0  0  0  0  0  0  0  0  0  0  0
    6.8540   -2.4029    0.0000 H   0  0  0  0  0  0  0  0  0  0  0  0
    7.4473   -1.8706    0.0000 H   0  0  0  0  0  0  0  0  0  0  0  0
    5.4772    0.3250    0.0000 H   0  0  0  0  0  0  0  0  0  0  0  0
    4.8840   -0.2073    0.0000 H   0  0  0  0  0  0  0  0  0  0  0  0
    7.6910   -1.1248    0.0000 H   0  0  0  0  0  0  0  0  0  0  0  0
    7.5267   -0.3448    0.0000 H   0  0  0  0  0  0  0  0  0  0  0  0
    6.7664    1.4817    0.0000 H   0  0  0  0  0  0  0  0  0  0  0  0
    6.1731    0.9494    0.0000 H   0  0  0  0  0  0  0  0  0  0  0  0
    7.7860    0.4486    0.0000 H   0  0  0  0  0  0  0  0  0  0  0  0
    8.3793    0.9809    0.0000 H   0  0  0  0  0  0  0  0  0  0  0  0
    8.0556    2.6385    0.0000 H   0  0  0  0  0  0  0  0  0  0  0  0
    7.4623    2.1062    0.0000 H   0  0  0  0  0  0  0  0  0  0  0  0
    9.0752    1.6054    0.0000 H   0  0  0  0  0  0  0  0  0  0  0  0
    9.6684    2.1377    0.0000 H   0  0  0  0  0  0  0  0  0  0  0  0
    3.7320   -2.1247    0.0000 H   0  0  0  0  0  0  0  0  0  0  0  0
    8.9512    3.6370    0.0000 H   0  0  0  0  0  0  0  0  0  0  0  0
    3.7320   -5.3647    0.0000 H   0  0  0  0  0  0  0  0  0  0  0  0
    2.3291   -2.9347    0.0000 H   0  0  0  0  0  0  0  0  0  0  0  0
   11.7975    2.2544    0.0000 H   0  0  0  0  0  0  0  0  0  0  0  0
   11.2189    5.0000    0.0000 H   0  0  0  0  0  0  0  0  0  0  0  0
   12.8041    5.3341    0.0000 H   0  0  0  0  0  0  0  0  0  0  0  0
  1 30  1  0  0  0  0
  2 32  1  0  0  0  0
  3  6  2  0  0  0  0
  3  7  2  0  0  0  0
  3 10  1  0  0  0  0
  3 27  1  0  0  0  0
  4 26  1  0  0  0  0
  5  9  1  0  0  0  0
  5 21  1  0  0  0  0
  8 14  1  0  0  0  0
  8 15  1  0  0  0  0
  8 16  1  0  0  0  0
  9 17  2  0  0  0  0
 10 22  1  0  0  0  0
 10 51  1  0  0  0  0
 11 12  1  0  0  0  0
 11 13  1  0  0  0  0
 11 17  1  0  0  0  0
 11 33  1  0  0  0  0
 12 14  1  0  0  0  0
 12 34  1  0  0  0  0
 12 35  1  0  0  0  0
 13 15  1  0  0  0  0
 13 36  1  0  0  0  0
 13 37  1  0  0  0  0
 14 38  1  0  0  0  0
 14 39  1  0  0  0  0
 15 40  1  0  0  0  0
 15 41  1  0  0  0  0
 16 18  1  0  0  0  0
 16 42  1  0  0  0  0
 16 43  1  0  0  0  0
 17 19  1  0  0  0  0
 18 20  1  0  0  0  0
 18 44  1  0  0  0  0
 18 45  1  0  0  0  0
 19 21  2  0  0  0  0
 19 23  1  0  0  0  0
 20 22  1  0  0  0  0
 20 46  1  0  0  0  0
 20 47  1  0  0  0  0
 21 24  1  0  0  0  0
 22 48  1  0  0  0  0
 22 49  1  0  0  0  0
 23 25  2  0  0  0  0
 23 50  1  0  0  0  0
 24 26  2  0  0  0  0
 24 52  1  0  0  0  0
 25 26  1  0  0  0  0
 25 53  1  0  0  0  0
 27 28  2  0  0  0  0
 27 29  1  0  0  0  0
 28 30  1  0  0  0  0
 28 54  1  0  0  0  0
 29 31  2  0  0  0  0
 29 55  1  0  0  0  0
 30 32  2  0  0  0  0
 31 32  1  0  0  0  0
 31 56  1  0  0  0  0
M  END
> <PUBCHEM_COMPOUND_CID>
56944190

> <PUBCHEM_COMPOUND_CANONICALIZED>
1

> <PUBCHEM_CACTVS_COMPLEXITY>
705

> <PUBCHEM_CACTVS_HBOND_ACCEPTOR>
7

> <PUBCHEM_CACTVS_HBOND_DONOR>
1

> <PUBCHEM_CACTVS_ROTATABLE_BOND>
8

> <PUBCHEM_CACTVS_SUBSKEYS>
AAADceB7MQBGAAAAAAAAAAAAAAAAAWAAAAA8YIAAAAAAAFgB9AAAHwYUQAAADQ7B3iwwh9NQAAKpA6RyQnDCABAkJQAomvk+TtoIJrqBl5OEMYBm0BmIyceYyOCOAAIAABAIAAQABAAAIBAACAAAAAAAAA==

> <PUBCHEM_IUPAC_OPENEYE_NAME>
3,4-dichloro-N-[4-[4-(6-fluoro-1,2-benzoxazol-3-yl)-1-piperidyl]butyl]benzenesulfonamide

> <PUBCHEM_IUPAC_CAS_NAME>
3,4-dichloro-N-[4-[4-(6-fluoro-1,2-benzoxazol-3-yl)-1-piperidinyl]butyl]benzenesulfonamide

> <PUBCHEM_IUPAC_NAME_MARKUP>
3,4-dichloro-<I>N</I>-[4-[4-(6-fluoro-1,2-benzoxazol-3-yl)piperidin-1-yl]butyl]benzenesulfonamide

> <PUBCHEM_IUPAC_NAME>
3,4-dichloro-N-[4-[4-(6-fluoro-1,2-benzoxazol-3-yl)piperidin-1-yl]butyl]benzenesulfonamide

> <PUBCHEM_IUPAC_SYSTEMATIC_NAME>
3,4-bis(chloranyl)-N-[4-[4-(6-fluoranyl-1,2-benzoxazol-3-yl)piperidin-1-yl]butyl]benzenesulfonamide

> <PUBCHEM_IUPAC_TRADITIONAL_NAME>
3,4-dichloro-N-[4-[4-(6-fluoroindoxazen-3-yl)piperidino]butyl]benzenesulfonamide

> <PUBCHEM_IUPAC_INCHI>
InChI=1S/C22H24Cl2FN3O3S/c23-19-6-4-17(14-20(19)24)32(29,30)26-9-1-2-10-28-11-7-15(8-12-28)22-18-5-3-16(25)13-21(18)31-27-22/h3-6,13-15,26H,1-2,7-12H2

> <PUBCHEM_IUPAC_INCHIKEY>
BOERTKKBWLOLLH-UHFFFAOYSA-N

> <PUBCHEM_XLOGP3_AA>
5.1

> <PUBCHEM_EXACT_MASS>
499.0899464

> <PUBCHEM_MOLECULAR_FORMULA>
C22H24Cl2FN3O3S

> <PUBCHEM_MOLECULAR_WEIGHT>
500.4

> <PUBCHEM_OPENEYE_CAN_SMILES>
C1CN(CCC1C2=NOC3=C2C=CC(=C3)F)CCCCNS(=O)(=O)C4=CC(=C(C=C4)Cl)Cl

> <PUBCHEM_OPENEYE_ISO_SMILES>
C1CN(CCC1C2=NOC3=C2C=CC(=C3)F)CCCCNS(=O)(=O)C4=CC(=C(C=C4)Cl)Cl

> <PUBCHEM_CACTVS_TPSA>
83.8

> <PUBCHEM_MONOISOTOPIC_WEIGHT>
499.0899464

> <PUBCHEM_TOTAL_CHARGE>
0

> <PUBCHEM_HEAVY_ATOM_COUNT>
32

> <PUBCHEM_ATOM_DEF_STEREO_COUNT>
0

> <PUBCHEM_ATOM_UDEF_STEREO_COUNT>
0

> <PUBCHEM_BOND_DEF_STEREO_COUNT>
0

> <PUBCHEM_BOND_UDEF_STEREO_COUNT>
0

> <PUBCHEM_ISOTOPIC_ATOM_COUNT>
0

> <PUBCHEM_COMPONENT_COUNT>
1

> <PUBCHEM_CACTVS_TAUTO_COUNT>
-1

> <PUBCHEM_COORDINATE_TYPE>
1
5
255

> <PUBCHEM_BONDANNOTATIONS>
17  19  8
19  21  8
19  23  8
21  24  8
23  25  8
24  26  8
25  26  8
27  28  8
27  29  8
28  30  8
29  31  8
30  32  8
31  32  8
5  21  8
5  9  8
9  17  8

$$$$
