166629813
  -OEChem-09292322062D

 69 73  0     1  0  0  0  0  0999 V2000
    8.9282   -3.5173    0.0000 O   0  0  0  0  0  0  0  0  0  0  0  0
    4.5981    0.9827    0.0000 N   0  0  3  0  0  0  0  0  0  0  0  0
    5.4641    3.4827    0.0000 N   0  0  0  0  0  0  0  0  0  0  0  0
    7.1962   -2.5173    0.0000 N   0  0  0  0  0  0  0  0  0  0  0  0
    4.6420   -1.0242    0.0000 N   0  0  0  0  0  0  0  0  0  0  0  0
    8.0901    1.9480    0.0000 N   0  0  0  0  0  0  0  0  0  0  0  0
    3.7320    0.4827    0.0000 C   0  0  1  0  0  0  0  0  0  0  0  0
    4.5981    1.9827    0.0000 C   0  0  0  0  0  0  0  0  0  0  0  0
    2.8660    0.9827    0.0000 C   0  0  0  0  0  0  0  0  0  0  0  0
    5.4641    2.4827    0.0000 C   0  0  1  0  0  0  0  0  0  0  0  0
    5.4641    0.4827    0.0000 C   0  0  0  0  0  0  0  0  0  0  0  0
    2.0000    0.4827    0.0000 C   0  0  0  0  0  0  0  0  0  0  0  0
    3.7320   -0.5173    0.0000 C   0  0  0  0  0  0  0  0  0  0  0  0
    2.0000   -0.5173    0.0000 C   0  0  0  0  0  0  0  0  0  0  0  0
    6.3301    1.9827    0.0000 C   0  0  0  0  0  0  0  0  0  0  0  0
    2.8660   -1.0173    0.0000 C   0  0  0  0  0  0  0  0  0  0  0  0
    5.4641   -0.5173    0.0000 C   0  0  0  0  0  0  0  0  0  0  0  0
    6.3301   -1.0173    0.0000 C   0  0  0  0  0  0  0  0  0  0  0  0
    6.3301    3.9827    0.0000 C   0  0  0  0  0  0  0  0  0  0  0  0
    7.1962    2.4827    0.0000 C   0  0  0  0  0  0  0  0  0  0  0  0
    6.3301   -2.0173    0.0000 C   0  0  0  0  0  0  0  0  0  0  0  0
    7.1962    3.4827    0.0000 C   0  0  0  0  0  0  0  0  0  0  0  0
    2.8500   -2.0588    0.0000 C   0  0  0  0  0  0  0  0  0  0  0  0
    8.0622   -2.0173    0.0000 C   0  0  0  0  0  0  0  0  0  0  0  0
    7.1962   -3.5173    0.0000 C   0  0  0  0  0  0  0  0  0  0  0  0
    3.7480   -2.5866    0.0000 C   0  0  0  0  0  0  0  0  0  0  0  0
    4.6501   -2.0658    0.0000 C   0  0  0  0  0  0  0  0  0  0  0  0
    8.0901    4.0173    0.0000 C   0  0  0  0  0  0  0  0  0  0  0  0
    8.9282   -2.5173    0.0000 C   0  0  0  0  0  0  0  0  0  0  0  0
    8.0622   -4.0173    0.0000 C   0  0  0  0  0  0  0  0  0  0  0  0
    8.9962    3.5035    0.0000 C   0  0  0  0  0  0  0  0  0  0  0  0
    8.9962    2.4618    0.0000 C   0  0  0  0  0  0  0  0  0  0  0  0
    3.7320    1.1027    0.0000 H   0  0  0  0  0  0  0  0  0  0  0  0
    4.3860    2.5653    0.0000 H   0  0  0  0  0  0  0  0  0  0  0  0
    3.9875    1.8750    0.0000 H   0  0  0  0  0  0  0  0  0  0  0  0
    3.2646    1.4576    0.0000 H   0  0  0  0  0  0  0  0  0  0  0  0
    2.4675    1.4576    0.0000 H   0  0  0  0  0  0  0  0  0  0  0  0
    4.9272    2.7927    0.0000 H   0  0  0  0  0  0  0  0  0  0  0  0
    6.0747    0.3750    0.0000 H   0  0  0  0  0  0  0  0  0  0  0  0
    5.6762    1.0653    0.0000 H   0  0  0  0  0  0  0  0  0  0  0  0
    1.7880    1.0653    0.0000 H   0  0  0  0  0  0  0  0  0  0  0  0
    1.3894    0.3750    0.0000 H   0  0  0  0  0  0  0  0  0  0  0  0
    1.3894   -0.4097    0.0000 H   0  0  0  0  0  0  0  0  0  0  0  0
    1.7880   -1.0999    0.0000 H   0  0  0  0  0  0  0  0  0  0  0  0
    5.9316    1.5077    0.0000 H   0  0  0  0  0  0  0  0  0  0  0  0
    6.7287    1.5077    0.0000 H   0  0  0  0  0  0  0  0  0  0  0  0
    4.8535   -0.4097    0.0000 H   0  0  0  0  0  0  0  0  0  0  0  0
    5.2520   -1.0999    0.0000 H   0  0  0  0  0  0  0  0  0  0  0  0
    4.9272    3.7927    0.0000 H   0  0  0  0  0  0  0  0  0  0  0  0
    6.9407   -1.1250    0.0000 H   0  0  0  0  0  0  0  0  0  0  0  0
    6.5422   -0.4347    0.0000 H   0  0  0  0  0  0  0  0  0  0  0  0
    6.7287    4.4576    0.0000 H   0  0  0  0  0  0  0  0  0  0  0  0
    5.9316    4.4576    0.0000 H   0  0  0  0  0  0  0  0  0  0  0  0
    5.7196   -1.9097    0.0000 H   0  0  0  0  0  0  0  0  0  0  0  0
    6.1181   -2.5999    0.0000 H   0  0  0  0  0  0  0  0  0  0  0  0
    2.3095   -2.3626    0.0000 H   0  0  0  0  0  0  0  0  0  0  0  0
    8.4607   -1.5424    0.0000 H   0  0  0  0  0  0  0  0  0  0  0  0
    7.6636   -1.5424    0.0000 H   0  0  0  0  0  0  0  0  0  0  0  0
    6.5856   -3.4097    0.0000 H   0  0  0  0  0  0  0  0  0  0  0  0
    6.9841   -4.0999    0.0000 H   0  0  0  0  0  0  0  0  0  0  0  0
    3.7456   -3.2066    0.0000 H   0  0  0  0  0  0  0  0  0  0  0  0
    5.1882   -2.3737    0.0000 H   0  0  0  0  0  0  0  0  0  0  0  0
    8.0829    4.6373    0.0000 H   0  0  0  0  0  0  0  0  0  0  0  0
    9.5388   -2.6250    0.0000 H   0  0  0  0  0  0  0  0  0  0  0  0
    9.1403   -1.9347    0.0000 H   0  0  0  0  0  0  0  0  0  0  0  0
    7.6636   -4.4923    0.0000 H   0  0  0  0  0  0  0  0  0  0  0  0
    8.4607   -4.4923    0.0000 H   0  0  0  0  0  0  0  0  0  0  0  0
    9.5319    3.8156    0.0000 H   0  0  0  0  0  0  0  0  0  0  0  0
    9.5319    2.1498    0.0000 H   0  0  0  0  0  0  0  0  0  0  0  0
  1 29  1  0  0  0  0
  1 30  1  0  0  0  0
  7  2  1  6  0  0  0
  2  8  1  0  0  0  0
  2 11  1  0  0  0  0
  3 10  1  0  0  0  0
  3 19  1  0  0  0  0
  3 49  1  0  0  0  0
  4 21  1  0  0  0  0
  4 24  1  0  0  0  0
  4 25  1  0  0  0  0
  5 13  1  0  0  0  0
  5 27  2  0  0  0  0
  6 20  1  0  0  0  0
  6 32  2  0  0  0  0
  7  9  1  0  0  0  0
  7 13  1  0  0  0  0
  7 33  1  0  0  0  0
 10  8  1  6  0  0  0
  8 34  1  0  0  0  0
  8 35  1  0  0  0  0
  9 12  1  0  0  0  0
  9 36  1  0  0  0  0
  9 37  1  0  0  0  0
 10 15  1  0  0  0  0
 10 38  1  0  0  0  0
 11 17  1  0  0  0  0
 11 39  1  0  0  0  0
 11 40  1  0  0  0  0
 12 14  1  0  0  0  0
 12 41  1  0  0  0  0
 12 42  1  0  0  0  0
 13 16  2  0  0  0  0
 14 16  1  0  0  0  0
 14 43  1  0  0  0  0
 14 44  1  0  0  0  0
 15 20  1  0  0  0  0
 15 45  1  0  0  0  0
 15 46  1  0  0  0  0
 16 23  1  0  0  0  0
 17 18  1  0  0  0  0
 17 47  1  0  0  0  0
 17 48  1  0  0  0  0
 18 21  1  0  0  0  0
 18 50  1  0  0  0  0
 18 51  1  0  0  0  0
 19 22  1  0  0  0  0
 19 52  1  0  0  0  0
 19 53  1  0  0  0  0
 20 22  2  0  0  0  0
 21 54  1  0  0  0  0
 21 55  1  0  0  0  0
 22 28  1  0  0  0  0
 23 26  2  0  0  0  0
 23 56  1  0  0  0  0
 24 29  1  0  0  0  0
 24 57  1  0  0  0  0
 24 58  1  0  0  0  0
 25 30  1  0  0  0  0
 25 59  1  0  0  0  0
 25 60  1  0  0  0  0
 26 27  1  0  0  0  0
 26 61  1  0  0  0  0
 27 62  1  0  0  0  0
 28 31  2  0  0  0  0
 28 63  1  0  0  0  0
 29 64  1  0  0  0  0
 29 65  1  0  0  0  0
 30 66  1  0  0  0  0
 30 67  1  0  0  0  0
 31 32  1  0  0  0  0
 31 68  1  0  0  0  0
 32 69  1  0  0  0  0
M  END
> <PUBCHEM_COMPOUND_CID>
166629813

> <PUBCHEM_COMPOUND_CANONICALIZED>
1

> <PUBCHEM_CACTVS_COMPLEXITY>
556

> <PUBCHEM_CACTVS_HBOND_ACCEPTOR>
6

> <PUBCHEM_CACTVS_HBOND_DONOR>
1

> <PUBCHEM_CACTVS_ROTATABLE_BOND>
8

> <PUBCHEM_CACTVS_SUBSKEYS>
AAADcfB7oAAAAAAAAAAAAAAAAAAAAAAAAAA8WLFiAAAAAACx4AAAHgAQAAAADCjhngY8gJPIFACgAzRnRACCgCAxAiAI2KA4ZJgKYOLA0ZGXIAhgkADYyAcQgIAOAAAAAAAAAAAAAACAAAQAQAAAAAAAAA==

> <PUBCHEM_IUPAC_OPENEYE_NAME>
(8S)-N-(4-morpholinobutyl)-N-[[(7R)-5,6,7,8-tetrahydro-1,6-naphthyridin-7-yl]methyl]-5,6,7,8-tetrahydroquinolin-8-amine

> <PUBCHEM_IUPAC_CAS_NAME>
(8S)-N-[4-(4-morpholinyl)butyl]-N-[[(7R)-5,6,7,8-tetrahydro-1,6-naphthyridin-7-yl]methyl]-5,6,7,8-tetrahydroquinolin-8-amine

> <PUBCHEM_IUPAC_NAME_MARKUP>
(8<I>S</I>)-<I>N</I>-(4-morpholin-4-ylbutyl)-<I>N</I>-[[(7<I>R</I>)-5,6,7,8-tetrahydro-1,6-naphthyridin-7-yl]methyl]-5,6,7,8-tetrahydroquinolin-8-amine

> <PUBCHEM_IUPAC_NAME>
(8S)-N-(4-morpholin-4-ylbutyl)-N-[[(7R)-5,6,7,8-tetrahydro-1,6-naphthyridin-7-yl]methyl]-5,6,7,8-tetrahydroquinolin-8-amine

> <PUBCHEM_IUPAC_SYSTEMATIC_NAME>
(8S)-N-(4-morpholin-4-ylbutyl)-N-[[(7R)-5,6,7,8-tetrahydro-1,6-naphthyridin-7-yl]methyl]-5,6,7,8-tetrahydroquinolin-8-amine

> <PUBCHEM_IUPAC_TRADITIONAL_NAME>
4-morpholinobutyl-[[(7R)-5,6,7,8-tetrahydro-1,6-naphthyridin-7-yl]methyl]-[(8S)-5,6,7,8-tetrahydroquinolin-8-yl]amine

> <PUBCHEM_IUPAC_INCHI>
InChI=1S/C26H37N5O/c1(12-30-14-16-32-17-15-30)2-13-31(25-9-3-6-21-7-4-11-28-26(21)25)20-23-18-24-22(19-29-23)8-5-10-27-24/h4-5,7-8,10-11,23,25,29H,1-3,6,9,12-20H2/t23-,25+/m1/s1

> <PUBCHEM_IUPAC_INCHIKEY>
STAHMXIYSLAGBJ-NOZRDPDXSA-N

> <PUBCHEM_XLOGP3_AA>
2

> <PUBCHEM_EXACT_MASS>
435.29981082

> <PUBCHEM_MOLECULAR_FORMULA>
C26H37N5O

> <PUBCHEM_MOLECULAR_WEIGHT>
435.6

> <PUBCHEM_OPENEYE_CAN_SMILES>
C1CC(C2=C(C1)C=CC=N2)N(CCCCN3CCOCC3)CC4CC5=C(CN4)C=CC=N5

> <PUBCHEM_OPENEYE_ISO_SMILES>
C1C[C@@H](C2=C(C1)C=CC=N2)N(CCCCN3CCOCC3)C[C@H]4CC5=C(CN4)C=CC=N5

> <PUBCHEM_CACTVS_TPSA>
53.5

> <PUBCHEM_MONOISOTOPIC_WEIGHT>
435.29981082

> <PUBCHEM_TOTAL_CHARGE>
0

> <PUBCHEM_HEAVY_ATOM_COUNT>
32

> <PUBCHEM_ATOM_DEF_STEREO_COUNT>
2

> <PUBCHEM_ATOM_UDEF_STEREO_COUNT>
0

> <PUBCHEM_BOND_DEF_STEREO_COUNT>
0

> <PUBCHEM_BOND_UDEF_STEREO_COUNT>
0

> <PUBCHEM_ISOTOPIC_ATOM_COUNT>
0

> <PUBCHEM_COMPONENT_COUNT>
1

> <PUBCHEM_CACTVS_TAUTO_COUNT>
-1

> <PUBCHEM_COORDINATE_TYPE>
1
5
255

> <PUBCHEM_BONDANNOTATIONS>
13  16  8
16  23  8
7  2  6
20  22  8
22  28  8
23  26  8
26  27  8
28  31  8
31  32  8
5  13  8
5  27  8
6  20  8
6  32  8
10  8  6

$$$$
