71460468
  -OEChem-09292322332D

 59 62  0     1  0  0  0  0  0999 V2000
   12.2896   -0.2197    0.0000 O   0  0  0  0  0  0  0  0  0  0  0  0
    6.3981   -0.2834    0.0000 O   0  0  0  0  0  0  0  0  0  0  0  0
    9.7128    0.3802    0.0000 N   0  0  3  0  0  0  0  0  0  0  0  0
    7.2641    1.2166    0.0000 N   0  0  0  0  0  0  0  0  0  0  0  0
    4.6660    0.7166    0.0000 N   0  0  0  0  0  0  0  0  0  0  0  0
    8.1301    0.7166    0.0000 C   0  0  3  0  0  0  0  0  0  0  0  0
    9.0437    1.1234    0.0000 C   0  0  0  0  0  0  0  0  0  0  0  0
    8.2347   -0.2779    0.0000 C   0  0  0  0  0  0  0  0  0  0  0  0
    9.2128   -0.4858    0.0000 C   0  0  0  0  0  0  0  0  0  0  0  0
   10.7073    0.4848    0.0000 C   0  0  0  0  0  0  0  0  0  0  0  0
   11.2951   -0.3243    0.0000 C   0  0  0  0  0  0  0  0  0  0  0  0
    6.3981    0.7166    0.0000 C   0  0  0  0  0  0  0  0  0  0  0  0
    5.5321    1.2166    0.0000 C   0  0  0  0  0  0  0  0  0  0  0  0
   12.8774   -1.0287    0.0000 C   0  0  0  0  0  0  0  0  0  0  0  0
   13.8719   -0.9242    0.0000 C   0  0  0  0  0  0  0  0  0  0  0  0
   14.2787   -0.0107    0.0000 C   0  0  0  0  0  0  0  0  0  0  0  0
    5.5321    2.2166    0.0000 C   0  0  0  0  0  0  0  0  0  0  0  0
   12.4707   -1.9423    0.0000 C   0  0  0  0  0  0  0  0  0  0  0  0
   14.4597   -1.7332    0.0000 C   0  0  0  0  0  0  0  0  0  0  0  0
   15.2732    0.0939    0.0000 C   0  0  0  0  0  0  0  0  0  0  0  0
   13.6909    0.7983    0.0000 C   0  0  0  0  0  0  0  0  0  0  0  0
    3.8000    1.2166    0.0000 C   0  0  0  0  0  0  0  0  0  0  0  0
    4.6660    2.7166    0.0000 C   0  0  0  0  0  0  0  0  0  0  0  0
   13.0585   -2.7513    0.0000 C   0  0  0  0  0  0  0  0  0  0  0  0
    3.8000    2.2166    0.0000 C   0  0  0  0  0  0  0  0  0  0  0  0
   14.0530   -2.6468    0.0000 C   0  0  0  0  0  0  0  0  0  0  0  0
    2.9061    0.6820    0.0000 C   0  0  0  0  0  0  0  0  0  0  0  0
    2.9061    2.7513    0.0000 C   0  0  0  0  0  0  0  0  0  0  0  0
    2.0000    1.1958    0.0000 C   0  0  0  0  0  0  0  0  0  0  0  0
    2.0000    2.2375    0.0000 C   0  0  0  0  0  0  0  0  0  0  0  0
    7.6102    0.3790    0.0000 H   0  0  0  0  0  0  0  0  0  0  0  0
    9.5453    1.4878    0.0000 H   0  0  0  0  0  0  0  0  0  0  0  0
    8.7337    1.6603    0.0000 H   0  0  0  0  0  0  0  0  0  0  0  0
    7.6147   -0.2779    0.0000 H   0  0  0  0  0  0  0  0  0  0  0  0
    8.1699   -0.8945    0.0000 H   0  0  0  0  0  0  0  0  0  0  0  0
    9.0212   -1.0754    0.0000 H   0  0  0  0  0  0  0  0  0  0  0  0
    9.7792   -0.7380    0.0000 H   0  0  0  0  0  0  0  0  0  0  0  0
   11.2646    0.7566    0.0000 H   0  0  0  0  0  0  0  0  0  0  0  0
   10.5364    1.0808    0.0000 H   0  0  0  0  0  0  0  0  0  0  0  0
    7.2641    1.8366    0.0000 H   0  0  0  0  0  0  0  0  0  0  0  0
   10.7379   -0.5960    0.0000 H   0  0  0  0  0  0  0  0  0  0  0  0
   11.4660   -0.9202    0.0000 H   0  0  0  0  0  0  0  0  0  0  0  0
   13.6621   -0.0755    0.0000 H   0  0  0  0  0  0  0  0  0  0  0  0
    6.0690    2.5266    0.0000 H   0  0  0  0  0  0  0  0  0  0  0  0
   11.8541   -2.0071    0.0000 H   0  0  0  0  0  0  0  0  0  0  0  0
   15.0763   -1.6684    0.0000 H   0  0  0  0  0  0  0  0  0  0  0  0
   15.3380   -0.5227    0.0000 H   0  0  0  0  0  0  0  0  0  0  0  0
   15.8898    0.1587    0.0000 H   0  0  0  0  0  0  0  0  0  0  0  0
   15.2084    0.7105    0.0000 H   0  0  0  0  0  0  0  0  0  0  0  0
   14.1925    1.1628    0.0000 H   0  0  0  0  0  0  0  0  0  0  0  0
   13.3265    1.2999    0.0000 H   0  0  0  0  0  0  0  0  0  0  0  0
   13.1893    0.4339    0.0000 H   0  0  0  0  0  0  0  0  0  0  0  0
   12.8063   -3.3177    0.0000 H   0  0  0  0  0  0  0  0  0  0  0  0
    4.6660    3.3366    0.0000 H   0  0  0  0  0  0  0  0  0  0  0  0
   14.4174   -3.1484    0.0000 H   0  0  0  0  0  0  0  0  0  0  0  0
    2.9132    0.0620    0.0000 H   0  0  0  0  0  0  0  0  0  0  0  0
    2.9132    3.3713    0.0000 H   0  0  0  0  0  0  0  0  0  0  0  0
    1.4643    0.8838    0.0000 H   0  0  0  0  0  0  0  0  0  0  0  0
    1.4643    2.5495    0.0000 H   0  0  0  0  0  0  0  0  0  0  0  0
  1 11  1  0  0  0  0
  1 14  1  0  0  0  0
  2 12  2  0  0  0  0
  3  7  1  0  0  0  0
  3  9  1  0  0  0  0
  3 10  1  0  0  0  0
  4  6  1  0  0  0  0
  4 12  1  0  0  0  0
  4 40  1  0  0  0  0
  5 13  2  0  0  0  0
  5 22  1  0  0  0  0
  6  7  1  0  0  0  0
  6  8  1  0  0  0  0
  6 31  1  0  0  0  0
  7 32  1  0  0  0  0
  7 33  1  0  0  0  0
  8  9  1  0  0  0  0
  8 34  1  0  0  0  0
  8 35  1  0  0  0  0
  9 36  1  0  0  0  0
  9 37  1  0  0  0  0
 10 11  1  0  0  0  0
 10 38  1  0  0  0  0
 10 39  1  0  0  0  0
 11 41  1  0  0  0  0
 11 42  1  0  0  0  0
 12 13  1  0  0  0  0
 13 17  1  0  0  0  0
 14 15  1  0  0  0  0
 14 18  2  0  0  0  0
 15 16  1  0  0  0  0
 15 19  2  0  0  0  0
 16 20  1  0  0  0  0
 16 21  1  0  0  0  0
 16 43  1  0  0  0  0
 17 23  2  0  0  0  0
 17 44  1  0  0  0  0
 18 24  1  0  0  0  0
 18 45  1  0  0  0  0
 19 26  1  0  0  0  0
 19 46  1  0  0  0  0
 20 47  1  0  0  0  0
 20 48  1  0  0  0  0
 20 49  1  0  0  0  0
 21 50  1  0  0  0  0
 21 51  1  0  0  0  0
 21 52  1  0  0  0  0
 22 25  1  0  0  0  0
 22 27  2  0  0  0  0
 23 25  1  0  0  0  0
 23 54  1  0  0  0  0
 24 26  2  0  0  0  0
 24 53  1  0  0  0  0
 25 28  2  0  0  0  0
 26 55  1  0  0  0  0
 27 29  1  0  0  0  0
 27 56  1  0  0  0  0
 28 30  1  0  0  0  0
 28 57  1  0  0  0  0
 29 30  2  0  0  0  0
 29 58  1  0  0  0  0
 30 59  1  0  0  0  0
M  END
> <PUBCHEM_COMPOUND_CID>
71460468

> <PUBCHEM_COMPOUND_CANONICALIZED>
1

> <PUBCHEM_CACTVS_COMPLEXITY>
555

> <PUBCHEM_CACTVS_HBOND_ACCEPTOR>
4

> <PUBCHEM_CACTVS_HBOND_DONOR>
1

> <PUBCHEM_CACTVS_ROTATABLE_BOND>
7

> <PUBCHEM_CACTVS_SUBSKEYS>
AAADceB7MAAAAAAAAAAAAAAAAAAAAWAAAAA8YIAAAAAAAACx9AAAHgAQAAAADSzhngYyxvPIFACoAyVyVACCiCAnIiAImKG+bNgOZvLE9buXOSjk1hHY6YeYyOCOgAAAAAAKAAAAAAAAABQAAAAAAAAAAA==

> <PUBCHEM_IUPAC_OPENEYE_NAME>
N-[1-[2-(2-isopropylphenoxy)ethyl]pyrrolidin-3-yl]quinoline-2-carboxamide

> <PUBCHEM_IUPAC_CAS_NAME>
N-[1-[2-(2-propan-2-ylphenoxy)ethyl]-3-pyrrolidinyl]-2-quinolinecarboxamide

> <PUBCHEM_IUPAC_NAME_MARKUP>
<I>N</I>-[1-[2-(2-propan-2-ylphenoxy)ethyl]pyrrolidin-3-yl]quinoline-2-carboxamide

> <PUBCHEM_IUPAC_NAME>
N-[1-[2-(2-propan-2-ylphenoxy)ethyl]pyrrolidin-3-yl]quinoline-2-carboxamide

> <PUBCHEM_IUPAC_SYSTEMATIC_NAME>
N-[1-[2-(2-propan-2-ylphenoxy)ethyl]pyrrolidin-3-yl]quinoline-2-carboxamide

> <PUBCHEM_IUPAC_TRADITIONAL_NAME>
N-[1-[2-(2-isopropylphenoxy)ethyl]pyrrolidin-3-yl]quinaldamide

> <PUBCHEM_IUPAC_INCHI>
InChI=1S/C25H29N3O2/c1-18(2)21-8-4-6-10-24(21)30-16-15-28-14-13-20(17-28)26-25(29)23-12-11-19-7-3-5-9-22(19)27-23/h3-12,18,20H,13-17H2,1-2H3,(H,26,29)

> <PUBCHEM_IUPAC_INCHIKEY>
IJEBNHPCKYYWBR-UHFFFAOYSA-N

> <PUBCHEM_XLOGP3_AA>
4.8

> <PUBCHEM_EXACT_MASS>
403.22597718

> <PUBCHEM_MOLECULAR_FORMULA>
C25H29N3O2

> <PUBCHEM_MOLECULAR_WEIGHT>
403.5

> <PUBCHEM_OPENEYE_CAN_SMILES>
CC(C)C1=CC=CC=C1OCCN2CCC(C2)NC(=O)C3=NC4=CC=CC=C4C=C3

> <PUBCHEM_OPENEYE_ISO_SMILES>
CC(C)C1=CC=CC=C1OCCN2CCC(C2)NC(=O)C3=NC4=CC=CC=C4C=C3

> <PUBCHEM_CACTVS_TPSA>
54.5

> <PUBCHEM_MONOISOTOPIC_WEIGHT>
403.22597718

> <PUBCHEM_TOTAL_CHARGE>
0

> <PUBCHEM_HEAVY_ATOM_COUNT>
30

> <PUBCHEM_ATOM_DEF_STEREO_COUNT>
0

> <PUBCHEM_ATOM_UDEF_STEREO_COUNT>
1

> <PUBCHEM_BOND_DEF_STEREO_COUNT>
0

> <PUBCHEM_BOND_UDEF_STEREO_COUNT>
0

> <PUBCHEM_ISOTOPIC_ATOM_COUNT>
0

> <PUBCHEM_COMPONENT_COUNT>
1

> <PUBCHEM_CACTVS_TAUTO_COUNT>
-1

> <PUBCHEM_COORDINATE_TYPE>
1
5
255

> <PUBCHEM_BONDANNOTATIONS>
13  17  8
14  15  8
14  18  8
15  19  8
17  23  8
18  24  8
19  26  8
22  25  8
22  27  8
23  25  8
24  26  8
25  28  8
27  29  8
28  30  8
29  30  8
6  4  3
5  13  8
5  22  8

$$$$
