136043859
  -OEChem-09292322282D

 58 62  0     0  0  0  0  0  0999 V2000
    8.7204   -2.9128    0.0000 Cl  0  0  0  0  0  0  0  0  0  0  0  0
    3.0814    0.6538    0.0000 N   0  0  0  0  0  0  0  0  0  0  0  0
    3.9491   -1.1481    0.0000 N   0  0  0  0  0  0  0  0  0  0  0  0
    5.3830   -2.0491    0.0000 N   0  0  0  0  0  0  0  0  0  0  0  0
    4.8830   -4.2397    0.0000 N   0  0  0  0  0  0  0  0  0  0  0  0
    2.5180   -0.1724    0.0000 C   0  0  0  0  0  0  0  0  0  0  0  0
    4.0786    0.5791    0.0000 C   0  0  0  0  0  0  0  0  0  0  0  0
    2.9519   -1.0734    0.0000 C   0  0  0  0  0  0  0  0  0  0  0  0
    4.5125   -0.3219    0.0000 C   0  0  0  0  0  0  0  0  0  0  0  0
    2.6475    1.5548    0.0000 C   0  0  0  0  0  0  0  0  0  0  0  0
    4.3830   -2.0491    0.0000 C   0  0  0  0  0  0  0  0  0  0  0  0
    3.2108    2.3810    0.0000 C   0  0  0  0  0  0  0  0  0  0  0  0
    3.7595   -2.8309    0.0000 C   0  0  0  0  0  0  0  0  0  0  0  0
    4.2080    2.3063    0.0000 C   0  0  0  0  0  0  0  0  0  0  0  0
    3.9820   -3.8058    0.0000 C   0  0  0  0  0  0  0  0  0  0  0  0
    2.7769    3.2820    0.0000 C   0  0  0  0  0  0  0  0  0  0  0  0
    6.0065   -2.8309    0.0000 C   0  0  0  0  0  0  0  0  0  0  0  0
    2.7690   -2.5086    0.0000 C   0  0  0  0  0  0  0  0  0  0  0  0
    4.7714    3.1325    0.0000 C   0  0  0  0  0  0  0  0  0  0  0  0
    5.7840   -3.8059    0.0000 C   0  0  0  0  0  0  0  0  0  0  0  0
    3.3403    4.1082    0.0000 C   0  0  0  0  0  0  0  0  0  0  0  0
    4.3375    4.0335    0.0000 C   0  0  0  0  0  0  0  0  0  0  0  0
    4.6419    1.4053    0.0000 C   0  0  0  0  0  0  0  0  0  0  0  0
    3.2295   -4.5260    0.0000 C   0  0  0  0  0  0  0  0  0  0  0  0
    2.0000   -3.2112    0.0000 C   0  0  0  0  0  0  0  0  0  0  0  0
    2.2318   -4.2267    0.0000 C   0  0  0  0  0  0  0  0  0  0  0  0
    6.9970   -2.5086    0.0000 C   0  0  0  0  0  0  0  0  0  0  0  0
    6.5365   -4.5260    0.0000 C   0  0  0  0  0  0  0  0  0  0  0  0
    4.9008    4.8597    0.0000 C   0  0  0  0  0  0  0  0  0  0  0  0
    7.7660   -3.2112    0.0000 C   0  0  0  0  0  0  0  0  0  0  0  0
    7.5342   -4.2267    0.0000 C   0  0  0  0  0  0  0  0  0  0  0  0
    2.0742    0.2605    0.0000 H   0  0  0  0  0  0  0  0  0  0  0  0
    2.0146   -0.5343    0.0000 H   0  0  0  0  0  0  0  0  0  0  0  0
    4.6754    0.7470    0.0000 H   0  0  0  0  0  0  0  0  0  0  0  0
    4.0168    1.1960    0.0000 H   0  0  0  0  0  0  0  0  0  0  0  0
    2.3551   -1.2413    0.0000 H   0  0  0  0  0  0  0  0  0  0  0  0
    3.0137   -1.6903    0.0000 H   0  0  0  0  0  0  0  0  0  0  0  0
    4.9563   -0.7548    0.0000 H   0  0  0  0  0  0  0  0  0  0  0  0
    5.0159    0.0400    0.0000 H   0  0  0  0  0  0  0  0  0  0  0  0
    2.2037    1.9877    0.0000 H   0  0  0  0  0  0  0  0  0  0  0  0
    2.1441    1.1929    0.0000 H   0  0  0  0  0  0  0  0  0  0  0  0
    2.1587    3.3283    0.0000 H   0  0  0  0  0  0  0  0  0  0  0  0
    2.6380   -1.9026    0.0000 H   0  0  0  0  0  0  0  0  0  0  0  0
    5.3896    3.0862    0.0000 H   0  0  0  0  0  0  0  0  0  0  0  0
    4.8830   -4.8597    0.0000 H   0  0  0  0  0  0  0  0  0  0  0  0
    3.0713    4.6668    0.0000 H   0  0  0  0  0  0  0  0  0  0  0  0
    4.0833    1.1363    0.0000 H   0  0  0  0  0  0  0  0  0  0  0  0
    4.9109    0.8467    0.0000 H   0  0  0  0  0  0  0  0  0  0  0  0
    5.2005    1.6743    0.0000 H   0  0  0  0  0  0  0  0  0  0  0  0
    3.3744   -5.1288    0.0000 H   0  0  0  0  0  0  0  0  0  0  0  0
    1.4083   -3.0261    0.0000 H   0  0  0  0  0  0  0  0  0  0  0  0
    1.7789   -4.6501    0.0000 H   0  0  0  0  0  0  0  0  0  0  0  0
    7.1280   -1.9026    0.0000 H   0  0  0  0  0  0  0  0  0  0  0  0
    6.3916   -5.1289    0.0000 H   0  0  0  0  0  0  0  0  0  0  0  0
    5.4131    4.5105    0.0000 H   0  0  0  0  0  0  0  0  0  0  0  0
    5.2501    5.3720    0.0000 H   0  0  0  0  0  0  0  0  0  0  0  0
    4.3885    5.2090    0.0000 H   0  0  0  0  0  0  0  0  0  0  0  0
    7.9871   -4.6502    0.0000 H   0  0  0  0  0  0  0  0  0  0  0  0
  1 30  1  0  0  0  0
  2  6  1  0  0  0  0
  2  7  1  0  0  0  0
  2 10  1  0  0  0  0
  3  8  1  0  0  0  0
  3  9  1  0  0  0  0
  3 11  1  0  0  0  0
  4 11  2  0  0  0  0
  4 17  1  0  0  0  0
  5 15  1  0  0  0  0
  5 20  1  0  0  0  0
  5 45  1  0  0  0  0
  6  8  1  0  0  0  0
  6 32  1  0  0  0  0
  6 33  1  0  0  0  0
  7  9  1  0  0  0  0
  7 34  1  0  0  0  0
  7 35  1  0  0  0  0
  8 36  1  0  0  0  0
  8 37  1  0  0  0  0
  9 38  1  0  0  0  0
  9 39  1  0  0  0  0
 10 12  1  0  0  0  0
 10 40  1  0  0  0  0
 10 41  1  0  0  0  0
 11 13  1  0  0  0  0
 12 14  2  0  0  0  0
 12 16  1  0  0  0  0
 13 15  1  0  0  0  0
 13 18  2  0  0  0  0
 14 19  1  0  0  0  0
 14 23  1  0  0  0  0
 15 24  2  0  0  0  0
 16 21  2  0  0  0  0
 16 42  1  0  0  0  0
 17 20  2  0  0  0  0
 17 27  1  0  0  0  0
 18 25  1  0  0  0  0
 18 43  1  0  0  0  0
 19 22  2  0  0  0  0
 19 44  1  0  0  0  0
 20 28  1  0  0  0  0
 21 22  1  0  0  0  0
 21 46  1  0  0  0  0
 22 29  1  0  0  0  0
 23 47  1  0  0  0  0
 23 48  1  0  0  0  0
 23 49  1  0  0  0  0
 24 26  1  0  0  0  0
 24 50  1  0  0  0  0
 25 26  2  0  0  0  0
 25 51  1  0  0  0  0
 26 52  1  0  0  0  0
 27 30  2  0  0  0  0
 27 53  1  0  0  0  0
 28 31  2  0  0  0  0
 28 54  1  0  0  0  0
 29 55  1  0  0  0  0
 29 56  1  0  0  0  0
 29 57  1  0  0  0  0
 30 31  1  0  0  0  0
 31 58  1  0  0  0  0
M  END
> <PUBCHEM_COMPOUND_CID>
136043859

> <PUBCHEM_COMPOUND_CANONICALIZED>
1

> <PUBCHEM_CACTVS_COMPLEXITY>
631

> <PUBCHEM_CACTVS_HBOND_ACCEPTOR>
3

> <PUBCHEM_CACTVS_HBOND_DONOR>
1

> <PUBCHEM_CACTVS_ROTATABLE_BOND>
3

> <PUBCHEM_CACTVS_SUBSKEYS>
AAADceB7gAAEAAAAAAAAAAAAAAAAAAAAAAA8YMEABAAAAAABUAAAHAIQAAAADArBGCQzwIPAAACgAiZiZACCAAEhBwAJiAAodpgIYOLB25GUIAhgkADIyAcQgMAOwABCAAISACCAAIQABCQAQAAAAAAAAA==

> <PUBCHEM_IUPAC_OPENEYE_NAME>
3-chloro-6-[4-[(2,4-dimethylphenyl)methyl]piperazin-1-yl]-11H-benzo[b][1,4]benzodiazepine

> <PUBCHEM_IUPAC_CAS_NAME>
3-chloro-6-[4-[(2,4-dimethylphenyl)methyl]-1-piperazinyl]-11H-benzo[b][1,4]benzodiazepine

> <PUBCHEM_IUPAC_NAME_MARKUP>
3-chloro-6-[4-[(2,4-dimethylphenyl)methyl]piperazin-1-yl]-11<I>H</I>-benzo[b][1,4]benzodiazepine

> <PUBCHEM_IUPAC_NAME>
3-chloro-6-[4-[(2,4-dimethylphenyl)methyl]piperazin-1-yl]-11H-benzo[b][1,4]benzodiazepine

> <PUBCHEM_IUPAC_SYSTEMATIC_NAME>
3-chloranyl-6-[4-[(2,4-dimethylphenyl)methyl]piperazin-1-yl]-11H-benzo[b][1,4]benzodiazepine

> <PUBCHEM_IUPAC_TRADITIONAL_NAME>
3-chloro-6-[4-(2,4-dimethylbenzyl)piperazino]-11H-benzo[b][1,4]benzodiazepine

> <PUBCHEM_IUPAC_INCHI>
InChI=1S/C26H27ClN4/c1-18-7-8-20(19(2)15-18)17-30-11-13-31(14-12-30)26-22-5-3-4-6-23(22)28-24-10-9-21(27)16-25(24)29-26/h3-10,15-16,28H,11-14,17H2,1-2H3

> <PUBCHEM_IUPAC_INCHIKEY>
YZSCUEBLGDGOJJ-UHFFFAOYSA-N

> <PUBCHEM_XLOGP3_AA>
5.3

> <PUBCHEM_EXACT_MASS>
430.1924246

> <PUBCHEM_MOLECULAR_FORMULA>
C26H27ClN4

> <PUBCHEM_MOLECULAR_WEIGHT>
431.0

> <PUBCHEM_OPENEYE_CAN_SMILES>
CC1=CC(=C(C=C1)CN2CCN(CC2)C3=NC4=C(C=CC(=C4)Cl)NC5=CC=CC=C53)C

> <PUBCHEM_OPENEYE_ISO_SMILES>
CC1=CC(=C(C=C1)CN2CCN(CC2)C3=NC4=C(C=CC(=C4)Cl)NC5=CC=CC=C53)C

> <PUBCHEM_CACTVS_TPSA>
30.9

> <PUBCHEM_MONOISOTOPIC_WEIGHT>
430.1924246

> <PUBCHEM_TOTAL_CHARGE>
0

> <PUBCHEM_HEAVY_ATOM_COUNT>
31

> <PUBCHEM_ATOM_DEF_STEREO_COUNT>
0

> <PUBCHEM_ATOM_UDEF_STEREO_COUNT>
0

> <PUBCHEM_BOND_DEF_STEREO_COUNT>
0

> <PUBCHEM_BOND_UDEF_STEREO_COUNT>
0

> <PUBCHEM_ISOTOPIC_ATOM_COUNT>
0

> <PUBCHEM_COMPONENT_COUNT>
1

> <PUBCHEM_CACTVS_TAUTO_COUNT>
-1

> <PUBCHEM_COORDINATE_TYPE>
1
5
255

> <PUBCHEM_BONDANNOTATIONS>
12  14  8
12  16  8
13  15  8
13  18  8
14  19  8
15  24  8
16  21  8
17  20  8
17  27  8
18  25  8
19  22  8
20  28  8
21  22  8
24  26  8
25  26  8
27  30  8
28  31  8
30  31  8

$$$$
