126533461
  -OEChem-09292322372D

 57 61  0     1  0  0  0  0  0999 V2000
    9.0771    2.7681    0.0000 S   0  0  0  0  0  0  0  0  0  0  0  0
    2.3601   -3.5772    0.0000 F   0  0  0  0  0  0  0  0  0  0  0  0
    3.5962    0.2271    0.0000 N   0  0  3  0  0  0  0  0  0  0  0  0
    6.0771    1.0361    0.0000 N   0  0  3  0  0  0  0  0  0  0  0  0
   10.6649    1.9591    0.0000 N   0  0  0  0  0  0  0  0  0  0  0  0
   10.6649    3.5772    0.0000 N   0  0  0  0  0  0  0  0  0  0  0  0
   11.6159    3.2681    0.0000 N   0  0  0  0  0  0  0  0  0  0  0  0
   13.3385    2.0871    0.0000 N   0  0  0  0  0  0  0  0  0  0  0  0
   13.1294    0.0980    0.0000 N   0  0  0  0  0  0  0  0  0  0  0  0
    4.5472    1.5361    0.0000 C   0  0  3  0  0  0  0  0  0  0  0  0
    4.5472    0.5361    0.0000 C   0  0  3  0  0  0  0  0  0  0  0  0
    5.4935    1.8408    0.0000 C   0  0  0  0  0  0  0  0  0  0  0  0
    3.5962    1.8451    0.0000 C   0  0  0  0  0  0  0  0  0  0  0  0
    5.4935    0.2314    0.0000 C   0  0  0  0  0  0  0  0  0  0  0  0
    3.0084    1.0361    0.0000 C   0  0  0  0  0  0  0  0  0  0  0  0
    7.0771    1.0361    0.0000 C   0  0  0  0  0  0  0  0  0  0  0  0
    3.2872   -0.7240    0.0000 C   0  0  0  0  0  0  0  0  0  0  0  0
    7.5771    1.9021    0.0000 C   0  0  0  0  0  0  0  0  0  0  0  0
    3.9563   -1.4671    0.0000 C   0  0  0  0  0  0  0  0  0  0  0  0
    2.3090   -0.9319    0.0000 C   0  0  0  0  0  0  0  0  0  0  0  0
    8.5771    1.9021    0.0000 C   0  0  0  0  0  0  0  0  0  0  0  0
    3.6473   -2.4182    0.0000 C   0  0  0  0  0  0  0  0  0  0  0  0
    2.0000   -1.8830    0.0000 C   0  0  0  0  0  0  0  0  0  0  0  0
    2.6691   -2.6261    0.0000 C   0  0  0  0  0  0  0  0  0  0  0  0
   10.0771    2.7681    0.0000 C   0  0  0  0  0  0  0  0  0  0  0  0
   11.6159    2.2681    0.0000 C   0  0  0  0  0  0  0  0  0  0  0  0
   10.3558    1.0081    0.0000 C   0  0  0  0  0  0  0  0  0  0  0  0
   12.4249    1.6804    0.0000 C   0  0  0  0  0  0  0  0  0  0  0  0
   12.3204    0.6858    0.0000 C   0  0  0  0  0  0  0  0  0  0  0  0
   14.1475    1.4993    0.0000 C   0  0  0  0  0  0  0  0  0  0  0  0
   14.0430    0.5048    0.0000 C   0  0  0  0  0  0  0  0  0  0  0  0
    4.5480    2.1561    0.0000 H   0  0  0  0  0  0  0  0  0  0  0  0
    4.5480   -0.0839    0.0000 H   0  0  0  0  0  0  0  0  0  0  0  0
    6.0308    2.1500    0.0000 H   0  0  0  0  0  0  0  0  0  0  0  0
    5.2424    2.4077    0.0000 H   0  0  0  0  0  0  0  0  0  0  0  0
    3.8484    2.4115    0.0000 H   0  0  0  0  0  0  0  0  0  0  0  0
    3.0592    2.1551    0.0000 H   0  0  0  0  0  0  0  0  0  0  0  0
    5.2424   -0.3356    0.0000 H   0  0  0  0  0  0  0  0  0  0  0  0
    6.0308   -0.0779    0.0000 H   0  0  0  0  0  0  0  0  0  0  0  0
    2.5476    1.4510    0.0000 H   0  0  0  0  0  0  0  0  0  0  0  0
    2.5476    0.6212    0.0000 H   0  0  0  0  0  0  0  0  0  0  0  0
    6.9694    0.4255    0.0000 H   0  0  0  0  0  0  0  0  0  0  0  0
    7.6597    0.8240    0.0000 H   0  0  0  0  0  0  0  0  0  0  0  0
    7.6847    2.5127    0.0000 H   0  0  0  0  0  0  0  0  0  0  0  0
    6.9945    2.1142    0.0000 H   0  0  0  0  0  0  0  0  0  0  0  0
    4.5628   -1.3382    0.0000 H   0  0  0  0  0  0  0  0  0  0  0  0
    1.8942   -0.4711    0.0000 H   0  0  0  0  0  0  0  0  0  0  0  0
    8.4694    1.2915    0.0000 H   0  0  0  0  0  0  0  0  0  0  0  0
    9.1597    1.6901    0.0000 H   0  0  0  0  0  0  0  0  0  0  0  0
    4.0621   -2.8789    0.0000 H   0  0  0  0  0  0  0  0  0  0  0  0
    1.3936   -2.0119    0.0000 H   0  0  0  0  0  0  0  0  0  0  0  0
    9.7662    1.1997    0.0000 H   0  0  0  0  0  0  0  0  0  0  0  0
   10.1642    0.4184    0.0000 H   0  0  0  0  0  0  0  0  0  0  0  0
   10.9455    0.8165    0.0000 H   0  0  0  0  0  0  0  0  0  0  0  0
   11.7540    0.4337    0.0000 H   0  0  0  0  0  0  0  0  0  0  0  0
   14.7139    1.7515    0.0000 H   0  0  0  0  0  0  0  0  0  0  0  0
   14.5446    0.1404    0.0000 H   0  0  0  0  0  0  0  0  0  0  0  0
  1 21  1  0  0  0  0
  1 25  1  0  0  0  0
  2 24  1  0  0  0  0
  3 11  1  0  0  0  0
  3 15  1  0  0  0  0
  3 17  1  0  0  0  0
  4 12  1  0  0  0  0
  4 14  1  0  0  0  0
  4 16  1  0  0  0  0
  5 25  1  0  0  0  0
  5 26  1  0  0  0  0
  5 27  1  0  0  0  0
  6  7  1  0  0  0  0
  6 25  2  0  0  0  0
  7 26  2  0  0  0  0
  8 28  2  0  0  0  0
  8 30  1  0  0  0  0
  9 29  2  0  0  0  0
  9 31  1  0  0  0  0
 10 11  1  0  0  0  0
 10 12  1  0  0  0  0
 10 13  1  0  0  0  0
 10 32  1  0  0  0  0
 11 14  1  0  0  0  0
 11 33  1  0  0  0  0
 12 34  1  0  0  0  0
 12 35  1  0  0  0  0
 13 15  1  0  0  0  0
 13 36  1  0  0  0  0
 13 37  1  0  0  0  0
 14 38  1  0  0  0  0
 14 39  1  0  0  0  0
 15 40  1  0  0  0  0
 15 41  1  0  0  0  0
 16 18  1  0  0  0  0
 16 42  1  0  0  0  0
 16 43  1  0  0  0  0
 17 19  2  0  0  0  0
 17 20  1  0  0  0  0
 18 21  1  0  0  0  0
 18 44  1  0  0  0  0
 18 45  1  0  0  0  0
 19 22  1  0  0  0  0
 19 46  1  0  0  0  0
 20 23  2  0  0  0  0
 20 47  1  0  0  0  0
 21 48  1  0  0  0  0
 21 49  1  0  0  0  0
 22 24  2  0  0  0  0
 22 50  1  0  0  0  0
 23 24  1  0  0  0  0
 23 51  1  0  0  0  0
 26 28  1  0  0  0  0
 27 52  1  0  0  0  0
 27 53  1  0  0  0  0
 27 54  1  0  0  0  0
 28 29  1  0  0  0  0
 29 55  1  0  0  0  0
 30 31  2  0  0  0  0
 30 56  1  0  0  0  0
 31 57  1  0  0  0  0
M  END
> <PUBCHEM_COMPOUND_CID>
126533461

> <PUBCHEM_COMPOUND_CANONICALIZED>
1

> <PUBCHEM_CACTVS_COMPLEXITY>
578

> <PUBCHEM_CACTVS_HBOND_ACCEPTOR>
8

> <PUBCHEM_CACTVS_HBOND_DONOR>
0

> <PUBCHEM_CACTVS_ROTATABLE_BOND>
7

> <PUBCHEM_CACTVS_SUBSKEYS>
AAADceB7gQBAAAAAAAAAAAAAAAAAAWLFgAA8QAAAAAAWAAAB8AAAHQQIAAAADSjFVwy/0JcMEAiiATZnZACS0C9xErAd2CA4dJiIaOLg2ZGUIAhgiALIyAcQAAAKAAAAAAAAAAAAAAAAAAAAAAAAAAAAAA==

> <PUBCHEM_IUPAC_OPENEYE_NAME>
1-(4-fluorophenyl)-5-[3-[(4-methyl-5-pyrazin-2-yl-1,2,4-triazol-3-yl)sulfanyl]propyl]-2,3,3a,4,6,6a-hexahydropyrrolo[2,3-c]pyrrole

> <PUBCHEM_IUPAC_CAS_NAME>
1-(4-fluorophenyl)-5-[3-[[4-methyl-5-(2-pyrazinyl)-1,2,4-triazol-3-yl]thio]propyl]-2,3,3a,4,6,6a-hexahydropyrrolo[2,3-c]pyrrole

> <PUBCHEM_IUPAC_NAME_MARKUP>
1-(4-fluorophenyl)-5-[3-[(4-methyl-5-pyrazin-2-yl-1,2,4-triazol-3-yl)sulfanyl]propyl]-2,3,3<I>a</I>,4,6,6<I>a</I>-hexahydropyrrolo[2,3-c]pyrrole

> <PUBCHEM_IUPAC_NAME>
1-(4-fluorophenyl)-5-[3-[(4-methyl-5-pyrazin-2-yl-1,2,4-triazol-3-yl)sulfanyl]propyl]-2,3,3a,4,6,6a-hexahydropyrrolo[2,3-c]pyrrole

> <PUBCHEM_IUPAC_SYSTEMATIC_NAME>
1-(4-fluorophenyl)-5-[3-[(4-methyl-5-pyrazin-2-yl-1,2,4-triazol-3-yl)sulfanyl]propyl]-2,3,3a,4,6,6a-hexahydropyrrolo[2,3-c]pyrrole

> <PUBCHEM_IUPAC_TRADITIONAL_NAME>
1-(4-fluorophenyl)-5-[3-[(4-methyl-5-pyrazin-2-yl-1,2,4-triazol-3-yl)thio]propyl]-2,3,3a,4,6,6a-hexahydropyrrolo[2,3-c]pyrrole

> <PUBCHEM_IUPAC_INCHI>
InChI=1S/C22H26FN7S/c1-28-21(19-13-24-8-9-25-19)26-27-22(28)31-12-2-10-29-14-16-7-11-30(20(16)15-29)18-5-3-17(23)4-6-18/h3-6,8-9,13,16,20H,2,7,10-12,14-15H2,1H3

> <PUBCHEM_IUPAC_INCHIKEY>
OACVKINMDRORAI-UHFFFAOYSA-N

> <PUBCHEM_XLOGP3_AA>
2.4

> <PUBCHEM_EXACT_MASS>
439.19544319

> <PUBCHEM_MOLECULAR_FORMULA>
C22H26FN7S

> <PUBCHEM_MOLECULAR_WEIGHT>
439.6

> <PUBCHEM_OPENEYE_CAN_SMILES>
CN1C(=NN=C1SCCCN2CC3CCN(C3C2)C4=CC=C(C=C4)F)C5=NC=CN=C5

> <PUBCHEM_OPENEYE_ISO_SMILES>
CN1C(=NN=C1SCCCN2CC3CCN(C3C2)C4=CC=C(C=C4)F)C5=NC=CN=C5

> <PUBCHEM_CACTVS_TPSA>
88.3

> <PUBCHEM_MONOISOTOPIC_WEIGHT>
439.19544319

> <PUBCHEM_TOTAL_CHARGE>
0

> <PUBCHEM_HEAVY_ATOM_COUNT>
31

> <PUBCHEM_ATOM_DEF_STEREO_COUNT>
0

> <PUBCHEM_ATOM_UDEF_STEREO_COUNT>
2

> <PUBCHEM_BOND_DEF_STEREO_COUNT>
0

> <PUBCHEM_BOND_UDEF_STEREO_COUNT>
0

> <PUBCHEM_ISOTOPIC_ATOM_COUNT>
0

> <PUBCHEM_COMPONENT_COUNT>
1

> <PUBCHEM_CACTVS_TAUTO_COUNT>
-1

> <PUBCHEM_COORDINATE_TYPE>
1
5
255

> <PUBCHEM_BONDANNOTATIONS>
10  13  3
11  14  3
17  19  8
17  20  8
19  22  8
20  23  8
22  24  8
23  24  8
28  29  8
30  31  8
5  25  8
5  26  8
6  25  8
6  7  8
7  26  8
8  28  8
8  30  8
9  29  8
9  31  8

$$$$
