156017281
  -OEChem-09292322422D

 67 72  0     1  0  0  0  0  0999 V2000
   15.8279   -1.9778    0.0000 S   0  0  0  0  0  0  0  0  0  0  0  0
    4.8286   -2.0750    0.0000 O   0  0  0  0  0  0  0  0  0  0  0  0
    6.0292    1.2238    0.0000 O   0  0  0  0  0  0  0  0  0  0  0  0
    5.6854   -0.5190    0.0000 N   0  0  0  0  0  0  0  0  0  0  0  0
   11.7423    0.0413    0.0000 N   0  0  0  0  0  0  0  0  0  0  0  0
   13.6217   -0.6427    0.0000 N   0  0  0  0  0  0  0  0  0  0  0  0
   14.8345   -1.9405    0.0000 N   0  0  0  0  0  0  0  0  0  0  0  0
    2.7041    0.1265    0.0000 C   0  0  1  0  0  0  0  0  0  0  0  0
    2.4453    1.0924    0.0000 C   0  0  2  0  0  0  0  0  0  0  0  0
    4.0768   -0.4656    0.0000 C   0  0  1  0  0  0  0  0  0  0  0  0
    4.4188    0.4741    0.0000 C   0  0  2  0  0  0  0  0  0  0  0  0
    3.1819    2.0750    0.0000 C   0  0  0  0  0  0  0  0  0  0  0  0
    1.3052   -0.3824    0.0000 C   0  0  0  0  0  0  0  0  0  0  0  0
    1.0463    0.5836    0.0000 C   0  0  0  0  0  0  0  0  0  0  0  0
    4.8617   -1.0756    0.0000 C   0  0  0  0  0  0  0  0  0  0  0  0
    5.4122    0.4369    0.0000 C   0  0  0  0  0  0  0  0  0  0  0  0
    6.6251   -0.8610    0.0000 C   0  0  0  0  0  0  0  0  0  0  0  0
    7.3911   -0.2182    0.0000 C   0  0  0  0  0  0  0  0  0  0  0  0
    8.3308   -0.5602    0.0000 C   0  0  0  0  0  0  0  0  0  0  0  0
    9.0968    0.0826    0.0000 C   0  0  0  0  0  0  0  0  0  0  0  0
   10.0365   -0.2594    0.0000 C   0  0  0  0  0  0  0  0  0  0  0  0
   10.8026    0.3834    0.0000 C   0  0  0  0  0  0  0  0  0  0  0  0
   12.5083    0.6841    0.0000 C   0  0  0  0  0  0  0  0  0  0  0  0
   11.9159   -0.9435    0.0000 C   0  0  0  0  0  0  0  0  0  0  0  0
   13.4480    0.3421    0.0000 C   0  0  0  0  0  0  0  0  0  0  0  0
   12.8556   -1.2855    0.0000 C   0  0  0  0  0  0  0  0  0  0  0  0
   14.5614   -0.9847    0.0000 C   0  0  0  0  0  0  0  0  0  0  0  0
   15.3850   -0.4281    0.0000 C   0  0  0  0  0  0  0  0  0  0  0  0
   16.1719   -1.0452    0.0000 C   0  0  0  0  0  0  0  0  0  0  0  0
   15.5259    0.5619    0.0000 C   0  0  0  0  0  0  0  0  0  0  0  0
   17.0998   -0.6722    0.0000 C   0  0  0  0  0  0  0  0  0  0  0  0
   16.4537    0.9349    0.0000 C   0  0  0  0  0  0  0  0  0  0  0  0
   17.2407    0.3179    0.0000 C   0  0  0  0  0  0  0  0  0  0  0  0
    2.9241   -0.6946    0.0000 H   0  0  0  0  0  0  0  0  0  0  0  0
    2.2253    1.9134    0.0000 H   0  0  0  0  0  0  0  0  0  0  0  0
    3.7861   -1.2643    0.0000 H   0  0  0  0  0  0  0  0  0  0  0  0
    4.7095    1.2729    0.0000 H   0  0  0  0  0  0  0  0  0  0  0  0
    2.8641    2.6074    0.0000 H   0  0  0  0  0  0  0  0  0  0  0  0
    3.7950    2.1670    0.0000 H   0  0  0  0  0  0  0  0  0  0  0  0
    1.5001   -0.9709    0.0000 H   0  0  0  0  0  0  0  0  0  0  0  0
    0.7112   -0.5601    0.0000 H   0  0  0  0  0  0  0  0  0  0  0  0
    0.4524    0.4058    0.0000 H   0  0  0  0  0  0  0  0  0  0  0  0
    0.8514    1.1721    0.0000 H   0  0  0  0  0  0  0  0  0  0  0  0
    7.1000   -1.2595    0.0000 H   0  0  0  0  0  0  0  0  0  0  0  0
    6.3151   -1.3979    0.0000 H   0  0  0  0  0  0  0  0  0  0  0  0
    6.9162    0.1803    0.0000 H   0  0  0  0  0  0  0  0  0  0  0  0
    7.7011    0.3188    0.0000 H   0  0  0  0  0  0  0  0  0  0  0  0
    8.8058   -0.9587    0.0000 H   0  0  0  0  0  0  0  0  0  0  0  0
    8.0208   -1.0971    0.0000 H   0  0  0  0  0  0  0  0  0  0  0  0
    8.6219    0.4811    0.0000 H   0  0  0  0  0  0  0  0  0  0  0  0
    9.4068    0.6195    0.0000 H   0  0  0  0  0  0  0  0  0  0  0  0
   10.5115   -0.6580    0.0000 H   0  0  0  0  0  0  0  0  0  0  0  0
    9.7265   -0.7964    0.0000 H   0  0  0  0  0  0  0  0  0  0  0  0
   10.3276    0.7819    0.0000 H   0  0  0  0  0  0  0  0  0  0  0  0
   11.1126    0.9203    0.0000 H   0  0  0  0  0  0  0  0  0  0  0  0
   12.0334    1.0826    0.0000 H   0  0  0  0  0  0  0  0  0  0  0  0
   12.8183    1.2210    0.0000 H   0  0  0  0  0  0  0  0  0  0  0  0
   11.8083   -1.5541    0.0000 H   0  0  0  0  0  0  0  0  0  0  0  0
   11.2959   -0.9435    0.0000 H   0  0  0  0  0  0  0  0  0  0  0  0
   13.5557    0.9527    0.0000 H   0  0  0  0  0  0  0  0  0  0  0  0
   14.0680    0.3421    0.0000 H   0  0  0  0  0  0  0  0  0  0  0  0
   13.3306   -1.6840    0.0000 H   0  0  0  0  0  0  0  0  0  0  0  0
   12.5456   -1.8224    0.0000 H   0  0  0  0  0  0  0  0  0  0  0  0
   15.0380    0.9444    0.0000 H   0  0  0  0  0  0  0  0  0  0  0  0
   17.5877   -1.0547    0.0000 H   0  0  0  0  0  0  0  0  0  0  0  0
   16.5411    1.5487    0.0000 H   0  0  0  0  0  0  0  0  0  0  0  0
   17.8159    0.5491    0.0000 H   0  0  0  0  0  0  0  0  0  0  0  0
  1  7  1  0  0  0  0
  1 29  1  0  0  0  0
  2 15  2  0  0  0  0
  3 16  2  0  0  0  0
  4 15  1  0  0  0  0
  4 16  1  0  0  0  0
  4 17  1  0  0  0  0
  5 22  1  0  0  0  0
  5 23  1  0  0  0  0
  5 24  1  0  0  0  0
  6 25  1  0  0  0  0
  6 26  1  0  0  0  0
  6 27  1  0  0  0  0
  7 27  2  0  0  0  0
  8 10  1  0  0  0  0
  8 12  1  0  0  0  0
  8 13  1  0  0  0  0
  8 34  1  1  0  0  0
  9 11  1  0  0  0  0
  9 12  1  0  0  0  0
  9 14  1  0  0  0  0
  9 35  1  6  0  0  0
 10 11  1  0  0  0  0
 10 15  1  0  0  0  0
 10 36  1  6  0  0  0
 11 16  1  0  0  0  0
 11 37  1  6  0  0  0
 12 38  1  0  0  0  0
 12 39  1  0  0  0  0
 13 14  1  0  0  0  0
 13 40  1  0  0  0  0
 13 41  1  0  0  0  0
 14 42  1  0  0  0  0
 14 43  1  0  0  0  0
 17 18  1  0  0  0  0
 17 44  1  0  0  0  0
 17 45  1  0  0  0  0
 18 19  1  0  0  0  0
 18 46  1  0  0  0  0
 18 47  1  0  0  0  0
 19 20  1  0  0  0  0
 19 48  1  0  0  0  0
 19 49  1  0  0  0  0
 20 21  1  0  0  0  0
 20 50  1  0  0  0  0
 20 51  1  0  0  0  0
 21 22  1  0  0  0  0
 21 52  1  0  0  0  0
 21 53  1  0  0  0  0
 22 54  1  0  0  0  0
 22 55  1  0  0  0  0
 23 25  1  0  0  0  0
 23 56  1  0  0  0  0
 23 57  1  0  0  0  0
 24 26  1  0  0  0  0
 24 58  1  0  0  0  0
 24 59  1  0  0  0  0
 25 60  1  0  0  0  0
 25 61  1  0  0  0  0
 26 62  1  0  0  0  0
 26 63  1  0  0  0  0
 27 28  1  0  0  0  0
 28 29  1  0  0  0  0
 28 30  2  0  0  0  0
 29 31  2  0  0  0  0
 30 32  1  0  0  0  0
 30 64  1  0  0  0  0
 31 33  1  0  0  0  0
 31 65  1  0  0  0  0
 32 33  2  0  0  0  0
 32 66  1  0  0  0  0
 33 67  1  0  0  0  0
M  END
> <PUBCHEM_COMPOUND_CID>
156017281

> <PUBCHEM_COMPOUND_CANONICALIZED>
1

> <PUBCHEM_CACTVS_COMPLEXITY>
714

> <PUBCHEM_CACTVS_HBOND_ACCEPTOR>
6

> <PUBCHEM_CACTVS_HBOND_DONOR>
0

> <PUBCHEM_CACTVS_ROTATABLE_BOND>
8

> <PUBCHEM_CACTVS_SUBSKEYS>
AAADcfB7sABAAAAAAAAAAAAAAAAAAePECAA8YIAAAAAWAFgB8AAAHgQAQAAADQDB2gQxsdMAAACsAiNycACDABAhAABJmDkoRJiIYLLAmZGUIAxghiLIyAcdiMCOgAAAAAAEAAAAAAQAACgAAQAACAAAAA==

> <PUBCHEM_IUPAC_OPENEYE_NAME>
(1R,2S,6R,7S)-4-[6-[4-(1,2-benzothiazol-3-yl)piperazin-1-yl]hexyl]-4-azatricyclo[5.2.1.02,6]decane-3,5-dione

> <PUBCHEM_IUPAC_CAS_NAME>
(1R,2S,6R,7S)-4-[6-[4-(1,2-benzothiazol-3-yl)-1-piperazinyl]hexyl]-4-azatricyclo[5.2.1.02,6]decane-3,5-dione

> <PUBCHEM_IUPAC_NAME_MARKUP>
(1<I>R</I>,2<I>S</I>,6<I>R</I>,7<I>S</I>)-4-[6-[4-(1,2-benzothiazol-3-yl)piperazin-1-yl]hexyl]-4-azatricyclo[5.2.1.0<SUP>2,6</SUP>]decane-3,5-dione

> <PUBCHEM_IUPAC_NAME>
(1R,2S,6R,7S)-4-[6-[4-(1,2-benzothiazol-3-yl)piperazin-1-yl]hexyl]-4-azatricyclo[5.2.1.02,6]decane-3,5-dione

> <PUBCHEM_IUPAC_SYSTEMATIC_NAME>
(1R,2S,6R,7S)-4-[6-[4-(1,2-benzothiazol-3-yl)piperazin-1-yl]hexyl]-4-azatricyclo[5.2.1.02,6]decane-3,5-dione

> <PUBCHEM_IUPAC_TRADITIONAL_NAME>
(1R,2S,6R,7S)-4-[6-[4-(1,2-benzothiazol-3-yl)piperazino]hexyl]-4-azatricyclo[5.2.1.02,6]decane-3,5-quinone

> <PUBCHEM_IUPAC_INCHI>
InChI=1S/C26H34N4O2S/c31-25-22-18-9-10-19(17-18)23(22)26(32)30(25)12-6-2-1-5-11-28-13-15-29(16-14-28)24-20-7-3-4-8-21(20)33-27-24/h3-4,7-8,18-19,22-23H,1-2,5-6,9-17H2/t18-,19+,22+,23-

> <PUBCHEM_IUPAC_INCHIKEY>
UJZNKWHHQIIKBC-ZIIYYELXSA-N

> <PUBCHEM_XLOGP3_AA>
4.7

> <PUBCHEM_EXACT_MASS>
466.24024751

> <PUBCHEM_MOLECULAR_FORMULA>
C26H34N4O2S

> <PUBCHEM_MOLECULAR_WEIGHT>
466.6

> <PUBCHEM_OPENEYE_CAN_SMILES>
C1CC2CC1C3C2C(=O)N(C3=O)CCCCCCN4CCN(CC4)C5=NSC6=CC=CC=C65

> <PUBCHEM_OPENEYE_ISO_SMILES>
C1C[C@H]2C[C@@H]1[C@H]3[C@@H]2C(=O)N(C3=O)CCCCCCN4CCN(CC4)C5=NSC6=CC=CC=C65

> <PUBCHEM_CACTVS_TPSA>
85

> <PUBCHEM_MONOISOTOPIC_WEIGHT>
466.24024751

> <PUBCHEM_TOTAL_CHARGE>
0

> <PUBCHEM_HEAVY_ATOM_COUNT>
33

> <PUBCHEM_ATOM_DEF_STEREO_COUNT>
4

> <PUBCHEM_ATOM_UDEF_STEREO_COUNT>
0

> <PUBCHEM_BOND_DEF_STEREO_COUNT>
0

> <PUBCHEM_BOND_UDEF_STEREO_COUNT>
0

> <PUBCHEM_ISOTOPIC_ATOM_COUNT>
0

> <PUBCHEM_COMPONENT_COUNT>
1

> <PUBCHEM_CACTVS_TAUTO_COUNT>
-1

> <PUBCHEM_COORDINATE_TYPE>
1
5
255

> <PUBCHEM_BONDANNOTATIONS>
1  29  8
1  7  8
10  36  6
11  37  6
27  28  8
28  29  8
28  30  8
29  31  8
30  32  8
31  33  8
32  33  8
7  27  8
8  34  5
9  35  6

$$$$
