44319569
  -OEChem-09292322202D

114119  0     0  0  0  0  0  0999 V2000
    9.3258   -3.4381    0.0000 O   0  0  0  0  0  0  0  0  0  0  0  0
    8.1555    1.3440    0.0000 O   0  0  0  0  0  0  0  0  0  0  0  0
    4.7422   -2.6334    0.0000 N   0  0  0  0  0  0  0  0  0  0  0  0
    3.9813    3.4016    0.0000 N   0  0  0  0  0  0  0  0  0  0  0  0
    4.7422   -4.2429    0.0000 N   0  0  0  0  0  0  0  0  0  0  0  0
    4.9319    4.7004    0.0000 N   0  0  0  0  0  0  0  0  0  0  0  0
   12.3258   -5.1702    0.0000 N   0  0  0  0  0  0  0  0  0  0  0  0
   11.5993    0.9700    0.0000 N   0  0  0  0  0  0  0  0  0  0  0  0
    4.6957    0.0119    0.0000 C   0  0  0  0  0  0  0  0  0  0  0  0
    4.0278    0.7562    0.0000 C   0  0  0  0  0  0  0  0  0  0  0  0
    4.3850   -0.9386    0.0000 C   0  0  0  0  0  0  0  0  0  0  0  0
    4.3385    1.7068    0.0000 C   0  0  0  0  0  0  0  0  0  0  0  0
    5.0529   -1.6829    0.0000 C   0  0  0  0  0  0  0  0  0  0  0  0
    3.6707    2.4511    0.0000 C   0  0  0  0  0  0  0  0  0  0  0  0
    3.7960   -2.9381    0.0000 C   0  0  0  0  0  0  0  0  0  0  0  0
    3.3977    4.2063    0.0000 C   0  0  0  0  0  0  0  0  0  0  0  0
    5.3258   -3.4381    0.0000 C   0  0  0  0  0  0  0  0  0  0  0  0
    4.9276    3.7063    0.0000 C   0  0  0  0  0  0  0  0  0  0  0  0
    3.7960   -3.9381    0.0000 C   0  0  0  0  0  0  0  0  0  0  0  0
    3.9883    5.0133    0.0000 C   0  0  0  0  0  0  0  0  0  0  0  0
    6.3258   -3.4381    0.0000 C   0  0  0  0  0  0  0  0  0  0  0  0
    5.7345    3.1157    0.0000 C   0  0  0  0  0  0  0  0  0  0  0  0
    2.9300   -2.4381    0.0000 C   0  0  0  0  0  0  0  0  0  0  0  0
    2.4036    4.3143    0.0000 C   0  0  0  0  0  0  0  0  0  0  0  0
    2.9300   -4.4381    0.0000 C   0  0  0  0  0  0  0  0  0  0  0  0
    3.5847    5.9282    0.0000 C   0  0  0  0  0  0  0  0  0  0  0  0
    2.0640   -2.9381    0.0000 C   0  0  0  0  0  0  0  0  0  0  0  0
    2.0000    5.2292    0.0000 C   0  0  0  0  0  0  0  0  0  0  0  0
    6.8258   -2.5721    0.0000 C   0  0  0  0  0  0  0  0  0  0  0  0
    5.6266    2.1216    0.0000 C   0  0  0  0  0  0  0  0  0  0  0  0
    6.8258   -4.3042    0.0000 C   0  0  0  0  0  0  0  0  0  0  0  0
    6.6495    3.5193    0.0000 C   0  0  0  0  0  0  0  0  0  0  0  0
    2.0640   -3.9381    0.0000 C   0  0  0  0  0  0  0  0  0  0  0  0
    2.5906    6.0362    0.0000 C   0  0  0  0  0  0  0  0  0  0  0  0
   11.3258   -5.1702    0.0000 C   0  0  0  0  0  0  0  0  0  0  0  0
   10.7923    1.5606    0.0000 C   0  0  0  0  0  0  0  0  0  0  0  0
   10.8258   -4.3042    0.0000 C   0  0  0  0  0  0  0  0  0  0  0  0
    9.8774    1.1570    0.0000 C   0  0  0  0  0  0  0  0  0  0  0  0
    8.3258   -3.4381    0.0000 C   0  0  0  0  0  0  0  0  0  0  0  0
    7.3485    1.9346    0.0000 C   0  0  0  0  0  0  0  0  0  0  0  0
    7.8258   -2.5721    0.0000 C   0  0  0  0  0  0  0  0  0  0  0  0
    6.4335    1.5310    0.0000 C   0  0  0  0  0  0  0  0  0  0  0  0
    7.8258   -4.3042    0.0000 C   0  0  0  0  0  0  0  0  0  0  0  0
    7.4565    2.9287    0.0000 C   0  0  0  0  0  0  0  0  0  0  0  0
    9.8258   -4.3042    0.0000 C   0  0  0  0  0  0  0  0  0  0  0  0
    9.0704    1.7476    0.0000 C   0  0  0  0  0  0  0  0  0  0  0  0
   12.8258   -6.0362    0.0000 C   0  0  0  0  0  0  0  0  0  0  0  0
   12.8258   -4.3042    0.0000 C   0  0  0  0  0  0  0  0  0  0  0  0
   12.5143    1.3735    0.0000 C   0  0  0  0  0  0  0  0  0  0  0  0
   11.4913   -0.0242    0.0000 C   0  0  0  0  0  0  0  0  0  0  0  0
   13.8258   -6.0362    0.0000 C   0  0  0  0  0  0  0  0  0  0  0  0
   13.8258   -4.3042    0.0000 C   0  0  0  0  0  0  0  0  0  0  0  0
   13.3212    0.7830    0.0000 C   0  0  0  0  0  0  0  0  0  0  0  0
   12.2983   -0.6148    0.0000 C   0  0  0  0  0  0  0  0  0  0  0  0
    5.2426   -0.2801    0.0000 H   0  0  0  0  0  0  0  0  0  0  0  0
    5.0782    0.4998    0.0000 H   0  0  0  0  0  0  0  0  0  0  0  0
    3.4809    1.0483    0.0000 H   0  0  0  0  0  0  0  0  0  0  0  0
    3.6453    0.2683    0.0000 H   0  0  0  0  0  0  0  0  0  0  0  0
    3.8381   -0.6466    0.0000 H   0  0  0  0  0  0  0  0  0  0  0  0
    4.0025   -1.4265    0.0000 H   0  0  0  0  0  0  0  0  0  0  0  0
    4.8854    1.4147    0.0000 H   0  0  0  0  0  0  0  0  0  0  0  0
    4.7211    2.1947    0.0000 H   0  0  0  0  0  0  0  0  0  0  0  0
    5.5998   -1.9749    0.0000 H   0  0  0  0  0  0  0  0  0  0  0  0
    5.4354   -1.1950    0.0000 H   0  0  0  0  0  0  0  0  0  0  0  0
    3.1237    2.7431    0.0000 H   0  0  0  0  0  0  0  0  0  0  0  0
    3.2881    1.9632    0.0000 H   0  0  0  0  0  0  0  0  0  0  0  0
    2.9300   -1.8181    0.0000 H   0  0  0  0  0  0  0  0  0  0  0  0
    2.0374    3.8140    0.0000 H   0  0  0  0  0  0  0  0  0  0  0  0
    2.9300   -5.0581    0.0000 H   0  0  0  0  0  0  0  0  0  0  0  0
    3.9509    6.4286    0.0000 H   0  0  0  0  0  0  0  0  0  0  0  0
    1.5270   -2.6281    0.0000 H   0  0  0  0  0  0  0  0  0  0  0  0
    1.3836    5.2962    0.0000 H   0  0  0  0  0  0  0  0  0  0  0  0
    6.5158   -2.0352    0.0000 H   0  0  0  0  0  0  0  0  0  0  0  0
    5.0593    1.8714    0.0000 H   0  0  0  0  0  0  0  0  0  0  0  0
    6.5158   -4.8411    0.0000 H   0  0  0  0  0  0  0  0  0  0  0  0
    6.7164    4.1357    0.0000 H   0  0  0  0  0  0  0  0  0  0  0  0
    1.5270   -4.2481    0.0000 H   0  0  0  0  0  0  0  0  0  0  0  0
    2.3404    6.6035    0.0000 H   0  0  0  0  0  0  0  0  0  0  0  0
   10.7432   -5.3822    0.0000 H   0  0  0  0  0  0  0  0  0  0  0  0
   11.4335   -5.7808    0.0000 H   0  0  0  0  0  0  0  0  0  0  0  0
   11.2398    1.9897    0.0000 H   0  0  0  0  0  0  0  0  0  0  0  0
   10.4474    2.0758    0.0000 H   0  0  0  0  0  0  0  0  0  0  0  0
   11.4084   -4.0921    0.0000 H   0  0  0  0  0  0  0  0  0  0  0  0
   10.7182   -3.6936    0.0000 H   0  0  0  0  0  0  0  0  0  0  0  0
    9.4299    0.7278    0.0000 H   0  0  0  0  0  0  0  0  0  0  0  0
   10.2223    0.6418    0.0000 H   0  0  0  0  0  0  0  0  0  0  0  0
    8.1358   -2.0352    0.0000 H   0  0  0  0  0  0  0  0  0  0  0  0
    6.3666    0.9146    0.0000 H   0  0  0  0  0  0  0  0  0  0  0  0
    8.1358   -4.8411    0.0000 H   0  0  0  0  0  0  0  0  0  0  0  0
    8.0237    3.1789    0.0000 H   0  0  0  0  0  0  0  0  0  0  0  0
    9.2432   -4.5162    0.0000 H   0  0  0  0  0  0  0  0  0  0  0  0
    9.9335   -4.9147    0.0000 H   0  0  0  0  0  0  0  0  0  0  0  0
    9.5179    2.1767    0.0000 H   0  0  0  0  0  0  0  0  0  0  0  0
    8.7255    2.2628    0.0000 H   0  0  0  0  0  0  0  0  0  0  0  0
   12.2432   -6.2483    0.0000 H   0  0  0  0  0  0  0  0  0  0  0  0
   12.9335   -6.6468    0.0000 H   0  0  0  0  0  0  0  0  0  0  0  0
   12.9335   -3.6936    0.0000 H   0  0  0  0  0  0  0  0  0  0  0  0
   12.2432   -4.0921    0.0000 H   0  0  0  0  0  0  0  0  0  0  0  0
   12.9617    1.8027    0.0000 H   0  0  0  0  0  0  0  0  0  0  0  0
   12.1693    1.8887    0.0000 H   0  0  0  0  0  0  0  0  0  0  0  0
   10.8960    0.1488    0.0000 H   0  0  0  0  0  0  0  0  0  0  0  0
   11.2176   -0.5805    0.0000 H   0  0  0  0  0  0  0  0  0  0  0  0
   13.8258   -6.6562    0.0000 H   0  0  0  0  0  0  0  0  0  0  0  0
   14.4458   -6.0362    0.0000 H   0  0  0  0  0  0  0  0  0  0  0  0
   13.8258   -5.4162    0.0000 H   0  0  0  0  0  0  0  0  0  0  0  0
   13.8258   -4.9242    0.0000 H   0  0  0  0  0  0  0  0  0  0  0  0
   14.4458   -4.3042    0.0000 H   0  0  0  0  0  0  0  0  0  0  0  0
   13.8258   -3.6842    0.0000 H   0  0  0  0  0  0  0  0  0  0  0  0
   12.9551    0.2826    0.0000 H   0  0  0  0  0  0  0  0  0  0  0  0
   13.8216    0.4168    0.0000 H   0  0  0  0  0  0  0  0  0  0  0  0
   13.6874    1.2833    0.0000 H   0  0  0  0  0  0  0  0  0  0  0  0
   11.9322   -1.1151    0.0000 H   0  0  0  0  0  0  0  0  0  0  0  0
   12.7987   -0.9809    0.0000 H   0  0  0  0  0  0  0  0  0  0  0  0
   12.6645   -0.1144    0.0000 H   0  0  0  0  0  0  0  0  0  0  0  0
  1 39  1  0  0  0  0
  1 45  1  0  0  0  0
  2 40  1  0  0  0  0
  2 46  1  0  0  0  0
  3 13  1  0  0  0  0
  3 15  1  0  0  0  0
  3 17  1  0  0  0  0
  4 14  1  0  0  0  0
  4 16  1  0  0  0  0
  4 18  1  0  0  0  0
  5 17  2  0  0  0  0
  5 19  1  0  0  0  0
  6 18  2  0  0  0  0
  6 20  1  0  0  0  0
  7 35  1  0  0  0  0
  7 47  1  0  0  0  0
  7 48  1  0  0  0  0
  8 36  1  0  0  0  0
  8 49  1  0  0  0  0
  8 50  1  0  0  0  0
  9 10  1  0  0  0  0
  9 11  1  0  0  0  0
  9 55  1  0  0  0  0
  9 56  1  0  0  0  0
 10 12  1  0  0  0  0
 10 57  1  0  0  0  0
 10 58  1  0  0  0  0
 11 13  1  0  0  0  0
 11 59  1  0  0  0  0
 11 60  1  0  0  0  0
 12 14  1  0  0  0  0
 12 61  1  0  0  0  0
 12 62  1  0  0  0  0
 13 63  1  0  0  0  0
 13 64  1  0  0  0  0
 14 65  1  0  0  0  0
 14 66  1  0  0  0  0
 15 19  1  0  0  0  0
 15 23  2  0  0  0  0
 16 20  1  0  0  0  0
 16 24  2  0  0  0  0
 17 21  1  0  0  0  0
 18 22  1  0  0  0  0
 19 25  2  0  0  0  0
 20 26  2  0  0  0  0
 21 29  2  0  0  0  0
 21 31  1  0  0  0  0
 22 30  2  0  0  0  0
 22 32  1  0  0  0  0
 23 27  1  0  0  0  0
 23 67  1  0  0  0  0
 24 28  1  0  0  0  0
 24 68  1  0  0  0  0
 25 33  1  0  0  0  0
 25 69  1  0  0  0  0
 26 34  1  0  0  0  0
 26 70  1  0  0  0  0
 27 33  2  0  0  0  0
 27 71  1  0  0  0  0
 28 34  2  0  0  0  0
 28 72  1  0  0  0  0
 29 41  1  0  0  0  0
 29 73  1  0  0  0  0
 30 42  1  0  0  0  0
 30 74  1  0  0  0  0
 31 43  2  0  0  0  0
 31 75  1  0  0  0  0
 32 44  2  0  0  0  0
 32 76  1  0  0  0  0
 33 77  1  0  0  0  0
 34 78  1  0  0  0  0
 35 37  1  0  0  0  0
 35 79  1  0  0  0  0
 35 80  1  0  0  0  0
 36 38  1  0  0  0  0
 36 81  1  0  0  0  0
 36 82  1  0  0  0  0
 37 45  1  0  0  0  0
 37 83  1  0  0  0  0
 37 84  1  0  0  0  0
 38 46  1  0  0  0  0
 38 85  1  0  0  0  0
 38 86  1  0  0  0  0
 39 41  2  0  0  0  0
 39 43  1  0  0  0  0
 40 42  2  0  0  0  0
 40 44  1  0  0  0  0
 41 87  1  0  0  0  0
 42 88  1  0  0  0  0
 43 89  1  0  0  0  0
 44 90  1  0  0  0  0
 45 91  1  0  0  0  0
 45 92  1  0  0  0  0
 46 93  1  0  0  0  0
 46 94  1  0  0  0  0
 47 51  1  0  0  0  0
 47 95  1  0  0  0  0
 47 96  1  0  0  0  0
 48 52  1  0  0  0  0
 48 97  1  0  0  0  0
 48 98  1  0  0  0  0
 49 53  1  0  0  0  0
 49 99  1  0  0  0  0
 49100  1  0  0  0  0
 50 54  1  0  0  0  0
 50101  1  0  0  0  0
 50102  1  0  0  0  0
 51103  1  0  0  0  0
 51104  1  0  0  0  0
 51105  1  0  0  0  0
 52106  1  0  0  0  0
 52107  1  0  0  0  0
 52108  1  0  0  0  0
 53109  1  0  0  0  0
 53110  1  0  0  0  0
 53111  1  0  0  0  0
 54112  1  0  0  0  0
 54113  1  0  0  0  0
 54114  1  0  0  0  0
M  END
> <PUBCHEM_COMPOUND_CID>
44319569

> <PUBCHEM_COMPOUND_CANONICALIZED>
1

> <PUBCHEM_CACTVS_COMPLEXITY>
918

> <PUBCHEM_CACTVS_HBOND_ACCEPTOR>
6

> <PUBCHEM_CACTVS_HBOND_DONOR>
0

> <PUBCHEM_CACTVS_ROTATABLE_BOND>
23

> <PUBCHEM_CACTVS_SUBSKEYS>
AAADcfB/sAAAAAAAAAAAAAAAAAAAAWLAAAAwYMGAAAAAAFgB/gAAHgAAAAAADAzhnwYz1rcMFACgAyZiZACCiC0hMqAJ2CA+fJiMbqLEuZuWOCjuwBPI6CeQ0AIOIAAAAAAAACBAAAAAAAAAQAAAAAAAAA==

> <PUBCHEM_IUPAC_OPENEYE_NAME>
3-[4-[1-[6-[2-[4-[3-(diethylamino)propoxy]phenyl]benzimidazol-1-yl]hexyl]benzimidazol-2-yl]phenoxy]-N,N-diethyl-propan-1-amine

> <PUBCHEM_IUPAC_CAS_NAME>
3-[4-[1-[6-[2-[4-[3-(diethylamino)propoxy]phenyl]-1-benzimidazolyl]hexyl]-2-benzimidazolyl]phenoxy]-N,N-diethyl-1-propanamine

> <PUBCHEM_IUPAC_NAME_MARKUP>
3-[4-[1-[6-[2-[4-[3-(diethylamino)propoxy]phenyl]benzimidazol-1-yl]hexyl]benzimidazol-2-yl]phenoxy]-<I>N</I>,<I>N</I>-diethylpropan-1-amine

> <PUBCHEM_IUPAC_NAME>
3-[4-[1-[6-[2-[4-[3-(diethylamino)propoxy]phenyl]benzimidazol-1-yl]hexyl]benzimidazol-2-yl]phenoxy]-N,N-diethylpropan-1-amine

> <PUBCHEM_IUPAC_SYSTEMATIC_NAME>
3-[4-[1-[6-[2-[4-[3-(diethylamino)propoxy]phenyl]benzimidazol-1-yl]hexyl]benzimidazol-2-yl]phenoxy]-N,N-diethyl-propan-1-amine

> <PUBCHEM_IUPAC_TRADITIONAL_NAME>
3-[4-[1-[6-[2-[4-[3-(diethylamino)propoxy]phenyl]benzimidazol-1-yl]hexyl]benzimidazol-2-yl]phenoxy]propyl-diethyl-amine

> <PUBCHEM_IUPAC_INCHI>
InChI=1S/C46H60N6O2/c1-5-49(6-2)31-17-35-53-39-27-23-37(24-28-39)45-47-41-19-11-13-21-43(41)51(45)33-15-9-10-16-34-52-44-22-14-12-20-42(44)48-46(52)38-25-29-40(30-26-38)54-36-18-32-50(7-3)8-4/h11-14,19-30H,5-10,15-18,31-36H2,1-4H3

> <PUBCHEM_IUPAC_INCHIKEY>
CHBCJGRXRVEKLM-UHFFFAOYSA-N

> <PUBCHEM_XLOGP3_AA>
9.5

> <PUBCHEM_EXACT_MASS>
728.47777518

> <PUBCHEM_MOLECULAR_FORMULA>
C46H60N6O2

> <PUBCHEM_MOLECULAR_WEIGHT>
729.0

> <PUBCHEM_OPENEYE_CAN_SMILES>
CCN(CC)CCCOC1=CC=C(C=C1)C2=NC3=CC=CC=C3N2CCCCCCN4C5=CC=CC=C5N=C4C6=CC=C(C=C6)OCCCN(CC)CC

> <PUBCHEM_OPENEYE_ISO_SMILES>
CCN(CC)CCCOC1=CC=C(C=C1)C2=NC3=CC=CC=C3N2CCCCCCN4C5=CC=CC=C5N=C4C6=CC=C(C=C6)OCCCN(CC)CC

> <PUBCHEM_CACTVS_TPSA>
60.6

> <PUBCHEM_MONOISOTOPIC_WEIGHT>
728.47777518

> <PUBCHEM_TOTAL_CHARGE>
0

> <PUBCHEM_HEAVY_ATOM_COUNT>
54

> <PUBCHEM_ATOM_DEF_STEREO_COUNT>
0

> <PUBCHEM_ATOM_UDEF_STEREO_COUNT>
0

> <PUBCHEM_BOND_DEF_STEREO_COUNT>
0

> <PUBCHEM_BOND_UDEF_STEREO_COUNT>
0

> <PUBCHEM_ISOTOPIC_ATOM_COUNT>
0

> <PUBCHEM_COMPONENT_COUNT>
1

> <PUBCHEM_CACTVS_TAUTO_COUNT>
-1

> <PUBCHEM_COORDINATE_TYPE>
1
5
255

> <PUBCHEM_BONDANNOTATIONS>
15  19  8
15  23  8
16  20  8
16  24  8
19  25  8
20  26  8
21  29  8
21  31  8
22  30  8
22  32  8
23  27  8
24  28  8
25  33  8
26  34  8
27  33  8
28  34  8
29  41  8
3  15  8
3  17  8
30  42  8
31  43  8
32  44  8
39  41  8
39  43  8
4  16  8
4  18  8
40  42  8
40  44  8
5  17  8
5  19  8
6  18  8
6  20  8

$$$$
