45264067
  -OEChem-09292322152D

 64 66  0     0  0  0  0  0  0999 V2000
   10.3348    7.7397    0.0000 Cl  0  0  0  0  0  0  0  0  0  0  0  0
    1.4030    2.6200    0.0000 O   0  0  0  0  0  0  0  0  0  0  0  0
    4.0580   10.2078    0.0000 O   0  0  0  0  0  0  0  0  0  0  0  0
    3.1350    5.6200    0.0000 N   0  0  0  0  0  0  0  0  0  0  0  0
    3.1350    3.6200    0.0000 N   0  0  0  0  0  0  0  0  0  0  0  0
    4.3671   11.1588    0.0000 N   0  0  0  0  0  0  0  0  0  0  0  0
    2.2690    5.1200    0.0000 C   0  0  0  0  0  0  0  0  0  0  0  0
    4.0010    5.1200    0.0000 C   0  0  0  0  0  0  0  0  0  0  0  0
    2.2690    4.1200    0.0000 C   0  0  0  0  0  0  0  0  0  0  0  0
    4.0010    4.1200    0.0000 C   0  0  0  0  0  0  0  0  0  0  0  0
    3.1350    6.6200    0.0000 C   0  0  0  0  0  0  0  0  0  0  0  0
    4.0010    7.1200    0.0000 C   0  0  0  0  0  0  0  0  0  0  0  0
    3.1350    2.6200    0.0000 C   0  0  0  0  0  0  0  0  0  0  0  0
    4.0010    8.1200    0.0000 C   0  0  0  0  0  0  0  0  0  0  0  0
    4.8671    8.6200    0.0000 C   0  0  0  0  0  0  0  0  0  0  0  0
    2.2690    2.1200    0.0000 C   0  0  0  0  0  0  0  0  0  0  0  0
    4.0010    2.1200    0.0000 C   0  0  0  0  0  0  0  0  0  0  0  0
    4.8671    9.6200    0.0000 C   0  0  0  0  0  0  0  0  0  0  0  0
    2.2690    1.1200    0.0000 C   0  0  0  0  0  0  0  0  0  0  0  0
    4.0010    1.1200    0.0000 C   0  0  0  0  0  0  0  0  0  0  0  0
    3.1350    0.6200    0.0000 C   0  0  0  0  0  0  0  0  0  0  0  0
    5.6761   10.2078    0.0000 C   0  0  0  0  0  0  0  0  0  0  0  0
    5.3671   11.1588    0.0000 C   0  0  0  0  0  0  0  0  0  0  0  0
    0.5369    2.1200    0.0000 C   0  0  0  0  0  0  0  0  0  0  0  0
    5.9549   11.9679    0.0000 C   0  0  0  0  0  0  0  0  0  0  0  0
    5.5481   12.8814    0.0000 C   0  0  0  0  0  0  0  0  0  0  0  0
    6.1359   13.6904    0.0000 C   0  0  0  0  0  0  0  0  0  0  0  0
    5.7292   14.6040    0.0000 C   0  0  0  0  0  0  0  0  0  0  0  0
    7.1304   13.5859    0.0000 C   0  0  0  0  0  0  0  0  0  0  0  0
    6.3170   15.4130    0.0000 C   0  0  0  0  0  0  0  0  0  0  0  0
    7.7182   14.3949    0.0000 C   0  0  0  0  0  0  0  0  0  0  0  0
    7.3115   15.3085    0.0000 C   0  0  0  0  0  0  0  0  0  0  0  0
    2.0569    5.7026    0.0000 H   0  0  0  0  0  0  0  0  0  0  0  0
    1.6584    5.0123    0.0000 H   0  0  0  0  0  0  0  0  0  0  0  0
    4.6116    5.0123    0.0000 H   0  0  0  0  0  0  0  0  0  0  0  0
    4.2131    5.7026    0.0000 H   0  0  0  0  0  0  0  0  0  0  0  0
    1.6584    4.2277    0.0000 H   0  0  0  0  0  0  0  0  0  0  0  0
    2.0569    3.5374    0.0000 H   0  0  0  0  0  0  0  0  0  0  0  0
    4.2131    3.5374    0.0000 H   0  0  0  0  0  0  0  0  0  0  0  0
    4.6116    4.2277    0.0000 H   0  0  0  0  0  0  0  0  0  0  0  0
    2.9230    7.2026    0.0000 H   0  0  0  0  0  0  0  0  0  0  0  0
    2.5244    6.5123    0.0000 H   0  0  0  0  0  0  0  0  0  0  0  0
    4.2131    6.5374    0.0000 H   0  0  0  0  0  0  0  0  0  0  0  0
    4.6116    7.2277    0.0000 H   0  0  0  0  0  0  0  0  0  0  0  0
    3.7890    8.7026    0.0000 H   0  0  0  0  0  0  0  0  0  0  0  0
    3.3905    8.0123    0.0000 H   0  0  0  0  0  0  0  0  0  0  0  0
    5.0791    8.0374    0.0000 H   0  0  0  0  0  0  0  0  0  0  0  0
    5.4776    8.7277    0.0000 H   0  0  0  0  0  0  0  0  0  0  0  0
    4.5380    2.4300    0.0000 H   0  0  0  0  0  0  0  0  0  0  0  0
    1.7320    0.8100    0.0000 H   0  0  0  0  0  0  0  0  0  0  0  0
    4.5380    0.8100    0.0000 H   0  0  0  0  0  0  0  0  0  0  0  0
    3.1350    0.0000    0.0000 H   0  0  0  0  0  0  0  0  0  0  0  0
    6.2657   10.0162    0.0000 H   0  0  0  0  0  0  0  0  0  0  0  0
    0.2269    2.6569    0.0000 H   0  0  0  0  0  0  0  0  0  0  0  0
    0.0000    1.8100    0.0000 H   0  0  0  0  0  0  0  0  0  0  0  0
    0.8469    1.5831    0.0000 H   0  0  0  0  0  0  0  0  0  0  0  0
    6.5714   11.9031    0.0000 H   0  0  0  0  0  0  0  0  0  0  0  0
    4.9315   12.9462    0.0000 H   0  0  0  0  0  0  0  0  0  0  0  0
    5.1126   14.6688    0.0000 H   0  0  0  0  0  0  0  0  0  0  0  0
    7.3826   13.0195    0.0000 H   0  0  0  0  0  0  0  0  0  0  0  0
    6.0648   15.9794    0.0000 H   0  0  0  0  0  0  0  0  0  0  0  0
    8.3348   14.3301    0.0000 H   0  0  0  0  0  0  0  0  0  0  0  0
    7.6759   15.8100    0.0000 H   0  0  0  0  0  0  0  0  0  0  0  0
   11.3348    7.7397    0.0000 H   0  0  0  0  0  0  0  0  0  0  0  0
  1 64  1  0  0  0  0
  2 16  1  0  0  0  0
  2 24  1  0  0  0  0
  3  6  1  0  0  0  0
  3 18  1  0  0  0  0
  4  7  1  0  0  0  0
  4  8  1  0  0  0  0
  4 11  1  0  0  0  0
  5  9  1  0  0  0  0
  5 10  1  0  0  0  0
  5 13  1  0  0  0  0
  6 23  2  0  0  0  0
  7  9  1  0  0  0  0
  7 33  1  0  0  0  0
  7 34  1  0  0  0  0
  8 10  1  0  0  0  0
  8 35  1  0  0  0  0
  8 36  1  0  0  0  0
  9 37  1  0  0  0  0
  9 38  1  0  0  0  0
 10 39  1  0  0  0  0
 10 40  1  0  0  0  0
 11 12  1  0  0  0  0
 11 41  1  0  0  0  0
 11 42  1  0  0  0  0
 12 14  1  0  0  0  0
 12 43  1  0  0  0  0
 12 44  1  0  0  0  0
 13 16  1  0  0  0  0
 13 17  2  0  0  0  0
 14 15  1  0  0  0  0
 14 45  1  0  0  0  0
 14 46  1  0  0  0  0
 15 18  1  0  0  0  0
 15 47  1  0  0  0  0
 15 48  1  0  0  0  0
 16 19  2  0  0  0  0
 17 20  1  0  0  0  0
 17 49  1  0  0  0  0
 18 22  2  0  0  0  0
 19 21  1  0  0  0  0
 19 50  1  0  0  0  0
 20 21  2  0  0  0  0
 20 51  1  0  0  0  0
 21 52  1  0  0  0  0
 22 23  1  0  0  0  0
 22 53  1  0  0  0  0
 23 25  1  0  0  0  0
 24 54  1  0  0  0  0
 24 55  1  0  0  0  0
 24 56  1  0  0  0  0
 25 26  2  0  0  0  0
 25 57  1  0  0  0  0
 26 27  1  0  0  0  0
 26 58  1  0  0  0  0
 27 28  2  0  0  0  0
 27 29  1  0  0  0  0
 28 30  1  0  0  0  0
 28 59  1  0  0  0  0
 29 31  2  0  0  0  0
 29 60  1  0  0  0  0
 30 32  2  0  0  0  0
 30 61  1  0  0  0  0
 31 32  1  0  0  0  0
 31 62  1  0  0  0  0
 32 63  1  0  0  0  0
M  END
> <PUBCHEM_COMPOUND_CID>
45264067

> <PUBCHEM_COMPOUND_CANONICALIZED>
1

> <PUBCHEM_CACTVS_COMPLEXITY>
529

> <PUBCHEM_CACTVS_HBOND_ACCEPTOR>
5

> <PUBCHEM_CACTVS_HBOND_DONOR>
1

> <PUBCHEM_CACTVS_ROTATABLE_BOND>
9

> <PUBCHEM_CACTVS_SUBSKEYS>
AAADcfB7MAAEAAAAAAAAAAAAAAAAAWAAAAA8YIAAAAAAAAAB0AAAHgAEAAAADAzBngYyxpMQBACpA6RyQgCCCAAlIgAomCE/bNoOZjrEsZuVMahmwBnY6UeY0YIOAAAAAAAAEAAAAAAAAAAgAAAAAAAAAA==

> <PUBCHEM_IUPAC_OPENEYE_NAME>
5-[4-[4-(2-methoxyphenyl)piperazin-1-yl]butyl]-3-[(E)-styryl]isoxazole;hydrochloride

> <PUBCHEM_IUPAC_CAS_NAME>
5-[4-[4-(2-methoxyphenyl)-1-piperazinyl]butyl]-3-[(E)-2-phenylethenyl]isoxazole;hydrochloride

> <PUBCHEM_IUPAC_NAME_MARKUP>
5-[4-[4-(2-methoxyphenyl)piperazin-1-yl]butyl]-3-[(<I>E</I>)-2-phenylethenyl]-1,2-oxazole;hydrochloride

> <PUBCHEM_IUPAC_NAME>
5-[4-[4-(2-methoxyphenyl)piperazin-1-yl]butyl]-3-[(E)-2-phenylethenyl]-1,2-oxazole;hydrochloride

> <PUBCHEM_IUPAC_SYSTEMATIC_NAME>
5-[4-[4-(2-methoxyphenyl)piperazin-1-yl]butyl]-3-[(E)-2-phenylethenyl]-1,2-oxazole;hydrochloride

> <PUBCHEM_IUPAC_TRADITIONAL_NAME>
5-[4-[4-(2-methoxyphenyl)piperazino]butyl]-3-[(E)-styryl]isoxazole;hydrochloride

> <PUBCHEM_IUPAC_INCHI>
InChI=1S/C26H31N3O2.ClH/c1-30-26-13-6-5-12-25(26)29-19-17-28(18-20-29)16-8-7-11-24-21-23(27-31-24)15-14-22-9-3-2-4-10-22;/h2-6,9-10,12-15,21H,7-8,11,16-20H2,1H3;1H/b15-14+;

> <PUBCHEM_IUPAC_INCHIKEY>
BMJXSICDMCAUOP-WPDLWGESSA-N

> <PUBCHEM_EXACT_MASS>
453.2183050

> <PUBCHEM_MOLECULAR_FORMULA>
C26H32ClN3O2

> <PUBCHEM_MOLECULAR_WEIGHT>
454.0

> <PUBCHEM_OPENEYE_CAN_SMILES>
COC1=CC=CC=C1N2CCN(CC2)CCCCC3=CC(=NO3)C=CC4=CC=CC=C4.Cl

> <PUBCHEM_OPENEYE_ISO_SMILES>
COC1=CC=CC=C1N2CCN(CC2)CCCCC3=CC(=NO3)/C=C/C4=CC=CC=C4.Cl

> <PUBCHEM_CACTVS_TPSA>
41.7

> <PUBCHEM_MONOISOTOPIC_WEIGHT>
453.2183050

> <PUBCHEM_TOTAL_CHARGE>
0

> <PUBCHEM_HEAVY_ATOM_COUNT>
32

> <PUBCHEM_ATOM_DEF_STEREO_COUNT>
0

> <PUBCHEM_ATOM_UDEF_STEREO_COUNT>
0

> <PUBCHEM_BOND_DEF_STEREO_COUNT>
1

> <PUBCHEM_BOND_UDEF_STEREO_COUNT>
0

> <PUBCHEM_ISOTOPIC_ATOM_COUNT>
0

> <PUBCHEM_COMPONENT_COUNT>
2

> <PUBCHEM_CACTVS_TAUTO_COUNT>
-1

> <PUBCHEM_COORDINATE_TYPE>
1
5
255

> <PUBCHEM_BONDANNOTATIONS>
13  16  8
13  17  8
16  19  8
17  20  8
18  22  8
19  21  8
20  21  8
22  23  8
27  28  8
27  29  8
28  30  8
29  31  8
3  18  8
3  6  8
30  32  8
31  32  8
6  23  8

$$$$
