23630505
  -OEChem-09292322252D

 61 64  0     1  0  0  0  0  0999 V2000
    6.2614   -1.3978    0.0000 S   0  0  0  0  0  0  0  0  0  0  0  0
   15.6975    1.7009    0.0000 O   0  0  0  0  0  0  0  0  0  0  0  0
    9.2614    0.3343    0.0000 N   0  0  3  0  0  0  0  0  0  0  0  0
    4.6736   -2.2068    0.0000 N   0  0  0  0  0  0  0  0  0  0  0  0
   15.0313    0.9552    0.0000 N   0  0  0  0  0  0  0  0  0  0  0  0
    4.6736   -0.5888    0.0000 N   0  0  0  0  0  0  0  0  0  0  0  0
    3.7226   -0.8978    0.0000 N   0  0  0  0  0  0  0  0  0  0  0  0
    9.6953    1.2352    0.0000 C   0  0  0  0  0  0  0  0  0  0  0  0
    9.6953   -0.5667    0.0000 C   0  0  0  0  0  0  0  0  0  0  0  0
   10.6702    1.4577    0.0000 C   0  0  0  0  0  0  0  0  0  0  0  0
   10.6702   -0.7892    0.0000 C   0  0  0  0  0  0  0  0  0  0  0  0
   11.4520    0.8343    0.0000 C   0  0  0  0  0  0  0  0  0  0  0  0
    8.2614    0.3343    0.0000 C   0  0  0  0  0  0  0  0  0  0  0  0
   11.4520   -0.1657    0.0000 C   0  0  0  0  0  0  0  0  0  0  0  0
    7.7614   -0.5318    0.0000 C   0  0  0  0  0  0  0  0  0  0  0  0
   12.3460    1.3689    0.0000 C   0  0  0  0  0  0  0  0  0  0  0  0
   12.3460   -0.7004    0.0000 C   0  0  0  0  0  0  0  0  0  0  0  0
   13.2521    0.8551    0.0000 C   0  0  0  0  0  0  0  0  0  0  0  0
    6.7614   -0.5318    0.0000 C   0  0  0  0  0  0  0  0  0  0  0  0
   13.2521   -0.1866    0.0000 C   0  0  0  0  0  0  0  0  0  0  0  0
   14.1161    1.3584    0.0000 C   0  0  0  0  0  0  0  0  0  0  0  0
    2.9136   -2.4856    0.0000 C   0  0  0  0  0  0  0  0  0  0  0  0
    5.2614   -1.3978    0.0000 C   0  0  0  0  0  0  0  0  0  0  0  0
    3.7226   -1.8978    0.0000 C   0  0  0  0  0  0  0  0  0  0  0  0
   14.2168    2.3533    0.0000 C   0  0  0  0  0  0  0  0  0  0  0  0
    2.0000   -2.0788    0.0000 C   0  0  0  0  0  0  0  0  0  0  0  0
    3.0181   -3.4801    0.0000 C   0  0  0  0  0  0  0  0  0  0  0  0
    4.9826   -3.1579    0.0000 C   0  0  0  0  0  0  0  0  0  0  0  0
   15.1942    2.5650    0.0000 C   0  0  0  0  0  0  0  0  0  0  0  0
   15.5974    3.4801    0.0000 C   0  0  0  0  0  0  0  0  0  0  0  0
    9.6953    1.8552    0.0000 H   0  0  0  0  0  0  0  0  0  0  0  0
    9.0908    1.3732    0.0000 H   0  0  0  0  0  0  0  0  0  0  0  0
    9.0908   -0.7047    0.0000 H   0  0  0  0  0  0  0  0  0  0  0  0
    9.6953   -1.1867    0.0000 H   0  0  0  0  0  0  0  0  0  0  0  0
   11.1550    1.8443    0.0000 H   0  0  0  0  0  0  0  0  0  0  0  0
   10.4012    2.0163    0.0000 H   0  0  0  0  0  0  0  0  0  0  0  0
   10.4012   -1.3478    0.0000 H   0  0  0  0  0  0  0  0  0  0  0  0
   11.1550   -1.1758    0.0000 H   0  0  0  0  0  0  0  0  0  0  0  0
    8.3691    0.9448    0.0000 H   0  0  0  0  0  0  0  0  0  0  0  0
    7.6788    0.5463    0.0000 H   0  0  0  0  0  0  0  0  0  0  0  0
    7.6537   -1.1424    0.0000 H   0  0  0  0  0  0  0  0  0  0  0  0
    8.3440   -0.7438    0.0000 H   0  0  0  0  0  0  0  0  0  0  0  0
   12.3388    1.9889    0.0000 H   0  0  0  0  0  0  0  0  0  0  0  0
   12.3388   -1.3204    0.0000 H   0  0  0  0  0  0  0  0  0  0  0  0
    6.8691    0.0788    0.0000 H   0  0  0  0  0  0  0  0  0  0  0  0
    6.1788   -0.3197    0.0000 H   0  0  0  0  0  0  0  0  0  0  0  0
   13.7878   -0.4986    0.0000 H   0  0  0  0  0  0  0  0  0  0  0  0
    2.8487   -1.8690    0.0000 H   0  0  0  0  0  0  0  0  0  0  0  0
   13.7545    2.7664    0.0000 H   0  0  0  0  0  0  0  0  0  0  0  0
    2.2522   -1.5124    0.0000 H   0  0  0  0  0  0  0  0  0  0  0  0
    1.4336   -1.8267    0.0000 H   0  0  0  0  0  0  0  0  0  0  0  0
    1.7478   -2.6452    0.0000 H   0  0  0  0  0  0  0  0  0  0  0  0
    2.4015   -3.5449    0.0000 H   0  0  0  0  0  0  0  0  0  0  0  0
    3.0829   -4.0967    0.0000 H   0  0  0  0  0  0  0  0  0  0  0  0
    3.6347   -3.4153    0.0000 H   0  0  0  0  0  0  0  0  0  0  0  0
    4.3930   -3.3495    0.0000 H   0  0  0  0  0  0  0  0  0  0  0  0
    5.1742   -3.7475    0.0000 H   0  0  0  0  0  0  0  0  0  0  0  0
    5.5723   -2.9663    0.0000 H   0  0  0  0  0  0  0  0  0  0  0  0
   16.1648    3.2301    0.0000 H   0  0  0  0  0  0  0  0  0  0  0  0
   15.8474    4.0475    0.0000 H   0  0  0  0  0  0  0  0  0  0  0  0
   15.0300    3.7301    0.0000 H   0  0  0  0  0  0  0  0  0  0  0  0
  1 19  1  0  0  0  0
  1 23  1  0  0  0  0
  2  5  1  0  0  0  0
  2 29  1  0  0  0  0
  3  8  1  0  0  0  0
  3  9  1  0  0  0  0
  3 13  1  0  0  0  0
  4 23  1  0  0  0  0
  4 24  1  0  0  0  0
  4 28  1  0  0  0  0
  5 21  2  0  0  0  0
  6  7  1  0  0  0  0
  6 23  2  0  0  0  0
  7 24  2  0  0  0  0
  8 10  1  0  0  0  0
  8 31  1  0  0  0  0
  8 32  1  0  0  0  0
  9 11  1  0  0  0  0
  9 33  1  0  0  0  0
  9 34  1  0  0  0  0
 10 12  1  0  0  0  0
 10 35  1  0  0  0  0
 10 36  1  0  0  0  0
 11 14  1  0  0  0  0
 11 37  1  0  0  0  0
 11 38  1  0  0  0  0
 12 14  2  0  0  0  0
 12 16  1  0  0  0  0
 13 15  1  0  0  0  0
 13 39  1  0  0  0  0
 13 40  1  0  0  0  0
 14 17  1  0  0  0  0
 15 19  1  0  0  0  0
 15 41  1  0  0  0  0
 15 42  1  0  0  0  0
 16 18  2  0  0  0  0
 16 43  1  0  0  0  0
 17 20  2  0  0  0  0
 17 44  1  0  0  0  0
 18 20  1  0  0  0  0
 18 21  1  0  0  0  0
 19 45  1  0  0  0  0
 19 46  1  0  0  0  0
 20 47  1  0  0  0  0
 21 25  1  0  0  0  0
 22 24  1  0  0  0  0
 22 26  1  0  0  0  0
 22 27  1  0  0  0  0
 22 48  1  0  0  0  0
 25 29  2  0  0  0  0
 25 49  1  0  0  0  0
 26 50  1  0  0  0  0
 26 51  1  0  0  0  0
 26 52  1  0  0  0  0
 27 53  1  0  0  0  0
 27 54  1  0  0  0  0
 27 55  1  0  0  0  0
 28 56  1  0  0  0  0
 28 57  1  0  0  0  0
 28 58  1  0  0  0  0
 29 30  1  0  0  0  0
 30 59  1  0  0  0  0
 30 60  1  0  0  0  0
 30 61  1  0  0  0  0
M  END
> <PUBCHEM_COMPOUND_CID>
23630505

> <PUBCHEM_COMPOUND_CANONICALIZED>
1

> <PUBCHEM_CACTVS_COMPLEXITY>
538

> <PUBCHEM_CACTVS_HBOND_ACCEPTOR>
6

> <PUBCHEM_CACTVS_HBOND_DONOR>
0

> <PUBCHEM_CACTVS_ROTATABLE_BOND>
7

> <PUBCHEM_CACTVS_SUBSKEYS>
AAADceB7oABAAAAAAAAAAAAAAAAAAWLAAAAwAAAABYAAAAAB8AAAHgQMAAAADQzF3wSzlJccEAirA6ZyZgCS0AtkIrA92CE+bNqILrqgmZOEMYBmiBqIyUeYyOCOwAACAAAQAACAAAQAACAAAAAAAAAAAA==

> <PUBCHEM_IUPAC_OPENEYE_NAME>
3-[3-[3-[(5-isopropyl-4-methyl-1,2,4-triazol-3-yl)sulfanyl]propyl]-1,2,4,5-tetrahydro-3-benzazepin-7-yl]-5-methyl-isoxazole

> <PUBCHEM_IUPAC_CAS_NAME>
5-methyl-3-[3-[3-[(4-methyl-5-propan-2-yl-1,2,4-triazol-3-yl)thio]propyl]-1,2,4,5-tetrahydro-3-benzazepin-7-yl]isoxazole

> <PUBCHEM_IUPAC_NAME_MARKUP>
5-methyl-3-[3-[3-[(4-methyl-5-propan-2-yl-1,2,4-triazol-3-yl)sulfanyl]propyl]-1,2,4,5-tetrahydro-3-benzazepin-7-yl]-1,2-oxazole

> <PUBCHEM_IUPAC_NAME>
5-methyl-3-[3-[3-[(4-methyl-5-propan-2-yl-1,2,4-triazol-3-yl)sulfanyl]propyl]-1,2,4,5-tetrahydro-3-benzazepin-7-yl]-1,2-oxazole

> <PUBCHEM_IUPAC_SYSTEMATIC_NAME>
5-methyl-3-[3-[3-[(4-methyl-5-propan-2-yl-1,2,4-triazol-3-yl)sulfanyl]propyl]-1,2,4,5-tetrahydro-3-benzazepin-7-yl]-1,2-oxazole

> <PUBCHEM_IUPAC_TRADITIONAL_NAME>
3-[3-[3-[(5-isopropyl-4-methyl-1,2,4-triazol-3-yl)thio]propyl]-1,2,4,5-tetrahydro-3-benzazepin-7-yl]-5-methyl-isoxazole

> <PUBCHEM_IUPAC_INCHI>
InChI=1S/C23H31N5OS/c1-16(2)22-24-25-23(27(22)4)30-13-5-10-28-11-8-18-6-7-20(15-19(18)9-12-28)21-14-17(3)29-26-21/h6-7,14-16H,5,8-13H2,1-4H3

> <PUBCHEM_IUPAC_INCHIKEY>
XOPUTZJGNOKLDY-UHFFFAOYSA-N

> <PUBCHEM_XLOGP3_AA>
4.3

> <PUBCHEM_EXACT_MASS>
425.22493180

> <PUBCHEM_MOLECULAR_FORMULA>
C23H31N5OS

> <PUBCHEM_MOLECULAR_WEIGHT>
425.6

> <PUBCHEM_OPENEYE_CAN_SMILES>
CC1=CC(=NO1)C2=CC3=C(CCN(CC3)CCCSC4=NN=C(N4C)C(C)C)C=C2

> <PUBCHEM_OPENEYE_ISO_SMILES>
CC1=CC(=NO1)C2=CC3=C(CCN(CC3)CCCSC4=NN=C(N4C)C(C)C)C=C2

> <PUBCHEM_CACTVS_TPSA>
85.3

> <PUBCHEM_MONOISOTOPIC_WEIGHT>
425.22493180

> <PUBCHEM_TOTAL_CHARGE>
0

> <PUBCHEM_HEAVY_ATOM_COUNT>
30

> <PUBCHEM_ATOM_DEF_STEREO_COUNT>
0

> <PUBCHEM_ATOM_UDEF_STEREO_COUNT>
0

> <PUBCHEM_BOND_DEF_STEREO_COUNT>
0

> <PUBCHEM_BOND_UDEF_STEREO_COUNT>
0

> <PUBCHEM_ISOTOPIC_ATOM_COUNT>
0

> <PUBCHEM_COMPONENT_COUNT>
1

> <PUBCHEM_CACTVS_TAUTO_COUNT>
-1

> <PUBCHEM_COORDINATE_TYPE>
1
5
255

> <PUBCHEM_BONDANNOTATIONS>
12  14  8
12  16  8
14  17  8
16  18  8
17  20  8
18  20  8
2  29  8
2  5  8
21  25  8
25  29  8
4  23  8
4  24  8
5  21  8
6  23  8
6  7  8
7  24  8

$$$$
