155567045
  -OEChem-09292322402D

 59 62  0     0  0  0  0  0  0999 V2000
    4.9641    7.5194    0.0000 S   0  0  0  0  0  0  0  0  0  0  0  0
    6.3301    1.4806    0.0000 O   0  0  0  0  0  0  0  0  0  0  0  0
    2.8660   -2.5194    0.0000 N   0  0  0  0  0  0  0  0  0  0  0  0
    2.8660   -4.5194    0.0000 N   0  0  0  0  0  0  0  0  0  0  0  0
    4.5981    1.4806    0.0000 N   0  0  0  0  0  0  0  0  0  0  0  0
    2.0000   -3.0194    0.0000 C   0  0  0  0  0  0  0  0  0  0  0  0
    3.7320   -3.0194    0.0000 C   0  0  0  0  0  0  0  0  0  0  0  0
    2.0000   -4.0194    0.0000 C   0  0  0  0  0  0  0  0  0  0  0  0
    3.7320   -4.0194    0.0000 C   0  0  0  0  0  0  0  0  0  0  0  0
    2.8660   -1.5194    0.0000 C   0  0  0  0  0  0  0  0  0  0  0  0
    3.7320   -1.0194    0.0000 C   0  0  0  0  0  0  0  0  0  0  0  0
    2.8660   -5.5194    0.0000 C   0  0  0  0  0  0  0  0  0  0  0  0
    3.7320   -0.0194    0.0000 C   0  0  0  0  0  0  0  0  0  0  0  0
    4.5981    0.4806    0.0000 C   0  0  0  0  0  0  0  0  0  0  0  0
    3.7320   -6.0194    0.0000 C   0  0  0  0  0  0  0  0  0  0  0  0
    2.0000   -6.0194    0.0000 C   0  0  0  0  0  0  0  0  0  0  0  0
    3.7320   -7.0194    0.0000 C   0  0  0  0  0  0  0  0  0  0  0  0
    2.0000   -7.0194    0.0000 C   0  0  0  0  0  0  0  0  0  0  0  0
    2.8660   -7.5194    0.0000 C   0  0  0  0  0  0  0  0  0  0  0  0
    5.4641    1.9806    0.0000 C   0  0  0  0  0  0  0  0  0  0  0  0
    5.4641    2.9806    0.0000 C   0  0  0  0  0  0  0  0  0  0  0  0
    4.5981    3.4806    0.0000 C   0  0  0  0  0  0  0  0  0  0  0  0
    6.3301    3.4806    0.0000 C   0  0  0  0  0  0  0  0  0  0  0  0
    5.4641    4.9806    0.0000 C   0  0  0  0  0  0  0  0  0  0  0  0
    4.5981    4.4806    0.0000 C   0  0  0  0  0  0  0  0  0  0  0  0
    6.3301    4.4806    0.0000 C   0  0  0  0  0  0  0  0  0  0  0  0
    5.4641    5.9806    0.0000 C   0  0  0  0  0  0  0  0  0  0  0  0
    6.2731    6.5684    0.0000 C   0  0  0  0  0  0  0  0  0  0  0  0
    4.6551    6.5684    0.0000 C   0  0  0  0  0  0  0  0  0  0  0  0
    5.9641    7.5194    0.0000 C   0  0  0  0  0  0  0  0  0  0  0  0
    1.7880   -2.4368    0.0000 H   0  0  0  0  0  0  0  0  0  0  0  0
    1.3894   -3.1271    0.0000 H   0  0  0  0  0  0  0  0  0  0  0  0
    4.3426   -3.1271    0.0000 H   0  0  0  0  0  0  0  0  0  0  0  0
    3.9441   -2.4368    0.0000 H   0  0  0  0  0  0  0  0  0  0  0  0
    1.3894   -3.9118    0.0000 H   0  0  0  0  0  0  0  0  0  0  0  0
    1.7880   -4.6020    0.0000 H   0  0  0  0  0  0  0  0  0  0  0  0
    3.9441   -4.6020    0.0000 H   0  0  0  0  0  0  0  0  0  0  0  0
    4.3426   -3.9118    0.0000 H   0  0  0  0  0  0  0  0  0  0  0  0
    2.6540   -0.9368    0.0000 H   0  0  0  0  0  0  0  0  0  0  0  0
    2.2554   -1.6271    0.0000 H   0  0  0  0  0  0  0  0  0  0  0  0
    3.9441   -1.6020    0.0000 H   0  0  0  0  0  0  0  0  0  0  0  0
    4.3426   -0.9118    0.0000 H   0  0  0  0  0  0  0  0  0  0  0  0
    3.5200    0.5632    0.0000 H   0  0  0  0  0  0  0  0  0  0  0  0
    3.1215   -0.1271    0.0000 H   0  0  0  0  0  0  0  0  0  0  0  0
    4.8101   -0.1020    0.0000 H   0  0  0  0  0  0  0  0  0  0  0  0
    5.2087    0.5882    0.0000 H   0  0  0  0  0  0  0  0  0  0  0  0
    4.2690   -5.7094    0.0000 H   0  0  0  0  0  0  0  0  0  0  0  0
    1.4631   -5.7094    0.0000 H   0  0  0  0  0  0  0  0  0  0  0  0
    4.0611    1.7906    0.0000 H   0  0  0  0  0  0  0  0  0  0  0  0
    4.2690   -7.3294    0.0000 H   0  0  0  0  0  0  0  0  0  0  0  0
    1.4631   -7.3294    0.0000 H   0  0  0  0  0  0  0  0  0  0  0  0
    2.8660   -8.1394    0.0000 H   0  0  0  0  0  0  0  0  0  0  0  0
    4.0611    3.1706    0.0000 H   0  0  0  0  0  0  0  0  0  0  0  0
    6.8671    3.1706    0.0000 H   0  0  0  0  0  0  0  0  0  0  0  0
    4.0611    4.7906    0.0000 H   0  0  0  0  0  0  0  0  0  0  0  0
    6.8671    4.7906    0.0000 H   0  0  0  0  0  0  0  0  0  0  0  0
    6.8628    6.3768    0.0000 H   0  0  0  0  0  0  0  0  0  0  0  0
    4.0654    6.3768    0.0000 H   0  0  0  0  0  0  0  0  0  0  0  0
    6.3285    8.0210    0.0000 H   0  0  0  0  0  0  0  0  0  0  0  0
  1 29  1  0  0  0  0
  1 30  1  0  0  0  0
  2 20  2  0  0  0  0
  3  6  1  0  0  0  0
  3  7  1  0  0  0  0
  3 10  1  0  0  0  0
  4  8  1  0  0  0  0
  4  9  1  0  0  0  0
  4 12  1  0  0  0  0
  5 14  1  0  0  0  0
  5 20  1  0  0  0  0
  5 49  1  0  0  0  0
  6  8  1  0  0  0  0
  6 31  1  0  0  0  0
  6 32  1  0  0  0  0
  7  9  1  0  0  0  0
  7 33  1  0  0  0  0
  7 34  1  0  0  0  0
  8 35  1  0  0  0  0
  8 36  1  0  0  0  0
  9 37  1  0  0  0  0
  9 38  1  0  0  0  0
 10 11  1  0  0  0  0
 10 39  1  0  0  0  0
 10 40  1  0  0  0  0
 11 13  1  0  0  0  0
 11 41  1  0  0  0  0
 11 42  1  0  0  0  0
 12 15  2  0  0  0  0
 12 16  1  0  0  0  0
 13 14  1  0  0  0  0
 13 43  1  0  0  0  0
 13 44  1  0  0  0  0
 14 45  1  0  0  0  0
 14 46  1  0  0  0  0
 15 17  1  0  0  0  0
 15 47  1  0  0  0  0
 16 18  2  0  0  0  0
 16 48  1  0  0  0  0
 17 19  2  0  0  0  0
 17 50  1  0  0  0  0
 18 19  1  0  0  0  0
 18 51  1  0  0  0  0
 19 52  1  0  0  0  0
 20 21  1  0  0  0  0
 21 22  2  0  0  0  0
 21 23  1  0  0  0  0
 22 25  1  0  0  0  0
 22 53  1  0  0  0  0
 23 26  2  0  0  0  0
 23 54  1  0  0  0  0
 24 25  2  0  0  0  0
 24 26  1  0  0  0  0
 24 27  1  0  0  0  0
 25 55  1  0  0  0  0
 26 56  1  0  0  0  0
 27 28  1  0  0  0  0
 27 29  2  0  0  0  0
 28 30  2  0  0  0  0
 28 57  1  0  0  0  0
 29 58  1  0  0  0  0
 30 59  1  0  0  0  0
M  END
> <PUBCHEM_COMPOUND_CID>
155567045

> <PUBCHEM_COMPOUND_CANONICALIZED>
1

> <PUBCHEM_CACTVS_COMPLEXITY>
509

> <PUBCHEM_CACTVS_HBOND_ACCEPTOR>
4

> <PUBCHEM_CACTVS_HBOND_DONOR>
1

> <PUBCHEM_CACTVS_ROTATABLE_BOND>
8

> <PUBCHEM_CACTVS_SUBSKEYS>
AAADceB7IABAAAAAAAAAAAAAAAAAASAAAAA8YIAAAAAAAAAB0AAAHgQQAAAADAjF2ASwwYPAAAiMAiVSUACDAIAlChBIiJkIZMgIYDLglZGUIQhglgDoyYcYiMCOwAAAAAAAAACAAAAAAAAAAAAAAAAAAA==

> <PUBCHEM_IUPAC_OPENEYE_NAME>
N-[4-(4-phenylpiperazin-1-yl)butyl]-4-(3-thienyl)benzamide

> <PUBCHEM_IUPAC_CAS_NAME>
N-[4-(4-phenyl-1-piperazinyl)butyl]-4-(3-thiophenyl)benzamide

> <PUBCHEM_IUPAC_NAME_MARKUP>
<I>N</I>-[4-(4-phenylpiperazin-1-yl)butyl]-4-thiophen-3-ylbenzamide

> <PUBCHEM_IUPAC_NAME>
N-[4-(4-phenylpiperazin-1-yl)butyl]-4-thiophen-3-ylbenzamide

> <PUBCHEM_IUPAC_SYSTEMATIC_NAME>
N-[4-(4-phenylpiperazin-1-yl)butyl]-4-thiophen-3-yl-benzamide

> <PUBCHEM_IUPAC_TRADITIONAL_NAME>
N-[4-(4-phenylpiperazino)butyl]-4-(3-thienyl)benzamide

> <PUBCHEM_IUPAC_INCHI>
InChI=1S/C25H29N3OS/c29-25(22-10-8-21(9-11-22)23-12-19-30-20-23)26-13-4-5-14-27-15-17-28(18-16-27)24-6-2-1-3-7-24/h1-3,6-12,19-20H,4-5,13-18H2,(H,26,29)

> <PUBCHEM_IUPAC_INCHIKEY>
WAOBJIAOTFLXLR-UHFFFAOYSA-N

> <PUBCHEM_XLOGP3_AA>
4.9

> <PUBCHEM_EXACT_MASS>
419.20313373

> <PUBCHEM_MOLECULAR_FORMULA>
C25H29N3OS

> <PUBCHEM_MOLECULAR_WEIGHT>
419.6

> <PUBCHEM_OPENEYE_CAN_SMILES>
C1CN(CCN1CCCCNC(=O)C2=CC=C(C=C2)C3=CSC=C3)C4=CC=CC=C4

> <PUBCHEM_OPENEYE_ISO_SMILES>
C1CN(CCN1CCCCNC(=O)C2=CC=C(C=C2)C3=CSC=C3)C4=CC=CC=C4

> <PUBCHEM_CACTVS_TPSA>
63.8

> <PUBCHEM_MONOISOTOPIC_WEIGHT>
419.20313373

> <PUBCHEM_TOTAL_CHARGE>
0

> <PUBCHEM_HEAVY_ATOM_COUNT>
30

> <PUBCHEM_ATOM_DEF_STEREO_COUNT>
0

> <PUBCHEM_ATOM_UDEF_STEREO_COUNT>
0

> <PUBCHEM_BOND_DEF_STEREO_COUNT>
0

> <PUBCHEM_BOND_UDEF_STEREO_COUNT>
0

> <PUBCHEM_ISOTOPIC_ATOM_COUNT>
0

> <PUBCHEM_COMPONENT_COUNT>
1

> <PUBCHEM_CACTVS_TAUTO_COUNT>
-1

> <PUBCHEM_COORDINATE_TYPE>
1
5
255

> <PUBCHEM_BONDANNOTATIONS>
1  29  8
1  30  8
12  15  8
12  16  8
15  17  8
16  18  8
17  19  8
18  19  8
21  22  8
21  23  8
22  25  8
23  26  8
24  25  8
24  26  8
27  28  8
27  29  8
28  30  8

$$$$
