155514459
  -OEChem-09292322462D

 53 56  0     0  0  0  0  0  0999 V2000
    6.7210   -2.8321    0.0000 S   0  0  0  0  0  0  0  0  0  0  0  0
    7.6715   -2.5214    0.0000 O   0  0  0  0  0  0  0  0  0  0  0  0
    5.7705   -3.1427    0.0000 O   0  0  0  0  0  0  0  0  0  0  0  0
    2.8660   -0.0768    0.0000 O   0  0  0  0  0  0  0  0  0  0  0  0
    8.0646    3.7804    0.0000 O   0  0  0  0  0  0  0  0  0  0  0  0
    6.4103   -1.8815    0.0000 N   0  0  0  0  0  0  0  0  0  0  0  0
    7.6743    1.9858    0.0000 N   0  0  0  0  0  0  0  0  0  0  0  0
    6.1346    1.4885    0.0000 N   0  0  0  0  0  0  0  0  0  0  0  0
    6.4164    3.2481    0.0000 N   0  0  0  0  0  0  0  0  0  0  0  0
    5.4641   -1.5768    0.0000 C   0  0  0  0  0  0  0  0  0  0  0  0
    5.4641   -0.5768    0.0000 C   0  0  0  0  0  0  0  0  0  0  0  0
    6.4103   -0.2721    0.0000 C   0  0  0  0  0  0  0  0  0  0  0  0
    6.9939   -1.0768    0.0000 C   0  0  0  0  0  0  0  0  0  0  0  0
    6.7210    0.6784    0.0000 C   0  0  0  0  0  0  0  0  0  0  0  0
    4.5981   -0.0768    0.0000 C   0  0  0  0  0  0  0  0  0  0  0  0
    4.5981   -2.0768    0.0000 C   0  0  0  0  0  0  0  0  0  0  0  0
    7.6726    0.9858    0.0000 C   0  0  0  0  0  0  0  0  0  0  0  0
    7.0316   -3.7826    0.0000 C   0  0  0  0  0  0  0  0  0  0  0  0
    3.7320   -0.5768    0.0000 C   0  0  0  0  0  0  0  0  0  0  0  0
    3.7320   -1.5768    0.0000 C   0  0  0  0  0  0  0  0  0  0  0  0
    6.7238    2.2965    0.0000 C   0  0  0  0  0  0  0  0  0  0  0  0
    8.4806    0.3966    0.0000 C   0  0  0  0  0  0  0  0  0  0  0  0
    8.0102   -3.9888    0.0000 C   0  0  0  0  0  0  0  0  0  0  0  0
    6.3638   -4.5269    0.0000 C   0  0  0  0  0  0  0  0  0  0  0  0
    8.3208   -4.9393    0.0000 C   0  0  0  0  0  0  0  0  0  0  0  0
    6.6745   -5.4774    0.0000 C   0  0  0  0  0  0  0  0  0  0  0  0
    7.6530   -5.6836    0.0000 C   0  0  0  0  0  0  0  0  0  0  0  0
    7.0868    3.9900    0.0000 C   0  0  0  0  0  0  0  0  0  0  0  0
    2.0000   -0.5768    0.0000 C   0  0  0  0  0  0  0  0  0  0  0  0
    6.7795    4.9416    0.0000 C   0  0  0  0  0  0  0  0  0  0  0  0
    7.4499    5.6836    0.0000 C   0  0  0  0  0  0  0  0  0  0  0  0
    7.6139   -1.0768    0.0000 H   0  0  0  0  0  0  0  0  0  0  0  0
    4.5981    0.5432    0.0000 H   0  0  0  0  0  0  0  0  0  0  0  0
    4.5981   -2.6968    0.0000 H   0  0  0  0  0  0  0  0  0  0  0  0
    3.1951   -1.8868    0.0000 H   0  0  0  0  0  0  0  0  0  0  0  0
    8.1765    2.3494    0.0000 H   0  0  0  0  0  0  0  0  0  0  0  0
    8.1153   -0.1043    0.0000 H   0  0  0  0  0  0  0  0  0  0  0  0
    8.9815    0.0313    0.0000 H   0  0  0  0  0  0  0  0  0  0  0  0
    8.8459    0.8976    0.0000 H   0  0  0  0  0  0  0  0  0  0  0  0
    8.4242   -3.5273    0.0000 H   0  0  0  0  0  0  0  0  0  0  0  0
    5.7571   -4.3990    0.0000 H   0  0  0  0  0  0  0  0  0  0  0  0
    5.8102    3.3780    0.0000 H   0  0  0  0  0  0  0  0  0  0  0  0
    8.9275   -5.0672    0.0000 H   0  0  0  0  0  0  0  0  0  0  0  0
    6.2604   -5.9389    0.0000 H   0  0  0  0  0  0  0  0  0  0  0  0
    7.8456   -6.2730    0.0000 H   0  0  0  0  0  0  0  0  0  0  0  0
    1.6900   -0.0399    0.0000 H   0  0  0  0  0  0  0  0  0  0  0  0
    1.4631   -0.8868    0.0000 H   0  0  0  0  0  0  0  0  0  0  0  0
    2.3100   -1.1138    0.0000 H   0  0  0  0  0  0  0  0  0  0  0  0
    6.3986    5.4309    0.0000 H   0  0  0  0  0  0  0  0  0  0  0  0
    6.2315    4.6515    0.0000 H   0  0  0  0  0  0  0  0  0  0  0  0
    7.9099    5.2680    0.0000 H   0  0  0  0  0  0  0  0  0  0  0  0
    7.8655    6.1437    0.0000 H   0  0  0  0  0  0  0  0  0  0  0  0
    6.9898    6.0993    0.0000 H   0  0  0  0  0  0  0  0  0  0  0  0
  1  2  2  0  0  0  0
  1  3  2  0  0  0  0
  1  6  1  0  0  0  0
  1 18  1  0  0  0  0
  4 19  1  0  0  0  0
  4 29  1  0  0  0  0
  5 28  2  0  0  0  0
  6 10  1  0  0  0  0
  6 13  1  0  0  0  0
  7 17  1  0  0  0  0
  7 21  1  0  0  0  0
  7 36  1  0  0  0  0
  8 14  1  0  0  0  0
  8 21  2  0  0  0  0
  9 21  1  0  0  0  0
  9 28  1  0  0  0  0
  9 42  1  0  0  0  0
 10 11  2  0  0  0  0
 10 16  1  0  0  0  0
 11 12  1  0  0  0  0
 11 15  1  0  0  0  0
 12 13  2  0  0  0  0
 12 14  1  0  0  0  0
 13 32  1  0  0  0  0
 14 17  2  0  0  0  0
 15 19  2  0  0  0  0
 15 33  1  0  0  0  0
 16 20  2  0  0  0  0
 16 34  1  0  0  0  0
 17 22  1  0  0  0  0
 18 23  2  0  0  0  0
 18 24  1  0  0  0  0
 19 20  1  0  0  0  0
 20 35  1  0  0  0  0
 22 37  1  0  0  0  0
 22 38  1  0  0  0  0
 22 39  1  0  0  0  0
 23 25  1  0  0  0  0
 23 40  1  0  0  0  0
 24 26  2  0  0  0  0
 24 41  1  0  0  0  0
 25 27  2  0  0  0  0
 25 43  1  0  0  0  0
 26 27  1  0  0  0  0
 26 44  1  0  0  0  0
 27 45  1  0  0  0  0
 28 30  1  0  0  0  0
 29 46  1  0  0  0  0
 29 47  1  0  0  0  0
 29 48  1  0  0  0  0
 30 31  1  0  0  0  0
 30 49  1  0  0  0  0
 30 50  1  0  0  0  0
 31 51  1  0  0  0  0
 31 52  1  0  0  0  0
 31 53  1  0  0  0  0
M  END
> <PUBCHEM_COMPOUND_CID>
155514459

> <PUBCHEM_COMPOUND_CANONICALIZED>
1

> <PUBCHEM_CACTVS_COMPLEXITY>
736

> <PUBCHEM_CACTVS_HBOND_ACCEPTOR>
5

> <PUBCHEM_CACTVS_HBOND_DONOR>
2

> <PUBCHEM_CACTVS_ROTATABLE_BOND>
6

> <PUBCHEM_CACTVS_SUBSKEYS>
AAADceB7uABAAAAAAAAAAAAAAAAAAWLAAAAwYAAAAAAAAFgB/AAAHgQQQAAADAzB3gY/1/bJlAKoAzV3dHDCiD2xMqAJ2Tk+fJiMbuLE+ZuUMChs0RPI6Cew0PMOgEABAAACAAAAgAIAAAQAAAAAAAAAAA==

> <PUBCHEM_IUPAC_OPENEYE_NAME>
N-[4-[1-(benzenesulfonyl)-5-methoxy-indol-3-yl]-5-methyl-1H-imidazol-2-yl]propanamide

> <PUBCHEM_IUPAC_CAS_NAME>
N-[4-[1-(benzenesulfonyl)-5-methoxy-3-indolyl]-5-methyl-1H-imidazol-2-yl]propanamide

> <PUBCHEM_IUPAC_NAME_MARKUP>
<I>N</I>-[4-[1-(benzenesulfonyl)-5-methoxyindol-3-yl]-5-methyl-1<I>H</I>-imidazol-2-yl]propanamide

> <PUBCHEM_IUPAC_NAME>
N-[4-[1-(benzenesulfonyl)-5-methoxyindol-3-yl]-5-methyl-1H-imidazol-2-yl]propanamide

> <PUBCHEM_IUPAC_SYSTEMATIC_NAME>
N-[4-[5-methoxy-1-(phenylsulfonyl)indol-3-yl]-5-methyl-1H-imidazol-2-yl]propanamide

> <PUBCHEM_IUPAC_TRADITIONAL_NAME>
N-[4-(1-besyl-5-methoxy-indol-3-yl)-5-methyl-1H-imidazol-2-yl]propionamide

> <PUBCHEM_IUPAC_INCHI>
InChI=1S/C22H22N4O4S/c1-4-20(27)24-22-23-14(2)21(25-22)18-13-26(19-11-10-15(30-3)12-17(18)19)31(28,29)16-8-6-5-7-9-16/h5-13H,4H2,1-3H3,(H2,23,24,25,27)

> <PUBCHEM_IUPAC_INCHIKEY>
QLXXIEMHVBSFCW-UHFFFAOYSA-N

> <PUBCHEM_XLOGP3_AA>
3.4

> <PUBCHEM_EXACT_MASS>
438.13617637

> <PUBCHEM_MOLECULAR_FORMULA>
C22H22N4O4S

> <PUBCHEM_MOLECULAR_WEIGHT>
438.5

> <PUBCHEM_OPENEYE_CAN_SMILES>
CCC(=O)NC1=NC(=C(N1)C)C2=CN(C3=C2C=C(C=C3)OC)S(=O)(=O)C4=CC=CC=C4

> <PUBCHEM_OPENEYE_ISO_SMILES>
CCC(=O)NC1=NC(=C(N1)C)C2=CN(C3=C2C=C(C=C3)OC)S(=O)(=O)C4=CC=CC=C4

> <PUBCHEM_CACTVS_TPSA>
115

> <PUBCHEM_MONOISOTOPIC_WEIGHT>
438.13617637

> <PUBCHEM_TOTAL_CHARGE>
0

> <PUBCHEM_HEAVY_ATOM_COUNT>
31

> <PUBCHEM_ATOM_DEF_STEREO_COUNT>
0

> <PUBCHEM_ATOM_UDEF_STEREO_COUNT>
0

> <PUBCHEM_BOND_DEF_STEREO_COUNT>
0

> <PUBCHEM_BOND_UDEF_STEREO_COUNT>
0

> <PUBCHEM_ISOTOPIC_ATOM_COUNT>
0

> <PUBCHEM_COMPONENT_COUNT>
1

> <PUBCHEM_CACTVS_TAUTO_COUNT>
-1

> <PUBCHEM_COORDINATE_TYPE>
1
5
255

> <PUBCHEM_BONDANNOTATIONS>
10  11  8
10  16  8
11  12  8
11  15  8
12  13  8
14  17  8
15  19  8
16  20  8
18  23  8
18  24  8
19  20  8
23  25  8
24  26  8
25  27  8
26  27  8
6  10  8
6  13  8
7  17  8
7  21  8
8  14  8
8  21  8

$$$$
