137655735
  -OEChem-09292322002D

 60 63  0     0  0  0  0  0  0999 V2000
    2.8660    0.6416    0.0000 O   0  0  0  0  0  0  0  0  0  0  0  0
    9.7942   -0.3584    0.0000 O   0  0  0  0  0  0  0  0  0  0  0  0
   16.1616    1.3588    0.0000 O   0  0  0  0  0  0  0  0  0  0  0  0
    6.3301    0.6416    0.0000 N   0  0  0  0  0  0  0  0  0  0  0  0
    4.5981   -0.3584    0.0000 N   0  0  0  0  0  0  0  0  0  0  0  0
   10.6603    1.1416    0.0000 N   0  0  0  0  0  0  0  0  0  0  0  0
   13.2583   -0.3584    0.0000 N   0  0  0  0  0  0  0  0  0  0  0  0
   14.2045   -0.6631    0.0000 N   0  0  0  0  0  0  0  0  0  0  0  0
   15.4937    2.1031    0.0000 N   0  0  0  0  0  0  0  0  0  0  0  0
    5.4641    1.1416    0.0000 C   0  0  0  0  0  0  0  0  0  0  0  0
    6.3301   -0.3584    0.0000 C   0  0  0  0  0  0  0  0  0  0  0  0
    4.5981    0.6416    0.0000 C   0  0  0  0  0  0  0  0  0  0  0  0
    5.4641   -0.8584    0.0000 C   0  0  0  0  0  0  0  0  0  0  0  0
    7.1962    1.1416    0.0000 C   0  0  0  0  0  0  0  0  0  0  0  0
    8.0622    0.6416    0.0000 C   0  0  0  0  0  0  0  0  0  0  0  0
    3.7320   -0.8584    0.0000 C   0  0  0  0  0  0  0  0  0  0  0  0
    8.9282    1.1416    0.0000 C   0  0  0  0  0  0  0  0  0  0  0  0
    2.8660   -0.3584    0.0000 C   0  0  0  0  0  0  0  0  0  0  0  0
    3.7320   -1.8584    0.0000 C   0  0  0  0  0  0  0  0  0  0  0  0
    9.7942    0.6416    0.0000 C   0  0  0  0  0  0  0  0  0  0  0  0
    2.0000   -0.8584    0.0000 C   0  0  0  0  0  0  0  0  0  0  0  0
    2.8660   -2.3584    0.0000 C   0  0  0  0  0  0  0  0  0  0  0  0
    2.0000   -1.8584    0.0000 C   0  0  0  0  0  0  0  0  0  0  0  0
   11.5263    0.6416    0.0000 C   0  0  0  0  0  0  0  0  0  0  0  0
   12.3923    1.1416    0.0000 C   0  0  0  0  0  0  0  0  0  0  0  0
   13.2583    0.6416    0.0000 C   0  0  0  0  0  0  0  0  0  0  0  0
    2.0000    1.1416    0.0000 C   0  0  0  0  0  0  0  0  0  0  0  0
   11.5263   -0.3584    0.0000 C   0  0  0  0  0  0  0  0  0  0  0  0
   12.3923   -0.8584    0.0000 C   0  0  0  0  0  0  0  0  0  0  0  0
   14.2045    0.9464    0.0000 C   0  0  0  0  0  0  0  0  0  0  0  0
   14.7882    0.1416    0.0000 C   0  0  0  0  0  0  0  0  0  0  0  0
   14.5152    1.8969    0.0000 C   0  0  0  0  0  0  0  0  0  0  0  0
    5.8626    1.6166    0.0000 H   0  0  0  0  0  0  0  0  0  0  0  0
    5.0656    1.6166    0.0000 H   0  0  0  0  0  0  0  0  0  0  0  0
    6.5422   -0.9410    0.0000 H   0  0  0  0  0  0  0  0  0  0  0  0
    6.9407   -0.2507    0.0000 H   0  0  0  0  0  0  0  0  0  0  0  0
    4.3860    1.2242    0.0000 H   0  0  0  0  0  0  0  0  0  0  0  0
    3.9875    0.5340    0.0000 H   0  0  0  0  0  0  0  0  0  0  0  0
    5.0656   -1.3333    0.0000 H   0  0  0  0  0  0  0  0  0  0  0  0
    5.8626   -1.3333    0.0000 H   0  0  0  0  0  0  0  0  0  0  0  0
    7.5947    1.6166    0.0000 H   0  0  0  0  0  0  0  0  0  0  0  0
    6.7976    1.6166    0.0000 H   0  0  0  0  0  0  0  0  0  0  0  0
    7.6636    0.1667    0.0000 H   0  0  0  0  0  0  0  0  0  0  0  0
    8.4607    0.1667    0.0000 H   0  0  0  0  0  0  0  0  0  0  0  0
    9.3267    1.6166    0.0000 H   0  0  0  0  0  0  0  0  0  0  0  0
    8.5297    1.6166    0.0000 H   0  0  0  0  0  0  0  0  0  0  0  0
    4.2690   -2.1684    0.0000 H   0  0  0  0  0  0  0  0  0  0  0  0
    1.4631   -0.5484    0.0000 H   0  0  0  0  0  0  0  0  0  0  0  0
    2.8660   -2.9784    0.0000 H   0  0  0  0  0  0  0  0  0  0  0  0
    1.4631   -2.1684    0.0000 H   0  0  0  0  0  0  0  0  0  0  0  0
   10.6603    1.7616    0.0000 H   0  0  0  0  0  0  0  0  0  0  0  0
   12.3923    1.7616    0.0000 H   0  0  0  0  0  0  0  0  0  0  0  0
   10.9893   -0.6684    0.0000 H   0  0  0  0  0  0  0  0  0  0  0  0
    2.3100    1.6786    0.0000 H   0  0  0  0  0  0  0  0  0  0  0  0
    1.4631    1.4516    0.0000 H   0  0  0  0  0  0  0  0  0  0  0  0
    1.6900    0.6047    0.0000 H   0  0  0  0  0  0  0  0  0  0  0  0
   12.3923   -1.4784    0.0000 H   0  0  0  0  0  0  0  0  0  0  0  0
   15.4082    0.1416    0.0000 H   0  0  0  0  0  0  0  0  0  0  0  0
   14.1011    2.3584    0.0000 H   0  0  0  0  0  0  0  0  0  0  0  0
   16.7682    1.4867    0.0000 H   0  0  0  0  0  0  0  0  0  0  0  0
  1 18  1  0  0  0  0
  1 27  1  0  0  0  0
  2 20  2  0  0  0  0
  3  9  1  0  0  0  0
  3 60  1  0  0  0  0
  4 10  1  0  0  0  0
  4 11  1  0  0  0  0
  4 14  1  0  0  0  0
  5 12  1  0  0  0  0
  5 13  1  0  0  0  0
  5 16  1  0  0  0  0
  6 20  1  0  0  0  0
  6 24  1  0  0  0  0
  6 51  1  0  0  0  0
  7  8  1  0  0  0  0
  7 26  1  0  0  0  0
  7 29  1  0  0  0  0
  8 31  2  0  0  0  0
  9 32  2  0  0  0  0
 10 12  1  0  0  0  0
 10 33  1  0  0  0  0
 10 34  1  0  0  0  0
 11 13  1  0  0  0  0
 11 35  1  0  0  0  0
 11 36  1  0  0  0  0
 12 37  1  0  0  0  0
 12 38  1  0  0  0  0
 13 39  1  0  0  0  0
 13 40  1  0  0  0  0
 14 15  1  0  0  0  0
 14 41  1  0  0  0  0
 14 42  1  0  0  0  0
 15 17  1  0  0  0  0
 15 43  1  0  0  0  0
 15 44  1  0  0  0  0
 16 18  1  0  0  0  0
 16 19  2  0  0  0  0
 17 20  1  0  0  0  0
 17 45  1  0  0  0  0
 17 46  1  0  0  0  0
 18 21  2  0  0  0  0
 19 22  1  0  0  0  0
 19 47  1  0  0  0  0
 21 23  1  0  0  0  0
 21 48  1  0  0  0  0
 22 23  2  0  0  0  0
 22 49  1  0  0  0  0
 23 50  1  0  0  0  0
 24 25  2  0  0  0  0
 24 28  1  0  0  0  0
 25 26  1  0  0  0  0
 25 52  1  0  0  0  0
 26 30  2  0  0  0  0
 27 54  1  0  0  0  0
 27 55  1  0  0  0  0
 27 56  1  0  0  0  0
 28 29  2  0  0  0  0
 28 53  1  0  0  0  0
 29 57  1  0  0  0  0
 30 31  1  0  0  0  0
 30 32  1  0  0  0  0
 31 58  1  0  0  0  0
 32 59  1  0  0  0  0
M  END
> <PUBCHEM_COMPOUND_CID>
137655735

> <PUBCHEM_COMPOUND_CANONICALIZED>
1

> <PUBCHEM_CACTVS_COMPLEXITY>
627

> <PUBCHEM_CACTVS_HBOND_ACCEPTOR>
7

> <PUBCHEM_CACTVS_HBOND_DONOR>
2

> <PUBCHEM_CACTVS_ROTATABLE_BOND>
8

> <PUBCHEM_CACTVS_SUBSKEYS>
AAADceB7sAAAAAAAAAAAAAAAAAAAAWAAAAA8WIAAAAAAAFgB8AAAHgAcCAAADAzBngY+xrPYFACqAzV3VACSjCAxoiAY2CE/bJgOZvLE8duVtChk3BHY6AeUwEAMAAAAAAAAEAAAAAAAAAAgAAAAAAAAAA==

> <PUBCHEM_IUPAC_OPENEYE_NAME>
N-[3-[(Z)-hydroxyiminomethyl]pyrazolo[1,5-a]pyridin-5-yl]-4-[4-(2-methoxyphenyl)piperazin-1-yl]butanamide

> <PUBCHEM_IUPAC_CAS_NAME>
N-[3-[(Z)-hydroxyiminomethyl]-5-pyrazolo[1,5-a]pyridinyl]-4-[4-(2-methoxyphenyl)-1-piperazinyl]butanamide

> <PUBCHEM_IUPAC_NAME_MARKUP>
<I>N</I>-[3-[(<I>Z</I>)-hydroxyiminomethyl]pyrazolo[1,5-a]pyridin-5-yl]-4-[4-(2-methoxyphenyl)piperazin-1-yl]butanamide

> <PUBCHEM_IUPAC_NAME>
N-[3-[(Z)-hydroxyiminomethyl]pyrazolo[1,5-a]pyridin-5-yl]-4-[4-(2-methoxyphenyl)piperazin-1-yl]butanamide

> <PUBCHEM_IUPAC_SYSTEMATIC_NAME>
N-[3-[(Z)-hydroxyiminomethyl]pyrazolo[1,5-a]pyridin-5-yl]-4-[4-(2-methoxyphenyl)piperazin-1-yl]butanamide

> <PUBCHEM_IUPAC_TRADITIONAL_NAME>
N-[3-[(Z)-hydroximinomethyl]pyrazolo[1,5-a]pyridin-5-yl]-4-[4-(2-methoxyphenyl)piperazino]butyramide

> <PUBCHEM_IUPAC_INCHI>
InChI=1S/C23H28N6O3/c1-32-22-6-3-2-5-20(22)28-13-11-27(12-14-28)9-4-7-23(30)26-19-8-10-29-21(15-19)18(16-24-29)17-25-31/h2-3,5-6,8,10,15-17,31H,4,7,9,11-14H2,1H3,(H,26,30)/b25-17-

> <PUBCHEM_IUPAC_INCHIKEY>
IBCJUIIXFRJMOE-UQQQWYQISA-N

> <PUBCHEM_XLOGP3_AA>
1.9

> <PUBCHEM_EXACT_MASS>
436.22228878

> <PUBCHEM_MOLECULAR_FORMULA>
C23H28N6O3

> <PUBCHEM_MOLECULAR_WEIGHT>
436.5

> <PUBCHEM_OPENEYE_CAN_SMILES>
COC1=CC=CC=C1N2CCN(CC2)CCCC(=O)NC3=CC4=C(C=NN4C=C3)C=NO

> <PUBCHEM_OPENEYE_ISO_SMILES>
COC1=CC=CC=C1N2CCN(CC2)CCCC(=O)NC3=CC4=C(C=NN4C=C3)/C=N\O

> <PUBCHEM_CACTVS_TPSA>
94.7

> <PUBCHEM_MONOISOTOPIC_WEIGHT>
436.22228878

> <PUBCHEM_TOTAL_CHARGE>
0

> <PUBCHEM_HEAVY_ATOM_COUNT>
32

> <PUBCHEM_ATOM_DEF_STEREO_COUNT>
0

> <PUBCHEM_ATOM_UDEF_STEREO_COUNT>
0

> <PUBCHEM_BOND_DEF_STEREO_COUNT>
1

> <PUBCHEM_BOND_UDEF_STEREO_COUNT>
0

> <PUBCHEM_ISOTOPIC_ATOM_COUNT>
0

> <PUBCHEM_COMPONENT_COUNT>
1

> <PUBCHEM_CACTVS_TAUTO_COUNT>
-1

> <PUBCHEM_COORDINATE_TYPE>
1
5
255

> <PUBCHEM_BONDANNOTATIONS>
16  18  8
16  19  8
18  21  8
19  22  8
21  23  8
22  23  8
24  25  8
24  28  8
25  26  8
26  30  8
28  29  8
30  31  8
7  26  8
7  29  8
7  8  8
8  31  8

$$$$
