134135492
  -OEChem-09292322382D

 60 63  0     0  0  0  0  0  0999 V2000
    4.6783   -5.2938    0.0000 S   0  0  0  0  0  0  0  0  0  0  0  0
    9.7884    3.5880    0.0000 O   0  0  0  0  0  0  0  0  0  0  0  0
    5.6103   -0.8327    0.0000 N   0  0  0  0  0  0  0  0  0  0  0  0
    8.1421    4.1261    0.0000 N   0  0  0  0  0  0  0  0  0  0  0  0
    4.9889   -2.7338    0.0000 N   0  0  0  0  0  0  0  0  0  0  0  0
    5.2619   -4.4890    0.0000 N   0  0  0  0  0  0  0  0  0  0  0  0
    7.2101    1.2745    0.0000 C   0  0  0  0  0  0  0  0  0  0  0  0
    8.1886    1.4807    0.0000 C   0  0  0  0  0  0  0  0  0  0  0  0
    6.5422    2.0188    0.0000 C   0  0  0  0  0  0  0  0  0  0  0  0
    7.8314    3.1756    0.0000 C   0  0  0  0  0  0  0  0  0  0  0  0
    8.4993    2.4313    0.0000 C   0  0  0  0  0  0  0  0  0  0  0  0
    6.8529    2.9693    0.0000 C   0  0  0  0  0  0  0  0  0  0  0  0
    6.8994    0.3240    0.0000 C   0  0  0  0  0  0  0  0  0  0  0  0
    5.9209    0.1178    0.0000 C   0  0  0  0  0  0  0  0  0  0  0  0
    4.6318   -1.0390    0.0000 C   0  0  0  0  0  0  0  0  0  0  0  0
    6.2781   -1.5770    0.0000 C   0  0  0  0  0  0  0  0  0  0  0  0
    4.3211   -1.9895    0.0000 C   0  0  0  0  0  0  0  0  0  0  0  0
    5.9674   -2.5276    0.0000 C   0  0  0  0  0  0  0  0  0  0  0  0
    9.1206    4.3323    0.0000 C   0  0  0  0  0  0  0  0  0  0  0  0
    4.6783   -3.6843    0.0000 C   0  0  0  0  0  0  0  0  0  0  0  0
    9.4312    5.2828    0.0000 C   0  0  0  0  0  0  0  0  0  0  0  0
    3.7320   -3.9890    0.0000 C   0  0  0  0  0  0  0  0  0  0  0  0
    3.7320   -4.9890    0.0000 C   0  0  0  0  0  0  0  0  0  0  0  0
   10.4097    5.4890    0.0000 C   0  0  0  0  0  0  0  0  0  0  0  0
    2.8660   -3.4890    0.0000 C   0  0  0  0  0  0  0  0  0  0  0  0
    2.8660   -5.4890    0.0000 C   0  0  0  0  0  0  0  0  0  0  0  0
    2.0000   -3.9890    0.0000 C   0  0  0  0  0  0  0  0  0  0  0  0
    2.0000   -4.9890    0.0000 C   0  0  0  0  0  0  0  0  0  0  0  0
    7.6242    0.8131    0.0000 H   0  0  0  0  0  0  0  0  0  0  0  0
    8.2092    0.8611    0.0000 H   0  0  0  0  0  0  0  0  0  0  0  0
    8.8024    1.3934    0.0000 H   0  0  0  0  0  0  0  0  0  0  0  0
    5.9953    2.3108    0.0000 H   0  0  0  0  0  0  0  0  0  0  0  0
    6.1597    1.5309    0.0000 H   0  0  0  0  0  0  0  0  0  0  0  0
    8.4381    3.3034    0.0000 H   0  0  0  0  0  0  0  0  0  0  0  0
    9.0462    2.1392    0.0000 H   0  0  0  0  0  0  0  0  0  0  0  0
    8.8818    2.9192    0.0000 H   0  0  0  0  0  0  0  0  0  0  0  0
    6.8323    3.5890    0.0000 H   0  0  0  0  0  0  0  0  0  0  0  0
    6.2391    3.0567    0.0000 H   0  0  0  0  0  0  0  0  0  0  0  0
    6.9200   -0.2957    0.0000 H   0  0  0  0  0  0  0  0  0  0  0  0
    7.5132    0.2366    0.0000 H   0  0  0  0  0  0  0  0  0  0  0  0
    5.9004    0.7374    0.0000 H   0  0  0  0  0  0  0  0  0  0  0  0
    5.3071    0.2051    0.0000 H   0  0  0  0  0  0  0  0  0  0  0  0
    4.6112   -0.4193    0.0000 H   0  0  0  0  0  0  0  0  0  0  0  0
    4.0179   -0.9516    0.0000 H   0  0  0  0  0  0  0  0  0  0  0  0
    6.8250   -1.8691    0.0000 H   0  0  0  0  0  0  0  0  0  0  0  0
    6.6607   -1.0891    0.0000 H   0  0  0  0  0  0  0  0  0  0  0  0
    7.7280    4.5875    0.0000 H   0  0  0  0  0  0  0  0  0  0  0  0
    3.7742   -1.6975    0.0000 H   0  0  0  0  0  0  0  0  0  0  0  0
    3.9385   -2.4774    0.0000 H   0  0  0  0  0  0  0  0  0  0  0  0
    5.9880   -3.1472    0.0000 H   0  0  0  0  0  0  0  0  0  0  0  0
    6.5812   -2.6149    0.0000 H   0  0  0  0  0  0  0  0  0  0  0  0
    9.4107    5.9025    0.0000 H   0  0  0  0  0  0  0  0  0  0  0  0
    8.8174    5.3702    0.0000 H   0  0  0  0  0  0  0  0  0  0  0  0
   10.5376    4.8824    0.0000 H   0  0  0  0  0  0  0  0  0  0  0  0
   11.0164    5.6169    0.0000 H   0  0  0  0  0  0  0  0  0  0  0  0
   10.2819    6.0957    0.0000 H   0  0  0  0  0  0  0  0  0  0  0  0
    2.8660   -2.8690    0.0000 H   0  0  0  0  0  0  0  0  0  0  0  0
    2.8660   -6.1090    0.0000 H   0  0  0  0  0  0  0  0  0  0  0  0
    1.4631   -3.6790    0.0000 H   0  0  0  0  0  0  0  0  0  0  0  0
    1.4631   -5.2990    0.0000 H   0  0  0  0  0  0  0  0  0  0  0  0
  1  6  1  0  0  0  0
  1 23  1  0  0  0  0
  2 19  2  0  0  0  0
  3 14  1  0  0  0  0
  3 15  1  0  0  0  0
  3 16  1  0  0  0  0
  4 10  1  0  0  0  0
  4 19  1  0  0  0  0
  4 47  1  0  0  0  0
  5 17  1  0  0  0  0
  5 18  1  0  0  0  0
  5 20  1  0  0  0  0
  6 20  2  0  0  0  0
  7  8  1  0  0  0  0
  7  9  1  0  0  0  0
  7 13  1  0  0  0  0
  7 29  1  0  0  0  0
  8 11  1  0  0  0  0
  8 30  1  0  0  0  0
  8 31  1  0  0  0  0
  9 12  1  0  0  0  0
  9 32  1  0  0  0  0
  9 33  1  0  0  0  0
 10 11  1  0  0  0  0
 10 12  1  0  0  0  0
 10 34  1  0  0  0  0
 11 35  1  0  0  0  0
 11 36  1  0  0  0  0
 12 37  1  0  0  0  0
 12 38  1  0  0  0  0
 13 14  1  0  0  0  0
 13 39  1  0  0  0  0
 13 40  1  0  0  0  0
 14 41  1  0  0  0  0
 14 42  1  0  0  0  0
 15 17  1  0  0  0  0
 15 43  1  0  0  0  0
 15 44  1  0  0  0  0
 16 18  1  0  0  0  0
 16 45  1  0  0  0  0
 16 46  1  0  0  0  0
 17 48  1  0  0  0  0
 17 49  1  0  0  0  0
 18 50  1  0  0  0  0
 18 51  1  0  0  0  0
 19 21  1  0  0  0  0
 20 22  1  0  0  0  0
 21 24  1  0  0  0  0
 21 52  1  0  0  0  0
 21 53  1  0  0  0  0
 22 23  1  0  0  0  0
 22 25  2  0  0  0  0
 23 26  2  0  0  0  0
 24 54  1  0  0  0  0
 24 55  1  0  0  0  0
 24 56  1  0  0  0  0
 25 27  1  0  0  0  0
 25 57  1  0  0  0  0
 26 28  1  0  0  0  0
 26 58  1  0  0  0  0
 27 28  2  0  0  0  0
 27 59  1  0  0  0  0
 28 60  1  0  0  0  0
M  END
> <PUBCHEM_COMPOUND_CID>
134135492

> <PUBCHEM_COMPOUND_CANONICALIZED>
1

> <PUBCHEM_CACTVS_COMPLEXITY>
503

> <PUBCHEM_CACTVS_HBOND_ACCEPTOR>
5

> <PUBCHEM_CACTVS_HBOND_DONOR>
1

> <PUBCHEM_CACTVS_ROTATABLE_BOND>
6

> <PUBCHEM_CACTVS_SUBSKEYS>
AAADcfB7oABAAAAAAAAAAAAAAAAAAWAAAAA8YIAAAAAAAFgB8AAAHgQQQAAADSjB2gQzsdPAAACsAiNycACDABAhAABJmLkoRJiIYKLAmZGUIAxglgLIyAcQgIAOAAAAAAAEAAAQAAAAAAgAAAAAAAAAAA==

> <PUBCHEM_IUPAC_OPENEYE_NAME>
N-[4-[2-[4-(1,2-benzothiazol-3-yl)piperazin-1-yl]ethyl]cyclohexyl]propanamide

> <PUBCHEM_IUPAC_CAS_NAME>
N-[4-[2-[4-(1,2-benzothiazol-3-yl)-1-piperazinyl]ethyl]cyclohexyl]propanamide

> <PUBCHEM_IUPAC_NAME_MARKUP>
<I>N</I>-[4-[2-[4-(1,2-benzothiazol-3-yl)piperazin-1-yl]ethyl]cyclohexyl]propanamide

> <PUBCHEM_IUPAC_NAME>
N-[4-[2-[4-(1,2-benzothiazol-3-yl)piperazin-1-yl]ethyl]cyclohexyl]propanamide

> <PUBCHEM_IUPAC_SYSTEMATIC_NAME>
N-[4-[2-[4-(1,2-benzothiazol-3-yl)piperazin-1-yl]ethyl]cyclohexyl]propanamide

> <PUBCHEM_IUPAC_TRADITIONAL_NAME>
N-[4-[2-[4-(1,2-benzothiazol-3-yl)piperazino]ethyl]cyclohexyl]propionamide

> <PUBCHEM_IUPAC_INCHI>
InChI=1S/C22H32N4OS/c1-2-21(27)23-18-9-7-17(8-10-18)11-12-25-13-15-26(16-14-25)22-19-5-3-4-6-20(19)28-24-22/h3-6,17-18H,2,7-16H2,1H3,(H,23,27)

> <PUBCHEM_IUPAC_INCHIKEY>
OQXLAYDVTKONPU-UHFFFAOYSA-N

> <PUBCHEM_XLOGP3_AA>
4.3

> <PUBCHEM_EXACT_MASS>
400.22968283

> <PUBCHEM_MOLECULAR_FORMULA>
C22H32N4OS

> <PUBCHEM_MOLECULAR_WEIGHT>
400.6

> <PUBCHEM_OPENEYE_CAN_SMILES>
CCC(=O)NC1CCC(CC1)CCN2CCN(CC2)C3=NSC4=CC=CC=C43

> <PUBCHEM_OPENEYE_ISO_SMILES>
CCC(=O)NC1CCC(CC1)CCN2CCN(CC2)C3=NSC4=CC=CC=C43

> <PUBCHEM_CACTVS_TPSA>
76.7

> <PUBCHEM_MONOISOTOPIC_WEIGHT>
400.22968283

> <PUBCHEM_TOTAL_CHARGE>
0

> <PUBCHEM_HEAVY_ATOM_COUNT>
28

> <PUBCHEM_ATOM_DEF_STEREO_COUNT>
0

> <PUBCHEM_ATOM_UDEF_STEREO_COUNT>
0

> <PUBCHEM_BOND_DEF_STEREO_COUNT>
0

> <PUBCHEM_BOND_UDEF_STEREO_COUNT>
0

> <PUBCHEM_ISOTOPIC_ATOM_COUNT>
0

> <PUBCHEM_COMPONENT_COUNT>
1

> <PUBCHEM_CACTVS_TAUTO_COUNT>
-1

> <PUBCHEM_COORDINATE_TYPE>
1
5
255

> <PUBCHEM_BONDANNOTATIONS>
1  23  8
1  6  8
20  22  8
22  23  8
22  25  8
23  26  8
25  27  8
26  28  8
27  28  8
6  20  8

$$$$
