164611932
  -OEChem-09292322432D

 55 58  0     0  0  0  0  0  0999 V2000
   15.0506   -2.2154    0.0000 O   0  0  0  0  0  0  0  0  0  0  0  0
    6.3243   -0.1779    0.0000 N   0  0  0  0  0  0  0  0  0  0  0  0
    4.5961    0.8288    0.0000 N   0  0  0  0  0  0  0  0  0  0  0  0
   13.3185   -2.2154    0.0000 N   0  0  0  0  0  0  0  0  0  0  0  0
    2.8641    0.8354    0.0000 N   0  0  0  0  0  0  0  0  0  0  0  0
    6.3282    0.8221    0.0000 C   0  0  0  0  0  0  0  0  0  0  0  0
    5.4564   -0.6746    0.0000 C   0  0  0  0  0  0  0  0  0  0  0  0
    7.1884   -0.6812    0.0000 C   0  0  0  0  0  0  0  0  0  0  0  0
    5.4641    1.3254    0.0000 C   0  0  0  0  0  0  0  0  0  0  0  0
    4.5923   -0.1712    0.0000 C   0  0  0  0  0  0  0  0  0  0  0  0
    8.0564   -0.1846    0.0000 C   0  0  0  0  0  0  0  0  0  0  0  0
    8.9204   -0.6879    0.0000 C   0  0  0  0  0  0  0  0  0  0  0  0
    9.7884   -0.1913    0.0000 C   0  0  0  0  0  0  0  0  0  0  0  0
    3.7320    1.3321    0.0000 C   0  0  0  0  0  0  0  0  0  0  0  0
   10.6525   -0.6946    0.0000 C   0  0  0  0  0  0  0  0  0  0  0  0
   12.4525   -0.7154    0.0000 C   0  0  0  0  0  0  0  0  0  0  0  0
   11.5585   -0.1808    0.0000 C   0  0  0  0  0  0  0  0  0  0  0  0
   13.3185   -0.2154    0.0000 C   0  0  0  0  0  0  0  0  0  0  0  0
   12.4525   -1.7154    0.0000 C   0  0  0  0  0  0  0  0  0  0  0  0
   10.6525   -1.7362    0.0000 C   0  0  0  0  0  0  0  0  0  0  0  0
   14.1845   -0.7154    0.0000 C   0  0  0  0  0  0  0  0  0  0  0  0
    3.7359    2.3321    0.0000 C   0  0  0  0  0  0  0  0  0  0  0  0
   11.5585   -2.2501    0.0000 C   0  0  0  0  0  0  0  0  0  0  0  0
   14.1845   -1.7154    0.0000 C   0  0  0  0  0  0  0  0  0  0  0  0
    2.8718    2.8354    0.0000 C   0  0  0  0  0  0  0  0  0  0  0  0
    2.0000    1.3388    0.0000 C   0  0  0  0  0  0  0  0  0  0  0  0
    2.0038    2.3388    0.0000 C   0  0  0  0  0  0  0  0  0  0  0  0
    6.9383    0.7121    0.0000 H   0  0  0  0  0  0  0  0  0  0  0  0
    6.5425    1.4039    0.0000 H   0  0  0  0  0  0  0  0  0  0  0  0
    5.0560   -1.1480    0.0000 H   0  0  0  0  0  0  0  0  0  0  0  0
    5.8531   -1.1510    0.0000 H   0  0  0  0  0  0  0  0  0  0  0  0
    6.7880   -1.1547    0.0000 H   0  0  0  0  0  0  0  0  0  0  0  0
    7.5851   -1.1577    0.0000 H   0  0  0  0  0  0  0  0  0  0  0  0
    5.8644    1.7988    0.0000 H   0  0  0  0  0  0  0  0  0  0  0  0
    5.0674    1.8019    0.0000 H   0  0  0  0  0  0  0  0  0  0  0  0
    3.9821   -0.0612    0.0000 H   0  0  0  0  0  0  0  0  0  0  0  0
    4.3780   -0.7530    0.0000 H   0  0  0  0  0  0  0  0  0  0  0  0
    8.4567    0.2888    0.0000 H   0  0  0  0  0  0  0  0  0  0  0  0
    7.6597    0.2919    0.0000 H   0  0  0  0  0  0  0  0  0  0  0  0
    8.5201   -1.1613    0.0000 H   0  0  0  0  0  0  0  0  0  0  0  0
    9.3171   -1.1644    0.0000 H   0  0  0  0  0  0  0  0  0  0  0  0
   10.1887    0.2821    0.0000 H   0  0  0  0  0  0  0  0  0  0  0  0
    9.3917    0.2852    0.0000 H   0  0  0  0  0  0  0  0  0  0  0  0
   11.5657    0.4392    0.0000 H   0  0  0  0  0  0  0  0  0  0  0  0
   13.7170    0.2595    0.0000 H   0  0  0  0  0  0  0  0  0  0  0  0
   12.9200    0.2595    0.0000 H   0  0  0  0  0  0  0  0  0  0  0  0
   10.1167   -2.0483    0.0000 H   0  0  0  0  0  0  0  0  0  0  0  0
   14.7951   -0.8231    0.0000 H   0  0  0  0  0  0  0  0  0  0  0  0
   14.3966   -0.1328    0.0000 H   0  0  0  0  0  0  0  0  0  0  0  0
    4.2740    2.6400    0.0000 H   0  0  0  0  0  0  0  0  0  0  0  0
   11.5657   -2.8700    0.0000 H   0  0  0  0  0  0  0  0  0  0  0  0
   13.3185   -2.8354    0.0000 H   0  0  0  0  0  0  0  0  0  0  0  0
    2.8742    3.4554    0.0000 H   0  0  0  0  0  0  0  0  0  0  0  0
    1.4619    1.0308    0.0000 H   0  0  0  0  0  0  0  0  0  0  0  0
    1.4681    2.6508    0.0000 H   0  0  0  0  0  0  0  0  0  0  0  0
  1 24  2  0  0  0  0
  2  6  1  0  0  0  0
  2  7  1  0  0  0  0
  2  8  1  0  0  0  0
  3  9  1  0  0  0  0
  3 10  1  0  0  0  0
  3 14  1  0  0  0  0
  4 19  1  0  0  0  0
  4 24  1  0  0  0  0
  4 52  1  0  0  0  0
  5 14  1  0  0  0  0
  5 26  2  0  0  0  0
  6  9  1  0  0  0  0
  6 28  1  0  0  0  0
  6 29  1  0  0  0  0
  7 10  1  0  0  0  0
  7 30  1  0  0  0  0
  7 31  1  0  0  0  0
  8 11  1  0  0  0  0
  8 32  1  0  0  0  0
  8 33  1  0  0  0  0
  9 34  1  0  0  0  0
  9 35  1  0  0  0  0
 10 36  1  0  0  0  0
 10 37  1  0  0  0  0
 11 12  1  0  0  0  0
 11 38  1  0  0  0  0
 11 39  1  0  0  0  0
 12 13  1  0  0  0  0
 12 40  1  0  0  0  0
 12 41  1  0  0  0  0
 13 15  1  0  0  0  0
 13 42  1  0  0  0  0
 13 43  1  0  0  0  0
 14 22  2  0  0  0  0
 15 17  2  0  0  0  0
 15 20  1  0  0  0  0
 16 17  1  0  0  0  0
 16 18  1  0  0  0  0
 16 19  2  0  0  0  0
 17 44  1  0  0  0  0
 18 21  1  0  0  0  0
 18 45  1  0  0  0  0
 18 46  1  0  0  0  0
 19 23  1  0  0  0  0
 20 23  2  0  0  0  0
 20 47  1  0  0  0  0
 21 24  1  0  0  0  0
 21 48  1  0  0  0  0
 21 49  1  0  0  0  0
 22 25  1  0  0  0  0
 22 50  1  0  0  0  0
 23 51  1  0  0  0  0
 25 27  2  0  0  0  0
 25 53  1  0  0  0  0
 26 27  1  0  0  0  0
 26 54  1  0  0  0  0
 27 55  1  0  0  0  0
M  END
> <PUBCHEM_COMPOUND_CID>
164611932

> <PUBCHEM_COMPOUND_CANONICALIZED>
1

> <PUBCHEM_CACTVS_COMPLEXITY>
477

> <PUBCHEM_CACTVS_HBOND_ACCEPTOR>
4

> <PUBCHEM_CACTVS_HBOND_DONOR>
1

> <PUBCHEM_CACTVS_ROTATABLE_BOND>
6

> <PUBCHEM_CACTVS_SUBSKEYS>
AAADceB7oAAAAAAAAAAAAAAAAAAAAAAAAAA8WLEAAAAAAACxwAAAHgAQAAAADAjBmgQ98JPIEACoAjd3dACCgCkxAiAJ2CE4ZJiIYPLAmZGUIAholALIyCcYicCeCAACAAACAAAQAAQAAAQAAAAAAAAAAA==

> <PUBCHEM_IUPAC_OPENEYE_NAME>
6-[4-[4-(2-pyridyl)piperazin-1-yl]butyl]-3,4-dihydro-1H-quinolin-2-one

> <PUBCHEM_IUPAC_CAS_NAME>
6-[4-[4-(2-pyridinyl)-1-piperazinyl]butyl]-3,4-dihydro-1H-quinolin-2-one

> <PUBCHEM_IUPAC_NAME_MARKUP>
6-[4-(4-pyridin-2-ylpiperazin-1-yl)butyl]-3,4-dihydro-1<I>H</I>-quinolin-2-one

> <PUBCHEM_IUPAC_NAME>
6-[4-(4-pyridin-2-ylpiperazin-1-yl)butyl]-3,4-dihydro-1H-quinolin-2-one

> <PUBCHEM_IUPAC_SYSTEMATIC_NAME>
6-[4-(4-pyridin-2-ylpiperazin-1-yl)butyl]-3,4-dihydro-1H-quinolin-2-one

> <PUBCHEM_IUPAC_TRADITIONAL_NAME>
6-[4-[4-(2-pyridyl)piperazino]butyl]-3,4-dihydrocarbostyril

> <PUBCHEM_IUPAC_INCHI>
InChI=1S/C22H28N4O/c27-22-10-8-19-17-18(7-9-20(19)24-22)5-2-4-12-25-13-15-26(16-14-25)21-6-1-3-11-23-21/h1,3,6-7,9,11,17H,2,4-5,8,10,12-16H2,(H,24,27)

> <PUBCHEM_IUPAC_INCHIKEY>
NWOBFMIIGQBMFP-UHFFFAOYSA-N

> <PUBCHEM_XLOGP3_AA>
2.9

> <PUBCHEM_EXACT_MASS>
364.22631153

> <PUBCHEM_MOLECULAR_FORMULA>
C22H28N4O

> <PUBCHEM_MOLECULAR_WEIGHT>
364.5

> <PUBCHEM_OPENEYE_CAN_SMILES>
C1CC(=O)NC2=C1C=C(C=C2)CCCCN3CCN(CC3)C4=CC=CC=N4

> <PUBCHEM_OPENEYE_ISO_SMILES>
C1CC(=O)NC2=C1C=C(C=C2)CCCCN3CCN(CC3)C4=CC=CC=N4

> <PUBCHEM_CACTVS_TPSA>
48.5

> <PUBCHEM_MONOISOTOPIC_WEIGHT>
364.22631153

> <PUBCHEM_TOTAL_CHARGE>
0

> <PUBCHEM_HEAVY_ATOM_COUNT>
27

> <PUBCHEM_ATOM_DEF_STEREO_COUNT>
0

> <PUBCHEM_ATOM_UDEF_STEREO_COUNT>
0

> <PUBCHEM_BOND_DEF_STEREO_COUNT>
0

> <PUBCHEM_BOND_UDEF_STEREO_COUNT>
0

> <PUBCHEM_ISOTOPIC_ATOM_COUNT>
0

> <PUBCHEM_COMPONENT_COUNT>
1

> <PUBCHEM_CACTVS_TAUTO_COUNT>
-1

> <PUBCHEM_COORDINATE_TYPE>
1
5
255

> <PUBCHEM_BONDANNOTATIONS>
14  22  8
15  17  8
15  20  8
16  17  8
16  19  8
19  23  8
20  23  8
22  25  8
25  27  8
26  27  8
5  14  8
5  26  8

$$$$
