44353323
  -OEChem-09292322192D

 61 65  0     1  0  0  0  0  0999 V2000
   10.1068    2.0151    0.0000 O   0  0  0  0  0  0  0  0  0  0  0  0
    9.3829    5.4502    0.0000 O   0  0  0  0  0  0  0  0  0  0  0  0
    5.6103    0.2061    0.0000 N   0  0  3  0  0  0  0  0  0  0  0  0
    9.4778    3.6764    0.0000 N   0  0  0  0  0  0  0  0  0  0  0  0
    4.6783   -4.2549    0.0000 N   0  0  0  0  0  0  0  0  0  0  0  0
    4.6318   -0.0001    0.0000 C   0  0  0  0  0  0  0  0  0  0  0  0
    5.9209    1.1566    0.0000 C   0  0  0  0  0  0  0  0  0  0  0  0
    4.3211   -0.9506    0.0000 C   0  0  0  0  0  0  0  0  0  0  0  0
    6.2781   -0.5382    0.0000 C   0  0  0  0  0  0  0  0  0  0  0  0
    6.8994    1.3629    0.0000 C   0  0  0  0  0  0  0  0  0  0  0  0
    4.9889   -1.6949    0.0000 C   0  0  0  0  0  0  0  0  0  0  0  0
    7.2101    2.3134    0.0000 C   0  0  0  0  0  0  0  0  0  0  0  0
    5.9674   -1.4887    0.0000 C   0  0  0  0  0  0  0  0  0  0  0  0
    4.6783   -2.6454    0.0000 C   0  0  0  0  0  0  0  0  0  0  0  0
    8.1886    2.5196    0.0000 C   0  0  0  0  0  0  0  0  0  0  0  0
    8.4993    3.4701    0.0000 C   0  0  0  0  0  0  0  0  0  0  0  0
    3.7320   -2.9502    0.0000 C   0  0  0  0  0  0  0  0  0  0  0  0
    3.7320   -3.9502    0.0000 C   0  0  0  0  0  0  0  0  0  0  0  0
    5.2619   -3.4502    0.0000 C   0  0  0  0  0  0  0  0  0  0  0  0
    2.8660   -4.4502    0.0000 C   0  0  0  0  0  0  0  0  0  0  0  0
    2.8660   -2.4502    0.0000 C   0  0  0  0  0  0  0  0  0  0  0  0
   10.2148    3.0093    0.0000 C   0  0  0  0  0  0  0  0  0  0  0  0
    9.8829    4.5841    0.0000 C   0  0  0  0  0  0  0  0  0  0  0  0
   11.0778    3.5026    0.0000 C   0  0  0  0  0  0  0  0  0  0  0  0
   10.8716    4.4811    0.0000 C   0  0  0  0  0  0  0  0  0  0  0  0
    2.0000   -3.9502    0.0000 C   0  0  0  0  0  0  0  0  0  0  0  0
    2.0000   -2.9502    0.0000 C   0  0  0  0  0  0  0  0  0  0  0  0
    2.8660   -5.4502    0.0000 C   0  0  0  0  0  0  0  0  0  0  0  0
   12.0283    3.1919    0.0000 C   0  0  0  0  0  0  0  0  0  0  0  0
   11.6159    5.1489    0.0000 C   0  0  0  0  0  0  0  0  0  0  0  0
   12.7726    3.8598    0.0000 C   0  0  0  0  0  0  0  0  0  0  0  0
   12.5664    4.8383    0.0000 C   0  0  0  0  0  0  0  0  0  0  0  0
    4.6112    0.6196    0.0000 H   0  0  0  0  0  0  0  0  0  0  0  0
    4.0179    0.0873    0.0000 H   0  0  0  0  0  0  0  0  0  0  0  0
    5.9004    1.7763    0.0000 H   0  0  0  0  0  0  0  0  0  0  0  0
    5.3071    1.2440    0.0000 H   0  0  0  0  0  0  0  0  0  0  0  0
    3.7742   -0.6586    0.0000 H   0  0  0  0  0  0  0  0  0  0  0  0
    3.9385   -1.4385    0.0000 H   0  0  0  0  0  0  0  0  0  0  0  0
    6.8250   -0.8302    0.0000 H   0  0  0  0  0  0  0  0  0  0  0  0
    6.6607   -0.0503    0.0000 H   0  0  0  0  0  0  0  0  0  0  0  0
    6.9200    0.7432    0.0000 H   0  0  0  0  0  0  0  0  0  0  0  0
    7.5132    1.2755    0.0000 H   0  0  0  0  0  0  0  0  0  0  0  0
    7.1895    2.9330    0.0000 H   0  0  0  0  0  0  0  0  0  0  0  0
    6.5963    2.4007    0.0000 H   0  0  0  0  0  0  0  0  0  0  0  0
    6.3815   -1.9502    0.0000 H   0  0  0  0  0  0  0  0  0  0  0  0
    8.2092    1.9000    0.0000 H   0  0  0  0  0  0  0  0  0  0  0  0
    8.8024    2.4323    0.0000 H   0  0  0  0  0  0  0  0  0  0  0  0
    8.4787    4.0898    0.0000 H   0  0  0  0  0  0  0  0  0  0  0  0
    7.8854    3.5575    0.0000 H   0  0  0  0  0  0  0  0  0  0  0  0
    5.8819   -3.4502    0.0000 H   0  0  0  0  0  0  0  0  0  0  0  0
    4.8709   -4.8442    0.0000 H   0  0  0  0  0  0  0  0  0  0  0  0
    2.8660   -1.8302    0.0000 H   0  0  0  0  0  0  0  0  0  0  0  0
    1.4631   -4.2602    0.0000 H   0  0  0  0  0  0  0  0  0  0  0  0
    1.4631   -2.6402    0.0000 H   0  0  0  0  0  0  0  0  0  0  0  0
    2.2460   -5.4502    0.0000 H   0  0  0  0  0  0  0  0  0  0  0  0
    2.8660   -6.0702    0.0000 H   0  0  0  0  0  0  0  0  0  0  0  0
    3.4860   -5.4502    0.0000 H   0  0  0  0  0  0  0  0  0  0  0  0
   12.1562    2.5852    0.0000 H   0  0  0  0  0  0  0  0  0  0  0  0
   11.4880    5.7556    0.0000 H   0  0  0  0  0  0  0  0  0  0  0  0
   13.3620    3.6672    0.0000 H   0  0  0  0  0  0  0  0  0  0  0  0
   13.0279    5.2523    0.0000 H   0  0  0  0  0  0  0  0  0  0  0  0
  1 22  2  0  0  0  0
  2 23  2  0  0  0  0
  3  6  1  0  0  0  0
  3  7  1  0  0  0  0
  3  9  1  0  0  0  0
  4 16  1  0  0  0  0
  4 22  1  0  0  0  0
  4 23  1  0  0  0  0
  5 18  1  0  0  0  0
  5 19  1  0  0  0  0
  5 51  1  0  0  0  0
  6  8  1  0  0  0  0
  6 33  1  0  0  0  0
  6 34  1  0  0  0  0
  7 10  1  0  0  0  0
  7 35  1  0  0  0  0
  7 36  1  0  0  0  0
  8 11  1  0  0  0  0
  8 37  1  0  0  0  0
  8 38  1  0  0  0  0
  9 13  1  0  0  0  0
  9 39  1  0  0  0  0
  9 40  1  0  0  0  0
 10 12  1  0  0  0  0
 10 41  1  0  0  0  0
 10 42  1  0  0  0  0
 11 13  2  0  0  0  0
 11 14  1  0  0  0  0
 12 15  1  0  0  0  0
 12 43  1  0  0  0  0
 12 44  1  0  0  0  0
 13 45  1  0  0  0  0
 14 17  1  0  0  0  0
 14 19  2  0  0  0  0
 15 16  1  0  0  0  0
 15 46  1  0  0  0  0
 15 47  1  0  0  0  0
 16 48  1  0  0  0  0
 16 49  1  0  0  0  0
 17 18  1  0  0  0  0
 17 21  2  0  0  0  0
 18 20  2  0  0  0  0
 19 50  1  0  0  0  0
 20 26  1  0  0  0  0
 20 28  1  0  0  0  0
 21 27  1  0  0  0  0
 21 52  1  0  0  0  0
 22 24  1  0  0  0  0
 23 25  1  0  0  0  0
 24 25  1  0  0  0  0
 24 29  2  0  0  0  0
 25 30  2  0  0  0  0
 26 27  2  0  0  0  0
 26 53  1  0  0  0  0
 27 54  1  0  0  0  0
 28 55  1  0  0  0  0
 28 56  1  0  0  0  0
 28 57  1  0  0  0  0
 29 31  1  0  0  0  0
 29 58  1  0  0  0  0
 30 32  1  0  0  0  0
 30 59  1  0  0  0  0
 31 32  2  0  0  0  0
 31 60  1  0  0  0  0
 32 61  1  0  0  0  0
M  END
> <PUBCHEM_COMPOUND_CID>
44353323

> <PUBCHEM_COMPOUND_CANONICALIZED>
1

> <PUBCHEM_CACTVS_COMPLEXITY>
710

> <PUBCHEM_CACTVS_HBOND_ACCEPTOR>
3

> <PUBCHEM_CACTVS_HBOND_DONOR>
1

> <PUBCHEM_CACTVS_ROTATABLE_BOND>
7

> <PUBCHEM_CACTVS_SUBSKEYS>
AAADceB7MAAAAAAAAAAAAAAAAAAAAWLAAAAwYIAAAAAAAFgB9AAAHgAQAAAADAjBngQ+wPPJkACoAzV3VACCgCA1ACAI2aEoRNgIIPLAlZGEIQhghiDIyYcdiMCOgAACAAASAAAAAAQAACQAAAAAAAAAAA==

> <PUBCHEM_IUPAC_OPENEYE_NAME>
2-[5-[4-(7-methyl-1H-indol-3-yl)-3,6-dihydro-2H-pyridin-1-yl]pentyl]isoindoline-1,3-dione

> <PUBCHEM_IUPAC_CAS_NAME>
2-[5-[4-(7-methyl-1H-indol-3-yl)-3,6-dihydro-2H-pyridin-1-yl]pentyl]isoindole-1,3-dione

> <PUBCHEM_IUPAC_NAME_MARKUP>
2-[5-[4-(7-methyl-1<I>H</I>-indol-3-yl)-3,6-dihydro-2<I>H</I>-pyridin-1-yl]pentyl]isoindole-1,3-dione

> <PUBCHEM_IUPAC_NAME>
2-[5-[4-(7-methyl-1H-indol-3-yl)-3,6-dihydro-2H-pyridin-1-yl]pentyl]isoindole-1,3-dione

> <PUBCHEM_IUPAC_SYSTEMATIC_NAME>
2-[5-[4-(7-methyl-1H-indol-3-yl)-3,6-dihydro-2H-pyridin-1-yl]pentyl]isoindole-1,3-dione

> <PUBCHEM_IUPAC_TRADITIONAL_NAME>
2-[5-[4-(7-methyl-1H-indol-3-yl)-3,6-dihydro-2H-pyridin-1-yl]pentyl]isoindoline-1,3-quinone

> <PUBCHEM_IUPAC_INCHI>
InChI=1S/C27H29N3O2/c1-19-8-7-11-21-24(18-28-25(19)21)20-12-16-29(17-13-20)14-5-2-6-15-30-26(31)22-9-3-4-10-23(22)27(30)32/h3-4,7-12,18,28H,2,5-6,13-17H2,1H3

> <PUBCHEM_IUPAC_INCHIKEY>
RUNHZSVFEKDKRE-UHFFFAOYSA-N

> <PUBCHEM_XLOGP3_AA>
4.4

> <PUBCHEM_EXACT_MASS>
427.22597718

> <PUBCHEM_MOLECULAR_FORMULA>
C27H29N3O2

> <PUBCHEM_MOLECULAR_WEIGHT>
427.5

> <PUBCHEM_OPENEYE_CAN_SMILES>
CC1=C2C(=CC=C1)C(=CN2)C3=CCN(CC3)CCCCCN4C(=O)C5=CC=CC=C5C4=O

> <PUBCHEM_OPENEYE_ISO_SMILES>
CC1=C2C(=CC=C1)C(=CN2)C3=CCN(CC3)CCCCCN4C(=O)C5=CC=CC=C5C4=O

> <PUBCHEM_CACTVS_TPSA>
56.4

> <PUBCHEM_MONOISOTOPIC_WEIGHT>
427.22597718

> <PUBCHEM_TOTAL_CHARGE>
0

> <PUBCHEM_HEAVY_ATOM_COUNT>
32

> <PUBCHEM_ATOM_DEF_STEREO_COUNT>
0

> <PUBCHEM_ATOM_UDEF_STEREO_COUNT>
0

> <PUBCHEM_BOND_DEF_STEREO_COUNT>
0

> <PUBCHEM_BOND_UDEF_STEREO_COUNT>
0

> <PUBCHEM_ISOTOPIC_ATOM_COUNT>
0

> <PUBCHEM_COMPONENT_COUNT>
1

> <PUBCHEM_CACTVS_TAUTO_COUNT>
-1

> <PUBCHEM_COORDINATE_TYPE>
1
5
255

> <PUBCHEM_BONDANNOTATIONS>
14  17  8
14  19  8
17  18  8
17  21  8
18  20  8
20  26  8
21  27  8
24  25  8
24  29  8
25  30  8
26  27  8
29  31  8
30  32  8
31  32  8
5  18  8
5  19  8

$$$$
