145968927
  -OEChem-09292322052D

 54 57  0     0  0  0  0  0  0999 V2000
    4.6783   -5.3194    0.0000 S   0  0  0  0  0  0  0  0  0  0  0  0
    8.4993    2.4056    0.0000 O   0  0  0  0  0  0  0  0  0  0  0  0
   10.4097    5.4634    0.0000 O   0  0  0  0  0  0  0  0  0  0  0  0
    5.6103   -0.8584    0.0000 N   0  0  0  0  0  0  0  0  0  0  0  0
    4.9889   -2.7594    0.0000 N   0  0  0  0  0  0  0  0  0  0  0  0
    5.2619   -4.5147    0.0000 N   0  0  0  0  0  0  0  0  0  0  0  0
   11.4348    3.0243    0.0000 N   0  0  0  0  0  0  0  0  0  0  0  0
   12.0561    4.9253    0.0000 N   0  0  0  0  0  0  0  0  0  0  0  0
    4.6318   -1.0646    0.0000 C   0  0  0  0  0  0  0  0  0  0  0  0
    6.2781   -1.6027    0.0000 C   0  0  0  0  0  0  0  0  0  0  0  0
    4.3211   -2.0151    0.0000 C   0  0  0  0  0  0  0  0  0  0  0  0
    5.9674   -2.5532    0.0000 C   0  0  0  0  0  0  0  0  0  0  0  0
    5.9209    0.0922    0.0000 C   0  0  0  0  0  0  0  0  0  0  0  0
    6.8994    0.2984    0.0000 C   0  0  0  0  0  0  0  0  0  0  0  0
    4.6783   -3.7099    0.0000 C   0  0  0  0  0  0  0  0  0  0  0  0
    7.2101    1.2489    0.0000 C   0  0  0  0  0  0  0  0  0  0  0  0
    3.7320   -4.0147    0.0000 C   0  0  0  0  0  0  0  0  0  0  0  0
    8.1886    1.4551    0.0000 C   0  0  0  0  0  0  0  0  0  0  0  0
    3.7320   -5.0147    0.0000 C   0  0  0  0  0  0  0  0  0  0  0  0
    2.8660   -3.5147    0.0000 C   0  0  0  0  0  0  0  0  0  0  0  0
    2.8660   -5.5147    0.0000 C   0  0  0  0  0  0  0  0  0  0  0  0
    2.0000   -4.0147    0.0000 C   0  0  0  0  0  0  0  0  0  0  0  0
    2.0000   -5.0147    0.0000 C   0  0  0  0  0  0  0  0  0  0  0  0
    9.4778    2.6118    0.0000 C   0  0  0  0  0  0  0  0  0  0  0  0
    9.7884    3.5624    0.0000 C   0  0  0  0  0  0  0  0  0  0  0  0
   10.1456    1.8676    0.0000 C   0  0  0  0  0  0  0  0  0  0  0  0
   10.7669    3.7686    0.0000 C   0  0  0  0  0  0  0  0  0  0  0  0
   11.1241    2.0738    0.0000 C   0  0  0  0  0  0  0  0  0  0  0  0
   11.0776    4.7191    0.0000 C   0  0  0  0  0  0  0  0  0  0  0  0
    4.6112   -0.4449    0.0000 H   0  0  0  0  0  0  0  0  0  0  0  0
    4.0179   -0.9772    0.0000 H   0  0  0  0  0  0  0  0  0  0  0  0
    6.8250   -1.8947    0.0000 H   0  0  0  0  0  0  0  0  0  0  0  0
    6.6607   -1.1148    0.0000 H   0  0  0  0  0  0  0  0  0  0  0  0
    3.7742   -1.7231    0.0000 H   0  0  0  0  0  0  0  0  0  0  0  0
    3.9385   -2.5030    0.0000 H   0  0  0  0  0  0  0  0  0  0  0  0
    5.9880   -3.1728    0.0000 H   0  0  0  0  0  0  0  0  0  0  0  0
    6.5812   -2.6405    0.0000 H   0  0  0  0  0  0  0  0  0  0  0  0
    5.9004    0.7118    0.0000 H   0  0  0  0  0  0  0  0  0  0  0  0
    5.3071    0.1795    0.0000 H   0  0  0  0  0  0  0  0  0  0  0  0
    6.9200   -0.3213    0.0000 H   0  0  0  0  0  0  0  0  0  0  0  0
    7.5132    0.2110    0.0000 H   0  0  0  0  0  0  0  0  0  0  0  0
    7.1895    1.8686    0.0000 H   0  0  0  0  0  0  0  0  0  0  0  0
    6.5963    1.3362    0.0000 H   0  0  0  0  0  0  0  0  0  0  0  0
    8.2092    0.8355    0.0000 H   0  0  0  0  0  0  0  0  0  0  0  0
    8.8024    1.3678    0.0000 H   0  0  0  0  0  0  0  0  0  0  0  0
    2.8660   -2.8947    0.0000 H   0  0  0  0  0  0  0  0  0  0  0  0
    2.8660   -6.1347    0.0000 H   0  0  0  0  0  0  0  0  0  0  0  0
    1.4631   -3.7047    0.0000 H   0  0  0  0  0  0  0  0  0  0  0  0
    1.4631   -5.3247    0.0000 H   0  0  0  0  0  0  0  0  0  0  0  0
    9.3744    4.0238    0.0000 H   0  0  0  0  0  0  0  0  0  0  0  0
    9.9530    1.2782    0.0000 H   0  0  0  0  0  0  0  0  0  0  0  0
   11.5382    1.6123    0.0000 H   0  0  0  0  0  0  0  0  0  0  0  0
   12.2487    5.5147    0.0000 H   0  0  0  0  0  0  0  0  0  0  0  0
   12.4702    4.4639    0.0000 H   0  0  0  0  0  0  0  0  0  0  0  0
  1  6  1  0  0  0  0
  1 19  1  0  0  0  0
  2 18  1  0  0  0  0
  2 24  1  0  0  0  0
  3 29  2  0  0  0  0
  4  9  1  0  0  0  0
  4 10  1  0  0  0  0
  4 13  1  0  0  0  0
  5 11  1  0  0  0  0
  5 12  1  0  0  0  0
  5 15  1  0  0  0  0
  6 15  2  0  0  0  0
  7 27  2  0  0  0  0
  7 28  1  0  0  0  0
  8 29  1  0  0  0  0
  8 53  1  0  0  0  0
  8 54  1  0  0  0  0
  9 11  1  0  0  0  0
  9 30  1  0  0  0  0
  9 31  1  0  0  0  0
 10 12  1  0  0  0  0
 10 32  1  0  0  0  0
 10 33  1  0  0  0  0
 11 34  1  0  0  0  0
 11 35  1  0  0  0  0
 12 36  1  0  0  0  0
 12 37  1  0  0  0  0
 13 14  1  0  0  0  0
 13 38  1  0  0  0  0
 13 39  1  0  0  0  0
 14 16  1  0  0  0  0
 14 40  1  0  0  0  0
 14 41  1  0  0  0  0
 15 17  1  0  0  0  0
 16 18  1  0  0  0  0
 16 42  1  0  0  0  0
 16 43  1  0  0  0  0
 17 19  1  0  0  0  0
 17 20  2  0  0  0  0
 18 44  1  0  0  0  0
 18 45  1  0  0  0  0
 19 21  2  0  0  0  0
 20 22  1  0  0  0  0
 20 46  1  0  0  0  0
 21 23  1  0  0  0  0
 21 47  1  0  0  0  0
 22 23  2  0  0  0  0
 22 48  1  0  0  0  0
 23 49  1  0  0  0  0
 24 25  2  0  0  0  0
 24 26  1  0  0  0  0
 25 27  1  0  0  0  0
 25 50  1  0  0  0  0
 26 28  2  0  0  0  0
 26 51  1  0  0  0  0
 27 29  1  0  0  0  0
 28 52  1  0  0  0  0
M  END
> <PUBCHEM_COMPOUND_CID>
145968927

> <PUBCHEM_COMPOUND_CANONICALIZED>
1

> <PUBCHEM_CACTVS_COMPLEXITY>
531

> <PUBCHEM_CACTVS_HBOND_ACCEPTOR>
7

> <PUBCHEM_CACTVS_HBOND_DONOR>
1

> <PUBCHEM_CACTVS_ROTATABLE_BOND>
8

> <PUBCHEM_CACTVS_SUBSKEYS>
AAADceB7sABAAAAAAAAAAAAAAAAAAWAAAAA8WIAAAAAAAFgB/AAAHgQQQAAADAzh3gY9t9NIFACsAzd3dACDiDA3IiBJ2Dm+bNiMZvLEvbuWOSzmgBrI6Yc6iAAOAAAAAAAEAAAAAAAAAAgAAAAAAAAAAA==

> <PUBCHEM_IUPAC_OPENEYE_NAME>
4-[4-[4-(1,2-benzothiazol-3-yl)piperazin-1-yl]butoxy]pyridine-2-carboxamide

> <PUBCHEM_IUPAC_CAS_NAME>
4-[4-[4-(1,2-benzothiazol-3-yl)-1-piperazinyl]butoxy]-2-pyridinecarboxamide

> <PUBCHEM_IUPAC_NAME_MARKUP>
4-[4-[4-(1,2-benzothiazol-3-yl)piperazin-1-yl]butoxy]pyridine-2-carboxamide

> <PUBCHEM_IUPAC_NAME>
4-[4-[4-(1,2-benzothiazol-3-yl)piperazin-1-yl]butoxy]pyridine-2-carboxamide

> <PUBCHEM_IUPAC_SYSTEMATIC_NAME>
4-[4-[4-(1,2-benzothiazol-3-yl)piperazin-1-yl]butoxy]pyridine-2-carboxamide

> <PUBCHEM_IUPAC_TRADITIONAL_NAME>
4-[4-[4-(1,2-benzothiazol-3-yl)piperazino]butoxy]picolinamide

> <PUBCHEM_IUPAC_INCHI>
InChI=1S/C21H25N5O2S/c22-20(27)18-15-16(7-8-23-18)28-14-4-3-9-25-10-12-26(13-11-25)21-17-5-1-2-6-19(17)29-24-21/h1-2,5-8,15H,3-4,9-14H2,(H2,22,27)

> <PUBCHEM_IUPAC_INCHIKEY>
CKZUCRHCJYOODQ-UHFFFAOYSA-N

> <PUBCHEM_XLOGP3_AA>
3.1

> <PUBCHEM_EXACT_MASS>
411.17289623

> <PUBCHEM_MOLECULAR_FORMULA>
C21H25N5O2S

> <PUBCHEM_MOLECULAR_WEIGHT>
411.5

> <PUBCHEM_OPENEYE_CAN_SMILES>
C1CN(CCN1CCCCOC2=CC(=NC=C2)C(=O)N)C3=NSC4=CC=CC=C43

> <PUBCHEM_OPENEYE_ISO_SMILES>
C1CN(CCN1CCCCOC2=CC(=NC=C2)C(=O)N)C3=NSC4=CC=CC=C43

> <PUBCHEM_CACTVS_TPSA>
113

> <PUBCHEM_MONOISOTOPIC_WEIGHT>
411.17289623

> <PUBCHEM_TOTAL_CHARGE>
0

> <PUBCHEM_HEAVY_ATOM_COUNT>
29

> <PUBCHEM_ATOM_DEF_STEREO_COUNT>
0

> <PUBCHEM_ATOM_UDEF_STEREO_COUNT>
0

> <PUBCHEM_BOND_DEF_STEREO_COUNT>
0

> <PUBCHEM_BOND_UDEF_STEREO_COUNT>
0

> <PUBCHEM_ISOTOPIC_ATOM_COUNT>
0

> <PUBCHEM_COMPONENT_COUNT>
1

> <PUBCHEM_CACTVS_TAUTO_COUNT>
-1

> <PUBCHEM_COORDINATE_TYPE>
1
5
255

> <PUBCHEM_BONDANNOTATIONS>
1  19  8
1  6  8
15  17  8
17  19  8
17  20  8
19  21  8
20  22  8
21  23  8
22  23  8
24  25  8
24  26  8
25  27  8
26  28  8
6  15  8
7  27  8
7  28  8

$$$$
