56599144
  -OEChem-09292321592D

 54 57  0     0  0  0  0  0  0999 V2000
    3.7320    1.0530    0.0000 Cl  0  0  0  0  0  0  0  0  0  0  0  0
    2.0000    0.0530    0.0000 Cl  0  0  0  0  0  0  0  0  0  0  0  0
   11.5263    1.5530    0.0000 O   0  0  0  0  0  0  0  0  0  0  0  0
   16.6542    0.5530    0.0000 O   0  0  0  0  0  0  0  0  0  0  0  0
    7.1962    1.0530    0.0000 N   0  0  0  0  0  0  0  0  0  0  0  0
   15.0706    1.3577    0.0000 N   0  0  0  0  0  0  0  0  0  0  0  0
   15.0706   -0.2518    0.0000 N   0  0  0  0  0  0  0  0  0  0  0  0
    5.4641    0.0530    0.0000 C   0  0  0  0  0  0  0  0  0  0  0  0
    5.4641    1.0530    0.0000 C   0  0  0  0  0  0  0  0  0  0  0  0
    6.3301   -0.4470    0.0000 C   0  0  0  0  0  0  0  0  0  0  0  0
    6.3301    1.5530    0.0000 C   0  0  0  0  0  0  0  0  0  0  0  0
    7.1962    0.0530    0.0000 C   0  0  0  0  0  0  0  0  0  0  0  0
    8.0622    1.5530    0.0000 C   0  0  0  0  0  0  0  0  0  0  0  0
    4.5981   -0.4470    0.0000 C   0  0  0  0  0  0  0  0  0  0  0  0
    8.9282    1.0530    0.0000 C   0  0  0  0  0  0  0  0  0  0  0  0
    9.7942    1.5530    0.0000 C   0  0  0  0  0  0  0  0  0  0  0  0
    3.7320    0.0530    0.0000 C   0  0  0  0  0  0  0  0  0  0  0  0
    4.5981   -1.4470    0.0000 C   0  0  0  0  0  0  0  0  0  0  0  0
   10.6603    1.0530    0.0000 C   0  0  0  0  0  0  0  0  0  0  0  0
    2.8660   -0.4470    0.0000 C   0  0  0  0  0  0  0  0  0  0  0  0
    3.7320   -1.9470    0.0000 C   0  0  0  0  0  0  0  0  0  0  0  0
    2.8660   -1.4470    0.0000 C   0  0  0  0  0  0  0  0  0  0  0  0
   12.3923    1.0530    0.0000 C   0  0  0  0  0  0  0  0  0  0  0  0
   13.2583    1.5530    0.0000 C   0  0  0  0  0  0  0  0  0  0  0  0
   14.1244    1.0530    0.0000 C   0  0  0  0  0  0  0  0  0  0  0  0
   14.1244    0.0530    0.0000 C   0  0  0  0  0  0  0  0  0  0  0  0
   12.3923    0.0530    0.0000 C   0  0  0  0  0  0  0  0  0  0  0  0
   13.2583   -0.4470    0.0000 C   0  0  0  0  0  0  0  0  0  0  0  0
   15.6542    0.5530    0.0000 C   0  0  0  0  0  0  0  0  0  0  0  0
    5.4641   -0.5670    0.0000 H   0  0  0  0  0  0  0  0  0  0  0  0
    5.2520    1.6356    0.0000 H   0  0  0  0  0  0  0  0  0  0  0  0
    4.8535    0.9453    0.0000 H   0  0  0  0  0  0  0  0  0  0  0  0
    5.9316   -0.9220    0.0000 H   0  0  0  0  0  0  0  0  0  0  0  0
    6.7287   -0.9220    0.0000 H   0  0  0  0  0  0  0  0  0  0  0  0
    6.7287    2.0279    0.0000 H   0  0  0  0  0  0  0  0  0  0  0  0
    5.9316    2.0279    0.0000 H   0  0  0  0  0  0  0  0  0  0  0  0
    7.4082   -0.5296    0.0000 H   0  0  0  0  0  0  0  0  0  0  0  0
    7.8067    0.1606    0.0000 H   0  0  0  0  0  0  0  0  0  0  0  0
    8.4607    2.0279    0.0000 H   0  0  0  0  0  0  0  0  0  0  0  0
    7.6636    2.0279    0.0000 H   0  0  0  0  0  0  0  0  0  0  0  0
    8.5297    0.5780    0.0000 H   0  0  0  0  0  0  0  0  0  0  0  0
    9.3267    0.5780    0.0000 H   0  0  0  0  0  0  0  0  0  0  0  0
   10.1928    2.0279    0.0000 H   0  0  0  0  0  0  0  0  0  0  0  0
    9.3957    2.0279    0.0000 H   0  0  0  0  0  0  0  0  0  0  0  0
    5.1350   -1.7570    0.0000 H   0  0  0  0  0  0  0  0  0  0  0  0
   10.2617    0.5780    0.0000 H   0  0  0  0  0  0  0  0  0  0  0  0
   11.0588    0.5780    0.0000 H   0  0  0  0  0  0  0  0  0  0  0  0
    3.7320   -2.5670    0.0000 H   0  0  0  0  0  0  0  0  0  0  0  0
    2.3291   -1.7570    0.0000 H   0  0  0  0  0  0  0  0  0  0  0  0
   13.2583    2.1730    0.0000 H   0  0  0  0  0  0  0  0  0  0  0  0
   11.8554   -0.2570    0.0000 H   0  0  0  0  0  0  0  0  0  0  0  0
   13.2583   -1.0670    0.0000 H   0  0  0  0  0  0  0  0  0  0  0  0
   15.2632    1.9470    0.0000 H   0  0  0  0  0  0  0  0  0  0  0  0
   15.2632   -0.8411    0.0000 H   0  0  0  0  0  0  0  0  0  0  0  0
  1 17  1  0  0  0  0
  2 20  1  0  0  0  0
  3 19  1  0  0  0  0
  3 23  1  0  0  0  0
  4 29  2  0  0  0  0
  5 11  1  0  0  0  0
  5 12  1  0  0  0  0
  5 13  1  0  0  0  0
  6 25  1  0  0  0  0
  6 29  1  0  0  0  0
  6 53  1  0  0  0  0
  7 26  1  0  0  0  0
  7 29  1  0  0  0  0
  7 54  1  0  0  0  0
  8  9  1  0  0  0  0
  8 10  1  0  0  0  0
  8 14  1  0  0  0  0
  8 30  1  0  0  0  0
  9 11  1  0  0  0  0
  9 31  1  0  0  0  0
  9 32  1  0  0  0  0
 10 12  1  0  0  0  0
 10 33  1  0  0  0  0
 10 34  1  0  0  0  0
 11 35  1  0  0  0  0
 11 36  1  0  0  0  0
 12 37  1  0  0  0  0
 12 38  1  0  0  0  0
 13 15  1  0  0  0  0
 13 39  1  0  0  0  0
 13 40  1  0  0  0  0
 14 17  2  0  0  0  0
 14 18  1  0  0  0  0
 15 16  1  0  0  0  0
 15 41  1  0  0  0  0
 15 42  1  0  0  0  0
 16 19  1  0  0  0  0
 16 43  1  0  0  0  0
 16 44  1  0  0  0  0
 17 20  1  0  0  0  0
 18 21  2  0  0  0  0
 18 45  1  0  0  0  0
 19 46  1  0  0  0  0
 19 47  1  0  0  0  0
 20 22  2  0  0  0  0
 21 22  1  0  0  0  0
 21 48  1  0  0  0  0
 22 49  1  0  0  0  0
 23 24  2  0  0  0  0
 23 27  1  0  0  0  0
 24 25  1  0  0  0  0
 24 50  1  0  0  0  0
 25 26  2  0  0  0  0
 26 28  1  0  0  0  0
 27 28  2  0  0  0  0
 27 51  1  0  0  0  0
 28 52  1  0  0  0  0
M  END
> <PUBCHEM_COMPOUND_CID>
56599144

> <PUBCHEM_COMPOUND_CANONICALIZED>
1

> <PUBCHEM_CACTVS_COMPLEXITY>
544

> <PUBCHEM_CACTVS_HBOND_ACCEPTOR>
3

> <PUBCHEM_CACTVS_HBOND_DONOR>
2

> <PUBCHEM_CACTVS_ROTATABLE_BOND>
7

> <PUBCHEM_CACTVS_SUBSKEYS>
AAADceB7MAAGAAAAAAAAAAAAAAAAAWAAAAA8YIAAAAAAAFgBQAAAHgIQAAAADQ7hmCYxxoPABACIAiRCUACCCAAhJwAIikAOfoiMZiLFs5uWOCju1BvI6Cew0MMOgEAAIgABACQAgABEAAIASAAAAAAAAA==

> <PUBCHEM_IUPAC_OPENEYE_NAME>
5-[4-[4-(2,3-dichlorophenyl)-1-piperidyl]butoxy]-1,3-dihydrobenzimidazol-2-one

> <PUBCHEM_IUPAC_CAS_NAME>
5-[4-[4-(2,3-dichlorophenyl)-1-piperidinyl]butoxy]-1,3-dihydrobenzimidazol-2-one

> <PUBCHEM_IUPAC_NAME_MARKUP>
5-[4-[4-(2,3-dichlorophenyl)piperidin-1-yl]butoxy]-1,3-dihydrobenzimidazol-2-one

> <PUBCHEM_IUPAC_NAME>
5-[4-[4-(2,3-dichlorophenyl)piperidin-1-yl]butoxy]-1,3-dihydrobenzimidazol-2-one

> <PUBCHEM_IUPAC_SYSTEMATIC_NAME>
5-[4-[4-[2,3-bis(chloranyl)phenyl]piperidin-1-yl]butoxy]-1,3-dihydrobenzimidazol-2-one

> <PUBCHEM_IUPAC_TRADITIONAL_NAME>
5-[4-[4-(2,3-dichlorophenyl)piperidino]butoxy]-1,3-dihydrobenzimidazol-2-one

> <PUBCHEM_IUPAC_INCHI>
InChI=1S/C22H25Cl2N3O2/c23-18-5-3-4-17(21(18)24)15-8-11-27(12-9-15)10-1-2-13-29-16-6-7-19-20(14-16)26-22(28)25-19/h3-7,14-15H,1-2,8-13H2,(H2,25,26,28)

> <PUBCHEM_IUPAC_INCHIKEY>
JEZQFKLGYQTDDK-UHFFFAOYSA-N

> <PUBCHEM_XLOGP3_AA>
4.8

> <PUBCHEM_EXACT_MASS>
433.1323824

> <PUBCHEM_MOLECULAR_FORMULA>
C22H25Cl2N3O2

> <PUBCHEM_MOLECULAR_WEIGHT>
434.4

> <PUBCHEM_OPENEYE_CAN_SMILES>
C1CN(CCC1C2=C(C(=CC=C2)Cl)Cl)CCCCOC3=CC4=C(C=C3)NC(=O)N4

> <PUBCHEM_OPENEYE_ISO_SMILES>
C1CN(CCC1C2=C(C(=CC=C2)Cl)Cl)CCCCOC3=CC4=C(C=C3)NC(=O)N4

> <PUBCHEM_CACTVS_TPSA>
53.6

> <PUBCHEM_MONOISOTOPIC_WEIGHT>
433.1323824

> <PUBCHEM_TOTAL_CHARGE>
0

> <PUBCHEM_HEAVY_ATOM_COUNT>
29

> <PUBCHEM_ATOM_DEF_STEREO_COUNT>
0

> <PUBCHEM_ATOM_UDEF_STEREO_COUNT>
0

> <PUBCHEM_BOND_DEF_STEREO_COUNT>
0

> <PUBCHEM_BOND_UDEF_STEREO_COUNT>
0

> <PUBCHEM_ISOTOPIC_ATOM_COUNT>
0

> <PUBCHEM_COMPONENT_COUNT>
1

> <PUBCHEM_CACTVS_TAUTO_COUNT>
-1

> <PUBCHEM_COORDINATE_TYPE>
1
5
255

> <PUBCHEM_BONDANNOTATIONS>
14  17  8
14  18  8
17  20  8
18  21  8
20  22  8
21  22  8
23  24  8
23  27  8
24  25  8
25  26  8
26  28  8
27  28  8
6  25  8
6  29  8
7  26  8
7  29  8

$$$$
