138670389
  -OEChem-09292322452D

 73 78  0     1  0  0  0  0  0999 V2000
   14.1413   -0.2613    0.0000 S   0  0  0  0  0  0  0  0  0  0  0  0
   17.4508   -4.0063    0.0000 F   0  0  0  0  0  0  0  0  0  0  0  0
   15.7289   -1.0581    0.0000 O   0  0  0  0  0  0  0  0  0  0  0  0
    5.4956    1.4890    0.0000 O   0  0  0  0  0  0  0  0  0  0  0  0
   11.0085   -1.0816    0.0000 N   0  0  3  0  0  0  0  0  0  0  0  0
    5.5043   -0.2430    0.0000 N   0  0  0  0  0  0  0  0  0  0  0  0
   14.1494   -1.8707    0.0000 N   0  0  0  0  0  0  0  0  0  0  0  0
    2.9880    3.0063    0.0000 N   0  0  0  0  0  0  0  0  0  0  0  0
    2.1862    2.4187    0.0000 N   0  0  0  0  0  0  0  0  0  0  0  0
    8.5042   -0.2281    0.0000 C   0  0  0  0  0  0  0  0  0  0  0  0
    8.0086   -1.0966    0.0000 C   0  0  0  0  0  0  0  0  0  0  0  0
    7.9999    0.6354    0.0000 C   0  0  0  0  0  0  0  0  0  0  0  0
    6.5043   -0.2380    0.0000 C   0  0  0  0  0  0  0  0  0  0  0  0
    7.0086   -1.1016    0.0000 C   0  0  0  0  0  0  0  0  0  0  0  0
    6.9999    0.6305    0.0000 C   0  0  0  0  0  0  0  0  0  0  0  0
    9.5042   -0.2231    0.0000 C   0  0  0  0  0  0  0  0  0  0  0  0
   10.0085   -1.0866    0.0000 C   0  0  0  0  0  0  0  0  0  0  0  0
   11.4379   -0.1785    0.0000 C   0  0  0  0  0  0  0  0  0  0  0  0
   11.4469   -1.9804    0.0000 C   0  0  0  0  0  0  0  0  0  0  0  0
   16.2333   -1.9216    0.0000 C   0  0  0  0  0  0  0  0  0  0  0  0
   15.9793   -2.8888    0.0000 C   0  0  0  0  0  0  0  0  0  0  0  0
   17.2005   -2.1756    0.0000 C   0  0  0  0  0  0  0  0  0  0  0  0
   16.9465   -3.1428    0.0000 C   0  0  0  0  0  0  0  0  0  0  0  0
   12.4117    0.0489    0.0000 C   0  0  0  0  0  0  0  0  0  0  0  0
   12.4229   -2.1981    0.0000 C   0  0  0  0  0  0  0  0  0  0  0  0
   13.1966   -0.5707    0.0000 C   0  0  0  0  0  0  0  0  0  0  0  0
   13.2016   -1.5707    0.0000 C   0  0  0  0  0  0  0  0  0  0  0  0
    5.0000    0.6205    0.0000 C   0  0  0  0  0  0  0  0  0  0  0  0
   14.7290   -1.0631    0.0000 C   0  0  0  0  0  0  0  0  0  0  0  0
    4.0000    0.6155    0.0000 C   0  0  0  0  0  0  0  0  0  0  0  0
    3.4957    1.4790    0.0000 C   0  0  0  0  0  0  0  0  0  0  0  0
    3.5043   -0.2530    0.0000 C   0  0  0  0  0  0  0  0  0  0  0  0
    2.4957    1.4740    0.0000 C   0  0  0  0  0  0  0  0  0  0  0  0
    3.7957    2.4268    0.0000 C   0  0  0  0  0  0  0  0  0  0  0  0
    2.5043   -0.2580    0.0000 C   0  0  0  0  0  0  0  0  0  0  0  0
    2.0000    0.6055    0.0000 C   0  0  0  0  0  0  0  0  0  0  0  0
    2.9830    4.0063    0.0000 C   0  0  0  0  0  0  0  0  0  0  0  0
    8.8169   -0.7635    0.0000 H   0  0  0  0  0  0  0  0  0  0  0  0
    7.9040   -1.7077    0.0000 H   0  0  0  0  0  0  0  0  0  0  0  0
    8.5922   -1.3057    0.0000 H   0  0  0  0  0  0  0  0  0  0  0  0
    8.5815    0.8504    0.0000 H   0  0  0  0  0  0  0  0  0  0  0  0
    7.8892    1.2455    0.0000 H   0  0  0  0  0  0  0  0  0  0  0  0
    6.1916    0.2973    0.0000 H   0  0  0  0  0  0  0  0  0  0  0  0
    6.4270   -1.3165    0.0000 H   0  0  0  0  0  0  0  0  0  0  0  0
    7.1193   -1.7116    0.0000 H   0  0  0  0  0  0  0  0  0  0  0  0
    7.1046    1.2416    0.0000 H   0  0  0  0  0  0  0  0  0  0  0  0
    6.4163    0.8396    0.0000 H   0  0  0  0  0  0  0  0  0  0  0  0
   10.0858   -0.0081    0.0000 H   0  0  0  0  0  0  0  0  0  0  0  0
    9.3935    0.3870    0.0000 H   0  0  0  0  0  0  0  0  0  0  0  0
    9.4270   -1.3016    0.0000 H   0  0  0  0  0  0  0  0  0  0  0  0
   10.1192   -1.6966    0.0000 H   0  0  0  0  0  0  0  0  0  0  0  0
    5.1970   -0.7815    0.0000 H   0  0  0  0  0  0  0  0  0  0  0  0
   11.4348    0.4415    0.0000 H   0  0  0  0  0  0  0  0  0  0  0  0
   10.8328   -0.0436    0.0000 H   0  0  0  0  0  0  0  0  0  0  0  0
   10.8431   -2.1214    0.0000 H   0  0  0  0  0  0  0  0  0  0  0  0
   11.4500   -2.6004    0.0000 H   0  0  0  0  0  0  0  0  0  0  0  0
   16.6082   -1.4278    0.0000 H   0  0  0  0  0  0  0  0  0  0  0  0
   15.3796   -2.7313    0.0000 H   0  0  0  0  0  0  0  0  0  0  0  0
   15.8218   -3.4885    0.0000 H   0  0  0  0  0  0  0  0  0  0  0  0
   17.8001   -2.3331    0.0000 H   0  0  0  0  0  0  0  0  0  0  0  0
   17.3579   -1.5759    0.0000 H   0  0  0  0  0  0  0  0  0  0  0  0
   17.5607   -3.0588    0.0000 H   0  0  0  0  0  0  0  0  0  0  0  0
   12.8945    0.4379    0.0000 H   0  0  0  0  0  0  0  0  0  0  0  0
   12.1399    0.6061    0.0000 H   0  0  0  0  0  0  0  0  0  0  0  0
   12.1567   -2.7580    0.0000 H   0  0  0  0  0  0  0  0  0  0  0  0
   12.9096   -2.5822    0.0000 H   0  0  0  0  0  0  0  0  0  0  0  0
    3.8170   -0.7884    0.0000 H   0  0  0  0  0  0  0  0  0  0  0  0
    4.3840    2.6223    0.0000 H   0  0  0  0  0  0  0  0  0  0  0  0
    2.1970   -0.7965    0.0000 H   0  0  0  0  0  0  0  0  0  0  0  0
    1.3800    0.6024    0.0000 H   0  0  0  0  0  0  0  0  0  0  0  0
    3.6030    4.0094    0.0000 H   0  0  0  0  0  0  0  0  0  0  0  0
    2.9800    4.6263    0.0000 H   0  0  0  0  0  0  0  0  0  0  0  0
    2.3631    4.0032    0.0000 H   0  0  0  0  0  0  0  0  0  0  0  0
  1 26  1  0  0  0  0
  1 29  1  0  0  0  0
  2 23  1  0  0  0  0
  3 20  1  0  0  0  0
  3 29  1  0  0  0  0
  4 28  2  0  0  0  0
  5 17  1  0  0  0  0
  5 18  1  0  0  0  0
  5 19  1  0  0  0  0
  6 13  1  0  0  0  0
  6 28  1  0  0  0  0
  6 52  1  0  0  0  0
  7 27  1  0  0  0  0
  7 29  2  0  0  0  0
  8  9  1  0  0  0  0
  8 34  1  0  0  0  0
  8 37  1  0  0  0  0
  9 33  2  0  0  0  0
 10 11  1  0  0  0  0
 10 12  1  0  0  0  0
 10 16  1  0  0  0  0
 10 38  1  0  0  0  0
 11 14  1  0  0  0  0
 11 39  1  0  0  0  0
 11 40  1  0  0  0  0
 12 15  1  0  0  0  0
 12 41  1  0  0  0  0
 12 42  1  0  0  0  0
 13 14  1  0  0  0  0
 13 15  1  0  0  0  0
 13 43  1  0  0  0  0
 14 44  1  0  0  0  0
 14 45  1  0  0  0  0
 15 46  1  0  0  0  0
 15 47  1  0  0  0  0
 16 17  1  0  0  0  0
 16 48  1  0  0  0  0
 16 49  1  0  0  0  0
 17 50  1  0  0  0  0
 17 51  1  0  0  0  0
 18 24  1  0  0  0  0
 18 53  1  0  0  0  0
 18 54  1  0  0  0  0
 19 25  1  0  0  0  0
 19 55  1  0  0  0  0
 19 56  1  0  0  0  0
 20 21  1  0  0  0  0
 20 22  1  0  0  0  0
 20 57  1  0  0  0  0
 21 23  1  0  0  0  0
 21 58  1  0  0  0  0
 21 59  1  0  0  0  0
 22 23  1  0  0  0  0
 22 60  1  0  0  0  0
 22 61  1  0  0  0  0
 23 62  1  0  0  0  0
 24 26  1  0  0  0  0
 24 63  1  0  0  0  0
 24 64  1  0  0  0  0
 25 27  1  0  0  0  0
 25 65  1  0  0  0  0
 25 66  1  0  0  0  0
 26 27  2  0  0  0  0
 28 30  1  0  0  0  0
 30 31  1  0  0  0  0
 30 32  2  0  0  0  0
 31 33  1  0  0  0  0
 31 34  2  0  0  0  0
 32 35  1  0  0  0  0
 32 67  1  0  0  0  0
 33 36  1  0  0  0  0
 34 68  1  0  0  0  0
 35 36  2  0  0  0  0
 35 69  1  0  0  0  0
 36 70  1  0  0  0  0
 37 71  1  0  0  0  0
 37 72  1  0  0  0  0
 37 73  1  0  0  0  0
M  END
> <PUBCHEM_COMPOUND_CID>
138670389

> <PUBCHEM_COMPOUND_CANONICALIZED>
1

> <PUBCHEM_CACTVS_COMPLEXITY>
780

> <PUBCHEM_CACTVS_HBOND_ACCEPTOR>
7

> <PUBCHEM_CACTVS_HBOND_DONOR>
1

> <PUBCHEM_CACTVS_ROTATABLE_BOND>
7

> <PUBCHEM_CACTVS_SUBSKEYS>
AAADcfB7sQBAAAAAAAAAAAAAAABgAWLAAAAwYAAABYAAAFix/AAAHwQYAAAADTzh3gY+wfPIFAiuAzV3VACS9KB1ijgY2LU4ZNgIILLg1dGMpQhkngDIyYcciICOgAAAQAASAAAQAACAACQAAAAAAAAAAA==

> <PUBCHEM_IUPAC_OPENEYE_NAME>
N-[4-[2-[2-(3-fluorocyclobutoxy)-4,5,7,8-tetrahydrothiazolo[4,5-d]azepin-6-yl]ethyl]cyclohexyl]-2-methyl-indazole-4-carboxamide

> <PUBCHEM_IUPAC_CAS_NAME>
N-[4-[2-[2-(3-fluorocyclobutyl)oxy-4,5,7,8-tetrahydrothiazolo[4,5-d]azepin-6-yl]ethyl]cyclohexyl]-2-methyl-4-indazolecarboxamide

> <PUBCHEM_IUPAC_NAME_MARKUP>
<I>N</I>-[4-[2-[2-(3-fluorocyclobutyl)oxy-4,5,7,8-tetrahydro-[1,3]thiazolo[4,5-d]azepin-6-yl]ethyl]cyclohexyl]-2-methylindazole-4-carboxamide

> <PUBCHEM_IUPAC_NAME>
N-[4-[2-[2-(3-fluorocyclobutyl)oxy-4,5,7,8-tetrahydro-[1,3]thiazolo[4,5-d]azepin-6-yl]ethyl]cyclohexyl]-2-methylindazole-4-carboxamide

> <PUBCHEM_IUPAC_SYSTEMATIC_NAME>
N-[4-[2-[2-(3-fluoranylcyclobutyl)oxy-4,5,7,8-tetrahydro-[1,3]thiazolo[4,5-d]azepin-6-yl]ethyl]cyclohexyl]-2-methyl-indazole-4-carboxamide

> <PUBCHEM_IUPAC_TRADITIONAL_NAME>
N-[4-[2-[2-(3-fluorocyclobutoxy)-4,5,7,8-tetrahydrothiazol[4,5-d]azepin-6-yl]ethyl]cyclohexyl]-2-methyl-indazole-4-carboxamide

> <PUBCHEM_IUPAC_INCHI>
InChI=1S/C28H36FN5O2S/c1-33-17-23-22(3-2-4-24(23)32-33)27(35)30-20-7-5-18(6-8-20)9-12-34-13-10-25-26(11-14-34)37-28(31-25)36-21-15-19(29)16-21/h2-4,17-21H,5-16H2,1H3,(H,30,35)

> <PUBCHEM_IUPAC_INCHIKEY>
WOOSSNMEFYDJFX-UHFFFAOYSA-N

> <PUBCHEM_XLOGP3_AA>
5.1

> <PUBCHEM_EXACT_MASS>
525.25737474

> <PUBCHEM_MOLECULAR_FORMULA>
C28H36FN5O2S

> <PUBCHEM_MOLECULAR_WEIGHT>
525.7

> <PUBCHEM_OPENEYE_CAN_SMILES>
CN1C=C2C(=N1)C=CC=C2C(=O)NC3CCC(CC3)CCN4CCC5=C(CC4)SC(=N5)OC6CC(C6)F

> <PUBCHEM_OPENEYE_ISO_SMILES>
CN1C=C2C(=N1)C=CC=C2C(=O)NC3CCC(CC3)CCN4CCC5=C(CC4)SC(=N5)OC6CC(C6)F

> <PUBCHEM_CACTVS_TPSA>
101

> <PUBCHEM_MONOISOTOPIC_WEIGHT>
525.25737474

> <PUBCHEM_TOTAL_CHARGE>
0

> <PUBCHEM_HEAVY_ATOM_COUNT>
37

> <PUBCHEM_ATOM_DEF_STEREO_COUNT>
0

> <PUBCHEM_ATOM_UDEF_STEREO_COUNT>
0

> <PUBCHEM_BOND_DEF_STEREO_COUNT>
0

> <PUBCHEM_BOND_UDEF_STEREO_COUNT>
0

> <PUBCHEM_ISOTOPIC_ATOM_COUNT>
0

> <PUBCHEM_COMPONENT_COUNT>
1

> <PUBCHEM_CACTVS_TAUTO_COUNT>
-1

> <PUBCHEM_COORDINATE_TYPE>
1
5
255

> <PUBCHEM_BONDANNOTATIONS>
1  26  8
1  29  8
26  27  8
30  31  8
30  32  8
31  33  8
31  34  8
32  35  8
33  36  8
35  36  8
7  27  8
7  29  8
8  34  8
8  9  8
9  33  8

$$$$
