45262381
  -OEChem-09292322122D

 73 75  0     1  0  0  0  0  0999 V2000
    8.6244    0.0000    0.0000 Cl  0  0  0  0  0  0  0  0  0  0  0  0
   16.8427    7.3710    0.0000 S   0  0  0  0  0  0  0  0  0  0  0  0
    0.6200    2.5133    0.0000 F   0  0  0  0  0  0  0  0  0  0  0  0
    5.6200    4.2454    0.0000 O   0  0  0  0  0  0  0  0  0  0  0  0
   15.9747    7.8676    0.0000 O   0  0  0  0  0  0  0  0  0  0  0  0
   17.3393    8.2389    0.0000 O   0  0  0  0  0  0  0  0  0  0  0  0
   16.3460    6.5030    0.0000 O   0  0  0  0  0  0  0  0  0  0  0  0
   11.1200    6.8435    0.0000 N   0  0  3  0  0  0  0  0  0  0  0  0
    5.6200    5.9774    0.0000 N   0  0  0  0  0  0  0  0  0  0  0  0
    8.6200    5.9774    0.0000 C   0  0  0  0  0  0  0  0  0  0  0  0
    8.1200    6.8435    0.0000 C   0  0  0  0  0  0  0  0  0  0  0  0
    8.1200    5.1114    0.0000 C   0  0  0  0  0  0  0  0  0  0  0  0
    6.6200    5.9774    0.0000 C   0  0  0  0  0  0  0  0  0  0  0  0
    7.1200    6.8435    0.0000 C   0  0  0  0  0  0  0  0  0  0  0  0
    7.1200    5.1114    0.0000 C   0  0  0  0  0  0  0  0  0  0  0  0
    9.6200    5.9774    0.0000 C   0  0  0  0  0  0  0  0  0  0  0  0
   10.1200    6.8435    0.0000 C   0  0  0  0  0  0  0  0  0  0  0  0
   11.5539    7.7444    0.0000 C   0  0  0  0  0  0  0  0  0  0  0  0
   11.5539    5.9425    0.0000 C   0  0  0  0  0  0  0  0  0  0  0  0
   12.5288    7.9670    0.0000 C   0  0  0  0  0  0  0  0  0  0  0  0
   12.5288    5.7200    0.0000 C   0  0  0  0  0  0  0  0  0  0  0  0
   13.3106    7.3435    0.0000 C   0  0  0  0  0  0  0  0  0  0  0  0
   13.3106    6.3435    0.0000 C   0  0  0  0  0  0  0  0  0  0  0  0
    5.1200    5.1114    0.0000 C   0  0  0  0  0  0  0  0  0  0  0  0
   14.2046    7.8781    0.0000 C   0  0  0  0  0  0  0  0  0  0  0  0
   14.2046    5.8088    0.0000 C   0  0  0  0  0  0  0  0  0  0  0  0
    4.1200    5.1114    0.0000 C   0  0  0  0  0  0  0  0  0  0  0  0
   15.1107    7.3643    0.0000 C   0  0  0  0  0  0  0  0  0  0  0  0
   15.1107    6.3226    0.0000 C   0  0  0  0  0  0  0  0  0  0  0  0
    3.6200    4.2454    0.0000 C   0  0  0  0  0  0  0  0  0  0  0  0
    2.6200    4.2454    0.0000 C   0  0  0  0  0  0  0  0  0  0  0  0
   17.7106    6.8743    0.0000 C   0  0  0  0  0  0  0  0  0  0  0  0
    2.1200    3.3794    0.0000 C   0  0  0  0  0  0  0  0  0  0  0  0
    2.1200    5.1114    0.0000 C   0  0  0  0  0  0  0  0  0  0  0  0
    1.1200    3.3794    0.0000 C   0  0  0  0  0  0  0  0  0  0  0  0
    1.1200    5.1114    0.0000 C   0  0  0  0  0  0  0  0  0  0  0  0
    0.6200    4.2454    0.0000 C   0  0  0  0  0  0  0  0  0  0  0  0
    8.9300    6.5144    0.0000 H   0  0  0  0  0  0  0  0  0  0  0  0
    8.7026    7.0555    0.0000 H   0  0  0  0  0  0  0  0  0  0  0  0
    8.0123    7.4540    0.0000 H   0  0  0  0  0  0  0  0  0  0  0  0
    8.0123    4.5008    0.0000 H   0  0  0  0  0  0  0  0  0  0  0  0
    8.7026    4.8994    0.0000 H   0  0  0  0  0  0  0  0  0  0  0  0
    6.3100    6.5144    0.0000 H   0  0  0  0  0  0  0  0  0  0  0  0
    7.2277    7.4540    0.0000 H   0  0  0  0  0  0  0  0  0  0  0  0
    6.5374    7.0555    0.0000 H   0  0  0  0  0  0  0  0  0  0  0  0
    6.5374    4.8994    0.0000 H   0  0  0  0  0  0  0  0  0  0  0  0
    7.2277    4.5008    0.0000 H   0  0  0  0  0  0  0  0  0  0  0  0
    9.5123    5.3669    0.0000 H   0  0  0  0  0  0  0  0  0  0  0  0
   10.2026    5.7654    0.0000 H   0  0  0  0  0  0  0  0  0  0  0  0
   10.2277    7.4540    0.0000 H   0  0  0  0  0  0  0  0  0  0  0  0
    9.5374    7.0555    0.0000 H   0  0  0  0  0  0  0  0  0  0  0  0
    5.3100    6.5144    0.0000 H   0  0  0  0  0  0  0  0  0  0  0  0
   11.5539    8.3644    0.0000 H   0  0  0  0  0  0  0  0  0  0  0  0
   10.9494    7.8824    0.0000 H   0  0  0  0  0  0  0  0  0  0  0  0
   10.9494    5.8045    0.0000 H   0  0  0  0  0  0  0  0  0  0  0  0
   11.5539    5.3225    0.0000 H   0  0  0  0  0  0  0  0  0  0  0  0
   13.0135    8.3535    0.0000 H   0  0  0  0  0  0  0  0  0  0  0  0
   12.2598    8.5256    0.0000 H   0  0  0  0  0  0  0  0  0  0  0  0
   12.2598    5.1614    0.0000 H   0  0  0  0  0  0  0  0  0  0  0  0
   13.0135    5.3334    0.0000 H   0  0  0  0  0  0  0  0  0  0  0  0
   14.1974    8.4981    0.0000 H   0  0  0  0  0  0  0  0  0  0  0  0
   14.1974    5.1889    0.0000 H   0  0  0  0  0  0  0  0  0  0  0  0
    3.8100    5.6484    0.0000 H   0  0  0  0  0  0  0  0  0  0  0  0
   15.6464    6.0106    0.0000 H   0  0  0  0  0  0  0  0  0  0  0  0
    3.9300    3.7085    0.0000 H   0  0  0  0  0  0  0  0  0  0  0  0
   17.4027    6.3362    0.0000 H   0  0  0  0  0  0  0  0  0  0  0  0
   18.2488    6.5664    0.0000 H   0  0  0  0  0  0  0  0  0  0  0  0
   18.0186    7.4124    0.0000 H   0  0  0  0  0  0  0  0  0  0  0  0
    2.4300    2.8424    0.0000 H   0  0  0  0  0  0  0  0  0  0  0  0
    2.4300    5.6484    0.0000 H   0  0  0  0  0  0  0  0  0  0  0  0
    0.8100    5.6484    0.0000 H   0  0  0  0  0  0  0  0  0  0  0  0
    0.0000    4.2454    0.0000 H   0  0  0  0  0  0  0  0  0  0  0  0
    9.6244    0.0000    0.0000 H   0  0  0  0  0  0  0  0  0  0  0  0
  1 73  1  0  0  0  0
  2  5  1  0  0  0  0
  2  6  2  0  0  0  0
  2  7  2  0  0  0  0
  2 32  1  0  0  0  0
  3 35  1  0  0  0  0
  4 24  2  0  0  0  0
  5 28  1  0  0  0  0
  8 17  1  0  0  0  0
  8 18  1  0  0  0  0
  8 19  1  0  0  0  0
  9 13  1  0  0  0  0
  9 24  1  0  0  0  0
  9 52  1  0  0  0  0
 10 11  1  0  0  0  0
 10 12  1  0  0  0  0
 10 16  1  0  0  0  0
 10 38  1  0  0  0  0
 11 14  1  0  0  0  0
 11 39  1  0  0  0  0
 11 40  1  0  0  0  0
 12 15  1  0  0  0  0
 12 41  1  0  0  0  0
 12 42  1  0  0  0  0
 13 14  1  0  0  0  0
 13 15  1  0  0  0  0
 13 43  1  0  0  0  0
 14 44  1  0  0  0  0
 14 45  1  0  0  0  0
 15 46  1  0  0  0  0
 15 47  1  0  0  0  0
 16 17  1  0  0  0  0
 16 48  1  0  0  0  0
 16 49  1  0  0  0  0
 17 50  1  0  0  0  0
 17 51  1  0  0  0  0
 18 20  1  0  0  0  0
 18 53  1  0  0  0  0
 18 54  1  0  0  0  0
 19 21  1  0  0  0  0
 19 55  1  0  0  0  0
 19 56  1  0  0  0  0
 20 22  1  0  0  0  0
 20 57  1  0  0  0  0
 20 58  1  0  0  0  0
 21 23  1  0  0  0  0
 21 59  1  0  0  0  0
 21 60  1  0  0  0  0
 22 23  2  0  0  0  0
 22 25  1  0  0  0  0
 23 26  1  0  0  0  0
 24 27  1  0  0  0  0
 25 28  2  0  0  0  0
 25 61  1  0  0  0  0
 26 29  2  0  0  0  0
 26 62  1  0  0  0  0
 27 30  2  0  0  0  0
 27 63  1  0  0  0  0
 28 29  1  0  0  0  0
 29 64  1  0  0  0  0
 30 31  1  0  0  0  0
 30 65  1  0  0  0  0
 31 33  2  0  0  0  0
 31 34  1  0  0  0  0
 32 66  1  0  0  0  0
 32 67  1  0  0  0  0
 32 68  1  0  0  0  0
 33 35  1  0  0  0  0
 33 69  1  0  0  0  0
 34 36  2  0  0  0  0
 34 70  1  0  0  0  0
 35 37  2  0  0  0  0
 36 37  1  0  0  0  0
 36 71  1  0  0  0  0
 37 72  1  0  0  0  0
M  END
> <PUBCHEM_COMPOUND_CID>
45262381

> <PUBCHEM_COMPOUND_CANONICALIZED>
1

> <PUBCHEM_CACTVS_COMPLEXITY>
837

> <PUBCHEM_CACTVS_HBOND_ACCEPTOR>
6

> <PUBCHEM_CACTVS_HBOND_DONOR>
2

> <PUBCHEM_CACTVS_ROTATABLE_BOND>
8

> <PUBCHEM_CACTVS_SUBSKEYS>
AAADcfB7OQBEAAAAAAAAAAAAAAAAAAAAAAAwYMAABYAAAAABQAAAHwQQAAAADSzBmAyyBoPAAAKIAiFSEHCCAAAgIAAIiIAOCMgIJiKAkROEMAAk1hGIiYeQ0LIOoAABAAAQAABQAAIAACAAAAAAAAAAAA==

> <PUBCHEM_IUPAC_OPENEYE_NAME>
[3-[2-[4-[[(E)-3-(3-fluorophenyl)prop-2-enoyl]amino]cyclohexyl]ethyl]-1,2,4,5-tetrahydro-3-benzazepin-7-yl] methanesulfonate;hydrochloride

> <PUBCHEM_IUPAC_CAS_NAME>
methanesulfonic acid [3-[2-[4-[[(E)-3-(3-fluorophenyl)-1-oxoprop-2-enyl]amino]cyclohexyl]ethyl]-1,2,4,5-tetrahydro-3-benzazepin-7-yl] ester;hydrochloride

> <PUBCHEM_IUPAC_NAME_MARKUP>
[3-[2-[4-[[(<I>E</I>)-3-(3-fluorophenyl)prop-2-enoyl]amino]cyclohexyl]ethyl]-1,2,4,5-tetrahydro-3-benzazepin-7-yl] methanesulfonate;hydrochloride

> <PUBCHEM_IUPAC_NAME>
[3-[2-[4-[[(E)-3-(3-fluorophenyl)prop-2-enoyl]amino]cyclohexyl]ethyl]-1,2,4,5-tetrahydro-3-benzazepin-7-yl] methanesulfonate;hydrochloride

> <PUBCHEM_IUPAC_SYSTEMATIC_NAME>
[3-[2-[4-[[(E)-3-(3-fluorophenyl)prop-2-enoyl]amino]cyclohexyl]ethyl]-1,2,4,5-tetrahydro-3-benzazepin-7-yl] methanesulfonate;hydrochloride

> <PUBCHEM_IUPAC_TRADITIONAL_NAME>
methanesulfonic acid [3-[2-[4-[[(E)-3-(3-fluorophenyl)acryloyl]amino]cyclohexyl]ethyl]-1,2,4,5-tetrahydro-3-benzazepin-7-yl] ester;hydrochloride

> <PUBCHEM_IUPAC_INCHI>
InChI=1S/C28H35FN2O4S.ClH/c1-36(33,34)35-27-11-8-23-14-17-31(18-15-24(23)20-27)16-13-21-5-9-26(10-6-21)30-28(32)12-7-22-3-2-4-25(29)19-22;/h2-4,7-8,11-12,19-21,26H,5-6,9-10,13-18H2,1H3,(H,30,32);1H/b12-7+;

> <PUBCHEM_IUPAC_INCHIKEY>
RAWUAPDGFBWSAH-RRAJOLSVSA-N

> <PUBCHEM_EXACT_MASS>
550.2068347

> <PUBCHEM_MOLECULAR_FORMULA>
C28H36ClFN2O4S

> <PUBCHEM_MOLECULAR_WEIGHT>
551.1

> <PUBCHEM_OPENEYE_CAN_SMILES>
CS(=O)(=O)OC1=CC2=C(CCN(CC2)CCC3CCC(CC3)NC(=O)C=CC4=CC(=CC=C4)F)C=C1.Cl

> <PUBCHEM_OPENEYE_ISO_SMILES>
CS(=O)(=O)OC1=CC2=C(CCN(CC2)CCC3CCC(CC3)NC(=O)/C=C/C4=CC(=CC=C4)F)C=C1.Cl

> <PUBCHEM_CACTVS_TPSA>
84.1

> <PUBCHEM_MONOISOTOPIC_WEIGHT>
550.2068347

> <PUBCHEM_TOTAL_CHARGE>
0

> <PUBCHEM_HEAVY_ATOM_COUNT>
37

> <PUBCHEM_ATOM_DEF_STEREO_COUNT>
0

> <PUBCHEM_ATOM_UDEF_STEREO_COUNT>
0

> <PUBCHEM_BOND_DEF_STEREO_COUNT>
1

> <PUBCHEM_BOND_UDEF_STEREO_COUNT>
0

> <PUBCHEM_ISOTOPIC_ATOM_COUNT>
0

> <PUBCHEM_COMPONENT_COUNT>
2

> <PUBCHEM_CACTVS_TAUTO_COUNT>
-1

> <PUBCHEM_COORDINATE_TYPE>
1
5
255

> <PUBCHEM_BONDANNOTATIONS>
22  23  8
22  25  8
23  26  8
25  28  8
26  29  8
28  29  8
31  33  8
31  34  8
33  35  8
34  36  8
35  37  8
36  37  8

$$$$
