131801153
  -OEChem-09292322012D

 61 65  0     0  0  0  0  0  0999 V2000
   12.0095   -1.4370    0.0000 O   0  0  0  0  0  0  0  0  0  0  0  0
   17.2717   -1.4129    0.0000 O   0  0  0  0  0  0  0  0  0  0  0  0
    7.6775   -0.9537    0.0000 N   0  0  0  0  0  0  0  0  0  0  0  0
    5.9416    0.0396    0.0000 N   0  0  0  0  0  0  0  0  0  0  0  0
    2.6072   -0.1404    0.0000 N   0  0  0  0  0  0  0  0  0  0  0  0
   15.5396   -1.4129    0.0000 N   0  0  0  0  0  0  0  0  0  0  0  0
    7.6736    0.0463    0.0000 C   0  0  0  0  0  0  0  0  0  0  0  0
    6.8134   -1.4571    0.0000 C   0  0  0  0  0  0  0  0  0  0  0  0
    6.8057    0.5429    0.0000 C   0  0  0  0  0  0  0  0  0  0  0  0
    5.9454   -0.9604    0.0000 C   0  0  0  0  0  0  0  0  0  0  0  0
    8.5454   -1.4504    0.0000 C   0  0  0  0  0  0  0  0  0  0  0  0
    9.4095   -0.9471    0.0000 C   0  0  0  0  0  0  0  0  0  0  0  0
    5.0736    0.5362    0.0000 C   0  0  0  0  0  0  0  0  0  0  0  0
   10.2775   -1.4437    0.0000 C   0  0  0  0  0  0  0  0  0  0  0  0
    4.2096    0.0329    0.0000 C   0  0  0  0  0  0  0  0  0  0  0  0
    5.0698    1.5362    0.0000 C   0  0  0  0  0  0  0  0  0  0  0  0
    3.3416    0.5296    0.0000 C   0  0  0  0  0  0  0  0  0  0  0  0
   11.1416   -0.9404    0.0000 C   0  0  0  0  0  0  0  0  0  0  0  0
    4.0041   -0.9397    0.0000 C   0  0  0  0  0  0  0  0  0  0  0  0
    4.2018    2.0329    0.0000 C   0  0  0  0  0  0  0  0  0  0  0  0
    3.3378    1.5296    0.0000 C   0  0  0  0  0  0  0  0  0  0  0  0
    3.0158   -1.0466    0.0000 C   0  0  0  0  0  0  0  0  0  0  0  0
   14.6736    0.0871    0.0000 C   0  0  0  0  0  0  0  0  0  0  0  0
   15.5396    0.5871    0.0000 C   0  0  0  0  0  0  0  0  0  0  0  0
   12.8736   -0.9337    0.0000 C   0  0  0  0  0  0  0  0  0  0  0  0
   14.6736   -0.9129    0.0000 C   0  0  0  0  0  0  0  0  0  0  0  0
   16.4057    0.0871    0.0000 C   0  0  0  0  0  0  0  0  0  0  0  0
   13.7797   -1.4475    0.0000 C   0  0  0  0  0  0  0  0  0  0  0  0
   13.7797    0.6218    0.0000 C   0  0  0  0  0  0  0  0  0  0  0  0
   12.8736    0.1079    0.0000 C   0  0  0  0  0  0  0  0  0  0  0  0
   16.4057   -0.9129    0.0000 C   0  0  0  0  0  0  0  0  0  0  0  0
    8.2846   -0.0590    0.0000 H   0  0  0  0  0  0  0  0  0  0  0  0
    7.8834    0.6297    0.0000 H   0  0  0  0  0  0  0  0  0  0  0  0
    6.4167   -1.9336    0.0000 H   0  0  0  0  0  0  0  0  0  0  0  0
    7.2137   -1.9305    0.0000 H   0  0  0  0  0  0  0  0  0  0  0  0
    7.2024    1.0194    0.0000 H   0  0  0  0  0  0  0  0  0  0  0  0
    6.4053    1.0163    0.0000 H   0  0  0  0  0  0  0  0  0  0  0  0
    5.3344   -0.8551    0.0000 H   0  0  0  0  0  0  0  0  0  0  0  0
    5.7356   -1.5438    0.0000 H   0  0  0  0  0  0  0  0  0  0  0  0
    8.1487   -1.9269    0.0000 H   0  0  0  0  0  0  0  0  0  0  0  0
    8.9458   -1.9238    0.0000 H   0  0  0  0  0  0  0  0  0  0  0  0
    9.8062   -0.4706    0.0000 H   0  0  0  0  0  0  0  0  0  0  0  0
    9.0092   -0.4737    0.0000 H   0  0  0  0  0  0  0  0  0  0  0  0
    9.8808   -1.9202    0.0000 H   0  0  0  0  0  0  0  0  0  0  0  0
   10.6778   -1.9171    0.0000 H   0  0  0  0  0  0  0  0  0  0  0  0
    5.6055    1.8483    0.0000 H   0  0  0  0  0  0  0  0  0  0  0  0
   11.5382   -0.4639    0.0000 H   0  0  0  0  0  0  0  0  0  0  0  0
   10.7412   -0.4670    0.0000 H   0  0  0  0  0  0  0  0  0  0  0  0
    4.4199   -1.3996    0.0000 H   0  0  0  0  0  0  0  0  0  0  0  0
    4.1994    2.6529    0.0000 H   0  0  0  0  0  0  0  0  0  0  0  0
    2.7996    1.8375    0.0000 H   0  0  0  0  0  0  0  0  0  0  0  0
    2.0000   -0.0148    0.0000 H   0  0  0  0  0  0  0  0  0  0  0  0
    2.7078   -1.5847    0.0000 H   0  0  0  0  0  0  0  0  0  0  0  0
   15.9382    1.0621    0.0000 H   0  0  0  0  0  0  0  0  0  0  0  0
   15.1411    1.0621    0.0000 H   0  0  0  0  0  0  0  0  0  0  0  0
   17.0162   -0.0206    0.0000 H   0  0  0  0  0  0  0  0  0  0  0  0
   16.6177    0.6697    0.0000 H   0  0  0  0  0  0  0  0  0  0  0  0
   13.7868   -2.0675    0.0000 H   0  0  0  0  0  0  0  0  0  0  0  0
   13.7868    1.2417    0.0000 H   0  0  0  0  0  0  0  0  0  0  0  0
   12.3379    0.4200    0.0000 H   0  0  0  0  0  0  0  0  0  0  0  0
   15.5396   -2.0329    0.0000 H   0  0  0  0  0  0  0  0  0  0  0  0
  1 18  1  0  0  0  0
  1 25  1  0  0  0  0
  2 31  2  0  0  0  0
  3  7  1  0  0  0  0
  3  8  1  0  0  0  0
  3 11  1  0  0  0  0
  4  9  1  0  0  0  0
  4 10  1  0  0  0  0
  4 13  1  0  0  0  0
  5 17  1  0  0  0  0
  5 22  1  0  0  0  0
  5 52  1  0  0  0  0
  6 26  1  0  0  0  0
  6 31  1  0  0  0  0
  6 61  1  0  0  0  0
  7  9  1  0  0  0  0
  7 32  1  0  0  0  0
  7 33  1  0  0  0  0
  8 10  1  0  0  0  0
  8 34  1  0  0  0  0
  8 35  1  0  0  0  0
  9 36  1  0  0  0  0
  9 37  1  0  0  0  0
 10 38  1  0  0  0  0
 10 39  1  0  0  0  0
 11 12  1  0  0  0  0
 11 40  1  0  0  0  0
 11 41  1  0  0  0  0
 12 14  1  0  0  0  0
 12 42  1  0  0  0  0
 12 43  1  0  0  0  0
 13 15  1  0  0  0  0
 13 16  2  0  0  0  0
 14 18  1  0  0  0  0
 14 44  1  0  0  0  0
 14 45  1  0  0  0  0
 15 17  2  0  0  0  0
 15 19  1  0  0  0  0
 16 20  1  0  0  0  0
 16 46  1  0  0  0  0
 17 21  1  0  0  0  0
 18 47  1  0  0  0  0
 18 48  1  0  0  0  0
 19 22  2  0  0  0  0
 19 49  1  0  0  0  0
 20 21  2  0  0  0  0
 20 50  1  0  0  0  0
 21 51  1  0  0  0  0
 22 53  1  0  0  0  0
 23 24  1  0  0  0  0
 23 26  2  0  0  0  0
 23 29  1  0  0  0  0
 24 27  1  0  0  0  0
 24 54  1  0  0  0  0
 24 55  1  0  0  0  0
 25 28  2  0  0  0  0
 25 30  1  0  0  0  0
 26 28  1  0  0  0  0
 27 31  1  0  0  0  0
 27 56  1  0  0  0  0
 27 57  1  0  0  0  0
 28 58  1  0  0  0  0
 29 30  2  0  0  0  0
 29 59  1  0  0  0  0
 30 60  1  0  0  0  0
M  END
> <PUBCHEM_COMPOUND_CID>
131801153

> <PUBCHEM_COMPOUND_CANONICALIZED>
1

> <PUBCHEM_CACTVS_COMPLEXITY>
594

> <PUBCHEM_CACTVS_HBOND_ACCEPTOR>
4

> <PUBCHEM_CACTVS_HBOND_DONOR>
2

> <PUBCHEM_CACTVS_ROTATABLE_BOND>
7

> <PUBCHEM_CACTVS_SUBSKEYS>
AAADceB7sAAAAAAAAAAAAAAAAAAAAWAAAAA8eIEAAAAAAFix9AAAHgAQAAAADAzhngY8xvPJlACoAzV3VACCiCAxIiAI2aE+bJgMZvLE8duWPCjm1BnI6Ae42aOeIAAAAgQCAABAAAAECAQAAAAAAAAAAA==

> <PUBCHEM_IUPAC_OPENEYE_NAME>
7-[4-[4-(1H-indol-4-yl)piperazin-1-yl]butoxy]-3,4-dihydro-1H-quinolin-2-one

> <PUBCHEM_IUPAC_CAS_NAME>
7-[4-[4-(1H-indol-4-yl)-1-piperazinyl]butoxy]-3,4-dihydro-1H-quinolin-2-one

> <PUBCHEM_IUPAC_NAME_MARKUP>
7-[4-[4-(1<I>H</I>-indol-4-yl)piperazin-1-yl]butoxy]-3,4-dihydro-1<I>H</I>-quinolin-2-one

> <PUBCHEM_IUPAC_NAME>
7-[4-[4-(1H-indol-4-yl)piperazin-1-yl]butoxy]-3,4-dihydro-1H-quinolin-2-one

> <PUBCHEM_IUPAC_SYSTEMATIC_NAME>
7-[4-[4-(1H-indol-4-yl)piperazin-1-yl]butoxy]-3,4-dihydro-1H-quinolin-2-one

> <PUBCHEM_IUPAC_TRADITIONAL_NAME>
7-[4-[4-(1H-indol-4-yl)piperazino]butoxy]-3,4-dihydrocarbostyril

> <PUBCHEM_IUPAC_INCHI>
InChI=1S/C25H30N4O2/c30-25-9-7-19-6-8-20(18-23(19)27-25)31-17-2-1-12-28-13-15-29(16-14-28)24-5-3-4-22-21(24)10-11-26-22/h3-6,8,10-11,18,26H,1-2,7,9,12-17H2,(H,27,30)

> <PUBCHEM_IUPAC_INCHIKEY>
GLEZZSAETATKRY-UHFFFAOYSA-N

> <PUBCHEM_XLOGP3_AA>
3.5

> <PUBCHEM_EXACT_MASS>
418.23687621

> <PUBCHEM_MOLECULAR_FORMULA>
C25H30N4O2

> <PUBCHEM_MOLECULAR_WEIGHT>
418.5

> <PUBCHEM_OPENEYE_CAN_SMILES>
C1CC(=O)NC2=C1C=CC(=C2)OCCCCN3CCN(CC3)C4=CC=CC5=C4C=CN5

> <PUBCHEM_OPENEYE_ISO_SMILES>
C1CC(=O)NC2=C1C=CC(=C2)OCCCCN3CCN(CC3)C4=CC=CC5=C4C=CN5

> <PUBCHEM_CACTVS_TPSA>
60.6

> <PUBCHEM_MONOISOTOPIC_WEIGHT>
418.23687621

> <PUBCHEM_TOTAL_CHARGE>
0

> <PUBCHEM_HEAVY_ATOM_COUNT>
31

> <PUBCHEM_ATOM_DEF_STEREO_COUNT>
0

> <PUBCHEM_ATOM_UDEF_STEREO_COUNT>
0

> <PUBCHEM_BOND_DEF_STEREO_COUNT>
0

> <PUBCHEM_BOND_UDEF_STEREO_COUNT>
0

> <PUBCHEM_ISOTOPIC_ATOM_COUNT>
0

> <PUBCHEM_COMPONENT_COUNT>
1

> <PUBCHEM_CACTVS_TAUTO_COUNT>
-1

> <PUBCHEM_COORDINATE_TYPE>
1
5
255

> <PUBCHEM_BONDANNOTATIONS>
13  15  8
13  16  8
15  17  8
15  19  8
16  20  8
17  21  8
19  22  8
20  21  8
23  26  8
23  29  8
25  28  8
25  30  8
26  28  8
29  30  8
5  17  8
5  22  8

$$$$
