11613587
  -OEChem-09292322492D

 60 64  0     1  0  0  0  0  0999 V2000
    9.5723    2.7897    0.0000 S   0  0  0  0  0  0  0  0  0  0  0  0
    2.5000   -3.9957    0.0000 F   0  0  0  0  0  0  0  0  0  0  0  0
    4.2320   -4.9957    0.0000 F   0  0  0  0  0  0  0  0  0  0  0  0
    2.3660   -6.2278    0.0000 F   0  0  0  0  0  0  0  0  0  0  0  0
    2.0000   -4.8618    0.0000 F   0  0  0  0  0  0  0  0  0  0  0  0
    3.7320   -5.8618    0.0000 F   0  0  0  0  0  0  0  0  0  0  0  0
    4.8548   -3.5267    0.0000 O   0  0  0  0  0  0  0  0  0  0  0  0
   12.3961    6.1233    0.0000 O   0  0  0  0  0  0  0  0  0  0  0  0
    6.5723    1.0576    0.0000 N   0  0  3  0  0  0  0  0  0  0  0  0
    3.4609   -2.7219    0.0000 N   0  0  0  0  0  0  0  0  0  0  0  0
   11.0668    3.7602    0.0000 N   0  0  0  0  0  0  0  0  0  0  0  0
    9.6655    4.5692    0.0000 N   0  0  0  0  0  0  0  0  0  0  0  0
   10.4087    5.2384    0.0000 N   0  0  0  0  0  0  0  0  0  0  0  0
   13.7974    5.3142    0.0000 N   0  0  0  0  0  0  0  0  0  0  0  0
    7.1258    0.2480    0.0000 C   0  0  0  0  0  0  0  0  0  0  0  0
    5.5943    1.1322    0.0000 C   0  0  0  0  0  0  0  0  0  0  0  0
    6.8405   -0.6904    0.0000 C   0  0  0  0  0  0  0  0  0  0  0  0
    4.9243    0.4160    0.0000 C   0  0  0  0  0  0  0  0  0  0  0  0
    5.9300   -1.0548    0.0000 C   0  0  0  0  0  0  0  0  0  0  0  0
    5.0640   -0.5548    0.0000 C   0  0  0  0  0  0  0  0  0  0  0  0
    7.0723    1.9236    0.0000 C   0  0  0  0  0  0  0  0  0  0  0  0
    8.0723    1.9236    0.0000 C   0  0  0  0  0  0  0  0  0  0  0  0
    5.9300   -2.0548    0.0000 C   0  0  0  0  0  0  0  0  0  0  0  0
    4.1979   -1.0548    0.0000 C   0  0  0  0  0  0  0  0  0  0  0  0
    5.0640   -2.5548    0.0000 C   0  0  0  0  0  0  0  0  0  0  0  0
    4.1979   -2.0548    0.0000 C   0  0  0  0  0  0  0  0  0  0  0  0
    8.5723    2.7897    0.0000 C   0  0  0  0  0  0  0  0  0  0  0  0
    3.8660   -3.6297    0.0000 C   0  0  0  0  0  0  0  0  0  0  0  0
    3.3660   -4.4957    0.0000 C   0  0  0  0  0  0  0  0  0  0  0  0
   10.0723    3.6557    0.0000 C   0  0  0  0  0  0  0  0  0  0  0  0
    2.8660   -5.3618    0.0000 C   0  0  0  0  0  0  0  0  0  0  0  0
   11.2747    4.7384    0.0000 C   0  0  0  0  0  0  0  0  0  0  0  0
   11.7359    3.0171    0.0000 C   0  0  0  0  0  0  0  0  0  0  0  0
   12.1882    5.1451    0.0000 C   0  0  0  0  0  0  0  0  0  0  0  0
   13.0543    4.6451    0.0000 C   0  0  0  0  0  0  0  0  0  0  0  0
   13.1588    3.6506    0.0000 C   0  0  0  0  0  0  0  0  0  0  0  0
   13.3907    6.2278    0.0000 C   0  0  0  0  0  0  0  0  0  0  0  0
    7.6638   -0.0603    0.0000 H   0  0  0  0  0  0  0  0  0  0  0  0
    7.5465    0.7034    0.0000 H   0  0  0  0  0  0  0  0  0  0  0  0
    5.7784    1.7243    0.0000 H   0  0  0  0  0  0  0  0  0  0  0  0
    5.0584    1.4439    0.0000 H   0  0  0  0  0  0  0  0  0  0  0  0
    6.9365   -1.3029    0.0000 H   0  0  0  0  0  0  0  0  0  0  0  0
    7.4590   -0.7337    0.0000 H   0  0  0  0  0  0  0  0  0  0  0  0
    4.5776    0.9299    0.0000 H   0  0  0  0  0  0  0  0  0  0  0  0
    4.3459    0.1928    0.0000 H   0  0  0  0  0  0  0  0  0  0  0  0
    7.1799    2.5342    0.0000 H   0  0  0  0  0  0  0  0  0  0  0  0
    6.4896    2.1357    0.0000 H   0  0  0  0  0  0  0  0  0  0  0  0
    7.9646    1.3131    0.0000 H   0  0  0  0  0  0  0  0  0  0  0  0
    8.6549    1.7116    0.0000 H   0  0  0  0  0  0  0  0  0  0  0  0
    6.4669   -2.3648    0.0000 H   0  0  0  0  0  0  0  0  0  0  0  0
    3.6610   -0.7448    0.0000 H   0  0  0  0  0  0  0  0  0  0  0  0
    8.6799    3.4002    0.0000 H   0  0  0  0  0  0  0  0  0  0  0  0
    7.9896    3.0017    0.0000 H   0  0  0  0  0  0  0  0  0  0  0  0
   11.2752    2.6022    0.0000 H   0  0  0  0  0  0  0  0  0  0  0  0
   12.1508    2.5563    0.0000 H   0  0  0  0  0  0  0  0  0  0  0  0
   12.1967    3.4319    0.0000 H   0  0  0  0  0  0  0  0  0  0  0  0
   12.5422    3.5858    0.0000 H   0  0  0  0  0  0  0  0  0  0  0  0
   13.2236    3.0340    0.0000 H   0  0  0  0  0  0  0  0  0  0  0  0
   13.7754    3.7154    0.0000 H   0  0  0  0  0  0  0  0  0  0  0  0
   13.7007    6.7647    0.0000 H   0  0  0  0  0  0  0  0  0  0  0  0
  1 27  1  0  0  0  0
  1 30  1  0  0  0  0
  2 29  1  0  0  0  0
  3 29  1  0  0  0  0
  4 31  1  0  0  0  0
  5 31  1  0  0  0  0
  6 31  1  0  0  0  0
  7 25  1  0  0  0  0
  7 28  1  0  0  0  0
  8 34  1  0  0  0  0
  8 37  1  0  0  0  0
  9 15  1  0  0  0  0
  9 16  1  0  0  0  0
  9 21  1  0  0  0  0
 10 26  1  0  0  0  0
 10 28  2  0  0  0  0
 11 30  1  0  0  0  0
 11 32  1  0  0  0  0
 11 33  1  0  0  0  0
 12 13  1  0  0  0  0
 12 30  2  0  0  0  0
 13 32  2  0  0  0  0
 14 35  1  0  0  0  0
 14 37  2  0  0  0  0
 15 17  1  0  0  0  0
 15 38  1  0  0  0  0
 15 39  1  0  0  0  0
 16 18  1  0  0  0  0
 16 40  1  0  0  0  0
 16 41  1  0  0  0  0
 17 19  1  0  0  0  0
 17 42  1  0  0  0  0
 17 43  1  0  0  0  0
 18 20  1  0  0  0  0
 18 44  1  0  0  0  0
 18 45  1  0  0  0  0
 19 20  1  0  0  0  0
 19 23  2  0  0  0  0
 20 24  2  0  0  0  0
 21 22  1  0  0  0  0
 21 46  1  0  0  0  0
 21 47  1  0  0  0  0
 22 27  1  0  0  0  0
 22 48  1  0  0  0  0
 22 49  1  0  0  0  0
 23 25  1  0  0  0  0
 23 50  1  0  0  0  0
 24 26  1  0  0  0  0
 24 51  1  0  0  0  0
 25 26  2  0  0  0  0
 27 52  1  0  0  0  0
 27 53  1  0  0  0  0
 28 29  1  0  0  0  0
 29 31  1  0  0  0  0
 32 34  1  0  0  0  0
 33 54  1  0  0  0  0
 33 55  1  0  0  0  0
 33 56  1  0  0  0  0
 34 35  2  0  0  0  0
 35 36  1  0  0  0  0
 36 57  1  0  0  0  0
 36 58  1  0  0  0  0
 36 59  1  0  0  0  0
 37 60  1  0  0  0  0
M  END
> <PUBCHEM_COMPOUND_CID>
11613587

> <PUBCHEM_COMPOUND_CANONICALIZED>
1

> <PUBCHEM_CACTVS_COMPLEXITY>
784

> <PUBCHEM_CACTVS_HBOND_ACCEPTOR>
13

> <PUBCHEM_CACTVS_HBOND_DONOR>
0

> <PUBCHEM_CACTVS_ROTATABLE_BOND>
7

> <PUBCHEM_CACTVS_SUBSKEYS>
AAADceB7scBAAAAAAAAAAAAAAAAAAWLFgAAwAAAABYAAAFgB/gAAHwQIAAAADAzF3xa31rcMFEiqA6dz9ASS2Ct/YrAV2CG/bNiOLrLk/buPOSjkzBPY6YeY2bKOqAABQAAQEABQAAKAACAgAAAAAAAAAA==

> <PUBCHEM_IUPAC_OPENEYE_NAME>
7-[3-[[4-methyl-5-(4-methyloxazol-5-yl)-1,2,4-triazol-3-yl]sulfanyl]propyl]-2-(1,1,2,2,2-pentafluoroethyl)-5,6,8,9-tetrahydrooxazolo[4,5-h][3]benzazepine

> <PUBCHEM_IUPAC_CAS_NAME>
7-[3-[[4-methyl-5-(4-methyl-5-oxazolyl)-1,2,4-triazol-3-yl]thio]propyl]-2-(1,1,2,2,2-pentafluoroethyl)-5,6,8,9-tetrahydrooxazolo[4,5-h][3]benzazepine

> <PUBCHEM_IUPAC_NAME_MARKUP>
7-[3-[[4-methyl-5-(4-methyl-1,3-oxazol-5-yl)-1,2,4-triazol-3-yl]sulfanyl]propyl]-2-(1,1,2,2,2-pentafluoroethyl)-5,6,8,9-tetrahydro-[1,3]oxazolo[4,5-h][3]benzazepine

> <PUBCHEM_IUPAC_NAME>
7-[3-[[4-methyl-5-(4-methyl-1,3-oxazol-5-yl)-1,2,4-triazol-3-yl]sulfanyl]propyl]-2-(1,1,2,2,2-pentafluoroethyl)-5,6,8,9-tetrahydro-[1,3]oxazolo[4,5-h][3]benzazepine

> <PUBCHEM_IUPAC_SYSTEMATIC_NAME>
7-[3-[[4-methyl-5-(4-methyl-1,3-oxazol-5-yl)-1,2,4-triazol-3-yl]sulfanyl]propyl]-2-[1,1,2,2,2-pentakis(fluoranyl)ethyl]-5,6,8,9-tetrahydro-[1,3]oxazolo[4,5-h][3]benzazepine

> <PUBCHEM_IUPAC_TRADITIONAL_NAME>
7-[3-[[4-methyl-5-(4-methyloxazol-5-yl)-1,2,4-triazol-3-yl]thio]propyl]-2-(1,1,2,2,2-pentafluoroethyl)-5,6,8,9-tetrahydrooxazolo[4,5-h][3]benzazepine

> <PUBCHEM_IUPAC_INCHI>
InChI=1S/C23H23F5N6O2S/c1-13-18(35-12-29-13)19-31-32-21(33(19)2)37-9-3-6-34-7-4-14-10-16-17(11-15(14)5-8-34)36-20(30-16)22(24,25)23(26,27)28/h10-12H,3-9H2,1-2H3

> <PUBCHEM_IUPAC_INCHIKEY>
DOTHXJXYLNKQOQ-UHFFFAOYSA-N

> <PUBCHEM_XLOGP3_AA>
4.6

> <PUBCHEM_EXACT_MASS>
542.15233598

> <PUBCHEM_MOLECULAR_FORMULA>
C23H23F5N6O2S

> <PUBCHEM_MOLECULAR_WEIGHT>
542.5

> <PUBCHEM_OPENEYE_CAN_SMILES>
CC1=C(OC=N1)C2=NN=C(N2C)SCCCN3CCC4=CC5=C(C=C4CC3)OC(=N5)C(C(F)(F)F)(F)F

> <PUBCHEM_OPENEYE_ISO_SMILES>
CC1=C(OC=N1)C2=NN=C(N2C)SCCCN3CCC4=CC5=C(C=C4CC3)OC(=N5)C(C(F)(F)F)(F)F

> <PUBCHEM_CACTVS_TPSA>
111

> <PUBCHEM_MONOISOTOPIC_WEIGHT>
542.15233598

> <PUBCHEM_TOTAL_CHARGE>
0

> <PUBCHEM_HEAVY_ATOM_COUNT>
37

> <PUBCHEM_ATOM_DEF_STEREO_COUNT>
0

> <PUBCHEM_ATOM_UDEF_STEREO_COUNT>
0

> <PUBCHEM_BOND_DEF_STEREO_COUNT>
0

> <PUBCHEM_BOND_UDEF_STEREO_COUNT>
0

> <PUBCHEM_ISOTOPIC_ATOM_COUNT>
0

> <PUBCHEM_COMPONENT_COUNT>
1

> <PUBCHEM_CACTVS_TAUTO_COUNT>
-1

> <PUBCHEM_COORDINATE_TYPE>
1
5
255

> <PUBCHEM_BONDANNOTATIONS>
10  26  8
10  28  8
11  30  8
11  32  8
12  13  8
12  30  8
13  32  8
14  35  8
14  37  8
19  20  8
19  23  8
20  24  8
23  25  8
24  26  8
25  26  8
34  35  8
7  25  8
7  28  8
8  34  8
8  37  8

$$$$
