44415552
  -OEChem-09292322282D

 59 63  0     0  0  0  0  0  0999 V2000
    8.7204    1.1797    0.0000 Cl  0  0  0  0  0  0  0  0  0  0  0  0
    6.6150   -1.1473    0.0000 O   0  0  0  0  0  0  0  0  0  0  0  0
    3.9491    2.9444    0.0000 N   0  0  0  0  0  0  0  0  0  0  0  0
    3.0814    4.7463    0.0000 N   0  0  0  0  0  0  0  0  0  0  0  0
    4.8830   -0.1473    0.0000 N   0  0  0  0  0  0  0  0  0  0  0  0
    5.3830    2.0434    0.0000 N   0  0  0  0  0  0  0  0  0  0  0  0
    4.8830   -1.1473    0.0000 N   0  0  0  0  0  0  0  0  0  0  0  0
    4.5125    3.7706    0.0000 C   0  0  0  0  0  0  0  0  0  0  0  0
    2.9519    3.0191    0.0000 C   0  0  0  0  0  0  0  0  0  0  0  0
    4.0786    4.6716    0.0000 C   0  0  0  0  0  0  0  0  0  0  0  0
    2.5180    3.9201    0.0000 C   0  0  0  0  0  0  0  0  0  0  0  0
    4.3830    2.0434    0.0000 C   0  0  0  0  0  0  0  0  0  0  0  0
    3.7595    1.2616    0.0000 C   0  0  0  0  0  0  0  0  0  0  0  0
    2.6475    5.6473    0.0000 C   0  0  0  0  0  0  0  0  0  0  0  0
    3.9820    0.2866    0.0000 C   0  0  0  0  0  0  0  0  0  0  0  0
    5.7840    0.2866    0.0000 C   0  0  0  0  0  0  0  0  0  0  0  0
    6.0065    1.2615    0.0000 C   0  0  0  0  0  0  0  0  0  0  0  0
    2.7690    1.5839    0.0000 C   0  0  0  0  0  0  0  0  0  0  0  0
    3.2295   -0.4335    0.0000 C   0  0  0  0  0  0  0  0  0  0  0  0
    2.0000    0.8813    0.0000 C   0  0  0  0  0  0  0  0  0  0  0  0
    6.5365   -0.4336    0.0000 C   0  0  0  0  0  0  0  0  0  0  0  0
    6.9970    1.5839    0.0000 C   0  0  0  0  0  0  0  0  0  0  0  0
    2.2318   -0.1342    0.0000 C   0  0  0  0  0  0  0  0  0  0  0  0
    7.5342   -0.1342    0.0000 C   0  0  0  0  0  0  0  0  0  0  0  0
    7.7660    0.8813    0.0000 C   0  0  0  0  0  0  0  0  0  0  0  0
    5.7490   -1.6473    0.0000 C   0  0  0  0  0  0  0  0  0  0  0  0
    5.7490   -2.6473    0.0000 C   0  0  0  0  0  0  0  0  0  0  0  0
    6.6150   -3.1473    0.0000 C   0  0  0  0  0  0  0  0  0  0  0  0
    4.8830   -3.1473    0.0000 C   0  0  0  0  0  0  0  0  0  0  0  0
    5.7490   -4.6473    0.0000 C   0  0  0  0  0  0  0  0  0  0  0  0
    6.6150   -4.1473    0.0000 C   0  0  0  0  0  0  0  0  0  0  0  0
    4.8830   -4.1473    0.0000 C   0  0  0  0  0  0  0  0  0  0  0  0
    5.7490   -5.6473    0.0000 C   0  0  0  0  0  0  0  0  0  0  0  0
    4.9563    3.3377    0.0000 H   0  0  0  0  0  0  0  0  0  0  0  0
    5.0159    4.1325    0.0000 H   0  0  0  0  0  0  0  0  0  0  0  0
    2.3551    2.8512    0.0000 H   0  0  0  0  0  0  0  0  0  0  0  0
    3.0137    2.4022    0.0000 H   0  0  0  0  0  0  0  0  0  0  0  0
    4.6754    4.8395    0.0000 H   0  0  0  0  0  0  0  0  0  0  0  0
    4.0168    5.2885    0.0000 H   0  0  0  0  0  0  0  0  0  0  0  0
    2.0742    4.3530    0.0000 H   0  0  0  0  0  0  0  0  0  0  0  0
    2.0146    3.5582    0.0000 H   0  0  0  0  0  0  0  0  0  0  0  0
    3.2061    5.9163    0.0000 H   0  0  0  0  0  0  0  0  0  0  0  0
    2.3785    6.2059    0.0000 H   0  0  0  0  0  0  0  0  0  0  0  0
    2.0889    5.3783    0.0000 H   0  0  0  0  0  0  0  0  0  0  0  0
    2.6380    2.1899    0.0000 H   0  0  0  0  0  0  0  0  0  0  0  0
    3.3744   -1.0364    0.0000 H   0  0  0  0  0  0  0  0  0  0  0  0
    1.4083    1.0664    0.0000 H   0  0  0  0  0  0  0  0  0  0  0  0
    4.3460   -1.4573    0.0000 H   0  0  0  0  0  0  0  0  0  0  0  0
    6.3916   -1.0364    0.0000 H   0  0  0  0  0  0  0  0  0  0  0  0
    7.1280    2.1899    0.0000 H   0  0  0  0  0  0  0  0  0  0  0  0
    1.7789   -0.5576    0.0000 H   0  0  0  0  0  0  0  0  0  0  0  0
    7.9871   -0.5577    0.0000 H   0  0  0  0  0  0  0  0  0  0  0  0
    7.1520   -2.8373    0.0000 H   0  0  0  0  0  0  0  0  0  0  0  0
    4.3460   -2.8373    0.0000 H   0  0  0  0  0  0  0  0  0  0  0  0
    7.1520   -4.4573    0.0000 H   0  0  0  0  0  0  0  0  0  0  0  0
    4.3460   -4.4573    0.0000 H   0  0  0  0  0  0  0  0  0  0  0  0
    5.1290   -5.6473    0.0000 H   0  0  0  0  0  0  0  0  0  0  0  0
    5.7490   -6.2673    0.0000 H   0  0  0  0  0  0  0  0  0  0  0  0
    6.3690   -5.6473    0.0000 H   0  0  0  0  0  0  0  0  0  0  0  0
  1 25  1  0  0  0  0
  2 26  2  0  0  0  0
  3  8  1  0  0  0  0
  3  9  1  0  0  0  0
  3 12  1  0  0  0  0
  4 10  1  0  0  0  0
  4 11  1  0  0  0  0
  4 14  1  0  0  0  0
  5  7  1  0  0  0  0
  5 15  1  0  0  0  0
  5 16  1  0  0  0  0
  6 12  2  0  0  0  0
  6 17  1  0  0  0  0
  7 26  1  0  0  0  0
  7 48  1  0  0  0  0
  8 10  1  0  0  0  0
  8 34  1  0  0  0  0
  8 35  1  0  0  0  0
  9 11  1  0  0  0  0
  9 36  1  0  0  0  0
  9 37  1  0  0  0  0
 10 38  1  0  0  0  0
 10 39  1  0  0  0  0
 11 40  1  0  0  0  0
 11 41  1  0  0  0  0
 12 13  1  0  0  0  0
 13 15  1  0  0  0  0
 13 18  2  0  0  0  0
 14 42  1  0  0  0  0
 14 43  1  0  0  0  0
 14 44  1  0  0  0  0
 15 19  2  0  0  0  0
 16 17  2  0  0  0  0
 16 21  1  0  0  0  0
 17 22  1  0  0  0  0
 18 20  1  0  0  0  0
 18 45  1  0  0  0  0
 19 23  1  0  0  0  0
 19 46  1  0  0  0  0
 20 23  2  0  0  0  0
 20 47  1  0  0  0  0
 21 24  2  0  0  0  0
 21 49  1  0  0  0  0
 22 25  2  0  0  0  0
 22 50  1  0  0  0  0
 23 51  1  0  0  0  0
 24 25  1  0  0  0  0
 24 52  1  0  0  0  0
 26 27  1  0  0  0  0
 27 28  2  0  0  0  0
 27 29  1  0  0  0  0
 28 31  1  0  0  0  0
 28 53  1  0  0  0  0
 29 32  2  0  0  0  0
 29 54  1  0  0  0  0
 30 31  2  0  0  0  0
 30 32  1  0  0  0  0
 30 33  1  0  0  0  0
 31 55  1  0  0  0  0
 32 56  1  0  0  0  0
 33 57  1  0  0  0  0
 33 58  1  0  0  0  0
 33 59  1  0  0  0  0
M  END
> <PUBCHEM_COMPOUND_CID>
44415552

> <PUBCHEM_COMPOUND_CANONICALIZED>
1

> <PUBCHEM_CACTVS_COMPLEXITY>
716

> <PUBCHEM_CACTVS_HBOND_ACCEPTOR>
4

> <PUBCHEM_CACTVS_HBOND_DONOR>
1

> <PUBCHEM_CACTVS_ROTATABLE_BOND>
3

> <PUBCHEM_CACTVS_SUBSKEYS>
AAADceB7oAAEAAAAAAAAAAAAAAAAAAAAAAA8YMEABAAAAAABUAAAHgIYAAAADArBmCQzwINiAACoAidydACCBAElBwAbqAEodtgIYPLB35GUIQhggADIyYcYiACOQABAAAICACCAAIAABAQAQAAAAAAAAA==

> <PUBCHEM_IUPAC_OPENEYE_NAME>
N-[3-chloro-6-(4-methylpiperazin-1-yl)benzo[b][1,4]benzodiazepin-11-yl]-4-methyl-benzamide

> <PUBCHEM_IUPAC_CAS_NAME>
N-[3-chloro-6-(4-methyl-1-piperazinyl)-11-benzo[b][1,4]benzodiazepinyl]-4-methylbenzamide

> <PUBCHEM_IUPAC_NAME_MARKUP>
<I>N</I>-[3-chloro-6-(4-methylpiperazin-1-yl)benzo[b][1,4]benzodiazepin-11-yl]-4-methylbenzamide

> <PUBCHEM_IUPAC_NAME>
N-[3-chloro-6-(4-methylpiperazin-1-yl)benzo[b][1,4]benzodiazepin-11-yl]-4-methylbenzamide

> <PUBCHEM_IUPAC_SYSTEMATIC_NAME>
N-[3-chloranyl-6-(4-methylpiperazin-1-yl)benzo[b][1,4]benzodiazepin-11-yl]-4-methyl-benzamide

> <PUBCHEM_IUPAC_TRADITIONAL_NAME>
N-[3-chloro-6-(4-methylpiperazino)benzo[b][1,4]benzodiazepin-11-yl]-4-methyl-benzamide

> <PUBCHEM_IUPAC_INCHI>
InChI=1S/C26H26ClN5O/c1-18-7-9-19(10-8-18)26(33)29-32-23-6-4-3-5-21(23)25(31-15-13-30(2)14-16-31)28-22-17-20(27)11-12-24(22)32/h3-12,17H,13-16H2,1-2H3,(H,29,33)

> <PUBCHEM_IUPAC_INCHIKEY>
JOZIVALEQUQTGU-UHFFFAOYSA-N

> <PUBCHEM_XLOGP3_AA>
4.7

> <PUBCHEM_EXACT_MASS>
459.1825882

> <PUBCHEM_MOLECULAR_FORMULA>
C26H26ClN5O

> <PUBCHEM_MOLECULAR_WEIGHT>
460.0

> <PUBCHEM_OPENEYE_CAN_SMILES>
CC1=CC=C(C=C1)C(=O)NN2C3=C(C=C(C=C3)Cl)N=C(C4=CC=CC=C42)N5CCN(CC5)C

> <PUBCHEM_OPENEYE_ISO_SMILES>
CC1=CC=C(C=C1)C(=O)NN2C3=C(C=C(C=C3)Cl)N=C(C4=CC=CC=C42)N5CCN(CC5)C

> <PUBCHEM_CACTVS_TPSA>
51.2

> <PUBCHEM_MONOISOTOPIC_WEIGHT>
459.1825882

> <PUBCHEM_TOTAL_CHARGE>
0

> <PUBCHEM_HEAVY_ATOM_COUNT>
33

> <PUBCHEM_ATOM_DEF_STEREO_COUNT>
0

> <PUBCHEM_ATOM_UDEF_STEREO_COUNT>
0

> <PUBCHEM_BOND_DEF_STEREO_COUNT>
0

> <PUBCHEM_BOND_UDEF_STEREO_COUNT>
0

> <PUBCHEM_ISOTOPIC_ATOM_COUNT>
0

> <PUBCHEM_COMPONENT_COUNT>
1

> <PUBCHEM_CACTVS_TAUTO_COUNT>
-1

> <PUBCHEM_COORDINATE_TYPE>
1
5
255

> <PUBCHEM_BONDANNOTATIONS>
13  15  8
13  18  8
15  19  8
16  17  8
16  21  8
17  22  8
18  20  8
19  23  8
20  23  8
21  24  8
22  25  8
24  25  8
27  28  8
27  29  8
28  31  8
29  32  8
30  31  8
30  32  8

$$$$
