137654850
  -OEChem-09292322472D

 39 42  0     0  0  0  0  0  0999 V2000
    4.0745    1.2618    0.0000 S   0  0  0  0  0  0  0  0  0  0  0  0
    5.9710   -2.5252    0.0000 O   0  0  0  0  0  0  0  0  0  0  0  0
    4.9176    1.7995    0.0000 O   0  0  0  0  0  0  0  0  0  0  0  0
    3.2314    0.7240    0.0000 O   0  0  0  0  0  0  0  0  0  0  0  0
    7.7031   -3.5252    0.0000 O   0  0  0  0  0  0  0  0  0  0  0  0
    4.6123    0.4187    0.0000 N   0  0  0  0  0  0  0  0  0  0  0  0
    5.1050   -1.0252    0.0000 C   0  0  0  0  0  0  0  0  0  0  0  0
    5.9710   -0.5252    0.0000 C   0  0  0  0  0  0  0  0  0  0  0  0
    4.2110   -0.4906    0.0000 C   0  0  0  0  0  0  0  0  0  0  0  0
    5.6059    0.3991    0.0000 C   0  0  0  0  0  0  0  0  0  0  0  0
    6.8370   -1.0252    0.0000 C   0  0  0  0  0  0  0  0  0  0  0  0
    5.1050   -2.0252    0.0000 C   0  0  0  0  0  0  0  0  0  0  0  0
    6.8370   -2.0252    0.0000 C   0  0  0  0  0  0  0  0  0  0  0  0
    3.3050   -1.0044    0.0000 C   0  0  0  0  0  0  0  0  0  0  0  0
    4.2110   -2.5599    0.0000 C   0  0  0  0  0  0  0  0  0  0  0  0
    3.5368    2.1049    0.0000 C   0  0  0  0  0  0  0  0  0  0  0  0
    3.3050   -2.0460    0.0000 C   0  0  0  0  0  0  0  0  0  0  0  0
    7.7031   -0.5252    0.0000 C   0  0  0  0  0  0  0  0  0  0  0  0
    7.7031   -2.5252    0.0000 C   0  0  0  0  0  0  0  0  0  0  0  0
    2.5378    2.0607    0.0000 C   0  0  0  0  0  0  0  0  0  0  0  0
    3.9980    2.9921    0.0000 C   0  0  0  0  0  0  0  0  0  0  0  0
    2.0000    2.9038    0.0000 C   0  0  0  0  0  0  0  0  0  0  0  0
    3.4603    3.8352    0.0000 C   0  0  0  0  0  0  0  0  0  0  0  0
    2.4613    3.7911    0.0000 C   0  0  0  0  0  0  0  0  0  0  0  0
    5.9596    0.9083    0.0000 H   0  0  0  0  0  0  0  0  0  0  0  0
    2.7692   -0.6923    0.0000 H   0  0  0  0  0  0  0  0  0  0  0  0
    4.2182   -3.1798    0.0000 H   0  0  0  0  0  0  0  0  0  0  0  0
    2.7692   -2.3581    0.0000 H   0  0  0  0  0  0  0  0  0  0  0  0
    8.0131   -1.0622    0.0000 H   0  0  0  0  0  0  0  0  0  0  0  0
    8.2400   -0.2152    0.0000 H   0  0  0  0  0  0  0  0  0  0  0  0
    7.3931    0.0117    0.0000 H   0  0  0  0  0  0  0  0  0  0  0  0
    8.3136   -2.6329    0.0000 H   0  0  0  0  0  0  0  0  0  0  0  0
    7.9151   -1.9426    0.0000 H   0  0  0  0  0  0  0  0  0  0  0  0
    2.2518    1.5106    0.0000 H   0  0  0  0  0  0  0  0  0  0  0  0
    4.6174    3.0195    0.0000 H   0  0  0  0  0  0  0  0  0  0  0  0
    1.3806    2.8765    0.0000 H   0  0  0  0  0  0  0  0  0  0  0  0
    3.7463    4.3853    0.0000 H   0  0  0  0  0  0  0  0  0  0  0  0
    2.1279    4.3138    0.0000 H   0  0  0  0  0  0  0  0  0  0  0  0
    8.2400   -3.8352    0.0000 H   0  0  0  0  0  0  0  0  0  0  0  0
  1  3  2  0  0  0  0
  1  4  2  0  0  0  0
  1  6  1  0  0  0  0
  1 16  1  0  0  0  0
  2 12  1  0  0  0  0
  2 13  1  0  0  0  0
  5 19  1  0  0  0  0
  5 39  1  0  0  0  0
  6  9  1  0  0  0  0
  6 10  1  0  0  0  0
  7  8  1  0  0  0  0
  7  9  2  0  0  0  0
  7 12  1  0  0  0  0
  8 10  2  0  0  0  0
  8 11  1  0  0  0  0
  9 14  1  0  0  0  0
 10 25  1  0  0  0  0
 11 13  2  0  0  0  0
 11 18  1  0  0  0  0
 12 15  2  0  0  0  0
 13 19  1  0  0  0  0
 14 17  2  0  0  0  0
 14 26  1  0  0  0  0
 15 17  1  0  0  0  0
 15 27  1  0  0  0  0
 16 20  2  0  0  0  0
 16 21  1  0  0  0  0
 17 28  1  0  0  0  0
 18 29  1  0  0  0  0
 18 30  1  0  0  0  0
 18 31  1  0  0  0  0
 19 32  1  0  0  0  0
 19 33  1  0  0  0  0
 20 22  1  0  0  0  0
 20 34  1  0  0  0  0
 21 23  2  0  0  0  0
 21 35  1  0  0  0  0
 22 24  2  0  0  0  0
 22 36  1  0  0  0  0
 23 24  1  0  0  0  0
 23 37  1  0  0  0  0
 24 38  1  0  0  0  0
M  END
> <PUBCHEM_COMPOUND_CID>
137654850

> <PUBCHEM_COMPOUND_CANONICALIZED>
1

> <PUBCHEM_CACTVS_COMPLEXITY>
617

> <PUBCHEM_CACTVS_HBOND_ACCEPTOR>
4

> <PUBCHEM_CACTVS_HBOND_DONOR>
1

> <PUBCHEM_CACTVS_ROTATABLE_BOND>
3

> <PUBCHEM_CACTVS_SUBSKEYS>
AAADccB6OABAAAAAAAAAAAAAAAAAAWAAAAAwYIAAAAAAAFiB9AAAHgQASAAADAzh3gY+x/IIFgKgAzRnRHDCiDAxIiAI2Dg+bJgNNuLEsZuGOCjmwBnL+Aew0OMOgAAAAgAKAAAAAAAEABQAAAAAAAAAAA==

> <PUBCHEM_IUPAC_OPENEYE_NAME>
[2-(benzenesulfonyl)-5-methyl-7-oxa-2-azatricyclo[6.3.1.04,12]dodeca-1(12),3,5,8,10-pentaen-6-yl]methanol

> <PUBCHEM_IUPAC_CAS_NAME>
[2-(benzenesulfonyl)-5-methyl-7-oxa-2-azatricyclo[6.3.1.04,12]dodeca-1(12),3,5,8,10-pentaen-6-yl]methanol

> <PUBCHEM_IUPAC_NAME_MARKUP>
[2-(benzenesulfonyl)-5-methyl-7-oxa-2-azatricyclo[6.3.1.0<SUP>4,12</SUP>]dodeca-1(12),3,5,8,10-pentaen-6-yl]methanol

> <PUBCHEM_IUPAC_NAME>
[2-(benzenesulfonyl)-5-methyl-7-oxa-2-azatricyclo[6.3.1.04,12]dodeca-1(12),3,5,8,10-pentaen-6-yl]methanol

> <PUBCHEM_IUPAC_SYSTEMATIC_NAME>
[5-methyl-2-(phenylsulfonyl)-7-oxa-2-azatricyclo[6.3.1.04,12]dodeca-1(12),3,5,8,10-pentaen-6-yl]methanol

> <PUBCHEM_IUPAC_TRADITIONAL_NAME>
(2-besyl-5-methyl-7-oxa-2-azatricyclo[6.3.1.04,12]dodeca-1(12),3,5,8,10-pentaen-6-yl)methanol

> <PUBCHEM_IUPAC_INCHI>
InChI=1S/C18H15NO4S/c1-12-14-10-19(24(21,22)13-6-3-2-4-7-13)15-8-5-9-16(18(14)15)23-17(12)11-20/h2-10,20H,11H2,1H3

> <PUBCHEM_IUPAC_INCHIKEY>
GMSIWIKTSBRYGS-UHFFFAOYSA-N

> <PUBCHEM_XLOGP3_AA>
2.4

> <PUBCHEM_EXACT_MASS>
341.07217913

> <PUBCHEM_MOLECULAR_FORMULA>
C18H15NO4S

> <PUBCHEM_MOLECULAR_WEIGHT>
341.4

> <PUBCHEM_OPENEYE_CAN_SMILES>
CC1=C(OC2=CC=CC3=C2C1=CN3S(=O)(=O)C4=CC=CC=C4)CO

> <PUBCHEM_OPENEYE_ISO_SMILES>
CC1=C(OC2=CC=CC3=C2C1=CN3S(=O)(=O)C4=CC=CC=C4)CO

> <PUBCHEM_CACTVS_TPSA>
76.9

> <PUBCHEM_MONOISOTOPIC_WEIGHT>
341.07217913

> <PUBCHEM_TOTAL_CHARGE>
0

> <PUBCHEM_HEAVY_ATOM_COUNT>
24

> <PUBCHEM_ATOM_DEF_STEREO_COUNT>
0

> <PUBCHEM_ATOM_UDEF_STEREO_COUNT>
0

> <PUBCHEM_BOND_DEF_STEREO_COUNT>
0

> <PUBCHEM_BOND_UDEF_STEREO_COUNT>
0

> <PUBCHEM_ISOTOPIC_ATOM_COUNT>
0

> <PUBCHEM_COMPONENT_COUNT>
1

> <PUBCHEM_CACTVS_TAUTO_COUNT>
-1

> <PUBCHEM_COORDINATE_TYPE>
1
5
255

> <PUBCHEM_BONDANNOTATIONS>
12  15  8
14  17  8
15  17  8
16  20  8
16  21  8
20  22  8
21  23  8
22  24  8
23  24  8
6  10  8
6  9  8
7  12  8
7  8  8
7  9  8
8  10  8
9  14  8

$$$$
