53361666
  -OEChem-09292322022D

 67 71  0     1  0  0  0  0  0999 V2000
    7.4733    5.1583    0.0000 S   0  0  0  0  0  0  0  0  0  0  0  0
    2.9176   -6.3481    0.0000 O   0  0  0  0  0  0  0  0  0  0  0  0
    5.5321    2.1865    0.0000 N   0  0  3  0  0  0  0  0  0  0  0  0
    4.6660   -0.3135    0.0000 N   0  0  0  0  0  0  0  0  0  0  0  0
    4.6660   -2.3135    0.0000 N   0  0  0  0  0  0  0  0  0  0  0  0
    8.8672    4.3536    0.0000 N   0  0  0  0  0  0  0  0  0  0  0  0
    8.9620    6.1274    0.0000 N   0  0  0  0  0  0  0  0  0  0  0  0
    4.6660   -5.3135    0.0000 N   0  0  0  0  0  0  0  0  0  0  0  0
    6.3981    2.6865    0.0000 C   0  0  1  0  0  0  0  0  0  0  0  0
    7.2641    2.1865    0.0000 C   0  0  0  0  0  0  0  0  0  0  0  0
    6.3981    3.6865    0.0000 C   0  0  0  0  0  0  0  0  0  0  0  0
    5.5321    1.1865    0.0000 C   0  0  0  0  0  0  0  0  0  0  0  0
    4.6660    0.6865    0.0000 C   0  0  0  0  0  0  0  0  0  0  0  0
    8.1301    2.6865    0.0000 C   0  0  0  0  0  0  0  0  0  0  0  0
    4.6660    2.6865    0.0000 C   0  0  0  0  0  0  0  0  0  0  0  0
    3.8000   -0.8135    0.0000 C   0  0  0  0  0  0  0  0  0  0  0  0
    5.5321   -0.8135    0.0000 C   0  0  0  0  0  0  0  0  0  0  0  0
    7.2641    4.1865    0.0000 C   0  0  0  0  0  0  0  0  0  0  0  0
    8.1301    3.6865    0.0000 C   0  0  0  0  0  0  0  0  0  0  0  0
    3.8000   -1.8135    0.0000 C   0  0  0  0  0  0  0  0  0  0  0  0
    5.5321   -1.8135    0.0000 C   0  0  0  0  0  0  0  0  0  0  0  0
    4.6660    3.6865    0.0000 C   0  0  0  0  0  0  0  0  0  0  0  0
    4.6660   -3.3135    0.0000 C   0  0  0  0  0  0  0  0  0  0  0  0
    8.4620    5.2614    0.0000 C   0  0  0  0  0  0  0  0  0  0  0  0
    3.8000    4.1865    0.0000 C   0  0  0  0  0  0  0  0  0  0  0  0
    3.8000   -3.8135    0.0000 C   0  0  0  0  0  0  0  0  0  0  0  0
    5.5321   -3.8135    0.0000 C   0  0  0  0  0  0  0  0  0  0  0  0
    3.8000   -4.8135    0.0000 C   0  0  0  0  0  0  0  0  0  0  0  0
    2.9061   -3.2789    0.0000 C   0  0  0  0  0  0  0  0  0  0  0  0
    5.5321   -4.8135    0.0000 C   0  0  0  0  0  0  0  0  0  0  0  0
    2.9061   -5.3482    0.0000 C   0  0  0  0  0  0  0  0  0  0  0  0
    2.0000   -3.7927    0.0000 C   0  0  0  0  0  0  0  0  0  0  0  0
    2.0000   -4.8343    0.0000 C   0  0  0  0  0  0  0  0  0  0  0  0
    6.3981    2.0665    0.0000 H   0  0  0  0  0  0  0  0  0  0  0  0
    6.8656    1.7115    0.0000 H   0  0  0  0  0  0  0  0  0  0  0  0
    7.6626    1.7115    0.0000 H   0  0  0  0  0  0  0  0  0  0  0  0
    6.1860    4.2691    0.0000 H   0  0  0  0  0  0  0  0  0  0  0  0
    5.7875    3.5788    0.0000 H   0  0  0  0  0  0  0  0  0  0  0  0
    5.7441    0.6039    0.0000 H   0  0  0  0  0  0  0  0  0  0  0  0
    6.1426    1.2941    0.0000 H   0  0  0  0  0  0  0  0  0  0  0  0
    4.4540    1.2691    0.0000 H   0  0  0  0  0  0  0  0  0  0  0  0
    4.0555    0.5788    0.0000 H   0  0  0  0  0  0  0  0  0  0  0  0
    8.3422    2.1039    0.0000 H   0  0  0  0  0  0  0  0  0  0  0  0
    8.7407    2.7941    0.0000 H   0  0  0  0  0  0  0  0  0  0  0  0
    4.0555    2.7941    0.0000 H   0  0  0  0  0  0  0  0  0  0  0  0
    4.4540    2.1039    0.0000 H   0  0  0  0  0  0  0  0  0  0  0  0
    3.5880   -0.2309    0.0000 H   0  0  0  0  0  0  0  0  0  0  0  0
    3.1894   -0.9212    0.0000 H   0  0  0  0  0  0  0  0  0  0  0  0
    6.1426   -0.9212    0.0000 H   0  0  0  0  0  0  0  0  0  0  0  0
    5.7441   -0.2309    0.0000 H   0  0  0  0  0  0  0  0  0  0  0  0
    3.1894   -1.7059    0.0000 H   0  0  0  0  0  0  0  0  0  0  0  0
    3.5880   -2.3961    0.0000 H   0  0  0  0  0  0  0  0  0  0  0  0
    5.7441   -2.3961    0.0000 H   0  0  0  0  0  0  0  0  0  0  0  0
    6.1426   -1.7059    0.0000 H   0  0  0  0  0  0  0  0  0  0  0  0
    5.2766    3.5788    0.0000 H   0  0  0  0  0  0  0  0  0  0  0  0
    4.8781    4.2691    0.0000 H   0  0  0  0  0  0  0  0  0  0  0  0
    4.1100    4.7234    0.0000 H   0  0  0  0  0  0  0  0  0  0  0  0
    3.2631    4.4965    0.0000 H   0  0  0  0  0  0  0  0  0  0  0  0
    3.4900    3.6495    0.0000 H   0  0  0  0  0  0  0  0  0  0  0  0
    6.0690   -3.5035    0.0000 H   0  0  0  0  0  0  0  0  0  0  0  0
    2.9132   -2.6589    0.0000 H   0  0  0  0  0  0  0  0  0  0  0  0
    9.5820    6.1274    0.0000 H   0  0  0  0  0  0  0  0  0  0  0  0
    8.6520    6.6643    0.0000 H   0  0  0  0  0  0  0  0  0  0  0  0
    6.0690   -5.1235    0.0000 H   0  0  0  0  0  0  0  0  0  0  0  0
    1.4643   -3.4806    0.0000 H   0  0  0  0  0  0  0  0  0  0  0  0
    1.4643   -5.1464    0.0000 H   0  0  0  0  0  0  0  0  0  0  0  0
    2.3843   -6.6643    0.0000 H   0  0  0  0  0  0  0  0  0  0  0  0
  1 18  1  0  0  0  0
  1 24  1  0  0  0  0
  2 31  1  0  0  0  0
  2 67  1  0  0  0  0
  9  3  1  6  0  0  0
  3 12  1  0  0  0  0
  3 15  1  0  0  0  0
  4 13  1  0  0  0  0
  4 16  1  0  0  0  0
  4 17  1  0  0  0  0
  5 20  1  0  0  0  0
  5 21  1  0  0  0  0
  5 23  1  0  0  0  0
  6 19  1  0  0  0  0
  6 24  2  0  0  0  0
  7 24  1  0  0  0  0
  7 62  1  0  0  0  0
  7 63  1  0  0  0  0
  8 28  2  0  0  0  0
  8 30  1  0  0  0  0
  9 10  1  0  0  0  0
  9 11  1  0  0  0  0
  9 34  1  0  0  0  0
 10 14  1  0  0  0  0
 10 35  1  0  0  0  0
 10 36  1  0  0  0  0
 11 18  1  0  0  0  0
 11 37  1  0  0  0  0
 11 38  1  0  0  0  0
 12 13  1  0  0  0  0
 12 39  1  0  0  0  0
 12 40  1  0  0  0  0
 13 41  1  0  0  0  0
 13 42  1  0  0  0  0
 14 19  1  0  0  0  0
 14 43  1  0  0  0  0
 14 44  1  0  0  0  0
 15 22  1  0  0  0  0
 15 45  1  0  0  0  0
 15 46  1  0  0  0  0
 16 20  1  0  0  0  0
 16 47  1  0  0  0  0
 16 48  1  0  0  0  0
 17 21  1  0  0  0  0
 17 49  1  0  0  0  0
 17 50  1  0  0  0  0
 18 19  2  0  0  0  0
 20 51  1  0  0  0  0
 20 52  1  0  0  0  0
 21 53  1  0  0  0  0
 21 54  1  0  0  0  0
 22 25  1  0  0  0  0
 22 55  1  0  0  0  0
 22 56  1  0  0  0  0
 23 26  2  0  0  0  0
 23 27  1  0  0  0  0
 25 57  1  0  0  0  0
 25 58  1  0  0  0  0
 25 59  1  0  0  0  0
 26 28  1  0  0  0  0
 26 29  1  0  0  0  0
 27 30  2  0  0  0  0
 27 60  1  0  0  0  0
 28 31  1  0  0  0  0
 29 32  2  0  0  0  0
 29 61  1  0  0  0  0
 30 64  1  0  0  0  0
 31 33  2  0  0  0  0
 32 33  1  0  0  0  0
 32 65  1  0  0  0  0
 33 66  1  0  0  0  0
M  END
> <PUBCHEM_COMPOUND_CID>
53361666

> <PUBCHEM_COMPOUND_CANONICALIZED>
1

> <PUBCHEM_CACTVS_COMPLEXITY>
620

> <PUBCHEM_CACTVS_HBOND_ACCEPTOR>
8

> <PUBCHEM_CACTVS_HBOND_DONOR>
2

> <PUBCHEM_CACTVS_ROTATABLE_BOND>
7

> <PUBCHEM_CACTVS_SUBSKEYS>
AAADcfB7oABAAAAAAAAAAAAAAAAAAWAAAAA8eIEAAAAAAFix/AAAHgQQCAAADCzB3gQ/1/NIEgikAzRnZASC8KlxajkI2DQ/bJiKZuLy0dOUdAhkwBPY2CewwLAOAAABAAACEAAAAQIAQAQiAAAAAAAAAA==

> <PUBCHEM_IUPAC_OPENEYE_NAME>
4-[4-[2-[[(6S)-2-amino-4,5,6,7-tetrahydro-1,3-benzothiazol-6-yl]-propyl-amino]ethyl]piperazin-1-yl]quinolin-8-ol

> <PUBCHEM_IUPAC_CAS_NAME>
4-[4-[2-[[(6S)-2-amino-4,5,6,7-tetrahydro-1,3-benzothiazol-6-yl]-propylamino]ethyl]-1-piperazinyl]-8-quinolinol

> <PUBCHEM_IUPAC_NAME_MARKUP>
4-[4-[2-[[(6<I>S</I>)-2-amino-4,5,6,7-tetrahydro-1,3-benzothiazol-6-yl]-propylamino]ethyl]piperazin-1-yl]quinolin-8-ol

> <PUBCHEM_IUPAC_NAME>
4-[4-[2-[[(6S)-2-amino-4,5,6,7-tetrahydro-1,3-benzothiazol-6-yl]-propylamino]ethyl]piperazin-1-yl]quinolin-8-ol

> <PUBCHEM_IUPAC_SYSTEMATIC_NAME>
4-[4-[2-[[(6S)-2-azanyl-4,5,6,7-tetrahydro-1,3-benzothiazol-6-yl]-propyl-amino]ethyl]piperazin-1-yl]quinolin-8-ol

> <PUBCHEM_IUPAC_TRADITIONAL_NAME>
4-[4-[2-[[(6S)-2-amino-4,5,6,7-tetrahydro-1,3-benzothiazol-6-yl]-propyl-amino]ethyl]piperazino]quinolin-8-ol

> <PUBCHEM_IUPAC_INCHI>
InChI=1S/C25H34N6OS/c1-2-10-30(18-6-7-20-23(17-18)33-25(26)28-20)14-11-29-12-15-31(16-13-29)21-8-9-27-24-19(21)4-3-5-22(24)32/h3-5,8-9,18,32H,2,6-7,10-17H2,1H3,(H2,26,28)/t18-/m0/s1

> <PUBCHEM_IUPAC_INCHIKEY>
YVWGFJJVIYRZMN-SFHVURJKSA-N

> <PUBCHEM_XLOGP3_AA>
3.9

> <PUBCHEM_EXACT_MASS>
466.25148090

> <PUBCHEM_MOLECULAR_FORMULA>
C25H34N6OS

> <PUBCHEM_MOLECULAR_WEIGHT>
466.6

> <PUBCHEM_OPENEYE_CAN_SMILES>
CCCN(CCN1CCN(CC1)C2=C3C=CC=C(C3=NC=C2)O)C4CCC5=C(C4)SC(=N5)N

> <PUBCHEM_OPENEYE_ISO_SMILES>
CCCN(CCN1CCN(CC1)C2=C3C=CC=C(C3=NC=C2)O)[C@H]4CCC5=C(C4)SC(=N5)N

> <PUBCHEM_CACTVS_TPSA>
110

> <PUBCHEM_MONOISOTOPIC_WEIGHT>
466.25148090

> <PUBCHEM_TOTAL_CHARGE>
0

> <PUBCHEM_HEAVY_ATOM_COUNT>
33

> <PUBCHEM_ATOM_DEF_STEREO_COUNT>
1

> <PUBCHEM_ATOM_UDEF_STEREO_COUNT>
0

> <PUBCHEM_BOND_DEF_STEREO_COUNT>
0

> <PUBCHEM_BOND_UDEF_STEREO_COUNT>
0

> <PUBCHEM_ISOTOPIC_ATOM_COUNT>
0

> <PUBCHEM_COMPONENT_COUNT>
1

> <PUBCHEM_CACTVS_TAUTO_COUNT>
-1

> <PUBCHEM_COORDINATE_TYPE>
1
5
255

> <PUBCHEM_BONDANNOTATIONS>
1  18  8
1  24  8
18  19  8
23  26  8
23  27  8
26  28  8
26  29  8
27  30  8
28  31  8
29  32  8
9  3  6
31  33  8
32  33  8
6  19  8
6  24  8
8  28  8
8  30  8

$$$$
