44447003
  -OEChem-09292322262D

 64 68  0     1  0  0  0  0  0999 V2000
    3.7899    2.1636    0.0000 S   0  0  0  0  0  0  0  0  0  0  0  0
   14.6962   -0.3172    0.0000 O   0  0  0  0  0  0  0  0  0  0  0  0
    7.4629   -0.5344    0.0000 N   0  0  0  0  0  0  0  0  0  0  0  0
    5.7308    0.4656    0.0000 N   0  0  0  0  0  0  0  0  0  0  0  0
   13.0499    0.2209    0.0000 N   0  0  0  0  0  0  0  0  0  0  0  0
    4.7617    1.9544    0.0000 N   0  0  0  0  0  0  0  0  0  0  0  0
   12.7392   -0.7296    0.0000 C   0  0  3  0  0  0  0  0  0  0  0  0
   13.3228   -1.5344    0.0000 C   0  0  0  0  0  0  0  0  0  0  0  0
   11.7930   -1.0344    0.0000 C   0  0  0  0  0  0  0  0  0  0  0  0
   12.7392   -2.3391    0.0000 C   0  0  0  0  0  0  0  0  0  0  0  0
   11.7930   -2.0344    0.0000 C   0  0  0  0  0  0  0  0  0  0  0  0
    7.4629    0.4656    0.0000 C   0  0  0  0  0  0  0  0  0  0  0  0
    6.5968   -1.0344    0.0000 C   0  0  0  0  0  0  0  0  0  0  0  0
    8.3289   -1.0344    0.0000 C   0  0  0  0  0  0  0  0  0  0  0  0
    9.1949   -0.5344    0.0000 C   0  0  0  0  0  0  0  0  0  0  0  0
    6.5968    0.9656    0.0000 C   0  0  0  0  0  0  0  0  0  0  0  0
    5.7308   -0.5344    0.0000 C   0  0  0  0  0  0  0  0  0  0  0  0
   10.0610   -1.0344    0.0000 C   0  0  0  0  0  0  0  0  0  0  0  0
   10.9270   -0.5344    0.0000 C   0  0  0  0  0  0  0  0  0  0  0  0
   10.9270   -2.5344    0.0000 C   0  0  0  0  0  0  0  0  0  0  0  0
   10.0610   -2.0344    0.0000 C   0  0  0  0  0  0  0  0  0  0  0  0
    4.8648    0.9656    0.0000 C   0  0  0  0  0  0  0  0  0  0  0  0
   14.0284    0.4271    0.0000 C   0  0  0  0  0  0  0  0  0  0  0  0
    3.9570    0.5605    0.0000 C   0  0  0  0  0  0  0  0  0  0  0  0
   14.3391    1.3776    0.0000 C   0  0  0  0  0  0  0  0  0  0  0  0
    3.2892    1.3048    0.0000 C   0  0  0  0  0  0  0  0  0  0  0  0
    3.6464   -0.3900    0.0000 C   0  0  0  0  0  0  0  0  0  0  0  0
   15.3176    1.5838    0.0000 C   0  0  0  0  0  0  0  0  0  0  0  0
    2.3107    1.0986    0.0000 C   0  0  0  0  0  0  0  0  0  0  0  0
    2.6678   -0.5962    0.0000 C   0  0  0  0  0  0  0  0  0  0  0  0
    2.0000    0.1481    0.0000 C   0  0  0  0  0  0  0  0  0  0  0  0
   15.6282    2.5344    0.0000 C   0  0  0  0  0  0  0  0  0  0  0  0
   13.3517   -0.6334    0.0000 H   0  0  0  0  0  0  0  0  0  0  0  0
   13.7837   -1.9491    0.0000 H   0  0  0  0  0  0  0  0  0  0  0  0
   13.7837   -1.1196    0.0000 H   0  0  0  0  0  0  0  0  0  0  0  0
   12.4882   -2.9060    0.0000 H   0  0  0  0  0  0  0  0  0  0  0  0
   13.2766   -2.6483    0.0000 H   0  0  0  0  0  0  0  0  0  0  0  0
    8.0734    0.3580    0.0000 H   0  0  0  0  0  0  0  0  0  0  0  0
    7.6749    1.0482    0.0000 H   0  0  0  0  0  0  0  0  0  0  0  0
    6.1983   -1.5093    0.0000 H   0  0  0  0  0  0  0  0  0  0  0  0
    6.9954   -1.5093    0.0000 H   0  0  0  0  0  0  0  0  0  0  0  0
    7.9304   -1.5093    0.0000 H   0  0  0  0  0  0  0  0  0  0  0  0
    8.7274   -1.5093    0.0000 H   0  0  0  0  0  0  0  0  0  0  0  0
    9.5934   -0.0594    0.0000 H   0  0  0  0  0  0  0  0  0  0  0  0
    8.7964   -0.0594    0.0000 H   0  0  0  0  0  0  0  0  0  0  0  0
    6.9954    1.4406    0.0000 H   0  0  0  0  0  0  0  0  0  0  0  0
    6.1983    1.4406    0.0000 H   0  0  0  0  0  0  0  0  0  0  0  0
    5.1202   -0.4267    0.0000 H   0  0  0  0  0  0  0  0  0  0  0  0
    5.5188   -1.1170    0.0000 H   0  0  0  0  0  0  0  0  0  0  0  0
   10.9270    0.0856    0.0000 H   0  0  0  0  0  0  0  0  0  0  0  0
   10.9270   -3.1544    0.0000 H   0  0  0  0  0  0  0  0  0  0  0  0
   12.6358    0.6824    0.0000 H   0  0  0  0  0  0  0  0  0  0  0  0
    9.5240   -2.3444    0.0000 H   0  0  0  0  0  0  0  0  0  0  0  0
   14.3185    1.9973    0.0000 H   0  0  0  0  0  0  0  0  0  0  0  0
   13.7252    1.4650    0.0000 H   0  0  0  0  0  0  0  0  0  0  0  0
    4.0604   -0.8515    0.0000 H   0  0  0  0  0  0  0  0  0  0  0  0
   15.3381    0.9642    0.0000 H   0  0  0  0  0  0  0  0  0  0  0  0
   15.9314    1.4965    0.0000 H   0  0  0  0  0  0  0  0  0  0  0  0
    1.8966    1.5601    0.0000 H   0  0  0  0  0  0  0  0  0  0  0  0
    2.4752   -1.1855    0.0000 H   0  0  0  0  0  0  0  0  0  0  0  0
    1.3933    0.0202    0.0000 H   0  0  0  0  0  0  0  0  0  0  0  0
   16.2175    2.3418    0.0000 H   0  0  0  0  0  0  0  0  0  0  0  0
   15.8208    3.1237    0.0000 H   0  0  0  0  0  0  0  0  0  0  0  0
   15.0389    2.7270    0.0000 H   0  0  0  0  0  0  0  0  0  0  0  0
  1  6  1  0  0  0  0
  1 26  1  0  0  0  0
  2 23  2  0  0  0  0
  3 12  1  0  0  0  0
  3 13  1  0  0  0  0
  3 14  1  0  0  0  0
  4 16  1  0  0  0  0
  4 17  1  0  0  0  0
  4 22  1  0  0  0  0
  5  7  1  0  0  0  0
  5 23  1  0  0  0  0
  5 52  1  0  0  0  0
  6 22  2  0  0  0  0
  7  8  1  0  0  0  0
  7  9  1  0  0  0  0
  7 33  1  0  0  0  0
  8 10  1  0  0  0  0
  8 34  1  0  0  0  0
  8 35  1  0  0  0  0
  9 11  2  0  0  0  0
  9 19  1  0  0  0  0
 10 11  1  0  0  0  0
 10 36  1  0  0  0  0
 10 37  1  0  0  0  0
 11 20  1  0  0  0  0
 12 16  1  0  0  0  0
 12 38  1  0  0  0  0
 12 39  1  0  0  0  0
 13 17  1  0  0  0  0
 13 40  1  0  0  0  0
 13 41  1  0  0  0  0
 14 15  1  0  0  0  0
 14 42  1  0  0  0  0
 14 43  1  0  0  0  0
 15 18  1  0  0  0  0
 15 44  1  0  0  0  0
 15 45  1  0  0  0  0
 16 46  1  0  0  0  0
 16 47  1  0  0  0  0
 17 48  1  0  0  0  0
 17 49  1  0  0  0  0
 18 19  2  0  0  0  0
 18 21  1  0  0  0  0
 19 50  1  0  0  0  0
 20 21  2  0  0  0  0
 20 51  1  0  0  0  0
 21 53  1  0  0  0  0
 22 24  1  0  0  0  0
 23 25  1  0  0  0  0
 24 26  1  0  0  0  0
 24 27  2  0  0  0  0
 25 28  1  0  0  0  0
 25 54  1  0  0  0  0
 25 55  1  0  0  0  0
 26 29  2  0  0  0  0
 27 30  1  0  0  0  0
 27 56  1  0  0  0  0
 28 32  1  0  0  0  0
 28 57  1  0  0  0  0
 28 58  1  0  0  0  0
 29 31  1  0  0  0  0
 29 59  1  0  0  0  0
 30 31  2  0  0  0  0
 30 60  1  0  0  0  0
 31 61  1  0  0  0  0
 32 62  1  0  0  0  0
 32 63  1  0  0  0  0
 32 64  1  0  0  0  0
M  END
> <PUBCHEM_COMPOUND_CID>
44447003

> <PUBCHEM_COMPOUND_CANONICALIZED>
1

> <PUBCHEM_CACTVS_COMPLEXITY>
625

> <PUBCHEM_CACTVS_HBOND_ACCEPTOR>
5

> <PUBCHEM_CACTVS_HBOND_DONOR>
1

> <PUBCHEM_CACTVS_ROTATABLE_BOND>
7

> <PUBCHEM_CACTVS_SUBSKEYS>
AAADcfB7oABAAAAAAAAAAAAAAAAAAeIAAAA8YIAAAAAAAHgB9AAAHgQQQAAADCjB2gQzsdPAAACsAiNycACDABAhAABJmLkoRJiIYLLAmZGUIAxglgLIyAcQgMAOwAACAAAUAACAAAQAACgAACAACQAAAA==

> <PUBCHEM_IUPAC_OPENEYE_NAME>
N-[6-[2-[4-(1,2-benzothiazol-3-yl)piperazin-1-yl]ethyl]indan-1-yl]butanamide

> <PUBCHEM_IUPAC_CAS_NAME>
N-[6-[2-[4-(1,2-benzothiazol-3-yl)-1-piperazinyl]ethyl]-2,3-dihydro-1H-inden-1-yl]butanamide

> <PUBCHEM_IUPAC_NAME_MARKUP>
<I>N</I>-[6-[2-[4-(1,2-benzothiazol-3-yl)piperazin-1-yl]ethyl]-2,3-dihydro-1<I>H</I>-inden-1-yl]butanamide

> <PUBCHEM_IUPAC_NAME>
N-[6-[2-[4-(1,2-benzothiazol-3-yl)piperazin-1-yl]ethyl]-2,3-dihydro-1H-inden-1-yl]butanamide

> <PUBCHEM_IUPAC_SYSTEMATIC_NAME>
N-[6-[2-[4-(1,2-benzothiazol-3-yl)piperazin-1-yl]ethyl]-2,3-dihydro-1H-inden-1-yl]butanamide

> <PUBCHEM_IUPAC_TRADITIONAL_NAME>
N-[6-[2-[4-(1,2-benzothiazol-3-yl)piperazino]ethyl]indan-1-yl]butyramide

> <PUBCHEM_IUPAC_INCHI>
InChI=1S/C26H32N4OS/c1-2-5-25(31)27-23-11-10-20-9-8-19(18-22(20)23)12-13-29-14-16-30(17-15-29)26-21-6-3-4-7-24(21)32-28-26/h3-4,6-9,18,23H,2,5,10-17H2,1H3,(H,27,31)

> <PUBCHEM_IUPAC_INCHIKEY>
NDJMUWDIDQMYFY-UHFFFAOYSA-N

> <PUBCHEM_XLOGP3_AA>
4.9

> <PUBCHEM_EXACT_MASS>
448.22968283

> <PUBCHEM_MOLECULAR_FORMULA>
C26H32N4OS

> <PUBCHEM_MOLECULAR_WEIGHT>
448.6

> <PUBCHEM_OPENEYE_CAN_SMILES>
CCCC(=O)NC1CCC2=C1C=C(C=C2)CCN3CCN(CC3)C4=NSC5=CC=CC=C54

> <PUBCHEM_OPENEYE_ISO_SMILES>
CCCC(=O)NC1CCC2=C1C=C(C=C2)CCN3CCN(CC3)C4=NSC5=CC=CC=C54

> <PUBCHEM_CACTVS_TPSA>
76.7

> <PUBCHEM_MONOISOTOPIC_WEIGHT>
448.22968283

> <PUBCHEM_TOTAL_CHARGE>
0

> <PUBCHEM_HEAVY_ATOM_COUNT>
32

> <PUBCHEM_ATOM_DEF_STEREO_COUNT>
0

> <PUBCHEM_ATOM_UDEF_STEREO_COUNT>
1

> <PUBCHEM_BOND_DEF_STEREO_COUNT>
0

> <PUBCHEM_BOND_UDEF_STEREO_COUNT>
0

> <PUBCHEM_ISOTOPIC_ATOM_COUNT>
0

> <PUBCHEM_COMPONENT_COUNT>
1

> <PUBCHEM_CACTVS_TAUTO_COUNT>
-1

> <PUBCHEM_COORDINATE_TYPE>
1
5
255

> <PUBCHEM_BONDANNOTATIONS>
1  26  8
1  6  8
11  20  8
18  19  8
18  21  8
20  21  8
22  24  8
24  26  8
24  27  8
26  29  8
27  30  8
29  31  8
30  31  8
7  5  3
6  22  8
9  11  8
9  19  8

$$$$
