25093832
  -OEChem-09292322002D

 60 63  0     0  0  0  0  0  0999 V2000
   10.6603    0.7301    0.0000 O   0  0  0  0  0  0  0  0  0  0  0  0
    2.8660    0.2301    0.0000 O   0  0  0  0  0  0  0  0  0  0  0  0
   15.8044    2.6421    0.0000 O   0  0  0  0  0  0  0  0  0  0  0  0
    6.3301    0.2301    0.0000 N   0  0  0  0  0  0  0  0  0  0  0  0
    4.5981   -0.7699    0.0000 N   0  0  0  0  0  0  0  0  0  0  0  0
   13.2583   -0.7699    0.0000 N   0  0  0  0  0  0  0  0  0  0  0  0
   14.2045   -1.0747    0.0000 N   0  0  0  0  0  0  0  0  0  0  0  0
   15.4937    1.6916    0.0000 N   0  0  0  0  0  0  0  0  0  0  0  0
    5.4641    0.7301    0.0000 C   0  0  0  0  0  0  0  0  0  0  0  0
    6.3301   -0.7699    0.0000 C   0  0  0  0  0  0  0  0  0  0  0  0
    4.5981    0.2301    0.0000 C   0  0  0  0  0  0  0  0  0  0  0  0
    5.4641   -1.2699    0.0000 C   0  0  0  0  0  0  0  0  0  0  0  0
    7.1962    0.7301    0.0000 C   0  0  0  0  0  0  0  0  0  0  0  0
    8.0622    0.2301    0.0000 C   0  0  0  0  0  0  0  0  0  0  0  0
    3.7320   -1.2699    0.0000 C   0  0  0  0  0  0  0  0  0  0  0  0
    8.9282    0.7301    0.0000 C   0  0  0  0  0  0  0  0  0  0  0  0
    2.8660   -0.7699    0.0000 C   0  0  0  0  0  0  0  0  0  0  0  0
    9.7942    0.2301    0.0000 C   0  0  0  0  0  0  0  0  0  0  0  0
    3.7320   -2.2699    0.0000 C   0  0  0  0  0  0  0  0  0  0  0  0
    2.0000   -1.2699    0.0000 C   0  0  0  0  0  0  0  0  0  0  0  0
    2.8660   -2.7699    0.0000 C   0  0  0  0  0  0  0  0  0  0  0  0
    2.0000   -2.2699    0.0000 C   0  0  0  0  0  0  0  0  0  0  0  0
   11.5263    0.2301    0.0000 C   0  0  0  0  0  0  0  0  0  0  0  0
   12.3923    0.7301    0.0000 C   0  0  0  0  0  0  0  0  0  0  0  0
   13.2583    0.2301    0.0000 C   0  0  0  0  0  0  0  0  0  0  0  0
    2.0000    0.7301    0.0000 C   0  0  0  0  0  0  0  0  0  0  0  0
   11.5263   -0.7699    0.0000 C   0  0  0  0  0  0  0  0  0  0  0  0
   12.3923   -1.2699    0.0000 C   0  0  0  0  0  0  0  0  0  0  0  0
   14.2045    0.5348    0.0000 C   0  0  0  0  0  0  0  0  0  0  0  0
   14.7882   -0.2699    0.0000 C   0  0  0  0  0  0  0  0  0  0  0  0
   14.5152    1.4853    0.0000 C   0  0  0  0  0  0  0  0  0  0  0  0
    5.8626    1.2050    0.0000 H   0  0  0  0  0  0  0  0  0  0  0  0
    5.0656    1.2050    0.0000 H   0  0  0  0  0  0  0  0  0  0  0  0
    6.5422   -1.3525    0.0000 H   0  0  0  0  0  0  0  0  0  0  0  0
    6.9407   -0.6623    0.0000 H   0  0  0  0  0  0  0  0  0  0  0  0
    4.3860    0.8127    0.0000 H   0  0  0  0  0  0  0  0  0  0  0  0
    3.9875    0.1224    0.0000 H   0  0  0  0  0  0  0  0  0  0  0  0
    5.0656   -1.7449    0.0000 H   0  0  0  0  0  0  0  0  0  0  0  0
    5.8626   -1.7449    0.0000 H   0  0  0  0  0  0  0  0  0  0  0  0
    7.5947    1.2050    0.0000 H   0  0  0  0  0  0  0  0  0  0  0  0
    6.7976    1.2050    0.0000 H   0  0  0  0  0  0  0  0  0  0  0  0
    7.6636   -0.2449    0.0000 H   0  0  0  0  0  0  0  0  0  0  0  0
    8.4607   -0.2449    0.0000 H   0  0  0  0  0  0  0  0  0  0  0  0
    9.3267    1.2050    0.0000 H   0  0  0  0  0  0  0  0  0  0  0  0
    8.5297    1.2050    0.0000 H   0  0  0  0  0  0  0  0  0  0  0  0
    9.3957   -0.2449    0.0000 H   0  0  0  0  0  0  0  0  0  0  0  0
   10.1928   -0.2449    0.0000 H   0  0  0  0  0  0  0  0  0  0  0  0
    4.2690   -2.5799    0.0000 H   0  0  0  0  0  0  0  0  0  0  0  0
    1.4631   -0.9599    0.0000 H   0  0  0  0  0  0  0  0  0  0  0  0
    2.8660   -3.3899    0.0000 H   0  0  0  0  0  0  0  0  0  0  0  0
    1.4631   -2.5799    0.0000 H   0  0  0  0  0  0  0  0  0  0  0  0
   12.3923    1.3501    0.0000 H   0  0  0  0  0  0  0  0  0  0  0  0
   10.9893   -1.0799    0.0000 H   0  0  0  0  0  0  0  0  0  0  0  0
    2.3100    1.2670    0.0000 H   0  0  0  0  0  0  0  0  0  0  0  0
    1.4631    1.0401    0.0000 H   0  0  0  0  0  0  0  0  0  0  0  0
    1.6900    0.1931    0.0000 H   0  0  0  0  0  0  0  0  0  0  0  0
   12.3923   -1.8899    0.0000 H   0  0  0  0  0  0  0  0  0  0  0  0
   15.4082   -0.2699    0.0000 H   0  0  0  0  0  0  0  0  0  0  0  0
   14.1011    1.9468    0.0000 H   0  0  0  0  0  0  0  0  0  0  0  0
   16.4111    2.7699    0.0000 H   0  0  0  0  0  0  0  0  0  0  0  0
  1 18  1  0  0  0  0
  1 23  1  0  0  0  0
  2 17  1  0  0  0  0
  2 26  1  0  0  0  0
  3  8  1  0  0  0  0
  3 60  1  0  0  0  0
  4  9  1  0  0  0  0
  4 10  1  0  0  0  0
  4 13  1  0  0  0  0
  5 11  1  0  0  0  0
  5 12  1  0  0  0  0
  5 15  1  0  0  0  0
  6  7  1  0  0  0  0
  6 25  1  0  0  0  0
  6 28  1  0  0  0  0
  7 30  2  0  0  0  0
  8 31  2  0  0  0  0
  9 11  1  0  0  0  0
  9 32  1  0  0  0  0
  9 33  1  0  0  0  0
 10 12  1  0  0  0  0
 10 34  1  0  0  0  0
 10 35  1  0  0  0  0
 11 36  1  0  0  0  0
 11 37  1  0  0  0  0
 12 38  1  0  0  0  0
 12 39  1  0  0  0  0
 13 14  1  0  0  0  0
 13 40  1  0  0  0  0
 13 41  1  0  0  0  0
 14 16  1  0  0  0  0
 14 42  1  0  0  0  0
 14 43  1  0  0  0  0
 15 17  1  0  0  0  0
 15 19  2  0  0  0  0
 16 18  1  0  0  0  0
 16 44  1  0  0  0  0
 16 45  1  0  0  0  0
 17 20  2  0  0  0  0
 18 46  1  0  0  0  0
 18 47  1  0  0  0  0
 19 21  1  0  0  0  0
 19 48  1  0  0  0  0
 20 22  1  0  0  0  0
 20 49  1  0  0  0  0
 21 22  2  0  0  0  0
 21 50  1  0  0  0  0
 22 51  1  0  0  0  0
 23 24  2  0  0  0  0
 23 27  1  0  0  0  0
 24 25  1  0  0  0  0
 24 52  1  0  0  0  0
 25 29  2  0  0  0  0
 26 54  1  0  0  0  0
 26 55  1  0  0  0  0
 26 56  1  0  0  0  0
 27 28  2  0  0  0  0
 27 53  1  0  0  0  0
 28 57  1  0  0  0  0
 29 30  1  0  0  0  0
 29 31  1  0  0  0  0
 30 58  1  0  0  0  0
 31 59  1  0  0  0  0
M  END
> <PUBCHEM_COMPOUND_CID>
25093832

> <PUBCHEM_COMPOUND_CANONICALIZED>
1

> <PUBCHEM_CACTVS_COMPLEXITY>
557

> <PUBCHEM_CACTVS_HBOND_ACCEPTOR>
7

> <PUBCHEM_CACTVS_HBOND_DONOR>
1

> <PUBCHEM_CACTVS_ROTATABLE_BOND>
9

> <PUBCHEM_CACTVS_SUBSKEYS>
AAADceB7sAAAAAAAAAAAAAAAAAAAAWAAAAA8WIAAAAAAAFgB8AAAHgAMCAAADAzhngY+xrMYFACiAzRnRACSjCAxoiAY2CA/bJgOZuLE8duXvCjmyBnY6Aew0EAMAAAAAAAAEAAAAAAAAAAgAAAAAAAAAA==

> <PUBCHEM_IUPAC_OPENEYE_NAME>
(3E)-5-[4-[4-(2-methoxyphenyl)piperazin-1-yl]butoxy]pyrazolo[1,5-a]pyridine-3-carbaldehyde oxime

> <PUBCHEM_IUPAC_CAS_NAME>
(3E)-5-[4-[4-(2-methoxyphenyl)-1-piperazinyl]butoxy]-3-pyrazolo[1,5-a]pyridinecarboxaldehyde oxime

> <PUBCHEM_IUPAC_NAME_MARKUP>
(<I>N</I><I>E</I>)-<I>N</I>-[[5-[4-[4-(2-methoxyphenyl)piperazin-1-yl]butoxy]pyrazolo[1,5-a]pyridin-3-yl]methylidene]hydroxylamine

> <PUBCHEM_IUPAC_NAME>
(NE)-N-[[5-[4-[4-(2-methoxyphenyl)piperazin-1-yl]butoxy]pyrazolo[1,5-a]pyridin-3-yl]methylidene]hydroxylamine

> <PUBCHEM_IUPAC_SYSTEMATIC_NAME>
(NE)-N-[[5-[4-[4-(2-methoxyphenyl)piperazin-1-yl]butoxy]pyrazolo[1,5-a]pyridin-3-yl]methylidene]hydroxylamine

> <PUBCHEM_IUPAC_TRADITIONAL_NAME>
(3E)-5-[4-[4-(2-methoxyphenyl)piperazino]butoxy]pyrazolo[1,5-a]pyridine-3-carbaldehyde oxime

> <PUBCHEM_IUPAC_INCHI>
InChI=1S/C23H29N5O3/c1-30-23-7-3-2-6-21(23)27-13-11-26(12-14-27)9-4-5-15-31-20-8-10-28-22(16-20)19(17-24-28)18-25-29/h2-3,6-8,10,16-18,29H,4-5,9,11-15H2,1H3/b25-18+

> <PUBCHEM_IUPAC_INCHIKEY>
BZCYPHOOPXOADD-XIEYBQDHSA-N

> <PUBCHEM_XLOGP3_AA>
3.1

> <PUBCHEM_EXACT_MASS>
423.22703980

> <PUBCHEM_MOLECULAR_FORMULA>
C23H29N5O3

> <PUBCHEM_MOLECULAR_WEIGHT>
423.5

> <PUBCHEM_OPENEYE_CAN_SMILES>
COC1=CC=CC=C1N2CCN(CC2)CCCCOC3=CC4=C(C=NN4C=C3)C=NO

> <PUBCHEM_OPENEYE_ISO_SMILES>
COC1=CC=CC=C1N2CCN(CC2)CCCCOC3=CC4=C(C=NN4C=C3)/C=N/O

> <PUBCHEM_CACTVS_TPSA>
74.8

> <PUBCHEM_MONOISOTOPIC_WEIGHT>
423.22703980

> <PUBCHEM_TOTAL_CHARGE>
0

> <PUBCHEM_HEAVY_ATOM_COUNT>
31

> <PUBCHEM_ATOM_DEF_STEREO_COUNT>
0

> <PUBCHEM_ATOM_UDEF_STEREO_COUNT>
0

> <PUBCHEM_BOND_DEF_STEREO_COUNT>
1

> <PUBCHEM_BOND_UDEF_STEREO_COUNT>
0

> <PUBCHEM_ISOTOPIC_ATOM_COUNT>
0

> <PUBCHEM_COMPONENT_COUNT>
1

> <PUBCHEM_CACTVS_TAUTO_COUNT>
-1

> <PUBCHEM_COORDINATE_TYPE>
1
5
255

> <PUBCHEM_BONDANNOTATIONS>
15  17  8
15  19  8
17  20  8
19  21  8
20  22  8
21  22  8
23  24  8
23  27  8
24  25  8
25  29  8
27  28  8
29  30  8
6  25  8
6  28  8
6  7  8
7  30  8

$$$$
