155521675
  -OEChem-09292322402D

 54 57  0     1  0  0  0  0  0999 V2000
   12.6370   -0.3385    0.0000 S   0  0  0  0  0  0  0  0  0  0  0  0
    3.9913    1.4118    0.0000 O   0  0  0  0  0  0  0  0  0  0  0  0
    6.9999   -0.3053    0.0000 N   0  0  0  0  0  0  0  0  0  0  0  0
    9.5042   -1.1588    0.0000 N   0  0  3  0  0  0  0  0  0  0  0  0
    5.0000   -0.3153    0.0000 N   0  0  0  0  0  0  0  0  0  0  0  0
   12.6451   -1.9479    0.0000 N   0  0  0  0  0  0  0  0  0  0  0  0
    7.9999   -0.3003    0.0000 C   0  0  0  0  0  0  0  0  0  0  0  0
    6.4956    0.5582    0.0000 C   0  0  0  0  0  0  0  0  0  0  0  0
    6.5043   -1.1738    0.0000 C   0  0  0  0  0  0  0  0  0  0  0  0
    8.5042   -1.1638    0.0000 C   0  0  0  0  0  0  0  0  0  0  0  0
    5.4956    0.5532    0.0000 C   0  0  0  0  0  0  0  0  0  0  0  0
    5.5043   -1.1788    0.0000 C   0  0  0  0  0  0  0  0  0  0  0  0
    9.9336   -0.2557    0.0000 C   0  0  0  0  0  0  0  0  0  0  0  0
    9.9426   -2.0576    0.0000 C   0  0  0  0  0  0  0  0  0  0  0  0
   10.9074   -0.0283    0.0000 C   0  0  0  0  0  0  0  0  0  0  0  0
   10.9186   -2.2753    0.0000 C   0  0  0  0  0  0  0  0  0  0  0  0
    4.0000   -0.3203    0.0000 C   0  0  0  0  0  0  0  0  0  0  0  0
   11.6923   -0.6479    0.0000 C   0  0  0  0  0  0  0  0  0  0  0  0
   11.6973   -1.6479    0.0000 C   0  0  0  0  0  0  0  0  0  0  0  0
    3.4957    0.5433    0.0000 C   0  0  0  0  0  0  0  0  0  0  0  0
    3.5043   -1.1888    0.0000 C   0  0  0  0  0  0  0  0  0  0  0  0
   13.2247   -1.1403    0.0000 C   0  0  0  0  0  0  0  0  0  0  0  0
    2.4957    0.5383    0.0000 C   0  0  0  0  0  0  0  0  0  0  0  0
    2.5043   -1.1938    0.0000 C   0  0  0  0  0  0  0  0  0  0  0  0
    2.0000   -0.3302    0.0000 C   0  0  0  0  0  0  0  0  0  0  0  0
    3.4870    2.2753    0.0000 C   0  0  0  0  0  0  0  0  0  0  0  0
    8.5815   -0.0854    0.0000 H   0  0  0  0  0  0  0  0  0  0  0  0
    7.8892    0.3097    0.0000 H   0  0  0  0  0  0  0  0  0  0  0  0
    7.0772    0.7732    0.0000 H   0  0  0  0  0  0  0  0  0  0  0  0
    6.3849    1.1683    0.0000 H   0  0  0  0  0  0  0  0  0  0  0  0
    6.3996   -1.7849    0.0000 H   0  0  0  0  0  0  0  0  0  0  0  0
    7.0879   -1.3829    0.0000 H   0  0  0  0  0  0  0  0  0  0  0  0
    7.9227   -1.3788    0.0000 H   0  0  0  0  0  0  0  0  0  0  0  0
    8.6149   -1.7739    0.0000 H   0  0  0  0  0  0  0  0  0  0  0  0
    5.6002    1.1644    0.0000 H   0  0  0  0  0  0  0  0  0  0  0  0
    4.9120    0.7624    0.0000 H   0  0  0  0  0  0  0  0  0  0  0  0
    4.9227   -1.3938    0.0000 H   0  0  0  0  0  0  0  0  0  0  0  0
    5.6150   -1.7888    0.0000 H   0  0  0  0  0  0  0  0  0  0  0  0
    9.9305    0.3643    0.0000 H   0  0  0  0  0  0  0  0  0  0  0  0
    9.3285   -0.1208    0.0000 H   0  0  0  0  0  0  0  0  0  0  0  0
    9.3388   -2.1986    0.0000 H   0  0  0  0  0  0  0  0  0  0  0  0
    9.9457   -2.6776    0.0000 H   0  0  0  0  0  0  0  0  0  0  0  0
   11.3902    0.3606    0.0000 H   0  0  0  0  0  0  0  0  0  0  0  0
   10.6356    0.5289    0.0000 H   0  0  0  0  0  0  0  0  0  0  0  0
   10.6524   -2.8352    0.0000 H   0  0  0  0  0  0  0  0  0  0  0  0
   11.4053   -2.6594    0.0000 H   0  0  0  0  0  0  0  0  0  0  0  0
    3.8170   -1.7242    0.0000 H   0  0  0  0  0  0  0  0  0  0  0  0
   13.8446   -1.1372    0.0000 H   0  0  0  0  0  0  0  0  0  0  0  0
    2.1830    1.0737    0.0000 H   0  0  0  0  0  0  0  0  0  0  0  0
    2.1970   -1.7322    0.0000 H   0  0  0  0  0  0  0  0  0  0  0  0
    1.3800   -0.3333    0.0000 H   0  0  0  0  0  0  0  0  0  0  0  0
    4.0224    2.5880    0.0000 H   0  0  0  0  0  0  0  0  0  0  0  0
    3.1744    2.8107    0.0000 H   0  0  0  0  0  0  0  0  0  0  0  0
    2.9516    1.9626    0.0000 H   0  0  0  0  0  0  0  0  0  0  0  0
  1 18  1  0  0  0  0
  1 22  1  0  0  0  0
  2 20  1  0  0  0  0
  2 26  1  0  0  0  0
  3  7  1  0  0  0  0
  3  8  1  0  0  0  0
  3  9  1  0  0  0  0
  4 10  1  0  0  0  0
  4 13  1  0  0  0  0
  4 14  1  0  0  0  0
  5 11  1  0  0  0  0
  5 12  1  0  0  0  0
  5 17  1  0  0  0  0
  6 19  1  0  0  0  0
  6 22  2  0  0  0  0
  7 10  1  0  0  0  0
  7 27  1  0  0  0  0
  7 28  1  0  0  0  0
  8 11  1  0  0  0  0
  8 29  1  0  0  0  0
  8 30  1  0  0  0  0
  9 12  1  0  0  0  0
  9 31  1  0  0  0  0
  9 32  1  0  0  0  0
 10 33  1  0  0  0  0
 10 34  1  0  0  0  0
 11 35  1  0  0  0  0
 11 36  1  0  0  0  0
 12 37  1  0  0  0  0
 12 38  1  0  0  0  0
 13 15  1  0  0  0  0
 13 39  1  0  0  0  0
 13 40  1  0  0  0  0
 14 16  1  0  0  0  0
 14 41  1  0  0  0  0
 14 42  1  0  0  0  0
 15 18  1  0  0  0  0
 15 43  1  0  0  0  0
 15 44  1  0  0  0  0
 16 19  1  0  0  0  0
 16 45  1  0  0  0  0
 16 46  1  0  0  0  0
 17 20  1  0  0  0  0
 17 21  2  0  0  0  0
 18 19  2  0  0  0  0
 20 23  2  0  0  0  0
 21 24  1  0  0  0  0
 21 47  1  0  0  0  0
 22 48  1  0  0  0  0
 23 25  1  0  0  0  0
 23 49  1  0  0  0  0
 24 25  2  0  0  0  0
 24 50  1  0  0  0  0
 25 51  1  0  0  0  0
 26 52  1  0  0  0  0
 26 53  1  0  0  0  0
 26 54  1  0  0  0  0
M  END
> <PUBCHEM_COMPOUND_CID>
155521675

> <PUBCHEM_COMPOUND_CANONICALIZED>
1

> <PUBCHEM_CACTVS_COMPLEXITY>
432

> <PUBCHEM_CACTVS_HBOND_ACCEPTOR>
6

> <PUBCHEM_CACTVS_HBOND_DONOR>
0

> <PUBCHEM_CACTVS_ROTATABLE_BOND>
5

> <PUBCHEM_CACTVS_SUBSKEYS>
AAADceB7oABAAAAAAAAAAAAAAAAAAWAAAAA8QAAABYAAAACxwAAAHgQAAAAACAzB1ga2x5MIFAikASRjRACC+KBxKjgI2BQ/bIgOZiLk8ZuVMChkwBHY6AeQQAAAAAAAAAAAEAAAAAAAAAAgAAAAAAAAAA==

> <PUBCHEM_IUPAC_OPENEYE_NAME>
6-[2-[4-(2-methoxyphenyl)piperazin-1-yl]ethyl]-4,5,7,8-tetrahydrothiazolo[4,5-d]azepine

> <PUBCHEM_IUPAC_CAS_NAME>
6-[2-[4-(2-methoxyphenyl)-1-piperazinyl]ethyl]-4,5,7,8-tetrahydrothiazolo[4,5-d]azepine

> <PUBCHEM_IUPAC_NAME_MARKUP>
6-[2-[4-(2-methoxyphenyl)piperazin-1-yl]ethyl]-4,5,7,8-tetrahydro-[1,3]thiazolo[4,5-d]azepine

> <PUBCHEM_IUPAC_NAME>
6-[2-[4-(2-methoxyphenyl)piperazin-1-yl]ethyl]-4,5,7,8-tetrahydro-[1,3]thiazolo[4,5-d]azepine

> <PUBCHEM_IUPAC_SYSTEMATIC_NAME>
6-[2-[4-(2-methoxyphenyl)piperazin-1-yl]ethyl]-4,5,7,8-tetrahydro-[1,3]thiazolo[4,5-d]azepine

> <PUBCHEM_IUPAC_TRADITIONAL_NAME>
6-[2-[4-(2-methoxyphenyl)piperazino]ethyl]-4,5,7,8-tetrahydrothiazol[4,5-d]azepine

> <PUBCHEM_IUPAC_INCHI>
InChI=1S/C20H28N4OS/c1-25-19-5-3-2-4-18(19)24-14-12-23(13-15-24)11-10-22-8-6-17-20(7-9-22)26-16-21-17/h2-5,16H,6-15H2,1H3

> <PUBCHEM_IUPAC_INCHIKEY>
MKGANIZVJZGXEI-UHFFFAOYSA-N

> <PUBCHEM_XLOGP3_AA>
3

> <PUBCHEM_EXACT_MASS>
372.19838270

> <PUBCHEM_MOLECULAR_FORMULA>
C20H28N4OS

> <PUBCHEM_MOLECULAR_WEIGHT>
372.5

> <PUBCHEM_OPENEYE_CAN_SMILES>
COC1=CC=CC=C1N2CCN(CC2)CCN3CCC4=C(CC3)SC=N4

> <PUBCHEM_OPENEYE_ISO_SMILES>
COC1=CC=CC=C1N2CCN(CC2)CCN3CCC4=C(CC3)SC=N4

> <PUBCHEM_CACTVS_TPSA>
60.1

> <PUBCHEM_MONOISOTOPIC_WEIGHT>
372.19838270

> <PUBCHEM_TOTAL_CHARGE>
0

> <PUBCHEM_HEAVY_ATOM_COUNT>
26

> <PUBCHEM_ATOM_DEF_STEREO_COUNT>
0

> <PUBCHEM_ATOM_UDEF_STEREO_COUNT>
0

> <PUBCHEM_BOND_DEF_STEREO_COUNT>
0

> <PUBCHEM_BOND_UDEF_STEREO_COUNT>
0

> <PUBCHEM_ISOTOPIC_ATOM_COUNT>
0

> <PUBCHEM_COMPONENT_COUNT>
1

> <PUBCHEM_CACTVS_TAUTO_COUNT>
-1

> <PUBCHEM_COORDINATE_TYPE>
1
5
255

> <PUBCHEM_BONDANNOTATIONS>
1  18  8
1  22  8
17  20  8
17  21  8
18  19  8
20  23  8
21  24  8
23  25  8
24  25  8
6  19  8
6  22  8

$$$$
