11747350
  -OEChem-09292322112D

 39 40  0     0  0  0  0  0  0999 V2000
    6.7619   -2.0972    0.0000 O   0  0  0  0  0  0  0  0  0  0  0  0
    6.7619   -0.3651    0.0000 O   0  0  0  0  0  0  0  0  0  0  0  0
    4.6783   -2.0359    0.0000 N   0  0  0  0  0  0  0  0  0  0  0  0
    4.6318    2.2189    0.0000 N   0  0  0  0  0  0  0  0  0  0  0  0
    4.6783   -0.4264    0.0000 C   0  0  0  0  0  0  0  0  0  0  0  0
    4.9889    0.5241    0.0000 C   0  0  0  0  0  0  0  0  0  0  0  0
    3.7320   -0.7312    0.0000 C   0  0  0  0  0  0  0  0  0  0  0  0
    4.3211    1.2684    0.0000 C   0  0  0  0  0  0  0  0  0  0  0  0
    5.2619   -1.2312    0.0000 C   0  0  0  0  0  0  0  0  0  0  0  0
    3.7320   -1.7312    0.0000 C   0  0  0  0  0  0  0  0  0  0  0  0
    2.8660   -0.2312    0.0000 C   0  0  0  0  0  0  0  0  0  0  0  0
    2.8660   -2.2312    0.0000 C   0  0  0  0  0  0  0  0  0  0  0  0
    6.2619   -1.2312    0.0000 C   0  0  0  0  0  0  0  0  0  0  0  0
    2.0000   -0.7312    0.0000 C   0  0  0  0  0  0  0  0  0  0  0  0
    2.0000   -1.7312    0.0000 C   0  0  0  0  0  0  0  0  0  0  0  0
    3.9639    2.9632    0.0000 C   0  0  0  0  0  0  0  0  0  0  0  0
    5.6103    2.4251    0.0000 C   0  0  0  0  0  0  0  0  0  0  0  0
    7.7619   -2.0972    0.0000 C   0  0  0  0  0  0  0  0  0  0  0  0
    8.2619   -2.9632    0.0000 C   0  0  0  0  0  0  0  0  0  0  0  0
    5.5359    0.2321    0.0000 H   0  0  0  0  0  0  0  0  0  0  0  0
    5.3715    1.0120    0.0000 H   0  0  0  0  0  0  0  0  0  0  0  0
    3.7742    1.5604    0.0000 H   0  0  0  0  0  0  0  0  0  0  0  0
    3.9385    0.7805    0.0000 H   0  0  0  0  0  0  0  0  0  0  0  0
    4.8709   -2.6252    0.0000 H   0  0  0  0  0  0  0  0  0  0  0  0
    2.8660    0.3888    0.0000 H   0  0  0  0  0  0  0  0  0  0  0  0
    2.8660   -2.8512    0.0000 H   0  0  0  0  0  0  0  0  0  0  0  0
    1.4631   -0.4212    0.0000 H   0  0  0  0  0  0  0  0  0  0  0  0
    1.4631   -2.0412    0.0000 H   0  0  0  0  0  0  0  0  0  0  0  0
    4.4254    3.3773    0.0000 H   0  0  0  0  0  0  0  0  0  0  0  0
    3.5498    3.4247    0.0000 H   0  0  0  0  0  0  0  0  0  0  0  0
    3.5024    2.5492    0.0000 H   0  0  0  0  0  0  0  0  0  0  0  0
    5.7381    1.8185    0.0000 H   0  0  0  0  0  0  0  0  0  0  0  0
    6.2169    2.5530    0.0000 H   0  0  0  0  0  0  0  0  0  0  0  0
    5.4824    3.0318    0.0000 H   0  0  0  0  0  0  0  0  0  0  0  0
    8.3445   -1.8851    0.0000 H   0  0  0  0  0  0  0  0  0  0  0  0
    7.6542   -1.4866    0.0000 H   0  0  0  0  0  0  0  0  0  0  0  0
    7.7249   -3.2732    0.0000 H   0  0  0  0  0  0  0  0  0  0  0  0
    8.5719   -3.5002    0.0000 H   0  0  0  0  0  0  0  0  0  0  0  0
    8.7988   -2.6532    0.0000 H   0  0  0  0  0  0  0  0  0  0  0  0
  1 13  1  0  0  0  0
  1 18  1  0  0  0  0
  2 13  2  0  0  0  0
  3  9  1  0  0  0  0
  3 10  1  0  0  0  0
  3 24  1  0  0  0  0
  4  8  1  0  0  0  0
  4 16  1  0  0  0  0
  4 17  1  0  0  0  0
  5  6  1  0  0  0  0
  5  7  1  0  0  0  0
  5  9  2  0  0  0  0
  6  8  1  0  0  0  0
  6 20  1  0  0  0  0
  6 21  1  0  0  0  0
  7 10  1  0  0  0  0
  7 11  2  0  0  0  0
  8 22  1  0  0  0  0
  8 23  1  0  0  0  0
  9 13  1  0  0  0  0
 10 12  2  0  0  0  0
 11 14  1  0  0  0  0
 11 25  1  0  0  0  0
 12 15  1  0  0  0  0
 12 26  1  0  0  0  0
 14 15  2  0  0  0  0
 14 27  1  0  0  0  0
 15 28  1  0  0  0  0
 16 29  1  0  0  0  0
 16 30  1  0  0  0  0
 16 31  1  0  0  0  0
 17 32  1  0  0  0  0
 17 33  1  0  0  0  0
 17 34  1  0  0  0  0
 18 19  1  0  0  0  0
 18 35  1  0  0  0  0
 18 36  1  0  0  0  0
 19 37  1  0  0  0  0
 19 38  1  0  0  0  0
 19 39  1  0  0  0  0
M  END
> <PUBCHEM_COMPOUND_CID>
11747350

> <PUBCHEM_COMPOUND_CANONICALIZED>
1

> <PUBCHEM_CACTVS_COMPLEXITY>
307

> <PUBCHEM_CACTVS_HBOND_ACCEPTOR>
3

> <PUBCHEM_CACTVS_HBOND_DONOR>
1

> <PUBCHEM_CACTVS_ROTATABLE_BOND>
6

> <PUBCHEM_CACTVS_SUBSKEYS>
AAADceBzMAAAAAAAAAAAAAAAAAAAAWAAAAAwAAAAAAAAAFgB8AAAHgAQAAAADAjhngYyyPPJlACoAyTyTASCgCAnAiAImSG4bNgKJvLAtbmHMQhk0AHY6QeY2eOegAAAAAACAAAAAAAAAAQAAAAAAAAAAA==

> <PUBCHEM_IUPAC_OPENEYE_NAME>
ethyl 3-[2-(dimethylamino)ethyl]-1H-indole-2-carboxylate

> <PUBCHEM_IUPAC_CAS_NAME>
3-[2-(dimethylamino)ethyl]-1H-indole-2-carboxylic acid ethyl ester

> <PUBCHEM_IUPAC_NAME_MARKUP>
ethyl 3-[2-(dimethylamino)ethyl]-1<I>H</I>-indole-2-carboxylate

> <PUBCHEM_IUPAC_NAME>
ethyl 3-[2-(dimethylamino)ethyl]-1H-indole-2-carboxylate

> <PUBCHEM_IUPAC_SYSTEMATIC_NAME>
ethyl 3-[2-(dimethylamino)ethyl]-1H-indole-2-carboxylate

> <PUBCHEM_IUPAC_TRADITIONAL_NAME>
3-[2-(dimethylamino)ethyl]-1H-indole-2-carboxylic acid ethyl ester

> <PUBCHEM_IUPAC_INCHI>
InChI=1S/C15H20N2O2/c1-4-19-15(18)14-12(9-10-17(2)3)11-7-5-6-8-13(11)16-14/h5-8,16H,4,9-10H2,1-3H3

> <PUBCHEM_IUPAC_INCHIKEY>
DHMRDBMKJIHQOM-UHFFFAOYSA-N

> <PUBCHEM_XLOGP3_AA>
2.9

> <PUBCHEM_EXACT_MASS>
260.152477885

> <PUBCHEM_MOLECULAR_FORMULA>
C15H20N2O2

> <PUBCHEM_MOLECULAR_WEIGHT>
260.33

> <PUBCHEM_OPENEYE_CAN_SMILES>
CCOC(=O)C1=C(C2=CC=CC=C2N1)CCN(C)C

> <PUBCHEM_OPENEYE_ISO_SMILES>
CCOC(=O)C1=C(C2=CC=CC=C2N1)CCN(C)C

> <PUBCHEM_CACTVS_TPSA>
45.3

> <PUBCHEM_MONOISOTOPIC_WEIGHT>
260.152477885

> <PUBCHEM_TOTAL_CHARGE>
0

> <PUBCHEM_HEAVY_ATOM_COUNT>
19

> <PUBCHEM_ATOM_DEF_STEREO_COUNT>
0

> <PUBCHEM_ATOM_UDEF_STEREO_COUNT>
0

> <PUBCHEM_BOND_DEF_STEREO_COUNT>
0

> <PUBCHEM_BOND_UDEF_STEREO_COUNT>
0

> <PUBCHEM_ISOTOPIC_ATOM_COUNT>
0

> <PUBCHEM_COMPONENT_COUNT>
1

> <PUBCHEM_CACTVS_TAUTO_COUNT>
-1

> <PUBCHEM_COORDINATE_TYPE>
1
5
255

> <PUBCHEM_BONDANNOTATIONS>
10  12  8
11  14  8
12  15  8
14  15  8
3  10  8
3  9  8
5  7  8
5  9  8
7  10  8
7  11  8

$$$$
