145959257
  -OEChem-09292322382D

 77 80  0     1  0  0  0  0  0999 V2000
   11.2342    6.9598    0.0000 Cl  0  0  0  0  0  0  0  0  0  0  0  0
    3.2656    7.9443    0.0000 O   0  0  0  0  0  0  0  0  0  0  0  0
    3.1285    4.2279    0.0000 O   0  0  0  0  0  0  0  0  0  0  0  0
    2.0407    7.5758    0.0000 O   0  0  0  0  0  0  0  0  0  0  0  0
    1.5407    1.0369    0.0000 O   0  0  0  0  0  0  0  0  0  0  0  0
    5.1677    8.5623    0.0000 N   0  0  0  0  0  0  0  0  0  0  0  0
    5.5835   10.5186    0.0000 N   0  0  0  0  0  0  0  0  0  0  0  0
    2.8497    5.9880    0.0000 N   0  0  0  0  0  0  0  0  0  0  0  0
    1.2317    5.9880    0.0000 N   0  0  0  0  0  0  0  0  0  0  0  0
    6.1187    8.8713    0.0000 C   0  0  0  0  0  0  0  0  0  0  0  0
    4.4245    9.2314    0.0000 C   0  0  0  0  0  0  0  0  0  0  0  0
    6.3266    9.8495    0.0000 C   0  0  0  0  0  0  0  0  0  0  0  0
    4.6324   10.2096    0.0000 C   0  0  0  0  0  0  0  0  0  0  0  0
    4.9598    7.5842    0.0000 C   0  0  0  0  0  0  0  0  0  0  0  0
    5.7914   11.4968    0.0000 C   0  0  0  0  0  0  0  0  0  0  0  0
    4.0087    7.2752    0.0000 C   0  0  3  0  0  0  0  0  0  0  0  0
    3.8008    6.2970    0.0000 C   0  0  0  0  0  0  0  0  0  0  0  0
    1.5407    5.0369    0.0000 C   0  0  3  0  0  0  0  0  0  0  0  0
    6.7425   11.8058    0.0000 C   0  0  0  0  0  0  0  0  0  0  0  0
    5.0482   12.1659    0.0000 C   0  0  0  0  0  0  0  0  0  0  0  0
    2.5407    5.0369    0.0000 C   0  0  0  0  0  0  0  0  0  0  0  0
    2.0407    6.5758    0.0000 C   0  0  0  0  0  0  0  0  0  0  0  0
    1.5407    4.0369    0.0000 C   0  0  0  0  0  0  0  0  0  0  0  0
    0.5897    4.7279    0.0000 C   0  0  0  0  0  0  0  0  0  0  0  0
    6.9504   12.7839    0.0000 C   0  0  0  0  0  0  0  0  0  0  0  0
    4.0972   11.8569    0.0000 C   0  0  0  0  0  0  0  0  0  0  0  0
    7.4856   11.1367    0.0000 C   0  0  0  0  0  0  0  0  0  0  0  0
    5.2562   13.1440    0.0000 C   0  0  0  0  0  0  0  0  0  0  0  0
    0.6747    3.5369    0.0000 C   0  0  0  0  0  0  0  0  0  0  0  0
    2.4067    3.5369    0.0000 C   0  0  0  0  0  0  0  0  0  0  0  0
    7.9014   13.0929    0.0000 C   0  0  0  0  0  0  0  0  0  0  0  0
    3.3540   12.5260    0.0000 C   0  0  0  0  0  0  0  0  0  0  0  0
    8.4367   11.4457    0.0000 C   0  0  0  0  0  0  0  0  0  0  0  0
    4.5130   13.8132    0.0000 C   0  0  0  0  0  0  0  0  0  0  0  0
    8.6446   12.4238    0.0000 C   0  0  0  0  0  0  0  0  0  0  0  0
    3.5620   13.5042    0.0000 C   0  0  0  0  0  0  0  0  0  0  0  0
    0.6747    2.5369    0.0000 C   0  0  0  0  0  0  0  0  0  0  0  0
    2.4067    2.5369    0.0000 C   0  0  0  0  0  0  0  0  0  0  0  0
    1.5407    2.0369    0.0000 C   0  0  0  0  0  0  0  0  0  0  0  0
    0.6747    0.5369    0.0000 C   0  0  0  0  0  0  0  0  0  0  0  0
    6.2050    8.2574    0.0000 H   0  0  0  0  0  0  0  0  0  0  0  0
    6.7383    8.8497    0.0000 H   0  0  0  0  0  0  0  0  0  0  0  0
    3.8497    9.4637    0.0000 H   0  0  0  0  0  0  0  0  0  0  0  0
    4.0960    8.7057    0.0000 H   0  0  0  0  0  0  0  0  0  0  0  0
    6.9015    9.6172    0.0000 H   0  0  0  0  0  0  0  0  0  0  0  0
    6.6552   10.3753    0.0000 H   0  0  0  0  0  0  0  0  0  0  0  0
    4.5461   10.8236    0.0000 H   0  0  0  0  0  0  0  0  0  0  0  0
    4.0128   10.2312    0.0000 H   0  0  0  0  0  0  0  0  0  0  0  0
    5.0460    6.9702    0.0000 H   0  0  0  0  0  0  0  0  0  0  0  0
    5.5794    7.5625    0.0000 H   0  0  0  0  0  0  0  0  0  0  0  0
    5.2018   11.3052    0.0000 H   0  0  0  0  0  0  0  0  0  0  0  0
    3.4190    7.0836    0.0000 H   0  0  0  0  0  0  0  0  0  0  0  0
    3.8871    5.6830    0.0000 H   0  0  0  0  0  0  0  0  0  0  0  0
    4.4204    6.2754    0.0000 H   0  0  0  0  0  0  0  0  0  0  0  0
    0.6420    6.1796    0.0000 H   0  0  0  0  0  0  0  0  0  0  0  0
    0.3981    5.3176    0.0000 H   0  0  0  0  0  0  0  0  0  0  0  0
    0.0000    4.5363    0.0000 H   0  0  0  0  0  0  0  0  0  0  0  0
    0.7812    4.1383    0.0000 H   0  0  0  0  0  0  0  0  0  0  0  0
    3.3945    8.5507    0.0000 H   0  0  0  0  0  0  0  0  0  0  0  0
    6.4896   13.1988    0.0000 H   0  0  0  0  0  0  0  0  0  0  0  0
    3.9683   11.2504    0.0000 H   0  0  0  0  0  0  0  0  0  0  0  0
    7.3567   10.5302    0.0000 H   0  0  0  0  0  0  0  0  0  0  0  0
    5.8458   13.3356    0.0000 H   0  0  0  0  0  0  0  0  0  0  0  0
    0.1378    3.8469    0.0000 H   0  0  0  0  0  0  0  0  0  0  0  0
    2.9437    3.8469    0.0000 H   0  0  0  0  0  0  0  0  0  0  0  0
    8.0303   13.6994    0.0000 H   0  0  0  0  0  0  0  0  0  0  0  0
    2.7644   12.3344    0.0000 H   0  0  0  0  0  0  0  0  0  0  0  0
    8.8974   11.0308    0.0000 H   0  0  0  0  0  0  0  0  0  0  0  0
    4.6419   14.4196    0.0000 H   0  0  0  0  0  0  0  0  0  0  0  0
    9.2342   12.6154    0.0000 H   0  0  0  0  0  0  0  0  0  0  0  0
    3.1012   13.9190    0.0000 H   0  0  0  0  0  0  0  0  0  0  0  0
    0.1378    2.2269    0.0000 H   0  0  0  0  0  0  0  0  0  0  0  0
    2.9437    2.2269    0.0000 H   0  0  0  0  0  0  0  0  0  0  0  0
    0.3647    1.0739    0.0000 H   0  0  0  0  0  0  0  0  0  0  0  0
    0.1378    0.2269    0.0000 H   0  0  0  0  0  0  0  0  0  0  0  0
    0.9847    0.0000    0.0000 H   0  0  0  0  0  0  0  0  0  0  0  0
   12.2342    6.9598    0.0000 H   0  0  0  0  0  0  0  0  0  0  0  0
  1 77  1  0  0  0  0
  2 16  1  0  0  0  0
  2 59  1  0  0  0  0
  3 21  2  0  0  0  0
  4 22  2  0  0  0  0
  5 39  1  0  0  0  0
  5 40  1  0  0  0  0
  6 10  1  0  0  0  0
  6 11  1  0  0  0  0
  6 14  1  0  0  0  0
  7 12  1  0  0  0  0
  7 13  1  0  0  0  0
  7 15  1  0  0  0  0
  8 17  1  0  0  0  0
  8 21  1  0  0  0  0
  8 22  1  0  0  0  0
  9 18  1  0  0  0  0
  9 22  1  0  0  0  0
  9 55  1  0  0  0  0
 10 12  1  0  0  0  0
 10 41  1  0  0  0  0
 10 42  1  0  0  0  0
 11 13  1  0  0  0  0
 11 43  1  0  0  0  0
 11 44  1  0  0  0  0
 12 45  1  0  0  0  0
 12 46  1  0  0  0  0
 13 47  1  0  0  0  0
 13 48  1  0  0  0  0
 14 16  1  0  0  0  0
 14 49  1  0  0  0  0
 14 50  1  0  0  0  0
 15 19  1  0  0  0  0
 15 20  1  0  0  0  0
 15 51  1  0  0  0  0
 16 17  1  0  0  0  0
 16 52  1  0  0  0  0
 17 53  1  0  0  0  0
 17 54  1  0  0  0  0
 18 21  1  0  0  0  0
 18 23  1  0  0  0  0
 18 24  1  0  0  0  0
 19 25  2  0  0  0  0
 19 27  1  0  0  0  0
 20 26  2  0  0  0  0
 20 28  1  0  0  0  0
 23 29  2  0  0  0  0
 23 30  1  0  0  0  0
 24 56  1  0  0  0  0
 24 57  1  0  0  0  0
 24 58  1  0  0  0  0
 25 31  1  0  0  0  0
 25 60  1  0  0  0  0
 26 32  1  0  0  0  0
 26 61  1  0  0  0  0
 27 33  2  0  0  0  0
 27 62  1  0  0  0  0
 28 34  2  0  0  0  0
 28 63  1  0  0  0  0
 29 37  1  0  0  0  0
 29 64  1  0  0  0  0
 30 38  2  0  0  0  0
 30 65  1  0  0  0  0
 31 35  2  0  0  0  0
 31 66  1  0  0  0  0
 32 36  2  0  0  0  0
 32 67  1  0  0  0  0
 33 35  1  0  0  0  0
 33 68  1  0  0  0  0
 34 36  1  0  0  0  0
 34 69  1  0  0  0  0
 35 70  1  0  0  0  0
 36 71  1  0  0  0  0
 37 39  2  0  0  0  0
 37 72  1  0  0  0  0
 38 39  1  0  0  0  0
 38 73  1  0  0  0  0
 40 74  1  0  0  0  0
 40 75  1  0  0  0  0
 40 76  1  0  0  0  0
M  END
> <PUBCHEM_COMPOUND_CID>
145959257

> <PUBCHEM_COMPOUND_CANONICALIZED>
1

> <PUBCHEM_CACTVS_COMPLEXITY>
795

> <PUBCHEM_CACTVS_HBOND_ACCEPTOR>
6

> <PUBCHEM_CACTVS_HBOND_DONOR>
3

> <PUBCHEM_CACTVS_ROTATABLE_BOND>
9

> <PUBCHEM_CACTVS_SUBSKEYS>
AAADcfB7uAAEAAAAAAAAAAAAAAAAAWAAAAA8YMEAAAAAAAABUAAAHgAQCAAADLzhmAYzBoPABgCIAiFSEACCCAAgIAAIiAGODIiOdjKE9TuUMChs1zOYqAeY2NOOoAAAAAAAAABAAAAAAAAAAAAAAAAAAA==

> <PUBCHEM_IUPAC_OPENEYE_NAME>
3-[3-(4-benzhydrylpiperazin-1-yl)-2-hydroxy-propyl]-5-(4-methoxyphenyl)-5-methyl-imidazolidine-2,4-dione;hydrochloride

> <PUBCHEM_IUPAC_CAS_NAME>
3-[3-[4-(diphenylmethyl)-1-piperazinyl]-2-hydroxypropyl]-5-(4-methoxyphenyl)-5-methylimidazolidine-2,4-dione;hydrochloride

> <PUBCHEM_IUPAC_NAME_MARKUP>
3-[3-(4-benzhydrylpiperazin-1-yl)-2-hydroxypropyl]-5-(4-methoxyphenyl)-5-methylimidazolidine-2,4-dione;hydrochloride

> <PUBCHEM_IUPAC_NAME>
3-[3-(4-benzhydrylpiperazin-1-yl)-2-hydroxypropyl]-5-(4-methoxyphenyl)-5-methylimidazolidine-2,4-dione;hydrochloride

> <PUBCHEM_IUPAC_SYSTEMATIC_NAME>
3-[3-[4-(diphenylmethyl)piperazin-1-yl]-2-oxidanyl-propyl]-5-(4-methoxyphenyl)-5-methyl-imidazolidine-2,4-dione;hydrochloride

> <PUBCHEM_IUPAC_TRADITIONAL_NAME>
3-[3-(4-benzhydrylpiperazino)-2-hydroxy-propyl]-5-(4-methoxyphenyl)-5-methyl-hydantoin;hydrochloride

> <PUBCHEM_IUPAC_INCHI>
InChI=1S/C31H36N4O4.ClH/c1-31(25-13-15-27(39-2)16-14-25)29(37)35(30(38)32-31)22-26(36)21-33-17-19-34(20-18-33)28(23-9-5-3-6-10-23)24-11-7-4-8-12-24;/h3-16,26,28,36H,17-22H2,1-2H3,(H,32,38);1H

> <PUBCHEM_IUPAC_INCHIKEY>
MALSJBCWTXGIHN-UHFFFAOYSA-N

> <PUBCHEM_EXACT_MASS>
564.2503334

> <PUBCHEM_MOLECULAR_FORMULA>
C31H37ClN4O4

> <PUBCHEM_MOLECULAR_WEIGHT>
565.1

> <PUBCHEM_OPENEYE_CAN_SMILES>
CC1(C(=O)N(C(=O)N1)CC(CN2CCN(CC2)C(C3=CC=CC=C3)C4=CC=CC=C4)O)C5=CC=C(C=C5)OC.Cl

> <PUBCHEM_OPENEYE_ISO_SMILES>
CC1(C(=O)N(C(=O)N1)CC(CN2CCN(CC2)C(C3=CC=CC=C3)C4=CC=CC=C4)O)C5=CC=C(C=C5)OC.Cl

> <PUBCHEM_CACTVS_TPSA>
85.4

> <PUBCHEM_MONOISOTOPIC_WEIGHT>
564.2503334

> <PUBCHEM_TOTAL_CHARGE>
0

> <PUBCHEM_HEAVY_ATOM_COUNT>
40

> <PUBCHEM_ATOM_DEF_STEREO_COUNT>
0

> <PUBCHEM_ATOM_UDEF_STEREO_COUNT>
2

> <PUBCHEM_BOND_DEF_STEREO_COUNT>
0

> <PUBCHEM_BOND_UDEF_STEREO_COUNT>
0

> <PUBCHEM_ISOTOPIC_ATOM_COUNT>
0

> <PUBCHEM_COMPONENT_COUNT>
2

> <PUBCHEM_CACTVS_TAUTO_COUNT>
-1

> <PUBCHEM_COORDINATE_TYPE>
1
5
255

> <PUBCHEM_BONDANNOTATIONS>
18  24  3
19  25  8
19  27  8
16  2  3
20  26  8
20  28  8
23  29  8
23  30  8
25  31  8
26  32  8
27  33  8
28  34  8
29  37  8
30  38  8
31  35  8
32  36  8
33  35  8
34  36  8
37  39  8
38  39  8

$$$$
