148837359
  -OEChem-09292322452D

 62 66  0     1  0  0  0  0  0999 V2000
    3.6092   -2.8479    0.0000 S   0  0  0  0  0  0  0  0  0  0  0  0
   11.7413    3.7026    0.0000 O   0  0  0  0  0  0  0  0  0  0  0  0
    5.2024   -1.9344    0.0000 O   0  0  0  0  0  0  0  0  0  0  0  0
   10.7024    0.6637    0.0000 N   0  0  3  0  0  0  0  0  0  0  0  0
   11.4323    2.7515    0.0000 N   0  0  0  0  0  0  0  0  0  0  0  0
    5.2024   -0.2023    0.0000 N   0  0  0  0  0  0  0  0  0  0  0  0
    2.0000   -3.0170    0.0000 N   0  0  0  0  0  0  0  0  0  0  0  0
   12.2413    1.1637    0.0000 C   0  0  3  0  0  0  0  0  0  0  0  0
   12.2413    0.1637    0.0000 C   0  0  3  0  0  0  0  0  0  0  0  0
   13.1078    0.6637    0.0000 C   0  0  0  0  0  0  0  0  0  0  0  0
   11.2902    1.4727    0.0000 C   0  0  0  0  0  0  0  0  0  0  0  0
   11.2902   -0.1453    0.0000 C   0  0  0  0  0  0  0  0  0  0  0  0
   12.2413    2.1637    0.0000 C   0  0  0  0  0  0  0  0  0  0  0  0
    9.7024    0.6637    0.0000 C   0  0  0  0  0  0  0  0  0  0  0  0
    9.2024   -0.2023    0.0000 C   0  0  0  0  0  0  0  0  0  0  0  0
   13.0503    2.7515    0.0000 C   0  0  0  0  0  0  0  0  0  0  0  0
    8.2024   -0.2023    0.0000 C   0  0  0  0  0  0  0  0  0  0  0  0
   12.7413    3.7026    0.0000 C   0  0  0  0  0  0  0  0  0  0  0  0
    7.7024   -1.0683    0.0000 C   0  0  0  0  0  0  0  0  0  0  0  0
    7.7024    0.6637    0.0000 C   0  0  0  0  0  0  0  0  0  0  0  0
    6.7024   -1.0683    0.0000 C   0  0  0  0  0  0  0  0  0  0  0  0
    6.7024    0.6637    0.0000 C   0  0  0  0  0  0  0  0  0  0  0  0
    6.2024   -0.2023    0.0000 C   0  0  0  0  0  0  0  0  0  0  0  0
   13.3291    4.5116    0.0000 C   0  0  0  0  0  0  0  0  0  0  0  0
    4.7024   -1.0683    0.0000 C   0  0  0  0  0  0  0  0  0  0  0  0
    3.7024   -1.0683    0.0000 C   0  0  0  0  0  0  0  0  0  0  0  0
    3.2024   -1.9344    0.0000 C   0  0  0  0  0  0  0  0  0  0  0  0
    2.2079   -2.0389    0.0000 C   0  0  0  0  0  0  0  0  0  0  0  0
    2.8660   -3.5170    0.0000 C   0  0  0  0  0  0  0  0  0  0  0  0
    2.9705   -4.5116    0.0000 C   0  0  0  0  0  0  0  0  0  0  0  0
   12.4934   -0.4027    0.0000 H   0  0  0  0  0  0  0  0  0  0  0  0
   13.5063    0.1887    0.0000 H   0  0  0  0  0  0  0  0  0  0  0  0
   13.5063    1.1387    0.0000 H   0  0  0  0  0  0  0  0  0  0  0  0
   11.5424    2.0391    0.0000 H   0  0  0  0  0  0  0  0  0  0  0  0
   10.7533    1.7827    0.0000 H   0  0  0  0  0  0  0  0  0  0  0  0
   10.7533   -0.4553    0.0000 H   0  0  0  0  0  0  0  0  0  0  0  0
   11.5424   -0.7117    0.0000 H   0  0  0  0  0  0  0  0  0  0  0  0
    9.8101    1.2743    0.0000 H   0  0  0  0  0  0  0  0  0  0  0  0
    9.1198    0.8758    0.0000 H   0  0  0  0  0  0  0  0  0  0  0  0
    9.0948   -0.8129    0.0000 H   0  0  0  0  0  0  0  0  0  0  0  0
    9.7850   -0.4144    0.0000 H   0  0  0  0  0  0  0  0  0  0  0  0
   13.6399    2.5599    0.0000 H   0  0  0  0  0  0  0  0  0  0  0  0
    8.5124    0.3346    0.0000 H   0  0  0  0  0  0  0  0  0  0  0  0
    7.5948   -1.6789    0.0000 H   0  0  0  0  0  0  0  0  0  0  0  0
    8.2850   -1.2804    0.0000 H   0  0  0  0  0  0  0  0  0  0  0  0
    8.2850    0.8758    0.0000 H   0  0  0  0  0  0  0  0  0  0  0  0
    7.5948    1.2743    0.0000 H   0  0  0  0  0  0  0  0  0  0  0  0
    6.1198   -1.2804    0.0000 H   0  0  0  0  0  0  0  0  0  0  0  0
    6.8101   -1.6789    0.0000 H   0  0  0  0  0  0  0  0  0  0  0  0
    6.8101    1.2743    0.0000 H   0  0  0  0  0  0  0  0  0  0  0  0
    6.1198    0.8758    0.0000 H   0  0  0  0  0  0  0  0  0  0  0  0
    5.8924    0.3346    0.0000 H   0  0  0  0  0  0  0  0  0  0  0  0
   13.8307    4.1471    0.0000 H   0  0  0  0  0  0  0  0  0  0  0  0
   13.6935    5.0132    0.0000 H   0  0  0  0  0  0  0  0  0  0  0  0
   12.8275    4.8760    0.0000 H   0  0  0  0  0  0  0  0  0  0  0  0
    4.8924    0.3346    0.0000 H   0  0  0  0  0  0  0  0  0  0  0  0
    3.8101   -0.4578    0.0000 H   0  0  0  0  0  0  0  0  0  0  0  0
    3.1198   -0.8563    0.0000 H   0  0  0  0  0  0  0  0  0  0  0  0
    1.7930   -1.5782    0.0000 H   0  0  0  0  0  0  0  0  0  0  0  0
    2.3540   -4.5764    0.0000 H   0  0  0  0  0  0  0  0  0  0  0  0
    3.0354   -5.1282    0.0000 H   0  0  0  0  0  0  0  0  0  0  0  0
    3.5872   -4.4468    0.0000 H   0  0  0  0  0  0  0  0  0  0  0  0
  1 27  1  0  0  0  0
  1 29  1  0  0  0  0
  2  5  1  0  0  0  0
  2 18  1  0  0  0  0
  3 25  2  0  0  0  0
  4 11  1  0  0  0  0
  4 12  1  0  0  0  0
  4 14  1  0  0  0  0
  5 13  2  0  0  0  0
  6 23  1  0  0  0  0
  6 25  1  0  0  0  0
  6 56  1  0  0  0  0
  7 28  1  0  0  0  0
  7 29  2  0  0  0  0
  8  9  1  0  0  0  0
  8 10  1  0  0  0  0
  8 11  1  0  0  0  0
  8 13  1  0  0  0  0
  9 10  1  0  0  0  0
  9 12  1  0  0  0  0
  9 31  1  0  0  0  0
 10 32  1  0  0  0  0
 10 33  1  0  0  0  0
 11 34  1  0  0  0  0
 11 35  1  0  0  0  0
 12 36  1  0  0  0  0
 12 37  1  0  0  0  0
 13 16  1  0  0  0  0
 14 15  1  0  0  0  0
 14 38  1  0  0  0  0
 14 39  1  0  0  0  0
 15 17  1  0  0  0  0
 15 40  1  0  0  0  0
 15 41  1  0  0  0  0
 16 18  2  0  0  0  0
 16 42  1  0  0  0  0
 17 19  1  0  0  0  0
 17 20  1  0  0  0  0
 17 43  1  0  0  0  0
 18 24  1  0  0  0  0
 19 21  1  0  0  0  0
 19 44  1  0  0  0  0
 19 45  1  0  0  0  0
 20 22  1  0  0  0  0
 20 46  1  0  0  0  0
 20 47  1  0  0  0  0
 21 23  1  0  0  0  0
 21 48  1  0  0  0  0
 21 49  1  0  0  0  0
 22 23  1  0  0  0  0
 22 50  1  0  0  0  0
 22 51  1  0  0  0  0
 23 52  1  0  0  0  0
 24 53  1  0  0  0  0
 24 54  1  0  0  0  0
 24 55  1  0  0  0  0
 25 26  1  0  0  0  0
 26 27  1  0  0  0  0
 26 57  1  0  0  0  0
 26 58  1  0  0  0  0
 27 28  2  0  0  0  0
 28 59  1  0  0  0  0
 29 30  1  0  0  0  0
 30 60  1  0  0  0  0
 30 61  1  0  0  0  0
 30 62  1  0  0  0  0
M  END
> <PUBCHEM_COMPOUND_CID>
148837359

> <PUBCHEM_COMPOUND_CANONICALIZED>
1

> <PUBCHEM_CACTVS_COMPLEXITY>
628

> <PUBCHEM_CACTVS_HBOND_ACCEPTOR>
6

> <PUBCHEM_CACTVS_HBOND_DONOR>
1

> <PUBCHEM_CACTVS_ROTATABLE_BOND>
7

> <PUBCHEM_CACTVS_SUBSKEYS>
AAADcfB7sABAAAAAAAAAAAAAGAAAAWLFgAA8QAAAAAAAAAAB4AAAHgQUAAAADyzB1gQ+hZPYEAitAbV3VgCA8KB1KjhgWK0+bFoAJhpg1ZOEEYBmlhjoSUOc2fKPgAAAAAAAAAAQAAAAAAAAAAAAAAAAAA==

> <PUBCHEM_IUPAC_OPENEYE_NAME>
N-[4-[2-[1-(5-methylisoxazol-3-yl)-3-azabicyclo[3.1.0]hexan-3-yl]ethyl]cyclohexyl]-2-(2-methylthiazol-5-yl)acetamide

> <PUBCHEM_IUPAC_CAS_NAME>
N-[4-[2-[1-(5-methyl-3-isoxazolyl)-3-azabicyclo[3.1.0]hexan-3-yl]ethyl]cyclohexyl]-2-(2-methyl-5-thiazolyl)acetamide

> <PUBCHEM_IUPAC_NAME_MARKUP>
<I>N</I>-[4-[2-[1-(5-methyl-1,2-oxazol-3-yl)-3-azabicyclo[3.1.0]hexan-3-yl]ethyl]cyclohexyl]-2-(2-methyl-1,3-thiazol-5-yl)acetamide

> <PUBCHEM_IUPAC_NAME>
N-[4-[2-[1-(5-methyl-1,2-oxazol-3-yl)-3-azabicyclo[3.1.0]hexan-3-yl]ethyl]cyclohexyl]-2-(2-methyl-1,3-thiazol-5-yl)acetamide

> <PUBCHEM_IUPAC_SYSTEMATIC_NAME>
N-[4-[2-[1-(5-methyl-1,2-oxazol-3-yl)-3-azabicyclo[3.1.0]hexan-3-yl]ethyl]cyclohexyl]-2-(2-methyl-1,3-thiazol-5-yl)ethanamide

> <PUBCHEM_IUPAC_TRADITIONAL_NAME>
N-[4-[2-[1-(5-methylisoxazol-3-yl)-3-azabicyclo[3.1.0]hexan-3-yl]ethyl]cyclohexyl]-2-(2-methylthiazol-5-yl)acetamide

> <PUBCHEM_IUPAC_INCHI>
InChI=1S/C23H32N4O2S/c1-15-9-21(26-29-15)23-11-18(23)13-27(14-23)8-7-17-3-5-19(6-4-17)25-22(28)10-20-12-24-16(2)30-20/h9,12,17-19H,3-8,10-11,13-14H2,1-2H3,(H,25,28)

> <PUBCHEM_IUPAC_INCHIKEY>
OUVXICREAQXBOE-UHFFFAOYSA-N

> <PUBCHEM_XLOGP3_AA>
3.3

> <PUBCHEM_EXACT_MASS>
428.22459745

> <PUBCHEM_MOLECULAR_FORMULA>
C23H32N4O2S

> <PUBCHEM_MOLECULAR_WEIGHT>
428.6

> <PUBCHEM_OPENEYE_CAN_SMILES>
CC1=CC(=NO1)C23CC2CN(C3)CCC4CCC(CC4)NC(=O)CC5=CN=C(S5)C

> <PUBCHEM_OPENEYE_ISO_SMILES>
CC1=CC(=NO1)C23CC2CN(C3)CCC4CCC(CC4)NC(=O)CC5=CN=C(S5)C

> <PUBCHEM_CACTVS_TPSA>
99.5

> <PUBCHEM_MONOISOTOPIC_WEIGHT>
428.22459745

> <PUBCHEM_TOTAL_CHARGE>
0

> <PUBCHEM_HEAVY_ATOM_COUNT>
30

> <PUBCHEM_ATOM_DEF_STEREO_COUNT>
0

> <PUBCHEM_ATOM_UDEF_STEREO_COUNT>
2

> <PUBCHEM_BOND_DEF_STEREO_COUNT>
0

> <PUBCHEM_BOND_UDEF_STEREO_COUNT>
0

> <PUBCHEM_ISOTOPIC_ATOM_COUNT>
0

> <PUBCHEM_COMPONENT_COUNT>
1

> <PUBCHEM_CACTVS_TAUTO_COUNT>
-1

> <PUBCHEM_COORDINATE_TYPE>
1
5
255

> <PUBCHEM_BONDANNOTATIONS>
1  27  8
1  29  8
13  16  8
16  18  8
2  18  8
2  5  8
27  28  8
5  13  8
7  28  8
7  29  8
8  13  3
9  10  3

$$$$
