11957618
  -OEChem-09292322032D

 44 46  0     0  0  0  0  0  0999 V2000
   10.3754    4.5928    0.0000 Cl  0  0  0  0  0  0  0  0  0  0  0  0
    4.6877    7.7184    0.0000 Cl  0  0  0  0  0  0  0  0  0  0  0  0
    4.5044    3.3555    0.0000 N   0  0  0  0  0  0  0  0  0  0  0  0
    6.4614    3.7680    0.0000 N   0  0  0  0  0  0  0  0  0  0  0  0
    3.2152    0.5893    0.0000 N   0  0  0  0  0  0  0  0  0  0  0  0
    1.4030    0.3941    0.0000 N   0  0  0  0  0  0  0  0  0  0  0  0
    4.8150    4.3060    0.0000 C   0  0  0  0  0  0  0  0  0  0  0  0
    5.1722    2.6112    0.0000 C   0  0  0  0  0  0  0  0  0  0  0  0
    5.7935    4.5123    0.0000 C   0  0  0  0  0  0  0  0  0  0  0  0
    6.1507    2.8174    0.0000 C   0  0  0  0  0  0  0  0  0  0  0  0
    3.5259    3.1493    0.0000 C   0  0  0  0  0  0  0  0  0  0  0  0
    3.2152    2.1988    0.0000 C   0  0  0  0  0  0  0  0  0  0  0  0
    7.4399    3.9742    0.0000 C   0  0  0  0  0  0  0  0  0  0  0  0
    2.2690    1.8940    0.0000 C   0  0  0  0  0  0  0  0  0  0  0  0
    3.7988    1.3940    0.0000 C   0  0  0  0  0  0  0  0  0  0  0  0
    2.2690    0.8941    0.0000 C   0  0  0  0  0  0  0  0  0  0  0  0
    7.7506    4.9247    0.0000 C   0  0  0  0  0  0  0  0  0  0  0  0
    8.1077    3.2299    0.0000 C   0  0  0  0  0  0  0  0  0  0  0  0
    1.4030    2.3940    0.0000 C   0  0  0  0  0  0  0  0  0  0  0  0
    8.7291    5.1309    0.0000 C   0  0  0  0  0  0  0  0  0  0  0  0
    9.0862    3.4361    0.0000 C   0  0  0  0  0  0  0  0  0  0  0  0
    9.3969    4.3866    0.0000 C   0  0  0  0  0  0  0  0  0  0  0  0
    0.5369    1.8940    0.0000 C   0  0  0  0  0  0  0  0  0  0  0  0
    0.5369    0.8941    0.0000 C   0  0  0  0  0  0  0  0  0  0  0  0
    4.7945    4.9257    0.0000 H   0  0  0  0  0  0  0  0  0  0  0  0
    4.2012    4.3934    0.0000 H   0  0  0  0  0  0  0  0  0  0  0  0
    4.6459    2.2836    0.0000 H   0  0  0  0  0  0  0  0  0  0  0  0
    5.4035    2.0360    0.0000 H   0  0  0  0  0  0  0  0  0  0  0  0
    6.3199    4.8399    0.0000 H   0  0  0  0  0  0  0  0  0  0  0  0
    5.5623    5.0875    0.0000 H   0  0  0  0  0  0  0  0  0  0  0  0
    6.1713    2.1978    0.0000 H   0  0  0  0  0  0  0  0  0  0  0  0
    6.7645    2.7301    0.0000 H   0  0  0  0  0  0  0  0  0  0  0  0
    3.5053    3.7690    0.0000 H   0  0  0  0  0  0  0  0  0  0  0  0
    2.9120    3.2367    0.0000 H   0  0  0  0  0  0  0  0  0  0  0  0
    4.4188    1.3940    0.0000 H   0  0  0  0  0  0  0  0  0  0  0  0
    7.3365    5.3862    0.0000 H   0  0  0  0  0  0  0  0  0  0  0  0
    7.9151    2.6406    0.0000 H   0  0  0  0  0  0  0  0  0  0  0  0
    3.4078    0.0000    0.0000 H   0  0  0  0  0  0  0  0  0  0  0  0
    1.4030    3.0140    0.0000 H   0  0  0  0  0  0  0  0  0  0  0  0
    8.9217    5.7202    0.0000 H   0  0  0  0  0  0  0  0  0  0  0  0
    9.5003    2.9746    0.0000 H   0  0  0  0  0  0  0  0  0  0  0  0
    0.0000    2.2040    0.0000 H   0  0  0  0  0  0  0  0  0  0  0  0
    0.0000    0.5841    0.0000 H   0  0  0  0  0  0  0  0  0  0  0  0
    5.6877    7.7184    0.0000 H   0  0  0  0  0  0  0  0  0  0  0  0
  1 22  1  0  0  0  0
  2 44  1  0  0  0  0
  3  7  1  0  0  0  0
  3  8  1  0  0  0  0
  3 11  1  0  0  0  0
  4  9  1  0  0  0  0
  4 10  1  0  0  0  0
  4 13  1  0  0  0  0
  5 15  1  0  0  0  0
  5 16  1  0  0  0  0
  5 38  1  0  0  0  0
  6 16  1  0  0  0  0
  6 24  2  0  0  0  0
  7  9  1  0  0  0  0
  7 25  1  0  0  0  0
  7 26  1  0  0  0  0
  8 10  1  0  0  0  0
  8 27  1  0  0  0  0
  8 28  1  0  0  0  0
  9 29  1  0  0  0  0
  9 30  1  0  0  0  0
 10 31  1  0  0  0  0
 10 32  1  0  0  0  0
 11 12  1  0  0  0  0
 11 33  1  0  0  0  0
 11 34  1  0  0  0  0
 12 14  1  0  0  0  0
 12 15  2  0  0  0  0
 13 17  2  0  0  0  0
 13 18  1  0  0  0  0
 14 16  2  0  0  0  0
 14 19  1  0  0  0  0
 15 35  1  0  0  0  0
 17 20  1  0  0  0  0
 17 36  1  0  0  0  0
 18 21  2  0  0  0  0
 18 37  1  0  0  0  0
 19 23  2  0  0  0  0
 19 39  1  0  0  0  0
 20 22  2  0  0  0  0
 20 40  1  0  0  0  0
 21 22  1  0  0  0  0
 21 41  1  0  0  0  0
 23 24  1  0  0  0  0
 23 42  1  0  0  0  0
 24 43  1  0  0  0  0
M  END
> <PUBCHEM_COMPOUND_CID>
11957618

> <PUBCHEM_COMPOUND_CANONICALIZED>
1

> <PUBCHEM_CACTVS_COMPLEXITY>
377

> <PUBCHEM_CACTVS_HBOND_ACCEPTOR>
3

> <PUBCHEM_CACTVS_HBOND_DONOR>
2

> <PUBCHEM_CACTVS_ROTATABLE_BOND>
3

> <PUBCHEM_CACTVS_SUBSKEYS>
AAADceB7gAAGAAAAAAAAAAAAAAAAAWAAAAA8WIAAAAAAAFgB/AAAHAIQAAAADArBGyQ98N/JkACgAjZnZACCgCmxB6AJ2aA4ZpiIaOLB25GUIAhogALIyCcQAAAOgABAAAAAAAAAAIAAAAAAAAAAAAAAAA==

> <PUBCHEM_IUPAC_OPENEYE_NAME>
3-[[4-(4-chlorophenyl)piperazin-1-yl]methyl]-1H-pyrrolo[2,3-b]pyridine;hydrochloride

> <PUBCHEM_IUPAC_CAS_NAME>
3-[[4-(4-chlorophenyl)-1-piperazinyl]methyl]-1H-pyrrolo[2,3-b]pyridine;hydrochloride

> <PUBCHEM_IUPAC_NAME_MARKUP>
3-[[4-(4-chlorophenyl)piperazin-1-yl]methyl]-1<I>H</I>-pyrrolo[2,3-b]pyridine;hydrochloride

> <PUBCHEM_IUPAC_NAME>
3-[[4-(4-chlorophenyl)piperazin-1-yl]methyl]-1H-pyrrolo[2,3-b]pyridine;hydrochloride

> <PUBCHEM_IUPAC_SYSTEMATIC_NAME>
3-[[4-(4-chlorophenyl)piperazin-1-yl]methyl]-1H-pyrrolo[2,3-b]pyridine;hydrochloride

> <PUBCHEM_IUPAC_TRADITIONAL_NAME>
3-[[4-(4-chlorophenyl)piperazino]methyl]-1H-pyrrolo[2,3-b]pyridine;hydrochloride

> <PUBCHEM_IUPAC_INCHI>
InChI=1S/C18H19ClN4.ClH/c19-15-3-5-16(6-4-15)23-10-8-22(9-11-23)13-14-12-21-18-17(14)2-1-7-20-18;/h1-7,12H,8-11,13H2,(H,20,21);1H

> <PUBCHEM_IUPAC_INCHIKEY>
GFFJYISJZJIKAF-UHFFFAOYSA-N

> <PUBCHEM_EXACT_MASS>
362.1065020

> <PUBCHEM_MOLECULAR_FORMULA>
C18H20Cl2N4

> <PUBCHEM_MOLECULAR_WEIGHT>
363.3

> <PUBCHEM_OPENEYE_CAN_SMILES>
C1CN(CCN1CC2=CNC3=C2C=CC=N3)C4=CC=C(C=C4)Cl.Cl

> <PUBCHEM_OPENEYE_ISO_SMILES>
C1CN(CCN1CC2=CNC3=C2C=CC=N3)C4=CC=C(C=C4)Cl.Cl

> <PUBCHEM_CACTVS_TPSA>
35.2

> <PUBCHEM_MONOISOTOPIC_WEIGHT>
362.1065020

> <PUBCHEM_TOTAL_CHARGE>
0

> <PUBCHEM_HEAVY_ATOM_COUNT>
24

> <PUBCHEM_ATOM_DEF_STEREO_COUNT>
0

> <PUBCHEM_ATOM_UDEF_STEREO_COUNT>
0

> <PUBCHEM_BOND_DEF_STEREO_COUNT>
0

> <PUBCHEM_BOND_UDEF_STEREO_COUNT>
0

> <PUBCHEM_ISOTOPIC_ATOM_COUNT>
0

> <PUBCHEM_COMPONENT_COUNT>
2

> <PUBCHEM_CACTVS_TAUTO_COUNT>
-1

> <PUBCHEM_COORDINATE_TYPE>
1
5
255

> <PUBCHEM_BONDANNOTATIONS>
12  14  8
12  15  8
13  17  8
13  18  8
14  16  8
14  19  8
17  20  8
18  21  8
19  23  8
20  22  8
21  22  8
23  24  8
5  15  8
5  16  8
6  16  8
6  24  8

$$$$
