46880586
  -OEChem-09292322092D

 90 93  0     1  0  0  0  0  0999 V2000
   16.7516   11.0369    0.0000 F   0  0  0  0  0  0  0  0  0  0  0  0
   16.7516   13.0369    0.0000 F   0  0  0  0  0  0  0  0  0  0  0  0
    9.8234   10.0369    0.0000 O   0  0  0  0  0  0  0  0  0  0  0  0
   13.2875    1.0369    0.0000 O   0  0  0  0  0  0  0  0  0  0  0  0
    4.8671    6.5785    0.0000 O   0  0  0  0  0  0  0  0  0  0  0  0
    0.5369    7.0785    0.0000 O   0  0  0  0  0  0  0  0  0  0  0  0
    4.0010    8.0785    0.0000 O   0  0  0  0  0  0  0  0  0  0  0  0
    1.4030    5.5785    0.0000 O   0  0  0  0  0  0  0  0  0  0  0  0
   11.5554    7.0369    0.0000 N   0  0  3  0  0  0  0  0  0  0  0  0
   11.5554   10.0369    0.0000 N   0  0  0  0  0  0  0  0  0  0  0  0
   13.2875   11.0369    0.0000 N   0  0  0  0  0  0  0  0  0  0  0  0
   12.4214    2.5369    0.0000 N   0  0  0  0  0  0  0  0  0  0  0  0
    9.8234    8.0369    0.0000 C   0  0  1  0  0  0  0  0  0  0  0  0
    9.8234    7.0369    0.0000 C   0  0  2  0  0  0  0  0  0  0  0  0
   10.6894    8.5369    0.0000 C   0  0  1  0  0  0  0  0  0  0  0  0
    8.9294    8.5716    0.0000 C   0  0  0  0  0  0  0  0  0  0  0  0
   10.6894    6.5369    0.0000 C   0  0  0  0  0  0  0  0  0  0  0  0
    8.9294    6.5023    0.0000 C   0  0  0  0  0  0  0  0  0  0  0  0
   11.5554    8.0369    0.0000 C   0  0  0  0  0  0  0  0  0  0  0  0
    8.0234    8.0578    0.0000 C   0  0  0  0  0  0  0  0  0  0  0  0
    8.0234    7.0161    0.0000 C   0  0  0  0  0  0  0  0  0  0  0  0
   10.6894    9.5369    0.0000 C   0  0  0  0  0  0  0  0  0  0  0  0
   12.4214    6.5369    0.0000 C   0  0  0  0  0  0  0  0  0  0  0  0
   12.4214    5.5369    0.0000 C   0  0  2  0  0  0  0  0  0  0  0  0
   11.5554   11.0369    0.0000 C   0  0  0  0  0  0  0  0  0  0  0  0
   12.4214    9.5369    0.0000 C   0  0  0  0  0  0  0  0  0  0  0  0
   13.2875    5.0369    0.0000 C   0  0  0  0  0  0  0  0  0  0  0  0
   11.5554    5.0369    0.0000 C   0  0  0  0  0  0  0  0  0  0  0  0
   12.4214   11.5369    0.0000 C   0  0  0  0  0  0  0  0  0  0  0  0
   13.2875   10.0369    0.0000 C   0  0  0  0  0  0  0  0  0  0  0  0
   13.2875    4.0369    0.0000 C   0  0  0  0  0  0  0  0  0  0  0  0
   14.1535   11.5369    0.0000 C   0  0  0  0  0  0  0  0  0  0  0  0
   14.1535    3.5369    0.0000 C   0  0  0  0  0  0  0  0  0  0  0  0
   12.4214    3.5369    0.0000 C   0  0  0  0  0  0  0  0  0  0  0  0
   15.0195   11.0369    0.0000 C   0  0  0  0  0  0  0  0  0  0  0  0
   14.1535   12.5369    0.0000 C   0  0  0  0  0  0  0  0  0  0  0  0
   14.1535    2.5369    0.0000 C   0  0  0  0  0  0  0  0  0  0  0  0
   15.8855   11.5369    0.0000 C   0  0  0  0  0  0  0  0  0  0  0  0
   15.0195   13.0369    0.0000 C   0  0  0  0  0  0  0  0  0  0  0  0
   13.2875    2.0369    0.0000 C   0  0  0  0  0  0  0  0  0  0  0  0
   15.8855   12.5369    0.0000 C   0  0  0  0  0  0  0  0  0  0  0  0
   14.1535    0.5369    0.0000 C   0  0  0  0  0  0  0  0  0  0  0  0
    3.1350    6.5785    0.0000 C   0  0  0  0  0  0  0  0  0  0  0  0
    2.2690    7.0785    0.0000 C   0  0  0  0  0  0  0  0  0  0  0  0
    4.0010    7.0785    0.0000 C   0  0  0  0  0  0  0  0  0  0  0  0
    1.4030    6.5785    0.0000 C   0  0  0  0  0  0  0  0  0  0  0  0
    9.8299    8.8869    0.0000 H   0  0  0  0  0  0  0  0  0  0  0  0
    9.8299    6.1870    0.0000 H   0  0  0  0  0  0  0  0  0  0  0  0
   11.2263    8.8469    0.0000 H   0  0  0  0  0  0  0  0  0  0  0  0
    9.3340    9.0414    0.0000 H   0  0  0  0  0  0  0  0  0  0  0  0
    8.5358    9.0506    0.0000 H   0  0  0  0  0  0  0  0  0  0  0  0
   10.2909    6.0620    0.0000 H   0  0  0  0  0  0  0  0  0  0  0  0
   11.0879    6.0620    0.0000 H   0  0  0  0  0  0  0  0  0  0  0  0
    8.5358    6.0233    0.0000 H   0  0  0  0  0  0  0  0  0  0  0  0
    9.3340    6.0325    0.0000 H   0  0  0  0  0  0  0  0  0  0  0  0
   12.1660    7.9293    0.0000 H   0  0  0  0  0  0  0  0  0  0  0  0
   11.7675    8.6195    0.0000 H   0  0  0  0  0  0  0  0  0  0  0  0
    7.8143    8.6414    0.0000 H   0  0  0  0  0  0  0  0  0  0  0  0
    7.4125    7.9517    0.0000 H   0  0  0  0  0  0  0  0  0  0  0  0
    7.4125    7.1222    0.0000 H   0  0  0  0  0  0  0  0  0  0  0  0
    7.8143    6.4324    0.0000 H   0  0  0  0  0  0  0  0  0  0  0  0
   13.0320    6.4293    0.0000 H   0  0  0  0  0  0  0  0  0  0  0  0
   12.6335    7.1195    0.0000 H   0  0  0  0  0  0  0  0  0  0  0  0
   12.4214    4.9169    0.0000 H   0  0  0  0  0  0  0  0  0  0  0  0
   11.3434   11.6195    0.0000 H   0  0  0  0  0  0  0  0  0  0  0  0
   10.9448   10.9293    0.0000 H   0  0  0  0  0  0  0  0  0  0  0  0
   12.0229    9.0620    0.0000 H   0  0  0  0  0  0  0  0  0  0  0  0
   12.8200    9.0620    0.0000 H   0  0  0  0  0  0  0  0  0  0  0  0
   13.8980    4.9293    0.0000 H   0  0  0  0  0  0  0  0  0  0  0  0
   13.4995    5.6195    0.0000 H   0  0  0  0  0  0  0  0  0  0  0  0
   11.2454    5.5739    0.0000 H   0  0  0  0  0  0  0  0  0  0  0  0
   11.0185    4.7269    0.0000 H   0  0  0  0  0  0  0  0  0  0  0  0
   11.8654    4.5000    0.0000 H   0  0  0  0  0  0  0  0  0  0  0  0
   12.8200   12.0119    0.0000 H   0  0  0  0  0  0  0  0  0  0  0  0
   12.0229   12.0119    0.0000 H   0  0  0  0  0  0  0  0  0  0  0  0
   13.4995    9.4543    0.0000 H   0  0  0  0  0  0  0  0  0  0  0  0
   13.8980   10.1446    0.0000 H   0  0  0  0  0  0  0  0  0  0  0  0
   14.6904    3.8469    0.0000 H   0  0  0  0  0  0  0  0  0  0  0  0
   11.8845    3.8469    0.0000 H   0  0  0  0  0  0  0  0  0  0  0  0
   15.0195   10.4169    0.0000 H   0  0  0  0  0  0  0  0  0  0  0  0
   13.6165   12.8469    0.0000 H   0  0  0  0  0  0  0  0  0  0  0  0
   14.6904    2.2269    0.0000 H   0  0  0  0  0  0  0  0  0  0  0  0
   15.0195   13.6569    0.0000 H   0  0  0  0  0  0  0  0  0  0  0  0
   13.8435    0.0000    0.0000 H   0  0  0  0  0  0  0  0  0  0  0  0
   14.6904    0.2269    0.0000 H   0  0  0  0  0  0  0  0  0  0  0  0
   14.4635    1.0739    0.0000 H   0  0  0  0  0  0  0  0  0  0  0  0
    3.1350    5.9585    0.0000 H   0  0  0  0  0  0  0  0  0  0  0  0
    2.2690    7.6985    0.0000 H   0  0  0  0  0  0  0  0  0  0  0  0
    5.4040    6.8885    0.0000 H   0  0  0  0  0  0  0  0  0  0  0  0
    0.0000    6.7685    0.0000 H   0  0  0  0  0  0  0  0  0  0  0  0
  1 38  1  0  0  0  0
  2 41  1  0  0  0  0
  3 22  2  0  0  0  0
  4 40  1  0  0  0  0
  4 42  1  0  0  0  0
  5 45  1  0  0  0  0
  5 89  1  0  0  0  0
  6 46  1  0  0  0  0
  6 90  1  0  0  0  0
  7 45  2  0  0  0  0
  8 46  2  0  0  0  0
  9 17  1  0  0  0  0
  9 19  1  0  0  0  0
  9 23  1  0  0  0  0
 10 22  1  0  0  0  0
 10 25  1  0  0  0  0
 10 26  1  0  0  0  0
 11 29  1  0  0  0  0
 11 30  1  0  0  0  0
 11 32  1  0  0  0  0
 12 34  1  0  0  0  0
 12 40  2  0  0  0  0
 13 14  1  0  0  0  0
 13 15  1  0  0  0  0
 13 16  1  0  0  0  0
 13 47  1  1  0  0  0
 14 17  1  0  0  0  0
 14 18  1  0  0  0  0
 14 48  1  1  0  0  0
 15 19  1  0  0  0  0
 15 22  1  6  0  0  0
 15 49  1  0  0  0  0
 16 20  1  0  0  0  0
 16 50  1  0  0  0  0
 16 51  1  0  0  0  0
 17 52  1  0  0  0  0
 17 53  1  0  0  0  0
 18 21  1  0  0  0  0
 18 54  1  0  0  0  0
 18 55  1  0  0  0  0
 19 56  1  0  0  0  0
 19 57  1  0  0  0  0
 20 21  1  0  0  0  0
 20 58  1  0  0  0  0
 20 59  1  0  0  0  0
 21 60  1  0  0  0  0
 21 61  1  0  0  0  0
 23 24  1  0  0  0  0
 23 62  1  0  0  0  0
 23 63  1  0  0  0  0
 24 27  1  0  0  0  0
 24 28  1  6  0  0  0
 24 64  1  0  0  0  0
 25 29  1  0  0  0  0
 25 65  1  0  0  0  0
 25 66  1  0  0  0  0
 26 30  1  0  0  0  0
 26 67  1  0  0  0  0
 26 68  1  0  0  0  0
 27 31  1  0  0  0  0
 27 69  1  0  0  0  0
 27 70  1  0  0  0  0
 28 71  1  0  0  0  0
 28 72  1  0  0  0  0
 28 73  1  0  0  0  0
 29 74  1  0  0  0  0
 29 75  1  0  0  0  0
 30 76  1  0  0  0  0
 30 77  1  0  0  0  0
 31 33  1  0  0  0  0
 31 34  2  0  0  0  0
 32 35  2  0  0  0  0
 32 36  1  0  0  0  0
 33 37  2  0  0  0  0
 33 78  1  0  0  0  0
 34 79  1  0  0  0  0
 35 38  1  0  0  0  0
 35 80  1  0  0  0  0
 36 39  2  0  0  0  0
 36 81  1  0  0  0  0
 37 40  1  0  0  0  0
 37 82  1  0  0  0  0
 38 41  2  0  0  0  0
 39 41  1  0  0  0  0
 39 83  1  0  0  0  0
 42 84  1  0  0  0  0
 42 85  1  0  0  0  0
 42 86  1  0  0  0  0
 43 44  2  0  0  0  0
 43 45  1  0  0  0  0
 43 87  1  0  0  0  0
 44 46  1  0  0  0  0
 44 88  1  0  0  0  0
M  END
> <PUBCHEM_COMPOUND_CID>
46880586

> <PUBCHEM_COMPOUND_CANONICALIZED>
1

> <PUBCHEM_CACTVS_COMPLEXITY>
886

> <PUBCHEM_CACTVS_HBOND_ACCEPTOR>
11

> <PUBCHEM_CACTVS_HBOND_DONOR>
2

> <PUBCHEM_CACTVS_ROTATABLE_BOND>
9

> <PUBCHEM_CACTVS_SUBSKEYS>
AAADcfB/uYAAAAAAAAAAAAAAAAAAAAAAAAA8eLECAAAAAACxwAAAHwAACAAADQjBmg4+zJMIFgCoAjX3XACCiCAxIiAI2CE+bNgMZvrE8ZuUMChkxhHI+YeY2eCOgAAAAAAAAAAAAAAAACAAAAAAAAAAAA==

> <PUBCHEM_IUPAC_OPENEYE_NAME>
[(4S,4aS,8aR)-2-[(2S)-3-(6-methoxy-3-pyridyl)-2-methyl-propyl]-3,4,4a,5,6,7,8,8a-octahydro-1H-isoquinolin-4-yl]-[4-(3,4-difluorophenyl)piperazin-1-yl]methanone;fumaric acid

> <PUBCHEM_IUPAC_CAS_NAME>
[(4S,4aS,8aR)-2-[(2S)-3-(6-methoxy-3-pyridinyl)-2-methylpropyl]-3,4,4a,5,6,7,8,8a-octahydro-1H-isoquinolin-4-yl]-[4-(3,4-difluorophenyl)-1-piperazinyl]methanone;(E)-2-butenedioic acid

> <PUBCHEM_IUPAC_NAME_MARKUP>
[(4<I>S</I>,4<I>a</I><I>S</I>,8<I>a</I><I>R</I>)-2-[(2<I>S</I>)-3-(6-methoxypyridin-3-yl)-2-methylpropyl]-3,4,4<I>a</I>,5,6,7,8,8<I>a</I>-octahydro-1<I>H</I>-isoquinolin-4-yl]-[4-(3,4-difluorophenyl)piperazin-1-yl]methanone;(<I>E</I>)-but-2-enedioic acid

> <PUBCHEM_IUPAC_NAME>
[(4S,4aS,8aR)-2-[(2S)-3-(6-methoxypyridin-3-yl)-2-methylpropyl]-3,4,4a,5,6,7,8,8a-octahydro-1H-isoquinolin-4-yl]-[4-(3,4-difluorophenyl)piperazin-1-yl]methanone;(E)-but-2-enedioic acid

> <PUBCHEM_IUPAC_SYSTEMATIC_NAME>
[(4S,4aS,8aR)-2-[(2S)-3-(6-methoxypyridin-3-yl)-2-methyl-propyl]-3,4,4a,5,6,7,8,8a-octahydro-1H-isoquinolin-4-yl]-[4-[3,4-bis(fluoranyl)phenyl]piperazin-1-yl]methanone;(E)-but-2-enedioic acid

> <PUBCHEM_IUPAC_TRADITIONAL_NAME>
[(4S,4aS,8aR)-2-[(2S)-3-(6-methoxy-3-pyridyl)-2-methyl-propyl]-3,4,4a,5,6,7,8,8a-octahydro-1H-isoquinolin-4-yl]-[4-(3,4-difluorophenyl)piperazino]methanone;fumaric acid

> <PUBCHEM_IUPAC_INCHI>
InChI=1S/C30H40F2N4O2.C4H4O4/c1-21(15-22-7-10-29(38-2)33-17-22)18-34-19-23-5-3-4-6-25(23)26(20-34)30(37)36-13-11-35(12-14-36)24-8-9-27(31)28(32)16-24;5-3(6)1-2-4(7)8/h7-10,16-17,21,23,25-26H,3-6,11-15,18-20H2,1-2H3;1-2H,(H,5,6)(H,7,8)/b;2-1+/t21-,23-,25-,26+;/m0./s1

> <PUBCHEM_IUPAC_INCHIKEY>
SCJCAKLZCWCCCO-HTCZGZADSA-N

> <PUBCHEM_EXACT_MASS>
642.32289146

> <PUBCHEM_MOLECULAR_FORMULA>
C34H44F2N4O6

> <PUBCHEM_MOLECULAR_WEIGHT>
642.7

> <PUBCHEM_OPENEYE_CAN_SMILES>
CC(CC1=CN=C(C=C1)OC)CN2CC3CCCCC3C(C2)C(=O)N4CCN(CC4)C5=CC(=C(C=C5)F)F.C(=CC(=O)O)C(=O)O

> <PUBCHEM_OPENEYE_ISO_SMILES>
C[C@@H](CC1=CN=C(C=C1)OC)CN2C[C@@H]3CCCC[C@@H]3[C@@H](C2)C(=O)N4CCN(CC4)C5=CC(=C(C=C5)F)F.C(=C/C(=O)O)\C(=O)O

> <PUBCHEM_CACTVS_TPSA>
124

> <PUBCHEM_MONOISOTOPIC_WEIGHT>
642.32289146

> <PUBCHEM_TOTAL_CHARGE>
0

> <PUBCHEM_HEAVY_ATOM_COUNT>
46

> <PUBCHEM_ATOM_DEF_STEREO_COUNT>
4

> <PUBCHEM_ATOM_UDEF_STEREO_COUNT>
0

> <PUBCHEM_BOND_DEF_STEREO_COUNT>
1

> <PUBCHEM_BOND_UDEF_STEREO_COUNT>
0

> <PUBCHEM_ISOTOPIC_ATOM_COUNT>
0

> <PUBCHEM_COMPONENT_COUNT>
2

> <PUBCHEM_CACTVS_TAUTO_COUNT>
-1

> <PUBCHEM_COORDINATE_TYPE>
1
5
255

> <PUBCHEM_BONDANNOTATIONS>
12  34  8
12  40  8
13  47  5
14  48  5
15  22  6
24  28  6
31  33  8
31  34  8
32  35  8
32  36  8
33  37  8
35  38  8
36  39  8
37  40  8
38  41  8
39  41  8

$$$$
