45261780
  -OEChem-09292322132D

 51 53  0     1  0  0  0  0  0999 V2000
    4.8335    0.0000    0.0000 Cl  0  0  0  0  0  0  0  0  0  0  0  0
    7.4651    3.6393    0.0000 O   0  0  0  0  0  0  0  0  0  0  0  0
    4.0010    3.6393    0.0000 N   0  0  0  0  0  0  0  0  0  0  0  0
    5.7331    4.6393    0.0000 C   0  0  0  0  0  0  0  0  0  0  0  0
    6.5991    5.1393    0.0000 C   0  0  3  0  0  0  0  0  0  0  0  0
    5.7331    3.6393    0.0000 C   0  0  0  0  0  0  0  0  0  0  0  0
    4.8671    5.1393    0.0000 C   0  0  0  0  0  0  0  0  0  0  0  0
    4.8671    3.1393    0.0000 C   0  0  0  0  0  0  0  0  0  0  0  0
    4.0010    4.6393    0.0000 C   0  0  0  0  0  0  0  0  0  0  0  0
    6.5991    6.1393    0.0000 C   0  0  0  0  0  0  0  0  0  0  0  0
    7.4651    4.6393    0.0000 C   0  0  0  0  0  0  0  0  0  0  0  0
    7.4651    6.6393    0.0000 C   0  0  0  0  0  0  0  0  0  0  0  0
    8.3312    5.1393    0.0000 C   0  0  0  0  0  0  0  0  0  0  0  0
    8.3312    6.1393    0.0000 C   0  0  0  0  0  0  0  0  0  0  0  0
    3.1350    3.1393    0.0000 C   0  0  0  0  0  0  0  0  0  0  0  0
    9.2251    4.6046    0.0000 C   0  0  0  0  0  0  0  0  0  0  0  0
    2.2690    3.6393    0.0000 C   0  0  0  0  0  0  0  0  0  0  0  0
    9.2251    6.6739    0.0000 C   0  0  0  0  0  0  0  0  0  0  0  0
   10.1312    5.1185    0.0000 C   0  0  0  0  0  0  0  0  0  0  0  0
   10.1312    6.1601    0.0000 C   0  0  0  0  0  0  0  0  0  0  0  0
    1.4030    3.1393    0.0000 C   0  0  0  0  0  0  0  0  0  0  0  0
    2.2690    4.6393    0.0000 C   0  0  0  0  0  0  0  0  0  0  0  0
    0.5369    3.6393    0.0000 C   0  0  0  0  0  0  0  0  0  0  0  0
    1.4030    5.1393    0.0000 C   0  0  0  0  0  0  0  0  0  0  0  0
    0.5369    4.6393    0.0000 C   0  0  0  0  0  0  0  0  0  0  0  0
    6.2700    4.3293    0.0000 H   0  0  0  0  0  0  0  0  0  0  0  0
    6.0622    5.4493    0.0000 H   0  0  0  0  0  0  0  0  0  0  0  0
    5.9451    3.0567    0.0000 H   0  0  0  0  0  0  0  0  0  0  0  0
    6.3437    3.7469    0.0000 H   0  0  0  0  0  0  0  0  0  0  0  0
    5.2656    5.6142    0.0000 H   0  0  0  0  0  0  0  0  0  0  0  0
    4.4685    5.6142    0.0000 H   0  0  0  0  0  0  0  0  0  0  0  0
    4.4685    2.6643    0.0000 H   0  0  0  0  0  0  0  0  0  0  0  0
    5.2656    2.6643    0.0000 H   0  0  0  0  0  0  0  0  0  0  0  0
    3.7890    5.2219    0.0000 H   0  0  0  0  0  0  0  0  0  0  0  0
    3.3905    4.5316    0.0000 H   0  0  0  0  0  0  0  0  0  0  0  0
    6.3871    6.7219    0.0000 H   0  0  0  0  0  0  0  0  0  0  0  0
    5.9885    6.0316    0.0000 H   0  0  0  0  0  0  0  0  0  0  0  0
    7.8637    7.1142    0.0000 H   0  0  0  0  0  0  0  0  0  0  0  0
    7.0666    7.1142    0.0000 H   0  0  0  0  0  0  0  0  0  0  0  0
    2.7365    2.6643    0.0000 H   0  0  0  0  0  0  0  0  0  0  0  0
    3.5335    2.6643    0.0000 H   0  0  0  0  0  0  0  0  0  0  0  0
    9.2179    3.9846    0.0000 H   0  0  0  0  0  0  0  0  0  0  0  0
    9.2179    7.2939    0.0000 H   0  0  0  0  0  0  0  0  0  0  0  0
   10.6669    4.8064    0.0000 H   0  0  0  0  0  0  0  0  0  0  0  0
   10.6669    6.4722    0.0000 H   0  0  0  0  0  0  0  0  0  0  0  0
    1.4030    2.5193    0.0000 H   0  0  0  0  0  0  0  0  0  0  0  0
    2.8059    4.9493    0.0000 H   0  0  0  0  0  0  0  0  0  0  0  0
    0.0000    3.3293    0.0000 H   0  0  0  0  0  0  0  0  0  0  0  0
    1.4030    5.7593    0.0000 H   0  0  0  0  0  0  0  0  0  0  0  0
    0.0000    4.9493    0.0000 H   0  0  0  0  0  0  0  0  0  0  0  0
    5.8335    0.0000    0.0000 H   0  0  0  0  0  0  0  0  0  0  0  0
  1 51  1  0  0  0  0
  2 11  2  0  0  0  0
  3  8  1  0  0  0  0
  3  9  1  0  0  0  0
  3 15  1  0  0  0  0
  4  5  1  0  0  0  0
  4  6  1  0  0  0  0
  4  7  1  0  0  0  0
  4 26  1  0  0  0  0
  5 10  1  0  0  0  0
  5 11  1  0  0  0  0
  5 27  1  0  0  0  0
  6  8  1  0  0  0  0
  6 28  1  0  0  0  0
  6 29  1  0  0  0  0
  7  9  1  0  0  0  0
  7 30  1  0  0  0  0
  7 31  1  0  0  0  0
  8 32  1  0  0  0  0
  8 33  1  0  0  0  0
  9 34  1  0  0  0  0
  9 35  1  0  0  0  0
 10 12  1  0  0  0  0
 10 36  1  0  0  0  0
 10 37  1  0  0  0  0
 11 13  1  0  0  0  0
 12 14  1  0  0  0  0
 12 38  1  0  0  0  0
 12 39  1  0  0  0  0
 13 14  1  0  0  0  0
 13 16  2  0  0  0  0
 14 18  2  0  0  0  0
 15 17  1  0  0  0  0
 15 40  1  0  0  0  0
 15 41  1  0  0  0  0
 16 19  1  0  0  0  0
 16 42  1  0  0  0  0
 17 21  2  0  0  0  0
 17 22  1  0  0  0  0
 18 20  1  0  0  0  0
 18 43  1  0  0  0  0
 19 20  2  0  0  0  0
 19 44  1  0  0  0  0
 20 45  1  0  0  0  0
 21 23  1  0  0  0  0
 21 46  1  0  0  0  0
 22 24  2  0  0  0  0
 22 47  1  0  0  0  0
 23 25  2  0  0  0  0
 23 48  1  0  0  0  0
 24 25  1  0  0  0  0
 24 49  1  0  0  0  0
 25 50  1  0  0  0  0
M  END
> <PUBCHEM_COMPOUND_CID>
45261780

> <PUBCHEM_COMPOUND_CANONICALIZED>
1

> <PUBCHEM_CACTVS_COMPLEXITY>
420

> <PUBCHEM_CACTVS_HBOND_ACCEPTOR>
2

> <PUBCHEM_CACTVS_HBOND_DONOR>
1

> <PUBCHEM_CACTVS_ROTATABLE_BOND>
3

> <PUBCHEM_CACTVS_SUBSKEYS>
AAADceB6IAAEAAAAAAAAAAAAAAAAAAAAAAA8YMEAAAAAAADBQAAAHgAAAAAADQTBmAQwAIMAAACIAqBSAACCAAAkAAAIiAEIBMgIIDKAlRGEIQhggACIiYcYicCOgAAAAAAQAACAAAQAACAAAAAAAAAAAA==

> <PUBCHEM_IUPAC_OPENEYE_NAME>
2-(1-benzyl-4-piperidyl)tetralin-1-one;hydrochloride

> <PUBCHEM_IUPAC_CAS_NAME>
2-[1-(phenylmethyl)-4-piperidinyl]-3,4-dihydro-2H-naphthalen-1-one;hydrochloride

> <PUBCHEM_IUPAC_NAME_MARKUP>
2-(1-benzylpiperidin-4-yl)-3,4-dihydro-2<I>H</I>-naphthalen-1-one;hydrochloride

> <PUBCHEM_IUPAC_NAME>
2-(1-benzylpiperidin-4-yl)-3,4-dihydro-2H-naphthalen-1-one;hydrochloride

> <PUBCHEM_IUPAC_SYSTEMATIC_NAME>
2-[1-(phenylmethyl)piperidin-4-yl]-3,4-dihydro-2H-naphthalen-1-one;hydrochloride

> <PUBCHEM_IUPAC_TRADITIONAL_NAME>
2-(1-benzyl-4-piperidyl)tetralin-1-one;hydrochloride

> <PUBCHEM_IUPAC_INCHI>
InChI=1S/C22H25NO.ClH/c24-22-20-9-5-4-8-18(20)10-11-21(22)19-12-14-23(15-13-19)16-17-6-2-1-3-7-17;/h1-9,19,21H,10-16H2;1H

> <PUBCHEM_IUPAC_INCHIKEY>
GOSNUXJNHPZKLG-UHFFFAOYSA-N

> <PUBCHEM_EXACT_MASS>
355.1702921

> <PUBCHEM_MOLECULAR_FORMULA>
C22H26ClNO

> <PUBCHEM_MOLECULAR_WEIGHT>
355.9

> <PUBCHEM_OPENEYE_CAN_SMILES>
C1CC2=CC=CC=C2C(=O)C1C3CCN(CC3)CC4=CC=CC=C4.Cl

> <PUBCHEM_OPENEYE_ISO_SMILES>
C1CC2=CC=CC=C2C(=O)C1C3CCN(CC3)CC4=CC=CC=C4.Cl

> <PUBCHEM_CACTVS_TPSA>
20.3

> <PUBCHEM_MONOISOTOPIC_WEIGHT>
355.1702921

> <PUBCHEM_TOTAL_CHARGE>
0

> <PUBCHEM_HEAVY_ATOM_COUNT>
25

> <PUBCHEM_ATOM_DEF_STEREO_COUNT>
0

> <PUBCHEM_ATOM_UDEF_STEREO_COUNT>
1

> <PUBCHEM_BOND_DEF_STEREO_COUNT>
0

> <PUBCHEM_BOND_UDEF_STEREO_COUNT>
0

> <PUBCHEM_ISOTOPIC_ATOM_COUNT>
0

> <PUBCHEM_COMPONENT_COUNT>
2

> <PUBCHEM_CACTVS_TAUTO_COUNT>
-1

> <PUBCHEM_COORDINATE_TYPE>
1
5
255

> <PUBCHEM_BONDANNOTATIONS>
13  14  8
13  16  8
14  18  8
16  19  8
17  21  8
17  22  8
18  20  8
19  20  8
21  23  8
22  24  8
23  25  8
24  25  8
5  4  3

$$$$
