136216703
  -OEChem-09292322222D

 66 72  0     1  0  0  0  0  0999 V2000
    6.9088    2.0000    0.0000 O   0  0  0  0  0  0  0  0  0  0  0  0
    2.5405   -0.4969    0.0000 O   0  0  0  0  0  0  0  0  0  0  0  0
    5.1928    2.0415    0.0000 N   0  0  0  0  0  0  0  0  0  0  0  0
    3.4007    1.0068    0.0000 N   0  0  0  0  0  0  0  0  0  0  0  0
    7.7748    0.5000    0.0000 N   0  0  0  0  0  0  0  0  0  0  0  0
    9.5068   -0.5000    0.0000 N   0  0  0  0  0  0  0  0  0  0  0  0
    6.9022   -0.9948    0.0000 N   0  0  0  0  0  0  0  0  0  0  0  0
    6.0699   -2.5043    0.0000 N   0  0  0  0  0  0  0  0  0  0  0  0
    4.2947    2.5693    0.0000 C   0  0  1  0  0  0  0  0  0  0  0  0
    3.3926    2.0484    0.0000 C   0  0  1  0  0  0  0  0  0  0  0  0
    4.3114    3.6541    0.0000 C   0  0  0  0  0  0  0  0  0  0  0  0
    2.4448    2.5764    0.0000 C   0  0  0  0  0  0  0  0  0  0  0  0
    3.3760    4.2038    0.0000 C   0  0  0  0  0  0  0  0  0  0  0  0
    2.4364    3.6614    0.0000 C   0  0  0  0  0  0  0  0  0  0  0  0
    8.6408    1.0000    0.0000 C   0  0  2  0  0  0  0  0  0  0  0  0
    9.5068    0.5000    0.0000 C   0  0  2  0  0  0  0  0  0  0  0  0
    5.1767    1.0000    0.0000 C   0  0  0  0  0  0  0  0  0  0  0  0
    8.6408    2.0000    0.0000 C   0  0  0  0  0  0  0  0  0  0  0  0
    4.3107    0.5000    0.0000 C   0  0  0  0  0  0  0  0  0  0  0  0
   10.3728    1.0000    0.0000 C   0  0  0  0  0  0  0  0  0  0  0  0
    9.5068    2.5000    0.0000 C   0  0  0  0  0  0  0  0  0  0  0  0
   10.3728    2.0000    0.0000 C   0  0  0  0  0  0  0  0  0  0  0  0
    6.0427    0.5000    0.0000 C   0  0  0  0  0  0  0  0  0  0  0  0
    4.3107   -0.5000    0.0000 C   0  0  0  0  0  0  0  0  0  0  0  0
    5.1767   -1.0000    0.0000 C   0  0  0  0  0  0  0  0  0  0  0  0
    6.0427   -0.5000    0.0000 C   0  0  0  0  0  0  0  0  0  0  0  0
    6.9088    1.0000    0.0000 C   0  0  0  0  0  0  0  0  0  0  0  0
    3.4007   -1.0068    0.0000 C   0  0  0  0  0  0  0  0  0  0  0  0
    5.1928   -2.0415    0.0000 C   0  0  0  0  0  0  0  0  0  0  0  0
    3.3926   -2.0484    0.0000 C   0  0  0  0  0  0  0  0  0  0  0  0
    4.2947   -2.5693    0.0000 C   0  0  0  0  0  0  0  0  0  0  0  0
    6.9156   -1.9864    0.0000 C   0  0  0  0  0  0  0  0  0  0  0  0
    2.4448   -2.5764    0.0000 C   0  0  0  0  0  0  0  0  0  0  0  0
    4.3114   -3.6541    0.0000 C   0  0  0  0  0  0  0  0  0  0  0  0
    2.4364   -3.6614    0.0000 C   0  0  0  0  0  0  0  0  0  0  0  0
    3.3760   -4.2038    0.0000 C   0  0  0  0  0  0  0  0  0  0  0  0
    5.0357    2.9857    0.0000 H   0  0  0  0  0  0  0  0  0  0  0  0
    2.6615    1.6150    0.0000 H   0  0  0  0  0  0  0  0  0  0  0  0
    4.9206    3.5386    0.0000 H   0  0  0  0  0  0  0  0  0  0  0  0
    4.5295    4.2345    0.0000 H   0  0  0  0  0  0  0  0  0  0  0  0
    1.8331    2.6778    0.0000 H   0  0  0  0  0  0  0  0  0  0  0  0
    2.2402    1.9911    0.0000 H   0  0  0  0  0  0  0  0  0  0  0  0
    3.7770    4.6767    0.0000 H   0  0  0  0  0  0  0  0  0  0  0  0
    2.9787    4.6798    0.0000 H   0  0  0  0  0  0  0  0  0  0  0  0
    2.2228    4.2434    0.0000 H   0  0  0  0  0  0  0  0  0  0  0  0
    1.8264    3.5506    0.0000 H   0  0  0  0  0  0  0  0  0  0  0  0
    8.1039    1.3100    0.0000 H   0  0  0  0  0  0  0  0  0  0  0  0
    5.7332    2.3453    0.0000 H   0  0  0  0  0  0  0  0  0  0  0  0
    8.9699    0.1900    0.0000 H   0  0  0  0  0  0  0  0  0  0  0  0
    8.4288    2.5826    0.0000 H   0  0  0  0  0  0  0  0  0  0  0  0
    8.0302    1.8923    0.0000 H   0  0  0  0  0  0  0  0  0  0  0  0
   10.5849    0.4174    0.0000 H   0  0  0  0  0  0  0  0  0  0  0  0
   10.9834    1.1077    0.0000 H   0  0  0  0  0  0  0  0  0  0  0  0
    9.9054    2.9750    0.0000 H   0  0  0  0  0  0  0  0  0  0  0  0
    9.1083    2.9750    0.0000 H   0  0  0  0  0  0  0  0  0  0  0  0
   10.9834    1.8923    0.0000 H   0  0  0  0  0  0  0  0  0  0  0  0
   10.5849    2.5826    0.0000 H   0  0  0  0  0  0  0  0  0  0  0  0
    7.7748   -0.1200    0.0000 H   0  0  0  0  0  0  0  0  0  0  0  0
   10.0438   -0.8100    0.0000 H   0  0  0  0  0  0  0  0  0  0  0  0
    8.9699   -0.8100    0.0000 H   0  0  0  0  0  0  0  0  0  0  0  0
    7.4586   -2.2858    0.0000 H   0  0  0  0  0  0  0  0  0  0  0  0
    1.9114   -2.2602    0.0000 H   0  0  0  0  0  0  0  0  0  0  0  0
    4.8519   -3.9579    0.0000 H   0  0  0  0  0  0  0  0  0  0  0  0
    2.0000   -0.8006    0.0000 H   0  0  0  0  0  0  0  0  0  0  0  0
    1.8983   -3.9693    0.0000 H   0  0  0  0  0  0  0  0  0  0  0  0
    3.3784   -4.8238    0.0000 H   0  0  0  0  0  0  0  0  0  0  0  0
  1 27  2  0  0  0  0
  2 28  1  0  0  0  0
  2 64  1  0  0  0  0
  3  9  1  0  0  0  0
  3 17  1  0  0  0  0
  3 48  1  0  0  0  0
  4 10  1  0  0  0  0
  4 19  2  0  0  0  0
 15  5  1  1  0  0  0
  5 27  1  0  0  0  0
  5 58  1  0  0  0  0
 16  6  1  6  0  0  0
  6 59  1  0  0  0  0
  6 60  1  0  0  0  0
  7 26  2  0  0  0  0
  7 32  1  0  0  0  0
  8 29  1  0  0  0  0
  8 32  2  0  0  0  0
  9 10  1  0  0  0  0
  9 11  1  0  0  0  0
  9 37  1  6  0  0  0
 10 12  1  0  0  0  0
 10 38  1  1  0  0  0
 11 13  1  0  0  0  0
 11 39  1  0  0  0  0
 11 40  1  0  0  0  0
 12 14  1  0  0  0  0
 12 41  1  0  0  0  0
 12 42  1  0  0  0  0
 13 14  1  0  0  0  0
 13 43  1  0  0  0  0
 13 44  1  0  0  0  0
 14 45  1  0  0  0  0
 14 46  1  0  0  0  0
 15 16  1  0  0  0  0
 15 18  1  0  0  0  0
 15 47  1  0  0  0  0
 16 20  1  0  0  0  0
 16 49  1  0  0  0  0
 17 19  1  0  0  0  0
 17 23  2  0  0  0  0
 18 21  1  0  0  0  0
 18 50  1  0  0  0  0
 18 51  1  0  0  0  0
 19 24  1  0  0  0  0
 20 22  1  0  0  0  0
 20 52  1  0  0  0  0
 20 53  1  0  0  0  0
 21 22  1  0  0  0  0
 21 54  1  0  0  0  0
 21 55  1  0  0  0  0
 22 56  1  0  0  0  0
 22 57  1  0  0  0  0
 23 26  1  0  0  0  0
 23 27  1  0  0  0  0
 24 25  1  0  0  0  0
 24 28  2  0  0  0  0
 25 26  1  0  0  0  0
 25 29  2  0  0  0  0
 28 30  1  0  0  0  0
 29 31  1  0  0  0  0
 30 31  1  0  0  0  0
 30 33  2  0  0  0  0
 31 34  2  0  0  0  0
 32 61  1  0  0  0  0
 33 35  1  0  0  0  0
 33 62  1  0  0  0  0
 34 36  1  0  0  0  0
 34 63  1  0  0  0  0
 35 36  2  0  0  0  0
 35 65  1  0  0  0  0
 36 66  1  0  0  0  0
M  END
> <PUBCHEM_COMPOUND_CID>
136216703

> <PUBCHEM_COMPOUND_CANONICALIZED>
1

> <PUBCHEM_CACTVS_COMPLEXITY>
950

> <PUBCHEM_CACTVS_HBOND_ACCEPTOR>
7

> <PUBCHEM_CACTVS_HBOND_DONOR>
4

> <PUBCHEM_CACTVS_ROTATABLE_BOND>
2

> <PUBCHEM_CACTVS_SUBSKEYS>
AAADceB7sAAAAAAAAAAAAAAAAAAAAAAAAAA8YMGCAAAAAADx9AAAHgAQCAAADCzBngQ11vbIEgCoAyVzdACCgCkxIKAJ2KEsTNiIbrrC3dOUdAhs1hPI2We4yfCewEADQAAaAACAgAaAADQAQAAAAAAAAA==

> <PUBCHEM_IUPAC_OPENEYE_NAME>
(4R,9R)-N-[(1S,2S)-2-aminocyclohexyl]-24-hydroxy-3,10,14,16-tetrazahexacyclo[11.11.1.02,11.04,9.017,25.018,23]pentacosa-1(24),2,11,13,15,17(25),18,20,22-nonaene-12-carboxamide

> <PUBCHEM_IUPAC_CAS_NAME>
(4R,9R)-N-[(1S,2S)-2-aminocyclohexyl]-24-hydroxy-3,10,14,16-tetrazahexacyclo[11.11.1.02,11.04,9.017,25.018,23]pentacosa-1(24),2,11,13,15,17(25),18,20,22-nonaene-12-carboxamide

> <PUBCHEM_IUPAC_NAME_MARKUP>
(4<I>R</I>,9<I>R</I>)-<I>N</I>-[(1<I>S</I>,2<I>S</I>)-2-aminocyclohexyl]-24-hydroxy-3,10,14,16-tetrazahexacyclo[11.11.1.0<SUP>2,11</SUP>.0<SUP>4,9</SUP>.0<SUP>17,25</SUP>.0<SUP>18,23</SUP>]pentacosa-1(24),2,11,13,15,17(25),18,20,22-nonaene-12-carboxamide

> <PUBCHEM_IUPAC_NAME>
(4R,9R)-N-[(1S,2S)-2-aminocyclohexyl]-24-hydroxy-3,10,14,16-tetrazahexacyclo[11.11.1.02,11.04,9.017,25.018,23]pentacosa-1(24),2,11,13,15,17(25),18,20,22-nonaene-12-carboxamide

> <PUBCHEM_IUPAC_SYSTEMATIC_NAME>
(4R,9R)-N-[(1S,2S)-2-azanylcyclohexyl]-24-oxidanyl-3,10,14,16-tetrazahexacyclo[11.11.1.02,11.04,9.017,25.018,23]pentacosa-1(24),2,11,13,15,17(25),18,20,22-nonaene-12-carboxamide

> <PUBCHEM_IUPAC_TRADITIONAL_NAME>
(4R,9R)-N-[(1S,2S)-2-aminocyclohexyl]-24-hydroxy-3,10,14,16-tetrazahexacyclo[11.11.1.02,11.04,9.017,25.018,23]pentacosa-1(24),2,11,13,15,17(25),18,20,22-nonaene-12-carboxamide

> <PUBCHEM_IUPAC_INCHI>
InChI=1S/C28H30N6O2/c29-16-9-3-4-10-17(16)34-28(36)22-24-20-21(25-26(22)33-19-12-6-5-11-18(19)32-25)27(35)15-8-2-1-7-14(15)23(20)30-13-31-24/h1-2,7-8,13,16-19,33,35H,3-6,9-12,29H2,(H,34,36)/t16-,17-,18+,19+/m0/s1

> <PUBCHEM_IUPAC_INCHIKEY>
WZNQIZZZHGHTTJ-INDMIFKZSA-N

> <PUBCHEM_XLOGP3_AA>
3.1

> <PUBCHEM_EXACT_MASS>
482.24302422

> <PUBCHEM_MOLECULAR_FORMULA>
C28H30N6O2

> <PUBCHEM_MOLECULAR_WEIGHT>
482.6

> <PUBCHEM_OPENEYE_CAN_SMILES>
C1CCC(C(C1)N)NC(=O)C2=C3C(=NC4CCCCC4N3)C5=C(C6=CC=CC=C6C7=C5C2=NC=N7)O

> <PUBCHEM_OPENEYE_ISO_SMILES>
C1CC[C@@H]([C@H](C1)N)NC(=O)C2=C3C(=N[C@@H]4CCCC[C@H]4N3)C5=C(C6=CC=CC=C6C7=C5C2=NC=N7)O

> <PUBCHEM_CACTVS_TPSA>
126

> <PUBCHEM_MONOISOTOPIC_WEIGHT>
482.24302422

> <PUBCHEM_TOTAL_CHARGE>
0

> <PUBCHEM_HEAVY_ATOM_COUNT>
36

> <PUBCHEM_ATOM_DEF_STEREO_COUNT>
4

> <PUBCHEM_ATOM_UDEF_STEREO_COUNT>
0

> <PUBCHEM_BOND_DEF_STEREO_COUNT>
0

> <PUBCHEM_BOND_UDEF_STEREO_COUNT>
0

> <PUBCHEM_ISOTOPIC_ATOM_COUNT>
0

> <PUBCHEM_COMPONENT_COUNT>
1

> <PUBCHEM_CACTVS_TAUTO_COUNT>
-1

> <PUBCHEM_COORDINATE_TYPE>
1
5
255

> <PUBCHEM_BONDANNOTATIONS>
10  38  5
17  19  8
17  23  8
19  24  8
23  26  8
24  25  8
24  28  8
25  26  8
25  29  8
28  30  8
29  31  8
30  31  8
30  33  8
31  34  8
33  35  8
34  36  8
35  36  8
15  5  5
16  6  6
7  26  8
7  32  8
8  29  8
8  32  8
9  37  6

$$$$
