46931815
  -OEChem-09292322302D

 71 75  0     1  0  0  0  0  0999 V2000
    8.2707    1.9751    0.0000 S   0  0  0  0  0  0  0  0  0  0  0  0
    4.7887    3.8305    0.0000 O   0  0  0  0  0  0  0  0  0  0  0  0
    8.2707   -1.4890    0.0000 N   0  0  0  0  0  0  0  0  0  0  0  0
    6.7762    2.9456    0.0000 N   0  0  0  0  0  0  0  0  0  0  0  0
    8.1775    3.7546    0.0000 N   0  0  0  0  0  0  0  0  0  0  0  0
    7.4343    4.4238    0.0000 N   0  0  0  0  0  0  0  0  0  0  0  0
    4.4523    5.4132    0.0000 N   0  0  0  0  0  0  0  0  0  0  0  0
    8.7485   -3.4376    0.0000 C   0  0  2  0  0  0  0  0  0  0  0  0
    9.0073   -2.4716    0.0000 C   0  0  1  0  0  0  0  0  0  0  0  0
   10.1475   -3.9464    0.0000 C   0  0  0  0  0  0  0  0  0  0  0  0
   10.4063   -2.9805    0.0000 C   0  0  0  0  0  0  0  0  0  0  0  0
    7.5275   -4.3032    0.0000 C   0  0  0  0  0  0  0  0  0  0  0  0
    6.9741   -2.7828    0.0000 C   0  0  0  0  0  0  0  0  0  0  0  0
    6.6985   -3.7440    0.0000 C   0  0  0  0  0  0  0  0  0  0  0  0
    7.7707   -0.6230    0.0000 C   0  0  0  0  0  0  0  0  0  0  0  0
    5.7588   -4.0860    0.0000 C   0  0  0  0  0  0  0  0  0  0  0  0
    8.2707    0.2430    0.0000 C   0  0  0  0  0  0  0  0  0  0  0  0
    5.5851   -5.0709    0.0000 C   0  0  0  0  0  0  0  0  0  0  0  0
    4.9927   -3.4433    0.0000 C   0  0  0  0  0  0  0  0  0  0  0  0
    7.7707    1.1091    0.0000 C   0  0  0  0  0  0  0  0  0  0  0  0
    4.6454   -5.4129    0.0000 C   0  0  0  0  0  0  0  0  0  0  0  0
    4.0530   -3.7853    0.0000 C   0  0  0  0  0  0  0  0  0  0  0  0
    3.8794   -4.7701    0.0000 C   0  0  0  0  0  0  0  0  0  0  0  0
    2.9397   -5.1121    0.0000 C   0  0  0  0  0  0  0  0  0  0  0  0
    2.0000   -5.4541    0.0000 C   0  0  0  0  0  0  0  0  0  0  0  0
    3.2817   -6.0518    0.0000 C   0  0  0  0  0  0  0  0  0  0  0  0
    2.5977   -4.1724    0.0000 C   0  0  0  0  0  0  0  0  0  0  0  0
    7.7707    2.8411    0.0000 C   0  0  0  0  0  0  0  0  0  0  0  0
    6.5683    3.9238    0.0000 C   0  0  0  0  0  0  0  0  0  0  0  0
    6.1071    2.2025    0.0000 C   0  0  0  0  0  0  0  0  0  0  0  0
    5.6548    4.3305    0.0000 C   0  0  0  0  0  0  0  0  0  0  0  0
    5.4468    5.3087    0.0000 C   0  0  0  0  0  0  0  0  0  0  0  0
    6.1160    6.0518    0.0000 C   0  0  0  0  0  0  0  0  0  0  0  0
    4.0456    4.4996    0.0000 C   0  0  0  0  0  0  0  0  0  0  0  0
    8.5285   -4.2586    0.0000 H   0  0  0  0  0  0  0  0  0  0  0  0
    9.2273   -1.6506    0.0000 H   0  0  0  0  0  0  0  0  0  0  0  0
    9.9525   -4.5349    0.0000 H   0  0  0  0  0  0  0  0  0  0  0  0
   10.7414   -4.1242    0.0000 H   0  0  0  0  0  0  0  0  0  0  0  0
   11.0002   -3.1582    0.0000 H   0  0  0  0  0  0  0  0  0  0  0  0
   10.6012   -2.3919    0.0000 H   0  0  0  0  0  0  0  0  0  0  0  0
    7.1217   -4.7719    0.0000 H   0  0  0  0  0  0  0  0  0  0  0  0
    7.9442   -4.7624    0.0000 H   0  0  0  0  0  0  0  0  0  0  0  0
    6.9690   -2.1628    0.0000 H   0  0  0  0  0  0  0  0  0  0  0  0
    6.3598   -2.6990    0.0000 H   0  0  0  0  0  0  0  0  0  0  0  0
    6.6229   -4.3594    0.0000 H   0  0  0  0  0  0  0  0  0  0  0  0
    7.2958   -0.2245    0.0000 H   0  0  0  0  0  0  0  0  0  0  0  0
    7.2958   -1.0215    0.0000 H   0  0  0  0  0  0  0  0  0  0  0  0
    8.7457   -0.1555    0.0000 H   0  0  0  0  0  0  0  0  0  0  0  0
    8.7457    0.6416    0.0000 H   0  0  0  0  0  0  0  0  0  0  0  0
    6.0601   -5.4694    0.0000 H   0  0  0  0  0  0  0  0  0  0  0  0
    5.1004   -2.8327    0.0000 H   0  0  0  0  0  0  0  0  0  0  0  0
    7.2958    1.5076    0.0000 H   0  0  0  0  0  0  0  0  0  0  0  0
    7.2958    0.7105    0.0000 H   0  0  0  0  0  0  0  0  0  0  0  0
    4.5378   -6.0235    0.0000 H   0  0  0  0  0  0  0  0  0  0  0  0
    3.5781   -3.3868    0.0000 H   0  0  0  0  0  0  0  0  0  0  0  0
    1.7880   -4.8715    0.0000 H   0  0  0  0  0  0  0  0  0  0  0  0
    1.4174   -5.6662    0.0000 H   0  0  0  0  0  0  0  0  0  0  0  0
    2.2120   -6.0367    0.0000 H   0  0  0  0  0  0  0  0  0  0  0  0
    2.6991   -6.2639    0.0000 H   0  0  0  0  0  0  0  0  0  0  0  0
    3.4938   -6.6344    0.0000 H   0  0  0  0  0  0  0  0  0  0  0  0
    3.8643   -5.8398    0.0000 H   0  0  0  0  0  0  0  0  0  0  0  0
    3.1803   -3.9604    0.0000 H   0  0  0  0  0  0  0  0  0  0  0  0
    2.3856   -3.5898    0.0000 H   0  0  0  0  0  0  0  0  0  0  0  0
    2.0151   -4.3845    0.0000 H   0  0  0  0  0  0  0  0  0  0  0  0
    5.6463    2.6174    0.0000 H   0  0  0  0  0  0  0  0  0  0  0  0
    5.6922    1.7417    0.0000 H   0  0  0  0  0  0  0  0  0  0  0  0
    6.5678    1.7876    0.0000 H   0  0  0  0  0  0  0  0  0  0  0  0
    6.5767    5.6370    0.0000 H   0  0  0  0  0  0  0  0  0  0  0  0
    6.5308    6.5126    0.0000 H   0  0  0  0  0  0  0  0  0  0  0  0
    5.6552    6.4667    0.0000 H   0  0  0  0  0  0  0  0  0  0  0  0
    3.4391    4.3707    0.0000 H   0  0  0  0  0  0  0  0  0  0  0  0
  1 20  1  0  0  0  0
  1 28  1  0  0  0  0
  2 31  1  0  0  0  0
  2 34  1  0  0  0  0
  3  8  1  0  0  0  0
  3  9  1  0  0  0  0
  3 15  1  0  0  0  0
  4 28  1  0  0  0  0
  4 29  1  0  0  0  0
  4 30  1  0  0  0  0
  5  6  1  0  0  0  0
  5 28  2  0  0  0  0
  6 29  2  0  0  0  0
  7 32  1  0  0  0  0
  7 34  2  0  0  0  0
  8 10  1  0  0  0  0
  8 12  1  0  0  0  0
  8 35  1  1  0  0  0
  9 11  1  0  0  0  0
  9 13  1  0  0  0  0
  9 36  1  6  0  0  0
 10 11  1  0  0  0  0
 10 37  1  0  0  0  0
 10 38  1  0  0  0  0
 11 39  1  0  0  0  0
 11 40  1  0  0  0  0
 12 14  1  0  0  0  0
 12 41  1  0  0  0  0
 12 42  1  0  0  0  0
 13 14  1  0  0  0  0
 13 43  1  0  0  0  0
 13 44  1  0  0  0  0
 14 16  1  0  0  0  0
 14 45  1  0  0  0  0
 15 17  1  0  0  0  0
 15 46  1  0  0  0  0
 15 47  1  0  0  0  0
 16 18  2  0  0  0  0
 16 19  1  0  0  0  0
 17 20  1  0  0  0  0
 17 48  1  0  0  0  0
 17 49  1  0  0  0  0
 18 21  1  0  0  0  0
 18 50  1  0  0  0  0
 19 22  2  0  0  0  0
 19 51  1  0  0  0  0
 20 52  1  0  0  0  0
 20 53  1  0  0  0  0
 21 23  2  0  0  0  0
 21 54  1  0  0  0  0
 22 23  1  0  0  0  0
 22 55  1  0  0  0  0
 23 24  1  0  0  0  0
 24 25  1  0  0  0  0
 24 26  1  0  0  0  0
 24 27  1  0  0  0  0
 25 56  1  0  0  0  0
 25 57  1  0  0  0  0
 25 58  1  0  0  0  0
 26 59  1  0  0  0  0
 26 60  1  0  0  0  0
 26 61  1  0  0  0  0
 27 62  1  0  0  0  0
 27 63  1  0  0  0  0
 27 64  1  0  0  0  0
 29 31  1  0  0  0  0
 30 65  1  0  0  0  0
 30 66  1  0  0  0  0
 30 67  1  0  0  0  0
 31 32  2  0  0  0  0
 32 33  1  0  0  0  0
 33 68  1  0  0  0  0
 33 69  1  0  0  0  0
 33 70  1  0  0  0  0
 34 71  1  0  0  0  0
M  END
> <PUBCHEM_COMPOUND_CID>
46931815

> <PUBCHEM_COMPOUND_CANONICALIZED>
1

> <PUBCHEM_CACTVS_COMPLEXITY>
652

> <PUBCHEM_CACTVS_HBOND_ACCEPTOR>
6

> <PUBCHEM_CACTVS_HBOND_DONOR>
0

> <PUBCHEM_CACTVS_ROTATABLE_BOND>
8

> <PUBCHEM_CACTVS_SUBSKEYS>
AAADcfB7oABAAAAAAAAAAAAAAAAAAWLFgAA8QAAABgAAAAAB8AAAHgQIAAAADyzF3wa3lJcMFEiqA6Zz9ASS2Ct7YLAd2CG9RJiOKCLk2TCNIChgjALYiAcQgMAPwAAAAAAAAACAAAAAAAAAAAAAAAAAAA==

> <PUBCHEM_IUPAC_OPENEYE_NAME>
5-[5-[3-[(1R,5S)-3-(4-tert-butylphenyl)-8-azabicyclo[3.2.1]octan-8-yl]propylsulfanyl]-4-methyl-1,2,4-triazol-3-yl]-4-methyl-oxazole

> <PUBCHEM_IUPAC_CAS_NAME>
5-[5-[3-[(1R,5S)-3-(4-tert-butylphenyl)-8-azabicyclo[3.2.1]octan-8-yl]propylthio]-4-methyl-1,2,4-triazol-3-yl]-4-methyloxazole

> <PUBCHEM_IUPAC_NAME_MARKUP>
5-[5-[3-[(1<I>R</I>,5<I>S</I>)-3-(4-<I>tert</I>-butylphenyl)-8-azabicyclo[3.2.1]octan-8-yl]propylsulfanyl]-4-methyl-1,2,4-triazol-3-yl]-4-methyl-1,3-oxazole

> <PUBCHEM_IUPAC_NAME>
5-[5-[3-[(1R,5S)-3-(4-tert-butylphenyl)-8-azabicyclo[3.2.1]octan-8-yl]propylsulfanyl]-4-methyl-1,2,4-triazol-3-yl]-4-methyl-1,3-oxazole

> <PUBCHEM_IUPAC_SYSTEMATIC_NAME>
5-[5-[3-[(1R,5S)-3-(4-tert-butylphenyl)-8-azabicyclo[3.2.1]octan-8-yl]propylsulfanyl]-4-methyl-1,2,4-triazol-3-yl]-4-methyl-1,3-oxazole

> <PUBCHEM_IUPAC_TRADITIONAL_NAME>
5-[5-[3-[(1R,5S)-3-(4-tert-butylphenyl)-8-azabicyclo[3.2.1]octan-8-yl]propylthio]-4-methyl-1,2,4-triazol-3-yl]-4-methyl-oxazole

> <PUBCHEM_IUPAC_INCHI>
InChI=1S/C27H37N5OS/c1-18-24(33-17-28-18)25-29-30-26(31(25)5)34-14-6-13-32-22-11-12-23(32)16-20(15-22)19-7-9-21(10-8-19)27(2,3)4/h7-10,17,20,22-23H,6,11-16H2,1-5H3/t20?,22-,23+

> <PUBCHEM_IUPAC_INCHIKEY>
BIJSJQXDPUAQLO-BRTIRZTQSA-N

> <PUBCHEM_XLOGP3_AA>
5.7

> <PUBCHEM_EXACT_MASS>
479.27188199

> <PUBCHEM_MOLECULAR_FORMULA>
C27H37N5OS

> <PUBCHEM_MOLECULAR_WEIGHT>
479.7

> <PUBCHEM_OPENEYE_CAN_SMILES>
CC1=C(OC=N1)C2=NN=C(N2C)SCCCN3C4CCC3CC(C4)C5=CC=C(C=C5)C(C)(C)C

> <PUBCHEM_OPENEYE_ISO_SMILES>
CC1=C(OC=N1)C2=NN=C(N2C)SCCCN3[C@@H]4CC[C@H]3CC(C4)C5=CC=C(C=C5)C(C)(C)C

> <PUBCHEM_CACTVS_TPSA>
85.3

> <PUBCHEM_MONOISOTOPIC_WEIGHT>
479.27188199

> <PUBCHEM_TOTAL_CHARGE>
0

> <PUBCHEM_HEAVY_ATOM_COUNT>
34

> <PUBCHEM_ATOM_DEF_STEREO_COUNT>
2

> <PUBCHEM_ATOM_UDEF_STEREO_COUNT>
0

> <PUBCHEM_BOND_DEF_STEREO_COUNT>
0

> <PUBCHEM_BOND_UDEF_STEREO_COUNT>
0

> <PUBCHEM_ISOTOPIC_ATOM_COUNT>
0

> <PUBCHEM_COMPONENT_COUNT>
1

> <PUBCHEM_CACTVS_TAUTO_COUNT>
-1

> <PUBCHEM_COORDINATE_TYPE>
1
5
255

> <PUBCHEM_BONDANNOTATIONS>
16  18  8
16  19  8
18  21  8
19  22  8
2  31  8
2  34  8
21  23  8
22  23  8
31  32  8
4  28  8
4  29  8
5  28  8
5  6  8
6  29  8
7  32  8
7  34  8
8  35  5
9  36  6

$$$$
