11778702
  -OEChem-09292322122D

 43 45  0     1  0  0  0  0  0999 V2000
    2.5000   -3.8512    0.0000 S   0  0  0  0  0  0  0  0  0  0  0  0
    4.4487    1.8512    0.0000 N   0  0  3  0  0  0  0  0  0  0  0  0
    5.3147    0.3512    0.0000 C   0  0  1  0  0  0  0  0  0  0  0  0
    4.4487    0.8512    0.0000 C   0  0  0  0  0  0  0  0  0  0  0  0
    6.1808    0.8512    0.0000 C   0  0  0  0  0  0  0  0  0  0  0  0
    6.1808    1.8512    0.0000 C   0  0  0  0  0  0  0  0  0  0  0  0
    5.3147    2.3512    0.0000 C   0  0  0  0  0  0  0  0  0  0  0  0
    5.3147   -0.6488    0.0000 C   0  0  0  0  0  0  0  0  0  0  0  0
    3.5827    2.3512    0.0000 C   0  0  0  0  0  0  0  0  0  0  0  0
    3.5827    3.3512    0.0000 C   0  0  0  0  0  0  0  0  0  0  0  0
    4.4487   -1.1488    0.0000 C   0  0  0  0  0  0  0  0  0  0  0  0
    6.1808   -1.1488    0.0000 C   0  0  0  0  0  0  0  0  0  0  0  0
    4.4487   -2.1488    0.0000 C   0  0  0  0  0  0  0  0  0  0  0  0
    2.7166    3.8512    0.0000 C   0  0  0  0  0  0  0  0  0  0  0  0
    6.1808   -2.1488    0.0000 C   0  0  0  0  0  0  0  0  0  0  0  0
    5.3147   -2.6488    0.0000 C   0  0  0  0  0  0  0  0  0  0  0  0
    3.5827   -2.6488    0.0000 C   0  0  0  0  0  0  0  0  0  0  0  0
    2.6691   -2.2420    0.0000 C   0  0  0  0  0  0  0  0  0  0  0  0
    3.4782   -3.6433    0.0000 C   0  0  0  0  0  0  0  0  0  0  0  0
    2.0000   -2.9852    0.0000 C   0  0  0  0  0  0  0  0  0  0  0  0
    5.8517    0.0412    0.0000 H   0  0  0  0  0  0  0  0  0  0  0  0
    3.8381    0.9589    0.0000 H   0  0  0  0  0  0  0  0  0  0  0  0
    4.2366    0.2686    0.0000 H   0  0  0  0  0  0  0  0  0  0  0  0
    6.3928    0.2686    0.0000 H   0  0  0  0  0  0  0  0  0  0  0  0
    6.7913    0.9589    0.0000 H   0  0  0  0  0  0  0  0  0  0  0  0
    6.7913    1.7436    0.0000 H   0  0  0  0  0  0  0  0  0  0  0  0
    6.3928    2.4338    0.0000 H   0  0  0  0  0  0  0  0  0  0  0  0
    5.7133    2.8262    0.0000 H   0  0  0  0  0  0  0  0  0  0  0  0
    4.9162    2.8262    0.0000 H   0  0  0  0  0  0  0  0  0  0  0  0
    2.9721    2.4589    0.0000 H   0  0  0  0  0  0  0  0  0  0  0  0
    3.3706    1.7686    0.0000 H   0  0  0  0  0  0  0  0  0  0  0  0
    4.1933    3.2436    0.0000 H   0  0  0  0  0  0  0  0  0  0  0  0
    3.7947    3.9338    0.0000 H   0  0  0  0  0  0  0  0  0  0  0  0
    3.9118   -0.8388    0.0000 H   0  0  0  0  0  0  0  0  0  0  0  0
    6.7177   -0.8388    0.0000 H   0  0  0  0  0  0  0  0  0  0  0  0
    3.0266    4.3882    0.0000 H   0  0  0  0  0  0  0  0  0  0  0  0
    2.1797    4.1612    0.0000 H   0  0  0  0  0  0  0  0  0  0  0  0
    2.4066    3.3143    0.0000 H   0  0  0  0  0  0  0  0  0  0  0  0
    6.7177   -2.4588    0.0000 H   0  0  0  0  0  0  0  0  0  0  0  0
    5.3147   -3.2688    0.0000 H   0  0  0  0  0  0  0  0  0  0  0  0
    2.5402   -1.6356    0.0000 H   0  0  0  0  0  0  0  0  0  0  0  0
    3.9389   -4.0582    0.0000 H   0  0  0  0  0  0  0  0  0  0  0  0
    1.3834   -2.9204    0.0000 H   0  0  0  0  0  0  0  0  0  0  0  0
  1 19  1  0  0  0  0
  1 20  1  0  0  0  0
  2  4  1  0  0  0  0
  2  7  1  0  0  0  0
  2  9  1  0  0  0  0
  3  4  1  0  0  0  0
  3  5  1  0  0  0  0
  3  8  1  1  0  0  0
  3 21  1  0  0  0  0
  4 22  1  0  0  0  0
  4 23  1  0  0  0  0
  5  6  1  0  0  0  0
  5 24  1  0  0  0  0
  5 25  1  0  0  0  0
  6  7  1  0  0  0  0
  6 26  1  0  0  0  0
  6 27  1  0  0  0  0
  7 28  1  0  0  0  0
  7 29  1  0  0  0  0
  8 11  1  0  0  0  0
  8 12  2  0  0  0  0
  9 10  1  0  0  0  0
  9 30  1  0  0  0  0
  9 31  1  0  0  0  0
 10 14  1  0  0  0  0
 10 32  1  0  0  0  0
 10 33  1  0  0  0  0
 11 13  2  0  0  0  0
 11 34  1  0  0  0  0
 12 15  1  0  0  0  0
 12 35  1  0  0  0  0
 13 16  1  0  0  0  0
 13 17  1  0  0  0  0
 14 36  1  0  0  0  0
 14 37  1  0  0  0  0
 14 38  1  0  0  0  0
 15 16  2  0  0  0  0
 15 39  1  0  0  0  0
 16 40  1  0  0  0  0
 17 18  1  0  0  0  0
 17 19  2  0  0  0  0
 18 20  2  0  0  0  0
 18 41  1  0  0  0  0
 19 42  1  0  0  0  0
 20 43  1  0  0  0  0
M  END
> <PUBCHEM_COMPOUND_CID>
11778702

> <PUBCHEM_COMPOUND_CANONICALIZED>
1

> <PUBCHEM_CACTVS_COMPLEXITY>
293

> <PUBCHEM_CACTVS_HBOND_ACCEPTOR>
2

> <PUBCHEM_CACTVS_HBOND_DONOR>
0

> <PUBCHEM_CACTVS_ROTATABLE_BOND>
4

> <PUBCHEM_CACTVS_SUBSKEYS>
AAADceB6AABAAAAAAAAAAAAAAAAAASAAAAA8QAAAAAAAAAABwAAAHAQAAAAADQDFWASyAYMAAAiEAiBCAAADAIAgCBBIiBgIAIgIICKgkRGEIAAggACoiAcQgMAOgAACAAAAAAAAAAQAAAAAAAAAAAAAAA==

> <PUBCHEM_IUPAC_OPENEYE_NAME>
(3S)-1-propyl-3-[3-(3-thienyl)phenyl]piperidine

> <PUBCHEM_IUPAC_CAS_NAME>
(3S)-1-propyl-3-[3-(3-thiophenyl)phenyl]piperidine

> <PUBCHEM_IUPAC_NAME_MARKUP>
(3<I>S</I>)-1-propyl-3-(3-thiophen-3-ylphenyl)piperidine

> <PUBCHEM_IUPAC_NAME>
(3S)-1-propyl-3-(3-thiophen-3-ylphenyl)piperidine

> <PUBCHEM_IUPAC_SYSTEMATIC_NAME>
(3S)-1-propyl-3-(3-thiophen-3-ylphenyl)piperidine

> <PUBCHEM_IUPAC_TRADITIONAL_NAME>
(3S)-1-propyl-3-[3-(3-thienyl)phenyl]piperidine

> <PUBCHEM_IUPAC_INCHI>
InChI=1S/C18H23NS/c1-2-9-19-10-4-7-17(13-19)15-5-3-6-16(12-15)18-8-11-20-14-18/h3,5-6,8,11-12,14,17H,2,4,7,9-10,13H2,1H3/t17-/m1/s1

> <PUBCHEM_IUPAC_INCHIKEY>
WKZQYOGJYMCSPM-QGZVFWFLSA-N

> <PUBCHEM_XLOGP3_AA>
4.7

> <PUBCHEM_EXACT_MASS>
285.15512091

> <PUBCHEM_MOLECULAR_FORMULA>
C18H23NS

> <PUBCHEM_MOLECULAR_WEIGHT>
285.4

> <PUBCHEM_OPENEYE_CAN_SMILES>
CCCN1CCCC(C1)C2=CC=CC(=C2)C3=CSC=C3

> <PUBCHEM_OPENEYE_ISO_SMILES>
CCCN1CCC[C@H](C1)C2=CC=CC(=C2)C3=CSC=C3

> <PUBCHEM_CACTVS_TPSA>
31.5

> <PUBCHEM_MONOISOTOPIC_WEIGHT>
285.15512091

> <PUBCHEM_TOTAL_CHARGE>
0

> <PUBCHEM_HEAVY_ATOM_COUNT>
20

> <PUBCHEM_ATOM_DEF_STEREO_COUNT>
1

> <PUBCHEM_ATOM_UDEF_STEREO_COUNT>
0

> <PUBCHEM_BOND_DEF_STEREO_COUNT>
0

> <PUBCHEM_BOND_UDEF_STEREO_COUNT>
0

> <PUBCHEM_ISOTOPIC_ATOM_COUNT>
0

> <PUBCHEM_COMPONENT_COUNT>
1

> <PUBCHEM_CACTVS_TAUTO_COUNT>
-1

> <PUBCHEM_COORDINATE_TYPE>
1
5
255

> <PUBCHEM_BONDANNOTATIONS>
1  19  8
1  20  8
11  13  8
12  15  8
13  16  8
15  16  8
17  18  8
17  19  8
18  20  8
3  8  5
8  11  8
8  12  8

$$$$
