44365177
  -OEChem-09292322152D

 56 59  0     1  0  0  0  0  0999 V2000
    7.1270    2.6744    0.0000 O   0  0  0  0  0  0  0  0  0  0  0  0
    6.1808    0.9791    0.0000 O   0  0  0  0  0  0  0  0  0  0  0  0
    3.5827    4.4791    0.0000 O   0  0  0  0  0  0  0  0  0  0  0  0
    3.4782   -1.5154    0.0000 N   0  0  3  0  0  0  0  0  0  0  0  0
    4.4487    0.9791    0.0000 N   0  0  0  0  0  0  0  0  0  0  0  0
    3.5827   -0.5209    0.0000 C   0  0  1  0  0  0  0  0  0  0  0  0
    2.6691   -0.1142    0.0000 C   0  0  0  0  0  0  0  0  0  0  0  0
    2.5000   -1.7233    0.0000 C   0  0  0  0  0  0  0  0  0  0  0  0
    2.0000   -0.8573    0.0000 C   0  0  0  0  0  0  0  0  0  0  0  0
    4.4487   -0.0209    0.0000 C   0  0  0  0  0  0  0  0  0  0  0  0
    4.2213   -2.1846    0.0000 C   0  0  0  0  0  0  0  0  0  0  0  0
    4.0134   -3.1627    0.0000 C   0  0  0  0  0  0  0  0  0  0  0  0
    4.7565   -3.8318    0.0000 C   0  0  0  0  0  0  0  0  0  0  0  0
    5.3147    1.4791    0.0000 C   0  0  0  0  0  0  0  0  0  0  0  0
    5.3147    2.4791    0.0000 C   0  0  0  0  0  0  0  0  0  0  0  0
    6.1808    2.9791    0.0000 C   0  0  0  0  0  0  0  0  0  0  0  0
    6.1808    3.9791    0.0000 C   0  0  0  0  0  0  0  0  0  0  0  0
    7.1270    4.2838    0.0000 C   0  0  0  0  0  0  0  0  0  0  0  0
    5.7076   -3.5228    0.0000 C   0  0  0  0  0  0  0  0  0  0  0  0
    4.5486   -4.8100    0.0000 C   0  0  0  0  0  0  0  0  0  0  0  0
    7.7106    3.4791    0.0000 C   0  0  0  0  0  0  0  0  0  0  0  0
    4.4487    2.9791    0.0000 C   0  0  0  0  0  0  0  0  0  0  0  0
    5.3147    4.4791    0.0000 C   0  0  0  0  0  0  0  0  0  0  0  0
    4.4487    3.9791    0.0000 C   0  0  0  0  0  0  0  0  0  0  0  0
    6.4507   -4.1919    0.0000 C   0  0  0  0  0  0  0  0  0  0  0  0
    5.2918   -5.4791    0.0000 C   0  0  0  0  0  0  0  0  0  0  0  0
    6.2428   -5.1701    0.0000 C   0  0  0  0  0  0  0  0  0  0  0  0
    3.5827    5.4791    0.0000 C   0  0  0  0  0  0  0  0  0  0  0  0
    4.1026   -0.8586    0.0000 H   0  0  0  0  0  0  0  0  0  0  0  0
    2.9791    0.4228    0.0000 H   0  0  0  0  0  0  0  0  0  0  0  0
    2.1675    0.2503    0.0000 H   0  0  0  0  0  0  0  0  0  0  0  0
    1.9336   -1.9755    0.0000 H   0  0  0  0  0  0  0  0  0  0  0  0
    2.6916   -2.3130    0.0000 H   0  0  0  0  0  0  0  0  0  0  0  0
    1.5851   -0.3966    0.0000 H   0  0  0  0  0  0  0  0  0  0  0  0
    1.4984   -1.2217    0.0000 H   0  0  0  0  0  0  0  0  0  0  0  0
    4.6608   -0.6035    0.0000 H   0  0  0  0  0  0  0  0  0  0  0  0
    5.0593    0.0868    0.0000 H   0  0  0  0  0  0  0  0  0  0  0  0
    4.7962   -2.4168    0.0000 H   0  0  0  0  0  0  0  0  0  0  0  0
    4.5498   -1.6588    0.0000 H   0  0  0  0  0  0  0  0  0  0  0  0
    3.4385   -2.9304    0.0000 H   0  0  0  0  0  0  0  0  0  0  0  0
    3.6848   -3.6885    0.0000 H   0  0  0  0  0  0  0  0  0  0  0  0
    3.9118    1.2891    0.0000 H   0  0  0  0  0  0  0  0  0  0  0  0
    7.6644    4.5931    0.0000 H   0  0  0  0  0  0  0  0  0  0  0  0
    6.8759    4.8507    0.0000 H   0  0  0  0  0  0  0  0  0  0  0  0
    5.8365   -2.9164    0.0000 H   0  0  0  0  0  0  0  0  0  0  0  0
    3.9590   -5.0016    0.0000 H   0  0  0  0  0  0  0  0  0  0  0  0
    8.1714    3.0644    0.0000 H   0  0  0  0  0  0  0  0  0  0  0  0
    8.1714    3.8938    0.0000 H   0  0  0  0  0  0  0  0  0  0  0  0
    3.9118    2.6691    0.0000 H   0  0  0  0  0  0  0  0  0  0  0  0
    5.3147    5.0991    0.0000 H   0  0  0  0  0  0  0  0  0  0  0  0
    7.0404   -4.0004    0.0000 H   0  0  0  0  0  0  0  0  0  0  0  0
    5.1628   -6.0856    0.0000 H   0  0  0  0  0  0  0  0  0  0  0  0
    6.7036   -5.5850    0.0000 H   0  0  0  0  0  0  0  0  0  0  0  0
    4.2027    5.4791    0.0000 H   0  0  0  0  0  0  0  0  0  0  0  0
    3.5827    6.0991    0.0000 H   0  0  0  0  0  0  0  0  0  0  0  0
    2.9627    5.4791    0.0000 H   0  0  0  0  0  0  0  0  0  0  0  0
  1 16  1  0  0  0  0
  1 21  1  0  0  0  0
  2 14  2  0  0  0  0
  3 24  1  0  0  0  0
  3 28  1  0  0  0  0
  4  6  1  0  0  0  0
  4  8  1  0  0  0  0
  4 11  1  0  0  0  0
  5 10  1  0  0  0  0
  5 14  1  0  0  0  0
  5 42  1  0  0  0  0
  6  7  1  0  0  0  0
  6 10  1  1  0  0  0
  6 29  1  0  0  0  0
  7  9  1  0  0  0  0
  7 30  1  0  0  0  0
  7 31  1  0  0  0  0
  8  9  1  0  0  0  0
  8 32  1  0  0  0  0
  8 33  1  0  0  0  0
  9 34  1  0  0  0  0
  9 35  1  0  0  0  0
 10 36  1  0  0  0  0
 10 37  1  0  0  0  0
 11 12  1  0  0  0  0
 11 38  1  0  0  0  0
 11 39  1  0  0  0  0
 12 13  1  0  0  0  0
 12 40  1  0  0  0  0
 12 41  1  0  0  0  0
 13 19  2  0  0  0  0
 13 20  1  0  0  0  0
 14 15  1  0  0  0  0
 15 16  1  0  0  0  0
 15 22  2  0  0  0  0
 16 17  2  0  0  0  0
 17 18  1  0  0  0  0
 17 23  1  0  0  0  0
 18 21  1  0  0  0  0
 18 43  1  0  0  0  0
 18 44  1  0  0  0  0
 19 25  1  0  0  0  0
 19 45  1  0  0  0  0
 20 26  2  0  0  0  0
 20 46  1  0  0  0  0
 21 47  1  0  0  0  0
 21 48  1  0  0  0  0
 22 24  1  0  0  0  0
 22 49  1  0  0  0  0
 23 24  2  0  0  0  0
 23 50  1  0  0  0  0
 25 27  2  0  0  0  0
 25 51  1  0  0  0  0
 26 27  1  0  0  0  0
 26 52  1  0  0  0  0
 27 53  1  0  0  0  0
 28 54  1  0  0  0  0
 28 55  1  0  0  0  0
 28 56  1  0  0  0  0
M  END
> <PUBCHEM_COMPOUND_CID>
44365177

> <PUBCHEM_COMPOUND_CANONICALIZED>
1

> <PUBCHEM_CACTVS_COMPLEXITY>
508

> <PUBCHEM_CACTVS_HBOND_ACCEPTOR>
4

> <PUBCHEM_CACTVS_HBOND_DONOR>
1

> <PUBCHEM_CACTVS_ROTATABLE_BOND>
7

> <PUBCHEM_CACTVS_SUBSKEYS>
AAADceB7MAAAAAAAAAAAAAAAAAAAAWJAAAAwYAAAAAAAAEgBQAAAHgAQAAAADCzhmAYyBoPABACIAiFSEACCCAAkIAAIiIEODMgMZjaEtRuWOWjm9hGIqYf66PyOAQADAAAIAAACAAYAABAAAAAAAAAAAA==

> <PUBCHEM_IUPAC_OPENEYE_NAME>
5-methoxy-N-[[(2S)-1-(2-phenylethyl)pyrrolidin-2-yl]methyl]-2,3-dihydrobenzofuran-7-carboxamide

> <PUBCHEM_IUPAC_CAS_NAME>
5-methoxy-N-[[(2S)-1-(2-phenylethyl)-2-pyrrolidinyl]methyl]-2,3-dihydrobenzofuran-7-carboxamide

> <PUBCHEM_IUPAC_NAME_MARKUP>
5-methoxy-<I>N</I>-[[(2<I>S</I>)-1-(2-phenylethyl)pyrrolidin-2-yl]methyl]-2,3-dihydro-1-benzofuran-7-carboxamide

> <PUBCHEM_IUPAC_NAME>
5-methoxy-N-[[(2S)-1-(2-phenylethyl)pyrrolidin-2-yl]methyl]-2,3-dihydro-1-benzofuran-7-carboxamide

> <PUBCHEM_IUPAC_SYSTEMATIC_NAME>
5-methoxy-N-[[(2S)-1-(2-phenylethyl)pyrrolidin-2-yl]methyl]-2,3-dihydro-1-benzofuran-7-carboxamide

> <PUBCHEM_IUPAC_TRADITIONAL_NAME>
5-methoxy-N-[[(2S)-1-phenethylpyrrolidin-2-yl]methyl]coumaran-7-carboxamide

> <PUBCHEM_IUPAC_INCHI>
InChI=1S/C23H28N2O3/c1-27-20-14-18-10-13-28-22(18)21(15-20)23(26)24-16-19-8-5-11-25(19)12-9-17-6-3-2-4-7-17/h2-4,6-7,14-15,19H,5,8-13,16H2,1H3,(H,24,26)/t19-/m0/s1

> <PUBCHEM_IUPAC_INCHIKEY>
UTHCVWLWDKDKNF-IBGZPJMESA-N

> <PUBCHEM_XLOGP3_AA>
3.7

> <PUBCHEM_EXACT_MASS>
380.20999276

> <PUBCHEM_MOLECULAR_FORMULA>
C23H28N2O3

> <PUBCHEM_MOLECULAR_WEIGHT>
380.5

> <PUBCHEM_OPENEYE_CAN_SMILES>
COC1=CC2=C(C(=C1)C(=O)NCC3CCCN3CCC4=CC=CC=C4)OCC2

> <PUBCHEM_OPENEYE_ISO_SMILES>
COC1=CC2=C(C(=C1)C(=O)NC[C@@H]3CCCN3CCC4=CC=CC=C4)OCC2

> <PUBCHEM_CACTVS_TPSA>
50.8

> <PUBCHEM_MONOISOTOPIC_WEIGHT>
380.20999276

> <PUBCHEM_TOTAL_CHARGE>
0

> <PUBCHEM_HEAVY_ATOM_COUNT>
28

> <PUBCHEM_ATOM_DEF_STEREO_COUNT>
1

> <PUBCHEM_ATOM_UDEF_STEREO_COUNT>
0

> <PUBCHEM_BOND_DEF_STEREO_COUNT>
0

> <PUBCHEM_BOND_UDEF_STEREO_COUNT>
0

> <PUBCHEM_ISOTOPIC_ATOM_COUNT>
0

> <PUBCHEM_COMPONENT_COUNT>
1

> <PUBCHEM_CACTVS_TAUTO_COUNT>
-1

> <PUBCHEM_COORDINATE_TYPE>
1
5
255

> <PUBCHEM_BONDANNOTATIONS>
13  19  8
13  20  8
15  16  8
15  22  8
16  17  8
17  23  8
19  25  8
20  26  8
22  24  8
23  24  8
25  27  8
26  27  8
6  10  5

$$$$
