44350782
  -OEChem-09292322122D

 71 72  0     0  0  0  0  0  0999 V2000
   14.7352   12.6200    0.0000 F   0  0  0  0  0  0  0  0  0  0  0  0
   15.7352   13.6200    0.0000 F   0  0  0  0  0  0  0  0  0  0  0  0
   16.7352   12.6200    0.0000 F   0  0  0  0  0  0  0  0  0  0  0  0
    7.0749    3.6200    0.0000 O   0  0  0  0  0  0  0  0  0  0  0  0
   12.2711    8.6200    0.0000 O   0  0  0  0  0  0  0  0  0  0  0  0
    3.1350    6.5600    0.0000 O   0  0  0  0  0  0  0  0  0  0  0  0
    0.5369    7.0600    0.0000 O   0  0  0  0  0  0  0  0  0  0  0  0
    2.2690    8.0600    0.0000 O   0  0  0  0  0  0  0  0  0  0  0  0
    1.4030    5.5600    0.0000 O   0  0  0  0  0  0  0  0  0  0  0  0
   10.5390    3.6200    0.0000 N   0  0  0  0  0  0  0  0  0  0  0  0
    8.8070    2.6200    0.0000 N   0  0  0  0  0  0  0  0  0  0  0  0
   13.1371    7.1200    0.0000 N   0  0  0  0  0  0  0  0  0  0  0  0
    9.6730    4.1200    0.0000 C   0  0  0  0  0  0  0  0  0  0  0  0
   10.5390    2.6200    0.0000 C   0  0  0  0  0  0  0  0  0  0  0  0
    8.8070    3.6200    0.0000 C   0  0  0  0  0  0  0  0  0  0  0  0
    9.6730    2.1200    0.0000 C   0  0  0  0  0  0  0  0  0  0  0  0
   11.4050    4.1200    0.0000 C   0  0  0  0  0  0  0  0  0  0  0  0
   11.4050    5.1200    0.0000 C   0  0  0  0  0  0  0  0  0  0  0  0
    7.9409    2.1200    0.0000 C   0  0  0  0  0  0  0  0  0  0  0  0
   12.2711    5.6200    0.0000 C   0  0  0  0  0  0  0  0  0  0  0  0
   12.2711    6.6200    0.0000 C   0  0  0  0  0  0  0  0  0  0  0  0
    7.0749    2.6200    0.0000 C   0  0  0  0  0  0  0  0  0  0  0  0
    7.9409    1.1200    0.0000 C   0  0  0  0  0  0  0  0  0  0  0  0
    6.2089    2.1200    0.0000 C   0  0  0  0  0  0  0  0  0  0  0  0
    7.0749    0.6200    0.0000 C   0  0  0  0  0  0  0  0  0  0  0  0
    6.2089    1.1200    0.0000 C   0  0  0  0  0  0  0  0  0  0  0  0
   13.1371    8.1200    0.0000 C   0  0  0  0  0  0  0  0  0  0  0  0
    6.2089    4.1200    0.0000 C   0  0  0  0  0  0  0  0  0  0  0  0
   14.0031    8.6200    0.0000 C   0  0  0  0  0  0  0  0  0  0  0  0
   14.0031    9.6200    0.0000 C   0  0  0  0  0  0  0  0  0  0  0  0
   14.8691   10.1200    0.0000 C   0  0  0  0  0  0  0  0  0  0  0  0
   14.8691   11.1200    0.0000 C   0  0  0  0  0  0  0  0  0  0  0  0
   15.7352    9.6200    0.0000 C   0  0  0  0  0  0  0  0  0  0  0  0
   15.7352   11.6200    0.0000 C   0  0  0  0  0  0  0  0  0  0  0  0
   16.6012   10.1200    0.0000 C   0  0  0  0  0  0  0  0  0  0  0  0
   16.6012   11.1200    0.0000 C   0  0  0  0  0  0  0  0  0  0  0  0
   15.7352   12.6200    0.0000 C   0  0  0  0  0  0  0  0  0  0  0  0
    2.2690    7.0600    0.0000 C   0  0  0  0  0  0  0  0  0  0  0  0
    1.4030    6.5600    0.0000 C   0  0  0  0  0  0  0  0  0  0  0  0
   10.0715    4.5950    0.0000 H   0  0  0  0  0  0  0  0  0  0  0  0
    9.2745    4.5950    0.0000 H   0  0  0  0  0  0  0  0  0  0  0  0
   10.7511    2.0374    0.0000 H   0  0  0  0  0  0  0  0  0  0  0  0
   11.1496    2.7277    0.0000 H   0  0  0  0  0  0  0  0  0  0  0  0
    8.5949    4.2026    0.0000 H   0  0  0  0  0  0  0  0  0  0  0  0
    8.1964    3.5123    0.0000 H   0  0  0  0  0  0  0  0  0  0  0  0
    9.2745    1.6450    0.0000 H   0  0  0  0  0  0  0  0  0  0  0  0
   10.0715    1.6450    0.0000 H   0  0  0  0  0  0  0  0  0  0  0  0
   11.6171    3.5374    0.0000 H   0  0  0  0  0  0  0  0  0  0  0  0
   12.0156    4.2277    0.0000 H   0  0  0  0  0  0  0  0  0  0  0  0
   11.1930    5.7026    0.0000 H   0  0  0  0  0  0  0  0  0  0  0  0
   10.7945    5.0123    0.0000 H   0  0  0  0  0  0  0  0  0  0  0  0
   12.4831    5.0374    0.0000 H   0  0  0  0  0  0  0  0  0  0  0  0
   12.8816    5.7277    0.0000 H   0  0  0  0  0  0  0  0  0  0  0  0
   12.0590    7.2026    0.0000 H   0  0  0  0  0  0  0  0  0  0  0  0
   11.6605    6.5123    0.0000 H   0  0  0  0  0  0  0  0  0  0  0  0
    8.4779    0.8100    0.0000 H   0  0  0  0  0  0  0  0  0  0  0  0
    5.6720    2.4300    0.0000 H   0  0  0  0  0  0  0  0  0  0  0  0
    7.0749    0.0000    0.0000 H   0  0  0  0  0  0  0  0  0  0  0  0
   13.6740    6.8100    0.0000 H   0  0  0  0  0  0  0  0  0  0  0  0
    5.6720    0.8100    0.0000 H   0  0  0  0  0  0  0  0  0  0  0  0
    6.5189    4.6569    0.0000 H   0  0  0  0  0  0  0  0  0  0  0  0
    5.6720    4.4300    0.0000 H   0  0  0  0  0  0  0  0  0  0  0  0
    5.8989    3.5831    0.0000 H   0  0  0  0  0  0  0  0  0  0  0  0
   14.5400    8.3100    0.0000 H   0  0  0  0  0  0  0  0  0  0  0  0
   13.4662    9.9300    0.0000 H   0  0  0  0  0  0  0  0  0  0  0  0
   14.3322   11.4300    0.0000 H   0  0  0  0  0  0  0  0  0  0  0  0
   15.7352    9.0000    0.0000 H   0  0  0  0  0  0  0  0  0  0  0  0
   17.1381    9.8100    0.0000 H   0  0  0  0  0  0  0  0  0  0  0  0
   17.1381   11.4300    0.0000 H   0  0  0  0  0  0  0  0  0  0  0  0
    3.6720    6.8700    0.0000 H   0  0  0  0  0  0  0  0  0  0  0  0
    0.0000    6.7500    0.0000 H   0  0  0  0  0  0  0  0  0  0  0  0
  1 37  1  0  0  0  0
  2 37  1  0  0  0  0
  3 37  1  0  0  0  0
  4 22  1  0  0  0  0
  4 28  1  0  0  0  0
  5 27  2  0  0  0  0
  6 38  1  0  0  0  0
  6 70  1  0  0  0  0
  7 39  1  0  0  0  0
  7 71  1  0  0  0  0
  8 38  2  0  0  0  0
  9 39  2  0  0  0  0
 10 13  1  0  0  0  0
 10 14  1  0  0  0  0
 10 17  1  0  0  0  0
 11 15  1  0  0  0  0
 11 16  1  0  0  0  0
 11 19  1  0  0  0  0
 12 21  1  0  0  0  0
 12 27  1  0  0  0  0
 12 59  1  0  0  0  0
 13 15  1  0  0  0  0
 13 40  1  0  0  0  0
 13 41  1  0  0  0  0
 14 16  1  0  0  0  0
 14 42  1  0  0  0  0
 14 43  1  0  0  0  0
 15 44  1  0  0  0  0
 15 45  1  0  0  0  0
 16 46  1  0  0  0  0
 16 47  1  0  0  0  0
 17 18  1  0  0  0  0
 17 48  1  0  0  0  0
 17 49  1  0  0  0  0
 18 20  1  0  0  0  0
 18 50  1  0  0  0  0
 18 51  1  0  0  0  0
 19 22  1  0  0  0  0
 19 23  2  0  0  0  0
 20 21  1  0  0  0  0
 20 52  1  0  0  0  0
 20 53  1  0  0  0  0
 21 54  1  0  0  0  0
 21 55  1  0  0  0  0
 22 24  2  0  0  0  0
 23 25  1  0  0  0  0
 23 56  1  0  0  0  0
 24 26  1  0  0  0  0
 24 57  1  0  0  0  0
 25 26  2  0  0  0  0
 25 58  1  0  0  0  0
 26 60  1  0  0  0  0
 27 29  1  0  0  0  0
 28 61  1  0  0  0  0
 28 62  1  0  0  0  0
 28 63  1  0  0  0  0
 29 30  2  0  0  0  0
 29 64  1  0  0  0  0
 30 31  1  0  0  0  0
 30 65  1  0  0  0  0
 31 32  2  0  0  0  0
 31 33  1  0  0  0  0
 32 34  1  0  0  0  0
 32 66  1  0  0  0  0
 33 35  2  0  0  0  0
 33 67  1  0  0  0  0
 34 36  2  0  0  0  0
 34 37  1  0  0  0  0
 35 36  1  0  0  0  0
 35 68  1  0  0  0  0
 36 69  1  0  0  0  0
 38 39  1  0  0  0  0
M  END
> <PUBCHEM_COMPOUND_CID>
44350782

> <PUBCHEM_COMPOUND_CANONICALIZED>
1

> <PUBCHEM_CACTVS_COMPLEXITY>
692

> <PUBCHEM_CACTVS_HBOND_ACCEPTOR>
11

> <PUBCHEM_CACTVS_HBOND_DONOR>
3

> <PUBCHEM_CACTVS_ROTATABLE_BOND>
10

> <PUBCHEM_CACTVS_SUBSKEYS>
AAADcfB7OYAAAAAAAAAAAAAAAAAAAAAAAAA8YIAAAAAAAAABQAAAHwAQCAAADAzBmBYyzoPABgCIAiXSWAKCCAAhIgAIiIBPbMgPZiLEsZuVMChk1hHZ6YeQwEAOAAACAAAAEAAAAAQAAAAgAAAAAAAAAA==

> <PUBCHEM_IUPAC_OPENEYE_NAME>
(E)-N-[4-[4-(2-methoxyphenyl)piperazin-1-yl]butyl]-3-[3-(trifluoromethyl)phenyl]prop-2-enamide;oxalic acid

> <PUBCHEM_IUPAC_CAS_NAME>
(E)-N-[4-[4-(2-methoxyphenyl)-1-piperazinyl]butyl]-3-[3-(trifluoromethyl)phenyl]-2-propenamide;oxalic acid

> <PUBCHEM_IUPAC_NAME_MARKUP>
(<I>E</I>)-<I>N</I>-[4-[4-(2-methoxyphenyl)piperazin-1-yl]butyl]-3-[3-(trifluoromethyl)phenyl]prop-2-enamide;oxalic acid

> <PUBCHEM_IUPAC_NAME>
(E)-N-[4-[4-(2-methoxyphenyl)piperazin-1-yl]butyl]-3-[3-(trifluoromethyl)phenyl]prop-2-enamide;oxalic acid

> <PUBCHEM_IUPAC_SYSTEMATIC_NAME>
ethanedioic acid;(E)-N-[4-[4-(2-methoxyphenyl)piperazin-1-yl]butyl]-3-[3-(trifluoromethyl)phenyl]prop-2-enamide

> <PUBCHEM_IUPAC_TRADITIONAL_NAME>
(E)-N-[4-[4-(2-methoxyphenyl)piperazino]butyl]-3-[3-(trifluoromethyl)phenyl]acrylamide;oxalic acid

> <PUBCHEM_IUPAC_INCHI>
InChI=1S/C25H30F3N3O2.C2H2O4/c1-33-23-10-3-2-9-22(23)31-17-15-30(16-18-31)14-5-4-13-29-24(32)12-11-20-7-6-8-21(19-20)25(26,27)28;3-1(4)2(5)6/h2-3,6-12,19H,4-5,13-18H2,1H3,(H,29,32);(H,3,4)(H,5,6)/b12-11+;

> <PUBCHEM_IUPAC_INCHIKEY>
VFZJFAHWNRCGNG-CALJPSDSSA-N

> <PUBCHEM_EXACT_MASS>
551.22432024

> <PUBCHEM_MOLECULAR_FORMULA>
C27H32F3N3O6

> <PUBCHEM_MOLECULAR_WEIGHT>
551.6

> <PUBCHEM_OPENEYE_CAN_SMILES>
COC1=CC=CC=C1N2CCN(CC2)CCCCNC(=O)C=CC3=CC(=CC=C3)C(F)(F)F.C(=O)(C(=O)O)O

> <PUBCHEM_OPENEYE_ISO_SMILES>
COC1=CC=CC=C1N2CCN(CC2)CCCCNC(=O)/C=C/C3=CC(=CC=C3)C(F)(F)F.C(=O)(C(=O)O)O

> <PUBCHEM_CACTVS_TPSA>
119

> <PUBCHEM_MONOISOTOPIC_WEIGHT>
551.22432024

> <PUBCHEM_TOTAL_CHARGE>
0

> <PUBCHEM_HEAVY_ATOM_COUNT>
39

> <PUBCHEM_ATOM_DEF_STEREO_COUNT>
0

> <PUBCHEM_ATOM_UDEF_STEREO_COUNT>
0

> <PUBCHEM_BOND_DEF_STEREO_COUNT>
1

> <PUBCHEM_BOND_UDEF_STEREO_COUNT>
0

> <PUBCHEM_ISOTOPIC_ATOM_COUNT>
0

> <PUBCHEM_COMPONENT_COUNT>
2

> <PUBCHEM_CACTVS_TAUTO_COUNT>
-1

> <PUBCHEM_COORDINATE_TYPE>
1
5
255

> <PUBCHEM_BONDANNOTATIONS>
19  22  8
19  23  8
22  24  8
23  25  8
24  26  8
25  26  8
31  32  8
31  33  8
32  34  8
33  35  8
34  36  8
35  36  8

$$$$
