49798873
  -OEChem-09292322302D

 73 77  0     1  0  0  0  0  0999 V2000
   14.4751    2.6803    0.0000 F   0  0  0  0  0  0  0  0  0  0  0  0
    7.2578    1.1049    0.0000 O   0  0  0  0  0  0  0  0  0  0  0  0
    3.1472    0.4240    0.0000 O   0  0  0  0  0  0  0  0  0  0  0  0
    8.5366   10.1157    0.0000 O   0  0  0  0  0  0  0  0  0  0  0  0
    5.9385   10.6157    0.0000 O   0  0  0  0  0  0  0  0  0  0  0  0
    7.6706   11.6157    0.0000 O   0  0  0  0  0  0  0  0  0  0  0  0
    6.8045    9.1157    0.0000 O   0  0  0  0  0  0  0  0  0  0  0  0
    7.5669    3.6739    0.0000 N   0  0  3  0  0  0  0  0  0  0  0  0
    4.9791    2.8649    0.0000 N   0  0  0  0  0  0  0  0  0  0  0  0
    8.5179    2.3649    0.0000 N   0  0  0  0  0  0  0  0  0  0  0  0
   10.4484    3.1620    0.0000 N   0  0  0  0  0  0  0  0  0  0  0  0
   11.8497    2.3530    0.0000 N   0  0  0  0  0  0  0  0  0  0  0  0
   11.4429    3.2666    0.0000 N   0  0  0  0  0  0  0  0  0  0  0  0
    6.9791    2.8649    0.0000 C   0  0  0  0  0  0  0  0  0  0  0  0
    6.4791    3.7310    0.0000 C   0  0  0  0  0  0  0  0  0  0  0  0
    6.4791    1.9989    0.0000 C   0  0  0  0  0  0  0  0  0  0  0  0
    5.4791    3.7310    0.0000 C   0  0  0  0  0  0  0  0  0  0  0  0
    5.4791    1.9989    0.0000 C   0  0  0  0  0  0  0  0  0  0  0  0
    7.5669    2.0559    0.0000 C   0  0  0  0  0  0  0  0  0  0  0  0
    8.5179    3.3649    0.0000 C   0  0  0  0  0  0  0  0  0  0  0  0
    7.2578    4.6250    0.0000 C   0  0  0  0  0  0  0  0  0  0  0  0
    3.9791    2.8649    0.0000 C   0  0  0  0  0  0  0  0  0  0  0  0
    9.3269    1.7771    0.0000 C   0  0  0  0  0  0  0  0  0  0  0  0
    3.4791    1.9989    0.0000 C   0  0  0  0  0  0  0  0  0  0  0  0
    7.9270    5.3681    0.0000 C   0  0  0  0  0  0  0  0  0  0  0  0
    6.2797    4.8329    0.0000 C   0  0  0  0  0  0  0  0  0  0  0  0
   10.2405    2.1839    0.0000 C   0  0  0  0  0  0  0  0  0  0  0  0
    2.4904    1.8958    0.0000 C   0  0  0  0  0  0  0  0  0  0  0  0
    7.6180    6.3192    0.0000 C   0  0  0  0  0  0  0  0  0  0  0  0
    5.9707    5.7840    0.0000 C   0  0  0  0  0  0  0  0  0  0  0  0
    3.8842    1.0911    0.0000 C   0  0  0  0  0  0  0  0  0  0  0  0
   11.1065    1.6839    0.0000 C   0  0  0  0  0  0  0  0  0  0  0  0
    6.6398    6.5271    0.0000 C   0  0  0  0  0  0  0  0  0  0  0  0
    2.2841    0.9173    0.0000 C   0  0  0  0  0  0  0  0  0  0  0  0
    1.7461    2.5637    0.0000 C   0  0  0  0  0  0  0  0  0  0  0  0
    1.3336    0.6067    0.0000 C   0  0  0  0  0  0  0  0  0  0  0  0
   12.8278    2.1451    0.0000 C   0  0  0  0  0  0  0  0  0  0  0  0
    0.7955    2.2530    0.0000 C   0  0  0  0  0  0  0  0  0  0  0  0
    0.5893    1.2745    0.0000 C   0  0  0  0  0  0  0  0  0  0  0  0
   13.4969    2.8882    0.0000 C   0  0  0  0  0  0  0  0  0  0  0  0
    7.6706   10.6157    0.0000 C   0  0  0  0  0  0  0  0  0  0  0  0
    6.8045   10.1157    0.0000 C   0  0  0  0  0  0  0  0  0  0  0  0
    7.0617    3.9430    0.0000 H   0  0  0  0  0  0  0  0  0  0  0  0
    6.3714    4.3415    0.0000 H   0  0  0  0  0  0  0  0  0  0  0  0
    6.3714    1.3883    0.0000 H   0  0  0  0  0  0  0  0  0  0  0  0
    7.0617    1.7868    0.0000 H   0  0  0  0  0  0  0  0  0  0  0  0
    5.5868    4.3415    0.0000 H   0  0  0  0  0  0  0  0  0  0  0  0
    4.8965    3.9430    0.0000 H   0  0  0  0  0  0  0  0  0  0  0  0
    4.8965    1.7868    0.0000 H   0  0  0  0  0  0  0  0  0  0  0  0
    5.5868    1.3883    0.0000 H   0  0  0  0  0  0  0  0  0  0  0  0
    9.1345    3.3001    0.0000 H   0  0  0  0  0  0  0  0  0  0  0  0
    8.6468    3.9714    0.0000 H   0  0  0  0  0  0  0  0  0  0  0  0
    4.0868    3.4755    0.0000 H   0  0  0  0  0  0  0  0  0  0  0  0
    3.3965    3.0770    0.0000 H   0  0  0  0  0  0  0  0  0  0  0  0
    8.8810    1.3464    0.0000 H   0  0  0  0  0  0  0  0  0  0  0  0
    9.6736    1.2631    0.0000 H   0  0  0  0  0  0  0  0  0  0  0  0
    8.5334    5.2392    0.0000 H   0  0  0  0  0  0  0  0  0  0  0  0
    5.8648    4.3722    0.0000 H   0  0  0  0  0  0  0  0  0  0  0  0
    8.0328    6.7800    0.0000 H   0  0  0  0  0  0  0  0  0  0  0  0
    5.3642    5.9129    0.0000 H   0  0  0  0  0  0  0  0  0  0  0  0
    4.4909    0.9633    0.0000 H   0  0  0  0  0  0  0  0  0  0  0  0
   11.1713    1.0673    0.0000 H   0  0  0  0  0  0  0  0  0  0  0  0
    6.4482    7.1168    0.0000 H   0  0  0  0  0  0  0  0  0  0  0  0
    1.8739    3.1704    0.0000 H   0  0  0  0  0  0  0  0  0  0  0  0
    1.2058    0.0000    0.0000 H   0  0  0  0  0  0  0  0  0  0  0  0
   12.5956    1.5702    0.0000 H   0  0  0  0  0  0  0  0  0  0  0  0
   13.3536    1.8165    0.0000 H   0  0  0  0  0  0  0  0  0  0  0  0
    0.3341    2.6671    0.0000 H   0  0  0  0  0  0  0  0  0  0  0  0
    0.0000    1.0819    0.0000 H   0  0  0  0  0  0  0  0  0  0  0  0
   13.7292    3.4631    0.0000 H   0  0  0  0  0  0  0  0  0  0  0  0
   12.9711    3.2168    0.0000 H   0  0  0  0  0  0  0  0  0  0  0  0
    9.0735   10.4257    0.0000 H   0  0  0  0  0  0  0  0  0  0  0  0
    5.4016   10.3057    0.0000 H   0  0  0  0  0  0  0  0  0  0  0  0
  1 40  1  0  0  0  0
  2 19  2  0  0  0  0
  3 31  1  0  0  0  0
  3 34  1  0  0  0  0
  4 41  1  0  0  0  0
  4 72  1  0  0  0  0
  5 42  1  0  0  0  0
  5 73  1  0  0  0  0
  6 41  2  0  0  0  0
  7 42  2  0  0  0  0
  8 14  1  0  0  0  0
  8 20  1  0  0  0  0
  8 21  1  0  0  0  0
  9 17  1  0  0  0  0
  9 18  1  0  0  0  0
  9 22  1  0  0  0  0
 10 19  1  0  0  0  0
 10 20  1  0  0  0  0
 10 23  1  0  0  0  0
 11 13  2  0  0  0  0
 11 27  1  0  0  0  0
 12 13  1  0  0  0  0
 12 32  1  0  0  0  0
 12 37  1  0  0  0  0
 14 15  1  0  0  0  0
 14 16  1  0  0  0  0
 14 19  1  0  0  0  0
 15 17  1  0  0  0  0
 15 43  1  0  0  0  0
 15 44  1  0  0  0  0
 16 18  1  0  0  0  0
 16 45  1  0  0  0  0
 16 46  1  0  0  0  0
 17 47  1  0  0  0  0
 17 48  1  0  0  0  0
 18 49  1  0  0  0  0
 18 50  1  0  0  0  0
 20 51  1  0  0  0  0
 20 52  1  0  0  0  0
 21 25  2  0  0  0  0
 21 26  1  0  0  0  0
 22 24  1  0  0  0  0
 22 53  1  0  0  0  0
 22 54  1  0  0  0  0
 23 27  1  0  0  0  0
 23 55  1  0  0  0  0
 23 56  1  0  0  0  0
 24 28  1  0  0  0  0
 24 31  2  0  0  0  0
 25 29  1  0  0  0  0
 25 57  1  0  0  0  0
 26 30  2  0  0  0  0
 26 58  1  0  0  0  0
 27 32  2  0  0  0  0
 28 34  1  0  0  0  0
 28 35  2  0  0  0  0
 29 33  2  0  0  0  0
 29 59  1  0  0  0  0
 30 33  1  0  0  0  0
 30 60  1  0  0  0  0
 31 61  1  0  0  0  0
 32 62  1  0  0  0  0
 33 63  1  0  0  0  0
 34 36  2  0  0  0  0
 35 38  1  0  0  0  0
 35 64  1  0  0  0  0
 36 39  1  0  0  0  0
 36 65  1  0  0  0  0
 37 40  1  0  0  0  0
 37 66  1  0  0  0  0
 37 67  1  0  0  0  0
 38 39  2  0  0  0  0
 38 68  1  0  0  0  0
 39 69  1  0  0  0  0
 40 70  1  0  0  0  0
 40 71  1  0  0  0  0
 41 42  1  0  0  0  0
M  END
> <PUBCHEM_COMPOUND_CID>
49798873

> <PUBCHEM_COMPOUND_CANONICALIZED>
1

> <PUBCHEM_CACTVS_COMPLEXITY>
830

> <PUBCHEM_CACTVS_HBOND_ACCEPTOR>
11

> <PUBCHEM_CACTVS_HBOND_DONOR>
2

> <PUBCHEM_CACTVS_ROTATABLE_BOND>
8

> <PUBCHEM_CACTVS_SUBSKEYS>
AAADceB7uQAAAAAAAAAAAAAAAAAAAWLEgAA8YIAAAAAAAEgB/AAAHwAICAAADIzhngY9ztMIBkCqA7333AKCDAQ1sgAY2AH+fMiNZjrE9buWOSjuxxPJ6ae8yOCOgAAAAAAIAAAAAAAAABAAAAAAAAAAAA==

> <PUBCHEM_IUPAC_OPENEYE_NAME>
8-(benzofuran-3-ylmethyl)-3-[[1-(2-fluoroethyl)triazol-4-yl]methyl]-1-phenyl-1,3,8-triazaspiro[4.5]decan-4-one;oxalic acid

> <PUBCHEM_IUPAC_CAS_NAME>
8-(3-benzofuranylmethyl)-3-[[1-(2-fluoroethyl)-4-triazolyl]methyl]-1-phenyl-1,3,8-triazaspiro[4.5]decan-4-one;oxalic acid

> <PUBCHEM_IUPAC_NAME_MARKUP>
8-(1-benzofuran-3-ylmethyl)-3-[[1-(2-fluoroethyl)triazol-4-yl]methyl]-1-phenyl-1,3,8-triazaspiro[4.5]decan-4-one;oxalic acid

> <PUBCHEM_IUPAC_NAME>
8-(1-benzofuran-3-ylmethyl)-3-[[1-(2-fluoroethyl)triazol-4-yl]methyl]-1-phenyl-1,3,8-triazaspiro[4.5]decan-4-one;oxalic acid

> <PUBCHEM_IUPAC_SYSTEMATIC_NAME>
8-(1-benzofuran-3-ylmethyl)-3-[[1-(2-fluoranylethyl)-1,2,3-triazol-4-yl]methyl]-1-phenyl-1,3,8-triazaspiro[4.5]decan-4-one;ethanedioic acid

> <PUBCHEM_IUPAC_TRADITIONAL_NAME>
8-(benzofuran-3-ylmethyl)-3-[[1-(2-fluoroethyl)triazol-4-yl]methyl]-1-phenyl-1,3,8-triazaspiro[4.5]decan-4-one;oxalic acid

> <PUBCHEM_IUPAC_INCHI>
InChI=1S/C27H29FN6O2.C2H2O4/c28-12-15-33-18-22(29-30-33)17-32-20-34(23-6-2-1-3-7-23)27(26(32)35)10-13-31(14-11-27)16-21-19-36-25-9-5-4-8-24(21)25;3-1(4)2(5)6/h1-9,18-19H,10-17,20H2;(H,3,4)(H,5,6)

> <PUBCHEM_IUPAC_INCHIKEY>
NJFCJRDSPUZVQE-UHFFFAOYSA-N

> <PUBCHEM_EXACT_MASS>
578.22891089

> <PUBCHEM_MOLECULAR_FORMULA>
C29H31FN6O6

> <PUBCHEM_MOLECULAR_WEIGHT>
578.6

> <PUBCHEM_OPENEYE_CAN_SMILES>
C1CN(CCC12C(=O)N(CN2C3=CC=CC=C3)CC4=CN(N=N4)CCF)CC5=COC6=CC=CC=C65.C(=O)(C(=O)O)O

> <PUBCHEM_OPENEYE_ISO_SMILES>
C1CN(CCC12C(=O)N(CN2C3=CC=CC=C3)CC4=CN(N=N4)CCF)CC5=COC6=CC=CC=C65.C(=O)(C(=O)O)O

> <PUBCHEM_CACTVS_TPSA>
145

> <PUBCHEM_MONOISOTOPIC_WEIGHT>
578.22891089

> <PUBCHEM_TOTAL_CHARGE>
0

> <PUBCHEM_HEAVY_ATOM_COUNT>
42

> <PUBCHEM_ATOM_DEF_STEREO_COUNT>
0

> <PUBCHEM_ATOM_UDEF_STEREO_COUNT>
0

> <PUBCHEM_BOND_DEF_STEREO_COUNT>
0

> <PUBCHEM_BOND_UDEF_STEREO_COUNT>
0

> <PUBCHEM_ISOTOPIC_ATOM_COUNT>
0

> <PUBCHEM_COMPONENT_COUNT>
2

> <PUBCHEM_CACTVS_TAUTO_COUNT>
-1

> <PUBCHEM_COORDINATE_TYPE>
1
5
255

> <PUBCHEM_BONDANNOTATIONS>
11  13  8
11  27  8
12  13  8
12  32  8
21  25  8
21  26  8
24  28  8
24  31  8
25  29  8
26  30  8
27  32  8
28  34  8
28  35  8
29  33  8
3  31  8
3  34  8
30  33  8
34  36  8
35  38  8
36  39  8
38  39  8

$$$$
