71541076
  -OEChem-09292322052D

 31 33  0     1  0  0  0  0  0999 V2000
    4.1087   -1.9721    0.0000 S   0  0  0  0  0  0  0  0  0  0  0  0
    5.8262    2.6121    0.0000 N   0  0  3  0  0  0  0  0  0  0  0  0
    2.7149   -1.1674    0.0000 N   0  0  0  0  0  0  0  0  0  0  0  0
    2.6200   -2.9412    0.0000 N   0  0  0  0  0  0  0  0  0  0  0  0
    6.0945    0.8641    0.0000 C   0  0  0  0  0  0  0  0  0  0  0  0
    4.1783    1.9705    0.0000 C   0  0  0  0  0  0  0  0  0  0  0  0
    6.3798    1.8025    0.0000 C   0  0  0  0  0  0  0  0  0  0  0  0
    4.8483    2.6868    0.0000 C   0  0  0  0  0  0  0  0  0  0  0  0
    5.1840    0.4997    0.0000 C   0  0  0  0  0  0  0  0  0  0  0  0
    4.3179    0.9997    0.0000 C   0  0  0  0  0  0  0  0  0  0  0  0
    5.1840   -0.5003    0.0000 C   0  0  0  0  0  0  0  0  0  0  0  0
    3.4519    0.4997    0.0000 C   0  0  0  0  0  0  0  0  0  0  0  0
    4.3179   -1.0003    0.0000 C   0  0  0  0  0  0  0  0  0  0  0  0
    3.4519   -0.5003    0.0000 C   0  0  0  0  0  0  0  0  0  0  0  0
    6.3262    3.4782    0.0000 C   0  0  0  0  0  0  0  0  0  0  0  0
    3.1200   -2.0752    0.0000 C   0  0  0  0  0  0  0  0  0  0  0  0
    6.1905    0.2516    0.0000 H   0  0  0  0  0  0  0  0  0  0  0  0
    6.7130    0.8208    0.0000 H   0  0  0  0  0  0  0  0  0  0  0  0
    3.8316    2.4845    0.0000 H   0  0  0  0  0  0  0  0  0  0  0  0
    3.5998    1.7473    0.0000 H   0  0  0  0  0  0  0  0  0  0  0  0
    6.9177    1.4942    0.0000 H   0  0  0  0  0  0  0  0  0  0  0  0
    6.8005    2.2580    0.0000 H   0  0  0  0  0  0  0  0  0  0  0  0
    5.0324    3.2788    0.0000 H   0  0  0  0  0  0  0  0  0  0  0  0
    4.3123    2.9984    0.0000 H   0  0  0  0  0  0  0  0  0  0  0  0
    5.7209   -0.8103    0.0000 H   0  0  0  0  0  0  0  0  0  0  0  0
    2.9150    0.8097    0.0000 H   0  0  0  0  0  0  0  0  0  0  0  0
    6.8632    3.1682    0.0000 H   0  0  0  0  0  0  0  0  0  0  0  0
    6.6362    4.0151    0.0000 H   0  0  0  0  0  0  0  0  0  0  0  0
    5.7893    3.7882    0.0000 H   0  0  0  0  0  0  0  0  0  0  0  0
    2.0000   -2.9412    0.0000 H   0  0  0  0  0  0  0  0  0  0  0  0
    2.9300   -3.4782    0.0000 H   0  0  0  0  0  0  0  0  0  0  0  0
  1 13  1  0  0  0  0
  1 16  1  0  0  0  0
  2  7  1  0  0  0  0
  2  8  1  0  0  0  0
  2 15  1  0  0  0  0
  3 14  1  0  0  0  0
  3 16  2  0  0  0  0
  4 16  1  0  0  0  0
  4 30  1  0  0  0  0
  4 31  1  0  0  0  0
  5  7  1  0  0  0  0
  5  9  1  0  0  0  0
  5 17  1  0  0  0  0
  5 18  1  0  0  0  0
  6  8  1  0  0  0  0
  6 10  1  0  0  0  0
  6 19  1  0  0  0  0
  6 20  1  0  0  0  0
  7 21  1  0  0  0  0
  7 22  1  0  0  0  0
  8 23  1  0  0  0  0
  8 24  1  0  0  0  0
  9 10  1  0  0  0  0
  9 11  2  0  0  0  0
 10 12  2  0  0  0  0
 11 13  1  0  0  0  0
 11 25  1  0  0  0  0
 12 14  1  0  0  0  0
 12 26  1  0  0  0  0
 13 14  2  0  0  0  0
 15 27  1  0  0  0  0
 15 28  1  0  0  0  0
 15 29  1  0  0  0  0
M  END
> <PUBCHEM_COMPOUND_CID>
71541076

> <PUBCHEM_COMPOUND_CANONICALIZED>
1

> <PUBCHEM_CACTVS_COMPLEXITY>
261

> <PUBCHEM_CACTVS_HBOND_ACCEPTOR>
4

> <PUBCHEM_CACTVS_HBOND_DONOR>
1

> <PUBCHEM_CACTVS_ROTATABLE_BOND>
0

> <PUBCHEM_CACTVS_SUBSKEYS>
AAADccBzAABAAAAAAAAAAAAAAAAAAWAAAAAwAAAABYAAAFgB8AAAHAQQAAAADAjBXgQz0bNIEAikAyRiZACD8KlhCjlAmDw4ZJiIIKLgkZGEIAhggALIyCcQgIAOmAAAwAAQAQAwAAGAACACAAAAAAAAAA==

> <PUBCHEM_IUPAC_OPENEYE_NAME>
7-methyl-5,6,8,9-tetrahydrothiazolo[4,5-h][3]benzazepin-2-amine

> <PUBCHEM_IUPAC_CAS_NAME>
7-methyl-5,6,8,9-tetrahydrothiazolo[4,5-h][3]benzazepin-2-amine

> <PUBCHEM_IUPAC_NAME_MARKUP>
7-methyl-5,6,8,9-tetrahydro-[1,3]thiazolo[4,5-h][3]benzazepin-2-amine

> <PUBCHEM_IUPAC_NAME>
7-methyl-5,6,8,9-tetrahydro-[1,3]thiazolo[4,5-h][3]benzazepin-2-amine

> <PUBCHEM_IUPAC_SYSTEMATIC_NAME>
7-methyl-5,6,8,9-tetrahydro-[1,3]thiazolo[4,5-h][3]benzazepin-2-amine

> <PUBCHEM_IUPAC_TRADITIONAL_NAME>
(7-methyl-5,6,8,9-tetrahydrothiazolo[4,5-h][3]benzazepin-2-yl)amine

> <PUBCHEM_IUPAC_INCHI>
InChI=1S/C12H15N3S/c1-15-4-2-8-6-10-11(16-12(13)14-10)7-9(8)3-5-15/h6-7H,2-5H2,1H3,(H2,13,14)

> <PUBCHEM_IUPAC_INCHIKEY>
CVHMNBOWZFIXEJ-UHFFFAOYSA-N

> <PUBCHEM_XLOGP3_AA>
2.4

> <PUBCHEM_EXACT_MASS>
233.09866866

> <PUBCHEM_MOLECULAR_FORMULA>
C12H15N3S

> <PUBCHEM_MOLECULAR_WEIGHT>
233.33

> <PUBCHEM_OPENEYE_CAN_SMILES>
CN1CCC2=CC3=C(C=C2CC1)SC(=N3)N

> <PUBCHEM_OPENEYE_ISO_SMILES>
CN1CCC2=CC3=C(C=C2CC1)SC(=N3)N

> <PUBCHEM_CACTVS_TPSA>
70.4

> <PUBCHEM_MONOISOTOPIC_WEIGHT>
233.09866866

> <PUBCHEM_TOTAL_CHARGE>
0

> <PUBCHEM_HEAVY_ATOM_COUNT>
16

> <PUBCHEM_ATOM_DEF_STEREO_COUNT>
0

> <PUBCHEM_ATOM_UDEF_STEREO_COUNT>
0

> <PUBCHEM_BOND_DEF_STEREO_COUNT>
0

> <PUBCHEM_BOND_UDEF_STEREO_COUNT>
0

> <PUBCHEM_ISOTOPIC_ATOM_COUNT>
0

> <PUBCHEM_COMPONENT_COUNT>
1

> <PUBCHEM_CACTVS_TAUTO_COUNT>
-1

> <PUBCHEM_COORDINATE_TYPE>
1
5
255

> <PUBCHEM_BONDANNOTATIONS>
1  13  8
1  16  8
10  12  8
11  13  8
12  14  8
13  14  8
3  14  8
3  16  8
9  10  8
9  11  8

$$$$
