44578927
  -OEChem-09292322502D

 50 53  0     1  0  0  0  0  0999 V2000
    3.7319    1.7590    0.0000 O   0  0  0  0  0  0  0  0  0  0  0  0
    2.0000    1.7790    0.0000 O   0  0  0  0  0  0  0  0  0  0  0  0
    7.2046   -1.2725    0.0000 N   0  0  3  0  0  0  0  0  0  0  0  0
    6.3464   -0.7756    0.0000 C   0  0  1  0  0  0  0  0  0  0  0  0
    6.3464    0.2244    0.0000 C   0  0  0  0  0  0  0  0  0  0  0  0
    5.4803   -1.2756    0.0000 C   0  0  0  0  0  0  0  0  0  0  0  0
    8.0701   -0.7884    0.0000 C   0  0  0  0  0  0  0  0  0  0  0  0
    7.2564    0.7312    0.0000 C   0  0  0  0  0  0  0  0  0  0  0  0
    8.0957    0.2030    0.0000 C   0  0  0  0  0  0  0  0  0  0  0  0
    5.4803    0.7244    0.0000 C   0  0  0  0  0  0  0  0  0  0  0  0
    4.6143   -0.7756    0.0000 C   0  0  0  0  0  0  0  0  0  0  0  0
    7.1972   -2.2725    0.0000 C   0  0  0  0  0  0  0  0  0  0  0  0
    4.6143    0.2244    0.0000 C   0  0  0  0  0  0  0  0  0  0  0  0
    7.2644    1.7728    0.0000 C   0  0  0  0  0  0  0  0  0  0  0  0
    5.4643    1.7659    0.0000 C   0  0  0  0  0  0  0  0  0  0  0  0
    8.0595   -2.7789    0.0000 C   0  0  0  0  0  0  0  0  0  0  0  0
    3.7204    0.7591    0.0000 C   0  0  0  0  0  0  0  0  0  0  0  0
    3.7204   -1.3103    0.0000 C   0  0  0  0  0  0  0  0  0  0  0  0
    6.3623    2.2936    0.0000 C   0  0  0  0  0  0  0  0  0  0  0  0
    2.8143    0.2452    0.0000 C   0  0  0  0  0  0  0  0  0  0  0  0
    2.8143   -0.7964    0.0000 C   0  0  0  0  0  0  0  0  0  0  0  0
    8.0521   -3.7789    0.0000 C   0  0  0  0  0  0  0  0  0  0  0  0
    2.8718    2.2690    0.0000 C   0  0  0  0  0  0  0  0  0  0  0  0
    2.8833    3.2689    0.0000 C   0  0  0  0  0  0  0  0  0  0  0  0
    2.0231    3.7789    0.0000 C   0  0  0  0  0  0  0  0  0  0  0  0
    6.3458   -1.6256    0.0000 H   0  0  0  0  0  0  0  0  0  0  0  0
    5.0818   -1.7506    0.0000 H   0  0  0  0  0  0  0  0  0  0  0  0
    5.8789   -1.7506    0.0000 H   0  0  0  0  0  0  0  0  0  0  0  0
    8.2718   -1.3746    0.0000 H   0  0  0  0  0  0  0  0  0  0  0  0
    8.6828   -0.6940    0.0000 H   0  0  0  0  0  0  0  0  0  0  0  0
    8.7028    0.0771    0.0000 H   0  0  0  0  0  0  0  0  0  0  0  0
    8.3274    0.7781    0.0000 H   0  0  0  0  0  0  0  0  0  0  0  0
    6.5874   -2.1603    0.0000 H   0  0  0  0  0  0  0  0  0  0  0  0
    6.9808   -2.8535    0.0000 H   0  0  0  0  0  0  0  0  0  0  0  0
    7.8025    2.0808    0.0000 H   0  0  0  0  0  0  0  0  0  0  0  0
    4.9238    2.0697    0.0000 H   0  0  0  0  0  0  0  0  0  0  0  0
    8.6692   -2.8911    0.0000 H   0  0  0  0  0  0  0  0  0  0  0  0
    8.2758   -2.1979    0.0000 H   0  0  0  0  0  0  0  0  0  0  0  0
    3.7275   -1.9302    0.0000 H   0  0  0  0  0  0  0  0  0  0  0  0
    6.3599    2.9136    0.0000 H   0  0  0  0  0  0  0  0  0  0  0  0
    2.2786    0.5573    0.0000 H   0  0  0  0  0  0  0  0  0  0  0  0
    2.2786   -1.1085    0.0000 H   0  0  0  0  0  0  0  0  0  0  0  0
    7.4321   -3.7743    0.0000 H   0  0  0  0  0  0  0  0  0  0  0  0
    8.0475   -4.3989    0.0000 H   0  0  0  0  0  0  0  0  0  0  0  0
    8.6721   -3.7835    0.0000 H   0  0  0  0  0  0  0  0  0  0  0  0
    3.4926    3.1542    0.0000 H   0  0  0  0  0  0  0  0  0  0  0  0
    3.1021    3.8490    0.0000 H   0  0  0  0  0  0  0  0  0  0  0  0
    2.3393    4.3122    0.0000 H   0  0  0  0  0  0  0  0  0  0  0  0
    1.4898    4.0951    0.0000 H   0  0  0  0  0  0  0  0  0  0  0  0
    1.7069    3.2456    0.0000 H   0  0  0  0  0  0  0  0  0  0  0  0
  1 17  1  0  0  0  0
  1 23  1  0  0  0  0
  2 23  2  0  0  0  0
  3  4  1  0  0  0  0
  3  7  1  0  0  0  0
  3 12  1  0  0  0  0
  4  5  1  0  0  0  0
  4  6  1  0  0  0  0
  4 26  1  1  0  0  0
  5  8  2  0  0  0  0
  5 10  1  0  0  0  0
  6 11  1  0  0  0  0
  6 27  1  0  0  0  0
  6 28  1  0  0  0  0
  7  9  1  0  0  0  0
  7 29  1  0  0  0  0
  7 30  1  0  0  0  0
  8  9  1  0  0  0  0
  8 14  1  0  0  0  0
  9 31  1  0  0  0  0
  9 32  1  0  0  0  0
 10 13  1  0  0  0  0
 10 15  2  0  0  0  0
 11 13  2  0  0  0  0
 11 18  1  0  0  0  0
 12 16  1  0  0  0  0
 12 33  1  0  0  0  0
 12 34  1  0  0  0  0
 13 17  1  0  0  0  0
 14 19  2  0  0  0  0
 14 35  1  0  0  0  0
 15 19  1  0  0  0  0
 15 36  1  0  0  0  0
 16 22  1  0  0  0  0
 16 37  1  0  0  0  0
 16 38  1  0  0  0  0
 17 20  2  0  0  0  0
 18 21  2  0  0  0  0
 18 39  1  0  0  0  0
 19 40  1  0  0  0  0
 20 21  1  0  0  0  0
 20 41  1  0  0  0  0
 21 42  1  0  0  0  0
 22 43  1  0  0  0  0
 22 44  1  0  0  0  0
 22 45  1  0  0  0  0
 23 24  1  0  0  0  0
 24 25  1  0  0  0  0
 24 46  1  0  0  0  0
 24 47  1  0  0  0  0
 25 48  1  0  0  0  0
 25 49  1  0  0  0  0
 25 50  1  0  0  0  0
M  END
> <PUBCHEM_COMPOUND_CID>
44578927

> <PUBCHEM_COMPOUND_CANONICALIZED>
1

> <PUBCHEM_CACTVS_COMPLEXITY>
479

> <PUBCHEM_CACTVS_HBOND_ACCEPTOR>
3

> <PUBCHEM_CACTVS_HBOND_DONOR>
0

> <PUBCHEM_CACTVS_ROTATABLE_BOND>
5

> <PUBCHEM_CACTVS_SUBSKEYS>
AAADceB6MAAAAAAAAAAAAAAAAAAAAAAAAAA8YMEAAAAAAADxQAAAHgAAAAAADCzBmAQyDoMABACIAiDSCACCCAAgIAAIiAEODIgMJiKEsRuGOijkwBGIqAeQ0PMOgAADAAAYAACQAAaAADQAAAAAAAAAAA==

> <PUBCHEM_IUPAC_OPENEYE_NAME>
[(6aR)-6-propyl-5,6,6a,7-tetrahydro-4H-dibenzo[de,g]quinolin-11-yl] propanoate

> <PUBCHEM_IUPAC_CAS_NAME>
propanoic acid [(6aR)-6-propyl-5,6,6a,7-tetrahydro-4H-dibenzo[de,g]quinolin-11-yl] ester

> <PUBCHEM_IUPAC_NAME_MARKUP>
[(6<I>a</I><I>R</I>)-6-propyl-5,6,6<I>a</I>,7-tetrahydro-4<I>H</I>-dibenzo[de,g]quinolin-11-yl] propanoate

> <PUBCHEM_IUPAC_NAME>
[(6aR)-6-propyl-5,6,6a,7-tetrahydro-4H-dibenzo[de,g]quinolin-11-yl] propanoate

> <PUBCHEM_IUPAC_SYSTEMATIC_NAME>
[(6aR)-6-propyl-5,6,6a,7-tetrahydro-4H-dibenzo[de,g]quinolin-11-yl] propanoate

> <PUBCHEM_IUPAC_TRADITIONAL_NAME>
propionic acid [(6aR)-6-propyl-5,6,6a,7-tetrahydro-4H-dibenzo[de,g]quinolin-11-yl] ester

> <PUBCHEM_IUPAC_INCHI>
InChI=1S/C22H25NO2/c1-3-12-23-13-11-15-7-5-9-17-21(15)18(23)14-16-8-6-10-19(22(16)17)25-20(24)4-2/h5-10,18H,3-4,11-14H2,1-2H3/t18-/m1/s1

> <PUBCHEM_IUPAC_INCHIKEY>
FKAOLIWLWAYCIA-GOSISDBHSA-N

> <PUBCHEM_XLOGP3_AA>
4.6

> <PUBCHEM_EXACT_MASS>
335.188529040

> <PUBCHEM_MOLECULAR_FORMULA>
C22H25NO2

> <PUBCHEM_MOLECULAR_WEIGHT>
335.4

> <PUBCHEM_OPENEYE_CAN_SMILES>
CCCN1CCC2=C3C1CC4=C(C3=CC=C2)C(=CC=C4)OC(=O)CC

> <PUBCHEM_OPENEYE_ISO_SMILES>
CCCN1CCC2=C3[C@H]1CC4=C(C3=CC=C2)C(=CC=C4)OC(=O)CC

> <PUBCHEM_CACTVS_TPSA>
29.5

> <PUBCHEM_MONOISOTOPIC_WEIGHT>
335.188529040

> <PUBCHEM_TOTAL_CHARGE>
0

> <PUBCHEM_HEAVY_ATOM_COUNT>
25

> <PUBCHEM_ATOM_DEF_STEREO_COUNT>
1

> <PUBCHEM_ATOM_UDEF_STEREO_COUNT>
0

> <PUBCHEM_BOND_DEF_STEREO_COUNT>
0

> <PUBCHEM_BOND_UDEF_STEREO_COUNT>
0

> <PUBCHEM_ISOTOPIC_ATOM_COUNT>
0

> <PUBCHEM_COMPONENT_COUNT>
1

> <PUBCHEM_CACTVS_TAUTO_COUNT>
-1

> <PUBCHEM_COORDINATE_TYPE>
1
5
255

> <PUBCHEM_BONDANNOTATIONS>
10  15  8
11  13  8
11  18  8
13  17  8
14  19  8
15  19  8
17  20  8
18  21  8
20  21  8
4  26  5
5  10  8
5  8  8
8  14  8

$$$$
