71454926
  -OEChem-09292322332D

 46 48  0     1  0  0  0  0  0999 V2000
    4.4241    0.0000    0.0000 Br  0  0  0  0  0  0  0  0  0  0  0  0
    7.5386    7.7639    0.0000 O   0  0  0  0  0  0  0  0  0  0  0  0
    9.3125    6.7398    0.0000 O   0  0  0  0  0  0  0  0  0  0  0  0
    0.5381    6.7288    0.0000 O   0  0  0  0  0  0  0  0  0  0  0  0
    4.9006    3.1600    0.0000 N   0  0  0  0  0  0  0  0  0  0  0  0
    5.7945    4.6946    0.0000 C   0  0  2  0  0  0  0  0  0  0  0  0
    5.7945    3.6946    0.0000 C   0  0  1  0  0  0  0  0  0  0  0  0
    4.9006    5.2293    0.0000 C   0  0  0  0  0  0  0  0  0  0  0  0
    3.9945    4.7155    0.0000 C   0  0  2  0  0  0  0  0  0  0  0  0
    6.6605    3.1947    0.0000 C   0  0  0  0  0  0  0  0  0  0  0  0
    6.6605    5.1946    0.0000 C   0  0  0  0  0  0  0  0  0  0  0  0
    3.9945    3.6738    0.0000 C   0  0  0  0  0  0  0  0  0  0  0  0
    7.5266    3.6946    0.0000 C   0  0  0  0  0  0  0  0  0  0  0  0
    7.5266    4.6946    0.0000 C   0  0  0  0  0  0  0  0  0  0  0  0
    3.1304    5.2188    0.0000 C   0  0  0  0  0  0  0  0  0  0  0  0
    6.6445    6.2362    0.0000 C   0  0  0  0  0  0  0  0  0  0  0  0
    8.4366    5.2015    0.0000 C   0  0  0  0  0  0  0  0  0  0  0  0
    7.5425    6.7639    0.0000 C   0  0  0  0  0  0  0  0  0  0  0  0
    8.4446    6.2431    0.0000 C   0  0  0  0  0  0  0  0  0  0  0  0
    2.2625    4.7221    0.0000 C   0  0  0  0  0  0  0  0  0  0  0  0
    3.1343    6.2188    0.0000 C   0  0  0  0  0  0  0  0  0  0  0  0
    1.3984    5.2255    0.0000 C   0  0  0  0  0  0  0  0  0  0  0  0
    2.2702    6.7221    0.0000 C   0  0  0  0  0  0  0  0  0  0  0  0
    1.4022    6.2255    0.0000 C   0  0  0  0  0  0  0  0  0  0  0  0
    5.8010    5.5446    0.0000 H   0  0  0  0  0  0  0  0  0  0  0  0
    5.8010    2.8447    0.0000 H   0  0  0  0  0  0  0  0  0  0  0  0
    5.3052    5.6991    0.0000 H   0  0  0  0  0  0  0  0  0  0  0  0
    4.5069    5.7083    0.0000 H   0  0  0  0  0  0  0  0  0  0  0  0
    3.9981    5.3354    0.0000 H   0  0  0  0  0  0  0  0  0  0  0  0
    6.2620    2.7197    0.0000 H   0  0  0  0  0  0  0  0  0  0  0  0
    7.0591    2.7197    0.0000 H   0  0  0  0  0  0  0  0  0  0  0  0
    3.3836    3.7799    0.0000 H   0  0  0  0  0  0  0  0  0  0  0  0
    3.7854    3.0901    0.0000 H   0  0  0  0  0  0  0  0  0  0  0  0
    4.9077    2.5400    0.0000 H   0  0  0  0  0  0  0  0  0  0  0  0
    7.7386    3.1120    0.0000 H   0  0  0  0  0  0  0  0  0  0  0  0
    8.1371    3.8023    0.0000 H   0  0  0  0  0  0  0  0  0  0  0  0
    6.1040    6.5399    0.0000 H   0  0  0  0  0  0  0  0  0  0  0  0
    8.9699    4.8853    0.0000 H   0  0  0  0  0  0  0  0  0  0  0  0
    2.2601    4.1022    0.0000 H   0  0  0  0  0  0  0  0  0  0  0  0
    3.6724    6.5267    0.0000 H   0  0  0  0  0  0  0  0  0  0  0  0
    0.8602    4.9176    0.0000 H   0  0  0  0  0  0  0  0  0  0  0  0
    2.2726    7.3421    0.0000 H   0  0  0  0  0  0  0  0  0  0  0  0
    8.0744    8.0760    0.0000 H   0  0  0  0  0  0  0  0  0  0  0  0
    9.8483    6.4277    0.0000 H   0  0  0  0  0  0  0  0  0  0  0  0
    0.0000    6.4209    0.0000 H   0  0  0  0  0  0  0  0  0  0  0  0
    5.4241    0.0000    0.0000 H   0  0  0  0  0  0  0  0  0  0  0  0
  1 46  1  0  0  0  0
  2 18  1  0  0  0  0
  2 43  1  0  0  0  0
  3 19  1  0  0  0  0
  3 44  1  0  0  0  0
  4 24  1  0  0  0  0
  4 45  1  0  0  0  0
  5  7  1  0  0  0  0
  5 12  1  0  0  0  0
  5 34  1  0  0  0  0
  6  7  1  0  0  0  0
  6  8  1  0  0  0  0
  6 11  1  0  0  0  0
  6 25  1  1  0  0  0
  7 10  1  0  0  0  0
  7 26  1  6  0  0  0
  8  9  1  0  0  0  0
  8 27  1  0  0  0  0
  8 28  1  0  0  0  0
  9 12  1  0  0  0  0
  9 15  1  6  0  0  0
  9 29  1  0  0  0  0
 10 13  1  0  0  0  0
 10 30  1  0  0  0  0
 10 31  1  0  0  0  0
 11 14  1  0  0  0  0
 11 16  2  0  0  0  0
 12 32  1  0  0  0  0
 12 33  1  0  0  0  0
 13 14  1  0  0  0  0
 13 35  1  0  0  0  0
 13 36  1  0  0  0  0
 14 17  2  0  0  0  0
 15 20  2  0  0  0  0
 15 21  1  0  0  0  0
 16 18  1  0  0  0  0
 16 37  1  0  0  0  0
 17 19  1  0  0  0  0
 17 38  1  0  0  0  0
 18 19  2  0  0  0  0
 20 22  1  0  0  0  0
 20 39  1  0  0  0  0
 21 23  2  0  0  0  0
 21 40  1  0  0  0  0
 22 24  2  0  0  0  0
 22 41  1  0  0  0  0
 23 24  1  0  0  0  0
 23 42  1  0  0  0  0
M  END
> <PUBCHEM_COMPOUND_CID>
71454926

> <PUBCHEM_COMPOUND_CANONICALIZED>
1

> <PUBCHEM_CACTVS_COMPLEXITY>
409

> <PUBCHEM_CACTVS_HBOND_ACCEPTOR>
4

> <PUBCHEM_CACTVS_HBOND_DONOR>
5

> <PUBCHEM_CACTVS_ROTATABLE_BOND>
1

> <PUBCHEM_CACTVS_SUBSKEYS>
AAADceB6MAAAEAAAAAAAAAAAAAAAAAAAAAA8YMEAAAAAAADxQAAAHgAQCAAADSzBmAQwBoLAAgCAAiBCAAACAAAgIAAIiIAOiIgJJiKCkROEcAEk0BGJmAeQ0PMOoAABAAAQQABQAAaAACSAAAAAAAAAAA==

> <PUBCHEM_IUPAC_OPENEYE_NAME>
(2S,4aR,10bR)-2-(4-hydroxyphenyl)-1,2,3,4,4a,5,6,10b-octahydrobenzo[f]quinoline-8,9-diol;hydrobromide

> <PUBCHEM_IUPAC_CAS_NAME>
(2S,4aR,10bR)-2-(4-hydroxyphenyl)-1,2,3,4,4a,5,6,10b-octahydrobenzo[f]quinoline-8,9-diol;hydrobromide

> <PUBCHEM_IUPAC_NAME_MARKUP>
(2<I>S</I>,4<I>a</I><I>R</I>,10<I>b</I><I>R</I>)-2-(4-hydroxyphenyl)-1,2,3,4,4<I>a</I>,5,6,10<I>b</I>-octahydrobenzo[f]quinoline-8,9-diol;hydrobromide

> <PUBCHEM_IUPAC_NAME>
(2S,4aR,10bR)-2-(4-hydroxyphenyl)-1,2,3,4,4a,5,6,10b-octahydrobenzo[f]quinoline-8,9-diol;hydrobromide

> <PUBCHEM_IUPAC_SYSTEMATIC_NAME>
(2S,4aR,10bR)-2-(4-hydroxyphenyl)-1,2,3,4,4a,5,6,10b-octahydrobenzo[f]quinoline-8,9-diol;hydrobromide

> <PUBCHEM_IUPAC_TRADITIONAL_NAME>
(2S,4aR,10bR)-2-(4-hydroxyphenyl)-1,2,3,4,4a,5,6,10b-octahydrobenzo[f]quinoline-8,9-diol;hydrobromide

> <PUBCHEM_IUPAC_INCHI>
InChI=1S/C19H21NO3.BrH/c21-14-4-1-11(2-5-14)13-7-16-15-9-19(23)18(22)8-12(15)3-6-17(16)20-10-13;/h1-2,4-5,8-9,13,16-17,20-23H,3,6-7,10H2;1H/t13-,16-,17-;/m1./s1

> <PUBCHEM_IUPAC_INCHIKEY>
HVXKRBGIMSFFEJ-WGUYJYMSSA-N

> <PUBCHEM_EXACT_MASS>
391.07831

> <PUBCHEM_MOLECULAR_FORMULA>
C19H22BrNO3

> <PUBCHEM_MOLECULAR_WEIGHT>
392.3

> <PUBCHEM_OPENEYE_CAN_SMILES>
C1CC2=CC(=C(C=C2C3C1NCC(C3)C4=CC=C(C=C4)O)O)O.Br

> <PUBCHEM_OPENEYE_ISO_SMILES>
C1CC2=CC(=C(C=C2[C@@H]3[C@@H]1NC[C@@H](C3)C4=CC=C(C=C4)O)O)O.Br

> <PUBCHEM_CACTVS_TPSA>
72.7

> <PUBCHEM_MONOISOTOPIC_WEIGHT>
391.07831

> <PUBCHEM_TOTAL_CHARGE>
0

> <PUBCHEM_HEAVY_ATOM_COUNT>
24

> <PUBCHEM_ATOM_DEF_STEREO_COUNT>
3

> <PUBCHEM_ATOM_UDEF_STEREO_COUNT>
0

> <PUBCHEM_BOND_DEF_STEREO_COUNT>
0

> <PUBCHEM_BOND_UDEF_STEREO_COUNT>
0

> <PUBCHEM_ISOTOPIC_ATOM_COUNT>
0

> <PUBCHEM_COMPONENT_COUNT>
2

> <PUBCHEM_CACTVS_TAUTO_COUNT>
-1

> <PUBCHEM_COORDINATE_TYPE>
1
5
255

> <PUBCHEM_BONDANNOTATIONS>
11  14  8
11  16  8
14  17  8
15  20  8
15  21  8
16  18  8
17  19  8
18  19  8
20  22  8
21  23  8
22  24  8
23  24  8
6  25  5
7  26  6
9  15  6

$$$$
