44454340
  -OEChem-09292322492D

 72 77  0     1  0  0  0  0  0999 V2000
    5.2062    1.5961    0.0000 S   0  0  0  0  0  0  0  0  0  0  0  0
    4.1566   -7.1966    0.0000 O   0  0  0  0  0  0  0  0  0  0  0  0
    5.2062   -1.8680    0.0000 N   0  0  3  0  0  0  0  0  0  0  0  0
    2.5000   -6.5554    0.0000 N   0  0  0  0  0  0  0  0  0  0  0  0
    5.2995    3.3757    0.0000 N   0  0  0  0  0  0  0  0  0  0  0  0
    6.7008    2.5666    0.0000 N   0  0  0  0  0  0  0  0  0  0  0  0
    6.9087    3.5448    0.0000 N   0  0  0  0  0  0  0  0  0  0  0  0
    7.4758    7.2468    0.0000 N   0  0  0  0  0  0  0  0  0  0  0  0
    5.7062   -1.0020    0.0000 C   0  0  3  0  0  0  0  0  0  0  0  0
    4.2283   -1.7934    0.0000 C   0  0  0  0  0  0  0  0  0  0  0  0
    5.7598   -2.6776    0.0000 C   0  0  0  0  0  0  0  0  0  0  0  0
    3.5583   -2.5097    0.0000 C   0  0  0  0  0  0  0  0  0  0  0  0
    5.4745   -3.6160    0.0000 C   0  0  0  0  0  0  0  0  0  0  0  0
    3.6979   -3.4805    0.0000 C   0  0  0  0  0  0  0  0  0  0  0  0
    4.5640   -3.9805    0.0000 C   0  0  0  0  0  0  0  0  0  0  0  0
    5.2062   -0.1360    0.0000 C   0  0  0  0  0  0  0  0  0  0  0  0
    2.8319   -4.9805    0.0000 C   0  0  0  0  0  0  0  0  0  0  0  0
    2.8319   -3.9805    0.0000 C   0  0  0  0  0  0  0  0  0  0  0  0
    3.6979   -5.4805    0.0000 C   0  0  0  0  0  0  0  0  0  0  0  0
    4.5640   -4.9805    0.0000 C   0  0  0  0  0  0  0  0  0  0  0  0
    6.7062   -1.0020    0.0000 C   0  0  0  0  0  0  0  0  0  0  0  0
    2.0949   -5.6476    0.0000 C   0  0  0  0  0  0  0  0  0  0  0  0
    3.4887   -6.4523    0.0000 C   0  0  0  0  0  0  0  0  0  0  0  0
    5.7062    0.7301    0.0000 C   0  0  0  0  0  0  0  0  0  0  0  0
    2.0000   -7.4214    0.0000 C   0  0  0  0  0  0  0  0  0  0  0  0
    5.7062    2.4621    0.0000 C   0  0  0  0  0  0  0  0  0  0  0  0
    6.0426    4.0448    0.0000 C   0  0  0  0  0  0  0  0  0  0  0  0
    5.9381    5.0393    0.0000 C   0  0  0  0  0  0  0  0  0  0  0  0
    4.3214    3.5836    0.0000 C   0  0  0  0  0  0  0  0  0  0  0  0
    6.7471    5.6271    0.0000 C   0  0  0  0  0  0  0  0  0  0  0  0
    5.0246    5.4460    0.0000 C   0  0  0  0  0  0  0  0  0  0  0  0
    6.6426    6.6216    0.0000 C   0  0  0  0  0  0  0  0  0  0  0  0
    7.6921    5.1888    0.0000 C   0  0  0  0  0  0  0  0  0  0  0  0
    4.9200    6.4406    0.0000 C   0  0  0  0  0  0  0  0  0  0  0  0
    5.7291    7.0284    0.0000 C   0  0  0  0  0  0  0  0  0  0  0  0
    8.5394    5.7946    0.0000 C   0  0  0  0  0  0  0  0  0  0  0  0
    8.4306    6.8305    0.0000 C   0  0  0  0  0  0  0  0  0  0  0  0
    9.2373    7.4214    0.0000 C   0  0  0  0  0  0  0  0  0  0  0  0
    6.0162   -1.5389    0.0000 H   0  0  0  0  0  0  0  0  0  0  0  0
    4.4124   -1.2014    0.0000 H   0  0  0  0  0  0  0  0  0  0  0  0
    3.6923   -1.4817    0.0000 H   0  0  0  0  0  0  0  0  0  0  0  0
    6.2977   -2.9860    0.0000 H   0  0  0  0  0  0  0  0  0  0  0  0
    6.1805   -2.2222    0.0000 H   0  0  0  0  0  0  0  0  0  0  0  0
    3.2116   -1.9957    0.0000 H   0  0  0  0  0  0  0  0  0  0  0  0
    2.9798   -2.7328    0.0000 H   0  0  0  0  0  0  0  0  0  0  0  0
    5.5705   -4.2285    0.0000 H   0  0  0  0  0  0  0  0  0  0  0  0
    6.0930   -3.6593    0.0000 H   0  0  0  0  0  0  0  0  0  0  0  0
    4.7313    0.2626    0.0000 H   0  0  0  0  0  0  0  0  0  0  0  0
    4.7313   -0.5345    0.0000 H   0  0  0  0  0  0  0  0  0  0  0  0
    2.2950   -3.6705    0.0000 H   0  0  0  0  0  0  0  0  0  0  0  0
    5.1009   -5.2905    0.0000 H   0  0  0  0  0  0  0  0  0  0  0  0
    6.7062   -1.6220    0.0000 H   0  0  0  0  0  0  0  0  0  0  0  0
    7.3262   -1.0020    0.0000 H   0  0  0  0  0  0  0  0  0  0  0  0
    6.7062   -0.3820    0.0000 H   0  0  0  0  0  0  0  0  0  0  0  0
    1.7294   -5.1467    0.0000 H   0  0  0  0  0  0  0  0  0  0  0  0
    1.5584   -5.9583    0.0000 H   0  0  0  0  0  0  0  0  0  0  0  0
    6.1812    0.3315    0.0000 H   0  0  0  0  0  0  0  0  0  0  0  0
    6.1812    1.1286    0.0000 H   0  0  0  0  0  0  0  0  0  0  0  0
    1.4631   -7.1114    0.0000 H   0  0  0  0  0  0  0  0  0  0  0  0
    1.6900   -7.9583    0.0000 H   0  0  0  0  0  0  0  0  0  0  0  0
    2.5369   -7.7314    0.0000 H   0  0  0  0  0  0  0  0  0  0  0  0
    4.4502    4.1900    0.0000 H   0  0  0  0  0  0  0  0  0  0  0  0
    3.7149    3.7125    0.0000 H   0  0  0  0  0  0  0  0  0  0  0  0
    4.1924    2.9771    0.0000 H   0  0  0  0  0  0  0  0  0  0  0  0
    4.5230    5.0816    0.0000 H   0  0  0  0  0  0  0  0  0  0  0  0
    7.7497    4.5715    0.0000 H   0  0  0  0  0  0  0  0  0  0  0  0
    4.3536    6.6928    0.0000 H   0  0  0  0  0  0  0  0  0  0  0  0
    5.6642    7.6450    0.0000 H   0  0  0  0  0  0  0  0  0  0  0  0
    9.1049    5.5402    0.0000 H   0  0  0  0  0  0  0  0  0  0  0  0
    9.6037    6.9212    0.0000 H   0  0  0  0  0  0  0  0  0  0  0  0
    9.7375    7.7877    0.0000 H   0  0  0  0  0  0  0  0  0  0  0  0
    8.8710    7.9216    0.0000 H   0  0  0  0  0  0  0  0  0  0  0  0
  1 24  1  0  0  0  0
  1 26  1  0  0  0  0
  2 23  2  0  0  0  0
  3  9  1  0  0  0  0
  3 10  1  0  0  0  0
  3 11  1  0  0  0  0
  4 22  1  0  0  0  0
  4 23  1  0  0  0  0
  4 25  1  0  0  0  0
  5 26  1  0  0  0  0
  5 27  1  0  0  0  0
  5 29  1  0  0  0  0
  6  7  1  0  0  0  0
  6 26  2  0  0  0  0
  7 27  2  0  0  0  0
  8 32  1  0  0  0  0
  8 37  2  0  0  0  0
  9 16  1  0  0  0  0
  9 21  1  0  0  0  0
  9 39  1  0  0  0  0
 10 12  1  0  0  0  0
 10 40  1  0  0  0  0
 10 41  1  0  0  0  0
 11 13  1  0  0  0  0
 11 42  1  0  0  0  0
 11 43  1  0  0  0  0
 12 14  1  0  0  0  0
 12 44  1  0  0  0  0
 12 45  1  0  0  0  0
 13 15  1  0  0  0  0
 13 46  1  0  0  0  0
 13 47  1  0  0  0  0
 14 15  1  0  0  0  0
 14 18  2  0  0  0  0
 15 20  2  0  0  0  0
 16 24  1  0  0  0  0
 16 48  1  0  0  0  0
 16 49  1  0  0  0  0
 17 18  1  0  0  0  0
 17 19  2  0  0  0  0
 17 22  1  0  0  0  0
 18 50  1  0  0  0  0
 19 20  1  0  0  0  0
 19 23  1  0  0  0  0
 20 51  1  0  0  0  0
 21 52  1  0  0  0  0
 21 53  1  0  0  0  0
 21 54  1  0  0  0  0
 22 55  1  0  0  0  0
 22 56  1  0  0  0  0
 24 57  1  0  0  0  0
 24 58  1  0  0  0  0
 25 59  1  0  0  0  0
 25 60  1  0  0  0  0
 25 61  1  0  0  0  0
 27 28  1  0  0  0  0
 28 30  2  0  0  0  0
 28 31  1  0  0  0  0
 29 62  1  0  0  0  0
 29 63  1  0  0  0  0
 29 64  1  0  0  0  0
 30 32  1  0  0  0  0
 30 33  1  0  0  0  0
 31 34  2  0  0  0  0
 31 65  1  0  0  0  0
 32 35  2  0  0  0  0
 33 36  2  0  0  0  0
 33 66  1  0  0  0  0
 34 35  1  0  0  0  0
 34 67  1  0  0  0  0
 35 68  1  0  0  0  0
 36 37  1  0  0  0  0
 36 69  1  0  0  0  0
 37 38  1  0  0  0  0
 38 70  1  0  0  0  0
 38 71  1  0  0  0  0
 38 72  1  0  0  0  0
M  END
> <PUBCHEM_COMPOUND_CID>
44454340

> <PUBCHEM_COMPOUND_CANONICALIZED>
1

> <PUBCHEM_CACTVS_COMPLEXITY>
831

> <PUBCHEM_CACTVS_HBOND_ACCEPTOR>
6

> <PUBCHEM_CACTVS_HBOND_DONOR>
0

> <PUBCHEM_CACTVS_ROTATABLE_BOND>
6

> <PUBCHEM_CACTVS_SUBSKEYS>
AAADcfB7oABAAAAAAAAAAAAAAAAAAWLAAAA8YIAABYAAAFix/AAAHgQIAAAADCjF3wSz0PcMEAiqAydydACS0CtlArAd2CE4ZNiIKPLgnZGEIQhgjgLIyYcciMCOwAACQAASAACAAASAACQAAAAAAAAAAA==

> <PUBCHEM_IUPAC_OPENEYE_NAME>
2-methyl-7-[1-methyl-3-[[4-methyl-5-(2-methyl-5-quinolyl)-1,2,4-triazol-3-yl]sulfanyl]propyl]-5,6,8,9-tetrahydro-1H-pyrrolo[3,4-h][3]benzazepin-3-one

> <PUBCHEM_IUPAC_CAS_NAME>
2-methyl-7-[4-[[4-methyl-5-(2-methyl-5-quinolinyl)-1,2,4-triazol-3-yl]thio]butan-2-yl]-5,6,8,9-tetrahydro-1H-pyrrolo[3,4-h][3]benzazepin-3-one

> <PUBCHEM_IUPAC_NAME_MARKUP>
2-methyl-7-[4-[[4-methyl-5-(2-methylquinolin-5-yl)-1,2,4-triazol-3-yl]sulfanyl]butan-2-yl]-5,6,8,9-tetrahydro-1<I>H</I>-pyrrolo[3,4-h][3]benzazepin-3-one

> <PUBCHEM_IUPAC_NAME>
2-methyl-7-[4-[[4-methyl-5-(2-methylquinolin-5-yl)-1,2,4-triazol-3-yl]sulfanyl]butan-2-yl]-5,6,8,9-tetrahydro-1H-pyrrolo[3,4-h][3]benzazepin-3-one

> <PUBCHEM_IUPAC_SYSTEMATIC_NAME>
2-methyl-7-[4-[[4-methyl-5-(2-methylquinolin-5-yl)-1,2,4-triazol-3-yl]sulfanyl]butan-2-yl]-5,6,8,9-tetrahydro-1H-pyrrolo[3,4-h][3]benzazepin-3-one

> <PUBCHEM_IUPAC_TRADITIONAL_NAME>
2-methyl-7-[1-methyl-3-[[4-methyl-5-(2-methyl-5-quinolyl)-1,2,4-triazol-3-yl]thio]propyl]-5,6,8,9-tetrahydro-1H-pyrrolo[3,4-h][3]benzazepin-3-one

> <PUBCHEM_IUPAC_INCHI>
InChI=1S/C30H34N6OS/c1-19-8-9-24-25(6-5-7-27(24)31-19)28-32-33-30(35(28)4)38-15-12-20(2)36-13-10-21-16-23-18-34(3)29(37)26(23)17-22(21)11-14-36/h5-9,16-17,20H,10-15,18H2,1-4H3

> <PUBCHEM_IUPAC_INCHIKEY>
DXIJUOOAQKSDNE-UHFFFAOYSA-N

> <PUBCHEM_XLOGP3_AA>
4.5

> <PUBCHEM_EXACT_MASS>
526.25148090

> <PUBCHEM_MOLECULAR_FORMULA>
C30H34N6OS

> <PUBCHEM_MOLECULAR_WEIGHT>
526.7

> <PUBCHEM_OPENEYE_CAN_SMILES>
CC1=NC2=CC=CC(=C2C=C1)C3=NN=C(N3C)SCCC(C)N4CCC5=CC6=C(C=C5CC4)C(=O)N(C6)C

> <PUBCHEM_OPENEYE_ISO_SMILES>
CC1=NC2=CC=CC(=C2C=C1)C3=NN=C(N3C)SCCC(C)N4CCC5=CC6=C(C=C5CC4)C(=O)N(C6)C

> <PUBCHEM_CACTVS_TPSA>
92.4

> <PUBCHEM_MONOISOTOPIC_WEIGHT>
526.25148090

> <PUBCHEM_TOTAL_CHARGE>
0

> <PUBCHEM_HEAVY_ATOM_COUNT>
38

> <PUBCHEM_ATOM_DEF_STEREO_COUNT>
0

> <PUBCHEM_ATOM_UDEF_STEREO_COUNT>
1

> <PUBCHEM_BOND_DEF_STEREO_COUNT>
0

> <PUBCHEM_BOND_UDEF_STEREO_COUNT>
0

> <PUBCHEM_ISOTOPIC_ATOM_COUNT>
0

> <PUBCHEM_COMPONENT_COUNT>
1

> <PUBCHEM_CACTVS_TAUTO_COUNT>
-1

> <PUBCHEM_COORDINATE_TYPE>
1
5
255

> <PUBCHEM_BONDANNOTATIONS>
14  15  8
14  18  8
15  20  8
17  18  8
17  19  8
19  20  8
28  30  8
28  31  8
30  32  8
30  33  8
31  34  8
32  35  8
33  36  8
34  35  8
36  37  8
5  26  8
5  27  8
6  26  8
6  7  8
7  27  8
8  32  8
8  37  8
9  21  3

$$$$
