25072002
  -OEChem-09292322002D

 57 60  0     0  0  0  0  0  0999 V2000
   10.6603    0.8971    0.0000 O   0  0  0  0  0  0  0  0  0  0  0  0
    2.8660    0.3971    0.0000 O   0  0  0  0  0  0  0  0  0  0  0  0
    6.3301    0.3971    0.0000 N   0  0  0  0  0  0  0  0  0  0  0  0
    4.5981   -0.6029    0.0000 N   0  0  0  0  0  0  0  0  0  0  0  0
   13.2583   -0.6029    0.0000 N   0  0  0  0  0  0  0  0  0  0  0  0
   14.2045   -0.9076    0.0000 N   0  0  0  0  0  0  0  0  0  0  0  0
   14.8259    2.6029    0.0000 N   0  0  0  0  0  0  0  0  0  0  0  0
    5.4641    0.8971    0.0000 C   0  0  0  0  0  0  0  0  0  0  0  0
    6.3301   -0.6029    0.0000 C   0  0  0  0  0  0  0  0  0  0  0  0
    4.5981    0.3971    0.0000 C   0  0  0  0  0  0  0  0  0  0  0  0
    5.4641   -1.1029    0.0000 C   0  0  0  0  0  0  0  0  0  0  0  0
    7.1962    0.8971    0.0000 C   0  0  0  0  0  0  0  0  0  0  0  0
    8.0622    0.3971    0.0000 C   0  0  0  0  0  0  0  0  0  0  0  0
    3.7320   -1.1029    0.0000 C   0  0  0  0  0  0  0  0  0  0  0  0
    8.9282    0.8971    0.0000 C   0  0  0  0  0  0  0  0  0  0  0  0
    2.8660   -0.6029    0.0000 C   0  0  0  0  0  0  0  0  0  0  0  0
    9.7942    0.3971    0.0000 C   0  0  0  0  0  0  0  0  0  0  0  0
    3.7320   -2.1029    0.0000 C   0  0  0  0  0  0  0  0  0  0  0  0
    2.0000   -1.1029    0.0000 C   0  0  0  0  0  0  0  0  0  0  0  0
    2.8660   -2.6029    0.0000 C   0  0  0  0  0  0  0  0  0  0  0  0
    2.0000   -2.1029    0.0000 C   0  0  0  0  0  0  0  0  0  0  0  0
   11.5263    0.3971    0.0000 C   0  0  0  0  0  0  0  0  0  0  0  0
   12.3923    0.8971    0.0000 C   0  0  0  0  0  0  0  0  0  0  0  0
    2.0000    0.8971    0.0000 C   0  0  0  0  0  0  0  0  0  0  0  0
   13.2583    0.3971    0.0000 C   0  0  0  0  0  0  0  0  0  0  0  0
   11.5263   -0.6029    0.0000 C   0  0  0  0  0  0  0  0  0  0  0  0
   12.3923   -1.1029    0.0000 C   0  0  0  0  0  0  0  0  0  0  0  0
   14.2045    0.7018    0.0000 C   0  0  0  0  0  0  0  0  0  0  0  0
   14.7882   -0.1029    0.0000 C   0  0  0  0  0  0  0  0  0  0  0  0
   14.5152    1.6524    0.0000 C   0  0  0  0  0  0  0  0  0  0  0  0
    5.8626    1.3721    0.0000 H   0  0  0  0  0  0  0  0  0  0  0  0
    5.0656    1.3721    0.0000 H   0  0  0  0  0  0  0  0  0  0  0  0
    6.5422   -1.1855    0.0000 H   0  0  0  0  0  0  0  0  0  0  0  0
    6.9407   -0.4952    0.0000 H   0  0  0  0  0  0  0  0  0  0  0  0
    4.3860    0.9797    0.0000 H   0  0  0  0  0  0  0  0  0  0  0  0
    3.9875    0.2895    0.0000 H   0  0  0  0  0  0  0  0  0  0  0  0
    5.0656   -1.5778    0.0000 H   0  0  0  0  0  0  0  0  0  0  0  0
    5.8626   -1.5778    0.0000 H   0  0  0  0  0  0  0  0  0  0  0  0
    7.5947    1.3721    0.0000 H   0  0  0  0  0  0  0  0  0  0  0  0
    6.7976    1.3721    0.0000 H   0  0  0  0  0  0  0  0  0  0  0  0
    7.6636   -0.0778    0.0000 H   0  0  0  0  0  0  0  0  0  0  0  0
    8.4607   -0.0778    0.0000 H   0  0  0  0  0  0  0  0  0  0  0  0
    9.3267    1.3721    0.0000 H   0  0  0  0  0  0  0  0  0  0  0  0
    8.5297    1.3721    0.0000 H   0  0  0  0  0  0  0  0  0  0  0  0
    9.3957   -0.0778    0.0000 H   0  0  0  0  0  0  0  0  0  0  0  0
   10.1928   -0.0778    0.0000 H   0  0  0  0  0  0  0  0  0  0  0  0
    4.2690   -2.4129    0.0000 H   0  0  0  0  0  0  0  0  0  0  0  0
    1.4631   -0.7929    0.0000 H   0  0  0  0  0  0  0  0  0  0  0  0
    2.8660   -3.2229    0.0000 H   0  0  0  0  0  0  0  0  0  0  0  0
    1.4631   -2.4129    0.0000 H   0  0  0  0  0  0  0  0  0  0  0  0
   12.3923    1.5171    0.0000 H   0  0  0  0  0  0  0  0  0  0  0  0
    2.3100    1.4340    0.0000 H   0  0  0  0  0  0  0  0  0  0  0  0
    1.4631    1.2071    0.0000 H   0  0  0  0  0  0  0  0  0  0  0  0
    1.6900    0.3602    0.0000 H   0  0  0  0  0  0  0  0  0  0  0  0
   10.9893   -0.9129    0.0000 H   0  0  0  0  0  0  0  0  0  0  0  0
   12.3923   -1.7229    0.0000 H   0  0  0  0  0  0  0  0  0  0  0  0
   15.4082   -0.1029    0.0000 H   0  0  0  0  0  0  0  0  0  0  0  0
  1 17  1  0  0  0  0
  1 22  1  0  0  0  0
  2 16  1  0  0  0  0
  2 24  1  0  0  0  0
  3  8  1  0  0  0  0
  3  9  1  0  0  0  0
  3 12  1  0  0  0  0
  4 10  1  0  0  0  0
  4 11  1  0  0  0  0
  4 14  1  0  0  0  0
  5  6  1  0  0  0  0
  5 25  1  0  0  0  0
  5 27  1  0  0  0  0
  6 29  2  0  0  0  0
  7 30  3  0  0  0  0
  8 10  1  0  0  0  0
  8 31  1  0  0  0  0
  8 32  1  0  0  0  0
  9 11  1  0  0  0  0
  9 33  1  0  0  0  0
  9 34  1  0  0  0  0
 10 35  1  0  0  0  0
 10 36  1  0  0  0  0
 11 37  1  0  0  0  0
 11 38  1  0  0  0  0
 12 13  1  0  0  0  0
 12 39  1  0  0  0  0
 12 40  1  0  0  0  0
 13 15  1  0  0  0  0
 13 41  1  0  0  0  0
 13 42  1  0  0  0  0
 14 16  1  0  0  0  0
 14 18  2  0  0  0  0
 15 17  1  0  0  0  0
 15 43  1  0  0  0  0
 15 44  1  0  0  0  0
 16 19  2  0  0  0  0
 17 45  1  0  0  0  0
 17 46  1  0  0  0  0
 18 20  1  0  0  0  0
 18 47  1  0  0  0  0
 19 21  1  0  0  0  0
 19 48  1  0  0  0  0
 20 21  2  0  0  0  0
 20 49  1  0  0  0  0
 21 50  1  0  0  0  0
 22 23  2  0  0  0  0
 22 26  1  0  0  0  0
 23 25  1  0  0  0  0
 23 51  1  0  0  0  0
 24 52  1  0  0  0  0
 24 53  1  0  0  0  0
 24 54  1  0  0  0  0
 25 28  2  0  0  0  0
 26 27  2  0  0  0  0
 26 55  1  0  0  0  0
 27 56  1  0  0  0  0
 28 29  1  0  0  0  0
 28 30  1  0  0  0  0
 29 57  1  0  0  0  0
M  END
> <PUBCHEM_COMPOUND_CID>
25072002

> <PUBCHEM_COMPOUND_CANONICALIZED>
1

> <PUBCHEM_CACTVS_COMPLEXITY>
573

> <PUBCHEM_CACTVS_HBOND_ACCEPTOR>
6

> <PUBCHEM_CACTVS_HBOND_DONOR>
0

> <PUBCHEM_CACTVS_ROTATABLE_BOND>
8

> <PUBCHEM_CACTVS_SUBSKEYS>
AAADceB7sAAAAAAAAAAAAAAAAAAAAWAAAAA8WIAAAAAAAFgB8AAAHgAIAAAADAzhngY+xrMIFACyBzRnRACyjCAxoiAY2CA/bJgO5uLE8duXvCjmyBnY6A+w0EAMAAAAAAAAEAAAAAAAAAAgAAAAAAAAAA==

> <PUBCHEM_IUPAC_OPENEYE_NAME>
5-[4-[4-(2-methoxyphenyl)piperazin-1-yl]butoxy]pyrazolo[1,5-a]pyridine-3-carbonitrile

> <PUBCHEM_IUPAC_CAS_NAME>
5-[4-[4-(2-methoxyphenyl)-1-piperazinyl]butoxy]-3-pyrazolo[1,5-a]pyridinecarbonitrile

> <PUBCHEM_IUPAC_NAME_MARKUP>
5-[4-[4-(2-methoxyphenyl)piperazin-1-yl]butoxy]pyrazolo[1,5-a]pyridine-3-carbonitrile

> <PUBCHEM_IUPAC_NAME>
5-[4-[4-(2-methoxyphenyl)piperazin-1-yl]butoxy]pyrazolo[1,5-a]pyridine-3-carbonitrile

> <PUBCHEM_IUPAC_SYSTEMATIC_NAME>
5-[4-[4-(2-methoxyphenyl)piperazin-1-yl]butoxy]pyrazolo[1,5-a]pyridine-3-carbonitrile

> <PUBCHEM_IUPAC_TRADITIONAL_NAME>
5-[4-[4-(2-methoxyphenyl)piperazino]butoxy]pyrazolo[1,5-a]pyridine-3-carbonitrile

> <PUBCHEM_IUPAC_INCHI>
InChI=1S/C23H27N5O2/c1-29-23-7-3-2-6-21(23)27-13-11-26(12-14-27)9-4-5-15-30-20-8-10-28-22(16-20)19(17-24)18-25-28/h2-3,6-8,10,16,18H,4-5,9,11-15H2,1H3

> <PUBCHEM_IUPAC_INCHIKEY>
JMDXHUNKNDOMJU-UHFFFAOYSA-N

> <PUBCHEM_XLOGP3_AA>
3.1

> <PUBCHEM_EXACT_MASS>
405.21647512

> <PUBCHEM_MOLECULAR_FORMULA>
C23H27N5O2

> <PUBCHEM_MOLECULAR_WEIGHT>
405.5

> <PUBCHEM_OPENEYE_CAN_SMILES>
COC1=CC=CC=C1N2CCN(CC2)CCCCOC3=CC4=C(C=NN4C=C3)C#N

> <PUBCHEM_OPENEYE_ISO_SMILES>
COC1=CC=CC=C1N2CCN(CC2)CCCCOC3=CC4=C(C=NN4C=C3)C#N

> <PUBCHEM_CACTVS_TPSA>
66

> <PUBCHEM_MONOISOTOPIC_WEIGHT>
405.21647512

> <PUBCHEM_TOTAL_CHARGE>
0

> <PUBCHEM_HEAVY_ATOM_COUNT>
30

> <PUBCHEM_ATOM_DEF_STEREO_COUNT>
0

> <PUBCHEM_ATOM_UDEF_STEREO_COUNT>
0

> <PUBCHEM_BOND_DEF_STEREO_COUNT>
0

> <PUBCHEM_BOND_UDEF_STEREO_COUNT>
0

> <PUBCHEM_ISOTOPIC_ATOM_COUNT>
0

> <PUBCHEM_COMPONENT_COUNT>
1

> <PUBCHEM_CACTVS_TAUTO_COUNT>
-1

> <PUBCHEM_COORDINATE_TYPE>
1
5
255

> <PUBCHEM_BONDANNOTATIONS>
14  16  8
14  18  8
16  19  8
18  20  8
19  21  8
20  21  8
22  23  8
22  26  8
23  25  8
25  28  8
26  27  8
28  29  8
5  25  8
5  27  8
5  6  8
6  29  8

$$$$
