137636384
  -OEChem-09292322392D

 45 48  0     1  0  0  0  0  0999 V2000
    4.0745    1.3568    0.0000 S   0  0  0  0  0  0  0  0  0  0  0  0
    5.9710   -2.4302    0.0000 O   0  0  0  0  0  0  0  0  0  0  0  0
    4.9176    1.8945    0.0000 O   0  0  0  0  0  0  0  0  0  0  0  0
    3.2314    0.8190    0.0000 O   0  0  0  0  0  0  0  0  0  0  0  0
    4.6123    0.5137    0.0000 N   0  0  0  0  0  0  0  0  0  0  0  0
    7.7031   -3.4302    0.0000 N   0  0  0  0  0  0  0  0  0  0  0  0
    5.1050   -0.9302    0.0000 C   0  0  3  0  0  0  0  0  0  0  0  0
    5.1050   -1.9302    0.0000 C   0  0  3  0  0  0  0  0  0  0  0  0
    4.2110   -0.3956    0.0000 C   0  0  0  0  0  0  0  0  0  0  0  0
    5.9710   -0.4302    0.0000 C   0  0  0  0  0  0  0  0  0  0  0  0
    5.6059    0.4941    0.0000 C   0  0  0  0  0  0  0  0  0  0  0  0
    6.8370   -0.9302    0.0000 C   0  0  0  0  0  0  0  0  0  0  0  0
    4.2110   -2.4649    0.0000 C   0  0  0  0  0  0  0  0  0  0  0  0
    3.3050   -0.9094    0.0000 C   0  0  0  0  0  0  0  0  0  0  0  0
    6.8370   -1.9302    0.0000 C   0  0  0  0  0  0  0  0  0  0  0  0
    3.3050   -1.9510    0.0000 C   0  0  0  0  0  0  0  0  0  0  0  0
    7.7031   -2.4302    0.0000 C   0  0  0  0  0  0  0  0  0  0  0  0
    3.5368    2.1999    0.0000 C   0  0  0  0  0  0  0  0  0  0  0  0
    2.5378    2.1557    0.0000 C   0  0  0  0  0  0  0  0  0  0  0  0
    3.9980    3.0871    0.0000 C   0  0  0  0  0  0  0  0  0  0  0  0
    8.5691   -3.9302    0.0000 C   0  0  0  0  0  0  0  0  0  0  0  0
    6.8370   -3.9302    0.0000 C   0  0  0  0  0  0  0  0  0  0  0  0
    2.0000    2.9988    0.0000 C   0  0  0  0  0  0  0  0  0  0  0  0
    3.4603    3.9302    0.0000 C   0  0  0  0  0  0  0  0  0  0  0  0
    2.4613    3.8861    0.0000 C   0  0  0  0  0  0  0  0  0  0  0  0
    4.5657   -1.2361    0.0000 H   0  0  0  0  0  0  0  0  0  0  0  0
    5.1098   -2.5502    0.0000 H   0  0  0  0  0  0  0  0  0  0  0  0
    5.9596    1.0033    0.0000 H   0  0  0  0  0  0  0  0  0  0  0  0
    7.3740   -0.6202    0.0000 H   0  0  0  0  0  0  0  0  0  0  0  0
    4.2182   -3.0848    0.0000 H   0  0  0  0  0  0  0  0  0  0  0  0
    2.7692   -0.5973    0.0000 H   0  0  0  0  0  0  0  0  0  0  0  0
    2.7692   -2.2631    0.0000 H   0  0  0  0  0  0  0  0  0  0  0  0
    8.3136   -2.5379    0.0000 H   0  0  0  0  0  0  0  0  0  0  0  0
    7.9151   -1.8476    0.0000 H   0  0  0  0  0  0  0  0  0  0  0  0
    2.2518    1.6056    0.0000 H   0  0  0  0  0  0  0  0  0  0  0  0
    4.6174    3.1145    0.0000 H   0  0  0  0  0  0  0  0  0  0  0  0
    8.2591   -4.4672    0.0000 H   0  0  0  0  0  0  0  0  0  0  0  0
    9.1060   -4.2402    0.0000 H   0  0  0  0  0  0  0  0  0  0  0  0
    8.8791   -3.3933    0.0000 H   0  0  0  0  0  0  0  0  0  0  0  0
    6.5270   -3.3933    0.0000 H   0  0  0  0  0  0  0  0  0  0  0  0
    6.3001   -4.2402    0.0000 H   0  0  0  0  0  0  0  0  0  0  0  0
    7.1470   -4.4672    0.0000 H   0  0  0  0  0  0  0  0  0  0  0  0
    1.3806    2.9715    0.0000 H   0  0  0  0  0  0  0  0  0  0  0  0
    3.7463    4.4803    0.0000 H   0  0  0  0  0  0  0  0  0  0  0  0
    2.1279    4.4088    0.0000 H   0  0  0  0  0  0  0  0  0  0  0  0
  1  3  2  0  0  0  0
  1  4  2  0  0  0  0
  1  5  1  0  0  0  0
  1 18  1  0  0  0  0
  2  8  1  0  0  0  0
  2 15  1  0  0  0  0
  5  9  1  0  0  0  0
  5 11  1  0  0  0  0
  6 17  1  0  0  0  0
  6 21  1  0  0  0  0
  6 22  1  0  0  0  0
  7  8  1  0  0  0  0
  7  9  1  0  0  0  0
  7 10  1  0  0  0  0
  7 26  1  0  0  0  0
  8 13  1  0  0  0  0
  8 27  1  0  0  0  0
  9 14  2  0  0  0  0
 10 11  2  0  0  0  0
 10 12  1  0  0  0  0
 11 28  1  0  0  0  0
 12 15  2  0  0  0  0
 12 29  1  0  0  0  0
 13 16  2  0  0  0  0
 13 30  1  0  0  0  0
 14 16  1  0  0  0  0
 14 31  1  0  0  0  0
 15 17  1  0  0  0  0
 16 32  1  0  0  0  0
 17 33  1  0  0  0  0
 17 34  1  0  0  0  0
 18 19  2  0  0  0  0
 18 20  1  0  0  0  0
 19 23  1  0  0  0  0
 19 35  1  0  0  0  0
 20 24  2  0  0  0  0
 20 36  1  0  0  0  0
 21 37  1  0  0  0  0
 21 38  1  0  0  0  0
 21 39  1  0  0  0  0
 22 40  1  0  0  0  0
 22 41  1  0  0  0  0
 22 42  1  0  0  0  0
 23 25  2  0  0  0  0
 23 43  1  0  0  0  0
 24 25  1  0  0  0  0
 24 44  1  0  0  0  0
 25 45  1  0  0  0  0
M  END
> <PUBCHEM_COMPOUND_CID>
137636384

> <PUBCHEM_COMPOUND_CANONICALIZED>
1

> <PUBCHEM_CACTVS_COMPLEXITY>
765

> <PUBCHEM_CACTVS_HBOND_ACCEPTOR>
5

> <PUBCHEM_CACTVS_HBOND_DONOR>
0

> <PUBCHEM_CACTVS_ROTATABLE_BOND>
4

> <PUBCHEM_CACTVS_SUBSKEYS>
AAADceB7MABAAAAAAAAAAAAAAAAAAQAAAAAwQIAAAAAAAECBAAAAHgQAQAAADRzh0AYyAYMABAKAAiRGQHDCCBAgIgAIiBgIAIgKJCKAsRCHMAAmwAAYqAcAAAAKAAAAAAAAAAAAAAAAAAAAAAAAAAAAAA==

> <PUBCHEM_IUPAC_OPENEYE_NAME>
1-[2-(benzenesulfonyl)-7-oxa-2-azatricyclo[6.3.1.04,12]dodeca-1(11),3,5,9-tetraen-6-yl]-N,N-dimethyl-methanamine

> <PUBCHEM_IUPAC_CAS_NAME>
1-[2-(benzenesulfonyl)-7-oxa-2-azatricyclo[6.3.1.04,12]dodeca-1(11),3,5,9-tetraen-6-yl]-N,N-dimethylmethanamine

> <PUBCHEM_IUPAC_NAME_MARKUP>
1-[2-(benzenesulfonyl)-7-oxa-2-azatricyclo[6.3.1.0<SUP>4,12</SUP>]dodeca-1(11),3,5,9-tetraen-6-yl]-<I>N</I>,<I>N</I>-dimethylmethanamine

> <PUBCHEM_IUPAC_NAME>
1-[2-(benzenesulfonyl)-7-oxa-2-azatricyclo[6.3.1.04,12]dodeca-1(11),3,5,9-tetraen-6-yl]-N,N-dimethylmethanamine

> <PUBCHEM_IUPAC_SYSTEMATIC_NAME>
N,N-dimethyl-1-[2-(phenylsulfonyl)-7-oxa-2-azatricyclo[6.3.1.04,12]dodeca-1(11),3,5,9-tetraen-6-yl]methanamine

> <PUBCHEM_IUPAC_TRADITIONAL_NAME>
(2-besyl-7-oxa-2-azatricyclo[6.3.1.04,12]dodeca-1(11),3,5,9-tetraen-6-yl)methyl-dimethyl-amine

> <PUBCHEM_IUPAC_INCHI>
InChI=1S/C19H20N2O3S/c1-20(2)13-15-11-14-12-21(17-9-6-10-18(24-15)19(14)17)25(22,23)16-7-4-3-5-8-16/h3-12,18-19H,13H2,1-2H3

> <PUBCHEM_IUPAC_INCHIKEY>
TUTKZANFXFVKEG-UHFFFAOYSA-N

> <PUBCHEM_XLOGP3_AA>
1.8

> <PUBCHEM_EXACT_MASS>
356.11946368

> <PUBCHEM_MOLECULAR_FORMULA>
C19H20N2O3S

> <PUBCHEM_MOLECULAR_WEIGHT>
356.4

> <PUBCHEM_OPENEYE_CAN_SMILES>
CN(C)CC1=CC2=CN(C3=CC=CC(C32)O1)S(=O)(=O)C4=CC=CC=C4

> <PUBCHEM_OPENEYE_ISO_SMILES>
CN(C)CC1=CC2=CN(C3=CC=CC(C32)O1)S(=O)(=O)C4=CC=CC=C4

> <PUBCHEM_CACTVS_TPSA>
58.2

> <PUBCHEM_MONOISOTOPIC_WEIGHT>
356.11946368

> <PUBCHEM_TOTAL_CHARGE>
0

> <PUBCHEM_HEAVY_ATOM_COUNT>
25

> <PUBCHEM_ATOM_DEF_STEREO_COUNT>
0

> <PUBCHEM_ATOM_UDEF_STEREO_COUNT>
2

> <PUBCHEM_BOND_DEF_STEREO_COUNT>
0

> <PUBCHEM_BOND_UDEF_STEREO_COUNT>
0

> <PUBCHEM_ISOTOPIC_ATOM_COUNT>
0

> <PUBCHEM_COMPONENT_COUNT>
1

> <PUBCHEM_CACTVS_TAUTO_COUNT>
-1

> <PUBCHEM_COORDINATE_TYPE>
1
5
255

> <PUBCHEM_BONDANNOTATIONS>
18  19  8
18  20  8
19  23  8
20  24  8
23  25  8
24  25  8
7  10  3
8  13  3

$$$$
