136079159
  -OEChem-09292322052D

126133  0     0  0  0  0  0  0999 V2000
   12.5469  -11.7895    0.0000 Cl  0  0  0  0  0  0  0  0  0  0  0  0
    2.0000   11.7895    0.0000 Cl  0  0  0  0  0  0  0  0  0  0  0  0
    5.7357   -3.7928    0.0000 O   0  0  0  0  0  0  0  0  0  0  0  0
    8.8112    3.7928    0.0000 O   0  0  0  0  0  0  0  0  0  0  0  0
    6.9079   -8.2229    0.0000 N   0  0  0  0  0  0  0  0  0  0  0  0
    7.6390    8.2229    0.0000 N   0  0  0  0  0  0  0  0  0  0  0  0
    7.7756  -10.0249    0.0000 N   0  0  0  0  0  0  0  0  0  0  0  0
    6.7713   10.0249    0.0000 N   0  0  0  0  0  0  0  0  0  0  0  0
    9.2095  -10.9258    0.0000 N   0  0  0  0  0  0  0  0  0  0  0  0
    5.3374   10.9258    0.0000 N   0  0  0  0  0  0  0  0  0  0  0  0
    7.1668   -4.7685    0.0000 N   0  0  0  0  0  0  0  0  0  0  0  0
    7.3802    4.7685    0.0000 N   0  0  0  0  0  0  0  0  0  0  0  0
    8.7095  -13.1165    0.0000 N   0  0  0  0  0  0  0  0  0  0  0  0
    5.8374   13.1165    0.0000 N   0  0  0  0  0  0  0  0  0  0  0  0
    7.9051   -8.2977    0.0000 C   0  0  0  0  0  0  0  0  0  0  0  0
    6.3446   -9.0491    0.0000 C   0  0  0  0  0  0  0  0  0  0  0  0
    8.2024    9.0491    0.0000 C   0  0  0  0  0  0  0  0  0  0  0  0
    6.6418    8.2977    0.0000 C   0  0  0  0  0  0  0  0  0  0  0  0
    8.3390   -9.1986    0.0000 C   0  0  0  0  0  0  0  0  0  0  0  0
    6.7784   -9.9501    0.0000 C   0  0  0  0  0  0  0  0  0  0  0  0
    7.7685    9.9501    0.0000 C   0  0  0  0  0  0  0  0  0  0  0  0
    6.2080    9.1986    0.0000 C   0  0  0  0  0  0  0  0  0  0  0  0
    6.4740   -7.3219    0.0000 C   0  0  0  0  0  0  0  0  0  0  0  0
    8.0729    7.3219    0.0000 C   0  0  0  0  0  0  0  0  0  0  0  0
    7.0373   -6.4957    0.0000 C   0  0  0  0  0  0  0  0  0  0  0  0
    7.5096    6.4957    0.0000 C   0  0  0  0  0  0  0  0  0  0  0  0
    8.2095  -10.9258    0.0000 C   0  0  0  0  0  0  0  0  0  0  0  0
    6.3374   10.9258    0.0000 C   0  0  0  0  0  0  0  0  0  0  0  0
    6.6035   -5.5947    0.0000 C   0  0  0  0  0  0  0  0  0  0  0  0
    7.9435    5.5947    0.0000 C   0  0  0  0  0  0  0  0  0  0  0  0
    7.5860  -11.7077    0.0000 C   0  0  0  0  0  0  0  0  0  0  0  0
    6.9609   11.7077    0.0000 C   0  0  0  0  0  0  0  0  0  0  0  0
    7.8085  -12.6826    0.0000 C   0  0  0  0  0  0  0  0  0  0  0  0
    6.7384   12.6826    0.0000 C   0  0  0  0  0  0  0  0  0  0  0  0
    6.9918   -0.4131    0.0000 C   0  0  0  0  0  0  0  0  0  0  0  0
    7.5551    0.4131    0.0000 C   0  0  0  0  0  0  0  0  0  0  0  0
    7.4257   -1.3141    0.0000 C   0  0  0  0  0  0  0  0  0  0  0  0
    7.1213    1.3141    0.0000 C   0  0  0  0  0  0  0  0  0  0  0  0
    6.8624   -2.1403    0.0000 C   0  0  0  0  0  0  0  0  0  0  0  0
    7.6846    2.1403    0.0000 C   0  0  0  0  0  0  0  0  0  0  0  0
    9.8330  -11.7077    0.0000 C   0  0  0  0  0  0  0  0  0  0  0  0
    4.7139   11.7077    0.0000 C   0  0  0  0  0  0  0  0  0  0  0  0
    6.5955  -11.3853    0.0000 C   0  0  0  0  0  0  0  0  0  0  0  0
    7.9514   11.3853    0.0000 C   0  0  0  0  0  0  0  0  0  0  0  0
    7.2962   -3.0413    0.0000 C   0  0  0  0  0  0  0  0  0  0  0  0
    7.2507    3.0413    0.0000 C   0  0  0  0  0  0  0  0  0  0  0  0
    6.7329   -3.8675    0.0000 C   0  0  0  0  0  0  0  0  0  0  0  0
    7.8140    3.8675    0.0000 C   0  0  0  0  0  0  0  0  0  0  0  0
    9.6105  -12.6826    0.0000 C   0  0  0  0  0  0  0  0  0  0  0  0
    4.9365   12.6826    0.0000 C   0  0  0  0  0  0  0  0  0  0  0  0
    7.0560  -13.4028    0.0000 C   0  0  0  0  0  0  0  0  0  0  0  0
    7.4910   13.4028    0.0000 C   0  0  0  0  0  0  0  0  0  0  0  0
    5.8265  -12.0879    0.0000 C   0  0  0  0  0  0  0  0  0  0  0  0
    8.7204   12.0879    0.0000 C   0  0  0  0  0  0  0  0  0  0  0  0
    6.0583  -13.1034    0.0000 C   0  0  0  0  0  0  0  0  0  0  0  0
    8.4887   13.1034    0.0000 C   0  0  0  0  0  0  0  0  0  0  0  0
   10.8235  -11.3853    0.0000 C   0  0  0  0  0  0  0  0  0  0  0  0
    3.7234   11.3853    0.0000 C   0  0  0  0  0  0  0  0  0  0  0  0
   10.3630  -13.4028    0.0000 C   0  0  0  0  0  0  0  0  0  0  0  0
    4.1839   13.4028    0.0000 C   0  0  0  0  0  0  0  0  0  0  0  0
   11.5925  -12.0879    0.0000 C   0  0  0  0  0  0  0  0  0  0  0  0
    2.9544   12.0879    0.0000 C   0  0  0  0  0  0  0  0  0  0  0  0
   11.3607  -13.1034    0.0000 C   0  0  0  0  0  0  0  0  0  0  0  0
    3.1862   13.1034    0.0000 C   0  0  0  0  0  0  0  0  0  0  0  0
    8.5019   -8.1297    0.0000 H   0  0  0  0  0  0  0  0  0  0  0  0
    7.8434   -7.6807    0.0000 H   0  0  0  0  0  0  0  0  0  0  0  0
    5.9007   -8.6162    0.0000 H   0  0  0  0  0  0  0  0  0  0  0  0
    5.8412   -9.4111    0.0000 H   0  0  0  0  0  0  0  0  0  0  0  0
    8.6462    8.6162    0.0000 H   0  0  0  0  0  0  0  0  0  0  0  0
    8.7058    9.4111    0.0000 H   0  0  0  0  0  0  0  0  0  0  0  0
    6.0450    8.1297    0.0000 H   0  0  0  0  0  0  0  0  0  0  0  0
    6.7036    7.6807    0.0000 H   0  0  0  0  0  0  0  0  0  0  0  0
    8.7828   -9.6315    0.0000 H   0  0  0  0  0  0  0  0  0  0  0  0
    8.8424   -8.8367    0.0000 H   0  0  0  0  0  0  0  0  0  0  0  0
    6.1816  -10.1180    0.0000 H   0  0  0  0  0  0  0  0  0  0  0  0
    6.8402  -10.5670    0.0000 H   0  0  0  0  0  0  0  0  0  0  0  0
    8.3653   10.1180    0.0000 H   0  0  0  0  0  0  0  0  0  0  0  0
    7.7068   10.5670    0.0000 H   0  0  0  0  0  0  0  0  0  0  0  0
    5.7641    9.6315    0.0000 H   0  0  0  0  0  0  0  0  0  0  0  0
    5.7046    8.8367    0.0000 H   0  0  0  0  0  0  0  0  0  0  0  0
    6.0302   -6.8890    0.0000 H   0  0  0  0  0  0  0  0  0  0  0  0
    5.9706   -7.6839    0.0000 H   0  0  0  0  0  0  0  0  0  0  0  0
    8.5168    6.8890    0.0000 H   0  0  0  0  0  0  0  0  0  0  0  0
    8.5763    7.6839    0.0000 H   0  0  0  0  0  0  0  0  0  0  0  0
    7.4812   -6.9286    0.0000 H   0  0  0  0  0  0  0  0  0  0  0  0
    7.5407   -6.1338    0.0000 H   0  0  0  0  0  0  0  0  0  0  0  0
    7.0658    6.9286    0.0000 H   0  0  0  0  0  0  0  0  0  0  0  0
    7.0062    6.1338    0.0000 H   0  0  0  0  0  0  0  0  0  0  0  0
    6.1596   -5.1618    0.0000 H   0  0  0  0  0  0  0  0  0  0  0  0
    6.1001   -5.9567    0.0000 H   0  0  0  0  0  0  0  0  0  0  0  0
    8.3873    5.1618    0.0000 H   0  0  0  0  0  0  0  0  0  0  0  0
    8.4469    5.9567    0.0000 H   0  0  0  0  0  0  0  0  0  0  0  0
    7.7850   -4.8148    0.0000 H   0  0  0  0  0  0  0  0  0  0  0  0
    6.7619    4.8148    0.0000 H   0  0  0  0  0  0  0  0  0  0  0  0
    6.5480    0.0198    0.0000 H   0  0  0  0  0  0  0  0  0  0  0  0
    6.4884   -0.7750    0.0000 H   0  0  0  0  0  0  0  0  0  0  0  0
    7.9990   -0.0198    0.0000 H   0  0  0  0  0  0  0  0  0  0  0  0
    8.0585    0.7750    0.0000 H   0  0  0  0  0  0  0  0  0  0  0  0
    7.8695   -1.7470    0.0000 H   0  0  0  0  0  0  0  0  0  0  0  0
    7.9291   -0.9522    0.0000 H   0  0  0  0  0  0  0  0  0  0  0  0
    6.6774    1.7470    0.0000 H   0  0  0  0  0  0  0  0  0  0  0  0
    6.6178    0.9522    0.0000 H   0  0  0  0  0  0  0  0  0  0  0  0
    6.4185   -1.7074    0.0000 H   0  0  0  0  0  0  0  0  0  0  0  0
    6.3590   -2.5022    0.0000 H   0  0  0  0  0  0  0  0  0  0  0  0
    8.1284    1.7074    0.0000 H   0  0  0  0  0  0  0  0  0  0  0  0
    8.1880    2.5022    0.0000 H   0  0  0  0  0  0  0  0  0  0  0  0
    6.4646  -10.7793    0.0000 H   0  0  0  0  0  0  0  0  0  0  0  0
    8.0824   10.7793    0.0000 H   0  0  0  0  0  0  0  0  0  0  0  0
    7.7401   -3.4742    0.0000 H   0  0  0  0  0  0  0  0  0  0  0  0
    7.7996   -2.6794    0.0000 H   0  0  0  0  0  0  0  0  0  0  0  0
    6.8069    3.4742    0.0000 H   0  0  0  0  0  0  0  0  0  0  0  0
    6.7473    2.6794    0.0000 H   0  0  0  0  0  0  0  0  0  0  0  0
    8.7095  -13.7365    0.0000 H   0  0  0  0  0  0  0  0  0  0  0  0
    5.8374   13.7365    0.0000 H   0  0  0  0  0  0  0  0  0  0  0  0
    7.2009  -14.0056    0.0000 H   0  0  0  0  0  0  0  0  0  0  0  0
    7.3460   14.0056    0.0000 H   0  0  0  0  0  0  0  0  0  0  0  0
    5.2348  -11.9029    0.0000 H   0  0  0  0  0  0  0  0  0  0  0  0
    9.3122   11.9029    0.0000 H   0  0  0  0  0  0  0  0  0  0  0  0
    5.6054  -13.5269    0.0000 H   0  0  0  0  0  0  0  0  0  0  0  0
    8.9415   13.5269    0.0000 H   0  0  0  0  0  0  0  0  0  0  0  0
   10.9545  -10.7793    0.0000 H   0  0  0  0  0  0  0  0  0  0  0  0
    3.5925   10.7793    0.0000 H   0  0  0  0  0  0  0  0  0  0  0  0
   10.2181  -14.0056    0.0000 H   0  0  0  0  0  0  0  0  0  0  0  0
    4.3289   14.0056    0.0000 H   0  0  0  0  0  0  0  0  0  0  0  0
   11.8136  -13.5269    0.0000 H   0  0  0  0  0  0  0  0  0  0  0  0
    2.7334   13.5269    0.0000 H   0  0  0  0  0  0  0  0  0  0  0  0
  1 61  1  0  0  0  0
  2 62  1  0  0  0  0
  3 47  2  0  0  0  0
  4 48  2  0  0  0  0
  5 15  1  0  0  0  0
  5 16  1  0  0  0  0
  5 23  1  0  0  0  0
  6 17  1  0  0  0  0
  6 18  1  0  0  0  0
  6 24  1  0  0  0  0
  7 19  1  0  0  0  0
  7 20  1  0  0  0  0
  7 27  1  0  0  0  0
  8 21  1  0  0  0  0
  8 22  1  0  0  0  0
  8 28  1  0  0  0  0
  9 27  2  0  0  0  0
  9 41  1  0  0  0  0
 10 28  2  0  0  0  0
 10 42  1  0  0  0  0
 11 29  1  0  0  0  0
 11 47  1  0  0  0  0
 11 93  1  0  0  0  0
 12 30  1  0  0  0  0
 12 48  1  0  0  0  0
 12 94  1  0  0  0  0
 13 33  1  0  0  0  0
 13 49  1  0  0  0  0
 13113  1  0  0  0  0
 14 34  1  0  0  0  0
 14 50  1  0  0  0  0
 14114  1  0  0  0  0
 15 19  1  0  0  0  0
 15 65  1  0  0  0  0
 15 66  1  0  0  0  0
 16 20  1  0  0  0  0
 16 67  1  0  0  0  0
 16 68  1  0  0  0  0
 17 21  1  0  0  0  0
 17 69  1  0  0  0  0
 17 70  1  0  0  0  0
 18 22  1  0  0  0  0
 18 71  1  0  0  0  0
 18 72  1  0  0  0  0
 19 73  1  0  0  0  0
 19 74  1  0  0  0  0
 20 75  1  0  0  0  0
 20 76  1  0  0  0  0
 21 77  1  0  0  0  0
 21 78  1  0  0  0  0
 22 79  1  0  0  0  0
 22 80  1  0  0  0  0
 23 25  1  0  0  0  0
 23 81  1  0  0  0  0
 23 82  1  0  0  0  0
 24 26  1  0  0  0  0
 24 83  1  0  0  0  0
 24 84  1  0  0  0  0
 25 29  1  0  0  0  0
 25 85  1  0  0  0  0
 25 86  1  0  0  0  0
 26 30  1  0  0  0  0
 26 87  1  0  0  0  0
 26 88  1  0  0  0  0
 27 31  1  0  0  0  0
 28 32  1  0  0  0  0
 29 89  1  0  0  0  0
 29 90  1  0  0  0  0
 30 91  1  0  0  0  0
 30 92  1  0  0  0  0
 31 33  1  0  0  0  0
 31 43  2  0  0  0  0
 32 34  1  0  0  0  0
 32 44  2  0  0  0  0
 33 51  2  0  0  0  0
 34 52  2  0  0  0  0
 35 36  1  0  0  0  0
 35 37  1  0  0  0  0
 35 95  1  0  0  0  0
 35 96  1  0  0  0  0
 36 38  1  0  0  0  0
 36 97  1  0  0  0  0
 36 98  1  0  0  0  0
 37 39  1  0  0  0  0
 37 99  1  0  0  0  0
 37100  1  0  0  0  0
 38 40  1  0  0  0  0
 38101  1  0  0  0  0
 38102  1  0  0  0  0
 39 45  1  0  0  0  0
 39103  1  0  0  0  0
 39104  1  0  0  0  0
 40 46  1  0  0  0  0
 40105  1  0  0  0  0
 40106  1  0  0  0  0
 41 49  2  0  0  0  0
 41 57  1  0  0  0  0
 42 50  2  0  0  0  0
 42 58  1  0  0  0  0
 43 53  1  0  0  0  0
 43107  1  0  0  0  0
 44 54  1  0  0  0  0
 44108  1  0  0  0  0
 45 47  1  0  0  0  0
 45109  1  0  0  0  0
 45110  1  0  0  0  0
 46 48  1  0  0  0  0
 46111  1  0  0  0  0
 46112  1  0  0  0  0
 49 59  1  0  0  0  0
 50 60  1  0  0  0  0
 51 55  1  0  0  0  0
 51115  1  0  0  0  0
 52 56  1  0  0  0  0
 52116  1  0  0  0  0
 53 55  2  0  0  0  0
 53117  1  0  0  0  0
 54 56  2  0  0  0  0
 54118  1  0  0  0  0
 55119  1  0  0  0  0
 56120  1  0  0  0  0
 57 61  2  0  0  0  0
 57121  1  0  0  0  0
 58 62  2  0  0  0  0
 58122  1  0  0  0  0
 59 63  2  0  0  0  0
 59123  1  0  0  0  0
 60 64  2  0  0  0  0
 60124  1  0  0  0  0
 61 63  1  0  0  0  0
 62 64  1  0  0  0  0
 63125  1  0  0  0  0
 64126  1  0  0  0  0
M  END
> <PUBCHEM_COMPOUND_CID>
136079159

> <PUBCHEM_COMPOUND_CANONICALIZED>
1

> <PUBCHEM_CACTVS_COMPLEXITY>
1410

> <PUBCHEM_CACTVS_HBOND_ACCEPTOR>
8

> <PUBCHEM_CACTVS_HBOND_DONOR>
4

> <PUBCHEM_CACTVS_ROTATABLE_BOND>
19

> <PUBCHEM_CACTVS_SUBSKEYS>
AAADcfB/8AAGAAAAAAAAAAAAAAAAAAAAAAA8eMGCBAgAAAABVAAAHgIQAAAADArBmCQxwIPAAACoAidydACCAAEhBwAJiIEodpgIYPLB25GUIAhglgDIyAcYiICOAABAAAICACAAAIAABAQAQAAAAAAAAA==

> <PUBCHEM_IUPAC_OPENEYE_NAME>
N,N'-bis[3-[4-(3-chloro-11H-benzo[b][1,4]benzodiazepin-6-yl)piperazin-1-yl]propyl]decanediamide

> <PUBCHEM_IUPAC_CAS_NAME>
N,N'-bis[3-[4-(3-chloro-11H-benzo[b][1,4]benzodiazepin-6-yl)-1-piperazinyl]propyl]decanediamide

> <PUBCHEM_IUPAC_NAME_MARKUP>
<I>N</I>,<I>N</I>&apos;-bis[3-[4-(3-chloro-11<I>H</I>-benzo[b][1,4]benzodiazepin-6-yl)piperazin-1-yl]propyl]decanediamide

> <PUBCHEM_IUPAC_NAME>
N,N'-bis[3-[4-(3-chloro-11H-benzo[b][1,4]benzodiazepin-6-yl)piperazin-1-yl]propyl]decanediamide

> <PUBCHEM_IUPAC_SYSTEMATIC_NAME>
N,N'-bis[3-[4-(3-chloranyl-11H-benzo[b][1,4]benzodiazepin-6-yl)piperazin-1-yl]propyl]decanediamide

> <PUBCHEM_IUPAC_TRADITIONAL_NAME>
N,N'-bis[3-[4-(3-chloro-11H-benzo[b][1,4]benzodiazepin-6-yl)piperazino]propyl]sebacamide

> <PUBCHEM_IUPAC_INCHI>
InChI=1S/C50H62Cl2N10O2/c51-37-19-21-43-45(35-37)57-49(39-13-7-9-15-41(39)55-43)61-31-27-59(28-32-61)25-11-23-53-47(63)17-5-3-1-2-4-6-18-48(64)54-24-12-26-60-29-33-62(34-30-60)50-40-14-8-10-16-42(40)56-44-22-20-38(52)36-46(44)58-50/h7-10,13-16,19-22,35-36,55-56H,1-6,11-12,17-18,23-34H2,(H,53,63)(H,54,64)

> <PUBCHEM_IUPAC_INCHIKEY>
PAFFIIDFWMXKOD-UHFFFAOYSA-N

> <PUBCHEM_XLOGP3_AA>
8

> <PUBCHEM_EXACT_MASS>
904.4434266

> <PUBCHEM_MOLECULAR_FORMULA>
C50H62Cl2N10O2

> <PUBCHEM_MOLECULAR_WEIGHT>
906.0

> <PUBCHEM_OPENEYE_CAN_SMILES>
C1CN(CCN1CCCNC(=O)CCCCCCCCC(=O)NCCCN2CCN(CC2)C3=NC4=C(C=CC(=C4)Cl)NC5=CC=CC=C53)C6=NC7=C(C=CC(=C7)Cl)NC8=CC=CC=C86

> <PUBCHEM_OPENEYE_ISO_SMILES>
C1CN(CCN1CCCNC(=O)CCCCCCCCC(=O)NCCCN2CCN(CC2)C3=NC4=C(C=CC(=C4)Cl)NC5=CC=CC=C53)C6=NC7=C(C=CC(=C7)Cl)NC8=CC=CC=C86

> <PUBCHEM_CACTVS_TPSA>
120

> <PUBCHEM_MONOISOTOPIC_WEIGHT>
904.4434266

> <PUBCHEM_TOTAL_CHARGE>
0

> <PUBCHEM_HEAVY_ATOM_COUNT>
64

> <PUBCHEM_ATOM_DEF_STEREO_COUNT>
0

> <PUBCHEM_ATOM_UDEF_STEREO_COUNT>
0

> <PUBCHEM_BOND_DEF_STEREO_COUNT>
0

> <PUBCHEM_BOND_UDEF_STEREO_COUNT>
0

> <PUBCHEM_ISOTOPIC_ATOM_COUNT>
0

> <PUBCHEM_COMPONENT_COUNT>
1

> <PUBCHEM_CACTVS_TAUTO_COUNT>
-1

> <PUBCHEM_COORDINATE_TYPE>
1
5
255

> <PUBCHEM_BONDANNOTATIONS>
31  33  8
31  43  8
32  34  8
32  44  8
33  51  8
34  52  8
41  49  8
41  57  8
42  50  8
42  58  8
43  53  8
44  54  8
49  59  8
50  60  8
51  55  8
52  56  8
53  55  8
54  56  8
57  61  8
58  62  8
59  63  8
60  64  8
61  63  8
62  64  8

$$$$
