122183782
  -OEChem-09292322362D

 66 69  0     1  0  0  0  0  0999 V2000
   11.5942    0.0173    0.0000 O   0  0  0  0  0  0  0  0  0  0  0  0
   15.0583    2.0173    0.0000 O   0  0  0  0  0  0  0  0  0  0  0  0
    8.1301    0.0173    0.0000 O   0  0  0  0  0  0  0  0  0  0  0  0
    2.8680   -0.9585    0.0000 O   0  0  0  0  0  0  0  0  0  0  0  0
   13.3263   -0.9827    0.0000 N   0  0  0  0  0  0  0  0  0  0  0  0
   15.0583    0.0173    0.0000 N   0  0  0  0  0  0  0  0  0  0  0  0
    8.9962   -1.4827    0.0000 N   0  0  0  0  0  0  0  0  0  0  0  0
    6.3981   -2.9827    0.0000 N   0  0  0  0  0  0  0  0  0  0  0  0
   14.1923   -1.4827    0.0000 C   0  0  0  0  0  0  0  0  0  0  0  0
   13.3263    0.0173    0.0000 C   0  0  0  0  0  0  0  0  0  0  0  0
   15.0583   -0.9827    0.0000 C   0  0  0  0  0  0  0  0  0  0  0  0
   14.1923    0.5173    0.0000 C   0  0  0  0  0  0  0  0  0  0  0  0
   12.4602   -1.4827    0.0000 C   0  0  0  0  0  0  0  0  0  0  0  0
   11.5942   -0.9827    0.0000 C   0  0  3  0  0  0  0  0  0  0  0  0
   10.7282   -1.4827    0.0000 C   0  0  0  0  0  0  0  0  0  0  0  0
   15.9244    0.5173    0.0000 C   0  0  0  0  0  0  0  0  0  0  0  0
    9.8622   -0.9827    0.0000 C   0  0  0  0  0  0  0  0  0  0  0  0
   15.9244    1.5173    0.0000 C   0  0  0  0  0  0  0  0  0  0  0  0
   16.7904    0.0173    0.0000 C   0  0  0  0  0  0  0  0  0  0  0  0
   16.7904    2.0173    0.0000 C   0  0  0  0  0  0  0  0  0  0  0  0
   17.6564    0.5173    0.0000 C   0  0  0  0  0  0  0  0  0  0  0  0
   17.6564    1.5173    0.0000 C   0  0  0  0  0  0  0  0  0  0  0  0
    8.1301   -0.9827    0.0000 C   0  0  0  0  0  0  0  0  0  0  0  0
    7.2641   -1.4827    0.0000 C   0  0  0  0  0  0  0  0  0  0  0  0
   15.0583    3.0173    0.0000 C   0  0  0  0  0  0  0  0  0  0  0  0
    6.3981   -0.9827    0.0000 C   0  0  0  0  0  0  0  0  0  0  0  0
    5.5320   -1.4827    0.0000 C   0  0  0  0  0  0  0  0  0  0  0  0
    7.2641   -2.4827    0.0000 C   0  0  0  0  0  0  0  0  0  0  0  0
    5.5320   -2.4827    0.0000 C   0  0  0  0  0  0  0  0  0  0  0  0
    4.6381   -0.9480    0.0000 C   0  0  0  0  0  0  0  0  0  0  0  0
    4.6381   -3.0173    0.0000 C   0  0  0  0  0  0  0  0  0  0  0  0
    3.7320   -1.4619    0.0000 C   0  0  0  0  0  0  0  0  0  0  0  0
    3.7320   -2.5035    0.0000 C   0  0  0  0  0  0  0  0  0  0  0  0
    2.0000   -1.4552    0.0000 C   0  0  0  0  0  0  0  0  0  0  0  0
   13.7938   -1.9576    0.0000 H   0  0  0  0  0  0  0  0  0  0  0  0
   14.5908   -1.9576    0.0000 H   0  0  0  0  0  0  0  0  0  0  0  0
   13.1142    0.5999    0.0000 H   0  0  0  0  0  0  0  0  0  0  0  0
   12.7157   -0.0903    0.0000 H   0  0  0  0  0  0  0  0  0  0  0  0
   15.2704   -1.5653    0.0000 H   0  0  0  0  0  0  0  0  0  0  0  0
   15.6689   -0.8750    0.0000 H   0  0  0  0  0  0  0  0  0  0  0  0
   14.5908    0.9923    0.0000 H   0  0  0  0  0  0  0  0  0  0  0  0
   13.7938    0.9923    0.0000 H   0  0  0  0  0  0  0  0  0  0  0  0
   12.0617   -1.9576    0.0000 H   0  0  0  0  0  0  0  0  0  0  0  0
   12.8588   -1.9576    0.0000 H   0  0  0  0  0  0  0  0  0  0  0  0
   12.1312   -0.6727    0.0000 H   0  0  0  0  0  0  0  0  0  0  0  0
   10.3297   -1.9576    0.0000 H   0  0  0  0  0  0  0  0  0  0  0  0
   11.1267   -1.9576    0.0000 H   0  0  0  0  0  0  0  0  0  0  0  0
   10.2607   -0.5077    0.0000 H   0  0  0  0  0  0  0  0  0  0  0  0
    9.4636   -0.5077    0.0000 H   0  0  0  0  0  0  0  0  0  0  0  0
   16.7904   -0.6027    0.0000 H   0  0  0  0  0  0  0  0  0  0  0  0
   11.0573    0.3273    0.0000 H   0  0  0  0  0  0  0  0  0  0  0  0
    8.9962   -2.1027    0.0000 H   0  0  0  0  0  0  0  0  0  0  0  0
   16.7904    2.6373    0.0000 H   0  0  0  0  0  0  0  0  0  0  0  0
   18.1933    0.2073    0.0000 H   0  0  0  0  0  0  0  0  0  0  0  0
   18.1933    1.8273    0.0000 H   0  0  0  0  0  0  0  0  0  0  0  0
   15.6783    3.0173    0.0000 H   0  0  0  0  0  0  0  0  0  0  0  0
   15.0583    3.6373    0.0000 H   0  0  0  0  0  0  0  0  0  0  0  0
   14.4383    3.0173    0.0000 H   0  0  0  0  0  0  0  0  0  0  0  0
    6.3981   -0.3627    0.0000 H   0  0  0  0  0  0  0  0  0  0  0  0
    7.8010   -2.7927    0.0000 H   0  0  0  0  0  0  0  0  0  0  0  0
    4.6453   -0.3280    0.0000 H   0  0  0  0  0  0  0  0  0  0  0  0
    4.6453   -3.6373    0.0000 H   0  0  0  0  0  0  0  0  0  0  0  0
    3.1963   -2.8156    0.0000 H   0  0  0  0  0  0  0  0  0  0  0  0
    1.6921   -0.9171    0.0000 H   0  0  0  0  0  0  0  0  0  0  0  0
    1.4619   -1.7631    0.0000 H   0  0  0  0  0  0  0  0  0  0  0  0
    2.3079   -1.9933    0.0000 H   0  0  0  0  0  0  0  0  0  0  0  0
  1 14  1  0  0  0  0
  1 51  1  0  0  0  0
  2 18  1  0  0  0  0
  2 25  1  0  0  0  0
  3 23  2  0  0  0  0
  4 32  1  0  0  0  0
  4 34  1  0  0  0  0
  5  9  1  0  0  0  0
  5 10  1  0  0  0  0
  5 13  1  0  0  0  0
  6 11  1  0  0  0  0
  6 12  1  0  0  0  0
  6 16  1  0  0  0  0
  7 17  1  0  0  0  0
  7 23  1  0  0  0  0
  7 52  1  0  0  0  0
  8 28  1  0  0  0  0
  8 29  2  0  0  0  0
  9 11  1  0  0  0  0
  9 35  1  0  0  0  0
  9 36  1  0  0  0  0
 10 12  1  0  0  0  0
 10 37  1  0  0  0  0
 10 38  1  0  0  0  0
 11 39  1  0  0  0  0
 11 40  1  0  0  0  0
 12 41  1  0  0  0  0
 12 42  1  0  0  0  0
 13 14  1  0  0  0  0
 13 43  1  0  0  0  0
 13 44  1  0  0  0  0
 14 15  1  0  0  0  0
 14 45  1  0  0  0  0
 15 17  1  0  0  0  0
 15 46  1  0  0  0  0
 15 47  1  0  0  0  0
 16 18  1  0  0  0  0
 16 19  2  0  0  0  0
 17 48  1  0  0  0  0
 17 49  1  0  0  0  0
 18 20  2  0  0  0  0
 19 21  1  0  0  0  0
 19 50  1  0  0  0  0
 20 22  1  0  0  0  0
 20 53  1  0  0  0  0
 21 22  2  0  0  0  0
 21 54  1  0  0  0  0
 22 55  1  0  0  0  0
 23 24  1  0  0  0  0
 24 26  1  0  0  0  0
 24 28  2  0  0  0  0
 25 56  1  0  0  0  0
 25 57  1  0  0  0  0
 25 58  1  0  0  0  0
 26 27  2  0  0  0  0
 26 59  1  0  0  0  0
 27 29  1  0  0  0  0
 27 30  1  0  0  0  0
 28 60  1  0  0  0  0
 29 31  1  0  0  0  0
 30 32  2  0  0  0  0
 30 61  1  0  0  0  0
 31 33  2  0  0  0  0
 31 62  1  0  0  0  0
 32 33  1  0  0  0  0
 33 63  1  0  0  0  0
 34 64  1  0  0  0  0
 34 65  1  0  0  0  0
 34 66  1  0  0  0  0
M  END
> <PUBCHEM_COMPOUND_CID>
122183782

> <PUBCHEM_COMPOUND_CANONICALIZED>
1

> <PUBCHEM_CACTVS_COMPLEXITY>
630

> <PUBCHEM_CACTVS_HBOND_ACCEPTOR>
7

> <PUBCHEM_CACTVS_HBOND_DONOR>
2

> <PUBCHEM_CACTVS_ROTATABLE_BOND>
9

> <PUBCHEM_CACTVS_SUBSKEYS>
AAADcfB7uAAAAAAAAAAAAAAAAAAAAAAAAAA8eIEAAAAAAACx9AAAHgAQCAAADBzhngY+xvPIFgCoAzV3VACCiCA1IiAI2KE/bNgOdvrE9ZuVcahm1hHY6ce4yfCeAEABAAACEAAAgAIAAAQgAAAAAAAAAA==

> <PUBCHEM_IUPAC_OPENEYE_NAME>
N-[3-hydroxy-4-[4-(2-methoxyphenyl)piperazin-1-yl]butyl]-6-methoxy-quinoline-3-carboxamide

> <PUBCHEM_IUPAC_CAS_NAME>
N-[3-hydroxy-4-[4-(2-methoxyphenyl)-1-piperazinyl]butyl]-6-methoxy-3-quinolinecarboxamide

> <PUBCHEM_IUPAC_NAME_MARKUP>
<I>N</I>-[3-hydroxy-4-[4-(2-methoxyphenyl)piperazin-1-yl]butyl]-6-methoxyquinoline-3-carboxamide

> <PUBCHEM_IUPAC_NAME>
N-[3-hydroxy-4-[4-(2-methoxyphenyl)piperazin-1-yl]butyl]-6-methoxyquinoline-3-carboxamide

> <PUBCHEM_IUPAC_SYSTEMATIC_NAME>
6-methoxy-N-[4-[4-(2-methoxyphenyl)piperazin-1-yl]-3-oxidanyl-butyl]quinoline-3-carboxamide

> <PUBCHEM_IUPAC_TRADITIONAL_NAME>
N-[3-hydroxy-4-[4-(2-methoxyphenyl)piperazino]butyl]-6-methoxy-quinoline-3-carboxamide

> <PUBCHEM_IUPAC_INCHI>
InChI=1S/C26H32N4O4/c1-33-22-7-8-23-19(16-22)15-20(17-28-23)26(32)27-10-9-21(31)18-29-11-13-30(14-12-29)24-5-3-4-6-25(24)34-2/h3-8,15-17,21,31H,9-14,18H2,1-2H3,(H,27,32)

> <PUBCHEM_IUPAC_INCHIKEY>
CHORKXOAHORPHG-UHFFFAOYSA-N

> <PUBCHEM_XLOGP3_AA>
2.8

> <PUBCHEM_EXACT_MASS>
464.24235551

> <PUBCHEM_MOLECULAR_FORMULA>
C26H32N4O4

> <PUBCHEM_MOLECULAR_WEIGHT>
464.6

> <PUBCHEM_OPENEYE_CAN_SMILES>
COC1=CC2=CC(=CN=C2C=C1)C(=O)NCCC(CN3CCN(CC3)C4=CC=CC=C4OC)O

> <PUBCHEM_OPENEYE_ISO_SMILES>
COC1=CC2=CC(=CN=C2C=C1)C(=O)NCCC(CN3CCN(CC3)C4=CC=CC=C4OC)O

> <PUBCHEM_CACTVS_TPSA>
87.2

> <PUBCHEM_MONOISOTOPIC_WEIGHT>
464.24235551

> <PUBCHEM_TOTAL_CHARGE>
0

> <PUBCHEM_HEAVY_ATOM_COUNT>
34

> <PUBCHEM_ATOM_DEF_STEREO_COUNT>
0

> <PUBCHEM_ATOM_UDEF_STEREO_COUNT>
1

> <PUBCHEM_BOND_DEF_STEREO_COUNT>
0

> <PUBCHEM_BOND_UDEF_STEREO_COUNT>
0

> <PUBCHEM_ISOTOPIC_ATOM_COUNT>
0

> <PUBCHEM_COMPONENT_COUNT>
1

> <PUBCHEM_CACTVS_TAUTO_COUNT>
-1

> <PUBCHEM_COORDINATE_TYPE>
1
5
255

> <PUBCHEM_BONDANNOTATIONS>
14  1  3
16  18  8
16  19  8
18  20  8
19  21  8
20  22  8
21  22  8
24  26  8
24  28  8
26  27  8
27  29  8
27  30  8
29  31  8
30  32  8
31  33  8
32  33  8
8  28  8
8  29  8

$$$$
