17755875
  -OEChem-09292322492D

 45 48  0     1  0  0  0  0  0999 V2000
    2.2188    1.5977    0.0000 O   0  0  0  0  0  0  0  0  0  0  0  0
    6.9572    0.7046    0.0000 N   0  0  3  0  0  0  0  0  0  0  0  0
    6.0562    0.2707    0.0000 C   0  0  3  0  0  0  0  0  0  0  0  0
    7.1797    1.6795    0.0000 C   0  0  0  0  0  0  0  0  0  0  0  0
    7.8379    0.2731    0.0000 C   0  0  0  0  0  0  0  0  0  0  0  0
    5.1552    0.7046    0.0000 C   0  0  0  0  0  0  0  0  0  0  0  0
    5.8444   -0.6869    0.0000 C   0  0  0  0  0  0  0  0  0  0  0  0
    6.5562    2.4614    0.0000 C   0  0  0  0  0  0  0  0  0  0  0  0
    8.0523   -0.6840    0.0000 C   0  0  0  0  0  0  0  0  0  0  0  0
    5.5562    2.4614    0.0000 C   0  0  0  0  0  0  0  0  0  0  0  0
    4.9327    1.6795    0.0000 C   0  0  0  0  0  0  0  0  0  0  0  0
    7.4398   -1.4500    0.0000 C   0  0  0  0  0  0  0  0  0  0  0  0
    6.4590   -1.4513    0.0000 C   0  0  0  0  0  0  0  0  0  0  0  0
    4.4027   -0.0156    0.0000 C   0  0  0  0  0  0  0  0  0  0  0  0
    4.8325   -0.8277    0.0000 C   0  0  0  0  0  0  0  0  0  0  0  0
    3.9422    2.0018    0.0000 C   0  0  0  0  0  0  0  0  0  0  0  0
    6.1043   -2.4094    0.0000 C   0  0  0  0  0  0  0  0  0  0  0  0
    3.4050    0.2838    0.0000 C   0  0  0  0  0  0  0  0  0  0  0  0
    3.1732    1.2993    0.0000 C   0  0  0  0  0  0  0  0  0  0  0  0
    4.4558   -1.7773    0.0000 C   0  0  0  0  0  0  0  0  0  0  0  0
    5.0960   -2.5735    0.0000 C   0  0  0  0  0  0  0  0  0  0  0  0
    2.0000    2.5735    0.0000 C   0  0  0  0  0  0  0  0  0  0  0  0
    5.4985   -0.0002    0.0000 H   0  0  0  0  0  0  0  0  0  0  0  0
    7.7383    1.4105    0.0000 H   0  0  0  0  0  0  0  0  0  0  0  0
    7.5662    2.1642    0.0000 H   0  0  0  0  0  0  0  0  0  0  0  0
    8.4579    0.2700    0.0000 H   0  0  0  0  0  0  0  0  0  0  0  0
    7.9794    0.8767    0.0000 H   0  0  0  0  0  0  0  0  0  0  0  0
    7.1148    2.7304    0.0000 H   0  0  0  0  0  0  0  0  0  0  0  0
    6.4182    3.0658    0.0000 H   0  0  0  0  0  0  0  0  0  0  0  0
    8.4378   -1.1696    0.0000 H   0  0  0  0  0  0  0  0  0  0  0  0
    8.6118   -0.4167    0.0000 H   0  0  0  0  0  0  0  0  0  0  0  0
    5.6941    3.0658    0.0000 H   0  0  0  0  0  0  0  0  0  0  0  0
    4.9976    2.7304    0.0000 H   0  0  0  0  0  0  0  0  0  0  0  0
    7.3021   -2.0545    0.0000 H   0  0  0  0  0  0  0  0  0  0  0  0
    7.9983   -1.7192    0.0000 H   0  0  0  0  0  0  0  0  0  0  0  0
    4.5476   -0.6184    0.0000 H   0  0  0  0  0  0  0  0  0  0  0  0
    4.4496   -0.3401    0.0000 H   0  0  0  0  0  0  0  0  0  0  0  0
    3.8112    2.6079    0.0000 H   0  0  0  0  0  0  0  0  0  0  0  0
    6.4984   -2.8880    0.0000 H   0  0  0  0  0  0  0  0  0  0  0  0
    2.9521   -0.1397    0.0000 H   0  0  0  0  0  0  0  0  0  0  0  0
    3.8427   -1.8698    0.0000 H   0  0  0  0  0  0  0  0  0  0  0  0
    4.8740   -3.1524    0.0000 H   0  0  0  0  0  0  0  0  0  0  0  0
    2.6050    2.7091    0.0000 H   0  0  0  0  0  0  0  0  0  0  0  0
    1.8644    3.1785    0.0000 H   0  0  0  0  0  0  0  0  0  0  0  0
    1.3950    2.4379    0.0000 H   0  0  0  0  0  0  0  0  0  0  0  0
  1 19  1  0  0  0  0
  1 22  1  0  0  0  0
  2  3  1  0  0  0  0
  2  4  1  0  0  0  0
  2  5  1  0  0  0  0
  3  6  1  0  0  0  0
  3  7  1  0  0  0  0
  3 23  1  0  0  0  0
  4  8  1  0  0  0  0
  4 24  1  0  0  0  0
  4 25  1  0  0  0  0
  5  9  1  0  0  0  0
  5 26  1  0  0  0  0
  5 27  1  0  0  0  0
  6 11  2  0  0  0  0
  6 14  1  0  0  0  0
  7 13  1  0  0  0  0
  7 15  2  0  0  0  0
  8 10  1  0  0  0  0
  8 28  1  0  0  0  0
  8 29  1  0  0  0  0
  9 12  1  0  0  0  0
  9 30  1  0  0  0  0
  9 31  1  0  0  0  0
 10 11  1  0  0  0  0
 10 32  1  0  0  0  0
 10 33  1  0  0  0  0
 11 16  1  0  0  0  0
 12 13  1  0  0  0  0
 12 34  1  0  0  0  0
 12 35  1  0  0  0  0
 13 17  2  0  0  0  0
 14 18  2  0  0  0  0
 14 36  1  0  0  0  0
 15 20  1  0  0  0  0
 15 37  1  0  0  0  0
 16 19  2  0  0  0  0
 16 38  1  0  0  0  0
 17 21  1  0  0  0  0
 17 39  1  0  0  0  0
 18 19  1  0  0  0  0
 18 40  1  0  0  0  0
 20 21  2  0  0  0  0
 20 41  1  0  0  0  0
 21 42  1  0  0  0  0
 22 43  1  0  0  0  0
 22 44  1  0  0  0  0
 22 45  1  0  0  0  0
M  END
> <PUBCHEM_COMPOUND_CID>
17755875

> <PUBCHEM_COMPOUND_CANONICALIZED>
1

> <PUBCHEM_CACTVS_COMPLEXITY>
371

> <PUBCHEM_CACTVS_HBOND_ACCEPTOR>
2

> <PUBCHEM_CACTVS_HBOND_DONOR>
0

> <PUBCHEM_CACTVS_ROTATABLE_BOND>
1

> <PUBCHEM_CACTVS_SUBSKEYS>
AAADceB6IAAAAAAAAAAAAAAAAAAAAAAAAAAwYAAABYsAAAABQAAAHgAAAAAADCzBmAYyBoMABACAAiBCAACCCAAgIAAIiAAODIgMJiKEsRuEMChkwBGIqAeQ0PMOoAABAAAQAABAAAIAACAAAAAAAAAAAA==

> <PUBCHEM_IUPAC_OPENEYE_NAME>
5-methoxy-11-azatetracyclo[9.9.0.02,7.015,20]icosa-2(7),3,5,15,17,19-hexaene

> <PUBCHEM_IUPAC_CAS_NAME>
5-methoxy-11-azatetracyclo[9.9.0.02,7.015,20]eicosa-2(7),3,5,15,17,19-hexaene

> <PUBCHEM_IUPAC_NAME_MARKUP>
5-methoxy-11-azatetracyclo[9.9.0.0<SUP>2,7</SUP>.0<SUP>15,20</SUP>]icosa-2(7),3,5,15,17,19-hexaene

> <PUBCHEM_IUPAC_NAME>
5-methoxy-11-azatetracyclo[9.9.0.02,7.015,20]icosa-2(7),3,5,15,17,19-hexaene

> <PUBCHEM_IUPAC_SYSTEMATIC_NAME>
5-methoxy-11-azatetracyclo[9.9.0.02,7.015,20]icosa-2(7),3,5,15,17,19-hexaene

> <PUBCHEM_IUPAC_TRADITIONAL_NAME>
5-methoxy-11-azatetracyclo[9.9.0.02,7.015,20]eicosa-2(7),3,5,15,17,19-hexaene

> <PUBCHEM_IUPAC_INCHI>
InChI=1S/C20H23NO/c1-22-17-10-11-19-16(14-17)8-5-13-21-12-4-7-15-6-2-3-9-18(15)20(19)21/h2-3,6,9-11,14,20H,4-5,7-8,12-13H2,1H3

> <PUBCHEM_IUPAC_INCHIKEY>
LQBNKUHZTYCCMU-UHFFFAOYSA-N

> <PUBCHEM_XLOGP3_AA>
4.2

> <PUBCHEM_EXACT_MASS>
293.177964357

> <PUBCHEM_MOLECULAR_FORMULA>
C20H23NO

> <PUBCHEM_MOLECULAR_WEIGHT>
293.4

> <PUBCHEM_OPENEYE_CAN_SMILES>
COC1=CC2=C(C=C1)C3C4=CC=CC=C4CCCN3CCC2

> <PUBCHEM_OPENEYE_ISO_SMILES>
COC1=CC2=C(C=C1)C3C4=CC=CC=C4CCCN3CCC2

> <PUBCHEM_CACTVS_TPSA>
12.5

> <PUBCHEM_MONOISOTOPIC_WEIGHT>
293.177964357

> <PUBCHEM_TOTAL_CHARGE>
0

> <PUBCHEM_HEAVY_ATOM_COUNT>
22

> <PUBCHEM_ATOM_DEF_STEREO_COUNT>
0

> <PUBCHEM_ATOM_UDEF_STEREO_COUNT>
1

> <PUBCHEM_BOND_DEF_STEREO_COUNT>
0

> <PUBCHEM_BOND_UDEF_STEREO_COUNT>
0

> <PUBCHEM_ISOTOPIC_ATOM_COUNT>
0

> <PUBCHEM_COMPONENT_COUNT>
1

> <PUBCHEM_CACTVS_TAUTO_COUNT>
-1

> <PUBCHEM_COORDINATE_TYPE>
1
5
255

> <PUBCHEM_BONDANNOTATIONS>
11  16  8
13  17  8
14  18  8
15  20  8
16  19  8
17  21  8
18  19  8
20  21  8
3  7  3
6  11  8
6  14  8
7  13  8
7  15  8

$$$$
