76328296
  -OEChem-09292322342D

 58 62  0     1  0  0  0  0  0999 V2000
    2.0000   -0.1446    0.0000 F   0  0  0  0  0  0  0  0  0  0  0  0
   11.9055   -0.6684    0.0000 O   0  0  0  0  0  0  0  0  0  0  0  0
    4.7684   -2.3663    0.0000 O   0  0  0  0  0  0  0  0  0  0  0  0
    8.4414    0.3316    0.0000 N   0  0  0  0  0  0  0  0  0  0  0  0
    5.7402   -2.1571    0.0000 N   0  0  0  0  0  0  0  0  0  0  0  0
   15.4356    0.3075    0.0000 N   0  0  0  0  0  0  0  0  0  0  0  0
   11.0395    0.8316    0.0000 C   0  0  3  0  0  0  0  0  0  0  0  0
   10.1734    0.3316    0.0000 C   0  0  0  0  0  0  0  0  0  0  0  0
    6.7093   -0.6684    0.0000 C   0  0  0  0  0  0  0  0  0  0  0  0
    9.3074    0.8316    0.0000 C   0  0  0  0  0  0  0  0  0  0  0  0
   11.9055    0.3316    0.0000 C   0  0  3  0  0  0  0  0  0  0  0  0
   11.0395    1.8316    0.0000 C   0  0  0  0  0  0  0  0  0  0  0  0
    7.5754    0.8316    0.0000 C   0  0  0  0  0  0  0  0  0  0  0  0
    8.4414   -0.6684    0.0000 C   0  0  0  0  0  0  0  0  0  0  0  0
    6.7093    0.3316    0.0000 C   0  0  0  0  0  0  0  0  0  0  0  0
    7.5754   -1.1684    0.0000 C   0  0  0  0  0  0  0  0  0  0  0  0
   11.9055    2.3316    0.0000 C   0  0  0  0  0  0  0  0  0  0  0  0
   12.7715    0.8316    0.0000 C   0  0  0  0  0  0  0  0  0  0  0  0
   12.7715    1.8316    0.0000 C   0  0  0  0  0  0  0  0  0  0  0  0
    5.8433   -1.1684    0.0000 C   0  0  0  0  0  0  0  0  0  0  0  0
   13.6654    0.2970    0.0000 C   0  0  0  0  0  0  0  0  0  0  0  0
   13.6654    2.3663    0.0000 C   0  0  0  0  0  0  0  0  0  0  0  0
    4.9355   -0.7633    0.0000 C   0  0  0  0  0  0  0  0  0  0  0  0
   14.5715    0.8108    0.0000 C   0  0  0  0  0  0  0  0  0  0  0  0
   14.5715    1.8524    0.0000 C   0  0  0  0  0  0  0  0  0  0  0  0
    4.2677   -1.5076    0.0000 C   0  0  0  0  0  0  0  0  0  0  0  0
    4.6249    0.1873    0.0000 C   0  0  0  0  0  0  0  0  0  0  0  0
    3.2892   -1.3013    0.0000 C   0  0  0  0  0  0  0  0  0  0  0  0
    3.6464    0.3935    0.0000 C   0  0  0  0  0  0  0  0  0  0  0  0
    2.9785   -0.3508    0.0000 C   0  0  0  0  0  0  0  0  0  0  0  0
   10.5025    1.1416    0.0000 H   0  0  0  0  0  0  0  0  0  0  0  0
    9.7749   -0.1433    0.0000 H   0  0  0  0  0  0  0  0  0  0  0  0
   10.5720   -0.1433    0.0000 H   0  0  0  0  0  0  0  0  0  0  0  0
    6.7093   -1.2884    0.0000 H   0  0  0  0  0  0  0  0  0  0  0  0
    9.7059    1.3066    0.0000 H   0  0  0  0  0  0  0  0  0  0  0  0
    8.9089    1.3066    0.0000 H   0  0  0  0  0  0  0  0  0  0  0  0
   12.4424    0.0216    0.0000 H   0  0  0  0  0  0  0  0  0  0  0  0
   10.8274    2.4142    0.0000 H   0  0  0  0  0  0  0  0  0  0  0  0
   10.4289    1.7240    0.0000 H   0  0  0  0  0  0  0  0  0  0  0  0
    7.9739    1.3066    0.0000 H   0  0  0  0  0  0  0  0  0  0  0  0
    7.1768    1.3066    0.0000 H   0  0  0  0  0  0  0  0  0  0  0  0
    8.6534   -1.2510    0.0000 H   0  0  0  0  0  0  0  0  0  0  0  0
    9.0520   -0.5607    0.0000 H   0  0  0  0  0  0  0  0  0  0  0  0
    6.4973    0.9142    0.0000 H   0  0  0  0  0  0  0  0  0  0  0  0
    6.0988    0.2240    0.0000 H   0  0  0  0  0  0  0  0  0  0  0  0
    7.1768   -1.6433    0.0000 H   0  0  0  0  0  0  0  0  0  0  0  0
    7.9739   -1.6433    0.0000 H   0  0  0  0  0  0  0  0  0  0  0  0
   12.3040    2.8066    0.0000 H   0  0  0  0  0  0  0  0  0  0  0  0
   11.5070    2.8066    0.0000 H   0  0  0  0  0  0  0  0  0  0  0  0
   13.6583   -0.3230    0.0000 H   0  0  0  0  0  0  0  0  0  0  0  0
   13.6583    2.9862    0.0000 H   0  0  0  0  0  0  0  0  0  0  0  0
   11.3685   -0.9784    0.0000 H   0  0  0  0  0  0  0  0  0  0  0  0
   15.1073    2.1645    0.0000 H   0  0  0  0  0  0  0  0  0  0  0  0
    5.0389    0.6487    0.0000 H   0  0  0  0  0  0  0  0  0  0  0  0
    2.8751   -1.7628    0.0000 H   0  0  0  0  0  0  0  0  0  0  0  0
   15.9737    0.6154    0.0000 H   0  0  0  0  0  0  0  0  0  0  0  0
   15.4332   -0.3125    0.0000 H   0  0  0  0  0  0  0  0  0  0  0  0
    3.4537    0.9828    0.0000 H   0  0  0  0  0  0  0  0  0  0  0  0
  1 30  1  0  0  0  0
  2 11  1  0  0  0  0
  2 52  1  0  0  0  0
  3  5  1  0  0  0  0
  3 26  1  0  0  0  0
  4 10  1  0  0  0  0
  4 13  1  0  0  0  0
  4 14  1  0  0  0  0
  5 20  2  0  0  0  0
  6 24  1  0  0  0  0
  6 56  1  0  0  0  0
  6 57  1  0  0  0  0
  7  8  1  0  0  0  0
  7 11  1  0  0  0  0
  7 12  1  0  0  0  0
  7 31  1  0  0  0  0
  8 10  1  0  0  0  0
  8 32  1  0  0  0  0
  8 33  1  0  0  0  0
  9 15  1  0  0  0  0
  9 16  1  0  0  0  0
  9 20  1  0  0  0  0
  9 34  1  0  0  0  0
 10 35  1  0  0  0  0
 10 36  1  0  0  0  0
 11 18  1  0  0  0  0
 11 37  1  0  0  0  0
 12 17  1  0  0  0  0
 12 38  1  0  0  0  0
 12 39  1  0  0  0  0
 13 15  1  0  0  0  0
 13 40  1  0  0  0  0
 13 41  1  0  0  0  0
 14 16  1  0  0  0  0
 14 42  1  0  0  0  0
 14 43  1  0  0  0  0
 15 44  1  0  0  0  0
 15 45  1  0  0  0  0
 16 46  1  0  0  0  0
 16 47  1  0  0  0  0
 17 19  1  0  0  0  0
 17 48  1  0  0  0  0
 17 49  1  0  0  0  0
 18 19  2  0  0  0  0
 18 21  1  0  0  0  0
 19 22  1  0  0  0  0
 20 23  1  0  0  0  0
 21 24  2  0  0  0  0
 21 50  1  0  0  0  0
 22 25  2  0  0  0  0
 22 51  1  0  0  0  0
 23 26  2  0  0  0  0
 23 27  1  0  0  0  0
 24 25  1  0  0  0  0
 25 53  1  0  0  0  0
 26 28  1  0  0  0  0
 27 29  2  0  0  0  0
 27 54  1  0  0  0  0
 28 30  2  0  0  0  0
 28 55  1  0  0  0  0
 29 30  1  0  0  0  0
 29 58  1  0  0  0  0
M  END
> <PUBCHEM_COMPOUND_CID>
76328296

> <PUBCHEM_COMPOUND_CANONICALIZED>
1

> <PUBCHEM_CACTVS_COMPLEXITY>
573

> <PUBCHEM_CACTVS_HBOND_ACCEPTOR>
6

> <PUBCHEM_CACTVS_HBOND_DONOR>
2

> <PUBCHEM_CACTVS_ROTATABLE_BOND>
4

> <PUBCHEM_CACTVS_SUBSKEYS>
AAADceB7MQAAAAAAAAAAAAAAAAAAAWAAAAA8YMEAAAAAAFjB9AAAHwAUCAAADRzhng4wxtNQAgCpA6RyQgCCAAAkIgAomCE+bNoINrqAlZOEcYBm0BmI2ce4yPCOiAAAQAAYAACQAAaAADAAAAAAAAAAAA==

> <PUBCHEM_IUPAC_OPENEYE_NAME>
7-amino-2-[2-[4-(6-fluoro-1,2-benzoxazol-3-yl)-1-piperidyl]ethyl]tetralin-1-ol

> <PUBCHEM_IUPAC_CAS_NAME>
7-amino-2-[2-[4-(6-fluoro-1,2-benzoxazol-3-yl)-1-piperidinyl]ethyl]-1,2,3,4-tetrahydronaphthalen-1-ol

> <PUBCHEM_IUPAC_NAME_MARKUP>
7-amino-2-[2-[4-(6-fluoro-1,2-benzoxazol-3-yl)piperidin-1-yl]ethyl]-1,2,3,4-tetrahydronaphthalen-1-ol

> <PUBCHEM_IUPAC_NAME>
7-amino-2-[2-[4-(6-fluoro-1,2-benzoxazol-3-yl)piperidin-1-yl]ethyl]-1,2,3,4-tetrahydronaphthalen-1-ol

> <PUBCHEM_IUPAC_SYSTEMATIC_NAME>
7-azanyl-2-[2-[4-(6-fluoranyl-1,2-benzoxazol-3-yl)piperidin-1-yl]ethyl]-1,2,3,4-tetrahydronaphthalen-1-ol

> <PUBCHEM_IUPAC_TRADITIONAL_NAME>
7-amino-2-[2-[4-(6-fluoroindoxazen-3-yl)piperidino]ethyl]tetralin-1-ol

> <PUBCHEM_IUPAC_INCHI>
InChI=1S/C24H28FN3O2/c25-18-4-6-20-22(13-18)30-27-23(20)16-7-10-28(11-8-16)12-9-17-2-1-15-3-5-19(26)14-21(15)24(17)29/h3-6,13-14,16-17,24,29H,1-2,7-12,26H2

> <PUBCHEM_IUPAC_INCHIKEY>
LNIMWHNBBWKUND-UHFFFAOYSA-N

> <PUBCHEM_XLOGP3_AA>
3.6

> <PUBCHEM_EXACT_MASS>
409.21655531

> <PUBCHEM_MOLECULAR_FORMULA>
C24H28FN3O2

> <PUBCHEM_MOLECULAR_WEIGHT>
409.5

> <PUBCHEM_OPENEYE_CAN_SMILES>
C1CC2=C(C=C(C=C2)N)C(C1CCN3CCC(CC3)C4=NOC5=C4C=CC(=C5)F)O

> <PUBCHEM_OPENEYE_ISO_SMILES>
C1CC2=C(C=C(C=C2)N)C(C1CCN3CCC(CC3)C4=NOC5=C4C=CC(=C5)F)O

> <PUBCHEM_CACTVS_TPSA>
75.5

> <PUBCHEM_MONOISOTOPIC_WEIGHT>
409.21655531

> <PUBCHEM_TOTAL_CHARGE>
0

> <PUBCHEM_HEAVY_ATOM_COUNT>
30

> <PUBCHEM_ATOM_DEF_STEREO_COUNT>
0

> <PUBCHEM_ATOM_UDEF_STEREO_COUNT>
2

> <PUBCHEM_BOND_DEF_STEREO_COUNT>
0

> <PUBCHEM_BOND_UDEF_STEREO_COUNT>
0

> <PUBCHEM_ISOTOPIC_ATOM_COUNT>
0

> <PUBCHEM_COMPONENT_COUNT>
1

> <PUBCHEM_CACTVS_TAUTO_COUNT>
-1

> <PUBCHEM_COORDINATE_TYPE>
1
5
255

> <PUBCHEM_BONDANNOTATIONS>
18  19  8
18  21  8
19  22  8
11  2  3
20  23  8
21  24  8
22  25  8
23  26  8
23  27  8
24  25  8
26  28  8
27  29  8
28  30  8
29  30  8
3  26  8
3  5  8
5  20  8
7  8  3

$$$$
