137645196
  -OEChem-09292322392D

 39 41  0     1  0  0  0  0  0999 V2000
    4.8835   -0.3561    0.0000 O   0  0  0  0  0  0  0  0  0  0  0  0
    3.1235   -3.3908    0.0000 O   0  0  0  0  0  0  0  0  0  0  0  0
    6.6536   -2.4150    0.0000 O   0  0  0  0  0  0  0  0  0  0  0  0
    3.1235    0.6092    0.0000 N   0  0  3  0  0  0  0  0  0  0  0  0
    3.6235    2.7998    0.0000 N   0  0  3  0  0  0  0  0  0  0  0  0
    4.8835   -2.4255    0.0000 N   0  0  0  0  0  0  0  0  0  0  0  0
    2.2225    1.0431    0.0000 C   0  0  0  0  0  0  0  0  0  0  0  0
    4.0245    1.0431    0.0000 C   0  0  0  0  0  0  0  0  0  0  0  0
    2.0000    2.0180    0.0000 C   0  0  0  0  0  0  0  0  0  0  0  0
    4.2470    2.0180    0.0000 C   0  0  0  0  0  0  0  0  0  0  0  0
    2.6235    2.7998    0.0000 C   0  0  0  0  0  0  0  0  0  0  0  0
    3.1235   -0.3908    0.0000 C   0  0  0  0  0  0  0  0  0  0  0  0
    3.9895   -0.8908    0.0000 C   0  0  0  0  0  0  0  0  0  0  0  0
    4.0574    3.7008    0.0000 C   0  0  0  0  0  0  0  0  0  0  0  0
    2.2575   -0.8908    0.0000 C   0  0  0  0  0  0  0  0  0  0  0  0
    3.9895   -1.8908    0.0000 C   0  0  0  0  0  0  0  0  0  0  0  0
    3.1235   -2.3908    0.0000 C   0  0  0  0  0  0  0  0  0  0  0  0
    2.2575   -1.8908    0.0000 C   0  0  0  0  0  0  0  0  0  0  0  0
    5.7895   -0.8700    0.0000 C   0  0  0  0  0  0  0  0  0  0  0  0
    5.7895   -1.9116    0.0000 C   0  0  0  0  0  0  0  0  0  0  0  0
    1.6025    1.0431    0.0000 H   0  0  0  0  0  0  0  0  0  0  0  0
    2.0846    0.4386    0.0000 H   0  0  0  0  0  0  0  0  0  0  0  0
    4.1624    0.4386    0.0000 H   0  0  0  0  0  0  0  0  0  0  0  0
    4.6445    1.0431    0.0000 H   0  0  0  0  0  0  0  0  0  0  0  0
    1.6134    2.5027    0.0000 H   0  0  0  0  0  0  0  0  0  0  0  0
    1.4414    1.7490    0.0000 H   0  0  0  0  0  0  0  0  0  0  0  0
    4.8056    1.7490    0.0000 H   0  0  0  0  0  0  0  0  0  0  0  0
    4.6335    2.5027    0.0000 H   0  0  0  0  0  0  0  0  0  0  0  0
    2.7614    3.4043    0.0000 H   0  0  0  0  0  0  0  0  0  0  0  0
    2.0649    3.0688    0.0000 H   0  0  0  0  0  0  0  0  0  0  0  0
    4.6160    3.4318    0.0000 H   0  0  0  0  0  0  0  0  0  0  0  0
    4.3264    4.2594    0.0000 H   0  0  0  0  0  0  0  0  0  0  0  0
    3.4988    3.9698    0.0000 H   0  0  0  0  0  0  0  0  0  0  0  0
    1.7205   -0.5808    0.0000 H   0  0  0  0  0  0  0  0  0  0  0  0
    1.7205   -2.2008    0.0000 H   0  0  0  0  0  0  0  0  0  0  0  0
    4.8763   -3.0454    0.0000 H   0  0  0  0  0  0  0  0  0  0  0  0
    6.4004   -0.9761    0.0000 H   0  0  0  0  0  0  0  0  0  0  0  0
    5.9986   -0.2863    0.0000 H   0  0  0  0  0  0  0  0  0  0  0  0
    2.5866   -3.7008    0.0000 H   0  0  0  0  0  0  0  0  0  0  0  0
  1 13  1  0  0  0  0
  1 19  1  0  0  0  0
  2 17  1  0  0  0  0
  2 39  1  0  0  0  0
  3 20  2  0  0  0  0
  4  7  1  0  0  0  0
  4  8  1  0  0  0  0
  4 12  1  0  0  0  0
  5 10  1  0  0  0  0
  5 11  1  0  0  0  0
  5 14  1  0  0  0  0
  6 16  1  0  0  0  0
  6 20  1  0  0  0  0
  6 36  1  0  0  0  0
  7  9  1  0  0  0  0
  7 21  1  0  0  0  0
  7 22  1  0  0  0  0
  8 10  1  0  0  0  0
  8 23  1  0  0  0  0
  8 24  1  0  0  0  0
  9 11  1  0  0  0  0
  9 25  1  0  0  0  0
  9 26  1  0  0  0  0
 10 27  1  0  0  0  0
 10 28  1  0  0  0  0
 11 29  1  0  0  0  0
 11 30  1  0  0  0  0
 12 13  2  0  0  0  0
 12 15  1  0  0  0  0
 13 16  1  0  0  0  0
 14 31  1  0  0  0  0
 14 32  1  0  0  0  0
 14 33  1  0  0  0  0
 15 18  2  0  0  0  0
 15 34  1  0  0  0  0
 16 17  2  0  0  0  0
 17 18  1  0  0  0  0
 18 35  1  0  0  0  0
 19 20  1  0  0  0  0
 19 37  1  0  0  0  0
 19 38  1  0  0  0  0
M  END
> <PUBCHEM_COMPOUND_CID>
137645196

> <PUBCHEM_COMPOUND_CANONICALIZED>
1

> <PUBCHEM_CACTVS_COMPLEXITY>
366

> <PUBCHEM_CACTVS_HBOND_ACCEPTOR>
5

> <PUBCHEM_CACTVS_HBOND_DONOR>
2

> <PUBCHEM_CACTVS_ROTATABLE_BOND>
1

> <PUBCHEM_CACTVS_SUBSKEYS>
AAADceBzMAAAAAAAAAAAAAAAAAAAAAAAAAA8QAAABYAAAACxAAAAHgAQCAAACAzhkAYyxoPABgCIACVSUAKCCAAhIgAIiABPbIgOZyLW8N+XeCjl1BXY+AewYAwAAEAACAQAEAAAgAAQCAAgAAAAAAAAAA==

> <PUBCHEM_IUPAC_OPENEYE_NAME>
5-hydroxy-8-(4-methyl-1,4-diazepan-1-yl)-4H-1,4-benzoxazin-3-one

> <PUBCHEM_IUPAC_CAS_NAME>
5-hydroxy-8-(4-methyl-1,4-diazepan-1-yl)-4H-1,4-benzoxazin-3-one

> <PUBCHEM_IUPAC_NAME_MARKUP>
5-hydroxy-8-(4-methyl-1,4-diazepan-1-yl)-4<I>H</I>-1,4-benzoxazin-3-one

> <PUBCHEM_IUPAC_NAME>
5-hydroxy-8-(4-methyl-1,4-diazepan-1-yl)-4H-1,4-benzoxazin-3-one

> <PUBCHEM_IUPAC_SYSTEMATIC_NAME>
8-(4-methyl-1,4-diazepan-1-yl)-5-oxidanyl-4H-1,4-benzoxazin-3-one

> <PUBCHEM_IUPAC_TRADITIONAL_NAME>
5-hydroxy-8-(4-methyl-1,4-diazepan-1-yl)-4H-1,4-benzoxazin-3-one

> <PUBCHEM_IUPAC_INCHI>
InChI=1S/C14H19N3O3/c1-16-5-2-6-17(8-7-16)10-3-4-11(18)13-14(10)20-9-12(19)15-13/h3-4,18H,2,5-9H2,1H3,(H,15,19)

> <PUBCHEM_IUPAC_INCHIKEY>
UIGNLOIMCOMSJP-UHFFFAOYSA-N

> <PUBCHEM_XLOGP3_AA>
0.8

> <PUBCHEM_EXACT_MASS>
277.14264148

> <PUBCHEM_MOLECULAR_FORMULA>
C14H19N3O3

> <PUBCHEM_MOLECULAR_WEIGHT>
277.32

> <PUBCHEM_OPENEYE_CAN_SMILES>
CN1CCCN(CC1)C2=C3C(=C(C=C2)O)NC(=O)CO3

> <PUBCHEM_OPENEYE_ISO_SMILES>
CN1CCCN(CC1)C2=C3C(=C(C=C2)O)NC(=O)CO3

> <PUBCHEM_CACTVS_TPSA>
65

> <PUBCHEM_MONOISOTOPIC_WEIGHT>
277.14264148

> <PUBCHEM_TOTAL_CHARGE>
0

> <PUBCHEM_HEAVY_ATOM_COUNT>
20

> <PUBCHEM_ATOM_DEF_STEREO_COUNT>
0

> <PUBCHEM_ATOM_UDEF_STEREO_COUNT>
0

> <PUBCHEM_BOND_DEF_STEREO_COUNT>
0

> <PUBCHEM_BOND_UDEF_STEREO_COUNT>
0

> <PUBCHEM_ISOTOPIC_ATOM_COUNT>
0

> <PUBCHEM_COMPONENT_COUNT>
1

> <PUBCHEM_CACTVS_TAUTO_COUNT>
-1

> <PUBCHEM_COORDINATE_TYPE>
1
5
255

> <PUBCHEM_BONDANNOTATIONS>
12  13  8
12  15  8
13  16  8
15  18  8
16  17  8
17  18  8

$$$$
