56597092
  -OEChem-09292321592D

 54 57  0     0  0  0  0  0  0999 V2000
    3.7282    0.4572    0.0000 Cl  0  0  0  0  0  0  0  0  0  0  0  0
    2.0000   -0.5494    0.0000 Cl  0  0  0  0  0  0  0  0  0  0  0  0
   10.6563    0.4839    0.0000 O   0  0  0  0  0  0  0  0  0  0  0  0
   14.1865   -0.4919    0.0000 O   0  0  0  0  0  0  0  0  0  0  0  0
    7.1923    0.4706    0.0000 N   0  0  0  0  0  0  0  0  0  0  0  0
    5.4641   -0.5361    0.0000 N   0  0  0  0  0  0  0  0  0  0  0  0
   15.0525    1.0081    0.0000 N   0  0  0  0  0  0  0  0  0  0  0  0
    6.3243    0.9672    0.0000 C   0  0  0  0  0  0  0  0  0  0  0  0
    7.1961   -0.5294    0.0000 C   0  0  0  0  0  0  0  0  0  0  0  0
    5.4602    0.4639    0.0000 C   0  0  0  0  0  0  0  0  0  0  0  0
    6.3320   -1.0327    0.0000 C   0  0  0  0  0  0  0  0  0  0  0  0
    8.0564    0.9739    0.0000 C   0  0  0  0  0  0  0  0  0  0  0  0
    8.9243    0.4773    0.0000 C   0  0  0  0  0  0  0  0  0  0  0  0
    4.6000   -1.0394    0.0000 C   0  0  0  0  0  0  0  0  0  0  0  0
    9.7884    0.9806    0.0000 C   0  0  0  0  0  0  0  0  0  0  0  0
    3.7320   -0.5428    0.0000 C   0  0  0  0  0  0  0  0  0  0  0  0
    4.6038   -2.0394    0.0000 C   0  0  0  0  0  0  0  0  0  0  0  0
   13.3204    2.0081    0.0000 C   0  0  0  0  0  0  0  0  0  0  0  0
   14.1865    2.5081    0.0000 C   0  0  0  0  0  0  0  0  0  0  0  0
   13.3204    1.0081    0.0000 C   0  0  0  0  0  0  0  0  0  0  0  0
   11.5204    0.9873    0.0000 C   0  0  0  0  0  0  0  0  0  0  0  0
   15.0525    2.0081    0.0000 C   0  0  0  0  0  0  0  0  0  0  0  0
   12.4265    0.4734    0.0000 C   0  0  0  0  0  0  0  0  0  0  0  0
    2.8680   -1.0461    0.0000 C   0  0  0  0  0  0  0  0  0  0  0  0
    3.7398   -2.5428    0.0000 C   0  0  0  0  0  0  0  0  0  0  0  0
   12.4265    2.5428    0.0000 C   0  0  0  0  0  0  0  0  0  0  0  0
   11.5204    2.0289    0.0000 C   0  0  0  0  0  0  0  0  0  0  0  0
   14.1865    0.5081    0.0000 C   0  0  0  0  0  0  0  0  0  0  0  0
    2.8718   -2.0461    0.0000 C   0  0  0  0  0  0  0  0  0  0  0  0
    6.7210    1.4437    0.0000 H   0  0  0  0  0  0  0  0  0  0  0  0
    5.9240    1.4406    0.0000 H   0  0  0  0  0  0  0  0  0  0  0  0
    7.4104   -1.1112    0.0000 H   0  0  0  0  0  0  0  0  0  0  0  0
    7.8063   -0.4194    0.0000 H   0  0  0  0  0  0  0  0  0  0  0  0
    5.2459    1.0457    0.0000 H   0  0  0  0  0  0  0  0  0  0  0  0
    4.8501    0.3539    0.0000 H   0  0  0  0  0  0  0  0  0  0  0  0
    5.9353   -1.5092    0.0000 H   0  0  0  0  0  0  0  0  0  0  0  0
    6.7324   -1.5062    0.0000 H   0  0  0  0  0  0  0  0  0  0  0  0
    8.4530    1.4504    0.0000 H   0  0  0  0  0  0  0  0  0  0  0  0
    7.6560    1.4473    0.0000 H   0  0  0  0  0  0  0  0  0  0  0  0
    8.5276    0.0008    0.0000 H   0  0  0  0  0  0  0  0  0  0  0  0
    9.3246    0.0039    0.0000 H   0  0  0  0  0  0  0  0  0  0  0  0
   10.1851    1.4571    0.0000 H   0  0  0  0  0  0  0  0  0  0  0  0
    9.3880    1.4540    0.0000 H   0  0  0  0  0  0  0  0  0  0  0  0
    5.1420   -2.3473    0.0000 H   0  0  0  0  0  0  0  0  0  0  0  0
   14.5850    2.9830    0.0000 H   0  0  0  0  0  0  0  0  0  0  0  0
   13.7879    2.9830    0.0000 H   0  0  0  0  0  0  0  0  0  0  0  0
   15.6631    1.9004    0.0000 H   0  0  0  0  0  0  0  0  0  0  0  0
   15.2645    2.5907    0.0000 H   0  0  0  0  0  0  0  0  0  0  0  0
   12.4337   -0.1465    0.0000 H   0  0  0  0  0  0  0  0  0  0  0  0
    3.7421   -3.1627    0.0000 H   0  0  0  0  0  0  0  0  0  0  0  0
   12.4337    3.1627    0.0000 H   0  0  0  0  0  0  0  0  0  0  0  0
   10.9847    2.3410    0.0000 H   0  0  0  0  0  0  0  0  0  0  0  0
   15.5894    0.6981    0.0000 H   0  0  0  0  0  0  0  0  0  0  0  0
    2.3361   -2.3582    0.0000 H   0  0  0  0  0  0  0  0  0  0  0  0
  1 16  1  0  0  0  0
  2 24  1  0  0  0  0
  3 15  1  0  0  0  0
  3 21  1  0  0  0  0
  4 28  2  0  0  0  0
  5  8  1  0  0  0  0
  5  9  1  0  0  0  0
  5 12  1  0  0  0  0
  6 10  1  0  0  0  0
  6 11  1  0  0  0  0
  6 14  1  0  0  0  0
  7 22  1  0  0  0  0
  7 28  1  0  0  0  0
  7 53  1  0  0  0  0
  8 10  1  0  0  0  0
  8 30  1  0  0  0  0
  8 31  1  0  0  0  0
  9 11  1  0  0  0  0
  9 32  1  0  0  0  0
  9 33  1  0  0  0  0
 10 34  1  0  0  0  0
 10 35  1  0  0  0  0
 11 36  1  0  0  0  0
 11 37  1  0  0  0  0
 12 13  1  0  0  0  0
 12 38  1  0  0  0  0
 12 39  1  0  0  0  0
 13 15  1  0  0  0  0
 13 40  1  0  0  0  0
 13 41  1  0  0  0  0
 14 16  2  0  0  0  0
 14 17  1  0  0  0  0
 15 42  1  0  0  0  0
 15 43  1  0  0  0  0
 16 24  1  0  0  0  0
 17 25  2  0  0  0  0
 17 44  1  0  0  0  0
 18 19  1  0  0  0  0
 18 20  2  0  0  0  0
 18 26  1  0  0  0  0
 19 22  1  0  0  0  0
 19 45  1  0  0  0  0
 19 46  1  0  0  0  0
 20 23  1  0  0  0  0
 20 28  1  0  0  0  0
 21 23  2  0  0  0  0
 21 27  1  0  0  0  0
 22 47  1  0  0  0  0
 22 48  1  0  0  0  0
 23 49  1  0  0  0  0
 24 29  2  0  0  0  0
 25 29  1  0  0  0  0
 25 50  1  0  0  0  0
 26 27  2  0  0  0  0
 26 51  1  0  0  0  0
 27 52  1  0  0  0  0
 29 54  1  0  0  0  0
M  END
> <PUBCHEM_COMPOUND_CID>
56597092

> <PUBCHEM_COMPOUND_CANONICALIZED>
1

> <PUBCHEM_CACTVS_COMPLEXITY>
544

> <PUBCHEM_CACTVS_HBOND_ACCEPTOR>
4

> <PUBCHEM_CACTVS_HBOND_DONOR>
1

> <PUBCHEM_CACTVS_ROTATABLE_BOND>
6

> <PUBCHEM_CACTVS_SUBSKEYS>
AAADceB7MAAGAAAAAAAAAAAAAAAAAAAAAAA8eIEAAAAAAACxQAAAHgIQAAAADA7hmCYwxoPABACIAiVSUACCCAAlJwAIisEObsgMZjLFt5vWOSjm1hHI6Ye6yZCOoAABAAIQABRAAAIABCAAKAAAAAAAAA==

> <PUBCHEM_IUPAC_OPENEYE_NAME>
7-[3-[4-(2,3-dichlorophenyl)piperazin-1-yl]propoxy]-3,4-dihydro-2H-isoquinolin-1-one

> <PUBCHEM_IUPAC_CAS_NAME>
7-[3-[4-(2,3-dichlorophenyl)-1-piperazinyl]propoxy]-3,4-dihydro-2H-isoquinolin-1-one

> <PUBCHEM_IUPAC_NAME_MARKUP>
7-[3-[4-(2,3-dichlorophenyl)piperazin-1-yl]propoxy]-3,4-dihydro-2<I>H</I>-isoquinolin-1-one

> <PUBCHEM_IUPAC_NAME>
7-[3-[4-(2,3-dichlorophenyl)piperazin-1-yl]propoxy]-3,4-dihydro-2H-isoquinolin-1-one

> <PUBCHEM_IUPAC_SYSTEMATIC_NAME>
7-[3-[4-[2,3-bis(chloranyl)phenyl]piperazin-1-yl]propoxy]-3,4-dihydro-2H-isoquinolin-1-one

> <PUBCHEM_IUPAC_TRADITIONAL_NAME>
7-[3-[4-(2,3-dichlorophenyl)piperazino]propoxy]-3,4-dihydroisocarbostyril

> <PUBCHEM_IUPAC_INCHI>
InChI=1S/C22H25Cl2N3O2/c23-19-3-1-4-20(21(19)24)27-12-10-26(11-13-27)9-2-14-29-17-6-5-16-7-8-25-22(28)18(16)15-17/h1,3-6,15H,2,7-14H2,(H,25,28)

> <PUBCHEM_IUPAC_INCHIKEY>
QXPBZNWEPREKHB-UHFFFAOYSA-N

> <PUBCHEM_XLOGP3_AA>
4.4

> <PUBCHEM_EXACT_MASS>
433.1323824

> <PUBCHEM_MOLECULAR_FORMULA>
C22H25Cl2N3O2

> <PUBCHEM_MOLECULAR_WEIGHT>
434.4

> <PUBCHEM_OPENEYE_CAN_SMILES>
C1CNC(=O)C2=C1C=CC(=C2)OCCCN3CCN(CC3)C4=C(C(=CC=C4)Cl)Cl

> <PUBCHEM_OPENEYE_ISO_SMILES>
C1CNC(=O)C2=C1C=CC(=C2)OCCCN3CCN(CC3)C4=C(C(=CC=C4)Cl)Cl

> <PUBCHEM_CACTVS_TPSA>
44.8

> <PUBCHEM_MONOISOTOPIC_WEIGHT>
433.1323824

> <PUBCHEM_TOTAL_CHARGE>
0

> <PUBCHEM_HEAVY_ATOM_COUNT>
29

> <PUBCHEM_ATOM_DEF_STEREO_COUNT>
0

> <PUBCHEM_ATOM_UDEF_STEREO_COUNT>
0

> <PUBCHEM_BOND_DEF_STEREO_COUNT>
0

> <PUBCHEM_BOND_UDEF_STEREO_COUNT>
0

> <PUBCHEM_ISOTOPIC_ATOM_COUNT>
0

> <PUBCHEM_COMPONENT_COUNT>
1

> <PUBCHEM_CACTVS_TAUTO_COUNT>
-1

> <PUBCHEM_COORDINATE_TYPE>
1
5
255

> <PUBCHEM_BONDANNOTATIONS>
14  16  8
14  17  8
16  24  8
17  25  8
18  20  8
18  26  8
20  23  8
21  23  8
21  27  8
24  29  8
25  29  8
26  27  8

$$$$
