13091274
  -OEChem-09292322092D

 55 57  0     1  0  0  0  0  0999 V2000
    9.4338    5.8374    0.0000 Cl  0  0  0  0  0  0  0  0  0  0  0  0
    2.4532   12.2376    0.0000 F   0  0  0  0  0  0  0  0  0  0  0  0
    1.8962    3.2280    0.0000 O   0  0  0  0  0  0  0  0  0  0  0  0
    5.4532    8.7735    0.0000 O   0  0  0  0  0  0  0  0  0  0  0  0
    4.4532    5.3094    0.0000 N   0  0  0  0  0  0  0  0  0  0  0  0
    5.1898    4.3268    0.0000 C   0  0  3  0  0  0  0  0  0  0  0  0
    4.9310    3.3609    0.0000 C   0  0  3  0  0  0  0  0  0  0  0  0
    2.8810    3.0544    0.0000 C   0  0  0  0  0  0  0  0  0  0  0  0
    3.1566    4.0156    0.0000 C   0  0  0  0  0  0  0  0  0  0  0  0
    3.7100    2.4952    0.0000 C   0  0  0  0  0  0  0  0  0  0  0  0
    6.5888    3.8180    0.0000 C   0  0  0  0  0  0  0  0  0  0  0  0
    6.3300    2.8520    0.0000 C   0  0  0  0  0  0  0  0  0  0  0  0
    3.9532    6.1754    0.0000 C   0  0  0  0  0  0  0  0  0  0  0  0
    2.2382    2.2884    0.0000 C   0  0  0  0  0  0  0  0  0  0  0  0
    4.4532    7.0414    0.0000 C   0  0  0  0  0  0  0  0  0  0  0  0
    1.2534    2.4620    0.0000 C   0  0  0  0  0  0  0  0  0  0  0  0
    2.5802    1.3486    0.0000 C   0  0  0  0  0  0  0  0  0  0  0  0
    3.9532    7.9075    0.0000 C   0  0  0  0  0  0  0  0  0  0  0  0
    0.6106    1.6960    0.0000 C   0  0  0  0  0  0  0  0  0  0  0  0
    1.9374    0.5826    0.0000 C   0  0  0  0  0  0  0  0  0  0  0  0
    4.4532    8.7735    0.0000 C   0  0  0  0  0  0  0  0  0  0  0  0
    0.9526    0.7563    0.0000 C   0  0  0  0  0  0  0  0  0  0  0  0
    3.9532    9.6395    0.0000 C   0  0  0  0  0  0  0  0  0  0  0  0
    2.9532    9.6395    0.0000 C   0  0  0  0  0  0  0  0  0  0  0  0
    4.4532   10.5056    0.0000 C   0  0  0  0  0  0  0  0  0  0  0  0
    2.4532   10.5056    0.0000 C   0  0  0  0  0  0  0  0  0  0  0  0
    3.9532   11.3716    0.0000 C   0  0  0  0  0  0  0  0  0  0  0  0
    2.9532   11.3716    0.0000 C   0  0  0  0  0  0  0  0  0  0  0  0
    5.5592    4.8248    0.0000 H   0  0  0  0  0  0  0  0  0  0  0  0
    5.0138    2.7464    0.0000 H   0  0  0  0  0  0  0  0  0  0  0  0
    3.1516    4.6356    0.0000 H   0  0  0  0  0  0  0  0  0  0  0  0
    2.5423    4.0994    0.0000 H   0  0  0  0  0  0  0  0  0  0  0  0
    3.3042    2.0265    0.0000 H   0  0  0  0  0  0  0  0  0  0  0  0
    4.1267    2.0361    0.0000 H   0  0  0  0  0  0  0  0  0  0  0  0
    7.1828    3.6402    0.0000 H   0  0  0  0  0  0  0  0  0  0  0  0
    6.7837    4.4065    0.0000 H   0  0  0  0  0  0  0  0  0  0  0  0
    6.1350    2.2635    0.0000 H   0  0  0  0  0  0  0  0  0  0  0  0
    6.9239    2.6743    0.0000 H   0  0  0  0  0  0  0  0  0  0  0  0
    3.4783    6.5740    0.0000 H   0  0  0  0  0  0  0  0  0  0  0  0
    3.4783    5.7769    0.0000 H   0  0  0  0  0  0  0  0  0  0  0  0
    4.9282    6.6429    0.0000 H   0  0  0  0  0  0  0  0  0  0  0  0
    4.9282    7.4400    0.0000 H   0  0  0  0  0  0  0  0  0  0  0  0
    1.6841    3.8106    0.0000 H   0  0  0  0  0  0  0  0  0  0  0  0
    1.0413    3.0446    0.0000 H   0  0  0  0  0  0  0  0  0  0  0  0
    3.1908    1.2410    0.0000 H   0  0  0  0  0  0  0  0  0  0  0  0
    3.4783    8.3060    0.0000 H   0  0  0  0  0  0  0  0  0  0  0  0
    3.4783    7.5090    0.0000 H   0  0  0  0  0  0  0  0  0  0  0  0
    0.0000    1.8036    0.0000 H   0  0  0  0  0  0  0  0  0  0  0  0
    2.1495    0.0000    0.0000 H   0  0  0  0  0  0  0  0  0  0  0  0
    0.5541    0.2813    0.0000 H   0  0  0  0  0  0  0  0  0  0  0  0
    2.6432    9.1026    0.0000 H   0  0  0  0  0  0  0  0  0  0  0  0
    5.0732   10.5056    0.0000 H   0  0  0  0  0  0  0  0  0  0  0  0
    1.8332   10.5056    0.0000 H   0  0  0  0  0  0  0  0  0  0  0  0
    4.2632   11.9085    0.0000 H   0  0  0  0  0  0  0  0  0  0  0  0
   10.4338    5.8374    0.0000 H   0  0  0  0  0  0  0  0  0  0  0  0
  1 55  1  0  0  0  0
  2 28  1  0  0  0  0
  3  8  1  0  0  0  0
  3 43  1  0  0  0  0
  4 21  2  0  0  0  0
  5  6  1  0  0  0  0
  5  7  1  0  0  0  0
  5 13  1  0  0  0  0
  6  9  1  0  0  0  0
  6 11  1  0  0  0  0
  6 29  1  0  0  0  0
  7 10  1  0  0  0  0
  7 12  1  0  0  0  0
  7 30  1  0  0  0  0
  8  9  1  0  0  0  0
  8 10  1  0  0  0  0
  8 14  1  0  0  0  0
  9 31  1  0  0  0  0
  9 32  1  0  0  0  0
 10 33  1  0  0  0  0
 10 34  1  0  0  0  0
 11 12  1  0  0  0  0
 11 35  1  0  0  0  0
 11 36  1  0  0  0  0
 12 37  1  0  0  0  0
 12 38  1  0  0  0  0
 13 15  1  0  0  0  0
 13 39  1  0  0  0  0
 13 40  1  0  0  0  0
 14 16  2  0  0  0  0
 14 17  1  0  0  0  0
 15 18  1  0  0  0  0
 15 41  1  0  0  0  0
 15 42  1  0  0  0  0
 16 19  1  0  0  0  0
 16 44  1  0  0  0  0
 17 20  2  0  0  0  0
 17 45  1  0  0  0  0
 18 21  1  0  0  0  0
 18 46  1  0  0  0  0
 18 47  1  0  0  0  0
 19 22  2  0  0  0  0
 19 48  1  0  0  0  0
 20 22  1  0  0  0  0
 20 49  1  0  0  0  0
 21 23  1  0  0  0  0
 22 50  1  0  0  0  0
 23 24  2  0  0  0  0
 23 25  1  0  0  0  0
 24 26  1  0  0  0  0
 24 51  1  0  0  0  0
 25 27  2  0  0  0  0
 25 52  1  0  0  0  0
 26 28  2  0  0  0  0
 26 53  1  0  0  0  0
 27 28  1  0  0  0  0
 27 54  1  0  0  0  0
M  END
> <PUBCHEM_COMPOUND_CID>
13091274

> <PUBCHEM_COMPOUND_CANONICALIZED>
1

> <PUBCHEM_CACTVS_COMPLEXITY>
497

> <PUBCHEM_CACTVS_HBOND_ACCEPTOR>
4

> <PUBCHEM_CACTVS_HBOND_DONOR>
2

> <PUBCHEM_CACTVS_ROTATABLE_BOND>
6

> <PUBCHEM_CACTVS_SUBSKEYS>
AAADceB6MQAEAAAAAAAAAAAAAAAAAWAAAAA8YIAABgAAAAABQAAAHwAACAAADGzBmAwwAIMAAgCIAqBSAAACAAAkAAAIiAEICMgIJjKAlRCEcQAmwAGImYecyOCOgAAAAAAAAAAAAAAAAAAAAAAAAAAAAA==

> <PUBCHEM_IUPAC_OPENEYE_NAME>
1-(4-fluorophenyl)-4-(3-hydroxy-3-phenyl-8-azabicyclo[3.2.1]octan-8-yl)butan-1-one;hydrochloride

> <PUBCHEM_IUPAC_CAS_NAME>
1-(4-fluorophenyl)-4-(3-hydroxy-3-phenyl-8-azabicyclo[3.2.1]octan-8-yl)-1-butanone;hydrochloride

> <PUBCHEM_IUPAC_NAME_MARKUP>
1-(4-fluorophenyl)-4-(3-hydroxy-3-phenyl-8-azabicyclo[3.2.1]octan-8-yl)butan-1-one;hydrochloride

> <PUBCHEM_IUPAC_NAME>
1-(4-fluorophenyl)-4-(3-hydroxy-3-phenyl-8-azabicyclo[3.2.1]octan-8-yl)butan-1-one;hydrochloride

> <PUBCHEM_IUPAC_SYSTEMATIC_NAME>
1-(4-fluorophenyl)-4-(3-oxidanyl-3-phenyl-8-azabicyclo[3.2.1]octan-8-yl)butan-1-one;hydrochloride

> <PUBCHEM_IUPAC_TRADITIONAL_NAME>
1-(4-fluorophenyl)-4-(3-hydroxy-3-phenyl-8-azabicyclo[3.2.1]octan-8-yl)butan-1-one;hydrochloride

> <PUBCHEM_IUPAC_INCHI>
InChI=1S/C23H26FNO2.ClH/c24-19-10-8-17(9-11-19)22(26)7-4-14-25-20-12-13-21(25)16-23(27,15-20)18-5-2-1-3-6-18;/h1-3,5-6,8-11,20-21,27H,4,7,12-16H2;1H

> <PUBCHEM_IUPAC_INCHIKEY>
RMASMVQBPUHBKK-UHFFFAOYSA-N

> <PUBCHEM_EXACT_MASS>
403.1714350

> <PUBCHEM_MOLECULAR_FORMULA>
C23H27ClFNO2

> <PUBCHEM_MOLECULAR_WEIGHT>
403.9

> <PUBCHEM_OPENEYE_CAN_SMILES>
C1CC2CC(CC1N2CCCC(=O)C3=CC=C(C=C3)F)(C4=CC=CC=C4)O.Cl

> <PUBCHEM_OPENEYE_ISO_SMILES>
C1CC2CC(CC1N2CCCC(=O)C3=CC=C(C=C3)F)(C4=CC=CC=C4)O.Cl

> <PUBCHEM_CACTVS_TPSA>
40.5

> <PUBCHEM_MONOISOTOPIC_WEIGHT>
403.1714350

> <PUBCHEM_TOTAL_CHARGE>
0

> <PUBCHEM_HEAVY_ATOM_COUNT>
28

> <PUBCHEM_ATOM_DEF_STEREO_COUNT>
0

> <PUBCHEM_ATOM_UDEF_STEREO_COUNT>
2

> <PUBCHEM_BOND_DEF_STEREO_COUNT>
0

> <PUBCHEM_BOND_UDEF_STEREO_COUNT>
0

> <PUBCHEM_ISOTOPIC_ATOM_COUNT>
0

> <PUBCHEM_COMPONENT_COUNT>
2

> <PUBCHEM_CACTVS_TAUTO_COUNT>
-1

> <PUBCHEM_COORDINATE_TYPE>
1
5
255

> <PUBCHEM_BONDANNOTATIONS>
14  16  8
14  17  8
16  19  8
17  20  8
19  22  8
20  22  8
23  24  8
23  25  8
24  26  8
25  27  8
26  28  8
27  28  8
6  11  3
7  12  3

$$$$
