46224879
  -OEChem-09292322292D

 45 48  0     1  0  0  0  0  0999 V2000
    7.0772   -1.8037    0.0000 N   0  0  3  0  0  0  0  0  0  0  0  0
    4.8717    0.3112    0.0000 N   0  0  0  0  0  0  0  0  0  0  0  0
    5.3717   -1.2276    0.0000 C   0  0  0  0  0  0  0  0  0  0  0  0
    5.6808   -0.2766    0.0000 C   0  0  0  0  0  0  0  0  0  0  0  0
    6.6962   -0.0443    0.0000 C   0  0  0  0  0  0  0  0  0  0  0  0
    6.0567   -2.0124    0.0000 C   0  0  0  0  0  0  0  0  0  0  0  0
    7.3991   -0.8130    0.0000 C   0  0  0  0  0  0  0  0  0  0  0  0
    4.3717   -1.2276    0.0000 C   0  0  0  0  0  0  0  0  0  0  0  0
    4.0627   -0.2766    0.0000 C   0  0  0  0  0  0  0  0  0  0  0  0
    3.6868   -2.0124    0.0000 C   0  0  0  0  0  0  0  0  0  0  0  0
    7.7435   -2.5494    0.0000 C   0  0  0  0  0  0  0  0  0  0  0  0
    3.0473   -0.0443    0.0000 C   0  0  0  0  0  0  0  0  0  0  0  0
    4.6981    1.2960    0.0000 C   0  0  0  0  0  0  0  0  0  0  0  0
    2.6663   -1.8037    0.0000 C   0  0  0  0  0  0  0  0  0  0  0  0
    2.3444   -0.8130    0.0000 C   0  0  0  0  0  0  0  0  0  0  0  0
    5.4641    1.9388    0.0000 C   0  0  0  0  0  0  0  0  0  0  0  0
    2.0000   -2.5494    0.0000 C   0  0  0  0  0  0  0  0  0  0  0  0
    6.4038    1.5968    0.0000 C   0  0  0  0  0  0  0  0  0  0  0  0
    7.1699    2.2396    0.0000 C   0  0  0  0  0  0  0  0  0  0  0  0
    6.5775    0.6120    0.0000 C   0  0  0  0  0  0  0  0  0  0  0  0
    8.1096    1.8976    0.0000 C   0  0  0  0  0  0  0  0  0  0  0  0
    7.5172    0.2700    0.0000 C   0  0  0  0  0  0  0  0  0  0  0  0
    8.2832    0.9127    0.0000 C   0  0  0  0  0  0  0  0  0  0  0  0
    7.2186    0.2896    0.0000 H   0  0  0  0  0  0  0  0  0  0  0  0
    6.4565    0.5275    0.0000 H   0  0  0  0  0  0  0  0  0  0  0  0
    5.5267   -2.3341    0.0000 H   0  0  0  0  0  0  0  0  0  0  0  0
    6.2830   -2.5896    0.0000 H   0  0  0  0  0  0  0  0  0  0  0  0
    7.9473   -1.1027    0.0000 H   0  0  0  0  0  0  0  0  0  0  0  0
    7.7783   -0.3225    0.0000 H   0  0  0  0  0  0  0  0  0  0  0  0
    3.8852   -2.5998    0.0000 H   0  0  0  0  0  0  0  0  0  0  0  0
    7.2811   -2.9625    0.0000 H   0  0  0  0  0  0  0  0  0  0  0  0
    8.1566   -3.0117    0.0000 H   0  0  0  0  0  0  0  0  0  0  0  0
    8.2058   -2.1363    0.0000 H   0  0  0  0  0  0  0  0  0  0  0  0
    2.8626    0.5475    0.0000 H   0  0  0  0  0  0  0  0  0  0  0  0
    4.1155    1.5081    0.0000 H   0  0  0  0  0  0  0  0  0  0  0  0
    1.7384   -0.6818    0.0000 H   0  0  0  0  0  0  0  0  0  0  0  0
    5.3565    2.5494    0.0000 H   0  0  0  0  0  0  0  0  0  0  0  0
    1.5376   -2.1363    0.0000 H   0  0  0  0  0  0  0  0  0  0  0  0
    1.5869   -3.0117    0.0000 H   0  0  0  0  0  0  0  0  0  0  0  0
    2.4623   -2.9625    0.0000 H   0  0  0  0  0  0  0  0  0  0  0  0
    7.0622    2.8502    0.0000 H   0  0  0  0  0  0  0  0  0  0  0  0
    6.1025    0.2134    0.0000 H   0  0  0  0  0  0  0  0  0  0  0  0
    8.5845    2.2961    0.0000 H   0  0  0  0  0  0  0  0  0  0  0  0
    7.6248   -0.3406    0.0000 H   0  0  0  0  0  0  0  0  0  0  0  0
    8.8658    0.7007    0.0000 H   0  0  0  0  0  0  0  0  0  0  0  0
  1  6  1  0  0  0  0
  1  7  1  0  0  0  0
  1 11  1  0  0  0  0
  2  4  1  0  0  0  0
  2  9  1  0  0  0  0
  2 13  1  0  0  0  0
  3  4  2  0  0  0  0
  3  6  1  0  0  0  0
  3  8  1  0  0  0  0
  4  5  1  0  0  0  0
  5  7  1  0  0  0  0
  5 24  1  0  0  0  0
  5 25  1  0  0  0  0
  6 26  1  0  0  0  0
  6 27  1  0  0  0  0
  7 28  1  0  0  0  0
  7 29  1  0  0  0  0
  8  9  2  0  0  0  0
  8 10  1  0  0  0  0
  9 12  1  0  0  0  0
 10 14  2  0  0  0  0
 10 30  1  0  0  0  0
 11 31  1  0  0  0  0
 11 32  1  0  0  0  0
 11 33  1  0  0  0  0
 12 15  2  0  0  0  0
 12 34  1  0  0  0  0
 13 16  2  0  0  0  0
 13 35  1  0  0  0  0
 14 15  1  0  0  0  0
 14 17  1  0  0  0  0
 15 36  1  0  0  0  0
 16 18  1  0  0  0  0
 16 37  1  0  0  0  0
 17 38  1  0  0  0  0
 17 39  1  0  0  0  0
 17 40  1  0  0  0  0
 18 19  2  0  0  0  0
 18 20  1  0  0  0  0
 19 21  1  0  0  0  0
 19 41  1  0  0  0  0
 20 22  2  0  0  0  0
 20 42  1  0  0  0  0
 21 23  2  0  0  0  0
 21 43  1  0  0  0  0
 22 23  1  0  0  0  0
 22 44  1  0  0  0  0
 23 45  1  0  0  0  0
M  END
> <PUBCHEM_COMPOUND_CID>
46224879

> <PUBCHEM_COMPOUND_CANONICALIZED>
1

> <PUBCHEM_CACTVS_COMPLEXITY>
426

> <PUBCHEM_CACTVS_HBOND_ACCEPTOR>
1

> <PUBCHEM_CACTVS_HBOND_DONOR>
0

> <PUBCHEM_CACTVS_ROTATABLE_BOND>
2

> <PUBCHEM_CACTVS_SUBSKEYS>
AAADceB7AAAAAAAAAAAAAAAAAAAAAWAAAAA8YIAAAAAAAFgB9AAAHAAAAAAADAjBHgQywPMMEACgAyRmRACCgCAhAiAI2CA4ZJgIIOLA0ZGEIAhggADIyAcQgMAOiAACAAACAAAQAAQAAAQAAAAAAAAAAA==

> <PUBCHEM_IUPAC_OPENEYE_NAME>
2,8-dimethyl-5-[(Z)-styryl]-3,4-dihydro-1H-pyrido[4,3-b]indole

> <PUBCHEM_IUPAC_CAS_NAME>
2,8-dimethyl-5-[(Z)-2-phenylethenyl]-3,4-dihydro-1H-pyrido[4,3-b]indole

> <PUBCHEM_IUPAC_NAME_MARKUP>
2,8-dimethyl-5-[(<I>Z</I>)-2-phenylethenyl]-3,4-dihydro-1<I>H</I>-pyrido[4,3-b]indole

> <PUBCHEM_IUPAC_NAME>
2,8-dimethyl-5-[(Z)-2-phenylethenyl]-3,4-dihydro-1H-pyrido[4,3-b]indole

> <PUBCHEM_IUPAC_SYSTEMATIC_NAME>
2,8-dimethyl-5-[(Z)-2-phenylethenyl]-3,4-dihydro-1H-pyrido[4,3-b]indole

> <PUBCHEM_IUPAC_TRADITIONAL_NAME>
2,8-dimethyl-5-[(Z)-styryl]-3,4-dihydro-1H-pyrid[4,3-b]indole

> <PUBCHEM_IUPAC_INCHI>
InChI=1S/C21H22N2/c1-16-8-9-20-18(14-16)19-15-22(2)12-11-21(19)23(20)13-10-17-6-4-3-5-7-17/h3-10,13-14H,11-12,15H2,1-2H3/b13-10-

> <PUBCHEM_IUPAC_INCHIKEY>
XQDRWCFJBHLWPR-RAXLEYEMSA-N

> <PUBCHEM_XLOGP3_AA>
4.4

> <PUBCHEM_EXACT_MASS>
302.178298710

> <PUBCHEM_MOLECULAR_FORMULA>
C21H22N2

> <PUBCHEM_MOLECULAR_WEIGHT>
302.4

> <PUBCHEM_OPENEYE_CAN_SMILES>
CC1=CC2=C(C=C1)N(C3=C2CN(CC3)C)C=CC4=CC=CC=C4

> <PUBCHEM_OPENEYE_ISO_SMILES>
CC1=CC2=C(C=C1)N(C3=C2CN(CC3)C)/C=C\C4=CC=CC=C4

> <PUBCHEM_CACTVS_TPSA>
8.2

> <PUBCHEM_MONOISOTOPIC_WEIGHT>
302.178298710

> <PUBCHEM_TOTAL_CHARGE>
0

> <PUBCHEM_HEAVY_ATOM_COUNT>
23

> <PUBCHEM_ATOM_DEF_STEREO_COUNT>
0

> <PUBCHEM_ATOM_UDEF_STEREO_COUNT>
0

> <PUBCHEM_BOND_DEF_STEREO_COUNT>
1

> <PUBCHEM_BOND_UDEF_STEREO_COUNT>
0

> <PUBCHEM_ISOTOPIC_ATOM_COUNT>
0

> <PUBCHEM_COMPONENT_COUNT>
1

> <PUBCHEM_CACTVS_TAUTO_COUNT>
-1

> <PUBCHEM_COORDINATE_TYPE>
1
5
255

> <PUBCHEM_BONDANNOTATIONS>
10  14  8
12  15  8
14  15  8
18  19  8
18  20  8
19  21  8
2  4  8
2  9  8
20  22  8
21  23  8
22  23  8
3  4  8
3  8  8
8  10  8
8  9  8
9  12  8

$$$$
