10891703
  -OEChem-09292322482D

 45 48  0     1  0  0  0  0  0999 V2000
    5.9418    1.0599    0.0000 N   0  0  3  0  0  0  0  0  0  0  0  0
    2.6067   -1.1072    0.0000 N   0  0  0  0  0  0  0  0  0  0  0  0
    3.5426    2.7969    0.0000 N   0  0  0  0  0  0  0  0  0  0  0  0
    4.2097   -0.9401    0.0000 C   0  0  0  0  0  0  0  0  0  0  0  0
    3.3437   -0.4401    0.0000 C   0  0  0  0  0  0  0  0  0  0  0  0
    5.0757   -0.4401    0.0000 C   0  0  0  0  0  0  0  0  0  0  0  0
    3.3437    0.5599    0.0000 C   0  0  0  0  0  0  0  0  0  0  0  0
    4.2097    2.0599    0.0000 C   0  0  0  0  0  0  0  0  0  0  0  0
    4.2097    1.0599    0.0000 C   0  0  0  0  0  0  0  0  0  0  0  0
    5.0757    2.5599    0.0000 C   0  0  0  0  0  0  0  0  0  0  0  0
    5.0757    0.5599    0.0000 C   0  0  0  0  0  0  0  0  0  0  0  0
    5.9418    2.0599    0.0000 C   0  0  0  0  0  0  0  0  0  0  0  0
    4.0005   -1.9120    0.0000 C   0  0  0  0  0  0  0  0  0  0  0  0
    3.0118   -2.0150    0.0000 C   0  0  0  0  0  0  0  0  0  0  0  0
    3.2379    1.2691    0.0000 C   0  0  0  0  0  0  0  0  0  0  0  0
    2.8848    2.3248    0.0000 C   0  0  0  0  0  0  0  0  0  0  0  0
    6.8078    0.5599    0.0000 C   0  0  0  0  0  0  0  0  0  0  0  0
    4.6213   -2.7407    0.0000 C   0  0  0  0  0  0  0  0  0  0  0  0
    2.5753   -2.9540    0.0000 C   0  0  0  0  0  0  0  0  0  0  0  0
    3.5409    3.7969    0.0000 C   0  0  0  0  0  0  0  0  0  0  0  0
    4.2066   -3.6895    0.0000 C   0  0  0  0  0  0  0  0  0  0  0  0
    3.1767   -3.7969    0.0000 C   0  0  0  0  0  0  0  0  0  0  0  0
    5.2878   -1.0228    0.0000 H   0  0  0  0  0  0  0  0  0  0  0  0
    5.6863   -0.3325    0.0000 H   0  0  0  0  0  0  0  0  0  0  0  0
    3.1316    1.1425    0.0000 H   0  0  0  0  0  0  0  0  0  0  0  0
    2.7331    0.4522    0.0000 H   0  0  0  0  0  0  0  0  0  0  0  0
    5.4743    3.0348    0.0000 H   0  0  0  0  0  0  0  0  0  0  0  0
    4.6772    3.0348    0.0000 H   0  0  0  0  0  0  0  0  0  0  0  0
    4.8637    1.1425    0.0000 H   0  0  0  0  0  0  0  0  0  0  0  0
    4.4652    0.4522    0.0000 H   0  0  0  0  0  0  0  0  0  0  0  0
    6.5524    1.9522    0.0000 H   0  0  0  0  0  0  0  0  0  0  0  0
    6.1538    2.6425    0.0000 H   0  0  0  0  0  0  0  0  0  0  0  0
    2.0000   -0.9794    0.0000 H   0  0  0  0  0  0  0  0  0  0  0  0
    2.8244    0.8071    0.0000 H   0  0  0  0  0  0  0  0  0  0  0  0
    2.2949    2.5155    0.0000 H   0  0  0  0  0  0  0  0  0  0  0  0
    6.4978    0.0229    0.0000 H   0  0  0  0  0  0  0  0  0  0  0  0
    7.3447    0.2499    0.0000 H   0  0  0  0  0  0  0  0  0  0  0  0
    7.1178    1.0968    0.0000 H   0  0  0  0  0  0  0  0  0  0  0  0
    5.2371   -2.6693    0.0000 H   0  0  0  0  0  0  0  0  0  0  0  0
    1.9579   -3.0111    0.0000 H   0  0  0  0  0  0  0  0  0  0  0  0
    4.1609    3.7979    0.0000 H   0  0  0  0  0  0  0  0  0  0  0  0
    3.5398    4.4169    0.0000 H   0  0  0  0  0  0  0  0  0  0  0  0
    2.9209    3.7958    0.0000 H   0  0  0  0  0  0  0  0  0  0  0  0
    4.5725   -4.1900    0.0000 H   0  0  0  0  0  0  0  0  0  0  0  0
    2.9219   -4.3621    0.0000 H   0  0  0  0  0  0  0  0  0  0  0  0
  1 11  1  0  0  0  0
  1 12  1  0  0  0  0
  1 17  1  0  0  0  0
  2  5  1  0  0  0  0
  2 14  1  0  0  0  0
  2 33  1  0  0  0  0
  3  8  1  0  0  0  0
  3 16  1  0  0  0  0
  3 20  1  0  0  0  0
  4  5  2  0  0  0  0
  4  6  1  0  0  0  0
  4 13  1  0  0  0  0
  5  7  1  0  0  0  0
  6 11  1  0  0  0  0
  6 23  1  0  0  0  0
  6 24  1  0  0  0  0
  7  9  1  0  0  0  0
  7 25  1  0  0  0  0
  7 26  1  0  0  0  0
  8  9  2  0  0  0  0
  8 10  1  0  0  0  0
  9 15  1  0  0  0  0
 10 12  1  0  0  0  0
 10 27  1  0  0  0  0
 10 28  1  0  0  0  0
 11 29  1  0  0  0  0
 11 30  1  0  0  0  0
 12 31  1  0  0  0  0
 12 32  1  0  0  0  0
 13 14  1  0  0  0  0
 13 18  2  0  0  0  0
 14 19  2  0  0  0  0
 15 16  2  0  0  0  0
 15 34  1  0  0  0  0
 16 35  1  0  0  0  0
 17 36  1  0  0  0  0
 17 37  1  0  0  0  0
 17 38  1  0  0  0  0
 18 21  1  0  0  0  0
 18 39  1  0  0  0  0
 19 22  1  0  0  0  0
 19 40  1  0  0  0  0
 20 41  1  0  0  0  0
 20 42  1  0  0  0  0
 20 43  1  0  0  0  0
 21 22  2  0  0  0  0
 21 44  1  0  0  0  0
 22 45  1  0  0  0  0
M  END
> <PUBCHEM_COMPOUND_CID>
10891703

> <PUBCHEM_COMPOUND_CANONICALIZED>
1

> <PUBCHEM_CACTVS_COMPLEXITY>
385

> <PUBCHEM_CACTVS_HBOND_ACCEPTOR>
1

> <PUBCHEM_CACTVS_HBOND_DONOR>
1

> <PUBCHEM_CACTVS_ROTATABLE_BOND>
0

> <PUBCHEM_CACTVS_SUBSKEYS>
AAADceB7AAAAAAAAAAAAAAAAAAAAAWLAAAAwAAAAAAAAAFix/AAAHAAQAAAADAjBHgQ+wPPNkACgAzRnRACCgCAxAiAI2SA4ZJgIIOLA0ZGEIAhgkADIyAcQgMAOgAAAAAACAAAAAAAAAAQAAAAAAAAAAA==

> <PUBCHEM_IUPAC_OPENEYE_NAME>
6,10-dimethyl-6,10,20-triazatetracyclo[11.7.0.03,7.014,19]icosa-1(13),3(7),4,14,16,18-hexaene

> <PUBCHEM_IUPAC_CAS_NAME>
6,10-dimethyl-6,10,20-triazatetracyclo[11.7.0.03,7.014,19]eicosa-1(13),3(7),4,14,16,18-hexaene

> <PUBCHEM_IUPAC_NAME_MARKUP>
6,10-dimethyl-6,10,20-triazatetracyclo[11.7.0.0<SUP>3,7</SUP>.0<SUP>14,19</SUP>]icosa-1(13),3(7),4,14,16,18-hexaene

> <PUBCHEM_IUPAC_NAME>
6,10-dimethyl-6,10,20-triazatetracyclo[11.7.0.03,7.014,19]icosa-1(13),3(7),4,14,16,18-hexaene

> <PUBCHEM_IUPAC_SYSTEMATIC_NAME>
6,10-dimethyl-6,10,20-triazatetracyclo[11.7.0.03,7.014,19]icosa-1(13),3(7),4,14,16,18-hexaene

> <PUBCHEM_IUPAC_TRADITIONAL_NAME>
6,10-dimethyl-6,10,20-triazatetracyclo[11.7.0.03,7.014,19]eicosa-1(13),3(7),4,14,16,18-hexaene

> <PUBCHEM_IUPAC_INCHI>
InChI=1S/C19H23N3/c1-21-10-8-16-15-5-3-4-6-17(15)20-18(16)13-14-7-12-22(2)19(14)9-11-21/h3-7,12,20H,8-11,13H2,1-2H3

> <PUBCHEM_IUPAC_INCHIKEY>
OAZSHGRDDGNHHT-UHFFFAOYSA-N

> <PUBCHEM_XLOGP3_AA>
3.1

> <PUBCHEM_EXACT_MASS>
293.189197746

> <PUBCHEM_MOLECULAR_FORMULA>
C19H23N3

> <PUBCHEM_MOLECULAR_WEIGHT>
293.4

> <PUBCHEM_OPENEYE_CAN_SMILES>
CN1CCC2=C(CC3=C(CC1)N(C=C3)C)NC4=CC=CC=C24

> <PUBCHEM_OPENEYE_ISO_SMILES>
CN1CCC2=C(CC3=C(CC1)N(C=C3)C)NC4=CC=CC=C24

> <PUBCHEM_CACTVS_TPSA>
24

> <PUBCHEM_MONOISOTOPIC_WEIGHT>
293.189197746

> <PUBCHEM_TOTAL_CHARGE>
0

> <PUBCHEM_HEAVY_ATOM_COUNT>
22

> <PUBCHEM_ATOM_DEF_STEREO_COUNT>
0

> <PUBCHEM_ATOM_UDEF_STEREO_COUNT>
0

> <PUBCHEM_BOND_DEF_STEREO_COUNT>
0

> <PUBCHEM_BOND_UDEF_STEREO_COUNT>
0

> <PUBCHEM_ISOTOPIC_ATOM_COUNT>
0

> <PUBCHEM_COMPONENT_COUNT>
1

> <PUBCHEM_CACTVS_TAUTO_COUNT>
-1

> <PUBCHEM_COORDINATE_TYPE>
1
5
255

> <PUBCHEM_BONDANNOTATIONS>
13  14  8
13  18  8
14  19  8
15  16  8
18  21  8
19  22  8
2  14  8
2  5  8
21  22  8
3  16  8
3  8  8
4  13  8
4  5  8
8  9  8
9  15  8

$$$$
