10527118
  -OEChem-09292322132D

 52 55  0     1  0  0  0  0  0999 V2000
    3.7359    0.9945    0.0000 S   0  0  0  0  0  0  0  0  0  0  0  0
    2.0000    0.0012    0.0000 F   0  0  0  0  0  0  0  0  0  0  0  0
    2.3713    1.3658    0.0000 F   0  0  0  0  0  0  0  0  0  0  0  0
    3.3646   -0.3701    0.0000 F   0  0  0  0  0  0  0  0  0  0  0  0
    6.3856    2.5016    0.0000 O   0  0  0  0  0  0  0  0  0  0  0  0
    4.6038    1.4912    0.0000 O   0  0  0  0  0  0  0  0  0  0  0  0
    3.2392    1.8624    0.0000 O   0  0  0  0  0  0  0  0  0  0  0  0
    4.2326    0.1266    0.0000 O   0  0  0  0  0  0  0  0  0  0  0  0
    9.8582   -0.5299    0.0000 N   0  0  3  0  0  0  0  0  0  0  0  0
    9.0000   -0.0330    0.0000 C   0  0  1  0  0  0  0  0  0  0  0  0
    9.0000    0.9670    0.0000 C   0  0  0  0  0  0  0  0  0  0  0  0
    8.1340   -0.5330    0.0000 C   0  0  0  0  0  0  0  0  0  0  0  0
   10.7237   -0.0458    0.0000 C   0  0  0  0  0  0  0  0  0  0  0  0
    9.9100    1.4739    0.0000 C   0  0  0  0  0  0  0  0  0  0  0  0
   10.7493    0.9456    0.0000 C   0  0  0  0  0  0  0  0  0  0  0  0
    8.1340    1.4670    0.0000 C   0  0  0  0  0  0  0  0  0  0  0  0
    7.2679   -0.0330    0.0000 C   0  0  0  0  0  0  0  0  0  0  0  0
    7.2679    0.9670    0.0000 C   0  0  0  0  0  0  0  0  0  0  0  0
    9.8508   -1.5299    0.0000 C   0  0  0  0  0  0  0  0  0  0  0  0
    9.9180    2.5154    0.0000 C   0  0  0  0  0  0  0  0  0  0  0  0
    8.1179    2.5085    0.0000 C   0  0  0  0  0  0  0  0  0  0  0  0
   10.7131   -2.0363    0.0000 C   0  0  0  0  0  0  0  0  0  0  0  0
    6.3740    1.5017    0.0000 C   0  0  0  0  0  0  0  0  0  0  0  0
    6.3740   -0.5677    0.0000 C   0  0  0  0  0  0  0  0  0  0  0  0
    9.0159    3.0363    0.0000 C   0  0  0  0  0  0  0  0  0  0  0  0
    5.4679    0.9878    0.0000 C   0  0  0  0  0  0  0  0  0  0  0  0
    5.4679   -0.0538    0.0000 C   0  0  0  0  0  0  0  0  0  0  0  0
   10.7057   -3.0363    0.0000 C   0  0  0  0  0  0  0  0  0  0  0  0
    5.5254    3.0116    0.0000 C   0  0  0  0  0  0  0  0  0  0  0  0
    2.8680    0.4978    0.0000 C   0  0  0  0  0  0  0  0  0  0  0  0
    8.9995   -0.8830    0.0000 H   0  0  0  0  0  0  0  0  0  0  0  0
    7.7354   -1.0079    0.0000 H   0  0  0  0  0  0  0  0  0  0  0  0
    8.5325   -1.0079    0.0000 H   0  0  0  0  0  0  0  0  0  0  0  0
   10.9254   -0.6320    0.0000 H   0  0  0  0  0  0  0  0  0  0  0  0
   11.3365    0.0486    0.0000 H   0  0  0  0  0  0  0  0  0  0  0  0
   11.3564    0.8197    0.0000 H   0  0  0  0  0  0  0  0  0  0  0  0
   10.9811    1.5207    0.0000 H   0  0  0  0  0  0  0  0  0  0  0  0
    9.2410   -1.4177    0.0000 H   0  0  0  0  0  0  0  0  0  0  0  0
    9.6344   -2.1109    0.0000 H   0  0  0  0  0  0  0  0  0  0  0  0
   10.4561    2.8234    0.0000 H   0  0  0  0  0  0  0  0  0  0  0  0
    7.5774    2.8123    0.0000 H   0  0  0  0  0  0  0  0  0  0  0  0
   11.3229   -2.1485    0.0000 H   0  0  0  0  0  0  0  0  0  0  0  0
   10.9295   -1.4553    0.0000 H   0  0  0  0  0  0  0  0  0  0  0  0
    6.3812   -1.1876    0.0000 H   0  0  0  0  0  0  0  0  0  0  0  0
    9.0136    3.6563    0.0000 H   0  0  0  0  0  0  0  0  0  0  0  0
    4.9322   -0.3659    0.0000 H   0  0  0  0  0  0  0  0  0  0  0  0
   10.0857   -3.0317    0.0000 H   0  0  0  0  0  0  0  0  0  0  0  0
   10.7011   -3.6562    0.0000 H   0  0  0  0  0  0  0  0  0  0  0  0
   11.3257   -3.0408    0.0000 H   0  0  0  0  0  0  0  0  0  0  0  0
    5.8416    3.5449    0.0000 H   0  0  0  0  0  0  0  0  0  0  0  0
    4.9921    3.3278    0.0000 H   0  0  0  0  0  0  0  0  0  0  0  0
    5.2092    2.4783    0.0000 H   0  0  0  0  0  0  0  0  0  0  0  0
  1  6  1  0  0  0  0
  1  7  2  0  0  0  0
  1  8  2  0  0  0  0
  1 30  1  0  0  0  0
  2 30  1  0  0  0  0
  3 30  1  0  0  0  0
  4 30  1  0  0  0  0
  5 23  1  0  0  0  0
  5 29  1  0  0  0  0
  6 26  1  0  0  0  0
  9 10  1  0  0  0  0
  9 13  1  0  0  0  0
  9 19  1  0  0  0  0
 10 11  1  0  0  0  0
 10 12  1  0  0  0  0
 10 31  1  1  0  0  0
 11 14  2  0  0  0  0
 11 16  1  0  0  0  0
 12 17  1  0  0  0  0
 12 32  1  0  0  0  0
 12 33  1  0  0  0  0
 13 15  1  0  0  0  0
 13 34  1  0  0  0  0
 13 35  1  0  0  0  0
 14 15  1  0  0  0  0
 14 20  1  0  0  0  0
 15 36  1  0  0  0  0
 15 37  1  0  0  0  0
 16 18  1  0  0  0  0
 16 21  2  0  0  0  0
 17 18  2  0  0  0  0
 17 24  1  0  0  0  0
 18 23  1  0  0  0  0
 19 22  1  0  0  0  0
 19 38  1  0  0  0  0
 19 39  1  0  0  0  0
 20 25  2  0  0  0  0
 20 40  1  0  0  0  0
 21 25  1  0  0  0  0
 21 41  1  0  0  0  0
 22 28  1  0  0  0  0
 22 42  1  0  0  0  0
 22 43  1  0  0  0  0
 23 26  2  0  0  0  0
 24 27  2  0  0  0  0
 24 44  1  0  0  0  0
 25 45  1  0  0  0  0
 26 27  1  0  0  0  0
 27 46  1  0  0  0  0
 28 47  1  0  0  0  0
 28 48  1  0  0  0  0
 28 49  1  0  0  0  0
 29 50  1  0  0  0  0
 29 51  1  0  0  0  0
 29 52  1  0  0  0  0
M  END
> <PUBCHEM_COMPOUND_CID>
10527118

> <PUBCHEM_COMPOUND_CANONICALIZED>
1

> <PUBCHEM_CACTVS_COMPLEXITY>
710

> <PUBCHEM_CACTVS_HBOND_ACCEPTOR>
8

> <PUBCHEM_CACTVS_HBOND_DONOR>
0

> <PUBCHEM_CACTVS_ROTATABLE_BOND>
5

> <PUBCHEM_CACTVS_SUBSKEYS>
AAADceB6OYBAAAAAAAAAAAAAAAAAAAAAAAA8YMEAAAAAAADxQAAAHwQAAAAADCzBmBYyBoMABAKAAiBCAHCCCAAgIAAIiAAOjIgNJiKEsRuEMCpkwBGKqAeQ0PMOoAADAAAYQADQAAaAADSAAAAAAAAAAA==

> <PUBCHEM_IUPAC_OPENEYE_NAME>
[(6aR)-11-methoxy-6-propyl-5,6,6a,7-tetrahydro-4H-dibenzo[de,g]quinolin-10-yl] trifluoromethanesulfonate

> <PUBCHEM_IUPAC_CAS_NAME>
trifluoromethanesulfonic acid [(6aR)-11-methoxy-6-propyl-5,6,6a,7-tetrahydro-4H-dibenzo[de,g]quinolin-10-yl] ester

> <PUBCHEM_IUPAC_NAME_MARKUP>
[(6<I>a</I><I>R</I>)-11-methoxy-6-propyl-5,6,6<I>a</I>,7-tetrahydro-4<I>H</I>-dibenzo[de,g]quinolin-10-yl] trifluoromethanesulfonate

> <PUBCHEM_IUPAC_NAME>
[(6aR)-11-methoxy-6-propyl-5,6,6a,7-tetrahydro-4H-dibenzo[de,g]quinolin-10-yl] trifluoromethanesulfonate

> <PUBCHEM_IUPAC_SYSTEMATIC_NAME>
[(6aR)-11-methoxy-6-propyl-5,6,6a,7-tetrahydro-4H-dibenzo[de,g]quinolin-10-yl] tris(fluoranyl)methanesulfonate

> <PUBCHEM_IUPAC_TRADITIONAL_NAME>
trifluoromethanesulfonic acid [(6aR)-11-methoxy-6-propyl-5,6,6a,7-tetrahydro-4H-dibenzo[de,g]quinolin-10-yl] ester

> <PUBCHEM_IUPAC_INCHI>
InChI=1S/C21H22F3NO4S/c1-3-10-25-11-9-13-5-4-6-15-18(13)16(25)12-14-7-8-17(20(28-2)19(14)15)29-30(26,27)21(22,23)24/h4-8,16H,3,9-12H2,1-2H3/t16-/m1/s1

> <PUBCHEM_IUPAC_INCHIKEY>
VFZQJEHONJLING-MRXNPFEDSA-N

> <PUBCHEM_XLOGP3_AA>
5.1

> <PUBCHEM_EXACT_MASS>
441.12216384

> <PUBCHEM_MOLECULAR_FORMULA>
C21H22F3NO4S

> <PUBCHEM_MOLECULAR_WEIGHT>
441.5

> <PUBCHEM_OPENEYE_CAN_SMILES>
CCCN1CCC2=C3C1CC4=C(C3=CC=C2)C(=C(C=C4)OS(=O)(=O)C(F)(F)F)OC

> <PUBCHEM_OPENEYE_ISO_SMILES>
CCCN1CCC2=C3[C@H]1CC4=C(C3=CC=C2)C(=C(C=C4)OS(=O)(=O)C(F)(F)F)OC

> <PUBCHEM_CACTVS_TPSA>
64.2

> <PUBCHEM_MONOISOTOPIC_WEIGHT>
441.12216384

> <PUBCHEM_TOTAL_CHARGE>
0

> <PUBCHEM_HEAVY_ATOM_COUNT>
30

> <PUBCHEM_ATOM_DEF_STEREO_COUNT>
1

> <PUBCHEM_ATOM_UDEF_STEREO_COUNT>
0

> <PUBCHEM_BOND_DEF_STEREO_COUNT>
0

> <PUBCHEM_BOND_UDEF_STEREO_COUNT>
0

> <PUBCHEM_ISOTOPIC_ATOM_COUNT>
0

> <PUBCHEM_COMPONENT_COUNT>
1

> <PUBCHEM_CACTVS_TAUTO_COUNT>
-1

> <PUBCHEM_COORDINATE_TYPE>
1
5
255

> <PUBCHEM_BONDANNOTATIONS>
10  31  5
11  14  8
11  16  8
14  20  8
16  21  8
17  18  8
17  24  8
18  23  8
20  25  8
21  25  8
23  26  8
24  27  8
26  27  8

$$$$
