10091189
  -OEChem-09292322102D

 57 61  0     0  0  0  0  0  0999 V2000
    5.6103    0.2520    0.0000 N   0  0  0  0  0  0  0  0  0  0  0  0
    4.6783   -4.2090    0.0000 N   0  0  0  0  0  0  0  0  0  0  0  0
    4.9889   -1.6491    0.0000 C   0  0  0  0  0  0  0  0  0  0  0  0
    5.9674   -1.4428    0.0000 C   0  0  0  0  0  0  0  0  0  0  0  0
    4.3211   -0.9048    0.0000 C   0  0  0  0  0  0  0  0  0  0  0  0
    6.2781   -0.4923    0.0000 C   0  0  0  0  0  0  0  0  0  0  0  0
    4.6318    0.0458    0.0000 C   0  0  0  0  0  0  0  0  0  0  0  0
    4.6783   -2.5996    0.0000 C   0  0  0  0  0  0  0  0  0  0  0  0
    5.9209    1.2025    0.0000 C   0  0  0  0  0  0  0  0  0  0  0  0
    3.7320   -2.9043    0.0000 C   0  0  0  0  0  0  0  0  0  0  0  0
    5.2619   -3.4043    0.0000 C   0  0  0  0  0  0  0  0  0  0  0  0
    3.7320   -3.9043    0.0000 C   0  0  0  0  0  0  0  0  0  0  0  0
    5.2531    1.9468    0.0000 C   0  0  0  0  0  0  0  0  0  0  0  0
    6.2619   -3.4043    0.0000 C   0  0  0  0  0  0  0  0  0  0  0  0
    2.8660   -2.4043    0.0000 C   0  0  0  0  0  0  0  0  0  0  0  0
    2.8660   -4.4043    0.0000 C   0  0  0  0  0  0  0  0  0  0  0  0
    5.5637    2.8973    0.0000 C   0  0  0  0  0  0  0  0  0  0  0  0
    2.0000   -2.9043    0.0000 C   0  0  0  0  0  0  0  0  0  0  0  0
    2.0000   -3.9043    0.0000 C   0  0  0  0  0  0  0  0  0  0  0  0
    6.7619   -4.2703    0.0000 C   0  0  0  0  0  0  0  0  0  0  0  0
    6.7619   -2.5383    0.0000 C   0  0  0  0  0  0  0  0  0  0  0  0
    4.8959    3.6416    0.0000 C   0  0  0  0  0  0  0  0  0  0  0  0
    6.5422    3.1035    0.0000 C   0  0  0  0  0  0  0  0  0  0  0  0
    7.7619   -4.2703    0.0000 C   0  0  0  0  0  0  0  0  0  0  0  0
    7.7619   -2.5383    0.0000 C   0  0  0  0  0  0  0  0  0  0  0  0
    8.2619   -3.4043    0.0000 C   0  0  0  0  0  0  0  0  0  0  0  0
    5.2066    4.5922    0.0000 C   0  0  0  0  0  0  0  0  0  0  0  0
    6.8529    4.0541    0.0000 C   0  0  0  0  0  0  0  0  0  0  0  0
    6.1851    4.7984    0.0000 C   0  0  0  0  0  0  0  0  0  0  0  0
    5.4030   -2.1105    0.0000 H   0  0  0  0  0  0  0  0  0  0  0  0
    5.9880   -2.0625    0.0000 H   0  0  0  0  0  0  0  0  0  0  0  0
    6.5812   -1.5302    0.0000 H   0  0  0  0  0  0  0  0  0  0  0  0
    3.7742   -0.6127    0.0000 H   0  0  0  0  0  0  0  0  0  0  0  0
    3.9385   -1.3927    0.0000 H   0  0  0  0  0  0  0  0  0  0  0  0
    6.8250   -0.7843    0.0000 H   0  0  0  0  0  0  0  0  0  0  0  0
    6.6607   -0.0044    0.0000 H   0  0  0  0  0  0  0  0  0  0  0  0
    4.6112    0.6654    0.0000 H   0  0  0  0  0  0  0  0  0  0  0  0
    4.0179    0.1331    0.0000 H   0  0  0  0  0  0  0  0  0  0  0  0
    6.4678    0.9105    0.0000 H   0  0  0  0  0  0  0  0  0  0  0  0
    6.3035    1.6904    0.0000 H   0  0  0  0  0  0  0  0  0  0  0  0
    4.8709   -4.7984    0.0000 H   0  0  0  0  0  0  0  0  0  0  0  0
    4.7062    2.2388    0.0000 H   0  0  0  0  0  0  0  0  0  0  0  0
    4.8705    1.4589    0.0000 H   0  0  0  0  0  0  0  0  0  0  0  0
    2.8660   -1.7843    0.0000 H   0  0  0  0  0  0  0  0  0  0  0  0
    2.8660   -5.0243    0.0000 H   0  0  0  0  0  0  0  0  0  0  0  0
    1.4631   -2.5943    0.0000 H   0  0  0  0  0  0  0  0  0  0  0  0
    1.4631   -4.2143    0.0000 H   0  0  0  0  0  0  0  0  0  0  0  0
    6.4519   -4.8073    0.0000 H   0  0  0  0  0  0  0  0  0  0  0  0
    6.4519   -2.0014    0.0000 H   0  0  0  0  0  0  0  0  0  0  0  0
    4.2892    3.5138    0.0000 H   0  0  0  0  0  0  0  0  0  0  0  0
    6.9563    2.6421    0.0000 H   0  0  0  0  0  0  0  0  0  0  0  0
    8.0719   -4.8073    0.0000 H   0  0  0  0  0  0  0  0  0  0  0  0
    8.0719   -2.0014    0.0000 H   0  0  0  0  0  0  0  0  0  0  0  0
    8.8819   -3.4043    0.0000 H   0  0  0  0  0  0  0  0  0  0  0  0
    4.7925    5.0536    0.0000 H   0  0  0  0  0  0  0  0  0  0  0  0
    7.4596    4.1819    0.0000 H   0  0  0  0  0  0  0  0  0  0  0  0
    6.3777    5.3877    0.0000 H   0  0  0  0  0  0  0  0  0  0  0  0
  1  6  1  0  0  0  0
  1  7  1  0  0  0  0
  1  9  1  0  0  0  0
  2 11  1  0  0  0  0
  2 12  1  0  0  0  0
  2 41  1  0  0  0  0
  3  4  1  0  0  0  0
  3  5  1  0  0  0  0
  3  8  1  0  0  0  0
  3 30  1  0  0  0  0
  4  6  1  0  0  0  0
  4 31  1  0  0  0  0
  4 32  1  0  0  0  0
  5  7  1  0  0  0  0
  5 33  1  0  0  0  0
  5 34  1  0  0  0  0
  6 35  1  0  0  0  0
  6 36  1  0  0  0  0
  7 37  1  0  0  0  0
  7 38  1  0  0  0  0
  8 10  1  0  0  0  0
  8 11  2  0  0  0  0
  9 13  1  0  0  0  0
  9 39  1  0  0  0  0
  9 40  1  0  0  0  0
 10 12  1  0  0  0  0
 10 15  2  0  0  0  0
 11 14  1  0  0  0  0
 12 16  2  0  0  0  0
 13 17  1  0  0  0  0
 13 42  1  0  0  0  0
 13 43  1  0  0  0  0
 14 20  2  0  0  0  0
 14 21  1  0  0  0  0
 15 18  1  0  0  0  0
 15 44  1  0  0  0  0
 16 19  1  0  0  0  0
 16 45  1  0  0  0  0
 17 22  2  0  0  0  0
 17 23  1  0  0  0  0
 18 19  2  0  0  0  0
 18 46  1  0  0  0  0
 19 47  1  0  0  0  0
 20 24  1  0  0  0  0
 20 48  1  0  0  0  0
 21 25  2  0  0  0  0
 21 49  1  0  0  0  0
 22 27  1  0  0  0  0
 22 50  1  0  0  0  0
 23 28  2  0  0  0  0
 23 51  1  0  0  0  0
 24 26  2  0  0  0  0
 24 52  1  0  0  0  0
 25 26  1  0  0  0  0
 25 53  1  0  0  0  0
 26 54  1  0  0  0  0
 27 29  2  0  0  0  0
 27 55  1  0  0  0  0
 28 29  1  0  0  0  0
 28 56  1  0  0  0  0
 29 57  1  0  0  0  0
M  END
> <PUBCHEM_COMPOUND_CID>
10091189

> <PUBCHEM_COMPOUND_CANONICALIZED>
1

> <PUBCHEM_CACTVS_COMPLEXITY>
485

> <PUBCHEM_CACTVS_HBOND_ACCEPTOR>
1

> <PUBCHEM_CACTVS_HBOND_DONOR>
1

> <PUBCHEM_CACTVS_ROTATABLE_BOND>
5

> <PUBCHEM_CACTVS_SUBSKEYS>
AAADceB7AAAAAAAAAAAAAAAAAAAAAWAAAAA8YMEAAAAAAFgB9AAAHAAQAAAADQjBHgQwwPPJkACgAyRiRACCgCAhAiAImSA4ZJgIIOLAkZGEIAhgkADIyAcQgMAOgAAAAAACAAAAAAAAAAQAAAAAAAAAAA==

> <PUBCHEM_IUPAC_OPENEYE_NAME>
2-phenyl-3-[1-(2-phenylethyl)-4-piperidyl]-1H-indole

> <PUBCHEM_IUPAC_CAS_NAME>
2-phenyl-3-[1-(2-phenylethyl)-4-piperidinyl]-1H-indole

> <PUBCHEM_IUPAC_NAME_MARKUP>
2-phenyl-3-[1-(2-phenylethyl)piperidin-4-yl]-1<I>H</I>-indole

> <PUBCHEM_IUPAC_NAME>
2-phenyl-3-[1-(2-phenylethyl)piperidin-4-yl]-1H-indole

> <PUBCHEM_IUPAC_SYSTEMATIC_NAME>
2-phenyl-3-[1-(2-phenylethyl)piperidin-4-yl]-1H-indole

> <PUBCHEM_IUPAC_TRADITIONAL_NAME>
3-(1-phenethyl-4-piperidyl)-2-phenyl-1H-indole

> <PUBCHEM_IUPAC_INCHI>
InChI=1S/C27H28N2/c1-3-9-21(10-4-1)15-18-29-19-16-22(17-20-29)26-24-13-7-8-14-25(24)28-27(26)23-11-5-2-6-12-23/h1-14,22,28H,15-20H2

> <PUBCHEM_IUPAC_INCHIKEY>
MONKRYYJEIHBRU-UHFFFAOYSA-N

> <PUBCHEM_XLOGP3_AA>
6.2

> <PUBCHEM_EXACT_MASS>
380.225248902

> <PUBCHEM_MOLECULAR_FORMULA>
C27H28N2

> <PUBCHEM_MOLECULAR_WEIGHT>
380.5

> <PUBCHEM_OPENEYE_CAN_SMILES>
C1CN(CCC1C2=C(NC3=CC=CC=C32)C4=CC=CC=C4)CCC5=CC=CC=C5

> <PUBCHEM_OPENEYE_ISO_SMILES>
C1CN(CCC1C2=C(NC3=CC=CC=C32)C4=CC=CC=C4)CCC5=CC=CC=C5

> <PUBCHEM_CACTVS_TPSA>
19

> <PUBCHEM_MONOISOTOPIC_WEIGHT>
380.225248902

> <PUBCHEM_TOTAL_CHARGE>
0

> <PUBCHEM_HEAVY_ATOM_COUNT>
29

> <PUBCHEM_ATOM_DEF_STEREO_COUNT>
0

> <PUBCHEM_ATOM_UDEF_STEREO_COUNT>
0

> <PUBCHEM_BOND_DEF_STEREO_COUNT>
0

> <PUBCHEM_BOND_UDEF_STEREO_COUNT>
0

> <PUBCHEM_ISOTOPIC_ATOM_COUNT>
0

> <PUBCHEM_COMPONENT_COUNT>
1

> <PUBCHEM_CACTVS_TAUTO_COUNT>
-1

> <PUBCHEM_COORDINATE_TYPE>
1
5
255

> <PUBCHEM_BONDANNOTATIONS>
10  12  8
10  15  8
12  16  8
14  20  8
14  21  8
15  18  8
16  19  8
17  22  8
17  23  8
18  19  8
2  11  8
2  12  8
20  24  8
21  25  8
22  27  8
23  28  8
24  26  8
25  26  8
27  29  8
28  29  8
8  10  8
8  11  8

$$$$
