71659909
  -OEChem-09292322332D

 66 69  0     1  0  0  0  0  0999 V2000
    7.5635    7.3559    0.0000 S   0  0  0  0  0  0  0  0  0  0  0  0
    2.8660   -5.7898    0.0000 O   0  0  0  0  0  0  0  0  0  0  0  0
    3.7126    2.5078    0.0000 O   0  0  0  0  0  0  0  0  0  0  0  0
    5.0981   -2.5991    0.0000 N   0  0  3  0  0  0  0  0  0  0  0  0
    4.5981   -4.7898    0.0000 N   0  0  3  0  0  0  0  0  0  0  0  0
    5.2731    1.7563    0.0000 N   0  0  0  0  0  0  0  0  0  0  0  0
    4.0981   -2.5991    0.0000 C   0  0  0  0  0  0  0  0  0  0  0  0
    5.7216   -3.3810    0.0000 C   0  0  0  0  0  0  0  0  0  0  0  0
    3.4746   -3.3810    0.0000 C   0  0  0  0  0  0  0  0  0  0  0  0
    5.4990   -4.3559    0.0000 C   0  0  0  0  0  0  0  0  0  0  0  0
    3.6971   -4.3559    0.0000 C   0  0  0  0  0  0  0  0  0  0  0  0
    5.5320   -1.6982    0.0000 C   0  0  0  0  0  0  0  0  0  0  0  0
    4.9686   -0.8719    0.0000 C   0  0  0  0  0  0  0  0  0  0  0  0
    4.5981   -5.7898    0.0000 C   0  0  0  0  0  0  0  0  0  0  0  0
    5.4025    0.0291    0.0000 C   0  0  0  0  0  0  0  0  0  0  0  0
    4.8392    0.8553    0.0000 C   0  0  0  0  0  0  0  0  0  0  0  0
    3.7320   -6.2898    0.0000 C   0  0  0  0  0  0  0  0  0  0  0  0
    5.4641   -6.2898    0.0000 C   0  0  0  0  0  0  0  0  0  0  0  0
    3.7320   -7.2898    0.0000 C   0  0  0  0  0  0  0  0  0  0  0  0
    5.4641   -7.2898    0.0000 C   0  0  0  0  0  0  0  0  0  0  0  0
    4.5981   -7.7898    0.0000 C   0  0  0  0  0  0  0  0  0  0  0  0
    4.7098    2.5825    0.0000 C   0  0  0  0  0  0  0  0  0  0  0  0
    5.1436    3.4835    0.0000 C   0  0  0  0  0  0  0  0  0  0  0  0
    2.0000   -6.2898    0.0000 C   0  0  0  0  0  0  0  0  0  0  0  0
    4.5803    4.3097    0.0000 C   0  0  0  0  0  0  0  0  0  0  0  0
    6.1408    3.5582    0.0000 C   0  0  0  0  0  0  0  0  0  0  0  0
    6.0114    5.2854    0.0000 C   0  0  0  0  0  0  0  0  0  0  0  0
    5.0142    5.2107    0.0000 C   0  0  0  0  0  0  0  0  0  0  0  0
    6.5747    4.4592    0.0000 C   0  0  0  0  0  0  0  0  0  0  0  0
    6.4453    6.1864    0.0000 C   0  0  0  0  0  0  0  0  0  0  0  0
    5.9714    7.0670    0.0000 C   0  0  0  0  0  0  0  0  0  0  0  0
    7.4292    6.3649    0.0000 C   0  0  0  0  0  0  0  0  0  0  0  0
    6.6625    7.7898    0.0000 C   0  0  0  0  0  0  0  0  0  0  0  0
    4.2360   -1.9947    0.0000 H   0  0  0  0  0  0  0  0  0  0  0  0
    3.5395   -2.3301    0.0000 H   0  0  0  0  0  0  0  0  0  0  0  0
    6.2802   -3.6500    0.0000 H   0  0  0  0  0  0  0  0  0  0  0  0
    6.1081   -2.8962    0.0000 H   0  0  0  0  0  0  0  0  0  0  0  0
    3.0880   -2.8962    0.0000 H   0  0  0  0  0  0  0  0  0  0  0  0
    2.9160   -3.6500    0.0000 H   0  0  0  0  0  0  0  0  0  0  0  0
    5.6370   -4.9603    0.0000 H   0  0  0  0  0  0  0  0  0  0  0  0
    6.1190   -4.3559    0.0000 H   0  0  0  0  0  0  0  0  0  0  0  0
    3.0771   -4.3559    0.0000 H   0  0  0  0  0  0  0  0  0  0  0  0
    3.5591   -4.9603    0.0000 H   0  0  0  0  0  0  0  0  0  0  0  0
    6.0354   -2.0601    0.0000 H   0  0  0  0  0  0  0  0  0  0  0  0
    5.9758   -1.2652    0.0000 H   0  0  0  0  0  0  0  0  0  0  0  0
    4.4652   -0.5100    0.0000 H   0  0  0  0  0  0  0  0  0  0  0  0
    4.5248   -1.3048    0.0000 H   0  0  0  0  0  0  0  0  0  0  0  0
    5.9059   -0.3329    0.0000 H   0  0  0  0  0  0  0  0  0  0  0  0
    5.8464    0.4620    0.0000 H   0  0  0  0  0  0  0  0  0  0  0  0
    4.3358    1.2172    0.0000 H   0  0  0  0  0  0  0  0  0  0  0  0
    4.3954    0.4224    0.0000 H   0  0  0  0  0  0  0  0  0  0  0  0
    6.0010   -5.9798    0.0000 H   0  0  0  0  0  0  0  0  0  0  0  0
    3.1951   -7.5998    0.0000 H   0  0  0  0  0  0  0  0  0  0  0  0
    5.8914    1.8026    0.0000 H   0  0  0  0  0  0  0  0  0  0  0  0
    6.0010   -7.5998    0.0000 H   0  0  0  0  0  0  0  0  0  0  0  0
    4.5981   -8.4098    0.0000 H   0  0  0  0  0  0  0  0  0  0  0  0
    1.6900   -5.7528    0.0000 H   0  0  0  0  0  0  0  0  0  0  0  0
    1.4631   -6.5998    0.0000 H   0  0  0  0  0  0  0  0  0  0  0  0
    2.3100   -6.8267    0.0000 H   0  0  0  0  0  0  0  0  0  0  0  0
    3.9621    4.2634    0.0000 H   0  0  0  0  0  0  0  0  0  0  0  0
    6.4901    3.0459    0.0000 H   0  0  0  0  0  0  0  0  0  0  0  0
    4.6650    5.7229    0.0000 H   0  0  0  0  0  0  0  0  0  0  0  0
    7.1930    4.5055    0.0000 H   0  0  0  0  0  0  0  0  0  0  0  0
    5.3570    7.1502    0.0000 H   0  0  0  0  0  0  0  0  0  0  0  0
    7.8774    5.9365    0.0000 H   0  0  0  0  0  0  0  0  0  0  0  0
    6.5518    8.3998    0.0000 H   0  0  0  0  0  0  0  0  0  0  0  0
  1 32  1  0  0  0  0
  1 33  1  0  0  0  0
  2 17  1  0  0  0  0
  2 24  1  0  0  0  0
  3 22  2  0  0  0  0
  4  7  1  0  0  0  0
  4  8  1  0  0  0  0
  4 12  1  0  0  0  0
  5 10  1  0  0  0  0
  5 11  1  0  0  0  0
  5 14  1  0  0  0  0
  6 16  1  0  0  0  0
  6 22  1  0  0  0  0
  6 54  1  0  0  0  0
  7  9  1  0  0  0  0
  7 34  1  0  0  0  0
  7 35  1  0  0  0  0
  8 10  1  0  0  0  0
  8 36  1  0  0  0  0
  8 37  1  0  0  0  0
  9 11  1  0  0  0  0
  9 38  1  0  0  0  0
  9 39  1  0  0  0  0
 10 40  1  0  0  0  0
 10 41  1  0  0  0  0
 11 42  1  0  0  0  0
 11 43  1  0  0  0  0
 12 13  1  0  0  0  0
 12 44  1  0  0  0  0
 12 45  1  0  0  0  0
 13 15  1  0  0  0  0
 13 46  1  0  0  0  0
 13 47  1  0  0  0  0
 14 17  1  0  0  0  0
 14 18  2  0  0  0  0
 15 16  1  0  0  0  0
 15 48  1  0  0  0  0
 15 49  1  0  0  0  0
 16 50  1  0  0  0  0
 16 51  1  0  0  0  0
 17 19  2  0  0  0  0
 18 20  1  0  0  0  0
 18 52  1  0  0  0  0
 19 21  1  0  0  0  0
 19 53  1  0  0  0  0
 20 21  2  0  0  0  0
 20 55  1  0  0  0  0
 21 56  1  0  0  0  0
 22 23  1  0  0  0  0
 23 25  2  0  0  0  0
 23 26  1  0  0  0  0
 24 57  1  0  0  0  0
 24 58  1  0  0  0  0
 24 59  1  0  0  0  0
 25 28  1  0  0  0  0
 25 60  1  0  0  0  0
 26 29  2  0  0  0  0
 26 61  1  0  0  0  0
 27 28  2  0  0  0  0
 27 29  1  0  0  0  0
 27 30  1  0  0  0  0
 28 62  1  0  0  0  0
 29 63  1  0  0  0  0
 30 31  1  0  0  0  0
 30 32  2  0  0  0  0
 31 33  2  0  0  0  0
 31 64  1  0  0  0  0
 32 65  1  0  0  0  0
 33 66  1  0  0  0  0
M  END
> <PUBCHEM_COMPOUND_CID>
71659909

> <PUBCHEM_COMPOUND_CANONICALIZED>
1

> <PUBCHEM_CACTVS_COMPLEXITY>
584

> <PUBCHEM_CACTVS_HBOND_ACCEPTOR>
5

> <PUBCHEM_CACTVS_HBOND_DONOR>
1

> <PUBCHEM_CACTVS_ROTATABLE_BOND>
9

> <PUBCHEM_CACTVS_SUBSKEYS>
AAADcfB7MABAAAAAAAAAAAAAAAAAASAAAAAwYAAABYAAAAAB0AAAHgQQAAAADAzF2Aayx4PABAiMAiVSUACDCIAlKhBIiJkPbMgOZjLk9ZuVMShk1hH46YeYyMCOwAAAAAAAEACAAAAAAAAgAAAAAAAAAA==

> <PUBCHEM_IUPAC_OPENEYE_NAME>
N-[4-[4-(2-methoxyphenyl)-1,4-diazepan-1-yl]butyl]-4-(3-thienyl)benzamide

> <PUBCHEM_IUPAC_CAS_NAME>
N-[4-[4-(2-methoxyphenyl)-1,4-diazepan-1-yl]butyl]-4-(3-thiophenyl)benzamide

> <PUBCHEM_IUPAC_NAME_MARKUP>
<I>N</I>-[4-[4-(2-methoxyphenyl)-1,4-diazepan-1-yl]butyl]-4-thiophen-3-ylbenzamide

> <PUBCHEM_IUPAC_NAME>
N-[4-[4-(2-methoxyphenyl)-1,4-diazepan-1-yl]butyl]-4-thiophen-3-ylbenzamide

> <PUBCHEM_IUPAC_SYSTEMATIC_NAME>
N-[4-[4-(2-methoxyphenyl)-1,4-diazepan-1-yl]butyl]-4-thiophen-3-yl-benzamide

> <PUBCHEM_IUPAC_TRADITIONAL_NAME>
N-[4-[4-(2-methoxyphenyl)-1,4-diazepan-1-yl]butyl]-4-(3-thienyl)benzamide

> <PUBCHEM_IUPAC_INCHI>
InChI=1S/C27H33N3O2S/c1-32-26-8-3-2-7-25(26)30-17-6-16-29(18-19-30)15-5-4-14-28-27(31)23-11-9-22(10-12-23)24-13-20-33-21-24/h2-3,7-13,20-21H,4-6,14-19H2,1H3,(H,28,31)

> <PUBCHEM_IUPAC_INCHIKEY>
IAXCCAHOKNMOII-UHFFFAOYSA-N

> <PUBCHEM_XLOGP3_AA>
5.2

> <PUBCHEM_EXACT_MASS>
463.22934848

> <PUBCHEM_MOLECULAR_FORMULA>
C27H33N3O2S

> <PUBCHEM_MOLECULAR_WEIGHT>
463.6

> <PUBCHEM_OPENEYE_CAN_SMILES>
COC1=CC=CC=C1N2CCCN(CC2)CCCCNC(=O)C3=CC=C(C=C3)C4=CSC=C4

> <PUBCHEM_OPENEYE_ISO_SMILES>
COC1=CC=CC=C1N2CCCN(CC2)CCCCNC(=O)C3=CC=C(C=C3)C4=CSC=C4

> <PUBCHEM_CACTVS_TPSA>
73

> <PUBCHEM_MONOISOTOPIC_WEIGHT>
463.22934848

> <PUBCHEM_TOTAL_CHARGE>
0

> <PUBCHEM_HEAVY_ATOM_COUNT>
33

> <PUBCHEM_ATOM_DEF_STEREO_COUNT>
0

> <PUBCHEM_ATOM_UDEF_STEREO_COUNT>
0

> <PUBCHEM_BOND_DEF_STEREO_COUNT>
0

> <PUBCHEM_BOND_UDEF_STEREO_COUNT>
0

> <PUBCHEM_ISOTOPIC_ATOM_COUNT>
0

> <PUBCHEM_COMPONENT_COUNT>
1

> <PUBCHEM_CACTVS_TAUTO_COUNT>
-1

> <PUBCHEM_COORDINATE_TYPE>
1
5
255

> <PUBCHEM_BONDANNOTATIONS>
1  32  8
1  33  8
14  17  8
14  18  8
17  19  8
18  20  8
19  21  8
20  21  8
23  25  8
23  26  8
25  28  8
26  29  8
27  28  8
27  29  8
30  31  8
30  32  8
31  33  8

$$$$
