56837634
  -OEChem-09292322322D

159164  0     0  0  0  0  0  0999 V2000
   25.3827   16.0000    0.0000 O   0  0  0  0  0  0  0  0  0  0  0  0
    2.8660  -17.0000    0.0000 O   0  0  0  0  0  0  0  0  0  0  0  0
   20.1865   11.0000    0.0000 O   0  0  0  0  0  0  0  0  0  0  0  0
    8.0622  -10.0000    0.0000 O   0  0  0  0  0  0  0  0  0  0  0  0
   15.8564    8.5000    0.0000 O   0  0  0  0  0  0  0  0  0  0  0  0
    8.0622   -5.0000    0.0000 O   0  0  0  0  0  0  0  0  0  0  0  0
   14.1244    6.5000    0.0000 O   0  0  0  0  0  0  0  0  0  0  0  0
    8.9282   -2.5000    0.0000 O   0  0  0  0  0  0  0  0  0  0  0  0
   13.2583    4.0000    0.0000 O   0  0  0  0  0  0  0  0  0  0  0  0
   10.6603   -0.5000    0.0000 O   0  0  0  0  0  0  0  0  0  0  0  0
   11.5263    2.0000    0.0000 O   0  0  0  0  0  0  0  0  0  0  0  0
   21.9186   16.0000    0.0000 N   0  0  0  0  0  0  0  0  0  0  0  0
    4.5981  -14.0000    0.0000 N   0  0  0  0  0  0  0  0  0  0  0  0
   23.6506   17.0000    0.0000 N   0  0  0  0  0  0  0  0  0  0  0  0
    4.5981  -16.0000    0.0000 N   0  0  0  0  0  0  0  0  0  0  0  0
   19.3205   12.5000    0.0000 N   0  0  0  0  0  0  0  0  0  0  0  0
    6.3301  -10.0000    0.0000 N   0  0  0  0  0  0  0  0  0  0  0  0
   21.9186   17.0000    0.0000 C   0  0  0  0  0  0  0  0  0  0  0  0
   22.7846   15.5000    0.0000 C   0  0  0  0  0  0  0  0  0  0  0  0
    5.4641  -14.5000    0.0000 C   0  0  0  0  0  0  0  0  0  0  0  0
    3.7320  -14.5000    0.0000 C   0  0  0  0  0  0  0  0  0  0  0  0
   22.7846   17.5000    0.0000 C   0  0  0  0  0  0  0  0  0  0  0  0
   23.6506   16.0000    0.0000 C   0  0  0  0  0  0  0  0  0  0  0  0
    5.4641  -15.5000    0.0000 C   0  0  0  0  0  0  0  0  0  0  0  0
    3.7320  -15.5000    0.0000 C   0  0  0  0  0  0  0  0  0  0  0  0
   21.0526   15.5000    0.0000 C   0  0  0  0  0  0  0  0  0  0  0  0
    4.5981  -13.0000    0.0000 C   0  0  0  0  0  0  0  0  0  0  0  0
   21.0526   14.5000    0.0000 C   0  0  0  0  0  0  0  0  0  0  0  0
    5.4641  -12.5000    0.0000 C   0  0  0  0  0  0  0  0  0  0  0  0
   24.5167   17.5000    0.0000 C   0  0  0  0  0  0  0  0  0  0  0  0
    4.5981  -17.0000    0.0000 C   0  0  0  0  0  0  0  0  0  0  0  0
   20.1865   14.0000    0.0000 C   0  0  0  0  0  0  0  0  0  0  0  0
    5.4641  -11.5000    0.0000 C   0  0  0  0  0  0  0  0  0  0  0  0
   25.3827   17.0000    0.0000 C   0  0  0  0  0  0  0  0  0  0  0  0
    3.7320  -17.5000    0.0000 C   0  0  0  0  0  0  0  0  0  0  0  0
   20.1865   13.0000    0.0000 C   0  0  0  0  0  0  0  0  0  0  0  0
    6.3301  -11.0000    0.0000 C   0  0  0  0  0  0  0  0  0  0  0  0
   24.5167   18.5000    0.0000 C   0  0  0  0  0  0  0  0  0  0  0  0
    5.4641  -17.5000    0.0000 C   0  0  0  0  0  0  0  0  0  0  0  0
   26.2487   17.5000    0.0000 C   0  0  0  0  0  0  0  0  0  0  0  0
    3.7320  -18.5000    0.0000 C   0  0  0  0  0  0  0  0  0  0  0  0
   25.3827   19.0000    0.0000 C   0  0  0  0  0  0  0  0  0  0  0  0
    5.4641  -18.5000    0.0000 C   0  0  0  0  0  0  0  0  0  0  0  0
   26.2487   18.5000    0.0000 C   0  0  0  0  0  0  0  0  0  0  0  0
    4.5981  -19.0000    0.0000 C   0  0  0  0  0  0  0  0  0  0  0  0
   19.3205   11.5000    0.0000 C   0  0  0  0  0  0  0  0  0  0  0  0
    7.1962   -9.5000    0.0000 C   0  0  0  0  0  0  0  0  0  0  0  0
   26.2487   15.5000    0.0000 C   0  0  0  0  0  0  0  0  0  0  0  0
    2.0000  -17.5000    0.0000 C   0  0  0  0  0  0  0  0  0  0  0  0
   18.4545   11.0000    0.0000 C   0  0  0  0  0  0  0  0  0  0  0  0
    7.1962   -8.5000    0.0000 C   0  0  0  0  0  0  0  0  0  0  0  0
   18.4545   10.0000    0.0000 C   0  0  0  0  0  0  0  0  0  0  0  0
    8.0622   -8.0000    0.0000 C   0  0  0  0  0  0  0  0  0  0  0  0
   17.5885   11.5000    0.0000 C   0  0  0  0  0  0  0  0  0  0  0  0
    6.3301   -8.0000    0.0000 C   0  0  0  0  0  0  0  0  0  0  0  0
   17.5885    9.5000    0.0000 C   0  0  0  0  0  0  0  0  0  0  0  0
    8.0622   -7.0000    0.0000 C   0  0  0  0  0  0  0  0  0  0  0  0
   16.7224   11.0000    0.0000 C   0  0  0  0  0  0  0  0  0  0  0  0
    6.3301   -7.0000    0.0000 C   0  0  0  0  0  0  0  0  0  0  0  0
   16.7224   10.0000    0.0000 C   0  0  0  0  0  0  0  0  0  0  0  0
    7.1962   -6.5000    0.0000 C   0  0  0  0  0  0  0  0  0  0  0  0
   15.8564    9.5000    0.0000 C   0  0  0  0  0  0  0  0  0  0  0  0
    7.1962   -5.5000    0.0000 C   0  0  0  0  0  0  0  0  0  0  0  0
   14.9904    8.0000    0.0000 C   0  0  0  0  0  0  0  0  0  0  0  0
    8.0622   -4.0000    0.0000 C   0  0  0  0  0  0  0  0  0  0  0  0
   14.9904    7.0000    0.0000 C   0  0  0  0  0  0  0  0  0  0  0  0
    8.9282   -3.5000    0.0000 C   0  0  0  0  0  0  0  0  0  0  0  0
   14.1244    5.5000    0.0000 C   0  0  0  0  0  0  0  0  0  0  0  0
    9.7942   -2.0000    0.0000 C   0  0  0  0  0  0  0  0  0  0  0  0
   13.2583    5.0000    0.0000 C   0  0  0  0  0  0  0  0  0  0  0  0
    9.7942   -1.0000    0.0000 C   0  0  0  0  0  0  0  0  0  0  0  0
   12.3923    3.5000    0.0000 C   0  0  0  0  0  0  0  0  0  0  0  0
   10.6603    0.5000    0.0000 C   0  0  0  0  0  0  0  0  0  0  0  0
   12.3923    2.5000    0.0000 C   0  0  0  0  0  0  0  0  0  0  0  0
   11.5263    1.0000    0.0000 C   0  0  0  0  0  0  0  0  0  0  0  0
   21.7065   17.5826    0.0000 H   0  0  0  0  0  0  0  0  0  0  0  0
   21.3080   16.8923    0.0000 H   0  0  0  0  0  0  0  0  0  0  0  0
   22.3861   15.0251    0.0000 H   0  0  0  0  0  0  0  0  0  0  0  0
   23.1831   15.0251    0.0000 H   0  0  0  0  0  0  0  0  0  0  0  0
    6.0747  -14.6077    0.0000 H   0  0  0  0  0  0  0  0  0  0  0  0
    5.6762  -13.9174    0.0000 H   0  0  0  0  0  0  0  0  0  0  0  0
    3.5200  -13.9174    0.0000 H   0  0  0  0  0  0  0  0  0  0  0  0
    3.1215  -14.6077    0.0000 H   0  0  0  0  0  0  0  0  0  0  0  0
   23.1831   17.9749    0.0000 H   0  0  0  0  0  0  0  0  0  0  0  0
   22.3861   17.9749    0.0000 H   0  0  0  0  0  0  0  0  0  0  0  0
   23.8627   15.4174    0.0000 H   0  0  0  0  0  0  0  0  0  0  0  0
   24.2612   16.1077    0.0000 H   0  0  0  0  0  0  0  0  0  0  0  0
    5.6762  -16.0826    0.0000 H   0  0  0  0  0  0  0  0  0  0  0  0
    6.0747  -15.3923    0.0000 H   0  0  0  0  0  0  0  0  0  0  0  0
    3.1215  -15.3923    0.0000 H   0  0  0  0  0  0  0  0  0  0  0  0
    3.5200  -16.0826    0.0000 H   0  0  0  0  0  0  0  0  0  0  0  0
   20.8405   16.0826    0.0000 H   0  0  0  0  0  0  0  0  0  0  0  0
   20.4420   15.3923    0.0000 H   0  0  0  0  0  0  0  0  0  0  0  0
    4.3860  -12.4174    0.0000 H   0  0  0  0  0  0  0  0  0  0  0  0
    3.9875  -13.1077    0.0000 H   0  0  0  0  0  0  0  0  0  0  0  0
   21.2646   13.9174    0.0000 H   0  0  0  0  0  0  0  0  0  0  0  0
   21.6631   14.6077    0.0000 H   0  0  0  0  0  0  0  0  0  0  0  0
    5.6762  -13.0826    0.0000 H   0  0  0  0  0  0  0  0  0  0  0  0
    6.0747  -12.3923    0.0000 H   0  0  0  0  0  0  0  0  0  0  0  0
   19.9745   14.5826    0.0000 H   0  0  0  0  0  0  0  0  0  0  0  0
   19.5760   13.8923    0.0000 H   0  0  0  0  0  0  0  0  0  0  0  0
    5.2520  -10.9174    0.0000 H   0  0  0  0  0  0  0  0  0  0  0  0
    4.8535  -11.6077    0.0000 H   0  0  0  0  0  0  0  0  0  0  0  0
   20.3986   12.4174    0.0000 H   0  0  0  0  0  0  0  0  0  0  0  0
   20.7971   13.1077    0.0000 H   0  0  0  0  0  0  0  0  0  0  0  0
    6.5422  -11.5826    0.0000 H   0  0  0  0  0  0  0  0  0  0  0  0
    6.9407  -10.8923    0.0000 H   0  0  0  0  0  0  0  0  0  0  0  0
   23.9797   18.8100    0.0000 H   0  0  0  0  0  0  0  0  0  0  0  0
    6.0010  -17.1900    0.0000 H   0  0  0  0  0  0  0  0  0  0  0  0
   26.7856   17.1900    0.0000 H   0  0  0  0  0  0  0  0  0  0  0  0
    3.1951  -18.8100    0.0000 H   0  0  0  0  0  0  0  0  0  0  0  0
   25.3827   19.6200    0.0000 H   0  0  0  0  0  0  0  0  0  0  0  0
    6.0010  -18.8100    0.0000 H   0  0  0  0  0  0  0  0  0  0  0  0
   18.7836   12.8100    0.0000 H   0  0  0  0  0  0  0  0  0  0  0  0
    5.7932   -9.6900    0.0000 H   0  0  0  0  0  0  0  0  0  0  0  0
   26.7856   18.8100    0.0000 H   0  0  0  0  0  0  0  0  0  0  0  0
    4.5981  -19.6200    0.0000 H   0  0  0  0  0  0  0  0  0  0  0  0
   25.9387   14.9631    0.0000 H   0  0  0  0  0  0  0  0  0  0  0  0
   26.7856   15.1900    0.0000 H   0  0  0  0  0  0  0  0  0  0  0  0
   26.5587   16.0369    0.0000 H   0  0  0  0  0  0  0  0  0  0  0  0
    1.6900  -16.9631    0.0000 H   0  0  0  0  0  0  0  0  0  0  0  0
    1.4631  -17.8100    0.0000 H   0  0  0  0  0  0  0  0  0  0  0  0
    2.3100  -18.0369    0.0000 H   0  0  0  0  0  0  0  0  0  0  0  0
   18.9914    9.6900    0.0000 H   0  0  0  0  0  0  0  0  0  0  0  0
    8.5991   -8.3100    0.0000 H   0  0  0  0  0  0  0  0  0  0  0  0
   17.5885   12.1200    0.0000 H   0  0  0  0  0  0  0  0  0  0  0  0
    5.7932   -8.3100    0.0000 H   0  0  0  0  0  0  0  0  0  0  0  0
   17.5885    8.8800    0.0000 H   0  0  0  0  0  0  0  0  0  0  0  0
    8.5991   -6.6900    0.0000 H   0  0  0  0  0  0  0  0  0  0  0  0
   16.1855   11.3100    0.0000 H   0  0  0  0  0  0  0  0  0  0  0  0
    5.7932   -6.6900    0.0000 H   0  0  0  0  0  0  0  0  0  0  0  0
   15.6444   10.0826    0.0000 H   0  0  0  0  0  0  0  0  0  0  0  0
   15.2458    9.3923    0.0000 H   0  0  0  0  0  0  0  0  0  0  0  0
    6.9841   -4.9174    0.0000 H   0  0  0  0  0  0  0  0  0  0  0  0
    6.5856   -5.6077    0.0000 H   0  0  0  0  0  0  0  0  0  0  0  0
   14.7783    8.5826    0.0000 H   0  0  0  0  0  0  0  0  0  0  0  0
   14.3798    7.8923    0.0000 H   0  0  0  0  0  0  0  0  0  0  0  0
    7.8501   -3.4174    0.0000 H   0  0  0  0  0  0  0  0  0  0  0  0
    7.4516   -4.1077    0.0000 H   0  0  0  0  0  0  0  0  0  0  0  0
   15.2024    6.4174    0.0000 H   0  0  0  0  0  0  0  0  0  0  0  0
   15.6010    7.1077    0.0000 H   0  0  0  0  0  0  0  0  0  0  0  0
    9.1403   -4.0826    0.0000 H   0  0  0  0  0  0  0  0  0  0  0  0
    9.5388   -3.3923    0.0000 H   0  0  0  0  0  0  0  0  0  0  0  0
   14.3364    4.9174    0.0000 H   0  0  0  0  0  0  0  0  0  0  0  0
   14.7349    5.6077    0.0000 H   0  0  0  0  0  0  0  0  0  0  0  0
   10.0063   -2.5826    0.0000 H   0  0  0  0  0  0  0  0  0  0  0  0
   10.4048   -1.8923    0.0000 H   0  0  0  0  0  0  0  0  0  0  0  0
   13.0463    5.5826    0.0000 H   0  0  0  0  0  0  0  0  0  0  0  0
   12.6477    4.8923    0.0000 H   0  0  0  0  0  0  0  0  0  0  0  0
    9.5822   -0.4174    0.0000 H   0  0  0  0  0  0  0  0  0  0  0  0
    9.1836   -1.1077    0.0000 H   0  0  0  0  0  0  0  0  0  0  0  0
   12.1803    4.0826    0.0000 H   0  0  0  0  0  0  0  0  0  0  0  0
   11.7817    3.3923    0.0000 H   0  0  0  0  0  0  0  0  0  0  0  0
   10.4482    1.0826    0.0000 H   0  0  0  0  0  0  0  0  0  0  0  0
   10.0497    0.3923    0.0000 H   0  0  0  0  0  0  0  0  0  0  0  0
   12.6044    1.9174    0.0000 H   0  0  0  0  0  0  0  0  0  0  0  0
   13.0029    2.6077    0.0000 H   0  0  0  0  0  0  0  0  0  0  0  0
   11.7383    0.4174    0.0000 H   0  0  0  0  0  0  0  0  0  0  0  0
   12.1369    1.1077    0.0000 H   0  0  0  0  0  0  0  0  0  0  0  0
  1 34  1  0  0  0  0
  1 48  1  0  0  0  0
  2 35  1  0  0  0  0
  2 49  1  0  0  0  0
  3 46  2  0  0  0  0
  4 47  2  0  0  0  0
  5 62  1  0  0  0  0
  5 64  1  0  0  0  0
  6 63  1  0  0  0  0
  6 65  1  0  0  0  0
  7 66  1  0  0  0  0
  7 68  1  0  0  0  0
  8 67  1  0  0  0  0
  8 69  1  0  0  0  0
  9 70  1  0  0  0  0
  9 72  1  0  0  0  0
 10 71  1  0  0  0  0
 10 73  1  0  0  0  0
 11 74  1  0  0  0  0
 11 75  1  0  0  0  0
 12 18  1  0  0  0  0
 12 19  1  0  0  0  0
 12 26  1  0  0  0  0
 13 20  1  0  0  0  0
 13 21  1  0  0  0  0
 13 27  1  0  0  0  0
 14 22  1  0  0  0  0
 14 23  1  0  0  0  0
 14 30  1  0  0  0  0
 15 24  1  0  0  0  0
 15 25  1  0  0  0  0
 15 31  1  0  0  0  0
 16 36  1  0  0  0  0
 16 46  1  0  0  0  0
 16114  1  0  0  0  0
 17 37  1  0  0  0  0
 17 47  1  0  0  0  0
 17115  1  0  0  0  0
 18 22  1  0  0  0  0
 18 76  1  0  0  0  0
 18 77  1  0  0  0  0
 19 23  1  0  0  0  0
 19 78  1  0  0  0  0
 19 79  1  0  0  0  0
 20 24  1  0  0  0  0
 20 80  1  0  0  0  0
 20 81  1  0  0  0  0
 21 25  1  0  0  0  0
 21 82  1  0  0  0  0
 21 83  1  0  0  0  0
 22 84  1  0  0  0  0
 22 85  1  0  0  0  0
 23 86  1  0  0  0  0
 23 87  1  0  0  0  0
 24 88  1  0  0  0  0
 24 89  1  0  0  0  0
 25 90  1  0  0  0  0
 25 91  1  0  0  0  0
 26 28  1  0  0  0  0
 26 92  1  0  0  0  0
 26 93  1  0  0  0  0
 27 29  1  0  0  0  0
 27 94  1  0  0  0  0
 27 95  1  0  0  0  0
 28 32  1  0  0  0  0
 28 96  1  0  0  0  0
 28 97  1  0  0  0  0
 29 33  1  0  0  0  0
 29 98  1  0  0  0  0
 29 99  1  0  0  0  0
 30 34  1  0  0  0  0
 30 38  2  0  0  0  0
 31 35  1  0  0  0  0
 31 39  2  0  0  0  0
 32 36  1  0  0  0  0
 32100  1  0  0  0  0
 32101  1  0  0  0  0
 33 37  1  0  0  0  0
 33102  1  0  0  0  0
 33103  1  0  0  0  0
 34 40  2  0  0  0  0
 35 41  2  0  0  0  0
 36104  1  0  0  0  0
 36105  1  0  0  0  0
 37106  1  0  0  0  0
 37107  1  0  0  0  0
 38 42  1  0  0  0  0
 38108  1  0  0  0  0
 39 43  1  0  0  0  0
 39109  1  0  0  0  0
 40 44  1  0  0  0  0
 40110  1  0  0  0  0
 41 45  1  0  0  0  0
 41111  1  0  0  0  0
 42 44  2  0  0  0  0
 42112  1  0  0  0  0
 43 45  2  0  0  0  0
 43113  1  0  0  0  0
 44116  1  0  0  0  0
 45117  1  0  0  0  0
 46 50  1  0  0  0  0
 47 51  1  0  0  0  0
 48118  1  0  0  0  0
 48119  1  0  0  0  0
 48120  1  0  0  0  0
 49121  1  0  0  0  0
 49122  1  0  0  0  0
 49123  1  0  0  0  0
 50 52  2  0  0  0  0
 50 54  1  0  0  0  0
 51 53  2  0  0  0  0
 51 55  1  0  0  0  0
 52 56  1  0  0  0  0
 52124  1  0  0  0  0
 53 57  1  0  0  0  0
 53125  1  0  0  0  0
 54 58  2  0  0  0  0
 54126  1  0  0  0  0
 55 59  2  0  0  0  0
 55127  1  0  0  0  0
 56 60  2  0  0  0  0
 56128  1  0  0  0  0
 57 61  2  0  0  0  0
 57129  1  0  0  0  0
 58 60  1  0  0  0  0
 58130  1  0  0  0  0
 59 61  1  0  0  0  0
 59131  1  0  0  0  0
 60 62  1  0  0  0  0
 61 63  1  0  0  0  0
 62132  1  0  0  0  0
 62133  1  0  0  0  0
 63134  1  0  0  0  0
 63135  1  0  0  0  0
 64 66  1  0  0  0  0
 64136  1  0  0  0  0
 64137  1  0  0  0  0
 65 67  1  0  0  0  0
 65138  1  0  0  0  0
 65139  1  0  0  0  0
 66140  1  0  0  0  0
 66141  1  0  0  0  0
 67142  1  0  0  0  0
 67143  1  0  0  0  0
 68 70  1  0  0  0  0
 68144  1  0  0  0  0
 68145  1  0  0  0  0
 69 71  1  0  0  0  0
 69146  1  0  0  0  0
 69147  1  0  0  0  0
 70148  1  0  0  0  0
 70149  1  0  0  0  0
 71150  1  0  0  0  0
 71151  1  0  0  0  0
 72 74  1  0  0  0  0
 72152  1  0  0  0  0
 72153  1  0  0  0  0
 73 75  1  0  0  0  0
 73154  1  0  0  0  0
 73155  1  0  0  0  0
 74156  1  0  0  0  0
 74157  1  0  0  0  0
 75158  1  0  0  0  0
 75159  1  0  0  0  0
M  END
> <PUBCHEM_COMPOUND_CID>
56837634

> <PUBCHEM_COMPOUND_CANONICALIZED>
1

> <PUBCHEM_CACTVS_COMPLEXITY>
1340

> <PUBCHEM_CACTVS_HBOND_ACCEPTOR>
15

> <PUBCHEM_CACTVS_HBOND_DONOR>
2

> <PUBCHEM_CACTVS_ROTATABLE_BOND>
38

> <PUBCHEM_CACTVS_SUBSKEYS>
AAADcfB/vAAAAAAAAAAAAAAAAAAAAAAAAAA8eMGCAAAAAAABVAAAHgAQAAAADAzhmAYyxoPABACIAiVSUACCCAAlIgAIiIEPbMgPZjLEtZuXMShk1hHa6YeYyDCOQAAAAAAAEACAAAAAAAAgAAAAAAAAAA==

> <PUBCHEM_IUPAC_OPENEYE_NAME>
N-[4-[4-(2-methoxyphenyl)piperazin-1-yl]butyl]-4-[2-[2-[2-[2-[2-[2-[[4-[4-[4-(2-methoxyphenyl)piperazin-1-yl]butylcarbamoyl]phenyl]methoxy]ethoxy]ethoxy]ethoxy]ethoxy]ethoxy]ethoxymethyl]benzamide

> <PUBCHEM_IUPAC_CAS_NAME>
N-[4-[4-(2-methoxyphenyl)-1-piperazinyl]butyl]-4-[2-[2-[2-[2-[2-[2-[[4-[[4-[4-(2-methoxyphenyl)-1-piperazinyl]butylamino]-oxomethyl]phenyl]methoxy]ethoxy]ethoxy]ethoxy]ethoxy]ethoxy]ethoxymethyl]benzamide

> <PUBCHEM_IUPAC_NAME_MARKUP>
<I>N</I>-[4-[4-(2-methoxyphenyl)piperazin-1-yl]butyl]-4-[2-[2-[2-[2-[2-[2-[[4-[4-[4-(2-methoxyphenyl)piperazin-1-yl]butylcarbamoyl]phenyl]methoxy]ethoxy]ethoxy]ethoxy]ethoxy]ethoxy]ethoxymethyl]benzamide

> <PUBCHEM_IUPAC_NAME>
N-[4-[4-(2-methoxyphenyl)piperazin-1-yl]butyl]-4-[2-[2-[2-[2-[2-[2-[[4-[4-[4-(2-methoxyphenyl)piperazin-1-yl]butylcarbamoyl]phenyl]methoxy]ethoxy]ethoxy]ethoxy]ethoxy]ethoxy]ethoxymethyl]benzamide

> <PUBCHEM_IUPAC_SYSTEMATIC_NAME>
N-[4-[4-(2-methoxyphenyl)piperazin-1-yl]butyl]-4-[2-[2-[2-[2-[2-[2-[[4-[4-[4-(2-methoxyphenyl)piperazin-1-yl]butylcarbamoyl]phenyl]methoxy]ethoxy]ethoxy]ethoxy]ethoxy]ethoxy]ethoxymethyl]benzamide

> <PUBCHEM_IUPAC_TRADITIONAL_NAME>
N-[4-[4-(2-methoxyphenyl)piperazino]butyl]-4-[2-[2-[2-[2-[2-[2-[4-[4-[4-(2-methoxyphenyl)piperazino]butylcarbamoyl]benzyl]oxyethoxy]ethoxy]ethoxy]ethoxy]ethoxy]ethoxymethyl]benzamide

> <PUBCHEM_IUPAC_INCHI>
InChI=1S/C58H84N6O11/c1-67-55-13-5-3-11-53(55)63-31-27-61(28-32-63)25-9-7-23-59-57(65)51-19-15-49(16-20-51)47-74-45-43-72-41-39-70-37-35-69-36-38-71-40-42-73-44-46-75-48-50-17-21-52(22-18-50)58(66)60-24-8-10-26-62-29-33-64(34-30-62)54-12-4-6-14-56(54)68-2/h3-6,11-22H,7-10,23-48H2,1-2H3,(H,59,65)(H,60,66)

> <PUBCHEM_IUPAC_INCHIKEY>
KXMILNJJEHWZPF-UHFFFAOYSA-N

> <PUBCHEM_XLOGP3_AA>
5.4

> <PUBCHEM_EXACT_MASS>
1040.61980752

> <PUBCHEM_MOLECULAR_FORMULA>
C58H84N6O11

> <PUBCHEM_MOLECULAR_WEIGHT>
1041.3

> <PUBCHEM_OPENEYE_CAN_SMILES>
COC1=CC=CC=C1N2CCN(CC2)CCCCNC(=O)C3=CC=C(C=C3)COCCOCCOCCOCCOCCOCCOCC4=CC=C(C=C4)C(=O)NCCCCN5CCN(CC5)C6=CC=CC=C6OC

> <PUBCHEM_OPENEYE_ISO_SMILES>
COC1=CC=CC=C1N2CCN(CC2)CCCCNC(=O)C3=CC=C(C=C3)COCCOCCOCCOCCOCCOCCOCC4=CC=C(C=C4)C(=O)NCCCCN5CCN(CC5)C6=CC=CC=C6OC

> <PUBCHEM_CACTVS_TPSA>
154

> <PUBCHEM_MONOISOTOPIC_WEIGHT>
1040.61980752

> <PUBCHEM_TOTAL_CHARGE>
0

> <PUBCHEM_HEAVY_ATOM_COUNT>
75

> <PUBCHEM_ATOM_DEF_STEREO_COUNT>
0

> <PUBCHEM_ATOM_UDEF_STEREO_COUNT>
0

> <PUBCHEM_BOND_DEF_STEREO_COUNT>
0

> <PUBCHEM_BOND_UDEF_STEREO_COUNT>
0

> <PUBCHEM_ISOTOPIC_ATOM_COUNT>
0

> <PUBCHEM_COMPONENT_COUNT>
1

> <PUBCHEM_CACTVS_TAUTO_COUNT>
-1

> <PUBCHEM_COORDINATE_TYPE>
1
5
255

> <PUBCHEM_BONDANNOTATIONS>
30  34  8
30  38  8
31  35  8
31  39  8
34  40  8
35  41  8
38  42  8
39  43  8
40  44  8
41  45  8
42  44  8
43  45  8
50  52  8
50  54  8
51  53  8
51  55  8
52  56  8
53  57  8
54  58  8
55  59  8
56  60  8
57  61  8
58  60  8
59  61  8

$$$$
