9955072
  -OEChem-09292322142D

 58 63  0     1  0  0  0  0  0999 V2000
   10.9930    0.2029    0.0000 O   0  0  0  0  0  0  0  0  0  0  0  0
    6.3798   -1.4543    0.0000 O   0  0  0  0  0  0  0  0  0  0  0  0
    8.1719   -2.4890    0.0000 O   0  0  0  0  0  0  0  0  0  0  0  0
    9.9670    2.5784    0.0000 N   0  0  3  0  0  0  0  0  0  0  0  0
    8.1381    0.5768    0.0000 N   0  0  0  0  0  0  0  0  0  0  0  0
   11.4476    1.9260    0.0000 N   0  0  0  0  0  0  0  0  0  0  0  0
    4.5836   -4.3005    0.0000 N   0  0  0  0  0  0  0  0  0  0  0  0
    2.0000   -3.4958    0.0000 N   0  0  0  0  0  0  0  0  0  0  0  0
    9.8663    1.5835    0.0000 C   0  0  0  0  0  0  0  0  0  0  0  0
    8.9983    2.0801    0.0000 C   0  0  0  0  0  0  0  0  0  0  0  0
    9.8701    0.5835    0.0000 C   0  0  0  0  0  0  0  0  0  0  0  0
    8.1342    1.5768    0.0000 C   0  0  0  0  0  0  0  0  0  0  0  0
    9.0060    0.0801    0.0000 C   0  0  0  0  0  0  0  0  0  0  0  0
   10.7814    1.1802    0.0000 C   0  0  0  0  0  0  0  0  0  0  0  0
   10.9443    2.7901    0.0000 C   0  0  0  0  0  0  0  0  0  0  0  0
    7.2740    0.0735    0.0000 C   0  0  0  0  0  0  0  0  0  0  0  0
    9.2212    3.2446    0.0000 C   0  0  0  0  0  0  0  0  0  0  0  0
    7.2778   -0.9265    0.0000 C   0  0  3  0  0  0  0  0  0  0  0  0
    8.1799   -1.4474    0.0000 C   0  0  0  0  0  0  0  0  0  0  0  0
    9.4254    4.2236    0.0000 C   0  0  0  0  0  0  0  0  0  0  0  0
    8.2714    2.9320    0.0000 C   0  0  0  0  0  0  0  0  0  0  0  0
    6.3958   -2.4958    0.0000 C   0  0  0  0  0  0  0  0  0  0  0  0
    7.2619   -2.9958    0.0000 C   0  0  0  0  0  0  0  0  0  0  0  0
    8.6796    4.8898    0.0000 C   0  0  0  0  0  0  0  0  0  0  0  0
    7.5256    3.5982    0.0000 C   0  0  0  0  0  0  0  0  0  0  0  0
    5.5298   -2.9958    0.0000 C   0  0  0  0  0  0  0  0  0  0  0  0
    7.7298    4.5772    0.0000 C   0  0  0  0  0  0  0  0  0  0  0  0
    5.5298   -3.9958    0.0000 C   0  0  0  0  0  0  0  0  0  0  0  0
    7.2619   -3.9958    0.0000 C   0  0  0  0  0  0  0  0  0  0  0  0
    6.3958   -4.4958    0.0000 C   0  0  0  0  0  0  0  0  0  0  0  0
    4.5836   -2.6911    0.0000 C   0  0  0  0  0  0  0  0  0  0  0  0
    4.0000   -3.4958    0.0000 C   0  0  0  0  0  0  0  0  0  0  0  0
    3.0000   -3.4958    0.0000 C   0  0  0  0  0  0  0  0  0  0  0  0
    9.3950    2.5566    0.0000 H   0  0  0  0  0  0  0  0  0  0  0  0
    8.5980    2.5535    0.0000 H   0  0  0  0  0  0  0  0  0  0  0  0
   10.0844    0.0017    0.0000 H   0  0  0  0  0  0  0  0  0  0  0  0
   10.4803    0.6935    0.0000 H   0  0  0  0  0  0  0  0  0  0  0  0
    7.9199    2.1586    0.0000 H   0  0  0  0  0  0  0  0  0  0  0  0
    7.5240    1.4668    0.0000 H   0  0  0  0  0  0  0  0  0  0  0  0
    8.6093   -0.3963    0.0000 H   0  0  0  0  0  0  0  0  0  0  0  0
    9.4064   -0.3933    0.0000 H   0  0  0  0  0  0  0  0  0  0  0  0
   11.5097    3.0444    0.0000 H   0  0  0  0  0  0  0  0  0  0  0  0
   10.7504    3.3790    0.0000 H   0  0  0  0  0  0  0  0  0  0  0  0
    7.0597    0.6552    0.0000 H   0  0  0  0  0  0  0  0  0  0  0  0
    6.6638   -0.0366    0.0000 H   0  0  0  0  0  0  0  0  0  0  0  0
   12.0645    1.8635    0.0000 H   0  0  0  0  0  0  0  0  0  0  0  0
    6.7391   -0.6196    0.0000 H   0  0  0  0  0  0  0  0  0  0  0  0
    8.7899   -1.5581    0.0000 H   0  0  0  0  0  0  0  0  0  0  0  0
    8.3935   -0.8653    0.0000 H   0  0  0  0  0  0  0  0  0  0  0  0
   10.0143    4.4174    0.0000 H   0  0  0  0  0  0  0  0  0  0  0  0
    8.1448    2.3250    0.0000 H   0  0  0  0  0  0  0  0  0  0  0  0
    8.8062    5.4968    0.0000 H   0  0  0  0  0  0  0  0  0  0  0  0
    6.9367    3.4044    0.0000 H   0  0  0  0  0  0  0  0  0  0  0  0
    7.2674    4.9902    0.0000 H   0  0  0  0  0  0  0  0  0  0  0  0
    7.7988   -4.3058    0.0000 H   0  0  0  0  0  0  0  0  0  0  0  0
    6.3958   -5.1158    0.0000 H   0  0  0  0  0  0  0  0  0  0  0  0
    4.3910   -2.1017    0.0000 H   0  0  0  0  0  0  0  0  0  0  0  0
    4.3910   -4.8898    0.0000 H   0  0  0  0  0  0  0  0  0  0  0  0
  1 14  2  0  0  0  0
  2 18  1  0  0  0  0
  2 22  1  0  0  0  0
  3 19  1  0  0  0  0
  3 23  1  0  0  0  0
  4  9  1  0  0  0  0
  4 15  1  0  0  0  0
  4 17  1  0  0  0  0
  5 12  1  0  0  0  0
  5 13  1  0  0  0  0
  5 16  1  0  0  0  0
  6 14  1  0  0  0  0
  6 15  1  0  0  0  0
  6 46  1  0  0  0  0
  7 28  1  0  0  0  0
  7 32  1  0  0  0  0
  7 58  1  0  0  0  0
  8 33  3  0  0  0  0
  9 10  1  0  0  0  0
  9 11  1  0  0  0  0
  9 14  1  0  0  0  0
 10 12  1  0  0  0  0
 10 34  1  0  0  0  0
 10 35  1  0  0  0  0
 11 13  1  0  0  0  0
 11 36  1  0  0  0  0
 11 37  1  0  0  0  0
 12 38  1  0  0  0  0
 12 39  1  0  0  0  0
 13 40  1  0  0  0  0
 13 41  1  0  0  0  0
 15 42  1  0  0  0  0
 15 43  1  0  0  0  0
 16 18  1  0  0  0  0
 16 44  1  0  0  0  0
 16 45  1  0  0  0  0
 17 20  2  0  0  0  0
 17 21  1  0  0  0  0
 18 19  1  0  0  0  0
 18 47  1  0  0  0  0
 19 48  1  0  0  0  0
 19 49  1  0  0  0  0
 20 24  1  0  0  0  0
 20 50  1  0  0  0  0
 21 25  2  0  0  0  0
 21 51  1  0  0  0  0
 22 23  2  0  0  0  0
 22 26  1  0  0  0  0
 23 29  1  0  0  0  0
 24 27  2  0  0  0  0
 24 52  1  0  0  0  0
 25 27  1  0  0  0  0
 25 53  1  0  0  0  0
 26 28  2  0  0  0  0
 26 31  1  0  0  0  0
 27 54  1  0  0  0  0
 28 30  1  0  0  0  0
 29 30  2  0  0  0  0
 29 55  1  0  0  0  0
 30 56  1  0  0  0  0
 31 32  2  0  0  0  0
 31 57  1  0  0  0  0
 32 33  1  0  0  0  0
M  END
> <PUBCHEM_COMPOUND_CID>
9955072

> <PUBCHEM_COMPOUND_CANONICALIZED>
1

> <PUBCHEM_CACTVS_COMPLEXITY>
784

> <PUBCHEM_CACTVS_HBOND_ACCEPTOR>
6

> <PUBCHEM_CACTVS_HBOND_DONOR>
2

> <PUBCHEM_CACTVS_ROTATABLE_BOND>
3

> <PUBCHEM_CACTVS_SUBSKEYS>
AAADceB7sAAAAAAAAAAAAAAAAAAAAWLAAAA8aIEAAAAAAFiR9AAAHgAQAAAADJzhngYxxvPJlAC4ByVyVACiiCAhIiAImaG+7JiP5vLE8buXOCru0xva6C+00LMOAEABAgAKQAAAgAIEABSAAAAAAAAAAA==

> <PUBCHEM_IUPAC_OPENEYE_NAME>
2-[(4-oxo-1-phenyl-1,3,8-triazaspiro[4.5]decan-8-yl)methyl]-3,7-dihydro-2H-[1,4]dioxino[2,3-e]indole-8-carbonitrile

> <PUBCHEM_IUPAC_CAS_NAME>
2-[(4-oxo-1-phenyl-1,3,8-triazaspiro[4.5]decan-8-yl)methyl]-3,7-dihydro-2H-[1,4]dioxino[2,3-e]indole-8-carbonitrile

> <PUBCHEM_IUPAC_NAME_MARKUP>
2-[(4-oxo-1-phenyl-1,3,8-triazaspiro[4.5]decan-8-yl)methyl]-3,7-dihydro-2<I>H</I>-[1,4]dioxino[2,3-e]indole-8-carbonitrile

> <PUBCHEM_IUPAC_NAME>
2-[(4-oxo-1-phenyl-1,3,8-triazaspiro[4.5]decan-8-yl)methyl]-3,7-dihydro-2H-[1,4]dioxino[2,3-e]indole-8-carbonitrile

> <PUBCHEM_IUPAC_SYSTEMATIC_NAME>
2-[(4-oxidanylidene-1-phenyl-1,3,8-triazaspiro[4.5]decan-8-yl)methyl]-3,7-dihydro-2H-[1,4]dioxino[2,3-e]indole-8-carbonitrile

> <PUBCHEM_IUPAC_TRADITIONAL_NAME>
2-[(4-keto-1-phenyl-1,3,8-triazaspiro[4.5]decan-8-yl)methyl]-3,7-dihydro-2H-[1,4]dioxin[2,3-e]indole-8-carbonitrile

> <PUBCHEM_IUPAC_INCHI>
InChI=1S/C25H25N5O3/c26-13-17-12-20-21(28-17)6-7-22-23(20)33-19(15-32-22)14-29-10-8-25(9-11-29)24(31)27-16-30(25)18-4-2-1-3-5-18/h1-7,12,19,28H,8-11,14-16H2,(H,27,31)

> <PUBCHEM_IUPAC_INCHIKEY>
FMCRANLYZLAXGN-UHFFFAOYSA-N

> <PUBCHEM_XLOGP3_AA>
3.3

> <PUBCHEM_EXACT_MASS>
443.19573968

> <PUBCHEM_MOLECULAR_FORMULA>
C25H25N5O3

> <PUBCHEM_MOLECULAR_WEIGHT>
443.5

> <PUBCHEM_OPENEYE_CAN_SMILES>
C1CN(CCC12C(=O)NCN2C3=CC=CC=C3)CC4COC5=C(O4)C6=C(C=C5)NC(=C6)C#N

> <PUBCHEM_OPENEYE_ISO_SMILES>
C1CN(CCC12C(=O)NCN2C3=CC=CC=C3)CC4COC5=C(O4)C6=C(C=C5)NC(=C6)C#N

> <PUBCHEM_CACTVS_TPSA>
93.6

> <PUBCHEM_MONOISOTOPIC_WEIGHT>
443.19573968

> <PUBCHEM_TOTAL_CHARGE>
0

> <PUBCHEM_HEAVY_ATOM_COUNT>
33

> <PUBCHEM_ATOM_DEF_STEREO_COUNT>
0

> <PUBCHEM_ATOM_UDEF_STEREO_COUNT>
1

> <PUBCHEM_BOND_DEF_STEREO_COUNT>
0

> <PUBCHEM_BOND_UDEF_STEREO_COUNT>
0

> <PUBCHEM_ISOTOPIC_ATOM_COUNT>
0

> <PUBCHEM_COMPONENT_COUNT>
1

> <PUBCHEM_CACTVS_TAUTO_COUNT>
-1

> <PUBCHEM_COORDINATE_TYPE>
1
5
255

> <PUBCHEM_BONDANNOTATIONS>
18  16  3
17  20  8
17  21  8
20  24  8
21  25  8
22  23  8
22  26  8
23  29  8
24  27  8
25  27  8
26  28  8
26  31  8
28  30  8
29  30  8
31  32  8
7  28  8
7  32  8

$$$$
