45260417
  -OEChem-09292322102D

 70 72  0     1  0  0  0  0  0999 V2000
    8.4608    0.0000    0.0000 Cl  0  0  0  0  0  0  0  0  0  0  0  0
   16.5186    5.1337    0.0000 S   0  0  0  0  0  0  0  0  0  0  0  0
   11.3224    6.1337    0.0000 O   0  0  0  0  0  0  0  0  0  0  0  0
   17.0186    4.2677    0.0000 O   0  0  0  0  0  0  0  0  0  0  0  0
   16.0186    5.9997    0.0000 O   0  0  0  0  0  0  0  0  0  0  0  0
    5.2602    6.6337    0.0000 N   0  0  3  0  0  0  0  0  0  0  0  0
   10.4564    4.6337    0.0000 N   0  0  0  0  0  0  0  0  0  0  0  0
    0.0000    8.6612    0.0000 N   0  0  0  0  0  0  0  0  0  0  0  0
    7.8583    6.1337    0.0000 C   0  0  0  0  0  0  0  0  0  0  0  0
    8.7243    6.6337    0.0000 C   0  0  0  0  0  0  0  0  0  0  0  0
    7.8583    5.1337    0.0000 C   0  0  0  0  0  0  0  0  0  0  0  0
    9.5904    5.1337    0.0000 C   0  0  0  0  0  0  0  0  0  0  0  0
    9.5904    6.1337    0.0000 C   0  0  0  0  0  0  0  0  0  0  0  0
    8.7243    4.6337    0.0000 C   0  0  0  0  0  0  0  0  0  0  0  0
    6.9923    6.6337    0.0000 C   0  0  0  0  0  0  0  0  0  0  0  0
    6.1263    6.1337    0.0000 C   0  0  0  0  0  0  0  0  0  0  0  0
    5.2602    7.6337    0.0000 C   0  0  0  0  0  0  0  0  0  0  0  0
    4.3942    6.1337    0.0000 C   0  0  0  0  0  0  0  0  0  0  0  0
    4.3942    8.1337    0.0000 C   0  0  0  0  0  0  0  0  0  0  0  0
    3.5282    6.6337    0.0000 C   0  0  0  0  0  0  0  0  0  0  0  0
    3.5282    7.6337    0.0000 C   0  0  0  0  0  0  0  0  0  0  0  0
   11.3224    5.1337    0.0000 C   0  0  0  0  0  0  0  0  0  0  0  0
    2.6343    6.0990    0.0000 C   0  0  0  0  0  0  0  0  0  0  0  0
    2.6343    8.1684    0.0000 C   0  0  0  0  0  0  0  0  0  0  0  0
   12.1884    4.6337    0.0000 C   0  0  0  0  0  0  0  0  0  0  0  0
    1.7282    6.6129    0.0000 C   0  0  0  0  0  0  0  0  0  0  0  0
    1.7282    7.6545    0.0000 C   0  0  0  0  0  0  0  0  0  0  0  0
   13.0545    5.1337    0.0000 C   0  0  0  0  0  0  0  0  0  0  0  0
    0.8641    8.1578    0.0000 C   0  0  0  0  0  0  0  0  0  0  0  0
   13.9205    4.6337    0.0000 C   0  0  0  0  0  0  0  0  0  0  0  0
   14.7865    5.1337    0.0000 C   0  0  0  0  0  0  0  0  0  0  0  0
   13.9205    3.6337    0.0000 C   0  0  0  0  0  0  0  0  0  0  0  0
   15.6525    4.6337    0.0000 C   0  0  0  0  0  0  0  0  0  0  0  0
   14.7865    3.1337    0.0000 C   0  0  0  0  0  0  0  0  0  0  0  0
   15.6525    3.6337    0.0000 C   0  0  0  0  0  0  0  0  0  0  0  0
   17.3846    5.6337    0.0000 C   0  0  0  0  0  0  0  0  0  0  0  0
    7.3214    5.8237    0.0000 H   0  0  0  0  0  0  0  0  0  0  0  0
    9.1229    7.1086    0.0000 H   0  0  0  0  0  0  0  0  0  0  0  0
    8.3258    7.1086    0.0000 H   0  0  0  0  0  0  0  0  0  0  0  0
    7.2477    5.2414    0.0000 H   0  0  0  0  0  0  0  0  0  0  0  0
    7.6463    4.5511    0.0000 H   0  0  0  0  0  0  0  0  0  0  0  0
   10.1273    5.4437    0.0000 H   0  0  0  0  0  0  0  0  0  0  0  0
   10.2010    6.0260    0.0000 H   0  0  0  0  0  0  0  0  0  0  0  0
    9.8024    6.7163    0.0000 H   0  0  0  0  0  0  0  0  0  0  0  0
    8.3258    4.1588    0.0000 H   0  0  0  0  0  0  0  0  0  0  0  0
    9.1229    4.1588    0.0000 H   0  0  0  0  0  0  0  0  0  0  0  0
    7.3908    7.1086    0.0000 H   0  0  0  0  0  0  0  0  0  0  0  0
    6.5938    7.1086    0.0000 H   0  0  0  0  0  0  0  0  0  0  0  0
    5.7277    5.6588    0.0000 H   0  0  0  0  0  0  0  0  0  0  0  0
    6.5248    5.6588    0.0000 H   0  0  0  0  0  0  0  0  0  0  0  0
   10.4564    4.0137    0.0000 H   0  0  0  0  0  0  0  0  0  0  0  0
    5.8708    7.5260    0.0000 H   0  0  0  0  0  0  0  0  0  0  0  0
    5.4723    8.2163    0.0000 H   0  0  0  0  0  0  0  0  0  0  0  0
    3.9957    5.6588    0.0000 H   0  0  0  0  0  0  0  0  0  0  0  0
    4.7928    5.6588    0.0000 H   0  0  0  0  0  0  0  0  0  0  0  0
    4.7928    8.6086    0.0000 H   0  0  0  0  0  0  0  0  0  0  0  0
    3.9957    8.6086    0.0000 H   0  0  0  0  0  0  0  0  0  0  0  0
    2.6414    5.4791    0.0000 H   0  0  0  0  0  0  0  0  0  0  0  0
    2.6414    8.7883    0.0000 H   0  0  0  0  0  0  0  0  0  0  0  0
   12.1884    4.0137    0.0000 H   0  0  0  0  0  0  0  0  0  0  0  0
    1.1924    6.3008    0.0000 H   0  0  0  0  0  0  0  0  0  0  0  0
   13.0545    5.7537    0.0000 H   0  0  0  0  0  0  0  0  0  0  0  0
   14.7865    5.7537    0.0000 H   0  0  0  0  0  0  0  0  0  0  0  0
   13.3836    3.3237    0.0000 H   0  0  0  0  0  0  0  0  0  0  0  0
   14.7865    2.5137    0.0000 H   0  0  0  0  0  0  0  0  0  0  0  0
   16.1895    3.3237    0.0000 H   0  0  0  0  0  0  0  0  0  0  0  0
   17.6946    5.0968    0.0000 H   0  0  0  0  0  0  0  0  0  0  0  0
   17.9215    5.9437    0.0000 H   0  0  0  0  0  0  0  0  0  0  0  0
   17.0746    6.1706    0.0000 H   0  0  0  0  0  0  0  0  0  0  0  0
    9.4608    0.0000    0.0000 H   0  0  0  0  0  0  0  0  0  0  0  0
  1 70  1  0  0  0  0
  2  4  2  0  0  0  0
  2  5  2  0  0  0  0
  2 33  1  0  0  0  0
  2 36  1  0  0  0  0
  3 22  2  0  0  0  0
  6 16  1  0  0  0  0
  6 17  1  0  0  0  0
  6 18  1  0  0  0  0
  7 12  1  0  0  0  0
  7 22  1  0  0  0  0
  7 51  1  0  0  0  0
  8 29  3  0  0  0  0
  9 10  1  0  0  0  0
  9 11  1  0  0  0  0
  9 15  1  0  0  0  0
  9 37  1  0  0  0  0
 10 13  1  0  0  0  0
 10 38  1  0  0  0  0
 10 39  1  0  0  0  0
 11 14  1  0  0  0  0
 11 40  1  0  0  0  0
 11 41  1  0  0  0  0
 12 13  1  0  0  0  0
 12 14  1  0  0  0  0
 12 42  1  0  0  0  0
 13 43  1  0  0  0  0
 13 44  1  0  0  0  0
 14 45  1  0  0  0  0
 14 46  1  0  0  0  0
 15 16  1  0  0  0  0
 15 47  1  0  0  0  0
 15 48  1  0  0  0  0
 16 49  1  0  0  0  0
 16 50  1  0  0  0  0
 17 19  1  0  0  0  0
 17 52  1  0  0  0  0
 17 53  1  0  0  0  0
 18 20  1  0  0  0  0
 18 54  1  0  0  0  0
 18 55  1  0  0  0  0
 19 21  1  0  0  0  0
 19 56  1  0  0  0  0
 19 57  1  0  0  0  0
 20 21  2  0  0  0  0
 20 23  1  0  0  0  0
 21 24  1  0  0  0  0
 22 25  1  0  0  0  0
 23 26  2  0  0  0  0
 23 58  1  0  0  0  0
 24 27  2  0  0  0  0
 24 59  1  0  0  0  0
 25 28  2  0  0  0  0
 25 60  1  0  0  0  0
 26 27  1  0  0  0  0
 26 61  1  0  0  0  0
 27 29  1  0  0  0  0
 28 30  1  0  0  0  0
 28 62  1  0  0  0  0
 30 31  2  0  0  0  0
 30 32  1  0  0  0  0
 31 33  1  0  0  0  0
 31 63  1  0  0  0  0
 32 34  2  0  0  0  0
 32 64  1  0  0  0  0
 33 35  2  0  0  0  0
 34 35  1  0  0  0  0
 34 65  1  0  0  0  0
 35 66  1  0  0  0  0
 36 67  1  0  0  0  0
 36 68  1  0  0  0  0
 36 69  1  0  0  0  0
M  END
> <PUBCHEM_COMPOUND_CID>
45260417

> <PUBCHEM_COMPOUND_CANONICALIZED>
1

> <PUBCHEM_CACTVS_COMPLEXITY>
894

> <PUBCHEM_CACTVS_HBOND_ACCEPTOR>
5

> <PUBCHEM_CACTVS_HBOND_DONOR>
2

> <PUBCHEM_CACTVS_ROTATABLE_BOND>
7

> <PUBCHEM_CACTVS_SUBSKEYS>
AAADcfB7MABEAAAAAAAAAAAAAAAAAAAAAAA8YMEAAAAAAACxQAAAHgQQAAAADSjB2ASyAYPAAAqYBiFSEHDiAAAgCBAIiJgIBMgIoCKgkRGEIAhglgCIiY8QgMAOwAACgAAQAACQAAUAACAAAAAAAAAAAA==

> <PUBCHEM_IUPAC_OPENEYE_NAME>
(E)-N-[4-[2-(6-cyano-3,4-dihydro-1H-isoquinolin-2-yl)ethyl]cyclohexyl]-3-(3-methylsulfonylphenyl)prop-2-enamide;hydrochloride

> <PUBCHEM_IUPAC_CAS_NAME>
(E)-N-[4-[2-(6-cyano-3,4-dihydro-1H-isoquinolin-2-yl)ethyl]cyclohexyl]-3-(3-methylsulfonylphenyl)-2-propenamide;hydrochloride

> <PUBCHEM_IUPAC_NAME_MARKUP>
(<I>E</I>)-<I>N</I>-[4-[2-(6-cyano-3,4-dihydro-1<I>H</I>-isoquinolin-2-yl)ethyl]cyclohexyl]-3-(3-methylsulfonylphenyl)prop-2-enamide;hydrochloride

> <PUBCHEM_IUPAC_NAME>
(E)-N-[4-[2-(6-cyano-3,4-dihydro-1H-isoquinolin-2-yl)ethyl]cyclohexyl]-3-(3-methylsulfonylphenyl)prop-2-enamide;hydrochloride

> <PUBCHEM_IUPAC_SYSTEMATIC_NAME>
(E)-N-[4-[2-(6-cyano-3,4-dihydro-1H-isoquinolin-2-yl)ethyl]cyclohexyl]-3-(3-methylsulfonylphenyl)prop-2-enamide;hydrochloride

> <PUBCHEM_IUPAC_TRADITIONAL_NAME>
(E)-N-[4-[2-(6-cyano-3,4-dihydro-1H-isoquinolin-2-yl)ethyl]cyclohexyl]-3-(3-mesylphenyl)acrylamide;hydrochloride

> <PUBCHEM_IUPAC_INCHI>
InChI=1S/C28H33N3O3S.ClH/c1-35(33,34)27-4-2-3-22(18-27)8-12-28(32)30-26-10-6-21(7-11-26)13-15-31-16-14-24-17-23(19-29)5-9-25(24)20-31;/h2-5,8-9,12,17-18,21,26H,6-7,10-11,13-16,20H2,1H3,(H,30,32);1H/b12-8+;

> <PUBCHEM_IUPAC_INCHIKEY>
AWMRZHJPWZALJK-MXZHIVQLSA-N

> <PUBCHEM_EXACT_MASS>
527.2009408

> <PUBCHEM_MOLECULAR_FORMULA>
C28H34ClN3O3S

> <PUBCHEM_MOLECULAR_WEIGHT>
528.1

> <PUBCHEM_OPENEYE_CAN_SMILES>
CS(=O)(=O)C1=CC=CC(=C1)C=CC(=O)NC2CCC(CC2)CCN3CCC4=C(C3)C=CC(=C4)C#N.Cl

> <PUBCHEM_OPENEYE_ISO_SMILES>
CS(=O)(=O)C1=CC=CC(=C1)/C=C/C(=O)NC2CCC(CC2)CCN3CCC4=C(C3)C=CC(=C4)C#N.Cl

> <PUBCHEM_CACTVS_TPSA>
98.6

> <PUBCHEM_MONOISOTOPIC_WEIGHT>
527.2009408

> <PUBCHEM_TOTAL_CHARGE>
0

> <PUBCHEM_HEAVY_ATOM_COUNT>
36

> <PUBCHEM_ATOM_DEF_STEREO_COUNT>
0

> <PUBCHEM_ATOM_UDEF_STEREO_COUNT>
0

> <PUBCHEM_BOND_DEF_STEREO_COUNT>
1

> <PUBCHEM_BOND_UDEF_STEREO_COUNT>
0

> <PUBCHEM_ISOTOPIC_ATOM_COUNT>
0

> <PUBCHEM_COMPONENT_COUNT>
2

> <PUBCHEM_CACTVS_TAUTO_COUNT>
-1

> <PUBCHEM_COORDINATE_TYPE>
1
5
255

> <PUBCHEM_BONDANNOTATIONS>
20  21  8
20  23  8
21  24  8
23  26  8
24  27  8
26  27  8
30  31  8
30  32  8
31  33  8
32  34  8
33  35  8
34  35  8

$$$$
