44297665
  -OEChem-09292322222D

 64 67  0     1  0  0  0  0  0999 V2000
    3.7320    0.2564    0.0000 S   0  0  0  0  0  0  0  0  0  0  0  0
    2.0000    1.2564    0.0000 F   0  0  0  0  0  0  0  0  0  0  0  0
    2.3660   -0.1096    0.0000 F   0  0  0  0  0  0  0  0  0  0  0  0
    3.3660    1.6224    0.0000 F   0  0  0  0  0  0  0  0  0  0  0  0
    4.5981   -0.2436    0.0000 O   0  0  0  0  0  0  0  0  0  0  0  0
   14.1961    1.2156    0.0000 O   0  0  0  0  0  0  0  0  0  0  0  0
    3.2320   -0.6096    0.0000 O   0  0  0  0  0  0  0  0  0  0  0  0
    4.2320    1.1224    0.0000 O   0  0  0  0  0  0  0  0  0  0  0  0
    8.9962    0.2356    0.0000 N   0  0  3  0  0  0  0  0  0  0  0  0
   13.3243   -0.2811    0.0000 N   0  0  0  0  0  0  0  0  0  0  0  0
    8.9962    1.2772    0.0000 C   0  0  0  0  0  0  0  0  0  0  0  0
    8.0901   -0.2782    0.0000 C   0  0  0  0  0  0  0  0  0  0  0  0
    8.0901    1.7911    0.0000 C   0  0  0  0  0  0  0  0  0  0  0  0
    9.8602   -0.2677    0.0000 C   0  0  0  0  0  0  0  0  0  0  0  0
    7.1962    0.2564    0.0000 C   0  0  0  0  0  0  0  0  0  0  0  0
    7.1962    1.2564    0.0000 C   0  0  0  0  0  0  0  0  0  0  0  0
   10.7282    0.2289    0.0000 C   0  0  0  0  0  0  0  0  0  0  0  0
   11.5923   -0.2744    0.0000 C   0  0  0  0  0  0  0  0  0  0  0  0
    6.3301   -0.2436    0.0000 C   0  0  0  0  0  0  0  0  0  0  0  0
    6.3301    1.7564    0.0000 C   0  0  0  0  0  0  0  0  0  0  0  0
    5.4641    0.2564    0.0000 C   0  0  0  0  0  0  0  0  0  0  0  0
   12.4602    0.2223    0.0000 C   0  0  0  0  0  0  0  0  0  0  0  0
    5.4641    1.2564    0.0000 C   0  0  0  0  0  0  0  0  0  0  0  0
   14.1923    0.2156    0.0000 C   0  0  0  0  0  0  0  0  0  0  0  0
   15.0564   -0.2878    0.0000 C   0  0  0  0  0  0  0  0  0  0  0  0
    2.8660    0.7564    0.0000 C   0  0  0  0  0  0  0  0  0  0  0  0
   15.9243    0.2089    0.0000 C   0  0  0  0  0  0  0  0  0  0  0  0
   16.7884   -0.2944    0.0000 C   0  0  0  0  0  0  0  0  0  0  0  0
   15.0525   -1.2878    0.0000 C   0  0  0  0  0  0  0  0  0  0  0  0
   16.7845   -1.2944    0.0000 C   0  0  0  0  0  0  0  0  0  0  0  0
   15.9166   -1.7911    0.0000 C   0  0  0  0  0  0  0  0  0  0  0  0
   17.6564    0.2022    0.0000 C   0  0  0  0  0  0  0  0  0  0  0  0
   18.5204   -0.3011    0.0000 C   0  0  0  0  0  0  0  0  0  0  0  0
   17.6602    1.2022    0.0000 C   0  0  0  0  0  0  0  0  0  0  0  0
   19.3884    0.1955    0.0000 C   0  0  0  0  0  0  0  0  0  0  0  0
   18.5282    1.6989    0.0000 C   0  0  0  0  0  0  0  0  0  0  0  0
   19.3922    1.1955    0.0000 C   0  0  0  0  0  0  0  0  0  0  0  0
    9.6070    1.1711    0.0000 H   0  0  0  0  0  0  0  0  0  0  0  0
    9.2052    1.8609    0.0000 H   0  0  0  0  0  0  0  0  0  0  0  0
    7.6855   -0.7480    0.0000 H   0  0  0  0  0  0  0  0  0  0  0  0
    8.4837   -0.7573    0.0000 H   0  0  0  0  0  0  0  0  0  0  0  0
    8.4837    2.2701    0.0000 H   0  0  0  0  0  0  0  0  0  0  0  0
    7.6855    2.2609    0.0000 H   0  0  0  0  0  0  0  0  0  0  0  0
    9.4599   -0.7411    0.0000 H   0  0  0  0  0  0  0  0  0  0  0  0
   10.2569   -0.7442    0.0000 H   0  0  0  0  0  0  0  0  0  0  0  0
   11.1286    0.7023    0.0000 H   0  0  0  0  0  0  0  0  0  0  0  0
   10.3315    0.7054    0.0000 H   0  0  0  0  0  0  0  0  0  0  0  0
   11.1919   -0.7478    0.0000 H   0  0  0  0  0  0  0  0  0  0  0  0
   11.9890   -0.7509    0.0000 H   0  0  0  0  0  0  0  0  0  0  0  0
    6.3301   -0.8636    0.0000 H   0  0  0  0  0  0  0  0  0  0  0  0
    6.3301    2.3764    0.0000 H   0  0  0  0  0  0  0  0  0  0  0  0
   12.8606    0.6957    0.0000 H   0  0  0  0  0  0  0  0  0  0  0  0
   12.0635    0.6987    0.0000 H   0  0  0  0  0  0  0  0  0  0  0  0
    4.9272    1.5664    0.0000 H   0  0  0  0  0  0  0  0  0  0  0  0
   13.3219   -0.9011    0.0000 H   0  0  0  0  0  0  0  0  0  0  0  0
   15.9267    0.8289    0.0000 H   0  0  0  0  0  0  0  0  0  0  0  0
   14.5144   -1.5957    0.0000 H   0  0  0  0  0  0  0  0  0  0  0  0
   17.3203   -1.6065    0.0000 H   0  0  0  0  0  0  0  0  0  0  0  0
   15.9142   -2.4111    0.0000 H   0  0  0  0  0  0  0  0  0  0  0  0
   18.5181   -0.9211    0.0000 H   0  0  0  0  0  0  0  0  0  0  0  0
   17.1245    1.5143    0.0000 H   0  0  0  0  0  0  0  0  0  0  0  0
   19.9241   -0.1165    0.0000 H   0  0  0  0  0  0  0  0  0  0  0  0
   18.5305    2.3189    0.0000 H   0  0  0  0  0  0  0  0  0  0  0  0
   19.9304    1.5035    0.0000 H   0  0  0  0  0  0  0  0  0  0  0  0
  1  5  1  0  0  0  0
  1  7  2  0  0  0  0
  1  8  2  0  0  0  0
  1 26  1  0  0  0  0
  2 26  1  0  0  0  0
  3 26  1  0  0  0  0
  4 26  1  0  0  0  0
  5 21  1  0  0  0  0
  6 24  2  0  0  0  0
  9 11  1  0  0  0  0
  9 12  1  0  0  0  0
  9 14  1  0  0  0  0
 10 22  1  0  0  0  0
 10 24  1  0  0  0  0
 10 55  1  0  0  0  0
 11 13  1  0  0  0  0
 11 38  1  0  0  0  0
 11 39  1  0  0  0  0
 12 15  1  0  0  0  0
 12 40  1  0  0  0  0
 12 41  1  0  0  0  0
 13 16  1  0  0  0  0
 13 42  1  0  0  0  0
 13 43  1  0  0  0  0
 14 17  1  0  0  0  0
 14 44  1  0  0  0  0
 14 45  1  0  0  0  0
 15 16  2  0  0  0  0
 15 19  1  0  0  0  0
 16 20  1  0  0  0  0
 17 18  1  0  0  0  0
 17 46  1  0  0  0  0
 17 47  1  0  0  0  0
 18 22  1  0  0  0  0
 18 48  1  0  0  0  0
 18 49  1  0  0  0  0
 19 21  2  0  0  0  0
 19 50  1  0  0  0  0
 20 23  2  0  0  0  0
 20 51  1  0  0  0  0
 21 23  1  0  0  0  0
 22 52  1  0  0  0  0
 22 53  1  0  0  0  0
 23 54  1  0  0  0  0
 24 25  1  0  0  0  0
 25 27  1  0  0  0  0
 25 29  2  0  0  0  0
 27 28  2  0  0  0  0
 27 56  1  0  0  0  0
 28 30  1  0  0  0  0
 28 32  1  0  0  0  0
 29 31  1  0  0  0  0
 29 57  1  0  0  0  0
 30 31  2  0  0  0  0
 30 58  1  0  0  0  0
 31 59  1  0  0  0  0
 32 33  2  0  0  0  0
 32 34  1  0  0  0  0
 33 35  1  0  0  0  0
 33 60  1  0  0  0  0
 34 36  2  0  0  0  0
 34 61  1  0  0  0  0
 35 37  2  0  0  0  0
 35 62  1  0  0  0  0
 36 37  1  0  0  0  0
 36 63  1  0  0  0  0
 37 64  1  0  0  0  0
M  END
> <PUBCHEM_COMPOUND_CID>
44297665

> <PUBCHEM_COMPOUND_CANONICALIZED>
1

> <PUBCHEM_CACTVS_COMPLEXITY>
842

> <PUBCHEM_CACTVS_HBOND_ACCEPTOR>
8

> <PUBCHEM_CACTVS_HBOND_DONOR>
1

> <PUBCHEM_CACTVS_ROTATABLE_BOND>
9

> <PUBCHEM_CACTVS_SUBSKEYS>
AAADceB7OYBAAAAAAAAAAAAAAAAAAAAAAAA8YMEAAAAAAACxUAAAHwQQAAAADATBmBQwBoPAAAKIAiFSEHCCAAAkIAAIiIEODMgIJjKAlROEMQhk1hGIiYe4yNCOoAADAAAQAABAAAYAACAAAAAAAAAAAA==

> <PUBCHEM_IUPAC_OPENEYE_NAME>
[2-[4-[(3-phenylbenzoyl)amino]butyl]-3,4-dihydro-1H-isoquinolin-7-yl] trifluoromethanesulfonate

> <PUBCHEM_IUPAC_CAS_NAME>
trifluoromethanesulfonic acid [2-[4-[[oxo-(3-phenylphenyl)methyl]amino]butyl]-3,4-dihydro-1H-isoquinolin-7-yl] ester

> <PUBCHEM_IUPAC_NAME_MARKUP>
[2-[4-[(3-phenylbenzoyl)amino]butyl]-3,4-dihydro-1<I>H</I>-isoquinolin-7-yl] trifluoromethanesulfonate

> <PUBCHEM_IUPAC_NAME>
[2-[4-[(3-phenylbenzoyl)amino]butyl]-3,4-dihydro-1H-isoquinolin-7-yl] trifluoromethanesulfonate

> <PUBCHEM_IUPAC_SYSTEMATIC_NAME>
[2-[4-[(3-phenylphenyl)carbonylamino]butyl]-3,4-dihydro-1H-isoquinolin-7-yl] tris(fluoranyl)methanesulfonate

> <PUBCHEM_IUPAC_TRADITIONAL_NAME>
trifluoromethanesulfonic acid [2-[4-[(3-phenylbenzoyl)amino]butyl]-3,4-dihydro-1H-isoquinolin-7-yl] ester

> <PUBCHEM_IUPAC_INCHI>
InChI=1S/C27H27F3N2O4S/c28-27(29,30)37(34,35)36-25-12-11-21-13-16-32(19-24(21)18-25)15-5-4-14-31-26(33)23-10-6-9-22(17-23)20-7-2-1-3-8-20/h1-3,6-12,17-18H,4-5,13-16,19H2,(H,31,33)

> <PUBCHEM_IUPAC_INCHIKEY>
DIRSMSWHIVFUOZ-UHFFFAOYSA-N

> <PUBCHEM_XLOGP3_AA>
5.9

> <PUBCHEM_EXACT_MASS>
532.16436301

> <PUBCHEM_MOLECULAR_FORMULA>
C27H27F3N2O4S

> <PUBCHEM_MOLECULAR_WEIGHT>
532.6

> <PUBCHEM_OPENEYE_CAN_SMILES>
C1CN(CC2=C1C=CC(=C2)OS(=O)(=O)C(F)(F)F)CCCCNC(=O)C3=CC=CC(=C3)C4=CC=CC=C4

> <PUBCHEM_OPENEYE_ISO_SMILES>
C1CN(CC2=C1C=CC(=C2)OS(=O)(=O)C(F)(F)F)CCCCNC(=O)C3=CC=CC(=C3)C4=CC=CC=C4

> <PUBCHEM_CACTVS_TPSA>
84.1

> <PUBCHEM_MONOISOTOPIC_WEIGHT>
532.16436301

> <PUBCHEM_TOTAL_CHARGE>
0

> <PUBCHEM_HEAVY_ATOM_COUNT>
37

> <PUBCHEM_ATOM_DEF_STEREO_COUNT>
0

> <PUBCHEM_ATOM_UDEF_STEREO_COUNT>
0

> <PUBCHEM_BOND_DEF_STEREO_COUNT>
0

> <PUBCHEM_BOND_UDEF_STEREO_COUNT>
0

> <PUBCHEM_ISOTOPIC_ATOM_COUNT>
0

> <PUBCHEM_COMPONENT_COUNT>
1

> <PUBCHEM_CACTVS_TAUTO_COUNT>
-1

> <PUBCHEM_COORDINATE_TYPE>
1
5
255

> <PUBCHEM_BONDANNOTATIONS>
15  16  8
15  19  8
16  20  8
19  21  8
20  23  8
21  23  8
25  27  8
25  29  8
27  28  8
28  30  8
29  31  8
30  31  8
32  33  8
32  34  8
33  35  8
34  36  8
35  37  8
36  37  8

$$$$
