168281784
  -OEChem-09292322452D

 63 67  0     0  0  0  0  0  0999 V2000
    4.7552   -3.9093    0.0000 O   0  0  0  0  0  0  0  0  0  0  0  0
    5.5981    1.8636    0.0000 N   0  0  0  0  0  0  0  0  0  0  0  0
    5.5981    3.8636    0.0000 N   0  0  0  0  0  0  0  0  0  0  0  0
    3.0000   -3.6364    0.0000 N   0  0  0  0  0  0  0  0  0  0  0  0
    3.5000   -5.1662    0.0000 N   0  0  0  0  0  0  0  0  0  0  0  0
    2.1953   -4.2200    0.0000 N   0  0  0  0  0  0  0  0  0  0  0  0
    6.4641    2.3636    0.0000 C   0  0  0  0  0  0  0  0  0  0  0  0
    4.7320    2.3636    0.0000 C   0  0  0  0  0  0  0  0  0  0  0  0
    6.4641    3.3636    0.0000 C   0  0  0  0  0  0  0  0  0  0  0  0
    4.7320    3.3636    0.0000 C   0  0  0  0  0  0  0  0  0  0  0  0
    5.5981    0.8636    0.0000 C   0  0  0  0  0  0  0  0  0  0  0  0
    4.7320    0.3636    0.0000 C   0  0  0  0  0  0  0  0  0  0  0  0
    4.7320   -0.6364    0.0000 C   0  0  0  0  0  0  0  0  0  0  0  0
    5.5981    4.8636    0.0000 C   0  0  0  0  0  0  0  0  0  0  0  0
    3.8660   -1.1364    0.0000 C   0  0  0  0  0  0  0  0  0  0  0  0
    3.8660   -2.1364    0.0000 C   0  0  0  0  0  0  0  0  0  0  0  0
    6.4641    5.3636    0.0000 C   0  0  0  0  0  0  0  0  0  0  0  0
    4.7320    5.3636    0.0000 C   0  0  0  0  0  0  0  0  0  0  0  0
    3.0000   -2.6364    0.0000 C   0  0  0  0  0  0  0  0  0  0  0  0
    6.4641    6.3636    0.0000 C   0  0  0  0  0  0  0  0  0  0  0  0
    4.7320    6.3636    0.0000 C   0  0  0  0  0  0  0  0  0  0  0  0
    7.3580    4.8290    0.0000 C   0  0  0  0  0  0  0  0  0  0  0  0
    5.5981    6.8636    0.0000 C   0  0  0  0  0  0  0  0  0  0  0  0
    7.3580    6.8983    0.0000 C   0  0  0  0  0  0  0  0  0  0  0  0
    3.8047   -4.2200    0.0000 C   0  0  0  0  0  0  0  0  0  0  0  0
    8.2641    5.3428    0.0000 C   0  0  0  0  0  0  0  0  0  0  0  0
    8.2641    6.3844    0.0000 C   0  0  0  0  0  0  0  0  0  0  0  0
    2.5000   -5.1662    0.0000 C   0  0  0  0  0  0  0  0  0  0  0  0
    4.0000   -6.0322    0.0000 C   0  0  0  0  0  0  0  0  0  0  0  0
    2.0000   -6.0322    0.0000 C   0  0  0  0  0  0  0  0  0  0  0  0
    3.5000   -6.8983    0.0000 C   0  0  0  0  0  0  0  0  0  0  0  0
    2.5000   -6.8983    0.0000 C   0  0  0  0  0  0  0  0  0  0  0  0
    6.6762    1.7810    0.0000 H   0  0  0  0  0  0  0  0  0  0  0  0
    7.0747    2.4713    0.0000 H   0  0  0  0  0  0  0  0  0  0  0  0
    4.1215    2.4713    0.0000 H   0  0  0  0  0  0  0  0  0  0  0  0
    4.5200    1.7810    0.0000 H   0  0  0  0  0  0  0  0  0  0  0  0
    7.0747    3.2560    0.0000 H   0  0  0  0  0  0  0  0  0  0  0  0
    6.6762    3.9462    0.0000 H   0  0  0  0  0  0  0  0  0  0  0  0
    4.5200    3.9462    0.0000 H   0  0  0  0  0  0  0  0  0  0  0  0
    4.1215    3.2560    0.0000 H   0  0  0  0  0  0  0  0  0  0  0  0
    5.8101    0.2810    0.0000 H   0  0  0  0  0  0  0  0  0  0  0  0
    6.2087    0.9713    0.0000 H   0  0  0  0  0  0  0  0  0  0  0  0
    4.5200    0.9462    0.0000 H   0  0  0  0  0  0  0  0  0  0  0  0
    4.1215    0.2559    0.0000 H   0  0  0  0  0  0  0  0  0  0  0  0
    4.9441   -1.2190    0.0000 H   0  0  0  0  0  0  0  0  0  0  0  0
    5.3426   -0.5287    0.0000 H   0  0  0  0  0  0  0  0  0  0  0  0
    3.6540   -0.5538    0.0000 H   0  0  0  0  0  0  0  0  0  0  0  0
    3.2554   -1.2441    0.0000 H   0  0  0  0  0  0  0  0  0  0  0  0
    4.0781   -2.7190    0.0000 H   0  0  0  0  0  0  0  0  0  0  0  0
    4.4766   -2.0287    0.0000 H   0  0  0  0  0  0  0  0  0  0  0  0
    2.7880   -2.0538    0.0000 H   0  0  0  0  0  0  0  0  0  0  0  0
    2.3894   -2.7440    0.0000 H   0  0  0  0  0  0  0  0  0  0  0  0
    4.1951    5.0536    0.0000 H   0  0  0  0  0  0  0  0  0  0  0  0
    7.3509    4.2090    0.0000 H   0  0  0  0  0  0  0  0  0  0  0  0
    4.1951    6.6736    0.0000 H   0  0  0  0  0  0  0  0  0  0  0  0
    5.5981    7.4836    0.0000 H   0  0  0  0  0  0  0  0  0  0  0  0
    7.3509    7.5182    0.0000 H   0  0  0  0  0  0  0  0  0  0  0  0
    8.7998    5.0307    0.0000 H   0  0  0  0  0  0  0  0  0  0  0  0
    8.7998    6.6965    0.0000 H   0  0  0  0  0  0  0  0  0  0  0  0
    4.6200   -6.0322    0.0000 H   0  0  0  0  0  0  0  0  0  0  0  0
    1.3800   -6.0322    0.0000 H   0  0  0  0  0  0  0  0  0  0  0  0
    3.8100   -7.4352    0.0000 H   0  0  0  0  0  0  0  0  0  0  0  0
    2.1900   -7.4352    0.0000 H   0  0  0  0  0  0  0  0  0  0  0  0
  1 25  2  0  0  0  0
  2  7  1  0  0  0  0
  2  8  1  0  0  0  0
  2 11  1  0  0  0  0
  3  9  1  0  0  0  0
  3 10  1  0  0  0  0
  3 14  1  0  0  0  0
  4  6  1  0  0  0  0
  4 19  1  0  0  0  0
  4 25  1  0  0  0  0
  5 25  1  0  0  0  0
  5 28  1  0  0  0  0
  5 29  1  0  0  0  0
  6 28  2  0  0  0  0
  7  9  1  0  0  0  0
  7 33  1  0  0  0  0
  7 34  1  0  0  0  0
  8 10  1  0  0  0  0
  8 35  1  0  0  0  0
  8 36  1  0  0  0  0
  9 37  1  0  0  0  0
  9 38  1  0  0  0  0
 10 39  1  0  0  0  0
 10 40  1  0  0  0  0
 11 12  1  0  0  0  0
 11 41  1  0  0  0  0
 11 42  1  0  0  0  0
 12 13  1  0  0  0  0
 12 43  1  0  0  0  0
 12 44  1  0  0  0  0
 13 15  1  0  0  0  0
 13 45  1  0  0  0  0
 13 46  1  0  0  0  0
 14 17  1  0  0  0  0
 14 18  2  0  0  0  0
 15 16  1  0  0  0  0
 15 47  1  0  0  0  0
 15 48  1  0  0  0  0
 16 19  1  0  0  0  0
 16 49  1  0  0  0  0
 16 50  1  0  0  0  0
 17 20  1  0  0  0  0
 17 22  2  0  0  0  0
 18 21  1  0  0  0  0
 18 53  1  0  0  0  0
 19 51  1  0  0  0  0
 19 52  1  0  0  0  0
 20 23  1  0  0  0  0
 20 24  2  0  0  0  0
 21 23  2  0  0  0  0
 21 55  1  0  0  0  0
 22 26  1  0  0  0  0
 22 54  1  0  0  0  0
 23 56  1  0  0  0  0
 24 27  1  0  0  0  0
 24 57  1  0  0  0  0
 26 27  2  0  0  0  0
 26 58  1  0  0  0  0
 27 59  1  0  0  0  0
 28 30  1  0  0  0  0
 29 31  2  0  0  0  0
 29 60  1  0  0  0  0
 30 32  2  0  0  0  0
 30 61  1  0  0  0  0
 31 32  1  0  0  0  0
 31 62  1  0  0  0  0
 32 63  1  0  0  0  0
M  END
> <PUBCHEM_COMPOUND_CID>
168281784

> <PUBCHEM_COMPOUND_CANONICALIZED>
1

> <PUBCHEM_CACTVS_COMPLEXITY>
739

> <PUBCHEM_CACTVS_HBOND_ACCEPTOR>
4

> <PUBCHEM_CACTVS_HBOND_DONOR>
0

> <PUBCHEM_CACTVS_ROTATABLE_BOND>
8

> <PUBCHEM_CACTVS_SUBSKEYS>
AAADceB7oAAAAAAAAAAAAAAAAAAAAQAAAAA8YIEAAAAAAEDBUAAAHgAIAAAADAjBGAQxwMMAAACoAiZmcACSAAAhAgAfiAAYZJiIYCLAkZGUIAhojgLIyAcQgIAOgAAAQAASAAAAAACAACQAAAAAAAAAAA==

> <PUBCHEM_IUPAC_OPENEYE_NAME>
2-[6-[4-(1-naphthyl)piperazin-1-yl]hexyl]-[1,2,4]triazolo[4,3-a]pyridin-3-one

> <PUBCHEM_IUPAC_CAS_NAME>
2-[6-[4-(1-naphthalenyl)-1-piperazinyl]hexyl]-[1,2,4]triazolo[4,3-a]pyridin-3-one

> <PUBCHEM_IUPAC_NAME_MARKUP>
2-[6-(4-naphthalen-1-ylpiperazin-1-yl)hexyl]-[1,2,4]triazolo[4,3-a]pyridin-3-one

> <PUBCHEM_IUPAC_NAME>
2-[6-(4-naphthalen-1-ylpiperazin-1-yl)hexyl]-[1,2,4]triazolo[4,3-a]pyridin-3-one

> <PUBCHEM_IUPAC_SYSTEMATIC_NAME>
2-[6-(4-naphthalen-1-ylpiperazin-1-yl)hexyl]-[1,2,4]triazolo[4,3-a]pyridin-3-one

> <PUBCHEM_IUPAC_TRADITIONAL_NAME>
2-[6-[4-(1-naphthyl)piperazino]hexyl]-[1,2,4]triazolo[4,3-a]pyridin-3-one

> <PUBCHEM_IUPAC_INCHI>
InChI=1S/C26H31N5O/c32-26-30-16-8-5-14-25(30)27-31(26)17-7-2-1-6-15-28-18-20-29(21-19-28)24-13-9-11-22-10-3-4-12-23(22)24/h3-5,8-14,16H,1-2,6-7,15,17-21H2

> <PUBCHEM_IUPAC_INCHIKEY>
XNSZWIKNBVYPCN-UHFFFAOYSA-N

> <PUBCHEM_XLOGP3_AA>
4.5

> <PUBCHEM_EXACT_MASS>
429.25286063

> <PUBCHEM_MOLECULAR_FORMULA>
C26H31N5O

> <PUBCHEM_MOLECULAR_WEIGHT>
429.6

> <PUBCHEM_OPENEYE_CAN_SMILES>
C1CN(CCN1CCCCCCN2C(=O)N3C=CC=CC3=N2)C4=CC=CC5=CC=CC=C54

> <PUBCHEM_OPENEYE_ISO_SMILES>
C1CN(CCN1CCCCCCN2C(=O)N3C=CC=CC3=N2)C4=CC=CC5=CC=CC=C54

> <PUBCHEM_CACTVS_TPSA>
42.4

> <PUBCHEM_MONOISOTOPIC_WEIGHT>
429.25286063

> <PUBCHEM_TOTAL_CHARGE>
0

> <PUBCHEM_HEAVY_ATOM_COUNT>
32

> <PUBCHEM_ATOM_DEF_STEREO_COUNT>
0

> <PUBCHEM_ATOM_UDEF_STEREO_COUNT>
0

> <PUBCHEM_BOND_DEF_STEREO_COUNT>
0

> <PUBCHEM_BOND_UDEF_STEREO_COUNT>
0

> <PUBCHEM_ISOTOPIC_ATOM_COUNT>
0

> <PUBCHEM_COMPONENT_COUNT>
1

> <PUBCHEM_CACTVS_TAUTO_COUNT>
-1

> <PUBCHEM_COORDINATE_TYPE>
1
5
255

> <PUBCHEM_BONDANNOTATIONS>
14  17  8
14  18  8
17  20  8
17  22  8
18  21  8
20  23  8
20  24  8
21  23  8
22  26  8
24  27  8
26  27  8
28  30  8
29  31  8
30  32  8
31  32  8
4  25  8
4  6  8
5  25  8
5  28  8
5  29  8
6  28  8

$$$$
