155561865
  -OEChem-09292322462D

 46 49  0     0  0  0  0  0  0999 V2000
    5.8550   -2.4611    0.0000 S   0  0  0  0  0  0  0  0  0  0  0  0
    2.0000    0.2942    0.0000 F   0  0  0  0  0  0  0  0  0  0  0  0
    6.8055   -2.1504    0.0000 O   0  0  0  0  0  0  0  0  0  0  0  0
    4.9044   -2.7717    0.0000 O   0  0  0  0  0  0  0  0  0  0  0  0
    7.1986    4.1514    0.0000 O   0  0  0  0  0  0  0  0  0  0  0  0
    5.5443   -1.5106    0.0000 N   0  0  0  0  0  0  0  0  0  0  0  0
    6.8083    2.3568    0.0000 N   0  0  0  0  0  0  0  0  0  0  0  0
    5.2686    1.8595    0.0000 N   0  0  0  0  0  0  0  0  0  0  0  0
    5.5504    3.6191    0.0000 N   0  0  0  0  0  0  0  0  0  0  0  0
    4.5981   -1.2058    0.0000 C   0  0  0  0  0  0  0  0  0  0  0  0
    5.5443    0.0989    0.0000 C   0  0  0  0  0  0  0  0  0  0  0  0
    4.5981   -0.2058    0.0000 C   0  0  0  0  0  0  0  0  0  0  0  0
    6.1279   -0.7058    0.0000 C   0  0  0  0  0  0  0  0  0  0  0  0
    5.8550    1.0494    0.0000 C   0  0  0  0  0  0  0  0  0  0  0  0
    3.7320   -1.7058    0.0000 C   0  0  0  0  0  0  0  0  0  0  0  0
    3.7320    0.2942    0.0000 C   0  0  0  0  0  0  0  0  0  0  0  0
    6.8066    1.3568    0.0000 C   0  0  0  0  0  0  0  0  0  0  0  0
    6.1656   -3.4116    0.0000 C   0  0  0  0  0  0  0  0  0  0  0  0
    2.8660   -1.2058    0.0000 C   0  0  0  0  0  0  0  0  0  0  0  0
    2.8660   -0.2058    0.0000 C   0  0  0  0  0  0  0  0  0  0  0  0
    5.8578    2.6675    0.0000 C   0  0  0  0  0  0  0  0  0  0  0  0
    7.6146    0.7676    0.0000 C   0  0  0  0  0  0  0  0  0  0  0  0
    7.1441   -3.6178    0.0000 C   0  0  0  0  0  0  0  0  0  0  0  0
    5.4978   -4.1559    0.0000 C   0  0  0  0  0  0  0  0  0  0  0  0
    7.4548   -4.5683    0.0000 C   0  0  0  0  0  0  0  0  0  0  0  0
    5.8084   -5.1064    0.0000 C   0  0  0  0  0  0  0  0  0  0  0  0
    6.7870   -5.3126    0.0000 C   0  0  0  0  0  0  0  0  0  0  0  0
    6.2208    4.3610    0.0000 C   0  0  0  0  0  0  0  0  0  0  0  0
    5.9134    5.3126    0.0000 C   0  0  0  0  0  0  0  0  0  0  0  0
    6.7479   -0.7058    0.0000 H   0  0  0  0  0  0  0  0  0  0  0  0
    3.7320   -2.3258    0.0000 H   0  0  0  0  0  0  0  0  0  0  0  0
    3.7320    0.9142    0.0000 H   0  0  0  0  0  0  0  0  0  0  0  0
    2.3291   -1.5158    0.0000 H   0  0  0  0  0  0  0  0  0  0  0  0
    7.3105    2.7204    0.0000 H   0  0  0  0  0  0  0  0  0  0  0  0
    7.2492    0.2667    0.0000 H   0  0  0  0  0  0  0  0  0  0  0  0
    8.1155    0.4023    0.0000 H   0  0  0  0  0  0  0  0  0  0  0  0
    7.9798    1.2686    0.0000 H   0  0  0  0  0  0  0  0  0  0  0  0
    7.5582   -3.1563    0.0000 H   0  0  0  0  0  0  0  0  0  0  0  0
    4.8911   -4.0280    0.0000 H   0  0  0  0  0  0  0  0  0  0  0  0
    4.9442    3.7490    0.0000 H   0  0  0  0  0  0  0  0  0  0  0  0
    8.0615   -4.6962    0.0000 H   0  0  0  0  0  0  0  0  0  0  0  0
    5.3944   -5.5679    0.0000 H   0  0  0  0  0  0  0  0  0  0  0  0
    6.9796   -5.9020    0.0000 H   0  0  0  0  0  0  0  0  0  0  0  0
    6.5034    5.5032    0.0000 H   0  0  0  0  0  0  0  0  0  0  0  0
    5.7229    5.9026    0.0000 H   0  0  0  0  0  0  0  0  0  0  0  0
    5.3234    5.1221    0.0000 H   0  0  0  0  0  0  0  0  0  0  0  0
  1  3  2  0  0  0  0
  1  4  2  0  0  0  0
  1  6  1  0  0  0  0
  1 18  1  0  0  0  0
  2 20  1  0  0  0  0
  5 28  2  0  0  0  0
  6 10  1  0  0  0  0
  6 13  1  0  0  0  0
  7 17  1  0  0  0  0
  7 21  1  0  0  0  0
  7 34  1  0  0  0  0
  8 14  1  0  0  0  0
  8 21  2  0  0  0  0
  9 21  1  0  0  0  0
  9 28  1  0  0  0  0
  9 40  1  0  0  0  0
 10 12  2  0  0  0  0
 10 15  1  0  0  0  0
 11 12  1  0  0  0  0
 11 13  2  0  0  0  0
 11 14  1  0  0  0  0
 12 16  1  0  0  0  0
 13 30  1  0  0  0  0
 14 17  2  0  0  0  0
 15 19  2  0  0  0  0
 15 31  1  0  0  0  0
 16 20  2  0  0  0  0
 16 32  1  0  0  0  0
 17 22  1  0  0  0  0
 18 23  2  0  0  0  0
 18 24  1  0  0  0  0
 19 20  1  0  0  0  0
 19 33  1  0  0  0  0
 22 35  1  0  0  0  0
 22 36  1  0  0  0  0
 22 37  1  0  0  0  0
 23 25  1  0  0  0  0
 23 38  1  0  0  0  0
 24 26  2  0  0  0  0
 24 39  1  0  0  0  0
 25 27  2  0  0  0  0
 25 41  1  0  0  0  0
 26 27  1  0  0  0  0
 26 42  1  0  0  0  0
 27 43  1  0  0  0  0
 28 29  1  0  0  0  0
 29 44  1  0  0  0  0
 29 45  1  0  0  0  0
 29 46  1  0  0  0  0
M  END
> <PUBCHEM_COMPOUND_CID>
155561865

> <PUBCHEM_COMPOUND_CANONICALIZED>
1

> <PUBCHEM_CACTVS_COMPLEXITY>
709

> <PUBCHEM_CACTVS_HBOND_ACCEPTOR>
5

> <PUBCHEM_CACTVS_HBOND_DONOR>
2

> <PUBCHEM_CACTVS_ROTATABLE_BOND>
4

> <PUBCHEM_CACTVS_SUBSKEYS>
AAADceB7sQBAAAAAAAAAAAAAAAAAAWLAAAAwYAAAAAAAAFgB/AAAHwQQQAAADAjB3gw/0fbJkAKoAzV3dHDCgD2xEqAJ2Tg4dJiIaOLA2ZGUIAhokQLIyCcQgMAOgAAAAAACAAAAAAAAAAQAAAAAAAAAAA==

> <PUBCHEM_IUPAC_OPENEYE_NAME>
N-[4-[1-(benzenesulfonyl)-5-fluoro-indol-3-yl]-5-methyl-1H-imidazol-2-yl]acetamide

> <PUBCHEM_IUPAC_CAS_NAME>
N-[4-[1-(benzenesulfonyl)-5-fluoro-3-indolyl]-5-methyl-1H-imidazol-2-yl]acetamide

> <PUBCHEM_IUPAC_NAME_MARKUP>
<I>N</I>-[4-[1-(benzenesulfonyl)-5-fluoroindol-3-yl]-5-methyl-1<I>H</I>-imidazol-2-yl]acetamide

> <PUBCHEM_IUPAC_NAME>
N-[4-[1-(benzenesulfonyl)-5-fluoroindol-3-yl]-5-methyl-1H-imidazol-2-yl]acetamide

> <PUBCHEM_IUPAC_SYSTEMATIC_NAME>
N-[4-[5-fluoranyl-1-(phenylsulfonyl)indol-3-yl]-5-methyl-1H-imidazol-2-yl]ethanamide

> <PUBCHEM_IUPAC_TRADITIONAL_NAME>
N-[4-(1-besyl-5-fluoro-indol-3-yl)-5-methyl-1H-imidazol-2-yl]acetamide

> <PUBCHEM_IUPAC_INCHI>
InChI=1S/C20H17FN4O3S/c1-12-19(24-20(22-12)23-13(2)26)17-11-25(18-9-8-14(21)10-16(17)18)29(27,28)15-6-4-3-5-7-15/h3-11H,1-2H3,(H2,22,23,24,26)

> <PUBCHEM_IUPAC_INCHIKEY>
AGBGFWNSUFXEPK-UHFFFAOYSA-N

> <PUBCHEM_XLOGP3_AA>
3

> <PUBCHEM_EXACT_MASS>
412.10053975

> <PUBCHEM_MOLECULAR_FORMULA>
C20H17FN4O3S

> <PUBCHEM_MOLECULAR_WEIGHT>
412.4

> <PUBCHEM_OPENEYE_CAN_SMILES>
CC1=C(N=C(N1)NC(=O)C)C2=CN(C3=C2C=C(C=C3)F)S(=O)(=O)C4=CC=CC=C4

> <PUBCHEM_OPENEYE_ISO_SMILES>
CC1=C(N=C(N1)NC(=O)C)C2=CN(C3=C2C=C(C=C3)F)S(=O)(=O)C4=CC=CC=C4

> <PUBCHEM_CACTVS_TPSA>
105

> <PUBCHEM_MONOISOTOPIC_WEIGHT>
412.10053975

> <PUBCHEM_TOTAL_CHARGE>
0

> <PUBCHEM_HEAVY_ATOM_COUNT>
29

> <PUBCHEM_ATOM_DEF_STEREO_COUNT>
0

> <PUBCHEM_ATOM_UDEF_STEREO_COUNT>
0

> <PUBCHEM_BOND_DEF_STEREO_COUNT>
0

> <PUBCHEM_BOND_UDEF_STEREO_COUNT>
0

> <PUBCHEM_ISOTOPIC_ATOM_COUNT>
0

> <PUBCHEM_COMPONENT_COUNT>
1

> <PUBCHEM_CACTVS_TAUTO_COUNT>
-1

> <PUBCHEM_COORDINATE_TYPE>
1
5
255

> <PUBCHEM_BONDANNOTATIONS>
10  12  8
10  15  8
11  12  8
11  13  8
12  16  8
14  17  8
15  19  8
16  20  8
18  23  8
18  24  8
19  20  8
23  25  8
24  26  8
25  27  8
26  27  8
6  10  8
6  13  8
7  17  8
7  21  8
8  14  8
8  21  8

$$$$
