145978208
  -OEChem-09292322052D

 61 65  0     0  0  0  0  0  0999 V2000
    4.6783   -5.9892    0.0000 S   0  0  0  0  0  0  0  0  0  0  0  0
    8.4993    1.7358    0.0000 O   0  0  0  0  0  0  0  0  0  0  0  0
   10.4097    4.7936    0.0000 O   0  0  0  0  0  0  0  0  0  0  0  0
    5.6103   -1.5282    0.0000 N   0  0  0  0  0  0  0  0  0  0  0  0
   12.0561    4.2555    0.0000 N   0  0  0  0  0  0  0  0  0  0  0  0
    4.9889   -3.4292    0.0000 N   0  0  0  0  0  0  0  0  0  0  0  0
    5.2619   -5.1845    0.0000 N   0  0  0  0  0  0  0  0  0  0  0  0
   11.4348    2.3544    0.0000 N   0  0  0  0  0  0  0  0  0  0  0  0
   12.3668    5.2060    0.0000 C   0  0  0  0  0  0  0  0  0  0  0  0
   13.1111    5.8738    0.0000 C   0  0  0  0  0  0  0  0  0  0  0  0
   12.1605    6.1845    0.0000 C   0  0  0  0  0  0  0  0  0  0  0  0
    4.6318   -1.7344    0.0000 C   0  0  0  0  0  0  0  0  0  0  0  0
    6.2781   -2.2725    0.0000 C   0  0  0  0  0  0  0  0  0  0  0  0
    4.3211   -2.6850    0.0000 C   0  0  0  0  0  0  0  0  0  0  0  0
    5.9674   -3.2230    0.0000 C   0  0  0  0  0  0  0  0  0  0  0  0
    5.9209   -0.5777    0.0000 C   0  0  0  0  0  0  0  0  0  0  0  0
    6.8994   -0.3715    0.0000 C   0  0  0  0  0  0  0  0  0  0  0  0
    4.6783   -4.3798    0.0000 C   0  0  0  0  0  0  0  0  0  0  0  0
   11.0776    4.0493    0.0000 C   0  0  0  0  0  0  0  0  0  0  0  0
    7.2101    0.5790    0.0000 C   0  0  0  0  0  0  0  0  0  0  0  0
    3.7320   -4.6845    0.0000 C   0  0  0  0  0  0  0  0  0  0  0  0
    8.1886    0.7853    0.0000 C   0  0  0  0  0  0  0  0  0  0  0  0
   10.7669    3.0987    0.0000 C   0  0  0  0  0  0  0  0  0  0  0  0
    3.7320   -5.6845    0.0000 C   0  0  0  0  0  0  0  0  0  0  0  0
    2.8660   -4.1845    0.0000 C   0  0  0  0  0  0  0  0  0  0  0  0
    9.7884    2.8925    0.0000 C   0  0  0  0  0  0  0  0  0  0  0  0
    9.4778    1.9420    0.0000 C   0  0  0  0  0  0  0  0  0  0  0  0
    2.8660   -6.1845    0.0000 C   0  0  0  0  0  0  0  0  0  0  0  0
    2.0000   -4.6845    0.0000 C   0  0  0  0  0  0  0  0  0  0  0  0
    2.0000   -5.6845    0.0000 C   0  0  0  0  0  0  0  0  0  0  0  0
   10.1456    1.1977    0.0000 C   0  0  0  0  0  0  0  0  0  0  0  0
   11.1241    1.4039    0.0000 C   0  0  0  0  0  0  0  0  0  0  0  0
   11.7477    5.2395    0.0000 H   0  0  0  0  0  0  0  0  0  0  0  0
   13.5990    5.4913    0.0000 H   0  0  0  0  0  0  0  0  0  0  0  0
   13.4031    6.4208    0.0000 H   0  0  0  0  0  0  0  0  0  0  0  0
   12.2479    6.7983    0.0000 H   0  0  0  0  0  0  0  0  0  0  0  0
   11.5409    6.1639    0.0000 H   0  0  0  0  0  0  0  0  0  0  0  0
   12.4702    3.7940    0.0000 H   0  0  0  0  0  0  0  0  0  0  0  0
    4.6112   -1.1148    0.0000 H   0  0  0  0  0  0  0  0  0  0  0  0
    4.0179   -1.6471    0.0000 H   0  0  0  0  0  0  0  0  0  0  0  0
    6.8250   -2.5645    0.0000 H   0  0  0  0  0  0  0  0  0  0  0  0
    6.6607   -1.7846    0.0000 H   0  0  0  0  0  0  0  0  0  0  0  0
    3.7742   -2.3929    0.0000 H   0  0  0  0  0  0  0  0  0  0  0  0
    3.9385   -3.1729    0.0000 H   0  0  0  0  0  0  0  0  0  0  0  0
    5.9880   -3.8427    0.0000 H   0  0  0  0  0  0  0  0  0  0  0  0
    6.5812   -3.3104    0.0000 H   0  0  0  0  0  0  0  0  0  0  0  0
    5.9004    0.0420    0.0000 H   0  0  0  0  0  0  0  0  0  0  0  0
    5.3071   -0.4903    0.0000 H   0  0  0  0  0  0  0  0  0  0  0  0
    6.9200   -0.9911    0.0000 H   0  0  0  0  0  0  0  0  0  0  0  0
    7.5132   -0.4588    0.0000 H   0  0  0  0  0  0  0  0  0  0  0  0
    7.1895    1.1987    0.0000 H   0  0  0  0  0  0  0  0  0  0  0  0
    6.5963    0.6664    0.0000 H   0  0  0  0  0  0  0  0  0  0  0  0
    8.2092    0.1656    0.0000 H   0  0  0  0  0  0  0  0  0  0  0  0
    8.8024    0.6979    0.0000 H   0  0  0  0  0  0  0  0  0  0  0  0
    2.8660   -3.5645    0.0000 H   0  0  0  0  0  0  0  0  0  0  0  0
    9.3744    3.3540    0.0000 H   0  0  0  0  0  0  0  0  0  0  0  0
    2.8660   -6.8045    0.0000 H   0  0  0  0  0  0  0  0  0  0  0  0
    1.4631   -4.3745    0.0000 H   0  0  0  0  0  0  0  0  0  0  0  0
    1.4631   -5.9945    0.0000 H   0  0  0  0  0  0  0  0  0  0  0  0
    9.9530    0.6084    0.0000 H   0  0  0  0  0  0  0  0  0  0  0  0
   11.5382    0.9425    0.0000 H   0  0  0  0  0  0  0  0  0  0  0  0
  1  7  1  0  0  0  0
  1 24  1  0  0  0  0
  2 22  1  0  0  0  0
  2 27  1  0  0  0  0
  3 19  2  0  0  0  0
  4 12  1  0  0  0  0
  4 13  1  0  0  0  0
  4 16  1  0  0  0  0
  5  9  1  0  0  0  0
  5 19  1  0  0  0  0
  5 38  1  0  0  0  0
  6 14  1  0  0  0  0
  6 15  1  0  0  0  0
  6 18  1  0  0  0  0
  7 18  2  0  0  0  0
  8 23  2  0  0  0  0
  8 32  1  0  0  0  0
  9 10  1  0  0  0  0
  9 11  1  0  0  0  0
  9 33  1  0  0  0  0
 10 11  1  0  0  0  0
 10 34  1  0  0  0  0
 10 35  1  0  0  0  0
 11 36  1  0  0  0  0
 11 37  1  0  0  0  0
 12 14  1  0  0  0  0
 12 39  1  0  0  0  0
 12 40  1  0  0  0  0
 13 15  1  0  0  0  0
 13 41  1  0  0  0  0
 13 42  1  0  0  0  0
 14 43  1  0  0  0  0
 14 44  1  0  0  0  0
 15 45  1  0  0  0  0
 15 46  1  0  0  0  0
 16 17  1  0  0  0  0
 16 47  1  0  0  0  0
 16 48  1  0  0  0  0
 17 20  1  0  0  0  0
 17 49  1  0  0  0  0
 17 50  1  0  0  0  0
 18 21  1  0  0  0  0
 19 23  1  0  0  0  0
 20 22  1  0  0  0  0
 20 51  1  0  0  0  0
 20 52  1  0  0  0  0
 21 24  1  0  0  0  0
 21 25  2  0  0  0  0
 22 53  1  0  0  0  0
 22 54  1  0  0  0  0
 23 26  1  0  0  0  0
 24 28  2  0  0  0  0
 25 29  1  0  0  0  0
 25 55  1  0  0  0  0
 26 27  2  0  0  0  0
 26 56  1  0  0  0  0
 27 31  1  0  0  0  0
 28 30  1  0  0  0  0
 28 57  1  0  0  0  0
 29 30  2  0  0  0  0
 29 58  1  0  0  0  0
 30 59  1  0  0  0  0
 31 32  2  0  0  0  0
 31 60  1  0  0  0  0
 32 61  1  0  0  0  0
M  END
> <PUBCHEM_COMPOUND_CID>
145978208

> <PUBCHEM_COMPOUND_CANONICALIZED>
1

> <PUBCHEM_CACTVS_COMPLEXITY>
613

> <PUBCHEM_CACTVS_HBOND_ACCEPTOR>
7

> <PUBCHEM_CACTVS_HBOND_DONOR>
1

> <PUBCHEM_CACTVS_ROTATABLE_BOND>
9

> <PUBCHEM_CACTVS_SUBSKEYS>
AAADceB7sABAAAAAAAAAAAAAGAAAAWAAAAA8WIAAAAAAAFgB/AAAHgQQQAAADCzh3gY9t9PIFACsAzd3dACDiDA3IiBJ2Lm+bNiMZvLEvbuWOSzmlhrI6Yc6iAAOAAAAAAAEAAAAAAAAAAgAAAAAAAAAAA==

> <PUBCHEM_IUPAC_OPENEYE_NAME>
4-[4-[4-(1,2-benzothiazol-3-yl)piperazin-1-yl]butoxy]-N-cyclopropyl-pyridine-2-carboxamide

> <PUBCHEM_IUPAC_CAS_NAME>
4-[4-[4-(1,2-benzothiazol-3-yl)-1-piperazinyl]butoxy]-N-cyclopropyl-2-pyridinecarboxamide

> <PUBCHEM_IUPAC_NAME_MARKUP>
4-[4-[4-(1,2-benzothiazol-3-yl)piperazin-1-yl]butoxy]-<I>N</I>-cyclopropylpyridine-2-carboxamide

> <PUBCHEM_IUPAC_NAME>
4-[4-[4-(1,2-benzothiazol-3-yl)piperazin-1-yl]butoxy]-N-cyclopropylpyridine-2-carboxamide

> <PUBCHEM_IUPAC_SYSTEMATIC_NAME>
4-[4-[4-(1,2-benzothiazol-3-yl)piperazin-1-yl]butoxy]-N-cyclopropyl-pyridine-2-carboxamide

> <PUBCHEM_IUPAC_TRADITIONAL_NAME>
4-[4-[4-(1,2-benzothiazol-3-yl)piperazino]butoxy]-N-cyclopropyl-picolinamide

> <PUBCHEM_IUPAC_INCHI>
InChI=1S/C24H29N5O2S/c30-24(26-18-7-8-18)21-17-19(9-10-25-21)31-16-4-3-11-28-12-14-29(15-13-28)23-20-5-1-2-6-22(20)32-27-23/h1-2,5-6,9-10,17-18H,3-4,7-8,11-16H2,(H,26,30)

> <PUBCHEM_IUPAC_INCHIKEY>
SLDWPVIBJBOKJE-UHFFFAOYSA-N

> <PUBCHEM_XLOGP3_AA>
4.1

> <PUBCHEM_EXACT_MASS>
451.20419636

> <PUBCHEM_MOLECULAR_FORMULA>
C24H29N5O2S

> <PUBCHEM_MOLECULAR_WEIGHT>
451.6

> <PUBCHEM_OPENEYE_CAN_SMILES>
C1CC1NC(=O)C2=NC=CC(=C2)OCCCCN3CCN(CC3)C4=NSC5=CC=CC=C54

> <PUBCHEM_OPENEYE_ISO_SMILES>
C1CC1NC(=O)C2=NC=CC(=C2)OCCCCN3CCN(CC3)C4=NSC5=CC=CC=C54

> <PUBCHEM_CACTVS_TPSA>
98.8

> <PUBCHEM_MONOISOTOPIC_WEIGHT>
451.20419636

> <PUBCHEM_TOTAL_CHARGE>
0

> <PUBCHEM_HEAVY_ATOM_COUNT>
32

> <PUBCHEM_ATOM_DEF_STEREO_COUNT>
0

> <PUBCHEM_ATOM_UDEF_STEREO_COUNT>
0

> <PUBCHEM_BOND_DEF_STEREO_COUNT>
0

> <PUBCHEM_BOND_UDEF_STEREO_COUNT>
0

> <PUBCHEM_ISOTOPIC_ATOM_COUNT>
0

> <PUBCHEM_COMPONENT_COUNT>
1

> <PUBCHEM_CACTVS_TAUTO_COUNT>
-1

> <PUBCHEM_COORDINATE_TYPE>
1
5
255

> <PUBCHEM_BONDANNOTATIONS>
1  24  8
1  7  8
18  21  8
21  24  8
21  25  8
23  26  8
24  28  8
25  29  8
26  27  8
27  31  8
28  30  8
29  30  8
31  32  8
7  18  8
8  23  8
8  32  8

$$$$
