9870702
  -OEChem-09292322082D

 60 65  0     0  0  0  0  0  0999 V2000
    2.0000   -1.1024    0.0000 Cl  0  0  0  0  0  0  0  0  0  0  0  0
   12.4583   -1.0783    0.0000 O   0  0  0  0  0  0  0  0  0  0  0  0
   15.9224    0.9217    0.0000 N   0  0  0  0  0  0  0  0  0  0  0  0
   16.9973    2.1196    0.0000 N   0  0  0  0  0  0  0  0  0  0  0  0
   18.7872    0.1042    0.0000 N   0  0  0  0  0  0  0  0  0  0  0  0
    5.5301   -1.0783    0.0000 N   0  0  0  0  0  0  0  0  0  0  0  0
   16.8302    0.5166    0.0000 C   0  0  0  0  0  0  0  0  0  0  0  0
   15.0564    0.4217    0.0000 C   0  0  0  0  0  0  0  0  0  0  0  0
   16.0255    1.9104    0.0000 C   0  0  0  0  0  0  0  0  0  0  0  0
   17.4981    1.2609    0.0000 C   0  0  0  0  0  0  0  0  0  0  0  0
   14.1904    0.9217    0.0000 C   0  0  0  0  0  0  0  0  0  0  0  0
   15.0564   -0.5783    0.0000 C   0  0  0  0  0  0  0  0  0  0  0  0
   17.1409   -0.4339    0.0000 C   0  0  0  0  0  0  0  0  0  0  0  0
   15.2812    2.5783    0.0000 C   0  0  0  0  0  0  0  0  0  0  0  0
   13.3244   -0.5783    0.0000 C   0  0  0  0  0  0  0  0  0  0  0  0
   13.3244    0.4217    0.0000 C   0  0  0  0  0  0  0  0  0  0  0  0
   14.1904   -1.0783    0.0000 C   0  0  0  0  0  0  0  0  0  0  0  0
   18.4766    1.0547    0.0000 C   0  0  0  0  0  0  0  0  0  0  0  0
   11.5923   -0.5783    0.0000 C   0  0  0  0  0  0  0  0  0  0  0  0
   10.7263   -1.0783    0.0000 C   0  0  0  0  0  0  0  0  0  0  0  0
   18.1194   -0.6401    0.0000 C   0  0  0  0  0  0  0  0  0  0  0  0
    8.9942   -1.0783    0.0000 C   0  0  0  0  0  0  0  0  0  0  0  0
    9.8602   -0.5783    0.0000 C   0  0  0  0  0  0  0  0  0  0  0  0
   10.7263   -2.0783    0.0000 C   0  0  0  0  0  0  0  0  0  0  0  0
    8.9942   -2.0783    0.0000 C   0  0  0  0  0  0  0  0  0  0  0  0
    4.6641    0.4217    0.0000 C   0  0  0  0  0  0  0  0  0  0  0  0
    4.6641   -0.5783    0.0000 C   0  0  0  0  0  0  0  0  0  0  0  0
    8.1282   -0.5783    0.0000 C   0  0  0  0  0  0  0  0  0  0  0  0
    9.8602   -2.5783    0.0000 C   0  0  0  0  0  0  0  0  0  0  0  0
    6.3961   -0.5783    0.0000 C   0  0  0  0  0  0  0  0  0  0  0  0
    7.2622   -1.0783    0.0000 C   0  0  0  0  0  0  0  0  0  0  0  0
    5.5301    0.9217    0.0000 C   0  0  0  0  0  0  0  0  0  0  0  0
    6.3961    0.4217    0.0000 C   0  0  0  0  0  0  0  0  0  0  0  0
    3.7702    0.9564    0.0000 C   0  0  0  0  0  0  0  0  0  0  0  0
    3.7702   -1.1129    0.0000 C   0  0  0  0  0  0  0  0  0  0  0  0
    2.8641    0.4425    0.0000 C   0  0  0  0  0  0  0  0  0  0  0  0
    2.8641   -0.5991    0.0000 C   0  0  0  0  0  0  0  0  0  0  0  0
   14.1904    1.5417    0.0000 H   0  0  0  0  0  0  0  0  0  0  0  0
   15.5933   -0.8883    0.0000 H   0  0  0  0  0  0  0  0  0  0  0  0
   16.7268   -0.8954    0.0000 H   0  0  0  0  0  0  0  0  0  0  0  0
   15.6952    3.0398    0.0000 H   0  0  0  0  0  0  0  0  0  0  0  0
   14.8197    2.9924    0.0000 H   0  0  0  0  0  0  0  0  0  0  0  0
   14.8671    2.1168    0.0000 H   0  0  0  0  0  0  0  0  0  0  0  0
   12.7874    0.7317    0.0000 H   0  0  0  0  0  0  0  0  0  0  0  0
   14.1904   -1.6983    0.0000 H   0  0  0  0  0  0  0  0  0  0  0  0
   18.8906    1.5162    0.0000 H   0  0  0  0  0  0  0  0  0  0  0  0
   11.9908   -0.1033    0.0000 H   0  0  0  0  0  0  0  0  0  0  0  0
   11.1938   -0.1033    0.0000 H   0  0  0  0  0  0  0  0  0  0  0  0
   18.3120   -1.2295    0.0000 H   0  0  0  0  0  0  0  0  0  0  0  0
    9.8602    0.0417    0.0000 H   0  0  0  0  0  0  0  0  0  0  0  0
   11.2632   -2.3883    0.0000 H   0  0  0  0  0  0  0  0  0  0  0  0
    8.4573   -2.3883    0.0000 H   0  0  0  0  0  0  0  0  0  0  0  0
    8.1282    0.0417    0.0000 H   0  0  0  0  0  0  0  0  0  0  0  0
    9.8602   -3.1983    0.0000 H   0  0  0  0  0  0  0  0  0  0  0  0
    7.2622   -1.6983    0.0000 H   0  0  0  0  0  0  0  0  0  0  0  0
    5.5301    1.5417    0.0000 H   0  0  0  0  0  0  0  0  0  0  0  0
    6.9331    0.7317    0.0000 H   0  0  0  0  0  0  0  0  0  0  0  0
    3.7773    1.5763    0.0000 H   0  0  0  0  0  0  0  0  0  0  0  0
    3.7773   -1.7329    0.0000 H   0  0  0  0  0  0  0  0  0  0  0  0
    2.3284    0.7546    0.0000 H   0  0  0  0  0  0  0  0  0  0  0  0
  1 37  1  0  0  0  0
  2 15  1  0  0  0  0
  2 19  1  0  0  0  0
  3  7  1  0  0  0  0
  3  8  1  0  0  0  0
  3  9  1  0  0  0  0
  4  9  2  0  0  0  0
  4 10  1  0  0  0  0
  5 18  2  0  0  0  0
  5 21  1  0  0  0  0
  6 27  1  0  0  0  0
  6 30  2  0  0  0  0
  7 10  2  0  0  0  0
  7 13  1  0  0  0  0
  8 11  2  0  0  0  0
  8 12  1  0  0  0  0
  9 14  1  0  0  0  0
 10 18  1  0  0  0  0
 11 16  1  0  0  0  0
 11 38  1  0  0  0  0
 12 17  2  0  0  0  0
 12 39  1  0  0  0  0
 13 21  2  0  0  0  0
 13 40  1  0  0  0  0
 14 41  1  0  0  0  0
 14 42  1  0  0  0  0
 14 43  1  0  0  0  0
 15 16  2  0  0  0  0
 15 17  1  0  0  0  0
 16 44  1  0  0  0  0
 17 45  1  0  0  0  0
 18 46  1  0  0  0  0
 19 20  1  0  0  0  0
 19 47  1  0  0  0  0
 19 48  1  0  0  0  0
 20 23  2  0  0  0  0
 20 24  1  0  0  0  0
 21 49  1  0  0  0  0
 22 23  1  0  0  0  0
 22 25  2  0  0  0  0
 22 28  1  0  0  0  0
 23 50  1  0  0  0  0
 24 29  2  0  0  0  0
 24 51  1  0  0  0  0
 25 29  1  0  0  0  0
 25 52  1  0  0  0  0
 26 27  2  0  0  0  0
 26 32  1  0  0  0  0
 26 34  1  0  0  0  0
 27 35  1  0  0  0  0
 28 31  2  0  0  0  0
 28 53  1  0  0  0  0
 29 54  1  0  0  0  0
 30 31  1  0  0  0  0
 30 33  1  0  0  0  0
 31 55  1  0  0  0  0
 32 33  2  0  0  0  0
 32 56  1  0  0  0  0
 33 57  1  0  0  0  0
 34 36  2  0  0  0  0
 34 58  1  0  0  0  0
 35 37  2  0  0  0  0
 35 59  1  0  0  0  0
 36 37  1  0  0  0  0
 36 60  1  0  0  0  0
M  END
> <PUBCHEM_COMPOUND_CID>
9870702

> <PUBCHEM_COMPOUND_CANONICALIZED>
1

> <PUBCHEM_CACTVS_COMPLEXITY>
758

> <PUBCHEM_CACTVS_HBOND_ACCEPTOR>
4

> <PUBCHEM_CACTVS_HBOND_DONOR>
0

> <PUBCHEM_CACTVS_ROTATABLE_BOND>
6

> <PUBCHEM_CACTVS_SUBSKEYS>
AAADceB7oAAEAAAAAAAAAAAAAAAAAWAAAAA8eMECAAAAAFix/gAAHgIAAAAADA7hnyY/1vcMFACgAzZnZACCiC0xN6AJ2CA+fpiMbuLF+9uWPCjswBPI6CewwOAOBEACAAICAAAIgAQABAQAAAAAAAAAAA==

> <PUBCHEM_IUPAC_OPENEYE_NAME>
7-chloro-2-[(E)-2-[3-[[4-(2-methylimidazo[4,5-c]pyridin-1-yl)phenoxy]methyl]phenyl]vinyl]quinoline

> <PUBCHEM_IUPAC_CAS_NAME>
7-chloro-2-[(E)-2-[3-[[4-(2-methyl-1-imidazo[4,5-c]pyridinyl)phenoxy]methyl]phenyl]ethenyl]quinoline

> <PUBCHEM_IUPAC_NAME_MARKUP>
7-chloro-2-[(<I>E</I>)-2-[3-[[4-(2-methylimidazo[4,5-c]pyridin-1-yl)phenoxy]methyl]phenyl]ethenyl]quinoline

> <PUBCHEM_IUPAC_NAME>
7-chloro-2-[(E)-2-[3-[[4-(2-methylimidazo[4,5-c]pyridin-1-yl)phenoxy]methyl]phenyl]ethenyl]quinoline

> <PUBCHEM_IUPAC_SYSTEMATIC_NAME>
7-chloranyl-2-[(E)-2-[3-[[4-(2-methylimidazo[4,5-c]pyridin-1-yl)phenoxy]methyl]phenyl]ethenyl]quinoline

> <PUBCHEM_IUPAC_TRADITIONAL_NAME>
7-chloro-2-[(E)-2-[3-[[4-(2-methylimidazo[4,5-c]pyridin-1-yl)phenoxy]methyl]phenyl]vinyl]quinoline

> <PUBCHEM_IUPAC_INCHI>
InChI=1S/C31H23ClN4O/c1-21-34-30-19-33-16-15-31(30)36(21)27-11-13-28(14-12-27)37-20-23-4-2-3-22(17-23)5-9-26-10-7-24-6-8-25(32)18-29(24)35-26/h2-19H,20H2,1H3/b9-5+

> <PUBCHEM_IUPAC_INCHIKEY>
ZKHUZIGQNHJVGZ-WEVVVXLNSA-N

> <PUBCHEM_XLOGP3_AA>
7.1

> <PUBCHEM_EXACT_MASS>
502.1560391

> <PUBCHEM_MOLECULAR_FORMULA>
C31H23ClN4O

> <PUBCHEM_MOLECULAR_WEIGHT>
503.0

> <PUBCHEM_OPENEYE_CAN_SMILES>
CC1=NC2=C(N1C3=CC=C(C=C3)OCC4=CC(=CC=C4)C=CC5=NC6=C(C=CC(=C6)Cl)C=C5)C=CN=C2

> <PUBCHEM_OPENEYE_ISO_SMILES>
CC1=NC2=C(N1C3=CC=C(C=C3)OCC4=CC(=CC=C4)/C=C/C5=NC6=C(C=CC(=C6)Cl)C=C5)C=CN=C2

> <PUBCHEM_CACTVS_TPSA>
52.8

> <PUBCHEM_MONOISOTOPIC_WEIGHT>
502.1560391

> <PUBCHEM_TOTAL_CHARGE>
0

> <PUBCHEM_HEAVY_ATOM_COUNT>
37

> <PUBCHEM_ATOM_DEF_STEREO_COUNT>
0

> <PUBCHEM_ATOM_UDEF_STEREO_COUNT>
0

> <PUBCHEM_BOND_DEF_STEREO_COUNT>
1

> <PUBCHEM_BOND_UDEF_STEREO_COUNT>
0

> <PUBCHEM_ISOTOPIC_ATOM_COUNT>
0

> <PUBCHEM_COMPONENT_COUNT>
1

> <PUBCHEM_CACTVS_TAUTO_COUNT>
-1

> <PUBCHEM_COORDINATE_TYPE>
1
5
255

> <PUBCHEM_BONDANNOTATIONS>
10  18  8
11  16  8
12  17  8
13  21  8
15  16  8
15  17  8
20  23  8
20  24  8
22  23  8
22  25  8
24  29  8
25  29  8
26  27  8
26  32  8
26  34  8
27  35  8
3  7  8
3  9  8
30  33  8
32  33  8
34  36  8
35  37  8
36  37  8
4  10  8
4  9  8
5  18  8
5  21  8
6  27  8
6  30  8
7  10  8
7  13  8
8  11  8
8  12  8

$$$$
