44317436
  -OEChem-09292322212D

 71 74  0     0  0  0  0  0  0999 V2000
   14.1906    0.7373    0.0000 Cl  0  0  0  0  0  0  0  0  0  0  0  0
   16.1906    0.7373    0.0000 Cl  0  0  0  0  0  0  0  0  0  0  0  0
    5.6906    1.6033    0.0000 O   0  0  0  0  0  0  0  0  0  0  0  0
    5.6906   -0.1287    0.0000 N   0  0  0  0  0  0  0  0  0  0  0  0
   11.1906   -0.9948    0.0000 N   0  0  0  0  0  0  0  0  0  0  0  0
   13.1906   -0.9948    0.0000 N   0  0  0  0  0  0  0  0  0  0  0  0
    8.6906   -0.1287    0.0000 C   0  0  0  0  0  0  0  0  0  0  0  0
    6.6906   -0.1287    0.0000 C   0  0  0  0  0  0  0  0  0  0  0  0
    8.1906    0.7373    0.0000 C   0  0  0  0  0  0  0  0  0  0  0  0
    8.1906   -0.9948    0.0000 C   0  0  0  0  0  0  0  0  0  0  0  0
    7.1906    0.7373    0.0000 C   0  0  0  0  0  0  0  0  0  0  0  0
    7.1906   -0.9948    0.0000 C   0  0  0  0  0  0  0  0  0  0  0  0
    9.6906   -0.1287    0.0000 C   0  0  0  0  0  0  0  0  0  0  0  0
   10.1906   -0.9948    0.0000 C   0  0  0  0  0  0  0  0  0  0  0  0
    4.1906    0.7373    0.0000 C   0  0  0  0  0  0  0  0  0  0  0  0
    5.1906    0.7373    0.0000 C   0  0  0  0  0  0  0  0  0  0  0  0
    3.7568   -0.1637    0.0000 C   0  0  0  0  0  0  0  0  0  0  0  0
    3.7568    1.6383    0.0000 C   0  0  0  0  0  0  0  0  0  0  0  0
   11.6906   -1.8608    0.0000 C   0  0  0  0  0  0  0  0  0  0  0  0
   11.6906   -0.1287    0.0000 C   0  0  0  0  0  0  0  0  0  0  0  0
    2.7818   -0.3862    0.0000 C   0  0  0  0  0  0  0  0  0  0  0  0
    2.7818    1.8608    0.0000 C   0  0  0  0  0  0  0  0  0  0  0  0
   12.6906   -1.8608    0.0000 C   0  0  0  0  0  0  0  0  0  0  0  0
   12.6906   -0.1287    0.0000 C   0  0  0  0  0  0  0  0  0  0  0  0
    2.0000    0.2373    0.0000 C   0  0  0  0  0  0  0  0  0  0  0  0
    2.0000    1.2373    0.0000 C   0  0  0  0  0  0  0  0  0  0  0  0
   14.1906   -0.9948    0.0000 C   0  0  0  0  0  0  0  0  0  0  0  0
   14.6906   -0.1287    0.0000 C   0  0  0  0  0  0  0  0  0  0  0  0
   14.6906   -1.8608    0.0000 C   0  0  0  0  0  0  0  0  0  0  0  0
   15.6906   -0.1287    0.0000 C   0  0  0  0  0  0  0  0  0  0  0  0
   15.6906   -1.8608    0.0000 C   0  0  0  0  0  0  0  0  0  0  0  0
   16.1906   -0.9948    0.0000 C   0  0  0  0  0  0  0  0  0  0  0  0
    9.0006   -0.6657    0.0000 H   0  0  0  0  0  0  0  0  0  0  0  0
    6.3806   -0.6657    0.0000 H   0  0  0  0  0  0  0  0  0  0  0  0
    8.7733    0.9493    0.0000 H   0  0  0  0  0  0  0  0  0  0  0  0
    8.0830    1.3479    0.0000 H   0  0  0  0  0  0  0  0  0  0  0  0
    8.0830   -1.6053    0.0000 H   0  0  0  0  0  0  0  0  0  0  0  0
    8.7733   -1.2068    0.0000 H   0  0  0  0  0  0  0  0  0  0  0  0
    7.2983    1.3479    0.0000 H   0  0  0  0  0  0  0  0  0  0  0  0
    6.6080    0.9493    0.0000 H   0  0  0  0  0  0  0  0  0  0  0  0
    6.6080   -1.2068    0.0000 H   0  0  0  0  0  0  0  0  0  0  0  0
    7.2983   -1.6053    0.0000 H   0  0  0  0  0  0  0  0  0  0  0  0
   10.2733    0.0833    0.0000 H   0  0  0  0  0  0  0  0  0  0  0  0
    9.5830    0.4818    0.0000 H   0  0  0  0  0  0  0  0  0  0  0  0
    9.6080   -1.2068    0.0000 H   0  0  0  0  0  0  0  0  0  0  0  0
   10.2983   -1.6053    0.0000 H   0  0  0  0  0  0  0  0  0  0  0  0
    5.3806   -0.6657    0.0000 H   0  0  0  0  0  0  0  0  0  0  0  0
    4.5205    0.2123    0.0000 H   0  0  0  0  0  0  0  0  0  0  0  0
    3.7568   -0.7837    0.0000 H   0  0  0  0  0  0  0  0  0  0  0  0
    4.3612   -0.3016    0.0000 H   0  0  0  0  0  0  0  0  0  0  0  0
    4.3612    1.7762    0.0000 H   0  0  0  0  0  0  0  0  0  0  0  0
    3.7568    2.2583    0.0000 H   0  0  0  0  0  0  0  0  0  0  0  0
   11.1080   -2.0728    0.0000 H   0  0  0  0  0  0  0  0  0  0  0  0
   11.7983   -2.4714    0.0000 H   0  0  0  0  0  0  0  0  0  0  0  0
   11.7983    0.4818    0.0000 H   0  0  0  0  0  0  0  0  0  0  0  0
   11.1080    0.0833    0.0000 H   0  0  0  0  0  0  0  0  0  0  0  0
    2.2971   -0.7728    0.0000 H   0  0  0  0  0  0  0  0  0  0  0  0
    3.0508   -0.9448    0.0000 H   0  0  0  0  0  0  0  0  0  0  0  0
    3.0508    2.4194    0.0000 H   0  0  0  0  0  0  0  0  0  0  0  0
    2.2971    2.2474    0.0000 H   0  0  0  0  0  0  0  0  0  0  0  0
   12.5830   -2.4714    0.0000 H   0  0  0  0  0  0  0  0  0  0  0  0
   13.2733   -2.0728    0.0000 H   0  0  0  0  0  0  0  0  0  0  0  0
   13.2733    0.0833    0.0000 H   0  0  0  0  0  0  0  0  0  0  0  0
   12.5830    0.4818    0.0000 H   0  0  0  0  0  0  0  0  0  0  0  0
    1.3955    0.3753    0.0000 H   0  0  0  0  0  0  0  0  0  0  0  0
    1.7310   -0.3213    0.0000 H   0  0  0  0  0  0  0  0  0  0  0  0
    1.7310    1.7959    0.0000 H   0  0  0  0  0  0  0  0  0  0  0  0
    1.3955    1.0993    0.0000 H   0  0  0  0  0  0  0  0  0  0  0  0
   14.3806   -2.3977    0.0000 H   0  0  0  0  0  0  0  0  0  0  0  0
   16.0006   -2.3977    0.0000 H   0  0  0  0  0  0  0  0  0  0  0  0
   16.8106   -0.9948    0.0000 H   0  0  0  0  0  0  0  0  0  0  0  0
  1 28  1  0  0  0  0
  2 30  1  0  0  0  0
  3 16  2  0  0  0  0
  4  8  1  0  0  0  0
  4 16  1  0  0  0  0
  4 47  1  0  0  0  0
  5 14  1  0  0  0  0
  5 19  1  0  0  0  0
  5 20  1  0  0  0  0
  6 23  1  0  0  0  0
  6 24  1  0  0  0  0
  6 27  1  0  0  0  0
  7  9  1  0  0  0  0
  7 10  1  0  0  0  0
  7 13  1  0  0  0  0
  7 33  1  0  0  0  0
  8 11  1  0  0  0  0
  8 12  1  0  0  0  0
  8 34  1  0  0  0  0
  9 11  1  0  0  0  0
  9 35  1  0  0  0  0
  9 36  1  0  0  0  0
 10 12  1  0  0  0  0
 10 37  1  0  0  0  0
 10 38  1  0  0  0  0
 11 39  1  0  0  0  0
 11 40  1  0  0  0  0
 12 41  1  0  0  0  0
 12 42  1  0  0  0  0
 13 14  1  0  0  0  0
 13 43  1  0  0  0  0
 13 44  1  0  0  0  0
 14 45  1  0  0  0  0
 14 46  1  0  0  0  0
 15 16  1  0  0  0  0
 15 17  1  0  0  0  0
 15 18  1  0  0  0  0
 15 48  1  0  0  0  0
 17 21  1  0  0  0  0
 17 49  1  0  0  0  0
 17 50  1  0  0  0  0
 18 22  1  0  0  0  0
 18 51  1  0  0  0  0
 18 52  1  0  0  0  0
 19 23  1  0  0  0  0
 19 53  1  0  0  0  0
 19 54  1  0  0  0  0
 20 24  1  0  0  0  0
 20 55  1  0  0  0  0
 20 56  1  0  0  0  0
 21 25  1  0  0  0  0
 21 57  1  0  0  0  0
 21 58  1  0  0  0  0
 22 26  1  0  0  0  0
 22 59  1  0  0  0  0
 22 60  1  0  0  0  0
 23 61  1  0  0  0  0
 23 62  1  0  0  0  0
 24 63  1  0  0  0  0
 24 64  1  0  0  0  0
 25 26  1  0  0  0  0
 25 65  1  0  0  0  0
 25 66  1  0  0  0  0
 26 67  1  0  0  0  0
 26 68  1  0  0  0  0
 27 28  2  0  0  0  0
 27 29  1  0  0  0  0
 28 30  1  0  0  0  0
 29 31  2  0  0  0  0
 29 69  1  0  0  0  0
 30 32  2  0  0  0  0
 31 32  1  0  0  0  0
 31 70  1  0  0  0  0
 32 71  1  0  0  0  0
M  END
> <PUBCHEM_COMPOUND_CID>
44317436

> <PUBCHEM_COMPOUND_CANONICALIZED>
1

> <PUBCHEM_CACTVS_COMPLEXITY>
567

> <PUBCHEM_CACTVS_HBOND_ACCEPTOR>
3

> <PUBCHEM_CACTVS_HBOND_DONOR>
1

> <PUBCHEM_CACTVS_ROTATABLE_BOND>
6

> <PUBCHEM_CACTVS_SUBSKEYS>
AAADcfB7IAAGAAAAAAAAAAAAAAAAAAAAAAA8YIAABgAAAAABAAAAHgIQAAAADSrBkCQwwIPAAACIACVSUACCAAAhBwAIisEIZogIYDLBk5HUIAhglgDIyAcYiMCOAAAAAAIAABQQAAAABAAAKAAAAAAAAA==

> <PUBCHEM_IUPAC_OPENEYE_NAME>
N-[4-[2-[4-(2,3-dichlorophenyl)piperazin-1-yl]ethyl]cyclohexyl]cycloheptanecarboxamide

> <PUBCHEM_IUPAC_CAS_NAME>
N-[4-[2-[4-(2,3-dichlorophenyl)-1-piperazinyl]ethyl]cyclohexyl]cycloheptanecarboxamide

> <PUBCHEM_IUPAC_NAME_MARKUP>
<I>N</I>-[4-[2-[4-(2,3-dichlorophenyl)piperazin-1-yl]ethyl]cyclohexyl]cycloheptanecarboxamide

> <PUBCHEM_IUPAC_NAME>
N-[4-[2-[4-(2,3-dichlorophenyl)piperazin-1-yl]ethyl]cyclohexyl]cycloheptanecarboxamide

> <PUBCHEM_IUPAC_SYSTEMATIC_NAME>
N-[4-[2-[4-[2,3-bis(chloranyl)phenyl]piperazin-1-yl]ethyl]cyclohexyl]cycloheptanecarboxamide

> <PUBCHEM_IUPAC_TRADITIONAL_NAME>
N-[4-[2-[4-(2,3-dichlorophenyl)piperazino]ethyl]cyclohexyl]cycloheptanecarboxamide

> <PUBCHEM_IUPAC_INCHI>
InChI=1S/C26H39Cl2N3O/c27-23-8-5-9-24(25(23)28)31-18-16-30(17-19-31)15-14-20-10-12-22(13-11-20)29-26(32)21-6-3-1-2-4-7-21/h5,8-9,20-22H,1-4,6-7,10-19H2,(H,29,32)

> <PUBCHEM_IUPAC_INCHIKEY>
ARXSWHRTJLWTMT-UHFFFAOYSA-N

> <PUBCHEM_XLOGP3_AA>
6.9

> <PUBCHEM_EXACT_MASS>
479.2470183

> <PUBCHEM_MOLECULAR_FORMULA>
C26H39Cl2N3O

> <PUBCHEM_MOLECULAR_WEIGHT>
480.5

> <PUBCHEM_OPENEYE_CAN_SMILES>
C1CCCC(CC1)C(=O)NC2CCC(CC2)CCN3CCN(CC3)C4=C(C(=CC=C4)Cl)Cl

> <PUBCHEM_OPENEYE_ISO_SMILES>
C1CCCC(CC1)C(=O)NC2CCC(CC2)CCN3CCN(CC3)C4=C(C(=CC=C4)Cl)Cl

> <PUBCHEM_CACTVS_TPSA>
35.6

> <PUBCHEM_MONOISOTOPIC_WEIGHT>
479.2470183

> <PUBCHEM_TOTAL_CHARGE>
0

> <PUBCHEM_HEAVY_ATOM_COUNT>
32

> <PUBCHEM_ATOM_DEF_STEREO_COUNT>
0

> <PUBCHEM_ATOM_UDEF_STEREO_COUNT>
0

> <PUBCHEM_BOND_DEF_STEREO_COUNT>
0

> <PUBCHEM_BOND_UDEF_STEREO_COUNT>
0

> <PUBCHEM_ISOTOPIC_ATOM_COUNT>
0

> <PUBCHEM_COMPONENT_COUNT>
1

> <PUBCHEM_CACTVS_TAUTO_COUNT>
-1

> <PUBCHEM_COORDINATE_TYPE>
1
5
255

> <PUBCHEM_BONDANNOTATIONS>
27  28  8
27  29  8
28  30  8
29  31  8
30  32  8
31  32  8

$$$$
