44427842
  -OEChem-09292322252D

 62 66  0     1  0  0  0  0  0999 V2000
    3.7320   -3.6830    0.0000 Cl  0  0  0  0  0  0  0  0  0  0  0  0
    2.0000   -4.6830    0.0000 Cl  0  0  0  0  0  0  0  0  0  0  0  0
   11.1603    0.1830    0.0000 O   0  0  0  0  0  0  0  0  0  0  0  0
    7.1962   -3.6830    0.0000 N   0  0  0  0  0  0  0  0  0  0  0  0
    9.4282    0.1830    0.0000 N   0  0  0  0  0  0  0  0  0  0  0  0
    5.4641   -4.6830    0.0000 N   0  0  0  0  0  0  0  0  0  0  0  0
    9.4282    5.1830    0.0000 N   0  0  0  0  0  0  0  0  0  0  0  0
    8.0622   -2.1830    0.0000 C   0  0  1  0  0  0  0  0  0  0  0  0
    8.5622   -1.3170    0.0000 C   0  0  2  0  0  0  0  0  0  0  0  0
    7.5622   -1.3170    0.0000 C   0  0  0  0  0  0  0  0  0  0  0  0
    8.0622   -3.1830    0.0000 C   0  0  0  0  0  0  0  0  0  0  0  0
    9.4282   -0.8170    0.0000 C   0  0  0  0  0  0  0  0  0  0  0  0
    6.3301   -3.1830    0.0000 C   0  0  0  0  0  0  0  0  0  0  0  0
    7.1962   -4.6830    0.0000 C   0  0  0  0  0  0  0  0  0  0  0  0
    5.4641   -3.6830    0.0000 C   0  0  0  0  0  0  0  0  0  0  0  0
    6.3301   -5.1830    0.0000 C   0  0  0  0  0  0  0  0  0  0  0  0
   10.2942    0.6830    0.0000 C   0  0  0  0  0  0  0  0  0  0  0  0
    4.5981   -5.1830    0.0000 C   0  0  0  0  0  0  0  0  0  0  0  0
   10.2942    1.6830    0.0000 C   0  0  0  0  0  0  0  0  0  0  0  0
    3.7320   -4.6830    0.0000 C   0  0  0  0  0  0  0  0  0  0  0  0
    4.5981   -6.1830    0.0000 C   0  0  0  0  0  0  0  0  0  0  0  0
   11.1603    2.1830    0.0000 C   0  0  0  0  0  0  0  0  0  0  0  0
    9.4282    2.1830    0.0000 C   0  0  0  0  0  0  0  0  0  0  0  0
    2.8660   -5.1830    0.0000 C   0  0  0  0  0  0  0  0  0  0  0  0
    3.7320   -6.6830    0.0000 C   0  0  0  0  0  0  0  0  0  0  0  0
    2.8660   -6.1830    0.0000 C   0  0  0  0  0  0  0  0  0  0  0  0
   11.1603    3.1830    0.0000 C   0  0  0  0  0  0  0  0  0  0  0  0
    9.4282    3.1830    0.0000 C   0  0  0  0  0  0  0  0  0  0  0  0
   10.2942    3.6830    0.0000 C   0  0  0  0  0  0  0  0  0  0  0  0
   10.2942    4.6830    0.0000 C   0  0  0  0  0  0  0  0  0  0  0  0
   11.1603    5.1830    0.0000 C   0  0  0  0  0  0  0  0  0  0  0  0
   11.1603    6.1830    0.0000 C   0  0  0  0  0  0  0  0  0  0  0  0
    9.4282    6.1830    0.0000 C   0  0  0  0  0  0  0  0  0  0  0  0
   10.2942    6.6830    0.0000 C   0  0  0  0  0  0  0  0  0  0  0  0
    8.6610   -2.3435    0.0000 H   0  0  0  0  0  0  0  0  0  0  0  0
    8.4017   -0.7181    0.0000 H   0  0  0  0  0  0  0  0  0  0  0  0
    7.4545   -0.7064    0.0000 H   0  0  0  0  0  0  0  0  0  0  0  0
    6.9796   -1.5290    0.0000 H   0  0  0  0  0  0  0  0  0  0  0  0
    8.2742   -3.7656    0.0000 H   0  0  0  0  0  0  0  0  0  0  0  0
    8.6728   -3.0753    0.0000 H   0  0  0  0  0  0  0  0  0  0  0  0
    9.6403   -1.3996    0.0000 H   0  0  0  0  0  0  0  0  0  0  0  0
   10.0388   -0.7093    0.0000 H   0  0  0  0  0  0  0  0  0  0  0  0
    6.7287   -2.7081    0.0000 H   0  0  0  0  0  0  0  0  0  0  0  0
    5.9316   -2.7081    0.0000 H   0  0  0  0  0  0  0  0  0  0  0  0
    7.4082   -5.2656    0.0000 H   0  0  0  0  0  0  0  0  0  0  0  0
    7.8067   -4.5754    0.0000 H   0  0  0  0  0  0  0  0  0  0  0  0
    8.8913    0.4930    0.0000 H   0  0  0  0  0  0  0  0  0  0  0  0
    5.2520   -3.1004    0.0000 H   0  0  0  0  0  0  0  0  0  0  0  0
    4.8535   -3.7907    0.0000 H   0  0  0  0  0  0  0  0  0  0  0  0
    5.9316   -5.6580    0.0000 H   0  0  0  0  0  0  0  0  0  0  0  0
    6.7287   -5.6580    0.0000 H   0  0  0  0  0  0  0  0  0  0  0  0
    5.1350   -6.4930    0.0000 H   0  0  0  0  0  0  0  0  0  0  0  0
   11.6972    1.8730    0.0000 H   0  0  0  0  0  0  0  0  0  0  0  0
    8.8913    1.8730    0.0000 H   0  0  0  0  0  0  0  0  0  0  0  0
    3.7320   -7.3030    0.0000 H   0  0  0  0  0  0  0  0  0  0  0  0
    2.3291   -6.4930    0.0000 H   0  0  0  0  0  0  0  0  0  0  0  0
   11.6972    3.4930    0.0000 H   0  0  0  0  0  0  0  0  0  0  0  0
    8.8913    3.4930    0.0000 H   0  0  0  0  0  0  0  0  0  0  0  0
   11.6972    4.8730    0.0000 H   0  0  0  0  0  0  0  0  0  0  0  0
   11.6972    6.4930    0.0000 H   0  0  0  0  0  0  0  0  0  0  0  0
    8.8913    6.4930    0.0000 H   0  0  0  0  0  0  0  0  0  0  0  0
   10.2942    7.3030    0.0000 H   0  0  0  0  0  0  0  0  0  0  0  0
  1 20  1  0  0  0  0
  2 24  1  0  0  0  0
  3 17  2  0  0  0  0
  4 11  1  0  0  0  0
  4 13  1  0  0  0  0
  4 14  1  0  0  0  0
  5 12  1  0  0  0  0
  5 17  1  0  0  0  0
  5 47  1  0  0  0  0
  6 15  1  0  0  0  0
  6 16  1  0  0  0  0
  6 18  1  0  0  0  0
  7 30  1  0  0  0  0
  7 33  2  0  0  0  0
  8  9  1  0  0  0  0
  8 10  1  0  0  0  0
  8 11  1  6  0  0  0
  8 35  1  0  0  0  0
  9 10  1  0  0  0  0
  9 12  1  6  0  0  0
  9 36  1  0  0  0  0
 10 37  1  0  0  0  0
 10 38  1  0  0  0  0
 11 39  1  0  0  0  0
 11 40  1  0  0  0  0
 12 41  1  0  0  0  0
 12 42  1  0  0  0  0
 13 15  1  0  0  0  0
 13 43  1  0  0  0  0
 13 44  1  0  0  0  0
 14 16  1  0  0  0  0
 14 45  1  0  0  0  0
 14 46  1  0  0  0  0
 15 48  1  0  0  0  0
 15 49  1  0  0  0  0
 16 50  1  0  0  0  0
 16 51  1  0  0  0  0
 17 19  1  0  0  0  0
 18 20  2  0  0  0  0
 18 21  1  0  0  0  0
 19 22  2  0  0  0  0
 19 23  1  0  0  0  0
 20 24  1  0  0  0  0
 21 25  2  0  0  0  0
 21 52  1  0  0  0  0
 22 27  1  0  0  0  0
 22 53  1  0  0  0  0
 23 28  2  0  0  0  0
 23 54  1  0  0  0  0
 24 26  2  0  0  0  0
 25 26  1  0  0  0  0
 25 55  1  0  0  0  0
 26 56  1  0  0  0  0
 27 29  2  0  0  0  0
 27 57  1  0  0  0  0
 28 29  1  0  0  0  0
 28 58  1  0  0  0  0
 29 30  1  0  0  0  0
 30 31  2  0  0  0  0
 31 32  1  0  0  0  0
 31 59  1  0  0  0  0
 32 34  2  0  0  0  0
 32 60  1  0  0  0  0
 33 34  1  0  0  0  0
 33 61  1  0  0  0  0
 34 62  1  0  0  0  0
M  END
> <PUBCHEM_COMPOUND_CID>
44427842

> <PUBCHEM_COMPOUND_CANONICALIZED>
1

> <PUBCHEM_CACTVS_COMPLEXITY>
665

> <PUBCHEM_CACTVS_HBOND_ACCEPTOR>
4

> <PUBCHEM_CACTVS_HBOND_DONOR>
1

> <PUBCHEM_CACTVS_ROTATABLE_BOND>
7

> <PUBCHEM_CACTVS_SUBSKEYS>
AAADceB7oAAGAAAAAAAAAAAAGAAAAAAAAAA8eIEAAAAAAAAB0AAAHgIQAAAADQrBniQ8wJPIEACoAzV3VACCgCA1ByAI2uE4ZtgIYPLBl5HUIQhglgDIyYcYiMCOQAAAAAIAABSAAAAABAAAKAAAAAAAAA==

> <PUBCHEM_IUPAC_OPENEYE_NAME>
N-[[(1S,2R)-2-[[4-(2,3-dichlorophenyl)piperazin-1-yl]methyl]cyclopropyl]methyl]-4-(2-pyridyl)benzamide

> <PUBCHEM_IUPAC_CAS_NAME>
N-[[(1S,2R)-2-[[4-(2,3-dichlorophenyl)-1-piperazinyl]methyl]cyclopropyl]methyl]-4-(2-pyridinyl)benzamide

> <PUBCHEM_IUPAC_NAME_MARKUP>
<I>N</I>-[[(1<I>S</I>,2<I>R</I>)-2-[[4-(2,3-dichlorophenyl)piperazin-1-yl]methyl]cyclopropyl]methyl]-4-pyridin-2-ylbenzamide

> <PUBCHEM_IUPAC_NAME>
N-[[(1S,2R)-2-[[4-(2,3-dichlorophenyl)piperazin-1-yl]methyl]cyclopropyl]methyl]-4-pyridin-2-ylbenzamide

> <PUBCHEM_IUPAC_SYSTEMATIC_NAME>
N-[[(1S,2R)-2-[[4-[2,3-bis(chloranyl)phenyl]piperazin-1-yl]methyl]cyclopropyl]methyl]-4-pyridin-2-yl-benzamide

> <PUBCHEM_IUPAC_TRADITIONAL_NAME>
N-[[(1S,2R)-2-[[4-(2,3-dichlorophenyl)piperazino]methyl]cyclopropyl]methyl]-4-(2-pyridyl)benzamide

> <PUBCHEM_IUPAC_INCHI>
InChI=1S/C27H28Cl2N4O/c28-23-4-3-6-25(26(23)29)33-14-12-32(13-15-33)18-22-16-21(22)17-31-27(34)20-9-7-19(8-10-20)24-5-1-2-11-30-24/h1-11,21-22H,12-18H2,(H,31,34)/t21-,22+/m1/s1

> <PUBCHEM_IUPAC_INCHIKEY>
KRMPDMJUDCQCAJ-YADHBBJMSA-N

> <PUBCHEM_XLOGP3_AA>
5.3

> <PUBCHEM_EXACT_MASS>
494.1640169

> <PUBCHEM_MOLECULAR_FORMULA>
C27H28Cl2N4O

> <PUBCHEM_MOLECULAR_WEIGHT>
495.4

> <PUBCHEM_OPENEYE_CAN_SMILES>
C1CN(CCN1CC2CC2CNC(=O)C3=CC=C(C=C3)C4=CC=CC=N4)C5=C(C(=CC=C5)Cl)Cl

> <PUBCHEM_OPENEYE_ISO_SMILES>
C1CN(CCN1C[C@@H]2C[C@@H]2CNC(=O)C3=CC=C(C=C3)C4=CC=CC=N4)C5=C(C(=CC=C5)Cl)Cl

> <PUBCHEM_CACTVS_TPSA>
48.5

> <PUBCHEM_MONOISOTOPIC_WEIGHT>
494.1640169

> <PUBCHEM_TOTAL_CHARGE>
0

> <PUBCHEM_HEAVY_ATOM_COUNT>
34

> <PUBCHEM_ATOM_DEF_STEREO_COUNT>
2

> <PUBCHEM_ATOM_UDEF_STEREO_COUNT>
0

> <PUBCHEM_BOND_DEF_STEREO_COUNT>
0

> <PUBCHEM_BOND_UDEF_STEREO_COUNT>
0

> <PUBCHEM_ISOTOPIC_ATOM_COUNT>
0

> <PUBCHEM_COMPONENT_COUNT>
1

> <PUBCHEM_CACTVS_TAUTO_COUNT>
-1

> <PUBCHEM_COORDINATE_TYPE>
1
5
255

> <PUBCHEM_BONDANNOTATIONS>
18  20  8
18  21  8
19  22  8
19  23  8
20  24  8
21  25  8
22  27  8
23  28  8
24  26  8
25  26  8
27  29  8
28  29  8
30  31  8
31  32  8
32  34  8
33  34  8
7  30  8
7  33  8
8  11  6
9  12  6

$$$$
