166631293
  -OEChem-09292322062D

 72 76  0     1  0  0  0  0  0999 V2000
    7.1962   -4.7673    0.0000 O   0  0  0  0  0  0  0  0  0  0  0  0
    4.5981    1.7327    0.0000 N   0  0  3  0  0  0  0  0  0  0  0  0
    5.4641    4.2327    0.0000 N   0  0  0  0  0  0  0  0  0  0  0  0
    7.1962   -1.7673    0.0000 N   0  0  0  0  0  0  0  0  0  0  0  0
    4.6420   -0.2742    0.0000 N   0  0  0  0  0  0  0  0  0  0  0  0
    8.0901    2.6980    0.0000 N   0  0  0  0  0  0  0  0  0  0  0  0
    3.7320    1.2327    0.0000 C   0  0  1  0  0  0  0  0  0  0  0  0
    4.5981    2.7327    0.0000 C   0  0  0  0  0  0  0  0  0  0  0  0
    2.8660    1.7327    0.0000 C   0  0  0  0  0  0  0  0  0  0  0  0
    5.4641    3.2327    0.0000 C   0  0  1  0  0  0  0  0  0  0  0  0
    5.4641    1.2327    0.0000 C   0  0  0  0  0  0  0  0  0  0  0  0
    2.0000    1.2327    0.0000 C   0  0  0  0  0  0  0  0  0  0  0  0
    3.7320    0.2327    0.0000 C   0  0  0  0  0  0  0  0  0  0  0  0
    2.0000    0.2327    0.0000 C   0  0  0  0  0  0  0  0  0  0  0  0
    6.3301    2.7327    0.0000 C   0  0  0  0  0  0  0  0  0  0  0  0
    2.8660   -0.2673    0.0000 C   0  0  0  0  0  0  0  0  0  0  0  0
    5.4641    0.2327    0.0000 C   0  0  0  0  0  0  0  0  0  0  0  0
    6.3301   -0.2673    0.0000 C   0  0  0  0  0  0  0  0  0  0  0  0
    6.3301    4.7327    0.0000 C   0  0  0  0  0  0  0  0  0  0  0  0
    7.1962    3.2327    0.0000 C   0  0  0  0  0  0  0  0  0  0  0  0
    7.1962   -2.7673    0.0000 C   0  0  0  0  0  0  0  0  0  0  0  0
    6.3301   -1.2673    0.0000 C   0  0  0  0  0  0  0  0  0  0  0  0
    7.1962    4.2327    0.0000 C   0  0  0  0  0  0  0  0  0  0  0  0
    2.8500   -1.3088    0.0000 C   0  0  0  0  0  0  0  0  0  0  0  0
    8.0622   -3.2673    0.0000 C   0  0  0  0  0  0  0  0  0  0  0  0
    6.3301   -3.2673    0.0000 C   0  0  0  0  0  0  0  0  0  0  0  0
    8.0622   -4.2673    0.0000 C   0  0  0  0  0  0  0  0  0  0  0  0
    6.3301   -4.2673    0.0000 C   0  0  0  0  0  0  0  0  0  0  0  0
    3.7480   -1.8366    0.0000 C   0  0  0  0  0  0  0  0  0  0  0  0
    4.6501   -1.3158    0.0000 C   0  0  0  0  0  0  0  0  0  0  0  0
    8.0901    4.7673    0.0000 C   0  0  0  0  0  0  0  0  0  0  0  0
    8.9962    4.2535    0.0000 C   0  0  0  0  0  0  0  0  0  0  0  0
    8.9962    3.2118    0.0000 C   0  0  0  0  0  0  0  0  0  0  0  0
    3.7320    1.8527    0.0000 H   0  0  0  0  0  0  0  0  0  0  0  0
    4.3860    3.3153    0.0000 H   0  0  0  0  0  0  0  0  0  0  0  0
    3.9875    2.6250    0.0000 H   0  0  0  0  0  0  0  0  0  0  0  0
    3.2646    2.2076    0.0000 H   0  0  0  0  0  0  0  0  0  0  0  0
    2.4675    2.2076    0.0000 H   0  0  0  0  0  0  0  0  0  0  0  0
    4.9272    3.5427    0.0000 H   0  0  0  0  0  0  0  0  0  0  0  0
    6.0747    1.1250    0.0000 H   0  0  0  0  0  0  0  0  0  0  0  0
    5.6762    1.8153    0.0000 H   0  0  0  0  0  0  0  0  0  0  0  0
    1.7880    1.8153    0.0000 H   0  0  0  0  0  0  0  0  0  0  0  0
    1.3894    1.1250    0.0000 H   0  0  0  0  0  0  0  0  0  0  0  0
    1.3894    0.3403    0.0000 H   0  0  0  0  0  0  0  0  0  0  0  0
    1.7880   -0.3499    0.0000 H   0  0  0  0  0  0  0  0  0  0  0  0
    5.9316    2.2577    0.0000 H   0  0  0  0  0  0  0  0  0  0  0  0
    6.7287    2.2577    0.0000 H   0  0  0  0  0  0  0  0  0  0  0  0
    4.8535    0.3403    0.0000 H   0  0  0  0  0  0  0  0  0  0  0  0
    5.2520   -0.3499    0.0000 H   0  0  0  0  0  0  0  0  0  0  0  0
    4.9272    4.5427    0.0000 H   0  0  0  0  0  0  0  0  0  0  0  0
    6.9407   -0.3750    0.0000 H   0  0  0  0  0  0  0  0  0  0  0  0
    6.5422    0.3153    0.0000 H   0  0  0  0  0  0  0  0  0  0  0  0
    6.7287    5.2076    0.0000 H   0  0  0  0  0  0  0  0  0  0  0  0
    5.9316    5.2076    0.0000 H   0  0  0  0  0  0  0  0  0  0  0  0
    6.6592   -2.4573    0.0000 H   0  0  0  0  0  0  0  0  0  0  0  0
    5.7196   -1.1597    0.0000 H   0  0  0  0  0  0  0  0  0  0  0  0
    6.1181   -1.8499    0.0000 H   0  0  0  0  0  0  0  0  0  0  0  0
    7.7331   -1.4573    0.0000 H   0  0  0  0  0  0  0  0  0  0  0  0
    2.3095   -1.6126    0.0000 H   0  0  0  0  0  0  0  0  0  0  0  0
    8.6728   -3.3750    0.0000 H   0  0  0  0  0  0  0  0  0  0  0  0
    8.2742   -2.6847    0.0000 H   0  0  0  0  0  0  0  0  0  0  0  0
    6.1181   -2.6847    0.0000 H   0  0  0  0  0  0  0  0  0  0  0  0
    5.7196   -3.3750    0.0000 H   0  0  0  0  0  0  0  0  0  0  0  0
    8.2742   -4.8499    0.0000 H   0  0  0  0  0  0  0  0  0  0  0  0
    8.6728   -4.1597    0.0000 H   0  0  0  0  0  0  0  0  0  0  0  0
    5.7196   -4.1597    0.0000 H   0  0  0  0  0  0  0  0  0  0  0  0
    6.1181   -4.8499    0.0000 H   0  0  0  0  0  0  0  0  0  0  0  0
    3.7456   -2.4566    0.0000 H   0  0  0  0  0  0  0  0  0  0  0  0
    5.1882   -1.6237    0.0000 H   0  0  0  0  0  0  0  0  0  0  0  0
    8.0829    5.3873    0.0000 H   0  0  0  0  0  0  0  0  0  0  0  0
    9.5319    4.5656    0.0000 H   0  0  0  0  0  0  0  0  0  0  0  0
    9.5319    2.8998    0.0000 H   0  0  0  0  0  0  0  0  0  0  0  0
  1 27  1  0  0  0  0
  1 28  1  0  0  0  0
  7  2  1  6  0  0  0
  2  8  1  0  0  0  0
  2 11  1  0  0  0  0
  3 10  1  0  0  0  0
  3 19  1  0  0  0  0
  3 50  1  0  0  0  0
  4 21  1  0  0  0  0
  4 22  1  0  0  0  0
  4 58  1  0  0  0  0
  5 13  1  0  0  0  0
  5 30  2  0  0  0  0
  6 20  1  0  0  0  0
  6 33  2  0  0  0  0
  7  9  1  0  0  0  0
  7 13  1  0  0  0  0
  7 34  1  0  0  0  0
 10  8  1  6  0  0  0
  8 35  1  0  0  0  0
  8 36  1  0  0  0  0
  9 12  1  0  0  0  0
  9 37  1  0  0  0  0
  9 38  1  0  0  0  0
 10 15  1  0  0  0  0
 10 39  1  0  0  0  0
 11 17  1  0  0  0  0
 11 40  1  0  0  0  0
 11 41  1  0  0  0  0
 12 14  1  0  0  0  0
 12 42  1  0  0  0  0
 12 43  1  0  0  0  0
 13 16  2  0  0  0  0
 14 16  1  0  0  0  0
 14 44  1  0  0  0  0
 14 45  1  0  0  0  0
 15 20  1  0  0  0  0
 15 46  1  0  0  0  0
 15 47  1  0  0  0  0
 16 24  1  0  0  0  0
 17 18  1  0  0  0  0
 17 48  1  0  0  0  0
 17 49  1  0  0  0  0
 18 22  1  0  0  0  0
 18 51  1  0  0  0  0
 18 52  1  0  0  0  0
 19 23  1  0  0  0  0
 19 53  1  0  0  0  0
 19 54  1  0  0  0  0
 20 23  2  0  0  0  0
 21 25  1  0  0  0  0
 21 26  1  0  0  0  0
 21 55  1  0  0  0  0
 22 56  1  0  0  0  0
 22 57  1  0  0  0  0
 23 31  1  0  0  0  0
 24 29  2  0  0  0  0
 24 59  1  0  0  0  0
 25 27  1  0  0  0  0
 25 60  1  0  0  0  0
 25 61  1  0  0  0  0
 26 28  1  0  0  0  0
 26 62  1  0  0  0  0
 26 63  1  0  0  0  0
 27 64  1  0  0  0  0
 27 65  1  0  0  0  0
 28 66  1  0  0  0  0
 28 67  1  0  0  0  0
 29 30  1  0  0  0  0
 29 68  1  0  0  0  0
 30 69  1  0  0  0  0
 31 32  2  0  0  0  0
 31 70  1  0  0  0  0
 32 33  1  0  0  0  0
 32 71  1  0  0  0  0
 33 72  1  0  0  0  0
M  END
> <PUBCHEM_COMPOUND_CID>
166631293

> <PUBCHEM_COMPOUND_CANONICALIZED>
1

> <PUBCHEM_CACTVS_COMPLEXITY>
571

> <PUBCHEM_CACTVS_HBOND_ACCEPTOR>
6

> <PUBCHEM_CACTVS_HBOND_DONOR>
2

> <PUBCHEM_CACTVS_ROTATABLE_BOND>
9

> <PUBCHEM_CACTVS_SUBSKEYS>
AAADcfB7oAAAAAAAAAAAAAAAAAAAAAAAAAA8WLEiAAAAAACx4AAAHgAQAAAADCjhngY8gJPIFACgAzRnRACCgCAxAiAI2KA4ZJgIYOLA0ZGWIAhmkADIyAeQgIAOAAAAAAAAAAAAAACAAAQAQAAAAAAAAA==

> <PUBCHEM_IUPAC_OPENEYE_NAME>
N'-[[(7R)-5,6,7,8-tetrahydro-1,6-naphthyridin-7-yl]methyl]-N-tetrahydropyran-4-yl-N'-[(8S)-5,6,7,8-tetrahydroquinolin-8-yl]butane-1,4-diamine

> <PUBCHEM_IUPAC_CAS_NAME>
N-(4-oxanyl)-N'-[[(7R)-5,6,7,8-tetrahydro-1,6-naphthyridin-7-yl]methyl]-N'-[(8S)-5,6,7,8-tetrahydroquinolin-8-yl]butane-1,4-diamine

> <PUBCHEM_IUPAC_NAME_MARKUP>
<I>N</I>-(oxan-4-yl)-<I>N</I>&apos;-[[(7<I>R</I>)-5,6,7,8-tetrahydro-1,6-naphthyridin-7-yl]methyl]-<I>N</I>&apos;-[(8<I>S</I>)-5,6,7,8-tetrahydroquinolin-8-yl]butane-1,4-diamine

> <PUBCHEM_IUPAC_NAME>
N-(oxan-4-yl)-N'-[[(7R)-5,6,7,8-tetrahydro-1,6-naphthyridin-7-yl]methyl]-N'-[(8S)-5,6,7,8-tetrahydroquinolin-8-yl]butane-1,4-diamine

> <PUBCHEM_IUPAC_SYSTEMATIC_NAME>
N-(oxan-4-yl)-N'-[[(7R)-5,6,7,8-tetrahydro-1,6-naphthyridin-7-yl]methyl]-N'-[(8S)-5,6,7,8-tetrahydroquinolin-8-yl]butane-1,4-diamine

> <PUBCHEM_IUPAC_TRADITIONAL_NAME>
[(7R)-5,6,7,8-tetrahydro-1,6-naphthyridin-7-yl]methyl-[4-(tetrahydropyran-4-ylamino)butyl]-[(8S)-5,6,7,8-tetrahydroquinolin-8-yl]amine

> <PUBCHEM_IUPAC_INCHI>
InChI=1S/C27H39N5O/c1(12-28-23-10-16-33-17-11-23)2-15-32(26-9-3-6-21-7-4-14-30-27(21)26)20-24-18-25-22(19-31-24)8-5-13-29-25/h4-5,7-8,13-14,23-24,26,28,31H,1-3,6,9-12,15-20H2/t24-,26+/m1/s1

> <PUBCHEM_IUPAC_INCHIKEY>
POWOJVYGOJPOQL-RSXGOPAZSA-N

> <PUBCHEM_XLOGP3_AA>
2.3

> <PUBCHEM_EXACT_MASS>
449.31546088

> <PUBCHEM_MOLECULAR_FORMULA>
C27H39N5O

> <PUBCHEM_MOLECULAR_WEIGHT>
449.6

> <PUBCHEM_OPENEYE_CAN_SMILES>
C1CC(C2=C(C1)C=CC=N2)N(CCCCNC3CCOCC3)CC4CC5=C(CN4)C=CC=N5

> <PUBCHEM_OPENEYE_ISO_SMILES>
C1C[C@@H](C2=C(C1)C=CC=N2)N(CCCCNC3CCOCC3)C[C@H]4CC5=C(CN4)C=CC=N5

> <PUBCHEM_CACTVS_TPSA>
62.3

> <PUBCHEM_MONOISOTOPIC_WEIGHT>
449.31546088

> <PUBCHEM_TOTAL_CHARGE>
0

> <PUBCHEM_HEAVY_ATOM_COUNT>
33

> <PUBCHEM_ATOM_DEF_STEREO_COUNT>
2

> <PUBCHEM_ATOM_UDEF_STEREO_COUNT>
0

> <PUBCHEM_BOND_DEF_STEREO_COUNT>
0

> <PUBCHEM_BOND_UDEF_STEREO_COUNT>
0

> <PUBCHEM_ISOTOPIC_ATOM_COUNT>
0

> <PUBCHEM_COMPONENT_COUNT>
1

> <PUBCHEM_CACTVS_TAUTO_COUNT>
-1

> <PUBCHEM_COORDINATE_TYPE>
1
5
255

> <PUBCHEM_BONDANNOTATIONS>
13  16  8
16  24  8
7  2  6
20  23  8
23  31  8
24  29  8
29  30  8
31  32  8
32  33  8
5  13  8
5  30  8
6  20  8
6  33  8
10  8  6

$$$$
