10805355
  -OEChem-09292322102D

 43 44  0     0  0  0  0  0  0999 V2000
    2.8660   -3.2500    0.0000 O   0  0  0  0  0  0  0  0  0  0  0  0
    6.3301    1.7500    0.0000 O   0  0  0  0  0  0  0  0  0  0  0  0
    7.1962    6.2500    0.0000 O   0  5  0  0  0  0  0  0  0  0  0  0
    5.4641    6.2500    0.0000 O   0  0  0  0  0  0  0  0  0  0  0  0
    4.5981   -0.2500    0.0000 N   0  0  0  0  0  0  0  0  0  0  0  0
    6.3301    5.7500    0.0000 N   0  3  0  0  0  0  0  0  0  0  0  0
    4.5981   -1.2500    0.0000 C   0  0  0  0  0  0  0  0  0  0  0  0
    3.7320   -1.7500    0.0000 C   0  0  0  0  0  0  0  0  0  0  0  0
    5.4641    0.2500    0.0000 C   0  0  0  0  0  0  0  0  0  0  0  0
    3.7320   -2.7500    0.0000 C   0  0  0  0  0  0  0  0  0  0  0  0
    5.4641    1.2500    0.0000 C   0  0  0  0  0  0  0  0  0  0  0  0
    6.3301    2.7500    0.0000 C   0  0  0  0  0  0  0  0  0  0  0  0
    2.8660   -4.2500    0.0000 C   0  0  0  0  0  0  0  0  0  0  0  0
    5.4641    3.2500    0.0000 C   0  0  0  0  0  0  0  0  0  0  0  0
    7.1962    3.2500    0.0000 C   0  0  0  0  0  0  0  0  0  0  0  0
    2.0000   -4.7500    0.0000 C   0  0  0  0  0  0  0  0  0  0  0  0
    3.7320   -4.7500    0.0000 C   0  0  0  0  0  0  0  0  0  0  0  0
    6.3301    4.7500    0.0000 C   0  0  0  0  0  0  0  0  0  0  0  0
    5.4641    4.2500    0.0000 C   0  0  0  0  0  0  0  0  0  0  0  0
    7.1962    4.2500    0.0000 C   0  0  0  0  0  0  0  0  0  0  0  0
    2.0000   -5.7500    0.0000 C   0  0  0  0  0  0  0  0  0  0  0  0
    3.7320   -5.7500    0.0000 C   0  0  0  0  0  0  0  0  0  0  0  0
    2.8660   -6.2500    0.0000 C   0  0  0  0  0  0  0  0  0  0  0  0
    4.8101   -1.8326    0.0000 H   0  0  0  0  0  0  0  0  0  0  0  0
    5.2087   -1.1423    0.0000 H   0  0  0  0  0  0  0  0  0  0  0  0
    3.5200   -1.1674    0.0000 H   0  0  0  0  0  0  0  0  0  0  0  0
    3.1215   -1.8577    0.0000 H   0  0  0  0  0  0  0  0  0  0  0  0
    5.6762   -0.3326    0.0000 H   0  0  0  0  0  0  0  0  0  0  0  0
    6.0747    0.3577    0.0000 H   0  0  0  0  0  0  0  0  0  0  0  0
    4.0611    0.0600    0.0000 H   0  0  0  0  0  0  0  0  0  0  0  0
    3.9441   -3.3326    0.0000 H   0  0  0  0  0  0  0  0  0  0  0  0
    4.3426   -2.6423    0.0000 H   0  0  0  0  0  0  0  0  0  0  0  0
    5.2520    1.8326    0.0000 H   0  0  0  0  0  0  0  0  0  0  0  0
    4.8535    1.1423    0.0000 H   0  0  0  0  0  0  0  0  0  0  0  0
    4.9272    2.9400    0.0000 H   0  0  0  0  0  0  0  0  0  0  0  0
    7.7331    2.9400    0.0000 H   0  0  0  0  0  0  0  0  0  0  0  0
    1.4631   -4.4400    0.0000 H   0  0  0  0  0  0  0  0  0  0  0  0
    4.2690   -4.4400    0.0000 H   0  0  0  0  0  0  0  0  0  0  0  0
    4.9272    4.5600    0.0000 H   0  0  0  0  0  0  0  0  0  0  0  0
    7.7331    4.5600    0.0000 H   0  0  0  0  0  0  0  0  0  0  0  0
    1.4631   -6.0600    0.0000 H   0  0  0  0  0  0  0  0  0  0  0  0
    4.2690   -6.0600    0.0000 H   0  0  0  0  0  0  0  0  0  0  0  0
    2.8660   -6.8700    0.0000 H   0  0  0  0  0  0  0  0  0  0  0  0
  1 10  1  0  0  0  0
  1 13  1  0  0  0  0
  2 11  1  0  0  0  0
  2 12  1  0  0  0  0
  3  6  1  0  0  0  0
  4  6  2  0  0  0  0
  5  7  1  0  0  0  0
  5  9  1  0  0  0  0
  5 30  1  0  0  0  0
  6 18  1  0  0  0  0
  7  8  1  0  0  0  0
  7 24  1  0  0  0  0
  7 25  1  0  0  0  0
  8 10  1  0  0  0  0
  8 26  1  0  0  0  0
  8 27  1  0  0  0  0
  9 11  1  0  0  0  0
  9 28  1  0  0  0  0
  9 29  1  0  0  0  0
 10 31  1  0  0  0  0
 10 32  1  0  0  0  0
 11 33  1  0  0  0  0
 11 34  1  0  0  0  0
 12 14  2  0  0  0  0
 12 15  1  0  0  0  0
 13 16  2  0  0  0  0
 13 17  1  0  0  0  0
 14 19  1  0  0  0  0
 14 35  1  0  0  0  0
 15 20  2  0  0  0  0
 15 36  1  0  0  0  0
 16 21  1  0  0  0  0
 16 37  1  0  0  0  0
 17 22  2  0  0  0  0
 17 38  1  0  0  0  0
 18 19  2  0  0  0  0
 18 20  1  0  0  0  0
 19 39  1  0  0  0  0
 20 40  1  0  0  0  0
 21 23  2  0  0  0  0
 21 41  1  0  0  0  0
 22 23  1  0  0  0  0
 22 42  1  0  0  0  0
 23 43  1  0  0  0  0
M  CHG  2   3  -1   6   1
M  END
> <PUBCHEM_COMPOUND_CID>
10805355

> <PUBCHEM_COMPOUND_CANONICALIZED>
1

> <PUBCHEM_CACTVS_COMPLEXITY>
321

> <PUBCHEM_CACTVS_HBOND_ACCEPTOR>
5

> <PUBCHEM_CACTVS_HBOND_DONOR>
1

> <PUBCHEM_CACTVS_ROTATABLE_BOND>
9

> <PUBCHEM_CACTVS_SUBSKEYS>
AAADceB7OAAAAAAAAAAAAAAAAAAAAAAAAAAwYAAAAAAAAAABQAAAHgAUAAAACAzhkAYwxoLQRACBACRCQwCCCAAgIgAoiIAObIoOJiKEsZuHOCDm0BGY6AewQAAAAEAAAAAAAAAAgAAAAAAAAAAAAAAAAA==

> <PUBCHEM_IUPAC_OPENEYE_NAME>
N-[2-(4-nitrophenoxy)ethyl]-3-phenoxy-propan-1-amine

> <PUBCHEM_IUPAC_CAS_NAME>
N-[2-(4-nitrophenoxy)ethyl]-3-phenoxy-1-propanamine

> <PUBCHEM_IUPAC_NAME_MARKUP>
<I>N</I>-[2-(4-nitrophenoxy)ethyl]-3-phenoxypropan-1-amine

> <PUBCHEM_IUPAC_NAME>
N-[2-(4-nitrophenoxy)ethyl]-3-phenoxypropan-1-amine

> <PUBCHEM_IUPAC_SYSTEMATIC_NAME>
N-[2-(4-nitrophenoxy)ethyl]-3-phenoxy-propan-1-amine

> <PUBCHEM_IUPAC_TRADITIONAL_NAME>
2-(4-nitrophenoxy)ethyl-(3-phenoxypropyl)amine

> <PUBCHEM_IUPAC_INCHI>
InChI=1S/C17H20N2O4/c20-19(21)15-7-9-17(10-8-15)23-14-12-18-11-4-13-22-16-5-2-1-3-6-16/h1-3,5-10,18H,4,11-14H2

> <PUBCHEM_IUPAC_INCHIKEY>
OVTLMIGCVPXGIF-UHFFFAOYSA-N

> <PUBCHEM_XLOGP3_AA>
3.3

> <PUBCHEM_EXACT_MASS>
316.14230712

> <PUBCHEM_MOLECULAR_FORMULA>
C17H20N2O4

> <PUBCHEM_MOLECULAR_WEIGHT>
316.35

> <PUBCHEM_OPENEYE_CAN_SMILES>
C1=CC=C(C=C1)OCCCNCCOC2=CC=C(C=C2)[N+](=O)[O-]

> <PUBCHEM_OPENEYE_ISO_SMILES>
C1=CC=C(C=C1)OCCCNCCOC2=CC=C(C=C2)[N+](=O)[O-]

> <PUBCHEM_CACTVS_TPSA>
76.3

> <PUBCHEM_MONOISOTOPIC_WEIGHT>
316.14230712

> <PUBCHEM_TOTAL_CHARGE>
0

> <PUBCHEM_HEAVY_ATOM_COUNT>
23

> <PUBCHEM_ATOM_DEF_STEREO_COUNT>
0

> <PUBCHEM_ATOM_UDEF_STEREO_COUNT>
0

> <PUBCHEM_BOND_DEF_STEREO_COUNT>
0

> <PUBCHEM_BOND_UDEF_STEREO_COUNT>
0

> <PUBCHEM_ISOTOPIC_ATOM_COUNT>
0

> <PUBCHEM_COMPONENT_COUNT>
1

> <PUBCHEM_CACTVS_TAUTO_COUNT>
-1

> <PUBCHEM_COORDINATE_TYPE>
1
5
255

> <PUBCHEM_BONDANNOTATIONS>
12  14  8
12  15  8
13  16  8
13  17  8
14  19  8
15  20  8
16  21  8
17  22  8
18  19  8
18  20  8
21  23  8
22  23  8

$$$$
