11576528
  -OEChem-09292322242D

 71 74  0     0  0  0  0  0  0999 V2000
   11.6691   -5.1193    0.0000 O   0  0  0  0  0  0  0  0  0  0  0  0
    8.2050    3.8807    0.0000 O   0  0  0  0  0  0  0  0  0  0  0  0
    9.9371   -2.1193    0.0000 N   0  0  0  0  0  0  0  0  0  0  0  0
    9.9371   -4.1193    0.0000 N   0  0  0  0  0  0  0  0  0  0  0  0
    7.3390    2.3807    0.0000 N   0  0  0  0  0  0  0  0  0  0  0  0
    5.3903    5.0831    0.0000 N   0  0  0  0  0  0  0  0  0  0  0  0
    5.5594    3.4740    0.0000 N   0  0  0  0  0  0  0  0  0  0  0  0
    4.8903    4.2171    0.0000 N   0  0  0  0  0  0  0  0  0  0  0  0
   10.8031   -2.6193    0.0000 C   0  0  0  0  0  0  0  0  0  0  0  0
    9.0710   -2.6193    0.0000 C   0  0  0  0  0  0  0  0  0  0  0  0
   10.8031   -3.6193    0.0000 C   0  0  0  0  0  0  0  0  0  0  0  0
    9.0710   -3.6193    0.0000 C   0  0  0  0  0  0  0  0  0  0  0  0
    9.9371   -1.1193    0.0000 C   0  0  0  0  0  0  0  0  0  0  0  0
    9.0710   -0.6193    0.0000 C   0  0  0  0  0  0  0  0  0  0  0  0
    9.0710    0.3807    0.0000 C   0  0  0  0  0  0  0  0  0  0  0  0
    9.9371   -5.1193    0.0000 C   0  0  0  0  0  0  0  0  0  0  0  0
    8.2050    0.8807    0.0000 C   0  0  0  0  0  0  0  0  0  0  0  0
   10.8031   -5.6193    0.0000 C   0  0  0  0  0  0  0  0  0  0  0  0
    8.2050    1.8807    0.0000 C   0  0  0  0  0  0  0  0  0  0  0  0
    9.0710   -5.6193    0.0000 C   0  0  0  0  0  0  0  0  0  0  0  0
   10.8031   -6.6193    0.0000 C   0  0  0  0  0  0  0  0  0  0  0  0
    9.0710   -6.6193    0.0000 C   0  0  0  0  0  0  0  0  0  0  0  0
    9.9371   -7.1193    0.0000 C   0  0  0  0  0  0  0  0  0  0  0  0
    7.3390    3.3807    0.0000 C   0  0  0  0  0  0  0  0  0  0  0  0
    6.4730    3.8807    0.0000 C   0  0  0  0  0  0  0  0  0  0  0  0
   12.5352   -5.6193    0.0000 C   0  0  0  0  0  0  0  0  0  0  0  0
    6.3684    4.8752    0.0000 C   0  0  0  0  0  0  0  0  0  0  0  0
    4.9836    5.9967    0.0000 C   0  0  0  0  0  0  0  0  0  0  0  0
    7.1116    5.5444    0.0000 C   0  0  0  0  0  0  0  0  0  0  0  0
    3.9890    6.1012    0.0000 C   0  0  0  0  0  0  0  0  0  0  0  0
    3.4013    5.2922    0.0000 C   0  0  0  0  0  0  0  0  0  0  0  0
    3.5823    7.0148    0.0000 C   0  0  0  0  0  0  0  0  0  0  0  0
    2.4067    5.3967    0.0000 C   0  0  0  0  0  0  0  0  0  0  0  0
    2.5878    7.1193    0.0000 C   0  0  0  0  0  0  0  0  0  0  0  0
    2.0000    6.3103    0.0000 C   0  0  0  0  0  0  0  0  0  0  0  0
   11.4137   -2.7270    0.0000 H   0  0  0  0  0  0  0  0  0  0  0  0
   11.0152   -2.0367    0.0000 H   0  0  0  0  0  0  0  0  0  0  0  0
    8.8590   -2.0367    0.0000 H   0  0  0  0  0  0  0  0  0  0  0  0
    8.4605   -2.7270    0.0000 H   0  0  0  0  0  0  0  0  0  0  0  0
   11.0152   -4.2019    0.0000 H   0  0  0  0  0  0  0  0  0  0  0  0
   11.4137   -3.5116    0.0000 H   0  0  0  0  0  0  0  0  0  0  0  0
    8.4605   -3.5116    0.0000 H   0  0  0  0  0  0  0  0  0  0  0  0
    8.8590   -4.2019    0.0000 H   0  0  0  0  0  0  0  0  0  0  0  0
   10.5477   -1.2270    0.0000 H   0  0  0  0  0  0  0  0  0  0  0  0
   10.1491   -0.5367    0.0000 H   0  0  0  0  0  0  0  0  0  0  0  0
    8.4605   -0.5116    0.0000 H   0  0  0  0  0  0  0  0  0  0  0  0
    8.8590   -1.2019    0.0000 H   0  0  0  0  0  0  0  0  0  0  0  0
    9.6816    0.2730    0.0000 H   0  0  0  0  0  0  0  0  0  0  0  0
    9.2831    0.9633    0.0000 H   0  0  0  0  0  0  0  0  0  0  0  0
    7.5944    0.9884    0.0000 H   0  0  0  0  0  0  0  0  0  0  0  0
    7.9930    0.2981    0.0000 H   0  0  0  0  0  0  0  0  0  0  0  0
    8.8156    1.7730    0.0000 H   0  0  0  0  0  0  0  0  0  0  0  0
    8.4171    2.4633    0.0000 H   0  0  0  0  0  0  0  0  0  0  0  0
    8.5341   -5.3093    0.0000 H   0  0  0  0  0  0  0  0  0  0  0  0
   11.3400   -6.9293    0.0000 H   0  0  0  0  0  0  0  0  0  0  0  0
    8.5341   -6.9293    0.0000 H   0  0  0  0  0  0  0  0  0  0  0  0
    6.8021    2.0707    0.0000 H   0  0  0  0  0  0  0  0  0  0  0  0
    9.9371   -7.7393    0.0000 H   0  0  0  0  0  0  0  0  0  0  0  0
   12.2252   -6.1562    0.0000 H   0  0  0  0  0  0  0  0  0  0  0  0
   13.0721   -5.9293    0.0000 H   0  0  0  0  0  0  0  0  0  0  0  0
   12.8452   -5.0824    0.0000 H   0  0  0  0  0  0  0  0  0  0  0  0
    5.5851    6.1467    0.0000 H   0  0  0  0  0  0  0  0  0  0  0  0
    4.9403    6.6152    0.0000 H   0  0  0  0  0  0  0  0  0  0  0  0
    7.5265    5.0836    0.0000 H   0  0  0  0  0  0  0  0  0  0  0  0
    7.5723    5.9592    0.0000 H   0  0  0  0  0  0  0  0  0  0  0  0
    6.6967    6.0051    0.0000 H   0  0  0  0  0  0  0  0  0  0  0  0
    3.6534    4.7258    0.0000 H   0  0  0  0  0  0  0  0  0  0  0  0
    3.9467    7.5164    0.0000 H   0  0  0  0  0  0  0  0  0  0  0  0
    2.0423    4.8951    0.0000 H   0  0  0  0  0  0  0  0  0  0  0  0
    2.3356    7.6857    0.0000 H   0  0  0  0  0  0  0  0  0  0  0  0
    1.3834    6.3751    0.0000 H   0  0  0  0  0  0  0  0  0  0  0  0
  1 18  1  0  0  0  0
  1 26  1  0  0  0  0
  2 24  2  0  0  0  0
  3  9  1  0  0  0  0
  3 10  1  0  0  0  0
  3 13  1  0  0  0  0
  4 11  1  0  0  0  0
  4 12  1  0  0  0  0
  4 16  1  0  0  0  0
  5 19  1  0  0  0  0
  5 24  1  0  0  0  0
  5 57  1  0  0  0  0
  6  8  1  0  0  0  0
  6 27  1  0  0  0  0
  6 28  1  0  0  0  0
  7  8  2  0  0  0  0
  7 25  1  0  0  0  0
  9 11  1  0  0  0  0
  9 36  1  0  0  0  0
  9 37  1  0  0  0  0
 10 12  1  0  0  0  0
 10 38  1  0  0  0  0
 10 39  1  0  0  0  0
 11 40  1  0  0  0  0
 11 41  1  0  0  0  0
 12 42  1  0  0  0  0
 12 43  1  0  0  0  0
 13 14  1  0  0  0  0
 13 44  1  0  0  0  0
 13 45  1  0  0  0  0
 14 15  1  0  0  0  0
 14 46  1  0  0  0  0
 14 47  1  0  0  0  0
 15 17  1  0  0  0  0
 15 48  1  0  0  0  0
 15 49  1  0  0  0  0
 16 18  1  0  0  0  0
 16 20  2  0  0  0  0
 17 19  1  0  0  0  0
 17 50  1  0  0  0  0
 17 51  1  0  0  0  0
 18 21  2  0  0  0  0
 19 52  1  0  0  0  0
 19 53  1  0  0  0  0
 20 22  1  0  0  0  0
 20 54  1  0  0  0  0
 21 23  1  0  0  0  0
 21 55  1  0  0  0  0
 22 23  2  0  0  0  0
 22 56  1  0  0  0  0
 23 58  1  0  0  0  0
 24 25  1  0  0  0  0
 25 27  2  0  0  0  0
 26 59  1  0  0  0  0
 26 60  1  0  0  0  0
 26 61  1  0  0  0  0
 27 29  1  0  0  0  0
 28 30  1  0  0  0  0
 28 62  1  0  0  0  0
 28 63  1  0  0  0  0
 29 64  1  0  0  0  0
 29 65  1  0  0  0  0
 29 66  1  0  0  0  0
 30 31  2  0  0  0  0
 30 32  1  0  0  0  0
 31 33  1  0  0  0  0
 31 67  1  0  0  0  0
 32 34  2  0  0  0  0
 32 68  1  0  0  0  0
 33 35  2  0  0  0  0
 33 69  1  0  0  0  0
 34 35  1  0  0  0  0
 34 70  1  0  0  0  0
 35 71  1  0  0  0  0
M  END
> <PUBCHEM_COMPOUND_CID>
11576528

> <PUBCHEM_COMPOUND_CANONICALIZED>
1

> <PUBCHEM_CACTVS_COMPLEXITY>
623

> <PUBCHEM_CACTVS_HBOND_ACCEPTOR>
6

> <PUBCHEM_CACTVS_HBOND_DONOR>
1

> <PUBCHEM_CACTVS_ROTATABLE_BOND>
11

> <PUBCHEM_CACTVS_SUBSKEYS>
AAADcfB7sAAAAAAAAAAAAAAAAAAAAWAAAAA8YIAAAAAAAAAB0AAAHgAYAAAADAzBngYyxpPIBACqAyVyVACCDAQnsgAY2IG/fMgOZjrE8ZuVMahk1hHY6UeQwAAOAAAAAAAAEAAAAAAAAAAgAAAAAAAAAA==

> <PUBCHEM_IUPAC_OPENEYE_NAME>
1-benzyl-N-[5-[4-(2-methoxyphenyl)piperazin-1-yl]pentyl]-5-methyl-triazole-4-carboxamide

> <PUBCHEM_IUPAC_CAS_NAME>
N-[5-[4-(2-methoxyphenyl)-1-piperazinyl]pentyl]-5-methyl-1-(phenylmethyl)-4-triazolecarboxamide

> <PUBCHEM_IUPAC_NAME_MARKUP>
1-benzyl-<I>N</I>-[5-[4-(2-methoxyphenyl)piperazin-1-yl]pentyl]-5-methyltriazole-4-carboxamide

> <PUBCHEM_IUPAC_NAME>
1-benzyl-N-[5-[4-(2-methoxyphenyl)piperazin-1-yl]pentyl]-5-methyltriazole-4-carboxamide

> <PUBCHEM_IUPAC_SYSTEMATIC_NAME>
N-[5-[4-(2-methoxyphenyl)piperazin-1-yl]pentyl]-5-methyl-1-(phenylmethyl)-1,2,3-triazole-4-carboxamide

> <PUBCHEM_IUPAC_TRADITIONAL_NAME>
1-benzyl-N-[5-[4-(2-methoxyphenyl)piperazino]pentyl]-5-methyl-triazole-4-carboxamide

> <PUBCHEM_IUPAC_INCHI>
InChI=1S/C27H36N6O2/c1-22-26(29-30-33(22)21-23-11-5-3-6-12-23)27(34)28-15-9-4-10-16-31-17-19-32(20-18-31)24-13-7-8-14-25(24)35-2/h3,5-8,11-14H,4,9-10,15-21H2,1-2H3,(H,28,34)

> <PUBCHEM_IUPAC_INCHIKEY>
CYIRPXRIGGCJMZ-UHFFFAOYSA-N

> <PUBCHEM_XLOGP3_AA>
4

> <PUBCHEM_EXACT_MASS>
476.28997441

> <PUBCHEM_MOLECULAR_FORMULA>
C27H36N6O2

> <PUBCHEM_MOLECULAR_WEIGHT>
476.6

> <PUBCHEM_OPENEYE_CAN_SMILES>
CC1=C(N=NN1CC2=CC=CC=C2)C(=O)NCCCCCN3CCN(CC3)C4=CC=CC=C4OC

> <PUBCHEM_OPENEYE_ISO_SMILES>
CC1=C(N=NN1CC2=CC=CC=C2)C(=O)NCCCCCN3CCN(CC3)C4=CC=CC=C4OC

> <PUBCHEM_CACTVS_TPSA>
75.5

> <PUBCHEM_MONOISOTOPIC_WEIGHT>
476.28997441

> <PUBCHEM_TOTAL_CHARGE>
0

> <PUBCHEM_HEAVY_ATOM_COUNT>
35

> <PUBCHEM_ATOM_DEF_STEREO_COUNT>
0

> <PUBCHEM_ATOM_UDEF_STEREO_COUNT>
0

> <PUBCHEM_BOND_DEF_STEREO_COUNT>
0

> <PUBCHEM_BOND_UDEF_STEREO_COUNT>
0

> <PUBCHEM_ISOTOPIC_ATOM_COUNT>
0

> <PUBCHEM_COMPONENT_COUNT>
1

> <PUBCHEM_CACTVS_TAUTO_COUNT>
-1

> <PUBCHEM_COORDINATE_TYPE>
1
5
255

> <PUBCHEM_BONDANNOTATIONS>
16  18  8
16  20  8
18  21  8
20  22  8
21  23  8
22  23  8
25  27  8
30  31  8
30  32  8
31  33  8
32  34  8
33  35  8
34  35  8
6  27  8
6  8  8
7  25  8
7  8  8

$$$$
