2170
  -OEChem-09292322052D

 38 41  0     0  0  0  0  0  0999 V2000
    2.0000   -1.2559    0.0000 Cl  0  0  0  0  0  0  0  0  0  0  0  0
    5.8374   -2.5829    0.0000 O   0  0  0  0  0  0  0  0  0  0  0  0
    4.9036    0.5087    0.0000 N   0  0  0  0  0  0  0  0  0  0  0  0
    4.0358    2.3106    0.0000 N   0  0  0  0  0  0  0  0  0  0  0  0
    6.3374   -0.3923    0.0000 N   0  0  0  0  0  0  0  0  0  0  0  0
    5.4669    1.3349    0.0000 C   0  0  0  0  0  0  0  0  0  0  0  0
    3.9064    0.5834    0.0000 C   0  0  0  0  0  0  0  0  0  0  0  0
    5.0330    2.2359    0.0000 C   0  0  0  0  0  0  0  0  0  0  0  0
    3.4725    1.4844    0.0000 C   0  0  0  0  0  0  0  0  0  0  0  0
    5.3374   -0.3923    0.0000 C   0  0  0  0  0  0  0  0  0  0  0  0
    4.7139   -1.1741    0.0000 C   0  0  0  0  0  0  0  0  0  0  0  0
    4.9364   -2.1490    0.0000 C   0  0  0  0  0  0  0  0  0  0  0  0
    6.9609   -1.1741    0.0000 C   0  0  0  0  0  0  0  0  0  0  0  0
    3.7234   -0.8518    0.0000 C   0  0  0  0  0  0  0  0  0  0  0  0
    6.7384   -2.1490    0.0000 C   0  0  0  0  0  0  0  0  0  0  0  0
    4.1839   -2.8692    0.0000 C   0  0  0  0  0  0  0  0  0  0  0  0
    2.9544   -1.5543    0.0000 C   0  0  0  0  0  0  0  0  0  0  0  0
    3.1862   -2.5699    0.0000 C   0  0  0  0  0  0  0  0  0  0  0  0
    7.9514   -0.8518    0.0000 C   0  0  0  0  0  0  0  0  0  0  0  0
    7.4909   -2.8692    0.0000 C   0  0  0  0  0  0  0  0  0  0  0  0
    8.7204   -1.5544    0.0000 C   0  0  0  0  0  0  0  0  0  0  0  0
    8.4886   -2.5699    0.0000 C   0  0  0  0  0  0  0  0  0  0  0  0
    5.9107    0.9020    0.0000 H   0  0  0  0  0  0  0  0  0  0  0  0
    5.9703    1.6968    0.0000 H   0  0  0  0  0  0  0  0  0  0  0  0
    3.3095    0.4155    0.0000 H   0  0  0  0  0  0  0  0  0  0  0  0
    3.9681   -0.0335    0.0000 H   0  0  0  0  0  0  0  0  0  0  0  0
    5.6298    2.4038    0.0000 H   0  0  0  0  0  0  0  0  0  0  0  0
    4.9713    2.8528    0.0000 H   0  0  0  0  0  0  0  0  0  0  0  0
    3.0286    1.9173    0.0000 H   0  0  0  0  0  0  0  0  0  0  0  0
    2.9691    1.1225    0.0000 H   0  0  0  0  0  0  0  0  0  0  0  0
    3.7668    2.8692    0.0000 H   0  0  0  0  0  0  0  0  0  0  0  0
    3.5925   -0.2458    0.0000 H   0  0  0  0  0  0  0  0  0  0  0  0
    4.3288   -3.4720    0.0000 H   0  0  0  0  0  0  0  0  0  0  0  0
    2.7333   -2.9933    0.0000 H   0  0  0  0  0  0  0  0  0  0  0  0
    8.0824   -0.2458    0.0000 H   0  0  0  0  0  0  0  0  0  0  0  0
    7.3460   -3.4720    0.0000 H   0  0  0  0  0  0  0  0  0  0  0  0
    9.3122   -1.3694    0.0000 H   0  0  0  0  0  0  0  0  0  0  0  0
    8.9415   -2.9934    0.0000 H   0  0  0  0  0  0  0  0  0  0  0  0
  1 17  1  0  0  0  0
  2 12  1  0  0  0  0
  2 15  1  0  0  0  0
  3  6  1  0  0  0  0
  3  7  1  0  0  0  0
  3 10  1  0  0  0  0
  4  8  1  0  0  0  0
  4  9  1  0  0  0  0
  4 31  1  0  0  0  0
  5 10  2  0  0  0  0
  5 13  1  0  0  0  0
  6  8  1  0  0  0  0
  6 23  1  0  0  0  0
  6 24  1  0  0  0  0
  7  9  1  0  0  0  0
  7 25  1  0  0  0  0
  7 26  1  0  0  0  0
  8 27  1  0  0  0  0
  8 28  1  0  0  0  0
  9 29  1  0  0  0  0
  9 30  1  0  0  0  0
 10 11  1  0  0  0  0
 11 12  2  0  0  0  0
 11 14  1  0  0  0  0
 12 16  1  0  0  0  0
 13 15  1  0  0  0  0
 13 19  2  0  0  0  0
 14 17  2  0  0  0  0
 14 32  1  0  0  0  0
 15 20  2  0  0  0  0
 16 18  2  0  0  0  0
 16 33  1  0  0  0  0
 17 18  1  0  0  0  0
 18 34  1  0  0  0  0
 19 21  1  0  0  0  0
 19 35  1  0  0  0  0
 20 22  1  0  0  0  0
 20 36  1  0  0  0  0
 21 22  2  0  0  0  0
 21 37  1  0  0  0  0
 22 38  1  0  0  0  0
M  END
> <PUBCHEM_COMPOUND_CID>
2170

> <PUBCHEM_COMPOUND_CANONICALIZED>
1

> <PUBCHEM_CACTVS_COMPLEXITY>
424

> <PUBCHEM_CACTVS_HBOND_ACCEPTOR>
3

> <PUBCHEM_CACTVS_HBOND_DONOR>
1

> <PUBCHEM_CACTVS_ROTATABLE_BOND>
1

> <PUBCHEM_CACTVS_SUBSKEYS>
AAADceB7IAAEAAAAAAAAAAAAAAAAAAAAAAA8YIAABAAAAAABQAAAHgIQAAAADA7BmCQxxoPABACgAiZiZACCCAEgJwAJiIAvbpgOZqKFu5uXOCjm0BGI6AeQwCAOACAAIAAIEAAAQABAABAgAAAAAAAAAA==

> <PUBCHEM_IUPAC_OPENEYE_NAME>
8-chloro-6-piperazin-1-yl-benzo[b][1,4]benzoxazepine

> <PUBCHEM_IUPAC_CAS_NAME>
8-chloro-6-(1-piperazinyl)benzo[b][1,4]benzoxazepine

> <PUBCHEM_IUPAC_NAME_MARKUP>
8-chloro-6-piperazin-1-ylbenzo[b][1,4]benzoxazepine

> <PUBCHEM_IUPAC_NAME>
8-chloro-6-piperazin-1-ylbenzo[b][1,4]benzoxazepine

> <PUBCHEM_IUPAC_SYSTEMATIC_NAME>
8-chloranyl-6-piperazin-1-yl-benzo[b][1,4]benzoxazepine

> <PUBCHEM_IUPAC_TRADITIONAL_NAME>
8-chloro-6-piperazino-benzo[b][1,4]benzoxazepine

> <PUBCHEM_IUPAC_INCHI>
InChI=1S/C17H16ClN3O/c18-12-5-6-15-13(11-12)17(21-9-7-19-8-10-21)20-14-3-1-2-4-16(14)22-15/h1-6,11,19H,7-10H2

> <PUBCHEM_IUPAC_INCHIKEY>
QWGDMFLQWFTERH-UHFFFAOYSA-N

> <PUBCHEM_XLOGP3_AA>
2.6

> <PUBCHEM_EXACT_MASS>
313.0981898

> <PUBCHEM_MOLECULAR_FORMULA>
C17H16ClN3O

> <PUBCHEM_MOLECULAR_WEIGHT>
313.8

> <PUBCHEM_OPENEYE_CAN_SMILES>
C1CN(CCN1)C2=NC3=CC=CC=C3OC4=C2C=C(C=C4)Cl

> <PUBCHEM_OPENEYE_ISO_SMILES>
C1CN(CCN1)C2=NC3=CC=CC=C3OC4=C2C=C(C=C4)Cl

> <PUBCHEM_CACTVS_TPSA>
36.9

> <PUBCHEM_MONOISOTOPIC_WEIGHT>
313.0981898

> <PUBCHEM_TOTAL_CHARGE>
0

> <PUBCHEM_HEAVY_ATOM_COUNT>
22

> <PUBCHEM_ATOM_DEF_STEREO_COUNT>
0

> <PUBCHEM_ATOM_UDEF_STEREO_COUNT>
0

> <PUBCHEM_BOND_DEF_STEREO_COUNT>
0

> <PUBCHEM_BOND_UDEF_STEREO_COUNT>
0

> <PUBCHEM_ISOTOPIC_ATOM_COUNT>
0

> <PUBCHEM_COMPONENT_COUNT>
1

> <PUBCHEM_CACTVS_TAUTO_COUNT>
1

> <PUBCHEM_COORDINATE_TYPE>
1
5
255

> <PUBCHEM_BONDANNOTATIONS>
11  12  8
11  14  8
12  16  8
13  15  8
13  19  8
14  17  8
15  20  8
16  18  8
17  18  8
19  21  8
20  22  8
21  22  8

$$$$
