166629648
  -OEChem-09292322442D

 79 84  0     1  0  0  0  0  0999 V2000
    9.9124    3.9222    0.0000 O   0  0  0  0  0  0  0  0  0  0  0  0
    9.8217    2.1925    0.0000 O   0  0  0  0  0  0  0  0  0  0  0  0
   14.4906   -2.5860    0.0000 O   0  0  0  0  0  0  0  0  0  0  0  0
    6.7619   -4.3375    0.0000 O   0  0  0  0  0  0  0  0  0  0  0  0
   11.6279   -0.3734    0.0000 N   0  0  3  0  0  0  0  0  0  0  0  0
    6.7619   -2.6055    0.0000 N   0  0  0  0  0  0  0  0  0  0  0  0
    4.6783   -4.2762    0.0000 N   0  0  0  0  0  0  0  0  0  0  0  0
   10.1279   -1.2394    0.0000 C   0  0  3  0  0  0  0  0  0  0  0  0
    9.2619   -1.7394    0.0000 C   0  0  3  0  0  0  0  0  0  0  0  0
   10.1279   -2.2394    0.0000 C   0  0  0  0  0  0  0  0  0  0  0  0
   10.6279   -0.3734    0.0000 C   0  0  0  0  0  0  0  0  0  0  0  0
   12.2419    0.9349    0.0000 C   0  0  2  0  0  0  0  0  0  0  0  0
   13.1929    0.6259    0.0000 C   0  0  2  0  0  0  0  0  0  0  0  0
    8.2619   -1.7394    0.0000 C   0  0  0  0  0  0  0  0  0  0  0  0
   11.8190    2.0879    0.0000 C   0  0  0  0  0  0  0  0  0  0  0  0
   12.2157   -1.1824    0.0000 C   0  0  0  0  0  0  0  0  0  0  0  0
   13.1667   -0.8734    0.0000 C   0  0  0  0  0  0  0  0  0  0  0  0
   13.6102    2.4707    0.0000 C   0  0  0  0  0  0  0  0  0  0  0  0
   14.5839    1.1785    0.0000 C   0  0  0  0  0  0  0  0  0  0  0  0
   14.5665    2.1783    0.0000 C   0  0  0  0  0  0  0  0  0  0  0  0
   13.9809    0.0102    0.0000 C   0  0  0  0  0  0  0  0  0  0  0  0
    7.7619   -2.6055    0.0000 C   0  0  0  0  0  0  0  0  0  0  0  0
   11.3650    2.9789    0.0000 C   0  0  0  0  0  0  0  0  0  0  0  0
   13.8418   -0.9800    0.0000 C   0  0  0  0  0  0  0  0  0  0  0  0
   14.9081    0.3848    0.0000 C   0  0  0  0  0  0  0  0  0  0  0  0
   10.3663    3.0312    0.0000 C   0  0  0  0  0  0  0  0  0  0  0  0
   14.6298   -1.5957    0.0000 C   0  0  0  0  0  0  0  0  0  0  0  0
   15.6961   -0.2308    0.0000 C   0  0  0  0  0  0  0  0  0  0  0  0
   15.5569   -1.2211    0.0000 C   0  0  0  0  0  0  0  0  0  0  0  0
    6.2619   -3.4715    0.0000 C   0  0  0  0  0  0  0  0  0  0  0  0
    5.2619   -3.4715    0.0000 C   0  0  0  0  0  0  0  0  0  0  0  0
    8.9137    3.9745    0.0000 C   0  0  0  0  0  0  0  0  0  0  0  0
    4.6783   -2.6668    0.0000 C   0  0  0  0  0  0  0  0  0  0  0  0
    8.4597    4.8656    0.0000 C   0  0  0  0  0  0  0  0  0  0  0  0
    3.7320   -3.9715    0.0000 C   0  0  0  0  0  0  0  0  0  0  0  0
    3.7320   -2.9715    0.0000 C   0  0  0  0  0  0  0  0  0  0  0  0
    2.8660   -4.4715    0.0000 C   0  0  0  0  0  0  0  0  0  0  0  0
    2.8660   -2.4715    0.0000 C   0  0  0  0  0  0  0  0  0  0  0  0
    2.0000   -3.9715    0.0000 C   0  0  0  0  0  0  0  0  0  0  0  0
    2.0000   -2.9715    0.0000 C   0  0  0  0  0  0  0  0  0  0  0  0
    9.6895   -0.8010    0.0000 H   0  0  0  0  0  0  0  0  0  0  0  0
    9.1014   -1.1406    0.0000 H   0  0  0  0  0  0  0  0  0  0  0  0
    9.9158   -2.8220    0.0000 H   0  0  0  0  0  0  0  0  0  0  0  0
   10.7385   -2.3471    0.0000 H   0  0  0  0  0  0  0  0  0  0  0  0
   10.7356    0.2372    0.0000 H   0  0  0  0  0  0  0  0  0  0  0  0
   10.0453   -0.1614    0.0000 H   0  0  0  0  0  0  0  0  0  0  0  0
   11.4335    1.1976    0.0000 H   0  0  0  0  0  0  0  0  0  0  0  0
    8.3695   -1.1289    0.0000 H   0  0  0  0  0  0  0  0  0  0  0  0
    7.6793   -1.5274    0.0000 H   0  0  0  0  0  0  0  0  0  0  0  0
   11.6788   -1.4924    0.0000 H   0  0  0  0  0  0  0  0  0  0  0  0
   12.4679   -1.7488    0.0000 H   0  0  0  0  0  0  0  0  0  0  0  0
   13.2921   -1.4806    0.0000 H   0  0  0  0  0  0  0  0  0  0  0  0
   13.7841   -0.8158    0.0000 H   0  0  0  0  0  0  0  0  0  0  0  0
   13.8745    3.0315    0.0000 H   0  0  0  0  0  0  0  0  0  0  0  0
   13.0930    2.8126    0.0000 H   0  0  0  0  0  0  0  0  0  0  0  0
   14.7421    0.5790    0.0000 H   0  0  0  0  0  0  0  0  0  0  0  0
   15.1981    1.2636    0.0000 H   0  0  0  0  0  0  0  0  0  0  0  0
   15.1841    2.1243    0.0000 H   0  0  0  0  0  0  0  0  0  0  0  0
   14.6848    2.7869    0.0000 H   0  0  0  0  0  0  0  0  0  0  0  0
    7.6542   -3.2160    0.0000 H   0  0  0  0  0  0  0  0  0  0  0  0
    8.3445   -2.8175    0.0000 H   0  0  0  0  0  0  0  0  0  0  0  0
   11.7026    3.4988    0.0000 H   0  0  0  0  0  0  0  0  0  0  0  0
   13.2669   -1.2123    0.0000 H   0  0  0  0  0  0  0  0  0  0  0  0
   14.9944    0.9988    0.0000 H   0  0  0  0  0  0  0  0  0  0  0  0
    6.4519   -2.0685    0.0000 H   0  0  0  0  0  0  0  0  0  0  0  0
   16.2710    0.0014    0.0000 H   0  0  0  0  0  0  0  0  0  0  0  0
   16.0455   -1.6028    0.0000 H   0  0  0  0  0  0  0  0  0  0  0  0
   14.9792   -2.9677    0.0000 H   0  0  0  0  0  0  0  0  0  0  0  0
    8.3208    3.7933    0.0000 H   0  0  0  0  0  0  0  0  0  0  0  0
    8.9893    3.3592    0.0000 H   0  0  0  0  0  0  0  0  0  0  0  0
    4.8709   -4.8656    0.0000 H   0  0  0  0  0  0  0  0  0  0  0  0
    4.8709   -2.0774    0.0000 H   0  0  0  0  0  0  0  0  0  0  0  0
    9.0122    5.1470    0.0000 H   0  0  0  0  0  0  0  0  0  0  0  0
    8.1782    5.4180    0.0000 H   0  0  0  0  0  0  0  0  0  0  0  0
    7.9073    4.5841    0.0000 H   0  0  0  0  0  0  0  0  0  0  0  0
    2.8660   -5.0915    0.0000 H   0  0  0  0  0  0  0  0  0  0  0  0
    2.8660   -1.8515    0.0000 H   0  0  0  0  0  0  0  0  0  0  0  0
    1.4631   -4.2815    0.0000 H   0  0  0  0  0  0  0  0  0  0  0  0
    1.4631   -2.6615    0.0000 H   0  0  0  0  0  0  0  0  0  0  0  0
  1 26  1  0  0  0  0
  1 32  1  0  0  0  0
  2 26  2  0  0  0  0
  3 27  1  0  0  0  0
  3 68  1  0  0  0  0
  4 30  2  0  0  0  0
  5 11  1  0  0  0  0
  5 12  1  0  0  0  0
  5 16  1  0  0  0  0
  6 22  1  0  0  0  0
  6 30  1  0  0  0  0
  6 65  1  0  0  0  0
  7 31  1  0  0  0  0
  7 35  1  0  0  0  0
  7 71  1  0  0  0  0
  8  9  1  0  0  0  0
  8 10  1  0  0  0  0
  8 11  1  0  0  0  0
  8 41  1  0  0  0  0
  9 10  1  0  0  0  0
  9 14  1  0  0  0  0
  9 42  1  0  0  0  0
 10 43  1  0  0  0  0
 10 44  1  0  0  0  0
 11 45  1  0  0  0  0
 11 46  1  0  0  0  0
 12 15  1  0  0  0  0
 12 18  1  0  0  0  0
 12 47  1  1  0  0  0
 13 15  1  0  0  0  0
 13 17  1  0  0  0  0
 13 19  1  0  0  0  0
 13 21  1  6  0  0  0
 14 22  1  0  0  0  0
 14 48  1  0  0  0  0
 14 49  1  0  0  0  0
 15 23  2  0  0  0  0
 16 17  1  0  0  0  0
 16 50  1  0  0  0  0
 16 51  1  0  0  0  0
 17 52  1  0  0  0  0
 17 53  1  0  0  0  0
 18 20  1  0  0  0  0
 18 54  1  0  0  0  0
 18 55  1  0  0  0  0
 19 20  1  0  0  0  0
 19 56  1  0  0  0  0
 19 57  1  0  0  0  0
 20 58  1  0  0  0  0
 20 59  1  0  0  0  0
 21 24  2  0  0  0  0
 21 25  1  0  0  0  0
 22 60  1  0  0  0  0
 22 61  1  0  0  0  0
 23 26  1  0  0  0  0
 23 62  1  0  0  0  0
 24 27  1  0  0  0  0
 24 63  1  0  0  0  0
 25 28  2  0  0  0  0
 25 64  1  0  0  0  0
 27 29  2  0  0  0  0
 28 29  1  0  0  0  0
 28 66  1  0  0  0  0
 29 67  1  0  0  0  0
 30 31  1  0  0  0  0
 31 33  2  0  0  0  0
 32 34  1  0  0  0  0
 32 69  1  0  0  0  0
 32 70  1  0  0  0  0
 33 36  1  0  0  0  0
 33 72  1  0  0  0  0
 34 73  1  0  0  0  0
 34 74  1  0  0  0  0
 34 75  1  0  0  0  0
 35 36  1  0  0  0  0
 35 37  2  0  0  0  0
 36 38  2  0  0  0  0
 37 39  1  0  0  0  0
 37 76  1  0  0  0  0
 38 40  1  0  0  0  0
 38 77  1  0  0  0  0
 39 40  2  0  0  0  0
 39 78  1  0  0  0  0
 40 79  1  0  0  0  0
M  END
> <PUBCHEM_COMPOUND_CID>
166629648

> <PUBCHEM_COMPOUND_CANONICALIZED>
1

> <PUBCHEM_CACTVS_COMPLEXITY>
954

> <PUBCHEM_CACTVS_HBOND_ACCEPTOR>
5

> <PUBCHEM_CACTVS_HBOND_DONOR>
3

> <PUBCHEM_CACTVS_ROTATABLE_BOND>
10

> <PUBCHEM_CACTVS_SUBSKEYS>
AAADcfB/OAAAAAAAAAAAAAAAGAAAAWAAAAA8YMEAAAAWAFgB9AAAHgAQCAAADyzhngYyzvPJlgCoAyXyXACCgCAnIiAImaG+bNgIZvLCtbOWcQhk1hHI+YeYyfCfgAABAAACAAAAAAKAAAQAAAAAAAAAAA==

> <PUBCHEM_IUPAC_OPENEYE_NAME>
ethyl (2Z)-2-[(1S,5S)-5-(3-hydroxyphenyl)-2-[[2-[2-(1H-indole-2-carbonylamino)ethyl]cyclopropyl]methyl]-2-azabicyclo[3.3.1]nonan-9-ylidene]acetate

> <PUBCHEM_IUPAC_CAS_NAME>
(2Z)-2-[(1S,5S)-5-(3-hydroxyphenyl)-2-[[2-[2-[[1H-indol-2-yl(oxo)methyl]amino]ethyl]cyclopropyl]methyl]-2-azabicyclo[3.3.1]nonan-9-ylidene]acetic acid ethyl ester

> <PUBCHEM_IUPAC_NAME_MARKUP>
ethyl (2<I>Z</I>)-2-[(1<I>S</I>,5<I>S</I>)-5-(3-hydroxyphenyl)-2-[[2-[2-(1<I>H</I>-indole-2-carbonylamino)ethyl]cyclopropyl]methyl]-2-azabicyclo[3.3.1]nonan-9-ylidene]acetate

> <PUBCHEM_IUPAC_NAME>
ethyl (2Z)-2-[(1S,5S)-5-(3-hydroxyphenyl)-2-[[2-[2-(1H-indole-2-carbonylamino)ethyl]cyclopropyl]methyl]-2-azabicyclo[3.3.1]nonan-9-ylidene]acetate

> <PUBCHEM_IUPAC_SYSTEMATIC_NAME>
ethyl (2Z)-2-[(1S,5S)-5-(3-hydroxyphenyl)-2-[[2-[2-(1H-indol-2-ylcarbonylamino)ethyl]cyclopropyl]methyl]-2-azabicyclo[3.3.1]nonan-9-ylidene]ethanoate

> <PUBCHEM_IUPAC_TRADITIONAL_NAME>
(2Z)-2-[(1S,5S)-5-(3-hydroxyphenyl)-2-[[2-[2-(1H-indole-2-carbonylamino)ethyl]cyclopropyl]methyl]-2-azabicyclo[3.3.1]nonan-9-ylidene]acetic acid ethyl ester

> <PUBCHEM_IUPAC_INCHI>
InChI=1S/C33H39N3O4/c1-2-40-31(38)20-27-30-11-6-13-33(27,25-8-5-9-26(37)19-25)14-16-36(30)21-24-17-22(24)12-15-34-32(39)29-18-23-7-3-4-10-28(23)35-29/h3-5,7-10,18-20,22,24,30,35,37H,2,6,11-17,21H2,1H3,(H,34,39)/b27-20+/t22?,24?,30-,33-/m0/s1

> <PUBCHEM_IUPAC_INCHIKEY>
SFNVUZGWWDUWJI-VRDCJJRQSA-N

> <PUBCHEM_XLOGP3_AA>
5.4

> <PUBCHEM_EXACT_MASS>
541.29405673

> <PUBCHEM_MOLECULAR_FORMULA>
C33H39N3O4

> <PUBCHEM_MOLECULAR_WEIGHT>
541.7

> <PUBCHEM_OPENEYE_CAN_SMILES>
CCOC(=O)C=C1C2CCCC1(CCN2CC3CC3CCNC(=O)C4=CC5=CC=CC=C5N4)C6=CC(=CC=C6)O

> <PUBCHEM_OPENEYE_ISO_SMILES>
CCOC(=O)/C=C/1\[C@@H]2CCC[C@]1(CCN2CC3CC3CCNC(=O)C4=CC5=CC=CC=C5N4)C6=CC(=CC=C6)O

> <PUBCHEM_CACTVS_TPSA>
94.7

> <PUBCHEM_MONOISOTOPIC_WEIGHT>
541.29405673

> <PUBCHEM_TOTAL_CHARGE>
0

> <PUBCHEM_HEAVY_ATOM_COUNT>
40

> <PUBCHEM_ATOM_DEF_STEREO_COUNT>
2

> <PUBCHEM_ATOM_UDEF_STEREO_COUNT>
2

> <PUBCHEM_BOND_DEF_STEREO_COUNT>
1

> <PUBCHEM_BOND_UDEF_STEREO_COUNT>
0

> <PUBCHEM_ISOTOPIC_ATOM_COUNT>
0

> <PUBCHEM_COMPONENT_COUNT>
1

> <PUBCHEM_CACTVS_TAUTO_COUNT>
-1

> <PUBCHEM_COORDINATE_TYPE>
1
5
255

> <PUBCHEM_BONDANNOTATIONS>
12  47  5
13  21  6
21  24  8
21  25  8
24  27  8
25  28  8
27  29  8
28  29  8
31  33  8
33  36  8
35  36  8
35  37  8
36  38  8
37  39  8
38  40  8
39  40  8
7  31  8
7  35  8
8  11  3
9  14  3

$$$$
