90467453
  -OEChem-09292322002D

 70 73  0     0  0  0  0  0  0999 V2000
    4.5981   -0.3450    0.0000 O   0  0  0  0  0  0  0  0  0  0  0  0
    6.3301   -0.3450    0.0000 O   0  0  0  0  0  0  0  0  0  0  0  0
    2.0000   -5.8450    0.0000 O   0  0  0  0  0  0  0  0  0  0  0  0
    8.0622    4.6550    0.0000 N   0  0  0  0  0  0  0  0  0  0  0  0
    9.7942    5.6550    0.0000 N   0  0  0  0  0  0  0  0  0  0  0  0
    5.4641    1.1550    0.0000 N   0  0  0  0  0  0  0  0  0  0  0  0
    2.8660   -7.3450    0.0000 N   0  0  0  0  0  0  0  0  0  0  0  0
    8.9282    4.1550    0.0000 C   0  0  0  0  0  0  0  0  0  0  0  0
    8.0622    5.6550    0.0000 C   0  0  0  0  0  0  0  0  0  0  0  0
    9.7942    4.6550    0.0000 C   0  0  0  0  0  0  0  0  0  0  0  0
    8.9282    6.1550    0.0000 C   0  0  0  0  0  0  0  0  0  0  0  0
    7.1962    4.1550    0.0000 C   0  0  0  0  0  0  0  0  0  0  0  0
    7.1962    3.1550    0.0000 C   0  0  0  0  0  0  0  0  0  0  0  0
   10.6603    6.1550    0.0000 C   0  0  0  0  0  0  0  0  0  0  0  0
    6.3301    2.6550    0.0000 C   0  0  0  0  0  0  0  0  0  0  0  0
   11.5263    5.6550    0.0000 C   0  0  0  0  0  0  0  0  0  0  0  0
   10.6603    7.1550    0.0000 C   0  0  0  0  0  0  0  0  0  0  0  0
    6.3301    1.6550    0.0000 C   0  0  0  0  0  0  0  0  0  0  0  0
   12.3923    6.1550    0.0000 C   0  0  0  0  0  0  0  0  0  0  0  0
   11.5263    4.6550    0.0000 C   0  0  0  0  0  0  0  0  0  0  0  0
   11.5263    7.6550    0.0000 C   0  0  0  0  0  0  0  0  0  0  0  0
   12.3923    7.1550    0.0000 C   0  0  0  0  0  0  0  0  0  0  0  0
    5.4641    0.1550    0.0000 C   0  0  0  0  0  0  0  0  0  0  0  0
    4.5981   -1.3450    0.0000 C   0  0  0  0  0  0  0  0  0  0  0  0
    4.5981   -3.3450    0.0000 C   0  0  0  0  0  0  0  0  0  0  0  0
    3.7320   -1.8450    0.0000 C   0  0  0  0  0  0  0  0  0  0  0  0
    5.4641   -1.8450    0.0000 C   0  0  0  0  0  0  0  0  0  0  0  0
    4.5981   -4.3450    0.0000 C   0  0  0  0  0  0  0  0  0  0  0  0
    3.7320   -2.8450    0.0000 C   0  0  0  0  0  0  0  0  0  0  0  0
    5.4641   -2.8450    0.0000 C   0  0  0  0  0  0  0  0  0  0  0  0
    3.7320   -4.8450    0.0000 C   0  0  0  0  0  0  0  0  0  0  0  0
    5.4641   -4.8450    0.0000 C   0  0  0  0  0  0  0  0  0  0  0  0
    3.7320   -5.8450    0.0000 C   0  0  0  0  0  0  0  0  0  0  0  0
    5.4641   -5.8450    0.0000 C   0  0  0  0  0  0  0  0  0  0  0  0
    4.5981   -6.3450    0.0000 C   0  0  0  0  0  0  0  0  0  0  0  0
    2.8660   -6.3450    0.0000 C   0  0  0  0  0  0  0  0  0  0  0  0
    8.5297    3.6800    0.0000 H   0  0  0  0  0  0  0  0  0  0  0  0
    9.3267    3.6800    0.0000 H   0  0  0  0  0  0  0  0  0  0  0  0
    7.8501    6.2376    0.0000 H   0  0  0  0  0  0  0  0  0  0  0  0
    7.4516    5.5473    0.0000 H   0  0  0  0  0  0  0  0  0  0  0  0
   10.0063    4.0724    0.0000 H   0  0  0  0  0  0  0  0  0  0  0  0
   10.4048    4.7627    0.0000 H   0  0  0  0  0  0  0  0  0  0  0  0
    9.3267    6.6300    0.0000 H   0  0  0  0  0  0  0  0  0  0  0  0
    8.5297    6.6300    0.0000 H   0  0  0  0  0  0  0  0  0  0  0  0
    6.9841    4.7376    0.0000 H   0  0  0  0  0  0  0  0  0  0  0  0
    6.5856    4.0473    0.0000 H   0  0  0  0  0  0  0  0  0  0  0  0
    7.4082    2.5724    0.0000 H   0  0  0  0  0  0  0  0  0  0  0  0
    7.8067    3.2627    0.0000 H   0  0  0  0  0  0  0  0  0  0  0  0
    6.1181    3.2376    0.0000 H   0  0  0  0  0  0  0  0  0  0  0  0
    5.7196    2.5473    0.0000 H   0  0  0  0  0  0  0  0  0  0  0  0
   10.1233    7.4650    0.0000 H   0  0  0  0  0  0  0  0  0  0  0  0
    6.5422    1.0724    0.0000 H   0  0  0  0  0  0  0  0  0  0  0  0
    6.9407    1.7627    0.0000 H   0  0  0  0  0  0  0  0  0  0  0  0
   12.9292    5.8450    0.0000 H   0  0  0  0  0  0  0  0  0  0  0  0
   10.9063    4.6550    0.0000 H   0  0  0  0  0  0  0  0  0  0  0  0
   11.5263    4.0350    0.0000 H   0  0  0  0  0  0  0  0  0  0  0  0
   12.1463    4.6550    0.0000 H   0  0  0  0  0  0  0  0  0  0  0  0
   11.5263    8.2750    0.0000 H   0  0  0  0  0  0  0  0  0  0  0  0
   12.9292    7.4650    0.0000 H   0  0  0  0  0  0  0  0  0  0  0  0
    4.9272    1.4650    0.0000 H   0  0  0  0  0  0  0  0  0  0  0  0
    3.1951   -1.5350    0.0000 H   0  0  0  0  0  0  0  0  0  0  0  0
    6.0010   -1.5350    0.0000 H   0  0  0  0  0  0  0  0  0  0  0  0
    3.1951   -3.1550    0.0000 H   0  0  0  0  0  0  0  0  0  0  0  0
    6.0010   -3.1550    0.0000 H   0  0  0  0  0  0  0  0  0  0  0  0
    3.1951   -4.5350    0.0000 H   0  0  0  0  0  0  0  0  0  0  0  0
    6.0010   -4.5350    0.0000 H   0  0  0  0  0  0  0  0  0  0  0  0
    6.0010   -6.1550    0.0000 H   0  0  0  0  0  0  0  0  0  0  0  0
    4.5981   -6.9650    0.0000 H   0  0  0  0  0  0  0  0  0  0  0  0
    2.3291   -7.6550    0.0000 H   0  0  0  0  0  0  0  0  0  0  0  0
    3.4030   -7.6550    0.0000 H   0  0  0  0  0  0  0  0  0  0  0  0
  1 23  1  0  0  0  0
  1 24  1  0  0  0  0
  2 23  2  0  0  0  0
  3 36  2  0  0  0  0
  4  8  1  0  0  0  0
  4  9  1  0  0  0  0
  4 12  1  0  0  0  0
  5 10  1  0  0  0  0
  5 11  1  0  0  0  0
  5 14  1  0  0  0  0
  6 18  1  0  0  0  0
  6 23  1  0  0  0  0
  6 60  1  0  0  0  0
  7 36  1  0  0  0  0
  7 69  1  0  0  0  0
  7 70  1  0  0  0  0
  8 10  1  0  0  0  0
  8 37  1  0  0  0  0
  8 38  1  0  0  0  0
  9 11  1  0  0  0  0
  9 39  1  0  0  0  0
  9 40  1  0  0  0  0
 10 41  1  0  0  0  0
 10 42  1  0  0  0  0
 11 43  1  0  0  0  0
 11 44  1  0  0  0  0
 12 13  1  0  0  0  0
 12 45  1  0  0  0  0
 12 46  1  0  0  0  0
 13 15  1  0  0  0  0
 13 47  1  0  0  0  0
 13 48  1  0  0  0  0
 14 16  1  0  0  0  0
 14 17  2  0  0  0  0
 15 18  1  0  0  0  0
 15 49  1  0  0  0  0
 15 50  1  0  0  0  0
 16 19  2  0  0  0  0
 16 20  1  0  0  0  0
 17 21  1  0  0  0  0
 17 51  1  0  0  0  0
 18 52  1  0  0  0  0
 18 53  1  0  0  0  0
 19 22  1  0  0  0  0
 19 54  1  0  0  0  0
 20 55  1  0  0  0  0
 20 56  1  0  0  0  0
 20 57  1  0  0  0  0
 21 22  2  0  0  0  0
 21 58  1  0  0  0  0
 22 59  1  0  0  0  0
 24 26  2  0  0  0  0
 24 27  1  0  0  0  0
 25 28  1  0  0  0  0
 25 29  2  0  0  0  0
 25 30  1  0  0  0  0
 26 29  1  0  0  0  0
 26 61  1  0  0  0  0
 27 30  2  0  0  0  0
 27 62  1  0  0  0  0
 28 31  2  0  0  0  0
 28 32  1  0  0  0  0
 29 63  1  0  0  0  0
 30 64  1  0  0  0  0
 31 33  1  0  0  0  0
 31 65  1  0  0  0  0
 32 34  2  0  0  0  0
 32 66  1  0  0  0  0
 33 35  2  0  0  0  0
 33 36  1  0  0  0  0
 34 35  1  0  0  0  0
 34 67  1  0  0  0  0
 35 68  1  0  0  0  0
M  END
> <PUBCHEM_COMPOUND_CID>
90467453

> <PUBCHEM_COMPOUND_CANONICALIZED>
1

> <PUBCHEM_CACTVS_COMPLEXITY>
688

> <PUBCHEM_CACTVS_HBOND_ACCEPTOR>
5

> <PUBCHEM_CACTVS_HBOND_DONOR>
2

> <PUBCHEM_CACTVS_ROTATABLE_BOND>
10

> <PUBCHEM_CACTVS_SUBSKEYS>
AAADcfB7sAAAAAAAAAAAAAAAAAAAAAAAAAA8YMEAAAAAAAABUAAAHgAQAAAADAzBmAQyzoPABACIAiVSWACCCAAlIgAIiIEObMkMZjLEtZucMyhk1hHI6YeYyPCOoAACAAACAABAAAQAAAQAAAAAAAAAAA==

> <PUBCHEM_IUPAC_OPENEYE_NAME>
[4-(3-carbamoylphenyl)phenyl] N-[4-[4-(o-tolyl)piperazin-1-yl]butyl]carbamate

> <PUBCHEM_IUPAC_CAS_NAME>
N-[4-[4-(2-methylphenyl)-1-piperazinyl]butyl]carbamic acid [4-(3-carbamoylphenyl)phenyl] ester

> <PUBCHEM_IUPAC_NAME_MARKUP>
[4-(3-carbamoylphenyl)phenyl] <I>N</I>-[4-[4-(2-methylphenyl)piperazin-1-yl]butyl]carbamate

> <PUBCHEM_IUPAC_NAME>
[4-(3-carbamoylphenyl)phenyl] N-[4-[4-(2-methylphenyl)piperazin-1-yl]butyl]carbamate

> <PUBCHEM_IUPAC_SYSTEMATIC_NAME>
[4-(3-aminocarbonylphenyl)phenyl] N-[4-[4-(2-methylphenyl)piperazin-1-yl]butyl]carbamate

> <PUBCHEM_IUPAC_TRADITIONAL_NAME>
N-[4-[4-(o-tolyl)piperazino]butyl]carbamic acid [4-(3-carbamoylphenyl)phenyl] ester

> <PUBCHEM_IUPAC_INCHI>
InChI=1S/C29H34N4O3/c1-22-7-2-3-10-27(22)33-19-17-32(18-20-33)16-5-4-15-31-29(35)36-26-13-11-23(12-14-26)24-8-6-9-25(21-24)28(30)34/h2-3,6-14,21H,4-5,15-20H2,1H3,(H2,30,34)(H,31,35)

> <PUBCHEM_IUPAC_INCHIKEY>
PEBYJPFREGHAND-UHFFFAOYSA-N

> <PUBCHEM_XLOGP3_AA>
4.7

> <PUBCHEM_EXACT_MASS>
486.26309096

> <PUBCHEM_MOLECULAR_FORMULA>
C29H34N4O3

> <PUBCHEM_MOLECULAR_WEIGHT>
486.6

> <PUBCHEM_OPENEYE_CAN_SMILES>
CC1=CC=CC=C1N2CCN(CC2)CCCCNC(=O)OC3=CC=C(C=C3)C4=CC(=CC=C4)C(=O)N

> <PUBCHEM_OPENEYE_ISO_SMILES>
CC1=CC=CC=C1N2CCN(CC2)CCCCNC(=O)OC3=CC=C(C=C3)C4=CC(=CC=C4)C(=O)N

> <PUBCHEM_CACTVS_TPSA>
87.9

> <PUBCHEM_MONOISOTOPIC_WEIGHT>
486.26309096

> <PUBCHEM_TOTAL_CHARGE>
0

> <PUBCHEM_HEAVY_ATOM_COUNT>
36

> <PUBCHEM_ATOM_DEF_STEREO_COUNT>
0

> <PUBCHEM_ATOM_UDEF_STEREO_COUNT>
0

> <PUBCHEM_BOND_DEF_STEREO_COUNT>
0

> <PUBCHEM_BOND_UDEF_STEREO_COUNT>
0

> <PUBCHEM_ISOTOPIC_ATOM_COUNT>
0

> <PUBCHEM_COMPONENT_COUNT>
1

> <PUBCHEM_CACTVS_TAUTO_COUNT>
-1

> <PUBCHEM_COORDINATE_TYPE>
1
5
255

> <PUBCHEM_BONDANNOTATIONS>
14  16  8
14  17  8
16  19  8
17  21  8
19  22  8
21  22  8
24  26  8
24  27  8
25  29  8
25  30  8
26  29  8
27  30  8
28  31  8
28  32  8
31  33  8
32  34  8
33  35  8
34  35  8

$$$$
