118726006
  -OEChem-09292321592D

108114  0     1  0  0  0  0  0999 V2000
    3.1009   13.4158    0.0000 O   0  0  0  0  0  0  0  0  0  0  0  0
    2.2690    0.9749    0.0000 O   0  0  0  0  0  0  0  0  0  0  0  0
    7.4651    1.9750    0.0000 O   0  0  0  0  0  0  0  0  0  0  0  0
   18.3770    3.7840    0.0000 O   0  0  0  0  0  0  0  0  0  0  0  0
   10.5124   16.5344    0.0000 O   0  0  0  0  0  0  0  0  0  0  0  0
    8.7803   16.5344    0.0000 O   0  0  0  0  0  0  0  0  0  0  0  0
    4.0010    7.9750    0.0000 N   0  0  3  0  0  0  0  0  0  0  0  0
    1.6122   12.4468    0.0000 N   0  0  0  0  0  0  0  0  0  0  0  0
    5.7331    4.9750    0.0000 N   0  0  0  0  0  0  0  0  0  0  0  0
    4.0010    1.9750    0.0000 N   0  0  0  0  0  0  0  0  0  0  0  0
    4.8671    3.4750    0.0000 N   0  0  0  0  0  0  0  0  0  0  0  0
    6.5991    3.4750    0.0000 N   0  0  0  0  0  0  0  0  0  0  0  0
    5.7331    1.9750    0.0000 N   0  0  0  0  0  0  0  0  0  0  0  0
   12.6613    3.9750    0.0000 N   0  0  0  0  0  0  0  0  0  0  0  0
   15.2594    2.4750    0.0000 N   0  0  0  0  0  0  0  0  0  0  0  0
   14.3933    3.9750    0.0000 N   0  0  0  0  0  0  0  0  0  0  0  0
   13.5273    2.4750    0.0000 N   0  0  0  0  0  0  0  0  0  0  0  0
   16.2056    2.1702    0.0000 N   0  0  0  0  0  0  0  0  0  0  0  0
   16.2056    3.7797    0.0000 N   0  0  0  0  0  0  0  0  0  0  0  0
   14.3933    0.9749    0.0000 N   0  0  0  0  0  0  0  0  0  0  0  0
    3.1350    8.4750    0.0000 C   0  0  0  0  0  0  0  0  0  0  0  0
    3.1350    9.4750    0.0000 C   0  0  0  0  0  0  0  0  0  0  0  0
    4.0010    6.9750    0.0000 C   0  0  0  0  0  0  0  0  0  0  0  0
    2.2690    9.9750    0.0000 C   0  0  0  0  0  0  0  0  0  0  0  0
    4.8671    8.4750    0.0000 C   0  0  0  0  0  0  0  0  0  0  0  0
    2.2690   10.9749    0.0000 C   0  0  0  0  0  0  0  0  0  0  0  0
    4.8671    6.4750    0.0000 C   0  0  0  0  0  0  0  0  0  0  0  0
    3.0060   11.6420    0.0000 C   0  0  0  0  0  0  0  0  0  0  0  0
    1.4030   11.4749    0.0000 C   0  0  0  0  0  0  0  0  0  0  0  0
    4.8671    9.4750    0.0000 C   0  0  0  0  0  0  0  0  0  0  0  0
    4.8671    5.4750    0.0000 C   0  0  0  0  0  0  0  0  0  0  0  0
    1.4030    9.4750    0.0000 C   0  0  0  0  0  0  0  0  0  0  0  0
    2.6009   12.5498    0.0000 C   0  0  0  0  0  0  0  0  0  0  0  0
    0.5369   10.9749    0.0000 C   0  0  0  0  0  0  0  0  0  0  0  0
    0.5369    9.9750    0.0000 C   0  0  0  0  0  0  0  0  0  0  0  0
    5.7331    9.9750    0.0000 C   0  0  0  0  0  0  0  0  0  0  0  0
    4.0010    0.9749    0.0000 C   0  0  0  0  0  0  0  0  0  0  0  0
    3.1350    2.4750    0.0000 C   0  0  0  0  0  0  0  0  0  0  0  0
    5.7331    3.9750    0.0000 C   0  0  0  0  0  0  0  0  0  0  0  0
    3.1350    0.4749    0.0000 C   0  0  0  0  0  0  0  0  0  0  0  0
    2.2690    1.9750    0.0000 C   0  0  0  0  0  0  0  0  0  0  0  0
    4.8671    2.4750    0.0000 C   0  0  0  0  0  0  0  0  0  0  0  0
    6.5991    2.4750    0.0000 C   0  0  0  0  0  0  0  0  0  0  0  0
    8.3312    2.4750    0.0000 C   0  0  0  0  0  0  0  0  0  0  0  0
   10.0632    3.4750    0.0000 C   0  0  0  0  0  0  0  0  0  0  0  0
   10.9292    3.9750    0.0000 C   0  0  0  0  0  0  0  0  0  0  0  0
    8.3312    3.4750    0.0000 C   0  0  0  0  0  0  0  0  0  0  0  0
    9.1972    1.9750    0.0000 C   0  0  0  0  0  0  0  0  0  0  0  0
   11.7953    3.4750    0.0000 C   0  0  0  0  0  0  0  0  0  0  0  0
    9.1972    3.9750    0.0000 C   0  0  0  0  0  0  0  0  0  0  0  0
   10.0632    2.4750    0.0000 C   0  0  0  0  0  0  0  0  0  0  0  0
   13.5273    3.4750    0.0000 C   0  0  0  0  0  0  0  0  0  0  0  0
   15.2594    3.4750    0.0000 C   0  0  0  0  0  0  0  0  0  0  0  0
   14.3933    1.9750    0.0000 C   0  0  0  0  0  0  0  0  0  0  0  0
   16.7892    2.9750    0.0000 C   0  0  0  0  0  0  0  0  0  0  0  0
   17.7892    2.9750    0.0000 C   0  0  0  0  0  0  0  0  0  0  0  0
   18.3770    2.1659    0.0000 C   0  0  0  0  0  0  0  0  0  0  0  0
   19.3280    2.4750    0.0000 C   0  0  0  0  0  0  0  0  0  0  0  0
   19.3280    3.4750    0.0000 C   0  0  0  0  0  0  0  0  0  0  0  0
    9.6464   16.0344    0.0000 C   0  0  0  0  0  0  0  0  0  0  0  0
    2.5244    8.5826    0.0000 H   0  0  0  0  0  0  0  0  0  0  0  0
    2.9230    7.8923    0.0000 H   0  0  0  0  0  0  0  0  0  0  0  0
    3.7456    9.3673    0.0000 H   0  0  0  0  0  0  0  0  0  0  0  0
    3.3471   10.0576    0.0000 H   0  0  0  0  0  0  0  0  0  0  0  0
    3.3905    7.0826    0.0000 H   0  0  0  0  0  0  0  0  0  0  0  0
    3.7890    6.3923    0.0000 H   0  0  0  0  0  0  0  0  0  0  0  0
    5.0791    7.8923    0.0000 H   0  0  0  0  0  0  0  0  0  0  0  0
    5.4776    8.5826    0.0000 H   0  0  0  0  0  0  0  0  0  0  0  0
    5.4776    6.3673    0.0000 H   0  0  0  0  0  0  0  0  0  0  0  0
    5.0791    7.0576    0.0000 H   0  0  0  0  0  0  0  0  0  0  0  0
    3.3714   11.1412    0.0000 H   0  0  0  0  0  0  0  0  0  0  0  0
    3.5425   11.9528    0.0000 H   0  0  0  0  0  0  0  0  0  0  0  0
    4.6550   10.0576    0.0000 H   0  0  0  0  0  0  0  0  0  0  0  0
    4.2565    9.3673    0.0000 H   0  0  0  0  0  0  0  0  0  0  0  0
    4.2565    5.5826    0.0000 H   0  0  0  0  0  0  0  0  0  0  0  0
    4.6550    4.8923    0.0000 H   0  0  0  0  0  0  0  0  0  0  0  0
    1.4030    8.8550    0.0000 H   0  0  0  0  0  0  0  0  0  0  0  0
    1.1981   12.9082    0.0000 H   0  0  0  0  0  0  0  0  0  0  0  0
    0.0000   11.2849    0.0000 H   0  0  0  0  0  0  0  0  0  0  0  0
    0.0000    9.6649    0.0000 H   0  0  0  0  0  0  0  0  0  0  0  0
    6.0431    9.4380    0.0000 H   0  0  0  0  0  0  0  0  0  0  0  0
    6.2700   10.2849    0.0000 H   0  0  0  0  0  0  0  0  0  0  0  0
    5.4231   10.5119    0.0000 H   0  0  0  0  0  0  0  0  0  0  0  0
    6.2700    5.2850    0.0000 H   0  0  0  0  0  0  0  0  0  0  0  0
    4.2131    0.3923    0.0000 H   0  0  0  0  0  0  0  0  0  0  0  0
    4.6116    1.0826    0.0000 H   0  0  0  0  0  0  0  0  0  0  0  0
    3.5335    2.9499    0.0000 H   0  0  0  0  0  0  0  0  0  0  0  0
    2.7365    2.9499    0.0000 H   0  0  0  0  0  0  0  0  0  0  0  0
    2.7365    0.0000    0.0000 H   0  0  0  0  0  0  0  0  0  0  0  0
    3.5335    0.0000    0.0000 H   0  0  0  0  0  0  0  0  0  0  0  0
    2.0569    2.5576    0.0000 H   0  0  0  0  0  0  0  0  0  0  0  0
    1.6584    1.8673    0.0000 H   0  0  0  0  0  0  0  0  0  0  0  0
   11.3278    4.4499    0.0000 H   0  0  0  0  0  0  0  0  0  0  0  0
   10.5307    4.4499    0.0000 H   0  0  0  0  0  0  0  0  0  0  0  0
   11.3967    3.0000    0.0000 H   0  0  0  0  0  0  0  0  0  0  0  0
   12.1938    3.0000    0.0000 H   0  0  0  0  0  0  0  0  0  0  0  0
    7.7942    3.7850    0.0000 H   0  0  0  0  0  0  0  0  0  0  0  0
    9.1972    1.3550    0.0000 H   0  0  0  0  0  0  0  0  0  0  0  0
    9.1972    4.5950    0.0000 H   0  0  0  0  0  0  0  0  0  0  0  0
   10.6002    2.1650    0.0000 H   0  0  0  0  0  0  0  0  0  0  0  0
   12.6613    4.5950    0.0000 H   0  0  0  0  0  0  0  0  0  0  0  0
   13.8564    0.6649    0.0000 H   0  0  0  0  0  0  0  0  0  0  0  0
   14.9303    0.6649    0.0000 H   0  0  0  0  0  0  0  0  0  0  0  0
   18.1854    1.5763    0.0000 H   0  0  0  0  0  0  0  0  0  0  0  0
   19.8296    2.1105    0.0000 H   0  0  0  0  0  0  0  0  0  0  0  0
   19.8296    3.8394    0.0000 H   0  0  0  0  0  0  0  0  0  0  0  0
    9.6464   15.4144    0.0000 H   0  0  0  0  0  0  0  0  0  0  0  0
   11.0493   16.2244    0.0000 H   0  0  0  0  0  0  0  0  0  0  0  0
  1 33  2  0  0  0  0
  2 40  1  0  0  0  0
  2 41  1  0  0  0  0
  3 43  1  0  0  0  0
  3 44  1  0  0  0  0
  4 56  1  0  0  0  0
  4 59  1  0  0  0  0
  5 60  1  0  0  0  0
  5108  1  0  0  0  0
  6 60  2  0  0  0  0
  7 21  1  0  0  0  0
  7 23  1  0  0  0  0
  7 25  1  0  0  0  0
  8 29  1  0  0  0  0
  8 33  1  0  0  0  0
  8 78  1  0  0  0  0
  9 31  1  0  0  0  0
  9 39  1  0  0  0  0
  9 84  1  0  0  0  0
 10 37  1  0  0  0  0
 10 38  1  0  0  0  0
 10 42  1  0  0  0  0
 11 39  2  0  0  0  0
 11 42  1  0  0  0  0
 12 39  1  0  0  0  0
 12 43  2  0  0  0  0
 13 42  2  0  0  0  0
 13 43  1  0  0  0  0
 14 49  1  0  0  0  0
 14 52  1  0  0  0  0
 14101  1  0  0  0  0
 15 18  1  0  0  0  0
 15 53  1  0  0  0  0
 15 54  1  0  0  0  0
 16 52  2  0  0  0  0
 16 53  1  0  0  0  0
 17 52  1  0  0  0  0
 17 54  2  0  0  0  0
 18 55  2  0  0  0  0
 19 53  2  0  0  0  0
 19 55  1  0  0  0  0
 20 54  1  0  0  0  0
 20102  1  0  0  0  0
 20103  1  0  0  0  0
 21 22  1  0  0  0  0
 21 61  1  0  0  0  0
 21 62  1  0  0  0  0
 22 24  1  0  0  0  0
 22 63  1  0  0  0  0
 22 64  1  0  0  0  0
 23 27  1  0  0  0  0
 23 65  1  0  0  0  0
 23 66  1  0  0  0  0
 24 26  2  0  0  0  0
 24 32  1  0  0  0  0
 25 30  1  0  0  0  0
 25 67  1  0  0  0  0
 25 68  1  0  0  0  0
 26 28  1  0  0  0  0
 26 29  1  0  0  0  0
 27 31  1  0  0  0  0
 27 69  1  0  0  0  0
 27 70  1  0  0  0  0
 28 33  1  0  0  0  0
 28 71  1  0  0  0  0
 28 72  1  0  0  0  0
 29 34  2  0  0  0  0
 30 36  1  0  0  0  0
 30 73  1  0  0  0  0
 30 74  1  0  0  0  0
 31 75  1  0  0  0  0
 31 76  1  0  0  0  0
 32 35  2  0  0  0  0
 32 77  1  0  0  0  0
 34 35  1  0  0  0  0
 34 79  1  0  0  0  0
 35 80  1  0  0  0  0
 36 81  1  0  0  0  0
 36 82  1  0  0  0  0
 36 83  1  0  0  0  0
 37 40  1  0  0  0  0
 37 85  1  0  0  0  0
 37 86  1  0  0  0  0
 38 41  1  0  0  0  0
 38 87  1  0  0  0  0
 38 88  1  0  0  0  0
 40 89  1  0  0  0  0
 40 90  1  0  0  0  0
 41 91  1  0  0  0  0
 41 92  1  0  0  0  0
 44 47  2  0  0  0  0
 44 48  1  0  0  0  0
 45 46  1  0  0  0  0
 45 50  2  0  0  0  0
 45 51  1  0  0  0  0
 46 49  1  0  0  0  0
 46 93  1  0  0  0  0
 46 94  1  0  0  0  0
 47 50  1  0  0  0  0
 47 97  1  0  0  0  0
 48 51  2  0  0  0  0
 48 98  1  0  0  0  0
 49 95  1  0  0  0  0
 49 96  1  0  0  0  0
 50 99  1  0  0  0  0
 51100  1  0  0  0  0
 55 56  1  0  0  0  0
 56 57  2  0  0  0  0
 57 58  1  0  0  0  0
 57104  1  0  0  0  0
 58 59  2  0  0  0  0
 58105  1  0  0  0  0
 59106  1  0  0  0  0
 60107  1  0  0  0  0
M  END
> <PUBCHEM_COMPOUND_CID>
118726006

> <PUBCHEM_COMPOUND_CANONICALIZED>
1

> <PUBCHEM_CACTVS_COMPLEXITY>
1240

> <PUBCHEM_CACTVS_HBOND_ACCEPTOR>
18

> <PUBCHEM_CACTVS_HBOND_DONOR>
5

> <PUBCHEM_CACTVS_ROTATABLE_BOND>
18

> <PUBCHEM_CACTVS_SUBSKEYS>
AAADcfB/+AAAAAAAAAAAAAAAAAAAAWLEgAA8eLECAAAAAFgB/gAAHgAYCAAADAzhmwcz3ofIFkCqAq9y/ASSiAsnIqAdiKGubNiOPrLE/buPOSj83BPY6Yec2YKOoAAAQAASAABAAACAACQAAAAAAAAAAA==

> <PUBCHEM_IUPAC_OPENEYE_NAME>
4-[2-[3-[[4-[4-[2-[[7-amino-2-(2-furyl)-[1,2,4]triazolo[1,5-a][1,3,5]triazin-5-yl]amino]ethyl]phenoxy]-6-morpholino-1,3,5-triazin-2-yl]amino]propyl-propyl-amino]ethyl]indolin-2-one;formic acid

> <PUBCHEM_IUPAC_CAS_NAME>
4-[2-[3-[[4-[4-[2-[[7-amino-2-(2-furanyl)-[1,2,4]triazolo[1,5-a][1,3,5]triazin-5-yl]amino]ethyl]phenoxy]-6-(4-morpholinyl)-1,3,5-triazin-2-yl]amino]propyl-propylamino]ethyl]-1,3-dihydroindol-2-one;formic acid

> <PUBCHEM_IUPAC_NAME_MARKUP>
4-[2-[3-[[4-[4-[2-[[7-amino-2-(furan-2-yl)-[1,2,4]triazolo[1,5-a][1,3,5]triazin-5-yl]amino]ethyl]phenoxy]-6-morpholin-4-yl-1,3,5-triazin-2-yl]amino]propyl-propylamino]ethyl]-1,3-dihydroindol-2-one;formic acid

> <PUBCHEM_IUPAC_NAME>
4-[2-[3-[[4-[4-[2-[[7-amino-2-(furan-2-yl)-[1,2,4]triazolo[1,5-a][1,3,5]triazin-5-yl]amino]ethyl]phenoxy]-6-morpholin-4-yl-1,3,5-triazin-2-yl]amino]propyl-propylamino]ethyl]-1,3-dihydroindol-2-one;formic acid

> <PUBCHEM_IUPAC_SYSTEMATIC_NAME>
4-[2-[3-[[4-[4-[2-[[7-azanyl-2-(furan-2-yl)-[1,2,4]triazolo[1,5-a][1,3,5]triazin-5-yl]amino]ethyl]phenoxy]-6-morpholin-4-yl-1,3,5-triazin-2-yl]amino]propyl-propyl-amino]ethyl]-1,3-dihydroindol-2-one;methanoic acid

> <PUBCHEM_IUPAC_TRADITIONAL_NAME>
4-[2-[3-[[4-[4-[2-[[7-amino-2-(2-furyl)-[1,2,4]triazolo[1,5-a][1,3,5]triazin-5-yl]amino]ethyl]phenoxy]-6-morpholino-s-triazin-2-yl]amino]propyl-propyl-amino]ethyl]oxindole;formic acid

> <PUBCHEM_IUPAC_INCHI>
InChI=1S/C39H46N14O4.CH2O2/c1-2-17-51(19-14-27-6-3-7-30-29(27)25-32(54)43-30)18-5-15-41-36-46-37(52-20-23-55-24-21-52)49-39(48-36)57-28-11-9-26(10-12-28)13-16-42-35-45-34(40)53-38(47-35)44-33(50-53)31-8-4-22-56-31;2-1-3/h3-4,6-12,22H,2,5,13-21,23-25H2,1H3,(H,43,54)(H,41,46,48,49)(H3,40,42,44,45,47,50);1H,(H,2,3)

> <PUBCHEM_IUPAC_INCHIKEY>
AAPKSMKRZNHCHJ-UHFFFAOYSA-N

> <PUBCHEM_EXACT_MASS>
820.38812531

> <PUBCHEM_MOLECULAR_FORMULA>
C40H48N14O6

> <PUBCHEM_MOLECULAR_WEIGHT>
820.9

> <PUBCHEM_OPENEYE_CAN_SMILES>
CCCN(CCCNC1=NC(=NC(=N1)OC2=CC=C(C=C2)CCNC3=NC4=NC(=NN4C(=N3)N)C5=CC=CO5)N6CCOCC6)CCC7=C8CC(=O)NC8=CC=C7.C(=O)O

> <PUBCHEM_OPENEYE_ISO_SMILES>
CCCN(CCCNC1=NC(=NC(=N1)OC2=CC=C(C=C2)CCNC3=NC4=NC(=NN4C(=N3)N)C5=CC=CO5)N6CCOCC6)CCC7=C8CC(=O)NC8=CC=C7.C(=O)O

> <PUBCHEM_CACTVS_TPSA>
249

> <PUBCHEM_MONOISOTOPIC_WEIGHT>
820.38812531

> <PUBCHEM_TOTAL_CHARGE>
0

> <PUBCHEM_HEAVY_ATOM_COUNT>
60

> <PUBCHEM_ATOM_DEF_STEREO_COUNT>
0

> <PUBCHEM_ATOM_UDEF_STEREO_COUNT>
0

> <PUBCHEM_BOND_DEF_STEREO_COUNT>
0

> <PUBCHEM_BOND_UDEF_STEREO_COUNT>
0

> <PUBCHEM_ISOTOPIC_ATOM_COUNT>
0

> <PUBCHEM_COMPONENT_COUNT>
2

> <PUBCHEM_CACTVS_TAUTO_COUNT>
-1

> <PUBCHEM_COORDINATE_TYPE>
1
5
255

> <PUBCHEM_BONDANNOTATIONS>
11  39  8
11  42  8
12  39  8
12  43  8
13  42  8
13  43  8
15  18  8
15  53  8
15  54  8
16  52  8
16  53  8
17  52  8
17  54  8
18  55  8
19  53  8
19  55  8
24  26  8
24  32  8
26  29  8
29  34  8
32  35  8
34  35  8
4  56  8
4  59  8
44  47  8
44  48  8
45  50  8
45  51  8
47  50  8
48  51  8
56  57  8
57  58  8
58  59  8

$$$$
