45483654
  -OEChem-09292322292D

148157  0     0  0  0  0  0  0999 V2000
    4.5981  -15.5453    0.0000 O   0  0  0  0  0  0  0  0  0  0  0  0
   19.1261   13.5453    0.0000 O   0  0  0  0  0  0  0  0  0  0  0  0
    8.0622   -7.5453    0.0000 O   0  0  0  0  0  0  0  0  0  0  0  0
   13.9299    8.5453    0.0000 O   0  0  0  0  0  0  0  0  0  0  0  0
    6.3301  -12.5453    0.0000 N   0  0  0  0  0  0  0  0  0  0  0  0
   15.6620   13.5453    0.0000 N   0  0  0  0  0  0  0  0  0  0  0  0
    4.5981  -13.5453    0.0000 N   0  0  0  0  0  0  0  0  0  0  0  0
   17.3940   14.5453    0.0000 N   0  0  0  0  0  0  0  0  0  0  0  0
    8.9282   -9.0453    0.0000 N   0  0  0  0  0  0  0  0  0  0  0  0
   13.0639   10.0453    0.0000 N   0  0  0  0  0  0  0  0  0  0  0  0
   10.1603   -3.5064    0.0000 N   0  0  0  0  0  0  0  0  0  0  0  0
   11.8318    4.5064    0.0000 N   0  0  0  0  0  0  0  0  0  0  0  0
   11.4693   -4.4575    0.0000 N   0  0  0  0  0  0  0  0  0  0  0  0
   10.5228    5.4575    0.0000 N   0  0  0  0  0  0  0  0  0  0  0  0
   11.1603   -3.5064    0.0000 N   0  0  0  0  0  0  0  0  0  0  0  0
   10.8318    4.5064    0.0000 N   0  0  0  0  0  0  0  0  0  0  0  0
    5.4641  -12.0453    0.0000 C   0  0  0  0  0  0  0  0  0  0  0  0
    6.3301  -13.5453    0.0000 C   0  0  0  0  0  0  0  0  0  0  0  0
   16.5280   13.0453    0.0000 C   0  0  0  0  0  0  0  0  0  0  0  0
   15.6620   14.5453    0.0000 C   0  0  0  0  0  0  0  0  0  0  0  0
    4.5981  -12.5453    0.0000 C   0  0  0  0  0  0  0  0  0  0  0  0
    5.4641  -14.0453    0.0000 C   0  0  0  0  0  0  0  0  0  0  0  0
   17.3940   13.5453    0.0000 C   0  0  0  0  0  0  0  0  0  0  0  0
   16.5280   15.0453    0.0000 C   0  0  0  0  0  0  0  0  0  0  0  0
    7.1962  -12.0453    0.0000 C   0  0  0  0  0  0  0  0  0  0  0  0
   14.7959   13.0453    0.0000 C   0  0  0  0  0  0  0  0  0  0  0  0
    7.1962  -11.0453    0.0000 C   0  0  0  0  0  0  0  0  0  0  0  0
   14.7959   12.0453    0.0000 C   0  0  0  0  0  0  0  0  0  0  0  0
    3.7320  -14.0453    0.0000 C   0  0  0  0  0  0  0  0  0  0  0  0
   18.2600   15.0453    0.0000 C   0  0  0  0  0  0  0  0  0  0  0  0
    8.0622  -10.5453    0.0000 C   0  0  0  0  0  0  0  0  0  0  0  0
   13.9299   11.5453    0.0000 C   0  0  0  0  0  0  0  0  0  0  0  0
    8.0622   -9.5453    0.0000 C   0  0  0  0  0  0  0  0  0  0  0  0
   13.9299   10.5453    0.0000 C   0  0  0  0  0  0  0  0  0  0  0  0
    3.7320  -15.0453    0.0000 C   0  0  0  0  0  0  0  0  0  0  0  0
   19.1261   14.5453    0.0000 C   0  0  0  0  0  0  0  0  0  0  0  0
    2.8660  -13.5453    0.0000 C   0  0  0  0  0  0  0  0  0  0  0  0
   18.2600   16.0453    0.0000 C   0  0  0  0  0  0  0  0  0  0  0  0
    2.8660  -15.5453    0.0000 C   0  0  0  0  0  0  0  0  0  0  0  0
   19.9921   15.0453    0.0000 C   0  0  0  0  0  0  0  0  0  0  0  0
    2.0000  -14.0453    0.0000 C   0  0  0  0  0  0  0  0  0  0  0  0
   19.1261   16.5453    0.0000 C   0  0  0  0  0  0  0  0  0  0  0  0
    2.0000  -15.0453    0.0000 C   0  0  0  0  0  0  0  0  0  0  0  0
   19.9921   16.0453    0.0000 C   0  0  0  0  0  0  0  0  0  0  0  0
    8.9282   -8.0453    0.0000 C   0  0  0  0  0  0  0  0  0  0  0  0
   13.0639    9.0453    0.0000 C   0  0  0  0  0  0  0  0  0  0  0  0
    4.5981  -16.5453    0.0000 C   0  0  0  0  0  0  0  0  0  0  0  0
   19.9921   13.0453    0.0000 C   0  0  0  0  0  0  0  0  0  0  0  0
    9.7942   -7.5453    0.0000 C   0  0  0  0  0  0  0  0  0  0  0  0
   12.1979    8.5453    0.0000 C   0  0  0  0  0  0  0  0  0  0  0  0
    9.7942   -6.5453    0.0000 C   0  0  0  0  0  0  0  0  0  0  0  0
   12.1979    7.5453    0.0000 C   0  0  0  0  0  0  0  0  0  0  0  0
   10.6603   -8.0453    0.0000 C   0  0  0  0  0  0  0  0  0  0  0  0
   11.3318    9.0453    0.0000 C   0  0  0  0  0  0  0  0  0  0  0  0
   10.6603   -6.0453    0.0000 C   0  0  0  0  0  0  0  0  0  0  0  0
   11.3318    7.0453    0.0000 C   0  0  0  0  0  0  0  0  0  0  0  0
   11.5263   -7.5453    0.0000 C   0  0  0  0  0  0  0  0  0  0  0  0
   10.4658    8.5453    0.0000 C   0  0  0  0  0  0  0  0  0  0  0  0
   11.5263   -6.5453    0.0000 C   0  0  0  0  0  0  0  0  0  0  0  0
   10.4658    7.5453    0.0000 C   0  0  0  0  0  0  0  0  0  0  0  0
   10.6603   -5.0453    0.0000 C   0  0  0  0  0  0  0  0  0  0  0  0
   11.3318    6.0453    0.0000 C   0  0  0  0  0  0  0  0  0  0  0  0
    9.8512   -4.4575    0.0000 C   0  0  0  0  0  0  0  0  0  0  0  0
   12.1409    5.4575    0.0000 C   0  0  0  0  0  0  0  0  0  0  0  0
    9.5725   -2.6974    0.0000 C   0  0  0  0  0  0  0  0  0  0  0  0
   12.4196    3.6974    0.0000 C   0  0  0  0  0  0  0  0  0  0  0  0
    9.9792   -1.7839    0.0000 C   0  0  0  0  0  0  0  0  0  0  0  0
   12.0129    2.7839    0.0000 C   0  0  0  0  0  0  0  0  0  0  0  0
   10.7927    0.0432    0.0000 C   0  0  0  0  0  0  0  0  0  0  0  0
   11.1994    0.9568    0.0000 C   0  0  0  0  0  0  0  0  0  0  0  0
   10.9737   -1.6793    0.0000 C   0  0  0  0  0  0  0  0  0  0  0  0
   11.0184    2.6793    0.0000 C   0  0  0  0  0  0  0  0  0  0  0  0
    9.3914   -0.9748    0.0000 C   0  0  0  0  0  0  0  0  0  0  0  0
   12.6007    1.9748    0.0000 C   0  0  0  0  0  0  0  0  0  0  0  0
   11.3805   -0.7658    0.0000 C   0  0  0  0  0  0  0  0  0  0  0  0
   10.6116    1.7658    0.0000 C   0  0  0  0  0  0  0  0  0  0  0  0
    9.7982   -0.0613    0.0000 C   0  0  0  0  0  0  0  0  0  0  0  0
   12.1939    1.0613    0.0000 C   0  0  0  0  0  0  0  0  0  0  0  0
    5.8626  -11.5703    0.0000 H   0  0  0  0  0  0  0  0  0  0  0  0
    5.0656  -11.5703    0.0000 H   0  0  0  0  0  0  0  0  0  0  0  0
    6.5422  -14.1279    0.0000 H   0  0  0  0  0  0  0  0  0  0  0  0
    6.9407  -13.4376    0.0000 H   0  0  0  0  0  0  0  0  0  0  0  0
   16.1295   12.5703    0.0000 H   0  0  0  0  0  0  0  0  0  0  0  0
   16.9265   12.5703    0.0000 H   0  0  0  0  0  0  0  0  0  0  0  0
   15.4499   15.1279    0.0000 H   0  0  0  0  0  0  0  0  0  0  0  0
   15.0514   14.4376    0.0000 H   0  0  0  0  0  0  0  0  0  0  0  0
    4.3860  -11.9627    0.0000 H   0  0  0  0  0  0  0  0  0  0  0  0
    3.9875  -12.6529    0.0000 H   0  0  0  0  0  0  0  0  0  0  0  0
    5.0656  -14.5202    0.0000 H   0  0  0  0  0  0  0  0  0  0  0  0
    5.8626  -14.5202    0.0000 H   0  0  0  0  0  0  0  0  0  0  0  0
   17.6061   12.9627    0.0000 H   0  0  0  0  0  0  0  0  0  0  0  0
   18.0046   13.6529    0.0000 H   0  0  0  0  0  0  0  0  0  0  0  0
   16.9265   15.5202    0.0000 H   0  0  0  0  0  0  0  0  0  0  0  0
   16.1295   15.5202    0.0000 H   0  0  0  0  0  0  0  0  0  0  0  0
    7.4082  -12.6279    0.0000 H   0  0  0  0  0  0  0  0  0  0  0  0
    7.8067  -11.9376    0.0000 H   0  0  0  0  0  0  0  0  0  0  0  0
   14.5839   13.6279    0.0000 H   0  0  0  0  0  0  0  0  0  0  0  0
   14.1854   12.9376    0.0000 H   0  0  0  0  0  0  0  0  0  0  0  0
    6.9841  -10.4627    0.0000 H   0  0  0  0  0  0  0  0  0  0  0  0
    6.5856  -11.1529    0.0000 H   0  0  0  0  0  0  0  0  0  0  0  0
   15.0080   11.4627    0.0000 H   0  0  0  0  0  0  0  0  0  0  0  0
   15.4065   12.1529    0.0000 H   0  0  0  0  0  0  0  0  0  0  0  0
    8.2742  -11.1279    0.0000 H   0  0  0  0  0  0  0  0  0  0  0  0
    8.6728  -10.4376    0.0000 H   0  0  0  0  0  0  0  0  0  0  0  0
   13.7179   12.1279    0.0000 H   0  0  0  0  0  0  0  0  0  0  0  0
   13.3193   11.4376    0.0000 H   0  0  0  0  0  0  0  0  0  0  0  0
    7.8501   -8.9627    0.0000 H   0  0  0  0  0  0  0  0  0  0  0  0
    7.4516   -9.6529    0.0000 H   0  0  0  0  0  0  0  0  0  0  0  0
   14.1420    9.9627    0.0000 H   0  0  0  0  0  0  0  0  0  0  0  0
   14.5405   10.6529    0.0000 H   0  0  0  0  0  0  0  0  0  0  0  0
    2.8660  -12.9253    0.0000 H   0  0  0  0  0  0  0  0  0  0  0  0
   17.7231   16.3553    0.0000 H   0  0  0  0  0  0  0  0  0  0  0  0
    2.8660  -16.1653    0.0000 H   0  0  0  0  0  0  0  0  0  0  0  0
   20.5290   14.7353    0.0000 H   0  0  0  0  0  0  0  0  0  0  0  0
    1.4631  -13.7353    0.0000 H   0  0  0  0  0  0  0  0  0  0  0  0
   19.1261   17.1653    0.0000 H   0  0  0  0  0  0  0  0  0  0  0  0
    9.4651   -9.3553    0.0000 H   0  0  0  0  0  0  0  0  0  0  0  0
   12.5270   10.3553    0.0000 H   0  0  0  0  0  0  0  0  0  0  0  0
    1.4631  -15.3553    0.0000 H   0  0  0  0  0  0  0  0  0  0  0  0
   20.5290   16.3553    0.0000 H   0  0  0  0  0  0  0  0  0  0  0  0
    3.9781  -16.5453    0.0000 H   0  0  0  0  0  0  0  0  0  0  0  0
    4.5981  -17.1653    0.0000 H   0  0  0  0  0  0  0  0  0  0  0  0
    5.2181  -16.5453    0.0000 H   0  0  0  0  0  0  0  0  0  0  0  0
   19.6821   12.5083    0.0000 H   0  0  0  0  0  0  0  0  0  0  0  0
   20.5290   12.7353    0.0000 H   0  0  0  0  0  0  0  0  0  0  0  0
   20.3021   13.5822    0.0000 H   0  0  0  0  0  0  0  0  0  0  0  0
    9.2573   -6.2353    0.0000 H   0  0  0  0  0  0  0  0  0  0  0  0
   12.7348    7.2353    0.0000 H   0  0  0  0  0  0  0  0  0  0  0  0
   10.6603   -8.6653    0.0000 H   0  0  0  0  0  0  0  0  0  0  0  0
   11.3318    9.6653    0.0000 H   0  0  0  0  0  0  0  0  0  0  0  0
   12.0632   -7.8553    0.0000 H   0  0  0  0  0  0  0  0  0  0  0  0
    9.9289    8.8553    0.0000 H   0  0  0  0  0  0  0  0  0  0  0  0
   12.0632   -6.2353    0.0000 H   0  0  0  0  0  0  0  0  0  0  0  0
    9.9289    7.2353    0.0000 H   0  0  0  0  0  0  0  0  0  0  0  0
    9.2616   -4.6491    0.0000 H   0  0  0  0  0  0  0  0  0  0  0  0
   12.7305    5.6491    0.0000 H   0  0  0  0  0  0  0  0  0  0  0  0
    9.0585   -2.3507    0.0000 H   0  0  0  0  0  0  0  0  0  0  0  0
    9.1418   -3.1434    0.0000 H   0  0  0  0  0  0  0  0  0  0  0  0
   12.9336    3.3507    0.0000 H   0  0  0  0  0  0  0  0  0  0  0  0
   12.8503    4.1434    0.0000 H   0  0  0  0  0  0  0  0  0  0  0  0
   11.3382   -2.1809    0.0000 H   0  0  0  0  0  0  0  0  0  0  0  0
   10.6539    3.1809    0.0000 H   0  0  0  0  0  0  0  0  0  0  0  0
    8.7748   -1.0396    0.0000 H   0  0  0  0  0  0  0  0  0  0  0  0
   13.2173    2.0396    0.0000 H   0  0  0  0  0  0  0  0  0  0  0  0
   11.9971   -0.7010    0.0000 H   0  0  0  0  0  0  0  0  0  0  0  0
    9.9950    1.7010    0.0000 H   0  0  0  0  0  0  0  0  0  0  0  0
    9.4337    0.4403    0.0000 H   0  0  0  0  0  0  0  0  0  0  0  0
   12.5584    0.5597    0.0000 H   0  0  0  0  0  0  0  0  0  0  0  0
  1 35  1  0  0  0  0
  1 47  1  0  0  0  0
  2 36  1  0  0  0  0
  2 48  1  0  0  0  0
  3 45  2  0  0  0  0
  4 46  2  0  0  0  0
  5 17  1  0  0  0  0
  5 18  1  0  0  0  0
  5 25  1  0  0  0  0
  6 19  1  0  0  0  0
  6 20  1  0  0  0  0
  6 26  1  0  0  0  0
  7 21  1  0  0  0  0
  7 22  1  0  0  0  0
  7 29  1  0  0  0  0
  8 23  1  0  0  0  0
  8 24  1  0  0  0  0
  8 30  1  0  0  0  0
  9 33  1  0  0  0  0
  9 45  1  0  0  0  0
  9117  1  0  0  0  0
 10 34  1  0  0  0  0
 10 46  1  0  0  0  0
 10118  1  0  0  0  0
 11 15  1  0  0  0  0
 11 63  1  0  0  0  0
 11 65  1  0  0  0  0
 12 16  1  0  0  0  0
 12 64  1  0  0  0  0
 12 66  1  0  0  0  0
 13 15  2  0  0  0  0
 13 61  1  0  0  0  0
 14 16  2  0  0  0  0
 14 62  1  0  0  0  0
 17 21  1  0  0  0  0
 17 79  1  0  0  0  0
 17 80  1  0  0  0  0
 18 22  1  0  0  0  0
 18 81  1  0  0  0  0
 18 82  1  0  0  0  0
 19 23  1  0  0  0  0
 19 83  1  0  0  0  0
 19 84  1  0  0  0  0
 20 24  1  0  0  0  0
 20 85  1  0  0  0  0
 20 86  1  0  0  0  0
 21 87  1  0  0  0  0
 21 88  1  0  0  0  0
 22 89  1  0  0  0  0
 22 90  1  0  0  0  0
 23 91  1  0  0  0  0
 23 92  1  0  0  0  0
 24 93  1  0  0  0  0
 24 94  1  0  0  0  0
 25 27  1  0  0  0  0
 25 95  1  0  0  0  0
 25 96  1  0  0  0  0
 26 28  1  0  0  0  0
 26 97  1  0  0  0  0
 26 98  1  0  0  0  0
 27 31  1  0  0  0  0
 27 99  1  0  0  0  0
 27100  1  0  0  0  0
 28 32  1  0  0  0  0
 28101  1  0  0  0  0
 28102  1  0  0  0  0
 29 35  1  0  0  0  0
 29 37  2  0  0  0  0
 30 36  1  0  0  0  0
 30 38  2  0  0  0  0
 31 33  1  0  0  0  0
 31103  1  0  0  0  0
 31104  1  0  0  0  0
 32 34  1  0  0  0  0
 32105  1  0  0  0  0
 32106  1  0  0  0  0
 33107  1  0  0  0  0
 33108  1  0  0  0  0
 34109  1  0  0  0  0
 34110  1  0  0  0  0
 35 39  2  0  0  0  0
 36 40  2  0  0  0  0
 37 41  1  0  0  0  0
 37111  1  0  0  0  0
 38 42  1  0  0  0  0
 38112  1  0  0  0  0
 39 43  1  0  0  0  0
 39113  1  0  0  0  0
 40 44  1  0  0  0  0
 40114  1  0  0  0  0
 41 43  2  0  0  0  0
 41115  1  0  0  0  0
 42 44  2  0  0  0  0
 42116  1  0  0  0  0
 43119  1  0  0  0  0
 44120  1  0  0  0  0
 45 49  1  0  0  0  0
 46 50  1  0  0  0  0
 47121  1  0  0  0  0
 47122  1  0  0  0  0
 47123  1  0  0  0  0
 48124  1  0  0  0  0
 48125  1  0  0  0  0
 48126  1  0  0  0  0
 49 51  1  0  0  0  0
 49 53  2  0  0  0  0
 50 52  1  0  0  0  0
 50 54  2  0  0  0  0
 51 55  2  0  0  0  0
 51127  1  0  0  0  0
 52 56  2  0  0  0  0
 52128  1  0  0  0  0
 53 57  1  0  0  0  0
 53129  1  0  0  0  0
 54 58  1  0  0  0  0
 54130  1  0  0  0  0
 55 59  1  0  0  0  0
 55 61  1  0  0  0  0
 56 60  1  0  0  0  0
 56 62  1  0  0  0  0
 57 59  2  0  0  0  0
 57131  1  0  0  0  0
 58 60  2  0  0  0  0
 58132  1  0  0  0  0
 59133  1  0  0  0  0
 60134  1  0  0  0  0
 61 63  2  0  0  0  0
 62 64  2  0  0  0  0
 63135  1  0  0  0  0
 64136  1  0  0  0  0
 65 67  1  0  0  0  0
 65137  1  0  0  0  0
 65138  1  0  0  0  0
 66 68  1  0  0  0  0
 66139  1  0  0  0  0
 66140  1  0  0  0  0
 67 71  2  0  0  0  0
 67 73  1  0  0  0  0
 68 72  2  0  0  0  0
 68 74  1  0  0  0  0
 69 70  1  0  0  0  0
 69 75  2  0  0  0  0
 69 77  1  0  0  0  0
 70 76  2  0  0  0  0
 70 78  1  0  0  0  0
 71 75  1  0  0  0  0
 71141  1  0  0  0  0
 72 76  1  0  0  0  0
 72142  1  0  0  0  0
 73 77  2  0  0  0  0
 73143  1  0  0  0  0
 74 78  2  0  0  0  0
 74144  1  0  0  0  0
 75145  1  0  0  0  0
 76146  1  0  0  0  0
 77147  1  0  0  0  0
 78148  1  0  0  0  0
M  END
> <PUBCHEM_COMPOUND_CID>
45483654

> <PUBCHEM_COMPOUND_CANONICALIZED>
1

> <PUBCHEM_CACTVS_COMPLEXITY>
1630

> <PUBCHEM_CACTVS_HBOND_ACCEPTOR>
12

> <PUBCHEM_CACTVS_HBOND_DONOR>
2

> <PUBCHEM_CACTVS_ROTATABLE_BOND>
23

> <PUBCHEM_CACTVS_SUBSKEYS>
AAADcfB/+AAAAAAAAAAAAAAAAAAAAWLAAAA8eMGDAAAAAAAB9AAAHgAYAAAADAzBngY+xpPIBACqAzV3VACCDAQ1sgAY2KE/fNgOZrLEtZuVMShk1hHY6YeYycCewAACAAAAEACAAAQAAAAgAAAAAAAAAA==

> <PUBCHEM_IUPAC_OPENEYE_NAME>
N-[4-[4-(2-methoxyphenyl)piperazin-1-yl]butyl]-3-[1-[[4-[4-[[4-[3-[4-[4-(2-methoxyphenyl)piperazin-1-yl]butylcarbamoyl]phenyl]triazol-1-yl]methyl]phenyl]phenyl]methyl]triazol-4-yl]benzamide

> <PUBCHEM_IUPAC_CAS_NAME>
N-[4-[4-(2-methoxyphenyl)-1-piperazinyl]butyl]-3-[1-[[4-[4-[[4-[3-[[4-[4-(2-methoxyphenyl)-1-piperazinyl]butylamino]-oxomethyl]phenyl]-1-triazolyl]methyl]phenyl]phenyl]methyl]-4-triazolyl]benzamide

> <PUBCHEM_IUPAC_NAME_MARKUP>
<I>N</I>-[4-[4-(2-methoxyphenyl)piperazin-1-yl]butyl]-3-[1-[[4-[4-[[4-[3-[4-[4-(2-methoxyphenyl)piperazin-1-yl]butylcarbamoyl]phenyl]triazol-1-yl]methyl]phenyl]phenyl]methyl]triazol-4-yl]benzamide

> <PUBCHEM_IUPAC_NAME>
N-[4-[4-(2-methoxyphenyl)piperazin-1-yl]butyl]-3-[1-[[4-[4-[[4-[3-[4-[4-(2-methoxyphenyl)piperazin-1-yl]butylcarbamoyl]phenyl]triazol-1-yl]methyl]phenyl]phenyl]methyl]triazol-4-yl]benzamide

> <PUBCHEM_IUPAC_SYSTEMATIC_NAME>
N-[4-[4-(2-methoxyphenyl)piperazin-1-yl]butyl]-3-[1-[[4-[4-[[4-[3-[4-[4-(2-methoxyphenyl)piperazin-1-yl]butylcarbamoyl]phenyl]-1,2,3-triazol-1-yl]methyl]phenyl]phenyl]methyl]-1,2,3-triazol-4-yl]benzamide

> <PUBCHEM_IUPAC_TRADITIONAL_NAME>
N-[4-[4-(2-methoxyphenyl)piperazino]butyl]-3-[1-[4-[4-[[4-[3-[4-[4-(2-methoxyphenyl)piperazino]butylcarbamoyl]phenyl]triazol-1-yl]methyl]phenyl]benzyl]triazol-4-yl]benzamide

> <PUBCHEM_IUPAC_INCHI>
InChI=1S/C62H70N12O4/c1-77-59-19-5-3-17-57(59)71-37-33-69(34-38-71)31-9-7-29-63-61(75)53-15-11-13-51(41-53)55-45-73(67-65-55)43-47-21-25-49(26-22-47)50-27-23-48(24-28-50)44-74-46-56(66-68-74)52-14-12-16-54(42-52)62(76)64-30-8-10-32-70-35-39-72(40-36-70)58-18-4-6-20-60(58)78-2/h3-6,11-28,41-42,45-46H,7-10,29-40,43-44H2,1-2H3,(H,63,75)(H,64,76)

> <PUBCHEM_IUPAC_INCHIKEY>
DQCAQRKXBHDRGF-UHFFFAOYSA-N

> <PUBCHEM_XLOGP3_AA>
8.8

> <PUBCHEM_EXACT_MASS>
1046.56429876

> <PUBCHEM_MOLECULAR_FORMULA>
C62H70N12O4

> <PUBCHEM_MOLECULAR_WEIGHT>
1047.3

> <PUBCHEM_OPENEYE_CAN_SMILES>
COC1=CC=CC=C1N2CCN(CC2)CCCCNC(=O)C3=CC=CC(=C3)C4=CN(N=N4)CC5=CC=C(C=C5)C6=CC=C(C=C6)CN7C=C(N=N7)C8=CC(=CC=C8)C(=O)NCCCCN9CCN(CC9)C1=CC=CC=C1OC

> <PUBCHEM_OPENEYE_ISO_SMILES>
COC1=CC=CC=C1N2CCN(CC2)CCCCNC(=O)C3=CC=CC(=C3)C4=CN(N=N4)CC5=CC=C(C=C5)C6=CC=C(C=C6)CN7C=C(N=N7)C8=CC(=CC=C8)C(=O)NCCCCN9CCN(CC9)C1=CC=CC=C1OC

> <PUBCHEM_CACTVS_TPSA>
151

> <PUBCHEM_MONOISOTOPIC_WEIGHT>
1046.56429876

> <PUBCHEM_TOTAL_CHARGE>
0

> <PUBCHEM_HEAVY_ATOM_COUNT>
78

> <PUBCHEM_ATOM_DEF_STEREO_COUNT>
0

> <PUBCHEM_ATOM_UDEF_STEREO_COUNT>
0

> <PUBCHEM_BOND_DEF_STEREO_COUNT>
0

> <PUBCHEM_BOND_UDEF_STEREO_COUNT>
0

> <PUBCHEM_ISOTOPIC_ATOM_COUNT>
0

> <PUBCHEM_COMPONENT_COUNT>
1

> <PUBCHEM_CACTVS_TAUTO_COUNT>
-1

> <PUBCHEM_COORDINATE_TYPE>
1
5
255

> <PUBCHEM_BONDANNOTATIONS>
11  15  8
11  63  8
12  16  8
12  64  8
13  15  8
13  61  8
14  16  8
14  62  8
29  35  8
29  37  8
30  36  8
30  38  8
35  39  8
36  40  8
37  41  8
38  42  8
39  43  8
40  44  8
41  43  8
42  44  8
49  51  8
49  53  8
50  52  8
50  54  8
51  55  8
52  56  8
53  57  8
54  58  8
55  59  8
56  60  8
57  59  8
58  60  8
61  63  8
62  64  8
67  71  8
67  73  8
68  72  8
68  74  8
69  75  8
69  77  8
70  76  8
70  78  8
71  75  8
72  76  8
73  77  8
74  78  8

$$$$
