44454118
  -OEChem-09292322492D

 54 58  0     1  0  0  0  0  0999 V2000
    8.1114    1.4906    0.0000 S   0  0  0  0  0  0  0  0  0  0  0  0
    3.3938   -4.8257    0.0000 O   0  0  0  0  0  0  0  0  0  0  0  0
   10.9352    4.8242    0.0000 O   0  0  0  0  0  0  0  0  0  0  0  0
    5.1114   -0.2414    0.0000 N   0  0  3  0  0  0  0  0  0  0  0  0
    2.0000   -4.0210    0.0000 N   0  0  0  0  0  0  0  0  0  0  0  0
    9.6059    2.4612    0.0000 N   0  0  0  0  0  0  0  0  0  0  0  0
    8.2046    3.2702    0.0000 N   0  0  0  0  0  0  0  0  0  0  0  0
    8.9478    3.9393    0.0000 N   0  0  0  0  0  0  0  0  0  0  0  0
   12.3365    4.0152    0.0000 N   0  0  0  0  0  0  0  0  0  0  0  0
    5.6649   -1.0510    0.0000 C   0  0  0  0  0  0  0  0  0  0  0  0
    4.1334   -0.1668    0.0000 C   0  0  0  0  0  0  0  0  0  0  0  0
    5.3796   -1.9894    0.0000 C   0  0  0  0  0  0  0  0  0  0  0  0
    3.4634   -0.8831    0.0000 C   0  0  0  0  0  0  0  0  0  0  0  0
    4.4691   -2.3539    0.0000 C   0  0  0  0  0  0  0  0  0  0  0  0
    3.6030   -1.8539    0.0000 C   0  0  0  0  0  0  0  0  0  0  0  0
    5.6114    0.6246    0.0000 C   0  0  0  0  0  0  0  0  0  0  0  0
    6.6114    0.6246    0.0000 C   0  0  0  0  0  0  0  0  0  0  0  0
    4.4691   -3.3539    0.0000 C   0  0  0  0  0  0  0  0  0  0  0  0
    2.7370   -2.3539    0.0000 C   0  0  0  0  0  0  0  0  0  0  0  0
    3.6030   -3.8539    0.0000 C   0  0  0  0  0  0  0  0  0  0  0  0
    2.7370   -3.3539    0.0000 C   0  0  0  0  0  0  0  0  0  0  0  0
    7.1114    1.4906    0.0000 C   0  0  0  0  0  0  0  0  0  0  0  0
    2.4051   -4.9288    0.0000 C   0  0  0  0  0  0  0  0  0  0  0  0
    8.6114    2.3567    0.0000 C   0  0  0  0  0  0  0  0  0  0  0  0
    9.8138    3.4393    0.0000 C   0  0  0  0  0  0  0  0  0  0  0  0
   10.2750    1.7180    0.0000 C   0  0  0  0  0  0  0  0  0  0  0  0
   10.7273    3.8461    0.0000 C   0  0  0  0  0  0  0  0  0  0  0  0
   11.5934    3.3461    0.0000 C   0  0  0  0  0  0  0  0  0  0  0  0
   11.6979    2.3516    0.0000 C   0  0  0  0  0  0  0  0  0  0  0  0
   11.9298    4.9288    0.0000 C   0  0  0  0  0  0  0  0  0  0  0  0
    6.2028   -1.3594    0.0000 H   0  0  0  0  0  0  0  0  0  0  0  0
    6.0856   -0.5956    0.0000 H   0  0  0  0  0  0  0  0  0  0  0  0
    4.3175    0.4252    0.0000 H   0  0  0  0  0  0  0  0  0  0  0  0
    3.5974    0.1449    0.0000 H   0  0  0  0  0  0  0  0  0  0  0  0
    5.4756   -2.6020    0.0000 H   0  0  0  0  0  0  0  0  0  0  0  0
    5.9981   -2.0327    0.0000 H   0  0  0  0  0  0  0  0  0  0  0  0
    3.1167   -0.3691    0.0000 H   0  0  0  0  0  0  0  0  0  0  0  0
    2.8849   -1.1062    0.0000 H   0  0  0  0  0  0  0  0  0  0  0  0
    5.7190    1.2352    0.0000 H   0  0  0  0  0  0  0  0  0  0  0  0
    5.0287    0.8367    0.0000 H   0  0  0  0  0  0  0  0  0  0  0  0
    6.5037    0.0140    0.0000 H   0  0  0  0  0  0  0  0  0  0  0  0
    7.1940    0.4126    0.0000 H   0  0  0  0  0  0  0  0  0  0  0  0
    5.0060   -3.6639    0.0000 H   0  0  0  0  0  0  0  0  0  0  0  0
    2.2001   -2.0439    0.0000 H   0  0  0  0  0  0  0  0  0  0  0  0
    7.2190    2.1012    0.0000 H   0  0  0  0  0  0  0  0  0  0  0  0
    6.5287    1.7027    0.0000 H   0  0  0  0  0  0  0  0  0  0  0  0
    2.0951   -5.4657    0.0000 H   0  0  0  0  0  0  0  0  0  0  0  0
    9.8142    1.3032    0.0000 H   0  0  0  0  0  0  0  0  0  0  0  0
   10.6899    1.2573    0.0000 H   0  0  0  0  0  0  0  0  0  0  0  0
   10.7357    2.1329    0.0000 H   0  0  0  0  0  0  0  0  0  0  0  0
   11.0813    2.2867    0.0000 H   0  0  0  0  0  0  0  0  0  0  0  0
   11.7627    1.7350    0.0000 H   0  0  0  0  0  0  0  0  0  0  0  0
   12.3145    2.4164    0.0000 H   0  0  0  0  0  0  0  0  0  0  0  0
   12.2398    5.4657    0.0000 H   0  0  0  0  0  0  0  0  0  0  0  0
  1 22  1  0  0  0  0
  1 24  1  0  0  0  0
  2 20  1  0  0  0  0
  2 23  1  0  0  0  0
  3 27  1  0  0  0  0
  3 30  1  0  0  0  0
  4 10  1  0  0  0  0
  4 11  1  0  0  0  0
  4 16  1  0  0  0  0
  5 21  1  0  0  0  0
  5 23  2  0  0  0  0
  6 24  1  0  0  0  0
  6 25  1  0  0  0  0
  6 26  1  0  0  0  0
  7  8  1  0  0  0  0
  7 24  2  0  0  0  0
  8 25  2  0  0  0  0
  9 28  1  0  0  0  0
  9 30  2  0  0  0  0
 10 12  1  0  0  0  0
 10 31  1  0  0  0  0
 10 32  1  0  0  0  0
 11 13  1  0  0  0  0
 11 33  1  0  0  0  0
 11 34  1  0  0  0  0
 12 14  1  0  0  0  0
 12 35  1  0  0  0  0
 12 36  1  0  0  0  0
 13 15  1  0  0  0  0
 13 37  1  0  0  0  0
 13 38  1  0  0  0  0
 14 15  1  0  0  0  0
 14 18  2  0  0  0  0
 15 19  2  0  0  0  0
 16 17  1  0  0  0  0
 16 39  1  0  0  0  0
 16 40  1  0  0  0  0
 17 22  1  0  0  0  0
 17 41  1  0  0  0  0
 17 42  1  0  0  0  0
 18 20  1  0  0  0  0
 18 43  1  0  0  0  0
 19 21  1  0  0  0  0
 19 44  1  0  0  0  0
 20 21  2  0  0  0  0
 22 45  1  0  0  0  0
 22 46  1  0  0  0  0
 23 47  1  0  0  0  0
 25 27  1  0  0  0  0
 26 48  1  0  0  0  0
 26 49  1  0  0  0  0
 26 50  1  0  0  0  0
 27 28  2  0  0  0  0
 28 29  1  0  0  0  0
 29 51  1  0  0  0  0
 29 52  1  0  0  0  0
 29 53  1  0  0  0  0
 30 54  1  0  0  0  0
M  END
> <PUBCHEM_COMPOUND_CID>
44454118

> <PUBCHEM_COMPOUND_CANONICALIZED>
1

> <PUBCHEM_CACTVS_COMPLEXITY>
574

> <PUBCHEM_CACTVS_HBOND_ACCEPTOR>
8

> <PUBCHEM_CACTVS_HBOND_DONOR>
0

> <PUBCHEM_CACTVS_ROTATABLE_BOND>
6

> <PUBCHEM_CACTVS_SUBSKEYS>
AAADceB7sABAAAAAAAAAAAAAAAAAAWLFgAAwAAAABYAAAFgB/gAAHgQIAAAADAzF3wa31rcMFEiqA6Zz9ASS2Ct/YrAV2CG/bNiOLrLk/buNMShkzBPY6YeY2bKOqAABQAAQEABQAAKAACAgAAAAAAAAAA==

> <PUBCHEM_IUPAC_OPENEYE_NAME>
7-[3-[[4-methyl-5-(4-methyloxazol-5-yl)-1,2,4-triazol-3-yl]sulfanyl]propyl]-5,6,8,9-tetrahydrooxazolo[4,5-h][3]benzazepine

> <PUBCHEM_IUPAC_CAS_NAME>
7-[3-[[4-methyl-5-(4-methyl-5-oxazolyl)-1,2,4-triazol-3-yl]thio]propyl]-5,6,8,9-tetrahydrooxazolo[4,5-h][3]benzazepine

> <PUBCHEM_IUPAC_NAME_MARKUP>
7-[3-[[4-methyl-5-(4-methyl-1,3-oxazol-5-yl)-1,2,4-triazol-3-yl]sulfanyl]propyl]-5,6,8,9-tetrahydro-[1,3]oxazolo[4,5-h][3]benzazepine

> <PUBCHEM_IUPAC_NAME>
7-[3-[[4-methyl-5-(4-methyl-1,3-oxazol-5-yl)-1,2,4-triazol-3-yl]sulfanyl]propyl]-5,6,8,9-tetrahydro-[1,3]oxazolo[4,5-h][3]benzazepine

> <PUBCHEM_IUPAC_SYSTEMATIC_NAME>
7-[3-[[4-methyl-5-(4-methyl-1,3-oxazol-5-yl)-1,2,4-triazol-3-yl]sulfanyl]propyl]-5,6,8,9-tetrahydro-[1,3]oxazolo[4,5-h][3]benzazepine

> <PUBCHEM_IUPAC_TRADITIONAL_NAME>
7-[3-[[4-methyl-5-(4-methyloxazol-5-yl)-1,2,4-triazol-3-yl]thio]propyl]-5,6,8,9-tetrahydrooxazolo[4,5-h][3]benzazepine

> <PUBCHEM_IUPAC_INCHI>
InChI=1S/C21H24N6O2S/c1-14-19(29-12-22-14)20-24-25-21(26(20)2)30-9-3-6-27-7-4-15-10-17-18(28-13-23-17)11-16(15)5-8-27/h10-13H,3-9H2,1-2H3

> <PUBCHEM_IUPAC_INCHIKEY>
PSMOCFUMBCKOPV-UHFFFAOYSA-N

> <PUBCHEM_XLOGP3_AA>
3

> <PUBCHEM_EXACT_MASS>
424.16814520

> <PUBCHEM_MOLECULAR_FORMULA>
C21H24N6O2S

> <PUBCHEM_MOLECULAR_WEIGHT>
424.5

> <PUBCHEM_OPENEYE_CAN_SMILES>
CC1=C(OC=N1)C2=NN=C(N2C)SCCCN3CCC4=CC5=C(C=C4CC3)OC=N5

> <PUBCHEM_OPENEYE_ISO_SMILES>
CC1=C(OC=N1)C2=NN=C(N2C)SCCCN3CCC4=CC5=C(C=C4CC3)OC=N5

> <PUBCHEM_CACTVS_TPSA>
111

> <PUBCHEM_MONOISOTOPIC_WEIGHT>
424.16814520

> <PUBCHEM_TOTAL_CHARGE>
0

> <PUBCHEM_HEAVY_ATOM_COUNT>
30

> <PUBCHEM_ATOM_DEF_STEREO_COUNT>
0

> <PUBCHEM_ATOM_UDEF_STEREO_COUNT>
0

> <PUBCHEM_BOND_DEF_STEREO_COUNT>
0

> <PUBCHEM_BOND_UDEF_STEREO_COUNT>
0

> <PUBCHEM_ISOTOPIC_ATOM_COUNT>
0

> <PUBCHEM_COMPONENT_COUNT>
1

> <PUBCHEM_CACTVS_TAUTO_COUNT>
-1

> <PUBCHEM_COORDINATE_TYPE>
1
5
255

> <PUBCHEM_BONDANNOTATIONS>
14  15  8
14  18  8
15  19  8
18  20  8
19  21  8
2  20  8
2  23  8
20  21  8
27  28  8
3  27  8
3  30  8
5  21  8
5  23  8
6  24  8
6  25  8
7  24  8
7  8  8
8  25  8
9  28  8
9  30  8

$$$$
