14890816
  -OEChem-09292322142D

 48 49  0     1  0  0  0  0  0999 V2000
    6.0010   -4.6445    0.0000 Cl  0  0  0  0  0  0  0  0  0  0  0  0
    2.5369   -4.6445    0.0000 Cl  0  0  0  0  0  0  0  0  0  0  0  0
    3.4030   -1.1445    0.0000 O   0  0  0  0  0  0  0  0  0  0  0  0
    6.0010   -2.6445    0.0000 O   0  0  0  0  0  0  0  0  0  0  0  0
    2.5369   -2.6445    0.0000 O   0  0  0  0  0  0  0  0  0  0  0  0
    6.1056    1.3500    0.0000 N   0  0  3  0  0  0  0  0  0  0  0  0
    5.1350   -1.1445    0.0000 N   0  0  0  0  0  0  0  0  0  0  0  0
    6.0010    0.3555    0.0000 C   0  0  1  0  0  0  0  0  0  0  0  0
    6.9146   -0.0513    0.0000 C   0  0  0  0  0  0  0  0  0  0  0  0
    7.0837    1.5579    0.0000 C   0  0  0  0  0  0  0  0  0  0  0  0
    7.5837    0.6919    0.0000 C   0  0  0  0  0  0  0  0  0  0  0  0
    5.3624    2.0191    0.0000 C   0  0  0  0  0  0  0  0  0  0  0  0
    5.1350   -0.1445    0.0000 C   0  0  0  0  0  0  0  0  0  0  0  0
    5.5703    2.9973    0.0000 C   0  0  0  0  0  0  0  0  0  0  0  0
    4.8272    3.6664    0.0000 C   0  0  0  0  0  0  0  0  0  0  0  0
    4.2690   -1.6445    0.0000 C   0  0  0  0  0  0  0  0  0  0  0  0
    5.0351    4.6445    0.0000 C   0  0  0  0  0  0  0  0  0  0  0  0
    4.2690   -2.6445    0.0000 C   0  0  0  0  0  0  0  0  0  0  0  0
    5.1350   -3.1445    0.0000 C   0  0  0  0  0  0  0  0  0  0  0  0
    3.4030   -3.1445    0.0000 C   0  0  0  0  0  0  0  0  0  0  0  0
    5.1350   -4.1445    0.0000 C   0  0  0  0  0  0  0  0  0  0  0  0
    3.4030   -4.1445    0.0000 C   0  0  0  0  0  0  0  0  0  0  0  0
    4.2690   -4.6445    0.0000 C   0  0  0  0  0  0  0  0  0  0  0  0
    6.8671   -3.1445    0.0000 C   0  0  0  0  0  0  0  0  0  0  0  0
    5.4811    0.6931    0.0000 H   0  0  0  0  0  0  0  0  0  0  0  0
    6.6046   -0.5882    0.0000 H   0  0  0  0  0  0  0  0  0  0  0  0
    7.4162   -0.4157    0.0000 H   0  0  0  0  0  0  0  0  0  0  0  0
    7.6501    1.8101    0.0000 H   0  0  0  0  0  0  0  0  0  0  0  0
    6.8921    2.1476    0.0000 H   0  0  0  0  0  0  0  0  0  0  0  0
    7.9986    0.2311    0.0000 H   0  0  0  0  0  0  0  0  0  0  0  0
    8.0853    1.0563    0.0000 H   0  0  0  0  0  0  0  0  0  0  0  0
    4.7876    2.2514    0.0000 H   0  0  0  0  0  0  0  0  0  0  0  0
    5.0339    1.4933    0.0000 H   0  0  0  0  0  0  0  0  0  0  0  0
    4.9230    0.4381    0.0000 H   0  0  0  0  0  0  0  0  0  0  0  0
    4.5244   -0.2522    0.0000 H   0  0  0  0  0  0  0  0  0  0  0  0
    6.1452    2.7650    0.0000 H   0  0  0  0  0  0  0  0  0  0  0  0
    5.8989    3.5230    0.0000 H   0  0  0  0  0  0  0  0  0  0  0  0
    5.6720   -1.4545    0.0000 H   0  0  0  0  0  0  0  0  0  0  0  0
    4.2523    3.8986    0.0000 H   0  0  0  0  0  0  0  0  0  0  0  0
    4.4986    3.1406    0.0000 H   0  0  0  0  0  0  0  0  0  0  0  0
    5.6415    4.5156    0.0000 H   0  0  0  0  0  0  0  0  0  0  0  0
    5.1640    5.2510    0.0000 H   0  0  0  0  0  0  0  0  0  0  0  0
    4.4286    4.7734    0.0000 H   0  0  0  0  0  0  0  0  0  0  0  0
    4.2690   -5.2645    0.0000 H   0  0  0  0  0  0  0  0  0  0  0  0
    2.0000   -2.9545    0.0000 H   0  0  0  0  0  0  0  0  0  0  0  0
    6.5571   -3.6815    0.0000 H   0  0  0  0  0  0  0  0  0  0  0  0
    7.4040   -3.4545    0.0000 H   0  0  0  0  0  0  0  0  0  0  0  0
    7.1771   -2.6076    0.0000 H   0  0  0  0  0  0  0  0  0  0  0  0
  1 21  1  0  0  0  0
  2 22  1  0  0  0  0
  3 16  2  0  0  0  0
  4 19  1  0  0  0  0
  4 24  1  0  0  0  0
  5 20  1  0  0  0  0
  5 45  1  0  0  0  0
  6  8  1  0  0  0  0
  6 10  1  0  0  0  0
  6 12  1  0  0  0  0
  7 13  1  0  0  0  0
  7 16  1  0  0  0  0
  7 38  1  0  0  0  0
  8  9  1  0  0  0  0
  8 13  1  1  0  0  0
  8 25  1  0  0  0  0
  9 11  1  0  0  0  0
  9 26  1  0  0  0  0
  9 27  1  0  0  0  0
 10 11  1  0  0  0  0
 10 28  1  0  0  0  0
 10 29  1  0  0  0  0
 11 30  1  0  0  0  0
 11 31  1  0  0  0  0
 12 14  1  0  0  0  0
 12 32  1  0  0  0  0
 12 33  1  0  0  0  0
 13 34  1  0  0  0  0
 13 35  1  0  0  0  0
 14 15  1  0  0  0  0
 14 36  1  0  0  0  0
 14 37  1  0  0  0  0
 15 17  1  0  0  0  0
 15 39  1  0  0  0  0
 15 40  1  0  0  0  0
 16 18  1  0  0  0  0
 17 41  1  0  0  0  0
 17 42  1  0  0  0  0
 17 43  1  0  0  0  0
 18 19  1  0  0  0  0
 18 20  2  0  0  0  0
 19 21  2  0  0  0  0
 20 22  1  0  0  0  0
 21 23  1  0  0  0  0
 22 23  2  0  0  0  0
 23 44  1  0  0  0  0
 24 46  1  0  0  0  0
 24 47  1  0  0  0  0
 24 48  1  0  0  0  0
M  END
> <PUBCHEM_COMPOUND_CID>
14890816

> <PUBCHEM_COMPOUND_CANONICALIZED>
1

> <PUBCHEM_CACTVS_COMPLEXITY>
413

> <PUBCHEM_CACTVS_HBOND_ACCEPTOR>
4

> <PUBCHEM_CACTVS_HBOND_DONOR>
2

> <PUBCHEM_CACTVS_ROTATABLE_BOND>
7

> <PUBCHEM_CACTVS_SUBSKEYS>
AAADceB7MAAGAAAAAAAAAAAAAAAAAWAAAAAwAAAAAAAAAAABAAAAHgIQCAAADC7BmCYyBoPABgCIAiFSEACCCAAkJUAAiIEMD8gMZzeHthuUcWhn9hWIuQeY6CyOACAAKACICAAAQABQARAQAAAAAAAAAA==

> <PUBCHEM_IUPAC_OPENEYE_NAME>
N-[[(2S)-1-butylpyrrolidin-2-yl]methyl]-3,5-dichloro-2-hydroxy-6-methoxy-benzamide

> <PUBCHEM_IUPAC_CAS_NAME>
N-[[(2S)-1-butyl-2-pyrrolidinyl]methyl]-3,5-dichloro-2-hydroxy-6-methoxybenzamide

> <PUBCHEM_IUPAC_NAME_MARKUP>
<I>N</I>-[[(2<I>S</I>)-1-butylpyrrolidin-2-yl]methyl]-3,5-dichloro-2-hydroxy-6-methoxybenzamide

> <PUBCHEM_IUPAC_NAME>
N-[[(2S)-1-butylpyrrolidin-2-yl]methyl]-3,5-dichloro-2-hydroxy-6-methoxybenzamide

> <PUBCHEM_IUPAC_SYSTEMATIC_NAME>
N-[[(2S)-1-butylpyrrolidin-2-yl]methyl]-3,5-bis(chloranyl)-2-methoxy-6-oxidanyl-benzamide

> <PUBCHEM_IUPAC_TRADITIONAL_NAME>
N-[[(2S)-1-butylpyrrolidin-2-yl]methyl]-3,5-dichloro-2-hydroxy-6-methoxy-benzamide

> <PUBCHEM_IUPAC_INCHI>
InChI=1S/C17H24Cl2N2O3/c1-3-4-7-21-8-5-6-11(21)10-20-17(23)14-15(22)12(18)9-13(19)16(14)24-2/h9,11,22H,3-8,10H2,1-2H3,(H,20,23)/t11-/m0/s1

> <PUBCHEM_IUPAC_INCHIKEY>
CNSIMBWPOIUYFN-NSHDSACASA-N

> <PUBCHEM_XLOGP3_AA>
4.5

> <PUBCHEM_EXACT_MASS>
374.1163980

> <PUBCHEM_MOLECULAR_FORMULA>
C17H24Cl2N2O3

> <PUBCHEM_MOLECULAR_WEIGHT>
375.3

> <PUBCHEM_OPENEYE_CAN_SMILES>
CCCCN1CCCC1CNC(=O)C2=C(C(=CC(=C2OC)Cl)Cl)O

> <PUBCHEM_OPENEYE_ISO_SMILES>
CCCCN1CCC[C@H]1CNC(=O)C2=C(C(=CC(=C2OC)Cl)Cl)O

> <PUBCHEM_CACTVS_TPSA>
61.8

> <PUBCHEM_MONOISOTOPIC_WEIGHT>
374.1163980

> <PUBCHEM_TOTAL_CHARGE>
0

> <PUBCHEM_HEAVY_ATOM_COUNT>
24

> <PUBCHEM_ATOM_DEF_STEREO_COUNT>
1

> <PUBCHEM_ATOM_UDEF_STEREO_COUNT>
0

> <PUBCHEM_BOND_DEF_STEREO_COUNT>
0

> <PUBCHEM_BOND_UDEF_STEREO_COUNT>
0

> <PUBCHEM_ISOTOPIC_ATOM_COUNT>
0

> <PUBCHEM_COMPONENT_COUNT>
1

> <PUBCHEM_CACTVS_TAUTO_COUNT>
-1

> <PUBCHEM_COORDINATE_TYPE>
1
5
255

> <PUBCHEM_BONDANNOTATIONS>
18  19  8
18  20  8
19  21  8
20  22  8
21  23  8
22  23  8
8  13  5

$$$$
