44350867
  -OEChem-09292322112D

 71 73  0     0  0  0  0  0  0999 V2000
   14.2562   15.8949    0.0000 Cl  0  0  0  0  0  0  0  0  0  0  0  0
    7.0749    2.6200    0.0000 O   0  0  0  0  0  0  0  0  0  0  0  0
   12.2141   11.7078    0.0000 O   0  0  0  0  0  0  0  0  0  0  0  0
   12.2711    9.6200    0.0000 O   0  0  0  0  0  0  0  0  0  0  0  0
    3.1350    7.6974    0.0000 O   0  0  0  0  0  0  0  0  0  0  0  0
    0.5369    8.1974    0.0000 O   0  0  0  0  0  0  0  0  0  0  0  0
    2.2690    9.1974    0.0000 O   0  0  0  0  0  0  0  0  0  0  0  0
    1.4030    6.6974    0.0000 O   0  0  0  0  0  0  0  0  0  0  0  0
    8.8070    5.6200    0.0000 N   0  0  0  0  0  0  0  0  0  0  0  0
    8.8070    3.6200    0.0000 N   0  0  0  0  0  0  0  0  0  0  0  0
   10.5390    9.6200    0.0000 N   0  0  0  0  0  0  0  0  0  0  0  0
    9.6730    5.1200    0.0000 C   0  0  0  0  0  0  0  0  0  0  0  0
    7.9409    5.1200    0.0000 C   0  0  0  0  0  0  0  0  0  0  0  0
    9.6730    4.1200    0.0000 C   0  0  0  0  0  0  0  0  0  0  0  0
    7.9409    4.1200    0.0000 C   0  0  0  0  0  0  0  0  0  0  0  0
    8.8070    6.6200    0.0000 C   0  0  0  0  0  0  0  0  0  0  0  0
    9.6730    7.1200    0.0000 C   0  0  0  0  0  0  0  0  0  0  0  0
    8.8070    2.6200    0.0000 C   0  0  0  0  0  0  0  0  0  0  0  0
    9.6730    8.1200    0.0000 C   0  0  0  0  0  0  0  0  0  0  0  0
   10.5390    8.6200    0.0000 C   0  0  0  0  0  0  0  0  0  0  0  0
    7.9409    2.1200    0.0000 C   0  0  0  0  0  0  0  0  0  0  0  0
    9.6730    2.1200    0.0000 C   0  0  0  0  0  0  0  0  0  0  0  0
    7.9409    1.1200    0.0000 C   0  0  0  0  0  0  0  0  0  0  0  0
    9.6730    1.1200    0.0000 C   0  0  0  0  0  0  0  0  0  0  0  0
    8.8070    0.6200    0.0000 C   0  0  0  0  0  0  0  0  0  0  0  0
   11.4050   10.1200    0.0000 C   0  0  0  0  0  0  0  0  0  0  0  0
    6.2089    2.1200    0.0000 C   0  0  0  0  0  0  0  0  0  0  0  0
   11.4050   11.1200    0.0000 C   0  0  0  0  0  0  0  0  0  0  0  0
   10.5960   11.7078    0.0000 C   0  0  0  0  0  0  0  0  0  0  0  0
   11.9050   12.6588    0.0000 C   0  0  0  0  0  0  0  0  0  0  0  0
   10.9050   12.6588    0.0000 C   0  0  0  0  0  0  0  0  0  0  0  0
   12.4928   13.4679    0.0000 C   0  0  0  0  0  0  0  0  0  0  0  0
   12.0861   14.3814    0.0000 C   0  0  0  0  0  0  0  0  0  0  0  0
   13.4873   13.3633    0.0000 C   0  0  0  0  0  0  0  0  0  0  0  0
   12.6739   15.1904    0.0000 C   0  0  0  0  0  0  0  0  0  0  0  0
   14.0751   14.1723    0.0000 C   0  0  0  0  0  0  0  0  0  0  0  0
   13.6684   15.0859    0.0000 C   0  0  0  0  0  0  0  0  0  0  0  0
    2.2690    8.1974    0.0000 C   0  0  0  0  0  0  0  0  0  0  0  0
    1.4030    7.6974    0.0000 C   0  0  0  0  0  0  0  0  0  0  0  0
   10.2836    5.0123    0.0000 H   0  0  0  0  0  0  0  0  0  0  0  0
    9.8850    5.7026    0.0000 H   0  0  0  0  0  0  0  0  0  0  0  0
    7.7289    5.7026    0.0000 H   0  0  0  0  0  0  0  0  0  0  0  0
    7.3304    5.0123    0.0000 H   0  0  0  0  0  0  0  0  0  0  0  0
    9.8850    3.5374    0.0000 H   0  0  0  0  0  0  0  0  0  0  0  0
   10.2836    4.2277    0.0000 H   0  0  0  0  0  0  0  0  0  0  0  0
    7.3304    4.2277    0.0000 H   0  0  0  0  0  0  0  0  0  0  0  0
    7.7289    3.5374    0.0000 H   0  0  0  0  0  0  0  0  0  0  0  0
    8.5949    7.2026    0.0000 H   0  0  0  0  0  0  0  0  0  0  0  0
    8.1964    6.5123    0.0000 H   0  0  0  0  0  0  0  0  0  0  0  0
    9.8850    6.5374    0.0000 H   0  0  0  0  0  0  0  0  0  0  0  0
   10.2836    7.2277    0.0000 H   0  0  0  0  0  0  0  0  0  0  0  0
    9.4609    8.7026    0.0000 H   0  0  0  0  0  0  0  0  0  0  0  0
    9.0624    8.0123    0.0000 H   0  0  0  0  0  0  0  0  0  0  0  0
   10.7511    8.0374    0.0000 H   0  0  0  0  0  0  0  0  0  0  0  0
   11.1496    8.7277    0.0000 H   0  0  0  0  0  0  0  0  0  0  0  0
   10.2099    2.4300    0.0000 H   0  0  0  0  0  0  0  0  0  0  0  0
    7.4040    0.8100    0.0000 H   0  0  0  0  0  0  0  0  0  0  0  0
   10.2099    0.8100    0.0000 H   0  0  0  0  0  0  0  0  0  0  0  0
   10.0021    9.9300    0.0000 H   0  0  0  0  0  0  0  0  0  0  0  0
    8.8070    0.0000    0.0000 H   0  0  0  0  0  0  0  0  0  0  0  0
    5.8989    2.6569    0.0000 H   0  0  0  0  0  0  0  0  0  0  0  0
    5.6720    1.8100    0.0000 H   0  0  0  0  0  0  0  0  0  0  0  0
    6.5189    1.5831    0.0000 H   0  0  0  0  0  0  0  0  0  0  0  0
   10.0064   11.5162    0.0000 H   0  0  0  0  0  0  0  0  0  0  0  0
   10.5406   13.1604    0.0000 H   0  0  0  0  0  0  0  0  0  0  0  0
   11.4695   14.4462    0.0000 H   0  0  0  0  0  0  0  0  0  0  0  0
   13.7395   12.7969    0.0000 H   0  0  0  0  0  0  0  0  0  0  0  0
   12.4217   15.7568    0.0000 H   0  0  0  0  0  0  0  0  0  0  0  0
   14.6917   14.1075    0.0000 H   0  0  0  0  0  0  0  0  0  0  0  0
    3.6720    8.0074    0.0000 H   0  0  0  0  0  0  0  0  0  0  0  0
    0.0000    7.8874    0.0000 H   0  0  0  0  0  0  0  0  0  0  0  0
  1 37  1  0  0  0  0
  2 21  1  0  0  0  0
  2 27  1  0  0  0  0
  3 28  1  0  0  0  0
  3 30  1  0  0  0  0
  4 26  2  0  0  0  0
  5 38  1  0  0  0  0
  5 70  1  0  0  0  0
  6 39  1  0  0  0  0
  6 71  1  0  0  0  0
  7 38  2  0  0  0  0
  8 39  2  0  0  0  0
  9 12  1  0  0  0  0
  9 13  1  0  0  0  0
  9 16  1  0  0  0  0
 10 14  1  0  0  0  0
 10 15  1  0  0  0  0
 10 18  1  0  0  0  0
 11 20  1  0  0  0  0
 11 26  1  0  0  0  0
 11 59  1  0  0  0  0
 12 14  1  0  0  0  0
 12 40  1  0  0  0  0
 12 41  1  0  0  0  0
 13 15  1  0  0  0  0
 13 42  1  0  0  0  0
 13 43  1  0  0  0  0
 14 44  1  0  0  0  0
 14 45  1  0  0  0  0
 15 46  1  0  0  0  0
 15 47  1  0  0  0  0
 16 17  1  0  0  0  0
 16 48  1  0  0  0  0
 16 49  1  0  0  0  0
 17 19  1  0  0  0  0
 17 50  1  0  0  0  0
 17 51  1  0  0  0  0
 18 21  1  0  0  0  0
 18 22  2  0  0  0  0
 19 20  1  0  0  0  0
 19 52  1  0  0  0  0
 19 53  1  0  0  0  0
 20 54  1  0  0  0  0
 20 55  1  0  0  0  0
 21 23  2  0  0  0  0
 22 24  1  0  0  0  0
 22 56  1  0  0  0  0
 23 25  1  0  0  0  0
 23 57  1  0  0  0  0
 24 25  2  0  0  0  0
 24 58  1  0  0  0  0
 25 60  1  0  0  0  0
 26 28  1  0  0  0  0
 27 61  1  0  0  0  0
 27 62  1  0  0  0  0
 27 63  1  0  0  0  0
 28 29  2  0  0  0  0
 29 31  1  0  0  0  0
 29 64  1  0  0  0  0
 30 31  2  0  0  0  0
 30 32  1  0  0  0  0
 31 65  1  0  0  0  0
 32 33  2  0  0  0  0
 32 34  1  0  0  0  0
 33 35  1  0  0  0  0
 33 66  1  0  0  0  0
 34 36  2  0  0  0  0
 34 67  1  0  0  0  0
 35 37  2  0  0  0  0
 35 68  1  0  0  0  0
 36 37  1  0  0  0  0
 36 69  1  0  0  0  0
 38 39  1  0  0  0  0
M  END
> <PUBCHEM_COMPOUND_CID>
44350867

> <PUBCHEM_COMPOUND_CANONICALIZED>
1

> <PUBCHEM_CACTVS_COMPLEXITY>
665

> <PUBCHEM_CACTVS_HBOND_ACCEPTOR>
9

> <PUBCHEM_CACTVS_HBOND_DONOR>
3

> <PUBCHEM_CACTVS_ROTATABLE_BOND>
10

> <PUBCHEM_CACTVS_SUBSKEYS>
AAADcfB7OAAEAAAAAAAAAAAAAAAAASAAAAA8YIAAAAAAAAAB0AAAHgIQCAAADA7BmCYyzoPABkCIAqXSWAKCCAAlJwAIiIHPbsgPZjLFt7+XOSjk1hHZ6YeY3/LuBAAAAAAAEAAIAAAAAAAgAAAAAAAAAA==

> <PUBCHEM_IUPAC_OPENEYE_NAME>
5-(4-chlorophenyl)-N-[4-[4-(2-methoxyphenyl)piperazin-1-yl]butyl]furan-2-carboxamide;oxalic acid

> <PUBCHEM_IUPAC_CAS_NAME>
5-(4-chlorophenyl)-N-[4-[4-(2-methoxyphenyl)-1-piperazinyl]butyl]-2-furancarboxamide;oxalic acid

> <PUBCHEM_IUPAC_NAME_MARKUP>
5-(4-chlorophenyl)-<I>N</I>-[4-[4-(2-methoxyphenyl)piperazin-1-yl]butyl]furan-2-carboxamide;oxalic acid

> <PUBCHEM_IUPAC_NAME>
5-(4-chlorophenyl)-N-[4-[4-(2-methoxyphenyl)piperazin-1-yl]butyl]furan-2-carboxamide;oxalic acid

> <PUBCHEM_IUPAC_SYSTEMATIC_NAME>
5-(4-chlorophenyl)-N-[4-[4-(2-methoxyphenyl)piperazin-1-yl]butyl]furan-2-carboxamide;ethanedioic acid

> <PUBCHEM_IUPAC_TRADITIONAL_NAME>
5-(4-chlorophenyl)-N-[4-[4-(2-methoxyphenyl)piperazino]butyl]-2-furamide;oxalic acid

> <PUBCHEM_IUPAC_INCHI>
InChI=1S/C26H30ClN3O3.C2H2O4/c1-32-24-7-3-2-6-22(24)30-18-16-29(17-19-30)15-5-4-14-28-26(31)25-13-12-23(33-25)20-8-10-21(27)11-9-20;3-1(4)2(5)6/h2-3,6-13H,4-5,14-19H2,1H3,(H,28,31);(H,3,4)(H,5,6)

> <PUBCHEM_IUPAC_INCHIKEY>
MGCHMUOOTWGJPZ-UHFFFAOYSA-N

> <PUBCHEM_EXACT_MASS>
557.1928781

> <PUBCHEM_MOLECULAR_FORMULA>
C28H32ClN3O7

> <PUBCHEM_MOLECULAR_WEIGHT>
558.0

> <PUBCHEM_OPENEYE_CAN_SMILES>
COC1=CC=CC=C1N2CCN(CC2)CCCCNC(=O)C3=CC=C(O3)C4=CC=C(C=C4)Cl.C(=O)(C(=O)O)O

> <PUBCHEM_OPENEYE_ISO_SMILES>
COC1=CC=CC=C1N2CCN(CC2)CCCCNC(=O)C3=CC=C(O3)C4=CC=C(C=C4)Cl.C(=O)(C(=O)O)O

> <PUBCHEM_CACTVS_TPSA>
133

> <PUBCHEM_MONOISOTOPIC_WEIGHT>
557.1928781

> <PUBCHEM_TOTAL_CHARGE>
0

> <PUBCHEM_HEAVY_ATOM_COUNT>
39

> <PUBCHEM_ATOM_DEF_STEREO_COUNT>
0

> <PUBCHEM_ATOM_UDEF_STEREO_COUNT>
0

> <PUBCHEM_BOND_DEF_STEREO_COUNT>
0

> <PUBCHEM_BOND_UDEF_STEREO_COUNT>
0

> <PUBCHEM_ISOTOPIC_ATOM_COUNT>
0

> <PUBCHEM_COMPONENT_COUNT>
2

> <PUBCHEM_CACTVS_TAUTO_COUNT>
-1

> <PUBCHEM_COORDINATE_TYPE>
1
5
255

> <PUBCHEM_BONDANNOTATIONS>
18  21  8
18  22  8
21  23  8
22  24  8
23  25  8
24  25  8
28  29  8
29  31  8
3  28  8
3  30  8
30  31  8
32  33  8
32  34  8
33  35  8
34  36  8
35  37  8
36  37  8

$$$$
