71212556
  -OEChem-09292322452D

 53 56  0     0  0  0  0  0  0999 V2000
    2.0000   -3.7367    0.0000 Cl  0  0  0  0  0  0  0  0  0  0  0  0
    3.7230   -4.1689    0.0000 S   0  0  0  0  0  0  0  0  0  0  0  0
    3.9359    4.2528    0.0000 O   0  0  0  0  0  0  0  0  0  0  0  0
    5.3670    3.2771    0.0000 O   0  0  0  0  0  0  0  0  0  0  0  0
    5.4786   -4.0951    0.0000 O   0  0  0  0  0  0  0  0  0  0  0  0
    3.6770    0.7984    0.0000 N   0  0  0  0  0  0  0  0  0  0  0  0
    4.5448   -1.0035    0.0000 N   0  0  0  0  0  0  0  0  0  0  0  0
    5.9786   -1.9045    0.0000 N   0  0  0  0  0  0  0  0  0  0  0  0
    3.2431    1.6994    0.0000 C   0  0  0  0  0  0  0  0  0  0  0  0
    4.6742    0.7237    0.0000 C   0  0  0  0  0  0  0  0  0  0  0  0
    3.1137   -0.0278    0.0000 C   0  0  0  0  0  0  0  0  0  0  0  0
    3.8065    2.5256    0.0000 C   0  0  0  0  0  0  0  0  0  0  0  0
    5.1081   -0.1773    0.0000 C   0  0  0  0  0  0  0  0  0  0  0  0
    3.5476   -0.9288    0.0000 C   0  0  0  0  0  0  0  0  0  0  0  0
    2.9802    3.0890    0.0000 C   0  0  0  0  0  0  0  0  0  0  0  0
    4.6327    1.9623    0.0000 C   0  0  0  0  0  0  0  0  0  0  0  0
    4.9786   -1.9045    0.0000 C   0  0  0  0  0  0  0  0  0  0  0  0
    4.3698    3.3519    0.0000 C   0  0  0  0  0  0  0  0  0  0  0  0
    4.3552   -2.6863    0.0000 C   0  0  0  0  0  0  0  0  0  0  0  0
    4.5777   -3.6612    0.0000 C   0  0  0  0  0  0  0  0  0  0  0  0
    6.6021   -2.6863    0.0000 C   0  0  0  0  0  0  0  0  0  0  0  0
    3.3648   -2.5998    0.0000 C   0  0  0  0  0  0  0  0  0  0  0  0
    6.3796   -3.6613    0.0000 C   0  0  0  0  0  0  0  0  0  0  0  0
    2.9749   -3.5142    0.0000 C   0  0  0  0  0  0  0  0  0  0  0  0
    7.5926   -2.3640    0.0000 C   0  0  0  0  0  0  0  0  0  0  0  0
    7.1322   -4.3814    0.0000 C   0  0  0  0  0  0  0  0  0  0  0  0
    8.1298   -4.0821    0.0000 C   0  0  0  0  0  0  0  0  0  0  0  0
    8.3616   -3.0666    0.0000 C   0  0  0  0  0  0  0  0  0  0  0  0
    8.8603   -4.7651    0.0000 C   0  0  0  0  0  0  0  0  0  0  0  0
    2.7993    2.1323    0.0000 H   0  0  0  0  0  0  0  0  0  0  0  0
    2.7397    1.3375    0.0000 H   0  0  0  0  0  0  0  0  0  0  0  0
    5.2710    0.8916    0.0000 H   0  0  0  0  0  0  0  0  0  0  0  0
    4.6125    1.3406    0.0000 H   0  0  0  0  0  0  0  0  0  0  0  0
    2.6698    0.4051    0.0000 H   0  0  0  0  0  0  0  0  0  0  0  0
    2.6103   -0.3897    0.0000 H   0  0  0  0  0  0  0  0  0  0  0  0
    5.5519   -0.6102    0.0000 H   0  0  0  0  0  0  0  0  0  0  0  0
    5.6115    0.1846    0.0000 H   0  0  0  0  0  0  0  0  0  0  0  0
    2.9507   -1.0967    0.0000 H   0  0  0  0  0  0  0  0  0  0  0  0
    3.6093   -1.5457    0.0000 H   0  0  0  0  0  0  0  0  0  0  0  0
    3.3295    3.6012    0.0000 H   0  0  0  0  0  0  0  0  0  0  0  0
    2.4680    3.4382    0.0000 H   0  0  0  0  0  0  0  0  0  0  0  0
    2.6310    2.5767    0.0000 H   0  0  0  0  0  0  0  0  0  0  0  0
    4.2834    1.4500    0.0000 H   0  0  0  0  0  0  0  0  0  0  0  0
    5.1450    1.6130    0.0000 H   0  0  0  0  0  0  0  0  0  0  0  0
    4.9820    2.4746    0.0000 H   0  0  0  0  0  0  0  0  0  0  0  0
    3.0459   -2.0681    0.0000 H   0  0  0  0  0  0  0  0  0  0  0  0
    4.2852    4.7651    0.0000 H   0  0  0  0  0  0  0  0  0  0  0  0
    7.7236   -1.7580    0.0000 H   0  0  0  0  0  0  0  0  0  0  0  0
    6.9872   -4.9843    0.0000 H   0  0  0  0  0  0  0  0  0  0  0  0
    8.9534   -2.8816    0.0000 H   0  0  0  0  0  0  0  0  0  0  0  0
    8.4368   -5.2180    0.0000 H   0  0  0  0  0  0  0  0  0  0  0  0
    9.3131   -5.1886    0.0000 H   0  0  0  0  0  0  0  0  0  0  0  0
    9.2837   -4.3122    0.0000 H   0  0  0  0  0  0  0  0  0  0  0  0
  1 24  1  0  0  0  0
  2 20  1  0  0  0  0
  2 24  1  0  0  0  0
  3 18  1  0  0  0  0
  3 47  1  0  0  0  0
  4 18  2  0  0  0  0
  5 20  1  0  0  0  0
  5 23  1  0  0  0  0
  6  9  1  0  0  0  0
  6 10  1  0  0  0  0
  6 11  1  0  0  0  0
  7 13  1  0  0  0  0
  7 14  1  0  0  0  0
  7 17  1  0  0  0  0
  8 17  2  0  0  0  0
  8 21  1  0  0  0  0
  9 12  1  0  0  0  0
  9 30  1  0  0  0  0
  9 31  1  0  0  0  0
 10 13  1  0  0  0  0
 10 32  1  0  0  0  0
 10 33  1  0  0  0  0
 11 14  1  0  0  0  0
 11 34  1  0  0  0  0
 11 35  1  0  0  0  0
 12 15  1  0  0  0  0
 12 16  1  0  0  0  0
 12 18  1  0  0  0  0
 13 36  1  0  0  0  0
 13 37  1  0  0  0  0
 14 38  1  0  0  0  0
 14 39  1  0  0  0  0
 15 40  1  0  0  0  0
 15 41  1  0  0  0  0
 15 42  1  0  0  0  0
 16 43  1  0  0  0  0
 16 44  1  0  0  0  0
 16 45  1  0  0  0  0
 17 19  1  0  0  0  0
 19 20  2  0  0  0  0
 19 22  1  0  0  0  0
 21 23  2  0  0  0  0
 21 25  1  0  0  0  0
 22 24  2  0  0  0  0
 22 46  1  0  0  0  0
 23 26  1  0  0  0  0
 25 28  2  0  0  0  0
 25 48  1  0  0  0  0
 26 27  2  0  0  0  0
 26 49  1  0  0  0  0
 27 28  1  0  0  0  0
 27 29  1  0  0  0  0
 28 50  1  0  0  0  0
 29 51  1  0  0  0  0
 29 52  1  0  0  0  0
 29 53  1  0  0  0  0
M  END
> <PUBCHEM_COMPOUND_CID>
71212556

> <PUBCHEM_COMPOUND_CANONICALIZED>
1

> <PUBCHEM_CACTVS_COMPLEXITY>
653

> <PUBCHEM_CACTVS_HBOND_ACCEPTOR>
6

> <PUBCHEM_CACTVS_HBOND_DONOR>
1

> <PUBCHEM_CACTVS_ROTATABLE_BOND>
4

> <PUBCHEM_CACTVS_SUBSKEYS>
AAADceB7MABEAAAAAAAAAAAAAAAAASAAAAA8QAAABAAAAACBwAAAHgYACAAADg7B2CQzz4MABgisAibybACDCIEgLxBJiBkvbpgOZqqlu5uXeCjmwBGo6AeQwBAOCAABAAAAEAAQAAIAAAAgAAAAAAAAAA==

> <PUBCHEM_IUPAC_OPENEYE_NAME>
3-[4-(2-chloro-8-methyl-thieno[2,3-b][1,5]benzoxazepin-4-yl)piperazin-1-yl]-2,2-dimethyl-propanoic acid

> <PUBCHEM_IUPAC_CAS_NAME>
3-[4-(2-chloro-8-methyl-4-thieno[2,3-b][1,5]benzoxazepinyl)-1-piperazinyl]-2,2-dimethylpropanoic acid

> <PUBCHEM_IUPAC_NAME_MARKUP>
3-[4-(2-chloro-8-methylthieno[2,3-b][1,5]benzoxazepin-4-yl)piperazin-1-yl]-2,2-dimethylpropanoic acid

> <PUBCHEM_IUPAC_NAME>
3-[4-(2-chloro-8-methylthieno[2,3-b][1,5]benzoxazepin-4-yl)piperazin-1-yl]-2,2-dimethylpropanoic acid

> <PUBCHEM_IUPAC_SYSTEMATIC_NAME>
3-[4-(2-chloranyl-8-methyl-thieno[2,3-b][1,5]benzoxazepin-4-yl)piperazin-1-yl]-2,2-dimethyl-propanoic acid

> <PUBCHEM_IUPAC_TRADITIONAL_NAME>
3-[4-(2-chloro-8-methyl-thieno[2,3-b][1,5]benzoxazepin-4-yl)piperazino]-2,2-dimethyl-propionic acid

> <PUBCHEM_IUPAC_INCHI>
InChI=1S/C21H24ClN3O3S/c1-13-4-5-15-16(10-13)28-19-14(11-17(22)29-19)18(23-15)25-8-6-24(7-9-25)12-21(2,3)20(26)27/h4-5,10-11H,6-9,12H2,1-3H3,(H,26,27)

> <PUBCHEM_IUPAC_INCHIKEY>
PSYAJOBNPBYKRW-UHFFFAOYSA-N

> <PUBCHEM_XLOGP3_AA>
1.9

> <PUBCHEM_EXACT_MASS>
433.1226905

> <PUBCHEM_MOLECULAR_FORMULA>
C21H24ClN3O3S

> <PUBCHEM_MOLECULAR_WEIGHT>
434.0

> <PUBCHEM_OPENEYE_CAN_SMILES>
CC1=CC2=C(C=C1)N=C(C3=C(O2)SC(=C3)Cl)N4CCN(CC4)CC(C)(C)C(=O)O

> <PUBCHEM_OPENEYE_ISO_SMILES>
CC1=CC2=C(C=C1)N=C(C3=C(O2)SC(=C3)Cl)N4CCN(CC4)CC(C)(C)C(=O)O

> <PUBCHEM_CACTVS_TPSA>
93.6

> <PUBCHEM_MONOISOTOPIC_WEIGHT>
433.1226905

> <PUBCHEM_TOTAL_CHARGE>
0

> <PUBCHEM_HEAVY_ATOM_COUNT>
29

> <PUBCHEM_ATOM_DEF_STEREO_COUNT>
0

> <PUBCHEM_ATOM_UDEF_STEREO_COUNT>
0

> <PUBCHEM_BOND_DEF_STEREO_COUNT>
0

> <PUBCHEM_BOND_UDEF_STEREO_COUNT>
0

> <PUBCHEM_ISOTOPIC_ATOM_COUNT>
0

> <PUBCHEM_COMPONENT_COUNT>
1

> <PUBCHEM_CACTVS_TAUTO_COUNT>
-1

> <PUBCHEM_COORDINATE_TYPE>
1
5
255

> <PUBCHEM_BONDANNOTATIONS>
19  20  8
19  22  8
2  20  8
2  24  8
21  23  8
21  25  8
22  24  8
23  26  8
25  28  8
26  27  8
27  28  8

$$$$
