52947756
  -OEChem-09292322312D

 88 94  0     0  0  0  0  0  0999 V2000
    4.2836    3.0502    0.0000 O   0  0  0  0  0  0  0  0  0  0  0  0
    5.2232   -0.7560    0.0000 N   0  0  0  0  0  0  0  0  0  0  0  0
    4.2232   -2.4881    0.0000 C   0  0  0  0  0  0  0  0  0  0  0  0
    3.7232   -1.6221    0.0000 C   0  0  0  0  0  0  0  0  0  0  0  0
    5.2232   -2.4881    0.0000 C   0  0  0  0  0  0  0  0  0  0  0  0
    4.2232   -0.7560    0.0000 C   0  0  0  0  0  0  0  0  0  0  0  0
    5.7232   -1.6221    0.0000 C   0  0  0  0  0  0  0  0  0  0  0  0
    3.7232   -3.3541    0.0000 C   0  0  0  0  0  0  0  0  0  0  0  0
    5.7232    0.1100    0.0000 C   0  0  0  0  0  0  0  0  0  0  0  0
    2.8616   -2.8566    0.0000 C   0  0  0  0  0  0  0  0  0  0  0  0
    3.7232   -4.3490    0.0000 C   0  0  0  0  0  0  0  0  0  0  0  0
    5.2232    0.9760    0.0000 C   0  0  0  0  0  0  0  0  0  0  0  0
    3.7232   -2.3592    0.0000 C   0  0  0  0  0  0  0  0  0  0  0  0
    2.8616   -4.8465    0.0000 C   0  0  0  0  0  0  0  0  0  0  0  0
    2.0000   -3.3541    0.0000 C   0  0  0  0  0  0  0  0  0  0  0  0
    5.7232    1.8420    0.0000 C   0  0  0  0  0  0  0  0  0  0  0  0
    2.0000   -4.3490    0.0000 C   0  0  0  0  0  0  0  0  0  0  0  0
    4.7637   -2.3371    0.0000 C   0  0  0  0  0  0  0  0  0  0  0  0
    3.7232   -5.3440    0.0000 C   0  0  0  0  0  0  0  0  0  0  0  0
    4.7637   -5.3218    0.0000 C   0  0  0  0  0  0  0  0  0  0  0  0
    5.6253   -2.8345    0.0000 C   0  0  0  0  0  0  0  0  0  0  0  0
    5.2232    2.7081    0.0000 C   0  0  0  0  0  0  0  0  0  0  0  0
    5.6253   -4.8244    0.0000 C   0  0  0  0  0  0  0  0  0  0  0  0
    5.8660    3.4741    0.0000 C   0  0  0  0  0  0  0  0  0  0  0  0
    4.7637   -3.3320    0.0000 C   0  0  0  0  0  0  0  0  0  0  0  0
    6.4869   -3.3320    0.0000 C   0  0  0  0  0  0  0  0  0  0  0  0
    4.7637   -4.3269    0.0000 C   0  0  0  0  0  0  0  0  0  0  0  0
    6.4869   -4.3269    0.0000 C   0  0  0  0  0  0  0  0  0  0  0  0
    6.8458    3.3014    0.0000 C   0  0  0  0  0  0  0  0  0  0  0  0
    5.5258    4.4090    0.0000 C   0  0  0  0  0  0  0  0  0  0  0  0
    6.2063    2.5392    0.0000 C   0  0  0  0  0  0  0  0  0  0  0  0
    6.1653    5.1712    0.0000 C   0  0  0  0  0  0  0  0  0  0  0  0
    5.2362    2.1626    0.0000 C   0  0  0  0  0  0  0  0  0  0  0  0
    5.1855    5.3440    0.0000 C   0  0  0  0  0  0  0  0  0  0  0  0
    7.4854    4.0635    0.0000 C   0  0  0  0  0  0  0  0  0  0  0  0
    7.1451    4.9984    0.0000 C   0  0  0  0  0  0  0  0  0  0  0  0
    4.2154    4.9673    0.0000 C   0  0  0  0  0  0  0  0  0  0  0  0
    4.2564    2.3354    0.0000 C   0  0  0  0  0  0  0  0  0  0  0  0
    3.5758    4.2052    0.0000 C   0  0  0  0  0  0  0  0  0  0  0  0
    3.2766    2.5082    0.0000 C   0  0  0  0  0  0  0  0  0  0  0  0
    4.8959    3.0975    0.0000 C   0  0  0  0  0  0  0  0  0  0  0  0
    2.9363    3.4430    0.0000 C   0  0  0  0  0  0  0  0  0  0  0  0
    4.5556    4.0324    0.0000 C   0  0  0  0  0  0  0  0  0  0  0  0
    4.5332   -3.0250    0.0000 H   0  0  0  0  0  0  0  0  0  0  0  0
    3.2483   -1.2235    0.0000 H   0  0  0  0  0  0  0  0  0  0  0  0
    3.2483   -2.0206    0.0000 H   0  0  0  0  0  0  0  0  0  0  0  0
    5.1156   -3.0987    0.0000 H   0  0  0  0  0  0  0  0  0  0  0  0
    5.8059   -2.7001    0.0000 H   0  0  0  0  0  0  0  0  0  0  0  0
    4.3309   -0.1455    0.0000 H   0  0  0  0  0  0  0  0  0  0  0  0
    3.6406   -0.5440    0.0000 H   0  0  0  0  0  0  0  0  0  0  0  0
    6.1982   -2.0206    0.0000 H   0  0  0  0  0  0  0  0  0  0  0  0
    6.1982   -1.2235    0.0000 H   0  0  0  0  0  0  0  0  0  0  0  0
    6.1982   -0.2885    0.0000 H   0  0  0  0  0  0  0  0  0  0  0  0
    6.1982    0.5085    0.0000 H   0  0  0  0  0  0  0  0  0  0  0  0
    4.2602   -4.6590    0.0000 H   0  0  0  0  0  0  0  0  0  0  0  0
    4.7483    1.3746    0.0000 H   0  0  0  0  0  0  0  0  0  0  0  0
    4.7483    0.5775    0.0000 H   0  0  0  0  0  0  0  0  0  0  0  0
    3.9270   -1.7736    0.0000 H   0  0  0  0  0  0  0  0  0  0  0  0
    3.8901   -2.9563    0.0000 H   0  0  0  0  0  0  0  0  0  0  0  0
    1.4631   -3.0441    0.0000 H   0  0  0  0  0  0  0  0  0  0  0  0
    6.1982    1.4435    0.0000 H   0  0  0  0  0  0  0  0  0  0  0  0
    6.1982    2.2406    0.0000 H   0  0  0  0  0  0  0  0  0  0  0  0
    1.4631   -4.6590    0.0000 H   0  0  0  0  0  0  0  0  0  0  0  0
    5.2358   -1.9352    0.0000 H   0  0  0  0  0  0  0  0  0  0  0  0
    4.6096   -2.9376    0.0000 H   0  0  0  0  0  0  0  0  0  0  0  0
    3.2511   -5.7458    0.0000 H   0  0  0  0  0  0  0  0  0  0  0  0
    3.8774   -4.7434    0.0000 H   0  0  0  0  0  0  0  0  0  0  0  0
    4.5599   -5.9074    0.0000 H   0  0  0  0  0  0  0  0  0  0  0  0
    4.5968   -4.7247    0.0000 H   0  0  0  0  0  0  0  0  0  0  0  0
    4.2267   -3.0220    0.0000 H   0  0  0  0  0  0  0  0  0  0  0  0
    7.0238   -3.0220    0.0000 H   0  0  0  0  0  0  0  0  0  0  0  0
    4.2267   -4.6369    0.0000 H   0  0  0  0  0  0  0  0  0  0  0  0
    7.0238   -4.6369    0.0000 H   0  0  0  0  0  0  0  0  0  0  0  0
    4.9152    4.5167    0.0000 H   0  0  0  0  0  0  0  0  0  0  0  0
    6.2151    1.9193    0.0000 H   0  0  0  0  0  0  0  0  0  0  0  0
    5.8453    3.0433    0.0000 H   0  0  0  0  0  0  0  0  0  0  0  0
    4.9300    1.6235    0.0000 H   0  0  0  0  0  0  0  0  0  0  0  0
    5.1756    2.7796    0.0000 H   0  0  0  0  0  0  0  0  0  0  0  0
    5.4916    5.8831    0.0000 H   0  0  0  0  0  0  0  0  0  0  0  0
    5.2461    4.7269    0.0000 H   0  0  0  0  0  0  0  0  0  0  0  0
    8.0959    3.9558    0.0000 H   0  0  0  0  0  0  0  0  0  0  0  0
    7.5436    5.4734    0.0000 H   0  0  0  0  0  0  0  0  0  0  0  0
    4.2066    5.5873    0.0000 H   0  0  0  0  0  0  0  0  0  0  0  0
    4.5764    4.4633    0.0000 H   0  0  0  0  0  0  0  0  0  0  0  0
    2.8781    2.0332    0.0000 H   0  0  0  0  0  0  0  0  0  0  0  0
    5.5065    2.9898    0.0000 H   0  0  0  0  0  0  0  0  0  0  0  0
    2.3257    3.5507    0.0000 H   0  0  0  0  0  0  0  0  0  0  0  0
    4.9542    4.5074    0.0000 H   0  0  0  0  0  0  0  0  0  0  0  0
  1 22  2  0  0  0  0
  2  6  1  0  0  0  0
  2  7  1  0  0  0  0
  2  9  1  0  0  0  0
  3  4  1  0  0  0  0
  3  5  1  0  0  0  0
  3  8  1  0  0  0  0
  3 44  1  0  0  0  0
  4  6  1  0  0  0  0
  4 45  1  0  0  0  0
  4 46  1  0  0  0  0
  5  7  1  0  0  0  0
  5 47  1  0  0  0  0
  5 48  1  0  0  0  0
  6 49  1  0  0  0  0
  6 50  1  0  0  0  0
  7 51  1  0  0  0  0
  7 52  1  0  0  0  0
  8 10  2  0  0  0  0
  8 11  1  0  0  0  0
  9 12  1  0  0  0  0
  9 53  1  0  0  0  0
  9 54  1  0  0  0  0
 10 13  1  0  0  0  0
 10 15  1  0  0  0  0
 11 14  2  0  0  0  0
 11 55  1  0  0  0  0
 12 16  1  0  0  0  0
 12 56  1  0  0  0  0
 12 57  1  0  0  0  0
 13 18  1  0  0  0  0
 13 58  1  0  0  0  0
 13 59  1  0  0  0  0
 14 17  1  0  0  0  0
 14 19  1  0  0  0  0
 15 17  2  0  0  0  0
 15 60  1  0  0  0  0
 16 22  1  0  0  0  0
 16 61  1  0  0  0  0
 16 62  1  0  0  0  0
 17 63  1  0  0  0  0
 18 21  1  0  0  0  0
 18 64  1  0  0  0  0
 18 65  1  0  0  0  0
 19 20  1  0  0  0  0
 19 66  1  0  0  0  0
 19 67  1  0  0  0  0
 20 23  1  0  0  0  0
 20 68  1  0  0  0  0
 20 69  1  0  0  0  0
 21 25  2  0  0  0  0
 21 26  1  0  0  0  0
 22 24  1  0  0  0  0
 23 27  2  0  0  0  0
 23 28  1  0  0  0  0
 24 29  2  0  0  0  0
 24 30  1  0  0  0  0
 25 27  1  0  0  0  0
 25 70  1  0  0  0  0
 26 28  2  0  0  0  0
 26 71  1  0  0  0  0
 27 72  1  0  0  0  0
 28 73  1  0  0  0  0
 29 31  1  0  0  0  0
 29 35  1  0  0  0  0
 30 32  2  0  0  0  0
 30 74  1  0  0  0  0
 31 33  1  0  0  0  0
 31 75  1  0  0  0  0
 31 76  1  0  0  0  0
 32 34  1  0  0  0  0
 32 36  1  0  0  0  0
 33 38  1  0  0  0  0
 33 77  1  0  0  0  0
 33 78  1  0  0  0  0
 34 37  1  0  0  0  0
 34 79  1  0  0  0  0
 34 80  1  0  0  0  0
 35 36  2  0  0  0  0
 35 81  1  0  0  0  0
 36 82  1  0  0  0  0
 37 39  1  0  0  0  0
 37 83  1  0  0  0  0
 37 84  1  0  0  0  0
 38 40  2  0  0  0  0
 38 41  1  0  0  0  0
 39 42  2  0  0  0  0
 39 43  1  0  0  0  0
 40 42  1  0  0  0  0
 40 85  1  0  0  0  0
 41 43  2  0  0  0  0
 41 86  1  0  0  0  0
 42 87  1  0  0  0  0
 43 88  1  0  0  0  0
M  END
> <PUBCHEM_COMPOUND_CID>
52947756

> <PUBCHEM_COMPOUND_CANONICALIZED>
1

> <PUBCHEM_CACTVS_COMPLEXITY>
859

> <PUBCHEM_CACTVS_HBOND_ACCEPTOR>
2

> <PUBCHEM_CACTVS_HBOND_DONOR>
0

> <PUBCHEM_CACTVS_ROTATABLE_BOND>
6

> <PUBCHEM_CACTVS_SUBSKEYS>
AAADcfB+IAAAAAAAAAAAAAAAAAAAAAAAAAA8YMGCAAAAAAABVAAAHgAAAAAADQTBmAQwAIMAAACIAqBSAAACAAAkAAAIiAEIAMgIIDKAlRCEIQAggACIiYcciMCOwAACAAAQAACAAAQAACAAAAAAAAAAAA==

> <PUBCHEM_IUPAC_OPENEYE_NAME>
1-(5-tricyclo[8.2.2.24,7]hexadeca-1(13),4,6,10(14),11,15-hexaenyl)-4-[4-(5-tricyclo[8.2.2.24,7]hexadeca-1(13),4,6,10(14),11,15-hexaenyl)-1-piperidyl]butan-1-one

> <PUBCHEM_IUPAC_CAS_NAME>
1-(5-tricyclo[8.2.2.24,7]hexadeca-1(13),4,6,10(14),11,15-hexaenyl)-4-[4-(5-tricyclo[8.2.2.24,7]hexadeca-1(13),4,6,10(14),11,15-hexaenyl)-1-piperidinyl]-1-butanone

> <PUBCHEM_IUPAC_NAME_MARKUP>
1-(5-tricyclo[8.2.2.2<SUP>4,7</SUP>]hexadeca-1(13),4,6,10(14),11,15-hexaenyl)-4-[4-(5-tricyclo[8.2.2.2<SUP>4,7</SUP>]hexadeca-1(13),4,6,10(14),11,15-hexaenyl)piperidin-1-yl]butan-1-one

> <PUBCHEM_IUPAC_NAME>
1-(5-tricyclo[8.2.2.24,7]hexadeca-1(13),4,6,10(14),11,15-hexaenyl)-4-[4-(5-tricyclo[8.2.2.24,7]hexadeca-1(13),4,6,10(14),11,15-hexaenyl)piperidin-1-yl]butan-1-one

> <PUBCHEM_IUPAC_SYSTEMATIC_NAME>
1-(5-tricyclo[8.2.2.24,7]hexadeca-1(13),4,6,10(14),11,15-hexaenyl)-4-[4-(5-tricyclo[8.2.2.24,7]hexadeca-1(13),4,6,10(14),11,15-hexaenyl)piperidin-1-yl]butan-1-one

> <PUBCHEM_IUPAC_TRADITIONAL_NAME>
1-(5-tricyclo[8.2.2.24,7]hexadeca-1(13),4,6,10(14),11,15-hexaenyl)-4-[4-(5-tricyclo[8.2.2.24,7]hexadeca-1(13),4,6,10(14),11,15-hexaenyl)piperidino]butan-1-one

> <PUBCHEM_IUPAC_INCHI>
InChI=1S/C41H45NO/c43-41(40-29-35-14-12-31-5-9-33(10-6-31)16-20-37(40)22-18-35)2-1-25-42-26-23-38(24-27-42)39-28-34-13-11-30-3-7-32(8-4-30)15-19-36(39)21-17-34/h3-10,17-18,21-22,28-29,38H,1-2,11-16,19-20,23-27H2

> <PUBCHEM_IUPAC_INCHIKEY>
AADWBQLQKGQDIM-UHFFFAOYSA-N

> <PUBCHEM_XLOGP3_AA>
9.2

> <PUBCHEM_EXACT_MASS>
567.350115059

> <PUBCHEM_MOLECULAR_FORMULA>
C41H45NO

> <PUBCHEM_MOLECULAR_WEIGHT>
567.8

> <PUBCHEM_OPENEYE_CAN_SMILES>
C1CN(CCC1C2=C3CCC4=CC=C(CCC(=C2)C=C3)C=C4)CCCC(=O)C5=C6CCC7=CC=C(CCC(=C5)C=C6)C=C7

> <PUBCHEM_OPENEYE_ISO_SMILES>
C1CN(CCC1C2=C3CCC4=CC=C(CCC(=C2)C=C3)C=C4)CCCC(=O)C5=C6CCC7=CC=C(CCC(=C5)C=C6)C=C7

> <PUBCHEM_CACTVS_TPSA>
20.3

> <PUBCHEM_MONOISOTOPIC_WEIGHT>
567.350115059

> <PUBCHEM_TOTAL_CHARGE>
0

> <PUBCHEM_HEAVY_ATOM_COUNT>
43

> <PUBCHEM_ATOM_DEF_STEREO_COUNT>
0

> <PUBCHEM_ATOM_UDEF_STEREO_COUNT>
0

> <PUBCHEM_BOND_DEF_STEREO_COUNT>
0

> <PUBCHEM_BOND_UDEF_STEREO_COUNT>
0

> <PUBCHEM_ISOTOPIC_ATOM_COUNT>
0

> <PUBCHEM_COMPONENT_COUNT>
1

> <PUBCHEM_CACTVS_TAUTO_COUNT>
-1

> <PUBCHEM_COORDINATE_TYPE>
1
5
255

> <PUBCHEM_BONDANNOTATIONS>
10  15  8
11  14  8
14  17  8
15  17  8
21  25  8
21  26  8
23  27  8
23  28  8
24  29  8
24  30  8
25  27  8
26  28  8
29  35  8
30  32  8
32  36  8
35  36  8
38  40  8
38  41  8
39  42  8
39  43  8
40  42  8
41  43  8
8  10  8
8  11  8

$$$$
