52942381
  -OEChem-09292322312D

 49 52  0     1  0  0  0  0  0999 V2000
    7.1648   -2.7541    0.0000 S   0  0  0  0  0  0  0  0  0  0  0  0
    6.2310    0.3375    0.0000 N   0  0  0  0  0  0  0  0  0  0  0  0
    5.3632    2.1394    0.0000 N   0  0  0  0  0  0  0  0  0  0  0  0
    2.5917   -2.1044    0.0000 N   0  0  0  0  0  0  0  0  0  0  0  0
    6.6648   -0.5635    0.0000 C   0  0  3  0  0  0  0  0  0  0  0  0
    5.2338    0.4122    0.0000 C   0  0  0  0  0  0  0  0  0  0  0  0
    6.7943    1.1637    0.0000 C   0  0  0  0  0  0  0  0  0  0  0  0
    4.7999    1.3132    0.0000 C   0  0  0  0  0  0  0  0  0  0  0  0
    6.3604    2.0647    0.0000 C   0  0  0  0  0  0  0  0  0  0  0  0
    7.6648   -0.5635    0.0000 C   0  0  0  0  0  0  0  0  0  0  0  0
    6.0414   -1.3453    0.0000 C   0  0  0  0  0  0  0  0  0  0  0  0
    8.2883   -1.3453    0.0000 C   0  0  0  0  0  0  0  0  0  0  0  0
    6.2639   -2.3202    0.0000 C   0  0  0  0  0  0  0  0  0  0  0  0
    5.0509   -1.0230    0.0000 C   0  0  0  0  0  0  0  0  0  0  0  0
    4.9294    3.0404    0.0000 C   0  0  0  0  0  0  0  0  0  0  0  0
    8.0658   -2.3202    0.0000 C   0  0  0  0  0  0  0  0  0  0  0  0
    4.2819   -1.7255    0.0000 C   0  0  0  0  0  0  0  0  0  0  0  0
    5.5113   -3.0404    0.0000 C   0  0  0  0  0  0  0  0  0  0  0  0
    9.2788   -1.0230    0.0000 C   0  0  0  0  0  0  0  0  0  0  0  0
    4.5136   -2.7410    0.0000 C   0  0  0  0  0  0  0  0  0  0  0  0
    8.8184   -3.0404    0.0000 C   0  0  0  0  0  0  0  0  0  0  0  0
    3.3274   -1.4271    0.0000 C   0  0  0  0  0  0  0  0  0  0  0  0
   10.0478   -1.7256    0.0000 C   0  0  0  0  0  0  0  0  0  0  0  0
    9.8160   -2.7411    0.0000 C   0  0  0  0  0  0  0  0  0  0  0  0
    6.9947   -0.0385    0.0000 H   0  0  0  0  0  0  0  0  0  0  0  0
    4.6370    0.2443    0.0000 H   0  0  0  0  0  0  0  0  0  0  0  0
    5.2955   -0.2047    0.0000 H   0  0  0  0  0  0  0  0  0  0  0  0
    7.2381    0.7308    0.0000 H   0  0  0  0  0  0  0  0  0  0  0  0
    7.2977    1.5257    0.0000 H   0  0  0  0  0  0  0  0  0  0  0  0
    8.2235   -0.2945    0.0000 H   0  0  0  0  0  0  0  0  0  0  0  0
    7.5269    0.0410    0.0000 H   0  0  0  0  0  0  0  0  0  0  0  0
    4.3561    1.7461    0.0000 H   0  0  0  0  0  0  0  0  0  0  0  0
    4.2965    0.9513    0.0000 H   0  0  0  0  0  0  0  0  0  0  0  0
    6.9573    2.2326    0.0000 H   0  0  0  0  0  0  0  0  0  0  0  0
    6.2987    2.6816    0.0000 H   0  0  0  0  0  0  0  0  0  0  0  0
    4.9199   -0.4169    0.0000 H   0  0  0  0  0  0  0  0  0  0  0  0
    5.4880    3.3094    0.0000 H   0  0  0  0  0  0  0  0  0  0  0  0
    4.6603    3.5990    0.0000 H   0  0  0  0  0  0  0  0  0  0  0  0
    4.3707    2.7714    0.0000 H   0  0  0  0  0  0  0  0  0  0  0  0
    5.6562   -3.6432    0.0000 H   0  0  0  0  0  0  0  0  0  0  0  0
    9.4098   -0.4170    0.0000 H   0  0  0  0  0  0  0  0  0  0  0  0
    4.0608   -3.1645    0.0000 H   0  0  0  0  0  0  0  0  0  0  0  0
    8.6734   -3.6432    0.0000 H   0  0  0  0  0  0  0  0  0  0  0  0
    3.6124   -0.8765    0.0000 H   0  0  0  0  0  0  0  0  0  0  0  0
    2.8346   -1.0508    0.0000 H   0  0  0  0  0  0  0  0  0  0  0  0
   10.6396   -1.5405    0.0000 H   0  0  0  0  0  0  0  0  0  0  0  0
   10.2689   -3.1645    0.0000 H   0  0  0  0  0  0  0  0  0  0  0  0
    2.0000   -1.9194    0.0000 H   0  0  0  0  0  0  0  0  0  0  0  0
    2.7274   -2.7094    0.0000 H   0  0  0  0  0  0  0  0  0  0  0  0
  1 13  1  0  0  0  0
  1 16  1  0  0  0  0
  2  5  1  0  0  0  0
  2  6  1  0  0  0  0
  2  7  1  0  0  0  0
  3  8  1  0  0  0  0
  3  9  1  0  0  0  0
  3 15  1  0  0  0  0
  4 22  1  0  0  0  0
  4 48  1  0  0  0  0
  4 49  1  0  0  0  0
  5 10  1  0  0  0  0
  5 11  1  0  0  0  0
  5 25  1  0  0  0  0
  6  8  1  0  0  0  0
  6 26  1  0  0  0  0
  6 27  1  0  0  0  0
  7  9  1  0  0  0  0
  7 28  1  0  0  0  0
  7 29  1  0  0  0  0
  8 32  1  0  0  0  0
  8 33  1  0  0  0  0
  9 34  1  0  0  0  0
  9 35  1  0  0  0  0
 10 12  1  0  0  0  0
 10 30  1  0  0  0  0
 10 31  1  0  0  0  0
 11 13  2  0  0  0  0
 11 14  1  0  0  0  0
 12 16  1  0  0  0  0
 12 19  2  0  0  0  0
 13 18  1  0  0  0  0
 14 17  2  0  0  0  0
 14 36  1  0  0  0  0
 15 37  1  0  0  0  0
 15 38  1  0  0  0  0
 15 39  1  0  0  0  0
 16 21  2  0  0  0  0
 17 20  1  0  0  0  0
 17 22  1  0  0  0  0
 18 20  2  0  0  0  0
 18 40  1  0  0  0  0
 19 23  1  0  0  0  0
 19 41  1  0  0  0  0
 20 42  1  0  0  0  0
 21 24  1  0  0  0  0
 21 43  1  0  0  0  0
 22 44  1  0  0  0  0
 22 45  1  0  0  0  0
 23 24  2  0  0  0  0
 23 46  1  0  0  0  0
 24 47  1  0  0  0  0
M  END
> <PUBCHEM_COMPOUND_CID>
52942381

> <PUBCHEM_COMPOUND_CANONICALIZED>
1

> <PUBCHEM_CACTVS_COMPLEXITY>
410

> <PUBCHEM_CACTVS_HBOND_ACCEPTOR>
4

> <PUBCHEM_CACTVS_HBOND_DONOR>
1

> <PUBCHEM_CACTVS_ROTATABLE_BOND>
2

> <PUBCHEM_CACTVS_SUBSKEYS>
AAADceB7AABAAAAAAAAAAAAAAAAAAAAAAAA8YIAABIAAAAABQAAAHAQQAAAADCjBWAQyAYNAAAiAAiBCAACCAAAgCBAIiJgIBIgIYCKgkRGUIAhggACoiAcQgMAOEAACAAAEAAAgAAQAAAgAAAAAAAAAAA==

> <PUBCHEM_IUPAC_OPENEYE_NAME>
[5-(4-methylpiperazin-1-yl)-5,6-dihydrobenzo[b][1]benzothiepin-3-yl]methanamine

> <PUBCHEM_IUPAC_CAS_NAME>
[5-(4-methyl-1-piperazinyl)-5,6-dihydrobenzo[b][1]benzothiepin-3-yl]methanamine

> <PUBCHEM_IUPAC_NAME_MARKUP>
[5-(4-methylpiperazin-1-yl)-5,6-dihydrobenzo[b][1]benzothiepin-3-yl]methanamine

> <PUBCHEM_IUPAC_NAME>
[5-(4-methylpiperazin-1-yl)-5,6-dihydrobenzo[b][1]benzothiepin-3-yl]methanamine

> <PUBCHEM_IUPAC_SYSTEMATIC_NAME>
[5-(4-methylpiperazin-1-yl)-5,6-dihydrobenzo[b][1]benzothiepin-3-yl]methanamine

> <PUBCHEM_IUPAC_TRADITIONAL_NAME>
[5-(4-methylpiperazino)-5,6-dihydrobenzo[b][1]benzothiepin-3-yl]methylamine

> <PUBCHEM_IUPAC_INCHI>
InChI=1S/C20H25N3S/c1-22-8-10-23(11-9-22)18-13-16-4-2-3-5-19(16)24-20-7-6-15(14-21)12-17(18)20/h2-7,12,18H,8-11,13-14,21H2,1H3

> <PUBCHEM_IUPAC_INCHIKEY>
JTFHPPAFIYXSHF-UHFFFAOYSA-N

> <PUBCHEM_XLOGP3_AA>
2.6

> <PUBCHEM_EXACT_MASS>
339.17691898

> <PUBCHEM_MOLECULAR_FORMULA>
C20H25N3S

> <PUBCHEM_MOLECULAR_WEIGHT>
339.5

> <PUBCHEM_OPENEYE_CAN_SMILES>
CN1CCN(CC1)C2CC3=CC=CC=C3SC4=C2C=C(C=C4)CN

> <PUBCHEM_OPENEYE_ISO_SMILES>
CN1CCN(CC1)C2CC3=CC=CC=C3SC4=C2C=C(C=C4)CN

> <PUBCHEM_CACTVS_TPSA>
57.8

> <PUBCHEM_MONOISOTOPIC_WEIGHT>
339.17691898

> <PUBCHEM_TOTAL_CHARGE>
0

> <PUBCHEM_HEAVY_ATOM_COUNT>
24

> <PUBCHEM_ATOM_DEF_STEREO_COUNT>
0

> <PUBCHEM_ATOM_UDEF_STEREO_COUNT>
1

> <PUBCHEM_BOND_DEF_STEREO_COUNT>
0

> <PUBCHEM_BOND_UDEF_STEREO_COUNT>
0

> <PUBCHEM_ISOTOPIC_ATOM_COUNT>
0

> <PUBCHEM_COMPONENT_COUNT>
1

> <PUBCHEM_CACTVS_TAUTO_COUNT>
-1

> <PUBCHEM_COORDINATE_TYPE>
1
5
255

> <PUBCHEM_BONDANNOTATIONS>
11  13  8
11  14  8
12  16  8
12  19  8
13  18  8
14  17  8
16  21  8
17  20  8
18  20  8
19  23  8
5  2  3
21  24  8
23  24  8

$$$$
