24815434
  -OEChem-09292322292D

 46 49  0     0  0  0  0  0  0999 V2000
    6.7619    0.8544    0.0000 N   0  0  0  0  0  0  0  0  0  0  0  0
    4.6783    2.5252    0.0000 N   0  0  0  0  0  0  0  0  0  0  0  0
    4.6783    0.9157    0.0000 N   0  0  0  0  0  0  0  0  0  0  0  0
    7.7619   -0.8776    0.0000 C   0  0  0  0  0  0  0  0  0  0  0  0
    8.2619   -0.0116    0.0000 C   0  0  0  0  0  0  0  0  0  0  0  0
    6.7619   -0.8776    0.0000 C   0  0  0  0  0  0  0  0  0  0  0  0
    7.7619    0.8544    0.0000 C   0  0  0  0  0  0  0  0  0  0  0  0
    6.2619   -0.0116    0.0000 C   0  0  0  0  0  0  0  0  0  0  0  0
    6.2619    1.7204    0.0000 C   0  0  0  0  0  0  0  0  0  0  0  0
    8.2619   -1.7436    0.0000 C   0  0  0  0  0  0  0  0  0  0  0  0
    5.2619    1.7204    0.0000 C   0  0  0  0  0  0  0  0  0  0  0  0
    7.7619   -2.6097    0.0000 C   0  0  0  0  0  0  0  0  0  0  0  0
    9.2619   -1.7436    0.0000 C   0  0  0  0  0  0  0  0  0  0  0  0
    3.7320    2.2204    0.0000 C   0  0  0  0  0  0  0  0  0  0  0  0
    3.7320    1.2204    0.0000 C   0  0  0  0  0  0  0  0  0  0  0  0
    8.2619   -3.4757    0.0000 C   0  0  0  0  0  0  0  0  0  0  0  0
    9.7619   -2.6097    0.0000 C   0  0  0  0  0  0  0  0  0  0  0  0
    4.9889    3.4757    0.0000 C   0  0  0  0  0  0  0  0  0  0  0  0
    9.2619   -3.4757    0.0000 C   0  0  0  0  0  0  0  0  0  0  0  0
    2.8660    2.7204    0.0000 C   0  0  0  0  0  0  0  0  0  0  0  0
    2.8660    0.7204    0.0000 C   0  0  0  0  0  0  0  0  0  0  0  0
    2.0000    2.2204    0.0000 C   0  0  0  0  0  0  0  0  0  0  0  0
    2.0000    1.2204    0.0000 C   0  0  0  0  0  0  0  0  0  0  0  0
    7.4519   -1.4146    0.0000 H   0  0  0  0  0  0  0  0  0  0  0  0
    8.7368   -0.4101    0.0000 H   0  0  0  0  0  0  0  0  0  0  0  0
    8.7368    0.3869    0.0000 H   0  0  0  0  0  0  0  0  0  0  0  0
    6.1793   -1.0897    0.0000 H   0  0  0  0  0  0  0  0  0  0  0  0
    6.8695   -1.4882    0.0000 H   0  0  0  0  0  0  0  0  0  0  0  0
    8.3445    1.0665    0.0000 H   0  0  0  0  0  0  0  0  0  0  0  0
    7.6542    1.4650    0.0000 H   0  0  0  0  0  0  0  0  0  0  0  0
    5.7869    0.3869    0.0000 H   0  0  0  0  0  0  0  0  0  0  0  0
    5.7869   -0.4101    0.0000 H   0  0  0  0  0  0  0  0  0  0  0  0
    6.8445    1.9325    0.0000 H   0  0  0  0  0  0  0  0  0  0  0  0
    6.1542    2.3310    0.0000 H   0  0  0  0  0  0  0  0  0  0  0  0
    7.1419   -2.6097    0.0000 H   0  0  0  0  0  0  0  0  0  0  0  0
    9.5719   -1.2067    0.0000 H   0  0  0  0  0  0  0  0  0  0  0  0
    7.9519   -4.0126    0.0000 H   0  0  0  0  0  0  0  0  0  0  0  0
   10.3819   -2.6097    0.0000 H   0  0  0  0  0  0  0  0  0  0  0  0
    5.5783    3.2831    0.0000 H   0  0  0  0  0  0  0  0  0  0  0  0
    5.1815    4.0650    0.0000 H   0  0  0  0  0  0  0  0  0  0  0  0
    4.3996    3.6683    0.0000 H   0  0  0  0  0  0  0  0  0  0  0  0
    9.5719   -4.0126    0.0000 H   0  0  0  0  0  0  0  0  0  0  0  0
    2.8660    3.3404    0.0000 H   0  0  0  0  0  0  0  0  0  0  0  0
    2.8660    0.1004    0.0000 H   0  0  0  0  0  0  0  0  0  0  0  0
    1.4631    2.5304    0.0000 H   0  0  0  0  0  0  0  0  0  0  0  0
    1.4631    0.9104    0.0000 H   0  0  0  0  0  0  0  0  0  0  0  0
  1  7  1  0  0  0  0
  1  8  1  0  0  0  0
  1  9  1  0  0  0  0
  2 11  1  0  0  0  0
  2 14  1  0  0  0  0
  2 18  1  0  0  0  0
  3 11  2  0  0  0  0
  3 15  1  0  0  0  0
  4  5  1  0  0  0  0
  4  6  1  0  0  0  0
  4 10  1  0  0  0  0
  4 24  1  0  0  0  0
  5  7  1  0  0  0  0
  5 25  1  0  0  0  0
  5 26  1  0  0  0  0
  6  8  1  0  0  0  0
  6 27  1  0  0  0  0
  6 28  1  0  0  0  0
  7 29  1  0  0  0  0
  7 30  1  0  0  0  0
  8 31  1  0  0  0  0
  8 32  1  0  0  0  0
  9 11  1  0  0  0  0
  9 33  1  0  0  0  0
  9 34  1  0  0  0  0
 10 12  2  0  0  0  0
 10 13  1  0  0  0  0
 12 16  1  0  0  0  0
 12 35  1  0  0  0  0
 13 17  2  0  0  0  0
 13 36  1  0  0  0  0
 14 15  1  0  0  0  0
 14 20  2  0  0  0  0
 15 21  2  0  0  0  0
 16 19  2  0  0  0  0
 16 37  1  0  0  0  0
 17 19  1  0  0  0  0
 17 38  1  0  0  0  0
 18 39  1  0  0  0  0
 18 40  1  0  0  0  0
 18 41  1  0  0  0  0
 19 42  1  0  0  0  0
 20 22  1  0  0  0  0
 20 43  1  0  0  0  0
 21 23  1  0  0  0  0
 21 44  1  0  0  0  0
 22 23  2  0  0  0  0
 22 45  1  0  0  0  0
 23 46  1  0  0  0  0
M  END
> <PUBCHEM_COMPOUND_CID>
24815434

> <PUBCHEM_COMPOUND_CANONICALIZED>
1

> <PUBCHEM_CACTVS_COMPLEXITY>
371

> <PUBCHEM_CACTVS_HBOND_ACCEPTOR>
2

> <PUBCHEM_CACTVS_HBOND_DONOR>
0

> <PUBCHEM_CACTVS_ROTATABLE_BOND>
3

> <PUBCHEM_CACTVS_SUBSKEYS>
AAADceB7AAAAAAAAAAAAAAAAAAAAAWAAAAA8YIAAAAAAAFgB9AAAHAAAAAAADQjBHwQz0LcMEACgAyZiZACCgC0hEqAJ2CA4dJiIaKLAmZGUIAhogALIyCcQgMAOgAAAAAAAACAAAAAAAAAAQAAAAAAAAA==

> <PUBCHEM_IUPAC_OPENEYE_NAME>
1-methyl-2-[(4-phenyl-1-piperidyl)methyl]benzimidazole

> <PUBCHEM_IUPAC_CAS_NAME>
1-methyl-2-[(4-phenyl-1-piperidinyl)methyl]benzimidazole

> <PUBCHEM_IUPAC_NAME_MARKUP>
1-methyl-2-[(4-phenylpiperidin-1-yl)methyl]benzimidazole

> <PUBCHEM_IUPAC_NAME>
1-methyl-2-[(4-phenylpiperidin-1-yl)methyl]benzimidazole

> <PUBCHEM_IUPAC_SYSTEMATIC_NAME>
1-methyl-2-[(4-phenylpiperidin-1-yl)methyl]benzimidazole

> <PUBCHEM_IUPAC_TRADITIONAL_NAME>
1-methyl-2-[(4-phenylpiperidino)methyl]benzimidazole

> <PUBCHEM_IUPAC_INCHI>
InChI=1S/C20H23N3/c1-22-19-10-6-5-9-18(19)21-20(22)15-23-13-11-17(12-14-23)16-7-3-2-4-8-16/h2-10,17H,11-15H2,1H3

> <PUBCHEM_IUPAC_INCHIKEY>
JSJOIAGWCLDVRP-UHFFFAOYSA-N

> <PUBCHEM_XLOGP3_AA>
3.5

> <PUBCHEM_EXACT_MASS>
305.189197746

> <PUBCHEM_MOLECULAR_FORMULA>
C20H23N3

> <PUBCHEM_MOLECULAR_WEIGHT>
305.4

> <PUBCHEM_OPENEYE_CAN_SMILES>
CN1C2=CC=CC=C2N=C1CN3CCC(CC3)C4=CC=CC=C4

> <PUBCHEM_OPENEYE_ISO_SMILES>
CN1C2=CC=CC=C2N=C1CN3CCC(CC3)C4=CC=CC=C4

> <PUBCHEM_CACTVS_TPSA>
21.1

> <PUBCHEM_MONOISOTOPIC_WEIGHT>
305.189197746

> <PUBCHEM_TOTAL_CHARGE>
0

> <PUBCHEM_HEAVY_ATOM_COUNT>
23

> <PUBCHEM_ATOM_DEF_STEREO_COUNT>
0

> <PUBCHEM_ATOM_UDEF_STEREO_COUNT>
0

> <PUBCHEM_BOND_DEF_STEREO_COUNT>
0

> <PUBCHEM_BOND_UDEF_STEREO_COUNT>
0

> <PUBCHEM_ISOTOPIC_ATOM_COUNT>
0

> <PUBCHEM_COMPONENT_COUNT>
1

> <PUBCHEM_CACTVS_TAUTO_COUNT>
-1

> <PUBCHEM_COORDINATE_TYPE>
1
5
255

> <PUBCHEM_BONDANNOTATIONS>
10  12  8
10  13  8
12  16  8
13  17  8
14  15  8
14  20  8
15  21  8
16  19  8
17  19  8
2  11  8
2  14  8
20  22  8
21  23  8
22  23  8
3  11  8
3  15  8

$$$$
