44405469
  -OEChem-09292322272D

 48 51  0     1  0  0  0  0  0999 V2000
    5.6416    5.8522    0.0000 Cl  0  0  0  0  0  0  0  0  0  0  0  0
    3.4782   -5.6443    0.0000 S   0  0  0  0  0  0  0  0  0  0  0  0
    4.4487   -1.1498    0.0000 O   0  0  0  0  0  0  0  0  0  0  0  0
    6.6808    1.3890    0.0000 N   0  0  3  0  0  0  0  0  0  0  0  0
    6.1808   -1.1498    0.0000 N   0  0  0  0  0  0  0  0  0  0  0  0
    6.1808   -0.1498    0.0000 C   0  0  1  0  0  0  0  0  0  0  0  0
    5.3717    0.4380    0.0000 C   0  0  0  0  0  0  0  0  0  0  0  0
    6.9898    0.4380    0.0000 C   0  0  0  0  0  0  0  0  0  0  0  0
    5.6808    1.3890    0.0000 C   0  0  0  0  0  0  0  0  0  0  0  0
    7.2685    2.1981    0.0000 C   0  0  0  0  0  0  0  0  0  0  0  0
    6.8618    3.1116    0.0000 C   0  0  0  0  0  0  0  0  0  0  0  0
    5.3147   -1.6498    0.0000 C   0  0  0  0  0  0  0  0  0  0  0  0
    5.8673    3.2161    0.0000 C   0  0  0  0  0  0  0  0  0  0  0  0
    7.4496    3.9206    0.0000 C   0  0  0  0  0  0  0  0  0  0  0  0
    5.3147   -2.6498    0.0000 C   0  0  0  0  0  0  0  0  0  0  0  0
    5.4605    4.1297    0.0000 C   0  0  0  0  0  0  0  0  0  0  0  0
    7.0428    4.8342    0.0000 C   0  0  0  0  0  0  0  0  0  0  0  0
    4.4487   -3.1498    0.0000 C   0  0  0  0  0  0  0  0  0  0  0  0
    6.1808   -3.1498    0.0000 C   0  0  0  0  0  0  0  0  0  0  0  0
    6.0483    4.9387    0.0000 C   0  0  0  0  0  0  0  0  0  0  0  0
    4.4487   -4.1498    0.0000 C   0  0  0  0  0  0  0  0  0  0  0  0
    6.1808   -4.1498    0.0000 C   0  0  0  0  0  0  0  0  0  0  0  0
    5.3147   -4.6498    0.0000 C   0  0  0  0  0  0  0  0  0  0  0  0
    3.5827   -4.6498    0.0000 C   0  0  0  0  0  0  0  0  0  0  0  0
    2.6691   -4.2431    0.0000 C   0  0  0  0  0  0  0  0  0  0  0  0
    2.0000   -4.9862    0.0000 C   0  0  0  0  0  0  0  0  0  0  0  0
    2.5000   -5.8522    0.0000 C   0  0  0  0  0  0  0  0  0  0  0  0
    6.7332   -0.4313    0.0000 H   0  0  0  0  0  0  0  0  0  0  0  0
    4.8053    0.6902    0.0000 H   0  0  0  0  0  0  0  0  0  0  0  0
    5.0617   -0.0990    0.0000 H   0  0  0  0  0  0  0  0  0  0  0  0
    7.2998   -0.0990    0.0000 H   0  0  0  0  0  0  0  0  0  0  0  0
    7.5562    0.6902    0.0000 H   0  0  0  0  0  0  0  0  0  0  0  0
    5.7456    2.0056    0.0000 H   0  0  0  0  0  0  0  0  0  0  0  0
    5.0743    1.5179    0.0000 H   0  0  0  0  0  0  0  0  0  0  0  0
    7.6992    1.7521    0.0000 H   0  0  0  0  0  0  0  0  0  0  0  0
    7.7825    2.5448    0.0000 H   0  0  0  0  0  0  0  0  0  0  0  0
    6.7177   -1.4598    0.0000 H   0  0  0  0  0  0  0  0  0  0  0  0
    5.5028    2.7145    0.0000 H   0  0  0  0  0  0  0  0  0  0  0  0
    8.0662    3.8558    0.0000 H   0  0  0  0  0  0  0  0  0  0  0  0
    3.9118   -2.8398    0.0000 H   0  0  0  0  0  0  0  0  0  0  0  0
    4.8439    4.1945    0.0000 H   0  0  0  0  0  0  0  0  0  0  0  0
    7.4073    5.3358    0.0000 H   0  0  0  0  0  0  0  0  0  0  0  0
    6.7177   -2.8398    0.0000 H   0  0  0  0  0  0  0  0  0  0  0  0
    6.7177   -4.4598    0.0000 H   0  0  0  0  0  0  0  0  0  0  0  0
    5.3147   -5.2698    0.0000 H   0  0  0  0  0  0  0  0  0  0  0  0
    2.5402   -3.6366    0.0000 H   0  0  0  0  0  0  0  0  0  0  0  0
    1.3834   -4.9214    0.0000 H   0  0  0  0  0  0  0  0  0  0  0  0
    2.2478   -6.4186    0.0000 H   0  0  0  0  0  0  0  0  0  0  0  0
  1 20  1  0  0  0  0
  2 24  1  0  0  0  0
  2 27  1  0  0  0  0
  3 12  2  0  0  0  0
  4  8  1  0  0  0  0
  4  9  1  0  0  0  0
  4 10  1  0  0  0  0
  6  5  1  1  0  0  0
  5 12  1  0  0  0  0
  5 37  1  0  0  0  0
  6  7  1  0  0  0  0
  6  8  1  0  0  0  0
  6 28  1  0  0  0  0
  7  9  1  0  0  0  0
  7 29  1  0  0  0  0
  7 30  1  0  0  0  0
  8 31  1  0  0  0  0
  8 32  1  0  0  0  0
  9 33  1  0  0  0  0
  9 34  1  0  0  0  0
 10 11  1  0  0  0  0
 10 35  1  0  0  0  0
 10 36  1  0  0  0  0
 11 13  2  0  0  0  0
 11 14  1  0  0  0  0
 12 15  1  0  0  0  0
 13 16  1  0  0  0  0
 13 38  1  0  0  0  0
 14 17  2  0  0  0  0
 14 39  1  0  0  0  0
 15 18  1  0  0  0  0
 15 19  2  0  0  0  0
 16 20  2  0  0  0  0
 16 41  1  0  0  0  0
 17 20  1  0  0  0  0
 17 42  1  0  0  0  0
 18 21  2  0  0  0  0
 18 40  1  0  0  0  0
 19 22  1  0  0  0  0
 19 43  1  0  0  0  0
 21 23  1  0  0  0  0
 21 24  1  0  0  0  0
 22 23  2  0  0  0  0
 22 44  1  0  0  0  0
 23 45  1  0  0  0  0
 24 25  2  0  0  0  0
 25 26  1  0  0  0  0
 25 46  1  0  0  0  0
 26 27  2  0  0  0  0
 26 47  1  0  0  0  0
 27 48  1  0  0  0  0
M  END
> <PUBCHEM_COMPOUND_CID>
44405469

> <PUBCHEM_COMPOUND_CANONICALIZED>
1

> <PUBCHEM_CACTVS_COMPLEXITY>
497

> <PUBCHEM_CACTVS_HBOND_ACCEPTOR>
3

> <PUBCHEM_CACTVS_HBOND_DONOR>
1

> <PUBCHEM_CACTVS_ROTATABLE_BOND>
5

> <PUBCHEM_CACTVS_SUBSKEYS>
AAADceB7IABEAAAAAAAAAAAAAAAAAWJAAAAwYAAAAAAAAAAB0AAAHgYQAAAADCrF2CSwAYPAAAiMAiFSEACDAIAkDRBIiJkIBsgIYDKh1xGUIQhglgCoiYcYiMCOBAACAAAAAAAIAAQAAAAAAAAAAAAAAA==

> <PUBCHEM_IUPAC_OPENEYE_NAME>
N-[(3S)-1-[(4-chlorophenyl)methyl]pyrrolidin-3-yl]-3-(2-thienyl)benzamide

> <PUBCHEM_IUPAC_CAS_NAME>
N-[(3S)-1-[(4-chlorophenyl)methyl]-3-pyrrolidinyl]-3-thiophen-2-ylbenzamide

> <PUBCHEM_IUPAC_NAME_MARKUP>
<I>N</I>-[(3<I>S</I>)-1-[(4-chlorophenyl)methyl]pyrrolidin-3-yl]-3-thiophen-2-ylbenzamide

> <PUBCHEM_IUPAC_NAME>
N-[(3S)-1-[(4-chlorophenyl)methyl]pyrrolidin-3-yl]-3-thiophen-2-ylbenzamide

> <PUBCHEM_IUPAC_SYSTEMATIC_NAME>
N-[(3S)-1-[(4-chlorophenyl)methyl]pyrrolidin-3-yl]-3-thiophen-2-yl-benzamide

> <PUBCHEM_IUPAC_TRADITIONAL_NAME>
N-[(3S)-1-(4-chlorobenzyl)pyrrolidin-3-yl]-3-(2-thienyl)benzamide

> <PUBCHEM_IUPAC_INCHI>
InChI=1S/C22H21ClN2OS/c23-19-8-6-16(7-9-19)14-25-11-10-20(15-25)24-22(26)18-4-1-3-17(13-18)21-5-2-12-27-21/h1-9,12-13,20H,10-11,14-15H2,(H,24,26)/t20-/m0/s1

> <PUBCHEM_IUPAC_INCHIKEY>
RYARMHWUXSXRLV-FQEVSTJZSA-N

> <PUBCHEM_XLOGP3_AA>
4.9

> <PUBCHEM_EXACT_MASS>
396.1063122

> <PUBCHEM_MOLECULAR_FORMULA>
C22H21ClN2OS

> <PUBCHEM_MOLECULAR_WEIGHT>
396.9

> <PUBCHEM_OPENEYE_CAN_SMILES>
C1CN(CC1NC(=O)C2=CC=CC(=C2)C3=CC=CS3)CC4=CC=C(C=C4)Cl

> <PUBCHEM_OPENEYE_ISO_SMILES>
C1CN(C[C@H]1NC(=O)C2=CC=CC(=C2)C3=CC=CS3)CC4=CC=C(C=C4)Cl

> <PUBCHEM_CACTVS_TPSA>
60.6

> <PUBCHEM_MONOISOTOPIC_WEIGHT>
396.1063122

> <PUBCHEM_TOTAL_CHARGE>
0

> <PUBCHEM_HEAVY_ATOM_COUNT>
27

> <PUBCHEM_ATOM_DEF_STEREO_COUNT>
1

> <PUBCHEM_ATOM_UDEF_STEREO_COUNT>
0

> <PUBCHEM_BOND_DEF_STEREO_COUNT>
0

> <PUBCHEM_BOND_UDEF_STEREO_COUNT>
0

> <PUBCHEM_ISOTOPIC_ATOM_COUNT>
0

> <PUBCHEM_COMPONENT_COUNT>
1

> <PUBCHEM_CACTVS_TAUTO_COUNT>
-1

> <PUBCHEM_COORDINATE_TYPE>
1
5
255

> <PUBCHEM_BONDANNOTATIONS>
11  13  8
11  14  8
13  16  8
14  17  8
15  18  8
15  19  8
16  20  8
17  20  8
18  21  8
19  22  8
2  24  8
2  27  8
21  23  8
22  23  8
24  25  8
25  26  8
26  27  8
6  5  5

$$$$
