24840389
  -OEChem-09292322202D

 62 64  0     1  0  0  0  0  0999 V2000
   10.7282    1.5798    0.0000 S   0  0  0  0  0  0  0  0  0  0  0  0
   11.2249    2.4477    0.0000 O   0  0  0  0  0  0  0  0  0  0  0  0
   10.2315    0.7118    0.0000 O   0  0  0  0  0  0  0  0  0  0  0  0
   14.2000   -0.4069    0.0000 O   0  0  0  0  0  0  0  0  0  0  0  0
    4.5981    0.0523    0.0000 N   0  0  0  0  0  0  0  0  0  0  0  0
    5.4641    0.5523    0.0000 C   0  0  3  0  0  0  0  0  0  0  0  0
    5.4641    1.5523    0.0000 C   0  0  0  0  0  0  0  0  0  0  0  0
    6.3301    0.0523    0.0000 C   0  0  0  0  0  0  0  0  0  0  0  0
    6.3301    2.0523    0.0000 C   0  0  0  0  0  0  0  0  0  0  0  0
    7.1962    0.5523    0.0000 C   0  0  0  0  0  0  0  0  0  0  0  0
    7.1962    1.5523    0.0000 C   0  0  0  0  0  0  0  0  0  0  0  0
    3.7320    0.5523    0.0000 C   0  0  0  0  0  0  0  0  0  0  0  0
    4.5981   -0.9477    0.0000 C   0  0  0  0  0  0  0  0  0  0  0  0
    8.0901    2.0869    0.0000 C   0  0  0  0  0  0  0  0  0  0  0  0
    8.0901    0.0176    0.0000 C   0  0  0  0  0  0  0  0  0  0  0  0
    8.9962    1.5731    0.0000 C   0  0  0  0  0  0  0  0  0  0  0  0
    2.8660    0.0523    0.0000 C   0  0  0  0  0  0  0  0  0  0  0  0
    3.7320   -1.4477    0.0000 C   0  0  0  0  0  0  0  0  0  0  0  0
    8.9962    0.5315    0.0000 C   0  0  0  0  0  0  0  0  0  0  0  0
    9.8602    2.0764    0.0000 C   0  0  0  0  0  0  0  0  0  0  0  0
    2.0000    0.5523    0.0000 C   0  0  0  0  0  0  0  0  0  0  0  0
    3.7320   -2.4477    0.0000 C   0  0  0  0  0  0  0  0  0  0  0  0
   11.5961    1.0831    0.0000 C   0  0  0  0  0  0  0  0  0  0  0  0
   11.6000    0.0831    0.0000 C   0  0  0  0  0  0  0  0  0  0  0  0
   12.4602    1.5864    0.0000 C   0  0  0  0  0  0  0  0  0  0  0  0
   12.4679   -0.4135    0.0000 C   0  0  0  0  0  0  0  0  0  0  0  0
   13.3282    1.0898    0.0000 C   0  0  0  0  0  0  0  0  0  0  0  0
   13.3320    0.0898    0.0000 C   0  0  0  0  0  0  0  0  0  0  0  0
   15.0641    0.0965    0.0000 C   0  0  0  0  0  0  0  0  0  0  0  0
    5.4641   -0.0677    0.0000 H   0  0  0  0  0  0  0  0  0  0  0  0
    5.2520    2.1349    0.0000 H   0  0  0  0  0  0  0  0  0  0  0  0
    4.8535    1.4446    0.0000 H   0  0  0  0  0  0  0  0  0  0  0  0
    5.9316   -0.4227    0.0000 H   0  0  0  0  0  0  0  0  0  0  0  0
    6.7287   -0.4227    0.0000 H   0  0  0  0  0  0  0  0  0  0  0  0
    6.7287    2.5272    0.0000 H   0  0  0  0  0  0  0  0  0  0  0  0
    5.9316    2.5272    0.0000 H   0  0  0  0  0  0  0  0  0  0  0  0
    4.1306    1.0272    0.0000 H   0  0  0  0  0  0  0  0  0  0  0  0
    3.3335    1.0272    0.0000 H   0  0  0  0  0  0  0  0  0  0  0  0
    4.8101   -1.5303    0.0000 H   0  0  0  0  0  0  0  0  0  0  0  0
    5.2087   -0.8401    0.0000 H   0  0  0  0  0  0  0  0  0  0  0  0
    8.0829    2.7069    0.0000 H   0  0  0  0  0  0  0  0  0  0  0  0
    8.0829   -0.6023    0.0000 H   0  0  0  0  0  0  0  0  0  0  0  0
    2.4675   -0.4227    0.0000 H   0  0  0  0  0  0  0  0  0  0  0  0
    3.2646   -0.4227    0.0000 H   0  0  0  0  0  0  0  0  0  0  0  0
    3.5200   -0.8651    0.0000 H   0  0  0  0  0  0  0  0  0  0  0  0
    3.1215   -1.5554    0.0000 H   0  0  0  0  0  0  0  0  0  0  0  0
    9.5319    0.2194    0.0000 H   0  0  0  0  0  0  0  0  0  0  0  0
   10.2569    2.5529    0.0000 H   0  0  0  0  0  0  0  0  0  0  0  0
    9.4599    2.5498    0.0000 H   0  0  0  0  0  0  0  0  0  0  0  0
    2.3100    1.0892    0.0000 H   0  0  0  0  0  0  0  0  0  0  0  0
    1.4631    0.8623    0.0000 H   0  0  0  0  0  0  0  0  0  0  0  0
    1.6900    0.0153    0.0000 H   0  0  0  0  0  0  0  0  0  0  0  0
    3.1120   -2.4477    0.0000 H   0  0  0  0  0  0  0  0  0  0  0  0
    3.7320   -3.0677    0.0000 H   0  0  0  0  0  0  0  0  0  0  0  0
    4.3520   -2.4477    0.0000 H   0  0  0  0  0  0  0  0  0  0  0  0
   11.0643   -0.2289    0.0000 H   0  0  0  0  0  0  0  0  0  0  0  0
   12.4578    2.2064    0.0000 H   0  0  0  0  0  0  0  0  0  0  0  0
   12.4703   -1.0335    0.0000 H   0  0  0  0  0  0  0  0  0  0  0  0
   13.8639    1.4019    0.0000 H   0  0  0  0  0  0  0  0  0  0  0  0
   15.3761   -0.4393    0.0000 H   0  0  0  0  0  0  0  0  0  0  0  0
   15.5998    0.4085    0.0000 H   0  0  0  0  0  0  0  0  0  0  0  0
   14.7520    0.6322    0.0000 H   0  0  0  0  0  0  0  0  0  0  0  0
  1  2  2  0  0  0  0
  1  3  2  0  0  0  0
  1 20  1  0  0  0  0
  1 23  1  0  0  0  0
  4 28  1  0  0  0  0
  4 29  1  0  0  0  0
  5  6  1  0  0  0  0
  5 12  1  0  0  0  0
  5 13  1  0  0  0  0
  6  7  1  0  0  0  0
  6  8  1  0  0  0  0
  6 30  1  0  0  0  0
  7  9  1  0  0  0  0
  7 31  1  0  0  0  0
  7 32  1  0  0  0  0
  8 10  1  0  0  0  0
  8 33  1  0  0  0  0
  8 34  1  0  0  0  0
  9 11  1  0  0  0  0
  9 35  1  0  0  0  0
  9 36  1  0  0  0  0
 10 11  2  0  0  0  0
 10 15  1  0  0  0  0
 11 14  1  0  0  0  0
 12 17  1  0  0  0  0
 12 37  1  0  0  0  0
 12 38  1  0  0  0  0
 13 18  1  0  0  0  0
 13 39  1  0  0  0  0
 13 40  1  0  0  0  0
 14 16  2  0  0  0  0
 14 41  1  0  0  0  0
 15 19  2  0  0  0  0
 15 42  1  0  0  0  0
 16 19  1  0  0  0  0
 16 20  1  0  0  0  0
 17 21  1  0  0  0  0
 17 43  1  0  0  0  0
 17 44  1  0  0  0  0
 18 22  1  0  0  0  0
 18 45  1  0  0  0  0
 18 46  1  0  0  0  0
 19 47  1  0  0  0  0
 20 48  1  0  0  0  0
 20 49  1  0  0  0  0
 21 50  1  0  0  0  0
 21 51  1  0  0  0  0
 21 52  1  0  0  0  0
 22 53  1  0  0  0  0
 22 54  1  0  0  0  0
 22 55  1  0  0  0  0
 23 24  2  0  0  0  0
 23 25  1  0  0  0  0
 24 26  1  0  0  0  0
 24 56  1  0  0  0  0
 25 27  2  0  0  0  0
 25 57  1  0  0  0  0
 26 28  2  0  0  0  0
 26 58  1  0  0  0  0
 27 28  1  0  0  0  0
 27 59  1  0  0  0  0
 29 60  1  0  0  0  0
 29 61  1  0  0  0  0
 29 62  1  0  0  0  0
M  END
> <PUBCHEM_COMPOUND_CID>
24840389

> <PUBCHEM_COMPOUND_CANONICALIZED>
1

> <PUBCHEM_CACTVS_COMPLEXITY>
573

> <PUBCHEM_CACTVS_HBOND_ACCEPTOR>
4

> <PUBCHEM_CACTVS_HBOND_DONOR>
0

> <PUBCHEM_CACTVS_ROTATABLE_BOND>
9

> <PUBCHEM_CACTVS_SUBSKEYS>
AAADcfB6MABAAAAAAAAAAAAAAAAAAAAAAAAwYMAAAAAAAADBQAAAHgQAAAAADCzF2AayB4MABAqAAiBCAHBCCAAgKBAIiBgOCIgMJiKksRuEMCAkwBGoqAeQwMAOwIACAAAQAACRAASAACAAAAAAAAAAAA==

> <PUBCHEM_IUPAC_OPENEYE_NAME>
6-[(4-methoxyphenyl)sulfonylmethyl]-N,N-dipropyl-tetralin-2-amine

> <PUBCHEM_IUPAC_CAS_NAME>
6-[(4-methoxyphenyl)sulfonylmethyl]-N,N-dipropyl-1,2,3,4-tetrahydronaphthalen-2-amine

> <PUBCHEM_IUPAC_NAME_MARKUP>
6-[(4-methoxyphenyl)sulfonylmethyl]-<I>N</I>,<I>N</I>-dipropyl-1,2,3,4-tetrahydronaphthalen-2-amine

> <PUBCHEM_IUPAC_NAME>
6-[(4-methoxyphenyl)sulfonylmethyl]-N,N-dipropyl-1,2,3,4-tetrahydronaphthalen-2-amine

> <PUBCHEM_IUPAC_SYSTEMATIC_NAME>
6-[(4-methoxyphenyl)sulfonylmethyl]-N,N-dipropyl-1,2,3,4-tetrahydronaphthalen-2-amine

> <PUBCHEM_IUPAC_TRADITIONAL_NAME>
[6-[(4-methoxyphenyl)sulfonylmethyl]tetralin-2-yl]-dipropyl-amine

> <PUBCHEM_IUPAC_INCHI>
InChI=1S/C24H33NO3S/c1-4-14-25(15-5-2)22-9-8-20-16-19(6-7-21(20)17-22)18-29(26,27)24-12-10-23(28-3)11-13-24/h6-7,10-13,16,22H,4-5,8-9,14-15,17-18H2,1-3H3

> <PUBCHEM_IUPAC_INCHIKEY>
HUXFXXWYIRBVJR-UHFFFAOYSA-N

> <PUBCHEM_XLOGP3_AA>
5.2

> <PUBCHEM_EXACT_MASS>
415.21811509

> <PUBCHEM_MOLECULAR_FORMULA>
C24H33NO3S

> <PUBCHEM_MOLECULAR_WEIGHT>
415.6

> <PUBCHEM_OPENEYE_CAN_SMILES>
CCCN(CCC)C1CCC2=C(C1)C=CC(=C2)CS(=O)(=O)C3=CC=C(C=C3)OC

> <PUBCHEM_OPENEYE_ISO_SMILES>
CCCN(CCC)C1CCC2=C(C1)C=CC(=C2)CS(=O)(=O)C3=CC=C(C=C3)OC

> <PUBCHEM_CACTVS_TPSA>
55

> <PUBCHEM_MONOISOTOPIC_WEIGHT>
415.21811509

> <PUBCHEM_TOTAL_CHARGE>
0

> <PUBCHEM_HEAVY_ATOM_COUNT>
29

> <PUBCHEM_ATOM_DEF_STEREO_COUNT>
0

> <PUBCHEM_ATOM_UDEF_STEREO_COUNT>
1

> <PUBCHEM_BOND_DEF_STEREO_COUNT>
0

> <PUBCHEM_BOND_UDEF_STEREO_COUNT>
0

> <PUBCHEM_ISOTOPIC_ATOM_COUNT>
0

> <PUBCHEM_COMPONENT_COUNT>
1

> <PUBCHEM_CACTVS_TAUTO_COUNT>
-1

> <PUBCHEM_COORDINATE_TYPE>
1
5
255

> <PUBCHEM_BONDANNOTATIONS>
10  11  8
10  15  8
11  14  8
14  16  8
15  19  8
16  19  8
23  24  8
23  25  8
24  26  8
25  27  8
26  28  8
27  28  8
6  5  3

$$$$
