44579457
  -OEChem-09292322032D

 62 66  0     0  0  0  0  0  0999 V2000
    2.0000   -5.3548    0.0000 F   0  0  0  0  0  0  0  0  0  0  0  0
    7.6724    5.7489    0.0000 F   0  0  0  0  0  0  0  0  0  0  0  0
    9.0846    5.6724    0.0000 F   0  0  0  0  0  0  0  0  0  0  0  0
    7.5960    4.3367    0.0000 F   0  0  0  0  0  0  0  0  0  0  0  0
    7.1279   -4.3548    0.0000 O   0  0  0  0  0  0  0  0  0  0  0  0
    6.4763   -0.6985    0.0000 N   0  0  0  0  0  0  0  0  0  0  0  0
    7.4083    2.1530    0.0000 N   0  0  0  0  0  0  0  0  0  0  0  0
    5.5443   -3.5501    0.0000 N   0  0  0  0  0  0  0  0  0  0  0  0
    5.5443   -5.1596    0.0000 N   0  0  0  0  0  0  0  0  0  0  0  0
    6.7870    0.2520    0.0000 C   0  0  0  0  0  0  0  0  0  0  0  0
    5.8550   -2.5996    0.0000 C   0  0  0  0  0  0  0  0  0  0  0  0
    7.1441   -1.4428    0.0000 C   0  0  0  0  0  0  0  0  0  0  0  0
    5.4978   -0.9048    0.0000 C   0  0  0  0  0  0  0  0  0  0  0  0
    6.1191    0.9963    0.0000 C   0  0  0  0  0  0  0  0  0  0  0  0
    7.7654    0.4582    0.0000 C   0  0  0  0  0  0  0  0  0  0  0  0
    6.8335   -2.3934    0.0000 C   0  0  0  0  0  0  0  0  0  0  0  0
    5.1871   -1.8553    0.0000 C   0  0  0  0  0  0  0  0  0  0  0  0
    6.4298    1.9468    0.0000 C   0  0  0  0  0  0  0  0  0  0  0  0
    8.0761    1.4087    0.0000 C   0  0  0  0  0  0  0  0  0  0  0  0
    7.7189    3.1035    0.0000 C   0  0  0  0  0  0  0  0  0  0  0  0
    4.5981   -3.8548    0.0000 C   0  0  0  0  0  0  0  0  0  0  0  0
    6.1279   -4.3548    0.0000 C   0  0  0  0  0  0  0  0  0  0  0  0
    4.5981   -4.8548    0.0000 C   0  0  0  0  0  0  0  0  0  0  0  0
    8.6974    3.3098    0.0000 C   0  0  0  0  0  0  0  0  0  0  0  0
    3.7320   -3.3548    0.0000 C   0  0  0  0  0  0  0  0  0  0  0  0
    3.7320   -5.3548    0.0000 C   0  0  0  0  0  0  0  0  0  0  0  0
    9.0081    4.2603    0.0000 C   0  0  0  0  0  0  0  0  0  0  0  0
    9.3653    2.5655    0.0000 C   0  0  0  0  0  0  0  0  0  0  0  0
    2.8660   -3.8548    0.0000 C   0  0  0  0  0  0  0  0  0  0  0  0
    2.8660   -4.8548    0.0000 C   0  0  0  0  0  0  0  0  0  0  0  0
    9.9866    4.4665    0.0000 C   0  0  0  0  0  0  0  0  0  0  0  0
    8.3403    5.0046    0.0000 C   0  0  0  0  0  0  0  0  0  0  0  0
   10.3438    2.7717    0.0000 C   0  0  0  0  0  0  0  0  0  0  0  0
   10.6545    3.7222    0.0000 C   0  0  0  0  0  0  0  0  0  0  0  0
    7.2010   -0.2095    0.0000 H   0  0  0  0  0  0  0  0  0  0  0  0
    6.2690   -3.0610    0.0000 H   0  0  0  0  0  0  0  0  0  0  0  0
    7.6910   -1.7349    0.0000 H   0  0  0  0  0  0  0  0  0  0  0  0
    7.5267   -0.9549    0.0000 H   0  0  0  0  0  0  0  0  0  0  0  0
    5.4772   -0.2851    0.0000 H   0  0  0  0  0  0  0  0  0  0  0  0
    4.8840   -0.8174    0.0000 H   0  0  0  0  0  0  0  0  0  0  0  0
    5.5722    1.2883    0.0000 H   0  0  0  0  0  0  0  0  0  0  0  0
    5.7366    0.5084    0.0000 H   0  0  0  0  0  0  0  0  0  0  0  0
    7.7860   -0.1615    0.0000 H   0  0  0  0  0  0  0  0  0  0  0  0
    8.3793    0.3709    0.0000 H   0  0  0  0  0  0  0  0  0  0  0  0
    6.8540   -3.0130    0.0000 H   0  0  0  0  0  0  0  0  0  0  0  0
    7.4473   -2.4807    0.0000 H   0  0  0  0  0  0  0  0  0  0  0  0
    4.6402   -1.5633    0.0000 H   0  0  0  0  0  0  0  0  0  0  0  0
    4.8046   -2.3432    0.0000 H   0  0  0  0  0  0  0  0  0  0  0  0
    6.4092    2.5665    0.0000 H   0  0  0  0  0  0  0  0  0  0  0  0
    5.8160    2.0342    0.0000 H   0  0  0  0  0  0  0  0  0  0  0  0
    8.6230    1.1167    0.0000 H   0  0  0  0  0  0  0  0  0  0  0  0
    8.4587    1.8966    0.0000 H   0  0  0  0  0  0  0  0  0  0  0  0
    7.6984    3.7232    0.0000 H   0  0  0  0  0  0  0  0  0  0  0  0
    7.1051    3.1909    0.0000 H   0  0  0  0  0  0  0  0  0  0  0  0
    5.7369   -5.7489    0.0000 H   0  0  0  0  0  0  0  0  0  0  0  0
    3.7320   -2.7348    0.0000 H   0  0  0  0  0  0  0  0  0  0  0  0
    3.7320   -5.9748    0.0000 H   0  0  0  0  0  0  0  0  0  0  0  0
    9.1727    1.9761    0.0000 H   0  0  0  0  0  0  0  0  0  0  0  0
    2.3291   -3.5448    0.0000 H   0  0  0  0  0  0  0  0  0  0  0  0
   10.1792    5.0558    0.0000 H   0  0  0  0  0  0  0  0  0  0  0  0
   10.7578    2.3102    0.0000 H   0  0  0  0  0  0  0  0  0  0  0  0
   11.2611    3.8501    0.0000 H   0  0  0  0  0  0  0  0  0  0  0  0
  1 30  1  0  0  0  0
  2 32  1  0  0  0  0
  3 32  1  0  0  0  0
  4 32  1  0  0  0  0
  5 22  2  0  0  0  0
  6 10  1  0  0  0  0
  6 12  1  0  0  0  0
  6 13  1  0  0  0  0
  7 18  1  0  0  0  0
  7 19  1  0  0  0  0
  7 20  1  0  0  0  0
  8 11  1  0  0  0  0
  8 21  1  0  0  0  0
  8 22  1  0  0  0  0
  9 22  1  0  0  0  0
  9 23  1  0  0  0  0
  9 55  1  0  0  0  0
 10 14  1  0  0  0  0
 10 15  1  0  0  0  0
 10 35  1  0  0  0  0
 11 16  1  0  0  0  0
 11 17  1  0  0  0  0
 11 36  1  0  0  0  0
 12 16  1  0  0  0  0
 12 37  1  0  0  0  0
 12 38  1  0  0  0  0
 13 17  1  0  0  0  0
 13 39  1  0  0  0  0
 13 40  1  0  0  0  0
 14 18  1  0  0  0  0
 14 41  1  0  0  0  0
 14 42  1  0  0  0  0
 15 19  1  0  0  0  0
 15 43  1  0  0  0  0
 15 44  1  0  0  0  0
 16 45  1  0  0  0  0
 16 46  1  0  0  0  0
 17 47  1  0  0  0  0
 17 48  1  0  0  0  0
 18 49  1  0  0  0  0
 18 50  1  0  0  0  0
 19 51  1  0  0  0  0
 19 52  1  0  0  0  0
 20 24  1  0  0  0  0
 20 53  1  0  0  0  0
 20 54  1  0  0  0  0
 21 23  2  0  0  0  0
 21 25  1  0  0  0  0
 23 26  1  0  0  0  0
 24 27  1  0  0  0  0
 24 28  2  0  0  0  0
 25 29  2  0  0  0  0
 25 56  1  0  0  0  0
 26 30  2  0  0  0  0
 26 57  1  0  0  0  0
 27 31  2  0  0  0  0
 27 32  1  0  0  0  0
 28 33  1  0  0  0  0
 28 58  1  0  0  0  0
 29 30  1  0  0  0  0
 29 59  1  0  0  0  0
 31 34  1  0  0  0  0
 31 60  1  0  0  0  0
 33 34  2  0  0  0  0
 33 61  1  0  0  0  0
 34 62  1  0  0  0  0
M  END
> <PUBCHEM_COMPOUND_CID>
44579457

> <PUBCHEM_COMPOUND_CANONICALIZED>
1

> <PUBCHEM_CACTVS_COMPLEXITY>
706

> <PUBCHEM_CACTVS_HBOND_ACCEPTOR>
7

> <PUBCHEM_CACTVS_HBOND_DONOR>
1

> <PUBCHEM_CACTVS_ROTATABLE_BOND>
4

> <PUBCHEM_CACTVS_SUBSKEYS>
AAADceB7ocAAAAAAAAAAAAAAAAAAAWAAAAA8eIEAAAAAAFgBQAAAHwAQAAAADCjBGBwxwIPAAACIAiRCUACCAAAhAgAIiAAIdIiIYCLA0ZGUIAholgLIyCcQgIAOgAAAAAAQACAAAAAAACAAQAAAAAAAAA==

> <PUBCHEM_IUPAC_OPENEYE_NAME>
6-fluoro-3-[1-[1-[[2-(trifluoromethyl)phenyl]methyl]-4-piperidyl]-4-piperidyl]-1H-benzimidazol-2-one

> <PUBCHEM_IUPAC_CAS_NAME>
6-fluoro-3-[1-[1-[[2-(trifluoromethyl)phenyl]methyl]-4-piperidinyl]-4-piperidinyl]-1H-benzimidazol-2-one

> <PUBCHEM_IUPAC_NAME_MARKUP>
6-fluoro-3-[1-[1-[[2-(trifluoromethyl)phenyl]methyl]piperidin-4-yl]piperidin-4-yl]-1<I>H</I>-benzimidazol-2-one

> <PUBCHEM_IUPAC_NAME>
6-fluoro-3-[1-[1-[[2-(trifluoromethyl)phenyl]methyl]piperidin-4-yl]piperidin-4-yl]-1H-benzimidazol-2-one

> <PUBCHEM_IUPAC_SYSTEMATIC_NAME>
6-fluoranyl-3-[1-[1-[[2-(trifluoromethyl)phenyl]methyl]piperidin-4-yl]piperidin-4-yl]-1H-benzimidazol-2-one

> <PUBCHEM_IUPAC_TRADITIONAL_NAME>
6-fluoro-3-[1-[1-[2-(trifluoromethyl)benzyl]-4-piperidyl]-4-piperidyl]-1H-benzimidazol-2-one

> <PUBCHEM_IUPAC_INCHI>
InChI=1S/C25H28F4N4O/c26-18-5-6-23-22(15-18)30-24(34)33(23)20-9-13-32(14-10-20)19-7-11-31(12-8-19)16-17-3-1-2-4-21(17)25(27,28)29/h1-6,15,19-20H,7-14,16H2,(H,30,34)

> <PUBCHEM_IUPAC_INCHIKEY>
BVXXXRLWEYNAGE-UHFFFAOYSA-N

> <PUBCHEM_XLOGP3_AA>
4.4

> <PUBCHEM_EXACT_MASS>
476.21992418

> <PUBCHEM_MOLECULAR_FORMULA>
C25H28F4N4O

> <PUBCHEM_MOLECULAR_WEIGHT>
476.5

> <PUBCHEM_OPENEYE_CAN_SMILES>
C1CN(CCC1N2CCC(CC2)N3C4=C(C=C(C=C4)F)NC3=O)CC5=CC=CC=C5C(F)(F)F

> <PUBCHEM_OPENEYE_ISO_SMILES>
C1CN(CCC1N2CCC(CC2)N3C4=C(C=C(C=C4)F)NC3=O)CC5=CC=CC=C5C(F)(F)F

> <PUBCHEM_CACTVS_TPSA>
38.8

> <PUBCHEM_MONOISOTOPIC_WEIGHT>
476.21992418

> <PUBCHEM_TOTAL_CHARGE>
0

> <PUBCHEM_HEAVY_ATOM_COUNT>
34

> <PUBCHEM_ATOM_DEF_STEREO_COUNT>
0

> <PUBCHEM_ATOM_UDEF_STEREO_COUNT>
0

> <PUBCHEM_BOND_DEF_STEREO_COUNT>
0

> <PUBCHEM_BOND_UDEF_STEREO_COUNT>
0

> <PUBCHEM_ISOTOPIC_ATOM_COUNT>
0

> <PUBCHEM_COMPONENT_COUNT>
1

> <PUBCHEM_CACTVS_TAUTO_COUNT>
-1

> <PUBCHEM_COORDINATE_TYPE>
1
5
255

> <PUBCHEM_BONDANNOTATIONS>
21  23  8
21  25  8
23  26  8
24  27  8
24  28  8
25  29  8
26  30  8
27  31  8
28  33  8
29  30  8
31  34  8
33  34  8
8  21  8
8  22  8
9  22  8
9  23  8

$$$$
