44436602
  -OEChem-09292322252D

 58 60  0     0  0  0  0  0  0999 V2000
    2.8660   -4.6550    0.0000 O   0  0  0  0  0  0  0  0  0  0  0  0
    8.0622    2.3450    0.0000 O   0  0  0  0  0  0  0  0  0  0  0  0
    4.5981   -1.6550    0.0000 N   0  0  0  0  0  0  0  0  0  0  0  0
    4.5981   -3.6550    0.0000 N   0  0  0  0  0  0  0  0  0  0  0  0
    6.3301    2.3450    0.0000 N   0  0  0  0  0  0  0  0  0  0  0  0
    5.4641   -2.1550    0.0000 C   0  0  0  0  0  0  0  0  0  0  0  0
    3.7320   -2.1550    0.0000 C   0  0  0  0  0  0  0  0  0  0  0  0
    5.4641   -3.1550    0.0000 C   0  0  0  0  0  0  0  0  0  0  0  0
    3.7320   -3.1550    0.0000 C   0  0  0  0  0  0  0  0  0  0  0  0
    4.5981   -0.6550    0.0000 C   0  0  0  0  0  0  0  0  0  0  0  0
    5.4641   -0.1550    0.0000 C   0  0  0  0  0  0  0  0  0  0  0  0
    4.5981   -4.6550    0.0000 C   0  0  0  0  0  0  0  0  0  0  0  0
    5.4641    0.8450    0.0000 C   0  0  0  0  0  0  0  0  0  0  0  0
    6.3301    1.3450    0.0000 C   0  0  0  0  0  0  0  0  0  0  0  0
    3.7320   -5.1550    0.0000 C   0  0  0  0  0  0  0  0  0  0  0  0
    5.4641   -5.1550    0.0000 C   0  0  0  0  0  0  0  0  0  0  0  0
    3.7320   -6.1550    0.0000 C   0  0  0  0  0  0  0  0  0  0  0  0
    5.4641   -6.1550    0.0000 C   0  0  0  0  0  0  0  0  0  0  0  0
    4.5981   -6.6550    0.0000 C   0  0  0  0  0  0  0  0  0  0  0  0
    7.1962    2.8450    0.0000 C   0  0  0  0  0  0  0  0  0  0  0  0
    2.0000   -5.1550    0.0000 C   0  0  0  0  0  0  0  0  0  0  0  0
    7.1962    3.8450    0.0000 C   0  0  0  0  0  0  0  0  0  0  0  0
    8.0622    4.3450    0.0000 C   0  0  0  0  0  0  0  0  0  0  0  0
    6.3301    4.3450    0.0000 C   0  0  0  0  0  0  0  0  0  0  0  0
    8.0622    5.3450    0.0000 C   0  0  0  0  0  0  0  0  0  0  0  0
    6.3301    5.3450    0.0000 C   0  0  0  0  0  0  0  0  0  0  0  0
    7.1962    5.8450    0.0000 C   0  0  0  0  0  0  0  0  0  0  0  0
    8.9282    5.8450    0.0000 C   0  0  0  0  0  0  0  0  0  0  0  0
    9.7942    6.3450    0.0000 C   0  0  0  0  0  0  0  0  0  0  0  0
    6.0747   -2.2627    0.0000 H   0  0  0  0  0  0  0  0  0  0  0  0
    5.6762   -1.5724    0.0000 H   0  0  0  0  0  0  0  0  0  0  0  0
    3.5200   -1.5724    0.0000 H   0  0  0  0  0  0  0  0  0  0  0  0
    3.1215   -2.2627    0.0000 H   0  0  0  0  0  0  0  0  0  0  0  0
    5.6762   -3.7376    0.0000 H   0  0  0  0  0  0  0  0  0  0  0  0
    6.0747   -3.0473    0.0000 H   0  0  0  0  0  0  0  0  0  0  0  0
    3.1215   -3.0473    0.0000 H   0  0  0  0  0  0  0  0  0  0  0  0
    3.5200   -3.7376    0.0000 H   0  0  0  0  0  0  0  0  0  0  0  0
    4.3860   -0.0724    0.0000 H   0  0  0  0  0  0  0  0  0  0  0  0
    3.9875   -0.7627    0.0000 H   0  0  0  0  0  0  0  0  0  0  0  0
    5.6762   -0.7376    0.0000 H   0  0  0  0  0  0  0  0  0  0  0  0
    6.0747   -0.0473    0.0000 H   0  0  0  0  0  0  0  0  0  0  0  0
    5.2520    1.4276    0.0000 H   0  0  0  0  0  0  0  0  0  0  0  0
    4.8535    0.7373    0.0000 H   0  0  0  0  0  0  0  0  0  0  0  0
    6.5422    0.7624    0.0000 H   0  0  0  0  0  0  0  0  0  0  0  0
    6.9407    1.4527    0.0000 H   0  0  0  0  0  0  0  0  0  0  0  0
    6.0010   -4.8450    0.0000 H   0  0  0  0  0  0  0  0  0  0  0  0
    3.1951   -6.4650    0.0000 H   0  0  0  0  0  0  0  0  0  0  0  0
    6.0010   -6.4650    0.0000 H   0  0  0  0  0  0  0  0  0  0  0  0
    5.7932    2.6550    0.0000 H   0  0  0  0  0  0  0  0  0  0  0  0
    4.5981   -7.2750    0.0000 H   0  0  0  0  0  0  0  0  0  0  0  0
    1.6900   -4.6181    0.0000 H   0  0  0  0  0  0  0  0  0  0  0  0
    1.4631   -5.4650    0.0000 H   0  0  0  0  0  0  0  0  0  0  0  0
    2.3100   -5.6919    0.0000 H   0  0  0  0  0  0  0  0  0  0  0  0
    8.5991    4.0350    0.0000 H   0  0  0  0  0  0  0  0  0  0  0  0
    5.7932    4.0350    0.0000 H   0  0  0  0  0  0  0  0  0  0  0  0
    5.7932    5.6550    0.0000 H   0  0  0  0  0  0  0  0  0  0  0  0
    7.1962    6.4650    0.0000 H   0  0  0  0  0  0  0  0  0  0  0  0
   10.3312    6.6550    0.0000 H   0  0  0  0  0  0  0  0  0  0  0  0
  1 15  1  0  0  0  0
  1 21  1  0  0  0  0
  2 20  2  0  0  0  0
  3  6  1  0  0  0  0
  3  7  1  0  0  0  0
  3 10  1  0  0  0  0
  4  8  1  0  0  0  0
  4  9  1  0  0  0  0
  4 12  1  0  0  0  0
  5 14  1  0  0  0  0
  5 20  1  0  0  0  0
  5 49  1  0  0  0  0
  6  8  1  0  0  0  0
  6 30  1  0  0  0  0
  6 31  1  0  0  0  0
  7  9  1  0  0  0  0
  7 32  1  0  0  0  0
  7 33  1  0  0  0  0
  8 34  1  0  0  0  0
  8 35  1  0  0  0  0
  9 36  1  0  0  0  0
  9 37  1  0  0  0  0
 10 11  1  0  0  0  0
 10 38  1  0  0  0  0
 10 39  1  0  0  0  0
 11 13  1  0  0  0  0
 11 40  1  0  0  0  0
 11 41  1  0  0  0  0
 12 15  1  0  0  0  0
 12 16  2  0  0  0  0
 13 14  1  0  0  0  0
 13 42  1  0  0  0  0
 13 43  1  0  0  0  0
 14 44  1  0  0  0  0
 14 45  1  0  0  0  0
 15 17  2  0  0  0  0
 16 18  1  0  0  0  0
 16 46  1  0  0  0  0
 17 19  1  0  0  0  0
 17 47  1  0  0  0  0
 18 19  2  0  0  0  0
 18 48  1  0  0  0  0
 19 50  1  0  0  0  0
 20 22  1  0  0  0  0
 21 51  1  0  0  0  0
 21 52  1  0  0  0  0
 21 53  1  0  0  0  0
 22 23  1  0  0  0  0
 22 24  2  0  0  0  0
 23 25  2  0  0  0  0
 23 54  1  0  0  0  0
 24 26  1  0  0  0  0
 24 55  1  0  0  0  0
 25 27  1  0  0  0  0
 25 28  1  0  0  0  0
 26 27  2  0  0  0  0
 26 56  1  0  0  0  0
 27 57  1  0  0  0  0
 28 29  3  0  0  0  0
 29 58  1  0  0  0  0
M  END
> <PUBCHEM_COMPOUND_CID>
44436602

> <PUBCHEM_COMPOUND_CANONICALIZED>
1

> <PUBCHEM_CACTVS_COMPLEXITY>
550

> <PUBCHEM_CACTVS_HBOND_ACCEPTOR>
4

> <PUBCHEM_CACTVS_HBOND_DONOR>
1

> <PUBCHEM_CACTVS_ROTATABLE_BOND>
9

> <PUBCHEM_CACTVS_SUBSKEYS>
AAADceB7MAAAAAAAAAAAAAAAAAAAAAAAAAA8YIAAAAAAAAABQAAAHgAQAAAADAzBmAYyxoPABADIGiVSUAiCCAAlIgAIiIEPbMgOZjLEtZuVMShk1hHY6YeYyECOAAACAAAAEAAAAAQAAAAgAAAAAAAAAA==

> <PUBCHEM_IUPAC_OPENEYE_NAME>
3-ethynyl-N-[4-[4-(2-methoxyphenyl)piperazin-1-yl]butyl]benzamide

> <PUBCHEM_IUPAC_CAS_NAME>
3-ethynyl-N-[4-[4-(2-methoxyphenyl)-1-piperazinyl]butyl]benzamide

> <PUBCHEM_IUPAC_NAME_MARKUP>
3-ethynyl-<I>N</I>-[4-[4-(2-methoxyphenyl)piperazin-1-yl]butyl]benzamide

> <PUBCHEM_IUPAC_NAME>
3-ethynyl-N-[4-[4-(2-methoxyphenyl)piperazin-1-yl]butyl]benzamide

> <PUBCHEM_IUPAC_SYSTEMATIC_NAME>
3-ethynyl-N-[4-[4-(2-methoxyphenyl)piperazin-1-yl]butyl]benzamide

> <PUBCHEM_IUPAC_TRADITIONAL_NAME>
3-ethynyl-N-[4-[4-(2-methoxyphenyl)piperazino]butyl]benzamide

> <PUBCHEM_IUPAC_INCHI>
InChI=1S/C24H29N3O2/c1-3-20-9-8-10-21(19-20)24(28)25-13-6-7-14-26-15-17-27(18-16-26)22-11-4-5-12-23(22)29-2/h1,4-5,8-12,19H,6-7,13-18H2,2H3,(H,25,28)

> <PUBCHEM_IUPAC_INCHIKEY>
CQBTYAKAEVDTHI-UHFFFAOYSA-N

> <PUBCHEM_XLOGP3_AA>
3.8

> <PUBCHEM_EXACT_MASS>
391.22597718

> <PUBCHEM_MOLECULAR_FORMULA>
C24H29N3O2

> <PUBCHEM_MOLECULAR_WEIGHT>
391.5

> <PUBCHEM_OPENEYE_CAN_SMILES>
COC1=CC=CC=C1N2CCN(CC2)CCCCNC(=O)C3=CC=CC(=C3)C#C

> <PUBCHEM_OPENEYE_ISO_SMILES>
COC1=CC=CC=C1N2CCN(CC2)CCCCNC(=O)C3=CC=CC(=C3)C#C

> <PUBCHEM_CACTVS_TPSA>
44.8

> <PUBCHEM_MONOISOTOPIC_WEIGHT>
391.22597718

> <PUBCHEM_TOTAL_CHARGE>
0

> <PUBCHEM_HEAVY_ATOM_COUNT>
29

> <PUBCHEM_ATOM_DEF_STEREO_COUNT>
0

> <PUBCHEM_ATOM_UDEF_STEREO_COUNT>
0

> <PUBCHEM_BOND_DEF_STEREO_COUNT>
0

> <PUBCHEM_BOND_UDEF_STEREO_COUNT>
0

> <PUBCHEM_ISOTOPIC_ATOM_COUNT>
0

> <PUBCHEM_COMPONENT_COUNT>
1

> <PUBCHEM_CACTVS_TAUTO_COUNT>
-1

> <PUBCHEM_COORDINATE_TYPE>
1
5
255

> <PUBCHEM_BONDANNOTATIONS>
12  15  8
12  16  8
15  17  8
16  18  8
17  19  8
18  19  8
22  23  8
22  24  8
23  25  8
24  26  8
25  27  8
26  27  8

$$$$
