90466574
  -OEChem-09292322002D

 67 70  0     0  0  0  0  0  0999 V2000
    2.0000   -6.0600    0.0000 Cl  0  0  0  0  0  0  0  0  0  0  0  0
    2.0000   -8.0600    0.0000 Cl  0  0  0  0  0  0  0  0  0  0  0  0
    6.3301    2.4400    0.0000 O   0  0  0  0  0  0  0  0  0  0  0  0
    7.1962    0.9400    0.0000 O   0  0  0  0  0  0  0  0  0  0  0  0
    9.7942    7.4400    0.0000 O   0  0  0  0  0  0  0  0  0  0  0  0
    3.7320   -3.0600    0.0000 N   0  0  0  0  0  0  0  0  0  0  0  0
    3.7320   -5.0600    0.0000 N   0  0  0  0  0  0  0  0  0  0  0  0
    5.4641    0.9400    0.0000 N   0  0  0  0  0  0  0  0  0  0  0  0
   11.5263    7.4400    0.0000 N   0  0  0  0  0  0  0  0  0  0  0  0
    2.8660   -3.5600    0.0000 C   0  0  0  0  0  0  0  0  0  0  0  0
    4.5981   -3.5600    0.0000 C   0  0  0  0  0  0  0  0  0  0  0  0
    2.8660   -4.5600    0.0000 C   0  0  0  0  0  0  0  0  0  0  0  0
    4.5981   -4.5600    0.0000 C   0  0  0  0  0  0  0  0  0  0  0  0
    3.7320   -2.0600    0.0000 C   0  0  0  0  0  0  0  0  0  0  0  0
    4.5981   -1.5600    0.0000 C   0  0  0  0  0  0  0  0  0  0  0  0
    3.7320   -6.0600    0.0000 C   0  0  0  0  0  0  0  0  0  0  0  0
    4.5981   -0.5600    0.0000 C   0  0  0  0  0  0  0  0  0  0  0  0
    5.4641   -0.0600    0.0000 C   0  0  0  0  0  0  0  0  0  0  0  0
    2.8660   -6.5600    0.0000 C   0  0  0  0  0  0  0  0  0  0  0  0
    4.5981   -6.5600    0.0000 C   0  0  0  0  0  0  0  0  0  0  0  0
    2.8660   -7.5600    0.0000 C   0  0  0  0  0  0  0  0  0  0  0  0
    4.5981   -7.5600    0.0000 C   0  0  0  0  0  0  0  0  0  0  0  0
    3.7320   -8.0600    0.0000 C   0  0  0  0  0  0  0  0  0  0  0  0
    6.3301    1.4400    0.0000 C   0  0  0  0  0  0  0  0  0  0  0  0
    7.1962    2.9400    0.0000 C   0  0  0  0  0  0  0  0  0  0  0  0
    8.9282    3.9400    0.0000 C   0  0  0  0  0  0  0  0  0  0  0  0
    7.1962    3.9400    0.0000 C   0  0  0  0  0  0  0  0  0  0  0  0
    8.0622    2.4400    0.0000 C   0  0  0  0  0  0  0  0  0  0  0  0
    9.7942    4.4400    0.0000 C   0  0  0  0  0  0  0  0  0  0  0  0
    8.0622    4.4400    0.0000 C   0  0  0  0  0  0  0  0  0  0  0  0
    8.9282    2.9400    0.0000 C   0  0  0  0  0  0  0  0  0  0  0  0
    9.7942    5.4400    0.0000 C   0  0  0  0  0  0  0  0  0  0  0  0
   10.6603    3.9400    0.0000 C   0  0  0  0  0  0  0  0  0  0  0  0
   10.6603    5.9400    0.0000 C   0  0  0  0  0  0  0  0  0  0  0  0
   11.5263    4.4400    0.0000 C   0  0  0  0  0  0  0  0  0  0  0  0
   11.5263    5.4400    0.0000 C   0  0  0  0  0  0  0  0  0  0  0  0
   10.6603    6.9400    0.0000 C   0  0  0  0  0  0  0  0  0  0  0  0
    2.6540   -2.9774    0.0000 H   0  0  0  0  0  0  0  0  0  0  0  0
    2.2554   -3.6677    0.0000 H   0  0  0  0  0  0  0  0  0  0  0  0
    5.2087   -3.6677    0.0000 H   0  0  0  0  0  0  0  0  0  0  0  0
    4.8101   -2.9774    0.0000 H   0  0  0  0  0  0  0  0  0  0  0  0
    2.2554   -4.4523    0.0000 H   0  0  0  0  0  0  0  0  0  0  0  0
    2.6540   -5.1426    0.0000 H   0  0  0  0  0  0  0  0  0  0  0  0
    4.8101   -5.1426    0.0000 H   0  0  0  0  0  0  0  0  0  0  0  0
    5.2087   -4.4523    0.0000 H   0  0  0  0  0  0  0  0  0  0  0  0
    3.5200   -1.4774    0.0000 H   0  0  0  0  0  0  0  0  0  0  0  0
    3.1215   -2.1677    0.0000 H   0  0  0  0  0  0  0  0  0  0  0  0
    4.8101   -2.1426    0.0000 H   0  0  0  0  0  0  0  0  0  0  0  0
    5.2087   -1.4523    0.0000 H   0  0  0  0  0  0  0  0  0  0  0  0
    4.3860    0.0226    0.0000 H   0  0  0  0  0  0  0  0  0  0  0  0
    3.9875   -0.6677    0.0000 H   0  0  0  0  0  0  0  0  0  0  0  0
    5.6762   -0.6426    0.0000 H   0  0  0  0  0  0  0  0  0  0  0  0
    6.0747    0.0477    0.0000 H   0  0  0  0  0  0  0  0  0  0  0  0
    5.1350   -6.2500    0.0000 H   0  0  0  0  0  0  0  0  0  0  0  0
    5.1350   -7.8700    0.0000 H   0  0  0  0  0  0  0  0  0  0  0  0
    4.9272    1.2500    0.0000 H   0  0  0  0  0  0  0  0  0  0  0  0
    3.7320   -8.6800    0.0000 H   0  0  0  0  0  0  0  0  0  0  0  0
    6.6592    4.2500    0.0000 H   0  0  0  0  0  0  0  0  0  0  0  0
    8.0622    1.8200    0.0000 H   0  0  0  0  0  0  0  0  0  0  0  0
    8.0622    5.0600    0.0000 H   0  0  0  0  0  0  0  0  0  0  0  0
    9.4651    2.6300    0.0000 H   0  0  0  0  0  0  0  0  0  0  0  0
    9.2573    5.7500    0.0000 H   0  0  0  0  0  0  0  0  0  0  0  0
   10.6603    3.3200    0.0000 H   0  0  0  0  0  0  0  0  0  0  0  0
   12.0632    4.1300    0.0000 H   0  0  0  0  0  0  0  0  0  0  0  0
   12.0632    5.7500    0.0000 H   0  0  0  0  0  0  0  0  0  0  0  0
   11.5263    8.0600    0.0000 H   0  0  0  0  0  0  0  0  0  0  0  0
   12.0632    7.1300    0.0000 H   0  0  0  0  0  0  0  0  0  0  0  0
  1 19  1  0  0  0  0
  2 21  1  0  0  0  0
  3 24  1  0  0  0  0
  3 25  1  0  0  0  0
  4 24  2  0  0  0  0
  5 37  2  0  0  0  0
  6 10  1  0  0  0  0
  6 11  1  0  0  0  0
  6 14  1  0  0  0  0
  7 12  1  0  0  0  0
  7 13  1  0  0  0  0
  7 16  1  0  0  0  0
  8 18  1  0  0  0  0
  8 24  1  0  0  0  0
  8 56  1  0  0  0  0
  9 37  1  0  0  0  0
  9 66  1  0  0  0  0
  9 67  1  0  0  0  0
 10 12  1  0  0  0  0
 10 38  1  0  0  0  0
 10 39  1  0  0  0  0
 11 13  1  0  0  0  0
 11 40  1  0  0  0  0
 11 41  1  0  0  0  0
 12 42  1  0  0  0  0
 12 43  1  0  0  0  0
 13 44  1  0  0  0  0
 13 45  1  0  0  0  0
 14 15  1  0  0  0  0
 14 46  1  0  0  0  0
 14 47  1  0  0  0  0
 15 17  1  0  0  0  0
 15 48  1  0  0  0  0
 15 49  1  0  0  0  0
 16 19  2  0  0  0  0
 16 20  1  0  0  0  0
 17 18  1  0  0  0  0
 17 50  1  0  0  0  0
 17 51  1  0  0  0  0
 18 52  1  0  0  0  0
 18 53  1  0  0  0  0
 19 21  1  0  0  0  0
 20 22  2  0  0  0  0
 20 54  1  0  0  0  0
 21 23  2  0  0  0  0
 22 23  1  0  0  0  0
 22 55  1  0  0  0  0
 23 57  1  0  0  0  0
 25 27  2  0  0  0  0
 25 28  1  0  0  0  0
 26 29  1  0  0  0  0
 26 30  2  0  0  0  0
 26 31  1  0  0  0  0
 27 30  1  0  0  0  0
 27 58  1  0  0  0  0
 28 31  2  0  0  0  0
 28 59  1  0  0  0  0
 29 32  2  0  0  0  0
 29 33  1  0  0  0  0
 30 60  1  0  0  0  0
 31 61  1  0  0  0  0
 32 34  1  0  0  0  0
 32 62  1  0  0  0  0
 33 35  2  0  0  0  0
 33 63  1  0  0  0  0
 34 36  2  0  0  0  0
 34 37  1  0  0  0  0
 35 36  1  0  0  0  0
 35 64  1  0  0  0  0
 36 65  1  0  0  0  0
M  END
> <PUBCHEM_COMPOUND_CID>
90466574

> <PUBCHEM_COMPOUND_CANONICALIZED>
1

> <PUBCHEM_CACTVS_COMPLEXITY>
728

> <PUBCHEM_CACTVS_HBOND_ACCEPTOR>
5

> <PUBCHEM_CACTVS_HBOND_DONOR>
2

> <PUBCHEM_CACTVS_ROTATABLE_BOND>
10

> <PUBCHEM_CACTVS_SUBSKEYS>
AAADceB7sAAGAAAAAAAAAAAAAAAAAAAAAAA8YMEAAAAAAAABUAAAHgIQAAAADA7BmCQwzoPABACIAiVSWACCCAAlJwAIisEObskMZjLFt5vcMyhk1hHI6YeYyPCOoAACAAIAABRAAAQABAAAKAAAAAAAAA==

> <PUBCHEM_IUPAC_OPENEYE_NAME>
[4-(3-carbamoylphenyl)phenyl] N-[4-[4-(2,3-dichlorophenyl)piperazin-1-yl]butyl]carbamate

> <PUBCHEM_IUPAC_CAS_NAME>
N-[4-[4-(2,3-dichlorophenyl)-1-piperazinyl]butyl]carbamic acid [4-(3-carbamoylphenyl)phenyl] ester

> <PUBCHEM_IUPAC_NAME_MARKUP>
[4-(3-carbamoylphenyl)phenyl] <I>N</I>-[4-[4-(2,3-dichlorophenyl)piperazin-1-yl]butyl]carbamate

> <PUBCHEM_IUPAC_NAME>
[4-(3-carbamoylphenyl)phenyl] N-[4-[4-(2,3-dichlorophenyl)piperazin-1-yl]butyl]carbamate

> <PUBCHEM_IUPAC_SYSTEMATIC_NAME>
[4-(3-aminocarbonylphenyl)phenyl] N-[4-[4-[2,3-bis(chloranyl)phenyl]piperazin-1-yl]butyl]carbamate

> <PUBCHEM_IUPAC_TRADITIONAL_NAME>
N-[4-[4-(2,3-dichlorophenyl)piperazino]butyl]carbamic acid [4-(3-carbamoylphenyl)phenyl] ester

> <PUBCHEM_IUPAC_INCHI>
InChI=1S/C28H30Cl2N4O3/c29-24-7-4-8-25(26(24)30)34-17-15-33(16-18-34)14-2-1-13-32-28(36)37-23-11-9-20(10-12-23)21-5-3-6-22(19-21)27(31)35/h3-12,19H,1-2,13-18H2,(H2,31,35)(H,32,36)

> <PUBCHEM_IUPAC_INCHIKEY>
RMHUUXBXQCLMOK-UHFFFAOYSA-N

> <PUBCHEM_XLOGP3_AA>
5.6

> <PUBCHEM_EXACT_MASS>
540.1694962

> <PUBCHEM_MOLECULAR_FORMULA>
C28H30Cl2N4O3

> <PUBCHEM_MOLECULAR_WEIGHT>
541.5

> <PUBCHEM_OPENEYE_CAN_SMILES>
C1CN(CCN1CCCCNC(=O)OC2=CC=C(C=C2)C3=CC(=CC=C3)C(=O)N)C4=C(C(=CC=C4)Cl)Cl

> <PUBCHEM_OPENEYE_ISO_SMILES>
C1CN(CCN1CCCCNC(=O)OC2=CC=C(C=C2)C3=CC(=CC=C3)C(=O)N)C4=C(C(=CC=C4)Cl)Cl

> <PUBCHEM_CACTVS_TPSA>
87.9

> <PUBCHEM_MONOISOTOPIC_WEIGHT>
540.1694962

> <PUBCHEM_TOTAL_CHARGE>
0

> <PUBCHEM_HEAVY_ATOM_COUNT>
37

> <PUBCHEM_ATOM_DEF_STEREO_COUNT>
0

> <PUBCHEM_ATOM_UDEF_STEREO_COUNT>
0

> <PUBCHEM_BOND_DEF_STEREO_COUNT>
0

> <PUBCHEM_BOND_UDEF_STEREO_COUNT>
0

> <PUBCHEM_ISOTOPIC_ATOM_COUNT>
0

> <PUBCHEM_COMPONENT_COUNT>
1

> <PUBCHEM_CACTVS_TAUTO_COUNT>
-1

> <PUBCHEM_COORDINATE_TYPE>
1
5
255

> <PUBCHEM_BONDANNOTATIONS>
16  19  8
16  20  8
19  21  8
20  22  8
21  23  8
22  23  8
25  27  8
25  28  8
26  30  8
26  31  8
27  30  8
28  31  8
29  32  8
29  33  8
32  34  8
33  35  8
34  36  8
35  36  8

$$$$
