44412482
  -OEChem-09292322242D

 49 52  0     0  0  0  0  0  0999 V2000
    2.8660   -1.8512    0.0000 O   0  0  0  0  0  0  0  0  0  0  0  0
    4.5981    1.1488    0.0000 N   0  0  0  0  0  0  0  0  0  0  0  0
    4.5981   -0.8512    0.0000 N   0  0  0  0  0  0  0  0  0  0  0  0
    7.0468    2.9852    0.0000 N   0  0  0  0  0  0  0  0  0  0  0  0
    6.5468    3.8512    0.0000 N   0  0  0  0  0  0  0  0  0  0  0  0
    8.6291    3.6897    0.0000 N   0  0  0  0  0  0  0  0  0  0  0  0
    5.4641    0.6488    0.0000 C   0  0  0  0  0  0  0  0  0  0  0  0
    3.7320    0.6488    0.0000 C   0  0  0  0  0  0  0  0  0  0  0  0
    5.4641   -0.3512    0.0000 C   0  0  0  0  0  0  0  0  0  0  0  0
    3.7320   -0.3512    0.0000 C   0  0  0  0  0  0  0  0  0  0  0  0
    4.5981    2.1488    0.0000 C   0  0  0  0  0  0  0  0  0  0  0  0
    4.5981   -1.8512    0.0000 C   0  0  0  0  0  0  0  0  0  0  0  0
    5.4641    2.6488    0.0000 C   0  0  0  0  0  0  0  0  0  0  0  0
    3.7320   -2.3512    0.0000 C   0  0  0  0  0  0  0  0  0  0  0  0
    5.4641   -2.3512    0.0000 C   0  0  0  0  0  0  0  0  0  0  0  0
    6.3776    2.2420    0.0000 C   0  0  0  0  0  0  0  0  0  0  0  0
    5.5686    3.6433    0.0000 C   0  0  0  0  0  0  0  0  0  0  0  0
    3.7320   -3.3512    0.0000 C   0  0  0  0  0  0  0  0  0  0  0  0
    5.4641   -3.3512    0.0000 C   0  0  0  0  0  0  0  0  0  0  0  0
    4.5981   -3.8512    0.0000 C   0  0  0  0  0  0  0  0  0  0  0  0
    8.0413    2.8807    0.0000 C   0  0  0  0  0  0  0  0  0  0  0  0
    2.0000   -2.3512    0.0000 C   0  0  0  0  0  0  0  0  0  0  0  0
    8.4480    1.9671    0.0000 C   0  0  0  0  0  0  0  0  0  0  0  0
    9.4426    1.8626    0.0000 C   0  0  0  0  0  0  0  0  0  0  0  0
    9.6236    3.5852    0.0000 C   0  0  0  0  0  0  0  0  0  0  0  0
   10.0303    2.6716    0.0000 C   0  0  0  0  0  0  0  0  0  0  0  0
    6.0747    0.5411    0.0000 H   0  0  0  0  0  0  0  0  0  0  0  0
    5.6762    1.2314    0.0000 H   0  0  0  0  0  0  0  0  0  0  0  0
    3.5200    1.2314    0.0000 H   0  0  0  0  0  0  0  0  0  0  0  0
    3.1215    0.5411    0.0000 H   0  0  0  0  0  0  0  0  0  0  0  0
    5.6762   -0.9338    0.0000 H   0  0  0  0  0  0  0  0  0  0  0  0
    6.0747   -0.2436    0.0000 H   0  0  0  0  0  0  0  0  0  0  0  0
    3.1215   -0.2436    0.0000 H   0  0  0  0  0  0  0  0  0  0  0  0
    3.5200   -0.9338    0.0000 H   0  0  0  0  0  0  0  0  0  0  0  0
    4.3860    2.7314    0.0000 H   0  0  0  0  0  0  0  0  0  0  0  0
    3.9875    2.0411    0.0000 H   0  0  0  0  0  0  0  0  0  0  0  0
    6.0010   -2.0412    0.0000 H   0  0  0  0  0  0  0  0  0  0  0  0
    6.5066    1.6356    0.0000 H   0  0  0  0  0  0  0  0  0  0  0  0
    5.1079    4.0582    0.0000 H   0  0  0  0  0  0  0  0  0  0  0  0
    3.1951   -3.6612    0.0000 H   0  0  0  0  0  0  0  0  0  0  0  0
    6.0010   -3.6612    0.0000 H   0  0  0  0  0  0  0  0  0  0  0  0
    4.5981   -4.4712    0.0000 H   0  0  0  0  0  0  0  0  0  0  0  0
    1.6900   -1.8143    0.0000 H   0  0  0  0  0  0  0  0  0  0  0  0
    1.4631   -2.6612    0.0000 H   0  0  0  0  0  0  0  0  0  0  0  0
    2.3100   -2.8882    0.0000 H   0  0  0  0  0  0  0  0  0  0  0  0
    8.0836    1.4655    0.0000 H   0  0  0  0  0  0  0  0  0  0  0  0
    9.6947    1.2962    0.0000 H   0  0  0  0  0  0  0  0  0  0  0  0
    9.9880    4.0867    0.0000 H   0  0  0  0  0  0  0  0  0  0  0  0
   10.6469    2.6068    0.0000 H   0  0  0  0  0  0  0  0  0  0  0  0
  1 14  1  0  0  0  0
  1 22  1  0  0  0  0
  2  7  1  0  0  0  0
  2  8  1  0  0  0  0
  2 11  1  0  0  0  0
  3  9  1  0  0  0  0
  3 10  1  0  0  0  0
  3 12  1  0  0  0  0
  4  5  1  0  0  0  0
  4 16  1  0  0  0  0
  4 21  1  0  0  0  0
  5 17  2  0  0  0  0
  6 21  1  0  0  0  0
  6 25  2  0  0  0  0
  7  9  1  0  0  0  0
  7 27  1  0  0  0  0
  7 28  1  0  0  0  0
  8 10  1  0  0  0  0
  8 29  1  0  0  0  0
  8 30  1  0  0  0  0
  9 31  1  0  0  0  0
  9 32  1  0  0  0  0
 10 33  1  0  0  0  0
 10 34  1  0  0  0  0
 11 13  1  0  0  0  0
 11 35  1  0  0  0  0
 11 36  1  0  0  0  0
 12 14  1  0  0  0  0
 12 15  2  0  0  0  0
 13 16  2  0  0  0  0
 13 17  1  0  0  0  0
 14 18  2  0  0  0  0
 15 19  1  0  0  0  0
 15 37  1  0  0  0  0
 16 38  1  0  0  0  0
 17 39  1  0  0  0  0
 18 20  1  0  0  0  0
 18 40  1  0  0  0  0
 19 20  2  0  0  0  0
 19 41  1  0  0  0  0
 20 42  1  0  0  0  0
 21 23  2  0  0  0  0
 22 43  1  0  0  0  0
 22 44  1  0  0  0  0
 22 45  1  0  0  0  0
 23 24  1  0  0  0  0
 23 46  1  0  0  0  0
 24 26  2  0  0  0  0
 24 47  1  0  0  0  0
 25 26  1  0  0  0  0
 25 48  1  0  0  0  0
 26 49  1  0  0  0  0
M  END
> <PUBCHEM_COMPOUND_CID>
44412482

> <PUBCHEM_COMPOUND_CANONICALIZED>
1

> <PUBCHEM_CACTVS_COMPLEXITY>
428

> <PUBCHEM_CACTVS_HBOND_ACCEPTOR>
5

> <PUBCHEM_CACTVS_HBOND_DONOR>
0

> <PUBCHEM_CACTVS_ROTATABLE_BOND>
5

> <PUBCHEM_CACTVS_SUBSKEYS>
AAADceB7oAAAAAAAAAAAAAAAAAAAAWAAAAA8WIAAAAAAAAAB8AAAHgAIAAAADAzBmgY/9pMIFACiAjZnZACSjCkxoiAd2CA/bJiOZuLE+duVtChsyBPY6CeQQAAAAAAAAAAAEAAAAAAAAAAgAAAAAAAAAA==

> <PUBCHEM_IUPAC_OPENEYE_NAME>
1-(2-methoxyphenyl)-4-[[1-(2-pyridyl)pyrazol-4-yl]methyl]piperazine

> <PUBCHEM_IUPAC_CAS_NAME>
1-(2-methoxyphenyl)-4-[[1-(2-pyridinyl)-4-pyrazolyl]methyl]piperazine

> <PUBCHEM_IUPAC_NAME_MARKUP>
1-(2-methoxyphenyl)-4-[(1-pyridin-2-ylpyrazol-4-yl)methyl]piperazine

> <PUBCHEM_IUPAC_NAME>
1-(2-methoxyphenyl)-4-[(1-pyridin-2-ylpyrazol-4-yl)methyl]piperazine

> <PUBCHEM_IUPAC_SYSTEMATIC_NAME>
1-(2-methoxyphenyl)-4-[(1-pyridin-2-ylpyrazol-4-yl)methyl]piperazine

> <PUBCHEM_IUPAC_TRADITIONAL_NAME>
1-(2-methoxyphenyl)-4-[[1-(2-pyridyl)pyrazol-4-yl]methyl]piperazine

> <PUBCHEM_IUPAC_INCHI>
InChI=1S/C20H23N5O/c1-26-19-7-3-2-6-18(19)24-12-10-23(11-13-24)15-17-14-22-25(16-17)20-8-4-5-9-21-20/h2-9,14,16H,10-13,15H2,1H3

> <PUBCHEM_IUPAC_INCHIKEY>
BVXSVALQOFIYSP-UHFFFAOYSA-N

> <PUBCHEM_XLOGP3_AA>
2.6

> <PUBCHEM_EXACT_MASS>
349.19026037

> <PUBCHEM_MOLECULAR_FORMULA>
C20H23N5O

> <PUBCHEM_MOLECULAR_WEIGHT>
349.4

> <PUBCHEM_OPENEYE_CAN_SMILES>
COC1=CC=CC=C1N2CCN(CC2)CC3=CN(N=C3)C4=CC=CC=N4

> <PUBCHEM_OPENEYE_ISO_SMILES>
COC1=CC=CC=C1N2CCN(CC2)CC3=CN(N=C3)C4=CC=CC=N4

> <PUBCHEM_CACTVS_TPSA>
46.4

> <PUBCHEM_MONOISOTOPIC_WEIGHT>
349.19026037

> <PUBCHEM_TOTAL_CHARGE>
0

> <PUBCHEM_HEAVY_ATOM_COUNT>
26

> <PUBCHEM_ATOM_DEF_STEREO_COUNT>
0

> <PUBCHEM_ATOM_UDEF_STEREO_COUNT>
0

> <PUBCHEM_BOND_DEF_STEREO_COUNT>
0

> <PUBCHEM_BOND_UDEF_STEREO_COUNT>
0

> <PUBCHEM_ISOTOPIC_ATOM_COUNT>
0

> <PUBCHEM_COMPONENT_COUNT>
1

> <PUBCHEM_CACTVS_TAUTO_COUNT>
-1

> <PUBCHEM_COORDINATE_TYPE>
1
5
255

> <PUBCHEM_BONDANNOTATIONS>
12  14  8
12  15  8
13  16  8
13  17  8
14  18  8
15  19  8
18  20  8
19  20  8
21  23  8
23  24  8
24  26  8
25  26  8
4  16  8
4  5  8
5  17  8
6  21  8
6  25  8

$$$$
