166635312
  -OEChem-09292322442D

 71 74  0     0  0  0  0  0  0999 V2000
    9.7942   -3.6900    0.0000 O   0  0  0  0  0  0  0  0  0  0  0  0
    4.5981   -6.6900    0.0000 O   0  0  0  0  0  0  0  0  0  0  0  0
    2.8660    2.3100    0.0000 N   0  0  0  0  0  0  0  0  0  0  0  0
    2.8660    4.3100    0.0000 N   0  0  0  0  0  0  0  0  0  0  0  0
    4.5981   -1.6900    0.0000 N   0  0  0  0  0  0  0  0  0  0  0  0
    3.7320    2.8100    0.0000 C   0  0  0  0  0  0  0  0  0  0  0  0
    2.0000    2.8100    0.0000 C   0  0  0  0  0  0  0  0  0  0  0  0
    3.7320    3.8100    0.0000 C   0  0  0  0  0  0  0  0  0  0  0  0
    2.0000    3.8100    0.0000 C   0  0  0  0  0  0  0  0  0  0  0  0
    2.8660    1.3100    0.0000 C   0  0  0  0  0  0  0  0  0  0  0  0
    3.7320    0.8100    0.0000 C   0  0  0  0  0  0  0  0  0  0  0  0
    3.7320   -0.1900    0.0000 C   0  0  0  0  0  0  0  0  0  0  0  0
    2.8660    5.3100    0.0000 C   0  0  0  0  0  0  0  0  0  0  0  0
    4.5981   -0.6900    0.0000 C   0  0  0  0  0  0  0  0  0  0  0  0
    6.3301   -3.6900    0.0000 C   0  0  0  0  0  0  0  0  0  0  0  0
    5.4641   -3.1900    0.0000 C   0  0  0  0  0  0  0  0  0  0  0  0
    5.4641   -2.1900    0.0000 C   0  0  0  0  0  0  0  0  0  0  0  0
    7.1962   -3.1900    0.0000 C   0  0  0  0  0  0  0  0  0  0  0  0
    6.3301   -4.6900    0.0000 C   0  0  0  0  0  0  0  0  0  0  0  0
    3.7320    5.8100    0.0000 C   0  0  0  0  0  0  0  0  0  0  0  0
    2.0000    5.8100    0.0000 C   0  0  0  0  0  0  0  0  0  0  0  0
    3.7320    6.8100    0.0000 C   0  0  0  0  0  0  0  0  0  0  0  0
    2.0000    6.8100    0.0000 C   0  0  0  0  0  0  0  0  0  0  0  0
    8.0622   -3.6900    0.0000 C   0  0  0  0  0  0  0  0  0  0  0  0
    5.4641   -5.1900    0.0000 C   0  0  0  0  0  0  0  0  0  0  0  0
    7.1962   -2.1900    0.0000 C   0  0  0  0  0  0  0  0  0  0  0  0
    7.1962   -5.1900    0.0000 C   0  0  0  0  0  0  0  0  0  0  0  0
    2.8660    7.3100    0.0000 C   0  0  0  0  0  0  0  0  0  0  0  0
    8.9282   -3.1900    0.0000 C   0  0  0  0  0  0  0  0  0  0  0  0
    5.4641   -6.1900    0.0000 C   0  0  0  0  0  0  0  0  0  0  0  0
    8.0622   -1.6900    0.0000 C   0  0  0  0  0  0  0  0  0  0  0  0
    7.1962   -6.1900    0.0000 C   0  0  0  0  0  0  0  0  0  0  0  0
    8.9282   -2.1900    0.0000 C   0  0  0  0  0  0  0  0  0  0  0  0
    6.3301   -6.6900    0.0000 C   0  0  0  0  0  0  0  0  0  0  0  0
    3.9441    2.2274    0.0000 H   0  0  0  0  0  0  0  0  0  0  0  0
    4.3426    2.9177    0.0000 H   0  0  0  0  0  0  0  0  0  0  0  0
    1.3894    2.9177    0.0000 H   0  0  0  0  0  0  0  0  0  0  0  0
    1.7880    2.2274    0.0000 H   0  0  0  0  0  0  0  0  0  0  0  0
    4.3426    3.7023    0.0000 H   0  0  0  0  0  0  0  0  0  0  0  0
    3.9441    4.3926    0.0000 H   0  0  0  0  0  0  0  0  0  0  0  0
    1.7880    4.3926    0.0000 H   0  0  0  0  0  0  0  0  0  0  0  0
    1.3894    3.7023    0.0000 H   0  0  0  0  0  0  0  0  0  0  0  0
    2.2554    1.4177    0.0000 H   0  0  0  0  0  0  0  0  0  0  0  0
    2.6540    0.7274    0.0000 H   0  0  0  0  0  0  0  0  0  0  0  0
    4.3426    0.7023    0.0000 H   0  0  0  0  0  0  0  0  0  0  0  0
    3.9441    1.3926    0.0000 H   0  0  0  0  0  0  0  0  0  0  0  0
    3.1215   -0.0823    0.0000 H   0  0  0  0  0  0  0  0  0  0  0  0
    3.5200   -0.7726    0.0000 H   0  0  0  0  0  0  0  0  0  0  0  0
    5.2087   -0.7977    0.0000 H   0  0  0  0  0  0  0  0  0  0  0  0
    4.8101   -0.1074    0.0000 H   0  0  0  0  0  0  0  0  0  0  0  0
    5.7932   -4.0000    0.0000 H   0  0  0  0  0  0  0  0  0  0  0  0
    4.8535   -3.0823    0.0000 H   0  0  0  0  0  0  0  0  0  0  0  0
    5.2520   -3.7726    0.0000 H   0  0  0  0  0  0  0  0  0  0  0  0
    6.0747   -2.2977    0.0000 H   0  0  0  0  0  0  0  0  0  0  0  0
    5.6762   -1.6074    0.0000 H   0  0  0  0  0  0  0  0  0  0  0  0
    4.0611   -2.0000    0.0000 H   0  0  0  0  0  0  0  0  0  0  0  0
    4.2690    5.5000    0.0000 H   0  0  0  0  0  0  0  0  0  0  0  0
    1.4631    5.5000    0.0000 H   0  0  0  0  0  0  0  0  0  0  0  0
    4.2690    7.1200    0.0000 H   0  0  0  0  0  0  0  0  0  0  0  0
    1.4631    7.1200    0.0000 H   0  0  0  0  0  0  0  0  0  0  0  0
    8.0622   -4.3100    0.0000 H   0  0  0  0  0  0  0  0  0  0  0  0
    4.9272   -4.8800    0.0000 H   0  0  0  0  0  0  0  0  0  0  0  0
    6.6592   -1.8800    0.0000 H   0  0  0  0  0  0  0  0  0  0  0  0
    7.7331   -4.8800    0.0000 H   0  0  0  0  0  0  0  0  0  0  0  0
    2.8660    7.9300    0.0000 H   0  0  0  0  0  0  0  0  0  0  0  0
    8.0622   -1.0700    0.0000 H   0  0  0  0  0  0  0  0  0  0  0  0
    7.7331   -6.5000    0.0000 H   0  0  0  0  0  0  0  0  0  0  0  0
    9.4651   -1.8800    0.0000 H   0  0  0  0  0  0  0  0  0  0  0  0
    6.3301   -7.3100    0.0000 H   0  0  0  0  0  0  0  0  0  0  0  0
   10.3312   -3.3800    0.0000 H   0  0  0  0  0  0  0  0  0  0  0  0
    4.5981   -7.3100    0.0000 H   0  0  0  0  0  0  0  0  0  0  0  0
  1 29  1  0  0  0  0
  1 70  1  0  0  0  0
  2 30  1  0  0  0  0
  2 71  1  0  0  0  0
  3  6  1  0  0  0  0
  3  7  1  0  0  0  0
  3 10  1  0  0  0  0
  4  8  1  0  0  0  0
  4  9  1  0  0  0  0
  4 13  1  0  0  0  0
  5 14  1  0  0  0  0
  5 17  1  0  0  0  0
  5 56  1  0  0  0  0
  6  8  1  0  0  0  0
  6 35  1  0  0  0  0
  6 36  1  0  0  0  0
  7  9  1  0  0  0  0
  7 37  1  0  0  0  0
  7 38  1  0  0  0  0
  8 39  1  0  0  0  0
  8 40  1  0  0  0  0
  9 41  1  0  0  0  0
  9 42  1  0  0  0  0
 10 11  1  0  0  0  0
 10 43  1  0  0  0  0
 10 44  1  0  0  0  0
 11 12  1  0  0  0  0
 11 45  1  0  0  0  0
 11 46  1  0  0  0  0
 12 14  1  0  0  0  0
 12 47  1  0  0  0  0
 12 48  1  0  0  0  0
 13 20  2  0  0  0  0
 13 21  1  0  0  0  0
 14 49  1  0  0  0  0
 14 50  1  0  0  0  0
 15 16  1  0  0  0  0
 15 18  1  0  0  0  0
 15 19  1  0  0  0  0
 15 51  1  0  0  0  0
 16 17  1  0  0  0  0
 16 52  1  0  0  0  0
 16 53  1  0  0  0  0
 17 54  1  0  0  0  0
 17 55  1  0  0  0  0
 18 24  2  0  0  0  0
 18 26  1  0  0  0  0
 19 25  2  0  0  0  0
 19 27  1  0  0  0  0
 20 22  1  0  0  0  0
 20 57  1  0  0  0  0
 21 23  2  0  0  0  0
 21 58  1  0  0  0  0
 22 28  2  0  0  0  0
 22 59  1  0  0  0  0
 23 28  1  0  0  0  0
 23 60  1  0  0  0  0
 24 29  1  0  0  0  0
 24 61  1  0  0  0  0
 25 30  1  0  0  0  0
 25 62  1  0  0  0  0
 26 31  2  0  0  0  0
 26 63  1  0  0  0  0
 27 32  2  0  0  0  0
 27 64  1  0  0  0  0
 28 65  1  0  0  0  0
 29 33  2  0  0  0  0
 30 34  2  0  0  0  0
 31 33  1  0  0  0  0
 31 66  1  0  0  0  0
 32 34  1  0  0  0  0
 32 67  1  0  0  0  0
 33 68  1  0  0  0  0
 34 69  1  0  0  0  0
M  END
> <PUBCHEM_COMPOUND_CID>
166635312

> <PUBCHEM_COMPOUND_CANONICALIZED>
1

> <PUBCHEM_CACTVS_COMPLEXITY>
526

> <PUBCHEM_CACTVS_HBOND_ACCEPTOR>
5

> <PUBCHEM_CACTVS_HBOND_DONOR>
3

> <PUBCHEM_CACTVS_ROTATABLE_BOND>
11

> <PUBCHEM_CACTVS_SUBSKEYS>
AAADcfB7MAAAAAAAAAAAAAAAAAAAAAAAAAA8YMEAAAAAAAABUAAAHgAQCAAADQzBmAQwxoPAAgCAAiRCQACCAAAhIgAIiIAObIgIZiLCkZOUcAhk0BHI2AeQwPAOgAABAAAAAAAAAAIAAAAAAAAAAAAAAA==

> <PUBCHEM_IUPAC_OPENEYE_NAME>
3-[1-(3-hydroxyphenyl)-3-[4-(4-phenylpiperazin-1-yl)butylamino]propyl]phenol

> <PUBCHEM_IUPAC_CAS_NAME>
3-[1-(3-hydroxyphenyl)-3-[4-(4-phenyl-1-piperazinyl)butylamino]propyl]phenol

> <PUBCHEM_IUPAC_NAME_MARKUP>
3-[1-(3-hydroxyphenyl)-3-[4-(4-phenylpiperazin-1-yl)butylamino]propyl]phenol

> <PUBCHEM_IUPAC_NAME>
3-[1-(3-hydroxyphenyl)-3-[4-(4-phenylpiperazin-1-yl)butylamino]propyl]phenol

> <PUBCHEM_IUPAC_SYSTEMATIC_NAME>
3-[1-(3-hydroxyphenyl)-3-[4-(4-phenylpiperazin-1-yl)butylamino]propyl]phenol

> <PUBCHEM_IUPAC_TRADITIONAL_NAME>
3-[1-(3-hydroxyphenyl)-3-[4-(4-phenylpiperazino)butylamino]propyl]phenol

> <PUBCHEM_IUPAC_INCHI>
InChI=1S/C29H37N3O2/c33-27-12-6-8-24(22-27)29(25-9-7-13-28(34)23-25)14-16-30-15-4-5-17-31-18-20-32(21-19-31)26-10-2-1-3-11-26/h1-3,6-13,22-23,29-30,33-34H,4-5,14-21H2

> <PUBCHEM_IUPAC_INCHIKEY>
NXIPJCMKQNCCQK-UHFFFAOYSA-N

> <PUBCHEM_XLOGP3_AA>
5.2

> <PUBCHEM_EXACT_MASS>
459.28857743

> <PUBCHEM_MOLECULAR_FORMULA>
C29H37N3O2

> <PUBCHEM_MOLECULAR_WEIGHT>
459.6

> <PUBCHEM_OPENEYE_CAN_SMILES>
C1CN(CCN1CCCCNCCC(C2=CC(=CC=C2)O)C3=CC(=CC=C3)O)C4=CC=CC=C4

> <PUBCHEM_OPENEYE_ISO_SMILES>
C1CN(CCN1CCCCNCCC(C2=CC(=CC=C2)O)C3=CC(=CC=C3)O)C4=CC=CC=C4

> <PUBCHEM_CACTVS_TPSA>
59

> <PUBCHEM_MONOISOTOPIC_WEIGHT>
459.28857743

> <PUBCHEM_TOTAL_CHARGE>
0

> <PUBCHEM_HEAVY_ATOM_COUNT>
34

> <PUBCHEM_ATOM_DEF_STEREO_COUNT>
0

> <PUBCHEM_ATOM_UDEF_STEREO_COUNT>
0

> <PUBCHEM_BOND_DEF_STEREO_COUNT>
0

> <PUBCHEM_BOND_UDEF_STEREO_COUNT>
0

> <PUBCHEM_ISOTOPIC_ATOM_COUNT>
0

> <PUBCHEM_COMPONENT_COUNT>
1

> <PUBCHEM_CACTVS_TAUTO_COUNT>
-1

> <PUBCHEM_COORDINATE_TYPE>
1
5
255

> <PUBCHEM_BONDANNOTATIONS>
13  20  8
13  21  8
18  24  8
18  26  8
19  25  8
19  27  8
20  22  8
21  23  8
22  28  8
23  28  8
24  29  8
25  30  8
26  31  8
27  32  8
29  33  8
30  34  8
31  33  8
32  34  8

$$$$
