132525569
  -OEChem-09292322382D

 40 42  0     0  0  0  0  0  0999 V2000
    2.5000   -2.2024    0.0000 O   0  0  0  0  0  0  0  0  0  0  0  0
    7.0468   -1.0000    0.0000 N   0  0  0  0  0  0  0  0  0  0  0  0
    8.7788   -2.0000    0.0000 N   0  0  0  0  0  0  0  0  0  0  0  0
    6.1808    0.5000    0.0000 N   0  0  0  0  0  0  0  0  0  0  0  0
    5.3147   -1.0000    0.0000 N   0  0  0  0  0  0  0  0  0  0  0  0
    7.0468   -2.0000    0.0000 C   0  0  0  0  0  0  0  0  0  0  0  0
    7.9128   -0.5000    0.0000 C   0  0  0  0  0  0  0  0  0  0  0  0
    7.9128   -2.5000    0.0000 C   0  0  0  0  0  0  0  0  0  0  0  0
    8.7788   -1.0000    0.0000 C   0  0  0  0  0  0  0  0  0  0  0  0
    6.1808   -0.5000    0.0000 C   0  0  0  0  0  0  0  0  0  0  0  0
    9.6448   -2.5000    0.0000 C   0  0  0  0  0  0  0  0  0  0  0  0
    5.3147    1.0000    0.0000 C   0  0  0  0  0  0  0  0  0  0  0  0
    4.4487   -0.5000    0.0000 C   0  0  0  0  0  0  0  0  0  0  0  0
    4.4487    0.5000    0.0000 C   0  0  0  0  0  0  0  0  0  0  0  0
    5.3147    2.0000    0.0000 C   0  0  0  0  0  0  0  0  0  0  0  0
    3.5827   -1.0000    0.0000 C   0  0  0  0  0  0  0  0  0  0  0  0
    4.4487    2.5000    0.0000 C   0  0  0  0  0  0  0  0  0  0  0  0
    2.6691   -0.5933    0.0000 C   0  0  0  0  0  0  0  0  0  0  0  0
    3.4782   -1.9945    0.0000 C   0  0  0  0  0  0  0  0  0  0  0  0
    2.0000   -1.3364    0.0000 C   0  0  0  0  0  0  0  0  0  0  0  0
    6.4362   -1.8923    0.0000 H   0  0  0  0  0  0  0  0  0  0  0  0
    6.8347   -2.5826    0.0000 H   0  0  0  0  0  0  0  0  0  0  0  0
    8.3113   -0.0251    0.0000 H   0  0  0  0  0  0  0  0  0  0  0  0
    7.5143   -0.0251    0.0000 H   0  0  0  0  0  0  0  0  0  0  0  0
    7.5143   -2.9750    0.0000 H   0  0  0  0  0  0  0  0  0  0  0  0
    8.3113   -2.9750    0.0000 H   0  0  0  0  0  0  0  0  0  0  0  0
    9.3894   -1.1077    0.0000 H   0  0  0  0  0  0  0  0  0  0  0  0
    8.9909   -0.4174    0.0000 H   0  0  0  0  0  0  0  0  0  0  0  0
    9.3348   -3.0369    0.0000 H   0  0  0  0  0  0  0  0  0  0  0  0
   10.1818   -2.8100    0.0000 H   0  0  0  0  0  0  0  0  0  0  0  0
    9.9548   -1.9631    0.0000 H   0  0  0  0  0  0  0  0  0  0  0  0
    3.9118    0.8100    0.0000 H   0  0  0  0  0  0  0  0  0  0  0  0
    5.9253    1.8923    0.0000 H   0  0  0  0  0  0  0  0  0  0  0  0
    5.5268    2.5826    0.0000 H   0  0  0  0  0  0  0  0  0  0  0  0
    4.7587    3.0369    0.0000 H   0  0  0  0  0  0  0  0  0  0  0  0
    3.9118    2.8100    0.0000 H   0  0  0  0  0  0  0  0  0  0  0  0
    4.1387    1.9631    0.0000 H   0  0  0  0  0  0  0  0  0  0  0  0
    2.5402    0.0132    0.0000 H   0  0  0  0  0  0  0  0  0  0  0  0
    3.9389   -2.4094    0.0000 H   0  0  0  0  0  0  0  0  0  0  0  0
    1.3834   -1.2716    0.0000 H   0  0  0  0  0  0  0  0  0  0  0  0
  1 19  1  0  0  0  0
  1 20  1  0  0  0  0
  2  6  1  0  0  0  0
  2  7  1  0  0  0  0
  2 10  1  0  0  0  0
  3  8  1  0  0  0  0
  3  9  1  0  0  0  0
  3 11  1  0  0  0  0
  4 10  2  0  0  0  0
  4 12  1  0  0  0  0
  5 10  1  0  0  0  0
  5 13  2  0  0  0  0
  6  8  1  0  0  0  0
  6 21  1  0  0  0  0
  6 22  1  0  0  0  0
  7  9  1  0  0  0  0
  7 23  1  0  0  0  0
  7 24  1  0  0  0  0
  8 25  1  0  0  0  0
  8 26  1  0  0  0  0
  9 27  1  0  0  0  0
  9 28  1  0  0  0  0
 11 29  1  0  0  0  0
 11 30  1  0  0  0  0
 11 31  1  0  0  0  0
 12 14  2  0  0  0  0
 12 15  1  0  0  0  0
 13 14  1  0  0  0  0
 13 16  1  0  0  0  0
 14 32  1  0  0  0  0
 15 17  1  0  0  0  0
 15 33  1  0  0  0  0
 15 34  1  0  0  0  0
 16 18  1  0  0  0  0
 16 19  2  0  0  0  0
 17 35  1  0  0  0  0
 17 36  1  0  0  0  0
 17 37  1  0  0  0  0
 18 20  2  0  0  0  0
 18 38  1  0  0  0  0
 19 39  1  0  0  0  0
 20 40  1  0  0  0  0
M  END
> <PUBCHEM_COMPOUND_CID>
132525569

> <PUBCHEM_COMPOUND_CANONICALIZED>
1

> <PUBCHEM_CACTVS_COMPLEXITY>
306

> <PUBCHEM_CACTVS_HBOND_ACCEPTOR>
5

> <PUBCHEM_CACTVS_HBOND_DONOR>
0

> <PUBCHEM_CACTVS_ROTATABLE_BOND>
3

> <PUBCHEM_CACTVS_SUBSKEYS>
AAADceBzoAAAAAAAAAAAAAAAAAAAASAAAAAsWAAAAAAAAAAB4AAAHgAAAAAADAjhngYzlJcIFECoAyxy5ACCiCklIqAJmCE+bNiMbrrE/duWPSjuwBPI6ae82eOeAAAAAAAAAAAAAAAAAAAAAAAAAAAAAA==

> <PUBCHEM_IUPAC_OPENEYE_NAME>
4-ethyl-6-(3-furyl)-2-(4-methylpiperazin-1-yl)pyrimidine

> <PUBCHEM_IUPAC_CAS_NAME>
4-ethyl-6-(3-furanyl)-2-(4-methyl-1-piperazinyl)pyrimidine

> <PUBCHEM_IUPAC_NAME_MARKUP>
4-ethyl-6-(furan-3-yl)-2-(4-methylpiperazin-1-yl)pyrimidine

> <PUBCHEM_IUPAC_NAME>
4-ethyl-6-(furan-3-yl)-2-(4-methylpiperazin-1-yl)pyrimidine

> <PUBCHEM_IUPAC_SYSTEMATIC_NAME>
4-ethyl-6-(furan-3-yl)-2-(4-methylpiperazin-1-yl)pyrimidine

> <PUBCHEM_IUPAC_TRADITIONAL_NAME>
4-ethyl-6-(3-furyl)-2-(4-methylpiperazino)pyrimidine

> <PUBCHEM_IUPAC_INCHI>
InChI=1S/C15H20N4O/c1-3-13-10-14(12-4-9-20-11-12)17-15(16-13)19-7-5-18(2)6-8-19/h4,9-11H,3,5-8H2,1-2H3

> <PUBCHEM_IUPAC_INCHIKEY>
GOZPYYFAYISDDO-UHFFFAOYSA-N

> <PUBCHEM_XLOGP3_AA>
2

> <PUBCHEM_EXACT_MASS>
272.16371127

> <PUBCHEM_MOLECULAR_FORMULA>
C15H20N4O

> <PUBCHEM_MOLECULAR_WEIGHT>
272.35

> <PUBCHEM_OPENEYE_CAN_SMILES>
CCC1=CC(=NC(=N1)N2CCN(CC2)C)C3=COC=C3

> <PUBCHEM_OPENEYE_ISO_SMILES>
CCC1=CC(=NC(=N1)N2CCN(CC2)C)C3=COC=C3

> <PUBCHEM_CACTVS_TPSA>
45.4

> <PUBCHEM_MONOISOTOPIC_WEIGHT>
272.16371127

> <PUBCHEM_TOTAL_CHARGE>
0

> <PUBCHEM_HEAVY_ATOM_COUNT>
20

> <PUBCHEM_ATOM_DEF_STEREO_COUNT>
0

> <PUBCHEM_ATOM_UDEF_STEREO_COUNT>
0

> <PUBCHEM_BOND_DEF_STEREO_COUNT>
0

> <PUBCHEM_BOND_UDEF_STEREO_COUNT>
0

> <PUBCHEM_ISOTOPIC_ATOM_COUNT>
0

> <PUBCHEM_COMPONENT_COUNT>
1

> <PUBCHEM_CACTVS_TAUTO_COUNT>
-1

> <PUBCHEM_COORDINATE_TYPE>
1
5
255

> <PUBCHEM_BONDANNOTATIONS>
1  19  8
1  20  8
12  14  8
13  14  8
16  18  8
16  19  8
18  20  8
4  10  8
4  12  8
5  10  8
5  13  8

$$$$
