95882507
  -OEChem-09292322452D

 44 47  0     1  0  0  0  0  0999 V2000
    5.4641   -0.6193    0.0000 N   0  0  3  0  0  0  0  0  0  0  0  0
    4.3763   -2.9672    0.0000 N   0  0  0  0  0  0  0  0  0  0  0  0
    6.3301    0.8807    0.0000 N   0  0  0  0  0  0  0  0  0  0  0  0
    7.2764    0.5760    0.0000 N   0  0  0  0  0  0  0  0  0  0  0  0
    5.4641    2.3807    0.0000 N   0  0  0  0  0  0  0  0  0  0  0  0
    4.9641   -2.1581    0.0000 C   0  0  2  0  0  0  0  0  0  0  0  0
    5.9641   -2.1581    0.0000 C   0  0  0  0  0  0  0  0  0  0  0  0
    4.6551   -1.2071    0.0000 C   0  0  0  0  0  0  0  0  0  0  0  0
    6.2731   -1.2071    0.0000 C   0  0  0  0  0  0  0  0  0  0  0  0
    5.4641    0.3807    0.0000 C   0  0  0  0  0  0  0  0  0  0  0  0
    4.7830   -3.8807    0.0000 C   0  0  0  0  0  0  0  0  0  0  0  0
    3.3818   -2.8626    0.0000 C   0  0  0  0  0  0  0  0  0  0  0  0
    4.5981    0.8807    0.0000 C   0  0  0  0  0  0  0  0  0  0  0  0
    6.3301    1.8807    0.0000 C   0  0  0  0  0  0  0  0  0  0  0  0
    4.5981    1.8807    0.0000 C   0  0  0  0  0  0  0  0  0  0  0  0
    7.2764    2.1854    0.0000 C   0  0  0  0  0  0  0  0  0  0  0  0
    3.7320    2.3807    0.0000 C   0  0  0  0  0  0  0  0  0  0  0  0
    7.8600    1.3807    0.0000 C   0  0  0  0  0  0  0  0  0  0  0  0
    3.7320    3.3807    0.0000 C   0  0  0  0  0  0  0  0  0  0  0  0
    2.8660    1.8807    0.0000 C   0  0  0  0  0  0  0  0  0  0  0  0
    2.8660    3.8807    0.0000 C   0  0  0  0  0  0  0  0  0  0  0  0
    2.0000    2.3807    0.0000 C   0  0  0  0  0  0  0  0  0  0  0  0
    2.0000    3.3807    0.0000 C   0  0  0  0  0  0  0  0  0  0  0  0
    5.2456   -2.7106    0.0000 H   0  0  0  0  0  0  0  0  0  0  0  0
    5.8993   -2.7747    0.0000 H   0  0  0  0  0  0  0  0  0  0  0  0
    6.5706   -2.2870    0.0000 H   0  0  0  0  0  0  0  0  0  0  0  0
    4.3451   -0.6701    0.0000 H   0  0  0  0  0  0  0  0  0  0  0  0
    4.0887   -1.4593    0.0000 H   0  0  0  0  0  0  0  0  0  0  0  0
    6.8395   -1.4593    0.0000 H   0  0  0  0  0  0  0  0  0  0  0  0
    6.5831   -0.6701    0.0000 H   0  0  0  0  0  0  0  0  0  0  0  0
    4.2166   -4.1329    0.0000 H   0  0  0  0  0  0  0  0  0  0  0  0
    5.0352   -4.4471    0.0000 H   0  0  0  0  0  0  0  0  0  0  0  0
    5.3494   -3.6285    0.0000 H   0  0  0  0  0  0  0  0  0  0  0  0
    3.4466   -2.2460    0.0000 H   0  0  0  0  0  0  0  0  0  0  0  0
    2.7652   -2.7978    0.0000 H   0  0  0  0  0  0  0  0  0  0  0  0
    3.3170   -3.4792    0.0000 H   0  0  0  0  0  0  0  0  0  0  0  0
    4.0611    0.5707    0.0000 H   0  0  0  0  0  0  0  0  0  0  0  0
    7.4690    2.7748    0.0000 H   0  0  0  0  0  0  0  0  0  0  0  0
    8.4800    1.3807    0.0000 H   0  0  0  0  0  0  0  0  0  0  0  0
    4.2690    3.6907    0.0000 H   0  0  0  0  0  0  0  0  0  0  0  0
    2.8660    1.2607    0.0000 H   0  0  0  0  0  0  0  0  0  0  0  0
    2.8660    4.5007    0.0000 H   0  0  0  0  0  0  0  0  0  0  0  0
    1.4631    2.0707    0.0000 H   0  0  0  0  0  0  0  0  0  0  0  0
    1.4631    3.6907    0.0000 H   0  0  0  0  0  0  0  0  0  0  0  0
  1  8  1  0  0  0  0
  1  9  1  0  0  0  0
  1 10  1  0  0  0  0
  6  2  1  1  0  0  0
  2 11  1  0  0  0  0
  2 12  1  0  0  0  0
  3  4  1  0  0  0  0
  3 10  1  0  0  0  0
  3 14  1  0  0  0  0
  4 18  2  0  0  0  0
  5 14  1  0  0  0  0
  5 15  2  0  0  0  0
  6  7  1  0  0  0  0
  6  8  1  0  0  0  0
  6 24  1  0  0  0  0
  7  9  1  0  0  0  0
  7 25  1  0  0  0  0
  7 26  1  0  0  0  0
  8 27  1  0  0  0  0
  8 28  1  0  0  0  0
  9 29  1  0  0  0  0
  9 30  1  0  0  0  0
 10 13  2  0  0  0  0
 11 31  1  0  0  0  0
 11 32  1  0  0  0  0
 11 33  1  0  0  0  0
 12 34  1  0  0  0  0
 12 35  1  0  0  0  0
 12 36  1  0  0  0  0
 13 15  1  0  0  0  0
 13 37  1  0  0  0  0
 14 16  2  0  0  0  0
 15 17  1  0  0  0  0
 16 18  1  0  0  0  0
 16 38  1  0  0  0  0
 17 19  2  0  0  0  0
 17 20  1  0  0  0  0
 18 39  1  0  0  0  0
 19 21  1  0  0  0  0
 19 40  1  0  0  0  0
 20 22  2  0  0  0  0
 20 41  1  0  0  0  0
 21 23  2  0  0  0  0
 21 42  1  0  0  0  0
 22 23  1  0  0  0  0
 22 43  1  0  0  0  0
 23 44  1  0  0  0  0
M  END
> <PUBCHEM_COMPOUND_CID>
95882507

> <PUBCHEM_COMPOUND_CANONICALIZED>
1

> <PUBCHEM_CACTVS_COMPLEXITY>
395

> <PUBCHEM_CACTVS_HBOND_ACCEPTOR>
4

> <PUBCHEM_CACTVS_HBOND_DONOR>
0

> <PUBCHEM_CACTVS_ROTATABLE_BOND>
3

> <PUBCHEM_CACTVS_SUBSKEYS>
AAADceB7gAAAAAAAAAAAAAAAAAAAAWLAAAA8QAAAAAAAAFgB8AAAHAAIAAAADCjBHwQ/sJ8IEACiAzZnZACShCshgqAdmCA4ZJiIaOLA2dGUpAhoiALIyCcQgIAOAAAAAAAAAAAAAAAAAAAAAAAAAAAAAA==

> <PUBCHEM_IUPAC_OPENEYE_NAME>
(3R)-N,N-dimethyl-1-(5-phenylpyrazolo[1,5-a]pyrimidin-7-yl)pyrrolidin-3-amine

> <PUBCHEM_IUPAC_CAS_NAME>
(3R)-N,N-dimethyl-1-(5-phenyl-7-pyrazolo[1,5-a]pyrimidinyl)-3-pyrrolidinamine

> <PUBCHEM_IUPAC_NAME_MARKUP>
(3<I>R</I>)-<I>N</I>,<I>N</I>-dimethyl-1-(5-phenylpyrazolo[1,5-a]pyrimidin-7-yl)pyrrolidin-3-amine

> <PUBCHEM_IUPAC_NAME>
(3R)-N,N-dimethyl-1-(5-phenylpyrazolo[1,5-a]pyrimidin-7-yl)pyrrolidin-3-amine

> <PUBCHEM_IUPAC_SYSTEMATIC_NAME>
(3R)-N,N-dimethyl-1-(5-phenylpyrazolo[1,5-a]pyrimidin-7-yl)pyrrolidin-3-amine

> <PUBCHEM_IUPAC_TRADITIONAL_NAME>
dimethyl-[(3R)-1-(5-phenylpyrazolo[1,5-a]pyrimidin-7-yl)pyrrolidin-3-yl]amine

> <PUBCHEM_IUPAC_INCHI>
InChI=1S/C18H21N5/c1-21(2)15-9-11-22(13-15)18-12-16(14-6-4-3-5-7-14)20-17-8-10-19-23(17)18/h3-8,10,12,15H,9,11,13H2,1-2H3/t15-/m1/s1

> <PUBCHEM_IUPAC_INCHIKEY>
XKBSPAZCFAIBJL-OAHLLOKOSA-N

> <PUBCHEM_XLOGP3_AA>
2.7

> <PUBCHEM_EXACT_MASS>
307.17969569

> <PUBCHEM_MOLECULAR_FORMULA>
C18H21N5

> <PUBCHEM_MOLECULAR_WEIGHT>
307.4

> <PUBCHEM_OPENEYE_CAN_SMILES>
CN(C)C1CCN(C1)C2=CC(=NC3=CC=NN32)C4=CC=CC=C4

> <PUBCHEM_OPENEYE_ISO_SMILES>
CN(C)[C@@H]1CCN(C1)C2=CC(=NC3=CC=NN32)C4=CC=CC=C4

> <PUBCHEM_CACTVS_TPSA>
36.7

> <PUBCHEM_MONOISOTOPIC_WEIGHT>
307.17969569

> <PUBCHEM_TOTAL_CHARGE>
0

> <PUBCHEM_HEAVY_ATOM_COUNT>
23

> <PUBCHEM_ATOM_DEF_STEREO_COUNT>
1

> <PUBCHEM_ATOM_UDEF_STEREO_COUNT>
0

> <PUBCHEM_BOND_DEF_STEREO_COUNT>
0

> <PUBCHEM_BOND_UDEF_STEREO_COUNT>
0

> <PUBCHEM_ISOTOPIC_ATOM_COUNT>
0

> <PUBCHEM_COMPONENT_COUNT>
1

> <PUBCHEM_CACTVS_TAUTO_COUNT>
-1

> <PUBCHEM_COORDINATE_TYPE>
1
5
255

> <PUBCHEM_BONDANNOTATIONS>
10  13  8
13  15  8
14  16  8
16  18  8
17  19  8
17  20  8
19  21  8
6  2  5
20  22  8
21  23  8
22  23  8
3  10  8
3  14  8
3  4  8
4  18  8
5  14  8
5  15  8

$$$$
