11338272
  -OEChem-09292322522D

 52 54  0     0  0  0  0  0  0999 V2000
    9.0981    4.5000    0.0000 Cl  0  0  0  0  0  0  0  0  0  0  0  0
    2.8660   -5.3660    0.0000 F   0  0  0  0  0  0  0  0  0  0  0  0
    4.0981    4.5000    0.0000 O   0  0  0  0  0  0  0  0  0  0  0  0
    2.0000   -0.8660    0.0000 O   0  0  0  0  0  0  0  0  0  0  0  0
    4.5981    1.6340    0.0000 N   0  0  0  0  0  0  0  0  0  0  0  0
    4.5981    3.6340    0.0000 C   0  0  0  0  0  0  0  0  0  0  0  0
    3.7320    3.1340    0.0000 C   0  0  0  0  0  0  0  0  0  0  0  0
    5.4641    3.1340    0.0000 C   0  0  0  0  0  0  0  0  0  0  0  0
    3.7320    2.1340    0.0000 C   0  0  0  0  0  0  0  0  0  0  0  0
    5.4641    2.1340    0.0000 C   0  0  0  0  0  0  0  0  0  0  0  0
    5.0981    4.5000    0.0000 C   0  0  0  0  0  0  0  0  0  0  0  0
    4.5981    0.6340    0.0000 C   0  0  0  0  0  0  0  0  0  0  0  0
    6.0981    4.5000    0.0000 C   0  0  0  0  0  0  0  0  0  0  0  0
    3.7320    0.1340    0.0000 C   0  0  0  0  0  0  0  0  0  0  0  0
    3.7320   -0.8660    0.0000 C   0  0  0  0  0  0  0  0  0  0  0  0
    6.5981    3.6340    0.0000 C   0  0  0  0  0  0  0  0  0  0  0  0
    6.5981    5.3660    0.0000 C   0  0  0  0  0  0  0  0  0  0  0  0
    2.8660   -1.3660    0.0000 C   0  0  0  0  0  0  0  0  0  0  0  0
    7.5981    3.6340    0.0000 C   0  0  0  0  0  0  0  0  0  0  0  0
    7.5981    5.3660    0.0000 C   0  0  0  0  0  0  0  0  0  0  0  0
    8.0981    4.5000    0.0000 C   0  0  0  0  0  0  0  0  0  0  0  0
    2.8660   -2.3660    0.0000 C   0  0  0  0  0  0  0  0  0  0  0  0
    3.7320   -2.8660    0.0000 C   0  0  0  0  0  0  0  0  0  0  0  0
    2.0000   -2.8660    0.0000 C   0  0  0  0  0  0  0  0  0  0  0  0
    3.7320   -3.8660    0.0000 C   0  0  0  0  0  0  0  0  0  0  0  0
    2.0000   -3.8660    0.0000 C   0  0  0  0  0  0  0  0  0  0  0  0
    2.8660   -4.3660    0.0000 C   0  0  0  0  0  0  0  0  0  0  0  0
    3.5200    3.7166    0.0000 H   0  0  0  0  0  0  0  0  0  0  0  0
    3.1215    3.0263    0.0000 H   0  0  0  0  0  0  0  0  0  0  0  0
    6.0747    3.0263    0.0000 H   0  0  0  0  0  0  0  0  0  0  0  0
    5.6762    3.7166    0.0000 H   0  0  0  0  0  0  0  0  0  0  0  0
    3.1215    2.2416    0.0000 H   0  0  0  0  0  0  0  0  0  0  0  0
    3.5200    1.5514    0.0000 H   0  0  0  0  0  0  0  0  0  0  0  0
    5.6762    1.5514    0.0000 H   0  0  0  0  0  0  0  0  0  0  0  0
    6.0747    2.2416    0.0000 H   0  0  0  0  0  0  0  0  0  0  0  0
    5.2057    5.1106    0.0000 H   0  0  0  0  0  0  0  0  0  0  0  0
    4.5155    4.7120    0.0000 H   0  0  0  0  0  0  0  0  0  0  0  0
    4.8101    0.0514    0.0000 H   0  0  0  0  0  0  0  0  0  0  0  0
    5.2087    0.7416    0.0000 H   0  0  0  0  0  0  0  0  0  0  0  0
    3.4781    4.5000    0.0000 H   0  0  0  0  0  0  0  0  0  0  0  0
    3.5200    0.7166    0.0000 H   0  0  0  0  0  0  0  0  0  0  0  0
    3.1215    0.0263    0.0000 H   0  0  0  0  0  0  0  0  0  0  0  0
    3.9441   -1.4486    0.0000 H   0  0  0  0  0  0  0  0  0  0  0  0
    4.3426   -0.7584    0.0000 H   0  0  0  0  0  0  0  0  0  0  0  0
    6.2881    3.0970    0.0000 H   0  0  0  0  0  0  0  0  0  0  0  0
    6.2881    5.9030    0.0000 H   0  0  0  0  0  0  0  0  0  0  0  0
    7.9081    3.0970    0.0000 H   0  0  0  0  0  0  0  0  0  0  0  0
    7.9081    5.9030    0.0000 H   0  0  0  0  0  0  0  0  0  0  0  0
    4.2690   -2.5560    0.0000 H   0  0  0  0  0  0  0  0  0  0  0  0
    1.4631   -2.5560    0.0000 H   0  0  0  0  0  0  0  0  0  0  0  0
    4.2690   -4.1760    0.0000 H   0  0  0  0  0  0  0  0  0  0  0  0
    1.4631   -4.1760    0.0000 H   0  0  0  0  0  0  0  0  0  0  0  0
  1 21  1  0  0  0  0
  2 27  1  0  0  0  0
  3  6  1  0  0  0  0
  3 40  1  0  0  0  0
  4 18  2  0  0  0  0
  5  9  1  0  0  0  0
  5 10  1  0  0  0  0
  5 12  1  0  0  0  0
  6  7  1  0  0  0  0
  6  8  1  0  0  0  0
  6 11  1  0  0  0  0
  7  9  1  0  0  0  0
  7 28  1  0  0  0  0
  7 29  1  0  0  0  0
  8 10  1  0  0  0  0
  8 30  1  0  0  0  0
  8 31  1  0  0  0  0
  9 32  1  0  0  0  0
  9 33  1  0  0  0  0
 10 34  1  0  0  0  0
 10 35  1  0  0  0  0
 11 13  1  0  0  0  0
 11 36  1  0  0  0  0
 11 37  1  0  0  0  0
 12 14  1  0  0  0  0
 12 38  1  0  0  0  0
 12 39  1  0  0  0  0
 13 16  2  0  0  0  0
 13 17  1  0  0  0  0
 14 15  1  0  0  0  0
 14 41  1  0  0  0  0
 14 42  1  0  0  0  0
 15 18  1  0  0  0  0
 15 43  1  0  0  0  0
 15 44  1  0  0  0  0
 16 19  1  0  0  0  0
 16 45  1  0  0  0  0
 17 20  2  0  0  0  0
 17 46  1  0  0  0  0
 18 22  1  0  0  0  0
 19 21  2  0  0  0  0
 19 47  1  0  0  0  0
 20 21  1  0  0  0  0
 20 48  1  0  0  0  0
 22 23  2  0  0  0  0
 22 24  1  0  0  0  0
 23 25  1  0  0  0  0
 23 49  1  0  0  0  0
 24 26  2  0  0  0  0
 24 50  1  0  0  0  0
 25 27  2  0  0  0  0
 25 51  1  0  0  0  0
 26 27  1  0  0  0  0
 26 52  1  0  0  0  0
M  END
> <PUBCHEM_COMPOUND_CID>
11338272

> <PUBCHEM_COMPOUND_CANONICALIZED>
1

> <PUBCHEM_CACTVS_COMPLEXITY>
465

> <PUBCHEM_CACTVS_HBOND_ACCEPTOR>
4

> <PUBCHEM_CACTVS_HBOND_DONOR>
1

> <PUBCHEM_CACTVS_ROTATABLE_BOND>
7

> <PUBCHEM_CACTVS_SUBSKEYS>
AAADceB6MQAEAAAAAAAAAAAAAAAAAAAAAAA8YIAAAAAAAAABQAAAHwIACAAADEbBmCwwAIMAAgCIAqBSAAACAAAkBQAIiAEIAsgIIDKBlxCEYQAmwAGIiYecyOCOBAAAAAAAAAAIAAAAAAAAAAAAAAAAAA==

> <PUBCHEM_IUPAC_OPENEYE_NAME>
4-[4-[(4-chlorophenyl)methyl]-4-hydroxy-1-piperidyl]-1-(4-fluorophenyl)butan-1-one

> <PUBCHEM_IUPAC_CAS_NAME>
4-[4-[(4-chlorophenyl)methyl]-4-hydroxy-1-piperidinyl]-1-(4-fluorophenyl)-1-butanone

> <PUBCHEM_IUPAC_NAME_MARKUP>
4-[4-[(4-chlorophenyl)methyl]-4-hydroxypiperidin-1-yl]-1-(4-fluorophenyl)butan-1-one

> <PUBCHEM_IUPAC_NAME>
4-[4-[(4-chlorophenyl)methyl]-4-hydroxypiperidin-1-yl]-1-(4-fluorophenyl)butan-1-one

> <PUBCHEM_IUPAC_SYSTEMATIC_NAME>
4-[4-[(4-chlorophenyl)methyl]-4-oxidanyl-piperidin-1-yl]-1-(4-fluorophenyl)butan-1-one

> <PUBCHEM_IUPAC_TRADITIONAL_NAME>
4-[4-(4-chlorobenzyl)-4-hydroxy-piperidino]-1-(4-fluorophenyl)butan-1-one

> <PUBCHEM_IUPAC_INCHI>
InChI=1S/C22H25ClFNO2/c23-19-7-3-17(4-8-19)16-22(27)11-14-25(15-12-22)13-1-2-21(26)18-5-9-20(24)10-6-18/h3-10,27H,1-2,11-16H2

> <PUBCHEM_IUPAC_INCHIKEY>
CXUJUEANCBPYNL-UHFFFAOYSA-N

> <PUBCHEM_XLOGP3>
3.7

> <PUBCHEM_EXACT_MASS>
389.1557849

> <PUBCHEM_MOLECULAR_FORMULA>
C22H25ClFNO2

> <PUBCHEM_MOLECULAR_WEIGHT>
389.9

> <PUBCHEM_OPENEYE_CAN_SMILES>
C1CN(CCC1(CC2=CC=C(C=C2)Cl)O)CCCC(=O)C3=CC=C(C=C3)F

> <PUBCHEM_OPENEYE_ISO_SMILES>
C1CN(CCC1(CC2=CC=C(C=C2)Cl)O)CCCC(=O)C3=CC=C(C=C3)F

> <PUBCHEM_CACTVS_TPSA>
40.5

> <PUBCHEM_MONOISOTOPIC_WEIGHT>
389.1557849

> <PUBCHEM_TOTAL_CHARGE>
0

> <PUBCHEM_HEAVY_ATOM_COUNT>
27

> <PUBCHEM_ATOM_DEF_STEREO_COUNT>
0

> <PUBCHEM_ATOM_UDEF_STEREO_COUNT>
0

> <PUBCHEM_BOND_DEF_STEREO_COUNT>
0

> <PUBCHEM_BOND_UDEF_STEREO_COUNT>
0

> <PUBCHEM_ISOTOPIC_ATOM_COUNT>
0

> <PUBCHEM_COMPONENT_COUNT>
1

> <PUBCHEM_CACTVS_TAUTO_COUNT>
-1

> <PUBCHEM_COORDINATE_TYPE>
1
5
255

> <PUBCHEM_BONDANNOTATIONS>
13  16  8
13  17  8
16  19  8
17  20  8
19  21  8
20  21  8
22  23  8
22  24  8
23  25  8
24  26  8
25  27  8
26  27  8

$$$$
