71151925
  -OEChem-09292322352D

 66 70  0     0  0  0  0  0  0999 V2000
    8.4530   -4.4518    0.0000 S   0  0  0  0  0  0  0  0  0  0  0  0
    4.5981    5.3034    0.0000 O   0  0  0  0  0  0  0  0  0  0  0  0
    9.4035   -4.1412    0.0000 O   0  0  0  0  0  0  0  0  0  0  0  0
    7.5025   -4.7625    0.0000 O   0  0  0  0  0  0  0  0  0  0  0  0
    6.3301    1.3034    0.0000 N   0  0  0  0  0  0  0  0  0  0  0  0
    6.3301   -0.6966    0.0000 N   0  0  0  0  0  0  0  0  0  0  0  0
    8.1424   -3.5013    0.0000 N   0  0  0  0  0  0  0  0  0  0  0  0
    5.4641    0.8034    0.0000 C   0  0  0  0  0  0  0  0  0  0  0  0
    7.1962    0.8034    0.0000 C   0  0  0  0  0  0  0  0  0  0  0  0
    5.4641   -0.1966    0.0000 C   0  0  0  0  0  0  0  0  0  0  0  0
    7.1962   -0.1966    0.0000 C   0  0  0  0  0  0  0  0  0  0  0  0
    6.3301    2.3034    0.0000 C   0  0  0  0  0  0  0  0  0  0  0  0
    6.3301   -1.6966    0.0000 C   0  0  0  0  0  0  0  0  0  0  0  0
    5.4641    2.8034    0.0000 C   0  0  0  0  0  0  0  0  0  0  0  0
    7.1962   -2.1966    0.0000 C   0  0  0  0  0  0  0  0  0  0  0  0
    7.1962   -3.1966    0.0000 C   0  0  0  0  0  0  0  0  0  0  0  0
    5.4641    3.8034    0.0000 C   0  0  0  0  0  0  0  0  0  0  0  0
    5.4641   -2.1966    0.0000 C   0  0  0  0  0  0  0  0  0  0  0  0
    8.1424   -1.8919    0.0000 C   0  0  0  0  0  0  0  0  0  0  0  0
    6.3301   -3.6966    0.0000 C   0  0  0  0  0  0  0  0  0  0  0  0
    8.7260   -2.6966    0.0000 C   0  0  0  0  0  0  0  0  0  0  0  0
    5.4641   -3.1966    0.0000 C   0  0  0  0  0  0  0  0  0  0  0  0
    4.5981    4.3034    0.0000 C   0  0  0  0  0  0  0  0  0  0  0  0
    8.7637   -5.4024    0.0000 C   0  0  0  0  0  0  0  0  0  0  0  0
    9.7422   -5.6086    0.0000 C   0  0  0  0  0  0  0  0  0  0  0  0
    8.0958   -6.1467    0.0000 C   0  0  0  0  0  0  0  0  0  0  0  0
    3.7320    5.8034    0.0000 C   0  0  0  0  0  0  0  0  0  0  0  0
   10.0529   -6.5591    0.0000 C   0  0  0  0  0  0  0  0  0  0  0  0
    8.4065   -7.0972    0.0000 C   0  0  0  0  0  0  0  0  0  0  0  0
    9.3850   -7.3034    0.0000 C   0  0  0  0  0  0  0  0  0  0  0  0
    2.8660    5.3034    0.0000 C   0  0  0  0  0  0  0  0  0  0  0  0
    3.7320    6.8034    0.0000 C   0  0  0  0  0  0  0  0  0  0  0  0
    2.0000    5.8034    0.0000 C   0  0  0  0  0  0  0  0  0  0  0  0
    2.8660    7.3034    0.0000 C   0  0  0  0  0  0  0  0  0  0  0  0
    2.0000    6.8034    0.0000 C   0  0  0  0  0  0  0  0  0  0  0  0
    5.2520    1.3860    0.0000 H   0  0  0  0  0  0  0  0  0  0  0  0
    4.8535    0.6957    0.0000 H   0  0  0  0  0  0  0  0  0  0  0  0
    7.8067    0.6957    0.0000 H   0  0  0  0  0  0  0  0  0  0  0  0
    7.4082    1.3860    0.0000 H   0  0  0  0  0  0  0  0  0  0  0  0
    4.8535   -0.0889    0.0000 H   0  0  0  0  0  0  0  0  0  0  0  0
    5.2520   -0.7792    0.0000 H   0  0  0  0  0  0  0  0  0  0  0  0
    7.4082   -0.7792    0.0000 H   0  0  0  0  0  0  0  0  0  0  0  0
    7.8067   -0.0889    0.0000 H   0  0  0  0  0  0  0  0  0  0  0  0
    6.9407    2.1957    0.0000 H   0  0  0  0  0  0  0  0  0  0  0  0
    6.5422    2.8860    0.0000 H   0  0  0  0  0  0  0  0  0  0  0  0
    4.8535    2.9111    0.0000 H   0  0  0  0  0  0  0  0  0  0  0  0
    5.2520    2.2208    0.0000 H   0  0  0  0  0  0  0  0  0  0  0  0
    6.0747    3.6958    0.0000 H   0  0  0  0  0  0  0  0  0  0  0  0
    5.6762    4.3860    0.0000 H   0  0  0  0  0  0  0  0  0  0  0  0
    4.9272   -1.8866    0.0000 H   0  0  0  0  0  0  0  0  0  0  0  0
    8.3350   -1.3025    0.0000 H   0  0  0  0  0  0  0  0  0  0  0  0
    6.3301   -4.3166    0.0000 H   0  0  0  0  0  0  0  0  0  0  0  0
    9.3460   -2.6966    0.0000 H   0  0  0  0  0  0  0  0  0  0  0  0
    4.9272   -3.5066    0.0000 H   0  0  0  0  0  0  0  0  0  0  0  0
    3.9875    4.4111    0.0000 H   0  0  0  0  0  0  0  0  0  0  0  0
    4.3860    3.7208    0.0000 H   0  0  0  0  0  0  0  0  0  0  0  0
   10.1563   -5.1471    0.0000 H   0  0  0  0  0  0  0  0  0  0  0  0
    7.4892   -6.0188    0.0000 H   0  0  0  0  0  0  0  0  0  0  0  0
   10.6595   -6.6870    0.0000 H   0  0  0  0  0  0  0  0  0  0  0  0
    7.9924   -7.5586    0.0000 H   0  0  0  0  0  0  0  0  0  0  0  0
    9.5776   -7.8927    0.0000 H   0  0  0  0  0  0  0  0  0  0  0  0
    2.8660    4.6834    0.0000 H   0  0  0  0  0  0  0  0  0  0  0  0
    4.2690    7.1134    0.0000 H   0  0  0  0  0  0  0  0  0  0  0  0
    1.4631    5.4934    0.0000 H   0  0  0  0  0  0  0  0  0  0  0  0
    2.8660    7.9234    0.0000 H   0  0  0  0  0  0  0  0  0  0  0  0
    1.4631    7.1134    0.0000 H   0  0  0  0  0  0  0  0  0  0  0  0
  1  3  2  0  0  0  0
  1  4  2  0  0  0  0
  1  7  1  0  0  0  0
  1 24  1  0  0  0  0
  2 23  1  0  0  0  0
  2 27  1  0  0  0  0
  5  8  1  0  0  0  0
  5  9  1  0  0  0  0
  5 12  1  0  0  0  0
  6 10  1  0  0  0  0
  6 11  1  0  0  0  0
  6 13  1  0  0  0  0
  7 16  1  0  0  0  0
  7 21  1  0  0  0  0
  8 10  1  0  0  0  0
  8 36  1  0  0  0  0
  8 37  1  0  0  0  0
  9 11  1  0  0  0  0
  9 38  1  0  0  0  0
  9 39  1  0  0  0  0
 10 40  1  0  0  0  0
 10 41  1  0  0  0  0
 11 42  1  0  0  0  0
 11 43  1  0  0  0  0
 12 14  1  0  0  0  0
 12 44  1  0  0  0  0
 12 45  1  0  0  0  0
 13 15  1  0  0  0  0
 13 18  2  0  0  0  0
 14 17  1  0  0  0  0
 14 46  1  0  0  0  0
 14 47  1  0  0  0  0
 15 16  2  0  0  0  0
 15 19  1  0  0  0  0
 16 20  1  0  0  0  0
 17 23  1  0  0  0  0
 17 48  1  0  0  0  0
 17 49  1  0  0  0  0
 18 22  1  0  0  0  0
 18 50  1  0  0  0  0
 19 21  2  0  0  0  0
 19 51  1  0  0  0  0
 20 22  2  0  0  0  0
 20 52  1  0  0  0  0
 21 53  1  0  0  0  0
 22 54  1  0  0  0  0
 23 55  1  0  0  0  0
 23 56  1  0  0  0  0
 24 25  2  0  0  0  0
 24 26  1  0  0  0  0
 25 28  1  0  0  0  0
 25 57  1  0  0  0  0
 26 29  2  0  0  0  0
 26 58  1  0  0  0  0
 27 31  2  0  0  0  0
 27 32  1  0  0  0  0
 28 30  2  0  0  0  0
 28 59  1  0  0  0  0
 29 30  1  0  0  0  0
 29 60  1  0  0  0  0
 30 61  1  0  0  0  0
 31 33  1  0  0  0  0
 31 62  1  0  0  0  0
 32 34  2  0  0  0  0
 32 63  1  0  0  0  0
 33 35  2  0  0  0  0
 33 64  1  0  0  0  0
 34 35  1  0  0  0  0
 34 65  1  0  0  0  0
 35 66  1  0  0  0  0
M  END
> <PUBCHEM_COMPOUND_CID>
71151925

> <PUBCHEM_COMPOUND_CANONICALIZED>
1

> <PUBCHEM_CACTVS_COMPLEXITY>
737

> <PUBCHEM_CACTVS_HBOND_ACCEPTOR>
5

> <PUBCHEM_CACTVS_HBOND_DONOR>
0

> <PUBCHEM_CACTVS_ROTATABLE_BOND>
9

> <PUBCHEM_CACTVS_SUBSKEYS>
AAADceB7MABAAAAAAAAAAAAAAAAAAWAAAAA8YMEAAAAAAFgB9AAAHgQAQAAADAzh3gY8x/MIFAKgAzRnRHDCiDAxIiAI2Dg+bJgMZuLE8duWPCjkwBHI6AewwIAOAAAAAAQCAAAAAAAACAQAAAAAAAAAAA==

> <PUBCHEM_IUPAC_OPENEYE_NAME>
1-(benzenesulfonyl)-4-[4-(4-phenoxybutyl)piperazin-1-yl]indole

> <PUBCHEM_IUPAC_CAS_NAME>
1-(benzenesulfonyl)-4-[4-(4-phenoxybutyl)-1-piperazinyl]indole

> <PUBCHEM_IUPAC_NAME_MARKUP>
1-(benzenesulfonyl)-4-[4-(4-phenoxybutyl)piperazin-1-yl]indole

> <PUBCHEM_IUPAC_NAME>
1-(benzenesulfonyl)-4-[4-(4-phenoxybutyl)piperazin-1-yl]indole

> <PUBCHEM_IUPAC_SYSTEMATIC_NAME>
4-[4-(4-phenoxybutyl)piperazin-1-yl]-1-(phenylsulfonyl)indole

> <PUBCHEM_IUPAC_TRADITIONAL_NAME>
1-besyl-4-[4-(4-phenoxybutyl)piperazino]indole

> <PUBCHEM_IUPAC_INCHI>
InChI=1S/C28H31N3O3S/c32-35(33,25-12-5-2-6-13-25)31-18-16-26-27(14-9-15-28(26)31)30-21-19-29(20-22-30)17-7-8-23-34-24-10-3-1-4-11-24/h1-6,9-16,18H,7-8,17,19-23H2

> <PUBCHEM_IUPAC_INCHIKEY>
GRVLMLNWRPYTRK-UHFFFAOYSA-N

> <PUBCHEM_XLOGP3_AA>
5.5

> <PUBCHEM_EXACT_MASS>
489.20861303

> <PUBCHEM_MOLECULAR_FORMULA>
C28H31N3O3S

> <PUBCHEM_MOLECULAR_WEIGHT>
489.6

> <PUBCHEM_OPENEYE_CAN_SMILES>
C1CN(CCN1CCCCOC2=CC=CC=C2)C3=CC=CC4=C3C=CN4S(=O)(=O)C5=CC=CC=C5

> <PUBCHEM_OPENEYE_ISO_SMILES>
C1CN(CCN1CCCCOC2=CC=CC=C2)C3=CC=CC4=C3C=CN4S(=O)(=O)C5=CC=CC=C5

> <PUBCHEM_CACTVS_TPSA>
63.2

> <PUBCHEM_MONOISOTOPIC_WEIGHT>
489.20861303

> <PUBCHEM_TOTAL_CHARGE>
0

> <PUBCHEM_HEAVY_ATOM_COUNT>
35

> <PUBCHEM_ATOM_DEF_STEREO_COUNT>
0

> <PUBCHEM_ATOM_UDEF_STEREO_COUNT>
0

> <PUBCHEM_BOND_DEF_STEREO_COUNT>
0

> <PUBCHEM_BOND_UDEF_STEREO_COUNT>
0

> <PUBCHEM_ISOTOPIC_ATOM_COUNT>
0

> <PUBCHEM_COMPONENT_COUNT>
1

> <PUBCHEM_CACTVS_TAUTO_COUNT>
-1

> <PUBCHEM_COORDINATE_TYPE>
1
5
255

> <PUBCHEM_BONDANNOTATIONS>
13  15  8
13  18  8
15  16  8
15  19  8
16  20  8
18  22  8
19  21  8
20  22  8
24  25  8
24  26  8
25  28  8
26  29  8
27  31  8
27  32  8
28  30  8
29  30  8
31  33  8
32  34  8
33  35  8
34  35  8
7  16  8
7  21  8

$$$$
