44307546
  -OEChem-09292322512D

 50 53  0     1  0  0  0  0  0999 V2000
    2.0000    2.5960    0.0000 Cl  0  0  0  0  0  0  0  0  0  0  0  0
    7.8104   -2.5509    0.0000 O   0  0  0  0  0  0  0  0  0  0  0  0
    7.0000   -0.8681    0.0000 N   0  0  0  0  0  0  0  0  0  0  0  0
    5.0000   -0.8681    0.0000 N   0  0  0  0  0  0  0  0  0  0  0  0
    9.4088   -1.9916    0.0000 N   0  0  0  0  0  0  0  0  0  0  0  0
    8.0000   -0.8681    0.0000 C   0  0  3  0  0  0  0  0  0  0  0  0
    6.5000   -1.7341    0.0000 C   0  0  0  0  0  0  0  0  0  0  0  0
    6.5000   -0.0021    0.0000 C   0  0  0  0  0  0  0  0  0  0  0  0
    5.5000   -1.7341    0.0000 C   0  0  0  0  0  0  0  0  0  0  0  0
    5.5000   -0.0021    0.0000 C   0  0  0  0  0  0  0  0  0  0  0  0
    8.4339    0.0329    0.0000 C   0  0  0  0  0  0  0  0  0  0  0  0
    9.4088    0.2554    0.0000 C   0  0  0  0  0  0  0  0  0  0  0  0
    8.4339   -1.7690    0.0000 C   0  0  0  0  0  0  0  0  0  0  0  0
    4.0000   -0.8681    0.0000 C   0  0  0  0  0  0  0  0  0  0  0  0
   10.1906   -0.3681    0.0000 C   0  0  0  0  0  0  0  0  0  0  0  0
   10.1906   -1.3681    0.0000 C   0  0  0  0  0  0  0  0  0  0  0  0
    3.5000   -0.0021    0.0000 C   0  0  0  0  0  0  0  0  0  0  0  0
   11.0846    0.1666    0.0000 C   0  0  0  0  0  0  0  0  0  0  0  0
   11.0846   -1.9027    0.0000 C   0  0  0  0  0  0  0  0  0  0  0  0
    2.5000   -0.0021    0.0000 C   0  0  0  0  0  0  0  0  0  0  0  0
    4.0000    0.8640    0.0000 C   0  0  0  0  0  0  0  0  0  0  0  0
   11.9907   -0.3473    0.0000 C   0  0  0  0  0  0  0  0  0  0  0  0
   11.9907   -1.3889    0.0000 C   0  0  0  0  0  0  0  0  0  0  0  0
    2.0000    0.8640    0.0000 C   0  0  0  0  0  0  0  0  0  0  0  0
    3.5000    1.7300    0.0000 C   0  0  0  0  0  0  0  0  0  0  0  0
    2.5000    1.7300    0.0000 C   0  0  0  0  0  0  0  0  0  0  0  0
    7.6701   -0.3431    0.0000 H   0  0  0  0  0  0  0  0  0  0  0  0
    6.3923   -2.3447    0.0000 H   0  0  0  0  0  0  0  0  0  0  0  0
    7.0826   -1.9462    0.0000 H   0  0  0  0  0  0  0  0  0  0  0  0
    7.0826    0.2100    0.0000 H   0  0  0  0  0  0  0  0  0  0  0  0
    6.3923    0.6085    0.0000 H   0  0  0  0  0  0  0  0  0  0  0  0
    4.9174   -1.9462    0.0000 H   0  0  0  0  0  0  0  0  0  0  0  0
    5.6077   -2.3447    0.0000 H   0  0  0  0  0  0  0  0  0  0  0  0
    5.6077    0.6085    0.0000 H   0  0  0  0  0  0  0  0  0  0  0  0
    4.9174    0.2100    0.0000 H   0  0  0  0  0  0  0  0  0  0  0  0
    8.4339    0.6529    0.0000 H   0  0  0  0  0  0  0  0  0  0  0  0
    7.8294    0.1709    0.0000 H   0  0  0  0  0  0  0  0  0  0  0  0
    9.8936    0.6420    0.0000 H   0  0  0  0  0  0  0  0  0  0  0  0
    9.1398    0.8140    0.0000 H   0  0  0  0  0  0  0  0  0  0  0  0
    3.4174   -1.0801    0.0000 H   0  0  0  0  0  0  0  0  0  0  0  0
    4.1077   -1.4787    0.0000 H   0  0  0  0  0  0  0  0  0  0  0  0
    9.5468   -2.5960    0.0000 H   0  0  0  0  0  0  0  0  0  0  0  0
   11.0774    0.7865    0.0000 H   0  0  0  0  0  0  0  0  0  0  0  0
   11.0774   -2.5227    0.0000 H   0  0  0  0  0  0  0  0  0  0  0  0
    2.1900   -0.5390    0.0000 H   0  0  0  0  0  0  0  0  0  0  0  0
    4.6200    0.8640    0.0000 H   0  0  0  0  0  0  0  0  0  0  0  0
   12.5264   -0.0352    0.0000 H   0  0  0  0  0  0  0  0  0  0  0  0
   12.5264   -1.7010    0.0000 H   0  0  0  0  0  0  0  0  0  0  0  0
    1.3800    0.8640    0.0000 H   0  0  0  0  0  0  0  0  0  0  0  0
    3.8100    2.2669    0.0000 H   0  0  0  0  0  0  0  0  0  0  0  0
  1 26  1  0  0  0  0
  2 13  2  0  0  0  0
  3  6  1  0  0  0  0
  3  7  1  0  0  0  0
  3  8  1  0  0  0  0
  4  9  1  0  0  0  0
  4 10  1  0  0  0  0
  4 14  1  0  0  0  0
  5 13  1  0  0  0  0
  5 16  1  0  0  0  0
  5 42  1  0  0  0  0
  6 11  1  0  0  0  0
  6 13  1  0  0  0  0
  6 27  1  0  0  0  0
  7  9  1  0  0  0  0
  7 28  1  0  0  0  0
  7 29  1  0  0  0  0
  8 10  1  0  0  0  0
  8 30  1  0  0  0  0
  8 31  1  0  0  0  0
  9 32  1  0  0  0  0
  9 33  1  0  0  0  0
 10 34  1  0  0  0  0
 10 35  1  0  0  0  0
 11 12  1  0  0  0  0
 11 36  1  0  0  0  0
 11 37  1  0  0  0  0
 12 15  1  0  0  0  0
 12 38  1  0  0  0  0
 12 39  1  0  0  0  0
 14 17  1  0  0  0  0
 14 40  1  0  0  0  0
 14 41  1  0  0  0  0
 15 16  1  0  0  0  0
 15 18  2  0  0  0  0
 16 19  2  0  0  0  0
 17 20  2  0  0  0  0
 17 21  1  0  0  0  0
 18 22  1  0  0  0  0
 18 43  1  0  0  0  0
 19 23  1  0  0  0  0
 19 44  1  0  0  0  0
 20 24  1  0  0  0  0
 20 45  1  0  0  0  0
 21 25  2  0  0  0  0
 21 46  1  0  0  0  0
 22 23  2  0  0  0  0
 22 47  1  0  0  0  0
 23 48  1  0  0  0  0
 24 26  2  0  0  0  0
 24 49  1  0  0  0  0
 25 26  1  0  0  0  0
 25 50  1  0  0  0  0
M  END
> <PUBCHEM_COMPOUND_CID>
44307546

> <PUBCHEM_COMPOUND_CANONICALIZED>
1

> <PUBCHEM_CACTVS_COMPLEXITY>
472

> <PUBCHEM_CACTVS_HBOND_ACCEPTOR>
3

> <PUBCHEM_CACTVS_HBOND_DONOR>
1

> <PUBCHEM_CACTVS_ROTATABLE_BOND>
3

> <PUBCHEM_CACTVS_SUBSKEYS>
AAADceB7IAAEAAAAAAAAAAAAAAAAAAAAAAA8YIAABYAAAAABQAAAHgIQAAAADCrBmCQwwIPAAACIAiVSUACCAAAhBwAIiAGIZogIYDLBk7GUIAhglADIyAcYiICOBAAAAAACAAAIAAAAAAQAAAAAAAAAAA==

> <PUBCHEM_IUPAC_OPENEYE_NAME>
3-[4-[(4-chlorophenyl)methyl]piperazin-1-yl]-1,3,4,5-tetrahydro-1-benzazepin-2-one

> <PUBCHEM_IUPAC_CAS_NAME>
3-[4-[(4-chlorophenyl)methyl]-1-piperazinyl]-1,3,4,5-tetrahydro-1-benzazepin-2-one

> <PUBCHEM_IUPAC_NAME_MARKUP>
3-[4-[(4-chlorophenyl)methyl]piperazin-1-yl]-1,3,4,5-tetrahydro-1-benzazepin-2-one

> <PUBCHEM_IUPAC_NAME>
3-[4-[(4-chlorophenyl)methyl]piperazin-1-yl]-1,3,4,5-tetrahydro-1-benzazepin-2-one

> <PUBCHEM_IUPAC_SYSTEMATIC_NAME>
3-[4-[(4-chlorophenyl)methyl]piperazin-1-yl]-1,3,4,5-tetrahydro-1-benzazepin-2-one

> <PUBCHEM_IUPAC_TRADITIONAL_NAME>
3-[4-(4-chlorobenzyl)piperazino]-1,3,4,5-tetrahydro-1-benzazepin-2-one

> <PUBCHEM_IUPAC_INCHI>
InChI=1S/C21H24ClN3O/c22-18-8-5-16(6-9-18)15-24-11-13-25(14-12-24)20-10-7-17-3-1-2-4-19(17)23-21(20)26/h1-6,8-9,20H,7,10-15H2,(H,23,26)

> <PUBCHEM_IUPAC_INCHIKEY>
XDOUPAPTLSROOR-UHFFFAOYSA-N

> <PUBCHEM_XLOGP3_AA>
3.5

> <PUBCHEM_EXACT_MASS>
369.1607901

> <PUBCHEM_MOLECULAR_FORMULA>
C21H24ClN3O

> <PUBCHEM_MOLECULAR_WEIGHT>
369.9

> <PUBCHEM_OPENEYE_CAN_SMILES>
C1CC2=CC=CC=C2NC(=O)C1N3CCN(CC3)CC4=CC=C(C=C4)Cl

> <PUBCHEM_OPENEYE_ISO_SMILES>
C1CC2=CC=CC=C2NC(=O)C1N3CCN(CC3)CC4=CC=C(C=C4)Cl

> <PUBCHEM_CACTVS_TPSA>
35.6

> <PUBCHEM_MONOISOTOPIC_WEIGHT>
369.1607901

> <PUBCHEM_TOTAL_CHARGE>
0

> <PUBCHEM_HEAVY_ATOM_COUNT>
26

> <PUBCHEM_ATOM_DEF_STEREO_COUNT>
0

> <PUBCHEM_ATOM_UDEF_STEREO_COUNT>
1

> <PUBCHEM_BOND_DEF_STEREO_COUNT>
0

> <PUBCHEM_BOND_UDEF_STEREO_COUNT>
0

> <PUBCHEM_ISOTOPIC_ATOM_COUNT>
0

> <PUBCHEM_COMPONENT_COUNT>
1

> <PUBCHEM_CACTVS_TAUTO_COUNT>
-1

> <PUBCHEM_COORDINATE_TYPE>
1
5
255

> <PUBCHEM_BONDANNOTATIONS>
15  16  8
15  18  8
16  19  8
17  20  8
17  21  8
18  22  8
19  23  8
20  24  8
21  25  8
22  23  8
24  26  8
25  26  8
6  3  3

$$$$
