44324056
  -OEChem-09292322152D

 43 45  0     1  0  0  0  0  0999 V2000
    9.2619   -1.8754    0.0000 Cl  0  0  0  0  0  0  0  0  0  0  0  0
    4.6783   -2.6801    0.0000 N   0  0  0  0  0  0  0  0  0  0  0  0
    4.6318    1.5747    0.0000 N   0  0  3  0  0  0  0  0  0  0  0  0
    4.6783   -1.0707    0.0000 C   0  0  0  0  0  0  0  0  0  0  0  0
    4.9889   -0.1202    0.0000 C   0  0  0  0  0  0  0  0  0  0  0  0
    3.7320   -1.3754    0.0000 C   0  0  0  0  0  0  0  0  0  0  0  0
    5.2619   -1.8754    0.0000 C   0  0  0  0  0  0  0  0  0  0  0  0
    4.3211    0.6241    0.0000 C   0  0  0  0  0  0  0  0  0  0  0  0
    3.7320   -2.3754    0.0000 C   0  0  0  0  0  0  0  0  0  0  0  0
    6.2619   -1.8754    0.0000 C   0  0  0  0  0  0  0  0  0  0  0  0
    2.8660   -0.8754    0.0000 C   0  0  0  0  0  0  0  0  0  0  0  0
    3.9639    2.3190    0.0000 C   0  0  0  0  0  0  0  0  0  0  0  0
    2.8660   -2.8754    0.0000 C   0  0  0  0  0  0  0  0  0  0  0  0
    5.6103    1.7809    0.0000 C   0  0  0  0  0  0  0  0  0  0  0  0
    2.0000   -1.3754    0.0000 C   0  0  0  0  0  0  0  0  0  0  0  0
    2.0000   -2.3754    0.0000 C   0  0  0  0  0  0  0  0  0  0  0  0
    6.7619   -2.7414    0.0000 C   0  0  0  0  0  0  0  0  0  0  0  0
    6.7619   -1.0094    0.0000 C   0  0  0  0  0  0  0  0  0  0  0  0
    4.2746    3.2695    0.0000 C   0  0  0  0  0  0  0  0  0  0  0  0
    7.7619   -2.7414    0.0000 C   0  0  0  0  0  0  0  0  0  0  0  0
    7.7619   -1.0094    0.0000 C   0  0  0  0  0  0  0  0  0  0  0  0
    8.2619   -1.8754    0.0000 C   0  0  0  0  0  0  0  0  0  0  0  0
    5.5359   -0.4122    0.0000 H   0  0  0  0  0  0  0  0  0  0  0  0
    5.3715    0.3677    0.0000 H   0  0  0  0  0  0  0  0  0  0  0  0
    3.7742    0.9162    0.0000 H   0  0  0  0  0  0  0  0  0  0  0  0
    3.9385    0.1362    0.0000 H   0  0  0  0  0  0  0  0  0  0  0  0
    4.8709   -3.2695    0.0000 H   0  0  0  0  0  0  0  0  0  0  0  0
    2.8660   -0.2554    0.0000 H   0  0  0  0  0  0  0  0  0  0  0  0
    3.4170    2.6110    0.0000 H   0  0  0  0  0  0  0  0  0  0  0  0
    3.5814    1.8310    0.0000 H   0  0  0  0  0  0  0  0  0  0  0  0
    2.8660   -3.4954    0.0000 H   0  0  0  0  0  0  0  0  0  0  0  0
    5.7381    1.1742    0.0000 H   0  0  0  0  0  0  0  0  0  0  0  0
    6.2169    1.9087    0.0000 H   0  0  0  0  0  0  0  0  0  0  0  0
    5.4824    2.3876    0.0000 H   0  0  0  0  0  0  0  0  0  0  0  0
    1.4631   -1.0654    0.0000 H   0  0  0  0  0  0  0  0  0  0  0  0
    1.4631   -2.6854    0.0000 H   0  0  0  0  0  0  0  0  0  0  0  0
    6.4519   -3.2784    0.0000 H   0  0  0  0  0  0  0  0  0  0  0  0
    6.4519   -0.4725    0.0000 H   0  0  0  0  0  0  0  0  0  0  0  0
    4.8639    3.0769    0.0000 H   0  0  0  0  0  0  0  0  0  0  0  0
    4.4672    3.8588    0.0000 H   0  0  0  0  0  0  0  0  0  0  0  0
    3.6852    3.4621    0.0000 H   0  0  0  0  0  0  0  0  0  0  0  0
    8.0719   -3.2784    0.0000 H   0  0  0  0  0  0  0  0  0  0  0  0
    8.0719   -0.4725    0.0000 H   0  0  0  0  0  0  0  0  0  0  0  0
  1 22  1  0  0  0  0
  2  7  1  0  0  0  0
  2  9  1  0  0  0  0
  2 27  1  0  0  0  0
  3  8  1  0  0  0  0
  3 12  1  0  0  0  0
  3 14  1  0  0  0  0
  4  5  1  0  0  0  0
  4  6  1  0  0  0  0
  4  7  2  0  0  0  0
  5  8  1  0  0  0  0
  5 23  1  0  0  0  0
  5 24  1  0  0  0  0
  6  9  1  0  0  0  0
  6 11  2  0  0  0  0
  7 10  1  0  0  0  0
  8 25  1  0  0  0  0
  8 26  1  0  0  0  0
  9 13  2  0  0  0  0
 10 17  2  0  0  0  0
 10 18  1  0  0  0  0
 11 15  1  0  0  0  0
 11 28  1  0  0  0  0
 12 19  1  0  0  0  0
 12 29  1  0  0  0  0
 12 30  1  0  0  0  0
 13 16  1  0  0  0  0
 13 31  1  0  0  0  0
 14 32  1  0  0  0  0
 14 33  1  0  0  0  0
 14 34  1  0  0  0  0
 15 16  2  0  0  0  0
 15 35  1  0  0  0  0
 16 36  1  0  0  0  0
 17 20  1  0  0  0  0
 17 37  1  0  0  0  0
 18 21  2  0  0  0  0
 18 38  1  0  0  0  0
 19 39  1  0  0  0  0
 19 40  1  0  0  0  0
 19 41  1  0  0  0  0
 20 22  2  0  0  0  0
 20 42  1  0  0  0  0
 21 22  1  0  0  0  0
 21 43  1  0  0  0  0
M  END
> <PUBCHEM_COMPOUND_CID>
44324056

> <PUBCHEM_COMPOUND_CANONICALIZED>
1

> <PUBCHEM_CACTVS_COMPLEXITY>
340

> <PUBCHEM_CACTVS_HBOND_ACCEPTOR>
1

> <PUBCHEM_CACTVS_HBOND_DONOR>
1

> <PUBCHEM_CACTVS_ROTATABLE_BOND>
5

> <PUBCHEM_CACTVS_SUBSKEYS>
AAADceB7AAAEAAAAAAAAAAAAAAAAAWAAAAAwYAAAAAAAAFgB9AAAHAIQAAAADArBHiQywPPJkACgAyRiRACCgCAhByAImSA4ZpgIIOLBk5GEIAhgkADIyAcQgMAOhAAAAAACAAAIAAAAAAQAAAAAAAAAAA==

> <PUBCHEM_IUPAC_OPENEYE_NAME>
2-[2-(4-chlorophenyl)-1H-indol-3-yl]-N-ethyl-N-methyl-ethanamine

> <PUBCHEM_IUPAC_CAS_NAME>
2-[2-(4-chlorophenyl)-1H-indol-3-yl]-N-ethyl-N-methylethanamine

> <PUBCHEM_IUPAC_NAME_MARKUP>
2-[2-(4-chlorophenyl)-1<I>H</I>-indol-3-yl]-<I>N</I>-ethyl-<I>N</I>-methylethanamine

> <PUBCHEM_IUPAC_NAME>
2-[2-(4-chlorophenyl)-1H-indol-3-yl]-N-ethyl-N-methylethanamine

> <PUBCHEM_IUPAC_SYSTEMATIC_NAME>
2-[2-(4-chlorophenyl)-1H-indol-3-yl]-N-ethyl-N-methyl-ethanamine

> <PUBCHEM_IUPAC_TRADITIONAL_NAME>
2-[2-(4-chlorophenyl)-1H-indol-3-yl]ethyl-ethyl-methyl-amine

> <PUBCHEM_IUPAC_INCHI>
InChI=1S/C19H21ClN2/c1-3-22(2)13-12-17-16-6-4-5-7-18(16)21-19(17)14-8-10-15(20)11-9-14/h4-11,21H,3,12-13H2,1-2H3

> <PUBCHEM_IUPAC_INCHIKEY>
SDFKSBYLKADGSF-UHFFFAOYSA-N

> <PUBCHEM_XLOGP3_AA>
5

> <PUBCHEM_EXACT_MASS>
312.1393264

> <PUBCHEM_MOLECULAR_FORMULA>
C19H21ClN2

> <PUBCHEM_MOLECULAR_WEIGHT>
312.8

> <PUBCHEM_OPENEYE_CAN_SMILES>
CCN(C)CCC1=C(NC2=CC=CC=C21)C3=CC=C(C=C3)Cl

> <PUBCHEM_OPENEYE_ISO_SMILES>
CCN(C)CCC1=C(NC2=CC=CC=C21)C3=CC=C(C=C3)Cl

> <PUBCHEM_CACTVS_TPSA>
19

> <PUBCHEM_MONOISOTOPIC_WEIGHT>
312.1393264

> <PUBCHEM_TOTAL_CHARGE>
0

> <PUBCHEM_HEAVY_ATOM_COUNT>
22

> <PUBCHEM_ATOM_DEF_STEREO_COUNT>
0

> <PUBCHEM_ATOM_UDEF_STEREO_COUNT>
0

> <PUBCHEM_BOND_DEF_STEREO_COUNT>
0

> <PUBCHEM_BOND_UDEF_STEREO_COUNT>
0

> <PUBCHEM_ISOTOPIC_ATOM_COUNT>
0

> <PUBCHEM_COMPONENT_COUNT>
1

> <PUBCHEM_CACTVS_TAUTO_COUNT>
-1

> <PUBCHEM_COORDINATE_TYPE>
1
5
255

> <PUBCHEM_BONDANNOTATIONS>
10  17  8
10  18  8
11  15  8
13  16  8
15  16  8
17  20  8
18  21  8
2  7  8
2  9  8
20  22  8
21  22  8
4  6  8
4  7  8
6  11  8
6  9  8
9  13  8

$$$$
