44588896
  -OEChem-09292322502D

 38 39  0     1  0  0  0  0  0999 V2000
    2.5064    0.0000    0.0000 Br  0  0  0  0  0  0  0  0  0  0  0  0
    5.4747    5.2310    0.0000 O   0  0  0  0  0  0  0  0  0  0  0  0
    5.4747    3.1827    0.0000 O   0  0  0  0  0  0  0  0  0  0  0  0
    0.6200    4.2069    0.0000 N   0  0  0  0  0  0  0  0  0  0  0  0
    2.0288    5.3304    0.0000 C   0  0  2  0  0  0  0  0  0  0  0  0
    2.8106    4.7069    0.0000 C   0  0  0  0  0  0  0  0  0  0  0  0
    1.0539    5.1078    0.0000 C   0  0  0  0  0  0  0  0  0  0  0  0
    2.8106    3.7069    0.0000 C   0  0  0  0  0  0  0  0  0  0  0  0
    2.0288    3.0834    0.0000 C   0  0  0  0  0  0  0  0  0  0  0  0
    1.0539    3.3059    0.0000 C   0  0  0  0  0  0  0  0  0  0  0  0
    2.2513    6.3053    0.0000 C   0  0  0  0  0  0  0  0  0  0  0  0
    3.7046    5.2415    0.0000 C   0  0  0  0  0  0  0  0  0  0  0  0
    3.7046    3.1722    0.0000 C   0  0  0  0  0  0  0  0  0  0  0  0
    4.6106    4.7277    0.0000 C   0  0  0  0  0  0  0  0  0  0  0  0
    4.6106    3.6861    0.0000 C   0  0  0  0  0  0  0  0  0  0  0  0
    3.2069    6.6000    0.0000 C   0  0  0  0  0  0  0  0  0  0  0  0
    1.5183    6.9855    0.0000 C   0  0  0  0  0  0  0  0  0  0  0  0
    3.4294    7.5750    0.0000 C   0  0  0  0  0  0  0  0  0  0  0  0
    1.7408    7.9604    0.0000 C   0  0  0  0  0  0  0  0  0  0  0  0
    2.6964    8.2551    0.0000 C   0  0  0  0  0  0  0  0  0  0  0  0
    1.5904    5.7688    0.0000 H   0  0  0  0  0  0  0  0  0  0  0  0
    1.0539    5.7278    0.0000 H   0  0  0  0  0  0  0  0  0  0  0  0
    0.4494    5.2458    0.0000 H   0  0  0  0  0  0  0  0  0  0  0  0
    1.7598    2.5248    0.0000 H   0  0  0  0  0  0  0  0  0  0  0  0
    2.5136    2.6968    0.0000 H   0  0  0  0  0  0  0  0  0  0  0  0
    0.4494    3.1679    0.0000 H   0  0  0  0  0  0  0  0  0  0  0  0
    1.0539    2.6859    0.0000 H   0  0  0  0  0  0  0  0  0  0  0  0
    0.0000    4.2069    0.0000 H   0  0  0  0  0  0  0  0  0  0  0  0
    3.6974    5.8615    0.0000 H   0  0  0  0  0  0  0  0  0  0  0  0
    3.6974    2.5522    0.0000 H   0  0  0  0  0  0  0  0  0  0  0  0
    3.6614    6.1783    0.0000 H   0  0  0  0  0  0  0  0  0  0  0  0
    0.9258    6.8027    0.0000 H   0  0  0  0  0  0  0  0  0  0  0  0
    4.0219    7.7577    0.0000 H   0  0  0  0  0  0  0  0  0  0  0  0
    1.2863    8.3821    0.0000 H   0  0  0  0  0  0  0  0  0  0  0  0
    2.8343    8.8596    0.0000 H   0  0  0  0  0  0  0  0  0  0  0  0
    6.0129    4.9231    0.0000 H   0  0  0  0  0  0  0  0  0  0  0  0
    5.4723    2.5627    0.0000 H   0  0  0  0  0  0  0  0  0  0  0  0
    3.5064    0.0000    0.0000 H   0  0  0  0  0  0  0  0  0  0  0  0
  1 38  1  0  0  0  0
  2 14  1  0  0  0  0
  2 36  1  0  0  0  0
  3 15  1  0  0  0  0
  3 37  1  0  0  0  0
  4  7  1  0  0  0  0
  4 10  1  0  0  0  0
  4 28  1  0  0  0  0
  5  6  1  0  0  0  0
  5  7  1  0  0  0  0
  5 11  1  6  0  0  0
  5 21  1  0  0  0  0
  6  8  1  0  0  0  0
  6 12  2  0  0  0  0
  7 22  1  0  0  0  0
  7 23  1  0  0  0  0
  8  9  1  0  0  0  0
  8 13  2  0  0  0  0
  9 10  1  0  0  0  0
  9 24  1  0  0  0  0
  9 25  1  0  0  0  0
 10 26  1  0  0  0  0
 10 27  1  0  0  0  0
 11 16  2  0  0  0  0
 11 17  1  0  0  0  0
 12 14  1  0  0  0  0
 12 29  1  0  0  0  0
 13 15  1  0  0  0  0
 13 30  1  0  0  0  0
 14 15  2  0  0  0  0
 16 18  1  0  0  0  0
 16 31  1  0  0  0  0
 17 19  2  0  0  0  0
 17 32  1  0  0  0  0
 18 20  2  0  0  0  0
 18 33  1  0  0  0  0
 19 20  1  0  0  0  0
 19 34  1  0  0  0  0
 20 35  1  0  0  0  0
M  END
> <PUBCHEM_COMPOUND_CID>
44588896

> <PUBCHEM_COMPOUND_CANONICALIZED>
1

> <PUBCHEM_CACTVS_COMPLEXITY>
291

> <PUBCHEM_CACTVS_HBOND_ACCEPTOR>
3

> <PUBCHEM_CACTVS_HBOND_DONOR>
4

> <PUBCHEM_CACTVS_ROTATABLE_BOND>
1

> <PUBCHEM_CACTVS_SUBSKEYS>
AAADceB6MAAAEAAAAAAAAAAAAAAAAAAAAAAwYAAABYAAAAABQAAAHgAQCAAADQTBmAQwBoLAAgCAAiBCAAACAAAgIAAIiIAOiIgJJiKCkROEcAEk0BGJmAeQ0PIOoAABAAAQQABAAAIAACCAAAAAAAAAAA==

> <PUBCHEM_IUPAC_OPENEYE_NAME>
(5R)-5-phenyl-2,3,4,5-tetrahydro-1H-3-benzazepine-7,8-diol;hydrobromide

> <PUBCHEM_IUPAC_CAS_NAME>
(5R)-5-phenyl-2,3,4,5-tetrahydro-1H-3-benzazepine-7,8-diol;hydrobromide

> <PUBCHEM_IUPAC_NAME_MARKUP>
(5<I>R</I>)-5-phenyl-2,3,4,5-tetrahydro-1<I>H</I>-3-benzazepine-7,8-diol;hydrobromide

> <PUBCHEM_IUPAC_NAME>
(5R)-5-phenyl-2,3,4,5-tetrahydro-1H-3-benzazepine-7,8-diol;hydrobromide

> <PUBCHEM_IUPAC_SYSTEMATIC_NAME>
(5R)-5-phenyl-2,3,4,5-tetrahydro-1H-3-benzazepine-7,8-diol;hydrobromide

> <PUBCHEM_IUPAC_TRADITIONAL_NAME>
(5R)-5-phenyl-2,3,4,5-tetrahydro-1H-3-benzazepine-7,8-diol;hydrobromide

> <PUBCHEM_IUPAC_INCHI>
InChI=1S/C16H17NO2.BrH/c18-15-8-12-6-7-17-10-14(13(12)9-16(15)19)11-4-2-1-3-5-11;/h1-5,8-9,14,17-19H,6-7,10H2;1H/t14-;/m1./s1

> <PUBCHEM_IUPAC_INCHIKEY>
INNWVRBZMBCEJI-PFEQFJNWSA-N

> <PUBCHEM_EXACT_MASS>
335.05209

> <PUBCHEM_MOLECULAR_FORMULA>
C16H18BrNO2

> <PUBCHEM_MOLECULAR_WEIGHT>
336.22

> <PUBCHEM_OPENEYE_CAN_SMILES>
C1CNCC(C2=CC(=C(C=C21)O)O)C3=CC=CC=C3.Br

> <PUBCHEM_OPENEYE_ISO_SMILES>
C1CNC[C@@H](C2=CC(=C(C=C21)O)O)C3=CC=CC=C3.Br

> <PUBCHEM_CACTVS_TPSA>
52.5

> <PUBCHEM_MONOISOTOPIC_WEIGHT>
335.05209

> <PUBCHEM_TOTAL_CHARGE>
0

> <PUBCHEM_HEAVY_ATOM_COUNT>
20

> <PUBCHEM_ATOM_DEF_STEREO_COUNT>
1

> <PUBCHEM_ATOM_UDEF_STEREO_COUNT>
0

> <PUBCHEM_BOND_DEF_STEREO_COUNT>
0

> <PUBCHEM_BOND_UDEF_STEREO_COUNT>
0

> <PUBCHEM_ISOTOPIC_ATOM_COUNT>
0

> <PUBCHEM_COMPONENT_COUNT>
2

> <PUBCHEM_CACTVS_TAUTO_COUNT>
-1

> <PUBCHEM_COORDINATE_TYPE>
1
5
255

> <PUBCHEM_BONDANNOTATIONS>
11  16  8
11  17  8
12  14  8
13  15  8
14  15  8
16  18  8
17  19  8
18  20  8
19  20  8
5  11  6
6  12  8
6  8  8
8  13  8

$$$$
