53321194
  -OEChem-09292322312D

 82 87  0     1  0  0  0  0  0999 V2000
    8.8699   -1.0058    0.0000 O   0  0  0  0  0  0  0  0  0  0  0  0
    4.6152    5.5438    0.0000 O   0  0  0  0  0  0  0  0  0  0  0  0
   12.3426   -4.0374    0.0000 N   0  0  3  0  0  0  0  0  0  0  0  0
    6.3125    2.5240    0.0000 N   0  0  0  0  0  0  0  0  0  0  0  0
    4.5921    3.5439    0.0000 N   0  0  0  0  0  0  0  0  0  0  0  0
   11.4844   -3.5404    0.0000 C   0  0  1  0  0  0  0  0  0  0  0  0
   11.4844   -2.5404    0.0000 C   0  0  0  0  0  0  0  0  0  0  0  0
   10.6183   -4.0404    0.0000 C   0  0  0  0  0  0  0  0  0  0  0  0
   13.2080   -3.5532    0.0000 C   0  0  0  0  0  0  0  0  0  0  0  0
   12.3944   -2.0336    0.0000 C   0  0  0  0  0  0  0  0  0  0  0  0
   13.2337   -2.5618    0.0000 C   0  0  0  0  0  0  0  0  0  0  0  0
   10.6183   -2.0404    0.0000 C   0  0  0  0  0  0  0  0  0  0  0  0
    9.7523   -3.5404    0.0000 C   0  0  0  0  0  0  0  0  0  0  0  0
    9.7523   -2.5404    0.0000 C   0  0  0  0  0  0  0  0  0  0  0  0
   12.3352   -5.0374    0.0000 C   0  0  0  0  0  0  0  0  0  0  0  0
   12.4024   -0.9920    0.0000 C   0  0  0  0  0  0  0  0  0  0  0  0
   10.6023   -0.9989    0.0000 C   0  0  0  0  0  0  0  0  0  0  0  0
   13.1975   -5.5437    0.0000 C   0  0  0  0  0  0  0  0  0  0  0  0
    8.8584   -2.0058    0.0000 C   0  0  0  0  0  0  0  0  0  0  0  0
    8.8584   -4.0751    0.0000 C   0  0  0  0  0  0  0  0  0  0  0  0
   11.5003   -0.4712    0.0000 C   0  0  0  0  0  0  0  0  0  0  0  0
    6.3241    3.5239    0.0000 C   0  0  0  0  0  0  0  0  0  0  0  0
    5.4407    2.0340    0.0000 C   0  0  0  0  0  0  0  0  0  0  0  0
    7.9523   -2.5196    0.0000 C   0  0  0  0  0  0  0  0  0  0  0  0
    7.1727    2.0140    0.0000 C   0  0  0  0  0  0  0  0  0  0  0  0
    7.9523   -3.5613    0.0000 C   0  0  0  0  0  0  0  0  0  0  0  0
    5.4639    4.0339    0.0000 C   0  0  0  0  0  0  0  0  0  0  0  0
    4.5806    2.5440    0.0000 C   0  0  0  0  0  0  0  0  0  0  0  0
    7.1611    1.0140    0.0000 C   0  0  0  0  0  0  0  0  0  0  0  0
   13.1901   -6.5437    0.0000 C   0  0  0  0  0  0  0  0  0  0  0  0
    8.0213    0.5041    0.0000 C   0  0  0  0  0  0  0  0  0  0  0  0
    8.0097   -0.4959    0.0000 C   0  0  0  0  0  0  0  0  0  0  0  0
    3.7319    4.0539    0.0000 C   0  0  0  0  0  0  0  0  0  0  0  0
    3.7435    5.0538    0.0000 C   0  0  0  0  0  0  0  0  0  0  0  0
    2.8602    3.5640    0.0000 C   0  0  0  0  0  0  0  0  0  0  0  0
    2.8833    5.5638    0.0000 C   0  0  0  0  0  0  0  0  0  0  0  0
    2.0000    4.0739    0.0000 C   0  0  0  0  0  0  0  0  0  0  0  0
    2.0116    5.0739    0.0000 C   0  0  0  0  0  0  0  0  0  0  0  0
    4.6268    6.5437    0.0000 C   0  0  0  0  0  0  0  0  0  0  0  0
   11.4838   -4.3905    0.0000 H   0  0  0  0  0  0  0  0  0  0  0  0
   10.2198   -4.5154    0.0000 H   0  0  0  0  0  0  0  0  0  0  0  0
   11.0169   -4.5154    0.0000 H   0  0  0  0  0  0  0  0  0  0  0  0
   13.4098   -4.1395    0.0000 H   0  0  0  0  0  0  0  0  0  0  0  0
   13.8208   -3.4588    0.0000 H   0  0  0  0  0  0  0  0  0  0  0  0
   13.8408   -2.6877    0.0000 H   0  0  0  0  0  0  0  0  0  0  0  0
   13.4654   -1.9868    0.0000 H   0  0  0  0  0  0  0  0  0  0  0  0
   11.7254   -4.9252    0.0000 H   0  0  0  0  0  0  0  0  0  0  0  0
   12.1188   -5.6184    0.0000 H   0  0  0  0  0  0  0  0  0  0  0  0
   12.9405   -0.6841    0.0000 H   0  0  0  0  0  0  0  0  0  0  0  0
   10.0618   -0.6952    0.0000 H   0  0  0  0  0  0  0  0  0  0  0  0
   13.8072   -5.6559    0.0000 H   0  0  0  0  0  0  0  0  0  0  0  0
   13.4138   -4.9627    0.0000 H   0  0  0  0  0  0  0  0  0  0  0  0
    8.8655   -4.6951    0.0000 H   0  0  0  0  0  0  0  0  0  0  0  0
   11.4979    0.1488    0.0000 H   0  0  0  0  0  0  0  0  0  0  0  0
    6.9334    3.4092    0.0000 H   0  0  0  0  0  0  0  0  0  0  0  0
    6.5428    4.1040    0.0000 H   0  0  0  0  0  0  0  0  0  0  0  0
    5.0367    1.5637    0.0000 H   0  0  0  0  0  0  0  0  0  0  0  0
    5.8338    1.5545    0.0000 H   0  0  0  0  0  0  0  0  0  0  0  0
    7.4166   -2.2076    0.0000 H   0  0  0  0  0  0  0  0  0  0  0  0
    7.7820    1.8993    0.0000 H   0  0  0  0  0  0  0  0  0  0  0  0
    7.3914    2.5941    0.0000 H   0  0  0  0  0  0  0  0  0  0  0  0
    7.4166   -3.8733    0.0000 H   0  0  0  0  0  0  0  0  0  0  0  0
    5.8679    4.5042    0.0000 H   0  0  0  0  0  0  0  0  0  0  0  0
    5.0709    4.5134    0.0000 H   0  0  0  0  0  0  0  0  0  0  0  0
    3.9713    2.6587    0.0000 H   0  0  0  0  0  0  0  0  0  0  0  0
    4.3618    1.9639    0.0000 H   0  0  0  0  0  0  0  0  0  0  0  0
    6.5518    1.1288    0.0000 H   0  0  0  0  0  0  0  0  0  0  0  0
    6.9423    0.4339    0.0000 H   0  0  0  0  0  0  0  0  0  0  0  0
   12.5701   -6.5391    0.0000 H   0  0  0  0  0  0  0  0  0  0  0  0
   13.1855   -7.1637    0.0000 H   0  0  0  0  0  0  0  0  0  0  0  0
   13.8101   -6.5483    0.0000 H   0  0  0  0  0  0  0  0  0  0  0  0
    8.6306    0.3893    0.0000 H   0  0  0  0  0  0  0  0  0  0  0  0
    8.2401    1.0842    0.0000 H   0  0  0  0  0  0  0  0  0  0  0  0
    7.4004   -0.3812    0.0000 H   0  0  0  0  0  0  0  0  0  0  0  0
    7.7910   -1.0760    0.0000 H   0  0  0  0  0  0  0  0  0  0  0  0
    2.8530    2.9440    0.0000 H   0  0  0  0  0  0  0  0  0  0  0  0
    2.8905    6.1838    0.0000 H   0  0  0  0  0  0  0  0  0  0  0  0
    1.4595    3.7702    0.0000 H   0  0  0  0  0  0  0  0  0  0  0  0
    1.4782    5.3900    0.0000 H   0  0  0  0  0  0  0  0  0  0  0  0
    5.2468    6.5366    0.0000 H   0  0  0  0  0  0  0  0  0  0  0  0
    4.6340    7.1637    0.0000 H   0  0  0  0  0  0  0  0  0  0  0  0
    4.0068    6.5509    0.0000 H   0  0  0  0  0  0  0  0  0  0  0  0
  1 19  1  0  0  0  0
  1 32  1  0  0  0  0
  2 34  1  0  0  0  0
  2 39  1  0  0  0  0
  3  6  1  0  0  0  0
  3  9  1  0  0  0  0
  3 15  1  0  0  0  0
  4 22  1  0  0  0  0
  4 23  1  0  0  0  0
  4 25  1  0  0  0  0
  5 27  1  0  0  0  0
  5 28  1  0  0  0  0
  5 33  1  0  0  0  0
  6  7  1  0  0  0  0
  6  8  1  0  0  0  0
  6 40  1  1  0  0  0
  7 10  2  0  0  0  0
  7 12  1  0  0  0  0
  8 13  1  0  0  0  0
  8 41  1  0  0  0  0
  8 42  1  0  0  0  0
  9 11  1  0  0  0  0
  9 43  1  0  0  0  0
  9 44  1  0  0  0  0
 10 11  1  0  0  0  0
 10 16  1  0  0  0  0
 11 45  1  0  0  0  0
 11 46  1  0  0  0  0
 12 14  1  0  0  0  0
 12 17  2  0  0  0  0
 13 14  2  0  0  0  0
 13 20  1  0  0  0  0
 14 19  1  0  0  0  0
 15 18  1  0  0  0  0
 15 47  1  0  0  0  0
 15 48  1  0  0  0  0
 16 21  2  0  0  0  0
 16 49  1  0  0  0  0
 17 21  1  0  0  0  0
 17 50  1  0  0  0  0
 18 30  1  0  0  0  0
 18 51  1  0  0  0  0
 18 52  1  0  0  0  0
 19 24  2  0  0  0  0
 20 26  2  0  0  0  0
 20 53  1  0  0  0  0
 21 54  1  0  0  0  0
 22 27  1  0  0  0  0
 22 55  1  0  0  0  0
 22 56  1  0  0  0  0
 23 28  1  0  0  0  0
 23 57  1  0  0  0  0
 23 58  1  0  0  0  0
 24 26  1  0  0  0  0
 24 59  1  0  0  0  0
 25 29  1  0  0  0  0
 25 60  1  0  0  0  0
 25 61  1  0  0  0  0
 26 62  1  0  0  0  0
 27 63  1  0  0  0  0
 27 64  1  0  0  0  0
 28 65  1  0  0  0  0
 28 66  1  0  0  0  0
 29 31  1  0  0  0  0
 29 67  1  0  0  0  0
 29 68  1  0  0  0  0
 30 69  1  0  0  0  0
 30 70  1  0  0  0  0
 30 71  1  0  0  0  0
 31 32  1  0  0  0  0
 31 72  1  0  0  0  0
 31 73  1  0  0  0  0
 32 74  1  0  0  0  0
 32 75  1  0  0  0  0
 33 34  1  0  0  0  0
 33 35  2  0  0  0  0
 34 36  2  0  0  0  0
 35 37  1  0  0  0  0
 35 76  1  0  0  0  0
 36 38  1  0  0  0  0
 36 77  1  0  0  0  0
 37 38  2  0  0  0  0
 37 78  1  0  0  0  0
 38 79  1  0  0  0  0
 39 80  1  0  0  0  0
 39 81  1  0  0  0  0
 39 82  1  0  0  0  0
M  END
> <PUBCHEM_COMPOUND_CID>
53321194

> <PUBCHEM_COMPOUND_CANONICALIZED>
1

> <PUBCHEM_CACTVS_COMPLEXITY>
742

> <PUBCHEM_CACTVS_HBOND_ACCEPTOR>
5

> <PUBCHEM_CACTVS_HBOND_DONOR>
0

> <PUBCHEM_CACTVS_ROTATABLE_BOND>
10

> <PUBCHEM_CACTVS_SUBSKEYS>
AAADcfB/MAAAAAAAAAAAAAAAAAAAAAAAAAA8eMGCAAAAAADxUAAAHgAAAAAADCzhmAYyxoMABACAAiRCQACCCAAhIgAIiAAPbIgOZiLEsZuXOCjkwBHY6Aew0PMOgAADAAAYEACQAAaAADQgAAAAAAAAAA==

> <PUBCHEM_IUPAC_OPENEYE_NAME>
(6aR)-11-[4-[4-(2-methoxyphenyl)piperazin-1-yl]butoxy]-6-propyl-5,6,6a,7-tetrahydro-4H-dibenzo[de,g]quinoline

> <PUBCHEM_IUPAC_CAS_NAME>
(6aR)-11-[4-[4-(2-methoxyphenyl)-1-piperazinyl]butoxy]-6-propyl-5,6,6a,7-tetrahydro-4H-dibenzo[de,g]quinoline

> <PUBCHEM_IUPAC_NAME_MARKUP>
(6<I>a</I><I>R</I>)-11-[4-[4-(2-methoxyphenyl)piperazin-1-yl]butoxy]-6-propyl-5,6,6<I>a</I>,7-tetrahydro-4<I>H</I>-dibenzo[de,g]quinoline

> <PUBCHEM_IUPAC_NAME>
(6aR)-11-[4-[4-(2-methoxyphenyl)piperazin-1-yl]butoxy]-6-propyl-5,6,6a,7-tetrahydro-4H-dibenzo[de,g]quinoline

> <PUBCHEM_IUPAC_SYSTEMATIC_NAME>
(6aR)-11-[4-[4-(2-methoxyphenyl)piperazin-1-yl]butoxy]-6-propyl-5,6,6a,7-tetrahydro-4H-dibenzo[de,g]quinoline

> <PUBCHEM_IUPAC_TRADITIONAL_NAME>
(6aR)-11-[4-[4-(2-methoxyphenyl)piperazino]butoxy]-6-propyl-5,6,6a,7-tetrahydro-4H-dibenzo[de,g]quinoline

> <PUBCHEM_IUPAC_INCHI>
InChI=1S/C34H43N3O2/c1-3-17-36-19-16-26-10-8-12-28-33(26)30(36)25-27-11-9-15-32(34(27)28)39-24-7-6-18-35-20-22-37(23-21-35)29-13-4-5-14-31(29)38-2/h4-5,8-15,30H,3,6-7,16-25H2,1-2H3/t30-/m1/s1

> <PUBCHEM_IUPAC_INCHIKEY>
SNXPYOZDXRKEER-SSEXGKCCSA-N

> <PUBCHEM_XLOGP3_AA>
6.7

> <PUBCHEM_EXACT_MASS>
525.33552762

> <PUBCHEM_MOLECULAR_FORMULA>
C34H43N3O2

> <PUBCHEM_MOLECULAR_WEIGHT>
525.7

> <PUBCHEM_OPENEYE_CAN_SMILES>
CCCN1CCC2=C3C1CC4=C(C3=CC=C2)C(=CC=C4)OCCCCN5CCN(CC5)C6=CC=CC=C6OC

> <PUBCHEM_OPENEYE_ISO_SMILES>
CCCN1CCC2=C3[C@H]1CC4=C(C3=CC=C2)C(=CC=C4)OCCCCN5CCN(CC5)C6=CC=CC=C6OC

> <PUBCHEM_CACTVS_TPSA>
28.2

> <PUBCHEM_MONOISOTOPIC_WEIGHT>
525.33552762

> <PUBCHEM_TOTAL_CHARGE>
0

> <PUBCHEM_HEAVY_ATOM_COUNT>
39

> <PUBCHEM_ATOM_DEF_STEREO_COUNT>
1

> <PUBCHEM_ATOM_UDEF_STEREO_COUNT>
0

> <PUBCHEM_BOND_DEF_STEREO_COUNT>
0

> <PUBCHEM_BOND_UDEF_STEREO_COUNT>
0

> <PUBCHEM_ISOTOPIC_ATOM_COUNT>
0

> <PUBCHEM_COMPONENT_COUNT>
1

> <PUBCHEM_CACTVS_TAUTO_COUNT>
-1

> <PUBCHEM_COORDINATE_TYPE>
1
5
255

> <PUBCHEM_BONDANNOTATIONS>
10  16  8
12  17  8
13  14  8
13  20  8
14  19  8
16  21  8
17  21  8
19  24  8
20  26  8
24  26  8
33  34  8
33  35  8
34  36  8
35  37  8
36  38  8
37  38  8
6  40  5
7  10  8
7  12  8

$$$$
