142573406
  -OEChem-09292322462D

 76 80  0     0  0  0  0  0  0999 V2000
    4.6701   -3.2148    0.0000 S   0  0  0  0  0  0  0  0  0  0  0  0
    8.1342    4.7852    0.0000 O   0  0  0  0  0  0  0  0  0  0  0  0
    6.4021    7.7852    0.0000 O   0  0  0  0  0  0  0  0  0  0  0  0
    6.4021   -0.2148    0.0000 N   0  0  0  0  0  0  0  0  0  0  0  0
    6.4021    3.7852    0.0000 N   0  0  0  0  0  0  0  0  0  0  0  0
    3.8611   -4.8026    0.0000 N   0  0  0  0  0  0  0  0  0  0  0  0
    5.4791   -4.8026    0.0000 N   0  0  0  0  0  0  0  0  0  0  0  0
    5.1701   -5.7536    0.0000 N   0  0  0  0  0  0  0  0  0  0  0  0
    6.4021    1.7852    0.0000 C   0  0  0  0  0  0  0  0  0  0  0  0
    5.5361    1.2852    0.0000 C   0  0  0  0  0  0  0  0  0  0  0  0
    7.2682    1.2852    0.0000 C   0  0  0  0  0  0  0  0  0  0  0  0
    7.2682    2.2852    0.0000 C   0  0  0  0  0  0  0  0  0  0  0  0
    5.5361    2.2852    0.0000 C   0  0  0  0  0  0  0  0  0  0  0  0
    5.5361    0.2852    0.0000 C   0  0  0  0  0  0  0  0  0  0  0  0
    7.2682    0.2852    0.0000 C   0  0  0  0  0  0  0  0  0  0  0  0
    7.2682    3.2852    0.0000 C   0  0  0  0  0  0  0  0  0  0  0  0
    5.5361    3.2852    0.0000 C   0  0  0  0  0  0  0  0  0  0  0  0
    6.4021   -1.2148    0.0000 C   0  0  0  0  0  0  0  0  0  0  0  0
    6.4021    4.7852    0.0000 C   0  0  0  0  0  0  0  0  0  0  0  0
    5.5361   -1.7148    0.0000 C   0  0  0  0  0  0  0  0  0  0  0  0
    7.2682    5.2852    0.0000 C   0  0  0  0  0  0  0  0  0  0  0  0
    5.5361    5.2852    0.0000 C   0  0  0  0  0  0  0  0  0  0  0  0
    5.5361   -2.7148    0.0000 C   0  0  0  0  0  0  0  0  0  0  0  0
    7.2682    6.2852    0.0000 C   0  0  0  0  0  0  0  0  0  0  0  0
    5.5361    6.2852    0.0000 C   0  0  0  0  0  0  0  0  0  0  0  0
    6.4021    6.7852    0.0000 C   0  0  0  0  0  0  0  0  0  0  0  0
    9.0002    5.2852    0.0000 C   0  0  0  0  0  0  0  0  0  0  0  0
    4.6701   -4.2148    0.0000 C   0  0  0  0  0  0  0  0  0  0  0  0
    5.5361    8.2852    0.0000 C   0  0  0  0  0  0  0  0  0  0  0  0
    4.1701   -5.7536    0.0000 C   0  0  0  0  0  0  0  0  0  0  0  0
    2.9100   -4.4936    0.0000 C   0  0  0  0  0  0  0  0  0  0  0  0
    3.5823   -6.5626    0.0000 C   0  0  0  0  0  0  0  0  0  0  0  0
    3.9890   -7.4762    0.0000 C   0  0  0  0  0  0  0  0  0  0  0  0
    2.5878   -6.4581    0.0000 C   0  0  0  0  0  0  0  0  0  0  0  0
    3.4013   -8.2852    0.0000 C   0  0  0  0  0  0  0  0  0  0  0  0
    2.0000   -7.2671    0.0000 C   0  0  0  0  0  0  0  0  0  0  0  0
    2.4067   -8.1807    0.0000 C   0  0  0  0  0  0  0  0  0  0  0  0
    5.3241    1.8678    0.0000 H   0  0  0  0  0  0  0  0  0  0  0  0
    4.9255    1.1776    0.0000 H   0  0  0  0  0  0  0  0  0  0  0  0
    7.8788    1.1776    0.0000 H   0  0  0  0  0  0  0  0  0  0  0  0
    7.4802    1.8678    0.0000 H   0  0  0  0  0  0  0  0  0  0  0  0
    7.4802    1.7026    0.0000 H   0  0  0  0  0  0  0  0  0  0  0  0
    7.8788    2.3929    0.0000 H   0  0  0  0  0  0  0  0  0  0  0  0
    4.9255    2.3929    0.0000 H   0  0  0  0  0  0  0  0  0  0  0  0
    5.3241    1.7026    0.0000 H   0  0  0  0  0  0  0  0  0  0  0  0
    4.9255    0.3929    0.0000 H   0  0  0  0  0  0  0  0  0  0  0  0
    5.3241   -0.2974    0.0000 H   0  0  0  0  0  0  0  0  0  0  0  0
    7.4802   -0.2974    0.0000 H   0  0  0  0  0  0  0  0  0  0  0  0
    7.8788    0.3929    0.0000 H   0  0  0  0  0  0  0  0  0  0  0  0
    7.8788    3.1776    0.0000 H   0  0  0  0  0  0  0  0  0  0  0  0
    7.4802    3.8678    0.0000 H   0  0  0  0  0  0  0  0  0  0  0  0
    5.3241    3.8678    0.0000 H   0  0  0  0  0  0  0  0  0  0  0  0
    4.9255    3.1776    0.0000 H   0  0  0  0  0  0  0  0  0  0  0  0
    6.6142   -1.7974    0.0000 H   0  0  0  0  0  0  0  0  0  0  0  0
    7.0127   -1.1071    0.0000 H   0  0  0  0  0  0  0  0  0  0  0  0
    5.3241   -1.1322    0.0000 H   0  0  0  0  0  0  0  0  0  0  0  0
    4.9255   -1.8224    0.0000 H   0  0  0  0  0  0  0  0  0  0  0  0
    4.9992    4.9752    0.0000 H   0  0  0  0  0  0  0  0  0  0  0  0
    5.7482   -3.2974    0.0000 H   0  0  0  0  0  0  0  0  0  0  0  0
    6.1467   -2.6071    0.0000 H   0  0  0  0  0  0  0  0  0  0  0  0
    7.8051    6.5952    0.0000 H   0  0  0  0  0  0  0  0  0  0  0  0
    4.9992    6.5952    0.0000 H   0  0  0  0  0  0  0  0  0  0  0  0
    9.3102    4.7483    0.0000 H   0  0  0  0  0  0  0  0  0  0  0  0
    9.5372    5.5952    0.0000 H   0  0  0  0  0  0  0  0  0  0  0  0
    8.6902    5.8222    0.0000 H   0  0  0  0  0  0  0  0  0  0  0  0
    5.8461    8.8222    0.0000 H   0  0  0  0  0  0  0  0  0  0  0  0
    4.9992    8.5952    0.0000 H   0  0  0  0  0  0  0  0  0  0  0  0
    5.2261    7.7483    0.0000 H   0  0  0  0  0  0  0  0  0  0  0  0
    3.1016   -3.9039    0.0000 H   0  0  0  0  0  0  0  0  0  0  0  0
    2.3204   -4.3020    0.0000 H   0  0  0  0  0  0  0  0  0  0  0  0
    2.7184   -5.0832    0.0000 H   0  0  0  0  0  0  0  0  0  0  0  0
    4.6056   -7.5410    0.0000 H   0  0  0  0  0  0  0  0  0  0  0  0
    2.3356   -5.8917    0.0000 H   0  0  0  0  0  0  0  0  0  0  0  0
    3.6534   -8.8516    0.0000 H   0  0  0  0  0  0  0  0  0  0  0  0
    1.3834   -7.2023    0.0000 H   0  0  0  0  0  0  0  0  0  0  0  0
    2.0423   -8.6823    0.0000 H   0  0  0  0  0  0  0  0  0  0  0  0
  1 23  1  0  0  0  0
  1 28  1  0  0  0  0
  2 21  1  0  0  0  0
  2 27  1  0  0  0  0
  3 26  1  0  0  0  0
  3 29  1  0  0  0  0
  4 14  1  0  0  0  0
  4 15  1  0  0  0  0
  4 18  1  0  0  0  0
  5 16  1  0  0  0  0
  5 17  1  0  0  0  0
  5 19  1  0  0  0  0
  6 28  1  0  0  0  0
  6 30  1  0  0  0  0
  6 31  1  0  0  0  0
  7  8  1  0  0  0  0
  7 28  2  0  0  0  0
  8 30  2  0  0  0  0
  9 10  1  0  0  0  0
  9 11  1  0  0  0  0
  9 12  1  0  0  0  0
  9 13  1  0  0  0  0
 10 14  1  0  0  0  0
 10 38  1  0  0  0  0
 10 39  1  0  0  0  0
 11 15  1  0  0  0  0
 11 40  1  0  0  0  0
 11 41  1  0  0  0  0
 12 16  1  0  0  0  0
 12 42  1  0  0  0  0
 12 43  1  0  0  0  0
 13 17  1  0  0  0  0
 13 44  1  0  0  0  0
 13 45  1  0  0  0  0
 14 46  1  0  0  0  0
 14 47  1  0  0  0  0
 15 48  1  0  0  0  0
 15 49  1  0  0  0  0
 16 50  1  0  0  0  0
 16 51  1  0  0  0  0
 17 52  1  0  0  0  0
 17 53  1  0  0  0  0
 18 20  1  0  0  0  0
 18 54  1  0  0  0  0
 18 55  1  0  0  0  0
 19 21  2  0  0  0  0
 19 22  1  0  0  0  0
 20 23  1  0  0  0  0
 20 56  1  0  0  0  0
 20 57  1  0  0  0  0
 21 24  1  0  0  0  0
 22 25  2  0  0  0  0
 22 58  1  0  0  0  0
 23 59  1  0  0  0  0
 23 60  1  0  0  0  0
 24 26  2  0  0  0  0
 24 61  1  0  0  0  0
 25 26  1  0  0  0  0
 25 62  1  0  0  0  0
 27 63  1  0  0  0  0
 27 64  1  0  0  0  0
 27 65  1  0  0  0  0
 29 66  1  0  0  0  0
 29 67  1  0  0  0  0
 29 68  1  0  0  0  0
 30 32  1  0  0  0  0
 31 69  1  0  0  0  0
 31 70  1  0  0  0  0
 31 71  1  0  0  0  0
 32 33  2  0  0  0  0
 32 34  1  0  0  0  0
 33 35  1  0  0  0  0
 33 72  1  0  0  0  0
 34 36  2  0  0  0  0
 34 73  1  0  0  0  0
 35 37  2  0  0  0  0
 35 74  1  0  0  0  0
 36 37  1  0  0  0  0
 36 75  1  0  0  0  0
 37 76  1  0  0  0  0
M  END
> <PUBCHEM_COMPOUND_CID>
142573406

> <PUBCHEM_COMPOUND_CANONICALIZED>
1

> <PUBCHEM_CACTVS_COMPLEXITY>
677

> <PUBCHEM_CACTVS_HBOND_ACCEPTOR>
7

> <PUBCHEM_CACTVS_HBOND_DONOR>
0

> <PUBCHEM_CACTVS_ROTATABLE_BOND>
9

> <PUBCHEM_CACTVS_SUBSKEYS>
AAADcfB7sABAAAAAAAAAAAAAAAAAAWAAAAA8eIEAAAAAAAAB0AAAHgQIAAAADgzF2waz1ocMFAiiAiZiZACS2AthIrAdyCAvbJiOL6LkuZuFMChlyBfY6Aew4AwPAEAACAAAEAAAgAAQAAAgAAAAAAAAAA==

> <PUBCHEM_IUPAC_OPENEYE_NAME>
3-(2,4-dimethoxyphenyl)-9-[3-[(4-methyl-5-phenyl-1,2,4-triazol-3-yl)sulfanyl]propyl]-3,9-diazaspiro[5.5]undecane

> <PUBCHEM_IUPAC_CAS_NAME>
3-(2,4-dimethoxyphenyl)-9-[3-[(4-methyl-5-phenyl-1,2,4-triazol-3-yl)thio]propyl]-3,9-diazaspiro[5.5]undecane

> <PUBCHEM_IUPAC_NAME_MARKUP>
3-(2,4-dimethoxyphenyl)-9-[3-[(4-methyl-5-phenyl-1,2,4-triazol-3-yl)sulfanyl]propyl]-3,9-diazaspiro[5.5]undecane

> <PUBCHEM_IUPAC_NAME>
3-(2,4-dimethoxyphenyl)-9-[3-[(4-methyl-5-phenyl-1,2,4-triazol-3-yl)sulfanyl]propyl]-3,9-diazaspiro[5.5]undecane

> <PUBCHEM_IUPAC_SYSTEMATIC_NAME>
3-(2,4-dimethoxyphenyl)-9-[3-[(4-methyl-5-phenyl-1,2,4-triazol-3-yl)sulfanyl]propyl]-3,9-diazaspiro[5.5]undecane

> <PUBCHEM_IUPAC_TRADITIONAL_NAME>
3-(2,4-dimethoxyphenyl)-9-[3-[(4-methyl-5-phenyl-1,2,4-triazol-3-yl)thio]propyl]-3,9-diazaspiro[5.5]undecane

> <PUBCHEM_IUPAC_INCHI>
InChI=1S/C29H39N5O2S/c1-32-27(23-8-5-4-6-9-23)30-31-28(32)37-21-7-16-33-17-12-29(13-18-33)14-19-34(20-15-29)25-11-10-24(35-2)22-26(25)36-3/h4-6,8-11,22H,7,12-21H2,1-3H3

> <PUBCHEM_IUPAC_INCHIKEY>
JYIFYWJACLGHFJ-UHFFFAOYSA-N

> <PUBCHEM_XLOGP3_AA>
5.2

> <PUBCHEM_EXACT_MASS>
521.28244668

> <PUBCHEM_MOLECULAR_FORMULA>
C29H39N5O2S

> <PUBCHEM_MOLECULAR_WEIGHT>
521.7

> <PUBCHEM_OPENEYE_CAN_SMILES>
CN1C(=NN=C1SCCCN2CCC3(CC2)CCN(CC3)C4=C(C=C(C=C4)OC)OC)C5=CC=CC=C5

> <PUBCHEM_OPENEYE_ISO_SMILES>
CN1C(=NN=C1SCCCN2CCC3(CC2)CCN(CC3)C4=C(C=C(C=C4)OC)OC)C5=CC=CC=C5

> <PUBCHEM_CACTVS_TPSA>
81

> <PUBCHEM_MONOISOTOPIC_WEIGHT>
521.28244668

> <PUBCHEM_TOTAL_CHARGE>
0

> <PUBCHEM_HEAVY_ATOM_COUNT>
37

> <PUBCHEM_ATOM_DEF_STEREO_COUNT>
0

> <PUBCHEM_ATOM_UDEF_STEREO_COUNT>
0

> <PUBCHEM_BOND_DEF_STEREO_COUNT>
0

> <PUBCHEM_BOND_UDEF_STEREO_COUNT>
0

> <PUBCHEM_ISOTOPIC_ATOM_COUNT>
0

> <PUBCHEM_COMPONENT_COUNT>
1

> <PUBCHEM_CACTVS_TAUTO_COUNT>
-1

> <PUBCHEM_COORDINATE_TYPE>
1
5
255

> <PUBCHEM_BONDANNOTATIONS>
19  21  8
19  22  8
21  24  8
22  25  8
24  26  8
25  26  8
32  33  8
32  34  8
33  35  8
34  36  8
35  37  8
36  37  8
6  28  8
6  30  8
7  28  8
7  8  8
8  30  8

$$$$
