118711260
  -OEChem-09292322472D

 46 49  0     1  0  0  0  0  0999 V2000
    7.8547    0.1154    0.0000 O   0  0  0  0  0  0  0  0  0  0  0  0
    3.0000   -0.9088    0.0000 N   0  0  3  0  0  0  0  0  0  0  0  0
    7.8547   -1.9329    0.0000 N   0  0  0  0  0  0  0  0  0  0  0  0
    4.4088    0.2147    0.0000 C   0  0  3  0  0  0  0  0  0  0  0  0
    3.4339   -0.0078    0.0000 C   0  0  0  0  0  0  0  0  0  0  0  0
    5.1906   -0.4088    0.0000 C   0  0  0  0  0  0  0  0  0  0  0  0
    5.1906   -1.4088    0.0000 C   0  0  0  0  0  0  0  0  0  0  0  0
    4.4088   -2.0322    0.0000 C   0  0  0  0  0  0  0  0  0  0  0  0
    3.4339   -1.8097    0.0000 C   0  0  0  0  0  0  0  0  0  0  0  0
    4.6313    1.1897    0.0000 C   0  0  0  0  0  0  0  0  0  0  0  0
    6.0846    0.1259    0.0000 C   0  0  0  0  0  0  0  0  0  0  0  0
    6.0846   -1.9434    0.0000 C   0  0  0  0  0  0  0  0  0  0  0  0
    6.9906   -1.4296    0.0000 C   0  0  0  0  0  0  0  0  0  0  0  0
    2.0000   -0.9088    0.0000 C   0  0  0  0  0  0  0  0  0  0  0  0
    6.9906   -0.3879    0.0000 C   0  0  0  0  0  0  0  0  0  0  0  0
    5.5869    1.4844    0.0000 C   0  0  0  0  0  0  0  0  0  0  0  0
    3.8983    1.8698    0.0000 C   0  0  0  0  0  0  0  0  0  0  0  0
    5.8094    2.4593    0.0000 C   0  0  0  0  0  0  0  0  0  0  0  0
    4.1208    2.8448    0.0000 C   0  0  0  0  0  0  0  0  0  0  0  0
    5.0764    3.1395    0.0000 C   0  0  0  0  0  0  0  0  0  0  0  0
    7.9554   -2.9278    0.0000 C   0  0  0  0  0  0  0  0  0  0  0  0
    8.7698   -1.5297    0.0000 C   0  0  0  0  0  0  0  0  0  0  0  0
    8.9328   -3.1395    0.0000 C   0  0  0  0  0  0  0  0  0  0  0  0
    9.4361   -2.2754    0.0000 C   0  0  0  0  0  0  0  0  0  0  0  0
    3.9704    0.6531    0.0000 H   0  0  0  0  0  0  0  0  0  0  0  0
    3.4339    0.6122    0.0000 H   0  0  0  0  0  0  0  0  0  0  0  0
    2.8294    0.1302    0.0000 H   0  0  0  0  0  0  0  0  0  0  0  0
    4.1398   -2.5908    0.0000 H   0  0  0  0  0  0  0  0  0  0  0  0
    4.8936   -2.4188    0.0000 H   0  0  0  0  0  0  0  0  0  0  0  0
    2.8294   -1.9477    0.0000 H   0  0  0  0  0  0  0  0  0  0  0  0
    3.4339   -2.4297    0.0000 H   0  0  0  0  0  0  0  0  0  0  0  0
    6.0774    0.7459    0.0000 H   0  0  0  0  0  0  0  0  0  0  0  0
    6.0774   -2.5634    0.0000 H   0  0  0  0  0  0  0  0  0  0  0  0
    2.0000   -0.2888    0.0000 H   0  0  0  0  0  0  0  0  0  0  0  0
    1.3800   -0.9088    0.0000 H   0  0  0  0  0  0  0  0  0  0  0  0
    2.0000   -1.5288    0.0000 H   0  0  0  0  0  0  0  0  0  0  0  0
    6.0414    1.0627    0.0000 H   0  0  0  0  0  0  0  0  0  0  0  0
    3.3058    1.6871    0.0000 H   0  0  0  0  0  0  0  0  0  0  0  0
    6.4019    2.6421    0.0000 H   0  0  0  0  0  0  0  0  0  0  0  0
    3.6663    3.2665    0.0000 H   0  0  0  0  0  0  0  0  0  0  0  0
    5.2143    3.7440    0.0000 H   0  0  0  0  0  0  0  0  0  0  0  0
    7.4931   -3.3409    0.0000 H   0  0  0  0  0  0  0  0  0  0  0  0
    8.9011   -0.9238    0.0000 H   0  0  0  0  0  0  0  0  0  0  0  0
    7.8524    0.7354    0.0000 H   0  0  0  0  0  0  0  0  0  0  0  0
    9.1828   -3.7069    0.0000 H   0  0  0  0  0  0  0  0  0  0  0  0
   10.0530   -2.2130    0.0000 H   0  0  0  0  0  0  0  0  0  0  0  0
  1 15  1  0  0  0  0
  1 44  1  0  0  0  0
  2  5  1  0  0  0  0
  2  9  1  0  0  0  0
  2 14  1  0  0  0  0
  3 13  1  0  0  0  0
  3 21  1  0  0  0  0
  3 22  1  0  0  0  0
  4  5  1  0  0  0  0
  4  6  1  0  0  0  0
  4 10  1  0  0  0  0
  4 25  1  0  0  0  0
  5 26  1  0  0  0  0
  5 27  1  0  0  0  0
  6  7  1  0  0  0  0
  6 11  2  0  0  0  0
  7  8  1  0  0  0  0
  7 12  2  0  0  0  0
  8  9  1  0  0  0  0
  8 28  1  0  0  0  0
  8 29  1  0  0  0  0
  9 30  1  0  0  0  0
  9 31  1  0  0  0  0
 10 16  2  0  0  0  0
 10 17  1  0  0  0  0
 11 15  1  0  0  0  0
 11 32  1  0  0  0  0
 12 13  1  0  0  0  0
 12 33  1  0  0  0  0
 13 15  2  0  0  0  0
 14 34  1  0  0  0  0
 14 35  1  0  0  0  0
 14 36  1  0  0  0  0
 16 18  1  0  0  0  0
 16 37  1  0  0  0  0
 17 19  2  0  0  0  0
 17 38  1  0  0  0  0
 18 20  2  0  0  0  0
 18 39  1  0  0  0  0
 19 20  1  0  0  0  0
 19 40  1  0  0  0  0
 20 41  1  0  0  0  0
 21 23  2  0  0  0  0
 21 42  1  0  0  0  0
 22 24  2  0  0  0  0
 22 43  1  0  0  0  0
 23 24  1  0  0  0  0
 23 45  1  0  0  0  0
 24 46  1  0  0  0  0
M  END
> <PUBCHEM_COMPOUND_CID>
118711260

> <PUBCHEM_COMPOUND_CANONICALIZED>
1

> <PUBCHEM_CACTVS_COMPLEXITY>
403

> <PUBCHEM_CACTVS_HBOND_ACCEPTOR>
2

> <PUBCHEM_CACTVS_HBOND_DONOR>
1

> <PUBCHEM_CACTVS_ROTATABLE_BOND>
2

> <PUBCHEM_CACTVS_SUBSKEYS>
AAADceB7IAAAAAAAAAAAAAAAAAAAAWAAAAAwYAAABYAAAAAB0AAAHgAACAAADQzBmgQ+xpMMEgCgAjRnRACCgCAxIiAI2CA/bJgKJuLSkZOEcAhkwBHY2AeQ0PIOqAABQAAQEABQAAKAACAgAAAAAAAAAA==

> <PUBCHEM_IUPAC_OPENEYE_NAME>
3-methyl-5-phenyl-8-pyrrol-1-yl-1,2,4,5-tetrahydro-3-benzazepin-7-ol

> <PUBCHEM_IUPAC_CAS_NAME>
3-methyl-5-phenyl-8-(1-pyrrolyl)-1,2,4,5-tetrahydro-3-benzazepin-7-ol

> <PUBCHEM_IUPAC_NAME_MARKUP>
3-methyl-5-phenyl-8-pyrrol-1-yl-1,2,4,5-tetrahydro-3-benzazepin-7-ol

> <PUBCHEM_IUPAC_NAME>
3-methyl-5-phenyl-8-pyrrol-1-yl-1,2,4,5-tetrahydro-3-benzazepin-7-ol

> <PUBCHEM_IUPAC_SYSTEMATIC_NAME>
3-methyl-5-phenyl-8-pyrrol-1-yl-1,2,4,5-tetrahydro-3-benzazepin-7-ol

> <PUBCHEM_IUPAC_TRADITIONAL_NAME>
3-methyl-5-phenyl-8-pyrrol-1-yl-1,2,4,5-tetrahydro-3-benzazepin-7-ol

> <PUBCHEM_IUPAC_INCHI>
InChI=1S/C21H22N2O/c1-22-12-9-17-13-20(23-10-5-6-11-23)21(24)14-18(17)19(15-22)16-7-3-2-4-8-16/h2-8,10-11,13-14,19,24H,9,12,15H2,1H3

> <PUBCHEM_IUPAC_INCHIKEY>
YJBSIECJUNJUGX-UHFFFAOYSA-N

> <PUBCHEM_XLOGP3_AA>
3.8

> <PUBCHEM_EXACT_MASS>
318.173213330

> <PUBCHEM_MOLECULAR_FORMULA>
C21H22N2O

> <PUBCHEM_MOLECULAR_WEIGHT>
318.4

> <PUBCHEM_OPENEYE_CAN_SMILES>
CN1CCC2=CC(=C(C=C2C(C1)C3=CC=CC=C3)O)N4C=CC=C4

> <PUBCHEM_OPENEYE_ISO_SMILES>
CN1CCC2=CC(=C(C=C2C(C1)C3=CC=CC=C3)O)N4C=CC=C4

> <PUBCHEM_CACTVS_TPSA>
28.4

> <PUBCHEM_MONOISOTOPIC_WEIGHT>
318.173213330

> <PUBCHEM_TOTAL_CHARGE>
0

> <PUBCHEM_HEAVY_ATOM_COUNT>
24

> <PUBCHEM_ATOM_DEF_STEREO_COUNT>
0

> <PUBCHEM_ATOM_UDEF_STEREO_COUNT>
1

> <PUBCHEM_BOND_DEF_STEREO_COUNT>
0

> <PUBCHEM_BOND_UDEF_STEREO_COUNT>
0

> <PUBCHEM_ISOTOPIC_ATOM_COUNT>
0

> <PUBCHEM_COMPONENT_COUNT>
1

> <PUBCHEM_CACTVS_TAUTO_COUNT>
-1

> <PUBCHEM_COORDINATE_TYPE>
1
5
255

> <PUBCHEM_BONDANNOTATIONS>
10  16  8
10  17  8
11  15  8
12  13  8
13  15  8
16  18  8
17  19  8
18  20  8
19  20  8
21  23  8
22  24  8
23  24  8
3  21  8
3  22  8
4  10  3
6  11  8
6  7  8
7  12  8

$$$$
