3039881
  -OEChem-09292322142D

 48 51  0     1  0  0  0  0  0999 V2000
    2.0000   -0.0153    0.0000 Cl  0  0  0  0  0  0  0  0  0  0  0  0
    5.3816   -2.3453    0.0000 N   0  0  0  0  0  0  0  0  0  0  0  0
    5.3816    0.6547    0.0000 C   0  0  3  0  0  0  0  0  0  0  0  0
    6.2477    0.1547    0.0000 C   0  0  0  0  0  0  0  0  0  0  0  0
    6.2477   -0.8453    0.0000 C   0  0  0  0  0  0  0  0  0  0  0  0
    5.3816   -1.3453    0.0000 C   0  0  3  0  0  0  0  0  0  0  0  0
    4.4807    1.0886    0.0000 C   0  0  0  0  0  0  0  0  0  0  0  0
    6.2826    1.0886    0.0000 C   0  0  0  0  0  0  0  0  0  0  0  0
    4.5156    0.1547    0.0000 C   0  0  0  0  0  0  0  0  0  0  0  0
    4.5156   -0.8453    0.0000 C   0  0  0  0  0  0  0  0  0  0  0  0
    4.2582    2.0635    0.0000 C   0  0  0  0  0  0  0  0  0  0  0  0
    6.5051    2.0635    0.0000 C   0  0  0  0  0  0  0  0  0  0  0  0
    4.8816    2.8453    0.0000 C   0  0  0  0  0  0  0  0  0  0  0  0
    5.8816    2.8453    0.0000 C   0  0  0  0  0  0  0  0  0  0  0  0
    3.7281    0.3684    0.0000 C   0  0  0  0  0  0  0  0  0  0  0  0
    7.0352    0.3684    0.0000 C   0  0  0  0  0  0  0  0  0  0  0  0
    3.2676    2.3858    0.0000 C   0  0  0  0  0  0  0  0  0  0  0  0
    7.4956    2.3858    0.0000 C   0  0  0  0  0  0  0  0  0  0  0  0
    2.7304    0.6677    0.0000 C   0  0  0  0  0  0  0  0  0  0  0  0
    8.0329    0.6677    0.0000 C   0  0  0  0  0  0  0  0  0  0  0  0
    6.2477   -2.8453    0.0000 C   0  0  0  0  0  0  0  0  0  0  0  0
    4.5156   -2.8453    0.0000 C   0  0  0  0  0  0  0  0  0  0  0  0
    2.4986    1.6832    0.0000 C   0  0  0  0  0  0  0  0  0  0  0  0
    8.2646    1.6832    0.0000 C   0  0  0  0  0  0  0  0  0  0  0  0
    6.8582    0.0470    0.0000 H   0  0  0  0  0  0  0  0  0  0  0  0
    6.4597    0.7373    0.0000 H   0  0  0  0  0  0  0  0  0  0  0  0
    6.4597   -1.4279    0.0000 H   0  0  0  0  0  0  0  0  0  0  0  0
    6.8582   -0.7377    0.0000 H   0  0  0  0  0  0  0  0  0  0  0  0
    5.9186   -1.6553    0.0000 H   0  0  0  0  0  0  0  0  0  0  0  0
    3.9787    0.4647    0.0000 H   0  0  0  0  0  0  0  0  0  0  0  0
    3.9787   -1.1553    0.0000 H   0  0  0  0  0  0  0  0  0  0  0  0
    5.0196    3.4498    0.0000 H   0  0  0  0  0  0  0  0  0  0  0  0
    4.3230    3.1143    0.0000 H   0  0  0  0  0  0  0  0  0  0  0  0
    6.4402    3.1143    0.0000 H   0  0  0  0  0  0  0  0  0  0  0  0
    5.7437    3.4498    0.0000 H   0  0  0  0  0  0  0  0  0  0  0  0
    3.8731   -0.2344    0.0000 H   0  0  0  0  0  0  0  0  0  0  0  0
    6.8902   -0.2344    0.0000 H   0  0  0  0  0  0  0  0  0  0  0  0
    3.1367    2.9918    0.0000 H   0  0  0  0  0  0  0  0  0  0  0  0
    7.6266    2.9918    0.0000 H   0  0  0  0  0  0  0  0  0  0  0  0
    8.4857    0.2443    0.0000 H   0  0  0  0  0  0  0  0  0  0  0  0
    5.9377   -3.3823    0.0000 H   0  0  0  0  0  0  0  0  0  0  0  0
    6.7846   -3.1553    0.0000 H   0  0  0  0  0  0  0  0  0  0  0  0
    6.5577   -2.3084    0.0000 H   0  0  0  0  0  0  0  0  0  0  0  0
    4.2056   -2.3084    0.0000 H   0  0  0  0  0  0  0  0  0  0  0  0
    3.9787   -3.1553    0.0000 H   0  0  0  0  0  0  0  0  0  0  0  0
    4.8256   -3.3823    0.0000 H   0  0  0  0  0  0  0  0  0  0  0  0
    1.9069    1.8683    0.0000 H   0  0  0  0  0  0  0  0  0  0  0  0
    8.8564    1.8683    0.0000 H   0  0  0  0  0  0  0  0  0  0  0  0
  1 19  1  0  0  0  0
  2  6  1  0  0  0  0
  2 21  1  0  0  0  0
  2 22  1  0  0  0  0
  3  4  1  0  0  0  0
  3  7  1  0  0  0  0
  3  8  1  0  0  0  0
  3  9  1  0  0  0  0
  4  5  1  0  0  0  0
  4 25  1  0  0  0  0
  4 26  1  0  0  0  0
  5  6  1  0  0  0  0
  5 27  1  0  0  0  0
  5 28  1  0  0  0  0
  6 10  1  0  0  0  0
  6 29  1  0  0  0  0
  7 11  2  0  0  0  0
  7 15  1  0  0  0  0
  8 12  1  0  0  0  0
  8 16  2  0  0  0  0
  9 10  2  0  0  0  0
  9 30  1  0  0  0  0
 10 31  1  0  0  0  0
 11 13  1  0  0  0  0
 11 17  1  0  0  0  0
 12 14  1  0  0  0  0
 12 18  2  0  0  0  0
 13 14  1  0  0  0  0
 13 32  1  0  0  0  0
 13 33  1  0  0  0  0
 14 34  1  0  0  0  0
 14 35  1  0  0  0  0
 15 19  2  0  0  0  0
 15 36  1  0  0  0  0
 16 20  1  0  0  0  0
 16 37  1  0  0  0  0
 17 23  2  0  0  0  0
 17 38  1  0  0  0  0
 18 24  1  0  0  0  0
 18 39  1  0  0  0  0
 19 23  1  0  0  0  0
 20 24  2  0  0  0  0
 20 40  1  0  0  0  0
 21 41  1  0  0  0  0
 21 42  1  0  0  0  0
 21 43  1  0  0  0  0
 22 44  1  0  0  0  0
 22 45  1  0  0  0  0
 22 46  1  0  0  0  0
 23 47  1  0  0  0  0
 24 48  1  0  0  0  0
M  END
> <PUBCHEM_COMPOUND_CID>
3039881

> <PUBCHEM_COMPOUND_CANONICALIZED>
1

> <PUBCHEM_CACTVS_COMPLEXITY>
473

> <PUBCHEM_CACTVS_HBOND_ACCEPTOR>
1

> <PUBCHEM_CACTVS_HBOND_DONOR>
0

> <PUBCHEM_CACTVS_ROTATABLE_BOND>
1

> <PUBCHEM_CACTVS_SUBSKEYS>
AAADceB6AAAEAAAAAAAAAAAAAAAAAAAAAAAwYIAABgAAAAABQAAAHAIAAAAADirBGCQyAIMAAACAAiBCAACCAAAgBQAIiAAIAogIICKBkxCEIAAggAAIiAcQgMAPhAAAIAAQAAAIAABAACAAAAAAAAAAAA==

> <PUBCHEM_IUPAC_OPENEYE_NAME>
5'-chloro-N,N-dimethyl-spiro[cyclohex-2-ene-4,2'-tricyclo[9.4.0.03,8]pentadeca-1(15),3(8),4,6,11,13-hexaene]-1-amine

> <PUBCHEM_IUPAC_CAS_NAME>
5'-chloro-N,N-dimethyl-1-spiro[cyclohex-2-ene-4,2'-tricyclo[9.4.0.03,8]pentadeca-1(15),3(8),4,6,11,13-hexaene]amine

> <PUBCHEM_IUPAC_NAME_MARKUP>
5&apos;-chloro-<I>N</I>,<I>N</I>-dimethylspiro[cyclohex-2-ene-4,2&apos;-tricyclo[9.4.0.0<SUP>3,8</SUP>]pentadeca-1(15),3(8),4,6,11,13-hexaene]-1-amine

> <PUBCHEM_IUPAC_NAME>
5'-chloro-N,N-dimethylspiro[cyclohex-2-ene-4,2'-tricyclo[9.4.0.03,8]pentadeca-1(15),3(8),4,6,11,13-hexaene]-1-amine

> <PUBCHEM_IUPAC_SYSTEMATIC_NAME>
5'-chloranyl-N,N-dimethyl-spiro[cyclohex-2-ene-4,2'-tricyclo[9.4.0.03,8]pentadeca-1(15),3(8),4,6,11,13-hexaene]-1-amine

> <PUBCHEM_IUPAC_TRADITIONAL_NAME>
(5'-chlorospiro[cyclohex-2-ene-4,2'-tricyclo[9.4.0.03,8]pentadeca-1(15),3(8),4,6,11,13-hexaene]-1-yl)-dimethyl-amine

> <PUBCHEM_IUPAC_INCHI>
InChI=1S/C22H24ClN/c1-24(2)19-11-13-22(14-12-19)20-6-4-3-5-16(20)7-8-17-9-10-18(23)15-21(17)22/h3-6,9-11,13,15,19H,7-8,12,14H2,1-2H3

> <PUBCHEM_IUPAC_INCHIKEY>
QPNVVIACYJVUOX-UHFFFAOYSA-N

> <PUBCHEM_XLOGP3_AA>
5.7

> <PUBCHEM_EXACT_MASS>
337.1597275

> <PUBCHEM_MOLECULAR_FORMULA>
C22H24ClN

> <PUBCHEM_MOLECULAR_WEIGHT>
337.9

> <PUBCHEM_OPENEYE_CAN_SMILES>
CN(C)C1CCC2(C=C1)C3=CC=CC=C3CCC4=C2C=C(C=C4)Cl

> <PUBCHEM_OPENEYE_ISO_SMILES>
CN(C)C1CCC2(C=C1)C3=CC=CC=C3CCC4=C2C=C(C=C4)Cl

> <PUBCHEM_CACTVS_TPSA>
3.2

> <PUBCHEM_MONOISOTOPIC_WEIGHT>
337.1597275

> <PUBCHEM_TOTAL_CHARGE>
0

> <PUBCHEM_HEAVY_ATOM_COUNT>
24

> <PUBCHEM_ATOM_DEF_STEREO_COUNT>
0

> <PUBCHEM_ATOM_UDEF_STEREO_COUNT>
2

> <PUBCHEM_BOND_DEF_STEREO_COUNT>
0

> <PUBCHEM_BOND_UDEF_STEREO_COUNT>
0

> <PUBCHEM_ISOTOPIC_ATOM_COUNT>
0

> <PUBCHEM_COMPONENT_COUNT>
1

> <PUBCHEM_CACTVS_TAUTO_COUNT>
1

> <PUBCHEM_COORDINATE_TYPE>
1
5
255

> <PUBCHEM_BONDANNOTATIONS>
11  17  8
12  18  8
15  19  8
16  20  8
17  23  8
18  24  8
19  23  8
6  2  3
20  24  8
3  4  3
7  11  8
7  15  8
8  12  8
8  16  8

$$$$
