162646791
  -OEChem-09292322422D

 66 69  0     1  0  0  0  0  0999 V2000
   15.8547    1.2740    0.0000 Cl  0  0  0  0  0  0  0  0  0  0  0  0
    5.5000   -2.3482    0.0000 O   0  0  0  0  0  0  0  0  0  0  0  0
    2.0000   -1.4822    0.0000 O   0  0  0  0  0  0  0  0  0  0  0  0
   11.0000    0.2498    0.0000 N   0  0  3  0  0  0  0  0  0  0  0  0
    5.5000   -0.6162    0.0000 N   0  0  0  0  0  0  0  0  0  0  0  0
    4.0000   -1.4822    0.0000 N   0  0  0  0  0  0  0  0  0  0  0  0
    8.5000   -0.6162    0.0000 C   0  0  0  0  0  0  0  0  0  0  0  0
    8.0000    0.2498    0.0000 C   0  0  0  0  0  0  0  0  0  0  0  0
    8.0000   -1.4822    0.0000 C   0  0  0  0  0  0  0  0  0  0  0  0
    6.5000   -0.6162    0.0000 C   0  0  0  0  0  0  0  0  0  0  0  0
    7.0000    0.2498    0.0000 C   0  0  0  0  0  0  0  0  0  0  0  0
    7.0000   -1.4822    0.0000 C   0  0  0  0  0  0  0  0  0  0  0  0
    9.5000   -0.6162    0.0000 C   0  0  0  0  0  0  0  0  0  0  0  0
   10.0000    0.2498    0.0000 C   0  0  0  0  0  0  0  0  0  0  0  0
   11.4339    1.1508    0.0000 C   0  0  0  0  0  0  0  0  0  0  0  0
   11.4339   -0.6511    0.0000 C   0  0  0  0  0  0  0  0  0  0  0  0
   12.4088    1.3733    0.0000 C   0  0  1  0  0  0  0  0  0  0  0  0
   12.4088   -0.8737    0.0000 C   0  0  0  0  0  0  0  0  0  0  0  0
   13.1906    0.7498    0.0000 C   0  0  0  0  0  0  0  0  0  0  0  0
   13.1906   -0.2502    0.0000 C   0  0  0  0  0  0  0  0  0  0  0  0
    5.0000   -1.4822    0.0000 C   0  0  0  0  0  0  0  0  0  0  0  0
   12.6313    2.3482    0.0000 C   0  0  0  0  0  0  0  0  0  0  0  0
   14.0846    1.2845    0.0000 C   0  0  0  0  0  0  0  0  0  0  0  0
   14.0846   -0.7848    0.0000 C   0  0  0  0  0  0  0  0  0  0  0  0
    3.5000   -0.6162    0.0000 C   0  0  0  0  0  0  0  0  0  0  0  0
    3.5000   -2.3482    0.0000 C   0  0  0  0  0  0  0  0  0  0  0  0
   14.9907    0.7706    0.0000 C   0  0  0  0  0  0  0  0  0  0  0  0
   14.9907   -0.2710    0.0000 C   0  0  0  0  0  0  0  0  0  0  0  0
    2.5000   -0.6162    0.0000 C   0  0  0  0  0  0  0  0  0  0  0  0
    2.5000   -2.3482    0.0000 C   0  0  0  0  0  0  0  0  0  0  0  0
    8.8100   -0.0793    0.0000 H   0  0  0  0  0  0  0  0  0  0  0  0
    8.5826    0.4619    0.0000 H   0  0  0  0  0  0  0  0  0  0  0  0
    7.8923    0.8604    0.0000 H   0  0  0  0  0  0  0  0  0  0  0  0
    7.8923   -2.0928    0.0000 H   0  0  0  0  0  0  0  0  0  0  0  0
    8.5826   -1.6943    0.0000 H   0  0  0  0  0  0  0  0  0  0  0  0
    6.1900   -0.0793    0.0000 H   0  0  0  0  0  0  0  0  0  0  0  0
    7.1077    0.8604    0.0000 H   0  0  0  0  0  0  0  0  0  0  0  0
    6.4174    0.4619    0.0000 H   0  0  0  0  0  0  0  0  0  0  0  0
    6.4174   -1.6943    0.0000 H   0  0  0  0  0  0  0  0  0  0  0  0
    7.1077   -2.0928    0.0000 H   0  0  0  0  0  0  0  0  0  0  0  0
    9.3923   -1.2268    0.0000 H   0  0  0  0  0  0  0  0  0  0  0  0
   10.0826   -0.8282    0.0000 H   0  0  0  0  0  0  0  0  0  0  0  0
   10.1077    0.8604    0.0000 H   0  0  0  0  0  0  0  0  0  0  0  0
    9.4174    0.4619    0.0000 H   0  0  0  0  0  0  0  0  0  0  0  0
   11.4339    1.7708    0.0000 H   0  0  0  0  0  0  0  0  0  0  0  0
   10.8294    1.2888    0.0000 H   0  0  0  0  0  0  0  0  0  0  0  0
    5.1900   -0.0793    0.0000 H   0  0  0  0  0  0  0  0  0  0  0  0
   10.8294   -0.7891    0.0000 H   0  0  0  0  0  0  0  0  0  0  0  0
   11.4339   -1.2711    0.0000 H   0  0  0  0  0  0  0  0  0  0  0  0
   12.9940    1.5781    0.0000 H   0  0  0  0  0  0  0  0  0  0  0  0
   12.1398   -1.4323    0.0000 H   0  0  0  0  0  0  0  0  0  0  0  0
   12.8935   -1.2602    0.0000 H   0  0  0  0  0  0  0  0  0  0  0  0
   13.2358    2.2103    0.0000 H   0  0  0  0  0  0  0  0  0  0  0  0
   12.7693    2.9527    0.0000 H   0  0  0  0  0  0  0  0  0  0  0  0
   12.0269    2.4862    0.0000 H   0  0  0  0  0  0  0  0  0  0  0  0
   14.0774    1.9044    0.0000 H   0  0  0  0  0  0  0  0  0  0  0  0
   14.0774   -1.4048    0.0000 H   0  0  0  0  0  0  0  0  0  0  0  0
    4.0826   -0.4041    0.0000 H   0  0  0  0  0  0  0  0  0  0  0  0
    3.3923   -0.0056    0.0000 H   0  0  0  0  0  0  0  0  0  0  0  0
    3.3923   -2.9588    0.0000 H   0  0  0  0  0  0  0  0  0  0  0  0
    4.0826   -2.5603    0.0000 H   0  0  0  0  0  0  0  0  0  0  0  0
   15.5264   -0.5831    0.0000 H   0  0  0  0  0  0  0  0  0  0  0  0
    2.6077   -0.0056    0.0000 H   0  0  0  0  0  0  0  0  0  0  0  0
    1.9174   -0.4041    0.0000 H   0  0  0  0  0  0  0  0  0  0  0  0
    1.9174   -2.5603    0.0000 H   0  0  0  0  0  0  0  0  0  0  0  0
    2.6077   -2.9588    0.0000 H   0  0  0  0  0  0  0  0  0  0  0  0
  1 27  1  0  0  0  0
  2 21  2  0  0  0  0
  3 29  1  0  0  0  0
  3 30  1  0  0  0  0
  4 14  1  0  0  0  0
  4 15  1  0  0  0  0
  4 16  1  0  0  0  0
  5 10  1  0  0  0  0
  5 21  1  0  0  0  0
  5 47  1  0  0  0  0
  6 21  1  0  0  0  0
  6 25  1  0  0  0  0
  6 26  1  0  0  0  0
  7  8  1  0  0  0  0
  7  9  1  0  0  0  0
  7 13  1  0  0  0  0
  7 31  1  0  0  0  0
  8 11  1  0  0  0  0
  8 32  1  0  0  0  0
  8 33  1  0  0  0  0
  9 12  1  0  0  0  0
  9 34  1  0  0  0  0
  9 35  1  0  0  0  0
 10 11  1  0  0  0  0
 10 12  1  0  0  0  0
 10 36  1  0  0  0  0
 11 37  1  0  0  0  0
 11 38  1  0  0  0  0
 12 39  1  0  0  0  0
 12 40  1  0  0  0  0
 13 14  1  0  0  0  0
 13 41  1  0  0  0  0
 13 42  1  0  0  0  0
 14 43  1  0  0  0  0
 14 44  1  0  0  0  0
 15 17  1  0  0  0  0
 15 45  1  0  0  0  0
 15 46  1  0  0  0  0
 16 18  1  0  0  0  0
 16 48  1  0  0  0  0
 16 49  1  0  0  0  0
 17 19  1  0  0  0  0
 17 22  1  6  0  0  0
 17 50  1  0  0  0  0
 18 20  1  0  0  0  0
 18 51  1  0  0  0  0
 18 52  1  0  0  0  0
 19 20  2  0  0  0  0
 19 23  1  0  0  0  0
 20 24  1  0  0  0  0
 22 53  1  0  0  0  0
 22 54  1  0  0  0  0
 22 55  1  0  0  0  0
 23 27  2  0  0  0  0
 23 56  1  0  0  0  0
 24 28  2  0  0  0  0
 24 57  1  0  0  0  0
 25 29  1  0  0  0  0
 25 58  1  0  0  0  0
 25 59  1  0  0  0  0
 26 30  1  0  0  0  0
 26 60  1  0  0  0  0
 26 61  1  0  0  0  0
 27 28  1  0  0  0  0
 28 62  1  0  0  0  0
 29 63  1  0  0  0  0
 29 64  1  0  0  0  0
 30 65  1  0  0  0  0
 30 66  1  0  0  0  0
M  END
> <PUBCHEM_COMPOUND_CID>
162646791

> <PUBCHEM_COMPOUND_CANONICALIZED>
1

> <PUBCHEM_CACTVS_COMPLEXITY>
549

> <PUBCHEM_CACTVS_HBOND_ACCEPTOR>
3

> <PUBCHEM_CACTVS_HBOND_DONOR>
1

> <PUBCHEM_CACTVS_ROTATABLE_BOND>
4

> <PUBCHEM_CACTVS_SUBSKEYS>
AAADcfB7MAAEAAAAAAAAAAAAAAAAAAAAAAA8YIAABYAAAAABAAAAHgIQAAAADSrhmCYzAIPABACIAiBCEAACAAAgBQAIiIAIAoiKICKBkxGHIAAolgKYiAcQgMAOhAAAIAAQAAAYAABAACAAAAAAAAAAAA==

> <PUBCHEM_IUPAC_OPENEYE_NAME>
N-[4-[2-[(5R)-7-chloro-5-methyl-1,2,4,5-tetrahydro-3-benzazepin-3-yl]ethyl]cyclohexyl]morpholine-4-carboxamide

> <PUBCHEM_IUPAC_CAS_NAME>
N-[4-[2-[(5R)-7-chloro-5-methyl-1,2,4,5-tetrahydro-3-benzazepin-3-yl]ethyl]cyclohexyl]-4-morpholinecarboxamide

> <PUBCHEM_IUPAC_NAME_MARKUP>
<I>N</I>-[4-[2-[(5<I>R</I>)-7-chloro-5-methyl-1,2,4,5-tetrahydro-3-benzazepin-3-yl]ethyl]cyclohexyl]morpholine-4-carboxamide

> <PUBCHEM_IUPAC_NAME>
N-[4-[2-[(5R)-7-chloro-5-methyl-1,2,4,5-tetrahydro-3-benzazepin-3-yl]ethyl]cyclohexyl]morpholine-4-carboxamide

> <PUBCHEM_IUPAC_SYSTEMATIC_NAME>
N-[4-[2-[(5R)-7-chloranyl-5-methyl-1,2,4,5-tetrahydro-3-benzazepin-3-yl]ethyl]cyclohexyl]morpholine-4-carboxamide

> <PUBCHEM_IUPAC_TRADITIONAL_NAME>
N-[4-[2-[(5R)-7-chloro-5-methyl-1,2,4,5-tetrahydro-3-benzazepin-3-yl]ethyl]cyclohexyl]morpholine-4-carboxamide

> <PUBCHEM_IUPAC_INCHI>
InChI=1S/C24H36ClN3O2/c1-18-17-27(11-9-20-4-5-21(25)16-23(18)20)10-8-19-2-6-22(7-3-19)26-24(29)28-12-14-30-15-13-28/h4-5,16,18-19,22H,2-3,6-15,17H2,1H3,(H,26,29)/t18-,19?,22?/m0/s1

> <PUBCHEM_IUPAC_INCHIKEY>
UNEYERITNKRLJR-PGFLUOATSA-N

> <PUBCHEM_XLOGP3_AA>
4

> <PUBCHEM_EXACT_MASS>
433.2496051

> <PUBCHEM_MOLECULAR_FORMULA>
C24H36ClN3O2

> <PUBCHEM_MOLECULAR_WEIGHT>
434.0

> <PUBCHEM_OPENEYE_CAN_SMILES>
CC1CN(CCC2=C1C=C(C=C2)Cl)CCC3CCC(CC3)NC(=O)N4CCOCC4

> <PUBCHEM_OPENEYE_ISO_SMILES>
C[C@H]1CN(CCC2=C1C=C(C=C2)Cl)CCC3CCC(CC3)NC(=O)N4CCOCC4

> <PUBCHEM_CACTVS_TPSA>
44.8

> <PUBCHEM_MONOISOTOPIC_WEIGHT>
433.2496051

> <PUBCHEM_TOTAL_CHARGE>
0

> <PUBCHEM_HEAVY_ATOM_COUNT>
30

> <PUBCHEM_ATOM_DEF_STEREO_COUNT>
1

> <PUBCHEM_ATOM_UDEF_STEREO_COUNT>
0

> <PUBCHEM_BOND_DEF_STEREO_COUNT>
0

> <PUBCHEM_BOND_UDEF_STEREO_COUNT>
0

> <PUBCHEM_ISOTOPIC_ATOM_COUNT>
0

> <PUBCHEM_COMPONENT_COUNT>
1

> <PUBCHEM_CACTVS_TAUTO_COUNT>
-1

> <PUBCHEM_COORDINATE_TYPE>
1
5
255

> <PUBCHEM_BONDANNOTATIONS>
17  22  6
19  20  8
19  23  8
20  24  8
23  27  8
24  28  8
27  28  8

$$$$
