168289915
  -OEChem-09292322442D

 71 75  0     0  0  0  0  0  0999 V2000
   15.7060    2.6058    0.0000 Cl  0  0  0  0  0  0  0  0  0  0  0  0
   17.6630    3.0182    0.0000 Cl  0  0  0  0  0  0  0  0  0  0  0  0
   12.4133    3.6819    0.0000 N   0  0  0  0  0  0  0  0  0  0  0  0
   14.3703    4.0944    0.0000 N   0  0  0  0  0  0  0  0  0  0  0  0
    8.8564    1.1622    0.0000 N   0  0  0  0  0  0  0  0  0  0  0  0
    4.6783   -4.8680    0.0000 N   0  0  0  0  0  0  0  0  0  0  0  0
    6.2781   -1.1513    0.0000 N   0  0  0  0  0  0  0  0  0  0  0  0
    7.5673    0.0055    0.0000 N   0  0  0  0  0  0  0  0  0  0  0  0
    9.2136   -0.5326    0.0000 N   0  0  0  0  0  0  0  0  0  0  0  0
    7.9244   -1.6893    0.0000 N   0  0  0  0  0  0  0  0  0  0  0  0
    9.5708   -2.2274    0.0000 N   0  0  0  0  0  0  0  0  0  0  0  0
   13.0811    2.9376    0.0000 C   0  0  0  0  0  0  0  0  0  0  0  0
   12.7239    4.6324    0.0000 C   0  0  0  0  0  0  0  0  0  0  0  0
   14.0596    3.1438    0.0000 C   0  0  0  0  0  0  0  0  0  0  0  0
   13.7024    4.8386    0.0000 C   0  0  0  0  0  0  0  0  0  0  0  0
   11.4348    3.4757    0.0000 C   0  0  0  0  0  0  0  0  0  0  0  0
   11.1241    2.5252    0.0000 C   0  0  0  0  0  0  0  0  0  0  0  0
   15.3488    4.3006    0.0000 C   0  0  0  0  0  0  0  0  0  0  0  0
   10.1456    2.3190    0.0000 C   0  0  0  0  0  0  0  0  0  0  0  0
    9.8349    1.3684    0.0000 C   0  0  0  0  0  0  0  0  0  0  0  0
   16.0166    3.5563    0.0000 C   0  0  0  0  0  0  0  0  0  0  0  0
   15.6595    5.2511    0.0000 C   0  0  0  0  0  0  0  0  0  0  0  0
   16.9951    3.7625    0.0000 C   0  0  0  0  0  0  0  0  0  0  0  0
   16.6380    5.4573    0.0000 C   0  0  0  0  0  0  0  0  0  0  0  0
   17.3058    4.7130    0.0000 C   0  0  0  0  0  0  0  0  0  0  0  0
    4.6783   -3.2585    0.0000 C   0  0  0  0  0  0  0  0  0  0  0  0
    8.5458    0.2117    0.0000 C   0  0  0  0  0  0  0  0  0  0  0  0
    4.9889   -2.3080    0.0000 C   0  0  0  0  0  0  0  0  0  0  0  0
    3.7320   -3.5632    0.0000 C   0  0  0  0  0  0  0  0  0  0  0  0
    5.9674   -2.1018    0.0000 C   0  0  0  0  0  0  0  0  0  0  0  0
    3.7320   -4.5632    0.0000 C   0  0  0  0  0  0  0  0  0  0  0  0
    5.2619   -4.0632    0.0000 C   0  0  0  0  0  0  0  0  0  0  0  0
    2.8660   -3.0632    0.0000 C   0  0  0  0  0  0  0  0  0  0  0  0
    7.2566   -0.9450    0.0000 C   0  0  0  0  0  0  0  0  0  0  0  0
    2.8660   -5.0632    0.0000 C   0  0  0  0  0  0  0  0  0  0  0  0
    2.0000   -3.5632    0.0000 C   0  0  0  0  0  0  0  0  0  0  0  0
    2.0000   -4.5632    0.0000 C   0  0  0  0  0  0  0  0  0  0  0  0
    8.9030   -1.4831    0.0000 C   0  0  0  0  0  0  0  0  0  0  0  0
   12.5548    2.6100    0.0000 H   0  0  0  0  0  0  0  0  0  0  0  0
   13.3124    2.3624    0.0000 H   0  0  0  0  0  0  0  0  0  0  0  0
   12.7034    5.2521    0.0000 H   0  0  0  0  0  0  0  0  0  0  0  0
   12.1101    4.7198    0.0000 H   0  0  0  0  0  0  0  0  0  0  0  0
   14.0802    2.5242    0.0000 H   0  0  0  0  0  0  0  0  0  0  0  0
   14.6734    3.0565    0.0000 H   0  0  0  0  0  0  0  0  0  0  0  0
   14.2288    5.1663    0.0000 H   0  0  0  0  0  0  0  0  0  0  0  0
   13.4712    5.4139    0.0000 H   0  0  0  0  0  0  0  0  0  0  0  0
   11.4142    4.0954    0.0000 H   0  0  0  0  0  0  0  0  0  0  0  0
   10.8210    3.5630    0.0000 H   0  0  0  0  0  0  0  0  0  0  0  0
   11.1447    1.9055    0.0000 H   0  0  0  0  0  0  0  0  0  0  0  0
   11.7379    2.4378    0.0000 H   0  0  0  0  0  0  0  0  0  0  0  0
   10.1250    2.9386    0.0000 H   0  0  0  0  0  0  0  0  0  0  0  0
    9.5318    2.4063    0.0000 H   0  0  0  0  0  0  0  0  0  0  0  0
    9.8555    0.7488    0.0000 H   0  0  0  0  0  0  0  0  0  0  0  0
   10.4488    1.2811    0.0000 H   0  0  0  0  0  0  0  0  0  0  0  0
   15.2454    5.7126    0.0000 H   0  0  0  0  0  0  0  0  0  0  0  0
    8.4424    1.6237    0.0000 H   0  0  0  0  0  0  0  0  0  0  0  0
   16.8306    6.0466    0.0000 H   0  0  0  0  0  0  0  0  0  0  0  0
   17.9125    4.8409    0.0000 H   0  0  0  0  0  0  0  0  0  0  0  0
    4.9684   -1.6883    0.0000 H   0  0  0  0  0  0  0  0  0  0  0  0
    4.3751   -2.2206    0.0000 H   0  0  0  0  0  0  0  0  0  0  0  0
    5.9880   -2.7214    0.0000 H   0  0  0  0  0  0  0  0  0  0  0  0
    6.5812   -2.1891    0.0000 H   0  0  0  0  0  0  0  0  0  0  0  0
    5.8819   -4.0632    0.0000 H   0  0  0  0  0  0  0  0  0  0  0  0
    4.8709   -5.4573    0.0000 H   0  0  0  0  0  0  0  0  0  0  0  0
    2.8660   -2.4432    0.0000 H   0  0  0  0  0  0  0  0  0  0  0  0
    5.8640   -0.6898    0.0000 H   0  0  0  0  0  0  0  0  0  0  0  0
    2.8660   -5.6832    0.0000 H   0  0  0  0  0  0  0  0  0  0  0  0
    1.4631   -3.2532    0.0000 H   0  0  0  0  0  0  0  0  0  0  0  0
    1.4631   -4.8732    0.0000 H   0  0  0  0  0  0  0  0  0  0  0  0
   10.1775   -2.0996    0.0000 H   0  0  0  0  0  0  0  0  0  0  0  0
    9.3782   -2.8168    0.0000 H   0  0  0  0  0  0  0  0  0  0  0  0
  1 21  1  0  0  0  0
  2 23  1  0  0  0  0
  3 12  1  0  0  0  0
  3 13  1  0  0  0  0
  3 16  1  0  0  0  0
  4 14  1  0  0  0  0
  4 15  1  0  0  0  0
  4 18  1  0  0  0  0
  5 20  1  0  0  0  0
  5 27  1  0  0  0  0
  5 56  1  0  0  0  0
  6 31  1  0  0  0  0
  6 32  1  0  0  0  0
  6 64  1  0  0  0  0
  7 30  1  0  0  0  0
  7 34  1  0  0  0  0
  7 66  1  0  0  0  0
  8 27  2  0  0  0  0
  8 34  1  0  0  0  0
  9 27  1  0  0  0  0
  9 38  2  0  0  0  0
 10 34  2  0  0  0  0
 10 38  1  0  0  0  0
 11 38  1  0  0  0  0
 11 70  1  0  0  0  0
 11 71  1  0  0  0  0
 12 14  1  0  0  0  0
 12 39  1  0  0  0  0
 12 40  1  0  0  0  0
 13 15  1  0  0  0  0
 13 41  1  0  0  0  0
 13 42  1  0  0  0  0
 14 43  1  0  0  0  0
 14 44  1  0  0  0  0
 15 45  1  0  0  0  0
 15 46  1  0  0  0  0
 16 17  1  0  0  0  0
 16 47  1  0  0  0  0
 16 48  1  0  0  0  0
 17 19  1  0  0  0  0
 17 49  1  0  0  0  0
 17 50  1  0  0  0  0
 18 21  2  0  0  0  0
 18 22  1  0  0  0  0
 19 20  1  0  0  0  0
 19 51  1  0  0  0  0
 19 52  1  0  0  0  0
 20 53  1  0  0  0  0
 20 54  1  0  0  0  0
 21 23  1  0  0  0  0
 22 24  2  0  0  0  0
 22 55  1  0  0  0  0
 23 25  2  0  0  0  0
 24 25  1  0  0  0  0
 24 57  1  0  0  0  0
 25 58  1  0  0  0  0
 26 28  1  0  0  0  0
 26 29  1  0  0  0  0
 26 32  2  0  0  0  0
 28 30  1  0  0  0  0
 28 59  1  0  0  0  0
 28 60  1  0  0  0  0
 29 31  1  0  0  0  0
 29 33  2  0  0  0  0
 30 61  1  0  0  0  0
 30 62  1  0  0  0  0
 31 35  2  0  0  0  0
 32 63  1  0  0  0  0
 33 36  1  0  0  0  0
 33 65  1  0  0  0  0
 35 37  1  0  0  0  0
 35 67  1  0  0  0  0
 36 37  2  0  0  0  0
 36 68  1  0  0  0  0
 37 69  1  0  0  0  0
M  END
> <PUBCHEM_COMPOUND_CID>
168289915

> <PUBCHEM_COMPOUND_CANONICALIZED>
1

> <PUBCHEM_CACTVS_COMPLEXITY>
698

> <PUBCHEM_CACTVS_HBOND_ACCEPTOR>
8

> <PUBCHEM_CACTVS_HBOND_DONOR>
4

> <PUBCHEM_CACTVS_ROTATABLE_BOND>
11

> <PUBCHEM_CACTVS_SUBSKEYS>
AAADcfB7wAAGAAAAAAAAAAAAAAAAAWAAAAA8eIEAAAAAAFgB/AAAHAIQAAAADArBHiQ90PfJkACgAzRnZACCgCkxB6AJ2+A4ZpiIaOLBm5HUIAhokALIyAcQgMAOgAAAAAICABQAAAAABAQAKAAAAAAAAA==

> <PUBCHEM_IUPAC_OPENEYE_NAME>
N4-[4-[4-(2,3-dichlorophenyl)piperazin-1-yl]butyl]-N2-[2-(1H-indol-3-yl)ethyl]-1,3,5-triazine-2,4,6-triamine

> <PUBCHEM_IUPAC_CAS_NAME>
N4-[4-[4-(2,3-dichlorophenyl)-1-piperazinyl]butyl]-N2-[2-(1H-indol-3-yl)ethyl]-1,3,5-triazine-2,4,6-triamine

> <PUBCHEM_IUPAC_NAME_MARKUP>
4-<I>N</I>-[4-[4-(2,3-dichlorophenyl)piperazin-1-yl]butyl]-2-<I>N</I>-[2-(1<I>H</I>-indol-3-yl)ethyl]-1,3,5-triazine-2,4,6-triamine

> <PUBCHEM_IUPAC_NAME>
4-N-[4-[4-(2,3-dichlorophenyl)piperazin-1-yl]butyl]-2-N-[2-(1H-indol-3-yl)ethyl]-1,3,5-triazine-2,4,6-triamine

> <PUBCHEM_IUPAC_SYSTEMATIC_NAME>
N4-[4-[4-[2,3-bis(chloranyl)phenyl]piperazin-1-yl]butyl]-N2-[2-(1H-indol-3-yl)ethyl]-1,3,5-triazine-2,4,6-triamine

> <PUBCHEM_IUPAC_TRADITIONAL_NAME>
[4-amino-6-[4-[4-(2,3-dichlorophenyl)piperazino]butylamino]-s-triazin-2-yl]-[2-(1H-indol-3-yl)ethyl]amine

> <PUBCHEM_IUPAC_INCHI>
InChI=1S/C27H33Cl2N9/c28-21-7-5-9-23(24(21)29)38-16-14-37(15-17-38)13-4-3-11-31-26-34-25(30)35-27(36-26)32-12-10-19-18-33-22-8-2-1-6-20(19)22/h1-2,5-9,18,33H,3-4,10-17H2,(H4,30,31,32,34,35,36)

> <PUBCHEM_IUPAC_INCHIKEY>
XFPTZPCTBFZTJN-UHFFFAOYSA-N

> <PUBCHEM_XLOGP3_AA>
5.9

> <PUBCHEM_EXACT_MASS>
553.2235975

> <PUBCHEM_MOLECULAR_FORMULA>
C27H33Cl2N9

> <PUBCHEM_MOLECULAR_WEIGHT>
554.5

> <PUBCHEM_OPENEYE_CAN_SMILES>
C1CN(CCN1CCCCNC2=NC(=NC(=N2)N)NCCC3=CNC4=CC=CC=C43)C5=C(C(=CC=C5)Cl)Cl

> <PUBCHEM_OPENEYE_ISO_SMILES>
C1CN(CCN1CCCCNC2=NC(=NC(=N2)N)NCCC3=CNC4=CC=CC=C43)C5=C(C(=CC=C5)Cl)Cl

> <PUBCHEM_CACTVS_TPSA>
111

> <PUBCHEM_MONOISOTOPIC_WEIGHT>
553.2235975

> <PUBCHEM_TOTAL_CHARGE>
0

> <PUBCHEM_HEAVY_ATOM_COUNT>
38

> <PUBCHEM_ATOM_DEF_STEREO_COUNT>
0

> <PUBCHEM_ATOM_UDEF_STEREO_COUNT>
0

> <PUBCHEM_BOND_DEF_STEREO_COUNT>
0

> <PUBCHEM_BOND_UDEF_STEREO_COUNT>
0

> <PUBCHEM_ISOTOPIC_ATOM_COUNT>
0

> <PUBCHEM_COMPONENT_COUNT>
1

> <PUBCHEM_CACTVS_TAUTO_COUNT>
-1

> <PUBCHEM_COORDINATE_TYPE>
1
5
255

> <PUBCHEM_BONDANNOTATIONS>
10  34  8
10  38  8
18  21  8
18  22  8
21  23  8
22  24  8
23  25  8
24  25  8
26  29  8
26  32  8
29  31  8
29  33  8
31  35  8
33  36  8
35  37  8
36  37  8
6  31  8
6  32  8
8  27  8
8  34  8
9  27  8
9  38  8

$$$$
