10034684
  -OEChem-09292322032D

 19 20  0     0  0  0  0  0  0999 V2000
    2.5369    1.1970    0.0000 O   0  0  0  0  0  0  0  0  0  0  0  0
    6.0812   -0.6077    0.0000 N   0  0  0  0  0  0  0  0  0  0  0  0
    6.0812    1.0018    0.0000 C   0  0  0  0  0  0  0  0  0  0  0  0
    5.1350    0.6970    0.0000 C   0  0  0  0  0  0  0  0  0  0  0  0
    6.6648    0.1970    0.0000 C   0  0  0  0  0  0  0  0  0  0  0  0
    5.1350   -0.3030    0.0000 C   0  0  0  0  0  0  0  0  0  0  0  0
    4.2690    1.1970    0.0000 C   0  0  0  0  0  0  0  0  0  0  0  0
    4.2690   -0.8030    0.0000 C   0  0  0  0  0  0  0  0  0  0  0  0
    3.4030    0.6970    0.0000 C   0  0  0  0  0  0  0  0  0  0  0  0
    3.4030   -0.3030    0.0000 C   0  0  0  0  0  0  0  0  0  0  0  0
    6.6186    1.3110    0.0000 H   0  0  0  0  0  0  0  0  0  0  0  0
    5.8302    1.5687    0.0000 H   0  0  0  0  0  0  0  0  0  0  0  0
    7.1257   -0.2177    0.0000 H   0  0  0  0  0  0  0  0  0  0  0  0
    7.1257    0.6118    0.0000 H   0  0  0  0  0  0  0  0  0  0  0  0
    6.2738   -1.1970    0.0000 H   0  0  0  0  0  0  0  0  0  0  0  0
    4.2690    1.8170    0.0000 H   0  0  0  0  0  0  0  0  0  0  0  0
    4.2690   -1.4230    0.0000 H   0  0  0  0  0  0  0  0  0  0  0  0
    2.8660   -0.6130    0.0000 H   0  0  0  0  0  0  0  0  0  0  0  0
    2.0000    0.8870    0.0000 H   0  0  0  0  0  0  0  0  0  0  0  0
  1  9  1  0  0  0  0
  1 19  1  0  0  0  0
  2  5  1  0  0  0  0
  2  6  1  0  0  0  0
  2 15  1  0  0  0  0
  3  4  1  0  0  0  0
  3  5  1  0  0  0  0
  3 11  1  0  0  0  0
  3 12  1  0  0  0  0
  4  6  2  0  0  0  0
  4  7  1  0  0  0  0
  5 13  1  0  0  0  0
  5 14  1  0  0  0  0
  6  8  1  0  0  0  0
  7  9  2  0  0  0  0
  7 16  1  0  0  0  0
  8 10  2  0  0  0  0
  8 17  1  0  0  0  0
  9 10  1  0  0  0  0
 10 18  1  0  0  0  0
M  END
> <PUBCHEM_COMPOUND_CID>
10034684

> <PUBCHEM_COMPOUND_CANONICALIZED>
1

> <PUBCHEM_CACTVS_COMPLEXITY>
126

> <PUBCHEM_CACTVS_HBOND_ACCEPTOR>
2

> <PUBCHEM_CACTVS_HBOND_DONOR>
2

> <PUBCHEM_CACTVS_ROTATABLE_BOND>
0

> <PUBCHEM_CACTVS_SUBSKEYS>
AAADccByIAAAAAAAAAAAAAAAAAAAAWAAAAAwAAAAAAAAAFgBAAAAHgAQCAAADAzBmAQwxoLAAgCAAiRCQACCAAAhIgAIiIAObIgIJiLCkZOEcAhk0BHI2Aew0LIOAEABAAACAAAAgAIAAAQAAAAAAAAAAA==

> <PUBCHEM_IUPAC_OPENEYE_NAME>
indolin-5-ol

> <PUBCHEM_IUPAC_CAS_NAME>
2,3-dihydro-1H-indol-5-ol

> <PUBCHEM_IUPAC_NAME_MARKUP>
2,3-dihydro-1<I>H</I>-indol-5-ol

> <PUBCHEM_IUPAC_NAME>
2,3-dihydro-1H-indol-5-ol

> <PUBCHEM_IUPAC_SYSTEMATIC_NAME>
2,3-dihydro-1H-indol-5-ol

> <PUBCHEM_IUPAC_TRADITIONAL_NAME>
indolin-5-ol

> <PUBCHEM_IUPAC_INCHI>
InChI=1S/C8H9NO/c10-7-1-2-8-6(5-7)3-4-9-8/h1-2,5,9-10H,3-4H2

> <PUBCHEM_IUPAC_INCHIKEY>
MPCXQPXCYDDJSR-UHFFFAOYSA-N

> <PUBCHEM_XLOGP3>
1.9

> <PUBCHEM_EXACT_MASS>
135.068413911

> <PUBCHEM_MOLECULAR_FORMULA>
C8H9NO

> <PUBCHEM_MOLECULAR_WEIGHT>
135.16

> <PUBCHEM_OPENEYE_CAN_SMILES>
C1CNC2=C1C=C(C=C2)O

> <PUBCHEM_OPENEYE_ISO_SMILES>
C1CNC2=C1C=C(C=C2)O

> <PUBCHEM_CACTVS_TPSA>
32.3

> <PUBCHEM_MONOISOTOPIC_WEIGHT>
135.068413911

> <PUBCHEM_TOTAL_CHARGE>
0

> <PUBCHEM_HEAVY_ATOM_COUNT>
10

> <PUBCHEM_ATOM_DEF_STEREO_COUNT>
0

> <PUBCHEM_ATOM_UDEF_STEREO_COUNT>
0

> <PUBCHEM_BOND_DEF_STEREO_COUNT>
0

> <PUBCHEM_BOND_UDEF_STEREO_COUNT>
0

> <PUBCHEM_ISOTOPIC_ATOM_COUNT>
0

> <PUBCHEM_COMPONENT_COUNT>
1

> <PUBCHEM_CACTVS_TAUTO_COUNT>
6

> <PUBCHEM_COORDINATE_TYPE>
1
5
255

> <PUBCHEM_BONDANNOTATIONS>
4  6  8
4  7  8
6  8  8
7  9  8
8  10  8
9  10  8

$$$$
