137653359
  -OEChem-09292322002D

 74 78  0     1  0  0  0  0  0999 V2000
    6.1877   -5.0459    0.0000 O   0  0  0  0  0  0  0  0  0  0  0  0
    4.0094   -3.2741    0.0000 O   0  0  0  0  0  0  0  0  0  0  0  0
    4.3942   -0.6565    0.0000 O   0  0  0  0  0  0  0  0  0  0  0  0
    4.1648    4.5346    0.0000 O   0  0  0  0  0  0  0  0  0  0  0  0
    3.7800    1.9170    0.0000 O   0  0  0  0  0  0  0  0  0  0  0  0
    3.9286    9.7915    0.0000 O   0  0  0  0  0  0  0  0  0  0  0  0
    5.9823   -6.7915    0.0000 N   0  0  0  0  0  0  0  0  0  0  0  0
    4.6236   -5.8476    0.0000 N   0  0  0  0  0  0  0  0  0  0  0  0
    7.7144   -8.7915    0.0000 N   0  0  0  0  0  0  0  0  0  0  0  0
    3.9984    8.0608    0.0000 N   0  0  0  0  0  0  0  0  0  0  0  0
    6.8483   -8.2915    0.0000 C   0  0  1  0  0  0  0  0  0  0  0  0
    6.8483   -7.2915    0.0000 C   0  0  0  0  0  0  0  0  0  0  0  0
    5.1163   -7.2915    0.0000 C   0  0  0  0  0  0  0  0  0  0  0  0
    5.9823   -8.7915    0.0000 C   0  0  0  0  0  0  0  0  0  0  0  0
    5.1163   -8.2915    0.0000 C   0  0  0  0  0  0  0  0  0  0  0  0
    4.2223   -6.7568    0.0000 C   0  0  0  0  0  0  0  0  0  0  0  0
    5.6172   -5.8672    0.0000 C   0  0  0  0  0  0  0  0  0  0  0  0
    4.2223   -8.8262    0.0000 C   0  0  0  0  0  0  0  0  0  0  0  0
    4.0858   -5.0045    0.0000 C   0  0  0  0  0  0  0  0  0  0  0  0
    3.3163   -7.2707    0.0000 C   0  0  0  0  0  0  0  0  0  0  0  0
    3.3163   -8.3123    0.0000 C   0  0  0  0  0  0  0  0  0  0  0  0
    4.5471   -4.1172    0.0000 C   0  0  0  0  0  0  0  0  0  0  0  0
    7.7144   -9.7915    0.0000 C   0  0  0  0  0  0  0  0  0  0  0  0
    4.4706   -2.3869    0.0000 C   0  0  0  0  0  0  0  0  0  0  0  0
    3.9329   -1.5438    0.0000 C   0  0  0  0  0  0  0  0  0  0  0  0
    2.0000    7.9803    0.0000 C   0  0  0  0  0  0  0  0  0  0  0  0
    2.5345    7.1351    0.0000 C   0  0  0  0  0  0  0  0  0  0  0  0
    2.4647    8.8657    0.0000 C   0  0  0  0  0  0  0  0  0  0  0  0
    3.5337    7.1754    0.0000 C   0  0  0  0  0  0  0  0  0  0  0  0
    3.4639    8.9060    0.0000 C   0  0  0  0  0  0  0  0  0  0  0  0
    2.0363    6.2203    0.0000 C   0  0  0  0  0  0  0  0  0  0  0  0
    4.1039    6.3037    0.0000 C   0  0  0  0  0  0  0  0  0  0  0  0
    3.6270    5.3777    0.0000 C   0  0  0  0  0  0  0  0  0  0  0  0
    2.5862    5.3357    0.0000 C   0  0  0  0  0  0  0  0  0  0  0  0
    3.8564    0.1866    0.0000 C   0  0  0  0  0  0  0  0  0  0  0  0
    4.3177    1.0738    0.0000 C   0  0  0  0  0  0  0  0  0  0  0  0
    3.7035    3.6473    0.0000 C   0  0  0  0  0  0  0  0  0  0  0  0
    4.2412    2.8042    0.0000 C   0  0  0  0  0  0  0  0  0  0  0  0
    6.8483   -8.9115    0.0000 H   0  0  0  0  0  0  0  0  0  0  0  0
    7.4589   -7.3992    0.0000 H   0  0  0  0  0  0  0  0  0  0  0  0
    7.0604   -6.7089    0.0000 H   0  0  0  0  0  0  0  0  0  0  0  0
    5.5838   -9.2664    0.0000 H   0  0  0  0  0  0  0  0  0  0  0  0
    6.3808   -9.2664    0.0000 H   0  0  0  0  0  0  0  0  0  0  0  0
    8.2513   -8.4815    0.0000 H   0  0  0  0  0  0  0  0  0  0  0  0
    4.2295   -9.4461    0.0000 H   0  0  0  0  0  0  0  0  0  0  0  0
    3.5937   -4.6273    0.0000 H   0  0  0  0  0  0  0  0  0  0  0  0
    3.6289   -5.4236    0.0000 H   0  0  0  0  0  0  0  0  0  0  0  0
    2.7805   -6.9586    0.0000 H   0  0  0  0  0  0  0  0  0  0  0  0
    2.7805   -8.6244    0.0000 H   0  0  0  0  0  0  0  0  0  0  0  0
    5.0392   -4.4944    0.0000 H   0  0  0  0  0  0  0  0  0  0  0  0
    5.0040   -3.6981    0.0000 H   0  0  0  0  0  0  0  0  0  0  0  0
    7.0944   -9.7915    0.0000 H   0  0  0  0  0  0  0  0  0  0  0  0
    7.7144  -10.4115    0.0000 H   0  0  0  0  0  0  0  0  0  0  0  0
    8.3344   -9.7915    0.0000 H   0  0  0  0  0  0  0  0  0  0  0  0
    4.9627   -2.7640    0.0000 H   0  0  0  0  0  0  0  0  0  0  0  0
    4.9275   -1.9678    0.0000 H   0  0  0  0  0  0  0  0  0  0  0  0
    3.4408   -1.1666    0.0000 H   0  0  0  0  0  0  0  0  0  0  0  0
    3.4760   -1.9629    0.0000 H   0  0  0  0  0  0  0  0  0  0  0  0
    1.5094    8.3593    0.0000 H   0  0  0  0  0  0  0  0  0  0  0  0
    1.5415    7.5629    0.0000 H   0  0  0  0  0  0  0  0  0  0  0  0
    2.5477    9.4802    0.0000 H   0  0  0  0  0  0  0  0  0  0  0  0
    1.8740    9.0541    0.0000 H   0  0  0  0  0  0  0  0  0  0  0  0
    4.6179    8.0858    0.0000 H   0  0  0  0  0  0  0  0  0  0  0  0
    1.4166    6.2025    0.0000 H   0  0  0  0  0  0  0  0  0  0  0  0
    4.7231    6.3359    0.0000 H   0  0  0  0  0  0  0  0  0  0  0  0
    2.2960    4.7878    0.0000 H   0  0  0  0  0  0  0  0  0  0  0  0
    3.3643    0.5638    0.0000 H   0  0  0  0  0  0  0  0  0  0  0  0
    3.3995   -0.2325    0.0000 H   0  0  0  0  0  0  0  0  0  0  0  0
    4.8098    0.6967    0.0000 H   0  0  0  0  0  0  0  0  0  0  0  0
    4.7746    1.4930    0.0000 H   0  0  0  0  0  0  0  0  0  0  0  0
    3.2114    4.0245    0.0000 H   0  0  0  0  0  0  0  0  0  0  0  0
    3.2466    3.2282    0.0000 H   0  0  0  0  0  0  0  0  0  0  0  0
    4.7333    2.4270    0.0000 H   0  0  0  0  0  0  0  0  0  0  0  0
    4.6981    3.2233    0.0000 H   0  0  0  0  0  0  0  0  0  0  0  0
  1 17  2  0  0  0  0
  2 22  1  0  0  0  0
  2 24  1  0  0  0  0
  3 25  1  0  0  0  0
  3 35  1  0  0  0  0
  4 33  1  0  0  0  0
  4 37  1  0  0  0  0
  5 36  1  0  0  0  0
  5 38  1  0  0  0  0
  6 30  2  0  0  0  0
  7 12  1  0  0  0  0
  7 13  1  0  0  0  0
  7 17  1  0  0  0  0
  8 16  1  0  0  0  0
  8 17  1  0  0  0  0
  8 19  1  0  0  0  0
 11  9  1  6  0  0  0
  9 23  1  0  0  0  0
  9 44  1  0  0  0  0
 10 29  1  0  0  0  0
 10 30  1  0  0  0  0
 10 63  1  0  0  0  0
 11 12  1  0  0  0  0
 11 14  1  0  0  0  0
 11 39  1  0  0  0  0
 12 40  1  0  0  0  0
 12 41  1  0  0  0  0
 13 15  2  0  0  0  0
 13 16  1  0  0  0  0
 14 15  1  0  0  0  0
 14 42  1  0  0  0  0
 14 43  1  0  0  0  0
 15 18  1  0  0  0  0
 16 20  2  0  0  0  0
 18 21  2  0  0  0  0
 18 45  1  0  0  0  0
 19 22  1  0  0  0  0
 19 46  1  0  0  0  0
 19 47  1  0  0  0  0
 20 21  1  0  0  0  0
 20 48  1  0  0  0  0
 21 49  1  0  0  0  0
 22 50  1  0  0  0  0
 22 51  1  0  0  0  0
 23 52  1  0  0  0  0
 23 53  1  0  0  0  0
 23 54  1  0  0  0  0
 24 25  1  0  0  0  0
 24 55  1  0  0  0  0
 24 56  1  0  0  0  0
 25 57  1  0  0  0  0
 25 58  1  0  0  0  0
 26 27  1  0  0  0  0
 26 28  1  0  0  0  0
 26 59  1  0  0  0  0
 26 60  1  0  0  0  0
 27 29  2  0  0  0  0
 27 31  1  0  0  0  0
 28 30  1  0  0  0  0
 28 61  1  0  0  0  0
 28 62  1  0  0  0  0
 29 32  1  0  0  0  0
 31 34  2  0  0  0  0
 31 64  1  0  0  0  0
 32 33  2  0  0  0  0
 32 65  1  0  0  0  0
 33 34  1  0  0  0  0
 34 66  1  0  0  0  0
 35 36  1  0  0  0  0
 35 67  1  0  0  0  0
 35 68  1  0  0  0  0
 36 69  1  0  0  0  0
 36 70  1  0  0  0  0
 37 38  1  0  0  0  0
 37 71  1  0  0  0  0
 37 72  1  0  0  0  0
 38 73  1  0  0  0  0
 38 74  1  0  0  0  0
M  END
> <PUBCHEM_COMPOUND_CID>
137653359

> <PUBCHEM_COMPOUND_CANONICALIZED>
1

> <PUBCHEM_CACTVS_COMPLEXITY>
786

> <PUBCHEM_CACTVS_HBOND_ACCEPTOR>
7

> <PUBCHEM_CACTVS_HBOND_DONOR>
2

> <PUBCHEM_CACTVS_ROTATABLE_BOND>
14

> <PUBCHEM_CACTVS_SUBSKEYS>
AAADcfB7uAAAAAAAAAAAAAAAAAAAAWAAAAA8eIEAAAAAAFixQAAAHgAQAAAADCzhmAYzxoPABACIAiVSUACCCAAhIgAIiIEOfIiPZjLEsZuXOCju1hva6CeY2aOeIAAAQgACACBAAACEAAQAQAAAAAAAAA==

> <PUBCHEM_IUPAC_OPENEYE_NAME>
(10R)-10-(methylamino)-3-[2-[2-[2-[2-[(2-oxo-3,4-dihydro-1H-quinolin-7-yl)oxy]ethoxy]ethoxy]ethoxy]ethyl]-1,3-diazatricyclo[6.3.1.04,12]dodeca-4,6,8(12)-trien-2-one

> <PUBCHEM_IUPAC_CAS_NAME>
(10R)-10-(methylamino)-3-[2-[2-[2-[2-[(2-oxo-3,4-dihydro-1H-quinolin-7-yl)oxy]ethoxy]ethoxy]ethoxy]ethyl]-1,3-diazatricyclo[6.3.1.04,12]dodeca-4,6,8(12)-trien-2-one

> <PUBCHEM_IUPAC_NAME_MARKUP>
(10<I>R</I>)-10-(methylamino)-3-[2-[2-[2-[2-[(2-oxo-3,4-dihydro-1<I>H</I>-quinolin-7-yl)oxy]ethoxy]ethoxy]ethoxy]ethyl]-1,3-diazatricyclo[6.3.1.0<SUP>4,12</SUP>]dodeca-4,6,8(12)-trien-2-one

> <PUBCHEM_IUPAC_NAME>
(10R)-10-(methylamino)-3-[2-[2-[2-[2-[(2-oxo-3,4-dihydro-1H-quinolin-7-yl)oxy]ethoxy]ethoxy]ethoxy]ethyl]-1,3-diazatricyclo[6.3.1.04,12]dodeca-4,6,8(12)-trien-2-one

> <PUBCHEM_IUPAC_SYSTEMATIC_NAME>
(10R)-10-(methylamino)-3-[2-[2-[2-[2-[(2-oxidanylidene-3,4-dihydro-1H-quinolin-7-yl)oxy]ethoxy]ethoxy]ethoxy]ethyl]-1,3-diazatricyclo[6.3.1.04,12]dodeca-4,6,8(12)-trien-2-one

> <PUBCHEM_IUPAC_TRADITIONAL_NAME>
(10R)-3-[2-[2-[2-[2-[(2-keto-3,4-dihydro-1H-quinolin-7-yl)oxy]ethoxy]ethoxy]ethoxy]ethyl]-10-(methylamino)-1,3-diazatricyclo[6.3.1.04,12]dodeca-4,6,8(12)-trien-2-one

> <PUBCHEM_IUPAC_INCHI>
InChI=1S/C28H36N4O6/c1-29-22-17-21-3-2-4-25-27(21)32(19-22)28(34)31(25)9-10-35-11-12-36-13-14-37-15-16-38-23-7-5-20-6-8-26(33)30-24(20)18-23/h2-5,7,18,22,29H,6,8-17,19H2,1H3,(H,30,33)/t22-/m1/s1

> <PUBCHEM_IUPAC_INCHIKEY>
YALCLPZHBNPXEN-JOCHJYFZSA-N

> <PUBCHEM_XLOGP3_AA>
1

> <PUBCHEM_EXACT_MASS>
524.26348488

> <PUBCHEM_MOLECULAR_FORMULA>
C28H36N4O6

> <PUBCHEM_MOLECULAR_WEIGHT>
524.6

> <PUBCHEM_OPENEYE_CAN_SMILES>
CNC1CC2=C3C(=CC=C2)N(C(=O)N3C1)CCOCCOCCOCCOC4=CC5=C(CCC(=O)N5)C=C4

> <PUBCHEM_OPENEYE_ISO_SMILES>
CN[C@@H]1CC2=C3C(=CC=C2)N(C(=O)N3C1)CCOCCOCCOCCOC4=CC5=C(CCC(=O)N5)C=C4

> <PUBCHEM_CACTVS_TPSA>
102

> <PUBCHEM_MONOISOTOPIC_WEIGHT>
524.26348488

> <PUBCHEM_TOTAL_CHARGE>
0

> <PUBCHEM_HEAVY_ATOM_COUNT>
38

> <PUBCHEM_ATOM_DEF_STEREO_COUNT>
1

> <PUBCHEM_ATOM_UDEF_STEREO_COUNT>
0

> <PUBCHEM_BOND_DEF_STEREO_COUNT>
0

> <PUBCHEM_BOND_UDEF_STEREO_COUNT>
0

> <PUBCHEM_ISOTOPIC_ATOM_COUNT>
0

> <PUBCHEM_COMPONENT_COUNT>
1

> <PUBCHEM_CACTVS_TAUTO_COUNT>
-1

> <PUBCHEM_COORDINATE_TYPE>
1
5
255

> <PUBCHEM_BONDANNOTATIONS>
13  15  8
13  16  8
15  18  8
16  20  8
18  21  8
20  21  8
27  29  8
27  31  8
29  32  8
31  34  8
32  33  8
33  34  8
7  13  8
7  17  8
8  16  8
8  17  8
11  9  6

$$$$
