11641596
  -OEChem-09292322492D

 63 68  0     1  0  0  0  0  0999 V2000
    8.1114    0.0079    0.0000 S   0  0  0  0  0  0  0  0  0  0  0  0
    3.3938   -6.3085    0.0000 O   0  0  0  0  0  0  0  0  0  0  0  0
    5.1114   -1.7242    0.0000 N   0  0  3  0  0  0  0  0  0  0  0  0
    2.0000   -5.5037    0.0000 N   0  0  0  0  0  0  0  0  0  0  0  0
    9.6059    0.9784    0.0000 N   0  0  0  0  0  0  0  0  0  0  0  0
    8.2046    1.7874    0.0000 N   0  0  0  0  0  0  0  0  0  0  0  0
    8.9478    2.4566    0.0000 N   0  0  0  0  0  0  0  0  0  0  0  0
   11.8702    4.7987    0.0000 N   0  0  0  0  0  0  0  0  0  0  0  0
    5.6649   -2.5338    0.0000 C   0  0  0  0  0  0  0  0  0  0  0  0
    4.1334   -1.6496    0.0000 C   0  0  0  0  0  0  0  0  0  0  0  0
    5.3796   -3.4722    0.0000 C   0  0  0  0  0  0  0  0  0  0  0  0
    3.4634   -2.3658    0.0000 C   0  0  0  0  0  0  0  0  0  0  0  0
    4.4691   -3.8366    0.0000 C   0  0  0  0  0  0  0  0  0  0  0  0
    3.6030   -3.3366    0.0000 C   0  0  0  0  0  0  0  0  0  0  0  0
    5.6114   -0.8582    0.0000 C   0  0  0  0  0  0  0  0  0  0  0  0
    6.6114   -0.8582    0.0000 C   0  0  0  0  0  0  0  0  0  0  0  0
    4.4691   -4.8366    0.0000 C   0  0  0  0  0  0  0  0  0  0  0  0
    2.7370   -3.8366    0.0000 C   0  0  0  0  0  0  0  0  0  0  0  0
    3.6030   -5.3366    0.0000 C   0  0  0  0  0  0  0  0  0  0  0  0
    2.7370   -4.8366    0.0000 C   0  0  0  0  0  0  0  0  0  0  0  0
    7.1114    0.0079    0.0000 C   0  0  0  0  0  0  0  0  0  0  0  0
    2.4051   -6.4115    0.0000 C   0  0  0  0  0  0  0  0  0  0  0  0
    8.6114    0.8739    0.0000 C   0  0  0  0  0  0  0  0  0  0  0  0
    9.8138    1.9566    0.0000 C   0  0  0  0  0  0  0  0  0  0  0  0
   10.7273    2.3633    0.0000 C   0  0  0  0  0  0  0  0  0  0  0  0
   10.8319    3.3578    0.0000 C   0  0  0  0  0  0  0  0  0  0  0  0
   10.2750    0.2353    0.0000 C   0  0  0  0  0  0  0  0  0  0  0  0
   11.7454    3.7646    0.0000 C   0  0  0  0  0  0  0  0  0  0  0  0
   11.5363    1.7755    0.0000 C   0  0  0  0  0  0  0  0  0  0  0  0
    9.9798    3.9570    0.0000 C   0  0  0  0  0  0  0  0  0  0  0  0
   12.5544    3.1768    0.0000 C   0  0  0  0  0  0  0  0  0  0  0  0
   12.4499    2.1822    0.0000 C   0  0  0  0  0  0  0  0  0  0  0  0
   10.0807    4.9937    0.0000 C   0  0  0  0  0  0  0  0  0  0  0  0
   11.0323    5.4174    0.0000 C   0  0  0  0  0  0  0  0  0  0  0  0
   11.1406    6.4115    0.0000 C   0  0  0  0  0  0  0  0  0  0  0  0
    6.2028   -2.8421    0.0000 H   0  0  0  0  0  0  0  0  0  0  0  0
    6.0856   -2.0784    0.0000 H   0  0  0  0  0  0  0  0  0  0  0  0
    4.3175   -1.0575    0.0000 H   0  0  0  0  0  0  0  0  0  0  0  0
    3.5974   -1.3379    0.0000 H   0  0  0  0  0  0  0  0  0  0  0  0
    5.4756   -4.0847    0.0000 H   0  0  0  0  0  0  0  0  0  0  0  0
    5.9981   -3.5155    0.0000 H   0  0  0  0  0  0  0  0  0  0  0  0
    3.1167   -1.8519    0.0000 H   0  0  0  0  0  0  0  0  0  0  0  0
    2.8849   -2.5890    0.0000 H   0  0  0  0  0  0  0  0  0  0  0  0
    5.7190   -0.2476    0.0000 H   0  0  0  0  0  0  0  0  0  0  0  0
    5.0287   -0.6461    0.0000 H   0  0  0  0  0  0  0  0  0  0  0  0
    6.5037   -1.4688    0.0000 H   0  0  0  0  0  0  0  0  0  0  0  0
    7.1940   -1.0702    0.0000 H   0  0  0  0  0  0  0  0  0  0  0  0
    5.0060   -5.1466    0.0000 H   0  0  0  0  0  0  0  0  0  0  0  0
    2.2001   -3.5266    0.0000 H   0  0  0  0  0  0  0  0  0  0  0  0
    7.2190    0.6184    0.0000 H   0  0  0  0  0  0  0  0  0  0  0  0
    6.5287    0.2199    0.0000 H   0  0  0  0  0  0  0  0  0  0  0  0
    2.0951   -6.9485    0.0000 H   0  0  0  0  0  0  0  0  0  0  0  0
    9.8142   -0.1796    0.0000 H   0  0  0  0  0  0  0  0  0  0  0  0
   10.6899   -0.2255    0.0000 H   0  0  0  0  0  0  0  0  0  0  0  0
   10.7357    0.6501    0.0000 H   0  0  0  0  0  0  0  0  0  0  0  0
   11.4715    1.1589    0.0000 H   0  0  0  0  0  0  0  0  0  0  0  0
    9.4164    3.6983    0.0000 H   0  0  0  0  0  0  0  0  0  0  0  0
   13.1208    3.4290    0.0000 H   0  0  0  0  0  0  0  0  0  0  0  0
   12.9515    1.8178    0.0000 H   0  0  0  0  0  0  0  0  0  0  0  0
    9.5777    5.3562    0.0000 H   0  0  0  0  0  0  0  0  0  0  0  0
   11.7570    6.3443    0.0000 H   0  0  0  0  0  0  0  0  0  0  0  0
   11.2078    7.0279    0.0000 H   0  0  0  0  0  0  0  0  0  0  0  0
   10.5243    6.4787    0.0000 H   0  0  0  0  0  0  0  0  0  0  0  0
  1 21  1  0  0  0  0
  1 23  1  0  0  0  0
  2 19  1  0  0  0  0
  2 22  1  0  0  0  0
  3  9  1  0  0  0  0
  3 10  1  0  0  0  0
  3 15  1  0  0  0  0
  4 20  1  0  0  0  0
  4 22  2  0  0  0  0
  5 23  1  0  0  0  0
  5 24  1  0  0  0  0
  5 27  1  0  0  0  0
  6  7  1  0  0  0  0
  6 23  2  0  0  0  0
  7 24  2  0  0  0  0
  8 28  1  0  0  0  0
  8 34  2  0  0  0  0
  9 11  1  0  0  0  0
  9 36  1  0  0  0  0
  9 37  1  0  0  0  0
 10 12  1  0  0  0  0
 10 38  1  0  0  0  0
 10 39  1  0  0  0  0
 11 13  1  0  0  0  0
 11 40  1  0  0  0  0
 11 41  1  0  0  0  0
 12 14  1  0  0  0  0
 12 42  1  0  0  0  0
 12 43  1  0  0  0  0
 13 14  1  0  0  0  0
 13 17  2  0  0  0  0
 14 18  2  0  0  0  0
 15 16  1  0  0  0  0
 15 44  1  0  0  0  0
 15 45  1  0  0  0  0
 16 21  1  0  0  0  0
 16 46  1  0  0  0  0
 16 47  1  0  0  0  0
 17 19  1  0  0  0  0
 17 48  1  0  0  0  0
 18 20  1  0  0  0  0
 18 49  1  0  0  0  0
 19 20  2  0  0  0  0
 21 50  1  0  0  0  0
 21 51  1  0  0  0  0
 22 52  1  0  0  0  0
 24 25  1  0  0  0  0
 25 26  2  0  0  0  0
 25 29  1  0  0  0  0
 26 28  1  0  0  0  0
 26 30  1  0  0  0  0
 27 53  1  0  0  0  0
 27 54  1  0  0  0  0
 27 55  1  0  0  0  0
 28 31  2  0  0  0  0
 29 32  2  0  0  0  0
 29 56  1  0  0  0  0
 30 33  2  0  0  0  0
 30 57  1  0  0  0  0
 31 32  1  0  0  0  0
 31 58  1  0  0  0  0
 32 59  1  0  0  0  0
 33 34  1  0  0  0  0
 33 60  1  0  0  0  0
 34 35  1  0  0  0  0
 35 61  1  0  0  0  0
 35 62  1  0  0  0  0
 35 63  1  0  0  0  0
M  END
> <PUBCHEM_COMPOUND_CID>
11641596

> <PUBCHEM_COMPOUND_CANONICALIZED>
1

> <PUBCHEM_CACTVS_COMPLEXITY>
701

> <PUBCHEM_CACTVS_HBOND_ACCEPTOR>
7

> <PUBCHEM_CACTVS_HBOND_DONOR>
0

> <PUBCHEM_CACTVS_ROTATABLE_BOND>
6

> <PUBCHEM_CACTVS_SUBSKEYS>
AAADceB7oABAAAAAAAAAAAAAAAAAAWLAAAA8YIAABYAAAFix/gAAHgQIAAAADAzF3wa31vcMFEiqA6Zz9ASS2Ct/YrAd2CG/bNiOLvLkvbuNMShkzBPY6YeY2fKOqAABQAASEABQAAKAACQgAAAAAAAAAA==

> <PUBCHEM_IUPAC_OPENEYE_NAME>
7-[3-[[4-methyl-5-(2-methyl-5-quinolyl)-1,2,4-triazol-3-yl]sulfanyl]propyl]-5,6,8,9-tetrahydrooxazolo[4,5-h][3]benzazepine

> <PUBCHEM_IUPAC_CAS_NAME>
7-[3-[[4-methyl-5-(2-methyl-5-quinolinyl)-1,2,4-triazol-3-yl]thio]propyl]-5,6,8,9-tetrahydrooxazolo[4,5-h][3]benzazepine

> <PUBCHEM_IUPAC_NAME_MARKUP>
7-[3-[[4-methyl-5-(2-methylquinolin-5-yl)-1,2,4-triazol-3-yl]sulfanyl]propyl]-5,6,8,9-tetrahydro-[1,3]oxazolo[4,5-h][3]benzazepine

> <PUBCHEM_IUPAC_NAME>
7-[3-[[4-methyl-5-(2-methylquinolin-5-yl)-1,2,4-triazol-3-yl]sulfanyl]propyl]-5,6,8,9-tetrahydro-[1,3]oxazolo[4,5-h][3]benzazepine

> <PUBCHEM_IUPAC_SYSTEMATIC_NAME>
7-[3-[[4-methyl-5-(2-methylquinolin-5-yl)-1,2,4-triazol-3-yl]sulfanyl]propyl]-5,6,8,9-tetrahydro-[1,3]oxazolo[4,5-h][3]benzazepine

> <PUBCHEM_IUPAC_TRADITIONAL_NAME>
7-[3-[[4-methyl-5-(2-methyl-5-quinolyl)-1,2,4-triazol-3-yl]thio]propyl]-5,6,8,9-tetrahydrooxazolo[4,5-h][3]benzazepine

> <PUBCHEM_IUPAC_INCHI>
InChI=1S/C27H28N6OS/c1-18-7-8-21-22(5-3-6-23(21)29-18)26-30-31-27(32(26)2)35-14-4-11-33-12-9-19-15-24-25(34-17-28-24)16-20(19)10-13-33/h3,5-8,15-17H,4,9-14H2,1-2H3

> <PUBCHEM_IUPAC_INCHIKEY>
HRBGKICNPOCYPZ-UHFFFAOYSA-N

> <PUBCHEM_XLOGP3_AA>
4.8

> <PUBCHEM_EXACT_MASS>
484.20453071

> <PUBCHEM_MOLECULAR_FORMULA>
C27H28N6OS

> <PUBCHEM_MOLECULAR_WEIGHT>
484.6

> <PUBCHEM_OPENEYE_CAN_SMILES>
CC1=NC2=CC=CC(=C2C=C1)C3=NN=C(N3C)SCCCN4CCC5=CC6=C(C=C5CC4)OC=N6

> <PUBCHEM_OPENEYE_ISO_SMILES>
CC1=NC2=CC=CC(=C2C=C1)C3=NN=C(N3C)SCCCN4CCC5=CC6=C(C=C5CC4)OC=N6

> <PUBCHEM_CACTVS_TPSA>
98.2

> <PUBCHEM_MONOISOTOPIC_WEIGHT>
484.20453071

> <PUBCHEM_TOTAL_CHARGE>
0

> <PUBCHEM_HEAVY_ATOM_COUNT>
35

> <PUBCHEM_ATOM_DEF_STEREO_COUNT>
0

> <PUBCHEM_ATOM_UDEF_STEREO_COUNT>
0

> <PUBCHEM_BOND_DEF_STEREO_COUNT>
0

> <PUBCHEM_BOND_UDEF_STEREO_COUNT>
0

> <PUBCHEM_ISOTOPIC_ATOM_COUNT>
0

> <PUBCHEM_COMPONENT_COUNT>
1

> <PUBCHEM_CACTVS_TAUTO_COUNT>
-1

> <PUBCHEM_COORDINATE_TYPE>
1
5
255

> <PUBCHEM_BONDANNOTATIONS>
13  14  8
13  17  8
14  18  8
17  19  8
18  20  8
19  20  8
2  19  8
2  22  8
25  26  8
25  29  8
26  28  8
26  30  8
28  31  8
29  32  8
30  33  8
31  32  8
33  34  8
4  20  8
4  22  8
5  23  8
5  24  8
6  23  8
6  7  8
7  24  8
8  28  8
8  34  8

$$$$
