121304542
  -OEChem-09292322382D

 65 69  0     1  0  0  0  0  0999 V2000
    3.9538    1.1841    0.0000 S   0  0  0  0  0  0  0  0  0  0  0  0
    9.6460   -7.1659    0.0000 F   0  0  0  0  0  0  0  0  0  0  0  0
    8.2800   -7.5319    0.0000 F   0  0  0  0  0  0  0  0  0  0  0  0
    9.2800   -5.7999    0.0000 F   0  0  0  0  0  0  0  0  0  0  0  0
    4.3159   -2.2610    0.0000 N   0  0  3  0  0  0  0  0  0  0  0  0
    3.6750    2.9442    0.0000 N   0  0  0  0  0  0  0  0  0  0  0  0
    2.3660    1.9931    0.0000 N   0  0  0  0  0  0  0  0  0  0  0  0
    2.0570    2.9442    0.0000 N   0  0  0  0  0  0  0  0  0  0  0  0
    3.7320    6.0319    0.0000 N   0  0  0  0  0  0  0  0  0  0  0  0
    4.8159   -3.7999    0.0000 C   0  0  2  0  0  0  0  0  0  0  0  0
    5.3159   -4.6659    0.0000 C   0  0  2  0  0  0  0  0  0  0  0  0
    4.3159   -4.6659    0.0000 C   0  0  0  0  0  0  0  0  0  0  0  0
    5.6249   -3.2121    0.0000 C   0  0  0  0  0  0  0  0  0  0  0  0
    4.0069   -3.2121    0.0000 C   0  0  0  0  0  0  0  0  0  0  0  0
    5.3159   -2.2610    0.0000 C   0  0  0  0  0  0  0  0  0  0  0  0
    6.1819   -5.1659    0.0000 C   0  0  0  0  0  0  0  0  0  0  0  0
    3.7281   -1.4520    0.0000 C   0  0  0  0  0  0  0  0  0  0  0  0
    6.1819   -6.1659    0.0000 C   0  0  0  0  0  0  0  0  0  0  0  0
    7.0480   -4.6659    0.0000 C   0  0  0  0  0  0  0  0  0  0  0  0
    4.1349   -0.5385    0.0000 C   0  0  0  0  0  0  0  0  0  0  0  0
    7.0480   -6.6659    0.0000 C   0  0  0  0  0  0  0  0  0  0  0  0
    7.9140   -5.1659    0.0000 C   0  0  0  0  0  0  0  0  0  0  0  0
    7.9140   -6.1659    0.0000 C   0  0  0  0  0  0  0  0  0  0  0  0
    3.5471    0.2705    0.0000 C   0  0  0  0  0  0  0  0  0  0  0  0
    8.7800   -6.6659    0.0000 C   0  0  0  0  0  0  0  0  0  0  0  0
    3.3660    1.9931    0.0000 C   0  0  0  0  0  0  0  0  0  0  0  0
    2.8660    3.5319    0.0000 C   0  0  0  0  0  0  0  0  0  0  0  0
    4.6261    3.2532    0.0000 C   0  0  0  0  0  0  0  0  0  0  0  0
    2.8660    4.5319    0.0000 C   0  0  0  0  0  0  0  0  0  0  0  0
    3.7320    5.0319    0.0000 C   0  0  0  0  0  0  0  0  0  0  0  0
    2.0000    5.0319    0.0000 C   0  0  0  0  0  0  0  0  0  0  0  0
    2.0000    6.0319    0.0000 C   0  0  0  0  0  0  0  0  0  0  0  0
    4.5981    4.5319    0.0000 C   0  0  0  0  0  0  0  0  0  0  0  0
    2.8660    6.5319    0.0000 C   0  0  0  0  0  0  0  0  0  0  0  0
    2.8660    7.5319    0.0000 C   0  0  0  0  0  0  0  0  0  0  0  0
    5.1554   -5.2648    0.0000 H   0  0  0  0  0  0  0  0  0  0  0  0
    3.7333   -4.4539    0.0000 H   0  0  0  0  0  0  0  0  0  0  0  0
    4.2082   -5.2765    0.0000 H   0  0  0  0  0  0  0  0  0  0  0  0
    5.9349   -3.7490    0.0000 H   0  0  0  0  0  0  0  0  0  0  0  0
    6.1913   -2.9599    0.0000 H   0  0  0  0  0  0  0  0  0  0  0  0
    3.4405   -2.9599    0.0000 H   0  0  0  0  0  0  0  0  0  0  0  0
    3.6969   -3.7490    0.0000 H   0  0  0  0  0  0  0  0  0  0  0  0
    5.9224   -2.1321    0.0000 H   0  0  0  0  0  0  0  0  0  0  0  0
    5.2511   -1.6444    0.0000 H   0  0  0  0  0  0  0  0  0  0  0  0
    3.2141   -1.1053    0.0000 H   0  0  0  0  0  0  0  0  0  0  0  0
    3.2974   -1.8980    0.0000 H   0  0  0  0  0  0  0  0  0  0  0  0
    5.6450   -6.4759    0.0000 H   0  0  0  0  0  0  0  0  0  0  0  0
    7.0480   -4.0459    0.0000 H   0  0  0  0  0  0  0  0  0  0  0  0
    4.6489   -0.8852    0.0000 H   0  0  0  0  0  0  0  0  0  0  0  0
    4.5656   -0.0925    0.0000 H   0  0  0  0  0  0  0  0  0  0  0  0
    7.0480   -7.2859    0.0000 H   0  0  0  0  0  0  0  0  0  0  0  0
    8.4509   -4.8559    0.0000 H   0  0  0  0  0  0  0  0  0  0  0  0
    3.0331    0.6172    0.0000 H   0  0  0  0  0  0  0  0  0  0  0  0
    3.1164   -0.1755    0.0000 H   0  0  0  0  0  0  0  0  0  0  0  0
    4.8177    2.6635    0.0000 H   0  0  0  0  0  0  0  0  0  0  0  0
    5.2158    3.4448    0.0000 H   0  0  0  0  0  0  0  0  0  0  0  0
    4.4345    3.8428    0.0000 H   0  0  0  0  0  0  0  0  0  0  0  0
    1.4631    4.7219    0.0000 H   0  0  0  0  0  0  0  0  0  0  0  0
    1.4631    6.3419    0.0000 H   0  0  0  0  0  0  0  0  0  0  0  0
    4.2881    3.9950    0.0000 H   0  0  0  0  0  0  0  0  0  0  0  0
    5.1350    4.2219    0.0000 H   0  0  0  0  0  0  0  0  0  0  0  0
    4.9081    5.0689    0.0000 H   0  0  0  0  0  0  0  0  0  0  0  0
    3.4860    7.5319    0.0000 H   0  0  0  0  0  0  0  0  0  0  0  0
    2.8660    8.1519    0.0000 H   0  0  0  0  0  0  0  0  0  0  0  0
    2.2460    7.5319    0.0000 H   0  0  0  0  0  0  0  0  0  0  0  0
  1 24  1  0  0  0  0
  1 26  1  0  0  0  0
  2 25  1  0  0  0  0
  3 25  1  0  0  0  0
  4 25  1  0  0  0  0
  5 14  1  0  0  0  0
  5 15  1  0  0  0  0
  5 17  1  0  0  0  0
  6 26  1  0  0  0  0
  6 27  1  0  0  0  0
  6 28  1  0  0  0  0
  7  8  1  0  0  0  0
  7 26  2  0  0  0  0
  8 27  2  0  0  0  0
  9 30  1  0  0  0  0
  9 34  2  0  0  0  0
 10 11  1  0  0  0  0
 10 12  1  6  0  0  0
 10 13  1  0  0  0  0
 10 14  1  0  0  0  0
 11 12  1  0  0  0  0
 11 16  1  1  0  0  0
 11 36  1  0  0  0  0
 12 37  1  0  0  0  0
 12 38  1  0  0  0  0
 13 15  1  0  0  0  0
 13 39  1  0  0  0  0
 13 40  1  0  0  0  0
 14 41  1  0  0  0  0
 14 42  1  0  0  0  0
 15 43  1  0  0  0  0
 15 44  1  0  0  0  0
 16 18  2  0  0  0  0
 16 19  1  0  0  0  0
 17 20  1  0  0  0  0
 17 45  1  0  0  0  0
 17 46  1  0  0  0  0
 18 21  1  0  0  0  0
 18 47  1  0  0  0  0
 19 22  2  0  0  0  0
 19 48  1  0  0  0  0
 20 24  1  0  0  0  0
 20 49  1  0  0  0  0
 20 50  1  0  0  0  0
 21 23  2  0  0  0  0
 21 51  1  0  0  0  0
 22 23  1  0  0  0  0
 22 52  1  0  0  0  0
 23 25  1  0  0  0  0
 24 53  1  0  0  0  0
 24 54  1  0  0  0  0
 27 29  1  0  0  0  0
 28 55  1  0  0  0  0
 28 56  1  0  0  0  0
 28 57  1  0  0  0  0
 29 30  2  0  0  0  0
 29 31  1  0  0  0  0
 30 33  1  0  0  0  0
 31 32  2  0  0  0  0
 31 58  1  0  0  0  0
 32 34  1  0  0  0  0
 32 59  1  0  0  0  0
 33 60  1  0  0  0  0
 33 61  1  0  0  0  0
 33 62  1  0  0  0  0
 34 35  1  0  0  0  0
 35 63  1  0  0  0  0
 35 64  1  0  0  0  0
 35 65  1  0  0  0  0
M  END
> <PUBCHEM_COMPOUND_CID>
121304542

> <PUBCHEM_COMPOUND_CANONICALIZED>
1

> <PUBCHEM_CACTVS_COMPLEXITY>
718

> <PUBCHEM_CACTVS_HBOND_ACCEPTOR>
8

> <PUBCHEM_CACTVS_HBOND_DONOR>
0

> <PUBCHEM_CACTVS_ROTATABLE_BOND>
7

> <PUBCHEM_CACTVS_SUBSKEYS>
AAADceB7gYBAAAAAAAAAAAAAGAAAAWLAAAA8QAAAAAAAAAAB8AAAHQQIAAAADwjFXxSzkJcMEAiiAyZiZACS0CthArAd2CA4ZJiIKOLg2ZGEIAhgiALIyAcQgMAPwAAAAAAAAACAAAAAAAAAAAAAAAAAAA==

> <PUBCHEM_IUPAC_OPENEYE_NAME>
(2R,3S)-5-[3-[[5-(2,6-dimethyl-3-pyridyl)-4-methyl-1,2,4-triazol-3-yl]sulfanyl]propyl]-2-[4-(trifluoromethyl)phenyl]-5-azaspiro[2.4]heptane

> <PUBCHEM_IUPAC_CAS_NAME>
(2R,3S)-5-[3-[[5-(2,6-dimethyl-3-pyridinyl)-4-methyl-1,2,4-triazol-3-yl]thio]propyl]-2-[4-(trifluoromethyl)phenyl]-5-azaspiro[2.4]heptane

> <PUBCHEM_IUPAC_NAME_MARKUP>
(2<I>R</I>,3<I>S</I>)-5-[3-[[5-(2,6-dimethylpyridin-3-yl)-4-methyl-1,2,4-triazol-3-yl]sulfanyl]propyl]-2-[4-(trifluoromethyl)phenyl]-5-azaspiro[2.4]heptane

> <PUBCHEM_IUPAC_NAME>
(2R,3S)-5-[3-[[5-(2,6-dimethylpyridin-3-yl)-4-methyl-1,2,4-triazol-3-yl]sulfanyl]propyl]-2-[4-(trifluoromethyl)phenyl]-5-azaspiro[2.4]heptane

> <PUBCHEM_IUPAC_SYSTEMATIC_NAME>
(2R,3S)-5-[3-[[5-(2,6-dimethylpyridin-3-yl)-4-methyl-1,2,4-triazol-3-yl]sulfanyl]propyl]-2-[4-(trifluoromethyl)phenyl]-5-azaspiro[2.4]heptane

> <PUBCHEM_IUPAC_TRADITIONAL_NAME>
(2R,3S)-5-[3-[[5-(2,6-dimethyl-3-pyridyl)-4-methyl-1,2,4-triazol-3-yl]thio]propyl]-2-[4-(trifluoromethyl)phenyl]-5-azaspiro[2.4]heptane

> <PUBCHEM_IUPAC_INCHI>
InChI=1S/C26H30F3N5S/c1-17-5-10-21(18(2)30-17)23-31-32-24(33(23)3)35-14-4-12-34-13-11-25(16-34)15-22(25)19-6-8-20(9-7-19)26(27,28)29/h5-10,22H,4,11-16H2,1-3H3/t22-,25+/m1/s1

> <PUBCHEM_IUPAC_INCHIKEY>
MRFLPGUUAPCTFB-RDGATRHJSA-N

> <PUBCHEM_XLOGP3_AA>
5.1

> <PUBCHEM_EXACT_MASS>
501.21740164

> <PUBCHEM_MOLECULAR_FORMULA>
C26H30F3N5S

> <PUBCHEM_MOLECULAR_WEIGHT>
501.6

> <PUBCHEM_OPENEYE_CAN_SMILES>
CC1=NC(=C(C=C1)C2=NN=C(N2C)SCCCN3CCC4(C3)CC4C5=CC=C(C=C5)C(F)(F)F)C

> <PUBCHEM_OPENEYE_ISO_SMILES>
CC1=NC(=C(C=C1)C2=NN=C(N2C)SCCCN3CC[C@@]4(C3)C[C@@H]4C5=CC=C(C=C5)C(F)(F)F)C

> <PUBCHEM_CACTVS_TPSA>
72.1

> <PUBCHEM_MONOISOTOPIC_WEIGHT>
501.21740164

> <PUBCHEM_TOTAL_CHARGE>
0

> <PUBCHEM_HEAVY_ATOM_COUNT>
35

> <PUBCHEM_ATOM_DEF_STEREO_COUNT>
2

> <PUBCHEM_ATOM_UDEF_STEREO_COUNT>
0

> <PUBCHEM_BOND_DEF_STEREO_COUNT>
0

> <PUBCHEM_BOND_UDEF_STEREO_COUNT>
0

> <PUBCHEM_ISOTOPIC_ATOM_COUNT>
0

> <PUBCHEM_COMPONENT_COUNT>
1

> <PUBCHEM_CACTVS_TAUTO_COUNT>
-1

> <PUBCHEM_COORDINATE_TYPE>
1
5
255

> <PUBCHEM_BONDANNOTATIONS>
10  12  6
11  16  5
16  18  8
16  19  8
18  21  8
19  22  8
21  23  8
22  23  8
29  30  8
29  31  8
31  32  8
32  34  8
6  26  8
6  27  8
7  26  8
7  8  8
8  27  8
9  30  8
9  34  8

$$$$
