90389439
  -OEChem-09292322072D

 56 58  0     1  0  0  0  0  0999 V2000
    4.5981   -1.4050    0.0000 S   0  0  0  0  0  0  0  0  0  0  0  0
    5.4641   -5.9050    0.0000 F   0  0  0  0  0  0  0  0  0  0  0  0
    8.9282    0.0950    0.0000 F   0  0  0  0  0  0  0  0  0  0  0  0
    2.8660    5.5950    0.0000 O   0  0  0  0  0  0  0  0  0  0  0  0
    3.7320    3.0950    0.0000 N   0  0  0  0  0  0  0  0  0  0  0  0
    3.7320    1.0950    0.0000 N   0  0  0  0  0  0  0  0  0  0  0  0
    4.5981    2.5950    0.0000 C   0  0  0  0  0  0  0  0  0  0  0  0
    2.8660    2.5950    0.0000 C   0  0  0  0  0  0  0  0  0  0  0  0
    4.5981    1.5950    0.0000 C   0  0  0  0  0  0  0  0  0  0  0  0
    2.8660    1.5950    0.0000 C   0  0  0  0  0  0  0  0  0  0  0  0
    3.7320    4.0950    0.0000 C   0  0  0  0  0  0  0  0  0  0  0  0
    3.7320    0.0950    0.0000 C   0  0  0  0  0  0  0  0  0  0  0  0
    2.8660    4.5950    0.0000 C   0  0  3  0  0  0  0  0  0  0  0  0
    4.5981   -0.4050    0.0000 C   0  0  0  0  0  0  0  0  0  0  0  0
    2.0000    4.0950    0.0000 C   0  0  0  0  0  0  0  0  0  0  0  0
    5.4641   -1.9050    0.0000 C   0  0  0  0  0  0  0  0  0  0  0  0
    5.4641   -2.9050    0.0000 C   0  0  0  0  0  0  0  0  0  0  0  0
    6.3301   -1.4050    0.0000 C   0  0  0  0  0  0  0  0  0  0  0  0
    4.5981   -3.4050    0.0000 C   0  0  0  0  0  0  0  0  0  0  0  0
    7.1962   -1.9050    0.0000 C   0  0  0  0  0  0  0  0  0  0  0  0
    6.3301   -3.4050    0.0000 C   0  0  0  0  0  0  0  0  0  0  0  0
    6.3301   -0.4050    0.0000 C   0  0  0  0  0  0  0  0  0  0  0  0
    4.5981   -4.4050    0.0000 C   0  0  0  0  0  0  0  0  0  0  0  0
    8.0622   -1.4050    0.0000 C   0  0  0  0  0  0  0  0  0  0  0  0
    6.3301   -4.4050    0.0000 C   0  0  0  0  0  0  0  0  0  0  0  0
    7.1962    0.0950    0.0000 C   0  0  0  0  0  0  0  0  0  0  0  0
    5.4641   -4.9050    0.0000 C   0  0  0  0  0  0  0  0  0  0  0  0
    8.0622   -0.4050    0.0000 C   0  0  0  0  0  0  0  0  0  0  0  0
    5.2087    2.4873    0.0000 H   0  0  0  0  0  0  0  0  0  0  0  0
    4.8101    3.1776    0.0000 H   0  0  0  0  0  0  0  0  0  0  0  0
    2.6540    3.1776    0.0000 H   0  0  0  0  0  0  0  0  0  0  0  0
    2.2554    2.4873    0.0000 H   0  0  0  0  0  0  0  0  0  0  0  0
    4.8101    1.0124    0.0000 H   0  0  0  0  0  0  0  0  0  0  0  0
    5.2087    1.7027    0.0000 H   0  0  0  0  0  0  0  0  0  0  0  0
    2.2554    1.7027    0.0000 H   0  0  0  0  0  0  0  0  0  0  0  0
    2.6540    1.0124    0.0000 H   0  0  0  0  0  0  0  0  0  0  0  0
    4.3426    3.9873    0.0000 H   0  0  0  0  0  0  0  0  0  0  0  0
    3.9441    4.6776    0.0000 H   0  0  0  0  0  0  0  0  0  0  0  0
    3.1215    0.2027    0.0000 H   0  0  0  0  0  0  0  0  0  0  0  0
    3.5200   -0.4876    0.0000 H   0  0  0  0  0  0  0  0  0  0  0  0
    3.4030    4.9050    0.0000 H   0  0  0  0  0  0  0  0  0  0  0  0
    5.2087   -0.5127    0.0000 H   0  0  0  0  0  0  0  0  0  0  0  0
    4.8101    0.1776    0.0000 H   0  0  0  0  0  0  0  0  0  0  0  0
    1.6900    4.6319    0.0000 H   0  0  0  0  0  0  0  0  0  0  0  0
    1.4631    3.7850    0.0000 H   0  0  0  0  0  0  0  0  0  0  0  0
    2.3100    3.5581    0.0000 H   0  0  0  0  0  0  0  0  0  0  0  0
    5.4641   -1.2850    0.0000 H   0  0  0  0  0  0  0  0  0  0  0  0
    2.3291    5.9050    0.0000 H   0  0  0  0  0  0  0  0  0  0  0  0
    4.0611   -3.0950    0.0000 H   0  0  0  0  0  0  0  0  0  0  0  0
    7.1962   -2.5250    0.0000 H   0  0  0  0  0  0  0  0  0  0  0  0
    6.8671   -3.0950    0.0000 H   0  0  0  0  0  0  0  0  0  0  0  0
    5.7932   -0.0950    0.0000 H   0  0  0  0  0  0  0  0  0  0  0  0
    4.0611   -4.7150    0.0000 H   0  0  0  0  0  0  0  0  0  0  0  0
    8.5991   -1.7150    0.0000 H   0  0  0  0  0  0  0  0  0  0  0  0
    6.8671   -4.7150    0.0000 H   0  0  0  0  0  0  0  0  0  0  0  0
    7.1962    0.7150    0.0000 H   0  0  0  0  0  0  0  0  0  0  0  0
  1 14  1  0  0  0  0
  1 16  1  0  0  0  0
  2 27  1  0  0  0  0
  3 28  1  0  0  0  0
  4 13  1  0  0  0  0
  4 48  1  0  0  0  0
  5  7  1  0  0  0  0
  5  8  1  0  0  0  0
  5 11  1  0  0  0  0
  6  9  1  0  0  0  0
  6 10  1  0  0  0  0
  6 12  1  0  0  0  0
  7  9  1  0  0  0  0
  7 29  1  0  0  0  0
  7 30  1  0  0  0  0
  8 10  1  0  0  0  0
  8 31  1  0  0  0  0
  8 32  1  0  0  0  0
  9 33  1  0  0  0  0
  9 34  1  0  0  0  0
 10 35  1  0  0  0  0
 10 36  1  0  0  0  0
 11 13  1  0  0  0  0
 11 37  1  0  0  0  0
 11 38  1  0  0  0  0
 12 14  1  0  0  0  0
 12 39  1  0  0  0  0
 12 40  1  0  0  0  0
 13 15  1  0  0  0  0
 13 41  1  0  0  0  0
 14 42  1  0  0  0  0
 14 43  1  0  0  0  0
 15 44  1  0  0  0  0
 15 45  1  0  0  0  0
 15 46  1  0  0  0  0
 16 17  1  0  0  0  0
 16 18  1  0  0  0  0
 16 47  1  0  0  0  0
 17 19  2  0  0  0  0
 17 21  1  0  0  0  0
 18 20  2  0  0  0  0
 18 22  1  0  0  0  0
 19 23  1  0  0  0  0
 19 49  1  0  0  0  0
 20 24  1  0  0  0  0
 20 50  1  0  0  0  0
 21 25  2  0  0  0  0
 21 51  1  0  0  0  0
 22 26  2  0  0  0  0
 22 52  1  0  0  0  0
 23 27  2  0  0  0  0
 23 53  1  0  0  0  0
 24 28  2  0  0  0  0
 24 54  1  0  0  0  0
 25 27  1  0  0  0  0
 25 55  1  0  0  0  0
 26 28  1  0  0  0  0
 26 56  1  0  0  0  0
M  END
> <PUBCHEM_COMPOUND_CID>
90389439

> <PUBCHEM_COMPOUND_CANONICALIZED>
1

> <PUBCHEM_CACTVS_COMPLEXITY>
412

> <PUBCHEM_CACTVS_HBOND_ACCEPTOR>
6

> <PUBCHEM_CACTVS_HBOND_DONOR>
1

> <PUBCHEM_CACTVS_ROTATABLE_BOND>
8

> <PUBCHEM_CACTVS_SUBSKEYS>
AAADceB7IYBAAAAAAAAAAAAAAAAAAAAAAAA8YIAAAAAAAAABQAAAHwQACAAADBTl2A6yAIMAAgiAAiBCAAACAAAgABAIiAAIAIgKcCKgERCUIAAggAC4iAcAgMAOAAAAAAAAAAAAAAAAAAAAAAAAAAAAAA==

> <PUBCHEM_IUPAC_OPENEYE_NAME>
1-[4-[2-[bis(4-fluorophenyl)methylsulfanyl]ethyl]piperazin-1-yl]propan-2-ol

> <PUBCHEM_IUPAC_CAS_NAME>
1-[4-[2-[bis(4-fluorophenyl)methylthio]ethyl]-1-piperazinyl]-2-propanol

> <PUBCHEM_IUPAC_NAME_MARKUP>
1-[4-[2-[bis(4-fluorophenyl)methylsulfanyl]ethyl]piperazin-1-yl]propan-2-ol

> <PUBCHEM_IUPAC_NAME>
1-[4-[2-[bis(4-fluorophenyl)methylsulfanyl]ethyl]piperazin-1-yl]propan-2-ol

> <PUBCHEM_IUPAC_SYSTEMATIC_NAME>
1-[4-[2-[bis(4-fluorophenyl)methylsulfanyl]ethyl]piperazin-1-yl]propan-2-ol

> <PUBCHEM_IUPAC_TRADITIONAL_NAME>
1-[4-[2-[bis(4-fluorophenyl)methylthio]ethyl]piperazino]propan-2-ol

> <PUBCHEM_IUPAC_INCHI>
InChI=1S/C22H28F2N2OS/c1-17(27)16-26-12-10-25(11-13-26)14-15-28-22(18-2-6-20(23)7-3-18)19-4-8-21(24)9-5-19/h2-9,17,22,27H,10-16H2,1H3

> <PUBCHEM_IUPAC_INCHIKEY>
MQDDJWTVOBHYHX-UHFFFAOYSA-N

> <PUBCHEM_XLOGP3_AA>
3.9

> <PUBCHEM_EXACT_MASS>
406.18904102

> <PUBCHEM_MOLECULAR_FORMULA>
C22H28F2N2OS

> <PUBCHEM_MOLECULAR_WEIGHT>
406.5

> <PUBCHEM_OPENEYE_CAN_SMILES>
CC(CN1CCN(CC1)CCSC(C2=CC=C(C=C2)F)C3=CC=C(C=C3)F)O

> <PUBCHEM_OPENEYE_ISO_SMILES>
CC(CN1CCN(CC1)CCSC(C2=CC=C(C=C2)F)C3=CC=C(C=C3)F)O

> <PUBCHEM_CACTVS_TPSA>
52

> <PUBCHEM_MONOISOTOPIC_WEIGHT>
406.18904102

> <PUBCHEM_TOTAL_CHARGE>
0

> <PUBCHEM_HEAVY_ATOM_COUNT>
28

> <PUBCHEM_ATOM_DEF_STEREO_COUNT>
0

> <PUBCHEM_ATOM_UDEF_STEREO_COUNT>
1

> <PUBCHEM_BOND_DEF_STEREO_COUNT>
0

> <PUBCHEM_BOND_UDEF_STEREO_COUNT>
0

> <PUBCHEM_ISOTOPIC_ATOM_COUNT>
0

> <PUBCHEM_COMPONENT_COUNT>
1

> <PUBCHEM_CACTVS_TAUTO_COUNT>
-1

> <PUBCHEM_COORDINATE_TYPE>
1
5
255

> <PUBCHEM_BONDANNOTATIONS>
17  19  8
17  21  8
18  20  8
18  22  8
19  23  8
20  24  8
21  25  8
22  26  8
23  27  8
24  28  8
25  27  8
26  28  8
13  4  3

$$$$
