57326891
  -OEChem-09292322052D

102109  0     0  0  0  0  0  0999 V2000
   12.1845   -4.8271    0.0000 Cl  0  0  0  0  0  0  0  0  0  0  0  0
    8.7204    4.8270    0.0000 Cl  0  0  0  0  0  0  0  0  0  0  0  0
    6.6150   -2.5000    0.0000 O   0  0  0  0  0  0  0  0  0  0  0  0
    6.6150    2.5000    0.0000 O   0  0  0  0  0  0  0  0  0  0  0  0
    7.4131   -6.5916    0.0000 N   0  0  0  0  0  0  0  0  0  0  0  0
    3.9491    6.5916    0.0000 N   0  0  0  0  0  0  0  0  0  0  0  0
    6.5454   -8.3936    0.0000 N   0  0  0  0  0  0  0  0  0  0  0  0
    3.0814    8.3936    0.0000 N   0  0  0  0  0  0  0  0  0  0  0  0
    8.3470   -3.5000    0.0000 N   0  0  0  0  0  0  0  0  0  0  0  0
    4.8830    3.5000    0.0000 N   0  0  0  0  0  0  0  0  0  0  0  0
    8.8470   -5.6907    0.0000 N   0  0  0  0  0  0  0  0  0  0  0  0
    5.3830    5.6906    0.0000 N   0  0  0  0  0  0  0  0  0  0  0  0
    8.3470   -2.5000    0.0000 N   0  0  0  0  0  0  0  0  0  0  0  0
    4.8830    2.5000    0.0000 N   0  0  0  0  0  0  0  0  0  0  0  0
    7.9764   -7.4179    0.0000 C   0  0  0  0  0  0  0  0  0  0  0  0
    6.4159   -6.6664    0.0000 C   0  0  0  0  0  0  0  0  0  0  0  0
    4.5125    7.4178    0.0000 C   0  0  0  0  0  0  0  0  0  0  0  0
    2.9519    6.6664    0.0000 C   0  0  0  0  0  0  0  0  0  0  0  0
    7.5426   -8.3188    0.0000 C   0  0  0  0  0  0  0  0  0  0  0  0
    5.9820   -7.5673    0.0000 C   0  0  0  0  0  0  0  0  0  0  0  0
    4.0786    8.3188    0.0000 C   0  0  0  0  0  0  0  0  0  0  0  0
    2.5180    7.5673    0.0000 C   0  0  0  0  0  0  0  0  0  0  0  0
    7.8470   -5.6907    0.0000 C   0  0  0  0  0  0  0  0  0  0  0  0
    4.3830    5.6906    0.0000 C   0  0  0  0  0  0  0  0  0  0  0  0
    7.2235   -4.9088    0.0000 C   0  0  0  0  0  0  0  0  0  0  0  0
    3.7595    4.9088    0.0000 C   0  0  0  0  0  0  0  0  0  0  0  0
    6.1115   -9.2945    0.0000 C   0  0  0  0  0  0  0  0  0  0  0  0
    2.6475    9.2945    0.0000 C   0  0  0  0  0  0  0  0  0  0  0  0
    7.4461   -3.9339    0.0000 C   0  0  0  0  0  0  0  0  0  0  0  0
    3.9820    3.9339    0.0000 C   0  0  0  0  0  0  0  0  0  0  0  0
    9.2480   -3.9339    0.0000 C   0  0  0  0  0  0  0  0  0  0  0  0
    5.7840    3.9339    0.0000 C   0  0  0  0  0  0  0  0  0  0  0  0
    9.4705   -4.9088    0.0000 C   0  0  0  0  0  0  0  0  0  0  0  0
    6.0065    4.9088    0.0000 C   0  0  0  0  0  0  0  0  0  0  0  0
    6.2330   -5.2312    0.0000 C   0  0  0  0  0  0  0  0  0  0  0  0
    2.7690    5.2312    0.0000 C   0  0  0  0  0  0  0  0  0  0  0  0
    6.6935   -3.2137    0.0000 C   0  0  0  0  0  0  0  0  0  0  0  0
    3.2295    3.2137    0.0000 C   0  0  0  0  0  0  0  0  0  0  0  0
    6.6150   -0.5000    0.0000 C   0  0  0  0  0  0  0  0  0  0  0  0
    6.6150    0.5000    0.0000 C   0  0  0  0  0  0  0  0  0  0  0  0
    5.4640   -4.5286    0.0000 C   0  0  0  0  0  0  0  0  0  0  0  0
    2.0000    4.5286    0.0000 C   0  0  0  0  0  0  0  0  0  0  0  0
    7.4810   -1.0000    0.0000 C   0  0  0  0  0  0  0  0  0  0  0  0
    5.7490    1.0000    0.0000 C   0  0  0  0  0  0  0  0  0  0  0  0
   10.0006   -3.2138    0.0000 C   0  0  0  0  0  0  0  0  0  0  0  0
    6.5365    3.2137    0.0000 C   0  0  0  0  0  0  0  0  0  0  0  0
    5.6958   -3.5131    0.0000 C   0  0  0  0  0  0  0  0  0  0  0  0
    2.2318    3.5131    0.0000 C   0  0  0  0  0  0  0  0  0  0  0  0
   10.4610   -5.2312    0.0000 C   0  0  0  0  0  0  0  0  0  0  0  0
    6.9970    5.2311    0.0000 C   0  0  0  0  0  0  0  0  0  0  0  0
    7.4810   -2.0000    0.0000 C   0  0  0  0  0  0  0  0  0  0  0  0
    5.7490    2.0000    0.0000 C   0  0  0  0  0  0  0  0  0  0  0  0
   10.9983   -3.5131    0.0000 C   0  0  0  0  0  0  0  0  0  0  0  0
    7.5342    3.5130    0.0000 C   0  0  0  0  0  0  0  0  0  0  0  0
   11.2300   -4.5286    0.0000 C   0  0  0  0  0  0  0  0  0  0  0  0
    7.7660    4.5285    0.0000 C   0  0  0  0  0  0  0  0  0  0  0  0
    8.4799   -7.7798    0.0000 H   0  0  0  0  0  0  0  0  0  0  0  0
    8.4203   -6.9850    0.0000 H   0  0  0  0  0  0  0  0  0  0  0  0
    6.4777   -6.0494    0.0000 H   0  0  0  0  0  0  0  0  0  0  0  0
    5.8191   -6.4984    0.0000 H   0  0  0  0  0  0  0  0  0  0  0  0
    4.9563    6.9849    0.0000 H   0  0  0  0  0  0  0  0  0  0  0  0
    5.0159    7.7798    0.0000 H   0  0  0  0  0  0  0  0  0  0  0  0
    2.3551    6.4984    0.0000 H   0  0  0  0  0  0  0  0  0  0  0  0
    3.0137    6.0494    0.0000 H   0  0  0  0  0  0  0  0  0  0  0  0
    7.4808   -8.9358    0.0000 H   0  0  0  0  0  0  0  0  0  0  0  0
    8.1394   -8.4868    0.0000 H   0  0  0  0  0  0  0  0  0  0  0  0
    5.4786   -7.2054    0.0000 H   0  0  0  0  0  0  0  0  0  0  0  0
    5.5382   -8.0002    0.0000 H   0  0  0  0  0  0  0  0  0  0  0  0
    4.6754    8.4867    0.0000 H   0  0  0  0  0  0  0  0  0  0  0  0
    4.0168    8.9357    0.0000 H   0  0  0  0  0  0  0  0  0  0  0  0
    2.0742    8.0002    0.0000 H   0  0  0  0  0  0  0  0  0  0  0  0
    2.0146    7.2054    0.0000 H   0  0  0  0  0  0  0  0  0  0  0  0
    5.5529   -9.0255    0.0000 H   0  0  0  0  0  0  0  0  0  0  0  0
    5.8425   -9.8531    0.0000 H   0  0  0  0  0  0  0  0  0  0  0  0
    6.6701   -9.5635    0.0000 H   0  0  0  0  0  0  0  0  0  0  0  0
    3.2061    9.5635    0.0000 H   0  0  0  0  0  0  0  0  0  0  0  0
    2.3785    9.8531    0.0000 H   0  0  0  0  0  0  0  0  0  0  0  0
    2.0889    9.0255    0.0000 H   0  0  0  0  0  0  0  0  0  0  0  0
    6.1021   -5.8372    0.0000 H   0  0  0  0  0  0  0  0  0  0  0  0
    2.6380    5.8372    0.0000 H   0  0  0  0  0  0  0  0  0  0  0  0
    6.8385   -2.6109    0.0000 H   0  0  0  0  0  0  0  0  0  0  0  0
    3.3744    2.6109    0.0000 H   0  0  0  0  0  0  0  0  0  0  0  0
    8.8840   -2.1900    0.0000 H   0  0  0  0  0  0  0  0  0  0  0  0
    4.3460    2.1900    0.0000 H   0  0  0  0  0  0  0  0  0  0  0  0
    6.0044   -0.3923    0.0000 H   0  0  0  0  0  0  0  0  0  0  0  0
    6.4030   -1.0826    0.0000 H   0  0  0  0  0  0  0  0  0  0  0  0
    7.2256    0.3923    0.0000 H   0  0  0  0  0  0  0  0  0  0  0  0
    6.8271    1.0826    0.0000 H   0  0  0  0  0  0  0  0  0  0  0  0
    4.8723   -4.7136    0.0000 H   0  0  0  0  0  0  0  0  0  0  0  0
    1.4083    4.7136    0.0000 H   0  0  0  0  0  0  0  0  0  0  0  0
    8.0916   -1.1077    0.0000 H   0  0  0  0  0  0  0  0  0  0  0  0
    7.6931   -0.4174    0.0000 H   0  0  0  0  0  0  0  0  0  0  0  0
    5.1384    1.1077    0.0000 H   0  0  0  0  0  0  0  0  0  0  0  0
    5.5369    0.4174    0.0000 H   0  0  0  0  0  0  0  0  0  0  0  0
    9.8556   -2.6109    0.0000 H   0  0  0  0  0  0  0  0  0  0  0  0
    6.3916    2.6109    0.0000 H   0  0  0  0  0  0  0  0  0  0  0  0
    5.2430   -3.0896    0.0000 H   0  0  0  0  0  0  0  0  0  0  0  0
    1.7789    3.0896    0.0000 H   0  0  0  0  0  0  0  0  0  0  0  0
   10.5920   -5.8372    0.0000 H   0  0  0  0  0  0  0  0  0  0  0  0
    7.1280    5.8371    0.0000 H   0  0  0  0  0  0  0  0  0  0  0  0
   11.4511   -3.0896    0.0000 H   0  0  0  0  0  0  0  0  0  0  0  0
    7.9871    3.0896    0.0000 H   0  0  0  0  0  0  0  0  0  0  0  0
  1 55  1  0  0  0  0
  2 56  1  0  0  0  0
  3 51  2  0  0  0  0
  4 52  2  0  0  0  0
  5 15  1  0  0  0  0
  5 16  1  0  0  0  0
  5 23  1  0  0  0  0
  6 17  1  0  0  0  0
  6 18  1  0  0  0  0
  6 24  1  0  0  0  0
  7 19  1  0  0  0  0
  7 20  1  0  0  0  0
  7 27  1  0  0  0  0
  8 21  1  0  0  0  0
  8 22  1  0  0  0  0
  8 28  1  0  0  0  0
  9 13  1  0  0  0  0
  9 29  1  0  0  0  0
  9 31  1  0  0  0  0
 10 14  1  0  0  0  0
 10 30  1  0  0  0  0
 10 32  1  0  0  0  0
 11 23  2  0  0  0  0
 11 33  1  0  0  0  0
 12 24  2  0  0  0  0
 12 34  1  0  0  0  0
 13 51  1  0  0  0  0
 13 83  1  0  0  0  0
 14 52  1  0  0  0  0
 14 84  1  0  0  0  0
 15 19  1  0  0  0  0
 15 57  1  0  0  0  0
 15 58  1  0  0  0  0
 16 20  1  0  0  0  0
 16 59  1  0  0  0  0
 16 60  1  0  0  0  0
 17 21  1  0  0  0  0
 17 61  1  0  0  0  0
 17 62  1  0  0  0  0
 18 22  1  0  0  0  0
 18 63  1  0  0  0  0
 18 64  1  0  0  0  0
 19 65  1  0  0  0  0
 19 66  1  0  0  0  0
 20 67  1  0  0  0  0
 20 68  1  0  0  0  0
 21 69  1  0  0  0  0
 21 70  1  0  0  0  0
 22 71  1  0  0  0  0
 22 72  1  0  0  0  0
 23 25  1  0  0  0  0
 24 26  1  0  0  0  0
 25 29  1  0  0  0  0
 25 35  2  0  0  0  0
 26 30  1  0  0  0  0
 26 36  2  0  0  0  0
 27 73  1  0  0  0  0
 27 74  1  0  0  0  0
 27 75  1  0  0  0  0
 28 76  1  0  0  0  0
 28 77  1  0  0  0  0
 28 78  1  0  0  0  0
 29 37  2  0  0  0  0
 30 38  2  0  0  0  0
 31 33  2  0  0  0  0
 31 45  1  0  0  0  0
 32 34  2  0  0  0  0
 32 46  1  0  0  0  0
 33 49  1  0  0  0  0
 34 50  1  0  0  0  0
 35 41  1  0  0  0  0
 35 79  1  0  0  0  0
 36 42  1  0  0  0  0
 36 80  1  0  0  0  0
 37 47  1  0  0  0  0
 37 81  1  0  0  0  0
 38 48  1  0  0  0  0
 38 82  1  0  0  0  0
 39 40  1  0  0  0  0
 39 43  1  0  0  0  0
 39 85  1  0  0  0  0
 39 86  1  0  0  0  0
 40 44  1  0  0  0  0
 40 87  1  0  0  0  0
 40 88  1  0  0  0  0
 41 47  2  0  0  0  0
 41 89  1  0  0  0  0
 42 48  2  0  0  0  0
 42 90  1  0  0  0  0
 43 51  1  0  0  0  0
 43 91  1  0  0  0  0
 43 92  1  0  0  0  0
 44 52  1  0  0  0  0
 44 93  1  0  0  0  0
 44 94  1  0  0  0  0
 45 53  2  0  0  0  0
 45 95  1  0  0  0  0
 46 54  2  0  0  0  0
 46 96  1  0  0  0  0
 47 97  1  0  0  0  0
 48 98  1  0  0  0  0
 49 55  2  0  0  0  0
 49 99  1  0  0  0  0
 50 56  2  0  0  0  0
 50100  1  0  0  0  0
 53 55  1  0  0  0  0
 53101  1  0  0  0  0
 54 56  1  0  0  0  0
 54102  1  0  0  0  0
M  END
> <PUBCHEM_COMPOUND_CID>
57326891

> <PUBCHEM_COMPOUND_CANONICALIZED>
1

> <PUBCHEM_CACTVS_COMPLEXITY>
1320

> <PUBCHEM_CACTVS_HBOND_ACCEPTOR>
8

> <PUBCHEM_CACTVS_HBOND_DONOR>
2

> <PUBCHEM_CACTVS_ROTATABLE_BOND>
9

> <PUBCHEM_CACTVS_SUBSKEYS>
AAADcfB/8AAGAAAAAAAAAAAAAAAAAAAAAAA8eMGCBAgAAAABVAAAHgIYAAAADArBmCQzwINiAACoAidydACCBAEhBwAbqAEodpgIYPLB25GUIAhgkADIyAcYiAAOAABAAAICACAAAIAABAQAQAAAAAAAAA==

> <PUBCHEM_IUPAC_OPENEYE_NAME>
N,N'-bis[3-chloro-6-(4-methylpiperazin-1-yl)benzo[b][1,4]benzodiazepin-11-yl]hexanediamide

> <PUBCHEM_IUPAC_CAS_NAME>
N,N'-bis[3-chloro-6-(4-methyl-1-piperazinyl)-11-benzo[b][1,4]benzodiazepinyl]hexanediamide

> <PUBCHEM_IUPAC_NAME_MARKUP>
<I>N</I>,<I>N</I>&apos;-bis[3-chloro-6-(4-methylpiperazin-1-yl)benzo[b][1,4]benzodiazepin-11-yl]hexanediamide

> <PUBCHEM_IUPAC_NAME>
N,N'-bis[3-chloro-6-(4-methylpiperazin-1-yl)benzo[b][1,4]benzodiazepin-11-yl]hexanediamide

> <PUBCHEM_IUPAC_SYSTEMATIC_NAME>
N,N'-bis[3-chloranyl-6-(4-methylpiperazin-1-yl)benzo[b][1,4]benzodiazepin-11-yl]hexanediamide

> <PUBCHEM_IUPAC_TRADITIONAL_NAME>
N,N'-bis[3-chloro-6-(4-methylpiperazino)benzo[b][1,4]benzodiazepin-11-yl]adipamide

> <PUBCHEM_IUPAC_INCHI>
InChI=1S/C42H46Cl2N10O2/c1-49-19-23-51(24-20-49)41-31-9-3-5-11-35(31)53(37-17-15-29(43)27-33(37)45-41)47-39(55)13-7-8-14-40(56)48-54-36-12-6-4-10-32(36)42(52-25-21-50(2)22-26-52)46-34-28-30(44)16-18-38(34)54/h3-6,9-12,15-18,27-28H,7-8,13-14,19-26H2,1-2H3,(H,47,55)(H,48,56)

> <PUBCHEM_IUPAC_INCHIKEY>
NVIIJSWTJSGWDP-UHFFFAOYSA-N

> <PUBCHEM_XLOGP3_AA>
5.8

> <PUBCHEM_EXACT_MASS>
792.3182261

> <PUBCHEM_MOLECULAR_FORMULA>
C42H46Cl2N10O2

> <PUBCHEM_MOLECULAR_WEIGHT>
793.8

> <PUBCHEM_OPENEYE_CAN_SMILES>
CN1CCN(CC1)C2=NC3=C(C=CC(=C3)Cl)N(C4=CC=CC=C42)NC(=O)CCCCC(=O)NN5C6=C(C=C(C=C6)Cl)N=C(C7=CC=CC=C75)N8CCN(CC8)C

> <PUBCHEM_OPENEYE_ISO_SMILES>
CN1CCN(CC1)C2=NC3=C(C=CC(=C3)Cl)N(C4=CC=CC=C42)NC(=O)CCCCC(=O)NN5C6=C(C=C(C=C6)Cl)N=C(C7=CC=CC=C75)N8CCN(CC8)C

> <PUBCHEM_CACTVS_TPSA>
102

> <PUBCHEM_MONOISOTOPIC_WEIGHT>
792.3182261

> <PUBCHEM_TOTAL_CHARGE>
0

> <PUBCHEM_HEAVY_ATOM_COUNT>
56

> <PUBCHEM_ATOM_DEF_STEREO_COUNT>
0

> <PUBCHEM_ATOM_UDEF_STEREO_COUNT>
0

> <PUBCHEM_BOND_DEF_STEREO_COUNT>
0

> <PUBCHEM_BOND_UDEF_STEREO_COUNT>
0

> <PUBCHEM_ISOTOPIC_ATOM_COUNT>
0

> <PUBCHEM_COMPONENT_COUNT>
1

> <PUBCHEM_CACTVS_TAUTO_COUNT>
-1

> <PUBCHEM_COORDINATE_TYPE>
1
5
255

> <PUBCHEM_BONDANNOTATIONS>
25  29  8
25  35  8
26  30  8
26  36  8
29  37  8
30  38  8
31  33  8
31  45  8
32  34  8
32  46  8
33  49  8
34  50  8
35  41  8
36  42  8
37  47  8
38  48  8
41  47  8
42  48  8
45  53  8
46  54  8
49  55  8
50  56  8
53  55  8
54  56  8

$$$$
