145963127
  -OEChem-09292322402D

 47 49  0     1  0  0  0  0  0999 V2000
    5.0772   -1.4524    0.0000 S   0  0  0  0  0  0  0  0  0  0  0  0
    5.2463    0.1567    0.0000 N   0  0  0  0  0  0  0  0  0  0  0  0
    7.8919   -0.2500    0.0000 N   0  0  3  0  0  0  0  0  0  0  0  0
   11.3560   -0.2500    0.0000 N   0  0  0  0  0  0  0  0  0  0  0  0
    3.5827   -0.4819    0.0000 C   0  0  0  0  0  0  0  0  0  0  0  0
    3.0827    0.3841    0.0000 C   0  0  0  0  0  0  0  0  0  0  0  0
    2.9136   -1.2250    0.0000 C   0  0  0  0  0  0  0  0  0  0  0  0
    2.1045    0.1762    0.0000 C   0  0  0  0  0  0  0  0  0  0  0  0
    2.0000   -0.8183    0.0000 C   0  0  0  0  0  0  0  0  0  0  0  0
    4.5772   -0.5864    0.0000 C   0  0  0  0  0  0  0  0  0  0  0  0
    6.1599   -0.2500    0.0000 C   0  0  0  0  0  0  0  0  0  0  0  0
    7.0259    0.2500    0.0000 C   0  0  0  0  0  0  0  0  0  0  0  0
    6.0554   -1.2445    0.0000 C   0  0  0  0  0  0  0  0  0  0  0  0
    8.7579    0.2500    0.0000 C   0  0  0  0  0  0  0  0  0  0  0  0
    7.8919   -1.2500    0.0000 C   0  0  0  0  0  0  0  0  0  0  0  0
    9.6240   -0.2500    0.0000 C   0  0  0  0  0  0  0  0  0  0  0  0
    8.7579   -1.7500    0.0000 C   0  0  0  0  0  0  0  0  0  0  0  0
   10.4900    0.2500    0.0000 C   0  0  0  0  0  0  0  0  0  0  0  0
   10.4900    1.2500    0.0000 C   0  0  0  0  0  0  0  0  0  0  0  0
   11.3560    1.7500    0.0000 C   0  0  0  0  0  0  0  0  0  0  0  0
   12.2221    0.2500    0.0000 C   0  0  0  0  0  0  0  0  0  0  0  0
   12.2221    1.2500    0.0000 C   0  0  0  0  0  0  0  0  0  0  0  0
    3.8049   -1.0607    0.0000 H   0  0  0  0  0  0  0  0  0  0  0  0
    3.6491    0.6363    0.0000 H   0  0  0  0  0  0  0  0  0  0  0  0
    2.8911    0.9738    0.0000 H   0  0  0  0  0  0  0  0  0  0  0  0
    2.6035   -1.7620    0.0000 H   0  0  0  0  0  0  0  0  0  0  0  0
    3.4151   -1.5894    0.0000 H   0  0  0  0  0  0  0  0  0  0  0  0
    2.0397    0.7928    0.0000 H   0  0  0  0  0  0  0  0  0  0  0  0
    1.4845    0.1762    0.0000 H   0  0  0  0  0  0  0  0  0  0  0  0
    1.3936   -0.6894    0.0000 H   0  0  0  0  0  0  0  0  0  0  0  0
    1.8084   -1.4079    0.0000 H   0  0  0  0  0  0  0  0  0  0  0  0
    7.4244    0.7249    0.0000 H   0  0  0  0  0  0  0  0  0  0  0  0
    6.6274    0.7249    0.0000 H   0  0  0  0  0  0  0  0  0  0  0  0
    6.5161   -1.6594    0.0000 H   0  0  0  0  0  0  0  0  0  0  0  0
    9.1565    0.7249    0.0000 H   0  0  0  0  0  0  0  0  0  0  0  0
    8.3594    0.7249    0.0000 H   0  0  0  0  0  0  0  0  0  0  0  0
    7.2813   -1.1423    0.0000 H   0  0  0  0  0  0  0  0  0  0  0  0
    7.6799   -1.8326    0.0000 H   0  0  0  0  0  0  0  0  0  0  0  0
    9.2254   -0.7249    0.0000 H   0  0  0  0  0  0  0  0  0  0  0  0
   10.0225   -0.7249    0.0000 H   0  0  0  0  0  0  0  0  0  0  0  0
    8.4480   -2.2869    0.0000 H   0  0  0  0  0  0  0  0  0  0  0  0
    9.2949   -2.0600    0.0000 H   0  0  0  0  0  0  0  0  0  0  0  0
    9.0680   -1.2131    0.0000 H   0  0  0  0  0  0  0  0  0  0  0  0
    9.9531    1.5600    0.0000 H   0  0  0  0  0  0  0  0  0  0  0  0
   11.3560    2.3700    0.0000 H   0  0  0  0  0  0  0  0  0  0  0  0
   12.7590   -0.0600    0.0000 H   0  0  0  0  0  0  0  0  0  0  0  0
   12.7590    1.5600    0.0000 H   0  0  0  0  0  0  0  0  0  0  0  0
  1 10  1  0  0  0  0
  1 13  1  0  0  0  0
  2 10  2  0  0  0  0
  2 11  1  0  0  0  0
  3 12  1  0  0  0  0
  3 14  1  0  0  0  0
  3 15  1  0  0  0  0
  4 18  1  0  0  0  0
  4 21  2  0  0  0  0
  5  6  1  0  0  0  0
  5  7  1  0  0  0  0
  5 10  1  0  0  0  0
  5 23  1  0  0  0  0
  6  8  1  0  0  0  0
  6 24  1  0  0  0  0
  6 25  1  0  0  0  0
  7  9  1  0  0  0  0
  7 26  1  0  0  0  0
  7 27  1  0  0  0  0
  8  9  1  0  0  0  0
  8 28  1  0  0  0  0
  8 29  1  0  0  0  0
  9 30  1  0  0  0  0
  9 31  1  0  0  0  0
 11 12  1  0  0  0  0
 11 13  2  0  0  0  0
 12 32  1  0  0  0  0
 12 33  1  0  0  0  0
 13 34  1  0  0  0  0
 14 16  1  0  0  0  0
 14 35  1  0  0  0  0
 14 36  1  0  0  0  0
 15 17  1  0  0  0  0
 15 37  1  0  0  0  0
 15 38  1  0  0  0  0
 16 18  1  0  0  0  0
 16 39  1  0  0  0  0
 16 40  1  0  0  0  0
 17 41  1  0  0  0  0
 17 42  1  0  0  0  0
 17 43  1  0  0  0  0
 18 19  2  0  0  0  0
 19 20  1  0  0  0  0
 19 44  1  0  0  0  0
 20 22  2  0  0  0  0
 20 45  1  0  0  0  0
 21 22  1  0  0  0  0
 21 46  1  0  0  0  0
 22 47  1  0  0  0  0
M  END
> <PUBCHEM_COMPOUND_CID>
145963127

> <PUBCHEM_COMPOUND_CANONICALIZED>
1

> <PUBCHEM_CACTVS_COMPLEXITY>
320

> <PUBCHEM_CACTVS_HBOND_ACCEPTOR>
4

> <PUBCHEM_CACTVS_HBOND_DONOR>
0

> <PUBCHEM_CACTVS_ROTATABLE_BOND>
7

> <PUBCHEM_CACTVS_SUBSKEYS>
AAADceB7AABAAAAAAAAAAAAAAAAAAeIAAAAsAAAAAAAAAAAB4AAAHAQAAAAADQjFVgS+gZMIEAikATRnRACC8KBxCjgI2DQ4ZJgIYOLg0ZGUIAhggADoyAcQgAAOAAAAAAAAAAAAAAAAAAAAAAAAAAAAAA==

> <PUBCHEM_IUPAC_OPENEYE_NAME>
N-[(2-cyclopentylthiazol-4-yl)methyl]-N-ethyl-2-(2-pyridyl)ethanamine

> <PUBCHEM_IUPAC_CAS_NAME>
N-[(2-cyclopentyl-4-thiazolyl)methyl]-N-ethyl-2-(2-pyridinyl)ethanamine

> <PUBCHEM_IUPAC_NAME_MARKUP>
<I>N</I>-[(2-cyclopentyl-1,3-thiazol-4-yl)methyl]-<I>N</I>-ethyl-2-pyridin-2-ylethanamine

> <PUBCHEM_IUPAC_NAME>
N-[(2-cyclopentyl-1,3-thiazol-4-yl)methyl]-N-ethyl-2-pyridin-2-ylethanamine

> <PUBCHEM_IUPAC_SYSTEMATIC_NAME>
N-[(2-cyclopentyl-1,3-thiazol-4-yl)methyl]-N-ethyl-2-pyridin-2-yl-ethanamine

> <PUBCHEM_IUPAC_TRADITIONAL_NAME>
(2-cyclopentylthiazol-4-yl)methyl-ethyl-[2-(2-pyridyl)ethyl]amine

> <PUBCHEM_IUPAC_INCHI>
InChI=1S/C18H25N3S/c1-2-21(12-10-16-9-5-6-11-19-16)13-17-14-22-18(20-17)15-7-3-4-8-15/h5-6,9,11,14-15H,2-4,7-8,10,12-13H2,1H3

> <PUBCHEM_IUPAC_INCHIKEY>
IPDISBGZXJSTOA-UHFFFAOYSA-N

> <PUBCHEM_XLOGP3_AA>
3.8

> <PUBCHEM_EXACT_MASS>
315.17691898

> <PUBCHEM_MOLECULAR_FORMULA>
C18H25N3S

> <PUBCHEM_MOLECULAR_WEIGHT>
315.5

> <PUBCHEM_OPENEYE_CAN_SMILES>
CCN(CCC1=CC=CC=N1)CC2=CSC(=N2)C3CCCC3

> <PUBCHEM_OPENEYE_ISO_SMILES>
CCN(CCC1=CC=CC=N1)CC2=CSC(=N2)C3CCCC3

> <PUBCHEM_CACTVS_TPSA>
57.3

> <PUBCHEM_MONOISOTOPIC_WEIGHT>
315.17691898

> <PUBCHEM_TOTAL_CHARGE>
0

> <PUBCHEM_HEAVY_ATOM_COUNT>
22

> <PUBCHEM_ATOM_DEF_STEREO_COUNT>
0

> <PUBCHEM_ATOM_UDEF_STEREO_COUNT>
0

> <PUBCHEM_BOND_DEF_STEREO_COUNT>
0

> <PUBCHEM_BOND_UDEF_STEREO_COUNT>
0

> <PUBCHEM_ISOTOPIC_ATOM_COUNT>
0

> <PUBCHEM_COMPONENT_COUNT>
1

> <PUBCHEM_CACTVS_TAUTO_COUNT>
-1

> <PUBCHEM_COORDINATE_TYPE>
1
5
255

> <PUBCHEM_BONDANNOTATIONS>
1  10  8
1  13  8
11  13  8
18  19  8
19  20  8
2  10  8
2  11  8
20  22  8
21  22  8
4  18  8
4  21  8

$$$$
