57383434
  -OEChem-09292321582D

 58 62  0     1  0  0  0  0  0999 V2000
   11.7143   -1.0584    0.0000 S   0  0  2  0  0  0  0  0  0  0  0  0
   12.6482    2.0332    0.0000 O   0  0  0  0  0  0  0  0  0  0  0  0
   11.7143   -2.0584    0.0000 O   0  0  0  0  0  0  0  0  0  0  0  0
    7.6581    1.2444    0.0000 O   0  0  0  0  0  0  0  0  0  0  0  0
   11.2143    1.1323    0.0000 N   0  0  0  0  0  0  0  0  0  0  0  0
    7.1412   -0.4087    0.0000 N   0  0  0  0  0  0  0  0  0  0  0  0
   10.5908    0.3505    0.0000 C   0  0  0  0  0  0  0  0  0  0  0  0
    6.1867   -0.1102    0.0000 C   0  0  1  0  0  0  0  0  0  0  0  0
   10.8133   -0.6245    0.0000 C   0  0  0  0  0  0  0  0  0  0  0  0
    5.4511   -0.7876    0.0000 C   0  0  0  0  0  0  0  0  0  0  0  0
    8.8313   -0.0298    0.0000 C   0  0  0  0  0  0  0  0  0  0  0  0
    9.6003    0.6728    0.0000 C   0  0  0  0  0  0  0  0  0  0  0  0
   10.7804    2.0333    0.0000 C   0  0  0  0  0  0  0  0  0  0  0  0
   12.8378    0.3504    0.0000 C   0  0  0  0  0  0  0  0  0  0  0  0
   12.6152   -0.6245    0.0000 C   0  0  0  0  0  0  0  0  0  0  0  0
   12.2143    1.1323    0.0000 C   0  0  0  0  0  0  0  0  0  0  0  0
   10.0607   -1.3446    0.0000 C   0  0  0  0  0  0  0  0  0  0  0  0
    7.8768    0.2687    0.0000 C   0  0  0  0  0  0  0  0  0  0  0  0
    9.0630   -1.0453    0.0000 C   0  0  0  0  0  0  0  0  0  0  0  0
    4.4966   -0.4891    0.0000 C   0  0  0  0  0  0  0  0  0  0  0  0
    5.9680    0.8656    0.0000 C   0  0  0  0  0  0  0  0  0  0  0  0
    3.7610   -1.1664    0.0000 C   0  0  0  0  0  0  0  0  0  0  0  0
    5.6698   -1.7633    0.0000 C   0  0  0  0  0  0  0  0  0  0  0  0
    3.9797   -2.1422    0.0000 C   0  0  0  0  0  0  0  0  0  0  0  0
   13.8283    0.6728    0.0000 C   0  0  0  0  0  0  0  0  0  0  0  0
   13.3678   -1.3447    0.0000 C   0  0  0  0  0  0  0  0  0  0  0  0
   11.3437    2.8595    0.0000 C   0  0  0  0  0  0  0  0  0  0  0  0
    4.9342   -2.4407    0.0000 C   0  0  0  0  0  0  0  0  0  0  0  0
    2.7717   -0.8403    0.0000 C   0  0  0  0  0  0  0  0  0  0  0  0
   14.5973   -0.0298    0.0000 C   0  0  0  0  0  0  0  0  0  0  0  0
   14.3655   -1.0453    0.0000 C   0  0  0  0  0  0  0  0  0  0  0  0
    3.2244   -2.8595    0.0000 C   0  0  0  0  0  0  0  0  0  0  0  0
    2.0000   -1.5399    0.0000 C   0  0  0  0  0  0  0  0  0  0  0  0
    2.2279   -2.5563    0.0000 C   0  0  0  0  0  0  0  0  0  0  0  0
    6.6429    0.3097    0.0000 H   0  0  0  0  0  0  0  0  0  0  0  0
    9.4693    1.2788    0.0000 H   0  0  0  0  0  0  0  0  0  0  0  0
   10.3366    2.4662    0.0000 H   0  0  0  0  0  0  0  0  0  0  0  0
   10.2770    1.6713    0.0000 H   0  0  0  0  0  0  0  0  0  0  0  0
    7.2768   -1.0136    0.0000 H   0  0  0  0  0  0  0  0  0  0  0  0
   10.2057   -1.9475    0.0000 H   0  0  0  0  0  0  0  0  0  0  0  0
    8.6102   -1.4687    0.0000 H   0  0  0  0  0  0  0  0  0  0  0  0
    4.3610    0.1159    0.0000 H   0  0  0  0  0  0  0  0  0  0  0  0
    6.5730    1.0012    0.0000 H   0  0  0  0  0  0  0  0  0  0  0  0
    5.8324    1.4705    0.0000 H   0  0  0  0  0  0  0  0  0  0  0  0
    5.3630    0.7299    0.0000 H   0  0  0  0  0  0  0  0  0  0  0  0
    6.2616   -1.9484    0.0000 H   0  0  0  0  0  0  0  0  0  0  0  0
   13.9592    1.2788    0.0000 H   0  0  0  0  0  0  0  0  0  0  0  0
   13.2228   -1.9475    0.0000 H   0  0  0  0  0  0  0  0  0  0  0  0
   11.8560    2.5102    0.0000 H   0  0  0  0  0  0  0  0  0  0  0  0
   11.6930    3.3718    0.0000 H   0  0  0  0  0  0  0  0  0  0  0  0
   10.8315    3.2088    0.0000 H   0  0  0  0  0  0  0  0  0  0  0  0
    5.0698   -3.0457    0.0000 H   0  0  0  0  0  0  0  0  0  0  0  0
    2.6431   -0.2338    0.0000 H   0  0  0  0  0  0  0  0  0  0  0  0
   15.1890    0.1552    0.0000 H   0  0  0  0  0  0  0  0  0  0  0  0
   14.8183   -1.4688    0.0000 H   0  0  0  0  0  0  0  0  0  0  0  0
    3.3670   -3.4629    0.0000 H   0  0  0  0  0  0  0  0  0  0  0  0
    1.4090   -1.3526    0.0000 H   0  0  0  0  0  0  0  0  0  0  0  0
    1.7734   -2.9780    0.0000 H   0  0  0  0  0  0  0  0  0  0  0  0
  1  3  2  0  0  0  0
  1  9  1  6  0  0  0
  1 15  1  0  0  0  0
  2 16  2  0  0  0  0
  4 18  2  0  0  0  0
  5  7  1  0  0  0  0
  5 13  1  0  0  0  0
  5 16  1  0  0  0  0
  8  6  1  1  0  0  0
  6 18  1  0  0  0  0
  6 39  1  0  0  0  0
  7  9  2  0  0  0  0
  7 12  1  0  0  0  0
  8 10  1  0  0  0  0
  8 21  1  0  0  0  0
  8 35  1  0  0  0  0
  9 17  1  0  0  0  0
 10 20  2  0  0  0  0
 10 23  1  0  0  0  0
 11 12  2  0  0  0  0
 11 18  1  0  0  0  0
 11 19  1  0  0  0  0
 12 36  1  0  0  0  0
 13 27  1  0  0  0  0
 13 37  1  0  0  0  0
 13 38  1  0  0  0  0
 14 15  1  0  0  0  0
 14 16  1  0  0  0  0
 14 25  2  0  0  0  0
 15 26  2  0  0  0  0
 17 19  2  0  0  0  0
 17 40  1  0  0  0  0
 19 41  1  0  0  0  0
 20 22  1  0  0  0  0
 20 42  1  0  0  0  0
 21 43  1  0  0  0  0
 21 44  1  0  0  0  0
 21 45  1  0  0  0  0
 22 24  1  0  0  0  0
 22 29  2  0  0  0  0
 23 28  2  0  0  0  0
 23 46  1  0  0  0  0
 24 28  1  0  0  0  0
 24 32  2  0  0  0  0
 25 30  1  0  0  0  0
 25 47  1  0  0  0  0
 26 31  1  0  0  0  0
 26 48  1  0  0  0  0
 27 49  1  0  0  0  0
 27 50  1  0  0  0  0
 27 51  1  0  0  0  0
 28 52  1  0  0  0  0
 29 33  1  0  0  0  0
 29 53  1  0  0  0  0
 30 31  2  0  0  0  0
 30 54  1  0  0  0  0
 31 55  1  0  0  0  0
 32 34  1  0  0  0  0
 32 56  1  0  0  0  0
 33 34  2  0  0  0  0
 33 57  1  0  0  0  0
 34 58  1  0  0  0  0
M  END
> <PUBCHEM_COMPOUND_CID>
57383434

> <PUBCHEM_COMPOUND_CANONICALIZED>
1

> <PUBCHEM_CACTVS_COMPLEXITY>
788

> <PUBCHEM_CACTVS_HBOND_ACCEPTOR>
4

> <PUBCHEM_CACTVS_HBOND_DONOR>
1

> <PUBCHEM_CACTVS_ROTATABLE_BOND>
4

> <PUBCHEM_CACTVS_SUBSKEYS>
AAADceB7MABAAAAAAAAAAAAAAAAAAAAAAAAwYMGABYAAAADBVAAAHgQQAAAADCjB2AQywcPAAAqIAiVSUEDCAAAlChAIiJ0IZMgIIDLglZGEIQhglgDoyYcciMCO0AACQAAUAQCgAASAACgCAAAAAAAAAA==

> <PUBCHEM_IUPAC_OPENEYE_NAME>
(11S)-5-ethyl-N-[(1R)-1-(2-naphthyl)ethyl]-6,11-dioxo-benzo[b][1,4]benzothiazepine-3-carboxamide

> <PUBCHEM_IUPAC_CAS_NAME>
(11S)-5-ethyl-N-[(1R)-1-(2-naphthalenyl)ethyl]-6,11-dioxo-3-benzo[b][1,4]benzothiazepinecarboxamide

> <PUBCHEM_IUPAC_NAME_MARKUP>
(11<I>S</I>)-5-ethyl-<I>N</I>-[(1<I>R</I>)-1-naphthalen-2-ylethyl]-6,11-dioxobenzo[b][1,4]benzothiazepine-3-carboxamide

> <PUBCHEM_IUPAC_NAME>
(11S)-5-ethyl-N-[(1R)-1-naphthalen-2-ylethyl]-6,11-dioxobenzo[b][1,4]benzothiazepine-3-carboxamide

> <PUBCHEM_IUPAC_SYSTEMATIC_NAME>
(11S)-5-ethyl-N-[(1R)-1-naphthalen-2-ylethyl]-6,11-bis(oxidanylidene)benzo[b][1,4]benzothiazepine-3-carboxamide

> <PUBCHEM_IUPAC_TRADITIONAL_NAME>
(11S)-5-ethyl-6,11-diketo-N-[(1R)-1-(2-naphthyl)ethyl]benzo[b][1,4]benzothiazepine-3-carboxamide

> <PUBCHEM_IUPAC_INCHI>
InChI=1S/C28H24N2O3S/c1-3-30-24-17-22(14-15-26(24)34(33)25-11-7-6-10-23(25)28(30)32)27(31)29-18(2)20-13-12-19-8-4-5-9-21(19)16-20/h4-18H,3H2,1-2H3,(H,29,31)/t18-,34+/m1/s1

> <PUBCHEM_IUPAC_INCHIKEY>
IGIPSUCYDDNAQY-JTYJAPAGSA-N

> <PUBCHEM_XLOGP3_AA>
4.6

> <PUBCHEM_EXACT_MASS>
468.15076381

> <PUBCHEM_MOLECULAR_FORMULA>
C28H24N2O3S

> <PUBCHEM_MOLECULAR_WEIGHT>
468.6

> <PUBCHEM_OPENEYE_CAN_SMILES>
CCN1C2=C(C=CC(=C2)C(=O)NC(C)C3=CC4=CC=CC=C4C=C3)S(=O)C5=CC=CC=C5C1=O

> <PUBCHEM_OPENEYE_ISO_SMILES>
CCN1C2=C(C=CC(=C2)C(=O)N[C@H](C)C3=CC4=CC=CC=C4C=C3)[S@@](=O)C5=CC=CC=C5C1=O

> <PUBCHEM_CACTVS_TPSA>
85.7

> <PUBCHEM_MONOISOTOPIC_WEIGHT>
468.15076381

> <PUBCHEM_TOTAL_CHARGE>
0

> <PUBCHEM_HEAVY_ATOM_COUNT>
34

> <PUBCHEM_ATOM_DEF_STEREO_COUNT>
2

> <PUBCHEM_ATOM_UDEF_STEREO_COUNT>
0

> <PUBCHEM_BOND_DEF_STEREO_COUNT>
0

> <PUBCHEM_BOND_UDEF_STEREO_COUNT>
0

> <PUBCHEM_ISOTOPIC_ATOM_COUNT>
0

> <PUBCHEM_COMPONENT_COUNT>
1

> <PUBCHEM_CACTVS_TAUTO_COUNT>
-1

> <PUBCHEM_COORDINATE_TYPE>
1
5
255

> <PUBCHEM_BONDANNOTATIONS>
1  9  6
10  20  8
10  23  8
11  12  8
11  19  8
14  15  8
14  25  8
15  26  8
17  19  8
20  22  8
22  24  8
22  29  8
23  28  8
24  28  8
24  32  8
25  30  8
26  31  8
29  33  8
30  31  8
32  34  8
33  34  8
8  6  5
7  12  8
7  9  8
9  17  8

$$$$
