21557475
  -OEChem-09292322412D

 63 67  0     0  0  0  0  0  0999 V2000
    5.5161   -3.4654    0.0000 O   0  0  0  0  0  0  0  0  0  0  0  0
    2.0520   -3.4654    0.0000 O   0  0  0  0  0  0  0  0  0  0  0  0
    6.3821    2.0346    0.0000 N   0  0  0  0  0  0  0  0  0  0  0  0
    6.3821    4.0346    0.0000 N   0  0  0  0  0  0  0  0  0  0  0  0
    3.7841   -3.4654    0.0000 N   0  0  0  0  0  0  0  0  0  0  0  0
    7.2482    5.5346    0.0000 N   0  0  0  0  0  0  0  0  0  0  0  0
    7.2482    2.5346    0.0000 C   0  0  0  0  0  0  0  0  0  0  0  0
    5.5161    2.5346    0.0000 C   0  0  0  0  0  0  0  0  0  0  0  0
    6.3821    1.0346    0.0000 C   0  0  0  0  0  0  0  0  0  0  0  0
    7.2482    3.5346    0.0000 C   0  0  0  0  0  0  0  0  0  0  0  0
    5.5161    3.5346    0.0000 C   0  0  0  0  0  0  0  0  0  0  0  0
    5.5161    0.5346    0.0000 C   0  0  0  0  0  0  0  0  0  0  0  0
    5.5161   -0.4654    0.0000 C   0  0  0  0  0  0  0  0  0  0  0  0
    4.6501   -0.9654    0.0000 C   0  0  0  0  0  0  0  0  0  0  0  0
    4.6501   -1.9654    0.0000 C   0  0  0  0  0  0  0  0  0  0  0  0
    3.7841   -2.4654    0.0000 C   0  0  0  0  0  0  0  0  0  0  0  0
    6.3821    5.0346    0.0000 C   0  0  0  0  0  0  0  0  0  0  0  0
    3.7841   -5.4654    0.0000 C   0  0  0  0  0  0  0  0  0  0  0  0
    4.6501   -3.9654    0.0000 C   0  0  0  0  0  0  0  0  0  0  0  0
    2.9180   -3.9654    0.0000 C   0  0  0  0  0  0  0  0  0  0  0  0
    4.6501   -4.9654    0.0000 C   0  0  0  0  0  0  0  0  0  0  0  0
    2.9180   -4.9654    0.0000 C   0  0  0  0  0  0  0  0  0  0  0  0
    5.5161    5.5346    0.0000 C   0  0  0  0  0  0  0  0  0  0  0  0
    3.8001   -6.5069    0.0000 C   0  0  0  0  0  0  0  0  0  0  0  0
    5.5601   -5.4722    0.0000 C   0  0  0  0  0  0  0  0  0  0  0  0
    2.0080   -5.4722    0.0000 C   0  0  0  0  0  0  0  0  0  0  0  0
    5.5161    6.5346    0.0000 C   0  0  0  0  0  0  0  0  0  0  0  0
    4.6660   -7.0346    0.0000 C   0  0  0  0  0  0  0  0  0  0  0  0
    2.9021   -7.0346    0.0000 C   0  0  0  0  0  0  0  0  0  0  0  0
    5.5681   -6.5138    0.0000 C   0  0  0  0  0  0  0  0  0  0  0  0
    2.0000   -6.5138    0.0000 C   0  0  0  0  0  0  0  0  0  0  0  0
    7.2482    6.5346    0.0000 C   0  0  0  0  0  0  0  0  0  0  0  0
    6.3821    7.0346    0.0000 C   0  0  0  0  0  0  0  0  0  0  0  0
    7.4602    1.9520    0.0000 H   0  0  0  0  0  0  0  0  0  0  0  0
    7.8587    2.6423    0.0000 H   0  0  0  0  0  0  0  0  0  0  0  0
    4.9055    2.6423    0.0000 H   0  0  0  0  0  0  0  0  0  0  0  0
    5.3040    1.9520    0.0000 H   0  0  0  0  0  0  0  0  0  0  0  0
    6.5942    0.4520    0.0000 H   0  0  0  0  0  0  0  0  0  0  0  0
    6.9927    1.1423    0.0000 H   0  0  0  0  0  0  0  0  0  0  0  0
    7.8587    3.4270    0.0000 H   0  0  0  0  0  0  0  0  0  0  0  0
    7.4602    4.1172    0.0000 H   0  0  0  0  0  0  0  0  0  0  0  0
    5.3040    4.1172    0.0000 H   0  0  0  0  0  0  0  0  0  0  0  0
    4.9055    3.4270    0.0000 H   0  0  0  0  0  0  0  0  0  0  0  0
    5.3040    1.1172    0.0000 H   0  0  0  0  0  0  0  0  0  0  0  0
    4.9055    0.4270    0.0000 H   0  0  0  0  0  0  0  0  0  0  0  0
    5.7282   -1.0480    0.0000 H   0  0  0  0  0  0  0  0  0  0  0  0
    6.1267   -0.3577    0.0000 H   0  0  0  0  0  0  0  0  0  0  0  0
    4.4380   -0.3828    0.0000 H   0  0  0  0  0  0  0  0  0  0  0  0
    4.0395   -1.0730    0.0000 H   0  0  0  0  0  0  0  0  0  0  0  0
    4.8621   -2.5480    0.0000 H   0  0  0  0  0  0  0  0  0  0  0  0
    5.2607   -1.8577    0.0000 H   0  0  0  0  0  0  0  0  0  0  0  0
    3.5720   -1.8828    0.0000 H   0  0  0  0  0  0  0  0  0  0  0  0
    3.1735   -2.5730    0.0000 H   0  0  0  0  0  0  0  0  0  0  0  0
    4.9792    5.2246    0.0000 H   0  0  0  0  0  0  0  0  0  0  0  0
    6.0934   -5.1560    0.0000 H   0  0  0  0  0  0  0  0  0  0  0  0
    1.4747   -5.1560    0.0000 H   0  0  0  0  0  0  0  0  0  0  0  0
    4.9792    6.8446    0.0000 H   0  0  0  0  0  0  0  0  0  0  0  0
    4.6587   -7.6546    0.0000 H   0  0  0  0  0  0  0  0  0  0  0  0
    2.9045   -7.6546    0.0000 H   0  0  0  0  0  0  0  0  0  0  0  0
    6.1062   -6.8217    0.0000 H   0  0  0  0  0  0  0  0  0  0  0  0
    1.4619   -6.8217    0.0000 H   0  0  0  0  0  0  0  0  0  0  0  0
    7.7851    6.8446    0.0000 H   0  0  0  0  0  0  0  0  0  0  0  0
    6.3821    7.6546    0.0000 H   0  0  0  0  0  0  0  0  0  0  0  0
  1 19  2  0  0  0  0
  2 20  2  0  0  0  0
  3  7  1  0  0  0  0
  3  8  1  0  0  0  0
  3  9  1  0  0  0  0
  4 10  1  0  0  0  0
  4 11  1  0  0  0  0
  4 17  1  0  0  0  0
  5 16  1  0  0  0  0
  5 19  1  0  0  0  0
  5 20  1  0  0  0  0
  6 17  1  0  0  0  0
  6 32  2  0  0  0  0
  7 10  1  0  0  0  0
  7 34  1  0  0  0  0
  7 35  1  0  0  0  0
  8 11  1  0  0  0  0
  8 36  1  0  0  0  0
  8 37  1  0  0  0  0
  9 12  1  0  0  0  0
  9 38  1  0  0  0  0
  9 39  1  0  0  0  0
 10 40  1  0  0  0  0
 10 41  1  0  0  0  0
 11 42  1  0  0  0  0
 11 43  1  0  0  0  0
 12 13  1  0  0  0  0
 12 44  1  0  0  0  0
 12 45  1  0  0  0  0
 13 14  1  0  0  0  0
 13 46  1  0  0  0  0
 13 47  1  0  0  0  0
 14 15  1  0  0  0  0
 14 48  1  0  0  0  0
 14 49  1  0  0  0  0
 15 16  1  0  0  0  0
 15 50  1  0  0  0  0
 15 51  1  0  0  0  0
 16 52  1  0  0  0  0
 16 53  1  0  0  0  0
 17 23  2  0  0  0  0
 18 21  1  0  0  0  0
 18 22  1  0  0  0  0
 18 24  2  0  0  0  0
 19 21  1  0  0  0  0
 20 22  1  0  0  0  0
 21 25  2  0  0  0  0
 22 26  2  0  0  0  0
 23 27  1  0  0  0  0
 23 54  1  0  0  0  0
 24 28  1  0  0  0  0
 24 29  1  0  0  0  0
 25 30  1  0  0  0  0
 25 55  1  0  0  0  0
 26 31  1  0  0  0  0
 26 56  1  0  0  0  0
 27 33  2  0  0  0  0
 27 57  1  0  0  0  0
 28 30  2  0  0  0  0
 28 58  1  0  0  0  0
 29 31  2  0  0  0  0
 29 59  1  0  0  0  0
 30 60  1  0  0  0  0
 31 61  1  0  0  0  0
 32 33  1  0  0  0  0
 32 62  1  0  0  0  0
 33 63  1  0  0  0  0
M  END
> <PUBCHEM_COMPOUND_CID>
21557475

> <PUBCHEM_COMPOUND_CANONICALIZED>
1

> <PUBCHEM_CACTVS_COMPLEXITY>
647

> <PUBCHEM_CACTVS_HBOND_ACCEPTOR>
5

> <PUBCHEM_CACTVS_HBOND_DONOR>
0

> <PUBCHEM_CACTVS_ROTATABLE_BOND>
8

> <PUBCHEM_CACTVS_SUBSKEYS>
AAADceB7sAAAAAAAAAAAAAAAAAAAAAAAAAA8eLECAAAAAADx1AAAHgAAAAAADADBmgQ9sNMIEACoAjN3dACCgCk1AiAJ2CE4ZNiIYPLAnZGUIQhohiLIyacYi8COgAACAAAQAAAAAAQAACAAAAAAAAAAAA==

> <PUBCHEM_IUPAC_OPENEYE_NAME>
2-[6-[4-(2-pyridyl)piperazin-1-yl]hexyl]benzo[de]isoquinoline-1,3-dione

> <PUBCHEM_IUPAC_CAS_NAME>
2-[6-[4-(2-pyridinyl)-1-piperazinyl]hexyl]benzo[de]isoquinoline-1,3-dione

> <PUBCHEM_IUPAC_NAME_MARKUP>
2-[6-(4-pyridin-2-ylpiperazin-1-yl)hexyl]benzo[de]isoquinoline-1,3-dione

> <PUBCHEM_IUPAC_NAME>
2-[6-(4-pyridin-2-ylpiperazin-1-yl)hexyl]benzo[de]isoquinoline-1,3-dione

> <PUBCHEM_IUPAC_SYSTEMATIC_NAME>
2-[6-(4-pyridin-2-ylpiperazin-1-yl)hexyl]benzo[de]isoquinoline-1,3-dione

> <PUBCHEM_IUPAC_TRADITIONAL_NAME>
2-[6-[4-(2-pyridyl)piperazino]hexyl]benzo[de]isoquinoline-1,3-quinone

> <PUBCHEM_IUPAC_INCHI>
InChI=1S/C27H30N4O2/c32-26-22-11-7-9-21-10-8-12-23(25(21)22)27(33)31(26)16-6-2-1-5-15-29-17-19-30(20-18-29)24-13-3-4-14-28-24/h3-4,7-14H,1-2,5-6,15-20H2

> <PUBCHEM_IUPAC_INCHIKEY>
NZAYAJKIYZAQIQ-UHFFFAOYSA-N

> <PUBCHEM_XLOGP3_AA>
4.5

> <PUBCHEM_EXACT_MASS>
442.23687621

> <PUBCHEM_MOLECULAR_FORMULA>
C27H30N4O2

> <PUBCHEM_MOLECULAR_WEIGHT>
442.6

> <PUBCHEM_OPENEYE_CAN_SMILES>
C1CN(CCN1CCCCCCN2C(=O)C3=CC=CC4=C3C(=CC=C4)C2=O)C5=CC=CC=N5

> <PUBCHEM_OPENEYE_ISO_SMILES>
C1CN(CCN1CCCCCCN2C(=O)C3=CC=CC4=C3C(=CC=C4)C2=O)C5=CC=CC=N5

> <PUBCHEM_CACTVS_TPSA>
56.8

> <PUBCHEM_MONOISOTOPIC_WEIGHT>
442.23687621

> <PUBCHEM_TOTAL_CHARGE>
0

> <PUBCHEM_HEAVY_ATOM_COUNT>
33

> <PUBCHEM_ATOM_DEF_STEREO_COUNT>
0

> <PUBCHEM_ATOM_UDEF_STEREO_COUNT>
0

> <PUBCHEM_BOND_DEF_STEREO_COUNT>
0

> <PUBCHEM_BOND_UDEF_STEREO_COUNT>
0

> <PUBCHEM_ISOTOPIC_ATOM_COUNT>
0

> <PUBCHEM_COMPONENT_COUNT>
1

> <PUBCHEM_CACTVS_TAUTO_COUNT>
-1

> <PUBCHEM_COORDINATE_TYPE>
1
5
255

> <PUBCHEM_BONDANNOTATIONS>
17  23  8
18  21  8
18  22  8
18  24  8
21  25  8
22  26  8
23  27  8
24  28  8
24  29  8
25  30  8
26  31  8
27  33  8
28  30  8
29  31  8
32  33  8
6  17  8
6  32  8

$$$$
