145986752
  -OEChem-09292322392D

 73 76  0     0  0  0  0  0  0999 V2000
    4.5981   -6.7631    0.0000 Cl  0  0  0  0  0  0  0  0  0  0  0  0
    2.0000   -6.2631    0.0000 F   0  0  0  0  0  0  0  0  0  0  0  0
    2.3660   -4.8971    0.0000 F   0  0  0  0  0  0  0  0  0  0  0  0
    3.3660   -6.6292    0.0000 F   0  0  0  0  0  0  0  0  0  0  0  0
    3.7320   -3.2631    0.0000 O   0  0  0  0  0  0  0  0  0  0  0  0
    4.0981    6.7631    0.0000 O   0  0  0  0  0  0  0  0  0  0  0  0
   10.0981    3.2990    0.0000 O   0  0  0  0  0  0  0  0  0  0  0  0
    5.5981   -1.0311    0.0000 N   0  0  0  0  0  0  0  0  0  0  0  0
    6.0981    3.2990    0.0000 N   0  0  0  0  0  0  0  0  0  0  0  0
    4.5981   -2.7631    0.0000 C   0  0  0  0  0  0  0  0  0  0  0  0
    4.0981   -1.8971    0.0000 C   0  0  0  0  0  0  0  0  0  0  0  0
    5.5981   -2.7631    0.0000 C   0  0  0  0  0  0  0  0  0  0  0  0
    4.5981   -1.0311    0.0000 C   0  0  0  0  0  0  0  0  0  0  0  0
    6.0981   -1.8971    0.0000 C   0  0  0  0  0  0  0  0  0  0  0  0
    6.0981   -0.1651    0.0000 C   0  0  0  0  0  0  0  0  0  0  0  0
    4.5981   -3.7631    0.0000 C   0  0  0  0  0  0  0  0  0  0  0  0
    5.5981    0.7010    0.0000 C   0  0  0  0  0  0  0  0  0  0  0  0
    6.0981    1.5670    0.0000 C   0  0  0  0  0  0  0  0  0  0  0  0
    3.7320   -4.2631    0.0000 C   0  0  0  0  0  0  0  0  0  0  0  0
    5.4641   -4.2631    0.0000 C   0  0  0  0  0  0  0  0  0  0  0  0
    5.5981    2.4330    0.0000 C   0  0  0  0  0  0  0  0  0  0  0  0
    3.7320   -5.2631    0.0000 C   0  0  0  0  0  0  0  0  0  0  0  0
    5.4641   -5.2631    0.0000 C   0  0  0  0  0  0  0  0  0  0  0  0
    4.5981   -5.7631    0.0000 C   0  0  0  0  0  0  0  0  0  0  0  0
    2.8660   -5.7631    0.0000 C   0  0  0  0  0  0  0  0  0  0  0  0
    5.5981    4.1651    0.0000 C   0  0  0  0  0  0  0  0  0  0  0  0
    7.0981    3.2990    0.0000 C   0  0  0  0  0  0  0  0  0  0  0  0
    6.0981    5.0311    0.0000 C   0  0  0  0  0  0  0  0  0  0  0  0
    7.5981    4.1651    0.0000 C   0  0  0  0  0  0  0  0  0  0  0  0
    4.5981    4.1651    0.0000 C   0  0  0  0  0  0  0  0  0  0  0  0
    7.5981    2.4330    0.0000 C   0  0  0  0  0  0  0  0  0  0  0  0
    5.5981    5.8971    0.0000 C   0  0  0  0  0  0  0  0  0  0  0  0
    8.5981    4.1651    0.0000 C   0  0  0  0  0  0  0  0  0  0  0  0
    4.0981    5.0311    0.0000 C   0  0  0  0  0  0  0  0  0  0  0  0
    8.5981    2.4330    0.0000 C   0  0  0  0  0  0  0  0  0  0  0  0
    4.5981    5.8971    0.0000 C   0  0  0  0  0  0  0  0  0  0  0  0
    9.0981    3.2990    0.0000 C   0  0  0  0  0  0  0  0  0  0  0  0
    3.0981    6.7631    0.0000 C   0  0  0  0  0  0  0  0  0  0  0  0
   10.5981    4.1651    0.0000 C   0  0  0  0  0  0  0  0  0  0  0  0
    3.6231   -1.4986    0.0000 H   0  0  0  0  0  0  0  0  0  0  0  0
    3.6231   -2.2956    0.0000 H   0  0  0  0  0  0  0  0  0  0  0  0
    5.4904   -3.3737    0.0000 H   0  0  0  0  0  0  0  0  0  0  0  0
    6.1807   -2.9752    0.0000 H   0  0  0  0  0  0  0  0  0  0  0  0
    4.7057   -0.4205    0.0000 H   0  0  0  0  0  0  0  0  0  0  0  0
    4.0155   -0.8190    0.0000 H   0  0  0  0  0  0  0  0  0  0  0  0
    6.5730   -2.2956    0.0000 H   0  0  0  0  0  0  0  0  0  0  0  0
    6.5730   -1.4986    0.0000 H   0  0  0  0  0  0  0  0  0  0  0  0
    6.5730   -0.5636    0.0000 H   0  0  0  0  0  0  0  0  0  0  0  0
    6.5730    0.2335    0.0000 H   0  0  0  0  0  0  0  0  0  0  0  0
    5.1231    1.0995    0.0000 H   0  0  0  0  0  0  0  0  0  0  0  0
    5.1231    0.3024    0.0000 H   0  0  0  0  0  0  0  0  0  0  0  0
    3.1951   -2.9531    0.0000 H   0  0  0  0  0  0  0  0  0  0  0  0
    6.5730    1.1685    0.0000 H   0  0  0  0  0  0  0  0  0  0  0  0
    6.5730    1.9655    0.0000 H   0  0  0  0  0  0  0  0  0  0  0  0
    3.1951   -3.9531    0.0000 H   0  0  0  0  0  0  0  0  0  0  0  0
    6.0010   -3.9531    0.0000 H   0  0  0  0  0  0  0  0  0  0  0  0
    5.1231    2.8315    0.0000 H   0  0  0  0  0  0  0  0  0  0  0  0
    5.1231    2.0345    0.0000 H   0  0  0  0  0  0  0  0  0  0  0  0
    6.0010   -5.5731    0.0000 H   0  0  0  0  0  0  0  0  0  0  0  0
    6.7181    5.0311    0.0000 H   0  0  0  0  0  0  0  0  0  0  0  0
    7.2881    4.7020    0.0000 H   0  0  0  0  0  0  0  0  0  0  0  0
    4.2881    3.6281    0.0000 H   0  0  0  0  0  0  0  0  0  0  0  0
    7.2881    1.8961    0.0000 H   0  0  0  0  0  0  0  0  0  0  0  0
    5.9081    6.4340    0.0000 H   0  0  0  0  0  0  0  0  0  0  0  0
    8.9081    4.7020    0.0000 H   0  0  0  0  0  0  0  0  0  0  0  0
    3.4781    5.0311    0.0000 H   0  0  0  0  0  0  0  0  0  0  0  0
    8.9081    1.8961    0.0000 H   0  0  0  0  0  0  0  0  0  0  0  0
    3.0981    7.3831    0.0000 H   0  0  0  0  0  0  0  0  0  0  0  0
    2.4781    6.7631    0.0000 H   0  0  0  0  0  0  0  0  0  0  0  0
    3.0981    6.1431    0.0000 H   0  0  0  0  0  0  0  0  0  0  0  0
   11.1350    3.8551    0.0000 H   0  0  0  0  0  0  0  0  0  0  0  0
   10.9081    4.7020    0.0000 H   0  0  0  0  0  0  0  0  0  0  0  0
   10.0611    4.4751    0.0000 H   0  0  0  0  0  0  0  0  0  0  0  0
  1 24  1  0  0  0  0
  2 25  1  0  0  0  0
  3 25  1  0  0  0  0
  4 25  1  0  0  0  0
  5 10  1  0  0  0  0
  5 52  1  0  0  0  0
  6 36  1  0  0  0  0
  6 38  1  0  0  0  0
  7 37  1  0  0  0  0
  7 39  1  0  0  0  0
  8 13  1  0  0  0  0
  8 14  1  0  0  0  0
  8 15  1  0  0  0  0
  9 21  1  0  0  0  0
  9 26  1  0  0  0  0
  9 27  1  0  0  0  0
 10 11  1  0  0  0  0
 10 12  1  0  0  0  0
 10 16  1  0  0  0  0
 11 13  1  0  0  0  0
 11 40  1  0  0  0  0
 11 41  1  0  0  0  0
 12 14  1  0  0  0  0
 12 42  1  0  0  0  0
 12 43  1  0  0  0  0
 13 44  1  0  0  0  0
 13 45  1  0  0  0  0
 14 46  1  0  0  0  0
 14 47  1  0  0  0  0
 15 17  1  0  0  0  0
 15 48  1  0  0  0  0
 15 49  1  0  0  0  0
 16 19  2  0  0  0  0
 16 20  1  0  0  0  0
 17 18  1  0  0  0  0
 17 50  1  0  0  0  0
 17 51  1  0  0  0  0
 18 21  1  0  0  0  0
 18 53  1  0  0  0  0
 18 54  1  0  0  0  0
 19 22  1  0  0  0  0
 19 55  1  0  0  0  0
 20 23  2  0  0  0  0
 20 56  1  0  0  0  0
 21 57  1  0  0  0  0
 21 58  1  0  0  0  0
 22 24  2  0  0  0  0
 22 25  1  0  0  0  0
 23 24  1  0  0  0  0
 23 59  1  0  0  0  0
 26 28  2  0  0  0  0
 26 30  1  0  0  0  0
 27 29  2  0  0  0  0
 27 31  1  0  0  0  0
 28 32  1  0  0  0  0
 28 60  1  0  0  0  0
 29 33  1  0  0  0  0
 29 61  1  0  0  0  0
 30 34  2  0  0  0  0
 30 62  1  0  0  0  0
 31 35  2  0  0  0  0
 31 63  1  0  0  0  0
 32 36  2  0  0  0  0
 32 64  1  0  0  0  0
 33 37  2  0  0  0  0
 33 65  1  0  0  0  0
 34 36  1  0  0  0  0
 34 66  1  0  0  0  0
 35 37  1  0  0  0  0
 35 67  1  0  0  0  0
 38 68  1  0  0  0  0
 38 69  1  0  0  0  0
 38 70  1  0  0  0  0
 39 71  1  0  0  0  0
 39 72  1  0  0  0  0
 39 73  1  0  0  0  0
M  END
> <PUBCHEM_COMPOUND_CID>
145986752

> <PUBCHEM_COMPOUND_CANONICALIZED>
1

> <PUBCHEM_CACTVS_COMPLEXITY>
697

> <PUBCHEM_CACTVS_HBOND_ACCEPTOR>
8

> <PUBCHEM_CACTVS_HBOND_DONOR>
1

> <PUBCHEM_CACTVS_ROTATABLE_BOND>
10

> <PUBCHEM_CACTVS_SUBSKEYS>
AAADcfB7MYAEAAAAAAAAAAAAAAAAAAAAAAA8YMEAAAAAAAABUAAAHwIACAAADE7BmDYyxoMABgCAAiRCQACCCAAhJwAIiAAObogMJmLFs5uEcChmwBHI+AewwOAOhEACAAABAAAIgAQAAAIAAAAAAAAAAA==

> <PUBCHEM_IUPAC_OPENEYE_NAME>
4-[4-chloro-3-(trifluoromethyl)phenyl]-1-[4-(4-methoxy-N-(4-methoxyphenyl)anilino)butyl]piperidin-4-ol

> <PUBCHEM_IUPAC_CAS_NAME>
4-[4-chloro-3-(trifluoromethyl)phenyl]-1-[4-(4-methoxy-N-(4-methoxyphenyl)anilino)butyl]-4-piperidinol

> <PUBCHEM_IUPAC_NAME_MARKUP>
4-[4-chloro-3-(trifluoromethyl)phenyl]-1-[4-(4-methoxy-<I>N</I>-(4-methoxyphenyl)anilino)butyl]piperidin-4-ol

> <PUBCHEM_IUPAC_NAME>
4-[4-chloro-3-(trifluoromethyl)phenyl]-1-[4-(4-methoxy-N-(4-methoxyphenyl)anilino)butyl]piperidin-4-ol

> <PUBCHEM_IUPAC_SYSTEMATIC_NAME>
1-[4-[bis(4-methoxyphenyl)amino]butyl]-4-[4-chloranyl-3-(trifluoromethyl)phenyl]piperidin-4-ol

> <PUBCHEM_IUPAC_TRADITIONAL_NAME>
4-[4-chloro-3-(trifluoromethyl)phenyl]-1-[4-(4-methoxy-N-(4-methoxyphenyl)anilino)butyl]piperidin-4-ol

> <PUBCHEM_IUPAC_INCHI>
InChI=1S/C30H34ClF3N2O3/c1-38-25-10-6-23(7-11-25)36(24-8-12-26(39-2)13-9-24)18-4-3-17-35-19-15-29(37,16-20-35)22-5-14-28(31)27(21-22)30(32,33)34/h5-14,21,37H,3-4,15-20H2,1-2H3

> <PUBCHEM_IUPAC_INCHIKEY>
DYLSSJRMONSQGQ-UHFFFAOYSA-N

> <PUBCHEM_XLOGP3_AA>
7

> <PUBCHEM_EXACT_MASS>
562.2210051

> <PUBCHEM_MOLECULAR_FORMULA>
C30H34ClF3N2O3

> <PUBCHEM_MOLECULAR_WEIGHT>
563.0

> <PUBCHEM_OPENEYE_CAN_SMILES>
COC1=CC=C(C=C1)N(CCCCN2CCC(CC2)(C3=CC(=C(C=C3)Cl)C(F)(F)F)O)C4=CC=C(C=C4)OC

> <PUBCHEM_OPENEYE_ISO_SMILES>
COC1=CC=C(C=C1)N(CCCCN2CCC(CC2)(C3=CC(=C(C=C3)Cl)C(F)(F)F)O)C4=CC=C(C=C4)OC

> <PUBCHEM_CACTVS_TPSA>
45.2

> <PUBCHEM_MONOISOTOPIC_WEIGHT>
562.2210051

> <PUBCHEM_TOTAL_CHARGE>
0

> <PUBCHEM_HEAVY_ATOM_COUNT>
39

> <PUBCHEM_ATOM_DEF_STEREO_COUNT>
0

> <PUBCHEM_ATOM_UDEF_STEREO_COUNT>
0

> <PUBCHEM_BOND_DEF_STEREO_COUNT>
0

> <PUBCHEM_BOND_UDEF_STEREO_COUNT>
0

> <PUBCHEM_ISOTOPIC_ATOM_COUNT>
0

> <PUBCHEM_COMPONENT_COUNT>
1

> <PUBCHEM_CACTVS_TAUTO_COUNT>
-1

> <PUBCHEM_COORDINATE_TYPE>
1
5
255

> <PUBCHEM_BONDANNOTATIONS>
16  19  8
16  20  8
19  22  8
20  23  8
22  24  8
23  24  8
26  28  8
26  30  8
27  29  8
27  31  8
28  32  8
29  33  8
30  34  8
31  35  8
32  36  8
33  37  8
34  36  8
35  37  8

$$$$
