168283676
  -OEChem-10012300362D

 89 95  0     1  0  0  0  0  0999 V2000
    9.7746   -0.9810    0.0000 O   0  0  0  0  0  0  0  0  0  0  0  0
    9.5907   -3.6398    0.0000 O   0  0  0  0  0  0  0  0  0  0  0  0
   11.8863   -2.5184    0.0000 O   0  0  0  0  0  0  0  0  0  0  0  0
   11.6406    3.5190    0.0000 O   0  0  0  0  0  0  0  0  0  0  0  0
    4.9994   -5.0673    0.0000 O   0  0  0  0  0  0  0  0  0  0  0  0
   10.2746   -2.5198    0.0000 N   0  0  3  0  0  0  0  0  0  0  0  0
   12.5067    2.0190    0.0000 N   0  0  0  0  0  0  0  0  0  0  0  0
    5.5864   -3.4377    0.0000 N   0  0  0  0  0  0  0  0  0  0  0  0
   12.5067    5.0190    0.0000 N   0  0  0  0  0  0  0  0  0  0  0  0
    3.2946   -5.3737    0.0000 N   0  0  0  0  0  0  0  0  0  0  0  0
    9.4656   -1.9320    0.0000 C   0  0  2  0  0  0  0  0  0  0  0  0
   11.0836   -1.9320    0.0000 C   0  0  2  0  0  0  0  0  0  0  0  0
   10.7746   -0.9810    0.0000 C   0  0  2  0  0  0  0  0  0  0  0  0
    8.9958   -2.8249    0.0000 C   0  0  2  0  0  0  0  0  0  0  0  0
   10.5843   -3.4644    0.0000 C   0  0  2  0  0  0  0  0  0  0  0  0
   11.5783   -3.4636    0.0000 C   0  0  0  0  0  0  0  0  0  0  0  0
   11.7257   -0.6720    0.0000 C   0  0  0  0  0  0  0  0  0  0  0  0
    8.1460   -2.2978    0.0000 C   0  0  0  0  0  0  0  0  0  0  0  0
   10.7746    0.0190    0.0000 C   0  0  0  0  0  0  0  0  0  0  0  0
    8.2319   -3.4702    0.0000 C   0  0  0  0  0  0  0  0  0  0  0  0
   11.6406    0.5190    0.0000 C   0  0  0  0  0  0  0  0  0  0  0  0
    7.2911   -3.1313    0.0000 C   0  0  0  0  0  0  0  0  0  0  0  0
    9.9086    0.5190    0.0000 C   0  0  0  0  0  0  0  0  0  0  0  0
    8.4088   -4.4545    0.0000 C   0  0  0  0  0  0  0  0  0  0  0  0
   11.6406    1.5190    0.0000 C   0  0  0  0  0  0  0  0  0  0  0  0
    6.5272   -3.7766    0.0000 C   0  0  0  0  0  0  0  0  0  0  0  0
    9.9086    1.5190    0.0000 C   0  0  0  0  0  0  0  0  0  0  0  0
    7.6449   -5.0998    0.0000 C   0  0  0  0  0  0  0  0  0  0  0  0
   10.7746    2.0190    0.0000 C   0  0  0  0  0  0  0  0  0  0  0  0
    6.7041   -4.7609    0.0000 C   0  0  0  0  0  0  0  0  0  0  0  0
   12.5067    3.0190    0.0000 C   0  0  0  0  0  0  0  0  0  0  0  0
    4.8225   -4.0831    0.0000 C   0  0  0  0  0  0  0  0  0  0  0  0
   13.3727    3.5190    0.0000 C   0  0  0  0  0  0  0  0  0  0  0  0
    3.8816   -3.7442    0.0000 C   0  0  0  0  0  0  0  0  0  0  0  0
   13.3727    4.5190    0.0000 C   0  0  0  0  0  0  0  0  0  0  0  0
    3.1177   -4.3895    0.0000 C   0  0  0  0  0  0  0  0  0  0  0  0
   14.2387    3.0190    0.0000 C   0  0  0  0  0  0  0  0  0  0  0  0
    3.7047   -2.7599    0.0000 C   0  0  0  0  0  0  0  0  0  0  0  0
   14.2387    5.0190    0.0000 C   0  0  0  0  0  0  0  0  0  0  0  0
    2.1769   -4.0506    0.0000 C   0  0  0  0  0  0  0  0  0  0  0  0
   15.1047    3.5190    0.0000 C   0  0  0  0  0  0  0  0  0  0  0  0
    2.7639   -2.4210    0.0000 C   0  0  0  0  0  0  0  0  0  0  0  0
   15.1047    4.5190    0.0000 C   0  0  0  0  0  0  0  0  0  0  0  0
    2.0000   -3.0663    0.0000 C   0  0  0  0  0  0  0  0  0  0  0  0
   12.5067    6.0190    0.0000 C   0  0  0  0  0  0  0  0  0  0  0  0
   11.6406    4.5190    0.0000 C   0  0  0  0  0  0  0  0  0  0  0  0
    2.5307   -6.0190    0.0000 C   0  0  0  0  0  0  0  0  0  0  0  0
    4.2354   -5.7126    0.0000 C   0  0  0  0  0  0  0  0  0  0  0  0
    8.6824   -1.6016    0.0000 H   0  0  0  0  0  0  0  0  0  0  0  0
   11.7719   -1.4333    0.0000 H   0  0  0  0  0  0  0  0  0  0  0  0
   10.6588   -4.3112    0.0000 H   0  0  0  0  0  0  0  0  0  0  0  0
   11.5137   -4.0802    0.0000 H   0  0  0  0  0  0  0  0  0  0  0  0
   12.1848   -3.5927    0.0000 H   0  0  0  0  0  0  0  0  0  0  0  0
   11.9173   -1.2616    0.0000 H   0  0  0  0  0  0  0  0  0  0  0  0
   12.3153   -0.4804    0.0000 H   0  0  0  0  0  0  0  0  0  0  0  0
   11.5341   -0.0823    0.0000 H   0  0  0  0  0  0  0  0  0  0  0  0
    8.4728   -1.7709    0.0000 H   0  0  0  0  0  0  0  0  0  0  0  0
    7.6192   -1.9710    0.0000 H   0  0  0  0  0  0  0  0  0  0  0  0
    7.8192   -2.8247    0.0000 H   0  0  0  0  0  0  0  0  0  0  0  0
   12.1776    0.2090    0.0000 H   0  0  0  0  0  0  0  0  0  0  0  0
    7.1814   -2.5211    0.0000 H   0  0  0  0  0  0  0  0  0  0  0  0
    9.3717    0.2090    0.0000 H   0  0  0  0  0  0  0  0  0  0  0  0
    8.9921   -4.6646    0.0000 H   0  0  0  0  0  0  0  0  0  0  0  0
    9.3717    1.8290    0.0000 H   0  0  0  0  0  0  0  0  0  0  0  0
    7.7546   -5.7100    0.0000 H   0  0  0  0  0  0  0  0  0  0  0  0
   10.7746    2.6390    0.0000 H   0  0  0  0  0  0  0  0  0  0  0  0
    6.2305   -5.1610    0.0000 H   0  0  0  0  0  0  0  0  0  0  0  0
   13.0436    1.7090    0.0000 H   0  0  0  0  0  0  0  0  0  0  0  0
    5.4767   -2.8275    0.0000 H   0  0  0  0  0  0  0  0  0  0  0  0
   14.2387    2.3990    0.0000 H   0  0  0  0  0  0  0  0  0  0  0  0
    4.1784   -2.3598    0.0000 H   0  0  0  0  0  0  0  0  0  0  0  0
   14.2387    5.6390    0.0000 H   0  0  0  0  0  0  0  0  0  0  0  0
    1.7033   -4.4507    0.0000 H   0  0  0  0  0  0  0  0  0  0  0  0
   15.6417    3.2090    0.0000 H   0  0  0  0  0  0  0  0  0  0  0  0
    2.6542   -1.8108    0.0000 H   0  0  0  0  0  0  0  0  0  0  0  0
   15.6417    4.8290    0.0000 H   0  0  0  0  0  0  0  0  0  0  0  0
    1.4167   -2.8562    0.0000 H   0  0  0  0  0  0  0  0  0  0  0  0
   13.1267    6.0190    0.0000 H   0  0  0  0  0  0  0  0  0  0  0  0
   12.5067    6.6390    0.0000 H   0  0  0  0  0  0  0  0  0  0  0  0
   11.8867    6.0190    0.0000 H   0  0  0  0  0  0  0  0  0  0  0  0
   11.3306    5.0560    0.0000 H   0  0  0  0  0  0  0  0  0  0  0  0
   11.1037    4.2090    0.0000 H   0  0  0  0  0  0  0  0  0  0  0  0
   11.9506    3.9821    0.0000 H   0  0  0  0  0  0  0  0  0  0  0  0
    2.1306   -5.5454    0.0000 H   0  0  0  0  0  0  0  0  0  0  0  0
    2.0571   -6.4191    0.0000 H   0  0  0  0  0  0  0  0  0  0  0  0
    2.9308   -6.4926    0.0000 H   0  0  0  0  0  0  0  0  0  0  0  0
    4.0253   -6.2959    0.0000 H   0  0  0  0  0  0  0  0  0  0  0  0
    4.8188   -5.9227    0.0000 H   0  0  0  0  0  0  0  0  0  0  0  0
    4.4456   -5.1293    0.0000 H   0  0  0  0  0  0  0  0  0  0  0  0
  1 11  1  0  0  0  0
  1 13  1  0  0  0  0
  2 14  1  0  0  0  0
  2 15  1  0  0  0  0
  3 12  1  0  0  0  0
  3 16  1  0  0  0  0
  4 31  2  0  0  0  0
  5 32  2  0  0  0  0
  6 11  1  0  0  0  0
  6 12  1  0  0  0  0
  6 15  1  0  0  0  0
  7 25  1  0  0  0  0
  7 31  1  0  0  0  0
  7 68  1  0  0  0  0
  8 26  1  0  0  0  0
  8 32  1  0  0  0  0
  8 69  1  0  0  0  0
  9 35  1  0  0  0  0
  9 45  1  0  0  0  0
  9 46  1  0  0  0  0
 10 36  1  0  0  0  0
 10 47  1  0  0  0  0
 10 48  1  0  0  0  0
 11 14  1  0  0  0  0
 11 49  1  1  0  0  0
 12 13  1  0  0  0  0
 12 50  1  1  0  0  0
 13 17  1  1  0  0  0
 13 19  1  0  0  0  0
 14 18  1  1  0  0  0
 14 20  1  0  0  0  0
 15 16  1  0  0  0  0
 15 51  1  1  0  0  0
 16 52  1  0  0  0  0
 16 53  1  0  0  0  0
 17 54  1  0  0  0  0
 17 55  1  0  0  0  0
 17 56  1  0  0  0  0
 18 57  1  0  0  0  0
 18 58  1  0  0  0  0
 18 59  1  0  0  0  0
 19 21  2  0  0  0  0
 19 23  1  0  0  0  0
 20 22  2  0  0  0  0
 20 24  1  0  0  0  0
 21 25  1  0  0  0  0
 21 60  1  0  0  0  0
 22 26  1  0  0  0  0
 22 61  1  0  0  0  0
 23 27  2  0  0  0  0
 23 62  1  0  0  0  0
 24 28  2  0  0  0  0
 24 63  1  0  0  0  0
 25 29  2  0  0  0  0
 26 30  2  0  0  0  0
 27 29  1  0  0  0  0
 27 64  1  0  0  0  0
 28 30  1  0  0  0  0
 28 65  1  0  0  0  0
 29 66  1  0  0  0  0
 30 67  1  0  0  0  0
 31 33  1  0  0  0  0
 32 34  1  0  0  0  0
 33 35  1  0  0  0  0
 33 37  2  0  0  0  0
 34 36  1  0  0  0  0
 34 38  2  0  0  0  0
 35 39  2  0  0  0  0
 36 40  2  0  0  0  0
 37 41  1  0  0  0  0
 37 70  1  0  0  0  0
 38 42  1  0  0  0  0
 38 71  1  0  0  0  0
 39 43  1  0  0  0  0
 39 72  1  0  0  0  0
 40 44  1  0  0  0  0
 40 73  1  0  0  0  0
 41 43  2  0  0  0  0
 41 74  1  0  0  0  0
 42 44  2  0  0  0  0
 42 75  1  0  0  0  0
 43 76  1  0  0  0  0
 44 77  1  0  0  0  0
 45 78  1  0  0  0  0
 45 79  1  0  0  0  0
 45 80  1  0  0  0  0
 46 81  1  0  0  0  0
 46 82  1  0  0  0  0
 46 83  1  0  0  0  0
 47 84  1  0  0  0  0
 47 85  1  0  0  0  0
 47 86  1  0  0  0  0
 48 87  1  0  0  0  0
 48 88  1  0  0  0  0
 48 89  1  0  0  0  0
M  END
> <PUBCHEM_COMPOUND_CID>
168283676

> <PUBCHEM_COMPOUND_CANONICALIZED>
1

> <PUBCHEM_CACTVS_COMPLEXITY>
1170

> <PUBCHEM_CACTVS_HBOND_ACCEPTOR>
8

> <PUBCHEM_CACTVS_HBOND_DONOR>
2

> <PUBCHEM_CACTVS_ROTATABLE_BOND>
8

> <PUBCHEM_CACTVS_SUBSKEYS>
AAADcfB/uAAAAAAAAAAAAAAAAAAAAWLFgAAwYMGAAAAWLAABVAAAHgAQAAAADEzhmAYywIPABACIAiVSUACCAAAlAgAIiAEIbMgLJjrA9ZmPMYhk1AHa6ce42OOOgAAAQAACAAAAAACAAAQAAAAAAAAAAA==

> <PUBCHEM_IUPAC_OPENEYE_NAME>
2-(dimethylamino)-N-[3-[(1S,3R,4S,7S,9R)-9-[3-[[2-(dimethylamino)benzoyl]amino]phenyl]-3,9-dimethyl-2,5,8-trioxa-10-azatricyclo[5.2.1.04,10]decan-3-yl]phenyl]benzamide

> <PUBCHEM_IUPAC_CAS_NAME>
2-(dimethylamino)-N-[3-[(1S,3R,4S,7S,9R)-9-[3-[[[2-(dimethylamino)phenyl]-oxomethyl]amino]phenyl]-3,9-dimethyl-2,5,8-trioxa-10-azatricyclo[5.2.1.04,10]decan-3-yl]phenyl]benzamide

> <PUBCHEM_IUPAC_NAME_MARKUP>
2-(dimethylamino)-<I>N</I>-[3-[(1<I>S</I>,3<I>R</I>,4<I>S</I>,7<I>S</I>,9<I>R</I>)-9-[3-[[2-(dimethylamino)benzoyl]amino]phenyl]-3,9-dimethyl-2,5,8-trioxa-10-azatricyclo[5.2.1.0<SUP>4,10</SUP>]decan-3-yl]phenyl]benzamide

> <PUBCHEM_IUPAC_NAME>
2-(dimethylamino)-N-[3-[(1S,3R,4S,7S,9R)-9-[3-[[2-(dimethylamino)benzoyl]amino]phenyl]-3,9-dimethyl-2,5,8-trioxa-10-azatricyclo[5.2.1.04,10]decan-3-yl]phenyl]benzamide

> <PUBCHEM_IUPAC_SYSTEMATIC_NAME>
2-(dimethylamino)-N-[3-[(1S,3R,4S,7S,9R)-9-[3-[[2-(dimethylamino)phenyl]carbonylamino]phenyl]-3,9-dimethyl-2,5,8-trioxa-10-azatricyclo[5.2.1.04,10]decan-3-yl]phenyl]benzamide

> <PUBCHEM_IUPAC_TRADITIONAL_NAME>
2-(dimethylamino)-N-[3-[(1S,3R,4S,7S,9R)-9-[3-[[2-(dimethylamino)benzoyl]amino]phenyl]-3,9-dimethyl-2,5,8-trioxa-10-azatricyclo[5.2.1.04,10]decan-3-yl]phenyl]benzamide

> <PUBCHEM_IUPAC_INCHI>
InChI=1S/C38H41N5O5/c1-37(24-13-11-15-26(21-24)39-33(44)28-17-7-9-19-30(28)41(3)4)35-43-32(23-46-35)47-38(2,36(43)48-37)25-14-12-16-27(22-25)40-34(45)29-18-8-10-20-31(29)42(5)6/h7-22,32,35-36H,23H2,1-6H3,(H,39,44)(H,40,45)/t32-,35-,36-,37+,38+/m0/s1

> <PUBCHEM_IUPAC_INCHIKEY>
XIISIGHKHRJRNN-PAVKKKSZSA-N

> <PUBCHEM_XLOGP3_AA>
5

> <PUBCHEM_EXACT_MASS>
647.31076943

> <PUBCHEM_MOLECULAR_FORMULA>
C38H41N5O5

> <PUBCHEM_MOLECULAR_WEIGHT>
647.8

> <PUBCHEM_OPENEYE_CAN_SMILES>
CC1(C2N3C(CO2)OC(C3O1)(C)C4=CC(=CC=C4)NC(=O)C5=CC=CC=C5N(C)C)C6=CC(=CC=C6)NC(=O)C7=CC=CC=C7N(C)C

> <PUBCHEM_OPENEYE_ISO_SMILES>
C[C@]1([C@H]2N3[C@H](CO2)O[C@]([C@@H]3O1)(C)C4=CC(=CC=C4)NC(=O)C5=CC=CC=C5N(C)C)C6=CC(=CC=C6)NC(=O)C7=CC=CC=C7N(C)C

> <PUBCHEM_CACTVS_TPSA>
95.6

> <PUBCHEM_MONOISOTOPIC_WEIGHT>
647.31076943

> <PUBCHEM_TOTAL_CHARGE>
0

> <PUBCHEM_HEAVY_ATOM_COUNT>
48

> <PUBCHEM_ATOM_DEF_STEREO_COUNT>
5

> <PUBCHEM_ATOM_UDEF_STEREO_COUNT>
0

> <PUBCHEM_BOND_DEF_STEREO_COUNT>
0

> <PUBCHEM_BOND_UDEF_STEREO_COUNT>
0

> <PUBCHEM_ISOTOPIC_ATOM_COUNT>
0

> <PUBCHEM_COMPONENT_COUNT>
1

> <PUBCHEM_CACTVS_TAUTO_COUNT>
-1

> <PUBCHEM_COORDINATE_TYPE>
1
5
255

> <PUBCHEM_BONDANNOTATIONS>
11  49  5
12  50  5
13  17  5
14  18  5
15  51  5
19  21  8
19  23  8
20  22  8
20  24  8
21  25  8
22  26  8
23  27  8
24  28  8
25  29  8
26  30  8
27  29  8
28  30  8
33  35  8
33  37  8
34  36  8
34  38  8
35  39  8
36  40  8
37  41  8
38  42  8
39  43  8
40  44  8
41  43  8
42  44  8

$$$$
