168286047
  -OEChem-09292322442D

 65 67  0     0  0  0  0  0  0999 V2000
    4.9338    8.0369    0.0000 O   0  0  0  0  0  0  0  0  0  0  0  0
    8.3979    1.0369    0.0000 O   0  0  0  0  0  0  0  0  0  0  0  0
    3.6014   14.2031    0.0000 O   0  0  0  0  0  0  0  0  0  0  0  0
    6.1995   13.7031    0.0000 O   0  0  0  0  0  0  0  0  0  0  0  0
    4.4674   12.7031    0.0000 O   0  0  0  0  0  0  0  0  0  0  0  0
    5.3335   15.2031    0.0000 O   0  0  0  0  0  0  0  0  0  0  0  0
    4.9338    5.0369    0.0000 N   0  0  0  0  0  0  0  0  0  0  0  0
    6.6659    4.0369    0.0000 N   0  0  0  0  0  0  0  0  0  0  0  0
    3.2018    8.0369    0.0000 N   0  0  0  0  0  0  0  0  0  0  0  0
    5.7998    5.5369    0.0000 C   0  0  0  0  0  0  0  0  0  0  0  0
    4.9338    4.0369    0.0000 C   0  0  0  0  0  0  0  0  0  0  0  0
    4.0678    5.5369    0.0000 C   0  0  0  0  0  0  0  0  0  0  0  0
    6.6659    5.0369    0.0000 C   0  0  0  0  0  0  0  0  0  0  0  0
    5.7998    3.5369    0.0000 C   0  0  0  0  0  0  0  0  0  0  0  0
    4.0678    6.5369    0.0000 C   0  0  0  0  0  0  0  0  0  0  0  0
    3.2018    7.0369    0.0000 C   0  0  0  0  0  0  0  0  0  0  0  0
    7.5319    3.5369    0.0000 C   0  0  0  0  0  0  0  0  0  0  0  0
    2.3358    8.5369    0.0000 C   0  0  0  0  0  0  0  0  0  0  0  0
    3.2018   10.0369    0.0000 C   0  0  0  0  0  0  0  0  0  0  0  0
    2.3358    9.5369    0.0000 C   0  0  0  0  0  0  0  0  0  0  0  0
    4.0678    9.5369    0.0000 C   0  0  0  0  0  0  0  0  0  0  0  0
    4.0678    8.5369    0.0000 C   0  0  0  0  0  0  0  0  0  0  0  0
    7.5319    2.5369    0.0000 C   0  0  0  0  0  0  0  0  0  0  0  0
    8.3979    4.0369    0.0000 C   0  0  0  0  0  0  0  0  0  0  0  0
    1.4418    8.0023    0.0000 C   0  0  0  0  0  0  0  0  0  0  0  0
    1.4418   10.0716    0.0000 C   0  0  0  0  0  0  0  0  0  0  0  0
    8.3979    2.0369    0.0000 C   0  0  0  0  0  0  0  0  0  0  0  0
    0.5357    8.5161    0.0000 C   0  0  0  0  0  0  0  0  0  0  0  0
    9.2640    3.5369    0.0000 C   0  0  0  0  0  0  0  0  0  0  0  0
    0.5357    9.5578    0.0000 C   0  0  0  0  0  0  0  0  0  0  0  0
    9.2640    2.5369    0.0000 C   0  0  0  0  0  0  0  0  0  0  0  0
    9.2640    0.5369    0.0000 C   0  0  0  0  0  0  0  0  0  0  0  0
    4.4674   13.7031    0.0000 C   0  0  0  0  0  0  0  0  0  0  0  0
    5.3335   14.2031    0.0000 C   0  0  0  0  0  0  0  0  0  0  0  0
    6.1984    6.0119    0.0000 H   0  0  0  0  0  0  0  0  0  0  0  0
    5.4013    6.0119    0.0000 H   0  0  0  0  0  0  0  0  0  0  0  0
    4.3232    4.1446    0.0000 H   0  0  0  0  0  0  0  0  0  0  0  0
    4.7218    3.4543    0.0000 H   0  0  0  0  0  0  0  0  0  0  0  0
    3.4572    5.6446    0.0000 H   0  0  0  0  0  0  0  0  0  0  0  0
    3.8557    4.9543    0.0000 H   0  0  0  0  0  0  0  0  0  0  0  0
    7.2764    4.9293    0.0000 H   0  0  0  0  0  0  0  0  0  0  0  0
    6.8779    5.6195    0.0000 H   0  0  0  0  0  0  0  0  0  0  0  0
    5.4013    3.0620    0.0000 H   0  0  0  0  0  0  0  0  0  0  0  0
    6.1984    3.0620    0.0000 H   0  0  0  0  0  0  0  0  0  0  0  0
    4.6784    6.4293    0.0000 H   0  0  0  0  0  0  0  0  0  0  0  0
    4.2798    7.1195    0.0000 H   0  0  0  0  0  0  0  0  0  0  0  0
    2.5912    7.1446    0.0000 H   0  0  0  0  0  0  0  0  0  0  0  0
    2.9897    6.4543    0.0000 H   0  0  0  0  0  0  0  0  0  0  0  0
    3.6003   10.5119    0.0000 H   0  0  0  0  0  0  0  0  0  0  0  0
    2.8032   10.5119    0.0000 H   0  0  0  0  0  0  0  0  0  0  0  0
    4.6784    9.4293    0.0000 H   0  0  0  0  0  0  0  0  0  0  0  0
    4.2798   10.1195    0.0000 H   0  0  0  0  0  0  0  0  0  0  0  0
    6.9950    2.2269    0.0000 H   0  0  0  0  0  0  0  0  0  0  0  0
    8.3979    4.6569    0.0000 H   0  0  0  0  0  0  0  0  0  0  0  0
    1.4490    7.3823    0.0000 H   0  0  0  0  0  0  0  0  0  0  0  0
    1.4490   10.6916    0.0000 H   0  0  0  0  0  0  0  0  0  0  0  0
    0.0000    8.2040    0.0000 H   0  0  0  0  0  0  0  0  0  0  0  0
    9.8009    3.8469    0.0000 H   0  0  0  0  0  0  0  0  0  0  0  0
    0.0000    9.8698    0.0000 H   0  0  0  0  0  0  0  0  0  0  0  0
    9.8009    2.2269    0.0000 H   0  0  0  0  0  0  0  0  0  0  0  0
    8.9540    0.0000    0.0000 H   0  0  0  0  0  0  0  0  0  0  0  0
    9.8009    0.2269    0.0000 H   0  0  0  0  0  0  0  0  0  0  0  0
    9.5740    1.0739    0.0000 H   0  0  0  0  0  0  0  0  0  0  0  0
    3.0645   13.8931    0.0000 H   0  0  0  0  0  0  0  0  0  0  0  0
    6.7364   14.0131    0.0000 H   0  0  0  0  0  0  0  0  0  0  0  0
  1 22  2  0  0  0  0
  2 27  1  0  0  0  0
  2 32  1  0  0  0  0
  3 33  1  0  0  0  0
  3 64  1  0  0  0  0
  4 34  1  0  0  0  0
  4 65  1  0  0  0  0
  5 33  2  0  0  0  0
  6 34  2  0  0  0  0
  7 10  1  0  0  0  0
  7 11  1  0  0  0  0
  7 12  1  0  0  0  0
  8 13  1  0  0  0  0
  8 14  1  0  0  0  0
  8 17  1  0  0  0  0
  9 16  1  0  0  0  0
  9 18  1  0  0  0  0
  9 22  1  0  0  0  0
 10 13  1  0  0  0  0
 10 35  1  0  0  0  0
 10 36  1  0  0  0  0
 11 14  1  0  0  0  0
 11 37  1  0  0  0  0
 11 38  1  0  0  0  0
 12 15  1  0  0  0  0
 12 39  1  0  0  0  0
 12 40  1  0  0  0  0
 13 41  1  0  0  0  0
 13 42  1  0  0  0  0
 14 43  1  0  0  0  0
 14 44  1  0  0  0  0
 15 16  1  0  0  0  0
 15 45  1  0  0  0  0
 15 46  1  0  0  0  0
 16 47  1  0  0  0  0
 16 48  1  0  0  0  0
 17 23  2  0  0  0  0
 17 24  1  0  0  0  0
 18 20  1  0  0  0  0
 18 25  2  0  0  0  0
 19 20  1  0  0  0  0
 19 21  1  0  0  0  0
 19 49  1  0  0  0  0
 19 50  1  0  0  0  0
 20 26  2  0  0  0  0
 21 22  1  0  0  0  0
 21 51  1  0  0  0  0
 21 52  1  0  0  0  0
 23 27  1  0  0  0  0
 23 53  1  0  0  0  0
 24 29  2  0  0  0  0
 24 54  1  0  0  0  0
 25 28  1  0  0  0  0
 25 55  1  0  0  0  0
 26 30  1  0  0  0  0
 26 56  1  0  0  0  0
 27 31  2  0  0  0  0
 28 30  2  0  0  0  0
 28 57  1  0  0  0  0
 29 31  1  0  0  0  0
 29 58  1  0  0  0  0
 30 59  1  0  0  0  0
 31 60  1  0  0  0  0
 32 61  1  0  0  0  0
 32 62  1  0  0  0  0
 32 63  1  0  0  0  0
 33 34  1  0  0  0  0
M  END
> <PUBCHEM_COMPOUND_CID>
168286047

> <PUBCHEM_COMPOUND_CANONICALIZED>
1

> <PUBCHEM_CACTVS_COMPLEXITY>
578

> <PUBCHEM_CACTVS_HBOND_ACCEPTOR>
8

> <PUBCHEM_CACTVS_HBOND_DONOR>
2

> <PUBCHEM_CACTVS_ROTATABLE_BOND>
7

> <PUBCHEM_CACTVS_SUBSKEYS>
AAADceB7OAAAAAAAAAAAAAAAAAAAAAAAAAA8eIEAAAAAAACxQAAAHgAACAAADAzBmAYyzoMABgCIAiXSWAKCCAAhIgAIiAFObIgNZjLE8ZuUMChmxhnJ6AeY2YOeAAAAAgACAAAAAAAEAAQAAAAAAAAAAA==

> <PUBCHEM_IUPAC_OPENEYE_NAME>
1-[3-[4-(3-methoxyphenyl)piperazin-1-yl]propyl]-3,4-dihydroquinolin-2-one;oxalic acid

> <PUBCHEM_IUPAC_CAS_NAME>
1-[3-[4-(3-methoxyphenyl)-1-piperazinyl]propyl]-3,4-dihydroquinolin-2-one;oxalic acid

> <PUBCHEM_IUPAC_NAME_MARKUP>
1-[3-[4-(3-methoxyphenyl)piperazin-1-yl]propyl]-3,4-dihydroquinolin-2-one;oxalic acid

> <PUBCHEM_IUPAC_NAME>
1-[3-[4-(3-methoxyphenyl)piperazin-1-yl]propyl]-3,4-dihydroquinolin-2-one;oxalic acid

> <PUBCHEM_IUPAC_SYSTEMATIC_NAME>
ethanedioic acid;1-[3-[4-(3-methoxyphenyl)piperazin-1-yl]propyl]-3,4-dihydroquinolin-2-one

> <PUBCHEM_IUPAC_TRADITIONAL_NAME>
1-[3-[4-(3-methoxyphenyl)piperazino]propyl]-3,4-dihydrocarbostyril;oxalic acid

> <PUBCHEM_IUPAC_INCHI>
InChI=1S/C23H29N3O2.C2H2O4/c1-28-21-8-4-7-20(18-21)25-16-14-24(15-17-25)12-5-13-26-22-9-3-2-6-19(22)10-11-23(26)27;3-1(4)2(5)6/h2-4,6-9,18H,5,10-17H2,1H3;(H,3,4)(H,5,6)

> <PUBCHEM_IUPAC_INCHIKEY>
OQMDUZOTERVWTI-UHFFFAOYSA-N

> <PUBCHEM_EXACT_MASS>
469.22128572

> <PUBCHEM_MOLECULAR_FORMULA>
C25H31N3O6

> <PUBCHEM_MOLECULAR_WEIGHT>
469.5

> <PUBCHEM_OPENEYE_CAN_SMILES>
COC1=CC=CC(=C1)N2CCN(CC2)CCCN3C(=O)CCC4=CC=CC=C43.C(=O)(C(=O)O)O

> <PUBCHEM_OPENEYE_ISO_SMILES>
COC1=CC=CC(=C1)N2CCN(CC2)CCCN3C(=O)CCC4=CC=CC=C43.C(=O)(C(=O)O)O

> <PUBCHEM_CACTVS_TPSA>
111

> <PUBCHEM_MONOISOTOPIC_WEIGHT>
469.22128572

> <PUBCHEM_TOTAL_CHARGE>
0

> <PUBCHEM_HEAVY_ATOM_COUNT>
34

> <PUBCHEM_ATOM_DEF_STEREO_COUNT>
0

> <PUBCHEM_ATOM_UDEF_STEREO_COUNT>
0

> <PUBCHEM_BOND_DEF_STEREO_COUNT>
0

> <PUBCHEM_BOND_UDEF_STEREO_COUNT>
0

> <PUBCHEM_ISOTOPIC_ATOM_COUNT>
0

> <PUBCHEM_COMPONENT_COUNT>
2

> <PUBCHEM_CACTVS_TAUTO_COUNT>
-1

> <PUBCHEM_COORDINATE_TYPE>
1
5
255

> <PUBCHEM_BONDANNOTATIONS>
17  23  8
17  24  8
18  20  8
18  25  8
20  26  8
23  27  8
24  29  8
25  28  8
26  30  8
27  31  8
28  30  8
29  31  8

$$$$
