45486892
  -OEChem-09292322292D

 56 61  0     1  0  0  0  0  0999 V2000
   14.2512   -0.3868    0.0000 F   0  0  0  0  0  0  0  0  0  0  0  0
    3.7135   -0.3278    0.0000 O   0  0  0  0  0  0  0  0  0  0  0  0
    2.0000    0.1404    0.0000 O   0  0  0  0  0  0  0  0  0  0  0  0
    7.2028    0.8207    0.0000 N   0  0  0  0  0  0  0  0  0  0  0  0
    5.8588   -0.6604    0.0000 N   0  0  0  0  0  0  0  0  0  0  0  0
   11.3795    2.4738    0.0000 N   0  0  0  0  0  0  0  0  0  0  0  0
    2.6320   -1.5197    0.0000 N   0  0  0  0  0  0  0  0  0  0  0  0
    8.8521    1.3496    0.0000 C   0  0  3  0  0  0  0  0  0  0  0  0
    7.8748    1.5612    0.0000 C   0  0  0  0  0  0  0  0  0  0  0  0
    9.1740    0.3589    0.0000 C   0  0  0  0  0  0  0  0  0  0  0  0
    9.5551    2.1183    0.0000 C   0  0  0  0  0  0  0  0  0  0  0  0
   10.1945    0.1502    0.0000 C   0  0  0  0  0  0  0  0  0  0  0  0
   10.5705    1.8860    0.0000 C   0  0  0  0  0  0  0  0  0  0  0  0
   10.8795    0.9350    0.0000 C   0  0  0  0  0  0  0  0  0  0  0  0
    6.2255    1.0324    0.0000 C   0  0  0  0  0  0  0  0  0  0  0  0
    7.5081   -0.1316    0.0000 C   0  0  0  0  0  0  0  0  0  0  0  0
    5.5535    0.2918    0.0000 C   0  0  0  0  0  0  0  0  0  0  0  0
    6.8362   -0.8721    0.0000 C   0  0  0  0  0  0  0  0  0  0  0  0
   11.8795    0.9350    0.0000 C   0  0  0  0  0  0  0  0  0  0  0  0
   12.1885    1.8860    0.0000 C   0  0  0  0  0  0  0  0  0  0  0  0
    5.1868   -1.4010    0.0000 C   0  0  0  0  0  0  0  0  0  0  0  0
   12.5645    0.1502    0.0000 C   0  0  0  0  0  0  0  0  0  0  0  0
   13.2039    2.1183    0.0000 C   0  0  0  0  0  0  0  0  0  0  0  0
    4.2095   -1.1893    0.0000 C   0  0  0  0  0  0  0  0  0  0  0  0
   13.5850    0.3589    0.0000 C   0  0  0  0  0  0  0  0  0  0  0  0
    5.4922   -2.3532    0.0000 C   0  0  0  0  0  0  0  0  0  0  0  0
   13.9068    1.3496    0.0000 C   0  0  0  0  0  0  0  0  0  0  0  0
    3.5375   -1.9299    0.0000 C   0  0  0  0  0  0  0  0  0  0  0  0
    4.8202   -3.0938    0.0000 C   0  0  0  0  0  0  0  0  0  0  0  0
    3.8428   -2.8821    0.0000 C   0  0  0  0  0  0  0  0  0  0  0  0
    2.7406   -0.5316    0.0000 C   0  0  0  0  0  0  0  0  0  0  0  0
    8.4364    0.8896    0.0000 H   0  0  0  0  0  0  0  0  0  0  0  0
    8.1092    2.1352    0.0000 H   0  0  0  0  0  0  0  0  0  0  0  0
    7.3503    1.8918    0.0000 H   0  0  0  0  0  0  0  0  0  0  0  0
    8.5603    0.2711    0.0000 H   0  0  0  0  0  0  0  0  0  0  0  0
    9.1556   -0.2608    0.0000 H   0  0  0  0  0  0  0  0  0  0  0  0
    9.7947    2.6901    0.0000 H   0  0  0  0  0  0  0  0  0  0  0  0
    9.0327    2.4522    0.0000 H   0  0  0  0  0  0  0  0  0  0  0  0
    9.9682   -0.4270    0.0000 H   0  0  0  0  0  0  0  0  0  0  0  0
   10.7245   -0.1716    0.0000 H   0  0  0  0  0  0  0  0  0  0  0  0
    6.4599    1.6063    0.0000 H   0  0  0  0  0  0  0  0  0  0  0  0
    5.7009    1.3629    0.0000 H   0  0  0  0  0  0  0  0  0  0  0  0
    7.8880   -0.6216    0.0000 H   0  0  0  0  0  0  0  0  0  0  0  0
    8.0567    0.1574    0.0000 H   0  0  0  0  0  0  0  0  0  0  0  0
    5.1736    0.7818    0.0000 H   0  0  0  0  0  0  0  0  0  0  0  0
    5.0049    0.0028    0.0000 H   0  0  0  0  0  0  0  0  0  0  0  0
    6.6017   -1.4461    0.0000 H   0  0  0  0  0  0  0  0  0  0  0  0
    7.3607   -1.2027    0.0000 H   0  0  0  0  0  0  0  0  0  0  0  0
   11.3795    3.0938    0.0000 H   0  0  0  0  0  0  0  0  0  0  0  0
   12.3661   -0.4372    0.0000 H   0  0  0  0  0  0  0  0  0  0  0  0
   13.3887    2.7101    0.0000 H   0  0  0  0  0  0  0  0  0  0  0  0
    6.0981   -2.4845    0.0000 H   0  0  0  0  0  0  0  0  0  0  0  0
   14.5128    1.4808    0.0000 H   0  0  0  0  0  0  0  0  0  0  0  0
    5.0095   -3.6842    0.0000 H   0  0  0  0  0  0  0  0  0  0  0  0
    3.4262   -3.3413    0.0000 H   0  0  0  0  0  0  0  0  0  0  0  0
    2.0933   -1.8267    0.0000 H   0  0  0  0  0  0  0  0  0  0  0  0
  1 25  1  0  0  0  0
  2 24  1  0  0  0  0
  2 31  1  0  0  0  0
  3 31  2  0  0  0  0
  4  9  1  0  0  0  0
  4 15  1  0  0  0  0
  4 16  1  0  0  0  0
  5 17  1  0  0  0  0
  5 18  1  0  0  0  0
  5 21  1  0  0  0  0
  6 13  1  0  0  0  0
  6 20  1  0  0  0  0
  6 49  1  0  0  0  0
  7 28  1  0  0  0  0
  7 31  1  0  0  0  0
  7 56  1  0  0  0  0
  8  9  1  0  0  0  0
  8 10  1  0  0  0  0
  8 11  1  0  0  0  0
  8 32  1  0  0  0  0
  9 33  1  0  0  0  0
  9 34  1  0  0  0  0
 10 12  1  0  0  0  0
 10 35  1  0  0  0  0
 10 36  1  0  0  0  0
 11 13  1  0  0  0  0
 11 37  1  0  0  0  0
 11 38  1  0  0  0  0
 12 14  1  0  0  0  0
 12 39  1  0  0  0  0
 12 40  1  0  0  0  0
 13 14  2  0  0  0  0
 14 19  1  0  0  0  0
 15 17  1  0  0  0  0
 15 41  1  0  0  0  0
 15 42  1  0  0  0  0
 16 18  1  0  0  0  0
 16 43  1  0  0  0  0
 16 44  1  0  0  0  0
 17 45  1  0  0  0  0
 17 46  1  0  0  0  0
 18 47  1  0  0  0  0
 18 48  1  0  0  0  0
 19 20  2  0  0  0  0
 19 22  1  0  0  0  0
 20 23  1  0  0  0  0
 21 24  1  0  0  0  0
 21 26  2  0  0  0  0
 22 25  2  0  0  0  0
 22 50  1  0  0  0  0
 23 27  2  0  0  0  0
 23 51  1  0  0  0  0
 24 28  2  0  0  0  0
 25 27  1  0  0  0  0
 26 29  1  0  0  0  0
 26 52  1  0  0  0  0
 27 53  1  0  0  0  0
 28 30  1  0  0  0  0
 29 30  2  0  0  0  0
 29 54  1  0  0  0  0
 30 55  1  0  0  0  0
M  END
> <PUBCHEM_COMPOUND_CID>
45486892

> <PUBCHEM_COMPOUND_CANONICALIZED>
1

> <PUBCHEM_CACTVS_COMPLEXITY>
672

> <PUBCHEM_CACTVS_HBOND_ACCEPTOR>
5

> <PUBCHEM_CACTVS_HBOND_DONOR>
2

> <PUBCHEM_CACTVS_ROTATABLE_BOND>
3

> <PUBCHEM_CACTVS_SUBSKEYS>
AAADceB7sQAAAAAAAAAAAAAAAAAAAWLAAAA8YMEAAAAAAFgB9AAAHwAQAAAADQzBngwwzvPJlACoAyRiXACCiCAhIiAImSA9bJkOZuLE8dudMihk1BHY6AeQwMAOgAAAAAQCEACAAACACAQgAAAAAAAAAA==

> <PUBCHEM_IUPAC_OPENEYE_NAME>
7-[4-[(6-fluoro-2,3,4,9-tetrahydro-1H-carbazol-2-yl)methyl]piperazin-1-yl]-3H-1,3-benzoxazol-2-one

> <PUBCHEM_IUPAC_CAS_NAME>
7-[4-[(6-fluoro-2,3,4,9-tetrahydro-1H-carbazol-2-yl)methyl]-1-piperazinyl]-3H-1,3-benzoxazol-2-one

> <PUBCHEM_IUPAC_NAME_MARKUP>
7-[4-[(6-fluoro-2,3,4,9-tetrahydro-1<I>H</I>-carbazol-2-yl)methyl]piperazin-1-yl]-3<I>H</I>-1,3-benzoxazol-2-one

> <PUBCHEM_IUPAC_NAME>
7-[4-[(6-fluoro-2,3,4,9-tetrahydro-1H-carbazol-2-yl)methyl]piperazin-1-yl]-3H-1,3-benzoxazol-2-one

> <PUBCHEM_IUPAC_SYSTEMATIC_NAME>
7-[4-[(6-fluoranyl-2,3,4,9-tetrahydro-1H-carbazol-2-yl)methyl]piperazin-1-yl]-3H-1,3-benzoxazol-2-one

> <PUBCHEM_IUPAC_TRADITIONAL_NAME>
7-[4-[(6-fluoro-2,3,4,9-tetrahydro-1H-carbazol-2-yl)methyl]piperazino]-3H-1,3-benzoxazol-2-one

> <PUBCHEM_IUPAC_INCHI>
InChI=1S/C24H25FN4O2/c25-16-5-7-19-18(13-16)17-6-4-15(12-21(17)26-19)14-28-8-10-29(11-9-28)22-3-1-2-20-23(22)31-24(30)27-20/h1-3,5,7,13,15,26H,4,6,8-12,14H2,(H,27,30)

> <PUBCHEM_IUPAC_INCHIKEY>
OBEJISAWFMGQOW-UHFFFAOYSA-N

> <PUBCHEM_XLOGP3_AA>
3.9

> <PUBCHEM_EXACT_MASS>
420.19615422

> <PUBCHEM_MOLECULAR_FORMULA>
C24H25FN4O2

> <PUBCHEM_MOLECULAR_WEIGHT>
420.5

> <PUBCHEM_OPENEYE_CAN_SMILES>
C1CC2=C(CC1CN3CCN(CC3)C4=CC=CC5=C4OC(=O)N5)NC6=C2C=C(C=C6)F

> <PUBCHEM_OPENEYE_ISO_SMILES>
C1CC2=C(CC1CN3CCN(CC3)C4=CC=CC5=C4OC(=O)N5)NC6=C2C=C(C=C6)F

> <PUBCHEM_CACTVS_TPSA>
60.6

> <PUBCHEM_MONOISOTOPIC_WEIGHT>
420.19615422

> <PUBCHEM_TOTAL_CHARGE>
0

> <PUBCHEM_HEAVY_ATOM_COUNT>
31

> <PUBCHEM_ATOM_DEF_STEREO_COUNT>
0

> <PUBCHEM_ATOM_UDEF_STEREO_COUNT>
1

> <PUBCHEM_BOND_DEF_STEREO_COUNT>
0

> <PUBCHEM_BOND_UDEF_STEREO_COUNT>
0

> <PUBCHEM_ISOTOPIC_ATOM_COUNT>
0

> <PUBCHEM_COMPONENT_COUNT>
1

> <PUBCHEM_CACTVS_TAUTO_COUNT>
-1

> <PUBCHEM_COORDINATE_TYPE>
1
5
255

> <PUBCHEM_BONDANNOTATIONS>
13  14  8
14  19  8
19  20  8
19  22  8
2  24  8
2  31  8
20  23  8
21  24  8
21  26  8
22  25  8
23  27  8
24  28  8
25  27  8
26  29  8
28  30  8
29  30  8
6  13  8
6  20  8
7  28  8
7  31  8
8  9  3

$$$$
