10072280
  -OEChem-09292322192D

 56 60  0     1  0  0  0  0  0999 V2000
    5.2513   -5.9408    0.0000 S   0  0  0  0  0  0  0  0  0  0  0  0
    2.0000    5.9408    0.0000 F   0  0  0  0  0  0  0  0  0  0  0  0
    5.0133    2.4883    0.0000 O   0  0  0  0  0  0  0  0  0  0  0  0
    5.3565   -3.7307    0.0000 N   0  0  3  0  0  0  0  0  0  0  0  0
    4.0267   -0.9796    0.0000 N   0  0  3  0  0  0  0  0  0  0  0  0
    5.0475   -2.7796    0.0000 C   0  0  2  0  0  0  0  0  0  0  0  0
    4.0475   -2.7796    0.0000 C   0  0  1  0  0  0  0  0  0  0  0  0
    5.5822   -1.8857    0.0000 C   0  0  0  0  0  0  0  0  0  0  0  0
    3.5128   -1.8857    0.0000 C   0  0  0  0  0  0  0  0  0  0  0  0
    3.7385   -3.7307    0.0000 C   0  0  0  0  0  0  0  0  0  0  0  0
    4.5475   -4.3184    0.0000 C   0  0  0  0  0  0  0  0  0  0  0  0
    5.0683   -0.9796    0.0000 C   0  0  0  0  0  0  0  0  0  0  0  0
    6.3002   -3.9980    0.0000 C   0  0  0  0  0  0  0  0  0  0  0  0
    3.5234   -0.1155    0.0000 C   0  0  0  0  0  0  0  0  0  0  0  0
    4.5101   -5.2985    0.0000 C   0  0  0  0  0  0  0  0  0  0  0  0
    2.8634   -4.1816    0.0000 C   0  0  0  0  0  0  0  0  0  0  0  0
    6.6820   -4.9014    0.0000 C   0  0  0  0  0  0  0  0  0  0  0  0
    6.2161   -5.7644    0.0000 C   0  0  0  0  0  0  0  0  0  0  0  0
    4.0200    0.7524    0.0000 C   0  0  0  0  0  0  0  0  0  0  0  0
    3.6189   -5.7169    0.0000 C   0  0  0  0  0  0  0  0  0  0  0  0
    2.8042   -5.1643    0.0000 C   0  0  0  0  0  0  0  0  0  0  0  0
    3.5167    1.6165    0.0000 C   0  0  0  0  0  0  0  0  0  0  0  0
    4.0133    2.4845    0.0000 C   0  0  0  0  0  0  0  0  0  0  0  0
    3.5100    3.3486    0.0000 C   0  0  0  0  0  0  0  0  0  0  0  0
    2.5100    3.3447    0.0000 C   0  0  0  0  0  0  0  0  0  0  0  0
    4.0067    4.2165    0.0000 C   0  0  0  0  0  0  0  0  0  0  0  0
    2.0067    4.2088    0.0000 C   0  0  0  0  0  0  0  0  0  0  0  0
    3.5033    5.0806    0.0000 C   0  0  0  0  0  0  0  0  0  0  0  0
    2.5033    5.0768    0.0000 C   0  0  0  0  0  0  0  0  0  0  0  0
    5.8921   -2.8750    0.0000 H   0  0  0  0  0  0  0  0  0  0  0  0
    3.2029   -2.8750    0.0000 H   0  0  0  0  0  0  0  0  0  0  0  0
    6.0520   -2.2903    0.0000 H   0  0  0  0  0  0  0  0  0  0  0  0
    6.0612   -1.4920    0.0000 H   0  0  0  0  0  0  0  0  0  0  0  0
    3.0338   -1.4920    0.0000 H   0  0  0  0  0  0  0  0  0  0  0  0
    3.0431   -2.2903    0.0000 H   0  0  0  0  0  0  0  0  0  0  0  0
    5.6520   -0.7705    0.0000 H   0  0  0  0  0  0  0  0  0  0  0  0
    4.9622   -0.3687    0.0000 H   0  0  0  0  0  0  0  0  0  0  0  0
    6.9108   -3.8902    0.0000 H   0  0  0  0  0  0  0  0  0  0  0  0
    6.3316   -3.3787    0.0000 H   0  0  0  0  0  0  0  0  0  0  0  0
    3.0469    0.2812    0.0000 H   0  0  0  0  0  0  0  0  0  0  0  0
    3.0500   -0.5159    0.0000 H   0  0  0  0  0  0  0  0  0  0  0  0
    2.3439   -3.8431    0.0000 H   0  0  0  0  0  0  0  0  0  0  0  0
    7.1480   -5.3103    0.0000 H   0  0  0  0  0  0  0  0  0  0  0  0
    7.1848   -4.5385    0.0000 H   0  0  0  0  0  0  0  0  0  0  0  0
    6.1886   -6.3838    0.0000 H   0  0  0  0  0  0  0  0  0  0  0  0
    6.8137   -5.9296    0.0000 H   0  0  0  0  0  0  0  0  0  0  0  0
    4.4965    0.3557    0.0000 H   0  0  0  0  0  0  0  0  0  0  0  0
    4.4934    1.1528    0.0000 H   0  0  0  0  0  0  0  0  0  0  0  0
    3.5703   -6.3350    0.0000 H   0  0  0  0  0  0  0  0  0  0  0  0
    2.2479   -5.4380    0.0000 H   0  0  0  0  0  0  0  0  0  0  0  0
    3.0402    2.0132    0.0000 H   0  0  0  0  0  0  0  0  0  0  0  0
    3.0433    1.2162    0.0000 H   0  0  0  0  0  0  0  0  0  0  0  0
    2.2021    2.8066    0.0000 H   0  0  0  0  0  0  0  0  0  0  0  0
    4.6267    4.2189    0.0000 H   0  0  0  0  0  0  0  0  0  0  0  0
    1.3867    4.2064    0.0000 H   0  0  0  0  0  0  0  0  0  0  0  0
    3.8112    5.6187    0.0000 H   0  0  0  0  0  0  0  0  0  0  0  0
  1 15  1  0  0  0  0
  1 18  1  0  0  0  0
  2 29  1  0  0  0  0
  3 23  2  0  0  0  0
  4  6  1  0  0  0  0
  4 11  1  0  0  0  0
  4 13  1  0  0  0  0
  5  9  1  0  0  0  0
  5 12  1  0  0  0  0
  5 14  1  0  0  0  0
  6  7  1  0  0  0  0
  6  8  1  0  0  0  0
  6 30  1  1  0  0  0
  7  9  1  0  0  0  0
  7 10  1  0  0  0  0
  7 31  1  1  0  0  0
  8 12  1  0  0  0  0
  8 32  1  0  0  0  0
  8 33  1  0  0  0  0
  9 34  1  0  0  0  0
  9 35  1  0  0  0  0
 10 11  2  0  0  0  0
 10 16  1  0  0  0  0
 11 15  1  0  0  0  0
 12 36  1  0  0  0  0
 12 37  1  0  0  0  0
 13 17  1  0  0  0  0
 13 38  1  0  0  0  0
 13 39  1  0  0  0  0
 14 19  1  0  0  0  0
 14 40  1  0  0  0  0
 14 41  1  0  0  0  0
 15 20  2  0  0  0  0
 16 21  2  0  0  0  0
 16 42  1  0  0  0  0
 17 18  1  0  0  0  0
 17 43  1  0  0  0  0
 17 44  1  0  0  0  0
 18 45  1  0  0  0  0
 18 46  1  0  0  0  0
 19 22  1  0  0  0  0
 19 47  1  0  0  0  0
 19 48  1  0  0  0  0
 20 21  1  0  0  0  0
 20 49  1  0  0  0  0
 21 50  1  0  0  0  0
 22 23  1  0  0  0  0
 22 51  1  0  0  0  0
 22 52  1  0  0  0  0
 23 24  1  0  0  0  0
 24 25  2  0  0  0  0
 24 26  1  0  0  0  0
 25 27  1  0  0  0  0
 25 53  1  0  0  0  0
 26 28  2  0  0  0  0
 26 54  1  0  0  0  0
 27 29  2  0  0  0  0
 27 55  1  0  0  0  0
 28 29  1  0  0  0  0
 28 56  1  0  0  0  0
M  END
> <PUBCHEM_COMPOUND_CID>
10072280

> <PUBCHEM_COMPOUND_CANONICALIZED>
1

> <PUBCHEM_CACTVS_COMPLEXITY>
581

> <PUBCHEM_CACTVS_HBOND_ACCEPTOR>
5

> <PUBCHEM_CACTVS_HBOND_DONOR>
0

> <PUBCHEM_CACTVS_ROTATABLE_BOND>
5

> <PUBCHEM_CACTVS_SUBSKEYS>
AAADceB7IQBAAAAAAAAAAAAAAAAAAWAAAAA8YIAABYAAAFixQAAAHwQAAAAADSzF2AywwYMAAAiIAqRSQACCAAAlCBAIiB0IRMgIIDLg1ZGEIQhggADoyYcciMCOgAAAgAACAQAAAAEAAAQCAAAAAAAAAA==

> <PUBCHEM_IUPAC_OPENEYE_NAME>
1-(4-fluorophenyl)-4-[(11S,16R)-6-thia-10,14-diazatetracyclo[8.6.1.05,17.011,16]heptadeca-1(17),2,4-trien-14-yl]butan-1-one

> <PUBCHEM_IUPAC_CAS_NAME>
1-(4-fluorophenyl)-4-[(11S,16R)-6-thia-10,14-diazatetracyclo[8.6.1.05,17.011,16]heptadeca-1(17),2,4-trien-14-yl]-1-butanone

> <PUBCHEM_IUPAC_NAME_MARKUP>
1-(4-fluorophenyl)-4-[(11<I>S</I>,16<I>R</I>)-6-thia-10,14-diazatetracyclo[8.6.1.0<SUP>5,17</SUP>.0<SUP>11,16</SUP>]heptadeca-1(17),2,4-trien-14-yl]butan-1-one

> <PUBCHEM_IUPAC_NAME>
1-(4-fluorophenyl)-4-[(11S,16R)-6-thia-10,14-diazatetracyclo[8.6.1.05,17.011,16]heptadeca-1(17),2,4-trien-14-yl]butan-1-one

> <PUBCHEM_IUPAC_SYSTEMATIC_NAME>
1-(4-fluorophenyl)-4-[(11S,16R)-6-thia-10,14-diazatetracyclo[8.6.1.05,17.011,16]heptadeca-1(17),2,4-trien-14-yl]butan-1-one

> <PUBCHEM_IUPAC_TRADITIONAL_NAME>
1-(4-fluorophenyl)-4-[(11S,16R)-6-thia-10,14-diazatetracyclo[8.6.1.05,17.011,16]heptadeca-1(17),2,4-trien-14-yl]butan-1-one

> <PUBCHEM_IUPAC_INCHI>
InChI=1S/C24H27FN2OS/c25-18-9-7-17(8-10-18)22(28)5-2-12-26-14-11-21-20(16-26)19-4-1-6-23-24(19)27(21)13-3-15-29-23/h1,4,6-10,20-21H,2-3,5,11-16H2/t20-,21-/m0/s1

> <PUBCHEM_IUPAC_INCHIKEY>
GHABYTRYIMZJAW-SFTDATJTSA-N

> <PUBCHEM_XLOGP3_AA>
4.5

> <PUBCHEM_EXACT_MASS>
410.18281282

> <PUBCHEM_MOLECULAR_FORMULA>
C24H27FN2OS

> <PUBCHEM_MOLECULAR_WEIGHT>
410.5

> <PUBCHEM_OPENEYE_CAN_SMILES>
C1CN2C3CCN(CC3C4=C2C(=CC=C4)SC1)CCCC(=O)C5=CC=C(C=C5)F

> <PUBCHEM_OPENEYE_ISO_SMILES>
C1CN2[C@H]3CCN(C[C@H]3C4=C2C(=CC=C4)SC1)CCCC(=O)C5=CC=C(C=C5)F

> <PUBCHEM_CACTVS_TPSA>
48.8

> <PUBCHEM_MONOISOTOPIC_WEIGHT>
410.18281282

> <PUBCHEM_TOTAL_CHARGE>
0

> <PUBCHEM_HEAVY_ATOM_COUNT>
29

> <PUBCHEM_ATOM_DEF_STEREO_COUNT>
2

> <PUBCHEM_ATOM_UDEF_STEREO_COUNT>
0

> <PUBCHEM_BOND_DEF_STEREO_COUNT>
0

> <PUBCHEM_BOND_UDEF_STEREO_COUNT>
0

> <PUBCHEM_ISOTOPIC_ATOM_COUNT>
0

> <PUBCHEM_COMPONENT_COUNT>
1

> <PUBCHEM_CACTVS_TAUTO_COUNT>
-1

> <PUBCHEM_COORDINATE_TYPE>
1
5
255

> <PUBCHEM_BONDANNOTATIONS>
10  11  8
10  16  8
11  15  8
15  20  8
16  21  8
20  21  8
24  25  8
24  26  8
25  27  8
26  28  8
27  29  8
28  29  8
6  30  5
7  31  5

$$$$
