44319369
  -OEChem-09292322152D

 50 53  0     1  0  0  0  0  0999 V2000
    5.3147    1.6149    0.0000 O   0  0  0  0  0  0  0  0  0  0  0  0
    2.8660   -0.2215    0.0000 N   0  0  0  0  0  0  0  0  0  0  0  0
    2.8660   -2.2215    0.0000 N   0  0  0  0  0  0  0  0  0  0  0  0
    3.8366    2.2730    0.0000 N   0  0  0  0  0  0  0  0  0  0  0  0
    2.8660    0.7785    0.0000 C   0  0  0  0  0  0  0  0  0  0  0  0
    3.7320    1.2785    0.0000 C   0  0  1  0  0  0  0  0  0  0  0  0
    3.7320   -0.7215    0.0000 C   0  0  0  0  0  0  0  0  0  0  0  0
    2.0000   -0.7215    0.0000 C   0  0  0  0  0  0  0  0  0  0  0  0
    3.7320   -1.7215    0.0000 C   0  0  0  0  0  0  0  0  0  0  0  0
    2.0000   -1.7215    0.0000 C   0  0  0  0  0  0  0  0  0  0  0  0
    4.6456    0.8717    0.0000 C   0  0  2  0  0  0  0  0  0  0  0  0
    2.8660   -3.2215    0.0000 C   0  0  0  0  0  0  0  0  0  0  0  0
    4.8535   -0.1064    0.0000 C   0  0  0  0  0  0  0  0  0  0  0  0
    4.8147    2.4809    0.0000 C   0  0  0  0  0  0  0  0  0  0  0  0
    5.2215    3.3944    0.0000 C   0  0  0  0  0  0  0  0  0  0  0  0
    2.0000   -3.7215    0.0000 C   0  0  0  0  0  0  0  0  0  0  0  0
    3.7320   -3.7215    0.0000 C   0  0  0  0  0  0  0  0  0  0  0  0
    2.0000   -4.7215    0.0000 C   0  0  0  0  0  0  0  0  0  0  0  0
    3.7320   -4.7215    0.0000 C   0  0  0  0  0  0  0  0  0  0  0  0
    4.6337    4.2035    0.0000 C   0  0  0  0  0  0  0  0  0  0  0  0
    6.2160    3.4990    0.0000 C   0  0  0  0  0  0  0  0  0  0  0  0
    2.8660   -5.2215    0.0000 C   0  0  0  0  0  0  0  0  0  0  0  0
    5.0404    5.1170    0.0000 C   0  0  0  0  0  0  0  0  0  0  0  0
    6.6227    4.4125    0.0000 C   0  0  0  0  0  0  0  0  0  0  0  0
    6.0349    5.2215    0.0000 C   0  0  0  0  0  0  0  0  0  0  0  0
    2.6540    1.3611    0.0000 H   0  0  0  0  0  0  0  0  0  0  0  0
    2.2554    0.6708    0.0000 H   0  0  0  0  0  0  0  0  0  0  0  0
    3.2121    1.6161    0.0000 H   0  0  0  0  0  0  0  0  0  0  0  0
    4.3426   -0.8292    0.0000 H   0  0  0  0  0  0  0  0  0  0  0  0
    3.9441   -0.1389    0.0000 H   0  0  0  0  0  0  0  0  0  0  0  0
    1.7880   -0.1389    0.0000 H   0  0  0  0  0  0  0  0  0  0  0  0
    1.3894   -0.8292    0.0000 H   0  0  0  0  0  0  0  0  0  0  0  0
    3.9441   -2.3041    0.0000 H   0  0  0  0  0  0  0  0  0  0  0  0
    4.3426   -1.6139    0.0000 H   0  0  0  0  0  0  0  0  0  0  0  0
    1.3894   -1.6139    0.0000 H   0  0  0  0  0  0  0  0  0  0  0  0
    1.7880   -2.3041    0.0000 H   0  0  0  0  0  0  0  0  0  0  0  0
    5.2445    0.7113    0.0000 H   0  0  0  0  0  0  0  0  0  0  0  0
    4.2471   -0.2353    0.0000 H   0  0  0  0  0  0  0  0  0  0  0  0
    4.9824   -0.7129    0.0000 H   0  0  0  0  0  0  0  0  0  0  0  0
    5.4600    0.0225    0.0000 H   0  0  0  0  0  0  0  0  0  0  0  0
    1.4631   -3.4115    0.0000 H   0  0  0  0  0  0  0  0  0  0  0  0
    4.2690   -3.4115    0.0000 H   0  0  0  0  0  0  0  0  0  0  0  0
    1.4631   -5.0315    0.0000 H   0  0  0  0  0  0  0  0  0  0  0  0
    4.2690   -5.0315    0.0000 H   0  0  0  0  0  0  0  0  0  0  0  0
    4.0171    4.1386    0.0000 H   0  0  0  0  0  0  0  0  0  0  0  0
    6.5804    2.9974    0.0000 H   0  0  0  0  0  0  0  0  0  0  0  0
    2.8660   -5.8415    0.0000 H   0  0  0  0  0  0  0  0  0  0  0  0
    4.6760    5.6186    0.0000 H   0  0  0  0  0  0  0  0  0  0  0  0
    7.2393    4.4773    0.0000 H   0  0  0  0  0  0  0  0  0  0  0  0
    6.2871    5.7879    0.0000 H   0  0  0  0  0  0  0  0  0  0  0  0
  1 11  1  0  0  0  0
  1 14  1  0  0  0  0
  2  5  1  0  0  0  0
  2  7  1  0  0  0  0
  2  8  1  0  0  0  0
  3  9  1  0  0  0  0
  3 10  1  0  0  0  0
  3 12  1  0  0  0  0
  4  6  1  0  0  0  0
  4 14  2  0  0  0  0
  6  5  1  6  0  0  0
  5 26  1  0  0  0  0
  5 27  1  0  0  0  0
  6 11  1  0  0  0  0
  6 28  1  0  0  0  0
  7  9  1  0  0  0  0
  7 29  1  0  0  0  0
  7 30  1  0  0  0  0
  8 10  1  0  0  0  0
  8 31  1  0  0  0  0
  8 32  1  0  0  0  0
  9 33  1  0  0  0  0
  9 34  1  0  0  0  0
 10 35  1  0  0  0  0
 10 36  1  0  0  0  0
 11 13  1  1  0  0  0
 11 37  1  0  0  0  0
 12 16  2  0  0  0  0
 12 17  1  0  0  0  0
 13 38  1  0  0  0  0
 13 39  1  0  0  0  0
 13 40  1  0  0  0  0
 14 15  1  0  0  0  0
 15 20  2  0  0  0  0
 15 21  1  0  0  0  0
 16 18  1  0  0  0  0
 16 41  1  0  0  0  0
 17 19  2  0  0  0  0
 17 42  1  0  0  0  0
 18 22  2  0  0  0  0
 18 43  1  0  0  0  0
 19 22  1  0  0  0  0
 19 44  1  0  0  0  0
 20 23  1  0  0  0  0
 20 45  1  0  0  0  0
 21 24  2  0  0  0  0
 21 46  1  0  0  0  0
 22 47  1  0  0  0  0
 23 25  2  0  0  0  0
 23 48  1  0  0  0  0
 24 25  1  0  0  0  0
 24 49  1  0  0  0  0
 25 50  1  0  0  0  0
M  END
> <PUBCHEM_COMPOUND_CID>
44319369

> <PUBCHEM_COMPOUND_CANONICALIZED>
1

> <PUBCHEM_CACTVS_COMPLEXITY>
446

> <PUBCHEM_CACTVS_HBOND_ACCEPTOR>
4

> <PUBCHEM_CACTVS_HBOND_DONOR>
0

> <PUBCHEM_CACTVS_ROTATABLE_BOND>
4

> <PUBCHEM_CACTVS_SUBSKEYS>
AAADceB7IAAAAAAAAAAAAAAAAAAAAQAAAAA8YIAAAAAAAAABQAAAHgAAAAAADDzhmAYywIMABACgAiRiRACCAAAhAgAIiAAobJgKZqLAsZmXMAhmwAHI6AeQwCAOAAAAAAAAAAAAAAAAAAAAAAAAAAAAAA==

> <PUBCHEM_IUPAC_OPENEYE_NAME>
(4S,5S)-5-methyl-2-phenyl-4-[(4-phenylpiperazin-1-yl)methyl]-4,5-dihydrooxazole

> <PUBCHEM_IUPAC_CAS_NAME>
(4S,5S)-5-methyl-2-phenyl-4-[(4-phenyl-1-piperazinyl)methyl]-4,5-dihydrooxazole

> <PUBCHEM_IUPAC_NAME_MARKUP>
(4<I>S</I>,5<I>S</I>)-5-methyl-2-phenyl-4-[(4-phenylpiperazin-1-yl)methyl]-4,5-dihydro-1,3-oxazole

> <PUBCHEM_IUPAC_NAME>
(4S,5S)-5-methyl-2-phenyl-4-[(4-phenylpiperazin-1-yl)methyl]-4,5-dihydro-1,3-oxazole

> <PUBCHEM_IUPAC_SYSTEMATIC_NAME>
(4S,5S)-5-methyl-2-phenyl-4-[(4-phenylpiperazin-1-yl)methyl]-4,5-dihydro-1,3-oxazole

> <PUBCHEM_IUPAC_TRADITIONAL_NAME>
(4S,5S)-5-methyl-2-phenyl-4-[(4-phenylpiperazino)methyl]-2-oxazoline

> <PUBCHEM_IUPAC_INCHI>
InChI=1S/C21H25N3O/c1-17-20(22-21(25-17)18-8-4-2-5-9-18)16-23-12-14-24(15-13-23)19-10-6-3-7-11-19/h2-11,17,20H,12-16H2,1H3/t17-,20-/m0/s1

> <PUBCHEM_IUPAC_INCHIKEY>
JNZNIWXTQKSJBP-PXNSSMCTSA-N

> <PUBCHEM_XLOGP3_AA>
3.6

> <PUBCHEM_EXACT_MASS>
335.199762429

> <PUBCHEM_MOLECULAR_FORMULA>
C21H25N3O

> <PUBCHEM_MOLECULAR_WEIGHT>
335.4

> <PUBCHEM_OPENEYE_CAN_SMILES>
CC1C(N=C(O1)C2=CC=CC=C2)CN3CCN(CC3)C4=CC=CC=C4

> <PUBCHEM_OPENEYE_ISO_SMILES>
C[C@H]1[C@@H](N=C(O1)C2=CC=CC=C2)CN3CCN(CC3)C4=CC=CC=C4

> <PUBCHEM_CACTVS_TPSA>
28.1

> <PUBCHEM_MONOISOTOPIC_WEIGHT>
335.199762429

> <PUBCHEM_TOTAL_CHARGE>
0

> <PUBCHEM_HEAVY_ATOM_COUNT>
25

> <PUBCHEM_ATOM_DEF_STEREO_COUNT>
2

> <PUBCHEM_ATOM_UDEF_STEREO_COUNT>
0

> <PUBCHEM_BOND_DEF_STEREO_COUNT>
0

> <PUBCHEM_BOND_UDEF_STEREO_COUNT>
0

> <PUBCHEM_ISOTOPIC_ATOM_COUNT>
0

> <PUBCHEM_COMPONENT_COUNT>
1

> <PUBCHEM_CACTVS_TAUTO_COUNT>
-1

> <PUBCHEM_COORDINATE_TYPE>
1
5
255

> <PUBCHEM_BONDANNOTATIONS>
11  13  5
12  16  8
12  17  8
15  20  8
15  21  8
16  18  8
17  19  8
18  22  8
19  22  8
20  23  8
21  24  8
23  25  8
24  25  8
6  5  6

$$$$
