15124098
  -OEChem-09292321592D

 67 70  0     0  0  0  0  0  0999 V2000
    4.5961    1.2846    0.0000 O   0  0  0  0  0  0  0  0  0  0  0  0
   10.6718   -2.1920    0.0000 O   0  0  0  0  0  0  0  0  0  0  0  0
   15.9339   -2.1679    0.0000 O   0  0  0  0  0  0  0  0  0  0  0  0
    6.3397   -1.7087    0.0000 N   0  0  0  0  0  0  0  0  0  0  0  0
    4.6038   -0.7154    0.0000 N   0  0  0  0  0  0  0  0  0  0  0  0
   14.2019   -2.1679    0.0000 N   0  0  0  0  0  0  0  0  0  0  0  0
    6.3359   -0.7087    0.0000 C   0  0  0  0  0  0  0  0  0  0  0  0
    5.4756   -2.2121    0.0000 C   0  0  0  0  0  0  0  0  0  0  0  0
    5.4679   -0.2121    0.0000 C   0  0  0  0  0  0  0  0  0  0  0  0
    4.6077   -1.7154    0.0000 C   0  0  0  0  0  0  0  0  0  0  0  0
    7.2077   -2.2054    0.0000 C   0  0  0  0  0  0  0  0  0  0  0  0
    8.0718   -1.7021    0.0000 C   0  0  0  0  0  0  0  0  0  0  0  0
    3.7359   -0.2188    0.0000 C   0  0  0  0  0  0  0  0  0  0  0  0
    8.9397   -2.1987    0.0000 C   0  0  0  0  0  0  0  0  0  0  0  0
    3.7320    0.7812    0.0000 C   0  0  0  0  0  0  0  0  0  0  0  0
    9.8038   -1.6954    0.0000 C   0  0  0  0  0  0  0  0  0  0  0  0
    2.8718   -0.7221    0.0000 C   0  0  0  0  0  0  0  0  0  0  0  0
    2.8641    1.2779    0.0000 C   0  0  0  0  0  0  0  0  0  0  0  0
    2.0038   -0.2254    0.0000 C   0  0  0  0  0  0  0  0  0  0  0  0
    2.0000    0.7746    0.0000 C   0  0  0  0  0  0  0  0  0  0  0  0
   13.3359   -0.6679    0.0000 C   0  0  0  0  0  0  0  0  0  0  0  0
   11.5358   -1.6887    0.0000 C   0  0  0  0  0  0  0  0  0  0  0  0
    4.5923    2.2846    0.0000 C   0  0  0  0  0  0  0  0  0  0  0  0
   14.2019   -0.1679    0.0000 C   0  0  0  0  0  0  0  0  0  0  0  0
   13.3359   -1.6679    0.0000 C   0  0  0  0  0  0  0  0  0  0  0  0
   15.0679   -0.6679    0.0000 C   0  0  0  0  0  0  0  0  0  0  0  0
   12.4419   -2.2026    0.0000 C   0  0  0  0  0  0  0  0  0  0  0  0
   12.4419   -0.1332    0.0000 C   0  0  0  0  0  0  0  0  0  0  0  0
   11.5358   -0.6471    0.0000 C   0  0  0  0  0  0  0  0  0  0  0  0
   15.0679   -1.6679    0.0000 C   0  0  0  0  0  0  0  0  0  0  0  0
    5.4564    2.7879    0.0000 C   0  0  0  0  0  0  0  0  0  0  0  0
    3.7243    2.7812    0.0000 C   0  0  0  0  0  0  0  0  0  0  0  0
    6.9469   -0.8141    0.0000 H   0  0  0  0  0  0  0  0  0  0  0  0
    6.5457   -0.1253    0.0000 H   0  0  0  0  0  0  0  0  0  0  0  0
    5.0789   -2.6886    0.0000 H   0  0  0  0  0  0  0  0  0  0  0  0
    5.8760   -2.6855    0.0000 H   0  0  0  0  0  0  0  0  0  0  0  0
    5.8646    0.2644    0.0000 H   0  0  0  0  0  0  0  0  0  0  0  0
    5.0676    0.2613    0.0000 H   0  0  0  0  0  0  0  0  0  0  0  0
    3.9967   -1.6101    0.0000 H   0  0  0  0  0  0  0  0  0  0  0  0
    4.3979   -2.2988    0.0000 H   0  0  0  0  0  0  0  0  0  0  0  0
    6.8110   -2.6819    0.0000 H   0  0  0  0  0  0  0  0  0  0  0  0
    7.6080   -2.6788    0.0000 H   0  0  0  0  0  0  0  0  0  0  0  0
    8.4685   -1.2256    0.0000 H   0  0  0  0  0  0  0  0  0  0  0  0
    7.6714   -1.2286    0.0000 H   0  0  0  0  0  0  0  0  0  0  0  0
    8.5430   -2.6752    0.0000 H   0  0  0  0  0  0  0  0  0  0  0  0
    9.3401   -2.6721    0.0000 H   0  0  0  0  0  0  0  0  0  0  0  0
   10.2005   -1.2189    0.0000 H   0  0  0  0  0  0  0  0  0  0  0  0
    9.4034   -1.2220    0.0000 H   0  0  0  0  0  0  0  0  0  0  0  0
    2.8742   -1.3421    0.0000 H   0  0  0  0  0  0  0  0  0  0  0  0
    2.8617    1.8979    0.0000 H   0  0  0  0  0  0  0  0  0  0  0  0
    1.4681   -0.5375    0.0000 H   0  0  0  0  0  0  0  0  0  0  0  0
    1.4619    1.0825    0.0000 H   0  0  0  0  0  0  0  0  0  0  0  0
   14.6004    0.3071    0.0000 H   0  0  0  0  0  0  0  0  0  0  0  0
   13.8034    0.3071    0.0000 H   0  0  0  0  0  0  0  0  0  0  0  0
    4.0565    1.9725    0.0000 H   0  0  0  0  0  0  0  0  0  0  0  0
   15.6785   -0.7756    0.0000 H   0  0  0  0  0  0  0  0  0  0  0  0
   15.2800   -0.0853    0.0000 H   0  0  0  0  0  0  0  0  0  0  0  0
   12.4491   -2.8225    0.0000 H   0  0  0  0  0  0  0  0  0  0  0  0
   12.4491    0.4867    0.0000 H   0  0  0  0  0  0  0  0  0  0  0  0
   11.0001   -0.3350    0.0000 H   0  0  0  0  0  0  0  0  0  0  0  0
   14.2019   -2.7879    0.0000 H   0  0  0  0  0  0  0  0  0  0  0  0
    5.7684    2.2522    0.0000 H   0  0  0  0  0  0  0  0  0  0  0  0
    5.9921    3.1000    0.0000 H   0  0  0  0  0  0  0  0  0  0  0  0
    5.1443    3.3236    0.0000 H   0  0  0  0  0  0  0  0  0  0  0  0
    4.0323    3.3193    0.0000 H   0  0  0  0  0  0  0  0  0  0  0  0
    3.1862    3.0891    0.0000 H   0  0  0  0  0  0  0  0  0  0  0  0
    3.4164    2.2431    0.0000 H   0  0  0  0  0  0  0  0  0  0  0  0
  1 15  1  0  0  0  0
  1 23  1  0  0  0  0
  2 16  1  0  0  0  0
  2 22  1  0  0  0  0
  3 30  2  0  0  0  0
  4  7  1  0  0  0  0
  4  8  1  0  0  0  0
  4 11  1  0  0  0  0
  5  9  1  0  0  0  0
  5 10  1  0  0  0  0
  5 13  1  0  0  0  0
  6 25  1  0  0  0  0
  6 30  1  0  0  0  0
  6 61  1  0  0  0  0
  7  9  1  0  0  0  0
  7 33  1  0  0  0  0
  7 34  1  0  0  0  0
  8 10  1  0  0  0  0
  8 35  1  0  0  0  0
  8 36  1  0  0  0  0
  9 37  1  0  0  0  0
  9 38  1  0  0  0  0
 10 39  1  0  0  0  0
 10 40  1  0  0  0  0
 11 12  1  0  0  0  0
 11 41  1  0  0  0  0
 11 42  1  0  0  0  0
 12 14  1  0  0  0  0
 12 43  1  0  0  0  0
 12 44  1  0  0  0  0
 13 15  1  0  0  0  0
 13 17  2  0  0  0  0
 14 16  1  0  0  0  0
 14 45  1  0  0  0  0
 14 46  1  0  0  0  0
 15 18  2  0  0  0  0
 16 47  1  0  0  0  0
 16 48  1  0  0  0  0
 17 19  1  0  0  0  0
 17 49  1  0  0  0  0
 18 20  1  0  0  0  0
 18 50  1  0  0  0  0
 19 20  2  0  0  0  0
 19 51  1  0  0  0  0
 20 52  1  0  0  0  0
 21 24  1  0  0  0  0
 21 25  2  0  0  0  0
 21 28  1  0  0  0  0
 22 27  2  0  0  0  0
 22 29  1  0  0  0  0
 23 31  1  0  0  0  0
 23 32  1  0  0  0  0
 23 55  1  0  0  0  0
 24 26  1  0  0  0  0
 24 53  1  0  0  0  0
 24 54  1  0  0  0  0
 25 27  1  0  0  0  0
 26 30  1  0  0  0  0
 26 56  1  0  0  0  0
 26 57  1  0  0  0  0
 27 58  1  0  0  0  0
 28 29  2  0  0  0  0
 28 59  1  0  0  0  0
 29 60  1  0  0  0  0
 31 62  1  0  0  0  0
 31 63  1  0  0  0  0
 31 64  1  0  0  0  0
 32 65  1  0  0  0  0
 32 66  1  0  0  0  0
 32 67  1  0  0  0  0
M  END
> <PUBCHEM_COMPOUND_CID>
15124098

> <PUBCHEM_COMPOUND_CANONICALIZED>
1

> <PUBCHEM_CACTVS_COMPLEXITY>
579

> <PUBCHEM_CACTVS_HBOND_ACCEPTOR>
5

> <PUBCHEM_CACTVS_HBOND_DONOR>
1

> <PUBCHEM_CACTVS_ROTATABLE_BOND>
9

> <PUBCHEM_CACTVS_SUBSKEYS>
AAADcfB7MAAAAAAAAAAAAAAAAAAAAAAAAAA8eIEAAAAAAACxQAAAHgAQAAAADBzhmAYyxoPABACIAiVSUACCCAAhIgAIiAEPbIgOZjLEsZuXOCjm1BnY6Ae42aOeIAAAAgACEABAAAAEAAQgAAAAAAAAAA==

> <PUBCHEM_IUPAC_OPENEYE_NAME>
7-[4-[4-(2-isopropoxyphenyl)piperazin-1-yl]butoxy]-3,4-dihydro-1H-quinolin-2-one

> <PUBCHEM_IUPAC_CAS_NAME>
7-[4-[4-(2-propan-2-yloxyphenyl)-1-piperazinyl]butoxy]-3,4-dihydro-1H-quinolin-2-one

> <PUBCHEM_IUPAC_NAME_MARKUP>
7-[4-[4-(2-propan-2-yloxyphenyl)piperazin-1-yl]butoxy]-3,4-dihydro-1<I>H</I>-quinolin-2-one

> <PUBCHEM_IUPAC_NAME>
7-[4-[4-(2-propan-2-yloxyphenyl)piperazin-1-yl]butoxy]-3,4-dihydro-1H-quinolin-2-one

> <PUBCHEM_IUPAC_SYSTEMATIC_NAME>
7-[4-[4-(2-propan-2-yloxyphenyl)piperazin-1-yl]butoxy]-3,4-dihydro-1H-quinolin-2-one

> <PUBCHEM_IUPAC_TRADITIONAL_NAME>
7-[4-[4-(2-isopropoxyphenyl)piperazino]butoxy]-3,4-dihydrocarbostyril

> <PUBCHEM_IUPAC_INCHI>
InChI=1S/C26H35N3O3/c1-20(2)32-25-8-4-3-7-24(25)29-16-14-28(15-17-29)13-5-6-18-31-22-11-9-21-10-12-26(30)27-23(21)19-22/h3-4,7-9,11,19-20H,5-6,10,12-18H2,1-2H3,(H,27,30)

> <PUBCHEM_IUPAC_INCHIKEY>
IYQPUWHLQQNKOW-UHFFFAOYSA-N

> <PUBCHEM_XLOGP3_AA>
4.2

> <PUBCHEM_EXACT_MASS>
437.26784199

> <PUBCHEM_MOLECULAR_FORMULA>
C26H35N3O3

> <PUBCHEM_MOLECULAR_WEIGHT>
437.6

> <PUBCHEM_OPENEYE_CAN_SMILES>
CC(C)OC1=CC=CC=C1N2CCN(CC2)CCCCOC3=CC4=C(CCC(=O)N4)C=C3

> <PUBCHEM_OPENEYE_ISO_SMILES>
CC(C)OC1=CC=CC=C1N2CCN(CC2)CCCCOC3=CC4=C(CCC(=O)N4)C=C3

> <PUBCHEM_CACTVS_TPSA>
54

> <PUBCHEM_MONOISOTOPIC_WEIGHT>
437.26784199

> <PUBCHEM_TOTAL_CHARGE>
0

> <PUBCHEM_HEAVY_ATOM_COUNT>
32

> <PUBCHEM_ATOM_DEF_STEREO_COUNT>
0

> <PUBCHEM_ATOM_UDEF_STEREO_COUNT>
0

> <PUBCHEM_BOND_DEF_STEREO_COUNT>
0

> <PUBCHEM_BOND_UDEF_STEREO_COUNT>
0

> <PUBCHEM_ISOTOPIC_ATOM_COUNT>
0

> <PUBCHEM_COMPONENT_COUNT>
1

> <PUBCHEM_CACTVS_TAUTO_COUNT>
-1

> <PUBCHEM_COORDINATE_TYPE>
1
5
255

> <PUBCHEM_BONDANNOTATIONS>
13  15  8
13  17  8
15  18  8
17  19  8
18  20  8
19  20  8
21  25  8
21  28  8
22  27  8
22  29  8
25  27  8
28  29  8

$$$$
