44315406
  -OEChem-09292322152D

 53 57  0     0  0  0  0  0  0999 V2000
    7.8133   -3.4982    0.0000 O   0  0  0  0  0  0  0  0  0  0  0  0
    2.5369    2.6970    0.0000 O   0  0  0  0  0  0  0  0  0  0  0  0
    9.3969   -4.3030    0.0000 O   0  0  0  0  0  0  0  0  0  0  0  0
    6.0010   -0.3030    0.0000 N   0  0  0  0  0  0  0  0  0  0  0  0
    6.0010   -2.3030    0.0000 N   0  0  0  0  0  0  0  0  0  0  0  0
    7.8133   -5.1077    0.0000 N   0  0  0  0  0  0  0  0  0  0  0  0
    5.1350   -0.8030    0.0000 C   0  0  0  0  0  0  0  0  0  0  0  0
    6.8671   -0.8030    0.0000 C   0  0  0  0  0  0  0  0  0  0  0  0
    5.1350   -1.8030    0.0000 C   0  0  0  0  0  0  0  0  0  0  0  0
    6.8671   -1.8030    0.0000 C   0  0  0  0  0  0  0  0  0  0  0  0
    6.0010    0.6970    0.0000 C   0  0  0  0  0  0  0  0  0  0  0  0
    6.0010   -3.3030    0.0000 C   0  0  0  0  0  0  0  0  0  0  0  0
    5.1350    1.1970    0.0000 C   0  0  0  0  0  0  0  0  0  0  0  0
    6.8671   -3.8030    0.0000 C   0  0  0  0  0  0  0  0  0  0  0  0
    5.1350   -3.8030    0.0000 C   0  0  0  0  0  0  0  0  0  0  0  0
    6.8671   -4.8030    0.0000 C   0  0  0  0  0  0  0  0  0  0  0  0
    5.1350    2.1970    0.0000 C   0  0  0  0  0  0  0  0  0  0  0  0
    4.2690    0.6970    0.0000 C   0  0  0  0  0  0  0  0  0  0  0  0
    5.1350   -4.8030    0.0000 C   0  0  0  0  0  0  0  0  0  0  0  0
    6.0010   -5.3030    0.0000 C   0  0  0  0  0  0  0  0  0  0  0  0
    4.2690    2.6970    0.0000 C   0  0  0  0  0  0  0  0  0  0  0  0
    3.4030    1.1970    0.0000 C   0  0  0  0  0  0  0  0  0  0  0  0
    3.4030    2.1970    0.0000 C   0  0  0  0  0  0  0  0  0  0  0  0
    8.3969   -4.3030    0.0000 C   0  0  0  0  0  0  0  0  0  0  0  0
    4.2690    3.6970    0.0000 C   0  0  0  0  0  0  0  0  0  0  0  0
    3.4030    4.1970    0.0000 C   0  0  0  0  0  0  0  0  0  0  0  0
    5.1350    4.1970    0.0000 C   0  0  0  0  0  0  0  0  0  0  0  0
    3.4030    5.1970    0.0000 C   0  0  0  0  0  0  0  0  0  0  0  0
    5.1350    5.1970    0.0000 C   0  0  0  0  0  0  0  0  0  0  0  0
    4.2690    5.6970    0.0000 C   0  0  0  0  0  0  0  0  0  0  0  0
    4.9230   -0.2204    0.0000 H   0  0  0  0  0  0  0  0  0  0  0  0
    4.5244   -0.9106    0.0000 H   0  0  0  0  0  0  0  0  0  0  0  0
    7.4776   -0.9106    0.0000 H   0  0  0  0  0  0  0  0  0  0  0  0
    7.0791   -0.2204    0.0000 H   0  0  0  0  0  0  0  0  0  0  0  0
    4.5244   -1.6953    0.0000 H   0  0  0  0  0  0  0  0  0  0  0  0
    4.9230   -2.3856    0.0000 H   0  0  0  0  0  0  0  0  0  0  0  0
    7.0791   -2.3856    0.0000 H   0  0  0  0  0  0  0  0  0  0  0  0
    7.4776   -1.6953    0.0000 H   0  0  0  0  0  0  0  0  0  0  0  0
    6.6116    0.5894    0.0000 H   0  0  0  0  0  0  0  0  0  0  0  0
    6.2131    1.2796    0.0000 H   0  0  0  0  0  0  0  0  0  0  0  0
    4.5981   -3.4930    0.0000 H   0  0  0  0  0  0  0  0  0  0  0  0
    5.6720    2.5070    0.0000 H   0  0  0  0  0  0  0  0  0  0  0  0
    4.2690    0.0770    0.0000 H   0  0  0  0  0  0  0  0  0  0  0  0
    4.5981   -5.1130    0.0000 H   0  0  0  0  0  0  0  0  0  0  0  0
    6.0010   -5.9230    0.0000 H   0  0  0  0  0  0  0  0  0  0  0  0
    8.0059   -5.6970    0.0000 H   0  0  0  0  0  0  0  0  0  0  0  0
    2.8660    0.8870    0.0000 H   0  0  0  0  0  0  0  0  0  0  0  0
    2.8660    3.8870    0.0000 H   0  0  0  0  0  0  0  0  0  0  0  0
    5.6720    3.8870    0.0000 H   0  0  0  0  0  0  0  0  0  0  0  0
    2.0000    2.3870    0.0000 H   0  0  0  0  0  0  0  0  0  0  0  0
    2.8660    5.5070    0.0000 H   0  0  0  0  0  0  0  0  0  0  0  0
    5.6720    5.5070    0.0000 H   0  0  0  0  0  0  0  0  0  0  0  0
    4.2690    6.3170    0.0000 H   0  0  0  0  0  0  0  0  0  0  0  0
  1 14  1  0  0  0  0
  1 24  1  0  0  0  0
  2 23  1  0  0  0  0
  2 50  1  0  0  0  0
  3 24  2  0  0  0  0
  4  7  1  0  0  0  0
  4  8  1  0  0  0  0
  4 11  1  0  0  0  0
  5  9  1  0  0  0  0
  5 10  1  0  0  0  0
  5 12  1  0  0  0  0
  6 16  1  0  0  0  0
  6 24  1  0  0  0  0
  6 46  1  0  0  0  0
  7  9  1  0  0  0  0
  7 31  1  0  0  0  0
  7 32  1  0  0  0  0
  8 10  1  0  0  0  0
  8 33  1  0  0  0  0
  8 34  1  0  0  0  0
  9 35  1  0  0  0  0
  9 36  1  0  0  0  0
 10 37  1  0  0  0  0
 10 38  1  0  0  0  0
 11 13  1  0  0  0  0
 11 39  1  0  0  0  0
 11 40  1  0  0  0  0
 12 14  1  0  0  0  0
 12 15  2  0  0  0  0
 13 17  2  0  0  0  0
 13 18  1  0  0  0  0
 14 16  2  0  0  0  0
 15 19  1  0  0  0  0
 15 41  1  0  0  0  0
 16 20  1  0  0  0  0
 17 21  1  0  0  0  0
 17 42  1  0  0  0  0
 18 22  2  0  0  0  0
 18 43  1  0  0  0  0
 19 20  2  0  0  0  0
 19 44  1  0  0  0  0
 20 45  1  0  0  0  0
 21 23  2  0  0  0  0
 21 25  1  0  0  0  0
 22 23  1  0  0  0  0
 22 47  1  0  0  0  0
 25 26  2  0  0  0  0
 25 27  1  0  0  0  0
 26 28  1  0  0  0  0
 26 48  1  0  0  0  0
 27 29  2  0  0  0  0
 27 49  1  0  0  0  0
 28 30  2  0  0  0  0
 28 51  1  0  0  0  0
 29 30  1  0  0  0  0
 29 52  1  0  0  0  0
 30 53  1  0  0  0  0
M  END
> <PUBCHEM_COMPOUND_CID>
44315406

> <PUBCHEM_COMPOUND_CANONICALIZED>
1

> <PUBCHEM_CACTVS_COMPLEXITY>
588

> <PUBCHEM_CACTVS_HBOND_ACCEPTOR>
5

> <PUBCHEM_CACTVS_HBOND_DONOR>
2

> <PUBCHEM_CACTVS_ROTATABLE_BOND>
4

> <PUBCHEM_CACTVS_SUBSKEYS>
AAADceB7MAAAAAAAAAAAAAAAAAAAAWAAAAA8YMEAAAAAAFgBUAAAHgAQCAAADAzBmAQwzoPABgCIAiRCWACCCAAhIgAIiAAPbIkOZiLG8dudcihk1BHY+AeQ0OIOoAACAAQIEABAAAQACBAgAAAAAAAAAA==

> <PUBCHEM_IUPAC_OPENEYE_NAME>
7-[4-[(4-hydroxy-3-phenyl-phenyl)methyl]piperazin-1-yl]-3H-1,3-benzoxazol-2-one

> <PUBCHEM_IUPAC_CAS_NAME>
7-[4-[(4-hydroxy-3-phenylphenyl)methyl]-1-piperazinyl]-3H-1,3-benzoxazol-2-one

> <PUBCHEM_IUPAC_NAME_MARKUP>
7-[4-[(4-hydroxy-3-phenylphenyl)methyl]piperazin-1-yl]-3<I>H</I>-1,3-benzoxazol-2-one

> <PUBCHEM_IUPAC_NAME>
7-[4-[(4-hydroxy-3-phenylphenyl)methyl]piperazin-1-yl]-3H-1,3-benzoxazol-2-one

> <PUBCHEM_IUPAC_SYSTEMATIC_NAME>
7-[4-[(4-oxidanyl-3-phenyl-phenyl)methyl]piperazin-1-yl]-3H-1,3-benzoxazol-2-one

> <PUBCHEM_IUPAC_TRADITIONAL_NAME>
7-[4-(4-hydroxy-3-phenyl-benzyl)piperazino]-3H-1,3-benzoxazol-2-one

> <PUBCHEM_IUPAC_INCHI>
InChI=1S/C24H23N3O3/c28-22-10-9-17(15-19(22)18-5-2-1-3-6-18)16-26-11-13-27(14-12-26)21-8-4-7-20-23(21)30-24(29)25-20/h1-10,15,28H,11-14,16H2,(H,25,29)

> <PUBCHEM_IUPAC_INCHIKEY>
AIPVMDNBQLPSHM-UHFFFAOYSA-N

> <PUBCHEM_XLOGP3_AA>
3.8

> <PUBCHEM_EXACT_MASS>
401.17394160

> <PUBCHEM_MOLECULAR_FORMULA>
C24H23N3O3

> <PUBCHEM_MOLECULAR_WEIGHT>
401.5

> <PUBCHEM_OPENEYE_CAN_SMILES>
C1CN(CCN1CC2=CC(=C(C=C2)O)C3=CC=CC=C3)C4=CC=CC5=C4OC(=O)N5

> <PUBCHEM_OPENEYE_ISO_SMILES>
C1CN(CCN1CC2=CC(=C(C=C2)O)C3=CC=CC=C3)C4=CC=CC5=C4OC(=O)N5

> <PUBCHEM_CACTVS_TPSA>
65

> <PUBCHEM_MONOISOTOPIC_WEIGHT>
401.17394160

> <PUBCHEM_TOTAL_CHARGE>
0

> <PUBCHEM_HEAVY_ATOM_COUNT>
30

> <PUBCHEM_ATOM_DEF_STEREO_COUNT>
0

> <PUBCHEM_ATOM_UDEF_STEREO_COUNT>
0

> <PUBCHEM_BOND_DEF_STEREO_COUNT>
0

> <PUBCHEM_BOND_UDEF_STEREO_COUNT>
0

> <PUBCHEM_ISOTOPIC_ATOM_COUNT>
0

> <PUBCHEM_COMPONENT_COUNT>
1

> <PUBCHEM_CACTVS_TAUTO_COUNT>
-1

> <PUBCHEM_COORDINATE_TYPE>
1
5
255

> <PUBCHEM_BONDANNOTATIONS>
1  14  8
1  24  8
12  14  8
12  15  8
13  17  8
13  18  8
14  16  8
15  19  8
16  20  8
17  21  8
18  22  8
19  20  8
21  23  8
22  23  8
25  26  8
25  27  8
26  28  8
27  29  8
28  30  8
29  30  8
6  16  8
6  24  8

$$$$
