9796255
  -OEChem-09292322192D

 40 43  0     0  0  0  0  0  0999 V2000
    4.5037   -2.7541    0.0000 S   0  0  0  0  0  0  0  0  0  0  0  0
    5.4376    0.3375    0.0000 N   0  0  0  0  0  0  0  0  0  0  0  0
    6.3054    2.1394    0.0000 N   0  0  0  0  0  0  0  0  0  0  0  0
    3.3802   -1.3453    0.0000 N   0  0  0  0  0  0  0  0  0  0  0  0
    6.4348    0.4122    0.0000 C   0  0  0  0  0  0  0  0  0  0  0  0
    4.8743    1.1638    0.0000 C   0  0  0  0  0  0  0  0  0  0  0  0
    6.8687    1.3132    0.0000 C   0  0  0  0  0  0  0  0  0  0  0  0
    5.3082    2.0647    0.0000 C   0  0  0  0  0  0  0  0  0  0  0  0
    5.0037   -0.5635    0.0000 C   0  0  0  0  0  0  0  0  0  0  0  0
    5.6272   -1.3453    0.0000 C   0  0  0  0  0  0  0  0  0  0  0  0
    6.7393    3.0404    0.0000 C   0  0  0  0  0  0  0  0  0  0  0  0
    4.0037   -0.5635    0.0000 C   0  0  0  0  0  0  0  0  0  0  0  0
    5.4047   -2.3202    0.0000 C   0  0  0  0  0  0  0  0  0  0  0  0
    3.6027   -2.3202    0.0000 C   0  0  0  0  0  0  0  0  0  0  0  0
    6.6177   -1.0230    0.0000 C   0  0  0  0  0  0  0  0  0  0  0  0
    2.3899   -1.2587    0.0000 C   0  0  0  0  0  0  0  0  0  0  0  0
    6.1572   -3.0404    0.0000 C   0  0  0  0  0  0  0  0  0  0  0  0
    2.7480   -2.8279    0.0000 C   0  0  0  0  0  0  0  0  0  0  0  0
    7.3867   -1.7256    0.0000 C   0  0  0  0  0  0  0  0  0  0  0  0
    2.0000   -2.1732    0.0000 C   0  0  0  0  0  0  0  0  0  0  0  0
    7.1549   -2.7411    0.0000 C   0  0  0  0  0  0  0  0  0  0  0  0
    6.3731   -0.2047    0.0000 H   0  0  0  0  0  0  0  0  0  0  0  0
    7.0316    0.2443    0.0000 H   0  0  0  0  0  0  0  0  0  0  0  0
    4.3709    1.5257    0.0000 H   0  0  0  0  0  0  0  0  0  0  0  0
    4.4305    0.7308    0.0000 H   0  0  0  0  0  0  0  0  0  0  0  0
    7.3721    0.9513    0.0000 H   0  0  0  0  0  0  0  0  0  0  0  0
    7.3125    1.7461    0.0000 H   0  0  0  0  0  0  0  0  0  0  0  0
    5.3699    2.6816    0.0000 H   0  0  0  0  0  0  0  0  0  0  0  0
    4.7114    2.2326    0.0000 H   0  0  0  0  0  0  0  0  0  0  0  0
    7.2979    2.7714    0.0000 H   0  0  0  0  0  0  0  0  0  0  0  0
    7.0083    3.5990    0.0000 H   0  0  0  0  0  0  0  0  0  0  0  0
    6.1807    3.3094    0.0000 H   0  0  0  0  0  0  0  0  0  0  0  0
    3.7347   -0.0048    0.0000 H   0  0  0  0  0  0  0  0  0  0  0  0
    6.7487   -0.4170    0.0000 H   0  0  0  0  0  0  0  0  0  0  0  0
    2.0710   -0.7270    0.0000 H   0  0  0  0  0  0  0  0  0  0  0  0
    6.0123   -3.6432    0.0000 H   0  0  0  0  0  0  0  0  0  0  0  0
    2.6914   -3.4452    0.0000 H   0  0  0  0  0  0  0  0  0  0  0  0
    7.9784   -1.5405    0.0000 H   0  0  0  0  0  0  0  0  0  0  0  0
    1.3955   -2.3111    0.0000 H   0  0  0  0  0  0  0  0  0  0  0  0
    7.6078   -3.1645    0.0000 H   0  0  0  0  0  0  0  0  0  0  0  0
  1 13  1  0  0  0  0
  1 14  1  0  0  0  0
  2  5  1  0  0  0  0
  2  6  1  0  0  0  0
  2  9  1  0  0  0  0
  3  7  1  0  0  0  0
  3  8  1  0  0  0  0
  3 11  1  0  0  0  0
  4 12  1  0  0  0  0
  4 14  1  0  0  0  0
  4 16  1  0  0  0  0
  5  7  1  0  0  0  0
  5 22  1  0  0  0  0
  5 23  1  0  0  0  0
  6  8  1  0  0  0  0
  6 24  1  0  0  0  0
  6 25  1  0  0  0  0
  7 26  1  0  0  0  0
  7 27  1  0  0  0  0
  8 28  1  0  0  0  0
  8 29  1  0  0  0  0
  9 10  1  0  0  0  0
  9 12  2  0  0  0  0
 10 13  1  0  0  0  0
 10 15  2  0  0  0  0
 11 30  1  0  0  0  0
 11 31  1  0  0  0  0
 11 32  1  0  0  0  0
 12 33  1  0  0  0  0
 13 17  2  0  0  0  0
 14 18  2  0  0  0  0
 15 19  1  0  0  0  0
 15 34  1  0  0  0  0
 16 20  2  0  0  0  0
 16 35  1  0  0  0  0
 17 21  1  0  0  0  0
 17 36  1  0  0  0  0
 18 20  1  0  0  0  0
 18 37  1  0  0  0  0
 19 21  2  0  0  0  0
 19 38  1  0  0  0  0
 20 39  1  0  0  0  0
 21 40  1  0  0  0  0
M  END
> <PUBCHEM_COMPOUND_CID>
9796255

> <PUBCHEM_COMPOUND_CANONICALIZED>
1

> <PUBCHEM_CACTVS_COMPLEXITY>
403

> <PUBCHEM_CACTVS_HBOND_ACCEPTOR>
3

> <PUBCHEM_CACTVS_HBOND_DONOR>
0

> <PUBCHEM_CACTVS_ROTATABLE_BOND>
1

> <PUBCHEM_CACTVS_SUBSKEYS>
AAADceB7AABAAAAAAAAAAAAAAAAAAWAAAAA8QAAABAAAAACBwAAAHAQAAAAADAjBWgQ+gZMMEAigAjRnRACC0CBxCjAI2Dg4ZJgIYOLgkZGUIAhggADoyAcQgAAOAAAAAAAEAAAAAAAAAAgAAAAAAAAAAA==

> <PUBCHEM_IUPAC_OPENEYE_NAME>
6-(4-methylpiperazin-1-yl)pyrrolo[2,1-b][1,3]benzothiazepine

> <PUBCHEM_IUPAC_CAS_NAME>
6-(4-methyl-1-piperazinyl)pyrrolo[2,1-b][1,3]benzothiazepine

> <PUBCHEM_IUPAC_NAME_MARKUP>
6-(4-methylpiperazin-1-yl)pyrrolo[2,1-b][1,3]benzothiazepine

> <PUBCHEM_IUPAC_NAME>
6-(4-methylpiperazin-1-yl)pyrrolo[2,1-b][1,3]benzothiazepine

> <PUBCHEM_IUPAC_SYSTEMATIC_NAME>
6-(4-methylpiperazin-1-yl)pyrrolo[2,1-b][1,3]benzothiazepine

> <PUBCHEM_IUPAC_TRADITIONAL_NAME>
6-(4-methylpiperazino)pyrrolo[2,1-b][1,3]benzothiazepine

> <PUBCHEM_IUPAC_INCHI>
InChI=1S/C17H19N3S/c1-18-9-11-19(12-10-18)15-13-20-8-4-7-17(20)21-16-6-3-2-5-14(15)16/h2-8,13H,9-12H2,1H3

> <PUBCHEM_IUPAC_INCHIKEY>
JFLBTRDHDHTNGX-UHFFFAOYSA-N

> <PUBCHEM_XLOGP3_AA>
3

> <PUBCHEM_EXACT_MASS>
297.12996879

> <PUBCHEM_MOLECULAR_FORMULA>
C17H19N3S

> <PUBCHEM_MOLECULAR_WEIGHT>
297.4

> <PUBCHEM_OPENEYE_CAN_SMILES>
CN1CCN(CC1)C2=CN3C=CC=C3SC4=CC=CC=C42

> <PUBCHEM_OPENEYE_ISO_SMILES>
CN1CCN(CC1)C2=CN3C=CC=C3SC4=CC=CC=C42

> <PUBCHEM_CACTVS_TPSA>
36.7

> <PUBCHEM_MONOISOTOPIC_WEIGHT>
297.12996879

> <PUBCHEM_TOTAL_CHARGE>
0

> <PUBCHEM_HEAVY_ATOM_COUNT>
21

> <PUBCHEM_ATOM_DEF_STEREO_COUNT>
0

> <PUBCHEM_ATOM_UDEF_STEREO_COUNT>
0

> <PUBCHEM_BOND_DEF_STEREO_COUNT>
0

> <PUBCHEM_BOND_UDEF_STEREO_COUNT>
0

> <PUBCHEM_ISOTOPIC_ATOM_COUNT>
0

> <PUBCHEM_COMPONENT_COUNT>
1

> <PUBCHEM_CACTVS_TAUTO_COUNT>
-1

> <PUBCHEM_COORDINATE_TYPE>
1
5
255

> <PUBCHEM_BONDANNOTATIONS>
10  13  8
10  15  8
13  17  8
14  18  8
15  19  8
16  20  8
17  21  8
18  20  8
19  21  8
4  14  8
4  16  8

$$$$
