155808034
  -OEChem-09292322062D

 68 72  0     1  0  0  0  0  0999 V2000
    4.5981    1.2927    0.0000 N   0  0  3  0  0  0  0  0  0  0  0  0
    5.4641    3.7927    0.0000 N   0  0  0  0  0  0  0  0  0  0  0  0
    6.3301   -3.7073    0.0000 N   0  0  0  0  0  0  0  0  0  0  0  0
    4.6420   -0.7142    0.0000 N   0  0  0  0  0  0  0  0  0  0  0  0
    8.0901    2.2580    0.0000 N   0  0  0  0  0  0  0  0  0  0  0  0
    3.7320    0.7927    0.0000 C   0  0  1  0  0  0  0  0  0  0  0  0
    6.3301   -1.7073    0.0000 C   0  0  0  0  0  0  0  0  0  0  0  0
    5.4641    0.7927    0.0000 C   0  0  0  0  0  0  0  0  0  0  0  0
    6.3301   -0.7073    0.0000 C   0  0  0  0  0  0  0  0  0  0  0  0
    4.5981    2.2927    0.0000 C   0  0  0  0  0  0  0  0  0  0  0  0
    5.4641   -0.2073    0.0000 C   0  0  0  0  0  0  0  0  0  0  0  0
    2.8660    1.2927    0.0000 C   0  0  0  0  0  0  0  0  0  0  0  0
    5.4641    2.7927    0.0000 C   0  0  1  0  0  0  0  0  0  0  0  0
    5.4641   -2.2073    0.0000 C   0  0  0  0  0  0  0  0  0  0  0  0
    7.1962   -2.2073    0.0000 C   0  0  0  0  0  0  0  0  0  0  0  0
    3.7320   -0.2073    0.0000 C   0  0  0  0  0  0  0  0  0  0  0  0
    2.0000    0.7927    0.0000 C   0  0  0  0  0  0  0  0  0  0  0  0
    2.0000   -0.2073    0.0000 C   0  0  0  0  0  0  0  0  0  0  0  0
    6.3301    2.2927    0.0000 C   0  0  0  0  0  0  0  0  0  0  0  0
    2.8660   -0.7073    0.0000 C   0  0  0  0  0  0  0  0  0  0  0  0
    5.4641   -3.2073    0.0000 C   0  0  0  0  0  0  0  0  0  0  0  0
    7.1962   -3.2073    0.0000 C   0  0  0  0  0  0  0  0  0  0  0  0
    6.3301    4.2927    0.0000 C   0  0  0  0  0  0  0  0  0  0  0  0
    7.1962    2.7927    0.0000 C   0  0  0  0  0  0  0  0  0  0  0  0
    7.1962    3.7927    0.0000 C   0  0  0  0  0  0  0  0  0  0  0  0
    2.8500   -1.7488    0.0000 C   0  0  0  0  0  0  0  0  0  0  0  0
    3.7480   -2.2766    0.0000 C   0  0  0  0  0  0  0  0  0  0  0  0
    4.6501   -1.7558    0.0000 C   0  0  0  0  0  0  0  0  0  0  0  0
    8.0901    4.3273    0.0000 C   0  0  0  0  0  0  0  0  0  0  0  0
    8.9962    3.8135    0.0000 C   0  0  0  0  0  0  0  0  0  0  0  0
    8.9962    2.7718    0.0000 C   0  0  0  0  0  0  0  0  0  0  0  0
    4.2690    0.4827    0.0000 H   0  0  0  0  0  0  0  0  0  0  0  0
    6.8671   -1.3973    0.0000 H   0  0  0  0  0  0  0  0  0  0  0  0
    6.0747    0.6850    0.0000 H   0  0  0  0  0  0  0  0  0  0  0  0
    5.6762    1.3753    0.0000 H   0  0  0  0  0  0  0  0  0  0  0  0
    4.3860    2.8753    0.0000 H   0  0  0  0  0  0  0  0  0  0  0  0
    3.9875    2.1850    0.0000 H   0  0  0  0  0  0  0  0  0  0  0  0
    6.9407   -0.8150    0.0000 H   0  0  0  0  0  0  0  0  0  0  0  0
    6.5422   -0.1247    0.0000 H   0  0  0  0  0  0  0  0  0  0  0  0
    4.8535   -0.0997    0.0000 H   0  0  0  0  0  0  0  0  0  0  0  0
    5.2520   -0.7899    0.0000 H   0  0  0  0  0  0  0  0  0  0  0  0
    3.2646    1.7676    0.0000 H   0  0  0  0  0  0  0  0  0  0  0  0
    2.4675    1.7676    0.0000 H   0  0  0  0  0  0  0  0  0  0  0  0
    4.9272    3.1027    0.0000 H   0  0  0  0  0  0  0  0  0  0  0  0
    5.2520   -1.6247    0.0000 H   0  0  0  0  0  0  0  0  0  0  0  0
    4.8535   -2.3150    0.0000 H   0  0  0  0  0  0  0  0  0  0  0  0
    7.8067   -2.3150    0.0000 H   0  0  0  0  0  0  0  0  0  0  0  0
    7.4082   -1.6247    0.0000 H   0  0  0  0  0  0  0  0  0  0  0  0
    1.7880    1.3753    0.0000 H   0  0  0  0  0  0  0  0  0  0  0  0
    1.3894    0.6850    0.0000 H   0  0  0  0  0  0  0  0  0  0  0  0
    1.3894   -0.0997    0.0000 H   0  0  0  0  0  0  0  0  0  0  0  0
    1.7880   -0.7899    0.0000 H   0  0  0  0  0  0  0  0  0  0  0  0
    5.9316    1.8177    0.0000 H   0  0  0  0  0  0  0  0  0  0  0  0
    6.7287    1.8177    0.0000 H   0  0  0  0  0  0  0  0  0  0  0  0
    4.8535   -3.0997    0.0000 H   0  0  0  0  0  0  0  0  0  0  0  0
    5.2520   -3.7899    0.0000 H   0  0  0  0  0  0  0  0  0  0  0  0
    7.4082   -3.7899    0.0000 H   0  0  0  0  0  0  0  0  0  0  0  0
    7.8067   -3.0997    0.0000 H   0  0  0  0  0  0  0  0  0  0  0  0
    4.9272    4.1027    0.0000 H   0  0  0  0  0  0  0  0  0  0  0  0
    6.3301   -4.3273    0.0000 H   0  0  0  0  0  0  0  0  0  0  0  0
    6.7287    4.7676    0.0000 H   0  0  0  0  0  0  0  0  0  0  0  0
    5.9316    4.7676    0.0000 H   0  0  0  0  0  0  0  0  0  0  0  0
    2.3095   -2.0526    0.0000 H   0  0  0  0  0  0  0  0  0  0  0  0
    3.7456   -2.8966    0.0000 H   0  0  0  0  0  0  0  0  0  0  0  0
    5.1882   -2.0637    0.0000 H   0  0  0  0  0  0  0  0  0  0  0  0
    8.0829    4.9473    0.0000 H   0  0  0  0  0  0  0  0  0  0  0  0
    9.5319    4.1255    0.0000 H   0  0  0  0  0  0  0  0  0  0  0  0
    9.5319    2.4598    0.0000 H   0  0  0  0  0  0  0  0  0  0  0  0
  6  1  1  6  0  0  0
  1  8  1  0  0  0  0
  1 10  1  0  0  0  0
  2 13  1  0  0  0  0
  2 23  1  0  0  0  0
  2 59  1  0  0  0  0
  3 21  1  0  0  0  0
  3 22  1  0  0  0  0
  3 60  1  0  0  0  0
  4 16  1  0  0  0  0
  4 28  2  0  0  0  0
  5 24  1  0  0  0  0
  5 31  2  0  0  0  0
  6 12  1  0  0  0  0
  6 16  1  0  0  0  0
  6 32  1  0  0  0  0
  7  9  1  0  0  0  0
  7 14  1  0  0  0  0
  7 15  1  0  0  0  0
  7 33  1  0  0  0  0
  8 11  1  0  0  0  0
  8 34  1  0  0  0  0
  8 35  1  0  0  0  0
  9 11  1  0  0  0  0
  9 38  1  0  0  0  0
  9 39  1  0  0  0  0
 13 10  1  6  0  0  0
 10 36  1  0  0  0  0
 10 37  1  0  0  0  0
 11 40  1  0  0  0  0
 11 41  1  0  0  0  0
 12 17  1  0  0  0  0
 12 42  1  0  0  0  0
 12 43  1  0  0  0  0
 13 19  1  0  0  0  0
 13 44  1  0  0  0  0
 14 21  1  0  0  0  0
 14 45  1  0  0  0  0
 14 46  1  0  0  0  0
 15 22  1  0  0  0  0
 15 47  1  0  0  0  0
 15 48  1  0  0  0  0
 16 20  2  0  0  0  0
 17 18  1  0  0  0  0
 17 49  1  0  0  0  0
 17 50  1  0  0  0  0
 18 20  1  0  0  0  0
 18 51  1  0  0  0  0
 18 52  1  0  0  0  0
 19 24  1  0  0  0  0
 19 53  1  0  0  0  0
 19 54  1  0  0  0  0
 20 26  1  0  0  0  0
 21 55  1  0  0  0  0
 21 56  1  0  0  0  0
 22 57  1  0  0  0  0
 22 58  1  0  0  0  0
 23 25  1  0  0  0  0
 23 61  1  0  0  0  0
 23 62  1  0  0  0  0
 24 25  2  0  0  0  0
 25 29  1  0  0  0  0
 26 27  2  0  0  0  0
 26 63  1  0  0  0  0
 27 28  1  0  0  0  0
 27 64  1  0  0  0  0
 28 65  1  0  0  0  0
 29 30  2  0  0  0  0
 29 66  1  0  0  0  0
 30 31  1  0  0  0  0
 30 67  1  0  0  0  0
 31 68  1  0  0  0  0
M  END
> <PUBCHEM_COMPOUND_CID>
155808034

> <PUBCHEM_COMPOUND_CANONICALIZED>
1

> <PUBCHEM_CACTVS_COMPLEXITY>
536

> <PUBCHEM_CACTVS_HBOND_ACCEPTOR>
5

> <PUBCHEM_CACTVS_HBOND_DONOR>
2

> <PUBCHEM_CACTVS_ROTATABLE_BOND>
7

> <PUBCHEM_CACTVS_SUBSKEYS>
AAADcfB7gAAAAAAAAAAAAAAAAAAAAAAAAAA8WLFiAAAAAACx4AAAHAAQAAAADSjBHgQ8gJPIEACgAzRnRACCgCAxAiAI2KA4ZJgIYOLA0ZGUIAhgkADIyAcQgIAOAAAAAAAAAAAAAACAAAQAQAAAAAAAAA==

> <PUBCHEM_IUPAC_OPENEYE_NAME>
(8S)-N-[3-(4-piperidyl)propyl]-N-[[(7R)-5,6,7,8-tetrahydro-1,6-naphthyridin-7-yl]methyl]-5,6,7,8-tetrahydroquinolin-8-amine

> <PUBCHEM_IUPAC_CAS_NAME>
(8S)-N-[3-(4-piperidinyl)propyl]-N-[[(7R)-5,6,7,8-tetrahydro-1,6-naphthyridin-7-yl]methyl]-5,6,7,8-tetrahydroquinolin-8-amine

> <PUBCHEM_IUPAC_NAME_MARKUP>
(8<I>S</I>)-<I>N</I>-(3-piperidin-4-ylpropyl)-<I>N</I>-[[(7<I>R</I>)-5,6,7,8-tetrahydro-1,6-naphthyridin-7-yl]methyl]-5,6,7,8-tetrahydroquinolin-8-amine

> <PUBCHEM_IUPAC_NAME>
(8S)-N-(3-piperidin-4-ylpropyl)-N-[[(7R)-5,6,7,8-tetrahydro-1,6-naphthyridin-7-yl]methyl]-5,6,7,8-tetrahydroquinolin-8-amine

> <PUBCHEM_IUPAC_SYSTEMATIC_NAME>
(8S)-N-(3-piperidin-4-ylpropyl)-N-[[(7R)-5,6,7,8-tetrahydro-1,6-naphthyridin-7-yl]methyl]-5,6,7,8-tetrahydroquinolin-8-amine

> <PUBCHEM_IUPAC_TRADITIONAL_NAME>
3-(4-piperidyl)propyl-[[(7R)-5,6,7,8-tetrahydro-1,6-naphthyridin-7-yl]methyl]-[(8S)-5,6,7,8-tetrahydroquinolin-8-yl]amine

> <PUBCHEM_IUPAC_INCHI>
InChI=1S/C26H37N5/c1-6-21-7-2-13-29-26(21)25(9-1)31(16-4-5-20-10-14-27-15-11-20)19-23-17-24-22(18-30-23)8-3-12-28-24/h2-3,7-8,12-13,20,23,25,27,30H,1,4-6,9-11,14-19H2/t23-,25+/m1/s1

> <PUBCHEM_IUPAC_INCHIKEY>
WOELGNYRXZQOPS-NOZRDPDXSA-N

> <PUBCHEM_XLOGP3_AA>
2.7

> <PUBCHEM_EXACT_MASS>
419.30489620

> <PUBCHEM_MOLECULAR_FORMULA>
C26H37N5

> <PUBCHEM_MOLECULAR_WEIGHT>
419.6

> <PUBCHEM_OPENEYE_CAN_SMILES>
C1CC(C2=C(C1)C=CC=N2)N(CCCC3CCNCC3)CC4CC5=C(CN4)C=CC=N5

> <PUBCHEM_OPENEYE_ISO_SMILES>
C1C[C@@H](C2=C(C1)C=CC=N2)N(CCCC3CCNCC3)C[C@H]4CC5=C(CN4)C=CC=N5

> <PUBCHEM_CACTVS_TPSA>
53.1

> <PUBCHEM_MONOISOTOPIC_WEIGHT>
419.30489620

> <PUBCHEM_TOTAL_CHARGE>
0

> <PUBCHEM_HEAVY_ATOM_COUNT>
31

> <PUBCHEM_ATOM_DEF_STEREO_COUNT>
2

> <PUBCHEM_ATOM_UDEF_STEREO_COUNT>
0

> <PUBCHEM_BOND_DEF_STEREO_COUNT>
0

> <PUBCHEM_BOND_UDEF_STEREO_COUNT>
0

> <PUBCHEM_ISOTOPIC_ATOM_COUNT>
0

> <PUBCHEM_COMPONENT_COUNT>
1

> <PUBCHEM_CACTVS_TAUTO_COUNT>
-1

> <PUBCHEM_COORDINATE_TYPE>
1
5
255

> <PUBCHEM_BONDANNOTATIONS>
6  1  6
13  10  6
16  20  8
20  26  8
24  25  8
25  29  8
26  27  8
27  28  8
29  30  8
30  31  8
4  16  8
4  28  8
5  24  8
5  31  8

$$$$
