9903623
  -OEChem-09292322232D

 43 45  0     1  0  0  0  0  0999 V2000
    6.3820    1.2742    0.0000 O   0  0  0  0  0  0  0  0  0  0  0  0
    2.8718    1.2568    0.0000 O   0  0  0  0  0  0  0  0  0  0  0  0
    8.1741    0.2395    0.0000 N   0  0  3  0  0  0  0  0  0  0  0  0
    7.2641   -0.2673    0.0000 C   0  0  1  0  0  0  0  0  0  0  0  0
    6.3981    0.2327    0.0000 C   0  0  1  0  0  0  0  0  0  0  0  0
    7.2641   -1.2673    0.0000 C   0  0  0  0  0  0  0  0  0  0  0  0
    5.5320   -0.2673    0.0000 C   0  0  0  0  0  0  0  0  0  0  0  0
    6.3981   -1.7673    0.0000 C   0  0  0  0  0  0  0  0  0  0  0  0
    8.1821    1.2812    0.0000 C   0  0  0  0  0  0  0  0  0  0  0  0
    5.5320   -1.2673    0.0000 C   0  0  0  0  0  0  0  0  0  0  0  0
    7.2800    1.8020    0.0000 C   0  0  0  0  0  0  0  0  0  0  0  0
    9.0343   -0.2704    0.0000 C   0  0  0  0  0  0  0  0  0  0  0  0
    4.6381    0.2674    0.0000 C   0  0  0  0  0  0  0  0  0  0  0  0
    9.9060    0.2195    0.0000 C   0  0  0  0  0  0  0  0  0  0  0  0
    4.6381   -1.8020    0.0000 C   0  0  0  0  0  0  0  0  0  0  0  0
    3.7320   -0.2465    0.0000 C   0  0  0  0  0  0  0  0  0  0  0  0
    3.7320   -1.2881    0.0000 C   0  0  0  0  0  0  0  0  0  0  0  0
   10.7662   -0.2905    0.0000 C   0  0  0  0  0  0  0  0  0  0  0  0
    2.8680    0.2568    0.0000 C   0  0  0  0  0  0  0  0  0  0  0  0
    2.0000   -0.2398    0.0000 C   0  0  0  0  0  0  0  0  0  0  0  0
    7.9969   -0.6980    0.0000 H   0  0  0  0  0  0  0  0  0  0  0  0
    7.1309    0.6634    0.0000 H   0  0  0  0  0  0  0  0  0  0  0  0
    7.4762   -1.8499    0.0000 H   0  0  0  0  0  0  0  0  0  0  0  0
    7.8747   -1.1596    0.0000 H   0  0  0  0  0  0  0  0  0  0  0  0
    5.9995   -2.2422    0.0000 H   0  0  0  0  0  0  0  0  0  0  0  0
    6.7966   -2.2422    0.0000 H   0  0  0  0  0  0  0  0  0  0  0  0
    8.7922    1.1704    0.0000 H   0  0  0  0  0  0  0  0  0  0  0  0
    8.3957    1.8632    0.0000 H   0  0  0  0  0  0  0  0  0  0  0  0
    7.6774    2.2779    0.0000 H   0  0  0  0  0  0  0  0  0  0  0  0
    6.8791    2.2748    0.0000 H   0  0  0  0  0  0  0  0  0  0  0  0
    8.6303   -0.7407    0.0000 H   0  0  0  0  0  0  0  0  0  0  0  0
    9.4273   -0.7500    0.0000 H   0  0  0  0  0  0  0  0  0  0  0  0
    4.6453    0.8873    0.0000 H   0  0  0  0  0  0  0  0  0  0  0  0
   10.3100    0.6898    0.0000 H   0  0  0  0  0  0  0  0  0  0  0  0
    9.5130    0.6990    0.0000 H   0  0  0  0  0  0  0  0  0  0  0  0
    4.6453   -2.4219    0.0000 H   0  0  0  0  0  0  0  0  0  0  0  0
    3.1963   -1.6002    0.0000 H   0  0  0  0  0  0  0  0  0  0  0  0
   10.4500   -0.8238    0.0000 H   0  0  0  0  0  0  0  0  0  0  0  0
   11.2995   -0.6067    0.0000 H   0  0  0  0  0  0  0  0  0  0  0  0
   11.0824    0.2429    0.0000 H   0  0  0  0  0  0  0  0  0  0  0  0
    1.6921    0.2983    0.0000 H   0  0  0  0  0  0  0  0  0  0  0  0
    1.4619   -0.5477    0.0000 H   0  0  0  0  0  0  0  0  0  0  0  0
    2.3079   -0.7779    0.0000 H   0  0  0  0  0  0  0  0  0  0  0  0
  1  5  1  0  0  0  0
  1 11  1  0  0  0  0
  2 19  2  0  0  0  0
  3  4  1  0  0  0  0
  3  9  1  0  0  0  0
  3 12  1  0  0  0  0
  4  5  1  0  0  0  0
  4  6  1  0  0  0  0
  4 21  1  1  0  0  0
  5  7  1  0  0  0  0
  5 22  1  6  0  0  0
  6  8  1  0  0  0  0
  6 23  1  0  0  0  0
  6 24  1  0  0  0  0
  7 10  2  0  0  0  0
  7 13  1  0  0  0  0
  8 10  1  0  0  0  0
  8 25  1  0  0  0  0
  8 26  1  0  0  0  0
  9 11  1  0  0  0  0
  9 27  1  0  0  0  0
  9 28  1  0  0  0  0
 10 15  1  0  0  0  0
 11 29  1  0  0  0  0
 11 30  1  0  0  0  0
 12 14  1  0  0  0  0
 12 31  1  0  0  0  0
 12 32  1  0  0  0  0
 13 16  2  0  0  0  0
 13 33  1  0  0  0  0
 14 18  1  0  0  0  0
 14 34  1  0  0  0  0
 14 35  1  0  0  0  0
 15 17  2  0  0  0  0
 15 36  1  0  0  0  0
 16 17  1  0  0  0  0
 16 19  1  0  0  0  0
 17 37  1  0  0  0  0
 18 38  1  0  0  0  0
 18 39  1  0  0  0  0
 18 40  1  0  0  0  0
 19 20  1  0  0  0  0
 20 41  1  0  0  0  0
 20 42  1  0  0  0  0
 20 43  1  0  0  0  0
M  END
> <PUBCHEM_COMPOUND_CID>
9903623

> <PUBCHEM_COMPOUND_CANONICALIZED>
1

> <PUBCHEM_CACTVS_COMPLEXITY>
357

> <PUBCHEM_CACTVS_HBOND_ACCEPTOR>
3

> <PUBCHEM_CACTVS_HBOND_DONOR>
0

> <PUBCHEM_CACTVS_ROTATABLE_BOND>
3

> <PUBCHEM_CACTVS_SUBSKEYS>
AAADceB6MAAAAAAAAAAAAAAAAAAAAAAAAAA8YIAAAAAAAADxAAAAHgAAAAAADDzhmAYyAIMABACIAqBSAAACAAAkAAAIiAEICMgKJjKAtRmHMQAkwAGYqYeYzPDOwAACAAAQAACQAAaAADAgAAAAAAAAAA==

> <PUBCHEM_IUPAC_OPENEYE_NAME>
1-[(4aR,10bR)-4-propyl-2,3,4a,5,6,10b-hexahydrobenzo[h][1,4]benzoxazin-9-yl]ethanone

> <PUBCHEM_IUPAC_CAS_NAME>
1-[(4aR,10bR)-4-propyl-2,3,4a,5,6,10b-hexahydrobenzo[h][1,4]benzoxazin-9-yl]ethanone

> <PUBCHEM_IUPAC_NAME_MARKUP>
1-[(4<I>a</I><I>R</I>,10<I>b</I><I>R</I>)-4-propyl-2,3,4<I>a</I>,5,6,10<I>b</I>-hexahydrobenzo[h][1,4]benzoxazin-9-yl]ethanone

> <PUBCHEM_IUPAC_NAME>
1-[(4aR,10bR)-4-propyl-2,3,4a,5,6,10b-hexahydrobenzo[h][1,4]benzoxazin-9-yl]ethanone

> <PUBCHEM_IUPAC_SYSTEMATIC_NAME>
1-[(4aR,10bR)-4-propyl-2,3,4a,5,6,10b-hexahydrobenzo[h][1,4]benzoxazin-9-yl]ethanone

> <PUBCHEM_IUPAC_TRADITIONAL_NAME>
1-[(4aR,10bR)-4-propyl-2,3,4a,5,6,10b-hexahydrobenzo[h][1,4]benzoxazin-9-yl]ethanone

> <PUBCHEM_IUPAC_INCHI>
InChI=1S/C17H23NO2/c1-3-8-18-9-10-20-17-15-11-14(12(2)19)5-4-13(15)6-7-16(17)18/h4-5,11,16-17H,3,6-10H2,1-2H3/t16-,17-/m1/s1

> <PUBCHEM_IUPAC_INCHIKEY>
QGRZOKIURVWFKN-IAGOWNOFSA-N

> <PUBCHEM_XLOGP3>
2.5

> <PUBCHEM_EXACT_MASS>
273.172878976

> <PUBCHEM_MOLECULAR_FORMULA>
C17H23NO2

> <PUBCHEM_MOLECULAR_WEIGHT>
273.37

> <PUBCHEM_OPENEYE_CAN_SMILES>
CCCN1CCOC2C1CCC3=C2C=C(C=C3)C(=O)C

> <PUBCHEM_OPENEYE_ISO_SMILES>
CCCN1CCO[C@H]2[C@H]1CCC3=C2C=C(C=C3)C(=O)C

> <PUBCHEM_CACTVS_TPSA>
29.5

> <PUBCHEM_MONOISOTOPIC_WEIGHT>
273.172878976

> <PUBCHEM_TOTAL_CHARGE>
0

> <PUBCHEM_HEAVY_ATOM_COUNT>
20

> <PUBCHEM_ATOM_DEF_STEREO_COUNT>
2

> <PUBCHEM_ATOM_UDEF_STEREO_COUNT>
0

> <PUBCHEM_BOND_DEF_STEREO_COUNT>
0

> <PUBCHEM_BOND_UDEF_STEREO_COUNT>
0

> <PUBCHEM_ISOTOPIC_ATOM_COUNT>
0

> <PUBCHEM_COMPONENT_COUNT>
1

> <PUBCHEM_CACTVS_TAUTO_COUNT>
-1

> <PUBCHEM_COORDINATE_TYPE>
1
5
255

> <PUBCHEM_BONDANNOTATIONS>
10  15  8
13  16  8
15  17  8
16  17  8
4  21  5
5  22  6
7  10  8
7  13  8

$$$$
