155548205
  -OEChem-09292322422D

 55 58  0     1  0  0  0  0  0999 V2000
   10.1851    0.0482    0.0000 S   0  0  0  0  0  0  0  0  0  0  0  0
   11.1356    0.3588    0.0000 O   0  0  0  0  0  0  0  0  0  0  0  0
    9.2346   -0.2625    0.0000 O   0  0  0  0  0  0  0  0  0  0  0  0
    4.5981   -0.1966    0.0000 N   0  0  0  0  0  0  0  0  0  0  0  0
    9.8744    0.9987    0.0000 N   0  0  3  0  0  0  0  0  0  0  0  0
    6.3301    0.8034    0.0000 C   0  0  0  0  0  0  0  0  0  0  0  0
    5.4641    1.3034    0.0000 C   0  0  0  0  0  0  0  0  0  0  0  0
    6.3301   -0.1966    0.0000 C   0  0  0  0  0  0  0  0  0  0  0  0
    4.5981    0.8034    0.0000 C   0  0  0  0  0  0  0  0  0  0  0  0
    5.4641   -0.6966    0.0000 C   0  0  0  0  0  0  0  0  0  0  0  0
    7.1962    1.3034    0.0000 C   0  0  0  0  0  0  0  0  0  0  0  0
    8.9282    1.3034    0.0000 C   0  0  0  0  0  0  0  0  0  0  0  0
    8.9282    2.3034    0.0000 C   0  0  0  0  0  0  0  0  0  0  0  0
    3.7320   -0.6966    0.0000 C   0  0  0  0  0  0  0  0  0  0  0  0
    8.0622    0.8034    0.0000 C   0  0  0  0  0  0  0  0  0  0  0  0
    9.8744    2.6081    0.0000 C   0  0  0  0  0  0  0  0  0  0  0  0
   10.4580    1.8034    0.0000 C   0  0  0  0  0  0  0  0  0  0  0  0
    7.1962    2.3034    0.0000 C   0  0  0  0  0  0  0  0  0  0  0  0
    8.0622    2.8034    0.0000 C   0  0  0  0  0  0  0  0  0  0  0  0
    2.8660   -0.1966    0.0000 C   0  0  0  0  0  0  0  0  0  0  0  0
   10.4957   -0.9024    0.0000 C   0  0  0  0  0  0  0  0  0  0  0  0
    2.0000   -0.6966    0.0000 C   0  0  0  0  0  0  0  0  0  0  0  0
   11.4743   -1.1086    0.0000 C   0  0  0  0  0  0  0  0  0  0  0  0
    9.8279   -1.6467    0.0000 C   0  0  0  0  0  0  0  0  0  0  0  0
   11.7849   -2.0591    0.0000 C   0  0  0  0  0  0  0  0  0  0  0  0
   10.1386   -2.5972    0.0000 C   0  0  0  0  0  0  0  0  0  0  0  0
   11.1171   -2.8034    0.0000 C   0  0  0  0  0  0  0  0  0  0  0  0
    6.8671    0.4934    0.0000 H   0  0  0  0  0  0  0  0  0  0  0  0
    5.8626    1.7784    0.0000 H   0  0  0  0  0  0  0  0  0  0  0  0
    5.0656    1.7784    0.0000 H   0  0  0  0  0  0  0  0  0  0  0  0
    6.5422   -0.7792    0.0000 H   0  0  0  0  0  0  0  0  0  0  0  0
    6.9407   -0.0889    0.0000 H   0  0  0  0  0  0  0  0  0  0  0  0
    4.3860    1.3860    0.0000 H   0  0  0  0  0  0  0  0  0  0  0  0
    3.9875    0.6957    0.0000 H   0  0  0  0  0  0  0  0  0  0  0  0
    5.0656   -1.1715    0.0000 H   0  0  0  0  0  0  0  0  0  0  0  0
    5.8626   -1.1715    0.0000 H   0  0  0  0  0  0  0  0  0  0  0  0
    3.3335   -1.1715    0.0000 H   0  0  0  0  0  0  0  0  0  0  0  0
    4.1306   -1.1715    0.0000 H   0  0  0  0  0  0  0  0  0  0  0  0
    8.0622    0.1834    0.0000 H   0  0  0  0  0  0  0  0  0  0  0  0
   10.4118    2.9174    0.0000 H   0  0  0  0  0  0  0  0  0  0  0  0
    9.6234    3.1750    0.0000 H   0  0  0  0  0  0  0  0  0  0  0  0
   10.9189    1.3887    0.0000 H   0  0  0  0  0  0  0  0  0  0  0  0
   10.9189    2.2181    0.0000 H   0  0  0  0  0  0  0  0  0  0  0  0
    6.6592    2.6134    0.0000 H   0  0  0  0  0  0  0  0  0  0  0  0
    8.0622    3.4234    0.0000 H   0  0  0  0  0  0  0  0  0  0  0  0
    3.2646    0.2784    0.0000 H   0  0  0  0  0  0  0  0  0  0  0  0
    2.4675    0.2784    0.0000 H   0  0  0  0  0  0  0  0  0  0  0  0
    1.6900   -0.1597    0.0000 H   0  0  0  0  0  0  0  0  0  0  0  0
    1.4631   -1.0066    0.0000 H   0  0  0  0  0  0  0  0  0  0  0  0
    2.3100   -1.2335    0.0000 H   0  0  0  0  0  0  0  0  0  0  0  0
   11.8883   -0.6471    0.0000 H   0  0  0  0  0  0  0  0  0  0  0  0
    9.2212   -1.5188    0.0000 H   0  0  0  0  0  0  0  0  0  0  0  0
   12.3916   -2.1870    0.0000 H   0  0  0  0  0  0  0  0  0  0  0  0
    9.7245   -3.0587    0.0000 H   0  0  0  0  0  0  0  0  0  0  0  0
   11.3097   -3.3927    0.0000 H   0  0  0  0  0  0  0  0  0  0  0  0
  1  2  2  0  0  0  0
  1  3  2  0  0  0  0
  1  5  1  0  0  0  0
  1 21  1  0  0  0  0
  4  9  1  0  0  0  0
  4 10  1  0  0  0  0
  4 14  1  0  0  0  0
  5 12  1  0  0  0  0
  5 17  1  0  0  0  0
  6  7  1  0  0  0  0
  6  8  1  0  0  0  0
  6 11  1  0  0  0  0
  6 28  1  0  0  0  0
  7  9  1  0  0  0  0
  7 29  1  0  0  0  0
  7 30  1  0  0  0  0
  8 10  1  0  0  0  0
  8 31  1  0  0  0  0
  8 32  1  0  0  0  0
  9 33  1  0  0  0  0
  9 34  1  0  0  0  0
 10 35  1  0  0  0  0
 10 36  1  0  0  0  0
 11 15  2  0  0  0  0
 11 18  1  0  0  0  0
 12 13  2  0  0  0  0
 12 15  1  0  0  0  0
 13 16  1  0  0  0  0
 13 19  1  0  0  0  0
 14 20  1  0  0  0  0
 14 37  1  0  0  0  0
 14 38  1  0  0  0  0
 15 39  1  0  0  0  0
 16 17  1  0  0  0  0
 16 40  1  0  0  0  0
 16 41  1  0  0  0  0
 17 42  1  0  0  0  0
 17 43  1  0  0  0  0
 18 19  2  0  0  0  0
 18 44  1  0  0  0  0
 19 45  1  0  0  0  0
 20 22  1  0  0  0  0
 20 46  1  0  0  0  0
 20 47  1  0  0  0  0
 21 23  2  0  0  0  0
 21 24  1  0  0  0  0
 22 48  1  0  0  0  0
 22 49  1  0  0  0  0
 22 50  1  0  0  0  0
 23 25  1  0  0  0  0
 23 51  1  0  0  0  0
 24 26  2  0  0  0  0
 24 52  1  0  0  0  0
 25 27  2  0  0  0  0
 25 53  1  0  0  0  0
 26 27  1  0  0  0  0
 26 54  1  0  0  0  0
 27 55  1  0  0  0  0
M  END
> <PUBCHEM_COMPOUND_CID>
155548205

> <PUBCHEM_COMPOUND_CANONICALIZED>
1

> <PUBCHEM_CACTVS_COMPLEXITY>
574

> <PUBCHEM_CACTVS_HBOND_ACCEPTOR>
4

> <PUBCHEM_CACTVS_HBOND_DONOR>
0

> <PUBCHEM_CACTVS_ROTATABLE_BOND>
5

> <PUBCHEM_CACTVS_SUBSKEYS>
AAADceB7MABAAAAAAAAAAAAAAAAAAWAAAAA8YIAAAAAAAFgBQAAAHAQAQAAADQjBWAQywYMAAAKAAiRCQHDCABAhAgAIiBgIZIgIICLAkZGEIAhggADIyAcQgMAOwAAAQAACAACAAACAAAQAAAAAAAAAAA==

> <PUBCHEM_IUPAC_OPENEYE_NAME>
1-(benzenesulfonyl)-6-(1-propyl-4-piperidyl)indoline

> <PUBCHEM_IUPAC_CAS_NAME>
1-(benzenesulfonyl)-6-(1-propyl-4-piperidinyl)-2,3-dihydroindole

> <PUBCHEM_IUPAC_NAME_MARKUP>
1-(benzenesulfonyl)-6-(1-propylpiperidin-4-yl)-2,3-dihydroindole

> <PUBCHEM_IUPAC_NAME>
1-(benzenesulfonyl)-6-(1-propylpiperidin-4-yl)-2,3-dihydroindole

> <PUBCHEM_IUPAC_SYSTEMATIC_NAME>
1-(phenylsulfonyl)-6-(1-propylpiperidin-4-yl)-2,3-dihydroindole

> <PUBCHEM_IUPAC_TRADITIONAL_NAME>
1-besyl-6-(1-propyl-4-piperidyl)indoline

> <PUBCHEM_IUPAC_INCHI>
InChI=1S/C22H28N2O2S/c1-2-13-23-14-10-18(11-15-23)20-9-8-19-12-16-24(22(19)17-20)27(25,26)21-6-4-3-5-7-21/h3-9,17-18H,2,10-16H2,1H3

> <PUBCHEM_IUPAC_INCHIKEY>
HXAVSZOPACOYAR-UHFFFAOYSA-N

> <PUBCHEM_XLOGP3_AA>
4.1

> <PUBCHEM_EXACT_MASS>
384.18714931

> <PUBCHEM_MOLECULAR_FORMULA>
C22H28N2O2S

> <PUBCHEM_MOLECULAR_WEIGHT>
384.5

> <PUBCHEM_OPENEYE_CAN_SMILES>
CCCN1CCC(CC1)C2=CC3=C(CCN3S(=O)(=O)C4=CC=CC=C4)C=C2

> <PUBCHEM_OPENEYE_ISO_SMILES>
CCCN1CCC(CC1)C2=CC3=C(CCN3S(=O)(=O)C4=CC=CC=C4)C=C2

> <PUBCHEM_CACTVS_TPSA>
49

> <PUBCHEM_MONOISOTOPIC_WEIGHT>
384.18714931

> <PUBCHEM_TOTAL_CHARGE>
0

> <PUBCHEM_HEAVY_ATOM_COUNT>
27

> <PUBCHEM_ATOM_DEF_STEREO_COUNT>
0

> <PUBCHEM_ATOM_UDEF_STEREO_COUNT>
0

> <PUBCHEM_BOND_DEF_STEREO_COUNT>
0

> <PUBCHEM_BOND_UDEF_STEREO_COUNT>
0

> <PUBCHEM_ISOTOPIC_ATOM_COUNT>
0

> <PUBCHEM_COMPONENT_COUNT>
1

> <PUBCHEM_CACTVS_TAUTO_COUNT>
-1

> <PUBCHEM_COORDINATE_TYPE>
1
5
255

> <PUBCHEM_BONDANNOTATIONS>
11  15  8
11  18  8
12  13  8
12  15  8
13  19  8
18  19  8
21  23  8
21  24  8
23  25  8
24  26  8
25  27  8
26  27  8

$$$$
