118736374
  -OEChem-09292322352D

 74 79  0     0  0  0  0  0  0999 V2000
   11.8576    6.5995    0.0000 Cl  0  0  0  0  0  0  0  0  0  0  0  0
    3.3823   -3.7232    0.0000 O   0  0  0  0  0  0  0  0  0  0  0  0
    2.6330   -0.2635    0.0000 O   0  0  0  0  0  0  0  0  0  0  0  0
   10.6000    0.7327    0.0000 N   0  0  0  0  0  0  0  0  0  0  0  0
   11.0192    2.6883    0.0000 N   0  0  0  0  0  0  0  0  0  0  0  0
    7.1164   -3.1227    0.0000 N   0  0  0  0  0  0  0  0  0  0  0  0
    5.5047   -3.1241    0.0000 N   0  0  0  0  0  0  0  0  0  0  0  0
    6.0047   -1.5853    0.0000 N   0  0  0  0  0  0  0  0  0  0  0  0
    4.3197   -0.8005    0.0000 N   0  0  0  0  0  0  0  0  0  0  0  0
    2.9773   -1.9999    0.0000 N   0  0  0  0  0  0  0  0  0  0  0  0
   11.5516    1.0401    0.0000 C   0  0  0  0  0  0  0  0  0  0  0  0
    9.8580    1.4032    0.0000 C   0  0  0  0  0  0  0  0  0  0  0  0
   10.3904   -0.2450    0.0000 C   0  0  0  0  0  0  0  0  0  0  0  0
   11.7612    2.0179    0.0000 C   0  0  0  0  0  0  0  0  0  0  0  0
   10.0676    2.3810    0.0000 C   0  0  0  0  0  0  0  0  0  0  0  0
    9.4388   -0.5524    0.0000 C   0  0  0  0  0  0  0  0  0  0  0  0
    9.2292   -1.5302    0.0000 C   0  0  0  0  0  0  0  0  0  0  0  0
    8.2776   -1.8376    0.0000 C   0  0  0  0  0  0  0  0  0  0  0  0
    8.0680   -2.8154    0.0000 C   0  0  0  0  0  0  0  0  0  0  0  0
    6.3137   -2.5363    0.0000 C   0  0  0  0  0  0  0  0  0  0  0  0
    6.8084   -4.0679    0.0000 C   0  0  0  0  0  0  0  0  0  0  0  0
   11.2288    3.6661    0.0000 C   0  0  0  0  0  0  0  0  0  0  0  0
    4.6957   -2.5363    0.0000 C   0  0  0  0  0  0  0  0  0  0  0  0
    5.8143   -4.0687    0.0000 C   0  0  0  0  0  0  0  0  0  0  0  0
    5.0047   -1.5853    0.0000 C   0  0  0  0  0  0  0  0  0  0  0  0
    7.3962   -4.8769    0.0000 C   0  0  0  0  0  0  0  0  0  0  0  0
    3.6803   -2.7686    0.0000 C   0  0  0  0  0  0  0  0  0  0  0  0
   10.4868    4.3365    0.0000 C   0  0  0  0  0  0  0  0  0  0  0  0
   12.1804    3.9735    0.0000 C   0  0  0  0  0  0  0  0  0  0  0  0
    3.2992   -1.0092    0.0000 C   0  0  0  0  0  0  0  0  0  0  0  0
    6.9895   -5.7904    0.0000 C   0  0  0  0  0  0  0  0  0  0  0  0
    8.3907   -4.7724    0.0000 C   0  0  0  0  0  0  0  0  0  0  0  0
    4.6397    0.1469    0.0000 C   0  0  0  0  0  0  0  0  0  0  0  0
   10.6964    5.3143    0.0000 C   0  0  0  0  0  0  0  0  0  0  0  0
   12.3900    4.9513    0.0000 C   0  0  0  0  0  0  0  0  0  0  0  0
    2.0000   -2.2116    0.0000 C   0  0  0  0  0  0  0  0  0  0  0  0
   11.6480    5.6217    0.0000 C   0  0  0  0  0  0  0  0  0  0  0  0
    7.5772   -6.5995    0.0000 C   0  0  0  0  0  0  0  0  0  0  0  0
    8.9785   -5.5814    0.0000 C   0  0  0  0  0  0  0  0  0  0  0  0
    8.5718   -6.4949    0.0000 C   0  0  0  0  0  0  0  0  0  0  0  0
   11.6368    0.4260    0.0000 H   0  0  0  0  0  0  0  0  0  0  0  0
   12.1712    1.0174    0.0000 H   0  0  0  0  0  0  0  0  0  0  0  0
    9.2836    1.6364    0.0000 H   0  0  0  0  0  0  0  0  0  0  0  0
    9.5286    0.8779    0.0000 H   0  0  0  0  0  0  0  0  0  0  0  0
   10.4756   -0.8592    0.0000 H   0  0  0  0  0  0  0  0  0  0  0  0
   11.0100   -0.2678    0.0000 H   0  0  0  0  0  0  0  0  0  0  0  0
   12.3357    1.7846    0.0000 H   0  0  0  0  0  0  0  0  0  0  0  0
   12.0907    2.5431    0.0000 H   0  0  0  0  0  0  0  0  0  0  0  0
    9.9824    2.9951    0.0000 H   0  0  0  0  0  0  0  0  0  0  0  0
    9.4480    2.4037    0.0000 H   0  0  0  0  0  0  0  0  0  0  0  0
    9.3536    0.0617    0.0000 H   0  0  0  0  0  0  0  0  0  0  0  0
    8.8192   -0.5297    0.0000 H   0  0  0  0  0  0  0  0  0  0  0  0
    9.3144   -2.1443    0.0000 H   0  0  0  0  0  0  0  0  0  0  0  0
    9.8488   -1.5529    0.0000 H   0  0  0  0  0  0  0  0  0  0  0  0
    8.1924   -1.2234    0.0000 H   0  0  0  0  0  0  0  0  0  0  0  0
    7.6580   -1.8149    0.0000 H   0  0  0  0  0  0  0  0  0  0  0  0
    8.1532   -3.4295    0.0000 H   0  0  0  0  0  0  0  0  0  0  0  0
    8.6876   -2.8381    0.0000 H   0  0  0  0  0  0  0  0  0  0  0  0
    5.4508   -4.5710    0.0000 H   0  0  0  0  0  0  0  0  0  0  0  0
    9.8968    4.1460    0.0000 H   0  0  0  0  0  0  0  0  0  0  0  0
   12.6404    3.5578    0.0000 H   0  0  0  0  0  0  0  0  0  0  0  0
    6.3729   -5.8553    0.0000 H   0  0  0  0  0  0  0  0  0  0  0  0
    8.6429   -4.2060    0.0000 H   0  0  0  0  0  0  0  0  0  0  0  0
    5.2271   -0.0515    0.0000 H   0  0  0  0  0  0  0  0  0  0  0  0
    4.8381    0.7343    0.0000 H   0  0  0  0  0  0  0  0  0  0  0  0
    4.0523    0.3453    0.0000 H   0  0  0  0  0  0  0  0  0  0  0  0
   10.2364    5.7300    0.0000 H   0  0  0  0  0  0  0  0  0  0  0  0
   12.9800    5.1418    0.0000 H   0  0  0  0  0  0  0  0  0  0  0  0
    1.8688   -1.6056    0.0000 H   0  0  0  0  0  0  0  0  0  0  0  0
    1.3940   -2.3428    0.0000 H   0  0  0  0  0  0  0  0  0  0  0  0
    2.1312   -2.8175    0.0000 H   0  0  0  0  0  0  0  0  0  0  0  0
    7.3251   -7.1659    0.0000 H   0  0  0  0  0  0  0  0  0  0  0  0
    9.5951   -5.5166    0.0000 H   0  0  0  0  0  0  0  0  0  0  0  0
    8.9362   -6.9965    0.0000 H   0  0  0  0  0  0  0  0  0  0  0  0
  1 37  1  0  0  0  0
  2 27  2  0  0  0  0
  3 30  2  0  0  0  0
  4 11  1  0  0  0  0
  4 12  1  0  0  0  0
  4 13  1  0  0  0  0
  5 14  1  0  0  0  0
  5 15  1  0  0  0  0
  5 22  1  0  0  0  0
  6 19  1  0  0  0  0
  6 20  1  0  0  0  0
  6 21  1  0  0  0  0
  7 20  1  0  0  0  0
  7 23  1  0  0  0  0
  7 24  1  0  0  0  0
  8 20  2  0  0  0  0
  8 25  1  0  0  0  0
  9 25  1  0  0  0  0
  9 30  1  0  0  0  0
  9 33  1  0  0  0  0
 10 27  1  0  0  0  0
 10 30  1  0  0  0  0
 10 36  1  0  0  0  0
 11 14  1  0  0  0  0
 11 41  1  0  0  0  0
 11 42  1  0  0  0  0
 12 15  1  0  0  0  0
 12 43  1  0  0  0  0
 12 44  1  0  0  0  0
 13 16  1  0  0  0  0
 13 45  1  0  0  0  0
 13 46  1  0  0  0  0
 14 47  1  0  0  0  0
 14 48  1  0  0  0  0
 15 49  1  0  0  0  0
 15 50  1  0  0  0  0
 16 17  1  0  0  0  0
 16 51  1  0  0  0  0
 16 52  1  0  0  0  0
 17 18  1  0  0  0  0
 17 53  1  0  0  0  0
 17 54  1  0  0  0  0
 18 19  1  0  0  0  0
 18 55  1  0  0  0  0
 18 56  1  0  0  0  0
 19 57  1  0  0  0  0
 19 58  1  0  0  0  0
 21 24  2  0  0  0  0
 21 26  1  0  0  0  0
 22 28  2  0  0  0  0
 22 29  1  0  0  0  0
 23 25  2  0  0  0  0
 23 27  1  0  0  0  0
 24 59  1  0  0  0  0
 26 31  2  0  0  0  0
 26 32  1  0  0  0  0
 28 34  1  0  0  0  0
 28 60  1  0  0  0  0
 29 35  2  0  0  0  0
 29 61  1  0  0  0  0
 31 38  1  0  0  0  0
 31 62  1  0  0  0  0
 32 39  2  0  0  0  0
 32 63  1  0  0  0  0
 33 64  1  0  0  0  0
 33 65  1  0  0  0  0
 33 66  1  0  0  0  0
 34 37  2  0  0  0  0
 34 67  1  0  0  0  0
 35 37  1  0  0  0  0
 35 68  1  0  0  0  0
 36 69  1  0  0  0  0
 36 70  1  0  0  0  0
 36 71  1  0  0  0  0
 38 40  2  0  0  0  0
 38 72  1  0  0  0  0
 39 40  1  0  0  0  0
 39 73  1  0  0  0  0
 40 74  1  0  0  0  0
M  END
> <PUBCHEM_COMPOUND_CID>
118736374

> <PUBCHEM_COMPOUND_CANONICALIZED>
1

> <PUBCHEM_CACTVS_COMPLEXITY>
887

> <PUBCHEM_CACTVS_HBOND_ACCEPTOR>
5

> <PUBCHEM_CACTVS_HBOND_DONOR>
0

> <PUBCHEM_CACTVS_ROTATABLE_BOND>
8

> <PUBCHEM_CACTVS_SUBSKEYS>
AAADcfB7sAAEAAAAAAAAAAAAAAAAAWLAAAA8eIEAAAAWAFgB9AAAHgIAAAAADArBniQ/8JcMGACoAzd3dACCgC03F6AJ2CG4dtiIaOrB27GUIIhohyLIyGcQgIAOAABAAAAAAAAAAIAAAAAAAAAAAAAAAA==

> <PUBCHEM_IUPAC_OPENEYE_NAME>
6-[5-[4-(4-chlorophenyl)piperazin-1-yl]pentyl]-2,4-dimethyl-7-phenyl-purino[7,8-a]imidazole-1,3-dione

> <PUBCHEM_IUPAC_CAS_NAME>
6-[5-[4-(4-chlorophenyl)-1-piperazinyl]pentyl]-2,4-dimethyl-7-phenylpurino[7,8-a]imidazole-1,3-dione

> <PUBCHEM_IUPAC_NAME_MARKUP>
6-[5-[4-(4-chlorophenyl)piperazin-1-yl]pentyl]-2,4-dimethyl-7-phenylpurino[7,8-a]imidazole-1,3-dione

> <PUBCHEM_IUPAC_NAME>
6-[5-[4-(4-chlorophenyl)piperazin-1-yl]pentyl]-2,4-dimethyl-7-phenylpurino[7,8-a]imidazole-1,3-dione

> <PUBCHEM_IUPAC_SYSTEMATIC_NAME>
6-[5-[4-(4-chlorophenyl)piperazin-1-yl]pentyl]-2,4-dimethyl-7-phenyl-purino[7,8-a]imidazole-1,3-dione

> <PUBCHEM_IUPAC_TRADITIONAL_NAME>
6-[5-[4-(4-chlorophenyl)piperazino]pentyl]-2,4-dimethyl-7-phenyl-purin[7,8-a]imidazole-1,3-quinone

> <PUBCHEM_IUPAC_INCHI>
InChI=1S/C30H34ClN7O2/c1-33-27-26(28(39)34(2)30(33)40)38-21-25(22-9-5-3-6-10-22)37(29(38)32-27)16-8-4-7-15-35-17-19-36(20-18-35)24-13-11-23(31)12-14-24/h3,5-6,9-14,21H,4,7-8,15-20H2,1-2H3

> <PUBCHEM_IUPAC_INCHIKEY>
VBTKDYSXDUNEIG-UHFFFAOYSA-N

> <PUBCHEM_XLOGP3_AA>
5.4

> <PUBCHEM_EXACT_MASS>
559.2462510

> <PUBCHEM_MOLECULAR_FORMULA>
C30H34ClN7O2

> <PUBCHEM_MOLECULAR_WEIGHT>
560.1

> <PUBCHEM_OPENEYE_CAN_SMILES>
CN1C2=C(C(=O)N(C1=O)C)N3C=C(N(C3=N2)CCCCCN4CCN(CC4)C5=CC=C(C=C5)Cl)C6=CC=CC=C6

> <PUBCHEM_OPENEYE_ISO_SMILES>
CN1C2=C(C(=O)N(C1=O)C)N3C=C(N(C3=N2)CCCCCN4CCN(CC4)C5=CC=C(C=C5)Cl)C6=CC=CC=C6

> <PUBCHEM_CACTVS_TPSA>
69.3

> <PUBCHEM_MONOISOTOPIC_WEIGHT>
559.2462510

> <PUBCHEM_TOTAL_CHARGE>
0

> <PUBCHEM_HEAVY_ATOM_COUNT>
40

> <PUBCHEM_ATOM_DEF_STEREO_COUNT>
0

> <PUBCHEM_ATOM_UDEF_STEREO_COUNT>
0

> <PUBCHEM_BOND_DEF_STEREO_COUNT>
0

> <PUBCHEM_BOND_UDEF_STEREO_COUNT>
0

> <PUBCHEM_ISOTOPIC_ATOM_COUNT>
0

> <PUBCHEM_COMPONENT_COUNT>
1

> <PUBCHEM_CACTVS_TAUTO_COUNT>
-1

> <PUBCHEM_COORDINATE_TYPE>
1
5
255

> <PUBCHEM_BONDANNOTATIONS>
10  27  8
10  30  8
21  24  8
22  28  8
22  29  8
23  25  8
23  27  8
26  31  8
26  32  8
28  34  8
29  35  8
31  38  8
32  39  8
34  37  8
35  37  8
38  40  8
39  40  8
6  20  8
6  21  8
7  20  8
7  23  8
7  24  8
8  20  8
8  25  8
9  25  8
9  30  8

$$$$
