44405445
  -OEChem-09292322272D

 52 55  0     1  0  0  0  0  0999 V2000
    3.4782   -6.4533    0.0000 S   0  0  0  0  0  0  0  0  0  0  0  0
    6.8172    6.6612    0.0000 F   0  0  0  0  0  0  0  0  0  0  0  0
    5.4204    6.4400    0.0000 F   0  0  0  0  0  0  0  0  0  0  0  0
    7.0384    5.2644    0.0000 F   0  0  0  0  0  0  0  0  0  0  0  0
    4.4487   -1.9588    0.0000 O   0  0  0  0  0  0  0  0  0  0  0  0
    5.6416    5.0432    0.0000 O   0  0  0  0  0  0  0  0  0  0  0  0
    6.6808    0.5800    0.0000 N   0  0  3  0  0  0  0  0  0  0  0  0
    6.1808   -1.9588    0.0000 N   0  0  0  0  0  0  0  0  0  0  0  0
    6.1808   -0.9588    0.0000 C   0  0  1  0  0  0  0  0  0  0  0  0
    5.3717   -0.3710    0.0000 C   0  0  0  0  0  0  0  0  0  0  0  0
    6.9898   -0.3710    0.0000 C   0  0  0  0  0  0  0  0  0  0  0  0
    5.6808    0.5800    0.0000 C   0  0  0  0  0  0  0  0  0  0  0  0
    7.2685    1.3890    0.0000 C   0  0  0  0  0  0  0  0  0  0  0  0
    6.8618    2.3026    0.0000 C   0  0  0  0  0  0  0  0  0  0  0  0
    5.3147   -2.4588    0.0000 C   0  0  0  0  0  0  0  0  0  0  0  0
    5.8673    2.4071    0.0000 C   0  0  0  0  0  0  0  0  0  0  0  0
    7.4496    3.1116    0.0000 C   0  0  0  0  0  0  0  0  0  0  0  0
    5.3147   -3.4588    0.0000 C   0  0  0  0  0  0  0  0  0  0  0  0
    5.4605    3.3207    0.0000 C   0  0  0  0  0  0  0  0  0  0  0  0
    7.0428    4.0252    0.0000 C   0  0  0  0  0  0  0  0  0  0  0  0
    4.4487   -3.9588    0.0000 C   0  0  0  0  0  0  0  0  0  0  0  0
    6.0483    4.1297    0.0000 C   0  0  0  0  0  0  0  0  0  0  0  0
    6.1808   -3.9588    0.0000 C   0  0  0  0  0  0  0  0  0  0  0  0
    4.4487   -4.9588    0.0000 C   0  0  0  0  0  0  0  0  0  0  0  0
    6.1808   -4.9588    0.0000 C   0  0  0  0  0  0  0  0  0  0  0  0
    5.3147   -5.4588    0.0000 C   0  0  0  0  0  0  0  0  0  0  0  0
    3.5827   -5.4588    0.0000 C   0  0  0  0  0  0  0  0  0  0  0  0
    2.6691   -5.0521    0.0000 C   0  0  0  0  0  0  0  0  0  0  0  0
    6.2294    5.8522    0.0000 C   0  0  0  0  0  0  0  0  0  0  0  0
    2.0000   -5.7952    0.0000 C   0  0  0  0  0  0  0  0  0  0  0  0
    2.5000   -6.6612    0.0000 C   0  0  0  0  0  0  0  0  0  0  0  0
    6.7332   -1.2403    0.0000 H   0  0  0  0  0  0  0  0  0  0  0  0
    4.8053   -0.1189    0.0000 H   0  0  0  0  0  0  0  0  0  0  0  0
    5.0617   -0.9080    0.0000 H   0  0  0  0  0  0  0  0  0  0  0  0
    7.2998   -0.9080    0.0000 H   0  0  0  0  0  0  0  0  0  0  0  0
    7.5562   -0.1189    0.0000 H   0  0  0  0  0  0  0  0  0  0  0  0
    5.7456    1.1966    0.0000 H   0  0  0  0  0  0  0  0  0  0  0  0
    5.0743    0.7089    0.0000 H   0  0  0  0  0  0  0  0  0  0  0  0
    7.6992    0.9430    0.0000 H   0  0  0  0  0  0  0  0  0  0  0  0
    7.7825    1.7357    0.0000 H   0  0  0  0  0  0  0  0  0  0  0  0
    6.7177   -2.2688    0.0000 H   0  0  0  0  0  0  0  0  0  0  0  0
    5.5028    1.9055    0.0000 H   0  0  0  0  0  0  0  0  0  0  0  0
    8.0662    3.0468    0.0000 H   0  0  0  0  0  0  0  0  0  0  0  0
    4.8439    3.3855    0.0000 H   0  0  0  0  0  0  0  0  0  0  0  0
    7.4073    4.5267    0.0000 H   0  0  0  0  0  0  0  0  0  0  0  0
    3.9118   -3.6488    0.0000 H   0  0  0  0  0  0  0  0  0  0  0  0
    6.7177   -3.6488    0.0000 H   0  0  0  0  0  0  0  0  0  0  0  0
    6.7177   -5.2688    0.0000 H   0  0  0  0  0  0  0  0  0  0  0  0
    5.3147   -6.0788    0.0000 H   0  0  0  0  0  0  0  0  0  0  0  0
    2.5402   -4.4456    0.0000 H   0  0  0  0  0  0  0  0  0  0  0  0
    1.3834   -5.7304    0.0000 H   0  0  0  0  0  0  0  0  0  0  0  0
    2.2478   -7.2276    0.0000 H   0  0  0  0  0  0  0  0  0  0  0  0
  1 27  1  0  0  0  0
  1 31  1  0  0  0  0
  2 29  1  0  0  0  0
  3 29  1  0  0  0  0
  4 29  1  0  0  0  0
  5 15  2  0  0  0  0
  6 22  1  0  0  0  0
  6 29  1  0  0  0  0
  7 11  1  0  0  0  0
  7 12  1  0  0  0  0
  7 13  1  0  0  0  0
  9  8  1  1  0  0  0
  8 15  1  0  0  0  0
  8 41  1  0  0  0  0
  9 10  1  0  0  0  0
  9 11  1  0  0  0  0
  9 32  1  0  0  0  0
 10 12  1  0  0  0  0
 10 33  1  0  0  0  0
 10 34  1  0  0  0  0
 11 35  1  0  0  0  0
 11 36  1  0  0  0  0
 12 37  1  0  0  0  0
 12 38  1  0  0  0  0
 13 14  1  0  0  0  0
 13 39  1  0  0  0  0
 13 40  1  0  0  0  0
 14 16  2  0  0  0  0
 14 17  1  0  0  0  0
 15 18  1  0  0  0  0
 16 19  1  0  0  0  0
 16 42  1  0  0  0  0
 17 20  2  0  0  0  0
 17 43  1  0  0  0  0
 18 21  1  0  0  0  0
 18 23  2  0  0  0  0
 19 22  2  0  0  0  0
 19 44  1  0  0  0  0
 20 22  1  0  0  0  0
 20 45  1  0  0  0  0
 21 24  2  0  0  0  0
 21 46  1  0  0  0  0
 23 25  1  0  0  0  0
 23 47  1  0  0  0  0
 24 26  1  0  0  0  0
 24 27  1  0  0  0  0
 25 26  2  0  0  0  0
 25 48  1  0  0  0  0
 26 49  1  0  0  0  0
 27 28  2  0  0  0  0
 28 30  1  0  0  0  0
 28 50  1  0  0  0  0
 30 31  2  0  0  0  0
 30 51  1  0  0  0  0
 31 52  1  0  0  0  0
M  END
> <PUBCHEM_COMPOUND_CID>
44405445

> <PUBCHEM_COMPOUND_CANONICALIZED>
1

> <PUBCHEM_CACTVS_COMPLEXITY>
598

> <PUBCHEM_CACTVS_HBOND_ACCEPTOR>
7

> <PUBCHEM_CACTVS_HBOND_DONOR>
1

> <PUBCHEM_CACTVS_ROTATABLE_BOND>
6

> <PUBCHEM_CACTVS_SUBSKEYS>
AAADceB7MYBAAAAAAAAAAAAAAAAAAWJAAAAwYAAAAAAAAAAB0AAAHwQQAAAADCzF2BSwB4PABAiMAiFSEACDCIAkKBBIiJkODMgMZjKk9RuUMShk1hGoqYeY2MKOIAACAAAAAABAAAQAAAAAAAAAAAAAAA==

> <PUBCHEM_IUPAC_OPENEYE_NAME>
3-(2-thienyl)-N-[(3S)-1-[[4-(trifluoromethoxy)phenyl]methyl]pyrrolidin-3-yl]benzamide

> <PUBCHEM_IUPAC_CAS_NAME>
3-thiophen-2-yl-N-[(3S)-1-[[4-(trifluoromethoxy)phenyl]methyl]-3-pyrrolidinyl]benzamide

> <PUBCHEM_IUPAC_NAME_MARKUP>
3-thiophen-2-yl-<I>N</I>-[(3<I>S</I>)-1-[[4-(trifluoromethoxy)phenyl]methyl]pyrrolidin-3-yl]benzamide

> <PUBCHEM_IUPAC_NAME>
3-thiophen-2-yl-N-[(3S)-1-[[4-(trifluoromethoxy)phenyl]methyl]pyrrolidin-3-yl]benzamide

> <PUBCHEM_IUPAC_SYSTEMATIC_NAME>
3-thiophen-2-yl-N-[(3S)-1-[[4-(trifluoromethyloxy)phenyl]methyl]pyrrolidin-3-yl]benzamide

> <PUBCHEM_IUPAC_TRADITIONAL_NAME>
3-(2-thienyl)-N-[(3S)-1-[4-(trifluoromethoxy)benzyl]pyrrolidin-3-yl]benzamide

> <PUBCHEM_IUPAC_INCHI>
InChI=1S/C23H21F3N2O2S/c24-23(25,26)30-20-8-6-16(7-9-20)14-28-11-10-19(15-28)27-22(29)18-4-1-3-17(13-18)21-5-2-12-31-21/h1-9,12-13,19H,10-11,14-15H2,(H,27,29)/t19-/m0/s1

> <PUBCHEM_IUPAC_INCHIKEY>
JGCWMKASUYCMGE-IBGZPJMESA-N

> <PUBCHEM_XLOGP3_AA>
5.5

> <PUBCHEM_EXACT_MASS>
446.12758358

> <PUBCHEM_MOLECULAR_FORMULA>
C23H21F3N2O2S

> <PUBCHEM_MOLECULAR_WEIGHT>
446.5

> <PUBCHEM_OPENEYE_CAN_SMILES>
C1CN(CC1NC(=O)C2=CC=CC(=C2)C3=CC=CS3)CC4=CC=C(C=C4)OC(F)(F)F

> <PUBCHEM_OPENEYE_ISO_SMILES>
C1CN(C[C@H]1NC(=O)C2=CC=CC(=C2)C3=CC=CS3)CC4=CC=C(C=C4)OC(F)(F)F

> <PUBCHEM_CACTVS_TPSA>
69.8

> <PUBCHEM_MONOISOTOPIC_WEIGHT>
446.12758358

> <PUBCHEM_TOTAL_CHARGE>
0

> <PUBCHEM_HEAVY_ATOM_COUNT>
31

> <PUBCHEM_ATOM_DEF_STEREO_COUNT>
1

> <PUBCHEM_ATOM_UDEF_STEREO_COUNT>
0

> <PUBCHEM_BOND_DEF_STEREO_COUNT>
0

> <PUBCHEM_BOND_UDEF_STEREO_COUNT>
0

> <PUBCHEM_ISOTOPIC_ATOM_COUNT>
0

> <PUBCHEM_COMPONENT_COUNT>
1

> <PUBCHEM_CACTVS_TAUTO_COUNT>
-1

> <PUBCHEM_COORDINATE_TYPE>
1
5
255

> <PUBCHEM_BONDANNOTATIONS>
1  27  8
1  31  8
14  16  8
14  17  8
16  19  8
17  20  8
18  21  8
18  23  8
19  22  8
20  22  8
21  24  8
23  25  8
24  26  8
25  26  8
27  28  8
28  30  8
30  31  8
9  8  5

$$$$
