44411674
  -OEChem-09292322502D

 47 49  0     0  0  0  0  0  0999 V2000
    3.1200   -1.6651    0.0000 S   0  0  0  0  0  0  0  0  0  0  0  0
    6.6200    2.2010    0.0000 F   0  0  0  0  0  0  0  0  0  0  0  0
    6.6200    5.6651    0.0000 F   0  0  0  0  0  0  0  0  0  0  0  0
    3.1200   -5.6651    0.0000 F   0  0  0  0  0  0  0  0  0  0  0  0
    2.6200    2.2010    0.0000 O   0  0  0  0  0  0  0  0  0  0  0  0
    2.1200   -1.6651    0.0000 O   0  0  0  0  0  0  0  0  0  0  0  0
    4.1200   -1.6651    0.0000 O   0  0  0  0  0  0  0  0  0  0  0  0
    3.1200   -0.6651    0.0000 N   0  0  0  0  0  0  0  0  0  0  0  0
    3.1200    1.3349    0.0000 C   0  0  0  0  0  0  0  0  0  0  0  0
    3.9860    0.8349    0.0000 C   0  0  0  0  0  0  0  0  0  0  0  0
    2.2540    0.8349    0.0000 C   0  0  0  0  0  0  0  0  0  0  0  0
    3.9860   -0.1651    0.0000 C   0  0  0  0  0  0  0  0  0  0  0  0
    2.2540   -0.1651    0.0000 C   0  0  0  0  0  0  0  0  0  0  0  0
    3.6200    2.2010    0.0000 C   0  0  0  0  0  0  0  0  0  0  0  0
    4.6200    2.2010    0.0000 C   0  0  0  0  0  0  0  0  0  0  0  0
    5.1200    3.0670    0.0000 C   0  0  0  0  0  0  0  0  0  0  0  0
    3.1200   -2.6651    0.0000 C   0  0  0  0  0  0  0  0  0  0  0  0
    6.1200    3.0670    0.0000 C   0  0  0  0  0  0  0  0  0  0  0  0
    4.6200    3.9330    0.0000 C   0  0  0  0  0  0  0  0  0  0  0  0
    2.2540   -3.1651    0.0000 C   0  0  0  0  0  0  0  0  0  0  0  0
    3.9860   -3.1651    0.0000 C   0  0  0  0  0  0  0  0  0  0  0  0
    6.6200    3.9330    0.0000 C   0  0  0  0  0  0  0  0  0  0  0  0
    5.1200    4.7990    0.0000 C   0  0  0  0  0  0  0  0  0  0  0  0
    2.2540   -4.1651    0.0000 C   0  0  0  0  0  0  0  0  0  0  0  0
    3.9860   -4.1651    0.0000 C   0  0  0  0  0  0  0  0  0  0  0  0
    6.1200    4.7990    0.0000 C   0  0  0  0  0  0  0  0  0  0  0  0
    3.1200   -4.6651    0.0000 C   0  0  0  0  0  0  0  0  0  0  0  0
    4.5966    0.7273    0.0000 H   0  0  0  0  0  0  0  0  0  0  0  0
    4.1981    1.4176    0.0000 H   0  0  0  0  0  0  0  0  0  0  0  0
    2.0419    1.4176    0.0000 H   0  0  0  0  0  0  0  0  0  0  0  0
    1.6434    0.7273    0.0000 H   0  0  0  0  0  0  0  0  0  0  0  0
    4.1981   -0.7477    0.0000 H   0  0  0  0  0  0  0  0  0  0  0  0
    4.5966   -0.0574    0.0000 H   0  0  0  0  0  0  0  0  0  0  0  0
    1.6434   -0.0574    0.0000 H   0  0  0  0  0  0  0  0  0  0  0  0
    2.0419   -0.7477    0.0000 H   0  0  0  0  0  0  0  0  0  0  0  0
    3.7277    2.8115    0.0000 H   0  0  0  0  0  0  0  0  0  0  0  0
    3.0374    2.4130    0.0000 H   0  0  0  0  0  0  0  0  0  0  0  0
    4.5123    1.5904    0.0000 H   0  0  0  0  0  0  0  0  0  0  0  0
    5.2026    1.9889    0.0000 H   0  0  0  0  0  0  0  0  0  0  0  0
    2.0000    2.2010    0.0000 H   0  0  0  0  0  0  0  0  0  0  0  0
    4.0000    3.9330    0.0000 H   0  0  0  0  0  0  0  0  0  0  0  0
    1.7170   -2.8551    0.0000 H   0  0  0  0  0  0  0  0  0  0  0  0
    4.5230   -2.8551    0.0000 H   0  0  0  0  0  0  0  0  0  0  0  0
    7.2400    3.9330    0.0000 H   0  0  0  0  0  0  0  0  0  0  0  0
    4.8100    5.3360    0.0000 H   0  0  0  0  0  0  0  0  0  0  0  0
    1.7170   -4.4751    0.0000 H   0  0  0  0  0  0  0  0  0  0  0  0
    4.5230   -4.4751    0.0000 H   0  0  0  0  0  0  0  0  0  0  0  0
  1  6  2  0  0  0  0
  1  7  2  0  0  0  0
  1  8  1  0  0  0  0
  1 17  1  0  0  0  0
  2 18  1  0  0  0  0
  3 26  1  0  0  0  0
  4 27  1  0  0  0  0
  5  9  1  0  0  0  0
  5 40  1  0  0  0  0
  8 12  1  0  0  0  0
  8 13  1  0  0  0  0
  9 10  1  0  0  0  0
  9 11  1  0  0  0  0
  9 14  1  0  0  0  0
 10 12  1  0  0  0  0
 10 28  1  0  0  0  0
 10 29  1  0  0  0  0
 11 13  1  0  0  0  0
 11 30  1  0  0  0  0
 11 31  1  0  0  0  0
 12 32  1  0  0  0  0
 12 33  1  0  0  0  0
 13 34  1  0  0  0  0
 13 35  1  0  0  0  0
 14 15  1  0  0  0  0
 14 36  1  0  0  0  0
 14 37  1  0  0  0  0
 15 16  1  0  0  0  0
 15 38  1  0  0  0  0
 15 39  1  0  0  0  0
 16 18  2  0  0  0  0
 16 19  1  0  0  0  0
 17 20  2  0  0  0  0
 17 21  1  0  0  0  0
 18 22  1  0  0  0  0
 19 23  2  0  0  0  0
 19 41  1  0  0  0  0
 20 24  1  0  0  0  0
 20 42  1  0  0  0  0
 21 25  2  0  0  0  0
 21 43  1  0  0  0  0
 22 26  2  0  0  0  0
 22 44  1  0  0  0  0
 23 26  1  0  0  0  0
 23 45  1  0  0  0  0
 24 27  2  0  0  0  0
 24 46  1  0  0  0  0
 25 27  1  0  0  0  0
 25 47  1  0  0  0  0
M  END
> <PUBCHEM_COMPOUND_CID>
44411674

> <PUBCHEM_COMPOUND_CANONICALIZED>
1

> <PUBCHEM_CACTVS_COMPLEXITY>
582

> <PUBCHEM_CACTVS_HBOND_ACCEPTOR>
7

> <PUBCHEM_CACTVS_HBOND_DONOR>
1

> <PUBCHEM_CACTVS_ROTATABLE_BOND>
5

> <PUBCHEM_CACTVS_SUBSKEYS>
AAADceB6MYBAAAAAAAAAAAAAAAAAAAAAAAA8YIAAAAAAAAABQAAAHwQASAAADETB2AwwAYIAAgKAAiBCAHBCABAgAAAIiBgIAIgIICKAkRCEYAAmgACIiAeQwOAOAAAAAAAAAAAAAAAAAAAAAAAAAAAAAA==

> <PUBCHEM_IUPAC_OPENEYE_NAME>
4-[2-(2,4-difluorophenyl)ethyl]-1-(4-fluorophenyl)sulfonyl-piperidin-4-ol

> <PUBCHEM_IUPAC_CAS_NAME>
4-[2-(2,4-difluorophenyl)ethyl]-1-(4-fluorophenyl)sulfonyl-4-piperidinol

> <PUBCHEM_IUPAC_NAME_MARKUP>
4-[2-(2,4-difluorophenyl)ethyl]-1-(4-fluorophenyl)sulfonylpiperidin-4-ol

> <PUBCHEM_IUPAC_NAME>
4-[2-(2,4-difluorophenyl)ethyl]-1-(4-fluorophenyl)sulfonylpiperidin-4-ol

> <PUBCHEM_IUPAC_SYSTEMATIC_NAME>
4-[2-[2,4-bis(fluoranyl)phenyl]ethyl]-1-(4-fluorophenyl)sulfonyl-piperidin-4-ol

> <PUBCHEM_IUPAC_TRADITIONAL_NAME>
4-[2-(2,4-difluorophenyl)ethyl]-1-(4-fluorophenyl)sulfonyl-piperidin-4-ol

> <PUBCHEM_IUPAC_INCHI>
InChI=1S/C19H20F3NO3S/c20-15-3-5-17(6-4-15)27(25,26)23-11-9-19(24,10-12-23)8-7-14-1-2-16(21)13-18(14)22/h1-6,13,24H,7-12H2

> <PUBCHEM_IUPAC_INCHIKEY>
XWWMSPYJKMBSOT-UHFFFAOYSA-N

> <PUBCHEM_XLOGP3_AA>
3.4

> <PUBCHEM_EXACT_MASS>
399.11159916

> <PUBCHEM_MOLECULAR_FORMULA>
C19H20F3NO3S

> <PUBCHEM_MOLECULAR_WEIGHT>
399.4

> <PUBCHEM_OPENEYE_CAN_SMILES>
C1CN(CCC1(CCC2=C(C=C(C=C2)F)F)O)S(=O)(=O)C3=CC=C(C=C3)F

> <PUBCHEM_OPENEYE_ISO_SMILES>
C1CN(CCC1(CCC2=C(C=C(C=C2)F)F)O)S(=O)(=O)C3=CC=C(C=C3)F

> <PUBCHEM_CACTVS_TPSA>
66

> <PUBCHEM_MONOISOTOPIC_WEIGHT>
399.11159916

> <PUBCHEM_TOTAL_CHARGE>
0

> <PUBCHEM_HEAVY_ATOM_COUNT>
27

> <PUBCHEM_ATOM_DEF_STEREO_COUNT>
0

> <PUBCHEM_ATOM_UDEF_STEREO_COUNT>
0

> <PUBCHEM_BOND_DEF_STEREO_COUNT>
0

> <PUBCHEM_BOND_UDEF_STEREO_COUNT>
0

> <PUBCHEM_ISOTOPIC_ATOM_COUNT>
0

> <PUBCHEM_COMPONENT_COUNT>
1

> <PUBCHEM_CACTVS_TAUTO_COUNT>
-1

> <PUBCHEM_COORDINATE_TYPE>
1
5
255

> <PUBCHEM_BONDANNOTATIONS>
16  18  8
16  19  8
17  20  8
17  21  8
18  22  8
19  23  8
20  24  8
21  25  8
22  26  8
23  26  8
24  27  8
25  27  8

$$$$
