11530118
  -OEChem-09292322072D

 41 42  0     1  0  0  0  0  0999 V2000
    2.0000   -3.0194    0.0000 F   0  0  0  0  0  0  0  0  0  0  0  0
    3.0000   -4.0194    0.0000 F   0  0  0  0  0  0  0  0  0  0  0  0
    4.0000   -3.0194    0.0000 F   0  0  0  0  0  0  0  0  0  0  0  0
    2.1340    1.4806    0.0000 O   0  0  0  0  0  0  0  0  0  0  0  0
    3.8660    2.4806    0.0000 N   0  0  0  0  0  0  0  0  0  0  0  0
    3.8660    1.4806    0.0000 C   0  0  3  0  0  0  0  0  0  0  0  0
    4.6750    3.0684    0.0000 C   0  0  0  0  0  0  0  0  0  0  0  0
    3.0570    3.0684    0.0000 C   0  0  0  0  0  0  0  0  0  0  0  0
    4.3660    4.0194    0.0000 C   0  0  0  0  0  0  0  0  0  0  0  0
    3.3660    4.0194    0.0000 C   0  0  0  0  0  0  0  0  0  0  0  0
    4.7320    0.9806    0.0000 C   0  0  0  0  0  0  0  0  0  0  0  0
    3.0000    0.9806    0.0000 C   0  0  0  0  0  0  0  0  0  0  0  0
    5.5981    1.4806    0.0000 C   0  0  0  0  0  0  0  0  0  0  0  0
    3.0000   -0.0194    0.0000 C   0  0  0  0  0  0  0  0  0  0  0  0
    6.4641    0.9806    0.0000 C   0  0  0  0  0  0  0  0  0  0  0  0
    3.8660   -0.5194    0.0000 C   0  0  0  0  0  0  0  0  0  0  0  0
    2.1340   -0.5194    0.0000 C   0  0  0  0  0  0  0  0  0  0  0  0
    3.8660   -1.5194    0.0000 C   0  0  0  0  0  0  0  0  0  0  0  0
    2.1340   -1.5194    0.0000 C   0  0  0  0  0  0  0  0  0  0  0  0
    3.0000   -2.0194    0.0000 C   0  0  0  0  0  0  0  0  0  0  0  0
    3.0000   -3.0194    0.0000 C   0  0  0  0  0  0  0  0  0  0  0  0
    4.4030    1.7906    0.0000 H   0  0  0  0  0  0  0  0  0  0  0  0
    4.9850    2.5314    0.0000 H   0  0  0  0  0  0  0  0  0  0  0  0
    5.2414    3.3205    0.0000 H   0  0  0  0  0  0  0  0  0  0  0  0
    2.4906    3.3205    0.0000 H   0  0  0  0  0  0  0  0  0  0  0  0
    2.7470    2.5314    0.0000 H   0  0  0  0  0  0  0  0  0  0  0  0
    4.9725    4.1483    0.0000 H   0  0  0  0  0  0  0  0  0  0  0  0
    4.3012    4.6360    0.0000 H   0  0  0  0  0  0  0  0  0  0  0  0
    3.4308    4.6360    0.0000 H   0  0  0  0  0  0  0  0  0  0  0  0
    2.7596    4.1483    0.0000 H   0  0  0  0  0  0  0  0  0  0  0  0
    4.3335    0.5056    0.0000 H   0  0  0  0  0  0  0  0  0  0  0  0
    5.1306    0.5056    0.0000 H   0  0  0  0  0  0  0  0  0  0  0  0
    5.9966    1.9555    0.0000 H   0  0  0  0  0  0  0  0  0  0  0  0
    5.1996    1.9555    0.0000 H   0  0  0  0  0  0  0  0  0  0  0  0
    6.1541    0.4436    0.0000 H   0  0  0  0  0  0  0  0  0  0  0  0
    7.0010    0.6706    0.0000 H   0  0  0  0  0  0  0  0  0  0  0  0
    6.7741    1.5175    0.0000 H   0  0  0  0  0  0  0  0  0  0  0  0
    4.4030   -0.2094    0.0000 H   0  0  0  0  0  0  0  0  0  0  0  0
    1.5970   -0.2094    0.0000 H   0  0  0  0  0  0  0  0  0  0  0  0
    4.4030   -1.8294    0.0000 H   0  0  0  0  0  0  0  0  0  0  0  0
    1.5970   -1.8294    0.0000 H   0  0  0  0  0  0  0  0  0  0  0  0
  1 21  1  0  0  0  0
  2 21  1  0  0  0  0
  3 21  1  0  0  0  0
  4 12  2  0  0  0  0
  5  6  1  0  0  0  0
  5  7  1  0  0  0  0
  5  8  1  0  0  0  0
  6 11  1  0  0  0  0
  6 12  1  0  0  0  0
  6 22  1  0  0  0  0
  7  9  1  0  0  0  0
  7 23  1  0  0  0  0
  7 24  1  0  0  0  0
  8 10  1  0  0  0  0
  8 25  1  0  0  0  0
  8 26  1  0  0  0  0
  9 10  1  0  0  0  0
  9 27  1  0  0  0  0
  9 28  1  0  0  0  0
 10 29  1  0  0  0  0
 10 30  1  0  0  0  0
 11 13  1  0  0  0  0
 11 31  1  0  0  0  0
 11 32  1  0  0  0  0
 12 14  1  0  0  0  0
 13 15  1  0  0  0  0
 13 33  1  0  0  0  0
 13 34  1  0  0  0  0
 14 16  2  0  0  0  0
 14 17  1  0  0  0  0
 15 35  1  0  0  0  0
 15 36  1  0  0  0  0
 15 37  1  0  0  0  0
 16 18  1  0  0  0  0
 16 38  1  0  0  0  0
 17 19  2  0  0  0  0
 17 39  1  0  0  0  0
 18 20  2  0  0  0  0
 18 40  1  0  0  0  0
 19 20  1  0  0  0  0
 19 41  1  0  0  0  0
 20 21  1  0  0  0  0
M  END
> <PUBCHEM_COMPOUND_CID>
11530118

> <PUBCHEM_COMPOUND_CANONICALIZED>
1

> <PUBCHEM_CACTVS_COMPLEXITY>
342

> <PUBCHEM_CACTVS_HBOND_ACCEPTOR>
5

> <PUBCHEM_CACTVS_HBOND_DONOR>
0

> <PUBCHEM_CACTVS_ROTATABLE_BOND>
5

> <PUBCHEM_CACTVS_SUBSKEYS>
AAADceB6IYAAAAAAAAAAAAAAAAAAAWAAAAAwAAAAAAAAAAABAAAAHwAAAAAADCzBmBQyAIMAAACIAqBSAAACAAAkAAAIiAGIAMgIIDKAlTGEIQAggACIiYcYiMCOQAAAAAAAAACAAAAAAAAAAAAAAAAAAA==

> <PUBCHEM_IUPAC_OPENEYE_NAME>
2-pyrrolidin-1-yl-1-[4-(trifluoromethyl)phenyl]pentan-1-one

> <PUBCHEM_IUPAC_CAS_NAME>
2-(1-pyrrolidinyl)-1-[4-(trifluoromethyl)phenyl]-1-pentanone

> <PUBCHEM_IUPAC_NAME_MARKUP>
2-pyrrolidin-1-yl-1-[4-(trifluoromethyl)phenyl]pentan-1-one

> <PUBCHEM_IUPAC_NAME>
2-pyrrolidin-1-yl-1-[4-(trifluoromethyl)phenyl]pentan-1-one

> <PUBCHEM_IUPAC_SYSTEMATIC_NAME>
2-pyrrolidin-1-yl-1-[4-(trifluoromethyl)phenyl]pentan-1-one

> <PUBCHEM_IUPAC_TRADITIONAL_NAME>
2-pyrrolidino-1-[4-(trifluoromethyl)phenyl]pentan-1-one

> <PUBCHEM_IUPAC_INCHI>
InChI=1S/C16H20F3NO/c1-2-5-14(20-10-3-4-11-20)15(21)12-6-8-13(9-7-12)16(17,18)19/h6-9,14H,2-5,10-11H2,1H3

> <PUBCHEM_IUPAC_INCHIKEY>
OIZUHURZTLEFGZ-UHFFFAOYSA-N

> <PUBCHEM_XLOGP3_AA>
4.3

> <PUBCHEM_EXACT_MASS>
299.14969875

> <PUBCHEM_MOLECULAR_FORMULA>
C16H20F3NO

> <PUBCHEM_MOLECULAR_WEIGHT>
299.33

> <PUBCHEM_OPENEYE_CAN_SMILES>
CCCC(C(=O)C1=CC=C(C=C1)C(F)(F)F)N2CCCC2

> <PUBCHEM_OPENEYE_ISO_SMILES>
CCCC(C(=O)C1=CC=C(C=C1)C(F)(F)F)N2CCCC2

> <PUBCHEM_CACTVS_TPSA>
20.3

> <PUBCHEM_MONOISOTOPIC_WEIGHT>
299.14969875

> <PUBCHEM_TOTAL_CHARGE>
0

> <PUBCHEM_HEAVY_ATOM_COUNT>
21

> <PUBCHEM_ATOM_DEF_STEREO_COUNT>
0

> <PUBCHEM_ATOM_UDEF_STEREO_COUNT>
1

> <PUBCHEM_BOND_DEF_STEREO_COUNT>
0

> <PUBCHEM_BOND_UDEF_STEREO_COUNT>
0

> <PUBCHEM_ISOTOPIC_ATOM_COUNT>
0

> <PUBCHEM_COMPONENT_COUNT>
1

> <PUBCHEM_CACTVS_TAUTO_COUNT>
-1

> <PUBCHEM_COORDINATE_TYPE>
1
5
255

> <PUBCHEM_BONDANNOTATIONS>
14  16  8
14  17  8
16  18  8
17  19  8
18  20  8
19  20  8
6  11  3

$$$$
