155510683
  -OEChem-09292322442D

 49 52  0     0  0  0  0  0  0999 V2000
    4.5981   -2.5442    0.0000 N   0  0  0  0  0  0  0  0  0  0  0  0
    4.5981    0.4558    0.0000 N   0  0  0  0  0  0  0  0  0  0  0  0
    3.7891    1.0435    0.0000 N   0  0  0  0  0  0  0  0  0  0  0  0
    4.0981    1.9946    0.0000 N   0  0  0  0  0  0  0  0  0  0  0  0
    4.5981   -0.5442    0.0000 C   0  0  0  0  0  0  0  0  0  0  0  0
    3.7320   -1.0442    0.0000 C   0  0  0  0  0  0  0  0  0  0  0  0
    5.4641   -1.0442    0.0000 C   0  0  0  0  0  0  0  0  0  0  0  0
    3.7320   -2.0442    0.0000 C   0  0  0  0  0  0  0  0  0  0  0  0
    5.4641   -2.0442    0.0000 C   0  0  0  0  0  0  0  0  0  0  0  0
    4.5981   -3.5442    0.0000 C   0  0  0  0  0  0  0  0  0  0  0  0
    5.4071    1.0435    0.0000 C   0  0  0  0  0  0  0  0  0  0  0  0
    3.7320   -4.0442    0.0000 C   0  0  0  0  0  0  0  0  0  0  0  0
    5.0981    1.9946    0.0000 C   0  0  0  0  0  0  0  0  0  0  0  0
    5.6859    2.8036    0.0000 C   0  0  0  0  0  0  0  0  0  0  0  0
    2.8660   -3.5442    0.0000 C   0  0  0  0  0  0  0  0  0  0  0  0
    3.7320   -5.0442    0.0000 C   0  0  0  0  0  0  0  0  0  0  0  0
    5.2791    3.7172    0.0000 C   0  0  0  0  0  0  0  0  0  0  0  0
    2.0000   -4.0442    0.0000 C   0  0  0  0  0  0  0  0  0  0  0  0
    2.8660   -5.5442    0.0000 C   0  0  0  0  0  0  0  0  0  0  0  0
    2.0000   -5.0442    0.0000 C   0  0  0  0  0  0  0  0  0  0  0  0
    5.8669    4.5262    0.0000 C   0  0  0  0  0  0  0  0  0  0  0  0
    4.2846    3.8217    0.0000 C   0  0  0  0  0  0  0  0  0  0  0  0
    5.4602    5.4397    0.0000 C   0  0  0  0  0  0  0  0  0  0  0  0
    3.8779    4.7352    0.0000 C   0  0  0  0  0  0  0  0  0  0  0  0
    4.4656    5.5442    0.0000 C   0  0  0  0  0  0  0  0  0  0  0  0
    5.1350   -0.2342    0.0000 H   0  0  0  0  0  0  0  0  0  0  0  0
    3.5200   -0.4616    0.0000 H   0  0  0  0  0  0  0  0  0  0  0  0
    3.1215   -1.1519    0.0000 H   0  0  0  0  0  0  0  0  0  0  0  0
    6.0747   -1.1519    0.0000 H   0  0  0  0  0  0  0  0  0  0  0  0
    5.6762   -0.4616    0.0000 H   0  0  0  0  0  0  0  0  0  0  0  0
    3.1215   -1.9366    0.0000 H   0  0  0  0  0  0  0  0  0  0  0  0
    3.5200   -2.6269    0.0000 H   0  0  0  0  0  0  0  0  0  0  0  0
    5.6762   -2.6269    0.0000 H   0  0  0  0  0  0  0  0  0  0  0  0
    6.0747   -1.9366    0.0000 H   0  0  0  0  0  0  0  0  0  0  0  0
    4.8101   -4.1269    0.0000 H   0  0  0  0  0  0  0  0  0  0  0  0
    5.2087   -3.4366    0.0000 H   0  0  0  0  0  0  0  0  0  0  0  0
    5.9967    0.8519    0.0000 H   0  0  0  0  0  0  0  0  0  0  0  0
    6.1166    2.3576    0.0000 H   0  0  0  0  0  0  0  0  0  0  0  0
    6.1999    3.1503    0.0000 H   0  0  0  0  0  0  0  0  0  0  0  0
    2.8660   -2.9242    0.0000 H   0  0  0  0  0  0  0  0  0  0  0  0
    4.2690   -5.3543    0.0000 H   0  0  0  0  0  0  0  0  0  0  0  0
    1.4631   -3.7342    0.0000 H   0  0  0  0  0  0  0  0  0  0  0  0
    2.8660   -6.1642    0.0000 H   0  0  0  0  0  0  0  0  0  0  0  0
    1.4631   -5.3543    0.0000 H   0  0  0  0  0  0  0  0  0  0  0  0
    6.4835    4.4614    0.0000 H   0  0  0  0  0  0  0  0  0  0  0  0
    3.9202    3.3201    0.0000 H   0  0  0  0  0  0  0  0  0  0  0  0
    5.8246    5.9413    0.0000 H   0  0  0  0  0  0  0  0  0  0  0  0
    3.2613    4.8000    0.0000 H   0  0  0  0  0  0  0  0  0  0  0  0
    4.2135    6.1106    0.0000 H   0  0  0  0  0  0  0  0  0  0  0  0
  1  8  1  0  0  0  0
  1  9  1  0  0  0  0
  1 10  1  0  0  0  0
  2  3  1  0  0  0  0
  2  5  1  0  0  0  0
  2 11  1  0  0  0  0
  3  4  2  0  0  0  0
  4 13  1  0  0  0  0
  5  6  1  0  0  0  0
  5  7  1  0  0  0  0
  5 26  1  0  0  0  0
  6  8  1  0  0  0  0
  6 27  1  0  0  0  0
  6 28  1  0  0  0  0
  7  9  1  0  0  0  0
  7 29  1  0  0  0  0
  7 30  1  0  0  0  0
  8 31  1  0  0  0  0
  8 32  1  0  0  0  0
  9 33  1  0  0  0  0
  9 34  1  0  0  0  0
 10 12  1  0  0  0  0
 10 35  1  0  0  0  0
 10 36  1  0  0  0  0
 11 13  2  0  0  0  0
 11 37  1  0  0  0  0
 12 15  2  0  0  0  0
 12 16  1  0  0  0  0
 13 14  1  0  0  0  0
 14 17  1  0  0  0  0
 14 38  1  0  0  0  0
 14 39  1  0  0  0  0
 15 18  1  0  0  0  0
 15 40  1  0  0  0  0
 16 19  2  0  0  0  0
 16 41  1  0  0  0  0
 17 21  2  0  0  0  0
 17 22  1  0  0  0  0
 18 20  2  0  0  0  0
 18 42  1  0  0  0  0
 19 20  1  0  0  0  0
 19 43  1  0  0  0  0
 20 44  1  0  0  0  0
 21 23  1  0  0  0  0
 21 45  1  0  0  0  0
 22 24  2  0  0  0  0
 22 46  1  0  0  0  0
 23 25  2  0  0  0  0
 23 47  1  0  0  0  0
 24 25  1  0  0  0  0
 24 48  1  0  0  0  0
 25 49  1  0  0  0  0
M  END
> <PUBCHEM_COMPOUND_CID>
155510683

> <PUBCHEM_COMPOUND_CANONICALIZED>
1

> <PUBCHEM_CACTVS_COMPLEXITY>
381

> <PUBCHEM_CACTVS_HBOND_ACCEPTOR>
3

> <PUBCHEM_CACTVS_HBOND_DONOR>
0

> <PUBCHEM_CACTVS_ROTATABLE_BOND>
5

> <PUBCHEM_CACTVS_SUBSKEYS>
AAADceB7gAAAAAAAAAAAAAAAAAAAAWAAAAA8YIAAAAAAAAAB0AAAHAAIAAAADCjBHgQ8gJMIAACiAzRnRACCBAQxkgAY2AA4dIgIYCLA0RGUIAhggADIyAcQgIAOAAAAAAAAAAAAAAAAAAAAAAAAAAAAAA==

> <PUBCHEM_IUPAC_OPENEYE_NAME>
1-benzyl-4-(4-benzyltriazol-1-yl)piperidine

> <PUBCHEM_IUPAC_CAS_NAME>
1-(phenylmethyl)-4-[4-(phenylmethyl)-1-triazolyl]piperidine

> <PUBCHEM_IUPAC_NAME_MARKUP>
1-benzyl-4-(4-benzyltriazol-1-yl)piperidine

> <PUBCHEM_IUPAC_NAME>
1-benzyl-4-(4-benzyltriazol-1-yl)piperidine

> <PUBCHEM_IUPAC_SYSTEMATIC_NAME>
1-(phenylmethyl)-4-[4-(phenylmethyl)-1,2,3-triazol-1-yl]piperidine

> <PUBCHEM_IUPAC_TRADITIONAL_NAME>
1-benzyl-4-(4-benzyltriazol-1-yl)piperidine

> <PUBCHEM_IUPAC_INCHI>
InChI=1S/C21H24N4/c1-3-7-18(8-4-1)15-20-17-25(23-22-20)21-11-13-24(14-12-21)16-19-9-5-2-6-10-19/h1-10,17,21H,11-16H2

> <PUBCHEM_IUPAC_INCHIKEY>
SACMWQXEALUQNE-UHFFFAOYSA-N

> <PUBCHEM_XLOGP3_AA>
3.6

> <PUBCHEM_EXACT_MASS>
332.20009678

> <PUBCHEM_MOLECULAR_FORMULA>
C21H24N4

> <PUBCHEM_MOLECULAR_WEIGHT>
332.4

> <PUBCHEM_OPENEYE_CAN_SMILES>
C1CN(CCC1N2C=C(N=N2)CC3=CC=CC=C3)CC4=CC=CC=C4

> <PUBCHEM_OPENEYE_ISO_SMILES>
C1CN(CCC1N2C=C(N=N2)CC3=CC=CC=C3)CC4=CC=CC=C4

> <PUBCHEM_CACTVS_TPSA>
34

> <PUBCHEM_MONOISOTOPIC_WEIGHT>
332.20009678

> <PUBCHEM_TOTAL_CHARGE>
0

> <PUBCHEM_HEAVY_ATOM_COUNT>
25

> <PUBCHEM_ATOM_DEF_STEREO_COUNT>
0

> <PUBCHEM_ATOM_UDEF_STEREO_COUNT>
0

> <PUBCHEM_BOND_DEF_STEREO_COUNT>
0

> <PUBCHEM_BOND_UDEF_STEREO_COUNT>
0

> <PUBCHEM_ISOTOPIC_ATOM_COUNT>
0

> <PUBCHEM_COMPONENT_COUNT>
1

> <PUBCHEM_CACTVS_TAUTO_COUNT>
-1

> <PUBCHEM_COORDINATE_TYPE>
1
5
255

> <PUBCHEM_BONDANNOTATIONS>
11  13  8
12  15  8
12  16  8
15  18  8
16  19  8
17  21  8
17  22  8
18  20  8
19  20  8
2  11  8
2  3  8
21  23  8
22  24  8
23  25  8
24  25  8
3  4  8
4  13  8

$$$$
