11657494
  -OEChem-09292322262D

 69 74  0     1  0  0  0  0  0999 V2000
    6.2960   -5.4805    0.0000 Br  0  0  0  0  0  0  0  0  0  0  0  0
    6.5723    2.4621    0.0000 S   0  0  0  0  0  0  0  0  0  0  0  0
    2.3660   -8.2874    0.0000 F   0  0  0  0  0  0  0  0  0  0  0  0
    2.0000   -6.9214    0.0000 F   0  0  0  0  0  0  0  0  0  0  0  0
    3.7320   -7.9214    0.0000 F   0  0  0  0  0  0  0  0  0  0  0  0
    4.3548   -6.4523    0.0000 O   0  0  0  0  0  0  0  0  0  0  0  0
    6.0723   -1.8680    0.0000 N   0  0  3  0  0  0  0  0  0  0  0  0
    2.9609   -5.6476    0.0000 N   0  0  0  0  0  0  0  0  0  0  0  0
    6.4790    4.2417    0.0000 N   0  0  0  0  0  0  0  0  0  0  0  0
    5.0777    3.4327    0.0000 N   0  0  0  0  0  0  0  0  0  0  0  0
    4.8698    4.4108    0.0000 N   0  0  0  0  0  0  0  0  0  0  0  0
    4.3027    8.1128    0.0000 N   0  0  0  0  0  0  0  0  0  0  0  0
    6.6258   -2.6776    0.0000 C   0  0  0  0  0  0  0  0  0  0  0  0
    5.0943   -1.7934    0.0000 C   0  0  0  0  0  0  0  0  0  0  0  0
    6.3405   -3.6160    0.0000 C   0  0  0  0  0  0  0  0  0  0  0  0
    4.4243   -2.5097    0.0000 C   0  0  0  0  0  0  0  0  0  0  0  0
    6.5723   -1.0020    0.0000 C   0  0  0  0  0  0  0  0  0  0  0  0
    5.4300   -3.9805    0.0000 C   0  0  0  0  0  0  0  0  0  0  0  0
    4.5640   -3.4805    0.0000 C   0  0  0  0  0  0  0  0  0  0  0  0
    6.0723   -0.1360    0.0000 C   0  0  0  0  0  0  0  0  0  0  0  0
    5.4300   -4.9805    0.0000 C   0  0  0  0  0  0  0  0  0  0  0  0
    3.6979   -3.9805    0.0000 C   0  0  0  0  0  0  0  0  0  0  0  0
    6.5723    0.7301    0.0000 C   0  0  0  0  0  0  0  0  0  0  0  0
    4.5640   -5.4805    0.0000 C   0  0  0  0  0  0  0  0  0  0  0  0
    3.6979   -4.9805    0.0000 C   0  0  0  0  0  0  0  0  0  0  0  0
    6.0723    1.5961    0.0000 C   0  0  0  0  0  0  0  0  0  0  0  0
    3.3660   -6.5554    0.0000 C   0  0  0  0  0  0  0  0  0  0  0  0
    6.0723    3.3281    0.0000 C   0  0  0  0  0  0  0  0  0  0  0  0
    2.8660   -7.4214    0.0000 C   0  0  0  0  0  0  0  0  0  0  0  0
    5.7358    4.9108    0.0000 C   0  0  0  0  0  0  0  0  0  0  0  0
    5.8404    5.9053    0.0000 C   0  0  0  0  0  0  0  0  0  0  0  0
    5.0314    6.4931    0.0000 C   0  0  0  0  0  0  0  0  0  0  0  0
    7.4571    4.4496    0.0000 C   0  0  0  0  0  0  0  0  0  0  0  0
    5.1359    7.4876    0.0000 C   0  0  0  0  0  0  0  0  0  0  0  0
    6.7539    6.3121    0.0000 C   0  0  0  0  0  0  0  0  0  0  0  0
    4.0864    6.0548    0.0000 C   0  0  0  0  0  0  0  0  0  0  0  0
    6.0494    7.8944    0.0000 C   0  0  0  0  0  0  0  0  0  0  0  0
    6.8584    7.3066    0.0000 C   0  0  0  0  0  0  0  0  0  0  0  0
    3.2390    6.6606    0.0000 C   0  0  0  0  0  0  0  0  0  0  0  0
    3.3479    7.6965    0.0000 C   0  0  0  0  0  0  0  0  0  0  0  0
    2.5412    8.2874    0.0000 C   0  0  0  0  0  0  0  0  0  0  0  0
    7.1638   -2.9860    0.0000 H   0  0  0  0  0  0  0  0  0  0  0  0
    7.0465   -2.2222    0.0000 H   0  0  0  0  0  0  0  0  0  0  0  0
    5.2784   -1.2014    0.0000 H   0  0  0  0  0  0  0  0  0  0  0  0
    4.5584   -1.4817    0.0000 H   0  0  0  0  0  0  0  0  0  0  0  0
    6.4365   -4.2285    0.0000 H   0  0  0  0  0  0  0  0  0  0  0  0
    6.9590   -3.6593    0.0000 H   0  0  0  0  0  0  0  0  0  0  0  0
    4.0776   -1.9957    0.0000 H   0  0  0  0  0  0  0  0  0  0  0  0
    3.8458   -2.7328    0.0000 H   0  0  0  0  0  0  0  0  0  0  0  0
    7.0472   -1.4005    0.0000 H   0  0  0  0  0  0  0  0  0  0  0  0
    7.0472   -0.6035    0.0000 H   0  0  0  0  0  0  0  0  0  0  0  0
    5.5973    0.2626    0.0000 H   0  0  0  0  0  0  0  0  0  0  0  0
    5.5973   -0.5345    0.0000 H   0  0  0  0  0  0  0  0  0  0  0  0
    3.1610   -3.6705    0.0000 H   0  0  0  0  0  0  0  0  0  0  0  0
    7.0472    0.3315    0.0000 H   0  0  0  0  0  0  0  0  0  0  0  0
    7.0472    1.1286    0.0000 H   0  0  0  0  0  0  0  0  0  0  0  0
    5.5973    1.9946    0.0000 H   0  0  0  0  0  0  0  0  0  0  0  0
    5.5973    1.1976    0.0000 H   0  0  0  0  0  0  0  0  0  0  0  0
    7.5860    3.8431    0.0000 H   0  0  0  0  0  0  0  0  0  0  0  0
    8.0636    4.5785    0.0000 H   0  0  0  0  0  0  0  0  0  0  0  0
    7.3282    5.0560    0.0000 H   0  0  0  0  0  0  0  0  0  0  0  0
    7.2555    5.9476    0.0000 H   0  0  0  0  0  0  0  0  0  0  0  0
    4.0288    5.4375    0.0000 H   0  0  0  0  0  0  0  0  0  0  0  0
    6.1142    8.5110    0.0000 H   0  0  0  0  0  0  0  0  0  0  0  0
    7.4248    7.5588    0.0000 H   0  0  0  0  0  0  0  0  0  0  0  0
    2.6736    6.4062    0.0000 H   0  0  0  0  0  0  0  0  0  0  0  0
    2.9075    8.7876    0.0000 H   0  0  0  0  0  0  0  0  0  0  0  0
    2.0410    8.6538    0.0000 H   0  0  0  0  0  0  0  0  0  0  0  0
    2.1748    7.7872    0.0000 H   0  0  0  0  0  0  0  0  0  0  0  0
  1 21  1  0  0  0  0
  2 26  1  0  0  0  0
  2 28  1  0  0  0  0
  3 29  1  0  0  0  0
  4 29  1  0  0  0  0
  5 29  1  0  0  0  0
  6 24  1  0  0  0  0
  6 27  1  0  0  0  0
  7 13  1  0  0  0  0
  7 14  1  0  0  0  0
  7 17  1  0  0  0  0
  8 25  1  0  0  0  0
  8 27  2  0  0  0  0
  9 28  1  0  0  0  0
  9 30  1  0  0  0  0
  9 33  1  0  0  0  0
 10 11  1  0  0  0  0
 10 28  2  0  0  0  0
 11 30  2  0  0  0  0
 12 34  1  0  0  0  0
 12 40  2  0  0  0  0
 13 15  1  0  0  0  0
 13 42  1  0  0  0  0
 13 43  1  0  0  0  0
 14 16  1  0  0  0  0
 14 44  1  0  0  0  0
 14 45  1  0  0  0  0
 15 18  1  0  0  0  0
 15 46  1  0  0  0  0
 15 47  1  0  0  0  0
 16 19  1  0  0  0  0
 16 48  1  0  0  0  0
 16 49  1  0  0  0  0
 17 20  1  0  0  0  0
 17 50  1  0  0  0  0
 17 51  1  0  0  0  0
 18 19  1  0  0  0  0
 18 21  2  0  0  0  0
 19 22  2  0  0  0  0
 20 23  1  0  0  0  0
 20 52  1  0  0  0  0
 20 53  1  0  0  0  0
 21 24  1  0  0  0  0
 22 25  1  0  0  0  0
 22 54  1  0  0  0  0
 23 26  1  0  0  0  0
 23 55  1  0  0  0  0
 23 56  1  0  0  0  0
 24 25  2  0  0  0  0
 26 57  1  0  0  0  0
 26 58  1  0  0  0  0
 27 29  1  0  0  0  0
 30 31  1  0  0  0  0
 31 32  2  0  0  0  0
 31 35  1  0  0  0  0
 32 34  1  0  0  0  0
 32 36  1  0  0  0  0
 33 59  1  0  0  0  0
 33 60  1  0  0  0  0
 33 61  1  0  0  0  0
 34 37  2  0  0  0  0
 35 38  2  0  0  0  0
 35 62  1  0  0  0  0
 36 39  2  0  0  0  0
 36 63  1  0  0  0  0
 37 38  1  0  0  0  0
 37 64  1  0  0  0  0
 38 65  1  0  0  0  0
 39 40  1  0  0  0  0
 39 66  1  0  0  0  0
 40 41  1  0  0  0  0
 41 67  1  0  0  0  0
 41 68  1  0  0  0  0
 41 69  1  0  0  0  0
M  END
> <PUBCHEM_COMPOUND_CID>
11657494

> <PUBCHEM_COMPOUND_CANONICALIZED>
1

> <PUBCHEM_CACTVS_COMPLEXITY>
877

> <PUBCHEM_CACTVS_HBOND_ACCEPTOR>
10

> <PUBCHEM_CACTVS_HBOND_DONOR>
0

> <PUBCHEM_CACTVS_ROTATABLE_BOND>
7

> <PUBCHEM_CACTVS_SUBSKEYS>
AAADceB7oYBAEAAAAAAAAAAAAAAAAWLAAAA8YIAABYAAAFix/gAAHwRIAAABrAzF3xSz1vcMFEiqA6dydASS2CtvYrQd2CG9bPiuLvLkvbuPOSjkzBPY65eY2fKOqAABUAESlABQAAKgAiUoAAAAAAAAAA==

> <PUBCHEM_IUPAC_OPENEYE_NAME>
10-bromo-7-[4-[[4-methyl-5-(2-methyl-5-quinolyl)-1,2,4-triazol-3-yl]sulfanyl]butyl]-2-(trifluoromethyl)-5,6,8,9-tetrahydrooxazolo[4,5-h][3]benzazepine

> <PUBCHEM_IUPAC_CAS_NAME>
10-bromo-7-[4-[[4-methyl-5-(2-methyl-5-quinolinyl)-1,2,4-triazol-3-yl]thio]butyl]-2-(trifluoromethyl)-5,6,8,9-tetrahydrooxazolo[4,5-h][3]benzazepine

> <PUBCHEM_IUPAC_NAME_MARKUP>
10-bromo-7-[4-[[4-methyl-5-(2-methylquinolin-5-yl)-1,2,4-triazol-3-yl]sulfanyl]butyl]-2-(trifluoromethyl)-5,6,8,9-tetrahydro-[1,3]oxazolo[4,5-h][3]benzazepine

> <PUBCHEM_IUPAC_NAME>
10-bromo-7-[4-[[4-methyl-5-(2-methylquinolin-5-yl)-1,2,4-triazol-3-yl]sulfanyl]butyl]-2-(trifluoromethyl)-5,6,8,9-tetrahydro-[1,3]oxazolo[4,5-h][3]benzazepine

> <PUBCHEM_IUPAC_SYSTEMATIC_NAME>
10-bromanyl-7-[4-[[4-methyl-5-(2-methylquinolin-5-yl)-1,2,4-triazol-3-yl]sulfanyl]butyl]-2-(trifluoromethyl)-5,6,8,9-tetrahydro-[1,3]oxazolo[4,5-h][3]benzazepine

> <PUBCHEM_IUPAC_TRADITIONAL_NAME>
10-bromo-7-[4-[[4-methyl-5-(2-methyl-5-quinolyl)-1,2,4-triazol-3-yl]thio]butyl]-2-(trifluoromethyl)-5,6,8,9-tetrahydrooxazolo[4,5-h][3]benzazepine

> <PUBCHEM_IUPAC_INCHI>
InChI=1S/C29H28BrF3N6OS/c1-17-8-9-20-21(6-5-7-22(20)34-17)26-36-37-28(38(26)2)41-15-4-3-12-39-13-10-18-16-23-25(24(30)19(18)11-14-39)40-27(35-23)29(31,32)33/h5-9,16H,3-4,10-15H2,1-2H3

> <PUBCHEM_IUPAC_INCHIKEY>
VTSMNPQRBXHIOD-UHFFFAOYSA-N

> <PUBCHEM_XLOGP3_AA>
6.8

> <PUBCHEM_EXACT_MASS>
644.11808

> <PUBCHEM_MOLECULAR_FORMULA>
C29H28BrF3N6OS

> <PUBCHEM_MOLECULAR_WEIGHT>
645.5

> <PUBCHEM_OPENEYE_CAN_SMILES>
CC1=NC2=CC=CC(=C2C=C1)C3=NN=C(N3C)SCCCCN4CCC5=CC6=C(C(=C5CC4)Br)OC(=N6)C(F)(F)F

> <PUBCHEM_OPENEYE_ISO_SMILES>
CC1=NC2=CC=CC(=C2C=C1)C3=NN=C(N3C)SCCCCN4CCC5=CC6=C(C(=C5CC4)Br)OC(=N6)C(F)(F)F

> <PUBCHEM_CACTVS_TPSA>
98.2

> <PUBCHEM_MONOISOTOPIC_WEIGHT>
644.11808

> <PUBCHEM_TOTAL_CHARGE>
0

> <PUBCHEM_HEAVY_ATOM_COUNT>
41

> <PUBCHEM_ATOM_DEF_STEREO_COUNT>
0

> <PUBCHEM_ATOM_UDEF_STEREO_COUNT>
0

> <PUBCHEM_BOND_DEF_STEREO_COUNT>
0

> <PUBCHEM_BOND_UDEF_STEREO_COUNT>
0

> <PUBCHEM_ISOTOPIC_ATOM_COUNT>
0

> <PUBCHEM_COMPONENT_COUNT>
1

> <PUBCHEM_CACTVS_TAUTO_COUNT>
-1

> <PUBCHEM_COORDINATE_TYPE>
1
5
255

> <PUBCHEM_BONDANNOTATIONS>
10  11  8
10  28  8
11  30  8
12  34  8
12  40  8
18  19  8
18  21  8
19  22  8
21  24  8
22  25  8
24  25  8
31  32  8
31  35  8
32  34  8
32  36  8
34  37  8
35  38  8
36  39  8
37  38  8
39  40  8
6  24  8
6  27  8
8  25  8
8  27  8
9  28  8
9  30  8

$$$$
