11812299
  -OEChem-09292322112D

 62 66  0     0  0  0  0  0  0999 V2000
    3.7841    4.2846    0.0000 O   0  0  0  0  0  0  0  0  0  0  0  0
    5.5161   -2.7154    0.0000 O   0  0  0  0  0  0  0  0  0  0  0  0
    2.0520   -2.7154    0.0000 O   0  0  0  0  0  0  0  0  0  0  0  0
    5.5161    1.2846    0.0000 N   0  0  0  0  0  0  0  0  0  0  0  0
    5.5161    3.2846    0.0000 N   0  0  0  0  0  0  0  0  0  0  0  0
    3.7841   -2.7154    0.0000 N   0  0  0  0  0  0  0  0  0  0  0  0
    4.6501    1.7846    0.0000 C   0  0  0  0  0  0  0  0  0  0  0  0
    6.3821    1.7846    0.0000 C   0  0  0  0  0  0  0  0  0  0  0  0
    4.6501    2.7846    0.0000 C   0  0  0  0  0  0  0  0  0  0  0  0
    6.3821    2.7846    0.0000 C   0  0  0  0  0  0  0  0  0  0  0  0
    5.5161    0.2846    0.0000 C   0  0  0  0  0  0  0  0  0  0  0  0
    4.6501   -0.2154    0.0000 C   0  0  0  0  0  0  0  0  0  0  0  0
    4.6501   -1.2154    0.0000 C   0  0  0  0  0  0  0  0  0  0  0  0
    5.5161    4.2846    0.0000 C   0  0  0  0  0  0  0  0  0  0  0  0
    3.7841   -1.7154    0.0000 C   0  0  0  0  0  0  0  0  0  0  0  0
    4.6501    4.7846    0.0000 C   0  0  0  0  0  0  0  0  0  0  0  0
    6.3821    4.7846    0.0000 C   0  0  0  0  0  0  0  0  0  0  0  0
    3.7841   -4.7154    0.0000 C   0  0  0  0  0  0  0  0  0  0  0  0
    4.6501   -3.2154    0.0000 C   0  0  0  0  0  0  0  0  0  0  0  0
    2.9180   -3.2154    0.0000 C   0  0  0  0  0  0  0  0  0  0  0  0
    4.6501   -4.2154    0.0000 C   0  0  0  0  0  0  0  0  0  0  0  0
    2.9180   -4.2154    0.0000 C   0  0  0  0  0  0  0  0  0  0  0  0
    3.8001   -5.7569    0.0000 C   0  0  0  0  0  0  0  0  0  0  0  0
    4.6501    5.7846    0.0000 C   0  0  0  0  0  0  0  0  0  0  0  0
    6.3821    5.7846    0.0000 C   0  0  0  0  0  0  0  0  0  0  0  0
    5.5601   -4.7222    0.0000 C   0  0  0  0  0  0  0  0  0  0  0  0
    2.0080   -4.7222    0.0000 C   0  0  0  0  0  0  0  0  0  0  0  0
    5.5161    6.2846    0.0000 C   0  0  0  0  0  0  0  0  0  0  0  0
    4.6660   -6.2846    0.0000 C   0  0  0  0  0  0  0  0  0  0  0  0
    2.9021   -6.2846    0.0000 C   0  0  0  0  0  0  0  0  0  0  0  0
    5.5681   -5.7638    0.0000 C   0  0  0  0  0  0  0  0  0  0  0  0
    2.0000   -5.7638    0.0000 C   0  0  0  0  0  0  0  0  0  0  0  0
    2.9180    4.7846    0.0000 C   0  0  0  0  0  0  0  0  0  0  0  0
    4.0395    1.8923    0.0000 H   0  0  0  0  0  0  0  0  0  0  0  0
    4.4380    1.2020    0.0000 H   0  0  0  0  0  0  0  0  0  0  0  0
    6.5942    1.2020    0.0000 H   0  0  0  0  0  0  0  0  0  0  0  0
    6.9927    1.8923    0.0000 H   0  0  0  0  0  0  0  0  0  0  0  0
    4.4380    3.3672    0.0000 H   0  0  0  0  0  0  0  0  0  0  0  0
    4.0395    2.6770    0.0000 H   0  0  0  0  0  0  0  0  0  0  0  0
    6.9927    2.6770    0.0000 H   0  0  0  0  0  0  0  0  0  0  0  0
    6.5942    3.3672    0.0000 H   0  0  0  0  0  0  0  0  0  0  0  0
    5.7282   -0.2980    0.0000 H   0  0  0  0  0  0  0  0  0  0  0  0
    6.1267    0.3923    0.0000 H   0  0  0  0  0  0  0  0  0  0  0  0
    4.4380    0.3672    0.0000 H   0  0  0  0  0  0  0  0  0  0  0  0
    4.0395   -0.3230    0.0000 H   0  0  0  0  0  0  0  0  0  0  0  0
    4.8621   -1.7980    0.0000 H   0  0  0  0  0  0  0  0  0  0  0  0
    5.2607   -1.1077    0.0000 H   0  0  0  0  0  0  0  0  0  0  0  0
    3.5720   -1.1328    0.0000 H   0  0  0  0  0  0  0  0  0  0  0  0
    3.1735   -1.8230    0.0000 H   0  0  0  0  0  0  0  0  0  0  0  0
    6.9191    4.4746    0.0000 H   0  0  0  0  0  0  0  0  0  0  0  0
    4.1132    6.0946    0.0000 H   0  0  0  0  0  0  0  0  0  0  0  0
    6.9191    6.0946    0.0000 H   0  0  0  0  0  0  0  0  0  0  0  0
    6.0934   -4.4060    0.0000 H   0  0  0  0  0  0  0  0  0  0  0  0
    1.4747   -4.4060    0.0000 H   0  0  0  0  0  0  0  0  0  0  0  0
    5.5161    6.9046    0.0000 H   0  0  0  0  0  0  0  0  0  0  0  0
    4.6587   -6.9046    0.0000 H   0  0  0  0  0  0  0  0  0  0  0  0
    2.9045   -6.9046    0.0000 H   0  0  0  0  0  0  0  0  0  0  0  0
    6.1062   -6.0717    0.0000 H   0  0  0  0  0  0  0  0  0  0  0  0
    1.4619   -6.0717    0.0000 H   0  0  0  0  0  0  0  0  0  0  0  0
    3.2280    5.3216    0.0000 H   0  0  0  0  0  0  0  0  0  0  0  0
    2.3811    5.0946    0.0000 H   0  0  0  0  0  0  0  0  0  0  0  0
    2.6080    4.2477    0.0000 H   0  0  0  0  0  0  0  0  0  0  0  0
  1 16  1  0  0  0  0
  1 33  1  0  0  0  0
  2 19  2  0  0  0  0
  3 20  2  0  0  0  0
  4  7  1  0  0  0  0
  4  8  1  0  0  0  0
  4 11  1  0  0  0  0
  5  9  1  0  0  0  0
  5 10  1  0  0  0  0
  5 14  1  0  0  0  0
  6 15  1  0  0  0  0
  6 19  1  0  0  0  0
  6 20  1  0  0  0  0
  7  9  1  0  0  0  0
  7 34  1  0  0  0  0
  7 35  1  0  0  0  0
  8 10  1  0  0  0  0
  8 36  1  0  0  0  0
  8 37  1  0  0  0  0
  9 38  1  0  0  0  0
  9 39  1  0  0  0  0
 10 40  1  0  0  0  0
 10 41  1  0  0  0  0
 11 12  1  0  0  0  0
 11 42  1  0  0  0  0
 11 43  1  0  0  0  0
 12 13  1  0  0  0  0
 12 44  1  0  0  0  0
 12 45  1  0  0  0  0
 13 15  1  0  0  0  0
 13 46  1  0  0  0  0
 13 47  1  0  0  0  0
 14 16  1  0  0  0  0
 14 17  2  0  0  0  0
 15 48  1  0  0  0  0
 15 49  1  0  0  0  0
 16 24  2  0  0  0  0
 17 25  1  0  0  0  0
 17 50  1  0  0  0  0
 18 21  1  0  0  0  0
 18 22  1  0  0  0  0
 18 23  2  0  0  0  0
 19 21  1  0  0  0  0
 20 22  1  0  0  0  0
 21 26  2  0  0  0  0
 22 27  2  0  0  0  0
 23 29  1  0  0  0  0
 23 30  1  0  0  0  0
 24 28  1  0  0  0  0
 24 51  1  0  0  0  0
 25 28  2  0  0  0  0
 25 52  1  0  0  0  0
 26 31  1  0  0  0  0
 26 53  1  0  0  0  0
 27 32  1  0  0  0  0
 27 54  1  0  0  0  0
 28 55  1  0  0  0  0
 29 31  2  0  0  0  0
 29 56  1  0  0  0  0
 30 32  2  0  0  0  0
 30 57  1  0  0  0  0
 31 58  1  0  0  0  0
 32 59  1  0  0  0  0
 33 60  1  0  0  0  0
 33 61  1  0  0  0  0
 33 62  1  0  0  0  0
M  END
> <PUBCHEM_COMPOUND_CID>
11812299

> <PUBCHEM_COMPOUND_CANONICALIZED>
1

> <PUBCHEM_CACTVS_COMPLEXITY>
662

> <PUBCHEM_CACTVS_HBOND_ACCEPTOR>
5

> <PUBCHEM_CACTVS_HBOND_DONOR>
0

> <PUBCHEM_CACTVS_ROTATABLE_BOND>
7

> <PUBCHEM_CACTVS_SUBSKEYS>
AAADceB7MAAAAAAAAAAAAAAAAAAAAAAAAAA8eMECAAAAAADxVAAAHgAAAAAADAzBmAYyxsMABACIAiVSUACCCAAlIgAIiAEPbMgOZjLEtZuVMShkxjHY6YeYy8COgAACAAAQEAAAAAQAACAgAAAAAAAAAA==

> <PUBCHEM_IUPAC_OPENEYE_NAME>
2-[4-[4-(2-methoxyphenyl)piperazin-1-yl]butyl]benzo[de]isoquinoline-1,3-dione

> <PUBCHEM_IUPAC_CAS_NAME>
2-[4-[4-(2-methoxyphenyl)-1-piperazinyl]butyl]benzo[de]isoquinoline-1,3-dione

> <PUBCHEM_IUPAC_NAME_MARKUP>
2-[4-[4-(2-methoxyphenyl)piperazin-1-yl]butyl]benzo[de]isoquinoline-1,3-dione

> <PUBCHEM_IUPAC_NAME>
2-[4-[4-(2-methoxyphenyl)piperazin-1-yl]butyl]benzo[de]isoquinoline-1,3-dione

> <PUBCHEM_IUPAC_SYSTEMATIC_NAME>
2-[4-[4-(2-methoxyphenyl)piperazin-1-yl]butyl]benzo[de]isoquinoline-1,3-dione

> <PUBCHEM_IUPAC_TRADITIONAL_NAME>
2-[4-[4-(2-methoxyphenyl)piperazino]butyl]benzo[de]isoquinoline-1,3-quinone

> <PUBCHEM_IUPAC_INCHI>
InChI=1S/C27H29N3O3/c1-33-24-13-3-2-12-23(24)29-18-16-28(17-19-29)14-4-5-15-30-26(31)21-10-6-8-20-9-7-11-22(25(20)21)27(30)32/h2-3,6-13H,4-5,14-19H2,1H3

> <PUBCHEM_IUPAC_INCHIKEY>
GNCURQFERCHEMV-UHFFFAOYSA-N

> <PUBCHEM_XLOGP3_AA>
4.5

> <PUBCHEM_EXACT_MASS>
443.22089180

> <PUBCHEM_MOLECULAR_FORMULA>
C27H29N3O3

> <PUBCHEM_MOLECULAR_WEIGHT>
443.5

> <PUBCHEM_OPENEYE_CAN_SMILES>
COC1=CC=CC=C1N2CCN(CC2)CCCCN3C(=O)C4=CC=CC5=C4C(=CC=C5)C3=O

> <PUBCHEM_OPENEYE_ISO_SMILES>
COC1=CC=CC=C1N2CCN(CC2)CCCCN3C(=O)C4=CC=CC5=C4C(=CC=C5)C3=O

> <PUBCHEM_CACTVS_TPSA>
53.1

> <PUBCHEM_MONOISOTOPIC_WEIGHT>
443.22089180

> <PUBCHEM_TOTAL_CHARGE>
0

> <PUBCHEM_HEAVY_ATOM_COUNT>
33

> <PUBCHEM_ATOM_DEF_STEREO_COUNT>
0

> <PUBCHEM_ATOM_UDEF_STEREO_COUNT>
0

> <PUBCHEM_BOND_DEF_STEREO_COUNT>
0

> <PUBCHEM_BOND_UDEF_STEREO_COUNT>
0

> <PUBCHEM_ISOTOPIC_ATOM_COUNT>
0

> <PUBCHEM_COMPONENT_COUNT>
1

> <PUBCHEM_CACTVS_TAUTO_COUNT>
-1

> <PUBCHEM_COORDINATE_TYPE>
1
5
255

> <PUBCHEM_BONDANNOTATIONS>
14  16  8
14  17  8
16  24  8
17  25  8
18  21  8
18  22  8
18  23  8
21  26  8
22  27  8
23  29  8
23  30  8
24  28  8
25  28  8
26  31  8
27  32  8
29  31  8
30  32  8

$$$$
