21973550
  -OEChem-09292322222D

 62 65  0     1  0  0  0  0  0999 V2000
    3.7320    0.4606    0.0000 S   0  0  0  0  0  0  0  0  0  0  0  0
    2.0000    1.4606    0.0000 F   0  0  0  0  0  0  0  0  0  0  0  0
    2.3660    0.0946    0.0000 F   0  0  0  0  0  0  0  0  0  0  0  0
    3.3660    1.8267    0.0000 F   0  0  0  0  0  0  0  0  0  0  0  0
    4.5981   -0.0394    0.0000 O   0  0  0  0  0  0  0  0  0  0  0  0
    3.2320   -0.4054    0.0000 O   0  0  0  0  0  0  0  0  0  0  0  0
    4.2320    1.3267    0.0000 O   0  0  0  0  0  0  0  0  0  0  0  0
   14.1961    1.4198    0.0000 O   0  0  0  0  0  0  0  0  0  0  0  0
    8.9962    0.4398    0.0000 N   0  0  3  0  0  0  0  0  0  0  0  0
   13.3243   -0.0769    0.0000 N   0  0  0  0  0  0  0  0  0  0  0  0
   19.4616   -1.4053    0.0000 N   0  0  0  0  0  0  0  0  0  0  0  0
    8.9962    1.4815    0.0000 C   0  0  0  0  0  0  0  0  0  0  0  0
    8.0901   -0.0740    0.0000 C   0  0  0  0  0  0  0  0  0  0  0  0
    8.0901    1.9953    0.0000 C   0  0  0  0  0  0  0  0  0  0  0  0
    9.8602   -0.0635    0.0000 C   0  0  0  0  0  0  0  0  0  0  0  0
    7.1962    0.4606    0.0000 C   0  0  0  0  0  0  0  0  0  0  0  0
    7.1962    1.4606    0.0000 C   0  0  0  0  0  0  0  0  0  0  0  0
   10.7282    0.4332    0.0000 C   0  0  0  0  0  0  0  0  0  0  0  0
   11.5923   -0.0702    0.0000 C   0  0  0  0  0  0  0  0  0  0  0  0
    6.3301   -0.0394    0.0000 C   0  0  0  0  0  0  0  0  0  0  0  0
    6.3301    1.9606    0.0000 C   0  0  0  0  0  0  0  0  0  0  0  0
    5.4641    0.4606    0.0000 C   0  0  0  0  0  0  0  0  0  0  0  0
   12.4602    0.4265    0.0000 C   0  0  0  0  0  0  0  0  0  0  0  0
    5.4641    1.4606    0.0000 C   0  0  0  0  0  0  0  0  0  0  0  0
   14.1923    0.4198    0.0000 C   0  0  0  0  0  0  0  0  0  0  0  0
    2.8660    0.9606    0.0000 C   0  0  0  0  0  0  0  0  0  0  0  0
   15.0564   -0.0835    0.0000 C   0  0  0  0  0  0  0  0  0  0  0  0
   18.5204   -0.0969    0.0000 C   0  0  0  0  0  0  0  0  0  0  0  0
   16.7884   -0.0902    0.0000 C   0  0  0  0  0  0  0  0  0  0  0  0
   18.5166   -1.0969    0.0000 C   0  0  0  0  0  0  0  0  0  0  0  0
   15.9243    0.4131    0.0000 C   0  0  0  0  0  0  0  0  0  0  0  0
   17.6564    0.4065    0.0000 C   0  0  0  0  0  0  0  0  0  0  0  0
   16.7845   -1.0902    0.0000 C   0  0  0  0  0  0  0  0  0  0  0  0
   17.6486   -1.5935    0.0000 C   0  0  0  0  0  0  0  0  0  0  0  0
   19.4678    0.2042    0.0000 C   0  0  0  0  0  0  0  0  0  0  0  0
   20.0483   -0.6028    0.0000 C   0  0  0  0  0  0  0  0  0  0  0  0
    9.6070    1.3754    0.0000 H   0  0  0  0  0  0  0  0  0  0  0  0
    9.2052    2.0652    0.0000 H   0  0  0  0  0  0  0  0  0  0  0  0
    7.6855   -0.5438    0.0000 H   0  0  0  0  0  0  0  0  0  0  0  0
    8.4837   -0.5530    0.0000 H   0  0  0  0  0  0  0  0  0  0  0  0
    8.4837    2.4743    0.0000 H   0  0  0  0  0  0  0  0  0  0  0  0
    7.6855    2.4651    0.0000 H   0  0  0  0  0  0  0  0  0  0  0  0
    9.4599   -0.5369    0.0000 H   0  0  0  0  0  0  0  0  0  0  0  0
   10.2569   -0.5400    0.0000 H   0  0  0  0  0  0  0  0  0  0  0  0
   11.1286    0.9066    0.0000 H   0  0  0  0  0  0  0  0  0  0  0  0
   10.3315    0.9096    0.0000 H   0  0  0  0  0  0  0  0  0  0  0  0
   11.1919   -0.5436    0.0000 H   0  0  0  0  0  0  0  0  0  0  0  0
   11.9890   -0.5467    0.0000 H   0  0  0  0  0  0  0  0  0  0  0  0
    6.3301   -0.6594    0.0000 H   0  0  0  0  0  0  0  0  0  0  0  0
    6.3301    2.5806    0.0000 H   0  0  0  0  0  0  0  0  0  0  0  0
   12.8606    0.8999    0.0000 H   0  0  0  0  0  0  0  0  0  0  0  0
   12.0635    0.9030    0.0000 H   0  0  0  0  0  0  0  0  0  0  0  0
    4.9272    1.7706    0.0000 H   0  0  0  0  0  0  0  0  0  0  0  0
   13.3219   -0.6968    0.0000 H   0  0  0  0  0  0  0  0  0  0  0  0
   15.0540   -0.7035    0.0000 H   0  0  0  0  0  0  0  0  0  0  0  0
   15.9267    1.0331    0.0000 H   0  0  0  0  0  0  0  0  0  0  0  0
   17.6587    1.0264    0.0000 H   0  0  0  0  0  0  0  0  0  0  0  0
   16.2464   -1.3981    0.0000 H   0  0  0  0  0  0  0  0  0  0  0  0
   17.6463   -2.2135    0.0000 H   0  0  0  0  0  0  0  0  0  0  0  0
   19.6627    0.7928    0.0000 H   0  0  0  0  0  0  0  0  0  0  0  0
   19.6520   -1.9953    0.0000 H   0  0  0  0  0  0  0  0  0  0  0  0
   20.6683   -0.6052    0.0000 H   0  0  0  0  0  0  0  0  0  0  0  0
  1  5  1  0  0  0  0
  1  6  2  0  0  0  0
  1  7  2  0  0  0  0
  1 26  1  0  0  0  0
  2 26  1  0  0  0  0
  3 26  1  0  0  0  0
  4 26  1  0  0  0  0
  5 22  1  0  0  0  0
  8 25  2  0  0  0  0
  9 12  1  0  0  0  0
  9 13  1  0  0  0  0
  9 15  1  0  0  0  0
 10 23  1  0  0  0  0
 10 25  1  0  0  0  0
 10 54  1  0  0  0  0
 11 30  1  0  0  0  0
 11 36  1  0  0  0  0
 11 61  1  0  0  0  0
 12 14  1  0  0  0  0
 12 37  1  0  0  0  0
 12 38  1  0  0  0  0
 13 16  1  0  0  0  0
 13 39  1  0  0  0  0
 13 40  1  0  0  0  0
 14 17  1  0  0  0  0
 14 41  1  0  0  0  0
 14 42  1  0  0  0  0
 15 18  1  0  0  0  0
 15 43  1  0  0  0  0
 15 44  1  0  0  0  0
 16 17  2  0  0  0  0
 16 20  1  0  0  0  0
 17 21  1  0  0  0  0
 18 19  1  0  0  0  0
 18 45  1  0  0  0  0
 18 46  1  0  0  0  0
 19 23  1  0  0  0  0
 19 47  1  0  0  0  0
 19 48  1  0  0  0  0
 20 22  2  0  0  0  0
 20 49  1  0  0  0  0
 21 24  2  0  0  0  0
 21 50  1  0  0  0  0
 22 24  1  0  0  0  0
 23 51  1  0  0  0  0
 23 52  1  0  0  0  0
 24 53  1  0  0  0  0
 25 27  1  0  0  0  0
 27 31  2  0  0  0  0
 27 55  1  0  0  0  0
 28 30  2  0  0  0  0
 28 32  1  0  0  0  0
 28 35  1  0  0  0  0
 29 31  1  0  0  0  0
 29 32  2  0  0  0  0
 29 33  1  0  0  0  0
 30 34  1  0  0  0  0
 31 56  1  0  0  0  0
 32 57  1  0  0  0  0
 33 34  2  0  0  0  0
 33 58  1  0  0  0  0
 34 59  1  0  0  0  0
 35 36  2  0  0  0  0
 35 60  1  0  0  0  0
 36 62  1  0  0  0  0
M  END
> <PUBCHEM_COMPOUND_CID>
21973550

> <PUBCHEM_COMPOUND_CANONICALIZED>
1

> <PUBCHEM_CACTVS_COMPLEXITY>
877

> <PUBCHEM_CACTVS_HBOND_ACCEPTOR>
8

> <PUBCHEM_CACTVS_HBOND_DONOR>
2

> <PUBCHEM_CACTVS_ROTATABLE_BOND>
9

> <PUBCHEM_CACTVS_SUBSKEYS>
AAADceB7OYBAAAAAAAAAAAAAAAAAAWAAAAA8YIAAAAAAAFix9AAAHwQQAAAADAzBnhQ8xvPJkAKoAzV3VHCCgCAxIiAI2aA+bNgIJuLAkZOEMAhk1hHIyYewwNAOqAADAAASAABQAAYAACQAAAAAAAAAAA==

> <PUBCHEM_IUPAC_OPENEYE_NAME>
[2-[4-[[(E)-3-(1H-indol-5-yl)prop-2-enoyl]amino]butyl]-3,4-dihydro-1H-isoquinolin-7-yl] trifluoromethanesulfonate

> <PUBCHEM_IUPAC_CAS_NAME>
trifluoromethanesulfonic acid [2-[4-[[(E)-3-(1H-indol-5-yl)-1-oxoprop-2-enyl]amino]butyl]-3,4-dihydro-1H-isoquinolin-7-yl] ester

> <PUBCHEM_IUPAC_NAME_MARKUP>
[2-[4-[[(<I>E</I>)-3-(1<I>H</I>-indol-5-yl)prop-2-enoyl]amino]butyl]-3,4-dihydro-1<I>H</I>-isoquinolin-7-yl] trifluoromethanesulfonate

> <PUBCHEM_IUPAC_NAME>
[2-[4-[[(E)-3-(1H-indol-5-yl)prop-2-enoyl]amino]butyl]-3,4-dihydro-1H-isoquinolin-7-yl] trifluoromethanesulfonate

> <PUBCHEM_IUPAC_SYSTEMATIC_NAME>
[2-[4-[[(E)-3-(1H-indol-5-yl)prop-2-enoyl]amino]butyl]-3,4-dihydro-1H-isoquinolin-7-yl] tris(fluoranyl)methanesulfonate

> <PUBCHEM_IUPAC_TRADITIONAL_NAME>
trifluoromethanesulfonic acid [2-[4-[[(E)-3-(1H-indol-5-yl)acryloyl]amino]butyl]-3,4-dihydro-1H-isoquinolin-7-yl] ester

> <PUBCHEM_IUPAC_INCHI>
InChI=1S/C25H26F3N3O4S/c26-25(27,28)36(33,34)35-22-6-5-19-10-14-31(17-21(19)16-22)13-2-1-11-30-24(32)8-4-18-3-7-23-20(15-18)9-12-29-23/h3-9,12,15-16,29H,1-2,10-11,13-14,17H2,(H,30,32)/b8-4+

> <PUBCHEM_IUPAC_INCHIKEY>
MFVZCUGAIPDSAL-XBXARRHUSA-N

> <PUBCHEM_XLOGP3_AA>
4.8

> <PUBCHEM_EXACT_MASS>
521.15961198

> <PUBCHEM_MOLECULAR_FORMULA>
C25H26F3N3O4S

> <PUBCHEM_MOLECULAR_WEIGHT>
521.6

> <PUBCHEM_OPENEYE_CAN_SMILES>
C1CN(CC2=C1C=CC(=C2)OS(=O)(=O)C(F)(F)F)CCCCNC(=O)C=CC3=CC4=C(C=C3)NC=C4

> <PUBCHEM_OPENEYE_ISO_SMILES>
C1CN(CC2=C1C=CC(=C2)OS(=O)(=O)C(F)(F)F)CCCCNC(=O)/C=C/C3=CC4=C(C=C3)NC=C4

> <PUBCHEM_CACTVS_TPSA>
99.9

> <PUBCHEM_MONOISOTOPIC_WEIGHT>
521.15961198

> <PUBCHEM_TOTAL_CHARGE>
0

> <PUBCHEM_HEAVY_ATOM_COUNT>
36

> <PUBCHEM_ATOM_DEF_STEREO_COUNT>
0

> <PUBCHEM_ATOM_UDEF_STEREO_COUNT>
0

> <PUBCHEM_BOND_DEF_STEREO_COUNT>
1

> <PUBCHEM_BOND_UDEF_STEREO_COUNT>
0

> <PUBCHEM_ISOTOPIC_ATOM_COUNT>
0

> <PUBCHEM_COMPONENT_COUNT>
1

> <PUBCHEM_CACTVS_TAUTO_COUNT>
-1

> <PUBCHEM_COORDINATE_TYPE>
1
5
255

> <PUBCHEM_BONDANNOTATIONS>
11  30  8
11  36  8
16  17  8
16  20  8
17  21  8
20  22  8
21  24  8
22  24  8
28  30  8
28  32  8
28  35  8
29  32  8
29  33  8
30  34  8
33  34  8
35  36  8

$$$$
