46882049
  -OEChem-09292322022D

 49 51  0     0  0  0  0  0  0999 V2000
    3.0911   -0.2366    0.0000 O   0  0  0  0  0  0  0  0  0  0  0  0
    5.7172    2.5421    0.0000 N   0  0  0  0  0  0  0  0  0  0  0  0
    4.8511    0.0421    0.0000 N   0  0  0  0  0  0  0  0  0  0  0  0
    4.3511   -1.4967    0.0000 N   0  0  0  0  0  0  0  0  0  0  0  0
    4.8162    2.9760    0.0000 C   0  0  0  0  0  0  0  0  0  0  0  0
    6.6181    2.9760    0.0000 C   0  0  0  0  0  0  0  0  0  0  0  0
    5.7172    1.5421    0.0000 C   0  0  0  0  0  0  0  0  0  0  0  0
    4.5937    3.9509    0.0000 C   0  0  0  0  0  0  0  0  0  0  0  0
    6.8407    3.9509    0.0000 C   0  0  0  0  0  0  0  0  0  0  0  0
    5.2172    4.7328    0.0000 C   0  0  0  0  0  0  0  0  0  0  0  0
    6.2172    4.7328    0.0000 C   0  0  0  0  0  0  0  0  0  0  0  0
    4.8511    1.0421    0.0000 C   0  0  0  0  0  0  0  0  0  0  0  0
    5.6602   -0.5457    0.0000 C   0  0  0  0  0  0  0  0  0  0  0  0
    5.3511   -1.4967    0.0000 C   0  0  0  0  0  0  0  0  0  0  0  0
    4.0421   -0.5457    0.0000 C   0  0  0  0  0  0  0  0  0  0  0  0
    3.7634   -2.3057    0.0000 C   0  0  0  0  0  0  0  0  0  0  0  0
    4.1701   -3.2193    0.0000 C   0  0  0  0  0  0  0  0  0  0  0  0
    2.7688   -2.2012    0.0000 C   0  0  0  0  0  0  0  0  0  0  0  0
    3.5823   -4.0283    0.0000 C   0  0  0  0  0  0  0  0  0  0  0  0
    2.1810   -3.0102    0.0000 C   0  0  0  0  0  0  0  0  0  0  0  0
    2.5878   -3.9238    0.0000 C   0  0  0  0  0  0  0  0  0  0  0  0
    2.0000   -4.7328    0.0000 C   0  0  0  0  0  0  0  0  0  0  0  0
    4.1962    2.9760    0.0000 H   0  0  0  0  0  0  0  0  0  0  0  0
    4.6782    2.3716    0.0000 H   0  0  0  0  0  0  0  0  0  0  0  0
    6.7561    2.3716    0.0000 H   0  0  0  0  0  0  0  0  0  0  0  0
    7.2381    2.9760    0.0000 H   0  0  0  0  0  0  0  0  0  0  0  0
    5.9292    0.9595    0.0000 H   0  0  0  0  0  0  0  0  0  0  0  0
    6.3278    1.6498    0.0000 H   0  0  0  0  0  0  0  0  0  0  0  0
    4.2071    4.4357    0.0000 H   0  0  0  0  0  0  0  0  0  0  0  0
    4.0351    3.6819    0.0000 H   0  0  0  0  0  0  0  0  0  0  0  0
    7.3993    3.6819    0.0000 H   0  0  0  0  0  0  0  0  0  0  0  0
    7.2272    4.4357    0.0000 H   0  0  0  0  0  0  0  0  0  0  0  0
    5.3551    5.3372    0.0000 H   0  0  0  0  0  0  0  0  0  0  0  0
    4.6586    5.0018    0.0000 H   0  0  0  0  0  0  0  0  0  0  0  0
    6.7758    5.0018    0.0000 H   0  0  0  0  0  0  0  0  0  0  0  0
    6.0792    5.3372    0.0000 H   0  0  0  0  0  0  0  0  0  0  0  0
    4.6391    1.6247    0.0000 H   0  0  0  0  0  0  0  0  0  0  0  0
    4.2406    0.9345    0.0000 H   0  0  0  0  0  0  0  0  0  0  0  0
    6.2266   -0.7978    0.0000 H   0  0  0  0  0  0  0  0  0  0  0  0
    5.9702   -0.0087    0.0000 H   0  0  0  0  0  0  0  0  0  0  0  0
    5.2863   -2.1133    0.0000 H   0  0  0  0  0  0  0  0  0  0  0  0
    5.9576   -1.6256    0.0000 H   0  0  0  0  0  0  0  0  0  0  0  0
    4.7867   -3.2841    0.0000 H   0  0  0  0  0  0  0  0  0  0  0  0
    2.5167   -1.6348    0.0000 H   0  0  0  0  0  0  0  0  0  0  0  0
    3.8345   -4.5947    0.0000 H   0  0  0  0  0  0  0  0  0  0  0  0
    1.5644   -2.9454    0.0000 H   0  0  0  0  0  0  0  0  0  0  0  0
    1.4984   -4.3684    0.0000 H   0  0  0  0  0  0  0  0  0  0  0  0
    1.6356   -5.2344    0.0000 H   0  0  0  0  0  0  0  0  0  0  0  0
    2.5016   -5.0972    0.0000 H   0  0  0  0  0  0  0  0  0  0  0  0
  1 15  2  0  0  0  0
  2  5  1  0  0  0  0
  2  6  1  0  0  0  0
  2  7  1  0  0  0  0
  3 12  1  0  0  0  0
  3 13  1  0  0  0  0
  3 15  1  0  0  0  0
  4 14  1  0  0  0  0
  4 15  1  0  0  0  0
  4 16  1  0  0  0  0
  5  8  1  0  0  0  0
  5 23  1  0  0  0  0
  5 24  1  0  0  0  0
  6  9  1  0  0  0  0
  6 25  1  0  0  0  0
  6 26  1  0  0  0  0
  7 12  1  0  0  0  0
  7 27  1  0  0  0  0
  7 28  1  0  0  0  0
  8 10  1  0  0  0  0
  8 29  1  0  0  0  0
  8 30  1  0  0  0  0
  9 11  1  0  0  0  0
  9 31  1  0  0  0  0
  9 32  1  0  0  0  0
 10 11  1  0  0  0  0
 10 33  1  0  0  0  0
 10 34  1  0  0  0  0
 11 35  1  0  0  0  0
 11 36  1  0  0  0  0
 12 37  1  0  0  0  0
 12 38  1  0  0  0  0
 13 14  1  0  0  0  0
 13 39  1  0  0  0  0
 13 40  1  0  0  0  0
 14 41  1  0  0  0  0
 14 42  1  0  0  0  0
 16 17  2  0  0  0  0
 16 18  1  0  0  0  0
 17 19  1  0  0  0  0
 17 43  1  0  0  0  0
 18 20  2  0  0  0  0
 18 44  1  0  0  0  0
 19 21  2  0  0  0  0
 19 45  1  0  0  0  0
 20 21  1  0  0  0  0
 20 46  1  0  0  0  0
 21 22  1  0  0  0  0
 22 47  1  0  0  0  0
 22 48  1  0  0  0  0
 22 49  1  0  0  0  0
M  END
> <PUBCHEM_COMPOUND_CID>
46882049

> <PUBCHEM_COMPOUND_CANONICALIZED>
1

> <PUBCHEM_CACTVS_COMPLEXITY>
357

> <PUBCHEM_CACTVS_HBOND_ACCEPTOR>
2

> <PUBCHEM_CACTVS_HBOND_DONOR>
0

> <PUBCHEM_CACTVS_ROTATABLE_BOND>
4

> <PUBCHEM_CACTVS_SUBSKEYS>
AAADceB7IAAAAAAAAAAAAAAAAAAAAWAAAAAwAAAABYAAAAABAAAAHgAAAAAADAjBGAQzwIMAAACIAiRCUACCAAAhAgAIiAAIZIiIYCLAkZGUIAhohgLIyCcQgAAOCAAAAAAAAAAQAAAAAAAAAAAAAAAAAA==

> <PUBCHEM_IUPAC_OPENEYE_NAME>
1-[2-(azepan-1-yl)ethyl]-3-(p-tolyl)imidazolidin-2-one

> <PUBCHEM_IUPAC_CAS_NAME>
1-[2-(1-azepanyl)ethyl]-3-(4-methylphenyl)-2-imidazolidinone

> <PUBCHEM_IUPAC_NAME_MARKUP>
1-[2-(azepan-1-yl)ethyl]-3-(4-methylphenyl)imidazolidin-2-one

> <PUBCHEM_IUPAC_NAME>
1-[2-(azepan-1-yl)ethyl]-3-(4-methylphenyl)imidazolidin-2-one

> <PUBCHEM_IUPAC_SYSTEMATIC_NAME>
1-[2-(azepan-1-yl)ethyl]-3-(4-methylphenyl)imidazolidin-2-one

> <PUBCHEM_IUPAC_TRADITIONAL_NAME>
1-[2-(azepan-1-yl)ethyl]-3-(p-tolyl)-2-imidazolidinone

> <PUBCHEM_IUPAC_INCHI>
InChI=1S/C18H27N3O/c1-16-6-8-17(9-7-16)21-15-14-20(18(21)22)13-12-19-10-4-2-3-5-11-19/h6-9H,2-5,10-15H2,1H3

> <PUBCHEM_IUPAC_INCHIKEY>
INKAJKATDMQGKQ-UHFFFAOYSA-N

> <PUBCHEM_XLOGP3_AA>
2.7

> <PUBCHEM_EXACT_MASS>
301.215412493

> <PUBCHEM_MOLECULAR_FORMULA>
C18H27N3O

> <PUBCHEM_MOLECULAR_WEIGHT>
301.4

> <PUBCHEM_OPENEYE_CAN_SMILES>
CC1=CC=C(C=C1)N2CCN(C2=O)CCN3CCCCCC3

> <PUBCHEM_OPENEYE_ISO_SMILES>
CC1=CC=C(C=C1)N2CCN(C2=O)CCN3CCCCCC3

> <PUBCHEM_CACTVS_TPSA>
26.8

> <PUBCHEM_MONOISOTOPIC_WEIGHT>
301.215412493

> <PUBCHEM_TOTAL_CHARGE>
0

> <PUBCHEM_HEAVY_ATOM_COUNT>
22

> <PUBCHEM_ATOM_DEF_STEREO_COUNT>
0

> <PUBCHEM_ATOM_UDEF_STEREO_COUNT>
0

> <PUBCHEM_BOND_DEF_STEREO_COUNT>
0

> <PUBCHEM_BOND_UDEF_STEREO_COUNT>
0

> <PUBCHEM_ISOTOPIC_ATOM_COUNT>
0

> <PUBCHEM_COMPONENT_COUNT>
1

> <PUBCHEM_CACTVS_TAUTO_COUNT>
-1

> <PUBCHEM_COORDINATE_TYPE>
1
5
255

> <PUBCHEM_BONDANNOTATIONS>
16  17  8
16  18  8
17  19  8
18  20  8
19  21  8
20  21  8

$$$$
