137641944
  -OEChem-09292322062D

 57 61  0     1  0  0  0  0  0999 V2000
    2.9176    2.8663    0.0000 Cl  0  0  0  0  0  0  0  0  0  0  0  0
   14.5715   -0.6446    0.0000 F   0  0  0  0  0  0  0  0  0  0  0  0
   11.8031   -2.8663    0.0000 O   0  0  0  0  0  0  0  0  0  0  0  0
    4.6660   -1.1683    0.0000 O   0  0  0  0  0  0  0  0  0  0  0  0
    8.1301   -0.1683    0.0000 N   0  0  0  0  0  0  0  0  0  0  0  0
    3.8000    0.3317    0.0000 N   0  0  0  0  0  0  0  0  0  0  0  0
   10.8313   -2.6571    0.0000 N   0  0  0  0  0  0  0  0  0  0  0  0
    4.6660    1.8317    0.0000 N   0  0  0  0  0  0  0  0  0  0  0  0
    9.8622   -1.1683    0.0000 C   0  0  0  0  0  0  0  0  0  0  0  0
    8.9962   -1.6683    0.0000 C   0  0  0  0  0  0  0  0  0  0  0  0
    9.8622   -0.1683    0.0000 C   0  0  0  0  0  0  0  0  0  0  0  0
    8.1301   -1.1683    0.0000 C   0  0  0  0  0  0  0  0  0  0  0  0
    8.9962    0.3317    0.0000 C   0  0  0  0  0  0  0  0  0  0  0  0
    7.2641    0.3317    0.0000 C   0  0  0  0  0  0  0  0  0  0  0  0
   10.7282   -1.6683    0.0000 C   0  0  0  0  0  0  0  0  0  0  0  0
    6.3981   -0.1683    0.0000 C   0  0  0  0  0  0  0  0  0  0  0  0
    5.5321    0.3317    0.0000 C   0  0  0  0  0  0  0  0  0  0  0  0
    2.9061   -0.2030    0.0000 C   0  0  0  0  0  0  0  0  0  0  0  0
    2.0000    0.3109    0.0000 C   0  0  0  0  0  0  0  0  0  0  0  0
   11.6360   -1.2632    0.0000 C   0  0  0  0  0  0  0  0  0  0  0  0
    3.8000    1.3317    0.0000 C   0  0  0  0  0  0  0  0  0  0  0  0
    2.0000    1.3525    0.0000 C   0  0  0  0  0  0  0  0  0  0  0  0
    2.9061    1.8663    0.0000 C   0  0  3  0  0  0  0  0  0  0  0  0
    4.6660   -0.1683    0.0000 C   0  0  0  0  0  0  0  0  0  0  0  0
    5.5321    1.3317    0.0000 C   0  0  0  0  0  0  0  0  0  0  0  0
   12.3038   -2.0075    0.0000 C   0  0  0  0  0  0  0  0  0  0  0  0
   11.9467   -0.3127    0.0000 C   0  0  0  0  0  0  0  0  0  0  0  0
    6.3981    1.8317    0.0000 C   0  0  0  0  0  0  0  0  0  0  0  0
   13.2823   -1.8013    0.0000 C   0  0  0  0  0  0  0  0  0  0  0  0
   12.9252   -0.1065    0.0000 C   0  0  0  0  0  0  0  0  0  0  0  0
   13.5930   -0.8508    0.0000 C   0  0  0  0  0  0  0  0  0  0  0  0
    9.8622   -1.7883    0.0000 H   0  0  0  0  0  0  0  0  0  0  0  0
    8.5976   -2.1433    0.0000 H   0  0  0  0  0  0  0  0  0  0  0  0
    9.3947   -2.1433    0.0000 H   0  0  0  0  0  0  0  0  0  0  0  0
   10.4728   -0.2760    0.0000 H   0  0  0  0  0  0  0  0  0  0  0  0
   10.0742    0.4143    0.0000 H   0  0  0  0  0  0  0  0  0  0  0  0
    7.5196   -1.0607    0.0000 H   0  0  0  0  0  0  0  0  0  0  0  0
    7.9181   -1.7509    0.0000 H   0  0  0  0  0  0  0  0  0  0  0  0
    9.3947    0.8066    0.0000 H   0  0  0  0  0  0  0  0  0  0  0  0
    8.5976    0.8066    0.0000 H   0  0  0  0  0  0  0  0  0  0  0  0
    7.6626    0.8066    0.0000 H   0  0  0  0  0  0  0  0  0  0  0  0
    6.8656    0.8066    0.0000 H   0  0  0  0  0  0  0  0  0  0  0  0
    5.9996   -0.6433    0.0000 H   0  0  0  0  0  0  0  0  0  0  0  0
    6.7966   -0.6433    0.0000 H   0  0  0  0  0  0  0  0  0  0  0  0
    2.5124   -0.6820    0.0000 H   0  0  0  0  0  0  0  0  0  0  0  0
    3.3107   -0.6728    0.0000 H   0  0  0  0  0  0  0  0  0  0  0  0
    1.3891    0.4169    0.0000 H   0  0  0  0  0  0  0  0  0  0  0  0
    1.7909   -0.2728    0.0000 H   0  0  0  0  0  0  0  0  0  0  0  0
    1.7909    1.9362    0.0000 H   0  0  0  0  0  0  0  0  0  0  0  0
    1.3891    1.2464    0.0000 H   0  0  0  0  0  0  0  0  0  0  0  0
    2.3721    2.1815    0.0000 H   0  0  0  0  0  0  0  0  0  0  0  0
   11.5326    0.1488    0.0000 H   0  0  0  0  0  0  0  0  0  0  0  0
    6.7081    1.2947    0.0000 H   0  0  0  0  0  0  0  0  0  0  0  0
    6.9350    2.1417    0.0000 H   0  0  0  0  0  0  0  0  0  0  0  0
    6.0881    2.3686    0.0000 H   0  0  0  0  0  0  0  0  0  0  0  0
   13.6964   -2.2628    0.0000 H   0  0  0  0  0  0  0  0  0  0  0  0
   13.1178    0.4828    0.0000 H   0  0  0  0  0  0  0  0  0  0  0  0
  1 23  1  0  0  0  0
  2 31  1  0  0  0  0
  3  7  1  0  0  0  0
  3 26  1  0  0  0  0
  4 24  2  0  0  0  0
  5 12  1  0  0  0  0
  5 13  1  0  0  0  0
  5 14  1  0  0  0  0
  6 18  1  0  0  0  0
  6 21  1  0  0  0  0
  6 24  1  0  0  0  0
  7 15  2  0  0  0  0
  8 21  2  0  0  0  0
  8 25  1  0  0  0  0
  9 10  1  0  0  0  0
  9 11  1  0  0  0  0
  9 15  1  0  0  0  0
  9 32  1  0  0  0  0
 10 12  1  0  0  0  0
 10 33  1  0  0  0  0
 10 34  1  0  0  0  0
 11 13  1  0  0  0  0
 11 35  1  0  0  0  0
 11 36  1  0  0  0  0
 12 37  1  0  0  0  0
 12 38  1  0  0  0  0
 13 39  1  0  0  0  0
 13 40  1  0  0  0  0
 14 16  1  0  0  0  0
 14 41  1  0  0  0  0
 14 42  1  0  0  0  0
 15 20  1  0  0  0  0
 16 17  1  0  0  0  0
 16 43  1  0  0  0  0
 16 44  1  0  0  0  0
 17 24  1  0  0  0  0
 17 25  2  0  0  0  0
 18 19  1  0  0  0  0
 18 45  1  0  0  0  0
 18 46  1  0  0  0  0
 19 22  1  0  0  0  0
 19 47  1  0  0  0  0
 19 48  1  0  0  0  0
 20 26  2  0  0  0  0
 20 27  1  0  0  0  0
 21 23  1  0  0  0  0
 22 23  1  0  0  0  0
 22 49  1  0  0  0  0
 22 50  1  0  0  0  0
 23 51  1  0  0  0  0
 25 28  1  0  0  0  0
 26 29  1  0  0  0  0
 27 30  2  0  0  0  0
 27 52  1  0  0  0  0
 28 53  1  0  0  0  0
 28 54  1  0  0  0  0
 28 55  1  0  0  0  0
 29 31  2  0  0  0  0
 29 56  1  0  0  0  0
 30 31  1  0  0  0  0
 30 57  1  0  0  0  0
M  END
> <PUBCHEM_COMPOUND_CID>
137641944

> <PUBCHEM_COMPOUND_CANONICALIZED>
1

> <PUBCHEM_CACTVS_COMPLEXITY>
767

> <PUBCHEM_CACTVS_HBOND_ACCEPTOR>
6

> <PUBCHEM_CACTVS_HBOND_DONOR>
0

> <PUBCHEM_CACTVS_ROTATABLE_BOND>
4

> <PUBCHEM_CACTVS_SUBSKEYS>
AAADceB7sQAEAAAAAAAAAAAAAAAAAWAAAAA8WIEAAAAAAFiB8AAAHwIEAAAADQ/BnkwzhtMQAACpA6dydgCCAAEkIAApmCE+TtoIJrqBnZPEMYBmxhmIycecyOCOAAAAAAAIAAAAAAAAABAAAAAAAAAAAA==

> <PUBCHEM_IUPAC_OPENEYE_NAME>
9-chloro-3-[2-[4-(6-fluoro-1,2-benzoxazol-3-yl)-1-piperidyl]ethyl]-2-methyl-6,7,8,9-tetrahydropyrido[1,2-a]pyrimidin-4-one

> <PUBCHEM_IUPAC_CAS_NAME>
9-chloro-3-[2-[4-(6-fluoro-1,2-benzoxazol-3-yl)-1-piperidinyl]ethyl]-2-methyl-6,7,8,9-tetrahydropyrido[1,2-a]pyrimidin-4-one

> <PUBCHEM_IUPAC_NAME_MARKUP>
9-chloro-3-[2-[4-(6-fluoro-1,2-benzoxazol-3-yl)piperidin-1-yl]ethyl]-2-methyl-6,7,8,9-tetrahydropyrido[1,2-a]pyrimidin-4-one

> <PUBCHEM_IUPAC_NAME>
9-chloro-3-[2-[4-(6-fluoro-1,2-benzoxazol-3-yl)piperidin-1-yl]ethyl]-2-methyl-6,7,8,9-tetrahydropyrido[1,2-a]pyrimidin-4-one

> <PUBCHEM_IUPAC_SYSTEMATIC_NAME>
9-chloranyl-3-[2-[4-(6-fluoranyl-1,2-benzoxazol-3-yl)piperidin-1-yl]ethyl]-2-methyl-6,7,8,9-tetrahydropyrido[1,2-a]pyrimidin-4-one

> <PUBCHEM_IUPAC_TRADITIONAL_NAME>
9-chloro-3-[2-[4-(6-fluoroindoxazen-3-yl)piperidino]ethyl]-2-methyl-6,7,8,9-tetrahydropyrido[1,2-a]pyrimidin-4-one

> <PUBCHEM_IUPAC_INCHI>
InChI=1S/C23H26ClFN4O2/c1-14-17(23(30)29-9-2-3-19(24)22(29)26-14)8-12-28-10-6-15(7-11-28)21-18-5-4-16(25)13-20(18)31-27-21/h4-5,13,15,19H,2-3,6-12H2,1H3

> <PUBCHEM_IUPAC_INCHIKEY>
UFJJQNQMSPBYPJ-UHFFFAOYSA-N

> <PUBCHEM_XLOGP3_AA>
3.4

> <PUBCHEM_EXACT_MASS>
444.1728319

> <PUBCHEM_MOLECULAR_FORMULA>
C23H26ClFN4O2

> <PUBCHEM_MOLECULAR_WEIGHT>
444.9

> <PUBCHEM_OPENEYE_CAN_SMILES>
CC1=C(C(=O)N2CCCC(C2=N1)Cl)CCN3CCC(CC3)C4=NOC5=C4C=CC(=C5)F

> <PUBCHEM_OPENEYE_ISO_SMILES>
CC1=C(C(=O)N2CCCC(C2=N1)Cl)CCN3CCC(CC3)C4=NOC5=C4C=CC(=C5)F

> <PUBCHEM_CACTVS_TPSA>
61.9

> <PUBCHEM_MONOISOTOPIC_WEIGHT>
444.1728319

> <PUBCHEM_TOTAL_CHARGE>
0

> <PUBCHEM_HEAVY_ATOM_COUNT>
31

> <PUBCHEM_ATOM_DEF_STEREO_COUNT>
0

> <PUBCHEM_ATOM_UDEF_STEREO_COUNT>
1

> <PUBCHEM_BOND_DEF_STEREO_COUNT>
0

> <PUBCHEM_BOND_UDEF_STEREO_COUNT>
0

> <PUBCHEM_ISOTOPIC_ATOM_COUNT>
0

> <PUBCHEM_COMPONENT_COUNT>
1

> <PUBCHEM_CACTVS_TAUTO_COUNT>
-1

> <PUBCHEM_COORDINATE_TYPE>
1
5
255

> <PUBCHEM_BONDANNOTATIONS>
23  1  3
15  20  8
17  24  8
17  25  8
20  26  8
20  27  8
26  29  8
27  30  8
29  31  8
3  26  8
3  7  8
30  31  8
6  21  8
6  24  8
7  15  8
8  21  8
8  25  8

$$$$
