44436606
  -OEChem-09292322252D

 64 67  0     0  0  0  0  0  0999 V2000
    2.0000   -6.7500    0.0000 Cl  0  0  0  0  0  0  0  0  0  0  0  0
    2.0000   -8.7500    0.0000 Cl  0  0  0  0  0  0  0  0  0  0  0  0
    7.1962    0.2500    0.0000 O   0  0  0  0  0  0  0  0  0  0  0  0
    3.7320   -3.7500    0.0000 N   0  0  0  0  0  0  0  0  0  0  0  0
    3.7320   -5.7500    0.0000 N   0  0  0  0  0  0  0  0  0  0  0  0
    5.4641    0.2500    0.0000 N   0  0  0  0  0  0  0  0  0  0  0  0
    2.8660   -4.2500    0.0000 C   0  0  0  0  0  0  0  0  0  0  0  0
    4.5981   -4.2500    0.0000 C   0  0  0  0  0  0  0  0  0  0  0  0
    2.8660   -5.2500    0.0000 C   0  0  0  0  0  0  0  0  0  0  0  0
    4.5981   -5.2500    0.0000 C   0  0  0  0  0  0  0  0  0  0  0  0
    3.7320   -2.7500    0.0000 C   0  0  0  0  0  0  0  0  0  0  0  0
    4.5981   -2.2500    0.0000 C   0  0  0  0  0  0  0  0  0  0  0  0
    3.7320   -6.7500    0.0000 C   0  0  0  0  0  0  0  0  0  0  0  0
    4.5981   -1.2500    0.0000 C   0  0  0  0  0  0  0  0  0  0  0  0
    5.4641   -0.7500    0.0000 C   0  0  0  0  0  0  0  0  0  0  0  0
    2.8660   -7.2500    0.0000 C   0  0  0  0  0  0  0  0  0  0  0  0
    4.5981   -7.2500    0.0000 C   0  0  0  0  0  0  0  0  0  0  0  0
    2.8660   -8.2500    0.0000 C   0  0  0  0  0  0  0  0  0  0  0  0
    4.5981   -8.2500    0.0000 C   0  0  0  0  0  0  0  0  0  0  0  0
    3.7320   -8.7500    0.0000 C   0  0  0  0  0  0  0  0  0  0  0  0
    6.3301    0.7500    0.0000 C   0  0  0  0  0  0  0  0  0  0  0  0
    6.3301    1.7500    0.0000 C   0  0  0  0  0  0  0  0  0  0  0  0
    5.4641    2.2500    0.0000 C   0  0  0  0  0  0  0  0  0  0  0  0
    7.1962    2.2500    0.0000 C   0  0  0  0  0  0  0  0  0  0  0  0
    5.4641    3.2500    0.0000 C   0  0  0  0  0  0  0  0  0  0  0  0
    7.1962    3.2500    0.0000 C   0  0  0  0  0  0  0  0  0  0  0  0
    6.3301    3.7500    0.0000 C   0  0  0  0  0  0  0  0  0  0  0  0
    6.3301    4.7500    0.0000 C   0  0  0  0  0  0  0  0  0  0  0  0
    6.3301    5.7500    0.0000 C   0  0  0  0  0  0  0  0  0  0  0  0
    6.3301    6.7500    0.0000 C   0  0  0  0  0  0  0  0  0  0  0  0
    7.1962    7.2500    0.0000 C   0  0  0  0  0  0  0  0  0  0  0  0
    5.4641    7.2500    0.0000 C   0  0  0  0  0  0  0  0  0  0  0  0
    7.1962    8.2500    0.0000 C   0  0  0  0  0  0  0  0  0  0  0  0
    5.4641    8.2500    0.0000 C   0  0  0  0  0  0  0  0  0  0  0  0
    6.3301    8.7500    0.0000 C   0  0  0  0  0  0  0  0  0  0  0  0
    2.6540   -3.6674    0.0000 H   0  0  0  0  0  0  0  0  0  0  0  0
    2.2554   -4.3577    0.0000 H   0  0  0  0  0  0  0  0  0  0  0  0
    5.2087   -4.3577    0.0000 H   0  0  0  0  0  0  0  0  0  0  0  0
    4.8101   -3.6674    0.0000 H   0  0  0  0  0  0  0  0  0  0  0  0
    2.2554   -5.1423    0.0000 H   0  0  0  0  0  0  0  0  0  0  0  0
    2.6540   -5.8326    0.0000 H   0  0  0  0  0  0  0  0  0  0  0  0
    4.8101   -5.8326    0.0000 H   0  0  0  0  0  0  0  0  0  0  0  0
    5.2087   -5.1423    0.0000 H   0  0  0  0  0  0  0  0  0  0  0  0
    3.5200   -2.1674    0.0000 H   0  0  0  0  0  0  0  0  0  0  0  0
    3.1215   -2.8577    0.0000 H   0  0  0  0  0  0  0  0  0  0  0  0
    4.8101   -2.8326    0.0000 H   0  0  0  0  0  0  0  0  0  0  0  0
    5.2087   -2.1423    0.0000 H   0  0  0  0  0  0  0  0  0  0  0  0
    4.3860   -0.6674    0.0000 H   0  0  0  0  0  0  0  0  0  0  0  0
    3.9875   -1.3577    0.0000 H   0  0  0  0  0  0  0  0  0  0  0  0
    5.6762   -1.3326    0.0000 H   0  0  0  0  0  0  0  0  0  0  0  0
    6.0747   -0.6423    0.0000 H   0  0  0  0  0  0  0  0  0  0  0  0
    5.1350   -6.9400    0.0000 H   0  0  0  0  0  0  0  0  0  0  0  0
    4.9272    0.5600    0.0000 H   0  0  0  0  0  0  0  0  0  0  0  0
    5.1350   -8.5600    0.0000 H   0  0  0  0  0  0  0  0  0  0  0  0
    3.7320   -9.3700    0.0000 H   0  0  0  0  0  0  0  0  0  0  0  0
    4.9272    1.9400    0.0000 H   0  0  0  0  0  0  0  0  0  0  0  0
    7.7331    1.9400    0.0000 H   0  0  0  0  0  0  0  0  0  0  0  0
    4.9272    3.5600    0.0000 H   0  0  0  0  0  0  0  0  0  0  0  0
    7.7331    3.5600    0.0000 H   0  0  0  0  0  0  0  0  0  0  0  0
    7.7331    6.9400    0.0000 H   0  0  0  0  0  0  0  0  0  0  0  0
    4.9272    6.9400    0.0000 H   0  0  0  0  0  0  0  0  0  0  0  0
    7.7331    8.5600    0.0000 H   0  0  0  0  0  0  0  0  0  0  0  0
    4.9272    8.5600    0.0000 H   0  0  0  0  0  0  0  0  0  0  0  0
    6.3301    9.3700    0.0000 H   0  0  0  0  0  0  0  0  0  0  0  0
  1 16  1  0  0  0  0
  2 18  1  0  0  0  0
  3 21  2  0  0  0  0
  4  7  1  0  0  0  0
  4  8  1  0  0  0  0
  4 11  1  0  0  0  0
  5  9  1  0  0  0  0
  5 10  1  0  0  0  0
  5 13  1  0  0  0  0
  6 15  1  0  0  0  0
  6 21  1  0  0  0  0
  6 53  1  0  0  0  0
  7  9  1  0  0  0  0
  7 36  1  0  0  0  0
  7 37  1  0  0  0  0
  8 10  1  0  0  0  0
  8 38  1  0  0  0  0
  8 39  1  0  0  0  0
  9 40  1  0  0  0  0
  9 41  1  0  0  0  0
 10 42  1  0  0  0  0
 10 43  1  0  0  0  0
 11 12  1  0  0  0  0
 11 44  1  0  0  0  0
 11 45  1  0  0  0  0
 12 14  1  0  0  0  0
 12 46  1  0  0  0  0
 12 47  1  0  0  0  0
 13 16  2  0  0  0  0
 13 17  1  0  0  0  0
 14 15  1  0  0  0  0
 14 48  1  0  0  0  0
 14 49  1  0  0  0  0
 15 50  1  0  0  0  0
 15 51  1  0  0  0  0
 16 18  1  0  0  0  0
 17 19  2  0  0  0  0
 17 52  1  0  0  0  0
 18 20  2  0  0  0  0
 19 20  1  0  0  0  0
 19 54  1  0  0  0  0
 20 55  1  0  0  0  0
 21 22  1  0  0  0  0
 22 23  2  0  0  0  0
 22 24  1  0  0  0  0
 23 25  1  0  0  0  0
 23 56  1  0  0  0  0
 24 26  2  0  0  0  0
 24 57  1  0  0  0  0
 25 27  2  0  0  0  0
 25 58  1  0  0  0  0
 26 27  1  0  0  0  0
 26 59  1  0  0  0  0
 27 28  1  0  0  0  0
 28 29  3  0  0  0  0
 29 30  1  0  0  0  0
 30 31  2  0  0  0  0
 30 32  1  0  0  0  0
 31 33  1  0  0  0  0
 31 60  1  0  0  0  0
 32 34  2  0  0  0  0
 32 61  1  0  0  0  0
 33 35  2  0  0  0  0
 33 62  1  0  0  0  0
 34 35  1  0  0  0  0
 34 63  1  0  0  0  0
 35 64  1  0  0  0  0
M  END
> <PUBCHEM_COMPOUND_CID>
44436606

> <PUBCHEM_COMPOUND_CANONICALIZED>
1

> <PUBCHEM_CACTVS_COMPLEXITY>
712

> <PUBCHEM_CACTVS_HBOND_ACCEPTOR>
3

> <PUBCHEM_CACTVS_HBOND_DONOR>
1

> <PUBCHEM_CACTVS_ROTATABLE_BOND>
9

> <PUBCHEM_CACTVS_SUBSKEYS>
AAADceB7IAAGAAAAAAAAAAAAAAAAAAAAAAA8YMEAAAAAAAABUAAAHgIQAAAADArBmCQwwIPAAADIEiVSUAiCAAAlBwAIisEIZsgIYDLBl5HUIQhglgDIyYcYiACOQAAAAAIAABSAAAAABAAAKAAAAAAAAA==

> <PUBCHEM_IUPAC_OPENEYE_NAME>
N-[4-[4-(2,3-dichlorophenyl)piperazin-1-yl]butyl]-4-(2-phenylethynyl)benzamide

> <PUBCHEM_IUPAC_CAS_NAME>
N-[4-[4-(2,3-dichlorophenyl)-1-piperazinyl]butyl]-4-(2-phenylethynyl)benzamide

> <PUBCHEM_IUPAC_NAME_MARKUP>
<I>N</I>-[4-[4-(2,3-dichlorophenyl)piperazin-1-yl]butyl]-4-(2-phenylethynyl)benzamide

> <PUBCHEM_IUPAC_NAME>
N-[4-[4-(2,3-dichlorophenyl)piperazin-1-yl]butyl]-4-(2-phenylethynyl)benzamide

> <PUBCHEM_IUPAC_SYSTEMATIC_NAME>
N-[4-[4-[2,3-bis(chloranyl)phenyl]piperazin-1-yl]butyl]-4-(2-phenylethynyl)benzamide

> <PUBCHEM_IUPAC_TRADITIONAL_NAME>
N-[4-[4-(2,3-dichlorophenyl)piperazino]butyl]-4-(2-phenylethynyl)benzamide

> <PUBCHEM_IUPAC_INCHI>
InChI=1S/C29H29Cl2N3O/c30-26-9-6-10-27(28(26)31)34-21-19-33(20-22-34)18-5-4-17-32-29(35)25-15-13-24(14-16-25)12-11-23-7-2-1-3-8-23/h1-3,6-10,13-16H,4-5,17-22H2,(H,32,35)

> <PUBCHEM_IUPAC_INCHIKEY>
IZRFSGDNQRHHKW-UHFFFAOYSA-N

> <PUBCHEM_XLOGP3_AA>
6.8

> <PUBCHEM_EXACT_MASS>
505.1687679

> <PUBCHEM_MOLECULAR_FORMULA>
C29H29Cl2N3O

> <PUBCHEM_MOLECULAR_WEIGHT>
506.5

> <PUBCHEM_OPENEYE_CAN_SMILES>
C1CN(CCN1CCCCNC(=O)C2=CC=C(C=C2)C#CC3=CC=CC=C3)C4=C(C(=CC=C4)Cl)Cl

> <PUBCHEM_OPENEYE_ISO_SMILES>
C1CN(CCN1CCCCNC(=O)C2=CC=C(C=C2)C#CC3=CC=CC=C3)C4=C(C(=CC=C4)Cl)Cl

> <PUBCHEM_CACTVS_TPSA>
35.6

> <PUBCHEM_MONOISOTOPIC_WEIGHT>
505.1687679

> <PUBCHEM_TOTAL_CHARGE>
0

> <PUBCHEM_HEAVY_ATOM_COUNT>
35

> <PUBCHEM_ATOM_DEF_STEREO_COUNT>
0

> <PUBCHEM_ATOM_UDEF_STEREO_COUNT>
0

> <PUBCHEM_BOND_DEF_STEREO_COUNT>
0

> <PUBCHEM_BOND_UDEF_STEREO_COUNT>
0

> <PUBCHEM_ISOTOPIC_ATOM_COUNT>
0

> <PUBCHEM_COMPONENT_COUNT>
1

> <PUBCHEM_CACTVS_TAUTO_COUNT>
-1

> <PUBCHEM_COORDINATE_TYPE>
1
5
255

> <PUBCHEM_BONDANNOTATIONS>
13  16  8
13  17  8
16  18  8
17  19  8
18  20  8
19  20  8
22  23  8
22  24  8
23  25  8
24  26  8
25  27  8
26  27  8
30  31  8
30  32  8
31  33  8
32  34  8
33  35  8
34  35  8

$$$$
