44403102
  -OEChem-09292322502D

 64 67  0     0  0  0  0  0  0999 V2000
   11.8923   -5.6830    0.0000 F   0  0  0  0  0  0  0  0  0  0  0  0
   13.2583   -5.3170    0.0000 F   0  0  0  0  0  0  0  0  0  0  0  0
   12.8923   -3.9510    0.0000 F   0  0  0  0  0  0  0  0  0  0  0  0
    2.8660    1.6830    0.0000 O   0  0  0  0  0  0  0  0  0  0  0  0
    5.4641   -1.8170    0.0000 O   0  0  0  0  0  0  0  0  0  0  0  0
    4.5981    2.6830    0.0000 N   0  0  0  0  0  0  0  0  0  0  0  0
    4.5981    4.6830    0.0000 N   0  0  0  0  0  0  0  0  0  0  0  0
    8.9282   -2.8170    0.0000 N   0  0  0  0  0  0  0  0  0  0  0  0
    7.1962   -1.8170    0.0000 N   0  0  0  0  0  0  0  0  0  0  0  0
    6.3301   -0.3170    0.0000 N   0  0  0  0  0  0  0  0  0  0  0  0
    3.7320    3.1830    0.0000 C   0  0  0  0  0  0  0  0  0  0  0  0
    5.4641    3.1830    0.0000 C   0  0  0  0  0  0  0  0  0  0  0  0
    3.7320    4.1830    0.0000 C   0  0  0  0  0  0  0  0  0  0  0  0
    5.4641    4.1830    0.0000 C   0  0  0  0  0  0  0  0  0  0  0  0
    8.9282   -1.8170    0.0000 C   0  0  0  0  0  0  0  0  0  0  0  0
    8.0622   -3.3170    0.0000 C   0  0  0  0  0  0  0  0  0  0  0  0
    8.0622   -1.3170    0.0000 C   0  0  0  0  0  0  0  0  0  0  0  0
    7.1962   -2.8170    0.0000 C   0  0  0  0  0  0  0  0  0  0  0  0
    4.5981    1.6830    0.0000 C   0  0  0  0  0  0  0  0  0  0  0  0
    9.7942   -3.3170    0.0000 C   0  0  0  0  0  0  0  0  0  0  0  0
    4.5981    5.6830    0.0000 C   0  0  0  0  0  0  0  0  0  0  0  0
    6.3301   -1.3170    0.0000 C   0  0  0  0  0  0  0  0  0  0  0  0
    5.4641    1.1830    0.0000 C   0  0  0  0  0  0  0  0  0  0  0  0
    3.7320    1.1830    0.0000 C   0  0  0  0  0  0  0  0  0  0  0  0
    5.4641    0.1830    0.0000 C   0  0  0  0  0  0  0  0  0  0  0  0
    9.7942   -4.3170    0.0000 C   0  0  0  0  0  0  0  0  0  0  0  0
   10.6603   -2.8170    0.0000 C   0  0  0  0  0  0  0  0  0  0  0  0
    3.7320    0.1830    0.0000 C   0  0  0  0  0  0  0  0  0  0  0  0
    4.5981   -0.3170    0.0000 C   0  0  0  0  0  0  0  0  0  0  0  0
   10.6603   -4.8170    0.0000 C   0  0  0  0  0  0  0  0  0  0  0  0
   11.5263   -3.3170    0.0000 C   0  0  0  0  0  0  0  0  0  0  0  0
   11.5263   -4.3170    0.0000 C   0  0  0  0  0  0  0  0  0  0  0  0
   12.3923   -4.8170    0.0000 C   0  0  0  0  0  0  0  0  0  0  0  0
    2.0000    1.1830    0.0000 C   0  0  0  0  0  0  0  0  0  0  0  0
    3.1215    3.2907    0.0000 H   0  0  0  0  0  0  0  0  0  0  0  0
    3.5200    2.6004    0.0000 H   0  0  0  0  0  0  0  0  0  0  0  0
    5.6762    2.6004    0.0000 H   0  0  0  0  0  0  0  0  0  0  0  0
    6.0747    3.2907    0.0000 H   0  0  0  0  0  0  0  0  0  0  0  0
    3.5200    4.7656    0.0000 H   0  0  0  0  0  0  0  0  0  0  0  0
    3.1215    4.0754    0.0000 H   0  0  0  0  0  0  0  0  0  0  0  0
    6.0747    4.0754    0.0000 H   0  0  0  0  0  0  0  0  0  0  0  0
    5.6762    4.7656    0.0000 H   0  0  0  0  0  0  0  0  0  0  0  0
    9.5388   -1.9246    0.0000 H   0  0  0  0  0  0  0  0  0  0  0  0
    9.1403   -1.2344    0.0000 H   0  0  0  0  0  0  0  0  0  0  0  0
    7.6636   -3.7919    0.0000 H   0  0  0  0  0  0  0  0  0  0  0  0
    8.4607   -3.7919    0.0000 H   0  0  0  0  0  0  0  0  0  0  0  0
    8.4607   -0.8420    0.0000 H   0  0  0  0  0  0  0  0  0  0  0  0
    7.6636   -0.8420    0.0000 H   0  0  0  0  0  0  0  0  0  0  0  0
    6.5856   -2.7093    0.0000 H   0  0  0  0  0  0  0  0  0  0  0  0
    6.9841   -3.3996    0.0000 H   0  0  0  0  0  0  0  0  0  0  0  0
    5.2181    5.6830    0.0000 H   0  0  0  0  0  0  0  0  0  0  0  0
    4.5981    6.3030    0.0000 H   0  0  0  0  0  0  0  0  0  0  0  0
    3.9781    5.6830    0.0000 H   0  0  0  0  0  0  0  0  0  0  0  0
    6.0010    1.4930    0.0000 H   0  0  0  0  0  0  0  0  0  0  0  0
    6.8671   -0.0070    0.0000 H   0  0  0  0  0  0  0  0  0  0  0  0
    9.2573   -4.6270    0.0000 H   0  0  0  0  0  0  0  0  0  0  0  0
   10.6603   -2.1970    0.0000 H   0  0  0  0  0  0  0  0  0  0  0  0
    3.1951   -0.1270    0.0000 H   0  0  0  0  0  0  0  0  0  0  0  0
    4.5981   -0.9370    0.0000 H   0  0  0  0  0  0  0  0  0  0  0  0
   10.6603   -5.4370    0.0000 H   0  0  0  0  0  0  0  0  0  0  0  0
   12.0632   -3.0070    0.0000 H   0  0  0  0  0  0  0  0  0  0  0  0
    1.6900    1.7200    0.0000 H   0  0  0  0  0  0  0  0  0  0  0  0
    1.4631    0.8730    0.0000 H   0  0  0  0  0  0  0  0  0  0  0  0
    2.3100    0.6461    0.0000 H   0  0  0  0  0  0  0  0  0  0  0  0
  1 33  1  0  0  0  0
  2 33  1  0  0  0  0
  3 33  1  0  0  0  0
  4 24  1  0  0  0  0
  4 34  1  0  0  0  0
  5 22  2  0  0  0  0
  6 11  1  0  0  0  0
  6 12  1  0  0  0  0
  6 19  1  0  0  0  0
  7 13  1  0  0  0  0
  7 14  1  0  0  0  0
  7 21  1  0  0  0  0
  8 15  1  0  0  0  0
  8 16  1  0  0  0  0
  8 20  1  0  0  0  0
  9 17  1  0  0  0  0
  9 18  1  0  0  0  0
  9 22  1  0  0  0  0
 10 22  1  0  0  0  0
 10 25  1  0  0  0  0
 10 55  1  0  0  0  0
 11 13  1  0  0  0  0
 11 35  1  0  0  0  0
 11 36  1  0  0  0  0
 12 14  1  0  0  0  0
 12 37  1  0  0  0  0
 12 38  1  0  0  0  0
 13 39  1  0  0  0  0
 13 40  1  0  0  0  0
 14 41  1  0  0  0  0
 14 42  1  0  0  0  0
 15 17  1  0  0  0  0
 15 43  1  0  0  0  0
 15 44  1  0  0  0  0
 16 18  1  0  0  0  0
 16 45  1  0  0  0  0
 16 46  1  0  0  0  0
 17 47  1  0  0  0  0
 17 48  1  0  0  0  0
 18 49  1  0  0  0  0
 18 50  1  0  0  0  0
 19 23  1  0  0  0  0
 19 24  2  0  0  0  0
 20 26  2  0  0  0  0
 20 27  1  0  0  0  0
 21 51  1  0  0  0  0
 21 52  1  0  0  0  0
 21 53  1  0  0  0  0
 23 25  2  0  0  0  0
 23 54  1  0  0  0  0
 24 28  1  0  0  0  0
 25 29  1  0  0  0  0
 26 30  1  0  0  0  0
 26 56  1  0  0  0  0
 27 31  2  0  0  0  0
 27 57  1  0  0  0  0
 28 29  2  0  0  0  0
 28 58  1  0  0  0  0
 29 59  1  0  0  0  0
 30 32  2  0  0  0  0
 30 60  1  0  0  0  0
 31 32  1  0  0  0  0
 31 61  1  0  0  0  0
 32 33  1  0  0  0  0
 34 62  1  0  0  0  0
 34 63  1  0  0  0  0
 34 64  1  0  0  0  0
M  END
> <PUBCHEM_COMPOUND_CID>
44403102

> <PUBCHEM_COMPOUND_CANONICALIZED>
1

> <PUBCHEM_CACTVS_COMPLEXITY>
658

> <PUBCHEM_CACTVS_HBOND_ACCEPTOR>
8

> <PUBCHEM_CACTVS_HBOND_DONOR>
1

> <PUBCHEM_CACTVS_ROTATABLE_BOND>
4

> <PUBCHEM_CACTVS_SUBSKEYS>
AAADceB7sYAAAAAAAAAAAAAAAAAAAAAAAAA8eIEAAAAAAAABQAAAHwAQAAAADAzBmBYzxoPABACIAiRCUACCCAAhIgAIiAAPbIiOZiLE8duVMChs1hPY6CewwAAOCEAAAAQAEAAQgAAACAAgAAAAAAAAAA==

> <PUBCHEM_IUPAC_OPENEYE_NAME>
N-[4-methoxy-3-(4-methylpiperazin-1-yl)phenyl]-4-[4-(trifluoromethyl)phenyl]piperazine-1-carboxamide

> <PUBCHEM_IUPAC_CAS_NAME>
N-[4-methoxy-3-(4-methyl-1-piperazinyl)phenyl]-4-[4-(trifluoromethyl)phenyl]-1-piperazinecarboxamide

> <PUBCHEM_IUPAC_NAME_MARKUP>
<I>N</I>-[4-methoxy-3-(4-methylpiperazin-1-yl)phenyl]-4-[4-(trifluoromethyl)phenyl]piperazine-1-carboxamide

> <PUBCHEM_IUPAC_NAME>
N-[4-methoxy-3-(4-methylpiperazin-1-yl)phenyl]-4-[4-(trifluoromethyl)phenyl]piperazine-1-carboxamide

> <PUBCHEM_IUPAC_SYSTEMATIC_NAME>
N-[4-methoxy-3-(4-methylpiperazin-1-yl)phenyl]-4-[4-(trifluoromethyl)phenyl]piperazine-1-carboxamide

> <PUBCHEM_IUPAC_TRADITIONAL_NAME>
N-[4-methoxy-3-(4-methylpiperazino)phenyl]-4-[4-(trifluoromethyl)phenyl]piperazine-1-carboxamide

> <PUBCHEM_IUPAC_INCHI>
InChI=1S/C24H30F3N5O2/c1-29-9-11-31(12-10-29)21-17-19(5-8-22(21)34-2)28-23(33)32-15-13-30(14-16-32)20-6-3-18(4-7-20)24(25,26)27/h3-8,17H,9-16H2,1-2H3,(H,28,33)

> <PUBCHEM_IUPAC_INCHIKEY>
DZKYLEMMURXALW-UHFFFAOYSA-N

> <PUBCHEM_XLOGP3_AA>
3.5

> <PUBCHEM_EXACT_MASS>
477.23515970

> <PUBCHEM_MOLECULAR_FORMULA>
C24H30F3N5O2

> <PUBCHEM_MOLECULAR_WEIGHT>
477.5

> <PUBCHEM_OPENEYE_CAN_SMILES>
CN1CCN(CC1)C2=C(C=CC(=C2)NC(=O)N3CCN(CC3)C4=CC=C(C=C4)C(F)(F)F)OC

> <PUBCHEM_OPENEYE_ISO_SMILES>
CN1CCN(CC1)C2=C(C=CC(=C2)NC(=O)N3CCN(CC3)C4=CC=C(C=C4)C(F)(F)F)OC

> <PUBCHEM_CACTVS_TPSA>
51.3

> <PUBCHEM_MONOISOTOPIC_WEIGHT>
477.23515970

> <PUBCHEM_TOTAL_CHARGE>
0

> <PUBCHEM_HEAVY_ATOM_COUNT>
34

> <PUBCHEM_ATOM_DEF_STEREO_COUNT>
0

> <PUBCHEM_ATOM_UDEF_STEREO_COUNT>
0

> <PUBCHEM_BOND_DEF_STEREO_COUNT>
0

> <PUBCHEM_BOND_UDEF_STEREO_COUNT>
0

> <PUBCHEM_ISOTOPIC_ATOM_COUNT>
0

> <PUBCHEM_COMPONENT_COUNT>
1

> <PUBCHEM_CACTVS_TAUTO_COUNT>
-1

> <PUBCHEM_COORDINATE_TYPE>
1
5
255

> <PUBCHEM_BONDANNOTATIONS>
19  23  8
19  24  8
20  26  8
20  27  8
23  25  8
24  28  8
25  29  8
26  30  8
27  31  8
28  29  8
30  32  8
31  32  8

$$$$
