137654586
  -OEChem-09292322062D

 59 62  0     0  0  0  0  0  0999 V2000
    6.0912    0.0000    0.0000 Cl  0  0  0  0  0  0  0  0  0  0  0  0
    1.0270    8.1172    0.0000 F   0  0  0  0  0  0  0  0  0  0  0  0
    2.0269    8.1056    0.0000 F   0  0  0  0  0  0  0  0  0  0  0  0
   13.1824    4.7345    0.0000 F   0  0  0  0  0  0  0  0  0  0  0  0
   10.4139    2.5128    0.0000 O   0  0  0  0  0  0  0  0  0  0  0  0
    3.2769    4.2107    0.0000 O   0  0  0  0  0  0  0  0  0  0  0  0
    6.7410    5.2107    0.0000 N   0  0  0  0  0  0  0  0  0  0  0  0
    2.4109    5.7107    0.0000 N   0  0  0  0  0  0  0  0  0  0  0  0
    9.4421    2.7220    0.0000 N   0  0  0  0  0  0  0  0  0  0  0  0
    3.2769    7.2107    0.0000 N   0  0  0  0  0  0  0  0  0  0  0  0
    8.4730    4.2107    0.0000 C   0  0  0  0  0  0  0  0  0  0  0  0
    7.6070    3.7107    0.0000 C   0  0  0  0  0  0  0  0  0  0  0  0
    8.4730    5.2107    0.0000 C   0  0  0  0  0  0  0  0  0  0  0  0
    6.7410    4.2107    0.0000 C   0  0  0  0  0  0  0  0  0  0  0  0
    7.6070    5.7107    0.0000 C   0  0  0  0  0  0  0  0  0  0  0  0
    5.8750    5.7107    0.0000 C   0  0  0  0  0  0  0  0  0  0  0  0
    9.3391    3.7107    0.0000 C   0  0  0  0  0  0  0  0  0  0  0  0
    5.0089    5.2107    0.0000 C   0  0  0  0  0  0  0  0  0  0  0  0
    4.1429    5.7107    0.0000 C   0  0  0  0  0  0  0  0  0  0  0  0
    1.5169    5.1761    0.0000 C   0  0  0  0  0  0  0  0  0  0  0  0
   10.2469    4.1158    0.0000 C   0  0  0  0  0  0  0  0  0  0  0  0
    0.6109    5.6899    0.0000 C   0  0  0  0  0  0  0  0  0  0  0  0
    2.4109    6.7107    0.0000 C   0  0  0  0  0  0  0  0  0  0  0  0
    0.6109    6.7316    0.0000 C   0  0  0  0  0  0  0  0  0  0  0  0
    1.5169    7.2454    0.0000 C   0  0  0  0  0  0  0  0  0  0  0  0
    3.2769    5.2107    0.0000 C   0  0  0  0  0  0  0  0  0  0  0  0
    4.1429    6.7107    0.0000 C   0  0  0  0  0  0  0  0  0  0  0  0
   10.9147    3.3716    0.0000 C   0  0  0  0  0  0  0  0  0  0  0  0
   10.5575    5.0664    0.0000 C   0  0  0  0  0  0  0  0  0  0  0  0
    5.0089    7.2107    0.0000 C   0  0  0  0  0  0  0  0  0  0  0  0
   11.8932    3.5778    0.0000 C   0  0  0  0  0  0  0  0  0  0  0  0
   11.5360    5.2726    0.0000 C   0  0  0  0  0  0  0  0  0  0  0  0
   12.2039    4.5283    0.0000 C   0  0  0  0  0  0  0  0  0  0  0  0
    8.4730    3.5907    0.0000 H   0  0  0  0  0  0  0  0  0  0  0  0
    7.2085    3.2358    0.0000 H   0  0  0  0  0  0  0  0  0  0  0  0
    8.0055    3.2358    0.0000 H   0  0  0  0  0  0  0  0  0  0  0  0
    9.0836    5.1031    0.0000 H   0  0  0  0  0  0  0  0  0  0  0  0
    8.6851    5.7934    0.0000 H   0  0  0  0  0  0  0  0  0  0  0  0
    6.1304    4.3184    0.0000 H   0  0  0  0  0  0  0  0  0  0  0  0
    6.5289    3.6281    0.0000 H   0  0  0  0  0  0  0  0  0  0  0  0
    8.0055    6.1857    0.0000 H   0  0  0  0  0  0  0  0  0  0  0  0
    7.2085    6.1857    0.0000 H   0  0  0  0  0  0  0  0  0  0  0  0
    6.2735    6.1857    0.0000 H   0  0  0  0  0  0  0  0  0  0  0  0
    5.4764    6.1857    0.0000 H   0  0  0  0  0  0  0  0  0  0  0  0
    4.6104    4.7358    0.0000 H   0  0  0  0  0  0  0  0  0  0  0  0
    5.4075    4.7358    0.0000 H   0  0  0  0  0  0  0  0  0  0  0  0
    1.1233    4.6971    0.0000 H   0  0  0  0  0  0  0  0  0  0  0  0
    1.9215    4.7063    0.0000 H   0  0  0  0  0  0  0  0  0  0  0  0
    0.0000    5.7960    0.0000 H   0  0  0  0  0  0  0  0  0  0  0  0
    0.4018    5.1062    0.0000 H   0  0  0  0  0  0  0  0  0  0  0  0
    0.4018    7.3152    0.0000 H   0  0  0  0  0  0  0  0  0  0  0  0
    0.0000    6.6255    0.0000 H   0  0  0  0  0  0  0  0  0  0  0  0
   10.1435    5.5278    0.0000 H   0  0  0  0  0  0  0  0  0  0  0  0
    5.3189    6.6738    0.0000 H   0  0  0  0  0  0  0  0  0  0  0  0
    5.5459    7.5207    0.0000 H   0  0  0  0  0  0  0  0  0  0  0  0
    4.6989    7.7477    0.0000 H   0  0  0  0  0  0  0  0  0  0  0  0
   12.3073    3.1163    0.0000 H   0  0  0  0  0  0  0  0  0  0  0  0
   11.7286    5.8619    0.0000 H   0  0  0  0  0  0  0  0  0  0  0  0
    7.0912    0.0000    0.0000 H   0  0  0  0  0  0  0  0  0  0  0  0
  1 59  1  0  0  0  0
  2 25  1  0  0  0  0
  3 25  1  0  0  0  0
  4 33  1  0  0  0  0
  5  9  1  0  0  0  0
  5 28  1  0  0  0  0
  6 26  2  0  0  0  0
  7 14  1  0  0  0  0
  7 15  1  0  0  0  0
  7 16  1  0  0  0  0
  8 20  1  0  0  0  0
  8 23  1  0  0  0  0
  8 26  1  0  0  0  0
  9 17  2  0  0  0  0
 10 23  2  0  0  0  0
 10 27  1  0  0  0  0
 11 12  1  0  0  0  0
 11 13  1  0  0  0  0
 11 17  1  0  0  0  0
 11 34  1  0  0  0  0
 12 14  1  0  0  0  0
 12 35  1  0  0  0  0
 12 36  1  0  0  0  0
 13 15  1  0  0  0  0
 13 37  1  0  0  0  0
 13 38  1  0  0  0  0
 14 39  1  0  0  0  0
 14 40  1  0  0  0  0
 15 41  1  0  0  0  0
 15 42  1  0  0  0  0
 16 18  1  0  0  0  0
 16 43  1  0  0  0  0
 16 44  1  0  0  0  0
 17 21  1  0  0  0  0
 18 19  1  0  0  0  0
 18 45  1  0  0  0  0
 18 46  1  0  0  0  0
 19 26  1  0  0  0  0
 19 27  2  0  0  0  0
 20 22  1  0  0  0  0
 20 47  1  0  0  0  0
 20 48  1  0  0  0  0
 21 28  2  0  0  0  0
 21 29  1  0  0  0  0
 22 24  1  0  0  0  0
 22 49  1  0  0  0  0
 22 50  1  0  0  0  0
 23 25  1  0  0  0  0
 24 25  1  0  0  0  0
 24 51  1  0  0  0  0
 24 52  1  0  0  0  0
 27 30  1  0  0  0  0
 28 31  1  0  0  0  0
 29 32  2  0  0  0  0
 29 53  1  0  0  0  0
 30 54  1  0  0  0  0
 30 55  1  0  0  0  0
 30 56  1  0  0  0  0
 31 33  2  0  0  0  0
 31 57  1  0  0  0  0
 32 33  1  0  0  0  0
 32 58  1  0  0  0  0
M  END
> <PUBCHEM_COMPOUND_CID>
137654586

> <PUBCHEM_COMPOUND_CANONICALIZED>
1

> <PUBCHEM_CACTVS_COMPLEXITY>
809

> <PUBCHEM_CACTVS_HBOND_ACCEPTOR>
8

> <PUBCHEM_CACTVS_HBOND_DONOR>
1

> <PUBCHEM_CACTVS_ROTATABLE_BOND>
4

> <PUBCHEM_CACTVS_SUBSKEYS>
AAADceB7sYAEAAAAAAAAAAAAAAAAAWAAAAA8WIEAAAAAAFiB8AAAHwAEAAAADQzBnhwzhtMQAACpA6dydgCCAAEkIAApmCE+TNoIJrqAnZOEMYBmxhmIycecyOCOAAAAAAAIAAAAAAAAABAAAAAAAAAAAA==

> <PUBCHEM_IUPAC_OPENEYE_NAME>
9,9-difluoro-3-[2-[4-(6-fluoro-1,2-benzoxazol-3-yl)-1-piperidyl]ethyl]-2-methyl-7,8-dihydro-6H-pyrido[1,2-a]pyrimidin-4-one;hydrochloride

> <PUBCHEM_IUPAC_CAS_NAME>
9,9-difluoro-3-[2-[4-(6-fluoro-1,2-benzoxazol-3-yl)-1-piperidinyl]ethyl]-2-methyl-7,8-dihydro-6H-pyrido[1,2-a]pyrimidin-4-one;hydrochloride

> <PUBCHEM_IUPAC_NAME_MARKUP>
9,9-difluoro-3-[2-[4-(6-fluoro-1,2-benzoxazol-3-yl)piperidin-1-yl]ethyl]-2-methyl-7,8-dihydro-6<I>H</I>-pyrido[1,2-a]pyrimidin-4-one;hydrochloride

> <PUBCHEM_IUPAC_NAME>
9,9-difluoro-3-[2-[4-(6-fluoro-1,2-benzoxazol-3-yl)piperidin-1-yl]ethyl]-2-methyl-7,8-dihydro-6H-pyrido[1,2-a]pyrimidin-4-one;hydrochloride

> <PUBCHEM_IUPAC_SYSTEMATIC_NAME>
9,9-bis(fluoranyl)-3-[2-[4-(6-fluoranyl-1,2-benzoxazol-3-yl)piperidin-1-yl]ethyl]-2-methyl-7,8-dihydro-6H-pyrido[1,2-a]pyrimidin-4-one;hydrochloride

> <PUBCHEM_IUPAC_TRADITIONAL_NAME>
9,9-difluoro-3-[2-[4-(6-fluoroindoxazen-3-yl)piperidino]ethyl]-2-methyl-7,8-dihydro-6H-pyrido[1,2-a]pyrimidin-4-one;hydrochloride

> <PUBCHEM_IUPAC_INCHI>
InChI=1S/C23H25F3N4O2.ClH/c1-14-17(21(31)30-9-2-8-23(25,26)22(30)27-14)7-12-29-10-5-15(6-11-29)20-18-4-3-16(24)13-19(18)32-28-20;/h3-4,13,15H,2,5-12H2,1H3;1H

> <PUBCHEM_IUPAC_INCHIKEY>
QVCHNYDEKZMOOK-UHFFFAOYSA-N

> <PUBCHEM_EXACT_MASS>
482.1696383

> <PUBCHEM_MOLECULAR_FORMULA>
C23H26ClF3N4O2

> <PUBCHEM_MOLECULAR_WEIGHT>
482.9

> <PUBCHEM_OPENEYE_CAN_SMILES>
CC1=C(C(=O)N2CCCC(C2=N1)(F)F)CCN3CCC(CC3)C4=NOC5=C4C=CC(=C5)F.Cl

> <PUBCHEM_OPENEYE_ISO_SMILES>
CC1=C(C(=O)N2CCCC(C2=N1)(F)F)CCN3CCC(CC3)C4=NOC5=C4C=CC(=C5)F.Cl

> <PUBCHEM_CACTVS_TPSA>
61.9

> <PUBCHEM_MONOISOTOPIC_WEIGHT>
482.1696383

> <PUBCHEM_TOTAL_CHARGE>
0

> <PUBCHEM_HEAVY_ATOM_COUNT>
33

> <PUBCHEM_ATOM_DEF_STEREO_COUNT>
0

> <PUBCHEM_ATOM_UDEF_STEREO_COUNT>
0

> <PUBCHEM_BOND_DEF_STEREO_COUNT>
0

> <PUBCHEM_BOND_UDEF_STEREO_COUNT>
0

> <PUBCHEM_ISOTOPIC_ATOM_COUNT>
0

> <PUBCHEM_COMPONENT_COUNT>
2

> <PUBCHEM_CACTVS_TAUTO_COUNT>
-1

> <PUBCHEM_COORDINATE_TYPE>
1
5
255

> <PUBCHEM_BONDANNOTATIONS>
10  23  8
10  27  8
17  21  8
19  26  8
19  27  8
21  28  8
21  29  8
28  31  8
29  32  8
31  33  8
32  33  8
5  28  8
5  9  8
8  23  8
8  26  8
9  17  8

$$$$
