10549689
  -OEChem-09292321592D

 57 60  0     0  0  0  0  0  0999 V2000
    4.5961    2.0362    0.0000 Cl  0  0  0  0  0  0  0  0  0  0  0  0
   10.6718   -1.4404    0.0000 O   0  0  0  0  0  0  0  0  0  0  0  0
   15.9339   -1.4162    0.0000 O   0  0  0  0  0  0  0  0  0  0  0  0
    6.3397   -0.9571    0.0000 N   0  0  0  0  0  0  0  0  0  0  0  0
    4.6038    0.0362    0.0000 N   0  0  0  0  0  0  0  0  0  0  0  0
   14.2019   -1.4162    0.0000 N   0  0  0  0  0  0  0  0  0  0  0  0
    6.3359    0.0429    0.0000 C   0  0  0  0  0  0  0  0  0  0  0  0
    5.4756   -1.4604    0.0000 C   0  0  0  0  0  0  0  0  0  0  0  0
    5.4679    0.5396    0.0000 C   0  0  0  0  0  0  0  0  0  0  0  0
    4.6077   -0.9637    0.0000 C   0  0  0  0  0  0  0  0  0  0  0  0
    7.2077   -1.4537    0.0000 C   0  0  0  0  0  0  0  0  0  0  0  0
    8.0718   -0.9504    0.0000 C   0  0  0  0  0  0  0  0  0  0  0  0
    3.7359    0.5329    0.0000 C   0  0  0  0  0  0  0  0  0  0  0  0
    8.9397   -1.4470    0.0000 C   0  0  0  0  0  0  0  0  0  0  0  0
    9.8038   -0.9437    0.0000 C   0  0  0  0  0  0  0  0  0  0  0  0
    3.7320    1.5329    0.0000 C   0  0  0  0  0  0  0  0  0  0  0  0
    2.8718    0.0296    0.0000 C   0  0  0  0  0  0  0  0  0  0  0  0
   13.3359    0.0838    0.0000 C   0  0  0  0  0  0  0  0  0  0  0  0
   14.2019    0.5838    0.0000 C   0  0  0  0  0  0  0  0  0  0  0  0
   13.3359   -0.9162    0.0000 C   0  0  0  0  0  0  0  0  0  0  0  0
   11.5358   -0.9370    0.0000 C   0  0  0  0  0  0  0  0  0  0  0  0
    2.8641    2.0296    0.0000 C   0  0  0  0  0  0  0  0  0  0  0  0
    2.0038    0.5262    0.0000 C   0  0  0  0  0  0  0  0  0  0  0  0
   15.0679    0.0838    0.0000 C   0  0  0  0  0  0  0  0  0  0  0  0
   12.4419   -1.4509    0.0000 C   0  0  0  0  0  0  0  0  0  0  0  0
   12.4419    0.6184    0.0000 C   0  0  0  0  0  0  0  0  0  0  0  0
    2.0000    1.5262    0.0000 C   0  0  0  0  0  0  0  0  0  0  0  0
   11.5358    0.1046    0.0000 C   0  0  0  0  0  0  0  0  0  0  0  0
   15.0679   -0.9162    0.0000 C   0  0  0  0  0  0  0  0  0  0  0  0
    6.9469   -0.0624    0.0000 H   0  0  0  0  0  0  0  0  0  0  0  0
    6.5457    0.6263    0.0000 H   0  0  0  0  0  0  0  0  0  0  0  0
    5.0789   -1.9369    0.0000 H   0  0  0  0  0  0  0  0  0  0  0  0
    5.8760   -1.9338    0.0000 H   0  0  0  0  0  0  0  0  0  0  0  0
    5.8646    1.0161    0.0000 H   0  0  0  0  0  0  0  0  0  0  0  0
    5.0676    1.0130    0.0000 H   0  0  0  0  0  0  0  0  0  0  0  0
    3.9967   -0.8584    0.0000 H   0  0  0  0  0  0  0  0  0  0  0  0
    4.3979   -1.5472    0.0000 H   0  0  0  0  0  0  0  0  0  0  0  0
    6.8110   -1.9302    0.0000 H   0  0  0  0  0  0  0  0  0  0  0  0
    7.6080   -1.9271    0.0000 H   0  0  0  0  0  0  0  0  0  0  0  0
    8.4685   -0.4739    0.0000 H   0  0  0  0  0  0  0  0  0  0  0  0
    7.6714   -0.4770    0.0000 H   0  0  0  0  0  0  0  0  0  0  0  0
    8.5430   -1.9235    0.0000 H   0  0  0  0  0  0  0  0  0  0  0  0
    9.3401   -1.9205    0.0000 H   0  0  0  0  0  0  0  0  0  0  0  0
   10.2005   -0.4672    0.0000 H   0  0  0  0  0  0  0  0  0  0  0  0
    9.4034   -0.4703    0.0000 H   0  0  0  0  0  0  0  0  0  0  0  0
    2.8742   -0.5904    0.0000 H   0  0  0  0  0  0  0  0  0  0  0  0
   14.6004    1.0587    0.0000 H   0  0  0  0  0  0  0  0  0  0  0  0
   13.8034    1.0587    0.0000 H   0  0  0  0  0  0  0  0  0  0  0  0
   15.6785   -0.0239    0.0000 H   0  0  0  0  0  0  0  0  0  0  0  0
   15.2800    0.6664    0.0000 H   0  0  0  0  0  0  0  0  0  0  0  0
    2.8617    2.6496    0.0000 H   0  0  0  0  0  0  0  0  0  0  0  0
    1.4681    0.2142    0.0000 H   0  0  0  0  0  0  0  0  0  0  0  0
   12.4491   -2.0708    0.0000 H   0  0  0  0  0  0  0  0  0  0  0  0
   12.4491    1.2384    0.0000 H   0  0  0  0  0  0  0  0  0  0  0  0
    1.4619    1.8342    0.0000 H   0  0  0  0  0  0  0  0  0  0  0  0
   11.0001    0.4167    0.0000 H   0  0  0  0  0  0  0  0  0  0  0  0
   14.2019   -2.0362    0.0000 H   0  0  0  0  0  0  0  0  0  0  0  0
  1 16  1  0  0  0  0
  2 15  1  0  0  0  0
  2 21  1  0  0  0  0
  3 29  2  0  0  0  0
  4  7  1  0  0  0  0
  4  8  1  0  0  0  0
  4 11  1  0  0  0  0
  5  9  1  0  0  0  0
  5 10  1  0  0  0  0
  5 13  1  0  0  0  0
  6 20  1  0  0  0  0
  6 29  1  0  0  0  0
  6 57  1  0  0  0  0
  7  9  1  0  0  0  0
  7 30  1  0  0  0  0
  7 31  1  0  0  0  0
  8 10  1  0  0  0  0
  8 32  1  0  0  0  0
  8 33  1  0  0  0  0
  9 34  1  0  0  0  0
  9 35  1  0  0  0  0
 10 36  1  0  0  0  0
 10 37  1  0  0  0  0
 11 12  1  0  0  0  0
 11 38  1  0  0  0  0
 11 39  1  0  0  0  0
 12 14  1  0  0  0  0
 12 40  1  0  0  0  0
 12 41  1  0  0  0  0
 13 16  1  0  0  0  0
 13 17  2  0  0  0  0
 14 15  1  0  0  0  0
 14 42  1  0  0  0  0
 14 43  1  0  0  0  0
 15 44  1  0  0  0  0
 15 45  1  0  0  0  0
 16 22  2  0  0  0  0
 17 23  1  0  0  0  0
 17 46  1  0  0  0  0
 18 19  1  0  0  0  0
 18 20  2  0  0  0  0
 18 26  1  0  0  0  0
 19 24  1  0  0  0  0
 19 47  1  0  0  0  0
 19 48  1  0  0  0  0
 20 25  1  0  0  0  0
 21 25  2  0  0  0  0
 21 28  1  0  0  0  0
 22 27  1  0  0  0  0
 22 51  1  0  0  0  0
 23 27  2  0  0  0  0
 23 52  1  0  0  0  0
 24 29  1  0  0  0  0
 24 49  1  0  0  0  0
 24 50  1  0  0  0  0
 25 53  1  0  0  0  0
 26 28  2  0  0  0  0
 26 54  1  0  0  0  0
 27 55  1  0  0  0  0
 28 56  1  0  0  0  0
M  END
> <PUBCHEM_COMPOUND_CID>
10549689

> <PUBCHEM_COMPOUND_CANONICALIZED>
1

> <PUBCHEM_CACTVS_COMPLEXITY>
526

> <PUBCHEM_CACTVS_HBOND_ACCEPTOR>
4

> <PUBCHEM_CACTVS_HBOND_DONOR>
1

> <PUBCHEM_CACTVS_ROTATABLE_BOND>
7

> <PUBCHEM_CACTVS_SUBSKEYS>
AAADceB7MAAEAAAAAAAAAAAAAAAAAAAAAAA8eIEAAAAAAACxQAAAHgIQAAAADA7hmCYwxoPABACIAiVSUACCCAAhJwAIiAEObogMZjLFs5vWOCjm1BnI6Ae42aOeIAAAAgACABBAAAAEAAQAIAAAAAAAAA==

> <PUBCHEM_IUPAC_OPENEYE_NAME>
7-[4-[4-(2-chlorophenyl)piperazin-1-yl]butoxy]-3,4-dihydro-1H-quinolin-2-one

> <PUBCHEM_IUPAC_CAS_NAME>
7-[4-[4-(2-chlorophenyl)-1-piperazinyl]butoxy]-3,4-dihydro-1H-quinolin-2-one

> <PUBCHEM_IUPAC_NAME_MARKUP>
7-[4-[4-(2-chlorophenyl)piperazin-1-yl]butoxy]-3,4-dihydro-1<I>H</I>-quinolin-2-one

> <PUBCHEM_IUPAC_NAME>
7-[4-[4-(2-chlorophenyl)piperazin-1-yl]butoxy]-3,4-dihydro-1H-quinolin-2-one

> <PUBCHEM_IUPAC_SYSTEMATIC_NAME>
7-[4-[4-(2-chlorophenyl)piperazin-1-yl]butoxy]-3,4-dihydro-1H-quinolin-2-one

> <PUBCHEM_IUPAC_TRADITIONAL_NAME>
7-[4-[4-(2-chlorophenyl)piperazino]butoxy]-3,4-dihydrocarbostyril

> <PUBCHEM_IUPAC_INCHI>
InChI=1S/C23H28ClN3O2/c24-20-5-1-2-6-22(20)27-14-12-26(13-15-27)11-3-4-16-29-19-9-7-18-8-10-23(28)25-21(18)17-19/h1-2,5-7,9,17H,3-4,8,10-16H2,(H,25,28)

> <PUBCHEM_IUPAC_INCHIKEY>
YZWZYPOWFMWSAH-UHFFFAOYSA-N

> <PUBCHEM_XLOGP3_AA>
4

> <PUBCHEM_EXACT_MASS>
413.1870048

> <PUBCHEM_MOLECULAR_FORMULA>
C23H28ClN3O2

> <PUBCHEM_MOLECULAR_WEIGHT>
413.9

> <PUBCHEM_OPENEYE_CAN_SMILES>
C1CC(=O)NC2=C1C=CC(=C2)OCCCCN3CCN(CC3)C4=CC=CC=C4Cl

> <PUBCHEM_OPENEYE_ISO_SMILES>
C1CC(=O)NC2=C1C=CC(=C2)OCCCCN3CCN(CC3)C4=CC=CC=C4Cl

> <PUBCHEM_CACTVS_TPSA>
44.8

> <PUBCHEM_MONOISOTOPIC_WEIGHT>
413.1870048

> <PUBCHEM_TOTAL_CHARGE>
0

> <PUBCHEM_HEAVY_ATOM_COUNT>
29

> <PUBCHEM_ATOM_DEF_STEREO_COUNT>
0

> <PUBCHEM_ATOM_UDEF_STEREO_COUNT>
0

> <PUBCHEM_BOND_DEF_STEREO_COUNT>
0

> <PUBCHEM_BOND_UDEF_STEREO_COUNT>
0

> <PUBCHEM_ISOTOPIC_ATOM_COUNT>
0

> <PUBCHEM_COMPONENT_COUNT>
1

> <PUBCHEM_CACTVS_TAUTO_COUNT>
3

> <PUBCHEM_COORDINATE_TYPE>
1
5
255

> <PUBCHEM_BONDANNOTATIONS>
13  16  8
13  17  8
16  22  8
17  23  8
18  20  8
18  26  8
20  25  8
21  25  8
21  28  8
22  27  8
23  27  8
26  28  8

$$$$
