146673143
  -OEChem-09292322452D

 91 95  0     0  0  0  0  0  0999 V2000
   16.5920   -0.0849    0.0000 O   0  0  0  0  0  0  0  0  0  0  0  0
   10.5920   -1.8170    0.0000 O   0  0  0  0  0  0  0  0  0  0  0  0
   16.5920   -1.8170    0.0000 N   0  0  0  0  0  0  0  0  0  0  0  0
   17.5920   -3.5490    0.0000 N   0  0  0  0  0  0  0  0  0  0  0  0
    8.0622    0.4151    0.0000 N   0  0  0  0  0  0  0  0  0  0  0  0
   10.5920   -0.0849    0.0000 N   0  0  0  0  0  0  0  0  0  0  0  0
    9.0084   -0.8897    0.0000 N   0  0  0  0  0  0  0  0  0  0  0  0
   15.0920   -0.9510    0.0000 C   0  0  0  0  0  0  0  0  0  0  0  0
   17.5920   -1.8170    0.0000 C   0  0  0  0  0  0  0  0  0  0  0  0
   16.0920   -2.6830    0.0000 C   0  0  0  0  0  0  0  0  0  0  0  0
   18.0920   -2.6830    0.0000 C   0  0  0  0  0  0  0  0  0  0  0  0
   16.5920   -3.5490    0.0000 C   0  0  0  0  0  0  0  0  0  0  0  0
   16.0920   -0.9510    0.0000 C   0  0  0  0  0  0  0  0  0  0  0  0
    4.5981    3.4151    0.0000 C   0  0  0  0  0  0  0  0  0  0  0  0
    2.8660    0.4151    0.0000 C   0  0  0  0  0  0  0  0  0  0  0  0
    4.5981    2.4151    0.0000 C   0  0  0  0  0  0  0  0  0  0  0  0
    3.7320    0.9151    0.0000 C   0  0  0  0  0  0  0  0  0  0  0  0
   14.0920   -0.9510    0.0000 C   0  0  0  0  0  0  0  0  0  0  0  0
   15.0920   -1.9510    0.0000 C   0  0  0  0  0  0  0  0  0  0  0  0
   15.0920    0.0490    0.0000 C   0  0  0  0  0  0  0  0  0  0  0  0
    3.7320    1.9151    0.0000 C   0  0  0  0  0  0  0  0  0  0  0  0
    5.4641    1.9151    0.0000 C   0  0  0  0  0  0  0  0  0  0  0  0
    4.5981    0.4151    0.0000 C   0  0  0  0  0  0  0  0  0  0  0  0
    5.4641    0.9151    0.0000 C   0  0  0  0  0  0  0  0  0  0  0  0
   18.0920   -4.4151    0.0000 C   0  0  0  0  0  0  0  0  0  0  0  0
    4.5981    4.4151    0.0000 C   0  0  0  0  0  0  0  0  0  0  0  0
    3.5981    3.4151    0.0000 C   0  0  0  0  0  0  0  0  0  0  0  0
    5.5981    3.4151    0.0000 C   0  0  0  0  0  0  0  0  0  0  0  0
    2.0000   -0.0849    0.0000 C   0  0  0  0  0  0  0  0  0  0  0  0
    2.3660    1.2811    0.0000 C   0  0  0  0  0  0  0  0  0  0  0  0
    3.3660   -0.4510    0.0000 C   0  0  0  0  0  0  0  0  0  0  0  0
   13.5920   -0.0849    0.0000 C   0  0  0  0  0  0  0  0  0  0  0  0
   13.5920   -1.8170    0.0000 C   0  0  0  0  0  0  0  0  0  0  0  0
    6.3301    0.4151    0.0000 C   0  0  0  0  0  0  0  0  0  0  0  0
   12.5920   -0.0849    0.0000 C   0  0  0  0  0  0  0  0  0  0  0  0
   12.5920   -1.8170    0.0000 C   0  0  0  0  0  0  0  0  0  0  0  0
   12.0920   -0.9510    0.0000 C   0  0  0  0  0  0  0  0  0  0  0  0
    7.1962    0.9151    0.0000 C   0  0  0  0  0  0  0  0  0  0  0  0
    6.3301   -0.5849    0.0000 C   0  0  0  0  0  0  0  0  0  0  0  0
    8.0622   -0.5849    0.0000 C   0  0  0  0  0  0  0  0  0  0  0  0
    7.1962   -1.0849    0.0000 C   0  0  0  0  0  0  0  0  0  0  0  0
   11.0920   -0.9510    0.0000 C   0  0  0  0  0  0  0  0  0  0  0  0
    9.0084    0.7198    0.0000 C   0  0  0  0  0  0  0  0  0  0  0  0
    9.5920   -0.0849    0.0000 C   0  0  0  0  0  0  0  0  0  0  0  0
   18.1746   -1.6049    0.0000 H   0  0  0  0  0  0  0  0  0  0  0  0
   17.4843   -1.2064    0.0000 H   0  0  0  0  0  0  0  0  0  0  0  0
   15.6171   -2.2845    0.0000 H   0  0  0  0  0  0  0  0  0  0  0  0
   15.6171   -3.0815    0.0000 H   0  0  0  0  0  0  0  0  0  0  0  0
   18.5670   -3.0815    0.0000 H   0  0  0  0  0  0  0  0  0  0  0  0
   18.5670   -2.2845    0.0000 H   0  0  0  0  0  0  0  0  0  0  0  0
   16.0094   -3.7611    0.0000 H   0  0  0  0  0  0  0  0  0  0  0  0
   16.6997   -4.1596    0.0000 H   0  0  0  0  0  0  0  0  0  0  0  0
    3.1951    2.2251    0.0000 H   0  0  0  0  0  0  0  0  0  0  0  0
   14.4720   -1.9510    0.0000 H   0  0  0  0  0  0  0  0  0  0  0  0
   15.0920   -2.5710    0.0000 H   0  0  0  0  0  0  0  0  0  0  0  0
   15.7120   -1.9510    0.0000 H   0  0  0  0  0  0  0  0  0  0  0  0
   15.7120    0.0490    0.0000 H   0  0  0  0  0  0  0  0  0  0  0  0
   15.0920    0.6690    0.0000 H   0  0  0  0  0  0  0  0  0  0  0  0
   14.4720    0.0490    0.0000 H   0  0  0  0  0  0  0  0  0  0  0  0
    6.0010    2.2251    0.0000 H   0  0  0  0  0  0  0  0  0  0  0  0
    4.5981   -0.2049    0.0000 H   0  0  0  0  0  0  0  0  0  0  0  0
   17.5551   -4.7251    0.0000 H   0  0  0  0  0  0  0  0  0  0  0  0
   18.4020   -4.9520    0.0000 H   0  0  0  0  0  0  0  0  0  0  0  0
   18.6289   -4.1051    0.0000 H   0  0  0  0  0  0  0  0  0  0  0  0
    5.2181    4.4151    0.0000 H   0  0  0  0  0  0  0  0  0  0  0  0
    4.5981    5.0351    0.0000 H   0  0  0  0  0  0  0  0  0  0  0  0
    3.9781    4.4151    0.0000 H   0  0  0  0  0  0  0  0  0  0  0  0
    3.5981    4.0351    0.0000 H   0  0  0  0  0  0  0  0  0  0  0  0
    2.9781    3.4151    0.0000 H   0  0  0  0  0  0  0  0  0  0  0  0
    3.5981    2.7951    0.0000 H   0  0  0  0  0  0  0  0  0  0  0  0
    5.5981    2.7951    0.0000 H   0  0  0  0  0  0  0  0  0  0  0  0
    6.2181    3.4151    0.0000 H   0  0  0  0  0  0  0  0  0  0  0  0
    5.5981    4.0351    0.0000 H   0  0  0  0  0  0  0  0  0  0  0  0
    1.6900    0.4520    0.0000 H   0  0  0  0  0  0  0  0  0  0  0  0
    1.4631   -0.3949    0.0000 H   0  0  0  0  0  0  0  0  0  0  0  0
    2.3100   -0.6219    0.0000 H   0  0  0  0  0  0  0  0  0  0  0  0
    2.9030    1.5911    0.0000 H   0  0  0  0  0  0  0  0  0  0  0  0
    2.0560    1.8180    0.0000 H   0  0  0  0  0  0  0  0  0  0  0  0
    1.8291    0.9711    0.0000 H   0  0  0  0  0  0  0  0  0  0  0  0
    2.8291   -0.7610    0.0000 H   0  0  0  0  0  0  0  0  0  0  0  0
    3.6760   -0.9879    0.0000 H   0  0  0  0  0  0  0  0  0  0  0  0
    3.9030   -0.1410    0.0000 H   0  0  0  0  0  0  0  0  0  0  0  0
   13.9020    0.4520    0.0000 H   0  0  0  0  0  0  0  0  0  0  0  0
   13.9020   -2.3539    0.0000 H   0  0  0  0  0  0  0  0  0  0  0  0
   12.2820    0.4520    0.0000 H   0  0  0  0  0  0  0  0  0  0  0  0
   12.2820   -2.3539    0.0000 H   0  0  0  0  0  0  0  0  0  0  0  0
    7.1962    1.5351    0.0000 H   0  0  0  0  0  0  0  0  0  0  0  0
    5.7932   -0.8949    0.0000 H   0  0  0  0  0  0  0  0  0  0  0  0
    7.1962   -1.7049    0.0000 H   0  0  0  0  0  0  0  0  0  0  0  0
    9.2010    1.3091    0.0000 H   0  0  0  0  0  0  0  0  0  0  0  0
   10.9020    0.4520    0.0000 H   0  0  0  0  0  0  0  0  0  0  0  0
  1 13  2  0  0  0  0
  2 42  2  0  0  0  0
  3  9  1  0  0  0  0
  3 10  1  0  0  0  0
  3 13  1  0  0  0  0
  4 11  1  0  0  0  0
  4 12  1  0  0  0  0
  4 25  1  0  0  0  0
  5 38  1  0  0  0  0
  5 40  1  0  0  0  0
  5 43  1  0  0  0  0
  6 42  1  0  0  0  0
  6 44  1  0  0  0  0
  6 91  1  0  0  0  0
  7 40  2  0  0  0  0
  7 44  1  0  0  0  0
  8 13  1  0  0  0  0
  8 18  1  0  0  0  0
  8 19  1  0  0  0  0
  8 20  1  0  0  0  0
  9 11  1  0  0  0  0
  9 45  1  0  0  0  0
  9 46  1  0  0  0  0
 10 12  1  0  0  0  0
 10 47  1  0  0  0  0
 10 48  1  0  0  0  0
 11 49  1  0  0  0  0
 11 50  1  0  0  0  0
 12 51  1  0  0  0  0
 12 52  1  0  0  0  0
 14 16  1  0  0  0  0
 14 26  1  0  0  0  0
 14 27  1  0  0  0  0
 14 28  1  0  0  0  0
 15 17  1  0  0  0  0
 15 29  1  0  0  0  0
 15 30  1  0  0  0  0
 15 31  1  0  0  0  0
 16 21  2  0  0  0  0
 16 22  1  0  0  0  0
 17 21  1  0  0  0  0
 17 23  2  0  0  0  0
 18 32  2  0  0  0  0
 18 33  1  0  0  0  0
 19 54  1  0  0  0  0
 19 55  1  0  0  0  0
 19 56  1  0  0  0  0
 20 57  1  0  0  0  0
 20 58  1  0  0  0  0
 20 59  1  0  0  0  0
 21 53  1  0  0  0  0
 22 24  2  0  0  0  0
 22 60  1  0  0  0  0
 23 24  1  0  0  0  0
 23 61  1  0  0  0  0
 24 34  1  0  0  0  0
 25 62  1  0  0  0  0
 25 63  1  0  0  0  0
 25 64  1  0  0  0  0
 26 65  1  0  0  0  0
 26 66  1  0  0  0  0
 26 67  1  0  0  0  0
 27 68  1  0  0  0  0
 27 69  1  0  0  0  0
 27 70  1  0  0  0  0
 28 71  1  0  0  0  0
 28 72  1  0  0  0  0
 28 73  1  0  0  0  0
 29 74  1  0  0  0  0
 29 75  1  0  0  0  0
 29 76  1  0  0  0  0
 30 77  1  0  0  0  0
 30 78  1  0  0  0  0
 30 79  1  0  0  0  0
 31 80  1  0  0  0  0
 31 81  1  0  0  0  0
 31 82  1  0  0  0  0
 32 35  1  0  0  0  0
 32 83  1  0  0  0  0
 33 36  2  0  0  0  0
 33 84  1  0  0  0  0
 34 38  2  0  0  0  0
 34 39  1  0  0  0  0
 35 37  2  0  0  0  0
 35 85  1  0  0  0  0
 36 37  1  0  0  0  0
 36 86  1  0  0  0  0
 37 42  1  0  0  0  0
 38 87  1  0  0  0  0
 39 41  2  0  0  0  0
 39 88  1  0  0  0  0
 40 41  1  0  0  0  0
 41 89  1  0  0  0  0
 43 44  2  0  0  0  0
 43 90  1  0  0  0  0
M  END
> <PUBCHEM_COMPOUND_CID>
146673143

> <PUBCHEM_COMPOUND_CANONICALIZED>
1

> <PUBCHEM_CACTVS_COMPLEXITY>
976

> <PUBCHEM_CACTVS_HBOND_ACCEPTOR>
4

> <PUBCHEM_CACTVS_HBOND_DONOR>
1

> <PUBCHEM_CACTVS_ROTATABLE_BOND>
7

> <PUBCHEM_CACTVS_SUBSKEYS>
AAADcfB/sAAAAAAAAAAAAAAAAAAAAWAAAAA8eIEAAAAAAFgB9AAAHgAQAAAADgDBmwQ/sJ/MGACoAjN3dACCgC01EqAJ2CE4dNiIaPLAnZGUIQholwLIyacYiMCPwAACAAAAAACAAAQAAAAAAAAAAAAAAA==

> <PUBCHEM_IUPAC_OPENEYE_NAME>
N-[6-(3,5-ditert-butylphenyl)imidazo[1,2-a]pyridin-2-yl]-4-[1,1-dimethyl-2-(4-methylpiperazin-1-yl)-2-oxo-ethyl]benzamide

> <PUBCHEM_IUPAC_CAS_NAME>
N-[6-(3,5-ditert-butylphenyl)-2-imidazo[1,2-a]pyridinyl]-4-[2-methyl-1-(4-methyl-1-piperazinyl)-1-oxopropan-2-yl]benzamide

> <PUBCHEM_IUPAC_NAME_MARKUP>
<I>N</I>-[6-(3,5-di<I>tert</I>-butylphenyl)imidazo[1,2-a]pyridin-2-yl]-4-[2-methyl-1-(4-methylpiperazin-1-yl)-1-oxopropan-2-yl]benzamide

> <PUBCHEM_IUPAC_NAME>
N-[6-(3,5-ditert-butylphenyl)imidazo[1,2-a]pyridin-2-yl]-4-[2-methyl-1-(4-methylpiperazin-1-yl)-1-oxopropan-2-yl]benzamide

> <PUBCHEM_IUPAC_SYSTEMATIC_NAME>
N-[6-(3,5-ditert-butylphenyl)imidazo[1,2-a]pyridin-2-yl]-4-[2-methyl-1-(4-methylpiperazin-1-yl)-1-oxidanylidene-propan-2-yl]benzamide

> <PUBCHEM_IUPAC_TRADITIONAL_NAME>
N-[6-(3,5-ditert-butylphenyl)imidazo[1,2-a]pyridin-2-yl]-4-[2-keto-1,1-dimethyl-2-(4-methylpiperazino)ethyl]benzamide

> <PUBCHEM_IUPAC_INCHI>
InChI=1S/C37H47N5O2/c1-35(2,3)29-20-27(21-30(22-29)36(4,5)6)26-12-15-32-38-31(24-42(32)23-26)39-33(43)25-10-13-28(14-11-25)37(7,8)34(44)41-18-16-40(9)17-19-41/h10-15,20-24H,16-19H2,1-9H3,(H,39,43)

> <PUBCHEM_IUPAC_INCHIKEY>
BNTGVINQADRYBE-UHFFFAOYSA-N

> <PUBCHEM_XLOGP3_AA>
8

> <PUBCHEM_EXACT_MASS>
593.37297576

> <PUBCHEM_MOLECULAR_FORMULA>
C37H47N5O2

> <PUBCHEM_MOLECULAR_WEIGHT>
593.8

> <PUBCHEM_OPENEYE_CAN_SMILES>
CC(C)(C)C1=CC(=CC(=C1)C2=CN3C=C(N=C3C=C2)NC(=O)C4=CC=C(C=C4)C(C)(C)C(=O)N5CCN(CC5)C)C(C)(C)C

> <PUBCHEM_OPENEYE_ISO_SMILES>
CC(C)(C)C1=CC(=CC(=C1)C2=CN3C=C(N=C3C=C2)NC(=O)C4=CC=C(C=C4)C(C)(C)C(=O)N5CCN(CC5)C)C(C)(C)C

> <PUBCHEM_CACTVS_TPSA>
70

> <PUBCHEM_MONOISOTOPIC_WEIGHT>
593.37297576

> <PUBCHEM_TOTAL_CHARGE>
0

> <PUBCHEM_HEAVY_ATOM_COUNT>
44

> <PUBCHEM_ATOM_DEF_STEREO_COUNT>
0

> <PUBCHEM_ATOM_UDEF_STEREO_COUNT>
0

> <PUBCHEM_BOND_DEF_STEREO_COUNT>
0

> <PUBCHEM_BOND_UDEF_STEREO_COUNT>
0

> <PUBCHEM_ISOTOPIC_ATOM_COUNT>
0

> <PUBCHEM_COMPONENT_COUNT>
1

> <PUBCHEM_CACTVS_TAUTO_COUNT>
-1

> <PUBCHEM_COORDINATE_TYPE>
1
5
255

> <PUBCHEM_BONDANNOTATIONS>
16  21  8
16  22  8
17  21  8
17  23  8
18  32  8
18  33  8
22  24  8
23  24  8
32  35  8
33  36  8
34  38  8
34  39  8
35  37  8
36  37  8
39  41  8
40  41  8
43  44  8
5  38  8
5  40  8
5  43  8
7  40  8
7  44  8

$$$$
