44378003
  -OEChem-09292322192D

 57 61  0     1  0  0  0  0  0999 V2000
    2.0000    5.8712    0.0000 F   0  0  0  0  0  0  0  0  0  0  0  0
    5.0133    2.4187    0.0000 O   0  0  0  0  0  0  0  0  0  0  0  0
    5.3565   -3.8003    0.0000 N   0  0  3  0  0  0  0  0  0  0  0  0
    4.0267   -1.0492    0.0000 N   0  0  3  0  0  0  0  0  0  0  0  0
    5.0066    4.1507    0.0000 N   0  0  0  0  0  0  0  0  0  0  0  0
    5.0475   -2.8492    0.0000 C   0  0  2  0  0  0  0  0  0  0  0  0
    4.0475   -2.8492    0.0000 C   0  0  1  0  0  0  0  0  0  0  0  0
    5.5822   -1.9553    0.0000 C   0  0  0  0  0  0  0  0  0  0  0  0
    3.5128   -1.9553    0.0000 C   0  0  0  0  0  0  0  0  0  0  0  0
    3.7385   -3.8003    0.0000 C   0  0  0  0  0  0  0  0  0  0  0  0
    4.5475   -4.3881    0.0000 C   0  0  0  0  0  0  0  0  0  0  0  0
    5.0683   -1.0492    0.0000 C   0  0  0  0  0  0  0  0  0  0  0  0
    6.2128   -4.3313    0.0000 C   0  0  0  0  0  0  0  0  0  0  0  0
    4.4546   -5.4256    0.0000 C   0  0  0  0  0  0  0  0  0  0  0  0
    6.2136   -5.3388    0.0000 C   0  0  0  0  0  0  0  0  0  0  0  0
    5.3582   -5.8712    0.0000 C   0  0  0  0  0  0  0  0  0  0  0  0
    2.7805   -4.2092    0.0000 C   0  0  0  0  0  0  0  0  0  0  0  0
    3.5234   -0.1851    0.0000 C   0  0  0  0  0  0  0  0  0  0  0  0
    3.5063   -5.8566    0.0000 C   0  0  0  0  0  0  0  0  0  0  0  0
    2.6636   -5.2443    0.0000 C   0  0  0  0  0  0  0  0  0  0  0  0
    4.0200    0.6828    0.0000 C   0  0  0  0  0  0  0  0  0  0  0  0
    3.5167    1.5469    0.0000 C   0  0  0  0  0  0  0  0  0  0  0  0
    4.0133    2.4148    0.0000 C   0  0  0  0  0  0  0  0  0  0  0  0
    3.5100    3.2789    0.0000 C   0  0  0  0  0  0  0  0  0  0  0  0
    4.0067    4.1469    0.0000 C   0  0  0  0  0  0  0  0  0  0  0  0
    2.5100    3.2751    0.0000 C   0  0  0  0  0  0  0  0  0  0  0  0
    3.5033    5.0110    0.0000 C   0  0  0  0  0  0  0  0  0  0  0  0
    2.0067    4.1392    0.0000 C   0  0  0  0  0  0  0  0  0  0  0  0
    2.5033    5.0071    0.0000 C   0  0  0  0  0  0  0  0  0  0  0  0
    5.8921   -2.9446    0.0000 H   0  0  0  0  0  0  0  0  0  0  0  0
    3.2029   -2.9446    0.0000 H   0  0  0  0  0  0  0  0  0  0  0  0
    6.0520   -2.3599    0.0000 H   0  0  0  0  0  0  0  0  0  0  0  0
    6.0612   -1.5617    0.0000 H   0  0  0  0  0  0  0  0  0  0  0  0
    3.0338   -1.5617    0.0000 H   0  0  0  0  0  0  0  0  0  0  0  0
    3.0431   -2.3599    0.0000 H   0  0  0  0  0  0  0  0  0  0  0  0
    5.6520   -0.8402    0.0000 H   0  0  0  0  0  0  0  0  0  0  0  0
    4.9622   -0.4384    0.0000 H   0  0  0  0  0  0  0  0  0  0  0  0
    6.8223   -4.4450    0.0000 H   0  0  0  0  0  0  0  0  0  0  0  0
    6.4369   -3.7532    0.0000 H   0  0  0  0  0  0  0  0  0  0  0  0
    6.4387   -5.9165    0.0000 H   0  0  0  0  0  0  0  0  0  0  0  0
    6.8229   -5.2241    0.0000 H   0  0  0  0  0  0  0  0  0  0  0  0
    4.9862   -6.3672    0.0000 H   0  0  0  0  0  0  0  0  0  0  0  0
    5.7772   -6.3282    0.0000 H   0  0  0  0  0  0  0  0  0  0  0  0
    3.0469    0.2116    0.0000 H   0  0  0  0  0  0  0  0  0  0  0  0
    3.0500   -0.5855    0.0000 H   0  0  0  0  0  0  0  0  0  0  0  0
    2.2832   -3.8390    0.0000 H   0  0  0  0  0  0  0  0  0  0  0  0
    3.4439   -6.4734    0.0000 H   0  0  0  0  0  0  0  0  0  0  0  0
    2.0963   -5.4943    0.0000 H   0  0  0  0  0  0  0  0  0  0  0  0
    4.4965    0.2861    0.0000 H   0  0  0  0  0  0  0  0  0  0  0  0
    4.4934    1.0832    0.0000 H   0  0  0  0  0  0  0  0  0  0  0  0
    3.0402    1.9436    0.0000 H   0  0  0  0  0  0  0  0  0  0  0  0
    3.0433    1.1466    0.0000 H   0  0  0  0  0  0  0  0  0  0  0  0
    2.2021    2.7370    0.0000 H   0  0  0  0  0  0  0  0  0  0  0  0
    3.8112    5.5491    0.0000 H   0  0  0  0  0  0  0  0  0  0  0  0
    1.3867    4.1368    0.0000 H   0  0  0  0  0  0  0  0  0  0  0  0
    5.3146    4.6889    0.0000 H   0  0  0  0  0  0  0  0  0  0  0  0
    5.3187    3.6150    0.0000 H   0  0  0  0  0  0  0  0  0  0  0  0
  1 29  1  0  0  0  0
  2 23  2  0  0  0  0
  3  6  1  0  0  0  0
  3 11  1  0  0  0  0
  3 13  1  0  0  0  0
  4  9  1  0  0  0  0
  4 12  1  0  0  0  0
  4 18  1  0  0  0  0
  5 25  1  0  0  0  0
  5 56  1  0  0  0  0
  5 57  1  0  0  0  0
  6  7  1  0  0  0  0
  6  8  1  0  0  0  0
  6 30  1  1  0  0  0
  7  9  1  0  0  0  0
  7 10  1  0  0  0  0
  7 31  1  1  0  0  0
  8 12  1  0  0  0  0
  8 32  1  0  0  0  0
  8 33  1  0  0  0  0
  9 34  1  0  0  0  0
  9 35  1  0  0  0  0
 10 11  1  0  0  0  0
 10 17  2  0  0  0  0
 11 14  2  0  0  0  0
 12 36  1  0  0  0  0
 12 37  1  0  0  0  0
 13 15  1  0  0  0  0
 13 38  1  0  0  0  0
 13 39  1  0  0  0  0
 14 16  1  0  0  0  0
 14 19  1  0  0  0  0
 15 16  1  0  0  0  0
 15 40  1  0  0  0  0
 15 41  1  0  0  0  0
 16 42  1  0  0  0  0
 16 43  1  0  0  0  0
 17 20  1  0  0  0  0
 17 46  1  0  0  0  0
 18 21  1  0  0  0  0
 18 44  1  0  0  0  0
 18 45  1  0  0  0  0
 19 20  2  0  0  0  0
 19 47  1  0  0  0  0
 20 48  1  0  0  0  0
 21 22  1  0  0  0  0
 21 49  1  0  0  0  0
 21 50  1  0  0  0  0
 22 23  1  0  0  0  0
 22 51  1  0  0  0  0
 22 52  1  0  0  0  0
 23 24  1  0  0  0  0
 24 25  2  0  0  0  0
 24 26  1  0  0  0  0
 25 27  1  0  0  0  0
 26 28  2  0  0  0  0
 26 53  1  0  0  0  0
 27 29  2  0  0  0  0
 27 54  1  0  0  0  0
 28 29  1  0  0  0  0
 28 55  1  0  0  0  0
M  END
> <PUBCHEM_COMPOUND_CID>
44378003

> <PUBCHEM_COMPOUND_CANONICALIZED>
1

> <PUBCHEM_CACTVS_COMPLEXITY>
601

> <PUBCHEM_CACTVS_HBOND_ACCEPTOR>
5

> <PUBCHEM_CACTVS_HBOND_DONOR>
1

> <PUBCHEM_CACTVS_ROTATABLE_BOND>
5

> <PUBCHEM_CACTVS_SUBSKEYS>
AAADceB7IQAAAAAAAAAAAAAAAAAAAWAAAAA8eIEAAAAAAFixQAAAHwAQAAAADSzBmAwwwINAAACIAqRSQACCAAAlAgAIiAEIZMgIIDrA1ZGEIYhgkADIyccciMCOgAACAAACAAAAAAQAAAQAAAAAAAAAAA==

> <PUBCHEM_IUPAC_OPENEYE_NAME>
1-(2-amino-4-fluoro-phenyl)-4-[(10R,15S)-1,12-diazatetracyclo[7.6.1.05,16.010,15]hexadeca-5(16),6,8-trien-12-yl]butan-1-one

> <PUBCHEM_IUPAC_CAS_NAME>
1-(2-amino-4-fluorophenyl)-4-[(10R,15S)-1,12-diazatetracyclo[7.6.1.05,16.010,15]hexadeca-5(16),6,8-trien-12-yl]-1-butanone

> <PUBCHEM_IUPAC_NAME_MARKUP>
1-(2-amino-4-fluorophenyl)-4-[(10<I>R</I>,15<I>S</I>)-1,12-diazatetracyclo[7.6.1.0<SUP>5,16</SUP>.0<SUP>10,15</SUP>]hexadeca-5(16),6,8-trien-12-yl]butan-1-one

> <PUBCHEM_IUPAC_NAME>
1-(2-amino-4-fluorophenyl)-4-[(10R,15S)-1,12-diazatetracyclo[7.6.1.05,16.010,15]hexadeca-5(16),6,8-trien-12-yl]butan-1-one

> <PUBCHEM_IUPAC_SYSTEMATIC_NAME>
1-(2-azanyl-4-fluoranyl-phenyl)-4-[(10R,15S)-1,12-diazatetracyclo[7.6.1.05,16.010,15]hexadeca-5(16),6,8-trien-12-yl]butan-1-one

> <PUBCHEM_IUPAC_TRADITIONAL_NAME>
1-(2-amino-4-fluoro-phenyl)-4-[(10R,15S)-1,12-diazatetracyclo[7.6.1.05,16.010,15]hexadeca-5(16),6,8-trien-12-yl]butan-1-one

> <PUBCHEM_IUPAC_INCHI>
InChI=1S/C24H28FN3O/c25-17-8-9-19(21(26)14-17)23(29)7-3-11-27-13-10-22-20(15-27)18-6-1-4-16-5-2-12-28(22)24(16)18/h1,4,6,8-9,14,20,22H,2-3,5,7,10-13,15,26H2/t20-,22-/m0/s1

> <PUBCHEM_IUPAC_INCHIKEY>
HHUBBKQNDFELCT-UNMCSNQZSA-N

> <PUBCHEM_XLOGP3_AA>
4.1

> <PUBCHEM_EXACT_MASS>
393.22164069

> <PUBCHEM_MOLECULAR_FORMULA>
C24H28FN3O

> <PUBCHEM_MOLECULAR_WEIGHT>
393.5

> <PUBCHEM_OPENEYE_CAN_SMILES>
C1CC2=C3C(=CC=C2)C4CN(CCC4N3C1)CCCC(=O)C5=C(C=C(C=C5)F)N

> <PUBCHEM_OPENEYE_ISO_SMILES>
C1CC2=C3C(=CC=C2)[C@@H]4CN(CC[C@@H]4N3C1)CCCC(=O)C5=C(C=C(C=C5)F)N

> <PUBCHEM_CACTVS_TPSA>
49.6

> <PUBCHEM_MONOISOTOPIC_WEIGHT>
393.22164069

> <PUBCHEM_TOTAL_CHARGE>
0

> <PUBCHEM_HEAVY_ATOM_COUNT>
29

> <PUBCHEM_ATOM_DEF_STEREO_COUNT>
2

> <PUBCHEM_ATOM_UDEF_STEREO_COUNT>
0

> <PUBCHEM_BOND_DEF_STEREO_COUNT>
0

> <PUBCHEM_BOND_UDEF_STEREO_COUNT>
0

> <PUBCHEM_ISOTOPIC_ATOM_COUNT>
0

> <PUBCHEM_COMPONENT_COUNT>
1

> <PUBCHEM_CACTVS_TAUTO_COUNT>
-1

> <PUBCHEM_COORDINATE_TYPE>
1
5
255

> <PUBCHEM_BONDANNOTATIONS>
10  11  8
10  17  8
11  14  8
14  19  8
17  20  8
19  20  8
24  25  8
24  26  8
25  27  8
26  28  8
27  29  8
28  29  8
6  30  5
7  31  5

$$$$
