16732431
  -OEChem-09292322092D

 96102  0     1  0  0  0  0  0999 V2000
    7.1730    6.8702    0.0000 F   0  0  0  0  0  0  0  0  0  0  0  0
    7.2077   -2.1297    0.0000 O   0  0  0  0  0  0  0  0  0  0  0  0
    8.9166    3.8769    0.0000 O   0  0  0  0  0  0  0  0  0  0  0  0
   12.3807    3.8903    0.0000 O   0  0  0  0  0  0  0  0  0  0  0  0
    6.3282    1.3669    0.0000 O   0  0  0  0  0  0  0  0  0  0  0  0
    2.0000    0.8502    0.0000 O   0  5  0  0  0  0  0  0  0  0  0  0
    2.8602    2.3536    0.0000 O   0  0  0  0  0  0  0  0  0  0  0  0
   10.7398   -2.1300    0.0000 N   0  0  3  0  0  0  0  0  0  0  0  0
   11.7279   -6.3201    0.0000 N   0  0  0  0  0  0  0  0  0  0  0  0
    9.7884    2.3803    0.0000 N   0  0  0  0  0  0  0  0  0  0  0  0
    8.0679   -0.6264    0.0000 N   0  0  0  0  0  0  0  0  0  0  0  0
    8.0602    1.3736    0.0000 N   0  0  0  0  0  0  0  0  0  0  0  0
   13.2525    2.3936    0.0000 N   0  0  0  0  0  0  0  0  0  0  0  0
    2.8641    1.3536    0.0000 N   0  3  0  0  0  0  0  0  0  0  0  0
   10.7238   -3.1715    0.0000 C   0  0  1  0  0  0  0  0  0  0  0  0
    9.8578   -3.6715    0.0000 C   0  0  0  0  0  0  0  0  0  0  0  0
   11.5898   -3.6715    0.0000 C   0  0  0  0  0  0  0  0  0  0  0  0
    8.9397   -2.1230    0.0000 C   0  0  1  0  0  0  0  0  0  0  0  0
    9.8418   -1.6022    0.0000 C   0  0  0  0  0  0  0  0  0  0  0  0
   11.5898   -4.6715    0.0000 C   0  0  0  0  0  0  0  0  0  0  0  0
    9.8578   -4.6715    0.0000 C   0  0  0  0  0  0  0  0  0  0  0  0
   10.7238   -5.1715    0.0000 C   0  0  0  0  0  0  0  0  0  0  0  0
    8.9477   -3.1646    0.0000 C   0  0  0  0  0  0  0  0  0  0  0  0
   10.7398   -6.2130    0.0000 C   0  0  0  0  0  0  0  0  0  0  0  0
   11.6116   -1.6400    0.0000 C   0  0  0  0  0  0  0  0  0  0  0  0
   12.2077   -5.4498    0.0000 C   0  0  0  0  0  0  0  0  0  0  0  0
    8.0718   -1.6264    0.0000 C   0  0  0  0  0  0  0  0  0  0  0  0
    8.9477   -5.1783    0.0000 C   0  0  0  0  0  0  0  0  0  0  0  0
   11.5204    2.3870    0.0000 C   0  0  3  0  0  0  0  0  0  0  0  0
   10.6525    2.8836    0.0000 C   0  0  0  0  0  0  0  0  0  0  0  0
   11.5243    1.3870    0.0000 C   0  0  0  0  0  0  0  0  0  0  0  0
   10.6602    0.8836    0.0000 C   0  0  0  0  0  0  0  0  0  0  0  0
    9.7922    1.3803    0.0000 C   0  0  0  0  0  0  0  0  0  0  0  0
    9.8418   -6.7407    0.0000 C   0  0  0  0  0  0  0  0  0  0  0  0
    8.9397   -6.2199    0.0000 C   0  0  0  0  0  0  0  0  0  0  0  0
    7.2000   -0.1297    0.0000 C   0  0  1  0  0  0  0  0  0  0  0  0
    8.0564    2.3736    0.0000 C   0  0  2  0  0  0  0  0  0  0  0  0
    8.9204    2.8769    0.0000 C   0  0  0  0  0  0  0  0  0  0  0  0
   12.3845    2.8903    0.0000 C   0  0  0  0  0  0  0  0  0  0  0  0
    6.3359   -0.6331    0.0000 C   0  0  0  0  0  0  0  0  0  0  0  0
    7.1961    0.8703    0.0000 C   0  0  0  0  0  0  0  0  0  0  0  0
    7.1884    2.8702    0.0000 C   0  0  0  0  0  0  0  0  0  0  0  0
    5.4679   -0.1364    0.0000 C   0  0  0  0  0  0  0  0  0  0  0  0
    7.1846    3.8702    0.0000 C   0  0  0  0  0  0  0  0  0  0  0  0
    4.6038   -0.6397    0.0000 C   0  0  0  0  0  0  0  0  0  0  0  0
    5.4641    0.8636    0.0000 C   0  0  0  0  0  0  0  0  0  0  0  0
    8.0486    4.3736    0.0000 C   0  0  0  0  0  0  0  0  0  0  0  0
    6.3166    4.3669    0.0000 C   0  0  0  0  0  0  0  0  0  0  0  0
    3.7359   -0.1431    0.0000 C   0  0  0  0  0  0  0  0  0  0  0  0
    4.5961    1.3602    0.0000 C   0  0  0  0  0  0  0  0  0  0  0  0
    8.0448    5.3736    0.0000 C   0  0  0  0  0  0  0  0  0  0  0  0
    6.3128    5.3669    0.0000 C   0  0  0  0  0  0  0  0  0  0  0  0
    3.7320    0.8569    0.0000 C   0  0  0  0  0  0  0  0  0  0  0  0
    7.1768    5.8702    0.0000 C   0  0  0  0  0  0  0  0  0  0  0  0
   11.4631   -2.7522    0.0000 H   0  0  0  0  0  0  0  0  0  0  0  0
   12.2004   -3.7791    0.0000 H   0  0  0  0  0  0  0  0  0  0  0  0
   11.8018   -3.0889    0.0000 H   0  0  0  0  0  0  0  0  0  0  0  0
    8.9385   -1.5030    0.0000 H   0  0  0  0  0  0  0  0  0  0  0  0
   10.2428   -1.1293    0.0000 H   0  0  0  0  0  0  0  0  0  0  0  0
    9.4445   -1.1262    0.0000 H   0  0  0  0  0  0  0  0  0  0  0  0
    8.4144   -3.4808    0.0000 H   0  0  0  0  0  0  0  0  0  0  0  0
   11.9154   -2.1805    0.0000 H   0  0  0  0  0  0  0  0  0  0  0  0
   12.1521   -1.3362    0.0000 H   0  0  0  0  0  0  0  0  0  0  0  0
   11.3078   -1.0995    0.0000 H   0  0  0  0  0  0  0  0  0  0  0  0
   12.8256   -5.3981    0.0000 H   0  0  0  0  0  0  0  0  0  0  0  0
    8.4144   -4.8621    0.0000 H   0  0  0  0  0  0  0  0  0  0  0  0
   12.0139   -6.8702    0.0000 H   0  0  0  0  0  0  0  0  0  0  0  0
   11.5180    3.0069    0.0000 H   0  0  0  0  0  0  0  0  0  0  0  0
   11.0492    3.3601    0.0000 H   0  0  0  0  0  0  0  0  0  0  0  0
   10.2521    3.3570    0.0000 H   0  0  0  0  0  0  0  0  0  0  0  0
   11.7386    0.8052    0.0000 H   0  0  0  0  0  0  0  0  0  0  0  0
   12.1344    1.4970    0.0000 H   0  0  0  0  0  0  0  0  0  0  0  0
   10.2635    0.4071    0.0000 H   0  0  0  0  0  0  0  0  0  0  0  0
   11.0605    0.4102    0.0000 H   0  0  0  0  0  0  0  0  0  0  0  0
    9.1812    1.4856    0.0000 H   0  0  0  0  0  0  0  0  0  0  0  0
    9.5824    0.7969    0.0000 H   0  0  0  0  0  0  0  0  0  0  0  0
    9.8442   -7.3607    0.0000 H   0  0  0  0  0  0  0  0  0  0  0  0
    8.4016   -6.5278    0.0000 H   0  0  0  0  0  0  0  0  0  0  0  0
    8.6036   -0.3143    0.0000 H   0  0  0  0  0  0  0  0  0  0  0  0
    7.2024   -0.7497    0.0000 H   0  0  0  0  0  0  0  0  0  0  0  0
    7.5206    2.0615    0.0000 H   0  0  0  0  0  0  0  0  0  0  0  0
    5.9392   -1.1095    0.0000 H   0  0  0  0  0  0  0  0  0  0  0  0
    6.7362   -1.1065    0.0000 H   0  0  0  0  0  0  0  0  0  0  0  0
    8.5983    1.0657    0.0000 H   0  0  0  0  0  0  0  0  0  0  0  0
    6.5774    2.9756    0.0000 H   0  0  0  0  0  0  0  0  0  0  0  0
    6.9786    2.2868    0.0000 H   0  0  0  0  0  0  0  0  0  0  0  0
   13.7882    2.7057    0.0000 H   0  0  0  0  0  0  0  0  0  0  0  0
   13.2549    1.7736    0.0000 H   0  0  0  0  0  0  0  0  0  0  0  0
    4.6062   -1.2597    0.0000 H   0  0  0  0  0  0  0  0  0  0  0  0
    5.9998    1.1757    0.0000 H   0  0  0  0  0  0  0  0  0  0  0  0
    8.5868    4.0656    0.0000 H   0  0  0  0  0  0  0  0  0  0  0  0
    5.7809    4.0548    0.0000 H   0  0  0  0  0  0  0  0  0  0  0  0
    3.2002   -0.4551    0.0000 H   0  0  0  0  0  0  0  0  0  0  0  0
    4.5937    1.9802    0.0000 H   0  0  0  0  0  0  0  0  0  0  0  0
    8.5805    5.6856    0.0000 H   0  0  0  0  0  0  0  0  0  0  0  0
    5.7746    5.6748    0.0000 H   0  0  0  0  0  0  0  0  0  0  0  0
  1 54  1  0  0  0  0
  2 27  2  0  0  0  0
  3 38  2  0  0  0  0
  4 39  2  0  0  0  0
  5 41  2  0  0  0  0
  6 14  1  0  0  0  0
  7 14  2  0  0  0  0
  8 15  1  0  0  0  0
  8 19  1  0  0  0  0
  8 25  1  0  0  0  0
  9 24  1  0  0  0  0
  9 26  1  0  0  0  0
  9 67  1  0  0  0  0
 10 30  1  0  0  0  0
 10 33  1  0  0  0  0
 10 38  1  0  0  0  0
 11 27  1  0  0  0  0
 36 11  1  1  0  0  0
 11 79  1  0  0  0  0
 37 12  1  1  0  0  0
 12 41  1  0  0  0  0
 12 84  1  0  0  0  0
 13 39  1  0  0  0  0
 13 87  1  0  0  0  0
 13 88  1  0  0  0  0
 14 53  1  0  0  0  0
 15 16  1  0  0  0  0
 15 17  1  0  0  0  0
 15 55  1  1  0  0  0
 16 21  1  0  0  0  0
 16 23  2  0  0  0  0
 17 20  1  0  0  0  0
 17 56  1  0  0  0  0
 17 57  1  0  0  0  0
 18 19  1  0  0  0  0
 18 23  1  0  0  0  0
 18 27  1  1  0  0  0
 18 58  1  0  0  0  0
 19 59  1  0  0  0  0
 19 60  1  0  0  0  0
 20 22  1  0  0  0  0
 20 26  2  0  0  0  0
 21 22  2  0  0  0  0
 21 28  1  0  0  0  0
 22 24  1  0  0  0  0
 23 61  1  0  0  0  0
 24 34  2  0  0  0  0
 25 62  1  0  0  0  0
 25 63  1  0  0  0  0
 25 64  1  0  0  0  0
 26 65  1  0  0  0  0
 28 35  2  0  0  0  0
 28 66  1  0  0  0  0
 29 30  1  0  0  0  0
 29 31  1  0  0  0  0
 29 39  1  0  0  0  0
 29 68  1  0  0  0  0
 30 69  1  0  0  0  0
 30 70  1  0  0  0  0
 31 32  1  0  0  0  0
 31 71  1  0  0  0  0
 31 72  1  0  0  0  0
 32 33  1  0  0  0  0
 32 73  1  0  0  0  0
 32 74  1  0  0  0  0
 33 75  1  0  0  0  0
 33 76  1  0  0  0  0
 34 35  1  0  0  0  0
 34 77  1  0  0  0  0
 35 78  1  0  0  0  0
 36 40  1  0  0  0  0
 36 41  1  0  0  0  0
 36 80  1  0  0  0  0
 37 38  1  0  0  0  0
 37 42  1  0  0  0  0
 37 81  1  0  0  0  0
 40 43  1  0  0  0  0
 40 82  1  0  0  0  0
 40 83  1  0  0  0  0
 42 44  1  0  0  0  0
 42 85  1  0  0  0  0
 42 86  1  0  0  0  0
 43 45  2  0  0  0  0
 43 46  1  0  0  0  0
 44 47  2  0  0  0  0
 44 48  1  0  0  0  0
 45 49  1  0  0  0  0
 45 89  1  0  0  0  0
 46 50  2  0  0  0  0
 46 90  1  0  0  0  0
 47 51  1  0  0  0  0
 47 91  1  0  0  0  0
 48 52  2  0  0  0  0
 48 92  1  0  0  0  0
 49 53  2  0  0  0  0
 49 93  1  0  0  0  0
 50 53  1  0  0  0  0
 50 94  1  0  0  0  0
 51 54  2  0  0  0  0
 51 95  1  0  0  0  0
 52 54  1  0  0  0  0
 52 96  1  0  0  0  0
M  CHG  2   6  -1  14   1
M  END
> <PUBCHEM_COMPOUND_CID>
16732431

> <PUBCHEM_COMPOUND_CANONICALIZED>
1

> <PUBCHEM_CACTVS_COMPLEXITY>
1440

> <PUBCHEM_CACTVS_HBOND_ACCEPTOR>
8

> <PUBCHEM_CACTVS_HBOND_DONOR>
4

> <PUBCHEM_CACTVS_ROTATABLE_BOND>
10

> <PUBCHEM_CACTVS_SUBSKEYS>
AAADcfB/uQAAAAAAAAAAAAAAAAAAAWAAAAA8YMGCAAAAAFjB9AAAHwAUAAAADSjBngw+wPPZ0ACpAzV3VwCCgCAxAiAo2aG4ZJoIYPrA0bGUIAhglgDIyAcYicCOiAAAQAASAAAQAASAACQAAAAAAAAAAA==

> <PUBCHEM_IUPAC_OPENEYE_NAME>
(6aR,9R)-N-[(1S)-2-[[(1S)-2-(3-carbamoyl-1-piperidyl)-1-[(4-fluorophenyl)methyl]-2-oxo-ethyl]amino]-1-[(4-nitrophenyl)methyl]-2-oxo-ethyl]-7-methyl-6,6a,8,9-tetrahydro-4H-indolo[4,3-fg]quinoline-9-carboxamide

> <PUBCHEM_IUPAC_CAS_NAME>
(6aR,9R)-N-[(2S)-1-[[(2S)-1-(3-carbamoyl-1-piperidinyl)-3-(4-fluorophenyl)-1-oxopropan-2-yl]amino]-3-(4-nitrophenyl)-1-oxopropan-2-yl]-7-methyl-6,6a,8,9-tetrahydro-4H-indolo[4,3-fg]quinoline-9-carboxamide

> <PUBCHEM_IUPAC_NAME_MARKUP>
(6<I>a</I><I>R</I>,9<I>R</I>)-<I>N</I>-[(2<I>S</I>)-1-[[(2<I>S</I>)-1-(3-carbamoylpiperidin-1-yl)-3-(4-fluorophenyl)-1-oxopropan-2-yl]amino]-3-(4-nitrophenyl)-1-oxopropan-2-yl]-7-methyl-6,6<I>a</I>,8,9-tetrahydro-4<I>H</I>-indolo[4,3-fg]quinoline-9-carboxamide

> <PUBCHEM_IUPAC_NAME>
(6aR,9R)-N-[(2S)-1-[[(2S)-1-(3-carbamoylpiperidin-1-yl)-3-(4-fluorophenyl)-1-oxopropan-2-yl]amino]-3-(4-nitrophenyl)-1-oxopropan-2-yl]-7-methyl-6,6a,8,9-tetrahydro-4H-indolo[4,3-fg]quinoline-9-carboxamide

> <PUBCHEM_IUPAC_SYSTEMATIC_NAME>
(6aR,9R)-N-[(2S)-1-[[(2S)-1-(3-aminocarbonylpiperidin-1-yl)-3-(4-fluorophenyl)-1-oxidanylidene-propan-2-yl]amino]-3-(4-nitrophenyl)-1-oxidanylidene-propan-2-yl]-7-methyl-6,6a,8,9-tetrahydro-4H-indolo[4,3-fg]quinoline-9-carboxamide

> <PUBCHEM_IUPAC_TRADITIONAL_NAME>
(6aR,9R)-N-[(1S)-2-[[(1S)-2-(3-carbamoylpiperidino)-1-(4-fluorobenzyl)-2-keto-ethyl]amino]-2-keto-1-(4-nitrobenzyl)ethyl]-7-methyl-6,6a,8,9-tetrahydro-4H-indolo[4,3-fg]quinoline-9-carboxamide

> <PUBCHEM_IUPAC_INCHI>
InChI=1S/C40H42FN7O6/c1-46-21-27(18-31-30-5-2-6-32-36(30)26(20-43-32)19-35(31)46)38(50)44-33(16-24-9-13-29(14-10-24)48(53)54)39(51)45-34(17-23-7-11-28(41)12-8-23)40(52)47-15-3-4-25(22-47)37(42)49/h2,5-14,18,20,25,27,33-35,43H,3-4,15-17,19,21-22H2,1H3,(H2,42,49)(H,44,50)(H,45,51)/t25?,27-,33+,34+,35-/m1/s1

> <PUBCHEM_IUPAC_INCHIKEY>
SEGYWWXDIPIQNQ-XRPSMJEVSA-N

> <PUBCHEM_XLOGP3_AA>
3.5

> <PUBCHEM_EXACT_MASS>
735.31806025

> <PUBCHEM_MOLECULAR_FORMULA>
C40H42FN7O6

> <PUBCHEM_MOLECULAR_WEIGHT>
735.8

> <PUBCHEM_OPENEYE_CAN_SMILES>
CN1CC(C=C2C1CC3=CNC4=CC=CC2=C34)C(=O)NC(CC5=CC=C(C=C5)[N+](=O)[O-])C(=O)NC(CC6=CC=C(C=C6)F)C(=O)N7CCCC(C7)C(=O)N

> <PUBCHEM_OPENEYE_ISO_SMILES>
CN1C[C@@H](C=C2[C@H]1CC3=CNC4=CC=CC2=C34)C(=O)N[C@@H](CC5=CC=C(C=C5)[N+](=O)[O-])C(=O)N[C@@H](CC6=CC=C(C=C6)F)C(=O)N7CCCC(C7)C(=O)N

> <PUBCHEM_CACTVS_TPSA>
186

> <PUBCHEM_MONOISOTOPIC_WEIGHT>
735.31806025

> <PUBCHEM_TOTAL_CHARGE>
0

> <PUBCHEM_HEAVY_ATOM_COUNT>
54

> <PUBCHEM_ATOM_DEF_STEREO_COUNT>
4

> <PUBCHEM_ATOM_UDEF_STEREO_COUNT>
1

> <PUBCHEM_BOND_DEF_STEREO_COUNT>
0

> <PUBCHEM_BOND_UDEF_STEREO_COUNT>
0

> <PUBCHEM_ISOTOPIC_ATOM_COUNT>
0

> <PUBCHEM_COMPONENT_COUNT>
1

> <PUBCHEM_CACTVS_TAUTO_COUNT>
-1

> <PUBCHEM_COORDINATE_TYPE>
1
5
255

> <PUBCHEM_BONDANNOTATIONS>
36  11  5
37  12  5
15  55  5
18  27  5
20  22  8
20  26  8
21  22  8
21  28  8
22  24  8
24  34  8
28  35  8
29  39  3
34  35  8
43  45  8
43  46  8
44  47  8
44  48  8
45  49  8
46  50  8
47  51  8
48  52  8
49  53  8
50  53  8
51  54  8
52  54  8
9  24  8
9  26  8

$$$$
