45260725
  -OEChem-09292322502D

 41 43  0     1  0  0  0  0  0999 V2000
    9.2766    3.9872    0.0000 Cl  0  0  0  0  0  0  0  0  0  0  0  0
    2.3081    5.0063    0.0000 O   0  0  0  0  0  0  0  0  0  0  0  0
    4.0288    2.5488    0.0000 O   0  0  0  0  0  0  0  0  0  0  0  0
    4.9358    6.6514    0.0000 N   0  0  0  0  0  0  0  0  0  0  0  0
    4.6770    5.6855    0.0000 C   0  0  0  0  0  0  0  0  0  0  0  0
    3.3043    5.0934    0.0000 C   0  0  3  0  0  0  0  0  0  0  0  0
    2.9623    6.0331    0.0000 C   0  0  0  0  0  0  0  0  0  0  0  0
    6.0760    5.1767    0.0000 C   0  0  0  0  0  0  0  0  0  0  0  0
    3.6992    7.5000    0.0000 C   0  0  0  0  0  0  0  0  0  0  0  0
    6.3348    6.1426    0.0000 C   0  0  0  0  0  0  0  0  0  0  0  0
    4.5652    8.0000    0.0000 C   0  0  0  0  0  0  0  0  0  0  0  0
    3.8779    4.2743    0.0000 C   0  0  0  0  0  0  0  0  0  0  0  0
    3.4553    3.3680    0.0000 C   0  0  0  0  0  0  0  0  0  0  0  0
    1.8855    4.1000    0.0000 C   0  0  0  0  0  0  0  0  0  0  0  0
    2.4591    3.2808    0.0000 C   0  0  0  0  0  0  0  0  0  0  0  0
    2.0364    2.3745    0.0000 C   0  0  0  0  0  0  0  0  0  0  0  0
    1.0403    2.2874    0.0000 C   0  0  0  0  0  0  0  0  0  0  0  0
    2.6100    1.5554    0.0000 C   0  0  0  0  0  0  0  0  0  0  0  0
    0.6176    1.3811    0.0000 C   0  0  0  0  0  0  0  0  0  0  0  0
    2.1874    0.6491    0.0000 C   0  0  0  0  0  0  0  0  0  0  0  0
    1.1912    0.5619    0.0000 C   0  0  0  0  0  0  0  0  0  0  0  0
    5.0824    6.1546    0.0000 H   0  0  0  0  0  0  0  0  0  0  0  0
    2.7680    6.6219    0.0000 H   0  0  0  0  0  0  0  0  0  0  0  0
    2.3765    5.8300    0.0000 H   0  0  0  0  0  0  0  0  0  0  0  0
    5.8810    4.5881    0.0000 H   0  0  0  0  0  0  0  0  0  0  0  0
    6.6699    4.9989    0.0000 H   0  0  0  0  0  0  0  0  0  0  0  0
    3.3945    8.0400    0.0000 H   0  0  0  0  0  0  0  0  0  0  0  0
    3.1563    7.2006    0.0000 H   0  0  0  0  0  0  0  0  0  0  0  0
    6.9287    5.9648    0.0000 H   0  0  0  0  0  0  0  0  0  0  0  0
    6.5297    6.7311    0.0000 H   0  0  0  0  0  0  0  0  0  0  0  0
    5.1470    8.2146    0.0000 H   0  0  0  0  0  0  0  0  0  0  0  0
    4.3020    8.5614    0.0000 H   0  0  0  0  0  0  0  0  0  0  0  0
    4.3858    3.9187    0.0000 H   0  0  0  0  0  0  0  0  0  0  0  0
    4.3163    4.7127    0.0000 H   0  0  0  0  0  0  0  0  0  0  0  0
    1.2678    4.0460    0.0000 H   0  0  0  0  0  0  0  0  0  0  0  0
    0.6846    2.7952    0.0000 H   0  0  0  0  0  0  0  0  0  0  0  0
    3.2277    1.6094    0.0000 H   0  0  0  0  0  0  0  0  0  0  0  0
    0.0000    1.3270    0.0000 H   0  0  0  0  0  0  0  0  0  0  0  0
    2.5430    0.1412    0.0000 H   0  0  0  0  0  0  0  0  0  0  0  0
    0.9292    0.0000    0.0000 H   0  0  0  0  0  0  0  0  0  0  0  0
   10.2766    3.9872    0.0000 H   0  0  0  0  0  0  0  0  0  0  0  0
  1 41  1  0  0  0  0
  2  6  1  0  0  0  0
  2 14  1  0  0  0  0
  3 13  2  0  0  0  0
  4  7  1  0  0  0  0
  4 10  1  0  0  0  0
  4 11  1  0  0  0  0
  5  6  1  0  0  0  0
  5  8  1  0  0  0  0
  5  9  1  0  0  0  0
  5 22  1  0  0  0  0
  6  7  1  0  0  0  0
  6 12  1  0  0  0  0
  7 23  1  0  0  0  0
  7 24  1  0  0  0  0
  8 10  1  0  0  0  0
  8 25  1  0  0  0  0
  8 26  1  0  0  0  0
  9 11  1  0  0  0  0
  9 27  1  0  0  0  0
  9 28  1  0  0  0  0
 10 29  1  0  0  0  0
 10 30  1  0  0  0  0
 11 31  1  0  0  0  0
 11 32  1  0  0  0  0
 12 13  1  0  0  0  0
 12 33  1  0  0  0  0
 12 34  1  0  0  0  0
 13 15  1  0  0  0  0
 14 15  2  0  0  0  0
 14 35  1  0  0  0  0
 15 16  1  0  0  0  0
 16 17  2  0  0  0  0
 16 18  1  0  0  0  0
 17 19  1  0  0  0  0
 17 36  1  0  0  0  0
 18 20  2  0  0  0  0
 18 37  1  0  0  0  0
 19 21  2  0  0  0  0
 19 38  1  0  0  0  0
 20 21  1  0  0  0  0
 20 39  1  0  0  0  0
 21 40  1  0  0  0  0
M  END
> <PUBCHEM_COMPOUND_CID>
45260725

> <PUBCHEM_COMPOUND_CANONICALIZED>
1

> <PUBCHEM_CACTVS_COMPLEXITY>
430

> <PUBCHEM_CACTVS_HBOND_ACCEPTOR>
3

> <PUBCHEM_CACTVS_HBOND_DONOR>
1

> <PUBCHEM_CACTVS_ROTATABLE_BOND>
1

> <PUBCHEM_CACTVS_SUBSKEYS>
AAADceB6MAAEAAAAAAAAAAAAAAAAAAAAAAA8WLECAAAAAAABAAAAHgAAAAAADUThmAYwAIMABACIAqBSAAACCAAgIAAIiAEIAMgKIDaAlRCFIAAkoACYiIe8yPCOgAAAAAAAAAAAAAAAAAAAAAAAAAAAAA==

> <PUBCHEM_IUPAC_OPENEYE_NAME>
5-phenylspiro[3H-pyran-2,3'-quinuclidine]-4-one;hydrochloride

> <PUBCHEM_IUPAC_CAS_NAME>
5'-phenyl-4'-spiro[1-azabicyclo[2.2.2]octane-3,2'-3H-pyran]one;hydrochloride

> <PUBCHEM_IUPAC_NAME_MARKUP>
5&apos;-phenylspiro[1-azabicyclo[2.2.2]octane-3,2&apos;-3<I>H</I>-pyran]-4&apos;-one;hydrochloride

> <PUBCHEM_IUPAC_NAME>
5'-phenylspiro[1-azabicyclo[2.2.2]octane-3,2'-3H-pyran]-4'-one;hydrochloride

> <PUBCHEM_IUPAC_SYSTEMATIC_NAME>
5'-phenylspiro[1-azabicyclo[2.2.2]octane-3,2'-3H-pyran]-4'-one;hydrochloride

> <PUBCHEM_IUPAC_TRADITIONAL_NAME>
5-phenylspiro[3H-pyran-2,3'-quinuclidine]-4-one;hydrochloride

> <PUBCHEM_IUPAC_INCHI>
InChI=1S/C17H19NO2.ClH/c19-16-10-17(12-18-8-6-14(17)7-9-18)20-11-15(16)13-4-2-1-3-5-13;/h1-5,11,14H,6-10,12H2;1H

> <PUBCHEM_IUPAC_INCHIKEY>
BUPUVZSTACAENO-UHFFFAOYSA-N

> <PUBCHEM_EXACT_MASS>
305.1182566

> <PUBCHEM_MOLECULAR_FORMULA>
C17H20ClNO2

> <PUBCHEM_MOLECULAR_WEIGHT>
305.8

> <PUBCHEM_OPENEYE_CAN_SMILES>
C1CN2CCC1C3(C2)CC(=O)C(=CO3)C4=CC=CC=C4.Cl

> <PUBCHEM_OPENEYE_ISO_SMILES>
C1CN2CCC1C3(C2)CC(=O)C(=CO3)C4=CC=CC=C4.Cl

> <PUBCHEM_CACTVS_TPSA>
29.5

> <PUBCHEM_MONOISOTOPIC_WEIGHT>
305.1182566

> <PUBCHEM_TOTAL_CHARGE>
0

> <PUBCHEM_HEAVY_ATOM_COUNT>
21

> <PUBCHEM_ATOM_DEF_STEREO_COUNT>
0

> <PUBCHEM_ATOM_UDEF_STEREO_COUNT>
1

> <PUBCHEM_BOND_DEF_STEREO_COUNT>
0

> <PUBCHEM_BOND_UDEF_STEREO_COUNT>
0

> <PUBCHEM_ISOTOPIC_ATOM_COUNT>
0

> <PUBCHEM_COMPONENT_COUNT>
2

> <PUBCHEM_CACTVS_TAUTO_COUNT>
-1

> <PUBCHEM_COORDINATE_TYPE>
1
5
255

> <PUBCHEM_BONDANNOTATIONS>
16  17  8
16  18  8
17  19  8
18  20  8
19  21  8
20  21  8
6  12  3

$$$$
