46232067
  -OEChem-09292322292D

 60 64  0     1  0  0  0  0  0999 V2000
    2.1374    3.2074    0.0000 Cl  0  0  0  0  0  0  0  0  0  0  0  0
    2.5932    1.2104    0.0000 O   0  0  0  0  0  0  0  0  0  0  0  0
    7.0983    3.2892    0.0000 N   0  0  3  0  0  0  0  0  0  0  0  0
    9.9779   -3.0735    0.0000 N   0  0  0  0  0  0  0  0  0  0  0  0
    6.8758    2.3142    0.0000 C   0  0  2  0  0  0  0  0  0  0  0  0
    5.9748    1.8804    0.0000 C   0  0  2  0  0  0  0  0  0  0  0  0
    7.7453    1.7408    0.0000 C   0  0  0  0  0  0  0  0  0  0  0  0
    5.8810    0.8430    0.0000 C   0  0  0  0  0  0  0  0  0  0  0  0
    7.6755    0.7015    0.0000 C   0  0  0  0  0  0  0  0  0  0  0  0
    5.0738    2.3142    0.0000 C   0  0  0  0  0  0  0  0  0  0  0  0
    6.7370    0.2496    0.0000 C   0  0  0  0  0  0  0  0  0  0  0  0
    6.4748    4.0710    0.0000 C   0  0  0  0  0  0  0  0  0  0  0  0
    4.8513    3.2892    0.0000 C   0  0  0  0  0  0  0  0  0  0  0  0
    5.4748    4.0710    0.0000 C   0  0  0  0  0  0  0  0  0  0  0  0
    6.6643   -0.8330    0.0000 C   0  0  0  0  0  0  0  0  0  0  0  0
    4.8928    0.3949    0.0000 C   0  0  0  0  0  0  0  0  0  0  0  0
    8.0732    3.5117    0.0000 C   0  0  0  0  0  0  0  0  0  0  0  0
    4.3213    1.5941    0.0000 C   0  0  0  0  0  0  0  0  0  0  0  0
    3.8608    3.6115    0.0000 C   0  0  0  0  0  0  0  0  0  0  0  0
    5.6868   -1.3038    0.0000 C   0  0  0  0  0  0  0  0  0  0  0  0
    4.7950   -0.6857    0.0000 C   0  0  0  0  0  0  0  0  0  0  0  0
    3.3236    1.8934    0.0000 C   0  0  0  0  0  0  0  0  0  0  0  0
    7.4927   -1.3931    0.0000 C   0  0  0  0  0  0  0  0  0  0  0  0
    3.0918    2.9089    0.0000 C   0  0  0  0  0  0  0  0  0  0  0  0
    8.3920   -0.9558    0.0000 C   0  0  0  0  0  0  0  0  0  0  0  0
    7.4218   -2.3906    0.0000 C   0  0  0  0  0  0  0  0  0  0  0  0
    9.2204   -1.5159    0.0000 C   0  0  0  0  0  0  0  0  0  0  0  0
    8.2502   -2.9507    0.0000 C   0  0  0  0  0  0  0  0  0  0  0  0
    9.1495   -2.5134    0.0000 C   0  0  0  0  0  0  0  0  0  0  0  0
    9.9070   -4.0710    0.0000 C   0  0  0  0  0  0  0  0  0  0  0  0
   10.8772   -2.6362    0.0000 C   0  0  0  0  0  0  0  0  0  0  0  0
    7.6646    2.6309    0.0000 H   0  0  0  0  0  0  0  0  0  0  0  0
    5.2354    1.4610    0.0000 H   0  0  0  0  0  0  0  0  0  0  0  0
    8.3477    1.5940    0.0000 H   0  0  0  0  0  0  0  0  0  0  0  0
    7.9931    2.3092    0.0000 H   0  0  0  0  0  0  0  0  0  0  0  0
    7.8450    0.1051    0.0000 H   0  0  0  0  0  0  0  0  0  0  0  0
    8.2921    0.7664    0.0000 H   0  0  0  0  0  0  0  0  0  0  0  0
    7.0334    4.3400    0.0000 H   0  0  0  0  0  0  0  0  0  0  0  0
    6.3368    4.6754    0.0000 H   0  0  0  0  0  0  0  0  0  0  0  0
    5.6128    4.6754    0.0000 H   0  0  0  0  0  0  0  0  0  0  0  0
    4.9162    4.3400    0.0000 H   0  0  0  0  0  0  0  0  0  0  0  0
    4.3873    0.7540    0.0000 H   0  0  0  0  0  0  0  0  0  0  0  0
    8.2112    2.9072    0.0000 H   0  0  0  0  0  0  0  0  0  0  0  0
    8.6777    3.6496    0.0000 H   0  0  0  0  0  0  0  0  0  0  0  0
    7.9352    4.1161    0.0000 H   0  0  0  0  0  0  0  0  0  0  0  0
    4.4662    0.9912    0.0000 H   0  0  0  0  0  0  0  0  0  0  0  0
    3.7298    4.2175    0.0000 H   0  0  0  0  0  0  0  0  0  0  0  0
    5.6380   -1.9218    0.0000 H   0  0  0  0  0  0  0  0  0  0  0  0
    4.2334   -0.9482    0.0000 H   0  0  0  0  0  0  0  0  0  0  0  0
    8.4359   -0.3373    0.0000 H   0  0  0  0  0  0  0  0  0  0  0  0
    6.8643   -2.6618    0.0000 H   0  0  0  0  0  0  0  0  0  0  0  0
    2.0000    1.3909    0.0000 H   0  0  0  0  0  0  0  0  0  0  0  0
    9.7780   -1.2447    0.0000 H   0  0  0  0  0  0  0  0  0  0  0  0
    8.2063   -3.5692    0.0000 H   0  0  0  0  0  0  0  0  0  0  0  0
    9.2886   -4.0270    0.0000 H   0  0  0  0  0  0  0  0  0  0  0  0
    9.8631   -4.6894    0.0000 H   0  0  0  0  0  0  0  0  0  0  0  0
   10.5255   -4.1149    0.0000 H   0  0  0  0  0  0  0  0  0  0  0  0
   11.1484   -3.1937    0.0000 H   0  0  0  0  0  0  0  0  0  0  0  0
   11.4348   -2.3650    0.0000 H   0  0  0  0  0  0  0  0  0  0  0  0
   10.6060   -2.0786    0.0000 H   0  0  0  0  0  0  0  0  0  0  0  0
  1 24  1  0  0  0  0
  2 22  1  0  0  0  0
  2 52  1  0  0  0  0
  3  5  1  0  0  0  0
  3 12  1  0  0  0  0
  3 17  1  0  0  0  0
  4 29  1  0  0  0  0
  4 30  1  0  0  0  0
  4 31  1  0  0  0  0
  5  6  1  0  0  0  0
  5  7  1  0  0  0  0
  5 32  1  6  0  0  0
  6  8  1  0  0  0  0
  6 10  1  0  0  0  0
  6 33  1  1  0  0  0
  7  9  1  0  0  0  0
  7 34  1  0  0  0  0
  7 35  1  0  0  0  0
  8 11  1  0  0  0  0
  8 16  2  0  0  0  0
  9 11  1  0  0  0  0
  9 36  1  0  0  0  0
  9 37  1  0  0  0  0
 10 13  1  0  0  0  0
 10 18  2  0  0  0  0
 11 15  2  0  0  0  0
 12 14  1  0  0  0  0
 12 38  1  0  0  0  0
 12 39  1  0  0  0  0
 13 14  1  0  0  0  0
 13 19  2  0  0  0  0
 14 40  1  0  0  0  0
 14 41  1  0  0  0  0
 15 20  1  0  0  0  0
 15 23  1  0  0  0  0
 16 21  1  0  0  0  0
 16 42  1  0  0  0  0
 17 43  1  0  0  0  0
 17 44  1  0  0  0  0
 17 45  1  0  0  0  0
 18 22  1  0  0  0  0
 18 46  1  0  0  0  0
 19 24  1  0  0  0  0
 19 47  1  0  0  0  0
 20 21  2  0  0  0  0
 20 48  1  0  0  0  0
 21 49  1  0  0  0  0
 22 24  2  0  0  0  0
 23 25  2  0  0  0  0
 23 26  1  0  0  0  0
 25 27  1  0  0  0  0
 25 50  1  0  0  0  0
 26 28  2  0  0  0  0
 26 51  1  0  0  0  0
 27 29  2  0  0  0  0
 27 53  1  0  0  0  0
 28 29  1  0  0  0  0
 28 54  1  0  0  0  0
 30 55  1  0  0  0  0
 30 56  1  0  0  0  0
 30 57  1  0  0  0  0
 31 58  1  0  0  0  0
 31 59  1  0  0  0  0
 31 60  1  0  0  0  0
M  END
> <PUBCHEM_COMPOUND_CID>
46232067

> <PUBCHEM_COMPOUND_CANONICALIZED>
1

> <PUBCHEM_CACTVS_COMPLEXITY>
606

> <PUBCHEM_CACTVS_HBOND_ACCEPTOR>
3

> <PUBCHEM_CACTVS_HBOND_DONOR>
1

> <PUBCHEM_CACTVS_ROTATABLE_BOND>
2

> <PUBCHEM_CACTVS_SUBSKEYS>
AAADceB7IAAEAAAAAAAAAAAAAAAAAAAAAAAwYMGABYAAAADBUAAAHgIACAAADS7BmCQyxoMAAgCAAiRCQACCAAAhJ0AIiAAOb4gIJiLDk5OEcAhkwBHI2AeQ0PMOrAADIAAQCABYAAbAACQQAAAAAAAAAA==

> <PUBCHEM_IUPAC_OPENEYE_NAME>
(6aS,13bS)-11-chloro-4-[4-(dimethylamino)phenyl]-7-methyl-5,6,6a,8,9,13b-hexahydronaphtho[1,2-a][3]benzazepin-12-ol

> <PUBCHEM_IUPAC_CAS_NAME>
(6aS,13bS)-11-chloro-4-[4-(dimethylamino)phenyl]-7-methyl-5,6,6a,8,9,13b-hexahydronaphtho[1,2-a][3]benzazepin-12-ol

> <PUBCHEM_IUPAC_NAME_MARKUP>
(6<I>a</I><I>S</I>,13<I>b</I><I>S</I>)-11-chloro-4-[4-(dimethylamino)phenyl]-7-methyl-5,6,6<I>a</I>,8,9,13<I>b</I>-hexahydronaphtho[1,2-a][3]benzazepin-12-ol

> <PUBCHEM_IUPAC_NAME>
(6aS,13bS)-11-chloro-4-[4-(dimethylamino)phenyl]-7-methyl-5,6,6a,8,9,13b-hexahydronaphtho[1,2-a][3]benzazepin-12-ol

> <PUBCHEM_IUPAC_SYSTEMATIC_NAME>
(6aS,13bS)-11-chloranyl-4-[4-(dimethylamino)phenyl]-7-methyl-5,6,6a,8,9,13b-hexahydronaphtho[1,2-a][3]benzazepin-12-ol

> <PUBCHEM_IUPAC_TRADITIONAL_NAME>
(6aS,13bS)-11-chloro-4-[4-(dimethylamino)phenyl]-7-methyl-5,6,6a,8,9,13b-hexahydronaphtho[1,2-a][3]benzazepin-12-ol

> <PUBCHEM_IUPAC_INCHI>
InChI=1S/C27H29ClN2O/c1-29(2)19-9-7-17(8-10-19)20-5-4-6-22-21(20)11-12-25-27(22)23-16-26(31)24(28)15-18(23)13-14-30(25)3/h4-10,15-16,25,27,31H,11-14H2,1-3H3/t25-,27+/m0/s1

> <PUBCHEM_IUPAC_INCHIKEY>
KMTWVLYZPPJEHR-AHKZPQOWSA-N

> <PUBCHEM_XLOGP3_AA>
6.2

> <PUBCHEM_EXACT_MASS>
432.1968412

> <PUBCHEM_MOLECULAR_FORMULA>
C27H29ClN2O

> <PUBCHEM_MOLECULAR_WEIGHT>
433.0

> <PUBCHEM_OPENEYE_CAN_SMILES>
CN1CCC2=CC(=C(C=C2C3C1CCC4=C(C=CC=C34)C5=CC=C(C=C5)N(C)C)O)Cl

> <PUBCHEM_OPENEYE_ISO_SMILES>
CN1CCC2=CC(=C(C=C2[C@@H]3[C@@H]1CCC4=C(C=CC=C34)C5=CC=C(C=C5)N(C)C)O)Cl

> <PUBCHEM_CACTVS_TPSA>
26.7

> <PUBCHEM_MONOISOTOPIC_WEIGHT>
432.1968412

> <PUBCHEM_TOTAL_CHARGE>
0

> <PUBCHEM_HEAVY_ATOM_COUNT>
31

> <PUBCHEM_ATOM_DEF_STEREO_COUNT>
2

> <PUBCHEM_ATOM_UDEF_STEREO_COUNT>
0

> <PUBCHEM_BOND_DEF_STEREO_COUNT>
0

> <PUBCHEM_BOND_UDEF_STEREO_COUNT>
0

> <PUBCHEM_ISOTOPIC_ATOM_COUNT>
0

> <PUBCHEM_COMPONENT_COUNT>
1

> <PUBCHEM_CACTVS_TAUTO_COUNT>
-1

> <PUBCHEM_COORDINATE_TYPE>
1
5
255

> <PUBCHEM_BONDANNOTATIONS>
10  13  8
10  18  8
11  15  8
13  19  8
15  20  8
16  21  8
18  22  8
19  24  8
20  21  8
22  24  8
23  25  8
23  26  8
25  27  8
26  28  8
27  29  8
28  29  8
5  32  6
6  33  5
8  11  8
8  16  8

$$$$
