136020061
  -OEChem-09292322052D

114121  0     0  0  0  0  0  0999 V2000
    2.0000   10.0623    0.0000 Cl  0  0  0  0  0  0  0  0  0  0  0  0
   12.8058  -10.0623    0.0000 Cl  0  0  0  0  0  0  0  0  0  0  0  0
    8.8112    2.0656    0.0000 O   0  0  0  0  0  0  0  0  0  0  0  0
    5.9946   -2.0656    0.0000 O   0  0  0  0  0  0  0  0  0  0  0  0
    7.6390    6.4957    0.0000 N   0  0  0  0  0  0  0  0  0  0  0  0
    7.1668   -6.4957    0.0000 N   0  0  0  0  0  0  0  0  0  0  0  0
    6.7713    8.2977    0.0000 N   0  0  0  0  0  0  0  0  0  0  0  0
    8.0345   -8.2977    0.0000 N   0  0  0  0  0  0  0  0  0  0  0  0
    5.3374    9.1986    0.0000 N   0  0  0  0  0  0  0  0  0  0  0  0
    9.4684   -9.1986    0.0000 N   0  0  0  0  0  0  0  0  0  0  0  0
    7.3802    3.0413    0.0000 N   0  0  0  0  0  0  0  0  0  0  0  0
    7.4257   -3.0413    0.0000 N   0  0  0  0  0  0  0  0  0  0  0  0
    5.8374   11.3893    0.0000 N   0  0  0  0  0  0  0  0  0  0  0  0
    8.9684  -11.3893    0.0000 N   0  0  0  0  0  0  0  0  0  0  0  0
    6.6418    6.5704    0.0000 C   0  0  0  0  0  0  0  0  0  0  0  0
    8.2024    7.3219    0.0000 C   0  0  0  0  0  0  0  0  0  0  0  0
    6.6035   -7.3219    0.0000 C   0  0  0  0  0  0  0  0  0  0  0  0
    8.1640   -6.5704    0.0000 C   0  0  0  0  0  0  0  0  0  0  0  0
    6.2080    7.4714    0.0000 C   0  0  0  0  0  0  0  0  0  0  0  0
    7.7685    8.2229    0.0000 C   0  0  0  0  0  0  0  0  0  0  0  0
    7.0373   -8.2229    0.0000 C   0  0  0  0  0  0  0  0  0  0  0  0
    8.5979   -7.4714    0.0000 C   0  0  0  0  0  0  0  0  0  0  0  0
    8.0729    5.5947    0.0000 C   0  0  0  0  0  0  0  0  0  0  0  0
    6.7329   -5.5947    0.0000 C   0  0  0  0  0  0  0  0  0  0  0  0
    7.5096    4.7685    0.0000 C   0  0  0  0  0  0  0  0  0  0  0  0
    7.2962   -4.7685    0.0000 C   0  0  0  0  0  0  0  0  0  0  0  0
    6.3374    9.1986    0.0000 C   0  0  0  0  0  0  0  0  0  0  0  0
    8.4684   -9.1986    0.0000 C   0  0  0  0  0  0  0  0  0  0  0  0
    7.9435    3.8675    0.0000 C   0  0  0  0  0  0  0  0  0  0  0  0
    6.8624   -3.8675    0.0000 C   0  0  0  0  0  0  0  0  0  0  0  0
    6.9609    9.9804    0.0000 C   0  0  0  0  0  0  0  0  0  0  0  0
    7.8449   -9.9804    0.0000 C   0  0  0  0  0  0  0  0  0  0  0  0
    6.7384   10.9554    0.0000 C   0  0  0  0  0  0  0  0  0  0  0  0
    8.0674  -10.9554    0.0000 C   0  0  0  0  0  0  0  0  0  0  0  0
    4.7139    9.9805    0.0000 C   0  0  0  0  0  0  0  0  0  0  0  0
   10.0919   -9.9805    0.0000 C   0  0  0  0  0  0  0  0  0  0  0  0
    7.9514    9.6581    0.0000 C   0  0  0  0  0  0  0  0  0  0  0  0
    6.8544   -9.6581    0.0000 C   0  0  0  0  0  0  0  0  0  0  0  0
    4.9365   10.9554    0.0000 C   0  0  0  0  0  0  0  0  0  0  0  0
    9.8694  -10.9554    0.0000 C   0  0  0  0  0  0  0  0  0  0  0  0
    7.6846    0.4131    0.0000 C   0  0  0  0  0  0  0  0  0  0  0  0
    7.1213   -0.4131    0.0000 C   0  0  0  0  0  0  0  0  0  0  0  0
    7.2507    1.3141    0.0000 C   0  0  0  0  0  0  0  0  0  0  0  0
    7.5551   -1.3141    0.0000 C   0  0  0  0  0  0  0  0  0  0  0  0
    7.8140    2.1403    0.0000 C   0  0  0  0  0  0  0  0  0  0  0  0
    6.9918   -2.1403    0.0000 C   0  0  0  0  0  0  0  0  0  0  0  0
    7.4910   11.6756    0.0000 C   0  0  0  0  0  0  0  0  0  0  0  0
    7.3149  -11.6756    0.0000 C   0  0  0  0  0  0  0  0  0  0  0  0
    8.7204   10.3607    0.0000 C   0  0  0  0  0  0  0  0  0  0  0  0
    6.0854  -10.3607    0.0000 C   0  0  0  0  0  0  0  0  0  0  0  0
    8.4887   11.3762    0.0000 C   0  0  0  0  0  0  0  0  0  0  0  0
    6.3172  -11.3762    0.0000 C   0  0  0  0  0  0  0  0  0  0  0  0
    3.7234    9.6581    0.0000 C   0  0  0  0  0  0  0  0  0  0  0  0
   11.0824   -9.6581    0.0000 C   0  0  0  0  0  0  0  0  0  0  0  0
    4.1839   11.6756    0.0000 C   0  0  0  0  0  0  0  0  0  0  0  0
   10.6219  -11.6756    0.0000 C   0  0  0  0  0  0  0  0  0  0  0  0
    2.9544   10.3607    0.0000 C   0  0  0  0  0  0  0  0  0  0  0  0
   11.8514  -10.3607    0.0000 C   0  0  0  0  0  0  0  0  0  0  0  0
    3.1862   11.3762    0.0000 C   0  0  0  0  0  0  0  0  0  0  0  0
   11.6196  -11.3762    0.0000 C   0  0  0  0  0  0  0  0  0  0  0  0
    6.0450    6.4025    0.0000 H   0  0  0  0  0  0  0  0  0  0  0  0
    6.7036    5.9535    0.0000 H   0  0  0  0  0  0  0  0  0  0  0  0
    8.6462    6.8890    0.0000 H   0  0  0  0  0  0  0  0  0  0  0  0
    8.7058    7.6839    0.0000 H   0  0  0  0  0  0  0  0  0  0  0  0
    6.1596   -6.8890    0.0000 H   0  0  0  0  0  0  0  0  0  0  0  0
    6.1001   -7.6839    0.0000 H   0  0  0  0  0  0  0  0  0  0  0  0
    8.7608   -6.4025    0.0000 H   0  0  0  0  0  0  0  0  0  0  0  0
    8.1023   -5.9535    0.0000 H   0  0  0  0  0  0  0  0  0  0  0  0
    5.7641    7.9043    0.0000 H   0  0  0  0  0  0  0  0  0  0  0  0
    5.7046    7.1095    0.0000 H   0  0  0  0  0  0  0  0  0  0  0  0
    8.3653    8.3908    0.0000 H   0  0  0  0  0  0  0  0  0  0  0  0
    7.7068    8.8398    0.0000 H   0  0  0  0  0  0  0  0  0  0  0  0
    6.4405   -8.3908    0.0000 H   0  0  0  0  0  0  0  0  0  0  0  0
    7.0991   -8.8398    0.0000 H   0  0  0  0  0  0  0  0  0  0  0  0
    9.0417   -7.9043    0.0000 H   0  0  0  0  0  0  0  0  0  0  0  0
    9.1013   -7.1095    0.0000 H   0  0  0  0  0  0  0  0  0  0  0  0
    8.5168    5.1618    0.0000 H   0  0  0  0  0  0  0  0  0  0  0  0
    8.5763    5.9567    0.0000 H   0  0  0  0  0  0  0  0  0  0  0  0
    6.2891   -5.1618    0.0000 H   0  0  0  0  0  0  0  0  0  0  0  0
    6.2295   -5.9567    0.0000 H   0  0  0  0  0  0  0  0  0  0  0  0
    7.0658    5.2014    0.0000 H   0  0  0  0  0  0  0  0  0  0  0  0
    7.0062    4.4066    0.0000 H   0  0  0  0  0  0  0  0  0  0  0  0
    7.7401   -5.2014    0.0000 H   0  0  0  0  0  0  0  0  0  0  0  0
    7.7996   -4.4066    0.0000 H   0  0  0  0  0  0  0  0  0  0  0  0
    8.3873    3.4346    0.0000 H   0  0  0  0  0  0  0  0  0  0  0  0
    8.4469    4.2294    0.0000 H   0  0  0  0  0  0  0  0  0  0  0  0
    6.4185   -3.4346    0.0000 H   0  0  0  0  0  0  0  0  0  0  0  0
    6.3590   -4.2294    0.0000 H   0  0  0  0  0  0  0  0  0  0  0  0
    6.7619    3.0876    0.0000 H   0  0  0  0  0  0  0  0  0  0  0  0
    8.0440   -3.0876    0.0000 H   0  0  0  0  0  0  0  0  0  0  0  0
    8.0824    9.0521    0.0000 H   0  0  0  0  0  0  0  0  0  0  0  0
    6.7235   -9.0521    0.0000 H   0  0  0  0  0  0  0  0  0  0  0  0
    5.8374   12.0093    0.0000 H   0  0  0  0  0  0  0  0  0  0  0  0
    8.9684  -12.0093    0.0000 H   0  0  0  0  0  0  0  0  0  0  0  0
    8.1284   -0.0198    0.0000 H   0  0  0  0  0  0  0  0  0  0  0  0
    8.1880    0.7750    0.0000 H   0  0  0  0  0  0  0  0  0  0  0  0
    6.6774    0.0198    0.0000 H   0  0  0  0  0  0  0  0  0  0  0  0
    6.6178   -0.7750    0.0000 H   0  0  0  0  0  0  0  0  0  0  0  0
    6.8069    1.7470    0.0000 H   0  0  0  0  0  0  0  0  0  0  0  0
    6.7473    0.9522    0.0000 H   0  0  0  0  0  0  0  0  0  0  0  0
    7.9990   -1.7470    0.0000 H   0  0  0  0  0  0  0  0  0  0  0  0
    8.0585   -0.9522    0.0000 H   0  0  0  0  0  0  0  0  0  0  0  0
    7.3460   12.2784    0.0000 H   0  0  0  0  0  0  0  0  0  0  0  0
    7.4598  -12.2784    0.0000 H   0  0  0  0  0  0  0  0  0  0  0  0
    9.3122   10.1757    0.0000 H   0  0  0  0  0  0  0  0  0  0  0  0
    5.4937  -10.1757    0.0000 H   0  0  0  0  0  0  0  0  0  0  0  0
    8.9415   11.7997    0.0000 H   0  0  0  0  0  0  0  0  0  0  0  0
    5.8643  -11.7997    0.0000 H   0  0  0  0  0  0  0  0  0  0  0  0
    3.5925    9.0521    0.0000 H   0  0  0  0  0  0  0  0  0  0  0  0
   11.2134   -9.0521    0.0000 H   0  0  0  0  0  0  0  0  0  0  0  0
    4.3289   12.2784    0.0000 H   0  0  0  0  0  0  0  0  0  0  0  0
   10.4770  -12.2784    0.0000 H   0  0  0  0  0  0  0  0  0  0  0  0
    2.7334   11.7997    0.0000 H   0  0  0  0  0  0  0  0  0  0  0  0
   12.0725  -11.7997    0.0000 H   0  0  0  0  0  0  0  0  0  0  0  0
  1 57  1  0  0  0  0
  2 58  1  0  0  0  0
  3 45  2  0  0  0  0
  4 46  2  0  0  0  0
  5 15  1  0  0  0  0
  5 16  1  0  0  0  0
  5 23  1  0  0  0  0
  6 17  1  0  0  0  0
  6 18  1  0  0  0  0
  6 24  1  0  0  0  0
  7 19  1  0  0  0  0
  7 20  1  0  0  0  0
  7 27  1  0  0  0  0
  8 21  1  0  0  0  0
  8 22  1  0  0  0  0
  8 28  1  0  0  0  0
  9 27  2  0  0  0  0
  9 35  1  0  0  0  0
 10 28  2  0  0  0  0
 10 36  1  0  0  0  0
 11 29  1  0  0  0  0
 11 45  1  0  0  0  0
 11 89  1  0  0  0  0
 12 30  1  0  0  0  0
 12 46  1  0  0  0  0
 12 90  1  0  0  0  0
 13 33  1  0  0  0  0
 13 39  1  0  0  0  0
 13 93  1  0  0  0  0
 14 34  1  0  0  0  0
 14 40  1  0  0  0  0
 14 94  1  0  0  0  0
 15 19  1  0  0  0  0
 15 61  1  0  0  0  0
 15 62  1  0  0  0  0
 16 20  1  0  0  0  0
 16 63  1  0  0  0  0
 16 64  1  0  0  0  0
 17 21  1  0  0  0  0
 17 65  1  0  0  0  0
 17 66  1  0  0  0  0
 18 22  1  0  0  0  0
 18 67  1  0  0  0  0
 18 68  1  0  0  0  0
 19 69  1  0  0  0  0
 19 70  1  0  0  0  0
 20 71  1  0  0  0  0
 20 72  1  0  0  0  0
 21 73  1  0  0  0  0
 21 74  1  0  0  0  0
 22 75  1  0  0  0  0
 22 76  1  0  0  0  0
 23 25  1  0  0  0  0
 23 77  1  0  0  0  0
 23 78  1  0  0  0  0
 24 26  1  0  0  0  0
 24 79  1  0  0  0  0
 24 80  1  0  0  0  0
 25 29  1  0  0  0  0
 25 81  1  0  0  0  0
 25 82  1  0  0  0  0
 26 30  1  0  0  0  0
 26 83  1  0  0  0  0
 26 84  1  0  0  0  0
 27 31  1  0  0  0  0
 28 32  1  0  0  0  0
 29 85  1  0  0  0  0
 29 86  1  0  0  0  0
 30 87  1  0  0  0  0
 30 88  1  0  0  0  0
 31 33  1  0  0  0  0
 31 37  2  0  0  0  0
 32 34  1  0  0  0  0
 32 38  2  0  0  0  0
 33 47  2  0  0  0  0
 34 48  2  0  0  0  0
 35 39  2  0  0  0  0
 35 53  1  0  0  0  0
 36 40  2  0  0  0  0
 36 54  1  0  0  0  0
 37 49  1  0  0  0  0
 37 91  1  0  0  0  0
 38 50  1  0  0  0  0
 38 92  1  0  0  0  0
 39 55  1  0  0  0  0
 40 56  1  0  0  0  0
 41 42  1  0  0  0  0
 41 43  1  0  0  0  0
 41 95  1  0  0  0  0
 41 96  1  0  0  0  0
 42 44  1  0  0  0  0
 42 97  1  0  0  0  0
 42 98  1  0  0  0  0
 43 45  1  0  0  0  0
 43 99  1  0  0  0  0
 43100  1  0  0  0  0
 44 46  1  0  0  0  0
 44101  1  0  0  0  0
 44102  1  0  0  0  0
 47 51  1  0  0  0  0
 47103  1  0  0  0  0
 48 52  1  0  0  0  0
 48104  1  0  0  0  0
 49 51  2  0  0  0  0
 49105  1  0  0  0  0
 50 52  2  0  0  0  0
 50106  1  0  0  0  0
 51107  1  0  0  0  0
 52108  1  0  0  0  0
 53 57  2  0  0  0  0
 53109  1  0  0  0  0
 54 58  2  0  0  0  0
 54110  1  0  0  0  0
 55 59  2  0  0  0  0
 55111  1  0  0  0  0
 56 60  2  0  0  0  0
 56112  1  0  0  0  0
 57 59  1  0  0  0  0
 58 60  1  0  0  0  0
 59113  1  0  0  0  0
 60114  1  0  0  0  0
M  END
> <PUBCHEM_COMPOUND_CID>
136020061

> <PUBCHEM_COMPOUND_CANONICALIZED>
1

> <PUBCHEM_CACTVS_COMPLEXITY>
1350

> <PUBCHEM_CACTVS_HBOND_ACCEPTOR>
8

> <PUBCHEM_CACTVS_HBOND_DONOR>
4

> <PUBCHEM_CACTVS_ROTATABLE_BOND>
15

> <PUBCHEM_CACTVS_SUBSKEYS>
AAADcfB/8AAGAAAAAAAAAAAAAAAAAAAAAAA8eMGCBAgAAAABVAAAHgIQAAAADArBmCQxwIPAAACoAidydACCAAEhBwAJiIEodpgIYPLB25GUIAhglgDIyAcYiAAOAABAAAICACAAAIAABAQAQAAAAAAAAA==

> <PUBCHEM_IUPAC_OPENEYE_NAME>
N,N'-bis[3-[4-(3-chloro-11H-benzo[b][1,4]benzodiazepin-6-yl)piperazin-1-yl]propyl]hexanediamide

> <PUBCHEM_IUPAC_CAS_NAME>
N,N'-bis[3-[4-(3-chloro-11H-benzo[b][1,4]benzodiazepin-6-yl)-1-piperazinyl]propyl]hexanediamide

> <PUBCHEM_IUPAC_NAME_MARKUP>
<I>N</I>,<I>N</I>&apos;-bis[3-[4-(3-chloro-11<I>H</I>-benzo[b][1,4]benzodiazepin-6-yl)piperazin-1-yl]propyl]hexanediamide

> <PUBCHEM_IUPAC_NAME>
N,N'-bis[3-[4-(3-chloro-11H-benzo[b][1,4]benzodiazepin-6-yl)piperazin-1-yl]propyl]hexanediamide

> <PUBCHEM_IUPAC_SYSTEMATIC_NAME>
N,N'-bis[3-[4-(3-chloranyl-11H-benzo[b][1,4]benzodiazepin-6-yl)piperazin-1-yl]propyl]hexanediamide

> <PUBCHEM_IUPAC_TRADITIONAL_NAME>
N,N'-bis[3-[4-(3-chloro-11H-benzo[b][1,4]benzodiazepin-6-yl)piperazino]propyl]adipamide

> <PUBCHEM_IUPAC_INCHI>
InChI=1S/C46H54Cl2N10O2/c47-33-15-17-39-41(31-33)53-45(35-9-1-3-11-37(35)51-39)57-27-23-55(24-28-57)21-7-19-49-43(59)13-5-6-14-44(60)50-20-8-22-56-25-29-58(30-26-56)46-36-10-2-4-12-38(36)52-40-18-16-34(48)32-42(40)54-46/h1-4,9-12,15-18,31-32,51-52H,5-8,13-14,19-30H2,(H,49,59)(H,50,60)

> <PUBCHEM_IUPAC_INCHIKEY>
DBYROHXTWXIWAR-UHFFFAOYSA-N

> <PUBCHEM_XLOGP3_AA>
5.8

> <PUBCHEM_EXACT_MASS>
848.3808264

> <PUBCHEM_MOLECULAR_FORMULA>
C46H54Cl2N10O2

> <PUBCHEM_MOLECULAR_WEIGHT>
849.9

> <PUBCHEM_OPENEYE_CAN_SMILES>
C1CN(CCN1CCCNC(=O)CCCCC(=O)NCCCN2CCN(CC2)C3=NC4=C(C=CC(=C4)Cl)NC5=CC=CC=C53)C6=NC7=C(C=CC(=C7)Cl)NC8=CC=CC=C86

> <PUBCHEM_OPENEYE_ISO_SMILES>
C1CN(CCN1CCCNC(=O)CCCCC(=O)NCCCN2CCN(CC2)C3=NC4=C(C=CC(=C4)Cl)NC5=CC=CC=C53)C6=NC7=C(C=CC(=C7)Cl)NC8=CC=CC=C86

> <PUBCHEM_CACTVS_TPSA>
120

> <PUBCHEM_MONOISOTOPIC_WEIGHT>
848.3808264

> <PUBCHEM_TOTAL_CHARGE>
0

> <PUBCHEM_HEAVY_ATOM_COUNT>
60

> <PUBCHEM_ATOM_DEF_STEREO_COUNT>
0

> <PUBCHEM_ATOM_UDEF_STEREO_COUNT>
0

> <PUBCHEM_BOND_DEF_STEREO_COUNT>
0

> <PUBCHEM_BOND_UDEF_STEREO_COUNT>
0

> <PUBCHEM_ISOTOPIC_ATOM_COUNT>
0

> <PUBCHEM_COMPONENT_COUNT>
1

> <PUBCHEM_CACTVS_TAUTO_COUNT>
-1

> <PUBCHEM_COORDINATE_TYPE>
1
5
255

> <PUBCHEM_BONDANNOTATIONS>
31  33  8
31  37  8
32  34  8
32  38  8
33  47  8
34  48  8
35  39  8
35  53  8
36  40  8
36  54  8
37  49  8
38  50  8
39  55  8
40  56  8
47  51  8
48  52  8
49  51  8
50  52  8
53  57  8
54  58  8
55  59  8
56  60  8
57  59  8
58  60  8

$$$$
