162653991
  -OEChem-09292322422D

 72 76  0     1  0  0  0  0  0999 V2000
    2.0000    1.2740    0.0000 Cl  0  0  0  0  0  0  0  0  0  0  0  0
   12.3547    1.1158    0.0000 O   0  0  0  0  0  0  0  0  0  0  0  0
   12.3547   -2.3482    0.0000 O   0  0  0  0  0  0  0  0  0  0  0  0
   12.3547   -0.6162    0.0000 N   0  0  0  0  0  0  0  0  0  0  0  0
    6.8547    0.2498    0.0000 N   0  0  3  0  0  0  0  0  0  0  0  0
   14.3547   -0.6162    0.0000 C   0  0  0  0  0  0  0  0  0  0  0  0
   14.9425    0.1928    0.0000 C   0  0  0  0  0  0  0  0  0  0  0  0
   14.9425   -1.4252    0.0000 C   0  0  0  0  0  0  0  0  0  0  0  0
   13.8547    0.2498    0.0000 C   0  0  0  0  0  0  0  0  0  0  0  0
   13.8547   -1.4822    0.0000 C   0  0  0  0  0  0  0  0  0  0  0  0
   11.3547   -0.6162    0.0000 C   0  0  0  0  0  0  0  0  0  0  0  0
   15.8936   -0.1162    0.0000 C   0  0  0  0  0  0  0  0  0  0  0  0
   15.8936   -1.1162    0.0000 C   0  0  0  0  0  0  0  0  0  0  0  0
    9.3547   -0.6162    0.0000 C   0  0  0  0  0  0  0  0  0  0  0  0
   10.8547    0.2498    0.0000 C   0  0  0  0  0  0  0  0  0  0  0  0
   10.8547   -1.4822    0.0000 C   0  0  0  0  0  0  0  0  0  0  0  0
    9.8547    0.2498    0.0000 C   0  0  0  0  0  0  0  0  0  0  0  0
    9.8547   -1.4822    0.0000 C   0  0  0  0  0  0  0  0  0  0  0  0
   12.8547    0.2498    0.0000 C   0  0  0  0  0  0  0  0  0  0  0  0
   12.8547   -1.4822    0.0000 C   0  0  0  0  0  0  0  0  0  0  0  0
    8.3547   -0.6162    0.0000 C   0  0  0  0  0  0  0  0  0  0  0  0
    7.8547    0.2498    0.0000 C   0  0  0  0  0  0  0  0  0  0  0  0
    6.4209    1.1508    0.0000 C   0  0  0  0  0  0  0  0  0  0  0  0
    6.4209   -0.6511    0.0000 C   0  0  0  0  0  0  0  0  0  0  0  0
    5.4459    1.3733    0.0000 C   0  0  1  0  0  0  0  0  0  0  0  0
    5.4459   -0.8737    0.0000 C   0  0  0  0  0  0  0  0  0  0  0  0
    4.6641    0.7498    0.0000 C   0  0  0  0  0  0  0  0  0  0  0  0
    4.6641   -0.2502    0.0000 C   0  0  0  0  0  0  0  0  0  0  0  0
    5.2234    2.3482    0.0000 C   0  0  0  0  0  0  0  0  0  0  0  0
    3.7702    1.2845    0.0000 C   0  0  0  0  0  0  0  0  0  0  0  0
    3.7702   -0.7848    0.0000 C   0  0  0  0  0  0  0  0  0  0  0  0
    2.8641    0.7706    0.0000 C   0  0  0  0  0  0  0  0  0  0  0  0
    2.8641   -0.2710    0.0000 C   0  0  0  0  0  0  0  0  0  0  0  0
   15.1947    0.7592    0.0000 H   0  0  0  0  0  0  0  0  0  0  0  0
   14.4056    0.5028    0.0000 H   0  0  0  0  0  0  0  0  0  0  0  0
   14.4056   -1.7352    0.0000 H   0  0  0  0  0  0  0  0  0  0  0  0
   15.1947   -1.9916    0.0000 H   0  0  0  0  0  0  0  0  0  0  0  0
   14.4374    0.4619    0.0000 H   0  0  0  0  0  0  0  0  0  0  0  0
   13.7471    0.8604    0.0000 H   0  0  0  0  0  0  0  0  0  0  0  0
   13.7471   -2.0928    0.0000 H   0  0  0  0  0  0  0  0  0  0  0  0
   14.4374   -1.6943    0.0000 H   0  0  0  0  0  0  0  0  0  0  0  0
   11.6647   -0.0793    0.0000 H   0  0  0  0  0  0  0  0  0  0  0  0
   16.5102   -0.1810    0.0000 H   0  0  0  0  0  0  0  0  0  0  0  0
   16.0225    0.4903    0.0000 H   0  0  0  0  0  0  0  0  0  0  0  0
   16.0225   -1.7226    0.0000 H   0  0  0  0  0  0  0  0  0  0  0  0
   16.5102   -1.0514    0.0000 H   0  0  0  0  0  0  0  0  0  0  0  0
    9.0447   -0.0793    0.0000 H   0  0  0  0  0  0  0  0  0  0  0  0
   11.4374    0.4619    0.0000 H   0  0  0  0  0  0  0  0  0  0  0  0
   10.7471    0.8604    0.0000 H   0  0  0  0  0  0  0  0  0  0  0  0
   10.7471   -2.0928    0.0000 H   0  0  0  0  0  0  0  0  0  0  0  0
   11.4374   -1.6943    0.0000 H   0  0  0  0  0  0  0  0  0  0  0  0
    9.9624    0.8604    0.0000 H   0  0  0  0  0  0  0  0  0  0  0  0
    9.2721    0.4619    0.0000 H   0  0  0  0  0  0  0  0  0  0  0  0
    9.2721   -1.6943    0.0000 H   0  0  0  0  0  0  0  0  0  0  0  0
    9.9624   -2.0928    0.0000 H   0  0  0  0  0  0  0  0  0  0  0  0
    7.7721   -0.8282    0.0000 H   0  0  0  0  0  0  0  0  0  0  0  0
    8.4624   -1.2268    0.0000 H   0  0  0  0  0  0  0  0  0  0  0  0
    8.4374    0.4619    0.0000 H   0  0  0  0  0  0  0  0  0  0  0  0
    7.7471    0.8604    0.0000 H   0  0  0  0  0  0  0  0  0  0  0  0
    7.0253    1.2888    0.0000 H   0  0  0  0  0  0  0  0  0  0  0  0
    6.4209    1.7708    0.0000 H   0  0  0  0  0  0  0  0  0  0  0  0
    6.4209   -1.2711    0.0000 H   0  0  0  0  0  0  0  0  0  0  0  0
    7.0253   -0.7891    0.0000 H   0  0  0  0  0  0  0  0  0  0  0  0
    4.8607    1.5781    0.0000 H   0  0  0  0  0  0  0  0  0  0  0  0
    4.9612   -1.2602    0.0000 H   0  0  0  0  0  0  0  0  0  0  0  0
    5.7149   -1.4323    0.0000 H   0  0  0  0  0  0  0  0  0  0  0  0
    5.8279    2.4862    0.0000 H   0  0  0  0  0  0  0  0  0  0  0  0
    5.0854    2.9527    0.0000 H   0  0  0  0  0  0  0  0  0  0  0  0
    4.6190    2.2103    0.0000 H   0  0  0  0  0  0  0  0  0  0  0  0
    3.7773    1.9044    0.0000 H   0  0  0  0  0  0  0  0  0  0  0  0
    3.7773   -1.4048    0.0000 H   0  0  0  0  0  0  0  0  0  0  0  0
    2.3284   -0.5831    0.0000 H   0  0  0  0  0  0  0  0  0  0  0  0
  1 32  1  0  0  0  0
  2 19  2  0  0  0  0
  3 20  2  0  0  0  0
  4 11  1  0  0  0  0
  4 19  1  0  0  0  0
  4 20  1  0  0  0  0
  5 22  1  0  0  0  0
  5 23  1  0  0  0  0
  5 24  1  0  0  0  0
  6  7  1  0  0  0  0
  6  8  1  0  0  0  0
  6  9  1  0  0  0  0
  6 10  1  0  0  0  0
  7 12  1  0  0  0  0
  7 34  1  0  0  0  0
  7 35  1  0  0  0  0
  8 13  1  0  0  0  0
  8 36  1  0  0  0  0
  8 37  1  0  0  0  0
  9 19  1  0  0  0  0
  9 38  1  0  0  0  0
  9 39  1  0  0  0  0
 10 20  1  0  0  0  0
 10 40  1  0  0  0  0
 10 41  1  0  0  0  0
 11 15  1  0  0  0  0
 11 16  1  0  0  0  0
 11 42  1  0  0  0  0
 12 13  1  0  0  0  0
 12 43  1  0  0  0  0
 12 44  1  0  0  0  0
 13 45  1  0  0  0  0
 13 46  1  0  0  0  0
 14 17  1  0  0  0  0
 14 18  1  0  0  0  0
 14 21  1  0  0  0  0
 14 47  1  0  0  0  0
 15 17  1  0  0  0  0
 15 48  1  0  0  0  0
 15 49  1  0  0  0  0
 16 18  1  0  0  0  0
 16 50  1  0  0  0  0
 16 51  1  0  0  0  0
 17 52  1  0  0  0  0
 17 53  1  0  0  0  0
 18 54  1  0  0  0  0
 18 55  1  0  0  0  0
 21 22  1  0  0  0  0
 21 56  1  0  0  0  0
 21 57  1  0  0  0  0
 22 58  1  0  0  0  0
 22 59  1  0  0  0  0
 23 25  1  0  0  0  0
 23 60  1  0  0  0  0
 23 61  1  0  0  0  0
 24 26  1  0  0  0  0
 24 62  1  0  0  0  0
 24 63  1  0  0  0  0
 25 27  1  0  0  0  0
 25 29  1  1  0  0  0
 25 64  1  0  0  0  0
 26 28  1  0  0  0  0
 26 65  1  0  0  0  0
 26 66  1  0  0  0  0
 27 28  2  0  0  0  0
 27 30  1  0  0  0  0
 28 31  1  0  0  0  0
 29 67  1  0  0  0  0
 29 68  1  0  0  0  0
 29 69  1  0  0  0  0
 30 32  2  0  0  0  0
 30 70  1  0  0  0  0
 31 33  2  0  0  0  0
 31 71  1  0  0  0  0
 32 33  1  0  0  0  0
 33 72  1  0  0  0  0
M  END
> <PUBCHEM_COMPOUND_CID>
162653991

> <PUBCHEM_COMPOUND_CANONICALIZED>
1

> <PUBCHEM_CACTVS_COMPLEXITY>
693

> <PUBCHEM_CACTVS_HBOND_ACCEPTOR>
3

> <PUBCHEM_CACTVS_HBOND_DONOR>
0

> <PUBCHEM_CACTVS_ROTATABLE_BOND>
4

> <PUBCHEM_CACTVS_SUBSKEYS>
AAADcfB7MAAEAAAAAAAAAAAAAAAAAYAAAAA8YIAABYAAAAABAAAAHgIAAAAADyrBmCQyAIMAAACIAiFSEAACAAAgBQAIiAEIAogIIDKBkxGEIAAghiCIiAcYi8CPhAAAIAAQAAAYAABAACAAAAAAAAAAAA==

> <PUBCHEM_IUPAC_OPENEYE_NAME>
8-[4-[2-[(5R)-7-chloro-5-methyl-1,2,4,5-tetrahydro-3-benzazepin-3-yl]ethyl]cyclohexyl]-8-azaspiro[4.5]decane-7,9-dione

> <PUBCHEM_IUPAC_CAS_NAME>
8-[4-[2-[(5R)-7-chloro-5-methyl-1,2,4,5-tetrahydro-3-benzazepin-3-yl]ethyl]cyclohexyl]-8-azaspiro[4.5]decane-7,9-dione

> <PUBCHEM_IUPAC_NAME_MARKUP>
8-[4-[2-[(5<I>R</I>)-7-chloro-5-methyl-1,2,4,5-tetrahydro-3-benzazepin-3-yl]ethyl]cyclohexyl]-8-azaspiro[4.5]decane-7,9-dione

> <PUBCHEM_IUPAC_NAME>
8-[4-[2-[(5R)-7-chloro-5-methyl-1,2,4,5-tetrahydro-3-benzazepin-3-yl]ethyl]cyclohexyl]-8-azaspiro[4.5]decane-7,9-dione

> <PUBCHEM_IUPAC_SYSTEMATIC_NAME>
8-[4-[2-[(5R)-7-chloranyl-5-methyl-1,2,4,5-tetrahydro-3-benzazepin-3-yl]ethyl]cyclohexyl]-8-azaspiro[4.5]decane-7,9-dione

> <PUBCHEM_IUPAC_TRADITIONAL_NAME>
8-[4-[2-[(5R)-7-chloro-5-methyl-1,2,4,5-tetrahydro-3-benzazepin-3-yl]ethyl]cyclohexyl]-8-azaspiro[4.5]decane-7,9-quinone

> <PUBCHEM_IUPAC_INCHI>
InChI=1S/C28H39ClN2O2/c1-20-19-30(15-11-22-6-7-23(29)16-25(20)22)14-10-21-4-8-24(9-5-21)31-26(32)17-28(18-27(31)33)12-2-3-13-28/h6-7,16,20-21,24H,2-5,8-15,17-19H2,1H3/t20-,21?,24?/m0/s1

> <PUBCHEM_IUPAC_INCHIKEY>
DTQQYFXMBRLANH-MFMCRYCZSA-N

> <PUBCHEM_XLOGP3_AA>
6.1

> <PUBCHEM_EXACT_MASS>
470.2700062

> <PUBCHEM_MOLECULAR_FORMULA>
C28H39ClN2O2

> <PUBCHEM_MOLECULAR_WEIGHT>
471.1

> <PUBCHEM_OPENEYE_CAN_SMILES>
CC1CN(CCC2=C1C=C(C=C2)Cl)CCC3CCC(CC3)N4C(=O)CC5(CCCC5)CC4=O

> <PUBCHEM_OPENEYE_ISO_SMILES>
C[C@H]1CN(CCC2=C1C=C(C=C2)Cl)CCC3CCC(CC3)N4C(=O)CC5(CCCC5)CC4=O

> <PUBCHEM_CACTVS_TPSA>
40.6

> <PUBCHEM_MONOISOTOPIC_WEIGHT>
470.2700062

> <PUBCHEM_TOTAL_CHARGE>
0

> <PUBCHEM_HEAVY_ATOM_COUNT>
33

> <PUBCHEM_ATOM_DEF_STEREO_COUNT>
1

> <PUBCHEM_ATOM_UDEF_STEREO_COUNT>
0

> <PUBCHEM_BOND_DEF_STEREO_COUNT>
0

> <PUBCHEM_BOND_UDEF_STEREO_COUNT>
0

> <PUBCHEM_ISOTOPIC_ATOM_COUNT>
0

> <PUBCHEM_COMPONENT_COUNT>
1

> <PUBCHEM_CACTVS_TAUTO_COUNT>
-1

> <PUBCHEM_COORDINATE_TYPE>
1
5
255

> <PUBCHEM_BONDANNOTATIONS>
25  29  5
27  28  8
27  30  8
28  31  8
30  32  8
31  33  8
32  33  8

$$$$
