71109897
  -OEChem-09292322332D

 43 47  0     1  0  0  0  0  0999 V2000
    6.3358    3.7489    0.0000 O   0  0  0  0  0  0  0  0  0  0  0  0
    4.8839    4.5871    0.0000 O   0  0  0  0  0  0  0  0  0  0  0  0
    3.8372   -4.1911    0.0000 O   0  0  0  0  0  0  0  0  0  0  0  0
    5.6405   -3.1314    0.0000 O   0  0  0  0  0  0  0  0  0  0  0  0
    2.9180    0.5056    0.0000 N   0  0  3  0  0  0  0  0  0  0  0  0
    3.7841    0.0056    0.0000 C   0  0  1  0  0  0  0  0  0  0  0  0
    4.6501    0.5056    0.0000 C   0  0  0  0  0  0  0  0  0  0  0  0
    2.0080   -0.0013    0.0000 C   0  0  0  0  0  0  0  0  0  0  0  0
    3.8001   -1.0359    0.0000 C   0  0  0  0  0  0  0  0  0  0  0  0
    2.9180    1.5056    0.0000 C   0  0  0  0  0  0  0  0  0  0  0  0
    2.0000   -1.0429    0.0000 C   0  0  0  0  0  0  0  0  0  0  0  0
    4.6501    1.5056    0.0000 C   0  0  0  0  0  0  0  0  0  0  0  0
    3.7841    2.0056    0.0000 C   0  0  0  0  0  0  0  0  0  0  0  0
    2.9021   -1.5637    0.0000 C   0  0  0  0  0  0  0  0  0  0  0  0
    4.7520   -1.5566    0.0000 C   0  0  0  0  0  0  0  0  0  0  0  0
    5.5601    2.0124    0.0000 C   0  0  0  0  0  0  0  0  0  0  0  0
    3.7680    3.0471    0.0000 C   0  0  0  0  0  0  0  0  0  0  0  0
    2.8937   -2.6486    0.0000 C   0  0  0  0  0  0  0  0  0  0  0  0
    5.5681    3.0540    0.0000 C   0  0  0  0  0  0  0  0  0  0  0  0
    4.6660    3.5748    0.0000 C   0  0  0  0  0  0  0  0  0  0  0  0
    4.7688   -2.6414    0.0000 C   0  0  0  0  0  0  0  0  0  0  0  0
    3.8334   -3.1911    0.0000 C   0  0  0  0  0  0  0  0  0  0  0  0
    5.9138    4.6945    0.0000 C   0  0  0  0  0  0  0  0  0  0  0  0
    2.9731   -4.6945    0.0000 C   0  0  0  0  0  0  0  0  0  0  0  0
    4.5234   -0.4137    0.0000 H   0  0  0  0  0  0  0  0  0  0  0  0
    4.8621   -0.0770    0.0000 H   0  0  0  0  0  0  0  0  0  0  0  0
    5.2607    0.6132    0.0000 H   0  0  0  0  0  0  0  0  0  0  0  0
    1.8035    0.5840    0.0000 H   0  0  0  0  0  0  0  0  0  0  0  0
    1.3964   -0.1026    0.0000 H   0  0  0  0  0  0  0  0  0  0  0  0
    2.7060    2.0882    0.0000 H   0  0  0  0  0  0  0  0  0  0  0  0
    2.3074    1.3979    0.0000 H   0  0  0  0  0  0  0  0  0  0  0  0
    1.3900   -0.9321    0.0000 H   0  0  0  0  0  0  0  0  0  0  0  0
    1.7864   -1.6249    0.0000 H   0  0  0  0  0  0  0  0  0  0  0  0
    5.2829   -1.2363    0.0000 H   0  0  0  0  0  0  0  0  0  0  0  0
    6.0934    1.6962    0.0000 H   0  0  0  0  0  0  0  0  0  0  0  0
    3.2275    3.3509    0.0000 H   0  0  0  0  0  0  0  0  0  0  0  0
    2.3556   -2.9566    0.0000 H   0  0  0  0  0  0  0  0  0  0  0  0
    6.5034    4.8862    0.0000 H   0  0  0  0  0  0  0  0  0  0  0  0
    5.7851    5.3010    0.0000 H   0  0  0  0  0  0  0  0  0  0  0  0
    5.6477   -3.7513    0.0000 H   0  0  0  0  0  0  0  0  0  0  0  0
    2.6610   -4.1587    0.0000 H   0  0  0  0  0  0  0  0  0  0  0  0
    2.4374   -5.0065    0.0000 H   0  0  0  0  0  0  0  0  0  0  0  0
    3.2852   -5.2302    0.0000 H   0  0  0  0  0  0  0  0  0  0  0  0
  1 19  1  0  0  0  0
  1 23  1  0  0  0  0
  2 20  1  0  0  0  0
  2 23  1  0  0  0  0
  3 22  1  0  0  0  0
  3 24  1  0  0  0  0
  4 21  1  0  0  0  0
  4 40  1  0  0  0  0
  5  6  1  0  0  0  0
  5  8  1  0  0  0  0
  5 10  1  0  0  0  0
  6  7  1  0  0  0  0
  6  9  1  0  0  0  0
  6 25  1  6  0  0  0
  7 12  1  0  0  0  0
  7 26  1  0  0  0  0
  7 27  1  0  0  0  0
  8 11  1  0  0  0  0
  8 28  1  0  0  0  0
  8 29  1  0  0  0  0
  9 14  1  0  0  0  0
  9 15  2  0  0  0  0
 10 13  1  0  0  0  0
 10 30  1  0  0  0  0
 10 31  1  0  0  0  0
 11 14  1  0  0  0  0
 11 32  1  0  0  0  0
 11 33  1  0  0  0  0
 12 13  1  0  0  0  0
 12 16  2  0  0  0  0
 13 17  2  0  0  0  0
 14 18  2  0  0  0  0
 15 21  1  0  0  0  0
 15 34  1  0  0  0  0
 16 19  1  0  0  0  0
 16 35  1  0  0  0  0
 17 20  1  0  0  0  0
 17 36  1  0  0  0  0
 18 22  1  0  0  0  0
 18 37  1  0  0  0  0
 19 20  2  0  0  0  0
 21 22  2  0  0  0  0
 23 38  1  0  0  0  0
 23 39  1  0  0  0  0
 24 41  1  0  0  0  0
 24 42  1  0  0  0  0
 24 43  1  0  0  0  0
M  END
> <PUBCHEM_COMPOUND_CID>
71109897

> <PUBCHEM_COMPOUND_CANONICALIZED>
1

> <PUBCHEM_CACTVS_COMPLEXITY>
474

> <PUBCHEM_CACTVS_HBOND_ACCEPTOR>
5

> <PUBCHEM_CACTVS_HBOND_DONOR>
1

> <PUBCHEM_CACTVS_ROTATABLE_BOND>
1

> <PUBCHEM_CACTVS_SUBSKEYS>
AAADceB6OAAAAAAAAAAAAAAAAAAAASAAAAA8eIEAAAAAAEixQAAAHgAACAAADCzBmAcyDoMABgCAAiBCAACCCAAgIAAAiAAOjIgdJiKGsRukcCtkwBGPuAew0PMOoAABAAAQQABAAAIAACCAAAAAAAAAAA==

> <PUBCHEM_IUPAC_OPENEYE_NAME>
(13S)-17-methoxy-6,8-dioxa-1-azapentacyclo[11.8.0.03,11.05,9.014,19]henicosa-3,5(9),10,14,16,18-hexaen-16-ol

> <PUBCHEM_IUPAC_CAS_NAME>
(13S)-17-methoxy-6,8-dioxa-1-azapentacyclo[11.8.0.03,11.05,9.014,19]heneicosa-3,5(9),10,14,16,18-hexaen-16-ol

> <PUBCHEM_IUPAC_NAME_MARKUP>
(13<I>S</I>)-17-methoxy-6,8-dioxa-1-azapentacyclo[11.8.0.0<SUP>3,11</SUP>.0<SUP>5,9</SUP>.0<SUP>14,19</SUP>]henicosa-3,5(9),10,14,16,18-hexaen-16-ol

> <PUBCHEM_IUPAC_NAME>
(13S)-17-methoxy-6,8-dioxa-1-azapentacyclo[11.8.0.03,11.05,9.014,19]henicosa-3,5(9),10,14,16,18-hexaen-16-ol

> <PUBCHEM_IUPAC_SYSTEMATIC_NAME>
(13S)-17-methoxy-6,8-dioxa-1-azapentacyclo[11.8.0.03,11.05,9.014,19]henicosa-3,5(9),10,14,16,18-hexaen-16-ol

> <PUBCHEM_IUPAC_TRADITIONAL_NAME>
(13S)-17-methoxy-6,8-dioxa-1-azapentacyclo[11.8.0.03,11.05,9.014,19]heneicosa-3,5(9),10,14,16,18-hexaen-16-ol

> <PUBCHEM_IUPAC_INCHI>
InChI=1S/C19H19NO4/c1-22-17-5-11-2-3-20-9-13-7-19-18(23-10-24-19)6-12(13)4-15(20)14(11)8-16(17)21/h5-8,15,21H,2-4,9-10H2,1H3/t15-/m0/s1

> <PUBCHEM_IUPAC_INCHIKEY>
CIEGYDLRUMZWQS-HNNXBMFYSA-N

> <PUBCHEM_XLOGP3_AA>
2.8

> <PUBCHEM_EXACT_MASS>
325.13140809

> <PUBCHEM_MOLECULAR_FORMULA>
C19H19NO4

> <PUBCHEM_MOLECULAR_WEIGHT>
325.4

> <PUBCHEM_OPENEYE_CAN_SMILES>
COC1=C(C=C2C3CC4=CC5=C(C=C4CN3CCC2=C1)OCO5)O

> <PUBCHEM_OPENEYE_ISO_SMILES>
COC1=C(C=C2[C@@H]3CC4=CC5=C(C=C4CN3CCC2=C1)OCO5)O

> <PUBCHEM_CACTVS_TPSA>
51.2

> <PUBCHEM_MONOISOTOPIC_WEIGHT>
325.13140809

> <PUBCHEM_TOTAL_CHARGE>
0

> <PUBCHEM_HEAVY_ATOM_COUNT>
24

> <PUBCHEM_ATOM_DEF_STEREO_COUNT>
1

> <PUBCHEM_ATOM_UDEF_STEREO_COUNT>
0

> <PUBCHEM_BOND_DEF_STEREO_COUNT>
0

> <PUBCHEM_BOND_UDEF_STEREO_COUNT>
0

> <PUBCHEM_ISOTOPIC_ATOM_COUNT>
0

> <PUBCHEM_COMPONENT_COUNT>
1

> <PUBCHEM_CACTVS_TAUTO_COUNT>
-1

> <PUBCHEM_COORDINATE_TYPE>
1
5
255

> <PUBCHEM_BONDANNOTATIONS>
12  13  8
12  16  8
13  17  8
14  18  8
15  21  8
16  19  8
17  20  8
18  22  8
19  20  8
21  22  8
6  25  6
9  14  8
9  15  8

$$$$
