44276652
  -OEChem-09292322222D

 48 51  0     1  0  0  0  0  0999 V2000
    6.2736   -1.8999    0.0000 O   0  0  0  0  0  0  0  0  0  0  0  0
    8.0770   -2.9596    0.0000 O   0  0  0  0  0  0  0  0  0  0  0  0
    8.9961    2.7371    0.0000 N   0  0  0  0  0  0  0  0  0  0  0  0
    6.3701    3.2717    0.0000 N   0  0  0  0  0  0  0  0  0  0  0  0
    8.9961    1.7371    0.0000 C   0  0  1  0  0  0  0  0  0  0  0  0
    8.1301    1.2371    0.0000 C   0  0  1  0  0  0  0  0  0  0  0  0
    9.9061    1.2302    0.0000 C   0  0  0  0  0  0  0  0  0  0  0  0
    8.1140    0.1956    0.0000 C   0  0  0  0  0  0  0  0  0  0  0  0
    7.2641    1.7371    0.0000 C   0  0  0  0  0  0  0  0  0  0  0  0
    9.9142    0.1886    0.0000 C   0  0  0  0  0  0  0  0  0  0  0  0
    9.0121   -0.3322    0.0000 C   0  0  0  0  0  0  0  0  0  0  0  0
    8.1301    3.2371    0.0000 C   0  0  0  0  0  0  0  0  0  0  0  0
    7.2641    2.7371    0.0000 C   0  0  0  0  0  0  0  0  0  0  0  0
    6.3701    1.2024    0.0000 C   0  0  0  0  0  0  0  0  0  0  0  0
    7.1621   -0.3251    0.0000 C   0  0  0  0  0  0  0  0  0  0  0  0
    9.0204   -1.4172    0.0000 C   0  0  0  0  0  0  0  0  0  0  0  0
    5.4641    1.7162    0.0000 C   0  0  0  0  0  0  0  0  0  0  0  0
    7.1454   -1.4099    0.0000 C   0  0  0  0  0  0  0  0  0  0  0  0
    8.0808   -1.9597    0.0000 C   0  0  0  0  0  0  0  0  0  0  0  0
    5.4641    2.7579    0.0000 C   0  0  0  0  0  0  0  0  0  0  0  0
    4.6000    1.2129    0.0000 C   0  0  0  0  0  0  0  0  0  0  0  0
    3.7320    1.7096    0.0000 C   0  0  0  0  0  0  0  0  0  0  0  0
    2.8680    1.2062    0.0000 C   0  0  0  0  0  0  0  0  0  0  0  0
    2.0000    1.7029    0.0000 C   0  0  0  0  0  0  0  0  0  0  0  0
    9.7290    2.1677    0.0000 H   0  0  0  0  0  0  0  0  0  0  0  0
    7.3907    0.8177    0.0000 H   0  0  0  0  0  0  0  0  0  0  0  0
   10.5178    1.1288    0.0000 H   0  0  0  0  0  0  0  0  0  0  0  0
   10.1107    1.8155    0.0000 H   0  0  0  0  0  0  0  0  0  0  0  0
   10.1277   -0.3934    0.0000 H   0  0  0  0  0  0  0  0  0  0  0  0
   10.5242    0.2994    0.0000 H   0  0  0  0  0  0  0  0  0  0  0  0
    9.5331    3.0471    0.0000 H   0  0  0  0  0  0  0  0  0  0  0  0
    8.5286    3.7120    0.0000 H   0  0  0  0  0  0  0  0  0  0  0  0
    7.7316    3.7120    0.0000 H   0  0  0  0  0  0  0  0  0  0  0  0
    6.3773    0.5824    0.0000 H   0  0  0  0  0  0  0  0  0  0  0  0
    6.6313   -0.0048    0.0000 H   0  0  0  0  0  0  0  0  0  0  0  0
    9.5586   -1.7251    0.0000 H   0  0  0  0  0  0  0  0  0  0  0  0
    4.9283    3.0699    0.0000 H   0  0  0  0  0  0  0  0  0  0  0  0
    4.2033    0.7364    0.0000 H   0  0  0  0  0  0  0  0  0  0  0  0
    5.0003    0.7395    0.0000 H   0  0  0  0  0  0  0  0  0  0  0  0
    4.1287    2.1860    0.0000 H   0  0  0  0  0  0  0  0  0  0  0  0
    3.3317    2.1830    0.0000 H   0  0  0  0  0  0  0  0  0  0  0  0
    2.4712    0.7298    0.0000 H   0  0  0  0  0  0  0  0  0  0  0  0
    3.2683    0.7328    0.0000 H   0  0  0  0  0  0  0  0  0  0  0  0
    6.2665   -2.5198    0.0000 H   0  0  0  0  0  0  0  0  0  0  0  0
    8.6127   -3.2717    0.0000 H   0  0  0  0  0  0  0  0  0  0  0  0
    2.3079    2.2410    0.0000 H   0  0  0  0  0  0  0  0  0  0  0  0
    1.4619    2.0108    0.0000 H   0  0  0  0  0  0  0  0  0  0  0  0
    1.6921    1.1648    0.0000 H   0  0  0  0  0  0  0  0  0  0  0  0
  1 18  1  0  0  0  0
  1 44  1  0  0  0  0
  2 19  1  0  0  0  0
  2 45  1  0  0  0  0
  3  5  1  0  0  0  0
  3 12  1  0  0  0  0
  3 31  1  0  0  0  0
  4 13  1  0  0  0  0
  4 20  2  0  0  0  0
  5  6  1  0  0  0  0
  5  7  1  0  0  0  0
  5 25  1  1  0  0  0
  6  8  1  0  0  0  0
  6  9  1  0  0  0  0
  6 26  1  6  0  0  0
  7 10  1  0  0  0  0
  7 27  1  0  0  0  0
  7 28  1  0  0  0  0
  8 11  1  0  0  0  0
  8 15  2  0  0  0  0
  9 13  2  0  0  0  0
  9 14  1  0  0  0  0
 10 11  1  0  0  0  0
 10 29  1  0  0  0  0
 10 30  1  0  0  0  0
 11 16  2  0  0  0  0
 12 13  1  0  0  0  0
 12 32  1  0  0  0  0
 12 33  1  0  0  0  0
 14 17  2  0  0  0  0
 14 34  1  0  0  0  0
 15 18  1  0  0  0  0
 15 35  1  0  0  0  0
 16 19  1  0  0  0  0
 16 36  1  0  0  0  0
 17 20  1  0  0  0  0
 17 21  1  0  0  0  0
 18 19  2  0  0  0  0
 20 37  1  0  0  0  0
 21 22  1  0  0  0  0
 21 38  1  0  0  0  0
 21 39  1  0  0  0  0
 22 23  1  0  0  0  0
 22 40  1  0  0  0  0
 22 41  1  0  0  0  0
 23 24  1  0  0  0  0
 23 42  1  0  0  0  0
 23 43  1  0  0  0  0
 24 46  1  0  0  0  0
 24 47  1  0  0  0  0
 24 48  1  0  0  0  0
M  END
> <PUBCHEM_COMPOUND_CID>
44276652

> <PUBCHEM_COMPOUND_CANONICALIZED>
1

> <PUBCHEM_CACTVS_COMPLEXITY>
432

> <PUBCHEM_CACTVS_HBOND_ACCEPTOR>
4

> <PUBCHEM_CACTVS_HBOND_DONOR>
3

> <PUBCHEM_CACTVS_ROTATABLE_BOND>
3

> <PUBCHEM_CACTVS_SUBSKEYS>
AAADceB7MAAAAAAAAAAAAAAAAAAAAAAAAAA8eIEAAAAAAADxwAAAHgAQCAAADSzBngQ+hpLIEgCgAzRnRACCgCAxICAA2KA+zJgJZuLCkZOUcAlk0BHJ2AeQ0PMOoAABAAAQQABQAAaAACSAAAAAAAAAAA==

> <PUBCHEM_IUPAC_OPENEYE_NAME>
(6aR,12bS)-2-butyl-5,6,6a,7,8,12b-hexahydronaphtho[1,2-f][1,7]naphthyridine-10,11-diol

> <PUBCHEM_IUPAC_CAS_NAME>
(6aR,12bS)-2-butyl-5,6,6a,7,8,12b-hexahydronaphtho[1,2-f][1,7]naphthyridine-10,11-diol

> <PUBCHEM_IUPAC_NAME_MARKUP>
(6<I>a</I><I>R</I>,12<I>b</I><I>S</I>)-2-butyl-5,6,6<I>a</I>,7,8,12<I>b</I>-hexahydronaphtho[1,2-f][1,7]naphthyridine-10,11-diol

> <PUBCHEM_IUPAC_NAME>
(6aR,12bS)-2-butyl-5,6,6a,7,8,12b-hexahydronaphtho[1,2-f][1,7]naphthyridine-10,11-diol

> <PUBCHEM_IUPAC_SYSTEMATIC_NAME>
(6aR,12bS)-2-butyl-5,6,6a,7,8,12b-hexahydronaphtho[1,2-f][1,7]naphthyridine-10,11-diol

> <PUBCHEM_IUPAC_TRADITIONAL_NAME>
(6aR,12bS)-2-butyl-5,6,6a,7,8,12b-hexahydronaphtho[1,2-f][1,7]naphthyridine-10,11-diol

> <PUBCHEM_IUPAC_INCHI>
InChI=1S/C20H24N2O2/c1-2-3-4-12-7-15-17(21-10-12)11-22-16-6-5-13-8-18(23)19(24)9-14(13)20(15)16/h7-10,16,20,22-24H,2-6,11H2,1H3/t16-,20+/m1/s1

> <PUBCHEM_IUPAC_INCHIKEY>
LEWWBJBGGUZKQX-UZLBHIALSA-N

> <PUBCHEM_XLOGP3_AA>
3.4

> <PUBCHEM_EXACT_MASS>
324.183778013

> <PUBCHEM_MOLECULAR_FORMULA>
C20H24N2O2

> <PUBCHEM_MOLECULAR_WEIGHT>
324.4

> <PUBCHEM_OPENEYE_CAN_SMILES>
CCCCC1=CC2=C(CNC3C2C4=CC(=C(C=C4CC3)O)O)N=C1

> <PUBCHEM_OPENEYE_ISO_SMILES>
CCCCC1=CC2=C(CN[C@H]3[C@H]2C4=CC(=C(C=C4CC3)O)O)N=C1

> <PUBCHEM_CACTVS_TPSA>
65.4

> <PUBCHEM_MONOISOTOPIC_WEIGHT>
324.183778013

> <PUBCHEM_TOTAL_CHARGE>
0

> <PUBCHEM_HEAVY_ATOM_COUNT>
24

> <PUBCHEM_ATOM_DEF_STEREO_COUNT>
2

> <PUBCHEM_ATOM_UDEF_STEREO_COUNT>
0

> <PUBCHEM_BOND_DEF_STEREO_COUNT>
0

> <PUBCHEM_BOND_UDEF_STEREO_COUNT>
0

> <PUBCHEM_ISOTOPIC_ATOM_COUNT>
0

> <PUBCHEM_COMPONENT_COUNT>
1

> <PUBCHEM_CACTVS_TAUTO_COUNT>
-1

> <PUBCHEM_COORDINATE_TYPE>
1
5
255

> <PUBCHEM_BONDANNOTATIONS>
11  16  8
14  17  8
15  18  8
16  19  8
17  20  8
18  19  8
4  13  8
4  20  8
5  25  5
6  26  6
8  11  8
8  15  8
9  13  8
9  14  8

$$$$
