15021875
  -OEChem-09292322192D

 52 55  0     1  0  0  0  0  0999 V2000
    8.9282   -1.2673    0.0000 O   0  0  0  0  0  0  0  0  0  0  0  0
    2.8660    1.2327    0.0000 O   0  0  0  0  0  0  0  0  0  0  0  0
    6.3301    1.2327    0.0000 N   0  0  0  0  0  0  0  0  0  0  0  0
    4.5981    0.2327    0.0000 N   0  0  0  0  0  0  0  0  0  0  0  0
    8.0622    1.2327    0.0000 C   0  0  3  0  0  0  0  0  0  0  0  0
    7.1962    1.7327    0.0000 C   0  0  0  0  0  0  0  0  0  0  0  0
    8.9282    1.7327    0.0000 C   0  0  0  0  0  0  0  0  0  0  0  0
    5.4641    1.7327    0.0000 C   0  0  0  0  0  0  0  0  0  0  0  0
    6.3301    0.2327    0.0000 C   0  0  0  0  0  0  0  0  0  0  0  0
    8.0622    0.2327    0.0000 C   0  0  0  0  0  0  0  0  0  0  0  0
    4.5981    1.2327    0.0000 C   0  0  0  0  0  0  0  0  0  0  0  0
    5.4641   -0.2673    0.0000 C   0  0  0  0  0  0  0  0  0  0  0  0
    9.7942    1.2327    0.0000 C   0  0  0  0  0  0  0  0  0  0  0  0
    8.9282   -0.2673    0.0000 C   0  0  0  0  0  0  0  0  0  0  0  0
    9.7942    0.2327    0.0000 C   0  0  0  0  0  0  0  0  0  0  0  0
    3.7320   -0.2673    0.0000 C   0  0  0  0  0  0  0  0  0  0  0  0
   10.6882    1.7673    0.0000 C   0  0  0  0  0  0  0  0  0  0  0  0
   10.6882   -0.3020    0.0000 C   0  0  0  0  0  0  0  0  0  0  0  0
    2.8660    0.2327    0.0000 C   0  0  0  0  0  0  0  0  0  0  0  0
    3.7320   -1.2673    0.0000 C   0  0  0  0  0  0  0  0  0  0  0  0
   11.5942    1.2535    0.0000 C   0  0  0  0  0  0  0  0  0  0  0  0
   11.5942    0.2119    0.0000 C   0  0  0  0  0  0  0  0  0  0  0  0
    2.0000   -0.2673    0.0000 C   0  0  0  0  0  0  0  0  0  0  0  0
    2.8660   -1.7673    0.0000 C   0  0  0  0  0  0  0  0  0  0  0  0
    2.0000   -1.2673    0.0000 C   0  0  0  0  0  0  0  0  0  0  0  0
    2.0000    1.7327    0.0000 C   0  0  0  0  0  0  0  0  0  0  0  0
    8.0622    1.8527    0.0000 H   0  0  0  0  0  0  0  0  0  0  0  0
    7.5947    2.2076    0.0000 H   0  0  0  0  0  0  0  0  0  0  0  0
    6.7976    2.2076    0.0000 H   0  0  0  0  0  0  0  0  0  0  0  0
    9.3267    2.2076    0.0000 H   0  0  0  0  0  0  0  0  0  0  0  0
    8.5297    2.2076    0.0000 H   0  0  0  0  0  0  0  0  0  0  0  0
    5.8626    2.2076    0.0000 H   0  0  0  0  0  0  0  0  0  0  0  0
    5.0656    2.2076    0.0000 H   0  0  0  0  0  0  0  0  0  0  0  0
    6.5422   -0.3499    0.0000 H   0  0  0  0  0  0  0  0  0  0  0  0
    6.9407    0.3403    0.0000 H   0  0  0  0  0  0  0  0  0  0  0  0
    7.4516    0.3403    0.0000 H   0  0  0  0  0  0  0  0  0  0  0  0
    7.8501   -0.3499    0.0000 H   0  0  0  0  0  0  0  0  0  0  0  0
    4.3860    1.8153    0.0000 H   0  0  0  0  0  0  0  0  0  0  0  0
    3.9875    1.1250    0.0000 H   0  0  0  0  0  0  0  0  0  0  0  0
    5.0656   -0.7423    0.0000 H   0  0  0  0  0  0  0  0  0  0  0  0
    5.8626   -0.7423    0.0000 H   0  0  0  0  0  0  0  0  0  0  0  0
   10.6810    2.3873    0.0000 H   0  0  0  0  0  0  0  0  0  0  0  0
   10.6810   -0.9220    0.0000 H   0  0  0  0  0  0  0  0  0  0  0  0
    4.2690   -1.5773    0.0000 H   0  0  0  0  0  0  0  0  0  0  0  0
   12.1300    1.5656    0.0000 H   0  0  0  0  0  0  0  0  0  0  0  0
   12.1300   -0.1002    0.0000 H   0  0  0  0  0  0  0  0  0  0  0  0
    1.4631    0.0427    0.0000 H   0  0  0  0  0  0  0  0  0  0  0  0
    2.8660   -2.3873    0.0000 H   0  0  0  0  0  0  0  0  0  0  0  0
    1.4631   -1.5773    0.0000 H   0  0  0  0  0  0  0  0  0  0  0  0
    2.3100    2.2696    0.0000 H   0  0  0  0  0  0  0  0  0  0  0  0
    1.4631    2.0427    0.0000 H   0  0  0  0  0  0  0  0  0  0  0  0
    1.6900    1.1957    0.0000 H   0  0  0  0  0  0  0  0  0  0  0  0
  1 14  2  0  0  0  0
  2 19  1  0  0  0  0
  2 26  1  0  0  0  0
  3  6  1  0  0  0  0
  3  8  1  0  0  0  0
  3  9  1  0  0  0  0
  4 11  1  0  0  0  0
  4 12  1  0  0  0  0
  4 16  1  0  0  0  0
  5  6  1  0  0  0  0
  5  7  1  0  0  0  0
  5 10  1  0  0  0  0
  5 27  1  0  0  0  0
  6 28  1  0  0  0  0
  6 29  1  0  0  0  0
  7 13  1  0  0  0  0
  7 30  1  0  0  0  0
  7 31  1  0  0  0  0
  8 11  1  0  0  0  0
  8 32  1  0  0  0  0
  8 33  1  0  0  0  0
  9 12  1  0  0  0  0
  9 34  1  0  0  0  0
  9 35  1  0  0  0  0
 10 14  1  0  0  0  0
 10 36  1  0  0  0  0
 10 37  1  0  0  0  0
 11 38  1  0  0  0  0
 11 39  1  0  0  0  0
 12 40  1  0  0  0  0
 12 41  1  0  0  0  0
 13 15  1  0  0  0  0
 13 17  2  0  0  0  0
 14 15  1  0  0  0  0
 15 18  2  0  0  0  0
 16 19  1  0  0  0  0
 16 20  2  0  0  0  0
 17 21  1  0  0  0  0
 17 42  1  0  0  0  0
 18 22  1  0  0  0  0
 18 43  1  0  0  0  0
 19 23  2  0  0  0  0
 20 24  1  0  0  0  0
 20 44  1  0  0  0  0
 21 22  2  0  0  0  0
 21 45  1  0  0  0  0
 22 46  1  0  0  0  0
 23 25  1  0  0  0  0
 23 47  1  0  0  0  0
 24 25  2  0  0  0  0
 24 48  1  0  0  0  0
 25 49  1  0  0  0  0
 26 50  1  0  0  0  0
 26 51  1  0  0  0  0
 26 52  1  0  0  0  0
M  END
> <PUBCHEM_COMPOUND_CID>
15021875

> <PUBCHEM_COMPOUND_CANONICALIZED>
1

> <PUBCHEM_CACTVS_COMPLEXITY>
475

> <PUBCHEM_CACTVS_HBOND_ACCEPTOR>
4

> <PUBCHEM_CACTVS_HBOND_DONOR>
0

> <PUBCHEM_CACTVS_ROTATABLE_BOND>
4

> <PUBCHEM_CACTVS_SUBSKEYS>
AAADceB7MAAAAAAAAAAAAAAAAAAAAAAAAAA8YMEAAAAAAADBQAAAHgAAAAAADQzBmAYyxoMABACIAqRSQACCCAAlIgAIiAEPbMgOZjLEtZuVMShkwBHY6YecyMCOgAAAAAAQEACAAAQAACAgAAAAAAAAAA==

> <PUBCHEM_IUPAC_OPENEYE_NAME>
3-[[4-(2-methoxyphenyl)piperazin-1-yl]methyl]tetralin-1-one

> <PUBCHEM_IUPAC_CAS_NAME>
3-[[4-(2-methoxyphenyl)-1-piperazinyl]methyl]-3,4-dihydro-2H-naphthalen-1-one

> <PUBCHEM_IUPAC_NAME_MARKUP>
3-[[4-(2-methoxyphenyl)piperazin-1-yl]methyl]-3,4-dihydro-2<I>H</I>-naphthalen-1-one

> <PUBCHEM_IUPAC_NAME>
3-[[4-(2-methoxyphenyl)piperazin-1-yl]methyl]-3,4-dihydro-2H-naphthalen-1-one

> <PUBCHEM_IUPAC_SYSTEMATIC_NAME>
3-[[4-(2-methoxyphenyl)piperazin-1-yl]methyl]-3,4-dihydro-2H-naphthalen-1-one

> <PUBCHEM_IUPAC_TRADITIONAL_NAME>
3-[[4-(2-methoxyphenyl)piperazino]methyl]tetralin-1-one

> <PUBCHEM_IUPAC_INCHI>
InChI=1S/C22H26N2O2/c1-26-22-9-5-4-8-20(22)24-12-10-23(11-13-24)16-17-14-18-6-2-3-7-19(18)21(25)15-17/h2-9,17H,10-16H2,1H3

> <PUBCHEM_IUPAC_INCHIKEY>
UMEYBQLIJXNFOT-UHFFFAOYSA-N

> <PUBCHEM_XLOGP3_AA>
3.5

> <PUBCHEM_EXACT_MASS>
350.199428076

> <PUBCHEM_MOLECULAR_FORMULA>
C22H26N2O2

> <PUBCHEM_MOLECULAR_WEIGHT>
350.5

> <PUBCHEM_OPENEYE_CAN_SMILES>
COC1=CC=CC=C1N2CCN(CC2)CC3CC4=CC=CC=C4C(=O)C3

> <PUBCHEM_OPENEYE_ISO_SMILES>
COC1=CC=CC=C1N2CCN(CC2)CC3CC4=CC=CC=C4C(=O)C3

> <PUBCHEM_CACTVS_TPSA>
32.8

> <PUBCHEM_MONOISOTOPIC_WEIGHT>
350.199428076

> <PUBCHEM_TOTAL_CHARGE>
0

> <PUBCHEM_HEAVY_ATOM_COUNT>
26

> <PUBCHEM_ATOM_DEF_STEREO_COUNT>
0

> <PUBCHEM_ATOM_UDEF_STEREO_COUNT>
1

> <PUBCHEM_BOND_DEF_STEREO_COUNT>
0

> <PUBCHEM_BOND_UDEF_STEREO_COUNT>
0

> <PUBCHEM_ISOTOPIC_ATOM_COUNT>
0

> <PUBCHEM_COMPONENT_COUNT>
1

> <PUBCHEM_CACTVS_TAUTO_COUNT>
-1

> <PUBCHEM_COORDINATE_TYPE>
1
5
255

> <PUBCHEM_BONDANNOTATIONS>
13  15  8
13  17  8
15  18  8
16  19  8
16  20  8
17  21  8
18  22  8
19  23  8
20  24  8
21  22  8
23  25  8
24  25  8
5  6  3

$$$$
