156018141
  -OEChem-09292322422D

 69 73  0     1  0  0  0  0  0999 V2000
    4.6162   -1.9567    0.0000 O   0  0  0  0  0  0  0  0  0  0  0  0
    5.8168    1.3421    0.0000 O   0  0  0  0  0  0  0  0  0  0  0  0
   14.9414    0.7611    0.0000 O   0  0  0  0  0  0  0  0  0  0  0  0
    5.4730   -0.4007    0.0000 N   0  0  0  0  0  0  0  0  0  0  0  0
   11.5299    0.1596    0.0000 N   0  0  0  0  0  0  0  0  0  0  0  0
   13.4093   -0.5244    0.0000 N   0  0  0  0  0  0  0  0  0  0  0  0
    2.4917    0.2447    0.0000 C   0  0  1  0  0  0  0  0  0  0  0  0
    2.2329    1.2107    0.0000 C   0  0  2  0  0  0  0  0  0  0  0  0
    3.8644   -0.3473    0.0000 C   0  0  1  0  0  0  0  0  0  0  0  0
    4.2064    0.5924    0.0000 C   0  0  2  0  0  0  0  0  0  0  0  0
    2.9695    2.1933    0.0000 C   0  0  0  0  0  0  0  0  0  0  0  0
    1.0928   -0.2641    0.0000 C   0  0  0  0  0  0  0  0  0  0  0  0
    0.8339    0.7018    0.0000 C   0  0  0  0  0  0  0  0  0  0  0  0
    4.6493   -0.9573    0.0000 C   0  0  0  0  0  0  0  0  0  0  0  0
    5.1998    0.5551    0.0000 C   0  0  0  0  0  0  0  0  0  0  0  0
    6.4127   -0.7427    0.0000 C   0  0  0  0  0  0  0  0  0  0  0  0
    7.1787   -0.0999    0.0000 C   0  0  0  0  0  0  0  0  0  0  0  0
    8.1184   -0.4419    0.0000 C   0  0  0  0  0  0  0  0  0  0  0  0
    8.8845    0.2009    0.0000 C   0  0  0  0  0  0  0  0  0  0  0  0
    9.8242   -0.1412    0.0000 C   0  0  0  0  0  0  0  0  0  0  0  0
   10.5902    0.5016    0.0000 C   0  0  0  0  0  0  0  0  0  0  0  0
   12.2959    0.8024    0.0000 C   0  0  0  0  0  0  0  0  0  0  0  0
   11.7035   -0.8252    0.0000 C   0  0  0  0  0  0  0  0  0  0  0  0
   13.2356    0.4604    0.0000 C   0  0  0  0  0  0  0  0  0  0  0  0
   12.6432   -1.1672    0.0000 C   0  0  0  0  0  0  0  0  0  0  0  0
   14.3490   -0.8664    0.0000 C   0  0  0  0  0  0  0  0  0  0  0  0
   15.1150   -0.2237    0.0000 C   0  0  0  0  0  0  0  0  0  0  0  0
   14.5226   -1.8513    0.0000 C   0  0  0  0  0  0  0  0  0  0  0  0
   16.0547   -0.5657    0.0000 C   0  0  0  0  0  0  0  0  0  0  0  0
   15.4623   -2.1933    0.0000 C   0  0  0  0  0  0  0  0  0  0  0  0
   16.2284   -1.5505    0.0000 C   0  0  0  0  0  0  0  0  0  0  0  0
   15.7074    1.4039    0.0000 C   0  0  0  0  0  0  0  0  0  0  0  0
    2.7117   -0.5763    0.0000 H   0  0  0  0  0  0  0  0  0  0  0  0
    2.0129    2.0317    0.0000 H   0  0  0  0  0  0  0  0  0  0  0  0
    3.5737   -1.1460    0.0000 H   0  0  0  0  0  0  0  0  0  0  0  0
    4.4972    1.3912    0.0000 H   0  0  0  0  0  0  0  0  0  0  0  0
    2.6517    2.7256    0.0000 H   0  0  0  0  0  0  0  0  0  0  0  0
    3.5826    2.2852    0.0000 H   0  0  0  0  0  0  0  0  0  0  0  0
    1.2877   -0.8526    0.0000 H   0  0  0  0  0  0  0  0  0  0  0  0
    0.4988   -0.4419    0.0000 H   0  0  0  0  0  0  0  0  0  0  0  0
    0.2400    0.5241    0.0000 H   0  0  0  0  0  0  0  0  0  0  0  0
    0.6390    1.2904    0.0000 H   0  0  0  0  0  0  0  0  0  0  0  0
    6.8876   -1.1412    0.0000 H   0  0  0  0  0  0  0  0  0  0  0  0
    6.1027   -1.2796    0.0000 H   0  0  0  0  0  0  0  0  0  0  0  0
    6.7038    0.2986    0.0000 H   0  0  0  0  0  0  0  0  0  0  0  0
    7.4887    0.4370    0.0000 H   0  0  0  0  0  0  0  0  0  0  0  0
    8.5934   -0.8405    0.0000 H   0  0  0  0  0  0  0  0  0  0  0  0
    7.8084   -0.9789    0.0000 H   0  0  0  0  0  0  0  0  0  0  0  0
    8.4095    0.5994    0.0000 H   0  0  0  0  0  0  0  0  0  0  0  0
    9.1945    0.7378    0.0000 H   0  0  0  0  0  0  0  0  0  0  0  0
   10.2991   -0.5397    0.0000 H   0  0  0  0  0  0  0  0  0  0  0  0
    9.5142   -0.6781    0.0000 H   0  0  0  0  0  0  0  0  0  0  0  0
   10.1153    0.9002    0.0000 H   0  0  0  0  0  0  0  0  0  0  0  0
   10.9002    1.0386    0.0000 H   0  0  0  0  0  0  0  0  0  0  0  0
   11.8210    1.2009    0.0000 H   0  0  0  0  0  0  0  0  0  0  0  0
   12.6059    1.3393    0.0000 H   0  0  0  0  0  0  0  0  0  0  0  0
   11.5959   -1.4358    0.0000 H   0  0  0  0  0  0  0  0  0  0  0  0
   11.0835   -0.8252    0.0000 H   0  0  0  0  0  0  0  0  0  0  0  0
   13.3433    1.0710    0.0000 H   0  0  0  0  0  0  0  0  0  0  0  0
   13.8556    0.4604    0.0000 H   0  0  0  0  0  0  0  0  0  0  0  0
   13.1182   -1.5657    0.0000 H   0  0  0  0  0  0  0  0  0  0  0  0
   12.3332   -1.7042    0.0000 H   0  0  0  0  0  0  0  0  0  0  0  0
   14.0477   -2.2498    0.0000 H   0  0  0  0  0  0  0  0  0  0  0  0
   16.5297   -0.1672    0.0000 H   0  0  0  0  0  0  0  0  0  0  0  0
   15.5700   -2.8039    0.0000 H   0  0  0  0  0  0  0  0  0  0  0  0
   16.8110   -1.7625    0.0000 H   0  0  0  0  0  0  0  0  0  0  0  0
   15.3089    1.8789    0.0000 H   0  0  0  0  0  0  0  0  0  0  0  0
   16.1824    1.8025    0.0000 H   0  0  0  0  0  0  0  0  0  0  0  0
   16.1059    0.9290    0.0000 H   0  0  0  0  0  0  0  0  0  0  0  0
  1 14  2  0  0  0  0
  2 15  2  0  0  0  0
  3 27  1  0  0  0  0
  3 32  1  0  0  0  0
  4 14  1  0  0  0  0
  4 15  1  0  0  0  0
  4 16  1  0  0  0  0
  5 21  1  0  0  0  0
  5 22  1  0  0  0  0
  5 23  1  0  0  0  0
  6 24  1  0  0  0  0
  6 25  1  0  0  0  0
  6 26  1  0  0  0  0
  7  9  1  0  0  0  0
  7 11  1  0  0  0  0
  7 12  1  0  0  0  0
  7 33  1  1  0  0  0
  8 10  1  0  0  0  0
  8 11  1  0  0  0  0
  8 13  1  0  0  0  0
  8 34  1  6  0  0  0
  9 10  1  0  0  0  0
  9 14  1  0  0  0  0
  9 35  1  6  0  0  0
 10 15  1  0  0  0  0
 10 36  1  6  0  0  0
 11 37  1  0  0  0  0
 11 38  1  0  0  0  0
 12 13  1  0  0  0  0
 12 39  1  0  0  0  0
 12 40  1  0  0  0  0
 13 41  1  0  0  0  0
 13 42  1  0  0  0  0
 16 17  1  0  0  0  0
 16 43  1  0  0  0  0
 16 44  1  0  0  0  0
 17 18  1  0  0  0  0
 17 45  1  0  0  0  0
 17 46  1  0  0  0  0
 18 19  1  0  0  0  0
 18 47  1  0  0  0  0
 18 48  1  0  0  0  0
 19 20  1  0  0  0  0
 19 49  1  0  0  0  0
 19 50  1  0  0  0  0
 20 21  1  0  0  0  0
 20 51  1  0  0  0  0
 20 52  1  0  0  0  0
 21 53  1  0  0  0  0
 21 54  1  0  0  0  0
 22 24  1  0  0  0  0
 22 55  1  0  0  0  0
 22 56  1  0  0  0  0
 23 25  1  0  0  0  0
 23 57  1  0  0  0  0
 23 58  1  0  0  0  0
 24 59  1  0  0  0  0
 24 60  1  0  0  0  0
 25 61  1  0  0  0  0
 25 62  1  0  0  0  0
 26 27  1  0  0  0  0
 26 28  2  0  0  0  0
 27 29  2  0  0  0  0
 28 30  1  0  0  0  0
 28 63  1  0  0  0  0
 29 31  1  0  0  0  0
 29 64  1  0  0  0  0
 30 31  2  0  0  0  0
 30 65  1  0  0  0  0
 31 66  1  0  0  0  0
 32 67  1  0  0  0  0
 32 68  1  0  0  0  0
 32 69  1  0  0  0  0
M  END
> <PUBCHEM_COMPOUND_CID>
156018141

> <PUBCHEM_COMPOUND_CANONICALIZED>
1

> <PUBCHEM_CACTVS_COMPLEXITY>
649

> <PUBCHEM_CACTVS_HBOND_ACCEPTOR>
5

> <PUBCHEM_CACTVS_HBOND_DONOR>
0

> <PUBCHEM_CACTVS_ROTATABLE_BOND>
9

> <PUBCHEM_CACTVS_SUBSKEYS>
AAADcfB7MAAAAAAAAAAAAAAAAAAAAeMEAAA8YIAAAAAWAAABAAAAHgAAAAAADQzBkAYyxoMABACIACVSUACCCAAhIgAIiAEPbIgOZjLEsZuVMChkxjHY6AedyMCOgAAAAAAAEAAAAAQAACAgAQAACAAAAA==

> <PUBCHEM_IUPAC_OPENEYE_NAME>
(1R,2S,6R,7S)-4-[6-[4-(2-methoxyphenyl)piperazin-1-yl]hexyl]-4-azatricyclo[5.2.1.02,6]decane-3,5-dione

> <PUBCHEM_IUPAC_CAS_NAME>
(1R,2S,6R,7S)-4-[6-[4-(2-methoxyphenyl)-1-piperazinyl]hexyl]-4-azatricyclo[5.2.1.02,6]decane-3,5-dione

> <PUBCHEM_IUPAC_NAME_MARKUP>
(1<I>R</I>,2<I>S</I>,6<I>R</I>,7<I>S</I>)-4-[6-[4-(2-methoxyphenyl)piperazin-1-yl]hexyl]-4-azatricyclo[5.2.1.0<SUP>2,6</SUP>]decane-3,5-dione

> <PUBCHEM_IUPAC_NAME>
(1R,2S,6R,7S)-4-[6-[4-(2-methoxyphenyl)piperazin-1-yl]hexyl]-4-azatricyclo[5.2.1.02,6]decane-3,5-dione

> <PUBCHEM_IUPAC_SYSTEMATIC_NAME>
(1R,2S,6R,7S)-4-[6-[4-(2-methoxyphenyl)piperazin-1-yl]hexyl]-4-azatricyclo[5.2.1.02,6]decane-3,5-dione

> <PUBCHEM_IUPAC_TRADITIONAL_NAME>
(1R,2S,6R,7S)-4-[6-[4-(2-methoxyphenyl)piperazino]hexyl]-4-azatricyclo[5.2.1.02,6]decane-3,5-quinone

> <PUBCHEM_IUPAC_INCHI>
InChI=1S/C26H37N3O3/c1-32-22-9-5-4-8-21(22)28-16-14-27(15-17-28)12-6-2-3-7-13-29-25(30)23-19-10-11-20(18-19)24(23)26(29)31/h4-5,8-9,19-20,23-24H,2-3,6-7,10-18H2,1H3/t19-,20+,23+,24-

> <PUBCHEM_IUPAC_INCHIKEY>
XACKNAOULJGCTD-XZOTUCIWSA-N

> <PUBCHEM_XLOGP3_AA>
3.9

> <PUBCHEM_EXACT_MASS>
439.28349205

> <PUBCHEM_MOLECULAR_FORMULA>
C26H37N3O3

> <PUBCHEM_MOLECULAR_WEIGHT>
439.6

> <PUBCHEM_OPENEYE_CAN_SMILES>
COC1=CC=CC=C1N2CCN(CC2)CCCCCCN3C(=O)C4C5CCC(C5)C4C3=O

> <PUBCHEM_OPENEYE_ISO_SMILES>
COC1=CC=CC=C1N2CCN(CC2)CCCCCCN3C(=O)[C@H]4[C@@H]5CC[C@@H](C5)[C@H]4C3=O

> <PUBCHEM_CACTVS_TPSA>
53.1

> <PUBCHEM_MONOISOTOPIC_WEIGHT>
439.28349205

> <PUBCHEM_TOTAL_CHARGE>
0

> <PUBCHEM_HEAVY_ATOM_COUNT>
32

> <PUBCHEM_ATOM_DEF_STEREO_COUNT>
4

> <PUBCHEM_ATOM_UDEF_STEREO_COUNT>
0

> <PUBCHEM_BOND_DEF_STEREO_COUNT>
0

> <PUBCHEM_BOND_UDEF_STEREO_COUNT>
0

> <PUBCHEM_ISOTOPIC_ATOM_COUNT>
0

> <PUBCHEM_COMPONENT_COUNT>
1

> <PUBCHEM_CACTVS_TAUTO_COUNT>
-1

> <PUBCHEM_COORDINATE_TYPE>
1
5
255

> <PUBCHEM_BONDANNOTATIONS>
10  36  6
26  27  8
26  28  8
27  29  8
28  30  8
29  31  8
30  31  8
7  33  5
8  34  6
9  35  6

$$$$
