22065962
  -OEChem-09292322222D

 40 43  0     0  0  0  0  0  0999 V2000
    5.9674    0.7901    0.0000 N   0  0  0  0  0  0  0  0  0  0  0  0
    7.9244    1.2025    0.0000 N   0  0  0  0  0  0  0  0  0  0  0  0
    4.6783   -1.9761    0.0000 N   0  0  0  0  0  0  0  0  0  0  0  0
    9.2136    2.3592    0.0000 N   0  0  0  0  0  0  0  0  0  0  0  0
    9.5708    0.6644    0.0000 N   0  0  0  0  0  0  0  0  0  0  0  0
    2.8660   -2.1714    0.0000 N   0  0  0  0  0  0  0  0  0  0  0  0
    6.2781    1.7406    0.0000 C   0  0  0  0  0  0  0  0  0  0  0  0
    6.6353    0.0458    0.0000 C   0  0  0  0  0  0  0  0  0  0  0  0
    7.2566    1.9468    0.0000 C   0  0  0  0  0  0  0  0  0  0  0  0
    7.6138    0.2520    0.0000 C   0  0  0  0  0  0  0  0  0  0  0  0
    4.9889    0.5838    0.0000 C   0  0  0  0  0  0  0  0  0  0  0  0
    4.6783   -0.3667    0.0000 C   0  0  0  0  0  0  0  0  0  0  0  0
    3.7320   -0.6714    0.0000 C   0  0  0  0  0  0  0  0  0  0  0  0
    8.9030    1.4087    0.0000 C   0  0  0  0  0  0  0  0  0  0  0  0
    5.2619   -1.1714    0.0000 C   0  0  0  0  0  0  0  0  0  0  0  0
    3.7320   -1.6714    0.0000 C   0  0  0  0  0  0  0  0  0  0  0  0
    2.8660   -0.1714    0.0000 C   0  0  0  0  0  0  0  0  0  0  0  0
    2.0000   -0.6714    0.0000 C   0  0  0  0  0  0  0  0  0  0  0  0
    2.0000   -1.6714    0.0000 C   0  0  0  0  0  0  0  0  0  0  0  0
   10.1921    2.5655    0.0000 C   0  0  0  0  0  0  0  0  0  0  0  0
   10.5493    0.8706    0.0000 C   0  0  0  0  0  0  0  0  0  0  0  0
   10.8600    1.8212    0.0000 C   0  0  0  0  0  0  0  0  0  0  0  0
    6.2575    2.3602    0.0000 H   0  0  0  0  0  0  0  0  0  0  0  0
    5.6643    1.8279    0.0000 H   0  0  0  0  0  0  0  0  0  0  0  0
    6.1089   -0.2819    0.0000 H   0  0  0  0  0  0  0  0  0  0  0  0
    6.8665   -0.5295    0.0000 H   0  0  0  0  0  0  0  0  0  0  0  0
    7.7830    2.2744    0.0000 H   0  0  0  0  0  0  0  0  0  0  0  0
    7.0254    2.5221    0.0000 H   0  0  0  0  0  0  0  0  0  0  0  0
    7.6344   -0.3677    0.0000 H   0  0  0  0  0  0  0  0  0  0  0  0
    8.2276    0.1646    0.0000 H   0  0  0  0  0  0  0  0  0  0  0  0
    4.9684    1.2035    0.0000 H   0  0  0  0  0  0  0  0  0  0  0  0
    4.3751    0.6712    0.0000 H   0  0  0  0  0  0  0  0  0  0  0  0
    5.8819   -1.1714    0.0000 H   0  0  0  0  0  0  0  0  0  0  0  0
    4.8709   -2.5655    0.0000 H   0  0  0  0  0  0  0  0  0  0  0  0
    2.8660    0.4486    0.0000 H   0  0  0  0  0  0  0  0  0  0  0  0
    1.4631   -0.3614    0.0000 H   0  0  0  0  0  0  0  0  0  0  0  0
    1.4631   -1.9814    0.0000 H   0  0  0  0  0  0  0  0  0  0  0  0
   10.3847    3.1548    0.0000 H   0  0  0  0  0  0  0  0  0  0  0  0
   10.9634    0.4092    0.0000 H   0  0  0  0  0  0  0  0  0  0  0  0
   11.4666    1.9490    0.0000 H   0  0  0  0  0  0  0  0  0  0  0  0
  1  7  1  0  0  0  0
  1  8  1  0  0  0  0
  1 11  1  0  0  0  0
  2  9  1  0  0  0  0
  2 10  1  0  0  0  0
  2 14  1  0  0  0  0
  3 15  1  0  0  0  0
  3 16  1  0  0  0  0
  3 34  1  0  0  0  0
  4 14  1  0  0  0  0
  4 20  2  0  0  0  0
  5 14  2  0  0  0  0
  5 21  1  0  0  0  0
  6 16  1  0  0  0  0
  6 19  2  0  0  0  0
  7  9  1  0  0  0  0
  7 23  1  0  0  0  0
  7 24  1  0  0  0  0
  8 10  1  0  0  0  0
  8 25  1  0  0  0  0
  8 26  1  0  0  0  0
  9 27  1  0  0  0  0
  9 28  1  0  0  0  0
 10 29  1  0  0  0  0
 10 30  1  0  0  0  0
 11 12  1  0  0  0  0
 11 31  1  0  0  0  0
 11 32  1  0  0  0  0
 12 13  1  0  0  0  0
 12 15  2  0  0  0  0
 13 16  2  0  0  0  0
 13 17  1  0  0  0  0
 15 33  1  0  0  0  0
 17 18  2  0  0  0  0
 17 35  1  0  0  0  0
 18 19  1  0  0  0  0
 18 36  1  0  0  0  0
 19 37  1  0  0  0  0
 20 22  1  0  0  0  0
 20 38  1  0  0  0  0
 21 22  2  0  0  0  0
 21 39  1  0  0  0  0
 22 40  1  0  0  0  0
M  END
> <PUBCHEM_COMPOUND_CID>
22065962

> <PUBCHEM_COMPOUND_CANONICALIZED>
1

> <PUBCHEM_CACTVS_COMPLEXITY>
351

> <PUBCHEM_CACTVS_HBOND_ACCEPTOR>
5

> <PUBCHEM_CACTVS_HBOND_DONOR>
1

> <PUBCHEM_CACTVS_ROTATABLE_BOND>
3

> <PUBCHEM_CACTVS_SUBSKEYS>
AAADceB7gAAAAAAAAAAAAAAAAAAAAWAAAAAsWLAAAAAAAFgB/gAAHAAQAAAADADBGwQ9sN/JkACgAjJnZACCgCmxAqAJ2aA4ZJiIaOLA2dGUJAhogALIyCcQAAAOgAAAAAAAAAAAAAAAAAAAAAAAAAAAAA==

> <PUBCHEM_IUPAC_OPENEYE_NAME>
3-[(4-pyrimidin-2-ylpiperazin-1-yl)methyl]-1H-pyrrolo[2,3-b]pyridine

> <PUBCHEM_IUPAC_CAS_NAME>
3-[[4-(2-pyrimidinyl)-1-piperazinyl]methyl]-1H-pyrrolo[2,3-b]pyridine

> <PUBCHEM_IUPAC_NAME_MARKUP>
3-[(4-pyrimidin-2-ylpiperazin-1-yl)methyl]-1<I>H</I>-pyrrolo[2,3-b]pyridine

> <PUBCHEM_IUPAC_NAME>
3-[(4-pyrimidin-2-ylpiperazin-1-yl)methyl]-1H-pyrrolo[2,3-b]pyridine

> <PUBCHEM_IUPAC_SYSTEMATIC_NAME>
3-[(4-pyrimidin-2-ylpiperazin-1-yl)methyl]-1H-pyrrolo[2,3-b]pyridine

> <PUBCHEM_IUPAC_TRADITIONAL_NAME>
3-[[4-(2-pyrimidyl)piperazino]methyl]-1H-pyrrolo[2,3-b]pyridine

> <PUBCHEM_IUPAC_INCHI>
InChI=1S/C16H18N6/c1-3-14-13(11-20-15(14)17-4-1)12-21-7-9-22(10-8-21)16-18-5-2-6-19-16/h1-6,11H,7-10,12H2,(H,17,20)

> <PUBCHEM_IUPAC_INCHIKEY>
AWKDBQYMZZKKJX-UHFFFAOYSA-N

> <PUBCHEM_XLOGP3_AA>
1.4

> <PUBCHEM_EXACT_MASS>
294.15929460

> <PUBCHEM_MOLECULAR_FORMULA>
C16H18N6

> <PUBCHEM_MOLECULAR_WEIGHT>
294.35

> <PUBCHEM_OPENEYE_CAN_SMILES>
C1CN(CCN1CC2=CNC3=C2C=CC=N3)C4=NC=CC=N4

> <PUBCHEM_OPENEYE_ISO_SMILES>
C1CN(CCN1CC2=CNC3=C2C=CC=N3)C4=NC=CC=N4

> <PUBCHEM_CACTVS_TPSA>
60.9

> <PUBCHEM_MONOISOTOPIC_WEIGHT>
294.15929460

> <PUBCHEM_TOTAL_CHARGE>
0

> <PUBCHEM_HEAVY_ATOM_COUNT>
22

> <PUBCHEM_ATOM_DEF_STEREO_COUNT>
0

> <PUBCHEM_ATOM_UDEF_STEREO_COUNT>
0

> <PUBCHEM_BOND_DEF_STEREO_COUNT>
0

> <PUBCHEM_BOND_UDEF_STEREO_COUNT>
0

> <PUBCHEM_ISOTOPIC_ATOM_COUNT>
0

> <PUBCHEM_COMPONENT_COUNT>
1

> <PUBCHEM_CACTVS_TAUTO_COUNT>
-1

> <PUBCHEM_COORDINATE_TYPE>
1
5
255

> <PUBCHEM_BONDANNOTATIONS>
12  13  8
12  15  8
13  16  8
13  17  8
17  18  8
18  19  8
20  22  8
21  22  8
3  15  8
3  16  8
4  14  8
4  20  8
5  14  8
5  21  8
6  16  8
6  19  8

$$$$
