19043055
  -OEChem-09292322212D

 64 67  0     1  0  0  0  0  0999 V2000
    4.6215   -3.8980    0.0000 S   0  0  0  0  0  0  0  0  0  0  0  0
    2.9945   -0.2439    0.0000 O   0  0  0  0  0  0  0  0  0  0  0  0
    3.7079   -4.3048    0.0000 O   0  0  0  0  0  0  0  0  0  0  0  0
    5.5350   -3.4913    0.0000 O   0  0  0  0  0  0  0  0  0  0  0  0
    6.3496    2.5859    0.0000 N   0  0  3  0  0  0  0  0  0  0  0  0
    4.6746    0.4981    0.0000 N   0  0  0  0  0  0  0  0  0  0  0  0
    6.3496    3.5859    0.0000 C   0  0  3  0  0  0  0  0  0  0  0  0
    5.4836    4.0859    0.0000 C   0  0  0  0  0  0  0  0  0  0  0  0
    5.4836    5.0859    0.0000 C   0  0  0  0  0  0  0  0  0  0  0  0
    7.2156    4.0859    0.0000 C   0  0  0  0  0  0  0  0  0  0  0  0
    6.3496    5.5859    0.0000 C   0  0  0  0  0  0  0  0  0  0  0  0
    7.2156    5.0859    0.0000 C   0  0  0  0  0  0  0  0  0  0  0  0
    5.4836    2.0859    0.0000 C   0  0  0  0  0  0  0  0  0  0  0  0
    7.2156    2.0859    0.0000 C   0  0  0  0  0  0  0  0  0  0  0  0
    8.1096    3.5513    0.0000 C   0  0  0  0  0  0  0  0  0  0  0  0
    8.1096    5.6206    0.0000 C   0  0  0  0  0  0  0  0  0  0  0  0
    5.4836    1.0859    0.0000 C   0  0  0  0  0  0  0  0  0  0  0  0
    7.2156    1.0859    0.0000 C   0  0  0  0  0  0  0  0  0  0  0  0
    9.0156    4.0651    0.0000 C   0  0  0  0  0  0  0  0  0  0  0  0
    9.0156    5.1068    0.0000 C   0  0  0  0  0  0  0  0  0  0  0  0
    6.2926    0.4981    0.0000 C   0  0  0  0  0  0  0  0  0  0  0  0
    4.9836   -0.4529    0.0000 C   0  0  0  0  0  0  0  0  0  0  0  0
    5.9836   -0.4529    0.0000 C   0  0  0  0  0  0  0  0  0  0  0  0
    4.3958   -1.2619    0.0000 C   0  0  0  0  0  0  0  0  0  0  0  0
    4.8025   -2.1755    0.0000 C   0  0  0  0  0  0  0  0  0  0  0  0
    3.4013   -1.1574    0.0000 C   0  0  0  0  0  0  0  0  0  0  0  0
    4.2147   -2.9845    0.0000 C   0  0  0  0  0  0  0  0  0  0  0  0
    2.8135   -1.9664    0.0000 C   0  0  0  0  0  0  0  0  0  0  0  0
    3.2202   -2.8800    0.0000 C   0  0  0  0  0  0  0  0  0  0  0  0
    5.0282   -4.8116    0.0000 C   0  0  0  0  0  0  0  0  0  0  0  0
    4.4404   -5.6206    0.0000 C   0  0  0  0  0  0  0  0  0  0  0  0
    2.0000   -0.1393    0.0000 C   0  0  0  0  0  0  0  0  0  0  0  0
    6.8865    3.2759    0.0000 H   0  0  0  0  0  0  0  0  0  0  0  0
    4.8730    4.1936    0.0000 H   0  0  0  0  0  0  0  0  0  0  0  0
    5.2715    3.5033    0.0000 H   0  0  0  0  0  0  0  0  0  0  0  0
    5.2715    5.6685    0.0000 H   0  0  0  0  0  0  0  0  0  0  0  0
    4.8730    4.9783    0.0000 H   0  0  0  0  0  0  0  0  0  0  0  0
    6.7481    6.0609    0.0000 H   0  0  0  0  0  0  0  0  0  0  0  0
    5.9511    6.0609    0.0000 H   0  0  0  0  0  0  0  0  0  0  0  0
    5.2715    2.6685    0.0000 H   0  0  0  0  0  0  0  0  0  0  0  0
    4.8730    1.9783    0.0000 H   0  0  0  0  0  0  0  0  0  0  0  0
    7.8262    1.9783    0.0000 H   0  0  0  0  0  0  0  0  0  0  0  0
    7.4277    2.6685    0.0000 H   0  0  0  0  0  0  0  0  0  0  0  0
    8.1024    2.9313    0.0000 H   0  0  0  0  0  0  0  0  0  0  0  0
    8.1024    6.2406    0.0000 H   0  0  0  0  0  0  0  0  0  0  0  0
    6.5956    1.0859    0.0000 H   0  0  0  0  0  0  0  0  0  0  0  0
    7.2156    0.4659    0.0000 H   0  0  0  0  0  0  0  0  0  0  0  0
    7.8356    1.0859    0.0000 H   0  0  0  0  0  0  0  0  0  0  0  0
    9.5514    3.7530    0.0000 H   0  0  0  0  0  0  0  0  0  0  0  0
    9.5514    5.4188    0.0000 H   0  0  0  0  0  0  0  0  0  0  0  0
    4.0849    0.6897    0.0000 H   0  0  0  0  0  0  0  0  0  0  0  0
    6.8822    0.6897    0.0000 H   0  0  0  0  0  0  0  0  0  0  0  0
    6.3480   -0.9545    0.0000 H   0  0  0  0  0  0  0  0  0  0  0  0
    5.4191   -2.2403    0.0000 H   0  0  0  0  0  0  0  0  0  0  0  0
    2.1969   -1.9016    0.0000 H   0  0  0  0  0  0  0  0  0  0  0  0
    2.8558   -3.3816    0.0000 H   0  0  0  0  0  0  0  0  0  0  0  0
    5.4589   -5.2576    0.0000 H   0  0  0  0  0  0  0  0  0  0  0  0
    5.5422   -4.4649    0.0000 H   0  0  0  0  0  0  0  0  0  0  0  0
    3.9388   -5.2562    0.0000 H   0  0  0  0  0  0  0  0  0  0  0  0
    4.0760   -6.1222    0.0000 H   0  0  0  0  0  0  0  0  0  0  0  0
    4.9420   -5.9850    0.0000 H   0  0  0  0  0  0  0  0  0  0  0  0
    2.0648    0.4773    0.0000 H   0  0  0  0  0  0  0  0  0  0  0  0
    1.3834   -0.0745    0.0000 H   0  0  0  0  0  0  0  0  0  0  0  0
    1.9352   -0.7559    0.0000 H   0  0  0  0  0  0  0  0  0  0  0  0
  1  3  2  0  0  0  0
  1  4  2  0  0  0  0
  1 27  1  0  0  0  0
  1 30  1  0  0  0  0
  2 26  1  0  0  0  0
  2 32  1  0  0  0  0
  5  7  1  0  0  0  0
  5 13  1  0  0  0  0
  5 14  1  0  0  0  0
  6 17  1  0  0  0  0
  6 22  1  0  0  0  0
  6 51  1  0  0  0  0
  7  8  1  0  0  0  0
  7 10  1  0  0  0  0
  7 33  1  0  0  0  0
  8  9  1  0  0  0  0
  8 34  1  0  0  0  0
  8 35  1  0  0  0  0
  9 11  1  0  0  0  0
  9 36  1  0  0  0  0
  9 37  1  0  0  0  0
 10 12  1  0  0  0  0
 10 15  2  0  0  0  0
 11 12  1  0  0  0  0
 11 38  1  0  0  0  0
 11 39  1  0  0  0  0
 12 16  2  0  0  0  0
 13 17  1  0  0  0  0
 13 40  1  0  0  0  0
 13 41  1  0  0  0  0
 14 18  1  0  0  0  0
 14 42  1  0  0  0  0
 14 43  1  0  0  0  0
 15 19  1  0  0  0  0
 15 44  1  0  0  0  0
 16 20  1  0  0  0  0
 16 45  1  0  0  0  0
 17 21  2  0  0  0  0
 18 46  1  0  0  0  0
 18 47  1  0  0  0  0
 18 48  1  0  0  0  0
 19 20  2  0  0  0  0
 19 49  1  0  0  0  0
 20 50  1  0  0  0  0
 21 23  1  0  0  0  0
 21 52  1  0  0  0  0
 22 23  2  0  0  0  0
 22 24  1  0  0  0  0
 23 53  1  0  0  0  0
 24 25  1  0  0  0  0
 24 26  2  0  0  0  0
 25 27  2  0  0  0  0
 25 54  1  0  0  0  0
 26 28  1  0  0  0  0
 27 29  1  0  0  0  0
 28 29  2  0  0  0  0
 28 55  1  0  0  0  0
 29 56  1  0  0  0  0
 30 31  1  0  0  0  0
 30 57  1  0  0  0  0
 30 58  1  0  0  0  0
 31 59  1  0  0  0  0
 31 60  1  0  0  0  0
 31 61  1  0  0  0  0
 32 62  1  0  0  0  0
 32 63  1  0  0  0  0
 32 64  1  0  0  0  0
M  END
> <PUBCHEM_COMPOUND_CID>
19043055

> <PUBCHEM_COMPOUND_CANONICALIZED>
1

> <PUBCHEM_CACTVS_COMPLEXITY>
694

> <PUBCHEM_CACTVS_HBOND_ACCEPTOR>
4

> <PUBCHEM_CACTVS_HBOND_DONOR>
1

> <PUBCHEM_CACTVS_ROTATABLE_BOND>
8

> <PUBCHEM_CACTVS_SUBSKEYS>
AAADcfB7MABAAAAAAAAAAAAAAAAAAWAAAAAwYMAAAAAAAADB0AAAHgQQAAAADCzF3gayh5PJlAqgAyRiRHDCiCAhKjAImTg+bJgMZuLksZuUMChm0BHo6AeQwOAOgIAAgAAYAAABAAGAADQAAAAAAAAAAA==

> <PUBCHEM_IUPAC_OPENEYE_NAME>
N-ethyl-N-[[5-(5-ethylsulfonyl-2-methoxy-phenyl)-1H-pyrrol-2-yl]methyl]tetralin-1-amine

> <PUBCHEM_IUPAC_CAS_NAME>
N-ethyl-N-[[5-(5-ethylsulfonyl-2-methoxyphenyl)-1H-pyrrol-2-yl]methyl]-1,2,3,4-tetrahydronaphthalen-1-amine

> <PUBCHEM_IUPAC_NAME_MARKUP>
<I>N</I>-ethyl-<I>N</I>-[[5-(5-ethylsulfonyl-2-methoxyphenyl)-1<I>H</I>-pyrrol-2-yl]methyl]-1,2,3,4-tetrahydronaphthalen-1-amine

> <PUBCHEM_IUPAC_NAME>
N-ethyl-N-[[5-(5-ethylsulfonyl-2-methoxyphenyl)-1H-pyrrol-2-yl]methyl]-1,2,3,4-tetrahydronaphthalen-1-amine

> <PUBCHEM_IUPAC_SYSTEMATIC_NAME>
N-ethyl-N-[[5-(5-ethylsulfonyl-2-methoxy-phenyl)-1H-pyrrol-2-yl]methyl]-1,2,3,4-tetrahydronaphthalen-1-amine

> <PUBCHEM_IUPAC_TRADITIONAL_NAME>
[5-(5-esyl-2-methoxy-phenyl)-1H-pyrrol-2-yl]methyl-ethyl-tetralin-1-yl-amine

> <PUBCHEM_IUPAC_INCHI>
InChI=1S/C26H32N2O3S/c1-4-28(25-12-8-10-19-9-6-7-11-22(19)25)18-20-13-15-24(27-20)23-17-21(32(29,30)5-2)14-16-26(23)31-3/h6-7,9,11,13-17,25,27H,4-5,8,10,12,18H2,1-3H3

> <PUBCHEM_IUPAC_INCHIKEY>
RBQRPADDWAFDFX-UHFFFAOYSA-N

> <PUBCHEM_XLOGP3_AA>
4.5

> <PUBCHEM_EXACT_MASS>
452.21336406

> <PUBCHEM_MOLECULAR_FORMULA>
C26H32N2O3S

> <PUBCHEM_MOLECULAR_WEIGHT>
452.6

> <PUBCHEM_OPENEYE_CAN_SMILES>
CCN(CC1=CC=C(N1)C2=C(C=CC(=C2)S(=O)(=O)CC)OC)C3CCCC4=CC=CC=C34

> <PUBCHEM_OPENEYE_ISO_SMILES>
CCN(CC1=CC=C(N1)C2=C(C=CC(=C2)S(=O)(=O)CC)OC)C3CCCC4=CC=CC=C34

> <PUBCHEM_CACTVS_TPSA>
70.8

> <PUBCHEM_MONOISOTOPIC_WEIGHT>
452.21336406

> <PUBCHEM_TOTAL_CHARGE>
0

> <PUBCHEM_HEAVY_ATOM_COUNT>
32

> <PUBCHEM_ATOM_DEF_STEREO_COUNT>
0

> <PUBCHEM_ATOM_UDEF_STEREO_COUNT>
1

> <PUBCHEM_BOND_DEF_STEREO_COUNT>
0

> <PUBCHEM_BOND_UDEF_STEREO_COUNT>
0

> <PUBCHEM_ISOTOPIC_ATOM_COUNT>
0

> <PUBCHEM_COMPONENT_COUNT>
1

> <PUBCHEM_CACTVS_TAUTO_COUNT>
-1

> <PUBCHEM_COORDINATE_TYPE>
1
5
255

> <PUBCHEM_BONDANNOTATIONS>
10  12  8
10  15  8
12  16  8
15  19  8
16  20  8
17  21  8
19  20  8
21  23  8
22  23  8
24  25  8
24  26  8
25  27  8
26  28  8
27  29  8
28  29  8
7  5  3
6  17  8
6  22  8

$$$$
