9952420
  -OEChem-09292322072D

 61 61  0     0  0  0  0  0  0999 V2000
   10.8681    5.6200    0.0000 Cl  0  0  0  0  0  0  0  0  0  0  0  0
    3.1350    7.6200    0.0000 O   0  0  0  0  0  0  0  0  0  0  0  0
    1.4030    6.6200    0.0000 O   0  0  0  0  0  0  0  0  0  0  0  0
    5.7331    3.1200    0.0000 N   0  0  0  0  0  0  0  0  0  0  0  0
    4.8671    3.6200    0.0000 C   0  0  0  0  0  0  0  0  0  0  0  0
    5.7331    2.1200    0.0000 C   0  0  0  0  0  0  0  0  0  0  0  0
    6.5991    3.6200    0.0000 C   0  0  0  0  0  0  0  0  0  0  0  0
    4.8671    4.6200    0.0000 C   0  0  0  0  0  0  0  0  0  0  0  0
    6.5991    1.6200    0.0000 C   0  0  0  0  0  0  0  0  0  0  0  0
    7.4651    3.1200    0.0000 C   0  0  0  0  0  0  0  0  0  0  0  0
    4.0010    5.1200    0.0000 C   0  0  0  0  0  0  0  0  0  0  0  0
    6.5991    0.6200    0.0000 C   0  0  0  0  0  0  0  0  0  0  0  0
    8.3312    3.6200    0.0000 C   0  0  0  0  0  0  0  0  0  0  0  0
    4.0010    6.1200    0.0000 C   0  0  0  0  0  0  0  0  0  0  0  0
    3.1350    4.6200    0.0000 C   0  0  0  0  0  0  0  0  0  0  0  0
    3.1350    6.6200    0.0000 C   0  0  0  0  0  0  0  0  0  0  0  0
    2.2690    5.1200    0.0000 C   0  0  0  0  0  0  0  0  0  0  0  0
    2.2690    6.1200    0.0000 C   0  0  0  0  0  0  0  0  0  0  0  0
    4.0010    8.1200    0.0000 C   0  0  0  0  0  0  0  0  0  0  0  0
    4.0010    9.1200    0.0000 C   0  0  0  0  0  0  0  0  0  0  0  0
    4.8671    9.6200    0.0000 C   0  0  0  0  0  0  0  0  0  0  0  0
    5.7331    9.1200    0.0000 C   0  0  0  0  0  0  0  0  0  0  0  0
    4.8671   10.6200    0.0000 C   0  0  0  0  0  0  0  0  0  0  0  0
    0.5369    6.1200    0.0000 C   0  0  0  0  0  0  0  0  0  0  0  0
    6.5991    9.6200    0.0000 C   0  0  0  0  0  0  0  0  0  0  0  0
    5.7331   11.1200    0.0000 C   0  0  0  0  0  0  0  0  0  0  0  0
    6.5991   10.6200    0.0000 C   0  0  0  0  0  0  0  0  0  0  0  0
    4.2565    3.7277    0.0000 H   0  0  0  0  0  0  0  0  0  0  0  0
    4.6550    3.0374    0.0000 H   0  0  0  0  0  0  0  0  0  0  0  0
    5.1225    2.2277    0.0000 H   0  0  0  0  0  0  0  0  0  0  0  0
    5.5210    1.5374    0.0000 H   0  0  0  0  0  0  0  0  0  0  0  0
    6.9976    4.0950    0.0000 H   0  0  0  0  0  0  0  0  0  0  0  0
    6.2006    4.0950    0.0000 H   0  0  0  0  0  0  0  0  0  0  0  0
    5.4776    4.5123    0.0000 H   0  0  0  0  0  0  0  0  0  0  0  0
    5.0791    5.2026    0.0000 H   0  0  0  0  0  0  0  0  0  0  0  0
    7.2097    1.5123    0.0000 H   0  0  0  0  0  0  0  0  0  0  0  0
    6.8112    2.2026    0.0000 H   0  0  0  0  0  0  0  0  0  0  0  0
    7.0666    2.6450    0.0000 H   0  0  0  0  0  0  0  0  0  0  0  0
    7.8637    2.6450    0.0000 H   0  0  0  0  0  0  0  0  0  0  0  0
    5.9791    0.6200    0.0000 H   0  0  0  0  0  0  0  0  0  0  0  0
    6.5991    0.0000    0.0000 H   0  0  0  0  0  0  0  0  0  0  0  0
    7.2191    0.6200    0.0000 H   0  0  0  0  0  0  0  0  0  0  0  0
    8.6412    3.0831    0.0000 H   0  0  0  0  0  0  0  0  0  0  0  0
    8.8681    3.9300    0.0000 H   0  0  0  0  0  0  0  0  0  0  0  0
    8.0212    4.1569    0.0000 H   0  0  0  0  0  0  0  0  0  0  0  0
    4.5380    6.4300    0.0000 H   0  0  0  0  0  0  0  0  0  0  0  0
    3.1350    4.0000    0.0000 H   0  0  0  0  0  0  0  0  0  0  0  0
    1.7320    4.8100    0.0000 H   0  0  0  0  0  0  0  0  0  0  0  0
    4.2131    7.5374    0.0000 H   0  0  0  0  0  0  0  0  0  0  0  0
    4.6116    8.2277    0.0000 H   0  0  0  0  0  0  0  0  0  0  0  0
    3.7890    9.7026    0.0000 H   0  0  0  0  0  0  0  0  0  0  0  0
    3.3905    9.0123    0.0000 H   0  0  0  0  0  0  0  0  0  0  0  0
    5.7331    8.5000    0.0000 H   0  0  0  0  0  0  0  0  0  0  0  0
    4.3301   10.9300    0.0000 H   0  0  0  0  0  0  0  0  0  0  0  0
    0.2269    6.6569    0.0000 H   0  0  0  0  0  0  0  0  0  0  0  0
    0.0000    5.8100    0.0000 H   0  0  0  0  0  0  0  0  0  0  0  0
    0.8469    5.5831    0.0000 H   0  0  0  0  0  0  0  0  0  0  0  0
    7.1360    9.3100    0.0000 H   0  0  0  0  0  0  0  0  0  0  0  0
    5.7331   11.7400    0.0000 H   0  0  0  0  0  0  0  0  0  0  0  0
    7.1360   10.9300    0.0000 H   0  0  0  0  0  0  0  0  0  0  0  0
   11.8681    5.6200    0.0000 H   0  0  0  0  0  0  0  0  0  0  0  0
  1 61  1  0  0  0  0
  2 16  1  0  0  0  0
  2 19  1  0  0  0  0
  3 18  1  0  0  0  0
  3 24  1  0  0  0  0
  4  5  1  0  0  0  0
  4  6  1  0  0  0  0
  4  7  1  0  0  0  0
  5  8  1  0  0  0  0
  5 28  1  0  0  0  0
  5 29  1  0  0  0  0
  6  9  1  0  0  0  0
  6 30  1  0  0  0  0
  6 31  1  0  0  0  0
  7 10  1  0  0  0  0
  7 32  1  0  0  0  0
  7 33  1  0  0  0  0
  8 11  1  0  0  0  0
  8 34  1  0  0  0  0
  8 35  1  0  0  0  0
  9 12  1  0  0  0  0
  9 36  1  0  0  0  0
  9 37  1  0  0  0  0
 10 13  1  0  0  0  0
 10 38  1  0  0  0  0
 10 39  1  0  0  0  0
 11 14  2  0  0  0  0
 11 15  1  0  0  0  0
 12 40  1  0  0  0  0
 12 41  1  0  0  0  0
 12 42  1  0  0  0  0
 13 43  1  0  0  0  0
 13 44  1  0  0  0  0
 13 45  1  0  0  0  0
 14 16  1  0  0  0  0
 14 46  1  0  0  0  0
 15 17  2  0  0  0  0
 15 47  1  0  0  0  0
 16 18  2  0  0  0  0
 17 18  1  0  0  0  0
 17 48  1  0  0  0  0
 19 20  1  0  0  0  0
 19 49  1  0  0  0  0
 19 50  1  0  0  0  0
 20 21  1  0  0  0  0
 20 51  1  0  0  0  0
 20 52  1  0  0  0  0
 21 22  2  0  0  0  0
 21 23  1  0  0  0  0
 22 25  1  0  0  0  0
 22 53  1  0  0  0  0
 23 26  2  0  0  0  0
 23 54  1  0  0  0  0
 24 55  1  0  0  0  0
 24 56  1  0  0  0  0
 24 57  1  0  0  0  0
 25 27  2  0  0  0  0
 25 58  1  0  0  0  0
 26 27  1  0  0  0  0
 26 59  1  0  0  0  0
 27 60  1  0  0  0  0
M  END
> <PUBCHEM_COMPOUND_CID>
9952420

> <PUBCHEM_COMPOUND_CANONICALIZED>
1

> <PUBCHEM_CACTVS_COMPLEXITY>
337

> <PUBCHEM_CACTVS_HBOND_ACCEPTOR>
3

> <PUBCHEM_CACTVS_HBOND_DONOR>
1

> <PUBCHEM_CACTVS_ROTATABLE_BOND>
12

> <PUBCHEM_CACTVS_SUBSKEYS>
AAADcfB6MAAEAAAAAAAAAAAAAAAAAAAAAAAwYAAAAAAAAAABQAAAHgAAAAAADAThmAYyBoMABACAAiBCAAACCAAgIAAIiAAOiIgNJiKEsRuGOCKkwBGKqAeQ0LIOIAABAAAAQABAAAIAAACAAAAAAAAAAA==

> <PUBCHEM_IUPAC_OPENEYE_NAME>
N-[2-[4-methoxy-3-(2-phenylethoxy)phenyl]ethyl]-N-propyl-propan-1-amine;hydrochloride

> <PUBCHEM_IUPAC_CAS_NAME>
N-[2-[4-methoxy-3-(2-phenylethoxy)phenyl]ethyl]-N-propyl-1-propanamine;hydrochloride

> <PUBCHEM_IUPAC_NAME_MARKUP>
<I>N</I>-[2-[4-methoxy-3-(2-phenylethoxy)phenyl]ethyl]-<I>N</I>-propylpropan-1-amine;hydrochloride

> <PUBCHEM_IUPAC_NAME>
N-[2-[4-methoxy-3-(2-phenylethoxy)phenyl]ethyl]-N-propylpropan-1-amine;hydrochloride

> <PUBCHEM_IUPAC_SYSTEMATIC_NAME>
N-[2-[4-methoxy-3-(2-phenylethoxy)phenyl]ethyl]-N-propyl-propan-1-amine;hydrochloride

> <PUBCHEM_IUPAC_TRADITIONAL_NAME>
2-(4-methoxy-3-phenethoxy-phenyl)ethyl-dipropyl-amine;hydrochloride

> <PUBCHEM_IUPAC_INCHI>
InChI=1S/C23H33NO2.ClH/c1-4-15-24(16-5-2)17-13-21-11-12-22(25-3)23(19-21)26-18-14-20-9-7-6-8-10-20;/h6-12,19H,4-5,13-18H2,1-3H3;1H

> <PUBCHEM_IUPAC_INCHIKEY>
ZHGMDXSHODHWHV-UHFFFAOYSA-N

> <PUBCHEM_EXACT_MASS>
391.2278070

> <PUBCHEM_MOLECULAR_FORMULA>
C23H34ClNO2

> <PUBCHEM_MOLECULAR_WEIGHT>
392.0

> <PUBCHEM_OPENEYE_CAN_SMILES>
CCCN(CCC)CCC1=CC(=C(C=C1)OC)OCCC2=CC=CC=C2.Cl

> <PUBCHEM_OPENEYE_ISO_SMILES>
CCCN(CCC)CCC1=CC(=C(C=C1)OC)OCCC2=CC=CC=C2.Cl

> <PUBCHEM_CACTVS_TPSA>
21.7

> <PUBCHEM_MONOISOTOPIC_WEIGHT>
391.2278070

> <PUBCHEM_TOTAL_CHARGE>
0

> <PUBCHEM_HEAVY_ATOM_COUNT>
27

> <PUBCHEM_ATOM_DEF_STEREO_COUNT>
0

> <PUBCHEM_ATOM_UDEF_STEREO_COUNT>
0

> <PUBCHEM_BOND_DEF_STEREO_COUNT>
0

> <PUBCHEM_BOND_UDEF_STEREO_COUNT>
0

> <PUBCHEM_ISOTOPIC_ATOM_COUNT>
0

> <PUBCHEM_COMPONENT_COUNT>
2

> <PUBCHEM_CACTVS_TAUTO_COUNT>
-1

> <PUBCHEM_COORDINATE_TYPE>
1
5
255

> <PUBCHEM_BONDANNOTATIONS>
11  14  8
11  15  8
14  16  8
15  17  8
16  18  8
17  18  8
21  22  8
21  23  8
22  25  8
23  26  8
25  27  8
26  27  8

$$$$
