44382165
  -OEChem-09292322212D

 44 48  0     1  0  0  0  0  0999 V2000
    5.2335   -0.5902    0.0000 O   0  0  0  0  0  0  0  0  0  0  0  0
    5.8685    3.1391    0.0000 O   0  0  0  0  0  0  0  0  0  0  0  0
    3.3751   -1.6822    0.0000 N   0  0  3  0  0  0  0  0  0  0  0  0
    2.5033   -3.1789    0.0000 C   0  0  0  0  0  0  0  0  0  0  0  0
    3.3835   -0.5973    0.0000 C   0  0  1  0  0  0  0  0  0  0  0  0
    2.0000   -4.0430    0.0000 C   0  0  0  0  0  0  0  0  0  0  0  0
    3.0000   -4.0468    0.0000 C   0  0  0  0  0  0  0  0  0  0  0  0
    2.5072   -2.1789    0.0000 C   0  0  0  0  0  0  0  0  0  0  0  0
    4.2815   -0.0695    0.0000 C   0  0  1  0  0  0  0  0  0  0  0  0
    2.4814   -0.0765    0.0000 C   0  0  0  0  0  0  0  0  0  0  0  0
    4.3148   -2.2247    0.0000 C   0  0  0  0  0  0  0  0  0  0  0  0
    4.2655    0.9720    0.0000 C   0  0  0  0  0  0  0  0  0  0  0  0
    2.4894    0.9651    0.0000 C   0  0  0  0  0  0  0  0  0  0  0  0
    3.3994    1.4720    0.0000 C   0  0  0  0  0  0  0  0  0  0  0  0
    5.2502   -1.6750    0.0000 C   0  0  0  0  0  0  0  0  0  0  0  0
    5.1315    1.4720    0.0000 C   0  0  0  0  0  0  0  0  0  0  0  0
    3.3994    2.4720    0.0000 C   0  0  0  0  0  0  0  0  0  0  0  0
    4.2655    2.9720    0.0000 C   0  0  0  0  0  0  0  0  0  0  0  0
    5.1315    2.4720    0.0000 C   0  0  0  0  0  0  0  0  0  0  0  0
    4.4747    3.9438    0.0000 C   0  0  0  0  0  0  0  0  0  0  0  0
    5.4634    4.0468    0.0000 C   0  0  0  0  0  0  0  0  0  0  0  0
    1.9051   -3.0161    0.0000 H   0  0  0  0  0  0  0  0  0  0  0  0
    2.6458   -1.0194    0.0000 H   0  0  0  0  0  0  0  0  0  0  0  0
    1.4182   -3.8287    0.0000 H   0  0  0  0  0  0  0  0  0  0  0  0
    1.8900   -4.6532    0.0000 H   0  0  0  0  0  0  0  0  0  0  0  0
    3.1053   -4.6578    0.0000 H   0  0  0  0  0  0  0  0  0  0  0  0
    3.5834   -3.8370    0.0000 H   0  0  0  0  0  0  0  0  0  0  0  0
    2.2974   -1.5955    0.0000 H   0  0  0  0  0  0  0  0  0  0  0  0
    1.8962   -2.2842    0.0000 H   0  0  0  0  0  0  0  0  0  0  0  0
    5.0093    0.3696    0.0000 H   0  0  0  0  0  0  0  0  0  0  0  0
    1.8714    0.0343    0.0000 H   0  0  0  0  0  0  0  0  0  0  0  0
    2.2679   -0.6585    0.0000 H   0  0  0  0  0  0  0  0  0  0  0  0
    3.9175   -2.7007    0.0000 H   0  0  0  0  0  0  0  0  0  0  0  0
    4.7157   -2.6976    0.0000 H   0  0  0  0  0  0  0  0  0  0  0  0
    2.2849    1.5504    0.0000 H   0  0  0  0  0  0  0  0  0  0  0  0
    1.8778    0.8637    0.0000 H   0  0  0  0  0  0  0  0  0  0  0  0
    5.4682   -2.2554    0.0000 H   0  0  0  0  0  0  0  0  0  0  0  0
    5.8593   -1.5595    0.0000 H   0  0  0  0  0  0  0  0  0  0  0  0
    5.6684    1.1620    0.0000 H   0  0  0  0  0  0  0  0  0  0  0  0
    2.8625    2.7820    0.0000 H   0  0  0  0  0  0  0  0  0  0  0  0
    4.4756    4.5638    0.0000 H   0  0  0  0  0  0  0  0  0  0  0  0
    3.8582    4.0098    0.0000 H   0  0  0  0  0  0  0  0  0  0  0  0
    6.0530    4.2386    0.0000 H   0  0  0  0  0  0  0  0  0  0  0  0
    5.3347    4.6533    0.0000 H   0  0  0  0  0  0  0  0  0  0  0  0
  1  9  1  0  0  0  0
  1 15  1  0  0  0  0
  2 19  1  0  0  0  0
  2 21  1  0  0  0  0
  3  5  1  0  0  0  0
  3  8  1  0  0  0  0
  3 11  1  0  0  0  0
  4  6  1  0  0  0  0
  4  7  1  0  0  0  0
  4  8  1  0  0  0  0
  4 22  1  0  0  0  0
  5  9  1  0  0  0  0
  5 10  1  0  0  0  0
  5 23  1  1  0  0  0
  6  7  1  0  0  0  0
  6 24  1  0  0  0  0
  6 25  1  0  0  0  0
  7 26  1  0  0  0  0
  7 27  1  0  0  0  0
  8 28  1  0  0  0  0
  8 29  1  0  0  0  0
  9 12  1  0  0  0  0
  9 30  1  6  0  0  0
 10 13  1  0  0  0  0
 10 31  1  0  0  0  0
 10 32  1  0  0  0  0
 11 15  1  0  0  0  0
 11 33  1  0  0  0  0
 11 34  1  0  0  0  0
 12 14  1  0  0  0  0
 12 16  2  0  0  0  0
 13 14  1  0  0  0  0
 13 35  1  0  0  0  0
 13 36  1  0  0  0  0
 14 17  2  0  0  0  0
 15 37  1  0  0  0  0
 15 38  1  0  0  0  0
 16 19  1  0  0  0  0
 16 39  1  0  0  0  0
 17 18  1  0  0  0  0
 17 40  1  0  0  0  0
 18 19  2  0  0  0  0
 18 20  1  0  0  0  0
 20 21  1  0  0  0  0
 20 41  1  0  0  0  0
 20 42  1  0  0  0  0
 21 43  1  0  0  0  0
 21 44  1  0  0  0  0
M  END
> <PUBCHEM_COMPOUND_CID>
44382165

> <PUBCHEM_COMPOUND_CANONICALIZED>
1

> <PUBCHEM_CACTVS_COMPLEXITY>
397

> <PUBCHEM_CACTVS_HBOND_ACCEPTOR>
3

> <PUBCHEM_CACTVS_HBOND_DONOR>
0

> <PUBCHEM_CACTVS_ROTATABLE_BOND>
2

> <PUBCHEM_CACTVS_SUBSKEYS>
AAADceB6MAAAAAAAAAAAAAAAGAAAASAAAAA8YIAAAAAAAEjxAAAAHgAAAAAADTzhmAYwBoMABACAAiBCAAACCAAgIAAAiAAOCIgOJiKEsRuHOCCkwBGYqAfQ0PMO4AADAAAYAADQAAaAADAgAAAAAAAAAA==

> <PUBCHEM_IUPAC_OPENEYE_NAME>
(4aR,11bR)-4-(cyclopropylmethyl)-2,3,4a,5,6,8,9,11b-octahydrobenzofuro[5,6-h][1,4]benzoxazine

> <PUBCHEM_IUPAC_CAS_NAME>
(4aR,11bR)-4-(cyclopropylmethyl)-2,3,4a,5,6,8,9,11b-octahydrobenzofuro[5,6-h][1,4]benzoxazine

> <PUBCHEM_IUPAC_NAME_MARKUP>
(4<I>a</I><I>R</I>,11<I>b</I><I>R</I>)-4-(cyclopropylmethyl)-2,3,4<I>a</I>,5,6,8,9,11<I>b</I>-octahydro-[1]benzofuro[5,6-h][1,4]benzoxazine

> <PUBCHEM_IUPAC_NAME>
(4aR,11bR)-4-(cyclopropylmethyl)-2,3,4a,5,6,8,9,11b-octahydro-[1]benzofuro[5,6-h][1,4]benzoxazine

> <PUBCHEM_IUPAC_SYSTEMATIC_NAME>
(4aR,11bR)-4-(cyclopropylmethyl)-2,3,4a,5,6,8,9,11b-octahydro-[1]benzofuro[5,6-h][1,4]benzoxazine

> <PUBCHEM_IUPAC_TRADITIONAL_NAME>
(4aR,11bR)-4-(cyclopropylmethyl)-2,3,4a,5,6,8,9,11b-octahydrobenzofuro[5,6-h][1,4]benzoxazine

> <PUBCHEM_IUPAC_INCHI>
InChI=1S/C18H23NO2/c1-2-12(1)11-19-6-8-21-18-15-10-17-14(5-7-20-17)9-13(15)3-4-16(18)19/h9-10,12,16,18H,1-8,11H2/t16-,18-/m1/s1

> <PUBCHEM_IUPAC_INCHIKEY>
SEMJDPGTUJSAEG-SJLPKXTDSA-N

> <PUBCHEM_XLOGP3_AA>
2.6

> <PUBCHEM_EXACT_MASS>
285.172878976

> <PUBCHEM_MOLECULAR_FORMULA>
C18H23NO2

> <PUBCHEM_MOLECULAR_WEIGHT>
285.4

> <PUBCHEM_OPENEYE_CAN_SMILES>
C1CC1CN2CCOC3C2CCC4=CC5=C(C=C34)OCC5

> <PUBCHEM_OPENEYE_ISO_SMILES>
C1CC2=CC3=C(C=C2[C@@H]4[C@@H]1N(CCO4)CC5CC5)OCC3

> <PUBCHEM_CACTVS_TPSA>
21.7

> <PUBCHEM_MONOISOTOPIC_WEIGHT>
285.172878976

> <PUBCHEM_TOTAL_CHARGE>
0

> <PUBCHEM_HEAVY_ATOM_COUNT>
21

> <PUBCHEM_ATOM_DEF_STEREO_COUNT>
2

> <PUBCHEM_ATOM_UDEF_STEREO_COUNT>
0

> <PUBCHEM_BOND_DEF_STEREO_COUNT>
0

> <PUBCHEM_BOND_UDEF_STEREO_COUNT>
0

> <PUBCHEM_ISOTOPIC_ATOM_COUNT>
0

> <PUBCHEM_COMPONENT_COUNT>
1

> <PUBCHEM_CACTVS_TAUTO_COUNT>
-1

> <PUBCHEM_COORDINATE_TYPE>
1
5
255

> <PUBCHEM_BONDANNOTATIONS>
12  14  8
12  16  8
14  17  8
16  19  8
17  18  8
18  19  8
5  23  5
9  30  6

$$$$
