52940753
  -OEChem-09292322302D

 59 63  0     1  0  0  0  0  0999 V2000
    5.4381   -1.8204    0.0000 S   0  0  0  0  0  0  0  0  0  0  0  0
   11.5003    5.6796    0.0000 F   0  0  0  0  0  0  0  0  0  0  0  0
   10.1343    6.0456    0.0000 F   0  0  0  0  0  0  0  0  0  0  0  0
   11.1343    4.3135    0.0000 F   0  0  0  0  0  0  0  0  0  0  0  0
    2.1045   -4.6443    0.0000 O   0  0  0  0  0  0  0  0  0  0  0  0
    7.1702    1.1796    0.0000 N   0  0  3  0  0  0  0  0  0  0  0  0
    4.4676   -3.3150    0.0000 N   0  0  0  0  0  0  0  0  0  0  0  0
    3.6585   -1.9137    0.0000 N   0  0  0  0  0  0  0  0  0  0  0  0
    2.9894   -2.6568    0.0000 N   0  0  0  0  0  0  0  0  0  0  0  0
    2.9136   -6.0456    0.0000 N   0  0  0  0  0  0  0  0  0  0  0  0
    8.9022    2.1796    0.0000 C   0  0  3  0  0  0  0  0  0  0  0  0
    8.9022    1.1796    0.0000 C   0  0  3  0  0  0  0  0  0  0  0  0
    9.7688    1.6796    0.0000 C   0  0  0  0  0  0  0  0  0  0  0  0
    8.0362    2.6796    0.0000 C   0  0  0  0  0  0  0  0  0  0  0  0
    8.0362    0.6796    0.0000 C   0  0  0  0  0  0  0  0  0  0  0  0
    8.9022    3.1796    0.0000 C   0  0  0  0  0  0  0  0  0  0  0  0
    7.1702    2.1796    0.0000 C   0  0  0  0  0  0  0  0  0  0  0  0
    6.3041    0.6796    0.0000 C   0  0  0  0  0  0  0  0  0  0  0  0
    9.7682    3.6796    0.0000 C   0  0  0  0  0  0  0  0  0  0  0  0
    8.0362    3.6796    0.0000 C   0  0  0  0  0  0  0  0  0  0  0  0
    6.3041   -0.3204    0.0000 C   0  0  0  0  0  0  0  0  0  0  0  0
    9.7682    4.6796    0.0000 C   0  0  0  0  0  0  0  0  0  0  0  0
    8.0362    4.6796    0.0000 C   0  0  0  0  0  0  0  0  0  0  0  0
    8.9022    5.1796    0.0000 C   0  0  0  0  0  0  0  0  0  0  0  0
    5.4381   -0.8204    0.0000 C   0  0  0  0  0  0  0  0  0  0  0  0
   10.6343    5.1796    0.0000 C   0  0  0  0  0  0  0  0  0  0  0  0
    4.5721   -2.3204    0.0000 C   0  0  0  0  0  0  0  0  0  0  0  0
    3.4894   -3.5229    0.0000 C   0  0  0  0  0  0  0  0  0  0  0  0
    5.2107   -3.9841    0.0000 C   0  0  0  0  0  0  0  0  0  0  0  0
    3.0827   -4.4364    0.0000 C   0  0  0  0  0  0  0  0  0  0  0  0
    3.5827   -5.3024    0.0000 C   0  0  0  0  0  0  0  0  0  0  0  0
    4.5772   -5.4070    0.0000 C   0  0  0  0  0  0  0  0  0  0  0  0
    2.0000   -5.6388    0.0000 C   0  0  0  0  0  0  0  0  0  0  0  0
    9.2122    0.6426    0.0000 H   0  0  0  0  0  0  0  0  0  0  0  0
   10.1672    1.2046    0.0000 H   0  0  0  0  0  0  0  0  0  0  0  0
   10.1672    2.1545    0.0000 H   0  0  0  0  0  0  0  0  0  0  0  0
    8.4347    3.1545    0.0000 H   0  0  0  0  0  0  0  0  0  0  0  0
    7.6377    3.1545    0.0000 H   0  0  0  0  0  0  0  0  0  0  0  0
    7.6377    0.2046    0.0000 H   0  0  0  0  0  0  0  0  0  0  0  0
    8.4347    0.2046    0.0000 H   0  0  0  0  0  0  0  0  0  0  0  0
    6.9581    2.7622    0.0000 H   0  0  0  0  0  0  0  0  0  0  0  0
    6.5596    2.0719    0.0000 H   0  0  0  0  0  0  0  0  0  0  0  0
    6.0921    1.2622    0.0000 H   0  0  0  0  0  0  0  0  0  0  0  0
    5.6936    0.5719    0.0000 H   0  0  0  0  0  0  0  0  0  0  0  0
   10.3052    3.3696    0.0000 H   0  0  0  0  0  0  0  0  0  0  0  0
    7.4992    3.3696    0.0000 H   0  0  0  0  0  0  0  0  0  0  0  0
    6.5162   -0.9030    0.0000 H   0  0  0  0  0  0  0  0  0  0  0  0
    6.9147   -0.2128    0.0000 H   0  0  0  0  0  0  0  0  0  0  0  0
    7.4992    4.9896    0.0000 H   0  0  0  0  0  0  0  0  0  0  0  0
    8.9022    5.7996    0.0000 H   0  0  0  0  0  0  0  0  0  0  0  0
    5.2261   -0.2378    0.0000 H   0  0  0  0  0  0  0  0  0  0  0  0
    4.8275   -0.9281    0.0000 H   0  0  0  0  0  0  0  0  0  0  0  0
    4.7958   -4.4448    0.0000 H   0  0  0  0  0  0  0  0  0  0  0  0
    5.6714   -4.3990    0.0000 H   0  0  0  0  0  0  0  0  0  0  0  0
    5.6256   -3.5233    0.0000 H   0  0  0  0  0  0  0  0  0  0  0  0
    4.5124   -6.0236    0.0000 H   0  0  0  0  0  0  0  0  0  0  0  0
    5.1938   -5.4718    0.0000 H   0  0  0  0  0  0  0  0  0  0  0  0
    4.6420   -4.7904    0.0000 H   0  0  0  0  0  0  0  0  0  0  0  0
    1.4631   -5.9488    0.0000 H   0  0  0  0  0  0  0  0  0  0  0  0
  1 25  1  0  0  0  0
  1 27  1  0  0  0  0
  2 26  1  0  0  0  0
  3 26  1  0  0  0  0
  4 26  1  0  0  0  0
  5 30  1  0  0  0  0
  5 33  1  0  0  0  0
  6 15  1  0  0  0  0
  6 17  1  0  0  0  0
  6 18  1  0  0  0  0
  7 27  1  0  0  0  0
  7 28  1  0  0  0  0
  7 29  1  0  0  0  0
  8  9  1  0  0  0  0
  8 27  2  0  0  0  0
  9 28  2  0  0  0  0
 10 31  1  0  0  0  0
 10 33  2  0  0  0  0
 11 12  1  0  0  0  0
 11 13  1  0  0  0  0
 11 14  1  0  0  0  0
 11 16  1  0  0  0  0
 12 13  1  0  0  0  0
 12 15  1  0  0  0  0
 12 34  1  0  0  0  0
 13 35  1  0  0  0  0
 13 36  1  0  0  0  0
 14 17  1  0  0  0  0
 14 37  1  0  0  0  0
 14 38  1  0  0  0  0
 15 39  1  0  0  0  0
 15 40  1  0  0  0  0
 16 19  2  0  0  0  0
 16 20  1  0  0  0  0
 17 41  1  0  0  0  0
 17 42  1  0  0  0  0
 18 21  1  0  0  0  0
 18 43  1  0  0  0  0
 18 44  1  0  0  0  0
 19 22  1  0  0  0  0
 19 45  1  0  0  0  0
 20 23  2  0  0  0  0
 20 46  1  0  0  0  0
 21 25  1  0  0  0  0
 21 47  1  0  0  0  0
 21 48  1  0  0  0  0
 22 24  2  0  0  0  0
 22 26  1  0  0  0  0
 23 24  1  0  0  0  0
 23 49  1  0  0  0  0
 24 50  1  0  0  0  0
 25 51  1  0  0  0  0
 25 52  1  0  0  0  0
 28 30  1  0  0  0  0
 29 53  1  0  0  0  0
 29 54  1  0  0  0  0
 29 55  1  0  0  0  0
 30 31  2  0  0  0  0
 31 32  1  0  0  0  0
 32 56  1  0  0  0  0
 32 57  1  0  0  0  0
 32 58  1  0  0  0  0
 33 59  1  0  0  0  0
M  END
> <PUBCHEM_COMPOUND_CID>
52940753

> <PUBCHEM_COMPOUND_CANONICALIZED>
1

> <PUBCHEM_CACTVS_COMPLEXITY>
687

> <PUBCHEM_CACTVS_HBOND_ACCEPTOR>
9

> <PUBCHEM_CACTVS_HBOND_DONOR>
0

> <PUBCHEM_CACTVS_ROTATABLE_BOND>
7

> <PUBCHEM_CACTVS_SUBSKEYS>
AAADceB7oYBAAAAAAAAAAAAAGAAAAWLAAAA8QAAABYAAAAAB8AAAHwQIAAAADwzF3xa3lJcMFEiqA6Zz9ASS2Ct7YLAd2CG9RJiOKCLk2TCNIChgjALYiAcQgMAPgAACAAAAAAAAAAQAAAAAAAAAAAAAAA==

> <PUBCHEM_IUPAC_OPENEYE_NAME>
4-methyl-5-[4-methyl-5-[3-[6-[3-(trifluoromethyl)phenyl]-3-azabicyclo[4.1.0]heptan-3-yl]propylsulfanyl]-1,2,4-triazol-3-yl]oxazole

> <PUBCHEM_IUPAC_CAS_NAME>
4-methyl-5-[4-methyl-5-[3-[6-[3-(trifluoromethyl)phenyl]-3-azabicyclo[4.1.0]heptan-3-yl]propylthio]-1,2,4-triazol-3-yl]oxazole

> <PUBCHEM_IUPAC_NAME_MARKUP>
4-methyl-5-[4-methyl-5-[3-[6-[3-(trifluoromethyl)phenyl]-3-azabicyclo[4.1.0]heptan-3-yl]propylsulfanyl]-1,2,4-triazol-3-yl]-1,3-oxazole

> <PUBCHEM_IUPAC_NAME>
4-methyl-5-[4-methyl-5-[3-[6-[3-(trifluoromethyl)phenyl]-3-azabicyclo[4.1.0]heptan-3-yl]propylsulfanyl]-1,2,4-triazol-3-yl]-1,3-oxazole

> <PUBCHEM_IUPAC_SYSTEMATIC_NAME>
4-methyl-5-[4-methyl-5-[3-[6-[3-(trifluoromethyl)phenyl]-3-azabicyclo[4.1.0]heptan-3-yl]propylsulfanyl]-1,2,4-triazol-3-yl]-1,3-oxazole

> <PUBCHEM_IUPAC_TRADITIONAL_NAME>
4-methyl-5-[4-methyl-5-[3-[6-[3-(trifluoromethyl)phenyl]-3-azabicyclo[4.1.0]heptan-3-yl]propylthio]-1,2,4-triazol-3-yl]oxazole

> <PUBCHEM_IUPAC_INCHI>
InChI=1S/C23H26F3N5OS/c1-15-19(32-14-27-15)20-28-29-21(30(20)2)33-10-4-8-31-9-7-22(12-18(22)13-31)16-5-3-6-17(11-16)23(24,25)26/h3,5-6,11,14,18H,4,7-10,12-13H2,1-2H3

> <PUBCHEM_IUPAC_INCHIKEY>
MHPHRNFSAZNRAT-UHFFFAOYSA-N

> <PUBCHEM_XLOGP3_AA>
4.3

> <PUBCHEM_EXACT_MASS>
477.18101613

> <PUBCHEM_MOLECULAR_FORMULA>
C23H26F3N5OS

> <PUBCHEM_MOLECULAR_WEIGHT>
477.5

> <PUBCHEM_OPENEYE_CAN_SMILES>
CC1=C(OC=N1)C2=NN=C(N2C)SCCCN3CCC4(CC4C3)C5=CC(=CC=C5)C(F)(F)F

> <PUBCHEM_OPENEYE_ISO_SMILES>
CC1=C(OC=N1)C2=NN=C(N2C)SCCCN3CCC4(CC4C3)C5=CC(=CC=C5)C(F)(F)F

> <PUBCHEM_CACTVS_TPSA>
85.3

> <PUBCHEM_MONOISOTOPIC_WEIGHT>
477.18101613

> <PUBCHEM_TOTAL_CHARGE>
0

> <PUBCHEM_HEAVY_ATOM_COUNT>
33

> <PUBCHEM_ATOM_DEF_STEREO_COUNT>
0

> <PUBCHEM_ATOM_UDEF_STEREO_COUNT>
2

> <PUBCHEM_BOND_DEF_STEREO_COUNT>
0

> <PUBCHEM_BOND_UDEF_STEREO_COUNT>
0

> <PUBCHEM_ISOTOPIC_ATOM_COUNT>
0

> <PUBCHEM_COMPONENT_COUNT>
1

> <PUBCHEM_CACTVS_TAUTO_COUNT>
-1

> <PUBCHEM_COORDINATE_TYPE>
1
5
255

> <PUBCHEM_BONDANNOTATIONS>
10  31  8
10  33  8
11  16  3
12  13  3
16  19  8
16  20  8
19  22  8
20  23  8
22  24  8
23  24  8
30  31  8
5  30  8
5  33  8
7  27  8
7  28  8
8  27  8
8  9  8
9  28  8

$$$$
