155561995
  -OEChem-09292322412D

 73 78  0     1  0  0  0  0  0999 V2000
   13.2358   -5.5062    0.0000 F   0  0  0  0  0  0  0  0  0  0  0  0
    4.6660    5.5062    0.0000 F   0  0  0  0  0  0  0  0  0  0  0  0
    4.6660   -1.4938    0.0000 O   0  0  0  0  0  0  0  0  0  0  0  0
    6.3981    1.5062    0.0000 O   0  0  0  0  0  0  0  0  0  0  0  0
    8.1301   -3.4938    0.0000 N   0  0  3  0  0  0  0  0  0  0  0  0
    3.8000    0.0062    0.0000 N   0  0  0  0  0  0  0  0  0  0  0  0
    5.5321    0.0062    0.0000 N   0  0  0  0  0  0  0  0  0  0  0  0
   11.8031   -1.7959    0.0000 N   0  0  0  0  0  0  0  0  0  0  0  0
    9.8622   -3.4938    0.0000 C   0  0  3  0  0  0  0  0  0  0  0  0
    8.9962   -2.9938    0.0000 C   0  0  0  0  0  0  0  0  0  0  0  0
    9.8622   -4.4938    0.0000 C   0  0  0  0  0  0  0  0  0  0  0  0
    8.9962   -4.9938    0.0000 C   0  0  0  0  0  0  0  0  0  0  0  0
    8.1301   -4.4938    0.0000 C   0  0  0  0  0  0  0  0  0  0  0  0
    7.2641   -2.9938    0.0000 C   0  0  0  0  0  0  0  0  0  0  0  0
   10.7282   -2.9938    0.0000 C   0  0  0  0  0  0  0  0  0  0  0  0
    7.2641   -1.9938    0.0000 C   0  0  0  0  0  0  0  0  0  0  0  0
    6.3981   -1.4938    0.0000 C   0  0  0  0  0  0  0  0  0  0  0  0
   11.6360   -3.3989    0.0000 C   0  0  0  0  0  0  0  0  0  0  0  0
   10.8313   -2.0051    0.0000 C   0  0  0  0  0  0  0  0  0  0  0  0
    6.3981   -0.4938    0.0000 C   0  0  0  0  0  0  0  0  0  0  0  0
    3.8000    1.0062    0.0000 C   0  0  0  0  0  0  0  0  0  0  0  0
    2.9061    1.5408    0.0000 C   0  0  0  0  0  0  0  0  0  0  0  0
    2.9061   -0.5285    0.0000 C   0  0  0  0  0  0  0  0  0  0  0  0
   12.3038   -2.6546    0.0000 C   0  0  0  0  0  0  0  0  0  0  0  0
    2.0000    1.0270    0.0000 C   0  0  0  0  0  0  0  0  0  0  0  0
    2.0000   -0.0146    0.0000 C   0  0  0  0  0  0  0  0  0  0  0  0
    4.6660    1.5062    0.0000 C   0  0  0  0  0  0  0  0  0  0  0  0
    4.6660   -0.4938    0.0000 C   0  0  0  0  0  0  0  0  0  0  0  0
    5.5321    1.0062    0.0000 C   0  0  0  0  0  0  0  0  0  0  0  0
   11.9467   -4.3494    0.0000 C   0  0  0  0  0  0  0  0  0  0  0  0
   13.2823   -2.8608    0.0000 C   0  0  0  0  0  0  0  0  0  0  0  0
    4.6660    2.5062    0.0000 C   0  0  0  0  0  0  0  0  0  0  0  0
   12.9252   -4.5557    0.0000 C   0  0  0  0  0  0  0  0  0  0  0  0
   13.5930   -3.8114    0.0000 C   0  0  0  0  0  0  0  0  0  0  0  0
    3.8000    3.0062    0.0000 C   0  0  0  0  0  0  0  0  0  0  0  0
    5.5321    3.0062    0.0000 C   0  0  0  0  0  0  0  0  0  0  0  0
    3.8000    4.0062    0.0000 C   0  0  0  0  0  0  0  0  0  0  0  0
    5.5321    4.0062    0.0000 C   0  0  0  0  0  0  0  0  0  0  0  0
    4.6660    4.5062    0.0000 C   0  0  0  0  0  0  0  0  0  0  0  0
    9.8622   -2.8738    0.0000 H   0  0  0  0  0  0  0  0  0  0  0  0
    9.3947   -2.5189    0.0000 H   0  0  0  0  0  0  0  0  0  0  0  0
    8.5976   -2.5189    0.0000 H   0  0  0  0  0  0  0  0  0  0  0  0
   10.0742   -5.0764    0.0000 H   0  0  0  0  0  0  0  0  0  0  0  0
   10.4728   -4.3862    0.0000 H   0  0  0  0  0  0  0  0  0  0  0  0
    8.5976   -5.4688    0.0000 H   0  0  0  0  0  0  0  0  0  0  0  0
    9.3947   -5.4688    0.0000 H   0  0  0  0  0  0  0  0  0  0  0  0
    7.5196   -4.3862    0.0000 H   0  0  0  0  0  0  0  0  0  0  0  0
    7.9181   -5.0764    0.0000 H   0  0  0  0  0  0  0  0  0  0  0  0
    6.6535   -2.8862    0.0000 H   0  0  0  0  0  0  0  0  0  0  0  0
    7.0521   -3.5764    0.0000 H   0  0  0  0  0  0  0  0  0  0  0  0
    7.8747   -2.1015    0.0000 H   0  0  0  0  0  0  0  0  0  0  0  0
    7.4762   -1.4112    0.0000 H   0  0  0  0  0  0  0  0  0  0  0  0
    5.7875   -1.3862    0.0000 H   0  0  0  0  0  0  0  0  0  0  0  0
    6.1860   -2.0764    0.0000 H   0  0  0  0  0  0  0  0  0  0  0  0
   10.3698   -1.5910    0.0000 H   0  0  0  0  0  0  0  0  0  0  0  0
    7.0087   -0.6015    0.0000 H   0  0  0  0  0  0  0  0  0  0  0  0
    6.6101    0.0888    0.0000 H   0  0  0  0  0  0  0  0  0  0  0  0
    3.3107    2.0106    0.0000 H   0  0  0  0  0  0  0  0  0  0  0  0
    2.5124    2.0199    0.0000 H   0  0  0  0  0  0  0  0  0  0  0  0
    2.5124   -1.0075    0.0000 H   0  0  0  0  0  0  0  0  0  0  0  0
    3.3107   -0.9983    0.0000 H   0  0  0  0  0  0  0  0  0  0  0  0
    1.7909    1.6107    0.0000 H   0  0  0  0  0  0  0  0  0  0  0  0
    1.3891    0.9209    0.0000 H   0  0  0  0  0  0  0  0  0  0  0  0
    1.3891    0.0915    0.0000 H   0  0  0  0  0  0  0  0  0  0  0  0
    1.7909   -0.5983    0.0000 H   0  0  0  0  0  0  0  0  0  0  0  0
   12.0533   -1.2286    0.0000 H   0  0  0  0  0  0  0  0  0  0  0  0
   11.5326   -4.8109    0.0000 H   0  0  0  0  0  0  0  0  0  0  0  0
   13.6964   -2.3994    0.0000 H   0  0  0  0  0  0  0  0  0  0  0  0
   14.1997   -3.9392    0.0000 H   0  0  0  0  0  0  0  0  0  0  0  0
    3.2631    2.6962    0.0000 H   0  0  0  0  0  0  0  0  0  0  0  0
    6.0690    2.6962    0.0000 H   0  0  0  0  0  0  0  0  0  0  0  0
    3.2631    4.3162    0.0000 H   0  0  0  0  0  0  0  0  0  0  0  0
    6.0690    4.3162    0.0000 H   0  0  0  0  0  0  0  0  0  0  0  0
  1 33  1  0  0  0  0
  2 39  1  0  0  0  0
  3 28  2  0  0  0  0
  4 29  2  0  0  0  0
  5 10  1  0  0  0  0
  5 13  1  0  0  0  0
  5 14  1  0  0  0  0
  6 21  1  0  0  0  0
  6 23  1  0  0  0  0
  6 28  1  0  0  0  0
  7 20  1  0  0  0  0
  7 28  1  0  0  0  0
  7 29  1  0  0  0  0
  8 19  1  0  0  0  0
  8 24  1  0  0  0  0
  8 66  1  0  0  0  0
  9 10  1  0  0  0  0
  9 11  1  0  0  0  0
  9 15  1  0  0  0  0
  9 40  1  0  0  0  0
 10 41  1  0  0  0  0
 10 42  1  0  0  0  0
 11 12  1  0  0  0  0
 11 43  1  0  0  0  0
 11 44  1  0  0  0  0
 12 13  1  0  0  0  0
 12 45  1  0  0  0  0
 12 46  1  0  0  0  0
 13 47  1  0  0  0  0
 13 48  1  0  0  0  0
 14 16  1  0  0  0  0
 14 49  1  0  0  0  0
 14 50  1  0  0  0  0
 15 18  1  0  0  0  0
 15 19  2  0  0  0  0
 16 17  1  0  0  0  0
 16 51  1  0  0  0  0
 16 52  1  0  0  0  0
 17 20  1  0  0  0  0
 17 53  1  0  0  0  0
 17 54  1  0  0  0  0
 18 24  2  0  0  0  0
 18 30  1  0  0  0  0
 19 55  1  0  0  0  0
 20 56  1  0  0  0  0
 20 57  1  0  0  0  0
 21 22  1  0  0  0  0
 21 27  2  0  0  0  0
 22 25  1  0  0  0  0
 22 58  1  0  0  0  0
 22 59  1  0  0  0  0
 23 26  1  0  0  0  0
 23 60  1  0  0  0  0
 23 61  1  0  0  0  0
 24 31  1  0  0  0  0
 25 26  1  0  0  0  0
 25 62  1  0  0  0  0
 25 63  1  0  0  0  0
 26 64  1  0  0  0  0
 26 65  1  0  0  0  0
 27 29  1  0  0  0  0
 27 32  1  0  0  0  0
 30 33  2  0  0  0  0
 30 67  1  0  0  0  0
 31 34  2  0  0  0  0
 31 68  1  0  0  0  0
 32 35  2  0  0  0  0
 32 36  1  0  0  0  0
 33 34  1  0  0  0  0
 34 69  1  0  0  0  0
 35 37  1  0  0  0  0
 35 70  1  0  0  0  0
 36 38  2  0  0  0  0
 36 71  1  0  0  0  0
 37 39  2  0  0  0  0
 37 72  1  0  0  0  0
 38 39  1  0  0  0  0
 38 73  1  0  0  0  0
M  END
> <PUBCHEM_COMPOUND_CID>
155561995

> <PUBCHEM_COMPOUND_CANONICALIZED>
1

> <PUBCHEM_CACTVS_COMPLEXITY>
936

> <PUBCHEM_CACTVS_HBOND_ACCEPTOR>
5

> <PUBCHEM_CACTVS_HBOND_DONOR>
1

> <PUBCHEM_CACTVS_ROTATABLE_BOND>
7

> <PUBCHEM_CACTVS_SUBSKEYS>
AAADcfB7sYAAAAAAAAAAAAAAAAAAAWAAAAA8eIECAAAAAFiB9AAAHwAQAAAADQjBngw9wPPJkACoAzV3VACCgCAxAiAI2aE4ZNiIIPLAlZGEIAholyLIyUcYiMCOgAAAAAACAAAAAAAAAAQAAAAAAAAAAA==

> <PUBCHEM_IUPAC_OPENEYE_NAME>
2-[4-[3-(5-fluoro-1H-indol-3-yl)-1-piperidyl]butyl]-4-(4-fluorophenyl)-5,6,7,8-tetrahydropyrido[1,2-c]pyrimidine-1,3-dione

> <PUBCHEM_IUPAC_CAS_NAME>
2-[4-[3-(5-fluoro-1H-indol-3-yl)-1-piperidinyl]butyl]-4-(4-fluorophenyl)-5,6,7,8-tetrahydropyrido[1,2-c]pyrimidine-1,3-dione

> <PUBCHEM_IUPAC_NAME_MARKUP>
2-[4-[3-(5-fluoro-1<I>H</I>-indol-3-yl)piperidin-1-yl]butyl]-4-(4-fluorophenyl)-5,6,7,8-tetrahydropyrido[1,2-c]pyrimidine-1,3-dione

> <PUBCHEM_IUPAC_NAME>
2-[4-[3-(5-fluoro-1H-indol-3-yl)piperidin-1-yl]butyl]-4-(4-fluorophenyl)-5,6,7,8-tetrahydropyrido[1,2-c]pyrimidine-1,3-dione

> <PUBCHEM_IUPAC_SYSTEMATIC_NAME>
2-[4-[3-(5-fluoranyl-1H-indol-3-yl)piperidin-1-yl]butyl]-4-(4-fluorophenyl)-5,6,7,8-tetrahydropyrido[1,2-c]pyrimidine-1,3-dione

> <PUBCHEM_IUPAC_TRADITIONAL_NAME>
2-[4-[3-(5-fluoro-1H-indol-3-yl)piperidino]butyl]-4-(4-fluorophenyl)-5,6,7,8-tetrahydropyrido[1,2-c]pyrimidine-1,3-quinone

> <PUBCHEM_IUPAC_INCHI>
InChI=1S/C31H34F2N4O2/c32-23-10-8-21(9-11-23)29-28-7-1-2-16-36(28)31(39)37(30(29)38)17-4-3-14-35-15-5-6-22(20-35)26-19-34-27-13-12-24(33)18-25(26)27/h8-13,18-19,22,34H,1-7,14-17,20H2

> <PUBCHEM_IUPAC_INCHIKEY>
SIBAMPHTYYJSCQ-UHFFFAOYSA-N

> <PUBCHEM_XLOGP3_AA>
5.1

> <PUBCHEM_EXACT_MASS>
532.26498266

> <PUBCHEM_MOLECULAR_FORMULA>
C31H34F2N4O2

> <PUBCHEM_MOLECULAR_WEIGHT>
532.6

> <PUBCHEM_OPENEYE_CAN_SMILES>
C1CCN2C(=C(C(=O)N(C2=O)CCCCN3CCCC(C3)C4=CNC5=C4C=C(C=C5)F)C6=CC=C(C=C6)F)C1

> <PUBCHEM_OPENEYE_ISO_SMILES>
C1CCN2C(=C(C(=O)N(C2=O)CCCCN3CCCC(C3)C4=CNC5=C4C=C(C=C5)F)C6=CC=C(C=C6)F)C1

> <PUBCHEM_CACTVS_TPSA>
59.6

> <PUBCHEM_MONOISOTOPIC_WEIGHT>
532.26498266

> <PUBCHEM_TOTAL_CHARGE>
0

> <PUBCHEM_HEAVY_ATOM_COUNT>
39

> <PUBCHEM_ATOM_DEF_STEREO_COUNT>
0

> <PUBCHEM_ATOM_UDEF_STEREO_COUNT>
1

> <PUBCHEM_BOND_DEF_STEREO_COUNT>
0

> <PUBCHEM_BOND_UDEF_STEREO_COUNT>
0

> <PUBCHEM_ISOTOPIC_ATOM_COUNT>
0

> <PUBCHEM_COMPONENT_COUNT>
1

> <PUBCHEM_CACTVS_TAUTO_COUNT>
-1

> <PUBCHEM_COORDINATE_TYPE>
1
5
255

> <PUBCHEM_BONDANNOTATIONS>
15  18  8
15  19  8
18  24  8
18  30  8
21  27  8
24  31  8
27  29  8
30  33  8
31  34  8
32  35  8
32  36  8
33  34  8
35  37  8
36  38  8
37  39  8
38  39  8
6  21  8
6  28  8
7  28  8
7  29  8
8  19  8
8  24  8
9  15  3

$$$$
