164628882
  -OEChem-09292322432D

 61 65  0     0  0  0  0  0  0999 V2000
    4.6783   -2.0916    0.0000 S   0  0  0  0  0  0  0  0  0  0  0  0
   12.2619    0.4451    0.0000 O   0  0  0  0  0  0  0  0  0  0  0  0
    5.4883   -2.6780    0.0000 O   0  0  0  0  0  0  0  0  0  0  0  0
    4.3709   -3.0432    0.0000 O   0  0  0  0  0  0  0  0  0  0  0  0
    4.9889    0.4684    0.0000 O   0  0  0  0  0  0  0  0  0  0  0  0
    9.2619    2.1772    0.0000 N   0  0  0  0  0  0  0  0  0  0  0  0
   11.2619    2.1772    0.0000 N   0  0  0  0  0  0  0  0  0  0  0  0
    5.2619   -1.2869    0.0000 N   0  0  0  0  0  0  0  0  0  0  0  0
    9.7619    1.3112    0.0000 C   0  0  0  0  0  0  0  0  0  0  0  0
    9.7619    3.0432    0.0000 C   0  0  0  0  0  0  0  0  0  0  0  0
   10.7619    1.3112    0.0000 C   0  0  0  0  0  0  0  0  0  0  0  0
   10.7619    3.0432    0.0000 C   0  0  0  0  0  0  0  0  0  0  0  0
    8.2619    2.1772    0.0000 C   0  0  0  0  0  0  0  0  0  0  0  0
   12.2619    2.1772    0.0000 C   0  0  0  0  0  0  0  0  0  0  0  0
    7.7619    1.3112    0.0000 C   0  0  0  0  0  0  0  0  0  0  0  0
    6.2619   -1.2869    0.0000 C   0  0  0  0  0  0  0  0  0  0  0  0
    6.7619   -0.4209    0.0000 C   0  0  0  0  0  0  0  0  0  0  0  0
    6.7619    1.3112    0.0000 C   0  0  0  0  0  0  0  0  0  0  0  0
    8.2619    0.4451    0.0000 C   0  0  0  0  0  0  0  0  0  0  0  0
    3.7320   -1.7869    0.0000 C   0  0  0  0  0  0  0  0  0  0  0  0
   12.7619    1.3112    0.0000 C   0  0  0  0  0  0  0  0  0  0  0  0
    3.7320   -0.7869    0.0000 C   0  0  0  0  0  0  0  0  0  0  0  0
    4.6783   -0.4822    0.0000 C   0  0  0  0  0  0  0  0  0  0  0  0
   12.7619    3.0432    0.0000 C   0  0  0  0  0  0  0  0  0  0  0  0
    6.2619    0.4451    0.0000 C   0  0  0  0  0  0  0  0  0  0  0  0
    7.7619   -0.4209    0.0000 C   0  0  0  0  0  0  0  0  0  0  0  0
    2.8660   -2.2869    0.0000 C   0  0  0  0  0  0  0  0  0  0  0  0
   13.7619    1.3112    0.0000 C   0  0  0  0  0  0  0  0  0  0  0  0
    2.8660   -0.2869    0.0000 C   0  0  0  0  0  0  0  0  0  0  0  0
   13.7619    3.0432    0.0000 C   0  0  0  0  0  0  0  0  0  0  0  0
   14.2619    2.1772    0.0000 C   0  0  0  0  0  0  0  0  0  0  0  0
    2.0000   -1.7869    0.0000 C   0  0  0  0  0  0  0  0  0  0  0  0
    2.0000   -0.7869    0.0000 C   0  0  0  0  0  0  0  0  0  0  0  0
   12.7619   -0.4209    0.0000 C   0  0  0  0  0  0  0  0  0  0  0  0
    9.1793    1.0991    0.0000 H   0  0  0  0  0  0  0  0  0  0  0  0
    9.8695    0.7006    0.0000 H   0  0  0  0  0  0  0  0  0  0  0  0
    9.8695    3.6538    0.0000 H   0  0  0  0  0  0  0  0  0  0  0  0
    9.1793    3.2553    0.0000 H   0  0  0  0  0  0  0  0  0  0  0  0
   10.6542    0.7006    0.0000 H   0  0  0  0  0  0  0  0  0  0  0  0
   11.3445    1.0991    0.0000 H   0  0  0  0  0  0  0  0  0  0  0  0
   11.3445    3.2553    0.0000 H   0  0  0  0  0  0  0  0  0  0  0  0
   10.6542    3.6538    0.0000 H   0  0  0  0  0  0  0  0  0  0  0  0
    8.3695    2.7878    0.0000 H   0  0  0  0  0  0  0  0  0  0  0  0
    7.6793    2.3892    0.0000 H   0  0  0  0  0  0  0  0  0  0  0  0
    6.1542   -1.8975    0.0000 H   0  0  0  0  0  0  0  0  0  0  0  0
    6.8445   -1.4990    0.0000 H   0  0  0  0  0  0  0  0  0  0  0  0
    6.4519    1.8481    0.0000 H   0  0  0  0  0  0  0  0  0  0  0  0
    8.8819    0.4451    0.0000 H   0  0  0  0  0  0  0  0  0  0  0  0
    5.6419    0.4451    0.0000 H   0  0  0  0  0  0  0  0  0  0  0  0
    8.0719   -0.9578    0.0000 H   0  0  0  0  0  0  0  0  0  0  0  0
   12.4519    3.5802    0.0000 H   0  0  0  0  0  0  0  0  0  0  0  0
    2.8660   -2.9069    0.0000 H   0  0  0  0  0  0  0  0  0  0  0  0
   14.0719    0.7742    0.0000 H   0  0  0  0  0  0  0  0  0  0  0  0
    2.8660    0.3331    0.0000 H   0  0  0  0  0  0  0  0  0  0  0  0
   14.0719    3.5802    0.0000 H   0  0  0  0  0  0  0  0  0  0  0  0
   14.8819    2.1772    0.0000 H   0  0  0  0  0  0  0  0  0  0  0  0
    1.4631   -2.0969    0.0000 H   0  0  0  0  0  0  0  0  0  0  0  0
    1.4631   -0.4769    0.0000 H   0  0  0  0  0  0  0  0  0  0  0  0
   12.2249   -0.7309    0.0000 H   0  0  0  0  0  0  0  0  0  0  0  0
   13.0719   -0.9578    0.0000 H   0  0  0  0  0  0  0  0  0  0  0  0
   13.2988   -0.1109    0.0000 H   0  0  0  0  0  0  0  0  0  0  0  0
  1  3  2  0  0  0  0
  1  4  2  0  0  0  0
  1  8  1  0  0  0  0
  1 20  1  0  0  0  0
  2 21  1  0  0  0  0
  2 34  1  0  0  0  0
  5 23  2  0  0  0  0
  6  9  1  0  0  0  0
  6 10  1  0  0  0  0
  6 13  1  0  0  0  0
  7 11  1  0  0  0  0
  7 12  1  0  0  0  0
  7 14  1  0  0  0  0
  8 16  1  0  0  0  0
  8 23  1  0  0  0  0
  9 11  1  0  0  0  0
  9 35  1  0  0  0  0
  9 36  1  0  0  0  0
 10 12  1  0  0  0  0
 10 37  1  0  0  0  0
 10 38  1  0  0  0  0
 11 39  1  0  0  0  0
 11 40  1  0  0  0  0
 12 41  1  0  0  0  0
 12 42  1  0  0  0  0
 13 15  1  0  0  0  0
 13 43  1  0  0  0  0
 13 44  1  0  0  0  0
 14 21  1  0  0  0  0
 14 24  2  0  0  0  0
 15 18  2  0  0  0  0
 15 19  1  0  0  0  0
 16 17  1  0  0  0  0
 16 45  1  0  0  0  0
 16 46  1  0  0  0  0
 17 25  2  0  0  0  0
 17 26  1  0  0  0  0
 18 25  1  0  0  0  0
 18 47  1  0  0  0  0
 19 26  2  0  0  0  0
 19 48  1  0  0  0  0
 20 22  1  0  0  0  0
 20 27  2  0  0  0  0
 21 28  2  0  0  0  0
 22 23  1  0  0  0  0
 22 29  2  0  0  0  0
 24 30  1  0  0  0  0
 24 51  1  0  0  0  0
 25 49  1  0  0  0  0
 26 50  1  0  0  0  0
 27 32  1  0  0  0  0
 27 52  1  0  0  0  0
 28 31  1  0  0  0  0
 28 53  1  0  0  0  0
 29 33  1  0  0  0  0
 29 54  1  0  0  0  0
 30 31  2  0  0  0  0
 30 55  1  0  0  0  0
 31 56  1  0  0  0  0
 32 33  2  0  0  0  0
 32 57  1  0  0  0  0
 33 58  1  0  0  0  0
 34 59  1  0  0  0  0
 34 60  1  0  0  0  0
 34 61  1  0  0  0  0
M  END
> <PUBCHEM_COMPOUND_CID>
164628882

> <PUBCHEM_COMPOUND_CANONICALIZED>
1

> <PUBCHEM_CACTVS_COMPLEXITY>
799

> <PUBCHEM_CACTVS_HBOND_ACCEPTOR>
6

> <PUBCHEM_CACTVS_HBOND_DONOR>
0

> <PUBCHEM_CACTVS_ROTATABLE_BOND>
6

> <PUBCHEM_CACTVS_SUBSKEYS>
AAADceB7OABAAAAAAAAAAAAAAAAAAWAAAAA8YMEAAAAAAFgBUAAAHgQAQAAADAzB2AYyx4MABAKIAiVSUHDCCBAlIgAIiBkPbMgOZjLEtZuVMShkxhHY6YeYyACOQAAAAAAEEACAAAAAAAggAAAAAAAAAA==

> <PUBCHEM_IUPAC_OPENEYE_NAME>
2-[[4-[[4-(2-methoxyphenyl)piperazin-1-yl]methyl]phenyl]methyl]-1,1-dioxo-1,2-benzothiazol-3-one

> <PUBCHEM_IUPAC_CAS_NAME>
2-[[4-[[4-(2-methoxyphenyl)-1-piperazinyl]methyl]phenyl]methyl]-1,1-dioxo-1,2-benzothiazol-3-one

> <PUBCHEM_IUPAC_NAME_MARKUP>
2-[[4-[[4-(2-methoxyphenyl)piperazin-1-yl]methyl]phenyl]methyl]-1,1-dioxo-1,2-benzothiazol-3-one

> <PUBCHEM_IUPAC_NAME>
2-[[4-[[4-(2-methoxyphenyl)piperazin-1-yl]methyl]phenyl]methyl]-1,1-dioxo-1,2-benzothiazol-3-one

> <PUBCHEM_IUPAC_SYSTEMATIC_NAME>
2-[[4-[[4-(2-methoxyphenyl)piperazin-1-yl]methyl]phenyl]methyl]-1,1-bis(oxidanylidene)-1,2-benzothiazol-3-one

> <PUBCHEM_IUPAC_TRADITIONAL_NAME>
1,1-diketo-2-[4-[[4-(2-methoxyphenyl)piperazino]methyl]benzyl]-1,2-benzothiazol-3-one

> <PUBCHEM_IUPAC_INCHI>
InChI=1S/C26H27N3O4S/c1-33-24-8-4-3-7-23(24)28-16-14-27(15-17-28)18-20-10-12-21(13-11-20)19-29-26(30)22-6-2-5-9-25(22)34(29,31)32/h2-13H,14-19H2,1H3

> <PUBCHEM_IUPAC_INCHIKEY>
SZOQFKJMAIDYBY-UHFFFAOYSA-N

> <PUBCHEM_XLOGP3_AA>
3.5

> <PUBCHEM_EXACT_MASS>
477.17222752

> <PUBCHEM_MOLECULAR_FORMULA>
C26H27N3O4S

> <PUBCHEM_MOLECULAR_WEIGHT>
477.6

> <PUBCHEM_OPENEYE_CAN_SMILES>
COC1=CC=CC=C1N2CCN(CC2)CC3=CC=C(C=C3)CN4C(=O)C5=CC=CC=C5S4(=O)=O

> <PUBCHEM_OPENEYE_ISO_SMILES>
COC1=CC=CC=C1N2CCN(CC2)CC3=CC=C(C=C3)CN4C(=O)C5=CC=CC=C5S4(=O)=O

> <PUBCHEM_CACTVS_TPSA>
78.5

> <PUBCHEM_MONOISOTOPIC_WEIGHT>
477.17222752

> <PUBCHEM_TOTAL_CHARGE>
0

> <PUBCHEM_HEAVY_ATOM_COUNT>
34

> <PUBCHEM_ATOM_DEF_STEREO_COUNT>
0

> <PUBCHEM_ATOM_UDEF_STEREO_COUNT>
0

> <PUBCHEM_BOND_DEF_STEREO_COUNT>
0

> <PUBCHEM_BOND_UDEF_STEREO_COUNT>
0

> <PUBCHEM_ISOTOPIC_ATOM_COUNT>
0

> <PUBCHEM_COMPONENT_COUNT>
1

> <PUBCHEM_CACTVS_TAUTO_COUNT>
-1

> <PUBCHEM_COORDINATE_TYPE>
1
5
255

> <PUBCHEM_BONDANNOTATIONS>
14  21  8
14  24  8
15  18  8
15  19  8
17  25  8
17  26  8
18  25  8
19  26  8
20  22  8
20  27  8
21  28  8
22  29  8
24  30  8
27  32  8
28  31  8
29  33  8
30  31  8
32  33  8

$$$$
