23322039
  -OEChem-09292322002D

 36 36  0     0  0  0  0  0  0999 V2000
    8.5281    3.5788    0.0000 Cl  0  0  0  0  0  0  0  0  0  0  0  0
    6.5309    1.6200    0.0000 O   0  0  0  0  0  0  0  0  0  0  0  0
    4.9473    0.8153    0.0000 N   0  0  0  0  0  0  0  0  0  0  0  0
    2.2690    5.1200    0.0000 N   0  0  0  0  0  0  0  0  0  0  0  0
    4.0010    2.1200    0.0000 C   0  0  0  0  0  0  0  0  0  0  0  0
    3.1350    2.6200    0.0000 C   0  0  0  0  0  0  0  0  0  0  0  0
    3.1350    3.6200    0.0000 C   0  0  0  0  0  0  0  0  0  0  0  0
    4.9473    2.4247    0.0000 C   0  0  0  0  0  0  0  0  0  0  0  0
    4.0010    1.1200    0.0000 C   0  0  0  0  0  0  0  0  0  0  0  0
    2.2690    4.1200    0.0000 C   0  0  0  0  0  0  0  0  0  0  0  0
    2.2690    2.1200    0.0000 C   0  0  0  0  0  0  0  0  0  0  0  0
    5.5309    1.6200    0.0000 C   0  0  0  0  0  0  0  0  0  0  0  0
    3.1350    0.6200    0.0000 C   0  0  0  0  0  0  0  0  0  0  0  0
    1.4030    5.6200    0.0000 C   0  0  0  0  0  0  0  0  0  0  0  0
    2.2690    1.1200    0.0000 C   0  0  0  0  0  0  0  0  0  0  0  0
    1.4030    6.6200    0.0000 C   0  0  0  0  0  0  0  0  0  0  0  0
    0.5369    7.1200    0.0000 C   0  0  0  0  0  0  0  0  0  0  0  0
    3.7456    3.5123    0.0000 H   0  0  0  0  0  0  0  0  0  0  0  0
    3.3471    4.2026    0.0000 H   0  0  0  0  0  0  0  0  0  0  0  0
    5.4846    2.7340    0.0000 H   0  0  0  0  0  0  0  0  0  0  0  0
    4.6962    2.9916    0.0000 H   0  0  0  0  0  0  0  0  0  0  0  0
    1.6584    4.2277    0.0000 H   0  0  0  0  0  0  0  0  0  0  0  0
    2.0569    3.5374    0.0000 H   0  0  0  0  0  0  0  0  0  0  0  0
    1.7320    2.4300    0.0000 H   0  0  0  0  0  0  0  0  0  0  0  0
    5.1399    0.2259    0.0000 H   0  0  0  0  0  0  0  0  0  0  0  0
    2.8059    5.4300    0.0000 H   0  0  0  0  0  0  0  0  0  0  0  0
    3.1350    0.0000    0.0000 H   0  0  0  0  0  0  0  0  0  0  0  0
    0.7924    5.7277    0.0000 H   0  0  0  0  0  0  0  0  0  0  0  0
    1.1909    5.0374    0.0000 H   0  0  0  0  0  0  0  0  0  0  0  0
    1.7320    0.8100    0.0000 H   0  0  0  0  0  0  0  0  0  0  0  0
    2.0135    6.5123    0.0000 H   0  0  0  0  0  0  0  0  0  0  0  0
    1.6150    7.2026    0.0000 H   0  0  0  0  0  0  0  0  0  0  0  0
    0.8469    7.6569    0.0000 H   0  0  0  0  0  0  0  0  0  0  0  0
    0.0000    7.4300    0.0000 H   0  0  0  0  0  0  0  0  0  0  0  0
    0.2269    6.5831    0.0000 H   0  0  0  0  0  0  0  0  0  0  0  0
    9.5281    3.5788    0.0000 H   0  0  0  0  0  0  0  0  0  0  0  0
  1 36  1  0  0  0  0
  2 12  2  0  0  0  0
  3  9  1  0  0  0  0
  3 12  1  0  0  0  0
  3 25  1  0  0  0  0
  4 10  1  0  0  0  0
  4 14  1  0  0  0  0
  4 26  1  0  0  0  0
  5  6  2  0  0  0  0
  5  8  1  0  0  0  0
  5  9  1  0  0  0  0
  6  7  1  0  0  0  0
  6 11  1  0  0  0  0
  7 10  1  0  0  0  0
  7 18  1  0  0  0  0
  7 19  1  0  0  0  0
  8 12  1  0  0  0  0
  8 20  1  0  0  0  0
  8 21  1  0  0  0  0
  9 13  2  0  0  0  0
 10 22  1  0  0  0  0
 10 23  1  0  0  0  0
 11 15  2  0  0  0  0
 11 24  1  0  0  0  0
 13 15  1  0  0  0  0
 13 27  1  0  0  0  0
 14 16  1  0  0  0  0
 14 28  1  0  0  0  0
 14 29  1  0  0  0  0
 15 30  1  0  0  0  0
 16 17  1  0  0  0  0
 16 31  1  0  0  0  0
 16 32  1  0  0  0  0
 17 33  1  0  0  0  0
 17 34  1  0  0  0  0
 17 35  1  0  0  0  0
M  END
> <PUBCHEM_COMPOUND_CID>
23322039

> <PUBCHEM_COMPOUND_CANONICALIZED>
1

> <PUBCHEM_CACTVS_COMPLEXITY>
242

> <PUBCHEM_CACTVS_HBOND_ACCEPTOR>
2

> <PUBCHEM_CACTVS_HBOND_DONOR>
3

> <PUBCHEM_CACTVS_ROTATABLE_BOND>
5

> <PUBCHEM_CACTVS_SUBSKEYS>
AAADceBzIAAEAAAAAAAAAAAAAAAAAWAAAAAwAAAAAAAAAFgBAAAAHgAQAAAADAjBmAQywILAAACIAiVSUACCAAAhAgAIiIEIZIgIIDLAlZGEIAhglADIyAcciICOgAAAQAASAAAAAACAACQAAAAAAAAAAA==

> <PUBCHEM_IUPAC_OPENEYE_NAME>
4-[2-(propylamino)ethyl]indolin-2-one;hydrochloride

> <PUBCHEM_IUPAC_CAS_NAME>
4-[2-(propylamino)ethyl]-1,3-dihydroindol-2-one;hydrochloride

> <PUBCHEM_IUPAC_NAME_MARKUP>
4-[2-(propylamino)ethyl]-1,3-dihydroindol-2-one;hydrochloride

> <PUBCHEM_IUPAC_NAME>
4-[2-(propylamino)ethyl]-1,3-dihydroindol-2-one;hydrochloride

> <PUBCHEM_IUPAC_SYSTEMATIC_NAME>
4-[2-(propylamino)ethyl]-1,3-dihydroindol-2-one;hydrochloride

> <PUBCHEM_IUPAC_TRADITIONAL_NAME>
4-[2-(propylamino)ethyl]oxindole;hydrochloride

> <PUBCHEM_IUPAC_INCHI>
InChI=1S/C13H18N2O.ClH/c1-2-7-14-8-6-10-4-3-5-12-11(10)9-13(16)15-12;/h3-5,14H,2,6-9H2,1H3,(H,15,16);1H

> <PUBCHEM_IUPAC_INCHIKEY>
NETCGGLKJGMCRY-UHFFFAOYSA-N

> <PUBCHEM_EXACT_MASS>
254.1185909

> <PUBCHEM_MOLECULAR_FORMULA>
C13H19ClN2O

> <PUBCHEM_MOLECULAR_WEIGHT>
254.75

> <PUBCHEM_OPENEYE_CAN_SMILES>
CCCNCCC1=C2CC(=O)NC2=CC=C1.Cl

> <PUBCHEM_OPENEYE_ISO_SMILES>
CCCNCCC1=C2CC(=O)NC2=CC=C1.Cl

> <PUBCHEM_CACTVS_TPSA>
41.1

> <PUBCHEM_MONOISOTOPIC_WEIGHT>
254.1185909

> <PUBCHEM_TOTAL_CHARGE>
0

> <PUBCHEM_HEAVY_ATOM_COUNT>
17

> <PUBCHEM_ATOM_DEF_STEREO_COUNT>
0

> <PUBCHEM_ATOM_UDEF_STEREO_COUNT>
0

> <PUBCHEM_BOND_DEF_STEREO_COUNT>
0

> <PUBCHEM_BOND_UDEF_STEREO_COUNT>
0

> <PUBCHEM_ISOTOPIC_ATOM_COUNT>
0

> <PUBCHEM_COMPONENT_COUNT>
2

> <PUBCHEM_CACTVS_TAUTO_COUNT>
3

> <PUBCHEM_COORDINATE_TYPE>
1
5
255

> <PUBCHEM_BONDANNOTATIONS>
11  15  8
13  15  8
5  6  8
5  9  8
6  11  8
9  13  8

$$$$
