16665071
  -OEChem-09292322262D

 51 54  0     1  0  0  0  0  0999 V2000
    6.1191   -3.0883    0.0000 O   0  0  0  0  0  0  0  0  0  0  0  0
    3.9290    0.3013    0.0000 N   0  0  0  0  0  0  0  0  0  0  0  0
    5.5321    2.4684    0.0000 N   0  0  3  0  0  0  0  0  0  0  0  0
    5.5321    0.4684    0.0000 C   0  0  0  0  0  0  0  0  0  0  0  0
    4.6660    0.9684    0.0000 C   0  0  0  0  0  0  0  0  0  0  0  0
    6.3981    0.9684    0.0000 C   0  0  0  0  0  0  0  0  0  0  0  0
    5.3229   -0.5034    0.0000 C   0  0  0  0  0  0  0  0  0  0  0  0
    4.6660    1.9684    0.0000 C   0  0  0  0  0  0  0  0  0  0  0  0
    6.3981    1.9684    0.0000 C   0  0  0  0  0  0  0  0  0  0  0  0
    4.3341   -0.6065    0.0000 C   0  0  0  0  0  0  0  0  0  0  0  0
    3.8000    2.4684    0.0000 C   0  0  0  0  0  0  0  0  0  0  0  0
    5.5321    3.4684    0.0000 C   0  0  0  0  0  0  0  0  0  0  0  0
    4.6660    3.9684    0.0000 C   0  0  0  0  0  0  0  0  0  0  0  0
    3.8000    3.4684    0.0000 C   0  0  0  0  0  0  0  0  0  0  0  0
    5.9436   -1.3322    0.0000 C   0  0  0  0  0  0  0  0  0  0  0  0
    2.9505    0.5075    0.0000 C   0  0  0  0  0  0  0  0  0  0  0  0
    3.8976   -1.5455    0.0000 C   0  0  0  0  0  0  0  0  0  0  0  0
    4.6660    2.9684    0.0000 C   0  0  0  0  0  0  0  0  0  0  0  0
    2.9061    1.9337    0.0000 C   0  0  0  0  0  0  0  0  0  0  0  0
    5.5289   -2.2810    0.0000 C   0  0  0  0  0  0  0  0  0  0  0  0
    2.9061    4.0030    0.0000 C   0  0  0  0  0  0  0  0  0  0  0  0
    4.4991   -2.3884    0.0000 C   0  0  0  0  0  0  0  0  0  0  0  0
    2.0000    2.4476    0.0000 C   0  0  0  0  0  0  0  0  0  0  0  0
    2.0000    3.4892    0.0000 C   0  0  0  0  0  0  0  0  0  0  0  0
    5.7151   -4.0030    0.0000 C   0  0  0  0  0  0  0  0  0  0  0  0
    6.6101    0.3858    0.0000 H   0  0  0  0  0  0  0  0  0  0  0  0
    7.0087    1.0760    0.0000 H   0  0  0  0  0  0  0  0  0  0  0  0
    5.2766    1.8607    0.0000 H   0  0  0  0  0  0  0  0  0  0  0  0
    4.8781    2.5510    0.0000 H   0  0  0  0  0  0  0  0  0  0  0  0
    7.0087    1.8607    0.0000 H   0  0  0  0  0  0  0  0  0  0  0  0
    6.6101    2.5510    0.0000 H   0  0  0  0  0  0  0  0  0  0  0  0
    6.1426    3.3607    0.0000 H   0  0  0  0  0  0  0  0  0  0  0  0
    5.7441    4.0510    0.0000 H   0  0  0  0  0  0  0  0  0  0  0  0
    5.0646    4.4433    0.0000 H   0  0  0  0  0  0  0  0  0  0  0  0
    4.2675    4.4433    0.0000 H   0  0  0  0  0  0  0  0  0  0  0  0
    6.5595   -1.2608    0.0000 H   0  0  0  0  0  0  0  0  0  0  0  0
    3.0784    1.1142    0.0000 H   0  0  0  0  0  0  0  0  0  0  0  0
    2.3438    0.6354    0.0000 H   0  0  0  0  0  0  0  0  0  0  0  0
    2.8227   -0.0992    0.0000 H   0  0  0  0  0  0  0  0  0  0  0  0
    3.2803   -1.6026    0.0000 H   0  0  0  0  0  0  0  0  0  0  0  0
    4.9761    3.5053    0.0000 H   0  0  0  0  0  0  0  0  0  0  0  0
    4.1291    3.2784    0.0000 H   0  0  0  0  0  0  0  0  0  0  0  0
    4.3560    2.4315    0.0000 H   0  0  0  0  0  0  0  0  0  0  0  0
    2.9132    1.3138    0.0000 H   0  0  0  0  0  0  0  0  0  0  0  0
    2.9132    4.6230    0.0000 H   0  0  0  0  0  0  0  0  0  0  0  0
    4.2442   -2.9536    0.0000 H   0  0  0  0  0  0  0  0  0  0  0  0
    1.4643    2.1355    0.0000 H   0  0  0  0  0  0  0  0  0  0  0  0
    1.4643    3.8012    0.0000 H   0  0  0  0  0  0  0  0  0  0  0  0
    5.1480   -3.7526    0.0000 H   0  0  0  0  0  0  0  0  0  0  0  0
    5.4646   -4.5702    0.0000 H   0  0  0  0  0  0  0  0  0  0  0  0
    6.2823   -4.2535    0.0000 H   0  0  0  0  0  0  0  0  0  0  0  0
  1 20  1  0  0  0  0
  1 25  1  0  0  0  0
  2  5  1  0  0  0  0
  2 10  1  0  0  0  0
  2 16  1  0  0  0  0
  3  9  1  0  0  0  0
  3 12  1  0  0  0  0
  3 18  1  0  0  0  0
  4  5  2  0  0  0  0
  4  6  1  0  0  0  0
  4  7  1  0  0  0  0
  5  8  1  0  0  0  0
  6  9  1  0  0  0  0
  6 26  1  0  0  0  0
  6 27  1  0  0  0  0
  7 10  2  0  0  0  0
  7 15  1  0  0  0  0
  8 11  1  0  0  0  0
  8 28  1  0  0  0  0
  8 29  1  0  0  0  0
  9 30  1  0  0  0  0
  9 31  1  0  0  0  0
 10 17  1  0  0  0  0
 11 14  1  0  0  0  0
 11 19  2  0  0  0  0
 12 13  1  0  0  0  0
 12 32  1  0  0  0  0
 12 33  1  0  0  0  0
 13 14  1  0  0  0  0
 13 34  1  0  0  0  0
 13 35  1  0  0  0  0
 14 21  2  0  0  0  0
 15 20  2  0  0  0  0
 15 36  1  0  0  0  0
 16 37  1  0  0  0  0
 16 38  1  0  0  0  0
 16 39  1  0  0  0  0
 17 22  2  0  0  0  0
 17 40  1  0  0  0  0
 18 41  1  0  0  0  0
 18 42  1  0  0  0  0
 18 43  1  0  0  0  0
 19 23  1  0  0  0  0
 19 44  1  0  0  0  0
 20 22  1  0  0  0  0
 21 24  1  0  0  0  0
 21 45  1  0  0  0  0
 22 46  1  0  0  0  0
 23 24  2  0  0  0  0
 23 47  1  0  0  0  0
 24 48  1  0  0  0  0
 25 49  1  0  0  0  0
 25 50  1  0  0  0  0
 25 51  1  0  0  0  0
M  END
> <PUBCHEM_COMPOUND_CID>
16665071

> <PUBCHEM_COMPOUND_CANONICALIZED>
1

> <PUBCHEM_CACTVS_COMPLEXITY>
442

> <PUBCHEM_CACTVS_HBOND_ACCEPTOR>
2

> <PUBCHEM_CACTVS_HBOND_DONOR>
0

> <PUBCHEM_CACTVS_ROTATABLE_BOND>
1

> <PUBCHEM_CACTVS_SUBSKEYS>
AAADceB7IAAAAAAAAAAAAAAAAAAAAWAAAAAwYAAAAAAAAFix9AAAHgAAAAAADAzBngYyxvMMFACgAyRiRACCiCAhIiAI2CA+bJgMJuLEsZuEMChkwBHI6Aew0PMOgEABAAASAAAAgAIAACQAAAAAAAAAAA==

> <PUBCHEM_IUPAC_OPENEYE_NAME>
17-methoxy-11,21-dimethyl-11,21-diazatetracyclo[12.7.0.03,8.015,20]henicosa-1(14),3,5,7,15(20),16,18-heptaene

> <PUBCHEM_IUPAC_CAS_NAME>
17-methoxy-11,21-dimethyl-11,21-diazatetracyclo[12.7.0.03,8.015,20]heneicosa-1(14),3,5,7,15(20),16,18-heptaene

> <PUBCHEM_IUPAC_NAME_MARKUP>
17-methoxy-11,21-dimethyl-11,21-diazatetracyclo[12.7.0.0<SUP>3,8</SUP>.0<SUP>15,20</SUP>]henicosa-1(14),3,5,7,15(20),16,18-heptaene

> <PUBCHEM_IUPAC_NAME>
17-methoxy-11,21-dimethyl-11,21-diazatetracyclo[12.7.0.03,8.015,20]henicosa-1(14),3,5,7,15(20),16,18-heptaene

> <PUBCHEM_IUPAC_SYSTEMATIC_NAME>
17-methoxy-11,21-dimethyl-11,21-diazatetracyclo[12.7.0.03,8.015,20]henicosa-1(14),3,5,7,15(20),16,18-heptaene

> <PUBCHEM_IUPAC_TRADITIONAL_NAME>
17-methoxy-11,21-dimethyl-11,21-diazatetracyclo[12.7.0.03,8.015,20]heneicosa-1(14),3,5,7,15(20),16,18-heptaene

> <PUBCHEM_IUPAC_INCHI>
InChI=1S/C22H26N2O/c1-23-12-10-16-6-4-5-7-17(16)14-22-19(11-13-23)20-15-18(25-3)8-9-21(20)24(22)2/h4-9,15H,10-14H2,1-3H3

> <PUBCHEM_IUPAC_INCHIKEY>
PZOVIFGFKIPBAC-UHFFFAOYSA-N

> <PUBCHEM_XLOGP3_AA>
4.3

> <PUBCHEM_EXACT_MASS>
334.204513457

> <PUBCHEM_MOLECULAR_FORMULA>
C22H26N2O

> <PUBCHEM_MOLECULAR_WEIGHT>
334.5

> <PUBCHEM_OPENEYE_CAN_SMILES>
CN1CCC2=CC=CC=C2CC3=C(CC1)C4=C(N3C)C=CC(=C4)OC

> <PUBCHEM_OPENEYE_ISO_SMILES>
CN1CCC2=CC=CC=C2CC3=C(CC1)C4=C(N3C)C=CC(=C4)OC

> <PUBCHEM_CACTVS_TPSA>
17.4

> <PUBCHEM_MONOISOTOPIC_WEIGHT>
334.204513457

> <PUBCHEM_TOTAL_CHARGE>
0

> <PUBCHEM_HEAVY_ATOM_COUNT>
25

> <PUBCHEM_ATOM_DEF_STEREO_COUNT>
0

> <PUBCHEM_ATOM_UDEF_STEREO_COUNT>
0

> <PUBCHEM_BOND_DEF_STEREO_COUNT>
0

> <PUBCHEM_BOND_UDEF_STEREO_COUNT>
0

> <PUBCHEM_ISOTOPIC_ATOM_COUNT>
0

> <PUBCHEM_COMPONENT_COUNT>
1

> <PUBCHEM_CACTVS_TAUTO_COUNT>
-1

> <PUBCHEM_COORDINATE_TYPE>
1
5
255

> <PUBCHEM_BONDANNOTATIONS>
10  17  8
11  14  8
11  19  8
14  21  8
15  20  8
17  22  8
19  23  8
2  10  8
2  5  8
20  22  8
21  24  8
23  24  8
4  5  8
4  7  8
7  10  8
7  15  8

$$$$
