45140377
  -OEChem-09292321592D

 70 74  0     1  0  0  0  0  0999 V2000
    9.9003    4.1376    0.0000 O   0  0  0  0  0  0  0  0  0  0  0  0
    2.9176   -5.8938    0.0000 O   0  0  0  0  0  0  0  0  0  0  0  0
    5.5321    2.6408    0.0000 N   0  0  3  0  0  0  0  0  0  0  0  0
    4.6660    0.1408    0.0000 N   0  0  0  0  0  0  0  0  0  0  0  0
    4.6660   -1.8592    0.0000 N   0  0  0  0  0  0  0  0  0  0  0  0
    4.6660   -4.8592    0.0000 N   0  0  0  0  0  0  0  0  0  0  0  0
    6.3981    3.1408    0.0000 C   0  0  3  0  0  0  0  0  0  0  0  0
    7.2641    2.6408    0.0000 C   0  0  0  0  0  0  0  0  0  0  0  0
    6.3981    4.1408    0.0000 C   0  0  0  0  0  0  0  0  0  0  0  0
    5.5321    1.6408    0.0000 C   0  0  0  0  0  0  0  0  0  0  0  0
    8.1301    3.1408    0.0000 C   0  0  0  0  0  0  0  0  0  0  0  0
    4.6660    1.1408    0.0000 C   0  0  0  0  0  0  0  0  0  0  0  0
    7.2641    4.6408    0.0000 C   0  0  0  0  0  0  0  0  0  0  0  0
    4.6660    3.1408    0.0000 C   0  0  0  0  0  0  0  0  0  0  0  0
    8.1301    4.1408    0.0000 C   0  0  0  0  0  0  0  0  0  0  0  0
    3.8000   -0.3592    0.0000 C   0  0  0  0  0  0  0  0  0  0  0  0
    5.5321   -0.3592    0.0000 C   0  0  0  0  0  0  0  0  0  0  0  0
    3.8000   -1.3592    0.0000 C   0  0  0  0  0  0  0  0  0  0  0  0
    5.5321   -1.3592    0.0000 C   0  0  0  0  0  0  0  0  0  0  0  0
    4.6660    4.1408    0.0000 C   0  0  0  0  0  0  0  0  0  0  0  0
    7.2480    5.6823    0.0000 C   0  0  0  0  0  0  0  0  0  0  0  0
    9.0401    4.6476    0.0000 C   0  0  0  0  0  0  0  0  0  0  0  0
    4.6660   -2.8592    0.0000 C   0  0  0  0  0  0  0  0  0  0  0  0
    8.1461    6.2100    0.0000 C   0  0  0  0  0  0  0  0  0  0  0  0
    9.0482    5.6892    0.0000 C   0  0  0  0  0  0  0  0  0  0  0  0
    3.8000    4.6408    0.0000 C   0  0  0  0  0  0  0  0  0  0  0  0
    3.8000   -3.3592    0.0000 C   0  0  0  0  0  0  0  0  0  0  0  0
    5.5321   -3.3592    0.0000 C   0  0  0  0  0  0  0  0  0  0  0  0
    3.8000   -4.3592    0.0000 C   0  0  0  0  0  0  0  0  0  0  0  0
    2.9061   -2.8246    0.0000 C   0  0  0  0  0  0  0  0  0  0  0  0
    5.5321   -4.3592    0.0000 C   0  0  0  0  0  0  0  0  0  0  0  0
    2.9061   -4.8939    0.0000 C   0  0  0  0  0  0  0  0  0  0  0  0
    2.0000   -3.3384    0.0000 C   0  0  0  0  0  0  0  0  0  0  0  0
    2.0000   -4.3800    0.0000 C   0  0  0  0  0  0  0  0  0  0  0  0
    6.3981    2.5208    0.0000 H   0  0  0  0  0  0  0  0  0  0  0  0
    6.8656    2.1658    0.0000 H   0  0  0  0  0  0  0  0  0  0  0  0
    7.6626    2.1658    0.0000 H   0  0  0  0  0  0  0  0  0  0  0  0
    6.1860    4.7234    0.0000 H   0  0  0  0  0  0  0  0  0  0  0  0
    5.7875    4.0331    0.0000 H   0  0  0  0  0  0  0  0  0  0  0  0
    5.7441    1.0582    0.0000 H   0  0  0  0  0  0  0  0  0  0  0  0
    6.1426    1.7484    0.0000 H   0  0  0  0  0  0  0  0  0  0  0  0
    8.3422    2.5582    0.0000 H   0  0  0  0  0  0  0  0  0  0  0  0
    8.7407    3.2484    0.0000 H   0  0  0  0  0  0  0  0  0  0  0  0
    4.4540    1.7234    0.0000 H   0  0  0  0  0  0  0  0  0  0  0  0
    4.0555    1.0331    0.0000 H   0  0  0  0  0  0  0  0  0  0  0  0
    4.0555    3.2484    0.0000 H   0  0  0  0  0  0  0  0  0  0  0  0
    4.4540    2.5582    0.0000 H   0  0  0  0  0  0  0  0  0  0  0  0
    3.5880    0.2234    0.0000 H   0  0  0  0  0  0  0  0  0  0  0  0
    3.1894   -0.4669    0.0000 H   0  0  0  0  0  0  0  0  0  0  0  0
    6.1426   -0.4669    0.0000 H   0  0  0  0  0  0  0  0  0  0  0  0
    5.7441    0.2234    0.0000 H   0  0  0  0  0  0  0  0  0  0  0  0
    3.1894   -1.2516    0.0000 H   0  0  0  0  0  0  0  0  0  0  0  0
    3.5880   -1.9418    0.0000 H   0  0  0  0  0  0  0  0  0  0  0  0
    5.7441   -1.9418    0.0000 H   0  0  0  0  0  0  0  0  0  0  0  0
    6.1426   -1.2516    0.0000 H   0  0  0  0  0  0  0  0  0  0  0  0
    5.2766    4.0331    0.0000 H   0  0  0  0  0  0  0  0  0  0  0  0
    4.8781    4.7234    0.0000 H   0  0  0  0  0  0  0  0  0  0  0  0
    6.7076    5.9860    0.0000 H   0  0  0  0  0  0  0  0  0  0  0  0
    8.1437    6.8300    0.0000 H   0  0  0  0  0  0  0  0  0  0  0  0
    9.5863    5.9971    0.0000 H   0  0  0  0  0  0  0  0  0  0  0  0
    4.1100    5.1777    0.0000 H   0  0  0  0  0  0  0  0  0  0  0  0
    3.2631    4.9508    0.0000 H   0  0  0  0  0  0  0  0  0  0  0  0
    3.4900    4.1038    0.0000 H   0  0  0  0  0  0  0  0  0  0  0  0
    6.0690   -3.0492    0.0000 H   0  0  0  0  0  0  0  0  0  0  0  0
   10.4408    4.4414    0.0000 H   0  0  0  0  0  0  0  0  0  0  0  0
    2.9132   -2.2046    0.0000 H   0  0  0  0  0  0  0  0  0  0  0  0
    6.0690   -4.6692    0.0000 H   0  0  0  0  0  0  0  0  0  0  0  0
    1.4643   -3.0264    0.0000 H   0  0  0  0  0  0  0  0  0  0  0  0
    1.4643   -4.6921    0.0000 H   0  0  0  0  0  0  0  0  0  0  0  0
    2.3843   -6.2100    0.0000 H   0  0  0  0  0  0  0  0  0  0  0  0
  1 22  1  0  0  0  0
  1 65  1  0  0  0  0
  2 32  1  0  0  0  0
  2 70  1  0  0  0  0
  3  7  1  0  0  0  0
  3 10  1  0  0  0  0
  3 14  1  0  0  0  0
  4 12  1  0  0  0  0
  4 16  1  0  0  0  0
  4 17  1  0  0  0  0
  5 18  1  0  0  0  0
  5 19  1  0  0  0  0
  5 23  1  0  0  0  0
  6 29  2  0  0  0  0
  6 31  1  0  0  0  0
  7  8  1  0  0  0  0
  7  9  1  0  0  0  0
  7 35  1  0  0  0  0
  8 11  1  0  0  0  0
  8 36  1  0  0  0  0
  8 37  1  0  0  0  0
  9 13  1  0  0  0  0
  9 38  1  0  0  0  0
  9 39  1  0  0  0  0
 10 12  1  0  0  0  0
 10 40  1  0  0  0  0
 10 41  1  0  0  0  0
 11 15  1  0  0  0  0
 11 42  1  0  0  0  0
 11 43  1  0  0  0  0
 12 44  1  0  0  0  0
 12 45  1  0  0  0  0
 13 15  2  0  0  0  0
 13 21  1  0  0  0  0
 14 20  1  0  0  0  0
 14 46  1  0  0  0  0
 14 47  1  0  0  0  0
 15 22  1  0  0  0  0
 16 18  1  0  0  0  0
 16 48  1  0  0  0  0
 16 49  1  0  0  0  0
 17 19  1  0  0  0  0
 17 50  1  0  0  0  0
 17 51  1  0  0  0  0
 18 52  1  0  0  0  0
 18 53  1  0  0  0  0
 19 54  1  0  0  0  0
 19 55  1  0  0  0  0
 20 26  1  0  0  0  0
 20 56  1  0  0  0  0
 20 57  1  0  0  0  0
 21 24  2  0  0  0  0
 21 58  1  0  0  0  0
 22 25  2  0  0  0  0
 23 27  2  0  0  0  0
 23 28  1  0  0  0  0
 24 25  1  0  0  0  0
 24 59  1  0  0  0  0
 25 60  1  0  0  0  0
 26 61  1  0  0  0  0
 26 62  1  0  0  0  0
 26 63  1  0  0  0  0
 27 29  1  0  0  0  0
 27 30  1  0  0  0  0
 28 31  2  0  0  0  0
 28 64  1  0  0  0  0
 29 32  1  0  0  0  0
 30 33  2  0  0  0  0
 30 66  1  0  0  0  0
 31 67  1  0  0  0  0
 32 34  2  0  0  0  0
 33 34  1  0  0  0  0
 33 68  1  0  0  0  0
 34 69  1  0  0  0  0
M  END
> <PUBCHEM_COMPOUND_CID>
45140377

> <PUBCHEM_COMPOUND_CANONICALIZED>
1

> <PUBCHEM_CACTVS_COMPLEXITY>
628

> <PUBCHEM_CACTVS_HBOND_ACCEPTOR>
6

> <PUBCHEM_CACTVS_HBOND_DONOR>
2

> <PUBCHEM_CACTVS_ROTATABLE_BOND>
7

> <PUBCHEM_CACTVS_SUBSKEYS>
AAADcfB7sAAAAAAAAAAAAAAAAAAAAAAAAAA8eMECAAAAAADx9AAAHgAACAAADCzBngQ+xvMIEgCgAzRnRASCgCAxYiAI2CA/bJgKZuLS0dOUdAhkwBHY2Aew0LMOgAABAAAaEAAQAAKAADQgAAAAAAAAAA==

> <PUBCHEM_IUPAC_OPENEYE_NAME>
4-[4-[2-[(5-hydroxytetralin-2-yl)-propyl-amino]ethyl]piperazin-1-yl]quinolin-8-ol

> <PUBCHEM_IUPAC_CAS_NAME>
4-[4-[2-[(5-hydroxy-1,2,3,4-tetrahydronaphthalen-2-yl)-propylamino]ethyl]-1-piperazinyl]-8-quinolinol

> <PUBCHEM_IUPAC_NAME_MARKUP>
4-[4-[2-[(5-hydroxy-1,2,3,4-tetrahydronaphthalen-2-yl)-propylamino]ethyl]piperazin-1-yl]quinolin-8-ol

> <PUBCHEM_IUPAC_NAME>
4-[4-[2-[(5-hydroxy-1,2,3,4-tetrahydronaphthalen-2-yl)-propylamino]ethyl]piperazin-1-yl]quinolin-8-ol

> <PUBCHEM_IUPAC_SYSTEMATIC_NAME>
4-[4-[2-[(5-oxidanyl-1,2,3,4-tetrahydronaphthalen-2-yl)-propyl-amino]ethyl]piperazin-1-yl]quinolin-8-ol

> <PUBCHEM_IUPAC_TRADITIONAL_NAME>
4-[4-[2-[(5-hydroxytetralin-2-yl)-propyl-amino]ethyl]piperazino]quinolin-8-ol

> <PUBCHEM_IUPAC_INCHI>
InChI=1S/C28H36N4O2/c1-2-13-31(22-9-10-23-21(20-22)5-3-7-26(23)33)17-14-30-15-18-32(19-16-30)25-11-12-29-28-24(25)6-4-8-27(28)34/h3-8,11-12,22,33-34H,2,9-10,13-20H2,1H3

> <PUBCHEM_IUPAC_INCHIKEY>
SWEZRIWMOXWKPT-UHFFFAOYSA-N

> <PUBCHEM_XLOGP3_AA>
4.8

> <PUBCHEM_EXACT_MASS>
460.28382640

> <PUBCHEM_MOLECULAR_FORMULA>
C28H36N4O2

> <PUBCHEM_MOLECULAR_WEIGHT>
460.6

> <PUBCHEM_OPENEYE_CAN_SMILES>
CCCN(CCN1CCN(CC1)C2=C3C=CC=C(C3=NC=C2)O)C4CCC5=C(C4)C=CC=C5O

> <PUBCHEM_OPENEYE_ISO_SMILES>
CCCN(CCN1CCN(CC1)C2=C3C=CC=C(C3=NC=C2)O)C4CCC5=C(C4)C=CC=C5O

> <PUBCHEM_CACTVS_TPSA>
63.1

> <PUBCHEM_MONOISOTOPIC_WEIGHT>
460.28382640

> <PUBCHEM_TOTAL_CHARGE>
0

> <PUBCHEM_HEAVY_ATOM_COUNT>
34

> <PUBCHEM_ATOM_DEF_STEREO_COUNT>
0

> <PUBCHEM_ATOM_UDEF_STEREO_COUNT>
1

> <PUBCHEM_BOND_DEF_STEREO_COUNT>
0

> <PUBCHEM_BOND_UDEF_STEREO_COUNT>
0

> <PUBCHEM_ISOTOPIC_ATOM_COUNT>
0

> <PUBCHEM_COMPONENT_COUNT>
1

> <PUBCHEM_CACTVS_TAUTO_COUNT>
-1

> <PUBCHEM_COORDINATE_TYPE>
1
5
255

> <PUBCHEM_BONDANNOTATIONS>
13  15  8
13  21  8
15  22  8
21  24  8
22  25  8
23  27  8
23  28  8
24  25  8
27  29  8
27  30  8
28  31  8
29  32  8
7  3  3
30  33  8
32  34  8
33  34  8
6  29  8
6  31  8

$$$$
