155536080
  -OEChem-09292322462D

 37 38  0     1  0  0  0  0  0999 V2000
    7.7062   -0.2915    0.0000 O   0  0  0  0  0  0  0  0  0  0  0  0
    2.3100    0.2327    0.0000 N   0  0  0  0  0  0  0  0  0  0  0  0
    3.3100    0.2327    0.0000 C   0  0  1  0  0  0  0  0  0  0  0  0
    4.1760   -0.2673    0.0000 C   0  0  2  0  0  0  0  0  0  0  0  0
    3.3100    1.2327    0.0000 C   0  0  0  0  0  0  0  0  0  0  0  0
    5.0420    0.2327    0.0000 C   0  0  0  0  0  0  0  0  0  0  0  0
    4.1760    1.7327    0.0000 C   0  0  0  0  0  0  0  0  0  0  0  0
    4.1760   -1.2673    0.0000 C   0  0  0  0  0  0  0  0  0  0  0  0
    5.0420    1.2327    0.0000 C   0  0  0  0  0  0  0  0  0  0  0  0
    2.8100   -0.6334    0.0000 C   0  0  0  0  0  0  0  0  0  0  0  0
    5.9360   -0.3020    0.0000 C   0  0  0  0  0  0  0  0  0  0  0  0
    5.9360    1.7673    0.0000 C   0  0  0  0  0  0  0  0  0  0  0  0
    5.0420   -1.7673    0.0000 C   0  0  0  0  0  0  0  0  0  0  0  0
    6.8421    0.2119    0.0000 C   0  0  0  0  0  0  0  0  0  0  0  0
    6.8421    1.2535    0.0000 C   0  0  0  0  0  0  0  0  0  0  0  0
    8.5741    0.2052    0.0000 C   0  0  0  0  0  0  0  0  0  0  0  0
    4.7130   -0.5773    0.0000 H   0  0  0  0  0  0  0  0  0  0  0  0
    3.0980    1.8153    0.0000 H   0  0  0  0  0  0  0  0  0  0  0  0
    2.6994    1.1250    0.0000 H   0  0  0  0  0  0  0  0  0  0  0  0
    4.5746    2.2076    0.0000 H   0  0  0  0  0  0  0  0  0  0  0  0
    3.7775    2.2076    0.0000 H   0  0  0  0  0  0  0  0  0  0  0  0
    3.5654   -1.1597    0.0000 H   0  0  0  0  0  0  0  0  0  0  0  0
    3.9640   -1.8499    0.0000 H   0  0  0  0  0  0  0  0  0  0  0  0
    2.2731   -0.3234    0.0000 H   0  0  0  0  0  0  0  0  0  0  0  0
    2.5000   -1.1703    0.0000 H   0  0  0  0  0  0  0  0  0  0  0  0
    3.3469   -0.9434    0.0000 H   0  0  0  0  0  0  0  0  0  0  0  0
    2.0000    0.7696    0.0000 H   0  0  0  0  0  0  0  0  0  0  0  0
    2.0000   -0.3043    0.0000 H   0  0  0  0  0  0  0  0  0  0  0  0
    5.9288   -0.9220    0.0000 H   0  0  0  0  0  0  0  0  0  0  0  0
    5.9288    2.3873    0.0000 H   0  0  0  0  0  0  0  0  0  0  0  0
    4.7320   -2.3043    0.0000 H   0  0  0  0  0  0  0  0  0  0  0  0
    5.5790   -2.0773    0.0000 H   0  0  0  0  0  0  0  0  0  0  0  0
    5.3520   -1.2304    0.0000 H   0  0  0  0  0  0  0  0  0  0  0  0
    7.3778    1.5656    0.0000 H   0  0  0  0  0  0  0  0  0  0  0  0
    8.8820   -0.3329    0.0000 H   0  0  0  0  0  0  0  0  0  0  0  0
    9.1122    0.5131    0.0000 H   0  0  0  0  0  0  0  0  0  0  0  0
    8.2662    0.7433    0.0000 H   0  0  0  0  0  0  0  0  0  0  0  0
  1 14  1  0  0  0  0
  1 16  1  0  0  0  0
  3  2  1  6  0  0  0
  2 27  1  0  0  0  0
  2 28  1  0  0  0  0
  3  4  1  0  0  0  0
  3  5  1  0  0  0  0
  3 10  1  0  0  0  0
  4  6  1  0  0  0  0
  4  8  1  6  0  0  0
  4 17  1  0  0  0  0
  5  7  1  0  0  0  0
  5 18  1  0  0  0  0
  5 19  1  0  0  0  0
  6  9  2  0  0  0  0
  6 11  1  0  0  0  0
  7  9  1  0  0  0  0
  7 20  1  0  0  0  0
  7 21  1  0  0  0  0
  8 13  1  0  0  0  0
  8 22  1  0  0  0  0
  8 23  1  0  0  0  0
  9 12  1  0  0  0  0
 10 24  1  0  0  0  0
 10 25  1  0  0  0  0
 10 26  1  0  0  0  0
 11 14  2  0  0  0  0
 11 29  1  0  0  0  0
 12 15  2  0  0  0  0
 12 30  1  0  0  0  0
 13 31  1  0  0  0  0
 13 32  1  0  0  0  0
 13 33  1  0  0  0  0
 14 15  1  0  0  0  0
 15 34  1  0  0  0  0
 16 35  1  0  0  0  0
 16 36  1  0  0  0  0
 16 37  1  0  0  0  0
M  END
> <PUBCHEM_COMPOUND_CID>
155536080

> <PUBCHEM_COMPOUND_CANONICALIZED>
1

> <PUBCHEM_CACTVS_COMPLEXITY>
243

> <PUBCHEM_CACTVS_HBOND_ACCEPTOR>
2

> <PUBCHEM_CACTVS_HBOND_DONOR>
1

> <PUBCHEM_CACTVS_ROTATABLE_BOND>
2

> <PUBCHEM_CACTVS_SUBSKEYS>
AAADceByIAAAAAAAAAAAAAAAAAAAAAAAAAAwYAAAAAAAAADBAAAAHgAQAAAADYyBmAIyBoBABACAAiBCAAACCAAgIAAIiAAGCIgMJiKEsRuAMCAk0BEIqAeQ0PEOoAABAAAQAADQAAaAACQAAAAAAAAAAA==

> <PUBCHEM_IUPAC_OPENEYE_NAME>
(1S,2R)-1-ethyl-7-methoxy-2-methyl-tetralin-2-amine

> <PUBCHEM_IUPAC_CAS_NAME>
(1S,2R)-1-ethyl-7-methoxy-2-methyl-3,4-dihydro-1H-naphthalen-2-amine

> <PUBCHEM_IUPAC_NAME_MARKUP>
(1<I>S</I>,2<I>R</I>)-1-ethyl-7-methoxy-2-methyl-3,4-dihydro-1<I>H</I>-naphthalen-2-amine

> <PUBCHEM_IUPAC_NAME>
(1S,2R)-1-ethyl-7-methoxy-2-methyl-3,4-dihydro-1H-naphthalen-2-amine

> <PUBCHEM_IUPAC_SYSTEMATIC_NAME>
(1S,2R)-1-ethyl-7-methoxy-2-methyl-3,4-dihydro-1H-naphthalen-2-amine

> <PUBCHEM_IUPAC_TRADITIONAL_NAME>
[(1S,2R)-1-ethyl-7-methoxy-2-methyl-tetralin-2-yl]amine

> <PUBCHEM_IUPAC_INCHI>
InChI=1S/C14H21NO/c1-4-13-12-9-11(16-3)6-5-10(12)7-8-14(13,2)15/h5-6,9,13H,4,7-8,15H2,1-3H3/t13-,14+/m0/s1

> <PUBCHEM_IUPAC_INCHIKEY>
OTQHFPJXKACHHP-UONOGXRCSA-N

> <PUBCHEM_XLOGP3_AA>
2.5

> <PUBCHEM_EXACT_MASS>
219.162314293

> <PUBCHEM_MOLECULAR_FORMULA>
C14H21NO

> <PUBCHEM_MOLECULAR_WEIGHT>
219.32

> <PUBCHEM_OPENEYE_CAN_SMILES>
CCC1C2=C(CCC1(C)N)C=CC(=C2)OC

> <PUBCHEM_OPENEYE_ISO_SMILES>
CC[C@H]1C2=C(CC[C@@]1(C)N)C=CC(=C2)OC

> <PUBCHEM_CACTVS_TPSA>
35.2

> <PUBCHEM_MONOISOTOPIC_WEIGHT>
219.162314293

> <PUBCHEM_TOTAL_CHARGE>
0

> <PUBCHEM_HEAVY_ATOM_COUNT>
16

> <PUBCHEM_ATOM_DEF_STEREO_COUNT>
2

> <PUBCHEM_ATOM_UDEF_STEREO_COUNT>
0

> <PUBCHEM_BOND_DEF_STEREO_COUNT>
0

> <PUBCHEM_BOND_UDEF_STEREO_COUNT>
0

> <PUBCHEM_ISOTOPIC_ATOM_COUNT>
0

> <PUBCHEM_COMPONENT_COUNT>
1

> <PUBCHEM_CACTVS_TAUTO_COUNT>
-1

> <PUBCHEM_COORDINATE_TYPE>
1
5
255

> <PUBCHEM_BONDANNOTATIONS>
11  14  8
12  15  8
14  15  8
3  2  6
4  8  6
6  11  8
6  9  8
9  12  8

$$$$
