137210067
  -OEChem-09292322372D

 58 61  0     0  0  0  0  0  0999 V2000
    8.4530   -2.4790    0.0000 S   0  0  0  0  0  0  0  0  0  0  0  0
    9.4035   -2.1683    0.0000 O   0  0  0  0  0  0  0  0  0  0  0  0
    7.5025   -2.7897    0.0000 O   0  0  0  0  0  0  0  0  0  0  0  0
    6.3301    4.2763    0.0000 O   0  0  0  0  0  0  0  0  0  0  0  0
    4.5981   -1.7237    0.0000 N   0  0  0  0  0  0  0  0  0  0  0  0
    2.8660   -2.7237    0.0000 N   0  0  0  0  0  0  0  0  0  0  0  0
    8.1424   -1.5285    0.0000 N   0  0  0  0  0  0  0  0  0  0  0  0
    6.3301   -1.7237    0.0000 N   0  0  0  0  0  0  0  0  0  0  0  0
    3.7320   -1.2237    0.0000 C   0  0  0  0  0  0  0  0  0  0  0  0
    4.5981   -2.7237    0.0000 C   0  0  0  0  0  0  0  0  0  0  0  0
    2.8660   -1.7237    0.0000 C   0  0  0  0  0  0  0  0  0  0  0  0
    3.7320   -3.2237    0.0000 C   0  0  0  0  0  0  0  0  0  0  0  0
    5.4641   -1.2237    0.0000 C   0  0  0  0  0  0  0  0  0  0  0  0
    7.1962   -1.2237    0.0000 C   0  0  0  0  0  0  0  0  0  0  0  0
    7.1962   -0.2237    0.0000 C   0  0  0  0  0  0  0  0  0  0  0  0
    8.7637   -3.4295    0.0000 C   0  0  0  0  0  0  0  0  0  0  0  0
    6.3301    0.2763    0.0000 C   0  0  0  0  0  0  0  0  0  0  0  0
    9.7422   -3.6357    0.0000 C   0  0  0  0  0  0  0  0  0  0  0  0
    5.4641   -0.2237    0.0000 C   0  0  0  0  0  0  0  0  0  0  0  0
    8.7260   -0.7237    0.0000 C   0  0  0  0  0  0  0  0  0  0  0  0
    2.0000   -3.2237    0.0000 C   0  0  0  0  0  0  0  0  0  0  0  0
    8.1424    0.0810    0.0000 C   0  0  0  0  0  0  0  0  0  0  0  0
    6.3301    1.2763    0.0000 C   0  0  0  0  0  0  0  0  0  0  0  0
   10.0529   -4.5863    0.0000 C   0  0  0  0  0  0  0  0  0  0  0  0
   10.4100   -2.8914    0.0000 C   0  0  0  0  0  0  0  0  0  0  0  0
    7.1962    1.7763    0.0000 C   0  0  0  0  0  0  0  0  0  0  0  0
    5.4641    1.7763    0.0000 C   0  0  0  0  0  0  0  0  0  0  0  0
    7.1962    2.7763    0.0000 C   0  0  0  0  0  0  0  0  0  0  0  0
    5.4641    2.7763    0.0000 C   0  0  0  0  0  0  0  0  0  0  0  0
    6.3301    3.2763    0.0000 C   0  0  0  0  0  0  0  0  0  0  0  0
    4.1306   -0.7488    0.0000 H   0  0  0  0  0  0  0  0  0  0  0  0
    3.3335   -0.7488    0.0000 H   0  0  0  0  0  0  0  0  0  0  0  0
    4.8101   -3.3064    0.0000 H   0  0  0  0  0  0  0  0  0  0  0  0
    5.2087   -2.6161    0.0000 H   0  0  0  0  0  0  0  0  0  0  0  0
    2.6540   -1.1411    0.0000 H   0  0  0  0  0  0  0  0  0  0  0  0
    2.2554   -1.8314    0.0000 H   0  0  0  0  0  0  0  0  0  0  0  0
    3.3335   -3.6987    0.0000 H   0  0  0  0  0  0  0  0  0  0  0  0
    4.1306   -3.6987    0.0000 H   0  0  0  0  0  0  0  0  0  0  0  0
    8.1499   -3.5169    0.0000 H   0  0  0  0  0  0  0  0  0  0  0  0
    8.7431   -4.0492    0.0000 H   0  0  0  0  0  0  0  0  0  0  0  0
    9.5496   -3.0464    0.0000 H   0  0  0  0  0  0  0  0  0  0  0  0
    4.9272    0.0863    0.0000 H   0  0  0  0  0  0  0  0  0  0  0  0
    9.3460   -0.7237    0.0000 H   0  0  0  0  0  0  0  0  0  0  0  0
    1.6900   -2.6868    0.0000 H   0  0  0  0  0  0  0  0  0  0  0  0
    1.4631   -3.5337    0.0000 H   0  0  0  0  0  0  0  0  0  0  0  0
    2.3100   -3.7607    0.0000 H   0  0  0  0  0  0  0  0  0  0  0  0
    8.3350    0.6703    0.0000 H   0  0  0  0  0  0  0  0  0  0  0  0
    9.4635   -4.7789    0.0000 H   0  0  0  0  0  0  0  0  0  0  0  0
   10.2455   -5.1756    0.0000 H   0  0  0  0  0  0  0  0  0  0  0  0
   10.6422   -4.3936    0.0000 H   0  0  0  0  0  0  0  0  0  0  0  0
   10.8715   -3.3055    0.0000 H   0  0  0  0  0  0  0  0  0  0  0  0
   10.8241   -2.4300    0.0000 H   0  0  0  0  0  0  0  0  0  0  0  0
    9.9486   -2.4774    0.0000 H   0  0  0  0  0  0  0  0  0  0  0  0
    7.7331    1.4663    0.0000 H   0  0  0  0  0  0  0  0  0  0  0  0
    4.9272    1.4663    0.0000 H   0  0  0  0  0  0  0  0  0  0  0  0
    7.7331    3.0863    0.0000 H   0  0  0  0  0  0  0  0  0  0  0  0
    4.9272    3.0863    0.0000 H   0  0  0  0  0  0  0  0  0  0  0  0
    5.7932    4.5863    0.0000 H   0  0  0  0  0  0  0  0  0  0  0  0
  1  2  2  0  0  0  0
  1  3  2  0  0  0  0
  1  7  1  0  0  0  0
  1 16  1  0  0  0  0
  4 30  1  0  0  0  0
  4 58  1  0  0  0  0
  5  9  1  0  0  0  0
  5 10  1  0  0  0  0
  5 13  1  0  0  0  0
  6 11  1  0  0  0  0
  6 12  1  0  0  0  0
  6 21  1  0  0  0  0
  7 14  1  0  0  0  0
  7 20  1  0  0  0  0
  8 13  2  0  0  0  0
  8 14  1  0  0  0  0
  9 11  1  0  0  0  0
  9 31  1  0  0  0  0
  9 32  1  0  0  0  0
 10 12  1  0  0  0  0
 10 33  1  0  0  0  0
 10 34  1  0  0  0  0
 11 35  1  0  0  0  0
 11 36  1  0  0  0  0
 12 37  1  0  0  0  0
 12 38  1  0  0  0  0
 13 19  1  0  0  0  0
 14 15  2  0  0  0  0
 15 17  1  0  0  0  0
 15 22  1  0  0  0  0
 16 18  1  0  0  0  0
 16 39  1  0  0  0  0
 16 40  1  0  0  0  0
 17 19  2  0  0  0  0
 17 23  1  0  0  0  0
 18 24  1  0  0  0  0
 18 25  1  0  0  0  0
 18 41  1  0  0  0  0
 19 42  1  0  0  0  0
 20 22  2  0  0  0  0
 20 43  1  0  0  0  0
 21 44  1  0  0  0  0
 21 45  1  0  0  0  0
 21 46  1  0  0  0  0
 22 47  1  0  0  0  0
 23 26  2  0  0  0  0
 23 27  1  0  0  0  0
 24 48  1  0  0  0  0
 24 49  1  0  0  0  0
 24 50  1  0  0  0  0
 25 51  1  0  0  0  0
 25 52  1  0  0  0  0
 25 53  1  0  0  0  0
 26 28  1  0  0  0  0
 26 54  1  0  0  0  0
 27 29  2  0  0  0  0
 27 55  1  0  0  0  0
 28 30  2  0  0  0  0
 28 56  1  0  0  0  0
 29 30  1  0  0  0  0
 29 57  1  0  0  0  0
M  END
> <PUBCHEM_COMPOUND_CID>
137210067

> <PUBCHEM_COMPOUND_CANONICALIZED>
1

> <PUBCHEM_CACTVS_COMPLEXITY>
666

> <PUBCHEM_CACTVS_HBOND_ACCEPTOR>
6

> <PUBCHEM_CACTVS_HBOND_DONOR>
1

> <PUBCHEM_CACTVS_ROTATABLE_BOND>
5

> <PUBCHEM_CACTVS_SUBSKEYS>
AAADceB7sABAAAAAAAAAAAAAAAAAAWAAAAA8WIAAAAAAAFgB/AAAHgQASAAADQTF2wS/tt8IEgKgAjJnZHDCgCkxIqAJ2CA+bJiIbuLCmZOUcAhswBPI2CeQwPAOoAAAAAAAAABAAAAAAAAAAAAAAAAAAA==

> <PUBCHEM_IUPAC_OPENEYE_NAME>
4-[1-isobutylsulfonyl-6-(4-methylpiperazin-1-yl)pyrrolo[2,3-b]pyridin-4-yl]phenol

> <PUBCHEM_IUPAC_CAS_NAME>
4-[6-(4-methyl-1-piperazinyl)-1-(2-methylpropylsulfonyl)-4-pyrrolo[2,3-b]pyridinyl]phenol

> <PUBCHEM_IUPAC_NAME_MARKUP>
4-[6-(4-methylpiperazin-1-yl)-1-(2-methylpropylsulfonyl)pyrrolo[2,3-b]pyridin-4-yl]phenol

> <PUBCHEM_IUPAC_NAME>
4-[6-(4-methylpiperazin-1-yl)-1-(2-methylpropylsulfonyl)pyrrolo[2,3-b]pyridin-4-yl]phenol

> <PUBCHEM_IUPAC_SYSTEMATIC_NAME>
4-[6-(4-methylpiperazin-1-yl)-1-(2-methylpropylsulfonyl)pyrrolo[2,3-b]pyridin-4-yl]phenol

> <PUBCHEM_IUPAC_TRADITIONAL_NAME>
4-[1-isobutylsulfonyl-6-(4-methylpiperazino)pyrrolo[2,3-b]pyridin-4-yl]phenol

> <PUBCHEM_IUPAC_INCHI>
InChI=1S/C22H28N4O3S/c1-16(2)15-30(28,29)26-9-8-19-20(17-4-6-18(27)7-5-17)14-21(23-22(19)26)25-12-10-24(3)11-13-25/h4-9,14,16,27H,10-13,15H2,1-3H3

> <PUBCHEM_IUPAC_INCHIKEY>
YLOWHETUDKIVOI-UHFFFAOYSA-N

> <PUBCHEM_XLOGP3_AA>
3.8

> <PUBCHEM_EXACT_MASS>
428.18821194

> <PUBCHEM_MOLECULAR_FORMULA>
C22H28N4O3S

> <PUBCHEM_MOLECULAR_WEIGHT>
428.5

> <PUBCHEM_OPENEYE_CAN_SMILES>
CC(C)CS(=O)(=O)N1C=CC2=C1N=C(C=C2C3=CC=C(C=C3)O)N4CCN(CC4)C

> <PUBCHEM_OPENEYE_ISO_SMILES>
CC(C)CS(=O)(=O)N1C=CC2=C1N=C(C=C2C3=CC=C(C=C3)O)N4CCN(CC4)C

> <PUBCHEM_CACTVS_TPSA>
87

> <PUBCHEM_MONOISOTOPIC_WEIGHT>
428.18821194

> <PUBCHEM_TOTAL_CHARGE>
0

> <PUBCHEM_HEAVY_ATOM_COUNT>
30

> <PUBCHEM_ATOM_DEF_STEREO_COUNT>
0

> <PUBCHEM_ATOM_UDEF_STEREO_COUNT>
0

> <PUBCHEM_BOND_DEF_STEREO_COUNT>
0

> <PUBCHEM_BOND_UDEF_STEREO_COUNT>
0

> <PUBCHEM_ISOTOPIC_ATOM_COUNT>
0

> <PUBCHEM_COMPONENT_COUNT>
1

> <PUBCHEM_CACTVS_TAUTO_COUNT>
-1

> <PUBCHEM_COORDINATE_TYPE>
1
5
255

> <PUBCHEM_BONDANNOTATIONS>
13  19  8
14  15  8
15  17  8
15  22  8
17  19  8
20  22  8
23  26  8
23  27  8
26  28  8
27  29  8
28  30  8
29  30  8
7  14  8
7  20  8
8  13  8
8  14  8

$$$$
