22100933
  -OEChem-09292322212D

 41 44  0     1  0  0  0  0  0999 V2000
    2.0000    1.6020    0.0000 Cl  0  0  0  0  0  0  0  0  0  0  0  0
    9.1279    0.6020    0.0000 N   0  0  3  0  0  0  0  0  0  0  0  0
    5.5443    1.4067    0.0000 N   0  0  0  0  0  0  0  0  0  0  0  0
    5.5443   -0.2027    0.0000 N   0  0  0  0  0  0  0  0  0  0  0  0
    8.6279    1.4680    0.0000 C   0  0  0  0  0  0  0  0  0  0  0  0
    7.6279    1.4680    0.0000 C   0  0  0  0  0  0  0  0  0  0  0  0
    8.6279   -0.2640    0.0000 C   0  0  0  0  0  0  0  0  0  0  0  0
    7.1279    0.6020    0.0000 C   0  0  0  0  0  0  0  0  0  0  0  0
   10.1279    0.6020    0.0000 C   0  0  0  0  0  0  0  0  0  0  0  0
    7.6279   -0.2640    0.0000 C   0  0  0  0  0  0  0  0  0  0  0  0
    6.1279    0.6020    0.0000 C   0  0  0  0  0  0  0  0  0  0  0  0
   10.6279   -0.2640    0.0000 C   0  0  0  0  0  0  0  0  0  0  0  0
    4.5981    1.1020    0.0000 C   0  0  0  0  0  0  0  0  0  0  0  0
    4.5981    0.1020    0.0000 C   0  0  0  0  0  0  0  0  0  0  0  0
   11.6279   -0.2640    0.0000 C   0  0  0  0  0  0  0  0  0  0  0  0
   10.1279   -1.1300    0.0000 C   0  0  0  0  0  0  0  0  0  0  0  0
    3.7320    1.6020    0.0000 C   0  0  0  0  0  0  0  0  0  0  0  0
    3.7320   -0.3980    0.0000 C   0  0  0  0  0  0  0  0  0  0  0  0
   12.1279   -1.1300    0.0000 C   0  0  0  0  0  0  0  0  0  0  0  0
   10.6279   -1.9961    0.0000 C   0  0  0  0  0  0  0  0  0  0  0  0
    2.8660    1.1020    0.0000 C   0  0  0  0  0  0  0  0  0  0  0  0
    2.8660    0.1020    0.0000 C   0  0  0  0  0  0  0  0  0  0  0  0
   11.6279   -1.9961    0.0000 C   0  0  0  0  0  0  0  0  0  0  0  0
    9.2105    1.6801    0.0000 H   0  0  0  0  0  0  0  0  0  0  0  0
    8.5202    2.0786    0.0000 H   0  0  0  0  0  0  0  0  0  0  0  0
    7.7356    2.0786    0.0000 H   0  0  0  0  0  0  0  0  0  0  0  0
    7.0453    1.6801    0.0000 H   0  0  0  0  0  0  0  0  0  0  0  0
    8.5202   -0.8746    0.0000 H   0  0  0  0  0  0  0  0  0  0  0  0
    9.2105   -0.4761    0.0000 H   0  0  0  0  0  0  0  0  0  0  0  0
   10.7105    0.8141    0.0000 H   0  0  0  0  0  0  0  0  0  0  0  0
   10.0202    1.2126    0.0000 H   0  0  0  0  0  0  0  0  0  0  0  0
    7.3179   -0.8010    0.0000 H   0  0  0  0  0  0  0  0  0  0  0  0
    5.7369    1.9961    0.0000 H   0  0  0  0  0  0  0  0  0  0  0  0
   11.9379    0.2729    0.0000 H   0  0  0  0  0  0  0  0  0  0  0  0
    9.5079   -1.1300    0.0000 H   0  0  0  0  0  0  0  0  0  0  0  0
    3.7320    2.2220    0.0000 H   0  0  0  0  0  0  0  0  0  0  0  0
    3.7320   -1.0180    0.0000 H   0  0  0  0  0  0  0  0  0  0  0  0
   12.7479   -1.1300    0.0000 H   0  0  0  0  0  0  0  0  0  0  0  0
   10.3179   -2.5330    0.0000 H   0  0  0  0  0  0  0  0  0  0  0  0
    2.3291   -0.2080    0.0000 H   0  0  0  0  0  0  0  0  0  0  0  0
   11.9379   -2.5330    0.0000 H   0  0  0  0  0  0  0  0  0  0  0  0
  1 21  1  0  0  0  0
  2  5  1  0  0  0  0
  2  7  1  0  0  0  0
  2  9  1  0  0  0  0
  3 11  1  0  0  0  0
  3 13  1  0  0  0  0
  3 33  1  0  0  0  0
  4 11  2  0  0  0  0
  4 14  1  0  0  0  0
  5  6  1  0  0  0  0
  5 24  1  0  0  0  0
  5 25  1  0  0  0  0
  6  8  1  0  0  0  0
  6 26  1  0  0  0  0
  6 27  1  0  0  0  0
  7 10  1  0  0  0  0
  7 28  1  0  0  0  0
  7 29  1  0  0  0  0
  8 10  2  0  0  0  0
  8 11  1  0  0  0  0
  9 12  1  0  0  0  0
  9 30  1  0  0  0  0
  9 31  1  0  0  0  0
 10 32  1  0  0  0  0
 12 15  2  0  0  0  0
 12 16  1  0  0  0  0
 13 14  2  0  0  0  0
 13 17  1  0  0  0  0
 14 18  1  0  0  0  0
 15 19  1  0  0  0  0
 15 34  1  0  0  0  0
 16 20  2  0  0  0  0
 16 35  1  0  0  0  0
 17 21  2  0  0  0  0
 17 36  1  0  0  0  0
 18 22  2  0  0  0  0
 18 37  1  0  0  0  0
 19 23  2  0  0  0  0
 19 38  1  0  0  0  0
 20 23  1  0  0  0  0
 20 39  1  0  0  0  0
 21 22  1  0  0  0  0
 22 40  1  0  0  0  0
 23 41  1  0  0  0  0
M  END
> <PUBCHEM_COMPOUND_CID>
22100933

> <PUBCHEM_COMPOUND_CANONICALIZED>
1

> <PUBCHEM_CACTVS_COMPLEXITY>
432

> <PUBCHEM_CACTVS_HBOND_ACCEPTOR>
2

> <PUBCHEM_CACTVS_HBOND_DONOR>
1

> <PUBCHEM_CACTVS_ROTATABLE_BOND>
3

> <PUBCHEM_CACTVS_SUBSKEYS>
AAADceB7AAAEAAAAAAAAAAAAAAAAAWAAAAAwYIAAAAAAAFgB9AAAHAIQAAAADArBHyQx0LfJkACgAyZiZACCgC2hF6AJmSA4dpiIaKLBm5GUIAhokALIyCcQgAAOAABAAAIAACAAAIAABAAAQAAAAAAAAA==

> <PUBCHEM_IUPAC_OPENEYE_NAME>
2-(1-benzyl-3,6-dihydro-2H-pyridin-4-yl)-6-chloro-1H-benzimidazole

> <PUBCHEM_IUPAC_CAS_NAME>
6-chloro-2-[1-(phenylmethyl)-3,6-dihydro-2H-pyridin-4-yl]-1H-benzimidazole

> <PUBCHEM_IUPAC_NAME_MARKUP>
2-(1-benzyl-3,6-dihydro-2<I>H</I>-pyridin-4-yl)-6-chloro-1<I>H</I>-benzimidazole

> <PUBCHEM_IUPAC_NAME>
2-(1-benzyl-3,6-dihydro-2H-pyridin-4-yl)-6-chloro-1H-benzimidazole

> <PUBCHEM_IUPAC_SYSTEMATIC_NAME>
6-chloranyl-2-[1-(phenylmethyl)-3,6-dihydro-2H-pyridin-4-yl]-1H-benzimidazole

> <PUBCHEM_IUPAC_TRADITIONAL_NAME>
2-(1-benzyl-3,6-dihydro-2H-pyridin-4-yl)-6-chloro-1H-benzimidazole

> <PUBCHEM_IUPAC_INCHI>
InChI=1S/C19H18ClN3/c20-16-6-7-17-18(12-16)22-19(21-17)15-8-10-23(11-9-15)13-14-4-2-1-3-5-14/h1-8,12H,9-11,13H2,(H,21,22)

> <PUBCHEM_IUPAC_INCHIKEY>
FTCUBQDATNLTBT-UHFFFAOYSA-N

> <PUBCHEM_XLOGP3_AA>
3.9

> <PUBCHEM_EXACT_MASS>
323.1189253

> <PUBCHEM_MOLECULAR_FORMULA>
C19H18ClN3

> <PUBCHEM_MOLECULAR_WEIGHT>
323.8

> <PUBCHEM_OPENEYE_CAN_SMILES>
C1CN(CC=C1C2=NC3=C(N2)C=C(C=C3)Cl)CC4=CC=CC=C4

> <PUBCHEM_OPENEYE_ISO_SMILES>
C1CN(CC=C1C2=NC3=C(N2)C=C(C=C3)Cl)CC4=CC=CC=C4

> <PUBCHEM_CACTVS_TPSA>
31.9

> <PUBCHEM_MONOISOTOPIC_WEIGHT>
323.1189253

> <PUBCHEM_TOTAL_CHARGE>
0

> <PUBCHEM_HEAVY_ATOM_COUNT>
23

> <PUBCHEM_ATOM_DEF_STEREO_COUNT>
0

> <PUBCHEM_ATOM_UDEF_STEREO_COUNT>
0

> <PUBCHEM_BOND_DEF_STEREO_COUNT>
0

> <PUBCHEM_BOND_UDEF_STEREO_COUNT>
0

> <PUBCHEM_ISOTOPIC_ATOM_COUNT>
0

> <PUBCHEM_COMPONENT_COUNT>
1

> <PUBCHEM_CACTVS_TAUTO_COUNT>
-1

> <PUBCHEM_COORDINATE_TYPE>
1
5
255

> <PUBCHEM_BONDANNOTATIONS>
12  15  8
12  16  8
13  14  8
13  17  8
14  18  8
15  19  8
16  20  8
17  21  8
18  22  8
19  23  8
20  23  8
21  22  8
3  11  8
3  13  8
4  11  8
4  14  8

$$$$
