134150535
  -OEChem-09292322382D

 45 48  0     1  0  0  0  0  0999 V2000
    3.5998    1.1944    0.0000 S   0  0  0  0  0  0  0  0  0  0  0  0
    8.7475   -3.4475    0.0000 O   0  0  0  0  0  0  0  0  0  0  0  0
    2.6493    0.8838    0.0000 O   0  0  0  0  0  0  0  0  0  0  0  0
    4.5504    1.5051    0.0000 O   0  0  0  0  0  0  0  0  0  0  0  0
    8.3027    0.6519    0.0000 N   0  0  0  0  0  0  0  0  0  0  0  0
    3.9105    0.2439    0.0000 N   0  0  0  0  0  0  0  0  0  0  0  0
    7.5970   -1.0650    0.0000 C   0  0  2  0  0  0  0  0  0  0  0  0
    7.5970   -0.0567    0.0000 C   0  0  2  0  0  0  0  0  0  0  0  0
    6.5888   -1.0608    0.0000 C   0  0  0  0  0  0  0  0  0  0  0  0
    6.5888   -0.0608    0.0000 C   0  0  0  0  0  0  0  0  0  0  0  0
    8.3027   -1.7735    0.0000 C   0  0  0  0  0  0  0  0  0  0  0  0
    5.7227    0.4392    0.0000 C   0  0  0  0  0  0  0  0  0  0  0  0
    5.7227   -1.5608    0.0000 C   0  0  0  0  0  0  0  0  0  0  0  0
    4.8567   -0.0608    0.0000 C   0  0  0  0  0  0  0  0  0  0  0  0
    4.8567   -1.0608    0.0000 C   0  0  0  0  0  0  0  0  0  0  0  0
    8.0419   -2.7389    0.0000 C   0  0  0  0  0  0  0  0  0  0  0  0
    3.9105   -1.3655    0.0000 C   0  0  0  0  0  0  0  0  0  0  0  0
    9.2692    0.3951    0.0000 C   0  0  0  0  0  0  0  0  0  0  0  0
    3.3269   -0.5608    0.0000 C   0  0  0  0  0  0  0  0  0  0  0  0
    3.2892    2.1450    0.0000 C   0  0  0  0  0  0  0  0  0  0  0  0
    2.3107    2.3512    0.0000 C   0  0  0  0  0  0  0  0  0  0  0  0
    3.9570    2.8893    0.0000 C   0  0  0  0  0  0  0  0  0  0  0  0
    2.0000    3.3017    0.0000 C   0  0  0  0  0  0  0  0  0  0  0  0
    3.6464    3.8398    0.0000 C   0  0  0  0  0  0  0  0  0  0  0  0
    2.6678    4.0460    0.0000 C   0  0  0  0  0  0  0  0  0  0  0  0
    8.1701   -0.8283    0.0000 H   0  0  0  0  0  0  0  0  0  0  0  0
    8.1701   -0.2933    0.0000 H   0  0  0  0  0  0  0  0  0  0  0  0
    8.8641   -2.0367    0.0000 H   0  0  0  0  0  0  0  0  0  0  0  0
    8.6594   -1.2664    0.0000 H   0  0  0  0  0  0  0  0  0  0  0  0
    5.7227    1.0592    0.0000 H   0  0  0  0  0  0  0  0  0  0  0  0
    5.7227   -2.1808    0.0000 H   0  0  0  0  0  0  0  0  0  0  0  0
    8.1410    1.2504    0.0000 H   0  0  0  0  0  0  0  0  0  0  0  0
    7.4805   -2.4757    0.0000 H   0  0  0  0  0  0  0  0  0  0  0  0
    7.6852   -3.2460    0.0000 H   0  0  0  0  0  0  0  0  0  0  0  0
    3.7179   -1.9549    0.0000 H   0  0  0  0  0  0  0  0  0  0  0  0
    9.1099   -0.2041    0.0000 H   0  0  0  0  0  0  0  0  0  0  0  0
    9.8684    0.2358    0.0000 H   0  0  0  0  0  0  0  0  0  0  0  0
    9.4284    0.9943    0.0000 H   0  0  0  0  0  0  0  0  0  0  0  0
    2.7069   -0.5608    0.0000 H   0  0  0  0  0  0  0  0  0  0  0  0
    8.5858   -4.0460    0.0000 H   0  0  0  0  0  0  0  0  0  0  0  0
    1.8966    1.8897    0.0000 H   0  0  0  0  0  0  0  0  0  0  0  0
    4.5637    2.7614    0.0000 H   0  0  0  0  0  0  0  0  0  0  0  0
    1.3933    3.4296    0.0000 H   0  0  0  0  0  0  0  0  0  0  0  0
    4.0604    4.3012    0.0000 H   0  0  0  0  0  0  0  0  0  0  0  0
    2.4752    4.6353    0.0000 H   0  0  0  0  0  0  0  0  0  0  0  0
  1  3  2  0  0  0  0
  1  4  2  0  0  0  0
  1  6  1  0  0  0  0
  1 20  1  0  0  0  0
  2 16  1  0  0  0  0
  2 40  1  0  0  0  0
  8  5  1  6  0  0  0
  5 18  1  0  0  0  0
  5 32  1  0  0  0  0
  6 14  1  0  0  0  0
  6 19  1  0  0  0  0
  7  8  1  0  0  0  0
  7  9  1  0  0  0  0
  7 11  1  1  0  0  0
  7 26  1  0  0  0  0
  8 10  1  0  0  0  0
  8 27  1  0  0  0  0
  9 10  2  0  0  0  0
  9 13  1  0  0  0  0
 10 12  1  0  0  0  0
 11 16  1  0  0  0  0
 11 28  1  0  0  0  0
 11 29  1  0  0  0  0
 12 14  2  0  0  0  0
 12 30  1  0  0  0  0
 13 15  2  0  0  0  0
 13 31  1  0  0  0  0
 14 15  1  0  0  0  0
 15 17  1  0  0  0  0
 16 33  1  0  0  0  0
 16 34  1  0  0  0  0
 17 19  2  0  0  0  0
 17 35  1  0  0  0  0
 18 36  1  0  0  0  0
 18 37  1  0  0  0  0
 18 38  1  0  0  0  0
 19 39  1  0  0  0  0
 20 21  2  0  0  0  0
 20 22  1  0  0  0  0
 21 23  1  0  0  0  0
 21 41  1  0  0  0  0
 22 24  2  0  0  0  0
 22 42  1  0  0  0  0
 23 25  2  0  0  0  0
 23 43  1  0  0  0  0
 24 25  1  0  0  0  0
 24 44  1  0  0  0  0
 25 45  1  0  0  0  0
M  END
> <PUBCHEM_COMPOUND_CID>
134150535

> <PUBCHEM_COMPOUND_CANONICALIZED>
1

> <PUBCHEM_CACTVS_COMPLEXITY>
570

> <PUBCHEM_CACTVS_HBOND_ACCEPTOR>
4

> <PUBCHEM_CACTVS_HBOND_DONOR>
2

> <PUBCHEM_CACTVS_ROTATABLE_BOND>
5

> <PUBCHEM_CACTVS_SUBSKEYS>
AAADceB7MABAAAAAAAAAAAAAAABgAWAAAAAwYAAAAAAYAFgB9AAAHgQQSAAADSjh3gY+wfLIEgKgAzRnRHDCgDAxAiAI2Lg4ZJgIMOLAkZGEYAhkkADIyAewwPAOyAACQAASAACQAASAACQAAAAAAAAAAA==

> <PUBCHEM_IUPAC_OPENEYE_NAME>
2-[(4S,5R)-9-(benzenesulfonyl)-5-(methylamino)-9-azatricyclo[6.3.0.03,6]undeca-1,3(6),7,10-tetraen-4-yl]ethanol

> <PUBCHEM_IUPAC_CAS_NAME>
2-[(4S,5R)-9-(benzenesulfonyl)-5-(methylamino)-9-azatricyclo[6.3.0.03,6]undeca-1,3(6),7,10-tetraen-4-yl]ethanol

> <PUBCHEM_IUPAC_NAME_MARKUP>
2-[(4<I>S</I>,5<I>R</I>)-9-(benzenesulfonyl)-5-(methylamino)-9-azatricyclo[6.3.0.0<SUP>3,6</SUP>]undeca-1,3(6),7,10-tetraen-4-yl]ethanol

> <PUBCHEM_IUPAC_NAME>
2-[(4S,5R)-9-(benzenesulfonyl)-5-(methylamino)-9-azatricyclo[6.3.0.03,6]undeca-1,3(6),7,10-tetraen-4-yl]ethanol

> <PUBCHEM_IUPAC_SYSTEMATIC_NAME>
2-[(4S,5R)-5-(methylamino)-9-(phenylsulfonyl)-9-azatricyclo[6.3.0.03,6]undeca-1,3(6),7,10-tetraen-4-yl]ethanol

> <PUBCHEM_IUPAC_TRADITIONAL_NAME>
2-[(4S,5R)-9-besyl-5-(methylamino)-9-azatricyclo[6.3.0.03,6]undeca-1,3(6),7,10-tetraen-4-yl]ethanol

> <PUBCHEM_IUPAC_INCHI>
InChI=1S/C19H20N2O3S/c1-20-19-15(8-10-22)16-11-13-7-9-21(18(13)12-17(16)19)25(23,24)14-5-3-2-4-6-14/h2-7,9,11-12,15,19-20,22H,8,10H2,1H3/t15-,19+/m0/s1

> <PUBCHEM_IUPAC_INCHIKEY>
HPBCFIIQRFMWKG-HNAYVOBHSA-N

> <PUBCHEM_XLOGP3_AA>
0.5

> <PUBCHEM_EXACT_MASS>
356.11946368

> <PUBCHEM_MOLECULAR_FORMULA>
C19H20N2O3S

> <PUBCHEM_MOLECULAR_WEIGHT>
356.4

> <PUBCHEM_OPENEYE_CAN_SMILES>
CNC1C(C2=C1C=C3C(=C2)C=CN3S(=O)(=O)C4=CC=CC=C4)CCO

> <PUBCHEM_OPENEYE_ISO_SMILES>
CN[C@@H]1[C@H](C2=C1C=C3C(=C2)C=CN3S(=O)(=O)C4=CC=CC=C4)CCO

> <PUBCHEM_CACTVS_TPSA>
79.7

> <PUBCHEM_MONOISOTOPIC_WEIGHT>
356.11946368

> <PUBCHEM_TOTAL_CHARGE>
0

> <PUBCHEM_HEAVY_ATOM_COUNT>
25

> <PUBCHEM_ATOM_DEF_STEREO_COUNT>
2

> <PUBCHEM_ATOM_UDEF_STEREO_COUNT>
0

> <PUBCHEM_BOND_DEF_STEREO_COUNT>
0

> <PUBCHEM_BOND_UDEF_STEREO_COUNT>
0

> <PUBCHEM_ISOTOPIC_ATOM_COUNT>
0

> <PUBCHEM_COMPONENT_COUNT>
1

> <PUBCHEM_CACTVS_TAUTO_COUNT>
-1

> <PUBCHEM_COORDINATE_TYPE>
1
5
255

> <PUBCHEM_BONDANNOTATIONS>
10  12  8
12  14  8
13  15  8
14  15  8
15  17  8
17  19  8
20  21  8
20  22  8
21  23  8
22  24  8
23  25  8
24  25  8
8  5  6
6  14  8
6  19  8
7  11  5
9  10  8
9  13  8

$$$$
