118709169
  -OEChem-09292322352D

148153  0     0  0  0  0  0  0999 V2000
    2.5981    1.2990    0.0000 Cl  0  0  0  0  0  0  0  0  0  0  0  0
   22.0981   -1.2990    0.0000 Cl  0  0  0  0  0  0  0  0  0  0  0  0
    2.8660   13.7631    0.0000 F   0  0  0  0  0  0  0  0  0  0  0  0
   18.3660  -13.7631    0.0000 F   0  0  0  0  0  0  0  0  0  0  0  0
    5.0981    3.8971    0.0000 O   0  0  0  0  0  0  0  0  0  0  0  0
   19.5981   -3.8971    0.0000 O   0  0  0  0  0  0  0  0  0  0  0  0
    6.5981    4.7631    0.0000 O   0  0  0  0  0  0  0  0  0  0  0  0
   18.0981   -4.7631    0.0000 O   0  0  0  0  0  0  0  0  0  0  0  0
    2.0000    9.2631    0.0000 O   0  0  0  0  0  0  0  0  0  0  0  0
   17.5000   -9.2631    0.0000 O   0  0  0  0  0  0  0  0  0  0  0  0
    4.5981    6.7631    0.0000 N   0  0  0  0  0  0  0  0  0  0  0  0
   20.0981   -6.7631    0.0000 N   0  0  0  0  0  0  0  0  0  0  0  0
    4.5981    4.7631    0.0000 C   0  0  0  0  0  0  0  0  0  0  0  0
   20.0981   -4.7631    0.0000 C   0  0  0  0  0  0  0  0  0  0  0  0
    3.7320    5.2631    0.0000 C   0  0  0  0  0  0  0  0  0  0  0  0
    5.4641    5.2631    0.0000 C   0  0  0  0  0  0  0  0  0  0  0  0
   20.9641   -5.2631    0.0000 C   0  0  0  0  0  0  0  0  0  0  0  0
   19.2320   -5.2631    0.0000 C   0  0  0  0  0  0  0  0  0  0  0  0
    3.7320    6.2631    0.0000 C   0  0  0  0  0  0  0  0  0  0  0  0
    5.4641    6.2631    0.0000 C   0  0  0  0  0  0  0  0  0  0  0  0
   20.9641   -6.2631    0.0000 C   0  0  0  0  0  0  0  0  0  0  0  0
   19.2320   -6.2631    0.0000 C   0  0  0  0  0  0  0  0  0  0  0  0
    4.0981    3.8971    0.0000 C   0  0  0  0  0  0  0  0  0  0  0  0
   20.5981   -3.8971    0.0000 C   0  0  0  0  0  0  0  0  0  0  0  0
    4.5981    7.7631    0.0000 C   0  0  0  0  0  0  0  0  0  0  0  0
   20.0981   -7.7631    0.0000 C   0  0  0  0  0  0  0  0  0  0  0  0
    3.7320    8.2631    0.0000 C   0  0  0  0  0  0  0  0  0  0  0  0
   19.2320   -8.2631    0.0000 C   0  0  0  0  0  0  0  0  0  0  0  0
    3.0981    3.8971    0.0000 C   0  0  0  0  0  0  0  0  0  0  0  0
   20.0981   -3.0311    0.0000 C   0  0  0  0  0  0  0  0  0  0  0  0
    4.5981    3.0311    0.0000 C   0  0  0  0  0  0  0  0  0  0  0  0
   21.5981   -3.8971    0.0000 C   0  0  0  0  0  0  0  0  0  0  0  0
    6.0981    3.8971    0.0000 C   0  0  0  0  0  0  0  0  0  0  0  0
   18.5981   -3.8971    0.0000 C   0  0  0  0  0  0  0  0  0  0  0  0
    3.7320    9.2631    0.0000 C   0  0  0  0  0  0  0  0  0  0  0  0
   19.2320   -9.2631    0.0000 C   0  0  0  0  0  0  0  0  0  0  0  0
    6.5981    3.0311    0.0000 C   0  0  0  0  0  0  0  0  0  0  0  0
   18.0981   -3.0311    0.0000 C   0  0  0  0  0  0  0  0  0  0  0  0
    2.5981    3.0311    0.0000 C   0  0  0  0  0  0  0  0  0  0  0  0
   20.5981   -2.1651    0.0000 C   0  0  0  0  0  0  0  0  0  0  0  0
    4.0981    2.1651    0.0000 C   0  0  0  0  0  0  0  0  0  0  0  0
   22.0981   -3.0311    0.0000 C   0  0  0  0  0  0  0  0  0  0  0  0
    7.5981    3.0311    0.0000 C   0  0  0  0  0  0  0  0  0  0  0  0
   17.0981   -3.0311    0.0000 C   0  0  0  0  0  0  0  0  0  0  0  0
    3.0981    2.1651    0.0000 C   0  0  0  0  0  0  0  0  0  0  0  0
   21.5981   -2.1651    0.0000 C   0  0  0  0  0  0  0  0  0  0  0  0
    8.0981    2.1651    0.0000 C   0  0  0  0  0  0  0  0  0  0  0  0
   16.5981   -2.1651    0.0000 C   0  0  0  0  0  0  0  0  0  0  0  0
    2.8660    9.7631    0.0000 C   0  0  0  0  0  0  0  0  0  0  0  0
   18.3660   -9.7631    0.0000 C   0  0  0  0  0  0  0  0  0  0  0  0
    9.0981    2.1651    0.0000 C   0  0  0  0  0  0  0  0  0  0  0  0
   15.5981   -2.1651    0.0000 C   0  0  0  0  0  0  0  0  0  0  0  0
    9.5981    1.2990    0.0000 C   0  0  0  0  0  0  0  0  0  0  0  0
   15.0981   -1.2990    0.0000 C   0  0  0  0  0  0  0  0  0  0  0  0
   10.5981    1.2990    0.0000 C   0  0  0  0  0  0  0  0  0  0  0  0
   14.0981   -1.2990    0.0000 C   0  0  0  0  0  0  0  0  0  0  0  0
   11.0981    0.4330    0.0000 C   0  0  0  0  0  0  0  0  0  0  0  0
   13.5981   -0.4330    0.0000 C   0  0  0  0  0  0  0  0  0  0  0  0
   12.0981    0.4330    0.0000 C   0  0  0  0  0  0  0  0  0  0  0  0
   12.5981   -0.4330    0.0000 C   0  0  0  0  0  0  0  0  0  0  0  0
    2.8660   10.7631    0.0000 C   0  0  0  0  0  0  0  0  0  0  0  0
   18.3660  -10.7631    0.0000 C   0  0  0  0  0  0  0  0  0  0  0  0
    3.7320   11.2631    0.0000 C   0  0  0  0  0  0  0  0  0  0  0  0
   17.5000  -11.2631    0.0000 C   0  0  0  0  0  0  0  0  0  0  0  0
    2.0000   11.2631    0.0000 C   0  0  0  0  0  0  0  0  0  0  0  0
   19.2320  -11.2631    0.0000 C   0  0  0  0  0  0  0  0  0  0  0  0
    3.7320   12.2631    0.0000 C   0  0  0  0  0  0  0  0  0  0  0  0
   17.5000  -12.2631    0.0000 C   0  0  0  0  0  0  0  0  0  0  0  0
    2.0000   12.2631    0.0000 C   0  0  0  0  0  0  0  0  0  0  0  0
   19.2320  -12.2631    0.0000 C   0  0  0  0  0  0  0  0  0  0  0  0
    2.8660   12.7631    0.0000 C   0  0  0  0  0  0  0  0  0  0  0  0
   18.3660  -12.7631    0.0000 C   0  0  0  0  0  0  0  0  0  0  0  0
    3.1215    5.3708    0.0000 H   0  0  0  0  0  0  0  0  0  0  0  0
    3.5200    4.6805    0.0000 H   0  0  0  0  0  0  0  0  0  0  0  0
    5.6762    4.6805    0.0000 H   0  0  0  0  0  0  0  0  0  0  0  0
    6.0747    5.3708    0.0000 H   0  0  0  0  0  0  0  0  0  0  0  0
   21.5747   -5.3708    0.0000 H   0  0  0  0  0  0  0  0  0  0  0  0
   21.1762   -4.6805    0.0000 H   0  0  0  0  0  0  0  0  0  0  0  0
   19.0200   -4.6805    0.0000 H   0  0  0  0  0  0  0  0  0  0  0  0
   18.6215   -5.3708    0.0000 H   0  0  0  0  0  0  0  0  0  0  0  0
    3.5200    6.8458    0.0000 H   0  0  0  0  0  0  0  0  0  0  0  0
    3.1215    6.1555    0.0000 H   0  0  0  0  0  0  0  0  0  0  0  0
    6.0747    6.1555    0.0000 H   0  0  0  0  0  0  0  0  0  0  0  0
    5.6762    6.8458    0.0000 H   0  0  0  0  0  0  0  0  0  0  0  0
   21.1762   -6.8458    0.0000 H   0  0  0  0  0  0  0  0  0  0  0  0
   21.5747   -6.1555    0.0000 H   0  0  0  0  0  0  0  0  0  0  0  0
   18.6215   -6.1555    0.0000 H   0  0  0  0  0  0  0  0  0  0  0  0
   19.0200   -6.8458    0.0000 H   0  0  0  0  0  0  0  0  0  0  0  0
    5.2087    7.6555    0.0000 H   0  0  0  0  0  0  0  0  0  0  0  0
    4.8101    8.3458    0.0000 H   0  0  0  0  0  0  0  0  0  0  0  0
   20.3101   -8.3458    0.0000 H   0  0  0  0  0  0  0  0  0  0  0  0
   20.7087   -7.6555    0.0000 H   0  0  0  0  0  0  0  0  0  0  0  0
    3.1215    8.3708    0.0000 H   0  0  0  0  0  0  0  0  0  0  0  0
    3.5200    7.6805    0.0000 H   0  0  0  0  0  0  0  0  0  0  0  0
   19.0200   -7.6805    0.0000 H   0  0  0  0  0  0  0  0  0  0  0  0
   18.6215   -8.3708    0.0000 H   0  0  0  0  0  0  0  0  0  0  0  0
    2.7881    4.4340    0.0000 H   0  0  0  0  0  0  0  0  0  0  0  0
   19.4781   -3.0311    0.0000 H   0  0  0  0  0  0  0  0  0  0  0  0
    5.2181    3.0311    0.0000 H   0  0  0  0  0  0  0  0  0  0  0  0
   21.9081   -4.4340    0.0000 H   0  0  0  0  0  0  0  0  0  0  0  0
    4.3426    9.1555    0.0000 H   0  0  0  0  0  0  0  0  0  0  0  0
    3.9441    9.8458    0.0000 H   0  0  0  0  0  0  0  0  0  0  0  0
   19.4441   -9.8458    0.0000 H   0  0  0  0  0  0  0  0  0  0  0  0
   19.8426   -9.1555    0.0000 H   0  0  0  0  0  0  0  0  0  0  0  0
    6.0155    2.8190    0.0000 H   0  0  0  0  0  0  0  0  0  0  0  0
    6.7057    2.4205    0.0000 H   0  0  0  0  0  0  0  0  0  0  0  0
   18.6807   -2.8190    0.0000 H   0  0  0  0  0  0  0  0  0  0  0  0
   17.9904   -2.4205    0.0000 H   0  0  0  0  0  0  0  0  0  0  0  0
    1.9781    3.0311    0.0000 H   0  0  0  0  0  0  0  0  0  0  0  0
   20.2881   -1.6281    0.0000 H   0  0  0  0  0  0  0  0  0  0  0  0
    4.4081    1.6281    0.0000 H   0  0  0  0  0  0  0  0  0  0  0  0
   22.7181   -3.0311    0.0000 H   0  0  0  0  0  0  0  0  0  0  0  0
    8.1807    3.2431    0.0000 H   0  0  0  0  0  0  0  0  0  0  0  0
    7.4904    3.6417    0.0000 H   0  0  0  0  0  0  0  0  0  0  0  0
   16.5155   -3.2431    0.0000 H   0  0  0  0  0  0  0  0  0  0  0  0
   17.2057   -3.6417    0.0000 H   0  0  0  0  0  0  0  0  0  0  0  0
    7.5155    1.9530    0.0000 H   0  0  0  0  0  0  0  0  0  0  0  0
    8.2057    1.5545    0.0000 H   0  0  0  0  0  0  0  0  0  0  0  0
   17.1807   -1.9530    0.0000 H   0  0  0  0  0  0  0  0  0  0  0  0
   16.4904   -1.5545    0.0000 H   0  0  0  0  0  0  0  0  0  0  0  0
    9.6807    2.3771    0.0000 H   0  0  0  0  0  0  0  0  0  0  0  0
    8.9904    2.7756    0.0000 H   0  0  0  0  0  0  0  0  0  0  0  0
   15.0155   -2.3771    0.0000 H   0  0  0  0  0  0  0  0  0  0  0  0
   15.7057   -2.7756    0.0000 H   0  0  0  0  0  0  0  0  0  0  0  0
    9.0155    1.0870    0.0000 H   0  0  0  0  0  0  0  0  0  0  0  0
    9.7057    0.6885    0.0000 H   0  0  0  0  0  0  0  0  0  0  0  0
   15.6807   -1.0870    0.0000 H   0  0  0  0  0  0  0  0  0  0  0  0
   14.9904   -0.6885    0.0000 H   0  0  0  0  0  0  0  0  0  0  0  0
   11.1807    1.5111    0.0000 H   0  0  0  0  0  0  0  0  0  0  0  0
   10.4904    1.9096    0.0000 H   0  0  0  0  0  0  0  0  0  0  0  0
   13.5155   -1.5111    0.0000 H   0  0  0  0  0  0  0  0  0  0  0  0
   14.2057   -1.9096    0.0000 H   0  0  0  0  0  0  0  0  0  0  0  0
   10.5155    0.2210    0.0000 H   0  0  0  0  0  0  0  0  0  0  0  0
   11.2057   -0.1776    0.0000 H   0  0  0  0  0  0  0  0  0  0  0  0
   14.1807   -0.2210    0.0000 H   0  0  0  0  0  0  0  0  0  0  0  0
   13.4904    0.1776    0.0000 H   0  0  0  0  0  0  0  0  0  0  0  0
   12.6807    0.6451    0.0000 H   0  0  0  0  0  0  0  0  0  0  0  0
   11.9904    1.0436    0.0000 H   0  0  0  0  0  0  0  0  0  0  0  0
   12.0155   -0.6451    0.0000 H   0  0  0  0  0  0  0  0  0  0  0  0
   12.7057   -1.0436    0.0000 H   0  0  0  0  0  0  0  0  0  0  0  0
    4.2690   10.9531    0.0000 H   0  0  0  0  0  0  0  0  0  0  0  0
   16.9631  -10.9531    0.0000 H   0  0  0  0  0  0  0  0  0  0  0  0
    1.4631   10.9531    0.0000 H   0  0  0  0  0  0  0  0  0  0  0  0
   19.7690  -10.9531    0.0000 H   0  0  0  0  0  0  0  0  0  0  0  0
    4.2690   12.5731    0.0000 H   0  0  0  0  0  0  0  0  0  0  0  0
   16.9631  -12.5731    0.0000 H   0  0  0  0  0  0  0  0  0  0  0  0
    1.4631   12.5731    0.0000 H   0  0  0  0  0  0  0  0  0  0  0  0
   19.7690  -12.5731    0.0000 H   0  0  0  0  0  0  0  0  0  0  0  0
  1 45  1  0  0  0  0
  2 46  1  0  0  0  0
  3 71  1  0  0  0  0
  4 72  1  0  0  0  0
  5 13  1  0  0  0  0
  5 33  1  0  0  0  0
  6 14  1  0  0  0  0
  6 34  1  0  0  0  0
  7 33  2  0  0  0  0
  8 34  2  0  0  0  0
  9 49  2  0  0  0  0
 10 50  2  0  0  0  0
 11 19  1  0  0  0  0
 11 20  1  0  0  0  0
 11 25  1  0  0  0  0
 12 21  1  0  0  0  0
 12 22  1  0  0  0  0
 12 26  1  0  0  0  0
 13 15  1  0  0  0  0
 13 16  1  0  0  0  0
 13 23  1  0  0  0  0
 14 17  1  0  0  0  0
 14 18  1  0  0  0  0
 14 24  1  0  0  0  0
 15 19  1  0  0  0  0
 15 73  1  0  0  0  0
 15 74  1  0  0  0  0
 16 20  1  0  0  0  0
 16 75  1  0  0  0  0
 16 76  1  0  0  0  0
 17 21  1  0  0  0  0
 17 77  1  0  0  0  0
 17 78  1  0  0  0  0
 18 22  1  0  0  0  0
 18 79  1  0  0  0  0
 18 80  1  0  0  0  0
 19 81  1  0  0  0  0
 19 82  1  0  0  0  0
 20 83  1  0  0  0  0
 20 84  1  0  0  0  0
 21 85  1  0  0  0  0
 21 86  1  0  0  0  0
 22 87  1  0  0  0  0
 22 88  1  0  0  0  0
 23 29  2  0  0  0  0
 23 31  1  0  0  0  0
 24 30  2  0  0  0  0
 24 32  1  0  0  0  0
 25 27  1  0  0  0  0
 25 89  1  0  0  0  0
 25 90  1  0  0  0  0
 26 28  1  0  0  0  0
 26 91  1  0  0  0  0
 26 92  1  0  0  0  0
 27 35  1  0  0  0  0
 27 93  1  0  0  0  0
 27 94  1  0  0  0  0
 28 36  1  0  0  0  0
 28 95  1  0  0  0  0
 28 96  1  0  0  0  0
 29 39  1  0  0  0  0
 29 97  1  0  0  0  0
 30 40  1  0  0  0  0
 30 98  1  0  0  0  0
 31 41  2  0  0  0  0
 31 99  1  0  0  0  0
 32 42  2  0  0  0  0
 32100  1  0  0  0  0
 33 37  1  0  0  0  0
 34 38  1  0  0  0  0
 35 49  1  0  0  0  0
 35101  1  0  0  0  0
 35102  1  0  0  0  0
 36 50  1  0  0  0  0
 36103  1  0  0  0  0
 36104  1  0  0  0  0
 37 43  1  0  0  0  0
 37105  1  0  0  0  0
 37106  1  0  0  0  0
 38 44  1  0  0  0  0
 38107  1  0  0  0  0
 38108  1  0  0  0  0
 39 45  2  0  0  0  0
 39109  1  0  0  0  0
 40 46  2  0  0  0  0
 40110  1  0  0  0  0
 41 45  1  0  0  0  0
 41111  1  0  0  0  0
 42 46  1  0  0  0  0
 42112  1  0  0  0  0
 43 47  1  0  0  0  0
 43113  1  0  0  0  0
 43114  1  0  0  0  0
 44 48  1  0  0  0  0
 44115  1  0  0  0  0
 44116  1  0  0  0  0
 47 51  1  0  0  0  0
 47117  1  0  0  0  0
 47118  1  0  0  0  0
 48 52  1  0  0  0  0
 48119  1  0  0  0  0
 48120  1  0  0  0  0
 49 61  1  0  0  0  0
 50 62  1  0  0  0  0
 51 53  1  0  0  0  0
 51121  1  0  0  0  0
 51122  1  0  0  0  0
 52 54  1  0  0  0  0
 52123  1  0  0  0  0
 52124  1  0  0  0  0
 53 55  1  0  0  0  0
 53125  1  0  0  0  0
 53126  1  0  0  0  0
 54 56  1  0  0  0  0
 54127  1  0  0  0  0
 54128  1  0  0  0  0
 55 57  1  0  0  0  0
 55129  1  0  0  0  0
 55130  1  0  0  0  0
 56 58  1  0  0  0  0
 56131  1  0  0  0  0
 56132  1  0  0  0  0
 57 59  1  0  0  0  0
 57133  1  0  0  0  0
 57134  1  0  0  0  0
 58 60  1  0  0  0  0
 58135  1  0  0  0  0
 58136  1  0  0  0  0
 59 60  1  0  0  0  0
 59137  1  0  0  0  0
 59138  1  0  0  0  0
 60139  1  0  0  0  0
 60140  1  0  0  0  0
 61 63  2  0  0  0  0
 61 65  1  0  0  0  0
 62 64  2  0  0  0  0
 62 66  1  0  0  0  0
 63 67  1  0  0  0  0
 63141  1  0  0  0  0
 64 68  1  0  0  0  0
 64142  1  0  0  0  0
 65 69  2  0  0  0  0
 65143  1  0  0  0  0
 66 70  2  0  0  0  0
 66144  1  0  0  0  0
 67 71  2  0  0  0  0
 67145  1  0  0  0  0
 68 72  2  0  0  0  0
 68146  1  0  0  0  0
 69 71  1  0  0  0  0
 69147  1  0  0  0  0
 70 72  1  0  0  0  0
 70148  1  0  0  0  0
M  END
> <PUBCHEM_COMPOUND_CID>
118709169

> <PUBCHEM_COMPOUND_CANONICALIZED>
1

> <PUBCHEM_CACTVS_COMPLEXITY>
1440

> <PUBCHEM_CACTVS_HBOND_ACCEPTOR>
10

> <PUBCHEM_CACTVS_HBOND_DONOR>
0

> <PUBCHEM_CACTVS_ROTATABLE_BOND>
33

> <PUBCHEM_CACTVS_SUBSKEYS>
AAADcfB/OYAGAAAAAAAAAAAAAAAAAAAAAAA8eMGCAAAAAAABVAAAHwIAAAAADEbBmCwwCIMABACIAqDSCAACAAAkBQAIiAEICsgIJjKBtxiGMQAmwAGIqYecyOCOhAAAAAAAAAAIAAAAAAAAAAAAAAAAAA==

> <PUBCHEM_IUPAC_OPENEYE_NAME>
bis[4-(4-chlorophenyl)-1-[4-(4-fluorophenyl)-4-oxo-butyl]-4-piperidyl] octadecanedioate

> <PUBCHEM_IUPAC_CAS_NAME>
octadecanedioic acid bis[4-(4-chlorophenyl)-1-[4-(4-fluorophenyl)-4-oxobutyl]-4-piperidinyl] ester

> <PUBCHEM_IUPAC_NAME_MARKUP>
bis[4-(4-chlorophenyl)-1-[4-(4-fluorophenyl)-4-oxobutyl]piperidin-4-yl] octadecanedioate

> <PUBCHEM_IUPAC_NAME>
bis[4-(4-chlorophenyl)-1-[4-(4-fluorophenyl)-4-oxobutyl]piperidin-4-yl] octadecanedioate

> <PUBCHEM_IUPAC_SYSTEMATIC_NAME>
bis[4-(4-chlorophenyl)-1-[4-(4-fluorophenyl)-4-oxidanylidene-butyl]piperidin-4-yl] octadecanedioate

> <PUBCHEM_IUPAC_TRADITIONAL_NAME>
octadecanedioic acid bis[4-(4-chlorophenyl)-1-[4-(4-fluorophenyl)-4-keto-butyl]-4-piperidyl] ester

> <PUBCHEM_IUPAC_INCHI>
InChI=1S/C60H76Cl2F2N2O6/c61-51-29-25-49(26-30-51)59(37-43-65(44-38-59)41-15-17-55(67)47-21-33-53(63)34-22-47)71-57(69)19-13-11-9-7-5-3-1-2-4-6-8-10-12-14-20-58(70)72-60(50-27-31-52(62)32-28-50)39-45-66(46-40-60)42-16-18-56(68)48-23-35-54(64)36-24-48/h21-36H,1-20,37-46H2

> <PUBCHEM_IUPAC_INCHIKEY>
SFQRCRYSIPJHQY-UHFFFAOYSA-N

> <PUBCHEM_XLOGP3_AA>
15.6

> <PUBCHEM_EXACT_MASS>
1028.5048499

> <PUBCHEM_MOLECULAR_FORMULA>
C60H76Cl2F2N2O6

> <PUBCHEM_MOLECULAR_WEIGHT>
1030.2

> <PUBCHEM_OPENEYE_CAN_SMILES>
C1CN(CCC1(C2=CC=C(C=C2)Cl)OC(=O)CCCCCCCCCCCCCCCCC(=O)OC3(CCN(CC3)CCCC(=O)C4=CC=C(C=C4)F)C5=CC=C(C=C5)Cl)CCCC(=O)C6=CC=C(C=C6)F

> <PUBCHEM_OPENEYE_ISO_SMILES>
C1CN(CCC1(C2=CC=C(C=C2)Cl)OC(=O)CCCCCCCCCCCCCCCCC(=O)OC3(CCN(CC3)CCCC(=O)C4=CC=C(C=C4)F)C5=CC=C(C=C5)Cl)CCCC(=O)C6=CC=C(C=C6)F

> <PUBCHEM_CACTVS_TPSA>
93.2

> <PUBCHEM_MONOISOTOPIC_WEIGHT>
1028.5048499

> <PUBCHEM_TOTAL_CHARGE>
0

> <PUBCHEM_HEAVY_ATOM_COUNT>
72

> <PUBCHEM_ATOM_DEF_STEREO_COUNT>
0

> <PUBCHEM_ATOM_UDEF_STEREO_COUNT>
0

> <PUBCHEM_BOND_DEF_STEREO_COUNT>
0

> <PUBCHEM_BOND_UDEF_STEREO_COUNT>
0

> <PUBCHEM_ISOTOPIC_ATOM_COUNT>
0

> <PUBCHEM_COMPONENT_COUNT>
1

> <PUBCHEM_CACTVS_TAUTO_COUNT>
-1

> <PUBCHEM_COORDINATE_TYPE>
1
5
255

> <PUBCHEM_BONDANNOTATIONS>
23  29  8
23  31  8
24  30  8
24  32  8
29  39  8
30  40  8
31  41  8
32  42  8
39  45  8
40  46  8
41  45  8
42  46  8
61  63  8
61  65  8
62  64  8
62  66  8
63  67  8
64  68  8
65  69  8
66  70  8
67  71  8
68  72  8
69  71  8
70  72  8

$$$$
