72737744
  -OEChem-09292322082D

 48 50  0     1  0  0  0  0  0999 V2000
    9.2942    3.6830    0.0000 F   0  0  0  0  0  0  0  0  0  0  0  0
   10.6603    3.3170    0.0000 F   0  0  0  0  0  0  0  0  0  0  0  0
   10.2942    1.9510    0.0000 F   0  0  0  0  0  0  0  0  0  0  0  0
    6.3301   -3.1830    0.0000 O   0  0  0  0  0  0  0  0  0  0  0  0
    8.9282    2.3170    0.0000 O   0  0  0  0  0  0  0  0  0  0  0  0
    8.0622   -2.1830    0.0000 N   0  0  3  0  0  0  0  0  0  0  0  0
    6.3301   -2.1830    0.0000 C   0  0  3  0  0  0  0  0  0  0  0  0
    7.1962   -1.6830    0.0000 C   0  0  0  0  0  0  0  0  0  0  0  0
    5.4641   -1.6830    0.0000 C   0  0  0  0  0  0  0  0  0  0  0  0
    8.0622   -3.1830    0.0000 C   0  0  0  0  0  0  0  0  0  0  0  0
    7.1962   -3.6830    0.0000 C   0  0  0  0  0  0  0  0  0  0  0  0
    8.9282   -1.6830    0.0000 C   0  0  0  0  0  0  0  0  0  0  0  0
    4.5981   -2.1830    0.0000 C   0  0  0  0  0  0  0  0  0  0  0  0
    8.9282   -0.6830    0.0000 C   0  0  0  0  0  0  0  0  0  0  0  0
    3.7320   -1.6830    0.0000 C   0  0  0  0  0  0  0  0  0  0  0  0
    9.7942   -0.1830    0.0000 C   0  0  0  0  0  0  0  0  0  0  0  0
    8.0622   -0.1830    0.0000 C   0  0  0  0  0  0  0  0  0  0  0  0
    3.7320   -0.6830    0.0000 C   0  0  0  0  0  0  0  0  0  0  0  0
    2.8660   -2.1830    0.0000 C   0  0  0  0  0  0  0  0  0  0  0  0
    9.7942    0.8170    0.0000 C   0  0  0  0  0  0  0  0  0  0  0  0
    8.0622    0.8170    0.0000 C   0  0  0  0  0  0  0  0  0  0  0  0
    8.9282    1.3170    0.0000 C   0  0  0  0  0  0  0  0  0  0  0  0
    2.8660   -0.1830    0.0000 C   0  0  0  0  0  0  0  0  0  0  0  0
    2.0000   -1.6830    0.0000 C   0  0  0  0  0  0  0  0  0  0  0  0
    2.0000   -0.6830    0.0000 C   0  0  0  0  0  0  0  0  0  0  0  0
    9.7942    2.8170    0.0000 C   0  0  0  0  0  0  0  0  0  0  0  0
    5.7932   -2.4930    0.0000 H   0  0  0  0  0  0  0  0  0  0  0  0
    7.5947   -1.2081    0.0000 H   0  0  0  0  0  0  0  0  0  0  0  0
    6.7976   -1.2081    0.0000 H   0  0  0  0  0  0  0  0  0  0  0  0
    5.8626   -1.2081    0.0000 H   0  0  0  0  0  0  0  0  0  0  0  0
    5.0656   -1.2081    0.0000 H   0  0  0  0  0  0  0  0  0  0  0  0
    8.2742   -3.7656    0.0000 H   0  0  0  0  0  0  0  0  0  0  0  0
    8.6728   -3.0753    0.0000 H   0  0  0  0  0  0  0  0  0  0  0  0
    6.7976   -4.1580    0.0000 H   0  0  0  0  0  0  0  0  0  0  0  0
    7.5947   -4.1580    0.0000 H   0  0  0  0  0  0  0  0  0  0  0  0
    9.1403   -2.2656    0.0000 H   0  0  0  0  0  0  0  0  0  0  0  0
    9.5388   -1.5754    0.0000 H   0  0  0  0  0  0  0  0  0  0  0  0
    4.1996   -2.6580    0.0000 H   0  0  0  0  0  0  0  0  0  0  0  0
    4.9966   -2.6580    0.0000 H   0  0  0  0  0  0  0  0  0  0  0  0
   10.3312   -0.4930    0.0000 H   0  0  0  0  0  0  0  0  0  0  0  0
    7.5252   -0.4930    0.0000 H   0  0  0  0  0  0  0  0  0  0  0  0
    4.2690   -0.3730    0.0000 H   0  0  0  0  0  0  0  0  0  0  0  0
    2.8660   -2.8030    0.0000 H   0  0  0  0  0  0  0  0  0  0  0  0
   10.3312    1.1270    0.0000 H   0  0  0  0  0  0  0  0  0  0  0  0
    7.5252    1.1270    0.0000 H   0  0  0  0  0  0  0  0  0  0  0  0
    2.8660    0.4370    0.0000 H   0  0  0  0  0  0  0  0  0  0  0  0
    1.4631   -1.9930    0.0000 H   0  0  0  0  0  0  0  0  0  0  0  0
    1.4631   -0.3730    0.0000 H   0  0  0  0  0  0  0  0  0  0  0  0
  1 26  1  0  0  0  0
  2 26  1  0  0  0  0
  3 26  1  0  0  0  0
  4  7  1  0  0  0  0
  4 11  1  0  0  0  0
  5 22  1  0  0  0  0
  5 26  1  0  0  0  0
  6  8  1  0  0  0  0
  6 10  1  0  0  0  0
  6 12  1  0  0  0  0
  7  8  1  0  0  0  0
  7  9  1  0  0  0  0
  7 27  1  0  0  0  0
  8 28  1  0  0  0  0
  8 29  1  0  0  0  0
  9 13  1  0  0  0  0
  9 30  1  0  0  0  0
  9 31  1  0  0  0  0
 10 11  1  0  0  0  0
 10 32  1  0  0  0  0
 10 33  1  0  0  0  0
 11 34  1  0  0  0  0
 11 35  1  0  0  0  0
 12 14  1  0  0  0  0
 12 36  1  0  0  0  0
 12 37  1  0  0  0  0
 13 15  1  0  0  0  0
 13 38  1  0  0  0  0
 13 39  1  0  0  0  0
 14 16  2  0  0  0  0
 14 17  1  0  0  0  0
 15 18  2  0  0  0  0
 15 19  1  0  0  0  0
 16 20  1  0  0  0  0
 16 40  1  0  0  0  0
 17 21  2  0  0  0  0
 17 41  1  0  0  0  0
 18 23  1  0  0  0  0
 18 42  1  0  0  0  0
 19 24  2  0  0  0  0
 19 43  1  0  0  0  0
 20 22  2  0  0  0  0
 20 44  1  0  0  0  0
 21 22  1  0  0  0  0
 21 45  1  0  0  0  0
 23 25  2  0  0  0  0
 23 46  1  0  0  0  0
 24 25  1  0  0  0  0
 24 47  1  0  0  0  0
 25 48  1  0  0  0  0
M  END
> <PUBCHEM_COMPOUND_CID>
72737744

> <PUBCHEM_COMPOUND_CANONICALIZED>
1

> <PUBCHEM_CACTVS_COMPLEXITY>
404

> <PUBCHEM_CACTVS_HBOND_ACCEPTOR>
6

> <PUBCHEM_CACTVS_HBOND_DONOR>
0

> <PUBCHEM_CACTVS_ROTATABLE_BOND>
6

> <PUBCHEM_CACTVS_SUBSKEYS>
AAADceB6MYAAAAAAAAAAAAAAAAAAAAAAAAA8YIAAAAAAAAABQAAAHwAAAAAADBThmBYwBoMABACAAiBCAACCCAAgIAAIiAAODIgOJiKEsRuHMChkwBGYqAeQ0KIOIAAAAAAAAABAAAAAAAAAAAAAAAAAAA==

> <PUBCHEM_IUPAC_OPENEYE_NAME>
2-(2-phenylethyl)-4-[[4-(trifluoromethoxy)phenyl]methyl]morpholine

> <PUBCHEM_IUPAC_CAS_NAME>
2-(2-phenylethyl)-4-[[4-(trifluoromethoxy)phenyl]methyl]morpholine

> <PUBCHEM_IUPAC_NAME_MARKUP>
2-(2-phenylethyl)-4-[[4-(trifluoromethoxy)phenyl]methyl]morpholine

> <PUBCHEM_IUPAC_NAME>
2-(2-phenylethyl)-4-[[4-(trifluoromethoxy)phenyl]methyl]morpholine

> <PUBCHEM_IUPAC_SYSTEMATIC_NAME>
2-(2-phenylethyl)-4-[[4-(trifluoromethyloxy)phenyl]methyl]morpholine

> <PUBCHEM_IUPAC_TRADITIONAL_NAME>
2-phenethyl-4-[4-(trifluoromethoxy)benzyl]morpholine

> <PUBCHEM_IUPAC_INCHI>
InChI=1S/C20H22F3NO2/c21-20(22,23)26-18-9-7-17(8-10-18)14-24-12-13-25-19(15-24)11-6-16-4-2-1-3-5-16/h1-5,7-10,19H,6,11-15H2

> <PUBCHEM_IUPAC_INCHIKEY>
RXEIDFSWABFHSZ-UHFFFAOYSA-N

> <PUBCHEM_XLOGP3_AA>
4.9

> <PUBCHEM_EXACT_MASS>
365.16026343

> <PUBCHEM_MOLECULAR_FORMULA>
C20H22F3NO2

> <PUBCHEM_MOLECULAR_WEIGHT>
365.4

> <PUBCHEM_OPENEYE_CAN_SMILES>
C1COC(CN1CC2=CC=C(C=C2)OC(F)(F)F)CCC3=CC=CC=C3

> <PUBCHEM_OPENEYE_ISO_SMILES>
C1COC(CN1CC2=CC=C(C=C2)OC(F)(F)F)CCC3=CC=CC=C3

> <PUBCHEM_CACTVS_TPSA>
21.7

> <PUBCHEM_MONOISOTOPIC_WEIGHT>
365.16026343

> <PUBCHEM_TOTAL_CHARGE>
0

> <PUBCHEM_HEAVY_ATOM_COUNT>
26

> <PUBCHEM_ATOM_DEF_STEREO_COUNT>
0

> <PUBCHEM_ATOM_UDEF_STEREO_COUNT>
1

> <PUBCHEM_BOND_DEF_STEREO_COUNT>
0

> <PUBCHEM_BOND_UDEF_STEREO_COUNT>
0

> <PUBCHEM_ISOTOPIC_ATOM_COUNT>
0

> <PUBCHEM_COMPONENT_COUNT>
1

> <PUBCHEM_CACTVS_TAUTO_COUNT>
-1

> <PUBCHEM_COORDINATE_TYPE>
1
5
255

> <PUBCHEM_BONDANNOTATIONS>
14  16  8
14  17  8
15  18  8
15  19  8
16  20  8
17  21  8
18  23  8
19  24  8
20  22  8
21  22  8
23  25  8
24  25  8
7  9  3

$$$$
