71724961
  -OEChem-09292322022D

 53 56  0     0  0  0  0  0  0999 V2000
    2.8660   -3.5981    0.0000 Cl  0  0  0  0  0  0  0  0  0  0  0  0
    9.7619    2.7320    0.0000 O   0  0  0  0  0  0  0  0  0  0  0  0
    6.7619   -2.4641    0.0000 O   0  0  0  0  0  0  0  0  0  0  0  0
   13.7619    2.7320    0.0000 O   0  0  0  0  0  0  0  0  0  0  0  0
    7.7619    1.0000    0.0000 N   0  0  0  0  0  0  0  0  0  0  0  0
    6.7619   -0.7321    0.0000 N   0  0  0  0  0  0  0  0  0  0  0  0
    4.6783   -2.4028    0.0000 N   0  0  0  0  0  0  0  0  0  0  0  0
    6.7619    1.0000    0.0000 C   0  0  0  0  0  0  0  0  0  0  0  0
    8.2619    0.1340    0.0000 C   0  0  0  0  0  0  0  0  0  0  0  0
    6.2619    0.1340    0.0000 C   0  0  0  0  0  0  0  0  0  0  0  0
    7.7619   -0.7321    0.0000 C   0  0  0  0  0  0  0  0  0  0  0  0
    8.2619    1.8660    0.0000 C   0  0  0  0  0  0  0  0  0  0  0  0
    6.2619   -1.5981    0.0000 C   0  0  0  0  0  0  0  0  0  0  0  0
    9.2619    1.8660    0.0000 C   0  0  0  0  0  0  0  0  0  0  0  0
    5.2619   -1.5981    0.0000 C   0  0  0  0  0  0  0  0  0  0  0  0
    4.6783   -0.7933    0.0000 C   0  0  0  0  0  0  0  0  0  0  0  0
    3.7320   -2.0981    0.0000 C   0  0  0  0  0  0  0  0  0  0  0  0
    3.7320   -1.0981    0.0000 C   0  0  0  0  0  0  0  0  0  0  0  0
    2.8660   -2.5981    0.0000 C   0  0  0  0  0  0  0  0  0  0  0  0
    2.8660   -0.5981    0.0000 C   0  0  0  0  0  0  0  0  0  0  0  0
   10.7619    2.7320    0.0000 C   0  0  0  0  0  0  0  0  0  0  0  0
    2.0000   -2.0981    0.0000 C   0  0  0  0  0  0  0  0  0  0  0  0
    2.0000   -1.0981    0.0000 C   0  0  0  0  0  0  0  0  0  0  0  0
   11.2619    1.8660    0.0000 C   0  0  0  0  0  0  0  0  0  0  0  0
   11.2619    3.5981    0.0000 C   0  0  0  0  0  0  0  0  0  0  0  0
   12.2619    1.8660    0.0000 C   0  0  0  0  0  0  0  0  0  0  0  0
   12.2619    3.5981    0.0000 C   0  0  0  0  0  0  0  0  0  0  0  0
   12.7619    2.7320    0.0000 C   0  0  0  0  0  0  0  0  0  0  0  0
   14.2619    3.5981    0.0000 C   0  0  0  0  0  0  0  0  0  0  0  0
    6.8695    1.6106    0.0000 H   0  0  0  0  0  0  0  0  0  0  0  0
    6.1793    1.2120    0.0000 H   0  0  0  0  0  0  0  0  0  0  0  0
    8.7368   -0.2646    0.0000 H   0  0  0  0  0  0  0  0  0  0  0  0
    8.7368    0.5325    0.0000 H   0  0  0  0  0  0  0  0  0  0  0  0
    5.7869    0.5325    0.0000 H   0  0  0  0  0  0  0  0  0  0  0  0
    5.7869   -0.2646    0.0000 H   0  0  0  0  0  0  0  0  0  0  0  0
    7.6542   -1.3426    0.0000 H   0  0  0  0  0  0  0  0  0  0  0  0
    8.3445   -0.9441    0.0000 H   0  0  0  0  0  0  0  0  0  0  0  0
    8.3695    2.4766    0.0000 H   0  0  0  0  0  0  0  0  0  0  0  0
    7.6793    2.0781    0.0000 H   0  0  0  0  0  0  0  0  0  0  0  0
    9.1542    1.2554    0.0000 H   0  0  0  0  0  0  0  0  0  0  0  0
    9.8445    1.6540    0.0000 H   0  0  0  0  0  0  0  0  0  0  0  0
    4.8709   -2.9921    0.0000 H   0  0  0  0  0  0  0  0  0  0  0  0
    4.8709   -0.2040    0.0000 H   0  0  0  0  0  0  0  0  0  0  0  0
    2.8660    0.0219    0.0000 H   0  0  0  0  0  0  0  0  0  0  0  0
    1.4631   -2.4081    0.0000 H   0  0  0  0  0  0  0  0  0  0  0  0
    1.4631   -0.7881    0.0000 H   0  0  0  0  0  0  0  0  0  0  0  0
   10.9519    1.3291    0.0000 H   0  0  0  0  0  0  0  0  0  0  0  0
   10.9519    4.1350    0.0000 H   0  0  0  0  0  0  0  0  0  0  0  0
   12.5719    1.3291    0.0000 H   0  0  0  0  0  0  0  0  0  0  0  0
   12.5719    4.1350    0.0000 H   0  0  0  0  0  0  0  0  0  0  0  0
   14.7988    3.2881    0.0000 H   0  0  0  0  0  0  0  0  0  0  0  0
   14.5719    4.1350    0.0000 H   0  0  0  0  0  0  0  0  0  0  0  0
   13.7249    3.9081    0.0000 H   0  0  0  0  0  0  0  0  0  0  0  0
  1 19  1  0  0  0  0
  2 14  1  0  0  0  0
  2 21  1  0  0  0  0
  3 13  2  0  0  0  0
  4 28  1  0  0  0  0
  4 29  1  0  0  0  0
  5  8  1  0  0  0  0
  5  9  1  0  0  0  0
  5 12  1  0  0  0  0
  6 10  1  0  0  0  0
  6 11  1  0  0  0  0
  6 13  1  0  0  0  0
  7 15  1  0  0  0  0
  7 17  1  0  0  0  0
  7 42  1  0  0  0  0
  8 10  1  0  0  0  0
  8 30  1  0  0  0  0
  8 31  1  0  0  0  0
  9 11  1  0  0  0  0
  9 32  1  0  0  0  0
  9 33  1  0  0  0  0
 10 34  1  0  0  0  0
 10 35  1  0  0  0  0
 11 36  1  0  0  0  0
 11 37  1  0  0  0  0
 12 14  1  0  0  0  0
 12 38  1  0  0  0  0
 12 39  1  0  0  0  0
 13 15  1  0  0  0  0
 14 40  1  0  0  0  0
 14 41  1  0  0  0  0
 15 16  2  0  0  0  0
 16 18  1  0  0  0  0
 16 43  1  0  0  0  0
 17 18  2  0  0  0  0
 17 19  1  0  0  0  0
 18 20  1  0  0  0  0
 19 22  2  0  0  0  0
 20 23  2  0  0  0  0
 20 44  1  0  0  0  0
 21 24  2  0  0  0  0
 21 25  1  0  0  0  0
 22 23  1  0  0  0  0
 22 45  1  0  0  0  0
 23 46  1  0  0  0  0
 24 26  1  0  0  0  0
 24 47  1  0  0  0  0
 25 27  2  0  0  0  0
 25 48  1  0  0  0  0
 26 28  2  0  0  0  0
 26 49  1  0  0  0  0
 27 28  1  0  0  0  0
 27 50  1  0  0  0  0
 29 51  1  0  0  0  0
 29 52  1  0  0  0  0
 29 53  1  0  0  0  0
M  END
> <PUBCHEM_COMPOUND_CID>
71724961

> <PUBCHEM_COMPOUND_CANONICALIZED>
1

> <PUBCHEM_CACTVS_COMPLEXITY>
535

> <PUBCHEM_CACTVS_HBOND_ACCEPTOR>
4

> <PUBCHEM_CACTVS_HBOND_DONOR>
1

> <PUBCHEM_CACTVS_ROTATABLE_BOND>
6

> <PUBCHEM_CACTVS_SUBSKEYS>
AAADceB7MAAEAAAAAAAAAAAAAAAAAWAAAAA8YIAAAAAAAFgB9AAAHgIQAAAADA7hniYyxvPJlACoAyVyVACCiCAnJyAImSG+btgOZvLFt7vXOSjk1hHY6YfYyYCeAQAAIAACABACAABAAAQAIAAAAAAAAA==

> <PUBCHEM_IUPAC_OPENEYE_NAME>
(7-chloro-1H-indol-2-yl)-[4-[2-(4-methoxyphenoxy)ethyl]piperazin-1-yl]methanone

> <PUBCHEM_IUPAC_CAS_NAME>
(7-chloro-1H-indol-2-yl)-[4-[2-(4-methoxyphenoxy)ethyl]-1-piperazinyl]methanone

> <PUBCHEM_IUPAC_NAME_MARKUP>
(7-chloro-1<I>H</I>-indol-2-yl)-[4-[2-(4-methoxyphenoxy)ethyl]piperazin-1-yl]methanone

> <PUBCHEM_IUPAC_NAME>
(7-chloro-1H-indol-2-yl)-[4-[2-(4-methoxyphenoxy)ethyl]piperazin-1-yl]methanone

> <PUBCHEM_IUPAC_SYSTEMATIC_NAME>
(7-chloranyl-1H-indol-2-yl)-[4-[2-(4-methoxyphenoxy)ethyl]piperazin-1-yl]methanone

> <PUBCHEM_IUPAC_TRADITIONAL_NAME>
(7-chloro-1H-indol-2-yl)-[4-[2-(4-methoxyphenoxy)ethyl]piperazino]methanone

> <PUBCHEM_IUPAC_INCHI>
InChI=1S/C22H24ClN3O3/c1-28-17-5-7-18(8-6-17)29-14-13-25-9-11-26(12-10-25)22(27)20-15-16-3-2-4-19(23)21(16)24-20/h2-8,15,24H,9-14H2,1H3

> <PUBCHEM_IUPAC_INCHIKEY>
HLGVBUMXLSDTEW-UHFFFAOYSA-N

> <PUBCHEM_XLOGP3_AA>
3.9

> <PUBCHEM_EXACT_MASS>
413.1506193

> <PUBCHEM_MOLECULAR_FORMULA>
C22H24ClN3O3

> <PUBCHEM_MOLECULAR_WEIGHT>
413.9

> <PUBCHEM_OPENEYE_CAN_SMILES>
COC1=CC=C(C=C1)OCCN2CCN(CC2)C(=O)C3=CC4=C(N3)C(=CC=C4)Cl

> <PUBCHEM_OPENEYE_ISO_SMILES>
COC1=CC=C(C=C1)OCCN2CCN(CC2)C(=O)C3=CC4=C(N3)C(=CC=C4)Cl

> <PUBCHEM_CACTVS_TPSA>
57.8

> <PUBCHEM_MONOISOTOPIC_WEIGHT>
413.1506193

> <PUBCHEM_TOTAL_CHARGE>
0

> <PUBCHEM_HEAVY_ATOM_COUNT>
29

> <PUBCHEM_ATOM_DEF_STEREO_COUNT>
0

> <PUBCHEM_ATOM_UDEF_STEREO_COUNT>
0

> <PUBCHEM_BOND_DEF_STEREO_COUNT>
0

> <PUBCHEM_BOND_UDEF_STEREO_COUNT>
0

> <PUBCHEM_ISOTOPIC_ATOM_COUNT>
0

> <PUBCHEM_COMPONENT_COUNT>
1

> <PUBCHEM_CACTVS_TAUTO_COUNT>
-1

> <PUBCHEM_COORDINATE_TYPE>
1
5
255

> <PUBCHEM_BONDANNOTATIONS>
15  16  8
16  18  8
17  18  8
17  19  8
18  20  8
19  22  8
20  23  8
21  24  8
21  25  8
22  23  8
24  26  8
25  27  8
26  28  8
27  28  8
7  15  8
7  17  8

$$$$
