71151683
  -OEChem-09292322352D

 67 71  0     0  0  0  0  0  0999 V2000
    9.2993   -7.0344    0.0000 F   0  0  0  0  0  0  0  0  0  0  0  0
    2.8660    4.0344    0.0000 O   0  0  0  0  0  0  0  0  0  0  0  0
    4.5981    4.0344    0.0000 O   0  0  0  0  0  0  0  0  0  0  0  0
    4.5981    1.0344    0.0000 N   0  0  0  0  0  0  0  0  0  0  0  0
    4.5981   -0.9656    0.0000 N   0  0  0  0  0  0  0  0  0  0  0  0
    6.4103   -3.7704    0.0000 N   0  0  0  0  0  0  0  0  0  0  0  0
    5.4641    5.5344    0.0000 N   0  0  0  0  0  0  0  0  0  0  0  0
    5.4641    0.5344    0.0000 C   0  0  0  0  0  0  0  0  0  0  0  0
    3.7320    0.5344    0.0000 C   0  0  0  0  0  0  0  0  0  0  0  0
    5.4641   -0.4656    0.0000 C   0  0  0  0  0  0  0  0  0  0  0  0
    3.7320   -0.4656    0.0000 C   0  0  0  0  0  0  0  0  0  0  0  0
    4.5981    2.0344    0.0000 C   0  0  0  0  0  0  0  0  0  0  0  0
    4.5981   -1.9656    0.0000 C   0  0  0  0  0  0  0  0  0  0  0  0
    5.4641   -2.4656    0.0000 C   0  0  0  0  0  0  0  0  0  0  0  0
    3.7320    2.5344    0.0000 C   0  0  0  0  0  0  0  0  0  0  0  0
    5.4641   -3.4656    0.0000 C   0  0  0  0  0  0  0  0  0  0  0  0
    3.7320   -2.4656    0.0000 C   0  0  0  0  0  0  0  0  0  0  0  0
    6.4103   -2.1609    0.0000 C   0  0  0  0  0  0  0  0  0  0  0  0
    3.7320    3.5344    0.0000 C   0  0  0  0  0  0  0  0  0  0  0  0
    4.5981   -3.9656    0.0000 C   0  0  0  0  0  0  0  0  0  0  0  0
    6.9939   -2.9656    0.0000 C   0  0  0  0  0  0  0  0  0  0  0  0
    3.7320   -3.4656    0.0000 C   0  0  0  0  0  0  0  0  0  0  0  0
    6.7210   -4.7209    0.0000 C   0  0  0  0  0  0  0  0  0  0  0  0
    7.6995   -4.9271    0.0000 C   0  0  0  0  0  0  0  0  0  0  0  0
    8.0102   -5.8776    0.0000 C   0  0  0  0  0  0  0  0  0  0  0  0
    8.3673   -4.1828    0.0000 C   0  0  0  0  0  0  0  0  0  0  0  0
    2.8660    5.0344    0.0000 C   0  0  0  0  0  0  0  0  0  0  0  0
    8.9887   -6.0838    0.0000 C   0  0  0  0  0  0  0  0  0  0  0  0
    9.3458   -4.3890    0.0000 C   0  0  0  0  0  0  0  0  0  0  0  0
    3.7320    5.5344    0.0000 C   0  0  0  0  0  0  0  0  0  0  0  0
    2.0000    5.5344    0.0000 C   0  0  0  0  0  0  0  0  0  0  0  0
    9.6565   -5.3395    0.0000 C   0  0  0  0  0  0  0  0  0  0  0  0
    3.7320    6.5344    0.0000 C   0  0  0  0  0  0  0  0  0  0  0  0
    2.0000    6.5344    0.0000 C   0  0  0  0  0  0  0  0  0  0  0  0
    2.8660    7.0344    0.0000 C   0  0  0  0  0  0  0  0  0  0  0  0
    4.5981    5.0344    0.0000 C   0  0  0  0  0  0  0  0  0  0  0  0
    6.0747    0.4267    0.0000 H   0  0  0  0  0  0  0  0  0  0  0  0
    5.6762    1.1170    0.0000 H   0  0  0  0  0  0  0  0  0  0  0  0
    3.5200    1.1170    0.0000 H   0  0  0  0  0  0  0  0  0  0  0  0
    3.1215    0.4267    0.0000 H   0  0  0  0  0  0  0  0  0  0  0  0
    5.6762   -1.0482    0.0000 H   0  0  0  0  0  0  0  0  0  0  0  0
    6.0747   -0.3580    0.0000 H   0  0  0  0  0  0  0  0  0  0  0  0
    3.1215   -0.3580    0.0000 H   0  0  0  0  0  0  0  0  0  0  0  0
    3.5200   -1.0482    0.0000 H   0  0  0  0  0  0  0  0  0  0  0  0
    5.2087    1.9267    0.0000 H   0  0  0  0  0  0  0  0  0  0  0  0
    4.8101    2.6170    0.0000 H   0  0  0  0  0  0  0  0  0  0  0  0
    3.1215    2.6420    0.0000 H   0  0  0  0  0  0  0  0  0  0  0  0
    3.5200    1.9518    0.0000 H   0  0  0  0  0  0  0  0  0  0  0  0
    3.1951   -2.1556    0.0000 H   0  0  0  0  0  0  0  0  0  0  0  0
    6.6029   -1.5716    0.0000 H   0  0  0  0  0  0  0  0  0  0  0  0
    4.3426    3.4267    0.0000 H   0  0  0  0  0  0  0  0  0  0  0  0
    3.9441    4.1170    0.0000 H   0  0  0  0  0  0  0  0  0  0  0  0
    4.5981   -4.5856    0.0000 H   0  0  0  0  0  0  0  0  0  0  0  0
    7.6139   -2.9656    0.0000 H   0  0  0  0  0  0  0  0  0  0  0  0
    3.1951   -3.7756    0.0000 H   0  0  0  0  0  0  0  0  0  0  0  0
    6.1072   -4.8082    0.0000 H   0  0  0  0  0  0  0  0  0  0  0  0
    6.7004   -5.3406    0.0000 H   0  0  0  0  0  0  0  0  0  0  0  0
    7.5961   -6.3391    0.0000 H   0  0  0  0  0  0  0  0  0  0  0  0
    8.1747   -3.5935    0.0000 H   0  0  0  0  0  0  0  0  0  0  0  0
    9.7599   -3.9276    0.0000 H   0  0  0  0  0  0  0  0  0  0  0  0
    1.4631    5.2244    0.0000 H   0  0  0  0  0  0  0  0  0  0  0  0
   10.2632   -5.4674    0.0000 H   0  0  0  0  0  0  0  0  0  0  0  0
    4.2690    6.8444    0.0000 H   0  0  0  0  0  0  0  0  0  0  0  0
    1.4631    6.8444    0.0000 H   0  0  0  0  0  0  0  0  0  0  0  0
    2.8660    7.6544    0.0000 H   0  0  0  0  0  0  0  0  0  0  0  0
    6.0010    5.2244    0.0000 H   0  0  0  0  0  0  0  0  0  0  0  0
    5.4641    6.1544    0.0000 H   0  0  0  0  0  0  0  0  0  0  0  0
  1 28  1  0  0  0  0
  2 19  1  0  0  0  0
  2 27  1  0  0  0  0
  3 36  2  0  0  0  0
  4  8  1  0  0  0  0
  4  9  1  0  0  0  0
  4 12  1  0  0  0  0
  5 10  1  0  0  0  0
  5 11  1  0  0  0  0
  5 13  1  0  0  0  0
  6 16  1  0  0  0  0
  6 21  1  0  0  0  0
  6 23  1  0  0  0  0
  7 36  1  0  0  0  0
  7 66  1  0  0  0  0
  7 67  1  0  0  0  0
  8 10  1  0  0  0  0
  8 37  1  0  0  0  0
  8 38  1  0  0  0  0
  9 11  1  0  0  0  0
  9 39  1  0  0  0  0
  9 40  1  0  0  0  0
 10 41  1  0  0  0  0
 10 42  1  0  0  0  0
 11 43  1  0  0  0  0
 11 44  1  0  0  0  0
 12 15  1  0  0  0  0
 12 45  1  0  0  0  0
 12 46  1  0  0  0  0
 13 14  1  0  0  0  0
 13 17  2  0  0  0  0
 14 16  2  0  0  0  0
 14 18  1  0  0  0  0
 15 19  1  0  0  0  0
 15 47  1  0  0  0  0
 15 48  1  0  0  0  0
 16 20  1  0  0  0  0
 17 22  1  0  0  0  0
 17 49  1  0  0  0  0
 18 21  2  0  0  0  0
 18 50  1  0  0  0  0
 19 51  1  0  0  0  0
 19 52  1  0  0  0  0
 20 22  2  0  0  0  0
 20 53  1  0  0  0  0
 21 54  1  0  0  0  0
 22 55  1  0  0  0  0
 23 24  1  0  0  0  0
 23 56  1  0  0  0  0
 23 57  1  0  0  0  0
 24 25  2  0  0  0  0
 24 26  1  0  0  0  0
 25 28  1  0  0  0  0
 25 58  1  0  0  0  0
 26 29  2  0  0  0  0
 26 59  1  0  0  0  0
 27 30  1  0  0  0  0
 27 31  2  0  0  0  0
 28 32  2  0  0  0  0
 29 32  1  0  0  0  0
 29 60  1  0  0  0  0
 30 33  2  0  0  0  0
 30 36  1  0  0  0  0
 31 34  1  0  0  0  0
 31 61  1  0  0  0  0
 32 62  1  0  0  0  0
 33 35  1  0  0  0  0
 33 63  1  0  0  0  0
 34 35  2  0  0  0  0
 34 64  1  0  0  0  0
 35 65  1  0  0  0  0
M  END
> <PUBCHEM_COMPOUND_CID>
71151683

> <PUBCHEM_COMPOUND_CANONICALIZED>
1

> <PUBCHEM_CACTVS_COMPLEXITY>
703

> <PUBCHEM_CACTVS_HBOND_ACCEPTOR>
5

> <PUBCHEM_CACTVS_HBOND_DONOR>
1

> <PUBCHEM_CACTVS_ROTATABLE_BOND>
9

> <PUBCHEM_CACTVS_SUBSKEYS>
AAADceB7sQAAAAAAAAAAAAAAAAAAAWAAAAA8YMEAAAAAAFgB9AAAHwAQAAAADAzhng48xvNMFACoAzV3VACCiCA1IiAI2CE+bNgMZvbE9duWPWjm4BHI6YeYyKCOAAAAAAQKAAAAAAAACBQAAAAAAAAAAA==

> <PUBCHEM_IUPAC_OPENEYE_NAME>
2-[3-[4-[1-[(3-fluorophenyl)methyl]indol-4-yl]piperazin-1-yl]propoxy]benzamide

> <PUBCHEM_IUPAC_CAS_NAME>
2-[3-[4-[1-[(3-fluorophenyl)methyl]-4-indolyl]-1-piperazinyl]propoxy]benzamide

> <PUBCHEM_IUPAC_NAME_MARKUP>
2-[3-[4-[1-[(3-fluorophenyl)methyl]indol-4-yl]piperazin-1-yl]propoxy]benzamide

> <PUBCHEM_IUPAC_NAME>
2-[3-[4-[1-[(3-fluorophenyl)methyl]indol-4-yl]piperazin-1-yl]propoxy]benzamide

> <PUBCHEM_IUPAC_SYSTEMATIC_NAME>
2-[3-[4-[1-[(3-fluorophenyl)methyl]indol-4-yl]piperazin-1-yl]propoxy]benzamide

> <PUBCHEM_IUPAC_TRADITIONAL_NAME>
2-[3-[4-[1-(3-fluorobenzyl)indol-4-yl]piperazino]propoxy]benzamide

> <PUBCHEM_IUPAC_INCHI>
InChI=1S/C29H31FN4O2/c30-23-7-3-6-22(20-23)21-34-14-12-24-26(9-4-10-27(24)34)33-17-15-32(16-18-33)13-5-19-36-28-11-2-1-8-25(28)29(31)35/h1-4,6-12,14,20H,5,13,15-19,21H2,(H2,31,35)

> <PUBCHEM_IUPAC_INCHIKEY>
VVKLFXHTLGCGNU-UHFFFAOYSA-N

> <PUBCHEM_XLOGP3_AA>
4.5

> <PUBCHEM_EXACT_MASS>
486.24310441

> <PUBCHEM_MOLECULAR_FORMULA>
C29H31FN4O2

> <PUBCHEM_MOLECULAR_WEIGHT>
486.6

> <PUBCHEM_OPENEYE_CAN_SMILES>
C1CN(CCN1CCCOC2=CC=CC=C2C(=O)N)C3=CC=CC4=C3C=CN4CC5=CC(=CC=C5)F

> <PUBCHEM_OPENEYE_ISO_SMILES>
C1CN(CCN1CCCOC2=CC=CC=C2C(=O)N)C3=CC=CC4=C3C=CN4CC5=CC(=CC=C5)F

> <PUBCHEM_CACTVS_TPSA>
63.7

> <PUBCHEM_MONOISOTOPIC_WEIGHT>
486.24310441

> <PUBCHEM_TOTAL_CHARGE>
0

> <PUBCHEM_HEAVY_ATOM_COUNT>
36

> <PUBCHEM_ATOM_DEF_STEREO_COUNT>
0

> <PUBCHEM_ATOM_UDEF_STEREO_COUNT>
0

> <PUBCHEM_BOND_DEF_STEREO_COUNT>
0

> <PUBCHEM_BOND_UDEF_STEREO_COUNT>
0

> <PUBCHEM_ISOTOPIC_ATOM_COUNT>
0

> <PUBCHEM_COMPONENT_COUNT>
1

> <PUBCHEM_CACTVS_TAUTO_COUNT>
-1

> <PUBCHEM_COORDINATE_TYPE>
1
5
255

> <PUBCHEM_BONDANNOTATIONS>
13  14  8
13  17  8
14  16  8
14  18  8
16  20  8
17  22  8
18  21  8
20  22  8
24  25  8
24  26  8
25  28  8
26  29  8
27  30  8
27  31  8
28  32  8
29  32  8
30  33  8
31  34  8
33  35  8
34  35  8
6  16  8
6  21  8

$$$$
