76322158
  -OEChem-09292321592D

110117  0     1  0  0  0  0  0999 V2000
   22.9194    1.2354    0.0000 O   0  0  0  0  0  0  0  0  0  0  0  0
    6.3637   -1.2354    0.0000 O   0  0  0  0  0  0  0  0  0  0  0  0
   21.1377    0.2250    0.0000 O   0  0  0  0  0  0  0  0  0  0  0  0
    8.1455   -0.2250    0.0000 O   0  0  0  0  0  0  0  0  0  0  0  0
   16.8018   -1.2583    0.0000 O   0  0  0  0  0  0  0  0  0  0  0  0
   12.4813    1.2583    0.0000 O   0  0  0  0  0  0  0  0  0  0  0  0
   26.3920   -1.7961    0.0000 N   0  0  3  0  0  0  0  0  0  0  0  0
    2.8911    1.7961    0.0000 N   0  0  3  0  0  0  0  0  0  0  0  0
   17.6736    0.2383    0.0000 N   0  0  0  0  0  0  0  0  0  0  0  0
   11.6095   -0.2383    0.0000 N   0  0  0  0  0  0  0  0  0  0  0  0
   25.5338   -1.2992    0.0000 C   0  0  1  0  0  0  0  0  0  0  0  0
    3.7493    1.2992    0.0000 C   0  0  1  0  0  0  0  0  0  0  0  0
   25.5338   -0.2992    0.0000 C   0  0  0  0  0  0  0  0  0  0  0  0
    3.7493    0.2992    0.0000 C   0  0  0  0  0  0  0  0  0  0  0  0
   24.6678   -1.7992    0.0000 C   0  0  0  0  0  0  0  0  0  0  0  0
    4.6153    1.7992    0.0000 C   0  0  0  0  0  0  0  0  0  0  0  0
   26.4438    0.2077    0.0000 C   0  0  0  0  0  0  0  0  0  0  0  0
    2.8393   -0.2077    0.0000 C   0  0  0  0  0  0  0  0  0  0  0  0
   27.2575   -1.3119    0.0000 C   0  0  0  0  0  0  0  0  0  0  0  0
    2.0256    1.3119    0.0000 C   0  0  0  0  0  0  0  0  0  0  0  0
   27.2831   -0.3206    0.0000 C   0  0  0  0  0  0  0  0  0  0  0  0
    2.0000    0.3206    0.0000 C   0  0  0  0  0  0  0  0  0  0  0  0
   24.6678    0.2008    0.0000 C   0  0  0  0  0  0  0  0  0  0  0  0
    4.6153   -0.2008    0.0000 C   0  0  0  0  0  0  0  0  0  0  0  0
   23.8018   -1.2992    0.0000 C   0  0  0  0  0  0  0  0  0  0  0  0
    5.4814    1.2992    0.0000 C   0  0  0  0  0  0  0  0  0  0  0  0
   23.8018   -0.2992    0.0000 C   0  0  0  0  0  0  0  0  0  0  0  0
    5.4814    0.2992    0.0000 C   0  0  0  0  0  0  0  0  0  0  0  0
   26.3846   -2.7961    0.0000 C   0  0  0  0  0  0  0  0  0  0  0  0
    2.8985    2.7961    0.0000 C   0  0  0  0  0  0  0  0  0  0  0  0
   26.4519    1.2493    0.0000 C   0  0  0  0  0  0  0  0  0  0  0  0
    2.8313   -1.2493    0.0000 C   0  0  0  0  0  0  0  0  0  0  0  0
   24.6517    1.2423    0.0000 C   0  0  0  0  0  0  0  0  0  0  0  0
    4.6314   -1.2423    0.0000 C   0  0  0  0  0  0  0  0  0  0  0  0
   22.9078    0.2355    0.0000 C   0  0  0  0  0  0  0  0  0  0  0  0
    6.3753   -0.2355    0.0000 C   0  0  0  0  0  0  0  0  0  0  0  0
   22.9078   -1.8338    0.0000 C   0  0  0  0  0  0  0  0  0  0  0  0
    6.3753    1.8338    0.0000 C   0  0  0  0  0  0  0  0  0  0  0  0
   25.5498    1.7701    0.0000 C   0  0  0  0  0  0  0  0  0  0  0  0
    3.7334   -1.7701    0.0000 C   0  0  0  0  0  0  0  0  0  0  0  0
   22.0018   -0.2784    0.0000 C   0  0  0  0  0  0  0  0  0  0  0  0
    7.2814    0.2784    0.0000 C   0  0  0  0  0  0  0  0  0  0  0  0
   22.0018   -1.3200    0.0000 C   0  0  0  0  0  0  0  0  0  0  0  0
    7.2814    1.3200    0.0000 C   0  0  0  0  0  0  0  0  0  0  0  0
   20.2697   -0.2717    0.0000 C   0  0  0  0  0  0  0  0  0  0  0  0
    9.0134    0.2717    0.0000 C   0  0  0  0  0  0  0  0  0  0  0  0
   19.4056    0.2316    0.0000 C   0  0  0  0  0  0  0  0  0  0  0  0
    9.8775   -0.2316    0.0000 C   0  0  0  0  0  0  0  0  0  0  0  0
   18.5377   -0.2650    0.0000 C   0  0  0  0  0  0  0  0  0  0  0  0
   10.7455    0.2650    0.0000 C   0  0  0  0  0  0  0  0  0  0  0  0
   15.0736   -0.2517    0.0000 C   0  0  0  0  0  0  0  0  0  0  0  0
   14.2095    0.2517    0.0000 C   0  0  0  0  0  0  0  0  0  0  0  0
   15.9416    0.2450    0.0000 C   0  0  0  0  0  0  0  0  0  0  0  0
   13.3416   -0.2450    0.0000 C   0  0  0  0  0  0  0  0  0  0  0  0
   16.8057   -0.2583    0.0000 C   0  0  0  0  0  0  0  0  0  0  0  0
   12.4775    0.2583    0.0000 C   0  0  0  0  0  0  0  0  0  0  0  0
   25.5333   -2.1492    0.0000 H   0  0  0  0  0  0  0  0  0  0  0  0
    3.7498    2.1492    0.0000 H   0  0  0  0  0  0  0  0  0  0  0  0
   24.2693   -2.2741    0.0000 H   0  0  0  0  0  0  0  0  0  0  0  0
   25.0663   -2.2741    0.0000 H   0  0  0  0  0  0  0  0  0  0  0  0
    5.0139    2.2741    0.0000 H   0  0  0  0  0  0  0  0  0  0  0  0
    4.2168    2.2741    0.0000 H   0  0  0  0  0  0  0  0  0  0  0  0
   27.4593   -1.8982    0.0000 H   0  0  0  0  0  0  0  0  0  0  0  0
   27.8703   -1.2176    0.0000 H   0  0  0  0  0  0  0  0  0  0  0  0
    1.8239    1.8982    0.0000 H   0  0  0  0  0  0  0  0  0  0  0  0
    1.4128    1.2176    0.0000 H   0  0  0  0  0  0  0  0  0  0  0  0
   27.8902   -0.4465    0.0000 H   0  0  0  0  0  0  0  0  0  0  0  0
   27.5149    0.2545    0.0000 H   0  0  0  0  0  0  0  0  0  0  0  0
    1.3929    0.4465    0.0000 H   0  0  0  0  0  0  0  0  0  0  0  0
    1.7682   -0.2545    0.0000 H   0  0  0  0  0  0  0  0  0  0  0  0
   25.7647   -2.7915    0.0000 H   0  0  0  0  0  0  0  0  0  0  0  0
   26.3801   -3.4161    0.0000 H   0  0  0  0  0  0  0  0  0  0  0  0
   27.0046   -2.8007    0.0000 H   0  0  0  0  0  0  0  0  0  0  0  0
    3.5185    2.7915    0.0000 H   0  0  0  0  0  0  0  0  0  0  0  0
    2.9031    3.4161    0.0000 H   0  0  0  0  0  0  0  0  0  0  0  0
    2.2785    2.8007    0.0000 H   0  0  0  0  0  0  0  0  0  0  0  0
   26.9900    1.5572    0.0000 H   0  0  0  0  0  0  0  0  0  0  0  0
    2.2932   -1.5572    0.0000 H   0  0  0  0  0  0  0  0  0  0  0  0
   24.1113    1.5461    0.0000 H   0  0  0  0  0  0  0  0  0  0  0  0
    5.1719   -1.5461    0.0000 H   0  0  0  0  0  0  0  0  0  0  0  0
   22.9150   -2.4538    0.0000 H   0  0  0  0  0  0  0  0  0  0  0  0
    6.3681    2.4538    0.0000 H   0  0  0  0  0  0  0  0  0  0  0  0
   25.5474    2.3901    0.0000 H   0  0  0  0  0  0  0  0  0  0  0  0
    3.7358   -2.3901    0.0000 H   0  0  0  0  0  0  0  0  0  0  0  0
   21.4660   -1.6321    0.0000 H   0  0  0  0  0  0  0  0  0  0  0  0
    7.8171    1.6321    0.0000 H   0  0  0  0  0  0  0  0  0  0  0  0
   22.3861    1.5516    0.0000 H   0  0  0  0  0  0  0  0  0  0  0  0
    6.8971   -1.5516    0.0000 H   0  0  0  0  0  0  0  0  0  0  0  0
   19.8694   -0.7451    0.0000 H   0  0  0  0  0  0  0  0  0  0  0  0
   20.6664   -0.7482    0.0000 H   0  0  0  0  0  0  0  0  0  0  0  0
    9.4138    0.7451    0.0000 H   0  0  0  0  0  0  0  0  0  0  0  0
    8.6167    0.7482    0.0000 H   0  0  0  0  0  0  0  0  0  0  0  0
   19.8060    0.7050    0.0000 H   0  0  0  0  0  0  0  0  0  0  0  0
   19.0089    0.7081    0.0000 H   0  0  0  0  0  0  0  0  0  0  0  0
    9.4772   -0.7050    0.0000 H   0  0  0  0  0  0  0  0  0  0  0  0
   10.2742   -0.7081    0.0000 H   0  0  0  0  0  0  0  0  0  0  0  0
   18.1373   -0.7384    0.0000 H   0  0  0  0  0  0  0  0  0  0  0  0
   18.9344   -0.7415    0.0000 H   0  0  0  0  0  0  0  0  0  0  0  0
   11.1458    0.7384    0.0000 H   0  0  0  0  0  0  0  0  0  0  0  0
   10.3488    0.7415    0.0000 H   0  0  0  0  0  0  0  0  0  0  0  0
   17.6760    0.8583    0.0000 H   0  0  0  0  0  0  0  0  0  0  0  0
   11.6072   -0.8583    0.0000 H   0  0  0  0  0  0  0  0  0  0  0  0
   14.6733   -0.7251    0.0000 H   0  0  0  0  0  0  0  0  0  0  0  0
   15.4703   -0.7281    0.0000 H   0  0  0  0  0  0  0  0  0  0  0  0
   14.6099    0.7251    0.0000 H   0  0  0  0  0  0  0  0  0  0  0  0
   13.8128    0.7281    0.0000 H   0  0  0  0  0  0  0  0  0  0  0  0
   16.3419    0.7184    0.0000 H   0  0  0  0  0  0  0  0  0  0  0  0
   15.5449    0.7215    0.0000 H   0  0  0  0  0  0  0  0  0  0  0  0
   12.9412   -0.7184    0.0000 H   0  0  0  0  0  0  0  0  0  0  0  0
   13.7383   -0.7215    0.0000 H   0  0  0  0  0  0  0  0  0  0  0  0
  1 35  1  0  0  0  0
  1 87  1  0  0  0  0
  2 36  1  0  0  0  0
  2 88  1  0  0  0  0
  3 41  1  0  0  0  0
  3 45  1  0  0  0  0
  4 42  1  0  0  0  0
  4 46  1  0  0  0  0
  5 55  2  0  0  0  0
  6 56  2  0  0  0  0
  7 11  1  0  0  0  0
  7 19  1  0  0  0  0
  7 29  1  0  0  0  0
  8 12  1  0  0  0  0
  8 20  1  0  0  0  0
  8 30  1  0  0  0  0
  9 49  1  0  0  0  0
  9 55  1  0  0  0  0
  9101  1  0  0  0  0
 10 50  1  0  0  0  0
 10 56  1  0  0  0  0
 10102  1  0  0  0  0
 11 13  1  0  0  0  0
 11 15  1  0  0  0  0
 11 57  1  1  0  0  0
 12 14  1  0  0  0  0
 12 16  1  0  0  0  0
 12 58  1  1  0  0  0
 13 17  2  0  0  0  0
 13 23  1  0  0  0  0
 14 18  2  0  0  0  0
 14 24  1  0  0  0  0
 15 25  1  0  0  0  0
 15 59  1  0  0  0  0
 15 60  1  0  0  0  0
 16 26  1  0  0  0  0
 16 61  1  0  0  0  0
 16 62  1  0  0  0  0
 17 21  1  0  0  0  0
 17 31  1  0  0  0  0
 18 22  1  0  0  0  0
 18 32  1  0  0  0  0
 19 21  1  0  0  0  0
 19 63  1  0  0  0  0
 19 64  1  0  0  0  0
 20 22  1  0  0  0  0
 20 65  1  0  0  0  0
 20 66  1  0  0  0  0
 21 67  1  0  0  0  0
 21 68  1  0  0  0  0
 22 69  1  0  0  0  0
 22 70  1  0  0  0  0
 23 27  1  0  0  0  0
 23 33  2  0  0  0  0
 24 28  1  0  0  0  0
 24 34  2  0  0  0  0
 25 27  2  0  0  0  0
 25 37  1  0  0  0  0
 26 28  2  0  0  0  0
 26 38  1  0  0  0  0
 27 35  1  0  0  0  0
 28 36  1  0  0  0  0
 29 71  1  0  0  0  0
 29 72  1  0  0  0  0
 29 73  1  0  0  0  0
 30 74  1  0  0  0  0
 30 75  1  0  0  0  0
 30 76  1  0  0  0  0
 31 39  2  0  0  0  0
 31 77  1  0  0  0  0
 32 40  2  0  0  0  0
 32 78  1  0  0  0  0
 33 39  1  0  0  0  0
 33 79  1  0  0  0  0
 34 40  1  0  0  0  0
 34 80  1  0  0  0  0
 35 41  2  0  0  0  0
 36 42  2  0  0  0  0
 37 43  2  0  0  0  0
 37 81  1  0  0  0  0
 38 44  2  0  0  0  0
 38 82  1  0  0  0  0
 39 83  1  0  0  0  0
 40 84  1  0  0  0  0
 41 43  1  0  0  0  0
 42 44  1  0  0  0  0
 43 85  1  0  0  0  0
 44 86  1  0  0  0  0
 45 47  1  0  0  0  0
 45 89  1  0  0  0  0
 45 90  1  0  0  0  0
 46 48  1  0  0  0  0
 46 91  1  0  0  0  0
 46 92  1  0  0  0  0
 47 49  1  0  0  0  0
 47 93  1  0  0  0  0
 47 94  1  0  0  0  0
 48 50  1  0  0  0  0
 48 95  1  0  0  0  0
 48 96  1  0  0  0  0
 49 97  1  0  0  0  0
 49 98  1  0  0  0  0
 50 99  1  0  0  0  0
 50100  1  0  0  0  0
 51 52  1  0  0  0  0
 51 53  1  0  0  0  0
 51103  1  0  0  0  0
 51104  1  0  0  0  0
 52 54  1  0  0  0  0
 52105  1  0  0  0  0
 52106  1  0  0  0  0
 53 55  1  0  0  0  0
 53107  1  0  0  0  0
 53108  1  0  0  0  0
 54 56  1  0  0  0  0
 54109  1  0  0  0  0
 54110  1  0  0  0  0
M  END
> <PUBCHEM_COMPOUND_CID>
76322158

> <PUBCHEM_COMPOUND_CANONICALIZED>
1

> <PUBCHEM_CACTVS_COMPLEXITY>
1210

> <PUBCHEM_CACTVS_HBOND_ACCEPTOR>
8

> <PUBCHEM_CACTVS_HBOND_DONOR>
4

> <PUBCHEM_CACTVS_ROTATABLE_BOND>
15

> <PUBCHEM_CACTVS_SUBSKEYS>
AAADcfB/uAAAAAAAAAAAAAAAAAAAAAAAAAA8eMGDAAAAAADxVAAAHgAQCAAADCzhmAYyBoPABgCIAiFSEACCCAAgIAAIiIEOjIgNJjKGsRuGeCvm1hGLuAeY2PMOoAADAAAYQADQAAaAADSAAAAAAAAAAA==

> <PUBCHEM_IUPAC_OPENEYE_NAME>
N,N'-bis[3-[[(6aR)-11-hydroxy-6-methyl-5,6,6a,7-tetrahydro-4H-dibenzo[de,g]quinolin-10-yl]oxy]propyl]hexanediamide

> <PUBCHEM_IUPAC_CAS_NAME>
N,N'-bis[3-[[(6aR)-11-hydroxy-6-methyl-5,6,6a,7-tetrahydro-4H-dibenzo[de,g]quinolin-10-yl]oxy]propyl]hexanediamide

> <PUBCHEM_IUPAC_NAME_MARKUP>
<I>N</I>,<I>N</I>&apos;-bis[3-[[(6<I>a</I><I>R</I>)-11-hydroxy-6-methyl-5,6,6<I>a</I>,7-tetrahydro-4<I>H</I>-dibenzo[de,g]quinolin-10-yl]oxy]propyl]hexanediamide

> <PUBCHEM_IUPAC_NAME>
N,N'-bis[3-[[(6aR)-11-hydroxy-6-methyl-5,6,6a,7-tetrahydro-4H-dibenzo[de,g]quinolin-10-yl]oxy]propyl]hexanediamide

> <PUBCHEM_IUPAC_SYSTEMATIC_NAME>
N,N'-bis[3-[[(6aR)-6-methyl-11-oxidanyl-5,6,6a,7-tetrahydro-4H-dibenzo[de,g]quinolin-10-yl]oxy]propyl]hexanediamide

> <PUBCHEM_IUPAC_TRADITIONAL_NAME>
N,N'-bis[3-[[(6aR)-11-hydroxy-6-methyl-5,6,6a,7-tetrahydro-4H-dibenzo[de,g]quinolin-10-yl]oxy]propyl]adipamide

> <PUBCHEM_IUPAC_INCHI>
InChI=1S/C46H54N4O6/c1-49-23-19-29-9-5-11-33-41(29)35(49)27-31-15-17-37(45(53)43(31)33)55-25-7-21-47-39(51)13-3-4-14-40(52)48-22-8-26-56-38-18-16-32-28-36-42-30(20-24-50(36)2)10-6-12-34(42)44(32)46(38)54/h5-6,9-12,15-18,35-36,53-54H,3-4,7-8,13-14,19-28H2,1-2H3,(H,47,51)(H,48,52)/t35-,36-/m1/s1

> <PUBCHEM_IUPAC_INCHIKEY>
YROMNPOPNCSEGR-LQFQNGICSA-N

> <PUBCHEM_XLOGP3_AA>
5.9

> <PUBCHEM_EXACT_MASS>
758.40433546

> <PUBCHEM_MOLECULAR_FORMULA>
C46H54N4O6

> <PUBCHEM_MOLECULAR_WEIGHT>
758.9

> <PUBCHEM_OPENEYE_CAN_SMILES>
CN1CCC2=C3C1CC4=C(C3=CC=C2)C(=C(C=C4)OCCCNC(=O)CCCCC(=O)NCCCOC5=C(C6=C(CC7C8=C(CCN7C)C=CC=C86)C=C5)O)O

> <PUBCHEM_OPENEYE_ISO_SMILES>
CN1CCC2=C3[C@H]1CC4=C(C3=CC=C2)C(=C(C=C4)OCCCNC(=O)CCCCC(=O)NCCCOC5=C(C6=C(C[C@@H]7C8=C(CCN7C)C=CC=C86)C=C5)O)O

> <PUBCHEM_CACTVS_TPSA>
124

> <PUBCHEM_MONOISOTOPIC_WEIGHT>
758.40433546

> <PUBCHEM_TOTAL_CHARGE>
0

> <PUBCHEM_HEAVY_ATOM_COUNT>
56

> <PUBCHEM_ATOM_DEF_STEREO_COUNT>
2

> <PUBCHEM_ATOM_UDEF_STEREO_COUNT>
0

> <PUBCHEM_BOND_DEF_STEREO_COUNT>
0

> <PUBCHEM_BOND_UDEF_STEREO_COUNT>
0

> <PUBCHEM_ISOTOPIC_ATOM_COUNT>
0

> <PUBCHEM_COMPONENT_COUNT>
1

> <PUBCHEM_CACTVS_TAUTO_COUNT>
-1

> <PUBCHEM_COORDINATE_TYPE>
1
5
255

> <PUBCHEM_BONDANNOTATIONS>
11  57  5
12  58  5
13  17  8
13  23  8
14  18  8
14  24  8
17  31  8
18  32  8
23  33  8
24  34  8
25  27  8
25  37  8
26  28  8
26  38  8
27  35  8
28  36  8
31  39  8
32  40  8
33  39  8
34  40  8
35  41  8
36  42  8
37  43  8
38  44  8
41  43  8
42  44  8

$$$$
