10074155
  -OEChem-09292322202D

 69 73  0     0  0  0  0  0  0999 V2000
   15.2619   -1.1300    0.0000 S   0  0  0  0  0  0  0  0  0  0  0  0
    9.2619    2.3341    0.0000 O   0  0  0  0  0  0  0  0  0  0  0  0
   12.2619    0.6020    0.0000 N   0  0  0  0  0  0  0  0  0  0  0  0
   14.2619    0.6020    0.0000 N   0  0  0  0  0  0  0  0  0  0  0  0
    4.6783    3.1388    0.0000 N   0  0  0  0  0  0  0  0  0  0  0  0
    4.6783    1.5293    0.0000 N   0  0  0  0  0  0  0  0  0  0  0  0
   12.7619   -0.2640    0.0000 C   0  0  0  0  0  0  0  0  0  0  0  0
   12.7619    1.4680    0.0000 C   0  0  0  0  0  0  0  0  0  0  0  0
   13.7619   -0.2640    0.0000 C   0  0  0  0  0  0  0  0  0  0  0  0
   13.7619    1.4680    0.0000 C   0  0  0  0  0  0  0  0  0  0  0  0
   11.2619    0.6020    0.0000 C   0  0  0  0  0  0  0  0  0  0  0  0
   10.7619    1.4680    0.0000 C   0  0  0  0  0  0  0  0  0  0  0  0
   15.2619    0.6020    0.0000 C   0  0  0  0  0  0  0  0  0  0  0  0
    9.7619    1.4680    0.0000 C   0  0  0  0  0  0  0  0  0  0  0  0
   15.7619   -0.2640    0.0000 C   0  0  0  0  0  0  0  0  0  0  0  0
   15.7619    1.4680    0.0000 C   0  0  0  0  0  0  0  0  0  0  0  0
   16.7619   -0.2640    0.0000 C   0  0  0  0  0  0  0  0  0  0  0  0
   16.7619    1.4680    0.0000 C   0  0  0  0  0  0  0  0  0  0  0  0
   17.2619    0.6020    0.0000 C   0  0  0  0  0  0  0  0  0  0  0  0
   15.7619   -1.9961    0.0000 C   0  0  0  0  0  0  0  0  0  0  0  0
    8.2619    2.3341    0.0000 C   0  0  0  0  0  0  0  0  0  0  0  0
   15.2619   -2.8621    0.0000 C   0  0  0  0  0  0  0  0  0  0  0  0
    7.7619    3.2001    0.0000 C   0  0  0  0  0  0  0  0  0  0  0  0
    7.7619    1.4680    0.0000 C   0  0  0  0  0  0  0  0  0  0  0  0
    6.2619    2.3341    0.0000 C   0  0  0  0  0  0  0  0  0  0  0  0
    6.7619    3.2001    0.0000 C   0  0  0  0  0  0  0  0  0  0  0  0
    6.7619    1.4680    0.0000 C   0  0  0  0  0  0  0  0  0  0  0  0
    5.2619    2.3341    0.0000 C   0  0  0  0  0  0  0  0  0  0  0  0
   15.7619   -3.7281    0.0000 C   0  0  0  0  0  0  0  0  0  0  0  0
    3.7320    2.8341    0.0000 C   0  0  0  0  0  0  0  0  0  0  0  0
    3.7320    1.8341    0.0000 C   0  0  0  0  0  0  0  0  0  0  0  0
    2.8660    3.3341    0.0000 C   0  0  0  0  0  0  0  0  0  0  0  0
    2.8660    1.3341    0.0000 C   0  0  0  0  0  0  0  0  0  0  0  0
    2.0000    2.8341    0.0000 C   0  0  0  0  0  0  0  0  0  0  0  0
    2.0000    1.8341    0.0000 C   0  0  0  0  0  0  0  0  0  0  0  0
   12.1793   -0.4761    0.0000 H   0  0  0  0  0  0  0  0  0  0  0  0
   12.8695   -0.8746    0.0000 H   0  0  0  0  0  0  0  0  0  0  0  0
   12.8695    2.0786    0.0000 H   0  0  0  0  0  0  0  0  0  0  0  0
   12.1793    1.6801    0.0000 H   0  0  0  0  0  0  0  0  0  0  0  0
   13.6542   -0.8746    0.0000 H   0  0  0  0  0  0  0  0  0  0  0  0
   14.3445   -0.4761    0.0000 H   0  0  0  0  0  0  0  0  0  0  0  0
   14.3445    1.6801    0.0000 H   0  0  0  0  0  0  0  0  0  0  0  0
   13.6542    2.0786    0.0000 H   0  0  0  0  0  0  0  0  0  0  0  0
   10.6793    0.3900    0.0000 H   0  0  0  0  0  0  0  0  0  0  0  0
   11.3695   -0.0086    0.0000 H   0  0  0  0  0  0  0  0  0  0  0  0
   11.3445    1.6801    0.0000 H   0  0  0  0  0  0  0  0  0  0  0  0
   10.6542    2.0786    0.0000 H   0  0  0  0  0  0  0  0  0  0  0  0
    9.1793    1.2560    0.0000 H   0  0  0  0  0  0  0  0  0  0  0  0
    9.8695    0.8575    0.0000 H   0  0  0  0  0  0  0  0  0  0  0  0
   15.4519    2.0050    0.0000 H   0  0  0  0  0  0  0  0  0  0  0  0
   17.0719   -0.8010    0.0000 H   0  0  0  0  0  0  0  0  0  0  0  0
   17.0719    2.0050    0.0000 H   0  0  0  0  0  0  0  0  0  0  0  0
   17.8819    0.6020    0.0000 H   0  0  0  0  0  0  0  0  0  0  0  0
   16.2368   -2.3946    0.0000 H   0  0  0  0  0  0  0  0  0  0  0  0
   16.2368   -1.5975    0.0000 H   0  0  0  0  0  0  0  0  0  0  0  0
   14.7869   -2.4636    0.0000 H   0  0  0  0  0  0  0  0  0  0  0  0
   14.7869   -3.2606    0.0000 H   0  0  0  0  0  0  0  0  0  0  0  0
    8.0719    3.7370    0.0000 H   0  0  0  0  0  0  0  0  0  0  0  0
    8.0719    0.9311    0.0000 H   0  0  0  0  0  0  0  0  0  0  0  0
    6.4519    3.7370    0.0000 H   0  0  0  0  0  0  0  0  0  0  0  0
    6.4519    0.9311    0.0000 H   0  0  0  0  0  0  0  0  0  0  0  0
   15.2249   -4.0381    0.0000 H   0  0  0  0  0  0  0  0  0  0  0  0
   16.0719   -4.2650    0.0000 H   0  0  0  0  0  0  0  0  0  0  0  0
   16.2988   -3.4181    0.0000 H   0  0  0  0  0  0  0  0  0  0  0  0
    4.8709    3.7281    0.0000 H   0  0  0  0  0  0  0  0  0  0  0  0
    2.8660    3.9541    0.0000 H   0  0  0  0  0  0  0  0  0  0  0  0
    2.8660    0.7141    0.0000 H   0  0  0  0  0  0  0  0  0  0  0  0
    1.4631    3.1441    0.0000 H   0  0  0  0  0  0  0  0  0  0  0  0
    1.4631    1.5241    0.0000 H   0  0  0  0  0  0  0  0  0  0  0  0
  1 15  1  0  0  0  0
  1 20  1  0  0  0  0
  2 14  1  0  0  0  0
  2 21  1  0  0  0  0
  3  7  1  0  0  0  0
  3  8  1  0  0  0  0
  3 11  1  0  0  0  0
  4  9  1  0  0  0  0
  4 10  1  0  0  0  0
  4 13  1  0  0  0  0
  5 28  1  0  0  0  0
  5 30  1  0  0  0  0
  5 65  1  0  0  0  0
  6 28  2  0  0  0  0
  6 31  1  0  0  0  0
  7  9  1  0  0  0  0
  7 36  1  0  0  0  0
  7 37  1  0  0  0  0
  8 10  1  0  0  0  0
  8 38  1  0  0  0  0
  8 39  1  0  0  0  0
  9 40  1  0  0  0  0
  9 41  1  0  0  0  0
 10 42  1  0  0  0  0
 10 43  1  0  0  0  0
 11 12  1  0  0  0  0
 11 44  1  0  0  0  0
 11 45  1  0  0  0  0
 12 14  1  0  0  0  0
 12 46  1  0  0  0  0
 12 47  1  0  0  0  0
 13 15  1  0  0  0  0
 13 16  2  0  0  0  0
 14 48  1  0  0  0  0
 14 49  1  0  0  0  0
 15 17  2  0  0  0  0
 16 18  1  0  0  0  0
 16 50  1  0  0  0  0
 17 19  1  0  0  0  0
 17 51  1  0  0  0  0
 18 19  2  0  0  0  0
 18 52  1  0  0  0  0
 19 53  1  0  0  0  0
 20 22  1  0  0  0  0
 20 54  1  0  0  0  0
 20 55  1  0  0  0  0
 21 23  2  0  0  0  0
 21 24  1  0  0  0  0
 22 29  1  0  0  0  0
 22 56  1  0  0  0  0
 22 57  1  0  0  0  0
 23 26  1  0  0  0  0
 23 58  1  0  0  0  0
 24 27  2  0  0  0  0
 24 59  1  0  0  0  0
 25 26  2  0  0  0  0
 25 27  1  0  0  0  0
 25 28  1  0  0  0  0
 26 60  1  0  0  0  0
 27 61  1  0  0  0  0
 29 62  1  0  0  0  0
 29 63  1  0  0  0  0
 29 64  1  0  0  0  0
 30 31  1  0  0  0  0
 30 32  2  0  0  0  0
 31 33  2  0  0  0  0
 32 34  1  0  0  0  0
 32 66  1  0  0  0  0
 33 35  1  0  0  0  0
 33 67  1  0  0  0  0
 34 35  2  0  0  0  0
 34 68  1  0  0  0  0
 35 69  1  0  0  0  0
M  END
> <PUBCHEM_COMPOUND_CID>
10074155

> <PUBCHEM_COMPOUND_CANONICALIZED>
1

> <PUBCHEM_CACTVS_COMPLEXITY>
608

> <PUBCHEM_CACTVS_HBOND_ACCEPTOR>
5

> <PUBCHEM_CACTVS_HBOND_DONOR>
1

> <PUBCHEM_CACTVS_ROTATABLE_BOND>
10

> <PUBCHEM_CACTVS_SUBSKEYS>
AAADcfB7oABAAAAAAAAAAAAAAAAAAWAAAAA8YMEAAAAAAFgB9AAAHgQQAAAADAzl3waz17fJlAigAyZiZACCiC2hOrAJmTw+fJiMbqLkuZuWOCju0BPo6CeQ0AIOIAAAAAAAASBAAAAAAAACQAAAAAAAAA==

> <PUBCHEM_IUPAC_OPENEYE_NAME>
2-[4-[3-[4-(2-propylsulfanylphenyl)piperazin-1-yl]propoxy]phenyl]-1H-benzimidazole

> <PUBCHEM_IUPAC_CAS_NAME>
2-[4-[3-[4-[2-(propylthio)phenyl]-1-piperazinyl]propoxy]phenyl]-1H-benzimidazole

> <PUBCHEM_IUPAC_NAME_MARKUP>
2-[4-[3-[4-(2-propylsulfanylphenyl)piperazin-1-yl]propoxy]phenyl]-1<I>H</I>-benzimidazole

> <PUBCHEM_IUPAC_NAME>
2-[4-[3-[4-(2-propylsulfanylphenyl)piperazin-1-yl]propoxy]phenyl]-1H-benzimidazole

> <PUBCHEM_IUPAC_SYSTEMATIC_NAME>
2-[4-[3-[4-(2-propylsulfanylphenyl)piperazin-1-yl]propoxy]phenyl]-1H-benzimidazole

> <PUBCHEM_IUPAC_TRADITIONAL_NAME>
2-[4-[3-[4-[2-(propylthio)phenyl]piperazino]propoxy]phenyl]-1H-benzimidazole

> <PUBCHEM_IUPAC_INCHI>
InChI=1S/C29H34N4OS/c1-2-22-35-28-11-6-5-10-27(28)33-19-17-32(18-20-33)16-7-21-34-24-14-12-23(13-15-24)29-30-25-8-3-4-9-26(25)31-29/h3-6,8-15H,2,7,16-22H2,1H3,(H,30,31)

> <PUBCHEM_IUPAC_INCHIKEY>
YEBWFZBYQOGEEH-UHFFFAOYSA-N

> <PUBCHEM_XLOGP3_AA>
6.5

> <PUBCHEM_EXACT_MASS>
486.24533289

> <PUBCHEM_MOLECULAR_FORMULA>
C29H34N4OS

> <PUBCHEM_MOLECULAR_WEIGHT>
486.7

> <PUBCHEM_OPENEYE_CAN_SMILES>
CCCSC1=CC=CC=C1N2CCN(CC2)CCCOC3=CC=C(C=C3)C4=NC5=CC=CC=C5N4

> <PUBCHEM_OPENEYE_ISO_SMILES>
CCCSC1=CC=CC=C1N2CCN(CC2)CCCOC3=CC=C(C=C3)C4=NC5=CC=CC=C5N4

> <PUBCHEM_CACTVS_TPSA>
69.7

> <PUBCHEM_MONOISOTOPIC_WEIGHT>
486.24533289

> <PUBCHEM_TOTAL_CHARGE>
0

> <PUBCHEM_HEAVY_ATOM_COUNT>
35

> <PUBCHEM_ATOM_DEF_STEREO_COUNT>
0

> <PUBCHEM_ATOM_UDEF_STEREO_COUNT>
0

> <PUBCHEM_BOND_DEF_STEREO_COUNT>
0

> <PUBCHEM_BOND_UDEF_STEREO_COUNT>
0

> <PUBCHEM_ISOTOPIC_ATOM_COUNT>
0

> <PUBCHEM_COMPONENT_COUNT>
1

> <PUBCHEM_CACTVS_TAUTO_COUNT>
-1

> <PUBCHEM_COORDINATE_TYPE>
1
5
255

> <PUBCHEM_BONDANNOTATIONS>
13  15  8
13  16  8
15  17  8
16  18  8
17  19  8
18  19  8
21  23  8
21  24  8
23  26  8
24  27  8
25  26  8
25  27  8
30  31  8
30  32  8
31  33  8
32  34  8
33  35  8
34  35  8
5  28  8
5  30  8
6  28  8
6  31  8

$$$$
