145986720
  -OEChem-09292322392D

 64 67  0     1  0  0  0  0  0999 V2000
    6.3301    0.9097    0.0000 O   0  0  0  0  0  0  0  0  0  0  0  0
    5.6915    4.5734    0.0000 O   0  0  0  0  0  0  0  0  0  0  0  0
    7.4516    1.5248    0.0000 O   0  0  0  0  0  0  0  0  0  0  0  0
    4.5981   -0.0903    0.0000 N   0  0  0  0  0  0  0  0  0  0  0  0
    4.5981   -2.0903    0.0000 N   0  0  0  0  0  0  0  0  0  0  0  0
    6.3301    2.9097    0.0000 N   0  0  0  0  0  0  0  0  0  0  0  0
    7.9128    3.2461    0.0000 N   0  0  0  0  0  0  0  0  0  0  0  0
    5.4641   -0.5903    0.0000 C   0  0  0  0  0  0  0  0  0  0  0  0
    3.7320   -0.5903    0.0000 C   0  0  0  0  0  0  0  0  0  0  0  0
    5.4641   -1.5903    0.0000 C   0  0  0  0  0  0  0  0  0  0  0  0
    3.7320   -1.5903    0.0000 C   0  0  0  0  0  0  0  0  0  0  0  0
    4.5981    0.9097    0.0000 C   0  0  0  0  0  0  0  0  0  0  0  0
    4.5981   -3.0903    0.0000 C   0  0  0  0  0  0  0  0  0  0  0  0
    5.4641    1.4097    0.0000 C   0  0  3  0  0  0  0  0  0  0  0  0
    5.4641    2.4097    0.0000 C   0  0  0  0  0  0  0  0  0  0  0  0
    7.4128    4.1121    0.0000 C   0  0  0  0  0  0  0  0  0  0  0  0
    3.7320   -3.5903    0.0000 C   0  0  0  0  0  0  0  0  0  0  0  0
    5.4641   -3.5903    0.0000 C   0  0  0  0  0  0  0  0  0  0  0  0
    6.4347    3.9042    0.0000 C   0  0  0  0  0  0  0  0  0  0  0  0
    7.2437    2.5030    0.0000 C   0  0  0  0  0  0  0  0  0  0  0  0
    8.2788    4.6121    0.0000 C   0  0  0  0  0  0  0  0  0  0  0  0
    7.2049    5.0903    0.0000 C   0  0  0  0  0  0  0  0  0  0  0  0
    3.7320   -4.5903    0.0000 C   0  0  0  0  0  0  0  0  0  0  0  0
    5.4641   -4.5903    0.0000 C   0  0  0  0  0  0  0  0  0  0  0  0
    2.8660   -3.0903    0.0000 C   0  0  0  0  0  0  0  0  0  0  0  0
    6.3301   -3.0903    0.0000 C   0  0  0  0  0  0  0  0  0  0  0  0
    2.8660   -5.0903    0.0000 C   0  0  0  0  0  0  0  0  0  0  0  0
    6.3301   -5.0903    0.0000 C   0  0  0  0  0  0  0  0  0  0  0  0
    2.0000   -3.5903    0.0000 C   0  0  0  0  0  0  0  0  0  0  0  0
    7.1962   -3.5903    0.0000 C   0  0  0  0  0  0  0  0  0  0  0  0
    2.0000   -4.5903    0.0000 C   0  0  0  0  0  0  0  0  0  0  0  0
    7.1962   -4.5903    0.0000 C   0  0  0  0  0  0  0  0  0  0  0  0
    6.0747   -0.6980    0.0000 H   0  0  0  0  0  0  0  0  0  0  0  0
    5.6762   -0.0077    0.0000 H   0  0  0  0  0  0  0  0  0  0  0  0
    3.5200   -0.0077    0.0000 H   0  0  0  0  0  0  0  0  0  0  0  0
    3.1215   -0.6980    0.0000 H   0  0  0  0  0  0  0  0  0  0  0  0
    5.6762   -2.1729    0.0000 H   0  0  0  0  0  0  0  0  0  0  0  0
    6.0747   -1.4826    0.0000 H   0  0  0  0  0  0  0  0  0  0  0  0
    3.1215   -1.4826    0.0000 H   0  0  0  0  0  0  0  0  0  0  0  0
    3.5200   -2.1729    0.0000 H   0  0  0  0  0  0  0  0  0  0  0  0
    4.3860    1.4923    0.0000 H   0  0  0  0  0  0  0  0  0  0  0  0
    3.9875    0.8020    0.0000 H   0  0  0  0  0  0  0  0  0  0  0  0
    4.5981   -3.7103    0.0000 H   0  0  0  0  0  0  0  0  0  0  0  0
    6.0010    1.7197    0.0000 H   0  0  0  0  0  0  0  0  0  0  0  0
    5.2520    2.9923    0.0000 H   0  0  0  0  0  0  0  0  0  0  0  0
    4.8535    2.3020    0.0000 H   0  0  0  0  0  0  0  0  0  0  0  0
    8.5294    3.1813    0.0000 H   0  0  0  0  0  0  0  0  0  0  0  0
    8.5888    4.0752    0.0000 H   0  0  0  0  0  0  0  0  0  0  0  0
    8.8158    4.9221    0.0000 H   0  0  0  0  0  0  0  0  0  0  0  0
    7.9688    5.1491    0.0000 H   0  0  0  0  0  0  0  0  0  0  0  0
    7.8113    5.2192    0.0000 H   0  0  0  0  0  0  0  0  0  0  0  0
    7.0760    5.6967    0.0000 H   0  0  0  0  0  0  0  0  0  0  0  0
    6.5984    4.9614    0.0000 H   0  0  0  0  0  0  0  0  0  0  0  0
    6.8671    1.2197    0.0000 H   0  0  0  0  0  0  0  0  0  0  0  0
    4.2690   -4.9003    0.0000 H   0  0  0  0  0  0  0  0  0  0  0  0
    4.9272   -4.9003    0.0000 H   0  0  0  0  0  0  0  0  0  0  0  0
    2.8660   -2.4703    0.0000 H   0  0  0  0  0  0  0  0  0  0  0  0
    6.3301   -2.4703    0.0000 H   0  0  0  0  0  0  0  0  0  0  0  0
    2.8660   -5.7103    0.0000 H   0  0  0  0  0  0  0  0  0  0  0  0
    6.3301   -5.7103    0.0000 H   0  0  0  0  0  0  0  0  0  0  0  0
    1.4631   -3.2803    0.0000 H   0  0  0  0  0  0  0  0  0  0  0  0
    7.7331   -3.2803    0.0000 H   0  0  0  0  0  0  0  0  0  0  0  0
    1.4631   -4.9003    0.0000 H   0  0  0  0  0  0  0  0  0  0  0  0
    7.7331   -4.9003    0.0000 H   0  0  0  0  0  0  0  0  0  0  0  0
  1 14  1  0  0  0  0
  1 54  1  0  0  0  0
  2 19  2  0  0  0  0
  3 20  2  0  0  0  0
  4  8  1  0  0  0  0
  4  9  1  0  0  0  0
  4 12  1  0  0  0  0
  5 10  1  0  0  0  0
  5 11  1  0  0  0  0
  5 13  1  0  0  0  0
  6 15  1  0  0  0  0
  6 19  1  0  0  0  0
  6 20  1  0  0  0  0
  7 16  1  0  0  0  0
  7 20  1  0  0  0  0
  7 47  1  0  0  0  0
  8 10  1  0  0  0  0
  8 33  1  0  0  0  0
  8 34  1  0  0  0  0
  9 11  1  0  0  0  0
  9 35  1  0  0  0  0
  9 36  1  0  0  0  0
 10 37  1  0  0  0  0
 10 38  1  0  0  0  0
 11 39  1  0  0  0  0
 11 40  1  0  0  0  0
 12 14  1  0  0  0  0
 12 41  1  0  0  0  0
 12 42  1  0  0  0  0
 13 17  1  0  0  0  0
 13 18  1  0  0  0  0
 13 43  1  0  0  0  0
 14 15  1  0  0  0  0
 14 44  1  0  0  0  0
 15 45  1  0  0  0  0
 15 46  1  0  0  0  0
 16 19  1  0  0  0  0
 16 21  1  0  0  0  0
 16 22  1  0  0  0  0
 17 23  2  0  0  0  0
 17 25  1  0  0  0  0
 18 24  2  0  0  0  0
 18 26  1  0  0  0  0
 21 48  1  0  0  0  0
 21 49  1  0  0  0  0
 21 50  1  0  0  0  0
 22 51  1  0  0  0  0
 22 52  1  0  0  0  0
 22 53  1  0  0  0  0
 23 27  1  0  0  0  0
 23 55  1  0  0  0  0
 24 28  1  0  0  0  0
 24 56  1  0  0  0  0
 25 29  2  0  0  0  0
 25 57  1  0  0  0  0
 26 30  2  0  0  0  0
 26 58  1  0  0  0  0
 27 31  2  0  0  0  0
 27 59  1  0  0  0  0
 28 32  2  0  0  0  0
 28 60  1  0  0  0  0
 29 31  1  0  0  0  0
 29 61  1  0  0  0  0
 30 32  1  0  0  0  0
 30 62  1  0  0  0  0
 31 63  1  0  0  0  0
 32 64  1  0  0  0  0
M  END
> <PUBCHEM_COMPOUND_CID>
145986720

> <PUBCHEM_COMPOUND_CANONICALIZED>
1

> <PUBCHEM_CACTVS_COMPLEXITY>
632

> <PUBCHEM_CACTVS_HBOND_ACCEPTOR>
5

> <PUBCHEM_CACTVS_HBOND_DONOR>
2

> <PUBCHEM_CACTVS_ROTATABLE_BOND>
7

> <PUBCHEM_CACTVS_SUBSKEYS>
AAADcfB7sAAAAAAAAAAAAAAAAAAAAWAAAAA8YIAAAAAAAAABQAAAHgAQCAAADLzhmAYzAIPAAgCIAiFSEACCAAAgAAAIiAGIBIiKcCKA0TGUIAholyKYiAcQgMAOAAAAAAAAAAAAAAAAAAAAAAAAAAAAAA==

> <PUBCHEM_IUPAC_OPENEYE_NAME>
3-[3-(4-benzhydrylpiperazin-1-yl)-2-hydroxy-propyl]-5,5-dimethyl-imidazolidine-2,4-dione

> <PUBCHEM_IUPAC_CAS_NAME>
3-[3-[4-(diphenylmethyl)-1-piperazinyl]-2-hydroxypropyl]-5,5-dimethylimidazolidine-2,4-dione

> <PUBCHEM_IUPAC_NAME_MARKUP>
3-[3-(4-benzhydrylpiperazin-1-yl)-2-hydroxypropyl]-5,5-dimethylimidazolidine-2,4-dione

> <PUBCHEM_IUPAC_NAME>
3-[3-(4-benzhydrylpiperazin-1-yl)-2-hydroxypropyl]-5,5-dimethylimidazolidine-2,4-dione

> <PUBCHEM_IUPAC_SYSTEMATIC_NAME>
3-[3-[4-(diphenylmethyl)piperazin-1-yl]-2-oxidanyl-propyl]-5,5-dimethyl-imidazolidine-2,4-dione

> <PUBCHEM_IUPAC_TRADITIONAL_NAME>
3-[3-(4-benzhydrylpiperazino)-2-hydroxy-propyl]-5,5-dimethyl-hydantoin

> <PUBCHEM_IUPAC_INCHI>
InChI=1S/C25H32N4O3/c1-25(2)23(31)29(24(32)26-25)18-21(30)17-27-13-15-28(16-14-27)22(19-9-5-3-6-10-19)20-11-7-4-8-12-20/h3-12,21-22,30H,13-18H2,1-2H3,(H,26,32)

> <PUBCHEM_IUPAC_INCHIKEY>
PTJNFOHRMGJLPA-UHFFFAOYSA-N

> <PUBCHEM_XLOGP3_AA>
2.1

> <PUBCHEM_EXACT_MASS>
436.24744090

> <PUBCHEM_MOLECULAR_FORMULA>
C25H32N4O3

> <PUBCHEM_MOLECULAR_WEIGHT>
436.5

> <PUBCHEM_OPENEYE_CAN_SMILES>
CC1(C(=O)N(C(=O)N1)CC(CN2CCN(CC2)C(C3=CC=CC=C3)C4=CC=CC=C4)O)C

> <PUBCHEM_OPENEYE_ISO_SMILES>
CC1(C(=O)N(C(=O)N1)CC(CN2CCN(CC2)C(C3=CC=CC=C3)C4=CC=CC=C4)O)C

> <PUBCHEM_CACTVS_TPSA>
76.1

> <PUBCHEM_MONOISOTOPIC_WEIGHT>
436.24744090

> <PUBCHEM_TOTAL_CHARGE>
0

> <PUBCHEM_HEAVY_ATOM_COUNT>
32

> <PUBCHEM_ATOM_DEF_STEREO_COUNT>
0

> <PUBCHEM_ATOM_UDEF_STEREO_COUNT>
1

> <PUBCHEM_BOND_DEF_STEREO_COUNT>
0

> <PUBCHEM_BOND_UDEF_STEREO_COUNT>
0

> <PUBCHEM_ISOTOPIC_ATOM_COUNT>
0

> <PUBCHEM_COMPONENT_COUNT>
1

> <PUBCHEM_CACTVS_TAUTO_COUNT>
-1

> <PUBCHEM_COORDINATE_TYPE>
1
5
255

> <PUBCHEM_BONDANNOTATIONS>
14  1  3
17  23  8
17  25  8
18  24  8
18  26  8
23  27  8
24  28  8
25  29  8
26  30  8
27  31  8
28  32  8
29  31  8
30  32  8

$$$$
