53327261
  -OEChem-09292322352D

 54 59  0     1  0  0  0  0  0999 V2000
    4.6082   -1.6836    0.0000 N   0  0  3  0  0  0  0  0  0  0  0  0
    4.5923    0.3857    0.0000 N   0  0  3  0  0  0  0  0  0  0  0  0
    6.4783   -4.3322    0.0000 N   0  0  0  0  0  0  0  0  0  0  0  0
    5.4742   -1.1836    0.0000 C   0  0  3  0  0  0  0  0  0  0  0  0
    5.4903   -0.1421    0.0000 C   0  0  0  0  0  0  0  0  0  0  0  0
    6.3403   -1.6836    0.0000 C   0  0  0  0  0  0  0  0  0  0  0  0
    3.6982   -1.1767    0.0000 C   0  0  0  0  0  0  0  0  0  0  0  0
    3.6902   -0.1351    0.0000 C   0  0  0  0  0  0  0  0  0  0  0  0
    4.6082   -2.6836    0.0000 C   0  0  0  0  0  0  0  0  0  0  0  0
    6.3403   -2.6836    0.0000 C   0  0  0  0  0  0  0  0  0  0  0  0
    5.4742   -3.1836    0.0000 C   0  0  0  0  0  0  0  0  0  0  0  0
    4.5961    1.3857    0.0000 C   0  0  0  0  0  0  0  0  0  0  0  0
    5.4903   -4.2251    0.0000 C   0  0  0  0  0  0  0  0  0  0  0  0
    6.9582   -3.4619    0.0000 C   0  0  0  0  0  0  0  0  0  0  0  0
    3.6982   -3.1904    0.0000 C   0  0  0  0  0  0  0  0  0  0  0  0
    3.7320    1.8890    0.0000 C   0  0  0  0  0  0  0  0  0  0  0  0
    4.5923   -4.7528    0.0000 C   0  0  0  0  0  0  0  0  0  0  0  0
    3.6902   -4.2320    0.0000 C   0  0  0  0  0  0  0  0  0  0  0  0
    3.7359    2.8890    0.0000 C   0  0  0  0  0  0  0  0  0  0  0  0
    2.8641    1.3924    0.0000 C   0  0  0  0  0  0  0  0  0  0  0  0
    2.8718    3.3923    0.0000 C   0  0  0  0  0  0  0  0  0  0  0  0
    4.6038    3.3857    0.0000 C   0  0  0  0  0  0  0  0  0  0  0  0
    2.0000    1.8957    0.0000 C   0  0  0  0  0  0  0  0  0  0  0  0
    2.0038    2.8957    0.0000 C   0  0  0  0  0  0  0  0  0  0  0  0
    4.6077    4.3857    0.0000 C   0  0  0  0  0  0  0  0  0  0  0  0
    5.4679    2.8823    0.0000 C   0  0  0  0  0  0  0  0  0  0  0  0
    5.4756    4.8823    0.0000 C   0  0  0  0  0  0  0  0  0  0  0  0
    6.3359    3.3790    0.0000 C   0  0  0  0  0  0  0  0  0  0  0  0
    6.3397    4.3790    0.0000 C   0  0  0  0  0  0  0  0  0  0  0  0
    6.0136   -0.8777    0.0000 H   0  0  0  0  0  0  0  0  0  0  0  0
    6.0995   -0.2576    0.0000 H   0  0  0  0  0  0  0  0  0  0  0  0
    5.7083    0.4383    0.0000 H   0  0  0  0  0  0  0  0  0  0  0  0
    6.9509   -1.7912    0.0000 H   0  0  0  0  0  0  0  0  0  0  0  0
    6.5523   -1.1010    0.0000 H   0  0  0  0  0  0  0  0  0  0  0  0
    3.0866   -1.0754    0.0000 H   0  0  0  0  0  0  0  0  0  0  0  0
    3.4937   -1.7620    0.0000 H   0  0  0  0  0  0  0  0  0  0  0  0
    3.4766    0.4469    0.0000 H   0  0  0  0  0  0  0  0  0  0  0  0
    3.0802   -0.2459    0.0000 H   0  0  0  0  0  0  0  0  0  0  0  0
    5.2063    1.2757    0.0000 H   0  0  0  0  0  0  0  0  0  0  0  0
    4.8104    1.9675    0.0000 H   0  0  0  0  0  0  0  0  0  0  0  0
    7.5760   -3.4102    0.0000 H   0  0  0  0  0  0  0  0  0  0  0  0
    3.1649   -2.8742    0.0000 H   0  0  0  0  0  0  0  0  0  0  0  0
    6.7643   -4.8823    0.0000 H   0  0  0  0  0  0  0  0  0  0  0  0
    4.5947   -5.3728    0.0000 H   0  0  0  0  0  0  0  0  0  0  0  0
    3.1521   -4.5400    0.0000 H   0  0  0  0  0  0  0  0  0  0  0  0
    2.8617    0.7724    0.0000 H   0  0  0  0  0  0  0  0  0  0  0  0
    2.8742    4.0123    0.0000 H   0  0  0  0  0  0  0  0  0  0  0  0
    1.4619    1.5878    0.0000 H   0  0  0  0  0  0  0  0  0  0  0  0
    1.4681    3.2078    0.0000 H   0  0  0  0  0  0  0  0  0  0  0  0
    4.0720    4.6977    0.0000 H   0  0  0  0  0  0  0  0  0  0  0  0
    5.4655    2.2623    0.0000 H   0  0  0  0  0  0  0  0  0  0  0  0
    5.4780    5.5023    0.0000 H   0  0  0  0  0  0  0  0  0  0  0  0
    6.8716    3.0669    0.0000 H   0  0  0  0  0  0  0  0  0  0  0  0
    6.8779    4.6869    0.0000 H   0  0  0  0  0  0  0  0  0  0  0  0
  1  4  1  0  0  0  0
  1  7  1  0  0  0  0
  1  9  1  0  0  0  0
  2  5  1  0  0  0  0
  2  8  1  0  0  0  0
  2 12  1  0  0  0  0
  3 13  1  0  0  0  0
  3 14  1  0  0  0  0
  3 43  1  0  0  0  0
  4  5  1  0  0  0  0
  4  6  1  0  0  0  0
  4 30  1  0  0  0  0
  5 31  1  0  0  0  0
  5 32  1  0  0  0  0
  6 10  1  0  0  0  0
  6 33  1  0  0  0  0
  6 34  1  0  0  0  0
  7  8  1  0  0  0  0
  7 35  1  0  0  0  0
  7 36  1  0  0  0  0
  8 37  1  0  0  0  0
  8 38  1  0  0  0  0
  9 11  1  0  0  0  0
  9 15  2  0  0  0  0
 10 11  1  0  0  0  0
 10 14  2  0  0  0  0
 11 13  2  0  0  0  0
 12 16  1  0  0  0  0
 12 39  1  0  0  0  0
 12 40  1  0  0  0  0
 13 17  1  0  0  0  0
 14 41  1  0  0  0  0
 15 18  1  0  0  0  0
 15 42  1  0  0  0  0
 16 19  1  0  0  0  0
 16 20  2  0  0  0  0
 17 18  2  0  0  0  0
 17 44  1  0  0  0  0
 18 45  1  0  0  0  0
 19 21  2  0  0  0  0
 19 22  1  0  0  0  0
 20 23  1  0  0  0  0
 20 46  1  0  0  0  0
 21 24  1  0  0  0  0
 21 47  1  0  0  0  0
 22 25  2  0  0  0  0
 22 26  1  0  0  0  0
 23 24  2  0  0  0  0
 23 48  1  0  0  0  0
 24 49  1  0  0  0  0
 25 27  1  0  0  0  0
 25 50  1  0  0  0  0
 26 28  2  0  0  0  0
 26 51  1  0  0  0  0
 27 29  2  0  0  0  0
 27 52  1  0  0  0  0
 28 29  1  0  0  0  0
 28 53  1  0  0  0  0
 29 54  1  0  0  0  0
M  END
> <PUBCHEM_COMPOUND_CID>
53327261

> <PUBCHEM_COMPOUND_CANONICALIZED>
1

> <PUBCHEM_CACTVS_COMPLEXITY>
558

> <PUBCHEM_CACTVS_HBOND_ACCEPTOR>
2

> <PUBCHEM_CACTVS_HBOND_DONOR>
1

> <PUBCHEM_CACTVS_ROTATABLE_BOND>
3

> <PUBCHEM_CACTVS_SUBSKEYS>
AAADceB7AAAAAAAAAAAAAAAAAAAAAWAAAAA8eMECAAAAAFix9AAAHAAQAAAADCjBHgQ8wPPJkACgAzRnRACCgCAxAiAI2aA4ZJgIYOLA0dGUJAhgkADIyAcQgMAOgAAAAAQSAAAAAAAACCQAAAAAAAAAAA==

> <PUBCHEM_IUPAC_OPENEYE_NAME>
5-[(2-phenylphenyl)methyl]-2,5,11-triazatetracyclo[7.6.1.02,7.012,16]hexadeca-1(15),9,12(16),13-tetraene

> <PUBCHEM_IUPAC_CAS_NAME>
5-[(2-phenylphenyl)methyl]-2,5,11-triazatetracyclo[7.6.1.02,7.012,16]hexadeca-1(15),9,12(16),13-tetraene

> <PUBCHEM_IUPAC_NAME_MARKUP>
5-[(2-phenylphenyl)methyl]-2,5,11-triazatetracyclo[7.6.1.0<SUP>2,7</SUP>.0<SUP>12,16</SUP>]hexadeca-1(15),9,12(16),13-tetraene

> <PUBCHEM_IUPAC_NAME>
5-[(2-phenylphenyl)methyl]-2,5,11-triazatetracyclo[7.6.1.02,7.012,16]hexadeca-1(15),9,12(16),13-tetraene

> <PUBCHEM_IUPAC_SYSTEMATIC_NAME>
5-[(2-phenylphenyl)methyl]-2,5,11-triazatetracyclo[7.6.1.02,7.012,16]hexadeca-1(15),9,12(16),13-tetraene

> <PUBCHEM_IUPAC_TRADITIONAL_NAME>
5-(2-phenylbenzyl)-2,5,11-triazatetracyclo[7.6.1.02,7.012,16]hexadeca-1(15),9,12(16),13-tetraene

> <PUBCHEM_IUPAC_INCHI>
InChI=1S/C26H25N3/c1-2-7-19(8-3-1)23-10-5-4-9-20(23)17-28-13-14-29-22(18-28)15-21-16-27-24-11-6-12-25(29)26(21)24/h1-12,16,22,27H,13-15,17-18H2

> <PUBCHEM_IUPAC_INCHIKEY>
VJYRFSZIRUISDG-UHFFFAOYSA-N

> <PUBCHEM_XLOGP3_AA>
5.2

> <PUBCHEM_EXACT_MASS>
379.204847810

> <PUBCHEM_MOLECULAR_FORMULA>
C26H25N3

> <PUBCHEM_MOLECULAR_WEIGHT>
379.5

> <PUBCHEM_OPENEYE_CAN_SMILES>
C1CN2C(CC3=CNC4=C3C2=CC=C4)CN1CC5=CC=CC=C5C6=CC=CC=C6

> <PUBCHEM_OPENEYE_ISO_SMILES>
C1CN2C(CC3=CNC4=C3C2=CC=C4)CN1CC5=CC=CC=C5C6=CC=CC=C6

> <PUBCHEM_CACTVS_TPSA>
22.3

> <PUBCHEM_MONOISOTOPIC_WEIGHT>
379.204847810

> <PUBCHEM_TOTAL_CHARGE>
0

> <PUBCHEM_HEAVY_ATOM_COUNT>
29

> <PUBCHEM_ATOM_DEF_STEREO_COUNT>
0

> <PUBCHEM_ATOM_UDEF_STEREO_COUNT>
1

> <PUBCHEM_BOND_DEF_STEREO_COUNT>
0

> <PUBCHEM_BOND_UDEF_STEREO_COUNT>
0

> <PUBCHEM_ISOTOPIC_ATOM_COUNT>
0

> <PUBCHEM_COMPONENT_COUNT>
1

> <PUBCHEM_CACTVS_TAUTO_COUNT>
-1

> <PUBCHEM_COORDINATE_TYPE>
1
5
255

> <PUBCHEM_BONDANNOTATIONS>
10  11  8
10  14  8
11  13  8
13  17  8
15  18  8
16  19  8
16  20  8
17  18  8
19  21  8
20  23  8
21  24  8
22  25  8
22  26  8
23  24  8
25  27  8
26  28  8
27  29  8
28  29  8
3  13  8
3  14  8
4  6  3
9  11  8
9  15  8

$$$$
