71502676
  -OEChem-09292322352D

 66 71  0     0  0  0  0  0  0999 V2000
    7.4580   -4.9893    0.0000 S   0  0  0  0  0  0  0  0  0  0  0  0
    3.6030    3.7660    0.0000 O   0  0  0  0  0  0  0  0  0  0  0  0
    8.4085   -4.6786    0.0000 O   0  0  0  0  0  0  0  0  0  0  0  0
    6.5075   -5.2999    0.0000 O   0  0  0  0  0  0  0  0  0  0  0  0
    2.0000    6.9331    0.0000 O   0  0  0  0  0  0  0  0  0  0  0  0
    5.3351    0.7660    0.0000 N   0  0  0  0  0  0  0  0  0  0  0  0
    5.3351   -1.2340    0.0000 N   0  0  0  0  0  0  0  0  0  0  0  0
    7.1473   -4.0388    0.0000 N   0  0  0  0  0  0  0  0  0  0  0  0
    4.4691    0.2660    0.0000 C   0  0  0  0  0  0  0  0  0  0  0  0
    6.2011    0.2660    0.0000 C   0  0  0  0  0  0  0  0  0  0  0  0
    4.4691   -0.7340    0.0000 C   0  0  0  0  0  0  0  0  0  0  0  0
    6.2011   -0.7340    0.0000 C   0  0  0  0  0  0  0  0  0  0  0  0
    5.3351    1.7660    0.0000 C   0  0  0  0  0  0  0  0  0  0  0  0
    5.3351   -2.2340    0.0000 C   0  0  0  0  0  0  0  0  0  0  0  0
    6.2011   -2.7340    0.0000 C   0  0  0  0  0  0  0  0  0  0  0  0
    4.4691    2.2660    0.0000 C   0  0  0  0  0  0  0  0  0  0  0  0
    6.2011   -3.7340    0.0000 C   0  0  0  0  0  0  0  0  0  0  0  0
    4.4691   -2.7340    0.0000 C   0  0  0  0  0  0  0  0  0  0  0  0
    7.1473   -2.4293    0.0000 C   0  0  0  0  0  0  0  0  0  0  0  0
    4.4691    3.2660    0.0000 C   0  0  0  0  0  0  0  0  0  0  0  0
    5.3351   -4.2340    0.0000 C   0  0  0  0  0  0  0  0  0  0  0  0
    7.7310   -3.2340    0.0000 C   0  0  0  0  0  0  0  0  0  0  0  0
    4.4691   -3.7340    0.0000 C   0  0  0  0  0  0  0  0  0  0  0  0
    7.7687   -5.9398    0.0000 C   0  0  0  0  0  0  0  0  0  0  0  0
    3.6030    4.7660    0.0000 C   0  0  0  0  0  0  0  0  0  0  0  0
    7.1008   -6.6841    0.0000 C   0  0  0  0  0  0  0  0  0  0  0  0
    8.7472   -6.1460    0.0000 C   0  0  0  0  0  0  0  0  0  0  0  0
    2.7370    5.2660    0.0000 C   0  0  0  0  0  0  0  0  0  0  0  0
    4.4691    5.2660    0.0000 C   0  0  0  0  0  0  0  0  0  0  0  0
    7.4115   -7.6346    0.0000 C   0  0  0  0  0  0  0  0  0  0  0  0
    9.0578   -7.0965    0.0000 C   0  0  0  0  0  0  0  0  0  0  0  0
    2.7370    6.2660    0.0000 C   0  0  0  0  0  0  0  0  0  0  0  0
    8.3900   -7.8408    0.0000 C   0  0  0  0  0  0  0  0  0  0  0  0
    3.6030    6.7660    0.0000 C   0  0  0  0  0  0  0  0  0  0  0  0
    4.4691    6.2660    0.0000 C   0  0  0  0  0  0  0  0  0  0  0  0
    3.3938    7.7378    0.0000 C   0  0  0  0  0  0  0  0  0  0  0  0
    2.4051    7.8408    0.0000 C   0  0  0  0  0  0  0  0  0  0  0  0
    4.2570    0.8486    0.0000 H   0  0  0  0  0  0  0  0  0  0  0  0
    3.8585    0.1583    0.0000 H   0  0  0  0  0  0  0  0  0  0  0  0
    6.8117    0.1583    0.0000 H   0  0  0  0  0  0  0  0  0  0  0  0
    6.4132    0.8486    0.0000 H   0  0  0  0  0  0  0  0  0  0  0  0
    3.8585   -0.6264    0.0000 H   0  0  0  0  0  0  0  0  0  0  0  0
    4.2570   -1.3166    0.0000 H   0  0  0  0  0  0  0  0  0  0  0  0
    6.4132   -1.3166    0.0000 H   0  0  0  0  0  0  0  0  0  0  0  0
    6.8117   -0.6264    0.0000 H   0  0  0  0  0  0  0  0  0  0  0  0
    5.9457    1.6583    0.0000 H   0  0  0  0  0  0  0  0  0  0  0  0
    5.5471    2.3486    0.0000 H   0  0  0  0  0  0  0  0  0  0  0  0
    3.8585    2.3736    0.0000 H   0  0  0  0  0  0  0  0  0  0  0  0
    4.2570    1.6834    0.0000 H   0  0  0  0  0  0  0  0  0  0  0  0
    3.9321   -2.4240    0.0000 H   0  0  0  0  0  0  0  0  0  0  0  0
    7.3400   -1.8400    0.0000 H   0  0  0  0  0  0  0  0  0  0  0  0
    5.0796    3.1583    0.0000 H   0  0  0  0  0  0  0  0  0  0  0  0
    4.6811    3.8486    0.0000 H   0  0  0  0  0  0  0  0  0  0  0  0
    5.3351   -4.8540    0.0000 H   0  0  0  0  0  0  0  0  0  0  0  0
    8.3509   -3.2340    0.0000 H   0  0  0  0  0  0  0  0  0  0  0  0
    3.9321   -4.0440    0.0000 H   0  0  0  0  0  0  0  0  0  0  0  0
    6.4941   -6.5562    0.0000 H   0  0  0  0  0  0  0  0  0  0  0  0
    9.1612   -5.6846    0.0000 H   0  0  0  0  0  0  0  0  0  0  0  0
    2.2001    4.9560    0.0000 H   0  0  0  0  0  0  0  0  0  0  0  0
    5.0060    4.9560    0.0000 H   0  0  0  0  0  0  0  0  0  0  0  0
    6.9974   -8.0961    0.0000 H   0  0  0  0  0  0  0  0  0  0  0  0
    9.6645   -7.2244    0.0000 H   0  0  0  0  0  0  0  0  0  0  0  0
    8.5826   -8.4302    0.0000 H   0  0  0  0  0  0  0  0  0  0  0  0
    5.0060    6.5760    0.0000 H   0  0  0  0  0  0  0  0  0  0  0  0
    3.8079    8.1992    0.0000 H   0  0  0  0  0  0  0  0  0  0  0  0
    2.0951    8.3778    0.0000 H   0  0  0  0  0  0  0  0  0  0  0  0
  1  3  2  0  0  0  0
  1  4  2  0  0  0  0
  1  8  1  0  0  0  0
  1 24  1  0  0  0  0
  2 20  1  0  0  0  0
  2 25  1  0  0  0  0
  5 32  1  0  0  0  0
  5 37  1  0  0  0  0
  6  9  1  0  0  0  0
  6 10  1  0  0  0  0
  6 13  1  0  0  0  0
  7 11  1  0  0  0  0
  7 12  1  0  0  0  0
  7 14  1  0  0  0  0
  8 17  1  0  0  0  0
  8 22  1  0  0  0  0
  9 11  1  0  0  0  0
  9 38  1  0  0  0  0
  9 39  1  0  0  0  0
 10 12  1  0  0  0  0
 10 40  1  0  0  0  0
 10 41  1  0  0  0  0
 11 42  1  0  0  0  0
 11 43  1  0  0  0  0
 12 44  1  0  0  0  0
 12 45  1  0  0  0  0
 13 16  1  0  0  0  0
 13 46  1  0  0  0  0
 13 47  1  0  0  0  0
 14 15  1  0  0  0  0
 14 18  2  0  0  0  0
 15 17  2  0  0  0  0
 15 19  1  0  0  0  0
 16 20  1  0  0  0  0
 16 48  1  0  0  0  0
 16 49  1  0  0  0  0
 17 21  1  0  0  0  0
 18 23  1  0  0  0  0
 18 50  1  0  0  0  0
 19 22  2  0  0  0  0
 19 51  1  0  0  0  0
 20 52  1  0  0  0  0
 20 53  1  0  0  0  0
 21 23  2  0  0  0  0
 21 54  1  0  0  0  0
 22 55  1  0  0  0  0
 23 56  1  0  0  0  0
 24 26  2  0  0  0  0
 24 27  1  0  0  0  0
 25 28  2  0  0  0  0
 25 29  1  0  0  0  0
 26 30  1  0  0  0  0
 26 57  1  0  0  0  0
 27 31  2  0  0  0  0
 27 58  1  0  0  0  0
 28 32  1  0  0  0  0
 28 59  1  0  0  0  0
 29 35  2  0  0  0  0
 29 60  1  0  0  0  0
 30 33  2  0  0  0  0
 30 61  1  0  0  0  0
 31 33  1  0  0  0  0
 31 62  1  0  0  0  0
 32 34  2  0  0  0  0
 33 63  1  0  0  0  0
 34 35  1  0  0  0  0
 34 36  1  0  0  0  0
 35 64  1  0  0  0  0
 36 37  2  0  0  0  0
 36 65  1  0  0  0  0
 37 66  1  0  0  0  0
M  END
> <PUBCHEM_COMPOUND_CID>
71502676

> <PUBCHEM_COMPOUND_CANONICALIZED>
1

> <PUBCHEM_CACTVS_COMPLEXITY>
837

> <PUBCHEM_CACTVS_HBOND_ACCEPTOR>
6

> <PUBCHEM_CACTVS_HBOND_DONOR>
0

> <PUBCHEM_CACTVS_ROTATABLE_BOND>
8

> <PUBCHEM_CACTVS_SUBSKEYS>
AAADceB7OABAAAAAAAAAAAAAAAAAAWJAAAA8YMEAAAAAAFgB/gAAHgQAQAAADAzh3gY8x/MIFEKoA7x3xHDCiDA1IiAI2Dk+bNgMZ/bE9duWPWjn4BXI6YeY7KzOIAAACAQKAABAAAAQCBQAAAAAAAAAAA==

> <PUBCHEM_IUPAC_OPENEYE_NAME>
1-(benzenesulfonyl)-4-[4-[3-(benzofuran-6-yloxy)propyl]piperazin-1-yl]indole

> <PUBCHEM_IUPAC_CAS_NAME>
1-(benzenesulfonyl)-4-[4-[3-(6-benzofuranyloxy)propyl]-1-piperazinyl]indole

> <PUBCHEM_IUPAC_NAME_MARKUP>
1-(benzenesulfonyl)-4-[4-[3-(1-benzofuran-6-yloxy)propyl]piperazin-1-yl]indole

> <PUBCHEM_IUPAC_NAME>
1-(benzenesulfonyl)-4-[4-[3-(1-benzofuran-6-yloxy)propyl]piperazin-1-yl]indole

> <PUBCHEM_IUPAC_SYSTEMATIC_NAME>
4-[4-[3-(1-benzofuran-6-yloxy)propyl]piperazin-1-yl]-1-(phenylsulfonyl)indole

> <PUBCHEM_IUPAC_TRADITIONAL_NAME>
4-[4-[3-(benzofuran-6-yloxy)propyl]piperazino]-1-besyl-indole

> <PUBCHEM_IUPAC_INCHI>
InChI=1S/C29H29N3O4S/c33-37(34,25-6-2-1-3-7-25)32-15-12-26-27(8-4-9-28(26)32)31-18-16-30(17-19-31)14-5-20-35-24-11-10-23-13-21-36-29(23)22-24/h1-4,6-13,15,21-22H,5,14,16-20H2

> <PUBCHEM_IUPAC_INCHIKEY>
VFHUXBVWZQEOJG-UHFFFAOYSA-N

> <PUBCHEM_XLOGP3_AA>
5.6

> <PUBCHEM_EXACT_MASS>
515.18787759

> <PUBCHEM_MOLECULAR_FORMULA>
C29H29N3O4S

> <PUBCHEM_MOLECULAR_WEIGHT>
515.6

> <PUBCHEM_OPENEYE_CAN_SMILES>
C1CN(CCN1CCCOC2=CC3=C(C=C2)C=CO3)C4=CC=CC5=C4C=CN5S(=O)(=O)C6=CC=CC=C6

> <PUBCHEM_OPENEYE_ISO_SMILES>
C1CN(CCN1CCCOC2=CC3=C(C=C2)C=CO3)C4=CC=CC5=C4C=CN5S(=O)(=O)C6=CC=CC=C6

> <PUBCHEM_CACTVS_TPSA>
76.3

> <PUBCHEM_MONOISOTOPIC_WEIGHT>
515.18787759

> <PUBCHEM_TOTAL_CHARGE>
0

> <PUBCHEM_HEAVY_ATOM_COUNT>
37

> <PUBCHEM_ATOM_DEF_STEREO_COUNT>
0

> <PUBCHEM_ATOM_UDEF_STEREO_COUNT>
0

> <PUBCHEM_BOND_DEF_STEREO_COUNT>
0

> <PUBCHEM_BOND_UDEF_STEREO_COUNT>
0

> <PUBCHEM_ISOTOPIC_ATOM_COUNT>
0

> <PUBCHEM_COMPONENT_COUNT>
1

> <PUBCHEM_CACTVS_TAUTO_COUNT>
-1

> <PUBCHEM_COORDINATE_TYPE>
1
5
255

> <PUBCHEM_BONDANNOTATIONS>
14  15  8
14  18  8
15  17  8
15  19  8
17  21  8
18  23  8
19  22  8
21  23  8
24  26  8
24  27  8
25  28  8
25  29  8
26  30  8
27  31  8
28  32  8
29  35  8
30  33  8
31  33  8
32  34  8
34  35  8
34  36  8
36  37  8
5  32  8
5  37  8
8  17  8
8  22  8

$$$$
