10905430
  -OEChem-09292322122D

 57 59  0     0  0  0  0  0  0999 V2000
    7.5622    6.7694    0.0000 S   0  0  0  0  0  0  0  0  0  0  0  0
    2.8660   -4.7694    0.0000 O   0  0  0  0  0  0  0  0  0  0  0  0
    8.0622    2.2306    0.0000 O   0  0  0  0  0  0  0  0  0  0  0  0
    4.5981   -1.7694    0.0000 N   0  0  0  0  0  0  0  0  0  0  0  0
    4.5981   -3.7694    0.0000 N   0  0  0  0  0  0  0  0  0  0  0  0
    6.3301    2.2306    0.0000 N   0  0  0  0  0  0  0  0  0  0  0  0
    5.4641   -2.2694    0.0000 C   0  0  0  0  0  0  0  0  0  0  0  0
    3.7320   -2.2694    0.0000 C   0  0  0  0  0  0  0  0  0  0  0  0
    5.4641   -3.2694    0.0000 C   0  0  0  0  0  0  0  0  0  0  0  0
    3.7320   -3.2694    0.0000 C   0  0  0  0  0  0  0  0  0  0  0  0
    4.5981   -0.7694    0.0000 C   0  0  0  0  0  0  0  0  0  0  0  0
    5.4641   -0.2694    0.0000 C   0  0  0  0  0  0  0  0  0  0  0  0
    4.5981   -4.7694    0.0000 C   0  0  0  0  0  0  0  0  0  0  0  0
    5.4641    0.7306    0.0000 C   0  0  0  0  0  0  0  0  0  0  0  0
    6.3301    1.2306    0.0000 C   0  0  0  0  0  0  0  0  0  0  0  0
    3.7320   -5.2694    0.0000 C   0  0  0  0  0  0  0  0  0  0  0  0
    5.4641   -5.2694    0.0000 C   0  0  0  0  0  0  0  0  0  0  0  0
    3.7320   -6.2694    0.0000 C   0  0  0  0  0  0  0  0  0  0  0  0
    5.4641   -6.2694    0.0000 C   0  0  0  0  0  0  0  0  0  0  0  0
    4.5981   -6.7694    0.0000 C   0  0  0  0  0  0  0  0  0  0  0  0
    7.1962    2.7306    0.0000 C   0  0  0  0  0  0  0  0  0  0  0  0
    2.0000   -5.2694    0.0000 C   0  0  0  0  0  0  0  0  0  0  0  0
    7.1962    3.7306    0.0000 C   0  0  0  0  0  0  0  0  0  0  0  0
    8.0622    4.2306    0.0000 C   0  0  0  0  0  0  0  0  0  0  0  0
    8.0622    5.2306    0.0000 C   0  0  0  0  0  0  0  0  0  0  0  0
    8.8712    5.8184    0.0000 C   0  0  0  0  0  0  0  0  0  0  0  0
    7.2532    5.8184    0.0000 C   0  0  0  0  0  0  0  0  0  0  0  0
    8.5622    6.7694    0.0000 C   0  0  0  0  0  0  0  0  0  0  0  0
    6.0747   -2.3771    0.0000 H   0  0  0  0  0  0  0  0  0  0  0  0
    5.6762   -1.6868    0.0000 H   0  0  0  0  0  0  0  0  0  0  0  0
    3.5200   -1.6868    0.0000 H   0  0  0  0  0  0  0  0  0  0  0  0
    3.1215   -2.3771    0.0000 H   0  0  0  0  0  0  0  0  0  0  0  0
    5.6762   -3.8520    0.0000 H   0  0  0  0  0  0  0  0  0  0  0  0
    6.0747   -3.1618    0.0000 H   0  0  0  0  0  0  0  0  0  0  0  0
    3.1215   -3.1618    0.0000 H   0  0  0  0  0  0  0  0  0  0  0  0
    3.5200   -3.8520    0.0000 H   0  0  0  0  0  0  0  0  0  0  0  0
    4.3860   -0.1868    0.0000 H   0  0  0  0  0  0  0  0  0  0  0  0
    3.9875   -0.8771    0.0000 H   0  0  0  0  0  0  0  0  0  0  0  0
    5.6762   -0.8520    0.0000 H   0  0  0  0  0  0  0  0  0  0  0  0
    6.0747   -0.1618    0.0000 H   0  0  0  0  0  0  0  0  0  0  0  0
    5.2520    1.3132    0.0000 H   0  0  0  0  0  0  0  0  0  0  0  0
    4.8535    0.6229    0.0000 H   0  0  0  0  0  0  0  0  0  0  0  0
    6.5422    0.6480    0.0000 H   0  0  0  0  0  0  0  0  0  0  0  0
    6.9407    1.3382    0.0000 H   0  0  0  0  0  0  0  0  0  0  0  0
    6.0010   -4.9594    0.0000 H   0  0  0  0  0  0  0  0  0  0  0  0
    3.1951   -6.5794    0.0000 H   0  0  0  0  0  0  0  0  0  0  0  0
    6.0010   -6.5794    0.0000 H   0  0  0  0  0  0  0  0  0  0  0  0
    5.7932    2.5406    0.0000 H   0  0  0  0  0  0  0  0  0  0  0  0
    4.5981   -7.3894    0.0000 H   0  0  0  0  0  0  0  0  0  0  0  0
    1.6900   -4.7325    0.0000 H   0  0  0  0  0  0  0  0  0  0  0  0
    1.4631   -5.5794    0.0000 H   0  0  0  0  0  0  0  0  0  0  0  0
    2.3100   -5.8064    0.0000 H   0  0  0  0  0  0  0  0  0  0  0  0
    6.6592    4.0406    0.0000 H   0  0  0  0  0  0  0  0  0  0  0  0
    8.5991    3.9206    0.0000 H   0  0  0  0  0  0  0  0  0  0  0  0
    9.4608    5.6268    0.0000 H   0  0  0  0  0  0  0  0  0  0  0  0
    6.6635    5.6268    0.0000 H   0  0  0  0  0  0  0  0  0  0  0  0
    8.9266    7.2710    0.0000 H   0  0  0  0  0  0  0  0  0  0  0  0
  1 27  1  0  0  0  0
  1 28  1  0  0  0  0
  2 16  1  0  0  0  0
  2 22  1  0  0  0  0
  3 21  2  0  0  0  0
  4  7  1  0  0  0  0
  4  8  1  0  0  0  0
  4 11  1  0  0  0  0
  5  9  1  0  0  0  0
  5 10  1  0  0  0  0
  5 13  1  0  0  0  0
  6 15  1  0  0  0  0
  6 21  1  0  0  0  0
  6 48  1  0  0  0  0
  7  9  1  0  0  0  0
  7 29  1  0  0  0  0
  7 30  1  0  0  0  0
  8 10  1  0  0  0  0
  8 31  1  0  0  0  0
  8 32  1  0  0  0  0
  9 33  1  0  0  0  0
  9 34  1  0  0  0  0
 10 35  1  0  0  0  0
 10 36  1  0  0  0  0
 11 12  1  0  0  0  0
 11 37  1  0  0  0  0
 11 38  1  0  0  0  0
 12 14  1  0  0  0  0
 12 39  1  0  0  0  0
 12 40  1  0  0  0  0
 13 16  1  0  0  0  0
 13 17  2  0  0  0  0
 14 15  1  0  0  0  0
 14 41  1  0  0  0  0
 14 42  1  0  0  0  0
 15 43  1  0  0  0  0
 15 44  1  0  0  0  0
 16 18  2  0  0  0  0
 17 19  1  0  0  0  0
 17 45  1  0  0  0  0
 18 20  1  0  0  0  0
 18 46  1  0  0  0  0
 19 20  2  0  0  0  0
 19 47  1  0  0  0  0
 20 49  1  0  0  0  0
 21 23  1  0  0  0  0
 22 50  1  0  0  0  0
 22 51  1  0  0  0  0
 22 52  1  0  0  0  0
 23 24  2  0  0  0  0
 23 53  1  0  0  0  0
 24 25  1  0  0  0  0
 24 54  1  0  0  0  0
 25 26  1  0  0  0  0
 25 27  2  0  0  0  0
 26 28  2  0  0  0  0
 26 55  1  0  0  0  0
 27 56  1  0  0  0  0
 28 57  1  0  0  0  0
M  END
> <PUBCHEM_COMPOUND_CID>
10905430

> <PUBCHEM_COMPOUND_CANONICALIZED>
1

> <PUBCHEM_CACTVS_COMPLEXITY>
494

> <PUBCHEM_CACTVS_HBOND_ACCEPTOR>
5

> <PUBCHEM_CACTVS_HBOND_DONOR>
1

> <PUBCHEM_CACTVS_ROTATABLE_BOND>
9

> <PUBCHEM_CACTVS_SUBSKEYS>
AAADceB7MABAAAAAAAAAAAAAAAAAASAAAAA8QAAAAAAAAAABwAAAHgQQAAAADAzF2Aayx4PABAiMAiVSUACDCIAhKhBIiJgPbMgOZiLksZuVMChk1hH46YeQQAAIAAAAAAAAEAAAAAAAAAAgAAAAAAAAAA==

> <PUBCHEM_IUPAC_OPENEYE_NAME>
(E)-N-[4-[4-(2-methoxyphenyl)piperazin-1-yl]butyl]-3-(3-thienyl)prop-2-enamide

> <PUBCHEM_IUPAC_CAS_NAME>
(E)-N-[4-[4-(2-methoxyphenyl)-1-piperazinyl]butyl]-3-(3-thiophenyl)-2-propenamide

> <PUBCHEM_IUPAC_NAME_MARKUP>
(<I>E</I>)-<I>N</I>-[4-[4-(2-methoxyphenyl)piperazin-1-yl]butyl]-3-thiophen-3-ylprop-2-enamide

> <PUBCHEM_IUPAC_NAME>
(E)-N-[4-[4-(2-methoxyphenyl)piperazin-1-yl]butyl]-3-thiophen-3-ylprop-2-enamide

> <PUBCHEM_IUPAC_SYSTEMATIC_NAME>
(E)-N-[4-[4-(2-methoxyphenyl)piperazin-1-yl]butyl]-3-thiophen-3-yl-prop-2-enamide

> <PUBCHEM_IUPAC_TRADITIONAL_NAME>
(E)-N-[4-[4-(2-methoxyphenyl)piperazino]butyl]-3-(3-thienyl)acrylamide

> <PUBCHEM_IUPAC_INCHI>
InChI=1S/C22H29N3O2S/c1-27-21-7-3-2-6-20(21)25-15-13-24(14-16-25)12-5-4-11-23-22(26)9-8-19-10-17-28-18-19/h2-3,6-10,17-18H,4-5,11-16H2,1H3,(H,23,26)/b9-8+

> <PUBCHEM_IUPAC_INCHIKEY>
APNJSCJYYJPREB-CMDGGOBGSA-N

> <PUBCHEM_XLOGP3_AA>
3.6

> <PUBCHEM_EXACT_MASS>
399.19804835

> <PUBCHEM_MOLECULAR_FORMULA>
C22H29N3O2S

> <PUBCHEM_MOLECULAR_WEIGHT>
399.6

> <PUBCHEM_OPENEYE_CAN_SMILES>
COC1=CC=CC=C1N2CCN(CC2)CCCCNC(=O)C=CC3=CSC=C3

> <PUBCHEM_OPENEYE_ISO_SMILES>
COC1=CC=CC=C1N2CCN(CC2)CCCCNC(=O)/C=C/C3=CSC=C3

> <PUBCHEM_CACTVS_TPSA>
73

> <PUBCHEM_MONOISOTOPIC_WEIGHT>
399.19804835

> <PUBCHEM_TOTAL_CHARGE>
0

> <PUBCHEM_HEAVY_ATOM_COUNT>
28

> <PUBCHEM_ATOM_DEF_STEREO_COUNT>
0

> <PUBCHEM_ATOM_UDEF_STEREO_COUNT>
0

> <PUBCHEM_BOND_DEF_STEREO_COUNT>
1

> <PUBCHEM_BOND_UDEF_STEREO_COUNT>
0

> <PUBCHEM_ISOTOPIC_ATOM_COUNT>
0

> <PUBCHEM_COMPONENT_COUNT>
1

> <PUBCHEM_CACTVS_TAUTO_COUNT>
-1

> <PUBCHEM_COORDINATE_TYPE>
1
5
255

> <PUBCHEM_BONDANNOTATIONS>
1  27  8
1  28  8
13  16  8
13  17  8
16  18  8
17  19  8
18  20  8
19  20  8
25  26  8
25  27  8
26  28  8

$$$$
