25156686
  -OEChem-09292322502D

 72 75  0     1  0  0  0  0  0999 V2000
   10.7263   -2.7704    0.0000 O   0  0  0  0  0  0  0  0  0  0  0  0
    2.0000   -2.7329    0.0000 O   0  0  0  0  0  0  0  0  0  0  0  0
    2.0000   -0.7329    0.0000 O   0  0  0  0  0  0  0  0  0  0  0  0
    9.0173    3.2362    0.0000 O   0  0  0  0  0  0  0  0  0  0  0  0
    6.3981   -2.2537    0.0000 N   0  0  3  0  0  0  0  0  0  0  0  0
    6.3981   -1.2121    0.0000 C   0  0  0  0  0  0  0  0  0  0  0  0
    5.4920   -2.7676    0.0000 C   0  0  0  0  0  0  0  0  0  0  0  0
    5.4920   -0.6982    0.0000 C   0  0  0  0  0  0  0  0  0  0  0  0
    7.2622   -2.7570    0.0000 C   0  0  0  0  0  0  0  0  0  0  0  0
    4.5981   -2.2329    0.0000 C   0  0  0  0  0  0  0  0  0  0  0  0
    4.5981   -1.2329    0.0000 C   0  0  0  0  0  0  0  0  0  0  0  0
    8.1301   -2.2604    0.0000 C   0  0  0  0  0  0  0  0  0  0  0  0
    8.9942   -2.7637    0.0000 C   0  0  0  0  0  0  0  0  0  0  0  0
    3.7320   -2.7329    0.0000 C   0  0  0  0  0  0  0  0  0  0  0  0
    3.7320   -0.7329    0.0000 C   0  0  0  0  0  0  0  0  0  0  0  0
    2.8660   -2.2329    0.0000 C   0  0  0  0  0  0  0  0  0  0  0  0
    2.8660   -1.2329    0.0000 C   0  0  0  0  0  0  0  0  0  0  0  0
    9.8622   -2.2671    0.0000 C   0  0  0  0  0  0  0  0  0  0  0  0
   11.5942   -2.2737    0.0000 C   0  0  0  0  0  0  0  0  0  0  0  0
   11.5981   -1.2738    0.0000 C   0  0  0  0  0  0  0  0  0  0  0  0
   10.7340   -0.7704    0.0000 C   0  0  0  0  0  0  0  0  0  0  0  0
   10.7378    0.2296    0.0000 C   0  0  0  0  0  0  0  0  0  0  0  0
    2.0000   -3.7329    0.0000 C   0  0  0  0  0  0  0  0  0  0  0  0
    2.0000    0.2671    0.0000 C   0  0  0  0  0  0  0  0  0  0  0  0
   12.4583   -2.7771    0.0000 C   0  0  0  0  0  0  0  0  0  0  0  0
   12.4660   -0.7771    0.0000 C   0  0  0  0  0  0  0  0  0  0  0  0
    9.8737    0.7329    0.0000 C   0  0  0  0  0  0  0  0  0  0  0  0
   13.3262   -2.2804    0.0000 C   0  0  0  0  0  0  0  0  0  0  0  0
   13.3301   -1.2804    0.0000 C   0  0  0  0  0  0  0  0  0  0  0  0
    9.8776    1.7329    0.0000 C   0  0  0  0  0  0  0  0  0  0  0  0
    9.0058    0.2363    0.0000 C   0  0  0  0  0  0  0  0  0  0  0  0
    9.0135    2.2362    0.0000 C   0  0  0  0  0  0  0  0  0  0  0  0
    8.1417    0.7396    0.0000 C   0  0  0  0  0  0  0  0  0  0  0  0
    8.1455    1.7396    0.0000 C   0  0  0  0  0  0  0  0  0  0  0  0
    9.8853    3.7329    0.0000 C   0  0  0  0  0  0  0  0  0  0  0  0
    7.0089   -1.3182    0.0000 H   0  0  0  0  0  0  0  0  0  0  0  0
    6.6071   -0.6284    0.0000 H   0  0  0  0  0  0  0  0  0  0  0  0
    5.0874   -3.2373    0.0000 H   0  0  0  0  0  0  0  0  0  0  0  0
    5.8856   -3.2466    0.0000 H   0  0  0  0  0  0  0  0  0  0  0  0
    5.8856   -0.2192    0.0000 H   0  0  0  0  0  0  0  0  0  0  0  0
    5.0874   -0.2284    0.0000 H   0  0  0  0  0  0  0  0  0  0  0  0
    6.8618   -3.2304    0.0000 H   0  0  0  0  0  0  0  0  0  0  0  0
    7.6589   -3.2335    0.0000 H   0  0  0  0  0  0  0  0  0  0  0  0
    8.5305   -1.7870    0.0000 H   0  0  0  0  0  0  0  0  0  0  0  0
    7.7334   -1.7839    0.0000 H   0  0  0  0  0  0  0  0  0  0  0  0
    8.5939   -3.2371    0.0000 H   0  0  0  0  0  0  0  0  0  0  0  0
    9.3909   -3.2402    0.0000 H   0  0  0  0  0  0  0  0  0  0  0  0
    3.7320   -3.3529    0.0000 H   0  0  0  0  0  0  0  0  0  0  0  0
    3.7320   -0.1129    0.0000 H   0  0  0  0  0  0  0  0  0  0  0  0
   10.2625   -1.7936    0.0000 H   0  0  0  0  0  0  0  0  0  0  0  0
    9.4655   -1.7906    0.0000 H   0  0  0  0  0  0  0  0  0  0  0  0
   10.1238   -0.6604    0.0000 H   0  0  0  0  0  0  0  0  0  0  0  0
   10.5197   -1.3522    0.0000 H   0  0  0  0  0  0  0  0  0  0  0  0
   11.3480    0.1196    0.0000 H   0  0  0  0  0  0  0  0  0  0  0  0
   10.9521    0.8114    0.0000 H   0  0  0  0  0  0  0  0  0  0  0  0
   12.4559   -3.3971    0.0000 H   0  0  0  0  0  0  0  0  0  0  0  0
    1.3800   -3.7329    0.0000 H   0  0  0  0  0  0  0  0  0  0  0  0
    2.0000   -4.3529    0.0000 H   0  0  0  0  0  0  0  0  0  0  0  0
    2.6200   -3.7329    0.0000 H   0  0  0  0  0  0  0  0  0  0  0  0
    2.6200    0.2671    0.0000 H   0  0  0  0  0  0  0  0  0  0  0  0
    2.0000    0.8871    0.0000 H   0  0  0  0  0  0  0  0  0  0  0  0
    1.3800    0.2671    0.0000 H   0  0  0  0  0  0  0  0  0  0  0  0
   12.4684   -0.1571    0.0000 H   0  0  0  0  0  0  0  0  0  0  0  0
   13.8620   -2.5925    0.0000 H   0  0  0  0  0  0  0  0  0  0  0  0
   13.8682   -0.9725    0.0000 H   0  0  0  0  0  0  0  0  0  0  0  0
   10.4157    2.0408    0.0000 H   0  0  0  0  0  0  0  0  0  0  0  0
    9.0034   -0.3837    0.0000 H   0  0  0  0  0  0  0  0  0  0  0  0
    7.6036    0.4317    0.0000 H   0  0  0  0  0  0  0  0  0  0  0  0
    7.6098    2.0516    0.0000 H   0  0  0  0  0  0  0  0  0  0  0  0
   10.1932    3.1948    0.0000 H   0  0  0  0  0  0  0  0  0  0  0  0
   10.4234    4.0408    0.0000 H   0  0  0  0  0  0  0  0  0  0  0  0
    9.5774    4.2710    0.0000 H   0  0  0  0  0  0  0  0  0  0  0  0
  1 18  1  0  0  0  0
  1 19  1  0  0  0  0
  2 16  1  0  0  0  0
  2 23  1  0  0  0  0
  3 17  1  0  0  0  0
  3 24  1  0  0  0  0
  4 32  1  0  0  0  0
  4 35  1  0  0  0  0
  5  6  1  0  0  0  0
  5  7  1  0  0  0  0
  5  9  1  0  0  0  0
  6  8  1  0  0  0  0
  6 36  1  0  0  0  0
  6 37  1  0  0  0  0
  7 10  1  0  0  0  0
  7 38  1  0  0  0  0
  7 39  1  0  0  0  0
  8 11  1  0  0  0  0
  8 40  1  0  0  0  0
  8 41  1  0  0  0  0
  9 12  1  0  0  0  0
  9 42  1  0  0  0  0
  9 43  1  0  0  0  0
 10 11  1  0  0  0  0
 10 14  2  0  0  0  0
 11 15  2  0  0  0  0
 12 13  1  0  0  0  0
 12 44  1  0  0  0  0
 12 45  1  0  0  0  0
 13 18  1  0  0  0  0
 13 46  1  0  0  0  0
 13 47  1  0  0  0  0
 14 16  1  0  0  0  0
 14 48  1  0  0  0  0
 15 17  1  0  0  0  0
 15 49  1  0  0  0  0
 16 17  2  0  0  0  0
 18 50  1  0  0  0  0
 18 51  1  0  0  0  0
 19 20  1  0  0  0  0
 19 25  2  0  0  0  0
 20 21  1  0  0  0  0
 20 26  2  0  0  0  0
 21 22  1  0  0  0  0
 21 52  1  0  0  0  0
 21 53  1  0  0  0  0
 22 27  1  0  0  0  0
 22 54  1  0  0  0  0
 22 55  1  0  0  0  0
 23 57  1  0  0  0  0
 23 58  1  0  0  0  0
 23 59  1  0  0  0  0
 24 60  1  0  0  0  0
 24 61  1  0  0  0  0
 24 62  1  0  0  0  0
 25 28  1  0  0  0  0
 25 56  1  0  0  0  0
 26 29  1  0  0  0  0
 26 63  1  0  0  0  0
 27 30  2  0  0  0  0
 27 31  1  0  0  0  0
 28 29  2  0  0  0  0
 28 64  1  0  0  0  0
 29 65  1  0  0  0  0
 30 32  1  0  0  0  0
 30 66  1  0  0  0  0
 31 33  2  0  0  0  0
 31 67  1  0  0  0  0
 32 34  2  0  0  0  0
 33 34  1  0  0  0  0
 33 68  1  0  0  0  0
 34 69  1  0  0  0  0
 35 70  1  0  0  0  0
 35 71  1  0  0  0  0
 35 72  1  0  0  0  0
M  END
> <PUBCHEM_COMPOUND_CID>
25156686

> <PUBCHEM_COMPOUND_CANONICALIZED>
1

> <PUBCHEM_CACTVS_COMPLEXITY>
589

> <PUBCHEM_CACTVS_HBOND_ACCEPTOR>
5

> <PUBCHEM_CACTVS_HBOND_DONOR>
0

> <PUBCHEM_CACTVS_ROTATABLE_BOND>
12

> <PUBCHEM_CACTVS_SUBSKEYS>
AAADcfB6OAAAAAAAAAAAAAAAAAAAAAAAAAA8YMEAAAAAAACxUAAAHgAAAAAADAThmAYyBoMABACAAiBCAACCCAAgIAAIiAAOjIgNJiKEsRuGOCrkwBGKqAew0PIOoAABAAAYQABAAAIAADCAAAAAAAAAAA==

> <PUBCHEM_IUPAC_OPENEYE_NAME>
6,7-dimethoxy-2-[4-[2-[2-(3-methoxyphenyl)ethyl]phenoxy]butyl]-3,4-dihydro-1H-isoquinoline

> <PUBCHEM_IUPAC_CAS_NAME>
6,7-dimethoxy-2-[4-[2-[2-(3-methoxyphenyl)ethyl]phenoxy]butyl]-3,4-dihydro-1H-isoquinoline

> <PUBCHEM_IUPAC_NAME_MARKUP>
6,7-dimethoxy-2-[4-[2-[2-(3-methoxyphenyl)ethyl]phenoxy]butyl]-3,4-dihydro-1<I>H</I>-isoquinoline

> <PUBCHEM_IUPAC_NAME>
6,7-dimethoxy-2-[4-[2-[2-(3-methoxyphenyl)ethyl]phenoxy]butyl]-3,4-dihydro-1H-isoquinoline

> <PUBCHEM_IUPAC_SYSTEMATIC_NAME>
6,7-dimethoxy-2-[4-[2-[2-(3-methoxyphenyl)ethyl]phenoxy]butyl]-3,4-dihydro-1H-isoquinoline

> <PUBCHEM_IUPAC_TRADITIONAL_NAME>
6,7-dimethoxy-2-[4-[2-[2-(3-methoxyphenyl)ethyl]phenoxy]butyl]-3,4-dihydro-1H-isoquinoline

> <PUBCHEM_IUPAC_INCHI>
InChI=1S/C30H37NO4/c1-32-27-11-8-9-23(19-27)13-14-24-10-4-5-12-28(24)35-18-7-6-16-31-17-15-25-20-29(33-2)30(34-3)21-26(25)22-31/h4-5,8-12,19-21H,6-7,13-18,22H2,1-3H3

> <PUBCHEM_IUPAC_INCHIKEY>
GXAYQOXIRCFABO-UHFFFAOYSA-N

> <PUBCHEM_XLOGP3_AA>
6.3

> <PUBCHEM_EXACT_MASS>
475.27225866

> <PUBCHEM_MOLECULAR_FORMULA>
C30H37NO4

> <PUBCHEM_MOLECULAR_WEIGHT>
475.6

> <PUBCHEM_OPENEYE_CAN_SMILES>
COC1=CC=CC(=C1)CCC2=CC=CC=C2OCCCCN3CCC4=CC(=C(C=C4C3)OC)OC

> <PUBCHEM_OPENEYE_ISO_SMILES>
COC1=CC=CC(=C1)CCC2=CC=CC=C2OCCCCN3CCC4=CC(=C(C=C4C3)OC)OC

> <PUBCHEM_CACTVS_TPSA>
40.2

> <PUBCHEM_MONOISOTOPIC_WEIGHT>
475.27225866

> <PUBCHEM_TOTAL_CHARGE>
0

> <PUBCHEM_HEAVY_ATOM_COUNT>
35

> <PUBCHEM_ATOM_DEF_STEREO_COUNT>
0

> <PUBCHEM_ATOM_UDEF_STEREO_COUNT>
0

> <PUBCHEM_BOND_DEF_STEREO_COUNT>
0

> <PUBCHEM_BOND_UDEF_STEREO_COUNT>
0

> <PUBCHEM_ISOTOPIC_ATOM_COUNT>
0

> <PUBCHEM_COMPONENT_COUNT>
1

> <PUBCHEM_CACTVS_TAUTO_COUNT>
-1

> <PUBCHEM_COORDINATE_TYPE>
1
5
255

> <PUBCHEM_BONDANNOTATIONS>
10  11  8
10  14  8
11  15  8
14  16  8
15  17  8
16  17  8
19  20  8
19  25  8
20  26  8
25  28  8
26  29  8
27  30  8
27  31  8
28  29  8
30  32  8
31  33  8
32  34  8
33  34  8

$$$$
