52940961
  -OEChem-09292322302D

 61 65  0     1  0  0  0  0  0999 V2000
    3.3646    2.1319    0.0000 S   0  0  0  0  0  0  0  0  0  0  0  0
    7.6283   -5.6826    0.0000 F   0  0  0  0  0  0  0  0  0  0  0  0
    6.2935   -6.1497    0.0000 F   0  0  0  0  0  0  0  0  0  0  0  0
    7.1612   -4.3477    0.0000 F   0  0  0  0  0  0  0  0  0  0  0  0
    3.6235   -1.3225    0.0000 N   0  0  3  0  0  0  0  0  0  0  0  0
    4.7824    3.2114    0.0000 N   0  0  0  0  0  0  0  0  0  0  0  0
    3.3246    3.9135    0.0000 N   0  0  0  0  0  0  0  0  0  0  0  0
    4.0157    4.6363    0.0000 N   0  0  0  0  0  0  0  0  0  0  0  0
    7.5285    4.6244    0.0000 N   0  0  0  0  0  0  0  0  0  0  0  0
    7.5584    5.6240    0.0000 N   0  0  0  0  0  0  0  0  0  0  0  0
    3.1235   -3.5132    0.0000 C   0  0  3  0  0  0  0  0  0  0  0  0
    2.2225   -3.0793    0.0000 C   0  0  3  0  0  0  0  0  0  0  0  0
    2.2970   -4.0769    0.0000 C   0  0  0  0  0  0  0  0  0  0  0  0
    4.0245   -3.0793    0.0000 C   0  0  0  0  0  0  0  0  0  0  0  0
    2.0000   -2.1044    0.0000 C   0  0  0  0  0  0  0  0  0  0  0  0
    4.0245   -3.9470    0.0000 C   0  0  0  0  0  0  0  0  0  0  0  0
    4.2470   -2.1044    0.0000 C   0  0  0  0  0  0  0  0  0  0  0  0
    2.6235   -1.3225    0.0000 C   0  0  0  0  0  0  0  0  0  0  0  0
    4.0992   -4.9442    0.0000 C   0  0  0  0  0  0  0  0  0  0  0  0
    4.8507   -3.3837    0.0000 C   0  0  0  0  0  0  0  0  0  0  0  0
    4.0574   -0.4215    0.0000 C   0  0  0  0  0  0  0  0  0  0  0  0
    5.0002   -5.3781    0.0000 C   0  0  0  0  0  0  0  0  0  0  0  0
    5.7517   -3.8176    0.0000 C   0  0  0  0  0  0  0  0  0  0  0  0
    3.4940    0.4047    0.0000 C   0  0  0  0  0  0  0  0  0  0  0  0
    5.8264   -4.8148    0.0000 C   0  0  0  0  0  0  0  0  0  0  0  0
    3.9279    1.3057    0.0000 C   0  0  0  0  0  0  0  0  0  0  0  0
    6.7274   -5.2487    0.0000 C   0  0  0  0  0  0  0  0  0  0  0  0
    3.7985    3.0329    0.0000 C   0  0  0  0  0  0  0  0  0  0  0  0
    4.9167    4.2024    0.0000 C   0  0  0  0  0  0  0  0  0  0  0  0
    5.5052    2.5204    0.0000 C   0  0  0  0  0  0  0  0  0  0  0  0
    5.7973    4.6762    0.0000 C   0  0  0  0  0  0  0  0  0  0  0  0
    5.8272    5.6758    0.0000 C   0  0  0  0  0  0  0  0  0  0  0  0
    6.6479    4.1506    0.0000 C   0  0  0  0  0  0  0  0  0  0  0  0
    6.7078    6.1497    0.0000 C   0  0  0  0  0  0  0  0  0  0  0  0
    1.6094   -3.1716    0.0000 H   0  0  0  0  0  0  0  0  0  0  0  0
    1.6962   -4.2299    0.0000 H   0  0  0  0  0  0  0  0  0  0  0  0
    2.5521   -4.6420    0.0000 H   0  0  0  0  0  0  0  0  0  0  0  0
    4.1624   -3.6837    0.0000 H   0  0  0  0  0  0  0  0  0  0  0  0
    4.6445   -3.0793    0.0000 H   0  0  0  0  0  0  0  0  0  0  0  0
    1.6134   -1.6196    0.0000 H   0  0  0  0  0  0  0  0  0  0  0  0
    1.4414   -2.3734    0.0000 H   0  0  0  0  0  0  0  0  0  0  0  0
    4.8056   -2.3734    0.0000 H   0  0  0  0  0  0  0  0  0  0  0  0
    4.6335   -1.6196    0.0000 H   0  0  0  0  0  0  0  0  0  0  0  0
    2.7614   -0.7181    0.0000 H   0  0  0  0  0  0  0  0  0  0  0  0
    2.0649   -1.0535    0.0000 H   0  0  0  0  0  0  0  0  0  0  0  0
    3.5869   -5.2935    0.0000 H   0  0  0  0  0  0  0  0  0  0  0  0
    4.8044   -2.7655    0.0000 H   0  0  0  0  0  0  0  0  0  0  0  0
    4.5608   -0.7835    0.0000 H   0  0  0  0  0  0  0  0  0  0  0  0
    4.5012    0.0114    0.0000 H   0  0  0  0  0  0  0  0  0  0  0  0
    5.0465   -5.9964    0.0000 H   0  0  0  0  0  0  0  0  0  0  0  0
    6.2639   -3.4684    0.0000 H   0  0  0  0  0  0  0  0  0  0  0  0
    2.9906    0.7666    0.0000 H   0  0  0  0  0  0  0  0  0  0  0  0
    3.0502   -0.0282    0.0000 H   0  0  0  0  0  0  0  0  0  0  0  0
    4.4313    0.9437    0.0000 H   0  0  0  0  0  0  0  0  0  0  0  0
    4.3718    1.7386    0.0000 H   0  0  0  0  0  0  0  0  0  0  0  0
    5.0768    2.0722    0.0000 H   0  0  0  0  0  0  0  0  0  0  0  0
    5.9534    2.0919    0.0000 H   0  0  0  0  0  0  0  0  0  0  0  0
    5.9337    2.9685    0.0000 H   0  0  0  0  0  0  0  0  0  0  0  0
    5.2998    6.0017    0.0000 H   0  0  0  0  0  0  0  0  0  0  0  0
    6.6294    3.5308    0.0000 H   0  0  0  0  0  0  0  0  0  0  0  0
    6.7263    6.7694    0.0000 H   0  0  0  0  0  0  0  0  0  0  0  0
  1 26  1  0  0  0  0
  1 28  1  0  0  0  0
  2 27  1  0  0  0  0
  3 27  1  0  0  0  0
  4 27  1  0  0  0  0
  5 17  1  0  0  0  0
  5 18  1  0  0  0  0
  5 21  1  0  0  0  0
  6 28  1  0  0  0  0
  6 29  1  0  0  0  0
  6 30  1  0  0  0  0
  7  8  1  0  0  0  0
  7 28  2  0  0  0  0
  8 29  2  0  0  0  0
  9 10  2  0  0  0  0
  9 33  1  0  0  0  0
 10 34  1  0  0  0  0
 11 12  1  0  0  0  0
 11 13  1  0  0  0  0
 11 14  1  0  0  0  0
 11 16  1  0  0  0  0
 12 13  1  0  0  0  0
 12 15  1  0  0  0  0
 12 35  1  0  0  0  0
 13 36  1  0  0  0  0
 13 37  1  0  0  0  0
 14 17  1  0  0  0  0
 14 38  1  0  0  0  0
 14 39  1  0  0  0  0
 15 18  1  0  0  0  0
 15 40  1  0  0  0  0
 15 41  1  0  0  0  0
 16 19  2  0  0  0  0
 16 20  1  0  0  0  0
 17 42  1  0  0  0  0
 17 43  1  0  0  0  0
 18 44  1  0  0  0  0
 18 45  1  0  0  0  0
 19 22  1  0  0  0  0
 19 46  1  0  0  0  0
 20 23  2  0  0  0  0
 20 47  1  0  0  0  0
 21 24  1  0  0  0  0
 21 48  1  0  0  0  0
 21 49  1  0  0  0  0
 22 25  2  0  0  0  0
 22 50  1  0  0  0  0
 23 25  1  0  0  0  0
 23 51  1  0  0  0  0
 24 26  1  0  0  0  0
 24 52  1  0  0  0  0
 24 53  1  0  0  0  0
 25 27  1  0  0  0  0
 26 54  1  0  0  0  0
 26 55  1  0  0  0  0
 29 31  1  0  0  0  0
 30 56  1  0  0  0  0
 30 57  1  0  0  0  0
 30 58  1  0  0  0  0
 31 32  1  0  0  0  0
 31 33  2  0  0  0  0
 32 34  2  0  0  0  0
 32 59  1  0  0  0  0
 33 60  1  0  0  0  0
 34 61  1  0  0  0  0
M  END
> <PUBCHEM_COMPOUND_CID>
52940961

> <PUBCHEM_COMPOUND_CANONICALIZED>
1

> <PUBCHEM_CACTVS_COMPLEXITY>
676

> <PUBCHEM_CACTVS_HBOND_ACCEPTOR>
9

> <PUBCHEM_CACTVS_HBOND_DONOR>
0

> <PUBCHEM_CACTVS_ROTATABLE_BOND>
7

> <PUBCHEM_CACTVS_SUBSKEYS>
AAADceB7gYBAAAAAAAAAAAAAGAAAAWAAAAA8QAAABYAWAAAB8AAAHQQIAAAADwDFWxS/kJcMEAiiAjJnZACS1AtggrAd2CA4ZJiIKKKg2ZGEoAhgiAKIyAcQgMAPwAAAAAAAAACAAAAAAAAAAAAAAAAAAA==

> <PUBCHEM_IUPAC_OPENEYE_NAME>
4-[3-[(4-methyl-5-pyridazin-4-yl-1,2,4-triazol-3-yl)sulfanyl]propyl]-1-[4-(trifluoromethyl)phenyl]-4-azabicyclo[5.1.0]octane

> <PUBCHEM_IUPAC_CAS_NAME>
4-[3-[[4-methyl-5-(4-pyridazinyl)-1,2,4-triazol-3-yl]thio]propyl]-1-[4-(trifluoromethyl)phenyl]-4-azabicyclo[5.1.0]octane

> <PUBCHEM_IUPAC_NAME_MARKUP>
4-[3-[(4-methyl-5-pyridazin-4-yl-1,2,4-triazol-3-yl)sulfanyl]propyl]-1-[4-(trifluoromethyl)phenyl]-4-azabicyclo[5.1.0]octane

> <PUBCHEM_IUPAC_NAME>
4-[3-[(4-methyl-5-pyridazin-4-yl-1,2,4-triazol-3-yl)sulfanyl]propyl]-1-[4-(trifluoromethyl)phenyl]-4-azabicyclo[5.1.0]octane

> <PUBCHEM_IUPAC_SYSTEMATIC_NAME>
4-[3-[(4-methyl-5-pyridazin-4-yl-1,2,4-triazol-3-yl)sulfanyl]propyl]-1-[4-(trifluoromethyl)phenyl]-4-azabicyclo[5.1.0]octane

> <PUBCHEM_IUPAC_TRADITIONAL_NAME>
4-[3-[(4-methyl-5-pyridazin-4-yl-1,2,4-triazol-3-yl)thio]propyl]-1-[4-(trifluoromethyl)phenyl]-4-azabicyclo[5.1.0]octane

> <PUBCHEM_IUPAC_INCHI>
InChI=1S/C24H27F3N6S/c1-32-21(17-7-10-28-29-16-17)30-31-22(32)34-14-2-11-33-12-8-20-15-23(20,9-13-33)18-3-5-19(6-4-18)24(25,26)27/h3-7,10,16,20H,2,8-9,11-15H2,1H3

> <PUBCHEM_IUPAC_INCHIKEY>
AYDQEBMCUGUQLW-UHFFFAOYSA-N

> <PUBCHEM_XLOGP3_AA>
4

> <PUBCHEM_EXACT_MASS>
488.19700055

> <PUBCHEM_MOLECULAR_FORMULA>
C24H27F3N6S

> <PUBCHEM_MOLECULAR_WEIGHT>
488.6

> <PUBCHEM_OPENEYE_CAN_SMILES>
CN1C(=NN=C1SCCCN2CCC3CC3(CC2)C4=CC=C(C=C4)C(F)(F)F)C5=CN=NC=C5

> <PUBCHEM_OPENEYE_ISO_SMILES>
CN1C(=NN=C1SCCCN2CCC3CC3(CC2)C4=CC=C(C=C4)C(F)(F)F)C5=CN=NC=C5

> <PUBCHEM_CACTVS_TPSA>
85

> <PUBCHEM_MONOISOTOPIC_WEIGHT>
488.19700055

> <PUBCHEM_TOTAL_CHARGE>
0

> <PUBCHEM_HEAVY_ATOM_COUNT>
34

> <PUBCHEM_ATOM_DEF_STEREO_COUNT>
0

> <PUBCHEM_ATOM_UDEF_STEREO_COUNT>
2

> <PUBCHEM_BOND_DEF_STEREO_COUNT>
0

> <PUBCHEM_BOND_UDEF_STEREO_COUNT>
0

> <PUBCHEM_ISOTOPIC_ATOM_COUNT>
0

> <PUBCHEM_COMPONENT_COUNT>
1

> <PUBCHEM_CACTVS_TAUTO_COUNT>
-1

> <PUBCHEM_COORDINATE_TYPE>
1
5
255

> <PUBCHEM_BONDANNOTATIONS>
10  34  8
11  16  3
12  15  3
16  19  8
16  20  8
19  22  8
20  23  8
22  25  8
23  25  8
31  32  8
31  33  8
32  34  8
6  28  8
6  29  8
7  28  8
7  8  8
8  29  8
9  10  8
9  33  8

$$$$
