121315259
  -OEChem-09292322372D

 56 60  0     1  0  0  0  0  0999 V2000
    2.0933    1.9920    0.0000 S   0  0  0  0  0  0  0  0  0  0  0  0
    8.1922   -5.4444    0.0000 F   0  0  0  0  0  0  0  0  0  0  0  0
    6.8262   -5.8104    0.0000 F   0  0  0  0  0  0  0  0  0  0  0  0
    7.8262   -4.0784    0.0000 F   0  0  0  0  0  0  0  0  0  0  0  0
    4.5532    5.6025    0.0000 O   0  0  0  0  0  0  0  0  0  0  0  0
    2.8621   -0.5396    0.0000 N   0  0  3  0  0  0  0  0  0  0  0  0
    3.4782    3.1135    0.0000 N   0  0  0  0  0  0  0  0  0  0  0  0
    2.0000    3.7716    0.0000 N   0  0  0  0  0  0  0  0  0  0  0  0
    2.6691    4.5148    0.0000 N   0  0  0  0  0  0  0  0  0  0  0  0
    6.0314    4.9444    0.0000 N   0  0  0  0  0  0  0  0  0  0  0  0
    3.3621   -2.0784    0.0000 C   0  0  2  0  0  0  0  0  0  0  0  0
    3.8621   -2.9444    0.0000 C   0  0  2  0  0  0  0  0  0  0  0  0
    2.8621   -2.9444    0.0000 C   0  0  0  0  0  0  0  0  0  0  0  0
    4.1711   -1.4906    0.0000 C   0  0  0  0  0  0  0  0  0  0  0  0
    2.5531   -1.4906    0.0000 C   0  0  0  0  0  0  0  0  0  0  0  0
    3.8621   -0.5396    0.0000 C   0  0  0  0  0  0  0  0  0  0  0  0
    4.7281   -3.4444    0.0000 C   0  0  0  0  0  0  0  0  0  0  0  0
    2.2743    0.2695    0.0000 C   0  0  0  0  0  0  0  0  0  0  0  0
    5.5942   -2.9444    0.0000 C   0  0  0  0  0  0  0  0  0  0  0  0
    4.7281   -4.4444    0.0000 C   0  0  0  0  0  0  0  0  0  0  0  0
    2.6810    1.1830    0.0000 C   0  0  0  0  0  0  0  0  0  0  0  0
    6.4602   -3.4444    0.0000 C   0  0  0  0  0  0  0  0  0  0  0  0
    5.5942   -4.9444    0.0000 C   0  0  0  0  0  0  0  0  0  0  0  0
    6.4602   -4.4444    0.0000 C   0  0  0  0  0  0  0  0  0  0  0  0
    7.3262   -4.9444    0.0000 C   0  0  0  0  0  0  0  0  0  0  0  0
    2.5000    2.9056    0.0000 C   0  0  0  0  0  0  0  0  0  0  0  0
    3.5827    4.1080    0.0000 C   0  0  0  0  0  0  0  0  0  0  0  0
    4.2213    2.4444    0.0000 C   0  0  0  0  0  0  0  0  0  0  0  0
    4.4487    4.6080    0.0000 C   0  0  0  0  0  0  0  0  0  0  0  0
    5.3623    4.2013    0.0000 C   0  0  0  0  0  0  0  0  0  0  0  0
    5.5702    3.2231    0.0000 C   0  0  0  0  0  0  0  0  0  0  0  0
    5.5314    5.8104    0.0000 C   0  0  0  0  0  0  0  0  0  0  0  0
    3.7016   -3.5433    0.0000 H   0  0  0  0  0  0  0  0  0  0  0  0
    2.2795   -2.7324    0.0000 H   0  0  0  0  0  0  0  0  0  0  0  0
    2.7544   -3.5550    0.0000 H   0  0  0  0  0  0  0  0  0  0  0  0
    4.4811   -2.0275    0.0000 H   0  0  0  0  0  0  0  0  0  0  0  0
    4.7375   -1.2384    0.0000 H   0  0  0  0  0  0  0  0  0  0  0  0
    1.9867   -1.2384    0.0000 H   0  0  0  0  0  0  0  0  0  0  0  0
    2.2431   -2.0275    0.0000 H   0  0  0  0  0  0  0  0  0  0  0  0
    4.4685   -0.4106    0.0000 H   0  0  0  0  0  0  0  0  0  0  0  0
    3.7973    0.0771    0.0000 H   0  0  0  0  0  0  0  0  0  0  0  0
    1.7603    0.6162    0.0000 H   0  0  0  0  0  0  0  0  0  0  0  0
    1.8436   -0.1765    0.0000 H   0  0  0  0  0  0  0  0  0  0  0  0
    5.5942   -2.3244    0.0000 H   0  0  0  0  0  0  0  0  0  0  0  0
    4.1912   -4.7544    0.0000 H   0  0  0  0  0  0  0  0  0  0  0  0
    3.1950    0.8363    0.0000 H   0  0  0  0  0  0  0  0  0  0  0  0
    3.1117    1.6290    0.0000 H   0  0  0  0  0  0  0  0  0  0  0  0
    6.9971   -3.1344    0.0000 H   0  0  0  0  0  0  0  0  0  0  0  0
    5.5942   -5.5644    0.0000 H   0  0  0  0  0  0  0  0  0  0  0  0
    3.8064    1.9836    0.0000 H   0  0  0  0  0  0  0  0  0  0  0  0
    4.6820    2.0295    0.0000 H   0  0  0  0  0  0  0  0  0  0  0  0
    4.6362    2.9051    0.0000 H   0  0  0  0  0  0  0  0  0  0  0  0
    4.9637    3.0942    0.0000 H   0  0  0  0  0  0  0  0  0  0  0  0
    5.6991    2.6167    0.0000 H   0  0  0  0  0  0  0  0  0  0  0  0
    6.1766    3.3520    0.0000 H   0  0  0  0  0  0  0  0  0  0  0  0
    5.7836    6.3768    0.0000 H   0  0  0  0  0  0  0  0  0  0  0  0
  1 21  1  0  0  0  0
  1 26  1  0  0  0  0
  2 25  1  0  0  0  0
  3 25  1  0  0  0  0
  4 25  1  0  0  0  0
  5 29  1  0  0  0  0
  5 32  1  0  0  0  0
  6 15  1  0  0  0  0
  6 16  1  0  0  0  0
  6 18  1  0  0  0  0
  7 26  1  0  0  0  0
  7 27  1  0  0  0  0
  7 28  1  0  0  0  0
  8  9  1  0  0  0  0
  8 26  2  0  0  0  0
  9 27  2  0  0  0  0
 10 30  1  0  0  0  0
 10 32  2  0  0  0  0
 11 12  1  0  0  0  0
 11 13  1  6  0  0  0
 11 14  1  0  0  0  0
 11 15  1  0  0  0  0
 12 13  1  0  0  0  0
 12 17  1  1  0  0  0
 12 33  1  0  0  0  0
 13 34  1  0  0  0  0
 13 35  1  0  0  0  0
 14 16  1  0  0  0  0
 14 36  1  0  0  0  0
 14 37  1  0  0  0  0
 15 38  1  0  0  0  0
 15 39  1  0  0  0  0
 16 40  1  0  0  0  0
 16 41  1  0  0  0  0
 17 19  2  0  0  0  0
 17 20  1  0  0  0  0
 18 21  1  0  0  0  0
 18 42  1  0  0  0  0
 18 43  1  0  0  0  0
 19 22  1  0  0  0  0
 19 44  1  0  0  0  0
 20 23  2  0  0  0  0
 20 45  1  0  0  0  0
 21 46  1  0  0  0  0
 21 47  1  0  0  0  0
 22 24  2  0  0  0  0
 22 48  1  0  0  0  0
 23 24  1  0  0  0  0
 23 49  1  0  0  0  0
 24 25  1  0  0  0  0
 27 29  1  0  0  0  0
 28 50  1  0  0  0  0
 28 51  1  0  0  0  0
 28 52  1  0  0  0  0
 29 30  2  0  0  0  0
 30 31  1  0  0  0  0
 31 53  1  0  0  0  0
 31 54  1  0  0  0  0
 31 55  1  0  0  0  0
 32 56  1  0  0  0  0
M  END
> <PUBCHEM_COMPOUND_CID>
121315259

> <PUBCHEM_COMPOUND_CANONICALIZED>
1

> <PUBCHEM_CACTVS_COMPLEXITY>
664

> <PUBCHEM_CACTVS_HBOND_ACCEPTOR>
9

> <PUBCHEM_CACTVS_HBOND_DONOR>
0

> <PUBCHEM_CACTVS_ROTATABLE_BOND>
6

> <PUBCHEM_CACTVS_SUBSKEYS>
AAADceB7oYBAAAAAAAAAAAAAGAAAAWLFgAAwAAAAAAAAAAAB8AAAHwQIAAAADwzF3xa3lJcMFEiqA6Zz9ASS2Ct7YLAd2CG9RJiOKCLE2TCNIChgjALYiAcQgMAPwAAAAAAAAACAAAAAAAAAAAAAAAAAAA==

> <PUBCHEM_IUPAC_OPENEYE_NAME>
4-methyl-5-[4-methyl-5-[2-[(2R,3S)-2-[4-(trifluoromethyl)phenyl]-5-azaspiro[2.4]heptan-5-yl]ethylsulfanyl]-1,2,4-triazol-3-yl]oxazole

> <PUBCHEM_IUPAC_CAS_NAME>
4-methyl-5-[4-methyl-5-[2-[(2R,3S)-2-[4-(trifluoromethyl)phenyl]-5-azaspiro[2.4]heptan-5-yl]ethylthio]-1,2,4-triazol-3-yl]oxazole

> <PUBCHEM_IUPAC_NAME_MARKUP>
4-methyl-5-[4-methyl-5-[2-[(2<I>R</I>,3<I>S</I>)-2-[4-(trifluoromethyl)phenyl]-5-azaspiro[2.4]heptan-5-yl]ethylsulfanyl]-1,2,4-triazol-3-yl]-1,3-oxazole

> <PUBCHEM_IUPAC_NAME>
4-methyl-5-[4-methyl-5-[2-[(2R,3S)-2-[4-(trifluoromethyl)phenyl]-5-azaspiro[2.4]heptan-5-yl]ethylsulfanyl]-1,2,4-triazol-3-yl]-1,3-oxazole

> <PUBCHEM_IUPAC_SYSTEMATIC_NAME>
4-methyl-5-[4-methyl-5-[2-[(2R,3S)-2-[4-(trifluoromethyl)phenyl]-5-azaspiro[2.4]heptan-5-yl]ethylsulfanyl]-1,2,4-triazol-3-yl]-1,3-oxazole

> <PUBCHEM_IUPAC_TRADITIONAL_NAME>
4-methyl-5-[4-methyl-5-[2-[(2R,3S)-2-[4-(trifluoromethyl)phenyl]-5-azaspiro[2.4]heptan-5-yl]ethylthio]-1,2,4-triazol-3-yl]oxazole

> <PUBCHEM_IUPAC_INCHI>
InChI=1S/C22H24F3N5OS/c1-14-18(31-13-26-14)19-27-28-20(29(19)2)32-10-9-30-8-7-21(12-30)11-17(21)15-3-5-16(6-4-15)22(23,24)25/h3-6,13,17H,7-12H2,1-2H3/t17-,21+/m1/s1

> <PUBCHEM_IUPAC_INCHIKEY>
KLQDZSYTMPJBBU-UTKZUKDTSA-N

> <PUBCHEM_XLOGP3_AA>
3.8

> <PUBCHEM_EXACT_MASS>
463.16536607

> <PUBCHEM_MOLECULAR_FORMULA>
C22H24F3N5OS

> <PUBCHEM_MOLECULAR_WEIGHT>
463.5

> <PUBCHEM_OPENEYE_CAN_SMILES>
CC1=C(OC=N1)C2=NN=C(N2C)SCCN3CCC4(C3)CC4C5=CC=C(C=C5)C(F)(F)F

> <PUBCHEM_OPENEYE_ISO_SMILES>
CC1=C(OC=N1)C2=NN=C(N2C)SCCN3CC[C@@]4(C3)C[C@@H]4C5=CC=C(C=C5)C(F)(F)F

> <PUBCHEM_CACTVS_TPSA>
85.3

> <PUBCHEM_MONOISOTOPIC_WEIGHT>
463.16536607

> <PUBCHEM_TOTAL_CHARGE>
0

> <PUBCHEM_HEAVY_ATOM_COUNT>
32

> <PUBCHEM_ATOM_DEF_STEREO_COUNT>
2

> <PUBCHEM_ATOM_UDEF_STEREO_COUNT>
0

> <PUBCHEM_BOND_DEF_STEREO_COUNT>
0

> <PUBCHEM_BOND_UDEF_STEREO_COUNT>
0

> <PUBCHEM_ISOTOPIC_ATOM_COUNT>
0

> <PUBCHEM_COMPONENT_COUNT>
1

> <PUBCHEM_CACTVS_TAUTO_COUNT>
-1

> <PUBCHEM_COORDINATE_TYPE>
1
5
255

> <PUBCHEM_BONDANNOTATIONS>
10  30  8
10  32  8
11  13  6
12  17  5
17  19  8
17  20  8
19  22  8
20  23  8
22  24  8
23  24  8
29  30  8
5  29  8
5  32  8
7  26  8
7  27  8
8  26  8
8  9  8
9  27  8

$$$$
