156013612
  -OEChem-09292322422D

 59 63  0     0  0  0  0  0  0999 V2000
    4.6783   -5.1826    0.0000 S   0  0  0  0  0  0  0  0  0  0  0  0
    9.7884    3.6991    0.0000 S   0  0  0  0  0  0  0  0  0  0  0  0
   11.1720    4.8131    0.0000 O   0  0  0  0  0  0  0  0  0  0  0  0
    5.6103   -0.7216    0.0000 N   0  0  0  0  0  0  0  0  0  0  0  0
    4.9889   -2.6227    0.0000 N   0  0  0  0  0  0  0  0  0  0  0  0
    5.2619   -4.3779    0.0000 N   0  0  0  0  0  0  0  0  0  0  0  0
   11.5039    3.2382    0.0000 N   0  0  0  0  0  0  0  0  0  0  0  0
    6.2781   -1.4659    0.0000 C   0  0  0  0  0  0  0  0  0  0  0  0
    4.6318   -0.9278    0.0000 C   0  0  0  0  0  0  0  0  0  0  0  0
    5.9674   -2.4164    0.0000 C   0  0  0  0  0  0  0  0  0  0  0  0
    4.3211   -1.8784    0.0000 C   0  0  0  0  0  0  0  0  0  0  0  0
    5.9209    0.2289    0.0000 C   0  0  0  0  0  0  0  0  0  0  0  0
    6.8994    0.4351    0.0000 C   0  0  0  0  0  0  0  0  0  0  0  0
    7.2101    1.3856    0.0000 C   0  0  0  0  0  0  0  0  0  0  0  0
    4.6783   -3.5732    0.0000 C   0  0  0  0  0  0  0  0  0  0  0  0
    8.1886    1.5919    0.0000 C   0  0  0  0  0  0  0  0  0  0  0  0
    3.7320   -3.8779    0.0000 C   0  0  0  0  0  0  0  0  0  0  0  0
    8.4993    2.5424    0.0000 C   0  0  0  0  0  0  0  0  0  0  0  0
    3.7320   -4.8779    0.0000 C   0  0  0  0  0  0  0  0  0  0  0  0
    9.4778    2.7486    0.0000 C   0  0  0  0  0  0  0  0  0  0  0  0
    2.8660   -3.3779    0.0000 C   0  0  0  0  0  0  0  0  0  0  0  0
    2.8660   -5.3779    0.0000 C   0  0  0  0  0  0  0  0  0  0  0  0
    2.0000   -3.8779    0.0000 C   0  0  0  0  0  0  0  0  0  0  0  0
    2.0000   -4.8779    0.0000 C   0  0  0  0  0  0  0  0  0  0  0  0
   10.7669    3.9053    0.0000 C   0  0  0  0  0  0  0  0  0  0  0  0
   12.1608    4.7101    0.0000 C   0  0  0  0  0  0  0  0  0  0  0  0
   12.3670    3.7316    0.0000 C   0  0  0  0  0  0  0  0  0  0  0  0
   12.9051    5.3779    0.0000 C   0  0  0  0  0  0  0  0  0  0  0  0
   13.3175    3.4209    0.0000 C   0  0  0  0  0  0  0  0  0  0  0  0
   13.8556    5.0672    0.0000 C   0  0  0  0  0  0  0  0  0  0  0  0
   14.0618    4.0887    0.0000 C   0  0  0  0  0  0  0  0  0  0  0  0
    6.8250   -1.7579    0.0000 H   0  0  0  0  0  0  0  0  0  0  0  0
    6.6607   -0.9780    0.0000 H   0  0  0  0  0  0  0  0  0  0  0  0
    4.6112   -0.3082    0.0000 H   0  0  0  0  0  0  0  0  0  0  0  0
    4.0179   -0.8405    0.0000 H   0  0  0  0  0  0  0  0  0  0  0  0
    5.9880   -3.0361    0.0000 H   0  0  0  0  0  0  0  0  0  0  0  0
    6.5812   -2.5038    0.0000 H   0  0  0  0  0  0  0  0  0  0  0  0
    3.7742   -1.5863    0.0000 H   0  0  0  0  0  0  0  0  0  0  0  0
    3.9385   -2.3663    0.0000 H   0  0  0  0  0  0  0  0  0  0  0  0
    5.9004    0.8486    0.0000 H   0  0  0  0  0  0  0  0  0  0  0  0
    5.3071    0.3163    0.0000 H   0  0  0  0  0  0  0  0  0  0  0  0
    6.9200   -0.1845    0.0000 H   0  0  0  0  0  0  0  0  0  0  0  0
    7.5132    0.3478    0.0000 H   0  0  0  0  0  0  0  0  0  0  0  0
    7.1895    2.0053    0.0000 H   0  0  0  0  0  0  0  0  0  0  0  0
    6.5963    1.4730    0.0000 H   0  0  0  0  0  0  0  0  0  0  0  0
    8.2092    0.9722    0.0000 H   0  0  0  0  0  0  0  0  0  0  0  0
    8.8024    1.5045    0.0000 H   0  0  0  0  0  0  0  0  0  0  0  0
    8.4787    3.1620    0.0000 H   0  0  0  0  0  0  0  0  0  0  0  0
    7.8854    2.6297    0.0000 H   0  0  0  0  0  0  0  0  0  0  0  0
    9.4983    2.1289    0.0000 H   0  0  0  0  0  0  0  0  0  0  0  0
   10.0916    2.6612    0.0000 H   0  0  0  0  0  0  0  0  0  0  0  0
    2.8660   -2.7579    0.0000 H   0  0  0  0  0  0  0  0  0  0  0  0
    2.8660   -5.9979    0.0000 H   0  0  0  0  0  0  0  0  0  0  0  0
    1.4631   -3.5679    0.0000 H   0  0  0  0  0  0  0  0  0  0  0  0
    1.4631   -5.1879    0.0000 H   0  0  0  0  0  0  0  0  0  0  0  0
   12.7772    5.9846    0.0000 H   0  0  0  0  0  0  0  0  0  0  0  0
   13.4454    2.8142    0.0000 H   0  0  0  0  0  0  0  0  0  0  0  0
   14.3171    5.4813    0.0000 H   0  0  0  0  0  0  0  0  0  0  0  0
   14.6511    3.8961    0.0000 H   0  0  0  0  0  0  0  0  0  0  0  0
  1  6  1  0  0  0  0
  1 19  1  0  0  0  0
  2 20  1  0  0  0  0
  2 25  1  0  0  0  0
  3 25  1  0  0  0  0
  3 26  1  0  0  0  0
  4  8  1  0  0  0  0
  4  9  1  0  0  0  0
  4 12  1  0  0  0  0
  5 10  1  0  0  0  0
  5 11  1  0  0  0  0
  5 15  1  0  0  0  0
  6 15  2  0  0  0  0
  7 25  2  0  0  0  0
  7 27  1  0  0  0  0
  8 10  1  0  0  0  0
  8 32  1  0  0  0  0
  8 33  1  0  0  0  0
  9 11  1  0  0  0  0
  9 34  1  0  0  0  0
  9 35  1  0  0  0  0
 10 36  1  0  0  0  0
 10 37  1  0  0  0  0
 11 38  1  0  0  0  0
 11 39  1  0  0  0  0
 12 13  1  0  0  0  0
 12 40  1  0  0  0  0
 12 41  1  0  0  0  0
 13 14  1  0  0  0  0
 13 42  1  0  0  0  0
 13 43  1  0  0  0  0
 14 16  1  0  0  0  0
 14 44  1  0  0  0  0
 14 45  1  0  0  0  0
 15 17  1  0  0  0  0
 16 18  1  0  0  0  0
 16 46  1  0  0  0  0
 16 47  1  0  0  0  0
 17 19  1  0  0  0  0
 17 21  2  0  0  0  0
 18 20  1  0  0  0  0
 18 48  1  0  0  0  0
 18 49  1  0  0  0  0
 19 22  2  0  0  0  0
 20 50  1  0  0  0  0
 20 51  1  0  0  0  0
 21 23  1  0  0  0  0
 21 52  1  0  0  0  0
 22 24  1  0  0  0  0
 22 53  1  0  0  0  0
 23 24  2  0  0  0  0
 23 54  1  0  0  0  0
 24 55  1  0  0  0  0
 26 27  1  0  0  0  0
 26 28  2  0  0  0  0
 27 29  2  0  0  0  0
 28 30  1  0  0  0  0
 28 56  1  0  0  0  0
 29 31  1  0  0  0  0
 29 57  1  0  0  0  0
 30 31  2  0  0  0  0
 30 58  1  0  0  0  0
 31 59  1  0  0  0  0
M  END
> <PUBCHEM_COMPOUND_CID>
156013612

> <PUBCHEM_COMPOUND_CANONICALIZED>
1

> <PUBCHEM_CACTVS_COMPLEXITY>
548

> <PUBCHEM_CACTVS_HBOND_ACCEPTOR>
7

> <PUBCHEM_CACTVS_HBOND_DONOR>
0

> <PUBCHEM_CACTVS_ROTATABLE_BOND>
9

> <PUBCHEM_CACTVS_SUBSKEYS>
AAADceB7oABgAAAAAAAAAAAAAAAAAWLAAAA8YIAAAAAAAFgB/gAAHgQAQAAADAzF3gSx9/MIFEisA6ZydASD2DBvYjBJmDm/bNiOZrLkvbudMSxkxBPY6YeYyAAOAAAAAAAEEAAAAAAAAAggAAAAAAAAAA==

> <PUBCHEM_IUPAC_OPENEYE_NAME>
2-[6-[4-(1,2-benzothiazol-3-yl)piperazin-1-yl]hexylsulfanyl]-1,3-benzoxazole

> <PUBCHEM_IUPAC_CAS_NAME>
2-[6-[4-(1,2-benzothiazol-3-yl)-1-piperazinyl]hexylthio]-1,3-benzoxazole

> <PUBCHEM_IUPAC_NAME_MARKUP>
2-[6-[4-(1,2-benzothiazol-3-yl)piperazin-1-yl]hexylsulfanyl]-1,3-benzoxazole

> <PUBCHEM_IUPAC_NAME>
2-[6-[4-(1,2-benzothiazol-3-yl)piperazin-1-yl]hexylsulfanyl]-1,3-benzoxazole

> <PUBCHEM_IUPAC_SYSTEMATIC_NAME>
2-[6-[4-(1,2-benzothiazol-3-yl)piperazin-1-yl]hexylsulfanyl]-1,3-benzoxazole

> <PUBCHEM_IUPAC_TRADITIONAL_NAME>
2-[6-[4-(1,2-benzothiazol-3-yl)piperazino]hexylthio]-1,3-benzoxazole

> <PUBCHEM_IUPAC_INCHI>
InChI=1S/C24H28N4OS2/c1(2-8-18-30-24-25-20-10-4-5-11-21(20)29-24)7-13-27-14-16-28(17-15-27)23-19-9-3-6-12-22(19)31-26-23/h3-6,9-12H,1-2,7-8,13-18H2

> <PUBCHEM_IUPAC_INCHIKEY>
JGJOJEUMPBPYKM-UHFFFAOYSA-N

> <PUBCHEM_XLOGP3_AA>
6.4

> <PUBCHEM_EXACT_MASS>
452.17045388

> <PUBCHEM_MOLECULAR_FORMULA>
C24H28N4OS2

> <PUBCHEM_MOLECULAR_WEIGHT>
452.6

> <PUBCHEM_OPENEYE_CAN_SMILES>
C1CN(CCN1CCCCCCSC2=NC3=CC=CC=C3O2)C4=NSC5=CC=CC=C54

> <PUBCHEM_OPENEYE_ISO_SMILES>
C1CN(CCN1CCCCCCSC2=NC3=CC=CC=C3O2)C4=NSC5=CC=CC=C54

> <PUBCHEM_CACTVS_TPSA>
98.9

> <PUBCHEM_MONOISOTOPIC_WEIGHT>
452.17045388

> <PUBCHEM_TOTAL_CHARGE>
0

> <PUBCHEM_HEAVY_ATOM_COUNT>
31

> <PUBCHEM_ATOM_DEF_STEREO_COUNT>
0

> <PUBCHEM_ATOM_UDEF_STEREO_COUNT>
0

> <PUBCHEM_BOND_DEF_STEREO_COUNT>
0

> <PUBCHEM_BOND_UDEF_STEREO_COUNT>
0

> <PUBCHEM_ISOTOPIC_ATOM_COUNT>
0

> <PUBCHEM_COMPONENT_COUNT>
1

> <PUBCHEM_CACTVS_TAUTO_COUNT>
-1

> <PUBCHEM_COORDINATE_TYPE>
1
5
255

> <PUBCHEM_BONDANNOTATIONS>
1  19  8
1  6  8
15  17  8
17  19  8
17  21  8
19  22  8
21  23  8
22  24  8
23  24  8
26  27  8
26  28  8
27  29  8
28  30  8
29  31  8
3  25  8
3  26  8
30  31  8
6  15  8
7  25  8
7  27  8

$$$$
