45267251
  -OEChem-09292322282D

 44 47  0     0  0  0  0  0  0999 V2000
   10.7097   -2.7653    0.0000 Cl  0  0  0  0  0  0  0  0  0  0  0  0
   12.5368   -1.9518    0.0000 F   0  0  0  0  0  0  0  0  0  0  0  0
    8.0406   -0.8608    0.0000 O   0  0  0  0  0  0  0  0  0  0  0  0
    5.2619    1.7653    0.0000 N   0  0  0  0  0  0  0  0  0  0  0  0
    7.7619    0.8993    0.0000 N   0  0  0  0  0  0  0  0  0  0  0  0
    9.3007    0.3993    0.0000 N   0  0  0  0  0  0  0  0  0  0  0  0
    6.2619    1.7653    0.0000 C   0  0  0  0  0  0  0  0  0  0  0  0
    6.7619    0.8993    0.0000 C   0  0  0  0  0  0  0  0  0  0  0  0
    4.6783    2.5700    0.0000 C   0  0  0  0  0  0  0  0  0  0  0  0
    4.6783    0.9606    0.0000 C   0  0  0  0  0  0  0  0  0  0  0  0
    8.3497    1.7083    0.0000 C   0  0  0  0  0  0  0  0  0  0  0  0
    3.7320    2.2653    0.0000 C   0  0  0  0  0  0  0  0  0  0  0  0
    3.7320    1.2653    0.0000 C   0  0  0  0  0  0  0  0  0  0  0  0
    9.3007    1.3993    0.0000 C   0  0  0  0  0  0  0  0  0  0  0  0
    8.3497    0.0903    0.0000 C   0  0  0  0  0  0  0  0  0  0  0  0
    2.8660    2.7653    0.0000 C   0  0  0  0  0  0  0  0  0  0  0  0
    2.8660    0.7653    0.0000 C   0  0  0  0  0  0  0  0  0  0  0  0
   10.1097   -0.1885    0.0000 C   0  0  0  0  0  0  0  0  0  0  0  0
    2.0000    2.2653    0.0000 C   0  0  0  0  0  0  0  0  0  0  0  0
    2.0000    1.2653    0.0000 C   0  0  0  0  0  0  0  0  0  0  0  0
   10.0052   -1.1830    0.0000 C   0  0  0  0  0  0  0  0  0  0  0  0
   11.0233    0.2182    0.0000 C   0  0  0  0  0  0  0  0  0  0  0  0
   10.8142   -1.7708    0.0000 C   0  0  0  0  0  0  0  0  0  0  0  0
   11.8323   -0.3695    0.0000 C   0  0  0  0  0  0  0  0  0  0  0  0
   11.7278   -1.3641    0.0000 C   0  0  0  0  0  0  0  0  0  0  0  0
    6.8445    1.9774    0.0000 H   0  0  0  0  0  0  0  0  0  0  0  0
    6.1542    2.3759    0.0000 H   0  0  0  0  0  0  0  0  0  0  0  0
    6.1793    0.6872    0.0000 H   0  0  0  0  0  0  0  0  0  0  0  0
    6.8695    0.2887    0.0000 H   0  0  0  0  0  0  0  0  0  0  0  0
    5.2156    2.8793    0.0000 H   0  0  0  0  0  0  0  0  0  0  0  0
    4.4272    3.1370    0.0000 H   0  0  0  0  0  0  0  0  0  0  0  0
    4.4272    0.3937    0.0000 H   0  0  0  0  0  0  0  0  0  0  0  0
    5.2156    0.6514    0.0000 H   0  0  0  0  0  0  0  0  0  0  0  0
    8.6018    2.2747    0.0000 H   0  0  0  0  0  0  0  0  0  0  0  0
    7.8127    2.0183    0.0000 H   0  0  0  0  0  0  0  0  0  0  0  0
    9.9173    1.3345    0.0000 H   0  0  0  0  0  0  0  0  0  0  0  0
    9.4296    2.0058    0.0000 H   0  0  0  0  0  0  0  0  0  0  0  0
    2.8660    3.3853    0.0000 H   0  0  0  0  0  0  0  0  0  0  0  0
    2.8660    0.1453    0.0000 H   0  0  0  0  0  0  0  0  0  0  0  0
    1.4631    2.5753    0.0000 H   0  0  0  0  0  0  0  0  0  0  0  0
    1.4631    0.9553    0.0000 H   0  0  0  0  0  0  0  0  0  0  0  0
    9.4388   -1.4352    0.0000 H   0  0  0  0  0  0  0  0  0  0  0  0
   11.0881    0.8348    0.0000 H   0  0  0  0  0  0  0  0  0  0  0  0
   12.3987   -0.1174    0.0000 H   0  0  0  0  0  0  0  0  0  0  0  0
  1 23  1  0  0  0  0
  2 25  1  0  0  0  0
  3 15  2  0  0  0  0
  4  7  1  0  0  0  0
  4  9  1  0  0  0  0
  4 10  1  0  0  0  0
  5  8  1  0  0  0  0
  5 11  1  0  0  0  0
  5 15  1  0  0  0  0
  6 14  1  0  0  0  0
  6 15  1  0  0  0  0
  6 18  1  0  0  0  0
  7  8  1  0  0  0  0
  7 26  1  0  0  0  0
  7 27  1  0  0  0  0
  8 28  1  0  0  0  0
  8 29  1  0  0  0  0
  9 12  1  0  0  0  0
  9 30  1  0  0  0  0
  9 31  1  0  0  0  0
 10 13  1  0  0  0  0
 10 32  1  0  0  0  0
 10 33  1  0  0  0  0
 11 14  1  0  0  0  0
 11 34  1  0  0  0  0
 11 35  1  0  0  0  0
 12 13  1  0  0  0  0
 12 16  2  0  0  0  0
 13 17  2  0  0  0  0
 14 36  1  0  0  0  0
 14 37  1  0  0  0  0
 16 19  1  0  0  0  0
 16 38  1  0  0  0  0
 17 20  1  0  0  0  0
 17 39  1  0  0  0  0
 18 21  2  0  0  0  0
 18 22  1  0  0  0  0
 19 20  2  0  0  0  0
 19 40  1  0  0  0  0
 20 41  1  0  0  0  0
 21 23  1  0  0  0  0
 21 42  1  0  0  0  0
 22 24  2  0  0  0  0
 22 43  1  0  0  0  0
 23 25  2  0  0  0  0
 24 25  1  0  0  0  0
 24 44  1  0  0  0  0
M  END
> <PUBCHEM_COMPOUND_CID>
45267251

> <PUBCHEM_COMPOUND_CANONICALIZED>
1

> <PUBCHEM_CACTVS_COMPLEXITY>
479

> <PUBCHEM_CACTVS_HBOND_ACCEPTOR>
3

> <PUBCHEM_CACTVS_HBOND_DONOR>
0

> <PUBCHEM_CACTVS_ROTATABLE_BOND>
4

> <PUBCHEM_CACTVS_SUBSKEYS>
AAADceB7IQAEAAAAAAAAAAAAAAAAAWLAAAAwYAAAAAAAAFgBQAAAHwIAAAAADArBGCwxwIMAAACIAiRCUACCAAAhBwAIiAAIZoiIYCLBk5GUIAhohgLIyCcQgIAOgAAAAAIQAAAAAAAABCAAAAAAAAAAAA==

> <PUBCHEM_IUPAC_OPENEYE_NAME>
1-(3-chloro-4-fluoro-phenyl)-3-(2-isoindolin-2-ylethyl)imidazolidin-2-one

> <PUBCHEM_IUPAC_CAS_NAME>
1-(3-chloro-4-fluorophenyl)-3-[2-(1,3-dihydroisoindol-2-yl)ethyl]-2-imidazolidinone

> <PUBCHEM_IUPAC_NAME_MARKUP>
1-(3-chloro-4-fluorophenyl)-3-[2-(1,3-dihydroisoindol-2-yl)ethyl]imidazolidin-2-one

> <PUBCHEM_IUPAC_NAME>
1-(3-chloro-4-fluorophenyl)-3-[2-(1,3-dihydroisoindol-2-yl)ethyl]imidazolidin-2-one

> <PUBCHEM_IUPAC_SYSTEMATIC_NAME>
1-(3-chloranyl-4-fluoranyl-phenyl)-3-[2-(1,3-dihydroisoindol-2-yl)ethyl]imidazolidin-2-one

> <PUBCHEM_IUPAC_TRADITIONAL_NAME>
1-(3-chloro-4-fluoro-phenyl)-3-(2-isoindolin-2-ylethyl)-2-imidazolidinone

> <PUBCHEM_IUPAC_INCHI>
InChI=1S/C19H19ClFN3O/c20-17-11-16(5-6-18(17)21)24-10-9-23(19(24)25)8-7-22-12-14-3-1-2-4-15(14)13-22/h1-6,11H,7-10,12-13H2

> <PUBCHEM_IUPAC_INCHIKEY>
QOQUTGPQLQCUSD-UHFFFAOYSA-N

> <PUBCHEM_XLOGP3_AA>
2.9

> <PUBCHEM_EXACT_MASS>
359.1200681

> <PUBCHEM_MOLECULAR_FORMULA>
C19H19ClFN3O

> <PUBCHEM_MOLECULAR_WEIGHT>
359.8

> <PUBCHEM_OPENEYE_CAN_SMILES>
C1CN(C(=O)N1CCN2CC3=CC=CC=C3C2)C4=CC(=C(C=C4)F)Cl

> <PUBCHEM_OPENEYE_ISO_SMILES>
C1CN(C(=O)N1CCN2CC3=CC=CC=C3C2)C4=CC(=C(C=C4)F)Cl

> <PUBCHEM_CACTVS_TPSA>
26.8

> <PUBCHEM_MONOISOTOPIC_WEIGHT>
359.1200681

> <PUBCHEM_TOTAL_CHARGE>
0

> <PUBCHEM_HEAVY_ATOM_COUNT>
25

> <PUBCHEM_ATOM_DEF_STEREO_COUNT>
0

> <PUBCHEM_ATOM_UDEF_STEREO_COUNT>
0

> <PUBCHEM_BOND_DEF_STEREO_COUNT>
0

> <PUBCHEM_BOND_UDEF_STEREO_COUNT>
0

> <PUBCHEM_ISOTOPIC_ATOM_COUNT>
0

> <PUBCHEM_COMPONENT_COUNT>
1

> <PUBCHEM_CACTVS_TAUTO_COUNT>
-1

> <PUBCHEM_COORDINATE_TYPE>
1
5
255

> <PUBCHEM_BONDANNOTATIONS>
12  13  8
12  16  8
13  17  8
16  19  8
17  20  8
18  21  8
18  22  8
19  20  8
21  23  8
22  24  8
23  25  8
24  25  8

$$$$
