11585248
  -OEChem-09292322262D

 72 77  0     1  0  0  0  0  0999 V2000
    6.4300   -6.2027    0.0000 Br  0  0  0  0  0  0  0  0  0  0  0  0
    6.7062    1.7399    0.0000 S   0  0  0  0  0  0  0  0  0  0  0  0
    4.4887   -7.1745    0.0000 O   0  0  0  0  0  0  0  0  0  0  0  0
    6.2062   -2.5902    0.0000 N   0  0  3  0  0  0  0  0  0  0  0  0
    3.0949   -6.3698    0.0000 N   0  0  0  0  0  0  0  0  0  0  0  0
    5.2117    2.7105    0.0000 N   0  0  0  0  0  0  0  0  0  0  0  0
    6.6130    3.5195    0.0000 N   0  0  0  0  0  0  0  0  0  0  0  0
    5.8698    4.1886    0.0000 N   0  0  0  0  0  0  0  0  0  0  0  0
    2.9473    6.5307    0.0000 N   0  0  0  0  0  0  0  0  0  0  0  0
    6.7598   -3.3998    0.0000 C   0  0  0  0  0  0  0  0  0  0  0  0
    5.2283   -2.5156    0.0000 C   0  0  0  0  0  0  0  0  0  0  0  0
    6.4745   -4.3382    0.0000 C   0  0  0  0  0  0  0  0  0  0  0  0
    4.5583   -3.2319    0.0000 C   0  0  0  0  0  0  0  0  0  0  0  0
    6.7062   -1.7242    0.0000 C   0  0  0  0  0  0  0  0  0  0  0  0
    5.5640   -4.7027    0.0000 C   0  0  0  0  0  0  0  0  0  0  0  0
    4.6979   -4.2027    0.0000 C   0  0  0  0  0  0  0  0  0  0  0  0
    6.2062   -0.8582    0.0000 C   0  0  0  0  0  0  0  0  0  0  0  0
    5.5640   -5.7027    0.0000 C   0  0  0  0  0  0  0  0  0  0  0  0
    3.8319   -4.7027    0.0000 C   0  0  0  0  0  0  0  0  0  0  0  0
    6.7062    0.0079    0.0000 C   0  0  0  0  0  0  0  0  0  0  0  0
    4.6979   -6.2027    0.0000 C   0  0  0  0  0  0  0  0  0  0  0  0
    3.8319   -5.7027    0.0000 C   0  0  0  0  0  0  0  0  0  0  0  0
    6.2062    0.8739    0.0000 C   0  0  0  0  0  0  0  0  0  0  0  0
    3.5000   -7.2776    0.0000 C   0  0  0  0  0  0  0  0  0  0  0  0
    3.0000   -8.1436    0.0000 C   0  0  0  0  0  0  0  0  0  0  0  0
    6.2062    2.6059    0.0000 C   0  0  0  0  0  0  0  0  0  0  0  0
    2.0000   -8.1436    0.0000 C   0  0  0  0  0  0  0  0  0  0  0  0
    5.0038    3.6886    0.0000 C   0  0  0  0  0  0  0  0  0  0  0  0
    4.0902    4.0954    0.0000 C   0  0  0  0  0  0  0  0  0  0  0  0
    3.9857    5.0899    0.0000 C   0  0  0  0  0  0  0  0  0  0  0  0
    4.5426    1.9673    0.0000 C   0  0  0  0  0  0  0  0  0  0  0  0
    3.0722    5.4966    0.0000 C   0  0  0  0  0  0  0  0  0  0  0  0
    3.2812    3.5076    0.0000 C   0  0  0  0  0  0  0  0  0  0  0  0
    4.8378    5.6891    0.0000 C   0  0  0  0  0  0  0  0  0  0  0  0
    2.2632    4.9088    0.0000 C   0  0  0  0  0  0  0  0  0  0  0  0
    2.3677    3.9143    0.0000 C   0  0  0  0  0  0  0  0  0  0  0  0
    4.7369    6.7258    0.0000 C   0  0  0  0  0  0  0  0  0  0  0  0
    3.7853    7.1495    0.0000 C   0  0  0  0  0  0  0  0  0  0  0  0
    3.6769    8.1436    0.0000 C   0  0  0  0  0  0  0  0  0  0  0  0
    7.2977   -3.7082    0.0000 H   0  0  0  0  0  0  0  0  0  0  0  0
    7.1805   -2.9444    0.0000 H   0  0  0  0  0  0  0  0  0  0  0  0
    5.4124   -1.9236    0.0000 H   0  0  0  0  0  0  0  0  0  0  0  0
    4.6923   -2.2039    0.0000 H   0  0  0  0  0  0  0  0  0  0  0  0
    6.5705   -4.9508    0.0000 H   0  0  0  0  0  0  0  0  0  0  0  0
    7.0930   -4.3815    0.0000 H   0  0  0  0  0  0  0  0  0  0  0  0
    4.2116   -2.7179    0.0000 H   0  0  0  0  0  0  0  0  0  0  0  0
    3.9798   -3.4550    0.0000 H   0  0  0  0  0  0  0  0  0  0  0  0
    7.1812   -2.1227    0.0000 H   0  0  0  0  0  0  0  0  0  0  0  0
    7.1812   -1.3257    0.0000 H   0  0  0  0  0  0  0  0  0  0  0  0
    5.7313   -0.4596    0.0000 H   0  0  0  0  0  0  0  0  0  0  0  0
    5.7313   -1.2567    0.0000 H   0  0  0  0  0  0  0  0  0  0  0  0
    3.2950   -4.3927    0.0000 H   0  0  0  0  0  0  0  0  0  0  0  0
    7.1812   -0.3907    0.0000 H   0  0  0  0  0  0  0  0  0  0  0  0
    7.1812    0.4064    0.0000 H   0  0  0  0  0  0  0  0  0  0  0  0
    5.7313    1.2724    0.0000 H   0  0  0  0  0  0  0  0  0  0  0  0
    5.7313    0.4754    0.0000 H   0  0  0  0  0  0  0  0  0  0  0  0
    2.8923   -8.7542    0.0000 H   0  0  0  0  0  0  0  0  0  0  0  0
    3.5826   -8.3556    0.0000 H   0  0  0  0  0  0  0  0  0  0  0  0
    2.0000   -7.5236    0.0000 H   0  0  0  0  0  0  0  0  0  0  0  0
    1.3800   -8.1436    0.0000 H   0  0  0  0  0  0  0  0  0  0  0  0
    2.0000   -8.7636    0.0000 H   0  0  0  0  0  0  0  0  0  0  0  0
    4.0818    2.3822    0.0000 H   0  0  0  0  0  0  0  0  0  0  0  0
    4.1277    1.5066    0.0000 H   0  0  0  0  0  0  0  0  0  0  0  0
    5.0033    1.5525    0.0000 H   0  0  0  0  0  0  0  0  0  0  0  0
    3.3460    2.8910    0.0000 H   0  0  0  0  0  0  0  0  0  0  0  0
    5.4012    5.4304    0.0000 H   0  0  0  0  0  0  0  0  0  0  0  0
    1.6968    5.1610    0.0000 H   0  0  0  0  0  0  0  0  0  0  0  0
    1.8661    3.5499    0.0000 H   0  0  0  0  0  0  0  0  0  0  0  0
    5.2399    7.0883    0.0000 H   0  0  0  0  0  0  0  0  0  0  0  0
    4.2933    8.2108    0.0000 H   0  0  0  0  0  0  0  0  0  0  0  0
    3.6098    8.7599    0.0000 H   0  0  0  0  0  0  0  0  0  0  0  0
    3.0606    8.0764    0.0000 H   0  0  0  0  0  0  0  0  0  0  0  0
  1 18  1  0  0  0  0
  2 23  1  0  0  0  0
  2 26  1  0  0  0  0
  3 21  1  0  0  0  0
  3 24  1  0  0  0  0
  4 10  1  0  0  0  0
  4 11  1  0  0  0  0
  4 14  1  0  0  0  0
  5 22  1  0  0  0  0
  5 24  2  0  0  0  0
  6 26  1  0  0  0  0
  6 28  1  0  0  0  0
  6 31  1  0  0  0  0
  7  8  1  0  0  0  0
  7 26  2  0  0  0  0
  8 28  2  0  0  0  0
  9 32  1  0  0  0  0
  9 38  2  0  0  0  0
 10 12  1  0  0  0  0
 10 40  1  0  0  0  0
 10 41  1  0  0  0  0
 11 13  1  0  0  0  0
 11 42  1  0  0  0  0
 11 43  1  0  0  0  0
 12 15  1  0  0  0  0
 12 44  1  0  0  0  0
 12 45  1  0  0  0  0
 13 16  1  0  0  0  0
 13 46  1  0  0  0  0
 13 47  1  0  0  0  0
 14 17  1  0  0  0  0
 14 48  1  0  0  0  0
 14 49  1  0  0  0  0
 15 16  1  0  0  0  0
 15 18  2  0  0  0  0
 16 19  2  0  0  0  0
 17 20  1  0  0  0  0
 17 50  1  0  0  0  0
 17 51  1  0  0  0  0
 18 21  1  0  0  0  0
 19 22  1  0  0  0  0
 19 52  1  0  0  0  0
 20 23  1  0  0  0  0
 20 53  1  0  0  0  0
 20 54  1  0  0  0  0
 21 22  2  0  0  0  0
 23 55  1  0  0  0  0
 23 56  1  0  0  0  0
 24 25  1  0  0  0  0
 25 27  1  0  0  0  0
 25 57  1  0  0  0  0
 25 58  1  0  0  0  0
 27 59  1  0  0  0  0
 27 60  1  0  0  0  0
 27 61  1  0  0  0  0
 28 29  1  0  0  0  0
 29 30  2  0  0  0  0
 29 33  1  0  0  0  0
 30 32  1  0  0  0  0
 30 34  1  0  0  0  0
 31 62  1  0  0  0  0
 31 63  1  0  0  0  0
 31 64  1  0  0  0  0
 32 35  2  0  0  0  0
 33 36  2  0  0  0  0
 33 65  1  0  0  0  0
 34 37  2  0  0  0  0
 34 66  1  0  0  0  0
 35 36  1  0  0  0  0
 35 67  1  0  0  0  0
 36 68  1  0  0  0  0
 37 38  1  0  0  0  0
 37 69  1  0  0  0  0
 38 39  1  0  0  0  0
 39 70  1  0  0  0  0
 39 71  1  0  0  0  0
 39 72  1  0  0  0  0
M  END
> <PUBCHEM_COMPOUND_CID>
11585248

> <PUBCHEM_COMPOUND_CANONICALIZED>
1

> <PUBCHEM_CACTVS_COMPLEXITY>
797

> <PUBCHEM_CACTVS_HBOND_ACCEPTOR>
7

> <PUBCHEM_CACTVS_HBOND_DONOR>
0

> <PUBCHEM_CACTVS_ROTATABLE_BOND>
8

> <PUBCHEM_CACTVS_SUBSKEYS>
AAADcfB7oABAEAAAAAAAAAAAAAAAAWLAAAA8YIAABYAAAFix/gAAHgRIAAABrAzF3wSz1vcMFEiqA6dydASS2CtvYrQd2CG9bPiuLvLkvbuPOSjkzBPY65eY2fKOqAABUAESlABQAAKgAiUoAAAAAAAAAA==

> <PUBCHEM_IUPAC_OPENEYE_NAME>
10-bromo-2-ethyl-7-[4-[[4-methyl-5-(2-methyl-5-quinolyl)-1,2,4-triazol-3-yl]sulfanyl]butyl]-5,6,8,9-tetrahydrooxazolo[4,5-h][3]benzazepine

> <PUBCHEM_IUPAC_CAS_NAME>
10-bromo-2-ethyl-7-[4-[[4-methyl-5-(2-methyl-5-quinolinyl)-1,2,4-triazol-3-yl]thio]butyl]-5,6,8,9-tetrahydrooxazolo[4,5-h][3]benzazepine

> <PUBCHEM_IUPAC_NAME_MARKUP>
10-bromo-2-ethyl-7-[4-[[4-methyl-5-(2-methylquinolin-5-yl)-1,2,4-triazol-3-yl]sulfanyl]butyl]-5,6,8,9-tetrahydro-[1,3]oxazolo[4,5-h][3]benzazepine

> <PUBCHEM_IUPAC_NAME>
10-bromo-2-ethyl-7-[4-[[4-methyl-5-(2-methylquinolin-5-yl)-1,2,4-triazol-3-yl]sulfanyl]butyl]-5,6,8,9-tetrahydro-[1,3]oxazolo[4,5-h][3]benzazepine

> <PUBCHEM_IUPAC_SYSTEMATIC_NAME>
10-bromanyl-2-ethyl-7-[4-[[4-methyl-5-(2-methylquinolin-5-yl)-1,2,4-triazol-3-yl]sulfanyl]butyl]-5,6,8,9-tetrahydro-[1,3]oxazolo[4,5-h][3]benzazepine

> <PUBCHEM_IUPAC_TRADITIONAL_NAME>
10-bromo-2-ethyl-7-[4-[[4-methyl-5-(2-methyl-5-quinolyl)-1,2,4-triazol-3-yl]thio]butyl]-5,6,8,9-tetrahydrooxazolo[4,5-h][3]benzazepine

> <PUBCHEM_IUPAC_INCHI>
InChI=1S/C30H33BrN6OS/c1-4-26-33-25-18-20-12-15-37(16-13-21(20)27(31)28(25)38-26)14-5-6-17-39-30-35-34-29(36(30)3)23-8-7-9-24-22(23)11-10-19(2)32-24/h7-11,18H,4-6,12-17H2,1-3H3

> <PUBCHEM_IUPAC_INCHIKEY>
PVPUOHNCMSOAEE-UHFFFAOYSA-N

> <PUBCHEM_XLOGP3_AA>
6.7

> <PUBCHEM_EXACT_MASS>
604.16199

> <PUBCHEM_MOLECULAR_FORMULA>
C30H33BrN6OS

> <PUBCHEM_MOLECULAR_WEIGHT>
605.6

> <PUBCHEM_OPENEYE_CAN_SMILES>
CCC1=NC2=C(O1)C(=C3CCN(CCC3=C2)CCCCSC4=NN=C(N4C)C5=C6C=CC(=NC6=CC=C5)C)Br

> <PUBCHEM_OPENEYE_ISO_SMILES>
CCC1=NC2=C(O1)C(=C3CCN(CCC3=C2)CCCCSC4=NN=C(N4C)C5=C6C=CC(=NC6=CC=C5)C)Br

> <PUBCHEM_CACTVS_TPSA>
98.2

> <PUBCHEM_MONOISOTOPIC_WEIGHT>
604.16199

> <PUBCHEM_TOTAL_CHARGE>
0

> <PUBCHEM_HEAVY_ATOM_COUNT>
39

> <PUBCHEM_ATOM_DEF_STEREO_COUNT>
0

> <PUBCHEM_ATOM_UDEF_STEREO_COUNT>
0

> <PUBCHEM_BOND_DEF_STEREO_COUNT>
0

> <PUBCHEM_BOND_UDEF_STEREO_COUNT>
0

> <PUBCHEM_ISOTOPIC_ATOM_COUNT>
0

> <PUBCHEM_COMPONENT_COUNT>
1

> <PUBCHEM_CACTVS_TAUTO_COUNT>
-1

> <PUBCHEM_COORDINATE_TYPE>
1
5
255

> <PUBCHEM_BONDANNOTATIONS>
15  16  8
15  18  8
16  19  8
18  21  8
19  22  8
21  22  8
29  30  8
29  33  8
3  21  8
3  24  8
30  32  8
30  34  8
32  35  8
33  36  8
34  37  8
35  36  8
37  38  8
5  22  8
5  24  8
6  26  8
6  28  8
7  26  8
7  8  8
8  28  8
9  32  8
9  38  8

$$$$
