127047592
  -OEChem-09292322022D

 61 63  0     0  0  0  0  0  0999 V2000
   10.0814    6.6357    0.0000 Cl  0  0  0  0  0  0  0  0  0  0  0  0
    4.8671   10.1200    0.0000 O   0  0  0  0  0  0  0  0  0  0  0  0
    3.1350   10.1200    0.0000 O   0  0  0  0  0  0  0  0  0  0  0  0
    2.2690    5.6200    0.0000 N   0  0  0  0  0  0  0  0  0  0  0  0
    2.2690    3.6200    0.0000 N   0  0  0  0  0  0  0  0  0  0  0  0
    4.0010    8.6200    0.0000 N   0  0  0  0  0  0  0  0  0  0  0  0
    1.4030    5.1200    0.0000 C   0  0  0  0  0  0  0  0  0  0  0  0
    3.1350    5.1200    0.0000 C   0  0  0  0  0  0  0  0  0  0  0  0
    1.4030    4.1200    0.0000 C   0  0  0  0  0  0  0  0  0  0  0  0
    3.1350    4.1200    0.0000 C   0  0  0  0  0  0  0  0  0  0  0  0
    2.2690    6.6200    0.0000 C   0  0  0  0  0  0  0  0  0  0  0  0
    3.1350    7.1200    0.0000 C   0  0  0  0  0  0  0  0  0  0  0  0
    2.2690    2.6200    0.0000 C   0  0  0  0  0  0  0  0  0  0  0  0
    3.1350    8.1200    0.0000 C   0  0  0  0  0  0  0  0  0  0  0  0
    1.4030    2.1200    0.0000 C   0  0  0  0  0  0  0  0  0  0  0  0
    3.1350    2.1200    0.0000 C   0  0  0  0  0  0  0  0  0  0  0  0
    1.4030    1.1200    0.0000 C   0  0  0  0  0  0  0  0  0  0  0  0
    0.5369    2.6200    0.0000 C   0  0  0  0  0  0  0  0  0  0  0  0
    3.1350    1.1200    0.0000 C   0  0  0  0  0  0  0  0  0  0  0  0
    2.2690    0.6200    0.0000 C   0  0  0  0  0  0  0  0  0  0  0  0
    4.0010    9.6200    0.0000 C   0  0  0  0  0  0  0  0  0  0  0  0
    4.8671   11.1200    0.0000 C   0  0  0  0  0  0  0  0  0  0  0  0
    5.7331   11.6200    0.0000 C   0  0  0  0  0  0  0  0  0  0  0  0
    5.7331   12.6200    0.0000 C   0  0  0  0  0  0  0  0  0  0  0  0
    4.0010   11.6200    0.0000 C   0  0  0  0  0  0  0  0  0  0  0  0
    6.6270   11.0853    0.0000 C   0  0  0  0  0  0  0  0  0  0  0  0
    4.8671   13.1200    0.0000 C   0  0  0  0  0  0  0  0  0  0  0  0
    4.0010   12.6200    0.0000 C   0  0  0  0  0  0  0  0  0  0  0  0
    6.6270   13.1547    0.0000 C   0  0  0  0  0  0  0  0  0  0  0  0
    7.5331   11.5992    0.0000 C   0  0  0  0  0  0  0  0  0  0  0  0
    7.5331   12.6408    0.0000 C   0  0  0  0  0  0  0  0  0  0  0  0
    1.1909    5.7026    0.0000 H   0  0  0  0  0  0  0  0  0  0  0  0
    0.7924    5.0123    0.0000 H   0  0  0  0  0  0  0  0  0  0  0  0
    3.7456    5.0123    0.0000 H   0  0  0  0  0  0  0  0  0  0  0  0
    3.3471    5.7026    0.0000 H   0  0  0  0  0  0  0  0  0  0  0  0
    0.7924    4.2277    0.0000 H   0  0  0  0  0  0  0  0  0  0  0  0
    1.1909    3.5374    0.0000 H   0  0  0  0  0  0  0  0  0  0  0  0
    3.3471    3.5374    0.0000 H   0  0  0  0  0  0  0  0  0  0  0  0
    3.7456    4.2277    0.0000 H   0  0  0  0  0  0  0  0  0  0  0  0
    2.0569    7.2026    0.0000 H   0  0  0  0  0  0  0  0  0  0  0  0
    1.6584    6.5123    0.0000 H   0  0  0  0  0  0  0  0  0  0  0  0
    3.3471    6.5374    0.0000 H   0  0  0  0  0  0  0  0  0  0  0  0
    3.7456    7.2277    0.0000 H   0  0  0  0  0  0  0  0  0  0  0  0
    2.9230    8.7026    0.0000 H   0  0  0  0  0  0  0  0  0  0  0  0
    2.5244    8.0123    0.0000 H   0  0  0  0  0  0  0  0  0  0  0  0
    3.6720    2.4300    0.0000 H   0  0  0  0  0  0  0  0  0  0  0  0
    0.8660    0.8100    0.0000 H   0  0  0  0  0  0  0  0  0  0  0  0
    0.8469    3.1569    0.0000 H   0  0  0  0  0  0  0  0  0  0  0  0
    0.0000    2.9300    0.0000 H   0  0  0  0  0  0  0  0  0  0  0  0
    0.2269    2.0831    0.0000 H   0  0  0  0  0  0  0  0  0  0  0  0
    3.6720    0.8100    0.0000 H   0  0  0  0  0  0  0  0  0  0  0  0
    4.5380    8.3100    0.0000 H   0  0  0  0  0  0  0  0  0  0  0  0
    2.2690    0.0000    0.0000 H   0  0  0  0  0  0  0  0  0  0  0  0
    3.4641   11.3100    0.0000 H   0  0  0  0  0  0  0  0  0  0  0  0
    6.6199   10.4654    0.0000 H   0  0  0  0  0  0  0  0  0  0  0  0
    4.8671   13.7400    0.0000 H   0  0  0  0  0  0  0  0  0  0  0  0
    3.4641   12.9300    0.0000 H   0  0  0  0  0  0  0  0  0  0  0  0
    6.6199   13.7746    0.0000 H   0  0  0  0  0  0  0  0  0  0  0  0
    8.0688   11.2871    0.0000 H   0  0  0  0  0  0  0  0  0  0  0  0
    8.0688   12.9529    0.0000 H   0  0  0  0  0  0  0  0  0  0  0  0
   11.0814    6.6357    0.0000 H   0  0  0  0  0  0  0  0  0  0  0  0
  1 61  1  0  0  0  0
  2 21  1  0  0  0  0
  2 22  1  0  0  0  0
  3 21  2  0  0  0  0
  4  7  1  0  0  0  0
  4  8  1  0  0  0  0
  4 11  1  0  0  0  0
  5  9  1  0  0  0  0
  5 10  1  0  0  0  0
  5 13  1  0  0  0  0
  6 14  1  0  0  0  0
  6 21  1  0  0  0  0
  6 52  1  0  0  0  0
  7  9  1  0  0  0  0
  7 32  1  0  0  0  0
  7 33  1  0  0  0  0
  8 10  1  0  0  0  0
  8 34  1  0  0  0  0
  8 35  1  0  0  0  0
  9 36  1  0  0  0  0
  9 37  1  0  0  0  0
 10 38  1  0  0  0  0
 10 39  1  0  0  0  0
 11 12  1  0  0  0  0
 11 40  1  0  0  0  0
 11 41  1  0  0  0  0
 12 14  1  0  0  0  0
 12 42  1  0  0  0  0
 12 43  1  0  0  0  0
 13 15  1  0  0  0  0
 13 16  2  0  0  0  0
 14 44  1  0  0  0  0
 14 45  1  0  0  0  0
 15 17  2  0  0  0  0
 15 18  1  0  0  0  0
 16 19  1  0  0  0  0
 16 46  1  0  0  0  0
 17 20  1  0  0  0  0
 17 47  1  0  0  0  0
 18 48  1  0  0  0  0
 18 49  1  0  0  0  0
 18 50  1  0  0  0  0
 19 20  2  0  0  0  0
 19 51  1  0  0  0  0
 20 53  1  0  0  0  0
 22 23  1  0  0  0  0
 22 25  2  0  0  0  0
 23 24  1  0  0  0  0
 23 26  2  0  0  0  0
 24 27  1  0  0  0  0
 24 29  2  0  0  0  0
 25 28  1  0  0  0  0
 25 54  1  0  0  0  0
 26 30  1  0  0  0  0
 26 55  1  0  0  0  0
 27 28  2  0  0  0  0
 27 56  1  0  0  0  0
 28 57  1  0  0  0  0
 29 31  1  0  0  0  0
 29 58  1  0  0  0  0
 30 31  2  0  0  0  0
 30 59  1  0  0  0  0
 31 60  1  0  0  0  0
M  END
> <PUBCHEM_COMPOUND_CID>
127047592

> <PUBCHEM_COMPOUND_CANONICALIZED>
1

> <PUBCHEM_CACTVS_COMPLEXITY>
535

> <PUBCHEM_CACTVS_HBOND_ACCEPTOR>
4

> <PUBCHEM_CACTVS_HBOND_DONOR>
2

> <PUBCHEM_CACTVS_ROTATABLE_BOND>
7

> <PUBCHEM_CACTVS_SUBSKEYS>
AAADceB7MAAEAAAAAAAAAAAAAAAAAAAAAAA8YMEAAAAAAADBVAAAHgAQAAAADAzBmAQyzsPABACIAiRCWACCCAAhIgAIiIAObIkMZiLE8ZucMihk1hHI6AeQwLAOgAABAAAaAAAAAAIAADQAAAAAAAAAAA==

> <PUBCHEM_IUPAC_OPENEYE_NAME>
1-naphthyl N-[3-[4-(o-tolyl)piperazin-1-yl]propyl]carbamate;hydrochloride

> <PUBCHEM_IUPAC_CAS_NAME>
N-[3-[4-(2-methylphenyl)-1-piperazinyl]propyl]carbamic acid 1-naphthalenyl ester;hydrochloride

> <PUBCHEM_IUPAC_NAME_MARKUP>
naphthalen-1-yl <I>N</I>-[3-[4-(2-methylphenyl)piperazin-1-yl]propyl]carbamate;hydrochloride

> <PUBCHEM_IUPAC_NAME>
naphthalen-1-yl N-[3-[4-(2-methylphenyl)piperazin-1-yl]propyl]carbamate;hydrochloride

> <PUBCHEM_IUPAC_SYSTEMATIC_NAME>
naphthalen-1-yl N-[3-[4-(2-methylphenyl)piperazin-1-yl]propyl]carbamate;hydrochloride

> <PUBCHEM_IUPAC_TRADITIONAL_NAME>
N-[3-[4-(o-tolyl)piperazino]propyl]carbamic acid 1-naphthyl ester;hydrochloride

> <PUBCHEM_IUPAC_INCHI>
InChI=1S/C25H29N3O2.ClH/c1-20-8-2-5-12-23(20)28-18-16-27(17-19-28)15-7-14-26-25(29)30-24-13-6-10-21-9-3-4-11-22(21)24;/h2-6,8-13H,7,14-19H2,1H3,(H,26,29);1H

> <PUBCHEM_IUPAC_INCHIKEY>
DYHLCADQPGGYMW-UHFFFAOYSA-N

> <PUBCHEM_EXACT_MASS>
439.2026549

> <PUBCHEM_MOLECULAR_FORMULA>
C25H30ClN3O2

> <PUBCHEM_MOLECULAR_WEIGHT>
440.0

> <PUBCHEM_OPENEYE_CAN_SMILES>
CC1=CC=CC=C1N2CCN(CC2)CCCNC(=O)OC3=CC=CC4=CC=CC=C43.Cl

> <PUBCHEM_OPENEYE_ISO_SMILES>
CC1=CC=CC=C1N2CCN(CC2)CCCNC(=O)OC3=CC=CC4=CC=CC=C43.Cl

> <PUBCHEM_CACTVS_TPSA>
44.8

> <PUBCHEM_MONOISOTOPIC_WEIGHT>
439.2026549

> <PUBCHEM_TOTAL_CHARGE>
0

> <PUBCHEM_HEAVY_ATOM_COUNT>
31

> <PUBCHEM_ATOM_DEF_STEREO_COUNT>
0

> <PUBCHEM_ATOM_UDEF_STEREO_COUNT>
0

> <PUBCHEM_BOND_DEF_STEREO_COUNT>
0

> <PUBCHEM_BOND_UDEF_STEREO_COUNT>
0

> <PUBCHEM_ISOTOPIC_ATOM_COUNT>
0

> <PUBCHEM_COMPONENT_COUNT>
2

> <PUBCHEM_CACTVS_TAUTO_COUNT>
-1

> <PUBCHEM_COORDINATE_TYPE>
1
5
255

> <PUBCHEM_BONDANNOTATIONS>
13  15  8
13  16  8
15  17  8
16  19  8
17  20  8
19  20  8
22  23  8
22  25  8
23  24  8
23  26  8
24  27  8
24  29  8
25  28  8
26  30  8
27  28  8
29  31  8
30  31  8

$$$$
