155195451
  -OEChem-09292322402D

 74 79  0     1  0  0  0  0  0999 V2000
    2.9061   -3.2364    0.0000 O   0  0  0  0  0  0  0  0  0  0  0  0
    5.5321   -4.7710    0.0000 O   0  0  0  0  0  0  0  0  0  0  0  0
    5.5442   -0.7018    0.0000 O   0  0  0  0  0  0  0  0  0  0  0  0
    7.2569    4.3048    0.0000 O   0  0  0  0  0  0  0  0  0  0  0  0
    2.9061   -5.3057    0.0000 N   0  0  3  0  0  0  0  0  0  0  0  0
    8.1287    2.8082    0.0000 N   0  0  0  0  0  0  0  0  0  0  0  0
    3.8000   -4.7710    0.0000 C   0  0  1  0  0  0  0  0  0  0  0  0
    3.8000   -3.7710    0.0000 C   0  0  1  0  0  0  0  0  0  0  0  0
    4.6660   -5.2710    0.0000 C   0  0  0  0  0  0  0  0  0  0  0  0
    2.0000   -4.7919    0.0000 C   0  0  0  0  0  0  0  0  0  0  0  0
    4.6660   -3.2710    0.0000 C   0  0  0  0  0  0  0  0  0  0  0  0
    2.9176   -6.3056    0.0000 C   0  0  0  0  0  0  0  0  0  0  0  0
    2.0000   -3.7502    0.0000 C   0  0  0  0  0  0  0  0  0  0  0  0
    5.5321   -3.7710    0.0000 C   0  0  0  0  0  0  0  0  0  0  0  0
    2.0574   -6.8156    0.0000 C   0  0  0  0  0  0  0  0  0  0  0  0
    4.6500   -2.2295    0.0000 C   0  0  0  0  0  0  0  0  0  0  0  0
    6.4421   -3.2642    0.0000 C   0  0  0  0  0  0  0  0  0  0  0  0
    5.5480   -1.7018    0.0000 C   0  0  0  0  0  0  0  0  0  0  0  0
    2.0690   -7.8156    0.0000 C   0  0  0  0  0  0  0  0  0  0  0  0
    6.4501   -2.2226    0.0000 C   0  0  0  0  0  0  0  0  0  0  0  0
    6.4082   -0.1985    0.0000 C   0  0  0  0  0  0  0  0  0  0  0  0
   10.0954    6.8467    0.0000 C   0  0  0  0  0  0  0  0  0  0  0  0
    9.8950    5.8670    0.0000 C   0  0  0  0  0  0  0  0  0  0  0  0
    6.4044    0.8015    0.0000 C   0  0  0  0  0  0  0  0  0  0  0  0
   10.7649    5.3737    0.0000 C   0  0  0  0  0  0  0  0  0  0  0  0
   11.0891    6.9589    0.0000 C   0  0  0  0  0  0  0  0  0  0  0  0
   11.5028    6.0485    0.0000 C   0  0  0  0  0  0  0  0  0  0  0  0
    7.2685    1.3049    0.0000 C   0  0  0  0  0  0  0  0  0  0  0  0
    8.9890    5.3532    0.0000 C   0  0  0  0  0  0  0  0  0  0  0  0
    7.2646    2.3049    0.0000 C   0  0  0  0  0  0  0  0  0  0  0  0
    8.9890    4.3115    0.0000 C   0  0  0  0  0  0  0  0  0  0  0  0
   10.7890    4.3323    0.0000 C   0  0  0  0  0  0  0  0  0  0  0  0
   11.6817    7.8156    0.0000 C   0  0  0  0  0  0  0  0  0  0  0  0
   12.5379    5.9317    0.0000 C   0  0  0  0  0  0  0  0  0  0  0  0
    9.8950    3.7977    0.0000 C   0  0  0  0  0  0  0  0  0  0  0  0
    8.1249    3.8082    0.0000 C   0  0  0  0  0  0  0  0  0  0  0  0
   12.7192    7.7226    0.0000 C   0  0  0  0  0  0  0  0  0  0  0  0
   13.1502    6.7744    0.0000 C   0  0  0  0  0  0  0  0  0  0  0  0
    3.8066   -5.6210    0.0000 H   0  0  0  0  0  0  0  0  0  0  0  0
    3.8066   -2.9211    0.0000 H   0  0  0  0  0  0  0  0  0  0  0  0
    4.2675   -5.7460    0.0000 H   0  0  0  0  0  0  0  0  0  0  0  0
    5.0646   -5.7460    0.0000 H   0  0  0  0  0  0  0  0  0  0  0  0
    1.3891   -4.6858    0.0000 H   0  0  0  0  0  0  0  0  0  0  0  0
    1.7909   -5.3755    0.0000 H   0  0  0  0  0  0  0  0  0  0  0  0
    3.1364   -6.8858    0.0000 H   0  0  0  0  0  0  0  0  0  0  0  0
    3.5269   -6.1909    0.0000 H   0  0  0  0  0  0  0  0  0  0  0  0
    1.7909   -3.1665    0.0000 H   0  0  0  0  0  0  0  0  0  0  0  0
    1.3891   -3.8563    0.0000 H   0  0  0  0  0  0  0  0  0  0  0  0
    1.8387   -6.2355    0.0000 H   0  0  0  0  0  0  0  0  0  0  0  0
    1.4482   -6.9303    0.0000 H   0  0  0  0  0  0  0  0  0  0  0  0
    4.1095   -1.9258    0.0000 H   0  0  0  0  0  0  0  0  0  0  0  0
    6.9754   -3.5804    0.0000 H   0  0  0  0  0  0  0  0  0  0  0  0
    1.4490   -7.8227    0.0000 H   0  0  0  0  0  0  0  0  0  0  0  0
    2.0762   -8.4355    0.0000 H   0  0  0  0  0  0  0  0  0  0  0  0
    2.6890   -7.8084    0.0000 H   0  0  0  0  0  0  0  0  0  0  0  0
    6.9882   -1.9147    0.0000 H   0  0  0  0  0  0  0  0  0  0  0  0
    6.6226   -0.7802    0.0000 H   0  0  0  0  0  0  0  0  0  0  0  0
    7.0184   -0.0884    0.0000 H   0  0  0  0  0  0  0  0  0  0  0  0
   10.0906    7.4667    0.0000 H   0  0  0  0  0  0  0  0  0  0  0  0
    9.4783    6.9068    0.0000 H   0  0  0  0  0  0  0  0  0  0  0  0
    6.1901    1.3833    0.0000 H   0  0  0  0  0  0  0  0  0  0  0  0
    5.7942    0.6915    0.0000 H   0  0  0  0  0  0  0  0  0  0  0  0
    7.4828    0.7231    0.0000 H   0  0  0  0  0  0  0  0  0  0  0  0
    7.8786    1.4149    0.0000 H   0  0  0  0  0  0  0  0  0  0  0  0
    8.4532    5.6652    0.0000 H   0  0  0  0  0  0  0  0  0  0  0  0
   11.3318    4.0328    0.0000 H   0  0  0  0  0  0  0  0  0  0  0  0
    7.0503    2.8866    0.0000 H   0  0  0  0  0  0  0  0  0  0  0  0
    6.6545    2.1949    0.0000 H   0  0  0  0  0  0  0  0  0  0  0  0
   11.4186    8.3770    0.0000 H   0  0  0  0  0  0  0  0  0  0  0  0
   12.7879    5.3643    0.0000 H   0  0  0  0  0  0  0  0  0  0  0  0
    9.9022    3.1777    0.0000 H   0  0  0  0  0  0  0  0  0  0  0  0
    8.6668    2.5003    0.0000 H   0  0  0  0  0  0  0  0  0  0  0  0
   13.0778    8.2284    0.0000 H   0  0  0  0  0  0  0  0  0  0  0  0
   13.7670    6.7119    0.0000 H   0  0  0  0  0  0  0  0  0  0  0  0
  1  8  1  0  0  0  0
  1 13  1  0  0  0  0
  2  9  1  0  0  0  0
  2 14  1  0  0  0  0
  3 18  1  0  0  0  0
  3 21  1  0  0  0  0
  4 36  2  0  0  0  0
  5  7  1  0  0  0  0
  5 10  1  0  0  0  0
  5 12  1  0  0  0  0
  6 30  1  0  0  0  0
  6 36  1  0  0  0  0
  6 72  1  0  0  0  0
  7  8  1  0  0  0  0
  7  9  1  0  0  0  0
  7 39  1  6  0  0  0
  8 11  1  0  0  0  0
  8 40  1  1  0  0  0
  9 41  1  0  0  0  0
  9 42  1  0  0  0  0
 10 13  1  0  0  0  0
 10 43  1  0  0  0  0
 10 44  1  0  0  0  0
 11 14  2  0  0  0  0
 11 16  1  0  0  0  0
 12 15  1  0  0  0  0
 12 45  1  0  0  0  0
 12 46  1  0  0  0  0
 13 47  1  0  0  0  0
 13 48  1  0  0  0  0
 14 17  1  0  0  0  0
 15 19  1  0  0  0  0
 15 49  1  0  0  0  0
 15 50  1  0  0  0  0
 16 18  2  0  0  0  0
 16 51  1  0  0  0  0
 17 20  2  0  0  0  0
 17 52  1  0  0  0  0
 18 20  1  0  0  0  0
 19 53  1  0  0  0  0
 19 54  1  0  0  0  0
 19 55  1  0  0  0  0
 20 56  1  0  0  0  0
 21 24  1  0  0  0  0
 21 57  1  0  0  0  0
 21 58  1  0  0  0  0
 22 23  1  0  0  0  0
 22 26  1  0  0  0  0
 22 59  1  0  0  0  0
 22 60  1  0  0  0  0
 23 25  2  0  0  0  0
 23 29  1  0  0  0  0
 24 28  1  0  0  0  0
 24 61  1  0  0  0  0
 24 62  1  0  0  0  0
 25 27  1  0  0  0  0
 25 32  1  0  0  0  0
 26 27  1  0  0  0  0
 26 33  2  0  0  0  0
 27 34  2  0  0  0  0
 28 30  1  0  0  0  0
 28 63  1  0  0  0  0
 28 64  1  0  0  0  0
 29 31  2  0  0  0  0
 29 65  1  0  0  0  0
 30 67  1  0  0  0  0
 30 68  1  0  0  0  0
 31 35  1  0  0  0  0
 31 36  1  0  0  0  0
 32 35  2  0  0  0  0
 32 66  1  0  0  0  0
 33 37  1  0  0  0  0
 33 69  1  0  0  0  0
 34 38  1  0  0  0  0
 34 70  1  0  0  0  0
 35 71  1  0  0  0  0
 37 38  2  0  0  0  0
 37 73  1  0  0  0  0
 38 74  1  0  0  0  0
M  END
> <PUBCHEM_COMPOUND_CID>
155195451

> <PUBCHEM_COMPOUND_CANONICALIZED>
1

> <PUBCHEM_CACTVS_COMPLEXITY>
779

> <PUBCHEM_CACTVS_HBOND_ACCEPTOR>
5

> <PUBCHEM_CACTVS_HBOND_DONOR>
1

> <PUBCHEM_CACTVS_ROTATABLE_BOND>
9

> <PUBCHEM_CACTVS_SUBSKEYS>
AAADcfB/OAAAAAAAAAAAAAAAAAAAAYAAAAA8aMECAAAAAGCxUAAAHgAQAAAADDzhmAYyBoPABACIAiFSEACCCAAkIAAIiIEODMgOJzKEtRuHOSjl1hGYqYf42POOwQADAAAYAACCAAYAADAAAQAACAAAAA==

> <PUBCHEM_IUPAC_OPENEYE_NAME>
N-[4-[[(4aR,10bR)-4-propyl-3,4a,5,10b-tetrahydro-2H-chromeno[4,3-b][1,4]oxazin-9-yl]oxy]butyl]-9H-fluorene-2-carboxamide

> <PUBCHEM_IUPAC_CAS_NAME>
N-[4-[[(4aR,10bR)-4-propyl-3,4a,5,10b-tetrahydro-2H-[1]benzopyrano[4,3-b][1,4]oxazin-9-yl]oxy]butyl]-9H-fluorene-2-carboxamide

> <PUBCHEM_IUPAC_NAME_MARKUP>
<I>N</I>-[4-[[(4<I>a</I><I>R</I>,10<I>b</I><I>R</I>)-4-propyl-3,4<I>a</I>,5,10<I>b</I>-tetrahydro-2<I>H</I>-chromeno[4,3-b][1,4]oxazin-9-yl]oxy]butyl]-9<I>H</I>-fluorene-2-carboxamide

> <PUBCHEM_IUPAC_NAME>
N-[4-[[(4aR,10bR)-4-propyl-3,4a,5,10b-tetrahydro-2H-chromeno[4,3-b][1,4]oxazin-9-yl]oxy]butyl]-9H-fluorene-2-carboxamide

> <PUBCHEM_IUPAC_SYSTEMATIC_NAME>
N-[4-[[(4aR,10bR)-4-propyl-3,4a,5,10b-tetrahydro-2H-chromeno[4,3-b][1,4]oxazin-9-yl]oxy]butyl]-9H-fluorene-2-carboxamide

> <PUBCHEM_IUPAC_TRADITIONAL_NAME>
N-[4-[[(4aR,10bR)-4-propyl-3,4a,5,10b-tetrahydro-2H-chromeno[4,3-b][1,4]oxazin-9-yl]oxy]butyl]-9H-fluorene-2-carboxamide

> <PUBCHEM_IUPAC_INCHI>
InChI=1S/C32H36N2O4/c1-2-14-34-15-17-37-31-28-20-25(10-12-30(28)38-21-29(31)34)36-16-6-5-13-33-32(35)23-9-11-27-24(19-23)18-22-7-3-4-8-26(22)27/h3-4,7-12,19-20,29,31H,2,5-6,13-18,21H2,1H3,(H,33,35)/t29-,31-/m1/s1

> <PUBCHEM_IUPAC_INCHIKEY>
DESXWTHSPLQRFM-BVRKHOPBSA-N

> <PUBCHEM_XLOGP3>
5.6

> <PUBCHEM_EXACT_MASS>
512.26750763

> <PUBCHEM_MOLECULAR_FORMULA>
C32H36N2O4

> <PUBCHEM_MOLECULAR_WEIGHT>
512.6

> <PUBCHEM_OPENEYE_CAN_SMILES>
CCCN1CCOC2C1COC3=C2C=C(C=C3)OCCCCNC(=O)C4=CC5=C(C=C4)C6=CC=CC=C6C5

> <PUBCHEM_OPENEYE_ISO_SMILES>
CCCN1CCO[C@H]2[C@H]1COC3=C2C=C(C=C3)OCCCCNC(=O)C4=CC5=C(C=C4)C6=CC=CC=C6C5

> <PUBCHEM_CACTVS_TPSA>
60

> <PUBCHEM_MONOISOTOPIC_WEIGHT>
512.26750763

> <PUBCHEM_TOTAL_CHARGE>
0

> <PUBCHEM_HEAVY_ATOM_COUNT>
38

> <PUBCHEM_ATOM_DEF_STEREO_COUNT>
2

> <PUBCHEM_ATOM_UDEF_STEREO_COUNT>
0

> <PUBCHEM_BOND_DEF_STEREO_COUNT>
0

> <PUBCHEM_BOND_UDEF_STEREO_COUNT>
0

> <PUBCHEM_ISOTOPIC_ATOM_COUNT>
0

> <PUBCHEM_COMPONENT_COUNT>
1

> <PUBCHEM_CACTVS_TAUTO_COUNT>
-1

> <PUBCHEM_COORDINATE_TYPE>
1
5
255

> <PUBCHEM_BONDANNOTATIONS>
11  14  8
11  16  8
14  17  8
16  18  8
17  20  8
18  20  8
23  25  8
23  29  8
25  32  8
26  27  8
26  33  8
27  34  8
29  31  8
31  35  8
32  35  8
33  37  8
34  38  8
37  38  8
7  39  6
8  40  5

$$$$
