71456046
  -OEChem-09292322332D

 60 63  0     0  0  0  0  0  0999 V2000
    9.7142    0.4780    0.0000 O   0  0  0  0  0  0  0  0  0  0  0  0
    6.4162    1.5377    0.0000 N   0  0  0  0  0  0  0  0  0  0  0  0
    8.3711    1.9599    0.0000 N   0  0  0  0  0  0  0  0  0  0  0  0
    6.4358   -2.3852    0.0000 N   0  0  0  0  0  0  0  0  0  0  0  0
    6.7221    2.4898    0.0000 C   0  0  0  0  0  0  0  0  0  0  0  0
    7.0877    0.7967    0.0000 C   0  0  0  0  0  0  0  0  0  0  0  0
    7.6996    2.7009    0.0000 C   0  0  0  0  0  0  0  0  0  0  0  0
    8.0652    1.0078    0.0000 C   0  0  0  0  0  0  0  0  0  0  0  0
    5.4387    1.3266    0.0000 C   0  0  0  0  0  0  0  0  0  0  0  0
    5.1328    0.3746    0.0000 C   0  0  0  0  0  0  0  0  0  0  0  0
    4.1881    0.0651    0.0000 C   0  0  0  0  0  0  0  0  0  0  0  0
    9.3486    2.1710    0.0000 C   0  0  0  0  0  0  0  0  0  0  0  0
    5.1408   -1.2349    0.0000 C   0  0  0  0  0  0  0  0  0  0  0  0
    5.7204   -0.4273    0.0000 C   0  0  0  0  0  0  0  0  0  0  0  0
    4.1931   -0.9349    0.0000 C   0  0  0  0  0  0  0  0  0  0  0  0
    5.4562   -2.1838    0.0000 C   0  0  0  0  0  0  0  0  0  0  0  0
   10.0201    1.4300    0.0000 C   0  0  0  0  0  0  0  0  0  0  0  0
    3.4032    0.6847    0.0000 C   0  0  0  0  0  0  0  0  0  0  0  0
    9.6545    3.1230    0.0000 C   0  0  0  0  0  0  0  0  0  0  0  0
    3.4144   -1.5623    0.0000 C   0  0  0  0  0  0  0  0  0  0  0  0
   10.9976    1.6411    0.0000 C   0  0  0  0  0  0  0  0  0  0  0  0
    2.4294    0.4573    0.0000 C   0  0  0  0  0  0  0  0  0  0  0  0
   10.6320    3.3342    0.0000 C   0  0  0  0  0  0  0  0  0  0  0  0
    2.4384   -1.3446    0.0000 C   0  0  0  0  0  0  0  0  0  0  0  0
   11.3035    2.5932    0.0000 C   0  0  0  0  0  0  0  0  0  0  0  0
    2.0000   -0.4458    0.0000 C   0  0  0  0  0  0  0  0  0  0  0  0
    6.7512   -3.3342    0.0000 C   0  0  0  0  0  0  0  0  0  0  0  0
    7.0999   -1.6376    0.0000 C   0  0  0  0  0  0  0  0  0  0  0  0
   10.3858   -0.2630    0.0000 C   0  0  0  0  0  0  0  0  0  0  0  0
    6.6985    3.1093    0.0000 H   0  0  0  0  0  0  0  0  0  0  0  0
    6.1079    2.5740    0.0000 H   0  0  0  0  0  0  0  0  0  0  0  0
    6.5630    0.4665    0.0000 H   0  0  0  0  0  0  0  0  0  0  0  0
    7.3219    0.2226    0.0000 H   0  0  0  0  0  0  0  0  0  0  0  0
    8.2243    3.0311    0.0000 H   0  0  0  0  0  0  0  0  0  0  0  0
    7.4654    3.2750    0.0000 H   0  0  0  0  0  0  0  0  0  0  0  0
    8.0889    0.3883    0.0000 H   0  0  0  0  0  0  0  0  0  0  0  0
    8.6794    0.9236    0.0000 H   0  0  0  0  0  0  0  0  0  0  0  0
    5.4151    1.9462    0.0000 H   0  0  0  0  0  0  0  0  0  0  0  0
    4.8245    1.4109    0.0000 H   0  0  0  0  0  0  0  0  0  0  0  0
    6.3404   -0.4242    0.0000 H   0  0  0  0  0  0  0  0  0  0  0  0
    4.8429   -2.2743    0.0000 H   0  0  0  0  0  0  0  0  0  0  0  0
    5.4388   -2.8036    0.0000 H   0  0  0  0  0  0  0  0  0  0  0  0
    3.5381    1.2898    0.0000 H   0  0  0  0  0  0  0  0  0  0  0  0
    9.2381    3.5824    0.0000 H   0  0  0  0  0  0  0  0  0  0  0  0
    3.5554   -2.1660    0.0000 H   0  0  0  0  0  0  0  0  0  0  0  0
   11.4140    1.1817    0.0000 H   0  0  0  0  0  0  0  0  0  0  0  0
    2.0404    0.9401    0.0000 H   0  0  0  0  0  0  0  0  0  0  0  0
   10.8216    3.9244    0.0000 H   0  0  0  0  0  0  0  0  0  0  0  0
    2.0542   -1.8313    0.0000 H   0  0  0  0  0  0  0  0  0  0  0  0
   11.9096    2.7241    0.0000 H   0  0  0  0  0  0  0  0  0  0  0  0
    1.3800   -0.4489    0.0000 H   0  0  0  0  0  0  0  0  0  0  0  0
    6.1628   -3.5297    0.0000 H   0  0  0  0  0  0  0  0  0  0  0  0
    6.9467   -3.9225    0.0000 H   0  0  0  0  0  0  0  0  0  0  0  0
    7.3395   -3.1386    0.0000 H   0  0  0  0  0  0  0  0  0  0  0  0
    7.5634   -2.0493    0.0000 H   0  0  0  0  0  0  0  0  0  0  0  0
    7.5116   -1.1740    0.0000 H   0  0  0  0  0  0  0  0  0  0  0  0
    6.6364   -1.2258    0.0000 H   0  0  0  0  0  0  0  0  0  0  0  0
    9.9264   -0.6793    0.0000 H   0  0  0  0  0  0  0  0  0  0  0  0
   10.8021   -0.7224    0.0000 H   0  0  0  0  0  0  0  0  0  0  0  0
   10.8452    0.1534    0.0000 H   0  0  0  0  0  0  0  0  0  0  0  0
  1 17  1  0  0  0  0
  1 29  1  0  0  0  0
  2  5  1  0  0  0  0
  2  6  1  0  0  0  0
  2  9  1  0  0  0  0
  3  7  1  0  0  0  0
  3  8  1  0  0  0  0
  3 12  1  0  0  0  0
  4 16  1  0  0  0  0
  4 27  1  0  0  0  0
  4 28  1  0  0  0  0
  5  7  1  0  0  0  0
  5 30  1  0  0  0  0
  5 31  1  0  0  0  0
  6  8  1  0  0  0  0
  6 32  1  0  0  0  0
  6 33  1  0  0  0  0
  7 34  1  0  0  0  0
  7 35  1  0  0  0  0
  8 36  1  0  0  0  0
  8 37  1  0  0  0  0
  9 10  1  0  0  0  0
  9 38  1  0  0  0  0
  9 39  1  0  0  0  0
 10 11  1  0  0  0  0
 10 14  2  0  0  0  0
 11 15  1  0  0  0  0
 11 18  2  0  0  0  0
 12 17  1  0  0  0  0
 12 19  2  0  0  0  0
 13 14  1  0  0  0  0
 13 15  2  0  0  0  0
 13 16  1  0  0  0  0
 14 40  1  0  0  0  0
 15 20  1  0  0  0  0
 16 41  1  0  0  0  0
 16 42  1  0  0  0  0
 17 21  2  0  0  0  0
 18 22  1  0  0  0  0
 18 43  1  0  0  0  0
 19 23  1  0  0  0  0
 19 44  1  0  0  0  0
 20 24  2  0  0  0  0
 20 45  1  0  0  0  0
 21 25  1  0  0  0  0
 21 46  1  0  0  0  0
 22 26  2  0  0  0  0
 22 47  1  0  0  0  0
 23 25  2  0  0  0  0
 23 48  1  0  0  0  0
 24 26  1  0  0  0  0
 24 49  1  0  0  0  0
 25 50  1  0  0  0  0
 26 51  1  0  0  0  0
 27 52  1  0  0  0  0
 27 53  1  0  0  0  0
 27 54  1  0  0  0  0
 28 55  1  0  0  0  0
 28 56  1  0  0  0  0
 28 57  1  0  0  0  0
 29 58  1  0  0  0  0
 29 59  1  0  0  0  0
 29 60  1  0  0  0  0
M  END
> <PUBCHEM_COMPOUND_CID>
71456046

> <PUBCHEM_COMPOUND_CANONICALIZED>
1

> <PUBCHEM_CACTVS_COMPLEXITY>
491

> <PUBCHEM_CACTVS_HBOND_ACCEPTOR>
4

> <PUBCHEM_CACTVS_HBOND_DONOR>
0

> <PUBCHEM_CACTVS_ROTATABLE_BOND>
6

> <PUBCHEM_CACTVS_SUBSKEYS>
AAADceB7IAAAAAAAAAAAAAAAAAAAAYAAAAA8QAAABgAAAADBQAAAHgAAAAAADAzBmAYyxsMABACAAiRCQACCCAAhIgAIiAAPbIgOZiLEsZuVMChkwBHY6AeQwMAOgAAAAAAAEAAAAAAAAAAgAQAACAAAAA==

> <PUBCHEM_IUPAC_OPENEYE_NAME>
1-[3-[[4-(2-methoxyphenyl)piperazin-1-yl]methyl]azulen-1-yl]-N,N-dimethyl-methanamine

> <PUBCHEM_IUPAC_CAS_NAME>
1-[3-[[4-(2-methoxyphenyl)-1-piperazinyl]methyl]-1-azulenyl]-N,N-dimethylmethanamine

> <PUBCHEM_IUPAC_NAME_MARKUP>
1-[3-[[4-(2-methoxyphenyl)piperazin-1-yl]methyl]azulen-1-yl]-<I>N</I>,<I>N</I>-dimethylmethanamine

> <PUBCHEM_IUPAC_NAME>
1-[3-[[4-(2-methoxyphenyl)piperazin-1-yl]methyl]azulen-1-yl]-N,N-dimethylmethanamine

> <PUBCHEM_IUPAC_SYSTEMATIC_NAME>
1-[3-[[4-(2-methoxyphenyl)piperazin-1-yl]methyl]azulen-1-yl]-N,N-dimethyl-methanamine

> <PUBCHEM_IUPAC_TRADITIONAL_NAME>
[3-[[4-(2-methoxyphenyl)piperazino]methyl]azulen-1-yl]methyl-dimethyl-amine

> <PUBCHEM_IUPAC_INCHI>
InChI=1S/C25H31N3O/c1-26(2)18-20-17-21(23-10-6-4-5-9-22(20)23)19-27-13-15-28(16-14-27)24-11-7-8-12-25(24)29-3/h4-12,17H,13-16,18-19H2,1-3H3

> <PUBCHEM_IUPAC_INCHIKEY>
HRHSURDPAJFNRA-UHFFFAOYSA-N

> <PUBCHEM_XLOGP3_AA>
4.1

> <PUBCHEM_EXACT_MASS>
389.246712621

> <PUBCHEM_MOLECULAR_FORMULA>
C25H31N3O

> <PUBCHEM_MOLECULAR_WEIGHT>
389.5

> <PUBCHEM_OPENEYE_CAN_SMILES>
CN(C)CC1=C2C=CC=CC=C2C(=C1)CN3CCN(CC3)C4=CC=CC=C4OC

> <PUBCHEM_OPENEYE_ISO_SMILES>
CN(C)CC1=C2C=CC=CC=C2C(=C1)CN3CCN(CC3)C4=CC=CC=C4OC

> <PUBCHEM_CACTVS_TPSA>
19

> <PUBCHEM_MONOISOTOPIC_WEIGHT>
389.246712621

> <PUBCHEM_TOTAL_CHARGE>
0

> <PUBCHEM_HEAVY_ATOM_COUNT>
29

> <PUBCHEM_ATOM_DEF_STEREO_COUNT>
0

> <PUBCHEM_ATOM_UDEF_STEREO_COUNT>
0

> <PUBCHEM_BOND_DEF_STEREO_COUNT>
0

> <PUBCHEM_BOND_UDEF_STEREO_COUNT>
0

> <PUBCHEM_ISOTOPIC_ATOM_COUNT>
0

> <PUBCHEM_COMPONENT_COUNT>
1

> <PUBCHEM_CACTVS_TAUTO_COUNT>
-1

> <PUBCHEM_COORDINATE_TYPE>
1
5
255

> <PUBCHEM_BONDANNOTATIONS>
10  11  8
10  14  8
11  18  8
12  17  8
12  19  8
13  14  8
13  15  8
15  20  8
17  21  8
18  22  8
19  23  8
20  24  8
21  25  8
22  26  8
23  25  8
24  26  8

$$$$
