44276414
  -OEChem-09292322222D

 36 39  0     1  0  0  0  0  0999 V2000
    2.0000    3.2612    0.0000 F   0  0  0  0  0  0  0  0  0  0  0  0
    3.6737   -1.8999    0.0000 O   0  0  0  0  0  0  0  0  0  0  0  0
    5.4770   -2.9596    0.0000 O   0  0  0  0  0  0  0  0  0  0  0  0
    6.3961    2.7371    0.0000 N   0  0  0  0  0  0  0  0  0  0  0  0
    3.7702    3.2717    0.0000 N   0  0  0  0  0  0  0  0  0  0  0  0
    6.3961    1.7371    0.0000 C   0  0  1  0  0  0  0  0  0  0  0  0
    5.5301    1.2371    0.0000 C   0  0  1  0  0  0  0  0  0  0  0  0
    7.3062    1.2302    0.0000 C   0  0  0  0  0  0  0  0  0  0  0  0
    5.5141    0.1956    0.0000 C   0  0  0  0  0  0  0  0  0  0  0  0
    7.3142    0.1886    0.0000 C   0  0  0  0  0  0  0  0  0  0  0  0
    4.6641    1.7371    0.0000 C   0  0  0  0  0  0  0  0  0  0  0  0
    6.4121   -0.3322    0.0000 C   0  0  0  0  0  0  0  0  0  0  0  0
    5.5301    3.2371    0.0000 C   0  0  0  0  0  0  0  0  0  0  0  0
    4.6641    2.7371    0.0000 C   0  0  0  0  0  0  0  0  0  0  0  0
    4.5621   -0.3251    0.0000 C   0  0  0  0  0  0  0  0  0  0  0  0
    6.4205   -1.4172    0.0000 C   0  0  0  0  0  0  0  0  0  0  0  0
    3.7702    1.2024    0.0000 C   0  0  0  0  0  0  0  0  0  0  0  0
    4.5454   -1.4099    0.0000 C   0  0  0  0  0  0  0  0  0  0  0  0
    5.4808   -1.9597    0.0000 C   0  0  0  0  0  0  0  0  0  0  0  0
    2.8641    1.7162    0.0000 C   0  0  0  0  0  0  0  0  0  0  0  0
    2.8641    2.7579    0.0000 C   0  0  0  0  0  0  0  0  0  0  0  0
    7.1290    2.1677    0.0000 H   0  0  0  0  0  0  0  0  0  0  0  0
    4.7908    0.8177    0.0000 H   0  0  0  0  0  0  0  0  0  0  0  0
    7.9178    1.1288    0.0000 H   0  0  0  0  0  0  0  0  0  0  0  0
    7.5107    1.8155    0.0000 H   0  0  0  0  0  0  0  0  0  0  0  0
    7.5277   -0.3934    0.0000 H   0  0  0  0  0  0  0  0  0  0  0  0
    7.9242    0.2994    0.0000 H   0  0  0  0  0  0  0  0  0  0  0  0
    6.9331    3.0471    0.0000 H   0  0  0  0  0  0  0  0  0  0  0  0
    5.9286    3.7120    0.0000 H   0  0  0  0  0  0  0  0  0  0  0  0
    5.1316    3.7120    0.0000 H   0  0  0  0  0  0  0  0  0  0  0  0
    4.0313   -0.0048    0.0000 H   0  0  0  0  0  0  0  0  0  0  0  0
    6.9586   -1.7251    0.0000 H   0  0  0  0  0  0  0  0  0  0  0  0
    3.7773    0.5824    0.0000 H   0  0  0  0  0  0  0  0  0  0  0  0
    2.3284    1.4042    0.0000 H   0  0  0  0  0  0  0  0  0  0  0  0
    3.6665   -2.5198    0.0000 H   0  0  0  0  0  0  0  0  0  0  0  0
    6.0127   -3.2717    0.0000 H   0  0  0  0  0  0  0  0  0  0  0  0
  1 21  1  0  0  0  0
  2 18  1  0  0  0  0
  2 35  1  0  0  0  0
  3 19  1  0  0  0  0
  3 36  1  0  0  0  0
  4  6  1  0  0  0  0
  4 13  1  0  0  0  0
  4 28  1  0  0  0  0
  5 14  1  0  0  0  0
  5 21  2  0  0  0  0
  6  7  1  0  0  0  0
  6  8  1  0  0  0  0
  6 22  1  1  0  0  0
  7  9  1  0  0  0  0
  7 11  1  0  0  0  0
  7 23  1  6  0  0  0
  8 10  1  0  0  0  0
  8 24  1  0  0  0  0
  8 25  1  0  0  0  0
  9 12  1  0  0  0  0
  9 15  2  0  0  0  0
 10 12  1  0  0  0  0
 10 26  1  0  0  0  0
 10 27  1  0  0  0  0
 11 14  2  0  0  0  0
 11 17  1  0  0  0  0
 12 16  2  0  0  0  0
 13 14  1  0  0  0  0
 13 29  1  0  0  0  0
 13 30  1  0  0  0  0
 15 18  1  0  0  0  0
 15 31  1  0  0  0  0
 16 19  1  0  0  0  0
 16 32  1  0  0  0  0
 17 20  2  0  0  0  0
 17 33  1  0  0  0  0
 18 19  2  0  0  0  0
 20 21  1  0  0  0  0
 20 34  1  0  0  0  0
M  END
> <PUBCHEM_COMPOUND_CID>
44276414

> <PUBCHEM_COMPOUND_CANONICALIZED>
1

> <PUBCHEM_CACTVS_COMPLEXITY>
397

> <PUBCHEM_CACTVS_HBOND_ACCEPTOR>
5

> <PUBCHEM_CACTVS_HBOND_DONOR>
3

> <PUBCHEM_CACTVS_ROTATABLE_BOND>
0

> <PUBCHEM_CACTVS_SUBSKEYS>
AAADccB7MQAAAAAAAAAAAAAAAAAAAAAAAAA8eIEAAAAAAADxwAAAHwAQCAAADSzBngwwhpLIEgCgAyRiRACCgCAhIiAImKA+7JgJZuLCkZOUcAlk0BHJ2AeQ0PMOoAABAAAQQABQAAaAACSAAAAAAAAAAA==

> <PUBCHEM_IUPAC_OPENEYE_NAME>
(6aR,12bS)-3-fluoro-5,6,6a,7,8,12b-hexahydronaphtho[1,2-f][1,7]naphthyridine-10,11-diol

> <PUBCHEM_IUPAC_CAS_NAME>
(6aR,12bS)-3-fluoro-5,6,6a,7,8,12b-hexahydronaphtho[1,2-f][1,7]naphthyridine-10,11-diol

> <PUBCHEM_IUPAC_NAME_MARKUP>
(6<I>a</I><I>R</I>,12<I>b</I><I>S</I>)-3-fluoro-5,6,6<I>a</I>,7,8,12<I>b</I>-hexahydronaphtho[1,2-f][1,7]naphthyridine-10,11-diol

> <PUBCHEM_IUPAC_NAME>
(6aR,12bS)-3-fluoro-5,6,6a,7,8,12b-hexahydronaphtho[1,2-f][1,7]naphthyridine-10,11-diol

> <PUBCHEM_IUPAC_SYSTEMATIC_NAME>
(6aR,12bS)-3-fluoranyl-5,6,6a,7,8,12b-hexahydronaphtho[1,2-f][1,7]naphthyridine-10,11-diol

> <PUBCHEM_IUPAC_TRADITIONAL_NAME>
(6aR,12bS)-3-fluoro-5,6,6a,7,8,12b-hexahydronaphtho[1,2-f][1,7]naphthyridine-10,11-diol

> <PUBCHEM_IUPAC_INCHI>
InChI=1S/C16H15FN2O2/c17-15-4-2-9-12(19-15)7-18-11-3-1-8-5-13(20)14(21)6-10(8)16(9)11/h2,4-6,11,16,18,20-21H,1,3,7H2/t11-,16-/m1/s1

> <PUBCHEM_IUPAC_INCHIKEY>
UVPIZMCLGBXZAJ-BDJLRTHQSA-N

> <PUBCHEM_XLOGP3_AA>
1.9

> <PUBCHEM_EXACT_MASS>
286.11175589

> <PUBCHEM_MOLECULAR_FORMULA>
C16H15FN2O2

> <PUBCHEM_MOLECULAR_WEIGHT>
286.30

> <PUBCHEM_OPENEYE_CAN_SMILES>
C1CC2=CC(=C(C=C2C3C1NCC4=C3C=CC(=N4)F)O)O

> <PUBCHEM_OPENEYE_ISO_SMILES>
C1CC2=CC(=C(C=C2[C@@H]3[C@@H]1NCC4=C3C=CC(=N4)F)O)O

> <PUBCHEM_CACTVS_TPSA>
65.4

> <PUBCHEM_MONOISOTOPIC_WEIGHT>
286.11175589

> <PUBCHEM_TOTAL_CHARGE>
0

> <PUBCHEM_HEAVY_ATOM_COUNT>
21

> <PUBCHEM_ATOM_DEF_STEREO_COUNT>
2

> <PUBCHEM_ATOM_UDEF_STEREO_COUNT>
0

> <PUBCHEM_BOND_DEF_STEREO_COUNT>
0

> <PUBCHEM_BOND_UDEF_STEREO_COUNT>
0

> <PUBCHEM_ISOTOPIC_ATOM_COUNT>
0

> <PUBCHEM_COMPONENT_COUNT>
1

> <PUBCHEM_CACTVS_TAUTO_COUNT>
-1

> <PUBCHEM_COORDINATE_TYPE>
1
5
255

> <PUBCHEM_BONDANNOTATIONS>
11  14  8
11  17  8
12  16  8
15  18  8
16  19  8
17  20  8
18  19  8
20  21  8
5  14  8
5  21  8
6  22  5
7  23  6
9  12  8
9  15  8

$$$$
