46869265
  -OEChem-09292322332D

 43 46  0     1  0  0  0  0  0999 V2000
    4.3198   -2.3792    0.0000 O   0  0  0  0  0  0  0  0  0  0  0  0
    2.5381   -1.3688    0.0000 O   0  0  0  0  0  0  0  0  0  0  0  0
    6.9502    2.2246    0.0000 N   0  0  0  0  0  0  0  0  0  0  0  0
    6.9343    0.1554    0.0000 C   0  0  2  0  0  0  0  0  0  0  0  0
    6.0682    0.6554    0.0000 C   0  0  1  0  0  0  0  0  0  0  0  0
    6.9343   -0.8446    0.0000 C   0  0  1  0  0  0  0  0  0  0  0  0
    7.8443    0.6622    0.0000 C   0  0  0  0  0  0  0  0  0  0  0  0
    6.0682   -1.3446    0.0000 C   0  0  0  0  0  0  0  0  0  0  0  0
    6.0522    1.6969    0.0000 C   0  0  0  0  0  0  0  0  0  0  0  0
    5.2022    0.1554    0.0000 C   0  0  0  0  0  0  0  0  0  0  0  0
    5.2022   -0.8446    0.0000 C   0  0  0  0  0  0  0  0  0  0  0  0
    7.8523    1.7038    0.0000 C   0  0  0  0  0  0  0  0  0  0  0  0
    7.8003   -1.3446    0.0000 C   0  0  0  0  0  0  0  0  0  0  0  0
    4.3083    0.6900    0.0000 C   0  0  0  0  0  0  0  0  0  0  0  0
    4.3083   -1.3793    0.0000 C   0  0  0  0  0  0  0  0  0  0  0  0
    8.6663   -0.8446    0.0000 C   0  0  0  0  0  0  0  0  0  0  0  0
    7.8003   -2.3446    0.0000 C   0  0  0  0  0  0  0  0  0  0  0  0
    3.4022    0.1762    0.0000 C   0  0  0  0  0  0  0  0  0  0  0  0
    3.4022   -0.8654    0.0000 C   0  0  0  0  0  0  0  0  0  0  0  0
    9.5323   -1.3446    0.0000 C   0  0  0  0  0  0  0  0  0  0  0  0
    8.6663   -2.8446    0.0000 C   0  0  0  0  0  0  0  0  0  0  0  0
    9.5323   -2.3446    0.0000 C   0  0  0  0  0  0  0  0  0  0  0  0
    7.6671   -0.2753    0.0000 H   0  0  0  0  0  0  0  0  0  0  0  0
    6.8011    1.0860    0.0000 H   0  0  0  0  0  0  0  0  0  0  0  0
    6.9343   -1.4646    0.0000 H   0  0  0  0  0  0  0  0  0  0  0  0
    8.0488    0.0769    0.0000 H   0  0  0  0  0  0  0  0  0  0  0  0
    8.4559    0.7636    0.0000 H   0  0  0  0  0  0  0  0  0  0  0  0
    5.6697   -1.8196    0.0000 H   0  0  0  0  0  0  0  0  0  0  0  0
    6.4668   -1.8196    0.0000 H   0  0  0  0  0  0  0  0  0  0  0  0
    5.8342    2.2773    0.0000 H   0  0  0  0  0  0  0  0  0  0  0  0
    5.4431    1.5814    0.0000 H   0  0  0  0  0  0  0  0  0  0  0  0
    8.4623    1.5930    0.0000 H   0  0  0  0  0  0  0  0  0  0  0  0
    8.0659    2.2859    0.0000 H   0  0  0  0  0  0  0  0  0  0  0  0
    6.9478    2.8446    0.0000 H   0  0  0  0  0  0  0  0  0  0  0  0
    4.3154    1.3100    0.0000 H   0  0  0  0  0  0  0  0  0  0  0  0
    8.6663   -0.2246    0.0000 H   0  0  0  0  0  0  0  0  0  0  0  0
    7.2634   -2.6546    0.0000 H   0  0  0  0  0  0  0  0  0  0  0  0
    2.8665    0.4883    0.0000 H   0  0  0  0  0  0  0  0  0  0  0  0
   10.0693   -1.0346    0.0000 H   0  0  0  0  0  0  0  0  0  0  0  0
    8.6663   -3.4646    0.0000 H   0  0  0  0  0  0  0  0  0  0  0  0
    3.7865   -2.6954    0.0000 H   0  0  0  0  0  0  0  0  0  0  0  0
   10.0693   -2.6546    0.0000 H   0  0  0  0  0  0  0  0  0  0  0  0
    2.0000   -1.0608    0.0000 H   0  0  0  0  0  0  0  0  0  0  0  0
  1 15  1  0  0  0  0
  1 41  1  0  0  0  0
  2 19  1  0  0  0  0
  2 43  1  0  0  0  0
  3  9  1  0  0  0  0
  3 12  1  0  0  0  0
  3 34  1  0  0  0  0
  4  5  1  0  0  0  0
  4  6  1  0  0  0  0
  4  7  1  0  0  0  0
  4 23  1  6  0  0  0
  5  9  1  0  0  0  0
  5 10  1  0  0  0  0
  5 24  1  1  0  0  0
  6  8  1  0  0  0  0
  6 13  1  6  0  0  0
  6 25  1  0  0  0  0
  7 12  1  0  0  0  0
  7 26  1  0  0  0  0
  7 27  1  0  0  0  0
  8 11  1  0  0  0  0
  8 28  1  0  0  0  0
  8 29  1  0  0  0  0
  9 30  1  0  0  0  0
  9 31  1  0  0  0  0
 10 11  2  0  0  0  0
 10 14  1  0  0  0  0
 11 15  1  0  0  0  0
 12 32  1  0  0  0  0
 12 33  1  0  0  0  0
 13 16  2  0  0  0  0
 13 17  1  0  0  0  0
 14 18  2  0  0  0  0
 14 35  1  0  0  0  0
 15 19  2  0  0  0  0
 16 20  1  0  0  0  0
 16 36  1  0  0  0  0
 17 21  2  0  0  0  0
 17 37  1  0  0  0  0
 18 19  1  0  0  0  0
 18 38  1  0  0  0  0
 20 22  2  0  0  0  0
 20 39  1  0  0  0  0
 21 22  1  0  0  0  0
 21 40  1  0  0  0  0
 22 42  1  0  0  0  0
M  END
> <PUBCHEM_COMPOUND_CID>
46869265

> <PUBCHEM_COMPOUND_CANONICALIZED>
1

> <PUBCHEM_CACTVS_COMPLEXITY>
382

> <PUBCHEM_CACTVS_HBOND_ACCEPTOR>
3

> <PUBCHEM_CACTVS_HBOND_DONOR>
3

> <PUBCHEM_CACTVS_ROTATABLE_BOND>
1

> <PUBCHEM_CACTVS_SUBSKEYS>
AAADceB6MAAAAAAAAAAAAAAAAAAAAAAAAAA8YMEAAAAAAADxQAAAHgAQCAAADQTBmAQwBoLAAgCAAiBCAAACAAAgIAAIiIAOiIgJJiKCkROEcAEk0BGJmAeQ0PIOoAABAAAYQADAAAYAADCAAAAAAAAAAA==

> <PUBCHEM_IUPAC_OPENEYE_NAME>
(4aS,5R,10bR)-5-phenyl-1,2,3,4,4a,5,6,10b-octahydrobenzo[h]isoquinoline-7,8-diol

> <PUBCHEM_IUPAC_CAS_NAME>
(4aS,5R,10bR)-5-phenyl-1,2,3,4,4a,5,6,10b-octahydrobenzo[h]isoquinoline-7,8-diol

> <PUBCHEM_IUPAC_NAME_MARKUP>
(4<I>a</I><I>S</I>,5<I>R</I>,10<I>b</I><I>R</I>)-5-phenyl-1,2,3,4,4<I>a</I>,5,6,10<I>b</I>-octahydrobenzo[h]isoquinoline-7,8-diol

> <PUBCHEM_IUPAC_NAME>
(4aS,5R,10bR)-5-phenyl-1,2,3,4,4a,5,6,10b-octahydrobenzo[h]isoquinoline-7,8-diol

> <PUBCHEM_IUPAC_SYSTEMATIC_NAME>
(4aS,5R,10bR)-5-phenyl-1,2,3,4,4a,5,6,10b-octahydrobenzo[h]isoquinoline-7,8-diol

> <PUBCHEM_IUPAC_TRADITIONAL_NAME>
(4aS,5R,10bR)-5-phenyl-1,2,3,4,4a,5,6,10b-octahydrobenz[h]isoquinoline-7,8-diol

> <PUBCHEM_IUPAC_INCHI>
InChI=1S/C19H21NO2/c21-18-7-6-13-16(19(18)22)10-15(12-4-2-1-3-5-12)14-8-9-20-11-17(13)14/h1-7,14-15,17,20-22H,8-11H2/t14-,15-,17-/m0/s1

> <PUBCHEM_IUPAC_INCHIKEY>
FKYWSGYMKJUZEP-ZOBUZTSGSA-N

> <PUBCHEM_XLOGP3_AA>
3

> <PUBCHEM_EXACT_MASS>
295.157228913

> <PUBCHEM_MOLECULAR_FORMULA>
C19H21NO2

> <PUBCHEM_MOLECULAR_WEIGHT>
295.4

> <PUBCHEM_OPENEYE_CAN_SMILES>
C1CNCC2C1C(CC3=C2C=CC(=C3O)O)C4=CC=CC=C4

> <PUBCHEM_OPENEYE_ISO_SMILES>
C1CNC[C@@H]2[C@@H]1[C@@H](CC3=C2C=CC(=C3O)O)C4=CC=CC=C4

> <PUBCHEM_CACTVS_TPSA>
52.5

> <PUBCHEM_MONOISOTOPIC_WEIGHT>
295.157228913

> <PUBCHEM_TOTAL_CHARGE>
0

> <PUBCHEM_HEAVY_ATOM_COUNT>
22

> <PUBCHEM_ATOM_DEF_STEREO_COUNT>
3

> <PUBCHEM_ATOM_UDEF_STEREO_COUNT>
0

> <PUBCHEM_BOND_DEF_STEREO_COUNT>
0

> <PUBCHEM_BOND_UDEF_STEREO_COUNT>
0

> <PUBCHEM_ISOTOPIC_ATOM_COUNT>
0

> <PUBCHEM_COMPONENT_COUNT>
1

> <PUBCHEM_CACTVS_TAUTO_COUNT>
-1

> <PUBCHEM_COORDINATE_TYPE>
1
5
255

> <PUBCHEM_BONDANNOTATIONS>
10  11  8
10  14  8
11  15  8
13  16  8
13  17  8
14  18  8
15  19  8
16  20  8
17  21  8
18  19  8
20  22  8
21  22  8
4  23  6
5  24  5
6  13  6

$$$$
