44431620
  -OEChem-09292322242D

 66 69  0     0  0  0  0  0  0999 V2000
    2.0000   -4.0000    0.0000 Br  0  0  0  0  0  0  0  0  0  0  0  0
    3.7320   -5.0000    0.0000 Cl  0  0  0  0  0  0  0  0  0  0  0  0
    3.7320   -1.0000    0.0000 S   0  0  0  0  0  0  0  0  0  0  0  0
    4.7320   -1.0000    0.0000 O   0  0  0  0  0  0  0  0  0  0  0  0
    2.7320   -1.0000    0.0000 O   0  0  0  0  0  0  0  0  0  0  0  0
   10.6603    2.0000    0.0000 O   0  0  0  0  0  0  0  0  0  0  0  0
    7.1962    2.0000    0.0000 N   0  0  0  0  0  0  0  0  0  0  0  0
    8.9282    3.0000    0.0000 N   0  0  0  0  0  0  0  0  0  0  0  0
    3.7320    0.0000    0.0000 N   0  0  0  0  0  0  0  0  0  0  0  0
    4.5981   -3.5000    0.0000 N   0  0  0  0  0  0  0  0  0  0  0  0
    6.3301    1.5000    0.0000 C   0  0  0  0  0  0  0  0  0  0  0  0
    6.3301    0.5000    0.0000 C   0  0  0  0  0  0  0  0  0  0  0  0
    5.4641    2.0000    0.0000 C   0  0  0  0  0  0  0  0  0  0  0  0
    4.5981    0.5000    0.0000 C   0  0  0  0  0  0  0  0  0  0  0  0
    5.4641    0.0000    0.0000 C   0  0  0  0  0  0  0  0  0  0  0  0
    4.5981    1.5000    0.0000 C   0  0  0  0  0  0  0  0  0  0  0  0
    8.0622    1.5000    0.0000 C   0  0  0  0  0  0  0  0  0  0  0  0
    7.1962    3.0000    0.0000 C   0  0  0  0  0  0  0  0  0  0  0  0
    8.9282    2.0000    0.0000 C   0  0  0  0  0  0  0  0  0  0  0  0
    8.0622    3.5000    0.0000 C   0  0  0  0  0  0  0  0  0  0  0  0
    9.7942    3.5000    0.0000 C   0  0  0  0  0  0  0  0  0  0  0  0
    3.7320   -2.0000    0.0000 C   0  0  0  0  0  0  0  0  0  0  0  0
   10.6603    3.0000    0.0000 C   0  0  0  0  0  0  0  0  0  0  0  0
    9.7942    4.5000    0.0000 C   0  0  0  0  0  0  0  0  0  0  0  0
   11.5263    3.5000    0.0000 C   0  0  0  0  0  0  0  0  0  0  0  0
   10.6603    5.0000    0.0000 C   0  0  0  0  0  0  0  0  0  0  0  0
    2.8660   -2.5000    0.0000 C   0  0  0  0  0  0  0  0  0  0  0  0
    4.5981   -2.5000    0.0000 C   0  0  0  0  0  0  0  0  0  0  0  0
   11.5263    4.5000    0.0000 C   0  0  0  0  0  0  0  0  0  0  0  0
   11.5263    1.5000    0.0000 C   0  0  0  0  0  0  0  0  0  0  0  0
    2.8660   -3.5000    0.0000 C   0  0  0  0  0  0  0  0  0  0  0  0
    3.7320   -4.0000    0.0000 C   0  0  0  0  0  0  0  0  0  0  0  0
   11.5263    0.5000    0.0000 C   0  0  0  0  0  0  0  0  0  0  0  0
   12.3923    2.0000    0.0000 C   0  0  0  0  0  0  0  0  0  0  0  0
    6.8671    1.1900    0.0000 H   0  0  0  0  0  0  0  0  0  0  0  0
    6.5422   -0.0826    0.0000 H   0  0  0  0  0  0  0  0  0  0  0  0
    6.9407    0.6077    0.0000 H   0  0  0  0  0  0  0  0  0  0  0  0
    5.8626    2.4750    0.0000 H   0  0  0  0  0  0  0  0  0  0  0  0
    5.0656    2.4750    0.0000 H   0  0  0  0  0  0  0  0  0  0  0  0
    4.5981   -0.1200    0.0000 H   0  0  0  0  0  0  0  0  0  0  0  0
    5.0656   -0.4749    0.0000 H   0  0  0  0  0  0  0  0  0  0  0  0
    5.8626   -0.4749    0.0000 H   0  0  0  0  0  0  0  0  0  0  0  0
    4.3860    2.0826    0.0000 H   0  0  0  0  0  0  0  0  0  0  0  0
    3.9875    1.3923    0.0000 H   0  0  0  0  0  0  0  0  0  0  0  0
    7.6636    1.0250    0.0000 H   0  0  0  0  0  0  0  0  0  0  0  0
    8.4607    1.0250    0.0000 H   0  0  0  0  0  0  0  0  0  0  0  0
    6.9841    3.5826    0.0000 H   0  0  0  0  0  0  0  0  0  0  0  0
    6.5856    2.8923    0.0000 H   0  0  0  0  0  0  0  0  0  0  0  0
    9.1403    1.4174    0.0000 H   0  0  0  0  0  0  0  0  0  0  0  0
    9.5388    2.1077    0.0000 H   0  0  0  0  0  0  0  0  0  0  0  0
    8.4607    3.9750    0.0000 H   0  0  0  0  0  0  0  0  0  0  0  0
    7.6636    3.9750    0.0000 H   0  0  0  0  0  0  0  0  0  0  0  0
    3.1951    0.3100    0.0000 H   0  0  0  0  0  0  0  0  0  0  0  0
    9.2573    4.8100    0.0000 H   0  0  0  0  0  0  0  0  0  0  0  0
   12.0632    3.1900    0.0000 H   0  0  0  0  0  0  0  0  0  0  0  0
   10.6603    5.6200    0.0000 H   0  0  0  0  0  0  0  0  0  0  0  0
    2.3291   -2.1900    0.0000 H   0  0  0  0  0  0  0  0  0  0  0  0
    5.1350   -2.1900    0.0000 H   0  0  0  0  0  0  0  0  0  0  0  0
   12.0632    4.8100    0.0000 H   0  0  0  0  0  0  0  0  0  0  0  0
   10.9893    1.1900    0.0000 H   0  0  0  0  0  0  0  0  0  0  0  0
   10.9063    0.5000    0.0000 H   0  0  0  0  0  0  0  0  0  0  0  0
   11.5263   -0.1200    0.0000 H   0  0  0  0  0  0  0  0  0  0  0  0
   12.1463    0.5000    0.0000 H   0  0  0  0  0  0  0  0  0  0  0  0
   12.7023    1.4631    0.0000 H   0  0  0  0  0  0  0  0  0  0  0  0
   12.9292    2.3100    0.0000 H   0  0  0  0  0  0  0  0  0  0  0  0
   12.0823    2.5369    0.0000 H   0  0  0  0  0  0  0  0  0  0  0  0
  1 31  1  0  0  0  0
  2 32  1  0  0  0  0
  3  4  2  0  0  0  0
  3  5  2  0  0  0  0
  3  9  1  0  0  0  0
  3 22  1  0  0  0  0
  6 23  1  0  0  0  0
  6 30  1  0  0  0  0
  7 11  1  0  0  0  0
  7 17  1  0  0  0  0
  7 18  1  0  0  0  0
  8 19  1  0  0  0  0
  8 20  1  0  0  0  0
  8 21  1  0  0  0  0
  9 14  1  0  0  0  0
  9 53  1  0  0  0  0
 10 28  2  0  0  0  0
 10 32  1  0  0  0  0
 11 12  1  0  0  0  0
 11 13  1  0  0  0  0
 11 35  1  0  0  0  0
 12 15  1  0  0  0  0
 12 36  1  0  0  0  0
 12 37  1  0  0  0  0
 13 16  1  0  0  0  0
 13 38  1  0  0  0  0
 13 39  1  0  0  0  0
 14 15  1  0  0  0  0
 14 16  1  0  0  0  0
 14 40  1  0  0  0  0
 15 41  1  0  0  0  0
 15 42  1  0  0  0  0
 16 43  1  0  0  0  0
 16 44  1  0  0  0  0
 17 19  1  0  0  0  0
 17 45  1  0  0  0  0
 17 46  1  0  0  0  0
 18 20  1  0  0  0  0
 18 47  1  0  0  0  0
 18 48  1  0  0  0  0
 19 49  1  0  0  0  0
 19 50  1  0  0  0  0
 20 51  1  0  0  0  0
 20 52  1  0  0  0  0
 21 23  1  0  0  0  0
 21 24  2  0  0  0  0
 22 27  2  0  0  0  0
 22 28  1  0  0  0  0
 23 25  2  0  0  0  0
 24 26  1  0  0  0  0
 24 54  1  0  0  0  0
 25 29  1  0  0  0  0
 25 55  1  0  0  0  0
 26 29  2  0  0  0  0
 26 56  1  0  0  0  0
 27 31  1  0  0  0  0
 27 57  1  0  0  0  0
 28 58  1  0  0  0  0
 29 59  1  0  0  0  0
 30 33  1  0  0  0  0
 30 34  1  0  0  0  0
 30 60  1  0  0  0  0
 31 32  2  0  0  0  0
 33 61  1  0  0  0  0
 33 62  1  0  0  0  0
 33 63  1  0  0  0  0
 34 64  1  0  0  0  0
 34 65  1  0  0  0  0
 34 66  1  0  0  0  0
M  END
> <PUBCHEM_COMPOUND_CID>
44431620

> <PUBCHEM_COMPOUND_CANONICALIZED>
1

> <PUBCHEM_CACTVS_COMPLEXITY>
739

> <PUBCHEM_CACTVS_HBOND_ACCEPTOR>
7

> <PUBCHEM_CACTVS_HBOND_DONOR>
1

> <PUBCHEM_CACTVS_ROTATABLE_BOND>
7

> <PUBCHEM_CACTVS_SUBSKEYS>
AAADcfB7sABEEAAAAAAAAAAAAAAAAAAAAAA8eIEAAAAAAAABwAAAHgZQQAABqD7h0iY+x5NIFAKgADRnRHDCiDAxJiQI2LwvbrgOZuLFs5uXOCjk0BHY6heQQAAAAAAAAAAAEAAAAQAAAAAgAAAAAAAAAA==

> <PUBCHEM_IUPAC_OPENEYE_NAME>
5-bromo-6-chloro-N-[4-[4-(2-isopropoxyphenyl)piperazin-1-yl]cyclohexyl]pyridine-3-sulfonamide

> <PUBCHEM_IUPAC_CAS_NAME>
5-bromo-6-chloro-N-[4-[4-(2-propan-2-yloxyphenyl)-1-piperazinyl]cyclohexyl]-3-pyridinesulfonamide

> <PUBCHEM_IUPAC_NAME_MARKUP>
5-bromo-6-chloro-<I>N</I>-[4-[4-(2-propan-2-yloxyphenyl)piperazin-1-yl]cyclohexyl]pyridine-3-sulfonamide

> <PUBCHEM_IUPAC_NAME>
5-bromo-6-chloro-N-[4-[4-(2-propan-2-yloxyphenyl)piperazin-1-yl]cyclohexyl]pyridine-3-sulfonamide

> <PUBCHEM_IUPAC_SYSTEMATIC_NAME>
5-bromanyl-6-chloranyl-N-[4-[4-(2-propan-2-yloxyphenyl)piperazin-1-yl]cyclohexyl]pyridine-3-sulfonamide

> <PUBCHEM_IUPAC_TRADITIONAL_NAME>
5-bromo-6-chloro-N-[4-[4-(2-isopropoxyphenyl)piperazino]cyclohexyl]pyridine-3-sulfonamide

> <PUBCHEM_IUPAC_INCHI>
InChI=1S/C24H32BrClN4O3S/c1-17(2)33-23-6-4-3-5-22(23)30-13-11-29(12-14-30)19-9-7-18(8-10-19)28-34(31,32)20-15-21(25)24(26)27-16-20/h3-6,15-19,28H,7-14H2,1-2H3

> <PUBCHEM_IUPAC_INCHIKEY>
LASDMXNHWPCZMK-UHFFFAOYSA-N

> <PUBCHEM_XLOGP3_AA>
5.2

> <PUBCHEM_EXACT_MASS>
570.10670

> <PUBCHEM_MOLECULAR_FORMULA>
C24H32BrClN4O3S

> <PUBCHEM_MOLECULAR_WEIGHT>
572.0

> <PUBCHEM_OPENEYE_CAN_SMILES>
CC(C)OC1=CC=CC=C1N2CCN(CC2)C3CCC(CC3)NS(=O)(=O)C4=CC(=C(N=C4)Cl)Br

> <PUBCHEM_OPENEYE_ISO_SMILES>
CC(C)OC1=CC=CC=C1N2CCN(CC2)C3CCC(CC3)NS(=O)(=O)C4=CC(=C(N=C4)Cl)Br

> <PUBCHEM_CACTVS_TPSA>
83.2

> <PUBCHEM_MONOISOTOPIC_WEIGHT>
570.10670

> <PUBCHEM_TOTAL_CHARGE>
0

> <PUBCHEM_HEAVY_ATOM_COUNT>
34

> <PUBCHEM_ATOM_DEF_STEREO_COUNT>
0

> <PUBCHEM_ATOM_UDEF_STEREO_COUNT>
0

> <PUBCHEM_BOND_DEF_STEREO_COUNT>
0

> <PUBCHEM_BOND_UDEF_STEREO_COUNT>
0

> <PUBCHEM_ISOTOPIC_ATOM_COUNT>
0

> <PUBCHEM_COMPONENT_COUNT>
1

> <PUBCHEM_CACTVS_TAUTO_COUNT>
-1

> <PUBCHEM_COORDINATE_TYPE>
1
5
255

> <PUBCHEM_BONDANNOTATIONS>
10  28  8
10  32  8
21  23  8
21  24  8
22  27  8
22  28  8
23  25  8
24  26  8
25  29  8
26  29  8
27  31  8
31  32  8

$$$$
