5374
  -OEChem-09292322402D

 29 30  0     1  0  0  0  0  0999 V2000
    7.6371    0.8133    0.0000 S   0  0  0  0  0  0  0  0  0  0  0  0
    4.5043   -0.0070    0.0000 N   0  0  3  0  0  0  0  0  0  0  0  0
    7.6451   -0.7961    0.0000 N   0  0  0  0  0  0  0  0  0  0  0  0
    9.2247    0.0165    0.0000 N   0  0  0  0  0  0  0  0  0  0  0  0
    4.9337    0.8961    0.0000 C   0  0  0  0  0  0  0  0  0  0  0  0
    4.9427   -0.9058    0.0000 C   0  0  0  0  0  0  0  0  0  0  0  0
    5.9075    1.1235    0.0000 C   0  0  0  0  0  0  0  0  0  0  0  0
    5.9187   -1.1235    0.0000 C   0  0  0  0  0  0  0  0  0  0  0  0
    6.6924    0.5039    0.0000 C   0  0  0  0  0  0  0  0  0  0  0  0
    6.6974   -0.4961    0.0000 C   0  0  0  0  0  0  0  0  0  0  0  0
    3.5043   -0.0120    0.0000 C   0  0  0  0  0  0  0  0  0  0  0  0
    8.2247    0.0115    0.0000 C   0  0  0  0  0  0  0  0  0  0  0  0
    3.0000    0.8515    0.0000 C   0  0  0  0  0  0  0  0  0  0  0  0
    2.0000    0.8465    0.0000 C   0  0  0  0  0  0  0  0  0  0  0  0
    4.9306    1.5161    0.0000 H   0  0  0  0  0  0  0  0  0  0  0  0
    4.3285    1.0310    0.0000 H   0  0  0  0  0  0  0  0  0  0  0  0
    4.3389   -1.0468    0.0000 H   0  0  0  0  0  0  0  0  0  0  0  0
    4.9458   -1.5258    0.0000 H   0  0  0  0  0  0  0  0  0  0  0  0
    6.3903    1.5124    0.0000 H   0  0  0  0  0  0  0  0  0  0  0  0
    5.6357    1.6807    0.0000 H   0  0  0  0  0  0  0  0  0  0  0  0
    5.6525   -1.6834    0.0000 H   0  0  0  0  0  0  0  0  0  0  0  0
    6.4053   -1.5076    0.0000 H   0  0  0  0  0  0  0  0  0  0  0  0
    2.9228   -0.2270    0.0000 H   0  0  0  0  0  0  0  0  0  0  0  0
    3.6150   -0.6220    0.0000 H   0  0  0  0  0  0  0  0  0  0  0  0
    3.3073    1.3900    0.0000 H   0  0  0  0  0  0  0  0  0  0  0  0
    9.5374   -0.5189    0.0000 H   0  0  0  0  0  0  0  0  0  0  0  0
    9.5320    0.5550    0.0000 H   0  0  0  0  0  0  0  0  0  0  0  0
    1.6873    1.3819    0.0000 H   0  0  0  0  0  0  0  0  0  0  0  0
    1.6927    0.3080    0.0000 H   0  0  0  0  0  0  0  0  0  0  0  0
  1  9  1  0  0  0  0
  1 12  1  0  0  0  0
  2  5  1  0  0  0  0
  2  6  1  0  0  0  0
  2 11  1  0  0  0  0
  3 10  1  0  0  0  0
  3 12  2  0  0  0  0
  4 12  1  0  0  0  0
  4 26  1  0  0  0  0
  4 27  1  0  0  0  0
  5  7  1  0  0  0  0
  5 15  1  0  0  0  0
  5 16  1  0  0  0  0
  6  8  1  0  0  0  0
  6 17  1  0  0  0  0
  6 18  1  0  0  0  0
  7  9  1  0  0  0  0
  7 19  1  0  0  0  0
  7 20  1  0  0  0  0
  8 10  1  0  0  0  0
  8 21  1  0  0  0  0
  8 22  1  0  0  0  0
  9 10  2  0  0  0  0
 11 13  1  0  0  0  0
 11 23  1  0  0  0  0
 11 24  1  0  0  0  0
 13 14  2  0  0  0  0
 13 25  1  0  0  0  0
 14 28  1  0  0  0  0
 14 29  1  0  0  0  0
M  END
> <PUBCHEM_COMPOUND_CID>
5374

> <PUBCHEM_COMPOUND_CANONICALIZED>
1

> <PUBCHEM_CACTVS_COMPLEXITY>
210

> <PUBCHEM_CACTVS_HBOND_ACCEPTOR>
4

> <PUBCHEM_CACTVS_HBOND_DONOR>
1

> <PUBCHEM_CACTVS_ROTATABLE_BOND>
2

> <PUBCHEM_CACTVS_SUBSKEYS>
AAADccBzAABAAAAAAAAAAAAAAAAAAWAAAAAAAAAABYAAAACxgAAAHAQQAAAACAjBVgQBkRNIEAikASRiZACA8KlhCDkIGBQ4QAiAIAJgwQEEAAAgAALISCMQAAAAAAAAAAAAAAAAAAAAAAAAAAAAAAAAAA==

> <PUBCHEM_IUPAC_OPENEYE_NAME>
6-allyl-4,5,7,8-tetrahydrothiazolo[4,5-d]azepin-2-amine

> <PUBCHEM_IUPAC_CAS_NAME>
6-prop-2-enyl-4,5,7,8-tetrahydrothiazolo[4,5-d]azepin-2-amine

> <PUBCHEM_IUPAC_NAME_MARKUP>
6-prop-2-enyl-4,5,7,8-tetrahydro-[1,3]thiazolo[4,5-d]azepin-2-amine

> <PUBCHEM_IUPAC_NAME>
6-prop-2-enyl-4,5,7,8-tetrahydro-[1,3]thiazolo[4,5-d]azepin-2-amine

> <PUBCHEM_IUPAC_SYSTEMATIC_NAME>
6-prop-2-enyl-4,5,7,8-tetrahydro-[1,3]thiazolo[4,5-d]azepin-2-amine

> <PUBCHEM_IUPAC_TRADITIONAL_NAME>
(6-allyl-4,5,7,8-tetrahydrothiazol[4,5-d]azepin-2-yl)amine

> <PUBCHEM_IUPAC_INCHI>
InChI=1S/C10H15N3S/c1-2-5-13-6-3-8-9(4-7-13)14-10(11)12-8/h2H,1,3-7H2,(H2,11,12)

> <PUBCHEM_IUPAC_INCHIKEY>
DHSSDEDRBUKTQY-UHFFFAOYSA-N

> <PUBCHEM_XLOGP3>
1.5

> <PUBCHEM_EXACT_MASS>
209.09866866

> <PUBCHEM_MOLECULAR_FORMULA>
C10H15N3S

> <PUBCHEM_MOLECULAR_WEIGHT>
209.31

> <PUBCHEM_OPENEYE_CAN_SMILES>
C=CCN1CCC2=C(CC1)SC(=N2)N

> <PUBCHEM_OPENEYE_ISO_SMILES>
C=CCN1CCC2=C(CC1)SC(=N2)N

> <PUBCHEM_CACTVS_TPSA>
70.4

> <PUBCHEM_MONOISOTOPIC_WEIGHT>
209.09866866

> <PUBCHEM_TOTAL_CHARGE>
0

> <PUBCHEM_HEAVY_ATOM_COUNT>
14

> <PUBCHEM_ATOM_DEF_STEREO_COUNT>
0

> <PUBCHEM_ATOM_UDEF_STEREO_COUNT>
0

> <PUBCHEM_BOND_DEF_STEREO_COUNT>
0

> <PUBCHEM_BOND_UDEF_STEREO_COUNT>
0

> <PUBCHEM_ISOTOPIC_ATOM_COUNT>
0

> <PUBCHEM_COMPONENT_COUNT>
1

> <PUBCHEM_CACTVS_TAUTO_COUNT>
2

> <PUBCHEM_COORDINATE_TYPE>
1
5
255

> <PUBCHEM_BONDANNOTATIONS>
1  12  8
1  9  8
3  10  8
3  12  8
9  10  8

$$$$
