137637994
  -OEChem-09292322392D

 65 69  0     0  0  0  0  0  0999 V2000
    4.6660   -3.7327    0.0000 S   0  0  0  0  0  0  0  0  0  0  0  0
    3.8000    6.7673    0.0000 F   0  0  0  0  0  0  0  0  0  0  0  0
    5.6660   -3.7327    0.0000 O   0  0  0  0  0  0  0  0  0  0  0  0
    3.6660   -3.7327    0.0000 O   0  0  0  0  0  0  0  0  0  0  0  0
    4.6660   -2.7327    0.0000 N   0  0  0  0  0  0  0  0  0  0  0  0
    5.5321    1.7673    0.0000 N   0  0  0  0  0  0  0  0  0  0  0  0
    5.5321    3.7673    0.0000 N   0  0  0  0  0  0  0  0  0  0  0  0
    5.5321   -6.2327    0.0000 N   0  0  0  0  0  0  0  0  0  0  0  0
    4.6660   -0.7327    0.0000 C   0  0  0  0  0  0  0  0  0  0  0  0
    5.5321   -1.2327    0.0000 C   0  0  0  0  0  0  0  0  0  0  0  0
    3.8000   -1.2327    0.0000 C   0  0  0  0  0  0  0  0  0  0  0  0
    4.6660    0.2673    0.0000 C   0  0  0  0  0  0  0  0  0  0  0  0
    5.5321   -2.2327    0.0000 C   0  0  0  0  0  0  0  0  0  0  0  0
    3.8000   -2.2327    0.0000 C   0  0  0  0  0  0  0  0  0  0  0  0
    5.5321    0.7673    0.0000 C   0  0  0  0  0  0  0  0  0  0  0  0
    6.3981    2.2673    0.0000 C   0  0  0  0  0  0  0  0  0  0  0  0
    4.6660    2.2673    0.0000 C   0  0  0  0  0  0  0  0  0  0  0  0
    6.3981    3.2673    0.0000 C   0  0  0  0  0  0  0  0  0  0  0  0
    4.6660    3.2673    0.0000 C   0  0  0  0  0  0  0  0  0  0  0  0
    4.6660   -4.7327    0.0000 C   0  0  0  0  0  0  0  0  0  0  0  0
    5.5321    4.7673    0.0000 C   0  0  0  0  0  0  0  0  0  0  0  0
    3.8000   -5.2327    0.0000 C   0  0  0  0  0  0  0  0  0  0  0  0
    5.5321   -5.2327    0.0000 C   0  0  0  0  0  0  0  0  0  0  0  0
    4.6660    5.2673    0.0000 C   0  0  0  0  0  0  0  0  0  0  0  0
    6.3981    5.2673    0.0000 C   0  0  0  0  0  0  0  0  0  0  0  0
    3.8000   -6.2327    0.0000 C   0  0  0  0  0  0  0  0  0  0  0  0
    2.9061   -4.6980    0.0000 C   0  0  0  0  0  0  0  0  0  0  0  0
    4.6660   -6.7327    0.0000 C   0  0  0  0  0  0  0  0  0  0  0  0
    4.6660    6.2673    0.0000 C   0  0  0  0  0  0  0  0  0  0  0  0
    6.3981    6.2673    0.0000 C   0  0  0  0  0  0  0  0  0  0  0  0
    2.9061   -6.7673    0.0000 C   0  0  0  0  0  0  0  0  0  0  0  0
    2.0000   -5.2118    0.0000 C   0  0  0  0  0  0  0  0  0  0  0  0
    5.5321    6.7673    0.0000 C   0  0  0  0  0  0  0  0  0  0  0  0
    2.0000   -6.2535    0.0000 C   0  0  0  0  0  0  0  0  0  0  0  0
    5.2030   -0.4227    0.0000 H   0  0  0  0  0  0  0  0  0  0  0  0
    6.1426   -1.3403    0.0000 H   0  0  0  0  0  0  0  0  0  0  0  0
    5.7441   -0.6501    0.0000 H   0  0  0  0  0  0  0  0  0  0  0  0
    3.5880   -0.6501    0.0000 H   0  0  0  0  0  0  0  0  0  0  0  0
    3.1894   -1.3403    0.0000 H   0  0  0  0  0  0  0  0  0  0  0  0
    4.4540    0.8499    0.0000 H   0  0  0  0  0  0  0  0  0  0  0  0
    4.0555    0.1597    0.0000 H   0  0  0  0  0  0  0  0  0  0  0  0
    5.7441   -2.8153    0.0000 H   0  0  0  0  0  0  0  0  0  0  0  0
    6.1426   -2.1250    0.0000 H   0  0  0  0  0  0  0  0  0  0  0  0
    3.1894   -2.1250    0.0000 H   0  0  0  0  0  0  0  0  0  0  0  0
    3.5880   -2.8153    0.0000 H   0  0  0  0  0  0  0  0  0  0  0  0
    5.7441    0.1847    0.0000 H   0  0  0  0  0  0  0  0  0  0  0  0
    6.1426    0.8750    0.0000 H   0  0  0  0  0  0  0  0  0  0  0  0
    6.6101    1.6847    0.0000 H   0  0  0  0  0  0  0  0  0  0  0  0
    7.0087    2.3750    0.0000 H   0  0  0  0  0  0  0  0  0  0  0  0
    4.0555    2.3750    0.0000 H   0  0  0  0  0  0  0  0  0  0  0  0
    4.4540    1.6847    0.0000 H   0  0  0  0  0  0  0  0  0  0  0  0
    7.0087    3.1597    0.0000 H   0  0  0  0  0  0  0  0  0  0  0  0
    6.6101    3.8499    0.0000 H   0  0  0  0  0  0  0  0  0  0  0  0
    4.4540    3.8499    0.0000 H   0  0  0  0  0  0  0  0  0  0  0  0
    4.0555    3.1597    0.0000 H   0  0  0  0  0  0  0  0  0  0  0  0
    6.0690   -4.9227    0.0000 H   0  0  0  0  0  0  0  0  0  0  0  0
    4.1291    4.9573    0.0000 H   0  0  0  0  0  0  0  0  0  0  0  0
    6.9350    4.9573    0.0000 H   0  0  0  0  0  0  0  0  0  0  0  0
    2.9132   -4.0780    0.0000 H   0  0  0  0  0  0  0  0  0  0  0  0
    4.6660   -7.3527    0.0000 H   0  0  0  0  0  0  0  0  0  0  0  0
    6.9350    6.5773    0.0000 H   0  0  0  0  0  0  0  0  0  0  0  0
    2.9132   -7.3873    0.0000 H   0  0  0  0  0  0  0  0  0  0  0  0
    1.4643   -4.8998    0.0000 H   0  0  0  0  0  0  0  0  0  0  0  0
    5.5321    7.3873    0.0000 H   0  0  0  0  0  0  0  0  0  0  0  0
    1.4643   -6.5656    0.0000 H   0  0  0  0  0  0  0  0  0  0  0  0
  1  3  2  0  0  0  0
  1  4  2  0  0  0  0
  1  5  1  0  0  0  0
  1 20  1  0  0  0  0
  2 29  1  0  0  0  0
  5 13  1  0  0  0  0
  5 14  1  0  0  0  0
  6 15  1  0  0  0  0
  6 16  1  0  0  0  0
  6 17  1  0  0  0  0
  7 18  1  0  0  0  0
  7 19  1  0  0  0  0
  7 21  1  0  0  0  0
  8 23  1  0  0  0  0
  8 28  2  0  0  0  0
  9 10  1  0  0  0  0
  9 11  1  0  0  0  0
  9 12  1  0  0  0  0
  9 35  1  0  0  0  0
 10 13  1  0  0  0  0
 10 36  1  0  0  0  0
 10 37  1  0  0  0  0
 11 14  1  0  0  0  0
 11 38  1  0  0  0  0
 11 39  1  0  0  0  0
 12 15  1  0  0  0  0
 12 40  1  0  0  0  0
 12 41  1  0  0  0  0
 13 42  1  0  0  0  0
 13 43  1  0  0  0  0
 14 44  1  0  0  0  0
 14 45  1  0  0  0  0
 15 46  1  0  0  0  0
 15 47  1  0  0  0  0
 16 18  1  0  0  0  0
 16 48  1  0  0  0  0
 16 49  1  0  0  0  0
 17 19  1  0  0  0  0
 17 50  1  0  0  0  0
 17 51  1  0  0  0  0
 18 52  1  0  0  0  0
 18 53  1  0  0  0  0
 19 54  1  0  0  0  0
 19 55  1  0  0  0  0
 20 22  1  0  0  0  0
 20 23  2  0  0  0  0
 21 24  2  0  0  0  0
 21 25  1  0  0  0  0
 22 26  1  0  0  0  0
 22 27  2  0  0  0  0
 23 56  1  0  0  0  0
 24 29  1  0  0  0  0
 24 57  1  0  0  0  0
 25 30  2  0  0  0  0
 25 58  1  0  0  0  0
 26 28  1  0  0  0  0
 26 31  2  0  0  0  0
 27 32  1  0  0  0  0
 27 59  1  0  0  0  0
 28 60  1  0  0  0  0
 29 33  2  0  0  0  0
 30 33  1  0  0  0  0
 30 61  1  0  0  0  0
 31 34  1  0  0  0  0
 31 62  1  0  0  0  0
 32 34  2  0  0  0  0
 32 63  1  0  0  0  0
 33 64  1  0  0  0  0
 34 65  1  0  0  0  0
M  END
> <PUBCHEM_COMPOUND_CID>
137637994

> <PUBCHEM_COMPOUND_CANONICALIZED>
1

> <PUBCHEM_CACTVS_COMPLEXITY>
746

> <PUBCHEM_CACTVS_HBOND_ACCEPTOR>
7

> <PUBCHEM_CACTVS_HBOND_DONOR>
0

> <PUBCHEM_CACTVS_ROTATABLE_BOND>
6

> <PUBCHEM_CACTVS_SUBSKEYS>
AAADceB7sQBAAAAAAAAAAAAAAAAAAAAAAAA8eLECAAAAAACx9AAAHQQAQAAADQjBWgw8wdMIEAKgAjRnRHDCgDAxAiAI2DwoZJgIYOLAkZGUIAhggADIyAcQgIAOgAAAAAAQAAAAAAAAACAAAAAAAAAAAA==

> <PUBCHEM_IUPAC_OPENEYE_NAME>
4-[[4-[2-[4-(3-fluorophenyl)piperazin-1-yl]ethyl]-1-piperidyl]sulfonyl]isoquinoline

> <PUBCHEM_IUPAC_CAS_NAME>
4-[[4-[2-[4-(3-fluorophenyl)-1-piperazinyl]ethyl]-1-piperidinyl]sulfonyl]isoquinoline

> <PUBCHEM_IUPAC_NAME_MARKUP>
4-[4-[2-[4-(3-fluorophenyl)piperazin-1-yl]ethyl]piperidin-1-yl]sulfonylisoquinoline

> <PUBCHEM_IUPAC_NAME>
4-[4-[2-[4-(3-fluorophenyl)piperazin-1-yl]ethyl]piperidin-1-yl]sulfonylisoquinoline

> <PUBCHEM_IUPAC_SYSTEMATIC_NAME>
4-[4-[2-[4-(3-fluorophenyl)piperazin-1-yl]ethyl]piperidin-1-yl]sulfonylisoquinoline

> <PUBCHEM_IUPAC_TRADITIONAL_NAME>
4-[4-[2-[4-(3-fluorophenyl)piperazino]ethyl]piperidino]sulfonylisoquinoline

> <PUBCHEM_IUPAC_INCHI>
InChI=1S/C26H31FN4O2S/c27-23-5-3-6-24(18-23)30-16-14-29(15-17-30)11-8-21-9-12-31(13-10-21)34(32,33)26-20-28-19-22-4-1-2-7-25(22)26/h1-7,18-21H,8-17H2

> <PUBCHEM_IUPAC_INCHIKEY>
PSSRRSJCOUNDGG-UHFFFAOYSA-N

> <PUBCHEM_XLOGP3_AA>
4.1

> <PUBCHEM_EXACT_MASS>
482.21517558

> <PUBCHEM_MOLECULAR_FORMULA>
C26H31FN4O2S

> <PUBCHEM_MOLECULAR_WEIGHT>
482.6

> <PUBCHEM_OPENEYE_CAN_SMILES>
C1CN(CCC1CCN2CCN(CC2)C3=CC(=CC=C3)F)S(=O)(=O)C4=CN=CC5=CC=CC=C54

> <PUBCHEM_OPENEYE_ISO_SMILES>
C1CN(CCC1CCN2CCN(CC2)C3=CC(=CC=C3)F)S(=O)(=O)C4=CN=CC5=CC=CC=C54

> <PUBCHEM_CACTVS_TPSA>
65.1

> <PUBCHEM_MONOISOTOPIC_WEIGHT>
482.21517558

> <PUBCHEM_TOTAL_CHARGE>
0

> <PUBCHEM_HEAVY_ATOM_COUNT>
34

> <PUBCHEM_ATOM_DEF_STEREO_COUNT>
0

> <PUBCHEM_ATOM_UDEF_STEREO_COUNT>
0

> <PUBCHEM_BOND_DEF_STEREO_COUNT>
0

> <PUBCHEM_BOND_UDEF_STEREO_COUNT>
0

> <PUBCHEM_ISOTOPIC_ATOM_COUNT>
0

> <PUBCHEM_COMPONENT_COUNT>
1

> <PUBCHEM_CACTVS_TAUTO_COUNT>
-1

> <PUBCHEM_COORDINATE_TYPE>
1
5
255

> <PUBCHEM_BONDANNOTATIONS>
20  22  8
20  23  8
21  24  8
21  25  8
22  26  8
22  27  8
24  29  8
25  30  8
26  28  8
26  31  8
27  32  8
29  33  8
30  33  8
31  34  8
32  34  8
8  23  8
8  28  8

$$$$
