45271510
  -OEChem-09292322282D

 46 48  0     0  0  0  0  0  0999 V2000
    2.0000   -4.7487    0.0000 Cl  0  0  0  0  0  0  0  0  0  0  0  0
    5.4921   -1.4700    0.0000 O   0  0  0  0  0  0  0  0  0  0  0  0
    5.0009    2.3217    0.0000 N   0  0  0  0  0  0  0  0  0  0  0  0
    4.2320   -0.2099    0.0000 N   0  0  0  0  0  0  0  0  0  0  0  0
    3.7320   -1.7487    0.0000 N   0  0  0  0  0  0  0  0  0  0  0  0
    6.1765    3.9397    0.0000 C   0  0  0  0  0  0  0  0  0  0  0  0
    6.5832    3.0262    0.0000 C   0  0  0  0  0  0  0  0  0  0  0  0
    5.1819    4.0442    0.0000 C   0  0  0  0  0  0  0  0  0  0  0  0
    5.9954    2.2172    0.0000 C   0  0  0  0  0  0  0  0  0  0  0  0
    4.5942    3.2352    0.0000 C   0  0  0  0  0  0  0  0  0  0  0  0
    4.4131    1.5127    0.0000 C   0  0  0  0  0  0  0  0  0  0  0  0
    4.8198    0.5991    0.0000 C   0  0  0  0  0  0  0  0  0  0  0  0
    6.7642    4.7487    0.0000 C   0  0  0  0  0  0  0  0  0  0  0  0
    3.2320   -0.2099    0.0000 C   0  0  0  0  0  0  0  0  0  0  0  0
    2.9230   -1.1610    0.0000 C   0  0  0  0  0  0  0  0  0  0  0  0
    4.5411   -1.1610    0.0000 C   0  0  0  0  0  0  0  0  0  0  0  0
    3.7320   -2.7487    0.0000 C   0  0  0  0  0  0  0  0  0  0  0  0
    2.8660   -3.2487    0.0000 C   0  0  0  0  0  0  0  0  0  0  0  0
    4.5981   -3.2487    0.0000 C   0  0  0  0  0  0  0  0  0  0  0  0
    2.8660   -4.2487    0.0000 C   0  0  0  0  0  0  0  0  0  0  0  0
    4.5981   -4.2487    0.0000 C   0  0  0  0  0  0  0  0  0  0  0  0
    3.7320   -4.7487    0.0000 C   0  0  0  0  0  0  0  0  0  0  0  0
    5.9243    4.5061    0.0000 H   0  0  0  0  0  0  0  0  0  0  0  0
    7.0139    2.5802    0.0000 H   0  0  0  0  0  0  0  0  0  0  0  0
    7.0972    3.3729    0.0000 H   0  0  0  0  0  0  0  0  0  0  0  0
    5.3528    4.6402    0.0000 H   0  0  0  0  0  0  0  0  0  0  0  0
    4.6247    4.3160    0.0000 H   0  0  0  0  0  0  0  0  0  0  0  0
    5.8245    1.6212    0.0000 H   0  0  0  0  0  0  0  0  0  0  0  0
    6.5527    1.9454    0.0000 H   0  0  0  0  0  0  0  0  0  0  0  0
    4.1635    3.6812    0.0000 H   0  0  0  0  0  0  0  0  0  0  0  0
    4.0801    2.8885    0.0000 H   0  0  0  0  0  0  0  0  0  0  0  0
    3.9824    1.9587    0.0000 H   0  0  0  0  0  0  0  0  0  0  0  0
    3.8991    1.1660    0.0000 H   0  0  0  0  0  0  0  0  0  0  0  0
    5.2505    0.1531    0.0000 H   0  0  0  0  0  0  0  0  0  0  0  0
    5.3338    0.9458    0.0000 H   0  0  0  0  0  0  0  0  0  0  0  0
    7.2658    4.3843    0.0000 H   0  0  0  0  0  0  0  0  0  0  0  0
    7.1287    5.2503    0.0000 H   0  0  0  0  0  0  0  0  0  0  0  0
    6.2626    5.1132    0.0000 H   0  0  0  0  0  0  0  0  0  0  0  0
    3.2969    0.4067    0.0000 H   0  0  0  0  0  0  0  0  0  0  0  0
    2.6256   -0.0810    0.0000 H   0  0  0  0  0  0  0  0  0  0  0  0
    2.3566   -0.9088    0.0000 H   0  0  0  0  0  0  0  0  0  0  0  0
    2.6130   -1.6979    0.0000 H   0  0  0  0  0  0  0  0  0  0  0  0
    2.3291   -2.9387    0.0000 H   0  0  0  0  0  0  0  0  0  0  0  0
    5.1350   -2.9387    0.0000 H   0  0  0  0  0  0  0  0  0  0  0  0
    5.1350   -4.5587    0.0000 H   0  0  0  0  0  0  0  0  0  0  0  0
    3.7320   -5.3687    0.0000 H   0  0  0  0  0  0  0  0  0  0  0  0
  1 20  1  0  0  0  0
  2 16  2  0  0  0  0
  3  9  1  0  0  0  0
  3 10  1  0  0  0  0
  3 11  1  0  0  0  0
  4 12  1  0  0  0  0
  4 14  1  0  0  0  0
  4 16  1  0  0  0  0
  5 15  1  0  0  0  0
  5 16  1  0  0  0  0
  5 17  1  0  0  0  0
  6  7  1  0  0  0  0
  6  8  1  0  0  0  0
  6 13  1  0  0  0  0
  6 23  1  0  0  0  0
  7  9  1  0  0  0  0
  7 24  1  0  0  0  0
  7 25  1  0  0  0  0
  8 10  1  0  0  0  0
  8 26  1  0  0  0  0
  8 27  1  0  0  0  0
  9 28  1  0  0  0  0
  9 29  1  0  0  0  0
 10 30  1  0  0  0  0
 10 31  1  0  0  0  0
 11 12  1  0  0  0  0
 11 32  1  0  0  0  0
 11 33  1  0  0  0  0
 12 34  1  0  0  0  0
 12 35  1  0  0  0  0
 13 36  1  0  0  0  0
 13 37  1  0  0  0  0
 13 38  1  0  0  0  0
 14 15  1  0  0  0  0
 14 39  1  0  0  0  0
 14 40  1  0  0  0  0
 15 41  1  0  0  0  0
 15 42  1  0  0  0  0
 17 18  2  0  0  0  0
 17 19  1  0  0  0  0
 18 20  1  0  0  0  0
 18 43  1  0  0  0  0
 19 21  2  0  0  0  0
 19 44  1  0  0  0  0
 20 22  2  0  0  0  0
 21 22  1  0  0  0  0
 21 45  1  0  0  0  0
 22 46  1  0  0  0  0
M  END
> <PUBCHEM_COMPOUND_CID>
45271510

> <PUBCHEM_COMPOUND_CANONICALIZED>
1

> <PUBCHEM_CACTVS_COMPLEXITY>
384

> <PUBCHEM_CACTVS_HBOND_ACCEPTOR>
2

> <PUBCHEM_CACTVS_HBOND_DONOR>
0

> <PUBCHEM_CACTVS_ROTATABLE_BOND>
4

> <PUBCHEM_CACTVS_SUBSKEYS>
AAADceB7IAAEAAAAAAAAAAAAAAAAAWAAAAA8QAAAAAAAAAABAAAAHgIAAAAADQrBECQzwIMAAACIACRCUACCAAAhBwAIiAAIZoiIYCLBk5GUIAhohgLIyCcQAAAKAAAAAAIAAAAAAAAABAAAAAAAAAAAAA==

> <PUBCHEM_IUPAC_OPENEYE_NAME>
1-(3-chlorophenyl)-3-[2-(4-methyl-1-piperidyl)ethyl]imidazolidin-2-one

> <PUBCHEM_IUPAC_CAS_NAME>
1-(3-chlorophenyl)-3-[2-(4-methyl-1-piperidinyl)ethyl]-2-imidazolidinone

> <PUBCHEM_IUPAC_NAME_MARKUP>
1-(3-chlorophenyl)-3-[2-(4-methylpiperidin-1-yl)ethyl]imidazolidin-2-one

> <PUBCHEM_IUPAC_NAME>
1-(3-chlorophenyl)-3-[2-(4-methylpiperidin-1-yl)ethyl]imidazolidin-2-one

> <PUBCHEM_IUPAC_SYSTEMATIC_NAME>
1-(3-chlorophenyl)-3-[2-(4-methylpiperidin-1-yl)ethyl]imidazolidin-2-one

> <PUBCHEM_IUPAC_TRADITIONAL_NAME>
1-(3-chlorophenyl)-3-[2-(4-methylpiperidino)ethyl]-2-imidazolidinone

> <PUBCHEM_IUPAC_INCHI>
InChI=1S/C17H24ClN3O/c1-14-5-7-19(8-6-14)9-10-20-11-12-21(17(20)22)16-4-2-3-15(18)13-16/h2-4,13-14H,5-12H2,1H3

> <PUBCHEM_IUPAC_INCHIKEY>
ICZBTJKIVJMPIF-UHFFFAOYSA-N

> <PUBCHEM_XLOGP3_AA>
3

> <PUBCHEM_EXACT_MASS>
321.1607901

> <PUBCHEM_MOLECULAR_FORMULA>
C17H24ClN3O

> <PUBCHEM_MOLECULAR_WEIGHT>
321.8

> <PUBCHEM_OPENEYE_CAN_SMILES>
CC1CCN(CC1)CCN2CCN(C2=O)C3=CC(=CC=C3)Cl

> <PUBCHEM_OPENEYE_ISO_SMILES>
CC1CCN(CC1)CCN2CCN(C2=O)C3=CC(=CC=C3)Cl

> <PUBCHEM_CACTVS_TPSA>
26.8

> <PUBCHEM_MONOISOTOPIC_WEIGHT>
321.1607901

> <PUBCHEM_TOTAL_CHARGE>
0

> <PUBCHEM_HEAVY_ATOM_COUNT>
22

> <PUBCHEM_ATOM_DEF_STEREO_COUNT>
0

> <PUBCHEM_ATOM_UDEF_STEREO_COUNT>
0

> <PUBCHEM_BOND_DEF_STEREO_COUNT>
0

> <PUBCHEM_BOND_UDEF_STEREO_COUNT>
0

> <PUBCHEM_ISOTOPIC_ATOM_COUNT>
0

> <PUBCHEM_COMPONENT_COUNT>
1

> <PUBCHEM_CACTVS_TAUTO_COUNT>
-1

> <PUBCHEM_COORDINATE_TYPE>
1
5
255

> <PUBCHEM_BONDANNOTATIONS>
17  18  8
17  19  8
18  20  8
19  21  8
20  22  8
21  22  8

$$$$
