44589175
  -OEChem-09292322232D

 60 63  0     0  0  0  0  0  0999 V2000
    4.5981   -5.5194    0.0000 O   0  0  0  0  0  0  0  0  0  0  0  0
    9.7942    0.4806    0.0000 O   0  0  0  0  0  0  0  0  0  0  0  0
    6.3301   -2.5194    0.0000 N   0  0  0  0  0  0  0  0  0  0  0  0
    4.5981   -3.5194    0.0000 N   0  0  0  0  0  0  0  0  0  0  0  0
    8.0622    0.4806    0.0000 N   0  0  0  0  0  0  0  0  0  0  0  0
    8.9282    4.9806    0.0000 N   0  0  0  0  0  0  0  0  0  0  0  0
    8.4282    6.5194    0.0000 N   0  0  0  0  0  0  0  0  0  0  0  0
    6.3301   -3.5194    0.0000 C   0  0  0  0  0  0  0  0  0  0  0  0
    5.4641   -2.0194    0.0000 C   0  0  0  0  0  0  0  0  0  0  0  0
    5.4641   -4.0194    0.0000 C   0  0  0  0  0  0  0  0  0  0  0  0
    4.5981   -2.5194    0.0000 C   0  0  0  0  0  0  0  0  0  0  0  0
    7.1962   -2.0194    0.0000 C   0  0  0  0  0  0  0  0  0  0  0  0
    7.1962   -1.0194    0.0000 C   0  0  0  0  0  0  0  0  0  0  0  0
    3.7320   -4.0194    0.0000 C   0  0  0  0  0  0  0  0  0  0  0  0
    8.0622   -0.5194    0.0000 C   0  0  0  0  0  0  0  0  0  0  0  0
    3.7320   -5.0194    0.0000 C   0  0  0  0  0  0  0  0  0  0  0  0
    2.8660   -3.5194    0.0000 C   0  0  0  0  0  0  0  0  0  0  0  0
    2.8660   -5.5194    0.0000 C   0  0  0  0  0  0  0  0  0  0  0  0
    2.0000   -4.0194    0.0000 C   0  0  0  0  0  0  0  0  0  0  0  0
    2.0000   -5.0194    0.0000 C   0  0  0  0  0  0  0  0  0  0  0  0
    8.9282    0.9806    0.0000 C   0  0  0  0  0  0  0  0  0  0  0  0
    8.9282    1.9806    0.0000 C   0  0  0  0  0  0  0  0  0  0  0  0
    4.5981   -6.5194    0.0000 C   0  0  0  0  0  0  0  0  0  0  0  0
    8.0622    2.4806    0.0000 C   0  0  0  0  0  0  0  0  0  0  0  0
    9.7942    2.4806    0.0000 C   0  0  0  0  0  0  0  0  0  0  0  0
    8.9282    3.9806    0.0000 C   0  0  0  0  0  0  0  0  0  0  0  0
    8.0622    3.4806    0.0000 C   0  0  0  0  0  0  0  0  0  0  0  0
    9.7942    3.4806    0.0000 C   0  0  0  0  0  0  0  0  0  0  0  0
    9.7372    5.5684    0.0000 C   0  0  0  0  0  0  0  0  0  0  0  0
    8.1192    5.5684    0.0000 C   0  0  0  0  0  0  0  0  0  0  0  0
    9.4282    6.5194    0.0000 C   0  0  0  0  0  0  0  0  0  0  0  0
    6.5422   -4.1020    0.0000 H   0  0  0  0  0  0  0  0  0  0  0  0
    6.9407   -3.4118    0.0000 H   0  0  0  0  0  0  0  0  0  0  0  0
    5.8626   -1.5445    0.0000 H   0  0  0  0  0  0  0  0  0  0  0  0
    5.0656   -1.5445    0.0000 H   0  0  0  0  0  0  0  0  0  0  0  0
    5.0656   -4.4944    0.0000 H   0  0  0  0  0  0  0  0  0  0  0  0
    5.8626   -4.4944    0.0000 H   0  0  0  0  0  0  0  0  0  0  0  0
    4.3860   -1.9368    0.0000 H   0  0  0  0  0  0  0  0  0  0  0  0
    3.9875   -2.6271    0.0000 H   0  0  0  0  0  0  0  0  0  0  0  0
    7.4082   -2.6020    0.0000 H   0  0  0  0  0  0  0  0  0  0  0  0
    7.8067   -1.9118    0.0000 H   0  0  0  0  0  0  0  0  0  0  0  0
    6.9841   -0.4368    0.0000 H   0  0  0  0  0  0  0  0  0  0  0  0
    6.5856   -1.1271    0.0000 H   0  0  0  0  0  0  0  0  0  0  0  0
    8.2742   -1.1020    0.0000 H   0  0  0  0  0  0  0  0  0  0  0  0
    8.6728   -0.4118    0.0000 H   0  0  0  0  0  0  0  0  0  0  0  0
    2.8660   -2.8994    0.0000 H   0  0  0  0  0  0  0  0  0  0  0  0
    7.5252    0.7906    0.0000 H   0  0  0  0  0  0  0  0  0  0  0  0
    2.8660   -6.1394    0.0000 H   0  0  0  0  0  0  0  0  0  0  0  0
    1.4631   -3.7094    0.0000 H   0  0  0  0  0  0  0  0  0  0  0  0
    1.4631   -5.3294    0.0000 H   0  0  0  0  0  0  0  0  0  0  0  0
    3.9781   -6.5194    0.0000 H   0  0  0  0  0  0  0  0  0  0  0  0
    4.5981   -7.1394    0.0000 H   0  0  0  0  0  0  0  0  0  0  0  0
    5.2181   -6.5194    0.0000 H   0  0  0  0  0  0  0  0  0  0  0  0
    7.5252    2.1706    0.0000 H   0  0  0  0  0  0  0  0  0  0  0  0
   10.3312    2.1706    0.0000 H   0  0  0  0  0  0  0  0  0  0  0  0
    7.5252    3.7906    0.0000 H   0  0  0  0  0  0  0  0  0  0  0  0
   10.3312    3.7906    0.0000 H   0  0  0  0  0  0  0  0  0  0  0  0
   10.3269    5.3768    0.0000 H   0  0  0  0  0  0  0  0  0  0  0  0
    7.5295    5.3768    0.0000 H   0  0  0  0  0  0  0  0  0  0  0  0
    9.7926    7.0210    0.0000 H   0  0  0  0  0  0  0  0  0  0  0  0
  1 16  1  0  0  0  0
  1 23  1  0  0  0  0
  2 21  2  0  0  0  0
  3  8  1  0  0  0  0
  3  9  1  0  0  0  0
  3 12  1  0  0  0  0
  4 10  1  0  0  0  0
  4 11  1  0  0  0  0
  4 14  1  0  0  0  0
  5 15  1  0  0  0  0
  5 21  1  0  0  0  0
  5 47  1  0  0  0  0
  6 26  1  0  0  0  0
  6 29  1  0  0  0  0
  6 30  1  0  0  0  0
  7 30  2  0  0  0  0
  7 31  1  0  0  0  0
  8 10  1  0  0  0  0
  8 32  1  0  0  0  0
  8 33  1  0  0  0  0
  9 11  1  0  0  0  0
  9 34  1  0  0  0  0
  9 35  1  0  0  0  0
 10 36  1  0  0  0  0
 10 37  1  0  0  0  0
 11 38  1  0  0  0  0
 11 39  1  0  0  0  0
 12 13  1  0  0  0  0
 12 40  1  0  0  0  0
 12 41  1  0  0  0  0
 13 15  1  0  0  0  0
 13 42  1  0  0  0  0
 13 43  1  0  0  0  0
 14 16  1  0  0  0  0
 14 17  2  0  0  0  0
 15 44  1  0  0  0  0
 15 45  1  0  0  0  0
 16 18  2  0  0  0  0
 17 19  1  0  0  0  0
 17 46  1  0  0  0  0
 18 20  1  0  0  0  0
 18 48  1  0  0  0  0
 19 20  2  0  0  0  0
 19 49  1  0  0  0  0
 20 50  1  0  0  0  0
 21 22  1  0  0  0  0
 22 24  2  0  0  0  0
 22 25  1  0  0  0  0
 23 51  1  0  0  0  0
 23 52  1  0  0  0  0
 23 53  1  0  0  0  0
 24 27  1  0  0  0  0
 24 54  1  0  0  0  0
 25 28  2  0  0  0  0
 25 55  1  0  0  0  0
 26 27  2  0  0  0  0
 26 28  1  0  0  0  0
 27 56  1  0  0  0  0
 28 57  1  0  0  0  0
 29 31  2  0  0  0  0
 29 58  1  0  0  0  0
 30 59  1  0  0  0  0
 31 60  1  0  0  0  0
M  END
> <PUBCHEM_COMPOUND_CID>
44589175

> <PUBCHEM_COMPOUND_CANONICALIZED>
1

> <PUBCHEM_CACTVS_COMPLEXITY>
546

> <PUBCHEM_CACTVS_HBOND_ACCEPTOR>
5

> <PUBCHEM_CACTVS_HBOND_DONOR>
1

> <PUBCHEM_CACTVS_ROTATABLE_BOND>
8

> <PUBCHEM_CACTVS_SUBSKEYS>
AAADceB7sAAAAAAAAAAAAAAAAAAAAWAAAAA8YIAAAAAAAAAB0AAAHgAQAAAADAzBmgY/1pfMFACoAjV3dACCiC01MqAJyIEffMiObnLE/ZuVMShs1hPY6aeYyQCeCAAAAAAAEAAQAAAAAAAgAAAAAAAAAA==

> <PUBCHEM_IUPAC_OPENEYE_NAME>
4-imidazol-1-yl-N-[3-[4-(2-methoxyphenyl)piperazin-1-yl]propyl]benzamide

> <PUBCHEM_IUPAC_CAS_NAME>
4-(1-imidazolyl)-N-[3-[4-(2-methoxyphenyl)-1-piperazinyl]propyl]benzamide

> <PUBCHEM_IUPAC_NAME_MARKUP>
4-imidazol-1-yl-<I>N</I>-[3-[4-(2-methoxyphenyl)piperazin-1-yl]propyl]benzamide

> <PUBCHEM_IUPAC_NAME>
4-imidazol-1-yl-N-[3-[4-(2-methoxyphenyl)piperazin-1-yl]propyl]benzamide

> <PUBCHEM_IUPAC_SYSTEMATIC_NAME>
4-imidazol-1-yl-N-[3-[4-(2-methoxyphenyl)piperazin-1-yl]propyl]benzamide

> <PUBCHEM_IUPAC_TRADITIONAL_NAME>
4-imidazol-1-yl-N-[3-[4-(2-methoxyphenyl)piperazino]propyl]benzamide

> <PUBCHEM_IUPAC_INCHI>
InChI=1S/C24H29N5O2/c1-31-23-6-3-2-5-22(23)28-17-15-27(16-18-28)13-4-11-26-24(30)20-7-9-21(10-8-20)29-14-12-25-19-29/h2-3,5-10,12,14,19H,4,11,13,15-18H2,1H3,(H,26,30)

> <PUBCHEM_IUPAC_INCHIKEY>
RFBKHFYKBNFXJB-UHFFFAOYSA-N

> <PUBCHEM_XLOGP3_AA>
2.9

> <PUBCHEM_EXACT_MASS>
419.23212518

> <PUBCHEM_MOLECULAR_FORMULA>
C24H29N5O2

> <PUBCHEM_MOLECULAR_WEIGHT>
419.5

> <PUBCHEM_OPENEYE_CAN_SMILES>
COC1=CC=CC=C1N2CCN(CC2)CCCNC(=O)C3=CC=C(C=C3)N4C=CN=C4

> <PUBCHEM_OPENEYE_ISO_SMILES>
COC1=CC=CC=C1N2CCN(CC2)CCCNC(=O)C3=CC=C(C=C3)N4C=CN=C4

> <PUBCHEM_CACTVS_TPSA>
62.6

> <PUBCHEM_MONOISOTOPIC_WEIGHT>
419.23212518

> <PUBCHEM_TOTAL_CHARGE>
0

> <PUBCHEM_HEAVY_ATOM_COUNT>
31

> <PUBCHEM_ATOM_DEF_STEREO_COUNT>
0

> <PUBCHEM_ATOM_UDEF_STEREO_COUNT>
0

> <PUBCHEM_BOND_DEF_STEREO_COUNT>
0

> <PUBCHEM_BOND_UDEF_STEREO_COUNT>
0

> <PUBCHEM_ISOTOPIC_ATOM_COUNT>
0

> <PUBCHEM_COMPONENT_COUNT>
1

> <PUBCHEM_CACTVS_TAUTO_COUNT>
-1

> <PUBCHEM_COORDINATE_TYPE>
1
5
255

> <PUBCHEM_BONDANNOTATIONS>
14  16  8
14  17  8
16  18  8
17  19  8
18  20  8
19  20  8
22  24  8
22  25  8
24  27  8
25  28  8
26  27  8
26  28  8
29  31  8
6  29  8
6  30  8
7  30  8
7  31  8

$$$$
