10667201
  -OEChem-09292322142D

 57 60  0     0  0  0  0  0  0999 V2000
    3.7040    1.9936    0.0000 O   0  0  0  0  0  0  0  0  0  0  0  0
    5.4641   -1.2852    0.0000 N   0  0  0  0  0  0  0  0  0  0  0  0
    5.4641    1.7148    0.0000 N   0  0  0  0  0  0  0  0  0  0  0  0
    4.9641    3.2536    0.0000 N   0  0  0  0  0  0  0  0  0  0  0  0
    5.4641    0.7148    0.0000 C   0  0  0  0  0  0  0  0  0  0  0  0
    4.5981    0.2148    0.0000 C   0  0  0  0  0  0  0  0  0  0  0  0
    6.3301    0.2148    0.0000 C   0  0  0  0  0  0  0  0  0  0  0  0
    4.5981   -0.7852    0.0000 C   0  0  0  0  0  0  0  0  0  0  0  0
    6.3301   -0.7852    0.0000 C   0  0  0  0  0  0  0  0  0  0  0  0
    5.4641   -2.2852    0.0000 C   0  0  0  0  0  0  0  0  0  0  0  0
    6.2731    2.3026    0.0000 C   0  0  0  0  0  0  0  0  0  0  0  0
    4.5981   -2.7852    0.0000 C   0  0  0  0  0  0  0  0  0  0  0  0
    4.6551    2.3026    0.0000 C   0  0  0  0  0  0  0  0  0  0  0  0
    5.9641    3.2536    0.0000 C   0  0  0  0  0  0  0  0  0  0  0  0
    4.5981   -3.7852    0.0000 C   0  0  0  0  0  0  0  0  0  0  0  0
    7.2242    1.9936    0.0000 C   0  0  0  0  0  0  0  0  0  0  0  0
    6.5519    4.0626    0.0000 C   0  0  0  0  0  0  0  0  0  0  0  0
    3.7320   -4.2852    0.0000 C   0  0  0  0  0  0  0  0  0  0  0  0
    7.5464    3.9581    0.0000 C   0  0  0  0  0  0  0  0  0  0  0  0
    6.1452    4.9762    0.0000 C   0  0  0  0  0  0  0  0  0  0  0  0
    3.7320   -5.2852    0.0000 C   0  0  0  0  0  0  0  0  0  0  0  0
    2.8660   -3.7852    0.0000 C   0  0  0  0  0  0  0  0  0  0  0  0
    8.1342    4.7671    0.0000 C   0  0  0  0  0  0  0  0  0  0  0  0
    6.7329    5.7852    0.0000 C   0  0  0  0  0  0  0  0  0  0  0  0
    2.8660   -5.7852    0.0000 C   0  0  0  0  0  0  0  0  0  0  0  0
    2.0000   -4.2852    0.0000 C   0  0  0  0  0  0  0  0  0  0  0  0
    7.7275    5.6807    0.0000 C   0  0  0  0  0  0  0  0  0  0  0  0
    2.0000   -5.2852    0.0000 C   0  0  0  0  0  0  0  0  0  0  0  0
    6.0010    1.0248    0.0000 H   0  0  0  0  0  0  0  0  0  0  0  0
    4.3860    0.7974    0.0000 H   0  0  0  0  0  0  0  0  0  0  0  0
    3.9875    0.1071    0.0000 H   0  0  0  0  0  0  0  0  0  0  0  0
    6.9407    0.1071    0.0000 H   0  0  0  0  0  0  0  0  0  0  0  0
    6.5422    0.7974    0.0000 H   0  0  0  0  0  0  0  0  0  0  0  0
    3.9875   -0.6775    0.0000 H   0  0  0  0  0  0  0  0  0  0  0  0
    4.3860   -1.3678    0.0000 H   0  0  0  0  0  0  0  0  0  0  0  0
    6.5422   -1.3678    0.0000 H   0  0  0  0  0  0  0  0  0  0  0  0
    6.9407   -0.6775    0.0000 H   0  0  0  0  0  0  0  0  0  0  0  0
    5.6762   -2.8678    0.0000 H   0  0  0  0  0  0  0  0  0  0  0  0
    6.0747   -2.1776    0.0000 H   0  0  0  0  0  0  0  0  0  0  0  0
    4.3860   -2.2026    0.0000 H   0  0  0  0  0  0  0  0  0  0  0  0
    3.9875   -2.8929    0.0000 H   0  0  0  0  0  0  0  0  0  0  0  0
    4.5997    3.7552    0.0000 H   0  0  0  0  0  0  0  0  0  0  0  0
    4.8101   -4.3678    0.0000 H   0  0  0  0  0  0  0  0  0  0  0  0
    5.2087   -3.6776    0.0000 H   0  0  0  0  0  0  0  0  0  0  0  0
    7.0326    1.4039    0.0000 H   0  0  0  0  0  0  0  0  0  0  0  0
    7.8138    1.8020    0.0000 H   0  0  0  0  0  0  0  0  0  0  0  0
    7.4158    2.5832    0.0000 H   0  0  0  0  0  0  0  0  0  0  0  0
    7.7986    3.3917    0.0000 H   0  0  0  0  0  0  0  0  0  0  0  0
    5.5286    5.0410    0.0000 H   0  0  0  0  0  0  0  0  0  0  0  0
    4.2690   -5.5952    0.0000 H   0  0  0  0  0  0  0  0  0  0  0  0
    2.8660   -3.1652    0.0000 H   0  0  0  0  0  0  0  0  0  0  0  0
    8.7508    4.7023    0.0000 H   0  0  0  0  0  0  0  0  0  0  0  0
    6.4808    6.3516    0.0000 H   0  0  0  0  0  0  0  0  0  0  0  0
    2.8660   -6.4052    0.0000 H   0  0  0  0  0  0  0  0  0  0  0  0
    1.4631   -3.9752    0.0000 H   0  0  0  0  0  0  0  0  0  0  0  0
    8.0919    6.1823    0.0000 H   0  0  0  0  0  0  0  0  0  0  0  0
    1.4631   -5.5952    0.0000 H   0  0  0  0  0  0  0  0  0  0  0  0
  1 13  2  0  0  0  0
  2  8  1  0  0  0  0
  2  9  1  0  0  0  0
  2 10  1  0  0  0  0
  3  5  1  0  0  0  0
  3 11  1  0  0  0  0
  3 13  1  0  0  0  0
  4 13  1  0  0  0  0
  4 14  1  0  0  0  0
  4 42  1  0  0  0  0
  5  6  1  0  0  0  0
  5  7  1  0  0  0  0
  5 29  1  0  0  0  0
  6  8  1  0  0  0  0
  6 30  1  0  0  0  0
  6 31  1  0  0  0  0
  7  9  1  0  0  0  0
  7 32  1  0  0  0  0
  7 33  1  0  0  0  0
  8 34  1  0  0  0  0
  8 35  1  0  0  0  0
  9 36  1  0  0  0  0
  9 37  1  0  0  0  0
 10 12  1  0  0  0  0
 10 38  1  0  0  0  0
 10 39  1  0  0  0  0
 11 14  2  0  0  0  0
 11 16  1  0  0  0  0
 12 15  1  0  0  0  0
 12 40  1  0  0  0  0
 12 41  1  0  0  0  0
 14 17  1  0  0  0  0
 15 18  1  0  0  0  0
 15 43  1  0  0  0  0
 15 44  1  0  0  0  0
 16 45  1  0  0  0  0
 16 46  1  0  0  0  0
 16 47  1  0  0  0  0
 17 19  2  0  0  0  0
 17 20  1  0  0  0  0
 18 21  2  0  0  0  0
 18 22  1  0  0  0  0
 19 23  1  0  0  0  0
 19 48  1  0  0  0  0
 20 24  2  0  0  0  0
 20 49  1  0  0  0  0
 21 25  1  0  0  0  0
 21 50  1  0  0  0  0
 22 26  2  0  0  0  0
 22 51  1  0  0  0  0
 23 27  2  0  0  0  0
 23 52  1  0  0  0  0
 24 27  1  0  0  0  0
 24 53  1  0  0  0  0
 25 28  2  0  0  0  0
 25 54  1  0  0  0  0
 26 28  1  0  0  0  0
 26 55  1  0  0  0  0
 27 56  1  0  0  0  0
 28 57  1  0  0  0  0
M  END
> <PUBCHEM_COMPOUND_CID>
10667201

> <PUBCHEM_COMPOUND_CANONICALIZED>
1

> <PUBCHEM_CACTVS_COMPLEXITY>
552

> <PUBCHEM_CACTVS_HBOND_ACCEPTOR>
2

> <PUBCHEM_CACTVS_HBOND_DONOR>
1

> <PUBCHEM_CACTVS_ROTATABLE_BOND>
6

> <PUBCHEM_CACTVS_SUBSKEYS>
AAADceB7IAAAAAAAAAAAAAAAAAAAAQAAAAA8YIAAAAAAAAABQAAAHgAQAAAADCjBGAQzAIPAAACIAiRCUACCAAAgAAAIiAAIBIiIICKA0RGEIAhohgKIiAcQgIAOAAAAAAAAAAAAAAAAAAAAAAAAAAAAAA==

> <PUBCHEM_IUPAC_OPENEYE_NAME>
4-methyl-5-phenyl-3-[1-(3-phenylpropyl)-4-piperidyl]-1H-imidazol-2-one

> <PUBCHEM_IUPAC_CAS_NAME>
4-methyl-5-phenyl-3-[1-(3-phenylpropyl)-4-piperidinyl]-1H-imidazol-2-one

> <PUBCHEM_IUPAC_NAME_MARKUP>
4-methyl-5-phenyl-3-[1-(3-phenylpropyl)piperidin-4-yl]-1<I>H</I>-imidazol-2-one

> <PUBCHEM_IUPAC_NAME>
4-methyl-5-phenyl-3-[1-(3-phenylpropyl)piperidin-4-yl]-1H-imidazol-2-one

> <PUBCHEM_IUPAC_SYSTEMATIC_NAME>
4-methyl-5-phenyl-3-[1-(3-phenylpropyl)piperidin-4-yl]-1H-imidazol-2-one

> <PUBCHEM_IUPAC_TRADITIONAL_NAME>
5-methyl-4-phenyl-1-[1-(3-phenylpropyl)-4-piperidyl]-4-imidazolin-2-one

> <PUBCHEM_IUPAC_INCHI>
InChI=1S/C24H29N3O/c1-19-23(21-12-6-3-7-13-21)25-24(28)27(19)22-14-17-26(18-15-22)16-8-11-20-9-4-2-5-10-20/h2-7,9-10,12-13,22H,8,11,14-18H2,1H3,(H,25,28)

> <PUBCHEM_IUPAC_INCHIKEY>
CRYGIUKJRPGSDW-UHFFFAOYSA-N

> <PUBCHEM_XLOGP3_AA>
4.2

> <PUBCHEM_EXACT_MASS>
375.231062557

> <PUBCHEM_MOLECULAR_FORMULA>
C24H29N3O

> <PUBCHEM_MOLECULAR_WEIGHT>
375.5

> <PUBCHEM_OPENEYE_CAN_SMILES>
CC1=C(NC(=O)N1C2CCN(CC2)CCCC3=CC=CC=C3)C4=CC=CC=C4

> <PUBCHEM_OPENEYE_ISO_SMILES>
CC1=C(NC(=O)N1C2CCN(CC2)CCCC3=CC=CC=C3)C4=CC=CC=C4

> <PUBCHEM_CACTVS_TPSA>
35.6

> <PUBCHEM_MONOISOTOPIC_WEIGHT>
375.231062557

> <PUBCHEM_TOTAL_CHARGE>
0

> <PUBCHEM_HEAVY_ATOM_COUNT>
28

> <PUBCHEM_ATOM_DEF_STEREO_COUNT>
0

> <PUBCHEM_ATOM_UDEF_STEREO_COUNT>
0

> <PUBCHEM_BOND_DEF_STEREO_COUNT>
0

> <PUBCHEM_BOND_UDEF_STEREO_COUNT>
0

> <PUBCHEM_ISOTOPIC_ATOM_COUNT>
0

> <PUBCHEM_COMPONENT_COUNT>
1

> <PUBCHEM_CACTVS_TAUTO_COUNT>
-1

> <PUBCHEM_COORDINATE_TYPE>
1
5
255

> <PUBCHEM_BONDANNOTATIONS>
11  14  8
17  19  8
17  20  8
18  21  8
18  22  8
19  23  8
20  24  8
21  25  8
22  26  8
23  27  8
24  27  8
25  28  8
26  28  8
3  11  8
3  13  8
4  13  8
4  14  8

$$$$
