54584591
  -OEChem-09292322122D

 72 75  0     1  0  0  0  0  0999 V2000
   10.8503    1.8027    0.0000 O   0  0  0  0  0  0  0  0  0  0  0  0
    9.1067    4.7960    0.0000 O   0  0  0  0  0  0  0  0  0  0  0  0
    2.6200   -4.6459    0.0000 O   0  0  0  0  0  0  0  0  0  0  0  0
    7.3940   -0.2106    0.0000 N   0  0  3  0  0  0  0  0  0  0  0  0
    9.9785    3.2993    0.0000 N   0  0  0  0  0  0  0  0  0  0  0  0
    4.7036   -4.5846    0.0000 N   0  0  0  0  0  0  0  0  0  0  0  0
    2.6200   -2.9139    0.0000 N   0  0  0  0  0  0  0  0  0  0  0  0
    7.3978   -1.2106    0.0000 C   0  0  2  0  0  0  0  0  0  0  0  0
    8.2999   -1.7315    0.0000 C   0  0  0  0  0  0  0  0  0  0  0  0
    6.4998   -1.7384    0.0000 C   0  0  0  0  0  0  0  0  0  0  0  0
    8.2919   -2.7731    0.0000 C   0  0  0  0  0  0  0  0  0  0  0  0
    6.5158   -2.7799    0.0000 C   0  0  0  0  0  0  0  0  0  0  0  0
    7.3819   -3.2799    0.0000 C   0  0  0  0  0  0  0  0  0  0  0  0
    8.2581    0.2927    0.0000 C   0  0  0  0  0  0  0  0  0  0  0  0
   11.7067    4.3060    0.0000 C   0  0  0  0  0  0  0  0  0  0  0  0
    6.5260    0.2860    0.0000 C   0  0  0  0  0  0  0  0  0  0  0  0
    8.2542    1.2927    0.0000 C   0  0  0  0  0  0  0  0  0  0  0  0
    5.6498   -3.2799    0.0000 C   0  0  0  0  0  0  0  0  0  0  0  0
    9.1183    1.7960    0.0000 C   0  0  0  0  0  0  0  0  0  0  0  0
   11.7106    3.3060    0.0000 C   0  0  0  0  0  0  0  0  0  0  0  0
   10.8388    4.8027    0.0000 C   0  0  0  0  0  0  0  0  0  0  0  0
    9.1144    2.7960    0.0000 C   0  0  0  0  0  0  0  0  0  0  0  0
    7.3819   -4.2799    0.0000 C   0  0  0  0  0  0  0  0  0  0  0  0
    5.6498   -4.2799    0.0000 C   0  0  0  0  0  0  0  0  0  0  0  0
    6.5222    1.2860    0.0000 C   0  0  0  0  0  0  0  0  0  0  0  0
   10.8465    2.8027    0.0000 C   0  0  0  0  0  0  0  0  0  0  0  0
    9.9747    4.2993    0.0000 C   0  0  0  0  0  0  0  0  0  0  0  0
   12.2034    5.1740    0.0000 C   0  0  0  0  0  0  0  0  0  0  0  0
   12.7067    4.3099    0.0000 C   0  0  0  0  0  0  0  0  0  0  0  0
    6.5158   -4.7799    0.0000 C   0  0  0  0  0  0  0  0  0  0  0  0
    4.7036   -2.9752    0.0000 C   0  0  0  0  0  0  0  0  0  0  0  0
    4.1200   -3.7799    0.0000 C   0  0  0  0  0  0  0  0  0  0  0  0
    5.6542    1.7827    0.0000 C   0  0  0  0  0  0  0  0  0  0  0  0
    3.1200   -3.7799    0.0000 C   0  0  0  0  0  0  0  0  0  0  0  0
    6.8591   -0.9038    0.0000 H   0  0  0  0  0  0  0  0  0  0  0  0
    8.9099   -1.8422    0.0000 H   0  0  0  0  0  0  0  0  0  0  0  0
    8.5135   -1.1494    0.0000 H   0  0  0  0  0  0  0  0  0  0  0  0
    6.2818   -1.1580    0.0000 H   0  0  0  0  0  0  0  0  0  0  0  0
    5.8906   -1.8539    0.0000 H   0  0  0  0  0  0  0  0  0  0  0  0
    8.4964   -3.3583    0.0000 H   0  0  0  0  0  0  0  0  0  0  0  0
    8.9035   -2.6717    0.0000 H   0  0  0  0  0  0  0  0  0  0  0  0
    8.4724   -0.2891    0.0000 H   0  0  0  0  0  0  0  0  0  0  0  0
    8.8682    0.4027    0.0000 H   0  0  0  0  0  0  0  0  0  0  0  0
    5.9150    0.3913    0.0000 H   0  0  0  0  0  0  0  0  0  0  0  0
    6.3162   -0.2974    0.0000 H   0  0  0  0  0  0  0  0  0  0  0  0
    8.0399    1.8745    0.0000 H   0  0  0  0  0  0  0  0  0  0  0  0
    7.6440    1.1827    0.0000 H   0  0  0  0  0  0  0  0  0  0  0  0
    9.3326    1.2142    0.0000 H   0  0  0  0  0  0  0  0  0  0  0  0
    9.7285    1.9060    0.0000 H   0  0  0  0  0  0  0  0  0  0  0  0
   11.9249    2.7242    0.0000 H   0  0  0  0  0  0  0  0  0  0  0  0
   12.3207    3.4160    0.0000 H   0  0  0  0  0  0  0  0  0  0  0  0
   11.2355    5.2791    0.0000 H   0  0  0  0  0  0  0  0  0  0  0  0
   10.4384    5.2761    0.0000 H   0  0  0  0  0  0  0  0  0  0  0  0
    8.9002    3.3778    0.0000 H   0  0  0  0  0  0  0  0  0  0  0  0
    8.5043    2.6860    0.0000 H   0  0  0  0  0  0  0  0  0  0  0  0
    7.9188   -4.5899    0.0000 H   0  0  0  0  0  0  0  0  0  0  0  0
    7.1332    1.1807    0.0000 H   0  0  0  0  0  0  0  0  0  0  0  0
    6.7320    1.8694    0.0000 H   0  0  0  0  0  0  0  0  0  0  0  0
   12.7415    4.8660    0.0000 H   0  0  0  0  0  0  0  0  0  0  0  0
   12.5113    5.7121    0.0000 H   0  0  0  0  0  0  0  0  0  0  0  0
   11.6653    5.4819    0.0000 H   0  0  0  0  0  0  0  0  0  0  0  0
   12.7091    3.6899    0.0000 H   0  0  0  0  0  0  0  0  0  0  0  0
   13.3267    4.3122    0.0000 H   0  0  0  0  0  0  0  0  0  0  0  0
   12.7043    4.9299    0.0000 H   0  0  0  0  0  0  0  0  0  0  0  0
    6.5158   -5.3999    0.0000 H   0  0  0  0  0  0  0  0  0  0  0  0
    4.5110   -2.3858    0.0000 H   0  0  0  0  0  0  0  0  0  0  0  0
    4.5110   -5.1740    0.0000 H   0  0  0  0  0  0  0  0  0  0  0  0
    5.9622    2.3208    0.0000 H   0  0  0  0  0  0  0  0  0  0  0  0
    5.1161    2.0906    0.0000 H   0  0  0  0  0  0  0  0  0  0  0  0
    5.3463    1.2445    0.0000 H   0  0  0  0  0  0  0  0  0  0  0  0
    2.0000   -2.9139    0.0000 H   0  0  0  0  0  0  0  0  0  0  0  0
    2.9300   -2.3769    0.0000 H   0  0  0  0  0  0  0  0  0  0  0  0
  1 26  2  0  0  0  0
  2 27  2  0  0  0  0
  3 34  2  0  0  0  0
  8  4  1  6  0  0  0
  4 14  1  0  0  0  0
  4 16  1  0  0  0  0
  5 22  1  0  0  0  0
  5 26  1  0  0  0  0
  5 27  1  0  0  0  0
  6 24  1  0  0  0  0
  6 32  1  0  0  0  0
  6 67  1  0  0  0  0
  7 34  1  0  0  0  0
  7 71  1  0  0  0  0
  7 72  1  0  0  0  0
  8  9  1  0  0  0  0
  8 10  1  0  0  0  0
  8 35  1  0  0  0  0
  9 11  1  0  0  0  0
  9 36  1  0  0  0  0
  9 37  1  0  0  0  0
 10 12  1  0  0  0  0
 10 38  1  0  0  0  0
 10 39  1  0  0  0  0
 11 13  1  0  0  0  0
 11 40  1  0  0  0  0
 11 41  1  0  0  0  0
 12 13  2  0  0  0  0
 12 18  1  0  0  0  0
 13 23  1  0  0  0  0
 14 17  1  0  0  0  0
 14 42  1  0  0  0  0
 14 43  1  0  0  0  0
 15 20  1  0  0  0  0
 15 21  1  0  0  0  0
 15 28  1  0  0  0  0
 15 29  1  0  0  0  0
 16 25  1  0  0  0  0
 16 44  1  0  0  0  0
 16 45  1  0  0  0  0
 17 19  1  0  0  0  0
 17 46  1  0  0  0  0
 17 47  1  0  0  0  0
 18 24  2  0  0  0  0
 18 31  1  0  0  0  0
 19 22  1  0  0  0  0
 19 48  1  0  0  0  0
 19 49  1  0  0  0  0
 20 26  1  0  0  0  0
 20 50  1  0  0  0  0
 20 51  1  0  0  0  0
 21 27  1  0  0  0  0
 21 52  1  0  0  0  0
 21 53  1  0  0  0  0
 22 54  1  0  0  0  0
 22 55  1  0  0  0  0
 23 30  2  0  0  0  0
 23 56  1  0  0  0  0
 24 30  1  0  0  0  0
 25 33  1  0  0  0  0
 25 57  1  0  0  0  0
 25 58  1  0  0  0  0
 28 59  1  0  0  0  0
 28 60  1  0  0  0  0
 28 61  1  0  0  0  0
 29 62  1  0  0  0  0
 29 63  1  0  0  0  0
 29 64  1  0  0  0  0
 30 65  1  0  0  0  0
 31 32  2  0  0  0  0
 31 66  1  0  0  0  0
 32 34  1  0  0  0  0
 33 68  1  0  0  0  0
 33 69  1  0  0  0  0
 33 70  1  0  0  0  0
M  END
> <PUBCHEM_COMPOUND_CID>
54584591

> <PUBCHEM_COMPOUND_CANONICALIZED>
1

> <PUBCHEM_CACTVS_COMPLEXITY>
749

> <PUBCHEM_CACTVS_HBOND_ACCEPTOR>
4

> <PUBCHEM_CACTVS_HBOND_DONOR>
2

> <PUBCHEM_CACTVS_ROTATABLE_BOND>
9

> <PUBCHEM_CACTVS_SUBSKEYS>
AAADcfB7sAAAAAAAAAAAAAAAAAAAAWAAAAA8YIAAAAAAAFjB8AAAHgAQAAAADijBngQywPPJkACoAyVyVACCgCAnAiAImSG4ZNgIYPLAlbGUIQhgliDIyYcYi8CfiAACQAASAAAQAASAACQAAAAAAAAAAA==

> <PUBCHEM_IUPAC_OPENEYE_NAME>
(8R)-8-[4-(4,4-dimethyl-2,6-dioxo-1-piperidyl)butyl-propyl-amino]-6,7,8,9-tetrahydro-3H-benzo[e]indole-2-carboxamide

> <PUBCHEM_IUPAC_CAS_NAME>
(8R)-8-[4-(4,4-dimethyl-2,6-dioxo-1-piperidinyl)butyl-propylamino]-6,7,8,9-tetrahydro-3H-benzo[e]indole-2-carboxamide

> <PUBCHEM_IUPAC_NAME_MARKUP>
(8<I>R</I>)-8-[4-(4,4-dimethyl-2,6-dioxopiperidin-1-yl)butyl-propylamino]-6,7,8,9-tetrahydro-3<I>H</I>-benzo[e]indole-2-carboxamide

> <PUBCHEM_IUPAC_NAME>
(8R)-8-[4-(4,4-dimethyl-2,6-dioxopiperidin-1-yl)butyl-propylamino]-6,7,8,9-tetrahydro-3H-benzo[e]indole-2-carboxamide

> <PUBCHEM_IUPAC_SYSTEMATIC_NAME>
(8R)-8-[4-[4,4-dimethyl-2,6-bis(oxidanylidene)piperidin-1-yl]butyl-propyl-amino]-6,7,8,9-tetrahydro-3H-benzo[e]indole-2-carboxamide

> <PUBCHEM_IUPAC_TRADITIONAL_NAME>
(8R)-8-[4-(2,6-diketo-4,4-dimethyl-piperidino)butyl-propyl-amino]-6,7,8,9-tetrahydro-3H-benz[e]indole-2-carboxamide

> <PUBCHEM_IUPAC_INCHI>
InChI=1S/C27H38N4O3/c1-4-11-30(12-5-6-13-31-24(32)16-27(2,3)17-25(31)33)19-9-7-18-8-10-22-21(20(18)14-19)15-23(29-22)26(28)34/h8,10,15,19,29H,4-7,9,11-14,16-17H2,1-3H3,(H2,28,34)/t19-/m1/s1

> <PUBCHEM_IUPAC_INCHIKEY>
FBQVSOZYMOLIKP-LJQANCHMSA-N

> <PUBCHEM_XLOGP3_AA>
3.7

> <PUBCHEM_EXACT_MASS>
466.29439109

> <PUBCHEM_MOLECULAR_FORMULA>
C27H38N4O3

> <PUBCHEM_MOLECULAR_WEIGHT>
466.6

> <PUBCHEM_OPENEYE_CAN_SMILES>
CCCN(CCCCN1C(=O)CC(CC1=O)(C)C)C2CCC3=C(C2)C4=C(C=C3)NC(=C4)C(=O)N

> <PUBCHEM_OPENEYE_ISO_SMILES>
CCCN(CCCCN1C(=O)CC(CC1=O)(C)C)[C@@H]2CCC3=C(C2)C4=C(C=C3)NC(=C4)C(=O)N

> <PUBCHEM_CACTVS_TPSA>
99.5

> <PUBCHEM_MONOISOTOPIC_WEIGHT>
466.29439109

> <PUBCHEM_TOTAL_CHARGE>
0

> <PUBCHEM_HEAVY_ATOM_COUNT>
34

> <PUBCHEM_ATOM_DEF_STEREO_COUNT>
1

> <PUBCHEM_ATOM_UDEF_STEREO_COUNT>
0

> <PUBCHEM_BOND_DEF_STEREO_COUNT>
0

> <PUBCHEM_BOND_UDEF_STEREO_COUNT>
0

> <PUBCHEM_ISOTOPIC_ATOM_COUNT>
0

> <PUBCHEM_COMPONENT_COUNT>
1

> <PUBCHEM_CACTVS_TAUTO_COUNT>
-1

> <PUBCHEM_COORDINATE_TYPE>
1
5
255

> <PUBCHEM_BONDANNOTATIONS>
12  13  8
12  18  8
13  23  8
18  24  8
18  31  8
23  30  8
24  30  8
31  32  8
8  4  6
6  24  8
6  32  8

$$$$
