44324737
  -OEChem-09292322522D

 66 71  0     1  0  0  0  0  0999 V2000
    8.5946    1.2917    0.0000 O   0  0  0  0  0  0  0  0  0  0  0  0
   11.8564    0.7917    0.0000 O   0  0  0  0  0  0  0  0  0  0  0  0
   11.8685    4.8610    0.0000 O   0  0  0  0  0  0  0  0  0  0  0  0
   13.6424    3.8368    0.0000 O   0  0  0  0  0  0  0  0  0  0  0  0
    7.8890   -0.6698    0.0000 N   0  0  0  0  0  0  0  0  0  0  0  0
    5.9320   -1.0822    0.0000 N   0  0  0  0  0  0  0  0  0  0  0  0
    9.1782    2.0964    0.0000 N   0  0  0  0  0  0  0  0  0  0  0  0
    9.1782    0.4870    0.0000 C   0  0  2  0  0  0  0  0  0  0  0  0
   10.1244    0.7917    0.0000 C   0  0  1  0  0  0  0  0  0  0  0  0
    8.8675   -0.4636    0.0000 C   0  0  0  0  0  0  0  0  0  0  0  0
    7.2212    0.0745    0.0000 C   0  0  0  0  0  0  0  0  0  0  0  0
    7.5783   -1.6203    0.0000 C   0  0  0  0  0  0  0  0  0  0  0  0
    6.2426   -0.1317    0.0000 C   0  0  0  0  0  0  0  0  0  0  0  0
    6.5998   -1.8265    0.0000 C   0  0  0  0  0  0  0  0  0  0  0  0
   10.1244    1.7917    0.0000 C   0  0  0  0  0  0  0  0  0  0  0  0
   10.9904    0.2917    0.0000 C   0  0  0  0  0  0  0  0  0  0  0  0
   10.9904    2.2917    0.0000 C   0  0  0  0  0  0  0  0  0  0  0  0
    4.9535   -1.2884    0.0000 C   0  0  0  0  0  0  0  0  0  0  0  0
   11.8564    1.7917    0.0000 C   0  0  0  0  0  0  0  0  0  0  0  0
    4.6428   -2.2390    0.0000 C   0  0  0  0  0  0  0  0  0  0  0  0
   10.9744    3.3332    0.0000 C   0  0  0  0  0  0  0  0  0  0  0  0
   12.7664    2.2985    0.0000 C   0  0  0  0  0  0  0  0  0  0  0  0
   11.8724    3.8610    0.0000 C   0  0  0  0  0  0  0  0  0  0  0  0
   12.7745    3.3401    0.0000 C   0  0  0  0  0  0  0  0  0  0  0  0
    3.6643   -2.4452    0.0000 C   0  0  0  0  0  0  0  0  0  0  0  0
    5.3107   -2.9832    0.0000 C   0  0  0  0  0  0  0  0  0  0  0  0
    3.3536   -3.3957    0.0000 C   0  0  0  0  0  0  0  0  0  0  0  0
    5.0000   -3.9338    0.0000 C   0  0  0  0  0  0  0  0  0  0  0  0
    4.0215   -4.1400    0.0000 C   0  0  0  0  0  0  0  0  0  0  0  0
    2.3312   -3.5948    0.0000 C   0  0  0  0  0  0  0  0  0  0  0  0
    3.7132   -5.1350    0.0000 C   0  0  0  0  0  0  0  0  0  0  0  0
    2.0000   -4.5823    0.0000 C   0  0  0  0  0  0  0  0  0  0  0  0
   11.0006    5.3576    0.0000 C   0  0  0  0  0  0  0  0  0  0  0  0
    2.6956   -5.3576    0.0000 C   0  0  0  0  0  0  0  0  0  0  0  0
   14.5065    3.3335    0.0000 C   0  0  0  0  0  0  0  0  0  0  0  0
    8.5657    0.3908    0.0000 H   0  0  0  0  0  0  0  0  0  0  0  0
   10.0344   -0.0535    0.0000 H   0  0  0  0  0  0  0  0  0  0  0  0
    8.8881   -1.0832    0.0000 H   0  0  0  0  0  0  0  0  0  0  0  0
    9.4813   -0.5509    0.0000 H   0  0  0  0  0  0  0  0  0  0  0  0
    7.7475    0.4022    0.0000 H   0  0  0  0  0  0  0  0  0  0  0  0
    6.9899    0.6498    0.0000 H   0  0  0  0  0  0  0  0  0  0  0  0
    7.5989   -2.2400    0.0000 H   0  0  0  0  0  0  0  0  0  0  0  0
    8.1922   -1.7076    0.0000 H   0  0  0  0  0  0  0  0  0  0  0  0
    6.2221    0.4880    0.0000 H   0  0  0  0  0  0  0  0  0  0  0  0
    5.6288   -0.0443    0.0000 H   0  0  0  0  0  0  0  0  0  0  0  0
    6.0735   -2.1542    0.0000 H   0  0  0  0  0  0  0  0  0  0  0  0
    6.8311   -2.4018    0.0000 H   0  0  0  0  0  0  0  0  0  0  0  0
   10.5919   -0.1833    0.0000 H   0  0  0  0  0  0  0  0  0  0  0  0
   11.3889   -0.1832    0.0000 H   0  0  0  0  0  0  0  0  0  0  0  0
    4.9329   -0.6688    0.0000 H   0  0  0  0  0  0  0  0  0  0  0  0
    4.3397   -1.2011    0.0000 H   0  0  0  0  0  0  0  0  0  0  0  0
   10.4339    3.6370    0.0000 H   0  0  0  0  0  0  0  0  0  0  0  0
   13.2998    1.9824    0.0000 H   0  0  0  0  0  0  0  0  0  0  0  0
    3.2502   -1.9837    0.0000 H   0  0  0  0  0  0  0  0  0  0  0  0
    5.9173   -2.8554    0.0000 H   0  0  0  0  0  0  0  0  0  0  0  0
    5.4141   -4.3952    0.0000 H   0  0  0  0  0  0  0  0  0  0  0  0
    1.9225   -3.1285    0.0000 H   0  0  0  0  0  0  0  0  0  0  0  0
    4.1326   -5.5916    0.0000 H   0  0  0  0  0  0  0  0  0  0  0  0
    1.3928   -4.7078    0.0000 H   0  0  0  0  0  0  0  0  0  0  0  0
   11.3085    5.8957    0.0000 H   0  0  0  0  0  0  0  0  0  0  0  0
   10.4625    5.6655    0.0000 H   0  0  0  0  0  0  0  0  0  0  0  0
   10.6927    4.8195    0.0000 H   0  0  0  0  0  0  0  0  0  0  0  0
    2.5053   -5.9477    0.0000 H   0  0  0  0  0  0  0  0  0  0  0  0
   14.1944    2.7977    0.0000 H   0  0  0  0  0  0  0  0  0  0  0  0
   15.0422    3.0214    0.0000 H   0  0  0  0  0  0  0  0  0  0  0  0
   14.8186    3.8692    0.0000 H   0  0  0  0  0  0  0  0  0  0  0  0
  1  7  1  0  0  0  0
  1  8  1  0  0  0  0
  2 16  1  0  0  0  0
  2 19  1  0  0  0  0
  3 23  1  0  0  0  0
  3 33  1  0  0  0  0
  4 24  1  0  0  0  0
  4 35  1  0  0  0  0
  5 10  1  0  0  0  0
  5 11  1  0  0  0  0
  5 12  1  0  0  0  0
  6 13  1  0  0  0  0
  6 14  1  0  0  0  0
  6 18  1  0  0  0  0
  7 15  2  0  0  0  0
  8  9  1  0  0  0  0
  8 10  1  6  0  0  0
  8 36  1  0  0  0  0
  9 15  1  0  0  0  0
  9 16  1  0  0  0  0
  9 37  1  6  0  0  0
 10 38  1  0  0  0  0
 10 39  1  0  0  0  0
 11 13  1  0  0  0  0
 11 40  1  0  0  0  0
 11 41  1  0  0  0  0
 12 14  1  0  0  0  0
 12 42  1  0  0  0  0
 12 43  1  0  0  0  0
 13 44  1  0  0  0  0
 13 45  1  0  0  0  0
 14 46  1  0  0  0  0
 14 47  1  0  0  0  0
 15 17  1  0  0  0  0
 16 48  1  0  0  0  0
 16 49  1  0  0  0  0
 17 19  1  0  0  0  0
 17 21  2  0  0  0  0
 18 20  1  0  0  0  0
 18 50  1  0  0  0  0
 18 51  1  0  0  0  0
 19 22  2  0  0  0  0
 20 25  2  0  0  0  0
 20 26  1  0  0  0  0
 21 23  1  0  0  0  0
 21 52  1  0  0  0  0
 22 24  1  0  0  0  0
 22 53  1  0  0  0  0
 23 24  2  0  0  0  0
 25 27  1  0  0  0  0
 25 54  1  0  0  0  0
 26 28  2  0  0  0  0
 26 55  1  0  0  0  0
 27 29  1  0  0  0  0
 27 30  2  0  0  0  0
 28 29  1  0  0  0  0
 28 56  1  0  0  0  0
 29 31  2  0  0  0  0
 30 32  1  0  0  0  0
 30 57  1  0  0  0  0
 31 34  1  0  0  0  0
 31 58  1  0  0  0  0
 32 34  2  0  0  0  0
 32 59  1  0  0  0  0
 33 60  1  0  0  0  0
 33 61  1  0  0  0  0
 33 62  1  0  0  0  0
 34 63  1  0  0  0  0
 35 64  1  0  0  0  0
 35 65  1  0  0  0  0
 35 66  1  0  0  0  0
M  END
> <PUBCHEM_COMPOUND_CID>
44324737

> <PUBCHEM_COMPOUND_CANONICALIZED>
1

> <PUBCHEM_CACTVS_COMPLEXITY>
742

> <PUBCHEM_CACTVS_HBOND_ACCEPTOR>
7

> <PUBCHEM_CACTVS_HBOND_DONOR>
0

> <PUBCHEM_CACTVS_ROTATABLE_BOND>
6

> <PUBCHEM_CACTVS_SUBSKEYS>
AAADceB7OAAAAAAAAAAAAAAAAAAAAQAAAAA8aMECAAAAAEDRVAAAHgAEAAAADRzhmAYyBsMQBACgAyBiAACCCAAgIAAIiAA+jJgPZ6KEsRuWOCrlwBWaqAfw4PwO4QADCAAYQADCAAYQADCAAAAAAAAAAA==

> <PUBCHEM_IUPAC_OPENEYE_NAME>
(3R,3aS)-7,8-dimethoxy-3-[[4-(2-naphthylmethyl)piperazin-1-yl]methyl]-3a,4-dihydro-3H-chromeno[4,3-c]isoxazole

> <PUBCHEM_IUPAC_CAS_NAME>
(3R,3aS)-7,8-dimethoxy-3-[[4-(2-naphthalenylmethyl)-1-piperazinyl]methyl]-3a,4-dihydro-3H-[1]benzopyrano[4,3-c]isoxazole

> <PUBCHEM_IUPAC_NAME_MARKUP>
(3<I>R</I>,3<I>a</I><I>S</I>)-7,8-dimethoxy-3-[[4-(naphthalen-2-ylmethyl)piperazin-1-yl]methyl]-3<I>a</I>,4-dihydro-3<I>H</I>-chromeno[4,3-c][1,2]oxazole

> <PUBCHEM_IUPAC_NAME>
(3R,3aS)-7,8-dimethoxy-3-[[4-(naphthalen-2-ylmethyl)piperazin-1-yl]methyl]-3a,4-dihydro-3H-chromeno[4,3-c][1,2]oxazole

> <PUBCHEM_IUPAC_SYSTEMATIC_NAME>
(3R,3aS)-7,8-dimethoxy-3-[[4-(naphthalen-2-ylmethyl)piperazin-1-yl]methyl]-3a,4-dihydro-3H-chromeno[4,3-c][1,2]oxazole

> <PUBCHEM_IUPAC_TRADITIONAL_NAME>
(3R,3aS)-7,8-dimethoxy-3-[[4-(2-naphthylmethyl)piperazino]methyl]-3a,4-dihydro-3H-chromen[4,3-c]isoxazole

> <PUBCHEM_IUPAC_INCHI>
InChI=1S/C28H31N3O4/c1-32-25-14-22-24(15-26(25)33-2)34-18-23-27(35-29-28(22)23)17-31-11-9-30(10-12-31)16-19-7-8-20-5-3-4-6-21(20)13-19/h3-8,13-15,23,27H,9-12,16-18H2,1-2H3/t23-,27-/m0/s1

> <PUBCHEM_IUPAC_INCHIKEY>
XHLHZPFSBCZVEA-HOFKKMOUSA-N

> <PUBCHEM_XLOGP3_AA>
4.2

> <PUBCHEM_EXACT_MASS>
473.23145648

> <PUBCHEM_MOLECULAR_FORMULA>
C28H31N3O4

> <PUBCHEM_MOLECULAR_WEIGHT>
473.6

> <PUBCHEM_OPENEYE_CAN_SMILES>
COC1=C(C=C2C(=C1)C3=NOC(C3CO2)CN4CCN(CC4)CC5=CC6=CC=CC=C6C=C5)OC

> <PUBCHEM_OPENEYE_ISO_SMILES>
COC1=C(C=C2C(=C1)C3=NO[C@H]([C@@H]3CO2)CN4CCN(CC4)CC5=CC6=CC=CC=C6C=C5)OC

> <PUBCHEM_CACTVS_TPSA>
55.8

> <PUBCHEM_MONOISOTOPIC_WEIGHT>
473.23145648

> <PUBCHEM_TOTAL_CHARGE>
0

> <PUBCHEM_HEAVY_ATOM_COUNT>
35

> <PUBCHEM_ATOM_DEF_STEREO_COUNT>
2

> <PUBCHEM_ATOM_UDEF_STEREO_COUNT>
0

> <PUBCHEM_BOND_DEF_STEREO_COUNT>
0

> <PUBCHEM_BOND_UDEF_STEREO_COUNT>
0

> <PUBCHEM_ISOTOPIC_ATOM_COUNT>
0

> <PUBCHEM_COMPONENT_COUNT>
1

> <PUBCHEM_CACTVS_TAUTO_COUNT>
-1

> <PUBCHEM_COORDINATE_TYPE>
1
5
255

> <PUBCHEM_BONDANNOTATIONS>
17  19  8
17  21  8
19  22  8
20  25  8
20  26  8
21  23  8
22  24  8
23  24  8
25  27  8
26  28  8
27  29  8
27  30  8
28  29  8
29  31  8
30  32  8
31  34  8
32  34  8
8  10  6
9  37  6

$$$$
