44356141
  -OEChem-09292322142D

 45 46  0     1  0  0  0  0  0999 V2000
    4.0682    5.1700    0.0000 O   0  0  0  0  0  0  0  0  0  0  0  0
    4.0682    7.1700    0.0000 O   0  0  0  0  0  0  0  0  0  0  0  0
    0.5381    5.1459    0.0000 O   0  0  0  0  0  0  0  0  0  0  0  0
    4.0346    1.5000    0.0000 O   0  0  0  0  0  0  0  0  0  0  0  0
    6.6327    1.0000    0.0000 O   0  0  0  0  0  0  0  0  0  0  0  0
    4.9007    0.0000    0.0000 O   0  0  0  0  0  0  0  0  0  0  0  0
    5.7667    2.5000    0.0000 O   0  0  0  0  0  0  0  0  0  0  0  0
    6.6663    5.6700    0.0000 N   0  0  0  0  0  0  0  0  0  0  0  0
    4.9343    5.6700    0.0000 C   0  0  1  0  0  0  0  0  0  0  0  0
    5.8003    5.1700    0.0000 C   0  0  0  0  0  0  0  0  0  0  0  0
    4.9343    6.6700    0.0000 C   0  0  0  0  0  0  0  0  0  0  0  0
    3.2022    5.6700    0.0000 C   0  0  0  0  0  0  0  0  0  0  0  0
    3.2022    6.6700    0.0000 C   0  0  0  0  0  0  0  0  0  0  0  0
    7.5324    5.1700    0.0000 C   0  0  0  0  0  0  0  0  0  0  0  0
    8.3984    5.6700    0.0000 C   0  0  0  0  0  0  0  0  0  0  0  0
    2.3083    5.1354    0.0000 C   0  0  0  0  0  0  0  0  0  0  0  0
    2.3083    7.2047    0.0000 C   0  0  0  0  0  0  0  0  0  0  0  0
    1.4022    5.6492    0.0000 C   0  0  0  0  0  0  0  0  0  0  0  0
    1.4022    6.6908    0.0000 C   0  0  0  0  0  0  0  0  0  0  0  0
    8.3984    6.6700    0.0000 C   0  0  0  0  0  0  0  0  0  0  0  0
    9.2644    5.1700    0.0000 C   0  0  0  0  0  0  0  0  0  0  0  0
    9.2644    7.1700    0.0000 C   0  0  0  0  0  0  0  0  0  0  0  0
   10.1304    5.6700    0.0000 C   0  0  0  0  0  0  0  0  0  0  0  0
   10.1304    6.6700    0.0000 C   0  0  0  0  0  0  0  0  0  0  0  0
    4.9007    1.0000    0.0000 C   0  0  0  0  0  0  0  0  0  0  0  0
    5.7667    1.5000    0.0000 C   0  0  0  0  0  0  0  0  0  0  0  0
    4.9343    5.0500    0.0000 H   0  0  0  0  0  0  0  0  0  0  0  0
    5.4018    4.6951    0.0000 H   0  0  0  0  0  0  0  0  0  0  0  0
    6.1988    4.6951    0.0000 H   0  0  0  0  0  0  0  0  0  0  0  0
    5.5449    6.5624    0.0000 H   0  0  0  0  0  0  0  0  0  0  0  0
    5.1463    7.2526    0.0000 H   0  0  0  0  0  0  0  0  0  0  0  0
    6.6663    6.2900    0.0000 H   0  0  0  0  0  0  0  0  0  0  0  0
    7.1338    4.6951    0.0000 H   0  0  0  0  0  0  0  0  0  0  0  0
    7.9309    4.6951    0.0000 H   0  0  0  0  0  0  0  0  0  0  0  0
    2.3154    4.5154    0.0000 H   0  0  0  0  0  0  0  0  0  0  0  0
    2.3154    7.8247    0.0000 H   0  0  0  0  0  0  0  0  0  0  0  0
    0.8665    7.0029    0.0000 H   0  0  0  0  0  0  0  0  0  0  0  0
    7.8614    6.9800    0.0000 H   0  0  0  0  0  0  0  0  0  0  0  0
    9.2644    4.5500    0.0000 H   0  0  0  0  0  0  0  0  0  0  0  0
    9.2644    7.7900    0.0000 H   0  0  0  0  0  0  0  0  0  0  0  0
   10.6674    5.3600    0.0000 H   0  0  0  0  0  0  0  0  0  0  0  0
   10.6674    6.9800    0.0000 H   0  0  0  0  0  0  0  0  0  0  0  0
    0.0000    5.4538    0.0000 H   0  0  0  0  0  0  0  0  0  0  0  0
    3.4977    1.1900    0.0000 H   0  0  0  0  0  0  0  0  0  0  0  0
    7.1697    1.3100    0.0000 H   0  0  0  0  0  0  0  0  0  0  0  0
  1  9  1  0  0  0  0
  1 12  1  0  0  0  0
  2 11  1  0  0  0  0
  2 13  1  0  0  0  0
  3 18  1  0  0  0  0
  3 43  1  0  0  0  0
  4 25  1  0  0  0  0
  4 44  1  0  0  0  0
  5 26  1  0  0  0  0
  5 45  1  0  0  0  0
  6 25  2  0  0  0  0
  7 26  2  0  0  0  0
  8 10  1  0  0  0  0
  8 14  1  0  0  0  0
  8 32  1  0  0  0  0
  9 10  1  6  0  0  0
  9 11  1  0  0  0  0
  9 27  1  0  0  0  0
 10 28  1  0  0  0  0
 10 29  1  0  0  0  0
 11 30  1  0  0  0  0
 11 31  1  0  0  0  0
 12 13  2  0  0  0  0
 12 16  1  0  0  0  0
 13 17  1  0  0  0  0
 14 15  1  0  0  0  0
 14 33  1  0  0  0  0
 14 34  1  0  0  0  0
 15 20  2  0  0  0  0
 15 21  1  0  0  0  0
 16 18  2  0  0  0  0
 16 35  1  0  0  0  0
 17 19  2  0  0  0  0
 17 36  1  0  0  0  0
 18 19  1  0  0  0  0
 19 37  1  0  0  0  0
 20 22  1  0  0  0  0
 20 38  1  0  0  0  0
 21 23  2  0  0  0  0
 21 39  1  0  0  0  0
 22 24  2  0  0  0  0
 22 40  1  0  0  0  0
 23 24  1  0  0  0  0
 23 41  1  0  0  0  0
 24 42  1  0  0  0  0
 25 26  1  0  0  0  0
M  END
> <PUBCHEM_COMPOUND_CID>
44356141

> <PUBCHEM_COMPOUND_CANONICALIZED>
1

> <PUBCHEM_CACTVS_COMPLEXITY>
365

> <PUBCHEM_CACTVS_HBOND_ACCEPTOR>
8

> <PUBCHEM_CACTVS_HBOND_DONOR>
4

> <PUBCHEM_CACTVS_ROTATABLE_BOND>
5

> <PUBCHEM_CACTVS_SUBSKEYS>
AAADceB6OAAAAAAAAAAAAAAAAAAAAAAAAAA0YIAAAAAAAACRQAAAHgAQCAAADBThmAYwDoLABgCIAiDSCAKCCAAgIAAIiIBOjIgPJyKGsRuHeCrn0BWbuAfQ4AwOAQAACAAAQAACAAAQAACAAAAAAAAAAA==

> <PUBCHEM_IUPAC_OPENEYE_NAME>
(3S)-3-[(benzylamino)methyl]-2,3-dihydro-1,4-benzodioxin-6-ol;oxalic acid

> <PUBCHEM_IUPAC_CAS_NAME>
oxalic acid;(3S)-3-[[(phenylmethyl)amino]methyl]-2,3-dihydro-1,4-benzodioxin-6-ol

> <PUBCHEM_IUPAC_NAME_MARKUP>
(3<I>S</I>)-3-[(benzylamino)methyl]-2,3-dihydro-1,4-benzodioxin-6-ol;oxalic acid

> <PUBCHEM_IUPAC_NAME>
(3S)-3-[(benzylamino)methyl]-2,3-dihydro-1,4-benzodioxin-6-ol;oxalic acid

> <PUBCHEM_IUPAC_SYSTEMATIC_NAME>
ethanedioic acid;(3S)-3-[[(phenylmethyl)amino]methyl]-2,3-dihydro-1,4-benzodioxin-6-ol

> <PUBCHEM_IUPAC_TRADITIONAL_NAME>
(3S)-3-[(benzylamino)methyl]-2,3-dihydro-1,4-benzodioxin-6-ol;oxalic acid

> <PUBCHEM_IUPAC_INCHI>
InChI=1S/C16H17NO3.C2H2O4/c18-13-6-7-15-16(8-13)20-14(11-19-15)10-17-9-12-4-2-1-3-5-12;3-1(4)2(5)6/h1-8,14,17-18H,9-11H2;(H,3,4)(H,5,6)/t14-;/m0./s1

> <PUBCHEM_IUPAC_INCHIKEY>
GEOKEKDIFTYNMR-UQKRIMTDSA-N

> <PUBCHEM_EXACT_MASS>
361.11615195

> <PUBCHEM_MOLECULAR_FORMULA>
C18H19NO7

> <PUBCHEM_MOLECULAR_WEIGHT>
361.3

> <PUBCHEM_OPENEYE_CAN_SMILES>
C1C(OC2=C(O1)C=CC(=C2)O)CNCC3=CC=CC=C3.C(=O)(C(=O)O)O

> <PUBCHEM_OPENEYE_ISO_SMILES>
C1[C@@H](OC2=C(O1)C=CC(=C2)O)CNCC3=CC=CC=C3.C(=O)(C(=O)O)O

> <PUBCHEM_CACTVS_TPSA>
125

> <PUBCHEM_MONOISOTOPIC_WEIGHT>
361.11615195

> <PUBCHEM_TOTAL_CHARGE>
0

> <PUBCHEM_HEAVY_ATOM_COUNT>
26

> <PUBCHEM_ATOM_DEF_STEREO_COUNT>
1

> <PUBCHEM_ATOM_UDEF_STEREO_COUNT>
0

> <PUBCHEM_BOND_DEF_STEREO_COUNT>
0

> <PUBCHEM_BOND_UDEF_STEREO_COUNT>
0

> <PUBCHEM_ISOTOPIC_ATOM_COUNT>
0

> <PUBCHEM_COMPONENT_COUNT>
2

> <PUBCHEM_CACTVS_TAUTO_COUNT>
-1

> <PUBCHEM_COORDINATE_TYPE>
1
5
255

> <PUBCHEM_BONDANNOTATIONS>
12  13  8
12  16  8
13  17  8
15  20  8
15  21  8
16  18  8
17  19  8
18  19  8
20  22  8
21  23  8
22  24  8
23  24  8
9  10  6

$$$$
