45264594
  -OEChem-09292322202D

 47 49  0     0  0  0  0  0  0999 V2000
    5.0886    0.0000    0.0000 Cl  0  0  0  0  0  0  0  0  0  0  0  0
    0.5016    4.3987    0.0000 S   0  0  0  0  0  0  0  0  0  0  0  0
    7.1282    3.9557    0.0000 O   0  0  0  0  0  0  0  0  0  0  0  0
    6.8192    6.5248    0.0000 O   0  0  0  0  0  0  0  0  0  0  0  0
    4.5404    4.7647    0.0000 N   0  0  0  0  0  0  0  0  0  0  0  0
    6.5404    4.7647    0.0000 C   0  0  0  0  0  0  0  0  0  0  0  0
    6.0404    5.6307    0.0000 C   0  0  0  0  0  0  0  0  0  0  0  0
    6.0404    3.8987    0.0000 C   0  0  0  0  0  0  0  0  0  0  0  0
    5.0404    5.6307    0.0000 C   0  0  0  0  0  0  0  0  0  0  0  0
    5.0404    3.8987    0.0000 C   0  0  0  0  0  0  0  0  0  0  0  0
    7.1282    5.5737    0.0000 C   0  0  0  0  0  0  0  0  0  0  0  0
    3.5404    4.7647    0.0000 C   0  0  0  0  0  0  0  0  0  0  0  0
    8.0793    5.2647    0.0000 C   0  0  0  0  0  0  0  0  0  0  0  0
    8.0793    4.2647    0.0000 C   0  0  0  0  0  0  0  0  0  0  0  0
    3.0404    3.8987    0.0000 C   0  0  0  0  0  0  0  0  0  0  0  0
    8.8883    5.8525    0.0000 C   0  0  0  0  0  0  0  0  0  0  0  0
    2.0404    3.8987    0.0000 C   0  0  0  0  0  0  0  0  0  0  0  0
    8.7838    6.8470    0.0000 C   0  0  0  0  0  0  0  0  0  0  0  0
    9.8018    5.4458    0.0000 C   0  0  0  0  0  0  0  0  0  0  0  0
    1.4526    3.0896    0.0000 C   0  0  0  0  0  0  0  0  0  0  0  0
    1.4526    4.7077    0.0000 C   0  0  0  0  0  0  0  0  0  0  0  0
    9.5928    7.4348    0.0000 C   0  0  0  0  0  0  0  0  0  0  0  0
   10.6109    6.0335    0.0000 C   0  0  0  0  0  0  0  0  0  0  0  0
    0.5016    3.3987    0.0000 C   0  0  0  0  0  0  0  0  0  0  0  0
   10.5063    7.0280    0.0000 C   0  0  0  0  0  0  0  0  0  0  0  0
    6.6230    5.8428    0.0000 H   0  0  0  0  0  0  0  0  0  0  0  0
    5.9328    6.2413    0.0000 H   0  0  0  0  0  0  0  0  0  0  0  0
    5.9328    3.2881    0.0000 H   0  0  0  0  0  0  0  0  0  0  0  0
    6.6230    3.6866    0.0000 H   0  0  0  0  0  0  0  0  0  0  0  0
    5.1481    6.2413    0.0000 H   0  0  0  0  0  0  0  0  0  0  0  0
    4.4578    5.8428    0.0000 H   0  0  0  0  0  0  0  0  0  0  0  0
    4.4578    3.6866    0.0000 H   0  0  0  0  0  0  0  0  0  0  0  0
    5.1481    3.2881    0.0000 H   0  0  0  0  0  0  0  0  0  0  0  0
    3.6481    5.3753    0.0000 H   0  0  0  0  0  0  0  0  0  0  0  0
    2.9578    4.9768    0.0000 H   0  0  0  0  0  0  0  0  0  0  0  0
    8.5809    3.9003    0.0000 H   0  0  0  0  0  0  0  0  0  0  0  0
    2.9328    3.2881    0.0000 H   0  0  0  0  0  0  0  0  0  0  0  0
    3.6230    3.6866    0.0000 H   0  0  0  0  0  0  0  0  0  0  0  0
    8.2174    7.0992    0.0000 H   0  0  0  0  0  0  0  0  0  0  0  0
    9.8666    4.8291    0.0000 H   0  0  0  0  0  0  0  0  0  0  0  0
    1.6442    2.5000    0.0000 H   0  0  0  0  0  0  0  0  0  0  0  0
    1.6442    5.2973    0.0000 H   0  0  0  0  0  0  0  0  0  0  0  0
    9.5280    8.0514    0.0000 H   0  0  0  0  0  0  0  0  0  0  0  0
   11.1773    5.7814    0.0000 H   0  0  0  0  0  0  0  0  0  0  0  0
    0.0000    3.0342    0.0000 H   0  0  0  0  0  0  0  0  0  0  0  0
   11.0079    7.3925    0.0000 H   0  0  0  0  0  0  0  0  0  0  0  0
    6.0886    0.0000    0.0000 H   0  0  0  0  0  0  0  0  0  0  0  0
  1 47  1  0  0  0  0
  2 21  1  0  0  0  0
  2 24  1  0  0  0  0
  3  6  1  0  0  0  0
  3 14  1  0  0  0  0
  4 11  2  0  0  0  0
  5  9  1  0  0  0  0
  5 10  1  0  0  0  0
  5 12  1  0  0  0  0
  6  7  1  0  0  0  0
  6  8  1  0  0  0  0
  6 11  1  0  0  0  0
  7  9  1  0  0  0  0
  7 26  1  0  0  0  0
  7 27  1  0  0  0  0
  8 10  1  0  0  0  0
  8 28  1  0  0  0  0
  8 29  1  0  0  0  0
  9 30  1  0  0  0  0
  9 31  1  0  0  0  0
 10 32  1  0  0  0  0
 10 33  1  0  0  0  0
 11 13  1  0  0  0  0
 12 15  1  0  0  0  0
 12 34  1  0  0  0  0
 12 35  1  0  0  0  0
 13 14  2  0  0  0  0
 13 16  1  0  0  0  0
 14 36  1  0  0  0  0
 15 17  1  0  0  0  0
 15 37  1  0  0  0  0
 15 38  1  0  0  0  0
 16 18  2  0  0  0  0
 16 19  1  0  0  0  0
 17 20  1  0  0  0  0
 17 21  2  0  0  0  0
 18 22  1  0  0  0  0
 18 39  1  0  0  0  0
 19 23  2  0  0  0  0
 19 40  1  0  0  0  0
 20 24  2  0  0  0  0
 20 41  1  0  0  0  0
 21 42  1  0  0  0  0
 22 25  2  0  0  0  0
 22 43  1  0  0  0  0
 23 25  1  0  0  0  0
 23 44  1  0  0  0  0
 24 45  1  0  0  0  0
 25 46  1  0  0  0  0
M  END
> <PUBCHEM_COMPOUND_CID>
45264594

> <PUBCHEM_COMPOUND_CANONICALIZED>
1

> <PUBCHEM_CACTVS_COMPLEXITY>
490

> <PUBCHEM_CACTVS_HBOND_ACCEPTOR>
4

> <PUBCHEM_CACTVS_HBOND_DONOR>
1

> <PUBCHEM_CACTVS_ROTATABLE_BOND>
4

> <PUBCHEM_CACTVS_SUBSKEYS>
AAADceB6MABEAAAAAAAAAAAAAAAAASIAAAA8QAAAAAAAAAABwAAAHgQAAAAADETl2AawAYMABAiMAqBSAAIDCIAgKBBIiBlIAMgIIDKglRWEIAAmwACoiIecyOCOAAAAAAAAAAAAAAAAAAAAAAAAAAAAAA==

> <PUBCHEM_IUPAC_OPENEYE_NAME>
3-phenyl-8-[2-(3-thienyl)ethyl]-1-oxa-8-azaspiro[4.5]dec-2-en-4-one;hydrochloride

> <PUBCHEM_IUPAC_CAS_NAME>
3-phenyl-8-[2-(3-thiophenyl)ethyl]-1-oxa-8-azaspiro[4.5]dec-2-en-4-one;hydrochloride

> <PUBCHEM_IUPAC_NAME_MARKUP>
3-phenyl-8-(2-thiophen-3-ylethyl)-1-oxa-8-azaspiro[4.5]dec-2-en-4-one;hydrochloride

> <PUBCHEM_IUPAC_NAME>
3-phenyl-8-(2-thiophen-3-ylethyl)-1-oxa-8-azaspiro[4.5]dec-2-en-4-one;hydrochloride

> <PUBCHEM_IUPAC_SYSTEMATIC_NAME>
3-phenyl-8-(2-thiophen-3-ylethyl)-1-oxa-8-azaspiro[4.5]dec-2-en-4-one;hydrochloride

> <PUBCHEM_IUPAC_TRADITIONAL_NAME>
3-phenyl-8-[2-(3-thienyl)ethyl]-1-oxa-8-azaspiro[4.5]dec-2-en-4-one;hydrochloride

> <PUBCHEM_IUPAC_INCHI>
InChI=1S/C20H21NO2S.ClH/c22-19-18(17-4-2-1-3-5-17)14-23-20(19)8-11-21(12-9-20)10-6-16-7-13-24-15-16;/h1-5,7,13-15H,6,8-12H2;1H

> <PUBCHEM_IUPAC_INCHIKEY>
JGFUVFKWRFIYIS-UHFFFAOYSA-N

> <PUBCHEM_EXACT_MASS>
375.1059778

> <PUBCHEM_MOLECULAR_FORMULA>
C20H22ClNO2S

> <PUBCHEM_MOLECULAR_WEIGHT>
375.9

> <PUBCHEM_OPENEYE_CAN_SMILES>
C1CN(CCC12C(=O)C(=CO2)C3=CC=CC=C3)CCC4=CSC=C4.Cl

> <PUBCHEM_OPENEYE_ISO_SMILES>
C1CN(CCC12C(=O)C(=CO2)C3=CC=CC=C3)CCC4=CSC=C4.Cl

> <PUBCHEM_CACTVS_TPSA>
57.8

> <PUBCHEM_MONOISOTOPIC_WEIGHT>
375.1059778

> <PUBCHEM_TOTAL_CHARGE>
0

> <PUBCHEM_HEAVY_ATOM_COUNT>
25

> <PUBCHEM_ATOM_DEF_STEREO_COUNT>
0

> <PUBCHEM_ATOM_UDEF_STEREO_COUNT>
0

> <PUBCHEM_BOND_DEF_STEREO_COUNT>
0

> <PUBCHEM_BOND_UDEF_STEREO_COUNT>
0

> <PUBCHEM_ISOTOPIC_ATOM_COUNT>
0

> <PUBCHEM_COMPONENT_COUNT>
2

> <PUBCHEM_CACTVS_TAUTO_COUNT>
-1

> <PUBCHEM_COORDINATE_TYPE>
1
5
255

> <PUBCHEM_BONDANNOTATIONS>
16  18  8
16  19  8
17  20  8
17  21  8
18  22  8
19  23  8
2  21  8
2  24  8
20  24  8
22  25  8
23  25  8

$$$$
