164613771
  -OEChem-09292322432D

 64 66  0     1  0  0  0  0  0999 V2000
    9.2175    2.6788    0.0000 O   0  0  0  0  0  0  0  0  0  0  0  0
   14.4796    0.6546    0.0000 O   0  0  0  0  0  0  0  0  0  0  0  0
    8.5389    7.9937    0.0000 O   0  0  0  0  0  0  0  0  0  0  0  0
    5.9408    8.4937    0.0000 O   0  0  0  0  0  0  0  0  0  0  0  0
    7.6728    9.4937    0.0000 O   0  0  0  0  0  0  0  0  0  0  0  0
    6.8068    6.9937    0.0000 O   0  0  0  0  0  0  0  0  0  0  0  0
    5.7534    2.6921    0.0000 N   0  0  3  0  0  0  0  0  0  0  0  0
    3.6088    3.3627    0.0000 N   0  0  3  0  0  0  0  0  0  0  0  0
    2.0454    2.6172    0.0000 N   0  0  0  0  0  0  0  0  0  0  0  0
   12.7476    0.6546    0.0000 N   0  0  0  0  0  0  0  0  0  0  0  0
    5.8320    3.6890    0.0000 C   0  0  0  0  0  0  0  0  0  0  0  0
    4.9250    2.1320    0.0000 C   0  0  0  0  0  0  0  0  0  0  0  0
    5.1015    4.3720    0.0000 C   0  0  0  0  0  0  0  0  0  0  0  0
    3.9706    2.4304    0.0000 C   0  0  0  0  0  0  0  0  0  0  0  0
    4.1121    4.2268    0.0000 C   0  0  0  0  0  0  0  0  0  0  0  0
    6.6175    2.1888    0.0000 C   0  0  0  0  0  0  0  0  0  0  0  0
    7.4854    2.6854    0.0000 C   0  0  0  0  0  0  0  0  0  0  0  0
    2.6119    3.4413    0.0000 C   0  0  0  0  0  0  0  0  0  0  0  0
    8.3495    2.1821    0.0000 C   0  0  0  0  0  0  0  0  0  0  0  0
    2.1815    4.3439    0.0000 C   0  0  0  0  0  0  0  0  0  0  0  0
   11.8816    2.1546    0.0000 C   0  0  0  0  0  0  0  0  0  0  0  0
   12.7476    2.6546    0.0000 C   0  0  0  0  0  0  0  0  0  0  0  0
   10.0816    2.1754    0.0000 C   0  0  0  0  0  0  0  0  0  0  0  0
   11.8816    1.1546    0.0000 C   0  0  0  0  0  0  0  0  0  0  0  0
   10.9876    2.6893    0.0000 C   0  0  0  0  0  0  0  0  0  0  0  0
   13.6136    2.1546    0.0000 C   0  0  0  0  0  0  0  0  0  0  0  0
    1.1846    4.4225    0.0000 C   0  0  0  0  0  0  0  0  0  0  0  0
   10.0816    1.1338    0.0000 C   0  0  0  0  0  0  0  0  0  0  0  0
   10.9876    0.6200    0.0000 C   0  0  0  0  0  0  0  0  0  0  0  0
   13.6136    1.1546    0.0000 C   0  0  0  0  0  0  0  0  0  0  0  0
    1.0485    2.6958    0.0000 C   0  0  0  0  0  0  0  0  0  0  0  0
    0.6181    3.5984    0.0000 C   0  0  0  0  0  0  0  0  0  0  0  0
    7.6728    8.4937    0.0000 C   0  0  0  0  0  0  0  0  0  0  0  0
    6.8068    7.9937    0.0000 C   0  0  0  0  0  0  0  0  0  0  0  0
    6.4237    3.5040    0.0000 H   0  0  0  0  0  0  0  0  0  0  0  0
    6.1440    4.2248    0.0000 H   0  0  0  0  0  0  0  0  0  0  0  0
    4.6129    1.5962    0.0000 H   0  0  0  0  0  0  0  0  0  0  0  0
    5.3778    1.7085    0.0000 H   0  0  0  0  0  0  0  0  0  0  0  0
    5.6152    4.7193    0.0000 H   0  0  0  0  0  0  0  0  0  0  0  0
    4.8773    4.9500    0.0000 H   0  0  0  0  0  0  0  0  0  0  0  0
    3.3571    2.3404    0.0000 H   0  0  0  0  0  0  0  0  0  0  0  0
    3.9218    1.8123    0.0000 H   0  0  0  0  0  0  0  0  0  0  0  0
    4.1609    4.8449    0.0000 H   0  0  0  0  0  0  0  0  0  0  0  0
    3.5204    4.4118    0.0000 H   0  0  0  0  0  0  0  0  0  0  0  0
    6.2171    1.7154    0.0000 H   0  0  0  0  0  0  0  0  0  0  0  0
    7.0142    1.7123    0.0000 H   0  0  0  0  0  0  0  0  0  0  0  0
    7.8858    3.1588    0.0000 H   0  0  0  0  0  0  0  0  0  0  0  0
    7.0887    3.1619    0.0000 H   0  0  0  0  0  0  0  0  0  0  0  0
    7.9492    1.7087    0.0000 H   0  0  0  0  0  0  0  0  0  0  0  0
    8.7462    1.7056    0.0000 H   0  0  0  0  0  0  0  0  0  0  0  0
    2.5327    4.8548    0.0000 H   0  0  0  0  0  0  0  0  0  0  0  0
   13.1461    3.1296    0.0000 H   0  0  0  0  0  0  0  0  0  0  0  0
   12.3491    3.1296    0.0000 H   0  0  0  0  0  0  0  0  0  0  0  0
   14.2242    2.0470    0.0000 H   0  0  0  0  0  0  0  0  0  0  0  0
   13.8257    2.7372    0.0000 H   0  0  0  0  0  0  0  0  0  0  0  0
   10.9948    3.3092    0.0000 H   0  0  0  0  0  0  0  0  0  0  0  0
    0.9177    4.9821    0.0000 H   0  0  0  0  0  0  0  0  0  0  0  0
    9.5458    0.8217    0.0000 H   0  0  0  0  0  0  0  0  0  0  0  0
   10.9948    0.0000    0.0000 H   0  0  0  0  0  0  0  0  0  0  0  0
   12.7476    0.0346    0.0000 H   0  0  0  0  0  0  0  0  0  0  0  0
    0.6973    2.1849    0.0000 H   0  0  0  0  0  0  0  0  0  0  0  0
    0.0000    3.6471    0.0000 H   0  0  0  0  0  0  0  0  0  0  0  0
    9.0758    8.3037    0.0000 H   0  0  0  0  0  0  0  0  0  0  0  0
    5.4038    8.1837    0.0000 H   0  0  0  0  0  0  0  0  0  0  0  0
  1 19  1  0  0  0  0
  1 23  1  0  0  0  0
  2 30  2  0  0  0  0
  3 33  1  0  0  0  0
  3 63  1  0  0  0  0
  4 34  1  0  0  0  0
  4 64  1  0  0  0  0
  5 33  2  0  0  0  0
  6 34  2  0  0  0  0
  7 11  1  0  0  0  0
  7 12  1  0  0  0  0
  7 16  1  0  0  0  0
  8 14  1  0  0  0  0
  8 15  1  0  0  0  0
  8 18  1  0  0  0  0
  9 18  1  0  0  0  0
  9 31  2  0  0  0  0
 10 24  1  0  0  0  0
 10 30  1  0  0  0  0
 10 60  1  0  0  0  0
 11 13  1  0  0  0  0
 11 35  1  0  0  0  0
 11 36  1  0  0  0  0
 12 14  1  0  0  0  0
 12 37  1  0  0  0  0
 12 38  1  0  0  0  0
 13 15  1  0  0  0  0
 13 39  1  0  0  0  0
 13 40  1  0  0  0  0
 14 41  1  0  0  0  0
 14 42  1  0  0  0  0
 15 43  1  0  0  0  0
 15 44  1  0  0  0  0
 16 17  1  0  0  0  0
 16 45  1  0  0  0  0
 16 46  1  0  0  0  0
 17 19  1  0  0  0  0
 17 47  1  0  0  0  0
 17 48  1  0  0  0  0
 18 20  2  0  0  0  0
 19 49  1  0  0  0  0
 19 50  1  0  0  0  0
 20 27  1  0  0  0  0
 20 51  1  0  0  0  0
 21 22  1  0  0  0  0
 21 24  2  0  0  0  0
 21 25  1  0  0  0  0
 22 26  1  0  0  0  0
 22 52  1  0  0  0  0
 22 53  1  0  0  0  0
 23 25  2  0  0  0  0
 23 28  1  0  0  0  0
 24 29  1  0  0  0  0
 25 56  1  0  0  0  0
 26 30  1  0  0  0  0
 26 54  1  0  0  0  0
 26 55  1  0  0  0  0
 27 32  2  0  0  0  0
 27 57  1  0  0  0  0
 28 29  2  0  0  0  0
 28 58  1  0  0  0  0
 29 59  1  0  0  0  0
 31 32  1  0  0  0  0
 31 61  1  0  0  0  0
 32 62  1  0  0  0  0
 33 34  1  0  0  0  0
M  END
> <PUBCHEM_COMPOUND_CID>
164613771

> <PUBCHEM_COMPOUND_CANONICALIZED>
1

> <PUBCHEM_CACTVS_COMPLEXITY>
575

> <PUBCHEM_CACTVS_HBOND_ACCEPTOR>
9

> <PUBCHEM_CACTVS_HBOND_DONOR>
3

> <PUBCHEM_CACTVS_ROTATABLE_BOND>
7

> <PUBCHEM_CACTVS_SUBSKEYS>
AAADceB7uAAAAAAAAAAAAAAAAAAAAAAAAAA8WIAABYAAAACxwAAAHgAQCAAADAzhmgY9/pPIFgCoAjf3fAKCiCkxIiAJ2CF+bJiNZvLE+ZuWOCju1BPJ6Ce4ybCeAEABAAACAAAAgAIAAAQAAAAAAAAAAA==

> <PUBCHEM_IUPAC_OPENEYE_NAME>
oxalic acid;6-[3-[4-(2-pyridyl)-1,4-diazepan-1-yl]propoxy]-3,4-dihydro-1H-quinolin-2-one

> <PUBCHEM_IUPAC_CAS_NAME>
oxalic acid;6-[3-[4-(2-pyridinyl)-1,4-diazepan-1-yl]propoxy]-3,4-dihydro-1H-quinolin-2-one

> <PUBCHEM_IUPAC_NAME_MARKUP>
oxalic acid;6-[3-(4-pyridin-2-yl-1,4-diazepan-1-yl)propoxy]-3,4-dihydro-1<I>H</I>-quinolin-2-one

> <PUBCHEM_IUPAC_NAME>
oxalic acid;6-[3-(4-pyridin-2-yl-1,4-diazepan-1-yl)propoxy]-3,4-dihydro-1H-quinolin-2-one

> <PUBCHEM_IUPAC_SYSTEMATIC_NAME>
ethanedioic acid;6-[3-(4-pyridin-2-yl-1,4-diazepan-1-yl)propoxy]-3,4-dihydro-1H-quinolin-2-one

> <PUBCHEM_IUPAC_TRADITIONAL_NAME>
oxalic acid;6-[3-[4-(2-pyridyl)-1,4-diazepan-1-yl]propoxy]-3,4-dihydrocarbostyril

> <PUBCHEM_IUPAC_INCHI>
InChI=1S/C22H28N4O2.C2H2O4/c27-22-9-6-18-17-19(7-8-20(18)24-22)28-16-4-12-25-11-3-13-26(15-14-25)21-5-1-2-10-23-21;3-1(4)2(5)6/h1-2,5,7-8,10,17H,3-4,6,9,11-16H2,(H,24,27);(H,3,4)(H,5,6)

> <PUBCHEM_IUPAC_INCHIKEY>
YLEPKPGFWMXHHA-UHFFFAOYSA-N

> <PUBCHEM_EXACT_MASS>
470.21653469

> <PUBCHEM_MOLECULAR_FORMULA>
C24H30N4O6

> <PUBCHEM_MOLECULAR_WEIGHT>
470.5

> <PUBCHEM_OPENEYE_CAN_SMILES>
C1CN(CCN(C1)C2=CC=CC=N2)CCCOC3=CC4=C(C=C3)NC(=O)CC4.C(=O)(C(=O)O)O

> <PUBCHEM_OPENEYE_ISO_SMILES>
C1CN(CCN(C1)C2=CC=CC=N2)CCCOC3=CC4=C(C=C3)NC(=O)CC4.C(=O)(C(=O)O)O

> <PUBCHEM_CACTVS_TPSA>
132

> <PUBCHEM_MONOISOTOPIC_WEIGHT>
470.21653469

> <PUBCHEM_TOTAL_CHARGE>
0

> <PUBCHEM_HEAVY_ATOM_COUNT>
34

> <PUBCHEM_ATOM_DEF_STEREO_COUNT>
0

> <PUBCHEM_ATOM_UDEF_STEREO_COUNT>
0

> <PUBCHEM_BOND_DEF_STEREO_COUNT>
0

> <PUBCHEM_BOND_UDEF_STEREO_COUNT>
0

> <PUBCHEM_ISOTOPIC_ATOM_COUNT>
0

> <PUBCHEM_COMPONENT_COUNT>
2

> <PUBCHEM_CACTVS_TAUTO_COUNT>
-1

> <PUBCHEM_COORDINATE_TYPE>
1
5
255

> <PUBCHEM_BONDANNOTATIONS>
18  20  8
20  27  8
21  24  8
21  25  8
23  25  8
23  28  8
24  29  8
27  32  8
28  29  8
31  32  8
9  18  8
9  31  8

$$$$
