11674133
  -OEChem-09292322492D

 50 53  0     1  0  0  0  0  0999 V2000
    6.8078   -0.5716    0.0000 N   0  0  3  0  0  0  0  0  0  0  0  0
    2.6067   -1.2387    0.0000 N   0  0  0  0  0  0  0  0  0  0  0  0
    4.2097    0.9284    0.0000 C   0  0  3  0  0  0  0  0  0  0  0  0
    3.3437    0.4284    0.0000 C   0  0  0  0  0  0  0  0  0  0  0  0
    5.0757    0.4284    0.0000 C   0  0  0  0  0  0  0  0  0  0  0  0
    3.3437   -0.5716    0.0000 C   0  0  0  0  0  0  0  0  0  0  0  0
    4.2097   -1.0716    0.0000 C   0  0  0  0  0  0  0  0  0  0  0  0
    5.9418    0.9284    0.0000 C   0  0  0  0  0  0  0  0  0  0  0  0
    5.0757   -0.5716    0.0000 C   0  0  0  0  0  0  0  0  0  0  0  0
    6.8078    0.4284    0.0000 C   0  0  0  0  0  0  0  0  0  0  0  0
    5.9418   -1.0716    0.0000 C   0  0  0  0  0  0  0  0  0  0  0  0
    4.2097    1.9284    0.0000 C   0  0  0  0  0  0  0  0  0  0  0  0
    4.0005   -2.0434    0.0000 C   0  0  0  0  0  0  0  0  0  0  0  0
    3.0118   -2.1465    0.0000 C   0  0  0  0  0  0  0  0  0  0  0  0
    7.6738   -1.0716    0.0000 C   0  0  0  0  0  0  0  0  0  0  0  0
    4.6213   -2.8722    0.0000 C   0  0  0  0  0  0  0  0  0  0  0  0
    3.3437    2.4284    0.0000 C   0  0  0  0  0  0  0  0  0  0  0  0
    5.0757    2.4284    0.0000 C   0  0  0  0  0  0  0  0  0  0  0  0
    2.5753   -3.0855    0.0000 C   0  0  0  0  0  0  0  0  0  0  0  0
    4.2066   -3.8210    0.0000 C   0  0  0  0  0  0  0  0  0  0  0  0
    3.1767   -3.9284    0.0000 C   0  0  0  0  0  0  0  0  0  0  0  0
    3.3437    3.4284    0.0000 C   0  0  0  0  0  0  0  0  0  0  0  0
    5.0757    3.4284    0.0000 C   0  0  0  0  0  0  0  0  0  0  0  0
    4.2097    3.9284    0.0000 C   0  0  0  0  0  0  0  0  0  0  0  0
    4.7466    1.2384    0.0000 H   0  0  0  0  0  0  0  0  0  0  0  0
    3.1316    1.0110    0.0000 H   0  0  0  0  0  0  0  0  0  0  0  0
    2.7331    0.3207    0.0000 H   0  0  0  0  0  0  0  0  0  0  0  0
    4.6772   -0.0466    0.0000 H   0  0  0  0  0  0  0  0  0  0  0  0
    5.4743   -0.0466    0.0000 H   0  0  0  0  0  0  0  0  0  0  0  0
    6.3403    1.4033    0.0000 H   0  0  0  0  0  0  0  0  0  0  0  0
    5.5432    1.4033    0.0000 H   0  0  0  0  0  0  0  0  0  0  0  0
    5.4743   -0.0967    0.0000 H   0  0  0  0  0  0  0  0  0  0  0  0
    4.6772   -0.0967    0.0000 H   0  0  0  0  0  0  0  0  0  0  0  0
    7.4184    0.3207    0.0000 H   0  0  0  0  0  0  0  0  0  0  0  0
    7.0198    1.0110    0.0000 H   0  0  0  0  0  0  0  0  0  0  0  0
    5.5432   -1.5466    0.0000 H   0  0  0  0  0  0  0  0  0  0  0  0
    6.3403   -1.5466    0.0000 H   0  0  0  0  0  0  0  0  0  0  0  0
    2.0000   -1.1109    0.0000 H   0  0  0  0  0  0  0  0  0  0  0  0
    7.3638   -1.6086    0.0000 H   0  0  0  0  0  0  0  0  0  0  0  0
    8.2108   -1.3816    0.0000 H   0  0  0  0  0  0  0  0  0  0  0  0
    7.9838   -0.5347    0.0000 H   0  0  0  0  0  0  0  0  0  0  0  0
    5.2371   -2.8008    0.0000 H   0  0  0  0  0  0  0  0  0  0  0  0
    2.8068    2.1184    0.0000 H   0  0  0  0  0  0  0  0  0  0  0  0
    5.6127    2.1184    0.0000 H   0  0  0  0  0  0  0  0  0  0  0  0
    1.9579   -3.1426    0.0000 H   0  0  0  0  0  0  0  0  0  0  0  0
    4.5725   -4.3215    0.0000 H   0  0  0  0  0  0  0  0  0  0  0  0
    2.9219   -4.4936    0.0000 H   0  0  0  0  0  0  0  0  0  0  0  0
    2.8068    3.7384    0.0000 H   0  0  0  0  0  0  0  0  0  0  0  0
    5.6127    3.7384    0.0000 H   0  0  0  0  0  0  0  0  0  0  0  0
    4.2097    4.5484    0.0000 H   0  0  0  0  0  0  0  0  0  0  0  0
  1 10  1  0  0  0  0
  1 11  1  0  0  0  0
  1 15  1  0  0  0  0
  2  6  1  0  0  0  0
  2 14  1  0  0  0  0
  2 38  1  0  0  0  0
  3  4  1  0  0  0  0
  3  5  1  0  0  0  0
  3 12  1  0  0  0  0
  3 25  1  0  0  0  0
  4  6  1  0  0  0  0
  4 26  1  0  0  0  0
  4 27  1  0  0  0  0
  5  8  1  0  0  0  0
  5 28  1  0  0  0  0
  5 29  1  0  0  0  0
  6  7  2  0  0  0  0
  7  9  1  0  0  0  0
  7 13  1  0  0  0  0
  8 10  1  0  0  0  0
  8 30  1  0  0  0  0
  8 31  1  0  0  0  0
  9 11  1  0  0  0  0
  9 32  1  0  0  0  0
  9 33  1  0  0  0  0
 10 34  1  0  0  0  0
 10 35  1  0  0  0  0
 11 36  1  0  0  0  0
 11 37  1  0  0  0  0
 12 17  2  0  0  0  0
 12 18  1  0  0  0  0
 13 14  1  0  0  0  0
 13 16  2  0  0  0  0
 14 19  2  0  0  0  0
 15 39  1  0  0  0  0
 15 40  1  0  0  0  0
 15 41  1  0  0  0  0
 16 20  1  0  0  0  0
 16 42  1  0  0  0  0
 17 22  1  0  0  0  0
 17 43  1  0  0  0  0
 18 23  2  0  0  0  0
 18 44  1  0  0  0  0
 19 21  1  0  0  0  0
 19 45  1  0  0  0  0
 20 21  2  0  0  0  0
 20 46  1  0  0  0  0
 21 47  1  0  0  0  0
 22 24  2  0  0  0  0
 22 48  1  0  0  0  0
 23 24  1  0  0  0  0
 23 49  1  0  0  0  0
 24 50  1  0  0  0  0
M  END
> <PUBCHEM_COMPOUND_CID>
11674133

> <PUBCHEM_COMPOUND_CANONICALIZED>
1

> <PUBCHEM_CACTVS_COMPLEXITY>
389

> <PUBCHEM_CACTVS_HBOND_ACCEPTOR>
1

> <PUBCHEM_CACTVS_HBOND_DONOR>
1

> <PUBCHEM_CACTVS_ROTATABLE_BOND>
1

> <PUBCHEM_CACTVS_SUBSKEYS>
AAADceB7AAAAAAAAAAAAAAAAAAAAAWAAAAAwYAAAAAAAAFix9AAAHAAQAAAADQjBHgQywPPJkACgAyRiRACCgCAhAiAImSA4ZJgIIOLAkZGEIAhgkADIyAcQgMAOgAAAAAACAAAAAAAAAAQAAAAAAAAAAA==

> <PUBCHEM_IUPAC_OPENEYE_NAME>
7-methyl-3-phenyl-7,17-diazatricyclo[8.7.0.011,16]heptadeca-1(10),11,13,15-tetraene

> <PUBCHEM_IUPAC_CAS_NAME>
7-methyl-3-phenyl-7,17-diazatricyclo[8.7.0.011,16]heptadeca-1(10),11,13,15-tetraene

> <PUBCHEM_IUPAC_NAME_MARKUP>
7-methyl-3-phenyl-7,17-diazatricyclo[8.7.0.0<SUP>11,16</SUP>]heptadeca-1(10),11,13,15-tetraene

> <PUBCHEM_IUPAC_NAME>
7-methyl-3-phenyl-7,17-diazatricyclo[8.7.0.011,16]heptadeca-1(10),11,13,15-tetraene

> <PUBCHEM_IUPAC_SYSTEMATIC_NAME>
7-methyl-3-phenyl-7,17-diazatricyclo[8.7.0.011,16]heptadeca-1(10),11,13,15-tetraene

> <PUBCHEM_IUPAC_TRADITIONAL_NAME>
7-methyl-3-phenyl-7,17-diazatricyclo[8.7.0.011,16]heptadeca-1(10),11,13,15-tetraene

> <PUBCHEM_IUPAC_INCHI>
InChI=1S/C22H26N2/c1-24-14-7-10-18(17-8-3-2-4-9-17)16-22-20(13-15-24)19-11-5-6-12-21(19)23-22/h2-6,8-9,11-12,18,23H,7,10,13-16H2,1H3

> <PUBCHEM_IUPAC_INCHIKEY>
FSJRHAHONPJFLQ-UHFFFAOYSA-N

> <PUBCHEM_XLOGP3_AA>
4.9

> <PUBCHEM_EXACT_MASS>
318.209598838

> <PUBCHEM_MOLECULAR_FORMULA>
C22H26N2

> <PUBCHEM_MOLECULAR_WEIGHT>
318.5

> <PUBCHEM_OPENEYE_CAN_SMILES>
CN1CCCC(CC2=C(CC1)C3=CC=CC=C3N2)C4=CC=CC=C4

> <PUBCHEM_OPENEYE_ISO_SMILES>
CN1CCCC(CC2=C(CC1)C3=CC=CC=C3N2)C4=CC=CC=C4

> <PUBCHEM_CACTVS_TPSA>
19

> <PUBCHEM_MONOISOTOPIC_WEIGHT>
318.209598838

> <PUBCHEM_TOTAL_CHARGE>
0

> <PUBCHEM_HEAVY_ATOM_COUNT>
24

> <PUBCHEM_ATOM_DEF_STEREO_COUNT>
0

> <PUBCHEM_ATOM_UDEF_STEREO_COUNT>
1

> <PUBCHEM_BOND_DEF_STEREO_COUNT>
0

> <PUBCHEM_BOND_UDEF_STEREO_COUNT>
0

> <PUBCHEM_ISOTOPIC_ATOM_COUNT>
0

> <PUBCHEM_COMPONENT_COUNT>
1

> <PUBCHEM_CACTVS_TAUTO_COUNT>
-1

> <PUBCHEM_COORDINATE_TYPE>
1
5
255

> <PUBCHEM_BONDANNOTATIONS>
12  17  8
12  18  8
13  14  8
13  16  8
14  19  8
16  20  8
17  22  8
18  23  8
19  21  8
2  14  8
2  6  8
20  21  8
22  24  8
23  24  8
3  12  3
6  7  8
7  13  8

$$$$
