44404443
  -OEChem-09292322262D

 58 62  0     1  0  0  0  0  0999 V2000
    4.9556   -4.6502    0.0000 S   0  0  0  0  0  0  0  0  0  0  0  0
    8.7323    2.4180    0.0000 O   0  0  0  0  0  0  0  0  0  0  0  0
    4.4033   -0.1265    0.0000 N   0  0  0  0  0  0  0  0  0  0  0  0
    4.4264   -2.1264    0.0000 N   0  0  0  0  0  0  0  0  0  0  0  0
    7.0003    2.4180    0.0000 N   0  0  0  0  0  0  0  0  0  0  0  0
    5.2494   -3.7006    0.0000 N   0  0  0  0  0  0  0  0  0  0  0  0
    3.5431   -0.6365    0.0000 C   0  0  0  0  0  0  0  0  0  0  0  0
    5.2750   -0.6165    0.0000 C   0  0  0  0  0  0  0  0  0  0  0  0
    4.3917    0.8734    0.0000 C   0  0  0  0  0  0  0  0  0  0  0  0
    3.5546   -1.6364    0.0000 C   0  0  0  0  0  0  0  0  0  0  0  0
    5.2866   -1.6164    0.0000 C   0  0  0  0  0  0  0  0  0  0  0  0
    5.2519    1.3834    0.0000 C   0  0  0  0  0  0  0  0  0  0  0  0
    7.0003    4.4180    0.0000 C   0  0  3  0  0  0  0  0  0  0  0  0
    6.1343    2.9180    0.0000 C   0  0  0  0  0  0  0  0  0  0  0  0
    5.2403    2.3834    0.0000 C   0  0  0  0  0  0  0  0  0  0  0  0
    6.1343    3.9180    0.0000 C   0  0  0  0  0  0  0  0  0  0  0  0
    7.8663    3.9180    0.0000 C   0  0  0  0  0  0  0  0  0  0  0  0
    4.4380   -3.1263    0.0000 C   0  0  0  0  0  0  0  0  0  0  0  0
    7.8663    2.9180    0.0000 C   0  0  0  0  0  0  0  0  0  0  0  0
    4.3342    2.8972    0.0000 C   0  0  0  0  0  0  0  0  0  0  0  0
    5.2403    4.4527    0.0000 C   0  0  0  0  0  0  0  0  0  0  0  0
    7.0003    5.4180    0.0000 C   0  0  0  0  0  0  0  0  0  0  0  0
    4.3342    3.9388    0.0000 C   0  0  0  0  0  0  0  0  0  0  0  0
    3.6400   -3.7192    0.0000 C   0  0  0  0  0  0  0  0  0  0  0  0
    7.0003    1.4180    0.0000 C   0  0  0  0  0  0  0  0  0  0  0  0
    3.9616   -4.6660    0.0000 C   0  0  0  0  0  0  0  0  0  0  0  0
    2.6592   -3.5243    0.0000 C   0  0  0  0  0  0  0  0  0  0  0  0
    3.3025   -5.4180    0.0000 C   0  0  0  0  0  0  0  0  0  0  0  0
    2.0000   -4.2763    0.0000 C   0  0  0  0  0  0  0  0  0  0  0  0
    2.3216   -5.2231    0.0000 C   0  0  0  0  0  0  0  0  0  0  0  0
    3.3243   -0.0564    0.0000 H   0  0  0  0  0  0  0  0  0  0  0  0
    2.9338   -0.7512    0.0000 H   0  0  0  0  0  0  0  0  0  0  0  0
    5.8868   -0.7170    0.0000 H   0  0  0  0  0  0  0  0  0  0  0  0
    5.4803   -0.0314    0.0000 H   0  0  0  0  0  0  0  0  0  0  0  0
    4.1729    1.4535    0.0000 H   0  0  0  0  0  0  0  0  0  0  0  0
    3.7824    0.7587    0.0000 H   0  0  0  0  0  0  0  0  0  0  0  0
    2.9428   -1.5358    0.0000 H   0  0  0  0  0  0  0  0  0  0  0  0
    3.3493   -2.2214    0.0000 H   0  0  0  0  0  0  0  0  0  0  0  0
    5.5054   -2.1965    0.0000 H   0  0  0  0  0  0  0  0  0  0  0  0
    5.8959   -1.5017    0.0000 H   0  0  0  0  0  0  0  0  0  0  0  0
    5.4707    0.8033    0.0000 H   0  0  0  0  0  0  0  0  0  0  0  0
    5.8612    1.4981    0.0000 H   0  0  0  0  0  0  0  0  0  0  0  0
    7.5372    4.7280    0.0000 H   0  0  0  0  0  0  0  0  0  0  0  0
    8.4769    3.8104    0.0000 H   0  0  0  0  0  0  0  0  0  0  0  0
    8.0784    4.5006    0.0000 H   0  0  0  0  0  0  0  0  0  0  0  0
    3.7985    2.5851    0.0000 H   0  0  0  0  0  0  0  0  0  0  0  0
    5.2475    5.0726    0.0000 H   0  0  0  0  0  0  0  0  0  0  0  0
    7.6203    5.4180    0.0000 H   0  0  0  0  0  0  0  0  0  0  0  0
    7.0003    6.0380    0.0000 H   0  0  0  0  0  0  0  0  0  0  0  0
    6.3803    5.4180    0.0000 H   0  0  0  0  0  0  0  0  0  0  0  0
    3.7985    4.2509    0.0000 H   0  0  0  0  0  0  0  0  0  0  0  0
    6.3803    1.4180    0.0000 H   0  0  0  0  0  0  0  0  0  0  0  0
    7.0003    0.7980    0.0000 H   0  0  0  0  0  0  0  0  0  0  0  0
    7.6203    1.4180    0.0000 H   0  0  0  0  0  0  0  0  0  0  0  0
    2.4598   -2.9372    0.0000 H   0  0  0  0  0  0  0  0  0  0  0  0
    3.5019   -6.0051    0.0000 H   0  0  0  0  0  0  0  0  0  0  0  0
    1.3919   -4.1554    0.0000 H   0  0  0  0  0  0  0  0  0  0  0  0
    1.9129   -5.6893    0.0000 H   0  0  0  0  0  0  0  0  0  0  0  0
  1  6  1  0  0  0  0
  1 26  1  0  0  0  0
  2 19  2  0  0  0  0
  3  7  1  0  0  0  0
  3  8  1  0  0  0  0
  3  9  1  0  0  0  0
  4 10  1  0  0  0  0
  4 11  1  0  0  0  0
  4 18  1  0  0  0  0
  5 14  1  0  0  0  0
  5 19  1  0  0  0  0
  5 25  1  0  0  0  0
  6 18  2  0  0  0  0
  7 10  1  0  0  0  0
  7 31  1  0  0  0  0
  7 32  1  0  0  0  0
  8 11  1  0  0  0  0
  8 33  1  0  0  0  0
  8 34  1  0  0  0  0
  9 12  1  0  0  0  0
  9 35  1  0  0  0  0
  9 36  1  0  0  0  0
 10 37  1  0  0  0  0
 10 38  1  0  0  0  0
 11 39  1  0  0  0  0
 11 40  1  0  0  0  0
 12 15  1  0  0  0  0
 12 41  1  0  0  0  0
 12 42  1  0  0  0  0
 13 16  1  0  0  0  0
 13 17  1  0  0  0  0
 13 22  1  0  0  0  0
 13 43  1  0  0  0  0
 14 15  2  0  0  0  0
 14 16  1  0  0  0  0
 15 20  1  0  0  0  0
 16 21  2  0  0  0  0
 17 19  1  0  0  0  0
 17 44  1  0  0  0  0
 17 45  1  0  0  0  0
 18 24  1  0  0  0  0
 20 23  2  0  0  0  0
 20 46  1  0  0  0  0
 21 23  1  0  0  0  0
 21 47  1  0  0  0  0
 22 48  1  0  0  0  0
 22 49  1  0  0  0  0
 22 50  1  0  0  0  0
 23 51  1  0  0  0  0
 24 26  1  0  0  0  0
 24 27  2  0  0  0  0
 25 52  1  0  0  0  0
 25 53  1  0  0  0  0
 25 54  1  0  0  0  0
 26 28  2  0  0  0  0
 27 29  1  0  0  0  0
 27 55  1  0  0  0  0
 28 30  1  0  0  0  0
 28 56  1  0  0  0  0
 29 30  2  0  0  0  0
 29 57  1  0  0  0  0
 30 58  1  0  0  0  0
M  END
> <PUBCHEM_COMPOUND_CID>
44404443

> <PUBCHEM_COMPOUND_CANONICALIZED>
1

> <PUBCHEM_CACTVS_COMPLEXITY>
610

> <PUBCHEM_CACTVS_HBOND_ACCEPTOR>
5

> <PUBCHEM_CACTVS_HBOND_DONOR>
0

> <PUBCHEM_CACTVS_ROTATABLE_BOND>
4

> <PUBCHEM_CACTVS_SUBSKEYS>
AAADceB7oABAAAAAAAAAAAAAAAAAAWAAAAA8eIEAAAAAAFix9AAAHgQAQAAADQjB2gQz8dMAAACsAidycACDABAhAABJmDkoRJiIYLLAmZGUIAxghgLIyAcYicCegAACAAAGAAAAAAQAAAwAAAAAAAAAAA==

> <PUBCHEM_IUPAC_OPENEYE_NAME>
8-[2-[4-(1,2-benzothiazol-3-yl)piperazin-1-yl]ethyl]-1,4-dimethyl-3,4-dihydroquinolin-2-one

> <PUBCHEM_IUPAC_CAS_NAME>
8-[2-[4-(1,2-benzothiazol-3-yl)-1-piperazinyl]ethyl]-1,4-dimethyl-3,4-dihydroquinolin-2-one

> <PUBCHEM_IUPAC_NAME_MARKUP>
8-[2-[4-(1,2-benzothiazol-3-yl)piperazin-1-yl]ethyl]-1,4-dimethyl-3,4-dihydroquinolin-2-one

> <PUBCHEM_IUPAC_NAME>
8-[2-[4-(1,2-benzothiazol-3-yl)piperazin-1-yl]ethyl]-1,4-dimethyl-3,4-dihydroquinolin-2-one

> <PUBCHEM_IUPAC_SYSTEMATIC_NAME>
8-[2-[4-(1,2-benzothiazol-3-yl)piperazin-1-yl]ethyl]-1,4-dimethyl-3,4-dihydroquinolin-2-one

> <PUBCHEM_IUPAC_TRADITIONAL_NAME>
8-[2-[4-(1,2-benzothiazol-3-yl)piperazino]ethyl]-1,4-dimethyl-3,4-dihydrocarbostyril

> <PUBCHEM_IUPAC_INCHI>
InChI=1S/C24H28N4OS/c1-17-16-22(29)26(2)23-18(6-5-8-19(17)23)10-11-27-12-14-28(15-13-27)24-20-7-3-4-9-21(20)30-25-24/h3-9,17H,10-16H2,1-2H3

> <PUBCHEM_IUPAC_INCHIKEY>
XMEJLZITUOYZLM-UHFFFAOYSA-N

> <PUBCHEM_XLOGP3_AA>
4.2

> <PUBCHEM_EXACT_MASS>
420.19838270

> <PUBCHEM_MOLECULAR_FORMULA>
C24H28N4OS

> <PUBCHEM_MOLECULAR_WEIGHT>
420.6

> <PUBCHEM_OPENEYE_CAN_SMILES>
CC1CC(=O)N(C2=C(C=CC=C12)CCN3CCN(CC3)C4=NSC5=CC=CC=C54)C

> <PUBCHEM_OPENEYE_ISO_SMILES>
CC1CC(=O)N(C2=C(C=CC=C12)CCN3CCN(CC3)C4=NSC5=CC=CC=C54)C

> <PUBCHEM_CACTVS_TPSA>
67.9

> <PUBCHEM_MONOISOTOPIC_WEIGHT>
420.19838270

> <PUBCHEM_TOTAL_CHARGE>
0

> <PUBCHEM_HEAVY_ATOM_COUNT>
30

> <PUBCHEM_ATOM_DEF_STEREO_COUNT>
0

> <PUBCHEM_ATOM_UDEF_STEREO_COUNT>
1

> <PUBCHEM_BOND_DEF_STEREO_COUNT>
0

> <PUBCHEM_BOND_UDEF_STEREO_COUNT>
0

> <PUBCHEM_ISOTOPIC_ATOM_COUNT>
0

> <PUBCHEM_COMPONENT_COUNT>
1

> <PUBCHEM_CACTVS_TAUTO_COUNT>
-1

> <PUBCHEM_COORDINATE_TYPE>
1
5
255

> <PUBCHEM_BONDANNOTATIONS>
1  26  8
1  6  8
13  22  3
14  15  8
14  16  8
15  20  8
16  21  8
18  24  8
20  23  8
21  23  8
24  26  8
24  27  8
26  28  8
27  29  8
28  30  8
29  30  8
6  18  8

$$$$
