44340694
  -OEChem-09292322212D

 67 70  0     1  0  0  0  0  0999 V2000
    6.9821   -3.3078    0.0000 S   0  0  0  0  0  0  0  0  0  0  0  0
    9.3332   -0.0718    0.0000 O   0  0  0  0  0  0  0  0  0  0  0  0
    7.7911   -3.8956    0.0000 O   0  0  0  0  0  0  0  0  0  0  0  0
    6.1731   -2.7200    0.0000 O   0  0  0  0  0  0  0  0  0  0  0  0
    5.3955    2.8397    0.0000 N   0  0  3  0  0  0  0  0  0  0  0  0
    6.3661    0.3452    0.0000 N   0  0  0  0  0  0  0  0  0  0  0  0
    4.4945    3.2736    0.0000 C   0  0  3  0  0  0  0  0  0  0  0  0
    4.2720    4.2486    0.0000 C   0  0  0  0  0  0  0  0  0  0  0  0
    6.2965    3.2736    0.0000 C   0  0  0  0  0  0  0  0  0  0  0  0
    4.8955    5.0304    0.0000 C   0  0  0  0  0  0  0  0  0  0  0  0
    6.5190    4.2486    0.0000 C   0  0  0  0  0  0  0  0  0  0  0  0
    5.8955    5.0304    0.0000 C   0  0  0  0  0  0  0  0  0  0  0  0
    5.3955    1.8397    0.0000 C   0  0  0  0  0  0  0  0  0  0  0  0
    3.7127    2.6501    0.0000 C   0  0  0  0  0  0  0  0  0  0  0  0
    6.2615    1.3397    0.0000 C   0  0  0  0  0  0  0  0  0  0  0  0
    2.7818    3.0155    0.0000 C   0  0  0  0  0  0  0  0  0  0  0  0
    3.8618    1.6613    0.0000 C   0  0  0  0  0  0  0  0  0  0  0  0
    7.1751    1.7465    0.0000 C   0  0  0  0  0  0  0  0  0  0  0  0
    2.0000    2.3920    0.0000 C   0  0  0  0  0  0  0  0  0  0  0  0
    7.3442    0.1373    0.0000 C   0  0  0  0  0  0  0  0  0  0  0  0
    2.6328    4.0043    0.0000 C   0  0  0  0  0  0  0  0  0  0  0  0
    3.0799    1.0378    0.0000 C   0  0  0  0  0  0  0  0  0  0  0  0
    7.8442    1.0033    0.0000 C   0  0  0  0  0  0  0  0  0  0  0  0
    2.1490    1.4031    0.0000 C   0  0  0  0  0  0  0  0  0  0  0  0
    7.7509   -0.7762    0.0000 C   0  0  0  0  0  0  0  0  0  0  0  0
    7.1632   -1.5853    0.0000 C   0  0  0  0  0  0  0  0  0  0  0  0
    8.7455   -0.8808    0.0000 C   0  0  0  0  0  0  0  0  0  0  0  0
    7.5699   -2.4988    0.0000 C   0  0  0  0  0  0  0  0  0  0  0  0
    9.1522   -1.7943    0.0000 C   0  0  0  0  0  0  0  0  0  0  0  0
    8.5644   -2.6033    0.0000 C   0  0  0  0  0  0  0  0  0  0  0  0
    6.3943   -4.1168    0.0000 C   0  0  0  0  0  0  0  0  0  0  0  0
    6.8011   -5.0304    0.0000 C   0  0  0  0  0  0  0  0  0  0  0  0
   10.3278   -0.1763    0.0000 C   0  0  0  0  0  0  0  0  0  0  0  0
    4.5640    2.6575    0.0000 H   0  0  0  0  0  0  0  0  0  0  0  0
    3.8854    4.7333    0.0000 H   0  0  0  0  0  0  0  0  0  0  0  0
    3.7134    3.9795    0.0000 H   0  0  0  0  0  0  0  0  0  0  0  0
    6.4344    2.6692    0.0000 H   0  0  0  0  0  0  0  0  0  0  0  0
    6.9165    3.2736    0.0000 H   0  0  0  0  0  0  0  0  0  0  0  0
    5.0335    5.6348    0.0000 H   0  0  0  0  0  0  0  0  0  0  0  0
    4.3369    5.2994    0.0000 H   0  0  0  0  0  0  0  0  0  0  0  0
    7.0776    3.9795    0.0000 H   0  0  0  0  0  0  0  0  0  0  0  0
    6.9056    4.7333    0.0000 H   0  0  0  0  0  0  0  0  0  0  0  0
    6.4541    5.2994    0.0000 H   0  0  0  0  0  0  0  0  0  0  0  0
    5.7575    5.6348    0.0000 H   0  0  0  0  0  0  0  0  0  0  0  0
    4.7849    1.9474    0.0000 H   0  0  0  0  0  0  0  0  0  0  0  0
    5.1834    1.2571    0.0000 H   0  0  0  0  0  0  0  0  0  0  0  0
    4.4389    1.4348    0.0000 H   0  0  0  0  0  0  0  0  0  0  0  0
    5.9053   -0.0696    0.0000 H   0  0  0  0  0  0  0  0  0  0  0  0
    7.3040    2.3529    0.0000 H   0  0  0  0  0  0  0  0  0  0  0  0
    1.4229    2.6185    0.0000 H   0  0  0  0  0  0  0  0  0  0  0  0
    3.2459    4.0967    0.0000 H   0  0  0  0  0  0  0  0  0  0  0  0
    2.5404    4.6174    0.0000 H   0  0  0  0  0  0  0  0  0  0  0  0
    2.0197    3.9119    0.0000 H   0  0  0  0  0  0  0  0  0  0  0  0
    3.1723    0.4247    0.0000 H   0  0  0  0  0  0  0  0  0  0  0  0
    8.4608    1.0681    0.0000 H   0  0  0  0  0  0  0  0  0  0  0  0
    1.6643    1.0166    0.0000 H   0  0  0  0  0  0  0  0  0  0  0  0
    6.5466   -1.5204    0.0000 H   0  0  0  0  0  0  0  0  0  0  0  0
    9.7688   -1.8591    0.0000 H   0  0  0  0  0  0  0  0  0  0  0  0
    8.8166   -3.1697    0.0000 H   0  0  0  0  0  0  0  0  0  0  0  0
    5.9636   -3.6708    0.0000 H   0  0  0  0  0  0  0  0  0  0  0  0
    5.8803   -4.4635    0.0000 H   0  0  0  0  0  0  0  0  0  0  0  0
    6.2347   -5.2826    0.0000 H   0  0  0  0  0  0  0  0  0  0  0  0
    7.0532   -5.5968    0.0000 H   0  0  0  0  0  0  0  0  0  0  0  0
    7.3675   -4.7782    0.0000 H   0  0  0  0  0  0  0  0  0  0  0  0
   10.2630   -0.7929    0.0000 H   0  0  0  0  0  0  0  0  0  0  0  0
   10.9444   -0.2411    0.0000 H   0  0  0  0  0  0  0  0  0  0  0  0
   10.3926    0.4403    0.0000 H   0  0  0  0  0  0  0  0  0  0  0  0
  1  3  2  0  0  0  0
  1  4  2  0  0  0  0
  1 28  1  0  0  0  0
  1 31  1  0  0  0  0
  2 27  1  0  0  0  0
  2 33  1  0  0  0  0
  5  7  1  0  0  0  0
  5  9  1  0  0  0  0
  5 13  1  0  0  0  0
  6 15  1  0  0  0  0
  6 20  1  0  0  0  0
  6 48  1  0  0  0  0
  7  8  1  0  0  0  0
  7 14  1  0  0  0  0
  7 34  1  0  0  0  0
  8 10  1  0  0  0  0
  8 35  1  0  0  0  0
  8 36  1  0  0  0  0
  9 11  1  0  0  0  0
  9 37  1  0  0  0  0
  9 38  1  0  0  0  0
 10 12  1  0  0  0  0
 10 39  1  0  0  0  0
 10 40  1  0  0  0  0
 11 12  1  0  0  0  0
 11 41  1  0  0  0  0
 11 42  1  0  0  0  0
 12 43  1  0  0  0  0
 12 44  1  0  0  0  0
 13 15  1  0  0  0  0
 13 45  1  0  0  0  0
 13 46  1  0  0  0  0
 14 16  1  0  0  0  0
 14 17  2  0  0  0  0
 15 18  2  0  0  0  0
 16 19  2  0  0  0  0
 16 21  1  0  0  0  0
 17 22  1  0  0  0  0
 17 47  1  0  0  0  0
 18 23  1  0  0  0  0
 18 49  1  0  0  0  0
 19 24  1  0  0  0  0
 19 50  1  0  0  0  0
 20 23  2  0  0  0  0
 20 25  1  0  0  0  0
 21 51  1  0  0  0  0
 21 52  1  0  0  0  0
 21 53  1  0  0  0  0
 22 24  2  0  0  0  0
 22 54  1  0  0  0  0
 23 55  1  0  0  0  0
 24 56  1  0  0  0  0
 25 26  1  0  0  0  0
 25 27  2  0  0  0  0
 26 28  2  0  0  0  0
 26 57  1  0  0  0  0
 27 29  1  0  0  0  0
 28 30  1  0  0  0  0
 29 30  2  0  0  0  0
 29 58  1  0  0  0  0
 30 59  1  0  0  0  0
 31 32  1  0  0  0  0
 31 60  1  0  0  0  0
 31 61  1  0  0  0  0
 32 62  1  0  0  0  0
 32 63  1  0  0  0  0
 32 64  1  0  0  0  0
 33 65  1  0  0  0  0
 33 66  1  0  0  0  0
 33 67  1  0  0  0  0
M  END
> <PUBCHEM_COMPOUND_CID>
44340694

> <PUBCHEM_COMPOUND_CANONICALIZED>
1

> <PUBCHEM_CACTVS_COMPLEXITY>
709

> <PUBCHEM_CACTVS_HBOND_ACCEPTOR>
4

> <PUBCHEM_CACTVS_HBOND_DONOR>
1

> <PUBCHEM_CACTVS_ROTATABLE_BOND>
7

> <PUBCHEM_CACTVS_SUBSKEYS>
AAADcfB7MABAAAAAAAAAAAAAAAAAAWAAAAAwYAAABYAAAAAB0AAAHgQQAAAADCzF3gayh5PJlAqgAyRiRHDCiCAhKjAImTg+bJgMZuLksZuUMChm0BHo6AeQwOAOgIAAgAAYAAABAAEAADAAAAAAAAAAAA==

> <PUBCHEM_IUPAC_OPENEYE_NAME>
1-[[5-(5-ethylsulfonyl-2-methoxy-phenyl)-1H-pyrrol-2-yl]methyl]-2-(o-tolyl)azepane

> <PUBCHEM_IUPAC_CAS_NAME>
1-[[5-(5-ethylsulfonyl-2-methoxyphenyl)-1H-pyrrol-2-yl]methyl]-2-(2-methylphenyl)azepane

> <PUBCHEM_IUPAC_NAME_MARKUP>
1-[[5-(5-ethylsulfonyl-2-methoxyphenyl)-1<I>H</I>-pyrrol-2-yl]methyl]-2-(2-methylphenyl)azepane

> <PUBCHEM_IUPAC_NAME>
1-[[5-(5-ethylsulfonyl-2-methoxyphenyl)-1H-pyrrol-2-yl]methyl]-2-(2-methylphenyl)azepane

> <PUBCHEM_IUPAC_SYSTEMATIC_NAME>
1-[[5-(5-ethylsulfonyl-2-methoxy-phenyl)-1H-pyrrol-2-yl]methyl]-2-(2-methylphenyl)azepane

> <PUBCHEM_IUPAC_TRADITIONAL_NAME>
1-[[5-(5-esyl-2-methoxy-phenyl)-1H-pyrrol-2-yl]methyl]-2-(o-tolyl)azepane

> <PUBCHEM_IUPAC_INCHI>
InChI=1S/C27H34N2O3S/c1-4-33(30,31)22-14-16-27(32-3)24(18-22)25-15-13-21(28-25)19-29-17-9-5-6-12-26(29)23-11-8-7-10-20(23)2/h7-8,10-11,13-16,18,26,28H,4-6,9,12,17,19H2,1-3H3

> <PUBCHEM_IUPAC_INCHIKEY>
DLNZFPDQXJEXTN-UHFFFAOYSA-N

> <PUBCHEM_XLOGP3_AA>
4.9

> <PUBCHEM_EXACT_MASS>
466.22901412

> <PUBCHEM_MOLECULAR_FORMULA>
C27H34N2O3S

> <PUBCHEM_MOLECULAR_WEIGHT>
466.6

> <PUBCHEM_OPENEYE_CAN_SMILES>
CCS(=O)(=O)C1=CC(=C(C=C1)OC)C2=CC=C(N2)CN3CCCCCC3C4=CC=CC=C4C

> <PUBCHEM_OPENEYE_ISO_SMILES>
CCS(=O)(=O)C1=CC(=C(C=C1)OC)C2=CC=C(N2)CN3CCCCCC3C4=CC=CC=C4C

> <PUBCHEM_CACTVS_TPSA>
70.8

> <PUBCHEM_MONOISOTOPIC_WEIGHT>
466.22901412

> <PUBCHEM_TOTAL_CHARGE>
0

> <PUBCHEM_HEAVY_ATOM_COUNT>
33

> <PUBCHEM_ATOM_DEF_STEREO_COUNT>
0

> <PUBCHEM_ATOM_UDEF_STEREO_COUNT>
1

> <PUBCHEM_BOND_DEF_STEREO_COUNT>
0

> <PUBCHEM_BOND_UDEF_STEREO_COUNT>
0

> <PUBCHEM_ISOTOPIC_ATOM_COUNT>
0

> <PUBCHEM_COMPONENT_COUNT>
1

> <PUBCHEM_CACTVS_TAUTO_COUNT>
-1

> <PUBCHEM_COORDINATE_TYPE>
1
5
255

> <PUBCHEM_BONDANNOTATIONS>
14  16  8
14  17  8
15  18  8
16  19  8
17  22  8
18  23  8
19  24  8
20  23  8
22  24  8
25  26  8
25  27  8
26  28  8
27  29  8
28  30  8
29  30  8
6  15  8
6  20  8
7  14  3

$$$$
