136043856
  -OEChem-09292322282D

 52 56  0     0  0  0  0  0  0999 V2000
    8.7204   -2.9128    0.0000 Cl  0  0  0  0  0  0  0  0  0  0  0  0
    4.6419    1.4053    0.0000 F   0  0  0  0  0  0  0  0  0  0  0  0
    4.9008    4.8597    0.0000 F   0  0  0  0  0  0  0  0  0  0  0  0
    3.0814    0.6538    0.0000 N   0  0  0  0  0  0  0  0  0  0  0  0
    3.9491   -1.1481    0.0000 N   0  0  0  0  0  0  0  0  0  0  0  0
    5.3830   -2.0491    0.0000 N   0  0  0  0  0  0  0  0  0  0  0  0
    4.8830   -4.2397    0.0000 N   0  0  0  0  0  0  0  0  0  0  0  0
    2.5180   -0.1724    0.0000 C   0  0  0  0  0  0  0  0  0  0  0  0
    4.0786    0.5791    0.0000 C   0  0  0  0  0  0  0  0  0  0  0  0
    2.9519   -1.0734    0.0000 C   0  0  0  0  0  0  0  0  0  0  0  0
    4.5125   -0.3219    0.0000 C   0  0  0  0  0  0  0  0  0  0  0  0
    2.6475    1.5548    0.0000 C   0  0  0  0  0  0  0  0  0  0  0  0
    4.3830   -2.0491    0.0000 C   0  0  0  0  0  0  0  0  0  0  0  0
    3.7595   -2.8309    0.0000 C   0  0  0  0  0  0  0  0  0  0  0  0
    3.2108    2.3810    0.0000 C   0  0  0  0  0  0  0  0  0  0  0  0
    3.9820   -3.8058    0.0000 C   0  0  0  0  0  0  0  0  0  0  0  0
    6.0065   -2.8309    0.0000 C   0  0  0  0  0  0  0  0  0  0  0  0
    2.7690   -2.5086    0.0000 C   0  0  0  0  0  0  0  0  0  0  0  0
    5.7840   -3.8059    0.0000 C   0  0  0  0  0  0  0  0  0  0  0  0
    4.2080    2.3063    0.0000 C   0  0  0  0  0  0  0  0  0  0  0  0
    2.7769    3.2820    0.0000 C   0  0  0  0  0  0  0  0  0  0  0  0
    3.2295   -4.5260    0.0000 C   0  0  0  0  0  0  0  0  0  0  0  0
    2.0000   -3.2112    0.0000 C   0  0  0  0  0  0  0  0  0  0  0  0
    2.2318   -4.2267    0.0000 C   0  0  0  0  0  0  0  0  0  0  0  0
    6.9970   -2.5086    0.0000 C   0  0  0  0  0  0  0  0  0  0  0  0
    4.7714    3.1325    0.0000 C   0  0  0  0  0  0  0  0  0  0  0  0
    3.3403    4.1082    0.0000 C   0  0  0  0  0  0  0  0  0  0  0  0
    6.5365   -4.5260    0.0000 C   0  0  0  0  0  0  0  0  0  0  0  0
    4.3375    4.0335    0.0000 C   0  0  0  0  0  0  0  0  0  0  0  0
    7.7660   -3.2112    0.0000 C   0  0  0  0  0  0  0  0  0  0  0  0
    7.5342   -4.2267    0.0000 C   0  0  0  0  0  0  0  0  0  0  0  0
    2.0742    0.2605    0.0000 H   0  0  0  0  0  0  0  0  0  0  0  0
    2.0146   -0.5343    0.0000 H   0  0  0  0  0  0  0  0  0  0  0  0
    4.6754    0.7470    0.0000 H   0  0  0  0  0  0  0  0  0  0  0  0
    4.0168    1.1960    0.0000 H   0  0  0  0  0  0  0  0  0  0  0  0
    2.3551   -1.2413    0.0000 H   0  0  0  0  0  0  0  0  0  0  0  0
    3.0137   -1.6903    0.0000 H   0  0  0  0  0  0  0  0  0  0  0  0
    4.9563   -0.7548    0.0000 H   0  0  0  0  0  0  0  0  0  0  0  0
    5.0159    0.0400    0.0000 H   0  0  0  0  0  0  0  0  0  0  0  0
    2.2037    1.9877    0.0000 H   0  0  0  0  0  0  0  0  0  0  0  0
    2.1441    1.1929    0.0000 H   0  0  0  0  0  0  0  0  0  0  0  0
    2.6380   -1.9026    0.0000 H   0  0  0  0  0  0  0  0  0  0  0  0
    4.8830   -4.8597    0.0000 H   0  0  0  0  0  0  0  0  0  0  0  0
    2.1587    3.3283    0.0000 H   0  0  0  0  0  0  0  0  0  0  0  0
    3.3744   -5.1288    0.0000 H   0  0  0  0  0  0  0  0  0  0  0  0
    1.4083   -3.0261    0.0000 H   0  0  0  0  0  0  0  0  0  0  0  0
    1.7789   -4.6501    0.0000 H   0  0  0  0  0  0  0  0  0  0  0  0
    7.1280   -1.9026    0.0000 H   0  0  0  0  0  0  0  0  0  0  0  0
    5.3896    3.0862    0.0000 H   0  0  0  0  0  0  0  0  0  0  0  0
    3.0713    4.6668    0.0000 H   0  0  0  0  0  0  0  0  0  0  0  0
    6.3916   -5.1289    0.0000 H   0  0  0  0  0  0  0  0  0  0  0  0
    7.9871   -4.6502    0.0000 H   0  0  0  0  0  0  0  0  0  0  0  0
  1 30  1  0  0  0  0
  2 20  1  0  0  0  0
  3 29  1  0  0  0  0
  4  8  1  0  0  0  0
  4  9  1  0  0  0  0
  4 12  1  0  0  0  0
  5 10  1  0  0  0  0
  5 11  1  0  0  0  0
  5 13  1  0  0  0  0
  6 13  2  0  0  0  0
  6 17  1  0  0  0  0
  7 16  1  0  0  0  0
  7 19  1  0  0  0  0
  7 43  1  0  0  0  0
  8 10  1  0  0  0  0
  8 32  1  0  0  0  0
  8 33  1  0  0  0  0
  9 11  1  0  0  0  0
  9 34  1  0  0  0  0
  9 35  1  0  0  0  0
 10 36  1  0  0  0  0
 10 37  1  0  0  0  0
 11 38  1  0  0  0  0
 11 39  1  0  0  0  0
 12 15  1  0  0  0  0
 12 40  1  0  0  0  0
 12 41  1  0  0  0  0
 13 14  1  0  0  0  0
 14 16  1  0  0  0  0
 14 18  2  0  0  0  0
 15 20  2  0  0  0  0
 15 21  1  0  0  0  0
 16 22  2  0  0  0  0
 17 19  2  0  0  0  0
 17 25  1  0  0  0  0
 18 23  1  0  0  0  0
 18 42  1  0  0  0  0
 19 28  1  0  0  0  0
 20 26  1  0  0  0  0
 21 27  2  0  0  0  0
 21 44  1  0  0  0  0
 22 24  1  0  0  0  0
 22 45  1  0  0  0  0
 23 24  2  0  0  0  0
 23 46  1  0  0  0  0
 24 47  1  0  0  0  0
 25 30  2  0  0  0  0
 25 48  1  0  0  0  0
 26 29  2  0  0  0  0
 26 49  1  0  0  0  0
 27 29  1  0  0  0  0
 27 50  1  0  0  0  0
 28 31  2  0  0  0  0
 28 51  1  0  0  0  0
 30 31  1  0  0  0  0
 31 52  1  0  0  0  0
M  END
> <PUBCHEM_COMPOUND_CID>
136043856

> <PUBCHEM_COMPOUND_CANONICALIZED>
1

> <PUBCHEM_CACTVS_COMPLEXITY>
641

> <PUBCHEM_CACTVS_HBOND_ACCEPTOR>
5

> <PUBCHEM_CACTVS_HBOND_DONOR>
1

> <PUBCHEM_CACTVS_ROTATABLE_BOND>
3

> <PUBCHEM_CACTVS_SUBSKEYS>
AAADceB7gYAEAAAAAAAAAAAAAAAAAAAAAAA8YMEABAAAAAABUAAAHQIQAAAADArBGCwxwIPAAACgAiZiZACCAAEhBwAJiAAodpgIYOLB25GUIAhgkADIyAcQgAAOAABAAAICACAAAIAABAQAQAAAAAAAAA==

> <PUBCHEM_IUPAC_OPENEYE_NAME>
3-chloro-6-[4-[(2,4-difluorophenyl)methyl]piperazin-1-yl]-11H-benzo[b][1,4]benzodiazepine

> <PUBCHEM_IUPAC_CAS_NAME>
3-chloro-6-[4-[(2,4-difluorophenyl)methyl]-1-piperazinyl]-11H-benzo[b][1,4]benzodiazepine

> <PUBCHEM_IUPAC_NAME_MARKUP>
3-chloro-6-[4-[(2,4-difluorophenyl)methyl]piperazin-1-yl]-11<I>H</I>-benzo[b][1,4]benzodiazepine

> <PUBCHEM_IUPAC_NAME>
3-chloro-6-[4-[(2,4-difluorophenyl)methyl]piperazin-1-yl]-11H-benzo[b][1,4]benzodiazepine

> <PUBCHEM_IUPAC_SYSTEMATIC_NAME>
6-[4-[[2,4-bis(fluoranyl)phenyl]methyl]piperazin-1-yl]-3-chloranyl-11H-benzo[b][1,4]benzodiazepine

> <PUBCHEM_IUPAC_TRADITIONAL_NAME>
3-chloro-6-[4-(2,4-difluorobenzyl)piperazino]-11H-benzo[b][1,4]benzodiazepine

> <PUBCHEM_IUPAC_INCHI>
InChI=1S/C24H21ClF2N4/c25-17-6-8-22-23(13-17)29-24(19-3-1-2-4-21(19)28-22)31-11-9-30(10-12-31)15-16-5-7-18(26)14-20(16)27/h1-8,13-14,28H,9-12,15H2

> <PUBCHEM_IUPAC_INCHIKEY>
IOUMPQDJIZFQOW-UHFFFAOYSA-N

> <PUBCHEM_XLOGP3_AA>
4.8

> <PUBCHEM_EXACT_MASS>
438.1422807

> <PUBCHEM_MOLECULAR_FORMULA>
C24H21ClF2N4

> <PUBCHEM_MOLECULAR_WEIGHT>
438.9

> <PUBCHEM_OPENEYE_CAN_SMILES>
C1CN(CCN1CC2=C(C=C(C=C2)F)F)C3=NC4=C(C=CC(=C4)Cl)NC5=CC=CC=C53

> <PUBCHEM_OPENEYE_ISO_SMILES>
C1CN(CCN1CC2=C(C=C(C=C2)F)F)C3=NC4=C(C=CC(=C4)Cl)NC5=CC=CC=C53

> <PUBCHEM_CACTVS_TPSA>
30.9

> <PUBCHEM_MONOISOTOPIC_WEIGHT>
438.1422807

> <PUBCHEM_TOTAL_CHARGE>
0

> <PUBCHEM_HEAVY_ATOM_COUNT>
31

> <PUBCHEM_ATOM_DEF_STEREO_COUNT>
0

> <PUBCHEM_ATOM_UDEF_STEREO_COUNT>
0

> <PUBCHEM_BOND_DEF_STEREO_COUNT>
0

> <PUBCHEM_BOND_UDEF_STEREO_COUNT>
0

> <PUBCHEM_ISOTOPIC_ATOM_COUNT>
0

> <PUBCHEM_COMPONENT_COUNT>
1

> <PUBCHEM_CACTVS_TAUTO_COUNT>
-1

> <PUBCHEM_COORDINATE_TYPE>
1
5
255

> <PUBCHEM_BONDANNOTATIONS>
14  16  8
14  18  8
15  20  8
15  21  8
16  22  8
17  19  8
17  25  8
18  23  8
19  28  8
20  26  8
21  27  8
22  24  8
23  24  8
25  30  8
26  29  8
27  29  8
28  31  8
30  31  8

$$$$
