44438222
  -OEChem-09292321592D

 45 48  0     0  0  0  0  0  0999 V2000
   10.9017    3.2197    0.0000 Cl  0  0  0  0  0  0  0  0  0  0  0  0
    5.9674    0.1359    0.0000 N   0  0  0  0  0  0  0  0  0  0  0  0
    4.6783   -2.6304    0.0000 N   0  0  0  0  0  0  0  0  0  0  0  0
    9.8255   -0.0730    0.0000 N   0  0  0  0  0  0  0  0  0  0  0  0
    7.9244    0.5483    0.0000 C   0  0  0  0  0  0  0  0  0  0  0  0
    7.2566    1.2926    0.0000 C   0  0  0  0  0  0  0  0  0  0  0  0
    7.6138   -0.4022    0.0000 C   0  0  0  0  0  0  0  0  0  0  0  0
    6.2781    1.0864    0.0000 C   0  0  0  0  0  0  0  0  0  0  0  0
    6.6353   -0.6084    0.0000 C   0  0  0  0  0  0  0  0  0  0  0  0
    4.9889   -0.0704    0.0000 C   0  0  0  0  0  0  0  0  0  0  0  0
    8.6688    1.2161    0.0000 C   0  0  0  0  0  0  0  0  0  0  0  0
    4.6783   -1.0209    0.0000 C   0  0  0  0  0  0  0  0  0  0  0  0
    8.8750    0.2376    0.0000 C   0  0  0  0  0  0  0  0  0  0  0  0
    9.6193    0.9055    0.0000 C   0  0  0  0  0  0  0  0  0  0  0  0
    8.4625    2.1946    0.0000 C   0  0  0  0  0  0  0  0  0  0  0  0
    3.7320   -1.3256    0.0000 C   0  0  0  0  0  0  0  0  0  0  0  0
    5.2619   -1.8256    0.0000 C   0  0  0  0  0  0  0  0  0  0  0  0
    3.7320   -2.3256    0.0000 C   0  0  0  0  0  0  0  0  0  0  0  0
   10.3636    1.5733    0.0000 C   0  0  0  0  0  0  0  0  0  0  0  0
    9.2068    2.8625    0.0000 C   0  0  0  0  0  0  0  0  0  0  0  0
    2.8660   -0.8256    0.0000 C   0  0  0  0  0  0  0  0  0  0  0  0
   10.1574    2.5518    0.0000 C   0  0  0  0  0  0  0  0  0  0  0  0
    2.8660   -2.8256    0.0000 C   0  0  0  0  0  0  0  0  0  0  0  0
    2.0000   -1.3256    0.0000 C   0  0  0  0  0  0  0  0  0  0  0  0
    2.0000   -2.3256    0.0000 C   0  0  0  0  0  0  0  0  0  0  0  0
    7.7830    1.6202    0.0000 H   0  0  0  0  0  0  0  0  0  0  0  0
    7.0254    1.8678    0.0000 H   0  0  0  0  0  0  0  0  0  0  0  0
    7.6344   -1.0219    0.0000 H   0  0  0  0  0  0  0  0  0  0  0  0
    8.2276   -0.4896    0.0000 H   0  0  0  0  0  0  0  0  0  0  0  0
    6.2575    1.7060    0.0000 H   0  0  0  0  0  0  0  0  0  0  0  0
    5.6643    1.1737    0.0000 H   0  0  0  0  0  0  0  0  0  0  0  0
    6.1089   -0.9361    0.0000 H   0  0  0  0  0  0  0  0  0  0  0  0
    6.8665   -1.1837    0.0000 H   0  0  0  0  0  0  0  0  0  0  0  0
    4.9684    0.5493    0.0000 H   0  0  0  0  0  0  0  0  0  0  0  0
    4.3751    0.0170    0.0000 H   0  0  0  0  0  0  0  0  0  0  0  0
    9.7471    0.2988    0.0000 H   0  0  0  0  0  0  0  0  0  0  0  0
    7.8732    2.3872    0.0000 H   0  0  0  0  0  0  0  0  0  0  0  0
    5.8819   -1.8256    0.0000 H   0  0  0  0  0  0  0  0  0  0  0  0
    4.8709   -3.2197    0.0000 H   0  0  0  0  0  0  0  0  0  0  0  0
   10.9529    1.3807    0.0000 H   0  0  0  0  0  0  0  0  0  0  0  0
    9.0790    3.4692    0.0000 H   0  0  0  0  0  0  0  0  0  0  0  0
    2.8660   -0.2056    0.0000 H   0  0  0  0  0  0  0  0  0  0  0  0
    2.8660   -3.4456    0.0000 H   0  0  0  0  0  0  0  0  0  0  0  0
    1.4631   -1.0156    0.0000 H   0  0  0  0  0  0  0  0  0  0  0  0
    1.4631   -2.6356    0.0000 H   0  0  0  0  0  0  0  0  0  0  0  0
  1 22  1  0  0  0  0
  2  8  1  0  0  0  0
  2  9  1  0  0  0  0
  2 10  1  0  0  0  0
  3 17  1  0  0  0  0
  3 18  1  0  0  0  0
  3 39  1  0  0  0  0
  4 13  3  0  0  0  0
  5  6  1  0  0  0  0
  5  7  1  0  0  0  0
  5 11  1  0  0  0  0
  5 13  1  0  0  0  0
  6  8  1  0  0  0  0
  6 26  1  0  0  0  0
  6 27  1  0  0  0  0
  7  9  1  0  0  0  0
  7 28  1  0  0  0  0
  7 29  1  0  0  0  0
  8 30  1  0  0  0  0
  8 31  1  0  0  0  0
  9 32  1  0  0  0  0
  9 33  1  0  0  0  0
 10 12  1  0  0  0  0
 10 34  1  0  0  0  0
 10 35  1  0  0  0  0
 11 14  2  0  0  0  0
 11 15  1  0  0  0  0
 12 16  1  0  0  0  0
 12 17  2  0  0  0  0
 14 19  1  0  0  0  0
 14 36  1  0  0  0  0
 15 20  2  0  0  0  0
 15 37  1  0  0  0  0
 16 18  1  0  0  0  0
 16 21  2  0  0  0  0
 17 38  1  0  0  0  0
 18 23  2  0  0  0  0
 19 22  2  0  0  0  0
 19 40  1  0  0  0  0
 20 22  1  0  0  0  0
 20 41  1  0  0  0  0
 21 24  1  0  0  0  0
 21 42  1  0  0  0  0
 23 25  1  0  0  0  0
 23 43  1  0  0  0  0
 24 25  2  0  0  0  0
 24 44  1  0  0  0  0
 25 45  1  0  0  0  0
M  END
> <PUBCHEM_COMPOUND_CID>
44438222

> <PUBCHEM_COMPOUND_CANONICALIZED>
1

> <PUBCHEM_CACTVS_COMPLEXITY>
497

> <PUBCHEM_CACTVS_HBOND_ACCEPTOR>
2

> <PUBCHEM_CACTVS_HBOND_DONOR>
1

> <PUBCHEM_CACTVS_ROTATABLE_BOND>
3

> <PUBCHEM_CACTVS_SUBSKEYS>
AAADceB7AAAEAAAAAAAAAAAAAAAAAWAAAAA8YIAAAAAAAFgB9AAAHAIQAAAADgrBHiQ8wPPJkACwBzRnRACCgCAxByAI2aA4ZpgIoOLB05GEIAhgkADIyA8QgMAPhAAAAAACAAAIAAAAAAQAAAAAAAAAAA==

> <PUBCHEM_IUPAC_OPENEYE_NAME>
4-(4-chlorophenyl)-1-(1H-indol-3-ylmethyl)piperidine-4-carbonitrile

> <PUBCHEM_IUPAC_CAS_NAME>
4-(4-chlorophenyl)-1-(1H-indol-3-ylmethyl)-4-piperidinecarbonitrile

> <PUBCHEM_IUPAC_NAME_MARKUP>
4-(4-chlorophenyl)-1-(1<I>H</I>-indol-3-ylmethyl)piperidine-4-carbonitrile

> <PUBCHEM_IUPAC_NAME>
4-(4-chlorophenyl)-1-(1H-indol-3-ylmethyl)piperidine-4-carbonitrile

> <PUBCHEM_IUPAC_SYSTEMATIC_NAME>
4-(4-chlorophenyl)-1-(1H-indol-3-ylmethyl)piperidine-4-carbonitrile

> <PUBCHEM_IUPAC_TRADITIONAL_NAME>
4-(4-chlorophenyl)-1-(1H-indol-3-ylmethyl)isonipecotonitrile

> <PUBCHEM_IUPAC_INCHI>
InChI=1S/C21H20ClN3/c22-18-7-5-17(6-8-18)21(15-23)9-11-25(12-10-21)14-16-13-24-20-4-2-1-3-19(16)20/h1-8,13,24H,9-12,14H2

> <PUBCHEM_IUPAC_INCHIKEY>
XWQQVXPJZWZEFN-UHFFFAOYSA-N

> <PUBCHEM_XLOGP3_AA>
4.2

> <PUBCHEM_EXACT_MASS>
349.1345753

> <PUBCHEM_MOLECULAR_FORMULA>
C21H20ClN3

> <PUBCHEM_MOLECULAR_WEIGHT>
349.9

> <PUBCHEM_OPENEYE_CAN_SMILES>
C1CN(CCC1(C#N)C2=CC=C(C=C2)Cl)CC3=CNC4=CC=CC=C43

> <PUBCHEM_OPENEYE_ISO_SMILES>
C1CN(CCC1(C#N)C2=CC=C(C=C2)Cl)CC3=CNC4=CC=CC=C43

> <PUBCHEM_CACTVS_TPSA>
42.8

> <PUBCHEM_MONOISOTOPIC_WEIGHT>
349.1345753

> <PUBCHEM_TOTAL_CHARGE>
0

> <PUBCHEM_HEAVY_ATOM_COUNT>
25

> <PUBCHEM_ATOM_DEF_STEREO_COUNT>
0

> <PUBCHEM_ATOM_UDEF_STEREO_COUNT>
0

> <PUBCHEM_BOND_DEF_STEREO_COUNT>
0

> <PUBCHEM_BOND_UDEF_STEREO_COUNT>
0

> <PUBCHEM_ISOTOPIC_ATOM_COUNT>
0

> <PUBCHEM_COMPONENT_COUNT>
1

> <PUBCHEM_CACTVS_TAUTO_COUNT>
-1

> <PUBCHEM_COORDINATE_TYPE>
1
5
255

> <PUBCHEM_BONDANNOTATIONS>
11  14  8
11  15  8
12  16  8
12  17  8
14  19  8
15  20  8
16  18  8
16  21  8
18  23  8
19  22  8
20  22  8
21  24  8
23  25  8
24  25  8
3  17  8
3  18  8

$$$$
