71151756
  -OEChem-09292322352D

 76 80  0     0  0  0  0  0  0999 V2000
    8.4530   -5.2018    0.0000 S   0  0  0  0  0  0  0  0  0  0  0  0
    4.5981    4.5534    0.0000 O   0  0  0  0  0  0  0  0  0  0  0  0
    9.4035   -4.8912    0.0000 O   0  0  0  0  0  0  0  0  0  0  0  0
    7.5025   -5.5125    0.0000 O   0  0  0  0  0  0  0  0  0  0  0  0
    4.5981    6.5534    0.0000 O   0  0  0  0  0  0  0  0  0  0  0  0
    6.3301    0.5534    0.0000 N   0  0  0  0  0  0  0  0  0  0  0  0
    6.3301   -1.4466    0.0000 N   0  0  0  0  0  0  0  0  0  0  0  0
    8.1424   -4.2513    0.0000 N   0  0  0  0  0  0  0  0  0  0  0  0
    5.4641    0.0534    0.0000 C   0  0  0  0  0  0  0  0  0  0  0  0
    7.1962    0.0534    0.0000 C   0  0  0  0  0  0  0  0  0  0  0  0
    5.4641   -0.9466    0.0000 C   0  0  0  0  0  0  0  0  0  0  0  0
    7.1962   -0.9466    0.0000 C   0  0  0  0  0  0  0  0  0  0  0  0
    6.3301    1.5534    0.0000 C   0  0  0  0  0  0  0  0  0  0  0  0
    6.3301   -2.4466    0.0000 C   0  0  0  0  0  0  0  0  0  0  0  0
    5.4641    2.0534    0.0000 C   0  0  0  0  0  0  0  0  0  0  0  0
    7.1962   -2.9466    0.0000 C   0  0  0  0  0  0  0  0  0  0  0  0
    7.1962   -3.9466    0.0000 C   0  0  0  0  0  0  0  0  0  0  0  0
    5.4641    3.0534    0.0000 C   0  0  0  0  0  0  0  0  0  0  0  0
    5.4641   -2.9466    0.0000 C   0  0  0  0  0  0  0  0  0  0  0  0
    8.1424   -2.6419    0.0000 C   0  0  0  0  0  0  0  0  0  0  0  0
    6.3301   -4.4466    0.0000 C   0  0  0  0  0  0  0  0  0  0  0  0
    8.7260   -3.4466    0.0000 C   0  0  0  0  0  0  0  0  0  0  0  0
    5.4641   -3.9466    0.0000 C   0  0  0  0  0  0  0  0  0  0  0  0
    4.5981    3.5534    0.0000 C   0  0  0  0  0  0  0  0  0  0  0  0
    8.7637   -6.1524    0.0000 C   0  0  0  0  0  0  0  0  0  0  0  0
    8.0958   -6.8967    0.0000 C   0  0  0  0  0  0  0  0  0  0  0  0
    9.7422   -6.3586    0.0000 C   0  0  0  0  0  0  0  0  0  0  0  0
    3.7320    5.0534    0.0000 C   0  0  0  0  0  0  0  0  0  0  0  0
    8.4065   -7.8472    0.0000 C   0  0  0  0  0  0  0  0  0  0  0  0
   10.0529   -7.3091    0.0000 C   0  0  0  0  0  0  0  0  0  0  0  0
    3.7320    6.0534    0.0000 C   0  0  0  0  0  0  0  0  0  0  0  0
    9.3850   -8.0534    0.0000 C   0  0  0  0  0  0  0  0  0  0  0  0
    2.8660    4.5534    0.0000 C   0  0  0  0  0  0  0  0  0  0  0  0
    2.8660    6.5534    0.0000 C   0  0  0  0  0  0  0  0  0  0  0  0
    2.0000    5.0534    0.0000 C   0  0  0  0  0  0  0  0  0  0  0  0
    4.5981    7.5534    0.0000 C   0  0  0  0  0  0  0  0  0  0  0  0
    2.0000    6.0534    0.0000 C   0  0  0  0  0  0  0  0  0  0  0  0
    5.4641    8.0534    0.0000 C   0  0  0  0  0  0  0  0  0  0  0  0
    3.7320    8.0534    0.0000 C   0  0  0  0  0  0  0  0  0  0  0  0
    5.2520    0.6360    0.0000 H   0  0  0  0  0  0  0  0  0  0  0  0
    4.8535   -0.0543    0.0000 H   0  0  0  0  0  0  0  0  0  0  0  0
    7.8067   -0.0543    0.0000 H   0  0  0  0  0  0  0  0  0  0  0  0
    7.4082    0.6360    0.0000 H   0  0  0  0  0  0  0  0  0  0  0  0
    4.8535   -0.8389    0.0000 H   0  0  0  0  0  0  0  0  0  0  0  0
    5.2520   -1.5292    0.0000 H   0  0  0  0  0  0  0  0  0  0  0  0
    7.4082   -1.5292    0.0000 H   0  0  0  0  0  0  0  0  0  0  0  0
    7.8067   -0.8389    0.0000 H   0  0  0  0  0  0  0  0  0  0  0  0
    6.9407    1.4457    0.0000 H   0  0  0  0  0  0  0  0  0  0  0  0
    6.5422    2.1360    0.0000 H   0  0  0  0  0  0  0  0  0  0  0  0
    4.8535    2.1611    0.0000 H   0  0  0  0  0  0  0  0  0  0  0  0
    5.2520    1.4708    0.0000 H   0  0  0  0  0  0  0  0  0  0  0  0
    6.0747    2.9457    0.0000 H   0  0  0  0  0  0  0  0  0  0  0  0
    5.6762    3.6360    0.0000 H   0  0  0  0  0  0  0  0  0  0  0  0
    4.9272   -2.6366    0.0000 H   0  0  0  0  0  0  0  0  0  0  0  0
    8.3350   -2.0525    0.0000 H   0  0  0  0  0  0  0  0  0  0  0  0
    6.3301   -5.0666    0.0000 H   0  0  0  0  0  0  0  0  0  0  0  0
    9.3460   -3.4466    0.0000 H   0  0  0  0  0  0  0  0  0  0  0  0
    4.9272   -4.2566    0.0000 H   0  0  0  0  0  0  0  0  0  0  0  0
    3.9875    3.6611    0.0000 H   0  0  0  0  0  0  0  0  0  0  0  0
    4.3860    2.9708    0.0000 H   0  0  0  0  0  0  0  0  0  0  0  0
    7.4892   -6.7688    0.0000 H   0  0  0  0  0  0  0  0  0  0  0  0
   10.1563   -5.8971    0.0000 H   0  0  0  0  0  0  0  0  0  0  0  0
    7.9924   -8.3086    0.0000 H   0  0  0  0  0  0  0  0  0  0  0  0
   10.6595   -7.4370    0.0000 H   0  0  0  0  0  0  0  0  0  0  0  0
    9.5776   -8.6427    0.0000 H   0  0  0  0  0  0  0  0  0  0  0  0
    2.8660    3.9334    0.0000 H   0  0  0  0  0  0  0  0  0  0  0  0
    2.8660    7.1734    0.0000 H   0  0  0  0  0  0  0  0  0  0  0  0
    1.4631    4.7434    0.0000 H   0  0  0  0  0  0  0  0  0  0  0  0
    5.1350    7.2434    0.0000 H   0  0  0  0  0  0  0  0  0  0  0  0
    1.4631    6.3634    0.0000 H   0  0  0  0  0  0  0  0  0  0  0  0
    5.7741    7.5165    0.0000 H   0  0  0  0  0  0  0  0  0  0  0  0
    6.0010    8.3634    0.0000 H   0  0  0  0  0  0  0  0  0  0  0  0
    5.1541    8.5903    0.0000 H   0  0  0  0  0  0  0  0  0  0  0  0
    4.0420    8.5903    0.0000 H   0  0  0  0  0  0  0  0  0  0  0  0
    3.1951    8.3634    0.0000 H   0  0  0  0  0  0  0  0  0  0  0  0
    3.4220    7.5165    0.0000 H   0  0  0  0  0  0  0  0  0  0  0  0
  1  3  2  0  0  0  0
  1  4  2  0  0  0  0
  1  8  1  0  0  0  0
  1 25  1  0  0  0  0
  2 24  1  0  0  0  0
  2 28  1  0  0  0  0
  5 31  1  0  0  0  0
  5 36  1  0  0  0  0
  6  9  1  0  0  0  0
  6 10  1  0  0  0  0
  6 13  1  0  0  0  0
  7 11  1  0  0  0  0
  7 12  1  0  0  0  0
  7 14  1  0  0  0  0
  8 17  1  0  0  0  0
  8 22  1  0  0  0  0
  9 11  1  0  0  0  0
  9 40  1  0  0  0  0
  9 41  1  0  0  0  0
 10 12  1  0  0  0  0
 10 42  1  0  0  0  0
 10 43  1  0  0  0  0
 11 44  1  0  0  0  0
 11 45  1  0  0  0  0
 12 46  1  0  0  0  0
 12 47  1  0  0  0  0
 13 15  1  0  0  0  0
 13 48  1  0  0  0  0
 13 49  1  0  0  0  0
 14 16  1  0  0  0  0
 14 19  2  0  0  0  0
 15 18  1  0  0  0  0
 15 50  1  0  0  0  0
 15 51  1  0  0  0  0
 16 17  2  0  0  0  0
 16 20  1  0  0  0  0
 17 21  1  0  0  0  0
 18 24  1  0  0  0  0
 18 52  1  0  0  0  0
 18 53  1  0  0  0  0
 19 23  1  0  0  0  0
 19 54  1  0  0  0  0
 20 22  2  0  0  0  0
 20 55  1  0  0  0  0
 21 23  2  0  0  0  0
 21 56  1  0  0  0  0
 22 57  1  0  0  0  0
 23 58  1  0  0  0  0
 24 59  1  0  0  0  0
 24 60  1  0  0  0  0
 25 26  2  0  0  0  0
 25 27  1  0  0  0  0
 26 29  1  0  0  0  0
 26 61  1  0  0  0  0
 27 30  2  0  0  0  0
 27 62  1  0  0  0  0
 28 31  1  0  0  0  0
 28 33  2  0  0  0  0
 29 32  2  0  0  0  0
 29 63  1  0  0  0  0
 30 32  1  0  0  0  0
 30 64  1  0  0  0  0
 31 34  2  0  0  0  0
 32 65  1  0  0  0  0
 33 35  1  0  0  0  0
 33 66  1  0  0  0  0
 34 37  1  0  0  0  0
 34 67  1  0  0  0  0
 35 37  2  0  0  0  0
 35 68  1  0  0  0  0
 36 38  1  0  0  0  0
 36 39  1  0  0  0  0
 36 69  1  0  0  0  0
 37 70  1  0  0  0  0
 38 71  1  0  0  0  0
 38 72  1  0  0  0  0
 38 73  1  0  0  0  0
 39 74  1  0  0  0  0
 39 75  1  0  0  0  0
 39 76  1  0  0  0  0
M  END
> <PUBCHEM_COMPOUND_CID>
71151756

> <PUBCHEM_COMPOUND_CANONICALIZED>
1

> <PUBCHEM_CACTVS_COMPLEXITY>
835

> <PUBCHEM_CACTVS_HBOND_ACCEPTOR>
6

> <PUBCHEM_CACTVS_HBOND_DONOR>
0

> <PUBCHEM_CACTVS_ROTATABLE_BOND>
11

> <PUBCHEM_CACTVS_SUBSKEYS>
AAADcfB7OABAAAAAAAAAAAAAAAAAAWAAAAA8YMEAAAAAAFgB9AAAHgQAQAAADBzh3gY+x/MIFAKgAzRnRHDCiDAxIiAI2Dg+7JgNZuLE8duWPCrkwBHK6AewwIAOAAAAAAQCQAAAAAAACASAAAAAAAAAAA==

> <PUBCHEM_IUPAC_OPENEYE_NAME>
1-(benzenesulfonyl)-4-[4-[4-(2-isopropoxyphenoxy)butyl]piperazin-1-yl]indole

> <PUBCHEM_IUPAC_CAS_NAME>
1-(benzenesulfonyl)-4-[4-[4-(2-propan-2-yloxyphenoxy)butyl]-1-piperazinyl]indole

> <PUBCHEM_IUPAC_NAME_MARKUP>
1-(benzenesulfonyl)-4-[4-[4-(2-propan-2-yloxyphenoxy)butyl]piperazin-1-yl]indole

> <PUBCHEM_IUPAC_NAME>
1-(benzenesulfonyl)-4-[4-[4-(2-propan-2-yloxyphenoxy)butyl]piperazin-1-yl]indole

> <PUBCHEM_IUPAC_SYSTEMATIC_NAME>
1-(phenylsulfonyl)-4-[4-[4-(2-propan-2-yloxyphenoxy)butyl]piperazin-1-yl]indole

> <PUBCHEM_IUPAC_TRADITIONAL_NAME>
1-besyl-4-[4-[4-(2-isopropoxyphenoxy)butyl]piperazino]indole

> <PUBCHEM_IUPAC_INCHI>
InChI=1S/C31H37N3O4S/c1-25(2)38-31-16-7-6-15-30(31)37-24-9-8-18-32-20-22-33(23-21-32)28-13-10-14-29-27(28)17-19-34(29)39(35,36)26-11-4-3-5-12-26/h3-7,10-17,19,25H,8-9,18,20-24H2,1-2H3

> <PUBCHEM_IUPAC_INCHIKEY>
ATBHOQNWZSXLBZ-UHFFFAOYSA-N

> <PUBCHEM_XLOGP3_AA>
6.3

> <PUBCHEM_EXACT_MASS>
547.25047784

> <PUBCHEM_MOLECULAR_FORMULA>
C31H37N3O4S

> <PUBCHEM_MOLECULAR_WEIGHT>
547.7

> <PUBCHEM_OPENEYE_CAN_SMILES>
CC(C)OC1=CC=CC=C1OCCCCN2CCN(CC2)C3=CC=CC4=C3C=CN4S(=O)(=O)C5=CC=CC=C5

> <PUBCHEM_OPENEYE_ISO_SMILES>
CC(C)OC1=CC=CC=C1OCCCCN2CCN(CC2)C3=CC=CC4=C3C=CN4S(=O)(=O)C5=CC=CC=C5

> <PUBCHEM_CACTVS_TPSA>
72.4

> <PUBCHEM_MONOISOTOPIC_WEIGHT>
547.25047784

> <PUBCHEM_TOTAL_CHARGE>
0

> <PUBCHEM_HEAVY_ATOM_COUNT>
39

> <PUBCHEM_ATOM_DEF_STEREO_COUNT>
0

> <PUBCHEM_ATOM_UDEF_STEREO_COUNT>
0

> <PUBCHEM_BOND_DEF_STEREO_COUNT>
0

> <PUBCHEM_BOND_UDEF_STEREO_COUNT>
0

> <PUBCHEM_ISOTOPIC_ATOM_COUNT>
0

> <PUBCHEM_COMPONENT_COUNT>
1

> <PUBCHEM_CACTVS_TAUTO_COUNT>
-1

> <PUBCHEM_COORDINATE_TYPE>
1
5
255

> <PUBCHEM_BONDANNOTATIONS>
14  16  8
14  19  8
16  17  8
16  20  8
17  21  8
19  23  8
20  22  8
21  23  8
25  26  8
25  27  8
26  29  8
27  30  8
28  31  8
28  33  8
29  32  8
30  32  8
31  34  8
33  35  8
34  37  8
35  37  8
8  17  8
8  22  8

$$$$
