11957735
  -OEChem-09292322072D

 52 54  0     0  0  0  0  0  0999 V2000
    2.5896    2.2818    0.0000 O   0  0  0  0  0  0  0  0  0  0  0  0
    5.9781    1.5616    0.0000 N   0  0  0  0  0  0  0  0  0  0  0  0
    7.5961    1.5616    0.0000 N   0  0  0  0  0  0  0  0  0  0  0  0
    6.2871    2.5127    0.0000 N   0  0  0  0  0  0  0  0  0  0  0  0
    8.8694    3.2172    0.0000 N   0  0  0  0  0  0  0  0  0  0  0  0
    6.7871   -3.0262    0.0000 C   0  0  0  0  0  0  0  0  0  0  0  0
    6.7871   -2.0262    0.0000 C   0  0  0  0  0  0  0  0  0  0  0  0
    6.7871   -4.0262    0.0000 C   0  0  0  0  0  0  0  0  0  0  0  0
    7.7871   -3.0262    0.0000 C   0  0  0  0  0  0  0  0  0  0  0  0
    5.7871   -3.0262    0.0000 C   0  0  0  0  0  0  0  0  0  0  0  0
    7.6531   -1.5262    0.0000 C   0  0  0  0  0  0  0  0  0  0  0  0
    5.9210   -1.5262    0.0000 C   0  0  0  0  0  0  0  0  0  0  0  0
    6.7871   -0.0262    0.0000 C   0  0  0  0  0  0  0  0  0  0  0  0
    7.6531   -0.5262    0.0000 C   0  0  0  0  0  0  0  0  0  0  0  0
    5.9210   -0.5262    0.0000 C   0  0  0  0  0  0  0  0  0  0  0  0
    6.7871    0.9738    0.0000 C   0  0  0  0  0  0  0  0  0  0  0  0
    7.2871    2.5127    0.0000 C   0  0  0  0  0  0  0  0  0  0  0  0
    7.8749    3.3217    0.0000 C   0  0  0  0  0  0  0  0  0  0  0  0
    5.0270    1.2526    0.0000 C   0  0  0  0  0  0  0  0  0  0  0  0
    4.2839    1.9217    0.0000 C   0  0  0  0  0  0  0  0  0  0  0  0
    4.8191    0.2744    0.0000 C   0  0  0  0  0  0  0  0  0  0  0  0
    9.4572    4.0262    0.0000 C   0  0  0  0  0  0  0  0  0  0  0  0
    9.2761    2.3036    0.0000 C   0  0  0  0  0  0  0  0  0  0  0  0
    3.3328    1.6127    0.0000 C   0  0  0  0  0  0  0  0  0  0  0  0
    3.8680   -0.0346    0.0000 C   0  0  0  0  0  0  0  0  0  0  0  0
    3.1249    0.6346    0.0000 C   0  0  0  0  0  0  0  0  0  0  0  0
    6.1671   -4.0262    0.0000 H   0  0  0  0  0  0  0  0  0  0  0  0
    6.7871   -4.6462    0.0000 H   0  0  0  0  0  0  0  0  0  0  0  0
    7.4071   -4.0262    0.0000 H   0  0  0  0  0  0  0  0  0  0  0  0
    7.7871   -3.6462    0.0000 H   0  0  0  0  0  0  0  0  0  0  0  0
    8.4071   -3.0262    0.0000 H   0  0  0  0  0  0  0  0  0  0  0  0
    7.7871   -2.4062    0.0000 H   0  0  0  0  0  0  0  0  0  0  0  0
    5.7871   -2.4062    0.0000 H   0  0  0  0  0  0  0  0  0  0  0  0
    5.1671   -3.0262    0.0000 H   0  0  0  0  0  0  0  0  0  0  0  0
    5.7871   -3.6462    0.0000 H   0  0  0  0  0  0  0  0  0  0  0  0
    8.1900   -1.8362    0.0000 H   0  0  0  0  0  0  0  0  0  0  0  0
    5.3841   -1.8362    0.0000 H   0  0  0  0  0  0  0  0  0  0  0  0
    8.1900   -0.2162    0.0000 H   0  0  0  0  0  0  0  0  0  0  0  0
    5.3841   -0.2162    0.0000 H   0  0  0  0  0  0  0  0  0  0  0  0
    8.0458    3.9177    0.0000 H   0  0  0  0  0  0  0  0  0  0  0  0
    7.3176    3.5935    0.0000 H   0  0  0  0  0  0  0  0  0  0  0  0
    4.4128    2.5282    0.0000 H   0  0  0  0  0  0  0  0  0  0  0  0
    5.2798   -0.1404    0.0000 H   0  0  0  0  0  0  0  0  0  0  0  0
    9.9588    3.6618    0.0000 H   0  0  0  0  0  0  0  0  0  0  0  0
    9.8216    4.5278    0.0000 H   0  0  0  0  0  0  0  0  0  0  0  0
    8.9556    4.3906    0.0000 H   0  0  0  0  0  0  0  0  0  0  0  0
    8.7097    2.0514    0.0000 H   0  0  0  0  0  0  0  0  0  0  0  0
    9.5283    1.7372    0.0000 H   0  0  0  0  0  0  0  0  0  0  0  0
    9.8425    2.5558    0.0000 H   0  0  0  0  0  0  0  0  0  0  0  0
    3.7391   -0.6410    0.0000 H   0  0  0  0  0  0  0  0  0  0  0  0
    2.5352    0.4430    0.0000 H   0  0  0  0  0  0  0  0  0  0  0  0
    2.0000    2.0902    0.0000 H   0  0  0  0  0  0  0  0  0  0  0  0
  1 24  1  0  0  0  0
  1 52  1  0  0  0  0
  2  4  1  0  0  0  0
  2 16  1  0  0  0  0
  2 19  1  0  0  0  0
  3 16  2  0  0  0  0
  3 17  1  0  0  0  0
  4 17  2  0  0  0  0
  5 18  1  0  0  0  0
  5 22  1  0  0  0  0
  5 23  1  0  0  0  0
  6  7  1  0  0  0  0
  6  8  1  0  0  0  0
  6  9  1  0  0  0  0
  6 10  1  0  0  0  0
  7 11  2  0  0  0  0
  7 12  1  0  0  0  0
  8 27  1  0  0  0  0
  8 28  1  0  0  0  0
  8 29  1  0  0  0  0
  9 30  1  0  0  0  0
  9 31  1  0  0  0  0
  9 32  1  0  0  0  0
 10 33  1  0  0  0  0
 10 34  1  0  0  0  0
 10 35  1  0  0  0  0
 11 14  1  0  0  0  0
 11 36  1  0  0  0  0
 12 15  2  0  0  0  0
 12 37  1  0  0  0  0
 13 14  2  0  0  0  0
 13 15  1  0  0  0  0
 13 16  1  0  0  0  0
 14 38  1  0  0  0  0
 15 39  1  0  0  0  0
 17 18  1  0  0  0  0
 18 40  1  0  0  0  0
 18 41  1  0  0  0  0
 19 20  2  0  0  0  0
 19 21  1  0  0  0  0
 20 24  1  0  0  0  0
 20 42  1  0  0  0  0
 21 25  2  0  0  0  0
 21 43  1  0  0  0  0
 22 44  1  0  0  0  0
 22 45  1  0  0  0  0
 22 46  1  0  0  0  0
 23 47  1  0  0  0  0
 23 48  1  0  0  0  0
 23 49  1  0  0  0  0
 24 26  2  0  0  0  0
 25 26  1  0  0  0  0
 25 50  1  0  0  0  0
 26 51  1  0  0  0  0
M  END
> <PUBCHEM_COMPOUND_CID>
11957735

> <PUBCHEM_COMPOUND_CANONICALIZED>
1

> <PUBCHEM_CACTVS_COMPLEXITY>
442

> <PUBCHEM_CACTVS_HBOND_ACCEPTOR>
4

> <PUBCHEM_CACTVS_HBOND_DONOR>
1

> <PUBCHEM_CACTVS_ROTATABLE_BOND>
5

> <PUBCHEM_CACTVS_SUBSKEYS>
AAADceB7oAAAAAAAAAAAAAAAAAAAAWAAAAAwYAAAAAAAAAAB0AAAHgAICAAADgzBmwQz1ocIEgCiAiZiZACShCshIqAdiCA+bJiIbqLCmZOUcAhuyBvI2CeQ0MMPwAAAAgAAAACAAAAEAAAAAAAAAAAAAA==

> <PUBCHEM_IUPAC_OPENEYE_NAME>
3-[5-(4-tert-butylphenyl)-3-[(dimethylamino)methyl]-1,2,4-triazol-1-yl]phenol

> <PUBCHEM_IUPAC_CAS_NAME>
3-[5-(4-tert-butylphenyl)-3-[(dimethylamino)methyl]-1,2,4-triazol-1-yl]phenol

> <PUBCHEM_IUPAC_NAME_MARKUP>
3-[5-(4-<I>tert</I>-butylphenyl)-3-[(dimethylamino)methyl]-1,2,4-triazol-1-yl]phenol

> <PUBCHEM_IUPAC_NAME>
3-[5-(4-tert-butylphenyl)-3-[(dimethylamino)methyl]-1,2,4-triazol-1-yl]phenol

> <PUBCHEM_IUPAC_SYSTEMATIC_NAME>
3-[5-(4-tert-butylphenyl)-3-[(dimethylamino)methyl]-1,2,4-triazol-1-yl]phenol

> <PUBCHEM_IUPAC_TRADITIONAL_NAME>
3-[5-(4-tert-butylphenyl)-3-[(dimethylamino)methyl]-1,2,4-triazol-1-yl]phenol

> <PUBCHEM_IUPAC_INCHI>
InChI=1S/C21H26N4O/c1-21(2,3)16-11-9-15(10-12-16)20-22-19(14-24(4)5)23-25(20)17-7-6-8-18(26)13-17/h6-13,26H,14H2,1-5H3

> <PUBCHEM_IUPAC_INCHIKEY>
ILPANLYEJQKXKY-UHFFFAOYSA-N

> <PUBCHEM_XLOGP3_AA>
4.5

> <PUBCHEM_EXACT_MASS>
350.21066147

> <PUBCHEM_MOLECULAR_FORMULA>
C21H26N4O

> <PUBCHEM_MOLECULAR_WEIGHT>
350.5

> <PUBCHEM_OPENEYE_CAN_SMILES>
CC(C)(C)C1=CC=C(C=C1)C2=NC(=NN2C3=CC(=CC=C3)O)CN(C)C

> <PUBCHEM_OPENEYE_ISO_SMILES>
CC(C)(C)C1=CC=C(C=C1)C2=NC(=NN2C3=CC(=CC=C3)O)CN(C)C

> <PUBCHEM_CACTVS_TPSA>
54.2

> <PUBCHEM_MONOISOTOPIC_WEIGHT>
350.21066147

> <PUBCHEM_TOTAL_CHARGE>
0

> <PUBCHEM_HEAVY_ATOM_COUNT>
26

> <PUBCHEM_ATOM_DEF_STEREO_COUNT>
0

> <PUBCHEM_ATOM_UDEF_STEREO_COUNT>
0

> <PUBCHEM_BOND_DEF_STEREO_COUNT>
0

> <PUBCHEM_BOND_UDEF_STEREO_COUNT>
0

> <PUBCHEM_ISOTOPIC_ATOM_COUNT>
0

> <PUBCHEM_COMPONENT_COUNT>
1

> <PUBCHEM_CACTVS_TAUTO_COUNT>
-1

> <PUBCHEM_COORDINATE_TYPE>
1
5
255

> <PUBCHEM_BONDANNOTATIONS>
11  14  8
12  15  8
13  14  8
13  15  8
19  20  8
19  21  8
2  16  8
2  4  8
20  24  8
21  25  8
24  26  8
25  26  8
3  16  8
3  17  8
4  17  8
7  11  8
7  12  8

$$$$
