72164183
  -OEChem-09292322342D

 37 39  0     0  0  0  0  0  0999 V2000
    3.8366    4.2983    0.0000 S   0  0  0  0  0  0  0  0  0  0  0  0
    2.8660   -4.1962    0.0000 O   0  0  0  0  0  0  0  0  0  0  0  0
    2.8660    1.8038    0.0000 N   0  0  0  0  0  0  0  0  0  0  0  0
    2.8660   -0.1962    0.0000 N   0  0  0  0  0  0  0  0  0  0  0  0
    3.7320    1.3038    0.0000 C   0  0  0  0  0  0  0  0  0  0  0  0
    2.0000    1.3038    0.0000 C   0  0  0  0  0  0  0  0  0  0  0  0
    3.7320    0.3038    0.0000 C   0  0  0  0  0  0  0  0  0  0  0  0
    2.0000    0.3038    0.0000 C   0  0  0  0  0  0  0  0  0  0  0  0
    2.8660    2.8038    0.0000 C   0  0  0  0  0  0  0  0  0  0  0  0
    2.8660   -1.1962    0.0000 C   0  0  0  0  0  0  0  0  0  0  0  0
    3.7320    3.3038    0.0000 C   0  0  0  0  0  0  0  0  0  0  0  0
    2.0000   -1.6962    0.0000 C   0  0  0  0  0  0  0  0  0  0  0  0
    3.7320   -1.6962    0.0000 C   0  0  0  0  0  0  0  0  0  0  0  0
    4.6456    2.8970    0.0000 C   0  0  0  0  0  0  0  0  0  0  0  0
    2.0000   -2.6962    0.0000 C   0  0  0  0  0  0  0  0  0  0  0  0
    3.7320   -2.6962    0.0000 C   0  0  0  0  0  0  0  0  0  0  0  0
    2.8660   -3.1962    0.0000 C   0  0  0  0  0  0  0  0  0  0  0  0
    5.3147    3.6402    0.0000 C   0  0  0  0  0  0  0  0  0  0  0  0
    4.8147    4.5062    0.0000 C   0  0  0  0  0  0  0  0  0  0  0  0
    4.3426    1.1961    0.0000 H   0  0  0  0  0  0  0  0  0  0  0  0
    3.9441    1.8864    0.0000 H   0  0  0  0  0  0  0  0  0  0  0  0
    1.7880    1.8864    0.0000 H   0  0  0  0  0  0  0  0  0  0  0  0
    1.3894    1.1961    0.0000 H   0  0  0  0  0  0  0  0  0  0  0  0
    3.9441   -0.2788    0.0000 H   0  0  0  0  0  0  0  0  0  0  0  0
    4.3426    0.4114    0.0000 H   0  0  0  0  0  0  0  0  0  0  0  0
    1.3894    0.4114    0.0000 H   0  0  0  0  0  0  0  0  0  0  0  0
    1.7880   -0.2788    0.0000 H   0  0  0  0  0  0  0  0  0  0  0  0
    2.6540    3.3864    0.0000 H   0  0  0  0  0  0  0  0  0  0  0  0
    2.2554    2.6961    0.0000 H   0  0  0  0  0  0  0  0  0  0  0  0
    1.4631   -1.3862    0.0000 H   0  0  0  0  0  0  0  0  0  0  0  0
    4.2690   -1.3862    0.0000 H   0  0  0  0  0  0  0  0  0  0  0  0
    4.7745    2.2906    0.0000 H   0  0  0  0  0  0  0  0  0  0  0  0
    1.4631   -3.0062    0.0000 H   0  0  0  0  0  0  0  0  0  0  0  0
    4.2690   -3.0062    0.0000 H   0  0  0  0  0  0  0  0  0  0  0  0
    5.9313    3.5754    0.0000 H   0  0  0  0  0  0  0  0  0  0  0  0
    5.0669    5.0726    0.0000 H   0  0  0  0  0  0  0  0  0  0  0  0
    2.3291   -4.5062    0.0000 H   0  0  0  0  0  0  0  0  0  0  0  0
  1 11  1  0  0  0  0
  1 19  1  0  0  0  0
  2 17  1  0  0  0  0
  2 37  1  0  0  0  0
  3  5  1  0  0  0  0
  3  6  1  0  0  0  0
  3  9  1  0  0  0  0
  4  7  1  0  0  0  0
  4  8  1  0  0  0  0
  4 10  1  0  0  0  0
  5  7  1  0  0  0  0
  5 20  1  0  0  0  0
  5 21  1  0  0  0  0
  6  8  1  0  0  0  0
  6 22  1  0  0  0  0
  6 23  1  0  0  0  0
  7 24  1  0  0  0  0
  7 25  1  0  0  0  0
  8 26  1  0  0  0  0
  8 27  1  0  0  0  0
  9 11  1  0  0  0  0
  9 28  1  0  0  0  0
  9 29  1  0  0  0  0
 10 12  2  0  0  0  0
 10 13  1  0  0  0  0
 11 14  2  0  0  0  0
 12 15  1  0  0  0  0
 12 30  1  0  0  0  0
 13 16  2  0  0  0  0
 13 31  1  0  0  0  0
 14 18  1  0  0  0  0
 14 32  1  0  0  0  0
 15 17  2  0  0  0  0
 15 33  1  0  0  0  0
 16 17  1  0  0  0  0
 16 34  1  0  0  0  0
 18 19  2  0  0  0  0
 18 35  1  0  0  0  0
 19 36  1  0  0  0  0
M  END
> <PUBCHEM_COMPOUND_CID>
72164183

> <PUBCHEM_COMPOUND_CANONICALIZED>
1

> <PUBCHEM_CACTVS_COMPLEXITY>
273

> <PUBCHEM_CACTVS_HBOND_ACCEPTOR>
4

> <PUBCHEM_CACTVS_HBOND_DONOR>
1

> <PUBCHEM_CACTVS_ROTATABLE_BOND>
3

> <PUBCHEM_CACTVS_SUBSKEYS>
AAADceBzIABAAAAAAAAAAAAAAAAAASAAAAA8QAAAAAAAAAABwAAAHgQACAAACAzF0ASwx4MAAgiEACRCQACDAIAhKhBIiBgObIgIZiLikZOUcAhkwBHo2AewQAAAAEAAAAAAAAAAgAAAAAAAAAAAAAAAAA==

> <PUBCHEM_IUPAC_OPENEYE_NAME>
4-[4-(2-thienylmethyl)piperazin-1-yl]phenol

> <PUBCHEM_IUPAC_CAS_NAME>
4-[4-(thiophen-2-ylmethyl)-1-piperazinyl]phenol

> <PUBCHEM_IUPAC_NAME_MARKUP>
4-[4-(thiophen-2-ylmethyl)piperazin-1-yl]phenol

> <PUBCHEM_IUPAC_NAME>
4-[4-(thiophen-2-ylmethyl)piperazin-1-yl]phenol

> <PUBCHEM_IUPAC_SYSTEMATIC_NAME>
4-[4-(thiophen-2-ylmethyl)piperazin-1-yl]phenol

> <PUBCHEM_IUPAC_TRADITIONAL_NAME>
4-[4-(2-thenyl)piperazino]phenol

> <PUBCHEM_IUPAC_INCHI>
InChI=1S/C15H18N2OS/c18-14-5-3-13(4-6-14)17-9-7-16(8-10-17)12-15-2-1-11-19-15/h1-6,11,18H,7-10,12H2

> <PUBCHEM_IUPAC_INCHIKEY>
UCIZFJJDTYKVFG-UHFFFAOYSA-N

> <PUBCHEM_XLOGP3_AA>
2.7

> <PUBCHEM_EXACT_MASS>
274.11398438

> <PUBCHEM_MOLECULAR_FORMULA>
C15H18N2OS

> <PUBCHEM_MOLECULAR_WEIGHT>
274.4

> <PUBCHEM_OPENEYE_CAN_SMILES>
C1CN(CCN1CC2=CC=CS2)C3=CC=C(C=C3)O

> <PUBCHEM_OPENEYE_ISO_SMILES>
C1CN(CCN1CC2=CC=CS2)C3=CC=C(C=C3)O

> <PUBCHEM_CACTVS_TPSA>
55

> <PUBCHEM_MONOISOTOPIC_WEIGHT>
274.11398438

> <PUBCHEM_TOTAL_CHARGE>
0

> <PUBCHEM_HEAVY_ATOM_COUNT>
19

> <PUBCHEM_ATOM_DEF_STEREO_COUNT>
0

> <PUBCHEM_ATOM_UDEF_STEREO_COUNT>
0

> <PUBCHEM_BOND_DEF_STEREO_COUNT>
0

> <PUBCHEM_BOND_UDEF_STEREO_COUNT>
0

> <PUBCHEM_ISOTOPIC_ATOM_COUNT>
0

> <PUBCHEM_COMPONENT_COUNT>
1

> <PUBCHEM_CACTVS_TAUTO_COUNT>
-1

> <PUBCHEM_COORDINATE_TYPE>
1
5
255

> <PUBCHEM_BONDANNOTATIONS>
1  11  8
1  19  8
10  12  8
10  13  8
11  14  8
12  15  8
13  16  8
14  18  8
15  17  8
16  17  8
18  19  8

$$$$
