156014041
  -OEChem-09292322422D

 65 69  0     1  0  0  0  0  0999 V2000
    2.0000    0.0771    0.0000 Cl  0  0  0  0  0  0  0  0  0  0  0  0
   14.2046   -1.9567    0.0000 O   0  0  0  0  0  0  0  0  0  0  0  0
   13.0039    1.3421    0.0000 O   0  0  0  0  0  0  0  0  0  0  0  0
   13.3478   -0.4007    0.0000 N   0  0  0  0  0  0  0  0  0  0  0  0
    7.2909    0.1596    0.0000 N   0  0  0  0  0  0  0  0  0  0  0  0
    5.4115   -0.5244    0.0000 N   0  0  0  0  0  0  0  0  0  0  0  0
   16.3290    0.2447    0.0000 C   0  0  2  0  0  0  0  0  0  0  0  0
   16.5879    1.2107    0.0000 C   0  0  1  0  0  0  0  0  0  0  0  0
   14.9563   -0.3473    0.0000 C   0  0  2  0  0  0  0  0  0  0  0  0
   14.6143    0.5924    0.0000 C   0  0  1  0  0  0  0  0  0  0  0  0
   15.8513    2.1933    0.0000 C   0  0  0  0  0  0  0  0  0  0  0  0
   17.7280   -0.2641    0.0000 C   0  0  0  0  0  0  0  0  0  0  0  0
   17.9868    0.7018    0.0000 C   0  0  0  0  0  0  0  0  0  0  0  0
   14.1714   -0.9573    0.0000 C   0  0  0  0  0  0  0  0  0  0  0  0
   13.6209    0.5551    0.0000 C   0  0  0  0  0  0  0  0  0  0  0  0
   12.4081   -0.7427    0.0000 C   0  0  0  0  0  0  0  0  0  0  0  0
   11.6420   -0.0999    0.0000 C   0  0  0  0  0  0  0  0  0  0  0  0
   10.7023   -0.4419    0.0000 C   0  0  0  0  0  0  0  0  0  0  0  0
    9.9363    0.2009    0.0000 C   0  0  0  0  0  0  0  0  0  0  0  0
    8.9966   -0.1412    0.0000 C   0  0  0  0  0  0  0  0  0  0  0  0
    8.2305    0.5016    0.0000 C   0  0  0  0  0  0  0  0  0  0  0  0
    6.5248    0.8024    0.0000 C   0  0  0  0  0  0  0  0  0  0  0  0
    7.1172   -0.8252    0.0000 C   0  0  0  0  0  0  0  0  0  0  0  0
    5.5851    0.4604    0.0000 C   0  0  0  0  0  0  0  0  0  0  0  0
    6.1775   -1.1672    0.0000 C   0  0  0  0  0  0  0  0  0  0  0  0
    4.4718   -0.8664    0.0000 C   0  0  0  0  0  0  0  0  0  0  0  0
    3.7057   -0.2237    0.0000 C   0  0  0  0  0  0  0  0  0  0  0  0
    4.2981   -1.8513    0.0000 C   0  0  0  0  0  0  0  0  0  0  0  0
    2.7660   -0.5657    0.0000 C   0  0  0  0  0  0  0  0  0  0  0  0
    3.3584   -2.1933    0.0000 C   0  0  0  0  0  0  0  0  0  0  0  0
    2.5924   -1.5505    0.0000 C   0  0  0  0  0  0  0  0  0  0  0  0
   16.1091   -0.5763    0.0000 H   0  0  0  0  0  0  0  0  0  0  0  0
   16.8079    2.0317    0.0000 H   0  0  0  0  0  0  0  0  0  0  0  0
   15.2471   -1.1460    0.0000 H   0  0  0  0  0  0  0  0  0  0  0  0
   14.3236    1.3912    0.0000 H   0  0  0  0  0  0  0  0  0  0  0  0
   16.1691    2.7256    0.0000 H   0  0  0  0  0  0  0  0  0  0  0  0
   15.2381    2.2852    0.0000 H   0  0  0  0  0  0  0  0  0  0  0  0
   17.5331   -0.8526    0.0000 H   0  0  0  0  0  0  0  0  0  0  0  0
   18.3220   -0.4419    0.0000 H   0  0  0  0  0  0  0  0  0  0  0  0
   18.5808    0.5241    0.0000 H   0  0  0  0  0  0  0  0  0  0  0  0
   18.1817    1.2904    0.0000 H   0  0  0  0  0  0  0  0  0  0  0  0
   11.9331   -1.1412    0.0000 H   0  0  0  0  0  0  0  0  0  0  0  0
   12.7181   -1.2796    0.0000 H   0  0  0  0  0  0  0  0  0  0  0  0
   12.1170    0.2986    0.0000 H   0  0  0  0  0  0  0  0  0  0  0  0
   11.3320    0.4370    0.0000 H   0  0  0  0  0  0  0  0  0  0  0  0
   10.2274   -0.8405    0.0000 H   0  0  0  0  0  0  0  0  0  0  0  0
   11.0123   -0.9789    0.0000 H   0  0  0  0  0  0  0  0  0  0  0  0
   10.4112    0.5994    0.0000 H   0  0  0  0  0  0  0  0  0  0  0  0
    9.6263    0.7378    0.0000 H   0  0  0  0  0  0  0  0  0  0  0  0
    8.5216   -0.5397    0.0000 H   0  0  0  0  0  0  0  0  0  0  0  0
    9.3066   -0.6781    0.0000 H   0  0  0  0  0  0  0  0  0  0  0  0
    8.7055    0.9002    0.0000 H   0  0  0  0  0  0  0  0  0  0  0  0
    7.9206    1.0386    0.0000 H   0  0  0  0  0  0  0  0  0  0  0  0
    6.9998    1.2009    0.0000 H   0  0  0  0  0  0  0  0  0  0  0  0
    6.2148    1.3393    0.0000 H   0  0  0  0  0  0  0  0  0  0  0  0
    7.2249   -1.4358    0.0000 H   0  0  0  0  0  0  0  0  0  0  0  0
    7.7372   -0.8252    0.0000 H   0  0  0  0  0  0  0  0  0  0  0  0
    5.4775    1.0710    0.0000 H   0  0  0  0  0  0  0  0  0  0  0  0
    4.9651    0.4604    0.0000 H   0  0  0  0  0  0  0  0  0  0  0  0
    5.7026   -1.5657    0.0000 H   0  0  0  0  0  0  0  0  0  0  0  0
    6.4875   -1.7042    0.0000 H   0  0  0  0  0  0  0  0  0  0  0  0
    3.8134    0.3869    0.0000 H   0  0  0  0  0  0  0  0  0  0  0  0
    4.7731   -2.2498    0.0000 H   0  0  0  0  0  0  0  0  0  0  0  0
    3.2508   -2.8039    0.0000 H   0  0  0  0  0  0  0  0  0  0  0  0
    2.0098   -1.7625    0.0000 H   0  0  0  0  0  0  0  0  0  0  0  0
  1 29  1  0  0  0  0
  2 14  2  0  0  0  0
  3 15  2  0  0  0  0
  4 14  1  0  0  0  0
  4 15  1  0  0  0  0
  4 16  1  0  0  0  0
  5 21  1  0  0  0  0
  5 22  1  0  0  0  0
  5 23  1  0  0  0  0
  6 24  1  0  0  0  0
  6 25  1  0  0  0  0
  6 26  1  0  0  0  0
  7  9  1  0  0  0  0
  7 11  1  0  0  0  0
  7 12  1  0  0  0  0
  7 32  1  1  0  0  0
  8 10  1  0  0  0  0
  8 11  1  0  0  0  0
  8 13  1  0  0  0  0
  8 33  1  6  0  0  0
  9 10  1  0  0  0  0
  9 14  1  0  0  0  0
  9 34  1  6  0  0  0
 10 15  1  0  0  0  0
 10 35  1  6  0  0  0
 11 36  1  0  0  0  0
 11 37  1  0  0  0  0
 12 13  1  0  0  0  0
 12 38  1  0  0  0  0
 12 39  1  0  0  0  0
 13 40  1  0  0  0  0
 13 41  1  0  0  0  0
 16 17  1  0  0  0  0
 16 42  1  0  0  0  0
 16 43  1  0  0  0  0
 17 18  1  0  0  0  0
 17 44  1  0  0  0  0
 17 45  1  0  0  0  0
 18 19  1  0  0  0  0
 18 46  1  0  0  0  0
 18 47  1  0  0  0  0
 19 20  1  0  0  0  0
 19 48  1  0  0  0  0
 19 49  1  0  0  0  0
 20 21  1  0  0  0  0
 20 50  1  0  0  0  0
 20 51  1  0  0  0  0
 21 52  1  0  0  0  0
 21 53  1  0  0  0  0
 22 24  1  0  0  0  0
 22 54  1  0  0  0  0
 22 55  1  0  0  0  0
 23 25  1  0  0  0  0
 23 56  1  0  0  0  0
 23 57  1  0  0  0  0
 24 58  1  0  0  0  0
 24 59  1  0  0  0  0
 25 60  1  0  0  0  0
 25 61  1  0  0  0  0
 26 27  2  0  0  0  0
 26 28  1  0  0  0  0
 27 29  1  0  0  0  0
 27 62  1  0  0  0  0
 28 30  2  0  0  0  0
 28 63  1  0  0  0  0
 29 31  2  0  0  0  0
 30 31  1  0  0  0  0
 30 64  1  0  0  0  0
 31 65  1  0  0  0  0
M  END
> <PUBCHEM_COMPOUND_CID>
156014041

> <PUBCHEM_COMPOUND_CANONICALIZED>
1

> <PUBCHEM_CACTVS_COMPLEXITY>
637

> <PUBCHEM_CACTVS_HBOND_ACCEPTOR>
4

> <PUBCHEM_CACTVS_HBOND_DONOR>
0

> <PUBCHEM_CACTVS_ROTATABLE_BOND>
8

> <PUBCHEM_CACTVS_SUBSKEYS>
AAADcfB7MAAEAAAAAAAAAAAAAAAAAeMEAAA8YIAAAAAWAAABAAAAHgIAAAAADQrBkCQwwIMAAACIACVSUACCAAAhBwAIiAEIZogIYDLBk5GUIAhghiDIyAcdiMCOgAAAAAIAAAAAAAQABCAAAQAACAAAAA==

> <PUBCHEM_IUPAC_OPENEYE_NAME>
(1S,2R,6S,7R)-4-[6-[4-(3-chlorophenyl)piperazin-1-yl]hexyl]-4-azatricyclo[5.2.1.02,6]decane-3,5-dione

> <PUBCHEM_IUPAC_CAS_NAME>
(1S,2R,6S,7R)-4-[6-[4-(3-chlorophenyl)-1-piperazinyl]hexyl]-4-azatricyclo[5.2.1.02,6]decane-3,5-dione

> <PUBCHEM_IUPAC_NAME_MARKUP>
(1<I>S</I>,2<I>R</I>,6<I>S</I>,7<I>R</I>)-4-[6-[4-(3-chlorophenyl)piperazin-1-yl]hexyl]-4-azatricyclo[5.2.1.0<SUP>2,6</SUP>]decane-3,5-dione

> <PUBCHEM_IUPAC_NAME>
(1S,2R,6S,7R)-4-[6-[4-(3-chlorophenyl)piperazin-1-yl]hexyl]-4-azatricyclo[5.2.1.02,6]decane-3,5-dione

> <PUBCHEM_IUPAC_SYSTEMATIC_NAME>
(1S,2R,6S,7R)-4-[6-[4-(3-chlorophenyl)piperazin-1-yl]hexyl]-4-azatricyclo[5.2.1.02,6]decane-3,5-dione

> <PUBCHEM_IUPAC_TRADITIONAL_NAME>
(1S,2R,6S,7R)-4-[6-[4-(3-chlorophenyl)piperazino]hexyl]-4-azatricyclo[5.2.1.02,6]decane-3,5-quinone

> <PUBCHEM_IUPAC_INCHI>
InChI=1S/C25H34ClN3O2/c26-20-6-5-7-21(17-20)28-14-12-27(13-15-28)10-3-1-2-4-11-29-24(30)22-18-8-9-19(16-18)23(22)25(29)31/h5-7,17-19,22-23H,1-4,8-16H2/t18-,19+,22+,23-

> <PUBCHEM_IUPAC_INCHIKEY>
IBEYKGQZOVQASZ-ZIIYYELXSA-N

> <PUBCHEM_XLOGP3_AA>
4.6

> <PUBCHEM_EXACT_MASS>
443.2339550

> <PUBCHEM_MOLECULAR_FORMULA>
C25H34ClN3O2

> <PUBCHEM_MOLECULAR_WEIGHT>
444.0

> <PUBCHEM_OPENEYE_CAN_SMILES>
C1CC2CC1C3C2C(=O)N(C3=O)CCCCCCN4CCN(CC4)C5=CC(=CC=C5)Cl

> <PUBCHEM_OPENEYE_ISO_SMILES>
C1C[C@H]2C[C@@H]1[C@H]3[C@@H]2C(=O)N(C3=O)CCCCCCN4CCN(CC4)C5=CC(=CC=C5)Cl

> <PUBCHEM_CACTVS_TPSA>
43.9

> <PUBCHEM_MONOISOTOPIC_WEIGHT>
443.2339550

> <PUBCHEM_TOTAL_CHARGE>
0

> <PUBCHEM_HEAVY_ATOM_COUNT>
31

> <PUBCHEM_ATOM_DEF_STEREO_COUNT>
4

> <PUBCHEM_ATOM_UDEF_STEREO_COUNT>
0

> <PUBCHEM_BOND_DEF_STEREO_COUNT>
0

> <PUBCHEM_BOND_UDEF_STEREO_COUNT>
0

> <PUBCHEM_ISOTOPIC_ATOM_COUNT>
0

> <PUBCHEM_COMPONENT_COUNT>
1

> <PUBCHEM_CACTVS_TAUTO_COUNT>
-1

> <PUBCHEM_COORDINATE_TYPE>
1
5
255

> <PUBCHEM_BONDANNOTATIONS>
10  35  6
26  27  8
26  28  8
27  29  8
28  30  8
29  31  8
30  31  8
7  32  5
8  33  6
9  34  6

$$$$
