122181005
  -OEChem-09292322362D

 60 64  0     1  0  0  0  0  0999 V2000
    4.1701   -0.6029    0.0000 Cl  0  0  0  0  0  0  0  0  0  0  0  0
    2.1810   -0.8120    0.0000 Cl  0  0  0  0  0  0  0  0  0  0  0  0
    8.1482   -0.1848    0.0000 O   0  0  0  0  0  0  0  0  0  0  0  0
    6.9726    1.4332    0.0000 N   0  0  0  0  0  0  0  0  0  0  0  0
    4.9836    1.2242    0.0000 N   0  0  0  0  0  0  0  0  0  0  0  0
   11.1317    0.1288    0.0000 N   0  0  0  0  0  0  0  0  0  0  0  0
   11.6317    0.9948    0.0000 N   0  0  0  0  0  0  0  0  0  0  0  0
   12.6099    0.7869    0.0000 N   0  0  0  0  0  0  0  0  0  0  0  0
   16.2064   -2.2423    0.0000 N   0  0  0  0  0  0  0  0  0  0  0  0
    6.5659    0.5197    0.0000 C   0  0  0  0  0  0  0  0  0  0  0  0
    6.3848    2.2423    0.0000 C   0  0  0  0  0  0  0  0  0  0  0  0
    5.5714    0.4152    0.0000 C   0  0  0  0  0  0  0  0  0  0  0  0
    5.3903    2.1377    0.0000 C   0  0  0  0  0  0  0  0  0  0  0  0
    7.9671    1.5378    0.0000 C   0  0  0  0  0  0  0  0  0  0  0  0
    8.5549    0.7288    0.0000 C   0  0  3  0  0  0  0  0  0  0  0  0
    9.5494    0.8333    0.0000 C   0  0  0  0  0  0  0  0  0  0  0  0
    3.9890    1.1197    0.0000 C   0  0  0  0  0  0  0  0  0  0  0  0
   10.1372    0.0243    0.0000 C   0  0  0  0  0  0  0  0  0  0  0  0
    3.5823    0.2061    0.0000 C   0  0  0  0  0  0  0  0  0  0  0  0
    3.4013    1.9287    0.0000 C   0  0  0  0  0  0  0  0  0  0  0  0
    2.5878    0.1016    0.0000 C   0  0  0  0  0  0  0  0  0  0  0  0
    2.4067    1.8242    0.0000 C   0  0  0  0  0  0  0  0  0  0  0  0
   11.8009   -0.6143    0.0000 C   0  0  0  0  0  0  0  0  0  0  0  0
    2.0000    0.9106    0.0000 C   0  0  0  0  0  0  0  0  0  0  0  0
   12.7144   -0.2076    0.0000 C   0  0  0  0  0  0  0  0  0  0  0  0
   13.5804   -0.7076    0.0000 C   0  0  0  0  0  0  0  0  0  0  0  0
   14.4465   -0.2076    0.0000 C   0  0  0  0  0  0  0  0  0  0  0  0
   13.5804   -1.7076    0.0000 C   0  0  0  0  0  0  0  0  0  0  0  0
   15.3125   -0.7076    0.0000 C   0  0  0  0  0  0  0  0  0  0  0  0
   15.3125   -1.7076    0.0000 C   0  0  0  0  0  0  0  0  0  0  0  0
   14.4465   -2.2076    0.0000 C   0  0  0  0  0  0  0  0  0  0  0  0
   16.2064   -0.1729    0.0000 C   0  0  0  0  0  0  0  0  0  0  0  0
   17.1125   -0.6868    0.0000 C   0  0  0  0  0  0  0  0  0  0  0  0
   17.1125   -1.7284    0.0000 C   0  0  0  0  0  0  0  0  0  0  0  0
    6.5226   -0.0988    0.0000 H   0  0  0  0  0  0  0  0  0  0  0  0
    7.1675    0.3697    0.0000 H   0  0  0  0  0  0  0  0  0  0  0  0
    6.9421    2.5141    0.0000 H   0  0  0  0  0  0  0  0  0  0  0  0
    6.2139    2.8382    0.0000 H   0  0  0  0  0  0  0  0  0  0  0  0
    8.5244    1.8096    0.0000 H   0  0  0  0  0  0  0  0  0  0  0  0
    7.7962    2.1338    0.0000 H   0  0  0  0  0  0  0  0  0  0  0  0
    5.0141    0.1434    0.0000 H   0  0  0  0  0  0  0  0  0  0  0  0
    5.7422   -0.1808    0.0000 H   0  0  0  0  0  0  0  0  0  0  0  0
    5.4336    2.7562    0.0000 H   0  0  0  0  0  0  0  0  0  0  0  0
    4.7887    2.2877    0.0000 H   0  0  0  0  0  0  0  0  0  0  0  0
    7.9383    0.6640    0.0000 H   0  0  0  0  0  0  0  0  0  0  0  0
   10.1067    1.1051    0.0000 H   0  0  0  0  0  0  0  0  0  0  0  0
    9.3785    1.4293    0.0000 H   0  0  0  0  0  0  0  0  0  0  0  0
    9.5800   -0.2475    0.0000 H   0  0  0  0  0  0  0  0  0  0  0  0
   10.3081   -0.5717    0.0000 H   0  0  0  0  0  0  0  0  0  0  0  0
    8.5126   -0.6864    0.0000 H   0  0  0  0  0  0  0  0  0  0  0  0
    3.6534    2.4951    0.0000 H   0  0  0  0  0  0  0  0  0  0  0  0
    2.0423    2.3257    0.0000 H   0  0  0  0  0  0  0  0  0  0  0  0
   11.6720   -1.2208    0.0000 H   0  0  0  0  0  0  0  0  0  0  0  0
    1.3834    0.8458    0.0000 H   0  0  0  0  0  0  0  0  0  0  0  0
   14.4465    0.4124    0.0000 H   0  0  0  0  0  0  0  0  0  0  0  0
   13.0435   -2.0176    0.0000 H   0  0  0  0  0  0  0  0  0  0  0  0
   14.4465   -2.8276    0.0000 H   0  0  0  0  0  0  0  0  0  0  0  0
   16.1993    0.4470    0.0000 H   0  0  0  0  0  0  0  0  0  0  0  0
   17.6482   -0.3747    0.0000 H   0  0  0  0  0  0  0  0  0  0  0  0
   17.6482   -2.0405    0.0000 H   0  0  0  0  0  0  0  0  0  0  0  0
  1 19  1  0  0  0  0
  2 21  1  0  0  0  0
  3 15  1  0  0  0  0
  3 50  1  0  0  0  0
  4 10  1  0  0  0  0
  4 11  1  0  0  0  0
  4 14  1  0  0  0  0
  5 12  1  0  0  0  0
  5 13  1  0  0  0  0
  5 17  1  0  0  0  0
  6  7  1  0  0  0  0
  6 18  1  0  0  0  0
  6 23  1  0  0  0  0
  7  8  2  0  0  0  0
  8 25  1  0  0  0  0
  9 30  1  0  0  0  0
  9 34  2  0  0  0  0
 10 12  1  0  0  0  0
 10 35  1  0  0  0  0
 10 36  1  0  0  0  0
 11 13  1  0  0  0  0
 11 37  1  0  0  0  0
 11 38  1  0  0  0  0
 12 41  1  0  0  0  0
 12 42  1  0  0  0  0
 13 43  1  0  0  0  0
 13 44  1  0  0  0  0
 14 15  1  0  0  0  0
 14 39  1  0  0  0  0
 14 40  1  0  0  0  0
 15 16  1  0  0  0  0
 15 45  1  0  0  0  0
 16 18  1  0  0  0  0
 16 46  1  0  0  0  0
 16 47  1  0  0  0  0
 17 19  2  0  0  0  0
 17 20  1  0  0  0  0
 18 48  1  0  0  0  0
 18 49  1  0  0  0  0
 19 21  1  0  0  0  0
 20 22  2  0  0  0  0
 20 51  1  0  0  0  0
 21 24  2  0  0  0  0
 22 24  1  0  0  0  0
 22 52  1  0  0  0  0
 23 25  2  0  0  0  0
 23 53  1  0  0  0  0
 24 54  1  0  0  0  0
 25 26  1  0  0  0  0
 26 27  2  0  0  0  0
 26 28  1  0  0  0  0
 27 29  1  0  0  0  0
 27 55  1  0  0  0  0
 28 31  2  0  0  0  0
 28 56  1  0  0  0  0
 29 30  2  0  0  0  0
 29 32  1  0  0  0  0
 30 31  1  0  0  0  0
 31 57  1  0  0  0  0
 32 33  2  0  0  0  0
 32 58  1  0  0  0  0
 33 34  1  0  0  0  0
 33 59  1  0  0  0  0
 34 60  1  0  0  0  0
M  END
> <PUBCHEM_COMPOUND_CID>
122181005

> <PUBCHEM_COMPOUND_CANONICALIZED>
1

> <PUBCHEM_CACTVS_COMPLEXITY>
639

> <PUBCHEM_CACTVS_HBOND_ACCEPTOR>
6

> <PUBCHEM_CACTVS_HBOND_DONOR>
1

> <PUBCHEM_CACTVS_ROTATABLE_BOND>
7

> <PUBCHEM_CACTVS_SUBSKEYS>
AAADceB7oAAGAAAAAAAAAAAAAAAAAWAAAAA8eIEAAAAAAACx/AAAHgIICAAADB7hniY8wPMIEgCiAzRnRACChCQxlyAY2mA4dpgKcOLBk5HUYAhigADYyAcQgMAOCAACAAICABQQAAQABAQAKAAAAAAAAA==

> <PUBCHEM_IUPAC_OPENEYE_NAME>
1-[4-(2,3-dichlorophenyl)piperazin-1-yl]-4-[4-(6-quinolyl)triazol-1-yl]butan-2-ol

> <PUBCHEM_IUPAC_CAS_NAME>
1-[4-(2,3-dichlorophenyl)-1-piperazinyl]-4-[4-(6-quinolinyl)-1-triazolyl]-2-butanol

> <PUBCHEM_IUPAC_NAME_MARKUP>
1-[4-(2,3-dichlorophenyl)piperazin-1-yl]-4-(4-quinolin-6-yltriazol-1-yl)butan-2-ol

> <PUBCHEM_IUPAC_NAME>
1-[4-(2,3-dichlorophenyl)piperazin-1-yl]-4-(4-quinolin-6-yltriazol-1-yl)butan-2-ol

> <PUBCHEM_IUPAC_SYSTEMATIC_NAME>
1-[4-[2,3-bis(chloranyl)phenyl]piperazin-1-yl]-4-(4-quinolin-6-yl-1,2,3-triazol-1-yl)butan-2-ol

> <PUBCHEM_IUPAC_TRADITIONAL_NAME>
1-[4-(2,3-dichlorophenyl)piperazino]-4-[4-(6-quinolyl)triazol-1-yl]butan-2-ol

> <PUBCHEM_IUPAC_INCHI>
InChI=1S/C25H26Cl2N6O/c26-21-4-1-5-24(25(21)27)32-13-11-31(12-14-32)16-20(34)8-10-33-17-23(29-30-33)19-6-7-22-18(15-19)3-2-9-28-22/h1-7,9,15,17,20,34H,8,10-14,16H2

> <PUBCHEM_IUPAC_INCHIKEY>
VVNKMNCWRHQTDH-UHFFFAOYSA-N

> <PUBCHEM_XLOGP3_AA>
4.2

> <PUBCHEM_EXACT_MASS>
496.1545149

> <PUBCHEM_MOLECULAR_FORMULA>
C25H26Cl2N6O

> <PUBCHEM_MOLECULAR_WEIGHT>
497.4

> <PUBCHEM_OPENEYE_CAN_SMILES>
C1CN(CCN1CC(CCN2C=C(N=N2)C3=CC4=C(C=C3)N=CC=C4)O)C5=C(C(=CC=C5)Cl)Cl

> <PUBCHEM_OPENEYE_ISO_SMILES>
C1CN(CCN1CC(CCN2C=C(N=N2)C3=CC4=C(C=C3)N=CC=C4)O)C5=C(C(=CC=C5)Cl)Cl

> <PUBCHEM_CACTVS_TPSA>
70.3

> <PUBCHEM_MONOISOTOPIC_WEIGHT>
496.1545149

> <PUBCHEM_TOTAL_CHARGE>
0

> <PUBCHEM_HEAVY_ATOM_COUNT>
34

> <PUBCHEM_ATOM_DEF_STEREO_COUNT>
0

> <PUBCHEM_ATOM_UDEF_STEREO_COUNT>
1

> <PUBCHEM_BOND_DEF_STEREO_COUNT>
0

> <PUBCHEM_BOND_UDEF_STEREO_COUNT>
0

> <PUBCHEM_ISOTOPIC_ATOM_COUNT>
0

> <PUBCHEM_COMPONENT_COUNT>
1

> <PUBCHEM_CACTVS_TAUTO_COUNT>
-1

> <PUBCHEM_COORDINATE_TYPE>
1
5
255

> <PUBCHEM_BONDANNOTATIONS>
17  19  8
17  20  8
19  21  8
20  22  8
21  24  8
22  24  8
23  25  8
26  27  8
26  28  8
27  29  8
28  31  8
29  30  8
29  32  8
15  3  3
30  31  8
32  33  8
33  34  8
6  23  8
6  7  8
7  8  8
8  25  8
9  30  8
9  34  8

$$$$
