23625084
  -OEChem-09292322252D

 66 70  0     0  0  0  0  0  0999 V2000
   10.1279    1.6651    0.0000 O   0  0  0  0  0  0  0  0  0  0  0  0
   16.1279   -1.7990    0.0000 O   0  0  0  0  0  0  0  0  0  0  0  0
   13.1279   -0.0670    0.0000 N   0  0  0  0  0  0  0  0  0  0  0  0
   15.1279   -0.0670    0.0000 N   0  0  0  0  0  0  0  0  0  0  0  0
    4.5981    2.1651    0.0000 N   0  0  0  0  0  0  0  0  0  0  0  0
    5.5443    0.8603    0.0000 N   0  0  0  0  0  0  0  0  0  0  0  0
   13.6279   -0.9330    0.0000 C   0  0  0  0  0  0  0  0  0  0  0  0
   13.6279    0.7990    0.0000 C   0  0  0  0  0  0  0  0  0  0  0  0
   14.6279   -0.9330    0.0000 C   0  0  0  0  0  0  0  0  0  0  0  0
   14.6279    0.7990    0.0000 C   0  0  0  0  0  0  0  0  0  0  0  0
   12.1279   -0.0670    0.0000 C   0  0  0  0  0  0  0  0  0  0  0  0
   11.6279    0.7990    0.0000 C   0  0  0  0  0  0  0  0  0  0  0  0
   16.1279   -0.0670    0.0000 C   0  0  0  0  0  0  0  0  0  0  0  0
   10.6279    0.7990    0.0000 C   0  0  0  0  0  0  0  0  0  0  0  0
   16.6279   -0.9330    0.0000 C   0  0  0  0  0  0  0  0  0  0  0  0
   16.6279    0.7990    0.0000 C   0  0  0  0  0  0  0  0  0  0  0  0
   17.6279   -0.9330    0.0000 C   0  0  0  0  0  0  0  0  0  0  0  0
   17.6279    0.7990    0.0000 C   0  0  0  0  0  0  0  0  0  0  0  0
   18.1279   -0.0670    0.0000 C   0  0  0  0  0  0  0  0  0  0  0  0
    9.1279    1.6651    0.0000 C   0  0  0  0  0  0  0  0  0  0  0  0
    8.6279    2.5311    0.0000 C   0  0  0  0  0  0  0  0  0  0  0  0
    8.6279    0.7990    0.0000 C   0  0  0  0  0  0  0  0  0  0  0  0
    7.1279    1.6651    0.0000 C   0  0  0  0  0  0  0  0  0  0  0  0
   16.6279   -2.6651    0.0000 C   0  0  0  0  0  0  0  0  0  0  0  0
    6.1279    1.6651    0.0000 C   0  0  0  0  0  0  0  0  0  0  0  0
    7.6279    2.5311    0.0000 C   0  0  0  0  0  0  0  0  0  0  0  0
    7.6279    0.7990    0.0000 C   0  0  0  0  0  0  0  0  0  0  0  0
    4.5981    1.1651    0.0000 C   0  0  0  0  0  0  0  0  0  0  0  0
    5.5443    2.4698    0.0000 C   0  0  0  0  0  0  0  0  0  0  0  0
    3.7320    2.6651    0.0000 C   0  0  0  0  0  0  0  0  0  0  0  0
    2.8660    2.1651    0.0000 C   0  0  0  0  0  0  0  0  0  0  0  0
    3.7320    0.6651    0.0000 C   0  0  0  0  0  0  0  0  0  0  0  0
    2.8660    1.1651    0.0000 C   0  0  0  0  0  0  0  0  0  0  0  0
    2.0000    2.6651    0.0000 C   0  0  0  0  0  0  0  0  0  0  0  0
   13.0453   -1.1451    0.0000 H   0  0  0  0  0  0  0  0  0  0  0  0
   13.7356   -1.5436    0.0000 H   0  0  0  0  0  0  0  0  0  0  0  0
   13.7356    1.4096    0.0000 H   0  0  0  0  0  0  0  0  0  0  0  0
   13.0453    1.0111    0.0000 H   0  0  0  0  0  0  0  0  0  0  0  0
   14.5202   -1.5436    0.0000 H   0  0  0  0  0  0  0  0  0  0  0  0
   15.2105   -1.1451    0.0000 H   0  0  0  0  0  0  0  0  0  0  0  0
   15.2105    1.0111    0.0000 H   0  0  0  0  0  0  0  0  0  0  0  0
   14.5202    1.4096    0.0000 H   0  0  0  0  0  0  0  0  0  0  0  0
   11.5453   -0.2790    0.0000 H   0  0  0  0  0  0  0  0  0  0  0  0
   12.2356   -0.6776    0.0000 H   0  0  0  0  0  0  0  0  0  0  0  0
   12.2105    1.0111    0.0000 H   0  0  0  0  0  0  0  0  0  0  0  0
   11.5202    1.4096    0.0000 H   0  0  0  0  0  0  0  0  0  0  0  0
   10.0453    0.5870    0.0000 H   0  0  0  0  0  0  0  0  0  0  0  0
   10.7356    0.1885    0.0000 H   0  0  0  0  0  0  0  0  0  0  0  0
   16.3179    1.3360    0.0000 H   0  0  0  0  0  0  0  0  0  0  0  0
   17.9379   -1.4700    0.0000 H   0  0  0  0  0  0  0  0  0  0  0  0
   17.9379    1.3360    0.0000 H   0  0  0  0  0  0  0  0  0  0  0  0
   18.7479   -0.0670    0.0000 H   0  0  0  0  0  0  0  0  0  0  0  0
    8.9379    3.0680    0.0000 H   0  0  0  0  0  0  0  0  0  0  0  0
    8.9379    0.2621    0.0000 H   0  0  0  0  0  0  0  0  0  0  0  0
   16.0910   -2.9751    0.0000 H   0  0  0  0  0  0  0  0  0  0  0  0
   16.9379   -3.2020    0.0000 H   0  0  0  0  0  0  0  0  0  0  0  0
   17.1648   -2.3551    0.0000 H   0  0  0  0  0  0  0  0  0  0  0  0
    7.3179    3.0680    0.0000 H   0  0  0  0  0  0  0  0  0  0  0  0
    7.3179    0.2621    0.0000 H   0  0  0  0  0  0  0  0  0  0  0  0
    5.7369    3.0591    0.0000 H   0  0  0  0  0  0  0  0  0  0  0  0
    3.7320    3.2851    0.0000 H   0  0  0  0  0  0  0  0  0  0  0  0
    3.7320    0.0451    0.0000 H   0  0  0  0  0  0  0  0  0  0  0  0
    2.3291    0.8551    0.0000 H   0  0  0  0  0  0  0  0  0  0  0  0
    2.3100    3.2020    0.0000 H   0  0  0  0  0  0  0  0  0  0  0  0
    1.4631    2.9751    0.0000 H   0  0  0  0  0  0  0  0  0  0  0  0
    1.6900    2.1281    0.0000 H   0  0  0  0  0  0  0  0  0  0  0  0
  1 14  1  0  0  0  0
  1 20  1  0  0  0  0
  2 15  1  0  0  0  0
  2 24  1  0  0  0  0
  3  7  1  0  0  0  0
  3  8  1  0  0  0  0
  3 11  1  0  0  0  0
  4  9  1  0  0  0  0
  4 10  1  0  0  0  0
  4 13  1  0  0  0  0
  5 28  1  0  0  0  0
  5 29  1  0  0  0  0
  5 30  1  0  0  0  0
  6 25  1  0  0  0  0
  6 28  2  0  0  0  0
  7  9  1  0  0  0  0
  7 35  1  0  0  0  0
  7 36  1  0  0  0  0
  8 10  1  0  0  0  0
  8 37  1  0  0  0  0
  8 38  1  0  0  0  0
  9 39  1  0  0  0  0
  9 40  1  0  0  0  0
 10 41  1  0  0  0  0
 10 42  1  0  0  0  0
 11 12  1  0  0  0  0
 11 43  1  0  0  0  0
 11 44  1  0  0  0  0
 12 14  1  0  0  0  0
 12 45  1  0  0  0  0
 12 46  1  0  0  0  0
 13 15  1  0  0  0  0
 13 16  2  0  0  0  0
 14 47  1  0  0  0  0
 14 48  1  0  0  0  0
 15 17  2  0  0  0  0
 16 18  1  0  0  0  0
 16 49  1  0  0  0  0
 17 19  1  0  0  0  0
 17 50  1  0  0  0  0
 18 19  2  0  0  0  0
 18 51  1  0  0  0  0
 19 52  1  0  0  0  0
 20 21  2  0  0  0  0
 20 22  1  0  0  0  0
 21 26  1  0  0  0  0
 21 53  1  0  0  0  0
 22 27  2  0  0  0  0
 22 54  1  0  0  0  0
 23 25  1  0  0  0  0
 23 26  2  0  0  0  0
 23 27  1  0  0  0  0
 24 55  1  0  0  0  0
 24 56  1  0  0  0  0
 24 57  1  0  0  0  0
 25 29  2  0  0  0  0
 26 58  1  0  0  0  0
 27 59  1  0  0  0  0
 28 32  1  0  0  0  0
 29 60  1  0  0  0  0
 30 31  2  0  0  0  0
 30 61  1  0  0  0  0
 31 33  1  0  0  0  0
 31 34  1  0  0  0  0
 32 33  2  0  0  0  0
 32 62  1  0  0  0  0
 33 63  1  0  0  0  0
 34 64  1  0  0  0  0
 34 65  1  0  0  0  0
 34 66  1  0  0  0  0
M  END
> <PUBCHEM_COMPOUND_CID>
23625084

> <PUBCHEM_COMPOUND_CANONICALIZED>
1

> <PUBCHEM_CACTVS_COMPLEXITY>
605

> <PUBCHEM_CACTVS_HBOND_ACCEPTOR>
5

> <PUBCHEM_CACTVS_HBOND_DONOR>
0

> <PUBCHEM_CACTVS_ROTATABLE_BOND>
8

> <PUBCHEM_CACTVS_SUBSKEYS>
AAADcfB7sAAAAAAAAAAAAAAAAAAAAWAAAAA8eIEAAAAAAFgB9AAAHgAAAAAADAzhnwY/9p8MHACgAzZnZACCiC0xMqAJ2CA/fJiObuLEuZuXOCjuwBPY6CeQ0IMOIAAAAAAAEABAAAAAAAAgAAAAAAAAAA==

> <PUBCHEM_IUPAC_OPENEYE_NAME>
2-[4-[3-[4-(2-methoxyphenyl)piperazin-1-yl]propoxy]phenyl]-6-methyl-imidazo[1,2-a]pyridine

> <PUBCHEM_IUPAC_CAS_NAME>
2-[4-[3-[4-(2-methoxyphenyl)-1-piperazinyl]propoxy]phenyl]-6-methylimidazo[1,2-a]pyridine

> <PUBCHEM_IUPAC_NAME_MARKUP>
2-[4-[3-[4-(2-methoxyphenyl)piperazin-1-yl]propoxy]phenyl]-6-methylimidazo[1,2-a]pyridine

> <PUBCHEM_IUPAC_NAME>
2-[4-[3-[4-(2-methoxyphenyl)piperazin-1-yl]propoxy]phenyl]-6-methylimidazo[1,2-a]pyridine

> <PUBCHEM_IUPAC_SYSTEMATIC_NAME>
2-[4-[3-[4-(2-methoxyphenyl)piperazin-1-yl]propoxy]phenyl]-6-methyl-imidazo[1,2-a]pyridine

> <PUBCHEM_IUPAC_TRADITIONAL_NAME>
2-[4-[3-[4-(2-methoxyphenyl)piperazino]propoxy]phenyl]-6-methyl-imidazo[1,2-a]pyridine

> <PUBCHEM_IUPAC_INCHI>
InChI=1S/C28H32N4O2/c1-22-8-13-28-29-25(21-32(28)20-22)23-9-11-24(12-10-23)34-19-5-14-30-15-17-31(18-16-30)26-6-3-4-7-27(26)33-2/h3-4,6-13,20-21H,5,14-19H2,1-2H3

> <PUBCHEM_IUPAC_INCHIKEY>
KAURFNYKOIEFHA-UHFFFAOYSA-N

> <PUBCHEM_XLOGP3_AA>
5.7

> <PUBCHEM_EXACT_MASS>
456.25252628

> <PUBCHEM_MOLECULAR_FORMULA>
C28H32N4O2

> <PUBCHEM_MOLECULAR_WEIGHT>
456.6

> <PUBCHEM_OPENEYE_CAN_SMILES>
CC1=CN2C=C(N=C2C=C1)C3=CC=C(C=C3)OCCCN4CCN(CC4)C5=CC=CC=C5OC

> <PUBCHEM_OPENEYE_ISO_SMILES>
CC1=CN2C=C(N=C2C=C1)C3=CC=C(C=C3)OCCCN4CCN(CC4)C5=CC=CC=C5OC

> <PUBCHEM_CACTVS_TPSA>
42.2

> <PUBCHEM_MONOISOTOPIC_WEIGHT>
456.25252628

> <PUBCHEM_TOTAL_CHARGE>
0

> <PUBCHEM_HEAVY_ATOM_COUNT>
34

> <PUBCHEM_ATOM_DEF_STEREO_COUNT>
0

> <PUBCHEM_ATOM_UDEF_STEREO_COUNT>
0

> <PUBCHEM_BOND_DEF_STEREO_COUNT>
0

> <PUBCHEM_BOND_UDEF_STEREO_COUNT>
0

> <PUBCHEM_ISOTOPIC_ATOM_COUNT>
0

> <PUBCHEM_COMPONENT_COUNT>
1

> <PUBCHEM_CACTVS_TAUTO_COUNT>
-1

> <PUBCHEM_COORDINATE_TYPE>
1
5
255

> <PUBCHEM_BONDANNOTATIONS>
13  15  8
13  16  8
15  17  8
16  18  8
17  19  8
18  19  8
20  21  8
20  22  8
21  26  8
22  27  8
23  26  8
23  27  8
25  29  8
28  32  8
30  31  8
31  33  8
32  33  8
5  28  8
5  29  8
5  30  8
6  25  8
6  28  8

$$$$
