19043056
  -OEChem-09292322212D

 61 64  0     1  0  0  0  0  0999 V2000
    8.6459    3.4002    0.0000 S   0  0  0  0  0  0  0  0  0  0  0  0
    9.0571   -0.5786    0.0000 O   0  0  0  0  0  0  0  0  0  0  0  0
    9.6406    3.5030    0.0000 O   0  0  0  0  0  0  0  0  0  0  0  0
    7.6512    3.2974    0.0000 O   0  0  0  0  0  0  0  0  0  0  0  0
    4.9889   -2.2261    0.0000 N   0  0  3  0  0  0  0  0  0  0  0  0
    7.2297   -0.7619    0.0000 N   0  0  0  0  0  0  0  0  0  0  0  0
    4.6783   -3.1766    0.0000 C   0  0  3  0  0  0  0  0  0  0  0  0
    5.2619   -3.9813    0.0000 C   0  0  0  0  0  0  0  0  0  0  0  0
    3.7320   -3.4813    0.0000 C   0  0  0  0  0  0  0  0  0  0  0  0
    4.6783   -4.7860    0.0000 C   0  0  0  0  0  0  0  0  0  0  0  0
    3.7320   -4.4813    0.0000 C   0  0  0  0  0  0  0  0  0  0  0  0
    5.9674   -2.0198    0.0000 C   0  0  0  0  0  0  0  0  0  0  0  0
    4.3211   -1.4817    0.0000 C   0  0  0  0  0  0  0  0  0  0  0  0
    2.8660   -2.9813    0.0000 C   0  0  0  0  0  0  0  0  0  0  0  0
    2.8660   -4.9813    0.0000 C   0  0  0  0  0  0  0  0  0  0  0  0
    6.2781   -1.0693    0.0000 C   0  0  0  0  0  0  0  0  0  0  0  0
    2.0000   -3.4813    0.0000 C   0  0  0  0  0  0  0  0  0  0  0  0
    3.3426   -1.6880    0.0000 C   0  0  0  0  0  0  0  0  0  0  0  0
    2.0000   -4.4813    0.0000 C   0  0  0  0  0  0  0  0  0  0  0  0
    5.6917   -0.2593    0.0000 C   0  0  0  0  0  0  0  0  0  0  0  0
    7.2314    0.2381    0.0000 C   0  0  0  0  0  0  0  0  0  0  0  0
    6.2809    0.5487    0.0000 C   0  0  0  0  0  0  0  0  0  0  0  0
    8.0414    0.8244    0.0000 C   0  0  0  0  0  0  0  0  0  0  0  0
    7.9386    1.8191    0.0000 C   0  0  0  0  0  0  0  0  0  0  0  0
    8.9543    0.4161    0.0000 C   0  0  0  0  0  0  0  0  0  0  0  0
    8.7487    2.4055    0.0000 C   0  0  0  0  0  0  0  0  0  0  0  0
    9.6615    1.9972    0.0000 C   0  0  0  0  0  0  0  0  0  0  0  0
    9.7643    1.0025    0.0000 C   0  0  0  0  0  0  0  0  0  0  0  0
    8.5431    4.3949    0.0000 C   0  0  0  0  0  0  0  0  0  0  0  0
    9.3531    4.9813    0.0000 C   0  0  0  0  0  0  0  0  0  0  0  0
    9.9699   -0.9869    0.0000 C   0  0  0  0  0  0  0  0  0  0  0  0
    5.2908   -3.0804    0.0000 H   0  0  0  0  0  0  0  0  0  0  0  0
    5.7227   -4.3960    0.0000 H   0  0  0  0  0  0  0  0  0  0  0  0
    5.7227   -3.5666    0.0000 H   0  0  0  0  0  0  0  0  0  0  0  0
    4.4272   -5.3530    0.0000 H   0  0  0  0  0  0  0  0  0  0  0  0
    5.2156   -5.0953    0.0000 H   0  0  0  0  0  0  0  0  0  0  0  0
    5.9880   -2.6395    0.0000 H   0  0  0  0  0  0  0  0  0  0  0  0
    6.5812   -2.1072    0.0000 H   0  0  0  0  0  0  0  0  0  0  0  0
    4.8474   -1.1541    0.0000 H   0  0  0  0  0  0  0  0  0  0  0  0
    4.0898   -0.9065    0.0000 H   0  0  0  0  0  0  0  0  0  0  0  0
    2.8660   -2.3613    0.0000 H   0  0  0  0  0  0  0  0  0  0  0  0
    2.8660   -5.6013    0.0000 H   0  0  0  0  0  0  0  0  0  0  0  0
    1.4631   -3.1713    0.0000 H   0  0  0  0  0  0  0  0  0  0  0  0
    3.2147   -1.0813    0.0000 H   0  0  0  0  0  0  0  0  0  0  0  0
    2.7359   -1.8158    0.0000 H   0  0  0  0  0  0  0  0  0  0  0  0
    3.4704   -2.2946    0.0000 H   0  0  0  0  0  0  0  0  0  0  0  0
    1.4631   -4.7913    0.0000 H   0  0  0  0  0  0  0  0  0  0  0  0
    7.7306   -1.1272    0.0000 H   0  0  0  0  0  0  0  0  0  0  0  0
    5.0717   -0.2582    0.0000 H   0  0  0  0  0  0  0  0  0  0  0  0
    6.0903    1.1387    0.0000 H   0  0  0  0  0  0  0  0  0  0  0  0
    7.3727    2.0723    0.0000 H   0  0  0  0  0  0  0  0  0  0  0  0
   10.1637    2.3608    0.0000 H   0  0  0  0  0  0  0  0  0  0  0  0
   10.3303    0.7493    0.0000 H   0  0  0  0  0  0  0  0  0  0  0  0
    8.2722    4.9526    0.0000 H   0  0  0  0  0  0  0  0  0  0  0  0
    7.9468    4.2251    0.0000 H   0  0  0  0  0  0  0  0  0  0  0  0
    9.7167    4.4791    0.0000 H   0  0  0  0  0  0  0  0  0  0  0  0
    9.8553    5.3449    0.0000 H   0  0  0  0  0  0  0  0  0  0  0  0
    8.9895    5.4835    0.0000 H   0  0  0  0  0  0  0  0  0  0  0  0
    9.7168   -1.5529    0.0000 H   0  0  0  0  0  0  0  0  0  0  0  0
   10.5359   -1.2401    0.0000 H   0  0  0  0  0  0  0  0  0  0  0  0
   10.2231   -0.4209    0.0000 H   0  0  0  0  0  0  0  0  0  0  0  0
  1  3  2  0  0  0  0
  1  4  2  0  0  0  0
  1 26  1  0  0  0  0
  1 29  1  0  0  0  0
  2 25  1  0  0  0  0
  2 31  1  0  0  0  0
  5  7  1  0  0  0  0
  5 12  1  0  0  0  0
  5 13  1  0  0  0  0
  6 16  1  0  0  0  0
  6 21  1  0  0  0  0
  6 48  1  0  0  0  0
  7  8  1  0  0  0  0
  7  9  1  0  0  0  0
  7 32  1  0  0  0  0
  8 10  1  0  0  0  0
  8 33  1  0  0  0  0
  8 34  1  0  0  0  0
  9 11  1  0  0  0  0
  9 14  2  0  0  0  0
 10 11  1  0  0  0  0
 10 35  1  0  0  0  0
 10 36  1  0  0  0  0
 11 15  2  0  0  0  0
 12 16  1  0  0  0  0
 12 37  1  0  0  0  0
 12 38  1  0  0  0  0
 13 18  1  0  0  0  0
 13 39  1  0  0  0  0
 13 40  1  0  0  0  0
 14 17  1  0  0  0  0
 14 41  1  0  0  0  0
 15 19  1  0  0  0  0
 15 42  1  0  0  0  0
 16 20  2  0  0  0  0
 17 19  2  0  0  0  0
 17 43  1  0  0  0  0
 18 44  1  0  0  0  0
 18 45  1  0  0  0  0
 18 46  1  0  0  0  0
 19 47  1  0  0  0  0
 20 22  1  0  0  0  0
 20 49  1  0  0  0  0
 21 22  2  0  0  0  0
 21 23  1  0  0  0  0
 22 50  1  0  0  0  0
 23 24  1  0  0  0  0
 23 25  2  0  0  0  0
 24 26  2  0  0  0  0
 24 51  1  0  0  0  0
 25 28  1  0  0  0  0
 26 27  1  0  0  0  0
 27 28  2  0  0  0  0
 27 52  1  0  0  0  0
 28 53  1  0  0  0  0
 29 30  1  0  0  0  0
 29 54  1  0  0  0  0
 29 55  1  0  0  0  0
 30 56  1  0  0  0  0
 30 57  1  0  0  0  0
 30 58  1  0  0  0  0
 31 59  1  0  0  0  0
 31 60  1  0  0  0  0
 31 61  1  0  0  0  0
M  END
> <PUBCHEM_COMPOUND_CID>
19043056

> <PUBCHEM_COMPOUND_CANONICALIZED>
1

> <PUBCHEM_CACTVS_COMPLEXITY>
679

> <PUBCHEM_CACTVS_HBOND_ACCEPTOR>
4

> <PUBCHEM_CACTVS_HBOND_DONOR>
1

> <PUBCHEM_CACTVS_ROTATABLE_BOND>
8

> <PUBCHEM_CACTVS_SUBSKEYS>
AAADceB7MABAAAAAAAAAAAAAAAAAAeIAAAAwYAAAAAAAAGAB0AAAHgQQAAAADCzF3gayh5PJlAqgAyRiRHDCiCAhKjAImTg+bJgMZuLksZuUMChm0BHo6AeQwOAOgIAAgAAYAAABAAEAADAAACAACQAAAA==

> <PUBCHEM_IUPAC_OPENEYE_NAME>
N-ethyl-N-[[5-(5-ethylsulfonyl-2-methoxy-phenyl)-1H-pyrrol-2-yl]methyl]indan-1-amine

> <PUBCHEM_IUPAC_CAS_NAME>
N-ethyl-N-[[5-(5-ethylsulfonyl-2-methoxyphenyl)-1H-pyrrol-2-yl]methyl]-2,3-dihydro-1H-inden-1-amine

> <PUBCHEM_IUPAC_NAME_MARKUP>
<I>N</I>-ethyl-<I>N</I>-[[5-(5-ethylsulfonyl-2-methoxyphenyl)-1<I>H</I>-pyrrol-2-yl]methyl]-2,3-dihydro-1<I>H</I>-inden-1-amine

> <PUBCHEM_IUPAC_NAME>
N-ethyl-N-[[5-(5-ethylsulfonyl-2-methoxyphenyl)-1H-pyrrol-2-yl]methyl]-2,3-dihydro-1H-inden-1-amine

> <PUBCHEM_IUPAC_SYSTEMATIC_NAME>
N-ethyl-N-[[5-(5-ethylsulfonyl-2-methoxy-phenyl)-1H-pyrrol-2-yl]methyl]-2,3-dihydro-1H-inden-1-amine

> <PUBCHEM_IUPAC_TRADITIONAL_NAME>
[5-(5-esyl-2-methoxy-phenyl)-1H-pyrrol-2-yl]methyl-ethyl-indan-1-yl-amine

> <PUBCHEM_IUPAC_INCHI>
InChI=1S/C25H30N2O3S/c1-4-27(24-14-10-18-8-6-7-9-21(18)24)17-19-11-13-23(26-19)22-16-20(31(28,29)5-2)12-15-25(22)30-3/h6-9,11-13,15-16,24,26H,4-5,10,14,17H2,1-3H3

> <PUBCHEM_IUPAC_INCHIKEY>
LALPTZBNNOBOPF-UHFFFAOYSA-N

> <PUBCHEM_XLOGP3_AA>
4.1

> <PUBCHEM_EXACT_MASS>
438.19771400

> <PUBCHEM_MOLECULAR_FORMULA>
C25H30N2O3S

> <PUBCHEM_MOLECULAR_WEIGHT>
438.6

> <PUBCHEM_OPENEYE_CAN_SMILES>
CCN(CC1=CC=C(N1)C2=C(C=CC(=C2)S(=O)(=O)CC)OC)C3CCC4=CC=CC=C34

> <PUBCHEM_OPENEYE_ISO_SMILES>
CCN(CC1=CC=C(N1)C2=C(C=CC(=C2)S(=O)(=O)CC)OC)C3CCC4=CC=CC=C34

> <PUBCHEM_CACTVS_TPSA>
70.8

> <PUBCHEM_MONOISOTOPIC_WEIGHT>
438.19771400

> <PUBCHEM_TOTAL_CHARGE>
0

> <PUBCHEM_HEAVY_ATOM_COUNT>
31

> <PUBCHEM_ATOM_DEF_STEREO_COUNT>
0

> <PUBCHEM_ATOM_UDEF_STEREO_COUNT>
1

> <PUBCHEM_BOND_DEF_STEREO_COUNT>
0

> <PUBCHEM_BOND_UDEF_STEREO_COUNT>
0

> <PUBCHEM_ISOTOPIC_ATOM_COUNT>
0

> <PUBCHEM_COMPONENT_COUNT>
1

> <PUBCHEM_CACTVS_TAUTO_COUNT>
-1

> <PUBCHEM_COORDINATE_TYPE>
1
5
255

> <PUBCHEM_BONDANNOTATIONS>
11  15  8
14  17  8
15  19  8
16  20  8
17  19  8
20  22  8
21  22  8
23  24  8
23  25  8
24  26  8
25  28  8
26  27  8
27  28  8
7  5  3
6  16  8
6  21  8
9  11  8
9  14  8

$$$$
