45265590
  -OEChem-09292322122D

 75 78  0     1  0  0  0  0  0999 V2000
    7.8917    0.0000    0.0000 Cl  0  0  0  0  0  0  0  0  0  0  0  0
   15.3773    7.9867    0.0000 S   0  0  0  0  0  0  0  0  0  0  0  0
    4.1546    4.8611    0.0000 O   0  0  0  0  0  0  0  0  0  0  0  0
   14.5094    8.4834    0.0000 O   0  0  0  0  0  0  0  0  0  0  0  0
   15.8740    8.8546    0.0000 O   0  0  0  0  0  0  0  0  0  0  0  0
   14.8807    7.1188    0.0000 O   0  0  0  0  0  0  0  0  0  0  0  0
    9.6546    7.4592    0.0000 N   0  0  3  0  0  0  0  0  0  0  0  0
    4.1546    6.5932    0.0000 N   0  0  0  0  0  0  0  0  0  0  0  0
    7.1546    6.5932    0.0000 C   0  0  0  0  0  0  0  0  0  0  0  0
    6.6546    5.7272    0.0000 C   0  0  0  0  0  0  0  0  0  0  0  0
    6.6546    7.4592    0.0000 C   0  0  0  0  0  0  0  0  0  0  0  0
    5.1546    6.5932    0.0000 C   0  0  0  0  0  0  0  0  0  0  0  0
    5.6546    5.7272    0.0000 C   0  0  0  0  0  0  0  0  0  0  0  0
    5.6546    7.4592    0.0000 C   0  0  0  0  0  0  0  0  0  0  0  0
    8.1546    6.5932    0.0000 C   0  0  0  0  0  0  0  0  0  0  0  0
    8.6546    7.4592    0.0000 C   0  0  0  0  0  0  0  0  0  0  0  0
   10.0885    8.3602    0.0000 C   0  0  0  0  0  0  0  0  0  0  0  0
   10.0885    6.5582    0.0000 C   0  0  0  0  0  0  0  0  0  0  0  0
   11.0634    8.5827    0.0000 C   0  0  0  0  0  0  0  0  0  0  0  0
   11.0634    6.3357    0.0000 C   0  0  0  0  0  0  0  0  0  0  0  0
   11.8453    7.9592    0.0000 C   0  0  0  0  0  0  0  0  0  0  0  0
   11.8453    6.9592    0.0000 C   0  0  0  0  0  0  0  0  0  0  0  0
    3.6546    5.7272    0.0000 C   0  0  0  0  0  0  0  0  0  0  0  0
    2.6546    5.7272    0.0000 C   0  0  0  0  0  0  0  0  0  0  0  0
   12.7392    8.4939    0.0000 C   0  0  0  0  0  0  0  0  0  0  0  0
   12.7392    6.4246    0.0000 C   0  0  0  0  0  0  0  0  0  0  0  0
   13.6453    7.9800    0.0000 C   0  0  0  0  0  0  0  0  0  0  0  0
   13.6453    6.9384    0.0000 C   0  0  0  0  0  0  0  0  0  0  0  0
    2.1546    4.8611    0.0000 C   0  0  0  0  0  0  0  0  0  0  0  0
    2.1546    6.5932    0.0000 C   0  0  0  0  0  0  0  0  0  0  0  0
    1.1546    4.8611    0.0000 C   0  0  0  0  0  0  0  0  0  0  0  0
    1.1546    6.5932    0.0000 C   0  0  0  0  0  0  0  0  0  0  0  0
    2.6893    3.9672    0.0000 C   0  0  0  0  0  0  0  0  0  0  0  0
    0.6546    5.7272    0.0000 C   0  0  0  0  0  0  0  0  0  0  0  0
    0.6200    3.9672    0.0000 C   0  0  0  0  0  0  0  0  0  0  0  0
    2.1754    3.0611    0.0000 C   0  0  0  0  0  0  0  0  0  0  0  0
    1.1338    3.0611    0.0000 C   0  0  0  0  0  0  0  0  0  0  0  0
   16.2453    7.4900    0.0000 C   0  0  0  0  0  0  0  0  0  0  0  0
    7.4646    7.1301    0.0000 H   0  0  0  0  0  0  0  0  0  0  0  0
    6.5470    5.1166    0.0000 H   0  0  0  0  0  0  0  0  0  0  0  0
    7.2372    5.5151    0.0000 H   0  0  0  0  0  0  0  0  0  0  0  0
    7.2372    7.6713    0.0000 H   0  0  0  0  0  0  0  0  0  0  0  0
    6.5470    8.0698    0.0000 H   0  0  0  0  0  0  0  0  0  0  0  0
    4.8446    7.1301    0.0000 H   0  0  0  0  0  0  0  0  0  0  0  0
    5.0720    5.5151    0.0000 H   0  0  0  0  0  0  0  0  0  0  0  0
    5.7623    5.1166    0.0000 H   0  0  0  0  0  0  0  0  0  0  0  0
    5.7623    8.0698    0.0000 H   0  0  0  0  0  0  0  0  0  0  0  0
    5.0720    7.6713    0.0000 H   0  0  0  0  0  0  0  0  0  0  0  0
    8.0470    5.9826    0.0000 H   0  0  0  0  0  0  0  0  0  0  0  0
    8.7372    6.3811    0.0000 H   0  0  0  0  0  0  0  0  0  0  0  0
    8.7623    8.0698    0.0000 H   0  0  0  0  0  0  0  0  0  0  0  0
    8.0720    7.6713    0.0000 H   0  0  0  0  0  0  0  0  0  0  0  0
    3.8446    7.1301    0.0000 H   0  0  0  0  0  0  0  0  0  0  0  0
   10.0885    8.9802    0.0000 H   0  0  0  0  0  0  0  0  0  0  0  0
    9.4840    8.4981    0.0000 H   0  0  0  0  0  0  0  0  0  0  0  0
    9.4840    6.4203    0.0000 H   0  0  0  0  0  0  0  0  0  0  0  0
   10.0885    5.9382    0.0000 H   0  0  0  0  0  0  0  0  0  0  0  0
   11.5482    8.9693    0.0000 H   0  0  0  0  0  0  0  0  0  0  0  0
   10.7944    9.1413    0.0000 H   0  0  0  0  0  0  0  0  0  0  0  0
   10.7944    5.7771    0.0000 H   0  0  0  0  0  0  0  0  0  0  0  0
   11.5482    5.9492    0.0000 H   0  0  0  0  0  0  0  0  0  0  0  0
   12.7320    9.1138    0.0000 H   0  0  0  0  0  0  0  0  0  0  0  0
   12.7320    5.8046    0.0000 H   0  0  0  0  0  0  0  0  0  0  0  0
   14.1810    6.6263    0.0000 H   0  0  0  0  0  0  0  0  0  0  0  0
    2.4646    7.1301    0.0000 H   0  0  0  0  0  0  0  0  0  0  0  0
    0.8446    7.1301    0.0000 H   0  0  0  0  0  0  0  0  0  0  0  0
    3.3092    3.9744    0.0000 H   0  0  0  0  0  0  0  0  0  0  0  0
    0.0346    5.7272    0.0000 H   0  0  0  0  0  0  0  0  0  0  0  0
    0.0000    3.9744    0.0000 H   0  0  0  0  0  0  0  0  0  0  0  0
    2.4875    2.5254    0.0000 H   0  0  0  0  0  0  0  0  0  0  0  0
    0.8217    2.5254    0.0000 H   0  0  0  0  0  0  0  0  0  0  0  0
   15.9373    6.9519    0.0000 H   0  0  0  0  0  0  0  0  0  0  0  0
   16.7834    7.1821    0.0000 H   0  0  0  0  0  0  0  0  0  0  0  0
   16.5532    8.0282    0.0000 H   0  0  0  0  0  0  0  0  0  0  0  0
    8.8917    0.0000    0.0000 H   0  0  0  0  0  0  0  0  0  0  0  0
  1 75  1  0  0  0  0
  2  4  1  0  0  0  0
  2  5  2  0  0  0  0
  2  6  2  0  0  0  0
  2 38  1  0  0  0  0
  3 23  2  0  0  0  0
  4 27  1  0  0  0  0
  7 16  1  0  0  0  0
  7 17  1  0  0  0  0
  7 18  1  0  0  0  0
  8 12  1  0  0  0  0
  8 23  1  0  0  0  0
  8 53  1  0  0  0  0
  9 10  1  0  0  0  0
  9 11  1  0  0  0  0
  9 15  1  0  0  0  0
  9 39  1  0  0  0  0
 10 13  1  0  0  0  0
 10 40  1  0  0  0  0
 10 41  1  0  0  0  0
 11 14  1  0  0  0  0
 11 42  1  0  0  0  0
 11 43  1  0  0  0  0
 12 13  1  0  0  0  0
 12 14  1  0  0  0  0
 12 44  1  0  0  0  0
 13 45  1  0  0  0  0
 13 46  1  0  0  0  0
 14 47  1  0  0  0  0
 14 48  1  0  0  0  0
 15 16  1  0  0  0  0
 15 49  1  0  0  0  0
 15 50  1  0  0  0  0
 16 51  1  0  0  0  0
 16 52  1  0  0  0  0
 17 19  1  0  0  0  0
 17 54  1  0  0  0  0
 17 55  1  0  0  0  0
 18 20  1  0  0  0  0
 18 56  1  0  0  0  0
 18 57  1  0  0  0  0
 19 21  1  0  0  0  0
 19 58  1  0  0  0  0
 19 59  1  0  0  0  0
 20 22  1  0  0  0  0
 20 60  1  0  0  0  0
 20 61  1  0  0  0  0
 21 22  2  0  0  0  0
 21 25  1  0  0  0  0
 22 26  1  0  0  0  0
 23 24  1  0  0  0  0
 24 29  1  0  0  0  0
 24 30  2  0  0  0  0
 25 27  2  0  0  0  0
 25 62  1  0  0  0  0
 26 28  2  0  0  0  0
 26 63  1  0  0  0  0
 27 28  1  0  0  0  0
 28 64  1  0  0  0  0
 29 31  1  0  0  0  0
 29 33  2  0  0  0  0
 30 32  1  0  0  0  0
 30 65  1  0  0  0  0
 31 34  1  0  0  0  0
 31 35  2  0  0  0  0
 32 34  2  0  0  0  0
 32 66  1  0  0  0  0
 33 36  1  0  0  0  0
 33 67  1  0  0  0  0
 34 68  1  0  0  0  0
 35 37  1  0  0  0  0
 35 69  1  0  0  0  0
 36 37  2  0  0  0  0
 36 70  1  0  0  0  0
 37 71  1  0  0  0  0
 38 72  1  0  0  0  0
 38 73  1  0  0  0  0
 38 74  1  0  0  0  0
M  END
> <PUBCHEM_COMPOUND_CID>
45265590

> <PUBCHEM_COMPOUND_CANONICALIZED>
1

> <PUBCHEM_CACTVS_COMPLEXITY>
850

> <PUBCHEM_CACTVS_HBOND_ACCEPTOR>
5

> <PUBCHEM_CACTVS_HBOND_DONOR>
2

> <PUBCHEM_CACTVS_ROTATABLE_BOND>
7

> <PUBCHEM_CACTVS_SUBSKEYS>
AAADcfB7OABEAAAAAAAAAAAAAAAAAAAAAAAwYMGABYAAAADBVAAAHgQQAAAADSzBmASyBsPAAAKIAiFSEHCCAAAkIAAIiIEODMgIJjKAlROEMQhk1hGIiYeY2PKOoAADAAAQAABQAAYAACAAAAAAAAAAAA==

> <PUBCHEM_IUPAC_OPENEYE_NAME>
[3-[2-[4-(naphthalene-1-carbonylamino)cyclohexyl]ethyl]-1,2,4,5-tetrahydro-3-benzazepin-7-yl] methanesulfonate;hydrochloride

> <PUBCHEM_IUPAC_CAS_NAME>
methanesulfonic acid [3-[2-[4-[[1-naphthalenyl(oxo)methyl]amino]cyclohexyl]ethyl]-1,2,4,5-tetrahydro-3-benzazepin-7-yl] ester;hydrochloride

> <PUBCHEM_IUPAC_NAME_MARKUP>
[3-[2-[4-(naphthalene-1-carbonylamino)cyclohexyl]ethyl]-1,2,4,5-tetrahydro-3-benzazepin-7-yl] methanesulfonate;hydrochloride

> <PUBCHEM_IUPAC_NAME>
[3-[2-[4-(naphthalene-1-carbonylamino)cyclohexyl]ethyl]-1,2,4,5-tetrahydro-3-benzazepin-7-yl] methanesulfonate;hydrochloride

> <PUBCHEM_IUPAC_SYSTEMATIC_NAME>
[3-[2-[4-(naphthalen-1-ylcarbonylamino)cyclohexyl]ethyl]-1,2,4,5-tetrahydro-3-benzazepin-7-yl] methanesulfonate;hydrochloride

> <PUBCHEM_IUPAC_TRADITIONAL_NAME>
methanesulfonic acid [3-[2-[4-(1-naphthoylamino)cyclohexyl]ethyl]-1,2,4,5-tetrahydro-3-benzazepin-7-yl] ester;hydrochloride

> <PUBCHEM_IUPAC_INCHI>
InChI=1S/C30H36N2O4S.ClH/c1-37(34,35)36-27-14-11-23-16-19-32(20-17-25(23)21-27)18-15-22-9-12-26(13-10-22)31-30(33)29-8-4-6-24-5-2-3-7-28(24)29;/h2-8,11,14,21-22,26H,9-10,12-13,15-20H2,1H3,(H,31,33);1H

> <PUBCHEM_IUPAC_INCHIKEY>
KUABYXKEZBERDL-UHFFFAOYSA-N

> <PUBCHEM_EXACT_MASS>
556.2162565

> <PUBCHEM_MOLECULAR_FORMULA>
C30H37ClN2O4S

> <PUBCHEM_MOLECULAR_WEIGHT>
557.1

> <PUBCHEM_OPENEYE_CAN_SMILES>
CS(=O)(=O)OC1=CC2=C(CCN(CC2)CCC3CCC(CC3)NC(=O)C4=CC=CC5=CC=CC=C54)C=C1.Cl

> <PUBCHEM_OPENEYE_ISO_SMILES>
CS(=O)(=O)OC1=CC2=C(CCN(CC2)CCC3CCC(CC3)NC(=O)C4=CC=CC5=CC=CC=C54)C=C1.Cl

> <PUBCHEM_CACTVS_TPSA>
84.1

> <PUBCHEM_MONOISOTOPIC_WEIGHT>
556.2162565

> <PUBCHEM_TOTAL_CHARGE>
0

> <PUBCHEM_HEAVY_ATOM_COUNT>
38

> <PUBCHEM_ATOM_DEF_STEREO_COUNT>
0

> <PUBCHEM_ATOM_UDEF_STEREO_COUNT>
0

> <PUBCHEM_BOND_DEF_STEREO_COUNT>
0

> <PUBCHEM_BOND_UDEF_STEREO_COUNT>
0

> <PUBCHEM_ISOTOPIC_ATOM_COUNT>
0

> <PUBCHEM_COMPONENT_COUNT>
2

> <PUBCHEM_CACTVS_TAUTO_COUNT>
-1

> <PUBCHEM_COORDINATE_TYPE>
1
5
255

> <PUBCHEM_BONDANNOTATIONS>
21  22  8
21  25  8
22  26  8
24  29  8
24  30  8
25  27  8
26  28  8
27  28  8
29  31  8
29  33  8
30  32  8
31  34  8
31  35  8
32  34  8
33  36  8
35  37  8
36  37  8

$$$$
