46233097
  -OEChem-09292322292D

 70 74  0     1  0  0  0  0  0999 V2000
    2.9059    6.5336    0.0000 O   0  0  0  0  0  0  0  0  0  0  0  0
    6.3821   -6.5357    0.0000 O   0  0  0  0  0  0  0  0  0  0  0  0
    5.5161    1.9643    0.0000 N   0  0  3  0  0  0  0  0  0  0  0  0
    6.3821   -0.5357    0.0000 N   0  0  0  0  0  0  0  0  0  0  0  0
    6.3821   -2.5357    0.0000 N   0  0  0  0  0  0  0  0  0  0  0  0
    8.1421   -5.5703    0.0000 N   0  0  0  0  0  0  0  0  0  0  0  0
    4.6501    2.4643    0.0000 C   0  0  3  0  0  0  0  0  0  0  0  0
    3.7841    1.9643    0.0000 C   0  0  0  0  0  0  0  0  0  0  0  0
    4.6501    3.4643    0.0000 C   0  0  0  0  0  0  0  0  0  0  0  0
    5.5161    0.9643    0.0000 C   0  0  0  0  0  0  0  0  0  0  0  0
    2.9180    2.4643    0.0000 C   0  0  0  0  0  0  0  0  0  0  0  0
    6.3821    0.4643    0.0000 C   0  0  0  0  0  0  0  0  0  0  0  0
    3.7841    3.9643    0.0000 C   0  0  0  0  0  0  0  0  0  0  0  0
    6.3821    2.4643    0.0000 C   0  0  0  0  0  0  0  0  0  0  0  0
    2.9180    3.4643    0.0000 C   0  0  0  0  0  0  0  0  0  0  0  0
    5.5161   -1.0357    0.0000 C   0  0  0  0  0  0  0  0  0  0  0  0
    7.2482   -1.0357    0.0000 C   0  0  0  0  0  0  0  0  0  0  0  0
    5.5161   -2.0357    0.0000 C   0  0  0  0  0  0  0  0  0  0  0  0
    7.2482   -2.0357    0.0000 C   0  0  0  0  0  0  0  0  0  0  0  0
    6.3821    3.4643    0.0000 C   0  0  0  0  0  0  0  0  0  0  0  0
    3.8001    5.0058    0.0000 C   0  0  0  0  0  0  0  0  0  0  0  0
    2.0080    3.9712    0.0000 C   0  0  0  0  0  0  0  0  0  0  0  0
    6.3821   -3.5357    0.0000 C   0  0  0  0  0  0  0  0  0  0  0  0
    2.9021    5.5336    0.0000 C   0  0  0  0  0  0  0  0  0  0  0  0
    2.0000    5.0128    0.0000 C   0  0  0  0  0  0  0  0  0  0  0  0
    7.2482    3.9643    0.0000 C   0  0  0  0  0  0  0  0  0  0  0  0
    7.2482   -4.0357    0.0000 C   0  0  0  0  0  0  0  0  0  0  0  0
    5.5161   -4.0357    0.0000 C   0  0  0  0  0  0  0  0  0  0  0  0
    7.2482   -5.0357    0.0000 C   0  0  0  0  0  0  0  0  0  0  0  0
    5.5161   -5.0357    0.0000 C   0  0  0  0  0  0  0  0  0  0  0  0
    8.1421   -3.5010    0.0000 C   0  0  0  0  0  0  0  0  0  0  0  0
    6.3821   -5.5357    0.0000 C   0  0  0  0  0  0  0  0  0  0  0  0
    9.0482   -4.0148    0.0000 C   0  0  0  0  0  0  0  0  0  0  0  0
    9.0482   -5.0565    0.0000 C   0  0  0  0  0  0  0  0  0  0  0  0
    5.1870    2.7743    0.0000 H   0  0  0  0  0  0  0  0  0  0  0  0
    3.3855    1.4894    0.0000 H   0  0  0  0  0  0  0  0  0  0  0  0
    4.1826    1.4894    0.0000 H   0  0  0  0  0  0  0  0  0  0  0  0
    5.2607    3.3567    0.0000 H   0  0  0  0  0  0  0  0  0  0  0  0
    4.8621    4.0470    0.0000 H   0  0  0  0  0  0  0  0  0  0  0  0
    4.9055    1.0720    0.0000 H   0  0  0  0  0  0  0  0  0  0  0  0
    5.3040    0.3817    0.0000 H   0  0  0  0  0  0  0  0  0  0  0  0
    2.3074    2.5720    0.0000 H   0  0  0  0  0  0  0  0  0  0  0  0
    2.7060    1.8817    0.0000 H   0  0  0  0  0  0  0  0  0  0  0  0
    6.9927    0.3567    0.0000 H   0  0  0  0  0  0  0  0  0  0  0  0
    6.5942    1.0470    0.0000 H   0  0  0  0  0  0  0  0  0  0  0  0
    6.5942    1.8817    0.0000 H   0  0  0  0  0  0  0  0  0  0  0  0
    6.9927    2.5720    0.0000 H   0  0  0  0  0  0  0  0  0  0  0  0
    5.3040   -0.4531    0.0000 H   0  0  0  0  0  0  0  0  0  0  0  0
    4.9055   -1.1433    0.0000 H   0  0  0  0  0  0  0  0  0  0  0  0
    7.8587   -1.1433    0.0000 H   0  0  0  0  0  0  0  0  0  0  0  0
    7.4602   -0.4531    0.0000 H   0  0  0  0  0  0  0  0  0  0  0  0
    4.9055   -1.9280    0.0000 H   0  0  0  0  0  0  0  0  0  0  0  0
    5.3040   -2.6183    0.0000 H   0  0  0  0  0  0  0  0  0  0  0  0
    7.4602   -2.6183    0.0000 H   0  0  0  0  0  0  0  0  0  0  0  0
    7.8587   -1.9280    0.0000 H   0  0  0  0  0  0  0  0  0  0  0  0
    6.1701    4.0470    0.0000 H   0  0  0  0  0  0  0  0  0  0  0  0
    5.7716    3.3567    0.0000 H   0  0  0  0  0  0  0  0  0  0  0  0
    4.3406    5.3096    0.0000 H   0  0  0  0  0  0  0  0  0  0  0  0
    1.4747    3.6550    0.0000 H   0  0  0  0  0  0  0  0  0  0  0  0
    1.4619    5.3207    0.0000 H   0  0  0  0  0  0  0  0  0  0  0  0
    7.5582    3.4274    0.0000 H   0  0  0  0  0  0  0  0  0  0  0  0
    7.7851    4.2743    0.0000 H   0  0  0  0  0  0  0  0  0  0  0  0
    6.9382    4.5013    0.0000 H   0  0  0  0  0  0  0  0  0  0  0  0
    4.9792   -3.7257    0.0000 H   0  0  0  0  0  0  0  0  0  0  0  0
    4.9792   -5.3457    0.0000 H   0  0  0  0  0  0  0  0  0  0  0  0
    8.1349   -2.8810    0.0000 H   0  0  0  0  0  0  0  0  0  0  0  0
    2.3702    6.8457    0.0000 H   0  0  0  0  0  0  0  0  0  0  0  0
    9.5839   -3.7028    0.0000 H   0  0  0  0  0  0  0  0  0  0  0  0
    9.5839   -5.3685    0.0000 H   0  0  0  0  0  0  0  0  0  0  0  0
    5.8452   -6.8457    0.0000 H   0  0  0  0  0  0  0  0  0  0  0  0
  1 24  1  0  0  0  0
  1 67  1  0  0  0  0
  2 32  1  0  0  0  0
  2 70  1  0  0  0  0
  3  7  1  0  0  0  0
  3 10  1  0  0  0  0
  3 14  1  0  0  0  0
  4 12  1  0  0  0  0
  4 16  1  0  0  0  0
  4 17  1  0  0  0  0
  5 18  1  0  0  0  0
  5 19  1  0  0  0  0
  5 23  1  0  0  0  0
  6 29  1  0  0  0  0
  6 34  2  0  0  0  0
  7  8  1  0  0  0  0
  7  9  1  0  0  0  0
  7 35  1  0  0  0  0
  8 11  1  0  0  0  0
  8 36  1  0  0  0  0
  8 37  1  0  0  0  0
  9 13  1  0  0  0  0
  9 38  1  0  0  0  0
  9 39  1  0  0  0  0
 10 12  1  0  0  0  0
 10 40  1  0  0  0  0
 10 41  1  0  0  0  0
 11 15  1  0  0  0  0
 11 42  1  0  0  0  0
 11 43  1  0  0  0  0
 12 44  1  0  0  0  0
 12 45  1  0  0  0  0
 13 15  2  0  0  0  0
 13 21  1  0  0  0  0
 14 20  1  0  0  0  0
 14 46  1  0  0  0  0
 14 47  1  0  0  0  0
 15 22  1  0  0  0  0
 16 18  1  0  0  0  0
 16 48  1  0  0  0  0
 16 49  1  0  0  0  0
 17 19  1  0  0  0  0
 17 50  1  0  0  0  0
 17 51  1  0  0  0  0
 18 52  1  0  0  0  0
 18 53  1  0  0  0  0
 19 54  1  0  0  0  0
 19 55  1  0  0  0  0
 20 26  1  0  0  0  0
 20 56  1  0  0  0  0
 20 57  1  0  0  0  0
 21 24  2  0  0  0  0
 21 58  1  0  0  0  0
 22 25  2  0  0  0  0
 22 59  1  0  0  0  0
 23 27  2  0  0  0  0
 23 28  1  0  0  0  0
 24 25  1  0  0  0  0
 25 60  1  0  0  0  0
 26 61  1  0  0  0  0
 26 62  1  0  0  0  0
 26 63  1  0  0  0  0
 27 29  1  0  0  0  0
 27 31  1  0  0  0  0
 28 30  2  0  0  0  0
 28 64  1  0  0  0  0
 29 32  2  0  0  0  0
 30 32  1  0  0  0  0
 30 65  1  0  0  0  0
 31 33  2  0  0  0  0
 31 66  1  0  0  0  0
 33 34  1  0  0  0  0
 33 68  1  0  0  0  0
 34 69  1  0  0  0  0
M  END
> <PUBCHEM_COMPOUND_CID>
46233097

> <PUBCHEM_COMPOUND_CANONICALIZED>
1

> <PUBCHEM_CACTVS_COMPLEXITY>
628

> <PUBCHEM_CACTVS_HBOND_ACCEPTOR>
6

> <PUBCHEM_CACTVS_HBOND_DONOR>
2

> <PUBCHEM_CACTVS_ROTATABLE_BOND>
7

> <PUBCHEM_CACTVS_SUBSKEYS>
AAADcfB7sAAAAAAAAAAAAAAAAAAAAAAAAAA8eMECAAAAAADx9AAAHgAACAAADCzBngQ+xvMIEgCgAzRnRASCgCAxYiAI2CA/bJgKZuLS0dOUdAhkwBHY2Aew0LMOoEABAAQSEABQgAKACCQgAAAAAAAAAA==

> <PUBCHEM_IUPAC_OPENEYE_NAME>
5-[4-[2-[(7-hydroxytetralin-2-yl)-propyl-amino]ethyl]piperazin-1-yl]quinolin-8-ol

> <PUBCHEM_IUPAC_CAS_NAME>
5-[4-[2-[(7-hydroxy-1,2,3,4-tetrahydronaphthalen-2-yl)-propylamino]ethyl]-1-piperazinyl]-8-quinolinol

> <PUBCHEM_IUPAC_NAME_MARKUP>
5-[4-[2-[(7-hydroxy-1,2,3,4-tetrahydronaphthalen-2-yl)-propylamino]ethyl]piperazin-1-yl]quinolin-8-ol

> <PUBCHEM_IUPAC_NAME>
5-[4-[2-[(7-hydroxy-1,2,3,4-tetrahydronaphthalen-2-yl)-propylamino]ethyl]piperazin-1-yl]quinolin-8-ol

> <PUBCHEM_IUPAC_SYSTEMATIC_NAME>
5-[4-[2-[(7-oxidanyl-1,2,3,4-tetrahydronaphthalen-2-yl)-propyl-amino]ethyl]piperazin-1-yl]quinolin-8-ol

> <PUBCHEM_IUPAC_TRADITIONAL_NAME>
5-[4-[2-[(7-hydroxytetralin-2-yl)-propyl-amino]ethyl]piperazino]quinolin-8-ol

> <PUBCHEM_IUPAC_INCHI>
InChI=1S/C28H36N4O2/c1-2-12-31(23-7-5-21-6-8-24(33)20-22(21)19-23)16-13-30-14-17-32(18-15-30)26-9-10-27(34)28-25(26)4-3-11-29-28/h3-4,6,8-11,20,23,33-34H,2,5,7,12-19H2,1H3

> <PUBCHEM_IUPAC_INCHIKEY>
PYPHZFKZPWVUSJ-UHFFFAOYSA-N

> <PUBCHEM_XLOGP3_AA>
4.8

> <PUBCHEM_EXACT_MASS>
460.28382640

> <PUBCHEM_MOLECULAR_FORMULA>
C28H36N4O2

> <PUBCHEM_MOLECULAR_WEIGHT>
460.6

> <PUBCHEM_OPENEYE_CAN_SMILES>
CCCN(CCN1CCN(CC1)C2=C3C=CC=NC3=C(C=C2)O)C4CCC5=C(C4)C=C(C=C5)O

> <PUBCHEM_OPENEYE_ISO_SMILES>
CCCN(CCN1CCN(CC1)C2=C3C=CC=NC3=C(C=C2)O)C4CCC5=C(C4)C=C(C=C5)O

> <PUBCHEM_CACTVS_TPSA>
63.1

> <PUBCHEM_MONOISOTOPIC_WEIGHT>
460.28382640

> <PUBCHEM_TOTAL_CHARGE>
0

> <PUBCHEM_HEAVY_ATOM_COUNT>
34

> <PUBCHEM_ATOM_DEF_STEREO_COUNT>
0

> <PUBCHEM_ATOM_UDEF_STEREO_COUNT>
1

> <PUBCHEM_BOND_DEF_STEREO_COUNT>
0

> <PUBCHEM_BOND_UDEF_STEREO_COUNT>
0

> <PUBCHEM_ISOTOPIC_ATOM_COUNT>
0

> <PUBCHEM_COMPONENT_COUNT>
1

> <PUBCHEM_CACTVS_TAUTO_COUNT>
-1

> <PUBCHEM_COORDINATE_TYPE>
1
5
255

> <PUBCHEM_BONDANNOTATIONS>
13  15  8
13  21  8
15  22  8
21  24  8
22  25  8
23  27  8
23  28  8
24  25  8
27  29  8
27  31  8
28  30  8
29  32  8
7  3  3
30  32  8
31  33  8
33  34  8
6  29  8
6  34  8

$$$$
