164614709
  -OEChem-09292322432D

 53 56  0     1  0  0  0  0  0999 V2000
    2.0000   -0.5786    0.0000 Cl  0  0  0  0  0  0  0  0  0  0  0  0
    5.8550    2.1767    0.0000 O   0  0  0  0  0  0  0  0  0  0  0  0
   10.1279   -1.3106    0.0000 N   0  0  0  0  0  0  0  0  0  0  0  0
   12.1279   -1.3106    0.0000 N   0  0  0  0  0  0  0  0  0  0  0  0
   13.6279   -0.4446    0.0000 N   0  0  0  0  0  0  0  0  0  0  0  0
    6.1279    0.4214    0.0000 C   0  0  3  0  0  0  0  0  0  0  0  0
    7.1279    0.4214    0.0000 C   0  0  0  0  0  0  0  0  0  0  0  0
    7.6279   -0.4446    0.0000 C   0  0  0  0  0  0  0  0  0  0  0  0
    9.1279   -1.3106    0.0000 C   0  0  0  0  0  0  0  0  0  0  0  0
    8.6279   -0.4446    0.0000 C   0  0  0  0  0  0  0  0  0  0  0  0
    5.5443   -0.3833    0.0000 C   0  0  0  0  0  0  0  0  0  0  0  0
   10.6279   -0.4446    0.0000 C   0  0  0  0  0  0  0  0  0  0  0  0
   10.6279   -2.1767    0.0000 C   0  0  0  0  0  0  0  0  0  0  0  0
   11.6279   -0.4446    0.0000 C   0  0  0  0  0  0  0  0  0  0  0  0
   11.6279   -2.1767    0.0000 C   0  0  0  0  0  0  0  0  0  0  0  0
    5.5443    1.2261    0.0000 C   0  0  0  0  0  0  0  0  0  0  0  0
    4.5981   -0.0786    0.0000 C   0  0  0  0  0  0  0  0  0  0  0  0
    4.5981    0.9214    0.0000 C   0  0  0  0  0  0  0  0  0  0  0  0
    3.7320   -0.5786    0.0000 C   0  0  0  0  0  0  0  0  0  0  0  0
   13.1279   -1.3106    0.0000 C   0  0  0  0  0  0  0  0  0  0  0  0
    3.7320    1.4214    0.0000 C   0  0  0  0  0  0  0  0  0  0  0  0
    2.8660   -0.0786    0.0000 C   0  0  0  0  0  0  0  0  0  0  0  0
    2.8660    0.9214    0.0000 C   0  0  0  0  0  0  0  0  0  0  0  0
   13.6279   -2.1767    0.0000 C   0  0  0  0  0  0  0  0  0  0  0  0
   14.6279   -2.1767    0.0000 C   0  0  0  0  0  0  0  0  0  0  0  0
   14.6279   -0.4446    0.0000 C   0  0  0  0  0  0  0  0  0  0  0  0
   15.1279   -1.3106    0.0000 C   0  0  0  0  0  0  0  0  0  0  0  0
    6.4096   -0.1309    0.0000 H   0  0  0  0  0  0  0  0  0  0  0  0
    7.7105    0.6335    0.0000 H   0  0  0  0  0  0  0  0  0  0  0  0
    7.0202    1.0320    0.0000 H   0  0  0  0  0  0  0  0  0  0  0  0
    7.0453   -0.6567    0.0000 H   0  0  0  0  0  0  0  0  0  0  0  0
    7.7356   -1.0552    0.0000 H   0  0  0  0  0  0  0  0  0  0  0  0
    8.5453   -1.5227    0.0000 H   0  0  0  0  0  0  0  0  0  0  0  0
    9.2356   -1.9212    0.0000 H   0  0  0  0  0  0  0  0  0  0  0  0
    9.2105   -0.2326    0.0000 H   0  0  0  0  0  0  0  0  0  0  0  0
    8.5202    0.1660    0.0000 H   0  0  0  0  0  0  0  0  0  0  0  0
    5.2933   -0.9502    0.0000 H   0  0  0  0  0  0  0  0  0  0  0  0
    6.0817   -0.6925    0.0000 H   0  0  0  0  0  0  0  0  0  0  0  0
   10.7356    0.1660    0.0000 H   0  0  0  0  0  0  0  0  0  0  0  0
   10.0453   -0.2326    0.0000 H   0  0  0  0  0  0  0  0  0  0  0  0
   10.0453   -2.3887    0.0000 H   0  0  0  0  0  0  0  0  0  0  0  0
   10.7356   -2.7872    0.0000 H   0  0  0  0  0  0  0  0  0  0  0  0
   12.2105   -0.2326    0.0000 H   0  0  0  0  0  0  0  0  0  0  0  0
   11.5202    0.1660    0.0000 H   0  0  0  0  0  0  0  0  0  0  0  0
   11.5202   -2.7872    0.0000 H   0  0  0  0  0  0  0  0  0  0  0  0
   12.2105   -2.3887    0.0000 H   0  0  0  0  0  0  0  0  0  0  0  0
    3.7320   -1.1986    0.0000 H   0  0  0  0  0  0  0  0  0  0  0  0
    3.7320    2.0414    0.0000 H   0  0  0  0  0  0  0  0  0  0  0  0
    2.3291    1.2314    0.0000 H   0  0  0  0  0  0  0  0  0  0  0  0
   13.3179   -2.7136    0.0000 H   0  0  0  0  0  0  0  0  0  0  0  0
   14.9379   -2.7136    0.0000 H   0  0  0  0  0  0  0  0  0  0  0  0
   14.9379    0.0923    0.0000 H   0  0  0  0  0  0  0  0  0  0  0  0
   15.7479   -1.3106    0.0000 H   0  0  0  0  0  0  0  0  0  0  0  0
  1 22  1  0  0  0  0
  2 16  2  0  0  0  0
  3  9  1  0  0  0  0
  3 12  1  0  0  0  0
  3 13  1  0  0  0  0
  4 14  1  0  0  0  0
  4 15  1  0  0  0  0
  4 20  1  0  0  0  0
  5 20  1  0  0  0  0
  5 26  2  0  0  0  0
  6  7  1  0  0  0  0
  6 11  1  0  0  0  0
  6 16  1  0  0  0  0
  6 28  1  0  0  0  0
  7  8  1  0  0  0  0
  7 29  1  0  0  0  0
  7 30  1  0  0  0  0
  8 10  1  0  0  0  0
  8 31  1  0  0  0  0
  8 32  1  0  0  0  0
  9 10  1  0  0  0  0
  9 33  1  0  0  0  0
  9 34  1  0  0  0  0
 10 35  1  0  0  0  0
 10 36  1  0  0  0  0
 11 17  1  0  0  0  0
 11 37  1  0  0  0  0
 11 38  1  0  0  0  0
 12 14  1  0  0  0  0
 12 39  1  0  0  0  0
 12 40  1  0  0  0  0
 13 15  1  0  0  0  0
 13 41  1  0  0  0  0
 13 42  1  0  0  0  0
 14 43  1  0  0  0  0
 14 44  1  0  0  0  0
 15 45  1  0  0  0  0
 15 46  1  0  0  0  0
 16 18  1  0  0  0  0
 17 18  2  0  0  0  0
 17 19  1  0  0  0  0
 18 21  1  0  0  0  0
 19 22  2  0  0  0  0
 19 47  1  0  0  0  0
 20 24  2  0  0  0  0
 21 23  2  0  0  0  0
 21 48  1  0  0  0  0
 22 23  1  0  0  0  0
 23 49  1  0  0  0  0
 24 25  1  0  0  0  0
 24 50  1  0  0  0  0
 25 27  2  0  0  0  0
 25 51  1  0  0  0  0
 26 27  1  0  0  0  0
 26 52  1  0  0  0  0
 27 53  1  0  0  0  0
M  END
> <PUBCHEM_COMPOUND_CID>
164614709

> <PUBCHEM_COMPOUND_CANONICALIZED>
1

> <PUBCHEM_CACTVS_COMPLEXITY>
494

> <PUBCHEM_CACTVS_HBOND_ACCEPTOR>
4

> <PUBCHEM_CACTVS_HBOND_DONOR>
0

> <PUBCHEM_CACTVS_ROTATABLE_BOND>
6

> <PUBCHEM_CACTVS_SUBSKEYS>
AAADceB7IAAEAAAAAAAAAAAAAAAAAYAAAAA8WIAAAAAAAGABwAAAHgIAAAAADQbBmiQ9sJMIEACoArJ3ZACCgCk1ByAJ2CE4ZtiIYPLBn5GUIQhogALIyacYiMCOhAAAIAAQAAAIAABAACAAAQAACAAAAA==

> <PUBCHEM_IUPAC_OPENEYE_NAME>
5-chloro-2-[4-[4-(2-pyridyl)piperazin-1-yl]butyl]indan-1-one

> <PUBCHEM_IUPAC_CAS_NAME>
5-chloro-2-[4-[4-(2-pyridinyl)-1-piperazinyl]butyl]-2,3-dihydroinden-1-one

> <PUBCHEM_IUPAC_NAME_MARKUP>
5-chloro-2-[4-(4-pyridin-2-ylpiperazin-1-yl)butyl]-2,3-dihydroinden-1-one

> <PUBCHEM_IUPAC_NAME>
5-chloro-2-[4-(4-pyridin-2-ylpiperazin-1-yl)butyl]-2,3-dihydroinden-1-one

> <PUBCHEM_IUPAC_SYSTEMATIC_NAME>
5-chloranyl-2-[4-(4-pyridin-2-ylpiperazin-1-yl)butyl]-2,3-dihydroinden-1-one

> <PUBCHEM_IUPAC_TRADITIONAL_NAME>
5-chloro-2-[4-[4-(2-pyridyl)piperazino]butyl]indan-1-one

> <PUBCHEM_IUPAC_INCHI>
InChI=1S/C22H26ClN3O/c23-19-7-8-20-18(16-19)15-17(22(20)27)5-2-4-10-25-11-13-26(14-12-25)21-6-1-3-9-24-21/h1,3,6-9,16-17H,2,4-5,10-15H2

> <PUBCHEM_IUPAC_INCHIKEY>
YQSDVKUMLQLWSX-UHFFFAOYSA-N

> <PUBCHEM_XLOGP3_AA>
4.3

> <PUBCHEM_EXACT_MASS>
383.1764402

> <PUBCHEM_MOLECULAR_FORMULA>
C22H26ClN3O

> <PUBCHEM_MOLECULAR_WEIGHT>
383.9

> <PUBCHEM_OPENEYE_CAN_SMILES>
C1CN(CCN1CCCCC2CC3=C(C2=O)C=CC(=C3)Cl)C4=CC=CC=N4

> <PUBCHEM_OPENEYE_ISO_SMILES>
C1CN(CCN1CCCCC2CC3=C(C2=O)C=CC(=C3)Cl)C4=CC=CC=N4

> <PUBCHEM_CACTVS_TPSA>
36.4

> <PUBCHEM_MONOISOTOPIC_WEIGHT>
383.1764402

> <PUBCHEM_TOTAL_CHARGE>
0

> <PUBCHEM_HEAVY_ATOM_COUNT>
27

> <PUBCHEM_ATOM_DEF_STEREO_COUNT>
0

> <PUBCHEM_ATOM_UDEF_STEREO_COUNT>
1

> <PUBCHEM_BOND_DEF_STEREO_COUNT>
0

> <PUBCHEM_BOND_UDEF_STEREO_COUNT>
0

> <PUBCHEM_ISOTOPIC_ATOM_COUNT>
0

> <PUBCHEM_COMPONENT_COUNT>
1

> <PUBCHEM_CACTVS_TAUTO_COUNT>
-1

> <PUBCHEM_COORDINATE_TYPE>
1
5
255

> <PUBCHEM_BONDANNOTATIONS>
17  18  8
17  19  8
18  21  8
19  22  8
20  24  8
21  23  8
22  23  8
24  25  8
25  27  8
26  27  8
5  20  8
5  26  8
6  7  3

$$$$
