10391240
  -OEChem-09292322122D

 50 51  0     1  0  0  0  0  0999 V2000
    7.1962    1.8170    0.0000 S   0  0  0  0  0  0  0  0  0  0  0  0
    3.7320   -0.1830    0.0000 S   0  0  0  0  0  0  0  0  0  0  0  0
    8.9282    2.8170    0.0000 F   0  0  0  0  0  0  0  0  0  0  0  0
    7.5622    3.1830    0.0000 F   0  0  0  0  0  0  0  0  0  0  0  0
    8.5622    1.4510    0.0000 F   0  0  0  0  0  0  0  0  0  0  0  0
    2.0000   -1.1830    0.0000 F   0  0  0  0  0  0  0  0  0  0  0  0
    2.3660    0.1830    0.0000 F   0  0  0  0  0  0  0  0  0  0  0  0
    3.3660   -1.5490    0.0000 F   0  0  0  0  0  0  0  0  0  0  0  0
    6.3301    1.3170    0.0000 O   0  0  0  0  0  0  0  0  0  0  0  0
    4.5981    0.3170    0.0000 O   0  0  0  0  0  0  0  0  0  0  0  0
    6.6962    2.6830    0.0000 O   0  0  0  0  0  0  0  0  0  0  0  0
    7.6962    0.9510    0.0000 O   0  0  0  0  0  0  0  0  0  0  0  0
    3.2320    0.6830    0.0000 O   0  0  0  0  0  0  0  0  0  0  0  0
    4.2320   -1.0490    0.0000 O   0  0  0  0  0  0  0  0  0  0  0  0
    9.7942   -1.6830    0.0000 N   0  0  3  0  0  0  0  0  0  0  0  0
    8.0622   -1.6830    0.0000 C   0  0  1  0  0  0  0  0  0  0  0  0
    8.9282   -1.1830    0.0000 C   0  0  0  0  0  0  0  0  0  0  0  0
    8.0622   -2.6830    0.0000 C   0  0  0  0  0  0  0  0  0  0  0  0
    8.9282   -3.1830    0.0000 C   0  0  0  0  0  0  0  0  0  0  0  0
    9.7942   -2.6830    0.0000 C   0  0  0  0  0  0  0  0  0  0  0  0
    7.1962   -1.1830    0.0000 C   0  0  0  0  0  0  0  0  0  0  0  0
   10.6603   -1.1830    0.0000 C   0  0  0  0  0  0  0  0  0  0  0  0
   11.5263   -1.6830    0.0000 C   0  0  0  0  0  0  0  0  0  0  0  0
    7.1962   -0.1830    0.0000 C   0  0  0  0  0  0  0  0  0  0  0  0
    6.3301   -1.6830    0.0000 C   0  0  0  0  0  0  0  0  0  0  0  0
    6.3301    0.3170    0.0000 C   0  0  0  0  0  0  0  0  0  0  0  0
    5.4641   -1.1830    0.0000 C   0  0  0  0  0  0  0  0  0  0  0  0
   12.3923   -1.1830    0.0000 C   0  0  0  0  0  0  0  0  0  0  0  0
    5.4641   -0.1830    0.0000 C   0  0  0  0  0  0  0  0  0  0  0  0
    8.0622    2.3170    0.0000 C   0  0  0  0  0  0  0  0  0  0  0  0
    2.8660   -0.6830    0.0000 C   0  0  0  0  0  0  0  0  0  0  0  0
    8.0622   -1.0630    0.0000 H   0  0  0  0  0  0  0  0  0  0  0  0
    9.3267   -0.7081    0.0000 H   0  0  0  0  0  0  0  0  0  0  0  0
    8.5297   -0.7081    0.0000 H   0  0  0  0  0  0  0  0  0  0  0  0
    7.4516   -2.5753    0.0000 H   0  0  0  0  0  0  0  0  0  0  0  0
    7.8501   -3.2656    0.0000 H   0  0  0  0  0  0  0  0  0  0  0  0
    8.5297   -3.6580    0.0000 H   0  0  0  0  0  0  0  0  0  0  0  0
    9.3267   -3.6580    0.0000 H   0  0  0  0  0  0  0  0  0  0  0  0
   10.0063   -3.2656    0.0000 H   0  0  0  0  0  0  0  0  0  0  0  0
   10.4048   -2.5753    0.0000 H   0  0  0  0  0  0  0  0  0  0  0  0
   11.0588   -0.7081    0.0000 H   0  0  0  0  0  0  0  0  0  0  0  0
   10.2617   -0.7081    0.0000 H   0  0  0  0  0  0  0  0  0  0  0  0
   11.1278   -2.1580    0.0000 H   0  0  0  0  0  0  0  0  0  0  0  0
   11.9248   -2.1580    0.0000 H   0  0  0  0  0  0  0  0  0  0  0  0
    7.7331    0.1270    0.0000 H   0  0  0  0  0  0  0  0  0  0  0  0
    6.3301   -2.3030    0.0000 H   0  0  0  0  0  0  0  0  0  0  0  0
    4.9272   -1.4930    0.0000 H   0  0  0  0  0  0  0  0  0  0  0  0
   12.7023   -1.7200    0.0000 H   0  0  0  0  0  0  0  0  0  0  0  0
   12.9292   -0.8730    0.0000 H   0  0  0  0  0  0  0  0  0  0  0  0
   12.0823   -0.6461    0.0000 H   0  0  0  0  0  0  0  0  0  0  0  0
  1  9  1  0  0  0  0
  1 11  2  0  0  0  0
  1 12  2  0  0  0  0
  1 30  1  0  0  0  0
  2 10  1  0  0  0  0
  2 13  2  0  0  0  0
  2 14  2  0  0  0  0
  2 31  1  0  0  0  0
  3 30  1  0  0  0  0
  4 30  1  0  0  0  0
  5 30  1  0  0  0  0
  6 31  1  0  0  0  0
  7 31  1  0  0  0  0
  8 31  1  0  0  0  0
  9 26  1  0  0  0  0
 10 29  1  0  0  0  0
 15 17  1  0  0  0  0
 15 20  1  0  0  0  0
 15 22  1  0  0  0  0
 16 17  1  0  0  0  0
 16 18  1  0  0  0  0
 16 21  1  1  0  0  0
 16 32  1  0  0  0  0
 17 33  1  0  0  0  0
 17 34  1  0  0  0  0
 18 19  1  0  0  0  0
 18 35  1  0  0  0  0
 18 36  1  0  0  0  0
 19 20  1  0  0  0  0
 19 37  1  0  0  0  0
 19 38  1  0  0  0  0
 20 39  1  0  0  0  0
 20 40  1  0  0  0  0
 21 24  2  0  0  0  0
 21 25  1  0  0  0  0
 22 23  1  0  0  0  0
 22 41  1  0  0  0  0
 22 42  1  0  0  0  0
 23 28  1  0  0  0  0
 23 43  1  0  0  0  0
 23 44  1  0  0  0  0
 24 26  1  0  0  0  0
 24 45  1  0  0  0  0
 25 27  2  0  0  0  0
 25 46  1  0  0  0  0
 26 29  2  0  0  0  0
 27 29  1  0  0  0  0
 27 47  1  0  0  0  0
 28 48  1  0  0  0  0
 28 49  1  0  0  0  0
 28 50  1  0  0  0  0
M  END
> <PUBCHEM_COMPOUND_CID>
10391240

> <PUBCHEM_COMPOUND_CANONICALIZED>
1

> <PUBCHEM_CACTVS_COMPLEXITY>
802

> <PUBCHEM_CACTVS_HBOND_ACCEPTOR>
13

> <PUBCHEM_CACTVS_HBOND_DONOR>
0

> <PUBCHEM_CACTVS_ROTATABLE_BOND>
7

> <PUBCHEM_CACTVS_SUBSKEYS>
AAADceB6OcBgAAAAAAAAAAAAAAAAAAAAAAA8QAAAAAAAAAABAAAAHwQAAAAADQTBmBQyBoMAAAKAAiBCAHACAAAgIAAIiAAOiIgJJiKAkROEMAAkwBGIiAeQ0PIOoAABAAAAQABAAAIAAACAAAAAAAAAAA==

> <PUBCHEM_IUPAC_OPENEYE_NAME>
[4-[(3S)-1-propyl-3-piperidyl]-2-(trifluoromethylsulfonyloxy)phenyl] trifluoromethanesulfonate

> <PUBCHEM_IUPAC_CAS_NAME>
trifluoromethanesulfonic acid [4-[(3S)-1-propyl-3-piperidinyl]-2-(trifluoromethylsulfonyloxy)phenyl] ester

> <PUBCHEM_IUPAC_NAME_MARKUP>
[4-[(3<I>S</I>)-1-propylpiperidin-3-yl]-2-(trifluoromethylsulfonyloxy)phenyl] trifluoromethanesulfonate

> <PUBCHEM_IUPAC_NAME>
[4-[(3S)-1-propylpiperidin-3-yl]-2-(trifluoromethylsulfonyloxy)phenyl] trifluoromethanesulfonate

> <PUBCHEM_IUPAC_SYSTEMATIC_NAME>
[4-[(3S)-1-propylpiperidin-3-yl]-2-(trifluoromethylsulfonyloxy)phenyl] tris(fluoranyl)methanesulfonate

> <PUBCHEM_IUPAC_TRADITIONAL_NAME>
trifluoromethanesulfonic acid [4-[(3S)-1-propyl-3-piperidyl]-2-triflyloxy-phenyl] ester

> <PUBCHEM_IUPAC_INCHI>
InChI=1S/C16H19F6NO6S2/c1-2-7-23-8-3-4-12(10-23)11-5-6-13(28-30(24,25)15(17,18)19)14(9-11)29-31(26,27)16(20,21)22/h5-6,9,12H,2-4,7-8,10H2,1H3/t12-/m1/s1

> <PUBCHEM_IUPAC_INCHIKEY>
DDEDFIYGQWYHBZ-GFCCVEGCSA-N

> <PUBCHEM_XLOGP3_AA>
4.9

> <PUBCHEM_EXACT_MASS>
499.05579865

> <PUBCHEM_MOLECULAR_FORMULA>
C16H19F6NO6S2

> <PUBCHEM_MOLECULAR_WEIGHT>
499.4

> <PUBCHEM_OPENEYE_CAN_SMILES>
CCCN1CCCC(C1)C2=CC(=C(C=C2)OS(=O)(=O)C(F)(F)F)OS(=O)(=O)C(F)(F)F

> <PUBCHEM_OPENEYE_ISO_SMILES>
CCCN1CCC[C@H](C1)C2=CC(=C(C=C2)OS(=O)(=O)C(F)(F)F)OS(=O)(=O)C(F)(F)F

> <PUBCHEM_CACTVS_TPSA>
107

> <PUBCHEM_MONOISOTOPIC_WEIGHT>
499.05579865

> <PUBCHEM_TOTAL_CHARGE>
0

> <PUBCHEM_HEAVY_ATOM_COUNT>
31

> <PUBCHEM_ATOM_DEF_STEREO_COUNT>
1

> <PUBCHEM_ATOM_UDEF_STEREO_COUNT>
0

> <PUBCHEM_BOND_DEF_STEREO_COUNT>
0

> <PUBCHEM_BOND_UDEF_STEREO_COUNT>
0

> <PUBCHEM_ISOTOPIC_ATOM_COUNT>
0

> <PUBCHEM_COMPONENT_COUNT>
1

> <PUBCHEM_CACTVS_TAUTO_COUNT>
-1

> <PUBCHEM_COORDINATE_TYPE>
1
5
255

> <PUBCHEM_BONDANNOTATIONS>
16  21  5
21  24  8
21  25  8
24  26  8
25  27  8
26  29  8
27  29  8

$$$$
