10851309
  -OEChem-09292322512D

 37 39  0     1  0  0  0  0  0999 V2000
    4.2086    1.1622    0.0000 F   0  0  0  0  0  0  0  0  0  0  0  0
    2.0000   -2.1311    0.0000 F   0  0  0  0  0  0  0  0  0  0  0  0
    7.6279   -1.9971    0.0000 O   0  0  0  0  0  0  0  0  0  0  0  0
    7.6279   -0.2651    0.0000 O   0  0  0  0  0  0  0  0  0  0  0  0
    7.1441    1.7809    0.0000 N   0  0  0  0  0  0  0  0  0  0  0  0
    5.5443   -1.9358    0.0000 N   0  0  0  0  0  0  0  0  0  0  0  0
    5.8550    0.6241    0.0000 C   0  0  1  0  0  0  0  0  0  0  0  0
    5.1871    1.3684    0.0000 C   0  0  1  0  0  0  0  0  0  0  0  0
    6.8335    0.8304    0.0000 C   0  0  0  0  0  0  0  0  0  0  0  0
    5.5443   -0.3264    0.0000 C   0  0  0  0  0  0  0  0  0  0  0  0
    5.4978    2.3190    0.0000 C   0  0  0  0  0  0  0  0  0  0  0  0
    6.4763    2.5252    0.0000 C   0  0  0  0  0  0  0  0  0  0  0  0
    4.5981   -0.6311    0.0000 C   0  0  0  0  0  0  0  0  0  0  0  0
    6.1279   -1.1311    0.0000 C   0  0  0  0  0  0  0  0  0  0  0  0
    4.5981   -1.6311    0.0000 C   0  0  0  0  0  0  0  0  0  0  0  0
    3.7320   -0.1311    0.0000 C   0  0  0  0  0  0  0  0  0  0  0  0
    3.7320   -2.1311    0.0000 C   0  0  0  0  0  0  0  0  0  0  0  0
    7.1279   -1.1311    0.0000 C   0  0  0  0  0  0  0  0  0  0  0  0
    2.8660   -0.6311    0.0000 C   0  0  0  0  0  0  0  0  0  0  0  0
    2.8660   -1.6311    0.0000 C   0  0  0  0  0  0  0  0  0  0  0  0
    8.6279   -1.9971    0.0000 C   0  0  0  0  0  0  0  0  0  0  0  0
    6.4226   -0.0085    0.0000 H   0  0  0  0  0  0  0  0  0  0  0  0
    4.9945    0.7791    0.0000 H   0  0  0  0  0  0  0  0  0  0  0  0
    6.8540    0.2107    0.0000 H   0  0  0  0  0  0  0  0  0  0  0  0
    7.4473    0.7430    0.0000 H   0  0  0  0  0  0  0  0  0  0  0  0
    5.4772    2.9386    0.0000 H   0  0  0  0  0  0  0  0  0  0  0  0
    4.8840    2.4063    0.0000 H   0  0  0  0  0  0  0  0  0  0  0  0
    7.0026    2.8528    0.0000 H   0  0  0  0  0  0  0  0  0  0  0  0
    6.2450    3.1004    0.0000 H   0  0  0  0  0  0  0  0  0  0  0  0
    7.7508    1.9087    0.0000 H   0  0  0  0  0  0  0  0  0  0  0  0
    5.7369   -2.5252    0.0000 H   0  0  0  0  0  0  0  0  0  0  0  0
    3.7320    0.4889    0.0000 H   0  0  0  0  0  0  0  0  0  0  0  0
    3.7320   -2.7511    0.0000 H   0  0  0  0  0  0  0  0  0  0  0  0
    2.3291   -0.3211    0.0000 H   0  0  0  0  0  0  0  0  0  0  0  0
    8.6279   -2.6171    0.0000 H   0  0  0  0  0  0  0  0  0  0  0  0
    9.2479   -1.9971    0.0000 H   0  0  0  0  0  0  0  0  0  0  0  0
    8.6279   -1.3771    0.0000 H   0  0  0  0  0  0  0  0  0  0  0  0
  8  1  1  6  0  0  0
  2 20  1  0  0  0  0
  3 18  1  0  0  0  0
  3 21  1  0  0  0  0
  4 18  2  0  0  0  0
  5  9  1  0  0  0  0
  5 12  1  0  0  0  0
  5 30  1  0  0  0  0
  6 14  1  0  0  0  0
  6 15  1  0  0  0  0
  6 31  1  0  0  0  0
  7  8  1  0  0  0  0
  7  9  1  0  0  0  0
  7 10  1  0  0  0  0
  7 22  1  6  0  0  0
  8 11  1  0  0  0  0
  8 23  1  0  0  0  0
  9 24  1  0  0  0  0
  9 25  1  0  0  0  0
 10 13  1  0  0  0  0
 10 14  2  0  0  0  0
 11 12  1  0  0  0  0
 11 26  1  0  0  0  0
 11 27  1  0  0  0  0
 12 28  1  0  0  0  0
 12 29  1  0  0  0  0
 13 15  2  0  0  0  0
 13 16  1  0  0  0  0
 14 18  1  0  0  0  0
 15 17  1  0  0  0  0
 16 19  2  0  0  0  0
 16 32  1  0  0  0  0
 17 20  2  0  0  0  0
 17 33  1  0  0  0  0
 19 20  1  0  0  0  0
 19 34  1  0  0  0  0
 21 35  1  0  0  0  0
 21 36  1  0  0  0  0
 21 37  1  0  0  0  0
M  END
> <PUBCHEM_COMPOUND_CID>
10851309

> <PUBCHEM_COMPOUND_CANONICALIZED>
1

> <PUBCHEM_CACTVS_COMPLEXITY>
396

> <PUBCHEM_CACTVS_HBOND_ACCEPTOR>
5

> <PUBCHEM_CACTVS_HBOND_DONOR>
2

> <PUBCHEM_CACTVS_ROTATABLE_BOND>
3

> <PUBCHEM_CACTVS_SUBSKEYS>
AAADceBzMYAAAAAAAAAAAAAAAAAAAWAAAAA8QAAAAAAAAFgB8AAAHwAQAAAADQjBng4yyPLJlACoAyTyTASCgCAnAiAImaG4bNgKJvLAtbmFMQhk0AHY6QeY2eOegAAAAAACAAAAAAAAAAQAAAAAAAAAAA==

> <PUBCHEM_IUPAC_OPENEYE_NAME>
methyl 6-fluoro-3-[(3R,4R)-4-fluoro-3-piperidyl]-1H-indole-2-carboxylate

> <PUBCHEM_IUPAC_CAS_NAME>
6-fluoro-3-[(3R,4R)-4-fluoro-3-piperidinyl]-1H-indole-2-carboxylic acid methyl ester

> <PUBCHEM_IUPAC_NAME_MARKUP>
methyl 6-fluoro-3-[(3<I>R</I>,4<I>R</I>)-4-fluoropiperidin-3-yl]-1<I>H</I>-indole-2-carboxylate

> <PUBCHEM_IUPAC_NAME>
methyl 6-fluoro-3-[(3R,4R)-4-fluoropiperidin-3-yl]-1H-indole-2-carboxylate

> <PUBCHEM_IUPAC_SYSTEMATIC_NAME>
methyl 6-fluoranyl-3-[(3R,4R)-4-fluoranylpiperidin-3-yl]-1H-indole-2-carboxylate

> <PUBCHEM_IUPAC_TRADITIONAL_NAME>
6-fluoro-3-[(3R,4R)-4-fluoro-3-piperidyl]-1H-indole-2-carboxylic acid methyl ester

> <PUBCHEM_IUPAC_INCHI>
InChI=1S/C15H16F2N2O2/c1-21-15(20)14-13(10-7-18-5-4-11(10)17)9-3-2-8(16)6-12(9)19-14/h2-3,6,10-11,18-19H,4-5,7H2,1H3/t10-,11-/m1/s1

> <PUBCHEM_IUPAC_INCHIKEY>
CJPSOUOLAPMNQT-GHMZBOCLSA-N

> <PUBCHEM_XLOGP3_AA>
2.5

> <PUBCHEM_EXACT_MASS>
294.11798408

> <PUBCHEM_MOLECULAR_FORMULA>
C15H16F2N2O2

> <PUBCHEM_MOLECULAR_WEIGHT>
294.30

> <PUBCHEM_OPENEYE_CAN_SMILES>
COC(=O)C1=C(C2=C(N1)C=C(C=C2)F)C3CNCCC3F

> <PUBCHEM_OPENEYE_ISO_SMILES>
COC(=O)C1=C(C2=C(N1)C=C(C=C2)F)[C@@H]3CNCC[C@H]3F

> <PUBCHEM_CACTVS_TPSA>
54.1

> <PUBCHEM_MONOISOTOPIC_WEIGHT>
294.11798408

> <PUBCHEM_TOTAL_CHARGE>
0

> <PUBCHEM_HEAVY_ATOM_COUNT>
21

> <PUBCHEM_ATOM_DEF_STEREO_COUNT>
2

> <PUBCHEM_ATOM_UDEF_STEREO_COUNT>
0

> <PUBCHEM_BOND_DEF_STEREO_COUNT>
0

> <PUBCHEM_BOND_UDEF_STEREO_COUNT>
0

> <PUBCHEM_ISOTOPIC_ATOM_COUNT>
0

> <PUBCHEM_COMPONENT_COUNT>
1

> <PUBCHEM_CACTVS_TAUTO_COUNT>
-1

> <PUBCHEM_COORDINATE_TYPE>
1
5
255

> <PUBCHEM_BONDANNOTATIONS>
8  1  6
10  13  8
10  14  8
13  15  8
13  16  8
15  17  8
16  19  8
17  20  8
19  20  8
6  14  8
6  15  8
7  22  6

$$$$
