76441180
  -OEChem-09292322362D

 62 65  0     0  0  0  0  0  0999 V2000
    3.4790    6.4307    0.0000 S   0  0  0  0  0  0  0  0  0  0  0  0
    2.8660   -5.3442    0.0000 O   0  0  0  0  0  0  0  0  0  0  0  0
    4.5981   -2.3442    0.0000 N   0  0  0  0  0  0  0  0  0  0  0  0
    4.5981   -4.3442    0.0000 N   0  0  0  0  0  0  0  0  0  0  0  0
    5.8301    3.1946    0.0000 N   0  0  0  0  0  0  0  0  0  0  0  0
    7.1391    2.2436    0.0000 N   0  0  0  0  0  0  0  0  0  0  0  0
    6.8301    3.1946    0.0000 N   0  0  0  0  0  0  0  0  0  0  0  0
    5.4641   -2.8442    0.0000 C   0  0  0  0  0  0  0  0  0  0  0  0
    3.7320   -2.8442    0.0000 C   0  0  0  0  0  0  0  0  0  0  0  0
    5.4641   -3.8442    0.0000 C   0  0  0  0  0  0  0  0  0  0  0  0
    3.7320   -3.8442    0.0000 C   0  0  0  0  0  0  0  0  0  0  0  0
    4.5981   -1.3442    0.0000 C   0  0  0  0  0  0  0  0  0  0  0  0
    5.4641   -0.8442    0.0000 C   0  0  0  0  0  0  0  0  0  0  0  0
    4.5981   -5.3442    0.0000 C   0  0  0  0  0  0  0  0  0  0  0  0
    5.4641    0.1558    0.0000 C   0  0  0  0  0  0  0  0  0  0  0  0
    6.3301    0.6558    0.0000 C   0  0  0  0  0  0  0  0  0  0  0  0
    3.7320   -5.8442    0.0000 C   0  0  0  0  0  0  0  0  0  0  0  0
    5.4641   -5.8442    0.0000 C   0  0  0  0  0  0  0  0  0  0  0  0
    6.3301    1.6558    0.0000 C   0  0  0  0  0  0  0  0  0  0  0  0
    3.7320   -6.8442    0.0000 C   0  0  0  0  0  0  0  0  0  0  0  0
    5.4641   -6.8442    0.0000 C   0  0  0  0  0  0  0  0  0  0  0  0
    4.5981   -7.3442    0.0000 C   0  0  0  0  0  0  0  0  0  0  0  0
    5.5211    2.2436    0.0000 C   0  0  0  0  0  0  0  0  0  0  0  0
    2.0000   -5.8442    0.0000 C   0  0  0  0  0  0  0  0  0  0  0  0
    5.2423    4.0036    0.0000 C   0  0  0  0  0  0  0  0  0  0  0  0
    5.6491    4.9172    0.0000 C   0  0  0  0  0  0  0  0  0  0  0  0
    4.2478    3.8991    0.0000 C   0  0  0  0  0  0  0  0  0  0  0  0
    5.0613    5.7262    0.0000 C   0  0  0  0  0  0  0  0  0  0  0  0
    3.6600    4.7081    0.0000 C   0  0  0  0  0  0  0  0  0  0  0  0
    4.0668    5.6217    0.0000 C   0  0  0  0  0  0  0  0  0  0  0  0
    3.8857    7.3442    0.0000 C   0  0  0  0  0  0  0  0  0  0  0  0
    6.0747   -2.9519    0.0000 H   0  0  0  0  0  0  0  0  0  0  0  0
    5.6762   -2.2616    0.0000 H   0  0  0  0  0  0  0  0  0  0  0  0
    3.5200   -2.2616    0.0000 H   0  0  0  0  0  0  0  0  0  0  0  0
    3.1215   -2.9519    0.0000 H   0  0  0  0  0  0  0  0  0  0  0  0
    5.6762   -4.4268    0.0000 H   0  0  0  0  0  0  0  0  0  0  0  0
    6.0747   -3.7366    0.0000 H   0  0  0  0  0  0  0  0  0  0  0  0
    3.1215   -3.7366    0.0000 H   0  0  0  0  0  0  0  0  0  0  0  0
    3.5200   -4.4268    0.0000 H   0  0  0  0  0  0  0  0  0  0  0  0
    4.3860   -0.7616    0.0000 H   0  0  0  0  0  0  0  0  0  0  0  0
    3.9875   -1.4519    0.0000 H   0  0  0  0  0  0  0  0  0  0  0  0
    5.6762   -1.4268    0.0000 H   0  0  0  0  0  0  0  0  0  0  0  0
    6.0747   -0.7366    0.0000 H   0  0  0  0  0  0  0  0  0  0  0  0
    5.2520    0.7384    0.0000 H   0  0  0  0  0  0  0  0  0  0  0  0
    4.8535    0.0481    0.0000 H   0  0  0  0  0  0  0  0  0  0  0  0
    6.5422    0.0732    0.0000 H   0  0  0  0  0  0  0  0  0  0  0  0
    6.9407    0.7634    0.0000 H   0  0  0  0  0  0  0  0  0  0  0  0
    6.0010   -5.5342    0.0000 H   0  0  0  0  0  0  0  0  0  0  0  0
    3.1951   -7.1542    0.0000 H   0  0  0  0  0  0  0  0  0  0  0  0
    6.0010   -7.1542    0.0000 H   0  0  0  0  0  0  0  0  0  0  0  0
    4.5981   -7.9642    0.0000 H   0  0  0  0  0  0  0  0  0  0  0  0
    4.9315    2.0520    0.0000 H   0  0  0  0  0  0  0  0  0  0  0  0
    1.6900   -5.3073    0.0000 H   0  0  0  0  0  0  0  0  0  0  0  0
    1.4631   -6.1542    0.0000 H   0  0  0  0  0  0  0  0  0  0  0  0
    2.3100   -6.3812    0.0000 H   0  0  0  0  0  0  0  0  0  0  0  0
    6.2657    4.9820    0.0000 H   0  0  0  0  0  0  0  0  0  0  0  0
    3.9956    3.3327    0.0000 H   0  0  0  0  0  0  0  0  0  0  0  0
    5.3135    6.2926    0.0000 H   0  0  0  0  0  0  0  0  0  0  0  0
    3.0434    4.6433    0.0000 H   0  0  0  0  0  0  0  0  0  0  0  0
    4.4521    7.0920    0.0000 H   0  0  0  0  0  0  0  0  0  0  0  0
    4.1379    7.9106    0.0000 H   0  0  0  0  0  0  0  0  0  0  0  0
    3.3193    7.5964    0.0000 H   0  0  0  0  0  0  0  0  0  0  0  0
  1 30  1  0  0  0  0
  1 31  1  0  0  0  0
  2 17  1  0  0  0  0
  2 24  1  0  0  0  0
  3  8  1  0  0  0  0
  3  9  1  0  0  0  0
  3 12  1  0  0  0  0
  4 10  1  0  0  0  0
  4 11  1  0  0  0  0
  4 14  1  0  0  0  0
  5  7  1  0  0  0  0
  5 23  1  0  0  0  0
  5 25  1  0  0  0  0
  6  7  2  0  0  0  0
  6 19  1  0  0  0  0
  8 10  1  0  0  0  0
  8 32  1  0  0  0  0
  8 33  1  0  0  0  0
  9 11  1  0  0  0  0
  9 34  1  0  0  0  0
  9 35  1  0  0  0  0
 10 36  1  0  0  0  0
 10 37  1  0  0  0  0
 11 38  1  0  0  0  0
 11 39  1  0  0  0  0
 12 13  1  0  0  0  0
 12 40  1  0  0  0  0
 12 41  1  0  0  0  0
 13 15  1  0  0  0  0
 13 42  1  0  0  0  0
 13 43  1  0  0  0  0
 14 17  1  0  0  0  0
 14 18  2  0  0  0  0
 15 16  1  0  0  0  0
 15 44  1  0  0  0  0
 15 45  1  0  0  0  0
 16 19  1  0  0  0  0
 16 46  1  0  0  0  0
 16 47  1  0  0  0  0
 17 20  2  0  0  0  0
 18 21  1  0  0  0  0
 18 48  1  0  0  0  0
 19 23  2  0  0  0  0
 20 22  1  0  0  0  0
 20 49  1  0  0  0  0
 21 22  2  0  0  0  0
 21 50  1  0  0  0  0
 22 51  1  0  0  0  0
 23 52  1  0  0  0  0
 24 53  1  0  0  0  0
 24 54  1  0  0  0  0
 24 55  1  0  0  0  0
 25 26  2  0  0  0  0
 25 27  1  0  0  0  0
 26 28  1  0  0  0  0
 26 56  1  0  0  0  0
 27 29  2  0  0  0  0
 27 57  1  0  0  0  0
 28 30  2  0  0  0  0
 28 58  1  0  0  0  0
 29 30  1  0  0  0  0
 29 59  1  0  0  0  0
 31 60  1  0  0  0  0
 31 61  1  0  0  0  0
 31 62  1  0  0  0  0
M  END
> <PUBCHEM_COMPOUND_CID>
76441180

> <PUBCHEM_COMPOUND_CANONICALIZED>
1

> <PUBCHEM_CACTVS_COMPLEXITY>
510

> <PUBCHEM_CACTVS_HBOND_ACCEPTOR>
6

> <PUBCHEM_CACTVS_HBOND_DONOR>
0

> <PUBCHEM_CACTVS_ROTATABLE_BOND>
9

> <PUBCHEM_CACTVS_SUBSKEYS>
AAADceB7oABAAAAAAAAAAAAAAAAAAWAAAAA8YIAAAAAAAAAB0AAAHgQIAAAACAzB1ga+x5MIBAiiATRnRACCDCQxuhAYmBg/fIgOZmLksZuVMChkwBHY6AeQQAAAAAQAAAAAEAAACAAAAAAgAAAAAAAAAA==

> <PUBCHEM_IUPAC_OPENEYE_NAME>
1-(2-methoxyphenyl)-4-[4-[1-(4-methylsulfanylphenyl)triazol-4-yl]butyl]piperazine

> <PUBCHEM_IUPAC_CAS_NAME>
1-(2-methoxyphenyl)-4-[4-[1-[4-(methylthio)phenyl]-4-triazolyl]butyl]piperazine

> <PUBCHEM_IUPAC_NAME_MARKUP>
1-(2-methoxyphenyl)-4-[4-[1-(4-methylsulfanylphenyl)triazol-4-yl]butyl]piperazine

> <PUBCHEM_IUPAC_NAME>
1-(2-methoxyphenyl)-4-[4-[1-(4-methylsulfanylphenyl)triazol-4-yl]butyl]piperazine

> <PUBCHEM_IUPAC_SYSTEMATIC_NAME>
1-(2-methoxyphenyl)-4-[4-[1-(4-methylsulfanylphenyl)-1,2,3-triazol-4-yl]butyl]piperazine

> <PUBCHEM_IUPAC_TRADITIONAL_NAME>
1-(2-methoxyphenyl)-4-[4-[1-[4-(methylthio)phenyl]triazol-4-yl]butyl]piperazine

> <PUBCHEM_IUPAC_INCHI>
InChI=1S/C24H31N5OS/c1-30-24-9-4-3-8-23(24)28-17-15-27(16-18-28)14-6-5-7-20-19-29(26-25-20)21-10-12-22(31-2)13-11-21/h3-4,8-13,19H,5-7,14-18H2,1-2H3

> <PUBCHEM_IUPAC_INCHIKEY>
XZONNCQQDNOYMJ-UHFFFAOYSA-N

> <PUBCHEM_XLOGP3_AA>
4.5

> <PUBCHEM_EXACT_MASS>
437.22493180

> <PUBCHEM_MOLECULAR_FORMULA>
C24H31N5OS

> <PUBCHEM_MOLECULAR_WEIGHT>
437.6

> <PUBCHEM_OPENEYE_CAN_SMILES>
COC1=CC=CC=C1N2CCN(CC2)CCCCC3=CN(N=N3)C4=CC=C(C=C4)SC

> <PUBCHEM_OPENEYE_ISO_SMILES>
COC1=CC=CC=C1N2CCN(CC2)CCCCC3=CN(N=N3)C4=CC=C(C=C4)SC

> <PUBCHEM_CACTVS_TPSA>
71.7

> <PUBCHEM_MONOISOTOPIC_WEIGHT>
437.22493180

> <PUBCHEM_TOTAL_CHARGE>
0

> <PUBCHEM_HEAVY_ATOM_COUNT>
31

> <PUBCHEM_ATOM_DEF_STEREO_COUNT>
0

> <PUBCHEM_ATOM_UDEF_STEREO_COUNT>
0

> <PUBCHEM_BOND_DEF_STEREO_COUNT>
0

> <PUBCHEM_BOND_UDEF_STEREO_COUNT>
0

> <PUBCHEM_ISOTOPIC_ATOM_COUNT>
0

> <PUBCHEM_COMPONENT_COUNT>
1

> <PUBCHEM_CACTVS_TAUTO_COUNT>
-1

> <PUBCHEM_COORDINATE_TYPE>
1
5
255

> <PUBCHEM_BONDANNOTATIONS>
14  17  8
14  18  8
17  20  8
18  21  8
19  23  8
20  22  8
21  22  8
25  26  8
25  27  8
26  28  8
27  29  8
28  30  8
29  30  8
5  23  8
5  7  8
6  19  8
6  7  8

$$$$
