118710466
  -OEChem-09292322052D

 69 72  0     0  0  0  0  0  0999 V2000
   16.6279    1.9291    0.0000 F   0  0  0  0  0  0  0  0  0  0  0  0
   16.2619    3.2951    0.0000 F   0  0  0  0  0  0  0  0  0  0  0  0
   14.8959    2.9291    0.0000 F   0  0  0  0  0  0  0  0  0  0  0  0
    6.7619   -2.7671    0.0000 O   0  0  0  0  0  0  0  0  0  0  0  0
   10.7619    0.6970    0.0000 N   0  0  0  0  0  0  0  0  0  0  0  0
   12.7619    0.6970    0.0000 N   0  0  0  0  0  0  0  0  0  0  0  0
   14.2619   -0.1690    0.0000 N   0  0  0  0  0  0  0  0  0  0  0  0
   15.7619    0.6970    0.0000 N   0  0  0  0  0  0  0  0  0  0  0  0
    6.7619   -1.0350    0.0000 N   0  0  0  0  0  0  0  0  0  0  0  0
    4.6783   -2.7058    0.0000 N   0  0  0  0  0  0  0  0  0  0  0  0
   11.2619   -0.1690    0.0000 C   0  0  0  0  0  0  0  0  0  0  0  0
   11.2619    1.5630    0.0000 C   0  0  0  0  0  0  0  0  0  0  0  0
   12.2619   -0.1690    0.0000 C   0  0  0  0  0  0  0  0  0  0  0  0
   12.2619    1.5630    0.0000 C   0  0  0  0  0  0  0  0  0  0  0  0
    9.7619    0.6970    0.0000 C   0  0  0  0  0  0  0  0  0  0  0  0
    9.2619   -0.1690    0.0000 C   0  0  0  0  0  0  0  0  0  0  0  0
   13.7619    0.6970    0.0000 C   0  0  0  0  0  0  0  0  0  0  0  0
    8.2619   -0.1690    0.0000 C   0  0  0  0  0  0  0  0  0  0  0  0
   15.7619   -1.0350    0.0000 C   0  0  0  0  0  0  0  0  0  0  0  0
   15.2619   -0.1690    0.0000 C   0  0  0  0  0  0  0  0  0  0  0  0
   14.2619    1.5630    0.0000 C   0  0  0  0  0  0  0  0  0  0  0  0
    7.7619   -1.0350    0.0000 C   0  0  0  0  0  0  0  0  0  0  0  0
   15.2619    1.5630    0.0000 C   0  0  0  0  0  0  0  0  0  0  0  0
   16.2619   -1.9010    0.0000 C   0  0  0  0  0  0  0  0  0  0  0  0
   16.6279   -0.5350    0.0000 C   0  0  0  0  0  0  0  0  0  0  0  0
   14.8959   -1.5350    0.0000 C   0  0  0  0  0  0  0  0  0  0  0  0
   15.7619    2.4291    0.0000 C   0  0  0  0  0  0  0  0  0  0  0  0
    6.2619   -1.9010    0.0000 C   0  0  0  0  0  0  0  0  0  0  0  0
    5.2619   -1.9010    0.0000 C   0  0  0  0  0  0  0  0  0  0  0  0
    4.6783   -1.0963    0.0000 C   0  0  0  0  0  0  0  0  0  0  0  0
    3.7320   -2.4010    0.0000 C   0  0  0  0  0  0  0  0  0  0  0  0
    3.7320   -1.4010    0.0000 C   0  0  0  0  0  0  0  0  0  0  0  0
    2.8660   -2.9010    0.0000 C   0  0  0  0  0  0  0  0  0  0  0  0
    2.8660   -0.9010    0.0000 C   0  0  0  0  0  0  0  0  0  0  0  0
    2.0000   -2.4010    0.0000 C   0  0  0  0  0  0  0  0  0  0  0  0
    2.0000   -1.4010    0.0000 C   0  0  0  0  0  0  0  0  0  0  0  0
   10.6793   -0.3810    0.0000 H   0  0  0  0  0  0  0  0  0  0  0  0
   11.3695   -0.7796    0.0000 H   0  0  0  0  0  0  0  0  0  0  0  0
   11.3695    2.1736    0.0000 H   0  0  0  0  0  0  0  0  0  0  0  0
   10.6793    1.7751    0.0000 H   0  0  0  0  0  0  0  0  0  0  0  0
   12.1542   -0.7796    0.0000 H   0  0  0  0  0  0  0  0  0  0  0  0
   12.8445   -0.3810    0.0000 H   0  0  0  0  0  0  0  0  0  0  0  0
   12.8445    1.7751    0.0000 H   0  0  0  0  0  0  0  0  0  0  0  0
   12.1542    2.1736    0.0000 H   0  0  0  0  0  0  0  0  0  0  0  0
    9.8695    1.3076    0.0000 H   0  0  0  0  0  0  0  0  0  0  0  0
    9.1793    0.9091    0.0000 H   0  0  0  0  0  0  0  0  0  0  0  0
    9.1542   -0.7796    0.0000 H   0  0  0  0  0  0  0  0  0  0  0  0
    9.8445   -0.3810    0.0000 H   0  0  0  0  0  0  0  0  0  0  0  0
    8.3695    0.4416    0.0000 H   0  0  0  0  0  0  0  0  0  0  0  0
    7.6793    0.0431    0.0000 H   0  0  0  0  0  0  0  0  0  0  0  0
   13.9519    2.1000    0.0000 H   0  0  0  0  0  0  0  0  0  0  0  0
    7.6542   -1.6456    0.0000 H   0  0  0  0  0  0  0  0  0  0  0  0
    8.3445   -1.2471    0.0000 H   0  0  0  0  0  0  0  0  0  0  0  0
   15.7249   -2.2110    0.0000 H   0  0  0  0  0  0  0  0  0  0  0  0
   16.5719   -2.4380    0.0000 H   0  0  0  0  0  0  0  0  0  0  0  0
   16.7988   -1.5910    0.0000 H   0  0  0  0  0  0  0  0  0  0  0  0
   16.9379   -1.0720    0.0000 H   0  0  0  0  0  0  0  0  0  0  0  0
   17.1648   -0.2250    0.0000 H   0  0  0  0  0  0  0  0  0  0  0  0
   16.3179    0.0019    0.0000 H   0  0  0  0  0  0  0  0  0  0  0  0
   14.5859   -0.9981    0.0000 H   0  0  0  0  0  0  0  0  0  0  0  0
   14.3589   -1.8450    0.0000 H   0  0  0  0  0  0  0  0  0  0  0  0
   15.2059   -2.0720    0.0000 H   0  0  0  0  0  0  0  0  0  0  0  0
    6.4519   -0.4981    0.0000 H   0  0  0  0  0  0  0  0  0  0  0  0
    4.8709   -3.2951    0.0000 H   0  0  0  0  0  0  0  0  0  0  0  0
    4.8709   -0.5070    0.0000 H   0  0  0  0  0  0  0  0  0  0  0  0
    2.8660   -3.5210    0.0000 H   0  0  0  0  0  0  0  0  0  0  0  0
    2.8660   -0.2810    0.0000 H   0  0  0  0  0  0  0  0  0  0  0  0
    1.4631   -2.7110    0.0000 H   0  0  0  0  0  0  0  0  0  0  0  0
    1.4631   -1.0910    0.0000 H   0  0  0  0  0  0  0  0  0  0  0  0
  1 27  1  0  0  0  0
  2 27  1  0  0  0  0
  3 27  1  0  0  0  0
  4 28  2  0  0  0  0
  5 11  1  0  0  0  0
  5 12  1  0  0  0  0
  5 15  1  0  0  0  0
  6 13  1  0  0  0  0
  6 14  1  0  0  0  0
  6 17  1  0  0  0  0
  7 17  2  0  0  0  0
  7 20  1  0  0  0  0
  8 20  2  0  0  0  0
  8 23  1  0  0  0  0
  9 22  1  0  0  0  0
  9 28  1  0  0  0  0
  9 63  1  0  0  0  0
 10 29  1  0  0  0  0
 10 31  1  0  0  0  0
 10 64  1  0  0  0  0
 11 13  1  0  0  0  0
 11 37  1  0  0  0  0
 11 38  1  0  0  0  0
 12 14  1  0  0  0  0
 12 39  1  0  0  0  0
 12 40  1  0  0  0  0
 13 41  1  0  0  0  0
 13 42  1  0  0  0  0
 14 43  1  0  0  0  0
 14 44  1  0  0  0  0
 15 16  1  0  0  0  0
 15 45  1  0  0  0  0
 15 46  1  0  0  0  0
 16 18  1  0  0  0  0
 16 47  1  0  0  0  0
 16 48  1  0  0  0  0
 17 21  1  0  0  0  0
 18 22  1  0  0  0  0
 18 49  1  0  0  0  0
 18 50  1  0  0  0  0
 19 20  1  0  0  0  0
 19 24  1  0  0  0  0
 19 25  1  0  0  0  0
 19 26  1  0  0  0  0
 21 23  2  0  0  0  0
 21 51  1  0  0  0  0
 22 52  1  0  0  0  0
 22 53  1  0  0  0  0
 23 27  1  0  0  0  0
 24 54  1  0  0  0  0
 24 55  1  0  0  0  0
 24 56  1  0  0  0  0
 25 57  1  0  0  0  0
 25 58  1  0  0  0  0
 25 59  1  0  0  0  0
 26 60  1  0  0  0  0
 26 61  1  0  0  0  0
 26 62  1  0  0  0  0
 28 29  1  0  0  0  0
 29 30  2  0  0  0  0
 30 32  1  0  0  0  0
 30 65  1  0  0  0  0
 31 32  1  0  0  0  0
 31 33  2  0  0  0  0
 32 34  2  0  0  0  0
 33 35  1  0  0  0  0
 33 66  1  0  0  0  0
 34 36  1  0  0  0  0
 34 67  1  0  0  0  0
 35 36  2  0  0  0  0
 35 68  1  0  0  0  0
 36 69  1  0  0  0  0
M  END
> <PUBCHEM_COMPOUND_CID>
118710466

> <PUBCHEM_COMPOUND_CANONICALIZED>
1

> <PUBCHEM_CACTVS_COMPLEXITY>
721

> <PUBCHEM_CACTVS_HBOND_ACCEPTOR>
8

> <PUBCHEM_CACTVS_HBOND_DONOR>
2

> <PUBCHEM_CACTVS_ROTATABLE_BOND>
8

> <PUBCHEM_CACTVS_SUBSKEYS>
AAADcfB7oYAAAAAAAAAAAAAAAAAAAWAAAAA8WIAAAAAAAFgB/AAAHwAQAAAADgjBnxQz8PfJkACoAydydACCgCknAqAJmaG4ZNiIaPLA3fGUJQholgLIyacYiYCeAAAAAAACAAAAAAAAAAQAAAAAAAAAAA==

> <PUBCHEM_IUPAC_OPENEYE_NAME>
N-[4-[4-[2-tert-butyl-6-(trifluoromethyl)pyrimidin-4-yl]piperazin-1-yl]butyl]-1H-indole-2-carboxamide

> <PUBCHEM_IUPAC_CAS_NAME>
N-[4-[4-[2-tert-butyl-6-(trifluoromethyl)-4-pyrimidinyl]-1-piperazinyl]butyl]-1H-indole-2-carboxamide

> <PUBCHEM_IUPAC_NAME_MARKUP>
<I>N</I>-[4-[4-[2-<I>tert</I>-butyl-6-(trifluoromethyl)pyrimidin-4-yl]piperazin-1-yl]butyl]-1<I>H</I>-indole-2-carboxamide

> <PUBCHEM_IUPAC_NAME>
N-[4-[4-[2-tert-butyl-6-(trifluoromethyl)pyrimidin-4-yl]piperazin-1-yl]butyl]-1H-indole-2-carboxamide

> <PUBCHEM_IUPAC_SYSTEMATIC_NAME>
N-[4-[4-[2-tert-butyl-6-(trifluoromethyl)pyrimidin-4-yl]piperazin-1-yl]butyl]-1H-indole-2-carboxamide

> <PUBCHEM_IUPAC_TRADITIONAL_NAME>
N-[4-[4-[2-tert-butyl-6-(trifluoromethyl)pyrimidin-4-yl]piperazino]butyl]-1H-indole-2-carboxamide

> <PUBCHEM_IUPAC_INCHI>
InChI=1S/C26H33F3N6O/c1-25(2,3)24-32-21(26(27,28)29)17-22(33-24)35-14-12-34(13-15-35)11-7-6-10-30-23(36)20-16-18-8-4-5-9-19(18)31-20/h4-5,8-9,16-17,31H,6-7,10-15H2,1-3H3,(H,30,36)

> <PUBCHEM_IUPAC_INCHIKEY>
BNYKYKBRFUPQSI-UHFFFAOYSA-N

> <PUBCHEM_XLOGP3_AA>
5.2

> <PUBCHEM_EXACT_MASS>
502.26679418

> <PUBCHEM_MOLECULAR_FORMULA>
C26H33F3N6O

> <PUBCHEM_MOLECULAR_WEIGHT>
502.6

> <PUBCHEM_OPENEYE_CAN_SMILES>
CC(C)(C)C1=NC(=CC(=N1)N2CCN(CC2)CCCCNC(=O)C3=CC4=CC=CC=C4N3)C(F)(F)F

> <PUBCHEM_OPENEYE_ISO_SMILES>
CC(C)(C)C1=NC(=CC(=N1)N2CCN(CC2)CCCCNC(=O)C3=CC4=CC=CC=C4N3)C(F)(F)F

> <PUBCHEM_CACTVS_TPSA>
77.2

> <PUBCHEM_MONOISOTOPIC_WEIGHT>
502.26679418

> <PUBCHEM_TOTAL_CHARGE>
0

> <PUBCHEM_HEAVY_ATOM_COUNT>
36

> <PUBCHEM_ATOM_DEF_STEREO_COUNT>
0

> <PUBCHEM_ATOM_UDEF_STEREO_COUNT>
0

> <PUBCHEM_BOND_DEF_STEREO_COUNT>
0

> <PUBCHEM_BOND_UDEF_STEREO_COUNT>
0

> <PUBCHEM_ISOTOPIC_ATOM_COUNT>
0

> <PUBCHEM_COMPONENT_COUNT>
1

> <PUBCHEM_CACTVS_TAUTO_COUNT>
-1

> <PUBCHEM_COORDINATE_TYPE>
1
5
255

> <PUBCHEM_BONDANNOTATIONS>
10  29  8
10  31  8
17  21  8
21  23  8
29  30  8
30  32  8
31  32  8
31  33  8
32  34  8
33  35  8
34  36  8
35  36  8
7  17  8
7  20  8
8  20  8
8  23  8

$$$$
