118643968
  -OEChem-09292322072D

 67 70  0     1  0  0  0  0  0999 V2000
    6.3301   -2.2500    0.0000 S   0  0  3  0  0  0  0  0  0  0  0  0
    7.1962   -6.7500    0.0000 F   0  0  0  0  0  0  0  0  0  0  0  0
   10.6603   -0.7500    0.0000 F   0  0  0  0  0  0  0  0  0  0  0  0
    3.7320    3.2500    0.0000 O   0  0  0  0  0  0  0  0  0  0  0  0
    5.4641   -2.7500    0.0000 O   0  0  0  0  0  0  0  0  0  0  0  0
    5.4641    2.2500    0.0000 N   0  0  0  0  0  0  0  0  0  0  0  0
    5.4641    0.2500    0.0000 N   0  0  0  0  0  0  0  0  0  0  0  0
    4.5981    1.7500    0.0000 C   0  0  0  0  0  0  0  0  0  0  0  0
    6.3301    1.7500    0.0000 C   0  0  0  0  0  0  0  0  0  0  0  0
    4.5981    0.7500    0.0000 C   0  0  0  0  0  0  0  0  0  0  0  0
    6.3301    0.7500    0.0000 C   0  0  0  0  0  0  0  0  0  0  0  0
    5.4641    3.2500    0.0000 C   0  0  0  0  0  0  0  0  0  0  0  0
    5.4641   -0.7500    0.0000 C   0  0  0  0  0  0  0  0  0  0  0  0
    4.5981    3.7500    0.0000 C   0  0  3  0  0  0  0  0  0  0  0  0
    6.3301   -1.2500    0.0000 C   0  0  0  0  0  0  0  0  0  0  0  0
    4.5981    4.7500    0.0000 C   0  0  0  0  0  0  0  0  0  0  0  0
    7.1962   -2.7500    0.0000 C   0  0  0  0  0  0  0  0  0  0  0  0
    3.7320    5.2500    0.0000 C   0  0  0  0  0  0  0  0  0  0  0  0
    7.1962   -3.7500    0.0000 C   0  0  0  0  0  0  0  0  0  0  0  0
    8.0622   -2.2500    0.0000 C   0  0  0  0  0  0  0  0  0  0  0  0
    3.7320    6.2500    0.0000 C   0  0  0  0  0  0  0  0  0  0  0  0
    2.8660    4.7500    0.0000 C   0  0  0  0  0  0  0  0  0  0  0  0
    8.0622   -4.2500    0.0000 C   0  0  0  0  0  0  0  0  0  0  0  0
    8.0622   -1.2500    0.0000 C   0  0  0  0  0  0  0  0  0  0  0  0
    6.3301   -4.2500    0.0000 C   0  0  0  0  0  0  0  0  0  0  0  0
    8.9282   -2.7500    0.0000 C   0  0  0  0  0  0  0  0  0  0  0  0
    2.8660    6.7500    0.0000 C   0  0  0  0  0  0  0  0  0  0  0  0
    2.0000    5.2500    0.0000 C   0  0  0  0  0  0  0  0  0  0  0  0
    8.0622   -5.2500    0.0000 C   0  0  0  0  0  0  0  0  0  0  0  0
    8.9282   -0.7500    0.0000 C   0  0  0  0  0  0  0  0  0  0  0  0
    6.3301   -5.2500    0.0000 C   0  0  0  0  0  0  0  0  0  0  0  0
    9.7942   -2.2500    0.0000 C   0  0  0  0  0  0  0  0  0  0  0  0
    2.0000    6.2500    0.0000 C   0  0  0  0  0  0  0  0  0  0  0  0
    7.1962   -5.7500    0.0000 C   0  0  0  0  0  0  0  0  0  0  0  0
    9.7942   -1.2500    0.0000 C   0  0  0  0  0  0  0  0  0  0  0  0
    4.3860    2.3326    0.0000 H   0  0  0  0  0  0  0  0  0  0  0  0
    3.9875    1.6423    0.0000 H   0  0  0  0  0  0  0  0  0  0  0  0
    6.9407    1.6423    0.0000 H   0  0  0  0  0  0  0  0  0  0  0  0
    6.5422    2.3326    0.0000 H   0  0  0  0  0  0  0  0  0  0  0  0
    3.9875    0.8577    0.0000 H   0  0  0  0  0  0  0  0  0  0  0  0
    4.3860    0.1674    0.0000 H   0  0  0  0  0  0  0  0  0  0  0  0
    6.5422    0.1674    0.0000 H   0  0  0  0  0  0  0  0  0  0  0  0
    6.9407    0.8577    0.0000 H   0  0  0  0  0  0  0  0  0  0  0  0
    6.0747    3.1423    0.0000 H   0  0  0  0  0  0  0  0  0  0  0  0
    5.6762    3.8326    0.0000 H   0  0  0  0  0  0  0  0  0  0  0  0
    4.8535   -0.6423    0.0000 H   0  0  0  0  0  0  0  0  0  0  0  0
    5.2520   -1.3326    0.0000 H   0  0  0  0  0  0  0  0  0  0  0  0
    4.5981    3.1300    0.0000 H   0  0  0  0  0  0  0  0  0  0  0  0
    6.9407   -1.3577    0.0000 H   0  0  0  0  0  0  0  0  0  0  0  0
    6.5422   -0.6674    0.0000 H   0  0  0  0  0  0  0  0  0  0  0  0
    5.2087    4.6423    0.0000 H   0  0  0  0  0  0  0  0  0  0  0  0
    4.8101    5.3326    0.0000 H   0  0  0  0  0  0  0  0  0  0  0  0
    6.6592   -3.0600    0.0000 H   0  0  0  0  0  0  0  0  0  0  0  0
    3.1951    3.5600    0.0000 H   0  0  0  0  0  0  0  0  0  0  0  0
    4.2690    6.5600    0.0000 H   0  0  0  0  0  0  0  0  0  0  0  0
    2.8660    4.1300    0.0000 H   0  0  0  0  0  0  0  0  0  0  0  0
    8.5991   -3.9400    0.0000 H   0  0  0  0  0  0  0  0  0  0  0  0
    7.5252   -0.9400    0.0000 H   0  0  0  0  0  0  0  0  0  0  0  0
    5.7932   -3.9400    0.0000 H   0  0  0  0  0  0  0  0  0  0  0  0
    8.9282   -3.3700    0.0000 H   0  0  0  0  0  0  0  0  0  0  0  0
    2.8660    7.3700    0.0000 H   0  0  0  0  0  0  0  0  0  0  0  0
    1.4631    4.9400    0.0000 H   0  0  0  0  0  0  0  0  0  0  0  0
    8.5991   -5.5600    0.0000 H   0  0  0  0  0  0  0  0  0  0  0  0
    8.9282   -0.1300    0.0000 H   0  0  0  0  0  0  0  0  0  0  0  0
    5.7932   -5.5600    0.0000 H   0  0  0  0  0  0  0  0  0  0  0  0
   10.3312   -2.5600    0.0000 H   0  0  0  0  0  0  0  0  0  0  0  0
    1.4631    6.5600    0.0000 H   0  0  0  0  0  0  0  0  0  0  0  0
  1  5  2  0  0  0  0
  1 15  1  0  0  0  0
  1 17  1  0  0  0  0
  2 34  1  0  0  0  0
  3 35  1  0  0  0  0
  4 14  1  0  0  0  0
  4 54  1  0  0  0  0
  6  8  1  0  0  0  0
  6  9  1  0  0  0  0
  6 12  1  0  0  0  0
  7 10  1  0  0  0  0
  7 11  1  0  0  0  0
  7 13  1  0  0  0  0
  8 10  1  0  0  0  0
  8 36  1  0  0  0  0
  8 37  1  0  0  0  0
  9 11  1  0  0  0  0
  9 38  1  0  0  0  0
  9 39  1  0  0  0  0
 10 40  1  0  0  0  0
 10 41  1  0  0  0  0
 11 42  1  0  0  0  0
 11 43  1  0  0  0  0
 12 14  1  0  0  0  0
 12 44  1  0  0  0  0
 12 45  1  0  0  0  0
 13 15  1  0  0  0  0
 13 46  1  0  0  0  0
 13 47  1  0  0  0  0
 14 16  1  0  0  0  0
 14 48  1  0  0  0  0
 15 49  1  0  0  0  0
 15 50  1  0  0  0  0
 16 18  1  0  0  0  0
 16 51  1  0  0  0  0
 16 52  1  0  0  0  0
 17 19  1  0  0  0  0
 17 20  1  0  0  0  0
 17 53  1  0  0  0  0
 18 21  2  0  0  0  0
 18 22  1  0  0  0  0
 19 23  2  0  0  0  0
 19 25  1  0  0  0  0
 20 24  2  0  0  0  0
 20 26  1  0  0  0  0
 21 27  1  0  0  0  0
 21 55  1  0  0  0  0
 22 28  2  0  0  0  0
 22 56  1  0  0  0  0
 23 29  1  0  0  0  0
 23 57  1  0  0  0  0
 24 30  1  0  0  0  0
 24 58  1  0  0  0  0
 25 31  2  0  0  0  0
 25 59  1  0  0  0  0
 26 32  2  0  0  0  0
 26 60  1  0  0  0  0
 27 33  2  0  0  0  0
 27 61  1  0  0  0  0
 28 33  1  0  0  0  0
 28 62  1  0  0  0  0
 29 34  2  0  0  0  0
 29 63  1  0  0  0  0
 30 35  2  0  0  0  0
 30 64  1  0  0  0  0
 31 34  1  0  0  0  0
 31 65  1  0  0  0  0
 32 35  1  0  0  0  0
 32 66  1  0  0  0  0
 33 67  1  0  0  0  0
M  END
> <PUBCHEM_COMPOUND_CID>
118643968

> <PUBCHEM_COMPOUND_CANONICALIZED>
1

> <PUBCHEM_CACTVS_COMPLEXITY>
604

> <PUBCHEM_CACTVS_HBOND_ACCEPTOR>
7

> <PUBCHEM_CACTVS_HBOND_DONOR>
1

> <PUBCHEM_CACTVS_ROTATABLE_BOND>
10

> <PUBCHEM_CACTVS_SUBSKEYS>
AAADcfB7MYBAAAAAAAAAAAAAAAAAAAAAAAA8YMEAAAAAAAABUAAAHwQACAAADBTl2A6wAIMAAgqAAiBCAEBCAAAgABAIiAAIAIgKcCKgkRCUYAAkwAG4iAeQwOAOAAAAAAAAAAAAAAAAAAAAAAAAAAAAAA==

> <PUBCHEM_IUPAC_OPENEYE_NAME>
1-[4-[2-[bis(4-fluorophenyl)methylsulfinyl]ethyl]piperazin-1-yl]-3-phenyl-propan-2-ol

> <PUBCHEM_IUPAC_CAS_NAME>
1-[4-[2-[bis(4-fluorophenyl)methylsulfinyl]ethyl]-1-piperazinyl]-3-phenyl-2-propanol

> <PUBCHEM_IUPAC_NAME_MARKUP>
1-[4-[2-[bis(4-fluorophenyl)methylsulfinyl]ethyl]piperazin-1-yl]-3-phenylpropan-2-ol

> <PUBCHEM_IUPAC_NAME>
1-[4-[2-[bis(4-fluorophenyl)methylsulfinyl]ethyl]piperazin-1-yl]-3-phenylpropan-2-ol

> <PUBCHEM_IUPAC_SYSTEMATIC_NAME>
1-[4-[2-[bis(4-fluorophenyl)methylsulfinyl]ethyl]piperazin-1-yl]-3-phenyl-propan-2-ol

> <PUBCHEM_IUPAC_TRADITIONAL_NAME>
1-[4-[2-[bis(4-fluorophenyl)methylsulfinyl]ethyl]piperazino]-3-phenyl-propan-2-ol

> <PUBCHEM_IUPAC_INCHI>
InChI=1S/C28H32F2N2O2S/c29-25-10-6-23(7-11-25)28(24-8-12-26(30)13-9-24)35(34)19-18-31-14-16-32(17-15-31)21-27(33)20-22-4-2-1-3-5-22/h1-13,27-28,33H,14-21H2

> <PUBCHEM_IUPAC_INCHIKEY>
MACFTPBZAOCTFN-UHFFFAOYSA-N

> <PUBCHEM_XLOGP3_AA>
4

> <PUBCHEM_EXACT_MASS>
498.21525577

> <PUBCHEM_MOLECULAR_FORMULA>
C28H32F2N2O2S

> <PUBCHEM_MOLECULAR_WEIGHT>
498.6

> <PUBCHEM_OPENEYE_CAN_SMILES>
C1CN(CCN1CCS(=O)C(C2=CC=C(C=C2)F)C3=CC=C(C=C3)F)CC(CC4=CC=CC=C4)O

> <PUBCHEM_OPENEYE_ISO_SMILES>
C1CN(CCN1CCS(=O)C(C2=CC=C(C=C2)F)C3=CC=C(C=C3)F)CC(CC4=CC=CC=C4)O

> <PUBCHEM_CACTVS_TPSA>
63

> <PUBCHEM_MONOISOTOPIC_WEIGHT>
498.21525577

> <PUBCHEM_TOTAL_CHARGE>
0

> <PUBCHEM_HEAVY_ATOM_COUNT>
35

> <PUBCHEM_ATOM_DEF_STEREO_COUNT>
0

> <PUBCHEM_ATOM_UDEF_STEREO_COUNT>
2

> <PUBCHEM_BOND_DEF_STEREO_COUNT>
0

> <PUBCHEM_BOND_UDEF_STEREO_COUNT>
0

> <PUBCHEM_ISOTOPIC_ATOM_COUNT>
0

> <PUBCHEM_COMPONENT_COUNT>
1

> <PUBCHEM_CACTVS_TAUTO_COUNT>
-1

> <PUBCHEM_COORDINATE_TYPE>
1
5
255

> <PUBCHEM_BONDANNOTATIONS>
1  15  3
18  21  8
18  22  8
19  23  8
19  25  8
20  24  8
20  26  8
21  27  8
22  28  8
23  29  8
24  30  8
25  31  8
26  32  8
27  33  8
28  33  8
29  34  8
30  35  8
31  34  8
32  35  8
14  4  3

$$$$
