15291586
  -OEChem-09292322202D

112118  0     0  0  0  0  0  0999 V2000
   17.7173   -3.6769    0.0000 O   0  0  0  0  0  0  0  0  0  0  0  0
    6.5000    2.8108    0.0000 O   0  0  0  0  0  0  0  0  0  0  0  0
   13.1337   -2.8721    0.0000 N   0  0  0  0  0  0  0  0  0  0  0  0
   11.0836    2.0061    0.0000 N   0  0  0  0  0  0  0  0  0  0  0  0
   20.7173   -5.4089    0.0000 N   0  0  0  0  0  0  0  0  0  0  0  0
    3.5000    4.5429    0.0000 N   0  0  0  0  0  0  0  0  0  0  0  0
   13.1337   -4.4816    0.0000 N   0  0  0  0  0  0  0  0  0  0  0  0
   11.0836    3.6156    0.0000 N   0  0  0  0  0  0  0  0  0  0  0  0
   13.4443   -1.9216    0.0000 C   0  0  0  0  0  0  0  0  0  0  0  0
   10.7729    1.0556    0.0000 C   0  0  0  0  0  0  0  0  0  0  0  0
   12.7765   -1.1773    0.0000 C   0  0  0  0  0  0  0  0  0  0  0  0
   11.4408    0.3113    0.0000 C   0  0  0  0  0  0  0  0  0  0  0  0
   12.1874   -3.1769    0.0000 C   0  0  0  0  0  0  0  0  0  0  0  0
   12.0298    2.3108    0.0000 C   0  0  0  0  0  0  0  0  0  0  0  0
   13.7173   -3.6769    0.0000 C   0  0  0  0  0  0  0  0  0  0  0  0
   10.5000    2.8108    0.0000 C   0  0  0  0  0  0  0  0  0  0  0  0
   12.1874   -4.1769    0.0000 C   0  0  0  0  0  0  0  0  0  0  0  0
   12.0298    3.3108    0.0000 C   0  0  0  0  0  0  0  0  0  0  0  0
   11.7980   -1.3835    0.0000 C   0  0  0  0  0  0  0  0  0  0  0  0
   11.1301   -0.6392    0.0000 C   0  0  0  0  0  0  0  0  0  0  0  0
   13.0871   -0.2268    0.0000 C   0  0  0  0  0  0  0  0  0  0  0  0
   12.4193    0.5175    0.0000 C   0  0  0  0  0  0  0  0  0  0  0  0
   14.7173   -3.6769    0.0000 C   0  0  0  0  0  0  0  0  0  0  0  0
    9.5000    2.8108    0.0000 C   0  0  0  0  0  0  0  0  0  0  0  0
   19.7173   -5.4089    0.0000 C   0  0  0  0  0  0  0  0  0  0  0  0
    4.5000    4.5429    0.0000 C   0  0  0  0  0  0  0  0  0  0  0  0
   19.2173   -4.5429    0.0000 C   0  0  0  0  0  0  0  0  0  0  0  0
    5.0000    3.6769    0.0000 C   0  0  0  0  0  0  0  0  0  0  0  0
   11.3214   -2.6769    0.0000 C   0  0  0  0  0  0  0  0  0  0  0  0
   12.8959    1.8108    0.0000 C   0  0  0  0  0  0  0  0  0  0  0  0
   21.2173   -6.2749    0.0000 C   0  0  0  0  0  0  0  0  0  0  0  0
   21.2173   -4.5429    0.0000 C   0  0  0  0  0  0  0  0  0  0  0  0
    3.0000    5.4089    0.0000 C   0  0  0  0  0  0  0  0  0  0  0  0
    3.0000    3.6769    0.0000 C   0  0  0  0  0  0  0  0  0  0  0  0
   18.2173   -4.5429    0.0000 C   0  0  0  0  0  0  0  0  0  0  0  0
    6.0000    3.6769    0.0000 C   0  0  0  0  0  0  0  0  0  0  0  0
   11.3214   -4.6769    0.0000 C   0  0  0  0  0  0  0  0  0  0  0  0
   12.8959    3.8108    0.0000 C   0  0  0  0  0  0  0  0  0  0  0  0
   15.2173   -4.5429    0.0000 C   0  0  0  0  0  0  0  0  0  0  0  0
    9.0000    1.9448    0.0000 C   0  0  0  0  0  0  0  0  0  0  0  0
   15.2173   -2.8108    0.0000 C   0  0  0  0  0  0  0  0  0  0  0  0
    9.0000    3.6769    0.0000 C   0  0  0  0  0  0  0  0  0  0  0  0
   16.7173   -3.6769    0.0000 C   0  0  0  0  0  0  0  0  0  0  0  0
    7.5000    2.8108    0.0000 C   0  0  0  0  0  0  0  0  0  0  0  0
   10.4554   -3.1769    0.0000 C   0  0  0  0  0  0  0  0  0  0  0  0
   13.7619    2.3108    0.0000 C   0  0  0  0  0  0  0  0  0  0  0  0
   10.4554   -4.1769    0.0000 C   0  0  0  0  0  0  0  0  0  0  0  0
   13.7619    3.3108    0.0000 C   0  0  0  0  0  0  0  0  0  0  0  0
   16.2173   -4.5429    0.0000 C   0  0  0  0  0  0  0  0  0  0  0  0
    8.0000    1.9448    0.0000 C   0  0  0  0  0  0  0  0  0  0  0  0
   16.2173   -2.8108    0.0000 C   0  0  0  0  0  0  0  0  0  0  0  0
    8.0000    3.6769    0.0000 C   0  0  0  0  0  0  0  0  0  0  0  0
   22.2173   -6.2749    0.0000 C   0  0  0  0  0  0  0  0  0  0  0  0
   22.2173   -4.5429    0.0000 C   0  0  0  0  0  0  0  0  0  0  0  0
    3.5000    6.2749    0.0000 C   0  0  0  0  0  0  0  0  0  0  0  0
    2.0000    3.6769    0.0000 C   0  0  0  0  0  0  0  0  0  0  0  0
   13.9912   -2.2136    0.0000 H   0  0  0  0  0  0  0  0  0  0  0  0
   13.8269   -1.4337    0.0000 H   0  0  0  0  0  0  0  0  0  0  0  0
   10.2260    1.3476    0.0000 H   0  0  0  0  0  0  0  0  0  0  0  0
   10.3904    0.5677    0.0000 H   0  0  0  0  0  0  0  0  0  0  0  0
   11.6054   -1.9729    0.0000 H   0  0  0  0  0  0  0  0  0  0  0  0
   10.5235   -0.7671    0.0000 H   0  0  0  0  0  0  0  0  0  0  0  0
   13.6938   -0.0989    0.0000 H   0  0  0  0  0  0  0  0  0  0  0  0
   12.6119    1.1068    0.0000 H   0  0  0  0  0  0  0  0  0  0  0  0
   19.1347   -5.6210    0.0000 H   0  0  0  0  0  0  0  0  0  0  0  0
   19.8249   -6.0195    0.0000 H   0  0  0  0  0  0  0  0  0  0  0  0
    5.0826    4.7550    0.0000 H   0  0  0  0  0  0  0  0  0  0  0  0
    4.3923    5.1535    0.0000 H   0  0  0  0  0  0  0  0  0  0  0  0
   19.7999   -4.3308    0.0000 H   0  0  0  0  0  0  0  0  0  0  0  0
   19.1096   -3.9323    0.0000 H   0  0  0  0  0  0  0  0  0  0  0  0
    4.4174    3.4648    0.0000 H   0  0  0  0  0  0  0  0  0  0  0  0
    5.1077    3.0663    0.0000 H   0  0  0  0  0  0  0  0  0  0  0  0
   11.3214   -2.0569    0.0000 H   0  0  0  0  0  0  0  0  0  0  0  0
   12.8959    1.1908    0.0000 H   0  0  0  0  0  0  0  0  0  0  0  0
   20.6347   -6.4870    0.0000 H   0  0  0  0  0  0  0  0  0  0  0  0
   21.3249   -6.8855    0.0000 H   0  0  0  0  0  0  0  0  0  0  0  0
   21.3249   -3.9323    0.0000 H   0  0  0  0  0  0  0  0  0  0  0  0
   20.6347   -4.3308    0.0000 H   0  0  0  0  0  0  0  0  0  0  0  0
    2.5250    5.8074    0.0000 H   0  0  0  0  0  0  0  0  0  0  0  0
    2.5250    5.0104    0.0000 H   0  0  0  0  0  0  0  0  0  0  0  0
    2.8923    3.0663    0.0000 H   0  0  0  0  0  0  0  0  0  0  0  0
    3.5826    3.4648    0.0000 H   0  0  0  0  0  0  0  0  0  0  0  0
   17.6347   -4.7550    0.0000 H   0  0  0  0  0  0  0  0  0  0  0  0
   18.3249   -5.1535    0.0000 H   0  0  0  0  0  0  0  0  0  0  0  0
    6.5826    3.8889    0.0000 H   0  0  0  0  0  0  0  0  0  0  0  0
    5.8923    4.2874    0.0000 H   0  0  0  0  0  0  0  0  0  0  0  0
   11.3214   -5.2969    0.0000 H   0  0  0  0  0  0  0  0  0  0  0  0
   12.8959    4.4308    0.0000 H   0  0  0  0  0  0  0  0  0  0  0  0
   14.9073   -5.0798    0.0000 H   0  0  0  0  0  0  0  0  0  0  0  0
    9.3100    1.4079    0.0000 H   0  0  0  0  0  0  0  0  0  0  0  0
   14.9073   -2.2739    0.0000 H   0  0  0  0  0  0  0  0  0  0  0  0
    9.3100    4.2138    0.0000 H   0  0  0  0  0  0  0  0  0  0  0  0
    9.9184   -2.8669    0.0000 H   0  0  0  0  0  0  0  0  0  0  0  0
   14.2988    2.0008    0.0000 H   0  0  0  0  0  0  0  0  0  0  0  0
    9.9184   -4.4869    0.0000 H   0  0  0  0  0  0  0  0  0  0  0  0
   14.2988    3.6208    0.0000 H   0  0  0  0  0  0  0  0  0  0  0  0
   16.5273   -5.0798    0.0000 H   0  0  0  0  0  0  0  0  0  0  0  0
    7.6900    1.4079    0.0000 H   0  0  0  0  0  0  0  0  0  0  0  0
   16.5273   -2.2739    0.0000 H   0  0  0  0  0  0  0  0  0  0  0  0
    7.6900    4.2138    0.0000 H   0  0  0  0  0  0  0  0  0  0  0  0
   22.2173   -6.8949    0.0000 H   0  0  0  0  0  0  0  0  0  0  0  0
   22.8373   -6.2749    0.0000 H   0  0  0  0  0  0  0  0  0  0  0  0
   22.2173   -5.6549    0.0000 H   0  0  0  0  0  0  0  0  0  0  0  0
   22.2173   -5.1629    0.0000 H   0  0  0  0  0  0  0  0  0  0  0  0
   22.8373   -4.5429    0.0000 H   0  0  0  0  0  0  0  0  0  0  0  0
   22.2173   -3.9229    0.0000 H   0  0  0  0  0  0  0  0  0  0  0  0
    4.0369    5.9649    0.0000 H   0  0  0  0  0  0  0  0  0  0  0  0
    3.8100    6.8119    0.0000 H   0  0  0  0  0  0  0  0  0  0  0  0
    2.9631    6.5849    0.0000 H   0  0  0  0  0  0  0  0  0  0  0  0
    2.0000    4.2969    0.0000 H   0  0  0  0  0  0  0  0  0  0  0  0
    1.3800    3.6769    0.0000 H   0  0  0  0  0  0  0  0  0  0  0  0
    2.0000    3.0569    0.0000 H   0  0  0  0  0  0  0  0  0  0  0  0
  1 35  1  0  0  0  0
  1 43  1  0  0  0  0
  2 36  1  0  0  0  0
  2 44  1  0  0  0  0
  3  9  1  0  0  0  0
  3 13  1  0  0  0  0
  3 15  1  0  0  0  0
  4 10  1  0  0  0  0
  4 14  1  0  0  0  0
  4 16  1  0  0  0  0
  5 25  1  0  0  0  0
  5 31  1  0  0  0  0
  5 32  1  0  0  0  0
  6 26  1  0  0  0  0
  6 33  1  0  0  0  0
  6 34  1  0  0  0  0
  7 15  2  0  0  0  0
  7 17  1  0  0  0  0
  8 16  2  0  0  0  0
  8 18  1  0  0  0  0
  9 11  1  0  0  0  0
  9 57  1  0  0  0  0
  9 58  1  0  0  0  0
 10 12  1  0  0  0  0
 10 59  1  0  0  0  0
 10 60  1  0  0  0  0
 11 19  2  0  0  0  0
 11 21  1  0  0  0  0
 12 20  2  0  0  0  0
 12 22  1  0  0  0  0
 13 17  1  0  0  0  0
 13 29  2  0  0  0  0
 14 18  1  0  0  0  0
 14 30  2  0  0  0  0
 15 23  1  0  0  0  0
 16 24  1  0  0  0  0
 17 37  2  0  0  0  0
 18 38  2  0  0  0  0
 19 20  1  0  0  0  0
 19 61  1  0  0  0  0
 20 62  1  0  0  0  0
 21 22  2  0  0  0  0
 21 63  1  0  0  0  0
 22 64  1  0  0  0  0
 23 39  2  0  0  0  0
 23 41  1  0  0  0  0
 24 40  2  0  0  0  0
 24 42  1  0  0  0  0
 25 27  1  0  0  0  0
 25 65  1  0  0  0  0
 25 66  1  0  0  0  0
 26 28  1  0  0  0  0
 26 67  1  0  0  0  0
 26 68  1  0  0  0  0
 27 35  1  0  0  0  0
 27 69  1  0  0  0  0
 27 70  1  0  0  0  0
 28 36  1  0  0  0  0
 28 71  1  0  0  0  0
 28 72  1  0  0  0  0
 29 45  1  0  0  0  0
 29 73  1  0  0  0  0
 30 46  1  0  0  0  0
 30 74  1  0  0  0  0
 31 53  1  0  0  0  0
 31 75  1  0  0  0  0
 31 76  1  0  0  0  0
 32 54  1  0  0  0  0
 32 77  1  0  0  0  0
 32 78  1  0  0  0  0
 33 55  1  0  0  0  0
 33 79  1  0  0  0  0
 33 80  1  0  0  0  0
 34 56  1  0  0  0  0
 34 81  1  0  0  0  0
 34 82  1  0  0  0  0
 35 83  1  0  0  0  0
 35 84  1  0  0  0  0
 36 85  1  0  0  0  0
 36 86  1  0  0  0  0
 37 47  1  0  0  0  0
 37 87  1  0  0  0  0
 38 48  1  0  0  0  0
 38 88  1  0  0  0  0
 39 49  1  0  0  0  0
 39 89  1  0  0  0  0
 40 50  1  0  0  0  0
 40 90  1  0  0  0  0
 41 51  2  0  0  0  0
 41 91  1  0  0  0  0
 42 52  2  0  0  0  0
 42 92  1  0  0  0  0
 43 49  2  0  0  0  0
 43 51  1  0  0  0  0
 44 50  2  0  0  0  0
 44 52  1  0  0  0  0
 45 47  2  0  0  0  0
 45 93  1  0  0  0  0
 46 48  2  0  0  0  0
 46 94  1  0  0  0  0
 47 95  1  0  0  0  0
 48 96  1  0  0  0  0
 49 97  1  0  0  0  0
 50 98  1  0  0  0  0
 51 99  1  0  0  0  0
 52100  1  0  0  0  0
 53101  1  0  0  0  0
 53102  1  0  0  0  0
 53103  1  0  0  0  0
 54104  1  0  0  0  0
 54105  1  0  0  0  0
 54106  1  0  0  0  0
 55107  1  0  0  0  0
 55108  1  0  0  0  0
 55109  1  0  0  0  0
 56110  1  0  0  0  0
 56111  1  0  0  0  0
 56112  1  0  0  0  0
M  END
> <PUBCHEM_COMPOUND_CID>
15291586

> <PUBCHEM_COMPOUND_CANONICALIZED>
1

> <PUBCHEM_CACTVS_COMPLEXITY>
998

> <PUBCHEM_CACTVS_HBOND_ACCEPTOR>
6

> <PUBCHEM_CACTVS_HBOND_DONOR>
0

> <PUBCHEM_CACTVS_ROTATABLE_BOND>
20

> <PUBCHEM_CACTVS_SUBSKEYS>
AAADcfB/sAAAAAAAAAAAAAAAAAAAAWLAAAAwYMGDAAAAAFgB/gAAHgAAAAAADAzhnwYz1rcMFACgAyZiZACCiC0hMqAJ2CA+fJiMbqLEuZuWOCjuwBPI6CeQ0AIOYAAAAAAAACDAAAAAAAAAQAAAAAAAAA==

> <PUBCHEM_IUPAC_OPENEYE_NAME>
3-[4-[1-[[4-[[2-[4-[3-(diethylamino)propoxy]phenyl]benzimidazol-1-yl]methyl]phenyl]methyl]benzimidazol-2-yl]phenoxy]-N,N-diethyl-propan-1-amine

> <PUBCHEM_IUPAC_CAS_NAME>
3-[4-[1-[[4-[[2-[4-[3-(diethylamino)propoxy]phenyl]-1-benzimidazolyl]methyl]phenyl]methyl]-2-benzimidazolyl]phenoxy]-N,N-diethyl-1-propanamine

> <PUBCHEM_IUPAC_NAME_MARKUP>
3-[4-[1-[[4-[[2-[4-[3-(diethylamino)propoxy]phenyl]benzimidazol-1-yl]methyl]phenyl]methyl]benzimidazol-2-yl]phenoxy]-<I>N</I>,<I>N</I>-diethylpropan-1-amine

> <PUBCHEM_IUPAC_NAME>
3-[4-[1-[[4-[[2-[4-[3-(diethylamino)propoxy]phenyl]benzimidazol-1-yl]methyl]phenyl]methyl]benzimidazol-2-yl]phenoxy]-N,N-diethylpropan-1-amine

> <PUBCHEM_IUPAC_SYSTEMATIC_NAME>
3-[4-[1-[[4-[[2-[4-[3-(diethylamino)propoxy]phenyl]benzimidazol-1-yl]methyl]phenyl]methyl]benzimidazol-2-yl]phenoxy]-N,N-diethyl-propan-1-amine

> <PUBCHEM_IUPAC_TRADITIONAL_NAME>
3-[4-[1-[4-[[2-[4-[3-(diethylamino)propoxy]phenyl]benzimidazol-1-yl]methyl]benzyl]benzimidazol-2-yl]phenoxy]propyl-diethyl-amine

> <PUBCHEM_IUPAC_INCHI>
InChI=1S/C48H56N6O2/c1-5-51(6-2)31-13-33-55-41-27-23-39(24-28-41)47-49-43-15-9-11-17-45(43)53(47)35-37-19-21-38(22-20-37)36-54-46-18-12-10-16-44(46)50-48(54)40-25-29-42(30-26-40)56-34-14-32-52(7-3)8-4/h9-12,15-30H,5-8,13-14,31-36H2,1-4H3

> <PUBCHEM_IUPAC_INCHIKEY>
KILHLNJNPKNQHO-UHFFFAOYSA-N

> <PUBCHEM_XLOGP3_AA>
9.7

> <PUBCHEM_EXACT_MASS>
748.44647505

> <PUBCHEM_MOLECULAR_FORMULA>
C48H56N6O2

> <PUBCHEM_MOLECULAR_WEIGHT>
749.0

> <PUBCHEM_OPENEYE_CAN_SMILES>
CCN(CC)CCCOC1=CC=C(C=C1)C2=NC3=CC=CC=C3N2CC4=CC=C(C=C4)CN5C6=CC=CC=C6N=C5C7=CC=C(C=C7)OCCCN(CC)CC

> <PUBCHEM_OPENEYE_ISO_SMILES>
CCN(CC)CCCOC1=CC=C(C=C1)C2=NC3=CC=CC=C3N2CC4=CC=C(C=C4)CN5C6=CC=CC=C6N=C5C7=CC=C(C=C7)OCCCN(CC)CC

> <PUBCHEM_CACTVS_TPSA>
60.6

> <PUBCHEM_MONOISOTOPIC_WEIGHT>
748.44647505

> <PUBCHEM_TOTAL_CHARGE>
0

> <PUBCHEM_HEAVY_ATOM_COUNT>
56

> <PUBCHEM_ATOM_DEF_STEREO_COUNT>
0

> <PUBCHEM_ATOM_UDEF_STEREO_COUNT>
0

> <PUBCHEM_BOND_DEF_STEREO_COUNT>
0

> <PUBCHEM_BOND_UDEF_STEREO_COUNT>
0

> <PUBCHEM_ISOTOPIC_ATOM_COUNT>
0

> <PUBCHEM_COMPONENT_COUNT>
1

> <PUBCHEM_CACTVS_TAUTO_COUNT>
-1

> <PUBCHEM_COORDINATE_TYPE>
1
5
255

> <PUBCHEM_BONDANNOTATIONS>
11  19  8
11  21  8
12  20  8
12  22  8
13  17  8
13  29  8
14  18  8
14  30  8
17  37  8
18  38  8
19  20  8
21  22  8
23  39  8
23  41  8
24  40  8
24  42  8
29  45  8
3  13  8
3  15  8
30  46  8
37  47  8
38  48  8
39  49  8
4  14  8
4  16  8
40  50  8
41  51  8
42  52  8
43  49  8
43  51  8
44  50  8
44  52  8
45  47  8
46  48  8
7  15  8
7  17  8
8  16  8
8  18  8

$$$$
