164623328
  -OEChem-09292322432D

 50 53  0     1  0  0  0  0  0999 V2000
    4.7715    2.3063    0.0000 N   0  0  3  0  0  0  0  0  0  0  0  0
    7.0731   -0.3966    0.0000 N   0  0  0  0  0  0  0  0  0  0  0  0
    6.5731   -2.5873    0.0000 N   0  0  0  0  0  0  0  0  0  0  0  0
    4.6420    0.5791    0.0000 C   0  0  0  0  0  0  0  0  0  0  0  0
    5.6392    0.5044    0.0000 C   0  0  0  0  0  0  0  0  0  0  0  0
    4.2082    1.4801    0.0000 C   0  0  0  0  0  0  0  0  0  0  0  0
    5.7687    2.2316    0.0000 C   0  0  0  0  0  0  0  0  0  0  0  0
    6.0731   -0.3966    0.0000 C   0  0  0  0  0  0  0  0  0  0  0  0
    6.2026    1.3306    0.0000 C   0  0  0  0  0  0  0  0  0  0  0  0
    5.4496   -1.1784    0.0000 C   0  0  0  0  0  0  0  0  0  0  0  0
    5.6721   -2.1534    0.0000 C   0  0  0  0  0  0  0  0  0  0  0  0
    4.3376    3.2073    0.0000 C   0  0  0  0  0  0  0  0  0  0  0  0
    4.4591   -0.8561    0.0000 C   0  0  0  0  0  0  0  0  0  0  0  0
    7.6966   -1.1785    0.0000 C   0  0  0  0  0  0  0  0  0  0  0  0
    3.6901   -1.5587    0.0000 C   0  0  0  0  0  0  0  0  0  0  0  0
    7.4741   -2.1534    0.0000 C   0  0  0  0  0  0  0  0  0  0  0  0
    4.9196   -2.8736    0.0000 C   0  0  0  0  0  0  0  0  0  0  0  0
    3.9219   -2.5742    0.0000 C   0  0  0  0  0  0  0  0  0  0  0  0
    2.7357   -1.2602    0.0000 C   0  0  0  0  0  0  0  0  0  0  0  0
    8.6871   -0.8561    0.0000 C   0  0  0  0  0  0  0  0  0  0  0  0
    8.2266   -2.8736    0.0000 C   0  0  0  0  0  0  0  0  0  0  0  0
    9.4561   -1.5587    0.0000 C   0  0  0  0  0  0  0  0  0  0  0  0
    9.2243   -2.5742    0.0000 C   0  0  0  0  0  0  0  0  0  0  0  0
    2.0000   -1.9376    0.0000 C   0  0  0  0  0  0  0  0  0  0  0  0
   10.4105   -1.2603    0.0000 C   0  0  0  0  0  0  0  0  0  0  0  0
    4.0452    0.4112    0.0000 H   0  0  0  0  0  0  0  0  0  0  0  0
    4.7038   -0.0378    0.0000 H   0  0  0  0  0  0  0  0  0  0  0  0
    3.7643    1.9130    0.0000 H   0  0  0  0  0  0  0  0  0  0  0  0
    3.7048    1.1181    0.0000 H   0  0  0  0  0  0  0  0  0  0  0  0
    6.3655    2.3995    0.0000 H   0  0  0  0  0  0  0  0  0  0  0  0
    5.7070    2.8485    0.0000 H   0  0  0  0  0  0  0  0  0  0  0  0
    6.8208    1.2842    0.0000 H   0  0  0  0  0  0  0  0  0  0  0  0
    4.8962    3.4763    0.0000 H   0  0  0  0  0  0  0  0  0  0  0  0
    4.0686    3.7659    0.0000 H   0  0  0  0  0  0  0  0  0  0  0  0
    3.7790    2.9383    0.0000 H   0  0  0  0  0  0  0  0  0  0  0  0
    4.3282   -0.2501    0.0000 H   0  0  0  0  0  0  0  0  0  0  0  0
    6.5731   -3.2073    0.0000 H   0  0  0  0  0  0  0  0  0  0  0  0
    5.0645   -3.4764    0.0000 H   0  0  0  0  0  0  0  0  0  0  0  0
    3.4690   -2.9976    0.0000 H   0  0  0  0  0  0  0  0  0  0  0  0
    3.0206   -0.7096    0.0000 H   0  0  0  0  0  0  0  0  0  0  0  0
    2.2429   -0.8840    0.0000 H   0  0  0  0  0  0  0  0  0  0  0  0
    8.8181   -0.2501    0.0000 H   0  0  0  0  0  0  0  0  0  0  0  0
    8.0817   -3.4764    0.0000 H   0  0  0  0  0  0  0  0  0  0  0  0
    9.6772   -2.9977    0.0000 H   0  0  0  0  0  0  0  0  0  0  0  0
    1.5800   -1.4815    0.0000 H   0  0  0  0  0  0  0  0  0  0  0  0
    1.5439   -2.3575    0.0000 H   0  0  0  0  0  0  0  0  0  0  0  0
    2.4200   -2.3937    0.0000 H   0  0  0  0  0  0  0  0  0  0  0  0
   10.5956   -1.8520    0.0000 H   0  0  0  0  0  0  0  0  0  0  0  0
   11.0023   -1.0753    0.0000 H   0  0  0  0  0  0  0  0  0  0  0  0
   10.2255   -0.6685    0.0000 H   0  0  0  0  0  0  0  0  0  0  0  0
  1  6  1  0  0  0  0
  1  7  1  0  0  0  0
  1 12  1  0  0  0  0
  2  8  2  0  0  0  0
  2 14  1  0  0  0  0
  3 11  1  0  0  0  0
  3 16  1  0  0  0  0
  3 37  1  0  0  0  0
  4  5  1  0  0  0  0
  4  6  1  0  0  0  0
  4 26  1  0  0  0  0
  4 27  1  0  0  0  0
  5  8  1  0  0  0  0
  5  9  2  0  0  0  0
  6 28  1  0  0  0  0
  6 29  1  0  0  0  0
  7  9  1  0  0  0  0
  7 30  1  0  0  0  0
  7 31  1  0  0  0  0
  8 10  1  0  0  0  0
  9 32  1  0  0  0  0
 10 11  2  0  0  0  0
 10 13  1  0  0  0  0
 11 17  1  0  0  0  0
 12 33  1  0  0  0  0
 12 34  1  0  0  0  0
 12 35  1  0  0  0  0
 13 15  2  0  0  0  0
 13 36  1  0  0  0  0
 14 16  2  0  0  0  0
 14 20  1  0  0  0  0
 15 18  1  0  0  0  0
 15 19  1  0  0  0  0
 16 21  1  0  0  0  0
 17 18  2  0  0  0  0
 17 38  1  0  0  0  0
 18 39  1  0  0  0  0
 19 24  1  0  0  0  0
 19 40  1  0  0  0  0
 19 41  1  0  0  0  0
 20 22  2  0  0  0  0
 20 42  1  0  0  0  0
 21 23  2  0  0  0  0
 21 43  1  0  0  0  0
 22 23  1  0  0  0  0
 22 25  1  0  0  0  0
 23 44  1  0  0  0  0
 24 45  1  0  0  0  0
 24 46  1  0  0  0  0
 24 47  1  0  0  0  0
 25 48  1  0  0  0  0
 25 49  1  0  0  0  0
 25 50  1  0  0  0  0
M  END
> <PUBCHEM_COMPOUND_CID>
164623328

> <PUBCHEM_COMPOUND_CANONICALIZED>
1

> <PUBCHEM_CACTVS_COMPLEXITY>
537

> <PUBCHEM_CACTVS_HBOND_ACCEPTOR>
3

> <PUBCHEM_CACTVS_HBOND_DONOR>
1

> <PUBCHEM_CACTVS_ROTATABLE_BOND>
2

> <PUBCHEM_CACTVS_SUBSKEYS>
AAADceB7AAAAAAAAAAAAAAAAAAAAAAAAAAAwYIAABAAAAAABQAAAHAAQAAAADAjBGAQywIPAAACgAyRiRACCAAAhAgAIiAAodJgIYOLAkZGUIAhgkADIyAcQgMAOCAACQAACACAQAASAAAQAQAAAAAAAAA==

> <PUBCHEM_IUPAC_OPENEYE_NAME>
8-ethyl-3-methyl-6-(1-methyl-3,6-dihydro-2H-pyridin-4-yl)-11H-benzo[b][1,4]benzodiazepine

> <PUBCHEM_IUPAC_CAS_NAME>
8-ethyl-3-methyl-6-(1-methyl-3,6-dihydro-2H-pyridin-4-yl)-11H-benzo[b][1,4]benzodiazepine

> <PUBCHEM_IUPAC_NAME_MARKUP>
8-ethyl-3-methyl-6-(1-methyl-3,6-dihydro-2<I>H</I>-pyridin-4-yl)-11<I>H</I>-benzo[b][1,4]benzodiazepine

> <PUBCHEM_IUPAC_NAME>
8-ethyl-3-methyl-6-(1-methyl-3,6-dihydro-2H-pyridin-4-yl)-11H-benzo[b][1,4]benzodiazepine

> <PUBCHEM_IUPAC_SYSTEMATIC_NAME>
8-ethyl-3-methyl-6-(1-methyl-3,6-dihydro-2H-pyridin-4-yl)-11H-benzo[b][1,4]benzodiazepine

> <PUBCHEM_IUPAC_TRADITIONAL_NAME>
8-ethyl-3-methyl-6-(1-methyl-3,6-dihydro-2H-pyridin-4-yl)-11H-benzo[b][1,4]benzodiazepine

> <PUBCHEM_IUPAC_INCHI>
InChI=1S/C22H25N3/c1-4-16-6-8-19-18(14-16)22(17-9-11-25(3)12-10-17)24-21-13-15(2)5-7-20(21)23-19/h5-9,13-14,23H,4,10-12H2,1-3H3

> <PUBCHEM_IUPAC_INCHIKEY>
IWMPNKVRIUOVNY-UHFFFAOYSA-N

> <PUBCHEM_XLOGP3_AA>
4.5

> <PUBCHEM_EXACT_MASS>
331.204847810

> <PUBCHEM_MOLECULAR_FORMULA>
C22H25N3

> <PUBCHEM_MOLECULAR_WEIGHT>
331.5

> <PUBCHEM_OPENEYE_CAN_SMILES>
CCC1=CC2=C(C=C1)NC3=C(C=C(C=C3)C)N=C2C4=CCN(CC4)C

> <PUBCHEM_OPENEYE_ISO_SMILES>
CCC1=CC2=C(C=C1)NC3=C(C=C(C=C3)C)N=C2C4=CCN(CC4)C

> <PUBCHEM_CACTVS_TPSA>
27.6

> <PUBCHEM_MONOISOTOPIC_WEIGHT>
331.204847810

> <PUBCHEM_TOTAL_CHARGE>
0

> <PUBCHEM_HEAVY_ATOM_COUNT>
25

> <PUBCHEM_ATOM_DEF_STEREO_COUNT>
0

> <PUBCHEM_ATOM_UDEF_STEREO_COUNT>
0

> <PUBCHEM_BOND_DEF_STEREO_COUNT>
0

> <PUBCHEM_BOND_UDEF_STEREO_COUNT>
0

> <PUBCHEM_ISOTOPIC_ATOM_COUNT>
0

> <PUBCHEM_COMPONENT_COUNT>
1

> <PUBCHEM_CACTVS_TAUTO_COUNT>
-1

> <PUBCHEM_COORDINATE_TYPE>
1
5
255

> <PUBCHEM_BONDANNOTATIONS>
10  11  8
10  13  8
11  17  8
13  15  8
14  16  8
14  20  8
15  18  8
16  21  8
17  18  8
20  22  8
21  23  8
22  23  8

$$$$
