155569198
  -OEChem-09292322412D

 74 76  0     1  0  0  0  0  0999 V2000
   14.8322    7.0530    0.0000 Cl  0  0  0  0  0  0  0  0  0  0  0  0
    4.8671    0.6200    0.0000 F   0  0  0  0  0  0  0  0  0  0  0  0
    1.4030    2.6200    0.0000 O   0  0  0  0  0  0  0  0  0  0  0  0
    6.2331   10.9860    0.0000 O   0  0  0  0  0  0  0  0  0  0  0  0
    4.5010    5.9860    0.0000 N   0  0  3  0  0  0  0  0  0  0  0  0
    7.0991    9.4860    0.0000 N   0  0  0  0  0  0  0  0  0  0  0  0
   11.4292   11.9860    0.0000 N   0  0  0  0  0  0  0  0  0  0  0  0
    3.6350    4.4860    0.0000 C   0  0  2  0  0  0  0  0  0  0  0  0
    3.1350    3.6200    0.0000 C   0  0  2  0  0  0  0  0  0  0  0  0
    2.6350    4.4860    0.0000 C   0  0  0  0  0  0  0  0  0  0  0  0
    4.5010    4.9860    0.0000 C   0  0  0  0  0  0  0  0  0  0  0  0
    3.1350    2.6200    0.0000 C   0  0  0  0  0  0  0  0  0  0  0  0
    2.2690    2.1200    0.0000 C   0  0  0  0  0  0  0  0  0  0  0  0
    5.3671    6.4860    0.0000 C   0  0  0  0  0  0  0  0  0  0  0  0
    4.0010    2.1200    0.0000 C   0  0  0  0  0  0  0  0  0  0  0  0
    3.6350    6.4860    0.0000 C   0  0  0  0  0  0  0  0  0  0  0  0
    5.3671    7.4860    0.0000 C   0  0  0  0  0  0  0  0  0  0  0  0
    3.6350    7.4860    0.0000 C   0  0  0  0  0  0  0  0  0  0  0  0
    2.2690    1.1200    0.0000 C   0  0  0  0  0  0  0  0  0  0  0  0
    4.0010    1.1200    0.0000 C   0  0  0  0  0  0  0  0  0  0  0  0
    3.1350    0.6200    0.0000 C   0  0  0  0  0  0  0  0  0  0  0  0
    6.2331    7.9860    0.0000 C   0  0  0  0  0  0  0  0  0  0  0  0
    2.7690    7.9860    0.0000 C   0  0  0  0  0  0  0  0  0  0  0  0
    6.2331    8.9860    0.0000 C   0  0  0  0  0  0  0  0  0  0  0  0
    0.5369    2.1200    0.0000 C   0  0  0  0  0  0  0  0  0  0  0  0
    7.0991   10.4860    0.0000 C   0  0  0  0  0  0  0  0  0  0  0  0
    7.9651   10.9860    0.0000 C   0  0  0  0  0  0  0  0  0  0  0  0
    8.8312   10.4860    0.0000 C   0  0  0  0  0  0  0  0  0  0  0  0
    7.9651   11.9860    0.0000 C   0  0  0  0  0  0  0  0  0  0  0  0
    9.6972   10.9860    0.0000 C   0  0  0  0  0  0  0  0  0  0  0  0
    8.8312   12.4860    0.0000 C   0  0  0  0  0  0  0  0  0  0  0  0
    9.6972   11.9860    0.0000 C   0  0  0  0  0  0  0  0  0  0  0  0
   10.5632   12.4860    0.0000 C   0  0  0  0  0  0  0  0  0  0  0  0
   10.5632   13.4860    0.0000 C   0  0  0  0  0  0  0  0  0  0  0  0
   11.4292   13.9860    0.0000 C   0  0  0  0  0  0  0  0  0  0  0  0
   12.2953   12.4860    0.0000 C   0  0  0  0  0  0  0  0  0  0  0  0
   12.2953   13.4860    0.0000 C   0  0  0  0  0  0  0  0  0  0  0  0
    3.4745    5.0849    0.0000 H   0  0  0  0  0  0  0  0  0  0  0  0
    3.9560    3.4000    0.0000 H   0  0  0  0  0  0  0  0  0  0  0  0
    2.5274    5.0966    0.0000 H   0  0  0  0  0  0  0  0  0  0  0  0
    2.0524    4.2740    0.0000 H   0  0  0  0  0  0  0  0  0  0  0  0
    4.7131    4.4034    0.0000 H   0  0  0  0  0  0  0  0  0  0  0  0
    5.1116    5.0937    0.0000 H   0  0  0  0  0  0  0  0  0  0  0  0
    5.5791    5.9034    0.0000 H   0  0  0  0  0  0  0  0  0  0  0  0
    5.9776    6.5937    0.0000 H   0  0  0  0  0  0  0  0  0  0  0  0
    4.5380    2.4300    0.0000 H   0  0  0  0  0  0  0  0  0  0  0  0
    3.0244    6.5937    0.0000 H   0  0  0  0  0  0  0  0  0  0  0  0
    3.4230    5.9034    0.0000 H   0  0  0  0  0  0  0  0  0  0  0  0
    5.1550    8.0686    0.0000 H   0  0  0  0  0  0  0  0  0  0  0  0
    4.7565    7.3784    0.0000 H   0  0  0  0  0  0  0  0  0  0  0  0
    4.2456    7.3784    0.0000 H   0  0  0  0  0  0  0  0  0  0  0  0
    3.8471    8.0686    0.0000 H   0  0  0  0  0  0  0  0  0  0  0  0
    1.7320    0.8100    0.0000 H   0  0  0  0  0  0  0  0  0  0  0  0
    3.1350    0.0000    0.0000 H   0  0  0  0  0  0  0  0  0  0  0  0
    6.4451    7.4034    0.0000 H   0  0  0  0  0  0  0  0  0  0  0  0
    6.8437    8.0937    0.0000 H   0  0  0  0  0  0  0  0  0  0  0  0
    3.0790    8.5230    0.0000 H   0  0  0  0  0  0  0  0  0  0  0  0
    2.2320    8.2960    0.0000 H   0  0  0  0  0  0  0  0  0  0  0  0
    2.4590    7.4491    0.0000 H   0  0  0  0  0  0  0  0  0  0  0  0
    6.0210    9.5686    0.0000 H   0  0  0  0  0  0  0  0  0  0  0  0
    5.6225    8.8784    0.0000 H   0  0  0  0  0  0  0  0  0  0  0  0
    0.2269    2.6569    0.0000 H   0  0  0  0  0  0  0  0  0  0  0  0
    0.0000    1.8100    0.0000 H   0  0  0  0  0  0  0  0  0  0  0  0
    0.8469    1.5831    0.0000 H   0  0  0  0  0  0  0  0  0  0  0  0
    7.6360    9.1760    0.0000 H   0  0  0  0  0  0  0  0  0  0  0  0
    8.8312    9.8660    0.0000 H   0  0  0  0  0  0  0  0  0  0  0  0
    7.4282   12.2960    0.0000 H   0  0  0  0  0  0  0  0  0  0  0  0
   10.2341   10.6760    0.0000 H   0  0  0  0  0  0  0  0  0  0  0  0
    8.8312   13.1060    0.0000 H   0  0  0  0  0  0  0  0  0  0  0  0
   10.0263   13.7960    0.0000 H   0  0  0  0  0  0  0  0  0  0  0  0
   11.4292   14.6060    0.0000 H   0  0  0  0  0  0  0  0  0  0  0  0
   12.8322   12.1760    0.0000 H   0  0  0  0  0  0  0  0  0  0  0  0
   12.8322   13.7960    0.0000 H   0  0  0  0  0  0  0  0  0  0  0  0
   15.8322    7.0530    0.0000 H   0  0  0  0  0  0  0  0  0  0  0  0
  1 74  1  0  0  0  0
  2 20  1  0  0  0  0
  3 13  1  0  0  0  0
  3 25  1  0  0  0  0
  4 26  2  0  0  0  0
  5 11  1  0  0  0  0
  5 14  1  0  0  0  0
  5 16  1  0  0  0  0
  6 24  1  0  0  0  0
  6 26  1  0  0  0  0
  6 65  1  0  0  0  0
  7 33  1  0  0  0  0
  7 36  2  0  0  0  0
  8  9  1  0  0  0  0
  8 10  1  0  0  0  0
  8 11  1  6  0  0  0
  8 38  1  0  0  0  0
  9 10  1  0  0  0  0
  9 12  1  0  0  0  0
  9 39  1  6  0  0  0
 10 40  1  0  0  0  0
 10 41  1  0  0  0  0
 11 42  1  0  0  0  0
 11 43  1  0  0  0  0
 12 13  2  0  0  0  0
 12 15  1  0  0  0  0
 13 19  1  0  0  0  0
 14 17  1  0  0  0  0
 14 44  1  0  0  0  0
 14 45  1  0  0  0  0
 15 20  2  0  0  0  0
 15 46  1  0  0  0  0
 16 18  1  0  0  0  0
 16 47  1  0  0  0  0
 16 48  1  0  0  0  0
 17 22  1  0  0  0  0
 17 49  1  0  0  0  0
 17 50  1  0  0  0  0
 18 23  1  0  0  0  0
 18 51  1  0  0  0  0
 18 52  1  0  0  0  0
 19 21  2  0  0  0  0
 19 53  1  0  0  0  0
 20 21  1  0  0  0  0
 21 54  1  0  0  0  0
 22 24  1  0  0  0  0
 22 55  1  0  0  0  0
 22 56  1  0  0  0  0
 23 57  1  0  0  0  0
 23 58  1  0  0  0  0
 23 59  1  0  0  0  0
 24 60  1  0  0  0  0
 24 61  1  0  0  0  0
 25 62  1  0  0  0  0
 25 63  1  0  0  0  0
 25 64  1  0  0  0  0
 26 27  1  0  0  0  0
 27 28  2  0  0  0  0
 27 29  1  0  0  0  0
 28 30  1  0  0  0  0
 28 66  1  0  0  0  0
 29 31  2  0  0  0  0
 29 67  1  0  0  0  0
 30 32  2  0  0  0  0
 30 68  1  0  0  0  0
 31 32  1  0  0  0  0
 31 69  1  0  0  0  0
 32 33  1  0  0  0  0
 33 34  2  0  0  0  0
 34 35  1  0  0  0  0
 34 70  1  0  0  0  0
 35 37  2  0  0  0  0
 35 71  1  0  0  0  0
 36 37  1  0  0  0  0
 36 72  1  0  0  0  0
 37 73  1  0  0  0  0
M  END
> <PUBCHEM_COMPOUND_CID>
155569198

> <PUBCHEM_COMPOUND_CANONICALIZED>
1

> <PUBCHEM_CACTVS_COMPLEXITY>
656

> <PUBCHEM_CACTVS_HBOND_ACCEPTOR>
5

> <PUBCHEM_CACTVS_HBOND_DONOR>
2

> <PUBCHEM_CACTVS_ROTATABLE_BOND>
13

> <PUBCHEM_CACTVS_SUBSKEYS>
AAADcfB7MQAEAAAAAAAAAAAAGAAAAAAAAAA8YIAAAAAAAAAB0AAAHwAQAAAADQzBng4+hpPIFACoAzV3VACCiCA1IiAI2KE+bNgMJvLEtZuEMShk1hHI6YeY2OKOwAAAAAAIAACAAAAAABAAAAAAAAAAAA==

> <PUBCHEM_IUPAC_OPENEYE_NAME>
N-[4-[[(1S,2S)-2-(5-fluoro-2-methoxy-phenyl)cyclopropyl]methyl-propyl-amino]butyl]-4-(2-pyridyl)benzamide;hydrochloride

> <PUBCHEM_IUPAC_CAS_NAME>
N-[4-[[(1S,2S)-2-(5-fluoro-2-methoxyphenyl)cyclopropyl]methyl-propylamino]butyl]-4-(2-pyridinyl)benzamide;hydrochloride

> <PUBCHEM_IUPAC_NAME_MARKUP>
<I>N</I>-[4-[[(1<I>S</I>,2<I>S</I>)-2-(5-fluoro-2-methoxyphenyl)cyclopropyl]methyl-propylamino]butyl]-4-pyridin-2-ylbenzamide;hydrochloride

> <PUBCHEM_IUPAC_NAME>
N-[4-[[(1S,2S)-2-(5-fluoro-2-methoxyphenyl)cyclopropyl]methyl-propylamino]butyl]-4-pyridin-2-ylbenzamide;hydrochloride

> <PUBCHEM_IUPAC_SYSTEMATIC_NAME>
N-[4-[[(1S,2S)-2-(5-fluoranyl-2-methoxy-phenyl)cyclopropyl]methyl-propyl-amino]butyl]-4-pyridin-2-yl-benzamide;hydrochloride

> <PUBCHEM_IUPAC_TRADITIONAL_NAME>
N-[4-[[(1S,2S)-2-(5-fluoro-2-methoxy-phenyl)cyclopropyl]methyl-propyl-amino]butyl]-4-(2-pyridyl)benzamide;hydrochloride

> <PUBCHEM_IUPAC_INCHI>
InChI=1S/C30H36FN3O2.ClH/c1-3-17-34(21-24-19-26(24)27-20-25(31)13-14-29(27)36-2)18-7-6-16-33-30(35)23-11-9-22(10-12-23)28-8-4-5-15-32-28;/h4-5,8-15,20,24,26H,3,6-7,16-19,21H2,1-2H3,(H,33,35);1H/t24-,26+;/m1./s1

> <PUBCHEM_IUPAC_INCHIKEY>
SSQQZDDUGAUYAE-OTTABGKNSA-N

> <PUBCHEM_EXACT_MASS>
525.2558333

> <PUBCHEM_MOLECULAR_FORMULA>
C30H37ClFN3O2

> <PUBCHEM_MOLECULAR_WEIGHT>
526.1

> <PUBCHEM_OPENEYE_CAN_SMILES>
CCCN(CCCCNC(=O)C1=CC=C(C=C1)C2=CC=CC=N2)CC3CC3C4=C(C=CC(=C4)F)OC.Cl

> <PUBCHEM_OPENEYE_ISO_SMILES>
CCCN(CCCCNC(=O)C1=CC=C(C=C1)C2=CC=CC=N2)C[C@H]3C[C@@H]3C4=C(C=CC(=C4)F)OC.Cl

> <PUBCHEM_CACTVS_TPSA>
54.5

> <PUBCHEM_MONOISOTOPIC_WEIGHT>
525.2558333

> <PUBCHEM_TOTAL_CHARGE>
0

> <PUBCHEM_HEAVY_ATOM_COUNT>
37

> <PUBCHEM_ATOM_DEF_STEREO_COUNT>
2

> <PUBCHEM_ATOM_UDEF_STEREO_COUNT>
0

> <PUBCHEM_BOND_DEF_STEREO_COUNT>
0

> <PUBCHEM_BOND_UDEF_STEREO_COUNT>
0

> <PUBCHEM_ISOTOPIC_ATOM_COUNT>
0

> <PUBCHEM_COMPONENT_COUNT>
2

> <PUBCHEM_CACTVS_TAUTO_COUNT>
-1

> <PUBCHEM_COORDINATE_TYPE>
1
5
255

> <PUBCHEM_BONDANNOTATIONS>
12  13  8
12  15  8
13  19  8
15  20  8
19  21  8
20  21  8
27  28  8
27  29  8
28  30  8
29  31  8
30  32  8
31  32  8
33  34  8
34  35  8
35  37  8
36  37  8
7  33  8
7  36  8
8  11  6
9  39  6

$$$$
