127039745
  -OEChem-09292322002D

 73 76  0     1  0  0  0  0  0999 V2000
   11.5001    3.6200    0.0000 Cl  0  0  0  0  0  0  0  0  0  0  0  0
    1.8936    3.3153    0.0000 S   0  0  0  0  0  0  0  0  0  0  0  0
    7.0565    9.2377    0.0000 F   0  0  0  0  0  0  0  0  0  0  0  0
    5.6905    9.6038    0.0000 F   0  0  0  0  0  0  0  0  0  0  0  0
    6.0565   10.9698    0.0000 F   0  0  0  0  0  0  0  0  0  0  0  0
    8.2885   10.1038    0.0000 O   0  0  0  0  0  0  0  0  0  0  0  0
    7.4225   11.6038    0.0000 O   0  0  0  0  0  0  0  0  0  0  0  0
    5.4379    3.1200    0.0000 N   0  0  3  0  0  0  0  0  0  0  0  0
    8.0360    3.6200    0.0000 N   0  0  0  0  0  0  0  0  0  0  0  0
    9.7680    4.6200    0.0000 N   0  0  0  0  0  0  0  0  0  0  0  0
    1.8936    4.9247    0.0000 N   0  0  0  0  0  0  0  0  0  0  0  0
    0.3100    4.1200    0.0000 N   0  0  0  0  0  0  0  0  0  0  0  0
   13.3123    4.8153    0.0000 N   0  0  0  0  0  0  0  0  0  0  0  0
    4.5719    3.6200    0.0000 C   0  0  1  0  0  0  0  0  0  0  0  0
    4.5719    4.6200    0.0000 C   0  0  0  0  0  0  0  0  0  0  0  0
    3.7058    3.1200    0.0000 C   0  0  0  0  0  0  0  0  0  0  0  0
    6.3039    3.6200    0.0000 C   0  0  0  0  0  0  0  0  0  0  0  0
    7.1700    3.1200    0.0000 C   0  0  0  0  0  0  0  0  0  0  0  0
    3.7058    5.1200    0.0000 C   0  0  0  0  0  0  0  0  0  0  0  0
    5.4379    2.1200    0.0000 C   0  0  0  0  0  0  0  0  0  0  0  0
    8.9020    3.1200    0.0000 C   0  0  0  0  0  0  0  0  0  0  0  0
    8.0360    4.6200    0.0000 C   0  0  0  0  0  0  0  0  0  0  0  0
    2.8398    3.6200    0.0000 C   0  0  0  0  0  0  0  0  0  0  0  0
    2.8398    4.6200    0.0000 C   0  0  0  0  0  0  0  0  0  0  0  0
    9.7680    3.6200    0.0000 C   0  0  0  0  0  0  0  0  0  0  0  0
    8.9020    5.1200    0.0000 C   0  0  0  0  0  0  0  0  0  0  0  0
    4.5719    1.6200    0.0000 C   0  0  0  0  0  0  0  0  0  0  0  0
   10.6341    5.1200    0.0000 C   0  0  0  0  0  0  0  0  0  0  0  0
    1.3100    4.1200    0.0000 C   0  0  0  0  0  0  0  0  0  0  0  0
    4.5719    0.6200    0.0000 C   0  0  0  0  0  0  0  0  0  0  0  0
   11.5001    4.6200    0.0000 C   0  0  0  0  0  0  0  0  0  0  0  0
   10.6341    6.1200    0.0000 C   0  0  0  0  0  0  0  0  0  0  0  0
   12.3661    5.1200    0.0000 C   0  0  0  0  0  0  0  0  0  0  0  0
   12.3661    6.1200    0.0000 C   0  0  0  0  0  0  0  0  0  0  0  0
   11.5001    6.6200    0.0000 C   0  0  0  0  0  0  0  0  0  0  0  0
   13.3123    6.4247    0.0000 C   0  0  0  0  0  0  0  0  0  0  0  0
   13.8959    5.6200    0.0000 C   0  0  0  0  0  0  0  0  0  0  0  0
    6.5565   10.1038    0.0000 C   0  0  0  0  0  0  0  0  0  0  0  0
    7.4225   10.6038    0.0000 C   0  0  0  0  0  0  0  0  0  0  0  0
    4.5719    3.0000    0.0000 H   0  0  0  0  0  0  0  0  0  0  0  0
    5.1825    4.5123    0.0000 H   0  0  0  0  0  0  0  0  0  0  0  0
    4.7839    5.2026    0.0000 H   0  0  0  0  0  0  0  0  0  0  0  0
    3.3073    2.6450    0.0000 H   0  0  0  0  0  0  0  0  0  0  0  0
    4.1044    2.6450    0.0000 H   0  0  0  0  0  0  0  0  0  0  0  0
    6.7025    4.0950    0.0000 H   0  0  0  0  0  0  0  0  0  0  0  0
    5.9054    4.0950    0.0000 H   0  0  0  0  0  0  0  0  0  0  0  0
    6.7714    2.6450    0.0000 H   0  0  0  0  0  0  0  0  0  0  0  0
    7.5685    2.6450    0.0000 H   0  0  0  0  0  0  0  0  0  0  0  0
    4.1044    5.5950    0.0000 H   0  0  0  0  0  0  0  0  0  0  0  0
    3.3073    5.5950    0.0000 H   0  0  0  0  0  0  0  0  0  0  0  0
    5.6500    1.5374    0.0000 H   0  0  0  0  0  0  0  0  0  0  0  0
    6.0485    2.2277    0.0000 H   0  0  0  0  0  0  0  0  0  0  0  0
    8.5035    2.6450    0.0000 H   0  0  0  0  0  0  0  0  0  0  0  0
    9.3005    2.6450    0.0000 H   0  0  0  0  0  0  0  0  0  0  0  0
    7.8239    5.2026    0.0000 H   0  0  0  0  0  0  0  0  0  0  0  0
    7.4254    4.5123    0.0000 H   0  0  0  0  0  0  0  0  0  0  0  0
    9.9801    3.0374    0.0000 H   0  0  0  0  0  0  0  0  0  0  0  0
   10.3786    3.7277    0.0000 H   0  0  0  0  0  0  0  0  0  0  0  0
    9.3005    5.5950    0.0000 H   0  0  0  0  0  0  0  0  0  0  0  0
    8.5035    5.5950    0.0000 H   0  0  0  0  0  0  0  0  0  0  0  0
    4.3598    2.2026    0.0000 H   0  0  0  0  0  0  0  0  0  0  0  0
    3.9613    1.5123    0.0000 H   0  0  0  0  0  0  0  0  0  0  0  0
    3.9519    0.6200    0.0000 H   0  0  0  0  0  0  0  0  0  0  0  0
    4.5719    0.0000    0.0000 H   0  0  0  0  0  0  0  0  0  0  0  0
    5.1919    0.6200    0.0000 H   0  0  0  0  0  0  0  0  0  0  0  0
   10.0971    6.4300    0.0000 H   0  0  0  0  0  0  0  0  0  0  0  0
   11.5001    7.2400    0.0000 H   0  0  0  0  0  0  0  0  0  0  0  0
    0.0000    4.6569    0.0000 H   0  0  0  0  0  0  0  0  0  0  0  0
    0.0000    3.5831    0.0000 H   0  0  0  0  0  0  0  0  0  0  0  0
   13.5049    4.2259    0.0000 H   0  0  0  0  0  0  0  0  0  0  0  0
   13.5049    7.0140    0.0000 H   0  0  0  0  0  0  0  0  0  0  0  0
   14.5159    5.6200    0.0000 H   0  0  0  0  0  0  0  0  0  0  0  0
    8.8255   10.4138    0.0000 H   0  0  0  0  0  0  0  0  0  0  0  0
  1 31  1  0  0  0  0
  2 23  1  0  0  0  0
  2 29  1  0  0  0  0
  3 38  1  0  0  0  0
  4 38  1  0  0  0  0
  5 38  1  0  0  0  0
  6 39  1  0  0  0  0
  6 73  1  0  0  0  0
  7 39  2  0  0  0  0
 14  8  1  6  0  0  0
  8 17  1  0  0  0  0
  8 20  1  0  0  0  0
  9 18  1  0  0  0  0
  9 21  1  0  0  0  0
  9 22  1  0  0  0  0
 10 25  1  0  0  0  0
 10 26  1  0  0  0  0
 10 28  1  0  0  0  0
 11 24  1  0  0  0  0
 11 29  2  0  0  0  0
 12 29  1  0  0  0  0
 12 68  1  0  0  0  0
 12 69  1  0  0  0  0
 13 33  1  0  0  0  0
 13 37  1  0  0  0  0
 13 70  1  0  0  0  0
 14 15  1  0  0  0  0
 14 16  1  0  0  0  0
 14 40  1  0  0  0  0
 15 19  1  0  0  0  0
 15 41  1  0  0  0  0
 15 42  1  0  0  0  0
 16 23  1  0  0  0  0
 16 43  1  0  0  0  0
 16 44  1  0  0  0  0
 17 18  1  0  0  0  0
 17 45  1  0  0  0  0
 17 46  1  0  0  0  0
 18 47  1  0  0  0  0
 18 48  1  0  0  0  0
 19 24  1  0  0  0  0
 19 49  1  0  0  0  0
 19 50  1  0  0  0  0
 20 27  1  0  0  0  0
 20 51  1  0  0  0  0
 20 52  1  0  0  0  0
 21 25  1  0  0  0  0
 21 53  1  0  0  0  0
 21 54  1  0  0  0  0
 22 26  1  0  0  0  0
 22 55  1  0  0  0  0
 22 56  1  0  0  0  0
 23 24  2  0  0  0  0
 25 57  1  0  0  0  0
 25 58  1  0  0  0  0
 26 59  1  0  0  0  0
 26 60  1  0  0  0  0
 27 30  1  0  0  0  0
 27 61  1  0  0  0  0
 27 62  1  0  0  0  0
 28 31  2  0  0  0  0
 28 32  1  0  0  0  0
 30 63  1  0  0  0  0
 30 64  1  0  0  0  0
 30 65  1  0  0  0  0
 31 33  1  0  0  0  0
 32 35  2  0  0  0  0
 32 66  1  0  0  0  0
 33 34  2  0  0  0  0
 34 35  1  0  0  0  0
 34 36  1  0  0  0  0
 35 67  1  0  0  0  0
 36 37  2  0  0  0  0
 36 71  1  0  0  0  0
 37 72  1  0  0  0  0
 38 39  1  0  0  0  0
M  END
> <PUBCHEM_COMPOUND_CID>
127039745

> <PUBCHEM_COMPOUND_CANONICALIZED>
1

> <PUBCHEM_CACTVS_COMPLEXITY>
689

> <PUBCHEM_CACTVS_HBOND_ACCEPTOR>
11

> <PUBCHEM_CACTVS_HBOND_DONOR>
3

> <PUBCHEM_CACTVS_ROTATABLE_BOND>
7

> <PUBCHEM_CACTVS_SUBSKEYS>
AAADcfB7sYBEAAAAAAAAAAAAAAAAAWLAAAA8YIAAAAAAAFgB/AAAHwYQCAAADCrB3jQ/2fPJkgisAzT3bACC8KlxDjkI2bQ4ZpiIYOLh09HUJAhgkALIyCcQgIAOCAAAIAQCABAQAQBASAQCIAAAAAAAAA==

> <PUBCHEM_IUPAC_OPENEYE_NAME>
(6S)-N6-[2-[4-(7-chloro-1H-indol-6-yl)piperazin-1-yl]ethyl]-N6-propyl-4,5,6,7-tetrahydro-1,3-benzothiazole-2,6-diamine;2,2,2-trifluoroacetic acid

> <PUBCHEM_IUPAC_CAS_NAME>
(6S)-N6-[2-[4-(7-chloro-1H-indol-6-yl)-1-piperazinyl]ethyl]-N6-propyl-4,5,6,7-tetrahydro-1,3-benzothiazole-2,6-diamine;2,2,2-trifluoroacetic acid

> <PUBCHEM_IUPAC_NAME_MARKUP>
(6<I>S</I>)-6-<I>N</I>-[2-[4-(7-chloro-1<I>H</I>-indol-6-yl)piperazin-1-yl]ethyl]-6-<I>N</I>-propyl-4,5,6,7-tetrahydro-1,3-benzothiazole-2,6-diamine;2,2,2-trifluoroacetic acid

> <PUBCHEM_IUPAC_NAME>
(6S)-6-N-[2-[4-(7-chloro-1H-indol-6-yl)piperazin-1-yl]ethyl]-6-N-propyl-4,5,6,7-tetrahydro-1,3-benzothiazole-2,6-diamine;2,2,2-trifluoroacetic acid

> <PUBCHEM_IUPAC_SYSTEMATIC_NAME>
(6S)-N6-[2-[4-(7-chloranyl-1H-indol-6-yl)piperazin-1-yl]ethyl]-N6-propyl-4,5,6,7-tetrahydro-1,3-benzothiazole-2,6-diamine;2,2,2-tris(fluoranyl)ethanoic acid

> <PUBCHEM_IUPAC_TRADITIONAL_NAME>
[(6S)-2-amino-4,5,6,7-tetrahydro-1,3-benzothiazol-6-yl]-[2-[4-(7-chloro-1H-indol-6-yl)piperazino]ethyl]-propyl-amine;2,2,2-trifluoroacetic acid

> <PUBCHEM_IUPAC_INCHI>
InChI=1S/C24H33ClN6S.C2HF3O2/c1-2-9-30(18-4-5-19-21(16-18)32-24(26)28-19)13-10-29-11-14-31(15-12-29)20-6-3-17-7-8-27-23(17)22(20)25;3-2(4,5)1(6)7/h3,6-8,18,27H,2,4-5,9-16H2,1H3,(H2,26,28);(H,6,7)/t18-;/m0./s1

> <PUBCHEM_IUPAC_INCHIKEY>
SKLZAZBJAPMPHI-FERBBOLQSA-N

> <PUBCHEM_EXACT_MASS>
586.2104577

> <PUBCHEM_MOLECULAR_FORMULA>
C26H34ClF3N6O2S

> <PUBCHEM_MOLECULAR_WEIGHT>
587.1

> <PUBCHEM_OPENEYE_CAN_SMILES>
CCCN(CCN1CCN(CC1)C2=C(C3=C(C=C2)C=CN3)Cl)C4CCC5=C(C4)SC(=N5)N.C(=O)(C(F)(F)F)O

> <PUBCHEM_OPENEYE_ISO_SMILES>
CCCN(CCN1CCN(CC1)C2=C(C3=C(C=C2)C=CN3)Cl)[C@H]4CCC5=C(C4)SC(=N5)N.C(=O)(C(F)(F)F)O

> <PUBCHEM_CACTVS_TPSA>
130

> <PUBCHEM_MONOISOTOPIC_WEIGHT>
586.2104577

> <PUBCHEM_TOTAL_CHARGE>
0

> <PUBCHEM_HEAVY_ATOM_COUNT>
39

> <PUBCHEM_ATOM_DEF_STEREO_COUNT>
1

> <PUBCHEM_ATOM_UDEF_STEREO_COUNT>
0

> <PUBCHEM_BOND_DEF_STEREO_COUNT>
0

> <PUBCHEM_BOND_UDEF_STEREO_COUNT>
0

> <PUBCHEM_ISOTOPIC_ATOM_COUNT>
0

> <PUBCHEM_COMPONENT_COUNT>
2

> <PUBCHEM_CACTVS_TAUTO_COUNT>
-1

> <PUBCHEM_COORDINATE_TYPE>
1
5
255

> <PUBCHEM_BONDANNOTATIONS>
11  24  8
11  29  8
13  33  8
13  37  8
2  23  8
2  29  8
23  24  8
28  31  8
28  32  8
31  33  8
32  35  8
33  34  8
34  35  8
34  36  8
36  37  8
14  8  6

$$$$
