23630900
  -OEChem-09292322252D

 66 71  0     1  0  0  0  0  0999 V2000
    8.5396   -0.3456    0.0000 S   0  0  0  0  0  0  0  0  0  0  0  0
   17.3095    2.0074    0.0000 O   0  0  0  0  0  0  0  0  0  0  0  0
   11.5396    1.3864    0.0000 N   0  0  3  0  0  0  0  0  0  0  0  0
    6.9518   -1.1546    0.0000 N   0  0  0  0  0  0  0  0  0  0  0  0
   16.4950    3.4055    0.0000 N   0  0  0  0  0  0  0  0  0  0  0  0
    6.9518    0.4634    0.0000 N   0  0  0  0  0  0  0  0  0  0  0  0
    6.0008    0.1544    0.0000 N   0  0  0  0  0  0  0  0  0  0  0  0
    2.6645   -3.0109    0.0000 N   0  0  0  0  0  0  0  0  0  0  0  0
   11.9735    2.2874    0.0000 C   0  0  0  0  0  0  0  0  0  0  0  0
   11.9735    0.4855    0.0000 C   0  0  0  0  0  0  0  0  0  0  0  0
   12.9484    2.5099    0.0000 C   0  0  0  0  0  0  0  0  0  0  0  0
   12.9484    0.2629    0.0000 C   0  0  0  0  0  0  0  0  0  0  0  0
   13.7302    1.8864    0.0000 C   0  0  0  0  0  0  0  0  0  0  0  0
   13.7302    0.8864    0.0000 C   0  0  0  0  0  0  0  0  0  0  0  0
   10.5396    1.3864    0.0000 C   0  0  0  0  0  0  0  0  0  0  0  0
   10.0396    0.5204    0.0000 C   0  0  0  0  0  0  0  0  0  0  0  0
   14.6242    2.4211    0.0000 C   0  0  0  0  0  0  0  0  0  0  0  0
   14.6242    0.3518    0.0000 C   0  0  0  0  0  0  0  0  0  0  0  0
   15.5303    1.9072    0.0000 C   0  0  0  0  0  0  0  0  0  0  0  0
    9.0396    0.5204    0.0000 C   0  0  0  0  0  0  0  0  0  0  0  0
   15.5303    0.8656    0.0000 C   0  0  0  0  0  0  0  0  0  0  0  0
   16.3943    2.4106    0.0000 C   0  0  0  0  0  0  0  0  0  0  0  0
    7.5396   -0.3456    0.0000 C   0  0  0  0  0  0  0  0  0  0  0  0
    6.0008   -0.8456    0.0000 C   0  0  0  0  0  0  0  0  0  0  0  0
    5.1918   -1.4334    0.0000 C   0  0  0  0  0  0  0  0  0  0  0  0
   17.9757    2.7531    0.0000 C   0  0  0  0  0  0  0  0  0  0  0  0
    3.4692   -1.6145    0.0000 C   0  0  0  0  0  0  0  0  0  0  0  0
    4.2782   -1.0267    0.0000 C   0  0  0  0  0  0  0  0  0  0  0  0
    3.5737   -2.6090    0.0000 C   0  0  0  0  0  0  0  0  0  0  0  0
   17.4724    3.6172    0.0000 C   0  0  0  0  0  0  0  0  0  0  0  0
    7.2608   -2.1057    0.0000 C   0  0  0  0  0  0  0  0  0  0  0  0
    5.2963   -2.4279    0.0000 C   0  0  0  0  0  0  0  0  0  0  0  0
    4.4873   -3.0157    0.0000 C   0  0  0  0  0  0  0  0  0  0  0  0
    2.4963   -1.4103    0.0000 C   0  0  0  0  0  0  0  0  0  0  0  0
    2.0000   -2.2716    0.0000 C   0  0  0  0  0  0  0  0  0  0  0  0
   18.9706    2.6524    0.0000 C   0  0  0  0  0  0  0  0  0  0  0  0
   11.9735    2.9074    0.0000 H   0  0  0  0  0  0  0  0  0  0  0  0
   11.3690    2.4254    0.0000 H   0  0  0  0  0  0  0  0  0  0  0  0
   11.3690    0.3475    0.0000 H   0  0  0  0  0  0  0  0  0  0  0  0
   11.9735   -0.1345    0.0000 H   0  0  0  0  0  0  0  0  0  0  0  0
   13.4332    2.8965    0.0000 H   0  0  0  0  0  0  0  0  0  0  0  0
   12.6794    3.0685    0.0000 H   0  0  0  0  0  0  0  0  0  0  0  0
   12.6794   -0.2957    0.0000 H   0  0  0  0  0  0  0  0  0  0  0  0
   13.4332   -0.1236    0.0000 H   0  0  0  0  0  0  0  0  0  0  0  0
   10.6473    1.9970    0.0000 H   0  0  0  0  0  0  0  0  0  0  0  0
    9.9570    1.5985    0.0000 H   0  0  0  0  0  0  0  0  0  0  0  0
    9.9319   -0.0902    0.0000 H   0  0  0  0  0  0  0  0  0  0  0  0
   10.6222    0.3084    0.0000 H   0  0  0  0  0  0  0  0  0  0  0  0
   14.6170    3.0410    0.0000 H   0  0  0  0  0  0  0  0  0  0  0  0
   14.6170   -0.2682    0.0000 H   0  0  0  0  0  0  0  0  0  0  0  0
    9.1473    1.1310    0.0000 H   0  0  0  0  0  0  0  0  0  0  0  0
    8.4570    0.7325    0.0000 H   0  0  0  0  0  0  0  0  0  0  0  0
   16.0660    0.5535    0.0000 H   0  0  0  0  0  0  0  0  0  0  0  0
    4.2134   -0.4101    0.0000 H   0  0  0  0  0  0  0  0  0  0  0  0
   17.7224    4.1845    0.0000 H   0  0  0  0  0  0  0  0  0  0  0  0
    6.6712   -2.2973    0.0000 H   0  0  0  0  0  0  0  0  0  0  0  0
    7.4524   -2.6954    0.0000 H   0  0  0  0  0  0  0  0  0  0  0  0
    7.8505   -1.9141    0.0000 H   0  0  0  0  0  0  0  0  0  0  0  0
    5.8627   -2.6801    0.0000 H   0  0  0  0  0  0  0  0  0  0  0  0
    4.5521   -3.6323    0.0000 H   0  0  0  0  0  0  0  0  0  0  0  0
    2.2431   -0.8443    0.0000 H   0  0  0  0  0  0  0  0  0  0  0  0
    2.5346   -3.6172    0.0000 H   0  0  0  0  0  0  0  0  0  0  0  0
    1.3834   -2.3364    0.0000 H   0  0  0  0  0  0  0  0  0  0  0  0
   18.9082    2.0355    0.0000 H   0  0  0  0  0  0  0  0  0  0  0  0
   19.5875    2.5900    0.0000 H   0  0  0  0  0  0  0  0  0  0  0  0
   19.0331    3.2692    0.0000 H   0  0  0  0  0  0  0  0  0  0  0  0
  1 20  1  0  0  0  0
  1 23  1  0  0  0  0
  2 22  1  0  0  0  0
  2 26  1  0  0  0  0
  3  9  1  0  0  0  0
  3 10  1  0  0  0  0
  3 15  1  0  0  0  0
  4 23  1  0  0  0  0
  4 24  1  0  0  0  0
  4 31  1  0  0  0  0
  5 22  2  0  0  0  0
  5 30  1  0  0  0  0
  6  7  1  0  0  0  0
  6 23  2  0  0  0  0
  7 24  2  0  0  0  0
  8 29  1  0  0  0  0
  8 35  1  0  0  0  0
  8 62  1  0  0  0  0
  9 11  1  0  0  0  0
  9 37  1  0  0  0  0
  9 38  1  0  0  0  0
 10 12  1  0  0  0  0
 10 39  1  0  0  0  0
 10 40  1  0  0  0  0
 11 13  1  0  0  0  0
 11 41  1  0  0  0  0
 11 42  1  0  0  0  0
 12 14  1  0  0  0  0
 12 43  1  0  0  0  0
 12 44  1  0  0  0  0
 13 14  2  0  0  0  0
 13 17  1  0  0  0  0
 14 18  1  0  0  0  0
 15 16  1  0  0  0  0
 15 45  1  0  0  0  0
 15 46  1  0  0  0  0
 16 20  1  0  0  0  0
 16 47  1  0  0  0  0
 16 48  1  0  0  0  0
 17 19  2  0  0  0  0
 17 49  1  0  0  0  0
 18 21  2  0  0  0  0
 18 50  1  0  0  0  0
 19 21  1  0  0  0  0
 19 22  1  0  0  0  0
 20 51  1  0  0  0  0
 20 52  1  0  0  0  0
 21 53  1  0  0  0  0
 24 25  1  0  0  0  0
 25 28  2  0  0  0  0
 25 32  1  0  0  0  0
 26 30  2  0  0  0  0
 26 36  1  0  0  0  0
 27 28  1  0  0  0  0
 27 29  2  0  0  0  0
 27 34  1  0  0  0  0
 28 54  1  0  0  0  0
 29 33  1  0  0  0  0
 30 55  1  0  0  0  0
 31 56  1  0  0  0  0
 31 57  1  0  0  0  0
 31 58  1  0  0  0  0
 32 33  2  0  0  0  0
 32 59  1  0  0  0  0
 33 60  1  0  0  0  0
 34 35  2  0  0  0  0
 34 61  1  0  0  0  0
 35 63  1  0  0  0  0
 36 64  1  0  0  0  0
 36 65  1  0  0  0  0
 36 66  1  0  0  0  0
M  END
> <PUBCHEM_COMPOUND_CID>
23630900

> <PUBCHEM_COMPOUND_CANONICALIZED>
1

> <PUBCHEM_CACTVS_COMPLEXITY>
716

> <PUBCHEM_CACTVS_HBOND_ACCEPTOR>
6

> <PUBCHEM_CACTVS_HBOND_DONOR>
1

> <PUBCHEM_CACTVS_ROTATABLE_BOND>
7

> <PUBCHEM_CACTVS_SUBSKEYS>
AAADceB7oABAAAAAAAAAAAAAAAAAAWLFgAAwYAAABYAAAFgB/gAAHgQYAAAADAzF3wS/1PfNlEiqA7d3dASS2Ct/QrAd2aG7bNiOLvLgvbmPOQjk3gPY6YeYyPCOyAACAAASAACQAAQAACQAAAAAAAAAAA==

> <PUBCHEM_IUPAC_OPENEYE_NAME>
2-[3-[3-[[5-(1H-indol-5-yl)-4-methyl-1,2,4-triazol-3-yl]sulfanyl]propyl]-1,2,4,5-tetrahydro-3-benzazepin-7-yl]-5-methyl-oxazole

> <PUBCHEM_IUPAC_CAS_NAME>
2-[3-[3-[[5-(1H-indol-5-yl)-4-methyl-1,2,4-triazol-3-yl]thio]propyl]-1,2,4,5-tetrahydro-3-benzazepin-7-yl]-5-methyloxazole

> <PUBCHEM_IUPAC_NAME_MARKUP>
2-[3-[3-[[5-(1<I>H</I>-indol-5-yl)-4-methyl-1,2,4-triazol-3-yl]sulfanyl]propyl]-1,2,4,5-tetrahydro-3-benzazepin-7-yl]-5-methyl-1,3-oxazole

> <PUBCHEM_IUPAC_NAME>
2-[3-[3-[[5-(1H-indol-5-yl)-4-methyl-1,2,4-triazol-3-yl]sulfanyl]propyl]-1,2,4,5-tetrahydro-3-benzazepin-7-yl]-5-methyl-1,3-oxazole

> <PUBCHEM_IUPAC_SYSTEMATIC_NAME>
2-[3-[3-[[5-(1H-indol-5-yl)-4-methyl-1,2,4-triazol-3-yl]sulfanyl]propyl]-1,2,4,5-tetrahydro-3-benzazepin-7-yl]-5-methyl-1,3-oxazole

> <PUBCHEM_IUPAC_TRADITIONAL_NAME>
2-[3-[3-[[5-(1H-indol-5-yl)-4-methyl-1,2,4-triazol-3-yl]thio]propyl]-1,2,4,5-tetrahydro-3-benzazepin-7-yl]-5-methyl-oxazole

> <PUBCHEM_IUPAC_INCHI>
InChI=1S/C28H30N6OS/c1-19-18-30-27(35-19)24-5-4-20-9-13-34(14-10-21(20)16-24)12-3-15-36-28-32-31-26(33(28)2)23-6-7-25-22(17-23)8-11-29-25/h4-8,11,16-18,29H,3,9-10,12-15H2,1-2H3

> <PUBCHEM_IUPAC_INCHIKEY>
VBQPFBIQLMTMNM-UHFFFAOYSA-N

> <PUBCHEM_XLOGP3_AA>
4.9

> <PUBCHEM_EXACT_MASS>
498.22018078

> <PUBCHEM_MOLECULAR_FORMULA>
C28H30N6OS

> <PUBCHEM_MOLECULAR_WEIGHT>
498.6

> <PUBCHEM_OPENEYE_CAN_SMILES>
CC1=CN=C(O1)C2=CC3=C(CCN(CC3)CCCSC4=NN=C(N4C)C5=CC6=C(C=C5)NC=C6)C=C2

> <PUBCHEM_OPENEYE_ISO_SMILES>
CC1=CN=C(O1)C2=CC3=C(CCN(CC3)CCCSC4=NN=C(N4C)C5=CC6=C(C=C5)NC=C6)C=C2

> <PUBCHEM_CACTVS_TPSA>
101

> <PUBCHEM_MONOISOTOPIC_WEIGHT>
498.22018078

> <PUBCHEM_TOTAL_CHARGE>
0

> <PUBCHEM_HEAVY_ATOM_COUNT>
36

> <PUBCHEM_ATOM_DEF_STEREO_COUNT>
0

> <PUBCHEM_ATOM_UDEF_STEREO_COUNT>
0

> <PUBCHEM_BOND_DEF_STEREO_COUNT>
0

> <PUBCHEM_BOND_UDEF_STEREO_COUNT>
0

> <PUBCHEM_ISOTOPIC_ATOM_COUNT>
0

> <PUBCHEM_COMPONENT_COUNT>
1

> <PUBCHEM_CACTVS_TAUTO_COUNT>
-1

> <PUBCHEM_COORDINATE_TYPE>
1
5
255

> <PUBCHEM_BONDANNOTATIONS>
13  14  8
13  17  8
14  18  8
17  19  8
18  21  8
19  21  8
2  22  8
2  26  8
25  28  8
25  32  8
26  30  8
27  28  8
27  29  8
27  34  8
29  33  8
32  33  8
34  35  8
4  23  8
4  24  8
5  22  8
5  30  8
6  23  8
6  7  8
7  24  8
8  29  8
8  35  8

$$$$
