9931976
  -OEChem-09292322142D

 57 61  0     1  0  0  0  0  0999 V2000
    9.9939   -1.4162    0.0000 S   0  0  0  0  0  0  0  0  0  0  0  0
    3.5998   -0.3015    0.0000 O   0  0  0  0  0  0  0  0  0  0  0  0
    6.8925   -1.3777    0.0000 N   0  0  0  0  0  0  0  0  0  0  0  0
    9.1279    0.0838    0.0000 N   0  0  0  0  0  0  0  0  0  0  0  0
    4.9355   -1.7901    0.0000 N   0  0  0  0  0  0  0  0  0  0  0  0
    8.1817    1.3885    0.0000 N   0  0  0  0  0  0  0  0  0  0  0  0
   10.8600    0.0838    0.0000 N   0  0  0  0  0  0  0  0  0  0  0  0
    8.1817   -0.2209    0.0000 C   0  0  3  0  0  0  0  0  0  0  0  0
    7.8710   -1.1715    0.0000 C   0  0  0  0  0  0  0  0  0  0  0  0
    6.2247   -0.6334    0.0000 C   0  0  0  0  0  0  0  0  0  0  0  0
    6.5819   -2.3282    0.0000 C   0  0  0  0  0  0  0  0  0  0  0  0
    5.2462   -0.8396    0.0000 C   0  0  0  0  0  0  0  0  0  0  0  0
    5.6034   -2.5344    0.0000 C   0  0  0  0  0  0  0  0  0  0  0  0
    7.5981    0.5838    0.0000 C   0  0  0  0  0  0  0  0  0  0  0  0
    9.1279    1.0838    0.0000 C   0  0  0  0  0  0  0  0  0  0  0  0
    9.9939   -0.4162    0.0000 C   0  0  0  0  0  0  0  0  0  0  0  0
    3.9570   -1.9963    0.0000 C   0  0  0  0  0  0  0  0  0  0  0  0
    9.9939    1.5838    0.0000 C   0  0  0  0  0  0  0  0  0  0  0  0
   10.8600    1.0838    0.0000 C   0  0  0  0  0  0  0  0  0  0  0  0
    3.2892   -1.2520    0.0000 C   0  0  0  0  0  0  0  0  0  0  0  0
    3.6464   -2.9468    0.0000 C   0  0  0  0  0  0  0  0  0  0  0  0
    9.9779    2.6253    0.0000 C   0  0  0  0  0  0  0  0  0  0  0  0
   11.7700    1.5906    0.0000 C   0  0  0  0  0  0  0  0  0  0  0  0
    2.3107   -1.4582    0.0000 C   0  0  0  0  0  0  0  0  0  0  0  0
   10.8759    3.1531    0.0000 C   0  0  0  0  0  0  0  0  0  0  0  0
    2.6678   -3.1531    0.0000 C   0  0  0  0  0  0  0  0  0  0  0  0
   11.7780    2.6322    0.0000 C   0  0  0  0  0  0  0  0  0  0  0  0
    2.0000   -2.4088    0.0000 C   0  0  0  0  0  0  0  0  0  0  0  0
   10.8600   -1.9162    0.0000 C   0  0  0  0  0  0  0  0  0  0  0  0
    2.9320    0.4428    0.0000 C   0  0  0  0  0  0  0  0  0  0  0  0
    8.6192   -0.6603    0.0000 H   0  0  0  0  0  0  0  0  0  0  0  0
    7.8916   -1.7911    0.0000 H   0  0  0  0  0  0  0  0  0  0  0  0
    8.4848   -1.2588    0.0000 H   0  0  0  0  0  0  0  0  0  0  0  0
    6.7510   -0.3057    0.0000 H   0  0  0  0  0  0  0  0  0  0  0  0
    5.9934   -0.0581    0.0000 H   0  0  0  0  0  0  0  0  0  0  0  0
    6.6024   -2.9478    0.0000 H   0  0  0  0  0  0  0  0  0  0  0  0
    7.1957   -2.4155    0.0000 H   0  0  0  0  0  0  0  0  0  0  0  0
    5.2256   -0.2199    0.0000 H   0  0  0  0  0  0  0  0  0  0  0  0
    4.6324   -0.7522    0.0000 H   0  0  0  0  0  0  0  0  0  0  0  0
    5.0770   -2.8620    0.0000 H   0  0  0  0  0  0  0  0  0  0  0  0
    5.8346   -3.1097    0.0000 H   0  0  0  0  0  0  0  0  0  0  0  0
    7.1372    0.9985    0.0000 H   0  0  0  0  0  0  0  0  0  0  0  0
    7.1372    0.1691    0.0000 H   0  0  0  0  0  0  0  0  0  0  0  0
    4.0604   -3.4083    0.0000 H   0  0  0  0  0  0  0  0  0  0  0  0
    9.4374    2.9291    0.0000 H   0  0  0  0  0  0  0  0  0  0  0  0
   12.3033    1.2745    0.0000 H   0  0  0  0  0  0  0  0  0  0  0  0
    1.8966   -0.9968    0.0000 H   0  0  0  0  0  0  0  0  0  0  0  0
   10.8735    3.7731    0.0000 H   0  0  0  0  0  0  0  0  0  0  0  0
    2.4752   -3.7424    0.0000 H   0  0  0  0  0  0  0  0  0  0  0  0
   12.3161    2.9402    0.0000 H   0  0  0  0  0  0  0  0  0  0  0  0
    1.3933   -2.5366    0.0000 H   0  0  0  0  0  0  0  0  0  0  0  0
   10.5500   -2.4531    0.0000 H   0  0  0  0  0  0  0  0  0  0  0  0
   11.3969   -2.2262    0.0000 H   0  0  0  0  0  0  0  0  0  0  0  0
   11.1700   -1.3793    0.0000 H   0  0  0  0  0  0  0  0  0  0  0  0
    3.3934    0.8569    0.0000 H   0  0  0  0  0  0  0  0  0  0  0  0
    2.5179    0.9043    0.0000 H   0  0  0  0  0  0  0  0  0  0  0  0
    2.4705    0.0287    0.0000 H   0  0  0  0  0  0  0  0  0  0  0  0
  1 16  1  0  0  0  0
  1 29  1  0  0  0  0
  2 20  1  0  0  0  0
  2 30  1  0  0  0  0
  3  9  1  0  0  0  0
  3 10  1  0  0  0  0
  3 11  1  0  0  0  0
  4  8  1  0  0  0  0
  4 15  1  0  0  0  0
  4 16  1  0  0  0  0
  5 12  1  0  0  0  0
  5 13  1  0  0  0  0
  5 17  1  0  0  0  0
  6 14  1  0  0  0  0
  6 15  2  0  0  0  0
  7 16  2  0  0  0  0
  7 19  1  0  0  0  0
  8  9  1  0  0  0  0
  8 14  1  0  0  0  0
  8 31  1  0  0  0  0
  9 32  1  0  0  0  0
  9 33  1  0  0  0  0
 10 12  1  0  0  0  0
 10 34  1  0  0  0  0
 10 35  1  0  0  0  0
 11 13  1  0  0  0  0
 11 36  1  0  0  0  0
 11 37  1  0  0  0  0
 12 38  1  0  0  0  0
 12 39  1  0  0  0  0
 13 40  1  0  0  0  0
 13 41  1  0  0  0  0
 14 42  1  0  0  0  0
 14 43  1  0  0  0  0
 15 18  1  0  0  0  0
 17 20  1  0  0  0  0
 17 21  2  0  0  0  0
 18 19  1  0  0  0  0
 18 22  2  0  0  0  0
 19 23  2  0  0  0  0
 20 24  2  0  0  0  0
 21 26  1  0  0  0  0
 21 44  1  0  0  0  0
 22 25  1  0  0  0  0
 22 45  1  0  0  0  0
 23 27  1  0  0  0  0
 23 46  1  0  0  0  0
 24 28  1  0  0  0  0
 24 47  1  0  0  0  0
 25 27  2  0  0  0  0
 25 48  1  0  0  0  0
 26 28  2  0  0  0  0
 26 49  1  0  0  0  0
 27 50  1  0  0  0  0
 28 51  1  0  0  0  0
 29 52  1  0  0  0  0
 29 53  1  0  0  0  0
 29 54  1  0  0  0  0
 30 55  1  0  0  0  0
 30 56  1  0  0  0  0
 30 57  1  0  0  0  0
M  END
> <PUBCHEM_COMPOUND_CID>
9931976

> <PUBCHEM_COMPOUND_CANONICALIZED>
1

> <PUBCHEM_CACTVS_COMPLEXITY>
662

> <PUBCHEM_CACTVS_HBOND_ACCEPTOR>
6

> <PUBCHEM_CACTVS_HBOND_DONOR>
0

> <PUBCHEM_CACTVS_ROTATABLE_BOND>
5

> <PUBCHEM_CACTVS_SUBSKEYS>
AAADceB7oABAAAAAAAAAAAAAAAAAAQAAAAA8YIEAAAAAAECBQAAAHgQAAAAADCzBmAazxoMABAigAiZiZACCGAFhIgAJiAAvbJgOZqLE+ZuVMChkwBHY6AeQwAAOAAAAAAACEAAAAAAAAAQgAAAAAAAAAA==

> <PUBCHEM_IUPAC_OPENEYE_NAME>
3-[[4-(2-methoxyphenyl)piperazin-1-yl]methyl]-5-methylsulfanyl-2,3-dihydroimidazo[1,2-c]quinazoline

> <PUBCHEM_IUPAC_CAS_NAME>
3-[[4-(2-methoxyphenyl)-1-piperazinyl]methyl]-5-(methylthio)-2,3-dihydroimidazo[1,2-c]quinazoline

> <PUBCHEM_IUPAC_NAME_MARKUP>
3-[[4-(2-methoxyphenyl)piperazin-1-yl]methyl]-5-methylsulfanyl-2,3-dihydroimidazo[1,2-c]quinazoline

> <PUBCHEM_IUPAC_NAME>
3-[[4-(2-methoxyphenyl)piperazin-1-yl]methyl]-5-methylsulfanyl-2,3-dihydroimidazo[1,2-c]quinazoline

> <PUBCHEM_IUPAC_SYSTEMATIC_NAME>
3-[[4-(2-methoxyphenyl)piperazin-1-yl]methyl]-5-methylsulfanyl-2,3-dihydroimidazo[1,2-c]quinazoline

> <PUBCHEM_IUPAC_TRADITIONAL_NAME>
3-[[4-(2-methoxyphenyl)piperazino]methyl]-5-(methylthio)-2,3-dihydroimidazo[1,2-c]quinazoline

> <PUBCHEM_IUPAC_INCHI>
InChI=1S/C23H27N5OS/c1-29-21-10-6-5-9-20(21)27-13-11-26(12-14-27)16-17-15-24-22-18-7-3-4-8-19(18)25-23(30-2)28(17)22/h3-10,17H,11-16H2,1-2H3

> <PUBCHEM_IUPAC_INCHIKEY>
DVYBIZHLZSDANU-UHFFFAOYSA-N

> <PUBCHEM_XLOGP3_AA>
3.2

> <PUBCHEM_EXACT_MASS>
421.19363168

> <PUBCHEM_MOLECULAR_FORMULA>
C23H27N5OS

> <PUBCHEM_MOLECULAR_WEIGHT>
421.6

> <PUBCHEM_OPENEYE_CAN_SMILES>
COC1=CC=CC=C1N2CCN(CC2)CC3CN=C4N3C(=NC5=CC=CC=C54)SC

> <PUBCHEM_OPENEYE_ISO_SMILES>
COC1=CC=CC=C1N2CCN(CC2)CC3CN=C4N3C(=NC5=CC=CC=C54)SC

> <PUBCHEM_CACTVS_TPSA>
69

> <PUBCHEM_MONOISOTOPIC_WEIGHT>
421.19363168

> <PUBCHEM_TOTAL_CHARGE>
0

> <PUBCHEM_HEAVY_ATOM_COUNT>
30

> <PUBCHEM_ATOM_DEF_STEREO_COUNT>
0

> <PUBCHEM_ATOM_UDEF_STEREO_COUNT>
1

> <PUBCHEM_BOND_DEF_STEREO_COUNT>
0

> <PUBCHEM_BOND_UDEF_STEREO_COUNT>
0

> <PUBCHEM_ISOTOPIC_ATOM_COUNT>
0

> <PUBCHEM_COMPONENT_COUNT>
1

> <PUBCHEM_CACTVS_TAUTO_COUNT>
-1

> <PUBCHEM_COORDINATE_TYPE>
1
5
255

> <PUBCHEM_BONDANNOTATIONS>
17  20  8
17  21  8
18  19  8
18  22  8
19  23  8
20  24  8
21  26  8
22  25  8
23  27  8
24  28  8
25  27  8
26  28  8
8  9  3

$$$$
