25130829
  -OEChem-09292322232D

 54 58  0     1  0  0  0  0  0999 V2000
    2.0000   -0.9798    0.0000 F   0  0  0  0  0  0  0  0  0  0  0  0
   12.8517   -1.7607    0.0000 O   0  0  0  0  0  0  0  0  0  0  0  0
    4.7684    1.2419    0.0000 O   0  0  0  0  0  0  0  0  0  0  0  0
   11.0395    1.0440    0.0000 O   0  0  0  0  0  0  0  0  0  0  0  0
   14.1409    1.0055    0.0000 O   0  0  0  0  0  0  0  0  0  0  0  0
   12.4945    1.5436    0.0000 O   0  0  0  0  0  0  0  0  0  0  0  0
    8.4414   -1.4560    0.0000 N   0  0  0  0  0  0  0  0  0  0  0  0
    5.7402    1.0327    0.0000 N   0  0  0  0  0  0  0  0  0  0  0  0
    6.7093   -0.4560    0.0000 C   0  0  0  0  0  0  0  0  0  0  0  0
   10.1734   -1.4560    0.0000 C   0  0  3  0  0  0  0  0  0  0  0  0
    9.3074   -1.9560    0.0000 C   0  0  0  0  0  0  0  0  0  0  0  0
    8.4414   -0.4560    0.0000 C   0  0  0  0  0  0  0  0  0  0  0  0
    7.5754   -1.9560    0.0000 C   0  0  0  0  0  0  0  0  0  0  0  0
    7.5754    0.0440    0.0000 C   0  0  0  0  0  0  0  0  0  0  0  0
    6.7093   -1.4560    0.0000 C   0  0  0  0  0  0  0  0  0  0  0  0
   11.0395   -1.9560    0.0000 C   0  0  0  0  0  0  0  0  0  0  0  0
   10.1734   -0.4560    0.0000 C   0  0  0  0  0  0  0  0  0  0  0  0
    5.8433    0.0440    0.0000 C   0  0  0  0  0  0  0  0  0  0  0  0
   11.9055   -1.4560    0.0000 C   0  0  0  0  0  0  0  0  0  0  0  0
   11.0395    0.0440    0.0000 C   0  0  0  0  0  0  0  0  0  0  0  0
   11.9055   -0.4560    0.0000 C   0  0  0  0  0  0  0  0  0  0  0  0
    4.9355   -0.3611    0.0000 C   0  0  0  0  0  0  0  0  0  0  0  0
   12.8517   -0.1513    0.0000 C   0  0  0  0  0  0  0  0  0  0  0  0
    4.2677    0.3832    0.0000 C   0  0  0  0  0  0  0  0  0  0  0  0
   13.4353   -0.9560    0.0000 C   0  0  0  0  0  0  0  0  0  0  0  0
    4.6249   -1.3116    0.0000 C   0  0  0  0  0  0  0  0  0  0  0  0
   13.1624    0.7993    0.0000 C   0  0  0  0  0  0  0  0  0  0  0  0
    3.2892    0.1770    0.0000 C   0  0  0  0  0  0  0  0  0  0  0  0
    3.6464   -1.5178    0.0000 C   0  0  0  0  0  0  0  0  0  0  0  0
    2.9785   -0.7735    0.0000 C   0  0  0  0  0  0  0  0  0  0  0  0
   14.4515    1.9560    0.0000 C   0  0  0  0  0  0  0  0  0  0  0  0
    6.7093    0.1640    0.0000 H   0  0  0  0  0  0  0  0  0  0  0  0
   10.1734   -2.0760    0.0000 H   0  0  0  0  0  0  0  0  0  0  0  0
    8.9089   -2.4309    0.0000 H   0  0  0  0  0  0  0  0  0  0  0  0
    9.7059   -2.4309    0.0000 H   0  0  0  0  0  0  0  0  0  0  0  0
    9.0520   -0.5637    0.0000 H   0  0  0  0  0  0  0  0  0  0  0  0
    8.6534    0.1266    0.0000 H   0  0  0  0  0  0  0  0  0  0  0  0
    7.1768   -2.4309    0.0000 H   0  0  0  0  0  0  0  0  0  0  0  0
    7.9739   -2.4309    0.0000 H   0  0  0  0  0  0  0  0  0  0  0  0
    7.9739    0.5190    0.0000 H   0  0  0  0  0  0  0  0  0  0  0  0
    7.1768    0.5190    0.0000 H   0  0  0  0  0  0  0  0  0  0  0  0
    6.0988   -1.3483    0.0000 H   0  0  0  0  0  0  0  0  0  0  0  0
    6.4973   -2.0386    0.0000 H   0  0  0  0  0  0  0  0  0  0  0  0
   10.6409   -2.4309    0.0000 H   0  0  0  0  0  0  0  0  0  0  0  0
   11.4380   -2.4309    0.0000 H   0  0  0  0  0  0  0  0  0  0  0  0
    9.9614    0.1266    0.0000 H   0  0  0  0  0  0  0  0  0  0  0  0
    9.5628   -0.5637    0.0000 H   0  0  0  0  0  0  0  0  0  0  0  0
   14.0553   -0.9560    0.0000 H   0  0  0  0  0  0  0  0  0  0  0  0
    5.0389   -1.7731    0.0000 H   0  0  0  0  0  0  0  0  0  0  0  0
    2.8751    0.6384    0.0000 H   0  0  0  0  0  0  0  0  0  0  0  0
    3.4537   -2.1072    0.0000 H   0  0  0  0  0  0  0  0  0  0  0  0
   15.0409    1.7634    0.0000 H   0  0  0  0  0  0  0  0  0  0  0  0
   14.6441    2.5453    0.0000 H   0  0  0  0  0  0  0  0  0  0  0  0
   13.8622    2.1486    0.0000 H   0  0  0  0  0  0  0  0  0  0  0  0
  1 30  1  0  0  0  0
  2 19  1  0  0  0  0
  2 25  1  0  0  0  0
  3  8  1  0  0  0  0
  3 24  1  0  0  0  0
  4 20  2  0  0  0  0
  5 27  1  0  0  0  0
  5 31  1  0  0  0  0
  6 27  2  0  0  0  0
  7 11  1  0  0  0  0
  7 12  1  0  0  0  0
  7 13  1  0  0  0  0
  8 18  2  0  0  0  0
  9 14  1  0  0  0  0
  9 15  1  0  0  0  0
  9 18  1  0  0  0  0
  9 32  1  0  0  0  0
 10 11  1  0  0  0  0
 10 16  1  0  0  0  0
 10 17  1  0  0  0  0
 10 33  1  0  0  0  0
 11 34  1  0  0  0  0
 11 35  1  0  0  0  0
 12 14  1  0  0  0  0
 12 36  1  0  0  0  0
 12 37  1  0  0  0  0
 13 15  1  0  0  0  0
 13 38  1  0  0  0  0
 13 39  1  0  0  0  0
 14 40  1  0  0  0  0
 14 41  1  0  0  0  0
 15 42  1  0  0  0  0
 15 43  1  0  0  0  0
 16 19  1  0  0  0  0
 16 44  1  0  0  0  0
 16 45  1  0  0  0  0
 17 20  1  0  0  0  0
 17 46  1  0  0  0  0
 17 47  1  0  0  0  0
 18 22  1  0  0  0  0
 19 21  2  0  0  0  0
 20 21  1  0  0  0  0
 21 23  1  0  0  0  0
 22 24  2  0  0  0  0
 22 26  1  0  0  0  0
 23 25  2  0  0  0  0
 23 27  1  0  0  0  0
 24 28  1  0  0  0  0
 25 48  1  0  0  0  0
 26 29  2  0  0  0  0
 26 49  1  0  0  0  0
 28 30  2  0  0  0  0
 28 50  1  0  0  0  0
 29 30  1  0  0  0  0
 29 51  1  0  0  0  0
 31 52  1  0  0  0  0
 31 53  1  0  0  0  0
 31 54  1  0  0  0  0
M  END
> <PUBCHEM_COMPOUND_CID>
25130829

> <PUBCHEM_COMPOUND_CANONICALIZED>
1

> <PUBCHEM_CACTVS_COMPLEXITY>
685

> <PUBCHEM_CACTVS_HBOND_ACCEPTOR>
8

> <PUBCHEM_CACTVS_HBOND_DONOR>
0

> <PUBCHEM_CACTVS_ROTATABLE_BOND>
5

> <PUBCHEM_CACTVS_SUBSKEYS>
AAADceB7OQAAAAAAAAAAAAAAAAAAAWJAAAA8YIAAAAAAAFgB/AAAHwAEAAAADQzhng4yjtMQBECpA6zyygCCCAAkIAAomCE+TNoMJ76MtZuGOeDn4BmI6cf/zvDugAAAAAAIAACAAAIAABAAAAAAAAAAAA==

> <PUBCHEM_IUPAC_OPENEYE_NAME>
methyl 6-[[4-(6-fluoro-1,2-benzoxazol-3-yl)-1-piperidyl]methyl]-4-oxo-6,7-dihydro-5H-benzofuran-3-carboxylate

> <PUBCHEM_IUPAC_CAS_NAME>
6-[[4-(6-fluoro-1,2-benzoxazol-3-yl)-1-piperidinyl]methyl]-4-oxo-6,7-dihydro-5H-benzofuran-3-carboxylic acid methyl ester

> <PUBCHEM_IUPAC_NAME_MARKUP>
methyl 6-[[4-(6-fluoro-1,2-benzoxazol-3-yl)piperidin-1-yl]methyl]-4-oxo-6,7-dihydro-5<I>H</I>-1-benzofuran-3-carboxylate

> <PUBCHEM_IUPAC_NAME>
methyl 6-[[4-(6-fluoro-1,2-benzoxazol-3-yl)piperidin-1-yl]methyl]-4-oxo-6,7-dihydro-5H-1-benzofuran-3-carboxylate

> <PUBCHEM_IUPAC_SYSTEMATIC_NAME>
methyl 6-[[4-(6-fluoranyl-1,2-benzoxazol-3-yl)piperidin-1-yl]methyl]-4-oxidanylidene-6,7-dihydro-5H-1-benzofuran-3-carboxylate

> <PUBCHEM_IUPAC_TRADITIONAL_NAME>
6-[[4-(6-fluoroindoxazen-3-yl)piperidino]methyl]-4-keto-6,7-dihydro-5H-benzofuran-3-carboxylic acid methyl ester

> <PUBCHEM_IUPAC_INCHI>
InChI=1S/C23H23FN2O5/c1-29-23(28)17-12-30-20-9-13(8-18(27)21(17)20)11-26-6-4-14(5-7-26)22-16-3-2-15(24)10-19(16)31-25-22/h2-3,10,12-14H,4-9,11H2,1H3

> <PUBCHEM_IUPAC_INCHIKEY>
HMILUIFVMYFSEQ-UHFFFAOYSA-N

> <PUBCHEM_XLOGP3_AA>
3.1

> <PUBCHEM_EXACT_MASS>
426.15910000

> <PUBCHEM_MOLECULAR_FORMULA>
C23H23FN2O5

> <PUBCHEM_MOLECULAR_WEIGHT>
426.4

> <PUBCHEM_OPENEYE_CAN_SMILES>
COC(=O)C1=COC2=C1C(=O)CC(C2)CN3CCC(CC3)C4=NOC5=C4C=CC(=C5)F

> <PUBCHEM_OPENEYE_ISO_SMILES>
COC(=O)C1=COC2=C1C(=O)CC(C2)CN3CCC(CC3)C4=NOC5=C4C=CC(=C5)F

> <PUBCHEM_CACTVS_TPSA>
85.8

> <PUBCHEM_MONOISOTOPIC_WEIGHT>
426.15910000

> <PUBCHEM_TOTAL_CHARGE>
0

> <PUBCHEM_HEAVY_ATOM_COUNT>
31

> <PUBCHEM_ATOM_DEF_STEREO_COUNT>
0

> <PUBCHEM_ATOM_UDEF_STEREO_COUNT>
1

> <PUBCHEM_BOND_DEF_STEREO_COUNT>
0

> <PUBCHEM_BOND_UDEF_STEREO_COUNT>
0

> <PUBCHEM_ISOTOPIC_ATOM_COUNT>
0

> <PUBCHEM_COMPONENT_COUNT>
1

> <PUBCHEM_CACTVS_TAUTO_COUNT>
-1

> <PUBCHEM_COORDINATE_TYPE>
1
5
255

> <PUBCHEM_BONDANNOTATIONS>
10  11  3
18  22  8
19  21  8
2  19  8
2  25  8
21  23  8
22  24  8
22  26  8
23  25  8
24  28  8
26  29  8
28  30  8
29  30  8
3  24  8
3  8  8
8  18  8

$$$$
