53327263
  -OEChem-09292322352D

 54 59  0     1  0  0  0  0  0999 V2000
    7.2005   -1.6936    0.0000 N   0  0  3  0  0  0  0  0  0  0  0  0
    7.1846    0.3757    0.0000 N   0  0  3  0  0  0  0  0  0  0  0  0
    9.0706   -4.3422    0.0000 N   0  0  0  0  0  0  0  0  0  0  0  0
    8.0665   -1.1936    0.0000 C   0  0  3  0  0  0  0  0  0  0  0  0
    8.0826   -0.1521    0.0000 C   0  0  0  0  0  0  0  0  0  0  0  0
    8.9326   -1.6936    0.0000 C   0  0  0  0  0  0  0  0  0  0  0  0
    6.2905   -1.1867    0.0000 C   0  0  0  0  0  0  0  0  0  0  0  0
    6.2825   -0.1451    0.0000 C   0  0  0  0  0  0  0  0  0  0  0  0
    7.2005   -2.6936    0.0000 C   0  0  0  0  0  0  0  0  0  0  0  0
    8.9326   -2.6936    0.0000 C   0  0  0  0  0  0  0  0  0  0  0  0
    8.0665   -3.1936    0.0000 C   0  0  0  0  0  0  0  0  0  0  0  0
    7.1884    1.3757    0.0000 C   0  0  0  0  0  0  0  0  0  0  0  0
    8.0826   -4.2351    0.0000 C   0  0  0  0  0  0  0  0  0  0  0  0
    9.5505   -3.4719    0.0000 C   0  0  0  0  0  0  0  0  0  0  0  0
    6.2905   -3.2004    0.0000 C   0  0  0  0  0  0  0  0  0  0  0  0
    7.1846   -4.7628    0.0000 C   0  0  0  0  0  0  0  0  0  0  0  0
    6.3243    1.8790    0.0000 C   0  0  0  0  0  0  0  0  0  0  0  0
    6.2825   -4.2420    0.0000 C   0  0  0  0  0  0  0  0  0  0  0  0
    6.3282    2.8790    0.0000 C   0  0  0  0  0  0  0  0  0  0  0  0
    5.4564    1.3823    0.0000 C   0  0  0  0  0  0  0  0  0  0  0  0
    5.4641    3.3823    0.0000 C   0  0  0  0  0  0  0  0  0  0  0  0
    4.5923    1.8857    0.0000 C   0  0  0  0  0  0  0  0  0  0  0  0
    4.5961    2.8857    0.0000 C   0  0  0  0  0  0  0  0  0  0  0  0
    3.7320    3.3890    0.0000 C   0  0  0  0  0  0  0  0  0  0  0  0
    3.7359    4.3890    0.0000 C   0  0  0  0  0  0  0  0  0  0  0  0
    2.8641    2.8924    0.0000 C   0  0  0  0  0  0  0  0  0  0  0  0
    2.8718    4.8923    0.0000 C   0  0  0  0  0  0  0  0  0  0  0  0
    2.0000    3.3957    0.0000 C   0  0  0  0  0  0  0  0  0  0  0  0
    2.0038    4.3957    0.0000 C   0  0  0  0  0  0  0  0  0  0  0  0
    8.6058   -0.8877    0.0000 H   0  0  0  0  0  0  0  0  0  0  0  0
    8.6917   -0.2676    0.0000 H   0  0  0  0  0  0  0  0  0  0  0  0
    8.3006    0.4283    0.0000 H   0  0  0  0  0  0  0  0  0  0  0  0
    9.5431   -1.8012    0.0000 H   0  0  0  0  0  0  0  0  0  0  0  0
    9.1446   -1.1110    0.0000 H   0  0  0  0  0  0  0  0  0  0  0  0
    5.6788   -1.0854    0.0000 H   0  0  0  0  0  0  0  0  0  0  0  0
    6.0860   -1.7720    0.0000 H   0  0  0  0  0  0  0  0  0  0  0  0
    6.0689    0.4369    0.0000 H   0  0  0  0  0  0  0  0  0  0  0  0
    5.6725   -0.2559    0.0000 H   0  0  0  0  0  0  0  0  0  0  0  0
    7.7986    1.2656    0.0000 H   0  0  0  0  0  0  0  0  0  0  0  0
    7.4027    1.9575    0.0000 H   0  0  0  0  0  0  0  0  0  0  0  0
   10.1683   -3.4202    0.0000 H   0  0  0  0  0  0  0  0  0  0  0  0
    5.7572   -2.8842    0.0000 H   0  0  0  0  0  0  0  0  0  0  0  0
    9.3566   -4.8923    0.0000 H   0  0  0  0  0  0  0  0  0  0  0  0
    7.1869   -5.3828    0.0000 H   0  0  0  0  0  0  0  0  0  0  0  0
    5.7444   -4.5500    0.0000 H   0  0  0  0  0  0  0  0  0  0  0  0
    6.8663    3.1869    0.0000 H   0  0  0  0  0  0  0  0  0  0  0  0
    5.4540    0.7623    0.0000 H   0  0  0  0  0  0  0  0  0  0  0  0
    5.4665    4.0023    0.0000 H   0  0  0  0  0  0  0  0  0  0  0  0
    4.0542    1.5778    0.0000 H   0  0  0  0  0  0  0  0  0  0  0  0
    4.2740    4.6969    0.0000 H   0  0  0  0  0  0  0  0  0  0  0  0
    2.8617    2.2724    0.0000 H   0  0  0  0  0  0  0  0  0  0  0  0
    2.8742    5.5123    0.0000 H   0  0  0  0  0  0  0  0  0  0  0  0
    1.4619    3.0878    0.0000 H   0  0  0  0  0  0  0  0  0  0  0  0
    1.4681    4.7077    0.0000 H   0  0  0  0  0  0  0  0  0  0  0  0
  1  4  1  0  0  0  0
  1  7  1  0  0  0  0
  1  9  1  0  0  0  0
  2  5  1  0  0  0  0
  2  8  1  0  0  0  0
  2 12  1  0  0  0  0
  3 13  1  0  0  0  0
  3 14  1  0  0  0  0
  3 43  1  0  0  0  0
  4  5  1  0  0  0  0
  4  6  1  0  0  0  0
  4 30  1  0  0  0  0
  5 31  1  0  0  0  0
  5 32  1  0  0  0  0
  6 10  1  0  0  0  0
  6 33  1  0  0  0  0
  6 34  1  0  0  0  0
  7  8  1  0  0  0  0
  7 35  1  0  0  0  0
  7 36  1  0  0  0  0
  8 37  1  0  0  0  0
  8 38  1  0  0  0  0
  9 11  1  0  0  0  0
  9 15  2  0  0  0  0
 10 11  1  0  0  0  0
 10 14  2  0  0  0  0
 11 13  2  0  0  0  0
 12 17  1  0  0  0  0
 12 39  1  0  0  0  0
 12 40  1  0  0  0  0
 13 16  1  0  0  0  0
 14 41  1  0  0  0  0
 15 18  1  0  0  0  0
 15 42  1  0  0  0  0
 16 18  2  0  0  0  0
 16 44  1  0  0  0  0
 17 19  2  0  0  0  0
 17 20  1  0  0  0  0
 18 45  1  0  0  0  0
 19 21  1  0  0  0  0
 19 46  1  0  0  0  0
 20 22  2  0  0  0  0
 20 47  1  0  0  0  0
 21 23  2  0  0  0  0
 21 48  1  0  0  0  0
 22 23  1  0  0  0  0
 22 49  1  0  0  0  0
 23 24  1  0  0  0  0
 24 25  2  0  0  0  0
 24 26  1  0  0  0  0
 25 27  1  0  0  0  0
 25 50  1  0  0  0  0
 26 28  2  0  0  0  0
 26 51  1  0  0  0  0
 27 29  2  0  0  0  0
 27 52  1  0  0  0  0
 28 29  1  0  0  0  0
 28 53  1  0  0  0  0
 29 54  1  0  0  0  0
M  END
> <PUBCHEM_COMPOUND_CID>
53327263

> <PUBCHEM_COMPOUND_CANONICALIZED>
1

> <PUBCHEM_CACTVS_COMPLEXITY>
550

> <PUBCHEM_CACTVS_HBOND_ACCEPTOR>
2

> <PUBCHEM_CACTVS_HBOND_DONOR>
1

> <PUBCHEM_CACTVS_ROTATABLE_BOND>
3

> <PUBCHEM_CACTVS_SUBSKEYS>
AAADceB7AAAAAAAAAAAAAAAAAAAAAWAAAAA8eMECAAAAAFix9AAAHAAQAAAADCjBHgQ8wPPJkACgAzRnRACCgCAxAiAI2aA4ZJgIYOLA0dGUJAhgkADIyAcQgMAOwAAAAAQCAACAAAAACAQAAAAAAAAAAA==

> <PUBCHEM_IUPAC_OPENEYE_NAME>
5-[(4-phenylphenyl)methyl]-2,5,11-triazatetracyclo[7.6.1.02,7.012,16]hexadeca-1(15),9,12(16),13-tetraene

> <PUBCHEM_IUPAC_CAS_NAME>
5-[(4-phenylphenyl)methyl]-2,5,11-triazatetracyclo[7.6.1.02,7.012,16]hexadeca-1(15),9,12(16),13-tetraene

> <PUBCHEM_IUPAC_NAME_MARKUP>
5-[(4-phenylphenyl)methyl]-2,5,11-triazatetracyclo[7.6.1.0<SUP>2,7</SUP>.0<SUP>12,16</SUP>]hexadeca-1(15),9,12(16),13-tetraene

> <PUBCHEM_IUPAC_NAME>
5-[(4-phenylphenyl)methyl]-2,5,11-triazatetracyclo[7.6.1.02,7.012,16]hexadeca-1(15),9,12(16),13-tetraene

> <PUBCHEM_IUPAC_SYSTEMATIC_NAME>
5-[(4-phenylphenyl)methyl]-2,5,11-triazatetracyclo[7.6.1.02,7.012,16]hexadeca-1(15),9,12(16),13-tetraene

> <PUBCHEM_IUPAC_TRADITIONAL_NAME>
5-(4-phenylbenzyl)-2,5,11-triazatetracyclo[7.6.1.02,7.012,16]hexadeca-1(15),9,12(16),13-tetraene

> <PUBCHEM_IUPAC_INCHI>
InChI=1S/C26H25N3/c1-2-5-20(6-3-1)21-11-9-19(10-12-21)17-28-13-14-29-23(18-28)15-22-16-27-24-7-4-8-25(29)26(22)24/h1-12,16,23,27H,13-15,17-18H2

> <PUBCHEM_IUPAC_INCHIKEY>
LBALZQQRFZMPJO-UHFFFAOYSA-N

> <PUBCHEM_XLOGP3_AA>
5.2

> <PUBCHEM_EXACT_MASS>
379.204847810

> <PUBCHEM_MOLECULAR_FORMULA>
C26H25N3

> <PUBCHEM_MOLECULAR_WEIGHT>
379.5

> <PUBCHEM_OPENEYE_CAN_SMILES>
C1CN2C(CC3=CNC4=C3C2=CC=C4)CN1CC5=CC=C(C=C5)C6=CC=CC=C6

> <PUBCHEM_OPENEYE_ISO_SMILES>
C1CN2C(CC3=CNC4=C3C2=CC=C4)CN1CC5=CC=C(C=C5)C6=CC=CC=C6

> <PUBCHEM_CACTVS_TPSA>
22.3

> <PUBCHEM_MONOISOTOPIC_WEIGHT>
379.204847810

> <PUBCHEM_TOTAL_CHARGE>
0

> <PUBCHEM_HEAVY_ATOM_COUNT>
29

> <PUBCHEM_ATOM_DEF_STEREO_COUNT>
0

> <PUBCHEM_ATOM_UDEF_STEREO_COUNT>
1

> <PUBCHEM_BOND_DEF_STEREO_COUNT>
0

> <PUBCHEM_BOND_UDEF_STEREO_COUNT>
0

> <PUBCHEM_ISOTOPIC_ATOM_COUNT>
0

> <PUBCHEM_COMPONENT_COUNT>
1

> <PUBCHEM_CACTVS_TAUTO_COUNT>
-1

> <PUBCHEM_COORDINATE_TYPE>
1
5
255

> <PUBCHEM_BONDANNOTATIONS>
10  11  8
10  14  8
11  13  8
13  16  8
15  18  8
16  18  8
17  19  8
17  20  8
19  21  8
20  22  8
21  23  8
22  23  8
24  25  8
24  26  8
25  27  8
26  28  8
27  29  8
28  29  8
3  13  8
3  14  8
4  6  3
9  11  8
9  15  8

$$$$
