164612037
  -OEChem-09292322012D

 48 48  0     0  0  0  0  0  0999 V2000
   10.7139    2.5482    0.0000 S   0  0  0  0  0  0  0  0  0  0  0  0
    4.7338   -0.3654    0.0000 O   0  0  0  0  0  0  0  0  0  0  0  0
    5.2690   -2.0127    0.0000 N   0  0  0  0  0  0  0  0  0  0  0  0
    7.5869    0.5616    0.0000 N   0  0  0  0  0  0  0  0  0  0  0  0
   11.2139    4.0870    0.0000 N   0  0  0  0  0  0  0  0  0  0  0  0
    6.4280   -0.7255    0.0000 N   0  0  0  0  0  0  0  0  0  0  0  0
   12.4740    2.8270    0.0000 N   0  0  0  0  0  0  0  0  0  0  0  0
    5.8927    0.9218    0.0000 N   0  0  0  0  0  0  0  0  0  0  0  0
    3.1590   -3.6089    0.0000 C   0  0  0  0  0  0  0  0  0  0  0  0
    4.1100   -3.2999    0.0000 C   0  0  0  0  0  0  0  0  0  0  0  0
    2.9511   -4.5870    0.0000 C   0  0  0  0  0  0  0  0  0  0  0  0
    4.3179   -2.3217    0.0000 C   0  0  0  0  0  0  0  0  0  0  0  0
    8.9538    2.8270    0.0000 C   0  0  0  0  0  0  0  0  0  0  0  0
    8.7459    1.8488    0.0000 C   0  0  0  0  0  0  0  0  0  0  0  0
    9.9049    3.1360    0.0000 C   0  0  0  0  0  0  0  0  0  0  0  0
    7.7948    1.5398    0.0000 C   0  0  0  0  0  0  0  0  0  0  0  0
    2.0000   -4.8960    0.0000 C   0  0  0  0  0  0  0  0  0  0  0  0
   10.2139    4.0870    0.0000 C   0  0  0  0  0  0  0  0  0  0  0  0
    5.4769   -1.0346    0.0000 C   0  0  0  0  0  0  0  0  0  0  0  0
    9.6261    4.8960    0.0000 C   0  0  0  0  0  0  0  0  0  0  0  0
   11.5229    3.1360    0.0000 C   0  0  0  0  0  0  0  0  0  0  0  0
    6.6359    0.2526    0.0000 C   0  0  0  0  0  0  0  0  0  0  0  0
    3.0727   -2.9949    0.0000 H   0  0  0  0  0  0  0  0  0  0  0  0
    2.5394   -3.5872    0.0000 H   0  0  0  0  0  0  0  0  0  0  0  0
    4.1963   -3.9138    0.0000 H   0  0  0  0  0  0  0  0  0  0  0  0
    4.7296   -3.3215    0.0000 H   0  0  0  0  0  0  0  0  0  0  0  0
    3.0373   -5.2010    0.0000 H   0  0  0  0  0  0  0  0  0  0  0  0
    3.5707   -4.6087    0.0000 H   0  0  0  0  0  0  0  0  0  0  0  0
    4.2316   -1.7077    0.0000 H   0  0  0  0  0  0  0  0  0  0  0  0
    3.6983   -2.3001    0.0000 H   0  0  0  0  0  0  0  0  0  0  0  0
    8.8675    3.4409    0.0000 H   0  0  0  0  0  0  0  0  0  0  0  0
    8.3342    2.8486    0.0000 H   0  0  0  0  0  0  0  0  0  0  0  0
    8.8322    1.2348    0.0000 H   0  0  0  0  0  0  0  0  0  0  0  0
    9.3655    1.8272    0.0000 H   0  0  0  0  0  0  0  0  0  0  0  0
    7.7086    2.1538    0.0000 H   0  0  0  0  0  0  0  0  0  0  0  0
    7.1752    1.5614    0.0000 H   0  0  0  0  0  0  0  0  0  0  0  0
    1.8084   -4.3064    0.0000 H   0  0  0  0  0  0  0  0  0  0  0  0
    1.4103   -5.0876    0.0000 H   0  0  0  0  0  0  0  0  0  0  0  0
    2.1916   -5.4857    0.0000 H   0  0  0  0  0  0  0  0  0  0  0  0
    5.7297   -2.4276    0.0000 H   0  0  0  0  0  0  0  0  0  0  0  0
   10.1277    5.2605    0.0000 H   0  0  0  0  0  0  0  0  0  0  0  0
    9.2617    5.3976    0.0000 H   0  0  0  0  0  0  0  0  0  0  0  0
    9.1245    4.5316    0.0000 H   0  0  0  0  0  0  0  0  0  0  0  0
    6.8887   -1.1404    0.0000 H   0  0  0  0  0  0  0  0  0  0  0  0
   12.6029    2.2205    0.0000 H   0  0  0  0  0  0  0  0  0  0  0  0
   12.9347    3.2418    0.0000 H   0  0  0  0  0  0  0  0  0  0  0  0
    5.3031    0.7302    0.0000 H   0  0  0  0  0  0  0  0  0  0  0  0
    6.0216    1.5282    0.0000 H   0  0  0  0  0  0  0  0  0  0  0  0
  1 15  1  0  0  0  0
  1 21  1  0  0  0  0
  2 19  2  0  0  0  0
  3 12  1  0  0  0  0
  3 19  1  0  0  0  0
  3 40  1  0  0  0  0
  4 16  1  0  0  0  0
  4 22  2  0  0  0  0
  5 18  1  0  0  0  0
  5 21  2  0  0  0  0
  6 19  1  0  0  0  0
  6 22  1  0  0  0  0
  6 44  1  0  0  0  0
  7 21  1  0  0  0  0
  7 45  1  0  0  0  0
  7 46  1  0  0  0  0
  8 22  1  0  0  0  0
  8 47  1  0  0  0  0
  8 48  1  0  0  0  0
  9 10  1  0  0  0  0
  9 11  1  0  0  0  0
  9 23  1  0  0  0  0
  9 24  1  0  0  0  0
 10 12  1  0  0  0  0
 10 25  1  0  0  0  0
 10 26  1  0  0  0  0
 11 17  1  0  0  0  0
 11 27  1  0  0  0  0
 11 28  1  0  0  0  0
 12 29  1  0  0  0  0
 12 30  1  0  0  0  0
 13 14  1  0  0  0  0
 13 15  1  0  0  0  0
 13 31  1  0  0  0  0
 13 32  1  0  0  0  0
 14 16  1  0  0  0  0
 14 33  1  0  0  0  0
 14 34  1  0  0  0  0
 15 18  2  0  0  0  0
 16 35  1  0  0  0  0
 16 36  1  0  0  0  0
 17 37  1  0  0  0  0
 17 38  1  0  0  0  0
 17 39  1  0  0  0  0
 18 20  1  0  0  0  0
 20 41  1  0  0  0  0
 20 42  1  0  0  0  0
 20 43  1  0  0  0  0
M  END
> <PUBCHEM_COMPOUND_CID>
164612037

> <PUBCHEM_COMPOUND_CANONICALIZED>
1

> <PUBCHEM_CACTVS_COMPLEXITY>
365

> <PUBCHEM_CACTVS_HBOND_ACCEPTOR>
5

> <PUBCHEM_CACTVS_HBOND_DONOR>
4

> <PUBCHEM_CACTVS_ROTATABLE_BOND>
9

> <PUBCHEM_CACTVS_SUBSKEYS>
AAADceBzoABAAAAAAAAAAAAAAAAAAWAAAAAAAAAAAAAAAAABgAAAHgQQAAAACAjBVgQDkRLIEAisAQRgdAAA8KlhCDkBGJQ4QAiAIAJgkACEAAAolwJISCMQAAAAAAAAAAAAAAAAAAAAAAAAAAAAAAAAAA==

> <PUBCHEM_IUPAC_OPENEYE_NAME>
1-[N'-[3-(2-amino-4-methyl-thiazol-5-yl)propyl]carbamimidoyl]-3-pentyl-urea

> <PUBCHEM_IUPAC_CAS_NAME>
1-[amino-[3-(2-amino-4-methyl-5-thiazolyl)propylimino]methyl]-3-pentylurea

> <PUBCHEM_IUPAC_NAME_MARKUP>
1-[<I>N</I>&apos;-[3-(2-amino-4-methyl-1,3-thiazol-5-yl)propyl]carbamimidoyl]-3-pentylurea

> <PUBCHEM_IUPAC_NAME>
1-[N'-[3-(2-amino-4-methyl-1,3-thiazol-5-yl)propyl]carbamimidoyl]-3-pentylurea

> <PUBCHEM_IUPAC_SYSTEMATIC_NAME>
1-[N'-[3-(2-azanyl-4-methyl-1,3-thiazol-5-yl)propyl]carbamimidoyl]-3-pentyl-urea

> <PUBCHEM_IUPAC_TRADITIONAL_NAME>
1-[N'-[3-(2-amino-4-methyl-thiazol-5-yl)propyl]amidino]-3-amyl-urea

> <PUBCHEM_IUPAC_INCHI>
InChI=1S/C14H26N6OS/c1-3-4-5-8-18-14(21)20-12(15)17-9-6-7-11-10(2)19-13(16)22-11/h3-9H2,1-2H3,(H2,16,19)(H4,15,17,18,20,21)

> <PUBCHEM_IUPAC_INCHIKEY>
ZRQMUCDHVVOENY-UHFFFAOYSA-N

> <PUBCHEM_XLOGP3_AA>
2.5

> <PUBCHEM_EXACT_MASS>
326.18888065

> <PUBCHEM_MOLECULAR_FORMULA>
C14H26N6OS

> <PUBCHEM_MOLECULAR_WEIGHT>
326.46

> <PUBCHEM_OPENEYE_CAN_SMILES>
CCCCCNC(=O)NC(=NCCCC1=C(N=C(S1)N)C)N

> <PUBCHEM_OPENEYE_ISO_SMILES>
CCCCCNC(=O)NC(=NCCCC1=C(N=C(S1)N)C)N

> <PUBCHEM_CACTVS_TPSA>
147

> <PUBCHEM_MONOISOTOPIC_WEIGHT>
326.18888065

> <PUBCHEM_TOTAL_CHARGE>
0

> <PUBCHEM_HEAVY_ATOM_COUNT>
22

> <PUBCHEM_ATOM_DEF_STEREO_COUNT>
0

> <PUBCHEM_ATOM_UDEF_STEREO_COUNT>
0

> <PUBCHEM_BOND_DEF_STEREO_COUNT>
0

> <PUBCHEM_BOND_UDEF_STEREO_COUNT>
0

> <PUBCHEM_ISOTOPIC_ATOM_COUNT>
0

> <PUBCHEM_COMPONENT_COUNT>
1

> <PUBCHEM_CACTVS_TAUTO_COUNT>
-1

> <PUBCHEM_COORDINATE_TYPE>
1
5
255

> <PUBCHEM_BONDANNOTATIONS>
1  15  8
1  21  8
15  18  8
5  18  8
5  21  8

$$$$
