164617893
  -OEChem-09292322432D

 64 68  0     0  0  0  0  0  0999 V2000
    2.0000   -5.9455    0.0000 F   0  0  0  0  0  0  0  0  0  0  0  0
    5.5443   -5.7502    0.0000 O   0  0  0  0  0  0  0  0  0  0  0  0
    9.0546    1.0243    0.0000 O   0  0  0  0  0  0  0  0  0  0  0  0
    6.4763   -1.2892    0.0000 N   0  0  0  0  0  0  0  0  0  0  0  0
   11.2758    5.0326    0.0000 N   0  0  0  0  0  0  0  0  0  0  0  0
    6.1279   -4.9455    0.0000 N   0  0  0  0  0  0  0  0  0  0  0  0
    5.8550   -3.1902    0.0000 C   0  0  0  0  0  0  0  0  0  0  0  0
    6.8335   -2.9840    0.0000 C   0  0  0  0  0  0  0  0  0  0  0  0
    5.1871   -2.4459    0.0000 C   0  0  0  0  0  0  0  0  0  0  0  0
    7.1441   -2.0335    0.0000 C   0  0  0  0  0  0  0  0  0  0  0  0
    5.4978   -1.4954    0.0000 C   0  0  0  0  0  0  0  0  0  0  0  0
    6.7870   -0.3386    0.0000 C   0  0  0  0  0  0  0  0  0  0  0  0
    5.5443   -4.1407    0.0000 C   0  0  0  0  0  0  0  0  0  0  0  0
    7.7654   -0.1324    0.0000 C   0  0  0  0  0  0  0  0  0  0  0  0
   12.0178    4.3622    0.0000 C   0  0  0  0  0  0  0  0  0  0  0  0
   11.6841    5.9455    0.0000 C   0  0  0  0  0  0  0  0  0  0  0  0
   12.8846    4.8607    0.0000 C   0  0  0  0  0  0  0  0  0  0  0  0
   12.6784    5.8392    0.0000 C   0  0  0  0  0  0  0  0  0  0  0  0
    4.5981   -4.4455    0.0000 C   0  0  0  0  0  0  0  0  0  0  0  0
   10.2973    4.8264    0.0000 C   0  0  0  0  0  0  0  0  0  0  0  0
    8.0761    0.8181    0.0000 C   0  0  0  0  0  0  0  0  0  0  0  0
    4.5981   -5.4455    0.0000 C   0  0  0  0  0  0  0  0  0  0  0  0
    9.9866    3.8759    0.0000 C   0  0  0  0  0  0  0  0  0  0  0  0
    3.7320   -3.9455    0.0000 C   0  0  0  0  0  0  0  0  0  0  0  0
    3.7320   -5.9455    0.0000 C   0  0  0  0  0  0  0  0  0  0  0  0
    9.3653    1.9748    0.0000 C   0  0  0  0  0  0  0  0  0  0  0  0
    2.8660   -4.4455    0.0000 C   0  0  0  0  0  0  0  0  0  0  0  0
   10.6545    3.1316    0.0000 C   0  0  0  0  0  0  0  0  0  0  0  0
    9.0081    3.6697    0.0000 C   0  0  0  0  0  0  0  0  0  0  0  0
    2.8660   -5.4455    0.0000 C   0  0  0  0  0  0  0  0  0  0  0  0
   10.3438    2.1810    0.0000 C   0  0  0  0  0  0  0  0  0  0  0  0
    8.6974    2.7191    0.0000 C   0  0  0  0  0  0  0  0  0  0  0  0
    6.2690   -3.6517    0.0000 H   0  0  0  0  0  0  0  0  0  0  0  0
    6.8540   -3.6036    0.0000 H   0  0  0  0  0  0  0  0  0  0  0  0
    7.4473   -3.0713    0.0000 H   0  0  0  0  0  0  0  0  0  0  0  0
    4.6402   -2.1539    0.0000 H   0  0  0  0  0  0  0  0  0  0  0  0
    4.8046   -2.9338    0.0000 H   0  0  0  0  0  0  0  0  0  0  0  0
    7.6910   -2.3255    0.0000 H   0  0  0  0  0  0  0  0  0  0  0  0
    7.5267   -1.5456    0.0000 H   0  0  0  0  0  0  0  0  0  0  0  0
    5.4772   -0.8757    0.0000 H   0  0  0  0  0  0  0  0  0  0  0  0
    4.8840   -1.4080    0.0000 H   0  0  0  0  0  0  0  0  0  0  0  0
    6.7664    0.2810    0.0000 H   0  0  0  0  0  0  0  0  0  0  0  0
    6.1731   -0.2513    0.0000 H   0  0  0  0  0  0  0  0  0  0  0  0
    7.7860   -0.7521    0.0000 H   0  0  0  0  0  0  0  0  0  0  0  0
    8.3793   -0.2198    0.0000 H   0  0  0  0  0  0  0  0  0  0  0  0
   11.5563    3.9481    0.0000 H   0  0  0  0  0  0  0  0  0  0  0  0
   12.3813    3.8600    0.0000 H   0  0  0  0  0  0  0  0  0  0  0  0
   11.8140    6.5517    0.0000 H   0  0  0  0  0  0  0  0  0  0  0  0
   11.0948    6.1381    0.0000 H   0  0  0  0  0  0  0  0  0  0  0  0
   13.1358    4.2939    0.0000 H   0  0  0  0  0  0  0  0  0  0  0  0
   13.4746    5.0513    0.0000 H   0  0  0  0  0  0  0  0  0  0  0  0
   13.2951    5.9030    0.0000 H   0  0  0  0  0  0  0  0  0  0  0  0
   12.6795    6.4592    0.0000 H   0  0  0  0  0  0  0  0  0  0  0  0
   10.2767    5.4461    0.0000 H   0  0  0  0  0  0  0  0  0  0  0  0
    9.6834    4.9138    0.0000 H   0  0  0  0  0  0  0  0  0  0  0  0
    8.0556    1.4378    0.0000 H   0  0  0  0  0  0  0  0  0  0  0  0
    7.4623    0.9054    0.0000 H   0  0  0  0  0  0  0  0  0  0  0  0
    3.7320   -3.3255    0.0000 H   0  0  0  0  0  0  0  0  0  0  0  0
    3.7320   -6.5655    0.0000 H   0  0  0  0  0  0  0  0  0  0  0  0
   11.2611    3.2594    0.0000 H   0  0  0  0  0  0  0  0  0  0  0  0
    8.5940    4.1311    0.0000 H   0  0  0  0  0  0  0  0  0  0  0  0
    2.3291   -4.1355    0.0000 H   0  0  0  0  0  0  0  0  0  0  0  0
   10.7578    1.7196    0.0000 H   0  0  0  0  0  0  0  0  0  0  0  0
    8.0908    2.5913    0.0000 H   0  0  0  0  0  0  0  0  0  0  0  0
  1 30  1  0  0  0  0
  2  6  1  0  0  0  0
  2 22  1  0  0  0  0
  3 21  1  0  0  0  0
  3 26  1  0  0  0  0
  4 10  1  0  0  0  0
  4 11  1  0  0  0  0
  4 12  1  0  0  0  0
  5 15  1  0  0  0  0
  5 16  1  0  0  0  0
  5 20  1  0  0  0  0
  6 13  2  0  0  0  0
  7  8  1  0  0  0  0
  7  9  1  0  0  0  0
  7 13  1  0  0  0  0
  7 33  1  0  0  0  0
  8 10  1  0  0  0  0
  8 34  1  0  0  0  0
  8 35  1  0  0  0  0
  9 11  1  0  0  0  0
  9 36  1  0  0  0  0
  9 37  1  0  0  0  0
 10 38  1  0  0  0  0
 10 39  1  0  0  0  0
 11 40  1  0  0  0  0
 11 41  1  0  0  0  0
 12 14  1  0  0  0  0
 12 42  1  0  0  0  0
 12 43  1  0  0  0  0
 13 19  1  0  0  0  0
 14 21  1  0  0  0  0
 14 44  1  0  0  0  0
 14 45  1  0  0  0  0
 15 17  1  0  0  0  0
 15 46  1  0  0  0  0
 15 47  1  0  0  0  0
 16 18  1  0  0  0  0
 16 48  1  0  0  0  0
 16 49  1  0  0  0  0
 17 18  1  0  0  0  0
 17 50  1  0  0  0  0
 17 51  1  0  0  0  0
 18 52  1  0  0  0  0
 18 53  1  0  0  0  0
 19 22  2  0  0  0  0
 19 24  1  0  0  0  0
 20 23  1  0  0  0  0
 20 54  1  0  0  0  0
 20 55  1  0  0  0  0
 21 56  1  0  0  0  0
 21 57  1  0  0  0  0
 22 25  1  0  0  0  0
 23 28  2  0  0  0  0
 23 29  1  0  0  0  0
 24 27  2  0  0  0  0
 24 58  1  0  0  0  0
 25 30  2  0  0  0  0
 25 59  1  0  0  0  0
 26 31  2  0  0  0  0
 26 32  1  0  0  0  0
 27 30  1  0  0  0  0
 27 62  1  0  0  0  0
 28 31  1  0  0  0  0
 28 60  1  0  0  0  0
 29 32  2  0  0  0  0
 29 61  1  0  0  0  0
 31 63  1  0  0  0  0
 32 64  1  0  0  0  0
M  END
> <PUBCHEM_COMPOUND_CID>
164617893

> <PUBCHEM_COMPOUND_CANONICALIZED>
1

> <PUBCHEM_CACTVS_COMPLEXITY>
559

> <PUBCHEM_CACTVS_HBOND_ACCEPTOR>
6

> <PUBCHEM_CACTVS_HBOND_DONOR>
0

> <PUBCHEM_CACTVS_ROTATABLE_BOND>
8

> <PUBCHEM_CACTVS_SUBSKEYS>
AAADcfB7MQAAAAAAAAAAAAAAAAAAAWLAAAA8YIAAAAAAAFgB9AAAHwAEAAAADQzhng4whtMQBACpA6RyQgCCCAAkIAAomCE+TNoMJrqEtZuGOajmwBmI6ceY2OKOIAAAAAAIAABAAAAAABAAAAAAAAAAAA==

> <PUBCHEM_IUPAC_OPENEYE_NAME>
6-fluoro-3-[1-[3-[4-(pyrrolidin-1-ylmethyl)phenoxy]propyl]-4-piperidyl]-1,2-benzoxazole

> <PUBCHEM_IUPAC_CAS_NAME>
6-fluoro-3-[1-[3-[4-(1-pyrrolidinylmethyl)phenoxy]propyl]-4-piperidinyl]-1,2-benzoxazole

> <PUBCHEM_IUPAC_NAME_MARKUP>
6-fluoro-3-[1-[3-[4-(pyrrolidin-1-ylmethyl)phenoxy]propyl]piperidin-4-yl]-1,2-benzoxazole

> <PUBCHEM_IUPAC_NAME>
6-fluoro-3-[1-[3-[4-(pyrrolidin-1-ylmethyl)phenoxy]propyl]piperidin-4-yl]-1,2-benzoxazole

> <PUBCHEM_IUPAC_SYSTEMATIC_NAME>
6-fluoranyl-3-[1-[3-[4-(pyrrolidin-1-ylmethyl)phenoxy]propyl]piperidin-4-yl]-1,2-benzoxazole

> <PUBCHEM_IUPAC_TRADITIONAL_NAME>
6-fluoro-3-[1-[3-[4-(pyrrolidinomethyl)phenoxy]propyl]-4-piperidyl]indoxazene

> <PUBCHEM_IUPAC_INCHI>
InChI=1S/C26H32FN3O2/c27-22-6-9-24-25(18-22)32-28-26(24)21-10-15-29(16-11-21)14-3-17-31-23-7-4-20(5-8-23)19-30-12-1-2-13-30/h4-9,18,21H,1-3,10-17,19H2

> <PUBCHEM_IUPAC_INCHIKEY>
XOGYORIOPYTSDW-UHFFFAOYSA-N

> <PUBCHEM_XLOGP3_AA>
4.8

> <PUBCHEM_EXACT_MASS>
437.24785543

> <PUBCHEM_MOLECULAR_FORMULA>
C26H32FN3O2

> <PUBCHEM_MOLECULAR_WEIGHT>
437.5

> <PUBCHEM_OPENEYE_CAN_SMILES>
C1CCN(C1)CC2=CC=C(C=C2)OCCCN3CCC(CC3)C4=NOC5=C4C=CC(=C5)F

> <PUBCHEM_OPENEYE_ISO_SMILES>
C1CCN(C1)CC2=CC=C(C=C2)OCCCN3CCC(CC3)C4=NOC5=C4C=CC(=C5)F

> <PUBCHEM_CACTVS_TPSA>
41.7

> <PUBCHEM_MONOISOTOPIC_WEIGHT>
437.24785543

> <PUBCHEM_TOTAL_CHARGE>
0

> <PUBCHEM_HEAVY_ATOM_COUNT>
32

> <PUBCHEM_ATOM_DEF_STEREO_COUNT>
0

> <PUBCHEM_ATOM_UDEF_STEREO_COUNT>
0

> <PUBCHEM_BOND_DEF_STEREO_COUNT>
0

> <PUBCHEM_BOND_UDEF_STEREO_COUNT>
0

> <PUBCHEM_ISOTOPIC_ATOM_COUNT>
0

> <PUBCHEM_COMPONENT_COUNT>
1

> <PUBCHEM_CACTVS_TAUTO_COUNT>
-1

> <PUBCHEM_COORDINATE_TYPE>
1
5
255

> <PUBCHEM_BONDANNOTATIONS>
13  19  8
19  22  8
19  24  8
2  22  8
2  6  8
22  25  8
23  28  8
23  29  8
24  27  8
25  30  8
26  31  8
26  32  8
27  30  8
28  31  8
29  32  8
6  13  8

$$$$
