76322141
  -OEChem-09292322342D

 70 72  0     0  0  0  0  0  0999 V2000
   11.7038    9.1590    0.0000 O   0  0  0  0  0  0  0  0  0  0  0  0
    4.5901    4.1196    0.0000 O   0  0  0  0  0  0  0  0  0  0  0  0
    1.4030    2.6200    0.0000 O   0  0  0  0  0  0  0  0  0  0  0  0
    5.3454   15.6862    0.0000 O   0  0  0  0  0  0  0  0  0  0  0  0
    7.9435   15.1862    0.0000 O   0  0  0  0  0  0  0  0  0  0  0  0
    6.2115   14.1862    0.0000 O   0  0  0  0  0  0  0  0  0  0  0  0
    7.0775   16.6862    0.0000 O   0  0  0  0  0  0  0  0  0  0  0  0
    9.1254    6.8455    0.0000 N   0  0  0  0  0  0  0  0  0  0  0  0
    9.7468    8.7465    0.0000 N   0  0  0  0  0  0  0  0  0  0  0  0
    6.2364    3.5815    0.0000 N   0  0  0  0  0  0  0  0  0  0  0  0
    4.9473    0.8153    0.0000 N   0  0  0  0  0  0  0  0  0  0  0  0
    8.4576    7.5898    0.0000 C   0  0  0  0  0  0  0  0  0  0  0  0
   10.1039    7.0517    0.0000 C   0  0  0  0  0  0  0  0  0  0  0  0
    8.7682    8.5403    0.0000 C   0  0  0  0  0  0  0  0  0  0  0  0
   10.4146    8.0022    0.0000 C   0  0  0  0  0  0  0  0  0  0  0  0
    8.8148    5.8950    0.0000 C   0  0  0  0  0  0  0  0  0  0  0  0
   10.0574    9.6970    0.0000 C   0  0  0  0  0  0  0  0  0  0  0  0
    7.8363    5.6887    0.0000 C   0  0  0  0  0  0  0  0  0  0  0  0
   11.0359    9.9032    0.0000 C   0  0  0  0  0  0  0  0  0  0  0  0
    9.3896   10.4413    0.0000 C   0  0  0  0  0  0  0  0  0  0  0  0
   11.3466   10.8538    0.0000 C   0  0  0  0  0  0  0  0  0  0  0  0
    7.5256    4.7382    0.0000 C   0  0  0  0  0  0  0  0  0  0  0  0
    9.7002   11.3919    0.0000 C   0  0  0  0  0  0  0  0  0  0  0  0
   10.6787   11.5981    0.0000 C   0  0  0  0  0  0  0  0  0  0  0  0
    6.5471    4.5320    0.0000 C   0  0  0  0  0  0  0  0  0  0  0  0
    4.9473    2.4247    0.0000 C   0  0  0  0  0  0  0  0  0  0  0  0
    4.0010    2.1200    0.0000 C   0  0  0  0  0  0  0  0  0  0  0  0
    5.2579    3.3752    0.0000 C   0  0  0  0  0  0  0  0  0  0  0  0
    4.0010    1.1200    0.0000 C   0  0  0  0  0  0  0  0  0  0  0  0
   12.6823    9.3652    0.0000 C   0  0  0  0  0  0  0  0  0  0  0  0
    5.5309    1.6200    0.0000 C   0  0  0  0  0  0  0  0  0  0  0  0
    3.1350    2.6200    0.0000 C   0  0  0  0  0  0  0  0  0  0  0  0
    3.1350    0.6200    0.0000 C   0  0  0  0  0  0  0  0  0  0  0  0
    2.2690    2.1200    0.0000 C   0  0  0  0  0  0  0  0  0  0  0  0
    2.2690    1.1200    0.0000 C   0  0  0  0  0  0  0  0  0  0  0  0
    0.5369    2.1200    0.0000 C   0  0  0  0  0  0  0  0  0  0  0  0
    6.2115   15.1862    0.0000 C   0  0  0  0  0  0  0  0  0  0  0  0
    7.0775   15.6862    0.0000 C   0  0  0  0  0  0  0  0  0  0  0  0
    7.9107    7.8818    0.0000 H   0  0  0  0  0  0  0  0  0  0  0  0
    8.0750    7.1019    0.0000 H   0  0  0  0  0  0  0  0  0  0  0  0
   10.1245    6.4320    0.0000 H   0  0  0  0  0  0  0  0  0  0  0  0
   10.7177    6.9643    0.0000 H   0  0  0  0  0  0  0  0  0  0  0  0
    8.7477    9.1600    0.0000 H   0  0  0  0  0  0  0  0  0  0  0  0
    8.1544    8.6276    0.0000 H   0  0  0  0  0  0  0  0  0  0  0  0
   10.9615    7.7102    0.0000 H   0  0  0  0  0  0  0  0  0  0  0  0
   10.7971    8.4901    0.0000 H   0  0  0  0  0  0  0  0  0  0  0  0
    8.8353    5.2753    0.0000 H   0  0  0  0  0  0  0  0  0  0  0  0
    9.4286    5.8076    0.0000 H   0  0  0  0  0  0  0  0  0  0  0  0
    7.4222    6.1502    0.0000 H   0  0  0  0  0  0  0  0  0  0  0  0
    8.7829   10.3135    0.0000 H   0  0  0  0  0  0  0  0  0  0  0  0
    7.9397    4.2767    0.0000 H   0  0  0  0  0  0  0  0  0  0  0  0
   11.9533   10.9816    0.0000 H   0  0  0  0  0  0  0  0  0  0  0  0
    9.2862   11.8533    0.0000 H   0  0  0  0  0  0  0  0  0  0  0  0
   10.8713   12.1874    0.0000 H   0  0  0  0  0  0  0  0  0  0  0  0
    6.5265    5.1516    0.0000 H   0  0  0  0  0  0  0  0  0  0  0  0
    5.9333    4.6193    0.0000 H   0  0  0  0  0  0  0  0  0  0  0  0
    6.6505    3.1200    0.0000 H   0  0  0  0  0  0  0  0  0  0  0  0
   12.8101    8.7585    0.0000 H   0  0  0  0  0  0  0  0  0  0  0  0
   13.2889    9.4930    0.0000 H   0  0  0  0  0  0  0  0  0  0  0  0
   12.5544    9.9718    0.0000 H   0  0  0  0  0  0  0  0  0  0  0  0
    6.1509    1.6200    0.0000 H   0  0  0  0  0  0  0  0  0  0  0  0
    5.1399    0.2259    0.0000 H   0  0  0  0  0  0  0  0  0  0  0  0
    3.1350    3.2400    0.0000 H   0  0  0  0  0  0  0  0  0  0  0  0
    3.1350    0.0000    0.0000 H   0  0  0  0  0  0  0  0  0  0  0  0
    1.7320    0.8100    0.0000 H   0  0  0  0  0  0  0  0  0  0  0  0
    0.2269    2.6569    0.0000 H   0  0  0  0  0  0  0  0  0  0  0  0
    0.0000    1.8100    0.0000 H   0  0  0  0  0  0  0  0  0  0  0  0
    0.8469    1.5831    0.0000 H   0  0  0  0  0  0  0  0  0  0  0  0
    4.8085   15.3762    0.0000 H   0  0  0  0  0  0  0  0  0  0  0  0
    8.4804   15.4962    0.0000 H   0  0  0  0  0  0  0  0  0  0  0  0
  1 19  1  0  0  0  0
  1 30  1  0  0  0  0
  2 28  2  0  0  0  0
  3 34  1  0  0  0  0
  3 36  1  0  0  0  0
  4 37  1  0  0  0  0
  4 69  1  0  0  0  0
  5 38  1  0  0  0  0
  5 70  1  0  0  0  0
  6 37  2  0  0  0  0
  7 38  2  0  0  0  0
  8 12  1  0  0  0  0
  8 13  1  0  0  0  0
  8 16  1  0  0  0  0
  9 14  1  0  0  0  0
  9 15  1  0  0  0  0
  9 17  1  0  0  0  0
 10 25  1  0  0  0  0
 10 28  1  0  0  0  0
 10 57  1  0  0  0  0
 11 29  1  0  0  0  0
 11 31  1  0  0  0  0
 11 62  1  0  0  0  0
 12 14  1  0  0  0  0
 12 39  1  0  0  0  0
 12 40  1  0  0  0  0
 13 15  1  0  0  0  0
 13 41  1  0  0  0  0
 13 42  1  0  0  0  0
 14 43  1  0  0  0  0
 14 44  1  0  0  0  0
 15 45  1  0  0  0  0
 15 46  1  0  0  0  0
 16 18  1  0  0  0  0
 16 47  1  0  0  0  0
 16 48  1  0  0  0  0
 17 19  1  0  0  0  0
 17 20  2  0  0  0  0
 18 22  2  0  0  0  0
 18 49  1  0  0  0  0
 19 21  2  0  0  0  0
 20 23  1  0  0  0  0
 20 50  1  0  0  0  0
 21 24  1  0  0  0  0
 21 52  1  0  0  0  0
 22 25  1  0  0  0  0
 22 51  1  0  0  0  0
 23 24  2  0  0  0  0
 23 53  1  0  0  0  0
 24 54  1  0  0  0  0
 25 55  1  0  0  0  0
 25 56  1  0  0  0  0
 26 27  1  0  0  0  0
 26 28  1  0  0  0  0
 26 31  2  0  0  0  0
 27 29  2  0  0  0  0
 27 32  1  0  0  0  0
 29 33  1  0  0  0  0
 30 58  1  0  0  0  0
 30 59  1  0  0  0  0
 30 60  1  0  0  0  0
 31 61  1  0  0  0  0
 32 34  2  0  0  0  0
 32 63  1  0  0  0  0
 33 35  2  0  0  0  0
 33 64  1  0  0  0  0
 34 35  1  0  0  0  0
 35 65  1  0  0  0  0
 36 66  1  0  0  0  0
 36 67  1  0  0  0  0
 36 68  1  0  0  0  0
 37 38  1  0  0  0  0
M  END
> <PUBCHEM_COMPOUND_CID>
76322141

> <PUBCHEM_COMPOUND_CANONICALIZED>
1

> <PUBCHEM_CACTVS_COMPLEXITY>
694

> <PUBCHEM_CACTVS_HBOND_ACCEPTOR>
9

> <PUBCHEM_CACTVS_HBOND_DONOR>
4

> <PUBCHEM_CACTVS_ROTATABLE_BOND>
9

> <PUBCHEM_CACTVS_SUBSKEYS>
AAADcfB7uAAAAAAAAAAAAAAAAAAAAWAAAAA8YIAAAAAAAFgB9AAAHgAQCAAADAzBngY+zvPJlgCoAzX3XAKCiCA1IiAI2aF/bNgPZvrE9ZuVMahk1hHZ6ce83PLOgEABAAACEAAAgAIAAAQgAAAAAAAAAA==

> <PUBCHEM_IUPAC_OPENEYE_NAME>
5-methoxy-N-[(E)-4-[4-(2-methoxyphenyl)piperazin-1-yl]but-2-enyl]-1H-indole-3-carboxamide;oxalic acid

> <PUBCHEM_IUPAC_CAS_NAME>
5-methoxy-N-[(E)-4-[4-(2-methoxyphenyl)-1-piperazinyl]but-2-enyl]-1H-indole-3-carboxamide;oxalic acid

> <PUBCHEM_IUPAC_NAME_MARKUP>
5-methoxy-<I>N</I>-[(<I>E</I>)-4-[4-(2-methoxyphenyl)piperazin-1-yl]but-2-enyl]-1<I>H</I>-indole-3-carboxamide;oxalic acid

> <PUBCHEM_IUPAC_NAME>
5-methoxy-N-[(E)-4-[4-(2-methoxyphenyl)piperazin-1-yl]but-2-enyl]-1H-indole-3-carboxamide;oxalic acid

> <PUBCHEM_IUPAC_SYSTEMATIC_NAME>
ethanedioic acid;5-methoxy-N-[(E)-4-[4-(2-methoxyphenyl)piperazin-1-yl]but-2-enyl]-1H-indole-3-carboxamide

> <PUBCHEM_IUPAC_TRADITIONAL_NAME>
5-methoxy-N-[(E)-4-[4-(2-methoxyphenyl)piperazino]but-2-enyl]-1H-indole-3-carboxamide;oxalic acid

> <PUBCHEM_IUPAC_INCHI>
InChI=1S/C25H30N4O3.C2H2O4/c1-31-19-9-10-22-20(17-19)21(18-27-22)25(30)26-11-5-6-12-28-13-15-29(16-14-28)23-7-3-4-8-24(23)32-2;3-1(4)2(5)6/h3-10,17-18,27H,11-16H2,1-2H3,(H,26,30);(H,3,4)(H,5,6)/b6-5+;

> <PUBCHEM_IUPAC_INCHIKEY>
ZBPWZFHOPPASBX-IPZCTEOASA-N

> <PUBCHEM_EXACT_MASS>
524.22709937

> <PUBCHEM_MOLECULAR_FORMULA>
C27H32N4O7

> <PUBCHEM_MOLECULAR_WEIGHT>
524.6

> <PUBCHEM_OPENEYE_CAN_SMILES>
COC1=CC2=C(C=C1)NC=C2C(=O)NCC=CCN3CCN(CC3)C4=CC=CC=C4OC.C(=O)(C(=O)O)O

> <PUBCHEM_OPENEYE_ISO_SMILES>
COC1=CC2=C(C=C1)NC=C2C(=O)NC/C=C/CN3CCN(CC3)C4=CC=CC=C4OC.C(=O)(C(=O)O)O

> <PUBCHEM_CACTVS_TPSA>
144

> <PUBCHEM_MONOISOTOPIC_WEIGHT>
524.22709937

> <PUBCHEM_TOTAL_CHARGE>
0

> <PUBCHEM_HEAVY_ATOM_COUNT>
38

> <PUBCHEM_ATOM_DEF_STEREO_COUNT>
0

> <PUBCHEM_ATOM_UDEF_STEREO_COUNT>
0

> <PUBCHEM_BOND_DEF_STEREO_COUNT>
1

> <PUBCHEM_BOND_UDEF_STEREO_COUNT>
0

> <PUBCHEM_ISOTOPIC_ATOM_COUNT>
0

> <PUBCHEM_COMPONENT_COUNT>
2

> <PUBCHEM_CACTVS_TAUTO_COUNT>
-1

> <PUBCHEM_COORDINATE_TYPE>
1
5
255

> <PUBCHEM_BONDANNOTATIONS>
11  29  8
11  31  8
17  19  8
17  20  8
19  21  8
20  23  8
21  24  8
23  24  8
26  27  8
26  31  8
27  29  8
27  32  8
29  33  8
32  34  8
33  35  8
34  35  8

$$$$
