155550640
  -OEChem-09292322412D

 67 69  0     1  0  0  0  0  0999 V2000
    7.6631    0.0000    0.0000 Cl  0  0  0  0  0  0  0  0  0  0  0  0
    0.0000    7.6349    0.0000 F   0  0  0  0  0  0  0  0  0  0  0  0
   11.3923    4.6349    0.0000 O   0  0  0  0  0  0  0  0  0  0  0  0
    6.1962    5.6349    0.0000 N   0  0  3  0  0  0  0  0  0  0  0  0
   10.5263    6.1349    0.0000 N   0  0  0  0  0  0  0  0  0  0  0  0
    4.4641    5.6349    0.0000 C   0  0  3  0  0  0  0  0  0  0  0  0
    3.4641    5.6349    0.0000 C   0  0  3  0  0  0  0  0  0  0  0  0
    3.9641    4.7688    0.0000 C   0  0  0  0  0  0  0  0  0  0  0  0
    5.3301    6.1349    0.0000 C   0  0  0  0  0  0  0  0  0  0  0  0
    2.5981    6.1349    0.0000 C   0  0  0  0  0  0  0  0  0  0  0  0
    7.0622    6.1349    0.0000 C   0  0  0  0  0  0  0  0  0  0  0  0
    6.1962    4.6349    0.0000 C   0  0  0  0  0  0  0  0  0  0  0  0
    2.5981    7.1349    0.0000 C   0  0  0  0  0  0  0  0  0  0  0  0
    1.7320    5.6349    0.0000 C   0  0  0  0  0  0  0  0  0  0  0  0
    7.9282    5.6349    0.0000 C   0  0  0  0  0  0  0  0  0  0  0  0
    7.0622    4.1349    0.0000 C   0  0  0  0  0  0  0  0  0  0  0  0
    1.7320    7.6349    0.0000 C   0  0  0  0  0  0  0  0  0  0  0  0
    0.8660    6.1349    0.0000 C   0  0  0  0  0  0  0  0  0  0  0  0
    0.8660    7.1349    0.0000 C   0  0  0  0  0  0  0  0  0  0  0  0
    8.7942    6.1349    0.0000 C   0  0  0  0  0  0  0  0  0  0  0  0
    7.0622    3.1349    0.0000 C   0  0  0  0  0  0  0  0  0  0  0  0
    9.6602    5.6349    0.0000 C   0  0  0  0  0  0  0  0  0  0  0  0
   11.3923    5.6349    0.0000 C   0  0  0  0  0  0  0  0  0  0  0  0
   12.2583    6.1349    0.0000 C   0  0  0  0  0  0  0  0  0  0  0  0
   13.1244    5.6349    0.0000 C   0  0  0  0  0  0  0  0  0  0  0  0
   12.2583    7.1349    0.0000 C   0  0  0  0  0  0  0  0  0  0  0  0
   13.9904    6.1349    0.0000 C   0  0  0  0  0  0  0  0  0  0  0  0
   13.9904    7.1349    0.0000 C   0  0  0  0  0  0  0  0  0  0  0  0
   13.1244    7.6349    0.0000 C   0  0  0  0  0  0  0  0  0  0  0  0
   14.8843    5.6002    0.0000 C   0  0  0  0  0  0  0  0  0  0  0  0
   14.8843    7.6695    0.0000 C   0  0  0  0  0  0  0  0  0  0  0  0
   15.7904    6.1140    0.0000 C   0  0  0  0  0  0  0  0  0  0  0  0
   15.7904    7.1557    0.0000 C   0  0  0  0  0  0  0  0  0  0  0  0
    4.9025    5.1965    0.0000 H   0  0  0  0  0  0  0  0  0  0  0  0
    3.6246    6.2337    0.0000 H   0  0  0  0  0  0  0  0  0  0  0  0
    3.4892    4.3703    0.0000 H   0  0  0  0  0  0  0  0  0  0  0  0
    4.4390    4.3703    0.0000 H   0  0  0  0  0  0  0  0  0  0  0  0
    5.7286    6.6098    0.0000 H   0  0  0  0  0  0  0  0  0  0  0  0
    4.9316    6.6098    0.0000 H   0  0  0  0  0  0  0  0  0  0  0  0
    7.4607    6.6098    0.0000 H   0  0  0  0  0  0  0  0  0  0  0  0
    6.6636    6.6098    0.0000 H   0  0  0  0  0  0  0  0  0  0  0  0
    5.5856    4.7425    0.0000 H   0  0  0  0  0  0  0  0  0  0  0  0
    5.9841    4.0523    0.0000 H   0  0  0  0  0  0  0  0  0  0  0  0
    3.1350    7.4449    0.0000 H   0  0  0  0  0  0  0  0  0  0  0  0
    1.7320    5.0149    0.0000 H   0  0  0  0  0  0  0  0  0  0  0  0
    7.5297    5.1599    0.0000 H   0  0  0  0  0  0  0  0  0  0  0  0
    8.3267    5.1599    0.0000 H   0  0  0  0  0  0  0  0  0  0  0  0
    7.6728    4.0272    0.0000 H   0  0  0  0  0  0  0  0  0  0  0  0
    7.2742    4.7175    0.0000 H   0  0  0  0  0  0  0  0  0  0  0  0
    1.7320    8.2549    0.0000 H   0  0  0  0  0  0  0  0  0  0  0  0
    0.3291    5.8249    0.0000 H   0  0  0  0  0  0  0  0  0  0  0  0
    9.1928    6.6098    0.0000 H   0  0  0  0  0  0  0  0  0  0  0  0
    8.3957    6.6098    0.0000 H   0  0  0  0  0  0  0  0  0  0  0  0
    6.4422    3.1349    0.0000 H   0  0  0  0  0  0  0  0  0  0  0  0
    7.0622    2.5149    0.0000 H   0  0  0  0  0  0  0  0  0  0  0  0
    7.6822    3.1349    0.0000 H   0  0  0  0  0  0  0  0  0  0  0  0
    9.2617    5.1599    0.0000 H   0  0  0  0  0  0  0  0  0  0  0  0
   10.0588    5.1599    0.0000 H   0  0  0  0  0  0  0  0  0  0  0  0
   10.5263    6.7549    0.0000 H   0  0  0  0  0  0  0  0  0  0  0  0
   13.1244    5.0149    0.0000 H   0  0  0  0  0  0  0  0  0  0  0  0
   11.7214    7.4449    0.0000 H   0  0  0  0  0  0  0  0  0  0  0  0
   13.1244    8.2549    0.0000 H   0  0  0  0  0  0  0  0  0  0  0  0
   14.8772    4.9802    0.0000 H   0  0  0  0  0  0  0  0  0  0  0  0
   14.8772    8.2895    0.0000 H   0  0  0  0  0  0  0  0  0  0  0  0
   16.3261    5.8020    0.0000 H   0  0  0  0  0  0  0  0  0  0  0  0
   16.3261    7.4678    0.0000 H   0  0  0  0  0  0  0  0  0  0  0  0
    8.6631    0.0000    0.0000 H   0  0  0  0  0  0  0  0  0  0  0  0
  1 67  1  0  0  0  0
  2 19  1  0  0  0  0
  3 23  2  0  0  0  0
  4  9  1  0  0  0  0
  4 11  1  0  0  0  0
  4 12  1  0  0  0  0
  5 22  1  0  0  0  0
  5 23  1  0  0  0  0
  5 59  1  0  0  0  0
  6  7  1  0  0  0  0
  6  8  1  0  0  0  0
  6  9  1  0  0  0  0
  6 34  1  0  0  0  0
  7  8  1  0  0  0  0
  7 10  1  0  0  0  0
  7 35  1  0  0  0  0
  8 36  1  0  0  0  0
  8 37  1  0  0  0  0
  9 38  1  0  0  0  0
  9 39  1  0  0  0  0
 10 13  2  0  0  0  0
 10 14  1  0  0  0  0
 11 15  1  0  0  0  0
 11 40  1  0  0  0  0
 11 41  1  0  0  0  0
 12 16  1  0  0  0  0
 12 42  1  0  0  0  0
 12 43  1  0  0  0  0
 13 17  1  0  0  0  0
 13 44  1  0  0  0  0
 14 18  2  0  0  0  0
 14 45  1  0  0  0  0
 15 20  1  0  0  0  0
 15 46  1  0  0  0  0
 15 47  1  0  0  0  0
 16 21  1  0  0  0  0
 16 48  1  0  0  0  0
 16 49  1  0  0  0  0
 17 19  2  0  0  0  0
 17 50  1  0  0  0  0
 18 19  1  0  0  0  0
 18 51  1  0  0  0  0
 20 22  1  0  0  0  0
 20 52  1  0  0  0  0
 20 53  1  0  0  0  0
 21 54  1  0  0  0  0
 21 55  1  0  0  0  0
 21 56  1  0  0  0  0
 22 57  1  0  0  0  0
 22 58  1  0  0  0  0
 23 24  1  0  0  0  0
 24 25  2  0  0  0  0
 24 26  1  0  0  0  0
 25 27  1  0  0  0  0
 25 60  1  0  0  0  0
 26 29  2  0  0  0  0
 26 61  1  0  0  0  0
 27 28  1  0  0  0  0
 27 30  2  0  0  0  0
 28 29  1  0  0  0  0
 28 31  2  0  0  0  0
 29 62  1  0  0  0  0
 30 32  1  0  0  0  0
 30 63  1  0  0  0  0
 31 33  1  0  0  0  0
 31 64  1  0  0  0  0
 32 33  2  0  0  0  0
 32 65  1  0  0  0  0
 33 66  1  0  0  0  0
M  END
> <PUBCHEM_COMPOUND_CID>
155550640

> <PUBCHEM_COMPOUND_CANONICALIZED>
1

> <PUBCHEM_CACTVS_COMPLEXITY>
576

> <PUBCHEM_CACTVS_HBOND_ACCEPTOR>
3

> <PUBCHEM_CACTVS_HBOND_DONOR>
2

> <PUBCHEM_CACTVS_ROTATABLE_BOND>
11

> <PUBCHEM_CACTVS_SUBSKEYS>
AAADcfB7IQAEAAAAAAAAAAAAGAAAAAAAAAAwYMAAAAAAAADBVAAAHwAQAAAADQDBmAwyAMPAAACIAiFSEACCAAAkAAAIiIEIBMgIIDKAlRGEIQhglgCIiYcYiMCOwAACAAAQAACAAAQAACAAAAAAAAAAAA==

> <PUBCHEM_IUPAC_OPENEYE_NAME>
N-[4-[[2-(4-fluorophenyl)cyclopropyl]methyl-propyl-amino]butyl]naphthalene-2-carboxamide;hydrochloride

> <PUBCHEM_IUPAC_CAS_NAME>
N-[4-[[2-(4-fluorophenyl)cyclopropyl]methyl-propylamino]butyl]-2-naphthalenecarboxamide;hydrochloride

> <PUBCHEM_IUPAC_NAME_MARKUP>
<I>N</I>-[4-[[2-(4-fluorophenyl)cyclopropyl]methyl-propylamino]butyl]naphthalene-2-carboxamide;hydrochloride

> <PUBCHEM_IUPAC_NAME>
N-[4-[[2-(4-fluorophenyl)cyclopropyl]methyl-propylamino]butyl]naphthalene-2-carboxamide;hydrochloride

> <PUBCHEM_IUPAC_SYSTEMATIC_NAME>
N-[4-[[2-(4-fluorophenyl)cyclopropyl]methyl-propyl-amino]butyl]naphthalene-2-carboxamide;hydrochloride

> <PUBCHEM_IUPAC_TRADITIONAL_NAME>
N-[4-[[2-(4-fluorophenyl)cyclopropyl]methyl-propyl-amino]butyl]-2-naphthamide;hydrochloride

> <PUBCHEM_IUPAC_INCHI>
InChI=1S/C28H33FN2O.ClH/c1-2-16-31(20-25-19-27(25)22-11-13-26(29)14-12-22)17-6-5-15-30-28(32)24-10-9-21-7-3-4-8-23(21)18-24;/h3-4,7-14,18,25,27H,2,5-6,15-17,19-20H2,1H3,(H,30,32);1H

> <PUBCHEM_IUPAC_INCHIKEY>
OKUNJWKBXIZOKD-UHFFFAOYSA-N

> <PUBCHEM_EXACT_MASS>
468.2343696

> <PUBCHEM_MOLECULAR_FORMULA>
C28H34ClFN2O

> <PUBCHEM_MOLECULAR_WEIGHT>
469.0

> <PUBCHEM_OPENEYE_CAN_SMILES>
CCCN(CCCCNC(=O)C1=CC2=CC=CC=C2C=C1)CC3CC3C4=CC=C(C=C4)F.Cl

> <PUBCHEM_OPENEYE_ISO_SMILES>
CCCN(CCCCNC(=O)C1=CC2=CC=CC=C2C=C1)CC3CC3C4=CC=C(C=C4)F.Cl

> <PUBCHEM_CACTVS_TPSA>
32.3

> <PUBCHEM_MONOISOTOPIC_WEIGHT>
468.2343696

> <PUBCHEM_TOTAL_CHARGE>
0

> <PUBCHEM_HEAVY_ATOM_COUNT>
33

> <PUBCHEM_ATOM_DEF_STEREO_COUNT>
0

> <PUBCHEM_ATOM_UDEF_STEREO_COUNT>
2

> <PUBCHEM_BOND_DEF_STEREO_COUNT>
0

> <PUBCHEM_BOND_UDEF_STEREO_COUNT>
0

> <PUBCHEM_ISOTOPIC_ATOM_COUNT>
0

> <PUBCHEM_COMPONENT_COUNT>
2

> <PUBCHEM_CACTVS_TAUTO_COUNT>
-1

> <PUBCHEM_COORDINATE_TYPE>
1
5
255

> <PUBCHEM_BONDANNOTATIONS>
10  13  8
10  14  8
13  17  8
14  18  8
17  19  8
18  19  8
24  25  8
24  26  8
25  27  8
26  29  8
27  28  8
27  30  8
28  29  8
28  31  8
30  32  8
31  33  8
32  33  8
6  9  3
7  10  3

$$$$
