5025739
  -OEChem-09292322122D

 41 44  0     0  0  0  0  0  0999 V2000
    6.7619    1.0350    0.0000 N   0  0  0  0  0  0  0  0  0  0  0  0
    7.7619   -0.6970    0.0000 N   0  0  0  0  0  0  0  0  0  0  0  0
    4.6783    2.7058    0.0000 N   0  0  0  0  0  0  0  0  0  0  0  0
    4.6783    1.0963    0.0000 N   0  0  0  0  0  0  0  0  0  0  0  0
    9.2619   -1.5630    0.0000 N   0  0  0  0  0  0  0  0  0  0  0  0
    6.2619    0.1690    0.0000 C   0  0  0  0  0  0  0  0  0  0  0  0
    7.7619    1.0350    0.0000 C   0  0  0  0  0  0  0  0  0  0  0  0
    6.7619   -0.6970    0.0000 C   0  0  0  0  0  0  0  0  0  0  0  0
    8.2619    0.1690    0.0000 C   0  0  0  0  0  0  0  0  0  0  0  0
    6.2619    1.9010    0.0000 C   0  0  0  0  0  0  0  0  0  0  0  0
    5.2619    1.9010    0.0000 C   0  0  0  0  0  0  0  0  0  0  0  0
    8.2619   -1.5630    0.0000 C   0  0  0  0  0  0  0  0  0  0  0  0
    3.7320    2.4010    0.0000 C   0  0  0  0  0  0  0  0  0  0  0  0
    3.7320    1.4010    0.0000 C   0  0  0  0  0  0  0  0  0  0  0  0
    7.7619   -2.4291    0.0000 C   0  0  0  0  0  0  0  0  0  0  0  0
    2.8660    2.9010    0.0000 C   0  0  0  0  0  0  0  0  0  0  0  0
    2.8660    0.9010    0.0000 C   0  0  0  0  0  0  0  0  0  0  0  0
    8.2619   -3.2951    0.0000 C   0  0  0  0  0  0  0  0  0  0  0  0
    9.7619   -2.4291    0.0000 C   0  0  0  0  0  0  0  0  0  0  0  0
    2.0000    2.4010    0.0000 C   0  0  0  0  0  0  0  0  0  0  0  0
    2.0000    1.4010    0.0000 C   0  0  0  0  0  0  0  0  0  0  0  0
    9.2619   -3.2951    0.0000 C   0  0  0  0  0  0  0  0  0  0  0  0
    5.7869    0.5675    0.0000 H   0  0  0  0  0  0  0  0  0  0  0  0
    5.7869   -0.2295    0.0000 H   0  0  0  0  0  0  0  0  0  0  0  0
    8.3445    1.2471    0.0000 H   0  0  0  0  0  0  0  0  0  0  0  0
    7.6542    1.6456    0.0000 H   0  0  0  0  0  0  0  0  0  0  0  0
    6.1793   -0.9091    0.0000 H   0  0  0  0  0  0  0  0  0  0  0  0
    6.8695   -1.3076    0.0000 H   0  0  0  0  0  0  0  0  0  0  0  0
    8.7368   -0.2295    0.0000 H   0  0  0  0  0  0  0  0  0  0  0  0
    8.7368    0.5675    0.0000 H   0  0  0  0  0  0  0  0  0  0  0  0
    6.8445    2.1131    0.0000 H   0  0  0  0  0  0  0  0  0  0  0  0
    6.1542    2.5116    0.0000 H   0  0  0  0  0  0  0  0  0  0  0  0
    4.8709    3.2951    0.0000 H   0  0  0  0  0  0  0  0  0  0  0  0
    7.1419   -2.4291    0.0000 H   0  0  0  0  0  0  0  0  0  0  0  0
    2.8660    3.5210    0.0000 H   0  0  0  0  0  0  0  0  0  0  0  0
    2.8660    0.2810    0.0000 H   0  0  0  0  0  0  0  0  0  0  0  0
    7.9519   -3.8320    0.0000 H   0  0  0  0  0  0  0  0  0  0  0  0
   10.3819   -2.4291    0.0000 H   0  0  0  0  0  0  0  0  0  0  0  0
    1.4631    2.7110    0.0000 H   0  0  0  0  0  0  0  0  0  0  0  0
    1.4631    1.0910    0.0000 H   0  0  0  0  0  0  0  0  0  0  0  0
    9.5719   -3.8320    0.0000 H   0  0  0  0  0  0  0  0  0  0  0  0
  1  6  1  0  0  0  0
  1  7  1  0  0  0  0
  1 10  1  0  0  0  0
  2  8  1  0  0  0  0
  2  9  1  0  0  0  0
  2 12  1  0  0  0  0
  3 11  1  0  0  0  0
  3 13  1  0  0  0  0
  3 33  1  0  0  0  0
  4 11  2  0  0  0  0
  4 14  1  0  0  0  0
  5 12  1  0  0  0  0
  5 19  2  0  0  0  0
  6  8  1  0  0  0  0
  6 23  1  0  0  0  0
  6 24  1  0  0  0  0
  7  9  1  0  0  0  0
  7 25  1  0  0  0  0
  7 26  1  0  0  0  0
  8 27  1  0  0  0  0
  8 28  1  0  0  0  0
  9 29  1  0  0  0  0
  9 30  1  0  0  0  0
 10 11  1  0  0  0  0
 10 31  1  0  0  0  0
 10 32  1  0  0  0  0
 12 15  2  0  0  0  0
 13 14  1  0  0  0  0
 13 16  2  0  0  0  0
 14 17  2  0  0  0  0
 15 18  1  0  0  0  0
 15 34  1  0  0  0  0
 16 20  1  0  0  0  0
 16 35  1  0  0  0  0
 17 21  1  0  0  0  0
 17 36  1  0  0  0  0
 18 22  2  0  0  0  0
 18 37  1  0  0  0  0
 19 22  1  0  0  0  0
 19 38  1  0  0  0  0
 20 21  2  0  0  0  0
 20 39  1  0  0  0  0
 21 40  1  0  0  0  0
 22 41  1  0  0  0  0
M  END
> <PUBCHEM_COMPOUND_CID>
5025739

> <PUBCHEM_COMPOUND_CANONICALIZED>
1

> <PUBCHEM_CACTVS_COMPLEXITY>
355

> <PUBCHEM_CACTVS_HBOND_ACCEPTOR>
4

> <PUBCHEM_CACTVS_HBOND_DONOR>
1

> <PUBCHEM_CACTVS_ROTATABLE_BOND>
3

> <PUBCHEM_CACTVS_SUBSKEYS>
AAADceB7gAAAAAAAAAAAAAAAAAAAAWAAAAA8WIAAAAAAAFgB/AAAHAAQAAAACAjBFwQ98LfJkACgATZnZACCgC2xEqAJ2SA4dJiIaOLAmZGUIAhokALIyCcQAAAAAAAAAAAAACAAAAAAAAAAQAAAAAAAAA==

> <PUBCHEM_IUPAC_OPENEYE_NAME>
2-[[4-(2-pyridyl)piperazin-1-yl]methyl]-1H-benzimidazole

> <PUBCHEM_IUPAC_CAS_NAME>
2-[[4-(2-pyridinyl)-1-piperazinyl]methyl]-1H-benzimidazole

> <PUBCHEM_IUPAC_NAME_MARKUP>
2-[(4-pyridin-2-ylpiperazin-1-yl)methyl]-1<I>H</I>-benzimidazole

> <PUBCHEM_IUPAC_NAME>
2-[(4-pyridin-2-ylpiperazin-1-yl)methyl]-1H-benzimidazole

> <PUBCHEM_IUPAC_SYSTEMATIC_NAME>
2-[(4-pyridin-2-ylpiperazin-1-yl)methyl]-1H-benzimidazole

> <PUBCHEM_IUPAC_TRADITIONAL_NAME>
2-[[4-(2-pyridyl)piperazino]methyl]-1H-benzimidazole

> <PUBCHEM_IUPAC_INCHI>
InChI=1S/C17H19N5/c1-2-6-15-14(5-1)19-16(20-15)13-21-9-11-22(12-10-21)17-7-3-4-8-18-17/h1-8H,9-13H2,(H,19,20)

> <PUBCHEM_IUPAC_INCHIKEY>
FRPJGTNLZNXQEX-UHFFFAOYSA-N

> <PUBCHEM_XLOGP3_AA>
2.2

> <PUBCHEM_EXACT_MASS>
293.16404563

> <PUBCHEM_MOLECULAR_FORMULA>
C17H19N5

> <PUBCHEM_MOLECULAR_WEIGHT>
293.4

> <PUBCHEM_OPENEYE_CAN_SMILES>
C1CN(CCN1CC2=NC3=CC=CC=C3N2)C4=CC=CC=N4

> <PUBCHEM_OPENEYE_ISO_SMILES>
C1CN(CCN1CC2=NC3=CC=CC=C3N2)C4=CC=CC=N4

> <PUBCHEM_CACTVS_TPSA>
48

> <PUBCHEM_MONOISOTOPIC_WEIGHT>
293.16404563

> <PUBCHEM_TOTAL_CHARGE>
0

> <PUBCHEM_HEAVY_ATOM_COUNT>
22

> <PUBCHEM_ATOM_DEF_STEREO_COUNT>
0

> <PUBCHEM_ATOM_UDEF_STEREO_COUNT>
0

> <PUBCHEM_BOND_DEF_STEREO_COUNT>
0

> <PUBCHEM_BOND_UDEF_STEREO_COUNT>
0

> <PUBCHEM_ISOTOPIC_ATOM_COUNT>
0

> <PUBCHEM_COMPONENT_COUNT>
1

> <PUBCHEM_CACTVS_TAUTO_COUNT>
1

> <PUBCHEM_COORDINATE_TYPE>
1
5
255

> <PUBCHEM_BONDANNOTATIONS>
12  15  8
13  14  8
13  16  8
14  17  8
15  18  8
16  20  8
17  21  8
18  22  8
19  22  8
20  21  8
3  11  8
3  13  8
4  11  8
4  14  8
5  12  8
5  19  8

$$$$
