54735210
  -OEChem-09292322272D

 62 64  0     0  0  0  0  0  0999 V2000
    3.3660   -6.5880    0.0000 F   0  0  0  0  0  0  0  0  0  0  0  0
    2.0000   -6.2220    0.0000 F   0  0  0  0  0  0  0  0  0  0  0  0
    2.3660   -4.8560    0.0000 F   0  0  0  0  0  0  0  0  0  0  0  0
    8.0622    3.2780    0.0000 O   0  0  0  0  0  0  0  0  0  0  0  0
    6.3301    6.2780    0.0000 O   0  0  0  0  0  0  0  0  0  0  0  0
    4.5981   -0.7220    0.0000 N   0  0  0  0  0  0  0  0  0  0  0  0
    4.5981   -2.7220    0.0000 N   0  0  0  0  0  0  0  0  0  0  0  0
    5.4641   -4.2220    0.0000 N   0  0  0  0  0  0  0  0  0  0  0  0
    6.3301    3.2780    0.0000 N   0  0  0  0  0  0  0  0  0  0  0  0
    4.5981   -5.7220    0.0000 N   0  0  0  0  0  0  0  0  0  0  0  0
    5.4641   -1.2220    0.0000 C   0  0  0  0  0  0  0  0  0  0  0  0
    3.7320   -1.2220    0.0000 C   0  0  0  0  0  0  0  0  0  0  0  0
    5.4641   -2.2220    0.0000 C   0  0  0  0  0  0  0  0  0  0  0  0
    3.7320   -2.2220    0.0000 C   0  0  0  0  0  0  0  0  0  0  0  0
    4.5981    0.2780    0.0000 C   0  0  0  0  0  0  0  0  0  0  0  0
    5.4641    0.7780    0.0000 C   0  0  0  0  0  0  0  0  0  0  0  0
    4.5981   -3.7220    0.0000 C   0  0  0  0  0  0  0  0  0  0  0  0
    5.4641    1.7780    0.0000 C   0  0  0  0  0  0  0  0  0  0  0  0
    6.3301   -5.7220    0.0000 C   0  0  0  0  0  0  0  0  0  0  0  0
    6.3301    2.2780    0.0000 C   0  0  0  0  0  0  0  0  0  0  0  0
    5.4641   -5.2220    0.0000 C   0  0  0  0  0  0  0  0  0  0  0  0
    3.7320   -4.2220    0.0000 C   0  0  0  0  0  0  0  0  0  0  0  0
    3.7320   -5.2220    0.0000 C   0  0  0  0  0  0  0  0  0  0  0  0
    7.1962   -6.2220    0.0000 C   0  0  0  0  0  0  0  0  0  0  0  0
    5.8301   -6.5880    0.0000 C   0  0  0  0  0  0  0  0  0  0  0  0
    6.8301   -4.8560    0.0000 C   0  0  0  0  0  0  0  0  0  0  0  0
    2.8660   -5.7220    0.0000 C   0  0  0  0  0  0  0  0  0  0  0  0
    7.1962    3.7780    0.0000 C   0  0  0  0  0  0  0  0  0  0  0  0
    5.4641    3.7780    0.0000 C   0  0  0  0  0  0  0  0  0  0  0  0
    7.1962    4.7780    0.0000 C   0  0  0  0  0  0  0  0  0  0  0  0
    5.4641    4.7780    0.0000 C   0  0  0  0  0  0  0  0  0  0  0  0
    6.3301    5.2780    0.0000 C   0  0  0  0  0  0  0  0  0  0  0  0
    6.0747   -1.3296    0.0000 H   0  0  0  0  0  0  0  0  0  0  0  0
    5.6762   -0.6394    0.0000 H   0  0  0  0  0  0  0  0  0  0  0  0
    3.5200   -0.6394    0.0000 H   0  0  0  0  0  0  0  0  0  0  0  0
    3.1215   -1.3296    0.0000 H   0  0  0  0  0  0  0  0  0  0  0  0
    5.6762   -2.8046    0.0000 H   0  0  0  0  0  0  0  0  0  0  0  0
    6.0747   -2.1143    0.0000 H   0  0  0  0  0  0  0  0  0  0  0  0
    3.1215   -2.1143    0.0000 H   0  0  0  0  0  0  0  0  0  0  0  0
    3.5200   -2.8046    0.0000 H   0  0  0  0  0  0  0  0  0  0  0  0
    4.3860    0.8606    0.0000 H   0  0  0  0  0  0  0  0  0  0  0  0
    3.9875    0.1704    0.0000 H   0  0  0  0  0  0  0  0  0  0  0  0
    5.6762    0.1954    0.0000 H   0  0  0  0  0  0  0  0  0  0  0  0
    6.0747    0.8857    0.0000 H   0  0  0  0  0  0  0  0  0  0  0  0
    5.2520    2.3606    0.0000 H   0  0  0  0  0  0  0  0  0  0  0  0
    4.8535    1.6704    0.0000 H   0  0  0  0  0  0  0  0  0  0  0  0
    6.5422    1.6954    0.0000 H   0  0  0  0  0  0  0  0  0  0  0  0
    6.9407    2.3857    0.0000 H   0  0  0  0  0  0  0  0  0  0  0  0
    3.1951   -3.9120    0.0000 H   0  0  0  0  0  0  0  0  0  0  0  0
    6.8862   -6.7589    0.0000 H   0  0  0  0  0  0  0  0  0  0  0  0
    7.7331   -6.5320    0.0000 H   0  0  0  0  0  0  0  0  0  0  0  0
    7.5062   -5.6851    0.0000 H   0  0  0  0  0  0  0  0  0  0  0  0
    5.2932   -6.2780    0.0000 H   0  0  0  0  0  0  0  0  0  0  0  0
    5.5201   -7.1250    0.0000 H   0  0  0  0  0  0  0  0  0  0  0  0
    6.3671   -6.8980    0.0000 H   0  0  0  0  0  0  0  0  0  0  0  0
    7.3671   -5.1660    0.0000 H   0  0  0  0  0  0  0  0  0  0  0  0
    7.1401   -4.3190    0.0000 H   0  0  0  0  0  0  0  0  0  0  0  0
    6.2932   -4.5460    0.0000 H   0  0  0  0  0  0  0  0  0  0  0  0
    4.9272    3.4680    0.0000 H   0  0  0  0  0  0  0  0  0  0  0  0
    7.7331    5.0880    0.0000 H   0  0  0  0  0  0  0  0  0  0  0  0
    4.9272    5.0880    0.0000 H   0  0  0  0  0  0  0  0  0  0  0  0
    5.7932    6.5880    0.0000 H   0  0  0  0  0  0  0  0  0  0  0  0
  1 27  1  0  0  0  0
  2 27  1  0  0  0  0
  3 27  1  0  0  0  0
  4 28  2  0  0  0  0
  5 32  1  0  0  0  0
  5 62  1  0  0  0  0
  6 11  1  0  0  0  0
  6 12  1  0  0  0  0
  6 15  1  0  0  0  0
  7 13  1  0  0  0  0
  7 14  1  0  0  0  0
  7 17  1  0  0  0  0
  8 17  2  0  0  0  0
  8 21  1  0  0  0  0
  9 20  1  0  0  0  0
  9 28  1  0  0  0  0
  9 29  1  0  0  0  0
 10 21  2  0  0  0  0
 10 23  1  0  0  0  0
 11 13  1  0  0  0  0
 11 33  1  0  0  0  0
 11 34  1  0  0  0  0
 12 14  1  0  0  0  0
 12 35  1  0  0  0  0
 12 36  1  0  0  0  0
 13 37  1  0  0  0  0
 13 38  1  0  0  0  0
 14 39  1  0  0  0  0
 14 40  1  0  0  0  0
 15 16  1  0  0  0  0
 15 41  1  0  0  0  0
 15 42  1  0  0  0  0
 16 18  1  0  0  0  0
 16 43  1  0  0  0  0
 16 44  1  0  0  0  0
 17 22  1  0  0  0  0
 18 20  1  0  0  0  0
 18 45  1  0  0  0  0
 18 46  1  0  0  0  0
 19 21  1  0  0  0  0
 19 24  1  0  0  0  0
 19 25  1  0  0  0  0
 19 26  1  0  0  0  0
 20 47  1  0  0  0  0
 20 48  1  0  0  0  0
 22 23  2  0  0  0  0
 22 49  1  0  0  0  0
 23 27  1  0  0  0  0
 24 50  1  0  0  0  0
 24 51  1  0  0  0  0
 24 52  1  0  0  0  0
 25 53  1  0  0  0  0
 25 54  1  0  0  0  0
 25 55  1  0  0  0  0
 26 56  1  0  0  0  0
 26 57  1  0  0  0  0
 26 58  1  0  0  0  0
 28 30  1  0  0  0  0
 29 31  2  0  0  0  0
 29 59  1  0  0  0  0
 30 32  2  0  0  0  0
 30 60  1  0  0  0  0
 31 32  1  0  0  0  0
 31 61  1  0  0  0  0
M  END
> <PUBCHEM_COMPOUND_CID>
54735210

> <PUBCHEM_COMPOUND_CANONICALIZED>
1

> <PUBCHEM_CACTVS_COMPLEXITY>
711

> <PUBCHEM_CACTVS_HBOND_ACCEPTOR>
9

> <PUBCHEM_CACTVS_HBOND_DONOR>
1

> <PUBCHEM_CACTVS_ROTATABLE_BOND>
7

> <PUBCHEM_CACTVS_SUBSKEYS>
AAADceB7sYAAAAAAAAAAAAAAAAAAAAAAAAAsWIAAAAAAAAABgAAAHwAACAAADgzBlxQzsJcIEgCoASd2dACAgCkhIqAJGCA4ZFiIbABAycAUBAhIBgLA0SAAAAAAAAAAAAAAAAAAAAAAAAAAAAAAAAAAAA==

> <PUBCHEM_IUPAC_OPENEYE_NAME>
1-[4-[4-[2-tert-butyl-6-(trifluoromethyl)pyrimidin-4-yl]piperazin-1-yl]butyl]-4-hydroxy-pyridin-2-one

> <PUBCHEM_IUPAC_CAS_NAME>
1-[4-[4-[2-tert-butyl-6-(trifluoromethyl)-4-pyrimidinyl]-1-piperazinyl]butyl]-4-hydroxy-2-pyridinone

> <PUBCHEM_IUPAC_NAME_MARKUP>
1-[4-[4-[2-<I>tert</I>-butyl-6-(trifluoromethyl)pyrimidin-4-yl]piperazin-1-yl]butyl]-4-hydroxypyridin-2-one

> <PUBCHEM_IUPAC_NAME>
1-[4-[4-[2-tert-butyl-6-(trifluoromethyl)pyrimidin-4-yl]piperazin-1-yl]butyl]-4-hydroxypyridin-2-one

> <PUBCHEM_IUPAC_SYSTEMATIC_NAME>
1-[4-[4-[2-tert-butyl-6-(trifluoromethyl)pyrimidin-4-yl]piperazin-1-yl]butyl]-4-oxidanyl-pyridin-2-one

> <PUBCHEM_IUPAC_TRADITIONAL_NAME>
1-[4-[4-[2-tert-butyl-6-(trifluoromethyl)pyrimidin-4-yl]piperazino]butyl]-4-hydroxy-2-pyridone

> <PUBCHEM_IUPAC_INCHI>
InChI=1S/C22H30F3N5O2/c1-21(2,3)20-26-17(22(23,24)25)15-18(27-20)29-12-10-28(11-13-29)7-4-5-8-30-9-6-16(31)14-19(30)32/h6,9,14-15,31H,4-5,7-8,10-13H2,1-3H3

> <PUBCHEM_IUPAC_INCHIKEY>
OUPQTELARLPZBM-UHFFFAOYSA-N

> <PUBCHEM_XLOGP3_AA>
3.3

> <PUBCHEM_EXACT_MASS>
453.23515970

> <PUBCHEM_MOLECULAR_FORMULA>
C22H30F3N5O2

> <PUBCHEM_MOLECULAR_WEIGHT>
453.5

> <PUBCHEM_OPENEYE_CAN_SMILES>
CC(C)(C)C1=NC(=CC(=N1)N2CCN(CC2)CCCCN3C=CC(=CC3=O)O)C(F)(F)F

> <PUBCHEM_OPENEYE_ISO_SMILES>
CC(C)(C)C1=NC(=CC(=N1)N2CCN(CC2)CCCCN3C=CC(=CC3=O)O)C(F)(F)F

> <PUBCHEM_CACTVS_TPSA>
72.8

> <PUBCHEM_MONOISOTOPIC_WEIGHT>
453.23515970

> <PUBCHEM_TOTAL_CHARGE>
0

> <PUBCHEM_HEAVY_ATOM_COUNT>
32

> <PUBCHEM_ATOM_DEF_STEREO_COUNT>
0

> <PUBCHEM_ATOM_UDEF_STEREO_COUNT>
0

> <PUBCHEM_BOND_DEF_STEREO_COUNT>
0

> <PUBCHEM_BOND_UDEF_STEREO_COUNT>
0

> <PUBCHEM_ISOTOPIC_ATOM_COUNT>
0

> <PUBCHEM_COMPONENT_COUNT>
1

> <PUBCHEM_CACTVS_TAUTO_COUNT>
-1

> <PUBCHEM_COORDINATE_TYPE>
1
5
255

> <PUBCHEM_BONDANNOTATIONS>
10  21  8
10  23  8
17  22  8
22  23  8
28  30  8
29  31  8
30  32  8
31  32  8
8  17  8
8  21  8
9  28  8
9  29  8

$$$$
