53362841
  -OEChem-09292322322D

 59 63  0     1  0  0  0  0  0999 V2000
    4.5574    0.2591    0.0000 O   0  0  0  0  0  0  0  0  0  0  0  0
    2.8255    0.2791    0.0000 O   0  0  0  0  0  0  0  0  0  0  0  0
    8.0301   -2.7724    0.0000 N   0  0  3  0  0  0  0  0  0  0  0  0
    3.7088    1.7690    0.0000 N   0  0  0  0  0  0  0  0  0  0  0  0
    7.1719   -2.2755    0.0000 C   0  0  3  0  0  0  0  0  0  0  0  0
    7.1719   -1.2755    0.0000 C   0  0  0  0  0  0  0  0  0  0  0  0
    6.3058   -2.7755    0.0000 C   0  0  0  0  0  0  0  0  0  0  0  0
    8.8956   -2.2883    0.0000 C   0  0  0  0  0  0  0  0  0  0  0  0
    8.0819   -0.7687    0.0000 C   0  0  0  0  0  0  0  0  0  0  0  0
    8.9212   -1.2969    0.0000 C   0  0  0  0  0  0  0  0  0  0  0  0
    6.3058   -0.7755    0.0000 C   0  0  0  0  0  0  0  0  0  0  0  0
    5.4398   -2.2755    0.0000 C   0  0  0  0  0  0  0  0  0  0  0  0
    8.0227   -3.7724    0.0000 C   0  0  0  0  0  0  0  0  0  0  0  0
    5.4398   -1.2755    0.0000 C   0  0  0  0  0  0  0  0  0  0  0  0
    8.0899    0.2729    0.0000 C   0  0  0  0  0  0  0  0  0  0  0  0
    6.2898    0.2660    0.0000 C   0  0  0  0  0  0  0  0  0  0  0  0
    8.8850   -4.2788    0.0000 C   0  0  0  0  0  0  0  0  0  0  0  0
    4.5459   -2.8102    0.0000 C   0  0  0  0  0  0  0  0  0  0  0  0
    4.5459   -0.7408    0.0000 C   0  0  0  0  0  0  0  0  0  0  0  0
    7.1878    0.7938    0.0000 C   0  0  0  0  0  0  0  0  0  0  0  0
    3.6398   -2.2963    0.0000 C   0  0  0  0  0  0  0  0  0  0  0  0
    3.6398   -1.2547    0.0000 C   0  0  0  0  0  0  0  0  0  0  0  0
    8.8776   -5.2788    0.0000 C   0  0  0  0  0  0  0  0  0  0  0  0
    3.6972    0.7691    0.0000 C   0  0  0  0  0  0  0  0  0  0  0  0
    2.8486    2.2790    0.0000 C   0  0  0  0  0  0  0  0  0  0  0  0
    2.8602    3.2789    0.0000 C   0  0  0  0  0  0  0  0  0  0  0  0
    3.7319    3.7689    0.0000 C   0  0  0  0  0  0  0  0  0  0  0  0
    2.0000    3.7889    0.0000 C   0  0  0  0  0  0  0  0  0  0  0  0
    3.7435    4.7688    0.0000 C   0  0  0  0  0  0  0  0  0  0  0  0
    2.0116    4.7888    0.0000 C   0  0  0  0  0  0  0  0  0  0  0  0
    2.8833    5.2788    0.0000 C   0  0  0  0  0  0  0  0  0  0  0  0
    7.1715   -2.8955    0.0000 H   0  0  0  0  0  0  0  0  0  0  0  0
    5.9073   -3.2505    0.0000 H   0  0  0  0  0  0  0  0  0  0  0  0
    6.7044   -3.2505    0.0000 H   0  0  0  0  0  0  0  0  0  0  0  0
    9.0973   -2.8745    0.0000 H   0  0  0  0  0  0  0  0  0  0  0  0
    9.5083   -2.1939    0.0000 H   0  0  0  0  0  0  0  0  0  0  0  0
    9.5283   -1.4228    0.0000 H   0  0  0  0  0  0  0  0  0  0  0  0
    9.1529   -0.7218    0.0000 H   0  0  0  0  0  0  0  0  0  0  0  0
    7.4129   -3.6602    0.0000 H   0  0  0  0  0  0  0  0  0  0  0  0
    7.8063   -4.3534    0.0000 H   0  0  0  0  0  0  0  0  0  0  0  0
    8.6280    0.5809    0.0000 H   0  0  0  0  0  0  0  0  0  0  0  0
    5.7493    0.5698    0.0000 H   0  0  0  0  0  0  0  0  0  0  0  0
    9.4948   -4.3910    0.0000 H   0  0  0  0  0  0  0  0  0  0  0  0
    9.1013   -3.6978    0.0000 H   0  0  0  0  0  0  0  0  0  0  0  0
    4.5530   -3.4301    0.0000 H   0  0  0  0  0  0  0  0  0  0  0  0
    7.1854    1.4138    0.0000 H   0  0  0  0  0  0  0  0  0  0  0  0
    3.1041   -2.6084    0.0000 H   0  0  0  0  0  0  0  0  0  0  0  0
    3.1041   -0.9426    0.0000 H   0  0  0  0  0  0  0  0  0  0  0  0
    8.2576   -5.2742    0.0000 H   0  0  0  0  0  0  0  0  0  0  0  0
    8.8730   -5.8988    0.0000 H   0  0  0  0  0  0  0  0  0  0  0  0
    9.4976   -5.2834    0.0000 H   0  0  0  0  0  0  0  0  0  0  0  0
    4.2493    2.0728    0.0000 H   0  0  0  0  0  0  0  0  0  0  0  0
    2.2393    2.3937    0.0000 H   0  0  0  0  0  0  0  0  0  0  0  0
    2.6298    1.6989    0.0000 H   0  0  0  0  0  0  0  0  0  0  0  0
    4.2652    3.4527    0.0000 H   0  0  0  0  0  0  0  0  0  0  0  0
    1.4595    3.4851    0.0000 H   0  0  0  0  0  0  0  0  0  0  0  0
    4.2840    5.0726    0.0000 H   0  0  0  0  0  0  0  0  0  0  0  0
    1.4782    5.1050    0.0000 H   0  0  0  0  0  0  0  0  0  0  0  0
    2.8905    5.8987    0.0000 H   0  0  0  0  0  0  0  0  0  0  0  0
  1 19  1  0  0  0  0
  1 24  1  0  0  0  0
  2 24  2  0  0  0  0
  3  5  1  0  0  0  0
  3  8  1  0  0  0  0
  3 13  1  0  0  0  0
  4 24  1  0  0  0  0
  4 25  1  0  0  0  0
  4 52  1  0  0  0  0
  5  6  1  0  0  0  0
  5  7  1  0  0  0  0
  5 32  1  0  0  0  0
  6  9  2  0  0  0  0
  6 11  1  0  0  0  0
  7 12  1  0  0  0  0
  7 33  1  0  0  0  0
  7 34  1  0  0  0  0
  8 10  1  0  0  0  0
  8 35  1  0  0  0  0
  8 36  1  0  0  0  0
  9 10  1  0  0  0  0
  9 15  1  0  0  0  0
 10 37  1  0  0  0  0
 10 38  1  0  0  0  0
 11 14  1  0  0  0  0
 11 16  2  0  0  0  0
 12 14  2  0  0  0  0
 12 18  1  0  0  0  0
 13 17  1  0  0  0  0
 13 39  1  0  0  0  0
 13 40  1  0  0  0  0
 14 19  1  0  0  0  0
 15 20  2  0  0  0  0
 15 41  1  0  0  0  0
 16 20  1  0  0  0  0
 16 42  1  0  0  0  0
 17 23  1  0  0  0  0
 17 43  1  0  0  0  0
 17 44  1  0  0  0  0
 18 21  2  0  0  0  0
 18 45  1  0  0  0  0
 19 22  2  0  0  0  0
 20 46  1  0  0  0  0
 21 22  1  0  0  0  0
 21 47  1  0  0  0  0
 22 48  1  0  0  0  0
 23 49  1  0  0  0  0
 23 50  1  0  0  0  0
 23 51  1  0  0  0  0
 25 26  1  0  0  0  0
 25 53  1  0  0  0  0
 25 54  1  0  0  0  0
 26 27  2  0  0  0  0
 26 28  1  0  0  0  0
 27 29  1  0  0  0  0
 27 55  1  0  0  0  0
 28 30  2  0  0  0  0
 28 56  1  0  0  0  0
 29 31  2  0  0  0  0
 29 57  1  0  0  0  0
 30 31  1  0  0  0  0
 30 58  1  0  0  0  0
 31 59  1  0  0  0  0
M  END
> <PUBCHEM_COMPOUND_CID>
53362841

> <PUBCHEM_COMPOUND_CANONICALIZED>
1

> <PUBCHEM_CACTVS_COMPLEXITY>
604

> <PUBCHEM_CACTVS_HBOND_ACCEPTOR>
3

> <PUBCHEM_CACTVS_HBOND_DONOR>
1

> <PUBCHEM_CACTVS_ROTATABLE_BOND>
6

> <PUBCHEM_CACTVS_SUBSKEYS>
AAADceB7MAAAAAAAAAAAAAAAAAAAAAAAAAA8YMGCAAAAAADxUAAAHgAQAAAADCzBmAQyDoPABACIAiBCGACCCAAgIAAIiIAODIkMJiKEsRuMMihkxhGIqAeQ0PMOgAADAAAYAACQAAaAADQAAAAAAAAAAA==

> <PUBCHEM_IUPAC_OPENEYE_NAME>
(6-propyl-5,6,6a,7-tetrahydro-4H-dibenzo[de,g]quinolin-11-yl) N-benzylcarbamate

> <PUBCHEM_IUPAC_CAS_NAME>
N-(phenylmethyl)carbamic acid (6-propyl-5,6,6a,7-tetrahydro-4H-dibenzo[de,g]quinolin-11-yl) ester

> <PUBCHEM_IUPAC_NAME_MARKUP>
(6-propyl-5,6,6<I>a</I>,7-tetrahydro-4<I>H</I>-dibenzo[de,g]quinolin-11-yl) <I>N</I>-benzylcarbamate

> <PUBCHEM_IUPAC_NAME>
(6-propyl-5,6,6a,7-tetrahydro-4H-dibenzo[de,g]quinolin-11-yl) N-benzylcarbamate

> <PUBCHEM_IUPAC_SYSTEMATIC_NAME>
(6-propyl-5,6,6a,7-tetrahydro-4H-dibenzo[de,g]quinolin-11-yl) N-(phenylmethyl)carbamate

> <PUBCHEM_IUPAC_TRADITIONAL_NAME>
N-benzylcarbamic acid (6-propyl-5,6,6a,7-tetrahydro-4H-dibenzo[de,g]quinolin-11-yl) ester

> <PUBCHEM_IUPAC_INCHI>
InChI=1S/C27H28N2O2/c1-2-15-29-16-14-20-10-6-12-22-25(20)23(29)17-21-11-7-13-24(26(21)22)31-27(30)28-18-19-8-4-3-5-9-19/h3-13,23H,2,14-18H2,1H3,(H,28,30)

> <PUBCHEM_IUPAC_INCHIKEY>
KLYJLIQACDTALL-UHFFFAOYSA-N

> <PUBCHEM_XLOGP3_AA>
5.5

> <PUBCHEM_EXACT_MASS>
412.215078140

> <PUBCHEM_MOLECULAR_FORMULA>
C27H28N2O2

> <PUBCHEM_MOLECULAR_WEIGHT>
412.5

> <PUBCHEM_OPENEYE_CAN_SMILES>
CCCN1CCC2=C3C1CC4=C(C3=CC=C2)C(=CC=C4)OC(=O)NCC5=CC=CC=C5

> <PUBCHEM_OPENEYE_ISO_SMILES>
CCCN1CCC2=C3C1CC4=C(C3=CC=C2)C(=CC=C4)OC(=O)NCC5=CC=CC=C5

> <PUBCHEM_CACTVS_TPSA>
41.6

> <PUBCHEM_MONOISOTOPIC_WEIGHT>
412.215078140

> <PUBCHEM_TOTAL_CHARGE>
0

> <PUBCHEM_HEAVY_ATOM_COUNT>
31

> <PUBCHEM_ATOM_DEF_STEREO_COUNT>
0

> <PUBCHEM_ATOM_UDEF_STEREO_COUNT>
1

> <PUBCHEM_BOND_DEF_STEREO_COUNT>
0

> <PUBCHEM_BOND_UDEF_STEREO_COUNT>
0

> <PUBCHEM_ISOTOPIC_ATOM_COUNT>
0

> <PUBCHEM_COMPONENT_COUNT>
1

> <PUBCHEM_CACTVS_TAUTO_COUNT>
-1

> <PUBCHEM_COORDINATE_TYPE>
1
5
255

> <PUBCHEM_BONDANNOTATIONS>
11  16  8
12  14  8
12  18  8
14  19  8
15  20  8
16  20  8
18  21  8
19  22  8
21  22  8
26  27  8
26  28  8
27  29  8
28  30  8
29  31  8
30  31  8
5  7  3
6  11  8
6  9  8
9  15  8

$$$$
