66800910
  -OEChem-09292322472D

 53 56  0     0  0  0  0  0  0999 V2000
   10.3438    3.5037    0.0000 S   0  0  0  0  0  0  0  0  0  0  0  0
   12.0643    3.0395    0.0000 S   0  0  0  0  0  0  0  0  0  0  0  0
    2.0000   -4.6228    0.0000 F   0  0  0  0  0  0  0  0  0  0  0  0
    5.5443   -4.4275    0.0000 O   0  0  0  0  0  0  0  0  0  0  0  0
   10.1376    4.4822    0.0000 O   0  0  0  0  0  0  0  0  0  0  0  0
   10.5500    2.5252    0.0000 O   0  0  0  0  0  0  0  0  0  0  0  0
    6.4763    0.0335    0.0000 N   0  0  0  0  0  0  0  0  0  0  0  0
    6.1279   -3.6228    0.0000 N   0  0  0  0  0  0  0  0  0  0  0  0
    9.3653    3.2975    0.0000 N   0  0  0  0  0  0  0  0  0  0  0  0
    5.8550   -1.8675    0.0000 C   0  0  0  0  0  0  0  0  0  0  0  0
    5.1871   -1.1232    0.0000 C   0  0  0  0  0  0  0  0  0  0  0  0
    6.8335   -1.6613    0.0000 C   0  0  0  0  0  0  0  0  0  0  0  0
    5.4978   -0.1727    0.0000 C   0  0  0  0  0  0  0  0  0  0  0  0
    7.1441   -0.7108    0.0000 C   0  0  0  0  0  0  0  0  0  0  0  0
    6.7870    0.9840    0.0000 C   0  0  0  0  0  0  0  0  0  0  0  0
    5.5443   -2.8180    0.0000 C   0  0  0  0  0  0  0  0  0  0  0  0
    7.7654    1.1902    0.0000 C   0  0  0  0  0  0  0  0  0  0  0  0
    4.5981   -3.1228    0.0000 C   0  0  0  0  0  0  0  0  0  0  0  0
    8.0761    2.1408    0.0000 C   0  0  0  0  0  0  0  0  0  0  0  0
    4.5981   -4.1228    0.0000 C   0  0  0  0  0  0  0  0  0  0  0  0
    9.0546    2.3470    0.0000 C   0  0  0  0  0  0  0  0  0  0  0  0
    3.7320   -2.6228    0.0000 C   0  0  0  0  0  0  0  0  0  0  0  0
    3.7320   -4.6228    0.0000 C   0  0  0  0  0  0  0  0  0  0  0  0
    2.8660   -3.1228    0.0000 C   0  0  0  0  0  0  0  0  0  0  0  0
    2.8660   -4.1228    0.0000 C   0  0  0  0  0  0  0  0  0  0  0  0
   11.3223    3.7099    0.0000 C   0  0  0  0  0  0  0  0  0  0  0  0
   11.7306    4.6228    0.0000 C   0  0  0  0  0  0  0  0  0  0  0  0
   12.7249    4.5165    0.0000 C   0  0  0  0  0  0  0  0  0  0  0  0
   12.9312    3.5380    0.0000 C   0  0  0  0  0  0  0  0  0  0  0  0
    6.2690   -2.3290    0.0000 H   0  0  0  0  0  0  0  0  0  0  0  0
    4.6402   -0.8312    0.0000 H   0  0  0  0  0  0  0  0  0  0  0  0
    4.8046   -1.6111    0.0000 H   0  0  0  0  0  0  0  0  0  0  0  0
    6.8540   -2.2810    0.0000 H   0  0  0  0  0  0  0  0  0  0  0  0
    7.4473   -1.7487    0.0000 H   0  0  0  0  0  0  0  0  0  0  0  0
    5.4772    0.4469    0.0000 H   0  0  0  0  0  0  0  0  0  0  0  0
    4.8840   -0.0854    0.0000 H   0  0  0  0  0  0  0  0  0  0  0  0
    7.6910   -1.0028    0.0000 H   0  0  0  0  0  0  0  0  0  0  0  0
    7.5267   -0.2229    0.0000 H   0  0  0  0  0  0  0  0  0  0  0  0
    6.7664    1.6037    0.0000 H   0  0  0  0  0  0  0  0  0  0  0  0
    6.1731    1.0714    0.0000 H   0  0  0  0  0  0  0  0  0  0  0  0
    7.7860    0.5706    0.0000 H   0  0  0  0  0  0  0  0  0  0  0  0
    8.3793    1.1029    0.0000 H   0  0  0  0  0  0  0  0  0  0  0  0
    8.0556    2.7604    0.0000 H   0  0  0  0  0  0  0  0  0  0  0  0
    7.4623    2.2281    0.0000 H   0  0  0  0  0  0  0  0  0  0  0  0
    9.0752    1.7273    0.0000 H   0  0  0  0  0  0  0  0  0  0  0  0
    9.6684    2.2596    0.0000 H   0  0  0  0  0  0  0  0  0  0  0  0
    3.7320   -2.0028    0.0000 H   0  0  0  0  0  0  0  0  0  0  0  0
    8.9512    3.7590    0.0000 H   0  0  0  0  0  0  0  0  0  0  0  0
    3.7320   -5.2428    0.0000 H   0  0  0  0  0  0  0  0  0  0  0  0
    2.3291   -2.8128    0.0000 H   0  0  0  0  0  0  0  0  0  0  0  0
   11.4215    5.1603    0.0000 H   0  0  0  0  0  0  0  0  0  0  0  0
   13.1406    4.9766    0.0000 H   0  0  0  0  0  0  0  0  0  0  0  0
   13.4971    3.2849    0.0000 H   0  0  0  0  0  0  0  0  0  0  0  0
  1  5  2  0  0  0  0
  1  6  2  0  0  0  0
  1  9  1  0  0  0  0
  1 26  1  0  0  0  0
  2 26  1  0  0  0  0
  2 29  1  0  0  0  0
  3 25  1  0  0  0  0
  4  8  1  0  0  0  0
  4 20  1  0  0  0  0
  7 13  1  0  0  0  0
  7 14  1  0  0  0  0
  7 15  1  0  0  0  0
  8 16  2  0  0  0  0
  9 21  1  0  0  0  0
  9 48  1  0  0  0  0
 10 11  1  0  0  0  0
 10 12  1  0  0  0  0
 10 16  1  0  0  0  0
 10 30  1  0  0  0  0
 11 13  1  0  0  0  0
 11 31  1  0  0  0  0
 11 32  1  0  0  0  0
 12 14  1  0  0  0  0
 12 33  1  0  0  0  0
 12 34  1  0  0  0  0
 13 35  1  0  0  0  0
 13 36  1  0  0  0  0
 14 37  1  0  0  0  0
 14 38  1  0  0  0  0
 15 17  1  0  0  0  0
 15 39  1  0  0  0  0
 15 40  1  0  0  0  0
 16 18  1  0  0  0  0
 17 19  1  0  0  0  0
 17 41  1  0  0  0  0
 17 42  1  0  0  0  0
 18 20  2  0  0  0  0
 18 22  1  0  0  0  0
 19 21  1  0  0  0  0
 19 43  1  0  0  0  0
 19 44  1  0  0  0  0
 20 23  1  0  0  0  0
 21 45  1  0  0  0  0
 21 46  1  0  0  0  0
 22 24  2  0  0  0  0
 22 47  1  0  0  0  0
 23 25  2  0  0  0  0
 23 49  1  0  0  0  0
 24 25  1  0  0  0  0
 24 50  1  0  0  0  0
 26 27  2  0  0  0  0
 27 28  1  0  0  0  0
 27 51  1  0  0  0  0
 28 29  2  0  0  0  0
 28 52  1  0  0  0  0
 29 53  1  0  0  0  0
M  END
> <PUBCHEM_COMPOUND_CID>
66800910

> <PUBCHEM_COMPOUND_CANONICALIZED>
1

> <PUBCHEM_CACTVS_COMPLEXITY>
625

> <PUBCHEM_CACTVS_HBOND_ACCEPTOR>
8

> <PUBCHEM_CACTVS_HBOND_DONOR>
1

> <PUBCHEM_CACTVS_ROTATABLE_BOND>
8

> <PUBCHEM_CACTVS_SUBSKEYS>
AAADceB7MQBgAAAAAAAAAAAAAAAAAWJAAAA8QAAAAAAAAFgB/AAAHwQUQAAADQzF3gywh9NQAAqtA6RyQnDDAZAkKBBomLk+TNoIJrqglZOEMYBm0BmoyceYyOCOAAAAAAAIAAAAAAAAABAAAAAAAAAAAA==

> <PUBCHEM_IUPAC_OPENEYE_NAME>
N-[4-[4-(6-fluoro-1,2-benzoxazol-3-yl)-1-piperidyl]butyl]thiophene-2-sulfonamide

> <PUBCHEM_IUPAC_CAS_NAME>
N-[4-[4-(6-fluoro-1,2-benzoxazol-3-yl)-1-piperidinyl]butyl]-2-thiophenesulfonamide

> <PUBCHEM_IUPAC_NAME_MARKUP>
<I>N</I>-[4-[4-(6-fluoro-1,2-benzoxazol-3-yl)piperidin-1-yl]butyl]thiophene-2-sulfonamide

> <PUBCHEM_IUPAC_NAME>
N-[4-[4-(6-fluoro-1,2-benzoxazol-3-yl)piperidin-1-yl]butyl]thiophene-2-sulfonamide

> <PUBCHEM_IUPAC_SYSTEMATIC_NAME>
N-[4-[4-(6-fluoranyl-1,2-benzoxazol-3-yl)piperidin-1-yl]butyl]thiophene-2-sulfonamide

> <PUBCHEM_IUPAC_TRADITIONAL_NAME>
N-[4-[4-(6-fluoroindoxazen-3-yl)piperidino]butyl]thiophene-2-sulfonamide

> <PUBCHEM_IUPAC_INCHI>
InChI=1S/C20H24FN3O3S2/c21-16-5-6-17-18(14-16)27-23-20(17)15-7-11-24(12-8-15)10-2-1-9-22-29(25,26)19-4-3-13-28-19/h3-6,13-15,22H,1-2,7-12H2

> <PUBCHEM_IUPAC_INCHIKEY>
BDBDYFWUCQEXEB-UHFFFAOYSA-N

> <PUBCHEM_XLOGP3_AA>
3.8

> <PUBCHEM_EXACT_MASS>
437.12431215

> <PUBCHEM_MOLECULAR_FORMULA>
C20H24FN3O3S2

> <PUBCHEM_MOLECULAR_WEIGHT>
437.6

> <PUBCHEM_OPENEYE_CAN_SMILES>
C1CN(CCC1C2=NOC3=C2C=CC(=C3)F)CCCCNS(=O)(=O)C4=CC=CS4

> <PUBCHEM_OPENEYE_ISO_SMILES>
C1CN(CCC1C2=NOC3=C2C=CC(=C3)F)CCCCNS(=O)(=O)C4=CC=CS4

> <PUBCHEM_CACTVS_TPSA>
112

> <PUBCHEM_MONOISOTOPIC_WEIGHT>
437.12431215

> <PUBCHEM_TOTAL_CHARGE>
0

> <PUBCHEM_HEAVY_ATOM_COUNT>
29

> <PUBCHEM_ATOM_DEF_STEREO_COUNT>
0

> <PUBCHEM_ATOM_UDEF_STEREO_COUNT>
0

> <PUBCHEM_BOND_DEF_STEREO_COUNT>
0

> <PUBCHEM_BOND_UDEF_STEREO_COUNT>
0

> <PUBCHEM_ISOTOPIC_ATOM_COUNT>
0

> <PUBCHEM_COMPONENT_COUNT>
1

> <PUBCHEM_CACTVS_TAUTO_COUNT>
-1

> <PUBCHEM_COORDINATE_TYPE>
1
5
255

> <PUBCHEM_BONDANNOTATIONS>
16  18  8
18  20  8
18  22  8
2  26  8
2  29  8
20  23  8
22  24  8
23  25  8
24  25  8
26  27  8
27  28  8
28  29  8
4  20  8
4  8  8
8  16  8

$$$$
