164617626
  -OEChem-09292322432D

 48 50  0     0  0  0  0  0  0999 V2000
    2.0000   -1.3450    0.0000 O   0  0  0  0  0  0  0  0  0  0  0  0
    4.5981    1.1550    0.0000 N   0  0  0  0  0  0  0  0  0  0  0  0
    4.5981    3.1550    0.0000 N   0  0  0  0  0  0  0  0  0  0  0  0
    5.4641    4.6550    0.0000 N   0  0  0  0  0  0  0  0  0  0  0  0
    2.8660   -5.8450    0.0000 N   0  0  0  0  0  0  0  0  0  0  0  0
    5.4641    1.6550    0.0000 C   0  0  0  0  0  0  0  0  0  0  0  0
    3.7320    1.6550    0.0000 C   0  0  0  0  0  0  0  0  0  0  0  0
    5.4641    2.6550    0.0000 C   0  0  0  0  0  0  0  0  0  0  0  0
    3.7320    2.6550    0.0000 C   0  0  0  0  0  0  0  0  0  0  0  0
    4.5981    0.1550    0.0000 C   0  0  0  0  0  0  0  0  0  0  0  0
    3.7320   -0.3450    0.0000 C   0  0  0  0  0  0  0  0  0  0  0  0
    4.5981    4.1550    0.0000 C   0  0  0  0  0  0  0  0  0  0  0  0
    3.7320   -1.3450    0.0000 C   0  0  0  0  0  0  0  0  0  0  0  0
    3.7320    4.6550    0.0000 C   0  0  0  0  0  0  0  0  0  0  0  0
    2.8660   -1.8450    0.0000 C   0  0  0  0  0  0  0  0  0  0  0  0
    2.8660   -2.8450    0.0000 C   0  0  0  0  0  0  0  0  0  0  0  0
    3.7320    5.6550    0.0000 C   0  0  0  0  0  0  0  0  0  0  0  0
    5.4641    5.6550    0.0000 C   0  0  0  0  0  0  0  0  0  0  0  0
    4.5981    6.1550    0.0000 C   0  0  0  0  0  0  0  0  0  0  0  0
    2.0000   -3.3450    0.0000 C   0  0  0  0  0  0  0  0  0  0  0  0
    3.7320   -3.3450    0.0000 C   0  0  0  0  0  0  0  0  0  0  0  0
    2.0000   -4.3450    0.0000 C   0  0  0  0  0  0  0  0  0  0  0  0
    3.7320   -4.3450    0.0000 C   0  0  0  0  0  0  0  0  0  0  0  0
    2.8660   -4.8450    0.0000 C   0  0  0  0  0  0  0  0  0  0  0  0
    5.6762    1.0724    0.0000 H   0  0  0  0  0  0  0  0  0  0  0  0
    6.0747    1.7627    0.0000 H   0  0  0  0  0  0  0  0  0  0  0  0
    3.1215    1.7627    0.0000 H   0  0  0  0  0  0  0  0  0  0  0  0
    3.5200    1.0724    0.0000 H   0  0  0  0  0  0  0  0  0  0  0  0
    6.0747    2.5473    0.0000 H   0  0  0  0  0  0  0  0  0  0  0  0
    5.6762    3.2376    0.0000 H   0  0  0  0  0  0  0  0  0  0  0  0
    3.5200    3.2376    0.0000 H   0  0  0  0  0  0  0  0  0  0  0  0
    3.1215    2.5473    0.0000 H   0  0  0  0  0  0  0  0  0  0  0  0
    4.8101   -0.4276    0.0000 H   0  0  0  0  0  0  0  0  0  0  0  0
    5.2087    0.2627    0.0000 H   0  0  0  0  0  0  0  0  0  0  0  0
    3.5200    0.2376    0.0000 H   0  0  0  0  0  0  0  0  0  0  0  0
    3.1215   -0.4527    0.0000 H   0  0  0  0  0  0  0  0  0  0  0  0
    3.9441   -1.9276    0.0000 H   0  0  0  0  0  0  0  0  0  0  0  0
    4.3426   -1.2373    0.0000 H   0  0  0  0  0  0  0  0  0  0  0  0
    3.1951    4.3450    0.0000 H   0  0  0  0  0  0  0  0  0  0  0  0
    3.1951    5.9650    0.0000 H   0  0  0  0  0  0  0  0  0  0  0  0
    6.0010    5.9650    0.0000 H   0  0  0  0  0  0  0  0  0  0  0  0
    4.5981    6.7750    0.0000 H   0  0  0  0  0  0  0  0  0  0  0  0
    1.4631   -3.0350    0.0000 H   0  0  0  0  0  0  0  0  0  0  0  0
    4.2690   -3.0350    0.0000 H   0  0  0  0  0  0  0  0  0  0  0  0
    1.4631   -4.6550    0.0000 H   0  0  0  0  0  0  0  0  0  0  0  0
    4.2690   -4.6550    0.0000 H   0  0  0  0  0  0  0  0  0  0  0  0
    2.3291   -6.1550    0.0000 H   0  0  0  0  0  0  0  0  0  0  0  0
    3.4030   -6.1550    0.0000 H   0  0  0  0  0  0  0  0  0  0  0  0
  1 15  2  0  0  0  0
  2  6  1  0  0  0  0
  2  7  1  0  0  0  0
  2 10  1  0  0  0  0
  3  8  1  0  0  0  0
  3  9  1  0  0  0  0
  3 12  1  0  0  0  0
  4 12  1  0  0  0  0
  4 18  2  0  0  0  0
  5 24  1  0  0  0  0
  5 47  1  0  0  0  0
  5 48  1  0  0  0  0
  6  8  1  0  0  0  0
  6 25  1  0  0  0  0
  6 26  1  0  0  0  0
  7  9  1  0  0  0  0
  7 27  1  0  0  0  0
  7 28  1  0  0  0  0
  8 29  1  0  0  0  0
  8 30  1  0  0  0  0
  9 31  1  0  0  0  0
  9 32  1  0  0  0  0
 10 11  1  0  0  0  0
 10 33  1  0  0  0  0
 10 34  1  0  0  0  0
 11 13  1  0  0  0  0
 11 35  1  0  0  0  0
 11 36  1  0  0  0  0
 12 14  2  0  0  0  0
 13 15  1  0  0  0  0
 13 37  1  0  0  0  0
 13 38  1  0  0  0  0
 14 17  1  0  0  0  0
 14 39  1  0  0  0  0
 15 16  1  0  0  0  0
 16 20  2  0  0  0  0
 16 21  1  0  0  0  0
 17 19  2  0  0  0  0
 17 40  1  0  0  0  0
 18 19  1  0  0  0  0
 18 41  1  0  0  0  0
 19 42  1  0  0  0  0
 20 22  1  0  0  0  0
 20 43  1  0  0  0  0
 21 23  2  0  0  0  0
 21 44  1  0  0  0  0
 22 24  2  0  0  0  0
 22 45  1  0  0  0  0
 23 24  1  0  0  0  0
 23 46  1  0  0  0  0
M  END
> <PUBCHEM_COMPOUND_CID>
164617626

> <PUBCHEM_COMPOUND_CANONICALIZED>
1

> <PUBCHEM_CACTVS_COMPLEXITY>
387

> <PUBCHEM_CACTVS_HBOND_ACCEPTOR>
5

> <PUBCHEM_CACTVS_HBOND_DONOR>
1

> <PUBCHEM_CACTVS_ROTATABLE_BOND>
6

> <PUBCHEM_CACTVS_SUBSKEYS>
AAADceB7oAAAAAAAAAAAAAAAAAAAAAAAAAA8WIAAAAAAAAABwAAAHgAQAAAADAzBmgQ98JNIEACoArZ3ZACCgCk1AiAJ2CE4ZNiIYPLAnZGUIQhokALIyacciYCeCAAAAAAAAAAQAAAAAAAAAAAAAAAAAA==

> <PUBCHEM_IUPAC_OPENEYE_NAME>
1-(4-aminophenyl)-4-[4-(2-pyridyl)piperazin-1-yl]butan-1-one

> <PUBCHEM_IUPAC_CAS_NAME>
1-(4-aminophenyl)-4-[4-(2-pyridinyl)-1-piperazinyl]-1-butanone

> <PUBCHEM_IUPAC_NAME_MARKUP>
1-(4-aminophenyl)-4-(4-pyridin-2-ylpiperazin-1-yl)butan-1-one

> <PUBCHEM_IUPAC_NAME>
1-(4-aminophenyl)-4-(4-pyridin-2-ylpiperazin-1-yl)butan-1-one

> <PUBCHEM_IUPAC_SYSTEMATIC_NAME>
1-(4-aminophenyl)-4-(4-pyridin-2-ylpiperazin-1-yl)butan-1-one

> <PUBCHEM_IUPAC_TRADITIONAL_NAME>
1-(4-aminophenyl)-4-[4-(2-pyridyl)piperazino]butan-1-one

> <PUBCHEM_IUPAC_INCHI>
InChI=1S/C19H24N4O/c20-17-8-6-16(7-9-17)18(24)4-3-11-22-12-14-23(15-13-22)19-5-1-2-10-21-19/h1-2,5-10H,3-4,11-15,20H2

> <PUBCHEM_IUPAC_INCHIKEY>
JPLZGZBACZPXMR-UHFFFAOYSA-N

> <PUBCHEM_XLOGP3>
2.5

> <PUBCHEM_EXACT_MASS>
324.19501140

> <PUBCHEM_MOLECULAR_FORMULA>
C19H24N4O

> <PUBCHEM_MOLECULAR_WEIGHT>
324.4

> <PUBCHEM_OPENEYE_CAN_SMILES>
C1CN(CCN1CCCC(=O)C2=CC=C(C=C2)N)C3=CC=CC=N3

> <PUBCHEM_OPENEYE_ISO_SMILES>
C1CN(CCN1CCCC(=O)C2=CC=C(C=C2)N)C3=CC=CC=N3

> <PUBCHEM_CACTVS_TPSA>
62.5

> <PUBCHEM_MONOISOTOPIC_WEIGHT>
324.19501140

> <PUBCHEM_TOTAL_CHARGE>
0

> <PUBCHEM_HEAVY_ATOM_COUNT>
24

> <PUBCHEM_ATOM_DEF_STEREO_COUNT>
0

> <PUBCHEM_ATOM_UDEF_STEREO_COUNT>
0

> <PUBCHEM_BOND_DEF_STEREO_COUNT>
0

> <PUBCHEM_BOND_UDEF_STEREO_COUNT>
0

> <PUBCHEM_ISOTOPIC_ATOM_COUNT>
0

> <PUBCHEM_COMPONENT_COUNT>
1

> <PUBCHEM_CACTVS_TAUTO_COUNT>
-1

> <PUBCHEM_COORDINATE_TYPE>
1
5
255

> <PUBCHEM_BONDANNOTATIONS>
12  14  8
14  17  8
16  20  8
16  21  8
17  19  8
18  19  8
20  22  8
21  23  8
22  24  8
23  24  8
4  12  8
4  18  8

$$$$
