60165681
  -OEChem-09292322322D

 52 55  0     0  0  0  0  0  0999 V2000
   12.7619   -4.3971    0.0000 Cl  0  0  0  0  0  0  0  0  0  0  0  0
    4.6783    4.2018    0.0000 S   0  0  0  0  0  0  0  0  0  0  0  0
    6.7619    4.2631    0.0000 O   0  0  0  0  0  0  0  0  0  0  0  0
    9.7619    0.7990    0.0000 N   0  0  0  0  0  0  0  0  0  0  0  0
   10.7619   -0.9330    0.0000 N   0  0  0  0  0  0  0  0  0  0  0  0
    4.6783    2.5924    0.0000 N   0  0  0  0  0  0  0  0  0  0  0  0
   10.7619    0.7990    0.0000 C   0  0  0  0  0  0  0  0  0  0  0  0
    9.2619   -0.0670    0.0000 C   0  0  0  0  0  0  0  0  0  0  0  0
   11.2619   -0.0670    0.0000 C   0  0  0  0  0  0  0  0  0  0  0  0
    9.7619   -0.9330    0.0000 C   0  0  0  0  0  0  0  0  0  0  0  0
    9.2619    1.6651    0.0000 C   0  0  0  0  0  0  0  0  0  0  0  0
    8.2619    1.6651    0.0000 C   0  0  0  0  0  0  0  0  0  0  0  0
    7.7619    2.5311    0.0000 C   0  0  0  0  0  0  0  0  0  0  0  0
   11.2619   -1.7990    0.0000 C   0  0  0  0  0  0  0  0  0  0  0  0
    6.7619    2.5311    0.0000 C   0  0  0  0  0  0  0  0  0  0  0  0
   12.2619   -1.7990    0.0000 C   0  0  0  0  0  0  0  0  0  0  0  0
   10.7619   -2.6651    0.0000 C   0  0  0  0  0  0  0  0  0  0  0  0
    6.2619    3.3971    0.0000 C   0  0  0  0  0  0  0  0  0  0  0  0
   12.7619   -2.6651    0.0000 C   0  0  0  0  0  0  0  0  0  0  0  0
   11.2619   -3.5311    0.0000 C   0  0  0  0  0  0  0  0  0  0  0  0
   12.2619   -3.5311    0.0000 C   0  0  0  0  0  0  0  0  0  0  0  0
    5.2619    3.3971    0.0000 C   0  0  0  0  0  0  0  0  0  0  0  0
    3.7320    3.8971    0.0000 C   0  0  0  0  0  0  0  0  0  0  0  0
    3.7320    2.8971    0.0000 C   0  0  0  0  0  0  0  0  0  0  0  0
    2.8660    4.3971    0.0000 C   0  0  0  0  0  0  0  0  0  0  0  0
    2.8660    2.3971    0.0000 C   0  0  0  0  0  0  0  0  0  0  0  0
    2.0000    3.8971    0.0000 C   0  0  0  0  0  0  0  0  0  0  0  0
    2.0000    2.8971    0.0000 C   0  0  0  0  0  0  0  0  0  0  0  0
   11.3445    1.0111    0.0000 H   0  0  0  0  0  0  0  0  0  0  0  0
   10.6542    1.4096    0.0000 H   0  0  0  0  0  0  0  0  0  0  0  0
    8.7869    0.3315    0.0000 H   0  0  0  0  0  0  0  0  0  0  0  0
    8.7869   -0.4655    0.0000 H   0  0  0  0  0  0  0  0  0  0  0  0
   11.7368   -0.4655    0.0000 H   0  0  0  0  0  0  0  0  0  0  0  0
   11.7368    0.3315    0.0000 H   0  0  0  0  0  0  0  0  0  0  0  0
    9.1793   -1.1451    0.0000 H   0  0  0  0  0  0  0  0  0  0  0  0
    9.8695   -1.5436    0.0000 H   0  0  0  0  0  0  0  0  0  0  0  0
    9.8445    1.8771    0.0000 H   0  0  0  0  0  0  0  0  0  0  0  0
    9.1542    2.2756    0.0000 H   0  0  0  0  0  0  0  0  0  0  0  0
    7.6793    1.4530    0.0000 H   0  0  0  0  0  0  0  0  0  0  0  0
    8.3695    1.0545    0.0000 H   0  0  0  0  0  0  0  0  0  0  0  0
    8.3445    2.7431    0.0000 H   0  0  0  0  0  0  0  0  0  0  0  0
    7.6542    3.1417    0.0000 H   0  0  0  0  0  0  0  0  0  0  0  0
    6.1793    2.3190    0.0000 H   0  0  0  0  0  0  0  0  0  0  0  0
    6.8695    1.9205    0.0000 H   0  0  0  0  0  0  0  0  0  0  0  0
   12.5719   -1.2621    0.0000 H   0  0  0  0  0  0  0  0  0  0  0  0
   10.1419   -2.6651    0.0000 H   0  0  0  0  0  0  0  0  0  0  0  0
   13.3819   -2.6651    0.0000 H   0  0  0  0  0  0  0  0  0  0  0  0
   10.9519   -4.0680    0.0000 H   0  0  0  0  0  0  0  0  0  0  0  0
    2.8660    5.0171    0.0000 H   0  0  0  0  0  0  0  0  0  0  0  0
    2.8660    1.7771    0.0000 H   0  0  0  0  0  0  0  0  0  0  0  0
    1.4631    4.2071    0.0000 H   0  0  0  0  0  0  0  0  0  0  0  0
    1.4631    2.5871    0.0000 H   0  0  0  0  0  0  0  0  0  0  0  0
  1 21  1  0  0  0  0
  2 22  1  0  0  0  0
  2 23  1  0  0  0  0
  3 18  2  0  0  0  0
  4  7  1  0  0  0  0
  4  8  1  0  0  0  0
  4 11  1  0  0  0  0
  5  9  1  0  0  0  0
  5 10  1  0  0  0  0
  5 14  1  0  0  0  0
  6 22  2  0  0  0  0
  6 24  1  0  0  0  0
  7  9  1  0  0  0  0
  7 29  1  0  0  0  0
  7 30  1  0  0  0  0
  8 10  1  0  0  0  0
  8 31  1  0  0  0  0
  8 32  1  0  0  0  0
  9 33  1  0  0  0  0
  9 34  1  0  0  0  0
 10 35  1  0  0  0  0
 10 36  1  0  0  0  0
 11 12  1  0  0  0  0
 11 37  1  0  0  0  0
 11 38  1  0  0  0  0
 12 13  1  0  0  0  0
 12 39  1  0  0  0  0
 12 40  1  0  0  0  0
 13 15  1  0  0  0  0
 13 41  1  0  0  0  0
 13 42  1  0  0  0  0
 14 16  2  0  0  0  0
 14 17  1  0  0  0  0
 15 18  1  0  0  0  0
 15 43  1  0  0  0  0
 15 44  1  0  0  0  0
 16 19  1  0  0  0  0
 16 45  1  0  0  0  0
 17 20  2  0  0  0  0
 17 46  1  0  0  0  0
 18 22  1  0  0  0  0
 19 21  2  0  0  0  0
 19 47  1  0  0  0  0
 20 21  1  0  0  0  0
 20 48  1  0  0  0  0
 23 24  1  0  0  0  0
 23 25  2  0  0  0  0
 24 26  2  0  0  0  0
 25 27  1  0  0  0  0
 25 49  1  0  0  0  0
 26 28  1  0  0  0  0
 26 50  1  0  0  0  0
 27 28  2  0  0  0  0
 27 51  1  0  0  0  0
 28 52  1  0  0  0  0
M  END
> <PUBCHEM_COMPOUND_CID>
60165681

> <PUBCHEM_COMPOUND_CANONICALIZED>
1

> <PUBCHEM_CACTVS_COMPLEXITY>
506

> <PUBCHEM_CACTVS_HBOND_ACCEPTOR>
5

> <PUBCHEM_CACTVS_HBOND_DONOR>
0

> <PUBCHEM_CACTVS_ROTATABLE_BOND>
7

> <PUBCHEM_CACTVS_SUBSKEYS>
AAADceB7IABEAAAAAAAAAAAAAAAAAWAAAAA8YIAAAAAAAFgB9AAAHgYAAAAACA7B1iQwwbMIEAisAaRyRACD8KBjDzhImD24ZpgIYLLhk7GUIAhggADoyAcYAQAAAABAAAAAAQAAAIAAAAACAAAAAAAAAA==

> <PUBCHEM_IUPAC_OPENEYE_NAME>
1-(1,3-benzothiazol-2-yl)-5-[4-(4-chlorophenyl)piperazin-1-yl]pentan-1-one

> <PUBCHEM_IUPAC_CAS_NAME>
1-(1,3-benzothiazol-2-yl)-5-[4-(4-chlorophenyl)-1-piperazinyl]-1-pentanone

> <PUBCHEM_IUPAC_NAME_MARKUP>
1-(1,3-benzothiazol-2-yl)-5-[4-(4-chlorophenyl)piperazin-1-yl]pentan-1-one

> <PUBCHEM_IUPAC_NAME>
1-(1,3-benzothiazol-2-yl)-5-[4-(4-chlorophenyl)piperazin-1-yl]pentan-1-one

> <PUBCHEM_IUPAC_SYSTEMATIC_NAME>
1-(1,3-benzothiazol-2-yl)-5-[4-(4-chlorophenyl)piperazin-1-yl]pentan-1-one

> <PUBCHEM_IUPAC_TRADITIONAL_NAME>
1-(1,3-benzothiazol-2-yl)-5-[4-(4-chlorophenyl)piperazino]pentan-1-one

> <PUBCHEM_IUPAC_INCHI>
InChI=1S/C22H24ClN3OS/c23-17-8-10-18(11-9-17)26-15-13-25(14-16-26)12-4-3-6-20(27)22-24-19-5-1-2-7-21(19)28-22/h1-2,5,7-11H,3-4,6,12-16H2

> <PUBCHEM_IUPAC_INCHIKEY>
USGLWFZAXHASGB-UHFFFAOYSA-N

> <PUBCHEM_XLOGP3_AA>
5.3

> <PUBCHEM_EXACT_MASS>
413.1328613

> <PUBCHEM_MOLECULAR_FORMULA>
C22H24ClN3OS

> <PUBCHEM_MOLECULAR_WEIGHT>
414.0

> <PUBCHEM_OPENEYE_CAN_SMILES>
C1CN(CCN1CCCCC(=O)C2=NC3=CC=CC=C3S2)C4=CC=C(C=C4)Cl

> <PUBCHEM_OPENEYE_ISO_SMILES>
C1CN(CCN1CCCCC(=O)C2=NC3=CC=CC=C3S2)C4=CC=C(C=C4)Cl

> <PUBCHEM_CACTVS_TPSA>
64.7

> <PUBCHEM_MONOISOTOPIC_WEIGHT>
413.1328613

> <PUBCHEM_TOTAL_CHARGE>
0

> <PUBCHEM_HEAVY_ATOM_COUNT>
28

> <PUBCHEM_ATOM_DEF_STEREO_COUNT>
0

> <PUBCHEM_ATOM_UDEF_STEREO_COUNT>
0

> <PUBCHEM_BOND_DEF_STEREO_COUNT>
0

> <PUBCHEM_BOND_UDEF_STEREO_COUNT>
0

> <PUBCHEM_ISOTOPIC_ATOM_COUNT>
0

> <PUBCHEM_COMPONENT_COUNT>
1

> <PUBCHEM_CACTVS_TAUTO_COUNT>
-1

> <PUBCHEM_COORDINATE_TYPE>
1
5
255

> <PUBCHEM_BONDANNOTATIONS>
14  16  8
14  17  8
16  19  8
17  20  8
19  21  8
2  22  8
2  23  8
20  21  8
23  24  8
23  25  8
24  26  8
25  27  8
26  28  8
27  28  8
6  22  8
6  24  8

$$$$
