162672738
  -OEChem-09292322062D

 61 64  0     0  0  0  0  0  0999 V2000
    2.0000   -4.6416    0.0000 F   0  0  0  0  0  0  0  0  0  0  0  0
    5.5443   -4.4464    0.0000 O   0  0  0  0  0  0  0  0  0  0  0  0
    8.6974    4.0230    0.0000 O   0  0  0  0  0  0  0  0  0  0  0  0
    6.4763    0.0147    0.0000 N   0  0  0  0  0  0  0  0  0  0  0  0
    9.0546    2.3282    0.0000 N   0  0  0  0  0  0  0  0  0  0  0  0
    6.1279   -3.6416    0.0000 N   0  0  0  0  0  0  0  0  0  0  0  0
    5.8550   -1.8864    0.0000 C   0  0  0  0  0  0  0  0  0  0  0  0
    6.8335   -1.6802    0.0000 C   0  0  0  0  0  0  0  0  0  0  0  0
    5.1871   -1.1421    0.0000 C   0  0  0  0  0  0  0  0  0  0  0  0
    7.1441   -0.7296    0.0000 C   0  0  0  0  0  0  0  0  0  0  0  0
    5.4978   -0.1916    0.0000 C   0  0  0  0  0  0  0  0  0  0  0  0
    6.7870    0.9652    0.0000 C   0  0  0  0  0  0  0  0  0  0  0  0
    5.5443   -2.8369    0.0000 C   0  0  0  0  0  0  0  0  0  0  0  0
    7.7654    1.1714    0.0000 C   0  0  0  0  0  0  0  0  0  0  0  0
    8.0761    2.1219    0.0000 C   0  0  0  0  0  0  0  0  0  0  0  0
    4.5981   -3.1416    0.0000 C   0  0  0  0  0  0  0  0  0  0  0  0
    4.5981   -4.1416    0.0000 C   0  0  0  0  0  0  0  0  0  0  0  0
    9.7225    1.5838    0.0000 C   0  0  0  0  0  0  0  0  0  0  0  0
    3.7320   -2.6416    0.0000 C   0  0  0  0  0  0  0  0  0  0  0  0
    9.3653    3.2787    0.0000 C   0  0  0  0  0  0  0  0  0  0  0  0
    3.7320   -4.6416    0.0000 C   0  0  0  0  0  0  0  0  0  0  0  0
    9.4118    0.6333    0.0000 C   0  0  0  0  0  0  0  0  0  0  0  0
   10.7010    1.7901    0.0000 C   0  0  0  0  0  0  0  0  0  0  0  0
    2.8660   -3.1416    0.0000 C   0  0  0  0  0  0  0  0  0  0  0  0
    2.8660   -4.1416    0.0000 C   0  0  0  0  0  0  0  0  0  0  0  0
   10.3438    3.4849    0.0000 C   0  0  0  0  0  0  0  0  0  0  0  0
   11.0116    2.7406    0.0000 C   0  0  0  0  0  0  0  0  0  0  0  0
   10.6545    4.4354    0.0000 C   0  0  0  0  0  0  0  0  0  0  0  0
   11.9901    2.9468    0.0000 C   0  0  0  0  0  0  0  0  0  0  0  0
   11.6330    4.6416    0.0000 C   0  0  0  0  0  0  0  0  0  0  0  0
   12.3008    3.8973    0.0000 C   0  0  0  0  0  0  0  0  0  0  0  0
    6.2690   -2.3478    0.0000 H   0  0  0  0  0  0  0  0  0  0  0  0
    6.8540   -2.2998    0.0000 H   0  0  0  0  0  0  0  0  0  0  0  0
    7.4473   -1.7675    0.0000 H   0  0  0  0  0  0  0  0  0  0  0  0
    4.6402   -0.8501    0.0000 H   0  0  0  0  0  0  0  0  0  0  0  0
    4.8046   -1.6300    0.0000 H   0  0  0  0  0  0  0  0  0  0  0  0
    7.6910   -1.0216    0.0000 H   0  0  0  0  0  0  0  0  0  0  0  0
    7.5267   -0.2417    0.0000 H   0  0  0  0  0  0  0  0  0  0  0  0
    5.4772    0.4281    0.0000 H   0  0  0  0  0  0  0  0  0  0  0  0
    4.8840   -0.1042    0.0000 H   0  0  0  0  0  0  0  0  0  0  0  0
    6.7664    1.5849    0.0000 H   0  0  0  0  0  0  0  0  0  0  0  0
    6.1731    1.0525    0.0000 H   0  0  0  0  0  0  0  0  0  0  0  0
    7.7860    0.5517    0.0000 H   0  0  0  0  0  0  0  0  0  0  0  0
    8.3793    1.0841    0.0000 H   0  0  0  0  0  0  0  0  0  0  0  0
    8.0556    2.7416    0.0000 H   0  0  0  0  0  0  0  0  0  0  0  0
    7.4623    2.2093    0.0000 H   0  0  0  0  0  0  0  0  0  0  0  0
    9.1158    1.4560    0.0000 H   0  0  0  0  0  0  0  0  0  0  0  0
    3.7320   -2.0216    0.0000 H   0  0  0  0  0  0  0  0  0  0  0  0
    3.7320   -5.2616    0.0000 H   0  0  0  0  0  0  0  0  0  0  0  0
    8.8225    0.8259    0.0000 H   0  0  0  0  0  0  0  0  0  0  0  0
    9.2192    0.0440    0.0000 H   0  0  0  0  0  0  0  0  0  0  0  0
   10.0011    0.4407    0.0000 H   0  0  0  0  0  0  0  0  0  0  0  0
   10.8288    1.1834    0.0000 H   0  0  0  0  0  0  0  0  0  0  0  0
   11.3076    1.9179    0.0000 H   0  0  0  0  0  0  0  0  0  0  0  0
   10.5731    2.3967    0.0000 H   0  0  0  0  0  0  0  0  0  0  0  0
    2.3291   -2.8316    0.0000 H   0  0  0  0  0  0  0  0  0  0  0  0
   10.8190    2.1513    0.0000 H   0  0  0  0  0  0  0  0  0  0  0  0
   10.2404    4.8969    0.0000 H   0  0  0  0  0  0  0  0  0  0  0  0
   12.4042    2.4853    0.0000 H   0  0  0  0  0  0  0  0  0  0  0  0
   11.8256    5.2310    0.0000 H   0  0  0  0  0  0  0  0  0  0  0  0
   12.9075    4.0252    0.0000 H   0  0  0  0  0  0  0  0  0  0  0  0
  1 25  1  0  0  0  0
  2  6  1  0  0  0  0
  2 17  1  0  0  0  0
  3 20  2  0  0  0  0
  4 10  1  0  0  0  0
  4 11  1  0  0  0  0
  4 12  1  0  0  0  0
  5 15  1  0  0  0  0
  5 18  1  0  0  0  0
  5 20  1  0  0  0  0
  6 13  2  0  0  0  0
  7  8  1  0  0  0  0
  7  9  1  0  0  0  0
  7 13  1  0  0  0  0
  7 32  1  0  0  0  0
  8 10  1  0  0  0  0
  8 33  1  0  0  0  0
  8 34  1  0  0  0  0
  9 11  1  0  0  0  0
  9 35  1  0  0  0  0
  9 36  1  0  0  0  0
 10 37  1  0  0  0  0
 10 38  1  0  0  0  0
 11 39  1  0  0  0  0
 11 40  1  0  0  0  0
 12 14  1  0  0  0  0
 12 41  1  0  0  0  0
 12 42  1  0  0  0  0
 13 16  1  0  0  0  0
 14 15  1  0  0  0  0
 14 43  1  0  0  0  0
 14 44  1  0  0  0  0
 15 45  1  0  0  0  0
 15 46  1  0  0  0  0
 16 17  2  0  0  0  0
 16 19  1  0  0  0  0
 17 21  1  0  0  0  0
 18 22  1  0  0  0  0
 18 23  1  0  0  0  0
 18 47  1  0  0  0  0
 19 24  2  0  0  0  0
 19 48  1  0  0  0  0
 20 26  1  0  0  0  0
 21 25  2  0  0  0  0
 21 49  1  0  0  0  0
 22 50  1  0  0  0  0
 22 51  1  0  0  0  0
 22 52  1  0  0  0  0
 23 53  1  0  0  0  0
 23 54  1  0  0  0  0
 23 55  1  0  0  0  0
 24 25  1  0  0  0  0
 24 56  1  0  0  0  0
 26 27  2  0  0  0  0
 26 28  1  0  0  0  0
 27 29  1  0  0  0  0
 27 57  1  0  0  0  0
 28 30  2  0  0  0  0
 28 58  1  0  0  0  0
 29 31  2  0  0  0  0
 29 59  1  0  0  0  0
 30 31  1  0  0  0  0
 30 60  1  0  0  0  0
 31 61  1  0  0  0  0
M  END
> <PUBCHEM_COMPOUND_CID>
162672738

> <PUBCHEM_COMPOUND_CANONICALIZED>
1

> <PUBCHEM_CACTVS_COMPLEXITY>
575

> <PUBCHEM_CACTVS_HBOND_ACCEPTOR>
5

> <PUBCHEM_CACTVS_HBOND_DONOR>
0

> <PUBCHEM_CACTVS_ROTATABLE_BOND>
7

> <PUBCHEM_CACTVS_SUBSKEYS>
AAADceB7MQAAAAAAAAAAAAAAAAAAAWAAAAA8YIAAAAAAAFgB9AAAHwAEAAAADSzBngwyhtMQAACpA6VyUgCCAAAkIAAomCE+TNoIJrqA1ZOEMYhmxhmIyceYyOCOAAAAAAAIAAAAAAAAABAAAAAAAAAAAA==

> <PUBCHEM_IUPAC_OPENEYE_NAME>
N-[3-[4-(6-fluoro-1,2-benzoxazol-3-yl)-1-piperidyl]propyl]-N-isopropyl-benzamide

> <PUBCHEM_IUPAC_CAS_NAME>
N-[3-[4-(6-fluoro-1,2-benzoxazol-3-yl)-1-piperidinyl]propyl]-N-propan-2-ylbenzamide

> <PUBCHEM_IUPAC_NAME_MARKUP>
<I>N</I>-[3-[4-(6-fluoro-1,2-benzoxazol-3-yl)piperidin-1-yl]propyl]-<I>N</I>-propan-2-ylbenzamide

> <PUBCHEM_IUPAC_NAME>
N-[3-[4-(6-fluoro-1,2-benzoxazol-3-yl)piperidin-1-yl]propyl]-N-propan-2-ylbenzamide

> <PUBCHEM_IUPAC_SYSTEMATIC_NAME>
N-[3-[4-(6-fluoranyl-1,2-benzoxazol-3-yl)piperidin-1-yl]propyl]-N-propan-2-yl-benzamide

> <PUBCHEM_IUPAC_TRADITIONAL_NAME>
N-[3-[4-(6-fluoroindoxazen-3-yl)piperidino]propyl]-N-isopropyl-benzamide

> <PUBCHEM_IUPAC_INCHI>
InChI=1S/C25H30FN3O2/c1-18(2)29(25(30)20-7-4-3-5-8-20)14-6-13-28-15-11-19(12-16-28)24-22-10-9-21(26)17-23(22)31-27-24/h3-5,7-10,17-19H,6,11-16H2,1-2H3

> <PUBCHEM_IUPAC_INCHIKEY>
HYERVAPNBCDTON-UHFFFAOYSA-N

> <PUBCHEM_XLOGP3_AA>
4.7

> <PUBCHEM_EXACT_MASS>
423.23220537

> <PUBCHEM_MOLECULAR_FORMULA>
C25H30FN3O2

> <PUBCHEM_MOLECULAR_WEIGHT>
423.5

> <PUBCHEM_OPENEYE_CAN_SMILES>
CC(C)N(CCCN1CCC(CC1)C2=NOC3=C2C=CC(=C3)F)C(=O)C4=CC=CC=C4

> <PUBCHEM_OPENEYE_ISO_SMILES>
CC(C)N(CCCN1CCC(CC1)C2=NOC3=C2C=CC(=C3)F)C(=O)C4=CC=CC=C4

> <PUBCHEM_CACTVS_TPSA>
49.6

> <PUBCHEM_MONOISOTOPIC_WEIGHT>
423.23220537

> <PUBCHEM_TOTAL_CHARGE>
0

> <PUBCHEM_HEAVY_ATOM_COUNT>
31

> <PUBCHEM_ATOM_DEF_STEREO_COUNT>
0

> <PUBCHEM_ATOM_UDEF_STEREO_COUNT>
0

> <PUBCHEM_BOND_DEF_STEREO_COUNT>
0

> <PUBCHEM_BOND_UDEF_STEREO_COUNT>
0

> <PUBCHEM_ISOTOPIC_ATOM_COUNT>
0

> <PUBCHEM_COMPONENT_COUNT>
1

> <PUBCHEM_CACTVS_TAUTO_COUNT>
-1

> <PUBCHEM_COORDINATE_TYPE>
1
5
255

> <PUBCHEM_BONDANNOTATIONS>
13  16  8
16  17  8
16  19  8
17  21  8
19  24  8
2  17  8
2  6  8
21  25  8
24  25  8
26  27  8
26  28  8
27  29  8
28  30  8
29  31  8
30  31  8
6  13  8

$$$$
