44407437
  -OEChem-09292322272D

 70 73  0     0  0  0  0  0  0999 V2000
    4.1076   -6.2626    0.0000 S   0  0  0  0  0  0  0  0  0  0  0  0
    2.0000    6.2097    0.0000 F   0  0  0  0  0  0  0  0  0  0  0  0
    3.4132    6.2626    0.0000 F   0  0  0  0  0  0  0  0  0  0  0  0
    2.0529    4.7965    0.0000 F   0  0  0  0  0  0  0  0  0  0  0  0
    2.5092   -3.4563    0.0000 O   0  0  0  0  0  0  0  0  0  0  0  0
    3.3091    0.2695    0.0000 N   0  0  0  0  0  0  0  0  0  0  0  0
    3.7541    2.2194    0.0000 N   0  0  0  0  0  0  0  0  0  0  0  0
    4.1076   -4.0156    0.0000 N   0  0  0  0  0  0  0  0  0  0  0  0
    4.9322    3.4890    0.0000 N   0  0  0  0  0  0  0  0  0  0  0  0
    4.4217    5.1441    0.0000 N   0  0  0  0  0  0  0  0  0  0  0  0
    4.2646    0.5643    0.0000 C   0  0  0  0  0  0  0  0  0  0  0  0
    2.5760    0.9497    0.0000 C   0  0  0  0  0  0  0  0  0  0  0  0
    4.4872    1.5392    0.0000 C   0  0  0  0  0  0  0  0  0  0  0  0
    2.7985    1.9246    0.0000 C   0  0  0  0  0  0  0  0  0  0  0  0
    3.0866   -0.7054    0.0000 C   0  0  0  0  0  0  0  0  0  0  0  0
    3.8196   -1.3856    0.0000 C   0  0  0  0  0  0  0  0  0  0  0  0
    3.5971   -2.3605    0.0000 C   0  0  0  0  0  0  0  0  0  0  0  0
    3.9766    3.1943    0.0000 C   0  0  0  0  0  0  0  0  0  0  0  0
    4.3301   -3.0407    0.0000 C   0  0  0  0  0  0  0  0  0  0  0  0
    6.1103    4.7587    0.0000 C   0  0  0  0  0  0  0  0  0  0  0  0
    5.1547    4.4640    0.0000 C   0  0  0  0  0  0  0  0  0  0  0  0
    3.2436    3.8745    0.0000 C   0  0  0  0  0  0  0  0  0  0  0  0
    3.4661    4.8494    0.0000 C   0  0  0  0  0  0  0  0  0  0  0  0
    4.8894   -4.6391    0.0000 C   0  0  0  0  0  0  0  0  0  0  0  0
    7.0659    5.0535    0.0000 C   0  0  0  0  0  0  0  0  0  0  0  0
    5.8156    5.7143    0.0000 C   0  0  0  0  0  0  0  0  0  0  0  0
    6.4051    3.8032    0.0000 C   0  0  0  0  0  0  0  0  0  0  0  0
    3.1327   -4.2382    0.0000 C   0  0  0  0  0  0  0  0  0  0  0  0
    2.6988   -5.1391    0.0000 C   0  0  0  0  0  0  0  0  0  0  0  0
    4.8894   -5.6391    0.0000 C   0  0  0  0  0  0  0  0  0  0  0  0
    3.1327   -6.0401    0.0000 C   0  0  0  0  0  0  0  0  0  0  0  0
    2.7330    5.5296    0.0000 C   0  0  0  0  0  0  0  0  0  0  0  0
    5.7834   -4.1045    0.0000 C   0  0  0  0  0  0  0  0  0  0  0  0
    5.7834   -6.1738    0.0000 C   0  0  0  0  0  0  0  0  0  0  0  0
    6.6894   -4.6183    0.0000 C   0  0  0  0  0  0  0  0  0  0  0  0
    6.6894   -5.6599    0.0000 C   0  0  0  0  0  0  0  0  0  0  0  0
    4.3417   -0.0509    0.0000 H   0  0  0  0  0  0  0  0  0  0  0  0
    4.8839    0.5334    0.0000 H   0  0  0  0  0  0  0  0  0  0  0  0
    2.0047    1.1905    0.0000 H   0  0  0  0  0  0  0  0  0  0  0  0
    2.2396    0.4289    0.0000 H   0  0  0  0  0  0  0  0  0  0  0  0
    5.0585    1.2983    0.0000 H   0  0  0  0  0  0  0  0  0  0  0  0
    4.8235    2.0600    0.0000 H   0  0  0  0  0  0  0  0  0  0  0  0
    2.7214    2.5398    0.0000 H   0  0  0  0  0  0  0  0  0  0  0  0
    2.1793    1.9555    0.0000 H   0  0  0  0  0  0  0  0  0  0  0  0
    2.5152   -0.4646    0.0000 H   0  0  0  0  0  0  0  0  0  0  0  0
    2.7502   -1.2262    0.0000 H   0  0  0  0  0  0  0  0  0  0  0  0
    4.3909   -1.6264    0.0000 H   0  0  0  0  0  0  0  0  0  0  0  0
    4.1560   -0.8648    0.0000 H   0  0  0  0  0  0  0  0  0  0  0  0
    3.0258   -2.1197    0.0000 H   0  0  0  0  0  0  0  0  0  0  0  0
    3.2607   -2.8813    0.0000 H   0  0  0  0  0  0  0  0  0  0  0  0
    4.9014   -3.2815    0.0000 H   0  0  0  0  0  0  0  0  0  0  0  0
    4.6665   -2.5199    0.0000 H   0  0  0  0  0  0  0  0  0  0  0  0
    2.6511    3.6917    0.0000 H   0  0  0  0  0  0  0  0  0  0  0  0
    7.2486    4.4610    0.0000 H   0  0  0  0  0  0  0  0  0  0  0  0
    7.6583    5.2362    0.0000 H   0  0  0  0  0  0  0  0  0  0  0  0
    6.8831    5.6459    0.0000 H   0  0  0  0  0  0  0  0  0  0  0  0
    6.4080    5.8970    0.0000 H   0  0  0  0  0  0  0  0  0  0  0  0
    5.6328    6.3068    0.0000 H   0  0  0  0  0  0  0  0  0  0  0  0
    5.2231    5.5316    0.0000 H   0  0  0  0  0  0  0  0  0  0  0  0
    5.8126    3.6204    0.0000 H   0  0  0  0  0  0  0  0  0  0  0  0
    6.5878    3.2107    0.0000 H   0  0  0  0  0  0  0  0  0  0  0  0
    6.9975    3.9859    0.0000 H   0  0  0  0  0  0  0  0  0  0  0  0
    2.2141   -4.7526    0.0000 H   0  0  0  0  0  0  0  0  0  0  0  0
    2.2141   -5.5257    0.0000 H   0  0  0  0  0  0  0  0  0  0  0  0
    2.5282   -6.1780    0.0000 H   0  0  0  0  0  0  0  0  0  0  0  0
    3.1327   -6.6601    0.0000 H   0  0  0  0  0  0  0  0  0  0  0  0
    5.7762   -3.4845    0.0000 H   0  0  0  0  0  0  0  0  0  0  0  0
    5.7762   -6.7937    0.0000 H   0  0  0  0  0  0  0  0  0  0  0  0
    7.2252   -4.3062    0.0000 H   0  0  0  0  0  0  0  0  0  0  0  0
    7.2252   -5.9720    0.0000 H   0  0  0  0  0  0  0  0  0  0  0  0
  1 30  1  0  0  0  0
  1 31  1  0  0  0  0
  2 32  1  0  0  0  0
  3 32  1  0  0  0  0
  4 32  1  0  0  0  0
  5 28  2  0  0  0  0
  6 11  1  0  0  0  0
  6 12  1  0  0  0  0
  6 15  1  0  0  0  0
  7 13  1  0  0  0  0
  7 14  1  0  0  0  0
  7 18  1  0  0  0  0
  8 19  1  0  0  0  0
  8 24  1  0  0  0  0
  8 28  1  0  0  0  0
  9 18  2  0  0  0  0
  9 21  1  0  0  0  0
 10 21  2  0  0  0  0
 10 23  1  0  0  0  0
 11 13  1  0  0  0  0
 11 37  1  0  0  0  0
 11 38  1  0  0  0  0
 12 14  1  0  0  0  0
 12 39  1  0  0  0  0
 12 40  1  0  0  0  0
 13 41  1  0  0  0  0
 13 42  1  0  0  0  0
 14 43  1  0  0  0  0
 14 44  1  0  0  0  0
 15 16  1  0  0  0  0
 15 45  1  0  0  0  0
 15 46  1  0  0  0  0
 16 17  1  0  0  0  0
 16 47  1  0  0  0  0
 16 48  1  0  0  0  0
 17 19  1  0  0  0  0
 17 49  1  0  0  0  0
 17 50  1  0  0  0  0
 18 22  1  0  0  0  0
 19 51  1  0  0  0  0
 19 52  1  0  0  0  0
 20 21  1  0  0  0  0
 20 25  1  0  0  0  0
 20 26  1  0  0  0  0
 20 27  1  0  0  0  0
 22 23  2  0  0  0  0
 22 53  1  0  0  0  0
 23 32  1  0  0  0  0
 24 30  1  0  0  0  0
 24 33  2  0  0  0  0
 25 54  1  0  0  0  0
 25 55  1  0  0  0  0
 25 56  1  0  0  0  0
 26 57  1  0  0  0  0
 26 58  1  0  0  0  0
 26 59  1  0  0  0  0
 27 60  1  0  0  0  0
 27 61  1  0  0  0  0
 27 62  1  0  0  0  0
 28 29  1  0  0  0  0
 29 31  1  0  0  0  0
 29 63  1  0  0  0  0
 29 64  1  0  0  0  0
 30 34  2  0  0  0  0
 31 65  1  0  0  0  0
 31 66  1  0  0  0  0
 33 35  1  0  0  0  0
 33 67  1  0  0  0  0
 34 36  1  0  0  0  0
 34 68  1  0  0  0  0
 35 36  2  0  0  0  0
 35 69  1  0  0  0  0
 36 70  1  0  0  0  0
M  END
> <PUBCHEM_COMPOUND_CID>
44407437

> <PUBCHEM_COMPOUND_CANONICALIZED>
1

> <PUBCHEM_CACTVS_COMPLEXITY>
725

> <PUBCHEM_CACTVS_HBOND_ACCEPTOR>
9

> <PUBCHEM_CACTVS_HBOND_DONOR>
0

> <PUBCHEM_CACTVS_ROTATABLE_BOND>
7

> <PUBCHEM_CACTVS_SUBSKEYS>
AAADcfB7oYBAAAAAAAAAAAAAAAAAAAAAAAA8WIAABYAAAAABwAAAHwQAAAAADgjF1xSz8ZcIEAioASdydACCgCkhCrAJmD04ZJiIaCLg2dGUJAhohgLoyCcQAAAAAAAAAAAAAQAAAAAAAAACAAAAAAAAAA==

> <PUBCHEM_IUPAC_OPENEYE_NAME>
5-[4-[4-[2-tert-butyl-6-(trifluoromethyl)pyrimidin-4-yl]piperazin-1-yl]butyl]-2,3-dihydro-1,5-benzothiazepin-4-one

> <PUBCHEM_IUPAC_CAS_NAME>
5-[4-[4-[2-tert-butyl-6-(trifluoromethyl)-4-pyrimidinyl]-1-piperazinyl]butyl]-2,3-dihydro-1,5-benzothiazepin-4-one

> <PUBCHEM_IUPAC_NAME_MARKUP>
5-[4-[4-[2-<I>tert</I>-butyl-6-(trifluoromethyl)pyrimidin-4-yl]piperazin-1-yl]butyl]-2,3-dihydro-1,5-benzothiazepin-4-one

> <PUBCHEM_IUPAC_NAME>
5-[4-[4-[2-tert-butyl-6-(trifluoromethyl)pyrimidin-4-yl]piperazin-1-yl]butyl]-2,3-dihydro-1,5-benzothiazepin-4-one

> <PUBCHEM_IUPAC_SYSTEMATIC_NAME>
5-[4-[4-[2-tert-butyl-6-(trifluoromethyl)pyrimidin-4-yl]piperazin-1-yl]butyl]-2,3-dihydro-1,5-benzothiazepin-4-one

> <PUBCHEM_IUPAC_TRADITIONAL_NAME>
5-[4-[4-[2-tert-butyl-6-(trifluoromethyl)pyrimidin-4-yl]piperazino]butyl]-2,3-dihydro-1,5-benzothiazepin-4-one

> <PUBCHEM_IUPAC_INCHI>
InChI=1S/C26H34F3N5OS/c1-25(2,3)24-30-21(26(27,28)29)18-22(31-24)33-15-13-32(14-16-33)11-6-7-12-34-19-8-4-5-9-20(19)36-17-10-23(34)35/h4-5,8-9,18H,6-7,10-17H2,1-3H3

> <PUBCHEM_IUPAC_INCHIKEY>
MGBCZDZRQGYLRL-UHFFFAOYSA-N

> <PUBCHEM_XLOGP3_AA>
5.1

> <PUBCHEM_EXACT_MASS>
521.24361638

> <PUBCHEM_MOLECULAR_FORMULA>
C26H34F3N5OS

> <PUBCHEM_MOLECULAR_WEIGHT>
521.6

> <PUBCHEM_OPENEYE_CAN_SMILES>
CC(C)(C)C1=NC(=CC(=N1)N2CCN(CC2)CCCCN3C(=O)CCSC4=CC=CC=C43)C(F)(F)F

> <PUBCHEM_OPENEYE_ISO_SMILES>
CC(C)(C)C1=NC(=CC(=N1)N2CCN(CC2)CCCCN3C(=O)CCSC4=CC=CC=C43)C(F)(F)F

> <PUBCHEM_CACTVS_TPSA>
77.9

> <PUBCHEM_MONOISOTOPIC_WEIGHT>
521.24361638

> <PUBCHEM_TOTAL_CHARGE>
0

> <PUBCHEM_HEAVY_ATOM_COUNT>
36

> <PUBCHEM_ATOM_DEF_STEREO_COUNT>
0

> <PUBCHEM_ATOM_UDEF_STEREO_COUNT>
0

> <PUBCHEM_BOND_DEF_STEREO_COUNT>
0

> <PUBCHEM_BOND_UDEF_STEREO_COUNT>
0

> <PUBCHEM_ISOTOPIC_ATOM_COUNT>
0

> <PUBCHEM_COMPONENT_COUNT>
1

> <PUBCHEM_CACTVS_TAUTO_COUNT>
-1

> <PUBCHEM_COORDINATE_TYPE>
1
5
255

> <PUBCHEM_BONDANNOTATIONS>
10  21  8
10  23  8
18  22  8
22  23  8
24  30  8
24  33  8
30  34  8
33  35  8
34  36  8
35  36  8
9  18  8
9  21  8

$$$$
