44627240
  -OEChem-09292322292D

 57 61  0     1  0  0  0  0  0999 V2000
    6.8867   -3.3945    0.0000 S   0  0  0  0  0  0  0  0  0  0  0  0
   13.1576    3.8375    0.0000 F   0  0  0  0  0  0  0  0  0  0  0  0
   11.7916    4.2036    0.0000 F   0  0  0  0  0  0  0  0  0  0  0  0
   12.7916    2.4715    0.0000 F   0  0  0  0  0  0  0  0  0  0  0  0
   11.4255    2.8375    0.0000 O   0  0  0  0  0  0  0  0  0  0  0  0
    2.5878   -2.6158    0.0000 O   0  0  0  0  0  0  0  0  0  0  0  0
    9.8867   -1.6625    0.0000 N   0  0  3  0  0  0  0  0  0  0  0  0
    5.2989   -2.5855    0.0000 N   0  0  0  0  0  0  0  0  0  0  0  0
    5.2989   -4.2036    0.0000 N   0  0  0  0  0  0  0  0  0  0  0  0
    4.3479   -3.8945    0.0000 N   0  0  0  0  0  0  0  0  0  0  0  0
    2.5878   -0.9977    0.0000 N   0  0  0  0  0  0  0  0  0  0  0  0
   11.4255   -1.1625    0.0000 C   0  0  3  0  0  0  0  0  0  0  0  0
   11.4255   -2.1625    0.0000 C   0  0  3  0  0  0  0  0  0  0  0  0
   12.2921   -1.6625    0.0000 C   0  0  0  0  0  0  0  0  0  0  0  0
   10.4745   -0.8535    0.0000 C   0  0  0  0  0  0  0  0  0  0  0  0
   10.4745   -2.4715    0.0000 C   0  0  0  0  0  0  0  0  0  0  0  0
   11.4255   -0.1625    0.0000 C   0  0  0  0  0  0  0  0  0  0  0  0
    8.8867   -1.6625    0.0000 C   0  0  0  0  0  0  0  0  0  0  0  0
   10.5595    0.3375    0.0000 C   0  0  0  0  0  0  0  0  0  0  0  0
   12.2916    0.3375    0.0000 C   0  0  0  0  0  0  0  0  0  0  0  0
    8.3867   -2.5285    0.0000 C   0  0  0  0  0  0  0  0  0  0  0  0
   10.5595    1.3375    0.0000 C   0  0  0  0  0  0  0  0  0  0  0  0
   12.2916    1.3375    0.0000 C   0  0  0  0  0  0  0  0  0  0  0  0
   11.4255    1.8375    0.0000 C   0  0  0  0  0  0  0  0  0  0  0  0
    7.3867   -2.5285    0.0000 C   0  0  0  0  0  0  0  0  0  0  0  0
    5.8867   -3.3945    0.0000 C   0  0  0  0  0  0  0  0  0  0  0  0
   12.2916    3.3375    0.0000 C   0  0  0  0  0  0  0  0  0  0  0  0
    4.3479   -2.8945    0.0000 C   0  0  0  0  0  0  0  0  0  0  0  0
    5.6079   -1.6345    0.0000 C   0  0  0  0  0  0  0  0  0  0  0  0
    3.5388   -2.3067    0.0000 C   0  0  0  0  0  0  0  0  0  0  0  0
    3.5388   -1.3067    0.0000 C   0  0  0  0  0  0  0  0  0  0  0  0
    4.3479   -0.7190    0.0000 C   0  0  0  0  0  0  0  0  0  0  0  0
    2.0000   -1.8067    0.0000 C   0  0  0  0  0  0  0  0  0  0  0  0
   11.6776   -2.7289    0.0000 H   0  0  0  0  0  0  0  0  0  0  0  0
   12.6906   -2.1375    0.0000 H   0  0  0  0  0  0  0  0  0  0  0  0
   12.6906   -1.1875    0.0000 H   0  0  0  0  0  0  0  0  0  0  0  0
   10.7267   -0.2871    0.0000 H   0  0  0  0  0  0  0  0  0  0  0  0
    9.9376   -0.5435    0.0000 H   0  0  0  0  0  0  0  0  0  0  0  0
    9.9376   -2.7815    0.0000 H   0  0  0  0  0  0  0  0  0  0  0  0
   10.7267   -3.0379    0.0000 H   0  0  0  0  0  0  0  0  0  0  0  0
    8.9944   -1.0519    0.0000 H   0  0  0  0  0  0  0  0  0  0  0  0
    8.3041   -1.4504    0.0000 H   0  0  0  0  0  0  0  0  0  0  0  0
   10.0226    0.0275    0.0000 H   0  0  0  0  0  0  0  0  0  0  0  0
   12.8285    0.0275    0.0000 H   0  0  0  0  0  0  0  0  0  0  0  0
    8.2790   -3.1391    0.0000 H   0  0  0  0  0  0  0  0  0  0  0  0
    8.9693   -2.7406    0.0000 H   0  0  0  0  0  0  0  0  0  0  0  0
   10.0226    1.6475    0.0000 H   0  0  0  0  0  0  0  0  0  0  0  0
   12.8285    1.6475    0.0000 H   0  0  0  0  0  0  0  0  0  0  0  0
    7.4944   -1.9179    0.0000 H   0  0  0  0  0  0  0  0  0  0  0  0
    6.8041   -2.3164    0.0000 H   0  0  0  0  0  0  0  0  0  0  0  0
    6.1976   -1.8260    0.0000 H   0  0  0  0  0  0  0  0  0  0  0  0
    5.7995   -1.0448    0.0000 H   0  0  0  0  0  0  0  0  0  0  0  0
    5.0183   -1.4429    0.0000 H   0  0  0  0  0  0  0  0  0  0  0  0
    4.7123   -1.2206    0.0000 H   0  0  0  0  0  0  0  0  0  0  0  0
    4.8494   -0.3545    0.0000 H   0  0  0  0  0  0  0  0  0  0  0  0
    3.9834   -0.2174    0.0000 H   0  0  0  0  0  0  0  0  0  0  0  0
    1.3800   -1.8067    0.0000 H   0  0  0  0  0  0  0  0  0  0  0  0
  1 25  1  0  0  0  0
  1 26  1  0  0  0  0
  2 27  1  0  0  0  0
  3 27  1  0  0  0  0
  4 27  1  0  0  0  0
  5 24  1  0  0  0  0
  5 27  1  0  0  0  0
  6 30  1  0  0  0  0
  6 33  1  0  0  0  0
  7 15  1  0  0  0  0
  7 16  1  0  0  0  0
  7 18  1  0  0  0  0
  8 26  1  0  0  0  0
  8 28  1  0  0  0  0
  8 29  1  0  0  0  0
  9 10  1  0  0  0  0
  9 26  2  0  0  0  0
 10 28  2  0  0  0  0
 11 31  1  0  0  0  0
 11 33  2  0  0  0  0
 12 13  1  0  0  0  0
 12 14  1  0  0  0  0
 12 15  1  0  0  0  0
 12 17  1  0  0  0  0
 13 14  1  0  0  0  0
 13 16  1  0  0  0  0
 13 34  1  0  0  0  0
 14 35  1  0  0  0  0
 14 36  1  0  0  0  0
 15 37  1  0  0  0  0
 15 38  1  0  0  0  0
 16 39  1  0  0  0  0
 16 40  1  0  0  0  0
 17 19  2  0  0  0  0
 17 20  1  0  0  0  0
 18 21  1  0  0  0  0
 18 41  1  0  0  0  0
 18 42  1  0  0  0  0
 19 22  1  0  0  0  0
 19 43  1  0  0  0  0
 20 23  2  0  0  0  0
 20 44  1  0  0  0  0
 21 25  1  0  0  0  0
 21 45  1  0  0  0  0
 21 46  1  0  0  0  0
 22 24  2  0  0  0  0
 22 47  1  0  0  0  0
 23 24  1  0  0  0  0
 23 48  1  0  0  0  0
 25 49  1  0  0  0  0
 25 50  1  0  0  0  0
 28 30  1  0  0  0  0
 29 51  1  0  0  0  0
 29 52  1  0  0  0  0
 29 53  1  0  0  0  0
 30 31  2  0  0  0  0
 31 32  1  0  0  0  0
 32 54  1  0  0  0  0
 32 55  1  0  0  0  0
 32 56  1  0  0  0  0
 33 57  1  0  0  0  0
M  END
> <PUBCHEM_COMPOUND_CID>
44627240

> <PUBCHEM_COMPOUND_CANONICALIZED>
1

> <PUBCHEM_CACTVS_COMPLEXITY>
683

> <PUBCHEM_CACTVS_HBOND_ACCEPTOR>
10

> <PUBCHEM_CACTVS_HBOND_DONOR>
0

> <PUBCHEM_CACTVS_ROTATABLE_BOND>
8

> <PUBCHEM_CACTVS_SUBSKEYS>
AAADceB7sYBAAAAAAAAAAAAAGAAAAWLFgAA8QAAAAAAAAAAB8AAAHwQIAAAADwzF3xa3lpcMFEiqA6Zz9ASS2Ct7YLAd2CG/TJiOLiLk+TuNMChkzBPYqAeQwPAPoAAAAAAAAABAAAAAAAAAAAAAAAAAAA==

> <PUBCHEM_IUPAC_OPENEYE_NAME>
4-methyl-5-[4-methyl-5-[3-[1-[4-(trifluoromethoxy)phenyl]-3-azabicyclo[3.1.0]hexan-3-yl]propylsulfanyl]-1,2,4-triazol-3-yl]oxazole

> <PUBCHEM_IUPAC_CAS_NAME>
4-methyl-5-[4-methyl-5-[3-[1-[4-(trifluoromethoxy)phenyl]-3-azabicyclo[3.1.0]hexan-3-yl]propylthio]-1,2,4-triazol-3-yl]oxazole

> <PUBCHEM_IUPAC_NAME_MARKUP>
4-methyl-5-[4-methyl-5-[3-[1-[4-(trifluoromethoxy)phenyl]-3-azabicyclo[3.1.0]hexan-3-yl]propylsulfanyl]-1,2,4-triazol-3-yl]-1,3-oxazole

> <PUBCHEM_IUPAC_NAME>
4-methyl-5-[4-methyl-5-[3-[1-[4-(trifluoromethoxy)phenyl]-3-azabicyclo[3.1.0]hexan-3-yl]propylsulfanyl]-1,2,4-triazol-3-yl]-1,3-oxazole

> <PUBCHEM_IUPAC_SYSTEMATIC_NAME>
4-methyl-5-[4-methyl-5-[3-[1-[4-(trifluoromethyloxy)phenyl]-3-azabicyclo[3.1.0]hexan-3-yl]propylsulfanyl]-1,2,4-triazol-3-yl]-1,3-oxazole

> <PUBCHEM_IUPAC_TRADITIONAL_NAME>
4-methyl-5-[4-methyl-5-[3-[1-[4-(trifluoromethoxy)phenyl]-3-azabicyclo[3.1.0]hexan-3-yl]propylthio]-1,2,4-triazol-3-yl]oxazole

> <PUBCHEM_IUPAC_INCHI>
InChI=1S/C22H24F3N5O2S/c1-14-18(31-13-26-14)19-27-28-20(29(19)2)33-9-3-8-30-11-16-10-21(16,12-30)15-4-6-17(7-5-15)32-22(23,24)25/h4-7,13,16H,3,8-12H2,1-2H3

> <PUBCHEM_IUPAC_INCHIKEY>
SRVOWVHRVJSZKO-UHFFFAOYSA-N

> <PUBCHEM_XLOGP3_AA>
4.3

> <PUBCHEM_EXACT_MASS>
479.16028069

> <PUBCHEM_MOLECULAR_FORMULA>
C22H24F3N5O2S

> <PUBCHEM_MOLECULAR_WEIGHT>
479.5

> <PUBCHEM_OPENEYE_CAN_SMILES>
CC1=C(OC=N1)C2=NN=C(N2C)SCCCN3CC4CC4(C3)C5=CC=C(C=C5)OC(F)(F)F

> <PUBCHEM_OPENEYE_ISO_SMILES>
CC1=C(OC=N1)C2=NN=C(N2C)SCCCN3CC4CC4(C3)C5=CC=C(C=C5)OC(F)(F)F

> <PUBCHEM_CACTVS_TPSA>
94.5

> <PUBCHEM_MONOISOTOPIC_WEIGHT>
479.16028069

> <PUBCHEM_TOTAL_CHARGE>
0

> <PUBCHEM_HEAVY_ATOM_COUNT>
33

> <PUBCHEM_ATOM_DEF_STEREO_COUNT>
0

> <PUBCHEM_ATOM_UDEF_STEREO_COUNT>
2

> <PUBCHEM_BOND_DEF_STEREO_COUNT>
0

> <PUBCHEM_BOND_UDEF_STEREO_COUNT>
0

> <PUBCHEM_ISOTOPIC_ATOM_COUNT>
0

> <PUBCHEM_COMPONENT_COUNT>
1

> <PUBCHEM_CACTVS_TAUTO_COUNT>
-1

> <PUBCHEM_COORDINATE_TYPE>
1
5
255

> <PUBCHEM_BONDANNOTATIONS>
10  28  8
11  31  8
11  33  8
12  17  3
13  14  3
17  19  8
17  20  8
19  22  8
20  23  8
22  24  8
23  24  8
30  31  8
6  30  8
6  33  8
8  26  8
8  28  8
9  10  8
9  26  8

$$$$
