44427824
  -OEChem-09292322252D

 60 63  0     0  0  0  0  0  0999 V2000
   11.7321    4.3971    0.0000 Cl  0  0  0  0  0  0  0  0  0  0  0  0
   11.7321    6.3971    0.0000 Cl  0  0  0  0  0  0  0  0  0  0  0  0
   10.5000    0.5311    0.0000 O   0  5  0  0  0  0  0  0  0  0  0  0
    5.0000   -0.3349    0.0000 O   0  0  0  0  0  0  0  0  0  0  0  0
   10.0000    1.3971    0.0000 N   0  3  0  0  0  0  0  0  0  0  0  0
   10.0000    3.3971    0.0000 N   0  0  0  0  0  0  0  0  0  0  0  0
    6.5000   -1.2010    0.0000 N   0  0  0  0  0  0  0  0  0  0  0  0
    4.0000   -5.5311    0.0000 N   0  0  0  0  0  0  0  0  0  0  0  0
    9.1340    1.8971    0.0000 C   0  0  0  0  0  0  0  0  0  0  0  0
   10.8660    1.8971    0.0000 C   0  0  0  0  0  0  0  0  0  0  0  0
    9.1340    2.8971    0.0000 C   0  0  0  0  0  0  0  0  0  0  0  0
   10.8660    2.8971    0.0000 C   0  0  0  0  0  0  0  0  0  0  0  0
    9.5000    0.5311    0.0000 C   0  0  0  0  0  0  0  0  0  0  0  0
   10.0000    4.3971    0.0000 C   0  0  0  0  0  0  0  0  0  0  0  0
    8.5000    0.5311    0.0000 C   0  0  0  0  0  0  0  0  0  0  0  0
   10.8660    4.8971    0.0000 C   0  0  0  0  0  0  0  0  0  0  0  0
    9.1340    4.8971    0.0000 C   0  0  0  0  0  0  0  0  0  0  0  0
    8.0000   -0.3349    0.0000 C   0  0  0  0  0  0  0  0  0  0  0  0
   10.8660    5.8971    0.0000 C   0  0  0  0  0  0  0  0  0  0  0  0
    9.1340    5.8971    0.0000 C   0  0  0  0  0  0  0  0  0  0  0  0
    7.0000   -0.3349    0.0000 C   0  0  0  0  0  0  0  0  0  0  0  0
   10.0000    6.3971    0.0000 C   0  0  0  0  0  0  0  0  0  0  0  0
    5.5000   -1.2010    0.0000 C   0  0  0  0  0  0  0  0  0  0  0  0
    5.0000   -2.0670    0.0000 C   0  0  0  0  0  0  0  0  0  0  0  0
    5.5000   -2.9330    0.0000 C   0  0  0  0  0  0  0  0  0  0  0  0
    4.0000   -2.0670    0.0000 C   0  0  0  0  0  0  0  0  0  0  0  0
    4.0000   -3.7990    0.0000 C   0  0  0  0  0  0  0  0  0  0  0  0
    5.0000   -3.7990    0.0000 C   0  0  0  0  0  0  0  0  0  0  0  0
    3.5000   -2.9330    0.0000 C   0  0  0  0  0  0  0  0  0  0  0  0
    3.5000   -4.6651    0.0000 C   0  0  0  0  0  0  0  0  0  0  0  0
    2.5000   -4.6651    0.0000 C   0  0  0  0  0  0  0  0  0  0  0  0
    2.0000   -5.5311    0.0000 C   0  0  0  0  0  0  0  0  0  0  0  0
    3.5000   -6.3971    0.0000 C   0  0  0  0  0  0  0  0  0  0  0  0
    2.5000   -6.3971    0.0000 C   0  0  0  0  0  0  0  0  0  0  0  0
    8.5234    2.0048    0.0000 H   0  0  0  0  0  0  0  0  0  0  0  0
    8.9219    1.3145    0.0000 H   0  0  0  0  0  0  0  0  0  0  0  0
   11.0781    1.3145    0.0000 H   0  0  0  0  0  0  0  0  0  0  0  0
   11.4766    2.0048    0.0000 H   0  0  0  0  0  0  0  0  0  0  0  0
    8.9219    3.4797    0.0000 H   0  0  0  0  0  0  0  0  0  0  0  0
    8.5234    2.7894    0.0000 H   0  0  0  0  0  0  0  0  0  0  0  0
   11.4766    2.7894    0.0000 H   0  0  0  0  0  0  0  0  0  0  0  0
   11.0781    3.4797    0.0000 H   0  0  0  0  0  0  0  0  0  0  0  0
    9.3923   -0.0795    0.0000 H   0  0  0  0  0  0  0  0  0  0  0  0
   10.0826    0.3190    0.0000 H   0  0  0  0  0  0  0  0  0  0  0  0
    8.1900    1.0680    0.0000 H   0  0  0  0  0  0  0  0  0  0  0  0
    8.5970    4.5871    0.0000 H   0  0  0  0  0  0  0  0  0  0  0  0
    8.3100   -0.8719    0.0000 H   0  0  0  0  0  0  0  0  0  0  0  0
    8.5970    6.2071    0.0000 H   0  0  0  0  0  0  0  0  0  0  0  0
    7.1077    0.2756    0.0000 H   0  0  0  0  0  0  0  0  0  0  0  0
    6.4174   -0.1229    0.0000 H   0  0  0  0  0  0  0  0  0  0  0  0
   10.0000    7.0171    0.0000 H   0  0  0  0  0  0  0  0  0  0  0  0
    6.8100   -1.7379    0.0000 H   0  0  0  0  0  0  0  0  0  0  0  0
    6.1200   -2.9330    0.0000 H   0  0  0  0  0  0  0  0  0  0  0  0
    3.6900   -1.5300    0.0000 H   0  0  0  0  0  0  0  0  0  0  0  0
    5.3100   -4.3360    0.0000 H   0  0  0  0  0  0  0  0  0  0  0  0
    2.8800   -2.9330    0.0000 H   0  0  0  0  0  0  0  0  0  0  0  0
    2.1900   -4.1281    0.0000 H   0  0  0  0  0  0  0  0  0  0  0  0
    1.3800   -5.5311    0.0000 H   0  0  0  0  0  0  0  0  0  0  0  0
    3.8100   -6.9340    0.0000 H   0  0  0  0  0  0  0  0  0  0  0  0
    2.1900   -6.9340    0.0000 H   0  0  0  0  0  0  0  0  0  0  0  0
  1 16  1  0  0  0  0
  2 19  1  0  0  0  0
  3  5  1  0  0  0  0
  4 23  2  0  0  0  0
  5  9  1  0  0  0  0
  5 10  1  0  0  0  0
  5 13  1  0  0  0  0
  6 11  1  0  0  0  0
  6 12  1  0  0  0  0
  6 14  1  0  0  0  0
  7 21  1  0  0  0  0
  7 23  1  0  0  0  0
  7 52  1  0  0  0  0
  8 30  1  0  0  0  0
  8 33  2  0  0  0  0
  9 11  1  0  0  0  0
  9 35  1  0  0  0  0
  9 36  1  0  0  0  0
 10 12  1  0  0  0  0
 10 37  1  0  0  0  0
 10 38  1  0  0  0  0
 11 39  1  0  0  0  0
 11 40  1  0  0  0  0
 12 41  1  0  0  0  0
 12 42  1  0  0  0  0
 13 15  1  0  0  0  0
 13 43  1  0  0  0  0
 13 44  1  0  0  0  0
 14 16  2  0  0  0  0
 14 17  1  0  0  0  0
 15 18  2  0  0  0  0
 15 45  1  0  0  0  0
 16 19  1  0  0  0  0
 17 20  2  0  0  0  0
 17 46  1  0  0  0  0
 18 21  1  0  0  0  0
 18 47  1  0  0  0  0
 19 22  2  0  0  0  0
 20 22  1  0  0  0  0
 20 48  1  0  0  0  0
 21 49  1  0  0  0  0
 21 50  1  0  0  0  0
 22 51  1  0  0  0  0
 23 24  1  0  0  0  0
 24 25  2  0  0  0  0
 24 26  1  0  0  0  0
 25 28  1  0  0  0  0
 25 53  1  0  0  0  0
 26 29  2  0  0  0  0
 26 54  1  0  0  0  0
 27 28  2  0  0  0  0
 27 29  1  0  0  0  0
 27 30  1  0  0  0  0
 28 55  1  0  0  0  0
 29 56  1  0  0  0  0
 30 31  2  0  0  0  0
 31 32  1  0  0  0  0
 31 57  1  0  0  0  0
 32 34  2  0  0  0  0
 32 58  1  0  0  0  0
 33 34  1  0  0  0  0
 33 59  1  0  0  0  0
 34 60  1  0  0  0  0
M  CHG  2   3  -1   5   1
M  END
> <PUBCHEM_COMPOUND_CID>
44427824

> <PUBCHEM_COMPOUND_CANONICALIZED>
1

> <PUBCHEM_CACTVS_COMPLEXITY>
678

> <PUBCHEM_CACTVS_HBOND_ACCEPTOR>
4

> <PUBCHEM_CACTVS_HBOND_DONOR>
1

> <PUBCHEM_CACTVS_ROTATABLE_BOND>
7

> <PUBCHEM_CACTVS_SUBSKEYS>
AAADceB7sAAGAAAAAAAAAAAAAAAAAAAAAAA8eIEAAAAAAAAB0AAAHgIUAAAADArBniQ8wJPYEACoAzV3VACCgCA1ByAo2uE4ZtgIYPLBl5HUIQhglgDIyYcYiMCOQAAAAAIAABSAAAAABAAAKAAAAAAAAA==

> <PUBCHEM_IUPAC_OPENEYE_NAME>
N-[(E)-4-[4-(2,3-dichlorophenyl)-1-oxido-piperazin-1-ium-1-yl]but-2-enyl]-4-(2-pyridyl)benzamide

> <PUBCHEM_IUPAC_CAS_NAME>
N-[(E)-4-[4-(2,3-dichlorophenyl)-1-oxido-1-piperazin-1-iumyl]but-2-enyl]-4-(2-pyridinyl)benzamide

> <PUBCHEM_IUPAC_NAME_MARKUP>
<I>N</I>-[(<I>E</I>)-4-[4-(2,3-dichlorophenyl)-1-oxidopiperazin-1-ium-1-yl]but-2-enyl]-4-pyridin-2-ylbenzamide

> <PUBCHEM_IUPAC_NAME>
N-[(E)-4-[4-(2,3-dichlorophenyl)-1-oxidopiperazin-1-ium-1-yl]but-2-enyl]-4-pyridin-2-ylbenzamide

> <PUBCHEM_IUPAC_SYSTEMATIC_NAME>
N-[(E)-4-[4-[2,3-bis(chloranyl)phenyl]-1-oxidanidyl-piperazin-1-ium-1-yl]but-2-enyl]-4-pyridin-2-yl-benzamide

> <PUBCHEM_IUPAC_TRADITIONAL_NAME>
N-[(E)-4-[4-(2,3-dichlorophenyl)-1-oxido-piperazin-1-ium-1-yl]but-2-enyl]-4-(2-pyridyl)benzamide

> <PUBCHEM_IUPAC_INCHI>
InChI=1S/C26H26Cl2N4O2/c27-22-6-5-8-24(25(22)28)31-15-18-32(34,19-16-31)17-4-3-14-30-26(33)21-11-9-20(10-12-21)23-7-1-2-13-29-23/h1-13H,14-19H2,(H,30,33)/b4-3+

> <PUBCHEM_IUPAC_INCHIKEY>
HGHZRWWRCHMWQC-ONEGZZNKSA-N

> <PUBCHEM_XLOGP3_AA>
4.4

> <PUBCHEM_EXACT_MASS>
496.1432815

> <PUBCHEM_MOLECULAR_FORMULA>
C26H26Cl2N4O2

> <PUBCHEM_MOLECULAR_WEIGHT>
497.4

> <PUBCHEM_OPENEYE_CAN_SMILES>
C1C[N+](CCN1C2=C(C(=CC=C2)Cl)Cl)(CC=CCNC(=O)C3=CC=C(C=C3)C4=CC=CC=N4)[O-]

> <PUBCHEM_OPENEYE_ISO_SMILES>
C1C[N+](CCN1C2=C(C(=CC=C2)Cl)Cl)(C/C=C/CNC(=O)C3=CC=C(C=C3)C4=CC=CC=N4)[O-]

> <PUBCHEM_CACTVS_TPSA>
63.3

> <PUBCHEM_MONOISOTOPIC_WEIGHT>
496.1432815

> <PUBCHEM_TOTAL_CHARGE>
0

> <PUBCHEM_HEAVY_ATOM_COUNT>
34

> <PUBCHEM_ATOM_DEF_STEREO_COUNT>
0

> <PUBCHEM_ATOM_UDEF_STEREO_COUNT>
0

> <PUBCHEM_BOND_DEF_STEREO_COUNT>
1

> <PUBCHEM_BOND_UDEF_STEREO_COUNT>
0

> <PUBCHEM_ISOTOPIC_ATOM_COUNT>
0

> <PUBCHEM_COMPONENT_COUNT>
1

> <PUBCHEM_CACTVS_TAUTO_COUNT>
-1

> <PUBCHEM_COORDINATE_TYPE>
1
5
255

> <PUBCHEM_BONDANNOTATIONS>
14  16  8
14  17  8
16  19  8
17  20  8
19  22  8
20  22  8
24  25  8
24  26  8
25  28  8
26  29  8
27  28  8
27  29  8
30  31  8
31  32  8
32  34  8
33  34  8
8  30  8
8  33  8

$$$$
