45260677
  -OEChem-09292322192D

 50 52  0     0  0  0  0  0  0999 V2000
    6.0010    5.8302    0.0000 Cl  0  0  0  0  0  0  0  0  0  0  0  0
    0.9230   10.7078    0.0000 S   0  0  0  0  0  0  0  0  0  0  0  0
    2.5981    7.6200    0.0000 O   0  0  0  0  0  0  0  0  0  0  0  0
    0.0000    9.1200    0.0000 O   0  0  0  0  0  0  0  0  0  0  0  0
    1.7320    5.1200    0.0000 N   0  0  0  0  0  0  0  0  0  0  0  0
    1.7320    7.1200    0.0000 C   0  0  0  0  0  0  0  0  0  0  0  0
    0.8660    6.6200    0.0000 C   0  0  0  0  0  0  0  0  0  0  0  0
    2.5981    6.6200    0.0000 C   0  0  0  0  0  0  0  0  0  0  0  0
    0.8660    5.6200    0.0000 C   0  0  0  0  0  0  0  0  0  0  0  0
    2.5981    5.6200    0.0000 C   0  0  0  0  0  0  0  0  0  0  0  0
    0.8660    7.6200    0.0000 C   0  0  0  0  0  0  0  0  0  0  0  0
    1.7320    4.1200    0.0000 C   0  0  0  0  0  0  0  0  0  0  0  0
    0.8660    8.6200    0.0000 C   0  0  0  0  0  0  0  0  0  0  0  0
    1.7320    9.1200    0.0000 C   0  0  0  0  0  0  0  0  0  0  0  0
    2.5981    3.6200    0.0000 C   0  0  0  0  0  0  0  0  0  0  0  0
    2.5981    8.6200    0.0000 C   0  0  0  0  0  0  0  0  0  0  0  0
    2.5981    2.6200    0.0000 C   0  0  0  0  0  0  0  0  0  0  0  0
    1.7320   10.1200    0.0000 C   0  0  0  0  0  0  0  0  0  0  0  0
    1.7320    2.1200    0.0000 C   0  0  0  0  0  0  0  0  0  0  0  0
    3.4641    2.1200    0.0000 C   0  0  0  0  0  0  0  0  0  0  0  0
    2.5411   10.7078    0.0000 C   0  0  0  0  0  0  0  0  0  0  0  0
    2.2320   11.6588    0.0000 C   0  0  0  0  0  0  0  0  0  0  0  0
    1.7320    1.1200    0.0000 C   0  0  0  0  0  0  0  0  0  0  0  0
    3.4641    1.1200    0.0000 C   0  0  0  0  0  0  0  0  0  0  0  0
    1.2320   11.6588    0.0000 C   0  0  0  0  0  0  0  0  0  0  0  0
    2.5981    0.6200    0.0000 C   0  0  0  0  0  0  0  0  0  0  0  0
    0.6540    7.2026    0.0000 H   0  0  0  0  0  0  0  0  0  0  0  0
    0.2554    6.5123    0.0000 H   0  0  0  0  0  0  0  0  0  0  0  0
    3.2087    6.5123    0.0000 H   0  0  0  0  0  0  0  0  0  0  0  0
    2.8101    7.2026    0.0000 H   0  0  0  0  0  0  0  0  0  0  0  0
    0.2554    5.7277    0.0000 H   0  0  0  0  0  0  0  0  0  0  0  0
    0.6540    5.0374    0.0000 H   0  0  0  0  0  0  0  0  0  0  0  0
    2.8101    5.0374    0.0000 H   0  0  0  0  0  0  0  0  0  0  0  0
    3.2087    5.7277    0.0000 H   0  0  0  0  0  0  0  0  0  0  0  0
    0.2554    7.7277    0.0000 H   0  0  0  0  0  0  0  0  0  0  0  0
    0.6540    7.0374    0.0000 H   0  0  0  0  0  0  0  0  0  0  0  0
    1.1215    4.2277    0.0000 H   0  0  0  0  0  0  0  0  0  0  0  0
    1.5200    3.5374    0.0000 H   0  0  0  0  0  0  0  0  0  0  0  0
    3.2087    3.5123    0.0000 H   0  0  0  0  0  0  0  0  0  0  0  0
    2.8101    4.2026    0.0000 H   0  0  0  0  0  0  0  0  0  0  0  0
    3.1350    8.9300    0.0000 H   0  0  0  0  0  0  0  0  0  0  0  0
    1.1951    2.4300    0.0000 H   0  0  0  0  0  0  0  0  0  0  0  0
    4.0010    2.4300    0.0000 H   0  0  0  0  0  0  0  0  0  0  0  0
    3.1307   10.5162    0.0000 H   0  0  0  0  0  0  0  0  0  0  0  0
    2.5965   12.1604    0.0000 H   0  0  0  0  0  0  0  0  0  0  0  0
    1.1951    0.8100    0.0000 H   0  0  0  0  0  0  0  0  0  0  0  0
    4.0010    0.8100    0.0000 H   0  0  0  0  0  0  0  0  0  0  0  0
    0.8676   12.1604    0.0000 H   0  0  0  0  0  0  0  0  0  0  0  0
    2.5981    0.0000    0.0000 H   0  0  0  0  0  0  0  0  0  0  0  0
    7.0010    5.8302    0.0000 H   0  0  0  0  0  0  0  0  0  0  0  0
  1 50  1  0  0  0  0
  2 18  1  0  0  0  0
  2 25  1  0  0  0  0
  3  6  1  0  0  0  0
  3 16  1  0  0  0  0
  4 13  2  0  0  0  0
  5  9  1  0  0  0  0
  5 10  1  0  0  0  0
  5 12  1  0  0  0  0
  6  7  1  0  0  0  0
  6  8  1  0  0  0  0
  6 11  1  0  0  0  0
  7  9  1  0  0  0  0
  7 27  1  0  0  0  0
  7 28  1  0  0  0  0
  8 10  1  0  0  0  0
  8 29  1  0  0  0  0
  8 30  1  0  0  0  0
  9 31  1  0  0  0  0
  9 32  1  0  0  0  0
 10 33  1  0  0  0  0
 10 34  1  0  0  0  0
 11 13  1  0  0  0  0
 11 35  1  0  0  0  0
 11 36  1  0  0  0  0
 12 15  1  0  0  0  0
 12 37  1  0  0  0  0
 12 38  1  0  0  0  0
 13 14  1  0  0  0  0
 14 16  2  0  0  0  0
 14 18  1  0  0  0  0
 15 17  1  0  0  0  0
 15 39  1  0  0  0  0
 15 40  1  0  0  0  0
 16 41  1  0  0  0  0
 17 19  2  0  0  0  0
 17 20  1  0  0  0  0
 18 21  2  0  0  0  0
 19 23  1  0  0  0  0
 19 42  1  0  0  0  0
 20 24  2  0  0  0  0
 20 43  1  0  0  0  0
 21 22  1  0  0  0  0
 21 44  1  0  0  0  0
 22 25  2  0  0  0  0
 22 45  1  0  0  0  0
 23 26  2  0  0  0  0
 23 46  1  0  0  0  0
 24 26  1  0  0  0  0
 24 47  1  0  0  0  0
 25 48  1  0  0  0  0
 26 49  1  0  0  0  0
M  END
> <PUBCHEM_COMPOUND_CID>
45260677

> <PUBCHEM_COMPOUND_CANONICALIZED>
1

> <PUBCHEM_CACTVS_COMPLEXITY>
504

> <PUBCHEM_CACTVS_HBOND_ACCEPTOR>
4

> <PUBCHEM_CACTVS_HBOND_DONOR>
1

> <PUBCHEM_CACTVS_ROTATABLE_BOND>
4

> <PUBCHEM_CACTVS_SUBSKEYS>
AAADceB6MABEAAAAAAAAAAAAAAAAASAAAAA8QIAAAAAAAAABwAAAHgQAAAAADETl2AawAYMABAiMAqBSAAADCIAgKBBIiBkIAMgIIDaglRGEIAAmoACoiIeYyeAOAAAAAAAAAAAAAAAAAAAAAAAAAAAAAA==

> <PUBCHEM_IUPAC_OPENEYE_NAME>
9-(2-phenylethyl)-3-(2-thienyl)-1-oxa-9-azaspiro[5.5]undec-2-en-4-one;hydrochloride

> <PUBCHEM_IUPAC_CAS_NAME>
9-(2-phenylethyl)-3-thiophen-2-yl-1-oxa-9-azaspiro[5.5]undec-2-en-4-one;hydrochloride

> <PUBCHEM_IUPAC_NAME_MARKUP>
9-(2-phenylethyl)-3-thiophen-2-yl-1-oxa-9-azaspiro[5.5]undec-2-en-4-one;hydrochloride

> <PUBCHEM_IUPAC_NAME>
9-(2-phenylethyl)-3-thiophen-2-yl-1-oxa-9-azaspiro[5.5]undec-2-en-4-one;hydrochloride

> <PUBCHEM_IUPAC_SYSTEMATIC_NAME>
9-(2-phenylethyl)-3-thiophen-2-yl-1-oxa-9-azaspiro[5.5]undec-2-en-4-one;hydrochloride

> <PUBCHEM_IUPAC_TRADITIONAL_NAME>
9-phenethyl-3-(2-thienyl)-1-oxa-9-azaspiro[5.5]undec-2-en-4-one;hydrochloride

> <PUBCHEM_IUPAC_INCHI>
InChI=1S/C21H23NO2S.ClH/c23-19-15-21(24-16-18(19)20-7-4-14-25-20)9-12-22(13-10-21)11-8-17-5-2-1-3-6-17;/h1-7,14,16H,8-13,15H2;1H

> <PUBCHEM_IUPAC_INCHIKEY>
KLAPPZWINHUPJY-UHFFFAOYSA-N

> <PUBCHEM_EXACT_MASS>
389.1216279

> <PUBCHEM_MOLECULAR_FORMULA>
C21H24ClNO2S

> <PUBCHEM_MOLECULAR_WEIGHT>
389.9

> <PUBCHEM_OPENEYE_CAN_SMILES>
C1CN(CCC12CC(=O)C(=CO2)C3=CC=CS3)CCC4=CC=CC=C4.Cl

> <PUBCHEM_OPENEYE_ISO_SMILES>
C1CN(CCC12CC(=O)C(=CO2)C3=CC=CS3)CCC4=CC=CC=C4.Cl

> <PUBCHEM_CACTVS_TPSA>
57.8

> <PUBCHEM_MONOISOTOPIC_WEIGHT>
389.1216279

> <PUBCHEM_TOTAL_CHARGE>
0

> <PUBCHEM_HEAVY_ATOM_COUNT>
26

> <PUBCHEM_ATOM_DEF_STEREO_COUNT>
0

> <PUBCHEM_ATOM_UDEF_STEREO_COUNT>
0

> <PUBCHEM_BOND_DEF_STEREO_COUNT>
0

> <PUBCHEM_BOND_UDEF_STEREO_COUNT>
0

> <PUBCHEM_ISOTOPIC_ATOM_COUNT>
0

> <PUBCHEM_COMPONENT_COUNT>
2

> <PUBCHEM_CACTVS_TAUTO_COUNT>
-1

> <PUBCHEM_COORDINATE_TYPE>
1
5
255

> <PUBCHEM_BONDANNOTATIONS>
17  19  8
17  20  8
18  21  8
19  23  8
2  18  8
2  25  8
20  24  8
21  22  8
22  25  8
23  26  8
24  26  8

$$$$
