11652965
  -OEChem-09292322482D

 52 54  0     1  0  0  0  0  0999 V2000
    2.8641   -2.5088    0.0000 O   0  0  0  0  0  0  0  0  0  0  0  0
    4.6380   -3.5330    0.0000 O   0  0  0  0  0  0  0  0  0  0  0  0
    5.5161    2.0363    0.0000 N   0  0  3  0  0  0  0  0  0  0  0  0
    5.5161    1.0363    0.0000 C   0  0  0  0  0  0  0  0  0  0  0  0
    6.3821    2.5363    0.0000 C   0  0  0  0  0  0  0  0  0  0  0  0
    4.6501    0.5363    0.0000 C   0  0  0  0  0  0  0  0  0  0  0  0
    7.2482    2.0363    0.0000 C   0  0  0  0  0  0  0  0  0  0  0  0
    4.6501   -0.4637    0.0000 C   0  0  0  0  0  0  0  0  0  0  0  0
    5.5161   -0.9637    0.0000 C   0  0  0  0  0  0  0  0  0  0  0  0
    6.3821   -0.4637    0.0000 C   0  0  0  0  0  0  0  0  0  0  0  0
    7.2482    1.0363    0.0000 C   0  0  0  0  0  0  0  0  0  0  0  0
    6.3821    0.5363    0.0000 C   0  0  0  0  0  0  0  0  0  0  0  0
    4.6501    2.5363    0.0000 C   0  0  0  0  0  0  0  0  0  0  0  0
    3.7401   -0.9706    0.0000 C   0  0  0  0  0  0  0  0  0  0  0  0
    5.5322   -2.0052    0.0000 C   0  0  0  0  0  0  0  0  0  0  0  0
    8.6595    0.4592    0.0000 C   0  0  0  0  0  0  0  0  0  0  0  0
    6.1763   -0.9745    0.0000 C   0  0  0  0  0  0  0  0  0  0  0  0
    3.7320   -2.0122    0.0000 C   0  0  0  0  0  0  0  0  0  0  0  0
    4.6341   -2.5330    0.0000 C   0  0  0  0  0  0  0  0  0  0  0  0
    8.7626   -1.0621    0.0000 C   0  0  0  0  0  0  0  0  0  0  0  0
    7.4421   -1.8245    0.0000 C   0  0  0  0  0  0  0  0  0  0  0  0
    4.6501    3.5363    0.0000 C   0  0  0  0  0  0  0  0  0  0  0  0
    3.7840    4.0363    0.0000 C   0  0  0  0  0  0  0  0  0  0  0  0
    2.0000   -2.0055    0.0000 C   0  0  0  0  0  0  0  0  0  0  0  0
    3.7739   -4.0363    0.0000 C   0  0  0  0  0  0  0  0  0  0  0  0
    5.7282    0.4537    0.0000 H   0  0  0  0  0  0  0  0  0  0  0  0
    6.1267    1.1440    0.0000 H   0  0  0  0  0  0  0  0  0  0  0  0
    6.7806    3.0112    0.0000 H   0  0  0  0  0  0  0  0  0  0  0  0
    5.9836    3.0112    0.0000 H   0  0  0  0  0  0  0  0  0  0  0  0
    4.4380    1.1189    0.0000 H   0  0  0  0  0  0  0  0  0  0  0  0
    4.0395    0.4286    0.0000 H   0  0  0  0  0  0  0  0  0  0  0  0
    7.8587    1.9286    0.0000 H   0  0  0  0  0  0  0  0  0  0  0  0
    7.4602    2.6189    0.0000 H   0  0  0  0  0  0  0  0  0  0  0  0
    6.5942   -1.0463    0.0000 H   0  0  0  0  0  0  0  0  0  0  0  0
    6.9927   -0.3560    0.0000 H   0  0  0  0  0  0  0  0  0  0  0  0
    4.0395    2.6440    0.0000 H   0  0  0  0  0  0  0  0  0  0  0  0
    4.4380    1.9537    0.0000 H   0  0  0  0  0  0  0  0  0  0  0  0
    3.2068   -0.6544    0.0000 H   0  0  0  0  0  0  0  0  0  0  0  0
    6.0726   -2.3090    0.0000 H   0  0  0  0  0  0  0  0  0  0  0  0
    9.1622    0.8220    0.0000 H   0  0  0  0  0  0  0  0  0  0  0  0
    5.6107   -1.2285    0.0000 H   0  0  0  0  0  0  0  0  0  0  0  0
    9.3097   -1.3537    0.0000 H   0  0  0  0  0  0  0  0  0  0  0  0
    7.4212   -2.4441    0.0000 H   0  0  0  0  0  0  0  0  0  0  0  0
    5.1870    3.8463    0.0000 H   0  0  0  0  0  0  0  0  0  0  0  0
    3.7840    4.6563    0.0000 H   0  0  0  0  0  0  0  0  0  0  0  0
    3.2471    3.7263    0.0000 H   0  0  0  0  0  0  0  0  0  0  0  0
    2.3121   -1.4697    0.0000 H   0  0  0  0  0  0  0  0  0  0  0  0
    1.4643   -1.6934    0.0000 H   0  0  0  0  0  0  0  0  0  0  0  0
    1.6879   -2.5412    0.0000 H   0  0  0  0  0  0  0  0  0  0  0  0
    3.4618   -3.5006    0.0000 H   0  0  0  0  0  0  0  0  0  0  0  0
    3.2381   -4.3484    0.0000 H   0  0  0  0  0  0  0  0  0  0  0  0
    4.0860   -4.5720    0.0000 H   0  0  0  0  0  0  0  0  0  0  0  0
  1 18  1  0  0  0  0
  1 24  1  0  0  0  0
  2 19  1  0  0  0  0
  2 25  1  0  0  0  0
  3  4  1  0  0  0  0
  3  5  1  0  0  0  0
  3 13  1  0  0  0  0
  4  6  1  0  0  0  0
  4 26  1  0  0  0  0
  4 27  1  0  0  0  0
  5  7  1  0  0  0  0
  5 28  1  0  0  0  0
  5 29  1  0  0  0  0
  6  8  1  0  0  0  0
  6 30  1  0  0  0  0
  6 31  1  0  0  0  0
  7 11  1  0  0  0  0
  7 32  1  0  0  0  0
  7 33  1  0  0  0  0
  8  9  1  0  0  0  0
  8 14  2  0  0  0  0
  9 10  1  0  0  0  0
  9 15  2  0  0  0  0
 10 12  1  0  0  0  0
 10 34  1  0  0  0  0
 10 35  1  0  0  0  0
 11 12  1  0  0  0  0
 11 16  2  0  0  0  0
 12 17  2  0  0  0  0
 13 22  1  0  0  0  0
 13 36  1  0  0  0  0
 13 37  1  0  0  0  0
 14 18  1  0  0  0  0
 14 38  1  0  0  0  0
 15 19  1  0  0  0  0
 15 39  1  0  0  0  0
 16 20  1  0  0  0  0
 16 40  1  0  0  0  0
 17 21  1  0  0  0  0
 17 41  1  0  0  0  0
 18 19  2  0  0  0  0
 20 21  2  0  0  0  0
 20 42  1  0  0  0  0
 21 43  1  0  0  0  0
 22 23  2  0  0  0  0
 22 44  1  0  0  0  0
 23 45  1  0  0  0  0
 23 46  1  0  0  0  0
 24 47  1  0  0  0  0
 24 48  1  0  0  0  0
 24 49  1  0  0  0  0
 25 50  1  0  0  0  0
 25 51  1  0  0  0  0
 25 52  1  0  0  0  0
M  END
> <PUBCHEM_COMPOUND_CID>
11652965

> <PUBCHEM_COMPOUND_CANONICALIZED>
1

> <PUBCHEM_CACTVS_COMPLEXITY>
413

> <PUBCHEM_CACTVS_HBOND_ACCEPTOR>
3

> <PUBCHEM_CACTVS_HBOND_DONOR>
0

> <PUBCHEM_CACTVS_ROTATABLE_BOND>
4

> <PUBCHEM_CACTVS_SUBSKEYS>
AAADceB6MAAAAAAAAAAAAAAAAAAAAAAAAAAwYAAAAAAAAACxQAAAHgAAAAAADATBmAYyBoMABACAAiBCAACCCAAgIAAIiAAOiIgNJiKEsRuEMCIkwBGKqAeQ0PIOoAABAAAQQABAAAIAACCAAAAAAAAAAA==

> <PUBCHEM_IUPAC_OPENEYE_NAME>
11-allyl-5,6-dimethoxy-11-azatricyclo[12.4.0.03,8]octadeca-1(18),3,5,7,14,16-hexaene

> <PUBCHEM_IUPAC_CAS_NAME>
5,6-dimethoxy-11-prop-2-enyl-11-azatricyclo[12.4.0.03,8]octadeca-1(18),3,5,7,14,16-hexaene

> <PUBCHEM_IUPAC_NAME_MARKUP>
5,6-dimethoxy-11-prop-2-enyl-11-azatricyclo[12.4.0.0<SUP>3,8</SUP>]octadeca-1(18),3,5,7,14,16-hexaene

> <PUBCHEM_IUPAC_NAME>
5,6-dimethoxy-11-prop-2-enyl-11-azatricyclo[12.4.0.03,8]octadeca-1(18),3,5,7,14,16-hexaene

> <PUBCHEM_IUPAC_SYSTEMATIC_NAME>
5,6-dimethoxy-11-prop-2-enyl-11-azatricyclo[12.4.0.03,8]octadeca-1(18),3,5,7,14,16-hexaene

> <PUBCHEM_IUPAC_TRADITIONAL_NAME>
11-allyl-5,6-dimethoxy-11-azatricyclo[12.4.0.03,8]octadeca-1(18),3,5,7,14,16-hexaene

> <PUBCHEM_IUPAC_INCHI>
InChI=1S/C22H27NO2/c1-4-11-23-12-9-17-7-5-6-8-18(17)14-20-16-22(25-3)21(24-2)15-19(20)10-13-23/h4-8,15-16H,1,9-14H2,2-3H3

> <PUBCHEM_IUPAC_INCHIKEY>
GYLIWJFZRVUBRM-UHFFFAOYSA-N

> <PUBCHEM_XLOGP3_AA>
4.8

> <PUBCHEM_EXACT_MASS>
337.204179104

> <PUBCHEM_MOLECULAR_FORMULA>
C22H27NO2

> <PUBCHEM_MOLECULAR_WEIGHT>
337.5

> <PUBCHEM_OPENEYE_CAN_SMILES>
COC1=C(C=C2CC3=CC=CC=C3CCN(CCC2=C1)CC=C)OC

> <PUBCHEM_OPENEYE_ISO_SMILES>
COC1=C(C=C2CC3=CC=CC=C3CCN(CCC2=C1)CC=C)OC

> <PUBCHEM_CACTVS_TPSA>
21.7

> <PUBCHEM_MONOISOTOPIC_WEIGHT>
337.204179104

> <PUBCHEM_TOTAL_CHARGE>
0

> <PUBCHEM_HEAVY_ATOM_COUNT>
25

> <PUBCHEM_ATOM_DEF_STEREO_COUNT>
0

> <PUBCHEM_ATOM_UDEF_STEREO_COUNT>
0

> <PUBCHEM_BOND_DEF_STEREO_COUNT>
0

> <PUBCHEM_BOND_UDEF_STEREO_COUNT>
0

> <PUBCHEM_ISOTOPIC_ATOM_COUNT>
0

> <PUBCHEM_COMPONENT_COUNT>
1

> <PUBCHEM_CACTVS_TAUTO_COUNT>
-1

> <PUBCHEM_COORDINATE_TYPE>
1
5
255

> <PUBCHEM_BONDANNOTATIONS>
11  12  8
11  16  8
12  17  8
14  18  8
15  19  8
16  20  8
17  21  8
18  19  8
20  21  8
8  14  8
8  9  8
9  15  8

$$$$
