44591587
  -OEChem-09292322232D

 54 56  0     1  0  0  0  0  0999 V2000
    9.8461    1.2742    0.0000 O   0  0  0  0  0  0  0  0  0  0  0  0
    6.3359    1.2568    0.0000 O   0  0  0  0  0  0  0  0  0  0  0  0
   11.6382    0.2395    0.0000 N   0  0  3  0  0  0  0  0  0  0  0  0
    5.4641   -0.2398    0.0000 N   0  0  0  0  0  0  0  0  0  0  0  0
   10.7282   -0.2673    0.0000 C   0  0  1  0  0  0  0  0  0  0  0  0
    9.8622    0.2327    0.0000 C   0  0  1  0  0  0  0  0  0  0  0  0
   10.7282   -1.2673    0.0000 C   0  0  0  0  0  0  0  0  0  0  0  0
    8.9961   -0.2673    0.0000 C   0  0  0  0  0  0  0  0  0  0  0  0
    9.8622   -1.7673    0.0000 C   0  0  0  0  0  0  0  0  0  0  0  0
   11.6462    1.2812    0.0000 C   0  0  0  0  0  0  0  0  0  0  0  0
    8.9961   -1.2673    0.0000 C   0  0  0  0  0  0  0  0  0  0  0  0
   10.7441    1.8020    0.0000 C   0  0  0  0  0  0  0  0  0  0  0  0
   12.4984   -0.2704    0.0000 C   0  0  0  0  0  0  0  0  0  0  0  0
    8.1022    0.2674    0.0000 C   0  0  0  0  0  0  0  0  0  0  0  0
    8.1022   -1.8020    0.0000 C   0  0  0  0  0  0  0  0  0  0  0  0
   13.3701    0.2195    0.0000 C   0  0  0  0  0  0  0  0  0  0  0  0
    7.1961   -0.2465    0.0000 C   0  0  0  0  0  0  0  0  0  0  0  0
    7.1961   -1.2881    0.0000 C   0  0  0  0  0  0  0  0  0  0  0  0
   14.2303   -0.2905    0.0000 C   0  0  0  0  0  0  0  0  0  0  0  0
    6.3320    0.2568    0.0000 C   0  0  0  0  0  0  0  0  0  0  0  0
    4.6000    0.2635    0.0000 C   0  0  0  0  0  0  0  0  0  0  0  0
    3.7320   -0.2331    0.0000 C   0  0  0  0  0  0  0  0  0  0  0  0
    2.8680    0.2702    0.0000 C   0  0  0  0  0  0  0  0  0  0  0  0
    2.0000   -0.2265    0.0000 C   0  0  0  0  0  0  0  0  0  0  0  0
   11.4610   -0.6980    0.0000 H   0  0  0  0  0  0  0  0  0  0  0  0
   10.5950    0.6634    0.0000 H   0  0  0  0  0  0  0  0  0  0  0  0
   10.9402   -1.8499    0.0000 H   0  0  0  0  0  0  0  0  0  0  0  0
   11.3388   -1.1596    0.0000 H   0  0  0  0  0  0  0  0  0  0  0  0
    9.4636   -2.2422    0.0000 H   0  0  0  0  0  0  0  0  0  0  0  0
   10.2607   -2.2422    0.0000 H   0  0  0  0  0  0  0  0  0  0  0  0
   12.2562    1.1704    0.0000 H   0  0  0  0  0  0  0  0  0  0  0  0
   11.8598    1.8632    0.0000 H   0  0  0  0  0  0  0  0  0  0  0  0
   11.1414    2.2779    0.0000 H   0  0  0  0  0  0  0  0  0  0  0  0
   10.3432    2.2748    0.0000 H   0  0  0  0  0  0  0  0  0  0  0  0
   12.0944   -0.7407    0.0000 H   0  0  0  0  0  0  0  0  0  0  0  0
   12.8914   -0.7500    0.0000 H   0  0  0  0  0  0  0  0  0  0  0  0
    8.1093    0.8873    0.0000 H   0  0  0  0  0  0  0  0  0  0  0  0
    8.1093   -2.4219    0.0000 H   0  0  0  0  0  0  0  0  0  0  0  0
   13.7741    0.6898    0.0000 H   0  0  0  0  0  0  0  0  0  0  0  0
   12.9771    0.6990    0.0000 H   0  0  0  0  0  0  0  0  0  0  0  0
    6.6604   -1.6002    0.0000 H   0  0  0  0  0  0  0  0  0  0  0  0
   13.9141   -0.8238    0.0000 H   0  0  0  0  0  0  0  0  0  0  0  0
   14.7636   -0.6067    0.0000 H   0  0  0  0  0  0  0  0  0  0  0  0
   14.5465    0.2429    0.0000 H   0  0  0  0  0  0  0  0  0  0  0  0
    5.4617   -0.8598    0.0000 H   0  0  0  0  0  0  0  0  0  0  0  0
    5.0003    0.7369    0.0000 H   0  0  0  0  0  0  0  0  0  0  0  0
    4.2033    0.7400    0.0000 H   0  0  0  0  0  0  0  0  0  0  0  0
    3.3317   -0.7065    0.0000 H   0  0  0  0  0  0  0  0  0  0  0  0
    4.1287   -0.7096    0.0000 H   0  0  0  0  0  0  0  0  0  0  0  0
    3.2683    0.7436    0.0000 H   0  0  0  0  0  0  0  0  0  0  0  0
    2.4712    0.7467    0.0000 H   0  0  0  0  0  0  0  0  0  0  0  0
    1.6921    0.3117    0.0000 H   0  0  0  0  0  0  0  0  0  0  0  0
    1.4619   -0.5344    0.0000 H   0  0  0  0  0  0  0  0  0  0  0  0
    2.3079   -0.7646    0.0000 H   0  0  0  0  0  0  0  0  0  0  0  0
  1  6  1  0  0  0  0
  1 12  1  0  0  0  0
  2 20  2  0  0  0  0
  3  5  1  0  0  0  0
  3 10  1  0  0  0  0
  3 13  1  0  0  0  0
  4 20  1  0  0  0  0
  4 21  1  0  0  0  0
  4 45  1  0  0  0  0
  5  6  1  0  0  0  0
  5  7  1  0  0  0  0
  5 25  1  1  0  0  0
  6  8  1  0  0  0  0
  6 26  1  6  0  0  0
  7  9  1  0  0  0  0
  7 27  1  0  0  0  0
  7 28  1  0  0  0  0
  8 11  2  0  0  0  0
  8 14  1  0  0  0  0
  9 11  1  0  0  0  0
  9 29  1  0  0  0  0
  9 30  1  0  0  0  0
 10 12  1  0  0  0  0
 10 31  1  0  0  0  0
 10 32  1  0  0  0  0
 11 15  1  0  0  0  0
 12 33  1  0  0  0  0
 12 34  1  0  0  0  0
 13 16  1  0  0  0  0
 13 35  1  0  0  0  0
 13 36  1  0  0  0  0
 14 17  2  0  0  0  0
 14 37  1  0  0  0  0
 15 18  2  0  0  0  0
 15 38  1  0  0  0  0
 16 19  1  0  0  0  0
 16 39  1  0  0  0  0
 16 40  1  0  0  0  0
 17 18  1  0  0  0  0
 17 20  1  0  0  0  0
 18 41  1  0  0  0  0
 19 42  1  0  0  0  0
 19 43  1  0  0  0  0
 19 44  1  0  0  0  0
 21 22  1  0  0  0  0
 21 46  1  0  0  0  0
 21 47  1  0  0  0  0
 22 23  1  0  0  0  0
 22 48  1  0  0  0  0
 22 49  1  0  0  0  0
 23 24  1  0  0  0  0
 23 50  1  0  0  0  0
 23 51  1  0  0  0  0
 24 52  1  0  0  0  0
 24 53  1  0  0  0  0
 24 54  1  0  0  0  0
M  END
> <PUBCHEM_COMPOUND_CID>
44591587

> <PUBCHEM_COMPOUND_CANONICALIZED>
1

> <PUBCHEM_CACTVS_COMPLEXITY>
414

> <PUBCHEM_CACTVS_HBOND_ACCEPTOR>
3

> <PUBCHEM_CACTVS_HBOND_DONOR>
1

> <PUBCHEM_CACTVS_ROTATABLE_BOND>
6

> <PUBCHEM_CACTVS_SUBSKEYS>
AAADceB7MAAAAAAAAAAAAAAAAAAAAAAAAAA8YIAAAAAAAADxAAAAHgAQAAAADDzhmAYyAIPABACIAiFSEACCAAAkAAAIiIEIDMgKJjKAtRmHMQhk1gGYqYeY3PLOwAACAAAQAACQAAaAADAgAAAAAAAAAA==

> <PUBCHEM_IUPAC_OPENEYE_NAME>
(4aR,10bR)-N-butyl-4-propyl-2,3,4a,5,6,10b-hexahydrobenzo[h][1,4]benzoxazine-9-carboxamide

> <PUBCHEM_IUPAC_CAS_NAME>
(4aR,10bR)-N-butyl-4-propyl-2,3,4a,5,6,10b-hexahydrobenzo[h][1,4]benzoxazine-9-carboxamide

> <PUBCHEM_IUPAC_NAME_MARKUP>
(4<I>a</I><I>R</I>,10<I>b</I><I>R</I>)-<I>N</I>-butyl-4-propyl-2,3,4<I>a</I>,5,6,10<I>b</I>-hexahydrobenzo[h][1,4]benzoxazine-9-carboxamide

> <PUBCHEM_IUPAC_NAME>
(4aR,10bR)-N-butyl-4-propyl-2,3,4a,5,6,10b-hexahydrobenzo[h][1,4]benzoxazine-9-carboxamide

> <PUBCHEM_IUPAC_SYSTEMATIC_NAME>
(4aR,10bR)-N-butyl-4-propyl-2,3,4a,5,6,10b-hexahydrobenzo[h][1,4]benzoxazine-9-carboxamide

> <PUBCHEM_IUPAC_TRADITIONAL_NAME>
(4aR,10bR)-N-butyl-4-propyl-2,3,4a,5,6,10b-hexahydrobenzo[h][1,4]benzoxazine-9-carboxamide

> <PUBCHEM_IUPAC_INCHI>
InChI=1S/C20H30N2O2/c1-3-5-10-21-20(23)16-7-6-15-8-9-18-19(17(15)14-16)24-13-12-22(18)11-4-2/h6-7,14,18-19H,3-5,8-13H2,1-2H3,(H,21,23)/t18-,19-/m1/s1

> <PUBCHEM_IUPAC_INCHIKEY>
PAZHMMYMPVTXLZ-RTBURBONSA-N

> <PUBCHEM_XLOGP3>
3.3

> <PUBCHEM_EXACT_MASS>
330.230728204

> <PUBCHEM_MOLECULAR_FORMULA>
C20H30N2O2

> <PUBCHEM_MOLECULAR_WEIGHT>
330.5

> <PUBCHEM_OPENEYE_CAN_SMILES>
CCCCNC(=O)C1=CC2=C(CCC3C2OCCN3CCC)C=C1

> <PUBCHEM_OPENEYE_ISO_SMILES>
CCCCNC(=O)C1=CC2=C(CC[C@@H]3[C@@H]2OCCN3CCC)C=C1

> <PUBCHEM_CACTVS_TPSA>
41.6

> <PUBCHEM_MONOISOTOPIC_WEIGHT>
330.230728204

> <PUBCHEM_TOTAL_CHARGE>
0

> <PUBCHEM_HEAVY_ATOM_COUNT>
24

> <PUBCHEM_ATOM_DEF_STEREO_COUNT>
2

> <PUBCHEM_ATOM_UDEF_STEREO_COUNT>
0

> <PUBCHEM_BOND_DEF_STEREO_COUNT>
0

> <PUBCHEM_BOND_UDEF_STEREO_COUNT>
0

> <PUBCHEM_ISOTOPIC_ATOM_COUNT>
0

> <PUBCHEM_COMPONENT_COUNT>
1

> <PUBCHEM_CACTVS_TAUTO_COUNT>
-1

> <PUBCHEM_COORDINATE_TYPE>
1
5
255

> <PUBCHEM_BONDANNOTATIONS>
11  15  8
14  17  8
15  18  8
17  18  8
5  25  5
6  26  6
8  11  8
8  14  8

$$$$
