155558844
  -OEChem-09292322412D

 66 68  0     1  0  0  0  0  0999 V2000
    7.1424    0.0000    0.0000 Cl  0  0  0  0  0  0  0  0  0  0  0  0
   11.6648   11.5465    0.0000 F   0  0  0  0  0  0  0  0  0  0  0  0
   13.6648    8.0824    0.0000 O   0  0  0  0  0  0  0  0  0  0  0  0
    5.2988    3.2523    0.0000 O   0  0  0  0  0  0  0  0  0  0  0  0
    9.2988    6.7164    0.0000 N   0  0  3  0  0  0  0  0  0  0  0  0
    5.2988    4.9843    0.0000 N   0  0  0  0  0  0  0  0  0  0  0  0
    3.2152    3.3136    0.0000 N   0  0  0  0  0  0  0  0  0  0  0  0
   10.7988    7.5824    0.0000 C   0  0  3  0  0  0  0  0  0  0  0  0
   11.6648    8.0824    0.0000 C   0  0  3  0  0  0  0  0  0  0  0  0
   11.6648    7.0824    0.0000 C   0  0  0  0  0  0  0  0  0  0  0  0
    9.7988    7.5824    0.0000 C   0  0  0  0  0  0  0  0  0  0  0  0
   12.1648    8.9484    0.0000 C   0  0  0  0  0  0  0  0  0  0  0  0
   13.1648    8.9484    0.0000 C   0  0  0  0  0  0  0  0  0  0  0  0
    8.2988    6.7164    0.0000 C   0  0  0  0  0  0  0  0  0  0  0  0
   11.6648    9.8145    0.0000 C   0  0  0  0  0  0  0  0  0  0  0  0
    9.7988    5.8504    0.0000 C   0  0  0  0  0  0  0  0  0  0  0  0
    7.7988    5.8504    0.0000 C   0  0  0  0  0  0  0  0  0  0  0  0
   13.6648    9.8145    0.0000 C   0  0  0  0  0  0  0  0  0  0  0  0
   12.1648   10.6805    0.0000 C   0  0  0  0  0  0  0  0  0  0  0  0
    9.2988    4.9843    0.0000 C   0  0  0  0  0  0  0  0  0  0  0  0
   13.1648   10.6805    0.0000 C   0  0  0  0  0  0  0  0  0  0  0  0
    6.7988    5.8504    0.0000 C   0  0  0  0  0  0  0  0  0  0  0  0
    6.2988    4.9843    0.0000 C   0  0  0  0  0  0  0  0  0  0  0  0
   14.6648    8.0824    0.0000 C   0  0  0  0  0  0  0  0  0  0  0  0
    4.7988    4.1183    0.0000 C   0  0  0  0  0  0  0  0  0  0  0  0
    3.7988    4.1183    0.0000 C   0  0  0  0  0  0  0  0  0  0  0  0
    3.2152    4.9230    0.0000 C   0  0  0  0  0  0  0  0  0  0  0  0
    2.2690    3.6183    0.0000 C   0  0  0  0  0  0  0  0  0  0  0  0
    2.2690    4.6183    0.0000 C   0  0  0  0  0  0  0  0  0  0  0  0
    1.4030    3.1183    0.0000 C   0  0  0  0  0  0  0  0  0  0  0  0
    1.4030    5.1183    0.0000 C   0  0  0  0  0  0  0  0  0  0  0  0
    0.5369    3.6183    0.0000 C   0  0  0  0  0  0  0  0  0  0  0  0
    0.5369    4.6183    0.0000 C   0  0  0  0  0  0  0  0  0  0  0  0
   10.6383    8.1813    0.0000 H   0  0  0  0  0  0  0  0  0  0  0  0
   11.2264    8.5208    0.0000 H   0  0  0  0  0  0  0  0  0  0  0  0
   11.4528    6.4998    0.0000 H   0  0  0  0  0  0  0  0  0  0  0  0
   12.2754    6.9748    0.0000 H   0  0  0  0  0  0  0  0  0  0  0  0
    9.9065    8.1930    0.0000 H   0  0  0  0  0  0  0  0  0  0  0  0
    9.2162    7.7945    0.0000 H   0  0  0  0  0  0  0  0  0  0  0  0
    8.4065    7.3270    0.0000 H   0  0  0  0  0  0  0  0  0  0  0  0
    7.7162    6.9284    0.0000 H   0  0  0  0  0  0  0  0  0  0  0  0
   11.0448    9.8145    0.0000 H   0  0  0  0  0  0  0  0  0  0  0  0
   10.2738    5.4518    0.0000 H   0  0  0  0  0  0  0  0  0  0  0  0
   10.2738    6.2489    0.0000 H   0  0  0  0  0  0  0  0  0  0  0  0
    7.6912    5.2398    0.0000 H   0  0  0  0  0  0  0  0  0  0  0  0
    8.3814    5.6383    0.0000 H   0  0  0  0  0  0  0  0  0  0  0  0
   14.2848    9.8145    0.0000 H   0  0  0  0  0  0  0  0  0  0  0  0
    8.7619    5.2943    0.0000 H   0  0  0  0  0  0  0  0  0  0  0  0
    8.9888    4.4474    0.0000 H   0  0  0  0  0  0  0  0  0  0  0  0
    9.8358    4.6743    0.0000 H   0  0  0  0  0  0  0  0  0  0  0  0
   13.4748   11.2174    0.0000 H   0  0  0  0  0  0  0  0  0  0  0  0
    6.9065    6.4609    0.0000 H   0  0  0  0  0  0  0  0  0  0  0  0
    6.2162    6.0624    0.0000 H   0  0  0  0  0  0  0  0  0  0  0  0
    6.1912    4.3738    0.0000 H   0  0  0  0  0  0  0  0  0  0  0  0
    6.8814    4.7723    0.0000 H   0  0  0  0  0  0  0  0  0  0  0  0
   14.6648    7.4624    0.0000 H   0  0  0  0  0  0  0  0  0  0  0  0
   15.2848    8.0824    0.0000 H   0  0  0  0  0  0  0  0  0  0  0  0
   14.6648    8.7024    0.0000 H   0  0  0  0  0  0  0  0  0  0  0  0
    4.9888    5.5213    0.0000 H   0  0  0  0  0  0  0  0  0  0  0  0
    3.4078    2.7242    0.0000 H   0  0  0  0  0  0  0  0  0  0  0  0
    3.4078    5.5124    0.0000 H   0  0  0  0  0  0  0  0  0  0  0  0
    1.4030    2.4983    0.0000 H   0  0  0  0  0  0  0  0  0  0  0  0
    1.4030    5.7383    0.0000 H   0  0  0  0  0  0  0  0  0  0  0  0
    0.0000    3.3083    0.0000 H   0  0  0  0  0  0  0  0  0  0  0  0
    0.0000    4.9283    0.0000 H   0  0  0  0  0  0  0  0  0  0  0  0
    8.1424    0.0000    0.0000 H   0  0  0  0  0  0  0  0  0  0  0  0
  1 66  1  0  0  0  0
  2 19  1  0  0  0  0
  3 13  1  0  0  0  0
  3 24  1  0  0  0  0
  4 25  2  0  0  0  0
  5 11  1  0  0  0  0
  5 14  1  0  0  0  0
  5 16  1  0  0  0  0
  6 23  1  0  0  0  0
  6 25  1  0  0  0  0
  6 59  1  0  0  0  0
  7 26  1  0  0  0  0
  7 28  1  0  0  0  0
  7 60  1  0  0  0  0
  8  9  1  0  0  0  0
  8 10  1  0  0  0  0
  8 11  1  0  0  0  0
  8 34  1  0  0  0  0
  9 10  1  0  0  0  0
  9 12  1  0  0  0  0
  9 35  1  0  0  0  0
 10 36  1  0  0  0  0
 10 37  1  0  0  0  0
 11 38  1  0  0  0  0
 11 39  1  0  0  0  0
 12 13  2  0  0  0  0
 12 15  1  0  0  0  0
 13 18  1  0  0  0  0
 14 17  1  0  0  0  0
 14 40  1  0  0  0  0
 14 41  1  0  0  0  0
 15 19  2  0  0  0  0
 15 42  1  0  0  0  0
 16 20  1  0  0  0  0
 16 43  1  0  0  0  0
 16 44  1  0  0  0  0
 17 22  1  0  0  0  0
 17 45  1  0  0  0  0
 17 46  1  0  0  0  0
 18 21  2  0  0  0  0
 18 47  1  0  0  0  0
 19 21  1  0  0  0  0
 20 48  1  0  0  0  0
 20 49  1  0  0  0  0
 20 50  1  0  0  0  0
 21 51  1  0  0  0  0
 22 23  1  0  0  0  0
 22 52  1  0  0  0  0
 22 53  1  0  0  0  0
 23 54  1  0  0  0  0
 23 55  1  0  0  0  0
 24 56  1  0  0  0  0
 24 57  1  0  0  0  0
 24 58  1  0  0  0  0
 25 26  1  0  0  0  0
 26 27  2  0  0  0  0
 27 29  1  0  0  0  0
 27 61  1  0  0  0  0
 28 29  1  0  0  0  0
 28 30  2  0  0  0  0
 29 31  2  0  0  0  0
 30 32  1  0  0  0  0
 30 62  1  0  0  0  0
 31 33  1  0  0  0  0
 31 63  1  0  0  0  0
 32 33  2  0  0  0  0
 32 64  1  0  0  0  0
 33 65  1  0  0  0  0
M  END
> <PUBCHEM_COMPOUND_CID>
155558844

> <PUBCHEM_COMPOUND_CANONICALIZED>
1

> <PUBCHEM_CACTVS_COMPLEXITY>
606

> <PUBCHEM_CACTVS_HBOND_ACCEPTOR>
4

> <PUBCHEM_CACTVS_HBOND_DONOR>
3

> <PUBCHEM_CACTVS_ROTATABLE_BOND>
11

> <PUBCHEM_CACTVS_SUBSKEYS>
AAADcfB7MQAEAAAAAAAAAAAAGAAAAWAAAAAwYAAAAAAAAFgB9AAAHwAQAAAADQzBng4yxvPJlACoAyVyVACCiCAnIiAImaG+bNgMZvLEtbuUMShk1hHI6YeY2eKegAAAAAAKAAAAAAAAABQAAAAAAAAAAA==

> <PUBCHEM_IUPAC_OPENEYE_NAME>
N-[4-[ethyl-[[2-(5-fluoro-2-methoxy-phenyl)cyclopropyl]methyl]amino]butyl]-1H-indole-2-carboxamide;hydrochloride

> <PUBCHEM_IUPAC_CAS_NAME>
N-[4-[ethyl-[[2-(5-fluoro-2-methoxyphenyl)cyclopropyl]methyl]amino]butyl]-1H-indole-2-carboxamide;hydrochloride

> <PUBCHEM_IUPAC_NAME_MARKUP>
<I>N</I>-[4-[ethyl-[[2-(5-fluoro-2-methoxyphenyl)cyclopropyl]methyl]amino]butyl]-1<I>H</I>-indole-2-carboxamide;hydrochloride

> <PUBCHEM_IUPAC_NAME>
N-[4-[ethyl-[[2-(5-fluoro-2-methoxyphenyl)cyclopropyl]methyl]amino]butyl]-1H-indole-2-carboxamide;hydrochloride

> <PUBCHEM_IUPAC_SYSTEMATIC_NAME>
N-[4-[ethyl-[[2-(5-fluoranyl-2-methoxy-phenyl)cyclopropyl]methyl]amino]butyl]-1H-indole-2-carboxamide;hydrochloride

> <PUBCHEM_IUPAC_TRADITIONAL_NAME>
N-[4-[ethyl-[[2-(5-fluoro-2-methoxy-phenyl)cyclopropyl]methyl]amino]butyl]-1H-indole-2-carboxamide;hydrochloride

> <PUBCHEM_IUPAC_INCHI>
InChI=1S/C26H32FN3O2.ClH/c1-3-30(17-19-14-21(19)22-16-20(27)10-11-25(22)32-2)13-7-6-12-28-26(31)24-15-18-8-4-5-9-23(18)29-24;/h4-5,8-11,15-16,19,21,29H,3,6-7,12-14,17H2,1-2H3,(H,28,31);1H

> <PUBCHEM_IUPAC_INCHIKEY>
CWHBLABTNLKZBP-UHFFFAOYSA-N

> <PUBCHEM_EXACT_MASS>
473.2245332

> <PUBCHEM_MOLECULAR_FORMULA>
C26H33ClFN3O2

> <PUBCHEM_MOLECULAR_WEIGHT>
474.0

> <PUBCHEM_OPENEYE_CAN_SMILES>
CCN(CCCCNC(=O)C1=CC2=CC=CC=C2N1)CC3CC3C4=C(C=CC(=C4)F)OC.Cl

> <PUBCHEM_OPENEYE_ISO_SMILES>
CCN(CCCCNC(=O)C1=CC2=CC=CC=C2N1)CC3CC3C4=C(C=CC(=C4)F)OC.Cl

> <PUBCHEM_CACTVS_TPSA>
57.4

> <PUBCHEM_MONOISOTOPIC_WEIGHT>
473.2245332

> <PUBCHEM_TOTAL_CHARGE>
0

> <PUBCHEM_HEAVY_ATOM_COUNT>
33

> <PUBCHEM_ATOM_DEF_STEREO_COUNT>
0

> <PUBCHEM_ATOM_UDEF_STEREO_COUNT>
2

> <PUBCHEM_BOND_DEF_STEREO_COUNT>
0

> <PUBCHEM_BOND_UDEF_STEREO_COUNT>
0

> <PUBCHEM_ISOTOPIC_ATOM_COUNT>
0

> <PUBCHEM_COMPONENT_COUNT>
2

> <PUBCHEM_CACTVS_TAUTO_COUNT>
-1

> <PUBCHEM_COORDINATE_TYPE>
1
5
255

> <PUBCHEM_BONDANNOTATIONS>
12  13  8
12  15  8
13  18  8
15  19  8
18  21  8
19  21  8
26  27  8
27  29  8
28  29  8
28  30  8
29  31  8
30  32  8
31  33  8
32  33  8
7  26  8
7  28  8
8  11  3
9  12  3

$$$$
