168290061
  -OEChem-09292322442D

 54 56  0     0  0  0  0  0  0999 V2000
    4.5981    4.9050    0.0000 Cl  0  0  0  0  0  0  0  0  0  0  0  0
    2.8660    5.9050    0.0000 Cl  0  0  0  0  0  0  0  0  0  0  0  0
    6.3301    1.9050    0.0000 N   0  0  0  0  0  0  0  0  0  0  0  0
    4.5981    2.9050    0.0000 N   0  0  0  0  0  0  0  0  0  0  0  0
    8.9282   -2.5950    0.0000 N   0  0  0  0  0  0  0  0  0  0  0  0
    9.7942   -4.0950    0.0000 N   0  0  0  0  0  0  0  0  0  0  0  0
   10.6603   -2.5950    0.0000 N   0  0  0  0  0  0  0  0  0  0  0  0
   11.5263   -4.0950    0.0000 N   0  0  0  0  0  0  0  0  0  0  0  0
   10.6603   -5.5950    0.0000 N   0  0  0  0  0  0  0  0  0  0  0  0
   12.3923   -2.5950    0.0000 N   0  0  0  0  0  0  0  0  0  0  0  0
    6.3301    2.9050    0.0000 C   0  0  0  0  0  0  0  0  0  0  0  0
    5.4641    1.4050    0.0000 C   0  0  0  0  0  0  0  0  0  0  0  0
    5.4641    3.4050    0.0000 C   0  0  0  0  0  0  0  0  0  0  0  0
    4.5981    1.9050    0.0000 C   0  0  0  0  0  0  0  0  0  0  0  0
    7.1962    1.4050    0.0000 C   0  0  0  0  0  0  0  0  0  0  0  0
    7.1962    0.4050    0.0000 C   0  0  0  0  0  0  0  0  0  0  0  0
    8.0622   -0.0950    0.0000 C   0  0  0  0  0  0  0  0  0  0  0  0
    3.7320    3.4050    0.0000 C   0  0  0  0  0  0  0  0  0  0  0  0
    8.0622   -1.0950    0.0000 C   0  0  0  0  0  0  0  0  0  0  0  0
    8.9282   -1.5950    0.0000 C   0  0  0  0  0  0  0  0  0  0  0  0
    3.7320    4.4050    0.0000 C   0  0  0  0  0  0  0  0  0  0  0  0
    2.8660    2.9050    0.0000 C   0  0  0  0  0  0  0  0  0  0  0  0
    2.8660    4.9050    0.0000 C   0  0  0  0  0  0  0  0  0  0  0  0
    2.0000    3.4050    0.0000 C   0  0  0  0  0  0  0  0  0  0  0  0
    2.0000    4.4050    0.0000 C   0  0  0  0  0  0  0  0  0  0  0  0
    9.7942   -3.0950    0.0000 C   0  0  0  0  0  0  0  0  0  0  0  0
   10.6603   -4.5950    0.0000 C   0  0  0  0  0  0  0  0  0  0  0  0
   11.5263   -3.0950    0.0000 C   0  0  0  0  0  0  0  0  0  0  0  0
    6.9407    2.7973    0.0000 H   0  0  0  0  0  0  0  0  0  0  0  0
    6.5422    3.4876    0.0000 H   0  0  0  0  0  0  0  0  0  0  0  0
    5.0656    0.9301    0.0000 H   0  0  0  0  0  0  0  0  0  0  0  0
    5.8626    0.9301    0.0000 H   0  0  0  0  0  0  0  0  0  0  0  0
    5.8626    3.8800    0.0000 H   0  0  0  0  0  0  0  0  0  0  0  0
    5.0656    3.8800    0.0000 H   0  0  0  0  0  0  0  0  0  0  0  0
    3.9875    2.0127    0.0000 H   0  0  0  0  0  0  0  0  0  0  0  0
    4.3860    1.3224    0.0000 H   0  0  0  0  0  0  0  0  0  0  0  0
    7.8067    1.2973    0.0000 H   0  0  0  0  0  0  0  0  0  0  0  0
    7.4082    1.9876    0.0000 H   0  0  0  0  0  0  0  0  0  0  0  0
    6.5856    0.5127    0.0000 H   0  0  0  0  0  0  0  0  0  0  0  0
    6.9841   -0.1776    0.0000 H   0  0  0  0  0  0  0  0  0  0  0  0
    8.6728   -0.2027    0.0000 H   0  0  0  0  0  0  0  0  0  0  0  0
    8.2742    0.4876    0.0000 H   0  0  0  0  0  0  0  0  0  0  0  0
    7.4516   -0.9873    0.0000 H   0  0  0  0  0  0  0  0  0  0  0  0
    7.8501   -1.6776    0.0000 H   0  0  0  0  0  0  0  0  0  0  0  0
    9.5388   -1.7027    0.0000 H   0  0  0  0  0  0  0  0  0  0  0  0
    9.1403   -1.0124    0.0000 H   0  0  0  0  0  0  0  0  0  0  0  0
    2.8660    2.2850    0.0000 H   0  0  0  0  0  0  0  0  0  0  0  0
    1.4631    3.0950    0.0000 H   0  0  0  0  0  0  0  0  0  0  0  0
    8.3913   -2.9050    0.0000 H   0  0  0  0  0  0  0  0  0  0  0  0
    1.4631    4.7150    0.0000 H   0  0  0  0  0  0  0  0  0  0  0  0
   11.1972   -5.9050    0.0000 H   0  0  0  0  0  0  0  0  0  0  0  0
   10.1233   -5.9050    0.0000 H   0  0  0  0  0  0  0  0  0  0  0  0
   12.9292   -2.9050    0.0000 H   0  0  0  0  0  0  0  0  0  0  0  0
   12.3923   -1.9750    0.0000 H   0  0  0  0  0  0  0  0  0  0  0  0
  1 21  1  0  0  0  0
  2 23  1  0  0  0  0
  3 11  1  0  0  0  0
  3 12  1  0  0  0  0
  3 15  1  0  0  0  0
  4 13  1  0  0  0  0
  4 14  1  0  0  0  0
  4 18  1  0  0  0  0
  5 20  1  0  0  0  0
  5 26  1  0  0  0  0
  5 49  1  0  0  0  0
  6 26  2  0  0  0  0
  6 27  1  0  0  0  0
  7 26  1  0  0  0  0
  7 28  2  0  0  0  0
  8 27  2  0  0  0  0
  8 28  1  0  0  0  0
  9 27  1  0  0  0  0
  9 51  1  0  0  0  0
  9 52  1  0  0  0  0
 10 28  1  0  0  0  0
 10 53  1  0  0  0  0
 10 54  1  0  0  0  0
 11 13  1  0  0  0  0
 11 29  1  0  0  0  0
 11 30  1  0  0  0  0
 12 14  1  0  0  0  0
 12 31  1  0  0  0  0
 12 32  1  0  0  0  0
 13 33  1  0  0  0  0
 13 34  1  0  0  0  0
 14 35  1  0  0  0  0
 14 36  1  0  0  0  0
 15 16  1  0  0  0  0
 15 37  1  0  0  0  0
 15 38  1  0  0  0  0
 16 17  1  0  0  0  0
 16 39  1  0  0  0  0
 16 40  1  0  0  0  0
 17 19  1  0  0  0  0
 17 41  1  0  0  0  0
 17 42  1  0  0  0  0
 18 21  2  0  0  0  0
 18 22  1  0  0  0  0
 19 20  1  0  0  0  0
 19 43  1  0  0  0  0
 19 44  1  0  0  0  0
 20 45  1  0  0  0  0
 20 46  1  0  0  0  0
 21 23  1  0  0  0  0
 22 24  2  0  0  0  0
 22 47  1  0  0  0  0
 23 25  2  0  0  0  0
 24 25  1  0  0  0  0
 24 48  1  0  0  0  0
 25 50  1  0  0  0  0
M  END
> <PUBCHEM_COMPOUND_CID>
168290061

> <PUBCHEM_COMPOUND_CANONICALIZED>
1

> <PUBCHEM_CACTVS_COMPLEXITY>
441

> <PUBCHEM_CACTVS_HBOND_ACCEPTOR>
8

> <PUBCHEM_CACTVS_HBOND_DONOR>
3

> <PUBCHEM_CACTVS_ROTATABLE_BOND>
8

> <PUBCHEM_CACTVS_SUBSKEYS>
AAADceB7wAAGAAAAAAAAAAAAAAAAAAAAAAA8WIAAAAAAAAABwAAAHAIQAAAACArBECQx0IfIEACgACRCZACCAAkhB4AJisAIZoiIaCLBm5HUIAhokALIyAcQAAAAAAAAAAIAABQAAAAABAAAKAAAAAAAAA==

> <PUBCHEM_IUPAC_OPENEYE_NAME>
N2-[5-[4-(2,3-dichlorophenyl)piperazin-1-yl]pentyl]-1,3,5-triazine-2,4,6-triamine

> <PUBCHEM_IUPAC_CAS_NAME>
N2-[5-[4-(2,3-dichlorophenyl)-1-piperazinyl]pentyl]-1,3,5-triazine-2,4,6-triamine

> <PUBCHEM_IUPAC_NAME_MARKUP>
2-<I>N</I>-[5-[4-(2,3-dichlorophenyl)piperazin-1-yl]pentyl]-1,3,5-triazine-2,4,6-triamine

> <PUBCHEM_IUPAC_NAME>
2-N-[5-[4-(2,3-dichlorophenyl)piperazin-1-yl]pentyl]-1,3,5-triazine-2,4,6-triamine

> <PUBCHEM_IUPAC_SYSTEMATIC_NAME>
N2-[5-[4-[2,3-bis(chloranyl)phenyl]piperazin-1-yl]pentyl]-1,3,5-triazine-2,4,6-triamine

> <PUBCHEM_IUPAC_TRADITIONAL_NAME>
(4,6-diamino-s-triazin-2-yl)-[5-[4-(2,3-dichlorophenyl)piperazino]pentyl]amine

> <PUBCHEM_IUPAC_INCHI>
InChI=1S/C18H26Cl2N8/c19-13-5-4-6-14(15(13)20)28-11-9-27(10-12-28)8-3-1-2-7-23-18-25-16(21)24-17(22)26-18/h4-6H,1-3,7-12H2,(H5,21,22,23,24,25,26)

> <PUBCHEM_IUPAC_INCHIKEY>
CYVSYTNDELGUJS-UHFFFAOYSA-N

> <PUBCHEM_XLOGP3_AA>
3.6

> <PUBCHEM_EXACT_MASS>
424.1657483

> <PUBCHEM_MOLECULAR_FORMULA>
C18H26Cl2N8

> <PUBCHEM_MOLECULAR_WEIGHT>
425.4

> <PUBCHEM_OPENEYE_CAN_SMILES>
C1CN(CCN1CCCCCNC2=NC(=NC(=N2)N)N)C3=C(C(=CC=C3)Cl)Cl

> <PUBCHEM_OPENEYE_ISO_SMILES>
C1CN(CCN1CCCCCNC2=NC(=NC(=N2)N)N)C3=C(C(=CC=C3)Cl)Cl

> <PUBCHEM_CACTVS_TPSA>
109

> <PUBCHEM_MONOISOTOPIC_WEIGHT>
424.1657483

> <PUBCHEM_TOTAL_CHARGE>
0

> <PUBCHEM_HEAVY_ATOM_COUNT>
28

> <PUBCHEM_ATOM_DEF_STEREO_COUNT>
0

> <PUBCHEM_ATOM_UDEF_STEREO_COUNT>
0

> <PUBCHEM_BOND_DEF_STEREO_COUNT>
0

> <PUBCHEM_BOND_UDEF_STEREO_COUNT>
0

> <PUBCHEM_ISOTOPIC_ATOM_COUNT>
0

> <PUBCHEM_COMPONENT_COUNT>
1

> <PUBCHEM_CACTVS_TAUTO_COUNT>
-1

> <PUBCHEM_COORDINATE_TYPE>
1
5
255

> <PUBCHEM_BONDANNOTATIONS>
18  21  8
18  22  8
21  23  8
22  24  8
23  25  8
24  25  8
6  26  8
6  27  8
7  26  8
7  28  8
8  27  8
8  28  8

$$$$
