45267491
  -OEChem-09292322282D

 47 50  0     1  0  0  0  0  0999 V2000
    2.4525    3.3816    0.0000 Cl  0  0  0  0  0  0  0  0  0  0  0  0
   11.2049   -3.0542    0.0000 S   0  0  0  0  0  0  0  0  0  0  0  0
    4.7051   -0.8458    0.0000 O   0  0  0  0  0  0  0  0  0  0  0  0
    8.4935   -1.3620    0.0000 N   0  0  3  0  0  0  0  0  0  0  0  0
    6.2506    0.0414    0.0000 N   0  0  0  0  0  0  0  0  0  0  0  0
    4.8958    0.9260    0.0000 N   0  0  0  0  0  0  0  0  0  0  0  0
    7.8661   -0.5833    0.0000 C   0  0  0  0  0  0  0  0  0  0  0  0
    6.8780   -0.7373    0.0000 C   0  0  0  0  0  0  0  0  0  0  0  0
    8.0641   -2.2652    0.0000 C   0  0  0  0  0  0  0  0  0  0  0  0
    9.4673   -1.1347    0.0000 C   0  0  0  0  0  0  0  0  0  0  0  0
    8.5024   -3.1640    0.0000 C   0  0  0  0  0  0  0  0  0  0  0  0
    6.5119    1.0067    0.0000 C   0  0  0  0  0  0  0  0  0  0  0  0
    5.6746    1.5534    0.0000 C   0  0  0  0  0  0  0  0  0  0  0  0
    9.4785   -3.3816    0.0000 C   0  0  0  0  0  0  0  0  0  0  0  0
   10.2522   -1.7542    0.0000 C   0  0  0  0  0  0  0  0  0  0  0  0
   10.2572   -2.7542    0.0000 C   0  0  0  0  0  0  0  0  0  0  0  0
    5.2519   -0.0084    0.0000 C   0  0  0  0  0  0  0  0  0  0  0  0
   11.1969   -1.4448    0.0000 C   0  0  0  0  0  0  0  0  0  0  0  0
    3.9306    1.1873    0.0000 C   0  0  0  0  0  0  0  0  0  0  0  0
   11.7845   -2.2466    0.0000 C   0  0  0  0  0  0  0  0  0  0  0  0
    3.6742    2.1538    0.0000 C   0  0  0  0  0  0  0  0  0  0  0  0
    3.2217    0.4819    0.0000 C   0  0  0  0  0  0  0  0  0  0  0  0
    2.7089    2.4150    0.0000 C   0  0  0  0  0  0  0  0  0  0  0  0
    2.2564    0.7431    0.0000 C   0  0  0  0  0  0  0  0  0  0  0  0
    2.0000    1.7097    0.0000 C   0  0  0  0  0  0  0  0  0  0  0  0
    8.4091   -0.2841    0.0000 H   0  0  0  0  0  0  0  0  0  0  0  0
    7.6657    0.0034    0.0000 H   0  0  0  0  0  0  0  0  0  0  0  0
    6.3350   -1.0365    0.0000 H   0  0  0  0  0  0  0  0  0  0  0  0
    7.0784   -1.3240    0.0000 H   0  0  0  0  0  0  0  0  0  0  0  0
    7.5774   -1.8810    0.0000 H   0  0  0  0  0  0  0  0  0  0  0  0
    7.5813   -2.6542    0.0000 H   0  0  0  0  0  0  0  0  0  0  0  0
    9.9501   -0.7457    0.0000 H   0  0  0  0  0  0  0  0  0  0  0  0
    9.1955   -0.5774    0.0000 H   0  0  0  0  0  0  0  0  0  0  0  0
    7.8987   -3.3049    0.0000 H   0  0  0  0  0  0  0  0  0  0  0  0
    8.5055   -3.7840    0.0000 H   0  0  0  0  0  0  0  0  0  0  0  0
    7.0901    0.7831    0.0000 H   0  0  0  0  0  0  0  0  0  0  0  0
    6.7947    1.5584    0.0000 H   0  0  0  0  0  0  0  0  0  0  0  0
    6.0659    2.0343    0.0000 H   0  0  0  0  0  0  0  0  0  0  0  0
    5.2372    1.9929    0.0000 H   0  0  0  0  0  0  0  0  0  0  0  0
    9.2123   -3.9416    0.0000 H   0  0  0  0  0  0  0  0  0  0  0  0
    9.9651   -3.7658    0.0000 H   0  0  0  0  0  0  0  0  0  0  0  0
   11.3866   -0.8545    0.0000 H   0  0  0  0  0  0  0  0  0  0  0  0
   12.4045   -2.2435    0.0000 H   0  0  0  0  0  0  0  0  0  0  0  0
    4.1136    2.5911    0.0000 H   0  0  0  0  0  0  0  0  0  0  0  0
    3.3807   -0.1174    0.0000 H   0  0  0  0  0  0  0  0  0  0  0  0
    1.8169    0.3058    0.0000 H   0  0  0  0  0  0  0  0  0  0  0  0
    1.4015    1.8717    0.0000 H   0  0  0  0  0  0  0  0  0  0  0  0
  1 23  1  0  0  0  0
  2 16  1  0  0  0  0
  2 20  1  0  0  0  0
  3 17  2  0  0  0  0
  4  7  1  0  0  0  0
  4  9  1  0  0  0  0
  4 10  1  0  0  0  0
  5  8  1  0  0  0  0
  5 12  1  0  0  0  0
  5 17  1  0  0  0  0
  6 13  1  0  0  0  0
  6 17  1  0  0  0  0
  6 19  1  0  0  0  0
  7  8  1  0  0  0  0
  7 26  1  0  0  0  0
  7 27  1  0  0  0  0
  8 28  1  0  0  0  0
  8 29  1  0  0  0  0
  9 11  1  0  0  0  0
  9 30  1  0  0  0  0
  9 31  1  0  0  0  0
 10 15  1  0  0  0  0
 10 32  1  0  0  0  0
 10 33  1  0  0  0  0
 11 14  1  0  0  0  0
 11 34  1  0  0  0  0
 11 35  1  0  0  0  0
 12 13  1  0  0  0  0
 12 36  1  0  0  0  0
 12 37  1  0  0  0  0
 13 38  1  0  0  0  0
 13 39  1  0  0  0  0
 14 16  1  0  0  0  0
 14 40  1  0  0  0  0
 14 41  1  0  0  0  0
 15 16  2  0  0  0  0
 15 18  1  0  0  0  0
 18 20  2  0  0  0  0
 18 42  1  0  0  0  0
 19 21  2  0  0  0  0
 19 22  1  0  0  0  0
 20 43  1  0  0  0  0
 21 23  1  0  0  0  0
 21 44  1  0  0  0  0
 22 24  2  0  0  0  0
 22 45  1  0  0  0  0
 23 25  2  0  0  0  0
 24 25  1  0  0  0  0
 24 46  1  0  0  0  0
 25 47  1  0  0  0  0
M  END
> <PUBCHEM_COMPOUND_CID>
45267491

> <PUBCHEM_COMPOUND_CANONICALIZED>
1

> <PUBCHEM_CACTVS_COMPLEXITY>
480

> <PUBCHEM_CACTVS_HBOND_ACCEPTOR>
3

> <PUBCHEM_CACTVS_HBOND_DONOR>
0

> <PUBCHEM_CACTVS_ROTATABLE_BOND>
4

> <PUBCHEM_CACTVS_SUBSKEYS>
AAADceB7IABEAAAAAAAAAAAAAAAAAWJAAAAwAAAABYAAAACxwAAAHgYAAAAADArFWCSxwYMAAAiMAiRCUACDAIAhDxBIiBgIZoiIYCLhk5GUIAhohgLoyCcQgAAOAAAAAAIAAAAAAAAABAAAAAAAAAAAAA==

> <PUBCHEM_IUPAC_OPENEYE_NAME>
1-(3-chlorophenyl)-3-[2-(4,6,7,8-tetrahydrothieno[3,2-c]azepin-5-yl)ethyl]imidazolidin-2-one

> <PUBCHEM_IUPAC_CAS_NAME>
1-(3-chlorophenyl)-3-[2-(4,6,7,8-tetrahydrothieno[3,2-c]azepin-5-yl)ethyl]-2-imidazolidinone

> <PUBCHEM_IUPAC_NAME_MARKUP>
1-(3-chlorophenyl)-3-[2-(4,6,7,8-tetrahydrothieno[3,2-c]azepin-5-yl)ethyl]imidazolidin-2-one

> <PUBCHEM_IUPAC_NAME>
1-(3-chlorophenyl)-3-[2-(4,6,7,8-tetrahydrothieno[3,2-c]azepin-5-yl)ethyl]imidazolidin-2-one

> <PUBCHEM_IUPAC_SYSTEMATIC_NAME>
1-(3-chlorophenyl)-3-[2-(4,6,7,8-tetrahydrothieno[3,2-c]azepin-5-yl)ethyl]imidazolidin-2-one

> <PUBCHEM_IUPAC_TRADITIONAL_NAME>
1-(3-chlorophenyl)-3-[2-(4,6,7,8-tetrahydrothien[3,2-c]azepin-5-yl)ethyl]-2-imidazolidinone

> <PUBCHEM_IUPAC_INCHI>
InChI=1S/C19H22ClN3OS/c20-16-3-1-4-17(13-16)23-11-10-22(19(23)24)9-8-21-7-2-5-18-15(14-21)6-12-25-18/h1,3-4,6,12-13H,2,5,7-11,14H2

> <PUBCHEM_IUPAC_INCHIKEY>
KAEBDVFJWYJWBA-UHFFFAOYSA-N

> <PUBCHEM_XLOGP3_AA>
3.3

> <PUBCHEM_EXACT_MASS>
375.1172112

> <PUBCHEM_MOLECULAR_FORMULA>
C19H22ClN3OS

> <PUBCHEM_MOLECULAR_WEIGHT>
375.9

> <PUBCHEM_OPENEYE_CAN_SMILES>
C1CC2=C(CN(C1)CCN3CCN(C3=O)C4=CC(=CC=C4)Cl)C=CS2

> <PUBCHEM_OPENEYE_ISO_SMILES>
C1CC2=C(CN(C1)CCN3CCN(C3=O)C4=CC(=CC=C4)Cl)C=CS2

> <PUBCHEM_CACTVS_TPSA>
55

> <PUBCHEM_MONOISOTOPIC_WEIGHT>
375.1172112

> <PUBCHEM_TOTAL_CHARGE>
0

> <PUBCHEM_HEAVY_ATOM_COUNT>
25

> <PUBCHEM_ATOM_DEF_STEREO_COUNT>
0

> <PUBCHEM_ATOM_UDEF_STEREO_COUNT>
0

> <PUBCHEM_BOND_DEF_STEREO_COUNT>
0

> <PUBCHEM_BOND_UDEF_STEREO_COUNT>
0

> <PUBCHEM_ISOTOPIC_ATOM_COUNT>
0

> <PUBCHEM_COMPONENT_COUNT>
1

> <PUBCHEM_CACTVS_TAUTO_COUNT>
-1

> <PUBCHEM_COORDINATE_TYPE>
1
5
255

> <PUBCHEM_BONDANNOTATIONS>
15  16  8
15  18  8
18  20  8
19  21  8
19  22  8
2  16  8
2  20  8
21  23  8
22  24  8
23  25  8
24  25  8

$$$$
