44407270
  -OEChem-09292322272D

 69 72  0     0  0  0  0  0  0999 V2000
    4.1660   -4.2183    0.0000 F   0  0  0  0  0  0  0  0  0  0  0  0
    3.8000   -5.5843    0.0000 F   0  0  0  0  0  0  0  0  0  0  0  0
    5.1660   -5.9503    0.0000 F   0  0  0  0  0  0  0  0  0  0  0  0
    6.3981    3.9157    0.0000 O   0  0  0  0  0  0  0  0  0  0  0  0
    6.3981   -0.0843    0.0000 N   0  0  0  0  0  0  0  0  0  0  0  0
    6.3981   -2.0843    0.0000 N   0  0  0  0  0  0  0  0  0  0  0  0
    4.6660    3.9157    0.0000 N   0  0  0  0  0  0  0  0  0  0  0  0
    7.2641   -3.5843    0.0000 N   0  0  0  0  0  0  0  0  0  0  0  0
    6.3981   -5.0843    0.0000 N   0  0  0  0  0  0  0  0  0  0  0  0
    5.5321   -0.5843    0.0000 C   0  0  0  0  0  0  0  0  0  0  0  0
    7.2641   -0.5843    0.0000 C   0  0  0  0  0  0  0  0  0  0  0  0
    5.5321   -1.5843    0.0000 C   0  0  0  0  0  0  0  0  0  0  0  0
    7.2641   -1.5843    0.0000 C   0  0  0  0  0  0  0  0  0  0  0  0
    6.3981    0.9157    0.0000 C   0  0  0  0  0  0  0  0  0  0  0  0
    5.5321    1.4157    0.0000 C   0  0  0  0  0  0  0  0  0  0  0  0
    5.5321    2.4157    0.0000 C   0  0  0  0  0  0  0  0  0  0  0  0
    4.6660    2.9157    0.0000 C   0  0  0  0  0  0  0  0  0  0  0  0
    6.3981   -3.0843    0.0000 C   0  0  0  0  0  0  0  0  0  0  0  0
    8.1301   -5.0843    0.0000 C   0  0  0  0  0  0  0  0  0  0  0  0
    3.8000    4.4157    0.0000 C   0  0  0  0  0  0  0  0  0  0  0  0
    4.6660    5.9157    0.0000 C   0  0  0  0  0  0  0  0  0  0  0  0
    3.8000    5.4157    0.0000 C   0  0  0  0  0  0  0  0  0  0  0  0
    5.5321    5.4157    0.0000 C   0  0  0  0  0  0  0  0  0  0  0  0
    5.5321    4.4157    0.0000 C   0  0  0  0  0  0  0  0  0  0  0  0
    7.2641   -4.5843    0.0000 C   0  0  0  0  0  0  0  0  0  0  0  0
    5.5321   -3.5843    0.0000 C   0  0  0  0  0  0  0  0  0  0  0  0
    5.5321   -4.5843    0.0000 C   0  0  0  0  0  0  0  0  0  0  0  0
    8.9962   -5.5843    0.0000 C   0  0  0  0  0  0  0  0  0  0  0  0
    7.6301   -5.9503    0.0000 C   0  0  0  0  0  0  0  0  0  0  0  0
    8.6301   -4.2183    0.0000 C   0  0  0  0  0  0  0  0  0  0  0  0
    2.9061    3.8810    0.0000 C   0  0  0  0  0  0  0  0  0  0  0  0
    2.9061    5.9503    0.0000 C   0  0  0  0  0  0  0  0  0  0  0  0
    2.0000    4.3949    0.0000 C   0  0  0  0  0  0  0  0  0  0  0  0
    2.0000    5.4365    0.0000 C   0  0  0  0  0  0  0  0  0  0  0  0
    4.6660   -5.0843    0.0000 C   0  0  0  0  0  0  0  0  0  0  0  0
    5.3200   -0.0017    0.0000 H   0  0  0  0  0  0  0  0  0  0  0  0
    4.9215   -0.6920    0.0000 H   0  0  0  0  0  0  0  0  0  0  0  0
    7.8747   -0.6920    0.0000 H   0  0  0  0  0  0  0  0  0  0  0  0
    7.4762   -0.0017    0.0000 H   0  0  0  0  0  0  0  0  0  0  0  0
    4.9215   -1.4767    0.0000 H   0  0  0  0  0  0  0  0  0  0  0  0
    5.3200   -2.1669    0.0000 H   0  0  0  0  0  0  0  0  0  0  0  0
    7.4762   -2.1669    0.0000 H   0  0  0  0  0  0  0  0  0  0  0  0
    7.8747   -1.4767    0.0000 H   0  0  0  0  0  0  0  0  0  0  0  0
    7.0087    0.8080    0.0000 H   0  0  0  0  0  0  0  0  0  0  0  0
    6.6101    1.4983    0.0000 H   0  0  0  0  0  0  0  0  0  0  0  0
    4.9215    1.5233    0.0000 H   0  0  0  0  0  0  0  0  0  0  0  0
    5.3200    0.8331    0.0000 H   0  0  0  0  0  0  0  0  0  0  0  0
    6.1426    2.3080    0.0000 H   0  0  0  0  0  0  0  0  0  0  0  0
    5.7441    2.9983    0.0000 H   0  0  0  0  0  0  0  0  0  0  0  0
    4.0555    3.0233    0.0000 H   0  0  0  0  0  0  0  0  0  0  0  0
    4.4540    2.3331    0.0000 H   0  0  0  0  0  0  0  0  0  0  0  0
    5.0646    6.3906    0.0000 H   0  0  0  0  0  0  0  0  0  0  0  0
    4.2675    6.3906    0.0000 H   0  0  0  0  0  0  0  0  0  0  0  0
    6.1426    5.3080    0.0000 H   0  0  0  0  0  0  0  0  0  0  0  0
    5.7441    5.9983    0.0000 H   0  0  0  0  0  0  0  0  0  0  0  0
    4.9951   -3.2743    0.0000 H   0  0  0  0  0  0  0  0  0  0  0  0
    8.6862   -6.1212    0.0000 H   0  0  0  0  0  0  0  0  0  0  0  0
    9.5331   -5.8943    0.0000 H   0  0  0  0  0  0  0  0  0  0  0  0
    9.3062   -5.0474    0.0000 H   0  0  0  0  0  0  0  0  0  0  0  0
    7.0932   -5.6403    0.0000 H   0  0  0  0  0  0  0  0  0  0  0  0
    7.3201   -6.4873    0.0000 H   0  0  0  0  0  0  0  0  0  0  0  0
    8.1671   -6.2603    0.0000 H   0  0  0  0  0  0  0  0  0  0  0  0
    9.1671   -4.5283    0.0000 H   0  0  0  0  0  0  0  0  0  0  0  0
    8.9401   -3.6814    0.0000 H   0  0  0  0  0  0  0  0  0  0  0  0
    8.0932   -3.9083    0.0000 H   0  0  0  0  0  0  0  0  0  0  0  0
    2.9132    3.2611    0.0000 H   0  0  0  0  0  0  0  0  0  0  0  0
    2.9132    6.5703    0.0000 H   0  0  0  0  0  0  0  0  0  0  0  0
    1.4643    4.0828    0.0000 H   0  0  0  0  0  0  0  0  0  0  0  0
    1.4643    5.7486    0.0000 H   0  0  0  0  0  0  0  0  0  0  0  0
  1 35  1  0  0  0  0
  2 35  1  0  0  0  0
  3 35  1  0  0  0  0
  4 24  2  0  0  0  0
  5 10  1  0  0  0  0
  5 11  1  0  0  0  0
  5 14  1  0  0  0  0
  6 12  1  0  0  0  0
  6 13  1  0  0  0  0
  6 18  1  0  0  0  0
  7 17  1  0  0  0  0
  7 20  1  0  0  0  0
  7 24  1  0  0  0  0
  8 18  2  0  0  0  0
  8 25  1  0  0  0  0
  9 25  2  0  0  0  0
  9 27  1  0  0  0  0
 10 12  1  0  0  0  0
 10 36  1  0  0  0  0
 10 37  1  0  0  0  0
 11 13  1  0  0  0  0
 11 38  1  0  0  0  0
 11 39  1  0  0  0  0
 12 40  1  0  0  0  0
 12 41  1  0  0  0  0
 13 42  1  0  0  0  0
 13 43  1  0  0  0  0
 14 15  1  0  0  0  0
 14 44  1  0  0  0  0
 14 45  1  0  0  0  0
 15 16  1  0  0  0  0
 15 46  1  0  0  0  0
 15 47  1  0  0  0  0
 16 17  1  0  0  0  0
 16 48  1  0  0  0  0
 16 49  1  0  0  0  0
 17 50  1  0  0  0  0
 17 51  1  0  0  0  0
 18 26  1  0  0  0  0
 19 25  1  0  0  0  0
 19 28  1  0  0  0  0
 19 29  1  0  0  0  0
 19 30  1  0  0  0  0
 20 22  1  0  0  0  0
 20 31  2  0  0  0  0
 21 22  1  0  0  0  0
 21 23  1  0  0  0  0
 21 52  1  0  0  0  0
 21 53  1  0  0  0  0
 22 32  2  0  0  0  0
 23 24  1  0  0  0  0
 23 54  1  0  0  0  0
 23 55  1  0  0  0  0
 26 27  2  0  0  0  0
 26 56  1  0  0  0  0
 27 35  1  0  0  0  0
 28 57  1  0  0  0  0
 28 58  1  0  0  0  0
 28 59  1  0  0  0  0
 29 60  1  0  0  0  0
 29 61  1  0  0  0  0
 29 62  1  0  0  0  0
 30 63  1  0  0  0  0
 30 64  1  0  0  0  0
 30 65  1  0  0  0  0
 31 33  1  0  0  0  0
 31 66  1  0  0  0  0
 32 34  1  0  0  0  0
 32 67  1  0  0  0  0
 33 34  2  0  0  0  0
 33 68  1  0  0  0  0
 34 69  1  0  0  0  0
M  END
> <PUBCHEM_COMPOUND_CID>
44407270

> <PUBCHEM_COMPOUND_CANONICALIZED>
1

> <PUBCHEM_CACTVS_COMPLEXITY>
704

> <PUBCHEM_CACTVS_HBOND_ACCEPTOR>
8

> <PUBCHEM_CACTVS_HBOND_DONOR>
0

> <PUBCHEM_CACTVS_ROTATABLE_BOND>
7

> <PUBCHEM_CACTVS_SUBSKEYS>
AAADcfB7oYAAAAAAAAAAAAAAAAAAAAAAAAA8WLEAAAAAAACxwAAAHwAAAAAADgjBnxQz8JcIEACoAydydACCgCkhAqAJmCE4ZJiIaDLA2dGUJAhohgLIyCcYiYCeAAAAAAACAAAAAAAAAAQAAAAAAAAAAA==

> <PUBCHEM_IUPAC_OPENEYE_NAME>
1-[4-[4-[2-tert-butyl-6-(trifluoromethyl)pyrimidin-4-yl]piperazin-1-yl]butyl]-3,4-dihydroquinolin-2-one

> <PUBCHEM_IUPAC_CAS_NAME>
1-[4-[4-[2-tert-butyl-6-(trifluoromethyl)-4-pyrimidinyl]-1-piperazinyl]butyl]-3,4-dihydroquinolin-2-one

> <PUBCHEM_IUPAC_NAME_MARKUP>
1-[4-[4-[2-<I>tert</I>-butyl-6-(trifluoromethyl)pyrimidin-4-yl]piperazin-1-yl]butyl]-3,4-dihydroquinolin-2-one

> <PUBCHEM_IUPAC_NAME>
1-[4-[4-[2-tert-butyl-6-(trifluoromethyl)pyrimidin-4-yl]piperazin-1-yl]butyl]-3,4-dihydroquinolin-2-one

> <PUBCHEM_IUPAC_SYSTEMATIC_NAME>
1-[4-[4-[2-tert-butyl-6-(trifluoromethyl)pyrimidin-4-yl]piperazin-1-yl]butyl]-3,4-dihydroquinolin-2-one

> <PUBCHEM_IUPAC_TRADITIONAL_NAME>
1-[4-[4-[2-tert-butyl-6-(trifluoromethyl)pyrimidin-4-yl]piperazino]butyl]-3,4-dihydrocarbostyril

> <PUBCHEM_IUPAC_INCHI>
InChI=1S/C26H34F3N5O/c1-25(2,3)24-30-21(26(27,28)29)18-22(31-24)33-16-14-32(15-17-33)12-6-7-13-34-20-9-5-4-8-19(20)10-11-23(34)35/h4-5,8-9,18H,6-7,10-17H2,1-3H3

> <PUBCHEM_IUPAC_INCHIKEY>
LZCAZQHEQOBNGY-UHFFFAOYSA-N

> <PUBCHEM_XLOGP3_AA>
4.8

> <PUBCHEM_EXACT_MASS>
489.27154521

> <PUBCHEM_MOLECULAR_FORMULA>
C26H34F3N5O

> <PUBCHEM_MOLECULAR_WEIGHT>
489.6

> <PUBCHEM_OPENEYE_CAN_SMILES>
CC(C)(C)C1=NC(=CC(=N1)N2CCN(CC2)CCCCN3C(=O)CCC4=CC=CC=C43)C(F)(F)F

> <PUBCHEM_OPENEYE_ISO_SMILES>
CC(C)(C)C1=NC(=CC(=N1)N2CCN(CC2)CCCCN3C(=O)CCC4=CC=CC=C43)C(F)(F)F

> <PUBCHEM_CACTVS_TPSA>
52.6

> <PUBCHEM_MONOISOTOPIC_WEIGHT>
489.27154521

> <PUBCHEM_TOTAL_CHARGE>
0

> <PUBCHEM_HEAVY_ATOM_COUNT>
35

> <PUBCHEM_ATOM_DEF_STEREO_COUNT>
0

> <PUBCHEM_ATOM_UDEF_STEREO_COUNT>
0

> <PUBCHEM_BOND_DEF_STEREO_COUNT>
0

> <PUBCHEM_BOND_UDEF_STEREO_COUNT>
0

> <PUBCHEM_ISOTOPIC_ATOM_COUNT>
0

> <PUBCHEM_COMPONENT_COUNT>
1

> <PUBCHEM_CACTVS_TAUTO_COUNT>
-1

> <PUBCHEM_COORDINATE_TYPE>
1
5
255

> <PUBCHEM_BONDANNOTATIONS>
18  26  8
20  22  8
20  31  8
22  32  8
26  27  8
31  33  8
32  34  8
33  34  8
8  18  8
8  25  8
9  25  8
9  27  8

$$$$
