11725453
  -OEChem-09292322112D

 49 53  0     1  0  0  0  0  0999 V2000
    7.8106   -1.7571    0.0000 N   0  0  3  0  0  0  0  0  0  0  0  0
    2.0000   -0.9857    0.0000 N   0  0  0  0  0  0  0  0  0  0  0  0
    6.9524   -1.2601    0.0000 C   0  0  1  0  0  0  0  0  0  0  0  0
    6.9524   -0.2601    0.0000 C   0  0  0  0  0  0  0  0  0  0  0  0
    6.0863   -1.7601    0.0000 C   0  0  0  0  0  0  0  0  0  0  0  0
    7.8624    0.2467    0.0000 C   0  0  0  0  0  0  0  0  0  0  0  0
    8.6760   -1.2729    0.0000 C   0  0  0  0  0  0  0  0  0  0  0  0
    6.0863    0.2399    0.0000 C   0  0  0  0  0  0  0  0  0  0  0  0
    8.7017   -0.2815    0.0000 C   0  0  0  0  0  0  0  0  0  0  0  0
    5.2203   -1.2601    0.0000 C   0  0  0  0  0  0  0  0  0  0  0  0
    5.2203   -0.2601    0.0000 C   0  0  0  0  0  0  0  0  0  0  0  0
    7.8032   -2.7570    0.0000 C   0  0  0  0  0  0  0  0  0  0  0  0
    4.3264    0.2745    0.0000 C   0  0  0  0  0  0  0  0  0  0  0  0
    7.8704    1.2883    0.0000 C   0  0  0  0  0  0  0  0  0  0  0  0
    6.0703    1.2814    0.0000 C   0  0  0  0  0  0  0  0  0  0  0  0
    4.3264   -1.7948    0.0000 C   0  0  0  0  0  0  0  0  0  0  0  0
    6.9683    1.8091    0.0000 C   0  0  0  0  0  0  0  0  0  0  0  0
    3.4203   -0.2393    0.0000 C   0  0  0  0  0  0  0  0  0  0  0  0
    3.6925    1.0479    0.0000 C   0  0  0  0  0  0  0  0  0  0  0  0
    3.4203   -1.2810    0.0000 C   0  0  0  0  0  0  0  0  0  0  0  0
    4.0453    1.9836    0.0000 C   0  0  0  0  0  0  0  0  0  0  0  0
    2.7057    0.8857    0.0000 C   0  0  0  0  0  0  0  0  0  0  0  0
    3.4114    2.7570    0.0000 C   0  0  0  0  0  0  0  0  0  0  0  0
    5.0321    2.1459    0.0000 C   0  0  0  0  0  0  0  0  0  0  0  0
    2.0718    1.6591    0.0000 C   0  0  0  0  0  0  0  0  0  0  0  0
    2.4247    2.5948    0.0000 C   0  0  0  0  0  0  0  0  0  0  0  0
    2.3529   -0.0500    0.0000 C   0  0  0  0  0  0  0  0  0  0  0  0
    6.9518   -2.1101    0.0000 H   0  0  0  0  0  0  0  0  0  0  0  0
    5.6878   -2.2351    0.0000 H   0  0  0  0  0  0  0  0  0  0  0  0
    6.4849   -2.2351    0.0000 H   0  0  0  0  0  0  0  0  0  0  0  0
    8.8778   -1.8592    0.0000 H   0  0  0  0  0  0  0  0  0  0  0  0
    9.2888   -1.1785    0.0000 H   0  0  0  0  0  0  0  0  0  0  0  0
    9.3088   -0.4074    0.0000 H   0  0  0  0  0  0  0  0  0  0  0  0
    8.9334    0.2935    0.0000 H   0  0  0  0  0  0  0  0  0  0  0  0
    7.1832   -2.7525    0.0000 H   0  0  0  0  0  0  0  0  0  0  0  0
    7.7986   -3.3770    0.0000 H   0  0  0  0  0  0  0  0  0  0  0  0
    8.4232   -2.7616    0.0000 H   0  0  0  0  0  0  0  0  0  0  0  0
    8.4085    1.5962    0.0000 H   0  0  0  0  0  0  0  0  0  0  0  0
    5.5298    1.5851    0.0000 H   0  0  0  0  0  0  0  0  0  0  0  0
    4.3335   -2.4148    0.0000 H   0  0  0  0  0  0  0  0  0  0  0  0
    6.9659    2.4291    0.0000 H   0  0  0  0  0  0  0  0  0  0  0  0
    2.8846    0.0727    0.0000 H   0  0  0  0  0  0  0  0  0  0  0  0
    2.8846   -1.5930    0.0000 H   0  0  0  0  0  0  0  0  0  0  0  0
    3.6302    3.3372    0.0000 H   0  0  0  0  0  0  0  0  0  0  0  0
    5.1327    1.5341    0.0000 H   0  0  0  0  0  0  0  0  0  0  0  0
    5.6439    2.2465    0.0000 H   0  0  0  0  0  0  0  0  0  0  0  0
    4.9315    2.7576    0.0000 H   0  0  0  0  0  0  0  0  0  0  0  0
    1.4600    1.5585    0.0000 H   0  0  0  0  0  0  0  0  0  0  0  0
    2.0317    3.0743    0.0000 H   0  0  0  0  0  0  0  0  0  0  0  0
  1  3  1  0  0  0  0
  1  7  1  0  0  0  0
  1 12  1  0  0  0  0
  2 27  3  0  0  0  0
  3  4  1  0  0  0  0
  3  5  1  0  0  0  0
  3 28  1  1  0  0  0
  4  6  2  0  0  0  0
  4  8  1  0  0  0  0
  5 10  1  0  0  0  0
  5 29  1  0  0  0  0
  5 30  1  0  0  0  0
  6  9  1  0  0  0  0
  6 14  1  0  0  0  0
  7  9  1  0  0  0  0
  7 31  1  0  0  0  0
  7 32  1  0  0  0  0
  8 11  1  0  0  0  0
  8 15  2  0  0  0  0
  9 33  1  0  0  0  0
  9 34  1  0  0  0  0
 10 11  2  0  0  0  0
 10 16  1  0  0  0  0
 11 13  1  0  0  0  0
 12 35  1  0  0  0  0
 12 36  1  0  0  0  0
 12 37  1  0  0  0  0
 13 18  2  0  0  0  0
 13 19  1  0  0  0  0
 14 17  2  0  0  0  0
 14 38  1  0  0  0  0
 15 17  1  0  0  0  0
 15 39  1  0  0  0  0
 16 20  2  0  0  0  0
 16 40  1  0  0  0  0
 17 41  1  0  0  0  0
 18 20  1  0  0  0  0
 18 42  1  0  0  0  0
 19 21  2  0  0  0  0
 19 22  1  0  0  0  0
 20 43  1  0  0  0  0
 21 23  1  0  0  0  0
 21 24  1  0  0  0  0
 22 25  2  0  0  0  0
 22 27  1  0  0  0  0
 23 26  2  0  0  0  0
 23 44  1  0  0  0  0
 24 45  1  0  0  0  0
 24 46  1  0  0  0  0
 24 47  1  0  0  0  0
 25 26  1  0  0  0  0
 25 48  1  0  0  0  0
 26 49  1  0  0  0  0
M  END
> <PUBCHEM_COMPOUND_CID>
11725453

> <PUBCHEM_COMPOUND_CANONICALIZED>
1

> <PUBCHEM_CACTVS_COMPLEXITY>
590

> <PUBCHEM_CACTVS_HBOND_ACCEPTOR>
2

> <PUBCHEM_CACTVS_HBOND_DONOR>
0

> <PUBCHEM_CACTVS_ROTATABLE_BOND>
1

> <PUBCHEM_CACTVS_SUBSKEYS>
AAADceB7AAAAAAAAAAAAAAAAAAAAAAAAAAA8YMGCAAAAAADxUAAAHAAAAAAADCjBGAQyAIMAAACQBiBCAACiAAAgAAAIiAAIBIgIoCKAkRGEIAhggACIiA8QgMAOgAACAAAQAACQAASAACQAAAAAAAAAAA==

> <PUBCHEM_IUPAC_OPENEYE_NAME>
2-[(6aR)-6-methyl-5,6,6a,7-tetrahydro-4H-dibenzo[de,g]quinolin-11-yl]-3-methyl-benzonitrile

> <PUBCHEM_IUPAC_CAS_NAME>
2-[(6aR)-6-methyl-5,6,6a,7-tetrahydro-4H-dibenzo[de,g]quinolin-11-yl]-3-methylbenzonitrile

> <PUBCHEM_IUPAC_NAME_MARKUP>
2-[(6<I>a</I><I>R</I>)-6-methyl-5,6,6<I>a</I>,7-tetrahydro-4<I>H</I>-dibenzo[de,g]quinolin-11-yl]-3-methylbenzonitrile

> <PUBCHEM_IUPAC_NAME>
2-[(6aR)-6-methyl-5,6,6a,7-tetrahydro-4H-dibenzo[de,g]quinolin-11-yl]-3-methylbenzonitrile

> <PUBCHEM_IUPAC_SYSTEMATIC_NAME>
2-[(6aR)-6-methyl-5,6,6a,7-tetrahydro-4H-dibenzo[de,g]quinolin-11-yl]-3-methyl-benzenecarbonitrile

> <PUBCHEM_IUPAC_TRADITIONAL_NAME>
2-[(6aR)-6-methyl-5,6,6a,7-tetrahydro-4H-dibenzo[de,g]quinolin-11-yl]-3-methyl-benzonitrile

> <PUBCHEM_IUPAC_INCHI>
InChI=1S/C25H22N2/c1-16-6-3-9-19(15-26)23(16)20-10-5-8-18-14-22-25-17(12-13-27(22)2)7-4-11-21(25)24(18)20/h3-11,22H,12-14H2,1-2H3/t22-/m1/s1

> <PUBCHEM_IUPAC_INCHIKEY>
APEZAWGOFKUHCA-JOCHJYFZSA-N

> <PUBCHEM_XLOGP3_AA>
5.2

> <PUBCHEM_EXACT_MASS>
350.178298710

> <PUBCHEM_MOLECULAR_FORMULA>
C25H22N2

> <PUBCHEM_MOLECULAR_WEIGHT>
350.5

> <PUBCHEM_OPENEYE_CAN_SMILES>
CC1=C(C(=CC=C1)C#N)C2=CC=CC3=C2C4=CC=CC5=C4C(C3)N(CC5)C

> <PUBCHEM_OPENEYE_ISO_SMILES>
CC1=C(C(=CC=C1)C#N)C2=CC=CC3=C2C4=CC=CC5=C4[C@@H](C3)N(CC5)C

> <PUBCHEM_CACTVS_TPSA>
27

> <PUBCHEM_MONOISOTOPIC_WEIGHT>
350.178298710

> <PUBCHEM_TOTAL_CHARGE>
0

> <PUBCHEM_HEAVY_ATOM_COUNT>
27

> <PUBCHEM_ATOM_DEF_STEREO_COUNT>
1

> <PUBCHEM_ATOM_UDEF_STEREO_COUNT>
0

> <PUBCHEM_BOND_DEF_STEREO_COUNT>
0

> <PUBCHEM_BOND_UDEF_STEREO_COUNT>
0

> <PUBCHEM_ISOTOPIC_ATOM_COUNT>
0

> <PUBCHEM_COMPONENT_COUNT>
1

> <PUBCHEM_CACTVS_TAUTO_COUNT>
-1

> <PUBCHEM_COORDINATE_TYPE>
1
5
255

> <PUBCHEM_BONDANNOTATIONS>
10  11  8
10  16  8
11  13  8
13  18  8
14  17  8
15  17  8
16  20  8
18  20  8
19  21  8
19  22  8
21  23  8
22  25  8
23  26  8
25  26  8
3  28  5
4  6  8
4  8  8
6  14  8
8  15  8

$$$$
