45265656
  -OEChem-09292322092D

 54 56  0     1  0  0  0  0  0999 V2000
    9.9631    5.4489    0.0000 Cl  0  0  0  0  0  0  0  0  0  0  0  0
    2.9740   11.4626    0.0000 F   0  0  0  0  0  0  0  0  0  0  0  0
    5.9740    7.9985    0.0000 O   0  0  0  0  0  0  0  0  0  0  0  0
    4.9740    4.5344    0.0000 N   0  0  0  0  0  0  0  0  0  0  0  0
    5.7106    3.5518    0.0000 C   0  0  3  0  0  0  0  0  0  0  0  0
    5.4518    2.5859    0.0000 C   0  0  3  0  0  0  0  0  0  0  0  0
    7.1095    3.0430    0.0000 C   0  0  0  0  0  0  0  0  0  0  0  0
    6.8507    2.0771    0.0000 C   0  0  0  0  0  0  0  0  0  0  0  0
    3.6773    3.2407    0.0000 C   0  0  0  0  0  0  0  0  0  0  0  0
    4.2307    1.7202    0.0000 C   0  0  0  0  0  0  0  0  0  0  0  0
    3.4017    2.2794    0.0000 C   0  0  0  0  0  0  0  0  0  0  0  0
    4.4740    5.4005    0.0000 C   0  0  0  0  0  0  0  0  0  0  0  0
    2.4620    1.9374    0.0000 C   0  0  0  0  0  0  0  0  0  0  0  0
    4.9740    6.2665    0.0000 C   0  0  0  0  0  0  0  0  0  0  0  0
    1.6960    2.5802    0.0000 C   0  0  0  0  0  0  0  0  0  0  0  0
    2.2884    0.9526    0.0000 C   0  0  0  0  0  0  0  0  0  0  0  0
    4.4740    7.1325    0.0000 C   0  0  0  0  0  0  0  0  0  0  0  0
    0.7563    2.2382    0.0000 C   0  0  0  0  0  0  0  0  0  0  0  0
    1.3486    0.6106    0.0000 C   0  0  0  0  0  0  0  0  0  0  0  0
    4.9740    7.9985    0.0000 C   0  0  0  0  0  0  0  0  0  0  0  0
    0.5826    1.2534    0.0000 C   0  0  0  0  0  0  0  0  0  0  0  0
    4.4740    8.8646    0.0000 C   0  0  0  0  0  0  0  0  0  0  0  0
    3.4740    8.8646    0.0000 C   0  0  0  0  0  0  0  0  0  0  0  0
    4.9740    9.7306    0.0000 C   0  0  0  0  0  0  0  0  0  0  0  0
    2.9740    9.7306    0.0000 C   0  0  0  0  0  0  0  0  0  0  0  0
    4.4740   10.5966    0.0000 C   0  0  0  0  0  0  0  0  0  0  0  0
    3.4740   10.5966    0.0000 C   0  0  0  0  0  0  0  0  0  0  0  0
    6.0799    4.0498    0.0000 H   0  0  0  0  0  0  0  0  0  0  0  0
    5.5345    1.9714    0.0000 H   0  0  0  0  0  0  0  0  0  0  0  0
    7.7035    2.8652    0.0000 H   0  0  0  0  0  0  0  0  0  0  0  0
    7.3044    3.6316    0.0000 H   0  0  0  0  0  0  0  0  0  0  0  0
    6.6558    1.4885    0.0000 H   0  0  0  0  0  0  0  0  0  0  0  0
    7.4446    1.8993    0.0000 H   0  0  0  0  0  0  0  0  0  0  0  0
    3.6723    3.8607    0.0000 H   0  0  0  0  0  0  0  0  0  0  0  0
    3.0630    3.3245    0.0000 H   0  0  0  0  0  0  0  0  0  0  0  0
    3.8249    1.2515    0.0000 H   0  0  0  0  0  0  0  0  0  0  0  0
    4.6474    1.2611    0.0000 H   0  0  0  0  0  0  0  0  0  0  0  0
    2.9482    2.7023    0.0000 H   0  0  0  0  0  0  0  0  0  0  0  0
    3.9990    5.7990    0.0000 H   0  0  0  0  0  0  0  0  0  0  0  0
    3.9990    5.0019    0.0000 H   0  0  0  0  0  0  0  0  0  0  0  0
    5.4489    5.8680    0.0000 H   0  0  0  0  0  0  0  0  0  0  0  0
    5.4489    6.6650    0.0000 H   0  0  0  0  0  0  0  0  0  0  0  0
    1.8036    3.1908    0.0000 H   0  0  0  0  0  0  0  0  0  0  0  0
    2.7633    0.5541    0.0000 H   0  0  0  0  0  0  0  0  0  0  0  0
    3.9990    7.5310    0.0000 H   0  0  0  0  0  0  0  0  0  0  0  0
    3.9990    6.7340    0.0000 H   0  0  0  0  0  0  0  0  0  0  0  0
    0.2813    2.6367    0.0000 H   0  0  0  0  0  0  0  0  0  0  0  0
    1.2410    0.0000    0.0000 H   0  0  0  0  0  0  0  0  0  0  0  0
    0.0000    1.0413    0.0000 H   0  0  0  0  0  0  0  0  0  0  0  0
    3.1640    8.3276    0.0000 H   0  0  0  0  0  0  0  0  0  0  0  0
    5.5940    9.7306    0.0000 H   0  0  0  0  0  0  0  0  0  0  0  0
    2.3540    9.7306    0.0000 H   0  0  0  0  0  0  0  0  0  0  0  0
    4.7840   11.1336    0.0000 H   0  0  0  0  0  0  0  0  0  0  0  0
   10.9631    5.4489    0.0000 H   0  0  0  0  0  0  0  0  0  0  0  0
  1 54  1  0  0  0  0
  2 27  1  0  0  0  0
  3 20  2  0  0  0  0
  4  5  1  0  0  0  0
  4  6  1  0  0  0  0
  4 12  1  0  0  0  0
  5  7  1  0  0  0  0
  5  9  1  0  0  0  0
  5 28  1  0  0  0  0
  6  8  1  0  0  0  0
  6 10  1  0  0  0  0
  6 29  1  0  0  0  0
  7  8  1  0  0  0  0
  7 30  1  0  0  0  0
  7 31  1  0  0  0  0
  8 32  1  0  0  0  0
  8 33  1  0  0  0  0
  9 11  1  0  0  0  0
  9 34  1  0  0  0  0
  9 35  1  0  0  0  0
 10 11  1  0  0  0  0
 10 36  1  0  0  0  0
 10 37  1  0  0  0  0
 11 13  1  0  0  0  0
 11 38  1  0  0  0  0
 12 14  1  0  0  0  0
 12 39  1  0  0  0  0
 12 40  1  0  0  0  0
 13 15  2  0  0  0  0
 13 16  1  0  0  0  0
 14 17  1  0  0  0  0
 14 41  1  0  0  0  0
 14 42  1  0  0  0  0
 15 18  1  0  0  0  0
 15 43  1  0  0  0  0
 16 19  2  0  0  0  0
 16 44  1  0  0  0  0
 17 20  1  0  0  0  0
 17 45  1  0  0  0  0
 17 46  1  0  0  0  0
 18 21  2  0  0  0  0
 18 47  1  0  0  0  0
 19 21  1  0  0  0  0
 19 48  1  0  0  0  0
 20 22  1  0  0  0  0
 21 49  1  0  0  0  0
 22 23  2  0  0  0  0
 22 24  1  0  0  0  0
 23 25  1  0  0  0  0
 23 50  1  0  0  0  0
 24 26  2  0  0  0  0
 24 51  1  0  0  0  0
 25 27  2  0  0  0  0
 25 52  1  0  0  0  0
 26 27  1  0  0  0  0
 26 53  1  0  0  0  0
M  END
> <PUBCHEM_COMPOUND_CID>
45265656

> <PUBCHEM_COMPOUND_CANONICALIZED>
1

> <PUBCHEM_CACTVS_COMPLEXITY>
453

> <PUBCHEM_CACTVS_HBOND_ACCEPTOR>
3

> <PUBCHEM_CACTVS_HBOND_DONOR>
1

> <PUBCHEM_CACTVS_ROTATABLE_BOND>
6

> <PUBCHEM_CACTVS_SUBSKEYS>
AAADceB6IQAEAAAAAAAAAAAAAAAAAWAAAAA8YIAABgAAAAABQAAAHwAAAAAADSzBmAwwAIMAAACIAqBSAAACAAAkAAAIiAEIAMgIIDKAlRCEIQAggACIiYcciMCOgAAAAAAAAAAAAAAAAAAAAAAAAAAAAA==

> <PUBCHEM_IUPAC_OPENEYE_NAME>
1-(4-fluorophenyl)-4-(3-phenyl-8-azabicyclo[3.2.1]octan-8-yl)butan-1-one;hydrochloride

> <PUBCHEM_IUPAC_CAS_NAME>
1-(4-fluorophenyl)-4-(3-phenyl-8-azabicyclo[3.2.1]octan-8-yl)-1-butanone;hydrochloride

> <PUBCHEM_IUPAC_NAME_MARKUP>
1-(4-fluorophenyl)-4-(3-phenyl-8-azabicyclo[3.2.1]octan-8-yl)butan-1-one;hydrochloride

> <PUBCHEM_IUPAC_NAME>
1-(4-fluorophenyl)-4-(3-phenyl-8-azabicyclo[3.2.1]octan-8-yl)butan-1-one;hydrochloride

> <PUBCHEM_IUPAC_SYSTEMATIC_NAME>
1-(4-fluorophenyl)-4-(3-phenyl-8-azabicyclo[3.2.1]octan-8-yl)butan-1-one;hydrochloride

> <PUBCHEM_IUPAC_TRADITIONAL_NAME>
1-(4-fluorophenyl)-4-(3-phenyl-8-azabicyclo[3.2.1]octan-8-yl)butan-1-one;hydrochloride

> <PUBCHEM_IUPAC_INCHI>
InChI=1S/C23H26FNO.ClH/c24-20-10-8-18(9-11-20)23(26)7-4-14-25-21-12-13-22(25)16-19(15-21)17-5-2-1-3-6-17;/h1-3,5-6,8-11,19,21-22H,4,7,12-16H2;1H

> <PUBCHEM_IUPAC_INCHIKEY>
LAWPMOMIKNXPOE-UHFFFAOYSA-N

> <PUBCHEM_EXACT_MASS>
387.1765203

> <PUBCHEM_MOLECULAR_FORMULA>
C23H27ClFNO

> <PUBCHEM_MOLECULAR_WEIGHT>
387.9

> <PUBCHEM_OPENEYE_CAN_SMILES>
C1CC2CC(CC1N2CCCC(=O)C3=CC=C(C=C3)F)C4=CC=CC=C4.Cl

> <PUBCHEM_OPENEYE_ISO_SMILES>
C1CC2CC(CC1N2CCCC(=O)C3=CC=C(C=C3)F)C4=CC=CC=C4.Cl

> <PUBCHEM_CACTVS_TPSA>
20.3

> <PUBCHEM_MONOISOTOPIC_WEIGHT>
387.1765203

> <PUBCHEM_TOTAL_CHARGE>
0

> <PUBCHEM_HEAVY_ATOM_COUNT>
27

> <PUBCHEM_ATOM_DEF_STEREO_COUNT>
0

> <PUBCHEM_ATOM_UDEF_STEREO_COUNT>
2

> <PUBCHEM_BOND_DEF_STEREO_COUNT>
0

> <PUBCHEM_BOND_UDEF_STEREO_COUNT>
0

> <PUBCHEM_ISOTOPIC_ATOM_COUNT>
0

> <PUBCHEM_COMPONENT_COUNT>
2

> <PUBCHEM_CACTVS_TAUTO_COUNT>
-1

> <PUBCHEM_COORDINATE_TYPE>
1
5
255

> <PUBCHEM_BONDANNOTATIONS>
13  15  8
13  16  8
15  18  8
16  19  8
18  21  8
19  21  8
22  23  8
22  24  8
23  25  8
24  26  8
25  27  8
26  27  8
5  7  3
6  8  3

$$$$
