66801225
  -OEChem-09292322342D

 59 63  0     0  0  0  0  0  0999 V2000
   10.3438    2.6453    0.0000 S   0  0  0  0  0  0  0  0  0  0  0  0
   12.9223    2.6777    0.0000 S   0  0  0  0  0  0  0  0  0  0  0  0
    2.0000   -5.4812    0.0000 F   0  0  0  0  0  0  0  0  0  0  0  0
    5.5443   -5.2860    0.0000 O   0  0  0  0  0  0  0  0  0  0  0  0
   10.1376    3.6238    0.0000 O   0  0  0  0  0  0  0  0  0  0  0  0
   10.5500    1.6668    0.0000 O   0  0  0  0  0  0  0  0  0  0  0  0
    6.4763   -0.8249    0.0000 N   0  0  0  0  0  0  0  0  0  0  0  0
    6.1279   -4.4812    0.0000 N   0  0  0  0  0  0  0  0  0  0  0  0
    9.3653    2.4391    0.0000 N   0  0  0  0  0  0  0  0  0  0  0  0
    5.8550   -2.7260    0.0000 C   0  0  0  0  0  0  0  0  0  0  0  0
    5.1871   -1.9817    0.0000 C   0  0  0  0  0  0  0  0  0  0  0  0
    6.8335   -2.5198    0.0000 C   0  0  0  0  0  0  0  0  0  0  0  0
    5.4978   -1.0312    0.0000 C   0  0  0  0  0  0  0  0  0  0  0  0
    7.1441   -1.5692    0.0000 C   0  0  0  0  0  0  0  0  0  0  0  0
    6.7870    0.1256    0.0000 C   0  0  0  0  0  0  0  0  0  0  0  0
    5.5443   -3.6765    0.0000 C   0  0  0  0  0  0  0  0  0  0  0  0
    7.7654    0.3318    0.0000 C   0  0  0  0  0  0  0  0  0  0  0  0
    4.5981   -3.9812    0.0000 C   0  0  0  0  0  0  0  0  0  0  0  0
    8.0761    1.2823    0.0000 C   0  0  0  0  0  0  0  0  0  0  0  0
    9.0546    1.4886    0.0000 C   0  0  0  0  0  0  0  0  0  0  0  0
    4.5981   -4.9812    0.0000 C   0  0  0  0  0  0  0  0  0  0  0  0
    3.7320   -3.4812    0.0000 C   0  0  0  0  0  0  0  0  0  0  0  0
    3.7320   -5.4812    0.0000 C   0  0  0  0  0  0  0  0  0  0  0  0
    2.8660   -3.9812    0.0000 C   0  0  0  0  0  0  0  0  0  0  0  0
    2.8660   -4.9812    0.0000 C   0  0  0  0  0  0  0  0  0  0  0  0
   11.3223    2.8515    0.0000 C   0  0  0  0  0  0  0  0  0  0  0  0
   11.7274    3.7593    0.0000 C   0  0  0  0  0  0  0  0  0  0  0  0
   12.0593    2.1844    0.0000 C   0  0  0  0  0  0  0  0  0  0  0  0
   12.7216    3.6513    0.0000 C   0  0  0  0  0  0  0  0  0  0  0  0
   11.3238    4.6742    0.0000 C   0  0  0  0  0  0  0  0  0  0  0  0
   13.3121    4.4583    0.0000 C   0  0  0  0  0  0  0  0  0  0  0  0
   11.9144    5.4812    0.0000 C   0  0  0  0  0  0  0  0  0  0  0  0
   12.9086    5.3732    0.0000 C   0  0  0  0  0  0  0  0  0  0  0  0
    6.2690   -3.1874    0.0000 H   0  0  0  0  0  0  0  0  0  0  0  0
    4.6402   -1.6896    0.0000 H   0  0  0  0  0  0  0  0  0  0  0  0
    4.8046   -2.4696    0.0000 H   0  0  0  0  0  0  0  0  0  0  0  0
    6.8540   -3.1394    0.0000 H   0  0  0  0  0  0  0  0  0  0  0  0
    7.4473   -2.6071    0.0000 H   0  0  0  0  0  0  0  0  0  0  0  0
    5.4772   -0.4115    0.0000 H   0  0  0  0  0  0  0  0  0  0  0  0
    4.8840   -0.9438    0.0000 H   0  0  0  0  0  0  0  0  0  0  0  0
    7.6910   -1.8612    0.0000 H   0  0  0  0  0  0  0  0  0  0  0  0
    7.5267   -1.0813    0.0000 H   0  0  0  0  0  0  0  0  0  0  0  0
    6.7664    0.7453    0.0000 H   0  0  0  0  0  0  0  0  0  0  0  0
    6.1731    0.2129    0.0000 H   0  0  0  0  0  0  0  0  0  0  0  0
    7.7860   -0.2878    0.0000 H   0  0  0  0  0  0  0  0  0  0  0  0
    8.3793    0.2445    0.0000 H   0  0  0  0  0  0  0  0  0  0  0  0
    8.0556    1.9020    0.0000 H   0  0  0  0  0  0  0  0  0  0  0  0
    7.4623    1.3697    0.0000 H   0  0  0  0  0  0  0  0  0  0  0  0
    9.0752    0.8689    0.0000 H   0  0  0  0  0  0  0  0  0  0  0  0
    9.6684    1.4012    0.0000 H   0  0  0  0  0  0  0  0  0  0  0  0
    3.7320   -2.8612    0.0000 H   0  0  0  0  0  0  0  0  0  0  0  0
    8.9512    2.9005    0.0000 H   0  0  0  0  0  0  0  0  0  0  0  0
    3.7320   -6.1012    0.0000 H   0  0  0  0  0  0  0  0  0  0  0  0
    2.3291   -3.6712    0.0000 H   0  0  0  0  0  0  0  0  0  0  0  0
   11.9924    1.5680    0.0000 H   0  0  0  0  0  0  0  0  0  0  0  0
   10.7075    4.7412    0.0000 H   0  0  0  0  0  0  0  0  0  0  0  0
   13.9285    4.3914    0.0000 H   0  0  0  0  0  0  0  0  0  0  0  0
   11.6642    6.0485    0.0000 H   0  0  0  0  0  0  0  0  0  0  0  0
   13.2747    5.8736    0.0000 H   0  0  0  0  0  0  0  0  0  0  0  0
  1  5  2  0  0  0  0
  1  6  2  0  0  0  0
  1  9  1  0  0  0  0
  1 26  1  0  0  0  0
  2 28  1  0  0  0  0
  2 29  1  0  0  0  0
  3 25  1  0  0  0  0
  4  8  1  0  0  0  0
  4 21  1  0  0  0  0
  7 13  1  0  0  0  0
  7 14  1  0  0  0  0
  7 15  1  0  0  0  0
  8 16  2  0  0  0  0
  9 20  1  0  0  0  0
  9 52  1  0  0  0  0
 10 11  1  0  0  0  0
 10 12  1  0  0  0  0
 10 16  1  0  0  0  0
 10 34  1  0  0  0  0
 11 13  1  0  0  0  0
 11 35  1  0  0  0  0
 11 36  1  0  0  0  0
 12 14  1  0  0  0  0
 12 37  1  0  0  0  0
 12 38  1  0  0  0  0
 13 39  1  0  0  0  0
 13 40  1  0  0  0  0
 14 41  1  0  0  0  0
 14 42  1  0  0  0  0
 15 17  1  0  0  0  0
 15 43  1  0  0  0  0
 15 44  1  0  0  0  0
 16 18  1  0  0  0  0
 17 19  1  0  0  0  0
 17 45  1  0  0  0  0
 17 46  1  0  0  0  0
 18 21  2  0  0  0  0
 18 22  1  0  0  0  0
 19 20  1  0  0  0  0
 19 47  1  0  0  0  0
 19 48  1  0  0  0  0
 20 49  1  0  0  0  0
 20 50  1  0  0  0  0
 21 23  1  0  0  0  0
 22 24  2  0  0  0  0
 22 51  1  0  0  0  0
 23 25  2  0  0  0  0
 23 53  1  0  0  0  0
 24 25  1  0  0  0  0
 24 54  1  0  0  0  0
 26 27  1  0  0  0  0
 26 28  2  0  0  0  0
 27 29  1  0  0  0  0
 27 30  2  0  0  0  0
 28 55  1  0  0  0  0
 29 31  2  0  0  0  0
 30 32  1  0  0  0  0
 30 56  1  0  0  0  0
 31 33  1  0  0  0  0
 31 57  1  0  0  0  0
 32 33  2  0  0  0  0
 32 58  1  0  0  0  0
 33 59  1  0  0  0  0
M  END
> <PUBCHEM_COMPOUND_CID>
66801225

> <PUBCHEM_COMPOUND_CANONICALIZED>
1

> <PUBCHEM_CACTVS_COMPLEXITY>
744

> <PUBCHEM_CACTVS_HBOND_ACCEPTOR>
8

> <PUBCHEM_CACTVS_HBOND_DONOR>
1

> <PUBCHEM_CACTVS_ROTATABLE_BOND>
8

> <PUBCHEM_CACTVS_SUBSKEYS>
AAADceB7MQBgAAAAAAAAAAAAAAAAAWJAAAA8YIAAAAAAAFgB/gAAHwQUQAAADQzF3gywh9NQAAqtA6RyQnDDAJAkKBBomLk+TNoIJrqglZOEMYBm0BmoyceYyOCOAAAAAAAMAAAAAAAAABgAAAAAAAAAAA==

> <PUBCHEM_IUPAC_OPENEYE_NAME>
N-[4-[4-(6-fluoro-1,2-benzoxazol-3-yl)-1-piperidyl]butyl]benzothiophene-3-sulfonamide

> <PUBCHEM_IUPAC_CAS_NAME>
N-[4-[4-(6-fluoro-1,2-benzoxazol-3-yl)-1-piperidinyl]butyl]-1-benzothiophene-3-sulfonamide

> <PUBCHEM_IUPAC_NAME_MARKUP>
<I>N</I>-[4-[4-(6-fluoro-1,2-benzoxazol-3-yl)piperidin-1-yl]butyl]-1-benzothiophene-3-sulfonamide

> <PUBCHEM_IUPAC_NAME>
N-[4-[4-(6-fluoro-1,2-benzoxazol-3-yl)piperidin-1-yl]butyl]-1-benzothiophene-3-sulfonamide

> <PUBCHEM_IUPAC_SYSTEMATIC_NAME>
N-[4-[4-(6-fluoranyl-1,2-benzoxazol-3-yl)piperidin-1-yl]butyl]-1-benzothiophene-3-sulfonamide

> <PUBCHEM_IUPAC_TRADITIONAL_NAME>
N-[4-[4-(6-fluoroindoxazen-3-yl)piperidino]butyl]benzothiophene-3-sulfonamide

> <PUBCHEM_IUPAC_INCHI>
InChI=1S/C24H26FN3O3S2/c25-18-7-8-19-21(15-18)31-27-24(19)17-9-13-28(14-10-17)12-4-3-11-26-33(29,30)23-16-32-22-6-2-1-5-20(22)23/h1-2,5-8,15-17,26H,3-4,9-14H2

> <PUBCHEM_IUPAC_INCHIKEY>
CUNIDKSASOTBGS-UHFFFAOYSA-N

> <PUBCHEM_XLOGP3_AA>
4.8

> <PUBCHEM_EXACT_MASS>
487.13996221

> <PUBCHEM_MOLECULAR_FORMULA>
C24H26FN3O3S2

> <PUBCHEM_MOLECULAR_WEIGHT>
487.6

> <PUBCHEM_OPENEYE_CAN_SMILES>
C1CN(CCC1C2=NOC3=C2C=CC(=C3)F)CCCCNS(=O)(=O)C4=CSC5=CC=CC=C54

> <PUBCHEM_OPENEYE_ISO_SMILES>
C1CN(CCC1C2=NOC3=C2C=CC(=C3)F)CCCCNS(=O)(=O)C4=CSC5=CC=CC=C54

> <PUBCHEM_CACTVS_TPSA>
112

> <PUBCHEM_MONOISOTOPIC_WEIGHT>
487.13996221

> <PUBCHEM_TOTAL_CHARGE>
0

> <PUBCHEM_HEAVY_ATOM_COUNT>
33

> <PUBCHEM_ATOM_DEF_STEREO_COUNT>
0

> <PUBCHEM_ATOM_UDEF_STEREO_COUNT>
0

> <PUBCHEM_BOND_DEF_STEREO_COUNT>
0

> <PUBCHEM_BOND_UDEF_STEREO_COUNT>
0

> <PUBCHEM_ISOTOPIC_ATOM_COUNT>
0

> <PUBCHEM_COMPONENT_COUNT>
1

> <PUBCHEM_CACTVS_TAUTO_COUNT>
-1

> <PUBCHEM_COORDINATE_TYPE>
1
5
255

> <PUBCHEM_BONDANNOTATIONS>
16  18  8
18  21  8
18  22  8
2  28  8
2  29  8
21  23  8
22  24  8
23  25  8
24  25  8
26  27  8
26  28  8
27  29  8
27  30  8
29  31  8
30  32  8
31  33  8
32  33  8
4  21  8
4  8  8
8  16  8

$$$$
