118736404
  -OEChem-09292322092D

117123  0     1  0  0  0  0  0999 V2000
    9.9622    6.8128    0.0000 O   0  0  0  0  0  0  0  0  0  0  0  0
   12.8172    0.9095    0.0000 O   0  0  0  0  0  0  0  0  0  0  0  0
   13.3760   -0.3327    0.0000 O   0  0  0  0  0  0  0  0  0  0  0  0
   14.3893   -3.7929    0.0000 O   0  0  0  0  0  0  0  0  0  0  0  0
   17.8860   -2.9134    0.0000 O   0  0  0  0  0  0  0  0  0  0  0  0
    6.9654    7.4602    0.0000 N   0  0  3  0  0  0  0  0  0  0  0  0
    4.5124    6.3428    0.0000 N   0  0  0  0  0  0  0  0  0  0  0  0
    9.6086    5.1172    0.0000 N   0  0  0  0  0  0  0  0  0  0  0  0
   14.4624    1.4511    0.0000 N   0  0  0  0  0  0  0  0  0  0  0  0
   14.8793   -1.1929    0.0000 N   0  0  0  0  0  0  0  0  0  0  0  0
   15.8860   -2.9211    0.0000 N   0  0  0  0  0  0  0  0  0  0  0  0
   12.5602   -4.5088    0.0000 N   0  0  0  0  0  0  0  0  0  0  0  0
   17.8927   -4.6454    0.0000 N   0  0  0  0  0  0  0  0  0  0  0  0
   15.9060   -8.1172    0.0000 N   0  0  0  0  0  0  0  0  0  0  0  0
    6.2962    6.7171    0.0000 C   0  0  2  0  0  0  0  0  0  0  0  0
    6.6028    5.7216    0.0000 C   0  0  0  0  0  0  0  0  0  0  0  0
    8.3170    6.2712    0.0000 C   0  0  2  0  0  0  0  0  0  0  0  0
    7.9875    7.2594    0.0000 C   0  0  0  0  0  0  0  0  0  0  0  0
    7.6200    5.4972    0.0000 C   0  0  0  0  0  0  0  0  0  0  0  0
    5.3181    6.9250    0.0000 C   0  0  0  0  0  0  0  0  0  0  0  0
    6.6564    8.4113    0.0000 C   0  0  0  0  0  0  0  0  0  0  0  0
    5.0091    7.8760    0.0000 C   0  0  0  0  0  0  0  0  0  0  0  0
    5.6782    8.6192    0.0000 C   0  0  0  0  0  0  0  0  0  0  0  0
    4.0150    7.8734    0.0000 C   0  0  0  0  0  0  0  0  0  0  0  0
    9.2959    6.0671    0.0000 C   0  0  0  0  0  0  0  0  0  0  0  0
    3.7086    6.9278    0.0000 C   0  0  0  0  0  0  0  0  0  0  0  0
    3.3334    8.6530    0.0000 C   0  0  0  0  0  0  0  0  0  0  0  0
    2.6994    6.6960    0.0000 C   0  0  0  0  0  0  0  0  0  0  0  0
   10.5875    4.9131    0.0000 C   0  0  0  0  0  0  0  0  0  0  0  0
    2.3191    8.4446    0.0000 C   0  0  0  0  0  0  0  0  0  0  0  0
    2.0000    7.4595    0.0000 C   0  0  0  0  0  0  0  0  0  0  0  0
   10.9002    3.9632    0.0000 C   0  0  0  0  0  0  0  0  0  0  0  0
   14.8727    0.5391    0.0000 C   0  0  1  0  0  0  0  0  0  0  0  0
   15.8668    0.6475    0.0000 C   0  0  0  0  0  0  0  0  0  0  0  0
   16.0709    1.6264    0.0000 C   0  0  0  0  0  0  0  0  0  0  0  0
   15.2030    2.1231    0.0000 C   0  0  0  0  0  0  0  0  0  0  0  0
   11.8792    3.7591    0.0000 C   0  0  0  0  0  0  0  0  0  0  0  0
   12.1918    2.8092    0.0000 C   0  0  0  0  0  0  0  0  0  0  0  0
   13.1708    2.6051    0.0000 C   0  0  0  0  0  0  0  0  0  0  0  0
   13.4835    1.6552    0.0000 C   0  0  0  0  0  0  0  0  0  0  0  0
   14.3760   -0.3288    0.0000 C   0  0  0  0  0  0  0  0  0  0  0  0
   14.3827   -2.0609    0.0000 C   0  0  1  0  0  0  0  0  0  0  0  0
   13.3827   -2.0647    0.0000 C   0  0  0  0  0  0  0  0  0  0  0  0
   14.8860   -2.9250    0.0000 C   0  0  0  0  0  0  0  0  0  0  0  0
   12.8860   -2.9327    0.0000 C   0  0  0  0  0  0  0  0  0  0  0  0
   16.3893   -3.7852    0.0000 C   0  0  1  0  0  0  0  0  0  0  0  0
   11.8977   -3.0395    0.0000 C   0  0  0  0  0  0  0  0  0  0  0  0
   13.2946   -3.8389    0.0000 C   0  0  0  0  0  0  0  0  0  0  0  0
   15.8927   -4.6531    0.0000 C   0  0  0  0  0  0  0  0  0  0  0  0
   11.6953   -4.0188    0.0000 C   0  0  0  0  0  0  0  0  0  0  0  0
   16.3960   -5.5172    0.0000 C   0  0  0  0  0  0  0  0  0  0  0  0
   11.1508   -2.3746    0.0000 C   0  0  0  0  0  0  0  0  0  0  0  0
   17.3893   -3.7813    0.0000 C   0  0  0  0  0  0  0  0  0  0  0  0
   15.8993   -6.3852    0.0000 C   0  0  0  0  0  0  0  0  0  0  0  0
   10.7459   -4.3331    0.0000 C   0  0  0  0  0  0  0  0  0  0  0  0
   10.2015   -2.6889    0.0000 C   0  0  0  0  0  0  0  0  0  0  0  0
    9.9991   -3.6682    0.0000 C   0  0  0  0  0  0  0  0  0  0  0  0
   16.4027   -7.2493    0.0000 C   0  0  0  0  0  0  0  0  0  0  0  0
    5.7226    6.0898    0.0000 H   0  0  0  0  0  0  0  0  0  0  0  0
    5.9878    5.6432    0.0000 H   0  0  0  0  0  0  0  0  0  0  0  0
    6.5748    5.1022    0.0000 H   0  0  0  0  0  0  0  0  0  0  0  0
    8.5097    5.6819    0.0000 H   0  0  0  0  0  0  0  0  0  0  0  0
    8.6005    7.3520    0.0000 H   0  0  0  0  0  0  0  0  0  0  0  0
    8.0011    7.8792    0.0000 H   0  0  0  0  0  0  0  0  0  0  0  0
    7.3848    4.9235    0.0000 H   0  0  0  0  0  0  0  0  0  0  0  0
    8.1449    5.1672    0.0000 H   0  0  0  0  0  0  0  0  0  0  0  0
    7.2703    8.4976    0.0000 H   0  0  0  0  0  0  0  0  0  0  0  0
    6.6780    9.0309    0.0000 H   0  0  0  0  0  0  0  0  0  0  0  0
    5.9105    9.1940    0.0000 H   0  0  0  0  0  0  0  0  0  0  0  0
    5.1524    8.9477    0.0000 H   0  0  0  0  0  0  0  0  0  0  0  0
    4.5113    5.7227    0.0000 H   0  0  0  0  0  0  0  0  0  0  0  0
    3.5313    9.2405    0.0000 H   0  0  0  0  0  0  0  0  0  0  0  0
    9.1955    4.6549    0.0000 H   0  0  0  0  0  0  0  0  0  0  0  0
    2.5152    6.1040    0.0000 H   0  0  0  0  0  0  0  0  0  0  0  0
   11.2012    5.0017    0.0000 H   0  0  0  0  0  0  0  0  0  0  0  0
   10.6068    5.5328    0.0000 H   0  0  0  0  0  0  0  0  0  0  0  0
    1.9056    8.9066    0.0000 H   0  0  0  0  0  0  0  0  0  0  0  0
    1.3942    7.3278    0.0000 H   0  0  0  0  0  0  0  0  0  0  0  0
   10.2866    3.8746    0.0000 H   0  0  0  0  0  0  0  0  0  0  0  0
   10.8810    3.3435    0.0000 H   0  0  0  0  0  0  0  0  0  0  0  0
   14.2534    0.5692    0.0000 H   0  0  0  0  0  0  0  0  0  0  0  0
   15.8692    0.0275    0.0000 H   0  0  0  0  0  0  0  0  0  0  0  0
   16.4836    0.5851    0.0000 H   0  0  0  0  0  0  0  0  0  0  0  0
   16.6613    1.4371    0.0000 H   0  0  0  0  0  0  0  0  0  0  0  0
   16.3209    2.1938    0.0000 H   0  0  0  0  0  0  0  0  0  0  0  0
   15.5654    2.6261    0.0000 H   0  0  0  0  0  0  0  0  0  0  0  0
   14.7406    2.5362    0.0000 H   0  0  0  0  0  0  0  0  0  0  0  0
   12.4928    3.8478    0.0000 H   0  0  0  0  0  0  0  0  0  0  0  0
   11.8984    4.3788    0.0000 H   0  0  0  0  0  0  0  0  0  0  0  0
   11.5782    2.7206    0.0000 H   0  0  0  0  0  0  0  0  0  0  0  0
   12.1726    2.1895    0.0000 H   0  0  0  0  0  0  0  0  0  0  0  0
   13.7844    2.6938    0.0000 H   0  0  0  0  0  0  0  0  0  0  0  0
   13.1900    3.2248    0.0000 H   0  0  0  0  0  0  0  0  0  0  0  0
   15.4993   -1.1905    0.0000 H   0  0  0  0  0  0  0  0  0  0  0  0
   15.0027   -2.0585    0.0000 H   0  0  0  0  0  0  0  0  0  0  0  0
   13.4880   -1.4537    0.0000 H   0  0  0  0  0  0  0  0  0  0  0  0
   12.7993   -1.8549    0.0000 H   0  0  0  0  0  0  0  0  0  0  0  0
   16.1939   -2.3830    0.0000 H   0  0  0  0  0  0  0  0  0  0  0  0
   15.7693   -3.7876    0.0000 H   0  0  0  0  0  0  0  0  0  0  0  0
   13.9018   -3.9644    0.0000 H   0  0  0  0  0  0  0  0  0  0  0  0
   15.4162   -4.2564    0.0000 H   0  0  0  0  0  0  0  0  0  0  0  0
   15.4193   -5.0535    0.0000 H   0  0  0  0  0  0  0  0  0  0  0  0
   12.6295   -5.1249    0.0000 H   0  0  0  0  0  0  0  0  0  0  0  0
   16.8725   -5.9139    0.0000 H   0  0  0  0  0  0  0  0  0  0  0  0
   16.8694   -5.1169    0.0000 H   0  0  0  0  0  0  0  0  0  0  0  0
   11.2763   -1.7674    0.0000 H   0  0  0  0  0  0  0  0  0  0  0  0
   15.4229   -5.9885    0.0000 H   0  0  0  0  0  0  0  0  0  0  0  0
   15.4259   -6.7855    0.0000 H   0  0  0  0  0  0  0  0  0  0  0  0
   10.6204   -4.9403    0.0000 H   0  0  0  0  0  0  0  0  0  0  0  0
    9.7384   -2.2766    0.0000 H   0  0  0  0  0  0  0  0  0  0  0  0
    9.4105   -3.8630    0.0000 H   0  0  0  0  0  0  0  0  0  0  0  0
   16.8792   -7.6460    0.0000 H   0  0  0  0  0  0  0  0  0  0  0  0
   16.8761   -6.8489    0.0000 H   0  0  0  0  0  0  0  0  0  0  0  0
   18.5127   -4.6430    0.0000 H   0  0  0  0  0  0  0  0  0  0  0  0
   17.5847   -5.1836    0.0000 H   0  0  0  0  0  0  0  0  0  0  0  0
   16.2181   -8.6530    0.0000 H   0  0  0  0  0  0  0  0  0  0  0  0
   15.2860   -8.1196    0.0000 H   0  0  0  0  0  0  0  0  0  0  0  0
  1 25  2  0  0  0  0
  2 40  2  0  0  0  0
  3 41  2  0  0  0  0
  4 44  2  0  0  0  0
  5 53  2  0  0  0  0
  6 15  1  0  0  0  0
  6 18  1  0  0  0  0
  6 21  1  0  0  0  0
  7 20  1  0  0  0  0
  7 26  1  0  0  0  0
  7 71  1  0  0  0  0
  8 25  1  0  0  0  0
  8 29  1  0  0  0  0
  8 73  1  0  0  0  0
  9 33  1  0  0  0  0
  9 36  1  0  0  0  0
  9 40  1  0  0  0  0
 10 41  1  0  0  0  0
 42 10  1  6  0  0  0
 10 94  1  0  0  0  0
 11 44  1  0  0  0  0
 46 11  1  6  0  0  0
 11 98  1  0  0  0  0
 12 48  1  0  0  0  0
 12 50  1  0  0  0  0
 12103  1  0  0  0  0
 13 53  1  0  0  0  0
 13114  1  0  0  0  0
 13115  1  0  0  0  0
 14 58  1  0  0  0  0
 14116  1  0  0  0  0
 14117  1  0  0  0  0
 15 16  1  0  0  0  0
 15 20  1  0  0  0  0
 15 59  1  1  0  0  0
 16 19  1  0  0  0  0
 16 60  1  0  0  0  0
 16 61  1  0  0  0  0
 17 18  1  0  0  0  0
 17 19  1  0  0  0  0
 17 25  1  1  0  0  0
 17 62  1  0  0  0  0
 18 63  1  0  0  0  0
 18 64  1  0  0  0  0
 19 65  1  0  0  0  0
 19 66  1  0  0  0  0
 20 22  2  0  0  0  0
 21 23  1  0  0  0  0
 21 67  1  0  0  0  0
 21 68  1  0  0  0  0
 22 23  1  0  0  0  0
 22 24  1  0  0  0  0
 23 69  1  0  0  0  0
 23 70  1  0  0  0  0
 24 26  1  0  0  0  0
 24 27  2  0  0  0  0
 26 28  2  0  0  0  0
 27 30  1  0  0  0  0
 27 72  1  0  0  0  0
 28 31  1  0  0  0  0
 28 74  1  0  0  0  0
 29 32  1  0  0  0  0
 29 75  1  0  0  0  0
 29 76  1  0  0  0  0
 30 31  2  0  0  0  0
 30 77  1  0  0  0  0
 31 78  1  0  0  0  0
 32 37  1  0  0  0  0
 32 79  1  0  0  0  0
 32 80  1  0  0  0  0
 33 34  1  0  0  0  0
 33 41  1  1  0  0  0
 33 81  1  0  0  0  0
 34 35  1  0  0  0  0
 34 82  1  0  0  0  0
 34 83  1  0  0  0  0
 35 36  1  0  0  0  0
 35 84  1  0  0  0  0
 35 85  1  0  0  0  0
 36 86  1  0  0  0  0
 36 87  1  0  0  0  0
 37 38  1  0  0  0  0
 37 88  1  0  0  0  0
 37 89  1  0  0  0  0
 38 39  1  0  0  0  0
 38 90  1  0  0  0  0
 38 91  1  0  0  0  0
 39 40  1  0  0  0  0
 39 92  1  0  0  0  0
 39 93  1  0  0  0  0
 42 43  1  0  0  0  0
 42 44  1  0  0  0  0
 42 95  1  0  0  0  0
 43 45  1  0  0  0  0
 43 96  1  0  0  0  0
 43 97  1  0  0  0  0
 45 47  1  0  0  0  0
 45 48  2  0  0  0  0
 46 49  1  0  0  0  0
 46 53  1  0  0  0  0
 46 99  1  0  0  0  0
 47 50  1  0  0  0  0
 47 52  2  0  0  0  0
 48100  1  0  0  0  0
 49 51  1  0  0  0  0
 49101  1  0  0  0  0
 49102  1  0  0  0  0
 50 55  2  0  0  0  0
 51 54  1  0  0  0  0
 51104  1  0  0  0  0
 51105  1  0  0  0  0
 52 56  1  0  0  0  0
 52106  1  0  0  0  0
 54 58  1  0  0  0  0
 54107  1  0  0  0  0
 54108  1  0  0  0  0
 55 57  1  0  0  0  0
 55109  1  0  0  0  0
 56 57  2  0  0  0  0
 56110  1  0  0  0  0
 57111  1  0  0  0  0
 58112  1  0  0  0  0
 58113  1  0  0  0  0
M  END
> <PUBCHEM_COMPOUND_CID>
118736404

> <PUBCHEM_COMPOUND_CANONICALIZED>
1

> <PUBCHEM_CACTVS_COMPLEXITY>
1430

> <PUBCHEM_CACTVS_HBOND_ACCEPTOR>
7

> <PUBCHEM_CACTVS_HBOND_DONOR>
7

> <PUBCHEM_CACTVS_ROTATABLE_BOND>
18

> <PUBCHEM_CACTVS_SUBSKEYS>
AAADcfB/+AAAAAAAAAAAAAAAAAAAAWLFgAA8eIEAAAAAAFix/gAAHgAQAAAADSjBngQ8wPPJkACoAzV3VACCgCAxAiAI2aG4ZJgIYPrA0bGUIAhglgDIyAcYicCegAAAAAACAAAAAAAAAAQAAAAAAAAAAA==

> <PUBCHEM_IUPAC_OPENEYE_NAME>
(3S,12bR)-N-[6-[(2S)-2-[[(1S)-2-[[(1S)-5-amino-1-carbamoyl-pentyl]amino]-1-(1H-indol-3-ylmethyl)-2-oxo-ethyl]carbamoyl]pyrrolidin-1-yl]-6-oxo-hexyl]-1,2,3,4,6,7,12,12b-octahydroindolo[2,3-a]quinolizine-3-carboxamide

> <PUBCHEM_IUPAC_CAS_NAME>
(3S,12bR)-N-[6-[(2S)-2-[[[(2S)-1-[[(2S)-1,6-diamino-1-oxohexan-2-yl]amino]-3-(1H-indol-3-yl)-1-oxopropan-2-yl]amino]-oxomethyl]-1-pyrrolidinyl]-6-oxohexyl]-1,2,3,4,6,7,12,12b-octahydroindolo[2,3-a]quinolizine-3-carboxamide

> <PUBCHEM_IUPAC_NAME_MARKUP>
(3<I>S</I>,12<I>b</I><I>R</I>)-<I>N</I>-[6-[(2<I>S</I>)-2-[[(2<I>S</I>)-1-[[(2<I>S</I>)-1,6-diamino-1-oxohexan-2-yl]amino]-3-(1<I>H</I>-indol-3-yl)-1-oxopropan-2-yl]carbamoyl]pyrrolidin-1-yl]-6-oxohexyl]-1,2,3,4,6,7,12,12<I>b</I>-octahydroindolo[2,3-a]quinolizine-3-carboxamide

> <PUBCHEM_IUPAC_NAME>
(3S,12bR)-N-[6-[(2S)-2-[[(2S)-1-[[(2S)-1,6-diamino-1-oxohexan-2-yl]amino]-3-(1H-indol-3-yl)-1-oxopropan-2-yl]carbamoyl]pyrrolidin-1-yl]-6-oxohexyl]-1,2,3,4,6,7,12,12b-octahydroindolo[2,3-a]quinolizine-3-carboxamide

> <PUBCHEM_IUPAC_SYSTEMATIC_NAME>
(3S,12bR)-N-[6-[(2S)-2-[[(2S)-1-[[(2S)-1,6-bis(azanyl)-1-oxidanylidene-hexan-2-yl]amino]-3-(1H-indol-3-yl)-1-oxidanylidene-propan-2-yl]carbamoyl]pyrrolidin-1-yl]-6-oxidanylidene-hexyl]-1,2,3,4,6,7,12,12b-octahydroindolo[2,3-a]quinolizine-3-carboxamide

> <PUBCHEM_IUPAC_TRADITIONAL_NAME>
(3S,12bR)-N-[6-[(2S)-2-[[(1S)-2-[[(1S)-5-amino-1-carbamoyl-pentyl]amino]-1-(1H-indol-3-ylmethyl)-2-keto-ethyl]carbamoyl]pyrrolidino]-6-keto-hexyl]-1,2,3,4,6,7,12,12b-octahydropyrido[2,1-a]beta-carboline-3-carboxamide

> <PUBCHEM_IUPAC_INCHI>
InChI=1S/C44H59N9O5/c45-21-8-7-15-35(41(46)55)50-43(57)36(25-29-26-48-33-13-5-3-11-30(29)33)51-44(58)38-16-10-23-53(38)39(54)17-2-1-9-22-47-42(56)28-18-19-37-40-32(20-24-52(37)27-28)31-12-4-6-14-34(31)49-40/h3-6,11-14,26,28,35-38,48-49H,1-2,7-10,15-25,27,45H2,(H2,46,55)(H,47,56)(H,50,57)(H,51,58)/t28-,35-,36-,37+,38-/m0/s1

> <PUBCHEM_IUPAC_INCHIKEY>
OURUSCSRIFGGEV-QGYMOPKUSA-N

> <PUBCHEM_XLOGP3_AA>
2.7

> <PUBCHEM_EXACT_MASS>
793.46391602

> <PUBCHEM_MOLECULAR_FORMULA>
C44H59N9O5

> <PUBCHEM_MOLECULAR_WEIGHT>
794.0

> <PUBCHEM_OPENEYE_CAN_SMILES>
C1CC(N(C1)C(=O)CCCCCNC(=O)C2CCC3C4=C(CCN3C2)C5=CC=CC=C5N4)C(=O)NC(CC6=CNC7=CC=CC=C76)C(=O)NC(CCCCN)C(=O)N

> <PUBCHEM_OPENEYE_ISO_SMILES>
C1C[C@H](N(C1)C(=O)CCCCCNC(=O)[C@H]2CC[C@@H]3C4=C(CCN3C2)C5=CC=CC=C5N4)C(=O)N[C@@H](CC6=CNC7=CC=CC=C76)C(=O)N[C@@H](CCCCN)C(=O)N

> <PUBCHEM_CACTVS_TPSA>
212

> <PUBCHEM_MONOISOTOPIC_WEIGHT>
793.46391602

> <PUBCHEM_TOTAL_CHARGE>
0

> <PUBCHEM_HEAVY_ATOM_COUNT>
58

> <PUBCHEM_ATOM_DEF_STEREO_COUNT>
5

> <PUBCHEM_ATOM_UDEF_STEREO_COUNT>
0

> <PUBCHEM_BOND_DEF_STEREO_COUNT>
0

> <PUBCHEM_BOND_UDEF_STEREO_COUNT>
0

> <PUBCHEM_ISOTOPIC_ATOM_COUNT>
0

> <PUBCHEM_COMPONENT_COUNT>
1

> <PUBCHEM_CACTVS_TAUTO_COUNT>
-1

> <PUBCHEM_COORDINATE_TYPE>
1
5
255

> <PUBCHEM_BONDANNOTATIONS>
42  10  6
46  11  6
12  48  8
12  50  8
15  59  5
17  25  5
20  22  8
22  24  8
24  26  8
24  27  8
26  28  8
27  30  8
28  31  8
30  31  8
33  41  5
45  47  8
45  48  8
47  50  8
47  52  8
50  55  8
52  56  8
55  57  8
56  57  8
7  20  8
7  26  8

$$$$
