156011945
  -OEChem-09292322012D

 54 58  0     0  0  0  0  0  0999 V2000
   14.0666   -2.3580    0.0000 S   0  0  0  0  0  0  0  0  0  0  0  0
    4.9889    2.9416    0.0000 O   0  0  0  0  0  0  0  0  0  0  0  0
    9.2619   -0.5457    0.0000 N   0  0  0  0  0  0  0  0  0  0  0  0
   11.2619   -0.5457    0.0000 N   0  0  0  0  0  0  0  0  0  0  0  0
    5.2619    1.1863    0.0000 N   0  0  0  0  0  0  0  0  0  0  0  0
    3.7320    1.6863    0.0000 N   0  0  0  0  0  0  0  0  0  0  0  0
    4.6783    0.3816    0.0000 N   0  0  0  0  0  0  0  0  0  0  0  0
    9.7619    0.3203    0.0000 C   0  0  0  0  0  0  0  0  0  0  0  0
    9.7619   -1.4118    0.0000 C   0  0  0  0  0  0  0  0  0  0  0  0
   10.7619    0.3203    0.0000 C   0  0  0  0  0  0  0  0  0  0  0  0
   10.7619   -1.4118    0.0000 C   0  0  0  0  0  0  0  0  0  0  0  0
    8.2619   -0.5457    0.0000 C   0  0  0  0  0  0  0  0  0  0  0  0
    7.7619    0.3203    0.0000 C   0  0  0  0  0  0  0  0  0  0  0  0
   12.2619   -0.5457    0.0000 C   0  0  0  0  0  0  0  0  0  0  0  0
    6.7619    0.3203    0.0000 C   0  0  0  0  0  0  0  0  0  0  0  0
    6.2619    1.1863    0.0000 C   0  0  0  0  0  0  0  0  0  0  0  0
   12.7619   -1.4118    0.0000 C   0  0  0  0  0  0  0  0  0  0  0  0
   12.7619    0.3203    0.0000 C   0  0  0  0  0  0  0  0  0  0  0  0
   13.7619   -1.4118    0.0000 C   0  0  0  0  0  0  0  0  0  0  0  0
   12.4571   -2.3580    0.0000 C   0  0  0  0  0  0  0  0  0  0  0  0
   13.7619    0.3203    0.0000 C   0  0  0  0  0  0  0  0  0  0  0  0
   14.2619   -0.5457    0.0000 C   0  0  0  0  0  0  0  0  0  0  0  0
    4.6783    1.9911    0.0000 C   0  0  0  0  0  0  0  0  0  0  0  0
   13.2619   -2.9416    0.0000 C   0  0  0  0  0  0  0  0  0  0  0  0
    3.7320    0.6863    0.0000 C   0  0  0  0  0  0  0  0  0  0  0  0
    2.8660    2.1863    0.0000 C   0  0  0  0  0  0  0  0  0  0  0  0
    2.8660    0.1863    0.0000 C   0  0  0  0  0  0  0  0  0  0  0  0
    2.0000    1.6863    0.0000 C   0  0  0  0  0  0  0  0  0  0  0  0
    2.0000    0.6863    0.0000 C   0  0  0  0  0  0  0  0  0  0  0  0
    9.8695    0.9309    0.0000 H   0  0  0  0  0  0  0  0  0  0  0  0
    9.1793    0.5324    0.0000 H   0  0  0  0  0  0  0  0  0  0  0  0
    9.1793   -1.6238    0.0000 H   0  0  0  0  0  0  0  0  0  0  0  0
    9.8695   -2.0223    0.0000 H   0  0  0  0  0  0  0  0  0  0  0  0
   11.3445    0.5324    0.0000 H   0  0  0  0  0  0  0  0  0  0  0  0
   10.6542    0.9309    0.0000 H   0  0  0  0  0  0  0  0  0  0  0  0
   10.6542   -2.0223    0.0000 H   0  0  0  0  0  0  0  0  0  0  0  0
   11.3445   -1.6238    0.0000 H   0  0  0  0  0  0  0  0  0  0  0  0
    7.6793   -0.7578    0.0000 H   0  0  0  0  0  0  0  0  0  0  0  0
    8.3695   -1.1563    0.0000 H   0  0  0  0  0  0  0  0  0  0  0  0
    8.3445    0.5324    0.0000 H   0  0  0  0  0  0  0  0  0  0  0  0
    7.6542    0.9309    0.0000 H   0  0  0  0  0  0  0  0  0  0  0  0
    6.1793    0.1082    0.0000 H   0  0  0  0  0  0  0  0  0  0  0  0
    6.8695   -0.2903    0.0000 H   0  0  0  0  0  0  0  0  0  0  0  0
    6.8445    1.3984    0.0000 H   0  0  0  0  0  0  0  0  0  0  0  0
    6.1542    1.7969    0.0000 H   0  0  0  0  0  0  0  0  0  0  0  0
   12.4519    0.8572    0.0000 H   0  0  0  0  0  0  0  0  0  0  0  0
   11.8678   -2.5506    0.0000 H   0  0  0  0  0  0  0  0  0  0  0  0
   14.0719    0.8572    0.0000 H   0  0  0  0  0  0  0  0  0  0  0  0
   14.8819   -0.5457    0.0000 H   0  0  0  0  0  0  0  0  0  0  0  0
   13.2619   -3.5616    0.0000 H   0  0  0  0  0  0  0  0  0  0  0  0
    2.8660    2.8063    0.0000 H   0  0  0  0  0  0  0  0  0  0  0  0
    2.8660   -0.4337    0.0000 H   0  0  0  0  0  0  0  0  0  0  0  0
    1.4631    1.9963    0.0000 H   0  0  0  0  0  0  0  0  0  0  0  0
    1.4631    0.3763    0.0000 H   0  0  0  0  0  0  0  0  0  0  0  0
  1 19  1  0  0  0  0
  1 24  1  0  0  0  0
  2 23  2  0  0  0  0
  3  8  1  0  0  0  0
  3  9  1  0  0  0  0
  3 12  1  0  0  0  0
  4 10  1  0  0  0  0
  4 11  1  0  0  0  0
  4 14  1  0  0  0  0
  5  7  1  0  0  0  0
  5 16  1  0  0  0  0
  5 23  1  0  0  0  0
  6 23  1  0  0  0  0
  6 25  1  0  0  0  0
  6 26  1  0  0  0  0
  7 25  2  0  0  0  0
  8 10  1  0  0  0  0
  8 30  1  0  0  0  0
  8 31  1  0  0  0  0
  9 11  1  0  0  0  0
  9 32  1  0  0  0  0
  9 33  1  0  0  0  0
 10 34  1  0  0  0  0
 10 35  1  0  0  0  0
 11 36  1  0  0  0  0
 11 37  1  0  0  0  0
 12 13  1  0  0  0  0
 12 38  1  0  0  0  0
 12 39  1  0  0  0  0
 13 15  1  0  0  0  0
 13 40  1  0  0  0  0
 13 41  1  0  0  0  0
 14 17  2  0  0  0  0
 14 18  1  0  0  0  0
 15 16  1  0  0  0  0
 15 42  1  0  0  0  0
 15 43  1  0  0  0  0
 16 44  1  0  0  0  0
 16 45  1  0  0  0  0
 17 19  1  0  0  0  0
 17 20  1  0  0  0  0
 18 21  2  0  0  0  0
 18 46  1  0  0  0  0
 19 22  2  0  0  0  0
 20 24  2  0  0  0  0
 20 47  1  0  0  0  0
 21 22  1  0  0  0  0
 21 48  1  0  0  0  0
 22 49  1  0  0  0  0
 24 50  1  0  0  0  0
 25 27  1  0  0  0  0
 26 28  2  0  0  0  0
 26 51  1  0  0  0  0
 27 29  2  0  0  0  0
 27 52  1  0  0  0  0
 28 29  1  0  0  0  0
 28 53  1  0  0  0  0
 29 54  1  0  0  0  0
M  END
> <PUBCHEM_COMPOUND_CID>
156011945

> <PUBCHEM_COMPOUND_CANONICALIZED>
1

> <PUBCHEM_CACTVS_COMPLEXITY>
699

> <PUBCHEM_CACTVS_HBOND_ACCEPTOR>
5

> <PUBCHEM_CACTVS_HBOND_DONOR>
0

> <PUBCHEM_CACTVS_ROTATABLE_BOND>
6

> <PUBCHEM_CACTVS_SUBSKEYS>
AAADceB7oABAAAAAAAAAAAAAAAAAASIAAAA8QIAAAAAAAEgB8AAAHgQIAAAADAjFWASxwcMAAAisAiZmcACTAIAhChBfiBgYZJiIYCLgkZGUIAxojgLoyAcQgIAOAAAAACAGAAAAAAAAQAwAAAAAAAAAAA==

> <PUBCHEM_IUPAC_OPENEYE_NAME>
2-[4-[4-(benzothiophen-4-yl)piperazin-1-yl]butyl]-[1,2,4]triazolo[4,3-a]pyridin-3-one

> <PUBCHEM_IUPAC_CAS_NAME>
2-[4-[4-(1-benzothiophen-4-yl)-1-piperazinyl]butyl]-[1,2,4]triazolo[4,3-a]pyridin-3-one

> <PUBCHEM_IUPAC_NAME_MARKUP>
2-[4-[4-(1-benzothiophen-4-yl)piperazin-1-yl]butyl]-[1,2,4]triazolo[4,3-a]pyridin-3-one

> <PUBCHEM_IUPAC_NAME>
2-[4-[4-(1-benzothiophen-4-yl)piperazin-1-yl]butyl]-[1,2,4]triazolo[4,3-a]pyridin-3-one

> <PUBCHEM_IUPAC_SYSTEMATIC_NAME>
2-[4-[4-(1-benzothiophen-4-yl)piperazin-1-yl]butyl]-[1,2,4]triazolo[4,3-a]pyridin-3-one

> <PUBCHEM_IUPAC_TRADITIONAL_NAME>
2-[4-[4-(benzothiophen-4-yl)piperazino]butyl]-[1,2,4]triazolo[4,3-a]pyridin-3-one

> <PUBCHEM_IUPAC_INCHI>
InChI=1S/C22H25N5OS/c28-22-26-11-2-1-8-21(26)23-27(22)12-4-3-10-24-13-15-25(16-14-24)19-6-5-7-20-18(19)9-17-29-20/h1-2,5-9,11,17H,3-4,10,12-16H2

> <PUBCHEM_IUPAC_INCHIKEY>
SPMHWCSUNSWHDK-UHFFFAOYSA-N

> <PUBCHEM_XLOGP3_AA>
3.6

> <PUBCHEM_EXACT_MASS>
407.17798161

> <PUBCHEM_MOLECULAR_FORMULA>
C22H25N5OS

> <PUBCHEM_MOLECULAR_WEIGHT>
407.5

> <PUBCHEM_OPENEYE_CAN_SMILES>
C1CN(CCN1CCCCN2C(=O)N3C=CC=CC3=N2)C4=C5C=CSC5=CC=C4

> <PUBCHEM_OPENEYE_ISO_SMILES>
C1CN(CCN1CCCCN2C(=O)N3C=CC=CC3=N2)C4=C5C=CSC5=CC=C4

> <PUBCHEM_CACTVS_TPSA>
70.6

> <PUBCHEM_MONOISOTOPIC_WEIGHT>
407.17798161

> <PUBCHEM_TOTAL_CHARGE>
0

> <PUBCHEM_HEAVY_ATOM_COUNT>
29

> <PUBCHEM_ATOM_DEF_STEREO_COUNT>
0

> <PUBCHEM_ATOM_UDEF_STEREO_COUNT>
0

> <PUBCHEM_BOND_DEF_STEREO_COUNT>
0

> <PUBCHEM_BOND_UDEF_STEREO_COUNT>
0

> <PUBCHEM_ISOTOPIC_ATOM_COUNT>
0

> <PUBCHEM_COMPONENT_COUNT>
1

> <PUBCHEM_CACTVS_TAUTO_COUNT>
-1

> <PUBCHEM_COORDINATE_TYPE>
1
5
255

> <PUBCHEM_BONDANNOTATIONS>
1  19  8
1  24  8
14  17  8
14  18  8
17  19  8
17  20  8
18  21  8
19  22  8
20  24  8
21  22  8
25  27  8
26  28  8
27  29  8
28  29  8
5  23  8
5  7  8
6  23  8
6  25  8
6  26  8
7  25  8

$$$$
