46929184
  -OEChem-09292322012D

 65 67  0     0  0  0  0  0  0999 V2000
    2.0000   -4.6830    0.0000 Cl  0  0  0  0  0  0  0  0  0  0  0  0
    2.0000   -6.6830    0.0000 Cl  0  0  0  0  0  0  0  0  0  0  0  0
    5.4641    5.3170    0.0000 O   0  0  0  0  0  0  0  0  0  0  0  0
    6.3301    3.8170    0.0000 O   0  0  0  0  0  0  0  0  0  0  0  0
    3.7320   -1.6830    0.0000 N   0  0  0  0  0  0  0  0  0  0  0  0
    4.5981    3.8170    0.0000 N   0  0  0  0  0  0  0  0  0  0  0  0
    3.7320   -3.6830    0.0000 N   0  0  0  0  0  0  0  0  0  0  0  0
    4.5981    0.8170    0.0000 C   0  0  0  0  0  0  0  0  0  0  0  0
    5.4641    1.3170    0.0000 C   0  0  0  0  0  0  0  0  0  0  0  0
    3.7320    1.3170    0.0000 C   0  0  0  0  0  0  0  0  0  0  0  0
    4.5981    2.8170    0.0000 C   0  0  0  0  0  0  0  0  0  0  0  0
    5.4641    2.3170    0.0000 C   0  0  0  0  0  0  0  0  0  0  0  0
    3.7320    2.3170    0.0000 C   0  0  0  0  0  0  0  0  0  0  0  0
    4.5981   -0.1830    0.0000 C   0  0  0  0  0  0  0  0  0  0  0  0
    3.7320   -0.6830    0.0000 C   0  0  0  0  0  0  0  0  0  0  0  0
    2.8660   -2.1830    0.0000 C   0  0  0  0  0  0  0  0  0  0  0  0
    4.5981   -2.1830    0.0000 C   0  0  0  0  0  0  0  0  0  0  0  0
    2.8660   -3.1830    0.0000 C   0  0  0  0  0  0  0  0  0  0  0  0
    4.5981   -3.1830    0.0000 C   0  0  0  0  0  0  0  0  0  0  0  0
    5.4641    4.3170    0.0000 C   0  0  0  0  0  0  0  0  0  0  0  0
    3.7320   -4.6830    0.0000 C   0  0  0  0  0  0  0  0  0  0  0  0
    6.3301    5.8170    0.0000 C   0  0  0  0  0  0  0  0  0  0  0  0
    2.8660   -5.1830    0.0000 C   0  0  0  0  0  0  0  0  0  0  0  0
    4.5981   -5.1830    0.0000 C   0  0  0  0  0  0  0  0  0  0  0  0
    7.1962    6.3170    0.0000 C   0  0  0  0  0  0  0  0  0  0  0  0
    5.8301    6.6830    0.0000 C   0  0  0  0  0  0  0  0  0  0  0  0
    6.8301    4.9510    0.0000 C   0  0  0  0  0  0  0  0  0  0  0  0
    2.8660   -6.1830    0.0000 C   0  0  0  0  0  0  0  0  0  0  0  0
    4.5981   -6.1830    0.0000 C   0  0  0  0  0  0  0  0  0  0  0  0
    3.7320   -6.6830    0.0000 C   0  0  0  0  0  0  0  0  0  0  0  0
    5.1350    0.5070    0.0000 H   0  0  0  0  0  0  0  0  0  0  0  0
    5.6762    0.7344    0.0000 H   0  0  0  0  0  0  0  0  0  0  0  0
    6.0747    1.4246    0.0000 H   0  0  0  0  0  0  0  0  0  0  0  0
    3.1215    1.4246    0.0000 H   0  0  0  0  0  0  0  0  0  0  0  0
    3.5200    0.7344    0.0000 H   0  0  0  0  0  0  0  0  0  0  0  0
    5.1350    3.1270    0.0000 H   0  0  0  0  0  0  0  0  0  0  0  0
    6.0747    2.2093    0.0000 H   0  0  0  0  0  0  0  0  0  0  0  0
    5.6762    2.8996    0.0000 H   0  0  0  0  0  0  0  0  0  0  0  0
    3.5200    2.8996    0.0000 H   0  0  0  0  0  0  0  0  0  0  0  0
    3.1215    2.2093    0.0000 H   0  0  0  0  0  0  0  0  0  0  0  0
    4.8101   -0.7656    0.0000 H   0  0  0  0  0  0  0  0  0  0  0  0
    5.2087   -0.0754    0.0000 H   0  0  0  0  0  0  0  0  0  0  0  0
    3.5200   -0.1004    0.0000 H   0  0  0  0  0  0  0  0  0  0  0  0
    3.1215   -0.7907    0.0000 H   0  0  0  0  0  0  0  0  0  0  0  0
    2.6540   -1.6004    0.0000 H   0  0  0  0  0  0  0  0  0  0  0  0
    2.2554   -2.2907    0.0000 H   0  0  0  0  0  0  0  0  0  0  0  0
    5.2087   -2.2907    0.0000 H   0  0  0  0  0  0  0  0  0  0  0  0
    4.8101   -1.6004    0.0000 H   0  0  0  0  0  0  0  0  0  0  0  0
    4.0611    4.1270    0.0000 H   0  0  0  0  0  0  0  0  0  0  0  0
    2.2554   -3.0753    0.0000 H   0  0  0  0  0  0  0  0  0  0  0  0
    2.6540   -3.7656    0.0000 H   0  0  0  0  0  0  0  0  0  0  0  0
    4.8101   -3.7656    0.0000 H   0  0  0  0  0  0  0  0  0  0  0  0
    5.2087   -3.0753    0.0000 H   0  0  0  0  0  0  0  0  0  0  0  0
    5.1350   -4.8730    0.0000 H   0  0  0  0  0  0  0  0  0  0  0  0
    7.5062    5.7800    0.0000 H   0  0  0  0  0  0  0  0  0  0  0  0
    7.7331    6.6270    0.0000 H   0  0  0  0  0  0  0  0  0  0  0  0
    6.8862    6.8539    0.0000 H   0  0  0  0  0  0  0  0  0  0  0  0
    6.3671    6.9930    0.0000 H   0  0  0  0  0  0  0  0  0  0  0  0
    5.5201    7.2200    0.0000 H   0  0  0  0  0  0  0  0  0  0  0  0
    5.2932    6.3730    0.0000 H   0  0  0  0  0  0  0  0  0  0  0  0
    6.2932    4.6410    0.0000 H   0  0  0  0  0  0  0  0  0  0  0  0
    7.1401    4.4140    0.0000 H   0  0  0  0  0  0  0  0  0  0  0  0
    7.3671    5.2610    0.0000 H   0  0  0  0  0  0  0  0  0  0  0  0
    5.1350   -6.4930    0.0000 H   0  0  0  0  0  0  0  0  0  0  0  0
    3.7320   -7.3030    0.0000 H   0  0  0  0  0  0  0  0  0  0  0  0
  1 23  1  0  0  0  0
  2 28  1  0  0  0  0
  3 20  1  0  0  0  0
  3 22  1  0  0  0  0
  4 20  2  0  0  0  0
  5 15  1  0  0  0  0
  5 16  1  0  0  0  0
  5 17  1  0  0  0  0
  6 11  1  0  0  0  0
  6 20  1  0  0  0  0
  6 49  1  0  0  0  0
  7 18  1  0  0  0  0
  7 19  1  0  0  0  0
  7 21  1  0  0  0  0
  8  9  1  0  0  0  0
  8 10  1  0  0  0  0
  8 14  1  0  0  0  0
  8 31  1  0  0  0  0
  9 12  1  0  0  0  0
  9 32  1  0  0  0  0
  9 33  1  0  0  0  0
 10 13  1  0  0  0  0
 10 34  1  0  0  0  0
 10 35  1  0  0  0  0
 11 12  1  0  0  0  0
 11 13  1  0  0  0  0
 11 36  1  0  0  0  0
 12 37  1  0  0  0  0
 12 38  1  0  0  0  0
 13 39  1  0  0  0  0
 13 40  1  0  0  0  0
 14 15  1  0  0  0  0
 14 41  1  0  0  0  0
 14 42  1  0  0  0  0
 15 43  1  0  0  0  0
 15 44  1  0  0  0  0
 16 18  1  0  0  0  0
 16 45  1  0  0  0  0
 16 46  1  0  0  0  0
 17 19  1  0  0  0  0
 17 47  1  0  0  0  0
 17 48  1  0  0  0  0
 18 50  1  0  0  0  0
 18 51  1  0  0  0  0
 19 52  1  0  0  0  0
 19 53  1  0  0  0  0
 21 23  2  0  0  0  0
 21 24  1  0  0  0  0
 22 25  1  0  0  0  0
 22 26  1  0  0  0  0
 22 27  1  0  0  0  0
 23 28  1  0  0  0  0
 24 29  2  0  0  0  0
 24 54  1  0  0  0  0
 25 55  1  0  0  0  0
 25 56  1  0  0  0  0
 25 57  1  0  0  0  0
 26 58  1  0  0  0  0
 26 59  1  0  0  0  0
 26 60  1  0  0  0  0
 27 61  1  0  0  0  0
 27 62  1  0  0  0  0
 27 63  1  0  0  0  0
 28 30  2  0  0  0  0
 29 30  1  0  0  0  0
 29 64  1  0  0  0  0
 30 65  1  0  0  0  0
M  END
> <PUBCHEM_COMPOUND_CID>
46929184

> <PUBCHEM_COMPOUND_CANONICALIZED>
1

> <PUBCHEM_CACTVS_COMPLEXITY>
541

> <PUBCHEM_CACTVS_HBOND_ACCEPTOR>
4

> <PUBCHEM_CACTVS_HBOND_DONOR>
1

> <PUBCHEM_CACTVS_ROTATABLE_BOND>
7

> <PUBCHEM_CACTVS_SUBSKEYS>
AAADcfB7MAAGAAAAAAAAAAAAAAAAAAAAAAA8YIAAAAAAAAABAAAAHgIQAAAADW7BkCQyyIPABACIACRCWACCAAAhBwAIisAIZokIYCLBk5HcIAhglgDIyAcQgIAOAAAAAAIAABQQAAAABAAAKAAAAAAAAA==

> <PUBCHEM_IUPAC_OPENEYE_NAME>
tert-butyl N-[4-[2-[4-(2,3-dichlorophenyl)piperazin-1-yl]ethyl]cyclohexyl]carbamate

> <PUBCHEM_IUPAC_CAS_NAME>
N-[4-[2-[4-(2,3-dichlorophenyl)-1-piperazinyl]ethyl]cyclohexyl]carbamic acid tert-butyl ester

> <PUBCHEM_IUPAC_NAME_MARKUP>
<I>tert</I>-butyl <I>N</I>-[4-[2-[4-(2,3-dichlorophenyl)piperazin-1-yl]ethyl]cyclohexyl]carbamate

> <PUBCHEM_IUPAC_NAME>
tert-butyl N-[4-[2-[4-(2,3-dichlorophenyl)piperazin-1-yl]ethyl]cyclohexyl]carbamate

> <PUBCHEM_IUPAC_SYSTEMATIC_NAME>
tert-butyl N-[4-[2-[4-[2,3-bis(chloranyl)phenyl]piperazin-1-yl]ethyl]cyclohexyl]carbamate

> <PUBCHEM_IUPAC_TRADITIONAL_NAME>
N-[4-[2-[4-(2,3-dichlorophenyl)piperazino]ethyl]cyclohexyl]carbamic acid tert-butyl ester

> <PUBCHEM_IUPAC_INCHI>
InChI=1S/C23H35Cl2N3O2/c1-23(2,3)30-22(29)26-18-9-7-17(8-10-18)11-12-27-13-15-28(16-14-27)20-6-4-5-19(24)21(20)25/h4-6,17-18H,7-16H2,1-3H3,(H,26,29)

> <PUBCHEM_IUPAC_INCHIKEY>
LDQCWGIXZGDJNL-UHFFFAOYSA-N

> <PUBCHEM_XLOGP3_AA>
5.7

> <PUBCHEM_EXACT_MASS>
455.2106328

> <PUBCHEM_MOLECULAR_FORMULA>
C23H35Cl2N3O2

> <PUBCHEM_MOLECULAR_WEIGHT>
456.4

> <PUBCHEM_OPENEYE_CAN_SMILES>
CC(C)(C)OC(=O)NC1CCC(CC1)CCN2CCN(CC2)C3=C(C(=CC=C3)Cl)Cl

> <PUBCHEM_OPENEYE_ISO_SMILES>
CC(C)(C)OC(=O)NC1CCC(CC1)CCN2CCN(CC2)C3=C(C(=CC=C3)Cl)Cl

> <PUBCHEM_CACTVS_TPSA>
44.8

> <PUBCHEM_MONOISOTOPIC_WEIGHT>
455.2106328

> <PUBCHEM_TOTAL_CHARGE>
0

> <PUBCHEM_HEAVY_ATOM_COUNT>
30

> <PUBCHEM_ATOM_DEF_STEREO_COUNT>
0

> <PUBCHEM_ATOM_UDEF_STEREO_COUNT>
0

> <PUBCHEM_BOND_DEF_STEREO_COUNT>
0

> <PUBCHEM_BOND_UDEF_STEREO_COUNT>
0

> <PUBCHEM_ISOTOPIC_ATOM_COUNT>
0

> <PUBCHEM_COMPONENT_COUNT>
1

> <PUBCHEM_CACTVS_TAUTO_COUNT>
-1

> <PUBCHEM_COORDINATE_TYPE>
1
5
255

> <PUBCHEM_BONDANNOTATIONS>
21  23  8
21  24  8
23  28  8
24  29  8
28  30  8
29  30  8

$$$$
