11778580
  -OEChem-09292322102D

 42 44  0     1  0  0  0  0  0999 V2000
    3.7884   -0.5244    0.0000 O   0  0  0  0  0  0  0  0  0  0  0  0
    2.0024    2.5207    0.0000 O   0  0  0  0  0  0  0  0  0  0  0  0
    6.1203   -2.1492    0.0000 N   0  0  3  0  0  0  0  0  0  0  0  0
    7.2525   -0.5244    0.0000 C   0  0  0  0  0  0  0  0  0  0  0  0
    6.9863   -1.6492    0.0000 C   0  0  0  0  0  0  0  0  0  0  0  0
    7.2525    0.4756    0.0000 C   0  0  0  0  0  0  0  0  0  0  0  0
    6.3864    0.9756    0.0000 C   0  0  0  0  0  0  0  0  0  0  0  0
    5.5204    0.4756    0.0000 C   0  0  0  0  0  0  0  0  0  0  0  0
    5.1544   -1.8904    0.0000 C   0  0  0  0  0  0  0  0  0  0  0  0
    4.6544    0.9756    0.0000 C   0  0  0  0  0  0  0  0  0  0  0  0
    4.6544   -1.0244    0.0000 C   0  0  0  0  0  0  0  0  0  0  0  0
    3.7884    0.4756    0.0000 C   0  0  0  0  0  0  0  0  0  0  0  0
    8.1625    0.9824    0.0000 C   0  0  0  0  0  0  0  0  0  0  0  0
    6.2508   -3.1407    0.0000 C   0  0  0  0  0  0  0  0  0  0  0  0
    6.3704    2.0171    0.0000 C   0  0  0  0  0  0  0  0  0  0  0  0
    4.6704    2.0171    0.0000 C   0  0  0  0  0  0  0  0  0  0  0  0
    8.1705    2.0240    0.0000 C   0  0  0  0  0  0  0  0  0  0  0  0
    7.2684    2.5449    0.0000 C   0  0  0  0  0  0  0  0  0  0  0  0
    2.8784    0.9824    0.0000 C   0  0  0  0  0  0  0  0  0  0  0  0
    3.7724    2.5449    0.0000 C   0  0  0  0  0  0  0  0  0  0  0  0
    2.8703    2.0240    0.0000 C   0  0  0  0  0  0  0  0  0  0  0  0
    7.7352   -0.9135    0.0000 H   0  0  0  0  0  0  0  0  0  0  0  0
    6.6366   -0.4525    0.0000 H   0  0  0  0  0  0  0  0  0  0  0  0
    7.1527   -2.2465    0.0000 H   0  0  0  0  0  0  0  0  0  0  0  0
    7.6062   -1.6371    0.0000 H   0  0  0  0  0  0  0  0  0  0  0  0
    5.1219    0.0006    0.0000 H   0  0  0  0  0  0  0  0  0  0  0  0
    5.9190    0.0006    0.0000 H   0  0  0  0  0  0  0  0  0  0  0  0
    4.5555   -2.0509    0.0000 H   0  0  0  0  0  0  0  0  0  0  0  0
    5.1544   -2.5104    0.0000 H   0  0  0  0  0  0  0  0  0  0  0  0
    5.2650   -0.9167    0.0000 H   0  0  0  0  0  0  0  0  0  0  0  0
    4.2160   -1.4628    0.0000 H   0  0  0  0  0  0  0  0  0  0  0  0
    8.6958    0.6663    0.0000 H   0  0  0  0  0  0  0  0  0  0  0  0
    5.6362   -3.2216    0.0000 H   0  0  0  0  0  0  0  0  0  0  0  0
    6.3318   -3.7554    0.0000 H   0  0  0  0  0  0  0  0  0  0  0  0
    6.8655   -3.0598    0.0000 H   0  0  0  0  0  0  0  0  0  0  0  0
    5.8299    2.3209    0.0000 H   0  0  0  0  0  0  0  0  0  0  0  0
    5.2109    2.3209    0.0000 H   0  0  0  0  0  0  0  0  0  0  0  0
    8.7086    2.3320    0.0000 H   0  0  0  0  0  0  0  0  0  0  0  0
    7.2660    3.1648    0.0000 H   0  0  0  0  0  0  0  0  0  0  0  0
    2.3450    0.6663    0.0000 H   0  0  0  0  0  0  0  0  0  0  0  0
    3.7748    3.1648    0.0000 H   0  0  0  0  0  0  0  0  0  0  0  0
    2.0000    3.1407    0.0000 H   0  0  0  0  0  0  0  0  0  0  0  0
  1 11  1  0  0  0  0
  1 12  1  0  0  0  0
  2 21  1  0  0  0  0
  2 42  1  0  0  0  0
  3  5  1  0  0  0  0
  3  9  1  0  0  0  0
  3 14  1  0  0  0  0
  4  5  1  0  0  0  0
  4  6  1  0  0  0  0
  4 22  1  0  0  0  0
  4 23  1  0  0  0  0
  5 24  1  0  0  0  0
  5 25  1  0  0  0  0
  6  7  1  0  0  0  0
  6 13  2  0  0  0  0
  7  8  1  0  0  0  0
  7 15  2  0  0  0  0
  8 10  1  0  0  0  0
  8 26  1  0  0  0  0
  8 27  1  0  0  0  0
  9 11  1  0  0  0  0
  9 28  1  0  0  0  0
  9 29  1  0  0  0  0
 10 12  2  0  0  0  0
 10 16  1  0  0  0  0
 11 30  1  0  0  0  0
 11 31  1  0  0  0  0
 12 19  1  0  0  0  0
 13 17  1  0  0  0  0
 13 32  1  0  0  0  0
 14 33  1  0  0  0  0
 14 34  1  0  0  0  0
 14 35  1  0  0  0  0
 15 18  1  0  0  0  0
 15 36  1  0  0  0  0
 16 20  2  0  0  0  0
 16 37  1  0  0  0  0
 17 18  2  0  0  0  0
 17 38  1  0  0  0  0
 18 39  1  0  0  0  0
 19 21  2  0  0  0  0
 19 40  1  0  0  0  0
 20 21  1  0  0  0  0
 20 41  1  0  0  0  0
M  END
> <PUBCHEM_COMPOUND_CID>
11778580

> <PUBCHEM_COMPOUND_CANONICALIZED>
1

> <PUBCHEM_CACTVS_COMPLEXITY>
322

> <PUBCHEM_CACTVS_HBOND_ACCEPTOR>
3

> <PUBCHEM_CACTVS_HBOND_DONOR>
1

> <PUBCHEM_CACTVS_ROTATABLE_BOND>
0

> <PUBCHEM_CACTVS_SUBSKEYS>
AAADceB6MAAAAAAAAAAAAAAAAAAAAAAAAAAwYAAAAAAAAAABQAAAHgAACAAADAThmAYyBoMABgCAAiBCAAACCAAgIAAIiAAOCIgOJyKGsRuHeCClwBWYuAeQ4PwOoAAACAAYAABAAAAQADAAAAAAAAAAAA==

> <PUBCHEM_IUPAC_OPENEYE_NAME>
12-methyl-9-oxa-12-azatricyclo[13.4.0.03,8]nonadeca-1(19),3(8),4,6,15,17-hexaen-6-ol

> <PUBCHEM_IUPAC_CAS_NAME>
12-methyl-9-oxa-12-azatricyclo[13.4.0.03,8]nonadeca-1(19),3(8),4,6,15,17-hexaen-6-ol

> <PUBCHEM_IUPAC_NAME_MARKUP>
12-methyl-9-oxa-12-azatricyclo[13.4.0.0<SUP>3,8</SUP>]nonadeca-1(19),3(8),4,6,15,17-hexaen-6-ol

> <PUBCHEM_IUPAC_NAME>
12-methyl-9-oxa-12-azatricyclo[13.4.0.03,8]nonadeca-1(19),3(8),4,6,15,17-hexaen-6-ol

> <PUBCHEM_IUPAC_SYSTEMATIC_NAME>
12-methyl-9-oxa-12-azatricyclo[13.4.0.03,8]nonadeca-1(19),3(8),4,6,15,17-hexaen-6-ol

> <PUBCHEM_IUPAC_TRADITIONAL_NAME>
12-methyl-9-oxa-12-azatricyclo[13.4.0.03,8]nonadeca-1(19),3(8),4,6,15,17-hexaen-6-ol

> <PUBCHEM_IUPAC_INCHI>
InChI=1S/C18H21NO2/c1-19-9-8-14-4-2-3-5-15(14)12-16-6-7-17(20)13-18(16)21-11-10-19/h2-7,13,20H,8-12H2,1H3

> <PUBCHEM_IUPAC_INCHIKEY>
XVDINFILZLZVNV-UHFFFAOYSA-N

> <PUBCHEM_XLOGP3_AA>
3.5

> <PUBCHEM_EXACT_MASS>
283.157228913

> <PUBCHEM_MOLECULAR_FORMULA>
C18H21NO2

> <PUBCHEM_MOLECULAR_WEIGHT>
283.4

> <PUBCHEM_OPENEYE_CAN_SMILES>
CN1CCC2=CC=CC=C2CC3=C(C=C(C=C3)O)OCC1

> <PUBCHEM_OPENEYE_ISO_SMILES>
CN1CCC2=CC=CC=C2CC3=C(C=C(C=C3)O)OCC1

> <PUBCHEM_CACTVS_TPSA>
32.7

> <PUBCHEM_MONOISOTOPIC_WEIGHT>
283.157228913

> <PUBCHEM_TOTAL_CHARGE>
0

> <PUBCHEM_HEAVY_ATOM_COUNT>
21

> <PUBCHEM_ATOM_DEF_STEREO_COUNT>
0

> <PUBCHEM_ATOM_UDEF_STEREO_COUNT>
0

> <PUBCHEM_BOND_DEF_STEREO_COUNT>
0

> <PUBCHEM_BOND_UDEF_STEREO_COUNT>
0

> <PUBCHEM_ISOTOPIC_ATOM_COUNT>
0

> <PUBCHEM_COMPONENT_COUNT>
1

> <PUBCHEM_CACTVS_TAUTO_COUNT>
-1

> <PUBCHEM_COORDINATE_TYPE>
1
5
255

> <PUBCHEM_BONDANNOTATIONS>
10  12  8
10  16  8
12  19  8
13  17  8
15  18  8
16  20  8
17  18  8
19  21  8
20  21  8
6  13  8
6  7  8
7  15  8

$$$$
