122180623
  -OEChem-09292322362D

 64 68  0     1  0  0  0  0  0999 V2000
    8.1482   -0.1848    0.0000 O   0  0  0  0  0  0  0  0  0  0  0  0
    4.1701   -0.6029    0.0000 O   0  0  0  0  0  0  0  0  0  0  0  0
    6.9726    1.4332    0.0000 N   0  0  0  0  0  0  0  0  0  0  0  0
    4.9836    1.2242    0.0000 N   0  0  0  0  0  0  0  0  0  0  0  0
   11.1317    0.1288    0.0000 N   0  0  0  0  0  0  0  0  0  0  0  0
   11.6317    0.9948    0.0000 N   0  0  0  0  0  0  0  0  0  0  0  0
   12.6099    0.7869    0.0000 N   0  0  0  0  0  0  0  0  0  0  0  0
   16.2064   -2.2423    0.0000 N   0  0  0  0  0  0  0  0  0  0  0  0
    6.3848    2.2423    0.0000 C   0  0  0  0  0  0  0  0  0  0  0  0
    6.5659    0.5197    0.0000 C   0  0  0  0  0  0  0  0  0  0  0  0
    5.3903    2.1377    0.0000 C   0  0  0  0  0  0  0  0  0  0  0  0
    5.5714    0.4152    0.0000 C   0  0  0  0  0  0  0  0  0  0  0  0
    7.9671    1.5378    0.0000 C   0  0  0  0  0  0  0  0  0  0  0  0
    8.5549    0.7288    0.0000 C   0  0  3  0  0  0  0  0  0  0  0  0
    9.5494    0.8333    0.0000 C   0  0  0  0  0  0  0  0  0  0  0  0
    3.9890    1.1197    0.0000 C   0  0  0  0  0  0  0  0  0  0  0  0
   10.1372    0.0243    0.0000 C   0  0  0  0  0  0  0  0  0  0  0  0
    3.5823    0.2061    0.0000 C   0  0  0  0  0  0  0  0  0  0  0  0
    3.4013    1.9287    0.0000 C   0  0  0  0  0  0  0  0  0  0  0  0
    2.5878    0.1016    0.0000 C   0  0  0  0  0  0  0  0  0  0  0  0
    2.4067    1.8242    0.0000 C   0  0  0  0  0  0  0  0  0  0  0  0
   11.8009   -0.6143    0.0000 C   0  0  0  0  0  0  0  0  0  0  0  0
    2.0000    0.9106    0.0000 C   0  0  0  0  0  0  0  0  0  0  0  0
   12.7144   -0.2076    0.0000 C   0  0  0  0  0  0  0  0  0  0  0  0
   13.5804   -0.7076    0.0000 C   0  0  0  0  0  0  0  0  0  0  0  0
    3.7634   -1.5164    0.0000 C   0  0  0  0  0  0  0  0  0  0  0  0
   14.4465   -0.2076    0.0000 C   0  0  0  0  0  0  0  0  0  0  0  0
   13.5804   -1.7076    0.0000 C   0  0  0  0  0  0  0  0  0  0  0  0
   15.3125   -0.7076    0.0000 C   0  0  0  0  0  0  0  0  0  0  0  0
   15.3125   -1.7076    0.0000 C   0  0  0  0  0  0  0  0  0  0  0  0
   14.4465   -2.2076    0.0000 C   0  0  0  0  0  0  0  0  0  0  0  0
   16.2064   -0.1729    0.0000 C   0  0  0  0  0  0  0  0  0  0  0  0
   17.1125   -0.6868    0.0000 C   0  0  0  0  0  0  0  0  0  0  0  0
   17.1125   -1.7284    0.0000 C   0  0  0  0  0  0  0  0  0  0  0  0
    6.9421    2.5141    0.0000 H   0  0  0  0  0  0  0  0  0  0  0  0
    6.2139    2.8382    0.0000 H   0  0  0  0  0  0  0  0  0  0  0  0
    6.5226   -0.0988    0.0000 H   0  0  0  0  0  0  0  0  0  0  0  0
    7.1675    0.3697    0.0000 H   0  0  0  0  0  0  0  0  0  0  0  0
    5.4336    2.7562    0.0000 H   0  0  0  0  0  0  0  0  0  0  0  0
    4.7887    2.2877    0.0000 H   0  0  0  0  0  0  0  0  0  0  0  0
    5.0141    0.1434    0.0000 H   0  0  0  0  0  0  0  0  0  0  0  0
    5.7422   -0.1808    0.0000 H   0  0  0  0  0  0  0  0  0  0  0  0
    8.5244    1.8096    0.0000 H   0  0  0  0  0  0  0  0  0  0  0  0
    7.7962    2.1338    0.0000 H   0  0  0  0  0  0  0  0  0  0  0  0
    7.9383    0.6640    0.0000 H   0  0  0  0  0  0  0  0  0  0  0  0
   10.1067    1.1051    0.0000 H   0  0  0  0  0  0  0  0  0  0  0  0
    9.3785    1.4293    0.0000 H   0  0  0  0  0  0  0  0  0  0  0  0
    9.5800   -0.2475    0.0000 H   0  0  0  0  0  0  0  0  0  0  0  0
   10.3081   -0.5717    0.0000 H   0  0  0  0  0  0  0  0  0  0  0  0
    8.5126   -0.6864    0.0000 H   0  0  0  0  0  0  0  0  0  0  0  0
    3.6534    2.4951    0.0000 H   0  0  0  0  0  0  0  0  0  0  0  0
    2.3356   -0.4648    0.0000 H   0  0  0  0  0  0  0  0  0  0  0  0
    2.0423    2.3257    0.0000 H   0  0  0  0  0  0  0  0  0  0  0  0
   11.6720   -1.2208    0.0000 H   0  0  0  0  0  0  0  0  0  0  0  0
    1.3834    0.8458    0.0000 H   0  0  0  0  0  0  0  0  0  0  0  0
    3.1970   -1.2643    0.0000 H   0  0  0  0  0  0  0  0  0  0  0  0
    3.5112   -2.0828    0.0000 H   0  0  0  0  0  0  0  0  0  0  0  0
    4.3298   -1.7686    0.0000 H   0  0  0  0  0  0  0  0  0  0  0  0
   14.4465    0.4124    0.0000 H   0  0  0  0  0  0  0  0  0  0  0  0
   13.0435   -2.0176    0.0000 H   0  0  0  0  0  0  0  0  0  0  0  0
   14.4465   -2.8276    0.0000 H   0  0  0  0  0  0  0  0  0  0  0  0
   16.1993    0.4470    0.0000 H   0  0  0  0  0  0  0  0  0  0  0  0
   17.6482   -0.3747    0.0000 H   0  0  0  0  0  0  0  0  0  0  0  0
   17.6482   -2.0405    0.0000 H   0  0  0  0  0  0  0  0  0  0  0  0
  1 14  1  0  0  0  0
  1 50  1  0  0  0  0
  2 18  1  0  0  0  0
  2 26  1  0  0  0  0
  3  9  1  0  0  0  0
  3 10  1  0  0  0  0
  3 13  1  0  0  0  0
  4 11  1  0  0  0  0
  4 12  1  0  0  0  0
  4 16  1  0  0  0  0
  5  6  1  0  0  0  0
  5 17  1  0  0  0  0
  5 22  1  0  0  0  0
  6  7  2  0  0  0  0
  7 24  1  0  0  0  0
  8 30  1  0  0  0  0
  8 34  2  0  0  0  0
  9 11  1  0  0  0  0
  9 35  1  0  0  0  0
  9 36  1  0  0  0  0
 10 12  1  0  0  0  0
 10 37  1  0  0  0  0
 10 38  1  0  0  0  0
 11 39  1  0  0  0  0
 11 40  1  0  0  0  0
 12 41  1  0  0  0  0
 12 42  1  0  0  0  0
 13 14  1  0  0  0  0
 13 43  1  0  0  0  0
 13 44  1  0  0  0  0
 14 15  1  0  0  0  0
 14 45  1  0  0  0  0
 15 17  1  0  0  0  0
 15 46  1  0  0  0  0
 15 47  1  0  0  0  0
 16 18  1  0  0  0  0
 16 19  2  0  0  0  0
 17 48  1  0  0  0  0
 17 49  1  0  0  0  0
 18 20  2  0  0  0  0
 19 21  1  0  0  0  0
 19 51  1  0  0  0  0
 20 23  1  0  0  0  0
 20 52  1  0  0  0  0
 21 23  2  0  0  0  0
 21 53  1  0  0  0  0
 22 24  2  0  0  0  0
 22 54  1  0  0  0  0
 23 55  1  0  0  0  0
 24 25  1  0  0  0  0
 25 27  2  0  0  0  0
 25 28  1  0  0  0  0
 26 56  1  0  0  0  0
 26 57  1  0  0  0  0
 26 58  1  0  0  0  0
 27 29  1  0  0  0  0
 27 59  1  0  0  0  0
 28 31  2  0  0  0  0
 28 60  1  0  0  0  0
 29 30  2  0  0  0  0
 29 32  1  0  0  0  0
 30 31  1  0  0  0  0
 31 61  1  0  0  0  0
 32 33  2  0  0  0  0
 32 62  1  0  0  0  0
 33 34  1  0  0  0  0
 33 63  1  0  0  0  0
 34 64  1  0  0  0  0
M  END
> <PUBCHEM_COMPOUND_CID>
122180623

> <PUBCHEM_COMPOUND_CANONICALIZED>
1

> <PUBCHEM_CACTVS_COMPLEXITY>
618

> <PUBCHEM_CACTVS_HBOND_ACCEPTOR>
7

> <PUBCHEM_CACTVS_HBOND_DONOR>
1

> <PUBCHEM_CACTVS_ROTATABLE_BOND>
8

> <PUBCHEM_CACTVS_SUBSKEYS>
AAADceB7sAAAAAAAAAAAAAAAAAAAAWAAAAA8eIEAAAAAAACx/AAAHgAICAAADBzhngY+xvMIFgCiAzRnRACCjCQxsiAY2CA/fJgOduLEsZuVcChmwBHY6AeQwMAOCAACAAACEAAQAAQAAAQgAAAAAAAAAA==

> <PUBCHEM_IUPAC_OPENEYE_NAME>
1-[4-(2-methoxyphenyl)piperazin-1-yl]-4-[4-(6-quinolyl)triazol-1-yl]butan-2-ol

> <PUBCHEM_IUPAC_CAS_NAME>
1-[4-(2-methoxyphenyl)-1-piperazinyl]-4-[4-(6-quinolinyl)-1-triazolyl]-2-butanol

> <PUBCHEM_IUPAC_NAME_MARKUP>
1-[4-(2-methoxyphenyl)piperazin-1-yl]-4-(4-quinolin-6-yltriazol-1-yl)butan-2-ol

> <PUBCHEM_IUPAC_NAME>
1-[4-(2-methoxyphenyl)piperazin-1-yl]-4-(4-quinolin-6-yltriazol-1-yl)butan-2-ol

> <PUBCHEM_IUPAC_SYSTEMATIC_NAME>
1-[4-(2-methoxyphenyl)piperazin-1-yl]-4-(4-quinolin-6-yl-1,2,3-triazol-1-yl)butan-2-ol

> <PUBCHEM_IUPAC_TRADITIONAL_NAME>
1-[4-(2-methoxyphenyl)piperazino]-4-[4-(6-quinolyl)triazol-1-yl]butan-2-ol

> <PUBCHEM_IUPAC_INCHI>
InChI=1S/C26H30N6O2/c1-34-26-7-3-2-6-25(26)31-15-13-30(14-16-31)18-22(33)10-12-32-19-24(28-29-32)21-8-9-23-20(17-21)5-4-11-27-23/h2-9,11,17,19,22,33H,10,12-16,18H2,1H3

> <PUBCHEM_IUPAC_INCHIKEY>
JREWRGYSZHHIJM-UHFFFAOYSA-N

> <PUBCHEM_XLOGP3_AA>
2.9

> <PUBCHEM_EXACT_MASS>
458.24302422

> <PUBCHEM_MOLECULAR_FORMULA>
C26H30N6O2

> <PUBCHEM_MOLECULAR_WEIGHT>
458.6

> <PUBCHEM_OPENEYE_CAN_SMILES>
COC1=CC=CC=C1N2CCN(CC2)CC(CCN3C=C(N=N3)C4=CC5=C(C=C4)N=CC=C5)O

> <PUBCHEM_OPENEYE_ISO_SMILES>
COC1=CC=CC=C1N2CCN(CC2)CC(CCN3C=C(N=N3)C4=CC5=C(C=C4)N=CC=C5)O

> <PUBCHEM_CACTVS_TPSA>
79.5

> <PUBCHEM_MONOISOTOPIC_WEIGHT>
458.24302422

> <PUBCHEM_TOTAL_CHARGE>
0

> <PUBCHEM_HEAVY_ATOM_COUNT>
34

> <PUBCHEM_ATOM_DEF_STEREO_COUNT>
0

> <PUBCHEM_ATOM_UDEF_STEREO_COUNT>
1

> <PUBCHEM_BOND_DEF_STEREO_COUNT>
0

> <PUBCHEM_BOND_UDEF_STEREO_COUNT>
0

> <PUBCHEM_ISOTOPIC_ATOM_COUNT>
0

> <PUBCHEM_COMPONENT_COUNT>
1

> <PUBCHEM_CACTVS_TAUTO_COUNT>
-1

> <PUBCHEM_COORDINATE_TYPE>
1
5
255

> <PUBCHEM_BONDANNOTATIONS>
14  1  3
16  18  8
16  19  8
18  20  8
19  21  8
20  23  8
21  23  8
22  24  8
25  27  8
25  28  8
27  29  8
28  31  8
29  30  8
29  32  8
30  31  8
32  33  8
33  34  8
5  22  8
5  6  8
6  7  8
7  24  8
8  30  8
8  34  8

$$$$
