11699469
  -OEChem-09292322272D

 79 84  0     0  0  0  0  0  0999 V2000
   10.5949    2.1450    0.0000 O   0  0  0  0  0  0  0  0  0  0  0  0
    3.0000   -3.9589    0.0000 O   0  0  0  0  0  0  0  0  0  0  0  0
   11.0000   -0.4948    0.0000 O   0  0  0  0  0  0  0  0  0  0  0  0
    6.0000   -2.2268    0.0000 N   0  0  0  0  0  0  0  0  0  0  0  0
    5.0000   -3.9589    0.0000 N   0  0  0  0  0  0  0  0  0  0  0  0
    9.5000    0.3712    0.0000 N   0  0  0  0  0  0  0  0  0  0  0  0
    5.0000   -2.2268    0.0000 C   0  0  0  0  0  0  0  0  0  0  0  0
    6.5000   -3.0929    0.0000 C   0  0  0  0  0  0  0  0  0  0  0  0
    4.5000   -3.0929    0.0000 C   0  0  0  0  0  0  0  0  0  0  0  0
    6.0000   -3.9589    0.0000 C   0  0  0  0  0  0  0  0  0  0  0  0
    6.5000   -1.3608    0.0000 C   0  0  0  0  0  0  0  0  0  0  0  0
    7.5000   -1.3608    0.0000 C   0  0  0  0  0  0  0  0  0  0  0  0
    4.5000   -4.8249    0.0000 C   0  0  0  0  0  0  0  0  0  0  0  0
    8.0000   -0.4948    0.0000 C   0  0  0  0  0  0  0  0  0  0  0  0
    9.0000   -0.4948    0.0000 C   0  0  0  0  0  0  0  0  0  0  0  0
    3.5000   -4.8249    0.0000 C   0  0  0  0  0  0  0  0  0  0  0  0
    5.0000   -5.6910    0.0000 C   0  0  0  0  0  0  0  0  0  0  0  0
   12.1979    2.3121    0.0000 C   0  0  0  0  0  0  0  0  0  0  0  0
   13.0640    2.8121    0.0000 C   0  0  0  0  0  0  0  0  0  0  0  0
   11.3319    2.8121    0.0000 C   0  0  0  0  0  0  0  0  0  0  0  0
   11.3319    3.8121    0.0000 C   0  0  0  0  0  0  0  0  0  0  0  0
   14.0867    3.1492    0.0000 C   0  0  0  0  0  0  0  0  0  0  0  0
   11.1124    4.8664    0.0000 C   0  0  0  0  0  0  0  0  0  0  0  0
   14.7618    3.9883    0.0000 C   0  0  0  0  0  0  0  0  0  0  0  0
   11.5015    5.8706    0.0000 C   0  0  0  0  0  0  0  0  0  0  0  0
   11.0000    1.2373    0.0000 C   0  0  0  0  0  0  0  0  0  0  0  0
   11.9887    1.3403    0.0000 C   0  0  0  0  0  0  0  0  0  0  0  0
   13.0640    3.8121    0.0000 C   0  0  0  0  0  0  0  0  0  0  0  0
   12.1979    4.3121    0.0000 C   0  0  0  0  0  0  0  0  0  0  0  0
   14.8721    5.0595    0.0000 C   0  0  0  0  0  0  0  0  0  0  0  0
    3.0000   -5.6910    0.0000 C   0  0  0  0  0  0  0  0  0  0  0  0
   12.3741    6.5017    0.0000 C   0  0  0  0  0  0  0  0  0  0  0  0
   10.5000    0.3712    0.0000 C   0  0  0  0  0  0  0  0  0  0  0  0
    4.5000   -6.5570    0.0000 C   0  0  0  0  0  0  0  0  0  0  0  0
    3.5000   -6.5570    0.0000 C   0  0  0  0  0  0  0  0  0  0  0  0
   13.8914    5.2468    0.0000 C   0  0  0  0  0  0  0  0  0  0  0  0
   14.3822    6.0185    0.0000 C   0  0  0  0  0  0  0  0  0  0  0  0
   13.0267    5.7460    0.0000 C   0  0  0  0  0  0  0  0  0  0  0  0
   13.4496    6.5570    0.0000 C   0  0  0  0  0  0  0  0  0  0  0  0
    2.0000   -3.9589    0.0000 C   0  0  0  0  0  0  0  0  0  0  0  0
    5.1077   -1.6163    0.0000 H   0  0  0  0  0  0  0  0  0  0  0  0
    4.4174   -2.0148    0.0000 H   0  0  0  0  0  0  0  0  0  0  0  0
    6.9750   -3.4914    0.0000 H   0  0  0  0  0  0  0  0  0  0  0  0
    6.9750   -2.6943    0.0000 H   0  0  0  0  0  0  0  0  0  0  0  0
    4.0250   -2.6943    0.0000 H   0  0  0  0  0  0  0  0  0  0  0  0
    4.0250   -3.4914    0.0000 H   0  0  0  0  0  0  0  0  0  0  0  0
    5.8923   -4.5695    0.0000 H   0  0  0  0  0  0  0  0  0  0  0  0
    6.5826   -4.1710    0.0000 H   0  0  0  0  0  0  0  0  0  0  0  0
    6.6077   -0.7502    0.0000 H   0  0  0  0  0  0  0  0  0  0  0  0
    5.9174   -1.1488    0.0000 H   0  0  0  0  0  0  0  0  0  0  0  0
    7.3923   -1.9714    0.0000 H   0  0  0  0  0  0  0  0  0  0  0  0
    8.0826   -1.5729    0.0000 H   0  0  0  0  0  0  0  0  0  0  0  0
    8.1077    0.1158    0.0000 H   0  0  0  0  0  0  0  0  0  0  0  0
    7.4174   -0.2827    0.0000 H   0  0  0  0  0  0  0  0  0  0  0  0
    8.8923   -1.1054    0.0000 H   0  0  0  0  0  0  0  0  0  0  0  0
    9.5826   -0.7068    0.0000 H   0  0  0  0  0  0  0  0  0  0  0  0
    5.6200   -5.6910    0.0000 H   0  0  0  0  0  0  0  0  0  0  0  0
   14.0783    2.5293    0.0000 H   0  0  0  0  0  0  0  0  0  0  0  0
   13.7337    3.6589    0.0000 H   0  0  0  0  0  0  0  0  0  0  0  0
   10.6389    5.2666    0.0000 H   0  0  0  0  0  0  0  0  0  0  0  0
   11.7303    4.8155    0.0000 H   0  0  0  0  0  0  0  0  0  0  0  0
   15.0918    3.4634    0.0000 H   0  0  0  0  0  0  0  0  0  0  0  0
   14.1884    4.2240    0.0000 H   0  0  0  0  0  0  0  0  0  0  0  0
   11.3217    6.4639    0.0000 H   0  0  0  0  0  0  0  0  0  0  0  0
   11.9924    5.4919    0.0000 H   0  0  0  0  0  0  0  0  0  0  0  0
    9.1900    0.9082    0.0000 H   0  0  0  0  0  0  0  0  0  0  0  0
   12.4028    0.8788    0.0000 H   0  0  0  0  0  0  0  0  0  0  0  0
   13.6009    4.1221    0.0000 H   0  0  0  0  0  0  0  0  0  0  0  0
   12.1979    4.9321    0.0000 H   0  0  0  0  0  0  0  0  0  0  0  0
    2.3800   -5.6910    0.0000 H   0  0  0  0  0  0  0  0  0  0  0  0
    4.8100   -7.0939    0.0000 H   0  0  0  0  0  0  0  0  0  0  0  0
    3.1900   -7.0939    0.0000 H   0  0  0  0  0  0  0  0  0  0  0  0
   13.6752    4.6657    0.0000 H   0  0  0  0  0  0  0  0  0  0  0  0
   14.8317    6.4455    0.0000 H   0  0  0  0  0  0  0  0  0  0  0  0
   12.6315    5.2683    0.0000 H   0  0  0  0  0  0  0  0  0  0  0  0
   13.5946    7.1598    0.0000 H   0  0  0  0  0  0  0  0  0  0  0  0
    2.0000   -3.3389    0.0000 H   0  0  0  0  0  0  0  0  0  0  0  0
    1.3800   -3.9589    0.0000 H   0  0  0  0  0  0  0  0  0  0  0  0
    2.0000   -4.5789    0.0000 H   0  0  0  0  0  0  0  0  0  0  0  0
  1 20  1  0  0  0  0
  1 26  1  0  0  0  0
  2 16  1  0  0  0  0
  2 40  1  0  0  0  0
  3 33  2  0  0  0  0
  4  7  1  0  0  0  0
  4  8  1  0  0  0  0
  4 11  1  0  0  0  0
  5  9  1  0  0  0  0
  5 10  1  0  0  0  0
  5 13  1  0  0  0  0
  6 15  1  0  0  0  0
  6 33  1  0  0  0  0
  6 66  1  0  0  0  0
  7  9  1  0  0  0  0
  7 41  1  0  0  0  0
  7 42  1  0  0  0  0
  8 10  1  0  0  0  0
  8 43  1  0  0  0  0
  8 44  1  0  0  0  0
  9 45  1  0  0  0  0
  9 46  1  0  0  0  0
 10 47  1  0  0  0  0
 10 48  1  0  0  0  0
 11 12  1  0  0  0  0
 11 49  1  0  0  0  0
 11 50  1  0  0  0  0
 12 14  1  0  0  0  0
 12 51  1  0  0  0  0
 12 52  1  0  0  0  0
 13 16  1  0  0  0  0
 13 17  2  0  0  0  0
 14 15  1  0  0  0  0
 14 53  1  0  0  0  0
 14 54  1  0  0  0  0
 15 55  1  0  0  0  0
 15 56  1  0  0  0  0
 16 31  2  0  0  0  0
 17 34  1  0  0  0  0
 17 57  1  0  0  0  0
 18 19  2  0  0  0  0
 18 20  1  0  0  0  0
 18 27  1  0  0  0  0
 19 22  1  0  0  0  0
 19 28  1  0  0  0  0
 20 21  2  0  0  0  0
 21 23  1  0  0  0  0
 21 29  1  0  0  0  0
 22 24  1  0  0  0  0
 22 58  1  0  0  0  0
 22 59  1  0  0  0  0
 23 25  1  0  0  0  0
 23 60  1  0  0  0  0
 23 61  1  0  0  0  0
 24 30  1  0  0  0  0
 24 62  1  0  0  0  0
 24 63  1  0  0  0  0
 25 32  1  0  0  0  0
 25 64  1  0  0  0  0
 25 65  1  0  0  0  0
 26 27  2  0  0  0  0
 26 33  1  0  0  0  0
 27 67  1  0  0  0  0
 28 29  2  0  0  0  0
 28 68  1  0  0  0  0
 29 69  1  0  0  0  0
 30 36  2  0  0  0  0
 30 37  1  0  0  0  0
 31 35  1  0  0  0  0
 31 70  1  0  0  0  0
 32 38  2  0  0  0  0
 32 39  1  0  0  0  0
 34 35  2  0  0  0  0
 34 71  1  0  0  0  0
 35 72  1  0  0  0  0
 36 38  1  0  0  0  0
 36 73  1  0  0  0  0
 37 39  2  0  0  0  0
 37 74  1  0  0  0  0
 38 75  1  0  0  0  0
 39 76  1  0  0  0  0
 40 77  1  0  0  0  0
 40 78  1  0  0  0  0
 40 79  1  0  0  0  0
M  END
> <PUBCHEM_COMPOUND_CID>
11699469

> <PUBCHEM_COMPOUND_CANONICALIZED>
1

> <PUBCHEM_CACTVS_COMPLEXITY>
793

> <PUBCHEM_CACTVS_HBOND_ACCEPTOR>
5

> <PUBCHEM_CACTVS_HBOND_DONOR>
1

> <PUBCHEM_CACTVS_ROTATABLE_BOND>
8

> <PUBCHEM_CACTVS_SUBSKEYS>
AAADcfB/MAAAAAAAAAAAAAAAAAAAASAAAAA8YMEAAAAAAEgB9AAAHgAQAAAADAzBmAYyxsPABECIAqVSUAKCCAAlIgAIiIHPbMgOZjLEtb+XOSjk1hHY6YeY3/LuwAADAAAYEACAAAYAADAgAAAAAAAAAA==

> <PUBCHEM_IUPAC_OPENEYE_NAME>
N-[4-[4-(2-methoxyphenyl)piperazin-1-yl]butyl]-12-oxatetracyclo[8.5.2.24,7.011,15]nonadeca-1(15),4,6,10,13,16,18-heptaene-13-carboxamide

> <PUBCHEM_IUPAC_CAS_NAME>
N-[4-[4-(2-methoxyphenyl)-1-piperazinyl]butyl]-12-oxatetracyclo[8.5.2.24,7.011,15]nonadeca-1(15),4,6,10,13,16,18-heptaene-13-carboxamide

> <PUBCHEM_IUPAC_NAME_MARKUP>
<I>N</I>-[4-[4-(2-methoxyphenyl)piperazin-1-yl]butyl]-12-oxatetracyclo[8.5.2.2<SUP>4,7</SUP>.0<SUP>11,15</SUP>]nonadeca-1(15),4,6,10,13,16,18-heptaene-13-carboxamide

> <PUBCHEM_IUPAC_NAME>
N-[4-[4-(2-methoxyphenyl)piperazin-1-yl]butyl]-12-oxatetracyclo[8.5.2.24,7.011,15]nonadeca-1(15),4,6,10,13,16,18-heptaene-13-carboxamide

> <PUBCHEM_IUPAC_SYSTEMATIC_NAME>
N-[4-[4-(2-methoxyphenyl)piperazin-1-yl]butyl]-12-oxatetracyclo[8.5.2.24,7.011,15]nonadeca-1(15),4,6,10,13,16,18-heptaene-13-carboxamide

> <PUBCHEM_IUPAC_TRADITIONAL_NAME>
N-[4-[4-(2-methoxyphenyl)piperazino]butyl]-12-oxatetracyclo[8.5.2.24,7.011,15]nonadeca-1(15),4,6,10,13,16,18-heptaene-13-carboxamide

> <PUBCHEM_IUPAC_INCHI>
InChI=1S/C34H39N3O3/c1-39-31-7-3-2-6-30(31)37-22-20-36(21-23-37)19-5-4-18-35-34(38)32-24-29-27-14-12-25-8-10-26(11-9-25)13-15-28(17-16-27)33(29)40-32/h2-3,6-11,16-17,24H,4-5,12-15,18-23H2,1H3,(H,35,38)

> <PUBCHEM_IUPAC_INCHIKEY>
FNHANZYICZUWQM-UHFFFAOYSA-N

> <PUBCHEM_XLOGP3_AA>
6.8

> <PUBCHEM_EXACT_MASS>
537.29914211

> <PUBCHEM_MOLECULAR_FORMULA>
C34H39N3O3

> <PUBCHEM_MOLECULAR_WEIGHT>
537.7

> <PUBCHEM_OPENEYE_CAN_SMILES>
COC1=CC=CC=C1N2CCN(CC2)CCCCNC(=O)C3=CC4=C5CCC6=CC=C(CCC(=C4O3)C=C5)C=C6

> <PUBCHEM_OPENEYE_ISO_SMILES>
COC1=CC=CC=C1N2CCN(CC2)CCCCNC(=O)C3=CC4=C5CCC6=CC=C(CCC(=C4O3)C=C5)C=C6

> <PUBCHEM_CACTVS_TPSA>
58

> <PUBCHEM_MONOISOTOPIC_WEIGHT>
537.29914211

> <PUBCHEM_TOTAL_CHARGE>
0

> <PUBCHEM_HEAVY_ATOM_COUNT>
40

> <PUBCHEM_ATOM_DEF_STEREO_COUNT>
0

> <PUBCHEM_ATOM_UDEF_STEREO_COUNT>
0

> <PUBCHEM_BOND_DEF_STEREO_COUNT>
0

> <PUBCHEM_BOND_UDEF_STEREO_COUNT>
0

> <PUBCHEM_ISOTOPIC_ATOM_COUNT>
0

> <PUBCHEM_COMPONENT_COUNT>
1

> <PUBCHEM_CACTVS_TAUTO_COUNT>
-1

> <PUBCHEM_COORDINATE_TYPE>
1
5
255

> <PUBCHEM_BONDANNOTATIONS>
1  20  8
1  26  8
13  16  8
13  17  8
16  31  8
17  34  8
18  19  8
18  20  8
18  27  8
19  28  8
20  21  8
21  29  8
26  27  8
28  29  8
30  36  8
30  37  8
31  35  8
32  38  8
32  39  8
34  35  8
36  38  8
37  39  8

$$$$
