135404757
  -OEChem-09292322112D

 44 47  0     0  0  0  0  0  0999 V2000
    2.0000   -1.5612    0.0000 Cl  0  0  0  0  0  0  0  0  0  0  0  0
    6.5935    2.6820    0.0000 N   0  0  0  0  0  0  0  0  0  0  0  0
    4.9036    0.2033    0.0000 N   0  0  0  0  0  0  0  0  0  0  0  0
    6.3374   -0.6976    0.0000 N   0  0  0  0  0  0  0  0  0  0  0  0
    5.8374   -2.8883    0.0000 N   0  0  0  0  0  0  0  0  0  0  0  0
    7.4909   -3.1746    0.0000 N   0  0  0  0  0  0  0  0  0  0  0  0
    5.4669    1.0296    0.0000 C   0  0  0  0  0  0  0  0  0  0  0  0
    6.4641    0.9548    0.0000 C   0  0  0  0  0  0  0  0  0  0  0  0
    5.0330    1.9306    0.0000 C   0  0  0  0  0  0  0  0  0  0  0  0
    7.0274    1.7811    0.0000 C   0  0  0  0  0  0  0  0  0  0  0  0
    5.5963    2.7568    0.0000 C   0  0  0  0  0  0  0  0  0  0  0  0
    7.1569    3.5083    0.0000 C   0  0  0  0  0  0  0  0  0  0  0  0
    5.3374   -0.6976    0.0000 C   0  0  0  0  0  0  0  0  0  0  0  0
    4.7139   -1.4795    0.0000 C   0  0  0  0  0  0  0  0  0  0  0  0
    4.9364   -2.4544    0.0000 C   0  0  0  0  0  0  0  0  0  0  0  0
    6.9609   -1.4795    0.0000 C   0  0  0  0  0  0  0  0  0  0  0  0
    6.7384   -2.4544    0.0000 C   0  0  0  0  0  0  0  0  0  0  0  0
    3.7234   -1.1571    0.0000 C   0  0  0  0  0  0  0  0  0  0  0  0
    4.1839   -3.1746    0.0000 C   0  0  0  0  0  0  0  0  0  0  0  0
    2.9544   -1.8597    0.0000 C   0  0  0  0  0  0  0  0  0  0  0  0
    7.9514   -1.1571    0.0000 C   0  0  0  0  0  0  0  0  0  0  0  0
    3.1862   -2.8752    0.0000 C   0  0  0  0  0  0  0  0  0  0  0  0
    8.7204   -1.8597    0.0000 C   0  0  0  0  0  0  0  0  0  0  0  0
    8.4886   -2.8752    0.0000 C   0  0  0  0  0  0  0  0  0  0  0  0
    4.8486    1.0759    0.0000 H   0  0  0  0  0  0  0  0  0  0  0  0
    6.3111    0.3540    0.0000 H   0  0  0  0  0  0  0  0  0  0  0  0
    7.0292    0.6998    0.0000 H   0  0  0  0  0  0  0  0  0  0  0  0
    4.5892    2.3635    0.0000 H   0  0  0  0  0  0  0  0  0  0  0  0
    4.5296    1.5686    0.0000 H   0  0  0  0  0  0  0  0  0  0  0  0
    7.4712    1.3482    0.0000 H   0  0  0  0  0  0  0  0  0  0  0  0
    7.5308    2.1430    0.0000 H   0  0  0  0  0  0  0  0  0  0  0  0
    5.7493    3.3576    0.0000 H   0  0  0  0  0  0  0  0  0  0  0  0
    5.0312    3.0118    0.0000 H   0  0  0  0  0  0  0  0  0  0  0  0
    7.6691    3.1590    0.0000 H   0  0  0  0  0  0  0  0  0  0  0  0
    7.5061    4.0205    0.0000 H   0  0  0  0  0  0  0  0  0  0  0  0
    6.6446    3.8575    0.0000 H   0  0  0  0  0  0  0  0  0  0  0  0
    6.6064   -0.1390    0.0000 H   0  0  0  0  0  0  0  0  0  0  0  0
    3.5925   -0.5511    0.0000 H   0  0  0  0  0  0  0  0  0  0  0  0
    5.8374   -3.5083    0.0000 H   0  0  0  0  0  0  0  0  0  0  0  0
    4.3288   -3.7774    0.0000 H   0  0  0  0  0  0  0  0  0  0  0  0
    8.0824   -0.5511    0.0000 H   0  0  0  0  0  0  0  0  0  0  0  0
    2.7333   -3.2987    0.0000 H   0  0  0  0  0  0  0  0  0  0  0  0
    9.3122   -1.6747    0.0000 H   0  0  0  0  0  0  0  0  0  0  0  0
    8.9415   -3.2987    0.0000 H   0  0  0  0  0  0  0  0  0  0  0  0
  1 20  1  0  0  0  0
  2 10  1  0  0  0  0
  2 11  1  0  0  0  0
  2 12  1  0  0  0  0
  3  7  1  0  0  0  0
  3 13  2  0  0  0  0
  4 13  1  0  0  0  0
  4 16  1  0  0  0  0
  4 37  1  0  0  0  0
  5 15  1  0  0  0  0
  5 17  1  0  0  0  0
  5 39  1  0  0  0  0
  6 17  1  0  0  0  0
  6 24  2  0  0  0  0
  7  8  1  0  0  0  0
  7  9  1  0  0  0  0
  7 25  1  0  0  0  0
  8 10  1  0  0  0  0
  8 26  1  0  0  0  0
  8 27  1  0  0  0  0
  9 11  1  0  0  0  0
  9 28  1  0  0  0  0
  9 29  1  0  0  0  0
 10 30  1  0  0  0  0
 10 31  1  0  0  0  0
 11 32  1  0  0  0  0
 11 33  1  0  0  0  0
 12 34  1  0  0  0  0
 12 35  1  0  0  0  0
 12 36  1  0  0  0  0
 13 14  1  0  0  0  0
 14 15  2  0  0  0  0
 14 18  1  0  0  0  0
 15 19  1  0  0  0  0
 16 17  2  0  0  0  0
 16 21  1  0  0  0  0
 18 20  2  0  0  0  0
 18 38  1  0  0  0  0
 19 22  2  0  0  0  0
 19 40  1  0  0  0  0
 20 22  1  0  0  0  0
 21 23  2  0  0  0  0
 21 41  1  0  0  0  0
 22 42  1  0  0  0  0
 23 24  1  0  0  0  0
 23 43  1  0  0  0  0
 24 44  1  0  0  0  0
M  END
> <PUBCHEM_COMPOUND_CID>
135404757

> <PUBCHEM_COMPOUND_CANONICALIZED>
1

> <PUBCHEM_CACTVS_COMPLEXITY>
462

> <PUBCHEM_CACTVS_HBOND_ACCEPTOR>
4

> <PUBCHEM_CACTVS_HBOND_DONOR>
2

> <PUBCHEM_CACTVS_ROTATABLE_BOND>
1

> <PUBCHEM_CACTVS_SUBSKEYS>
AAADceB7gAAEAAAAAAAAAAAAAAAAAAAAAAA8WIAABYAAAAABwAAAHAIQAAAADCrBGiQ/8JPIEACgAjZnZACCgCkxFyAJ2CA4dpiIYOLB25GUIAhokALIyCcQgAAOAABAIAACAAAAAIBAAAQAAAAAAAAAAA==

> <PUBCHEM_IUPAC_OPENEYE_NAME>
8-chloro-N-(1-methyl-4-piperidyl)-5,11-dihydropyrido[2,3-b][1,4]benzodiazepin-6-imine

> <PUBCHEM_IUPAC_CAS_NAME>
8-chloro-N-(1-methyl-4-piperidinyl)-5,11-dihydropyrido[2,3-b][1,4]benzodiazepin-6-imine

> <PUBCHEM_IUPAC_NAME_MARKUP>
8-chloro-<I>N</I>-(1-methylpiperidin-4-yl)-5,11-dihydropyrido[2,3-b][1,4]benzodiazepin-6-imine

> <PUBCHEM_IUPAC_NAME>
8-chloro-N-(1-methylpiperidin-4-yl)-5,11-dihydropyrido[2,3-b][1,4]benzodiazepin-6-imine

> <PUBCHEM_IUPAC_SYSTEMATIC_NAME>
8-chloranyl-N-(1-methylpiperidin-4-yl)-5,11-dihydropyrido[2,3-b][1,4]benzodiazepin-6-imine

> <PUBCHEM_IUPAC_TRADITIONAL_NAME>
(8-chloro-5,11-dihydropyrido[2,3-b][1,4]benzodiazepin-6-ylidene)-(1-methyl-4-piperidyl)amine

> <PUBCHEM_IUPAC_INCHI>
InChI=1S/C18H20ClN5/c1-24-9-6-13(7-10-24)21-17-14-11-12(19)4-5-15(14)22-18-16(23-17)3-2-8-20-18/h2-5,8,11,13H,6-7,9-10H2,1H3,(H,20,22)(H,21,23)

> <PUBCHEM_IUPAC_INCHIKEY>
YYFLIYHRHHWXBK-UHFFFAOYSA-N

> <PUBCHEM_XLOGP3_AA>
2.9

> <PUBCHEM_EXACT_MASS>
341.1407234

> <PUBCHEM_MOLECULAR_FORMULA>
C18H20ClN5

> <PUBCHEM_MOLECULAR_WEIGHT>
341.8

> <PUBCHEM_OPENEYE_CAN_SMILES>
CN1CCC(CC1)N=C2C3=C(C=CC(=C3)Cl)NC4=C(N2)C=CC=N4

> <PUBCHEM_OPENEYE_ISO_SMILES>
CN1CCC(CC1)N=C2C3=C(C=CC(=C3)Cl)NC4=C(N2)C=CC=N4

> <PUBCHEM_CACTVS_TPSA>
52.6

> <PUBCHEM_MONOISOTOPIC_WEIGHT>
341.1407234

> <PUBCHEM_TOTAL_CHARGE>
0

> <PUBCHEM_HEAVY_ATOM_COUNT>
24

> <PUBCHEM_ATOM_DEF_STEREO_COUNT>
0

> <PUBCHEM_ATOM_UDEF_STEREO_COUNT>
0

> <PUBCHEM_BOND_DEF_STEREO_COUNT>
0

> <PUBCHEM_BOND_UDEF_STEREO_COUNT>
0

> <PUBCHEM_ISOTOPIC_ATOM_COUNT>
0

> <PUBCHEM_COMPONENT_COUNT>
1

> <PUBCHEM_CACTVS_TAUTO_COUNT>
-1

> <PUBCHEM_COORDINATE_TYPE>
1
5
255

> <PUBCHEM_BONDANNOTATIONS>
14  15  8
14  18  8
15  19  8
16  17  8
16  21  8
18  20  8
19  22  8
20  22  8
21  23  8
23  24  8
6  17  8
6  24  8

$$$$
