164611252
  -OEChem-09292322432D

 79 82  0     1  0  0  0  0  0999 V2000
    7.0306    2.4516    0.0000 Cl  0  0  0  0  0  0  0  0  0  0  0  0
   10.7619   -2.0308    0.0000 O   0  0  0  0  0  0  0  0  0  0  0  0
   11.2847    3.4015    0.0000 O   0  0  0  0  0  0  0  0  0  0  0  0
    8.8576    1.6381    0.0000 O   0  0  0  0  0  0  0  0  0  0  0  0
   10.2666    4.8027    0.0000 O   0  0  0  0  0  0  0  0  0  0  0  0
    6.7619   -5.4949    0.0000 O   0  0  0  0  0  0  0  0  0  0  0  0
   12.4643   -0.0821    0.0000 N   0  0  3  0  0  0  0  0  0  0  0  0
   10.5802    1.8192    0.0000 N   0  0  0  0  0  0  0  0  0  0  0  0
    6.7619   -3.7628    0.0000 N   0  0  0  0  0  0  0  0  0  0  0  0
    4.6783   -5.4336    0.0000 N   0  0  0  0  0  0  0  0  0  0  0  0
   11.5983    0.4179    0.0000 C   0  0  1  0  0  0  0  0  0  0  0  0
   10.8551   -0.2512    0.0000 C   0  0  0  0  0  0  0  0  0  0  0  0
   11.2619   -1.1648    0.0000 C   0  0  2  0  0  0  0  0  0  0  0  0
   12.2564   -1.0602    0.0000 C   0  0  0  0  0  0  0  0  0  0  0  0
   11.4938    1.4124    0.0000 C   0  0  0  0  0  0  0  0  0  0  0  0
   13.3779    0.3246    0.0000 C   0  0  0  0  0  0  0  0  0  0  0  0
   14.1869   -0.2631    0.0000 C   0  0  0  0  0  0  0  0  0  0  0  0
    9.7619   -2.0308    0.0000 C   0  0  0  0  0  0  0  0  0  0  0  0
    9.2619   -2.8968    0.0000 C   0  0  0  0  0  0  0  0  0  0  0  0
   10.4757    2.8137    0.0000 C   0  0  0  0  0  0  0  0  0  0  0  0
    8.2619   -2.8968    0.0000 C   0  0  0  0  0  0  0  0  0  0  0  0
    9.5621    3.2204    0.0000 C   0  0  0  0  0  0  0  0  0  0  0  0
    7.7619   -3.7628    0.0000 C   0  0  0  0  0  0  0  0  0  0  0  0
    9.4576    4.2149    0.0000 C   0  0  0  0  0  0  0  0  0  0  0  0
    8.7531    2.6326    0.0000 C   0  0  0  0  0  0  0  0  0  0  0  0
    8.5441    4.6217    0.0000 C   0  0  0  0  0  0  0  0  0  0  0  0
    7.8396    3.0394    0.0000 C   0  0  0  0  0  0  0  0  0  0  0  0
    7.7350    4.0339    0.0000 C   0  0  0  0  0  0  0  0  0  0  0  0
    8.4395    5.6162    0.0000 C   0  0  0  0  0  0  0  0  0  0  0  0
    6.2619   -4.6289    0.0000 C   0  0  0  0  0  0  0  0  0  0  0  0
    5.2619   -4.6289    0.0000 C   0  0  0  0  0  0  0  0  0  0  0  0
    7.5260    6.0229    0.0000 C   0  0  0  0  0  0  0  0  0  0  0  0
    4.6783   -3.8242    0.0000 C   0  0  0  0  0  0  0  0  0  0  0  0
    3.7320   -5.1289    0.0000 C   0  0  0  0  0  0  0  0  0  0  0  0
    3.7320   -4.1289    0.0000 C   0  0  0  0  0  0  0  0  0  0  0  0
    8.0486    1.0503    0.0000 C   0  0  0  0  0  0  0  0  0  0  0  0
    2.8660   -5.6289    0.0000 C   0  0  0  0  0  0  0  0  0  0  0  0
    2.8660   -3.6289    0.0000 C   0  0  0  0  0  0  0  0  0  0  0  0
    2.0000   -5.1289    0.0000 C   0  0  0  0  0  0  0  0  0  0  0  0
    2.0000   -4.1289    0.0000 C   0  0  0  0  0  0  0  0  0  0  0  0
   12.1183    0.7556    0.0000 H   0  0  0  0  0  0  0  0  0  0  0  0
   10.4907    0.2504    0.0000 H   0  0  0  0  0  0  0  0  0  0  0  0
   10.3182   -0.5612    0.0000 H   0  0  0  0  0  0  0  0  0  0  0  0
   11.5996   -1.6848    0.0000 H   0  0  0  0  0  0  0  0  0  0  0  0
   12.2564   -1.6802    0.0000 H   0  0  0  0  0  0  0  0  0  0  0  0
   12.8730   -1.1251    0.0000 H   0  0  0  0  0  0  0  0  0  0  0  0
   12.1122    1.3692    0.0000 H   0  0  0  0  0  0  0  0  0  0  0  0
   11.6438    2.0140    0.0000 H   0  0  0  0  0  0  0  0  0  0  0  0
   13.8238    0.7553    0.0000 H   0  0  0  0  0  0  0  0  0  0  0  0
   13.0312    0.8386    0.0000 H   0  0  0  0  0  0  0  0  0  0  0  0
   10.0786    1.4547    0.0000 H   0  0  0  0  0  0  0  0  0  0  0  0
   13.8224   -0.7647    0.0000 H   0  0  0  0  0  0  0  0  0  0  0  0
   14.6885   -0.6276    0.0000 H   0  0  0  0  0  0  0  0  0  0  0  0
   14.5513    0.2384    0.0000 H   0  0  0  0  0  0  0  0  0  0  0  0
    9.8695   -1.4202    0.0000 H   0  0  0  0  0  0  0  0  0  0  0  0
    9.1793   -1.8188    0.0000 H   0  0  0  0  0  0  0  0  0  0  0  0
    9.1542   -3.5074    0.0000 H   0  0  0  0  0  0  0  0  0  0  0  0
    9.8445   -3.1089    0.0000 H   0  0  0  0  0  0  0  0  0  0  0  0
    8.3695   -2.2862    0.0000 H   0  0  0  0  0  0  0  0  0  0  0  0
    7.6793   -2.6848    0.0000 H   0  0  0  0  0  0  0  0  0  0  0  0
    7.6542   -4.3734    0.0000 H   0  0  0  0  0  0  0  0  0  0  0  0
    8.3445   -3.9749    0.0000 H   0  0  0  0  0  0  0  0  0  0  0  0
    6.4519   -3.2259    0.0000 H   0  0  0  0  0  0  0  0  0  0  0  0
    7.1686    4.2861    0.0000 H   0  0  0  0  0  0  0  0  0  0  0  0
    9.0580    5.5729    0.0000 H   0  0  0  0  0  0  0  0  0  0  0  0
    8.5895    6.2178    0.0000 H   0  0  0  0  0  0  0  0  0  0  0  0
   10.2018    5.4193    0.0000 H   0  0  0  0  0  0  0  0  0  0  0  0
    7.7782    6.5893    0.0000 H   0  0  0  0  0  0  0  0  0  0  0  0
    6.9596    6.2751    0.0000 H   0  0  0  0  0  0  0  0  0  0  0  0
    7.2738    5.4565    0.0000 H   0  0  0  0  0  0  0  0  0  0  0  0
    4.8709   -6.0229    0.0000 H   0  0  0  0  0  0  0  0  0  0  0  0
    4.8709   -3.2348    0.0000 H   0  0  0  0  0  0  0  0  0  0  0  0
    7.6842    1.5519    0.0000 H   0  0  0  0  0  0  0  0  0  0  0  0
    7.5470    0.6859    0.0000 H   0  0  0  0  0  0  0  0  0  0  0  0
    8.4131    0.5487    0.0000 H   0  0  0  0  0  0  0  0  0  0  0  0
    2.8660   -6.2489    0.0000 H   0  0  0  0  0  0  0  0  0  0  0  0
    2.8660   -3.0089    0.0000 H   0  0  0  0  0  0  0  0  0  0  0  0
    1.4631   -5.4389    0.0000 H   0  0  0  0  0  0  0  0  0  0  0  0
    1.4631   -3.8189    0.0000 H   0  0  0  0  0  0  0  0  0  0  0  0
  1 27  1  0  0  0  0
 13  2  1  6  0  0  0
  2 18  1  0  0  0  0
  3 20  2  0  0  0  0
  4 25  1  0  0  0  0
  4 36  1  0  0  0  0
  5 24  1  0  0  0  0
  5 67  1  0  0  0  0
  6 30  2  0  0  0  0
  7 11  1  0  0  0  0
  7 14  1  0  0  0  0
  7 16  1  0  0  0  0
  8 15  1  0  0  0  0
  8 20  1  0  0  0  0
  8 51  1  0  0  0  0
  9 23  1  0  0  0  0
  9 30  1  0  0  0  0
  9 63  1  0  0  0  0
 10 31  1  0  0  0  0
 10 34  1  0  0  0  0
 10 71  1  0  0  0  0
 11 12  1  0  0  0  0
 11 15  1  1  0  0  0
 11 41  1  0  0  0  0
 12 13  1  0  0  0  0
 12 42  1  0  0  0  0
 12 43  1  0  0  0  0
 13 14  1  0  0  0  0
 13 44  1  0  0  0  0
 14 45  1  0  0  0  0
 14 46  1  0  0  0  0
 15 47  1  0  0  0  0
 15 48  1  0  0  0  0
 16 17  1  0  0  0  0
 16 49  1  0  0  0  0
 16 50  1  0  0  0  0
 17 52  1  0  0  0  0
 17 53  1  0  0  0  0
 17 54  1  0  0  0  0
 18 19  1  0  0  0  0
 18 55  1  0  0  0  0
 18 56  1  0  0  0  0
 19 21  1  0  0  0  0
 19 57  1  0  0  0  0
 19 58  1  0  0  0  0
 20 22  1  0  0  0  0
 21 23  1  0  0  0  0
 21 59  1  0  0  0  0
 21 60  1  0  0  0  0
 22 24  2  0  0  0  0
 22 25  1  0  0  0  0
 23 61  1  0  0  0  0
 23 62  1  0  0  0  0
 24 26  1  0  0  0  0
 25 27  2  0  0  0  0
 26 28  2  0  0  0  0
 26 29  1  0  0  0  0
 27 28  1  0  0  0  0
 28 64  1  0  0  0  0
 29 32  1  0  0  0  0
 29 65  1  0  0  0  0
 29 66  1  0  0  0  0
 30 31  1  0  0  0  0
 31 33  2  0  0  0  0
 32 68  1  0  0  0  0
 32 69  1  0  0  0  0
 32 70  1  0  0  0  0
 33 35  1  0  0  0  0
 33 72  1  0  0  0  0
 34 35  1  0  0  0  0
 34 37  2  0  0  0  0
 35 38  2  0  0  0  0
 36 73  1  0  0  0  0
 36 74  1  0  0  0  0
 36 75  1  0  0  0  0
 37 39  1  0  0  0  0
 37 76  1  0  0  0  0
 38 40  1  0  0  0  0
 38 77  1  0  0  0  0
 39 40  2  0  0  0  0
 39 78  1  0  0  0  0
 40 79  1  0  0  0  0
M  END
> <PUBCHEM_COMPOUND_CID>
164611252

> <PUBCHEM_COMPOUND_CANONICALIZED>
1

> <PUBCHEM_CACTVS_COMPLEXITY>
821

> <PUBCHEM_CACTVS_HBOND_ACCEPTOR>
6

> <PUBCHEM_CACTVS_HBOND_DONOR>
4

> <PUBCHEM_CACTVS_ROTATABLE_BOND>
13

> <PUBCHEM_CACTVS_SUBSKEYS>
AAADcfB7uAAEAAAAAAAAAAAAAAAAAWLAAAAwYAAAAAAAAFgB9AAAHgIQCAAADD7hniYyxvPJlgCoAyVyVACCiCAnJ2AImaG8b9gOZ/fHt7uXcWhn9hXY+Ye46eyeICACKAAKCABAQARQABQQAAAAAAAAAA==

> <PUBCHEM_IUPAC_OPENEYE_NAME>
N-[4-[(3R,5S)-5-[[(5-chloro-3-ethyl-2-hydroxy-6-methoxy-benzoyl)amino]methyl]-1-ethyl-pyrrolidin-3-yl]oxybutyl]-1H-indole-2-carboxamide

> <PUBCHEM_IUPAC_CAS_NAME>
N-[4-[[(3R,5S)-5-[[[(5-chloro-3-ethyl-2-hydroxy-6-methoxyphenyl)-oxomethyl]amino]methyl]-1-ethyl-3-pyrrolidinyl]oxy]butyl]-1H-indole-2-carboxamide

> <PUBCHEM_IUPAC_NAME_MARKUP>
<I>N</I>-[4-[(3<I>R</I>,5<I>S</I>)-5-[[(5-chloro-3-ethyl-2-hydroxy-6-methoxybenzoyl)amino]methyl]-1-ethylpyrrolidin-3-yl]oxybutyl]-1<I>H</I>-indole-2-carboxamide

> <PUBCHEM_IUPAC_NAME>
N-[4-[(3R,5S)-5-[[(5-chloro-3-ethyl-2-hydroxy-6-methoxybenzoyl)amino]methyl]-1-ethylpyrrolidin-3-yl]oxybutyl]-1H-indole-2-carboxamide

> <PUBCHEM_IUPAC_SYSTEMATIC_NAME>
N-[4-[(3R,5S)-5-[[(3-chloranyl-5-ethyl-2-methoxy-6-oxidanyl-phenyl)carbonylamino]methyl]-1-ethyl-pyrrolidin-3-yl]oxybutyl]-1H-indole-2-carboxamide

> <PUBCHEM_IUPAC_TRADITIONAL_NAME>
N-[4-[(3R,5S)-5-[[(5-chloro-3-ethyl-2-hydroxy-6-methoxy-benzoyl)amino]methyl]-1-ethyl-pyrrolidin-3-yl]oxybutyl]-1H-indole-2-carboxamide

> <PUBCHEM_IUPAC_INCHI>
InChI=1S/C30H39ClN4O5/c1-4-19-14-23(31)28(39-3)26(27(19)36)30(38)33-17-21-16-22(18-35(21)5-2)40-13-9-8-12-32-29(37)25-15-20-10-6-7-11-24(20)34-25/h6-7,10-11,14-15,21-22,34,36H,4-5,8-9,12-13,16-18H2,1-3H3,(H,32,37)(H,33,38)/t21-,22+/m0/s1

> <PUBCHEM_IUPAC_INCHIKEY>
KYCAHEZFDKQEQL-FCHUYYIVSA-N

> <PUBCHEM_XLOGP3_AA>
5.5

> <PUBCHEM_EXACT_MASS>
570.2608981

> <PUBCHEM_MOLECULAR_FORMULA>
C30H39ClN4O5

> <PUBCHEM_MOLECULAR_WEIGHT>
571.1

> <PUBCHEM_OPENEYE_CAN_SMILES>
CCC1=CC(=C(C(=C1O)C(=O)NCC2CC(CN2CC)OCCCCNC(=O)C3=CC4=CC=CC=C4N3)OC)Cl

> <PUBCHEM_OPENEYE_ISO_SMILES>
CCC1=CC(=C(C(=C1O)C(=O)NC[C@@H]2C[C@H](CN2CC)OCCCCNC(=O)C3=CC4=CC=CC=C4N3)OC)Cl

> <PUBCHEM_CACTVS_TPSA>
116

> <PUBCHEM_MONOISOTOPIC_WEIGHT>
570.2608981

> <PUBCHEM_TOTAL_CHARGE>
0

> <PUBCHEM_HEAVY_ATOM_COUNT>
40

> <PUBCHEM_ATOM_DEF_STEREO_COUNT>
2

> <PUBCHEM_ATOM_UDEF_STEREO_COUNT>
0

> <PUBCHEM_BOND_DEF_STEREO_COUNT>
0

> <PUBCHEM_BOND_UDEF_STEREO_COUNT>
0

> <PUBCHEM_ISOTOPIC_ATOM_COUNT>
0

> <PUBCHEM_COMPONENT_COUNT>
1

> <PUBCHEM_CACTVS_TAUTO_COUNT>
-1

> <PUBCHEM_COORDINATE_TYPE>
1
5
255

> <PUBCHEM_BONDANNOTATIONS>
10  31  8
10  34  8
11  15  5
13  2  6
22  24  8
22  25  8
24  26  8
25  27  8
26  28  8
27  28  8
31  33  8
33  35  8
34  35  8
34  37  8
35  38  8
37  39  8
38  40  8
39  40  8

$$$$
