57267
  -OEChem-09292322072D

 48 49  0     1  0  0  0  0  0999 V2000
    6.0010   -3.3209    0.0000 Cl  0  0  0  0  0  0  0  0  0  0  0  0
    3.4030    0.1791    0.0000 O   0  0  0  0  0  0  0  0  0  0  0  0
    6.0010   -1.3209    0.0000 O   0  0  0  0  0  0  0  0  0  0  0  0
    2.5369   -1.3209    0.0000 O   0  0  0  0  0  0  0  0  0  0  0  0
    6.1056    2.6736    0.0000 N   0  0  3  0  0  0  0  0  0  0  0  0
    5.1350    0.1791    0.0000 N   0  0  0  0  0  0  0  0  0  0  0  0
    6.0010    1.6791    0.0000 C   0  0  1  0  0  0  0  0  0  0  0  0
    6.9146    1.2724    0.0000 C   0  0  0  0  0  0  0  0  0  0  0  0
    7.5837    2.0155    0.0000 C   0  0  0  0  0  0  0  0  0  0  0  0
    7.0837    2.8815    0.0000 C   0  0  0  0  0  0  0  0  0  0  0  0
    5.1350    1.1791    0.0000 C   0  0  0  0  0  0  0  0  0  0  0  0
    5.3624    3.3428    0.0000 C   0  0  0  0  0  0  0  0  0  0  0  0
    5.5703    4.3209    0.0000 C   0  0  0  0  0  0  0  0  0  0  0  0
    4.2690   -0.3209    0.0000 C   0  0  0  0  0  0  0  0  0  0  0  0
    4.2690   -1.3209    0.0000 C   0  0  0  0  0  0  0  0  0  0  0  0
    3.4030   -1.8209    0.0000 C   0  0  0  0  0  0  0  0  0  0  0  0
    5.1350   -1.8209    0.0000 C   0  0  0  0  0  0  0  0  0  0  0  0
    3.4030   -2.8209    0.0000 C   0  0  0  0  0  0  0  0  0  0  0  0
    2.5369   -3.3209    0.0000 C   0  0  0  0  0  0  0  0  0  0  0  0
    5.1350   -2.8209    0.0000 C   0  0  0  0  0  0  0  0  0  0  0  0
    4.2690   -3.3209    0.0000 C   0  0  0  0  0  0  0  0  0  0  0  0
    2.5369   -4.3209    0.0000 C   0  0  0  0  0  0  0  0  0  0  0  0
    6.8671   -1.8209    0.0000 C   0  0  0  0  0  0  0  0  0  0  0  0
    5.4811    2.0168    0.0000 H   0  0  0  0  0  0  0  0  0  0  0  0
    6.6046    0.7354    0.0000 H   0  0  0  0  0  0  0  0  0  0  0  0
    7.4162    0.9079    0.0000 H   0  0  0  0  0  0  0  0  0  0  0  0
    7.9986    1.5548    0.0000 H   0  0  0  0  0  0  0  0  0  0  0  0
    8.0853    2.3799    0.0000 H   0  0  0  0  0  0  0  0  0  0  0  0
    7.6501    3.1337    0.0000 H   0  0  0  0  0  0  0  0  0  0  0  0
    6.8921    3.4712    0.0000 H   0  0  0  0  0  0  0  0  0  0  0  0
    4.9230    1.7617    0.0000 H   0  0  0  0  0  0  0  0  0  0  0  0
    4.5244    1.0714    0.0000 H   0  0  0  0  0  0  0  0  0  0  0  0
    4.7876    3.5750    0.0000 H   0  0  0  0  0  0  0  0  0  0  0  0
    5.0339    2.8170    0.0000 H   0  0  0  0  0  0  0  0  0  0  0  0
    5.6720   -0.1309    0.0000 H   0  0  0  0  0  0  0  0  0  0  0  0
    6.1768    4.1920    0.0000 H   0  0  0  0  0  0  0  0  0  0  0  0
    5.6992    4.9274    0.0000 H   0  0  0  0  0  0  0  0  0  0  0  0
    4.9639    4.4498    0.0000 H   0  0  0  0  0  0  0  0  0  0  0  0
    2.3249   -2.7383    0.0000 H   0  0  0  0  0  0  0  0  0  0  0  0
    1.9264   -3.4286    0.0000 H   0  0  0  0  0  0  0  0  0  0  0  0
    4.2690   -3.9409    0.0000 H   0  0  0  0  0  0  0  0  0  0  0  0
    1.9169   -4.3209    0.0000 H   0  0  0  0  0  0  0  0  0  0  0  0
    2.5369   -4.9409    0.0000 H   0  0  0  0  0  0  0  0  0  0  0  0
    3.1569   -4.3209    0.0000 H   0  0  0  0  0  0  0  0  0  0  0  0
    2.0000   -1.6309    0.0000 H   0  0  0  0  0  0  0  0  0  0  0  0
    6.5571   -2.3578    0.0000 H   0  0  0  0  0  0  0  0  0  0  0  0
    7.4040   -2.1309    0.0000 H   0  0  0  0  0  0  0  0  0  0  0  0
    7.1771   -1.2840    0.0000 H   0  0  0  0  0  0  0  0  0  0  0  0
  1 20  1  0  0  0  0
  2 14  2  0  0  0  0
  3 17  1  0  0  0  0
  3 23  1  0  0  0  0
  4 16  1  0  0  0  0
  4 45  1  0  0  0  0
  5  7  1  0  0  0  0
  5 10  1  0  0  0  0
  5 12  1  0  0  0  0
  6 11  1  0  0  0  0
  6 14  1  0  0  0  0
  6 35  1  0  0  0  0
  7  8  1  0  0  0  0
  7 11  1  1  0  0  0
  7 24  1  0  0  0  0
  8  9  1  0  0  0  0
  8 25  1  0  0  0  0
  8 26  1  0  0  0  0
  9 10  1  0  0  0  0
  9 27  1  0  0  0  0
  9 28  1  0  0  0  0
 10 29  1  0  0  0  0
 10 30  1  0  0  0  0
 11 31  1  0  0  0  0
 11 32  1  0  0  0  0
 12 13  1  0  0  0  0
 12 33  1  0  0  0  0
 12 34  1  0  0  0  0
 13 36  1  0  0  0  0
 13 37  1  0  0  0  0
 13 38  1  0  0  0  0
 14 15  1  0  0  0  0
 15 16  2  0  0  0  0
 15 17  1  0  0  0  0
 16 18  1  0  0  0  0
 17 20  2  0  0  0  0
 18 19  1  0  0  0  0
 18 21  2  0  0  0  0
 19 22  1  0  0  0  0
 19 39  1  0  0  0  0
 19 40  1  0  0  0  0
 20 21  1  0  0  0  0
 21 41  1  0  0  0  0
 22 42  1  0  0  0  0
 22 43  1  0  0  0  0
 22 44  1  0  0  0  0
 23 46  1  0  0  0  0
 23 47  1  0  0  0  0
 23 48  1  0  0  0  0
M  END
> <PUBCHEM_COMPOUND_CID>
57267

> <PUBCHEM_COMPOUND_CANONICALIZED>
1

> <PUBCHEM_CACTVS_COMPLEXITY>
396

> <PUBCHEM_CACTVS_HBOND_ACCEPTOR>
4

> <PUBCHEM_CACTVS_HBOND_DONOR>
2

> <PUBCHEM_CACTVS_ROTATABLE_BOND>
6

> <PUBCHEM_CACTVS_SUBSKEYS>
AAADceB7MAAEAAAAAAAAAAAAAAAAAWAAAAAwAAAAAAAAAAABAAAAHgIQCAAADC7BmCYyBoPABgCIAiFSEACCCAAkJUAAiIEMD8gMZzeHtxuUcWhn9hWIuQeY6OyOICACKAAICABAQARQABAQAAAAAAAAAA==

> <PUBCHEM_IUPAC_OPENEYE_NAME>
5-chloro-3-ethyl-N-[[(2S)-1-ethylpyrrolidin-2-yl]methyl]-2-hydroxy-6-methoxy-benzamide

> <PUBCHEM_IUPAC_CAS_NAME>
5-chloro-3-ethyl-N-[[(2S)-1-ethyl-2-pyrrolidinyl]methyl]-2-hydroxy-6-methoxybenzamide

> <PUBCHEM_IUPAC_NAME_MARKUP>
5-chloro-3-ethyl-<I>N</I>-[[(2<I>S</I>)-1-ethylpyrrolidin-2-yl]methyl]-2-hydroxy-6-methoxybenzamide

> <PUBCHEM_IUPAC_NAME>
5-chloro-3-ethyl-N-[[(2S)-1-ethylpyrrolidin-2-yl]methyl]-2-hydroxy-6-methoxybenzamide

> <PUBCHEM_IUPAC_SYSTEMATIC_NAME>
3-chloranyl-5-ethyl-N-[[(2S)-1-ethylpyrrolidin-2-yl]methyl]-2-methoxy-6-oxidanyl-benzamide

> <PUBCHEM_IUPAC_TRADITIONAL_NAME>
5-chloro-3-ethyl-N-[[(2S)-1-ethylpyrrolidin-2-yl]methyl]-2-hydroxy-6-methoxy-benzamide

> <PUBCHEM_IUPAC_INCHI>
InChI=1S/C17H25ClN2O3/c1-4-11-9-13(18)16(23-3)14(15(11)21)17(22)19-10-12-7-6-8-20(12)5-2/h9,12,21H,4-8,10H2,1-3H3,(H,19,22)/t12-/m0/s1

> <PUBCHEM_IUPAC_INCHIKEY>
AADCDMQTJNYOSS-LBPRGKRZSA-N

> <PUBCHEM_XLOGP3>
3.1

> <PUBCHEM_EXACT_MASS>
340.1553704

> <PUBCHEM_MOLECULAR_FORMULA>
C17H25ClN2O3

> <PUBCHEM_MOLECULAR_WEIGHT>
340.8

> <PUBCHEM_OPENEYE_CAN_SMILES>
CCC1=CC(=C(C(=C1O)C(=O)NCC2CCCN2CC)OC)Cl

> <PUBCHEM_OPENEYE_ISO_SMILES>
CCC1=CC(=C(C(=C1O)C(=O)NC[C@@H]2CCCN2CC)OC)Cl

> <PUBCHEM_CACTVS_TPSA>
61.8

> <PUBCHEM_MONOISOTOPIC_WEIGHT>
340.1553704

> <PUBCHEM_TOTAL_CHARGE>
0

> <PUBCHEM_HEAVY_ATOM_COUNT>
23

> <PUBCHEM_ATOM_DEF_STEREO_COUNT>
1

> <PUBCHEM_ATOM_UDEF_STEREO_COUNT>
0

> <PUBCHEM_BOND_DEF_STEREO_COUNT>
0

> <PUBCHEM_BOND_UDEF_STEREO_COUNT>
0

> <PUBCHEM_ISOTOPIC_ATOM_COUNT>
0

> <PUBCHEM_COMPONENT_COUNT>
1

> <PUBCHEM_CACTVS_TAUTO_COUNT>
7

> <PUBCHEM_COORDINATE_TYPE>
1
5
255

> <PUBCHEM_BONDANNOTATIONS>
15  16  8
15  17  8
16  18  8
17  20  8
18  21  8
20  21  8
7  11  5

$$$$
