749986
  -OEChem-09292322212D

 41 44  0     1  0  0  0  0  0999 V2000
    8.2619    0.6020    0.0000 N   0  0  3  0  0  0  0  0  0  0  0  0
    4.6783    1.4067    0.0000 N   0  0  0  0  0  0  0  0  0  0  0  0
    4.6783   -0.2027    0.0000 N   0  0  0  0  0  0  0  0  0  0  0  0
    7.7619    1.4680    0.0000 C   0  0  0  0  0  0  0  0  0  0  0  0
    6.7619    1.4680    0.0000 C   0  0  0  0  0  0  0  0  0  0  0  0
    7.7619   -0.2640    0.0000 C   0  0  0  0  0  0  0  0  0  0  0  0
    6.2619    0.6020    0.0000 C   0  0  0  0  0  0  0  0  0  0  0  0
    9.2619    0.6020    0.0000 C   0  0  0  0  0  0  0  0  0  0  0  0
    6.7619   -0.2640    0.0000 C   0  0  0  0  0  0  0  0  0  0  0  0
    5.2619    0.6020    0.0000 C   0  0  0  0  0  0  0  0  0  0  0  0
    9.7619   -0.2640    0.0000 C   0  0  0  0  0  0  0  0  0  0  0  0
    3.7320    1.1020    0.0000 C   0  0  0  0  0  0  0  0  0  0  0  0
    3.7320    0.1020    0.0000 C   0  0  0  0  0  0  0  0  0  0  0  0
    9.2619   -1.1300    0.0000 C   0  0  0  0  0  0  0  0  0  0  0  0
   10.7619   -0.2640    0.0000 C   0  0  0  0  0  0  0  0  0  0  0  0
    2.8660    1.6020    0.0000 C   0  0  0  0  0  0  0  0  0  0  0  0
    2.8660   -0.3980    0.0000 C   0  0  0  0  0  0  0  0  0  0  0  0
    9.7619   -1.9961    0.0000 C   0  0  0  0  0  0  0  0  0  0  0  0
   11.2619   -1.1300    0.0000 C   0  0  0  0  0  0  0  0  0  0  0  0
    2.0000    1.1020    0.0000 C   0  0  0  0  0  0  0  0  0  0  0  0
    2.0000    0.1020    0.0000 C   0  0  0  0  0  0  0  0  0  0  0  0
   10.7619   -1.9961    0.0000 C   0  0  0  0  0  0  0  0  0  0  0  0
    8.3445    1.6801    0.0000 H   0  0  0  0  0  0  0  0  0  0  0  0
    7.6542    2.0786    0.0000 H   0  0  0  0  0  0  0  0  0  0  0  0
    6.8695    2.0786    0.0000 H   0  0  0  0  0  0  0  0  0  0  0  0
    6.1793    1.6801    0.0000 H   0  0  0  0  0  0  0  0  0  0  0  0
    7.6542   -0.8746    0.0000 H   0  0  0  0  0  0  0  0  0  0  0  0
    8.3445   -0.4761    0.0000 H   0  0  0  0  0  0  0  0  0  0  0  0
    9.8445    0.8141    0.0000 H   0  0  0  0  0  0  0  0  0  0  0  0
    9.1542    1.2126    0.0000 H   0  0  0  0  0  0  0  0  0  0  0  0
    6.4519   -0.8010    0.0000 H   0  0  0  0  0  0  0  0  0  0  0  0
    4.8709    1.9961    0.0000 H   0  0  0  0  0  0  0  0  0  0  0  0
    8.6419   -1.1300    0.0000 H   0  0  0  0  0  0  0  0  0  0  0  0
   11.0719    0.2729    0.0000 H   0  0  0  0  0  0  0  0  0  0  0  0
    2.8660    2.2220    0.0000 H   0  0  0  0  0  0  0  0  0  0  0  0
    2.8660   -1.0180    0.0000 H   0  0  0  0  0  0  0  0  0  0  0  0
    9.4519   -2.5330    0.0000 H   0  0  0  0  0  0  0  0  0  0  0  0
   11.8819   -1.1300    0.0000 H   0  0  0  0  0  0  0  0  0  0  0  0
    1.4631    1.4120    0.0000 H   0  0  0  0  0  0  0  0  0  0  0  0
    1.4631   -0.2080    0.0000 H   0  0  0  0  0  0  0  0  0  0  0  0
   11.0719   -2.5330    0.0000 H   0  0  0  0  0  0  0  0  0  0  0  0
  1  4  1  0  0  0  0
  1  6  1  0  0  0  0
  1  8  1  0  0  0  0
  2 10  1  0  0  0  0
  2 12  1  0  0  0  0
  2 32  1  0  0  0  0
  3 10  2  0  0  0  0
  3 13  1  0  0  0  0
  4  5  1  0  0  0  0
  4 23  1  0  0  0  0
  4 24  1  0  0  0  0
  5  7  1  0  0  0  0
  5 25  1  0  0  0  0
  5 26  1  0  0  0  0
  6  9  1  0  0  0  0
  6 27  1  0  0  0  0
  6 28  1  0  0  0  0
  7  9  2  0  0  0  0
  7 10  1  0  0  0  0
  8 11  1  0  0  0  0
  8 29  1  0  0  0  0
  8 30  1  0  0  0  0
  9 31  1  0  0  0  0
 11 14  2  0  0  0  0
 11 15  1  0  0  0  0
 12 13  1  0  0  0  0
 12 16  2  0  0  0  0
 13 17  2  0  0  0  0
 14 18  1  0  0  0  0
 14 33  1  0  0  0  0
 15 19  2  0  0  0  0
 15 34  1  0  0  0  0
 16 20  1  0  0  0  0
 16 35  1  0  0  0  0
 17 21  1  0  0  0  0
 17 36  1  0  0  0  0
 18 22  2  0  0  0  0
 18 37  1  0  0  0  0
 19 22  1  0  0  0  0
 19 38  1  0  0  0  0
 20 21  2  0  0  0  0
 20 39  1  0  0  0  0
 21 40  1  0  0  0  0
 22 41  1  0  0  0  0
M  END
> <PUBCHEM_COMPOUND_CID>
749986

> <PUBCHEM_COMPOUND_CANONICALIZED>
1

> <PUBCHEM_CACTVS_COMPLEXITY>
400

> <PUBCHEM_CACTVS_HBOND_ACCEPTOR>
2

> <PUBCHEM_CACTVS_HBOND_DONOR>
1

> <PUBCHEM_CACTVS_ROTATABLE_BOND>
3

> <PUBCHEM_CACTVS_SUBSKEYS>
AAADceB7AAAAAAAAAAAAAAAAAAAAAWAAAAAwYIAAAAAAAFgB9AAAHAAQAAAADAjBHwQx0LfJkACgAyZiZACCgC2hEqAJmSA4dJiIaKLAmZGUIAhokALIyCcQgAAOAAAAAAAAACAAAAAAAAAAQAAAAAAAAA==

> <PUBCHEM_IUPAC_OPENEYE_NAME>
2-(1-benzyl-3,6-dihydro-2H-pyridin-4-yl)-1H-benzimidazole

> <PUBCHEM_IUPAC_CAS_NAME>
2-[1-(phenylmethyl)-3,6-dihydro-2H-pyridin-4-yl]-1H-benzimidazole

> <PUBCHEM_IUPAC_NAME_MARKUP>
2-(1-benzyl-3,6-dihydro-2<I>H</I>-pyridin-4-yl)-1<I>H</I>-benzimidazole

> <PUBCHEM_IUPAC_NAME>
2-(1-benzyl-3,6-dihydro-2H-pyridin-4-yl)-1H-benzimidazole

> <PUBCHEM_IUPAC_SYSTEMATIC_NAME>
2-[1-(phenylmethyl)-3,6-dihydro-2H-pyridin-4-yl]-1H-benzimidazole

> <PUBCHEM_IUPAC_TRADITIONAL_NAME>
2-(1-benzyl-3,6-dihydro-2H-pyridin-4-yl)-1H-benzimidazole

> <PUBCHEM_IUPAC_INCHI>
InChI=1S/C19H19N3/c1-2-6-15(7-3-1)14-22-12-10-16(11-13-22)19-20-17-8-4-5-9-18(17)21-19/h1-10H,11-14H2,(H,20,21)

> <PUBCHEM_IUPAC_INCHIKEY>
WWKHLSANYDLDKY-UHFFFAOYSA-N

> <PUBCHEM_XLOGP3_AA>
3.2

> <PUBCHEM_EXACT_MASS>
289.157897619

> <PUBCHEM_MOLECULAR_FORMULA>
C19H19N3

> <PUBCHEM_MOLECULAR_WEIGHT>
289.4

> <PUBCHEM_OPENEYE_CAN_SMILES>
C1CN(CC=C1C2=NC3=CC=CC=C3N2)CC4=CC=CC=C4

> <PUBCHEM_OPENEYE_ISO_SMILES>
C1CN(CC=C1C2=NC3=CC=CC=C3N2)CC4=CC=CC=C4

> <PUBCHEM_CACTVS_TPSA>
31.9

> <PUBCHEM_MONOISOTOPIC_WEIGHT>
289.157897619

> <PUBCHEM_TOTAL_CHARGE>
0

> <PUBCHEM_HEAVY_ATOM_COUNT>
22

> <PUBCHEM_ATOM_DEF_STEREO_COUNT>
0

> <PUBCHEM_ATOM_UDEF_STEREO_COUNT>
0

> <PUBCHEM_BOND_DEF_STEREO_COUNT>
0

> <PUBCHEM_BOND_UDEF_STEREO_COUNT>
0

> <PUBCHEM_ISOTOPIC_ATOM_COUNT>
0

> <PUBCHEM_COMPONENT_COUNT>
1

> <PUBCHEM_CACTVS_TAUTO_COUNT>
-1

> <PUBCHEM_COORDINATE_TYPE>
1
5
255

> <PUBCHEM_BONDANNOTATIONS>
11  14  8
11  15  8
12  13  8
12  16  8
13  17  8
14  18  8
15  19  8
16  20  8
17  21  8
18  22  8
19  22  8
2  10  8
2  12  8
20  21  8
3  10  8
3  13  8

$$$$
