73671367
  -OEChem-09292322352D

 60 64  0     0  0  0  0  0  0999 V2000
    2.0000   -6.8878    0.0000 Cl  0  0  0  0  0  0  0  0  0  0  0  0
    8.9942    2.1364    0.0000 O   0  0  0  0  0  0  0  0  0  0  0  0
    5.5301   -1.8636    0.0000 N   0  0  0  0  0  0  0  0  0  0  0  0
    5.5301   -3.8636    0.0000 N   0  0  0  0  0  0  0  0  0  0  0  0
    7.2622    2.1364    0.0000 N   0  0  0  0  0  0  0  0  0  0  0  0
    5.5301   -6.8636    0.0000 N   0  0  0  0  0  0  0  0  0  0  0  0
    7.6282    5.1662    0.0000 N   0  0  0  0  0  0  0  0  0  0  0  0
    8.9329    4.2200    0.0000 N   0  0  0  0  0  0  0  0  0  0  0  0
    6.3961   -2.3636    0.0000 C   0  0  0  0  0  0  0  0  0  0  0  0
    4.6641   -2.3636    0.0000 C   0  0  0  0  0  0  0  0  0  0  0  0
    6.3961   -3.3636    0.0000 C   0  0  0  0  0  0  0  0  0  0  0  0
    4.6641   -3.3636    0.0000 C   0  0  0  0  0  0  0  0  0  0  0  0
    5.5301   -0.8636    0.0000 C   0  0  0  0  0  0  0  0  0  0  0  0
    6.3961   -0.3636    0.0000 C   0  0  0  0  0  0  0  0  0  0  0  0
    5.5301   -4.8636    0.0000 C   0  0  0  0  0  0  0  0  0  0  0  0
    6.3961    0.6364    0.0000 C   0  0  0  0  0  0  0  0  0  0  0  0
    4.6641   -5.3636    0.0000 C   0  0  0  0  0  0  0  0  0  0  0  0
    7.2622    1.1364    0.0000 C   0  0  0  0  0  0  0  0  0  0  0  0
    6.3961   -5.3636    0.0000 C   0  0  0  0  0  0  0  0  0  0  0  0
    4.6641   -6.3636    0.0000 C   0  0  0  0  0  0  0  0  0  0  0  0
    3.7702   -4.8290    0.0000 C   0  0  0  0  0  0  0  0  0  0  0  0
    6.3961   -6.3636    0.0000 C   0  0  0  0  0  0  0  0  0  0  0  0
    3.7702   -6.8983    0.0000 C   0  0  0  0  0  0  0  0  0  0  0  0
    2.8641   -5.3428    0.0000 C   0  0  0  0  0  0  0  0  0  0  0  0
    2.8641   -6.3844    0.0000 C   0  0  0  0  0  0  0  0  0  0  0  0
    8.1282    2.6364    0.0000 C   0  0  0  0  0  0  0  0  0  0  0  0
    8.1282    3.6364    0.0000 C   0  0  0  0  0  0  0  0  0  0  0  0
    7.3235    4.2200    0.0000 C   0  0  0  0  0  0  0  0  0  0  0  0
    8.6282    5.1662    0.0000 C   0  0  0  0  0  0  0  0  0  0  0  0
    7.1282    6.0322    0.0000 C   0  0  0  0  0  0  0  0  0  0  0  0
    9.1282    6.0322    0.0000 C   0  0  0  0  0  0  0  0  0  0  0  0
    7.6282    6.8983    0.0000 C   0  0  0  0  0  0  0  0  0  0  0  0
    8.6282    6.8983    0.0000 C   0  0  0  0  0  0  0  0  0  0  0  0
    7.0067   -2.4713    0.0000 H   0  0  0  0  0  0  0  0  0  0  0  0
    6.6082   -1.7810    0.0000 H   0  0  0  0  0  0  0  0  0  0  0  0
    4.4520   -1.7810    0.0000 H   0  0  0  0  0  0  0  0  0  0  0  0
    4.0535   -2.4713    0.0000 H   0  0  0  0  0  0  0  0  0  0  0  0
    6.6082   -3.9462    0.0000 H   0  0  0  0  0  0  0  0  0  0  0  0
    7.0067   -3.2560    0.0000 H   0  0  0  0  0  0  0  0  0  0  0  0
    4.0535   -3.2560    0.0000 H   0  0  0  0  0  0  0  0  0  0  0  0
    4.4520   -3.9462    0.0000 H   0  0  0  0  0  0  0  0  0  0  0  0
    5.3181   -0.2810    0.0000 H   0  0  0  0  0  0  0  0  0  0  0  0
    4.9196   -0.9713    0.0000 H   0  0  0  0  0  0  0  0  0  0  0  0
    6.6082   -0.9462    0.0000 H   0  0  0  0  0  0  0  0  0  0  0  0
    7.0067   -0.2559    0.0000 H   0  0  0  0  0  0  0  0  0  0  0  0
    6.1841    1.2190    0.0000 H   0  0  0  0  0  0  0  0  0  0  0  0
    5.7856    0.5287    0.0000 H   0  0  0  0  0  0  0  0  0  0  0  0
    7.4742    0.5538    0.0000 H   0  0  0  0  0  0  0  0  0  0  0  0
    7.8728    1.2441    0.0000 H   0  0  0  0  0  0  0  0  0  0  0  0
    6.9331   -5.0536    0.0000 H   0  0  0  0  0  0  0  0  0  0  0  0
    3.7773   -4.2090    0.0000 H   0  0  0  0  0  0  0  0  0  0  0  0
    6.9331   -6.6736    0.0000 H   0  0  0  0  0  0  0  0  0  0  0  0
    6.7252    2.4464    0.0000 H   0  0  0  0  0  0  0  0  0  0  0  0
    3.7773   -7.5182    0.0000 H   0  0  0  0  0  0  0  0  0  0  0  0
    2.3284   -5.0307    0.0000 H   0  0  0  0  0  0  0  0  0  0  0  0
    6.7342    4.0274    0.0000 H   0  0  0  0  0  0  0  0  0  0  0  0
    6.5082    6.0322    0.0000 H   0  0  0  0  0  0  0  0  0  0  0  0
    9.7482    6.0322    0.0000 H   0  0  0  0  0  0  0  0  0  0  0  0
    7.3182    7.4352    0.0000 H   0  0  0  0  0  0  0  0  0  0  0  0
    8.9382    7.4352    0.0000 H   0  0  0  0  0  0  0  0  0  0  0  0
  1 25  1  0  0  0  0
  2 26  2  0  0  0  0
  3  9  1  0  0  0  0
  3 10  1  0  0  0  0
  3 13  1  0  0  0  0
  4 11  1  0  0  0  0
  4 12  1  0  0  0  0
  4 15  1  0  0  0  0
  5 18  1  0  0  0  0
  5 26  1  0  0  0  0
  5 53  1  0  0  0  0
  6 20  2  0  0  0  0
  6 22  1  0  0  0  0
  7 28  1  0  0  0  0
  7 29  1  0  0  0  0
  7 30  1  0  0  0  0
  8 27  1  0  0  0  0
  8 29  2  0  0  0  0
  9 11  1  0  0  0  0
  9 34  1  0  0  0  0
  9 35  1  0  0  0  0
 10 12  1  0  0  0  0
 10 36  1  0  0  0  0
 10 37  1  0  0  0  0
 11 38  1  0  0  0  0
 11 39  1  0  0  0  0
 12 40  1  0  0  0  0
 12 41  1  0  0  0  0
 13 14  1  0  0  0  0
 13 42  1  0  0  0  0
 13 43  1  0  0  0  0
 14 16  1  0  0  0  0
 14 44  1  0  0  0  0
 14 45  1  0  0  0  0
 15 17  2  0  0  0  0
 15 19  1  0  0  0  0
 16 18  1  0  0  0  0
 16 46  1  0  0  0  0
 16 47  1  0  0  0  0
 17 20  1  0  0  0  0
 17 21  1  0  0  0  0
 18 48  1  0  0  0  0
 18 49  1  0  0  0  0
 19 22  2  0  0  0  0
 19 50  1  0  0  0  0
 20 23  1  0  0  0  0
 21 24  2  0  0  0  0
 21 51  1  0  0  0  0
 22 52  1  0  0  0  0
 23 25  2  0  0  0  0
 23 54  1  0  0  0  0
 24 25  1  0  0  0  0
 24 55  1  0  0  0  0
 26 27  1  0  0  0  0
 27 28  2  0  0  0  0
 28 56  1  0  0  0  0
 29 31  1  0  0  0  0
 30 32  2  0  0  0  0
 30 57  1  0  0  0  0
 31 33  2  0  0  0  0
 31 58  1  0  0  0  0
 32 33  1  0  0  0  0
 32 59  1  0  0  0  0
 33 60  1  0  0  0  0
M  END
> <PUBCHEM_COMPOUND_CID>
73671367

> <PUBCHEM_COMPOUND_CANONICALIZED>
1

> <PUBCHEM_CACTVS_COMPLEXITY>
644

> <PUBCHEM_CACTVS_HBOND_ACCEPTOR>
5

> <PUBCHEM_CACTVS_HBOND_DONOR>
1

> <PUBCHEM_CACTVS_ROTATABLE_BOND>
7

> <PUBCHEM_CACTVS_SUBSKEYS>
AAADceB7oAAEAAAAAAAAAAAAAAAAAWAAAAA8WLEAAAAAAFix/gAAHgIQAAAADArBnyQ98P/MGACoAzd3dACCgC03F6AJ2KG4dtiIaOrB2/GUJIholgLIyOcQgIAOBAAAAAICAAAIAAAABAQAAAAAAAAAAA==

> <PUBCHEM_IUPAC_OPENEYE_NAME>
N-[4-[4-(7-chloro-4-quinolyl)piperazin-1-yl]butyl]imidazo[1,2-a]pyridine-2-carboxamide

> <PUBCHEM_IUPAC_CAS_NAME>
N-[4-[4-(7-chloro-4-quinolinyl)-1-piperazinyl]butyl]-2-imidazo[1,2-a]pyridinecarboxamide

> <PUBCHEM_IUPAC_NAME_MARKUP>
<I>N</I>-[4-[4-(7-chloroquinolin-4-yl)piperazin-1-yl]butyl]imidazo[1,2-a]pyridine-2-carboxamide

> <PUBCHEM_IUPAC_NAME>
N-[4-[4-(7-chloroquinolin-4-yl)piperazin-1-yl]butyl]imidazo[1,2-a]pyridine-2-carboxamide

> <PUBCHEM_IUPAC_SYSTEMATIC_NAME>
N-[4-[4-(7-chloranylquinolin-4-yl)piperazin-1-yl]butyl]imidazo[1,2-a]pyridine-2-carboxamide

> <PUBCHEM_IUPAC_TRADITIONAL_NAME>
N-[4-[4-(7-chloro-4-quinolyl)piperazino]butyl]imidazo[1,2-a]pyridine-2-carboxamide

> <PUBCHEM_IUPAC_INCHI>
InChI=1S/C25H27ClN6O/c26-19-6-7-20-21(17-19)27-10-8-23(20)31-15-13-30(14-16-31)11-4-2-9-28-25(33)22-18-32-12-3-1-5-24(32)29-22/h1,3,5-8,10,12,17-18H,2,4,9,11,13-16H2,(H,28,33)

> <PUBCHEM_IUPAC_INCHIKEY>
NWVMEGNJSPJMDY-UHFFFAOYSA-N

> <PUBCHEM_XLOGP3_AA>
4.6

> <PUBCHEM_EXACT_MASS>
462.1934872

> <PUBCHEM_MOLECULAR_FORMULA>
C25H27ClN6O

> <PUBCHEM_MOLECULAR_WEIGHT>
463.0

> <PUBCHEM_OPENEYE_CAN_SMILES>
C1CN(CCN1CCCCNC(=O)C2=CN3C=CC=CC3=N2)C4=C5C=CC(=CC5=NC=C4)Cl

> <PUBCHEM_OPENEYE_ISO_SMILES>
C1CN(CCN1CCCCNC(=O)C2=CN3C=CC=CC3=N2)C4=C5C=CC(=CC5=NC=C4)Cl

> <PUBCHEM_CACTVS_TPSA>
65.8

> <PUBCHEM_MONOISOTOPIC_WEIGHT>
462.1934872

> <PUBCHEM_TOTAL_CHARGE>
0

> <PUBCHEM_HEAVY_ATOM_COUNT>
33

> <PUBCHEM_ATOM_DEF_STEREO_COUNT>
0

> <PUBCHEM_ATOM_UDEF_STEREO_COUNT>
0

> <PUBCHEM_BOND_DEF_STEREO_COUNT>
0

> <PUBCHEM_BOND_UDEF_STEREO_COUNT>
0

> <PUBCHEM_ISOTOPIC_ATOM_COUNT>
0

> <PUBCHEM_COMPONENT_COUNT>
1

> <PUBCHEM_CACTVS_TAUTO_COUNT>
-1

> <PUBCHEM_COORDINATE_TYPE>
1
5
255

> <PUBCHEM_BONDANNOTATIONS>
15  17  8
15  19  8
17  20  8
17  21  8
19  22  8
20  23  8
21  24  8
23  25  8
24  25  8
27  28  8
29  31  8
30  32  8
31  33  8
32  33  8
6  20  8
6  22  8
7  28  8
7  29  8
7  30  8
8  27  8
8  29  8

$$$$
