127046951
  -OEChem-09292322372D

 63 65  0     1  0  0  0  0  0999 V2000
    9.4651    2.4050    0.0000 O   0  0  0  0  0  0  0  0  0  0  0  0
    3.4030   -2.0950    0.0000 O   0  0  0  0  0  0  0  0  0  0  0  0
    9.4651    0.4050    0.0000 O   0  0  0  0  0  0  0  0  0  0  0  0
    2.5369   -5.5950    0.0000 O   0  0  0  0  0  0  0  0  0  0  0  0
    4.2690   -6.5950    0.0000 O   0  0  0  0  0  0  0  0  0  0  0  0
    5.1350   -1.0950    0.0000 N   0  0  0  0  0  0  0  0  0  0  0  0
    6.0010   -0.5950    0.0000 C   0  0  0  0  0  0  0  0  0  0  0  0
    6.0010    0.4050    0.0000 C   0  0  0  0  0  0  0  0  0  0  0  0
    5.1350   -2.0950    0.0000 C   0  0  0  0  0  0  0  0  0  0  0  0
    4.2690   -2.5950    0.0000 C   0  0  2  0  0  0  0  0  0  0  0  0
    6.8671    0.9050    0.0000 C   0  0  0  0  0  0  0  0  0  0  0  0
    4.2690   -3.5950    0.0000 C   0  0  0  0  0  0  0  0  0  0  0  0
   10.3312    3.9050    0.0000 C   0  0  0  0  0  0  0  0  0  0  0  0
    7.7331    0.4050    0.0000 C   0  0  0  0  0  0  0  0  0  0  0  0
   10.3312    4.9050    0.0000 C   0  0  0  0  0  0  0  0  0  0  0  0
    6.8671    1.9050    0.0000 C   0  0  0  0  0  0  0  0  0  0  0  0
    9.4651    3.4050    0.0000 C   0  0  0  0  0  0  0  0  0  0  0  0
    8.5991    1.9050    0.0000 C   0  0  0  0  0  0  0  0  0  0  0  0
    8.5991    0.9050    0.0000 C   0  0  0  0  0  0  0  0  0  0  0  0
    7.7331    2.4050    0.0000 C   0  0  0  0  0  0  0  0  0  0  0  0
    3.4030   -4.0950    0.0000 C   0  0  0  0  0  0  0  0  0  0  0  0
   11.1972    5.4050    0.0000 C   0  0  0  0  0  0  0  0  0  0  0  0
    5.1350   -4.0950    0.0000 C   0  0  0  0  0  0  0  0  0  0  0  0
    3.4030   -5.0950    0.0000 C   0  0  0  0  0  0  0  0  0  0  0  0
    5.1350   -5.0950    0.0000 C   0  0  0  0  0  0  0  0  0  0  0  0
    4.2690   -5.5950    0.0000 C   0  0  0  0  0  0  0  0  0  0  0  0
   11.1972    6.4050    0.0000 C   0  0  0  0  0  0  0  0  0  0  0  0
   12.0632    4.9050    0.0000 C   0  0  0  0  0  0  0  0  0  0  0  0
   12.0632    6.9050    0.0000 C   0  0  0  0  0  0  0  0  0  0  0  0
   12.9292    5.4050    0.0000 C   0  0  0  0  0  0  0  0  0  0  0  0
   12.9292    6.4050    0.0000 C   0  0  0  0  0  0  0  0  0  0  0  0
    9.4651   -0.5950    0.0000 C   0  0  0  0  0  0  0  0  0  0  0  0
    6.2131   -1.1776    0.0000 H   0  0  0  0  0  0  0  0  0  0  0  0
    6.6116   -0.4873    0.0000 H   0  0  0  0  0  0  0  0  0  0  0  0
    5.7890    0.9876    0.0000 H   0  0  0  0  0  0  0  0  0  0  0  0
    5.3905    0.2973    0.0000 H   0  0  0  0  0  0  0  0  0  0  0  0
    5.3471   -2.6776    0.0000 H   0  0  0  0  0  0  0  0  0  0  0  0
    5.7456   -1.9873    0.0000 H   0  0  0  0  0  0  0  0  0  0  0  0
    4.2690   -1.9750    0.0000 H   0  0  0  0  0  0  0  0  0  0  0  0
    4.5981   -0.7850    0.0000 H   0  0  0  0  0  0  0  0  0  0  0  0
   10.5432    3.3224    0.0000 H   0  0  0  0  0  0  0  0  0  0  0  0
   10.9417    4.0127    0.0000 H   0  0  0  0  0  0  0  0  0  0  0  0
    7.7331   -0.2150    0.0000 H   0  0  0  0  0  0  0  0  0  0  0  0
   10.1191    5.4876    0.0000 H   0  0  0  0  0  0  0  0  0  0  0  0
    9.7206    4.7973    0.0000 H   0  0  0  0  0  0  0  0  0  0  0  0
    6.3301    2.2150    0.0000 H   0  0  0  0  0  0  0  0  0  0  0  0
    9.2531    3.9876    0.0000 H   0  0  0  0  0  0  0  0  0  0  0  0
    8.8546    3.2973    0.0000 H   0  0  0  0  0  0  0  0  0  0  0  0
    7.7331    3.0250    0.0000 H   0  0  0  0  0  0  0  0  0  0  0  0
    2.8660   -3.7850    0.0000 H   0  0  0  0  0  0  0  0  0  0  0  0
    5.6720   -3.7850    0.0000 H   0  0  0  0  0  0  0  0  0  0  0  0
    3.4030   -1.4750    0.0000 H   0  0  0  0  0  0  0  0  0  0  0  0
    5.6720   -5.4050    0.0000 H   0  0  0  0  0  0  0  0  0  0  0  0
   10.6603    6.7150    0.0000 H   0  0  0  0  0  0  0  0  0  0  0  0
   12.0632    4.2850    0.0000 H   0  0  0  0  0  0  0  0  0  0  0  0
   12.0632    7.5250    0.0000 H   0  0  0  0  0  0  0  0  0  0  0  0
   13.4662    5.0950    0.0000 H   0  0  0  0  0  0  0  0  0  0  0  0
   13.4662    6.7150    0.0000 H   0  0  0  0  0  0  0  0  0  0  0  0
    8.8451   -0.5950    0.0000 H   0  0  0  0  0  0  0  0  0  0  0  0
    9.4651   -1.2150    0.0000 H   0  0  0  0  0  0  0  0  0  0  0  0
   10.0851   -0.5950    0.0000 H   0  0  0  0  0  0  0  0  0  0  0  0
    2.0000   -5.2850    0.0000 H   0  0  0  0  0  0  0  0  0  0  0  0
    4.8059   -6.9050    0.0000 H   0  0  0  0  0  0  0  0  0  0  0  0
  1 17  1  0  0  0  0
  1 18  1  0  0  0  0
 10  2  1  6  0  0  0
  2 52  1  0  0  0  0
  3 19  1  0  0  0  0
  3 32  1  0  0  0  0
  4 24  1  0  0  0  0
  4 62  1  0  0  0  0
  5 26  1  0  0  0  0
  5 63  1  0  0  0  0
  6  7  1  0  0  0  0
  6  9  1  0  0  0  0
  6 40  1  0  0  0  0
  7  8  1  0  0  0  0
  7 33  1  0  0  0  0
  7 34  1  0  0  0  0
  8 11  1  0  0  0  0
  8 35  1  0  0  0  0
  8 36  1  0  0  0  0
  9 10  1  0  0  0  0
  9 37  1  0  0  0  0
  9 38  1  0  0  0  0
 10 12  1  0  0  0  0
 10 39  1  0  0  0  0
 11 14  2  0  0  0  0
 11 16  1  0  0  0  0
 12 21  2  0  0  0  0
 12 23  1  0  0  0  0
 13 15  1  0  0  0  0
 13 17  1  0  0  0  0
 13 41  1  0  0  0  0
 13 42  1  0  0  0  0
 14 19  1  0  0  0  0
 14 43  1  0  0  0  0
 15 22  1  0  0  0  0
 15 44  1  0  0  0  0
 15 45  1  0  0  0  0
 16 20  2  0  0  0  0
 16 46  1  0  0  0  0
 17 47  1  0  0  0  0
 17 48  1  0  0  0  0
 18 19  2  0  0  0  0
 18 20  1  0  0  0  0
 20 49  1  0  0  0  0
 21 24  1  0  0  0  0
 21 50  1  0  0  0  0
 22 27  2  0  0  0  0
 22 28  1  0  0  0  0
 23 25  2  0  0  0  0
 23 51  1  0  0  0  0
 24 26  2  0  0  0  0
 25 26  1  0  0  0  0
 25 53  1  0  0  0  0
 27 29  1  0  0  0  0
 27 54  1  0  0  0  0
 28 30  2  0  0  0  0
 28 55  1  0  0  0  0
 29 31  2  0  0  0  0
 29 56  1  0  0  0  0
 30 31  1  0  0  0  0
 30 57  1  0  0  0  0
 31 58  1  0  0  0  0
 32 59  1  0  0  0  0
 32 60  1  0  0  0  0
 32 61  1  0  0  0  0
M  END
> <PUBCHEM_COMPOUND_CID>
127046951

> <PUBCHEM_COMPOUND_CANONICALIZED>
1

> <PUBCHEM_CACTVS_COMPLEXITY>
501

> <PUBCHEM_CACTVS_HBOND_ACCEPTOR>
6

> <PUBCHEM_CACTVS_HBOND_DONOR>
4

> <PUBCHEM_CACTVS_ROTATABLE_BOND>
12

> <PUBCHEM_CACTVS_SUBSKEYS>
AAADceB6OAAAAAAAAAAAAAAAAAAAAAAAAAAwYMAAAAAAAAABUAAAHgAQCAAADBThmAYyBoLABgCAAiBCAAACCAAgIAAIiIAOiIgPNiKGsRuGeCOk0BGbuAfQ8LYOIAABAAAAQABAAAIAAACAAAAAAAAAAA==

> <PUBCHEM_IUPAC_OPENEYE_NAME>
4-[(1S)-1-hydroxy-2-[2-[3-methoxy-4-(3-phenylpropoxy)phenyl]ethylamino]ethyl]benzene-1,2-diol

> <PUBCHEM_IUPAC_CAS_NAME>
4-[(1S)-1-hydroxy-2-[2-[3-methoxy-4-(3-phenylpropoxy)phenyl]ethylamino]ethyl]benzene-1,2-diol

> <PUBCHEM_IUPAC_NAME_MARKUP>
4-[(1<I>S</I>)-1-hydroxy-2-[2-[3-methoxy-4-(3-phenylpropoxy)phenyl]ethylamino]ethyl]benzene-1,2-diol

> <PUBCHEM_IUPAC_NAME>
4-[(1S)-1-hydroxy-2-[2-[3-methoxy-4-(3-phenylpropoxy)phenyl]ethylamino]ethyl]benzene-1,2-diol

> <PUBCHEM_IUPAC_SYSTEMATIC_NAME>
4-[(1S)-2-[2-[3-methoxy-4-(3-phenylpropoxy)phenyl]ethylamino]-1-oxidanyl-ethyl]benzene-1,2-diol

> <PUBCHEM_IUPAC_TRADITIONAL_NAME>
4-[(1S)-1-hydroxy-2-[2-[3-methoxy-4-(3-phenylpropoxy)phenyl]ethylamino]ethyl]pyrocatechol

> <PUBCHEM_IUPAC_INCHI>
InChI=1S/C26H31NO5/c1-31-26-16-20(9-12-25(26)32-15-5-8-19-6-3-2-4-7-19)13-14-27-18-24(30)21-10-11-22(28)23(29)17-21/h2-4,6-7,9-12,16-17,24,27-30H,5,8,13-15,18H2,1H3/t24-/m1/s1

> <PUBCHEM_IUPAC_INCHIKEY>
PGSGTPNUOJTSEM-XMMPIXPASA-N

> <PUBCHEM_XLOGP3_AA>
4.1

> <PUBCHEM_EXACT_MASS>
437.22022309

> <PUBCHEM_MOLECULAR_FORMULA>
C26H31NO5

> <PUBCHEM_MOLECULAR_WEIGHT>
437.5

> <PUBCHEM_OPENEYE_CAN_SMILES>
COC1=C(C=CC(=C1)CCNCC(C2=CC(=C(C=C2)O)O)O)OCCCC3=CC=CC=C3

> <PUBCHEM_OPENEYE_ISO_SMILES>
COC1=C(C=CC(=C1)CCNC[C@H](C2=CC(=C(C=C2)O)O)O)OCCCC3=CC=CC=C3

> <PUBCHEM_CACTVS_TPSA>
91.2

> <PUBCHEM_MONOISOTOPIC_WEIGHT>
437.22022309

> <PUBCHEM_TOTAL_CHARGE>
0

> <PUBCHEM_HEAVY_ATOM_COUNT>
32

> <PUBCHEM_ATOM_DEF_STEREO_COUNT>
1

> <PUBCHEM_ATOM_UDEF_STEREO_COUNT>
0

> <PUBCHEM_BOND_DEF_STEREO_COUNT>
0

> <PUBCHEM_BOND_UDEF_STEREO_COUNT>
0

> <PUBCHEM_ISOTOPIC_ATOM_COUNT>
0

> <PUBCHEM_COMPONENT_COUNT>
1

> <PUBCHEM_CACTVS_TAUTO_COUNT>
-1

> <PUBCHEM_COORDINATE_TYPE>
1
5
255

> <PUBCHEM_BONDANNOTATIONS>
11  14  8
11  16  8
12  21  8
12  23  8
14  19  8
16  20  8
18  19  8
18  20  8
10  2  6
21  24  8
22  27  8
22  28  8
23  25  8
24  26  8
25  26  8
27  29  8
28  30  8
29  31  8
30  31  8

$$$$
