137660046
  -OEChem-09292322002D

 59 63  0     0  0  0  0  0  0999 V2000
    8.8271   -3.3478    0.0000 O   0  0  0  0  0  0  0  0  0  0  0  0
    5.3351    3.6176    0.0000 O   0  0  0  0  0  0  0  0  0  0  0  0
    7.0671   -6.3824    0.0000 O   0  0  0  0  0  0  0  0  0  0  0  0
   10.5973   -5.4066    0.0000 O   0  0  0  0  0  0  0  0  0  0  0  0
    7.0671   -0.3824    0.0000 N   0  0  0  0  0  0  0  0  0  0  0  0
    7.0671   -2.3824    0.0000 N   0  0  0  0  0  0  0  0  0  0  0  0
    8.8271   -5.4171    0.0000 N   0  0  0  0  0  0  0  0  0  0  0  0
    2.7370    5.1176    0.0000 N   0  0  0  0  0  0  0  0  0  0  0  0
    2.0000    5.7846    0.0000 N   0  0  0  0  0  0  0  0  0  0  0  0
    6.2011   -0.8824    0.0000 C   0  0  0  0  0  0  0  0  0  0  0  0
    7.9332   -0.8824    0.0000 C   0  0  0  0  0  0  0  0  0  0  0  0
    6.2011   -1.8824    0.0000 C   0  0  0  0  0  0  0  0  0  0  0  0
    7.9332   -1.8824    0.0000 C   0  0  0  0  0  0  0  0  0  0  0  0
    7.0671    0.6176    0.0000 C   0  0  0  0  0  0  0  0  0  0  0  0
    6.2011    1.1176    0.0000 C   0  0  0  0  0  0  0  0  0  0  0  0
    7.0671   -3.3824    0.0000 C   0  0  0  0  0  0  0  0  0  0  0  0
    6.2011    2.1176    0.0000 C   0  0  0  0  0  0  0  0  0  0  0  0
    7.9332   -3.8824    0.0000 C   0  0  0  0  0  0  0  0  0  0  0  0
    6.2011   -3.8824    0.0000 C   0  0  0  0  0  0  0  0  0  0  0  0
    7.9332   -4.8824    0.0000 C   0  0  0  0  0  0  0  0  0  0  0  0
    5.3351    2.6176    0.0000 C   0  0  0  0  0  0  0  0  0  0  0  0
    6.2011   -4.8824    0.0000 C   0  0  0  0  0  0  0  0  0  0  0  0
    7.0671   -5.3824    0.0000 C   0  0  0  0  0  0  0  0  0  0  0  0
    9.7332   -3.8616    0.0000 C   0  0  0  0  0  0  0  0  0  0  0  0
    9.7332   -4.9032    0.0000 C   0  0  0  0  0  0  0  0  0  0  0  0
    4.4691    4.1176    0.0000 C   0  0  0  0  0  0  0  0  0  0  0  0
    4.4691    5.1176    0.0000 C   0  0  0  0  0  0  0  0  0  0  0  0
    3.6030    3.6176    0.0000 C   0  0  0  0  0  0  0  0  0  0  0  0
    3.6030    5.6176    0.0000 C   0  0  0  0  0  0  0  0  0  0  0  0
    2.7370    4.1176    0.0000 C   0  0  0  0  0  0  0  0  0  0  0  0
    3.3938    6.5894    0.0000 C   0  0  0  0  0  0  0  0  0  0  0  0
    2.4051    6.6924    0.0000 C   0  0  0  0  0  0  0  0  0  0  0  0
    5.9891   -0.2998    0.0000 H   0  0  0  0  0  0  0  0  0  0  0  0
    5.5905   -0.9901    0.0000 H   0  0  0  0  0  0  0  0  0  0  0  0
    8.5438   -0.9901    0.0000 H   0  0  0  0  0  0  0  0  0  0  0  0
    8.1452   -0.2998    0.0000 H   0  0  0  0  0  0  0  0  0  0  0  0
    5.5905   -1.7748    0.0000 H   0  0  0  0  0  0  0  0  0  0  0  0
    5.9891   -2.4650    0.0000 H   0  0  0  0  0  0  0  0  0  0  0  0
    8.1452   -2.4650    0.0000 H   0  0  0  0  0  0  0  0  0  0  0  0
    8.5438   -1.7748    0.0000 H   0  0  0  0  0  0  0  0  0  0  0  0
    7.6777    0.5099    0.0000 H   0  0  0  0  0  0  0  0  0  0  0  0
    7.2792    1.2002    0.0000 H   0  0  0  0  0  0  0  0  0  0  0  0
    5.5905    1.2252    0.0000 H   0  0  0  0  0  0  0  0  0  0  0  0
    5.9891    0.5350    0.0000 H   0  0  0  0  0  0  0  0  0  0  0  0
    6.8117    2.0099    0.0000 H   0  0  0  0  0  0  0  0  0  0  0  0
    6.4132    2.7002    0.0000 H   0  0  0  0  0  0  0  0  0  0  0  0
    5.6642   -3.5724    0.0000 H   0  0  0  0  0  0  0  0  0  0  0  0
    4.7245    2.7252    0.0000 H   0  0  0  0  0  0  0  0  0  0  0  0
    5.1230    2.0350    0.0000 H   0  0  0  0  0  0  0  0  0  0  0  0
    5.6642   -5.1924    0.0000 H   0  0  0  0  0  0  0  0  0  0  0  0
    8.8199   -6.0371    0.0000 H   0  0  0  0  0  0  0  0  0  0  0  0
   10.3440   -3.9677    0.0000 H   0  0  0  0  0  0  0  0  0  0  0  0
    9.9422   -3.2779    0.0000 H   0  0  0  0  0  0  0  0  0  0  0  0
    6.5302   -6.6924    0.0000 H   0  0  0  0  0  0  0  0  0  0  0  0
    5.0060    5.4276    0.0000 H   0  0  0  0  0  0  0  0  0  0  0  0
    3.6030    2.9976    0.0000 H   0  0  0  0  0  0  0  0  0  0  0  0
    2.2001    3.8076    0.0000 H   0  0  0  0  0  0  0  0  0  0  0  0
    3.8079    7.0508    0.0000 H   0  0  0  0  0  0  0  0  0  0  0  0
    2.0951    7.2294    0.0000 H   0  0  0  0  0  0  0  0  0  0  0  0
  1 18  1  0  0  0  0
  1 24  1  0  0  0  0
  2 21  1  0  0  0  0
  2 26  1  0  0  0  0
  3 23  1  0  0  0  0
  3 54  1  0  0  0  0
  4 25  2  0  0  0  0
  5 10  1  0  0  0  0
  5 11  1  0  0  0  0
  5 14  1  0  0  0  0
  6 12  1  0  0  0  0
  6 13  1  0  0  0  0
  6 16  1  0  0  0  0
  7 20  1  0  0  0  0
  7 25  1  0  0  0  0
  7 51  1  0  0  0  0
  8  9  1  0  0  0  0
  8 29  1  0  0  0  0
  8 30  1  0  0  0  0
  9 32  2  0  0  0  0
 10 12  1  0  0  0  0
 10 33  1  0  0  0  0
 10 34  1  0  0  0  0
 11 13  1  0  0  0  0
 11 35  1  0  0  0  0
 11 36  1  0  0  0  0
 12 37  1  0  0  0  0
 12 38  1  0  0  0  0
 13 39  1  0  0  0  0
 13 40  1  0  0  0  0
 14 15  1  0  0  0  0
 14 41  1  0  0  0  0
 14 42  1  0  0  0  0
 15 17  1  0  0  0  0
 15 43  1  0  0  0  0
 15 44  1  0  0  0  0
 16 18  2  0  0  0  0
 16 19  1  0  0  0  0
 17 21  1  0  0  0  0
 17 45  1  0  0  0  0
 17 46  1  0  0  0  0
 18 20  1  0  0  0  0
 19 22  2  0  0  0  0
 19 47  1  0  0  0  0
 20 23  2  0  0  0  0
 21 48  1  0  0  0  0
 21 49  1  0  0  0  0
 22 23  1  0  0  0  0
 22 50  1  0  0  0  0
 24 25  1  0  0  0  0
 24 52  1  0  0  0  0
 24 53  1  0  0  0  0
 26 27  2  0  0  0  0
 26 28  1  0  0  0  0
 27 29  1  0  0  0  0
 27 55  1  0  0  0  0
 28 30  2  0  0  0  0
 28 56  1  0  0  0  0
 29 31  2  0  0  0  0
 30 57  1  0  0  0  0
 31 32  1  0  0  0  0
 31 58  1  0  0  0  0
 32 59  1  0  0  0  0
M  END
> <PUBCHEM_COMPOUND_CID>
137660046

> <PUBCHEM_COMPOUND_CANONICALIZED>
1

> <PUBCHEM_CACTVS_COMPLEXITY>
632

> <PUBCHEM_CACTVS_HBOND_ACCEPTOR>
7

> <PUBCHEM_CACTVS_HBOND_DONOR>
2

> <PUBCHEM_CACTVS_ROTATABLE_BOND>
7

> <PUBCHEM_CACTVS_SUBSKEYS>
AAADceB7uAAAAAAAAAAAAAAAAAAAAWAAAAA8WLEAAAAAAFix8AAAHgAYCAAACAzhlgY8xrPIFgCqATV3VAKSjCAxoiAY2CB/bJgOZ+LW8d+X/Cjn3B3Y+Aew8AwAAEAACAQAEAAAgAAQCAAgAAAAAAAAAA==

> <PUBCHEM_IUPAC_OPENEYE_NAME>
5-hydroxy-8-[4-(4-pyrazolo[1,5-a]pyridin-5-yloxybutyl)piperazin-1-yl]-4H-1,4-benzoxazin-3-one

> <PUBCHEM_IUPAC_CAS_NAME>
5-hydroxy-8-[4-[4-(5-pyrazolo[1,5-a]pyridinyloxy)butyl]-1-piperazinyl]-4H-1,4-benzoxazin-3-one

> <PUBCHEM_IUPAC_NAME_MARKUP>
5-hydroxy-8-[4-(4-pyrazolo[1,5-a]pyridin-5-yloxybutyl)piperazin-1-yl]-4<I>H</I>-1,4-benzoxazin-3-one

> <PUBCHEM_IUPAC_NAME>
5-hydroxy-8-[4-(4-pyrazolo[1,5-a]pyridin-5-yloxybutyl)piperazin-1-yl]-4H-1,4-benzoxazin-3-one

> <PUBCHEM_IUPAC_SYSTEMATIC_NAME>
5-oxidanyl-8-[4-(4-pyrazolo[1,5-a]pyridin-5-yloxybutyl)piperazin-1-yl]-4H-1,4-benzoxazin-3-one

> <PUBCHEM_IUPAC_TRADITIONAL_NAME>
5-hydroxy-8-[4-(4-pyrazolo[1,5-a]pyridin-5-yloxybutyl)piperazino]-4H-1,4-benzoxazin-3-one

> <PUBCHEM_IUPAC_INCHI>
InChI=1S/C23H27N5O4/c29-20-4-3-19(23-22(20)25-21(30)16-32-23)27-12-10-26(11-13-27)8-1-2-14-31-18-6-9-28-17(15-18)5-7-24-28/h3-7,9,15,29H,1-2,8,10-14,16H2,(H,25,30)

> <PUBCHEM_IUPAC_INCHIKEY>
NQUFJLNBHRSFTR-UHFFFAOYSA-N

> <PUBCHEM_XLOGP3_AA>
2

> <PUBCHEM_EXACT_MASS>
437.20630436

> <PUBCHEM_MOLECULAR_FORMULA>
C23H27N5O4

> <PUBCHEM_MOLECULAR_WEIGHT>
437.5

> <PUBCHEM_OPENEYE_CAN_SMILES>
C1CN(CCN1CCCCOC2=CC3=CC=NN3C=C2)C4=C5C(=C(C=C4)O)NC(=O)CO5

> <PUBCHEM_OPENEYE_ISO_SMILES>
C1CN(CCN1CCCCOC2=CC3=CC=NN3C=C2)C4=C5C(=C(C=C4)O)NC(=O)CO5

> <PUBCHEM_CACTVS_TPSA>
91.6

> <PUBCHEM_MONOISOTOPIC_WEIGHT>
437.20630436

> <PUBCHEM_TOTAL_CHARGE>
0

> <PUBCHEM_HEAVY_ATOM_COUNT>
32

> <PUBCHEM_ATOM_DEF_STEREO_COUNT>
0

> <PUBCHEM_ATOM_UDEF_STEREO_COUNT>
0

> <PUBCHEM_BOND_DEF_STEREO_COUNT>
0

> <PUBCHEM_BOND_UDEF_STEREO_COUNT>
0

> <PUBCHEM_ISOTOPIC_ATOM_COUNT>
0

> <PUBCHEM_COMPONENT_COUNT>
1

> <PUBCHEM_CACTVS_TAUTO_COUNT>
-1

> <PUBCHEM_COORDINATE_TYPE>
1
5
255

> <PUBCHEM_BONDANNOTATIONS>
16  18  8
16  19  8
18  20  8
19  22  8
20  23  8
22  23  8
26  27  8
26  28  8
27  29  8
28  30  8
29  31  8
31  32  8
8  29  8
8  30  8
8  9  8
9  32  8

$$$$
