46225337
  -OEChem-09292322482D

 47 50  0     0  0  0  0  0  0999 V2000
    8.8958   -3.9757    0.0000 F   0  0  0  0  0  0  0  0  0  0  0  0
   10.2619   -4.3417    0.0000 F   0  0  0  0  0  0  0  0  0  0  0  0
   10.6279   -2.9757    0.0000 F   0  0  0  0  0  0  0  0  0  0  0  0
    6.7619    1.7204    0.0000 N   0  0  0  0  0  0  0  0  0  0  0  0
    7.7619   -0.0116    0.0000 N   0  0  0  0  0  0  0  0  0  0  0  0
    4.6783    3.3912    0.0000 N   0  0  0  0  0  0  0  0  0  0  0  0
    4.6783    1.7817    0.0000 N   0  0  0  0  0  0  0  0  0  0  0  0
    9.2619   -0.8776    0.0000 N   0  0  0  0  0  0  0  0  0  0  0  0
    7.7619    1.7204    0.0000 C   0  0  0  0  0  0  0  0  0  0  0  0
    6.2619    0.8544    0.0000 C   0  0  0  0  0  0  0  0  0  0  0  0
    8.2619    0.8544    0.0000 C   0  0  0  0  0  0  0  0  0  0  0  0
    6.7619   -0.0116    0.0000 C   0  0  0  0  0  0  0  0  0  0  0  0
    6.2619    2.5865    0.0000 C   0  0  0  0  0  0  0  0  0  0  0  0
    5.2619    2.5865    0.0000 C   0  0  0  0  0  0  0  0  0  0  0  0
    8.2619   -0.8776    0.0000 C   0  0  0  0  0  0  0  0  0  0  0  0
    3.7320    3.0865    0.0000 C   0  0  0  0  0  0  0  0  0  0  0  0
    3.7320    2.0865    0.0000 C   0  0  0  0  0  0  0  0  0  0  0  0
    7.7619   -1.7436    0.0000 C   0  0  0  0  0  0  0  0  0  0  0  0
    4.9889    4.3417    0.0000 C   0  0  0  0  0  0  0  0  0  0  0  0
    2.8660    3.5865    0.0000 C   0  0  0  0  0  0  0  0  0  0  0  0
    2.8660    1.5865    0.0000 C   0  0  0  0  0  0  0  0  0  0  0  0
    8.2619   -2.6097    0.0000 C   0  0  0  0  0  0  0  0  0  0  0  0
    9.2619   -2.6097    0.0000 C   0  0  0  0  0  0  0  0  0  0  0  0
    9.7619   -1.7436    0.0000 C   0  0  0  0  0  0  0  0  0  0  0  0
    2.0000    3.0865    0.0000 C   0  0  0  0  0  0  0  0  0  0  0  0
    2.0000    2.0865    0.0000 C   0  0  0  0  0  0  0  0  0  0  0  0
    9.7619   -3.4757    0.0000 C   0  0  0  0  0  0  0  0  0  0  0  0
    8.3445    1.9325    0.0000 H   0  0  0  0  0  0  0  0  0  0  0  0
    7.6542    2.3310    0.0000 H   0  0  0  0  0  0  0  0  0  0  0  0
    5.7869    1.2530    0.0000 H   0  0  0  0  0  0  0  0  0  0  0  0
    5.7869    0.4559    0.0000 H   0  0  0  0  0  0  0  0  0  0  0  0
    8.7368    0.4559    0.0000 H   0  0  0  0  0  0  0  0  0  0  0  0
    8.7368    1.2530    0.0000 H   0  0  0  0  0  0  0  0  0  0  0  0
    6.1793   -0.2237    0.0000 H   0  0  0  0  0  0  0  0  0  0  0  0
    6.8695   -0.6222    0.0000 H   0  0  0  0  0  0  0  0  0  0  0  0
    6.8445    2.7985    0.0000 H   0  0  0  0  0  0  0  0  0  0  0  0
    6.1542    3.1971    0.0000 H   0  0  0  0  0  0  0  0  0  0  0  0
    7.1419   -1.7436    0.0000 H   0  0  0  0  0  0  0  0  0  0  0  0
    5.5783    4.1491    0.0000 H   0  0  0  0  0  0  0  0  0  0  0  0
    5.1815    4.9310    0.0000 H   0  0  0  0  0  0  0  0  0  0  0  0
    4.3996    4.5343    0.0000 H   0  0  0  0  0  0  0  0  0  0  0  0
    2.8660    4.2065    0.0000 H   0  0  0  0  0  0  0  0  0  0  0  0
    2.8660    0.9665    0.0000 H   0  0  0  0  0  0  0  0  0  0  0  0
    7.9519   -3.1466    0.0000 H   0  0  0  0  0  0  0  0  0  0  0  0
   10.3819   -1.7436    0.0000 H   0  0  0  0  0  0  0  0  0  0  0  0
    1.4631    3.3965    0.0000 H   0  0  0  0  0  0  0  0  0  0  0  0
    1.4631    1.7765    0.0000 H   0  0  0  0  0  0  0  0  0  0  0  0
  1 27  1  0  0  0  0
  2 27  1  0  0  0  0
  3 27  1  0  0  0  0
  4  9  1  0  0  0  0
  4 10  1  0  0  0  0
  4 13  1  0  0  0  0
  5 11  1  0  0  0  0
  5 12  1  0  0  0  0
  5 15  1  0  0  0  0
  6 14  1  0  0  0  0
  6 16  1  0  0  0  0
  6 19  1  0  0  0  0
  7 14  2  0  0  0  0
  7 17  1  0  0  0  0
  8 15  2  0  0  0  0
  8 24  1  0  0  0  0
  9 11  1  0  0  0  0
  9 28  1  0  0  0  0
  9 29  1  0  0  0  0
 10 12  1  0  0  0  0
 10 30  1  0  0  0  0
 10 31  1  0  0  0  0
 11 32  1  0  0  0  0
 11 33  1  0  0  0  0
 12 34  1  0  0  0  0
 12 35  1  0  0  0  0
 13 14  1  0  0  0  0
 13 36  1  0  0  0  0
 13 37  1  0  0  0  0
 15 18  1  0  0  0  0
 16 17  1  0  0  0  0
 16 20  2  0  0  0  0
 17 21  2  0  0  0  0
 18 22  2  0  0  0  0
 18 38  1  0  0  0  0
 19 39  1  0  0  0  0
 19 40  1  0  0  0  0
 19 41  1  0  0  0  0
 20 25  1  0  0  0  0
 20 42  1  0  0  0  0
 21 26  1  0  0  0  0
 21 43  1  0  0  0  0
 22 23  1  0  0  0  0
 22 44  1  0  0  0  0
 23 24  2  0  0  0  0
 23 27  1  0  0  0  0
 24 45  1  0  0  0  0
 25 26  2  0  0  0  0
 25 46  1  0  0  0  0
 26 47  1  0  0  0  0
M  END
> <PUBCHEM_COMPOUND_CID>
46225337

> <PUBCHEM_COMPOUND_CANONICALIZED>
1

> <PUBCHEM_CACTVS_COMPLEXITY>
494

> <PUBCHEM_CACTVS_HBOND_ACCEPTOR>
7

> <PUBCHEM_CACTVS_HBOND_DONOR>
0

> <PUBCHEM_CACTVS_ROTATABLE_BOND>
3

> <PUBCHEM_CACTVS_SUBSKEYS>
AAADceB7gYAAAAAAAAAAAAAAAAAAAWAAAAA8WIAAAAAAAFgB/AAAHQAAAAAADAjBHxQ/8LcMEACgAzZnZACCgC0xEqAJ2CA4dJiIaOLAmZGUIAhogALIyCcQAAAMAAAAAAAAACAAAAAAAAAAQAAAAAAAAA==

> <PUBCHEM_IUPAC_OPENEYE_NAME>
1-methyl-2-[[4-[5-(trifluoromethyl)-2-pyridyl]piperazin-1-yl]methyl]benzimidazole

> <PUBCHEM_IUPAC_CAS_NAME>
1-methyl-2-[[4-[5-(trifluoromethyl)-2-pyridinyl]-1-piperazinyl]methyl]benzimidazole

> <PUBCHEM_IUPAC_NAME_MARKUP>
1-methyl-2-[[4-[5-(trifluoromethyl)pyridin-2-yl]piperazin-1-yl]methyl]benzimidazole

> <PUBCHEM_IUPAC_NAME>
1-methyl-2-[[4-[5-(trifluoromethyl)pyridin-2-yl]piperazin-1-yl]methyl]benzimidazole

> <PUBCHEM_IUPAC_SYSTEMATIC_NAME>
1-methyl-2-[[4-[5-(trifluoromethyl)pyridin-2-yl]piperazin-1-yl]methyl]benzimidazole

> <PUBCHEM_IUPAC_TRADITIONAL_NAME>
1-methyl-2-[[4-[5-(trifluoromethyl)-2-pyridyl]piperazino]methyl]benzimidazole

> <PUBCHEM_IUPAC_INCHI>
InChI=1S/C19H20F3N5/c1-25-16-5-3-2-4-15(16)24-18(25)13-26-8-10-27(11-9-26)17-7-6-14(12-23-17)19(20,21)22/h2-7,12H,8-11,13H2,1H3

> <PUBCHEM_IUPAC_INCHIKEY>
OBGKLELCXBROAY-UHFFFAOYSA-N

> <PUBCHEM_XLOGP3_AA>
3.1

> <PUBCHEM_EXACT_MASS>
375.16708015

> <PUBCHEM_MOLECULAR_FORMULA>
C19H20F3N5

> <PUBCHEM_MOLECULAR_WEIGHT>
375.4

> <PUBCHEM_OPENEYE_CAN_SMILES>
CN1C2=CC=CC=C2N=C1CN3CCN(CC3)C4=NC=C(C=C4)C(F)(F)F

> <PUBCHEM_OPENEYE_ISO_SMILES>
CN1C2=CC=CC=C2N=C1CN3CCN(CC3)C4=NC=C(C=C4)C(F)(F)F

> <PUBCHEM_CACTVS_TPSA>
37.2

> <PUBCHEM_MONOISOTOPIC_WEIGHT>
375.16708015

> <PUBCHEM_TOTAL_CHARGE>
0

> <PUBCHEM_HEAVY_ATOM_COUNT>
27

> <PUBCHEM_ATOM_DEF_STEREO_COUNT>
0

> <PUBCHEM_ATOM_UDEF_STEREO_COUNT>
0

> <PUBCHEM_BOND_DEF_STEREO_COUNT>
0

> <PUBCHEM_BOND_UDEF_STEREO_COUNT>
0

> <PUBCHEM_ISOTOPIC_ATOM_COUNT>
0

> <PUBCHEM_COMPONENT_COUNT>
1

> <PUBCHEM_CACTVS_TAUTO_COUNT>
-1

> <PUBCHEM_COORDINATE_TYPE>
1
5
255

> <PUBCHEM_BONDANNOTATIONS>
15  18  8
16  17  8
16  20  8
17  21  8
18  22  8
20  25  8
21  26  8
22  23  8
23  24  8
25  26  8
6  14  8
6  16  8
7  14  8
7  17  8
8  15  8
8  24  8

$$$$
