49782792
  -OEChem-09292322312D

 54 57  0     1  0  0  0  0  0999 V2000
    8.2632   -2.7541    0.0000 S   0  0  0  0  0  0  0  0  0  0  0  0
    2.5169   -0.8302    0.0000 O   0  0  0  0  0  0  0  0  0  0  0  0
    7.3293    0.3375    0.0000 N   0  0  0  0  0  0  0  0  0  0  0  0
    6.4616    2.1394    0.0000 N   0  0  0  0  0  0  0  0  0  0  0  0
    3.6901   -2.1044    0.0000 N   0  0  0  0  0  0  0  0  0  0  0  0
    7.7632   -0.5635    0.0000 C   0  0  1  0  0  0  0  0  0  0  0  0
    6.3321    0.4122    0.0000 C   0  0  0  0  0  0  0  0  0  0  0  0
    7.8927    1.1637    0.0000 C   0  0  0  0  0  0  0  0  0  0  0  0
    5.8982    1.3132    0.0000 C   0  0  0  0  0  0  0  0  0  0  0  0
    7.4588    2.0647    0.0000 C   0  0  0  0  0  0  0  0  0  0  0  0
    8.7632   -0.5635    0.0000 C   0  0  0  0  0  0  0  0  0  0  0  0
    7.1397   -1.3453    0.0000 C   0  0  0  0  0  0  0  0  0  0  0  0
    9.3867   -1.3453    0.0000 C   0  0  0  0  0  0  0  0  0  0  0  0
    7.3622   -2.3202    0.0000 C   0  0  0  0  0  0  0  0  0  0  0  0
    6.1492   -1.0230    0.0000 C   0  0  0  0  0  0  0  0  0  0  0  0
    6.0277    3.0404    0.0000 C   0  0  0  0  0  0  0  0  0  0  0  0
    9.1642   -2.3202    0.0000 C   0  0  0  0  0  0  0  0  0  0  0  0
    5.3802   -1.7255    0.0000 C   0  0  0  0  0  0  0  0  0  0  0  0
    6.6097   -3.0404    0.0000 C   0  0  0  0  0  0  0  0  0  0  0  0
   10.3772   -1.0230    0.0000 C   0  0  0  0  0  0  0  0  0  0  0  0
    5.6120   -2.7410    0.0000 C   0  0  0  0  0  0  0  0  0  0  0  0
    9.9167   -3.0404    0.0000 C   0  0  0  0  0  0  0  0  0  0  0  0
    4.4258   -1.4271    0.0000 C   0  0  0  0  0  0  0  0  0  0  0  0
   11.1462   -1.7256    0.0000 C   0  0  0  0  0  0  0  0  0  0  0  0
   10.9144   -2.7411    0.0000 C   0  0  0  0  0  0  0  0  0  0  0  0
    2.7357   -1.8060    0.0000 C   0  0  0  0  0  0  0  0  0  0  0  0
    2.0000   -2.4833    0.0000 C   0  0  0  0  0  0  0  0  0  0  0  0
    8.0931   -0.0385    0.0000 H   0  0  0  0  0  0  0  0  0  0  0  0
    5.7353    0.2443    0.0000 H   0  0  0  0  0  0  0  0  0  0  0  0
    6.3939   -0.2047    0.0000 H   0  0  0  0  0  0  0  0  0  0  0  0
    8.3365    0.7308    0.0000 H   0  0  0  0  0  0  0  0  0  0  0  0
    8.3961    1.5257    0.0000 H   0  0  0  0  0  0  0  0  0  0  0  0
    5.4544    1.7461    0.0000 H   0  0  0  0  0  0  0  0  0  0  0  0
    5.3948    0.9513    0.0000 H   0  0  0  0  0  0  0  0  0  0  0  0
    8.0556    2.2326    0.0000 H   0  0  0  0  0  0  0  0  0  0  0  0
    7.3971    2.6816    0.0000 H   0  0  0  0  0  0  0  0  0  0  0  0
    9.3218   -0.2945    0.0000 H   0  0  0  0  0  0  0  0  0  0  0  0
    8.6252    0.0410    0.0000 H   0  0  0  0  0  0  0  0  0  0  0  0
    6.0182   -0.4169    0.0000 H   0  0  0  0  0  0  0  0  0  0  0  0
    6.5863    3.3094    0.0000 H   0  0  0  0  0  0  0  0  0  0  0  0
    5.7587    3.5990    0.0000 H   0  0  0  0  0  0  0  0  0  0  0  0
    5.4691    2.7714    0.0000 H   0  0  0  0  0  0  0  0  0  0  0  0
    6.7546   -3.6432    0.0000 H   0  0  0  0  0  0  0  0  0  0  0  0
   10.5082   -0.4170    0.0000 H   0  0  0  0  0  0  0  0  0  0  0  0
    5.1591   -3.1645    0.0000 H   0  0  0  0  0  0  0  0  0  0  0  0
    9.7718   -3.6432    0.0000 H   0  0  0  0  0  0  0  0  0  0  0  0
    4.7108   -0.8765    0.0000 H   0  0  0  0  0  0  0  0  0  0  0  0
    3.9330   -1.0508    0.0000 H   0  0  0  0  0  0  0  0  0  0  0  0
   11.7379   -1.5405    0.0000 H   0  0  0  0  0  0  0  0  0  0  0  0
   11.3673   -3.1645    0.0000 H   0  0  0  0  0  0  0  0  0  0  0  0
    3.8257   -2.7094    0.0000 H   0  0  0  0  0  0  0  0  0  0  0  0
    1.5800   -2.0272    0.0000 H   0  0  0  0  0  0  0  0  0  0  0  0
    1.5439   -2.9033    0.0000 H   0  0  0  0  0  0  0  0  0  0  0  0
    2.4200   -2.9394    0.0000 H   0  0  0  0  0  0  0  0  0  0  0  0
  1 14  1  0  0  0  0
  1 17  1  0  0  0  0
  2 26  2  0  0  0  0
  6  3  1  1  0  0  0
  3  7  1  0  0  0  0
  3  8  1  0  0  0  0
  4  9  1  0  0  0  0
  4 10  1  0  0  0  0
  4 16  1  0  0  0  0
  5 23  1  0  0  0  0
  5 26  1  0  0  0  0
  5 51  1  0  0  0  0
  6 11  1  0  0  0  0
  6 12  1  0  0  0  0
  6 28  1  0  0  0  0
  7  9  1  0  0  0  0
  7 29  1  0  0  0  0
  7 30  1  0  0  0  0
  8 10  1  0  0  0  0
  8 31  1  0  0  0  0
  8 32  1  0  0  0  0
  9 33  1  0  0  0  0
  9 34  1  0  0  0  0
 10 35  1  0  0  0  0
 10 36  1  0  0  0  0
 11 13  1  0  0  0  0
 11 37  1  0  0  0  0
 11 38  1  0  0  0  0
 12 14  2  0  0  0  0
 12 15  1  0  0  0  0
 13 17  1  0  0  0  0
 13 20  2  0  0  0  0
 14 19  1  0  0  0  0
 15 18  2  0  0  0  0
 15 39  1  0  0  0  0
 16 40  1  0  0  0  0
 16 41  1  0  0  0  0
 16 42  1  0  0  0  0
 17 22  2  0  0  0  0
 18 21  1  0  0  0  0
 18 23  1  0  0  0  0
 19 21  2  0  0  0  0
 19 43  1  0  0  0  0
 20 24  1  0  0  0  0
 20 44  1  0  0  0  0
 21 45  1  0  0  0  0
 22 25  1  0  0  0  0
 22 46  1  0  0  0  0
 23 47  1  0  0  0  0
 23 48  1  0  0  0  0
 24 25  2  0  0  0  0
 24 49  1  0  0  0  0
 25 50  1  0  0  0  0
 26 27  1  0  0  0  0
 27 52  1  0  0  0  0
 27 53  1  0  0  0  0
 27 54  1  0  0  0  0
M  END
> <PUBCHEM_COMPOUND_CID>
49782792

> <PUBCHEM_COMPOUND_CANONICALIZED>
1

> <PUBCHEM_CACTVS_COMPLEXITY>
508

> <PUBCHEM_CACTVS_HBOND_ACCEPTOR>
4

> <PUBCHEM_CACTVS_HBOND_DONOR>
1

> <PUBCHEM_CACTVS_ROTATABLE_BOND>
3

> <PUBCHEM_CACTVS_SUBSKEYS>
AAADceB7IABAAAAAAAAAAAAAAAAAAAAAAAA8YIAABIAAAAABQAAAHgQQAAAADCjB2AQyAYPAAAiIAiFSEACCAAAgCBAIiJgIBIgIYCKgkRGUIAhglgCoiAcQgMAOEAACAAAEAAAgAAQAAAgAAAAAAAAAAA==

> <PUBCHEM_IUPAC_OPENEYE_NAME>
N-[[(5S)-5-(4-methylpiperazin-1-yl)-5,6-dihydrobenzo[b][1]benzothiepin-3-yl]methyl]acetamide

> <PUBCHEM_IUPAC_CAS_NAME>
N-[[(5S)-5-(4-methyl-1-piperazinyl)-5,6-dihydrobenzo[b][1]benzothiepin-3-yl]methyl]acetamide

> <PUBCHEM_IUPAC_NAME_MARKUP>
<I>N</I>-[[(5<I>S</I>)-5-(4-methylpiperazin-1-yl)-5,6-dihydrobenzo[b][1]benzothiepin-3-yl]methyl]acetamide

> <PUBCHEM_IUPAC_NAME>
N-[[(5S)-5-(4-methylpiperazin-1-yl)-5,6-dihydrobenzo[b][1]benzothiepin-3-yl]methyl]acetamide

> <PUBCHEM_IUPAC_SYSTEMATIC_NAME>
N-[[(5S)-5-(4-methylpiperazin-1-yl)-5,6-dihydrobenzo[b][1]benzothiepin-3-yl]methyl]ethanamide

> <PUBCHEM_IUPAC_TRADITIONAL_NAME>
N-[[(5S)-5-(4-methylpiperazino)-5,6-dihydrobenzo[b][1]benzothiepin-3-yl]methyl]acetamide

> <PUBCHEM_IUPAC_INCHI>
InChI=1S/C22H27N3OS/c1-16(26)23-15-17-7-8-22-19(13-17)20(25-11-9-24(2)10-12-25)14-18-5-3-4-6-21(18)27-22/h3-8,13,20H,9-12,14-15H2,1-2H3,(H,23,26)/t20-/m0/s1

> <PUBCHEM_IUPAC_INCHIKEY>
YBCFDDCJLZVHPZ-FQEVSTJZSA-N

> <PUBCHEM_XLOGP3_AA>
2.8

> <PUBCHEM_EXACT_MASS>
381.18748367

> <PUBCHEM_MOLECULAR_FORMULA>
C22H27N3OS

> <PUBCHEM_MOLECULAR_WEIGHT>
381.5

> <PUBCHEM_OPENEYE_CAN_SMILES>
CC(=O)NCC1=CC2=C(C=C1)SC3=CC=CC=C3CC2N4CCN(CC4)C

> <PUBCHEM_OPENEYE_ISO_SMILES>
CC(=O)NCC1=CC2=C(C=C1)SC3=CC=CC=C3C[C@@H]2N4CCN(CC4)C

> <PUBCHEM_CACTVS_TPSA>
60.9

> <PUBCHEM_MONOISOTOPIC_WEIGHT>
381.18748367

> <PUBCHEM_TOTAL_CHARGE>
0

> <PUBCHEM_HEAVY_ATOM_COUNT>
27

> <PUBCHEM_ATOM_DEF_STEREO_COUNT>
1

> <PUBCHEM_ATOM_UDEF_STEREO_COUNT>
0

> <PUBCHEM_BOND_DEF_STEREO_COUNT>
0

> <PUBCHEM_BOND_UDEF_STEREO_COUNT>
0

> <PUBCHEM_ISOTOPIC_ATOM_COUNT>
0

> <PUBCHEM_COMPONENT_COUNT>
1

> <PUBCHEM_CACTVS_TAUTO_COUNT>
-1

> <PUBCHEM_COORDINATE_TYPE>
1
5
255

> <PUBCHEM_BONDANNOTATIONS>
12  14  8
12  15  8
13  17  8
13  20  8
14  19  8
15  18  8
17  22  8
18  21  8
19  21  8
20  24  8
22  25  8
24  25  8
6  3  5

$$$$
