11141325
  -OEChem-09292322112D

 48 51  0     0  0  0  0  0  0999 V2000
    2.9180    1.9654    0.0000 O   0  0  0  0  0  0  0  0  0  0  0  0
    3.7841   -0.5346    0.0000 N   0  0  0  0  0  0  0  0  0  0  0  0
    3.7841    1.4654    0.0000 C   0  0  0  0  0  0  0  0  0  0  0  0
    4.6501    0.9654    0.0000 C   0  0  0  0  0  0  0  0  0  0  0  0
    2.9180    0.9654    0.0000 C   0  0  0  0  0  0  0  0  0  0  0  0
    4.6501    1.9654    0.0000 C   0  0  0  0  0  0  0  0  0  0  0  0
    4.6501   -0.0346    0.0000 C   0  0  0  0  0  0  0  0  0  0  0  0
    2.9180   -0.0346    0.0000 C   0  0  0  0  0  0  0  0  0  0  0  0
    4.6501    2.9654    0.0000 C   0  0  0  0  0  0  0  0  0  0  0  0
    3.7841   -1.5346    0.0000 C   0  0  0  0  0  0  0  0  0  0  0  0
    3.7841    3.4654    0.0000 C   0  0  0  0  0  0  0  0  0  0  0  0
    2.9180    2.9654    0.0000 C   0  0  0  0  0  0  0  0  0  0  0  0
    4.6501   -2.0346    0.0000 C   0  0  0  0  0  0  0  0  0  0  0  0
    3.8001    4.5069    0.0000 C   0  0  0  0  0  0  0  0  0  0  0  0
    2.0080    3.4722    0.0000 C   0  0  0  0  0  0  0  0  0  0  0  0
    4.6501   -3.0346    0.0000 C   0  0  0  0  0  0  0  0  0  0  0  0
    2.9021    5.0346    0.0000 C   0  0  0  0  0  0  0  0  0  0  0  0
    2.0000    4.5138    0.0000 C   0  0  0  0  0  0  0  0  0  0  0  0
    5.5161   -3.5346    0.0000 C   0  0  0  0  0  0  0  0  0  0  0  0
    3.7841   -3.5346    0.0000 C   0  0  0  0  0  0  0  0  0  0  0  0
    5.5161   -4.5346    0.0000 C   0  0  0  0  0  0  0  0  0  0  0  0
    3.7841   -4.5346    0.0000 C   0  0  0  0  0  0  0  0  0  0  0  0
    4.6501   -5.0346    0.0000 C   0  0  0  0  0  0  0  0  0  0  0  0
    5.2607    0.8577    0.0000 H   0  0  0  0  0  0  0  0  0  0  0  0
    4.8621    1.5480    0.0000 H   0  0  0  0  0  0  0  0  0  0  0  0
    2.7060    1.5480    0.0000 H   0  0  0  0  0  0  0  0  0  0  0  0
    2.3074    0.8577    0.0000 H   0  0  0  0  0  0  0  0  0  0  0  0
    4.8621    1.3828    0.0000 H   0  0  0  0  0  0  0  0  0  0  0  0
    5.2607    2.0730    0.0000 H   0  0  0  0  0  0  0  0  0  0  0  0
    4.8621   -0.6172    0.0000 H   0  0  0  0  0  0  0  0  0  0  0  0
    5.2607    0.0730    0.0000 H   0  0  0  0  0  0  0  0  0  0  0  0
    2.3074    0.0730    0.0000 H   0  0  0  0  0  0  0  0  0  0  0  0
    2.7060   -0.6172    0.0000 H   0  0  0  0  0  0  0  0  0  0  0  0
    5.2607    2.8577    0.0000 H   0  0  0  0  0  0  0  0  0  0  0  0
    4.8621    3.5480    0.0000 H   0  0  0  0  0  0  0  0  0  0  0  0
    3.1735   -1.4270    0.0000 H   0  0  0  0  0  0  0  0  0  0  0  0
    3.5720   -2.1172    0.0000 H   0  0  0  0  0  0  0  0  0  0  0  0
    5.2607   -2.1423    0.0000 H   0  0  0  0  0  0  0  0  0  0  0  0
    4.8621   -1.4520    0.0000 H   0  0  0  0  0  0  0  0  0  0  0  0
    4.3406    4.8106    0.0000 H   0  0  0  0  0  0  0  0  0  0  0  0
    1.4747    3.1560    0.0000 H   0  0  0  0  0  0  0  0  0  0  0  0
    2.9045    5.6546    0.0000 H   0  0  0  0  0  0  0  0  0  0  0  0
    1.4619    4.8217    0.0000 H   0  0  0  0  0  0  0  0  0  0  0  0
    6.0530   -3.2246    0.0000 H   0  0  0  0  0  0  0  0  0  0  0  0
    3.2471   -3.2246    0.0000 H   0  0  0  0  0  0  0  0  0  0  0  0
    6.0530   -4.8446    0.0000 H   0  0  0  0  0  0  0  0  0  0  0  0
    3.2471   -4.8446    0.0000 H   0  0  0  0  0  0  0  0  0  0  0  0
    4.6501   -5.6546    0.0000 H   0  0  0  0  0  0  0  0  0  0  0  0
  1  3  1  0  0  0  0
  1 12  1  0  0  0  0
  2  7  1  0  0  0  0
  2  8  1  0  0  0  0
  2 10  1  0  0  0  0
  3  4  1  0  0  0  0
  3  5  1  0  0  0  0
  3  6  1  0  0  0  0
  4  7  1  0  0  0  0
  4 24  1  0  0  0  0
  4 25  1  0  0  0  0
  5  8  1  0  0  0  0
  5 26  1  0  0  0  0
  5 27  1  0  0  0  0
  6  9  1  0  0  0  0
  6 28  1  0  0  0  0
  6 29  1  0  0  0  0
  7 30  1  0  0  0  0
  7 31  1  0  0  0  0
  8 32  1  0  0  0  0
  8 33  1  0  0  0  0
  9 11  1  0  0  0  0
  9 34  1  0  0  0  0
  9 35  1  0  0  0  0
 10 13  1  0  0  0  0
 10 36  1  0  0  0  0
 10 37  1  0  0  0  0
 11 12  1  0  0  0  0
 11 14  2  0  0  0  0
 12 15  2  0  0  0  0
 13 16  1  0  0  0  0
 13 38  1  0  0  0  0
 13 39  1  0  0  0  0
 14 17  1  0  0  0  0
 14 40  1  0  0  0  0
 15 18  1  0  0  0  0
 15 41  1  0  0  0  0
 16 19  2  0  0  0  0
 16 20  1  0  0  0  0
 17 18  2  0  0  0  0
 17 42  1  0  0  0  0
 18 43  1  0  0  0  0
 19 21  1  0  0  0  0
 19 44  1  0  0  0  0
 20 22  2  0  0  0  0
 20 45  1  0  0  0  0
 21 23  2  0  0  0  0
 21 46  1  0  0  0  0
 22 23  1  0  0  0  0
 22 47  1  0  0  0  0
 23 48  1  0  0  0  0
M  END
> <PUBCHEM_COMPOUND_CID>
11141325

> <PUBCHEM_COMPOUND_CANONICALIZED>
1

> <PUBCHEM_CACTVS_COMPLEXITY>
368

> <PUBCHEM_CACTVS_HBOND_ACCEPTOR>
2

> <PUBCHEM_CACTVS_HBOND_DONOR>
0

> <PUBCHEM_CACTVS_ROTATABLE_BOND>
3

> <PUBCHEM_CACTVS_SUBSKEYS>
AAADceB6IAAAAAAAAAAAAAAAAAAAAAAAAAA8aIEAAAAAAACRQAAAHgAAAAAADETBmAQwBoMABACAAiBCAAACCAAgIAAIiAAOCIgMJiKEsRuGOCCmwBGIqAeQwPAOAAAAAAAIAAAAAAAAABAAAAAAAAAAAA==

> <PUBCHEM_IUPAC_OPENEYE_NAME>
1'-(2-phenylethyl)spiro[chromane-2,4'-piperidine]

> <PUBCHEM_IUPAC_CAS_NAME>
1'-(2-phenylethyl)spiro[3,4-dihydro-2H-1-benzopyran-2,4'-piperidine]

> <PUBCHEM_IUPAC_NAME_MARKUP>
1&apos;-(2-phenylethyl)spiro[3,4-dihydrochromene-2,4&apos;-piperidine]

> <PUBCHEM_IUPAC_NAME>
1'-(2-phenylethyl)spiro[3,4-dihydrochromene-2,4'-piperidine]

> <PUBCHEM_IUPAC_SYSTEMATIC_NAME>
1'-(2-phenylethyl)spiro[3,4-dihydrochromene-2,4'-piperidine]

> <PUBCHEM_IUPAC_TRADITIONAL_NAME>
1'-phenethylspiro[chroman-2,4'-piperidine]

> <PUBCHEM_IUPAC_INCHI>
InChI=1S/C21H25NO/c1-2-6-18(7-3-1)11-15-22-16-13-21(14-17-22)12-10-19-8-4-5-9-20(19)23-21/h1-9H,10-17H2

> <PUBCHEM_IUPAC_INCHIKEY>
HAULFEWWRJNEKX-UHFFFAOYSA-N

> <PUBCHEM_XLOGP3_AA>
4.7

> <PUBCHEM_EXACT_MASS>
307.193614421

> <PUBCHEM_MOLECULAR_FORMULA>
C21H25NO

> <PUBCHEM_MOLECULAR_WEIGHT>
307.4

> <PUBCHEM_OPENEYE_CAN_SMILES>
C1CC2(CCN(CC2)CCC3=CC=CC=C3)OC4=CC=CC=C41

> <PUBCHEM_OPENEYE_ISO_SMILES>
C1CC2(CCN(CC2)CCC3=CC=CC=C3)OC4=CC=CC=C41

> <PUBCHEM_CACTVS_TPSA>
12.5

> <PUBCHEM_MONOISOTOPIC_WEIGHT>
307.193614421

> <PUBCHEM_TOTAL_CHARGE>
0

> <PUBCHEM_HEAVY_ATOM_COUNT>
23

> <PUBCHEM_ATOM_DEF_STEREO_COUNT>
0

> <PUBCHEM_ATOM_UDEF_STEREO_COUNT>
0

> <PUBCHEM_BOND_DEF_STEREO_COUNT>
0

> <PUBCHEM_BOND_UDEF_STEREO_COUNT>
0

> <PUBCHEM_ISOTOPIC_ATOM_COUNT>
0

> <PUBCHEM_COMPONENT_COUNT>
1

> <PUBCHEM_CACTVS_TAUTO_COUNT>
-1

> <PUBCHEM_COORDINATE_TYPE>
1
5
255

> <PUBCHEM_BONDANNOTATIONS>
11  12  8
11  14  8
12  15  8
14  17  8
15  18  8
16  19  8
16  20  8
17  18  8
19  21  8
20  22  8
21  23  8
22  23  8

$$$$
