118731513
  -OEChem-09292322352D

 61 64  0     0  0  0  0  0  0999 V2000
    4.9889   -3.7211    0.0000 S   0  0  0  0  0  0  0  0  0  0  0  0
    5.9394   -3.4104    0.0000 O   0  0  0  0  0  0  0  0  0  0  0  0
    4.0384   -4.0318    0.0000 O   0  0  0  0  0  0  0  0  0  0  0  0
    8.8564    3.2596    0.0000 O   0  0  0  0  0  0  0  0  0  0  0  0
    8.4993    4.9544    0.0000 O   0  0  0  0  0  0  0  0  0  0  0  0
    4.6783   -2.7706    0.0000 N   0  0  0  0  0  0  0  0  0  0  0  0
    6.2781    0.9462    0.0000 N   0  0  0  0  0  0  0  0  0  0  0  0
    9.7884    6.1112    0.0000 N   0  0  0  0  0  0  0  0  0  0  0  0
    4.6783   -1.1611    0.0000 C   0  0  0  0  0  0  0  0  0  0  0  0
    3.7320   -1.4658    0.0000 C   0  0  0  0  0  0  0  0  0  0  0  0
    3.7320   -2.4658    0.0000 C   0  0  0  0  0  0  0  0  0  0  0  0
    4.9889   -0.2106    0.0000 C   0  0  0  0  0  0  0  0  0  0  0  0
    5.2619   -1.9658    0.0000 C   0  0  0  0  0  0  0  0  0  0  0  0
    5.9674   -0.0044    0.0000 C   0  0  0  0  0  0  0  0  0  0  0  0
    2.8660   -0.9658    0.0000 C   0  0  0  0  0  0  0  0  0  0  0  0
    2.8660   -2.9658    0.0000 C   0  0  0  0  0  0  0  0  0  0  0  0
    7.2566    1.1524    0.0000 C   0  0  0  0  0  0  0  0  0  0  0  0
    5.2996   -4.6716    0.0000 C   0  0  0  0  0  0  0  0  0  0  0  0
    2.0000   -1.4658    0.0000 C   0  0  0  0  0  0  0  0  0  0  0  0
    2.0000   -2.4658    0.0000 C   0  0  0  0  0  0  0  0  0  0  0  0
    7.5673    2.1029    0.0000 C   0  0  0  0  0  0  0  0  0  0  0  0
    8.5458    2.3091    0.0000 C   0  0  0  0  0  0  0  0  0  0  0  0
    6.2781   -4.8778    0.0000 C   0  0  0  0  0  0  0  0  0  0  0  0
    4.6318   -5.4159    0.0000 C   0  0  0  0  0  0  0  0  0  0  0  0
    6.5888   -5.8284    0.0000 C   0  0  0  0  0  0  0  0  0  0  0  0
    4.9424   -6.3664    0.0000 C   0  0  0  0  0  0  0  0  0  0  0  0
    5.9209   -6.5727    0.0000 C   0  0  0  0  0  0  0  0  0  0  0  0
    9.8349    3.4658    0.0000 C   0  0  0  0  0  0  0  0  0  0  0  0
   10.1456    4.4164    0.0000 C   0  0  0  0  0  0  0  0  0  0  0  0
   10.5028    2.7215    0.0000 C   0  0  0  0  0  0  0  0  0  0  0  0
   11.1241    4.6226    0.0000 C   0  0  0  0  0  0  0  0  0  0  0  0
   11.4813    2.9278    0.0000 C   0  0  0  0  0  0  0  0  0  0  0  0
   11.7920    3.8783    0.0000 C   0  0  0  0  0  0  0  0  0  0  0  0
    9.4778    5.1607    0.0000 C   0  0  0  0  0  0  0  0  0  0  0  0
    4.9684    0.4091    0.0000 H   0  0  0  0  0  0  0  0  0  0  0  0
    4.3751   -0.1232    0.0000 H   0  0  0  0  0  0  0  0  0  0  0  0
    5.8819   -1.9658    0.0000 H   0  0  0  0  0  0  0  0  0  0  0  0
    5.9880   -0.6240    0.0000 H   0  0  0  0  0  0  0  0  0  0  0  0
    6.5812   -0.0917    0.0000 H   0  0  0  0  0  0  0  0  0  0  0  0
    2.8660   -0.3458    0.0000 H   0  0  0  0  0  0  0  0  0  0  0  0
    2.8660   -3.5858    0.0000 H   0  0  0  0  0  0  0  0  0  0  0  0
    5.8640    1.4076    0.0000 H   0  0  0  0  0  0  0  0  0  0  0  0
    7.2772    0.5327    0.0000 H   0  0  0  0  0  0  0  0  0  0  0  0
    7.8704    1.0650    0.0000 H   0  0  0  0  0  0  0  0  0  0  0  0
    1.4631   -1.1558    0.0000 H   0  0  0  0  0  0  0  0  0  0  0  0
    1.4631   -2.7758    0.0000 H   0  0  0  0  0  0  0  0  0  0  0  0
    7.5467    2.7226    0.0000 H   0  0  0  0  0  0  0  0  0  0  0  0
    6.9534    2.1902    0.0000 H   0  0  0  0  0  0  0  0  0  0  0  0
    8.5663    1.6894    0.0000 H   0  0  0  0  0  0  0  0  0  0  0  0
    9.1596    2.2218    0.0000 H   0  0  0  0  0  0  0  0  0  0  0  0
    6.6922   -4.4164    0.0000 H   0  0  0  0  0  0  0  0  0  0  0  0
    4.0251   -5.2881    0.0000 H   0  0  0  0  0  0  0  0  0  0  0  0
    7.1954   -5.9562    0.0000 H   0  0  0  0  0  0  0  0  0  0  0  0
    4.5284   -6.8279    0.0000 H   0  0  0  0  0  0  0  0  0  0  0  0
    6.1135   -7.1620    0.0000 H   0  0  0  0  0  0  0  0  0  0  0  0
   10.3102    2.1322    0.0000 H   0  0  0  0  0  0  0  0  0  0  0  0
   11.3167    5.2119    0.0000 H   0  0  0  0  0  0  0  0  0  0  0  0
   11.8954    2.4663    0.0000 H   0  0  0  0  0  0  0  0  0  0  0  0
   12.3986    4.0061    0.0000 H   0  0  0  0  0  0  0  0  0  0  0  0
    9.3744    6.5727    0.0000 H   0  0  0  0  0  0  0  0  0  0  0  0
   10.3951    6.2390    0.0000 H   0  0  0  0  0  0  0  0  0  0  0  0
  1  2  2  0  0  0  0
  1  3  2  0  0  0  0
  1  6  1  0  0  0  0
  1 18  1  0  0  0  0
  4 22  1  0  0  0  0
  4 28  1  0  0  0  0
  5 34  2  0  0  0  0
  6 11  1  0  0  0  0
  6 13  1  0  0  0  0
  7 14  1  0  0  0  0
  7 17  1  0  0  0  0
  7 42  1  0  0  0  0
  8 34  1  0  0  0  0
  8 60  1  0  0  0  0
  8 61  1  0  0  0  0
  9 10  1  0  0  0  0
  9 12  1  0  0  0  0
  9 13  2  0  0  0  0
 10 11  1  0  0  0  0
 10 15  2  0  0  0  0
 11 16  2  0  0  0  0
 12 14  1  0  0  0  0
 12 35  1  0  0  0  0
 12 36  1  0  0  0  0
 13 37  1  0  0  0  0
 14 38  1  0  0  0  0
 14 39  1  0  0  0  0
 15 19  1  0  0  0  0
 15 40  1  0  0  0  0
 16 20  1  0  0  0  0
 16 41  1  0  0  0  0
 17 21  1  0  0  0  0
 17 43  1  0  0  0  0
 17 44  1  0  0  0  0
 18 23  2  0  0  0  0
 18 24  1  0  0  0  0
 19 20  2  0  0  0  0
 19 45  1  0  0  0  0
 20 46  1  0  0  0  0
 21 22  1  0  0  0  0
 21 47  1  0  0  0  0
 21 48  1  0  0  0  0
 22 49  1  0  0  0  0
 22 50  1  0  0  0  0
 23 25  1  0  0  0  0
 23 51  1  0  0  0  0
 24 26  2  0  0  0  0
 24 52  1  0  0  0  0
 25 27  2  0  0  0  0
 25 53  1  0  0  0  0
 26 27  1  0  0  0  0
 26 54  1  0  0  0  0
 27 55  1  0  0  0  0
 28 29  1  0  0  0  0
 28 30  2  0  0  0  0
 29 31  2  0  0  0  0
 29 34  1  0  0  0  0
 30 32  1  0  0  0  0
 30 56  1  0  0  0  0
 31 33  1  0  0  0  0
 31 57  1  0  0  0  0
 32 33  2  0  0  0  0
 32 58  1  0  0  0  0
 33 59  1  0  0  0  0
M  END
> <PUBCHEM_COMPOUND_CID>
118731513

> <PUBCHEM_COMPOUND_CANONICALIZED>
1

> <PUBCHEM_CACTVS_COMPLEXITY>
750

> <PUBCHEM_CACTVS_HBOND_ACCEPTOR>
5

> <PUBCHEM_CACTVS_HBOND_DONOR>
2

> <PUBCHEM_CACTVS_ROTATABLE_BOND>
11

> <PUBCHEM_CACTVS_SUBSKEYS>
AAADceB7OABAAAAAAAAAAAAAAAAAAWAAAAAwYMAAAAAAAFgB9AAAHgQQQAAADAzh3gY8x/LIFAKoAzV3VHDCiDA1IiAI2Lk+bNgMJvbEtZuGOWjm8BHI6YeYyOCOgAAAAAAKAAAAAAAAABQAAAAAAAAAAA==

> <PUBCHEM_IUPAC_OPENEYE_NAME>
2-[3-[2-[1-(benzenesulfonyl)indol-3-yl]ethylamino]propoxy]benzamide

> <PUBCHEM_IUPAC_CAS_NAME>
2-[3-[2-[1-(benzenesulfonyl)-3-indolyl]ethylamino]propoxy]benzamide

> <PUBCHEM_IUPAC_NAME_MARKUP>
2-[3-[2-[1-(benzenesulfonyl)indol-3-yl]ethylamino]propoxy]benzamide

> <PUBCHEM_IUPAC_NAME>
2-[3-[2-[1-(benzenesulfonyl)indol-3-yl]ethylamino]propoxy]benzamide

> <PUBCHEM_IUPAC_SYSTEMATIC_NAME>
2-[3-[2-[1-(phenylsulfonyl)indol-3-yl]ethylamino]propoxy]benzamide

> <PUBCHEM_IUPAC_TRADITIONAL_NAME>
2-[3-[2-(1-besylindol-3-yl)ethylamino]propoxy]benzamide

> <PUBCHEM_IUPAC_INCHI>
InChI=1S/C26H27N3O4S/c27-26(30)23-12-5-7-14-25(23)33-18-8-16-28-17-15-20-19-29(24-13-6-4-11-22(20)24)34(31,32)21-9-2-1-3-10-21/h1-7,9-14,19,28H,8,15-18H2,(H2,27,30)

> <PUBCHEM_IUPAC_INCHIKEY>
STHXBYBOTUFDBJ-UHFFFAOYSA-N

> <PUBCHEM_XLOGP3_AA>
4

> <PUBCHEM_EXACT_MASS>
477.17222752

> <PUBCHEM_MOLECULAR_FORMULA>
C26H27N3O4S

> <PUBCHEM_MOLECULAR_WEIGHT>
477.6

> <PUBCHEM_OPENEYE_CAN_SMILES>
C1=CC=C(C=C1)S(=O)(=O)N2C=C(C3=CC=CC=C32)CCNCCCOC4=CC=CC=C4C(=O)N

> <PUBCHEM_OPENEYE_ISO_SMILES>
C1=CC=C(C=C1)S(=O)(=O)N2C=C(C3=CC=CC=C32)CCNCCCOC4=CC=CC=C4C(=O)N

> <PUBCHEM_CACTVS_TPSA>
112

> <PUBCHEM_MONOISOTOPIC_WEIGHT>
477.17222752

> <PUBCHEM_TOTAL_CHARGE>
0

> <PUBCHEM_HEAVY_ATOM_COUNT>
34

> <PUBCHEM_ATOM_DEF_STEREO_COUNT>
0

> <PUBCHEM_ATOM_UDEF_STEREO_COUNT>
0

> <PUBCHEM_BOND_DEF_STEREO_COUNT>
0

> <PUBCHEM_BOND_UDEF_STEREO_COUNT>
0

> <PUBCHEM_ISOTOPIC_ATOM_COUNT>
0

> <PUBCHEM_COMPONENT_COUNT>
1

> <PUBCHEM_CACTVS_TAUTO_COUNT>
-1

> <PUBCHEM_COORDINATE_TYPE>
1
5
255

> <PUBCHEM_BONDANNOTATIONS>
10  11  8
10  15  8
11  16  8
15  19  8
16  20  8
18  23  8
18  24  8
19  20  8
23  25  8
24  26  8
25  27  8
26  27  8
28  29  8
28  30  8
29  31  8
30  32  8
31  33  8
32  33  8
6  11  8
6  13  8
9  10  8
9  13  8

$$$$
