145974087
  -OEChem-09292322382D

 67 69  0     1  0  0  0  0  0999 V2000
   11.0263    6.5713    0.0000 Cl  0  0  0  0  0  0  0  0  0  0  0  0
    3.2656    7.5274    0.0000 O   0  0  0  0  0  0  0  0  0  0  0  0
    3.1285    3.8110    0.0000 O   0  0  0  0  0  0  0  0  0  0  0  0
    2.0407    7.1588    0.0000 O   0  0  0  0  0  0  0  0  0  0  0  0
    7.4856   10.7197    0.0000 O   0  0  0  0  0  0  0  0  0  0  0  0
    5.1677    8.1454    0.0000 N   0  0  0  0  0  0  0  0  0  0  0  0
    5.5835   10.1017    0.0000 N   0  0  0  0  0  0  0  0  0  0  0  0
    2.8497    5.5711    0.0000 N   0  0  0  0  0  0  0  0  0  0  0  0
    1.2317    5.5711    0.0000 N   0  0  0  0  0  0  0  0  0  0  0  0
    4.9598    7.1672    0.0000 C   0  0  0  0  0  0  0  0  0  0  0  0
    6.1187    8.4544    0.0000 C   0  0  0  0  0  0  0  0  0  0  0  0
    4.4245    8.8145    0.0000 C   0  0  0  0  0  0  0  0  0  0  0  0
    4.0087    6.8582    0.0000 C   0  0  3  0  0  0  0  0  0  0  0  0
    6.3266    9.4326    0.0000 C   0  0  0  0  0  0  0  0  0  0  0  0
    4.6324    9.7927    0.0000 C   0  0  0  0  0  0  0  0  0  0  0  0
    1.5407    4.6200    0.0000 C   0  0  3  0  0  0  0  0  0  0  0  0
    3.8008    5.8801    0.0000 C   0  0  0  0  0  0  0  0  0  0  0  0
    2.5407    4.6200    0.0000 C   0  0  0  0  0  0  0  0  0  0  0  0
    2.0407    6.1588    0.0000 C   0  0  0  0  0  0  0  0  0  0  0  0
    1.5407    3.6200    0.0000 C   0  0  0  0  0  0  0  0  0  0  0  0
    5.7914   11.0798    0.0000 C   0  0  0  0  0  0  0  0  0  0  0  0
    0.5897    4.3110    0.0000 C   0  0  0  0  0  0  0  0  0  0  0  0
    2.4067    3.1200    0.0000 C   0  0  0  0  0  0  0  0  0  0  0  0
    0.6747    3.1200    0.0000 C   0  0  0  0  0  0  0  0  0  0  0  0
    6.7425   11.3888    0.0000 C   0  0  0  0  0  0  0  0  0  0  0  0
    5.0482   11.7490    0.0000 C   0  0  0  0  0  0  0  0  0  0  0  0
    2.4067    2.1200    0.0000 C   0  0  0  0  0  0  0  0  0  0  0  0
    0.6747    2.1200    0.0000 C   0  0  0  0  0  0  0  0  0  0  0  0
    1.5407    1.6200    0.0000 C   0  0  0  0  0  0  0  0  0  0  0  0
    6.9504   12.3670    0.0000 C   0  0  0  0  0  0  0  0  0  0  0  0
    5.2562   12.7271    0.0000 C   0  0  0  0  0  0  0  0  0  0  0  0
    6.2072   13.0361    0.0000 C   0  0  0  0  0  0  0  0  0  0  0  0
    1.5407    0.6200    0.0000 C   0  0  0  0  0  0  0  0  0  0  0  0
    8.4367   11.0287    0.0000 C   0  0  0  0  0  0  0  0  0  0  0  0
    5.0460    6.5533    0.0000 H   0  0  0  0  0  0  0  0  0  0  0  0
    5.5794    7.1456    0.0000 H   0  0  0  0  0  0  0  0  0  0  0  0
    6.2050    7.8404    0.0000 H   0  0  0  0  0  0  0  0  0  0  0  0
    6.7383    8.4328    0.0000 H   0  0  0  0  0  0  0  0  0  0  0  0
    3.8497    9.0468    0.0000 H   0  0  0  0  0  0  0  0  0  0  0  0
    4.0960    8.2887    0.0000 H   0  0  0  0  0  0  0  0  0  0  0  0
    3.4190    6.6666    0.0000 H   0  0  0  0  0  0  0  0  0  0  0  0
    6.9015    9.2003    0.0000 H   0  0  0  0  0  0  0  0  0  0  0  0
    6.6552    9.9583    0.0000 H   0  0  0  0  0  0  0  0  0  0  0  0
    4.5461   10.4066    0.0000 H   0  0  0  0  0  0  0  0  0  0  0  0
    4.0128    9.8143    0.0000 H   0  0  0  0  0  0  0  0  0  0  0  0
    3.8871    5.2661    0.0000 H   0  0  0  0  0  0  0  0  0  0  0  0
    4.4204    5.8584    0.0000 H   0  0  0  0  0  0  0  0  0  0  0  0
    0.6420    5.7626    0.0000 H   0  0  0  0  0  0  0  0  0  0  0  0
    0.3981    4.9006    0.0000 H   0  0  0  0  0  0  0  0  0  0  0  0
    0.0000    4.1194    0.0000 H   0  0  0  0  0  0  0  0  0  0  0  0
    0.7812    3.7213    0.0000 H   0  0  0  0  0  0  0  0  0  0  0  0
    3.3945    8.1338    0.0000 H   0  0  0  0  0  0  0  0  0  0  0  0
    2.9437    3.4300    0.0000 H   0  0  0  0  0  0  0  0  0  0  0  0
    0.1378    3.4300    0.0000 H   0  0  0  0  0  0  0  0  0  0  0  0
    4.4586   11.5574    0.0000 H   0  0  0  0  0  0  0  0  0  0  0  0
    2.9437    1.8100    0.0000 H   0  0  0  0  0  0  0  0  0  0  0  0
    0.1378    1.8100    0.0000 H   0  0  0  0  0  0  0  0  0  0  0  0
    7.5400   12.5586    0.0000 H   0  0  0  0  0  0  0  0  0  0  0  0
    4.7954   13.1420    0.0000 H   0  0  0  0  0  0  0  0  0  0  0  0
    6.3361   13.6426    0.0000 H   0  0  0  0  0  0  0  0  0  0  0  0
    0.9207    0.6200    0.0000 H   0  0  0  0  0  0  0  0  0  0  0  0
    1.5407    0.0000    0.0000 H   0  0  0  0  0  0  0  0  0  0  0  0
    2.1607    0.6200    0.0000 H   0  0  0  0  0  0  0  0  0  0  0  0
    8.6282   10.4391    0.0000 H   0  0  0  0  0  0  0  0  0  0  0  0
    9.0263   11.2203    0.0000 H   0  0  0  0  0  0  0  0  0  0  0  0
    8.2451   11.6184    0.0000 H   0  0  0  0  0  0  0  0  0  0  0  0
   12.0263    6.5713    0.0000 H   0  0  0  0  0  0  0  0  0  0  0  0
  1 67  1  0  0  0  0
  2 13  1  0  0  0  0
  2 52  1  0  0  0  0
  3 18  2  0  0  0  0
  4 19  2  0  0  0  0
  5 25  1  0  0  0  0
  5 34  1  0  0  0  0
  6 10  1  0  0  0  0
  6 11  1  0  0  0  0
  6 12  1  0  0  0  0
  7 14  1  0  0  0  0
  7 15  1  0  0  0  0
  7 21  1  0  0  0  0
  8 17  1  0  0  0  0
  8 18  1  0  0  0  0
  8 19  1  0  0  0  0
  9 16  1  0  0  0  0
  9 19  1  0  0  0  0
  9 48  1  0  0  0  0
 10 13  1  0  0  0  0
 10 35  1  0  0  0  0
 10 36  1  0  0  0  0
 11 14  1  0  0  0  0
 11 37  1  0  0  0  0
 11 38  1  0  0  0  0
 12 15  1  0  0  0  0
 12 39  1  0  0  0  0
 12 40  1  0  0  0  0
 13 17  1  0  0  0  0
 13 41  1  0  0  0  0
 14 42  1  0  0  0  0
 14 43  1  0  0  0  0
 15 44  1  0  0  0  0
 15 45  1  0  0  0  0
 16 18  1  0  0  0  0
 16 20  1  0  0  0  0
 16 22  1  0  0  0  0
 17 46  1  0  0  0  0
 17 47  1  0  0  0  0
 20 23  2  0  0  0  0
 20 24  1  0  0  0  0
 21 25  1  0  0  0  0
 21 26  2  0  0  0  0
 22 49  1  0  0  0  0
 22 50  1  0  0  0  0
 22 51  1  0  0  0  0
 23 27  1  0  0  0  0
 23 53  1  0  0  0  0
 24 28  2  0  0  0  0
 24 54  1  0  0  0  0
 25 30  2  0  0  0  0
 26 31  1  0  0  0  0
 26 55  1  0  0  0  0
 27 29  2  0  0  0  0
 27 56  1  0  0  0  0
 28 29  1  0  0  0  0
 28 57  1  0  0  0  0
 29 33  1  0  0  0  0
 30 32  1  0  0  0  0
 30 58  1  0  0  0  0
 31 32  2  0  0  0  0
 31 59  1  0  0  0  0
 32 60  1  0  0  0  0
 33 61  1  0  0  0  0
 33 62  1  0  0  0  0
 33 63  1  0  0  0  0
 34 64  1  0  0  0  0
 34 65  1  0  0  0  0
 34 66  1  0  0  0  0
M  END
> <PUBCHEM_COMPOUND_CID>
145974087

> <PUBCHEM_COMPOUND_CANONICALIZED>
1

> <PUBCHEM_CACTVS_COMPLEXITY>
690

> <PUBCHEM_CACTVS_HBOND_ACCEPTOR>
6

> <PUBCHEM_CACTVS_HBOND_DONOR>
3

> <PUBCHEM_CACTVS_ROTATABLE_BOND>
7

> <PUBCHEM_CACTVS_SUBSKEYS>
AAADcfB7uAAEAAAAAAAAAAAAAAAAAWAAAAA8YIAAAAAAAAABQAAAHgAQCAAADJzhmAYzxoPABgCIAiVSUACCCAAhIgAIiAGPbIiOdjLE9buVMChs1zPY6AeYyMCOwAAAAAAAEACAAAAAAAAgAAAAAAAAAA==

> <PUBCHEM_IUPAC_OPENEYE_NAME>
3-[2-hydroxy-3-[4-(2-methoxyphenyl)piperazin-1-yl]propyl]-5-methyl-5-(p-tolyl)imidazolidine-2,4-dione;hydrochloride

> <PUBCHEM_IUPAC_CAS_NAME>
3-[2-hydroxy-3-[4-(2-methoxyphenyl)-1-piperazinyl]propyl]-5-methyl-5-(4-methylphenyl)imidazolidine-2,4-dione;hydrochloride

> <PUBCHEM_IUPAC_NAME_MARKUP>
3-[2-hydroxy-3-[4-(2-methoxyphenyl)piperazin-1-yl]propyl]-5-methyl-5-(4-methylphenyl)imidazolidine-2,4-dione;hydrochloride

> <PUBCHEM_IUPAC_NAME>
3-[2-hydroxy-3-[4-(2-methoxyphenyl)piperazin-1-yl]propyl]-5-methyl-5-(4-methylphenyl)imidazolidine-2,4-dione;hydrochloride

> <PUBCHEM_IUPAC_SYSTEMATIC_NAME>
3-[3-[4-(2-methoxyphenyl)piperazin-1-yl]-2-oxidanyl-propyl]-5-methyl-5-(4-methylphenyl)imidazolidine-2,4-dione;hydrochloride

> <PUBCHEM_IUPAC_TRADITIONAL_NAME>
3-[2-hydroxy-3-[4-(2-methoxyphenyl)piperazino]propyl]-5-methyl-5-(p-tolyl)hydantoin;hydrochloride

> <PUBCHEM_IUPAC_INCHI>
InChI=1S/C25H32N4O4.ClH/c1-18-8-10-19(11-9-18)25(2)23(31)29(24(32)26-25)17-20(30)16-27-12-14-28(15-13-27)21-6-4-5-7-22(21)33-3;/h4-11,20,30H,12-17H2,1-3H3,(H,26,32);1H

> <PUBCHEM_IUPAC_INCHIKEY>
GQGXFFRBMBQASB-UHFFFAOYSA-N

> <PUBCHEM_EXACT_MASS>
488.2190332

> <PUBCHEM_MOLECULAR_FORMULA>
C25H33ClN4O4

> <PUBCHEM_MOLECULAR_WEIGHT>
489.0

> <PUBCHEM_OPENEYE_CAN_SMILES>
CC1=CC=C(C=C1)C2(C(=O)N(C(=O)N2)CC(CN3CCN(CC3)C4=CC=CC=C4OC)O)C.Cl

> <PUBCHEM_OPENEYE_ISO_SMILES>
CC1=CC=C(C=C1)C2(C(=O)N(C(=O)N2)CC(CN3CCN(CC3)C4=CC=CC=C4OC)O)C.Cl

> <PUBCHEM_CACTVS_TPSA>
85.4

> <PUBCHEM_MONOISOTOPIC_WEIGHT>
488.2190332

> <PUBCHEM_TOTAL_CHARGE>
0

> <PUBCHEM_HEAVY_ATOM_COUNT>
34

> <PUBCHEM_ATOM_DEF_STEREO_COUNT>
0

> <PUBCHEM_ATOM_UDEF_STEREO_COUNT>
2

> <PUBCHEM_BOND_DEF_STEREO_COUNT>
0

> <PUBCHEM_BOND_UDEF_STEREO_COUNT>
0

> <PUBCHEM_ISOTOPIC_ATOM_COUNT>
0

> <PUBCHEM_COMPONENT_COUNT>
2

> <PUBCHEM_CACTVS_TAUTO_COUNT>
-1

> <PUBCHEM_COORDINATE_TYPE>
1
5
255

> <PUBCHEM_BONDANNOTATIONS>
16  22  3
13  2  3
20  23  8
20  24  8
21  25  8
21  26  8
23  27  8
24  28  8
25  30  8
26  31  8
27  29  8
28  29  8
30  32  8
31  32  8

$$$$
