44374299
  -OEChem-09292322502D

 33 34  0     0  0  0  0  0  0999 V2000
    2.3621    0.9514    0.0000 S   0  0  0  0  0  0  0  0  0  0  0  0
    3.9499    0.1424    0.0000 S   0  0  0  0  0  0  0  0  0  0  0  0
    2.5878    3.5875    0.0000 N   0  0  0  0  0  0  0  0  0  0  0  0
    2.6409   -0.8087    0.0000 N   0  0  0  0  0  0  0  0  0  0  0  0
    2.1810    2.6739    0.0000 C   0  0  0  0  0  0  0  0  0  0  0  0
    2.7688    1.8649    0.0000 C   0  0  0  0  0  0  0  0  0  0  0  0
    2.0000    4.3965    0.0000 C   0  0  0  0  0  0  0  0  0  0  0  0
    3.5823    3.6920    0.0000 C   0  0  0  0  0  0  0  0  0  0  0  0
    3.4499   -1.3965    0.0000 C   0  0  0  0  0  0  0  0  0  0  0  0
    3.4499   -2.3965    0.0000 C   0  0  0  0  0  0  0  0  0  0  0  0
    2.9499    0.1424    0.0000 C   0  0  0  0  0  0  0  0  0  0  0  0
    4.2589   -0.8087    0.0000 C   0  0  0  0  0  0  0  0  0  0  0  0
    4.3159   -2.8965    0.0000 C   0  0  0  0  0  0  0  0  0  0  0  0
    2.5839   -2.8965    0.0000 C   0  0  0  0  0  0  0  0  0  0  0  0
    4.3159   -3.8965    0.0000 C   0  0  0  0  0  0  0  0  0  0  0  0
    2.5839   -3.8965    0.0000 C   0  0  0  0  0  0  0  0  0  0  0  0
    3.4499   -4.3965    0.0000 C   0  0  0  0  0  0  0  0  0  0  0  0
    1.6670    3.0206    0.0000 H   0  0  0  0  0  0  0  0  0  0  0  0
    1.7504    2.2279    0.0000 H   0  0  0  0  0  0  0  0  0  0  0  0
    3.2828    1.5182    0.0000 H   0  0  0  0  0  0  0  0  0  0  0  0
    3.1995    2.3109    0.0000 H   0  0  0  0  0  0  0  0  0  0  0  0
    2.5016    4.7609    0.0000 H   0  0  0  0  0  0  0  0  0  0  0  0
    1.6356    4.8981    0.0000 H   0  0  0  0  0  0  0  0  0  0  0  0
    1.4984    4.0321    0.0000 H   0  0  0  0  0  0  0  0  0  0  0  0
    3.6471    3.0754    0.0000 H   0  0  0  0  0  0  0  0  0  0  0  0
    4.1989    3.7568    0.0000 H   0  0  0  0  0  0  0  0  0  0  0  0
    3.5175    4.3086    0.0000 H   0  0  0  0  0  0  0  0  0  0  0  0
    4.8486   -1.0003    0.0000 H   0  0  0  0  0  0  0  0  0  0  0  0
    4.8528   -2.5865    0.0000 H   0  0  0  0  0  0  0  0  0  0  0  0
    2.0469   -2.5865    0.0000 H   0  0  0  0  0  0  0  0  0  0  0  0
    4.8528   -4.2065    0.0000 H   0  0  0  0  0  0  0  0  0  0  0  0
    2.0469   -4.2065    0.0000 H   0  0  0  0  0  0  0  0  0  0  0  0
    3.4499   -5.0165    0.0000 H   0  0  0  0  0  0  0  0  0  0  0  0
  1  6  1  0  0  0  0
  1 11  1  0  0  0  0
  2 11  1  0  0  0  0
  2 12  1  0  0  0  0
  3  5  1  0  0  0  0
  3  7  1  0  0  0  0
  3  8  1  0  0  0  0
  4  9  1  0  0  0  0
  4 11  2  0  0  0  0
  5  6  1  0  0  0  0
  5 18  1  0  0  0  0
  5 19  1  0  0  0  0
  6 20  1  0  0  0  0
  6 21  1  0  0  0  0
  7 22  1  0  0  0  0
  7 23  1  0  0  0  0
  7 24  1  0  0  0  0
  8 25  1  0  0  0  0
  8 26  1  0  0  0  0
  8 27  1  0  0  0  0
  9 10  1  0  0  0  0
  9 12  2  0  0  0  0
 10 13  2  0  0  0  0
 10 14  1  0  0  0  0
 12 28  1  0  0  0  0
 13 15  1  0  0  0  0
 13 29  1  0  0  0  0
 14 16  2  0  0  0  0
 14 30  1  0  0  0  0
 15 17  2  0  0  0  0
 15 31  1  0  0  0  0
 16 17  1  0  0  0  0
 16 32  1  0  0  0  0
 17 33  1  0  0  0  0
M  END
> <PUBCHEM_COMPOUND_CID>
44374299

> <PUBCHEM_COMPOUND_CANONICALIZED>
1

> <PUBCHEM_CACTVS_COMPLEXITY>
218

> <PUBCHEM_CACTVS_HBOND_ACCEPTOR>
4

> <PUBCHEM_CACTVS_HBOND_DONOR>
0

> <PUBCHEM_CACTVS_ROTATABLE_BOND>
5

> <PUBCHEM_CACTVS_SUBSKEYS>
AAADceBzAABgAAAAAAAAAAAAAAAAAWAAAAAwAAAAAAAAAAABwAAAHAQAAAAADAjFXgSygZMIEAikAyRiRACC8aBhCjgIiDQ4JJgIIKKgkRGEIAhggAAIiAcQgIAOAAAAAAAAAAAAAAAAAAAAAAAAAAAAAA==

> <PUBCHEM_IUPAC_OPENEYE_NAME>
N,N-dimethyl-2-(4-phenylthiazol-2-yl)sulfanyl-ethanamine

> <PUBCHEM_IUPAC_CAS_NAME>
N,N-dimethyl-2-[(4-phenyl-2-thiazolyl)thio]ethanamine

> <PUBCHEM_IUPAC_NAME_MARKUP>
<I>N</I>,<I>N</I>-dimethyl-2-[(4-phenyl-1,3-thiazol-2-yl)sulfanyl]ethanamine

> <PUBCHEM_IUPAC_NAME>
N,N-dimethyl-2-[(4-phenyl-1,3-thiazol-2-yl)sulfanyl]ethanamine

> <PUBCHEM_IUPAC_SYSTEMATIC_NAME>
N,N-dimethyl-2-[(4-phenyl-1,3-thiazol-2-yl)sulfanyl]ethanamine

> <PUBCHEM_IUPAC_TRADITIONAL_NAME>
dimethyl-[2-[(4-phenylthiazol-2-yl)thio]ethyl]amine

> <PUBCHEM_IUPAC_INCHI>
InChI=1S/C13H16N2S2/c1-15(2)8-9-16-13-14-12(10-17-13)11-6-4-3-5-7-11/h3-7,10H,8-9H2,1-2H3

> <PUBCHEM_IUPAC_INCHIKEY>
OFZLYUMNCUQVJM-UHFFFAOYSA-N

> <PUBCHEM_XLOGP3_AA>
3.5

> <PUBCHEM_EXACT_MASS>
264.07549087

> <PUBCHEM_MOLECULAR_FORMULA>
C13H16N2S2

> <PUBCHEM_MOLECULAR_WEIGHT>
264.4

> <PUBCHEM_OPENEYE_CAN_SMILES>
CN(C)CCSC1=NC(=CS1)C2=CC=CC=C2

> <PUBCHEM_OPENEYE_ISO_SMILES>
CN(C)CCSC1=NC(=CS1)C2=CC=CC=C2

> <PUBCHEM_CACTVS_TPSA>
69.7

> <PUBCHEM_MONOISOTOPIC_WEIGHT>
264.07549087

> <PUBCHEM_TOTAL_CHARGE>
0

> <PUBCHEM_HEAVY_ATOM_COUNT>
17

> <PUBCHEM_ATOM_DEF_STEREO_COUNT>
0

> <PUBCHEM_ATOM_UDEF_STEREO_COUNT>
0

> <PUBCHEM_BOND_DEF_STEREO_COUNT>
0

> <PUBCHEM_BOND_UDEF_STEREO_COUNT>
0

> <PUBCHEM_ISOTOPIC_ATOM_COUNT>
0

> <PUBCHEM_COMPONENT_COUNT>
1

> <PUBCHEM_CACTVS_TAUTO_COUNT>
-1

> <PUBCHEM_COORDINATE_TYPE>
1
5
255

> <PUBCHEM_BONDANNOTATIONS>
10  13  8
10  14  8
13  15  8
14  16  8
15  17  8
16  17  8
2  11  8
2  12  8
4  11  8
4  9  8
9  12  8

$$$$
