25156685
  -OEChem-09292322502D

 66 69  0     1  0  0  0  0  0999 V2000
    8.9942   -2.7671    0.0000 O   0  0  0  0  0  0  0  0  0  0  0  0
    2.0000   -2.7362    0.0000 O   0  0  0  0  0  0  0  0  0  0  0  0
    2.0000   -0.7362    0.0000 O   0  0  0  0  0  0  0  0  0  0  0  0
    7.2853    3.2396    0.0000 O   0  0  0  0  0  0  0  0  0  0  0  0
    6.3981   -2.2570    0.0000 N   0  0  3  0  0  0  0  0  0  0  0  0
    6.3981   -1.2154    0.0000 C   0  0  0  0  0  0  0  0  0  0  0  0
    5.4920   -2.7709    0.0000 C   0  0  0  0  0  0  0  0  0  0  0  0
    5.4920   -0.7016    0.0000 C   0  0  0  0  0  0  0  0  0  0  0  0
    4.5981   -2.2362    0.0000 C   0  0  0  0  0  0  0  0  0  0  0  0
    4.5981   -1.2362    0.0000 C   0  0  0  0  0  0  0  0  0  0  0  0
    7.2622   -2.7604    0.0000 C   0  0  0  0  0  0  0  0  0  0  0  0
    3.7320   -2.7362    0.0000 C   0  0  0  0  0  0  0  0  0  0  0  0
    3.7320   -0.7362    0.0000 C   0  0  0  0  0  0  0  0  0  0  0  0
    8.1301   -2.2637    0.0000 C   0  0  0  0  0  0  0  0  0  0  0  0
    2.8660   -2.2362    0.0000 C   0  0  0  0  0  0  0  0  0  0  0  0
    2.8660   -1.2362    0.0000 C   0  0  0  0  0  0  0  0  0  0  0  0
    9.8622   -2.2704    0.0000 C   0  0  0  0  0  0  0  0  0  0  0  0
    9.8660   -1.2704    0.0000 C   0  0  0  0  0  0  0  0  0  0  0  0
    9.0019   -0.7671    0.0000 C   0  0  0  0  0  0  0  0  0  0  0  0
    9.0058    0.2329    0.0000 C   0  0  0  0  0  0  0  0  0  0  0  0
   10.7263   -2.7737    0.0000 C   0  0  0  0  0  0  0  0  0  0  0  0
   10.7340   -0.7737    0.0000 C   0  0  0  0  0  0  0  0  0  0  0  0
    8.1417    0.7363    0.0000 C   0  0  0  0  0  0  0  0  0  0  0  0
    2.0000   -3.7362    0.0000 C   0  0  0  0  0  0  0  0  0  0  0  0
    2.0000    0.2638    0.0000 C   0  0  0  0  0  0  0  0  0  0  0  0
   11.5942   -2.2771    0.0000 C   0  0  0  0  0  0  0  0  0  0  0  0
   11.5981   -1.2771    0.0000 C   0  0  0  0  0  0  0  0  0  0  0  0
    8.1455    1.7362    0.0000 C   0  0  0  0  0  0  0  0  0  0  0  0
    7.2737    0.2396    0.0000 C   0  0  0  0  0  0  0  0  0  0  0  0
    7.2814    2.2396    0.0000 C   0  0  0  0  0  0  0  0  0  0  0  0
    6.4096    0.7429    0.0000 C   0  0  0  0  0  0  0  0  0  0  0  0
    6.4135    1.7429    0.0000 C   0  0  0  0  0  0  0  0  0  0  0  0
    8.1532    3.7362    0.0000 C   0  0  0  0  0  0  0  0  0  0  0  0
    7.0089   -1.3215    0.0000 H   0  0  0  0  0  0  0  0  0  0  0  0
    6.6071   -0.6317    0.0000 H   0  0  0  0  0  0  0  0  0  0  0  0
    5.0874   -3.2407    0.0000 H   0  0  0  0  0  0  0  0  0  0  0  0
    5.8856   -3.2499    0.0000 H   0  0  0  0  0  0  0  0  0  0  0  0
    5.8856   -0.2226    0.0000 H   0  0  0  0  0  0  0  0  0  0  0  0
    5.0874   -0.2318    0.0000 H   0  0  0  0  0  0  0  0  0  0  0  0
    6.8618   -3.2338    0.0000 H   0  0  0  0  0  0  0  0  0  0  0  0
    7.6589   -3.2369    0.0000 H   0  0  0  0  0  0  0  0  0  0  0  0
    3.7320   -3.3562    0.0000 H   0  0  0  0  0  0  0  0  0  0  0  0
    3.7320   -0.1162    0.0000 H   0  0  0  0  0  0  0  0  0  0  0  0
    8.5305   -1.7903    0.0000 H   0  0  0  0  0  0  0  0  0  0  0  0
    7.7334   -1.7872    0.0000 H   0  0  0  0  0  0  0  0  0  0  0  0
    8.3918   -0.6571    0.0000 H   0  0  0  0  0  0  0  0  0  0  0  0
    8.7876   -1.3489    0.0000 H   0  0  0  0  0  0  0  0  0  0  0  0
    9.6159    0.1229    0.0000 H   0  0  0  0  0  0  0  0  0  0  0  0
    9.2201    0.8147    0.0000 H   0  0  0  0  0  0  0  0  0  0  0  0
   10.7239   -3.3937    0.0000 H   0  0  0  0  0  0  0  0  0  0  0  0
   10.7364   -0.1538    0.0000 H   0  0  0  0  0  0  0  0  0  0  0  0
   12.1299   -2.5891    0.0000 H   0  0  0  0  0  0  0  0  0  0  0  0
    1.3800   -3.7362    0.0000 H   0  0  0  0  0  0  0  0  0  0  0  0
    2.0000   -4.3562    0.0000 H   0  0  0  0  0  0  0  0  0  0  0  0
    2.6200   -3.7362    0.0000 H   0  0  0  0  0  0  0  0  0  0  0  0
    2.6200    0.2638    0.0000 H   0  0  0  0  0  0  0  0  0  0  0  0
    2.0000    0.8838    0.0000 H   0  0  0  0  0  0  0  0  0  0  0  0
    1.3800    0.2638    0.0000 H   0  0  0  0  0  0  0  0  0  0  0  0
   12.1362   -0.9692    0.0000 H   0  0  0  0  0  0  0  0  0  0  0  0
    8.6837    2.0442    0.0000 H   0  0  0  0  0  0  0  0  0  0  0  0
    7.2714   -0.3804    0.0000 H   0  0  0  0  0  0  0  0  0  0  0  0
    5.8715    0.4350    0.0000 H   0  0  0  0  0  0  0  0  0  0  0  0
    5.8778    2.0550    0.0000 H   0  0  0  0  0  0  0  0  0  0  0  0
    8.4612    3.1981    0.0000 H   0  0  0  0  0  0  0  0  0  0  0  0
    8.6914    4.0442    0.0000 H   0  0  0  0  0  0  0  0  0  0  0  0
    7.8453    4.2744    0.0000 H   0  0  0  0  0  0  0  0  0  0  0  0
  1 14  1  0  0  0  0
  1 17  1  0  0  0  0
  2 15  1  0  0  0  0
  2 24  1  0  0  0  0
  3 16  1  0  0  0  0
  3 25  1  0  0  0  0
  4 30  1  0  0  0  0
  4 33  1  0  0  0  0
  5  6  1  0  0  0  0
  5  7  1  0  0  0  0
  5 11  1  0  0  0  0
  6  8  1  0  0  0  0
  6 34  1  0  0  0  0
  6 35  1  0  0  0  0
  7  9  1  0  0  0  0
  7 36  1  0  0  0  0
  7 37  1  0  0  0  0
  8 10  1  0  0  0  0
  8 38  1  0  0  0  0
  8 39  1  0  0  0  0
  9 10  1  0  0  0  0
  9 12  2  0  0  0  0
 10 13  2  0  0  0  0
 11 14  1  0  0  0  0
 11 40  1  0  0  0  0
 11 41  1  0  0  0  0
 12 15  1  0  0  0  0
 12 42  1  0  0  0  0
 13 16  1  0  0  0  0
 13 43  1  0  0  0  0
 14 44  1  0  0  0  0
 14 45  1  0  0  0  0
 15 16  2  0  0  0  0
 17 18  1  0  0  0  0
 17 21  2  0  0  0  0
 18 19  1  0  0  0  0
 18 22  2  0  0  0  0
 19 20  1  0  0  0  0
 19 46  1  0  0  0  0
 19 47  1  0  0  0  0
 20 23  1  0  0  0  0
 20 48  1  0  0  0  0
 20 49  1  0  0  0  0
 21 26  1  0  0  0  0
 21 50  1  0  0  0  0
 22 27  1  0  0  0  0
 22 51  1  0  0  0  0
 23 28  2  0  0  0  0
 23 29  1  0  0  0  0
 24 53  1  0  0  0  0
 24 54  1  0  0  0  0
 24 55  1  0  0  0  0
 25 56  1  0  0  0  0
 25 57  1  0  0  0  0
 25 58  1  0  0  0  0
 26 27  2  0  0  0  0
 26 52  1  0  0  0  0
 27 59  1  0  0  0  0
 28 30  1  0  0  0  0
 28 60  1  0  0  0  0
 29 31  2  0  0  0  0
 29 61  1  0  0  0  0
 30 32  2  0  0  0  0
 31 32  1  0  0  0  0
 31 62  1  0  0  0  0
 32 63  1  0  0  0  0
 33 64  1  0  0  0  0
 33 65  1  0  0  0  0
 33 66  1  0  0  0  0
M  END
> <PUBCHEM_COMPOUND_CID>
25156685

> <PUBCHEM_COMPOUND_CANONICALIZED>
1

> <PUBCHEM_CACTVS_COMPLEXITY>
560

> <PUBCHEM_CACTVS_HBOND_ACCEPTOR>
5

> <PUBCHEM_CACTVS_HBOND_DONOR>
0

> <PUBCHEM_CACTVS_ROTATABLE_BOND>
10

> <PUBCHEM_CACTVS_SUBSKEYS>
AAADcfB6OAAAAAAAAAAAAAAAAAAAAAAAAAA8YMEAAAAAAACxUAAAHgAAAAAADAThmAYyBoMABACAAiBCAACCCAAgIAAIiAAOjIgPJiKEsRuHOCrkwBGaqAew0PIOoAABAAAYQABAAAIAADCAAAAAAAAAAA==

> <PUBCHEM_IUPAC_OPENEYE_NAME>
6,7-dimethoxy-2-[2-[2-[2-(3-methoxyphenyl)ethyl]phenoxy]ethyl]-3,4-dihydro-1H-isoquinoline

> <PUBCHEM_IUPAC_CAS_NAME>
6,7-dimethoxy-2-[2-[2-[2-(3-methoxyphenyl)ethyl]phenoxy]ethyl]-3,4-dihydro-1H-isoquinoline

> <PUBCHEM_IUPAC_NAME_MARKUP>
6,7-dimethoxy-2-[2-[2-[2-(3-methoxyphenyl)ethyl]phenoxy]ethyl]-3,4-dihydro-1<I>H</I>-isoquinoline

> <PUBCHEM_IUPAC_NAME>
6,7-dimethoxy-2-[2-[2-[2-(3-methoxyphenyl)ethyl]phenoxy]ethyl]-3,4-dihydro-1H-isoquinoline

> <PUBCHEM_IUPAC_SYSTEMATIC_NAME>
6,7-dimethoxy-2-[2-[2-[2-(3-methoxyphenyl)ethyl]phenoxy]ethyl]-3,4-dihydro-1H-isoquinoline

> <PUBCHEM_IUPAC_TRADITIONAL_NAME>
6,7-dimethoxy-2-[2-[2-[2-(3-methoxyphenyl)ethyl]phenoxy]ethyl]-3,4-dihydro-1H-isoquinoline

> <PUBCHEM_IUPAC_INCHI>
InChI=1S/C28H33NO4/c1-30-25-9-6-7-21(17-25)11-12-22-8-4-5-10-26(22)33-16-15-29-14-13-23-18-27(31-2)28(32-3)19-24(23)20-29/h4-10,17-19H,11-16,20H2,1-3H3

> <PUBCHEM_IUPAC_INCHIKEY>
FOYIKIOMXHXEQA-UHFFFAOYSA-N

> <PUBCHEM_XLOGP3_AA>
5.6

> <PUBCHEM_EXACT_MASS>
447.24095853

> <PUBCHEM_MOLECULAR_FORMULA>
C28H33NO4

> <PUBCHEM_MOLECULAR_WEIGHT>
447.6

> <PUBCHEM_OPENEYE_CAN_SMILES>
COC1=CC=CC(=C1)CCC2=CC=CC=C2OCCN3CCC4=CC(=C(C=C4C3)OC)OC

> <PUBCHEM_OPENEYE_ISO_SMILES>
COC1=CC=CC(=C1)CCC2=CC=CC=C2OCCN3CCC4=CC(=C(C=C4C3)OC)OC

> <PUBCHEM_CACTVS_TPSA>
40.2

> <PUBCHEM_MONOISOTOPIC_WEIGHT>
447.24095853

> <PUBCHEM_TOTAL_CHARGE>
0

> <PUBCHEM_HEAVY_ATOM_COUNT>
33

> <PUBCHEM_ATOM_DEF_STEREO_COUNT>
0

> <PUBCHEM_ATOM_UDEF_STEREO_COUNT>
0

> <PUBCHEM_BOND_DEF_STEREO_COUNT>
0

> <PUBCHEM_BOND_UDEF_STEREO_COUNT>
0

> <PUBCHEM_ISOTOPIC_ATOM_COUNT>
0

> <PUBCHEM_COMPONENT_COUNT>
1

> <PUBCHEM_CACTVS_TAUTO_COUNT>
-1

> <PUBCHEM_COORDINATE_TYPE>
1
5
255

> <PUBCHEM_BONDANNOTATIONS>
10  13  8
12  15  8
13  16  8
15  16  8
17  18  8
17  21  8
18  22  8
21  26  8
22  27  8
23  28  8
23  29  8
26  27  8
28  30  8
29  31  8
30  32  8
31  32  8
9  10  8
9  12  8

$$$$
