12066265
  -OEChem-09292322112D

 58 62  0     1  0  0  0  0  0999 V2000
   10.9444    3.5095    0.0000 Cl  0  0  0  0  0  0  0  0  0  0  0  0
    9.9444    5.2416    0.0000 Cl  0  0  0  0  0  0  0  0  0  0  0  0
    2.0000   -4.0385    0.0000 F   0  0  0  0  0  0  0  0  0  0  0  0
    8.8230   -5.2416    0.0000 F   0  0  0  0  0  0  0  0  0  0  0  0
    5.9324   -1.6856    0.0000 O   0  0  0  0  0  0  0  0  0  0  0  0
    8.4444    0.9114    0.0000 N   0  0  0  0  0  0  0  0  0  0  0  0
    9.1810   -0.0712    0.0000 C   0  0  3  0  0  0  0  0  0  0  0  0
    8.9222   -1.0371    0.0000 C   0  0  3  0  0  0  0  0  0  0  0  0
   10.5799   -0.5800    0.0000 C   0  0  0  0  0  0  0  0  0  0  0  0
   10.3211   -1.5459    0.0000 C   0  0  0  0  0  0  0  0  0  0  0  0
    7.1478   -0.3823    0.0000 C   0  0  0  0  0  0  0  0  0  0  0  0
    7.7012   -1.9028    0.0000 C   0  0  0  0  0  0  0  0  0  0  0  0
    6.8721   -1.3436    0.0000 C   0  0  0  0  0  0  0  0  0  0  0  0
    7.9444    1.7775    0.0000 C   0  0  0  0  0  0  0  0  0  0  0  0
    8.4444    2.6435    0.0000 C   0  0  0  0  0  0  0  0  0  0  0  0
    5.7588   -2.6704    0.0000 C   0  0  0  0  0  0  0  0  0  0  0  0
    9.4444    2.6435    0.0000 C   0  0  0  0  0  0  0  0  0  0  0  0
    7.9444    3.5095    0.0000 C   0  0  0  0  0  0  0  0  0  0  0  0
    4.8191   -3.0124    0.0000 C   0  0  0  0  0  0  0  0  0  0  0  0
    6.5248   -3.3132    0.0000 C   0  0  0  0  0  0  0  0  0  0  0  0
    9.9444    3.5095    0.0000 C   0  0  0  0  0  0  0  0  0  0  0  0
    8.4444    4.3755    0.0000 C   0  0  0  0  0  0  0  0  0  0  0  0
    4.0530   -2.3696    0.0000 C   0  0  0  0  0  0  0  0  0  0  0  0
    7.4645   -2.9712    0.0000 C   0  0  0  0  0  0  0  0  0  0  0  0
    4.6454   -3.9972    0.0000 C   0  0  0  0  0  0  0  0  0  0  0  0
    6.3512   -4.2980    0.0000 C   0  0  0  0  0  0  0  0  0  0  0  0
    9.4444    4.3755    0.0000 C   0  0  0  0  0  0  0  0  0  0  0  0
    3.1133   -2.7117    0.0000 C   0  0  0  0  0  0  0  0  0  0  0  0
    8.2305   -3.6140    0.0000 C   0  0  0  0  0  0  0  0  0  0  0  0
    3.7057   -4.3392    0.0000 C   0  0  0  0  0  0  0  0  0  0  0  0
    7.1172   -4.9408    0.0000 C   0  0  0  0  0  0  0  0  0  0  0  0
    2.9397   -3.6965    0.0000 C   0  0  0  0  0  0  0  0  0  0  0  0
    8.0569   -4.5988    0.0000 C   0  0  0  0  0  0  0  0  0  0  0  0
    9.5504    0.4268    0.0000 H   0  0  0  0  0  0  0  0  0  0  0  0
    9.0050   -1.6516    0.0000 H   0  0  0  0  0  0  0  0  0  0  0  0
   11.1739   -0.7578    0.0000 H   0  0  0  0  0  0  0  0  0  0  0  0
   10.7749    0.0086    0.0000 H   0  0  0  0  0  0  0  0  0  0  0  0
   10.1262   -2.1345    0.0000 H   0  0  0  0  0  0  0  0  0  0  0  0
   10.9151   -1.7237    0.0000 H   0  0  0  0  0  0  0  0  0  0  0  0
    7.1427    0.2377    0.0000 H   0  0  0  0  0  0  0  0  0  0  0  0
    6.5334   -0.2985    0.0000 H   0  0  0  0  0  0  0  0  0  0  0  0
    7.2953   -2.3715    0.0000 H   0  0  0  0  0  0  0  0  0  0  0  0
    8.1178   -2.3619    0.0000 H   0  0  0  0  0  0  0  0  0  0  0  0
    6.7966   -1.9590    0.0000 H   0  0  0  0  0  0  0  0  0  0  0  0
    7.4694    2.1760    0.0000 H   0  0  0  0  0  0  0  0  0  0  0  0
    7.4694    1.3789    0.0000 H   0  0  0  0  0  0  0  0  0  0  0  0
    5.2838   -2.2719    0.0000 H   0  0  0  0  0  0  0  0  0  0  0  0
    9.7544    2.1065    0.0000 H   0  0  0  0  0  0  0  0  0  0  0  0
    7.3244    3.5095    0.0000 H   0  0  0  0  0  0  0  0  0  0  0  0
    8.1344    4.9125    0.0000 H   0  0  0  0  0  0  0  0  0  0  0  0
    4.1607   -1.7591    0.0000 H   0  0  0  0  0  0  0  0  0  0  0  0
    7.5722   -2.3606    0.0000 H   0  0  0  0  0  0  0  0  0  0  0  0
    5.1204   -4.3958    0.0000 H   0  0  0  0  0  0  0  0  0  0  0  0
    5.7686   -4.5100    0.0000 H   0  0  0  0  0  0  0  0  0  0  0  0
    2.6384   -2.3131    0.0000 H   0  0  0  0  0  0  0  0  0  0  0  0
    8.8132   -3.4019    0.0000 H   0  0  0  0  0  0  0  0  0  0  0  0
    3.5981   -4.9498    0.0000 H   0  0  0  0  0  0  0  0  0  0  0  0
    7.0096   -5.5514    0.0000 H   0  0  0  0  0  0  0  0  0  0  0  0
  1 21  1  0  0  0  0
  2 27  1  0  0  0  0
  3 32  1  0  0  0  0
  4 33  1  0  0  0  0
  5 13  1  0  0  0  0
  5 16  1  0  0  0  0
  6  7  1  0  0  0  0
  6  8  1  0  0  0  0
  6 14  1  0  0  0  0
  7  9  1  0  0  0  0
  7 11  1  0  0  0  0
  7 34  1  0  0  0  0
  8 10  1  0  0  0  0
  8 12  1  0  0  0  0
  8 35  1  0  0  0  0
  9 10  1  0  0  0  0
  9 36  1  0  0  0  0
  9 37  1  0  0  0  0
 10 38  1  0  0  0  0
 10 39  1  0  0  0  0
 11 13  1  0  0  0  0
 11 40  1  0  0  0  0
 11 41  1  0  0  0  0
 12 13  1  0  0  0  0
 12 42  1  0  0  0  0
 12 43  1  0  0  0  0
 13 44  1  0  0  0  0
 14 15  1  0  0  0  0
 14 45  1  0  0  0  0
 14 46  1  0  0  0  0
 15 17  2  0  0  0  0
 15 18  1  0  0  0  0
 16 19  1  0  0  0  0
 16 20  1  0  0  0  0
 16 47  1  0  0  0  0
 17 21  1  0  0  0  0
 17 48  1  0  0  0  0
 18 22  2  0  0  0  0
 18 49  1  0  0  0  0
 19 23  2  0  0  0  0
 19 25  1  0  0  0  0
 20 24  2  0  0  0  0
 20 26  1  0  0  0  0
 21 27  2  0  0  0  0
 22 27  1  0  0  0  0
 22 50  1  0  0  0  0
 23 28  1  0  0  0  0
 23 51  1  0  0  0  0
 24 29  1  0  0  0  0
 24 52  1  0  0  0  0
 25 30  2  0  0  0  0
 25 53  1  0  0  0  0
 26 31  2  0  0  0  0
 26 54  1  0  0  0  0
 28 32  2  0  0  0  0
 28 55  1  0  0  0  0
 29 33  2  0  0  0  0
 29 56  1  0  0  0  0
 30 32  1  0  0  0  0
 30 57  1  0  0  0  0
 31 33  1  0  0  0  0
 31 58  1  0  0  0  0
M  END
> <PUBCHEM_COMPOUND_CID>
12066265

> <PUBCHEM_COMPOUND_CANONICALIZED>
1

> <PUBCHEM_CACTVS_COMPLEXITY>
589

> <PUBCHEM_CACTVS_HBOND_ACCEPTOR>
4

> <PUBCHEM_CACTVS_HBOND_DONOR>
0

> <PUBCHEM_CACTVS_ROTATABLE_BOND>
6

> <PUBCHEM_CACTVS_SUBSKEYS>
AAADceB6IYAGAAAAAAAAAAAAAAAAAWAAAAA8YMEABgAAAAABUAAAHwIAAAAADD7hmC4wAIMABACAAiBCAACCAAAgBQAIikAIDogIJiKBsxmGMAhmwAGIqAeQwOAOBAAAIAAAAAQIAABAAAAACAAAAAAAAA==

> <PUBCHEM_IUPAC_OPENEYE_NAME>
3-[bis(4-fluorophenyl)methoxy]-8-[(3,4-dichlorophenyl)methyl]-8-azabicyclo[3.2.1]octane

> <PUBCHEM_IUPAC_CAS_NAME>
3-[bis(4-fluorophenyl)methoxy]-8-[(3,4-dichlorophenyl)methyl]-8-azabicyclo[3.2.1]octane

> <PUBCHEM_IUPAC_NAME_MARKUP>
3-[bis(4-fluorophenyl)methoxy]-8-[(3,4-dichlorophenyl)methyl]-8-azabicyclo[3.2.1]octane

> <PUBCHEM_IUPAC_NAME>
3-[bis(4-fluorophenyl)methoxy]-8-[(3,4-dichlorophenyl)methyl]-8-azabicyclo[3.2.1]octane

> <PUBCHEM_IUPAC_SYSTEMATIC_NAME>
3-[bis(4-fluorophenyl)methoxy]-8-[(3,4-dichlorophenyl)methyl]-8-azabicyclo[3.2.1]octane

> <PUBCHEM_IUPAC_TRADITIONAL_NAME>
3-[bis(4-fluorophenyl)methoxy]-8-(3,4-dichlorobenzyl)-8-azabicyclo[3.2.1]octane

> <PUBCHEM_IUPAC_INCHI>
InChI=1S/C27H25Cl2F2NO/c28-25-12-1-17(13-26(25)29)16-32-22-10-11-23(32)15-24(14-22)33-27(18-2-6-20(30)7-3-18)19-4-8-21(31)9-5-19/h1-9,12-13,22-24,27H,10-11,14-16H2

> <PUBCHEM_IUPAC_INCHIKEY>
NCXZEVAISDJVIG-UHFFFAOYSA-N

> <PUBCHEM_XLOGP3_AA>
7.4

> <PUBCHEM_EXACT_MASS>
487.1281261

> <PUBCHEM_MOLECULAR_FORMULA>
C27H25Cl2F2NO

> <PUBCHEM_MOLECULAR_WEIGHT>
488.4

> <PUBCHEM_OPENEYE_CAN_SMILES>
C1CC2CC(CC1N2CC3=CC(=C(C=C3)Cl)Cl)OC(C4=CC=C(C=C4)F)C5=CC=C(C=C5)F

> <PUBCHEM_OPENEYE_ISO_SMILES>
C1CC2CC(CC1N2CC3=CC(=C(C=C3)Cl)Cl)OC(C4=CC=C(C=C4)F)C5=CC=C(C=C5)F

> <PUBCHEM_CACTVS_TPSA>
12.5

> <PUBCHEM_MONOISOTOPIC_WEIGHT>
487.1281261

> <PUBCHEM_TOTAL_CHARGE>
0

> <PUBCHEM_HEAVY_ATOM_COUNT>
33

> <PUBCHEM_ATOM_DEF_STEREO_COUNT>
0

> <PUBCHEM_ATOM_UDEF_STEREO_COUNT>
2

> <PUBCHEM_BOND_DEF_STEREO_COUNT>
0

> <PUBCHEM_BOND_UDEF_STEREO_COUNT>
0

> <PUBCHEM_ISOTOPIC_ATOM_COUNT>
0

> <PUBCHEM_COMPONENT_COUNT>
1

> <PUBCHEM_CACTVS_TAUTO_COUNT>
-1

> <PUBCHEM_COORDINATE_TYPE>
1
5
255

> <PUBCHEM_BONDANNOTATIONS>
15  17  8
15  18  8
17  21  8
18  22  8
19  23  8
19  25  8
20  24  8
20  26  8
21  27  8
22  27  8
23  28  8
24  29  8
25  30  8
26  31  8
28  32  8
29  33  8
30  32  8
31  33  8
7  9  3
8  10  3

$$$$
