155547304
  -OEChem-09292322082D

 63 67  0     0  0  0  0  0  0999 V2000
    4.5274    2.5178    0.0000 S   0  0  0  0  0  0  0  0  0  0  0  0
    5.7533   -5.0971    0.0000 F   0  0  0  0  0  0  0  0  0  0  0  0
    7.0208   -4.4696    0.0000 F   0  0  0  0  0  0  0  0  0  0  0  0
    5.1259   -3.8297    0.0000 F   0  0  0  0  0  0  0  0  0  0  0  0
   12.5521    4.3565    0.0000 O   0  0  0  0  0  0  0  0  0  0  0  0
   10.5974    3.9332    0.0000 N   0  0  0  0  0  0  0  0  0  0  0  0
    6.3518    2.1623    0.0000 N   0  0  0  0  0  0  0  0  0  0  0  0
    6.7328    0.4030    0.0000 N   0  0  0  0  0  0  0  0  0  0  0  0
    5.3923   -0.7531    0.0000 N   0  0  0  0  0  0  0  0  0  0  0  0
    4.0274    0.9790    0.0000 C   0  0  0  0  0  0  0  0  0  0  0  0
    3.3424    0.1943    0.0000 C   0  0  0  0  0  0  0  0  0  0  0  0
    2.3219    0.4030    0.0000 C   0  0  0  0  0  0  0  0  0  0  0  0
    2.0000    1.3936    0.0000 C   0  0  0  0  0  0  0  0  0  0  0  0
    2.7029    2.1623    0.0000 C   0  0  0  0  0  0  0  0  0  0  0  0
    3.7183    1.9301    0.0000 C   0  0  0  0  0  0  0  0  0  0  0  0
    5.0274    0.9790    0.0000 C   0  0  0  0  0  0  0  0  0  0  0  0
    9.6201    3.7215    0.0000 C   0  0  0  0  0  0  0  0  0  0  0  0
    9.3148    2.7692    0.0000 C   0  0  0  0  0  0  0  0  0  0  0  0
    5.3364    1.9301    0.0000 C   0  0  0  0  0  0  0  0  0  0  0  0
    8.3374    2.5576    0.0000 C   0  0  0  0  0  0  0  0  0  0  0  0
   10.9028    4.8854    0.0000 C   0  0  0  0  0  0  0  0  0  0  0  0
   11.2694    3.1926    0.0000 C   0  0  0  0  0  0  0  0  0  0  0  0
    8.0321    1.6053    0.0000 C   0  0  0  0  0  0  0  0  0  0  0  0
    5.7123    0.1943    0.0000 C   0  0  0  0  0  0  0  0  0  0  0  0
    7.0547    1.3936    0.0000 C   0  0  0  0  0  0  0  0  0  0  0  0
   11.8801    5.0971    0.0000 C   0  0  0  0  0  0  0  0  0  0  0  0
   12.2468    3.4043    0.0000 C   0  0  0  0  0  0  0  0  0  0  0  0
    6.0528   -1.5040    0.0000 C   0  0  0  0  0  0  0  0  0  0  0  0
    5.7328   -2.4514    0.0000 C   0  0  0  0  0  0  0  0  0  0  0  0
    7.0333   -1.3074    0.0000 C   0  0  0  0  0  0  0  0  0  0  0  0
    6.3933   -3.2022    0.0000 C   0  0  0  0  0  0  0  0  0  0  0  0
    7.6938   -2.0582    0.0000 C   0  0  0  0  0  0  0  0  0  0  0  0
    7.3738   -3.0056    0.0000 C   0  0  0  0  0  0  0  0  0  0  0  0
    6.0733   -4.1496    0.0000 C   0  0  0  0  0  0  0  0  0  0  0  0
    3.1160   -0.3829    0.0000 H   0  0  0  0  0  0  0  0  0  0  0  0
    3.8724   -0.1275    0.0000 H   0  0  0  0  0  0  0  0  0  0  0  0
    1.7081    0.3151    0.0000 H   0  0  0  0  0  0  0  0  0  0  0  0
    2.3034   -0.2167    0.0000 H   0  0  0  0  0  0  0  0  0  0  0  0
    1.6208    1.8842    0.0000 H   0  0  0  0  0  0  0  0  0  0  0  0
    1.4518    1.1040    0.0000 H   0  0  0  0  0  0  0  0  0  0  0  0
    2.9426    2.7341    0.0000 H   0  0  0  0  0  0  0  0  0  0  0  0
    2.1806    2.4962    0.0000 H   0  0  0  0  0  0  0  0  0  0  0  0
    9.5961    4.3410    0.0000 H   0  0  0  0  0  0  0  0  0  0  0  0
    9.0058    3.8054    0.0000 H   0  0  0  0  0  0  0  0  0  0  0  0
    9.3388    2.1497    0.0000 H   0  0  0  0  0  0  0  0  0  0  0  0
    9.9290    2.6853    0.0000 H   0  0  0  0  0  0  0  0  0  0  0  0
    8.3134    3.1771    0.0000 H   0  0  0  0  0  0  0  0  0  0  0  0
    7.7231    2.6415    0.0000 H   0  0  0  0  0  0  0  0  0  0  0  0
   10.8788    5.5049    0.0000 H   0  0  0  0  0  0  0  0  0  0  0  0
   10.2885    4.9693    0.0000 H   0  0  0  0  0  0  0  0  0  0  0  0
   10.7449    2.8620    0.0000 H   0  0  0  0  0  0  0  0  0  0  0  0
   11.5039    2.6186    0.0000 H   0  0  0  0  0  0  0  0  0  0  0  0
    8.0561    0.9858    0.0000 H   0  0  0  0  0  0  0  0  0  0  0  0
    8.6464    1.5214    0.0000 H   0  0  0  0  0  0  0  0  0  0  0  0
   12.4046    5.4276    0.0000 H   0  0  0  0  0  0  0  0  0  0  0  0
   11.6457    5.6710    0.0000 H   0  0  0  0  0  0  0  0  0  0  0  0
   12.2708    2.7847    0.0000 H   0  0  0  0  0  0  0  0  0  0  0  0
   12.8611    3.3204    0.0000 H   0  0  0  0  0  0  0  0  0  0  0  0
    4.7844   -0.8750    0.0000 H   0  0  0  0  0  0  0  0  0  0  0  0
    5.1249   -2.5733    0.0000 H   0  0  0  0  0  0  0  0  0  0  0  0
    7.2317   -0.7200    0.0000 H   0  0  0  0  0  0  0  0  0  0  0  0
    8.3017   -1.9363    0.0000 H   0  0  0  0  0  0  0  0  0  0  0  0
    7.7833   -3.4712    0.0000 H   0  0  0  0  0  0  0  0  0  0  0  0
  1 15  1  0  0  0  0
  1 19  1  0  0  0  0
  2 34  1  0  0  0  0
  3 34  1  0  0  0  0
  4 34  1  0  0  0  0
  5 26  1  0  0  0  0
  5 27  1  0  0  0  0
  6 17  1  0  0  0  0
  6 21  1  0  0  0  0
  6 22  1  0  0  0  0
  7 19  2  0  0  0  0
  7 25  1  0  0  0  0
  8 24  1  0  0  0  0
  8 25  2  0  0  0  0
  9 24  1  0  0  0  0
  9 28  1  0  0  0  0
  9 59  1  0  0  0  0
 10 11  1  0  0  0  0
 10 15  2  0  0  0  0
 10 16  1  0  0  0  0
 11 12  1  0  0  0  0
 11 35  1  0  0  0  0
 11 36  1  0  0  0  0
 12 13  1  0  0  0  0
 12 37  1  0  0  0  0
 12 38  1  0  0  0  0
 13 14  1  0  0  0  0
 13 39  1  0  0  0  0
 13 40  1  0  0  0  0
 14 15  1  0  0  0  0
 14 41  1  0  0  0  0
 14 42  1  0  0  0  0
 16 19  1  0  0  0  0
 16 24  2  0  0  0  0
 17 18  1  0  0  0  0
 17 43  1  0  0  0  0
 17 44  1  0  0  0  0
 18 20  1  0  0  0  0
 18 45  1  0  0  0  0
 18 46  1  0  0  0  0
 20 23  1  0  0  0  0
 20 47  1  0  0  0  0
 20 48  1  0  0  0  0
 21 26  1  0  0  0  0
 21 49  1  0  0  0  0
 21 50  1  0  0  0  0
 22 27  1  0  0  0  0
 22 51  1  0  0  0  0
 22 52  1  0  0  0  0
 23 25  1  0  0  0  0
 23 53  1  0  0  0  0
 23 54  1  0  0  0  0
 26 55  1  0  0  0  0
 26 56  1  0  0  0  0
 27 57  1  0  0  0  0
 27 58  1  0  0  0  0
 28 29  1  0  0  0  0
 28 30  2  0  0  0  0
 29 31  2  0  0  0  0
 29 60  1  0  0  0  0
 30 32  1  0  0  0  0
 30 61  1  0  0  0  0
 31 33  1  0  0  0  0
 31 34  1  0  0  0  0
 32 33  2  0  0  0  0
 32 62  1  0  0  0  0
 33 63  1  0  0  0  0
M  END
> <PUBCHEM_COMPOUND_CID>
155547304

> <PUBCHEM_COMPOUND_CANONICALIZED>
1

> <PUBCHEM_CACTVS_COMPLEXITY>
650

> <PUBCHEM_CACTVS_HBOND_ACCEPTOR>
9

> <PUBCHEM_CACTVS_HBOND_DONOR>
1

> <PUBCHEM_CACTVS_ROTATABLE_BOND>
7

> <PUBCHEM_CACTVS_SUBSKEYS>
AAADceB7oYBAAAAAAAAAAAAAAAAAASAAAAA8eIEAAAAAAFgB/AAAHwQQAAAADAjh2xYx8dfIFAikAiZiZACD0KlhCrgJmDA4ZJiKKGLg2dGHJAxokAL4yCcQgMAOgAAAQAAAAAAAAACAAAgAAAAAAAAAAA==

> <PUBCHEM_IUPAC_OPENEYE_NAME>
2-(4-morpholinobutyl)-N-[3-(trifluoromethyl)phenyl]-5,6,7,8-tetrahydrobenzothiopheno[2,3-d]pyrimidin-4-amine

> <PUBCHEM_IUPAC_CAS_NAME>
2-[4-(4-morpholinyl)butyl]-N-[3-(trifluoromethyl)phenyl]-5,6,7,8-tetrahydro-[1]benzothiolo[2,3-d]pyrimidin-4-amine

> <PUBCHEM_IUPAC_NAME_MARKUP>
2-(4-morpholin-4-ylbutyl)-<I>N</I>-[3-(trifluoromethyl)phenyl]-5,6,7,8-tetrahydro-[1]benzothiolo[2,3-d]pyrimidin-4-amine

> <PUBCHEM_IUPAC_NAME>
2-(4-morpholin-4-ylbutyl)-N-[3-(trifluoromethyl)phenyl]-5,6,7,8-tetrahydro-[1]benzothiolo[2,3-d]pyrimidin-4-amine

> <PUBCHEM_IUPAC_SYSTEMATIC_NAME>
2-(4-morpholin-4-ylbutyl)-N-[3-(trifluoromethyl)phenyl]-5,6,7,8-tetrahydro-[1]benzothiolo[2,3-d]pyrimidin-4-amine

> <PUBCHEM_IUPAC_TRADITIONAL_NAME>
[2-(4-morpholinobutyl)-5,6,7,8-tetrahydrobenzothiopheno[2,3-d]pyrimidin-4-yl]-[3-(trifluoromethyl)phenyl]amine

> <PUBCHEM_IUPAC_INCHI>
InChI=1S/C25H29F3N4OS/c26-25(27,28)17-6-5-7-18(16-17)29-23-22-19-8-1-2-9-20(19)34-24(22)31-21(30-23)10-3-4-11-32-12-14-33-15-13-32/h5-7,16H,1-4,8-15H2,(H,29,30,31)

> <PUBCHEM_IUPAC_INCHIKEY>
BSXXDZNTPNXSSN-UHFFFAOYSA-N

> <PUBCHEM_XLOGP3_AA>
6.2

> <PUBCHEM_EXACT_MASS>
490.20141722

> <PUBCHEM_MOLECULAR_FORMULA>
C25H29F3N4OS

> <PUBCHEM_MOLECULAR_WEIGHT>
490.6

> <PUBCHEM_OPENEYE_CAN_SMILES>
C1CCC2=C(C1)C3=C(N=C(N=C3S2)CCCCN4CCOCC4)NC5=CC=CC(=C5)C(F)(F)F

> <PUBCHEM_OPENEYE_ISO_SMILES>
C1CCC2=C(C1)C3=C(N=C(N=C3S2)CCCCN4CCOCC4)NC5=CC=CC(=C5)C(F)(F)F

> <PUBCHEM_CACTVS_TPSA>
78.5

> <PUBCHEM_MONOISOTOPIC_WEIGHT>
490.20141722

> <PUBCHEM_TOTAL_CHARGE>
0

> <PUBCHEM_HEAVY_ATOM_COUNT>
34

> <PUBCHEM_ATOM_DEF_STEREO_COUNT>
0

> <PUBCHEM_ATOM_UDEF_STEREO_COUNT>
0

> <PUBCHEM_BOND_DEF_STEREO_COUNT>
0

> <PUBCHEM_BOND_UDEF_STEREO_COUNT>
0

> <PUBCHEM_ISOTOPIC_ATOM_COUNT>
0

> <PUBCHEM_COMPONENT_COUNT>
1

> <PUBCHEM_CACTVS_TAUTO_COUNT>
-1

> <PUBCHEM_COORDINATE_TYPE>
1
5
255

> <PUBCHEM_BONDANNOTATIONS>
1  15  8
1  19  8
10  15  8
10  16  8
16  19  8
16  24  8
28  29  8
28  30  8
29  31  8
30  32  8
31  33  8
32  33  8
7  19  8
7  25  8
8  24  8
8  25  8

$$$$
