121304705
  -OEChem-09292322372D

 60 64  0     1  0  0  0  0  0999 V2000
    4.8479    1.9147    0.0000 S   0  0  0  0  0  0  0  0  0  0  0  0
   10.5401   -6.4353    0.0000 F   0  0  0  0  0  0  0  0  0  0  0  0
    9.1741   -6.8014    0.0000 F   0  0  0  0  0  0  0  0  0  0  0  0
   10.1741   -5.0693    0.0000 F   0  0  0  0  0  0  0  0  0  0  0  0
    5.2100   -1.5305    0.0000 N   0  0  3  0  0  0  0  0  0  0  0  0
    4.5691    3.6747    0.0000 N   0  0  0  0  0  0  0  0  0  0  0  0
    3.2601    2.7237    0.0000 N   0  0  0  0  0  0  0  0  0  0  0  0
    2.9511    3.6747    0.0000 N   0  0  0  0  0  0  0  0  0  0  0  0
    2.9511    5.8503    0.0000 N   0  0  0  0  0  0  0  0  0  0  0  0
    3.2601    6.8014    0.0000 N   0  0  0  0  0  0  0  0  0  0  0  0
    5.7100   -3.0693    0.0000 C   0  0  2  0  0  0  0  0  0  0  0  0
    6.2100   -3.9353    0.0000 C   0  0  2  0  0  0  0  0  0  0  0  0
    5.2100   -3.9353    0.0000 C   0  0  0  0  0  0  0  0  0  0  0  0
    6.5190   -2.4815    0.0000 C   0  0  0  0  0  0  0  0  0  0  0  0
    4.9009   -2.4815    0.0000 C   0  0  0  0  0  0  0  0  0  0  0  0
    6.2100   -1.5305    0.0000 C   0  0  0  0  0  0  0  0  0  0  0  0
    7.0760   -4.4353    0.0000 C   0  0  0  0  0  0  0  0  0  0  0  0
    4.6222   -0.7214    0.0000 C   0  0  0  0  0  0  0  0  0  0  0  0
    7.0760   -5.4353    0.0000 C   0  0  0  0  0  0  0  0  0  0  0  0
    7.9420   -3.9353    0.0000 C   0  0  0  0  0  0  0  0  0  0  0  0
    5.0289    0.1921    0.0000 C   0  0  0  0  0  0  0  0  0  0  0  0
    7.9420   -5.9353    0.0000 C   0  0  0  0  0  0  0  0  0  0  0  0
    8.8080   -4.4353    0.0000 C   0  0  0  0  0  0  0  0  0  0  0  0
    8.8080   -5.4353    0.0000 C   0  0  0  0  0  0  0  0  0  0  0  0
    4.4411    1.0011    0.0000 C   0  0  0  0  0  0  0  0  0  0  0  0
    9.6741   -5.9353    0.0000 C   0  0  0  0  0  0  0  0  0  0  0  0
    4.2601    2.7237    0.0000 C   0  0  0  0  0  0  0  0  0  0  0  0
    3.7601    4.2625    0.0000 C   0  0  0  0  0  0  0  0  0  0  0  0
    5.5202    3.9838    0.0000 C   0  0  0  0  0  0  0  0  0  0  0  0
    3.7601    5.2625    0.0000 C   0  0  0  0  0  0  0  0  0  0  0  0
    4.5691    5.8503    0.0000 C   0  0  0  0  0  0  0  0  0  0  0  0
    4.2601    6.8014    0.0000 C   0  0  0  0  0  0  0  0  0  0  0  0
    2.0000    5.5413    0.0000 C   0  0  0  0  0  0  0  0  0  0  0  0
    6.0495   -4.5342    0.0000 H   0  0  0  0  0  0  0  0  0  0  0  0
    4.6274   -3.7233    0.0000 H   0  0  0  0  0  0  0  0  0  0  0  0
    5.1023   -4.5459    0.0000 H   0  0  0  0  0  0  0  0  0  0  0  0
    6.8290   -3.0185    0.0000 H   0  0  0  0  0  0  0  0  0  0  0  0
    7.0854   -2.2294    0.0000 H   0  0  0  0  0  0  0  0  0  0  0  0
    4.3345   -2.2294    0.0000 H   0  0  0  0  0  0  0  0  0  0  0  0
    4.5909   -3.0185    0.0000 H   0  0  0  0  0  0  0  0  0  0  0  0
    6.8164   -1.4016    0.0000 H   0  0  0  0  0  0  0  0  0  0  0  0
    6.1452   -0.9139    0.0000 H   0  0  0  0  0  0  0  0  0  0  0  0
    4.1082   -0.3748    0.0000 H   0  0  0  0  0  0  0  0  0  0  0  0
    4.1915   -1.1674    0.0000 H   0  0  0  0  0  0  0  0  0  0  0  0
    6.5390   -5.7453    0.0000 H   0  0  0  0  0  0  0  0  0  0  0  0
    7.9420   -3.3153    0.0000 H   0  0  0  0  0  0  0  0  0  0  0  0
    5.5429   -0.1546    0.0000 H   0  0  0  0  0  0  0  0  0  0  0  0
    5.4596    0.6381    0.0000 H   0  0  0  0  0  0  0  0  0  0  0  0
    7.9420   -6.5553    0.0000 H   0  0  0  0  0  0  0  0  0  0  0  0
    9.3450   -4.1253    0.0000 H   0  0  0  0  0  0  0  0  0  0  0  0
    3.9271    1.3478    0.0000 H   0  0  0  0  0  0  0  0  0  0  0  0
    4.0104    0.5551    0.0000 H   0  0  0  0  0  0  0  0  0  0  0  0
    5.7117    3.3941    0.0000 H   0  0  0  0  0  0  0  0  0  0  0  0
    6.1098    4.1753    0.0000 H   0  0  0  0  0  0  0  0  0  0  0  0
    5.3286    4.5734    0.0000 H   0  0  0  0  0  0  0  0  0  0  0  0
    5.1588    5.6587    0.0000 H   0  0  0  0  0  0  0  0  0  0  0  0
    4.6245    7.3030    0.0000 H   0  0  0  0  0  0  0  0  0  0  0  0
    1.8084    6.1309    0.0000 H   0  0  0  0  0  0  0  0  0  0  0  0
    1.4103    5.3497    0.0000 H   0  0  0  0  0  0  0  0  0  0  0  0
    2.1916    4.9516    0.0000 H   0  0  0  0  0  0  0  0  0  0  0  0
  1 25  1  0  0  0  0
  1 27  1  0  0  0  0
  2 26  1  0  0  0  0
  3 26  1  0  0  0  0
  4 26  1  0  0  0  0
  5 15  1  0  0  0  0
  5 16  1  0  0  0  0
  5 18  1  0  0  0  0
  6 27  1  0  0  0  0
  6 28  1  0  0  0  0
  6 29  1  0  0  0  0
  7  8  1  0  0  0  0
  7 27  2  0  0  0  0
  8 28  2  0  0  0  0
  9 10  1  0  0  0  0
  9 30  1  0  0  0  0
  9 33  1  0  0  0  0
 10 32  2  0  0  0  0
 11 12  1  0  0  0  0
 11 13  1  6  0  0  0
 11 14  1  0  0  0  0
 11 15  1  0  0  0  0
 12 13  1  0  0  0  0
 12 17  1  1  0  0  0
 12 34  1  0  0  0  0
 13 35  1  0  0  0  0
 13 36  1  0  0  0  0
 14 16  1  0  0  0  0
 14 37  1  0  0  0  0
 14 38  1  0  0  0  0
 15 39  1  0  0  0  0
 15 40  1  0  0  0  0
 16 41  1  0  0  0  0
 16 42  1  0  0  0  0
 17 19  2  0  0  0  0
 17 20  1  0  0  0  0
 18 21  1  0  0  0  0
 18 43  1  0  0  0  0
 18 44  1  0  0  0  0
 19 22  1  0  0  0  0
 19 45  1  0  0  0  0
 20 23  2  0  0  0  0
 20 46  1  0  0  0  0
 21 25  1  0  0  0  0
 21 47  1  0  0  0  0
 21 48  1  0  0  0  0
 22 24  2  0  0  0  0
 22 49  1  0  0  0  0
 23 24  1  0  0  0  0
 23 50  1  0  0  0  0
 24 26  1  0  0  0  0
 25 51  1  0  0  0  0
 25 52  1  0  0  0  0
 28 30  1  0  0  0  0
 29 53  1  0  0  0  0
 29 54  1  0  0  0  0
 29 55  1  0  0  0  0
 30 31  2  0  0  0  0
 31 32  1  0  0  0  0
 31 56  1  0  0  0  0
 32 57  1  0  0  0  0
 33 58  1  0  0  0  0
 33 59  1  0  0  0  0
 33 60  1  0  0  0  0
M  END
> <PUBCHEM_COMPOUND_CID>
121304705

> <PUBCHEM_COMPOUND_CANONICALIZED>
1

> <PUBCHEM_CACTVS_COMPLEXITY>
675

> <PUBCHEM_CACTVS_HBOND_ACCEPTOR>
8

> <PUBCHEM_CACTVS_HBOND_DONOR>
0

> <PUBCHEM_CACTVS_ROTATABLE_BOND>
7

> <PUBCHEM_CACTVS_SUBSKEYS>
AAADceB7gYBAAAAAAAAAAAAAGAAAAWLFgAAwAAAAAAAAAAAB8AAAHQQIAAAADwjFXxS/kJcMEAiiAzZnZACS1AthgrAd2CA4ZJiIaKLg2dGUpAhgiALIyAcQgMAPwAAAAAAAAACAAAAAAAAAAAAAAAAAAA==

> <PUBCHEM_IUPAC_OPENEYE_NAME>
(2R,3S)-5-[3-[[4-methyl-5-(2-methylpyrazol-3-yl)-1,2,4-triazol-3-yl]sulfanyl]propyl]-2-[4-(trifluoromethyl)phenyl]-5-azaspiro[2.4]heptane

> <PUBCHEM_IUPAC_CAS_NAME>
(2R,3S)-5-[3-[[4-methyl-5-(2-methyl-3-pyrazolyl)-1,2,4-triazol-3-yl]thio]propyl]-2-[4-(trifluoromethyl)phenyl]-5-azaspiro[2.4]heptane

> <PUBCHEM_IUPAC_NAME_MARKUP>
(2<I>R</I>,3<I>S</I>)-5-[3-[[4-methyl-5-(2-methylpyrazol-3-yl)-1,2,4-triazol-3-yl]sulfanyl]propyl]-2-[4-(trifluoromethyl)phenyl]-5-azaspiro[2.4]heptane

> <PUBCHEM_IUPAC_NAME>
(2R,3S)-5-[3-[[4-methyl-5-(2-methylpyrazol-3-yl)-1,2,4-triazol-3-yl]sulfanyl]propyl]-2-[4-(trifluoromethyl)phenyl]-5-azaspiro[2.4]heptane

> <PUBCHEM_IUPAC_SYSTEMATIC_NAME>
(2R,3S)-5-[3-[[4-methyl-5-(2-methylpyrazol-3-yl)-1,2,4-triazol-3-yl]sulfanyl]propyl]-2-[4-(trifluoromethyl)phenyl]-5-azaspiro[2.4]heptane

> <PUBCHEM_IUPAC_TRADITIONAL_NAME>
(2R,3S)-5-[3-[[4-methyl-5-(2-methylpyrazol-3-yl)-1,2,4-triazol-3-yl]thio]propyl]-2-[4-(trifluoromethyl)phenyl]-5-azaspiro[2.4]heptane

> <PUBCHEM_IUPAC_INCHI>
InChI=1S/C23H27F3N6S/c1-30-20(19-8-10-27-31(19)2)28-29-21(30)33-13-3-11-32-12-9-22(15-32)14-18(22)16-4-6-17(7-5-16)23(24,25)26/h4-8,10,18H,3,9,11-15H2,1-2H3/t18-,22+/m1/s1

> <PUBCHEM_IUPAC_INCHIKEY>
BADZIIJBCNPURN-GCJKJVERSA-N

> <PUBCHEM_XLOGP3_AA>
3.7

> <PUBCHEM_EXACT_MASS>
476.19700055

> <PUBCHEM_MOLECULAR_FORMULA>
C23H27F3N6S

> <PUBCHEM_MOLECULAR_WEIGHT>
476.6

> <PUBCHEM_OPENEYE_CAN_SMILES>
CN1C(=CC=N1)C2=NN=C(N2C)SCCCN3CCC4(C3)CC4C5=CC=C(C=C5)C(F)(F)F

> <PUBCHEM_OPENEYE_ISO_SMILES>
CN1C(=CC=N1)C2=NN=C(N2C)SCCCN3CC[C@@]4(C3)C[C@@H]4C5=CC=C(C=C5)C(F)(F)F

> <PUBCHEM_CACTVS_TPSA>
77.1

> <PUBCHEM_MONOISOTOPIC_WEIGHT>
476.19700055

> <PUBCHEM_TOTAL_CHARGE>
0

> <PUBCHEM_HEAVY_ATOM_COUNT>
33

> <PUBCHEM_ATOM_DEF_STEREO_COUNT>
2

> <PUBCHEM_ATOM_UDEF_STEREO_COUNT>
0

> <PUBCHEM_BOND_DEF_STEREO_COUNT>
0

> <PUBCHEM_BOND_UDEF_STEREO_COUNT>
0

> <PUBCHEM_ISOTOPIC_ATOM_COUNT>
0

> <PUBCHEM_COMPONENT_COUNT>
1

> <PUBCHEM_CACTVS_TAUTO_COUNT>
-1

> <PUBCHEM_COORDINATE_TYPE>
1
5
255

> <PUBCHEM_BONDANNOTATIONS>
10  32  8
11  13  6
12  17  5
17  19  8
17  20  8
19  22  8
20  23  8
22  24  8
23  24  8
30  31  8
31  32  8
6  27  8
6  28  8
7  27  8
7  8  8
8  28  8
9  10  8
9  30  8

$$$$
