10375676
  -OEChem-09292322132D

 34 35  0     1  0  0  0  0  0999 V2000
    8.0785   -1.6692    0.0000 O   0  0  0  0  0  0  0  0  0  0  0  0
    4.5981    1.3654    0.0000 N   0  0  0  0  0  0  0  0  0  0  0  0
    5.4641    0.8654    0.0000 C   0  0  3  0  0  0  0  0  0  0  0  0
    5.4641   -0.1346    0.0000 C   0  0  0  0  0  0  0  0  0  0  0  0
    6.3301    1.3654    0.0000 C   0  0  0  0  0  0  0  0  0  0  0  0
    6.3301   -0.6346    0.0000 C   0  0  0  0  0  0  0  0  0  0  0  0
    7.1962    0.8654    0.0000 C   0  0  0  0  0  0  0  0  0  0  0  0
    7.1962   -0.1346    0.0000 C   0  0  0  0  0  0  0  0  0  0  0  0
    3.7320    0.8654    0.0000 C   0  0  0  0  0  0  0  0  0  0  0  0
    8.0901   -0.6693    0.0000 C   0  0  0  0  0  0  0  0  0  0  0  0
    8.0901    1.4000    0.0000 C   0  0  0  0  0  0  0  0  0  0  0  0
    2.8660    1.3654    0.0000 C   0  0  0  0  0  0  0  0  0  0  0  0
    8.9962   -0.1554    0.0000 C   0  0  0  0  0  0  0  0  0  0  0  0
    8.9962    0.8862    0.0000 C   0  0  0  0  0  0  0  0  0  0  0  0
    2.0000    0.8654    0.0000 C   0  0  0  0  0  0  0  0  0  0  0  0
    4.7280    0.4404    0.0000 H   0  0  0  0  0  0  0  0  0  0  0  0
    4.8535   -0.0269    0.0000 H   0  0  0  0  0  0  0  0  0  0  0  0
    5.2520   -0.7172    0.0000 H   0  0  0  0  0  0  0  0  0  0  0  0
    6.7287    1.8403    0.0000 H   0  0  0  0  0  0  0  0  0  0  0  0
    5.9316    1.8403    0.0000 H   0  0  0  0  0  0  0  0  0  0  0  0
    5.9316   -1.1096    0.0000 H   0  0  0  0  0  0  0  0  0  0  0  0
    6.7287   -1.1096    0.0000 H   0  0  0  0  0  0  0  0  0  0  0  0
    4.5981    1.9854    0.0000 H   0  0  0  0  0  0  0  0  0  0  0  0
    3.3335    0.3904    0.0000 H   0  0  0  0  0  0  0  0  0  0  0  0
    4.1306    0.3904    0.0000 H   0  0  0  0  0  0  0  0  0  0  0  0
    8.0829    2.0200    0.0000 H   0  0  0  0  0  0  0  0  0  0  0  0
    3.2646    1.8403    0.0000 H   0  0  0  0  0  0  0  0  0  0  0  0
    2.4675    1.8403    0.0000 H   0  0  0  0  0  0  0  0  0  0  0  0
    9.5319   -0.4675    0.0000 H   0  0  0  0  0  0  0  0  0  0  0  0
    9.5319    1.1983    0.0000 H   0  0  0  0  0  0  0  0  0  0  0  0
    1.6900    1.4023    0.0000 H   0  0  0  0  0  0  0  0  0  0  0  0
    1.4631    0.5554    0.0000 H   0  0  0  0  0  0  0  0  0  0  0  0
    2.3100    0.3285    0.0000 H   0  0  0  0  0  0  0  0  0  0  0  0
    8.6118   -1.9854    0.0000 H   0  0  0  0  0  0  0  0  0  0  0  0
  1 10  1  0  0  0  0
  1 34  1  0  0  0  0
  2  3  1  0  0  0  0
  2  9  1  0  0  0  0
  2 23  1  0  0  0  0
  3  4  1  0  0  0  0
  3  5  1  0  0  0  0
  3 16  1  0  0  0  0
  4  6  1  0  0  0  0
  4 17  1  0  0  0  0
  4 18  1  0  0  0  0
  5  7  1  0  0  0  0
  5 19  1  0  0  0  0
  5 20  1  0  0  0  0
  6  8  1  0  0  0  0
  6 21  1  0  0  0  0
  6 22  1  0  0  0  0
  7  8  2  0  0  0  0
  7 11  1  0  0  0  0
  8 10  1  0  0  0  0
  9 12  1  0  0  0  0
  9 24  1  0  0  0  0
  9 25  1  0  0  0  0
 10 13  2  0  0  0  0
 11 14  2  0  0  0  0
 11 26  1  0  0  0  0
 12 15  1  0  0  0  0
 12 27  1  0  0  0  0
 12 28  1  0  0  0  0
 13 14  1  0  0  0  0
 13 29  1  0  0  0  0
 14 30  1  0  0  0  0
 15 31  1  0  0  0  0
 15 32  1  0  0  0  0
 15 33  1  0  0  0  0
M  END
> <PUBCHEM_COMPOUND_CID>
10375676

> <PUBCHEM_COMPOUND_CANONICALIZED>
1

> <PUBCHEM_CACTVS_COMPLEXITY>
195

> <PUBCHEM_CACTVS_HBOND_ACCEPTOR>
2

> <PUBCHEM_CACTVS_HBOND_DONOR>
2

> <PUBCHEM_CACTVS_ROTATABLE_BOND>
3

> <PUBCHEM_CACTVS_SUBSKEYS>
AAADceByIAAAAAAAAAAAAAAAAAAAAAAAAAAwYAAAAAAAAADBAAAAHgAQCAAADCzBmAQyBoLAAgCAAiBCAAACAAAgIAAIiIAOCIgIJiKCkROEcAAk0BGImAeQ0LMOgAABAAAYAAAQAAKAADAAAAAAAAAAAA==

> <PUBCHEM_IUPAC_OPENEYE_NAME>
2-(propylamino)tetralin-5-ol

> <PUBCHEM_IUPAC_CAS_NAME>
6-(propylamino)-5,6,7,8-tetrahydronaphthalen-1-ol

> <PUBCHEM_IUPAC_NAME_MARKUP>
6-(propylamino)-5,6,7,8-tetrahydronaphthalen-1-ol

> <PUBCHEM_IUPAC_NAME>
6-(propylamino)-5,6,7,8-tetrahydronaphthalen-1-ol

> <PUBCHEM_IUPAC_SYSTEMATIC_NAME>
6-(propylamino)-5,6,7,8-tetrahydronaphthalen-1-ol

> <PUBCHEM_IUPAC_TRADITIONAL_NAME>
2-(propylamino)tetralin-5-ol

> <PUBCHEM_IUPAC_INCHI>
InChI=1S/C13H19NO/c1-2-8-14-11-6-7-12-10(9-11)4-3-5-13(12)15/h3-5,11,14-15H,2,6-9H2,1H3

> <PUBCHEM_IUPAC_INCHIKEY>
VCYPZWCFSAHTQT-UHFFFAOYSA-N

> <PUBCHEM_XLOGP3_AA>
2.7

> <PUBCHEM_EXACT_MASS>
205.146664230

> <PUBCHEM_MOLECULAR_FORMULA>
C13H19NO

> <PUBCHEM_MOLECULAR_WEIGHT>
205.30

> <PUBCHEM_OPENEYE_CAN_SMILES>
CCCNC1CCC2=C(C1)C=CC=C2O

> <PUBCHEM_OPENEYE_ISO_SMILES>
CCCNC1CCC2=C(C1)C=CC=C2O

> <PUBCHEM_CACTVS_TPSA>
32.3

> <PUBCHEM_MONOISOTOPIC_WEIGHT>
205.146664230

> <PUBCHEM_TOTAL_CHARGE>
0

> <PUBCHEM_HEAVY_ATOM_COUNT>
15

> <PUBCHEM_ATOM_DEF_STEREO_COUNT>
0

> <PUBCHEM_ATOM_UDEF_STEREO_COUNT>
1

> <PUBCHEM_BOND_DEF_STEREO_COUNT>
0

> <PUBCHEM_BOND_UDEF_STEREO_COUNT>
0

> <PUBCHEM_ISOTOPIC_ATOM_COUNT>
0

> <PUBCHEM_COMPONENT_COUNT>
1

> <PUBCHEM_CACTVS_TAUTO_COUNT>
9

> <PUBCHEM_COORDINATE_TYPE>
1
5
255

> <PUBCHEM_BONDANNOTATIONS>
10  13  8
11  14  8
13  14  8
3  16  3
7  11  8
7  8  8
8  10  8

$$$$
