162419835
  -OEChem-09292322442D

 79 82  0     0  0  0  0  0  0999 V2000
    2.0000   -4.7990    0.0000 Cl  0  0  0  0  0  0  0  0  0  0  0  0
    2.0000   -6.7990    0.0000 Cl  0  0  0  0  0  0  0  0  0  0  0  0
    7.1962    2.4689    0.0000 O   0  0  0  0  0  0  0  0  0  0  0  0
    3.7320   -1.7990    0.0000 N   0  0  0  0  0  0  0  0  0  0  0  0
    3.7320   -3.7990    0.0000 N   0  0  0  0  0  0  0  0  0  0  0  0
    5.4641    2.2010    0.0000 N   0  0  0  0  0  0  0  0  0  0  0  0
    8.4622    2.6922    0.0000 N   0  0  0  0  0  0  0  0  0  0  0  0
    2.8660   -2.2990    0.0000 C   0  0  0  0  0  0  0  0  0  0  0  0
    4.5981   -2.2990    0.0000 C   0  0  0  0  0  0  0  0  0  0  0  0
    7.1962    4.2010    0.0000 C   0  0  0  0  0  0  0  0  0  0  0  0
    3.7320   -0.7990    0.0000 C   0  0  0  0  0  0  0  0  0  0  0  0
    2.8660   -3.2990    0.0000 C   0  0  0  0  0  0  0  0  0  0  0  0
    4.5981   -3.2990    0.0000 C   0  0  0  0  0  0  0  0  0  0  0  0
    4.5981   -0.2990    0.0000 C   0  0  0  0  0  0  0  0  0  0  0  0
    6.3301    3.7010    0.0000 C   0  0  0  0  0  0  0  0  0  0  0  0
    4.5981    0.7010    0.0000 C   0  0  0  0  0  0  0  0  0  0  0  0
    6.3301    2.7010    0.0000 C   0  0  0  0  0  0  0  0  0  0  0  0
    5.4641    1.2010    0.0000 C   0  0  0  0  0  0  0  0  0  0  0  0
    8.0622    4.7010    0.0000 C   0  0  0  0  0  0  0  0  0  0  0  0
    6.6962    5.0670    0.0000 C   0  0  0  0  0  0  0  0  0  0  0  0
    7.6962    3.3349    0.0000 C   0  0  0  0  0  0  0  0  0  0  0  0
    3.7320   -4.7990    0.0000 C   0  0  0  0  0  0  0  0  0  0  0  0
    8.9282    4.2010    0.0000 C   0  0  0  0  0  0  0  0  0  0  0  0
    5.6962    5.0670    0.0000 C   0  0  0  0  0  0  0  0  0  0  0  0
    8.0622    5.7010    0.0000 C   0  0  0  0  0  0  0  0  0  0  0  0
    7.1962    5.9330    0.0000 C   0  0  0  0  0  0  0  0  0  0  0  0
    2.8660   -5.2990    0.0000 C   0  0  0  0  0  0  0  0  0  0  0  0
    4.5981   -5.2990    0.0000 C   0  0  0  0  0  0  0  0  0  0  0  0
    9.7942    4.7010    0.0000 C   0  0  0  0  0  0  0  0  0  0  0  0
    5.1962    5.9330    0.0000 C   0  0  0  0  0  0  0  0  0  0  0  0
    8.9282    6.2010    0.0000 C   0  0  0  0  0  0  0  0  0  0  0  0
    6.6962    6.7990    0.0000 C   0  0  0  0  0  0  0  0  0  0  0  0
    8.2886    1.7073    0.0000 C   0  0  0  0  0  0  0  0  0  0  0  0
    9.4019    3.0342    0.0000 C   0  0  0  0  0  0  0  0  0  0  0  0
    2.8660   -6.2990    0.0000 C   0  0  0  0  0  0  0  0  0  0  0  0
    4.5981   -6.2990    0.0000 C   0  0  0  0  0  0  0  0  0  0  0  0
    9.7942    5.7010    0.0000 C   0  0  0  0  0  0  0  0  0  0  0  0
    5.6962    6.7990    0.0000 C   0  0  0  0  0  0  0  0  0  0  0  0
    3.7320   -6.7990    0.0000 C   0  0  0  0  0  0  0  0  0  0  0  0
    2.6540   -1.7164    0.0000 H   0  0  0  0  0  0  0  0  0  0  0  0
    2.2554   -2.4067    0.0000 H   0  0  0  0  0  0  0  0  0  0  0  0
    5.2087   -2.4067    0.0000 H   0  0  0  0  0  0  0  0  0  0  0  0
    4.8101   -1.7164    0.0000 H   0  0  0  0  0  0  0  0  0  0  0  0
    3.5200   -0.2164    0.0000 H   0  0  0  0  0  0  0  0  0  0  0  0
    3.1215   -0.9067    0.0000 H   0  0  0  0  0  0  0  0  0  0  0  0
    2.2554   -3.1914    0.0000 H   0  0  0  0  0  0  0  0  0  0  0  0
    2.6540   -3.8816    0.0000 H   0  0  0  0  0  0  0  0  0  0  0  0
    4.8101   -3.8816    0.0000 H   0  0  0  0  0  0  0  0  0  0  0  0
    5.2087   -3.1914    0.0000 H   0  0  0  0  0  0  0  0  0  0  0  0
    4.8101   -0.8816    0.0000 H   0  0  0  0  0  0  0  0  0  0  0  0
    5.2087   -0.1914    0.0000 H   0  0  0  0  0  0  0  0  0  0  0  0
    6.1181    4.2836    0.0000 H   0  0  0  0  0  0  0  0  0  0  0  0
    5.7196    3.5933    0.0000 H   0  0  0  0  0  0  0  0  0  0  0  0
    4.3860    1.2836    0.0000 H   0  0  0  0  0  0  0  0  0  0  0  0
    3.9875    0.5933    0.0000 H   0  0  0  0  0  0  0  0  0  0  0  0
    6.5422    2.1184    0.0000 H   0  0  0  0  0  0  0  0  0  0  0  0
    6.9407    2.8086    0.0000 H   0  0  0  0  0  0  0  0  0  0  0  0
    5.6762    0.6184    0.0000 H   0  0  0  0  0  0  0  0  0  0  0  0
    6.0747    1.3086    0.0000 H   0  0  0  0  0  0  0  0  0  0  0  0
    4.9272    2.5110    0.0000 H   0  0  0  0  0  0  0  0  0  0  0  0
    8.9282    3.5810    0.0000 H   0  0  0  0  0  0  0  0  0  0  0  0
    5.3862    4.5300    0.0000 H   0  0  0  0  0  0  0  0  0  0  0  0
    7.5252    6.0110    0.0000 H   0  0  0  0  0  0  0  0  0  0  0  0
    7.8162    5.9330    0.0000 H   0  0  0  0  0  0  0  0  0  0  0  0
    5.1350   -4.9890    0.0000 H   0  0  0  0  0  0  0  0  0  0  0  0
   10.3312    4.3910    0.0000 H   0  0  0  0  0  0  0  0  0  0  0  0
    4.5762    5.9330    0.0000 H   0  0  0  0  0  0  0  0  0  0  0  0
    8.9282    6.8210    0.0000 H   0  0  0  0  0  0  0  0  0  0  0  0
    7.0062    7.3360    0.0000 H   0  0  0  0  0  0  0  0  0  0  0  0
    7.6780    1.8150    0.0000 H   0  0  0  0  0  0  0  0  0  0  0  0
    8.1809    1.0968    0.0000 H   0  0  0  0  0  0  0  0  0  0  0  0
    8.8991    1.5997    0.0000 H   0  0  0  0  0  0  0  0  0  0  0  0
    9.6139    2.4516    0.0000 H   0  0  0  0  0  0  0  0  0  0  0  0
    9.9845    3.2462    0.0000 H   0  0  0  0  0  0  0  0  0  0  0  0
    9.1898    3.6168    0.0000 H   0  0  0  0  0  0  0  0  0  0  0  0
    5.1350   -6.6090    0.0000 H   0  0  0  0  0  0  0  0  0  0  0  0
   10.3312    6.0110    0.0000 H   0  0  0  0  0  0  0  0  0  0  0  0
    5.3862    7.3360    0.0000 H   0  0  0  0  0  0  0  0  0  0  0  0
    3.7320   -7.4190    0.0000 H   0  0  0  0  0  0  0  0  0  0  0  0
  1 27  1  0  0  0  0
  2 35  1  0  0  0  0
  3 21  2  0  0  0  0
  4  8  1  0  0  0  0
  4  9  1  0  0  0  0
  4 11  1  0  0  0  0
  5 12  1  0  0  0  0
  5 13  1  0  0  0  0
  5 22  1  0  0  0  0
  6 17  1  0  0  0  0
  6 18  1  0  0  0  0
  6 60  1  0  0  0  0
  7 21  1  0  0  0  0
  7 33  1  0  0  0  0
  7 34  1  0  0  0  0
  8 12  1  0  0  0  0
  8 40  1  0  0  0  0
  8 41  1  0  0  0  0
  9 13  1  0  0  0  0
  9 42  1  0  0  0  0
  9 43  1  0  0  0  0
 10 15  1  0  0  0  0
 10 19  1  0  0  0  0
 10 20  1  0  0  0  0
 10 21  1  0  0  0  0
 11 14  1  0  0  0  0
 11 44  1  0  0  0  0
 11 45  1  0  0  0  0
 12 46  1  0  0  0  0
 12 47  1  0  0  0  0
 13 48  1  0  0  0  0
 13 49  1  0  0  0  0
 14 16  1  0  0  0  0
 14 50  1  0  0  0  0
 14 51  1  0  0  0  0
 15 17  1  0  0  0  0
 15 52  1  0  0  0  0
 15 53  1  0  0  0  0
 16 18  1  0  0  0  0
 16 54  1  0  0  0  0
 16 55  1  0  0  0  0
 17 56  1  0  0  0  0
 17 57  1  0  0  0  0
 18 58  1  0  0  0  0
 18 59  1  0  0  0  0
 19 23  2  0  0  0  0
 19 25  1  0  0  0  0
 20 24  2  0  0  0  0
 20 26  1  0  0  0  0
 22 27  2  0  0  0  0
 22 28  1  0  0  0  0
 23 29  1  0  0  0  0
 23 61  1  0  0  0  0
 24 30  1  0  0  0  0
 24 62  1  0  0  0  0
 25 31  2  0  0  0  0
 25 63  1  0  0  0  0
 26 32  2  0  0  0  0
 26 64  1  0  0  0  0
 27 35  1  0  0  0  0
 28 36  2  0  0  0  0
 28 65  1  0  0  0  0
 29 37  2  0  0  0  0
 29 66  1  0  0  0  0
 30 38  2  0  0  0  0
 30 67  1  0  0  0  0
 31 37  1  0  0  0  0
 31 68  1  0  0  0  0
 32 38  1  0  0  0  0
 32 69  1  0  0  0  0
 33 70  1  0  0  0  0
 33 71  1  0  0  0  0
 33 72  1  0  0  0  0
 34 73  1  0  0  0  0
 34 74  1  0  0  0  0
 34 75  1  0  0  0  0
 35 39  2  0  0  0  0
 36 39  1  0  0  0  0
 36 76  1  0  0  0  0
 37 77  1  0  0  0  0
 38 78  1  0  0  0  0
 39 79  1  0  0  0  0
M  END
> <PUBCHEM_COMPOUND_CID>
162419835

> <PUBCHEM_COMPOUND_CANONICALIZED>
1

> <PUBCHEM_CACTVS_COMPLEXITY>
699

> <PUBCHEM_CACTVS_HBOND_ACCEPTOR>
4

> <PUBCHEM_CACTVS_HBOND_DONOR>
1

> <PUBCHEM_CACTVS_ROTATABLE_BOND>
12

> <PUBCHEM_CACTVS_SUBSKEYS>
AAADcfB/oAAGAAAAAAAAAAAAAAAAAAAAAAA8YMEAAAAAAAABUAAAHgIQAAAADgrBmCQywIPAAACIAiVSUACCAAAhBwAIisEIZogIYDLBl5HUIAhgkgDIyAcciMCPgAAAAAIAABQAAAAABAAAKAAAAAAAAA==

> <PUBCHEM_IUPAC_OPENEYE_NAME>
4-[4-[4-(2,3-dichlorophenyl)piperazin-1-yl]butylamino]-N,N-dimethyl-2,2-diphenyl-butanamide

> <PUBCHEM_IUPAC_CAS_NAME>
4-[4-[4-(2,3-dichlorophenyl)-1-piperazinyl]butylamino]-N,N-dimethyl-2,2-diphenylbutanamide

> <PUBCHEM_IUPAC_NAME_MARKUP>
4-[4-[4-(2,3-dichlorophenyl)piperazin-1-yl]butylamino]-<I>N</I>,<I>N</I>-dimethyl-2,2-diphenylbutanamide

> <PUBCHEM_IUPAC_NAME>
4-[4-[4-(2,3-dichlorophenyl)piperazin-1-yl]butylamino]-N,N-dimethyl-2,2-diphenylbutanamide

> <PUBCHEM_IUPAC_SYSTEMATIC_NAME>
4-[4-[4-[2,3-bis(chloranyl)phenyl]piperazin-1-yl]butylamino]-N,N-dimethyl-2,2-diphenyl-butanamide

> <PUBCHEM_IUPAC_TRADITIONAL_NAME>
4-[4-[4-(2,3-dichlorophenyl)piperazino]butylamino]-N,N-dimethyl-2,2-diphenyl-butyramide

> <PUBCHEM_IUPAC_INCHI>
InChI=1S/C32H40Cl2N4O/c1-36(2)31(39)32(26-12-5-3-6-13-26,27-14-7-4-8-15-27)18-20-35-19-9-10-21-37-22-24-38(25-23-37)29-17-11-16-28(33)30(29)34/h3-8,11-17,35H,9-10,18-25H2,1-2H3

> <PUBCHEM_IUPAC_INCHIKEY>
RSCLYSXBPPXRCJ-UHFFFAOYSA-N

> <PUBCHEM_XLOGP3_AA>
6.4

> <PUBCHEM_EXACT_MASS>
566.2579173

> <PUBCHEM_MOLECULAR_FORMULA>
C32H40Cl2N4O

> <PUBCHEM_MOLECULAR_WEIGHT>
567.6

> <PUBCHEM_OPENEYE_CAN_SMILES>
CN(C)C(=O)C(CCNCCCCN1CCN(CC1)C2=C(C(=CC=C2)Cl)Cl)(C3=CC=CC=C3)C4=CC=CC=C4

> <PUBCHEM_OPENEYE_ISO_SMILES>
CN(C)C(=O)C(CCNCCCCN1CCN(CC1)C2=C(C(=CC=C2)Cl)Cl)(C3=CC=CC=C3)C4=CC=CC=C4

> <PUBCHEM_CACTVS_TPSA>
38.8

> <PUBCHEM_MONOISOTOPIC_WEIGHT>
566.2579173

> <PUBCHEM_TOTAL_CHARGE>
0

> <PUBCHEM_HEAVY_ATOM_COUNT>
39

> <PUBCHEM_ATOM_DEF_STEREO_COUNT>
0

> <PUBCHEM_ATOM_UDEF_STEREO_COUNT>
0

> <PUBCHEM_BOND_DEF_STEREO_COUNT>
0

> <PUBCHEM_BOND_UDEF_STEREO_COUNT>
0

> <PUBCHEM_ISOTOPIC_ATOM_COUNT>
0

> <PUBCHEM_COMPONENT_COUNT>
1

> <PUBCHEM_CACTVS_TAUTO_COUNT>
-1

> <PUBCHEM_COORDINATE_TYPE>
1
5
255

> <PUBCHEM_BONDANNOTATIONS>
19  23  8
19  25  8
20  24  8
20  26  8
22  27  8
22  28  8
23  29  8
24  30  8
25  31  8
26  32  8
27  35  8
28  36  8
29  37  8
30  38  8
31  37  8
32  38  8
35  39  8
36  39  8

$$$$
