49850874
  -OEChem-09292322312D

 64 68  0     0  0  0  0  0  0999 V2000
    5.4641    4.7673    0.0000 O   0  0  0  0  0  0  0  0  0  0  0  0
    7.1962   -1.2327    0.0000 N   0  0  0  0  0  0  0  0  0  0  0  0
    7.1962   -3.2327    0.0000 N   0  0  0  0  0  0  0  0  0  0  0  0
    8.9561   -6.2673    0.0000 N   0  0  0  0  0  0  0  0  0  0  0  0
    4.5981    3.2673    0.0000 N   0  0  0  0  0  0  0  0  0  0  0  0
    6.3301   -1.7327    0.0000 C   0  0  0  0  0  0  0  0  0  0  0  0
    8.0622   -1.7327    0.0000 C   0  0  0  0  0  0  0  0  0  0  0  0
    6.3301   -2.7327    0.0000 C   0  0  0  0  0  0  0  0  0  0  0  0
    8.0622   -2.7327    0.0000 C   0  0  0  0  0  0  0  0  0  0  0  0
    7.1962   -0.2327    0.0000 C   0  0  0  0  0  0  0  0  0  0  0  0
    7.1962   -4.2327    0.0000 C   0  0  0  0  0  0  0  0  0  0  0  0
    6.3301    0.2673    0.0000 C   0  0  0  0  0  0  0  0  0  0  0  0
    8.0622   -4.7327    0.0000 C   0  0  0  0  0  0  0  0  0  0  0  0
    6.3301    1.2673    0.0000 C   0  0  0  0  0  0  0  0  0  0  0  0
    6.3301   -4.7327    0.0000 C   0  0  0  0  0  0  0  0  0  0  0  0
    8.0622   -5.7327    0.0000 C   0  0  0  0  0  0  0  0  0  0  0  0
    8.9561   -4.1980    0.0000 C   0  0  0  0  0  0  0  0  0  0  0  0
    6.3301   -5.7327    0.0000 C   0  0  0  0  0  0  0  0  0  0  0  0
    7.1962   -6.2327    0.0000 C   0  0  0  0  0  0  0  0  0  0  0  0
    5.4641    1.7673    0.0000 C   0  0  0  0  0  0  0  0  0  0  0  0
    7.1962    1.7673    0.0000 C   0  0  0  0  0  0  0  0  0  0  0  0
    9.8622   -4.7118    0.0000 C   0  0  0  0  0  0  0  0  0  0  0  0
    5.4641    2.7673    0.0000 C   0  0  0  0  0  0  0  0  0  0  0  0
    9.8622   -5.7535    0.0000 C   0  0  0  0  0  0  0  0  0  0  0  0
    7.1962    2.7673    0.0000 C   0  0  0  0  0  0  0  0  0  0  0  0
    6.3301    3.2673    0.0000 C   0  0  0  0  0  0  0  0  0  0  0  0
   10.7263   -6.2568    0.0000 C   0  0  0  0  0  0  0  0  0  0  0  0
    4.5981    4.2673    0.0000 C   0  0  0  0  0  0  0  0  0  0  0  0
    3.7320    4.7673    0.0000 C   0  0  0  0  0  0  0  0  0  0  0  0
    3.7320    5.7673    0.0000 C   0  0  0  0  0  0  0  0  0  0  0  0
    2.8660    4.2673    0.0000 C   0  0  0  0  0  0  0  0  0  0  0  0
    2.8660    6.2673    0.0000 C   0  0  0  0  0  0  0  0  0  0  0  0
    2.0000    4.7673    0.0000 C   0  0  0  0  0  0  0  0  0  0  0  0
    2.0000    5.7673    0.0000 C   0  0  0  0  0  0  0  0  0  0  0  0
    6.1181   -1.1501    0.0000 H   0  0  0  0  0  0  0  0  0  0  0  0
    5.7196   -1.8403    0.0000 H   0  0  0  0  0  0  0  0  0  0  0  0
    8.6728   -1.8403    0.0000 H   0  0  0  0  0  0  0  0  0  0  0  0
    8.2742   -1.1501    0.0000 H   0  0  0  0  0  0  0  0  0  0  0  0
    5.7196   -2.6250    0.0000 H   0  0  0  0  0  0  0  0  0  0  0  0
    6.1181   -3.3153    0.0000 H   0  0  0  0  0  0  0  0  0  0  0  0
    8.2742   -3.3153    0.0000 H   0  0  0  0  0  0  0  0  0  0  0  0
    8.6728   -2.6250    0.0000 H   0  0  0  0  0  0  0  0  0  0  0  0
    7.8067   -0.3403    0.0000 H   0  0  0  0  0  0  0  0  0  0  0  0
    7.4082    0.3499    0.0000 H   0  0  0  0  0  0  0  0  0  0  0  0
    5.7196    0.3750    0.0000 H   0  0  0  0  0  0  0  0  0  0  0  0
    6.1181   -0.3153    0.0000 H   0  0  0  0  0  0  0  0  0  0  0  0
    5.7932   -4.4227    0.0000 H   0  0  0  0  0  0  0  0  0  0  0  0
    8.9490   -3.5780    0.0000 H   0  0  0  0  0  0  0  0  0  0  0  0
    5.7932   -6.0427    0.0000 H   0  0  0  0  0  0  0  0  0  0  0  0
    7.1962   -6.8527    0.0000 H   0  0  0  0  0  0  0  0  0  0  0  0
    4.9272    1.4573    0.0000 H   0  0  0  0  0  0  0  0  0  0  0  0
    7.7331    1.4573    0.0000 H   0  0  0  0  0  0  0  0  0  0  0  0
   10.3979   -4.3998    0.0000 H   0  0  0  0  0  0  0  0  0  0  0  0
    7.7331    3.0773    0.0000 H   0  0  0  0  0  0  0  0  0  0  0  0
    6.3301    3.8873    0.0000 H   0  0  0  0  0  0  0  0  0  0  0  0
   10.4142   -6.7926    0.0000 H   0  0  0  0  0  0  0  0  0  0  0  0
   11.2620   -6.5689    0.0000 H   0  0  0  0  0  0  0  0  0  0  0  0
   11.0383   -5.7211    0.0000 H   0  0  0  0  0  0  0  0  0  0  0  0
    4.0611    2.9573    0.0000 H   0  0  0  0  0  0  0  0  0  0  0  0
    4.2690    6.0773    0.0000 H   0  0  0  0  0  0  0  0  0  0  0  0
    2.8660    3.6473    0.0000 H   0  0  0  0  0  0  0  0  0  0  0  0
    2.8660    6.8873    0.0000 H   0  0  0  0  0  0  0  0  0  0  0  0
    1.4631    4.4573    0.0000 H   0  0  0  0  0  0  0  0  0  0  0  0
    1.4631    6.0773    0.0000 H   0  0  0  0  0  0  0  0  0  0  0  0
  1 28  2  0  0  0  0
  2  6  1  0  0  0  0
  2  7  1  0  0  0  0
  2 10  1  0  0  0  0
  3  8  1  0  0  0  0
  3  9  1  0  0  0  0
  3 11  1  0  0  0  0
  4 16  1  0  0  0  0
  4 24  2  0  0  0  0
  5 23  1  0  0  0  0
  5 28  1  0  0  0  0
  5 59  1  0  0  0  0
  6  8  1  0  0  0  0
  6 35  1  0  0  0  0
  6 36  1  0  0  0  0
  7  9  1  0  0  0  0
  7 37  1  0  0  0  0
  7 38  1  0  0  0  0
  8 39  1  0  0  0  0
  8 40  1  0  0  0  0
  9 41  1  0  0  0  0
  9 42  1  0  0  0  0
 10 12  1  0  0  0  0
 10 43  1  0  0  0  0
 10 44  1  0  0  0  0
 11 13  1  0  0  0  0
 11 15  2  0  0  0  0
 12 14  1  0  0  0  0
 12 45  1  0  0  0  0
 12 46  1  0  0  0  0
 13 16  2  0  0  0  0
 13 17  1  0  0  0  0
 14 20  2  0  0  0  0
 14 21  1  0  0  0  0
 15 18  1  0  0  0  0
 15 47  1  0  0  0  0
 16 19  1  0  0  0  0
 17 22  2  0  0  0  0
 17 48  1  0  0  0  0
 18 19  2  0  0  0  0
 18 49  1  0  0  0  0
 19 50  1  0  0  0  0
 20 23  1  0  0  0  0
 20 51  1  0  0  0  0
 21 25  2  0  0  0  0
 21 52  1  0  0  0  0
 22 24  1  0  0  0  0
 22 53  1  0  0  0  0
 23 26  2  0  0  0  0
 24 27  1  0  0  0  0
 25 26  1  0  0  0  0
 25 54  1  0  0  0  0
 26 55  1  0  0  0  0
 27 56  1  0  0  0  0
 27 57  1  0  0  0  0
 27 58  1  0  0  0  0
 28 29  1  0  0  0  0
 29 30  2  0  0  0  0
 29 31  1  0  0  0  0
 30 32  1  0  0  0  0
 30 60  1  0  0  0  0
 31 33  2  0  0  0  0
 31 61  1  0  0  0  0
 32 34  2  0  0  0  0
 32 62  1  0  0  0  0
 33 34  1  0  0  0  0
 33 63  1  0  0  0  0
 34 64  1  0  0  0  0
M  END
> <PUBCHEM_COMPOUND_CID>
49850874

> <PUBCHEM_COMPOUND_CANONICALIZED>
1

> <PUBCHEM_CACTVS_COMPLEXITY>
642

> <PUBCHEM_CACTVS_HBOND_ACCEPTOR>
4

> <PUBCHEM_CACTVS_HBOND_DONOR>
1

> <PUBCHEM_CACTVS_ROTATABLE_BOND>
6

> <PUBCHEM_CACTVS_SUBSKEYS>
AAADceB7oAAAAAAAAAAAAAAAAAAAAAAAAAA8eMECAAAAAACx9AAAHgAQAAAADAjBngQywPPIEACoAyVyVACCgCAlAiAImCE4ZNgIYPLA1dGUJQhglADIyYcYiICOAAAAQAQCAAAAAACACAQAAAAAAAAAAA==

> <PUBCHEM_IUPAC_OPENEYE_NAME>
N-[3-[2-[4-(2-methyl-5-quinolyl)piperazin-1-yl]ethyl]phenyl]benzamide

> <PUBCHEM_IUPAC_CAS_NAME>
N-[3-[2-[4-(2-methyl-5-quinolinyl)-1-piperazinyl]ethyl]phenyl]benzamide

> <PUBCHEM_IUPAC_NAME_MARKUP>
<I>N</I>-[3-[2-[4-(2-methylquinolin-5-yl)piperazin-1-yl]ethyl]phenyl]benzamide

> <PUBCHEM_IUPAC_NAME>
N-[3-[2-[4-(2-methylquinolin-5-yl)piperazin-1-yl]ethyl]phenyl]benzamide

> <PUBCHEM_IUPAC_SYSTEMATIC_NAME>
N-[3-[2-[4-(2-methylquinolin-5-yl)piperazin-1-yl]ethyl]phenyl]benzamide

> <PUBCHEM_IUPAC_TRADITIONAL_NAME>
N-[3-[2-[4-(2-methyl-5-quinolyl)piperazino]ethyl]phenyl]benzamide

> <PUBCHEM_IUPAC_INCHI>
InChI=1S/C29H30N4O/c1-22-13-14-26-27(30-22)11-6-12-28(26)33-19-17-32(18-20-33)16-15-23-7-5-10-25(21-23)31-29(34)24-8-3-2-4-9-24/h2-14,21H,15-20H2,1H3,(H,31,34)

> <PUBCHEM_IUPAC_INCHIKEY>
NHDILTZHICULAX-UHFFFAOYSA-N

> <PUBCHEM_XLOGP3_AA>
5.3

> <PUBCHEM_EXACT_MASS>
450.24196159

> <PUBCHEM_MOLECULAR_FORMULA>
C29H30N4O

> <PUBCHEM_MOLECULAR_WEIGHT>
450.6

> <PUBCHEM_OPENEYE_CAN_SMILES>
CC1=NC2=C(C=C1)C(=CC=C2)N3CCN(CC3)CCC4=CC(=CC=C4)NC(=O)C5=CC=CC=C5

> <PUBCHEM_OPENEYE_ISO_SMILES>
CC1=NC2=C(C=C1)C(=CC=C2)N3CCN(CC3)CCC4=CC(=CC=C4)NC(=O)C5=CC=CC=C5

> <PUBCHEM_CACTVS_TPSA>
48.5

> <PUBCHEM_MONOISOTOPIC_WEIGHT>
450.24196159

> <PUBCHEM_TOTAL_CHARGE>
0

> <PUBCHEM_HEAVY_ATOM_COUNT>
34

> <PUBCHEM_ATOM_DEF_STEREO_COUNT>
0

> <PUBCHEM_ATOM_UDEF_STEREO_COUNT>
0

> <PUBCHEM_BOND_DEF_STEREO_COUNT>
0

> <PUBCHEM_BOND_UDEF_STEREO_COUNT>
0

> <PUBCHEM_ISOTOPIC_ATOM_COUNT>
0

> <PUBCHEM_COMPONENT_COUNT>
1

> <PUBCHEM_CACTVS_TAUTO_COUNT>
-1

> <PUBCHEM_COORDINATE_TYPE>
1
5
255

> <PUBCHEM_BONDANNOTATIONS>
11  13  8
11  15  8
13  16  8
13  17  8
14  20  8
14  21  8
15  18  8
16  19  8
17  22  8
18  19  8
20  23  8
21  25  8
22  24  8
23  26  8
25  26  8
29  30  8
29  31  8
30  32  8
31  33  8
32  34  8
33  34  8
4  16  8
4  24  8

$$$$
