13869641
  -OEChem-09292322352D

 57 59  0     0  0  0  0  0  0999 V2000
    7.0000    6.2320    0.0000 Cl  0  0  0  0  0  0  0  0  0  0  0  0
    3.2680   -6.2320    0.0000 F   0  0  0  0  0  0  0  0  0  0  0  0
    4.5000    3.6340    0.0000 O   0  0  0  0  0  0  0  0  0  0  0  0
    3.0000    2.7680    0.0000 O   0  0  0  0  0  0  0  0  0  0  0  0
    2.4019   -1.7320    0.0000 O   0  0  0  0  0  0  0  0  0  0  0  0
    5.0000    0.7679    0.0000 N   0  0  0  0  0  0  0  0  0  0  0  0
    5.0000    2.7680    0.0000 C   0  0  0  0  0  0  0  0  0  0  0  0
    5.8660    2.2680    0.0000 C   0  0  0  0  0  0  0  0  0  0  0  0
    4.1340    2.2680    0.0000 C   0  0  0  0  0  0  0  0  0  0  0  0
    5.8660    1.2680    0.0000 C   0  0  0  0  0  0  0  0  0  0  0  0
    4.1340    1.2680    0.0000 C   0  0  0  0  0  0  0  0  0  0  0  0
    5.5000    3.6340    0.0000 C   0  0  0  0  0  0  0  0  0  0  0  0
    5.0000   -0.2321    0.0000 C   0  0  0  0  0  0  0  0  0  0  0  0
    4.1340   -0.7321    0.0000 C   0  0  0  0  0  0  0  0  0  0  0  0
    5.0000    4.5000    0.0000 C   0  0  0  0  0  0  0  0  0  0  0  0
    6.5000    3.6340    0.0000 C   0  0  0  0  0  0  0  0  0  0  0  0
    4.1340   -1.7320    0.0000 C   0  0  0  0  0  0  0  0  0  0  0  0
    3.5000    3.6340    0.0000 C   0  0  0  0  0  0  0  0  0  0  0  0
    5.5000    5.3660    0.0000 C   0  0  0  0  0  0  0  0  0  0  0  0
    7.0000    4.5000    0.0000 C   0  0  0  0  0  0  0  0  0  0  0  0
    3.0000    4.5000    0.0000 C   0  0  0  0  0  0  0  0  0  0  0  0
    6.5000    5.3660    0.0000 C   0  0  0  0  0  0  0  0  0  0  0  0
    3.2680   -2.2320    0.0000 C   0  0  0  0  0  0  0  0  0  0  0  0
    2.0000    4.5000    0.0000 C   0  0  0  0  0  0  0  0  0  0  0  0
    3.2680   -3.2320    0.0000 C   0  0  0  0  0  0  0  0  0  0  0  0
    2.4019   -3.7320    0.0000 C   0  0  0  0  0  0  0  0  0  0  0  0
    4.1340   -3.7320    0.0000 C   0  0  0  0  0  0  0  0  0  0  0  0
    2.4019   -4.7320    0.0000 C   0  0  0  0  0  0  0  0  0  0  0  0
    4.1340   -4.7320    0.0000 C   0  0  0  0  0  0  0  0  0  0  0  0
    3.2680   -5.2320    0.0000 C   0  0  0  0  0  0  0  0  0  0  0  0
    6.4766    2.1603    0.0000 H   0  0  0  0  0  0  0  0  0  0  0  0
    6.0781    2.8506    0.0000 H   0  0  0  0  0  0  0  0  0  0  0  0
    3.9219    2.8506    0.0000 H   0  0  0  0  0  0  0  0  0  0  0  0
    3.5234    2.1603    0.0000 H   0  0  0  0  0  0  0  0  0  0  0  0
    6.0781    0.6853    0.0000 H   0  0  0  0  0  0  0  0  0  0  0  0
    6.4766    1.3756    0.0000 H   0  0  0  0  0  0  0  0  0  0  0  0
    3.5234    1.3756    0.0000 H   0  0  0  0  0  0  0  0  0  0  0  0
    3.9219    0.6853    0.0000 H   0  0  0  0  0  0  0  0  0  0  0  0
    5.2120   -0.8147    0.0000 H   0  0  0  0  0  0  0  0  0  0  0  0
    5.6106   -0.1244    0.0000 H   0  0  0  0  0  0  0  0  0  0  0  0
    3.9219   -0.1494    0.0000 H   0  0  0  0  0  0  0  0  0  0  0  0
    3.5234   -0.8397    0.0000 H   0  0  0  0  0  0  0  0  0  0  0  0
    4.3800    4.5000    0.0000 H   0  0  0  0  0  0  0  0  0  0  0  0
    6.8100    3.0970    0.0000 H   0  0  0  0  0  0  0  0  0  0  0  0
    4.3460   -2.3147    0.0000 H   0  0  0  0  0  0  0  0  0  0  0  0
    4.7446   -1.6244    0.0000 H   0  0  0  0  0  0  0  0  0  0  0  0
    5.1900    5.9030    0.0000 H   0  0  0  0  0  0  0  0  0  0  0  0
    7.6200    4.5000    0.0000 H   0  0  0  0  0  0  0  0  0  0  0  0
    3.5826    4.7120    0.0000 H   0  0  0  0  0  0  0  0  0  0  0  0
    2.8923    5.1106    0.0000 H   0  0  0  0  0  0  0  0  0  0  0  0
    2.0000    5.1200    0.0000 H   0  0  0  0  0  0  0  0  0  0  0  0
    1.3800    4.5000    0.0000 H   0  0  0  0  0  0  0  0  0  0  0  0
    2.0000    3.8800    0.0000 H   0  0  0  0  0  0  0  0  0  0  0  0
    1.8650   -3.4220    0.0000 H   0  0  0  0  0  0  0  0  0  0  0  0
    4.6709   -3.4220    0.0000 H   0  0  0  0  0  0  0  0  0  0  0  0
    1.8650   -5.0420    0.0000 H   0  0  0  0  0  0  0  0  0  0  0  0
    4.6709   -5.0420    0.0000 H   0  0  0  0  0  0  0  0  0  0  0  0
  1 22  1  0  0  0  0
  2 30  1  0  0  0  0
  3  7  1  0  0  0  0
  3 18  1  0  0  0  0
  4 18  2  0  0  0  0
  5 23  2  0  0  0  0
  6 10  1  0  0  0  0
  6 11  1  0  0  0  0
  6 13  1  0  0  0  0
  7  8  1  0  0  0  0
  7  9  1  0  0  0  0
  7 12  1  0  0  0  0
  8 10  1  0  0  0  0
  8 31  1  0  0  0  0
  8 32  1  0  0  0  0
  9 11  1  0  0  0  0
  9 33  1  0  0  0  0
  9 34  1  0  0  0  0
 10 35  1  0  0  0  0
 10 36  1  0  0  0  0
 11 37  1  0  0  0  0
 11 38  1  0  0  0  0
 12 15  2  0  0  0  0
 12 16  1  0  0  0  0
 13 14  1  0  0  0  0
 13 39  1  0  0  0  0
 13 40  1  0  0  0  0
 14 17  1  0  0  0  0
 14 41  1  0  0  0  0
 14 42  1  0  0  0  0
 15 19  1  0  0  0  0
 15 43  1  0  0  0  0
 16 20  2  0  0  0  0
 16 44  1  0  0  0  0
 17 23  1  0  0  0  0
 17 45  1  0  0  0  0
 17 46  1  0  0  0  0
 18 21  1  0  0  0  0
 19 22  2  0  0  0  0
 19 47  1  0  0  0  0
 20 22  1  0  0  0  0
 20 48  1  0  0  0  0
 21 24  1  0  0  0  0
 21 49  1  0  0  0  0
 21 50  1  0  0  0  0
 23 25  1  0  0  0  0
 24 51  1  0  0  0  0
 24 52  1  0  0  0  0
 24 53  1  0  0  0  0
 25 26  2  0  0  0  0
 25 27  1  0  0  0  0
 26 28  1  0  0  0  0
 26 54  1  0  0  0  0
 27 29  2  0  0  0  0
 27 55  1  0  0  0  0
 28 30  2  0  0  0  0
 28 56  1  0  0  0  0
 29 30  1  0  0  0  0
 29 57  1  0  0  0  0
M  END
> <PUBCHEM_COMPOUND_CID>
13869641

> <PUBCHEM_COMPOUND_CANONICALIZED>
1

> <PUBCHEM_CACTVS_COMPLEXITY>
563

> <PUBCHEM_CACTVS_HBOND_ACCEPTOR>
5

> <PUBCHEM_CACTVS_HBOND_DONOR>
0

> <PUBCHEM_CACTVS_ROTATABLE_BOND>
9

> <PUBCHEM_CACTVS_SUBSKEYS>
AAADceB6MQAEAAAAAAAAAAAAAAAAAAAAAAA8YIAAAAAAAAABQAAAHwIAAAAADEbBmCwyCIMABACIAqDSCAACAAAkBQAIiAEICsgIJjKBtxiGMQAmwAGIqYecyOCOhAAAAAAAAAAIAAAAAAAAAAAAAAAAAA==

> <PUBCHEM_IUPAC_OPENEYE_NAME>
[4-(4-chlorophenyl)-1-[4-(4-fluorophenyl)-4-oxo-butyl]-4-piperidyl] propanoate

> <PUBCHEM_IUPAC_CAS_NAME>
propanoic acid [4-(4-chlorophenyl)-1-[4-(4-fluorophenyl)-4-oxobutyl]-4-piperidinyl] ester

> <PUBCHEM_IUPAC_NAME_MARKUP>
[4-(4-chlorophenyl)-1-[4-(4-fluorophenyl)-4-oxobutyl]piperidin-4-yl] propanoate

> <PUBCHEM_IUPAC_NAME>
[4-(4-chlorophenyl)-1-[4-(4-fluorophenyl)-4-oxobutyl]piperidin-4-yl] propanoate

> <PUBCHEM_IUPAC_SYSTEMATIC_NAME>
[4-(4-chlorophenyl)-1-[4-(4-fluorophenyl)-4-oxidanylidene-butyl]piperidin-4-yl] propanoate

> <PUBCHEM_IUPAC_TRADITIONAL_NAME>
propionic acid [4-(4-chlorophenyl)-1-[4-(4-fluorophenyl)-4-keto-butyl]-4-piperidyl] ester

> <PUBCHEM_IUPAC_INCHI>
InChI=1S/C24H27ClFNO3/c1-2-23(29)30-24(19-7-9-20(25)10-8-19)13-16-27(17-14-24)15-3-4-22(28)18-5-11-21(26)12-6-18/h5-12H,2-4,13-17H2,1H3

> <PUBCHEM_IUPAC_INCHIKEY>
RXLUSIRPKRSPGO-UHFFFAOYSA-N

> <PUBCHEM_XLOGP3>
4.3

> <PUBCHEM_EXACT_MASS>
431.1663496

> <PUBCHEM_MOLECULAR_FORMULA>
C24H27ClFNO3

> <PUBCHEM_MOLECULAR_WEIGHT>
431.9

> <PUBCHEM_OPENEYE_CAN_SMILES>
CCC(=O)OC1(CCN(CC1)CCCC(=O)C2=CC=C(C=C2)F)C3=CC=C(C=C3)Cl

> <PUBCHEM_OPENEYE_ISO_SMILES>
CCC(=O)OC1(CCN(CC1)CCCC(=O)C2=CC=C(C=C2)F)C3=CC=C(C=C3)Cl

> <PUBCHEM_CACTVS_TPSA>
46.6

> <PUBCHEM_MONOISOTOPIC_WEIGHT>
431.1663496

> <PUBCHEM_TOTAL_CHARGE>
0

> <PUBCHEM_HEAVY_ATOM_COUNT>
30

> <PUBCHEM_ATOM_DEF_STEREO_COUNT>
0

> <PUBCHEM_ATOM_UDEF_STEREO_COUNT>
0

> <PUBCHEM_BOND_DEF_STEREO_COUNT>
0

> <PUBCHEM_BOND_UDEF_STEREO_COUNT>
0

> <PUBCHEM_ISOTOPIC_ATOM_COUNT>
0

> <PUBCHEM_COMPONENT_COUNT>
1

> <PUBCHEM_CACTVS_TAUTO_COUNT>
-1

> <PUBCHEM_COORDINATE_TYPE>
1
5
255

> <PUBCHEM_BONDANNOTATIONS>
12  15  8
12  16  8
15  19  8
16  20  8
19  22  8
20  22  8
25  26  8
25  27  8
26  28  8
27  29  8
28  30  8
29  30  8

$$$$
