71459901
  -OEChem-09292322222D

 65 69  0     1  0  0  0  0  0999 V2000
   17.0719   -1.0526    0.0000 O   0  0  0  0  0  0  0  0  0  0  0  0
    9.8100   -4.0167    0.0000 O   0  0  0  0  0  0  0  0  0  0  0  0
   13.8100   -0.5526    0.0000 N   0  0  3  0  0  0  0  0  0  0  0  0
    9.8100   -2.2846    0.0000 N   0  0  0  0  0  0  0  0  0  0  0  0
   17.0801    4.0167    0.0000 N   0  0  0  0  0  0  0  0  0  0  0  0
    2.3100   -3.1506    0.0000 N   0  0  0  0  0  0  0  0  0  0  0  0
   15.3398   -1.0526    0.0000 C   0  0  2  0  0  0  0  0  0  0  0  0
   15.3398   -0.0526    0.0000 C   0  0  2  0  0  0  0  0  0  0  0  0
   14.3936   -1.3573    0.0000 C   0  0  0  0  0  0  0  0  0  0  0  0
   14.3936    0.2522    0.0000 C   0  0  0  0  0  0  0  0  0  0  0  0
   16.2059   -1.5526    0.0000 C   0  0  0  0  0  0  0  0  0  0  0  0
   16.2059    0.4474    0.0000 C   0  0  0  0  0  0  0  0  0  0  0  0
   12.8100   -0.5526    0.0000 C   0  0  0  0  0  0  0  0  0  0  0  0
   17.0719   -0.0526    0.0000 C   0  0  0  0  0  0  0  0  0  0  0  0
   12.3100   -1.4186    0.0000 C   0  0  0  0  0  0  0  0  0  0  0  0
   16.1898    1.4889    0.0000 C   0  0  0  0  0  0  0  0  0  0  0  0
   17.9819    0.4543    0.0000 C   0  0  0  0  0  0  0  0  0  0  0  0
   11.3100   -1.4186    0.0000 C   0  0  0  0  0  0  0  0  0  0  0  0
   17.0878    2.0167    0.0000 C   0  0  0  0  0  0  0  0  0  0  0  0
   17.9899    1.4959    0.0000 C   0  0  0  0  0  0  0  0  0  0  0  0
   10.8100   -2.2846    0.0000 C   0  0  0  0  0  0  0  0  0  0  0  0
   17.0840    3.0167    0.0000 C   0  0  0  0  0  0  0  0  0  0  0  0
    9.3100   -3.1506    0.0000 C   0  0  0  0  0  0  0  0  0  0  0  0
    8.3100   -3.1506    0.0000 C   0  0  0  0  0  0  0  0  0  0  0  0
    7.8100   -4.0167    0.0000 C   0  0  0  0  0  0  0  0  0  0  0  0
    7.8100   -2.2846    0.0000 C   0  0  0  0  0  0  0  0  0  0  0  0
    6.3100   -3.1506    0.0000 C   0  0  0  0  0  0  0  0  0  0  0  0
    6.8100   -4.0167    0.0000 C   0  0  0  0  0  0  0  0  0  0  0  0
    6.8100   -2.2846    0.0000 C   0  0  0  0  0  0  0  0  0  0  0  0
    5.3100   -3.1506    0.0000 C   0  0  0  0  0  0  0  0  0  0  0  0
    4.8100   -4.0167    0.0000 C   0  0  0  0  0  0  0  0  0  0  0  0
    4.8100   -2.2846    0.0000 C   0  0  0  0  0  0  0  0  0  0  0  0
    3.8100   -4.0167    0.0000 C   0  0  0  0  0  0  0  0  0  0  0  0
    3.8100   -2.2846    0.0000 C   0  0  0  0  0  0  0  0  0  0  0  0
    3.3100   -3.1506    0.0000 C   0  0  0  0  0  0  0  0  0  0  0  0
   15.2499   -1.8978    0.0000 H   0  0  0  0  0  0  0  0  0  0  0  0
   15.2499    0.7927    0.0000 H   0  0  0  0  0  0  0  0  0  0  0  0
   13.8562   -1.6665    0.0000 H   0  0  0  0  0  0  0  0  0  0  0  0
   14.6446   -1.9242    0.0000 H   0  0  0  0  0  0  0  0  0  0  0  0
   14.6446    0.8191    0.0000 H   0  0  0  0  0  0  0  0  0  0  0  0
   13.8562    0.5614    0.0000 H   0  0  0  0  0  0  0  0  0  0  0  0
   15.8073   -2.0275    0.0000 H   0  0  0  0  0  0  0  0  0  0  0  0
   16.6044   -2.0275    0.0000 H   0  0  0  0  0  0  0  0  0  0  0  0
   12.9177    0.0580    0.0000 H   0  0  0  0  0  0  0  0  0  0  0  0
   12.2274   -0.3405    0.0000 H   0  0  0  0  0  0  0  0  0  0  0  0
   12.2023   -2.0292    0.0000 H   0  0  0  0  0  0  0  0  0  0  0  0
   12.8926   -1.6306    0.0000 H   0  0  0  0  0  0  0  0  0  0  0  0
   15.6493    1.7927    0.0000 H   0  0  0  0  0  0  0  0  0  0  0  0
   18.5152    0.1381    0.0000 H   0  0  0  0  0  0  0  0  0  0  0  0
   11.4177   -0.8080    0.0000 H   0  0  0  0  0  0  0  0  0  0  0  0
   10.7274   -1.2066    0.0000 H   0  0  0  0  0  0  0  0  0  0  0  0
   18.5280    1.8038    0.0000 H   0  0  0  0  0  0  0  0  0  0  0  0
   10.7023   -2.8952    0.0000 H   0  0  0  0  0  0  0  0  0  0  0  0
   11.3926   -2.4967    0.0000 H   0  0  0  0  0  0  0  0  0  0  0  0
    9.5000   -1.7477    0.0000 H   0  0  0  0  0  0  0  0  0  0  0  0
    8.1200   -4.5536    0.0000 H   0  0  0  0  0  0  0  0  0  0  0  0
    8.1200   -1.7477    0.0000 H   0  0  0  0  0  0  0  0  0  0  0  0
    6.5000   -4.5536    0.0000 H   0  0  0  0  0  0  0  0  0  0  0  0
    6.5000   -1.7477    0.0000 H   0  0  0  0  0  0  0  0  0  0  0  0
    5.1200   -4.5536    0.0000 H   0  0  0  0  0  0  0  0  0  0  0  0
    5.1200   -1.7477    0.0000 H   0  0  0  0  0  0  0  0  0  0  0  0
    3.5000   -4.5536    0.0000 H   0  0  0  0  0  0  0  0  0  0  0  0
    3.5000   -1.7477    0.0000 H   0  0  0  0  0  0  0  0  0  0  0  0
    2.0000   -3.6876    0.0000 H   0  0  0  0  0  0  0  0  0  0  0  0
    2.0000   -2.6137    0.0000 H   0  0  0  0  0  0  0  0  0  0  0  0
  1 11  1  0  0  0  0
  1 14  1  0  0  0  0
  2 23  2  0  0  0  0
  3  9  1  0  0  0  0
  3 10  1  0  0  0  0
  3 13  1  0  0  0  0
  4 21  1  0  0  0  0
  4 23  1  0  0  0  0
  4 55  1  0  0  0  0
  5 22  3  0  0  0  0
  6 35  1  0  0  0  0
  6 64  1  0  0  0  0
  6 65  1  0  0  0  0
  7  8  1  0  0  0  0
  7  9  1  0  0  0  0
  7 11  1  0  0  0  0
  7 36  1  6  0  0  0
  8 10  1  0  0  0  0
  8 12  1  0  0  0  0
  8 37  1  1  0  0  0
  9 38  1  0  0  0  0
  9 39  1  0  0  0  0
 10 40  1  0  0  0  0
 10 41  1  0  0  0  0
 11 42  1  0  0  0  0
 11 43  1  0  0  0  0
 12 14  2  0  0  0  0
 12 16  1  0  0  0  0
 13 15  1  0  0  0  0
 13 44  1  0  0  0  0
 13 45  1  0  0  0  0
 14 17  1  0  0  0  0
 15 18  1  0  0  0  0
 15 46  1  0  0  0  0
 15 47  1  0  0  0  0
 16 19  2  0  0  0  0
 16 48  1  0  0  0  0
 17 20  2  0  0  0  0
 17 49  1  0  0  0  0
 18 21  1  0  0  0  0
 18 50  1  0  0  0  0
 18 51  1  0  0  0  0
 19 20  1  0  0  0  0
 19 22  1  0  0  0  0
 20 52  1  0  0  0  0
 21 53  1  0  0  0  0
 21 54  1  0  0  0  0
 23 24  1  0  0  0  0
 24 25  2  0  0  0  0
 24 26  1  0  0  0  0
 25 28  1  0  0  0  0
 25 56  1  0  0  0  0
 26 29  2  0  0  0  0
 26 57  1  0  0  0  0
 27 28  2  0  0  0  0
 27 29  1  0  0  0  0
 27 30  1  0  0  0  0
 28 58  1  0  0  0  0
 29 59  1  0  0  0  0
 30 31  2  0  0  0  0
 30 32  1  0  0  0  0
 31 33  1  0  0  0  0
 31 60  1  0  0  0  0
 32 34  2  0  0  0  0
 32 61  1  0  0  0  0
 33 35  2  0  0  0  0
 33 62  1  0  0  0  0
 34 35  1  0  0  0  0
 34 63  1  0  0  0  0
M  END
> <PUBCHEM_COMPOUND_CID>
71459901

> <PUBCHEM_COMPOUND_CANONICALIZED>
1

> <PUBCHEM_CACTVS_COMPLEXITY>
749

> <PUBCHEM_CACTVS_HBOND_ACCEPTOR>
5

> <PUBCHEM_CACTVS_HBOND_DONOR>
2

> <PUBCHEM_CACTVS_ROTATABLE_BOND>
7

> <PUBCHEM_CACTVS_SUBSKEYS>
AAADceB7sAAAAAAAAAAAAAAAAAAAAWAAAAA0YMEAAAAAAFiRUAAAHgAQAAAADQzhmAYwxoPABACYBiVSUACiCAAkIgAIiIEObMgMpjKEtZuGOSjm1hGI6Y+42OKO6AACAAAIAADQAAQAABAAAAAAAAAAAA==

> <PUBCHEM_IUPAC_OPENEYE_NAME>
N-[4-[(3aR,9bS)-8-cyano-3,3a,4,9b-tetrahydro-1H-chromeno[3,4-c]pyrrol-2-yl]butyl]-4-(4-aminophenyl)benzamide

> <PUBCHEM_IUPAC_CAS_NAME>
N-[4-[(3aR,9bS)-8-cyano-3,3a,4,9b-tetrahydro-1H-[1]benzopyrano[3,4-c]pyrrol-2-yl]butyl]-4-(4-aminophenyl)benzamide

> <PUBCHEM_IUPAC_NAME_MARKUP>
<I>N</I>-[4-[(3<I>a</I><I>R</I>,9<I>b</I><I>S</I>)-8-cyano-3,3<I>a</I>,4,9<I>b</I>-tetrahydro-1<I>H</I>-chromeno[3,4-c]pyrrol-2-yl]butyl]-4-(4-aminophenyl)benzamide

> <PUBCHEM_IUPAC_NAME>
N-[4-[(3aR,9bS)-8-cyano-3,3a,4,9b-tetrahydro-1H-chromeno[3,4-c]pyrrol-2-yl]butyl]-4-(4-aminophenyl)benzamide

> <PUBCHEM_IUPAC_SYSTEMATIC_NAME>
N-[4-[(3aR,9bS)-8-cyano-3,3a,4,9b-tetrahydro-1H-chromeno[3,4-c]pyrrol-2-yl]butyl]-4-(4-aminophenyl)benzamide

> <PUBCHEM_IUPAC_TRADITIONAL_NAME>
N-[4-[(3aR,9bS)-8-cyano-3,3a,4,9b-tetrahydro-1H-chromeno[3,4-c]pyrrol-2-yl]butyl]-4-(4-aminophenyl)benzamide

> <PUBCHEM_IUPAC_INCHI>
InChI=1S/C29H30N4O2/c30-16-20-3-12-28-26(15-20)27-18-33(17-24(27)19-35-28)14-2-1-13-32-29(34)23-6-4-21(5-7-23)22-8-10-25(31)11-9-22/h3-12,15,24,27H,1-2,13-14,17-19,31H2,(H,32,34)/t24-,27+/m1/s1

> <PUBCHEM_IUPAC_INCHIKEY>
LLHCWQNGFVSDKL-SQHAQQRYSA-N

> <PUBCHEM_XLOGP3_AA>
4.1

> <PUBCHEM_EXACT_MASS>
466.23687621

> <PUBCHEM_MOLECULAR_FORMULA>
C29H30N4O2

> <PUBCHEM_MOLECULAR_WEIGHT>
466.6

> <PUBCHEM_OPENEYE_CAN_SMILES>
C1C2COC3=C(C2CN1CCCCNC(=O)C4=CC=C(C=C4)C5=CC=C(C=C5)N)C=C(C=C3)C#N

> <PUBCHEM_OPENEYE_ISO_SMILES>
C1[C@@H]2COC3=C([C@H]2CN1CCCCNC(=O)C4=CC=C(C=C4)C5=CC=C(C=C5)N)C=C(C=C3)C#N

> <PUBCHEM_CACTVS_TPSA>
91.4

> <PUBCHEM_MONOISOTOPIC_WEIGHT>
466.23687621

> <PUBCHEM_TOTAL_CHARGE>
0

> <PUBCHEM_HEAVY_ATOM_COUNT>
35

> <PUBCHEM_ATOM_DEF_STEREO_COUNT>
2

> <PUBCHEM_ATOM_UDEF_STEREO_COUNT>
0

> <PUBCHEM_BOND_DEF_STEREO_COUNT>
0

> <PUBCHEM_BOND_UDEF_STEREO_COUNT>
0

> <PUBCHEM_ISOTOPIC_ATOM_COUNT>
0

> <PUBCHEM_COMPONENT_COUNT>
1

> <PUBCHEM_CACTVS_TAUTO_COUNT>
-1

> <PUBCHEM_COORDINATE_TYPE>
1
5
255

> <PUBCHEM_BONDANNOTATIONS>
12  14  8
12  16  8
14  17  8
16  19  8
17  20  8
19  20  8
24  25  8
24  26  8
25  28  8
26  29  8
27  28  8
27  29  8
30  31  8
30  32  8
31  33  8
32  34  8
33  35  8
34  35  8
7  36  6
8  37  5

$$$$
