44305390
  -OEChem-09292322222D

 63 67  0     1  0  0  0  0  0999 V2000
   15.7619   -1.0526    0.0000 O   0  0  0  0  0  0  0  0  0  0  0  0
    8.5000   -4.0167    0.0000 O   0  0  0  0  0  0  0  0  0  0  0  0
   12.5000   -0.5526    0.0000 N   0  0  3  0  0  0  0  0  0  0  0  0
    8.5000   -2.2846    0.0000 N   0  0  0  0  0  0  0  0  0  0  0  0
   15.7701    4.0167    0.0000 N   0  0  0  0  0  0  0  0  0  0  0  0
   14.0298   -1.0526    0.0000 C   0  0  1  0  0  0  0  0  0  0  0  0
   14.0298   -0.0526    0.0000 C   0  0  1  0  0  0  0  0  0  0  0  0
   13.0836   -1.3573    0.0000 C   0  0  0  0  0  0  0  0  0  0  0  0
   13.0836    0.2522    0.0000 C   0  0  0  0  0  0  0  0  0  0  0  0
   14.8959   -1.5526    0.0000 C   0  0  0  0  0  0  0  0  0  0  0  0
   14.8959    0.4474    0.0000 C   0  0  0  0  0  0  0  0  0  0  0  0
   11.5000   -0.5526    0.0000 C   0  0  0  0  0  0  0  0  0  0  0  0
   15.7619   -0.0526    0.0000 C   0  0  0  0  0  0  0  0  0  0  0  0
   11.0000   -1.4186    0.0000 C   0  0  0  0  0  0  0  0  0  0  0  0
   14.8798    1.4889    0.0000 C   0  0  0  0  0  0  0  0  0  0  0  0
   16.6719    0.4543    0.0000 C   0  0  0  0  0  0  0  0  0  0  0  0
   10.0000   -1.4186    0.0000 C   0  0  0  0  0  0  0  0  0  0  0  0
   15.7778    2.0167    0.0000 C   0  0  0  0  0  0  0  0  0  0  0  0
   16.6799    1.4959    0.0000 C   0  0  0  0  0  0  0  0  0  0  0  0
    9.5000   -2.2846    0.0000 C   0  0  0  0  0  0  0  0  0  0  0  0
   15.7740    3.0167    0.0000 C   0  0  0  0  0  0  0  0  0  0  0  0
    8.0000   -3.1506    0.0000 C   0  0  0  0  0  0  0  0  0  0  0  0
    7.0000   -3.1506    0.0000 C   0  0  0  0  0  0  0  0  0  0  0  0
    6.5000   -2.2846    0.0000 C   0  0  0  0  0  0  0  0  0  0  0  0
    6.5000   -4.0167    0.0000 C   0  0  0  0  0  0  0  0  0  0  0  0
    5.0000   -3.1506    0.0000 C   0  0  0  0  0  0  0  0  0  0  0  0
    5.5000   -2.2846    0.0000 C   0  0  0  0  0  0  0  0  0  0  0  0
    5.5000   -4.0167    0.0000 C   0  0  0  0  0  0  0  0  0  0  0  0
    4.0000   -3.1506    0.0000 C   0  0  0  0  0  0  0  0  0  0  0  0
    3.5000   -2.2846    0.0000 C   0  0  0  0  0  0  0  0  0  0  0  0
    3.5000   -4.0167    0.0000 C   0  0  0  0  0  0  0  0  0  0  0  0
    2.5000   -2.2846    0.0000 C   0  0  0  0  0  0  0  0  0  0  0  0
    2.5000   -4.0167    0.0000 C   0  0  0  0  0  0  0  0  0  0  0  0
    2.0000   -3.1506    0.0000 C   0  0  0  0  0  0  0  0  0  0  0  0
   13.9399   -1.8978    0.0000 H   0  0  0  0  0  0  0  0  0  0  0  0
   13.9399    0.7927    0.0000 H   0  0  0  0  0  0  0  0  0  0  0  0
   12.5462   -1.6665    0.0000 H   0  0  0  0  0  0  0  0  0  0  0  0
   13.3346   -1.9242    0.0000 H   0  0  0  0  0  0  0  0  0  0  0  0
   13.3346    0.8191    0.0000 H   0  0  0  0  0  0  0  0  0  0  0  0
   12.5462    0.5614    0.0000 H   0  0  0  0  0  0  0  0  0  0  0  0
   14.4973   -2.0275    0.0000 H   0  0  0  0  0  0  0  0  0  0  0  0
   15.2944   -2.0275    0.0000 H   0  0  0  0  0  0  0  0  0  0  0  0
   11.6077    0.0580    0.0000 H   0  0  0  0  0  0  0  0  0  0  0  0
   10.9174   -0.3405    0.0000 H   0  0  0  0  0  0  0  0  0  0  0  0
   10.8923   -2.0292    0.0000 H   0  0  0  0  0  0  0  0  0  0  0  0
   11.5826   -1.6306    0.0000 H   0  0  0  0  0  0  0  0  0  0  0  0
   14.3393    1.7927    0.0000 H   0  0  0  0  0  0  0  0  0  0  0  0
   17.2052    0.1381    0.0000 H   0  0  0  0  0  0  0  0  0  0  0  0
   10.1077   -0.8080    0.0000 H   0  0  0  0  0  0  0  0  0  0  0  0
    9.4174   -1.2066    0.0000 H   0  0  0  0  0  0  0  0  0  0  0  0
   17.2180    1.8038    0.0000 H   0  0  0  0  0  0  0  0  0  0  0  0
    9.3923   -2.8952    0.0000 H   0  0  0  0  0  0  0  0  0  0  0  0
   10.0826   -2.4967    0.0000 H   0  0  0  0  0  0  0  0  0  0  0  0
    8.1900   -1.7477    0.0000 H   0  0  0  0  0  0  0  0  0  0  0  0
    6.8100   -1.7477    0.0000 H   0  0  0  0  0  0  0  0  0  0  0  0
    6.8100   -4.5536    0.0000 H   0  0  0  0  0  0  0  0  0  0  0  0
    5.1900   -1.7477    0.0000 H   0  0  0  0  0  0  0  0  0  0  0  0
    5.1900   -4.5536    0.0000 H   0  0  0  0  0  0  0  0  0  0  0  0
    3.8100   -1.7477    0.0000 H   0  0  0  0  0  0  0  0  0  0  0  0
    3.8100   -4.5536    0.0000 H   0  0  0  0  0  0  0  0  0  0  0  0
    2.1900   -1.7477    0.0000 H   0  0  0  0  0  0  0  0  0  0  0  0
    2.1900   -4.5536    0.0000 H   0  0  0  0  0  0  0  0  0  0  0  0
    1.3800   -3.1506    0.0000 H   0  0  0  0  0  0  0  0  0  0  0  0
  1 10  1  0  0  0  0
  1 13  1  0  0  0  0
  2 22  2  0  0  0  0
  3  8  1  0  0  0  0
  3  9  1  0  0  0  0
  3 12  1  0  0  0  0
  4 20  1  0  0  0  0
  4 22  1  0  0  0  0
  4 54  1  0  0  0  0
  5 21  3  0  0  0  0
  6  7  1  0  0  0  0
  6  8  1  0  0  0  0
  6 10  1  0  0  0  0
  6 35  1  1  0  0  0
  7  9  1  0  0  0  0
  7 11  1  0  0  0  0
  7 36  1  6  0  0  0
  8 37  1  0  0  0  0
  8 38  1  0  0  0  0
  9 39  1  0  0  0  0
  9 40  1  0  0  0  0
 10 41  1  0  0  0  0
 10 42  1  0  0  0  0
 11 13  2  0  0  0  0
 11 15  1  0  0  0  0
 12 14  1  0  0  0  0
 12 43  1  0  0  0  0
 12 44  1  0  0  0  0
 13 16  1  0  0  0  0
 14 17  1  0  0  0  0
 14 45  1  0  0  0  0
 14 46  1  0  0  0  0
 15 18  2  0  0  0  0
 15 47  1  0  0  0  0
 16 19  2  0  0  0  0
 16 48  1  0  0  0  0
 17 20  1  0  0  0  0
 17 49  1  0  0  0  0
 17 50  1  0  0  0  0
 18 19  1  0  0  0  0
 18 21  1  0  0  0  0
 19 51  1  0  0  0  0
 20 52  1  0  0  0  0
 20 53  1  0  0  0  0
 22 23  1  0  0  0  0
 23 24  2  0  0  0  0
 23 25  1  0  0  0  0
 24 27  1  0  0  0  0
 24 55  1  0  0  0  0
 25 28  2  0  0  0  0
 25 56  1  0  0  0  0
 26 27  2  0  0  0  0
 26 28  1  0  0  0  0
 26 29  1  0  0  0  0
 27 57  1  0  0  0  0
 28 58  1  0  0  0  0
 29 30  2  0  0  0  0
 29 31  1  0  0  0  0
 30 32  1  0  0  0  0
 30 59  1  0  0  0  0
 31 33  2  0  0  0  0
 31 60  1  0  0  0  0
 32 34  2  0  0  0  0
 32 61  1  0  0  0  0
 33 34  1  0  0  0  0
 33 62  1  0  0  0  0
 34 63  1  0  0  0  0
M  END
> <PUBCHEM_COMPOUND_CID>
44305390

> <PUBCHEM_COMPOUND_CANONICALIZED>
1

> <PUBCHEM_CACTVS_COMPLEXITY>
718

> <PUBCHEM_CACTVS_HBOND_ACCEPTOR>
4

> <PUBCHEM_CACTVS_HBOND_DONOR>
1

> <PUBCHEM_CACTVS_ROTATABLE_BOND>
7

> <PUBCHEM_CACTVS_SUBSKEYS>
AAADceB7MAAAAAAAAAAAAAAAAAAAAWAAAAA0YMEAAAAAAFiRUAAAHgAQAAAADQThmAYwBoPABACYBiFSEACiCAAkIAAIiIEODMgMpjKEtRuGOSjm1hGIqY+42OKO4AACAAAIAADAAAQAABAAAAAAAAAAAA==

> <PUBCHEM_IUPAC_OPENEYE_NAME>
N-[4-[(3aS,9bR)-8-cyano-3,3a,4,9b-tetrahydro-1H-chromeno[3,4-c]pyrrol-2-yl]butyl]-4-phenyl-benzamide

> <PUBCHEM_IUPAC_CAS_NAME>
N-[4-[(3aS,9bR)-8-cyano-3,3a,4,9b-tetrahydro-1H-[1]benzopyrano[3,4-c]pyrrol-2-yl]butyl]-4-phenylbenzamide

> <PUBCHEM_IUPAC_NAME_MARKUP>
<I>N</I>-[4-[(3<I>a</I><I>S</I>,9<I>b</I><I>R</I>)-8-cyano-3,3<I>a</I>,4,9<I>b</I>-tetrahydro-1<I>H</I>-chromeno[3,4-c]pyrrol-2-yl]butyl]-4-phenylbenzamide

> <PUBCHEM_IUPAC_NAME>
N-[4-[(3aS,9bR)-8-cyano-3,3a,4,9b-tetrahydro-1H-chromeno[3,4-c]pyrrol-2-yl]butyl]-4-phenylbenzamide

> <PUBCHEM_IUPAC_SYSTEMATIC_NAME>
N-[4-[(3aS,9bR)-8-cyano-3,3a,4,9b-tetrahydro-1H-chromeno[3,4-c]pyrrol-2-yl]butyl]-4-phenyl-benzamide

> <PUBCHEM_IUPAC_TRADITIONAL_NAME>
N-[4-[(3aS,9bR)-8-cyano-3,3a,4,9b-tetrahydro-1H-chromeno[3,4-c]pyrrol-2-yl]butyl]-4-phenyl-benzamide

> <PUBCHEM_IUPAC_INCHI>
InChI=1S/C29H29N3O2/c30-17-21-8-13-28-26(16-21)27-19-32(18-25(27)20-34-28)15-5-4-14-31-29(33)24-11-9-23(10-12-24)22-6-2-1-3-7-22/h1-3,6-13,16,25,27H,4-5,14-15,18-20H2,(H,31,33)/t25-,27+/m0/s1

> <PUBCHEM_IUPAC_INCHIKEY>
QQJHRQZZCNYDMX-AHKZPQOWSA-N

> <PUBCHEM_XLOGP3_AA>
4.8

> <PUBCHEM_EXACT_MASS>
451.22597718

> <PUBCHEM_MOLECULAR_FORMULA>
C29H29N3O2

> <PUBCHEM_MOLECULAR_WEIGHT>
451.6

> <PUBCHEM_OPENEYE_CAN_SMILES>
C1C2COC3=C(C2CN1CCCCNC(=O)C4=CC=C(C=C4)C5=CC=CC=C5)C=C(C=C3)C#N

> <PUBCHEM_OPENEYE_ISO_SMILES>
C1[C@H]2COC3=C([C@@H]2CN1CCCCNC(=O)C4=CC=C(C=C4)C5=CC=CC=C5)C=C(C=C3)C#N

> <PUBCHEM_CACTVS_TPSA>
65.4

> <PUBCHEM_MONOISOTOPIC_WEIGHT>
451.22597718

> <PUBCHEM_TOTAL_CHARGE>
0

> <PUBCHEM_HEAVY_ATOM_COUNT>
34

> <PUBCHEM_ATOM_DEF_STEREO_COUNT>
2

> <PUBCHEM_ATOM_UDEF_STEREO_COUNT>
0

> <PUBCHEM_BOND_DEF_STEREO_COUNT>
0

> <PUBCHEM_BOND_UDEF_STEREO_COUNT>
0

> <PUBCHEM_ISOTOPIC_ATOM_COUNT>
0

> <PUBCHEM_COMPONENT_COUNT>
1

> <PUBCHEM_CACTVS_TAUTO_COUNT>
-1

> <PUBCHEM_COORDINATE_TYPE>
1
5
255

> <PUBCHEM_BONDANNOTATIONS>
11  13  8
11  15  8
13  16  8
15  18  8
16  19  8
18  19  8
23  24  8
23  25  8
24  27  8
25  28  8
26  27  8
26  28  8
29  30  8
29  31  8
30  32  8
31  33  8
32  34  8
33  34  8
6  35  5
7  36  6

$$$$
