44579030
  -OEChem-09292322502D

 59 62  0     1  0  0  0  0  0999 V2000
    4.5574    0.5041    0.0000 O   0  0  0  0  0  0  0  0  0  0  0  0
    2.8255    0.5241    0.0000 O   0  0  0  0  0  0  0  0  0  0  0  0
    8.0301   -2.5275    0.0000 N   0  0  3  0  0  0  0  0  0  0  0  0
    7.1719   -2.0305    0.0000 C   0  0  1  0  0  0  0  0  0  0  0  0
    7.1719   -1.0305    0.0000 C   0  0  0  0  0  0  0  0  0  0  0  0
    6.3058   -2.5305    0.0000 C   0  0  0  0  0  0  0  0  0  0  0  0
    8.8956   -2.0433    0.0000 C   0  0  0  0  0  0  0  0  0  0  0  0
    8.0819   -0.5237    0.0000 C   0  0  0  0  0  0  0  0  0  0  0  0
    8.9212   -1.0519    0.0000 C   0  0  0  0  0  0  0  0  0  0  0  0
    6.3058   -0.5305    0.0000 C   0  0  0  0  0  0  0  0  0  0  0  0
    5.4398   -2.0305    0.0000 C   0  0  0  0  0  0  0  0  0  0  0  0
    8.0227   -3.5274    0.0000 C   0  0  0  0  0  0  0  0  0  0  0  0
    5.4398   -1.0305    0.0000 C   0  0  0  0  0  0  0  0  0  0  0  0
    8.0899    0.5179    0.0000 C   0  0  0  0  0  0  0  0  0  0  0  0
    6.2898    0.5110    0.0000 C   0  0  0  0  0  0  0  0  0  0  0  0
    8.8850   -4.0338    0.0000 C   0  0  0  0  0  0  0  0  0  0  0  0
    4.5459   -0.4959    0.0000 C   0  0  0  0  0  0  0  0  0  0  0  0
    4.5459   -2.5652    0.0000 C   0  0  0  0  0  0  0  0  0  0  0  0
    7.1878    1.0387    0.0000 C   0  0  0  0  0  0  0  0  0  0  0  0
    3.6398   -1.0097    0.0000 C   0  0  0  0  0  0  0  0  0  0  0  0
    3.6398   -2.0513    0.0000 C   0  0  0  0  0  0  0  0  0  0  0  0
    8.8776   -5.0338    0.0000 C   0  0  0  0  0  0  0  0  0  0  0  0
    3.6972    1.0140    0.0000 C   0  0  0  0  0  0  0  0  0  0  0  0
    3.7088    2.0140    0.0000 C   0  0  0  0  0  0  0  0  0  0  0  0
    2.8486    2.5240    0.0000 C   0  0  0  0  0  0  0  0  0  0  0  0
    2.8602    3.5239    0.0000 C   0  0  0  0  0  0  0  0  0  0  0  0
    2.0000    4.0339    0.0000 C   0  0  0  0  0  0  0  0  0  0  0  0
    2.0116    5.0338    0.0000 C   0  0  0  0  0  0  0  0  0  0  0  0
    7.1713   -2.8805    0.0000 H   0  0  0  0  0  0  0  0  0  0  0  0
    5.9073   -3.0055    0.0000 H   0  0  0  0  0  0  0  0  0  0  0  0
    6.7044   -3.0055    0.0000 H   0  0  0  0  0  0  0  0  0  0  0  0
    9.0973   -2.6296    0.0000 H   0  0  0  0  0  0  0  0  0  0  0  0
    9.5083   -1.9489    0.0000 H   0  0  0  0  0  0  0  0  0  0  0  0
    9.5283   -1.1778    0.0000 H   0  0  0  0  0  0  0  0  0  0  0  0
    9.1529   -0.4769    0.0000 H   0  0  0  0  0  0  0  0  0  0  0  0
    7.4129   -3.4153    0.0000 H   0  0  0  0  0  0  0  0  0  0  0  0
    7.8063   -4.1085    0.0000 H   0  0  0  0  0  0  0  0  0  0  0  0
    8.6280    0.8258    0.0000 H   0  0  0  0  0  0  0  0  0  0  0  0
    5.7493    0.8147    0.0000 H   0  0  0  0  0  0  0  0  0  0  0  0
    9.4948   -4.1460    0.0000 H   0  0  0  0  0  0  0  0  0  0  0  0
    9.1013   -3.4528    0.0000 H   0  0  0  0  0  0  0  0  0  0  0  0
    4.5530   -3.1852    0.0000 H   0  0  0  0  0  0  0  0  0  0  0  0
    7.1854    1.6587    0.0000 H   0  0  0  0  0  0  0  0  0  0  0  0
    3.1041   -0.6976    0.0000 H   0  0  0  0  0  0  0  0  0  0  0  0
    3.1041   -2.3634    0.0000 H   0  0  0  0  0  0  0  0  0  0  0  0
    8.2576   -5.0292    0.0000 H   0  0  0  0  0  0  0  0  0  0  0  0
    8.8730   -5.6538    0.0000 H   0  0  0  0  0  0  0  0  0  0  0  0
    9.4976   -5.0384    0.0000 H   0  0  0  0  0  0  0  0  0  0  0  0
    4.3181    1.8993    0.0000 H   0  0  0  0  0  0  0  0  0  0  0  0
    3.9276    2.5941    0.0000 H   0  0  0  0  0  0  0  0  0  0  0  0
    2.2393    2.6387    0.0000 H   0  0  0  0  0  0  0  0  0  0  0  0
    2.6298    1.9438    0.0000 H   0  0  0  0  0  0  0  0  0  0  0  0
    3.4695    3.4092    0.0000 H   0  0  0  0  0  0  0  0  0  0  0  0
    3.0790    4.1040    0.0000 H   0  0  0  0  0  0  0  0  0  0  0  0
    1.3907    4.1486    0.0000 H   0  0  0  0  0  0  0  0  0  0  0  0
    1.7812    3.4538    0.0000 H   0  0  0  0  0  0  0  0  0  0  0  0
    2.6315    5.0266    0.0000 H   0  0  0  0  0  0  0  0  0  0  0  0
    2.0187    5.6538    0.0000 H   0  0  0  0  0  0  0  0  0  0  0  0
    1.3916    5.0410    0.0000 H   0  0  0  0  0  0  0  0  0  0  0  0
  1 17  1  0  0  0  0
  1 23  1  0  0  0  0
  2 23  2  0  0  0  0
  3  4  1  0  0  0  0
  3  7  1  0  0  0  0
  3 12  1  0  0  0  0
  4  5  1  0  0  0  0
  4  6  1  0  0  0  0
  4 29  1  1  0  0  0
  5  8  2  0  0  0  0
  5 10  1  0  0  0  0
  6 11  1  0  0  0  0
  6 30  1  0  0  0  0
  6 31  1  0  0  0  0
  7  9  1  0  0  0  0
  7 32  1  0  0  0  0
  7 33  1  0  0  0  0
  8  9  1  0  0  0  0
  8 14  1  0  0  0  0
  9 34  1  0  0  0  0
  9 35  1  0  0  0  0
 10 13  1  0  0  0  0
 10 15  2  0  0  0  0
 11 13  2  0  0  0  0
 11 18  1  0  0  0  0
 12 16  1  0  0  0  0
 12 36  1  0  0  0  0
 12 37  1  0  0  0  0
 13 17  1  0  0  0  0
 14 19  2  0  0  0  0
 14 38  1  0  0  0  0
 15 19  1  0  0  0  0
 15 39  1  0  0  0  0
 16 22  1  0  0  0  0
 16 40  1  0  0  0  0
 16 41  1  0  0  0  0
 17 20  2  0  0  0  0
 18 21  2  0  0  0  0
 18 42  1  0  0  0  0
 19 43  1  0  0  0  0
 20 21  1  0  0  0  0
 20 44  1  0  0  0  0
 21 45  1  0  0  0  0
 22 46  1  0  0  0  0
 22 47  1  0  0  0  0
 22 48  1  0  0  0  0
 23 24  1  0  0  0  0
 24 25  1  0  0  0  0
 24 49  1  0  0  0  0
 24 50  1  0  0  0  0
 25 26  1  0  0  0  0
 25 51  1  0  0  0  0
 25 52  1  0  0  0  0
 26 27  1  0  0  0  0
 26 53  1  0  0  0  0
 26 54  1  0  0  0  0
 27 28  1  0  0  0  0
 27 55  1  0  0  0  0
 27 56  1  0  0  0  0
 28 57  1  0  0  0  0
 28 58  1  0  0  0  0
 28 59  1  0  0  0  0
M  END
> <PUBCHEM_COMPOUND_CID>
44579030

> <PUBCHEM_COMPOUND_CANONICALIZED>
1

> <PUBCHEM_CACTVS_COMPLEXITY>
521

> <PUBCHEM_CACTVS_HBOND_ACCEPTOR>
3

> <PUBCHEM_CACTVS_HBOND_DONOR>
0

> <PUBCHEM_CACTVS_ROTATABLE_BOND>
8

> <PUBCHEM_CACTVS_SUBSKEYS>
AAADceB6MAAAAAAAAAAAAAAAAAAAAAAAAAA8YMEAAAAAAADxQAAAHgAAAAAADCzBmAQyDoMABACIAiDSCACCCAAgIAAIiAEODIgMJjKEsRuGOijkwBGIqAeY2PMOgAADAAAYAACQAAaAADQAAAAAAAAAAA==

> <PUBCHEM_IUPAC_OPENEYE_NAME>
[(6aR)-6-propyl-5,6,6a,7-tetrahydro-4H-dibenzo[de,g]quinolin-11-yl] hexanoate

> <PUBCHEM_IUPAC_CAS_NAME>
hexanoic acid [(6aR)-6-propyl-5,6,6a,7-tetrahydro-4H-dibenzo[de,g]quinolin-11-yl] ester

> <PUBCHEM_IUPAC_NAME_MARKUP>
[(6<I>a</I><I>R</I>)-6-propyl-5,6,6<I>a</I>,7-tetrahydro-4<I>H</I>-dibenzo[de,g]quinolin-11-yl] hexanoate

> <PUBCHEM_IUPAC_NAME>
[(6aR)-6-propyl-5,6,6a,7-tetrahydro-4H-dibenzo[de,g]quinolin-11-yl] hexanoate

> <PUBCHEM_IUPAC_SYSTEMATIC_NAME>
[(6aR)-6-propyl-5,6,6a,7-tetrahydro-4H-dibenzo[de,g]quinolin-11-yl] hexanoate

> <PUBCHEM_IUPAC_TRADITIONAL_NAME>
hexanoic acid [(6aR)-6-propyl-5,6,6a,7-tetrahydro-4H-dibenzo[de,g]quinolin-11-yl] ester

> <PUBCHEM_IUPAC_INCHI>
InChI=1S/C25H31NO2/c1-3-5-6-13-23(27)28-22-12-8-10-19-17-21-24-18(14-16-26(21)15-4-2)9-7-11-20(24)25(19)22/h7-12,21H,3-6,13-17H2,1-2H3/t21-/m1/s1

> <PUBCHEM_IUPAC_INCHIKEY>
IHDFATFMTYOPPY-OAQYLSRUSA-N

> <PUBCHEM_XLOGP3_AA>
6

> <PUBCHEM_EXACT_MASS>
377.235479232

> <PUBCHEM_MOLECULAR_FORMULA>
C25H31NO2

> <PUBCHEM_MOLECULAR_WEIGHT>
377.5

> <PUBCHEM_OPENEYE_CAN_SMILES>
CCCCCC(=O)OC1=CC=CC2=C1C3=CC=CC4=C3C(C2)N(CC4)CCC

> <PUBCHEM_OPENEYE_ISO_SMILES>
CCCCCC(=O)OC1=CC=CC2=C1C3=CC=CC4=C3[C@@H](C2)N(CC4)CCC

> <PUBCHEM_CACTVS_TPSA>
29.5

> <PUBCHEM_MONOISOTOPIC_WEIGHT>
377.235479232

> <PUBCHEM_TOTAL_CHARGE>
0

> <PUBCHEM_HEAVY_ATOM_COUNT>
28

> <PUBCHEM_ATOM_DEF_STEREO_COUNT>
1

> <PUBCHEM_ATOM_UDEF_STEREO_COUNT>
0

> <PUBCHEM_BOND_DEF_STEREO_COUNT>
0

> <PUBCHEM_BOND_UDEF_STEREO_COUNT>
0

> <PUBCHEM_ISOTOPIC_ATOM_COUNT>
0

> <PUBCHEM_COMPONENT_COUNT>
1

> <PUBCHEM_CACTVS_TAUTO_COUNT>
-1

> <PUBCHEM_COORDINATE_TYPE>
1
5
255

> <PUBCHEM_BONDANNOTATIONS>
10  15  8
11  13  8
11  18  8
13  17  8
14  19  8
15  19  8
17  20  8
18  21  8
20  21  8
4  29  5
5  10  8
5  8  8
8  14  8

$$$$
