164616128
  -OEChem-09292322022D

 65 68  0     1  0  0  0  0  0999 V2000
    2.8834   -2.2963    0.0000 Cl  0  0  0  0  0  0  0  0  0  0  0  0
    2.8680    1.7036    0.0000 O   0  0  0  0  0  0  0  0  0  0  0  0
   11.6679    0.2375    0.0000 O   0  0  0  0  0  0  0  0  0  0  0  0
   16.9301    0.2617    0.0000 O   0  0  0  0  0  0  0  0  0  0  0  0
    7.3359    0.7208    0.0000 N   0  0  3  0  0  0  0  0  0  0  0  0
   15.1980    0.2617    0.0000 N   0  0  0  0  0  0  0  0  0  0  0  0
    5.6038    0.7142    0.0000 C   0  0  3  0  0  0  0  0  0  0  0  0
    4.6038    0.7103    0.0000 C   0  0  3  0  0  0  0  0  0  0  0  0
    5.1005    1.5783    0.0000 C   0  0  0  0  0  0  0  0  0  0  0  0
    6.4718    0.2175    0.0000 C   0  0  0  0  0  0  0  0  0  0  0  0
    3.7398    0.2070    0.0000 C   0  0  0  0  0  0  0  0  0  0  0  0
    2.8718    0.7036    0.0000 C   0  0  0  0  0  0  0  0  0  0  0  0
    3.7436   -0.7930    0.0000 C   0  0  0  0  0  0  0  0  0  0  0  0
    8.2038    0.2242    0.0000 C   0  0  0  0  0  0  0  0  0  0  0  0
    7.3320    1.7208    0.0000 C   0  0  0  0  0  0  0  0  0  0  0  0
    9.0679    0.7275    0.0000 C   0  0  0  0  0  0  0  0  0  0  0  0
    2.0077    0.2003    0.0000 C   0  0  0  0  0  0  0  0  0  0  0  0
    2.8795   -1.2963    0.0000 C   0  0  0  0  0  0  0  0  0  0  0  0
    8.1961    2.2242    0.0000 C   0  0  0  0  0  0  0  0  0  0  0  0
    2.0116   -0.7997    0.0000 C   0  0  0  0  0  0  0  0  0  0  0  0
    9.9358    0.2309    0.0000 C   0  0  0  0  0  0  0  0  0  0  0  0
   10.7999    0.7342    0.0000 C   0  0  0  0  0  0  0  0  0  0  0  0
    2.0000    2.2003    0.0000 C   0  0  0  0  0  0  0  0  0  0  0  0
   12.5320    0.7409    0.0000 C   0  0  0  0  0  0  0  0  0  0  0  0
   14.3320    1.7617    0.0000 C   0  0  0  0  0  0  0  0  0  0  0  0
   14.3320    0.7617    0.0000 C   0  0  0  0  0  0  0  0  0  0  0  0
   13.4381    0.2270    0.0000 C   0  0  0  0  0  0  0  0  0  0  0  0
   15.1980    2.2617    0.0000 C   0  0  0  0  0  0  0  0  0  0  0  0
   12.5320    1.7825    0.0000 C   0  0  0  0  0  0  0  0  0  0  0  0
   16.0640    1.7617    0.0000 C   0  0  0  0  0  0  0  0  0  0  0  0
   13.4381    2.2963    0.0000 C   0  0  0  0  0  0  0  0  0  0  0  0
   16.0640    0.7617    0.0000 C   0  0  0  0  0  0  0  0  0  0  0  0
    6.0405    1.1543    0.0000 H   0  0  0  0  0  0  0  0  0  0  0  0
    4.1638    1.1470    0.0000 H   0  0  0  0  0  0  0  0  0  0  0  0
    5.5739    1.9786    0.0000 H   0  0  0  0  0  0  0  0  0  0  0  0
    4.6240    1.9750    0.0000 H   0  0  0  0  0  0  0  0  0  0  0  0
    6.0751   -0.2590    0.0000 H   0  0  0  0  0  0  0  0  0  0  0  0
    6.8721   -0.2559    0.0000 H   0  0  0  0  0  0  0  0  0  0  0  0
    7.8071   -0.2523    0.0000 H   0  0  0  0  0  0  0  0  0  0  0  0
    8.6042   -0.2492    0.0000 H   0  0  0  0  0  0  0  0  0  0  0  0
    4.2817   -1.1010    0.0000 H   0  0  0  0  0  0  0  0  0  0  0  0
    7.1177    2.3026    0.0000 H   0  0  0  0  0  0  0  0  0  0  0  0
    6.7218    1.6108    0.0000 H   0  0  0  0  0  0  0  0  0  0  0  0
    9.4646    1.2040    0.0000 H   0  0  0  0  0  0  0  0  0  0  0  0
    8.6676    1.2009    0.0000 H   0  0  0  0  0  0  0  0  0  0  0  0
    1.4696    0.5082    0.0000 H   0  0  0  0  0  0  0  0  0  0  0  0
    8.5082    1.6884    0.0000 H   0  0  0  0  0  0  0  0  0  0  0  0
    8.7318    2.5362    0.0000 H   0  0  0  0  0  0  0  0  0  0  0  0
    7.8840    2.7599    0.0000 H   0  0  0  0  0  0  0  0  0  0  0  0
    1.4758   -1.1118    0.0000 H   0  0  0  0  0  0  0  0  0  0  0  0
    9.5392   -0.2456    0.0000 H   0  0  0  0  0  0  0  0  0  0  0  0
   10.3362   -0.2426    0.0000 H   0  0  0  0  0  0  0  0  0  0  0  0
   11.1966    1.2107    0.0000 H   0  0  0  0  0  0  0  0  0  0  0  0
   10.3996    1.2076    0.0000 H   0  0  0  0  0  0  0  0  0  0  0  0
    2.3079    2.7384    0.0000 H   0  0  0  0  0  0  0  0  0  0  0  0
    1.4619    2.5082    0.0000 H   0  0  0  0  0  0  0  0  0  0  0  0
    1.6921    1.6622    0.0000 H   0  0  0  0  0  0  0  0  0  0  0  0
   15.5965    2.7366    0.0000 H   0  0  0  0  0  0  0  0  0  0  0  0
   14.7995    2.7366    0.0000 H   0  0  0  0  0  0  0  0  0  0  0  0
   13.4452   -0.3929    0.0000 H   0  0  0  0  0  0  0  0  0  0  0  0
   11.9962    2.0946    0.0000 H   0  0  0  0  0  0  0  0  0  0  0  0
   16.6746    1.6540    0.0000 H   0  0  0  0  0  0  0  0  0  0  0  0
   16.2761    2.3443    0.0000 H   0  0  0  0  0  0  0  0  0  0  0  0
   13.4452    2.9163    0.0000 H   0  0  0  0  0  0  0  0  0  0  0  0
   15.1980   -0.3583    0.0000 H   0  0  0  0  0  0  0  0  0  0  0  0
  1 18  1  0  0  0  0
  2 12  1  0  0  0  0
  2 23  1  0  0  0  0
  3 22  1  0  0  0  0
  3 24  1  0  0  0  0
  4 32  2  0  0  0  0
  5 10  1  0  0  0  0
  5 14  1  0  0  0  0
  5 15  1  0  0  0  0
  6 26  1  0  0  0  0
  6 32  1  0  0  0  0
  6 65  1  0  0  0  0
  7  8  1  0  0  0  0
  7  9  1  0  0  0  0
  7 10  1  0  0  0  0
  7 33  1  0  0  0  0
  8  9  1  0  0  0  0
  8 11  1  0  0  0  0
  8 34  1  0  0  0  0
  9 35  1  0  0  0  0
  9 36  1  0  0  0  0
 10 37  1  0  0  0  0
 10 38  1  0  0  0  0
 11 12  2  0  0  0  0
 11 13  1  0  0  0  0
 12 17  1  0  0  0  0
 13 18  2  0  0  0  0
 13 41  1  0  0  0  0
 14 16  1  0  0  0  0
 14 39  1  0  0  0  0
 14 40  1  0  0  0  0
 15 19  1  0  0  0  0
 15 42  1  0  0  0  0
 15 43  1  0  0  0  0
 16 21  1  0  0  0  0
 16 44  1  0  0  0  0
 16 45  1  0  0  0  0
 17 20  2  0  0  0  0
 17 46  1  0  0  0  0
 18 20  1  0  0  0  0
 19 47  1  0  0  0  0
 19 48  1  0  0  0  0
 19 49  1  0  0  0  0
 20 50  1  0  0  0  0
 21 22  1  0  0  0  0
 21 51  1  0  0  0  0
 21 52  1  0  0  0  0
 22 53  1  0  0  0  0
 22 54  1  0  0  0  0
 23 55  1  0  0  0  0
 23 56  1  0  0  0  0
 23 57  1  0  0  0  0
 24 27  2  0  0  0  0
 24 29  1  0  0  0  0
 25 26  2  0  0  0  0
 25 28  1  0  0  0  0
 25 31  1  0  0  0  0
 26 27  1  0  0  0  0
 27 60  1  0  0  0  0
 28 30  1  0  0  0  0
 28 58  1  0  0  0  0
 28 59  1  0  0  0  0
 29 31  2  0  0  0  0
 29 61  1  0  0  0  0
 30 32  1  0  0  0  0
 30 62  1  0  0  0  0
 30 63  1  0  0  0  0
 31 64  1  0  0  0  0
M  END
> <PUBCHEM_COMPOUND_CID>
164616128

> <PUBCHEM_COMPOUND_CANONICALIZED>
1

> <PUBCHEM_CACTVS_COMPLEXITY>
606

> <PUBCHEM_CACTVS_HBOND_ACCEPTOR>
4

> <PUBCHEM_CACTVS_HBOND_DONOR>
1

> <PUBCHEM_CACTVS_ROTATABLE_BOND>
11

> <PUBCHEM_CACTVS_SUBSKEYS>
AAADcfB7MAAEAAAAAAAAAAAAGAAAAAAAAAA8YIAAAAAAAACxQAAAHgIQAAAADQ7hmCYyxoPABACIAiVSUACCCAAhJwAIiAEObogMJjLFs5uGOCjm1BnI6Ae42eOeoCAAIgAKAABAQABEABQAAAAAAAAAAA==

> <PUBCHEM_IUPAC_OPENEYE_NAME>
7-[4-[[2-(5-chloro-2-methoxy-phenyl)cyclopropyl]methyl-ethyl-amino]butoxy]-3,4-dihydro-1H-quinolin-2-one

> <PUBCHEM_IUPAC_CAS_NAME>
7-[4-[[2-(5-chloro-2-methoxyphenyl)cyclopropyl]methyl-ethylamino]butoxy]-3,4-dihydro-1H-quinolin-2-one

> <PUBCHEM_IUPAC_NAME_MARKUP>
7-[4-[[2-(5-chloro-2-methoxyphenyl)cyclopropyl]methyl-ethylamino]butoxy]-3,4-dihydro-1<I>H</I>-quinolin-2-one

> <PUBCHEM_IUPAC_NAME>
7-[4-[[2-(5-chloro-2-methoxyphenyl)cyclopropyl]methyl-ethylamino]butoxy]-3,4-dihydro-1H-quinolin-2-one

> <PUBCHEM_IUPAC_SYSTEMATIC_NAME>
7-[4-[[2-(5-chloranyl-2-methoxy-phenyl)cyclopropyl]methyl-ethyl-amino]butoxy]-3,4-dihydro-1H-quinolin-2-one

> <PUBCHEM_IUPAC_TRADITIONAL_NAME>
7-[4-[[2-(5-chloro-2-methoxy-phenyl)cyclopropyl]methyl-ethyl-amino]butoxy]-3,4-dihydrocarbostyril

> <PUBCHEM_IUPAC_INCHI>
InChI=1S/C26H33ClN2O3/c1-3-29(17-19-14-22(19)23-15-20(27)8-10-25(23)31-2)12-4-5-13-32-21-9-6-18-7-11-26(30)28-24(18)16-21/h6,8-10,15-16,19,22H,3-5,7,11-14,17H2,1-2H3,(H,28,30)

> <PUBCHEM_IUPAC_INCHIKEY>
MCWYCVLTQSVHRD-UHFFFAOYSA-N

> <PUBCHEM_XLOGP3_AA>
4.9

> <PUBCHEM_EXACT_MASS>
456.2179706

> <PUBCHEM_MOLECULAR_FORMULA>
C26H33ClN2O3

> <PUBCHEM_MOLECULAR_WEIGHT>
457.0

> <PUBCHEM_OPENEYE_CAN_SMILES>
CCN(CCCCOC1=CC2=C(CCC(=O)N2)C=C1)CC3CC3C4=C(C=CC(=C4)Cl)OC

> <PUBCHEM_OPENEYE_ISO_SMILES>
CCN(CCCCOC1=CC2=C(CCC(=O)N2)C=C1)CC3CC3C4=C(C=CC(=C4)Cl)OC

> <PUBCHEM_CACTVS_TPSA>
50.8

> <PUBCHEM_MONOISOTOPIC_WEIGHT>
456.2179706

> <PUBCHEM_TOTAL_CHARGE>
0

> <PUBCHEM_HEAVY_ATOM_COUNT>
32

> <PUBCHEM_ATOM_DEF_STEREO_COUNT>
0

> <PUBCHEM_ATOM_UDEF_STEREO_COUNT>
2

> <PUBCHEM_BOND_DEF_STEREO_COUNT>
0

> <PUBCHEM_BOND_UDEF_STEREO_COUNT>
0

> <PUBCHEM_ISOTOPIC_ATOM_COUNT>
0

> <PUBCHEM_COMPONENT_COUNT>
1

> <PUBCHEM_CACTVS_TAUTO_COUNT>
-1

> <PUBCHEM_COORDINATE_TYPE>
1
5
255

> <PUBCHEM_BONDANNOTATIONS>
11  12  8
11  13  8
12  17  8
13  18  8
17  20  8
18  20  8
24  27  8
24  29  8
25  26  8
25  31  8
26  27  8
29  31  8
7  10  3
8  11  3

$$$$
