44338402
  -OEChem-09292322502D

 60 63  0     0  0  0  0  0  0999 V2000
    8.9030    2.7531    0.0000 Cl  0  0  0  0  0  0  0  0  0  0  0  0
    6.2619    0.1729    0.0000 S   0  0  0  0  0  0  0  0  0  0  0  0
   10.7619   -2.4251    0.0000 O   0  0  0  0  0  0  0  0  0  0  0  0
   10.7619    1.0390    0.0000 O   0  0  0  0  0  0  0  0  0  0  0  0
    9.2619   -3.2912    0.0000 O   0  0  0  0  0  0  0  0  0  0  0  0
    9.2619    1.9050    0.0000 O   0  0  0  0  0  0  0  0  0  0  0  0
    4.6783    0.9777    0.0000 N   0  0  0  0  0  0  0  0  0  0  0  0
    4.6783   -0.6318    0.0000 N   0  0  0  0  0  0  0  0  0  0  0  0
    3.7320    0.6729    0.0000 C   0  0  0  0  0  0  0  0  0  0  0  0
    4.9889    1.9282    0.0000 C   0  0  0  0  0  0  0  0  0  0  0  0
    5.2619    0.1729    0.0000 C   0  0  0  0  0  0  0  0  0  0  0  0
    3.7320   -0.3271    0.0000 C   0  0  0  0  0  0  0  0  0  0  0  0
    5.9674    2.1344    0.0000 C   0  0  0  0  0  0  0  0  0  0  0  0
    2.8660    1.1730    0.0000 C   0  0  0  0  0  0  0  0  0  0  0  0
    6.7619   -0.6931    0.0000 C   0  0  0  0  0  0  0  0  0  0  0  0
    2.8660   -0.8271    0.0000 C   0  0  0  0  0  0  0  0  0  0  0  0
    7.7619   -0.6931    0.0000 C   0  0  0  0  0  0  0  0  0  0  0  0
    2.0000    0.6729    0.0000 C   0  0  0  0  0  0  0  0  0  0  0  0
    2.0000   -0.3271    0.0000 C   0  0  0  0  0  0  0  0  0  0  0  0
    6.2781    3.0849    0.0000 C   0  0  0  0  0  0  0  0  0  0  0  0
    6.6353    1.3901    0.0000 C   0  0  0  0  0  0  0  0  0  0  0  0
    8.2619    0.1729    0.0000 C   0  0  0  0  0  0  0  0  0  0  0  0
    8.2619   -1.5591    0.0000 C   0  0  0  0  0  0  0  0  0  0  0  0
    9.2619    0.1729    0.0000 C   0  0  0  0  0  0  0  0  0  0  0  0
    9.2619   -1.5591    0.0000 C   0  0  0  0  0  0  0  0  0  0  0  0
    9.7619   -0.6931    0.0000 C   0  0  0  0  0  0  0  0  0  0  0  0
    7.2566    3.2912    0.0000 C   0  0  0  0  0  0  0  0  0  0  0  0
    7.6138    1.5963    0.0000 C   0  0  0  0  0  0  0  0  0  0  0  0
    7.9244    2.5468    0.0000 C   0  0  0  0  0  0  0  0  0  0  0  0
    9.7619   -2.4251    0.0000 C   0  0  0  0  0  0  0  0  0  0  0  0
    9.7619    1.0390    0.0000 C   0  0  0  0  0  0  0  0  0  0  0  0
   11.2619   -3.2912    0.0000 C   0  0  0  0  0  0  0  0  0  0  0  0
   11.2619    1.9050    0.0000 C   0  0  0  0  0  0  0  0  0  0  0  0
   12.2619   -3.2912    0.0000 C   0  0  0  0  0  0  0  0  0  0  0  0
   12.2619    1.9050    0.0000 C   0  0  0  0  0  0  0  0  0  0  0  0
    4.9684    2.5479    0.0000 H   0  0  0  0  0  0  0  0  0  0  0  0
    4.3751    2.0156    0.0000 H   0  0  0  0  0  0  0  0  0  0  0  0
    2.8660    1.7930    0.0000 H   0  0  0  0  0  0  0  0  0  0  0  0
    6.1793   -0.9051    0.0000 H   0  0  0  0  0  0  0  0  0  0  0  0
    6.8695   -1.3037    0.0000 H   0  0  0  0  0  0  0  0  0  0  0  0
    2.8660   -1.4470    0.0000 H   0  0  0  0  0  0  0  0  0  0  0  0
    1.4631    0.9829    0.0000 H   0  0  0  0  0  0  0  0  0  0  0  0
    1.4631   -0.6371    0.0000 H   0  0  0  0  0  0  0  0  0  0  0  0
    5.8640    3.5464    0.0000 H   0  0  0  0  0  0  0  0  0  0  0  0
    6.4427    0.8008    0.0000 H   0  0  0  0  0  0  0  0  0  0  0  0
    7.9519    0.7099    0.0000 H   0  0  0  0  0  0  0  0  0  0  0  0
    7.9519   -2.0960    0.0000 H   0  0  0  0  0  0  0  0  0  0  0  0
   10.3819   -0.6931    0.0000 H   0  0  0  0  0  0  0  0  0  0  0  0
    7.4492    3.8805    0.0000 H   0  0  0  0  0  0  0  0  0  0  0  0
    8.0279    1.1349    0.0000 H   0  0  0  0  0  0  0  0  0  0  0  0
   10.6793   -3.5032    0.0000 H   0  0  0  0  0  0  0  0  0  0  0  0
   11.3695   -3.9017    0.0000 H   0  0  0  0  0  0  0  0  0  0  0  0
   11.3695    2.5156    0.0000 H   0  0  0  0  0  0  0  0  0  0  0  0
   10.6793    2.1170    0.0000 H   0  0  0  0  0  0  0  0  0  0  0  0
   12.2619   -3.9112    0.0000 H   0  0  0  0  0  0  0  0  0  0  0  0
   12.8819   -3.2912    0.0000 H   0  0  0  0  0  0  0  0  0  0  0  0
   12.2619   -2.6712    0.0000 H   0  0  0  0  0  0  0  0  0  0  0  0
   12.2619    1.2850    0.0000 H   0  0  0  0  0  0  0  0  0  0  0  0
   12.8819    1.9050    0.0000 H   0  0  0  0  0  0  0  0  0  0  0  0
   12.2619    2.5250    0.0000 H   0  0  0  0  0  0  0  0  0  0  0  0
  1 29  1  0  0  0  0
  2 11  1  0  0  0  0
  2 15  1  0  0  0  0
  3 30  1  0  0  0  0
  3 32  1  0  0  0  0
  4 31  1  0  0  0  0
  4 33  1  0  0  0  0
  5 30  2  0  0  0  0
  6 31  2  0  0  0  0
  7  9  1  0  0  0  0
  7 10  1  0  0  0  0
  7 11  1  0  0  0  0
  8 11  2  0  0  0  0
  8 12  1  0  0  0  0
  9 12  1  0  0  0  0
  9 14  2  0  0  0  0
 10 13  1  0  0  0  0
 10 36  1  0  0  0  0
 10 37  1  0  0  0  0
 12 16  2  0  0  0  0
 13 20  2  0  0  0  0
 13 21  1  0  0  0  0
 14 18  1  0  0  0  0
 14 38  1  0  0  0  0
 15 17  1  0  0  0  0
 15 39  1  0  0  0  0
 15 40  1  0  0  0  0
 16 19  1  0  0  0  0
 16 41  1  0  0  0  0
 17 22  2  0  0  0  0
 17 23  1  0  0  0  0
 18 19  2  0  0  0  0
 18 42  1  0  0  0  0
 19 43  1  0  0  0  0
 20 27  1  0  0  0  0
 20 44  1  0  0  0  0
 21 28  2  0  0  0  0
 21 45  1  0  0  0  0
 22 24  1  0  0  0  0
 22 46  1  0  0  0  0
 23 25  2  0  0  0  0
 23 47  1  0  0  0  0
 24 26  2  0  0  0  0
 24 31  1  0  0  0  0
 25 26  1  0  0  0  0
 25 30  1  0  0  0  0
 26 48  1  0  0  0  0
 27 29  2  0  0  0  0
 27 49  1  0  0  0  0
 28 29  1  0  0  0  0
 28 50  1  0  0  0  0
 32 34  1  0  0  0  0
 32 51  1  0  0  0  0
 32 52  1  0  0  0  0
 33 35  1  0  0  0  0
 33 53  1  0  0  0  0
 33 54  1  0  0  0  0
 34 55  1  0  0  0  0
 34 56  1  0  0  0  0
 34 57  1  0  0  0  0
 35 58  1  0  0  0  0
 35 59  1  0  0  0  0
 35 60  1  0  0  0  0
M  END
> <PUBCHEM_COMPOUND_CID>
44338402

> <PUBCHEM_COMPOUND_CANONICALIZED>
1

> <PUBCHEM_CACTVS_COMPLEXITY>
679

> <PUBCHEM_CACTVS_HBOND_ACCEPTOR>
6

> <PUBCHEM_CACTVS_HBOND_DONOR>
0

> <PUBCHEM_CACTVS_ROTATABLE_BOND>
11

> <PUBCHEM_CACTVS_SUBSKEYS>
AAADceB7OABEAAAAAAAAAAAAAAAAAWAAAAAwYMAAAAAAAFgB9AAAHgYAAAAADArl3iaz2LcMFAioAyTybACC0C1lF7AJ2CE4ftiIbrLhv5mWMQhswAPI6aeY7miOBAACAAAAACAIAAQAAAAAQAAAAAAAAA==

> <PUBCHEM_IUPAC_OPENEYE_NAME>
diethyl 5-[[1-[(4-chlorophenyl)methyl]benzimidazol-2-yl]sulfanylmethyl]benzene-1,3-dicarboxylate

> <PUBCHEM_IUPAC_CAS_NAME>
5-[[[1-[(4-chlorophenyl)methyl]-2-benzimidazolyl]thio]methyl]benzene-1,3-dicarboxylic acid diethyl ester

> <PUBCHEM_IUPAC_NAME_MARKUP>
diethyl 5-[[1-[(4-chlorophenyl)methyl]benzimidazol-2-yl]sulfanylmethyl]benzene-1,3-dicarboxylate

> <PUBCHEM_IUPAC_NAME>
diethyl 5-[[1-[(4-chlorophenyl)methyl]benzimidazol-2-yl]sulfanylmethyl]benzene-1,3-dicarboxylate

> <PUBCHEM_IUPAC_SYSTEMATIC_NAME>
diethyl 5-[[1-[(4-chlorophenyl)methyl]benzimidazol-2-yl]sulfanylmethyl]benzene-1,3-dicarboxylate

> <PUBCHEM_IUPAC_TRADITIONAL_NAME>
5-[[[1-(4-chlorobenzyl)benzimidazol-2-yl]thio]methyl]benzene-1,3-dicarboxylic acid diethyl ester

> <PUBCHEM_IUPAC_INCHI>
InChI=1S/C27H25ClN2O4S/c1-3-33-25(31)20-13-19(14-21(15-20)26(32)34-4-2)17-35-27-29-23-7-5-6-8-24(23)30(27)16-18-9-11-22(28)12-10-18/h5-15H,3-4,16-17H2,1-2H3

> <PUBCHEM_IUPAC_INCHIKEY>
ZVDLSNQVKXRSFK-UHFFFAOYSA-N

> <PUBCHEM_XLOGP3_AA>
6.4

> <PUBCHEM_EXACT_MASS>
508.1223562

> <PUBCHEM_MOLECULAR_FORMULA>
C27H25ClN2O4S

> <PUBCHEM_MOLECULAR_WEIGHT>
509.0

> <PUBCHEM_OPENEYE_CAN_SMILES>
CCOC(=O)C1=CC(=CC(=C1)CSC2=NC3=CC=CC=C3N2CC4=CC=C(C=C4)Cl)C(=O)OCC

> <PUBCHEM_OPENEYE_ISO_SMILES>
CCOC(=O)C1=CC(=CC(=C1)CSC2=NC3=CC=CC=C3N2CC4=CC=C(C=C4)Cl)C(=O)OCC

> <PUBCHEM_CACTVS_TPSA>
95.7

> <PUBCHEM_MONOISOTOPIC_WEIGHT>
508.1223562

> <PUBCHEM_TOTAL_CHARGE>
0

> <PUBCHEM_HEAVY_ATOM_COUNT>
35

> <PUBCHEM_ATOM_DEF_STEREO_COUNT>
0

> <PUBCHEM_ATOM_UDEF_STEREO_COUNT>
0

> <PUBCHEM_BOND_DEF_STEREO_COUNT>
0

> <PUBCHEM_BOND_UDEF_STEREO_COUNT>
0

> <PUBCHEM_ISOTOPIC_ATOM_COUNT>
0

> <PUBCHEM_COMPONENT_COUNT>
1

> <PUBCHEM_CACTVS_TAUTO_COUNT>
-1

> <PUBCHEM_COORDINATE_TYPE>
1
5
255

> <PUBCHEM_BONDANNOTATIONS>
12  16  8
13  20  8
13  21  8
14  18  8
16  19  8
17  22  8
17  23  8
18  19  8
20  27  8
21  28  8
22  24  8
23  25  8
24  26  8
25  26  8
27  29  8
28  29  8
7  11  8
7  9  8
8  11  8
8  12  8
9  12  8
9  14  8

$$$$
