164609592
  -OEChem-09292322022D

 62 65  0     1  0  0  0  0  0999 V2000
    4.6038   -1.7536    0.0000 Cl  0  0  0  0  0  0  0  0  0  0  0  0
    2.8757   -2.7602    0.0000 Cl  0  0  0  0  0  0  0  0  0  0  0  0
   11.6602   -0.2264    0.0000 O   0  0  0  0  0  0  0  0  0  0  0  0
   16.9224   -0.2022    0.0000 O   0  0  0  0  0  0  0  0  0  0  0  0
    7.3282    0.2569    0.0000 N   0  0  3  0  0  0  0  0  0  0  0  0
   15.1903   -0.2022    0.0000 N   0  0  0  0  0  0  0  0  0  0  0  0
    5.5961    0.2503    0.0000 C   0  0  3  0  0  0  0  0  0  0  0  0
    4.5961    0.2464    0.0000 C   0  0  3  0  0  0  0  0  0  0  0  0
    5.0928    1.1144    0.0000 C   0  0  0  0  0  0  0  0  0  0  0  0
    6.4641   -0.2464    0.0000 C   0  0  0  0  0  0  0  0  0  0  0  0
    3.7320   -0.2569    0.0000 C   0  0  0  0  0  0  0  0  0  0  0  0
    8.1961   -0.2397    0.0000 C   0  0  0  0  0  0  0  0  0  0  0  0
    7.3243    1.2569    0.0000 C   0  0  0  0  0  0  0  0  0  0  0  0
    3.7359   -1.2569    0.0000 C   0  0  0  0  0  0  0  0  0  0  0  0
    2.8641    0.2397    0.0000 C   0  0  0  0  0  0  0  0  0  0  0  0
    9.0602    0.2636    0.0000 C   0  0  0  0  0  0  0  0  0  0  0  0
    8.1884    1.7603    0.0000 C   0  0  0  0  0  0  0  0  0  0  0  0
    2.8718   -1.7603    0.0000 C   0  0  0  0  0  0  0  0  0  0  0  0
    2.0000   -0.2636    0.0000 C   0  0  0  0  0  0  0  0  0  0  0  0
    2.0038   -1.2636    0.0000 C   0  0  0  0  0  0  0  0  0  0  0  0
    9.9281   -0.2330    0.0000 C   0  0  0  0  0  0  0  0  0  0  0  0
    8.1845    2.7602    0.0000 C   0  0  0  0  0  0  0  0  0  0  0  0
   10.7922    0.2703    0.0000 C   0  0  0  0  0  0  0  0  0  0  0  0
   12.5243    0.2770    0.0000 C   0  0  0  0  0  0  0  0  0  0  0  0
   13.4303   -0.2369    0.0000 C   0  0  0  0  0  0  0  0  0  0  0  0
   12.5243    1.3186    0.0000 C   0  0  0  0  0  0  0  0  0  0  0  0
   14.3243    0.2978    0.0000 C   0  0  0  0  0  0  0  0  0  0  0  0
   14.3243    1.2978    0.0000 C   0  0  0  0  0  0  0  0  0  0  0  0
   13.4303    1.8324    0.0000 C   0  0  0  0  0  0  0  0  0  0  0  0
   15.1903    1.7978    0.0000 C   0  0  0  0  0  0  0  0  0  0  0  0
   16.0563    0.2978    0.0000 C   0  0  0  0  0  0  0  0  0  0  0  0
   16.0563    1.2978    0.0000 C   0  0  0  0  0  0  0  0  0  0  0  0
    6.0328    0.6903    0.0000 H   0  0  0  0  0  0  0  0  0  0  0  0
    4.7589   -0.3518    0.0000 H   0  0  0  0  0  0  0  0  0  0  0  0
    5.5662    1.5147    0.0000 H   0  0  0  0  0  0  0  0  0  0  0  0
    4.6163    1.5110    0.0000 H   0  0  0  0  0  0  0  0  0  0  0  0
    6.0674   -0.7229    0.0000 H   0  0  0  0  0  0  0  0  0  0  0  0
    6.8644   -0.7198    0.0000 H   0  0  0  0  0  0  0  0  0  0  0  0
    7.7994   -0.7162    0.0000 H   0  0  0  0  0  0  0  0  0  0  0  0
    8.5965   -0.7131    0.0000 H   0  0  0  0  0  0  0  0  0  0  0  0
    7.1100    1.8387    0.0000 H   0  0  0  0  0  0  0  0  0  0  0  0
    6.7141    1.1469    0.0000 H   0  0  0  0  0  0  0  0  0  0  0  0
    2.8617    0.8597    0.0000 H   0  0  0  0  0  0  0  0  0  0  0  0
    9.4569    0.7401    0.0000 H   0  0  0  0  0  0  0  0  0  0  0  0
    8.6598    0.7370    0.0000 H   0  0  0  0  0  0  0  0  0  0  0  0
    8.4027    1.1785    0.0000 H   0  0  0  0  0  0  0  0  0  0  0  0
    8.7986    1.8703    0.0000 H   0  0  0  0  0  0  0  0  0  0  0  0
    1.4619    0.0443    0.0000 H   0  0  0  0  0  0  0  0  0  0  0  0
    1.4681   -1.5757    0.0000 H   0  0  0  0  0  0  0  0  0  0  0  0
    9.5314   -0.7095    0.0000 H   0  0  0  0  0  0  0  0  0  0  0  0
   10.3285   -0.7065    0.0000 H   0  0  0  0  0  0  0  0  0  0  0  0
    8.8045    2.7626    0.0000 H   0  0  0  0  0  0  0  0  0  0  0  0
    8.1822    3.3802    0.0000 H   0  0  0  0  0  0  0  0  0  0  0  0
    7.5646    2.7579    0.0000 H   0  0  0  0  0  0  0  0  0  0  0  0
   11.1889    0.7468    0.0000 H   0  0  0  0  0  0  0  0  0  0  0  0
   10.3919    0.7437    0.0000 H   0  0  0  0  0  0  0  0  0  0  0  0
   13.4375   -0.8568    0.0000 H   0  0  0  0  0  0  0  0  0  0  0  0
   11.9885    1.6307    0.0000 H   0  0  0  0  0  0  0  0  0  0  0  0
   13.4375    2.4524    0.0000 H   0  0  0  0  0  0  0  0  0  0  0  0
   15.1903   -0.8222    0.0000 H   0  0  0  0  0  0  0  0  0  0  0  0
   15.1903    2.4178    0.0000 H   0  0  0  0  0  0  0  0  0  0  0  0
   16.5933    1.6078    0.0000 H   0  0  0  0  0  0  0  0  0  0  0  0
  1 14  1  0  0  0  0
  2 18  1  0  0  0  0
  3 23  1  0  0  0  0
  3 24  1  0  0  0  0
  4 31  2  0  0  0  0
  5 10  1  0  0  0  0
  5 12  1  0  0  0  0
  5 13  1  0  0  0  0
  6 27  1  0  0  0  0
  6 31  1  0  0  0  0
  6 60  1  0  0  0  0
  7  8  1  0  0  0  0
  7  9  1  0  0  0  0
  7 10  1  0  0  0  0
  7 33  1  0  0  0  0
  8  9  1  0  0  0  0
  8 11  1  0  0  0  0
  8 34  1  0  0  0  0
  9 35  1  0  0  0  0
  9 36  1  0  0  0  0
 10 37  1  0  0  0  0
 10 38  1  0  0  0  0
 11 14  2  0  0  0  0
 11 15  1  0  0  0  0
 12 16  1  0  0  0  0
 12 39  1  0  0  0  0
 12 40  1  0  0  0  0
 13 17  1  0  0  0  0
 13 41  1  0  0  0  0
 13 42  1  0  0  0  0
 14 18  1  0  0  0  0
 15 19  2  0  0  0  0
 15 43  1  0  0  0  0
 16 21  1  0  0  0  0
 16 44  1  0  0  0  0
 16 45  1  0  0  0  0
 17 22  1  0  0  0  0
 17 46  1  0  0  0  0
 17 47  1  0  0  0  0
 18 20  2  0  0  0  0
 19 20  1  0  0  0  0
 19 48  1  0  0  0  0
 20 49  1  0  0  0  0
 21 23  1  0  0  0  0
 21 50  1  0  0  0  0
 21 51  1  0  0  0  0
 22 52  1  0  0  0  0
 22 53  1  0  0  0  0
 22 54  1  0  0  0  0
 23 55  1  0  0  0  0
 23 56  1  0  0  0  0
 24 25  2  0  0  0  0
 24 26  1  0  0  0  0
 25 27  1  0  0  0  0
 25 57  1  0  0  0  0
 26 29  2  0  0  0  0
 26 58  1  0  0  0  0
 27 28  2  0  0  0  0
 28 29  1  0  0  0  0
 28 30  1  0  0  0  0
 29 59  1  0  0  0  0
 30 32  2  0  0  0  0
 30 61  1  0  0  0  0
 31 32  1  0  0  0  0
 32 62  1  0  0  0  0
M  END
> <PUBCHEM_COMPOUND_CID>
164609592

> <PUBCHEM_COMPOUND_CANONICALIZED>
1

> <PUBCHEM_CACTVS_COMPLEXITY>
645

> <PUBCHEM_CACTVS_HBOND_ACCEPTOR>
3

> <PUBCHEM_CACTVS_HBOND_DONOR>
1

> <PUBCHEM_CACTVS_ROTATABLE_BOND>
11

> <PUBCHEM_CACTVS_SUBSKEYS>
AAADceB7MAAGAAAAAAAAAAAAGAAAAAAAAAAwYIAAAAAAAACBQAAAHgIQAAAADQ7hmCYyxoPABACIAiVSUACCCAAhJwAIikAObsgMJiLFs5uGOCjm1BnI6Yew0MMOoAAAIgADAARAAABEAAYACAAAAAAAAA==

> <PUBCHEM_IUPAC_OPENEYE_NAME>
7-[4-[[2-(2,3-dichlorophenyl)cyclopropyl]methyl-propyl-amino]butoxy]-1H-quinolin-2-one

> <PUBCHEM_IUPAC_CAS_NAME>
7-[4-[[2-(2,3-dichlorophenyl)cyclopropyl]methyl-propylamino]butoxy]-1H-quinolin-2-one

> <PUBCHEM_IUPAC_NAME_MARKUP>
7-[4-[[2-(2,3-dichlorophenyl)cyclopropyl]methyl-propylamino]butoxy]-1<I>H</I>-quinolin-2-one

> <PUBCHEM_IUPAC_NAME>
7-[4-[[2-(2,3-dichlorophenyl)cyclopropyl]methyl-propylamino]butoxy]-1H-quinolin-2-one

> <PUBCHEM_IUPAC_SYSTEMATIC_NAME>
7-[4-[[2-[2,3-bis(chloranyl)phenyl]cyclopropyl]methyl-propyl-amino]butoxy]-1H-quinolin-2-one

> <PUBCHEM_IUPAC_TRADITIONAL_NAME>
7-[4-[[2-(2,3-dichlorophenyl)cyclopropyl]methyl-propyl-amino]butoxy]carbostyril

> <PUBCHEM_IUPAC_INCHI>
InChI=1S/C26H30Cl2N2O2/c1-2-12-30(17-19-15-22(19)21-6-5-7-23(27)26(21)28)13-3-4-14-32-20-10-8-18-9-11-25(31)29-24(18)16-20/h5-11,16,19,22H,2-4,12-15,17H2,1H3,(H,29,31)

> <PUBCHEM_IUPAC_INCHIKEY>
OSXVNRDDXPNSDP-UHFFFAOYSA-N

> <PUBCHEM_XLOGP3_AA>
6.3

> <PUBCHEM_EXACT_MASS>
472.1684336

> <PUBCHEM_MOLECULAR_FORMULA>
C26H30Cl2N2O2

> <PUBCHEM_MOLECULAR_WEIGHT>
473.4

> <PUBCHEM_OPENEYE_CAN_SMILES>
CCCN(CCCCOC1=CC2=C(C=C1)C=CC(=O)N2)CC3CC3C4=C(C(=CC=C4)Cl)Cl

> <PUBCHEM_OPENEYE_ISO_SMILES>
CCCN(CCCCOC1=CC2=C(C=C1)C=CC(=O)N2)CC3CC3C4=C(C(=CC=C4)Cl)Cl

> <PUBCHEM_CACTVS_TPSA>
41.6

> <PUBCHEM_MONOISOTOPIC_WEIGHT>
472.1684336

> <PUBCHEM_TOTAL_CHARGE>
0

> <PUBCHEM_HEAVY_ATOM_COUNT>
32

> <PUBCHEM_ATOM_DEF_STEREO_COUNT>
0

> <PUBCHEM_ATOM_UDEF_STEREO_COUNT>
2

> <PUBCHEM_BOND_DEF_STEREO_COUNT>
0

> <PUBCHEM_BOND_UDEF_STEREO_COUNT>
0

> <PUBCHEM_ISOTOPIC_ATOM_COUNT>
0

> <PUBCHEM_COMPONENT_COUNT>
1

> <PUBCHEM_CACTVS_TAUTO_COUNT>
-1

> <PUBCHEM_COORDINATE_TYPE>
1
5
255

> <PUBCHEM_BONDANNOTATIONS>
11  14  8
11  15  8
14  18  8
15  19  8
18  20  8
19  20  8
24  25  8
24  26  8
25  27  8
26  29  8
27  28  8
28  29  8
28  30  8
30  32  8
31  32  8
6  27  8
6  31  8
7  10  3
8  11  3

$$$$
