71541279
  -OEChem-09292322052D

 36 39  0     1  0  0  0  0  0999 V2000
    4.1087   -2.3766    0.0000 S   0  0  0  0  0  0  0  0  0  0  0  0
    8.8651    3.5736    0.0000 O   0  0  0  0  0  0  0  0  0  0  0  0
    5.8262    2.2076    0.0000 N   0  0  3  0  0  0  0  0  0  0  0  0
    2.7149   -1.5719    0.0000 N   0  0  0  0  0  0  0  0  0  0  0  0
    7.9140    2.2646    0.0000 N   0  0  0  0  0  0  0  0  0  0  0  0
    7.9140    3.8827    0.0000 N   0  0  0  0  0  0  0  0  0  0  0  0
    2.6200   -3.3457    0.0000 N   0  0  0  0  0  0  0  0  0  0  0  0
    6.3798    1.3980    0.0000 C   0  0  0  0  0  0  0  0  0  0  0  0
    4.8483    2.2822    0.0000 C   0  0  0  0  0  0  0  0  0  0  0  0
    6.0945    0.4596    0.0000 C   0  0  0  0  0  0  0  0  0  0  0  0
    4.1783    1.5660    0.0000 C   0  0  0  0  0  0  0  0  0  0  0  0
    5.1840    0.0952    0.0000 C   0  0  0  0  0  0  0  0  0  0  0  0
    4.3179    0.5952    0.0000 C   0  0  0  0  0  0  0  0  0  0  0  0
    6.3262    3.0737    0.0000 C   0  0  0  0  0  0  0  0  0  0  0  0
    5.1840   -0.9048    0.0000 C   0  0  0  0  0  0  0  0  0  0  0  0
    3.4519    0.0952    0.0000 C   0  0  0  0  0  0  0  0  0  0  0  0
    4.3179   -1.4048    0.0000 C   0  0  0  0  0  0  0  0  0  0  0  0
    3.4519   -0.9048    0.0000 C   0  0  0  0  0  0  0  0  0  0  0  0
    7.3262    3.0737    0.0000 C   0  0  0  0  0  0  0  0  0  0  0  0
    3.1200   -2.4797    0.0000 C   0  0  0  0  0  0  0  0  0  0  0  0
    8.8651    2.5737    0.0000 C   0  0  0  0  0  0  0  0  0  0  0  0
    6.9177    1.0897    0.0000 H   0  0  0  0  0  0  0  0  0  0  0  0
    6.8005    1.8534    0.0000 H   0  0  0  0  0  0  0  0  0  0  0  0
    5.0324    2.8743    0.0000 H   0  0  0  0  0  0  0  0  0  0  0  0
    4.3123    2.5939    0.0000 H   0  0  0  0  0  0  0  0  0  0  0  0
    6.1905   -0.1529    0.0000 H   0  0  0  0  0  0  0  0  0  0  0  0
    6.7130    0.4163    0.0000 H   0  0  0  0  0  0  0  0  0  0  0  0
    3.8316    2.0800    0.0000 H   0  0  0  0  0  0  0  0  0  0  0  0
    3.5998    1.3428    0.0000 H   0  0  0  0  0  0  0  0  0  0  0  0
    6.4339    3.6842    0.0000 H   0  0  0  0  0  0  0  0  0  0  0  0
    5.7436    3.2857    0.0000 H   0  0  0  0  0  0  0  0  0  0  0  0
    5.7209   -1.2148    0.0000 H   0  0  0  0  0  0  0  0  0  0  0  0
    2.9150    0.4052    0.0000 H   0  0  0  0  0  0  0  0  0  0  0  0
    9.3667    2.2092    0.0000 H   0  0  0  0  0  0  0  0  0  0  0  0
    2.0000   -3.3457    0.0000 H   0  0  0  0  0  0  0  0  0  0  0  0
    2.9300   -3.8827    0.0000 H   0  0  0  0  0  0  0  0  0  0  0  0
  1 17  1  0  0  0  0
  1 20  1  0  0  0  0
  2  6  1  0  0  0  0
  2 21  1  0  0  0  0
  3  8  1  0  0  0  0
  3  9  1  0  0  0  0
  3 14  1  0  0  0  0
  4 18  1  0  0  0  0
  4 20  2  0  0  0  0
  5 19  1  0  0  0  0
  5 21  2  0  0  0  0
  6 19  2  0  0  0  0
  7 20  1  0  0  0  0
  7 35  1  0  0  0  0
  7 36  1  0  0  0  0
  8 10  1  0  0  0  0
  8 22  1  0  0  0  0
  8 23  1  0  0  0  0
  9 11  1  0  0  0  0
  9 24  1  0  0  0  0
  9 25  1  0  0  0  0
 10 12  1  0  0  0  0
 10 26  1  0  0  0  0
 10 27  1  0  0  0  0
 11 13  1  0  0  0  0
 11 28  1  0  0  0  0
 11 29  1  0  0  0  0
 12 13  1  0  0  0  0
 12 15  2  0  0  0  0
 13 16  2  0  0  0  0
 14 19  1  0  0  0  0
 14 30  1  0  0  0  0
 14 31  1  0  0  0  0
 15 17  1  0  0  0  0
 15 32  1  0  0  0  0
 16 18  1  0  0  0  0
 16 33  1  0  0  0  0
 17 18  2  0  0  0  0
 21 34  1  0  0  0  0
M  END
> <PUBCHEM_COMPOUND_CID>
71541279

> <PUBCHEM_COMPOUND_CANONICALIZED>
1

> <PUBCHEM_CACTVS_COMPLEXITY>
373

> <PUBCHEM_CACTVS_HBOND_ACCEPTOR>
7

> <PUBCHEM_CACTVS_HBOND_DONOR>
1

> <PUBCHEM_CACTVS_ROTATABLE_BOND>
2

> <PUBCHEM_CACTVS_SUBSKEYS>
AAADccBzoABAAAAAAAAAAAAAAAAAAWLAAAAwAAAABYAAAFgB/AAAHgQUAAAADAjBXwY10bdYEAitAyZj9gCD8KlxCrlh2Dw4ZJiIaKLgkZGUIAhghQLIyCcQgIAOmAAAwAAQAQAwAAGAACACAAAAAAAAAA==

> <PUBCHEM_IUPAC_OPENEYE_NAME>
7-(1,2,4-oxadiazol-3-ylmethyl)-5,6,8,9-tetrahydrothiazolo[4,5-h][3]benzazepin-2-amine

> <PUBCHEM_IUPAC_CAS_NAME>
7-(1,2,4-oxadiazol-3-ylmethyl)-5,6,8,9-tetrahydrothiazolo[4,5-h][3]benzazepin-2-amine

> <PUBCHEM_IUPAC_NAME_MARKUP>
7-(1,2,4-oxadiazol-3-ylmethyl)-5,6,8,9-tetrahydro-[1,3]thiazolo[4,5-h][3]benzazepin-2-amine

> <PUBCHEM_IUPAC_NAME>
7-(1,2,4-oxadiazol-3-ylmethyl)-5,6,8,9-tetrahydro-[1,3]thiazolo[4,5-h][3]benzazepin-2-amine

> <PUBCHEM_IUPAC_SYSTEMATIC_NAME>
7-(1,2,4-oxadiazol-3-ylmethyl)-5,6,8,9-tetrahydro-[1,3]thiazolo[4,5-h][3]benzazepin-2-amine

> <PUBCHEM_IUPAC_TRADITIONAL_NAME>
[7-(1,2,4-oxadiazol-3-ylmethyl)-5,6,8,9-tetrahydrothiazolo[4,5-h][3]benzazepin-2-yl]amine

> <PUBCHEM_IUPAC_INCHI>
InChI=1S/C14H15N5OS/c15-14-17-11-5-9-1-3-19(7-13-16-8-20-18-13)4-2-10(9)6-12(11)21-14/h5-6,8H,1-4,7H2,(H2,15,17)

> <PUBCHEM_IUPAC_INCHIKEY>
FYQHJBWTSJMLHO-UHFFFAOYSA-N

> <PUBCHEM_XLOGP3_AA>
2.1

> <PUBCHEM_EXACT_MASS>
301.09973129

> <PUBCHEM_MOLECULAR_FORMULA>
C14H15N5OS

> <PUBCHEM_MOLECULAR_WEIGHT>
301.37

> <PUBCHEM_OPENEYE_CAN_SMILES>
C1CN(CCC2=CC3=C(C=C21)N=C(S3)N)CC4=NOC=N4

> <PUBCHEM_OPENEYE_ISO_SMILES>
C1CN(CCC2=CC3=C(C=C21)N=C(S3)N)CC4=NOC=N4

> <PUBCHEM_CACTVS_TPSA>
109

> <PUBCHEM_MONOISOTOPIC_WEIGHT>
301.09973129

> <PUBCHEM_TOTAL_CHARGE>
0

> <PUBCHEM_HEAVY_ATOM_COUNT>
21

> <PUBCHEM_ATOM_DEF_STEREO_COUNT>
0

> <PUBCHEM_ATOM_UDEF_STEREO_COUNT>
0

> <PUBCHEM_BOND_DEF_STEREO_COUNT>
0

> <PUBCHEM_BOND_UDEF_STEREO_COUNT>
0

> <PUBCHEM_ISOTOPIC_ATOM_COUNT>
0

> <PUBCHEM_COMPONENT_COUNT>
1

> <PUBCHEM_CACTVS_TAUTO_COUNT>
-1

> <PUBCHEM_COORDINATE_TYPE>
1
5
255

> <PUBCHEM_BONDANNOTATIONS>
1  17  8
1  20  8
12  13  8
12  15  8
13  16  8
15  17  8
16  18  8
17  18  8
2  21  8
2  6  8
4  18  8
4  20  8
5  19  8
5  21  8
6  19  8

$$$$
