57383424
  -OEChem-09292321582D

 43 46  0     1  0  0  0  0  0999 V2000
    9.4364   -1.0458    0.0000 S   0  0  3  0  0  0  0  0  0  0  0  0
    9.4364   -2.0458    0.0000 O   0  0  0  0  0  0  0  0  0  0  0  0
   10.3703    2.0458    0.0000 O   0  0  0  0  0  0  0  0  0  0  0  0
    5.3802    1.2570    0.0000 O   0  0  0  0  0  0  0  0  0  0  0  0
    8.9364    1.1448    0.0000 N   0  0  0  0  0  0  0  0  0  0  0  0
    4.8633   -0.3961    0.0000 N   0  0  0  0  0  0  0  0  0  0  0  0
    8.3129    0.3630    0.0000 C   0  0  0  0  0  0  0  0  0  0  0  0
    8.5354   -0.6119    0.0000 C   0  0  0  0  0  0  0  0  0  0  0  0
   10.3373   -0.6119    0.0000 C   0  0  0  0  0  0  0  0  0  0  0  0
   10.5599    0.3630    0.0000 C   0  0  0  0  0  0  0  0  0  0  0  0
    9.9364    1.1448    0.0000 C   0  0  0  0  0  0  0  0  0  0  0  0
    7.3224    0.6854    0.0000 C   0  0  0  0  0  0  0  0  0  0  0  0
    6.5534   -0.0172    0.0000 C   0  0  0  0  0  0  0  0  0  0  0  0
    7.7828   -1.3321    0.0000 C   0  0  0  0  0  0  0  0  0  0  0  0
    6.7852   -1.0327    0.0000 C   0  0  0  0  0  0  0  0  0  0  0  0
    8.5025    2.0458    0.0000 C   0  0  0  0  0  0  0  0  0  0  0  0
   11.0899   -1.3321    0.0000 C   0  0  0  0  0  0  0  0  0  0  0  0
   11.5504    0.6853    0.0000 C   0  0  0  0  0  0  0  0  0  0  0  0
    5.5990    0.2812    0.0000 C   0  0  0  0  0  0  0  0  0  0  0  0
   12.0876   -1.0328    0.0000 C   0  0  0  0  0  0  0  0  0  0  0  0
   12.3194   -0.0173    0.0000 C   0  0  0  0  0  0  0  0  0  0  0  0
    3.9088   -0.0977    0.0000 C   0  0  0  0  0  0  0  0  0  0  0  0
    3.1732   -0.7750    0.0000 C   0  0  0  0  0  0  0  0  0  0  0  0
    3.6901    0.8781    0.0000 C   0  0  0  0  0  0  0  0  0  0  0  0
    2.2188   -0.4766    0.0000 C   0  0  0  0  0  0  0  0  0  0  0  0
    2.7357    1.1766    0.0000 C   0  0  0  0  0  0  0  0  0  0  0  0
    2.0000    0.4992    0.0000 C   0  0  0  0  0  0  0  0  0  0  0  0
    7.1914    1.2914    0.0000 H   0  0  0  0  0  0  0  0  0  0  0  0
    7.9278   -1.9349    0.0000 H   0  0  0  0  0  0  0  0  0  0  0  0
    6.3323   -1.4562    0.0000 H   0  0  0  0  0  0  0  0  0  0  0  0
    9.0611    2.3148    0.0000 H   0  0  0  0  0  0  0  0  0  0  0  0
    8.2335    2.6044    0.0000 H   0  0  0  0  0  0  0  0  0  0  0  0
    7.9439    1.7768    0.0000 H   0  0  0  0  0  0  0  0  0  0  0  0
   10.9450   -1.9349    0.0000 H   0  0  0  0  0  0  0  0  0  0  0  0
   11.6813    1.2913    0.0000 H   0  0  0  0  0  0  0  0  0  0  0  0
   12.5405   -1.4562    0.0000 H   0  0  0  0  0  0  0  0  0  0  0  0
   12.9111    0.1678    0.0000 H   0  0  0  0  0  0  0  0  0  0  0  0
    4.9989   -1.0011    0.0000 H   0  0  0  0  0  0  0  0  0  0  0  0
    3.3088   -1.3800    0.0000 H   0  0  0  0  0  0  0  0  0  0  0  0
    4.1462    1.2981    0.0000 H   0  0  0  0  0  0  0  0  0  0  0  0
    1.7626   -0.8965    0.0000 H   0  0  0  0  0  0  0  0  0  0  0  0
    2.6000    1.7815    0.0000 H   0  0  0  0  0  0  0  0  0  0  0  0
    1.4083    0.6842    0.0000 H   0  0  0  0  0  0  0  0  0  0  0  0
  1  2  2  0  0  0  0
  1  8  1  0  0  0  0
  1  9  1  0  0  0  0
  3 11  2  0  0  0  0
  4 19  2  0  0  0  0
  5  7  1  0  0  0  0
  5 11  1  0  0  0  0
  5 16  1  0  0  0  0
  6 19  1  0  0  0  0
  6 22  1  0  0  0  0
  6 38  1  0  0  0  0
  7  8  2  0  0  0  0
  7 12  1  0  0  0  0
  8 14  1  0  0  0  0
  9 10  1  0  0  0  0
  9 17  2  0  0  0  0
 10 11  1  0  0  0  0
 10 18  2  0  0  0  0
 12 13  2  0  0  0  0
 12 28  1  0  0  0  0
 13 15  1  0  0  0  0
 13 19  1  0  0  0  0
 14 15  2  0  0  0  0
 14 29  1  0  0  0  0
 15 30  1  0  0  0  0
 16 31  1  0  0  0  0
 16 32  1  0  0  0  0
 16 33  1  0  0  0  0
 17 20  1  0  0  0  0
 17 34  1  0  0  0  0
 18 21  1  0  0  0  0
 18 35  1  0  0  0  0
 20 21  2  0  0  0  0
 20 36  1  0  0  0  0
 21 37  1  0  0  0  0
 22 23  2  0  0  0  0
 22 24  1  0  0  0  0
 23 25  1  0  0  0  0
 23 39  1  0  0  0  0
 24 26  2  0  0  0  0
 24 40  1  0  0  0  0
 25 27  2  0  0  0  0
 25 41  1  0  0  0  0
 26 27  1  0  0  0  0
 26 42  1  0  0  0  0
 27 43  1  0  0  0  0
M  END
> <PUBCHEM_COMPOUND_CID>
57383424

> <PUBCHEM_COMPOUND_CANONICALIZED>
1

> <PUBCHEM_CACTVS_COMPLEXITY>
604

> <PUBCHEM_CACTVS_HBOND_ACCEPTOR>
4

> <PUBCHEM_CACTVS_HBOND_DONOR>
1

> <PUBCHEM_CACTVS_ROTATABLE_BOND>
2

> <PUBCHEM_CACTVS_SUBSKEYS>
AAADceB7MABAAAAAAAAAAAAAAAAAAAAAAAAwYMAABYAAAAABUAAAHgQQAAAADAiB2AQywYPAAAqIAiVSUEDCAAAlChAIiB0IZMgIIDLglZGEIQhglgDoyYcciACOEAAAQAAEAQAgAACAAAgCAAAAAAAAAA==

> <PUBCHEM_IUPAC_OPENEYE_NAME>
5-methyl-6,11-dioxo-N-phenyl-benzo[b][1,4]benzothiazepine-3-carboxamide

> <PUBCHEM_IUPAC_CAS_NAME>
5-methyl-6,11-dioxo-N-phenyl-3-benzo[b][1,4]benzothiazepinecarboxamide

> <PUBCHEM_IUPAC_NAME_MARKUP>
5-methyl-6,11-dioxo-<I>N</I>-phenylbenzo[b][1,4]benzothiazepine-3-carboxamide

> <PUBCHEM_IUPAC_NAME>
5-methyl-6,11-dioxo-N-phenylbenzo[b][1,4]benzothiazepine-3-carboxamide

> <PUBCHEM_IUPAC_SYSTEMATIC_NAME>
5-methyl-6,11-bis(oxidanylidene)-N-phenyl-benzo[b][1,4]benzothiazepine-3-carboxamide

> <PUBCHEM_IUPAC_TRADITIONAL_NAME>
6,11-diketo-5-methyl-N-phenyl-benzo[b][1,4]benzothiazepine-3-carboxamide

> <PUBCHEM_IUPAC_INCHI>
InChI=1S/C21H16N2O3S/c1-23-17-13-14(20(24)22-15-7-3-2-4-8-15)11-12-19(17)27(26)18-10-6-5-9-16(18)21(23)25/h2-13H,1H3,(H,22,24)

> <PUBCHEM_IUPAC_INCHIKEY>
WJXOCGKBTPFBGM-UHFFFAOYSA-N

> <PUBCHEM_XLOGP3_AA>
2.6

> <PUBCHEM_EXACT_MASS>
376.08816355

> <PUBCHEM_MOLECULAR_FORMULA>
C21H16N2O3S

> <PUBCHEM_MOLECULAR_WEIGHT>
376.4

> <PUBCHEM_OPENEYE_CAN_SMILES>
CN1C2=C(C=CC(=C2)C(=O)NC3=CC=CC=C3)S(=O)C4=CC=CC=C4C1=O

> <PUBCHEM_OPENEYE_ISO_SMILES>
CN1C2=C(C=CC(=C2)C(=O)NC3=CC=CC=C3)S(=O)C4=CC=CC=C4C1=O

> <PUBCHEM_CACTVS_TPSA>
85.7

> <PUBCHEM_MONOISOTOPIC_WEIGHT>
376.08816355

> <PUBCHEM_TOTAL_CHARGE>
0

> <PUBCHEM_HEAVY_ATOM_COUNT>
27

> <PUBCHEM_ATOM_DEF_STEREO_COUNT>
0

> <PUBCHEM_ATOM_UDEF_STEREO_COUNT>
1

> <PUBCHEM_BOND_DEF_STEREO_COUNT>
0

> <PUBCHEM_BOND_UDEF_STEREO_COUNT>
0

> <PUBCHEM_ISOTOPIC_ATOM_COUNT>
0

> <PUBCHEM_COMPONENT_COUNT>
1

> <PUBCHEM_CACTVS_TAUTO_COUNT>
-1

> <PUBCHEM_COORDINATE_TYPE>
1
5
255

> <PUBCHEM_BONDANNOTATIONS>
1  9  3
10  18  8
12  13  8
13  15  8
14  15  8
17  20  8
18  21  8
20  21  8
22  23  8
22  24  8
23  25  8
24  26  8
25  27  8
26  27  8
7  12  8
7  8  8
8  14  8
9  10  8
9  17  8

$$$$
