44454218
  -OEChem-09292322492D

 66 71  0     1  0  0  0  0  0999 V2000
    6.4431    0.8739    0.0000 S   0  0  0  0  0  0  0  0  0  0  0  0
    4.2256   -6.3085    0.0000 O   0  0  0  0  0  0  0  0  0  0  0  0
    5.9431   -1.7242    0.0000 N   0  0  3  0  0  0  0  0  0  0  0  0
    2.8317   -5.5037    0.0000 N   0  0  0  0  0  0  0  0  0  0  0  0
    4.9486    1.8444    0.0000 N   0  0  0  0  0  0  0  0  0  0  0  0
    6.3498    2.6535    0.0000 N   0  0  0  0  0  0  0  0  0  0  0  0
    5.6067    3.3226    0.0000 N   0  0  0  0  0  0  0  0  0  0  0  0
    2.6842    5.6647    0.0000 N   0  0  0  0  0  0  0  0  0  0  0  0
    6.4967   -2.5338    0.0000 C   0  0  0  0  0  0  0  0  0  0  0  0
    6.2114   -3.4722    0.0000 C   0  0  0  0  0  0  0  0  0  0  0  0
    5.3008   -3.8366    0.0000 C   0  0  0  0  0  0  0  0  0  0  0  0
    4.9651   -1.6496    0.0000 C   0  0  0  0  0  0  0  0  0  0  0  0
    4.2951   -2.3658    0.0000 C   0  0  0  0  0  0  0  0  0  0  0  0
    4.4348   -3.3366    0.0000 C   0  0  0  0  0  0  0  0  0  0  0  0
    6.4431   -0.8582    0.0000 C   0  0  0  0  0  0  0  0  0  0  0  0
    5.3008   -4.8366    0.0000 C   0  0  0  0  0  0  0  0  0  0  0  0
    3.5687   -3.8366    0.0000 C   0  0  0  0  0  0  0  0  0  0  0  0
    4.4348   -5.3366    0.0000 C   0  0  0  0  0  0  0  0  0  0  0  0
    3.5687   -4.8366    0.0000 C   0  0  0  0  0  0  0  0  0  0  0  0
    5.9431    0.0079    0.0000 C   0  0  0  0  0  0  0  0  0  0  0  0
    6.1668   -5.3366    0.0000 C   0  0  0  0  0  0  0  0  0  0  0  0
    3.2368   -6.4115    0.0000 C   0  0  0  0  0  0  0  0  0  0  0  0
    5.9431    1.7399    0.0000 C   0  0  0  0  0  0  0  0  0  0  0  0
    2.7368   -7.2776    0.0000 C   0  0  0  0  0  0  0  0  0  0  0  0
    4.7406    2.8226    0.0000 C   0  0  0  0  0  0  0  0  0  0  0  0
    3.8271    3.2293    0.0000 C   0  0  0  0  0  0  0  0  0  0  0  0
    3.7226    4.2238    0.0000 C   0  0  0  0  0  0  0  0  0  0  0  0
    4.2794    1.1013    0.0000 C   0  0  0  0  0  0  0  0  0  0  0  0
    2.8090    4.6306    0.0000 C   0  0  0  0  0  0  0  0  0  0  0  0
    3.0181    2.6415    0.0000 C   0  0  0  0  0  0  0  0  0  0  0  0
    4.5746    4.8230    0.0000 C   0  0  0  0  0  0  0  0  0  0  0  0
    2.0000    4.0428    0.0000 C   0  0  0  0  0  0  0  0  0  0  0  0
    2.1045    3.0483    0.0000 C   0  0  0  0  0  0  0  0  0  0  0  0
    4.4737    5.8598    0.0000 C   0  0  0  0  0  0  0  0  0  0  0  0
    3.5221    6.2834    0.0000 C   0  0  0  0  0  0  0  0  0  0  0  0
    3.4138    7.2776    0.0000 C   0  0  0  0  0  0  0  0  0  0  0  0
    7.0346   -2.8421    0.0000 H   0  0  0  0  0  0  0  0  0  0  0  0
    6.9174   -2.0784    0.0000 H   0  0  0  0  0  0  0  0  0  0  0  0
    6.3073   -4.0847    0.0000 H   0  0  0  0  0  0  0  0  0  0  0  0
    6.8298   -3.5155    0.0000 H   0  0  0  0  0  0  0  0  0  0  0  0
    5.1492   -1.0575    0.0000 H   0  0  0  0  0  0  0  0  0  0  0  0
    4.4292   -1.3379    0.0000 H   0  0  0  0  0  0  0  0  0  0  0  0
    3.9484   -1.8519    0.0000 H   0  0  0  0  0  0  0  0  0  0  0  0
    3.7167   -2.5890    0.0000 H   0  0  0  0  0  0  0  0  0  0  0  0
    6.9180   -1.2567    0.0000 H   0  0  0  0  0  0  0  0  0  0  0  0
    6.9180   -0.4596    0.0000 H   0  0  0  0  0  0  0  0  0  0  0  0
    3.0318   -3.5266    0.0000 H   0  0  0  0  0  0  0  0  0  0  0  0
    5.4681    0.4064    0.0000 H   0  0  0  0  0  0  0  0  0  0  0  0
    5.4681   -0.3907    0.0000 H   0  0  0  0  0  0  0  0  0  0  0  0
    5.8568   -5.8736    0.0000 H   0  0  0  0  0  0  0  0  0  0  0  0
    6.7038   -5.6466    0.0000 H   0  0  0  0  0  0  0  0  0  0  0  0
    6.4768   -4.7997    0.0000 H   0  0  0  0  0  0  0  0  0  0  0  0
    2.1999   -6.9676    0.0000 H   0  0  0  0  0  0  0  0  0  0  0  0
    2.4268   -7.8145    0.0000 H   0  0  0  0  0  0  0  0  0  0  0  0
    3.2738   -7.5876    0.0000 H   0  0  0  0  0  0  0  0  0  0  0  0
    3.8187    1.5162    0.0000 H   0  0  0  0  0  0  0  0  0  0  0  0
    3.8646    0.6405    0.0000 H   0  0  0  0  0  0  0  0  0  0  0  0
    4.7402    0.6864    0.0000 H   0  0  0  0  0  0  0  0  0  0  0  0
    3.0829    2.0249    0.0000 H   0  0  0  0  0  0  0  0  0  0  0  0
    5.1380    4.5643    0.0000 H   0  0  0  0  0  0  0  0  0  0  0  0
    1.4336    4.2950    0.0000 H   0  0  0  0  0  0  0  0  0  0  0  0
    1.6029    2.6838    0.0000 H   0  0  0  0  0  0  0  0  0  0  0  0
    4.9767    6.2223    0.0000 H   0  0  0  0  0  0  0  0  0  0  0  0
    4.0301    7.3447    0.0000 H   0  0  0  0  0  0  0  0  0  0  0  0
    3.3466    7.8939    0.0000 H   0  0  0  0  0  0  0  0  0  0  0  0
    2.7974    7.2104    0.0000 H   0  0  0  0  0  0  0  0  0  0  0  0
  1 20  1  0  0  0  0
  1 23  1  0  0  0  0
  2 18  1  0  0  0  0
  2 22  1  0  0  0  0
  3  9  1  0  0  0  0
  3 12  1  0  0  0  0
  3 15  1  0  0  0  0
  4 19  1  0  0  0  0
  4 22  2  0  0  0  0
  5 23  1  0  0  0  0
  5 25  1  0  0  0  0
  5 28  1  0  0  0  0
  6  7  1  0  0  0  0
  6 23  2  0  0  0  0
  7 25  2  0  0  0  0
  8 29  1  0  0  0  0
  8 35  2  0  0  0  0
  9 10  1  0  0  0  0
  9 37  1  0  0  0  0
  9 38  1  0  0  0  0
 10 11  1  0  0  0  0
 10 39  1  0  0  0  0
 10 40  1  0  0  0  0
 11 14  1  0  0  0  0
 11 16  2  0  0  0  0
 12 13  1  0  0  0  0
 12 41  1  0  0  0  0
 12 42  1  0  0  0  0
 13 14  1  0  0  0  0
 13 43  1  0  0  0  0
 13 44  1  0  0  0  0
 14 17  2  0  0  0  0
 15 20  1  0  0  0  0
 15 45  1  0  0  0  0
 15 46  1  0  0  0  0
 16 18  1  0  0  0  0
 16 21  1  0  0  0  0
 17 19  1  0  0  0  0
 17 47  1  0  0  0  0
 18 19  2  0  0  0  0
 20 48  1  0  0  0  0
 20 49  1  0  0  0  0
 21 50  1  0  0  0  0
 21 51  1  0  0  0  0
 21 52  1  0  0  0  0
 22 24  1  0  0  0  0
 24 53  1  0  0  0  0
 24 54  1  0  0  0  0
 24 55  1  0  0  0  0
 25 26  1  0  0  0  0
 26 27  2  0  0  0  0
 26 30  1  0  0  0  0
 27 29  1  0  0  0  0
 27 31  1  0  0  0  0
 28 56  1  0  0  0  0
 28 57  1  0  0  0  0
 28 58  1  0  0  0  0
 29 32  2  0  0  0  0
 30 33  2  0  0  0  0
 30 59  1  0  0  0  0
 31 34  2  0  0  0  0
 31 60  1  0  0  0  0
 32 33  1  0  0  0  0
 32 61  1  0  0  0  0
 33 62  1  0  0  0  0
 34 35  1  0  0  0  0
 34 63  1  0  0  0  0
 35 36  1  0  0  0  0
 36 64  1  0  0  0  0
 36 65  1  0  0  0  0
 36 66  1  0  0  0  0
M  END
> <PUBCHEM_COMPOUND_CID>
44454218

> <PUBCHEM_COMPOUND_CANONICALIZED>
1

> <PUBCHEM_CACTVS_COMPLEXITY>
745

> <PUBCHEM_CACTVS_HBOND_ACCEPTOR>
7

> <PUBCHEM_CACTVS_HBOND_DONOR>
0

> <PUBCHEM_CACTVS_ROTATABLE_BOND>
5

> <PUBCHEM_CACTVS_SUBSKEYS>
AAADceB7oABAAAAAAAAAAAAAAAAAAWLAAAA8YIAABYAAAFix/gAAHgQIAAAADAzF3wSz1vcMFEiqA6dydASS2CtvYrAd2CG9bNiOLvLEvbuPOSjkzBPY6YeY2fKOqAADQAAaEABQAAaAADQgAAAAAAAAAA==

> <PUBCHEM_IUPAC_OPENEYE_NAME>
2,10-dimethyl-7-[2-[[4-methyl-5-(2-methyl-5-quinolyl)-1,2,4-triazol-3-yl]sulfanyl]ethyl]-5,6,8,9-tetrahydrooxazolo[4,5-h][3]benzazepine

> <PUBCHEM_IUPAC_CAS_NAME>
2,10-dimethyl-7-[2-[[4-methyl-5-(2-methyl-5-quinolinyl)-1,2,4-triazol-3-yl]thio]ethyl]-5,6,8,9-tetrahydrooxazolo[4,5-h][3]benzazepine

> <PUBCHEM_IUPAC_NAME_MARKUP>
2,10-dimethyl-7-[2-[[4-methyl-5-(2-methylquinolin-5-yl)-1,2,4-triazol-3-yl]sulfanyl]ethyl]-5,6,8,9-tetrahydro-[1,3]oxazolo[4,5-h][3]benzazepine

> <PUBCHEM_IUPAC_NAME>
2,10-dimethyl-7-[2-[[4-methyl-5-(2-methylquinolin-5-yl)-1,2,4-triazol-3-yl]sulfanyl]ethyl]-5,6,8,9-tetrahydro-[1,3]oxazolo[4,5-h][3]benzazepine

> <PUBCHEM_IUPAC_SYSTEMATIC_NAME>
2,10-dimethyl-7-[2-[[4-methyl-5-(2-methylquinolin-5-yl)-1,2,4-triazol-3-yl]sulfanyl]ethyl]-5,6,8,9-tetrahydro-[1,3]oxazolo[4,5-h][3]benzazepine

> <PUBCHEM_IUPAC_TRADITIONAL_NAME>
2,10-dimethyl-7-[2-[[4-methyl-5-(2-methyl-5-quinolyl)-1,2,4-triazol-3-yl]thio]ethyl]-5,6,8,9-tetrahydrooxazolo[4,5-h][3]benzazepine

> <PUBCHEM_IUPAC_INCHI>
InChI=1S/C28H30N6OS/c1-17-8-9-22-23(6-5-7-24(22)29-17)27-31-32-28(33(27)4)36-15-14-34-12-10-20-16-25-26(35-19(3)30-25)18(2)21(20)11-13-34/h5-9,16H,10-15H2,1-4H3

> <PUBCHEM_IUPAC_INCHIKEY>
BVMLPMCCWDUGDH-UHFFFAOYSA-N

> <PUBCHEM_XLOGP3_AA>
5.2

> <PUBCHEM_EXACT_MASS>
498.22018078

> <PUBCHEM_MOLECULAR_FORMULA>
C28H30N6OS

> <PUBCHEM_MOLECULAR_WEIGHT>
498.6

> <PUBCHEM_OPENEYE_CAN_SMILES>
CC1=NC2=CC=CC(=C2C=C1)C3=NN=C(N3C)SCCN4CCC5=CC6=C(C(=C5CC4)C)OC(=N6)C

> <PUBCHEM_OPENEYE_ISO_SMILES>
CC1=NC2=CC=CC(=C2C=C1)C3=NN=C(N3C)SCCN4CCC5=CC6=C(C(=C5CC4)C)OC(=N6)C

> <PUBCHEM_CACTVS_TPSA>
98.2

> <PUBCHEM_MONOISOTOPIC_WEIGHT>
498.22018078

> <PUBCHEM_TOTAL_CHARGE>
0

> <PUBCHEM_HEAVY_ATOM_COUNT>
36

> <PUBCHEM_ATOM_DEF_STEREO_COUNT>
0

> <PUBCHEM_ATOM_UDEF_STEREO_COUNT>
0

> <PUBCHEM_BOND_DEF_STEREO_COUNT>
0

> <PUBCHEM_BOND_UDEF_STEREO_COUNT>
0

> <PUBCHEM_ISOTOPIC_ATOM_COUNT>
0

> <PUBCHEM_COMPONENT_COUNT>
1

> <PUBCHEM_CACTVS_TAUTO_COUNT>
-1

> <PUBCHEM_COORDINATE_TYPE>
1
5
255

> <PUBCHEM_BONDANNOTATIONS>
11  14  8
11  16  8
14  17  8
16  18  8
17  19  8
18  19  8
2  18  8
2  22  8
26  27  8
26  30  8
27  29  8
27  31  8
29  32  8
30  33  8
31  34  8
32  33  8
34  35  8
4  19  8
4  22  8
5  23  8
5  25  8
6  23  8
6  7  8
7  25  8
8  29  8
8  35  8

$$$$
