42626172
  -OEChem-09292322362D

 61 64  0     1  0  0  0  0  0999 V2000
   15.4939   -0.1690    0.0000 Cl  0  0  0  0  0  0  0  0  0  0  0  0
   17.4939   -0.1690    0.0000 Cl  0  0  0  0  0  0  0  0  0  0  0  0
   11.4939   -0.1690    0.0000 O   0  0  0  0  0  0  0  0  0  0  0  0
    8.4939   -1.9010    0.0000 O   0  0  0  0  0  0  0  0  0  0  0  0
    2.8660   -0.0350    0.0000 O   0  0  0  0  0  0  0  0  0  0  0  0
   12.4939    1.5630    0.0000 N   0  0  0  0  0  0  0  0  0  0  0  0
   14.4939    1.5630    0.0000 N   0  0  0  0  0  0  0  0  0  0  0  0
    8.4939   -0.1690    0.0000 N   0  0  0  0  0  0  0  0  0  0  0  0
    6.4103   -1.8398    0.0000 N   0  0  0  0  0  0  0  0  0  0  0  0
   12.9939    2.4291    0.0000 C   0  0  0  0  0  0  0  0  0  0  0  0
   12.9939    0.6970    0.0000 C   0  0  0  0  0  0  0  0  0  0  0  0
   13.9939    2.4291    0.0000 C   0  0  0  0  0  0  0  0  0  0  0  0
   13.9939    0.6970    0.0000 C   0  0  0  0  0  0  0  0  0  0  0  0
   11.4939    1.5630    0.0000 C   0  0  0  0  0  0  0  0  0  0  0  0
   10.9939    0.6970    0.0000 C   0  0  3  0  0  0  0  0  0  0  0  0
    9.9939    0.6970    0.0000 C   0  0  0  0  0  0  0  0  0  0  0  0
   15.4939    1.5630    0.0000 C   0  0  0  0  0  0  0  0  0  0  0  0
    9.4939   -0.1690    0.0000 C   0  0  0  0  0  0  0  0  0  0  0  0
   15.9939    0.6970    0.0000 C   0  0  0  0  0  0  0  0  0  0  0  0
   15.9939    2.4291    0.0000 C   0  0  0  0  0  0  0  0  0  0  0  0
   16.9939    0.6970    0.0000 C   0  0  0  0  0  0  0  0  0  0  0  0
   16.9939    2.4291    0.0000 C   0  0  0  0  0  0  0  0  0  0  0  0
    7.9939   -1.0350    0.0000 C   0  0  0  0  0  0  0  0  0  0  0  0
   17.4939    1.5630    0.0000 C   0  0  0  0  0  0  0  0  0  0  0  0
    6.9939   -1.0350    0.0000 C   0  0  0  0  0  0  0  0  0  0  0  0
    5.4641   -0.5350    0.0000 C   0  0  0  0  0  0  0  0  0  0  0  0
    5.4641   -1.5350    0.0000 C   0  0  0  0  0  0  0  0  0  0  0  0
    6.4103   -0.2303    0.0000 C   0  0  0  0  0  0  0  0  0  0  0  0
    4.5981   -0.0350    0.0000 C   0  0  0  0  0  0  0  0  0  0  0  0
    4.5981   -2.0350    0.0000 C   0  0  0  0  0  0  0  0  0  0  0  0
    3.7320   -0.5350    0.0000 C   0  0  0  0  0  0  0  0  0  0  0  0
    3.7320   -1.5350    0.0000 C   0  0  0  0  0  0  0  0  0  0  0  0
    2.0000   -0.5350    0.0000 C   0  0  0  0  0  0  0  0  0  0  0  0
   13.1016    3.0397    0.0000 H   0  0  0  0  0  0  0  0  0  0  0  0
   12.4113    2.6411    0.0000 H   0  0  0  0  0  0  0  0  0  0  0  0
   12.4113    0.4850    0.0000 H   0  0  0  0  0  0  0  0  0  0  0  0
   13.1016    0.0864    0.0000 H   0  0  0  0  0  0  0  0  0  0  0  0
   14.5765    2.6411    0.0000 H   0  0  0  0  0  0  0  0  0  0  0  0
   13.8863    3.0397    0.0000 H   0  0  0  0  0  0  0  0  0  0  0  0
   13.8863    0.0864    0.0000 H   0  0  0  0  0  0  0  0  0  0  0  0
   14.5765    0.4850    0.0000 H   0  0  0  0  0  0  0  0  0  0  0  0
   11.6016    2.1736    0.0000 H   0  0  0  0  0  0  0  0  0  0  0  0
   10.9113    1.7751    0.0000 H   0  0  0  0  0  0  0  0  0  0  0  0
   11.6139    0.6970    0.0000 H   0  0  0  0  0  0  0  0  0  0  0  0
   10.1016    1.3076    0.0000 H   0  0  0  0  0  0  0  0  0  0  0  0
    9.4113    0.9091    0.0000 H   0  0  0  0  0  0  0  0  0  0  0  0
    9.3863   -0.7796    0.0000 H   0  0  0  0  0  0  0  0  0  0  0  0
   10.0765   -0.3810    0.0000 H   0  0  0  0  0  0  0  0  0  0  0  0
   11.1839   -0.7059    0.0000 H   0  0  0  0  0  0  0  0  0  0  0  0
   15.6839    2.9660    0.0000 H   0  0  0  0  0  0  0  0  0  0  0  0
    8.1839    0.3679    0.0000 H   0  0  0  0  0  0  0  0  0  0  0  0
   17.3039    2.9660    0.0000 H   0  0  0  0  0  0  0  0  0  0  0  0
   18.1139    1.5630    0.0000 H   0  0  0  0  0  0  0  0  0  0  0  0
    6.6029    0.3590    0.0000 H   0  0  0  0  0  0  0  0  0  0  0  0
    6.6029   -2.4291    0.0000 H   0  0  0  0  0  0  0  0  0  0  0  0
    4.5981    0.5850    0.0000 H   0  0  0  0  0  0  0  0  0  0  0  0
    4.5981   -2.6550    0.0000 H   0  0  0  0  0  0  0  0  0  0  0  0
    3.1951   -1.8450    0.0000 H   0  0  0  0  0  0  0  0  0  0  0  0
    1.6900    0.0019    0.0000 H   0  0  0  0  0  0  0  0  0  0  0  0
    1.4631   -0.8450    0.0000 H   0  0  0  0  0  0  0  0  0  0  0  0
    2.3100   -1.0720    0.0000 H   0  0  0  0  0  0  0  0  0  0  0  0
  1 19  1  0  0  0  0
  2 21  1  0  0  0  0
  3 15  1  0  0  0  0
  3 49  1  0  0  0  0
  4 23  2  0  0  0  0
  5 31  1  0  0  0  0
  5 33  1  0  0  0  0
  6 10  1  0  0  0  0
  6 11  1  0  0  0  0
  6 14  1  0  0  0  0
  7 12  1  0  0  0  0
  7 13  1  0  0  0  0
  7 17  1  0  0  0  0
  8 18  1  0  0  0  0
  8 23  1  0  0  0  0
  8 51  1  0  0  0  0
  9 25  1  0  0  0  0
  9 27  1  0  0  0  0
  9 55  1  0  0  0  0
 10 12  1  0  0  0  0
 10 34  1  0  0  0  0
 10 35  1  0  0  0  0
 11 13  1  0  0  0  0
 11 36  1  0  0  0  0
 11 37  1  0  0  0  0
 12 38  1  0  0  0  0
 12 39  1  0  0  0  0
 13 40  1  0  0  0  0
 13 41  1  0  0  0  0
 14 15  1  0  0  0  0
 14 42  1  0  0  0  0
 14 43  1  0  0  0  0
 15 16  1  0  0  0  0
 15 44  1  0  0  0  0
 16 18  1  0  0  0  0
 16 45  1  0  0  0  0
 16 46  1  0  0  0  0
 17 19  2  0  0  0  0
 17 20  1  0  0  0  0
 18 47  1  0  0  0  0
 18 48  1  0  0  0  0
 19 21  1  0  0  0  0
 20 22  2  0  0  0  0
 20 50  1  0  0  0  0
 21 24  2  0  0  0  0
 22 24  1  0  0  0  0
 22 52  1  0  0  0  0
 23 25  1  0  0  0  0
 24 53  1  0  0  0  0
 25 28  2  0  0  0  0
 26 27  2  0  0  0  0
 26 28  1  0  0  0  0
 26 29  1  0  0  0  0
 27 30  1  0  0  0  0
 28 54  1  0  0  0  0
 29 31  2  0  0  0  0
 29 56  1  0  0  0  0
 30 32  2  0  0  0  0
 30 57  1  0  0  0  0
 31 32  1  0  0  0  0
 32 58  1  0  0  0  0
 33 59  1  0  0  0  0
 33 60  1  0  0  0  0
 33 61  1  0  0  0  0
M  END
> <PUBCHEM_COMPOUND_CID>
42626172

> <PUBCHEM_COMPOUND_CANONICALIZED>
1

> <PUBCHEM_CACTVS_COMPLEXITY>
637

> <PUBCHEM_CACTVS_HBOND_ACCEPTOR>
5

> <PUBCHEM_CACTVS_HBOND_DONOR>
3

> <PUBCHEM_CACTVS_ROTATABLE_BOND>
8

> <PUBCHEM_CACTVS_SUBSKEYS>
AAADceB7sAAGAAAAAAAAAAAAAAAAAWAAAAA8YIAAAAAAAFgB9AAAHgIQCAAADB7hniYyxvPJlgCoAyVyVACCiCAnJyAIm+G+btgOdvLFt7vUcShm1hHY6Ye42bOeAEABAAICABQAgAIABAQAKAAAAAAAAA==

> <PUBCHEM_IUPAC_OPENEYE_NAME>
N-[4-[4-(2,3-dichlorophenyl)piperazin-1-yl]-3-hydroxy-butyl]-5-methoxy-1H-indole-2-carboxamide

> <PUBCHEM_IUPAC_CAS_NAME>
N-[4-[4-(2,3-dichlorophenyl)-1-piperazinyl]-3-hydroxybutyl]-5-methoxy-1H-indole-2-carboxamide

> <PUBCHEM_IUPAC_NAME_MARKUP>
<I>N</I>-[4-[4-(2,3-dichlorophenyl)piperazin-1-yl]-3-hydroxybutyl]-5-methoxy-1<I>H</I>-indole-2-carboxamide

> <PUBCHEM_IUPAC_NAME>
N-[4-[4-(2,3-dichlorophenyl)piperazin-1-yl]-3-hydroxybutyl]-5-methoxy-1H-indole-2-carboxamide

> <PUBCHEM_IUPAC_SYSTEMATIC_NAME>
N-[4-[4-[2,3-bis(chloranyl)phenyl]piperazin-1-yl]-3-oxidanyl-butyl]-5-methoxy-1H-indole-2-carboxamide

> <PUBCHEM_IUPAC_TRADITIONAL_NAME>
N-[4-[4-(2,3-dichlorophenyl)piperazino]-3-hydroxy-butyl]-5-methoxy-1H-indole-2-carboxamide

> <PUBCHEM_IUPAC_INCHI>
InChI=1S/C24H28Cl2N4O3/c1-33-18-5-6-20-16(13-18)14-21(28-20)24(32)27-8-7-17(31)15-29-9-11-30(12-10-29)22-4-2-3-19(25)23(22)26/h2-6,13-14,17,28,31H,7-12,15H2,1H3,(H,27,32)

> <PUBCHEM_IUPAC_INCHIKEY>
YRMKMEPMFOFXGH-UHFFFAOYSA-N

> <PUBCHEM_XLOGP3_AA>
4.3

> <PUBCHEM_EXACT_MASS>
490.1538462

> <PUBCHEM_MOLECULAR_FORMULA>
C24H28Cl2N4O3

> <PUBCHEM_MOLECULAR_WEIGHT>
491.4

> <PUBCHEM_OPENEYE_CAN_SMILES>
COC1=CC2=C(C=C1)NC(=C2)C(=O)NCCC(CN3CCN(CC3)C4=C(C(=CC=C4)Cl)Cl)O

> <PUBCHEM_OPENEYE_ISO_SMILES>
COC1=CC2=C(C=C1)NC(=C2)C(=O)NCCC(CN3CCN(CC3)C4=C(C(=CC=C4)Cl)Cl)O

> <PUBCHEM_CACTVS_TPSA>
80.8

> <PUBCHEM_MONOISOTOPIC_WEIGHT>
490.1538462

> <PUBCHEM_TOTAL_CHARGE>
0

> <PUBCHEM_HEAVY_ATOM_COUNT>
33

> <PUBCHEM_ATOM_DEF_STEREO_COUNT>
0

> <PUBCHEM_ATOM_UDEF_STEREO_COUNT>
1

> <PUBCHEM_BOND_DEF_STEREO_COUNT>
0

> <PUBCHEM_BOND_UDEF_STEREO_COUNT>
0

> <PUBCHEM_ISOTOPIC_ATOM_COUNT>
0

> <PUBCHEM_COMPONENT_COUNT>
1

> <PUBCHEM_CACTVS_TAUTO_COUNT>
-1

> <PUBCHEM_COORDINATE_TYPE>
1
5
255

> <PUBCHEM_BONDANNOTATIONS>
17  19  8
17  20  8
19  21  8
20  22  8
21  24  8
22  24  8
25  28  8
26  27  8
26  28  8
26  29  8
27  30  8
29  31  8
15  3  3
30  32  8
31  32  8
9  25  8
9  27  8

$$$$
