44369987
  -OEChem-09292322192D

 59 63  0     1  0  0  0  0  0999 V2000
   14.5733    0.1542    0.0000 F   0  0  0  0  0  0  0  0  0  0  0  0
   11.8134   -2.0781    0.0000 O   0  0  0  0  0  0  0  0  0  0  0  0
    5.4804   -1.9565    0.0000 O   0  0  0  0  0  0  0  0  0  0  0  0
    2.0000    1.0781    0.0000 O   0  0  0  0  0  0  0  0  0  0  0  0
    2.0000   -0.9219    0.0000 O   0  0  0  0  0  0  0  0  0  0  0  0
    8.1301    0.6056    0.0000 N   0  0  0  0  0  0  0  0  0  0  0  0
   10.8408   -1.8727    0.0000 N   0  0  0  0  0  0  0  0  0  0  0  0
    9.8660   -0.3877    0.0000 C   0  0  0  0  0  0  0  0  0  0  0  0
    6.3981    0.5989    0.0000 C   0  0  3  0  0  0  0  0  0  0  0  0
    7.2622    1.1023    0.0000 C   0  0  0  0  0  0  0  0  0  0  0  0
    8.9942    1.1090    0.0000 C   0  0  0  0  0  0  0  0  0  0  0  0
    8.1340   -0.3944    0.0000 C   0  0  0  0  0  0  0  0  0  0  0  0
    9.8622    0.6123    0.0000 C   0  0  0  0  0  0  0  0  0  0  0  0
    9.0019   -0.8910    0.0000 C   0  0  0  0  0  0  0  0  0  0  0  0
    5.4920    1.1128    0.0000 C   0  0  0  0  0  0  0  0  0  0  0  0
    6.3981   -0.4427    0.0000 C   0  0  0  0  0  0  0  0  0  0  0  0
   10.7340   -0.8844    0.0000 C   0  0  0  0  0  0  0  0  0  0  0  0
    4.5981    0.5781    0.0000 C   0  0  0  0  0  0  0  0  0  0  0  0
    5.4920   -0.9565    0.0000 C   0  0  0  0  0  0  0  0  0  0  0  0
    4.5981   -0.4219    0.0000 C   0  0  0  0  0  0  0  0  0  0  0  0
   11.6402   -0.4757    0.0000 C   0  0  0  0  0  0  0  0  0  0  0  0
    3.7320    1.0781    0.0000 C   0  0  0  0  0  0  0  0  0  0  0  0
    3.7320   -0.9219    0.0000 C   0  0  0  0  0  0  0  0  0  0  0  0
   12.3109   -1.2175    0.0000 C   0  0  0  0  0  0  0  0  0  0  0  0
    2.8660    0.5781    0.0000 C   0  0  0  0  0  0  0  0  0  0  0  0
    2.8660   -0.4219    0.0000 C   0  0  0  0  0  0  0  0  0  0  0  0
   11.9472    0.4760    0.0000 C   0  0  0  0  0  0  0  0  0  0  0  0
   13.2886   -1.0075    0.0000 C   0  0  0  0  0  0  0  0  0  0  0  0
   12.9249    0.6860    0.0000 C   0  0  0  0  0  0  0  0  0  0  0  0
   13.5956   -0.0558    0.0000 C   0  0  0  0  0  0  0  0  0  0  0  0
    2.0000    2.0781    0.0000 C   0  0  0  0  0  0  0  0  0  0  0  0
    2.0000   -1.9219    0.0000 C   0  0  0  0  0  0  0  0  0  0  0  0
    9.8684   -1.0077    0.0000 H   0  0  0  0  0  0  0  0  0  0  0  0
    6.9356    0.2900    0.0000 H   0  0  0  0  0  0  0  0  0  0  0  0
    7.6589    1.5788    0.0000 H   0  0  0  0  0  0  0  0  0  0  0  0
    6.8618    1.5757    0.0000 H   0  0  0  0  0  0  0  0  0  0  0  0
    9.3909    1.5854    0.0000 H   0  0  0  0  0  0  0  0  0  0  0  0
    8.5939    1.5824    0.0000 H   0  0  0  0  0  0  0  0  0  0  0  0
    7.5230   -0.2891    0.0000 H   0  0  0  0  0  0  0  0  0  0  0  0
    7.9242   -0.9778    0.0000 H   0  0  0  0  0  0  0  0  0  0  0  0
   10.4732    0.5070    0.0000 H   0  0  0  0  0  0  0  0  0  0  0  0
   10.0720    1.1957    0.0000 H   0  0  0  0  0  0  0  0  0  0  0  0
    8.6052   -1.3675    0.0000 H   0  0  0  0  0  0  0  0  0  0  0  0
    9.4023   -1.3644    0.0000 H   0  0  0  0  0  0  0  0  0  0  0  0
    5.8856    1.5918    0.0000 H   0  0  0  0  0  0  0  0  0  0  0  0
    5.0874    1.5826    0.0000 H   0  0  0  0  0  0  0  0  0  0  0  0
    6.6071   -1.0264    0.0000 H   0  0  0  0  0  0  0  0  0  0  0  0
    7.0089   -0.3366    0.0000 H   0  0  0  0  0  0  0  0  0  0  0  0
    3.7320    1.6981    0.0000 H   0  0  0  0  0  0  0  0  0  0  0  0
    3.7320   -1.5419    0.0000 H   0  0  0  0  0  0  0  0  0  0  0  0
   11.5313    0.9358    0.0000 H   0  0  0  0  0  0  0  0  0  0  0  0
   13.7044   -1.4673    0.0000 H   0  0  0  0  0  0  0  0  0  0  0  0
   13.1152    1.2760    0.0000 H   0  0  0  0  0  0  0  0  0  0  0  0
    2.6200    2.0781    0.0000 H   0  0  0  0  0  0  0  0  0  0  0  0
    2.0000    2.6981    0.0000 H   0  0  0  0  0  0  0  0  0  0  0  0
    1.3800    2.0781    0.0000 H   0  0  0  0  0  0  0  0  0  0  0  0
    1.3800   -1.9219    0.0000 H   0  0  0  0  0  0  0  0  0  0  0  0
    2.0000   -2.5419    0.0000 H   0  0  0  0  0  0  0  0  0  0  0  0
    2.6200   -1.9219    0.0000 H   0  0  0  0  0  0  0  0  0  0  0  0
  1 30  1  0  0  0  0
  2  7  1  0  0  0  0
  2 24  1  0  0  0  0
  3 19  2  0  0  0  0
  4 25  1  0  0  0  0
  4 31  1  0  0  0  0
  5 26  1  0  0  0  0
  5 32  1  0  0  0  0
  6 10  1  0  0  0  0
  6 11  1  0  0  0  0
  6 12  1  0  0  0  0
  7 17  2  0  0  0  0
  8 13  1  0  0  0  0
  8 14  1  0  0  0  0
  8 17  1  0  0  0  0
  8 33  1  0  0  0  0
  9 10  1  0  0  0  0
  9 15  1  0  0  0  0
  9 16  1  0  0  0  0
  9 34  1  0  0  0  0
 10 35  1  0  0  0  0
 10 36  1  0  0  0  0
 11 13  1  0  0  0  0
 11 37  1  0  0  0  0
 11 38  1  0  0  0  0
 12 14  1  0  0  0  0
 12 39  1  0  0  0  0
 12 40  1  0  0  0  0
 13 41  1  0  0  0  0
 13 42  1  0  0  0  0
 14 43  1  0  0  0  0
 14 44  1  0  0  0  0
 15 18  1  0  0  0  0
 15 45  1  0  0  0  0
 15 46  1  0  0  0  0
 16 19  1  0  0  0  0
 16 47  1  0  0  0  0
 16 48  1  0  0  0  0
 17 21  1  0  0  0  0
 18 20  1  0  0  0  0
 18 22  2  0  0  0  0
 19 20  1  0  0  0  0
 20 23  2  0  0  0  0
 21 24  2  0  0  0  0
 21 27  1  0  0  0  0
 22 25  1  0  0  0  0
 22 49  1  0  0  0  0
 23 26  1  0  0  0  0
 23 50  1  0  0  0  0
 24 28  1  0  0  0  0
 25 26  2  0  0  0  0
 27 29  2  0  0  0  0
 27 51  1  0  0  0  0
 28 30  2  0  0  0  0
 28 52  1  0  0  0  0
 29 30  1  0  0  0  0
 29 53  1  0  0  0  0
 31 54  1  0  0  0  0
 31 55  1  0  0  0  0
 31 56  1  0  0  0  0
 32 57  1  0  0  0  0
 32 58  1  0  0  0  0
 32 59  1  0  0  0  0
M  END
> <PUBCHEM_COMPOUND_CID>
44369987

> <PUBCHEM_COMPOUND_CANONICALIZED>
1

> <PUBCHEM_CACTVS_COMPLEXITY>
658

> <PUBCHEM_CACTVS_HBOND_ACCEPTOR>
7

> <PUBCHEM_CACTVS_HBOND_DONOR>
0

> <PUBCHEM_CACTVS_ROTATABLE_BOND>
5

> <PUBCHEM_CACTVS_SUBSKEYS>
AAADceB7OQAAAAAAAAAAAAAAAAAAAWAAAAA8YMEAAAAAAFjB9AAAHwAEAAAADQzBng4yhtMQBACpA6RyQgCCCAAkIAAomCE+zNoNJrqEtZuEMaJmwBmK6ceezPDOoAABAAAYQADAAAYAADCAAAAAAAAAAA==

> <PUBCHEM_IUPAC_OPENEYE_NAME>
3-[[4-(6-fluoro-1,2-benzoxazol-3-yl)-1-piperidyl]methyl]-6,7-dimethoxy-tetralin-1-one

> <PUBCHEM_IUPAC_CAS_NAME>
3-[[4-(6-fluoro-1,2-benzoxazol-3-yl)-1-piperidinyl]methyl]-6,7-dimethoxy-3,4-dihydro-2H-naphthalen-1-one

> <PUBCHEM_IUPAC_NAME_MARKUP>
3-[[4-(6-fluoro-1,2-benzoxazol-3-yl)piperidin-1-yl]methyl]-6,7-dimethoxy-3,4-dihydro-2<I>H</I>-naphthalen-1-one

> <PUBCHEM_IUPAC_NAME>
3-[[4-(6-fluoro-1,2-benzoxazol-3-yl)piperidin-1-yl]methyl]-6,7-dimethoxy-3,4-dihydro-2H-naphthalen-1-one

> <PUBCHEM_IUPAC_SYSTEMATIC_NAME>
3-[[4-(6-fluoranyl-1,2-benzoxazol-3-yl)piperidin-1-yl]methyl]-6,7-dimethoxy-3,4-dihydro-2H-naphthalen-1-one

> <PUBCHEM_IUPAC_TRADITIONAL_NAME>
3-[[4-(6-fluoroindoxazen-3-yl)piperidino]methyl]-6,7-dimethoxy-tetralin-1-one

> <PUBCHEM_IUPAC_INCHI>
InChI=1S/C25H27FN2O4/c1-30-23-11-17-9-15(10-21(29)20(17)13-24(23)31-2)14-28-7-5-16(6-8-28)25-19-4-3-18(26)12-22(19)32-27-25/h3-4,11-13,15-16H,5-10,14H2,1-2H3

> <PUBCHEM_IUPAC_INCHIKEY>
QESXIMMZZQIWKG-UHFFFAOYSA-N

> <PUBCHEM_XLOGP3_AA>
4.1

> <PUBCHEM_EXACT_MASS>
438.19548551

> <PUBCHEM_MOLECULAR_FORMULA>
C25H27FN2O4

> <PUBCHEM_MOLECULAR_WEIGHT>
438.5

> <PUBCHEM_OPENEYE_CAN_SMILES>
COC1=C(C=C2C(=C1)CC(CC2=O)CN3CCC(CC3)C4=NOC5=C4C=CC(=C5)F)OC

> <PUBCHEM_OPENEYE_ISO_SMILES>
COC1=C(C=C2C(=C1)CC(CC2=O)CN3CCC(CC3)C4=NOC5=C4C=CC(=C5)F)OC

> <PUBCHEM_CACTVS_TPSA>
64.8

> <PUBCHEM_MONOISOTOPIC_WEIGHT>
438.19548551

> <PUBCHEM_TOTAL_CHARGE>
0

> <PUBCHEM_HEAVY_ATOM_COUNT>
32

> <PUBCHEM_ATOM_DEF_STEREO_COUNT>
0

> <PUBCHEM_ATOM_UDEF_STEREO_COUNT>
1

> <PUBCHEM_BOND_DEF_STEREO_COUNT>
0

> <PUBCHEM_BOND_UDEF_STEREO_COUNT>
0

> <PUBCHEM_ISOTOPIC_ATOM_COUNT>
0

> <PUBCHEM_COMPONENT_COUNT>
1

> <PUBCHEM_CACTVS_TAUTO_COUNT>
-1

> <PUBCHEM_COORDINATE_TYPE>
1
5
255

> <PUBCHEM_BONDANNOTATIONS>
17  21  8
18  20  8
18  22  8
2  24  8
2  7  8
20  23  8
21  24  8
21  27  8
22  25  8
23  26  8
24  28  8
25  26  8
27  29  8
28  30  8
29  30  8
7  17  8
9  10  3

$$$$
