45483288
  -OEChem-09292322292D

 54 57  0     1  0  0  0  0  0999 V2000
    2.0000   -1.1779    0.0000 F   0  0  0  0  0  0  0  0  0  0  0  0
    5.4641    1.8221    0.0000 O   0  0  0  0  0  0  0  0  0  0  0  0
   10.6603    1.8221    0.0000 O   0  0  0  0  0  0  0  0  0  0  0  0
    8.0622   -0.6779    0.0000 N   0  0  0  0  0  0  0  0  0  0  0  0
   12.4202   -1.2126    0.0000 N   0  0  0  0  0  0  0  0  0  0  0  0
   13.3263    0.3429    0.0000 N   0  0  0  0  0  0  0  0  0  0  0  0
   14.1904   -1.2021    0.0000 N   0  0  0  0  0  0  0  0  0  0  0  0
    9.7942   -0.6779    0.0000 C   0  0  3  0  0  0  0  0  0  0  0  0
    6.3301    0.3221    0.0000 C   0  0  0  0  0  0  0  0  0  0  0  0
    8.9282   -1.1779    0.0000 C   0  0  0  0  0  0  0  0  0  0  0  0
    7.1962   -1.1779    0.0000 C   0  0  0  0  0  0  0  0  0  0  0  0
    8.0622    0.3221    0.0000 C   0  0  0  0  0  0  0  0  0  0  0  0
    6.3301   -0.6779    0.0000 C   0  0  0  0  0  0  0  0  0  0  0  0
    7.1962    0.8221    0.0000 C   0  0  0  0  0  0  0  0  0  0  0  0
   10.6603   -1.1779    0.0000 C   0  0  0  0  0  0  0  0  0  0  0  0
    9.7942    0.3221    0.0000 C   0  0  0  0  0  0  0  0  0  0  0  0
    5.4641    0.8221    0.0000 C   0  0  0  0  0  0  0  0  0  0  0  0
   11.5263   -0.6779    0.0000 C   0  0  0  0  0  0  0  0  0  0  0  0
   10.6603    0.8221    0.0000 C   0  0  0  0  0  0  0  0  0  0  0  0
   11.5263    0.3221    0.0000 C   0  0  0  0  0  0  0  0  0  0  0  0
    4.5981    0.3221    0.0000 C   0  0  0  0  0  0  0  0  0  0  0  0
   12.4202    0.8567    0.0000 C   0  0  0  0  0  0  0  0  0  0  0  0
   13.3263   -0.6987    0.0000 C   0  0  0  0  0  0  0  0  0  0  0  0
    4.5981   -0.6779    0.0000 C   0  0  0  0  0  0  0  0  0  0  0  0
    3.7320    0.8221    0.0000 C   0  0  0  0  0  0  0  0  0  0  0  0
    3.7320   -1.1779    0.0000 C   0  0  0  0  0  0  0  0  0  0  0  0
    2.8660    0.3221    0.0000 C   0  0  0  0  0  0  0  0  0  0  0  0
    2.8660   -0.6779    0.0000 C   0  0  0  0  0  0  0  0  0  0  0  0
   15.0583   -0.7054    0.0000 C   0  0  0  0  0  0  0  0  0  0  0  0
    9.2573   -0.3679    0.0000 H   0  0  0  0  0  0  0  0  0  0  0  0
    8.5297   -1.6529    0.0000 H   0  0  0  0  0  0  0  0  0  0  0  0
    9.3267   -1.6529    0.0000 H   0  0  0  0  0  0  0  0  0  0  0  0
    5.7932    0.0121    0.0000 H   0  0  0  0  0  0  0  0  0  0  0  0
    6.7976   -1.6529    0.0000 H   0  0  0  0  0  0  0  0  0  0  0  0
    7.5947   -1.6529    0.0000 H   0  0  0  0  0  0  0  0  0  0  0  0
    8.6728    0.2144    0.0000 H   0  0  0  0  0  0  0  0  0  0  0  0
    8.2742    0.9047    0.0000 H   0  0  0  0  0  0  0  0  0  0  0  0
    5.7196   -0.5703    0.0000 H   0  0  0  0  0  0  0  0  0  0  0  0
    6.1181   -1.2605    0.0000 H   0  0  0  0  0  0  0  0  0  0  0  0
    7.5947    1.2970    0.0000 H   0  0  0  0  0  0  0  0  0  0  0  0
    6.7976    1.2970    0.0000 H   0  0  0  0  0  0  0  0  0  0  0  0
   10.2617   -1.6529    0.0000 H   0  0  0  0  0  0  0  0  0  0  0  0
   11.0588   -1.6529    0.0000 H   0  0  0  0  0  0  0  0  0  0  0  0
    9.5822    0.9047    0.0000 H   0  0  0  0  0  0  0  0  0  0  0  0
    9.1836    0.2144    0.0000 H   0  0  0  0  0  0  0  0  0  0  0  0
   12.4131    1.4767    0.0000 H   0  0  0  0  0  0  0  0  0  0  0  0
    5.1350   -0.9879    0.0000 H   0  0  0  0  0  0  0  0  0  0  0  0
    3.7320    1.4421    0.0000 H   0  0  0  0  0  0  0  0  0  0  0  0
    3.7320   -1.7979    0.0000 H   0  0  0  0  0  0  0  0  0  0  0  0
    2.3291    0.6321    0.0000 H   0  0  0  0  0  0  0  0  0  0  0  0
   14.1880   -1.8221    0.0000 H   0  0  0  0  0  0  0  0  0  0  0  0
   15.3663   -1.2436    0.0000 H   0  0  0  0  0  0  0  0  0  0  0  0
   15.5965   -0.3975    0.0000 H   0  0  0  0  0  0  0  0  0  0  0  0
   14.7504   -0.1673    0.0000 H   0  0  0  0  0  0  0  0  0  0  0  0
  1 28  1  0  0  0  0
  2 17  2  0  0  0  0
  3 19  2  0  0  0  0
  4 10  1  0  0  0  0
  4 11  1  0  0  0  0
  4 12  1  0  0  0  0
  5 18  2  0  0  0  0
  5 23  1  0  0  0  0
  6 22  1  0  0  0  0
  6 23  2  0  0  0  0
  7 23  1  0  0  0  0
  7 29  1  0  0  0  0
  7 51  1  0  0  0  0
  8 10  1  0  0  0  0
  8 15  1  0  0  0  0
  8 16  1  0  0  0  0
  8 30  1  0  0  0  0
  9 13  1  0  0  0  0
  9 14  1  0  0  0  0
  9 17  1  0  0  0  0
  9 33  1  0  0  0  0
 10 31  1  0  0  0  0
 10 32  1  0  0  0  0
 11 13  1  0  0  0  0
 11 34  1  0  0  0  0
 11 35  1  0  0  0  0
 12 14  1  0  0  0  0
 12 36  1  0  0  0  0
 12 37  1  0  0  0  0
 13 38  1  0  0  0  0
 13 39  1  0  0  0  0
 14 40  1  0  0  0  0
 14 41  1  0  0  0  0
 15 18  1  0  0  0  0
 15 42  1  0  0  0  0
 15 43  1  0  0  0  0
 16 19  1  0  0  0  0
 16 44  1  0  0  0  0
 16 45  1  0  0  0  0
 17 21  1  0  0  0  0
 18 20  1  0  0  0  0
 19 20  1  0  0  0  0
 20 22  2  0  0  0  0
 21 24  2  0  0  0  0
 21 25  1  0  0  0  0
 22 46  1  0  0  0  0
 24 26  1  0  0  0  0
 24 47  1  0  0  0  0
 25 27  2  0  0  0  0
 25 48  1  0  0  0  0
 26 28  2  0  0  0  0
 26 49  1  0  0  0  0
 27 28  1  0  0  0  0
 27 50  1  0  0  0  0
 29 52  1  0  0  0  0
 29 53  1  0  0  0  0
 29 54  1  0  0  0  0
M  END
> <PUBCHEM_COMPOUND_CID>
45483288

> <PUBCHEM_COMPOUND_CANONICALIZED>
1

> <PUBCHEM_CACTVS_COMPLEXITY>
587

> <PUBCHEM_CACTVS_HBOND_ACCEPTOR>
7

> <PUBCHEM_CACTVS_HBOND_DONOR>
1

> <PUBCHEM_CACTVS_ROTATABLE_BOND>
5

> <PUBCHEM_CACTVS_SUBSKEYS>
AAADceB7sQAAAAAAAAAAAAAAAAAAAAAAAAA8eIEAAAAAAACxwAAAHwAQAAAADQzBngw/kJfIEACoA7R3ZACCgCk1AKAJ2KE4RNiIKLrA3dCEJYhogALIyeccicCeAAAAAAAAAACAAACAAAQAAAAAAAAAAA==

> <PUBCHEM_IUPAC_OPENEYE_NAME>
7-[[4-(4-fluorobenzoyl)-1-piperidyl]methyl]-2-(methylamino)-7,8-dihydro-6H-quinazolin-5-one

> <PUBCHEM_IUPAC_CAS_NAME>
7-[[4-[(4-fluorophenyl)-oxomethyl]-1-piperidinyl]methyl]-2-(methylamino)-7,8-dihydro-6H-quinazolin-5-one

> <PUBCHEM_IUPAC_NAME_MARKUP>
7-[[4-(4-fluorobenzoyl)piperidin-1-yl]methyl]-2-(methylamino)-7,8-dihydro-6<I>H</I>-quinazolin-5-one

> <PUBCHEM_IUPAC_NAME>
7-[[4-(4-fluorobenzoyl)piperidin-1-yl]methyl]-2-(methylamino)-7,8-dihydro-6H-quinazolin-5-one

> <PUBCHEM_IUPAC_SYSTEMATIC_NAME>
7-[[4-(4-fluorophenyl)carbonylpiperidin-1-yl]methyl]-2-(methylamino)-7,8-dihydro-6H-quinazolin-5-one

> <PUBCHEM_IUPAC_TRADITIONAL_NAME>
7-[[4-(4-fluorobenzoyl)piperidino]methyl]-2-(methylamino)-7,8-dihydro-6H-quinazolin-5-one

> <PUBCHEM_IUPAC_INCHI>
InChI=1S/C22H25FN4O2/c1-24-22-25-12-18-19(26-22)10-14(11-20(18)28)13-27-8-6-16(7-9-27)21(29)15-2-4-17(23)5-3-15/h2-5,12,14,16H,6-11,13H2,1H3,(H,24,25,26)

> <PUBCHEM_IUPAC_INCHIKEY>
QALOBVQQEGVYCI-UHFFFAOYSA-N

> <PUBCHEM_XLOGP3_AA>
2.5

> <PUBCHEM_EXACT_MASS>
396.19615422

> <PUBCHEM_MOLECULAR_FORMULA>
C22H25FN4O2

> <PUBCHEM_MOLECULAR_WEIGHT>
396.5

> <PUBCHEM_OPENEYE_CAN_SMILES>
CNC1=NC=C2C(=N1)CC(CC2=O)CN3CCC(CC3)C(=O)C4=CC=C(C=C4)F

> <PUBCHEM_OPENEYE_ISO_SMILES>
CNC1=NC=C2C(=N1)CC(CC2=O)CN3CCC(CC3)C(=O)C4=CC=C(C=C4)F

> <PUBCHEM_CACTVS_TPSA>
75.2

> <PUBCHEM_MONOISOTOPIC_WEIGHT>
396.19615422

> <PUBCHEM_TOTAL_CHARGE>
0

> <PUBCHEM_HEAVY_ATOM_COUNT>
29

> <PUBCHEM_ATOM_DEF_STEREO_COUNT>
0

> <PUBCHEM_ATOM_UDEF_STEREO_COUNT>
1

> <PUBCHEM_BOND_DEF_STEREO_COUNT>
0

> <PUBCHEM_BOND_UDEF_STEREO_COUNT>
0

> <PUBCHEM_ISOTOPIC_ATOM_COUNT>
0

> <PUBCHEM_COMPONENT_COUNT>
1

> <PUBCHEM_CACTVS_TAUTO_COUNT>
-1

> <PUBCHEM_COORDINATE_TYPE>
1
5
255

> <PUBCHEM_BONDANNOTATIONS>
18  20  8
20  22  8
21  24  8
21  25  8
24  26  8
25  27  8
26  28  8
27  28  8
5  18  8
5  23  8
6  22  8
6  23  8
8  10  3

$$$$
