44340705
  -OEChem-09292322212D

 65 67  0     1  0  0  0  0  0999 V2000
    6.3301   -5.0168    0.0000 S   0  0  0  0  0  0  0  0  0  0  0  0
    2.8660   -3.0168    0.0000 O   0  0  0  0  0  0  0  0  0  0  0  0
    5.8301   -5.8828    0.0000 O   0  0  0  0  0  0  0  0  0  0  0  0
    6.8301   -4.1508    0.0000 O   0  0  0  0  0  0  0  0  0  0  0  0
    6.1318    4.0898    0.0000 O   0  0  0  0  0  0  0  0  0  0  0  0
    4.9562    5.7078    0.0000 O   0  0  0  0  0  0  0  0  0  0  0  0
    3.9170    1.2446    0.0000 N   0  0  3  0  0  0  0  0  0  0  0  0
    3.7891   -1.4290    0.0000 N   0  0  0  0  0  0  0  0  0  0  0  0
    3.5103    0.3310    0.0000 C   0  0  0  0  0  0  0  0  0  0  0  0
    4.0981   -0.4780    0.0000 C   0  0  0  0  0  0  0  0  0  0  0  0
    3.3292    2.0536    0.0000 C   0  0  0  0  0  0  0  0  0  0  0  0
    4.9116    1.3491    0.0000 C   0  0  0  0  0  0  0  0  0  0  0  0
    4.5981   -2.0168    0.0000 C   0  0  0  0  0  0  0  0  0  0  0  0
    4.5981   -3.0168    0.0000 C   0  0  0  0  0  0  0  0  0  0  0  0
    5.0981   -0.4780    0.0000 C   0  0  0  0  0  0  0  0  0  0  0  0
    3.7360    2.9672    0.0000 C   0  0  0  0  0  0  0  0  0  0  0  0
    5.4071   -1.4290    0.0000 C   0  0  0  0  0  0  0  0  0  0  0  0
    5.4641   -4.5168    0.0000 C   0  0  0  0  0  0  0  0  0  0  0  0
    5.4641   -3.5168    0.0000 C   0  0  0  0  0  0  0  0  0  0  0  0
    3.7320   -3.5168    0.0000 C   0  0  0  0  0  0  0  0  0  0  0  0
    5.3183    2.2627    0.0000 C   0  0  0  0  0  0  0  0  0  0  0  0
    4.5981   -5.0168    0.0000 C   0  0  0  0  0  0  0  0  0  0  0  0
    7.1962   -5.5168    0.0000 C   0  0  0  0  0  0  0  0  0  0  0  0
    4.7305    3.0717    0.0000 C   0  0  0  0  0  0  0  0  0  0  0  0
    3.7320   -4.5168    0.0000 C   0  0  0  0  0  0  0  0  0  0  0  0
    3.1482    3.7762    0.0000 C   0  0  0  0  0  0  0  0  0  0  0  0
    5.1372    3.9852    0.0000 C   0  0  0  0  0  0  0  0  0  0  0  0
    3.5549    4.6897    0.0000 C   0  0  0  0  0  0  0  0  0  0  0  0
    4.5494    4.7942    0.0000 C   0  0  0  0  0  0  0  0  0  0  0  0
    7.1962   -6.5168    0.0000 C   0  0  0  0  0  0  0  0  0  0  0  0
    2.0000   -3.5168    0.0000 C   0  0  0  0  0  0  0  0  0  0  0  0
    6.5385    5.0033    0.0000 C   0  0  0  0  0  0  0  0  0  0  0  0
    4.3684    6.5168    0.0000 C   0  0  0  0  0  0  0  0  0  0  0  0
    2.9963    0.6777    0.0000 H   0  0  0  0  0  0  0  0  0  0  0  0
    3.0796   -0.1149    0.0000 H   0  0  0  0  0  0  0  0  0  0  0  0
    2.8152    2.4003    0.0000 H   0  0  0  0  0  0  0  0  0  0  0  0
    2.8986    1.6076    0.0000 H   0  0  0  0  0  0  0  0  0  0  0  0
    4.8683    0.7306    0.0000 H   0  0  0  0  0  0  0  0  0  0  0  0
    5.5131    1.1991    0.0000 H   0  0  0  0  0  0  0  0  0  0  0  0
    3.1994   -1.6206    0.0000 H   0  0  0  0  0  0  0  0  0  0  0  0
    5.4625    0.0236    0.0000 H   0  0  0  0  0  0  0  0  0  0  0  0
    5.9967   -1.6206    0.0000 H   0  0  0  0  0  0  0  0  0  0  0  0
    6.0010   -3.2068    0.0000 H   0  0  0  0  0  0  0  0  0  0  0  0
    5.8847    2.0105    0.0000 H   0  0  0  0  0  0  0  0  0  0  0  0
    5.5705    2.8291    0.0000 H   0  0  0  0  0  0  0  0  0  0  0  0
    4.7519    2.5148    0.0000 H   0  0  0  0  0  0  0  0  0  0  0  0
    4.5981   -5.6368    0.0000 H   0  0  0  0  0  0  0  0  0  0  0  0
    7.8067   -5.6245    0.0000 H   0  0  0  0  0  0  0  0  0  0  0  0
    7.4082   -4.9342    0.0000 H   0  0  0  0  0  0  0  0  0  0  0  0
    5.0949    2.5701    0.0000 H   0  0  0  0  0  0  0  0  0  0  0  0
    3.1951   -4.8268    0.0000 H   0  0  0  0  0  0  0  0  0  0  0  0
    2.5316    3.7114    0.0000 H   0  0  0  0  0  0  0  0  0  0  0  0
    3.1905    5.1913    0.0000 H   0  0  0  0  0  0  0  0  0  0  0  0
    6.5762   -6.5168    0.0000 H   0  0  0  0  0  0  0  0  0  0  0  0
    7.1962   -7.1368    0.0000 H   0  0  0  0  0  0  0  0  0  0  0  0
    7.8162   -6.5168    0.0000 H   0  0  0  0  0  0  0  0  0  0  0  0
    1.6900   -2.9799    0.0000 H   0  0  0  0  0  0  0  0  0  0  0  0
    1.4631   -3.8268    0.0000 H   0  0  0  0  0  0  0  0  0  0  0  0
    2.3100   -4.0538    0.0000 H   0  0  0  0  0  0  0  0  0  0  0  0
    7.1049    4.7511    0.0000 H   0  0  0  0  0  0  0  0  0  0  0  0
    6.7907    5.5697    0.0000 H   0  0  0  0  0  0  0  0  0  0  0  0
    5.9721    5.2555    0.0000 H   0  0  0  0  0  0  0  0  0  0  0  0
    4.8700    6.8812    0.0000 H   0  0  0  0  0  0  0  0  0  0  0  0
    4.0040    7.0184    0.0000 H   0  0  0  0  0  0  0  0  0  0  0  0
    3.8668    6.1524    0.0000 H   0  0  0  0  0  0  0  0  0  0  0  0
  1  3  2  0  0  0  0
  1  4  2  0  0  0  0
  1 18  1  0  0  0  0
  1 23  1  0  0  0  0
  2 20  1  0  0  0  0
  2 31  1  0  0  0  0
  5 27  1  0  0  0  0
  5 32  1  0  0  0  0
  6 29  1  0  0  0  0
  6 33  1  0  0  0  0
  7  9  1  0  0  0  0
  7 11  1  0  0  0  0
  7 12  1  0  0  0  0
  8 10  1  0  0  0  0
  8 13  1  0  0  0  0
  8 40  1  0  0  0  0
  9 10  1  0  0  0  0
  9 34  1  0  0  0  0
  9 35  1  0  0  0  0
 10 15  2  0  0  0  0
 11 16  1  0  0  0  0
 11 36  1  0  0  0  0
 11 37  1  0  0  0  0
 12 21  1  0  0  0  0
 12 38  1  0  0  0  0
 12 39  1  0  0  0  0
 13 14  1  0  0  0  0
 13 17  2  0  0  0  0
 14 19  1  0  0  0  0
 14 20  2  0  0  0  0
 15 17  1  0  0  0  0
 15 41  1  0  0  0  0
 16 24  2  0  0  0  0
 16 26  1  0  0  0  0
 17 42  1  0  0  0  0
 18 19  2  0  0  0  0
 18 22  1  0  0  0  0
 19 43  1  0  0  0  0
 20 25  1  0  0  0  0
 21 44  1  0  0  0  0
 21 45  1  0  0  0  0
 21 46  1  0  0  0  0
 22 25  2  0  0  0  0
 22 47  1  0  0  0  0
 23 30  1  0  0  0  0
 23 48  1  0  0  0  0
 23 49  1  0  0  0  0
 24 27  1  0  0  0  0
 24 50  1  0  0  0  0
 25 51  1  0  0  0  0
 26 28  2  0  0  0  0
 26 52  1  0  0  0  0
 27 29  2  0  0  0  0
 28 29  1  0  0  0  0
 28 53  1  0  0  0  0
 30 54  1  0  0  0  0
 30 55  1  0  0  0  0
 30 56  1  0  0  0  0
 31 57  1  0  0  0  0
 31 58  1  0  0  0  0
 31 59  1  0  0  0  0
 32 60  1  0  0  0  0
 32 61  1  0  0  0  0
 32 62  1  0  0  0  0
 33 63  1  0  0  0  0
 33 64  1  0  0  0  0
 33 65  1  0  0  0  0
M  END
> <PUBCHEM_COMPOUND_CID>
44340705

> <PUBCHEM_COMPOUND_CANONICALIZED>
1

> <PUBCHEM_CACTVS_COMPLEXITY>
685

> <PUBCHEM_CACTVS_HBOND_ACCEPTOR>
6

> <PUBCHEM_CACTVS_HBOND_DONOR>
1

> <PUBCHEM_CACTVS_ROTATABLE_BOND>
11

> <PUBCHEM_CACTVS_SUBSKEYS>
AAADcfB7OABAAAAAAAAAAAAAAAAAAWAAAAAwYAAAAAAAAAAB0AAAHgQQAAAADAzF3gayh5PJlAqgAyRiRHDCiCAhKjAImTg+7JgNZuLksZuUMCpm0BHq6Aew0PIOIIABgAAIQABBAAMAABCAAAAAAAAAAA==

> <PUBCHEM_IUPAC_OPENEYE_NAME>
N-[(3,4-dimethoxyphenyl)methyl]-N-[[5-(5-ethylsulfonyl-2-methoxy-phenyl)-1H-pyrrol-2-yl]methyl]ethanamine

> <PUBCHEM_IUPAC_CAS_NAME>
N-[(3,4-dimethoxyphenyl)methyl]-N-[[5-(5-ethylsulfonyl-2-methoxyphenyl)-1H-pyrrol-2-yl]methyl]ethanamine

> <PUBCHEM_IUPAC_NAME_MARKUP>
<I>N</I>-[(3,4-dimethoxyphenyl)methyl]-<I>N</I>-[[5-(5-ethylsulfonyl-2-methoxyphenyl)-1<I>H</I>-pyrrol-2-yl]methyl]ethanamine

> <PUBCHEM_IUPAC_NAME>
N-[(3,4-dimethoxyphenyl)methyl]-N-[[5-(5-ethylsulfonyl-2-methoxyphenyl)-1H-pyrrol-2-yl]methyl]ethanamine

> <PUBCHEM_IUPAC_SYSTEMATIC_NAME>
N-[(3,4-dimethoxyphenyl)methyl]-N-[[5-(5-ethylsulfonyl-2-methoxy-phenyl)-1H-pyrrol-2-yl]methyl]ethanamine

> <PUBCHEM_IUPAC_TRADITIONAL_NAME>
[5-(5-esyl-2-methoxy-phenyl)-1H-pyrrol-2-yl]methyl-ethyl-veratryl-amine

> <PUBCHEM_IUPAC_INCHI>
InChI=1S/C25H32N2O5S/c1-6-27(16-18-8-12-24(31-4)25(14-18)32-5)17-19-9-11-22(26-19)21-15-20(33(28,29)7-2)10-13-23(21)30-3/h8-15,26H,6-7,16-17H2,1-5H3

> <PUBCHEM_IUPAC_INCHIKEY>
MBXCICNJZAYLEN-UHFFFAOYSA-N

> <PUBCHEM_XLOGP3_AA>
3.6

> <PUBCHEM_EXACT_MASS>
472.20319330

> <PUBCHEM_MOLECULAR_FORMULA>
C25H32N2O5S

> <PUBCHEM_MOLECULAR_WEIGHT>
472.6

> <PUBCHEM_OPENEYE_CAN_SMILES>
CCN(CC1=CC(=C(C=C1)OC)OC)CC2=CC=C(N2)C3=C(C=CC(=C3)S(=O)(=O)CC)OC

> <PUBCHEM_OPENEYE_ISO_SMILES>
CCN(CC1=CC(=C(C=C1)OC)OC)CC2=CC=C(N2)C3=C(C=CC(=C3)S(=O)(=O)CC)OC

> <PUBCHEM_CACTVS_TPSA>
89.2

> <PUBCHEM_MONOISOTOPIC_WEIGHT>
472.20319330

> <PUBCHEM_TOTAL_CHARGE>
0

> <PUBCHEM_HEAVY_ATOM_COUNT>
33

> <PUBCHEM_ATOM_DEF_STEREO_COUNT>
0

> <PUBCHEM_ATOM_UDEF_STEREO_COUNT>
0

> <PUBCHEM_BOND_DEF_STEREO_COUNT>
0

> <PUBCHEM_BOND_UDEF_STEREO_COUNT>
0

> <PUBCHEM_ISOTOPIC_ATOM_COUNT>
0

> <PUBCHEM_COMPONENT_COUNT>
1

> <PUBCHEM_CACTVS_TAUTO_COUNT>
-1

> <PUBCHEM_COORDINATE_TYPE>
1
5
255

> <PUBCHEM_BONDANNOTATIONS>
10  15  8
13  17  8
14  19  8
14  20  8
15  17  8
16  24  8
16  26  8
18  19  8
18  22  8
20  25  8
22  25  8
24  27  8
26  28  8
27  29  8
28  29  8
8  10  8
8  13  8

$$$$
