137460109
  -OEChem-09292322022D

 74 79  0     1  0  0  0  0  0999 V2000
   15.0010   -2.8023    0.0000 O   0  0  0  0  0  0  0  0  0  0  0  0
   12.6134    1.1501    0.0000 N   0  0  3  0  0  0  0  0  0  0  0  0
    9.9867    1.4673    0.0000 N   0  0  0  0  0  0  0  0  0  0  0  0
    8.0321    1.0439    0.0000 N   0  0  0  0  0  0  0  0  0  0  0  0
    4.5274    1.9565    0.0000 N   0  0  0  0  0  0  0  0  0  0  0  0
   13.2854    0.4095    0.0000 C   0  0  1  0  0  0  0  0  0  0  0  0
   12.9800   -0.5427    0.0000 C   0  0  0  0  0  0  0  0  0  0  0  0
   14.2627    0.6212    0.0000 C   0  0  0  0  0  0  0  0  0  0  0  0
   11.6361    0.9384    0.0000 C   0  0  0  0  0  0  0  0  0  0  0  0
   13.6520   -1.2833    0.0000 C   0  0  0  0  0  0  0  0  0  0  0  0
   10.9641    1.6790    0.0000 C   0  0  0  0  0  0  0  0  0  0  0  0
   14.9347   -0.1193    0.0000 C   0  0  0  0  0  0  0  0  0  0  0  0
   12.9188    2.1023    0.0000 C   0  0  0  0  0  0  0  0  0  0  0  0
   14.6294   -1.0716    0.0000 C   0  0  0  0  0  0  0  0  0  0  0  0
    9.3148    2.2078    0.0000 C   0  0  0  0  0  0  0  0  0  0  0  0
    9.6814    0.5151    0.0000 C   0  0  0  0  0  0  0  0  0  0  0  0
    8.3374    1.9962    0.0000 C   0  0  0  0  0  0  0  0  0  0  0  0
    8.7040    0.3034    0.0000 C   0  0  0  0  0  0  0  0  0  0  0  0
   13.8961    2.3140    0.0000 C   0  0  0  0  0  0  0  0  0  0  0  0
   15.9492    0.1168    0.0000 C   0  0  0  0  0  0  0  0  0  0  0  0
   15.3174   -1.8537    0.0000 C   0  0  0  0  0  0  0  0  0  0  0  0
    7.0547    0.8323    0.0000 C   0  0  0  0  0  0  0  0  0  0  0  0
   16.6551   -0.6492    0.0000 C   0  0  0  0  0  0  0  0  0  0  0  0
   16.3371   -1.6410    0.0000 C   0  0  0  0  0  0  0  0  0  0  0  0
   14.2014    3.2663    0.0000 C   0  0  0  0  0  0  0  0  0  0  0  0
    6.3518    1.6009    0.0000 C   0  0  0  0  0  0  0  0  0  0  0  0
    6.7328   -0.1584    0.0000 C   0  0  0  0  0  0  0  0  0  0  0  0
    5.3364    1.3687    0.0000 C   0  0  0  0  0  0  0  0  0  0  0  0
    5.0274    0.4176    0.0000 C   0  0  0  0  0  0  0  0  0  0  0  0
    5.7123   -0.3671    0.0000 C   0  0  0  0  0  0  0  0  0  0  0  0
    4.0274    0.4176    0.0000 C   0  0  0  0  0  0  0  0  0  0  0  0
    3.7183    1.3687    0.0000 C   0  0  0  0  0  0  0  0  0  0  0  0
    3.3424   -0.3671    0.0000 C   0  0  0  0  0  0  0  0  0  0  0  0
    2.7029    1.6009    0.0000 C   0  0  0  0  0  0  0  0  0  0  0  0
    2.3219   -0.1584    0.0000 C   0  0  0  0  0  0  0  0  0  0  0  0
    2.0000    0.8323    0.0000 C   0  0  0  0  0  0  0  0  0  0  0  0
   12.6794    0.2783    0.0000 H   0  0  0  0  0  0  0  0  0  0  0  0
   12.4315   -0.2537    0.0000 H   0  0  0  0  0  0  0  0  0  0  0  0
   12.6002   -1.0327    0.0000 H   0  0  0  0  0  0  0  0  0  0  0  0
   14.7873    0.9518    0.0000 H   0  0  0  0  0  0  0  0  0  0  0  0
   14.0283    1.1952    0.0000 H   0  0  0  0  0  0  0  0  0  0  0  0
   11.1115    0.6078    0.0000 H   0  0  0  0  0  0  0  0  0  0  0  0
   11.8705    0.3645    0.0000 H   0  0  0  0  0  0  0  0  0  0  0  0
   13.1275   -1.6138    0.0000 H   0  0  0  0  0  0  0  0  0  0  0  0
   13.8865   -1.8572    0.0000 H   0  0  0  0  0  0  0  0  0  0  0  0
   11.4886    2.0096    0.0000 H   0  0  0  0  0  0  0  0  0  0  0  0
   10.7296    2.2529    0.0000 H   0  0  0  0  0  0  0  0  0  0  0  0
   12.8947    2.7219    0.0000 H   0  0  0  0  0  0  0  0  0  0  0  0
   12.3045    2.1863    0.0000 H   0  0  0  0  0  0  0  0  0  0  0  0
    9.8393    2.5384    0.0000 H   0  0  0  0  0  0  0  0  0  0  0  0
    9.0803    2.7818    0.0000 H   0  0  0  0  0  0  0  0  0  0  0  0
    9.7054   -0.1045    0.0000 H   0  0  0  0  0  0  0  0  0  0  0  0
   10.2957    0.4311    0.0000 H   0  0  0  0  0  0  0  0  0  0  0  0
    8.3134    2.6157    0.0000 H   0  0  0  0  0  0  0  0  0  0  0  0
    7.7231    2.0801    0.0000 H   0  0  0  0  0  0  0  0  0  0  0  0
    8.1795   -0.0272    0.0000 H   0  0  0  0  0  0  0  0  0  0  0  0
    8.9385   -0.2706    0.0000 H   0  0  0  0  0  0  0  0  0  0  0  0
   13.9201    1.6945    0.0000 H   0  0  0  0  0  0  0  0  0  0  0  0
   14.5104    2.2301    0.0000 H   0  0  0  0  0  0  0  0  0  0  0  0
   16.1317    0.7094    0.0000 H   0  0  0  0  0  0  0  0  0  0  0  0
   17.2606   -0.5156    0.0000 H   0  0  0  0  0  0  0  0  0  0  0  0
   16.7519   -2.1018    0.0000 H   0  0  0  0  0  0  0  0  0  0  0  0
   14.7918    3.0769    0.0000 H   0  0  0  0  0  0  0  0  0  0  0  0
   14.3908    3.8566    0.0000 H   0  0  0  0  0  0  0  0  0  0  0  0
   13.6111    3.4556    0.0000 H   0  0  0  0  0  0  0  0  0  0  0  0
    6.5365    2.1928    0.0000 H   0  0  0  0  0  0  0  0  0  0  0  0
    7.1459   -0.6207    0.0000 H   0  0  0  0  0  0  0  0  0  0  0  0
    5.5139   -0.9545    0.0000 H   0  0  0  0  0  0  0  0  0  0  0  0
   15.4123   -3.2663    0.0000 H   0  0  0  0  0  0  0  0  0  0  0  0
    4.5274    2.5765    0.0000 H   0  0  0  0  0  0  0  0  0  0  0  0
    3.5408   -0.9545    0.0000 H   0  0  0  0  0  0  0  0  0  0  0  0
    2.5182    2.1928    0.0000 H   0  0  0  0  0  0  0  0  0  0  0  0
    1.9088   -0.6207    0.0000 H   0  0  0  0  0  0  0  0  0  0  0  0
    1.3940    0.9635    0.0000 H   0  0  0  0  0  0  0  0  0  0  0  0
  1 21  1  0  0  0  0
  1 69  1  0  0  0  0
  6  2  1  6  0  0  0
  2  9  1  0  0  0  0
  2 13  1  0  0  0  0
  3 11  1  0  0  0  0
  3 15  1  0  0  0  0
  3 16  1  0  0  0  0
  4 17  1  0  0  0  0
  4 18  1  0  0  0  0
  4 22  1  0  0  0  0
  5 28  1  0  0  0  0
  5 32  1  0  0  0  0
  5 70  1  0  0  0  0
  6  7  1  0  0  0  0
  6  8  1  0  0  0  0
  6 37  1  0  0  0  0
  7 10  1  0  0  0  0
  7 38  1  0  0  0  0
  7 39  1  0  0  0  0
  8 12  1  0  0  0  0
  8 40  1  0  0  0  0
  8 41  1  0  0  0  0
  9 11  1  0  0  0  0
  9 42  1  0  0  0  0
  9 43  1  0  0  0  0
 10 14  1  0  0  0  0
 10 44  1  0  0  0  0
 10 45  1  0  0  0  0
 11 46  1  0  0  0  0
 11 47  1  0  0  0  0
 12 14  2  0  0  0  0
 12 20  1  0  0  0  0
 13 19  1  0  0  0  0
 13 48  1  0  0  0  0
 13 49  1  0  0  0  0
 14 21  1  0  0  0  0
 15 17  1  0  0  0  0
 15 50  1  0  0  0  0
 15 51  1  0  0  0  0
 16 18  1  0  0  0  0
 16 52  1  0  0  0  0
 16 53  1  0  0  0  0
 17 54  1  0  0  0  0
 17 55  1  0  0  0  0
 18 56  1  0  0  0  0
 18 57  1  0  0  0  0
 19 25  1  0  0  0  0
 19 58  1  0  0  0  0
 19 59  1  0  0  0  0
 20 23  2  0  0  0  0
 20 60  1  0  0  0  0
 21 24  2  0  0  0  0
 22 26  2  0  0  0  0
 22 27  1  0  0  0  0
 23 24  1  0  0  0  0
 23 61  1  0  0  0  0
 24 62  1  0  0  0  0
 25 63  1  0  0  0  0
 25 64  1  0  0  0  0
 25 65  1  0  0  0  0
 26 28  1  0  0  0  0
 26 66  1  0  0  0  0
 27 30  2  0  0  0  0
 27 67  1  0  0  0  0
 28 29  2  0  0  0  0
 29 30  1  0  0  0  0
 29 31  1  0  0  0  0
 30 68  1  0  0  0  0
 31 32  1  0  0  0  0
 31 33  2  0  0  0  0
 32 34  2  0  0  0  0
 33 35  1  0  0  0  0
 33 71  1  0  0  0  0
 34 36  1  0  0  0  0
 34 72  1  0  0  0  0
 35 36  2  0  0  0  0
 35 73  1  0  0  0  0
 36 74  1  0  0  0  0
M  END
> <PUBCHEM_COMPOUND_CID>
137460109

> <PUBCHEM_COMPOUND_CANONICALIZED>
1

> <PUBCHEM_CACTVS_COMPLEXITY>
696

> <PUBCHEM_CACTVS_HBOND_ACCEPTOR>
4

> <PUBCHEM_CACTVS_HBOND_DONOR>
2

> <PUBCHEM_CACTVS_ROTATABLE_BOND>
7

> <PUBCHEM_CACTVS_SUBSKEYS>
AAADcfB7oAAAAAAAAAAAAAAAAAAAAWAAAAA8YMGCAAAAAFjB/AAAHgAQCAAADCzBngQyxvPJkgCgAyRiRACCgCAhIiAImSA+bJgIZuLC0dOUdAhk0BHI2AeQ0PMOiAABAAQaAAAQAAKACDQAAAAAAAAAAA==

> <PUBCHEM_IUPAC_OPENEYE_NAME>
(2S)-2-[2-[4-(9H-carbazol-2-yl)piperazin-1-yl]ethyl-propyl-amino]tetralin-5-ol

> <PUBCHEM_IUPAC_CAS_NAME>
(6S)-6-[2-[4-(9H-carbazol-2-yl)-1-piperazinyl]ethyl-propylamino]-5,6,7,8-tetrahydronaphthalen-1-ol

> <PUBCHEM_IUPAC_NAME_MARKUP>
(6<I>S</I>)-6-[2-[4-(9<I>H</I>-carbazol-2-yl)piperazin-1-yl]ethyl-propylamino]-5,6,7,8-tetrahydronaphthalen-1-ol

> <PUBCHEM_IUPAC_NAME>
(6S)-6-[2-[4-(9H-carbazol-2-yl)piperazin-1-yl]ethyl-propylamino]-5,6,7,8-tetrahydronaphthalen-1-ol

> <PUBCHEM_IUPAC_SYSTEMATIC_NAME>
(6S)-6-[2-[4-(9H-carbazol-2-yl)piperazin-1-yl]ethyl-propyl-amino]-5,6,7,8-tetrahydronaphthalen-1-ol

> <PUBCHEM_IUPAC_TRADITIONAL_NAME>
(2S)-2-[2-[4-(9H-carbazol-2-yl)piperazino]ethyl-propyl-amino]tetralin-5-ol

> <PUBCHEM_IUPAC_INCHI>
InChI=1S/C31H38N4O/c1-2-14-34(24-10-12-26-23(21-24)6-5-9-31(26)36)18-15-33-16-19-35(20-17-33)25-11-13-28-27-7-3-4-8-29(27)32-30(28)22-25/h3-9,11,13,22,24,32,36H,2,10,12,14-21H2,1H3/t24-/m0/s1

> <PUBCHEM_IUPAC_INCHIKEY>
KLZWBFTXUIUAEI-DEOSSOPVSA-N

> <PUBCHEM_XLOGP3_AA>
6.3

> <PUBCHEM_EXACT_MASS>
482.30456185

> <PUBCHEM_MOLECULAR_FORMULA>
C31H38N4O

> <PUBCHEM_MOLECULAR_WEIGHT>
482.7

> <PUBCHEM_OPENEYE_CAN_SMILES>
CCCN(CCN1CCN(CC1)C2=CC3=C(C=C2)C4=CC=CC=C4N3)C5CCC6=C(C5)C=CC=C6O

> <PUBCHEM_OPENEYE_ISO_SMILES>
CCCN(CCN1CCN(CC1)C2=CC3=C(C=C2)C4=CC=CC=C4N3)[C@H]5CCC6=C(C5)C=CC=C6O

> <PUBCHEM_CACTVS_TPSA>
45.7

> <PUBCHEM_MONOISOTOPIC_WEIGHT>
482.30456185

> <PUBCHEM_TOTAL_CHARGE>
0

> <PUBCHEM_HEAVY_ATOM_COUNT>
36

> <PUBCHEM_ATOM_DEF_STEREO_COUNT>
1

> <PUBCHEM_ATOM_UDEF_STEREO_COUNT>
0

> <PUBCHEM_BOND_DEF_STEREO_COUNT>
0

> <PUBCHEM_BOND_UDEF_STEREO_COUNT>
0

> <PUBCHEM_ISOTOPIC_ATOM_COUNT>
0

> <PUBCHEM_COMPONENT_COUNT>
1

> <PUBCHEM_CACTVS_TAUTO_COUNT>
-1

> <PUBCHEM_COORDINATE_TYPE>
1
5
255

> <PUBCHEM_BONDANNOTATIONS>
12  14  8
12  20  8
14  21  8
6  2  6
20  23  8
21  24  8
22  26  8
22  27  8
23  24  8
26  28  8
27  30  8
28  29  8
29  30  8
29  31  8
31  32  8
31  33  8
32  34  8
33  35  8
34  36  8
35  36  8
5  28  8
5  32  8

$$$$
