11452896
  -OEChem-09292322342D

 52 55  0     0  0  0  0  0  0999 V2000
   14.1901    1.5530    0.0000 S   0  0  0  0  0  0  0  0  0  0  0  0
    3.0000   -2.9470    0.0000 F   0  0  0  0  0  0  0  0  0  0  0  0
    2.0000   -1.9470    0.0000 F   0  0  0  0  0  0  0  0  0  0  0  0
    4.0000   -1.9470    0.0000 F   0  0  0  0  0  0  0  0  0  0  0  0
    6.4641    2.0530    0.0000 N   0  0  0  0  0  0  0  0  0  0  0  0
    4.7320    1.0530    0.0000 N   0  0  0  0  0  0  0  0  0  0  0  0
   12.6065    2.3577    0.0000 N   0  0  0  0  0  0  0  0  0  0  0  0
   12.6065    0.7482    0.0000 N   0  0  0  0  0  0  0  0  0  0  0  0
    5.5981    2.5530    0.0000 C   0  0  0  0  0  0  0  0  0  0  0  0
    6.4641    1.0530    0.0000 C   0  0  0  0  0  0  0  0  0  0  0  0
    4.7320    2.0530    0.0000 C   0  0  0  0  0  0  0  0  0  0  0  0
    5.5981    0.5530    0.0000 C   0  0  0  0  0  0  0  0  0  0  0  0
    7.3301    2.5530    0.0000 C   0  0  0  0  0  0  0  0  0  0  0  0
    8.1962    2.0530    0.0000 C   0  0  0  0  0  0  0  0  0  0  0  0
    3.8660    0.5530    0.0000 C   0  0  0  0  0  0  0  0  0  0  0  0
    9.0622    2.5530    0.0000 C   0  0  0  0  0  0  0  0  0  0  0  0
    9.9282    2.0530    0.0000 C   0  0  0  0  0  0  0  0  0  0  0  0
    3.8660   -0.4470    0.0000 C   0  0  0  0  0  0  0  0  0  0  0  0
    3.0000    1.0530    0.0000 C   0  0  0  0  0  0  0  0  0  0  0  0
   10.7942    2.5530    0.0000 C   0  0  0  0  0  0  0  0  0  0  0  0
    3.0000   -0.9470    0.0000 C   0  0  0  0  0  0  0  0  0  0  0  0
    9.9282    1.0530    0.0000 C   0  0  0  0  0  0  0  0  0  0  0  0
   11.6603    2.0530    0.0000 C   0  0  0  0  0  0  0  0  0  0  0  0
   11.6603    1.0530    0.0000 C   0  0  0  0  0  0  0  0  0  0  0  0
    2.1340    0.5530    0.0000 C   0  0  0  0  0  0  0  0  0  0  0  0
   10.7942    0.5530    0.0000 C   0  0  0  0  0  0  0  0  0  0  0  0
    2.1340   -0.4470    0.0000 C   0  0  0  0  0  0  0  0  0  0  0  0
    3.0000   -1.9470    0.0000 C   0  0  0  0  0  0  0  0  0  0  0  0
   13.1901    1.5530    0.0000 C   0  0  0  0  0  0  0  0  0  0  0  0
    5.9966    3.0279    0.0000 H   0  0  0  0  0  0  0  0  0  0  0  0
    5.1996    3.0279    0.0000 H   0  0  0  0  0  0  0  0  0  0  0  0
    6.6762    0.4704    0.0000 H   0  0  0  0  0  0  0  0  0  0  0  0
    7.0747    1.1606    0.0000 H   0  0  0  0  0  0  0  0  0  0  0  0
    4.5200    2.6356    0.0000 H   0  0  0  0  0  0  0  0  0  0  0  0
    4.1215    1.9453    0.0000 H   0  0  0  0  0  0  0  0  0  0  0  0
    5.1996    0.0780    0.0000 H   0  0  0  0  0  0  0  0  0  0  0  0
    5.9966    0.0780    0.0000 H   0  0  0  0  0  0  0  0  0  0  0  0
    7.7287    3.0279    0.0000 H   0  0  0  0  0  0  0  0  0  0  0  0
    6.9316    3.0279    0.0000 H   0  0  0  0  0  0  0  0  0  0  0  0
    7.7976    1.5780    0.0000 H   0  0  0  0  0  0  0  0  0  0  0  0
    8.5947    1.5780    0.0000 H   0  0  0  0  0  0  0  0  0  0  0  0
    9.4607    3.0279    0.0000 H   0  0  0  0  0  0  0  0  0  0  0  0
    8.6636    3.0279    0.0000 H   0  0  0  0  0  0  0  0  0  0  0  0
    4.4030   -0.7570    0.0000 H   0  0  0  0  0  0  0  0  0  0  0  0
    3.0000    1.6730    0.0000 H   0  0  0  0  0  0  0  0  0  0  0  0
   10.7942    3.1730    0.0000 H   0  0  0  0  0  0  0  0  0  0  0  0
    9.3913    0.7430    0.0000 H   0  0  0  0  0  0  0  0  0  0  0  0
    1.5970    0.8630    0.0000 H   0  0  0  0  0  0  0  0  0  0  0  0
   10.7942   -0.0670    0.0000 H   0  0  0  0  0  0  0  0  0  0  0  0
    1.5970   -0.7570    0.0000 H   0  0  0  0  0  0  0  0  0  0  0  0
   12.7991    2.9470    0.0000 H   0  0  0  0  0  0  0  0  0  0  0  0
   12.7991    0.1589    0.0000 H   0  0  0  0  0  0  0  0  0  0  0  0
  1 29  2  0  0  0  0
  2 28  1  0  0  0  0
  3 28  1  0  0  0  0
  4 28  1  0  0  0  0
  5  9  1  0  0  0  0
  5 10  1  0  0  0  0
  5 13  1  0  0  0  0
  6 11  1  0  0  0  0
  6 12  1  0  0  0  0
  6 15  1  0  0  0  0
  7 23  1  0  0  0  0
  7 29  1  0  0  0  0
  7 51  1  0  0  0  0
  8 24  1  0  0  0  0
  8 29  1  0  0  0  0
  8 52  1  0  0  0  0
  9 11  1  0  0  0  0
  9 30  1  0  0  0  0
  9 31  1  0  0  0  0
 10 12  1  0  0  0  0
 10 32  1  0  0  0  0
 10 33  1  0  0  0  0
 11 34  1  0  0  0  0
 11 35  1  0  0  0  0
 12 36  1  0  0  0  0
 12 37  1  0  0  0  0
 13 14  1  0  0  0  0
 13 38  1  0  0  0  0
 13 39  1  0  0  0  0
 14 16  1  0  0  0  0
 14 40  1  0  0  0  0
 14 41  1  0  0  0  0
 15 18  1  0  0  0  0
 15 19  2  0  0  0  0
 16 17  1  0  0  0  0
 16 42  1  0  0  0  0
 16 43  1  0  0  0  0
 17 20  2  0  0  0  0
 17 22  1  0  0  0  0
 18 21  2  0  0  0  0
 18 44  1  0  0  0  0
 19 25  1  0  0  0  0
 19 45  1  0  0  0  0
 20 23  1  0  0  0  0
 20 46  1  0  0  0  0
 21 27  1  0  0  0  0
 21 28  1  0  0  0  0
 22 26  2  0  0  0  0
 22 47  1  0  0  0  0
 23 24  2  0  0  0  0
 24 26  1  0  0  0  0
 25 27  2  0  0  0  0
 25 48  1  0  0  0  0
 26 49  1  0  0  0  0
 27 50  1  0  0  0  0
M  END
> <PUBCHEM_COMPOUND_CID>
11452896

> <PUBCHEM_COMPOUND_CANONICALIZED>
1

> <PUBCHEM_CACTVS_COMPLEXITY>
565

> <PUBCHEM_CACTVS_HBOND_ACCEPTOR>
6

> <PUBCHEM_CACTVS_HBOND_DONOR>
2

> <PUBCHEM_CACTVS_ROTATABLE_BOND>
5

> <PUBCHEM_CACTVS_SUBSKEYS>
AAADceB7gYBAAAAAAAAAAAAAAAAAAWAAAAA8YIAAAAAAAFgBQAAAHQQQAAAADAjBGBQxwIPAAACEAiRCQACCAAAhAgkIiAAIdIiIYCLAkZGUIAhokALIyCcQgIAOCAAAQAAAACAQAACAAAAAQAAAAAAAAA==

> <PUBCHEM_IUPAC_OPENEYE_NAME>
5-[3-[4-[3-(trifluoromethyl)phenyl]piperazin-1-yl]propyl]-1,3-dihydrobenzimidazole-2-thione

> <PUBCHEM_IUPAC_CAS_NAME>
5-[3-[4-[3-(trifluoromethyl)phenyl]-1-piperazinyl]propyl]-1,3-dihydrobenzimidazole-2-thione

> <PUBCHEM_IUPAC_NAME_MARKUP>
5-[3-[4-[3-(trifluoromethyl)phenyl]piperazin-1-yl]propyl]-1,3-dihydrobenzimidazole-2-thione

> <PUBCHEM_IUPAC_NAME>
5-[3-[4-[3-(trifluoromethyl)phenyl]piperazin-1-yl]propyl]-1,3-dihydrobenzimidazole-2-thione

> <PUBCHEM_IUPAC_SYSTEMATIC_NAME>
5-[3-[4-[3-(trifluoromethyl)phenyl]piperazin-1-yl]propyl]-1,3-dihydrobenzimidazole-2-thione

> <PUBCHEM_IUPAC_TRADITIONAL_NAME>
5-[3-[4-[3-(trifluoromethyl)phenyl]piperazino]propyl]-1,3-dihydrobenzimidazole-2-thione

> <PUBCHEM_IUPAC_INCHI>
InChI=1S/C21H23F3N4S/c22-21(23,24)16-4-1-5-17(14-16)28-11-9-27(10-12-28)8-2-3-15-6-7-18-19(13-15)26-20(29)25-18/h1,4-7,13-14H,2-3,8-12H2,(H2,25,26,29)

> <PUBCHEM_IUPAC_INCHIKEY>
AEEFPFZMNZVYPW-UHFFFAOYSA-N

> <PUBCHEM_XLOGP3_AA>
4.3

> <PUBCHEM_EXACT_MASS>
420.15955241

> <PUBCHEM_MOLECULAR_FORMULA>
C21H23F3N4S

> <PUBCHEM_MOLECULAR_WEIGHT>
420.5

> <PUBCHEM_OPENEYE_CAN_SMILES>
C1CN(CCN1CCCC2=CC3=C(C=C2)NC(=S)N3)C4=CC=CC(=C4)C(F)(F)F

> <PUBCHEM_OPENEYE_ISO_SMILES>
C1CN(CCN1CCCC2=CC3=C(C=C2)NC(=S)N3)C4=CC=CC(=C4)C(F)(F)F

> <PUBCHEM_CACTVS_TPSA>
62.6

> <PUBCHEM_MONOISOTOPIC_WEIGHT>
420.15955241

> <PUBCHEM_TOTAL_CHARGE>
0

> <PUBCHEM_HEAVY_ATOM_COUNT>
29

> <PUBCHEM_ATOM_DEF_STEREO_COUNT>
0

> <PUBCHEM_ATOM_UDEF_STEREO_COUNT>
0

> <PUBCHEM_BOND_DEF_STEREO_COUNT>
0

> <PUBCHEM_BOND_UDEF_STEREO_COUNT>
0

> <PUBCHEM_ISOTOPIC_ATOM_COUNT>
0

> <PUBCHEM_COMPONENT_COUNT>
1

> <PUBCHEM_CACTVS_TAUTO_COUNT>
-1

> <PUBCHEM_COORDINATE_TYPE>
1
5
255

> <PUBCHEM_BONDANNOTATIONS>
15  18  8
15  19  8
17  20  8
17  22  8
18  21  8
19  25  8
20  23  8
21  27  8
22  26  8
23  24  8
24  26  8
25  27  8
7  23  8
7  29  8
8  24  8
8  29  8

$$$$
