9862256
  -OEChem-09292322112D

 43 45  0     0  0  0  0  0  0999 V2000
    5.8550   -1.4518    0.0000 S   0  0  0  0  0  0  0  0  0  0  0  0
    6.8055   -1.1412    0.0000 O   0  0  0  0  0  0  0  0  0  0  0  0
    4.9044   -1.7625    0.0000 O   0  0  0  0  0  0  0  0  0  0  0  0
    5.5443   -0.5013    0.0000 N   0  0  0  0  0  0  0  0  0  0  0  0
    2.8660    3.8034    0.0000 N   0  0  0  0  0  0  0  0  0  0  0  0
    4.5981    0.8034    0.0000 C   0  0  0  0  0  0  0  0  0  0  0  0
    4.5981   -0.1966    0.0000 C   0  0  0  0  0  0  0  0  0  0  0  0
    3.7320    1.3034    0.0000 C   0  0  0  0  0  0  0  0  0  0  0  0
    3.7320    2.3034    0.0000 C   0  0  0  0  0  0  0  0  0  0  0  0
    5.5443    1.1081    0.0000 C   0  0  0  0  0  0  0  0  0  0  0  0
    2.8660    2.8034    0.0000 C   0  0  0  0  0  0  0  0  0  0  0  0
    6.1279    0.3034    0.0000 C   0  0  0  0  0  0  0  0  0  0  0  0
    3.7320   -0.6966    0.0000 C   0  0  0  0  0  0  0  0  0  0  0  0
    2.8660    0.8034    0.0000 C   0  0  0  0  0  0  0  0  0  0  0  0
    2.8660   -0.1966    0.0000 C   0  0  0  0  0  0  0  0  0  0  0  0
    6.1656   -2.4024    0.0000 C   0  0  0  0  0  0  0  0  0  0  0  0
    2.0000    4.3034    0.0000 C   0  0  0  0  0  0  0  0  0  0  0  0
    3.7320    4.3034    0.0000 C   0  0  0  0  0  0  0  0  0  0  0  0
    5.4978   -3.1467    0.0000 C   0  0  0  0  0  0  0  0  0  0  0  0
    7.1441   -2.6086    0.0000 C   0  0  0  0  0  0  0  0  0  0  0  0
    5.8084   -4.0972    0.0000 C   0  0  0  0  0  0  0  0  0  0  0  0
    7.4548   -3.5591    0.0000 C   0  0  0  0  0  0  0  0  0  0  0  0
    6.7870   -4.3034    0.0000 C   0  0  0  0  0  0  0  0  0  0  0  0
    4.3426    2.1957    0.0000 H   0  0  0  0  0  0  0  0  0  0  0  0
    3.9441    2.8860    0.0000 H   0  0  0  0  0  0  0  0  0  0  0  0
    5.7369    1.6975    0.0000 H   0  0  0  0  0  0  0  0  0  0  0  0
    2.2554    2.9111    0.0000 H   0  0  0  0  0  0  0  0  0  0  0  0
    2.6540    2.2208    0.0000 H   0  0  0  0  0  0  0  0  0  0  0  0
    6.7479    0.3034    0.0000 H   0  0  0  0  0  0  0  0  0  0  0  0
    3.7320   -1.3166    0.0000 H   0  0  0  0  0  0  0  0  0  0  0  0
    2.3291    1.1134    0.0000 H   0  0  0  0  0  0  0  0  0  0  0  0
    2.3291   -0.5066    0.0000 H   0  0  0  0  0  0  0  0  0  0  0  0
    2.3100    4.8403    0.0000 H   0  0  0  0  0  0  0  0  0  0  0  0
    1.4631    4.6134    0.0000 H   0  0  0  0  0  0  0  0  0  0  0  0
    1.6900    3.7665    0.0000 H   0  0  0  0  0  0  0  0  0  0  0  0
    4.0420    3.7665    0.0000 H   0  0  0  0  0  0  0  0  0  0  0  0
    4.2690    4.6134    0.0000 H   0  0  0  0  0  0  0  0  0  0  0  0
    3.4220    4.8403    0.0000 H   0  0  0  0  0  0  0  0  0  0  0  0
    4.8911   -3.0188    0.0000 H   0  0  0  0  0  0  0  0  0  0  0  0
    7.5582   -2.1471    0.0000 H   0  0  0  0  0  0  0  0  0  0  0  0
    5.3944   -4.5586    0.0000 H   0  0  0  0  0  0  0  0  0  0  0  0
    8.0615   -3.6870    0.0000 H   0  0  0  0  0  0  0  0  0  0  0  0
    6.9796   -4.8927    0.0000 H   0  0  0  0  0  0  0  0  0  0  0  0
  1  2  2  0  0  0  0
  1  3  2  0  0  0  0
  1  4  1  0  0  0  0
  1 16  1  0  0  0  0
  4  7  1  0  0  0  0
  4 12  1  0  0  0  0
  5 11  1  0  0  0  0
  5 17  1  0  0  0  0
  5 18  1  0  0  0  0
  6  7  1  0  0  0  0
  6  8  2  0  0  0  0
  6 10  1  0  0  0  0
  7 13  2  0  0  0  0
  8  9  1  0  0  0  0
  8 14  1  0  0  0  0
  9 11  1  0  0  0  0
  9 24  1  0  0  0  0
  9 25  1  0  0  0  0
 10 12  2  0  0  0  0
 10 26  1  0  0  0  0
 11 27  1  0  0  0  0
 11 28  1  0  0  0  0
 12 29  1  0  0  0  0
 13 15  1  0  0  0  0
 13 30  1  0  0  0  0
 14 15  2  0  0  0  0
 14 31  1  0  0  0  0
 15 32  1  0  0  0  0
 16 19  2  0  0  0  0
 16 20  1  0  0  0  0
 17 33  1  0  0  0  0
 17 34  1  0  0  0  0
 17 35  1  0  0  0  0
 18 36  1  0  0  0  0
 18 37  1  0  0  0  0
 18 38  1  0  0  0  0
 19 21  1  0  0  0  0
 19 39  1  0  0  0  0
 20 22  2  0  0  0  0
 20 40  1  0  0  0  0
 21 23  2  0  0  0  0
 21 41  1  0  0  0  0
 22 23  1  0  0  0  0
 22 42  1  0  0  0  0
 23 43  1  0  0  0  0
M  END
> <PUBCHEM_COMPOUND_CID>
9862256

> <PUBCHEM_COMPOUND_CANONICALIZED>
1

> <PUBCHEM_CACTVS_COMPLEXITY>
480

> <PUBCHEM_CACTVS_HBOND_ACCEPTOR>
3

> <PUBCHEM_CACTVS_HBOND_DONOR>
0

> <PUBCHEM_CACTVS_ROTATABLE_BOND>
5

> <PUBCHEM_CACTVS_SUBSKEYS>
AAADceB7MABAAAAAAAAAAAAAAAAAAWAAAAAwYAAAAAAAAFgB9AAAHAQAQAAADAjBXgQ+wfMIEAKgAzRnRHDCgDAxAiAI2Dg4ZJgIIOLAkZGEIAhggADIyAcQgIAOgAAAQAASAAAAAACAACQAAAAAAAAAAA==

> <PUBCHEM_IUPAC_OPENEYE_NAME>
2-[1-(benzenesulfonyl)indol-4-yl]-N,N-dimethyl-ethanamine

> <PUBCHEM_IUPAC_CAS_NAME>
2-[1-(benzenesulfonyl)-4-indolyl]-N,N-dimethylethanamine

> <PUBCHEM_IUPAC_NAME_MARKUP>
2-[1-(benzenesulfonyl)indol-4-yl]-<I>N</I>,<I>N</I>-dimethylethanamine

> <PUBCHEM_IUPAC_NAME>
2-[1-(benzenesulfonyl)indol-4-yl]-N,N-dimethylethanamine

> <PUBCHEM_IUPAC_SYSTEMATIC_NAME>
N,N-dimethyl-2-[1-(phenylsulfonyl)indol-4-yl]ethanamine

> <PUBCHEM_IUPAC_TRADITIONAL_NAME>
2-(1-besylindol-4-yl)ethyl-dimethyl-amine

> <PUBCHEM_IUPAC_INCHI>
InChI=1S/C18H20N2O2S/c1-19(2)13-11-15-7-6-10-18-17(15)12-14-20(18)23(21,22)16-8-4-3-5-9-16/h3-10,12,14H,11,13H2,1-2H3

> <PUBCHEM_IUPAC_INCHIKEY>
GIHFRARKMBMXPG-UHFFFAOYSA-N

> <PUBCHEM_XLOGP3_AA>
3.5

> <PUBCHEM_EXACT_MASS>
328.12454906

> <PUBCHEM_MOLECULAR_FORMULA>
C18H20N2O2S

> <PUBCHEM_MOLECULAR_WEIGHT>
328.4

> <PUBCHEM_OPENEYE_CAN_SMILES>
CN(C)CCC1=C2C=CN(C2=CC=C1)S(=O)(=O)C3=CC=CC=C3

> <PUBCHEM_OPENEYE_ISO_SMILES>
CN(C)CCC1=C2C=CN(C2=CC=C1)S(=O)(=O)C3=CC=CC=C3

> <PUBCHEM_CACTVS_TPSA>
50.7

> <PUBCHEM_MONOISOTOPIC_WEIGHT>
328.12454906

> <PUBCHEM_TOTAL_CHARGE>
0

> <PUBCHEM_HEAVY_ATOM_COUNT>
23

> <PUBCHEM_ATOM_DEF_STEREO_COUNT>
0

> <PUBCHEM_ATOM_UDEF_STEREO_COUNT>
0

> <PUBCHEM_BOND_DEF_STEREO_COUNT>
0

> <PUBCHEM_BOND_UDEF_STEREO_COUNT>
0

> <PUBCHEM_ISOTOPIC_ATOM_COUNT>
0

> <PUBCHEM_COMPONENT_COUNT>
1

> <PUBCHEM_CACTVS_TAUTO_COUNT>
-1

> <PUBCHEM_COORDINATE_TYPE>
1
5
255

> <PUBCHEM_BONDANNOTATIONS>
10  12  8
13  15  8
14  15  8
16  19  8
16  20  8
19  21  8
20  22  8
21  23  8
22  23  8
4  12  8
4  7  8
6  10  8
6  7  8
6  8  8
7  13  8
8  14  8

$$$$
