44405414
  -OEChem-09292322492D

 48 51  0     1  0  0  0  0  0999 V2000
    3.6750   -5.1126    0.0000 S   0  0  0  0  0  0  0  0  0  0  0  0
    2.8308    3.5321    0.0000 F   0  0  0  0  0  0  0  0  0  0  0  0
    2.0000   -0.0248    0.0000 O   0  0  0  0  0  0  0  0  0  0  0  0
    4.2320    2.5140    0.0000 N   0  0  3  0  0  0  0  0  0  0  0  0
    3.7320   -0.0248    0.0000 N   0  0  0  0  0  0  0  0  0  0  0  0
    3.7320    0.9752    0.0000 C   0  0  1  0  0  0  0  0  0  0  0  0
    2.9230    1.5630    0.0000 C   0  0  0  0  0  0  0  0  0  0  0  0
    4.5411    1.5630    0.0000 C   0  0  0  0  0  0  0  0  0  0  0  0
    3.2320    2.5140    0.0000 C   0  0  0  0  0  0  0  0  0  0  0  0
    4.8198    3.3230    0.0000 C   0  0  0  0  0  0  0  0  0  0  0  0
    4.4131    4.2366    0.0000 C   0  0  0  0  0  0  0  0  0  0  0  0
    2.8660   -0.5248    0.0000 C   0  0  0  0  0  0  0  0  0  0  0  0
    3.4186    4.3411    0.0000 C   0  0  0  0  0  0  0  0  0  0  0  0
    5.0009    5.0456    0.0000 C   0  0  0  0  0  0  0  0  0  0  0  0
    2.8660   -1.5248    0.0000 C   0  0  0  0  0  0  0  0  0  0  0  0
    3.0118    5.2546    0.0000 C   0  0  0  0  0  0  0  0  0  0  0  0
    4.5942    5.9591    0.0000 C   0  0  0  0  0  0  0  0  0  0  0  0
    2.0000   -2.0248    0.0000 C   0  0  0  0  0  0  0  0  0  0  0  0
    3.7320   -2.0248    0.0000 C   0  0  0  0  0  0  0  0  0  0  0  0
    3.5996    6.0637    0.0000 C   0  0  0  0  0  0  0  0  0  0  0  0
    2.0000   -3.0248    0.0000 C   0  0  0  0  0  0  0  0  0  0  0  0
    3.7320   -3.0248    0.0000 C   0  0  0  0  0  0  0  0  0  0  0  0
    2.8660   -3.5248    0.0000 C   0  0  0  0  0  0  0  0  0  0  0  0
    2.8660   -4.5248    0.0000 C   0  0  0  0  0  0  0  0  0  0  0  0
    2.0570   -5.1126    0.0000 C   0  0  0  0  0  0  0  0  0  0  0  0
    2.3660   -6.0637    0.0000 C   0  0  0  0  0  0  0  0  0  0  0  0
    3.3660   -6.0637    0.0000 C   0  0  0  0  0  0  0  0  0  0  0  0
    4.2845    0.6937    0.0000 H   0  0  0  0  0  0  0  0  0  0  0  0
    2.3566    1.8151    0.0000 H   0  0  0  0  0  0  0  0  0  0  0  0
    2.6130    1.0260    0.0000 H   0  0  0  0  0  0  0  0  0  0  0  0
    4.8511    1.0260    0.0000 H   0  0  0  0  0  0  0  0  0  0  0  0
    5.1075    1.8151    0.0000 H   0  0  0  0  0  0  0  0  0  0  0  0
    3.2969    3.1306    0.0000 H   0  0  0  0  0  0  0  0  0  0  0  0
    2.6256    2.6429    0.0000 H   0  0  0  0  0  0  0  0  0  0  0  0
    5.2505    2.8770    0.0000 H   0  0  0  0  0  0  0  0  0  0  0  0
    5.3338    3.6697    0.0000 H   0  0  0  0  0  0  0  0  0  0  0  0
    4.2690   -0.3348    0.0000 H   0  0  0  0  0  0  0  0  0  0  0  0
    5.6175    4.9808    0.0000 H   0  0  0  0  0  0  0  0  0  0  0  0
    2.3952    5.3195    0.0000 H   0  0  0  0  0  0  0  0  0  0  0  0
    4.9586    6.4607    0.0000 H   0  0  0  0  0  0  0  0  0  0  0  0
    1.4631   -1.7148    0.0000 H   0  0  0  0  0  0  0  0  0  0  0  0
    4.2690   -1.7148    0.0000 H   0  0  0  0  0  0  0  0  0  0  0  0
    3.3474    6.6301    0.0000 H   0  0  0  0  0  0  0  0  0  0  0  0
    1.4631   -3.3348    0.0000 H   0  0  0  0  0  0  0  0  0  0  0  0
    4.2690   -3.3348    0.0000 H   0  0  0  0  0  0  0  0  0  0  0  0
    1.4674   -4.9210    0.0000 H   0  0  0  0  0  0  0  0  0  0  0  0
    2.0016   -6.5653    0.0000 H   0  0  0  0  0  0  0  0  0  0  0  0
    3.7304   -6.5653    0.0000 H   0  0  0  0  0  0  0  0  0  0  0  0
  1 24  1  0  0  0  0
  1 27  1  0  0  0  0
  2 13  1  0  0  0  0
  3 12  2  0  0  0  0
  4  8  1  0  0  0  0
  4  9  1  0  0  0  0
  4 10  1  0  0  0  0
  6  5  1  1  0  0  0
  5 12  1  0  0  0  0
  5 37  1  0  0  0  0
  6  7  1  0  0  0  0
  6  8  1  0  0  0  0
  6 28  1  0  0  0  0
  7  9  1  0  0  0  0
  7 29  1  0  0  0  0
  7 30  1  0  0  0  0
  8 31  1  0  0  0  0
  8 32  1  0  0  0  0
  9 33  1  0  0  0  0
  9 34  1  0  0  0  0
 10 11  1  0  0  0  0
 10 35  1  0  0  0  0
 10 36  1  0  0  0  0
 11 13  1  0  0  0  0
 11 14  2  0  0  0  0
 12 15  1  0  0  0  0
 13 16  2  0  0  0  0
 14 17  1  0  0  0  0
 14 38  1  0  0  0  0
 15 18  2  0  0  0  0
 15 19  1  0  0  0  0
 16 20  1  0  0  0  0
 16 39  1  0  0  0  0
 17 20  2  0  0  0  0
 17 40  1  0  0  0  0
 18 21  1  0  0  0  0
 18 41  1  0  0  0  0
 19 22  2  0  0  0  0
 19 42  1  0  0  0  0
 20 43  1  0  0  0  0
 21 23  2  0  0  0  0
 21 44  1  0  0  0  0
 22 23  1  0  0  0  0
 22 45  1  0  0  0  0
 23 24  1  0  0  0  0
 24 25  2  0  0  0  0
 25 26  1  0  0  0  0
 25 46  1  0  0  0  0
 26 27  2  0  0  0  0
 26 47  1  0  0  0  0
 27 48  1  0  0  0  0
M  END
> <PUBCHEM_COMPOUND_CID>
44405414

> <PUBCHEM_COMPOUND_CANONICALIZED>
1

> <PUBCHEM_CACTVS_COMPLEXITY>
497

> <PUBCHEM_CACTVS_HBOND_ACCEPTOR>
4

> <PUBCHEM_CACTVS_HBOND_DONOR>
1

> <PUBCHEM_CACTVS_ROTATABLE_BOND>
5

> <PUBCHEM_CACTVS_SUBSKEYS>
AAADceB7IQBAAAAAAAAAAAAAAAAAAWJAAAAwYAAAAAAAAAAB0AAAHwQQAAAADCjF2AywAYPAAAiMAiFSEACDAIAkCBBIiJkIBMgIYDKg1RGUIQhglgCoiYcYiMCOQAAAAAAAAACAAAAAAAAAAAAAAAAAAA==

> <PUBCHEM_IUPAC_OPENEYE_NAME>
N-[(3S)-1-[(2-fluorophenyl)methyl]pyrrolidin-3-yl]-4-(2-thienyl)benzamide

> <PUBCHEM_IUPAC_CAS_NAME>
N-[(3S)-1-[(2-fluorophenyl)methyl]-3-pyrrolidinyl]-4-thiophen-2-ylbenzamide

> <PUBCHEM_IUPAC_NAME_MARKUP>
<I>N</I>-[(3<I>S</I>)-1-[(2-fluorophenyl)methyl]pyrrolidin-3-yl]-4-thiophen-2-ylbenzamide

> <PUBCHEM_IUPAC_NAME>
N-[(3S)-1-[(2-fluorophenyl)methyl]pyrrolidin-3-yl]-4-thiophen-2-ylbenzamide

> <PUBCHEM_IUPAC_SYSTEMATIC_NAME>
N-[(3S)-1-[(2-fluorophenyl)methyl]pyrrolidin-3-yl]-4-thiophen-2-yl-benzamide

> <PUBCHEM_IUPAC_TRADITIONAL_NAME>
N-[(3S)-1-(2-fluorobenzyl)pyrrolidin-3-yl]-4-(2-thienyl)benzamide

> <PUBCHEM_IUPAC_INCHI>
InChI=1S/C22H21FN2OS/c23-20-5-2-1-4-18(20)14-25-12-11-19(15-25)24-22(26)17-9-7-16(8-10-17)21-6-3-13-27-21/h1-10,13,19H,11-12,14-15H2,(H,24,26)/t19-/m0/s1

> <PUBCHEM_IUPAC_INCHIKEY>
YJJVJEUUTBGCGP-IBGZPJMESA-N

> <PUBCHEM_XLOGP3_AA>
4.4

> <PUBCHEM_EXACT_MASS>
380.13586263

> <PUBCHEM_MOLECULAR_FORMULA>
C22H21FN2OS

> <PUBCHEM_MOLECULAR_WEIGHT>
380.5

> <PUBCHEM_OPENEYE_CAN_SMILES>
C1CN(CC1NC(=O)C2=CC=C(C=C2)C3=CC=CS3)CC4=CC=CC=C4F

> <PUBCHEM_OPENEYE_ISO_SMILES>
C1CN(C[C@H]1NC(=O)C2=CC=C(C=C2)C3=CC=CS3)CC4=CC=CC=C4F

> <PUBCHEM_CACTVS_TPSA>
60.6

> <PUBCHEM_MONOISOTOPIC_WEIGHT>
380.13586263

> <PUBCHEM_TOTAL_CHARGE>
0

> <PUBCHEM_HEAVY_ATOM_COUNT>
27

> <PUBCHEM_ATOM_DEF_STEREO_COUNT>
1

> <PUBCHEM_ATOM_UDEF_STEREO_COUNT>
0

> <PUBCHEM_BOND_DEF_STEREO_COUNT>
0

> <PUBCHEM_BOND_UDEF_STEREO_COUNT>
0

> <PUBCHEM_ISOTOPIC_ATOM_COUNT>
0

> <PUBCHEM_COMPONENT_COUNT>
1

> <PUBCHEM_CACTVS_TAUTO_COUNT>
-1

> <PUBCHEM_COORDINATE_TYPE>
1
5
255

> <PUBCHEM_BONDANNOTATIONS>
1  24  8
1  27  8
11  13  8
11  14  8
13  16  8
14  17  8
15  18  8
15  19  8
16  20  8
17  20  8
18  21  8
19  22  8
21  23  8
22  23  8
24  25  8
25  26  8
26  27  8
6  5  5

$$$$
