44438211
  -OEChem-09292321592D

 48 51  0     1  0  0  0  0  0999 V2000
   11.9219    2.2673    0.0000 Cl  0  0  0  0  0  0  0  0  0  0  0  0
    8.4568    2.3360    0.0000 O   0  0  0  0  0  0  0  0  0  0  0  0
    5.9674    0.5014    0.0000 N   0  0  3  0  0  0  0  0  0  0  0  0
    4.6783   -2.2648    0.0000 N   0  0  0  0  0  0  0  0  0  0  0  0
    8.0079    1.4424    0.0000 C   0  0  3  0  0  0  0  0  0  0  0  0
    7.1143    1.8913    0.0000 C   0  0  0  0  0  0  0  0  0  0  0  0
    8.2141    0.4639    0.0000 C   0  0  0  0  0  0  0  0  0  0  0  0
    6.2062    1.4725    0.0000 C   0  0  0  0  0  0  0  0  0  0  0  0
    7.5776   -0.3074    0.0000 C   0  0  0  0  0  0  0  0  0  0  0  0
    6.5778   -0.2907    0.0000 C   0  0  0  0  0  0  0  0  0  0  0  0
    8.9864    1.6487    0.0000 C   0  0  0  0  0  0  0  0  0  0  0  0
    4.9889    0.2952    0.0000 C   0  0  0  0  0  0  0  0  0  0  0  0
    4.6783   -0.6553    0.0000 C   0  0  0  0  0  0  0  0  0  0  0  0
    9.2971    2.5992    0.0000 C   0  0  0  0  0  0  0  0  0  0  0  0
    9.6542    0.9044    0.0000 C   0  0  0  0  0  0  0  0  0  0  0  0
    3.7320   -0.9600    0.0000 C   0  0  0  0  0  0  0  0  0  0  0  0
    5.2619   -1.4600    0.0000 C   0  0  0  0  0  0  0  0  0  0  0  0
    3.7320   -1.9600    0.0000 C   0  0  0  0  0  0  0  0  0  0  0  0
   10.2756    2.8054    0.0000 C   0  0  0  0  0  0  0  0  0  0  0  0
   10.6327    1.1106    0.0000 C   0  0  0  0  0  0  0  0  0  0  0  0
    2.8660   -0.4600    0.0000 C   0  0  0  0  0  0  0  0  0  0  0  0
   10.9434    2.0611    0.0000 C   0  0  0  0  0  0  0  0  0  0  0  0
    2.8660   -2.4600    0.0000 C   0  0  0  0  0  0  0  0  0  0  0  0
    2.0000   -0.9600    0.0000 C   0  0  0  0  0  0  0  0  0  0  0  0
    2.0000   -1.9600    0.0000 C   0  0  0  0  0  0  0  0  0  0  0  0
    7.5089    2.3695    0.0000 H   0  0  0  0  0  0  0  0  0  0  0  0
    6.7359    2.3824    0.0000 H   0  0  0  0  0  0  0  0  0  0  0  0
    8.5925   -0.0272    0.0000 H   0  0  0  0  0  0  0  0  0  0  0  0
    8.7771    0.7236    0.0000 H   0  0  0  0  0  0  0  0  0  0  0  0
    6.0783    2.0792    0.0000 H   0  0  0  0  0  0  0  0  0  0  0  0
    5.5863    1.4829    0.0000 H   0  0  0  0  0  0  0  0  0  0  0  0
    7.4296   -0.9094    0.0000 H   0  0  0  0  0  0  0  0  0  0  0  0
    8.1317   -0.5857    0.0000 H   0  0  0  0  0  0  0  0  0  0  0  0
    6.0148   -0.5503    0.0000 H   0  0  0  0  0  0  0  0  0  0  0  0
    6.7056   -0.8974    0.0000 H   0  0  0  0  0  0  0  0  0  0  0  0
    4.9684    0.9149    0.0000 H   0  0  0  0  0  0  0  0  0  0  0  0
    4.3751    0.3826    0.0000 H   0  0  0  0  0  0  0  0  0  0  0  0
    8.1161    2.8541    0.0000 H   0  0  0  0  0  0  0  0  0  0  0  0
    8.8830    3.0607    0.0000 H   0  0  0  0  0  0  0  0  0  0  0  0
    9.4616    0.3150    0.0000 H   0  0  0  0  0  0  0  0  0  0  0  0
    5.8819   -1.4600    0.0000 H   0  0  0  0  0  0  0  0  0  0  0  0
    4.8709   -2.8541    0.0000 H   0  0  0  0  0  0  0  0  0  0  0  0
   10.4682    3.3947    0.0000 H   0  0  0  0  0  0  0  0  0  0  0  0
   11.0468    0.6491    0.0000 H   0  0  0  0  0  0  0  0  0  0  0  0
    2.8660    0.1600    0.0000 H   0  0  0  0  0  0  0  0  0  0  0  0
    2.8660   -3.0800    0.0000 H   0  0  0  0  0  0  0  0  0  0  0  0
    1.4631   -0.6500    0.0000 H   0  0  0  0  0  0  0  0  0  0  0  0
    1.4631   -2.2700    0.0000 H   0  0  0  0  0  0  0  0  0  0  0  0
  1 22  1  0  0  0  0
  2  5  1  0  0  0  0
  2 38  1  0  0  0  0
  3  8  1  0  0  0  0
  3 10  1  0  0  0  0
  3 12  1  0  0  0  0
  4 17  1  0  0  0  0
  4 18  1  0  0  0  0
  4 42  1  0  0  0  0
  5  6  1  0  0  0  0
  5  7  1  0  0  0  0
  5 11  1  0  0  0  0
  6  8  1  0  0  0  0
  6 26  1  0  0  0  0
  6 27  1  0  0  0  0
  7  9  1  0  0  0  0
  7 28  1  0  0  0  0
  7 29  1  0  0  0  0
  8 30  1  0  0  0  0
  8 31  1  0  0  0  0
  9 10  1  0  0  0  0
  9 32  1  0  0  0  0
  9 33  1  0  0  0  0
 10 34  1  0  0  0  0
 10 35  1  0  0  0  0
 11 14  2  0  0  0  0
 11 15  1  0  0  0  0
 12 13  1  0  0  0  0
 12 36  1  0  0  0  0
 12 37  1  0  0  0  0
 13 16  1  0  0  0  0
 13 17  2  0  0  0  0
 14 19  1  0  0  0  0
 14 39  1  0  0  0  0
 15 20  2  0  0  0  0
 15 40  1  0  0  0  0
 16 18  1  0  0  0  0
 16 21  2  0  0  0  0
 17 41  1  0  0  0  0
 18 23  2  0  0  0  0
 19 22  2  0  0  0  0
 19 43  1  0  0  0  0
 20 22  1  0  0  0  0
 20 44  1  0  0  0  0
 21 24  1  0  0  0  0
 21 45  1  0  0  0  0
 23 25  1  0  0  0  0
 23 46  1  0  0  0  0
 24 25  2  0  0  0  0
 24 47  1  0  0  0  0
 25 48  1  0  0  0  0
M  END
> <PUBCHEM_COMPOUND_CID>
44438211

> <PUBCHEM_COMPOUND_CANONICALIZED>
1

> <PUBCHEM_CACTVS_COMPLEXITY>
440

> <PUBCHEM_CACTVS_HBOND_ACCEPTOR>
2

> <PUBCHEM_CACTVS_HBOND_DONOR>
2

> <PUBCHEM_CACTVS_ROTATABLE_BOND>
3

> <PUBCHEM_CACTVS_SUBSKEYS>
AAADceB7IAAEAAAAAAAAAAAAAAAAAWAAAAAwYAAABYAAAFgB9AAAHgIQCAAADE7BniQ8wPPJkgCgAzRnRACCgCAxByAI2aA4bpgIJuLB05GEcAhm0AHI2AewwOAOhAAAAAACAAAIAAAAAAQAAAAAAAAAAA==

> <PUBCHEM_IUPAC_OPENEYE_NAME>
4-(4-chlorophenyl)-1-(1H-indol-3-ylmethyl)azepan-4-ol

> <PUBCHEM_IUPAC_CAS_NAME>
4-(4-chlorophenyl)-1-(1H-indol-3-ylmethyl)-4-azepanol

> <PUBCHEM_IUPAC_NAME_MARKUP>
4-(4-chlorophenyl)-1-(1<I>H</I>-indol-3-ylmethyl)azepan-4-ol

> <PUBCHEM_IUPAC_NAME>
4-(4-chlorophenyl)-1-(1H-indol-3-ylmethyl)azepan-4-ol

> <PUBCHEM_IUPAC_SYSTEMATIC_NAME>
4-(4-chlorophenyl)-1-(1H-indol-3-ylmethyl)azepan-4-ol

> <PUBCHEM_IUPAC_TRADITIONAL_NAME>
4-(4-chlorophenyl)-1-(1H-indol-3-ylmethyl)azepan-4-ol

> <PUBCHEM_IUPAC_INCHI>
InChI=1S/C21H23ClN2O/c22-18-8-6-17(7-9-18)21(25)10-3-12-24(13-11-21)15-16-14-23-20-5-2-1-4-19(16)20/h1-2,4-9,14,23,25H,3,10-13,15H2

> <PUBCHEM_IUPAC_INCHIKEY>
UAWALOZYZRTVNF-UHFFFAOYSA-N

> <PUBCHEM_XLOGP3_AA>
4

> <PUBCHEM_EXACT_MASS>
354.1498911

> <PUBCHEM_MOLECULAR_FORMULA>
C21H23ClN2O

> <PUBCHEM_MOLECULAR_WEIGHT>
354.9

> <PUBCHEM_OPENEYE_CAN_SMILES>
C1CC(CCN(C1)CC2=CNC3=CC=CC=C32)(C4=CC=C(C=C4)Cl)O

> <PUBCHEM_OPENEYE_ISO_SMILES>
C1CC(CCN(C1)CC2=CNC3=CC=CC=C32)(C4=CC=C(C=C4)Cl)O

> <PUBCHEM_CACTVS_TPSA>
39.3

> <PUBCHEM_MONOISOTOPIC_WEIGHT>
354.1498911

> <PUBCHEM_TOTAL_CHARGE>
0

> <PUBCHEM_HEAVY_ATOM_COUNT>
25

> <PUBCHEM_ATOM_DEF_STEREO_COUNT>
0

> <PUBCHEM_ATOM_UDEF_STEREO_COUNT>
1

> <PUBCHEM_BOND_DEF_STEREO_COUNT>
0

> <PUBCHEM_BOND_UDEF_STEREO_COUNT>
0

> <PUBCHEM_ISOTOPIC_ATOM_COUNT>
0

> <PUBCHEM_COMPONENT_COUNT>
1

> <PUBCHEM_CACTVS_TAUTO_COUNT>
-1

> <PUBCHEM_COORDINATE_TYPE>
1
5
255

> <PUBCHEM_BONDANNOTATIONS>
11  14  8
11  15  8
13  16  8
13  17  8
14  19  8
15  20  8
16  18  8
16  21  8
18  23  8
19  22  8
5  2  3
20  22  8
21  24  8
23  25  8
24  25  8
4  17  8
4  18  8

$$$$
