11311147
  -OEChem-09292322072D

 41 42  0     1  0  0  0  0  0999 V2000
    2.8660    0.4806    0.0000 O   0  0  0  0  0  0  0  0  0  0  0  0
    4.5981    1.4806    0.0000 N   0  0  0  0  0  0  0  0  0  0  0  0
    4.5981    0.4806    0.0000 C   0  0  3  0  0  0  0  0  0  0  0  0
    5.4071    2.0684    0.0000 C   0  0  0  0  0  0  0  0  0  0  0  0
    3.7891    2.0684    0.0000 C   0  0  0  0  0  0  0  0  0  0  0  0
    5.0981    3.0194    0.0000 C   0  0  0  0  0  0  0  0  0  0  0  0
    4.0981    3.0194    0.0000 C   0  0  0  0  0  0  0  0  0  0  0  0
    5.4641   -0.0194    0.0000 C   0  0  0  0  0  0  0  0  0  0  0  0
    3.7320   -0.0194    0.0000 C   0  0  0  0  0  0  0  0  0  0  0  0
    6.3301    0.4806    0.0000 C   0  0  0  0  0  0  0  0  0  0  0  0
    3.7320   -1.0194    0.0000 C   0  0  0  0  0  0  0  0  0  0  0  0
    7.1962   -0.0194    0.0000 C   0  0  0  0  0  0  0  0  0  0  0  0
    2.8660   -1.5194    0.0000 C   0  0  0  0  0  0  0  0  0  0  0  0
    4.5981   -1.5194    0.0000 C   0  0  0  0  0  0  0  0  0  0  0  0
    2.8660   -2.5194    0.0000 C   0  0  0  0  0  0  0  0  0  0  0  0
    2.0000   -1.0194    0.0000 C   0  0  0  0  0  0  0  0  0  0  0  0
    4.5981   -2.5194    0.0000 C   0  0  0  0  0  0  0  0  0  0  0  0
    3.7320   -3.0194    0.0000 C   0  0  0  0  0  0  0  0  0  0  0  0
    5.1350    0.7906    0.0000 H   0  0  0  0  0  0  0  0  0  0  0  0
    5.7171    1.5314    0.0000 H   0  0  0  0  0  0  0  0  0  0  0  0
    5.9735    2.3205    0.0000 H   0  0  0  0  0  0  0  0  0  0  0  0
    3.2227    2.3205    0.0000 H   0  0  0  0  0  0  0  0  0  0  0  0
    3.4791    1.5314    0.0000 H   0  0  0  0  0  0  0  0  0  0  0  0
    5.7045    3.1483    0.0000 H   0  0  0  0  0  0  0  0  0  0  0  0
    5.0333    3.6360    0.0000 H   0  0  0  0  0  0  0  0  0  0  0  0
    4.1629    3.6360    0.0000 H   0  0  0  0  0  0  0  0  0  0  0  0
    3.4916    3.1483    0.0000 H   0  0  0  0  0  0  0  0  0  0  0  0
    5.0656   -0.4944    0.0000 H   0  0  0  0  0  0  0  0  0  0  0  0
    5.8626   -0.4944    0.0000 H   0  0  0  0  0  0  0  0  0  0  0  0
    6.7287    0.9555    0.0000 H   0  0  0  0  0  0  0  0  0  0  0  0
    5.9316    0.9555    0.0000 H   0  0  0  0  0  0  0  0  0  0  0  0
    6.8862   -0.5564    0.0000 H   0  0  0  0  0  0  0  0  0  0  0  0
    7.7331   -0.3294    0.0000 H   0  0  0  0  0  0  0  0  0  0  0  0
    7.5062    0.5175    0.0000 H   0  0  0  0  0  0  0  0  0  0  0  0
    5.1350   -1.2094    0.0000 H   0  0  0  0  0  0  0  0  0  0  0  0
    2.3291   -2.8294    0.0000 H   0  0  0  0  0  0  0  0  0  0  0  0
    2.3100   -0.4825    0.0000 H   0  0  0  0  0  0  0  0  0  0  0  0
    1.4631   -0.7094    0.0000 H   0  0  0  0  0  0  0  0  0  0  0  0
    1.6900   -1.5564    0.0000 H   0  0  0  0  0  0  0  0  0  0  0  0
    5.1350   -2.8294    0.0000 H   0  0  0  0  0  0  0  0  0  0  0  0
    3.7320   -3.6394    0.0000 H   0  0  0  0  0  0  0  0  0  0  0  0
  1  9  2  0  0  0  0
  2  3  1  0  0  0  0
  2  4  1  0  0  0  0
  2  5  1  0  0  0  0
  3  8  1  0  0  0  0
  3  9  1  0  0  0  0
  3 19  1  0  0  0  0
  4  6  1  0  0  0  0
  4 20  1  0  0  0  0
  4 21  1  0  0  0  0
  5  7  1  0  0  0  0
  5 22  1  0  0  0  0
  5 23  1  0  0  0  0
  6  7  1  0  0  0  0
  6 24  1  0  0  0  0
  6 25  1  0  0  0  0
  7 26  1  0  0  0  0
  7 27  1  0  0  0  0
  8 10  1  0  0  0  0
  8 28  1  0  0  0  0
  8 29  1  0  0  0  0
  9 11  1  0  0  0  0
 10 12  1  0  0  0  0
 10 30  1  0  0  0  0
 10 31  1  0  0  0  0
 11 13  1  0  0  0  0
 11 14  2  0  0  0  0
 12 32  1  0  0  0  0
 12 33  1  0  0  0  0
 12 34  1  0  0  0  0
 13 15  2  0  0  0  0
 13 16  1  0  0  0  0
 14 17  1  0  0  0  0
 14 35  1  0  0  0  0
 15 18  1  0  0  0  0
 15 36  1  0  0  0  0
 16 37  1  0  0  0  0
 16 38  1  0  0  0  0
 16 39  1  0  0  0  0
 17 18  2  0  0  0  0
 17 40  1  0  0  0  0
 18 41  1  0  0  0  0
M  END
> <PUBCHEM_COMPOUND_CID>
11311147

> <PUBCHEM_COMPOUND_CANONICALIZED>
1

> <PUBCHEM_CACTVS_COMPLEXITY>
270

> <PUBCHEM_CACTVS_HBOND_ACCEPTOR>
2

> <PUBCHEM_CACTVS_HBOND_DONOR>
0

> <PUBCHEM_CACTVS_ROTATABLE_BOND>
5

> <PUBCHEM_CACTVS_SUBSKEYS>
AAADceB6IAAAAAAAAAAAAAAAAAAAAWAAAAAwAAAAAAAAAAABAAAAHgAAAAAADCzBmAQyAIMAAACIAqBSAAACAAAkAAAIiAGIAMgIIDKAlTGEIQAggACIiYcYiMCOgAAAAAAQAAAAAAAAACAAAAAAAAAAAA==

> <PUBCHEM_IUPAC_OPENEYE_NAME>
1-(o-tolyl)-2-pyrrolidin-1-yl-pentan-1-one

> <PUBCHEM_IUPAC_CAS_NAME>
1-(2-methylphenyl)-2-(1-pyrrolidinyl)-1-pentanone

> <PUBCHEM_IUPAC_NAME_MARKUP>
1-(2-methylphenyl)-2-pyrrolidin-1-ylpentan-1-one

> <PUBCHEM_IUPAC_NAME>
1-(2-methylphenyl)-2-pyrrolidin-1-ylpentan-1-one

> <PUBCHEM_IUPAC_SYSTEMATIC_NAME>
1-(2-methylphenyl)-2-pyrrolidin-1-yl-pentan-1-one

> <PUBCHEM_IUPAC_TRADITIONAL_NAME>
1-(o-tolyl)-2-pyrrolidino-pentan-1-one

> <PUBCHEM_IUPAC_INCHI>
InChI=1S/C16H23NO/c1-3-8-15(17-11-6-7-12-17)16(18)14-10-5-4-9-13(14)2/h4-5,9-10,15H,3,6-8,11-12H2,1-2H3

> <PUBCHEM_IUPAC_INCHIKEY>
VVIVTDYOMWHKAE-UHFFFAOYSA-N

> <PUBCHEM_XLOGP3_AA>
3.8

> <PUBCHEM_EXACT_MASS>
245.177964357

> <PUBCHEM_MOLECULAR_FORMULA>
C16H23NO

> <PUBCHEM_MOLECULAR_WEIGHT>
245.36

> <PUBCHEM_OPENEYE_CAN_SMILES>
CCCC(C(=O)C1=CC=CC=C1C)N2CCCC2

> <PUBCHEM_OPENEYE_ISO_SMILES>
CCCC(C(=O)C1=CC=CC=C1C)N2CCCC2

> <PUBCHEM_CACTVS_TPSA>
20.3

> <PUBCHEM_MONOISOTOPIC_WEIGHT>
245.177964357

> <PUBCHEM_TOTAL_CHARGE>
0

> <PUBCHEM_HEAVY_ATOM_COUNT>
18

> <PUBCHEM_ATOM_DEF_STEREO_COUNT>
0

> <PUBCHEM_ATOM_UDEF_STEREO_COUNT>
1

> <PUBCHEM_BOND_DEF_STEREO_COUNT>
0

> <PUBCHEM_BOND_UDEF_STEREO_COUNT>
0

> <PUBCHEM_ISOTOPIC_ATOM_COUNT>
0

> <PUBCHEM_COMPONENT_COUNT>
1

> <PUBCHEM_CACTVS_TAUTO_COUNT>
-1

> <PUBCHEM_COORDINATE_TYPE>
1
5
255

> <PUBCHEM_BONDANNOTATIONS>
11  13  8
11  14  8
13  15  8
14  17  8
15  18  8
17  18  8
3  8  3

$$$$
