165112405
  -OEChem-09292322452D

 75 79  0     1  0  0  0  0  0999 V2000
   16.0824   -0.4717    0.0000 S   0  0  0  0  0  0  0  0  0  0  0  0
    7.4367    1.2785    0.0000 O   0  0  0  0  0  0  0  0  0  0  0  0
   17.6700   -1.2686    0.0000 O   0  0  0  0  0  0  0  0  0  0  0  0
   12.9496   -1.2921    0.0000 N   0  0  3  0  0  0  0  0  0  0  0  0
    7.4453   -0.4535    0.0000 N   0  0  0  0  0  0  0  0  0  0  0  0
   16.0904   -2.0812    0.0000 N   0  0  0  0  0  0  0  0  0  0  0  0
    2.8635    0.9238    0.0000 N   0  0  0  0  0  0  0  0  0  0  0  0
    2.9616    1.9130    0.0000 N   0  0  0  0  0  0  0  0  0  0  0  0
   10.4453   -0.4385    0.0000 C   0  0  0  0  0  0  0  0  0  0  0  0
    9.9496   -1.3070    0.0000 C   0  0  0  0  0  0  0  0  0  0  0  0
    9.9410    0.4250    0.0000 C   0  0  0  0  0  0  0  0  0  0  0  0
    8.4453   -0.4485    0.0000 C   0  0  0  0  0  0  0  0  0  0  0  0
    8.9496   -1.3120    0.0000 C   0  0  0  0  0  0  0  0  0  0  0  0
    8.9410    0.4200    0.0000 C   0  0  0  0  0  0  0  0  0  0  0  0
   11.4453   -0.4336    0.0000 C   0  0  0  0  0  0  0  0  0  0  0  0
   11.9496   -1.2971    0.0000 C   0  0  0  0  0  0  0  0  0  0  0  0
   13.3790   -0.3890    0.0000 C   0  0  0  0  0  0  0  0  0  0  0  0
   13.3879   -2.1909    0.0000 C   0  0  0  0  0  0  0  0  0  0  0  0
   14.3528   -0.1616    0.0000 C   0  0  0  0  0  0  0  0  0  0  0  0
   14.3640   -2.4085    0.0000 C   0  0  0  0  0  0  0  0  0  0  0  0
    6.9410    0.4100    0.0000 C   0  0  0  0  0  0  0  0  0  0  0  0
   15.1377   -0.7812    0.0000 C   0  0  0  0  0  0  0  0  0  0  0  0
   15.1427   -1.7812    0.0000 C   0  0  0  0  0  0  0  0  0  0  0  0
    5.9410    0.4050    0.0000 C   0  0  0  0  0  0  0  0  0  0  0  0
    5.4367    1.2686    0.0000 C   0  0  0  0  0  0  0  0  0  0  0  0
   16.6700   -1.2735    0.0000 C   0  0  0  0  0  0  0  0  0  0  0  0
    4.4367    1.2636    0.0000 C   0  0  0  0  0  0  0  0  0  0  0  0
    5.9324    2.1371    0.0000 C   0  0  0  0  0  0  0  0  0  0  0  0
    3.9324    2.1271    0.0000 C   0  0  0  0  0  0  0  0  0  0  0  0
    3.7733    0.5232    0.0000 C   0  0  0  0  0  0  0  0  0  0  0  0
    5.4281    3.0006    0.0000 C   0  0  0  0  0  0  0  0  0  0  0  0
   18.1743   -2.1321    0.0000 C   0  0  0  0  0  0  0  0  0  0  0  0
    4.4281    2.9956    0.0000 C   0  0  0  0  0  0  0  0  0  0  0  0
   19.1743   -2.1271    0.0000 C   0  0  0  0  0  0  0  0  0  0  0  0
   17.6786   -3.0006    0.0000 C   0  0  0  0  0  0  0  0  0  0  0  0
    2.0000    0.4195    0.0000 C   0  0  0  0  0  0  0  0  0  0  0  0
   10.7526    0.0999    0.0000 H   0  0  0  0  0  0  0  0  0  0  0  0
    9.8450   -1.9182    0.0000 H   0  0  0  0  0  0  0  0  0  0  0  0
   10.5333   -1.5162    0.0000 H   0  0  0  0  0  0  0  0  0  0  0  0
   10.5225    0.6399    0.0000 H   0  0  0  0  0  0  0  0  0  0  0  0
    9.8303    1.0350    0.0000 H   0  0  0  0  0  0  0  0  0  0  0  0
    8.1380   -0.9870    0.0000 H   0  0  0  0  0  0  0  0  0  0  0  0
    8.3681   -1.5270    0.0000 H   0  0  0  0  0  0  0  0  0  0  0  0
    9.0603   -1.9221    0.0000 H   0  0  0  0  0  0  0  0  0  0  0  0
    9.0456    1.0311    0.0000 H   0  0  0  0  0  0  0  0  0  0  0  0
    8.3573    0.6291    0.0000 H   0  0  0  0  0  0  0  0  0  0  0  0
   12.0268   -0.2186    0.0000 H   0  0  0  0  0  0  0  0  0  0  0  0
   11.3346    0.1765    0.0000 H   0  0  0  0  0  0  0  0  0  0  0  0
   11.3680   -1.5120    0.0000 H   0  0  0  0  0  0  0  0  0  0  0  0
   12.0603   -1.9071    0.0000 H   0  0  0  0  0  0  0  0  0  0  0  0
    7.1380   -0.9920    0.0000 H   0  0  0  0  0  0  0  0  0  0  0  0
   13.3759    0.2310    0.0000 H   0  0  0  0  0  0  0  0  0  0  0  0
   12.7738   -0.2540    0.0000 H   0  0  0  0  0  0  0  0  0  0  0  0
   12.7842   -2.3319    0.0000 H   0  0  0  0  0  0  0  0  0  0  0  0
   13.3910   -2.8109    0.0000 H   0  0  0  0  0  0  0  0  0  0  0  0
   14.8356    0.2274    0.0000 H   0  0  0  0  0  0  0  0  0  0  0  0
   14.0810    0.3957    0.0000 H   0  0  0  0  0  0  0  0  0  0  0  0
   14.0977   -2.9685    0.0000 H   0  0  0  0  0  0  0  0  0  0  0  0
   14.8506   -2.7927    0.0000 H   0  0  0  0  0  0  0  0  0  0  0  0
    5.3595    0.1901    0.0000 H   0  0  0  0  0  0  0  0  0  0  0  0
    6.0517   -0.2050    0.0000 H   0  0  0  0  0  0  0  0  0  0  0  0
    6.5524    2.1402    0.0000 H   0  0  0  0  0  0  0  0  0  0  0  0
    3.9042   -0.0828    0.0000 H   0  0  0  0  0  0  0  0  0  0  0  0
    5.7354    3.5391    0.0000 H   0  0  0  0  0  0  0  0  0  0  0  0
   18.4816   -1.5936    0.0000 H   0  0  0  0  0  0  0  0  0  0  0  0
    4.1154    3.5310    0.0000 H   0  0  0  0  0  0  0  0  0  0  0  0
   19.1774   -2.7471    0.0000 H   0  0  0  0  0  0  0  0  0  0  0  0
   19.7943   -2.1240    0.0000 H   0  0  0  0  0  0  0  0  0  0  0  0
   19.1712   -1.5071    0.0000 H   0  0  0  0  0  0  0  0  0  0  0  0
   17.1401   -2.6933    0.0000 H   0  0  0  0  0  0  0  0  0  0  0  0
   17.3713   -3.5391    0.0000 H   0  0  0  0  0  0  0  0  0  0  0  0
   18.2171   -3.3079    0.0000 H   0  0  0  0  0  0  0  0  0  0  0  0
    1.6873    0.9549    0.0000 H   0  0  0  0  0  0  0  0  0  0  0  0
    1.4646    0.1068    0.0000 H   0  0  0  0  0  0  0  0  0  0  0  0
    2.3127   -0.1159    0.0000 H   0  0  0  0  0  0  0  0  0  0  0  0
  1 22  1  0  0  0  0
  1 26  1  0  0  0  0
  2 21  2  0  0  0  0
  3 26  1  0  0  0  0
  3 32  1  0  0  0  0
  4 16  1  0  0  0  0
  4 17  1  0  0  0  0
  4 18  1  0  0  0  0
  5 12  1  0  0  0  0
  5 21  1  0  0  0  0
  5 51  1  0  0  0  0
  6 23  1  0  0  0  0
  6 26  2  0  0  0  0
  7  8  1  0  0  0  0
  7 30  1  0  0  0  0
  7 36  1  0  0  0  0
  8 29  2  0  0  0  0
  9 10  1  0  0  0  0
  9 11  1  0  0  0  0
  9 15  1  0  0  0  0
  9 37  1  0  0  0  0
 10 13  1  0  0  0  0
 10 38  1  0  0  0  0
 10 39  1  0  0  0  0
 11 14  1  0  0  0  0
 11 40  1  0  0  0  0
 11 41  1  0  0  0  0
 12 13  1  0  0  0  0
 12 14  1  0  0  0  0
 12 42  1  0  0  0  0
 13 43  1  0  0  0  0
 13 44  1  0  0  0  0
 14 45  1  0  0  0  0
 14 46  1  0  0  0  0
 15 16  1  0  0  0  0
 15 47  1  0  0  0  0
 15 48  1  0  0  0  0
 16 49  1  0  0  0  0
 16 50  1  0  0  0  0
 17 19  1  0  0  0  0
 17 52  1  0  0  0  0
 17 53  1  0  0  0  0
 18 20  1  0  0  0  0
 18 54  1  0  0  0  0
 18 55  1  0  0  0  0
 19 22  1  0  0  0  0
 19 56  1  0  0  0  0
 19 57  1  0  0  0  0
 20 23  1  0  0  0  0
 20 58  1  0  0  0  0
 20 59  1  0  0  0  0
 21 24  1  0  0  0  0
 22 23  2  0  0  0  0
 24 25  1  0  0  0  0
 24 60  1  0  0  0  0
 24 61  1  0  0  0  0
 25 27  1  0  0  0  0
 25 28  2  0  0  0  0
 27 29  1  0  0  0  0
 27 30  2  0  0  0  0
 28 31  1  0  0  0  0
 28 62  1  0  0  0  0
 29 33  1  0  0  0  0
 30 63  1  0  0  0  0
 31 33  2  0  0  0  0
 31 64  1  0  0  0  0
 32 34  1  0  0  0  0
 32 35  1  0  0  0  0
 32 65  1  0  0  0  0
 33 66  1  0  0  0  0
 34 67  1  0  0  0  0
 34 68  1  0  0  0  0
 34 69  1  0  0  0  0
 35 70  1  0  0  0  0
 35 71  1  0  0  0  0
 35 72  1  0  0  0  0
 36 73  1  0  0  0  0
 36 74  1  0  0  0  0
 36 75  1  0  0  0  0
M  END
> <PUBCHEM_COMPOUND_CID>
165112405

> <PUBCHEM_COMPOUND_CANONICALIZED>
1

> <PUBCHEM_CACTVS_COMPLEXITY>
718

> <PUBCHEM_CACTVS_HBOND_ACCEPTOR>
6

> <PUBCHEM_CACTVS_HBOND_DONOR>
1

> <PUBCHEM_CACTVS_ROTATABLE_BOND>
8

> <PUBCHEM_CACTVS_SUBSKEYS>
AAADcfB7sABAAAAAAAAAAAAAAAAAAWLAAAAwYAAABYAAAFix/AAAHgQYAAAADTzh3gY+wfPIFAiuAzV3VACS9KBxijgY2LU4ZJgIILLg1dGMpAhgngDIyAcYiYCegAAAQAASAAAQAACAACQAAAAAAAAAAA==

> <PUBCHEM_IUPAC_OPENEYE_NAME>
N-[4-[2-(2-isopropoxy-4,5,7,8-tetrahydrothiazolo[4,5-d]azepin-6-yl)ethyl]cyclohexyl]-2-(2-methylindazol-4-yl)acetamide

> <PUBCHEM_IUPAC_CAS_NAME>
2-(2-methyl-4-indazolyl)-N-[4-[2-(2-propan-2-yloxy-4,5,7,8-tetrahydrothiazolo[4,5-d]azepin-6-yl)ethyl]cyclohexyl]acetamide

> <PUBCHEM_IUPAC_NAME_MARKUP>
2-(2-methylindazol-4-yl)-<I>N</I>-[4-[2-(2-propan-2-yloxy-4,5,7,8-tetrahydro-[1,3]thiazolo[4,5-d]azepin-6-yl)ethyl]cyclohexyl]acetamide

> <PUBCHEM_IUPAC_NAME>
2-(2-methylindazol-4-yl)-N-[4-[2-(2-propan-2-yloxy-4,5,7,8-tetrahydro-[1,3]thiazolo[4,5-d]azepin-6-yl)ethyl]cyclohexyl]acetamide

> <PUBCHEM_IUPAC_SYSTEMATIC_NAME>
2-(2-methylindazol-4-yl)-N-[4-[2-(2-propan-2-yloxy-4,5,7,8-tetrahydro-[1,3]thiazolo[4,5-d]azepin-6-yl)ethyl]cyclohexyl]ethanamide

> <PUBCHEM_IUPAC_TRADITIONAL_NAME>
N-[4-[2-(2-isopropoxy-4,5,7,8-tetrahydrothiazol[4,5-d]azepin-6-yl)ethyl]cyclohexyl]-2-(2-methylindazol-4-yl)acetamide

> <PUBCHEM_IUPAC_INCHI>
InChI=1S/C28H39N5O2S/c1-19(2)35-28-30-25-12-15-33(16-13-26(25)36-28)14-11-20-7-9-22(10-8-20)29-27(34)17-21-5-4-6-24-23(21)18-32(3)31-24/h4-6,18-20,22H,7-17H2,1-3H3,(H,29,34)

> <PUBCHEM_IUPAC_INCHIKEY>
XXOBSFFHMXTRII-UHFFFAOYSA-N

> <PUBCHEM_XLOGP3_AA>
4.9

> <PUBCHEM_EXACT_MASS>
509.28244668

> <PUBCHEM_MOLECULAR_FORMULA>
C28H39N5O2S

> <PUBCHEM_MOLECULAR_WEIGHT>
509.7

> <PUBCHEM_OPENEYE_CAN_SMILES>
CC(C)OC1=NC2=C(S1)CCN(CC2)CCC3CCC(CC3)NC(=O)CC4=CC=CC5=NN(C=C54)C

> <PUBCHEM_OPENEYE_ISO_SMILES>
CC(C)OC1=NC2=C(S1)CCN(CC2)CCC3CCC(CC3)NC(=O)CC4=CC=CC5=NN(C=C54)C

> <PUBCHEM_CACTVS_TPSA>
101

> <PUBCHEM_MONOISOTOPIC_WEIGHT>
509.28244668

> <PUBCHEM_TOTAL_CHARGE>
0

> <PUBCHEM_HEAVY_ATOM_COUNT>
36

> <PUBCHEM_ATOM_DEF_STEREO_COUNT>
0

> <PUBCHEM_ATOM_UDEF_STEREO_COUNT>
0

> <PUBCHEM_BOND_DEF_STEREO_COUNT>
0

> <PUBCHEM_BOND_UDEF_STEREO_COUNT>
0

> <PUBCHEM_ISOTOPIC_ATOM_COUNT>
0

> <PUBCHEM_COMPONENT_COUNT>
1

> <PUBCHEM_CACTVS_TAUTO_COUNT>
-1

> <PUBCHEM_COORDINATE_TYPE>
1
5
255

> <PUBCHEM_BONDANNOTATIONS>
1  22  8
1  26  8
22  23  8
25  27  8
25  28  8
27  29  8
27  30  8
28  31  8
29  33  8
31  33  8
6  23  8
6  26  8
7  30  8
7  8  8
8  29  8

$$$$
