127038033
  -OEChem-09292322362D

 63 66  0     0  0  0  0  0  0999 V2000
    8.9282   -2.2327    0.0000 S   0  0  0  0  0  0  0  0  0  0  0  0
    4.5981    2.2673    0.0000 O   0  0  0  0  0  0  0  0  0  0  0  0
    7.9282   -2.2327    0.0000 O   0  0  0  0  0  0  0  0  0  0  0  0
    9.9282   -2.2327    0.0000 O   0  0  0  0  0  0  0  0  0  0  0  0
    6.3301    0.2673    0.0000 N   0  0  0  0  0  0  0  0  0  0  0  0
    8.9282   -1.2327    0.0000 N   0  0  0  0  0  0  0  0  0  0  0  0
   10.6882   -5.2673    0.0000 N   0  0  0  0  0  0  0  0  0  0  0  0
    8.0622   -0.7327    0.0000 C   0  0  0  0  0  0  0  0  0  0  0  0
    7.1962   -1.2327    0.0000 C   0  0  0  0  0  0  0  0  0  0  0  0
    8.0622    0.2673    0.0000 C   0  0  0  0  0  0  0  0  0  0  0  0
    6.3301   -0.7327    0.0000 C   0  0  0  0  0  0  0  0  0  0  0  0
    7.1962    0.7673    0.0000 C   0  0  0  0  0  0  0  0  0  0  0  0
    5.4641    0.7673    0.0000 C   0  0  0  0  0  0  0  0  0  0  0  0
    5.4641    1.7673    0.0000 C   0  0  0  0  0  0  0  0  0  0  0  0
    8.9282   -3.2327    0.0000 C   0  0  0  0  0  0  0  0  0  0  0  0
    9.7942   -3.7327    0.0000 C   0  0  0  0  0  0  0  0  0  0  0  0
    8.0622   -3.7327    0.0000 C   0  0  0  0  0  0  0  0  0  0  0  0
    4.5981    3.2673    0.0000 C   0  0  0  0  0  0  0  0  0  0  0  0
    3.7320    3.7673    0.0000 C   0  0  0  0  0  0  0  0  0  0  0  0
    9.7942   -4.7327    0.0000 C   0  0  0  0  0  0  0  0  0  0  0  0
    2.8660    3.2673    0.0000 C   0  0  0  0  0  0  0  0  0  0  0  0
    8.0622   -4.7327    0.0000 C   0  0  0  0  0  0  0  0  0  0  0  0
   10.6882   -3.1980    0.0000 C   0  0  0  0  0  0  0  0  0  0  0  0
    8.9282   -5.2327    0.0000 C   0  0  0  0  0  0  0  0  0  0  0  0
    5.4641    3.7673    0.0000 C   0  0  0  0  0  0  0  0  0  0  0  0
    3.7320    4.7673    0.0000 C   0  0  0  0  0  0  0  0  0  0  0  0
    2.0000    3.7673    0.0000 C   0  0  0  0  0  0  0  0  0  0  0  0
    2.8660    2.2673    0.0000 C   0  0  0  0  0  0  0  0  0  0  0  0
   11.5942   -3.7118    0.0000 C   0  0  0  0  0  0  0  0  0  0  0  0
    5.4641    4.7673    0.0000 C   0  0  0  0  0  0  0  0  0  0  0  0
    4.5981    5.2673    0.0000 C   0  0  0  0  0  0  0  0  0  0  0  0
   11.5942   -4.7535    0.0000 C   0  0  0  0  0  0  0  0  0  0  0  0
    8.0622   -1.3527    0.0000 H   0  0  0  0  0  0  0  0  0  0  0  0
    6.7976   -1.7076    0.0000 H   0  0  0  0  0  0  0  0  0  0  0  0
    7.5947   -1.7076    0.0000 H   0  0  0  0  0  0  0  0  0  0  0  0
    8.6728    0.1597    0.0000 H   0  0  0  0  0  0  0  0  0  0  0  0
    8.2742    0.8499    0.0000 H   0  0  0  0  0  0  0  0  0  0  0  0
    5.7196   -0.6250    0.0000 H   0  0  0  0  0  0  0  0  0  0  0  0
    6.1181   -1.3153    0.0000 H   0  0  0  0  0  0  0  0  0  0  0  0
    7.5947    1.2423    0.0000 H   0  0  0  0  0  0  0  0  0  0  0  0
    6.7976    1.2423    0.0000 H   0  0  0  0  0  0  0  0  0  0  0  0
    4.8535    0.8750    0.0000 H   0  0  0  0  0  0  0  0  0  0  0  0
    5.2520    0.1847    0.0000 H   0  0  0  0  0  0  0  0  0  0  0  0
    9.4651   -0.9227    0.0000 H   0  0  0  0  0  0  0  0  0  0  0  0
    6.0747    1.6597    0.0000 H   0  0  0  0  0  0  0  0  0  0  0  0
    5.6762    2.3499    0.0000 H   0  0  0  0  0  0  0  0  0  0  0  0
    7.5252   -3.4227    0.0000 H   0  0  0  0  0  0  0  0  0  0  0  0
    2.8660    3.8873    0.0000 H   0  0  0  0  0  0  0  0  0  0  0  0
    7.5252   -5.0427    0.0000 H   0  0  0  0  0  0  0  0  0  0  0  0
   10.6810   -2.5780    0.0000 H   0  0  0  0  0  0  0  0  0  0  0  0
    8.9282   -5.8527    0.0000 H   0  0  0  0  0  0  0  0  0  0  0  0
    6.0010    3.4573    0.0000 H   0  0  0  0  0  0  0  0  0  0  0  0
    3.1951    5.0773    0.0000 H   0  0  0  0  0  0  0  0  0  0  0  0
    2.3100    4.3043    0.0000 H   0  0  0  0  0  0  0  0  0  0  0  0
    1.4631    4.0773    0.0000 H   0  0  0  0  0  0  0  0  0  0  0  0
    1.6900    3.2304    0.0000 H   0  0  0  0  0  0  0  0  0  0  0  0
    2.2460    2.2673    0.0000 H   0  0  0  0  0  0  0  0  0  0  0  0
    2.8660    1.6473    0.0000 H   0  0  0  0  0  0  0  0  0  0  0  0
    3.4860    2.2673    0.0000 H   0  0  0  0  0  0  0  0  0  0  0  0
   12.1300   -3.3998    0.0000 H   0  0  0  0  0  0  0  0  0  0  0  0
    6.0010    5.0773    0.0000 H   0  0  0  0  0  0  0  0  0  0  0  0
    4.5981    5.8873    0.0000 H   0  0  0  0  0  0  0  0  0  0  0  0
   12.1300   -5.0656    0.0000 H   0  0  0  0  0  0  0  0  0  0  0  0
  1  3  2  0  0  0  0
  1  4  2  0  0  0  0
  1  6  1  0  0  0  0
  1 15  1  0  0  0  0
  2 14  1  0  0  0  0
  2 18  1  0  0  0  0
  5 11  1  0  0  0  0
  5 12  1  0  0  0  0
  5 13  1  0  0  0  0
  6  8  1  0  0  0  0
  6 44  1  0  0  0  0
  7 20  1  0  0  0  0
  7 32  2  0  0  0  0
  8  9  1  0  0  0  0
  8 10  1  0  0  0  0
  8 33  1  0  0  0  0
  9 11  1  0  0  0  0
  9 34  1  0  0  0  0
  9 35  1  0  0  0  0
 10 12  1  0  0  0  0
 10 36  1  0  0  0  0
 10 37  1  0  0  0  0
 11 38  1  0  0  0  0
 11 39  1  0  0  0  0
 12 40  1  0  0  0  0
 12 41  1  0  0  0  0
 13 14  1  0  0  0  0
 13 42  1  0  0  0  0
 13 43  1  0  0  0  0
 14 45  1  0  0  0  0
 14 46  1  0  0  0  0
 15 16  1  0  0  0  0
 15 17  2  0  0  0  0
 16 20  2  0  0  0  0
 16 23  1  0  0  0  0
 17 22  1  0  0  0  0
 17 47  1  0  0  0  0
 18 19  1  0  0  0  0
 18 25  2  0  0  0  0
 19 21  1  0  0  0  0
 19 26  2  0  0  0  0
 20 24  1  0  0  0  0
 21 27  1  0  0  0  0
 21 28  1  0  0  0  0
 21 48  1  0  0  0  0
 22 24  2  0  0  0  0
 22 49  1  0  0  0  0
 23 29  2  0  0  0  0
 23 50  1  0  0  0  0
 24 51  1  0  0  0  0
 25 30  1  0  0  0  0
 25 52  1  0  0  0  0
 26 31  1  0  0  0  0
 26 53  1  0  0  0  0
 27 54  1  0  0  0  0
 27 55  1  0  0  0  0
 27 56  1  0  0  0  0
 28 57  1  0  0  0  0
 28 58  1  0  0  0  0
 28 59  1  0  0  0  0
 29 32  1  0  0  0  0
 29 60  1  0  0  0  0
 30 31  2  0  0  0  0
 30 61  1  0  0  0  0
 31 62  1  0  0  0  0
 32 63  1  0  0  0  0
M  END
> <PUBCHEM_COMPOUND_CID>
127038033

> <PUBCHEM_COMPOUND_CANONICALIZED>
1

> <PUBCHEM_CACTVS_COMPLEXITY>
672

> <PUBCHEM_CACTVS_HBOND_ACCEPTOR>
6

> <PUBCHEM_CACTVS_HBOND_DONOR>
1

> <PUBCHEM_CACTVS_ROTATABLE_BOND>
8

> <PUBCHEM_CACTVS_SUBSKEYS>
AAADceB7MABAAAAAAAAAAAAAAAAAAAAAAAA8eIEAAAAAAACx9AAAHgQQQAAADSzh3gY+x/NIFAKgAzRnRHDCiDAxIiAI2Lg+bJgOJuLE8ZuHOCzk0BHY6AeQwOAOgAAAACAOAAAAAAAAQBwAAAAAAAAAAA==

> <PUBCHEM_IUPAC_OPENEYE_NAME>
N-[1-[2-(2-isopropylphenoxy)ethyl]-4-piperidyl]quinoline-5-sulfonamide

> <PUBCHEM_IUPAC_CAS_NAME>
N-[1-[2-(2-propan-2-ylphenoxy)ethyl]-4-piperidinyl]-5-quinolinesulfonamide

> <PUBCHEM_IUPAC_NAME_MARKUP>
<I>N</I>-[1-[2-(2-propan-2-ylphenoxy)ethyl]piperidin-4-yl]quinoline-5-sulfonamide

> <PUBCHEM_IUPAC_NAME>
N-[1-[2-(2-propan-2-ylphenoxy)ethyl]piperidin-4-yl]quinoline-5-sulfonamide

> <PUBCHEM_IUPAC_SYSTEMATIC_NAME>
N-[1-[2-(2-propan-2-ylphenoxy)ethyl]piperidin-4-yl]quinoline-5-sulfonamide

> <PUBCHEM_IUPAC_TRADITIONAL_NAME>
N-[1-[2-(2-isopropylphenoxy)ethyl]-4-piperidyl]quinoline-5-sulfonamide

> <PUBCHEM_IUPAC_INCHI>
InChI=1S/C25H31N3O3S/c1-19(2)21-7-3-4-10-24(21)31-18-17-28-15-12-20(13-16-28)27-32(29,30)25-11-5-9-23-22(25)8-6-14-26-23/h3-11,14,19-20,27H,12-13,15-18H2,1-2H3

> <PUBCHEM_IUPAC_INCHIKEY>
NPOLKMCQMGALNF-UHFFFAOYSA-N

> <PUBCHEM_XLOGP3_AA>
4.5

> <PUBCHEM_EXACT_MASS>
453.20861303

> <PUBCHEM_MOLECULAR_FORMULA>
C25H31N3O3S

> <PUBCHEM_MOLECULAR_WEIGHT>
453.6

> <PUBCHEM_OPENEYE_CAN_SMILES>
CC(C)C1=CC=CC=C1OCCN2CCC(CC2)NS(=O)(=O)C3=CC=CC4=C3C=CC=N4

> <PUBCHEM_OPENEYE_ISO_SMILES>
CC(C)C1=CC=CC=C1OCCN2CCC(CC2)NS(=O)(=O)C3=CC=CC4=C3C=CC=N4

> <PUBCHEM_CACTVS_TPSA>
79.9

> <PUBCHEM_MONOISOTOPIC_WEIGHT>
453.20861303

> <PUBCHEM_TOTAL_CHARGE>
0

> <PUBCHEM_HEAVY_ATOM_COUNT>
32

> <PUBCHEM_ATOM_DEF_STEREO_COUNT>
0

> <PUBCHEM_ATOM_UDEF_STEREO_COUNT>
0

> <PUBCHEM_BOND_DEF_STEREO_COUNT>
0

> <PUBCHEM_BOND_UDEF_STEREO_COUNT>
0

> <PUBCHEM_ISOTOPIC_ATOM_COUNT>
0

> <PUBCHEM_COMPONENT_COUNT>
1

> <PUBCHEM_CACTVS_TAUTO_COUNT>
-1

> <PUBCHEM_COORDINATE_TYPE>
1
5
255

> <PUBCHEM_BONDANNOTATIONS>
15  16  8
15  17  8
16  20  8
16  23  8
17  22  8
18  19  8
18  25  8
19  26  8
20  24  8
22  24  8
23  29  8
25  30  8
26  31  8
29  32  8
30  31  8
7  20  8
7  32  8

$$$$
