72544566
  -OEChem-09292322342D

 57 59  0     0  0  0  0  0  0999 V2000
   12.7882    4.3704    0.0000 F   0  0  0  0  0  0  0  0  0  0  0  0
    2.8660   -2.4749    0.0000 O   0  0  0  0  0  0  0  0  0  0  0  0
    4.5981    0.5251    0.0000 N   0  0  0  0  0  0  0  0  0  0  0  0
    4.5981   -1.4749    0.0000 N   0  0  0  0  0  0  0  0  0  0  0  0
    7.0468    2.3615    0.0000 N   0  0  0  0  0  0  0  0  0  0  0  0
    5.5686    3.0196    0.0000 N   0  0  0  0  0  0  0  0  0  0  0  0
    6.5468    3.2275    0.0000 N   0  0  0  0  0  0  0  0  0  0  0  0
    5.4641    0.0251    0.0000 C   0  0  0  0  0  0  0  0  0  0  0  0
    3.7320    0.0251    0.0000 C   0  0  0  0  0  0  0  0  0  0  0  0
    5.4641   -0.9749    0.0000 C   0  0  0  0  0  0  0  0  0  0  0  0
    3.7320   -0.9749    0.0000 C   0  0  0  0  0  0  0  0  0  0  0  0
    4.5981    1.5251    0.0000 C   0  0  0  0  0  0  0  0  0  0  0  0
    4.5981   -2.4749    0.0000 C   0  0  0  0  0  0  0  0  0  0  0  0
    5.4641    2.0251    0.0000 C   0  0  0  0  0  0  0  0  0  0  0  0
    8.0413    2.2569    0.0000 C   0  0  0  0  0  0  0  0  0  0  0  0
    8.6291    3.0660    0.0000 C   0  0  0  0  0  0  0  0  0  0  0  0
    6.3776    1.6183    0.0000 C   0  0  0  0  0  0  0  0  0  0  0  0
    3.7320   -2.9749    0.0000 C   0  0  0  0  0  0  0  0  0  0  0  0
    9.6236    2.9614    0.0000 C   0  0  0  0  0  0  0  0  0  0  0  0
    5.4641   -2.9749    0.0000 C   0  0  0  0  0  0  0  0  0  0  0  0
   10.2114    3.7704    0.0000 C   0  0  0  0  0  0  0  0  0  0  0  0
   11.2059    3.6659    0.0000 C   0  0  0  0  0  0  0  0  0  0  0  0
    3.7320   -3.9749    0.0000 C   0  0  0  0  0  0  0  0  0  0  0  0
    5.4641   -3.9749    0.0000 C   0  0  0  0  0  0  0  0  0  0  0  0
    4.5981   -4.4749    0.0000 C   0  0  0  0  0  0  0  0  0  0  0  0
   11.7937    4.4749    0.0000 C   0  0  0  0  0  0  0  0  0  0  0  0
    2.0000   -2.9749    0.0000 C   0  0  0  0  0  0  0  0  0  0  0  0
    6.0747   -0.0826    0.0000 H   0  0  0  0  0  0  0  0  0  0  0  0
    5.6762    0.6077    0.0000 H   0  0  0  0  0  0  0  0  0  0  0  0
    3.5200    0.6077    0.0000 H   0  0  0  0  0  0  0  0  0  0  0  0
    3.1215   -0.0826    0.0000 H   0  0  0  0  0  0  0  0  0  0  0  0
    5.6762   -1.5576    0.0000 H   0  0  0  0  0  0  0  0  0  0  0  0
    6.0747   -0.8673    0.0000 H   0  0  0  0  0  0  0  0  0  0  0  0
    3.1215   -0.8673    0.0000 H   0  0  0  0  0  0  0  0  0  0  0  0
    3.5200   -1.5576    0.0000 H   0  0  0  0  0  0  0  0  0  0  0  0
    4.3860    2.1077    0.0000 H   0  0  0  0  0  0  0  0  0  0  0  0
    3.9875    1.4174    0.0000 H   0  0  0  0  0  0  0  0  0  0  0  0
    7.8704    1.6610    0.0000 H   0  0  0  0  0  0  0  0  0  0  0  0
    8.5986    1.9852    0.0000 H   0  0  0  0  0  0  0  0  0  0  0  0
    8.8000    3.6619    0.0000 H   0  0  0  0  0  0  0  0  0  0  0  0
    8.0718    3.3378    0.0000 H   0  0  0  0  0  0  0  0  0  0  0  0
    6.5066    1.0119    0.0000 H   0  0  0  0  0  0  0  0  0  0  0  0
    9.4527    2.3654    0.0000 H   0  0  0  0  0  0  0  0  0  0  0  0
   10.1809    2.6896    0.0000 H   0  0  0  0  0  0  0  0  0  0  0  0
    6.0010   -2.6649    0.0000 H   0  0  0  0  0  0  0  0  0  0  0  0
   10.3823    4.3664    0.0000 H   0  0  0  0  0  0  0  0  0  0  0  0
    9.6541    4.0422    0.0000 H   0  0  0  0  0  0  0  0  0  0  0  0
   11.0350    3.0699    0.0000 H   0  0  0  0  0  0  0  0  0  0  0  0
   11.7632    3.3941    0.0000 H   0  0  0  0  0  0  0  0  0  0  0  0
    3.1951   -4.2849    0.0000 H   0  0  0  0  0  0  0  0  0  0  0  0
    6.0010   -4.2849    0.0000 H   0  0  0  0  0  0  0  0  0  0  0  0
    4.5981   -5.0949    0.0000 H   0  0  0  0  0  0  0  0  0  0  0  0
   11.9646    5.0709    0.0000 H   0  0  0  0  0  0  0  0  0  0  0  0
   11.2364    4.7467    0.0000 H   0  0  0  0  0  0  0  0  0  0  0  0
    1.6900   -2.4380    0.0000 H   0  0  0  0  0  0  0  0  0  0  0  0
    1.4631   -3.2849    0.0000 H   0  0  0  0  0  0  0  0  0  0  0  0
    2.3100   -3.5119    0.0000 H   0  0  0  0  0  0  0  0  0  0  0  0
  1 26  1  0  0  0  0
  2 18  1  0  0  0  0
  2 27  1  0  0  0  0
  3  8  1  0  0  0  0
  3  9  1  0  0  0  0
  3 12  1  0  0  0  0
  4 10  1  0  0  0  0
  4 11  1  0  0  0  0
  4 13  1  0  0  0  0
  5  7  1  0  0  0  0
  5 15  1  0  0  0  0
  5 17  1  0  0  0  0
  6  7  2  0  0  0  0
  6 14  1  0  0  0  0
  8 10  1  0  0  0  0
  8 28  1  0  0  0  0
  8 29  1  0  0  0  0
  9 11  1  0  0  0  0
  9 30  1  0  0  0  0
  9 31  1  0  0  0  0
 10 32  1  0  0  0  0
 10 33  1  0  0  0  0
 11 34  1  0  0  0  0
 11 35  1  0  0  0  0
 12 14  1  0  0  0  0
 12 36  1  0  0  0  0
 12 37  1  0  0  0  0
 13 18  1  0  0  0  0
 13 20  2  0  0  0  0
 14 17  2  0  0  0  0
 15 16  1  0  0  0  0
 15 38  1  0  0  0  0
 15 39  1  0  0  0  0
 16 19  1  0  0  0  0
 16 40  1  0  0  0  0
 16 41  1  0  0  0  0
 17 42  1  0  0  0  0
 18 23  2  0  0  0  0
 19 21  1  0  0  0  0
 19 43  1  0  0  0  0
 19 44  1  0  0  0  0
 20 24  1  0  0  0  0
 20 45  1  0  0  0  0
 21 22  1  0  0  0  0
 21 46  1  0  0  0  0
 21 47  1  0  0  0  0
 22 26  1  0  0  0  0
 22 48  1  0  0  0  0
 22 49  1  0  0  0  0
 23 25  1  0  0  0  0
 23 50  1  0  0  0  0
 24 25  2  0  0  0  0
 24 51  1  0  0  0  0
 25 52  1  0  0  0  0
 26 53  1  0  0  0  0
 26 54  1  0  0  0  0
 27 55  1  0  0  0  0
 27 56  1  0  0  0  0
 27 57  1  0  0  0  0
M  END
> <PUBCHEM_COMPOUND_CID>
72544566

> <PUBCHEM_COMPOUND_CANONICALIZED>
1

> <PUBCHEM_CACTVS_COMPLEXITY>
408

> <PUBCHEM_CACTVS_HBOND_ACCEPTOR>
6

> <PUBCHEM_CACTVS_HBOND_DONOR>
0

> <PUBCHEM_CACTVS_ROTATABLE_BOND>
10

> <PUBCHEM_CACTVS_SUBSKEYS>
AAADceB7oQAAAAAAAAAAAAAAAAAAAWAAAAA8QAAAAAAAAAABwAAAHwAIAAAACAzBlgY+xpMIBACiATRnRACCDAQxsgAY2AA/fIgOZiLE8ZuVMChkwBHY6AeQQAAAAAAAAAAAEAAAAAAAAAAgAAAAAAAAAA==

> <PUBCHEM_IUPAC_OPENEYE_NAME>
1-[[1-(6-fluorohexyl)triazol-4-yl]methyl]-4-(2-methoxyphenyl)piperazine

> <PUBCHEM_IUPAC_CAS_NAME>
1-[[1-(6-fluorohexyl)-4-triazolyl]methyl]-4-(2-methoxyphenyl)piperazine

> <PUBCHEM_IUPAC_NAME_MARKUP>
1-[[1-(6-fluorohexyl)triazol-4-yl]methyl]-4-(2-methoxyphenyl)piperazine

> <PUBCHEM_IUPAC_NAME>
1-[[1-(6-fluorohexyl)triazol-4-yl]methyl]-4-(2-methoxyphenyl)piperazine

> <PUBCHEM_IUPAC_SYSTEMATIC_NAME>
1-[[1-(6-fluoranylhexyl)-1,2,3-triazol-4-yl]methyl]-4-(2-methoxyphenyl)piperazine

> <PUBCHEM_IUPAC_TRADITIONAL_NAME>
1-[[1-(6-fluorohexyl)triazol-4-yl]methyl]-4-(2-methoxyphenyl)piperazine

> <PUBCHEM_IUPAC_INCHI>
InChI=1S/C20H30FN5O/c1-27-20-9-5-4-8-19(20)25-14-12-24(13-15-25)16-18-17-26(23-22-18)11-7-3-2-6-10-21/h4-5,8-9,17H,2-3,6-7,10-16H2,1H3

> <PUBCHEM_IUPAC_INCHIKEY>
UQNPMHBOQOCPSK-UHFFFAOYSA-N

> <PUBCHEM_XLOGP3_AA>
2.8

> <PUBCHEM_EXACT_MASS>
375.24343876

> <PUBCHEM_MOLECULAR_FORMULA>
C20H30FN5O

> <PUBCHEM_MOLECULAR_WEIGHT>
375.5

> <PUBCHEM_OPENEYE_CAN_SMILES>
COC1=CC=CC=C1N2CCN(CC2)CC3=CN(N=N3)CCCCCCF

> <PUBCHEM_OPENEYE_ISO_SMILES>
COC1=CC=CC=C1N2CCN(CC2)CC3=CN(N=N3)CCCCCCF

> <PUBCHEM_CACTVS_TPSA>
46.4

> <PUBCHEM_MONOISOTOPIC_WEIGHT>
375.24343876

> <PUBCHEM_TOTAL_CHARGE>
0

> <PUBCHEM_HEAVY_ATOM_COUNT>
27

> <PUBCHEM_ATOM_DEF_STEREO_COUNT>
0

> <PUBCHEM_ATOM_UDEF_STEREO_COUNT>
0

> <PUBCHEM_BOND_DEF_STEREO_COUNT>
0

> <PUBCHEM_BOND_UDEF_STEREO_COUNT>
0

> <PUBCHEM_ISOTOPIC_ATOM_COUNT>
0

> <PUBCHEM_COMPONENT_COUNT>
1

> <PUBCHEM_CACTVS_TAUTO_COUNT>
-1

> <PUBCHEM_COORDINATE_TYPE>
1
5
255

> <PUBCHEM_BONDANNOTATIONS>
13  18  8
13  20  8
14  17  8
18  23  8
20  24  8
23  25  8
24  25  8
5  17  8
5  7  8
6  14  8
6  7  8

$$$$
