16660294
  -OEChem-09292322472D

 38 40  0     0  0  0  0  0  0999 V2000
    3.7690    0.2901    0.0000 S   0  0  0  0  0  0  0  0  0  0  0  0
    7.3012    5.2487    0.0000 F   0  0  0  0  0  0  0  0  0  0  0  0
    3.9555    2.1172    0.0000 O   0  0  0  0  0  0  0  0  0  0  0  0
    5.3568    1.0991    0.0000 N   0  0  0  0  0  0  0  0  0  0  0  0
    5.0780   -0.6610    0.0000 N   0  0  0  0  0  0  0  0  0  0  0  0
    5.1350   -2.7487    0.0000 N   0  0  0  0  0  0  0  0  0  0  0  0
    2.5369   -4.2487    0.0000 N   0  0  0  0  0  0  0  0  0  0  0  0
    4.2690   -4.2487    0.0000 N   0  0  0  0  0  0  0  0  0  0  0  0
    4.7690    0.2901    0.0000 C   0  0  0  0  0  0  0  0  0  0  0  0
    4.2690   -1.2487    0.0000 C   0  0  0  0  0  0  0  0  0  0  0  0
    4.9500    2.0127    0.0000 C   0  0  0  0  0  0  0  0  0  0  0  0
    5.5378    2.8217    0.0000 C   0  0  0  0  0  0  0  0  0  0  0  0
    4.2690   -2.2487    0.0000 C   0  0  0  0  0  0  0  0  0  0  0  0
    6.3513    0.9946    0.0000 C   0  0  0  0  0  0  0  0  0  0  0  0
    3.4600   -0.6610    0.0000 C   0  0  0  0  0  0  0  0  0  0  0  0
    3.4030   -2.7487    0.0000 C   0  0  0  0  0  0  0  0  0  0  0  0
    6.5323    2.7172    0.0000 C   0  0  0  0  0  0  0  0  0  0  0  0
    5.1311    3.7352    0.0000 C   0  0  0  0  0  0  0  0  0  0  0  0
    3.4030   -3.7487    0.0000 C   0  0  0  0  0  0  0  0  0  0  0  0
    7.1201    3.5262    0.0000 C   0  0  0  0  0  0  0  0  0  0  0  0
    5.7189    4.5442    0.0000 C   0  0  0  0  0  0  0  0  0  0  0  0
    6.7134    4.4397    0.0000 C   0  0  0  0  0  0  0  0  0  0  0  0
    5.1350   -3.7487    0.0000 C   0  0  0  0  0  0  0  0  0  0  0  0
    2.5369   -5.2487    0.0000 C   0  0  0  0  0  0  0  0  0  0  0  0
    6.2865    0.3780    0.0000 H   0  0  0  0  0  0  0  0  0  0  0  0
    6.9679    0.9298    0.0000 H   0  0  0  0  0  0  0  0  0  0  0  0
    6.4161    1.6112    0.0000 H   0  0  0  0  0  0  0  0  0  0  0  0
    2.8703   -0.8525    0.0000 H   0  0  0  0  0  0  0  0  0  0  0  0
    2.8660   -2.4387    0.0000 H   0  0  0  0  0  0  0  0  0  0  0  0
    6.7845    2.1508    0.0000 H   0  0  0  0  0  0  0  0  0  0  0  0
    4.5145    3.8000    0.0000 H   0  0  0  0  0  0  0  0  0  0  0  0
    7.7367    3.4614    0.0000 H   0  0  0  0  0  0  0  0  0  0  0  0
    5.4667    5.1106    0.0000 H   0  0  0  0  0  0  0  0  0  0  0  0
    2.0000   -3.9387    0.0000 H   0  0  0  0  0  0  0  0  0  0  0  0
    5.6720   -4.0587    0.0000 H   0  0  0  0  0  0  0  0  0  0  0  0
    1.9169   -5.2487    0.0000 H   0  0  0  0  0  0  0  0  0  0  0  0
    2.5369   -5.8687    0.0000 H   0  0  0  0  0  0  0  0  0  0  0  0
    3.1569   -5.2487    0.0000 H   0  0  0  0  0  0  0  0  0  0  0  0
  1  9  1  0  0  0  0
  1 15  1  0  0  0  0
  2 22  1  0  0  0  0
  3 11  2  0  0  0  0
  4  9  1  0  0  0  0
  4 11  1  0  0  0  0
  4 14  1  0  0  0  0
  5  9  2  0  0  0  0
  5 10  1  0  0  0  0
  6 13  1  0  0  0  0
  6 23  2  0  0  0  0
  7 19  1  0  0  0  0
  7 24  1  0  0  0  0
  7 34  1  0  0  0  0
  8 19  2  0  0  0  0
  8 23  1  0  0  0  0
 10 13  1  0  0  0  0
 10 15  2  0  0  0  0
 11 12  1  0  0  0  0
 12 17  2  0  0  0  0
 12 18  1  0  0  0  0
 13 16  2  0  0  0  0
 14 25  1  0  0  0  0
 14 26  1  0  0  0  0
 14 27  1  0  0  0  0
 15 28  1  0  0  0  0
 16 19  1  0  0  0  0
 16 29  1  0  0  0  0
 17 20  1  0  0  0  0
 17 30  1  0  0  0  0
 18 21  2  0  0  0  0
 18 31  1  0  0  0  0
 20 22  2  0  0  0  0
 20 32  1  0  0  0  0
 21 22  1  0  0  0  0
 21 33  1  0  0  0  0
 23 35  1  0  0  0  0
 24 36  1  0  0  0  0
 24 37  1  0  0  0  0
 24 38  1  0  0  0  0
M  END
> <PUBCHEM_COMPOUND_CID>
16660294

> <PUBCHEM_COMPOUND_CANONICALIZED>
1

> <PUBCHEM_CACTVS_COMPLEXITY>
435

> <PUBCHEM_CACTVS_HBOND_ACCEPTOR>
7

> <PUBCHEM_CACTVS_HBOND_DONOR>
1

> <PUBCHEM_CACTVS_ROTATABLE_BOND>
4

> <PUBCHEM_CACTVS_SUBSKEYS>
AAADccB7oQBAAAAAAAAAAAAAAAAAAWAAAAA8QAAAAAAAAAAB8AAAHwQQAAAADAiF3gy3sZfIEAisAydzdACC8Kl1CrgJ2LU4ZNiIaLLg3dGUJQhokwJIyacYiACOAAAAAAAAAAAAAAAAAAAAAAAAAAAAAA==

> <PUBCHEM_IUPAC_OPENEYE_NAME>
4-fluoro-N-methyl-N-[4-[6-(methylamino)pyrimidin-4-yl]thiazol-2-yl]benzamide

> <PUBCHEM_IUPAC_CAS_NAME>
4-fluoro-N-methyl-N-[4-[6-(methylamino)-4-pyrimidinyl]-2-thiazolyl]benzamide

> <PUBCHEM_IUPAC_NAME_MARKUP>
4-fluoro-<I>N</I>-methyl-<I>N</I>-[4-[6-(methylamino)pyrimidin-4-yl]-1,3-thiazol-2-yl]benzamide

> <PUBCHEM_IUPAC_NAME>
4-fluoro-N-methyl-N-[4-[6-(methylamino)pyrimidin-4-yl]-1,3-thiazol-2-yl]benzamide

> <PUBCHEM_IUPAC_SYSTEMATIC_NAME>
4-fluoranyl-N-methyl-N-[4-[6-(methylamino)pyrimidin-4-yl]-1,3-thiazol-2-yl]benzamide

> <PUBCHEM_IUPAC_TRADITIONAL_NAME>
4-fluoro-N-methyl-N-[4-[6-(methylamino)pyrimidin-4-yl]thiazol-2-yl]benzamide

> <PUBCHEM_IUPAC_INCHI>
InChI=1S/C16H14FN5OS/c1-18-14-7-12(19-9-20-14)13-8-24-16(21-13)22(2)15(23)10-3-5-11(17)6-4-10/h3-9H,1-2H3,(H,18,19,20)

> <PUBCHEM_IUPAC_INCHIKEY>
UTPGRZGMQVAYAA-UHFFFAOYSA-N

> <PUBCHEM_XLOGP3_AA>
2.7

> <PUBCHEM_EXACT_MASS>
343.09030942

> <PUBCHEM_MOLECULAR_FORMULA>
C16H14FN5OS

> <PUBCHEM_MOLECULAR_WEIGHT>
343.4

> <PUBCHEM_OPENEYE_CAN_SMILES>
CNC1=NC=NC(=C1)C2=CSC(=N2)N(C)C(=O)C3=CC=C(C=C3)F

> <PUBCHEM_OPENEYE_ISO_SMILES>
CNC1=NC=NC(=C1)C2=CSC(=N2)N(C)C(=O)C3=CC=C(C=C3)F

> <PUBCHEM_CACTVS_TPSA>
99.2

> <PUBCHEM_MONOISOTOPIC_WEIGHT>
343.09030942

> <PUBCHEM_TOTAL_CHARGE>
0

> <PUBCHEM_HEAVY_ATOM_COUNT>
24

> <PUBCHEM_ATOM_DEF_STEREO_COUNT>
0

> <PUBCHEM_ATOM_UDEF_STEREO_COUNT>
0

> <PUBCHEM_BOND_DEF_STEREO_COUNT>
0

> <PUBCHEM_BOND_UDEF_STEREO_COUNT>
0

> <PUBCHEM_ISOTOPIC_ATOM_COUNT>
0

> <PUBCHEM_COMPONENT_COUNT>
1

> <PUBCHEM_CACTVS_TAUTO_COUNT>
3

> <PUBCHEM_COORDINATE_TYPE>
1
5
255

> <PUBCHEM_BONDANNOTATIONS>
1  15  8
1  9  8
10  15  8
12  17  8
12  18  8
13  16  8
16  19  8
17  20  8
18  21  8
20  22  8
21  22  8
5  10  8
5  9  8
6  13  8
6  23  8
8  19  8
8  23  8

$$$$
