11647002
  -OEChem-09292322022D

 52 55  0     1  0  0  0  0  0999 V2000
    7.1270   -2.5194    0.0000 S   0  0  0  0  0  0  0  0  0  0  0  0
    4.2213    2.3396    0.0000 O   0  0  0  0  0  0  0  0  0  0  0  0
    6.1808   -0.8241    0.0000 O   0  0  0  0  0  0  0  0  0  0  0  0
    5.3147   -5.3241    0.0000 O   0  0  0  0  0  0  0  0  0  0  0  0
    8.7106   -3.3241    0.0000 O   0  0  0  0  0  0  0  0  0  0  0  0
    4.4487    0.1759    0.0000 N   0  0  0  0  0  0  0  0  0  0  0  0
    7.1270   -4.1288    0.0000 N   0  0  0  0  0  0  0  0  0  0  0  0
    3.5827    0.6759    0.0000 C   0  0  2  0  0  0  0  0  0  0  0  0
    3.4782    1.6704    0.0000 C   0  0  2  0  0  0  0  0  0  0  0  0
    2.6691    0.2692    0.0000 C   0  0  0  0  0  0  0  0  0  0  0  0
    2.5000    1.8783    0.0000 C   0  0  0  0  0  0  0  0  0  0  0  0
    2.0000    1.0123    0.0000 C   0  0  0  0  0  0  0  0  0  0  0  0
    4.4487   -0.8241    0.0000 C   0  0  0  0  0  0  0  0  0  0  0  0
    5.3147   -1.3241    0.0000 C   0  0  1  0  0  0  0  0  0  0  0  0
    4.0134    3.3177    0.0000 C   0  0  0  0  0  0  0  0  0  0  0  0
    5.3147   -2.3241    0.0000 C   0  0  0  0  0  0  0  0  0  0  0  0
    4.7565    3.9868    0.0000 C   0  0  0  0  0  0  0  0  0  0  0  0
    6.1808   -2.8241    0.0000 C   0  0  0  0  0  0  0  0  0  0  0  0
    4.4487   -2.8241    0.0000 C   0  0  0  0  0  0  0  0  0  0  0  0
    6.1808   -3.8241    0.0000 C   0  0  0  0  0  0  0  0  0  0  0  0
    4.4487   -3.8241    0.0000 C   0  0  0  0  0  0  0  0  0  0  0  0
    5.3147   -4.3241    0.0000 C   0  0  0  0  0  0  0  0  0  0  0  0
    4.5486    4.9650    0.0000 C   0  0  0  0  0  0  0  0  0  0  0  0
    5.7076    3.6778    0.0000 C   0  0  0  0  0  0  0  0  0  0  0  0
    7.7106   -3.3241    0.0000 C   0  0  0  0  0  0  0  0  0  0  0  0
    5.2918    5.6341    0.0000 C   0  0  0  0  0  0  0  0  0  0  0  0
    6.4507    4.3469    0.0000 C   0  0  0  0  0  0  0  0  0  0  0  0
    6.2428    5.3251    0.0000 C   0  0  0  0  0  0  0  0  0  0  0  0
    4.1026    1.0136    0.0000 H   0  0  0  0  0  0  0  0  0  0  0  0
    3.3177    2.2693    0.0000 H   0  0  0  0  0  0  0  0  0  0  0  0
    2.1675   -0.0953    0.0000 H   0  0  0  0  0  0  0  0  0  0  0  0
    2.9791   -0.2678    0.0000 H   0  0  0  0  0  0  0  0  0  0  0  0
    2.6916    2.4680    0.0000 H   0  0  0  0  0  0  0  0  0  0  0  0
    1.9336    2.1305    0.0000 H   0  0  0  0  0  0  0  0  0  0  0  0
    1.4984    1.3767    0.0000 H   0  0  0  0  0  0  0  0  0  0  0  0
    1.5851    0.5516    0.0000 H   0  0  0  0  0  0  0  0  0  0  0  0
    4.9856    0.4859    0.0000 H   0  0  0  0  0  0  0  0  0  0  0  0
    3.8381   -0.7164    0.0000 H   0  0  0  0  0  0  0  0  0  0  0  0
    4.2366   -1.4067    0.0000 H   0  0  0  0  0  0  0  0  0  0  0  0
    5.3147   -0.7041    0.0000 H   0  0  0  0  0  0  0  0  0  0  0  0
    3.6848    3.8435    0.0000 H   0  0  0  0  0  0  0  0  0  0  0  0
    3.4385    3.0854    0.0000 H   0  0  0  0  0  0  0  0  0  0  0  0
    6.1808   -0.2041    0.0000 H   0  0  0  0  0  0  0  0  0  0  0  0
    3.9118   -2.5141    0.0000 H   0  0  0  0  0  0  0  0  0  0  0  0
    3.9118   -4.1341    0.0000 H   0  0  0  0  0  0  0  0  0  0  0  0
    3.9590    5.1566    0.0000 H   0  0  0  0  0  0  0  0  0  0  0  0
    5.8365    3.0714    0.0000 H   0  0  0  0  0  0  0  0  0  0  0  0
    7.3196   -4.7182    0.0000 H   0  0  0  0  0  0  0  0  0  0  0  0
    5.1628    6.2406    0.0000 H   0  0  0  0  0  0  0  0  0  0  0  0
    7.0404    4.1554    0.0000 H   0  0  0  0  0  0  0  0  0  0  0  0
    6.7036    5.7400    0.0000 H   0  0  0  0  0  0  0  0  0  0  0  0
    4.7778   -5.6341    0.0000 H   0  0  0  0  0  0  0  0  0  0  0  0
  1 18  1  0  0  0  0
  1 25  1  0  0  0  0
  9  2  1  6  0  0  0
  2 15  1  0  0  0  0
 14  3  1  6  0  0  0
  3 43  1  0  0  0  0
  4 22  1  0  0  0  0
  4 52  1  0  0  0  0
  5 25  2  0  0  0  0
  8  6  1  1  0  0  0
  6 13  1  0  0  0  0
  6 37  1  0  0  0  0
  7 20  1  0  0  0  0
  7 25  1  0  0  0  0
  7 48  1  0  0  0  0
  8  9  1  0  0  0  0
  8 10  1  0  0  0  0
  8 29  1  0  0  0  0
  9 11  1  0  0  0  0
  9 30  1  0  0  0  0
 10 12  1  0  0  0  0
 10 31  1  0  0  0  0
 10 32  1  0  0  0  0
 11 12  1  0  0  0  0
 11 33  1  0  0  0  0
 11 34  1  0  0  0  0
 12 35  1  0  0  0  0
 12 36  1  0  0  0  0
 13 14  1  0  0  0  0
 13 38  1  0  0  0  0
 13 39  1  0  0  0  0
 14 16  1  0  0  0  0
 14 40  1  0  0  0  0
 15 17  1  0  0  0  0
 15 41  1  0  0  0  0
 15 42  1  0  0  0  0
 16 18  2  0  0  0  0
 16 19  1  0  0  0  0
 17 23  2  0  0  0  0
 17 24  1  0  0  0  0
 18 20  1  0  0  0  0
 19 21  2  0  0  0  0
 19 44  1  0  0  0  0
 20 22  2  0  0  0  0
 21 22  1  0  0  0  0
 21 45  1  0  0  0  0
 23 26  1  0  0  0  0
 23 46  1  0  0  0  0
 24 27  2  0  0  0  0
 24 47  1  0  0  0  0
 26 28  2  0  0  0  0
 26 49  1  0  0  0  0
 27 28  1  0  0  0  0
 27 50  1  0  0  0  0
 28 51  1  0  0  0  0
M  END
> <PUBCHEM_COMPOUND_CID>
11647002

> <PUBCHEM_COMPOUND_CANONICALIZED>
1

> <PUBCHEM_CACTVS_COMPLEXITY>
531

> <PUBCHEM_CACTVS_HBOND_ACCEPTOR>
6

> <PUBCHEM_CACTVS_HBOND_DONOR>
4

> <PUBCHEM_CACTVS_ROTATABLE_BOND>
7

> <PUBCHEM_CACTVS_SUBSKEYS>
AAADceB7OABAAAAAAAAAAAAAAAAAAeIAAAAwYAAAAAAAAFgBQAAAHgQQCAAADDzh2AYwx4LABgiIAiRCUACCAABhKBAIiJQPTIgKNiLysZuHcAhk1BHY+Aew8KYOIAAARAAEEQBAAACIAAgiAAAAAAgAAA==

> <PUBCHEM_IUPAC_OPENEYE_NAME>
7-[(1R)-2-[[(1S,2S)-2-benzyloxycyclopentyl]amino]-1-hydroxy-ethyl]-4-hydroxy-3H-1,3-benzothiazol-2-one

> <PUBCHEM_IUPAC_CAS_NAME>
4-hydroxy-7-[(1R)-1-hydroxy-2-[[(1S,2S)-2-phenylmethoxycyclopentyl]amino]ethyl]-3H-1,3-benzothiazol-2-one

> <PUBCHEM_IUPAC_NAME_MARKUP>
4-hydroxy-7-[(1<I>R</I>)-1-hydroxy-2-[[(1<I>S</I>,2<I>S</I>)-2-phenylmethoxycyclopentyl]amino]ethyl]-3<I>H</I>-1,3-benzothiazol-2-one

> <PUBCHEM_IUPAC_NAME>
4-hydroxy-7-[(1R)-1-hydroxy-2-[[(1S,2S)-2-phenylmethoxycyclopentyl]amino]ethyl]-3H-1,3-benzothiazol-2-one

> <PUBCHEM_IUPAC_SYSTEMATIC_NAME>
4-oxidanyl-7-[(1R)-1-oxidanyl-2-[[(1S,2S)-2-phenylmethoxycyclopentyl]amino]ethyl]-3H-1,3-benzothiazol-2-one

> <PUBCHEM_IUPAC_TRADITIONAL_NAME>
7-[(1R)-2-[[(1S,2S)-2-benzoxycyclopentyl]amino]-1-hydroxy-ethyl]-4-hydroxy-3H-1,3-benzothiazol-2-one

> <PUBCHEM_IUPAC_INCHI>
InChI=1S/C21H24N2O4S/c24-16-10-9-14(20-19(16)23-21(26)28-20)17(25)11-22-15-7-4-8-18(15)27-12-13-5-2-1-3-6-13/h1-3,5-6,9-10,15,17-18,22,24-25H,4,7-8,11-12H2,(H,23,26)/t15-,17-,18-/m0/s1

> <PUBCHEM_IUPAC_INCHIKEY>
QTWVYUJFBIVOHT-SZMVWBNQSA-N

> <PUBCHEM_XLOGP3_AA>
2.4

> <PUBCHEM_EXACT_MASS>
400.14567842

> <PUBCHEM_MOLECULAR_FORMULA>
C21H24N2O4S

> <PUBCHEM_MOLECULAR_WEIGHT>
400.5

> <PUBCHEM_OPENEYE_CAN_SMILES>
C1CC(C(C1)OCC2=CC=CC=C2)NCC(C3=C4C(=C(C=C3)O)NC(=O)S4)O

> <PUBCHEM_OPENEYE_ISO_SMILES>
C1C[C@@H]([C@H](C1)OCC2=CC=CC=C2)NC[C@@H](C3=C4C(=C(C=C3)O)NC(=O)S4)O

> <PUBCHEM_CACTVS_TPSA>
116

> <PUBCHEM_MONOISOTOPIC_WEIGHT>
400.14567842

> <PUBCHEM_TOTAL_CHARGE>
0

> <PUBCHEM_HEAVY_ATOM_COUNT>
28

> <PUBCHEM_ATOM_DEF_STEREO_COUNT>
3

> <PUBCHEM_ATOM_UDEF_STEREO_COUNT>
0

> <PUBCHEM_BOND_DEF_STEREO_COUNT>
0

> <PUBCHEM_BOND_UDEF_STEREO_COUNT>
0

> <PUBCHEM_ISOTOPIC_ATOM_COUNT>
0

> <PUBCHEM_COMPONENT_COUNT>
1

> <PUBCHEM_CACTVS_TAUTO_COUNT>
-1

> <PUBCHEM_COORDINATE_TYPE>
1
5
255

> <PUBCHEM_BONDANNOTATIONS>
1  18  8
1  25  8
16  18  8
16  19  8
17  23  8
17  24  8
18  20  8
19  21  8
9  2  6
20  22  8
21  22  8
23  26  8
24  27  8
26  28  8
27  28  8
14  3  6
8  6  5
7  20  8
7  25  8

$$$$
