44353413
  -OEChem-09292322192D

 58 62  0     1  0  0  0  0  0999 V2000
    2.8660    4.6937    0.0000 F   0  0  0  0  0  0  0  0  0  0  0  0
    4.9889    4.4490    0.0000 O   0  0  0  0  0  0  0  0  0  0  0  0
    4.9889    0.9384    0.0000 O   0  0  0  0  0  0  0  0  0  0  0  0
    9.7619    0.0956    0.0000 N   0  0  3  0  0  0  0  0  0  0  0  0
    5.2619    2.6937    0.0000 N   0  0  0  0  0  0  0  0  0  0  0  0
   11.5938   -4.0773    0.0000 N   0  0  0  0  0  0  0  0  0  0  0  0
    9.2619   -0.7704    0.0000 C   0  0  0  0  0  0  0  0  0  0  0  0
    9.2619    0.9616    0.0000 C   0  0  0  0  0  0  0  0  0  0  0  0
    9.7619   -1.6364    0.0000 C   0  0  0  0  0  0  0  0  0  0  0  0
    8.2619    0.9616    0.0000 C   0  0  0  0  0  0  0  0  0  0  0  0
   10.7619    0.0956    0.0000 C   0  0  0  0  0  0  0  0  0  0  0  0
   10.7619   -1.6364    0.0000 C   0  0  0  0  0  0  0  0  0  0  0  0
    7.7619    1.8277    0.0000 C   0  0  0  0  0  0  0  0  0  0  0  0
   11.2619   -0.7704    0.0000 C   0  0  0  0  0  0  0  0  0  0  0  0
    6.7619    1.8277    0.0000 C   0  0  0  0  0  0  0  0  0  0  0  0
   11.2619   -2.5024    0.0000 C   0  0  0  0  0  0  0  0  0  0  0  0
    6.2619    2.6937    0.0000 C   0  0  0  0  0  0  0  0  0  0  0  0
   12.2506   -2.6055    0.0000 C   0  0  0  0  0  0  0  0  0  0  0  0
   10.8568   -3.4102    0.0000 C   0  0  0  0  0  0  0  0  0  0  0  0
   12.4568   -3.5840    0.0000 C   0  0  0  0  0  0  0  0  0  0  0  0
    4.6783    3.4984    0.0000 C   0  0  0  0  0  0  0  0  0  0  0  0
    4.6783    1.8890    0.0000 C   0  0  0  0  0  0  0  0  0  0  0  0
    3.7320    3.1937    0.0000 C   0  0  0  0  0  0  0  0  0  0  0  0
    3.7320    2.1937    0.0000 C   0  0  0  0  0  0  0  0  0  0  0  0
   12.9949   -1.9377    0.0000 C   0  0  0  0  0  0  0  0  0  0  0  0
   13.4073   -3.8947    0.0000 C   0  0  0  0  0  0  0  0  0  0  0  0
   13.9454   -2.2483    0.0000 C   0  0  0  0  0  0  0  0  0  0  0  0
    2.8660    3.6937    0.0000 C   0  0  0  0  0  0  0  0  0  0  0  0
    2.8660    1.6937    0.0000 C   0  0  0  0  0  0  0  0  0  0  0  0
   14.1516   -3.2268    0.0000 C   0  0  0  0  0  0  0  0  0  0  0  0
    2.0000    3.1937    0.0000 C   0  0  0  0  0  0  0  0  0  0  0  0
    2.0000    2.1937    0.0000 C   0  0  0  0  0  0  0  0  0  0  0  0
    8.7869   -0.3719    0.0000 H   0  0  0  0  0  0  0  0  0  0  0  0
    8.7869   -1.1689    0.0000 H   0  0  0  0  0  0  0  0  0  0  0  0
    9.8445    1.1737    0.0000 H   0  0  0  0  0  0  0  0  0  0  0  0
    9.1542    1.5722    0.0000 H   0  0  0  0  0  0  0  0  0  0  0  0
    9.1793   -1.8485    0.0000 H   0  0  0  0  0  0  0  0  0  0  0  0
    9.8695   -2.2470    0.0000 H   0  0  0  0  0  0  0  0  0  0  0  0
    7.6793    0.7496    0.0000 H   0  0  0  0  0  0  0  0  0  0  0  0
    8.3695    0.3511    0.0000 H   0  0  0  0  0  0  0  0  0  0  0  0
   11.3445    0.3077    0.0000 H   0  0  0  0  0  0  0  0  0  0  0  0
   10.6542    0.7062    0.0000 H   0  0  0  0  0  0  0  0  0  0  0  0
    8.3445    2.0397    0.0000 H   0  0  0  0  0  0  0  0  0  0  0  0
    7.6542    2.4382    0.0000 H   0  0  0  0  0  0  0  0  0  0  0  0
   11.8819   -0.7704    0.0000 H   0  0  0  0  0  0  0  0  0  0  0  0
    6.1793    1.6156    0.0000 H   0  0  0  0  0  0  0  0  0  0  0  0
    6.8695    1.2171    0.0000 H   0  0  0  0  0  0  0  0  0  0  0  0
    6.8445    2.9058    0.0000 H   0  0  0  0  0  0  0  0  0  0  0  0
    6.1542    3.3043    0.0000 H   0  0  0  0  0  0  0  0  0  0  0  0
   10.2501   -3.5381    0.0000 H   0  0  0  0  0  0  0  0  0  0  0  0
   11.5268   -4.6937    0.0000 H   0  0  0  0  0  0  0  0  0  0  0  0
   12.8670   -1.3310    0.0000 H   0  0  0  0  0  0  0  0  0  0  0  0
   13.5352   -4.5014    0.0000 H   0  0  0  0  0  0  0  0  0  0  0  0
   14.4069   -1.8343    0.0000 H   0  0  0  0  0  0  0  0  0  0  0  0
    2.8660    1.0737    0.0000 H   0  0  0  0  0  0  0  0  0  0  0  0
   14.7410   -3.4194    0.0000 H   0  0  0  0  0  0  0  0  0  0  0  0
    1.4631    3.5037    0.0000 H   0  0  0  0  0  0  0  0  0  0  0  0
    1.4631    1.8837    0.0000 H   0  0  0  0  0  0  0  0  0  0  0  0
  1 28  1  0  0  0  0
  2 21  2  0  0  0  0
  3 22  2  0  0  0  0
  4  7  1  0  0  0  0
  4  8  1  0  0  0  0
  4 11  1  0  0  0  0
  5 17  1  0  0  0  0
  5 21  1  0  0  0  0
  5 22  1  0  0  0  0
  6 19  1  0  0  0  0
  6 20  1  0  0  0  0
  6 51  1  0  0  0  0
  7  9  1  0  0  0  0
  7 33  1  0  0  0  0
  7 34  1  0  0  0  0
  8 10  1  0  0  0  0
  8 35  1  0  0  0  0
  8 36  1  0  0  0  0
  9 12  1  0  0  0  0
  9 37  1  0  0  0  0
  9 38  1  0  0  0  0
 10 13  1  0  0  0  0
 10 39  1  0  0  0  0
 10 40  1  0  0  0  0
 11 14  1  0  0  0  0
 11 41  1  0  0  0  0
 11 42  1  0  0  0  0
 12 14  2  0  0  0  0
 12 16  1  0  0  0  0
 13 15  1  0  0  0  0
 13 43  1  0  0  0  0
 13 44  1  0  0  0  0
 14 45  1  0  0  0  0
 15 17  1  0  0  0  0
 15 46  1  0  0  0  0
 15 47  1  0  0  0  0
 16 18  1  0  0  0  0
 16 19  2  0  0  0  0
 17 48  1  0  0  0  0
 17 49  1  0  0  0  0
 18 20  1  0  0  0  0
 18 25  2  0  0  0  0
 19 50  1  0  0  0  0
 20 26  2  0  0  0  0
 21 23  1  0  0  0  0
 22 24  1  0  0  0  0
 23 24  2  0  0  0  0
 23 28  1  0  0  0  0
 24 29  1  0  0  0  0
 25 27  1  0  0  0  0
 25 52  1  0  0  0  0
 26 30  1  0  0  0  0
 26 53  1  0  0  0  0
 27 30  2  0  0  0  0
 27 54  1  0  0  0  0
 28 31  2  0  0  0  0
 29 32  2  0  0  0  0
 29 55  1  0  0  0  0
 30 56  1  0  0  0  0
 31 32  1  0  0  0  0
 31 57  1  0  0  0  0
 32 58  1  0  0  0  0
M  END
> <PUBCHEM_COMPOUND_CID>
44353413

> <PUBCHEM_COMPOUND_CANONICALIZED>
1

> <PUBCHEM_CACTVS_COMPLEXITY>
741

> <PUBCHEM_CACTVS_HBOND_ACCEPTOR>
4

> <PUBCHEM_CACTVS_HBOND_DONOR>
1

> <PUBCHEM_CACTVS_ROTATABLE_BOND>
7

> <PUBCHEM_CACTVS_SUBSKEYS>
AAADceB7MQAAAAAAAAAAAAAAAAAAAWLAAAAwYIAAAAAAAFgB9AAAHwAQAAAADAjBngw8wPPJkACoAzV3VACCgCA1AiAI2aE4ZNgIIPLAlZGEIQhgliDIyYcdiMCOgAAAAAASAAAAAAAAACQAAAAAAAAAAA==

> <PUBCHEM_IUPAC_OPENEYE_NAME>
4-fluoro-2-[5-[4-(1H-indol-3-yl)-3,6-dihydro-2H-pyridin-1-yl]pentyl]isoindoline-1,3-dione

> <PUBCHEM_IUPAC_CAS_NAME>
4-fluoro-2-[5-[4-(1H-indol-3-yl)-3,6-dihydro-2H-pyridin-1-yl]pentyl]isoindole-1,3-dione

> <PUBCHEM_IUPAC_NAME_MARKUP>
4-fluoro-2-[5-[4-(1<I>H</I>-indol-3-yl)-3,6-dihydro-2<I>H</I>-pyridin-1-yl]pentyl]isoindole-1,3-dione

> <PUBCHEM_IUPAC_NAME>
4-fluoro-2-[5-[4-(1H-indol-3-yl)-3,6-dihydro-2H-pyridin-1-yl]pentyl]isoindole-1,3-dione

> <PUBCHEM_IUPAC_SYSTEMATIC_NAME>
4-fluoranyl-2-[5-[4-(1H-indol-3-yl)-3,6-dihydro-2H-pyridin-1-yl]pentyl]isoindole-1,3-dione

> <PUBCHEM_IUPAC_TRADITIONAL_NAME>
4-fluoro-2-[5-[4-(1H-indol-3-yl)-3,6-dihydro-2H-pyridin-1-yl]pentyl]isoindoline-1,3-quinone

> <PUBCHEM_IUPAC_INCHI>
InChI=1S/C26H26FN3O2/c27-22-9-6-8-20-24(22)26(32)30(25(20)31)14-5-1-4-13-29-15-11-18(12-16-29)21-17-28-23-10-3-2-7-19(21)23/h2-3,6-11,17,28H,1,4-5,12-16H2

> <PUBCHEM_IUPAC_INCHIKEY>
FVZDREXTEDTXIU-UHFFFAOYSA-N

> <PUBCHEM_XLOGP3_AA>
4.1

> <PUBCHEM_EXACT_MASS>
431.20090524

> <PUBCHEM_MOLECULAR_FORMULA>
C26H26FN3O2

> <PUBCHEM_MOLECULAR_WEIGHT>
431.5

> <PUBCHEM_OPENEYE_CAN_SMILES>
C1CN(CC=C1C2=CNC3=CC=CC=C32)CCCCCN4C(=O)C5=C(C4=O)C(=CC=C5)F

> <PUBCHEM_OPENEYE_ISO_SMILES>
C1CN(CC=C1C2=CNC3=CC=CC=C32)CCCCCN4C(=O)C5=C(C4=O)C(=CC=C5)F

> <PUBCHEM_CACTVS_TPSA>
56.4

> <PUBCHEM_MONOISOTOPIC_WEIGHT>
431.20090524

> <PUBCHEM_TOTAL_CHARGE>
0

> <PUBCHEM_HEAVY_ATOM_COUNT>
32

> <PUBCHEM_ATOM_DEF_STEREO_COUNT>
0

> <PUBCHEM_ATOM_UDEF_STEREO_COUNT>
0

> <PUBCHEM_BOND_DEF_STEREO_COUNT>
0

> <PUBCHEM_BOND_UDEF_STEREO_COUNT>
0

> <PUBCHEM_ISOTOPIC_ATOM_COUNT>
0

> <PUBCHEM_COMPONENT_COUNT>
1

> <PUBCHEM_CACTVS_TAUTO_COUNT>
-1

> <PUBCHEM_COORDINATE_TYPE>
1
5
255

> <PUBCHEM_BONDANNOTATIONS>
16  18  8
16  19  8
18  20  8
18  25  8
20  26  8
23  24  8
23  28  8
24  29  8
25  27  8
26  30  8
27  30  8
28  31  8
29  32  8
31  32  8
6  19  8
6  20  8

$$$$
