9820085
  -OEChem-09292322502D

 49 52  0     1  0  0  0  0  0999 V2000
    6.6237    3.2846    0.0000 S   0  0  0  0  0  0  0  0  0  0  0  0
    4.9889   -5.0442    0.0000 O   0  0  0  0  0  0  0  0  0  0  0  0
    6.2781   -0.3770    0.0000 N   0  0  0  0  0  0  0  0  0  0  0  0
    6.8994    1.5241    0.0000 N   0  0  0  0  0  0  0  0  0  0  0  0
    5.2619   -3.2890    0.0000 N   0  0  0  0  0  0  0  0  0  0  0  0
    8.1617    2.7820    0.0000 N   0  0  0  0  0  0  0  0  0  0  0  0
    5.9674   -1.3275    0.0000 C   0  0  0  0  0  0  0  0  0  0  0  0
    7.2566   -0.1708    0.0000 C   0  0  0  0  0  0  0  0  0  0  0  0
    5.6103    0.3673    0.0000 C   0  0  0  0  0  0  0  0  0  0  0  0
    4.9889   -1.5337    0.0000 C   0  0  0  0  0  0  0  0  0  0  0  0
    4.6783   -2.4842    0.0000 C   0  0  3  0  0  0  0  0  0  0  0  0
    7.5673    0.7798    0.0000 C   0  0  0  0  0  0  0  0  0  0  0  0
    5.9209    1.3178    0.0000 C   0  0  0  0  0  0  0  0  0  0  0  0
    3.7320   -2.7890    0.0000 C   0  0  0  0  0  0  0  0  0  0  0  0
    3.7320   -3.7890    0.0000 C   0  0  0  0  0  0  0  0  0  0  0  0
    7.2101    2.4746    0.0000 C   0  0  0  0  0  0  0  0  0  0  0  0
    4.6783   -4.0937    0.0000 C   0  0  0  0  0  0  0  0  0  0  0  0
    2.8660   -2.2890    0.0000 C   0  0  0  0  0  0  0  0  0  0  0  0
    2.8660   -4.2890    0.0000 C   0  0  0  0  0  0  0  0  0  0  0  0
    2.0000   -2.7890    0.0000 C   0  0  0  0  0  0  0  0  0  0  0  0
    2.0000   -3.7890    0.0000 C   0  0  0  0  0  0  0  0  0  0  0  0
    7.2129    4.0926    0.0000 C   0  0  0  0  0  0  0  0  0  0  0  0
    8.1634    3.7820    0.0000 C   0  0  0  0  0  0  0  0  0  0  0  0
    6.9055    5.0442    0.0000 C   0  0  0  0  0  0  0  0  0  0  0  0
    8.9734    4.3684    0.0000 C   0  0  0  0  0  0  0  0  0  0  0  0
    5.9880   -1.9472    0.0000 H   0  0  0  0  0  0  0  0  0  0  0  0
    6.5812   -1.4148    0.0000 H   0  0  0  0  0  0  0  0  0  0  0  0
    7.2772   -0.7904    0.0000 H   0  0  0  0  0  0  0  0  0  0  0  0
    7.8704   -0.2581    0.0000 H   0  0  0  0  0  0  0  0  0  0  0  0
    5.0633    0.6594    0.0000 H   0  0  0  0  0  0  0  0  0  0  0  0
    5.2277   -0.1206    0.0000 H   0  0  0  0  0  0  0  0  0  0  0  0
    4.9684   -0.9140    0.0000 H   0  0  0  0  0  0  0  0  0  0  0  0
    4.3751   -1.4464    0.0000 H   0  0  0  0  0  0  0  0  0  0  0  0
    5.2908   -2.3880    0.0000 H   0  0  0  0  0  0  0  0  0  0  0  0
    8.1142    0.4878    0.0000 H   0  0  0  0  0  0  0  0  0  0  0  0
    7.9498    1.2677    0.0000 H   0  0  0  0  0  0  0  0  0  0  0  0
    5.9004    1.9375    0.0000 H   0  0  0  0  0  0  0  0  0  0  0  0
    5.3071    1.4052    0.0000 H   0  0  0  0  0  0  0  0  0  0  0  0
    5.8819   -3.2890    0.0000 H   0  0  0  0  0  0  0  0  0  0  0  0
    2.8660   -1.6690    0.0000 H   0  0  0  0  0  0  0  0  0  0  0  0
    2.8660   -4.9090    0.0000 H   0  0  0  0  0  0  0  0  0  0  0  0
    1.4631   -2.4790    0.0000 H   0  0  0  0  0  0  0  0  0  0  0  0
    1.4631   -4.0990    0.0000 H   0  0  0  0  0  0  0  0  0  0  0  0
    7.4955    5.2348    0.0000 H   0  0  0  0  0  0  0  0  0  0  0  0
    6.7150    5.6342    0.0000 H   0  0  0  0  0  0  0  0  0  0  0  0
    6.3155    4.8536    0.0000 H   0  0  0  0  0  0  0  0  0  0  0  0
    9.3370    3.8661    0.0000 H   0  0  0  0  0  0  0  0  0  0  0  0
    9.4757    4.7319    0.0000 H   0  0  0  0  0  0  0  0  0  0  0  0
    8.6099    4.8706    0.0000 H   0  0  0  0  0  0  0  0  0  0  0  0
  1 16  1  0  0  0  0
  1 22  1  0  0  0  0
  2 17  2  0  0  0  0
  3  7  1  0  0  0  0
  3  8  1  0  0  0  0
  3  9  1  0  0  0  0
  4 12  1  0  0  0  0
  4 13  1  0  0  0  0
  4 16  1  0  0  0  0
  5 11  1  0  0  0  0
  5 17  1  0  0  0  0
  5 39  1  0  0  0  0
  6 16  2  0  0  0  0
  6 23  1  0  0  0  0
  7 10  1  0  0  0  0
  7 26  1  0  0  0  0
  7 27  1  0  0  0  0
  8 12  1  0  0  0  0
  8 28  1  0  0  0  0
  8 29  1  0  0  0  0
  9 13  1  0  0  0  0
  9 30  1  0  0  0  0
  9 31  1  0  0  0  0
 10 11  1  0  0  0  0
 10 32  1  0  0  0  0
 10 33  1  0  0  0  0
 11 14  1  0  0  0  0
 11 34  1  0  0  0  0
 12 35  1  0  0  0  0
 12 36  1  0  0  0  0
 13 37  1  0  0  0  0
 13 38  1  0  0  0  0
 14 15  1  0  0  0  0
 14 18  2  0  0  0  0
 15 17  1  0  0  0  0
 15 19  2  0  0  0  0
 18 20  1  0  0  0  0
 18 40  1  0  0  0  0
 19 21  1  0  0  0  0
 19 41  1  0  0  0  0
 20 21  2  0  0  0  0
 20 42  1  0  0  0  0
 21 43  1  0  0  0  0
 22 23  2  0  0  0  0
 22 24  1  0  0  0  0
 23 25  1  0  0  0  0
 24 44  1  0  0  0  0
 24 45  1  0  0  0  0
 24 46  1  0  0  0  0
 25 47  1  0  0  0  0
 25 48  1  0  0  0  0
 25 49  1  0  0  0  0
M  END
> <PUBCHEM_COMPOUND_CID>
9820085

> <PUBCHEM_COMPOUND_CANONICALIZED>
1

> <PUBCHEM_CACTVS_COMPLEXITY>
482

> <PUBCHEM_CACTVS_HBOND_ACCEPTOR>
5

> <PUBCHEM_CACTVS_HBOND_DONOR>
1

> <PUBCHEM_CACTVS_ROTATABLE_BOND>
4

> <PUBCHEM_CACTVS_SUBSKEYS>
AAADceB7oABAAAAAAAAAAAAAAAAAAWLAAAA8QAAAAAAAAFgBwAAAHgQQAAAADCjB3gQzkZPIEAisAyVydACC8KllCDgJmJU4RMiIYDLg3RGUIQholgLIiacciICOgAAAAAAQAAAAAAAAACAAAAAAAAAAAA==

> <PUBCHEM_IUPAC_OPENEYE_NAME>
3-[2-[4-(4,5-dimethylthiazol-2-yl)piperazin-1-yl]ethyl]isoindolin-1-one

> <PUBCHEM_IUPAC_CAS_NAME>
3-[2-[4-(4,5-dimethyl-2-thiazolyl)-1-piperazinyl]ethyl]-2,3-dihydroisoindol-1-one

> <PUBCHEM_IUPAC_NAME_MARKUP>
3-[2-[4-(4,5-dimethyl-1,3-thiazol-2-yl)piperazin-1-yl]ethyl]-2,3-dihydroisoindol-1-one

> <PUBCHEM_IUPAC_NAME>
3-[2-[4-(4,5-dimethyl-1,3-thiazol-2-yl)piperazin-1-yl]ethyl]-2,3-dihydroisoindol-1-one

> <PUBCHEM_IUPAC_SYSTEMATIC_NAME>
3-[2-[4-(4,5-dimethyl-1,3-thiazol-2-yl)piperazin-1-yl]ethyl]-2,3-dihydroisoindol-1-one

> <PUBCHEM_IUPAC_TRADITIONAL_NAME>
3-[2-[4-(4,5-dimethylthiazol-2-yl)piperazino]ethyl]isoindolin-1-one

> <PUBCHEM_IUPAC_INCHI>
InChI=1S/C19H24N4OS/c1-13-14(2)25-19(20-13)23-11-9-22(10-12-23)8-7-17-15-5-3-4-6-16(15)18(24)21-17/h3-6,17H,7-12H2,1-2H3,(H,21,24)

> <PUBCHEM_IUPAC_INCHIKEY>
RTOJYNJWSUUREU-UHFFFAOYSA-N

> <PUBCHEM_XLOGP3_AA>
3

> <PUBCHEM_EXACT_MASS>
356.16708258

> <PUBCHEM_MOLECULAR_FORMULA>
C19H24N4OS

> <PUBCHEM_MOLECULAR_WEIGHT>
356.5

> <PUBCHEM_OPENEYE_CAN_SMILES>
CC1=C(SC(=N1)N2CCN(CC2)CCC3C4=CC=CC=C4C(=O)N3)C

> <PUBCHEM_OPENEYE_ISO_SMILES>
CC1=C(SC(=N1)N2CCN(CC2)CCC3C4=CC=CC=C4C(=O)N3)C

> <PUBCHEM_CACTVS_TPSA>
76.7

> <PUBCHEM_MONOISOTOPIC_WEIGHT>
356.16708258

> <PUBCHEM_TOTAL_CHARGE>
0

> <PUBCHEM_HEAVY_ATOM_COUNT>
25

> <PUBCHEM_ATOM_DEF_STEREO_COUNT>
0

> <PUBCHEM_ATOM_UDEF_STEREO_COUNT>
1

> <PUBCHEM_BOND_DEF_STEREO_COUNT>
0

> <PUBCHEM_BOND_UDEF_STEREO_COUNT>
0

> <PUBCHEM_ISOTOPIC_ATOM_COUNT>
0

> <PUBCHEM_COMPONENT_COUNT>
1

> <PUBCHEM_CACTVS_TAUTO_COUNT>
-1

> <PUBCHEM_COORDINATE_TYPE>
1
5
255

> <PUBCHEM_BONDANNOTATIONS>
1  16  8
1  22  8
11  10  3
14  15  8
14  18  8
15  19  8
18  20  8
19  21  8
20  21  8
22  23  8
6  16  8
6  23  8

$$$$
