136020063
  -OEChem-09292322072D

138145  0     0  0  0  0  0  0999 V2000
    2.0000   13.5167    0.0000 Cl  0  0  0  0  0  0  0  0  0  0  0  0
   12.2880  -13.5167    0.0000 Cl  0  0  0  0  0  0  0  0  0  0  0  0
    8.8112    5.5200    0.0000 O   0  0  0  0  0  0  0  0  0  0  0  0
    5.4768   -5.5200    0.0000 O   0  0  0  0  0  0  0  0  0  0  0  0
    7.6390    9.9501    0.0000 N   0  0  0  0  0  0  0  0  0  0  0  0
    6.6490   -9.9501    0.0000 N   0  0  0  0  0  0  0  0  0  0  0  0
    6.7713   11.7521    0.0000 N   0  0  0  0  0  0  0  0  0  0  0  0
    7.5167  -11.7521    0.0000 N   0  0  0  0  0  0  0  0  0  0  0  0
    5.3374   12.6530    0.0000 N   0  0  0  0  0  0  0  0  0  0  0  0
    8.9506  -12.6530    0.0000 N   0  0  0  0  0  0  0  0  0  0  0  0
    7.3802    6.4957    0.0000 N   0  0  0  0  0  0  0  0  0  0  0  0
    6.9079   -6.4957    0.0000 N   0  0  0  0  0  0  0  0  0  0  0  0
    5.8374   14.8437    0.0000 N   0  0  0  0  0  0  0  0  0  0  0  0
    8.4506  -14.8437    0.0000 N   0  0  0  0  0  0  0  0  0  0  0  0
    8.2024   10.7764    0.0000 C   0  0  0  0  0  0  0  0  0  0  0  0
    6.6418   10.0249    0.0000 C   0  0  0  0  0  0  0  0  0  0  0  0
    6.0857  -10.7764    0.0000 C   0  0  0  0  0  0  0  0  0  0  0  0
    7.6462  -10.0249    0.0000 C   0  0  0  0  0  0  0  0  0  0  0  0
    7.7685   11.6773    0.0000 C   0  0  0  0  0  0  0  0  0  0  0  0
    6.2080   10.9258    0.0000 C   0  0  0  0  0  0  0  0  0  0  0  0
    6.5195  -11.6773    0.0000 C   0  0  0  0  0  0  0  0  0  0  0  0
    8.0801  -10.9258    0.0000 C   0  0  0  0  0  0  0  0  0  0  0  0
    8.0729    9.0491    0.0000 C   0  0  0  0  0  0  0  0  0  0  0  0
    6.2151   -9.0491    0.0000 C   0  0  0  0  0  0  0  0  0  0  0  0
    7.5096    8.2229    0.0000 C   0  0  0  0  0  0  0  0  0  0  0  0
    6.7784   -8.2229    0.0000 C   0  0  0  0  0  0  0  0  0  0  0  0
    6.3374   12.6530    0.0000 C   0  0  0  0  0  0  0  0  0  0  0  0
    7.9506  -12.6530    0.0000 C   0  0  0  0  0  0  0  0  0  0  0  0
    7.9435    7.3219    0.0000 C   0  0  0  0  0  0  0  0  0  0  0  0
    6.3446   -7.3219    0.0000 C   0  0  0  0  0  0  0  0  0  0  0  0
    6.9609   13.4349    0.0000 C   0  0  0  0  0  0  0  0  0  0  0  0
    7.3271  -13.4349    0.0000 C   0  0  0  0  0  0  0  0  0  0  0  0
    7.4257    0.4131    0.0000 C   0  0  0  0  0  0  0  0  0  0  0  0
    6.8624   -0.4131    0.0000 C   0  0  0  0  0  0  0  0  0  0  0  0
    6.9918    1.3141    0.0000 C   0  0  0  0  0  0  0  0  0  0  0  0
    7.2962   -1.3141    0.0000 C   0  0  0  0  0  0  0  0  0  0  0  0
    7.5551    2.1403    0.0000 C   0  0  0  0  0  0  0  0  0  0  0  0
    6.7329   -2.1403    0.0000 C   0  0  0  0  0  0  0  0  0  0  0  0
    7.1213    3.0413    0.0000 C   0  0  0  0  0  0  0  0  0  0  0  0
    7.1668   -3.0413    0.0000 C   0  0  0  0  0  0  0  0  0  0  0  0
    6.7384   14.4098    0.0000 C   0  0  0  0  0  0  0  0  0  0  0  0
    7.5496  -14.4098    0.0000 C   0  0  0  0  0  0  0  0  0  0  0  0
    7.6846    3.8675    0.0000 C   0  0  0  0  0  0  0  0  0  0  0  0
    6.6035   -3.8675    0.0000 C   0  0  0  0  0  0  0  0  0  0  0  0
    7.2507    4.7685    0.0000 C   0  0  0  0  0  0  0  0  0  0  0  0
    7.0373   -4.7685    0.0000 C   0  0  0  0  0  0  0  0  0  0  0  0
    4.7139   13.4349    0.0000 C   0  0  0  0  0  0  0  0  0  0  0  0
    9.5741  -13.4349    0.0000 C   0  0  0  0  0  0  0  0  0  0  0  0
    7.9514   13.1125    0.0000 C   0  0  0  0  0  0  0  0  0  0  0  0
    6.3366  -13.1125    0.0000 C   0  0  0  0  0  0  0  0  0  0  0  0
    7.8140    5.5947    0.0000 C   0  0  0  0  0  0  0  0  0  0  0  0
    6.4740   -5.5947    0.0000 C   0  0  0  0  0  0  0  0  0  0  0  0
    4.9365   14.4098    0.0000 C   0  0  0  0  0  0  0  0  0  0  0  0
    9.3516  -14.4098    0.0000 C   0  0  0  0  0  0  0  0  0  0  0  0
    7.4910   15.1300    0.0000 C   0  0  0  0  0  0  0  0  0  0  0  0
    6.7971  -15.1300    0.0000 C   0  0  0  0  0  0  0  0  0  0  0  0
    8.7204   13.8151    0.0000 C   0  0  0  0  0  0  0  0  0  0  0  0
    5.5676  -13.8151    0.0000 C   0  0  0  0  0  0  0  0  0  0  0  0
    8.4887   14.8306    0.0000 C   0  0  0  0  0  0  0  0  0  0  0  0
    5.7994  -14.8306    0.0000 C   0  0  0  0  0  0  0  0  0  0  0  0
    3.7234   13.1126    0.0000 C   0  0  0  0  0  0  0  0  0  0  0  0
   10.5646  -13.1126    0.0000 C   0  0  0  0  0  0  0  0  0  0  0  0
    4.1839   15.1300    0.0000 C   0  0  0  0  0  0  0  0  0  0  0  0
   10.1041  -15.1300    0.0000 C   0  0  0  0  0  0  0  0  0  0  0  0
    2.9544   13.8151    0.0000 C   0  0  0  0  0  0  0  0  0  0  0  0
   11.3336  -13.8151    0.0000 C   0  0  0  0  0  0  0  0  0  0  0  0
    3.1862   14.8307    0.0000 C   0  0  0  0  0  0  0  0  0  0  0  0
   11.1018  -14.8307    0.0000 C   0  0  0  0  0  0  0  0  0  0  0  0
    8.6462   10.3434    0.0000 H   0  0  0  0  0  0  0  0  0  0  0  0
    8.7058   11.1383    0.0000 H   0  0  0  0  0  0  0  0  0  0  0  0
    6.0450    9.8569    0.0000 H   0  0  0  0  0  0  0  0  0  0  0  0
    6.7036    9.4079    0.0000 H   0  0  0  0  0  0  0  0  0  0  0  0
    5.6418  -10.3434    0.0000 H   0  0  0  0  0  0  0  0  0  0  0  0
    5.5823  -11.1383    0.0000 H   0  0  0  0  0  0  0  0  0  0  0  0
    8.2430   -9.8569    0.0000 H   0  0  0  0  0  0  0  0  0  0  0  0
    7.5845   -9.4079    0.0000 H   0  0  0  0  0  0  0  0  0  0  0  0
    8.3653   11.8452    0.0000 H   0  0  0  0  0  0  0  0  0  0  0  0
    7.7068   12.2942    0.0000 H   0  0  0  0  0  0  0  0  0  0  0  0
    5.7641   11.3587    0.0000 H   0  0  0  0  0  0  0  0  0  0  0  0
    5.7046   10.5639    0.0000 H   0  0  0  0  0  0  0  0  0  0  0  0
    5.9227  -11.8452    0.0000 H   0  0  0  0  0  0  0  0  0  0  0  0
    6.5813  -12.2942    0.0000 H   0  0  0  0  0  0  0  0  0  0  0  0
    8.5239  -11.3587    0.0000 H   0  0  0  0  0  0  0  0  0  0  0  0
    8.5835  -10.5639    0.0000 H   0  0  0  0  0  0  0  0  0  0  0  0
    8.5168    8.6162    0.0000 H   0  0  0  0  0  0  0  0  0  0  0  0
    8.5763    9.4111    0.0000 H   0  0  0  0  0  0  0  0  0  0  0  0
    5.7713   -8.6162    0.0000 H   0  0  0  0  0  0  0  0  0  0  0  0
    5.7117   -9.4111    0.0000 H   0  0  0  0  0  0  0  0  0  0  0  0
    7.0658    8.6558    0.0000 H   0  0  0  0  0  0  0  0  0  0  0  0
    7.0062    7.8610    0.0000 H   0  0  0  0  0  0  0  0  0  0  0  0
    7.2223   -8.6558    0.0000 H   0  0  0  0  0  0  0  0  0  0  0  0
    7.2818   -7.8610    0.0000 H   0  0  0  0  0  0  0  0  0  0  0  0
    8.3873    6.8890    0.0000 H   0  0  0  0  0  0  0  0  0  0  0  0
    8.4469    7.6839    0.0000 H   0  0  0  0  0  0  0  0  0  0  0  0
    5.9007   -6.8890    0.0000 H   0  0  0  0  0  0  0  0  0  0  0  0
    5.8412   -7.6839    0.0000 H   0  0  0  0  0  0  0  0  0  0  0  0
    7.8695   -0.0198    0.0000 H   0  0  0  0  0  0  0  0  0  0  0  0
    7.9291    0.7750    0.0000 H   0  0  0  0  0  0  0  0  0  0  0  0
    6.4185    0.0198    0.0000 H   0  0  0  0  0  0  0  0  0  0  0  0
    6.3590   -0.7750    0.0000 H   0  0  0  0  0  0  0  0  0  0  0  0
    6.5480    1.7470    0.0000 H   0  0  0  0  0  0  0  0  0  0  0  0
    6.4884    0.9522    0.0000 H   0  0  0  0  0  0  0  0  0  0  0  0
    7.7401   -1.7470    0.0000 H   0  0  0  0  0  0  0  0  0  0  0  0
    7.7996   -0.9522    0.0000 H   0  0  0  0  0  0  0  0  0  0  0  0
    7.9990    1.7074    0.0000 H   0  0  0  0  0  0  0  0  0  0  0  0
    8.0585    2.5022    0.0000 H   0  0  0  0  0  0  0  0  0  0  0  0
    6.2891   -1.7074    0.0000 H   0  0  0  0  0  0  0  0  0  0  0  0
    6.2295   -2.5022    0.0000 H   0  0  0  0  0  0  0  0  0  0  0  0
    6.6774    3.4742    0.0000 H   0  0  0  0  0  0  0  0  0  0  0  0
    6.6178    2.6794    0.0000 H   0  0  0  0  0  0  0  0  0  0  0  0
    7.6106   -3.4742    0.0000 H   0  0  0  0  0  0  0  0  0  0  0  0
    7.6702   -2.6794    0.0000 H   0  0  0  0  0  0  0  0  0  0  0  0
    6.7619    6.5420    0.0000 H   0  0  0  0  0  0  0  0  0  0  0  0
    7.5262   -6.5420    0.0000 H   0  0  0  0  0  0  0  0  0  0  0  0
    8.1284    3.4346    0.0000 H   0  0  0  0  0  0  0  0  0  0  0  0
    8.1880    4.2294    0.0000 H   0  0  0  0  0  0  0  0  0  0  0  0
    6.1596   -3.4346    0.0000 H   0  0  0  0  0  0  0  0  0  0  0  0
    6.1001   -4.2294    0.0000 H   0  0  0  0  0  0  0  0  0  0  0  0
    6.8069    5.2014    0.0000 H   0  0  0  0  0  0  0  0  0  0  0  0
    6.7473    4.4066    0.0000 H   0  0  0  0  0  0  0  0  0  0  0  0
    7.4812   -5.2014    0.0000 H   0  0  0  0  0  0  0  0  0  0  0  0
    7.5407   -4.4066    0.0000 H   0  0  0  0  0  0  0  0  0  0  0  0
    8.0824   12.5065    0.0000 H   0  0  0  0  0  0  0  0  0  0  0  0
    6.2057  -12.5065    0.0000 H   0  0  0  0  0  0  0  0  0  0  0  0
    5.8374   15.4637    0.0000 H   0  0  0  0  0  0  0  0  0  0  0  0
    8.4506  -15.4637    0.0000 H   0  0  0  0  0  0  0  0  0  0  0  0
    7.3460   15.7328    0.0000 H   0  0  0  0  0  0  0  0  0  0  0  0
    6.9420  -15.7328    0.0000 H   0  0  0  0  0  0  0  0  0  0  0  0
    9.3122   13.6301    0.0000 H   0  0  0  0  0  0  0  0  0  0  0  0
    4.9759  -13.6301    0.0000 H   0  0  0  0  0  0  0  0  0  0  0  0
    8.9415   15.2541    0.0000 H   0  0  0  0  0  0  0  0  0  0  0  0
    5.3465  -15.2541    0.0000 H   0  0  0  0  0  0  0  0  0  0  0  0
    3.5925   12.5065    0.0000 H   0  0  0  0  0  0  0  0  0  0  0  0
   10.6956  -12.5065    0.0000 H   0  0  0  0  0  0  0  0  0  0  0  0
    4.3289   15.7328    0.0000 H   0  0  0  0  0  0  0  0  0  0  0  0
    9.9592  -15.7328    0.0000 H   0  0  0  0  0  0  0  0  0  0  0  0
    2.7334   15.2541    0.0000 H   0  0  0  0  0  0  0  0  0  0  0  0
   11.5547  -15.2541    0.0000 H   0  0  0  0  0  0  0  0  0  0  0  0
  1 65  1  0  0  0  0
  2 66  1  0  0  0  0
  3 51  2  0  0  0  0
  4 52  2  0  0  0  0
  5 15  1  0  0  0  0
  5 16  1  0  0  0  0
  5 23  1  0  0  0  0
  6 17  1  0  0  0  0
  6 18  1  0  0  0  0
  6 24  1  0  0  0  0
  7 19  1  0  0  0  0
  7 20  1  0  0  0  0
  7 27  1  0  0  0  0
  8 21  1  0  0  0  0
  8 22  1  0  0  0  0
  8 28  1  0  0  0  0
  9 27  2  0  0  0  0
  9 47  1  0  0  0  0
 10 28  2  0  0  0  0
 10 48  1  0  0  0  0
 11 29  1  0  0  0  0
 11 51  1  0  0  0  0
 11113  1  0  0  0  0
 12 30  1  0  0  0  0
 12 52  1  0  0  0  0
 12114  1  0  0  0  0
 13 41  1  0  0  0  0
 13 53  1  0  0  0  0
 13125  1  0  0  0  0
 14 42  1  0  0  0  0
 14 54  1  0  0  0  0
 14126  1  0  0  0  0
 15 19  1  0  0  0  0
 15 69  1  0  0  0  0
 15 70  1  0  0  0  0
 16 20  1  0  0  0  0
 16 71  1  0  0  0  0
 16 72  1  0  0  0  0
 17 21  1  0  0  0  0
 17 73  1  0  0  0  0
 17 74  1  0  0  0  0
 18 22  1  0  0  0  0
 18 75  1  0  0  0  0
 18 76  1  0  0  0  0
 19 77  1  0  0  0  0
 19 78  1  0  0  0  0
 20 79  1  0  0  0  0
 20 80  1  0  0  0  0
 21 81  1  0  0  0  0
 21 82  1  0  0  0  0
 22 83  1  0  0  0  0
 22 84  1  0  0  0  0
 23 25  1  0  0  0  0
 23 85  1  0  0  0  0
 23 86  1  0  0  0  0
 24 26  1  0  0  0  0
 24 87  1  0  0  0  0
 24 88  1  0  0  0  0
 25 29  1  0  0  0  0
 25 89  1  0  0  0  0
 25 90  1  0  0  0  0
 26 30  1  0  0  0  0
 26 91  1  0  0  0  0
 26 92  1  0  0  0  0
 27 31  1  0  0  0  0
 28 32  1  0  0  0  0
 29 93  1  0  0  0  0
 29 94  1  0  0  0  0
 30 95  1  0  0  0  0
 30 96  1  0  0  0  0
 31 41  1  0  0  0  0
 31 49  2  0  0  0  0
 32 42  1  0  0  0  0
 32 50  2  0  0  0  0
 33 34  1  0  0  0  0
 33 35  1  0  0  0  0
 33 97  1  0  0  0  0
 33 98  1  0  0  0  0
 34 36  1  0  0  0  0
 34 99  1  0  0  0  0
 34100  1  0  0  0  0
 35 37  1  0  0  0  0
 35101  1  0  0  0  0
 35102  1  0  0  0  0
 36 38  1  0  0  0  0
 36103  1  0  0  0  0
 36104  1  0  0  0  0
 37 39  1  0  0  0  0
 37105  1  0  0  0  0
 37106  1  0  0  0  0
 38 40  1  0  0  0  0
 38107  1  0  0  0  0
 38108  1  0  0  0  0
 39 43  1  0  0  0  0
 39109  1  0  0  0  0
 39110  1  0  0  0  0
 40 44  1  0  0  0  0
 40111  1  0  0  0  0
 40112  1  0  0  0  0
 41 55  2  0  0  0  0
 42 56  2  0  0  0  0
 43 45  1  0  0  0  0
 43115  1  0  0  0  0
 43116  1  0  0  0  0
 44 46  1  0  0  0  0
 44117  1  0  0  0  0
 44118  1  0  0  0  0
 45 51  1  0  0  0  0
 45119  1  0  0  0  0
 45120  1  0  0  0  0
 46 52  1  0  0  0  0
 46121  1  0  0  0  0
 46122  1  0  0  0  0
 47 53  2  0  0  0  0
 47 61  1  0  0  0  0
 48 54  2  0  0  0  0
 48 62  1  0  0  0  0
 49 57  1  0  0  0  0
 49123  1  0  0  0  0
 50 58  1  0  0  0  0
 50124  1  0  0  0  0
 53 63  1  0  0  0  0
 54 64  1  0  0  0  0
 55 59  1  0  0  0  0
 55127  1  0  0  0  0
 56 60  1  0  0  0  0
 56128  1  0  0  0  0
 57 59  2  0  0  0  0
 57129  1  0  0  0  0
 58 60  2  0  0  0  0
 58130  1  0  0  0  0
 59131  1  0  0  0  0
 60132  1  0  0  0  0
 61 65  2  0  0  0  0
 61133  1  0  0  0  0
 62 66  2  0  0  0  0
 62134  1  0  0  0  0
 63 67  2  0  0  0  0
 63135  1  0  0  0  0
 64 68  2  0  0  0  0
 64136  1  0  0  0  0
 65 67  1  0  0  0  0
 66 68  1  0  0  0  0
 67137  1  0  0  0  0
 68138  1  0  0  0  0
M  END
> <PUBCHEM_COMPOUND_CID>
136020063

> <PUBCHEM_COMPOUND_CANONICALIZED>
1

> <PUBCHEM_CACTVS_COMPLEXITY>
1470

> <PUBCHEM_CACTVS_HBOND_ACCEPTOR>
8

> <PUBCHEM_CACTVS_HBOND_DONOR>
4

> <PUBCHEM_CACTVS_ROTATABLE_BOND>
23

> <PUBCHEM_CACTVS_SUBSKEYS>
AAADcfB/8AAGAAAAAAAAAAAAAAAAAAAAAAA8eMGCBAgAAAABVAAAHgIQAAAADArBmCQxwIPAAACoAidydACCAAEhBwAJiIEodpgIYPLB25GUIAhglgDIyAcYiICOAABAAAICACAAAIAABAQAQAAAAAAAAA==

> <PUBCHEM_IUPAC_OPENEYE_NAME>
N,N'-bis[3-[4-(3-chloro-11H-benzo[b][1,4]benzodiazepin-6-yl)piperazin-1-yl]propyl]tetradecanediamide

> <PUBCHEM_IUPAC_CAS_NAME>
N,N'-bis[3-[4-(3-chloro-11H-benzo[b][1,4]benzodiazepin-6-yl)-1-piperazinyl]propyl]tetradecanediamide

> <PUBCHEM_IUPAC_NAME_MARKUP>
<I>N</I>,<I>N</I>&apos;-bis[3-[4-(3-chloro-11<I>H</I>-benzo[b][1,4]benzodiazepin-6-yl)piperazin-1-yl]propyl]tetradecanediamide

> <PUBCHEM_IUPAC_NAME>
N,N'-bis[3-[4-(3-chloro-11H-benzo[b][1,4]benzodiazepin-6-yl)piperazin-1-yl]propyl]tetradecanediamide

> <PUBCHEM_IUPAC_SYSTEMATIC_NAME>
N,N'-bis[3-[4-(3-chloranyl-11H-benzo[b][1,4]benzodiazepin-6-yl)piperazin-1-yl]propyl]tetradecanediamide

> <PUBCHEM_IUPAC_TRADITIONAL_NAME>
N,N'-bis[3-[4-(3-chloro-11H-benzo[b][1,4]benzodiazepin-6-yl)piperazino]propyl]tetradecanediamide

> <PUBCHEM_IUPAC_INCHI>
InChI=1S/C54H70Cl2N10O2/c55-41-23-25-47-49(39-41)61-53(43-17-11-13-19-45(43)59-47)65-35-31-63(32-36-65)29-15-27-57-51(67)21-9-7-5-3-1-2-4-6-8-10-22-52(68)58-28-16-30-64-33-37-66(38-34-64)54-44-18-12-14-20-46(44)60-48-26-24-42(56)40-50(48)62-54/h11-14,17-20,23-26,39-40,59-60H,1-10,15-16,21-22,27-38H2,(H,57,67)(H,58,68)

> <PUBCHEM_IUPAC_INCHIKEY>
CYUPYMRELPZOGV-UHFFFAOYSA-N

> <PUBCHEM_XLOGP3_AA>
10.2

> <PUBCHEM_EXACT_MASS>
960.5060269

> <PUBCHEM_MOLECULAR_FORMULA>
C54H70Cl2N10O2

> <PUBCHEM_MOLECULAR_WEIGHT>
962.1

> <PUBCHEM_OPENEYE_CAN_SMILES>
C1CN(CCN1CCCNC(=O)CCCCCCCCCCCCC(=O)NCCCN2CCN(CC2)C3=NC4=C(C=CC(=C4)Cl)NC5=CC=CC=C53)C6=NC7=C(C=CC(=C7)Cl)NC8=CC=CC=C86

> <PUBCHEM_OPENEYE_ISO_SMILES>
C1CN(CCN1CCCNC(=O)CCCCCCCCCCCCC(=O)NCCCN2CCN(CC2)C3=NC4=C(C=CC(=C4)Cl)NC5=CC=CC=C53)C6=NC7=C(C=CC(=C7)Cl)NC8=CC=CC=C86

> <PUBCHEM_CACTVS_TPSA>
120

> <PUBCHEM_MONOISOTOPIC_WEIGHT>
960.5060269

> <PUBCHEM_TOTAL_CHARGE>
0

> <PUBCHEM_HEAVY_ATOM_COUNT>
68

> <PUBCHEM_ATOM_DEF_STEREO_COUNT>
0

> <PUBCHEM_ATOM_UDEF_STEREO_COUNT>
0

> <PUBCHEM_BOND_DEF_STEREO_COUNT>
0

> <PUBCHEM_BOND_UDEF_STEREO_COUNT>
0

> <PUBCHEM_ISOTOPIC_ATOM_COUNT>
0

> <PUBCHEM_COMPONENT_COUNT>
1

> <PUBCHEM_CACTVS_TAUTO_COUNT>
-1

> <PUBCHEM_COORDINATE_TYPE>
1
5
255

> <PUBCHEM_BONDANNOTATIONS>
31  41  8
31  49  8
32  42  8
32  50  8
41  55  8
42  56  8
47  53  8
47  61  8
48  54  8
48  62  8
49  57  8
50  58  8
53  63  8
54  64  8
55  59  8
56  60  8
57  59  8
58  60  8
61  65  8
62  66  8
63  67  8
64  68  8
65  67  8
66  68  8

$$$$
