118731506
  -OEChem-09292322352D

 68 72  0     0  0  0  0  0  0999 V2000
   11.7961    1.3062    0.0000 O   0  0  0  0  0  0  0  0  0  0  0  0
   17.0583    1.3303    0.0000 O   0  0  0  0  0  0  0  0  0  0  0  0
    3.7977    0.0774    0.0000 N   0  0  0  0  0  0  0  0  0  0  0  0
    7.4641    1.7895    0.0000 N   0  0  0  0  0  0  0  0  0  0  0  0
   15.3262    1.3303    0.0000 N   0  0  0  0  0  0  0  0  0  0  0  0
    4.8679    1.2795    0.0000 C   0  0  0  0  0  0  0  0  0  0  0  0
    5.7320    1.7828    0.0000 C   0  0  0  0  0  0  0  0  0  0  0  0
    3.9586    1.6811    0.0000 C   0  0  0  0  0  0  0  0  0  0  0  0
    3.2936    0.9342    0.0000 C   0  0  0  0  0  0  0  0  0  0  0  0
    4.7687    0.2904    0.0000 C   0  0  0  0  0  0  0  0  0  0  0  0
    6.6000    1.2861    0.0000 C   0  0  0  0  0  0  0  0  0  0  0  0
    3.3976   -0.8391    0.0000 C   0  0  0  0  0  0  0  0  0  0  0  0
    8.3320    1.2928    0.0000 C   0  0  0  0  0  0  0  0  0  0  0  0
    9.1961    1.7962    0.0000 C   0  0  0  0  0  0  0  0  0  0  0  0
    3.6443    2.6304    0.0000 C   0  0  0  0  0  0  0  0  0  0  0  0
    2.3143    1.1366    0.0000 C   0  0  0  0  0  0  0  0  0  0  0  0
   10.0640    1.2995    0.0000 C   0  0  0  0  0  0  0  0  0  0  0  0
    3.9913   -1.6438    0.0000 C   0  0  0  0  0  0  0  0  0  0  0  0
   14.4602    2.8303    0.0000 C   0  0  0  0  0  0  0  0  0  0  0  0
   15.3262    3.3303    0.0000 C   0  0  0  0  0  0  0  0  0  0  0  0
   10.9281    1.8028    0.0000 C   0  0  0  0  0  0  0  0  0  0  0  0
    2.6650    2.8328    0.0000 C   0  0  0  0  0  0  0  0  0  0  0  0
    2.0000    2.0860    0.0000 C   0  0  0  0  0  0  0  0  0  0  0  0
   14.4602    1.8303    0.0000 C   0  0  0  0  0  0  0  0  0  0  0  0
   16.1922    2.8303    0.0000 C   0  0  0  0  0  0  0  0  0  0  0  0
   12.6602    1.8095    0.0000 C   0  0  0  0  0  0  0  0  0  0  0  0
   13.5662    1.2957    0.0000 C   0  0  0  0  0  0  0  0  0  0  0  0
   13.5662    3.3650    0.0000 C   0  0  0  0  0  0  0  0  0  0  0  0
   16.1922    1.8303    0.0000 C   0  0  0  0  0  0  0  0  0  0  0  0
   12.6602    2.8511    0.0000 C   0  0  0  0  0  0  0  0  0  0  0  0
    3.5913   -2.5603    0.0000 C   0  0  0  0  0  0  0  0  0  0  0  0
    4.9851   -1.5320    0.0000 C   0  0  0  0  0  0  0  0  0  0  0  0
    4.1850   -3.3650    0.0000 C   0  0  0  0  0  0  0  0  0  0  0  0
    5.5788   -2.3367    0.0000 C   0  0  0  0  0  0  0  0  0  0  0  0
    5.1787   -3.2532    0.0000 C   0  0  0  0  0  0  0  0  0  0  0  0
    6.1287    2.2593    0.0000 H   0  0  0  0  0  0  0  0  0  0  0  0
    5.3317    2.2562    0.0000 H   0  0  0  0  0  0  0  0  0  0  0  0
    5.2318   -0.1219    0.0000 H   0  0  0  0  0  0  0  0  0  0  0  0
    6.2033    0.8097    0.0000 H   0  0  0  0  0  0  0  0  0  0  0  0
    7.0003    0.8127    0.0000 H   0  0  0  0  0  0  0  0  0  0  0  0
    2.8811   -0.4962    0.0000 H   0  0  0  0  0  0  0  0  0  0  0  0
    2.9702   -1.2882    0.0000 H   0  0  0  0  0  0  0  0  0  0  0  0
    7.9353    0.8163    0.0000 H   0  0  0  0  0  0  0  0  0  0  0  0
    8.7324    0.8194    0.0000 H   0  0  0  0  0  0  0  0  0  0  0  0
    9.5928    2.2726    0.0000 H   0  0  0  0  0  0  0  0  0  0  0  0
    8.7957    2.2696    0.0000 H   0  0  0  0  0  0  0  0  0  0  0  0
    7.4617    2.4095    0.0000 H   0  0  0  0  0  0  0  0  0  0  0  0
    4.0565    3.0934    0.0000 H   0  0  0  0  0  0  0  0  0  0  0  0
    1.9020    0.6736    0.0000 H   0  0  0  0  0  0  0  0  0  0  0  0
    9.6674    0.8230    0.0000 H   0  0  0  0  0  0  0  0  0  0  0  0
   10.4644    0.8261    0.0000 H   0  0  0  0  0  0  0  0  0  0  0  0
   15.7247    3.8053    0.0000 H   0  0  0  0  0  0  0  0  0  0  0  0
   14.9277    3.8053    0.0000 H   0  0  0  0  0  0  0  0  0  0  0  0
   11.3248    2.2793    0.0000 H   0  0  0  0  0  0  0  0  0  0  0  0
   10.5278    2.2762    0.0000 H   0  0  0  0  0  0  0  0  0  0  0  0
    2.4701    3.4214    0.0000 H   0  0  0  0  0  0  0  0  0  0  0  0
    1.3928    2.2115    0.0000 H   0  0  0  0  0  0  0  0  0  0  0  0
   16.8028    2.7227    0.0000 H   0  0  0  0  0  0  0  0  0  0  0  0
   16.4043    3.4129    0.0000 H   0  0  0  0  0  0  0  0  0  0  0  0
   13.5734    0.6757    0.0000 H   0  0  0  0  0  0  0  0  0  0  0  0
   13.5734    3.9849    0.0000 H   0  0  0  0  0  0  0  0  0  0  0  0
   15.3262    0.7103    0.0000 H   0  0  0  0  0  0  0  0  0  0  0  0
   12.1244    3.1632    0.0000 H   0  0  0  0  0  0  0  0  0  0  0  0
    2.9752   -2.6296    0.0000 H   0  0  0  0  0  0  0  0  0  0  0  0
    5.2331   -0.9638    0.0000 H   0  0  0  0  0  0  0  0  0  0  0  0
    3.9370   -3.9332    0.0000 H   0  0  0  0  0  0  0  0  0  0  0  0
    6.1949   -2.2674    0.0000 H   0  0  0  0  0  0  0  0  0  0  0  0
    5.5468   -3.7521    0.0000 H   0  0  0  0  0  0  0  0  0  0  0  0
  1 21  1  0  0  0  0
  1 26  1  0  0  0  0
  2 29  2  0  0  0  0
  3  9  1  0  0  0  0
  3 10  1  0  0  0  0
  3 12  1  0  0  0  0
  4 11  1  0  0  0  0
  4 13  1  0  0  0  0
  4 47  1  0  0  0  0
  5 24  1  0  0  0  0
  5 29  1  0  0  0  0
  5 62  1  0  0  0  0
  6  7  1  0  0  0  0
  6  8  1  0  0  0  0
  6 10  2  0  0  0  0
  7 11  1  0  0  0  0
  7 36  1  0  0  0  0
  7 37  1  0  0  0  0
  8  9  1  0  0  0  0
  8 15  2  0  0  0  0
  9 16  2  0  0  0  0
 10 38  1  0  0  0  0
 11 39  1  0  0  0  0
 11 40  1  0  0  0  0
 12 18  1  0  0  0  0
 12 41  1  0  0  0  0
 12 42  1  0  0  0  0
 13 14  1  0  0  0  0
 13 43  1  0  0  0  0
 13 44  1  0  0  0  0
 14 17  1  0  0  0  0
 14 45  1  0  0  0  0
 14 46  1  0  0  0  0
 15 22  1  0  0  0  0
 15 48  1  0  0  0  0
 16 23  1  0  0  0  0
 16 49  1  0  0  0  0
 17 21  1  0  0  0  0
 17 50  1  0  0  0  0
 17 51  1  0  0  0  0
 18 31  2  0  0  0  0
 18 32  1  0  0  0  0
 19 20  1  0  0  0  0
 19 24  2  0  0  0  0
 19 28  1  0  0  0  0
 20 25  1  0  0  0  0
 20 52  1  0  0  0  0
 20 53  1  0  0  0  0
 21 54  1  0  0  0  0
 21 55  1  0  0  0  0
 22 23  2  0  0  0  0
 22 56  1  0  0  0  0
 23 57  1  0  0  0  0
 24 27  1  0  0  0  0
 25 29  1  0  0  0  0
 25 58  1  0  0  0  0
 25 59  1  0  0  0  0
 26 27  2  0  0  0  0
 26 30  1  0  0  0  0
 27 60  1  0  0  0  0
 28 30  2  0  0  0  0
 28 61  1  0  0  0  0
 30 63  1  0  0  0  0
 31 33  1  0  0  0  0
 31 64  1  0  0  0  0
 32 34  2  0  0  0  0
 32 65  1  0  0  0  0
 33 35  2  0  0  0  0
 33 66  1  0  0  0  0
 34 35  1  0  0  0  0
 34 67  1  0  0  0  0
 35 68  1  0  0  0  0
M  END
> <PUBCHEM_COMPOUND_CID>
118731506

> <PUBCHEM_COMPOUND_CANONICALIZED>
1

> <PUBCHEM_CACTVS_COMPLEXITY>
652

> <PUBCHEM_CACTVS_HBOND_ACCEPTOR>
3

> <PUBCHEM_CACTVS_HBOND_DONOR>
2

> <PUBCHEM_CACTVS_ROTATABLE_BOND>
11

> <PUBCHEM_CACTVS_SUBSKEYS>
AAADcfB7MAAAAAAAAAAAAAAAAAAAAWAAAAA8YMEAAAAAAFix9AAAHgAQAAAADAzhngY8xvPMFACoAzV3VACCiCAxIiAI2KE+bJgMJvLEsZuGOCjm1BnI6Ae42eOeoAAAAgACAABAAAAEAAQAAAAAAAAAAA==

> <PUBCHEM_IUPAC_OPENEYE_NAME>
7-[4-[2-(1-benzylindol-3-yl)ethylamino]butoxy]-3,4-dihydro-1H-quinolin-2-one

> <PUBCHEM_IUPAC_CAS_NAME>
7-[4-[2-[1-(phenylmethyl)-3-indolyl]ethylamino]butoxy]-3,4-dihydro-1H-quinolin-2-one

> <PUBCHEM_IUPAC_NAME_MARKUP>
7-[4-[2-(1-benzylindol-3-yl)ethylamino]butoxy]-3,4-dihydro-1<I>H</I>-quinolin-2-one

> <PUBCHEM_IUPAC_NAME>
7-[4-[2-(1-benzylindol-3-yl)ethylamino]butoxy]-3,4-dihydro-1H-quinolin-2-one

> <PUBCHEM_IUPAC_SYSTEMATIC_NAME>
7-[4-[2-[1-(phenylmethyl)indol-3-yl]ethylamino]butoxy]-3,4-dihydro-1H-quinolin-2-one

> <PUBCHEM_IUPAC_TRADITIONAL_NAME>
7-[4-[2-(1-benzylindol-3-yl)ethylamino]butoxy]-3,4-dihydrocarbostyril

> <PUBCHEM_IUPAC_INCHI>
InChI=1S/C30H33N3O2/c34-30-15-13-24-12-14-26(20-28(24)32-30)35-19-7-6-17-31-18-16-25-22-33(21-23-8-2-1-3-9-23)29-11-5-4-10-27(25)29/h1-5,8-12,14,20,22,31H,6-7,13,15-19,21H2,(H,32,34)

> <PUBCHEM_IUPAC_INCHIKEY>
FDGNQWITRXOPIF-UHFFFAOYSA-N

> <PUBCHEM_XLOGP3_AA>
5

> <PUBCHEM_EXACT_MASS>
467.25727730

> <PUBCHEM_MOLECULAR_FORMULA>
C30H33N3O2

> <PUBCHEM_MOLECULAR_WEIGHT>
467.6

> <PUBCHEM_OPENEYE_CAN_SMILES>
C1CC(=O)NC2=C1C=CC(=C2)OCCCCNCCC3=CN(C4=CC=CC=C43)CC5=CC=CC=C5

> <PUBCHEM_OPENEYE_ISO_SMILES>
C1CC(=O)NC2=C1C=CC(=C2)OCCCCNCCC3=CN(C4=CC=CC=C43)CC5=CC=CC=C5

> <PUBCHEM_CACTVS_TPSA>
55.3

> <PUBCHEM_MONOISOTOPIC_WEIGHT>
467.25727730

> <PUBCHEM_TOTAL_CHARGE>
0

> <PUBCHEM_HEAVY_ATOM_COUNT>
35

> <PUBCHEM_ATOM_DEF_STEREO_COUNT>
0

> <PUBCHEM_ATOM_UDEF_STEREO_COUNT>
0

> <PUBCHEM_BOND_DEF_STEREO_COUNT>
0

> <PUBCHEM_BOND_UDEF_STEREO_COUNT>
0

> <PUBCHEM_ISOTOPIC_ATOM_COUNT>
0

> <PUBCHEM_COMPONENT_COUNT>
1

> <PUBCHEM_CACTVS_TAUTO_COUNT>
-1

> <PUBCHEM_COORDINATE_TYPE>
1
5
255

> <PUBCHEM_BONDANNOTATIONS>
15  22  8
16  23  8
18  31  8
18  32  8
19  24  8
19  28  8
22  23  8
24  27  8
26  27  8
26  30  8
28  30  8
3  10  8
3  9  8
31  33  8
32  34  8
33  35  8
34  35  8
6  10  8
6  8  8
8  15  8
8  9  8
9  16  8

$$$$
