9953268
  -OEChem-09292322112D

 50 52  0     0  0  0  0  0  0999 V2000
    3.4030   -1.6900    0.0000 S   0  0  0  0  0  0  0  0  0  0  0  0
    6.0010    3.8100    0.0000 F   0  0  0  0  0  0  0  0  0  0  0  0
    4.2690    6.8100    0.0000 F   0  0  0  0  0  0  0  0  0  0  0  0
    4.4030   -1.6900    0.0000 O   0  0  0  0  0  0  0  0  0  0  0  0
    2.4030   -1.6900    0.0000 O   0  0  0  0  0  0  0  0  0  0  0  0
    4.2690   -6.1900    0.0000 O   0  0  0  0  0  0  0  0  0  0  0  0
    3.4030    1.3100    0.0000 N   0  0  0  0  0  0  0  0  0  0  0  0
    2.5369   -6.1900    0.0000 N   0  0  0  0  0  0  0  0  0  0  0  0
    3.4030   -0.6900    0.0000 C   0  0  0  0  0  0  0  0  0  0  0  0
    2.5369   -0.1900    0.0000 C   0  0  0  0  0  0  0  0  0  0  0  0
    4.2690   -0.1900    0.0000 C   0  0  0  0  0  0  0  0  0  0  0  0
    2.5369    0.8100    0.0000 C   0  0  0  0  0  0  0  0  0  0  0  0
    4.2690    0.8100    0.0000 C   0  0  0  0  0  0  0  0  0  0  0  0
    3.4030    2.3100    0.0000 C   0  0  0  0  0  0  0  0  0  0  0  0
    3.4030   -2.6900    0.0000 C   0  0  0  0  0  0  0  0  0  0  0  0
    4.2690    2.8100    0.0000 C   0  0  0  0  0  0  0  0  0  0  0  0
    4.2690    3.8100    0.0000 C   0  0  0  0  0  0  0  0  0  0  0  0
    4.2690   -3.1900    0.0000 C   0  0  0  0  0  0  0  0  0  0  0  0
    2.5369   -3.1900    0.0000 C   0  0  0  0  0  0  0  0  0  0  0  0
    4.2690   -4.1900    0.0000 C   0  0  0  0  0  0  0  0  0  0  0  0
    2.5369   -4.1900    0.0000 C   0  0  0  0  0  0  0  0  0  0  0  0
    3.4030   -4.6900    0.0000 C   0  0  0  0  0  0  0  0  0  0  0  0
    5.1350    4.3100    0.0000 C   0  0  0  0  0  0  0  0  0  0  0  0
    3.4030    4.3100    0.0000 C   0  0  0  0  0  0  0  0  0  0  0  0
    5.1350    5.3100    0.0000 C   0  0  0  0  0  0  0  0  0  0  0  0
    3.4030    5.3100    0.0000 C   0  0  0  0  0  0  0  0  0  0  0  0
    4.2690    5.8100    0.0000 C   0  0  0  0  0  0  0  0  0  0  0  0
    3.4030   -5.6900    0.0000 C   0  0  0  0  0  0  0  0  0  0  0  0
    3.9399   -1.0000    0.0000 H   0  0  0  0  0  0  0  0  0  0  0  0
    1.9264   -0.0823    0.0000 H   0  0  0  0  0  0  0  0  0  0  0  0
    2.3249   -0.7726    0.0000 H   0  0  0  0  0  0  0  0  0  0  0  0
    4.4810   -0.7726    0.0000 H   0  0  0  0  0  0  0  0  0  0  0  0
    4.8796   -0.0823    0.0000 H   0  0  0  0  0  0  0  0  0  0  0  0
    2.3249    1.3926    0.0000 H   0  0  0  0  0  0  0  0  0  0  0  0
    1.9264    0.7023    0.0000 H   0  0  0  0  0  0  0  0  0  0  0  0
    4.8796    0.7023    0.0000 H   0  0  0  0  0  0  0  0  0  0  0  0
    4.4810    1.3926    0.0000 H   0  0  0  0  0  0  0  0  0  0  0  0
    3.1909    2.8926    0.0000 H   0  0  0  0  0  0  0  0  0  0  0  0
    2.7924    2.2023    0.0000 H   0  0  0  0  0  0  0  0  0  0  0  0
    4.4810    2.2274    0.0000 H   0  0  0  0  0  0  0  0  0  0  0  0
    4.8796    2.9177    0.0000 H   0  0  0  0  0  0  0  0  0  0  0  0
    4.8059   -2.8800    0.0000 H   0  0  0  0  0  0  0  0  0  0  0  0
    2.0000   -2.8800    0.0000 H   0  0  0  0  0  0  0  0  0  0  0  0
    4.8059   -4.5000    0.0000 H   0  0  0  0  0  0  0  0  0  0  0  0
    2.0000   -4.5000    0.0000 H   0  0  0  0  0  0  0  0  0  0  0  0
    2.8660    4.0000    0.0000 H   0  0  0  0  0  0  0  0  0  0  0  0
    5.6720    5.6200    0.0000 H   0  0  0  0  0  0  0  0  0  0  0  0
    2.8660    5.6200    0.0000 H   0  0  0  0  0  0  0  0  0  0  0  0
    2.5369   -6.8100    0.0000 H   0  0  0  0  0  0  0  0  0  0  0  0
    2.0000   -5.8800    0.0000 H   0  0  0  0  0  0  0  0  0  0  0  0
  1  4  2  0  0  0  0
  1  5  2  0  0  0  0
  1  9  1  0  0  0  0
  1 15  1  0  0  0  0
  2 23  1  0  0  0  0
  3 27  1  0  0  0  0
  6 28  2  0  0  0  0
  7 12  1  0  0  0  0
  7 13  1  0  0  0  0
  7 14  1  0  0  0  0
  8 28  1  0  0  0  0
  8 49  1  0  0  0  0
  8 50  1  0  0  0  0
  9 10  1  0  0  0  0
  9 11  1  0  0  0  0
  9 29  1  0  0  0  0
 10 12  1  0  0  0  0
 10 30  1  0  0  0  0
 10 31  1  0  0  0  0
 11 13  1  0  0  0  0
 11 32  1  0  0  0  0
 11 33  1  0  0  0  0
 12 34  1  0  0  0  0
 12 35  1  0  0  0  0
 13 36  1  0  0  0  0
 13 37  1  0  0  0  0
 14 16  1  0  0  0  0
 14 38  1  0  0  0  0
 14 39  1  0  0  0  0
 15 18  2  0  0  0  0
 15 19  1  0  0  0  0
 16 17  1  0  0  0  0
 16 40  1  0  0  0  0
 16 41  1  0  0  0  0
 17 23  2  0  0  0  0
 17 24  1  0  0  0  0
 18 20  1  0  0  0  0
 18 42  1  0  0  0  0
 19 21  2  0  0  0  0
 19 43  1  0  0  0  0
 20 22  2  0  0  0  0
 20 44  1  0  0  0  0
 21 22  1  0  0  0  0
 21 45  1  0  0  0  0
 22 28  1  0  0  0  0
 23 25  1  0  0  0  0
 24 26  2  0  0  0  0
 24 46  1  0  0  0  0
 25 27  2  0  0  0  0
 25 47  1  0  0  0  0
 26 27  1  0  0  0  0
 26 48  1  0  0  0  0
M  END
> <PUBCHEM_COMPOUND_CID>
9953268

> <PUBCHEM_COMPOUND_CANONICALIZED>
1

> <PUBCHEM_CACTVS_COMPLEXITY>
624

> <PUBCHEM_CACTVS_HBOND_ACCEPTOR>
6

> <PUBCHEM_CACTVS_HBOND_DONOR>
1

> <PUBCHEM_CACTVS_ROTATABLE_BOND>
6

> <PUBCHEM_CACTVS_SUBSKEYS>
AAADceB7MYBAAAAAAAAAAAAAAAAAAAAAAAA8YIAAAAAAAAABQAAAHwQQAAAADADF2AywAYNAAAqIAiFSEHDCAAAkCBAIiBkIBMgIIDKglRGEIQBggACoiYcYiICOEAAAAAAAAAAgAAAAAAAAAAAAAAAAAA==

> <PUBCHEM_IUPAC_OPENEYE_NAME>
4-[[1-[2-(2,4-difluorophenyl)ethyl]-4-piperidyl]sulfonyl]benzamide

> <PUBCHEM_IUPAC_CAS_NAME>
4-[[1-[2-(2,4-difluorophenyl)ethyl]-4-piperidinyl]sulfonyl]benzamide

> <PUBCHEM_IUPAC_NAME_MARKUP>
4-[1-[2-(2,4-difluorophenyl)ethyl]piperidin-4-yl]sulfonylbenzamide

> <PUBCHEM_IUPAC_NAME>
4-[1-[2-(2,4-difluorophenyl)ethyl]piperidin-4-yl]sulfonylbenzamide

> <PUBCHEM_IUPAC_SYSTEMATIC_NAME>
4-[1-[2-[2,4-bis(fluoranyl)phenyl]ethyl]piperidin-4-yl]sulfonylbenzamide

> <PUBCHEM_IUPAC_TRADITIONAL_NAME>
4-[[1-[2-(2,4-difluorophenyl)ethyl]-4-piperidyl]sulfonyl]benzamide

> <PUBCHEM_IUPAC_INCHI>
InChI=1S/C20H22F2N2O3S/c21-16-4-1-14(19(22)13-16)7-10-24-11-8-18(9-12-24)28(26,27)17-5-2-15(3-6-17)20(23)25/h1-6,13,18H,7-12H2,(H2,23,25)

> <PUBCHEM_IUPAC_INCHIKEY>
BYFGXTUYWNOQIF-UHFFFAOYSA-N

> <PUBCHEM_XLOGP3_AA>
2.8

> <PUBCHEM_EXACT_MASS>
408.13192007

> <PUBCHEM_MOLECULAR_FORMULA>
C20H22F2N2O3S

> <PUBCHEM_MOLECULAR_WEIGHT>
408.5

> <PUBCHEM_OPENEYE_CAN_SMILES>
C1CN(CCC1S(=O)(=O)C2=CC=C(C=C2)C(=O)N)CCC3=C(C=C(C=C3)F)F

> <PUBCHEM_OPENEYE_ISO_SMILES>
C1CN(CCC1S(=O)(=O)C2=CC=C(C=C2)C(=O)N)CCC3=C(C=C(C=C3)F)F

> <PUBCHEM_CACTVS_TPSA>
88.8

> <PUBCHEM_MONOISOTOPIC_WEIGHT>
408.13192007

> <PUBCHEM_TOTAL_CHARGE>
0

> <PUBCHEM_HEAVY_ATOM_COUNT>
28

> <PUBCHEM_ATOM_DEF_STEREO_COUNT>
0

> <PUBCHEM_ATOM_UDEF_STEREO_COUNT>
0

> <PUBCHEM_BOND_DEF_STEREO_COUNT>
0

> <PUBCHEM_BOND_UDEF_STEREO_COUNT>
0

> <PUBCHEM_ISOTOPIC_ATOM_COUNT>
0

> <PUBCHEM_COMPONENT_COUNT>
1

> <PUBCHEM_CACTVS_TAUTO_COUNT>
-1

> <PUBCHEM_COORDINATE_TYPE>
1
5
255

> <PUBCHEM_BONDANNOTATIONS>
15  18  8
15  19  8
17  23  8
17  24  8
18  20  8
19  21  8
20  22  8
21  22  8
23  25  8
24  26  8
25  27  8
26  27  8

$$$$
