137650482
  -OEChem-09292322062D

 59 62  0     0  0  0  0  0  0999 V2000
    5.6583    0.0000    0.0000 Cl  0  0  0  0  0  0  0  0  0  0  0  0
   12.3166    6.6148    0.0000 F   0  0  0  0  0  0  0  0  0  0  0  0
   11.2985    7.2026    0.0000 F   0  0  0  0  0  0  0  0  0  0  0  0
   10.4143    6.1050    0.0000 O   0  0  0  0  0  0  0  0  0  0  0  0
    3.2769    5.1332    0.0000 O   0  0  0  0  0  0  0  0  0  0  0  0
   11.8081    5.3003    0.0000 O   0  0  0  0  0  0  0  0  0  0  0  0
    6.7410    6.1332    0.0000 N   0  0  0  0  0  0  0  0  0  0  0  0
    8.4730    5.1332    0.0000 N   0  0  0  0  0  0  0  0  0  0  0  0
    2.4109    6.6332    0.0000 N   0  0  0  0  0  0  0  0  0  0  0  0
    3.2769    8.1332    0.0000 N   0  0  0  0  0  0  0  0  0  0  0  0
    7.6070    6.6332    0.0000 C   0  0  0  0  0  0  0  0  0  0  0  0
    6.7410    5.1332    0.0000 C   0  0  0  0  0  0  0  0  0  0  0  0
    8.4730    6.1332    0.0000 C   0  0  0  0  0  0  0  0  0  0  0  0
    7.6070    4.6332    0.0000 C   0  0  0  0  0  0  0  0  0  0  0  0
    5.8750    6.6332    0.0000 C   0  0  0  0  0  0  0  0  0  0  0  0
    5.0089    6.1332    0.0000 C   0  0  0  0  0  0  0  0  0  0  0  0
    4.1429    6.6332    0.0000 C   0  0  0  0  0  0  0  0  0  0  0  0
    1.5169    6.0985    0.0000 C   0  0  0  0  0  0  0  0  0  0  0  0
    0.6109    6.6124    0.0000 C   0  0  0  0  0  0  0  0  0  0  0  0
    0.6109    7.6540    0.0000 C   0  0  0  0  0  0  0  0  0  0  0  0
    2.4109    7.6332    0.0000 C   0  0  0  0  0  0  0  0  0  0  0  0
    1.5169    8.1678    0.0000 C   0  0  0  0  0  0  0  0  0  0  0  0
    9.3391    4.6332    0.0000 C   0  0  0  0  0  0  0  0  0  0  0  0
    3.2769    6.1332    0.0000 C   0  0  0  0  0  0  0  0  0  0  0  0
    4.1429    7.6332    0.0000 C   0  0  0  0  0  0  0  0  0  0  0  0
   10.2051    5.1332    0.0000 C   0  0  0  0  0  0  0  0  0  0  0  0
    9.3391    3.6332    0.0000 C   0  0  0  0  0  0  0  0  0  0  0  0
    5.0089    8.1332    0.0000 C   0  0  0  0  0  0  0  0  0  0  0  0
   11.0711    4.6332    0.0000 C   0  0  0  0  0  0  0  0  0  0  0  0
   10.2051    3.1332    0.0000 C   0  0  0  0  0  0  0  0  0  0  0  0
   11.0711    3.6332    0.0000 C   0  0  0  0  0  0  0  0  0  0  0  0
   11.4030    6.2080    0.0000 C   0  0  0  0  0  0  0  0  0  0  0  0
    8.0055    7.1081    0.0000 H   0  0  0  0  0  0  0  0  0  0  0  0
    7.2085    7.1081    0.0000 H   0  0  0  0  0  0  0  0  0  0  0  0
    6.1304    5.2408    0.0000 H   0  0  0  0  0  0  0  0  0  0  0  0
    6.5289    4.5506    0.0000 H   0  0  0  0  0  0  0  0  0  0  0  0
    9.0836    6.0255    0.0000 H   0  0  0  0  0  0  0  0  0  0  0  0
    8.6851    6.7158    0.0000 H   0  0  0  0  0  0  0  0  0  0  0  0
    7.2085    4.1582    0.0000 H   0  0  0  0  0  0  0  0  0  0  0  0
    8.0055    4.1582    0.0000 H   0  0  0  0  0  0  0  0  0  0  0  0
    6.2735    7.1081    0.0000 H   0  0  0  0  0  0  0  0  0  0  0  0
    5.4764    7.1081    0.0000 H   0  0  0  0  0  0  0  0  0  0  0  0
    4.6104    5.6582    0.0000 H   0  0  0  0  0  0  0  0  0  0  0  0
    5.4075    5.6582    0.0000 H   0  0  0  0  0  0  0  0  0  0  0  0
    1.1233    5.6195    0.0000 H   0  0  0  0  0  0  0  0  0  0  0  0
    1.9215    5.6287    0.0000 H   0  0  0  0  0  0  0  0  0  0  0  0
    0.0000    6.7184    0.0000 H   0  0  0  0  0  0  0  0  0  0  0  0
    0.4018    6.0287    0.0000 H   0  0  0  0  0  0  0  0  0  0  0  0
    0.4018    8.2377    0.0000 H   0  0  0  0  0  0  0  0  0  0  0  0
    0.0000    7.5479    0.0000 H   0  0  0  0  0  0  0  0  0  0  0  0
    1.9215    8.6376    0.0000 H   0  0  0  0  0  0  0  0  0  0  0  0
    1.1233    8.6469    0.0000 H   0  0  0  0  0  0  0  0  0  0  0  0
    8.8021    3.3232    0.0000 H   0  0  0  0  0  0  0  0  0  0  0  0
    5.3189    7.5962    0.0000 H   0  0  0  0  0  0  0  0  0  0  0  0
    5.5459    8.4432    0.0000 H   0  0  0  0  0  0  0  0  0  0  0  0
    4.6989    8.6701    0.0000 H   0  0  0  0  0  0  0  0  0  0  0  0
   10.2051    2.5132    0.0000 H   0  0  0  0  0  0  0  0  0  0  0  0
   11.6081    3.3232    0.0000 H   0  0  0  0  0  0  0  0  0  0  0  0
    6.6583    0.0000    0.0000 H   0  0  0  0  0  0  0  0  0  0  0  0
  1 59  1  0  0  0  0
  2 32  1  0  0  0  0
  3 32  1  0  0  0  0
  4 26  1  0  0  0  0
  4 32  1  0  0  0  0
  5 24  2  0  0  0  0
  6 29  1  0  0  0  0
  6 32  1  0  0  0  0
  7 11  1  0  0  0  0
  7 12  1  0  0  0  0
  7 15  1  0  0  0  0
  8 13  1  0  0  0  0
  8 14  1  0  0  0  0
  8 23  1  0  0  0  0
  9 18  1  0  0  0  0
  9 21  1  0  0  0  0
  9 24  1  0  0  0  0
 10 21  2  0  0  0  0
 10 25  1  0  0  0  0
 11 13  1  0  0  0  0
 11 33  1  0  0  0  0
 11 34  1  0  0  0  0
 12 14  1  0  0  0  0
 12 35  1  0  0  0  0
 12 36  1  0  0  0  0
 13 37  1  0  0  0  0
 13 38  1  0  0  0  0
 14 39  1  0  0  0  0
 14 40  1  0  0  0  0
 15 16  1  0  0  0  0
 15 41  1  0  0  0  0
 15 42  1  0  0  0  0
 16 17  1  0  0  0  0
 16 43  1  0  0  0  0
 16 44  1  0  0  0  0
 17 24  1  0  0  0  0
 17 25  2  0  0  0  0
 18 19  1  0  0  0  0
 18 45  1  0  0  0  0
 18 46  1  0  0  0  0
 19 20  1  0  0  0  0
 19 47  1  0  0  0  0
 19 48  1  0  0  0  0
 20 22  1  0  0  0  0
 20 49  1  0  0  0  0
 20 50  1  0  0  0  0
 21 22  1  0  0  0  0
 22 51  1  0  0  0  0
 22 52  1  0  0  0  0
 23 26  2  0  0  0  0
 23 27  1  0  0  0  0
 25 28  1  0  0  0  0
 26 29  1  0  0  0  0
 27 30  2  0  0  0  0
 27 53  1  0  0  0  0
 28 54  1  0  0  0  0
 28 55  1  0  0  0  0
 28 56  1  0  0  0  0
 29 31  2  0  0  0  0
 30 31  1  0  0  0  0
 30 57  1  0  0  0  0
 31 58  1  0  0  0  0
M  END
> <PUBCHEM_COMPOUND_CID>
137650482

> <PUBCHEM_COMPOUND_CANONICALIZED>
1

> <PUBCHEM_CACTVS_COMPLEXITY>
779

> <PUBCHEM_CACTVS_HBOND_ACCEPTOR>
8

> <PUBCHEM_CACTVS_HBOND_DONOR>
1

> <PUBCHEM_CACTVS_ROTATABLE_BOND>
4

> <PUBCHEM_CACTVS_SUBSKEYS>
AAADceB7sYAEAAAAAAAAAAAAAAAAASAAAAA8WIEAAAAAAEiBAAAAHwAAAAAADAzBkBQzzoMABACoAidydACCCAEhIgAJiAE/7MgfZjLEuZu1MCpmxhne6UeUUAMAAAAAAgAAUAAAAAAEAACgAAAAAAAAAA==

> <PUBCHEM_IUPAC_OPENEYE_NAME>
3-[2-[4-(2,2-difluoro-1,3-benzodioxol-4-yl)piperazin-1-yl]ethyl]-2-methyl-6,7,8,9-tetrahydropyrido[1,2-a]pyrimidin-4-one;hydrochloride

> <PUBCHEM_IUPAC_CAS_NAME>
3-[2-[4-(2,2-difluoro-1,3-benzodioxol-4-yl)-1-piperazinyl]ethyl]-2-methyl-6,7,8,9-tetrahydropyrido[1,2-a]pyrimidin-4-one;hydrochloride

> <PUBCHEM_IUPAC_NAME_MARKUP>
3-[2-[4-(2,2-difluoro-1,3-benzodioxol-4-yl)piperazin-1-yl]ethyl]-2-methyl-6,7,8,9-tetrahydropyrido[1,2-a]pyrimidin-4-one;hydrochloride

> <PUBCHEM_IUPAC_NAME>
3-[2-[4-(2,2-difluoro-1,3-benzodioxol-4-yl)piperazin-1-yl]ethyl]-2-methyl-6,7,8,9-tetrahydropyrido[1,2-a]pyrimidin-4-one;hydrochloride

> <PUBCHEM_IUPAC_SYSTEMATIC_NAME>
3-[2-[4-[2,2-bis(fluoranyl)-1,3-benzodioxol-4-yl]piperazin-1-yl]ethyl]-2-methyl-6,7,8,9-tetrahydropyrido[1,2-a]pyrimidin-4-one;hydrochloride

> <PUBCHEM_IUPAC_TRADITIONAL_NAME>
3-[2-[4-(2,2-difluoro-1,3-benzodioxol-4-yl)piperazino]ethyl]-2-methyl-6,7,8,9-tetrahydropyrido[1,2-a]pyrimidin-4-one;hydrochloride

> <PUBCHEM_IUPAC_INCHI>
InChI=1S/C22H26F2N4O3.ClH/c1-15-16(21(29)28-9-3-2-7-19(28)25-15)8-10-26-11-13-27(14-12-26)17-5-4-6-18-20(17)31-22(23,24)30-18;/h4-6H,2-3,7-14H2,1H3;1H

> <PUBCHEM_IUPAC_INCHIKEY>
QRYCBQBESQSXCP-UHFFFAOYSA-N

> <PUBCHEM_EXACT_MASS>
468.1739748

> <PUBCHEM_MOLECULAR_FORMULA>
C22H27ClF2N4O3

> <PUBCHEM_MOLECULAR_WEIGHT>
468.9

> <PUBCHEM_OPENEYE_CAN_SMILES>
CC1=C(C(=O)N2CCCCC2=N1)CCN3CCN(CC3)C4=C5C(=CC=C4)OC(O5)(F)F.Cl

> <PUBCHEM_OPENEYE_ISO_SMILES>
CC1=C(C(=O)N2CCCCC2=N1)CCN3CCN(CC3)C4=C5C(=CC=C4)OC(O5)(F)F.Cl

> <PUBCHEM_CACTVS_TPSA>
57.6

> <PUBCHEM_MONOISOTOPIC_WEIGHT>
468.1739748

> <PUBCHEM_TOTAL_CHARGE>
0

> <PUBCHEM_HEAVY_ATOM_COUNT>
32

> <PUBCHEM_ATOM_DEF_STEREO_COUNT>
0

> <PUBCHEM_ATOM_UDEF_STEREO_COUNT>
0

> <PUBCHEM_BOND_DEF_STEREO_COUNT>
0

> <PUBCHEM_BOND_UDEF_STEREO_COUNT>
0

> <PUBCHEM_ISOTOPIC_ATOM_COUNT>
0

> <PUBCHEM_COMPONENT_COUNT>
2

> <PUBCHEM_CACTVS_TAUTO_COUNT>
-1

> <PUBCHEM_COORDINATE_TYPE>
1
5
255

> <PUBCHEM_BONDANNOTATIONS>
10  21  8
10  25  8
17  24  8
17  25  8
23  26  8
23  27  8
26  29  8
27  30  8
29  31  8
30  31  8
9  21  8
9  24  8

$$$$
