3716121
  -OEChem-09292322332D

 49 52  0     0  0  0  0  0  0999 V2000
    9.7142   -0.4080    0.0000 O   0  0  0  0  0  0  0  0  0  0  0  0
    6.4162    0.6518    0.0000 N   0  0  0  0  0  0  0  0  0  0  0  0
    8.3711    1.0740    0.0000 N   0  0  0  0  0  0  0  0  0  0  0  0
    6.7221    1.6038    0.0000 C   0  0  0  0  0  0  0  0  0  0  0  0
    7.0877   -0.0892    0.0000 C   0  0  0  0  0  0  0  0  0  0  0  0
    7.6996    1.8149    0.0000 C   0  0  0  0  0  0  0  0  0  0  0  0
    8.0652    0.1219    0.0000 C   0  0  0  0  0  0  0  0  0  0  0  0
    5.4387    0.4407    0.0000 C   0  0  0  0  0  0  0  0  0  0  0  0
    5.1328   -0.5114    0.0000 C   0  0  0  0  0  0  0  0  0  0  0  0
    9.3486    1.2850    0.0000 C   0  0  0  0  0  0  0  0  0  0  0  0
    4.1881   -0.8208    0.0000 C   0  0  0  0  0  0  0  0  0  0  0  0
    5.7204   -1.3132    0.0000 C   0  0  0  0  0  0  0  0  0  0  0  0
    4.1931   -1.8208    0.0000 C   0  0  0  0  0  0  0  0  0  0  0  0
   10.0201    0.5441    0.0000 C   0  0  0  0  0  0  0  0  0  0  0  0
    9.6545    2.2371    0.0000 C   0  0  0  0  0  0  0  0  0  0  0  0
    5.1408   -2.1208    0.0000 C   0  0  0  0  0  0  0  0  0  0  0  0
    3.4032   -0.2013    0.0000 C   0  0  0  0  0  0  0  0  0  0  0  0
   10.9976    0.7552    0.0000 C   0  0  0  0  0  0  0  0  0  0  0  0
   10.6320    2.4482    0.0000 C   0  0  0  0  0  0  0  0  0  0  0  0
    3.4144   -2.4482    0.0000 C   0  0  0  0  0  0  0  0  0  0  0  0
   11.3035    1.7072    0.0000 C   0  0  0  0  0  0  0  0  0  0  0  0
    2.4294   -0.4286    0.0000 C   0  0  0  0  0  0  0  0  0  0  0  0
    2.4384   -2.2306    0.0000 C   0  0  0  0  0  0  0  0  0  0  0  0
    2.0000   -1.3318    0.0000 C   0  0  0  0  0  0  0  0  0  0  0  0
   10.3858   -1.1489    0.0000 C   0  0  0  0  0  0  0  0  0  0  0  0
    6.6985    2.2234    0.0000 H   0  0  0  0  0  0  0  0  0  0  0  0
    6.1079    1.6881    0.0000 H   0  0  0  0  0  0  0  0  0  0  0  0
    6.5630   -0.4195    0.0000 H   0  0  0  0  0  0  0  0  0  0  0  0
    7.3219   -0.6633    0.0000 H   0  0  0  0  0  0  0  0  0  0  0  0
    8.2243    2.1452    0.0000 H   0  0  0  0  0  0  0  0  0  0  0  0
    7.4654    2.3890    0.0000 H   0  0  0  0  0  0  0  0  0  0  0  0
    8.0889   -0.4977    0.0000 H   0  0  0  0  0  0  0  0  0  0  0  0
    8.6794    0.0376    0.0000 H   0  0  0  0  0  0  0  0  0  0  0  0
    5.4151    1.0602    0.0000 H   0  0  0  0  0  0  0  0  0  0  0  0
    4.8245    0.5250    0.0000 H   0  0  0  0  0  0  0  0  0  0  0  0
    6.3404   -1.3101    0.0000 H   0  0  0  0  0  0  0  0  0  0  0  0
    9.2381    2.6965    0.0000 H   0  0  0  0  0  0  0  0  0  0  0  0
    5.3364   -2.7092    0.0000 H   0  0  0  0  0  0  0  0  0  0  0  0
    3.5381    0.4039    0.0000 H   0  0  0  0  0  0  0  0  0  0  0  0
   11.4140    0.2958    0.0000 H   0  0  0  0  0  0  0  0  0  0  0  0
   10.8216    3.0385    0.0000 H   0  0  0  0  0  0  0  0  0  0  0  0
    3.5554   -3.0520    0.0000 H   0  0  0  0  0  0  0  0  0  0  0  0
   11.9096    1.8381    0.0000 H   0  0  0  0  0  0  0  0  0  0  0  0
    2.0404    0.0542    0.0000 H   0  0  0  0  0  0  0  0  0  0  0  0
    2.0542   -2.7172    0.0000 H   0  0  0  0  0  0  0  0  0  0  0  0
    1.3800   -1.3349    0.0000 H   0  0  0  0  0  0  0  0  0  0  0  0
    9.9264   -1.5653    0.0000 H   0  0  0  0  0  0  0  0  0  0  0  0
   10.8021   -1.6083    0.0000 H   0  0  0  0  0  0  0  0  0  0  0  0
   10.8452   -0.7326    0.0000 H   0  0  0  0  0  0  0  0  0  0  0  0
  1 14  1  0  0  0  0
  1 25  1  0  0  0  0
  2  4  1  0  0  0  0
  2  5  1  0  0  0  0
  2  8  1  0  0  0  0
  3  6  1  0  0  0  0
  3  7  1  0  0  0  0
  3 10  1  0  0  0  0
  4  6  1  0  0  0  0
  4 26  1  0  0  0  0
  4 27  1  0  0  0  0
  5  7  1  0  0  0  0
  5 28  1  0  0  0  0
  5 29  1  0  0  0  0
  6 30  1  0  0  0  0
  6 31  1  0  0  0  0
  7 32  1  0  0  0  0
  7 33  1  0  0  0  0
  8  9  1  0  0  0  0
  8 34  1  0  0  0  0
  8 35  1  0  0  0  0
  9 11  2  0  0  0  0
  9 12  1  0  0  0  0
 10 14  1  0  0  0  0
 10 15  2  0  0  0  0
 11 13  1  0  0  0  0
 11 17  1  0  0  0  0
 12 16  2  0  0  0  0
 12 36  1  0  0  0  0
 13 16  1  0  0  0  0
 13 20  2  0  0  0  0
 14 18  2  0  0  0  0
 15 19  1  0  0  0  0
 15 37  1  0  0  0  0
 16 38  1  0  0  0  0
 17 22  2  0  0  0  0
 17 39  1  0  0  0  0
 18 21  1  0  0  0  0
 18 40  1  0  0  0  0
 19 21  2  0  0  0  0
 19 41  1  0  0  0  0
 20 23  1  0  0  0  0
 20 42  1  0  0  0  0
 21 43  1  0  0  0  0
 22 24  1  0  0  0  0
 22 44  1  0  0  0  0
 23 24  2  0  0  0  0
 23 45  1  0  0  0  0
 24 46  1  0  0  0  0
 25 47  1  0  0  0  0
 25 48  1  0  0  0  0
 25 49  1  0  0  0  0
M  END
> <PUBCHEM_COMPOUND_CID>
3716121

> <PUBCHEM_COMPOUND_CANONICALIZED>
1

> <PUBCHEM_CACTVS_COMPLEXITY>
407

> <PUBCHEM_CACTVS_HBOND_ACCEPTOR>
3

> <PUBCHEM_CACTVS_HBOND_DONOR>
0

> <PUBCHEM_CACTVS_ROTATABLE_BOND>
4

> <PUBCHEM_CACTVS_SUBSKEYS>
AAADceB7IAAAAAAAAAAAAAAAAAAAAYAAAAA8QAAABgAAAADBQAAAHgAAAAAADAzBmAYyxsMABACAAiRCQACCCAAhIgAIiAAPbIgOZiLEsZuVMChkwBHY6AeQwMAOgAAAAAAAEAAAAAAAAAAgAQAACAAAAA==

> <PUBCHEM_IUPAC_OPENEYE_NAME>
1-(azulen-1-ylmethyl)-4-(2-methoxyphenyl)piperazine

> <PUBCHEM_IUPAC_CAS_NAME>
1-(1-azulenylmethyl)-4-(2-methoxyphenyl)piperazine

> <PUBCHEM_IUPAC_NAME_MARKUP>
1-(azulen-1-ylmethyl)-4-(2-methoxyphenyl)piperazine

> <PUBCHEM_IUPAC_NAME>
1-(azulen-1-ylmethyl)-4-(2-methoxyphenyl)piperazine

> <PUBCHEM_IUPAC_SYSTEMATIC_NAME>
1-(azulen-1-ylmethyl)-4-(2-methoxyphenyl)piperazine

> <PUBCHEM_IUPAC_TRADITIONAL_NAME>
1-(azulen-1-ylmethyl)-4-(2-methoxyphenyl)piperazine

> <PUBCHEM_IUPAC_INCHI>
InChI=1S/C22H24N2O/c1-25-22-10-6-5-9-21(22)24-15-13-23(14-16-24)17-19-12-11-18-7-3-2-4-8-20(18)19/h2-12H,13-17H2,1H3

> <PUBCHEM_IUPAC_INCHIKEY>
MNVDCQLMHFFYCU-UHFFFAOYSA-N

> <PUBCHEM_XLOGP3_AA>
4.3

> <PUBCHEM_EXACT_MASS>
332.188863393

> <PUBCHEM_MOLECULAR_FORMULA>
C22H24N2O

> <PUBCHEM_MOLECULAR_WEIGHT>
332.4

> <PUBCHEM_OPENEYE_CAN_SMILES>
COC1=CC=CC=C1N2CCN(CC2)CC3=C4C=CC=CC=C4C=C3

> <PUBCHEM_OPENEYE_ISO_SMILES>
COC1=CC=CC=C1N2CCN(CC2)CC3=C4C=CC=CC=C4C=C3

> <PUBCHEM_CACTVS_TPSA>
15.7

> <PUBCHEM_MONOISOTOPIC_WEIGHT>
332.188863393

> <PUBCHEM_TOTAL_CHARGE>
0

> <PUBCHEM_HEAVY_ATOM_COUNT>
25

> <PUBCHEM_ATOM_DEF_STEREO_COUNT>
0

> <PUBCHEM_ATOM_UDEF_STEREO_COUNT>
0

> <PUBCHEM_BOND_DEF_STEREO_COUNT>
0

> <PUBCHEM_BOND_UDEF_STEREO_COUNT>
0

> <PUBCHEM_ISOTOPIC_ATOM_COUNT>
0

> <PUBCHEM_COMPONENT_COUNT>
1

> <PUBCHEM_CACTVS_TAUTO_COUNT>
1

> <PUBCHEM_COORDINATE_TYPE>
1
5
255

> <PUBCHEM_BONDANNOTATIONS>
10  14  8
10  15  8
11  17  8
12  16  8
13  16  8
13  20  8
14  18  8
15  19  8
17  22  8
18  21  8
19  21  8
20  23  8
22  24  8
23  24  8
9  11  8
9  12  8

$$$$
