118717796
  -OEChem-09292322362D

 52 55  0     1  0  0  0  0  0999 V2000
    5.3871    1.2476    0.0000 S   0  0  0  0  0  0  0  0  0  0  0  0
    3.8372   -5.1162    0.0000 O   0  0  0  0  0  0  0  0  0  0  0  0
    5.6405   -4.0564    0.0000 O   0  0  0  0  0  0  0  0  0  0  0  0
    2.9180   -0.4195    0.0000 N   0  0  3  0  0  0  0  0  0  0  0  0
    3.7841   -0.9195    0.0000 C   0  0  1  0  0  0  0  0  0  0  0  0
    4.6501   -0.4195    0.0000 C   0  0  0  0  0  0  0  0  0  0  0  0
    2.9180    0.5805    0.0000 C   0  0  0  0  0  0  0  0  0  0  0  0
    2.0080   -0.9263    0.0000 C   0  0  0  0  0  0  0  0  0  0  0  0
    3.8001   -1.9610    0.0000 C   0  0  0  0  0  0  0  0  0  0  0  0
    3.7841    1.0805    0.0000 C   0  0  0  0  0  0  0  0  0  0  0  0
    4.6501    0.5805    0.0000 C   0  0  0  0  0  0  0  0  0  0  0  0
    2.0000   -1.9679    0.0000 C   0  0  0  0  0  0  0  0  0  0  0  0
    2.9021   -2.4887    0.0000 C   0  0  0  0  0  0  0  0  0  0  0  0
    3.9933    2.0524    0.0000 C   0  0  0  0  0  0  0  0  0  0  0  0
    4.9820    2.1554    0.0000 C   0  0  0  0  0  0  0  0  0  0  0  0
    4.7520   -2.4816    0.0000 C   0  0  0  0  0  0  0  0  0  0  0  0
    5.4820    3.0214    0.0000 C   0  0  0  0  0  0  0  0  0  0  0  0
    2.8937   -3.5737    0.0000 C   0  0  0  0  0  0  0  0  0  0  0  0
    4.9820    3.8875    0.0000 C   0  0  3  0  0  0  0  0  0  0  0  0
    4.7688   -3.5665    0.0000 C   0  0  0  0  0  0  0  0  0  0  0  0
    3.8334   -4.1162    0.0000 C   0  0  0  0  0  0  0  0  0  0  0  0
    5.4820    4.7535    0.0000 C   0  0  0  0  0  0  0  0  0  0  0  0
    3.9820    3.8875    0.0000 C   0  0  0  0  0  0  0  0  0  0  0  0
    4.9820    5.6195    0.0000 C   0  0  0  0  0  0  0  0  0  0  0  0
    2.9731   -5.6195    0.0000 C   0  0  0  0  0  0  0  0  0  0  0  0
    4.5234   -1.3388    0.0000 H   0  0  0  0  0  0  0  0  0  0  0  0
    4.8621   -1.0021    0.0000 H   0  0  0  0  0  0  0  0  0  0  0  0
    5.2607   -0.3118    0.0000 H   0  0  0  0  0  0  0  0  0  0  0  0
    2.7060    1.1631    0.0000 H   0  0  0  0  0  0  0  0  0  0  0  0
    2.3074    0.4729    0.0000 H   0  0  0  0  0  0  0  0  0  0  0  0
    1.8035   -0.3410    0.0000 H   0  0  0  0  0  0  0  0  0  0  0  0
    1.3964   -1.0277    0.0000 H   0  0  0  0  0  0  0  0  0  0  0  0
    1.3900   -1.8571    0.0000 H   0  0  0  0  0  0  0  0  0  0  0  0
    1.7864   -2.5500    0.0000 H   0  0  0  0  0  0  0  0  0  0  0  0
    3.5792    2.5138    0.0000 H   0  0  0  0  0  0  0  0  0  0  0  0
    5.2829   -2.1613    0.0000 H   0  0  0  0  0  0  0  0  0  0  0  0
    5.9569    2.6229    0.0000 H   0  0  0  0  0  0  0  0  0  0  0  0
    5.9569    3.4200    0.0000 H   0  0  0  0  0  0  0  0  0  0  0  0
    2.3556   -3.8816    0.0000 H   0  0  0  0  0  0  0  0  0  0  0  0
    4.6720    4.4244    0.0000 H   0  0  0  0  0  0  0  0  0  0  0  0
    5.9569    4.3550    0.0000 H   0  0  0  0  0  0  0  0  0  0  0  0
    5.9569    5.1520    0.0000 H   0  0  0  0  0  0  0  0  0  0  0  0
    3.9820    4.5075    0.0000 H   0  0  0  0  0  0  0  0  0  0  0  0
    3.3620    3.8875    0.0000 H   0  0  0  0  0  0  0  0  0  0  0  0
    3.9820    3.2675    0.0000 H   0  0  0  0  0  0  0  0  0  0  0  0
    5.5189    5.9295    0.0000 H   0  0  0  0  0  0  0  0  0  0  0  0
    4.6720    6.1565    0.0000 H   0  0  0  0  0  0  0  0  0  0  0  0
    4.4450    5.3095    0.0000 H   0  0  0  0  0  0  0  0  0  0  0  0
    6.1738   -3.7402    0.0000 H   0  0  0  0  0  0  0  0  0  0  0  0
    2.6610   -5.0838    0.0000 H   0  0  0  0  0  0  0  0  0  0  0  0
    2.4374   -5.9316    0.0000 H   0  0  0  0  0  0  0  0  0  0  0  0
    3.2852   -6.1552    0.0000 H   0  0  0  0  0  0  0  0  0  0  0  0
  1 11  1  0  0  0  0
  1 15  1  0  0  0  0
  2 21  1  0  0  0  0
  2 25  1  0  0  0  0
  3 20  1  0  0  0  0
  3 49  1  0  0  0  0
  4  5  1  0  0  0  0
  4  7  1  0  0  0  0
  4  8  1  0  0  0  0
  5  6  1  0  0  0  0
  5  9  1  0  0  0  0
  5 26  1  6  0  0  0
  6 11  1  0  0  0  0
  6 27  1  0  0  0  0
  6 28  1  0  0  0  0
  7 10  1  0  0  0  0
  7 29  1  0  0  0  0
  7 30  1  0  0  0  0
  8 12  1  0  0  0  0
  8 31  1  0  0  0  0
  8 32  1  0  0  0  0
  9 13  1  0  0  0  0
  9 16  2  0  0  0  0
 10 11  2  0  0  0  0
 10 14  1  0  0  0  0
 12 13  1  0  0  0  0
 12 33  1  0  0  0  0
 12 34  1  0  0  0  0
 13 18  2  0  0  0  0
 14 15  2  0  0  0  0
 14 35  1  0  0  0  0
 15 17  1  0  0  0  0
 16 20  1  0  0  0  0
 16 36  1  0  0  0  0
 17 19  1  0  0  0  0
 17 37  1  0  0  0  0
 17 38  1  0  0  0  0
 18 21  1  0  0  0  0
 18 39  1  0  0  0  0
 19 22  1  0  0  0  0
 19 23  1  0  0  0  0
 19 40  1  0  0  0  0
 20 21  2  0  0  0  0
 22 24  1  0  0  0  0
 22 41  1  0  0  0  0
 22 42  1  0  0  0  0
 23 43  1  0  0  0  0
 23 44  1  0  0  0  0
 23 45  1  0  0  0  0
 24 46  1  0  0  0  0
 24 47  1  0  0  0  0
 24 48  1  0  0  0  0
 25 50  1  0  0  0  0
 25 51  1  0  0  0  0
 25 52  1  0  0  0  0
M  END
> <PUBCHEM_COMPOUND_CID>
118717796

> <PUBCHEM_COMPOUND_CANONICALIZED>
1

> <PUBCHEM_CACTVS_COMPLEXITY>
461

> <PUBCHEM_CACTVS_HBOND_ACCEPTOR>
4

> <PUBCHEM_CACTVS_HBOND_DONOR>
1

> <PUBCHEM_CACTVS_ROTATABLE_BOND>
4

> <PUBCHEM_CACTVS_SUBSKEYS>
AAADceB6MABAAAAAAAAAAAAAAAAAASAAAAA8WIAAAAAAAFixwAAAHgQACAAADSzB2AYyB4MABgiEAiBCAACDCIAgKBBAiBgOjIgNJiKmsRuEcCtkwBGruAew0PMOoAABAAAQQABAAAIAACCAAAAAAAAAAA==

> <PUBCHEM_IUPAC_OPENEYE_NAME>
(1S)-5-methoxy-14-(2-methylbutyl)-15-thia-10-azatetracyclo[8.7.0.02,7.012,16]heptadeca-2,4,6,12(16),13-pentaen-4-ol

> <PUBCHEM_IUPAC_CAS_NAME>
(1S)-5-methoxy-14-(2-methylbutyl)-15-thia-10-azatetracyclo[8.7.0.02,7.012,16]heptadeca-2,4,6,12(16),13-pentaen-4-ol

> <PUBCHEM_IUPAC_NAME_MARKUP>
(1<I>S</I>)-5-methoxy-14-(2-methylbutyl)-15-thia-10-azatetracyclo[8.7.0.0<SUP>2,7</SUP>.0<SUP>12,16</SUP>]heptadeca-2,4,6,12(16),13-pentaen-4-ol

> <PUBCHEM_IUPAC_NAME>
(1S)-5-methoxy-14-(2-methylbutyl)-15-thia-10-azatetracyclo[8.7.0.02,7.012,16]heptadeca-2,4,6,12(16),13-pentaen-4-ol

> <PUBCHEM_IUPAC_SYSTEMATIC_NAME>
(1S)-5-methoxy-14-(2-methylbutyl)-15-thia-10-azatetracyclo[8.7.0.02,7.012,16]heptadeca-2,4,6,12(16),13-pentaen-4-ol

> <PUBCHEM_IUPAC_TRADITIONAL_NAME>
(1S)-5-methoxy-14-(2-methylbutyl)-15-thia-10-azatetracyclo[8.7.0.02,7.012,16]heptadeca-2,4,6,12(16),13-pentaen-4-ol

> <PUBCHEM_IUPAC_INCHI>
InChI=1S/C21H27NO2S/c1-4-13(2)7-16-8-15-12-22-6-5-14-9-20(24-3)19(23)10-17(14)18(22)11-21(15)25-16/h8-10,13,18,23H,4-7,11-12H2,1-3H3/t13?,18-/m0/s1

> <PUBCHEM_IUPAC_INCHIKEY>
BMFJFECGESTBHX-UWBLVGDVSA-N

> <PUBCHEM_XLOGP3_AA>
4.9

> <PUBCHEM_EXACT_MASS>
357.17625028

> <PUBCHEM_MOLECULAR_FORMULA>
C21H27NO2S

> <PUBCHEM_MOLECULAR_WEIGHT>
357.5

> <PUBCHEM_OPENEYE_CAN_SMILES>
CCC(C)CC1=CC2=C(S1)CC3C4=CC(=C(C=C4CCN3C2)OC)O

> <PUBCHEM_OPENEYE_ISO_SMILES>
CCC(C)CC1=CC2=C(S1)C[C@H]3C4=CC(=C(C=C4CCN3C2)OC)O

> <PUBCHEM_CACTVS_TPSA>
60.9

> <PUBCHEM_MONOISOTOPIC_WEIGHT>
357.17625028

> <PUBCHEM_TOTAL_CHARGE>
0

> <PUBCHEM_HEAVY_ATOM_COUNT>
25

> <PUBCHEM_ATOM_DEF_STEREO_COUNT>
1

> <PUBCHEM_ATOM_UDEF_STEREO_COUNT>
1

> <PUBCHEM_BOND_DEF_STEREO_COUNT>
0

> <PUBCHEM_BOND_UDEF_STEREO_COUNT>
0

> <PUBCHEM_ISOTOPIC_ATOM_COUNT>
0

> <PUBCHEM_COMPONENT_COUNT>
1

> <PUBCHEM_CACTVS_TAUTO_COUNT>
-1

> <PUBCHEM_COORDINATE_TYPE>
1
5
255

> <PUBCHEM_BONDANNOTATIONS>
1  11  8
1  15  8
10  11  8
10  14  8
13  18  8
14  15  8
16  20  8
18  21  8
19  23  3
20  21  8
5  26  6
9  13  8
9  16  8

$$$$
