127026750
  -OEChem-09292322362D

 62 65  0     0  0  0  0  0  0999 V2000
    6.3301    3.6012    0.0000 S   0  0  0  0  0  0  0  0  0  0  0  0
    9.7942    3.6012    0.0000 F   0  0  0  0  0  0  0  0  0  0  0  0
    4.5981   -2.3988    0.0000 O   0  0  0  0  0  0  0  0  0  0  0  0
    5.8301    4.4672    0.0000 O   0  0  0  0  0  0  0  0  0  0  0  0
    6.8301    2.7352    0.0000 O   0  0  0  0  0  0  0  0  0  0  0  0
    5.4641    0.1012    0.0000 N   0  0  0  0  0  0  0  0  0  0  0  0
    5.4641    3.1012    0.0000 N   0  0  0  0  0  0  0  0  0  0  0  0
    4.5981   -4.3988    0.0000 C   0  0  0  0  0  0  0  0  0  0  0  0
    5.4641    2.1012    0.0000 C   0  0  0  0  0  0  0  0  0  0  0  0
    4.7026   -5.3933    0.0000 C   0  0  0  0  0  0  0  0  0  0  0  0
    5.5116   -3.9920    0.0000 C   0  0  0  0  0  0  0  0  0  0  0  0
    5.6808   -5.6012    0.0000 C   0  0  0  0  0  0  0  0  0  0  0  0
    6.1808   -4.7352    0.0000 C   0  0  0  0  0  0  0  0  0  0  0  0
    6.3301    1.6012    0.0000 C   0  0  0  0  0  0  0  0  0  0  0  0
    4.5981    1.6012    0.0000 C   0  0  0  0  0  0  0  0  0  0  0  0
    6.3301    0.6012    0.0000 C   0  0  0  0  0  0  0  0  0  0  0  0
    4.5981    0.6012    0.0000 C   0  0  0  0  0  0  0  0  0  0  0  0
    3.7320   -3.8988    0.0000 C   0  0  0  0  0  0  0  0  0  0  0  0
    5.4641   -0.8988    0.0000 C   0  0  0  0  0  0  0  0  0  0  0  0
    3.7320   -2.8988    0.0000 C   0  0  0  0  0  0  0  0  0  0  0  0
    4.5981   -1.3988    0.0000 C   0  0  0  0  0  0  0  0  0  0  0  0
    2.8660   -4.3988    0.0000 C   0  0  0  0  0  0  0  0  0  0  0  0
    2.8660   -2.3988    0.0000 C   0  0  0  0  0  0  0  0  0  0  0  0
    2.0000   -3.8988    0.0000 C   0  0  0  0  0  0  0  0  0  0  0  0
    7.1962    4.1012    0.0000 C   0  0  0  0  0  0  0  0  0  0  0  0
    2.0000   -2.8988    0.0000 C   0  0  0  0  0  0  0  0  0  0  0  0
    8.0622    3.6012    0.0000 C   0  0  0  0  0  0  0  0  0  0  0  0
    7.1962    5.1012    0.0000 C   0  0  0  0  0  0  0  0  0  0  0  0
    8.9282    4.1012    0.0000 C   0  0  0  0  0  0  0  0  0  0  0  0
    8.0622    5.6012    0.0000 C   0  0  0  0  0  0  0  0  0  0  0  0
    8.9282    5.1012    0.0000 C   0  0  0  0  0  0  0  0  0  0  0  0
    4.0781   -4.7365    0.0000 H   0  0  0  0  0  0  0  0  0  0  0  0
    6.0010    2.4112    0.0000 H   0  0  0  0  0  0  0  0  0  0  0  0
    4.0826   -5.3933    0.0000 H   0  0  0  0  0  0  0  0  0  0  0  0
    4.6378   -6.0099    0.0000 H   0  0  0  0  0  0  0  0  0  0  0  0
    6.0132   -3.6276    0.0000 H   0  0  0  0  0  0  0  0  0  0  0  0
    5.2016   -3.4551    0.0000 H   0  0  0  0  0  0  0  0  0  0  0  0
    5.4892   -6.1909    0.0000 H   0  0  0  0  0  0  0  0  0  0  0  0
    6.2472   -5.8534    0.0000 H   0  0  0  0  0  0  0  0  0  0  0  0
    6.6823   -5.0996    0.0000 H   0  0  0  0  0  0  0  0  0  0  0  0
    6.5956   -4.2744    0.0000 H   0  0  0  0  0  0  0  0  0  0  0  0
    6.9407    1.4936    0.0000 H   0  0  0  0  0  0  0  0  0  0  0  0
    6.5422    2.1838    0.0000 H   0  0  0  0  0  0  0  0  0  0  0  0
    4.3860    2.1838    0.0000 H   0  0  0  0  0  0  0  0  0  0  0  0
    3.9875    1.4936    0.0000 H   0  0  0  0  0  0  0  0  0  0  0  0
    6.5422    0.0186    0.0000 H   0  0  0  0  0  0  0  0  0  0  0  0
    6.9407    0.7089    0.0000 H   0  0  0  0  0  0  0  0  0  0  0  0
    3.9875    0.7089    0.0000 H   0  0  0  0  0  0  0  0  0  0  0  0
    4.3860    0.0186    0.0000 H   0  0  0  0  0  0  0  0  0  0  0  0
    5.6762   -1.4814    0.0000 H   0  0  0  0  0  0  0  0  0  0  0  0
    6.0747   -0.7911    0.0000 H   0  0  0  0  0  0  0  0  0  0  0  0
    4.9272    3.4112    0.0000 H   0  0  0  0  0  0  0  0  0  0  0  0
    4.3860   -0.8162    0.0000 H   0  0  0  0  0  0  0  0  0  0  0  0
    3.9875   -1.5064    0.0000 H   0  0  0  0  0  0  0  0  0  0  0  0
    2.8660   -5.0188    0.0000 H   0  0  0  0  0  0  0  0  0  0  0  0
    2.8660   -1.7788    0.0000 H   0  0  0  0  0  0  0  0  0  0  0  0
    1.4631   -4.2088    0.0000 H   0  0  0  0  0  0  0  0  0  0  0  0
    1.4631   -2.5888    0.0000 H   0  0  0  0  0  0  0  0  0  0  0  0
    8.0622    2.9812    0.0000 H   0  0  0  0  0  0  0  0  0  0  0  0
    6.6592    5.4112    0.0000 H   0  0  0  0  0  0  0  0  0  0  0  0
    8.0622    6.2212    0.0000 H   0  0  0  0  0  0  0  0  0  0  0  0
    9.4651    5.4112    0.0000 H   0  0  0  0  0  0  0  0  0  0  0  0
  1  4  2  0  0  0  0
  1  5  2  0  0  0  0
  1  7  1  0  0  0  0
  1 25  1  0  0  0  0
  2 29  1  0  0  0  0
  3 20  1  0  0  0  0
  3 21  1  0  0  0  0
  6 16  1  0  0  0  0
  6 17  1  0  0  0  0
  6 19  1  0  0  0  0
  7  9  1  0  0  0  0
  7 52  1  0  0  0  0
  8 10  1  0  0  0  0
  8 11  1  0  0  0  0
  8 18  1  0  0  0  0
  8 32  1  0  0  0  0
  9 14  1  0  0  0  0
  9 15  1  0  0  0  0
  9 33  1  0  0  0  0
 10 12  1  0  0  0  0
 10 34  1  0  0  0  0
 10 35  1  0  0  0  0
 11 13  1  0  0  0  0
 11 36  1  0  0  0  0
 11 37  1  0  0  0  0
 12 13  1  0  0  0  0
 12 38  1  0  0  0  0
 12 39  1  0  0  0  0
 13 40  1  0  0  0  0
 13 41  1  0  0  0  0
 14 16  1  0  0  0  0
 14 42  1  0  0  0  0
 14 43  1  0  0  0  0
 15 17  1  0  0  0  0
 15 44  1  0  0  0  0
 15 45  1  0  0  0  0
 16 46  1  0  0  0  0
 16 47  1  0  0  0  0
 17 48  1  0  0  0  0
 17 49  1  0  0  0  0
 18 20  1  0  0  0  0
 18 22  2  0  0  0  0
 19 21  1  0  0  0  0
 19 50  1  0  0  0  0
 19 51  1  0  0  0  0
 20 23  2  0  0  0  0
 21 53  1  0  0  0  0
 21 54  1  0  0  0  0
 22 24  1  0  0  0  0
 22 55  1  0  0  0  0
 23 26  1  0  0  0  0
 23 56  1  0  0  0  0
 24 26  2  0  0  0  0
 24 57  1  0  0  0  0
 25 27  1  0  0  0  0
 25 28  2  0  0  0  0
 26 58  1  0  0  0  0
 27 29  2  0  0  0  0
 27 59  1  0  0  0  0
 28 30  1  0  0  0  0
 28 60  1  0  0  0  0
 29 31  1  0  0  0  0
 30 31  2  0  0  0  0
 30 61  1  0  0  0  0
 31 62  1  0  0  0  0
M  END
> <PUBCHEM_COMPOUND_CID>
127026750

> <PUBCHEM_COMPOUND_CANONICALIZED>
1

> <PUBCHEM_CACTVS_COMPLEXITY>
642

> <PUBCHEM_CACTVS_HBOND_ACCEPTOR>
6

> <PUBCHEM_CACTVS_HBOND_DONOR>
1

> <PUBCHEM_CACTVS_ROTATABLE_BOND>
8

> <PUBCHEM_CACTVS_SUBSKEYS>
AAADceB7MQBAAAAAAAAAAAAAAAAAAYAAAAA8YIAAAAAAAAABQAAAHwQQQAAADSzh2A4wB4NABAKAAiBCAHBCCBAgIAAIiJgOCIgOJiKE8RqHOCCk0BGYqAeQwOAOgAAAAAAIAAAAAAAAABAAAAAAAAAAAA==

> <PUBCHEM_IUPAC_OPENEYE_NAME>
N-[1-[2-(2-cyclopentylphenoxy)ethyl]-4-piperidyl]-3-fluoro-benzenesulfonamide

> <PUBCHEM_IUPAC_CAS_NAME>
N-[1-[2-(2-cyclopentylphenoxy)ethyl]-4-piperidinyl]-3-fluorobenzenesulfonamide

> <PUBCHEM_IUPAC_NAME_MARKUP>
<I>N</I>-[1-[2-(2-cyclopentylphenoxy)ethyl]piperidin-4-yl]-3-fluorobenzenesulfonamide

> <PUBCHEM_IUPAC_NAME>
N-[1-[2-(2-cyclopentylphenoxy)ethyl]piperidin-4-yl]-3-fluorobenzenesulfonamide

> <PUBCHEM_IUPAC_SYSTEMATIC_NAME>
N-[1-[2-(2-cyclopentylphenoxy)ethyl]piperidin-4-yl]-3-fluoranyl-benzenesulfonamide

> <PUBCHEM_IUPAC_TRADITIONAL_NAME>
N-[1-[2-(2-cyclopentylphenoxy)ethyl]-4-piperidyl]-3-fluoro-benzenesulfonamide

> <PUBCHEM_IUPAC_INCHI>
InChI=1S/C24H31FN2O3S/c25-20-8-5-9-22(18-20)31(28,29)26-21-12-14-27(15-13-21)16-17-30-24-11-4-3-10-23(24)19-6-1-2-7-19/h3-5,8-11,18-19,21,26H,1-2,6-7,12-17H2

> <PUBCHEM_IUPAC_INCHIKEY>
RSWWPJYGMGBREQ-UHFFFAOYSA-N

> <PUBCHEM_XLOGP3_AA>
5.2

> <PUBCHEM_EXACT_MASS>
446.20394219

> <PUBCHEM_MOLECULAR_FORMULA>
C24H31FN2O3S

> <PUBCHEM_MOLECULAR_WEIGHT>
446.6

> <PUBCHEM_OPENEYE_CAN_SMILES>
C1CCC(C1)C2=CC=CC=C2OCCN3CCC(CC3)NS(=O)(=O)C4=CC=CC(=C4)F

> <PUBCHEM_OPENEYE_ISO_SMILES>
C1CCC(C1)C2=CC=CC=C2OCCN3CCC(CC3)NS(=O)(=O)C4=CC=CC(=C4)F

> <PUBCHEM_CACTVS_TPSA>
67

> <PUBCHEM_MONOISOTOPIC_WEIGHT>
446.20394219

> <PUBCHEM_TOTAL_CHARGE>
0

> <PUBCHEM_HEAVY_ATOM_COUNT>
31

> <PUBCHEM_ATOM_DEF_STEREO_COUNT>
0

> <PUBCHEM_ATOM_UDEF_STEREO_COUNT>
0

> <PUBCHEM_BOND_DEF_STEREO_COUNT>
0

> <PUBCHEM_BOND_UDEF_STEREO_COUNT>
0

> <PUBCHEM_ISOTOPIC_ATOM_COUNT>
0

> <PUBCHEM_COMPONENT_COUNT>
1

> <PUBCHEM_CACTVS_TAUTO_COUNT>
-1

> <PUBCHEM_COORDINATE_TYPE>
1
5
255

> <PUBCHEM_BONDANNOTATIONS>
18  20  8
18  22  8
20  23  8
22  24  8
23  26  8
24  26  8
25  27  8
25  28  8
27  29  8
28  30  8
29  31  8
30  31  8

$$$$
