25218401
  -OEChem-09292322482D

 65 69  0     1  0  0  0  0  0999 V2000
   10.5743   -2.4352    0.0000 O   0  0  0  0  0  0  0  0  0  0  0  0
    4.4558    3.0989    0.0000 O   0  0  0  0  0  0  0  0  0  0  0  0
   14.0384   -1.4352    0.0000 N   0  0  3  0  0  0  0  0  0  0  0  0
   11.4403   -0.9352    0.0000 N   0  0  0  0  0  0  0  0  0  0  0  0
    3.5840    1.6022    0.0000 N   0  0  0  0  0  0  0  0  0  0  0  0
   14.1429   -2.4298    0.0000 C   0  0  1  0  0  0  0  0  0  0  0  0
   15.1211   -2.6377    0.0000 C   0  0  0  0  0  0  0  0  0  0  0  0
   14.9520   -1.0285    0.0000 C   0  0  0  0  0  0  0  0  0  0  0  0
   15.6211   -1.7716    0.0000 C   0  0  0  0  0  0  0  0  0  0  0  0
   13.1724   -0.9352    0.0000 C   0  0  0  0  0  0  0  0  0  0  0  0
   12.3064   -1.4352    0.0000 C   0  0  0  0  0  0  0  0  0  0  0  0
   13.3998   -3.0989    0.0000 C   0  0  0  0  0  0  0  0  0  0  0  0
   11.4403    0.0648    0.0000 C   0  0  0  0  0  0  0  0  0  0  0  0
   10.5743    0.5648    0.0000 C   0  0  0  0  0  0  0  0  0  0  0  0
   10.5743   -1.4352    0.0000 C   0  0  0  0  0  0  0  0  0  0  0  0
    9.7083    0.0648    0.0000 C   0  0  0  0  0  0  0  0  0  0  0  0
    9.7083   -0.9352    0.0000 C   0  0  0  0  0  0  0  0  0  0  0  0
    2.4967    0.4040    0.0000 C   0  0  0  0  0  0  0  0  0  0  0  0
    2.0000    1.2719    0.0000 C   0  0  0  0  0  0  0  0  0  0  0  0
    3.4756    0.6081    0.0000 C   0  0  0  0  0  0  0  0  0  0  0  0
    2.6720    2.0125    0.0000 C   0  0  0  0  0  0  0  0  0  0  0  0
    8.8143    0.5994    0.0000 C   0  0  0  0  0  0  0  0  0  0  0  0
    8.8143   -1.4699    0.0000 C   0  0  0  0  0  0  0  0  0  0  0  0
    7.9083    0.0856    0.0000 C   0  0  0  0  0  0  0  0  0  0  0  0
    4.4519    2.0989    0.0000 C   0  0  0  0  0  0  0  0  0  0  0  0
    7.9083   -0.9561    0.0000 C   0  0  0  0  0  0  0  0  0  0  0  0
    7.0442    0.5889    0.0000 C   0  0  0  0  0  0  0  0  0  0  0  0
    5.3160    1.5956    0.0000 C   0  0  0  0  0  0  0  0  0  0  0  0
    6.1762    0.0922    0.0000 C   0  0  0  0  0  0  0  0  0  0  0  0
    7.0480    1.5889    0.0000 C   0  0  0  0  0  0  0  0  0  0  0  0
    5.3121    0.5956    0.0000 C   0  0  0  0  0  0  0  0  0  0  0  0
    6.1840    2.0922    0.0000 C   0  0  0  0  0  0  0  0  0  0  0  0
   13.5641   -2.2076    0.0000 H   0  0  0  0  0  0  0  0  0  0  0  0
   14.9295   -3.2273    0.0000 H   0  0  0  0  0  0  0  0  0  0  0  0
   15.6875   -2.8899    0.0000 H   0  0  0  0  0  0  0  0  0  0  0  0
   15.4535   -0.6641    0.0000 H   0  0  0  0  0  0  0  0  0  0  0  0
   14.6420   -0.4916    0.0000 H   0  0  0  0  0  0  0  0  0  0  0  0
   16.1227   -2.1361    0.0000 H   0  0  0  0  0  0  0  0  0  0  0  0
   16.0359   -1.3109    0.0000 H   0  0  0  0  0  0  0  0  0  0  0  0
   13.5709   -0.4603    0.0000 H   0  0  0  0  0  0  0  0  0  0  0  0
   12.7739   -0.4603    0.0000 H   0  0  0  0  0  0  0  0  0  0  0  0
   11.9078   -1.9102    0.0000 H   0  0  0  0  0  0  0  0  0  0  0  0
   12.7049   -1.9102    0.0000 H   0  0  0  0  0  0  0  0  0  0  0  0
   12.9849   -2.6382    0.0000 H   0  0  0  0  0  0  0  0  0  0  0  0
   12.9390   -3.5138    0.0000 H   0  0  0  0  0  0  0  0  0  0  0  0
   13.8147   -3.5596    0.0000 H   0  0  0  0  0  0  0  0  0  0  0  0
   12.0509   -0.0429    0.0000 H   0  0  0  0  0  0  0  0  0  0  0  0
   11.6524    0.6474    0.0000 H   0  0  0  0  0  0  0  0  0  0  0  0
   10.9728    1.0397    0.0000 H   0  0  0  0  0  0  0  0  0  0  0  0
   10.1758    1.0397    0.0000 H   0  0  0  0  0  0  0  0  0  0  0  0
    1.9293    0.1540    0.0000 H   0  0  0  0  0  0  0  0  0  0  0  0
    2.6860   -0.1864    0.0000 H   0  0  0  0  0  0  0  0  0  0  0  0
    1.5869    1.7343    0.0000 H   0  0  0  0  0  0  0  0  0  0  0  0
    1.4970    0.9095    0.0000 H   0  0  0  0  0  0  0  0  0  0  0  0
    3.5380   -0.0087    0.0000 H   0  0  0  0  0  0  0  0  0  0  0  0
    4.0956    0.6057    0.0000 H   0  0  0  0  0  0  0  0  0  0  0  0
    2.9841    2.5482    0.0000 H   0  0  0  0  0  0  0  0  0  0  0  0
    2.1718    2.3789    0.0000 H   0  0  0  0  0  0  0  0  0  0  0  0
    8.8215    1.2194    0.0000 H   0  0  0  0  0  0  0  0  0  0  0  0
    8.8215   -2.0899    0.0000 H   0  0  0  0  0  0  0  0  0  0  0  0
    7.3725   -1.2681    0.0000 H   0  0  0  0  0  0  0  0  0  0  0  0
    6.1738   -0.5278    0.0000 H   0  0  0  0  0  0  0  0  0  0  0  0
    7.5862    1.8968    0.0000 H   0  0  0  0  0  0  0  0  0  0  0  0
    4.7740    0.2877    0.0000 H   0  0  0  0  0  0  0  0  0  0  0  0
    6.1863    2.7122    0.0000 H   0  0  0  0  0  0  0  0  0  0  0  0
  1 15  2  0  0  0  0
  2 25  2  0  0  0  0
  3  6  1  0  0  0  0
  3  8  1  0  0  0  0
  3 10  1  0  0  0  0
  4 11  1  0  0  0  0
  4 13  1  0  0  0  0
  4 15  1  0  0  0  0
  5 20  1  0  0  0  0
  5 21  1  0  0  0  0
  5 25  1  0  0  0  0
  6  7  1  0  0  0  0
  6 12  1  1  0  0  0
  6 33  1  0  0  0  0
  7  9  1  0  0  0  0
  7 34  1  0  0  0  0
  7 35  1  0  0  0  0
  8  9  1  0  0  0  0
  8 36  1  0  0  0  0
  8 37  1  0  0  0  0
  9 38  1  0  0  0  0
  9 39  1  0  0  0  0
 10 11  1  0  0  0  0
 10 40  1  0  0  0  0
 10 41  1  0  0  0  0
 11 42  1  0  0  0  0
 11 43  1  0  0  0  0
 12 44  1  0  0  0  0
 12 45  1  0  0  0  0
 12 46  1  0  0  0  0
 13 14  1  0  0  0  0
 13 47  1  0  0  0  0
 13 48  1  0  0  0  0
 14 16  1  0  0  0  0
 14 49  1  0  0  0  0
 14 50  1  0  0  0  0
 15 17  1  0  0  0  0
 16 17  2  0  0  0  0
 16 22  1  0  0  0  0
 17 23  1  0  0  0  0
 18 19  1  0  0  0  0
 18 20  1  0  0  0  0
 18 51  1  0  0  0  0
 18 52  1  0  0  0  0
 19 21  1  0  0  0  0
 19 53  1  0  0  0  0
 19 54  1  0  0  0  0
 20 55  1  0  0  0  0
 20 56  1  0  0  0  0
 21 57  1  0  0  0  0
 21 58  1  0  0  0  0
 22 24  2  0  0  0  0
 22 59  1  0  0  0  0
 23 26  2  0  0  0  0
 23 60  1  0  0  0  0
 24 26  1  0  0  0  0
 24 27  1  0  0  0  0
 25 28  1  0  0  0  0
 26 61  1  0  0  0  0
 27 29  2  0  0  0  0
 27 30  1  0  0  0  0
 28 31  2  0  0  0  0
 28 32  1  0  0  0  0
 29 31  1  0  0  0  0
 29 62  1  0  0  0  0
 30 32  2  0  0  0  0
 30 63  1  0  0  0  0
 31 64  1  0  0  0  0
 32 65  1  0  0  0  0
M  END
> <PUBCHEM_COMPOUND_CID>
25218401

> <PUBCHEM_COMPOUND_CANONICALIZED>
1

> <PUBCHEM_CACTVS_COMPLEXITY>
668

> <PUBCHEM_CACTVS_HBOND_ACCEPTOR>
3

> <PUBCHEM_CACTVS_HBOND_DONOR>
0

> <PUBCHEM_CACTVS_ROTATABLE_BOND>
5

> <PUBCHEM_CACTVS_SUBSKEYS>
AAADcfB7MAAAAAAAAAAAAAAAAAAAAWLAAAA8YIAAAAAAAACxQAAAHgAAAAAADCjBmAQyAIMAAACIAiFSEACCAAAkAAAIiAEIBMgIYDKAlRGUIQhghgCIiYcYicCOwAACAAAQAACAAAQAACAAAAAAAAAAAA==

> <PUBCHEM_IUPAC_OPENEYE_NAME>
2-[2-[(2R)-2-methylpyrrolidin-1-yl]ethyl]-6-[4-(pyrrolidine-1-carbonyl)phenyl]-3,4-dihydroisoquinolin-1-one

> <PUBCHEM_IUPAC_CAS_NAME>
2-[2-[(2R)-2-methyl-1-pyrrolidinyl]ethyl]-6-[4-[oxo(1-pyrrolidinyl)methyl]phenyl]-3,4-dihydroisoquinolin-1-one

> <PUBCHEM_IUPAC_NAME_MARKUP>
2-[2-[(2<I>R</I>)-2-methylpyrrolidin-1-yl]ethyl]-6-[4-(pyrrolidine-1-carbonyl)phenyl]-3,4-dihydroisoquinolin-1-one

> <PUBCHEM_IUPAC_NAME>
2-[2-[(2R)-2-methylpyrrolidin-1-yl]ethyl]-6-[4-(pyrrolidine-1-carbonyl)phenyl]-3,4-dihydroisoquinolin-1-one

> <PUBCHEM_IUPAC_SYSTEMATIC_NAME>
2-[2-[(2R)-2-methylpyrrolidin-1-yl]ethyl]-6-(4-pyrrolidin-1-ylcarbonylphenyl)-3,4-dihydroisoquinolin-1-one

> <PUBCHEM_IUPAC_TRADITIONAL_NAME>
2-[2-[(2R)-2-methylpyrrolidino]ethyl]-6-[4-(pyrrolidine-1-carbonyl)phenyl]-3,4-dihydroisocarbostyril

> <PUBCHEM_IUPAC_INCHI>
InChI=1S/C27H33N3O2/c1-20-5-4-15-28(20)17-18-30-16-12-24-19-23(10-11-25(24)27(30)32)21-6-8-22(9-7-21)26(31)29-13-2-3-14-29/h6-11,19-20H,2-5,12-18H2,1H3/t20-/m1/s1

> <PUBCHEM_IUPAC_INCHIKEY>
SPKOQCHHYOCMGR-HXUWFJFHSA-N

> <PUBCHEM_XLOGP3_AA>
3.9

> <PUBCHEM_EXACT_MASS>
431.25727730

> <PUBCHEM_MOLECULAR_FORMULA>
C27H33N3O2

> <PUBCHEM_MOLECULAR_WEIGHT>
431.6

> <PUBCHEM_OPENEYE_CAN_SMILES>
CC1CCCN1CCN2CCC3=C(C2=O)C=CC(=C3)C4=CC=C(C=C4)C(=O)N5CCCC5

> <PUBCHEM_OPENEYE_ISO_SMILES>
C[C@@H]1CCCN1CCN2CCC3=C(C2=O)C=CC(=C3)C4=CC=C(C=C4)C(=O)N5CCCC5

> <PUBCHEM_CACTVS_TPSA>
43.9

> <PUBCHEM_MONOISOTOPIC_WEIGHT>
431.25727730

> <PUBCHEM_TOTAL_CHARGE>
0

> <PUBCHEM_HEAVY_ATOM_COUNT>
32

> <PUBCHEM_ATOM_DEF_STEREO_COUNT>
1

> <PUBCHEM_ATOM_UDEF_STEREO_COUNT>
0

> <PUBCHEM_BOND_DEF_STEREO_COUNT>
0

> <PUBCHEM_BOND_UDEF_STEREO_COUNT>
0

> <PUBCHEM_ISOTOPIC_ATOM_COUNT>
0

> <PUBCHEM_COMPONENT_COUNT>
1

> <PUBCHEM_CACTVS_TAUTO_COUNT>
-1

> <PUBCHEM_COORDINATE_TYPE>
1
5
255

> <PUBCHEM_BONDANNOTATIONS>
16  17  8
16  22  8
17  23  8
22  24  8
23  26  8
24  26  8
27  29  8
27  30  8
28  31  8
28  32  8
29  31  8
30  32  8
6  12  5

$$$$
