71725065
  -OEChem-09292322062D

 53 57  0     0  0  0  0  0  0999 V2000
    9.7619    2.0606    0.0000 O   0  0  0  0  0  0  0  0  0  0  0  0
    6.7619   -3.1356    0.0000 O   0  0  0  0  0  0  0  0  0  0  0  0
    7.7619    0.3285    0.0000 N   0  0  0  0  0  0  0  0  0  0  0  0
    6.7619   -1.4035    0.0000 N   0  0  0  0  0  0  0  0  0  0  0  0
    4.6783   -3.0743    0.0000 N   0  0  0  0  0  0  0  0  0  0  0  0
   13.7337    2.2698    0.0000 N   0  0  0  0  0  0  0  0  0  0  0  0
    6.7619    0.3285    0.0000 C   0  0  0  0  0  0  0  0  0  0  0  0
    8.2619   -0.5375    0.0000 C   0  0  0  0  0  0  0  0  0  0  0  0
    6.2619   -0.5375    0.0000 C   0  0  0  0  0  0  0  0  0  0  0  0
    7.7619   -1.4035    0.0000 C   0  0  0  0  0  0  0  0  0  0  0  0
    8.2619    1.1945    0.0000 C   0  0  0  0  0  0  0  0  0  0  0  0
    6.2619   -2.2696    0.0000 C   0  0  0  0  0  0  0  0  0  0  0  0
    9.2619    1.1945    0.0000 C   0  0  0  0  0  0  0  0  0  0  0  0
    5.2619   -2.2696    0.0000 C   0  0  0  0  0  0  0  0  0  0  0  0
    4.6783   -1.4648    0.0000 C   0  0  0  0  0  0  0  0  0  0  0  0
    3.7320   -2.7696    0.0000 C   0  0  0  0  0  0  0  0  0  0  0  0
    3.7320   -1.7696    0.0000 C   0  0  0  0  0  0  0  0  0  0  0  0
   10.7619    2.0606    0.0000 C   0  0  0  0  0  0  0  0  0  0  0  0
    2.8660   -3.2696    0.0000 C   0  0  0  0  0  0  0  0  0  0  0  0
    2.8660   -1.2696    0.0000 C   0  0  0  0  0  0  0  0  0  0  0  0
   11.2619    2.9266    0.0000 C   0  0  0  0  0  0  0  0  0  0  0  0
   12.2619    2.9266    0.0000 C   0  0  0  0  0  0  0  0  0  0  0  0
   12.7619    2.0606    0.0000 C   0  0  0  0  0  0  0  0  0  0  0  0
   11.2619    1.1945    0.0000 C   0  0  0  0  0  0  0  0  0  0  0  0
    2.0000   -2.7696    0.0000 C   0  0  0  0  0  0  0  0  0  0  0  0
    2.0000   -1.7696    0.0000 C   0  0  0  0  0  0  0  0  0  0  0  0
   12.2619    1.1945    0.0000 C   0  0  0  0  0  0  0  0  0  0  0  0
   12.9290    3.6636    0.0000 C   0  0  0  0  0  0  0  0  0  0  0  0
   13.8368    3.2585    0.0000 C   0  0  0  0  0  0  0  0  0  0  0  0
    6.8695    0.9391    0.0000 H   0  0  0  0  0  0  0  0  0  0  0  0
    6.1793    0.5406    0.0000 H   0  0  0  0  0  0  0  0  0  0  0  0
    8.7368   -0.9360    0.0000 H   0  0  0  0  0  0  0  0  0  0  0  0
    8.7368   -0.1390    0.0000 H   0  0  0  0  0  0  0  0  0  0  0  0
    5.7869   -0.1390    0.0000 H   0  0  0  0  0  0  0  0  0  0  0  0
    5.7869   -0.9360    0.0000 H   0  0  0  0  0  0  0  0  0  0  0  0
    7.6542   -2.0141    0.0000 H   0  0  0  0  0  0  0  0  0  0  0  0
    8.3445   -1.6156    0.0000 H   0  0  0  0  0  0  0  0  0  0  0  0
    8.3695    1.8051    0.0000 H   0  0  0  0  0  0  0  0  0  0  0  0
    7.6793    1.4066    0.0000 H   0  0  0  0  0  0  0  0  0  0  0  0
    9.1542    0.5840    0.0000 H   0  0  0  0  0  0  0  0  0  0  0  0
    9.8445    0.9825    0.0000 H   0  0  0  0  0  0  0  0  0  0  0  0
    4.8709   -3.6636    0.0000 H   0  0  0  0  0  0  0  0  0  0  0  0
    4.8709   -0.8755    0.0000 H   0  0  0  0  0  0  0  0  0  0  0  0
    2.8660   -3.8896    0.0000 H   0  0  0  0  0  0  0  0  0  0  0  0
    2.8660   -0.6496    0.0000 H   0  0  0  0  0  0  0  0  0  0  0  0
   10.9519    3.4635    0.0000 H   0  0  0  0  0  0  0  0  0  0  0  0
   10.9519    0.6576    0.0000 H   0  0  0  0  0  0  0  0  0  0  0  0
    1.4631   -3.0796    0.0000 H   0  0  0  0  0  0  0  0  0  0  0  0
    1.4631   -1.4596    0.0000 H   0  0  0  0  0  0  0  0  0  0  0  0
   12.5719    0.6576    0.0000 H   0  0  0  0  0  0  0  0  0  0  0  0
   12.8011    4.2703    0.0000 H   0  0  0  0  0  0  0  0  0  0  0  0
   14.1952    1.8557    0.0000 H   0  0  0  0  0  0  0  0  0  0  0  0
   14.3737    3.5685    0.0000 H   0  0  0  0  0  0  0  0  0  0  0  0
  1 13  1  0  0  0  0
  1 18  1  0  0  0  0
  2 12  2  0  0  0  0
  3  7  1  0  0  0  0
  3  8  1  0  0  0  0
  3 11  1  0  0  0  0
  4  9  1  0  0  0  0
  4 10  1  0  0  0  0
  4 12  1  0  0  0  0
  5 14  1  0  0  0  0
  5 16  1  0  0  0  0
  5 42  1  0  0  0  0
  6 23  1  0  0  0  0
  6 29  1  0  0  0  0
  6 52  1  0  0  0  0
  7  9  1  0  0  0  0
  7 30  1  0  0  0  0
  7 31  1  0  0  0  0
  8 10  1  0  0  0  0
  8 32  1  0  0  0  0
  8 33  1  0  0  0  0
  9 34  1  0  0  0  0
  9 35  1  0  0  0  0
 10 36  1  0  0  0  0
 10 37  1  0  0  0  0
 11 13  1  0  0  0  0
 11 38  1  0  0  0  0
 11 39  1  0  0  0  0
 12 14  1  0  0  0  0
 13 40  1  0  0  0  0
 13 41  1  0  0  0  0
 14 15  2  0  0  0  0
 15 17  1  0  0  0  0
 15 43  1  0  0  0  0
 16 17  1  0  0  0  0
 16 19  2  0  0  0  0
 17 20  2  0  0  0  0
 18 21  2  0  0  0  0
 18 24  1  0  0  0  0
 19 25  1  0  0  0  0
 19 44  1  0  0  0  0
 20 26  1  0  0  0  0
 20 45  1  0  0  0  0
 21 22  1  0  0  0  0
 21 46  1  0  0  0  0
 22 23  2  0  0  0  0
 22 28  1  0  0  0  0
 23 27  1  0  0  0  0
 24 27  2  0  0  0  0
 24 47  1  0  0  0  0
 25 26  2  0  0  0  0
 25 48  1  0  0  0  0
 26 49  1  0  0  0  0
 27 50  1  0  0  0  0
 28 29  2  0  0  0  0
 28 51  1  0  0  0  0
 29 53  1  0  0  0  0
M  END
> <PUBCHEM_COMPOUND_CID>
71725065

> <PUBCHEM_COMPOUND_CANONICALIZED>
1

> <PUBCHEM_CACTVS_COMPLEXITY>
565

> <PUBCHEM_CACTVS_HBOND_ACCEPTOR>
3

> <PUBCHEM_CACTVS_HBOND_DONOR>
2

> <PUBCHEM_CACTVS_ROTATABLE_BOND>
5

> <PUBCHEM_CACTVS_SUBSKEYS>
AAADceB7sAAAAAAAAAAAAAAAAAAAAWLAAAA8YIAAAAAAAFgB/gAAHgAQAAAADAzhngY8xvPJlACoAzV3VACCiCA3IiAI2aG+bNgOZvLEtbuXOSjk1hHY6Ye42bKeAEABAAACAAAAgAIAAAQAAAAAAAAAAA==

> <PUBCHEM_IUPAC_OPENEYE_NAME>
1H-indol-2-yl-[4-[2-(1H-indol-5-yloxy)ethyl]piperazin-1-yl]methanone

> <PUBCHEM_IUPAC_CAS_NAME>
1H-indol-2-yl-[4-[2-(1H-indol-5-yloxy)ethyl]-1-piperazinyl]methanone

> <PUBCHEM_IUPAC_NAME_MARKUP>
1<I>H</I>-indol-2-yl-[4-[2-(1<I>H</I>-indol-5-yloxy)ethyl]piperazin-1-yl]methanone

> <PUBCHEM_IUPAC_NAME>
1H-indol-2-yl-[4-[2-(1H-indol-5-yloxy)ethyl]piperazin-1-yl]methanone

> <PUBCHEM_IUPAC_SYSTEMATIC_NAME>
1H-indol-2-yl-[4-[2-(1H-indol-5-yloxy)ethyl]piperazin-1-yl]methanone

> <PUBCHEM_IUPAC_TRADITIONAL_NAME>
1H-indol-2-yl-[4-[2-(1H-indol-5-yloxy)ethyl]piperazino]methanone

> <PUBCHEM_IUPAC_INCHI>
InChI=1S/C23H24N4O2/c28-23(22-16-17-3-1-2-4-21(17)25-22)27-11-9-26(10-12-27)13-14-29-19-5-6-20-18(15-19)7-8-24-20/h1-8,15-16,24-25H,9-14H2

> <PUBCHEM_IUPAC_INCHIKEY>
NYYVPFBZAVQNMH-UHFFFAOYSA-N

> <PUBCHEM_XLOGP3_AA>
3.4

> <PUBCHEM_EXACT_MASS>
388.18992602

> <PUBCHEM_MOLECULAR_FORMULA>
C23H24N4O2

> <PUBCHEM_MOLECULAR_WEIGHT>
388.5

> <PUBCHEM_OPENEYE_CAN_SMILES>
C1CN(CCN1CCOC2=CC3=C(C=C2)NC=C3)C(=O)C4=CC5=CC=CC=C5N4

> <PUBCHEM_OPENEYE_ISO_SMILES>
C1CN(CCN1CCOC2=CC3=C(C=C2)NC=C3)C(=O)C4=CC5=CC=CC=C5N4

> <PUBCHEM_CACTVS_TPSA>
64.4

> <PUBCHEM_MONOISOTOPIC_WEIGHT>
388.18992602

> <PUBCHEM_TOTAL_CHARGE>
0

> <PUBCHEM_HEAVY_ATOM_COUNT>
29

> <PUBCHEM_ATOM_DEF_STEREO_COUNT>
0

> <PUBCHEM_ATOM_UDEF_STEREO_COUNT>
0

> <PUBCHEM_BOND_DEF_STEREO_COUNT>
0

> <PUBCHEM_BOND_UDEF_STEREO_COUNT>
0

> <PUBCHEM_ISOTOPIC_ATOM_COUNT>
0

> <PUBCHEM_COMPONENT_COUNT>
1

> <PUBCHEM_CACTVS_TAUTO_COUNT>
-1

> <PUBCHEM_COORDINATE_TYPE>
1
5
255

> <PUBCHEM_BONDANNOTATIONS>
14  15  8
15  17  8
16  17  8
16  19  8
17  20  8
18  21  8
18  24  8
19  25  8
20  26  8
21  22  8
22  23  8
22  28  8
23  27  8
24  27  8
25  26  8
28  29  8
5  14  8
5  16  8
6  23  8
6  29  8

$$$$
