54581964
  -OEChem-09292322312D

 70 74  0     0  0  0  0  0  0999 V2000
   14.5832    4.4070    0.0000 S   0  0  0  0  0  0  0  0  0  0  0  0
   11.2591    0.2895    0.0000 O   0  0  0  0  0  0  0  0  0  0  0  0
    2.9888   -1.8260    0.0000 O   0  0  0  0  0  0  0  0  0  0  0  0
    6.2135   -0.5605    0.0000 N   0  0  0  0  0  0  0  0  0  0  0  0
    4.9665   -2.1241    0.0000 N   0  0  0  0  0  0  0  0  0  0  0  0
   10.0616    1.4870    0.0000 N   0  0  0  0  0  0  0  0  0  0  0  0
    5.2246   -0.4114    0.0000 C   0  0  0  0  0  0  0  0  0  0  0  0
    6.5788   -1.4913    0.0000 C   0  0  0  0  0  0  0  0  0  0  0  0
    6.8370    0.2214    0.0000 C   0  0  0  0  0  0  0  0  0  0  0  0
    4.6011   -1.1932    0.0000 C   0  0  0  0  0  0  0  0  0  0  0  0
    5.9553   -2.2732    0.0000 C   0  0  0  0  0  0  0  0  0  0  0  0
    7.8258    0.0723    0.0000 C   0  0  0  0  0  0  0  0  0  0  0  0
    8.4493    0.8542    0.0000 C   0  0  0  0  0  0  0  0  0  0  0  0
    9.4381    0.7051    0.0000 C   0  0  0  0  0  0  0  0  0  0  0  0
    9.6277    2.3879    0.0000 C   0  0  0  0  0  0  0  0  0  0  0  0
    4.3430   -2.9060    0.0000 C   0  0  0  0  0  0  0  0  0  0  0  0
   10.0616    3.2889    0.0000 C   0  0  0  0  0  0  0  0  0  0  0  0
   11.0365    3.5114    0.0000 C   0  0  0  0  0  0  0  0  0  0  0  0
   11.0365    1.2644    0.0000 C   0  0  0  0  0  0  0  0  0  0  0  0
   11.8184    2.8879    0.0000 C   0  0  0  0  0  0  0  0  0  0  0  0
   11.8184    1.8879    0.0000 C   0  0  0  0  0  0  0  0  0  0  0  0
    3.3542   -2.7569    0.0000 C   0  0  0  0  0  0  0  0  0  0  0  0
    4.7083   -3.8368    0.0000 C   0  0  0  0  0  0  0  0  0  0  0  0
   12.7123    3.4226    0.0000 C   0  0  0  0  0  0  0  0  0  0  0  0
   12.7123    1.3532    0.0000 C   0  0  0  0  0  0  0  0  0  0  0  0
   13.6184    2.9087    0.0000 C   0  0  0  0  0  0  0  0  0  0  0  0
   13.6184    1.8671    0.0000 C   0  0  0  0  0  0  0  0  0  0  0  0
    2.7307   -3.5388    0.0000 C   0  0  0  0  0  0  0  0  0  0  0  0
    4.0848   -4.6187    0.0000 C   0  0  0  0  0  0  0  0  0  0  0  0
    3.0960   -4.4696    0.0000 C   0  0  0  0  0  0  0  0  0  0  0  0
   14.4825    3.4121    0.0000 C   0  0  0  0  0  0  0  0  0  0  0  0
    2.0000   -1.6770    0.0000 C   0  0  0  0  0  0  0  0  0  0  0  0
   15.3976    3.0088    0.0000 C   0  0  0  0  0  0  0  0  0  0  0  0
   16.0638    3.7546    0.0000 C   0  0  0  0  0  0  0  0  0  0  0  0
   15.5605    4.6187    0.0000 C   0  0  0  0  0  0  0  0  0  0  0  0
    5.4221    0.1763    0.0000 H   0  0  0  0  0  0  0  0  0  0  0  0
    4.6801   -0.1149    0.0000 H   0  0  0  0  0  0  0  0  0  0  0  0
    6.9891   -1.9562    0.0000 H   0  0  0  0  0  0  0  0  0  0  0  0
    7.1078   -1.1680    0.0000 H   0  0  0  0  0  0  0  0  0  0  0  0
    7.0344    0.8091    0.0000 H   0  0  0  0  0  0  0  0  0  0  0  0
    6.2925    0.5179    0.0000 H   0  0  0  0  0  0  0  0  0  0  0  0
    4.1909   -0.7284    0.0000 H   0  0  0  0  0  0  0  0  0  0  0  0
    4.0721   -1.5165    0.0000 H   0  0  0  0  0  0  0  0  0  0  0  0
    5.7579   -2.8609    0.0000 H   0  0  0  0  0  0  0  0  0  0  0  0
    6.4998   -2.5697    0.0000 H   0  0  0  0  0  0  0  0  0  0  0  0
    7.6283   -0.5154    0.0000 H   0  0  0  0  0  0  0  0  0  0  0  0
    8.3703   -0.2242    0.0000 H   0  0  0  0  0  0  0  0  0  0  0  0
    8.6467    1.4419    0.0000 H   0  0  0  0  0  0  0  0  0  0  0  0
    7.9048    1.1507    0.0000 H   0  0  0  0  0  0  0  0  0  0  0  0
    9.2406    0.1174    0.0000 H   0  0  0  0  0  0  0  0  0  0  0  0
    9.9826    0.4086    0.0000 H   0  0  0  0  0  0  0  0  0  0  0  0
    9.1430    2.7745    0.0000 H   0  0  0  0  0  0  0  0  0  0  0  0
    9.1430    2.0014    0.0000 H   0  0  0  0  0  0  0  0  0  0  0  0
   10.0616    3.9089    0.0000 H   0  0  0  0  0  0  0  0  0  0  0  0
    9.4572    3.4268    0.0000 H   0  0  0  0  0  0  0  0  0  0  0  0
   11.5213    3.8980    0.0000 H   0  0  0  0  0  0  0  0  0  0  0  0
   10.7675    4.0700    0.0000 H   0  0  0  0  0  0  0  0  0  0  0  0
    5.3214   -3.9292    0.0000 H   0  0  0  0  0  0  0  0  0  0  0  0
   12.7051    4.0425    0.0000 H   0  0  0  0  0  0  0  0  0  0  0  0
   12.7051    0.7333    0.0000 H   0  0  0  0  0  0  0  0  0  0  0  0
   14.1541    1.5550    0.0000 H   0  0  0  0  0  0  0  0  0  0  0  0
    2.1176   -3.4463    0.0000 H   0  0  0  0  0  0  0  0  0  0  0  0
    4.3114   -5.1958    0.0000 H   0  0  0  0  0  0  0  0  0  0  0  0
    2.7095   -4.9544    0.0000 H   0  0  0  0  0  0  0  0  0  0  0  0
    2.0924   -1.0639    0.0000 H   0  0  0  0  0  0  0  0  0  0  0  0
    1.3869   -1.5846    0.0000 H   0  0  0  0  0  0  0  0  0  0  0  0
    1.9076   -2.2901    0.0000 H   0  0  0  0  0  0  0  0  0  0  0  0
   15.5288    2.4029    0.0000 H   0  0  0  0  0  0  0  0  0  0  0  0
   16.6807    3.6921    0.0000 H   0  0  0  0  0  0  0  0  0  0  0  0
   15.8105    5.1860    0.0000 H   0  0  0  0  0  0  0  0  0  0  0  0
  1 31  1  0  0  0  0
  1 35  1  0  0  0  0
  2 19  2  0  0  0  0
  3 22  1  0  0  0  0
  3 32  1  0  0  0  0
  4  7  1  0  0  0  0
  4  8  1  0  0  0  0
  4  9  1  0  0  0  0
  5 10  1  0  0  0  0
  5 11  1  0  0  0  0
  5 16  1  0  0  0  0
  6 14  1  0  0  0  0
  6 15  1  0  0  0  0
  6 19  1  0  0  0  0
  7 10  1  0  0  0  0
  7 36  1  0  0  0  0
  7 37  1  0  0  0  0
  8 11  1  0  0  0  0
  8 38  1  0  0  0  0
  8 39  1  0  0  0  0
  9 12  1  0  0  0  0
  9 40  1  0  0  0  0
  9 41  1  0  0  0  0
 10 42  1  0  0  0  0
 10 43  1  0  0  0  0
 11 44  1  0  0  0  0
 11 45  1  0  0  0  0
 12 13  1  0  0  0  0
 12 46  1  0  0  0  0
 12 47  1  0  0  0  0
 13 14  1  0  0  0  0
 13 48  1  0  0  0  0
 13 49  1  0  0  0  0
 14 50  1  0  0  0  0
 14 51  1  0  0  0  0
 15 17  1  0  0  0  0
 15 52  1  0  0  0  0
 15 53  1  0  0  0  0
 16 22  1  0  0  0  0
 16 23  2  0  0  0  0
 17 18  1  0  0  0  0
 17 54  1  0  0  0  0
 17 55  1  0  0  0  0
 18 20  1  0  0  0  0
 18 56  1  0  0  0  0
 18 57  1  0  0  0  0
 19 21  1  0  0  0  0
 20 21  2  0  0  0  0
 20 24  1  0  0  0  0
 21 25  1  0  0  0  0
 22 28  2  0  0  0  0
 23 29  1  0  0  0  0
 23 58  1  0  0  0  0
 24 26  2  0  0  0  0
 24 59  1  0  0  0  0
 25 27  2  0  0  0  0
 25 60  1  0  0  0  0
 26 27  1  0  0  0  0
 26 31  1  0  0  0  0
 27 61  1  0  0  0  0
 28 30  1  0  0  0  0
 28 62  1  0  0  0  0
 29 30  2  0  0  0  0
 29 63  1  0  0  0  0
 30 64  1  0  0  0  0
 31 33  2  0  0  0  0
 32 65  1  0  0  0  0
 32 66  1  0  0  0  0
 32 67  1  0  0  0  0
 33 34  1  0  0  0  0
 33 68  1  0  0  0  0
 34 35  2  0  0  0  0
 34 69  1  0  0  0  0
 35 70  1  0  0  0  0
M  END
> <PUBCHEM_COMPOUND_CID>
54581964

> <PUBCHEM_COMPOUND_CANONICALIZED>
1

> <PUBCHEM_CACTVS_COMPLEXITY>
670

> <PUBCHEM_CACTVS_HBOND_ACCEPTOR>
5

> <PUBCHEM_CACTVS_HBOND_DONOR>
0

> <PUBCHEM_CACTVS_ROTATABLE_BOND>
8

> <PUBCHEM_CACTVS_SUBSKEYS>
AAADcfB7MABAAAAAAAAAAAAAAAAAASAAAAA8YIAABYAAAAAB0AAAHgQAAAAADAzF2Aayx4MABAiMAiVSUACDCIAlKhBIiBkPbMgOZjLktZuVMShkxhH46YeYyMCOwAACAAAQEACAAAQAACAgAAAAAAAAAA==

> <PUBCHEM_IUPAC_OPENEYE_NAME>
2-[4-[4-(2-methoxyphenyl)piperazin-1-yl]butyl]-7-(2-thienyl)-4,5-dihydro-3H-2-benzazepin-1-one

> <PUBCHEM_IUPAC_CAS_NAME>
2-[4-[4-(2-methoxyphenyl)-1-piperazinyl]butyl]-7-thiophen-2-yl-4,5-dihydro-3H-2-benzazepin-1-one

> <PUBCHEM_IUPAC_NAME_MARKUP>
2-[4-[4-(2-methoxyphenyl)piperazin-1-yl]butyl]-7-thiophen-2-yl-4,5-dihydro-3<I>H</I>-2-benzazepin-1-one

> <PUBCHEM_IUPAC_NAME>
2-[4-[4-(2-methoxyphenyl)piperazin-1-yl]butyl]-7-thiophen-2-yl-4,5-dihydro-3H-2-benzazepin-1-one

> <PUBCHEM_IUPAC_SYSTEMATIC_NAME>
2-[4-[4-(2-methoxyphenyl)piperazin-1-yl]butyl]-7-thiophen-2-yl-4,5-dihydro-3H-2-benzazepin-1-one

> <PUBCHEM_IUPAC_TRADITIONAL_NAME>
2-[4-[4-(2-methoxyphenyl)piperazino]butyl]-7-(2-thienyl)-4,5-dihydro-3H-2-benzazepin-1-one

> <PUBCHEM_IUPAC_INCHI>
InChI=1S/C29H35N3O2S/c1-34-27-10-3-2-9-26(27)31-19-17-30(18-20-31)14-4-5-15-32-16-6-8-23-22-24(28-11-7-21-35-28)12-13-25(23)29(32)33/h2-3,7,9-13,21-22H,4-6,8,14-20H2,1H3

> <PUBCHEM_IUPAC_INCHIKEY>
OXVZLPIGSCONSD-UHFFFAOYSA-N

> <PUBCHEM_XLOGP3_AA>
5.4

> <PUBCHEM_EXACT_MASS>
489.24499854

> <PUBCHEM_MOLECULAR_FORMULA>
C29H35N3O2S

> <PUBCHEM_MOLECULAR_WEIGHT>
489.7

> <PUBCHEM_OPENEYE_CAN_SMILES>
COC1=CC=CC=C1N2CCN(CC2)CCCCN3CCCC4=C(C3=O)C=CC(=C4)C5=CC=CS5

> <PUBCHEM_OPENEYE_ISO_SMILES>
COC1=CC=CC=C1N2CCN(CC2)CCCCN3CCCC4=C(C3=O)C=CC(=C4)C5=CC=CS5

> <PUBCHEM_CACTVS_TPSA>
64.3

> <PUBCHEM_MONOISOTOPIC_WEIGHT>
489.24499854

> <PUBCHEM_TOTAL_CHARGE>
0

> <PUBCHEM_HEAVY_ATOM_COUNT>
35

> <PUBCHEM_ATOM_DEF_STEREO_COUNT>
0

> <PUBCHEM_ATOM_UDEF_STEREO_COUNT>
0

> <PUBCHEM_BOND_DEF_STEREO_COUNT>
0

> <PUBCHEM_BOND_UDEF_STEREO_COUNT>
0

> <PUBCHEM_ISOTOPIC_ATOM_COUNT>
0

> <PUBCHEM_COMPONENT_COUNT>
1

> <PUBCHEM_CACTVS_TAUTO_COUNT>
-1

> <PUBCHEM_COORDINATE_TYPE>
1
5
255

> <PUBCHEM_BONDANNOTATIONS>
1  31  8
1  35  8
16  22  8
16  23  8
20  21  8
20  24  8
21  25  8
22  28  8
23  29  8
24  26  8
25  27  8
26  27  8
28  30  8
29  30  8
31  33  8
33  34  8
34  35  8

$$$$
