145948566
  -OEChem-09292321592D

102106  0     1  0  0  0  0  0999 V2000
   11.7148    1.7320    0.0000 F   0  0  0  0  0  0  0  0  0  0  0  0
   11.3488    0.3660    0.0000 F   0  0  0  0  0  0  0  0  0  0  0  0
   12.7148    0.0000    0.0000 F   0  0  0  0  0  0  0  0  0  0  0  0
    0.5118    8.9254    0.0000 O   0  0  0  0  0  0  0  0  0  0  0  0
   10.0039    5.4845    0.0000 O   0  0  0  0  0  0  0  0  0  0  0  0
   13.4680    6.4845    0.0000 O   0  0  0  0  0  0  0  0  0  0  0  0
   24.3799    8.2935    0.0000 O   0  0  0  0  0  0  0  0  0  0  0  0
   13.9468    0.8660    0.0000 O   0  0  0  0  0  0  0  0  0  0  0  0
   13.0808    2.3660    0.0000 O   0  0  0  0  0  0  0  0  0  0  0  0
    5.6738    6.9845    0.0000 N   0  0  3  0  0  0  0  0  0  0  0  0
    0.6067    7.1516    0.0000 N   0  0  0  0  0  0  0  0  0  0  0  0
    9.1379    6.9845    0.0000 N   0  0  0  0  0  0  0  0  0  0  0  0
   18.6642    8.4845    0.0000 N   0  0  0  0  0  0  0  0  0  0  0  0
   21.2623    6.9845    0.0000 N   0  0  0  0  0  0  0  0  0  0  0  0
   20.3962    8.4845    0.0000 N   0  0  0  0  0  0  0  0  0  0  0  0
   19.5302    6.9845    0.0000 N   0  0  0  0  0  0  0  0  0  0  0  0
   22.2085    6.6797    0.0000 N   0  0  0  0  0  0  0  0  0  0  0  0
   22.2085    8.2892    0.0000 N   0  0  0  0  0  0  0  0  0  0  0  0
   20.3962    5.4845    0.0000 N   0  0  0  0  0  0  0  0  0  0  0  0
    4.8078    6.4845    0.0000 C   0  0  0  0  0  0  0  0  0  0  0  0
    3.9418    6.9845    0.0000 C   0  0  0  0  0  0  0  0  0  0  0  0
    6.5398    6.4845    0.0000 C   0  0  0  0  0  0  0  0  0  0  0  0
    3.0757    6.4845    0.0000 C   0  0  0  0  0  0  0  0  0  0  0  0
    5.6738    7.9845    0.0000 C   0  0  0  0  0  0  0  0  0  0  0  0
    2.2097    6.9845    0.0000 C   0  0  0  0  0  0  0  0  0  0  0  0
    7.4059    6.9845    0.0000 C   0  0  0  0  0  0  0  0  0  0  0  0
    2.0005    7.9563    0.0000 C   0  0  0  0  0  0  0  0  0  0  0  0
    1.3437    6.4845    0.0000 C   0  0  0  0  0  0  0  0  0  0  0  0
    4.8078    8.4845    0.0000 C   0  0  0  0  0  0  0  0  0  0  0  0
    8.2719    6.4845    0.0000 C   0  0  0  0  0  0  0  0  0  0  0  0
    3.0757    5.4845    0.0000 C   0  0  0  0  0  0  0  0  0  0  0  0
    1.0118    8.0593    0.0000 C   0  0  0  0  0  0  0  0  0  0  0  0
    1.3437    5.4845    0.0000 C   0  0  0  0  0  0  0  0  0  0  0  0
    2.2097    4.9845    0.0000 C   0  0  0  0  0  0  0  0  0  0  0  0
    4.8078    9.4845    0.0000 C   0  0  0  0  0  0  0  0  0  0  0  0
   10.0039    6.4845    0.0000 C   0  0  0  0  0  0  0  0  0  0  0  0
   10.8700    6.9845    0.0000 C   0  0  0  0  0  0  0  0  0  0  0  0
   11.7360    6.4845    0.0000 C   0  0  0  0  0  0  0  0  0  0  0  0
   12.6020    6.9845    0.0000 C   0  0  0  0  0  0  0  0  0  0  0  0
   14.3341    6.9845    0.0000 C   0  0  0  0  0  0  0  0  0  0  0  0
   16.9321    8.4845    0.0000 C   0  0  0  0  0  0  0  0  0  0  0  0
   16.0661    7.9845    0.0000 C   0  0  0  0  0  0  0  0  0  0  0  0
   17.7982    7.9845    0.0000 C   0  0  0  0  0  0  0  0  0  0  0  0
   15.2001    6.4845    0.0000 C   0  0  0  0  0  0  0  0  0  0  0  0
   14.3341    7.9845    0.0000 C   0  0  0  0  0  0  0  0  0  0  0  0
   16.0661    6.9845    0.0000 C   0  0  0  0  0  0  0  0  0  0  0  0
   15.2001    8.4845    0.0000 C   0  0  0  0  0  0  0  0  0  0  0  0
   19.5302    7.9845    0.0000 C   0  0  0  0  0  0  0  0  0  0  0  0
   21.2623    7.9845    0.0000 C   0  0  0  0  0  0  0  0  0  0  0  0
   20.3962    6.4845    0.0000 C   0  0  0  0  0  0  0  0  0  0  0  0
   22.7921    7.4845    0.0000 C   0  0  0  0  0  0  0  0  0  0  0  0
   23.7921    7.4845    0.0000 C   0  0  0  0  0  0  0  0  0  0  0  0
   24.3799    6.6755    0.0000 C   0  0  0  0  0  0  0  0  0  0  0  0
   25.3309    6.9845    0.0000 C   0  0  0  0  0  0  0  0  0  0  0  0
   25.3309    7.9845    0.0000 C   0  0  0  0  0  0  0  0  0  0  0  0
   12.2148    0.8660    0.0000 C   0  0  0  0  0  0  0  0  0  0  0  0
   13.0808    1.3660    0.0000 C   0  0  0  0  0  0  0  0  0  0  0  0
    4.4093    6.0095    0.0000 H   0  0  0  0  0  0  0  0  0  0  0  0
    5.2063    6.0095    0.0000 H   0  0  0  0  0  0  0  0  0  0  0  0
    4.3403    7.4594    0.0000 H   0  0  0  0  0  0  0  0  0  0  0  0
    3.5432    7.4594    0.0000 H   0  0  0  0  0  0  0  0  0  0  0  0
    6.1413    6.0095    0.0000 H   0  0  0  0  0  0  0  0  0  0  0  0
    6.9384    6.0095    0.0000 H   0  0  0  0  0  0  0  0  0  0  0  0
    6.2844    7.8768    0.0000 H   0  0  0  0  0  0  0  0  0  0  0  0
    5.8859    8.5671    0.0000 H   0  0  0  0  0  0  0  0  0  0  0  0
    7.8044    7.4594    0.0000 H   0  0  0  0  0  0  0  0  0  0  0  0
    7.0073    7.4594    0.0000 H   0  0  0  0  0  0  0  0  0  0  0  0
    2.6170    8.0223    0.0000 H   0  0  0  0  0  0  0  0  0  0  0  0
    1.9996    8.5763    0.0000 H   0  0  0  0  0  0  0  0  0  0  0  0
    4.1972    8.5921    0.0000 H   0  0  0  0  0  0  0  0  0  0  0  0
    4.5957    7.9019    0.0000 H   0  0  0  0  0  0  0  0  0  0  0  0
    7.8734    6.0095    0.0000 H   0  0  0  0  0  0  0  0  0  0  0  0
    8.6704    6.0095    0.0000 H   0  0  0  0  0  0  0  0  0  0  0  0
    3.6127    5.1745    0.0000 H   0  0  0  0  0  0  0  0  0  0  0  0
    0.0000    7.0237    0.0000 H   0  0  0  0  0  0  0  0  0  0  0  0
    0.8068    5.1745    0.0000 H   0  0  0  0  0  0  0  0  0  0  0  0
    2.2097    4.3645    0.0000 H   0  0  0  0  0  0  0  0  0  0  0  0
    5.4278    9.4845    0.0000 H   0  0  0  0  0  0  0  0  0  0  0  0
    4.8078   10.1045    0.0000 H   0  0  0  0  0  0  0  0  0  0  0  0
    4.1878    9.4845    0.0000 H   0  0  0  0  0  0  0  0  0  0  0  0
    9.1379    7.6045    0.0000 H   0  0  0  0  0  0  0  0  0  0  0  0
   11.2685    7.4594    0.0000 H   0  0  0  0  0  0  0  0  0  0  0  0
   10.4714    7.4594    0.0000 H   0  0  0  0  0  0  0  0  0  0  0  0
   11.3375    6.0095    0.0000 H   0  0  0  0  0  0  0  0  0  0  0  0
   12.1345    6.0095    0.0000 H   0  0  0  0  0  0  0  0  0  0  0  0
   13.0005    7.4594    0.0000 H   0  0  0  0  0  0  0  0  0  0  0  0
   12.2035    7.4594    0.0000 H   0  0  0  0  0  0  0  0  0  0  0  0
   17.3307    8.9594    0.0000 H   0  0  0  0  0  0  0  0  0  0  0  0
   16.5336    8.9594    0.0000 H   0  0  0  0  0  0  0  0  0  0  0  0
   17.3996    7.5095    0.0000 H   0  0  0  0  0  0  0  0  0  0  0  0
   18.1967    7.5095    0.0000 H   0  0  0  0  0  0  0  0  0  0  0  0
   15.2001    5.8645    0.0000 H   0  0  0  0  0  0  0  0  0  0  0  0
   13.7971    8.2945    0.0000 H   0  0  0  0  0  0  0  0  0  0  0  0
   16.6031    6.6745    0.0000 H   0  0  0  0  0  0  0  0  0  0  0  0
   15.2001    9.1045    0.0000 H   0  0  0  0  0  0  0  0  0  0  0  0
   18.6642    9.1045    0.0000 H   0  0  0  0  0  0  0  0  0  0  0  0
   19.8593    5.1745    0.0000 H   0  0  0  0  0  0  0  0  0  0  0  0
   20.9332    5.1745    0.0000 H   0  0  0  0  0  0  0  0  0  0  0  0
   24.1883    6.0858    0.0000 H   0  0  0  0  0  0  0  0  0  0  0  0
   25.8325    6.6200    0.0000 H   0  0  0  0  0  0  0  0  0  0  0  0
   25.8325    8.3489    0.0000 H   0  0  0  0  0  0  0  0  0  0  0  0
   14.4838    1.1760    0.0000 H   0  0  0  0  0  0  0  0  0  0  0  0
  1 56  1  0  0  0  0
  2 56  1  0  0  0  0
  3 56  1  0  0  0  0
  4 32  2  0  0  0  0
  5 36  2  0  0  0  0
  6 39  1  0  0  0  0
  6 40  1  0  0  0  0
  7 52  1  0  0  0  0
  7 55  1  0  0  0  0
  8 57  1  0  0  0  0
  8102  1  0  0  0  0
  9 57  2  0  0  0  0
 10 20  1  0  0  0  0
 10 22  1  0  0  0  0
 10 24  1  0  0  0  0
 11 28  1  0  0  0  0
 11 32  1  0  0  0  0
 11 75  1  0  0  0  0
 12 30  1  0  0  0  0
 12 36  1  0  0  0  0
 12 81  1  0  0  0  0
 13 43  1  0  0  0  0
 13 48  1  0  0  0  0
 13 96  1  0  0  0  0
 14 17  1  0  0  0  0
 14 49  1  0  0  0  0
 14 50  1  0  0  0  0
 15 48  2  0  0  0  0
 15 49  1  0  0  0  0
 16 48  1  0  0  0  0
 16 50  2  0  0  0  0
 17 51  2  0  0  0  0
 18 49  2  0  0  0  0
 18 51  1  0  0  0  0
 19 50  1  0  0  0  0
 19 97  1  0  0  0  0
 19 98  1  0  0  0  0
 20 21  1  0  0  0  0
 20 58  1  0  0  0  0
 20 59  1  0  0  0  0
 21 23  1  0  0  0  0
 21 60  1  0  0  0  0
 21 61  1  0  0  0  0
 22 26  1  0  0  0  0
 22 62  1  0  0  0  0
 22 63  1  0  0  0  0
 23 25  2  0  0  0  0
 23 31  1  0  0  0  0
 24 29  1  0  0  0  0
 24 64  1  0  0  0  0
 24 65  1  0  0  0  0
 25 27  1  0  0  0  0
 25 28  1  0  0  0  0
 26 30  1  0  0  0  0
 26 66  1  0  0  0  0
 26 67  1  0  0  0  0
 27 32  1  0  0  0  0
 27 68  1  0  0  0  0
 27 69  1  0  0  0  0
 28 33  2  0  0  0  0
 29 35  1  0  0  0  0
 29 70  1  0  0  0  0
 29 71  1  0  0  0  0
 30 72  1  0  0  0  0
 30 73  1  0  0  0  0
 31 34  2  0  0  0  0
 31 74  1  0  0  0  0
 33 34  1  0  0  0  0
 33 76  1  0  0  0  0
 34 77  1  0  0  0  0
 35 78  1  0  0  0  0
 35 79  1  0  0  0  0
 35 80  1  0  0  0  0
 36 37  1  0  0  0  0
 37 38  1  0  0  0  0
 37 82  1  0  0  0  0
 37 83  1  0  0  0  0
 38 39  1  0  0  0  0
 38 84  1  0  0  0  0
 38 85  1  0  0  0  0
 39 86  1  0  0  0  0
 39 87  1  0  0  0  0
 40 44  2  0  0  0  0
 40 45  1  0  0  0  0
 41 42  1  0  0  0  0
 41 43  1  0  0  0  0
 41 88  1  0  0  0  0
 41 89  1  0  0  0  0
 42 46  2  0  0  0  0
 42 47  1  0  0  0  0
 43 90  1  0  0  0  0
 43 91  1  0  0  0  0
 44 46  1  0  0  0  0
 44 92  1  0  0  0  0
 45 47  2  0  0  0  0
 45 93  1  0  0  0  0
 46 94  1  0  0  0  0
 47 95  1  0  0  0  0
 51 52  1  0  0  0  0
 52 53  2  0  0  0  0
 53 54  1  0  0  0  0
 53 99  1  0  0  0  0
 54 55  2  0  0  0  0
 54100  1  0  0  0  0
 55101  1  0  0  0  0
 56 57  1  0  0  0  0
M  END
> <PUBCHEM_COMPOUND_CID>
145948566

> <PUBCHEM_COMPOUND_CANONICALIZED>
1

> <PUBCHEM_CACTVS_COMPLEXITY>
1130

> <PUBCHEM_CACTVS_HBOND_ACCEPTOR>
16

> <PUBCHEM_CACTVS_HBOND_DONOR>
5

> <PUBCHEM_CACTVS_ROTATABLE_BOND>
19

> <PUBCHEM_CACTVS_SUBSKEYS>
AAADcfB/+YAAAAAAAAAAAAAAAAAAAWLEgAA8YIAAAAAAAFgB/AAAHwAYCAAADAzhmxYz3ofIFkCqAq/y/ASSiAsnIqAdiKGubNiOLrLE/buHOSj83hPY6Ye+2YKOoAAAQAASAABAAACAACQAAAAAAAAAAA==

> <PUBCHEM_IUPAC_OPENEYE_NAME>
4-[4-[2-[[7-amino-2-(2-furyl)-[1,2,4]triazolo[1,5-a][1,3,5]triazin-5-yl]amino]ethyl]phenoxy]-N-[3-[2-(2-oxoindolin-4-yl)ethyl-propyl-amino]propyl]butanamide;2,2,2-trifluoroacetic acid

> <PUBCHEM_IUPAC_CAS_NAME>
4-[4-[2-[[7-amino-2-(2-furanyl)-[1,2,4]triazolo[1,5-a][1,3,5]triazin-5-yl]amino]ethyl]phenoxy]-N-[3-[2-(2-oxo-1,3-dihydroindol-4-yl)ethyl-propylamino]propyl]butanamide;2,2,2-trifluoroacetic acid

> <PUBCHEM_IUPAC_NAME_MARKUP>
4-[4-[2-[[7-amino-2-(furan-2-yl)-[1,2,4]triazolo[1,5-a][1,3,5]triazin-5-yl]amino]ethyl]phenoxy]-<I>N</I>-[3-[2-(2-oxo-1,3-dihydroindol-4-yl)ethyl-propylamino]propyl]butanamide;2,2,2-trifluoroacetic acid

> <PUBCHEM_IUPAC_NAME>
4-[4-[2-[[7-amino-2-(furan-2-yl)-[1,2,4]triazolo[1,5-a][1,3,5]triazin-5-yl]amino]ethyl]phenoxy]-N-[3-[2-(2-oxo-1,3-dihydroindol-4-yl)ethyl-propylamino]propyl]butanamide;2,2,2-trifluoroacetic acid

> <PUBCHEM_IUPAC_SYSTEMATIC_NAME>
4-[4-[2-[[7-azanyl-2-(furan-2-yl)-[1,2,4]triazolo[1,5-a][1,3,5]triazin-5-yl]amino]ethyl]phenoxy]-N-[3-[2-(2-oxidanylidene-1,3-dihydroindol-4-yl)ethyl-propyl-amino]propyl]butanamide;2,2,2-tris(fluoranyl)ethanoic acid

> <PUBCHEM_IUPAC_TRADITIONAL_NAME>
4-[4-[2-[[7-amino-2-(2-furyl)-[1,2,4]triazolo[1,5-a][1,3,5]triazin-5-yl]amino]ethyl]phenoxy]-N-[3-[2-(2-ketoindolin-4-yl)ethyl-propyl-amino]propyl]butyramide;2,2,2-trifluoroacetic acid

> <PUBCHEM_IUPAC_INCHI>
InChI=1S/C36H44N10O4.C2HF3O2/c1-2-19-45(21-16-26-7-3-8-29-28(26)24-32(48)40-29)20-6-17-38-31(47)10-5-22-49-27-13-11-25(12-14-27)15-18-39-35-42-34(37)46-36(43-35)41-33(44-46)30-9-4-23-50-30;3-2(4,5)1(6)7/h3-4,7-9,11-14,23H,2,5-6,10,15-22,24H2,1H3,(H,38,47)(H,40,48)(H3,37,39,41,42,43,44);(H,6,7)

> <PUBCHEM_IUPAC_INCHIKEY>
ZMHBCACAUUQMKS-UHFFFAOYSA-N

> <PUBCHEM_EXACT_MASS>
794.34756368

> <PUBCHEM_MOLECULAR_FORMULA>
C38H45F3N10O6

> <PUBCHEM_MOLECULAR_WEIGHT>
794.8

> <PUBCHEM_OPENEYE_CAN_SMILES>
CCCN(CCCNC(=O)CCCOC1=CC=C(C=C1)CCNC2=NC3=NC(=NN3C(=N2)N)C4=CC=CO4)CCC5=C6CC(=O)NC6=CC=C5.C(=O)(C(F)(F)F)O

> <PUBCHEM_OPENEYE_ISO_SMILES>
CCCN(CCCNC(=O)CCCOC1=CC=C(C=C1)CCNC2=NC3=NC(=NN3C(=N2)N)C4=CC=CO4)CCC5=C6CC(=O)NC6=CC=C5.C(=O)(C(F)(F)F)O

> <PUBCHEM_CACTVS_TPSA>
215

> <PUBCHEM_MONOISOTOPIC_WEIGHT>
794.34756368

> <PUBCHEM_TOTAL_CHARGE>
0

> <PUBCHEM_HEAVY_ATOM_COUNT>
57

> <PUBCHEM_ATOM_DEF_STEREO_COUNT>
0

> <PUBCHEM_ATOM_UDEF_STEREO_COUNT>
0

> <PUBCHEM_BOND_DEF_STEREO_COUNT>
0

> <PUBCHEM_BOND_UDEF_STEREO_COUNT>
0

> <PUBCHEM_ISOTOPIC_ATOM_COUNT>
0

> <PUBCHEM_COMPONENT_COUNT>
2

> <PUBCHEM_CACTVS_TAUTO_COUNT>
-1

> <PUBCHEM_COORDINATE_TYPE>
1
5
255

> <PUBCHEM_BONDANNOTATIONS>
14  17  8
14  49  8
14  50  8
15  48  8
15  49  8
16  48  8
16  50  8
17  51  8
18  49  8
18  51  8
23  25  8
23  31  8
25  28  8
28  33  8
31  34  8
33  34  8
40  44  8
40  45  8
42  46  8
42  47  8
44  46  8
45  47  8
52  53  8
53  54  8
54  55  8
7  52  8
7  55  8

$$$$
