16744003
  -OEChem-09292322242D

 68 71  0     1  0  0  0  0  0999 V2000
    4.0981   -0.9870    0.0000 O   0  0  0  0  0  0  0  0  0  0  0  0
    5.8223    5.9032    0.0000 O   0  0  0  0  0  0  0  0  0  0  0  0
    2.8660   -5.5258    0.0000 O   0  0  0  0  0  0  0  0  0  0  0  0
    4.5981   -6.5258    0.0000 O   0  0  0  0  0  0  0  0  0  0  0  0
    5.4602    2.4581    0.0000 N   0  0  0  0  0  0  0  0  0  0  0  0
    4.6467    4.2852    0.0000 N   0  0  0  0  0  0  0  0  0  0  0  0
    3.7891   -1.9381    0.0000 N   0  0  0  0  0  0  0  0  0  0  0  0
    6.0480    3.2671    0.0000 C   0  0  0  0  0  0  0  0  0  0  0  0
    4.4656    2.5626    0.0000 C   0  0  0  0  0  0  0  0  0  0  0  0
    5.8669    1.5446    0.0000 C   0  0  0  0  0  0  0  0  0  0  0  0
    5.6412    4.1807    0.0000 C   0  0  0  0  0  0  0  0  0  0  0  0
    4.0589    3.4762    0.0000 C   0  0  0  0  0  0  0  0  0  0  0  0
    5.2791    0.7356    0.0000 C   0  0  0  0  0  0  0  0  0  0  0  0
    5.6859   -0.1780    0.0000 C   0  0  0  0  0  0  0  0  0  0  0  0
    5.0981   -0.9870    0.0000 C   0  0  1  0  0  0  0  0  0  0  0  0
    5.4071   -1.9381    0.0000 C   0  0  0  0  0  0  0  0  0  0  0  0
    4.2400    5.1988    0.0000 C   0  0  0  0  0  0  0  0  0  0  0  0
    4.5981   -2.5258    0.0000 C   0  0  0  0  0  0  0  0  0  0  0  0
    4.8278    6.0078    0.0000 C   0  0  0  0  0  0  0  0  0  0  0  0
    3.2454    5.3033    0.0000 C   0  0  0  0  0  0  0  0  0  0  0  0
    4.5981   -3.5258    0.0000 C   0  0  0  0  0  0  0  0  0  0  0  0
    4.4210    6.9213    0.0000 C   0  0  0  0  0  0  0  0  0  0  0  0
    2.8387    6.2168    0.0000 C   0  0  0  0  0  0  0  0  0  0  0  0
    3.4265    7.0258    0.0000 C   0  0  0  0  0  0  0  0  0  0  0  0
    3.7320   -4.0258    0.0000 C   0  0  0  0  0  0  0  0  0  0  0  0
    5.4641   -4.0258    0.0000 C   0  0  0  0  0  0  0  0  0  0  0  0
    6.4101    6.7123    0.0000 C   0  0  0  0  0  0  0  0  0  0  0  0
    3.7320   -5.0258    0.0000 C   0  0  0  0  0  0  0  0  0  0  0  0
    5.4641   -5.0258    0.0000 C   0  0  0  0  0  0  0  0  0  0  0  0
    4.5981   -5.5258    0.0000 C   0  0  0  0  0  0  0  0  0  0  0  0
    7.4046    6.6077    0.0000 C   0  0  0  0  0  0  0  0  0  0  0  0
    2.0000   -5.0258    0.0000 C   0  0  0  0  0  0  0  0  0  0  0  0
    5.4641   -7.0258    0.0000 C   0  0  0  0  0  0  0  0  0  0  0  0
    6.4786    2.8212    0.0000 H   0  0  0  0  0  0  0  0  0  0  0  0
    6.5620    3.6138    0.0000 H   0  0  0  0  0  0  0  0  0  0  0  0
    3.8641    2.4127    0.0000 H   0  0  0  0  0  0  0  0  0  0  0  0
    4.5089    1.9442    0.0000 H   0  0  0  0  0  0  0  0  0  0  0  0
    6.2976    1.0986    0.0000 H   0  0  0  0  0  0  0  0  0  0  0  0
    6.3809    1.8913    0.0000 H   0  0  0  0  0  0  0  0  0  0  0  0
    6.2428    4.3307    0.0000 H   0  0  0  0  0  0  0  0  0  0  0  0
    5.5980    4.7992    0.0000 H   0  0  0  0  0  0  0  0  0  0  0  0
    3.6282    3.9222    0.0000 H   0  0  0  0  0  0  0  0  0  0  0  0
    3.5449    3.1295    0.0000 H   0  0  0  0  0  0  0  0  0  0  0  0
    4.8484    1.1816    0.0000 H   0  0  0  0  0  0  0  0  0  0  0  0
    4.7651    0.3889    0.0000 H   0  0  0  0  0  0  0  0  0  0  0  0
    6.1166   -0.6240    0.0000 H   0  0  0  0  0  0  0  0  0  0  0  0
    6.1999    0.1687    0.0000 H   0  0  0  0  0  0  0  0  0  0  0  0
    4.8166   -0.4346    0.0000 H   0  0  0  0  0  0  0  0  0  0  0  0
    5.7171   -2.4750    0.0000 H   0  0  0  0  0  0  0  0  0  0  0  0
    5.9735   -1.6859    0.0000 H   0  0  0  0  0  0  0  0  0  0  0  0
    2.8810    4.8017    0.0000 H   0  0  0  0  0  0  0  0  0  0  0  0
    4.7854    7.4229    0.0000 H   0  0  0  0  0  0  0  0  0  0  0  0
    2.2221    6.2816    0.0000 H   0  0  0  0  0  0  0  0  0  0  0  0
    3.1743    7.5922    0.0000 H   0  0  0  0  0  0  0  0  0  0  0  0
    3.1951   -3.7158    0.0000 H   0  0  0  0  0  0  0  0  0  0  0  0
    6.0010   -3.7158    0.0000 H   0  0  0  0  0  0  0  0  0  0  0  0
    6.5810    7.3082    0.0000 H   0  0  0  0  0  0  0  0  0  0  0  0
    5.8528    6.9840    0.0000 H   0  0  0  0  0  0  0  0  0  0  0  0
    6.0010   -5.3358    0.0000 H   0  0  0  0  0  0  0  0  0  0  0  0
    7.3398    5.9911    0.0000 H   0  0  0  0  0  0  0  0  0  0  0  0
    8.0212    6.5429    0.0000 H   0  0  0  0  0  0  0  0  0  0  0  0
    7.4694    7.2243    0.0000 H   0  0  0  0  0  0  0  0  0  0  0  0
    2.3100   -4.4889    0.0000 H   0  0  0  0  0  0  0  0  0  0  0  0
    1.4631   -4.7158    0.0000 H   0  0  0  0  0  0  0  0  0  0  0  0
    1.6900   -5.5628    0.0000 H   0  0  0  0  0  0  0  0  0  0  0  0
    5.1541   -7.5628    0.0000 H   0  0  0  0  0  0  0  0  0  0  0  0
    6.0010   -7.3358    0.0000 H   0  0  0  0  0  0  0  0  0  0  0  0
    5.7741   -6.4889    0.0000 H   0  0  0  0  0  0  0  0  0  0  0  0
  1  7  1  0  0  0  0
  1 15  1  0  0  0  0
  2 19  1  0  0  0  0
  2 27  1  0  0  0  0
  3 28  1  0  0  0  0
  3 32  1  0  0  0  0
  4 30  1  0  0  0  0
  4 33  1  0  0  0  0
  5  8  1  0  0  0  0
  5  9  1  0  0  0  0
  5 10  1  0  0  0  0
  6 11  1  0  0  0  0
  6 12  1  0  0  0  0
  6 17  1  0  0  0  0
  7 18  2  0  0  0  0
  8 11  1  0  0  0  0
  8 34  1  0  0  0  0
  8 35  1  0  0  0  0
  9 12  1  0  0  0  0
  9 36  1  0  0  0  0
  9 37  1  0  0  0  0
 10 13  1  0  0  0  0
 10 38  1  0  0  0  0
 10 39  1  0  0  0  0
 11 40  1  0  0  0  0
 11 41  1  0  0  0  0
 12 42  1  0  0  0  0
 12 43  1  0  0  0  0
 13 14  1  0  0  0  0
 13 44  1  0  0  0  0
 13 45  1  0  0  0  0
 15 14  1  1  0  0  0
 14 46  1  0  0  0  0
 14 47  1  0  0  0  0
 15 16  1  0  0  0  0
 15 48  1  0  0  0  0
 16 18  1  0  0  0  0
 16 49  1  0  0  0  0
 16 50  1  0  0  0  0
 17 19  1  0  0  0  0
 17 20  2  0  0  0  0
 18 21  1  0  0  0  0
 19 22  2  0  0  0  0
 20 23  1  0  0  0  0
 20 51  1  0  0  0  0
 21 25  2  0  0  0  0
 21 26  1  0  0  0  0
 22 24  1  0  0  0  0
 22 52  1  0  0  0  0
 23 24  2  0  0  0  0
 23 53  1  0  0  0  0
 24 54  1  0  0  0  0
 25 28  1  0  0  0  0
 25 55  1  0  0  0  0
 26 29  2  0  0  0  0
 26 56  1  0  0  0  0
 27 31  1  0  0  0  0
 27 57  1  0  0  0  0
 27 58  1  0  0  0  0
 28 30  2  0  0  0  0
 29 30  1  0  0  0  0
 29 59  1  0  0  0  0
 31 60  1  0  0  0  0
 31 61  1  0  0  0  0
 31 62  1  0  0  0  0
 32 63  1  0  0  0  0
 32 64  1  0  0  0  0
 32 65  1  0  0  0  0
 33 66  1  0  0  0  0
 33 67  1  0  0  0  0
 33 68  1  0  0  0  0
M  END
> <PUBCHEM_COMPOUND_CID>
16744003

> <PUBCHEM_COMPOUND_CANONICALIZED>
1

> <PUBCHEM_CACTVS_COMPLEXITY>
610

> <PUBCHEM_CACTVS_HBOND_ACCEPTOR>
7

> <PUBCHEM_CACTVS_HBOND_DONOR>
0

> <PUBCHEM_CACTVS_ROTATABLE_BOND>
10

> <PUBCHEM_CACTVS_SUBSKEYS>
AAADcfB7OAAAAAAAAAAAAAAAAAAAAQAAAAA8YIAAAAAAAAABQAAAHgAEAAAADBzhmAYyxoMQBACgAyRiQACCCAAhIgAIiAA/7JgPZqLEsZuXOCrkwBHa6AewwPAOIAABAAAAUABAAAIAAACgAAAAAAAAAA==

> <PUBCHEM_IUPAC_OPENEYE_NAME>
(5S)-3-(3,4-dimethoxyphenyl)-5-[3-[4-(2-ethoxyphenyl)piperazin-1-yl]propyl]-4,5-dihydroisoxazole

> <PUBCHEM_IUPAC_CAS_NAME>
(5S)-3-(3,4-dimethoxyphenyl)-5-[3-[4-(2-ethoxyphenyl)-1-piperazinyl]propyl]-4,5-dihydroisoxazole

> <PUBCHEM_IUPAC_NAME_MARKUP>
(5<I>S</I>)-3-(3,4-dimethoxyphenyl)-5-[3-[4-(2-ethoxyphenyl)piperazin-1-yl]propyl]-4,5-dihydro-1,2-oxazole

> <PUBCHEM_IUPAC_NAME>
(5S)-3-(3,4-dimethoxyphenyl)-5-[3-[4-(2-ethoxyphenyl)piperazin-1-yl]propyl]-4,5-dihydro-1,2-oxazole

> <PUBCHEM_IUPAC_SYSTEMATIC_NAME>
(5S)-3-(3,4-dimethoxyphenyl)-5-[3-[4-(2-ethoxyphenyl)piperazin-1-yl]propyl]-4,5-dihydro-1,2-oxazole

> <PUBCHEM_IUPAC_TRADITIONAL_NAME>
(5S)-3-(3,4-dimethoxyphenyl)-5-[3-(4-o-phenetylpiperazino)propyl]-2-isoxazoline

> <PUBCHEM_IUPAC_INCHI>
InChI=1S/C26H35N3O4/c1-4-32-24-10-6-5-9-23(24)29-16-14-28(15-17-29)13-7-8-21-19-22(27-33-21)20-11-12-25(30-2)26(18-20)31-3/h5-6,9-12,18,21H,4,7-8,13-17,19H2,1-3H3/t21-/m0/s1

> <PUBCHEM_IUPAC_INCHIKEY>
BUSRXNBLQQVZCO-NRFANRHFSA-N

> <PUBCHEM_XLOGP3_AA>
4.5

> <PUBCHEM_EXACT_MASS>
453.26275661

> <PUBCHEM_MOLECULAR_FORMULA>
C26H35N3O4

> <PUBCHEM_MOLECULAR_WEIGHT>
453.6

> <PUBCHEM_OPENEYE_CAN_SMILES>
CCOC1=CC=CC=C1N2CCN(CC2)CCCC3CC(=NO3)C4=CC(=C(C=C4)OC)OC

> <PUBCHEM_OPENEYE_ISO_SMILES>
CCOC1=CC=CC=C1N2CCN(CC2)CCC[C@H]3CC(=NO3)C4=CC(=C(C=C4)OC)OC

> <PUBCHEM_CACTVS_TPSA>
55.8

> <PUBCHEM_MONOISOTOPIC_WEIGHT>
453.26275661

> <PUBCHEM_TOTAL_CHARGE>
0

> <PUBCHEM_HEAVY_ATOM_COUNT>
33

> <PUBCHEM_ATOM_DEF_STEREO_COUNT>
1

> <PUBCHEM_ATOM_UDEF_STEREO_COUNT>
0

> <PUBCHEM_BOND_DEF_STEREO_COUNT>
0

> <PUBCHEM_BOND_UDEF_STEREO_COUNT>
0

> <PUBCHEM_ISOTOPIC_ATOM_COUNT>
0

> <PUBCHEM_COMPONENT_COUNT>
1

> <PUBCHEM_CACTVS_TAUTO_COUNT>
-1

> <PUBCHEM_COORDINATE_TYPE>
1
5
255

> <PUBCHEM_BONDANNOTATIONS>
15  14  5
17  19  8
17  20  8
19  22  8
20  23  8
21  25  8
21  26  8
22  24  8
23  24  8
25  28  8
26  29  8
28  30  8
29  30  8

$$$$
