118709177
  -OEChem-09292322352D

154161  0     0  0  0  0  0  0999 V2000
   19.0189   -4.5357    0.0000 Cl  0  0  0  0  0  0  0  0  0  0  0  0
   12.9282   10.9998    0.0000 Cl  0  0  0  0  0  0  0  0  0  0  0  0
   15.2869  -16.9998    0.0000 F   0  0  0  0  0  0  0  0  0  0  0  0
    2.0000   16.9998    0.0000 F   0  0  0  0  0  0  0  0  0  0  0  0
   16.5189   -7.1338    0.0000 O   0  0  0  0  0  0  0  0  0  0  0  0
    9.4282   10.1338    0.0000 O   0  0  0  0  0  0  0  0  0  0  0  0
   15.0189   -7.9998    0.0000 O   0  0  0  0  0  0  0  0  0  0  0  0
    7.9282    9.2678    0.0000 O   0  0  0  0  0  0  0  0  0  0  0  0
   14.4209  -12.4998    0.0000 O   0  0  0  0  0  0  0  0  0  0  0  0
    6.3301   15.4998    0.0000 O   0  0  0  0  0  0  0  0  0  0  0  0
   17.0189   -9.9998    0.0000 N   0  0  0  0  0  0  0  0  0  0  0  0
    7.1962   11.9998    0.0000 N   0  0  0  0  0  0  0  0  0  0  0  0
   13.1825   -3.8190    0.0000 N   0  0  0  0  0  0  0  0  0  0  0  0
    9.7646    5.0870    0.0000 N   0  0  0  0  0  0  0  0  0  0  0  0
   12.5244   -5.2972    0.0000 N   0  0  0  0  0  0  0  0  0  0  0  0
   10.4227    6.5652    0.0000 N   0  0  0  0  0  0  0  0  0  0  0  0
   12.3165   -4.3190    0.0000 N   0  0  0  0  0  0  0  0  0  0  0  0
   10.6306    5.5870    0.0000 N   0  0  0  0  0  0  0  0  0  0  0  0
   17.0189   -7.9998    0.0000 C   0  0  0  0  0  0  0  0  0  0  0  0
    8.9282   10.9998    0.0000 C   0  0  0  0  0  0  0  0  0  0  0  0
   17.8850   -8.4998    0.0000 C   0  0  0  0  0  0  0  0  0  0  0  0
   16.1529   -8.4998    0.0000 C   0  0  0  0  0  0  0  0  0  0  0  0
    8.0622   10.4998    0.0000 C   0  0  0  0  0  0  0  0  0  0  0  0
    8.9282   11.9998    0.0000 C   0  0  0  0  0  0  0  0  0  0  0  0
   17.8850   -9.4998    0.0000 C   0  0  0  0  0  0  0  0  0  0  0  0
   16.1529   -9.4998    0.0000 C   0  0  0  0  0  0  0  0  0  0  0  0
    7.1962   10.9998    0.0000 C   0  0  0  0  0  0  0  0  0  0  0  0
    8.0622   12.4998    0.0000 C   0  0  0  0  0  0  0  0  0  0  0  0
   17.5189   -7.1338    0.0000 C   0  0  0  0  0  0  0  0  0  0  0  0
    9.9282   10.9998    0.0000 C   0  0  0  0  0  0  0  0  0  0  0  0
   17.0189  -10.9998    0.0000 C   0  0  0  0  0  0  0  0  0  0  0  0
    6.3301   12.4998    0.0000 C   0  0  0  0  0  0  0  0  0  0  0  0
   16.1529  -11.4998    0.0000 C   0  0  0  0  0  0  0  0  0  0  0  0
    6.3301   13.4998    0.0000 C   0  0  0  0  0  0  0  0  0  0  0  0
   18.5189   -7.1338    0.0000 C   0  0  0  0  0  0  0  0  0  0  0  0
   10.4282   11.8658    0.0000 C   0  0  0  0  0  0  0  0  0  0  0  0
   17.0189   -6.2678    0.0000 C   0  0  0  0  0  0  0  0  0  0  0  0
   10.4282   10.1338    0.0000 C   0  0  0  0  0  0  0  0  0  0  0  0
   15.5189   -7.1338    0.0000 C   0  0  0  0  0  0  0  0  0  0  0  0
    8.9282    9.2678    0.0000 C   0  0  0  0  0  0  0  0  0  0  0  0
   16.1529  -12.4998    0.0000 C   0  0  0  0  0  0  0  0  0  0  0  0
    5.4641   13.9998    0.0000 C   0  0  0  0  0  0  0  0  0  0  0  0
   19.0189   -6.2678    0.0000 C   0  0  0  0  0  0  0  0  0  0  0  0
   11.4282   11.8658    0.0000 C   0  0  0  0  0  0  0  0  0  0  0  0
   17.5189   -5.4017    0.0000 C   0  0  0  0  0  0  0  0  0  0  0  0
   11.4282   10.1338    0.0000 C   0  0  0  0  0  0  0  0  0  0  0  0
   15.0189   -6.2678    0.0000 C   0  0  0  0  0  0  0  0  0  0  0  0
    9.4282    8.4017    0.0000 C   0  0  0  0  0  0  0  0  0  0  0  0
   18.5189   -5.4017    0.0000 C   0  0  0  0  0  0  0  0  0  0  0  0
   11.9282   10.9998    0.0000 C   0  0  0  0  0  0  0  0  0  0  0  0
   15.2869  -12.9998    0.0000 C   0  0  0  0  0  0  0  0  0  0  0  0
    5.4641   14.9998    0.0000 C   0  0  0  0  0  0  0  0  0  0  0  0
   14.0189   -6.2678    0.0000 C   0  0  0  0  0  0  0  0  0  0  0  0
    8.9282    7.5357    0.0000 C   0  0  0  0  0  0  0  0  0  0  0  0
   15.2869  -13.9998    0.0000 C   0  0  0  0  0  0  0  0  0  0  0  0
    4.5981   15.4998    0.0000 C   0  0  0  0  0  0  0  0  0  0  0  0
   13.5189   -5.4017    0.0000 C   0  0  0  0  0  0  0  0  0  0  0  0
    9.4282    6.6697    0.0000 C   0  0  0  0  0  0  0  0  0  0  0  0
   13.9257   -4.4882    0.0000 C   0  0  0  0  0  0  0  0  0  0  0  0
    9.0215    5.7561    0.0000 C   0  0  0  0  0  0  0  0  0  0  0  0
   14.4209  -14.4998    0.0000 C   0  0  0  0  0  0  0  0  0  0  0  0
    3.7320   14.9998    0.0000 C   0  0  0  0  0  0  0  0  0  0  0  0
   16.1529  -14.4998    0.0000 C   0  0  0  0  0  0  0  0  0  0  0  0
    4.5981   16.4998    0.0000 C   0  0  0  0  0  0  0  0  0  0  0  0
   13.2871   -2.8245    0.0000 C   0  0  0  0  0  0  0  0  0  0  0  0
    9.6601    4.0925    0.0000 C   0  0  0  0  0  0  0  0  0  0  0  0
   12.4780   -2.2367    0.0000 C   0  0  0  0  0  0  0  0  0  0  0  0
   10.4691    3.5047    0.0000 C   0  0  0  0  0  0  0  0  0  0  0  0
   12.5826   -1.2422    0.0000 C   0  0  0  0  0  0  0  0  0  0  0  0
   10.3646    2.5102    0.0000 C   0  0  0  0  0  0  0  0  0  0  0  0
   11.7735   -0.6544    0.0000 C   0  0  0  0  0  0  0  0  0  0  0  0
   11.1736    1.9224    0.0000 C   0  0  0  0  0  0  0  0  0  0  0  0
   11.8781    0.3401    0.0000 C   0  0  0  0  0  0  0  0  0  0  0  0
   11.0691    0.9279    0.0000 C   0  0  0  0  0  0  0  0  0  0  0  0
   14.4209  -15.4998    0.0000 C   0  0  0  0  0  0  0  0  0  0  0  0
    2.8660   15.4998    0.0000 C   0  0  0  0  0  0  0  0  0  0  0  0
   16.1529  -15.4998    0.0000 C   0  0  0  0  0  0  0  0  0  0  0  0
    3.7320   16.9998    0.0000 C   0  0  0  0  0  0  0  0  0  0  0  0
   15.2869  -15.9998    0.0000 C   0  0  0  0  0  0  0  0  0  0  0  0
    2.8660   16.4998    0.0000 C   0  0  0  0  0  0  0  0  0  0  0  0
   18.4955   -8.6075    0.0000 H   0  0  0  0  0  0  0  0  0  0  0  0
   18.0970   -7.9172    0.0000 H   0  0  0  0  0  0  0  0  0  0  0  0
   15.9409   -7.9172    0.0000 H   0  0  0  0  0  0  0  0  0  0  0  0
   15.5423   -8.6075    0.0000 H   0  0  0  0  0  0  0  0  0  0  0  0
    7.6636   10.0249    0.0000 H   0  0  0  0  0  0  0  0  0  0  0  0
    8.4607   10.0249    0.0000 H   0  0  0  0  0  0  0  0  0  0  0  0
    9.5388   11.8921    0.0000 H   0  0  0  0  0  0  0  0  0  0  0  0
    9.1403   12.5824    0.0000 H   0  0  0  0  0  0  0  0  0  0  0  0
   18.0970  -10.0824    0.0000 H   0  0  0  0  0  0  0  0  0  0  0  0
   18.4955   -9.3921    0.0000 H   0  0  0  0  0  0  0  0  0  0  0  0
   15.5423   -9.3921    0.0000 H   0  0  0  0  0  0  0  0  0  0  0  0
   15.9409  -10.0824    0.0000 H   0  0  0  0  0  0  0  0  0  0  0  0
    6.5856   11.1075    0.0000 H   0  0  0  0  0  0  0  0  0  0  0  0
    6.9841   10.4172    0.0000 H   0  0  0  0  0  0  0  0  0  0  0  0
    8.4607   12.9748    0.0000 H   0  0  0  0  0  0  0  0  0  0  0  0
    7.6636   12.9748    0.0000 H   0  0  0  0  0  0  0  0  0  0  0  0
   17.2310  -11.5824    0.0000 H   0  0  0  0  0  0  0  0  0  0  0  0
   17.6295  -10.8921    0.0000 H   0  0  0  0  0  0  0  0  0  0  0  0
    5.7196   12.6075    0.0000 H   0  0  0  0  0  0  0  0  0  0  0  0
    6.1181   11.9172    0.0000 H   0  0  0  0  0  0  0  0  0  0  0  0
   15.9409  -10.9172    0.0000 H   0  0  0  0  0  0  0  0  0  0  0  0
   15.5423  -11.6075    0.0000 H   0  0  0  0  0  0  0  0  0  0  0  0
    6.9407   13.3921    0.0000 H   0  0  0  0  0  0  0  0  0  0  0  0
    6.5422   14.0824    0.0000 H   0  0  0  0  0  0  0  0  0  0  0  0
   18.8289   -7.6707    0.0000 H   0  0  0  0  0  0  0  0  0  0  0  0
   10.1182   12.4028    0.0000 H   0  0  0  0  0  0  0  0  0  0  0  0
   16.3989   -6.2678    0.0000 H   0  0  0  0  0  0  0  0  0  0  0  0
   10.1182    9.5968    0.0000 H   0  0  0  0  0  0  0  0  0  0  0  0
   16.3650  -13.0824    0.0000 H   0  0  0  0  0  0  0  0  0  0  0  0
   16.7635  -12.3921    0.0000 H   0  0  0  0  0  0  0  0  0  0  0  0
    4.8535   14.1075    0.0000 H   0  0  0  0  0  0  0  0  0  0  0  0
    5.2520   13.4172    0.0000 H   0  0  0  0  0  0  0  0  0  0  0  0
   19.6389   -6.2678    0.0000 H   0  0  0  0  0  0  0  0  0  0  0  0
   11.7382   12.4028    0.0000 H   0  0  0  0  0  0  0  0  0  0  0  0
   17.2089   -4.8648    0.0000 H   0  0  0  0  0  0  0  0  0  0  0  0
   11.7382    9.5968    0.0000 H   0  0  0  0  0  0  0  0  0  0  0  0
   15.6015   -6.0557    0.0000 H   0  0  0  0  0  0  0  0  0  0  0  0
   14.9113   -5.6572    0.0000 H   0  0  0  0  0  0  0  0  0  0  0  0
    9.9032    8.0032    0.0000 H   0  0  0  0  0  0  0  0  0  0  0  0
    9.9032    8.8003    0.0000 H   0  0  0  0  0  0  0  0  0  0  0  0
   13.4363   -6.4798    0.0000 H   0  0  0  0  0  0  0  0  0  0  0  0
   14.1266   -6.8783    0.0000 H   0  0  0  0  0  0  0  0  0  0  0  0
    8.4533    7.9342    0.0000 H   0  0  0  0  0  0  0  0  0  0  0  0
    8.4533    7.1372    0.0000 H   0  0  0  0  0  0  0  0  0  0  0  0
   14.5321   -4.3593    0.0000 H   0  0  0  0  0  0  0  0  0  0  0  0
    8.4150    5.6272    0.0000 H   0  0  0  0  0  0  0  0  0  0  0  0
   13.8839  -14.1898    0.0000 H   0  0  0  0  0  0  0  0  0  0  0  0
    3.7320   14.3798    0.0000 H   0  0  0  0  0  0  0  0  0  0  0  0
   16.6898  -14.1898    0.0000 H   0  0  0  0  0  0  0  0  0  0  0  0
    5.1350   16.8098    0.0000 H   0  0  0  0  0  0  0  0  0  0  0  0
   13.8830   -2.9954    0.0000 H   0  0  0  0  0  0  0  0  0  0  0  0
   13.5588   -2.2673    0.0000 H   0  0  0  0  0  0  0  0  0  0  0  0
    9.0641    4.2634    0.0000 H   0  0  0  0  0  0  0  0  0  0  0  0
    9.3883    3.5352    0.0000 H   0  0  0  0  0  0  0  0  0  0  0  0
   11.8821   -2.0659    0.0000 H   0  0  0  0  0  0  0  0  0  0  0  0
   12.2062   -2.7940    0.0000 H   0  0  0  0  0  0  0  0  0  0  0  0
   11.0651    3.3338    0.0000 H   0  0  0  0  0  0  0  0  0  0  0  0
   10.7409    4.0620    0.0000 H   0  0  0  0  0  0  0  0  0  0  0  0
   13.1785   -1.4131    0.0000 H   0  0  0  0  0  0  0  0  0  0  0  0
   12.8544   -0.6850    0.0000 H   0  0  0  0  0  0  0  0  0  0  0  0
    9.7686    2.6811    0.0000 H   0  0  0  0  0  0  0  0  0  0  0  0
   10.0928    1.9529    0.0000 H   0  0  0  0  0  0  0  0  0  0  0  0
   11.1776   -0.4835    0.0000 H   0  0  0  0  0  0  0  0  0  0  0  0
   11.5018   -1.2117    0.0000 H   0  0  0  0  0  0  0  0  0  0  0  0
   11.7696    1.7515    0.0000 H   0  0  0  0  0  0  0  0  0  0  0  0
   11.4454    2.4796    0.0000 H   0  0  0  0  0  0  0  0  0  0  0  0
   12.4741    0.1692    0.0000 H   0  0  0  0  0  0  0  0  0  0  0  0
   12.1499    0.8973    0.0000 H   0  0  0  0  0  0  0  0  0  0  0  0
   10.4731    1.0988    0.0000 H   0  0  0  0  0  0  0  0  0  0  0  0
   10.7973    0.3706    0.0000 H   0  0  0  0  0  0  0  0  0  0  0  0
   13.8839  -15.8098    0.0000 H   0  0  0  0  0  0  0  0  0  0  0  0
    2.3291   15.1898    0.0000 H   0  0  0  0  0  0  0  0  0  0  0  0
   16.6898  -15.8098    0.0000 H   0  0  0  0  0  0  0  0  0  0  0  0
    3.7320   17.6198    0.0000 H   0  0  0  0  0  0  0  0  0  0  0  0
  1 49  1  0  0  0  0
  2 50  1  0  0  0  0
  3 79  1  0  0  0  0
  4 80  1  0  0  0  0
  5 19  1  0  0  0  0
  5 39  1  0  0  0  0
  6 20  1  0  0  0  0
  6 40  1  0  0  0  0
  7 39  2  0  0  0  0
  8 40  2  0  0  0  0
  9 51  2  0  0  0  0
 10 52  2  0  0  0  0
 11 25  1  0  0  0  0
 11 26  1  0  0  0  0
 11 31  1  0  0  0  0
 12 27  1  0  0  0  0
 12 28  1  0  0  0  0
 12 32  1  0  0  0  0
 13 17  1  0  0  0  0
 13 59  1  0  0  0  0
 13 65  1  0  0  0  0
 14 18  1  0  0  0  0
 14 60  1  0  0  0  0
 14 66  1  0  0  0  0
 15 17  2  0  0  0  0
 15 57  1  0  0  0  0
 16 18  2  0  0  0  0
 16 58  1  0  0  0  0
 19 21  1  0  0  0  0
 19 22  1  0  0  0  0
 19 29  1  0  0  0  0
 20 23  1  0  0  0  0
 20 24  1  0  0  0  0
 20 30  1  0  0  0  0
 21 25  1  0  0  0  0
 21 81  1  0  0  0  0
 21 82  1  0  0  0  0
 22 26  1  0  0  0  0
 22 83  1  0  0  0  0
 22 84  1  0  0  0  0
 23 27  1  0  0  0  0
 23 85  1  0  0  0  0
 23 86  1  0  0  0  0
 24 28  1  0  0  0  0
 24 87  1  0  0  0  0
 24 88  1  0  0  0  0
 25 89  1  0  0  0  0
 25 90  1  0  0  0  0
 26 91  1  0  0  0  0
 26 92  1  0  0  0  0
 27 93  1  0  0  0  0
 27 94  1  0  0  0  0
 28 95  1  0  0  0  0
 28 96  1  0  0  0  0
 29 35  2  0  0  0  0
 29 37  1  0  0  0  0
 30 36  2  0  0  0  0
 30 38  1  0  0  0  0
 31 33  1  0  0  0  0
 31 97  1  0  0  0  0
 31 98  1  0  0  0  0
 32 34  1  0  0  0  0
 32 99  1  0  0  0  0
 32100  1  0  0  0  0
 33 41  1  0  0  0  0
 33101  1  0  0  0  0
 33102  1  0  0  0  0
 34 42  1  0  0  0  0
 34103  1  0  0  0  0
 34104  1  0  0  0  0
 35 43  1  0  0  0  0
 35105  1  0  0  0  0
 36 44  1  0  0  0  0
 36106  1  0  0  0  0
 37 45  2  0  0  0  0
 37107  1  0  0  0  0
 38 46  2  0  0  0  0
 38108  1  0  0  0  0
 39 47  1  0  0  0  0
 40 48  1  0  0  0  0
 41 51  1  0  0  0  0
 41109  1  0  0  0  0
 41110  1  0  0  0  0
 42 52  1  0  0  0  0
 42111  1  0  0  0  0
 42112  1  0  0  0  0
 43 49  2  0  0  0  0
 43113  1  0  0  0  0
 44 50  2  0  0  0  0
 44114  1  0  0  0  0
 45 49  1  0  0  0  0
 45115  1  0  0  0  0
 46 50  1  0  0  0  0
 46116  1  0  0  0  0
 47 53  1  0  0  0  0
 47117  1  0  0  0  0
 47118  1  0  0  0  0
 48 54  1  0  0  0  0
 48119  1  0  0  0  0
 48120  1  0  0  0  0
 51 55  1  0  0  0  0
 52 56  1  0  0  0  0
 53 57  1  0  0  0  0
 53121  1  0  0  0  0
 53122  1  0  0  0  0
 54 58  1  0  0  0  0
 54123  1  0  0  0  0
 54124  1  0  0  0  0
 55 61  2  0  0  0  0
 55 63  1  0  0  0  0
 56 62  2  0  0  0  0
 56 64  1  0  0  0  0
 57 59  2  0  0  0  0
 58 60  2  0  0  0  0
 59125  1  0  0  0  0
 60126  1  0  0  0  0
 61 75  1  0  0  0  0
 61127  1  0  0  0  0
 62 76  1  0  0  0  0
 62128  1  0  0  0  0
 63 77  2  0  0  0  0
 63129  1  0  0  0  0
 64 78  2  0  0  0  0
 64130  1  0  0  0  0
 65 67  1  0  0  0  0
 65131  1  0  0  0  0
 65132  1  0  0  0  0
 66 68  1  0  0  0  0
 66133  1  0  0  0  0
 66134  1  0  0  0  0
 67 69  1  0  0  0  0
 67135  1  0  0  0  0
 67136  1  0  0  0  0
 68 70  1  0  0  0  0
 68137  1  0  0  0  0
 68138  1  0  0  0  0
 69 71  1  0  0  0  0
 69139  1  0  0  0  0
 69140  1  0  0  0  0
 70 72  1  0  0  0  0
 70141  1  0  0  0  0
 70142  1  0  0  0  0
 71 73  1  0  0  0  0
 71143  1  0  0  0  0
 71144  1  0  0  0  0
 72 74  1  0  0  0  0
 72145  1  0  0  0  0
 72146  1  0  0  0  0
 73 74  1  0  0  0  0
 73147  1  0  0  0  0
 73148  1  0  0  0  0
 74149  1  0  0  0  0
 74150  1  0  0  0  0
 75 79  2  0  0  0  0
 75151  1  0  0  0  0
 76 80  2  0  0  0  0
 76152  1  0  0  0  0
 77 79  1  0  0  0  0
 77153  1  0  0  0  0
 78 80  1  0  0  0  0
 78154  1  0  0  0  0
M  END
> <PUBCHEM_COMPOUND_CID>
118709177

> <PUBCHEM_COMPOUND_CANONICALIZED>
1

> <PUBCHEM_CACTVS_COMPLEXITY>
1720

> <PUBCHEM_CACTVS_HBOND_ACCEPTOR>
14

> <PUBCHEM_CACTVS_HBOND_DONOR>
0

> <PUBCHEM_CACTVS_ROTATABLE_BOND>
33

> <PUBCHEM_CACTVS_SUBSKEYS>
AAADcfB/+YAGAAAAAAAAAAAAAAAAAWLAAAA8eMGCAAAAAAAB9AAAHwIIAAAADE7Bniw8iJMIBACqA7T3TAACBAQ1lwAY2AE4esgIZjLBtxiWMQAmwAHI6Ye82eKOhAAAAAAAAAAIAAAAAAAAAAAAAAAAAA==

> <PUBCHEM_IUPAC_OPENEYE_NAME>
[4-(4-chlorophenyl)-1-[4-(4-fluorophenyl)-4-oxo-butyl]-4-piperidyl] 3-[1-[10-[4-[3-[[4-(4-chlorophenyl)-1-[4-(4-fluorophenyl)-4-oxo-butyl]-4-piperidyl]oxy]-3-oxo-propyl]triazol-1-yl]decyl]triazol-4-yl]propanoate

> <PUBCHEM_IUPAC_CAS_NAME>
3-[1-[10-[4-[3-[[4-(4-chlorophenyl)-1-[4-(4-fluorophenyl)-4-oxobutyl]-4-piperidinyl]oxy]-3-oxopropyl]-1-triazolyl]decyl]-4-triazolyl]propanoic acid [4-(4-chlorophenyl)-1-[4-(4-fluorophenyl)-4-oxobutyl]-4-piperidinyl] ester

> <PUBCHEM_IUPAC_NAME_MARKUP>
[4-(4-chlorophenyl)-1-[4-(4-fluorophenyl)-4-oxobutyl]piperidin-4-yl] 3-[1-[10-[4-[3-[4-(4-chlorophenyl)-1-[4-(4-fluorophenyl)-4-oxobutyl]piperidin-4-yl]oxy-3-oxopropyl]triazol-1-yl]decyl]triazol-4-yl]propanoate

> <PUBCHEM_IUPAC_NAME>
[4-(4-chlorophenyl)-1-[4-(4-fluorophenyl)-4-oxobutyl]piperidin-4-yl] 3-[1-[10-[4-[3-[4-(4-chlorophenyl)-1-[4-(4-fluorophenyl)-4-oxobutyl]piperidin-4-yl]oxy-3-oxopropyl]triazol-1-yl]decyl]triazol-4-yl]propanoate

> <PUBCHEM_IUPAC_SYSTEMATIC_NAME>
[4-(4-chlorophenyl)-1-[4-(4-fluorophenyl)-4-oxidanylidene-butyl]piperidin-4-yl] 3-[1-[10-[4-[3-[4-(4-chlorophenyl)-1-[4-(4-fluorophenyl)-4-oxidanylidene-butyl]piperidin-4-yl]oxy-3-oxidanylidene-propyl]-1,2,3-triazol-1-yl]decyl]-1,2,3-triazol-4-yl]propanoate

> <PUBCHEM_IUPAC_TRADITIONAL_NAME>
3-[1-[10-[4-[3-[[4-(4-chlorophenyl)-1-[4-(4-fluorophenyl)-4-keto-butyl]-4-piperidyl]oxy]-3-keto-propyl]triazol-1-yl]decyl]triazol-4-yl]propionic acid [4-(4-chlorophenyl)-1-[4-(4-fluorophenyl)-4-keto-butyl]-4-piperidyl] ester

> <PUBCHEM_IUPAC_INCHI>
InChI=1S/C62H74Cl2F2N8O6/c63-51-21-17-49(18-22-51)61(33-41-71(42-34-61)37-9-11-57(75)47-13-25-53(65)26-14-47)79-59(77)31-29-55-45-73(69-67-55)39-7-5-3-1-2-4-6-8-40-74-46-56(68-70-74)30-32-60(78)80-62(50-19-23-52(64)24-20-50)35-43-72(44-36-62)38-10-12-58(76)48-15-27-54(66)28-16-48/h13-28,45-46H,1-12,29-44H2

> <PUBCHEM_IUPAC_INCHIKEY>
ZJQBHEYWXVCZGD-UHFFFAOYSA-N

> <PUBCHEM_XLOGP3_AA>
11.4

> <PUBCHEM_EXACT_MASS>
1134.5076438

> <PUBCHEM_MOLECULAR_FORMULA>
C62H74Cl2F2N8O6

> <PUBCHEM_MOLECULAR_WEIGHT>
1136.2

> <PUBCHEM_OPENEYE_CAN_SMILES>
C1CN(CCC1(C2=CC=C(C=C2)Cl)OC(=O)CCC3=CN(N=N3)CCCCCCCCCCN4C=C(N=N4)CCC(=O)OC5(CCN(CC5)CCCC(=O)C6=CC=C(C=C6)F)C7=CC=C(C=C7)Cl)CCCC(=O)C8=CC=C(C=C8)F

> <PUBCHEM_OPENEYE_ISO_SMILES>
C1CN(CCC1(C2=CC=C(C=C2)Cl)OC(=O)CCC3=CN(N=N3)CCCCCCCCCCN4C=C(N=N4)CCC(=O)OC5(CCN(CC5)CCCC(=O)C6=CC=C(C=C6)F)C7=CC=C(C=C7)Cl)CCCC(=O)C8=CC=C(C=C8)F

> <PUBCHEM_CACTVS_TPSA>
155

> <PUBCHEM_MONOISOTOPIC_WEIGHT>
1134.5076438

> <PUBCHEM_TOTAL_CHARGE>
0

> <PUBCHEM_HEAVY_ATOM_COUNT>
80

> <PUBCHEM_ATOM_DEF_STEREO_COUNT>
0

> <PUBCHEM_ATOM_UDEF_STEREO_COUNT>
0

> <PUBCHEM_BOND_DEF_STEREO_COUNT>
0

> <PUBCHEM_BOND_UDEF_STEREO_COUNT>
0

> <PUBCHEM_ISOTOPIC_ATOM_COUNT>
0

> <PUBCHEM_COMPONENT_COUNT>
1

> <PUBCHEM_CACTVS_TAUTO_COUNT>
-1

> <PUBCHEM_COORDINATE_TYPE>
1
5
255

> <PUBCHEM_BONDANNOTATIONS>
13  17  8
13  59  8
14  18  8
14  60  8
15  17  8
15  57  8
16  18  8
16  58  8
29  35  8
29  37  8
30  36  8
30  38  8
35  43  8
36  44  8
37  45  8
38  46  8
43  49  8
44  50  8
45  49  8
46  50  8
55  61  8
55  63  8
56  62  8
56  64  8
57  59  8
58  60  8
61  75  8
62  76  8
63  77  8
64  78  8
75  79  8
76  80  8
77  79  8
78  80  8

$$$$
