44305348
  -OEChem-09292322222D

 62 66  0     1  0  0  0  0  0999 V2000
   15.7619   -1.4856    0.0000 O   0  0  0  0  0  0  0  0  0  0  0  0
    7.0000   -3.5837    0.0000 O   0  0  0  0  0  0  0  0  0  0  0  0
    2.0000   -1.8516    0.0000 O   0  0  0  0  0  0  0  0  0  0  0  0
   12.5000   -0.9856    0.0000 N   0  0  3  0  0  0  0  0  0  0  0  0
    7.0000   -1.8516    0.0000 N   0  0  0  0  0  0  0  0  0  0  0  0
   15.7701    3.5837    0.0000 N   0  0  0  0  0  0  0  0  0  0  0  0
   14.0298   -1.4856    0.0000 C   0  0  3  0  0  0  0  0  0  0  0  0
   14.0298   -0.4856    0.0000 C   0  0  3  0  0  0  0  0  0  0  0  0
   13.0836   -1.7903    0.0000 C   0  0  0  0  0  0  0  0  0  0  0  0
   13.0836   -0.1809    0.0000 C   0  0  0  0  0  0  0  0  0  0  0  0
   14.8959   -1.9856    0.0000 C   0  0  0  0  0  0  0  0  0  0  0  0
   14.8959    0.0144    0.0000 C   0  0  0  0  0  0  0  0  0  0  0  0
   11.5000   -0.9856    0.0000 C   0  0  0  0  0  0  0  0  0  0  0  0
   15.7619   -0.4856    0.0000 C   0  0  0  0  0  0  0  0  0  0  0  0
   14.8798    1.0559    0.0000 C   0  0  0  0  0  0  0  0  0  0  0  0
   11.0000   -1.8516    0.0000 C   0  0  0  0  0  0  0  0  0  0  0  0
   16.6719    0.0213    0.0000 C   0  0  0  0  0  0  0  0  0  0  0  0
   15.7778    1.5837    0.0000 C   0  0  0  0  0  0  0  0  0  0  0  0
   10.0000   -1.8516    0.0000 C   0  0  0  0  0  0  0  0  0  0  0  0
   16.6799    1.0629    0.0000 C   0  0  0  0  0  0  0  0  0  0  0  0
    9.5000   -2.7176    0.0000 C   0  0  0  0  0  0  0  0  0  0  0  0
    9.5000   -0.9856    0.0000 C   0  0  0  0  0  0  0  0  0  0  0  0
   15.7740    2.5837    0.0000 C   0  0  0  0  0  0  0  0  0  0  0  0
    8.5000   -2.7176    0.0000 C   0  0  0  0  0  0  0  0  0  0  0  0
    8.5000   -0.9856    0.0000 C   0  0  0  0  0  0  0  0  0  0  0  0
    8.0000   -1.8516    0.0000 C   0  0  0  0  0  0  0  0  0  0  0  0
    6.5000   -2.7176    0.0000 C   0  0  0  0  0  0  0  0  0  0  0  0
    5.5000   -2.7176    0.0000 C   0  0  0  0  0  0  0  0  0  0  0  0
    5.0000   -1.8516    0.0000 C   0  0  0  0  0  0  0  0  0  0  0  0
    5.0000   -3.5837    0.0000 C   0  0  0  0  0  0  0  0  0  0  0  0
    3.5000   -2.7176    0.0000 C   0  0  0  0  0  0  0  0  0  0  0  0
    4.0000   -1.8516    0.0000 C   0  0  0  0  0  0  0  0  0  0  0  0
    4.0000   -3.5837    0.0000 C   0  0  0  0  0  0  0  0  0  0  0  0
    2.5000   -2.7176    0.0000 C   0  0  0  0  0  0  0  0  0  0  0  0
    2.0000   -3.5837    0.0000 C   0  0  0  0  0  0  0  0  0  0  0  0
   13.9642   -2.1021    0.0000 H   0  0  0  0  0  0  0  0  0  0  0  0
   13.9642    0.1309    0.0000 H   0  0  0  0  0  0  0  0  0  0  0  0
   12.5462   -2.0995    0.0000 H   0  0  0  0  0  0  0  0  0  0  0  0
   13.3346   -2.3572    0.0000 H   0  0  0  0  0  0  0  0  0  0  0  0
   13.3346    0.3861    0.0000 H   0  0  0  0  0  0  0  0  0  0  0  0
   12.5462    0.1284    0.0000 H   0  0  0  0  0  0  0  0  0  0  0  0
   14.4973   -2.4605    0.0000 H   0  0  0  0  0  0  0  0  0  0  0  0
   15.2944   -2.4605    0.0000 H   0  0  0  0  0  0  0  0  0  0  0  0
   11.6077   -0.3750    0.0000 H   0  0  0  0  0  0  0  0  0  0  0  0
   10.9174   -0.7735    0.0000 H   0  0  0  0  0  0  0  0  0  0  0  0
   14.3393    1.3597    0.0000 H   0  0  0  0  0  0  0  0  0  0  0  0
   10.8923   -2.4622    0.0000 H   0  0  0  0  0  0  0  0  0  0  0  0
   11.5826   -2.0637    0.0000 H   0  0  0  0  0  0  0  0  0  0  0  0
   17.2052   -0.2949    0.0000 H   0  0  0  0  0  0  0  0  0  0  0  0
   17.2180    1.3708    0.0000 H   0  0  0  0  0  0  0  0  0  0  0  0
    9.8100   -3.2546    0.0000 H   0  0  0  0  0  0  0  0  0  0  0  0
    9.8100   -0.4486    0.0000 H   0  0  0  0  0  0  0  0  0  0  0  0
    8.1900   -3.2546    0.0000 H   0  0  0  0  0  0  0  0  0  0  0  0
    8.1900   -0.4486    0.0000 H   0  0  0  0  0  0  0  0  0  0  0  0
    6.6900   -1.3147    0.0000 H   0  0  0  0  0  0  0  0  0  0  0  0
    5.3100   -1.3147    0.0000 H   0  0  0  0  0  0  0  0  0  0  0  0
    5.3100   -4.1206    0.0000 H   0  0  0  0  0  0  0  0  0  0  0  0
    3.6900   -1.3147    0.0000 H   0  0  0  0  0  0  0  0  0  0  0  0
    3.6900   -4.1206    0.0000 H   0  0  0  0  0  0  0  0  0  0  0  0
    1.4631   -3.2737    0.0000 H   0  0  0  0  0  0  0  0  0  0  0  0
    1.6900   -4.1206    0.0000 H   0  0  0  0  0  0  0  0  0  0  0  0
    2.5369   -3.8937    0.0000 H   0  0  0  0  0  0  0  0  0  0  0  0
  1 11  1  0  0  0  0
  1 14  1  0  0  0  0
  2 27  2  0  0  0  0
  3 34  2  0  0  0  0
  4  9  1  0  0  0  0
  4 10  1  0  0  0  0
  4 13  1  0  0  0  0
  5 26  1  0  0  0  0
  5 27  1  0  0  0  0
  5 55  1  0  0  0  0
  6 23  3  0  0  0  0
  7  8  1  0  0  0  0
  7  9  1  0  0  0  0
  7 11  1  0  0  0  0
  7 36  1  0  0  0  0
  8 10  1  0  0  0  0
  8 12  1  0  0  0  0
  8 37  1  0  0  0  0
  9 38  1  0  0  0  0
  9 39  1  0  0  0  0
 10 40  1  0  0  0  0
 10 41  1  0  0  0  0
 11 42  1  0  0  0  0
 11 43  1  0  0  0  0
 12 14  2  0  0  0  0
 12 15  1  0  0  0  0
 13 16  1  0  0  0  0
 13 44  1  0  0  0  0
 13 45  1  0  0  0  0
 14 17  1  0  0  0  0
 15 18  2  0  0  0  0
 15 46  1  0  0  0  0
 16 19  1  0  0  0  0
 16 47  1  0  0  0  0
 16 48  1  0  0  0  0
 17 20  2  0  0  0  0
 17 49  1  0  0  0  0
 18 20  1  0  0  0  0
 18 23  1  0  0  0  0
 19 21  2  0  0  0  0
 19 22  1  0  0  0  0
 20 50  1  0  0  0  0
 21 24  1  0  0  0  0
 21 51  1  0  0  0  0
 22 25  2  0  0  0  0
 22 52  1  0  0  0  0
 24 26  2  0  0  0  0
 24 53  1  0  0  0  0
 25 26  1  0  0  0  0
 25 54  1  0  0  0  0
 27 28  1  0  0  0  0
 28 29  2  0  0  0  0
 28 30  1  0  0  0  0
 29 32  1  0  0  0  0
 29 56  1  0  0  0  0
 30 33  2  0  0  0  0
 30 57  1  0  0  0  0
 31 32  2  0  0  0  0
 31 33  1  0  0  0  0
 31 34  1  0  0  0  0
 32 58  1  0  0  0  0
 33 59  1  0  0  0  0
 34 35  1  0  0  0  0
 35 60  1  0  0  0  0
 35 61  1  0  0  0  0
 35 62  1  0  0  0  0
M  END
> <PUBCHEM_COMPOUND_CID>
44305348

> <PUBCHEM_COMPOUND_CANONICALIZED>
1

> <PUBCHEM_CACTVS_COMPLEXITY>
805

> <PUBCHEM_CACTVS_HBOND_ACCEPTOR>
5

> <PUBCHEM_CACTVS_HBOND_DONOR>
1

> <PUBCHEM_CACTVS_ROTATABLE_BOND>
6

> <PUBCHEM_CACTVS_SUBSKEYS>
AAADceB7MAAAAAAAAAAAAAAAAAAAAWAAAAA0YMEAAAAAAFiRUAAAHgAQAAAADQzhmAYyxoPABACYBqVSUACiCAAlIgAIiAEObMgMpjLEtZuGOSjm1BHI6Y+42OKO6AACAAAIAADQAAQAABAAAAAAAAAAAA==

> <PUBCHEM_IUPAC_OPENEYE_NAME>
4-acetyl-N-[4-[2-(8-cyano-3,3a,4,9b-tetrahydro-1H-chromeno[3,4-c]pyrrol-2-yl)ethyl]phenyl]benzamide

> <PUBCHEM_IUPAC_CAS_NAME>
4-acetyl-N-[4-[2-(8-cyano-3,3a,4,9b-tetrahydro-1H-[1]benzopyrano[3,4-c]pyrrol-2-yl)ethyl]phenyl]benzamide

> <PUBCHEM_IUPAC_NAME_MARKUP>
4-acetyl-<I>N</I>-[4-[2-(8-cyano-3,3<I>a</I>,4,9<I>b</I>-tetrahydro-1<I>H</I>-chromeno[3,4-c]pyrrol-2-yl)ethyl]phenyl]benzamide

> <PUBCHEM_IUPAC_NAME>
4-acetyl-N-[4-[2-(8-cyano-3,3a,4,9b-tetrahydro-1H-chromeno[3,4-c]pyrrol-2-yl)ethyl]phenyl]benzamide

> <PUBCHEM_IUPAC_SYSTEMATIC_NAME>
N-[4-[2-(8-cyano-3,3a,4,9b-tetrahydro-1H-chromeno[3,4-c]pyrrol-2-yl)ethyl]phenyl]-4-ethanoyl-benzamide

> <PUBCHEM_IUPAC_TRADITIONAL_NAME>
4-acetyl-N-[4-[2-(8-cyano-3,3a,4,9b-tetrahydro-1H-chromeno[3,4-c]pyrrol-2-yl)ethyl]phenyl]benzamide

> <PUBCHEM_IUPAC_INCHI>
InChI=1S/C29H27N3O3/c1-19(33)22-5-7-23(8-6-22)29(34)31-25-9-2-20(3-10-25)12-13-32-16-24-18-35-28-11-4-21(15-30)14-26(28)27(24)17-32/h2-11,14,24,27H,12-13,16-18H2,1H3,(H,31,34)

> <PUBCHEM_IUPAC_INCHIKEY>
NUDYAYZOUXPCOQ-UHFFFAOYSA-N

> <PUBCHEM_XLOGP3_AA>
4

> <PUBCHEM_EXACT_MASS>
465.20524173

> <PUBCHEM_MOLECULAR_FORMULA>
C29H27N3O3

> <PUBCHEM_MOLECULAR_WEIGHT>
465.5

> <PUBCHEM_OPENEYE_CAN_SMILES>
CC(=O)C1=CC=C(C=C1)C(=O)NC2=CC=C(C=C2)CCN3CC4COC5=C(C4C3)C=C(C=C5)C#N

> <PUBCHEM_OPENEYE_ISO_SMILES>
CC(=O)C1=CC=C(C=C1)C(=O)NC2=CC=C(C=C2)CCN3CC4COC5=C(C4C3)C=C(C=C5)C#N

> <PUBCHEM_CACTVS_TPSA>
82.4

> <PUBCHEM_MONOISOTOPIC_WEIGHT>
465.20524173

> <PUBCHEM_TOTAL_CHARGE>
0

> <PUBCHEM_HEAVY_ATOM_COUNT>
35

> <PUBCHEM_ATOM_DEF_STEREO_COUNT>
0

> <PUBCHEM_ATOM_UDEF_STEREO_COUNT>
2

> <PUBCHEM_BOND_DEF_STEREO_COUNT>
0

> <PUBCHEM_BOND_UDEF_STEREO_COUNT>
0

> <PUBCHEM_ISOTOPIC_ATOM_COUNT>
0

> <PUBCHEM_COMPONENT_COUNT>
1

> <PUBCHEM_CACTVS_TAUTO_COUNT>
-1

> <PUBCHEM_COORDINATE_TYPE>
1
5
255

> <PUBCHEM_BONDANNOTATIONS>
12  14  8
12  15  8
14  17  8
15  18  8
17  20  8
18  20  8
19  21  8
19  22  8
21  24  8
22  25  8
24  26  8
25  26  8
28  29  8
28  30  8
29  32  8
30  33  8
31  32  8
31  33  8
7  9  3
8  10  3

$$$$
