44350773
  -OEChem-09292322112D

 76 77  0     0  0  0  0  0  0999 V2000
   10.5390    2.0369    0.0000 I   0  0  0  0  0  0  0  0  0  0  0  0
   14.0031   14.0369    0.0000 O   0  0  0  0  0  0  0  0  0  0  0  0
    8.8070    7.0369    0.0000 O   0  0  0  0  0  0  0  0  0  0  0  0
    7.0749    2.0369    0.0000 O   0  0  0  0  0  0  0  0  0  0  0  0
    8.8070    1.0369    0.0000 O   0  0  0  0  0  0  0  0  0  0  0  0
    3.1350    8.0785    0.0000 O   0  0  0  0  0  0  0  0  0  0  0  0
    0.5369    8.5785    0.0000 O   0  0  0  0  0  0  0  0  0  0  0  0
    2.2690    9.5785    0.0000 O   0  0  0  0  0  0  0  0  0  0  0  0
    1.4030    7.0785    0.0000 O   0  0  0  0  0  0  0  0  0  0  0  0
   12.2711   11.0369    0.0000 N   0  0  0  0  0  0  0  0  0  0  0  0
   12.2711   13.0369    0.0000 N   0  0  0  0  0  0  0  0  0  0  0  0
   10.5390    7.0369    0.0000 N   0  0  0  0  0  0  0  0  0  0  0  0
   13.1371   11.5369    0.0000 C   0  0  0  0  0  0  0  0  0  0  0  0
   11.4050   11.5369    0.0000 C   0  0  0  0  0  0  0  0  0  0  0  0
   13.1371   12.5369    0.0000 C   0  0  0  0  0  0  0  0  0  0  0  0
   11.4050   12.5369    0.0000 C   0  0  0  0  0  0  0  0  0  0  0  0
   12.2711   10.0369    0.0000 C   0  0  0  0  0  0  0  0  0  0  0  0
   11.4050    9.5369    0.0000 C   0  0  0  0  0  0  0  0  0  0  0  0
   12.2711   14.0369    0.0000 C   0  0  0  0  0  0  0  0  0  0  0  0
   11.4050    8.5369    0.0000 C   0  0  0  0  0  0  0  0  0  0  0  0
   10.5390    8.0369    0.0000 C   0  0  0  0  0  0  0  0  0  0  0  0
   13.1371   14.5369    0.0000 C   0  0  0  0  0  0  0  0  0  0  0  0
   11.4050   14.5369    0.0000 C   0  0  0  0  0  0  0  0  0  0  0  0
   13.1371   15.5369    0.0000 C   0  0  0  0  0  0  0  0  0  0  0  0
   11.4050   15.5369    0.0000 C   0  0  0  0  0  0  0  0  0  0  0  0
   12.2711   16.0369    0.0000 C   0  0  0  0  0  0  0  0  0  0  0  0
    9.6730    6.5369    0.0000 C   0  0  0  0  0  0  0  0  0  0  0  0
   14.8691   14.5369    0.0000 C   0  0  0  0  0  0  0  0  0  0  0  0
    9.6730    5.5369    0.0000 C   0  0  0  0  0  0  0  0  0  0  0  0
    8.8070    5.0369    0.0000 C   0  0  0  0  0  0  0  0  0  0  0  0
    8.8070    4.0369    0.0000 C   0  0  0  0  0  0  0  0  0  0  0  0
    7.9409    3.5369    0.0000 C   0  0  0  0  0  0  0  0  0  0  0  0
    9.6730    3.5369    0.0000 C   0  0  0  0  0  0  0  0  0  0  0  0
    7.9409    2.5369    0.0000 C   0  0  0  0  0  0  0  0  0  0  0  0
    9.6730    2.5369    0.0000 C   0  0  0  0  0  0  0  0  0  0  0  0
    8.8070    2.0369    0.0000 C   0  0  0  0  0  0  0  0  0  0  0  0
    6.2089    2.5369    0.0000 C   0  0  0  0  0  0  0  0  0  0  0  0
    7.9409    0.5369    0.0000 C   0  0  0  0  0  0  0  0  0  0  0  0
    2.2690    8.5785    0.0000 C   0  0  0  0  0  0  0  0  0  0  0  0
    1.4030    8.0785    0.0000 C   0  0  0  0  0  0  0  0  0  0  0  0
   13.3491   10.9543    0.0000 H   0  0  0  0  0  0  0  0  0  0  0  0
   13.7477   11.6446    0.0000 H   0  0  0  0  0  0  0  0  0  0  0  0
   10.7945   11.6446    0.0000 H   0  0  0  0  0  0  0  0  0  0  0  0
   11.1930   10.9543    0.0000 H   0  0  0  0  0  0  0  0  0  0  0  0
   13.7477   12.4293    0.0000 H   0  0  0  0  0  0  0  0  0  0  0  0
   13.3491   13.1195    0.0000 H   0  0  0  0  0  0  0  0  0  0  0  0
   11.1930   13.1195    0.0000 H   0  0  0  0  0  0  0  0  0  0  0  0
   10.7945   12.4293    0.0000 H   0  0  0  0  0  0  0  0  0  0  0  0
   12.4831    9.4543    0.0000 H   0  0  0  0  0  0  0  0  0  0  0  0
   12.8816   10.1446    0.0000 H   0  0  0  0  0  0  0  0  0  0  0  0
   11.1930   10.1195    0.0000 H   0  0  0  0  0  0  0  0  0  0  0  0
   10.7945    9.4293    0.0000 H   0  0  0  0  0  0  0  0  0  0  0  0
   11.6171    7.9543    0.0000 H   0  0  0  0  0  0  0  0  0  0  0  0
   12.0156    8.6446    0.0000 H   0  0  0  0  0  0  0  0  0  0  0  0
   10.3270    8.6195    0.0000 H   0  0  0  0  0  0  0  0  0  0  0  0
    9.9284    7.9293    0.0000 H   0  0  0  0  0  0  0  0  0  0  0  0
   10.8681   14.2269    0.0000 H   0  0  0  0  0  0  0  0  0  0  0  0
   13.6740   15.8469    0.0000 H   0  0  0  0  0  0  0  0  0  0  0  0
   10.8681   15.8469    0.0000 H   0  0  0  0  0  0  0  0  0  0  0  0
   11.0759    6.7269    0.0000 H   0  0  0  0  0  0  0  0  0  0  0  0
   12.2711   16.6569    0.0000 H   0  0  0  0  0  0  0  0  0  0  0  0
   15.1791   14.0000    0.0000 H   0  0  0  0  0  0  0  0  0  0  0  0
   15.4061   14.8469    0.0000 H   0  0  0  0  0  0  0  0  0  0  0  0
   14.5591   15.0739    0.0000 H   0  0  0  0  0  0  0  0  0  0  0  0
   10.2099    5.2269    0.0000 H   0  0  0  0  0  0  0  0  0  0  0  0
    8.2700    5.3469    0.0000 H   0  0  0  0  0  0  0  0  0  0  0  0
    7.4040    3.8469    0.0000 H   0  0  0  0  0  0  0  0  0  0  0  0
   10.2099    3.8469    0.0000 H   0  0  0  0  0  0  0  0  0  0  0  0
    6.5189    3.0739    0.0000 H   0  0  0  0  0  0  0  0  0  0  0  0
    5.6720    2.8469    0.0000 H   0  0  0  0  0  0  0  0  0  0  0  0
    5.8989    2.0000    0.0000 H   0  0  0  0  0  0  0  0  0  0  0  0
    7.6309    1.0739    0.0000 H   0  0  0  0  0  0  0  0  0  0  0  0
    7.4040    0.2269    0.0000 H   0  0  0  0  0  0  0  0  0  0  0  0
    8.2509    0.0000    0.0000 H   0  0  0  0  0  0  0  0  0  0  0  0
    3.6720    8.3885    0.0000 H   0  0  0  0  0  0  0  0  0  0  0  0
    0.0000    8.2685    0.0000 H   0  0  0  0  0  0  0  0  0  0  0  0
  1 35  1  0  0  0  0
  2 22  1  0  0  0  0
  2 28  1  0  0  0  0
  3 27  2  0  0  0  0
  4 34  1  0  0  0  0
  4 37  1  0  0  0  0
  5 36  1  0  0  0  0
  5 38  1  0  0  0  0
  6 39  1  0  0  0  0
  6 75  1  0  0  0  0
  7 40  1  0  0  0  0
  7 76  1  0  0  0  0
  8 39  2  0  0  0  0
  9 40  2  0  0  0  0
 10 13  1  0  0  0  0
 10 14  1  0  0  0  0
 10 17  1  0  0  0  0
 11 15  1  0  0  0  0
 11 16  1  0  0  0  0
 11 19  1  0  0  0  0
 12 21  1  0  0  0  0
 12 27  1  0  0  0  0
 12 60  1  0  0  0  0
 13 15  1  0  0  0  0
 13 41  1  0  0  0  0
 13 42  1  0  0  0  0
 14 16  1  0  0  0  0
 14 43  1  0  0  0  0
 14 44  1  0  0  0  0
 15 45  1  0  0  0  0
 15 46  1  0  0  0  0
 16 47  1  0  0  0  0
 16 48  1  0  0  0  0
 17 18  1  0  0  0  0
 17 49  1  0  0  0  0
 17 50  1  0  0  0  0
 18 20  1  0  0  0  0
 18 51  1  0  0  0  0
 18 52  1  0  0  0  0
 19 22  1  0  0  0  0
 19 23  2  0  0  0  0
 20 21  1  0  0  0  0
 20 53  1  0  0  0  0
 20 54  1  0  0  0  0
 21 55  1  0  0  0  0
 21 56  1  0  0  0  0
 22 24  2  0  0  0  0
 23 25  1  0  0  0  0
 23 57  1  0  0  0  0
 24 26  1  0  0  0  0
 24 58  1  0  0  0  0
 25 26  2  0  0  0  0
 25 59  1  0  0  0  0
 26 61  1  0  0  0  0
 27 29  1  0  0  0  0
 28 62  1  0  0  0  0
 28 63  1  0  0  0  0
 28 64  1  0  0  0  0
 29 30  2  0  0  0  0
 29 65  1  0  0  0  0
 30 31  1  0  0  0  0
 30 66  1  0  0  0  0
 31 32  2  0  0  0  0
 31 33  1  0  0  0  0
 32 34  1  0  0  0  0
 32 67  1  0  0  0  0
 33 35  2  0  0  0  0
 33 68  1  0  0  0  0
 34 36  2  0  0  0  0
 35 36  1  0  0  0  0
 37 69  1  0  0  0  0
 37 70  1  0  0  0  0
 37 71  1  0  0  0  0
 38 72  1  0  0  0  0
 38 73  1  0  0  0  0
 38 74  1  0  0  0  0
 39 40  1  0  0  0  0
M  END
> <PUBCHEM_COMPOUND_CID>
44350773

> <PUBCHEM_COMPOUND_CANONICALIZED>
1

> <PUBCHEM_CACTVS_COMPLEXITY>
701

> <PUBCHEM_CACTVS_HBOND_ACCEPTOR>
10

> <PUBCHEM_CACTVS_HBOND_DONOR>
3

> <PUBCHEM_CACTVS_ROTATABLE_BOND>
12

> <PUBCHEM_CACTVS_SUBSKEYS>
AAADcfB7PAAAAgAAAAAAAAAAAAAAAAAAAAA8YIAAAAAAAAABQAAAHgAwCAAADAzDmAYyzoPABgCIAiXSWAKCCAAhIgAIiIBP7MgPZiLEsZuVMCpk1hHb6YeQwBAOIAABAAAAUABAAAIAAACgAAAAAAAAAA==

> <PUBCHEM_IUPAC_OPENEYE_NAME>
(E)-3-(3-iodo-4,5-dimethoxy-phenyl)-N-[4-[4-(2-methoxyphenyl)piperazin-1-yl]butyl]prop-2-enamide;oxalic acid

> <PUBCHEM_IUPAC_CAS_NAME>
(E)-3-(3-iodo-4,5-dimethoxyphenyl)-N-[4-[4-(2-methoxyphenyl)-1-piperazinyl]butyl]-2-propenamide;oxalic acid

> <PUBCHEM_IUPAC_NAME_MARKUP>
(<I>E</I>)-3-(3-iodo-4,5-dimethoxyphenyl)-<I>N</I>-[4-[4-(2-methoxyphenyl)piperazin-1-yl]butyl]prop-2-enamide;oxalic acid

> <PUBCHEM_IUPAC_NAME>
(E)-3-(3-iodo-4,5-dimethoxyphenyl)-N-[4-[4-(2-methoxyphenyl)piperazin-1-yl]butyl]prop-2-enamide;oxalic acid

> <PUBCHEM_IUPAC_SYSTEMATIC_NAME>
ethanedioic acid;(E)-3-(3-iodanyl-4,5-dimethoxy-phenyl)-N-[4-[4-(2-methoxyphenyl)piperazin-1-yl]butyl]prop-2-enamide

> <PUBCHEM_IUPAC_TRADITIONAL_NAME>
(E)-3-(3-iodo-4,5-dimethoxy-phenyl)-N-[4-[4-(2-methoxyphenyl)piperazino]butyl]acrylamide;oxalic acid

> <PUBCHEM_IUPAC_INCHI>
InChI=1S/C26H34IN3O4.C2H2O4/c1-32-23-9-5-4-8-22(23)30-16-14-29(15-17-30)13-7-6-12-28-25(31)11-10-20-18-21(27)26(34-3)24(19-20)33-2;3-1(4)2(5)6/h4-5,8-11,18-19H,6-7,12-17H2,1-3H3,(H,28,31);(H,3,4)(H,5,6)/b11-10+;

> <PUBCHEM_IUPAC_INCHIKEY>
FGFFJOHLMOLVEC-ASTDGNLGSA-N

> <PUBCHEM_EXACT_MASS>
669.15471

> <PUBCHEM_MOLECULAR_FORMULA>
C28H36IN3O8

> <PUBCHEM_MOLECULAR_WEIGHT>
669.5

> <PUBCHEM_OPENEYE_CAN_SMILES>
COC1=CC=CC=C1N2CCN(CC2)CCCCNC(=O)C=CC3=CC(=C(C(=C3)I)OC)OC.C(=O)(C(=O)O)O

> <PUBCHEM_OPENEYE_ISO_SMILES>
COC1=CC=CC=C1N2CCN(CC2)CCCCNC(=O)/C=C/C3=CC(=C(C(=C3)I)OC)OC.C(=O)(C(=O)O)O

> <PUBCHEM_CACTVS_TPSA>
138

> <PUBCHEM_MONOISOTOPIC_WEIGHT>
669.15471

> <PUBCHEM_TOTAL_CHARGE>
0

> <PUBCHEM_HEAVY_ATOM_COUNT>
40

> <PUBCHEM_ATOM_DEF_STEREO_COUNT>
0

> <PUBCHEM_ATOM_UDEF_STEREO_COUNT>
0

> <PUBCHEM_BOND_DEF_STEREO_COUNT>
1

> <PUBCHEM_BOND_UDEF_STEREO_COUNT>
0

> <PUBCHEM_ISOTOPIC_ATOM_COUNT>
0

> <PUBCHEM_COMPONENT_COUNT>
2

> <PUBCHEM_CACTVS_TAUTO_COUNT>
-1

> <PUBCHEM_COORDINATE_TYPE>
1
5
255

> <PUBCHEM_BONDANNOTATIONS>
19  22  8
19  23  8
22  24  8
23  25  8
24  26  8
25  26  8
31  32  8
31  33  8
32  34  8
33  35  8
34  36  8
35  36  8

$$$$
