23363843
  -OEChem-09292322162D

 49 52  0     0  0  0  0  0  0999 V2000
   11.1241   -3.9028    0.0000 Cl  0  0  0  0  0  0  0  0  0  0  0  0
    6.2619    2.6856    0.0000 O   0  0  0  0  0  0  0  0  0  0  0  0
    4.9889    4.4409    0.0000 O   0  0  0  0  0  0  0  0  0  0  0  0
    6.2781   -0.2264    0.0000 N   0  0  0  0  0  0  0  0  0  0  0  0
    6.8994   -2.1274    0.0000 N   0  0  0  0  0  0  0  0  0  0  0  0
    4.6783    1.8809    0.0000 N   0  0  0  0  0  0  0  0  0  0  0  0
    5.6103   -0.9707    0.0000 C   0  0  0  0  0  0  0  0  0  0  0  0
    7.2566   -0.4326    0.0000 C   0  0  0  0  0  0  0  0  0  0  0  0
    5.9209   -1.9212    0.0000 C   0  0  0  0  0  0  0  0  0  0  0  0
    7.5673   -1.3831    0.0000 C   0  0  0  0  0  0  0  0  0  0  0  0
    5.9674    0.7242    0.0000 C   0  0  0  0  0  0  0  0  0  0  0  0
    4.9889    0.9304    0.0000 C   0  0  0  0  0  0  0  0  0  0  0  0
    7.2101   -3.0779    0.0000 C   0  0  0  0  0  0  0  0  0  0  0  0
    8.1886   -3.2841    0.0000 C   0  0  0  0  0  0  0  0  0  0  0  0
    3.7320    2.1856    0.0000 C   0  0  0  0  0  0  0  0  0  0  0  0
    5.2619    2.6856    0.0000 C   0  0  0  0  0  0  0  0  0  0  0  0
    3.7320    3.1856    0.0000 C   0  0  0  0  0  0  0  0  0  0  0  0
    4.6783    3.4904    0.0000 C   0  0  0  0  0  0  0  0  0  0  0  0
    8.4993   -4.2347    0.0000 C   0  0  0  0  0  0  0  0  0  0  0  0
    8.8564   -2.5398    0.0000 C   0  0  0  0  0  0  0  0  0  0  0  0
    2.8660    1.6856    0.0000 C   0  0  0  0  0  0  0  0  0  0  0  0
    2.8660    3.6856    0.0000 C   0  0  0  0  0  0  0  0  0  0  0  0
    2.0000    2.1856    0.0000 C   0  0  0  0  0  0  0  0  0  0  0  0
    2.0000    3.1856    0.0000 C   0  0  0  0  0  0  0  0  0  0  0  0
    9.4778   -4.4409    0.0000 C   0  0  0  0  0  0  0  0  0  0  0  0
    9.8349   -2.7461    0.0000 C   0  0  0  0  0  0  0  0  0  0  0  0
   10.1456   -3.6966    0.0000 C   0  0  0  0  0  0  0  0  0  0  0  0
    5.2277   -0.4828    0.0000 H   0  0  0  0  0  0  0  0  0  0  0  0
    5.0633   -1.2627    0.0000 H   0  0  0  0  0  0  0  0  0  0  0  0
    7.8704   -0.3452    0.0000 H   0  0  0  0  0  0  0  0  0  0  0  0
    7.2772    0.1871    0.0000 H   0  0  0  0  0  0  0  0  0  0  0  0
    5.3071   -2.0085    0.0000 H   0  0  0  0  0  0  0  0  0  0  0  0
    5.9004   -2.5408    0.0000 H   0  0  0  0  0  0  0  0  0  0  0  0
    7.9498   -1.8710    0.0000 H   0  0  0  0  0  0  0  0  0  0  0  0
    8.1142   -1.0911    0.0000 H   0  0  0  0  0  0  0  0  0  0  0  0
    6.5812    0.8115    0.0000 H   0  0  0  0  0  0  0  0  0  0  0  0
    5.9880    1.3438    0.0000 H   0  0  0  0  0  0  0  0  0  0  0  0
    4.3751    0.8430    0.0000 H   0  0  0  0  0  0  0  0  0  0  0  0
    4.9684    0.3107    0.0000 H   0  0  0  0  0  0  0  0  0  0  0  0
    6.5963   -3.1653    0.0000 H   0  0  0  0  0  0  0  0  0  0  0  0
    7.1895   -3.6976    0.0000 H   0  0  0  0  0  0  0  0  0  0  0  0
    2.8660    1.0656    0.0000 H   0  0  0  0  0  0  0  0  0  0  0  0
    8.0852   -4.6961    0.0000 H   0  0  0  0  0  0  0  0  0  0  0  0
    8.6638   -1.9505    0.0000 H   0  0  0  0  0  0  0  0  0  0  0  0
    2.8660    4.3056    0.0000 H   0  0  0  0  0  0  0  0  0  0  0  0
    1.4631    1.8756    0.0000 H   0  0  0  0  0  0  0  0  0  0  0  0
    1.4631    3.4956    0.0000 H   0  0  0  0  0  0  0  0  0  0  0  0
    9.6704   -5.0302    0.0000 H   0  0  0  0  0  0  0  0  0  0  0  0
   10.2490   -2.2846    0.0000 H   0  0  0  0  0  0  0  0  0  0  0  0
  1 27  1  0  0  0  0
  2 16  2  0  0  0  0
  3 18  2  0  0  0  0
  4  7  1  0  0  0  0
  4  8  1  0  0  0  0
  4 11  1  0  0  0  0
  5  9  1  0  0  0  0
  5 10  1  0  0  0  0
  5 13  1  0  0  0  0
  6 12  1  0  0  0  0
  6 15  1  0  0  0  0
  6 16  1  0  0  0  0
  7  9  1  0  0  0  0
  7 28  1  0  0  0  0
  7 29  1  0  0  0  0
  8 10  1  0  0  0  0
  8 30  1  0  0  0  0
  8 31  1  0  0  0  0
  9 32  1  0  0  0  0
  9 33  1  0  0  0  0
 10 34  1  0  0  0  0
 10 35  1  0  0  0  0
 11 12  1  0  0  0  0
 11 36  1  0  0  0  0
 11 37  1  0  0  0  0
 12 38  1  0  0  0  0
 12 39  1  0  0  0  0
 13 14  1  0  0  0  0
 13 40  1  0  0  0  0
 13 41  1  0  0  0  0
 14 19  2  0  0  0  0
 14 20  1  0  0  0  0
 15 17  1  0  0  0  0
 15 21  2  0  0  0  0
 16 18  1  0  0  0  0
 17 18  1  0  0  0  0
 17 22  2  0  0  0  0
 19 25  1  0  0  0  0
 19 43  1  0  0  0  0
 20 26  2  0  0  0  0
 20 44  1  0  0  0  0
 21 23  1  0  0  0  0
 21 42  1  0  0  0  0
 22 24  1  0  0  0  0
 22 45  1  0  0  0  0
 23 24  2  0  0  0  0
 23 46  1  0  0  0  0
 24 47  1  0  0  0  0
 25 27  2  0  0  0  0
 25 48  1  0  0  0  0
 26 27  1  0  0  0  0
 26 49  1  0  0  0  0
M  END
> <PUBCHEM_COMPOUND_CID>
23363843

> <PUBCHEM_COMPOUND_CANONICALIZED>
1

> <PUBCHEM_CACTVS_COMPLEXITY>
542

> <PUBCHEM_CACTVS_HBOND_ACCEPTOR>
4

> <PUBCHEM_CACTVS_HBOND_DONOR>
0

> <PUBCHEM_CACTVS_ROTATABLE_BOND>
5

> <PUBCHEM_CACTVS_SUBSKEYS>
AAADceB7MAAEAAAAAAAAAAAAAAAAAWAAAAA8YIAAAAAAAFgBQAAAHgIAAAAADA7BmCQwwIMAAACIAqVSUACCAAAlBwAIiAGIZsgIYDrBl7GUIYhghgDIyccciICOBAAAAAACAAAIAAAAAAQAAAAAAAAAAA==

> <PUBCHEM_IUPAC_OPENEYE_NAME>
1-[2-[4-[(4-chlorophenyl)methyl]piperazin-1-yl]ethyl]indoline-2,3-dione

> <PUBCHEM_IUPAC_CAS_NAME>
1-[2-[4-[(4-chlorophenyl)methyl]-1-piperazinyl]ethyl]indole-2,3-dione

> <PUBCHEM_IUPAC_NAME_MARKUP>
1-[2-[4-[(4-chlorophenyl)methyl]piperazin-1-yl]ethyl]indole-2,3-dione

> <PUBCHEM_IUPAC_NAME>
1-[2-[4-[(4-chlorophenyl)methyl]piperazin-1-yl]ethyl]indole-2,3-dione

> <PUBCHEM_IUPAC_SYSTEMATIC_NAME>
1-[2-[4-[(4-chlorophenyl)methyl]piperazin-1-yl]ethyl]indole-2,3-dione

> <PUBCHEM_IUPAC_TRADITIONAL_NAME>
1-[2-[4-(4-chlorobenzyl)piperazino]ethyl]isatin

> <PUBCHEM_IUPAC_INCHI>
InChI=1S/C21H22ClN3O2/c22-17-7-5-16(6-8-17)15-24-11-9-23(10-12-24)13-14-25-19-4-2-1-3-18(19)20(26)21(25)27/h1-8H,9-15H2

> <PUBCHEM_IUPAC_INCHIKEY>
GWUIEAHZLVKSHB-UHFFFAOYSA-N

> <PUBCHEM_XLOGP3_AA>
2.9

> <PUBCHEM_EXACT_MASS>
383.1400546

> <PUBCHEM_MOLECULAR_FORMULA>
C21H22ClN3O2

> <PUBCHEM_MOLECULAR_WEIGHT>
383.9

> <PUBCHEM_OPENEYE_CAN_SMILES>
C1CN(CCN1CCN2C3=CC=CC=C3C(=O)C2=O)CC4=CC=C(C=C4)Cl

> <PUBCHEM_OPENEYE_ISO_SMILES>
C1CN(CCN1CCN2C3=CC=CC=C3C(=O)C2=O)CC4=CC=C(C=C4)Cl

> <PUBCHEM_CACTVS_TPSA>
43.9

> <PUBCHEM_MONOISOTOPIC_WEIGHT>
383.1400546

> <PUBCHEM_TOTAL_CHARGE>
0

> <PUBCHEM_HEAVY_ATOM_COUNT>
27

> <PUBCHEM_ATOM_DEF_STEREO_COUNT>
0

> <PUBCHEM_ATOM_UDEF_STEREO_COUNT>
0

> <PUBCHEM_BOND_DEF_STEREO_COUNT>
0

> <PUBCHEM_BOND_UDEF_STEREO_COUNT>
0

> <PUBCHEM_ISOTOPIC_ATOM_COUNT>
0

> <PUBCHEM_COMPONENT_COUNT>
1

> <PUBCHEM_CACTVS_TAUTO_COUNT>
-1

> <PUBCHEM_COORDINATE_TYPE>
1
5
255

> <PUBCHEM_BONDANNOTATIONS>
14  19  8
14  20  8
15  17  8
15  21  8
17  22  8
19  25  8
20  26  8
21  23  8
22  24  8
23  24  8
25  27  8
26  27  8

$$$$
