134134147
  -OEChem-09292322372D

 60 64  0     1  0  0  0  0  0999 V2000
    3.9538    1.6841    0.0000 S   0  0  0  0  0  0  0  0  0  0  0  0
    9.6460   -6.6659    0.0000 F   0  0  0  0  0  0  0  0  0  0  0  0
    8.2800   -7.0319    0.0000 F   0  0  0  0  0  0  0  0  0  0  0  0
    9.2800   -5.2999    0.0000 F   0  0  0  0  0  0  0  0  0  0  0  0
    4.5981    7.0319    0.0000 O   0  0  0  0  0  0  0  0  0  0  0  0
    4.3159   -1.7610    0.0000 N   0  0  3  0  0  0  0  0  0  0  0  0
    3.6750    3.4442    0.0000 N   0  0  0  0  0  0  0  0  0  0  0  0
    2.3660    2.4931    0.0000 N   0  0  0  0  0  0  0  0  0  0  0  0
    2.0570    3.4442    0.0000 N   0  0  0  0  0  0  0  0  0  0  0  0
    2.8660    7.0319    0.0000 N   0  0  0  0  0  0  0  0  0  0  0  0
    4.8159   -3.2999    0.0000 C   0  0  2  0  0  0  0  0  0  0  0  0
    5.3159   -4.1659    0.0000 C   0  0  2  0  0  0  0  0  0  0  0  0
    4.3159   -4.1659    0.0000 C   0  0  0  0  0  0  0  0  0  0  0  0
    5.6249   -2.7121    0.0000 C   0  0  0  0  0  0  0  0  0  0  0  0
    4.0069   -2.7121    0.0000 C   0  0  0  0  0  0  0  0  0  0  0  0
    5.3159   -1.7610    0.0000 C   0  0  0  0  0  0  0  0  0  0  0  0
    6.1819   -4.6659    0.0000 C   0  0  0  0  0  0  0  0  0  0  0  0
    3.7281   -0.9520    0.0000 C   0  0  0  0  0  0  0  0  0  0  0  0
    7.0480   -4.1659    0.0000 C   0  0  0  0  0  0  0  0  0  0  0  0
    6.1819   -5.6659    0.0000 C   0  0  0  0  0  0  0  0  0  0  0  0
    4.1349   -0.0385    0.0000 C   0  0  0  0  0  0  0  0  0  0  0  0
    7.9140   -4.6659    0.0000 C   0  0  0  0  0  0  0  0  0  0  0  0
    7.0480   -6.1659    0.0000 C   0  0  0  0  0  0  0  0  0  0  0  0
    7.9140   -5.6659    0.0000 C   0  0  0  0  0  0  0  0  0  0  0  0
    3.5471    0.7705    0.0000 C   0  0  0  0  0  0  0  0  0  0  0  0
    8.7800   -6.1659    0.0000 C   0  0  0  0  0  0  0  0  0  0  0  0
    3.3660    2.4931    0.0000 C   0  0  0  0  0  0  0  0  0  0  0  0
    2.8660    4.0319    0.0000 C   0  0  0  0  0  0  0  0  0  0  0  0
    4.6261    3.7532    0.0000 C   0  0  0  0  0  0  0  0  0  0  0  0
    2.8660    5.0319    0.0000 C   0  0  0  0  0  0  0  0  0  0  0  0
    3.7320    5.5319    0.0000 C   0  0  0  0  0  0  0  0  0  0  0  0
    2.0000    5.5319    0.0000 C   0  0  0  0  0  0  0  0  0  0  0  0
    3.7320    6.5319    0.0000 C   0  0  0  0  0  0  0  0  0  0  0  0
    2.0000    6.5319    0.0000 C   0  0  0  0  0  0  0  0  0  0  0  0
    5.1554   -4.7648    0.0000 H   0  0  0  0  0  0  0  0  0  0  0  0
    3.7333   -3.9539    0.0000 H   0  0  0  0  0  0  0  0  0  0  0  0
    4.2082   -4.7765    0.0000 H   0  0  0  0  0  0  0  0  0  0  0  0
    5.9349   -3.2490    0.0000 H   0  0  0  0  0  0  0  0  0  0  0  0
    6.1913   -2.4599    0.0000 H   0  0  0  0  0  0  0  0  0  0  0  0
    3.4405   -2.4599    0.0000 H   0  0  0  0  0  0  0  0  0  0  0  0
    3.6969   -3.2490    0.0000 H   0  0  0  0  0  0  0  0  0  0  0  0
    5.9224   -1.6321    0.0000 H   0  0  0  0  0  0  0  0  0  0  0  0
    5.2511   -1.1444    0.0000 H   0  0  0  0  0  0  0  0  0  0  0  0
    3.2141   -0.6053    0.0000 H   0  0  0  0  0  0  0  0  0  0  0  0
    3.2974   -1.3980    0.0000 H   0  0  0  0  0  0  0  0  0  0  0  0
    7.0480   -3.5459    0.0000 H   0  0  0  0  0  0  0  0  0  0  0  0
    5.6450   -5.9759    0.0000 H   0  0  0  0  0  0  0  0  0  0  0  0
    4.6489   -0.3852    0.0000 H   0  0  0  0  0  0  0  0  0  0  0  0
    4.5656    0.4075    0.0000 H   0  0  0  0  0  0  0  0  0  0  0  0
    8.4509   -4.3559    0.0000 H   0  0  0  0  0  0  0  0  0  0  0  0
    7.0480   -6.7859    0.0000 H   0  0  0  0  0  0  0  0  0  0  0  0
    3.0331    1.1172    0.0000 H   0  0  0  0  0  0  0  0  0  0  0  0
    3.1164    0.3245    0.0000 H   0  0  0  0  0  0  0  0  0  0  0  0
    4.8177    3.1635    0.0000 H   0  0  0  0  0  0  0  0  0  0  0  0
    5.2158    3.9448    0.0000 H   0  0  0  0  0  0  0  0  0  0  0  0
    4.4345    4.3428    0.0000 H   0  0  0  0  0  0  0  0  0  0  0  0
    3.9441    4.9493    0.0000 H   0  0  0  0  0  0  0  0  0  0  0  0
    4.3426    5.6396    0.0000 H   0  0  0  0  0  0  0  0  0  0  0  0
    1.4631    5.2219    0.0000 H   0  0  0  0  0  0  0  0  0  0  0  0
    1.4631    6.8419    0.0000 H   0  0  0  0  0  0  0  0  0  0  0  0
  1 25  1  0  0  0  0
  1 27  1  0  0  0  0
  2 26  1  0  0  0  0
  3 26  1  0  0  0  0
  4 26  1  0  0  0  0
  5 33  2  0  0  0  0
  6 15  1  0  0  0  0
  6 16  1  0  0  0  0
  6 18  1  0  0  0  0
  7 27  1  0  0  0  0
  7 28  1  0  0  0  0
  7 29  1  0  0  0  0
  8  9  1  0  0  0  0
  8 27  2  0  0  0  0
  9 28  2  0  0  0  0
 10 33  1  0  0  0  0
 10 34  2  0  0  0  0
 11 12  1  0  0  0  0
 11 13  1  6  0  0  0
 11 14  1  0  0  0  0
 11 15  1  0  0  0  0
 12 13  1  0  0  0  0
 12 17  1  1  0  0  0
 12 35  1  0  0  0  0
 13 36  1  0  0  0  0
 13 37  1  0  0  0  0
 14 16  1  0  0  0  0
 14 38  1  0  0  0  0
 14 39  1  0  0  0  0
 15 40  1  0  0  0  0
 15 41  1  0  0  0  0
 16 42  1  0  0  0  0
 16 43  1  0  0  0  0
 17 19  2  0  0  0  0
 17 20  1  0  0  0  0
 18 21  1  0  0  0  0
 18 44  1  0  0  0  0
 18 45  1  0  0  0  0
 19 22  1  0  0  0  0
 19 46  1  0  0  0  0
 20 23  2  0  0  0  0
 20 47  1  0  0  0  0
 21 25  1  0  0  0  0
 21 48  1  0  0  0  0
 21 49  1  0  0  0  0
 22 24  2  0  0  0  0
 22 50  1  0  0  0  0
 23 24  1  0  0  0  0
 23 51  1  0  0  0  0
 24 26  1  0  0  0  0
 25 52  1  0  0  0  0
 25 53  1  0  0  0  0
 28 30  1  0  0  0  0
 29 54  1  0  0  0  0
 29 55  1  0  0  0  0
 29 56  1  0  0  0  0
 30 31  1  0  0  0  0
 30 32  2  0  0  0  0
 31 33  1  0  0  0  0
 31 57  1  0  0  0  0
 31 58  1  0  0  0  0
 32 34  1  0  0  0  0
 32 59  1  0  0  0  0
 34 60  1  0  0  0  0
M  END
> <PUBCHEM_COMPOUND_CID>
134134147

> <PUBCHEM_COMPOUND_CANONICALIZED>
1

> <PUBCHEM_CACTVS_COMPLEXITY>
828

> <PUBCHEM_CACTVS_HBOND_ACCEPTOR>
8

> <PUBCHEM_CACTVS_HBOND_DONOR>
0

> <PUBCHEM_CACTVS_ROTATABLE_BOND>
7

> <PUBCHEM_CACTVS_SUBSKEYS>
AAADceB7oYBAAAAAAAAAAAAAGAAAAWLAAAAwQAAAAAAAAAABwAAAHwQIAAAADwDF2xSzEIcMEAiqAjNzNACS0AtgALAdyAE4AJiIKDKgmRCEIAAgiAKIiAcUgMAPwAAAAAAAAACAAAAAAAAAAAAAAAAAAA==

> <PUBCHEM_IUPAC_OPENEYE_NAME>
4-[4-methyl-5-[3-[(2R,3S)-2-[4-(trifluoromethyl)phenyl]-5-azaspiro[2.4]heptan-5-yl]propylsulfanyl]-1,2,4-triazol-3-yl]-3H-pyridin-2-one

> <PUBCHEM_IUPAC_CAS_NAME>
4-[4-methyl-5-[3-[(2R,3S)-2-[4-(trifluoromethyl)phenyl]-5-azaspiro[2.4]heptan-5-yl]propylthio]-1,2,4-triazol-3-yl]-3H-pyridin-2-one

> <PUBCHEM_IUPAC_NAME_MARKUP>
4-[4-methyl-5-[3-[(2<I>R</I>,3<I>S</I>)-2-[4-(trifluoromethyl)phenyl]-5-azaspiro[2.4]heptan-5-yl]propylsulfanyl]-1,2,4-triazol-3-yl]-3<I>H</I>-pyridin-2-one

> <PUBCHEM_IUPAC_NAME>
4-[4-methyl-5-[3-[(2R,3S)-2-[4-(trifluoromethyl)phenyl]-5-azaspiro[2.4]heptan-5-yl]propylsulfanyl]-1,2,4-triazol-3-yl]-3H-pyridin-2-one

> <PUBCHEM_IUPAC_SYSTEMATIC_NAME>
4-[4-methyl-5-[3-[(2R,3S)-2-[4-(trifluoromethyl)phenyl]-5-azaspiro[2.4]heptan-5-yl]propylsulfanyl]-1,2,4-triazol-3-yl]-3H-pyridin-2-one

> <PUBCHEM_IUPAC_TRADITIONAL_NAME>
4-[4-methyl-5-[3-[(2R,3S)-2-[4-(trifluoromethyl)phenyl]-5-azaspiro[2.4]heptan-5-yl]propylthio]-1,2,4-triazol-3-yl]-3H-pyridin-2-one

> <PUBCHEM_IUPAC_INCHI>
InChI=1S/C24H26F3N5OS/c1-31-21(17-7-9-28-20(33)13-17)29-30-22(31)34-12-2-10-32-11-8-23(15-32)14-19(23)16-3-5-18(6-4-16)24(25,26)27/h3-7,9,19H,2,8,10-15H2,1H3/t19-,23+/m1/s1

> <PUBCHEM_IUPAC_INCHIKEY>
OMUDHMBLKINCCX-XXBNENTESA-N

> <PUBCHEM_XLOGP3_AA>
2.8

> <PUBCHEM_EXACT_MASS>
489.18101613

> <PUBCHEM_MOLECULAR_FORMULA>
C24H26F3N5OS

> <PUBCHEM_MOLECULAR_WEIGHT>
489.6

> <PUBCHEM_OPENEYE_CAN_SMILES>
CN1C(=NN=C1SCCCN2CCC3(C2)CC3C4=CC=C(C=C4)C(F)(F)F)C5=CC=NC(=O)C5

> <PUBCHEM_OPENEYE_ISO_SMILES>
CN1C(=NN=C1SCCCN2CC[C@@]3(C2)C[C@@H]3C4=CC=C(C=C4)C(F)(F)F)C5=CC=NC(=O)C5

> <PUBCHEM_CACTVS_TPSA>
88.7

> <PUBCHEM_MONOISOTOPIC_WEIGHT>
489.18101613

> <PUBCHEM_TOTAL_CHARGE>
0

> <PUBCHEM_HEAVY_ATOM_COUNT>
34

> <PUBCHEM_ATOM_DEF_STEREO_COUNT>
2

> <PUBCHEM_ATOM_UDEF_STEREO_COUNT>
0

> <PUBCHEM_BOND_DEF_STEREO_COUNT>
0

> <PUBCHEM_BOND_UDEF_STEREO_COUNT>
0

> <PUBCHEM_ISOTOPIC_ATOM_COUNT>
0

> <PUBCHEM_COMPONENT_COUNT>
1

> <PUBCHEM_CACTVS_TAUTO_COUNT>
-1

> <PUBCHEM_COORDINATE_TYPE>
1
5
255

> <PUBCHEM_BONDANNOTATIONS>
11  13  6
12  17  5
17  19  8
17  20  8
19  22  8
20  23  8
22  24  8
23  24  8
7  27  8
7  28  8
8  27  8
8  9  8
9  28  8

$$$$
