11621352
  -OEChem-09292322242D

 69 74  0     1  0  0  0  0  0999 V2000
    9.0604    1.8674    0.0000 S   0  0  0  0  0  0  0  0  0  0  0  0
   17.6410   -2.3055    0.0000 F   0  0  0  0  0  0  0  0  0  0  0  0
   15.9089   -3.3055    0.0000 F   0  0  0  0  0  0  0  0  0  0  0  0
   17.7749   -4.5376    0.0000 F   0  0  0  0  0  0  0  0  0  0  0  0
   18.1410   -3.1715    0.0000 F   0  0  0  0  0  0  0  0  0  0  0  0
   16.4089   -4.1715    0.0000 F   0  0  0  0  0  0  0  0  0  0  0  0
   16.6800   -1.0317    0.0000 O   0  0  0  0  0  0  0  0  0  0  0  0
   12.0604    0.1354    0.0000 N   0  0  3  0  0  0  0  0  0  0  0  0
   15.2862   -1.8364    0.0000 N   0  0  0  0  0  0  0  0  0  0  0  0
    7.4726    2.6765    0.0000 N   0  0  0  0  0  0  0  0  0  0  0  0
    7.4726    1.0584    0.0000 N   0  0  0  0  0  0  0  0  0  0  0  0
    6.5215    1.3674    0.0000 N   0  0  0  0  0  0  0  0  0  0  0  0
    3.0320    2.7273    0.0000 N   0  0  0  0  0  0  0  0  0  0  0  0
   12.4847   -0.7488    0.0000 C   0  0  0  0  0  0  0  0  0  0  0  0
   12.4847    1.0196    0.0000 C   0  0  0  0  0  0  0  0  0  0  0  0
   13.4401   -0.9709    0.0000 C   0  0  0  0  0  0  0  0  0  0  0  0
   13.4401    1.2417    0.0000 C   0  0  0  0  0  0  0  0  0  0  0  0
   14.2110   -0.3646    0.0000 C   0  0  0  0  0  0  0  0  0  0  0  0
   14.2110    0.6354    0.0000 C   0  0  0  0  0  0  0  0  0  0  0  0
   11.0604    0.1354    0.0000 C   0  0  0  0  0  0  0  0  0  0  0  0
   15.0770   -0.8646    0.0000 C   0  0  0  0  0  0  0  0  0  0  0  0
   10.5604    1.0014    0.0000 C   0  0  0  0  0  0  0  0  0  0  0  0
   15.0770    1.1354    0.0000 C   0  0  0  0  0  0  0  0  0  0  0  0
   15.9430   -0.3646    0.0000 C   0  0  0  0  0  0  0  0  0  0  0  0
   15.9430    0.6354    0.0000 C   0  0  0  0  0  0  0  0  0  0  0  0
    9.5604    1.0014    0.0000 C   0  0  0  0  0  0  0  0  0  0  0  0
   16.2749   -1.9395    0.0000 C   0  0  0  0  0  0  0  0  0  0  0  0
   16.7749   -2.8055    0.0000 C   0  0  0  0  0  0  0  0  0  0  0  0
    8.0604    1.8674    0.0000 C   0  0  0  0  0  0  0  0  0  0  0  0
   17.2749   -3.6715    0.0000 C   0  0  0  0  0  0  0  0  0  0  0  0
    6.5215    2.3674    0.0000 C   0  0  0  0  0  0  0  0  0  0  0  0
    5.7125    2.9552    0.0000 C   0  0  0  0  0  0  0  0  0  0  0  0
    4.7990    2.5485    0.0000 C   0  0  0  0  0  0  0  0  0  0  0  0
    7.7816    3.6275    0.0000 C   0  0  0  0  0  0  0  0  0  0  0  0
    3.9900    3.1363    0.0000 C   0  0  0  0  0  0  0  0  0  0  0  0
    5.8171    3.9498    0.0000 C   0  0  0  0  0  0  0  0  0  0  0  0
    4.7061    1.5110    0.0000 C   0  0  0  0  0  0  0  0  0  0  0  0
    4.0945    4.1308    0.0000 C   0  0  0  0  0  0  0  0  0  0  0  0
    5.0080    4.5376    0.0000 C   0  0  0  0  0  0  0  0  0  0  0  0
    3.7578    1.0800    0.0000 C   0  0  0  0  0  0  0  0  0  0  0  0
    2.9151    1.6923    0.0000 C   0  0  0  0  0  0  0  0  0  0  0  0
    2.0000    1.2891    0.0000 C   0  0  0  0  0  0  0  0  0  0  0  0
   11.8800   -0.8854    0.0000 H   0  0  0  0  0  0  0  0  0  0  0  0
   12.4828   -1.3688    0.0000 H   0  0  0  0  0  0  0  0  0  0  0  0
   12.4828    1.6396    0.0000 H   0  0  0  0  0  0  0  0  0  0  0  0
   11.8800    1.1562    0.0000 H   0  0  0  0  0  0  0  0  0  0  0  0
   13.1683   -1.5282    0.0000 H   0  0  0  0  0  0  0  0  0  0  0  0
   13.9225   -1.3603    0.0000 H   0  0  0  0  0  0  0  0  0  0  0  0
   13.9225    1.6311    0.0000 H   0  0  0  0  0  0  0  0  0  0  0  0
   13.1683    1.7990    0.0000 H   0  0  0  0  0  0  0  0  0  0  0  0
   10.4778   -0.0767    0.0000 H   0  0  0  0  0  0  0  0  0  0  0  0
   11.1680   -0.4752    0.0000 H   0  0  0  0  0  0  0  0  0  0  0  0
   11.1430    1.2135    0.0000 H   0  0  0  0  0  0  0  0  0  0  0  0
   10.4527    1.6120    0.0000 H   0  0  0  0  0  0  0  0  0  0  0  0
   15.0770    1.7554    0.0000 H   0  0  0  0  0  0  0  0  0  0  0  0
   16.4800    0.9454    0.0000 H   0  0  0  0  0  0  0  0  0  0  0  0
    8.9778    0.7894    0.0000 H   0  0  0  0  0  0  0  0  0  0  0  0
    9.6680    0.3908    0.0000 H   0  0  0  0  0  0  0  0  0  0  0  0
    8.3713    3.4359    0.0000 H   0  0  0  0  0  0  0  0  0  0  0  0
    7.9732    4.2172    0.0000 H   0  0  0  0  0  0  0  0  0  0  0  0
    7.1920    3.8191    0.0000 H   0  0  0  0  0  0  0  0  0  0  0  0
    6.3834    4.2019    0.0000 H   0  0  0  0  0  0  0  0  0  0  0  0
    5.2119    1.1524    0.0000 H   0  0  0  0  0  0  0  0  0  0  0  0
    3.5929    4.4952    0.0000 H   0  0  0  0  0  0  0  0  0  0  0  0
    5.0728    5.1541    0.0000 H   0  0  0  0  0  0  0  0  0  0  0  0
    3.6954    0.4632    0.0000 H   0  0  0  0  0  0  0  0  0  0  0  0
    1.7500    1.8564    0.0000 H   0  0  0  0  0  0  0  0  0  0  0  0
    1.4326    1.0391    0.0000 H   0  0  0  0  0  0  0  0  0  0  0  0
    2.2500    0.7217    0.0000 H   0  0  0  0  0  0  0  0  0  0  0  0
  1 26  1  0  0  0  0
  1 29  1  0  0  0  0
  2 28  1  0  0  0  0
  3 28  1  0  0  0  0
  4 30  1  0  0  0  0
  5 30  1  0  0  0  0
  6 30  1  0  0  0  0
  7 24  1  0  0  0  0
  7 27  1  0  0  0  0
  8 14  1  0  0  0  0
  8 15  1  0  0  0  0
  8 20  1  0  0  0  0
  9 21  1  0  0  0  0
  9 27  2  0  0  0  0
 10 29  1  0  0  0  0
 10 31  1  0  0  0  0
 10 34  1  0  0  0  0
 11 12  1  0  0  0  0
 11 29  2  0  0  0  0
 12 31  2  0  0  0  0
 13 35  1  0  0  0  0
 13 41  2  0  0  0  0
 14 16  1  0  0  0  0
 14 43  1  0  0  0  0
 14 44  1  0  0  0  0
 15 17  1  0  0  0  0
 15 45  1  0  0  0  0
 15 46  1  0  0  0  0
 16 18  1  0  0  0  0
 16 47  1  0  0  0  0
 16 48  1  0  0  0  0
 17 19  1  0  0  0  0
 17 49  1  0  0  0  0
 17 50  1  0  0  0  0
 18 19  2  0  0  0  0
 18 21  1  0  0  0  0
 19 23  1  0  0  0  0
 20 22  1  0  0  0  0
 20 51  1  0  0  0  0
 20 52  1  0  0  0  0
 21 24  2  0  0  0  0
 22 26  1  0  0  0  0
 22 53  1  0  0  0  0
 22 54  1  0  0  0  0
 23 25  2  0  0  0  0
 23 55  1  0  0  0  0
 24 25  1  0  0  0  0
 25 56  1  0  0  0  0
 26 57  1  0  0  0  0
 26 58  1  0  0  0  0
 27 28  1  0  0  0  0
 28 30  1  0  0  0  0
 31 32  1  0  0  0  0
 32 33  2  0  0  0  0
 32 36  1  0  0  0  0
 33 35  1  0  0  0  0
 33 37  1  0  0  0  0
 34 59  1  0  0  0  0
 34 60  1  0  0  0  0
 34 61  1  0  0  0  0
 35 38  2  0  0  0  0
 36 39  2  0  0  0  0
 36 62  1  0  0  0  0
 37 40  2  0  0  0  0
 37 63  1  0  0  0  0
 38 39  1  0  0  0  0
 38 64  1  0  0  0  0
 39 65  1  0  0  0  0
 40 41  1  0  0  0  0
 40 66  1  0  0  0  0
 41 42  1  0  0  0  0
 42 67  1  0  0  0  0
 42 68  1  0  0  0  0
 42 69  1  0  0  0  0
M  END
> <PUBCHEM_COMPOUND_CID>
11621352

> <PUBCHEM_COMPOUND_CANONICALIZED>
1

> <PUBCHEM_CACTVS_COMPLEXITY>
918

> <PUBCHEM_CACTVS_HBOND_ACCEPTOR>
12

> <PUBCHEM_CACTVS_HBOND_DONOR>
0

> <PUBCHEM_CACTVS_ROTATABLE_BOND>
7

> <PUBCHEM_CACTVS_SUBSKEYS>
AAADceB7ocBAAAAAAAAAAAAAAAAAAWLAAAA8YIAABYAAAFix/gAAHwQIAAAADAzF3xSz1vcMFEiqA6dydASS2CtvYrAd2CG/bNiOLvLkvbuPOSjkzBPY6YeY2fKOoAABQAASEABAAAKAACQgAAAAAAAAAA==

> <PUBCHEM_IUPAC_OPENEYE_NAME>
8-[3-[[4-methyl-5-(2-methyl-5-quinolyl)-1,2,4-triazol-3-yl]sulfanyl]propyl]-2-(1,1,2,2,2-pentafluoroethyl)-6,7,9,10-tetrahydrooxazolo[5,4-i][3]benzazepine

> <PUBCHEM_IUPAC_CAS_NAME>
8-[3-[[4-methyl-5-(2-methyl-5-quinolinyl)-1,2,4-triazol-3-yl]thio]propyl]-2-(1,1,2,2,2-pentafluoroethyl)-6,7,9,10-tetrahydrooxazolo[5,4-i][3]benzazepine

> <PUBCHEM_IUPAC_NAME_MARKUP>
8-[3-[[4-methyl-5-(2-methylquinolin-5-yl)-1,2,4-triazol-3-yl]sulfanyl]propyl]-2-(1,1,2,2,2-pentafluoroethyl)-6,7,9,10-tetrahydro-[1,3]oxazolo[5,4-i][3]benzazepine

> <PUBCHEM_IUPAC_NAME>
8-[3-[[4-methyl-5-(2-methylquinolin-5-yl)-1,2,4-triazol-3-yl]sulfanyl]propyl]-2-(1,1,2,2,2-pentafluoroethyl)-6,7,9,10-tetrahydro-[1,3]oxazolo[5,4-i][3]benzazepine

> <PUBCHEM_IUPAC_SYSTEMATIC_NAME>
8-[3-[[4-methyl-5-(2-methylquinolin-5-yl)-1,2,4-triazol-3-yl]sulfanyl]propyl]-2-[1,1,2,2,2-pentakis(fluoranyl)ethyl]-6,7,9,10-tetrahydro-[1,3]oxazolo[5,4-i][3]benzazepine

> <PUBCHEM_IUPAC_TRADITIONAL_NAME>
8-[3-[[4-methyl-5-(2-methyl-5-quinolyl)-1,2,4-triazol-3-yl]thio]propyl]-2-(1,1,2,2,2-pentafluoroethyl)-6,7,9,10-tetrahydrooxazolo[5,4-i][3]benzazepine

> <PUBCHEM_IUPAC_INCHI>
InChI=1S/C29H27F5N6OS/c1-17-7-9-20-21(5-3-6-22(20)35-17)25-37-38-27(39(25)2)42-16-4-13-40-14-11-18-8-10-23-24(19(18)12-15-40)36-26(41-23)28(30,31)29(32,33)34/h3,5-10H,4,11-16H2,1-2H3

> <PUBCHEM_IUPAC_INCHIKEY>
YJTUMJAALUNJJT-UHFFFAOYSA-N

> <PUBCHEM_XLOGP3_AA>
6.4

> <PUBCHEM_EXACT_MASS>
602.18872149

> <PUBCHEM_MOLECULAR_FORMULA>
C29H27F5N6OS

> <PUBCHEM_MOLECULAR_WEIGHT>
602.6

> <PUBCHEM_OPENEYE_CAN_SMILES>
CC1=NC2=CC=CC(=C2C=C1)C3=NN=C(N3C)SCCCN4CCC5=C(CC4)C6=C(C=C5)OC(=N6)C(C(F)(F)F)(F)F

> <PUBCHEM_OPENEYE_ISO_SMILES>
CC1=NC2=CC=CC(=C2C=C1)C3=NN=C(N3C)SCCCN4CCC5=C(CC4)C6=C(C=C5)OC(=N6)C(C(F)(F)F)(F)F

> <PUBCHEM_CACTVS_TPSA>
98.2

> <PUBCHEM_MONOISOTOPIC_WEIGHT>
602.18872149

> <PUBCHEM_TOTAL_CHARGE>
0

> <PUBCHEM_HEAVY_ATOM_COUNT>
42

> <PUBCHEM_ATOM_DEF_STEREO_COUNT>
0

> <PUBCHEM_ATOM_UDEF_STEREO_COUNT>
0

> <PUBCHEM_BOND_DEF_STEREO_COUNT>
0

> <PUBCHEM_BOND_UDEF_STEREO_COUNT>
0

> <PUBCHEM_ISOTOPIC_ATOM_COUNT>
0

> <PUBCHEM_COMPONENT_COUNT>
1

> <PUBCHEM_CACTVS_TAUTO_COUNT>
-1

> <PUBCHEM_COORDINATE_TYPE>
1
5
255

> <PUBCHEM_BONDANNOTATIONS>
10  29  8
10  31  8
11  12  8
11  29  8
12  31  8
13  35  8
13  41  8
18  19  8
18  21  8
19  23  8
21  24  8
23  25  8
24  25  8
32  33  8
32  36  8
33  35  8
33  37  8
35  38  8
36  39  8
37  40  8
38  39  8
40  41  8
7  24  8
7  27  8
9  21  8
9  27  8

$$$$
