44340695
  -OEChem-09292322212D

 60 63  0     1  0  0  0  0  0999 V2000
    3.4013    1.7226    0.0000 S   0  0  0  0  0  0  0  0  0  0  0  0
   13.9288    0.3276    0.0000 O   0  0  0  0  0  0  0  0  0  0  0  0
   13.9288   -1.2819    0.0000 O   0  0  0  0  0  0  0  0  0  0  0  0
    5.0282   -1.9316    0.0000 O   0  0  0  0  0  0  0  0  0  0  0  0
    2.4877    1.3158    0.0000 O   0  0  0  0  0  0  0  0  0  0  0  0
    4.3148    2.1293    0.0000 O   0  0  0  0  0  0  0  0  0  0  0  0
    9.5185    0.0228    0.0000 N   0  0  3  0  0  0  0  0  0  0  0  0
    6.8729    0.4296    0.0000 N   0  0  0  0  0  0  0  0  0  0  0  0
    8.6525    0.5228    0.0000 C   0  0  0  0  0  0  0  0  0  0  0  0
   10.3845    0.5228    0.0000 C   0  0  0  0  0  0  0  0  0  0  0  0
    7.7864    0.0228    0.0000 C   0  0  0  0  0  0  0  0  0  0  0  0
    9.5185   -0.9772    0.0000 C   0  0  0  0  0  0  0  0  0  0  0  0
    6.2038   -0.3136    0.0000 C   0  0  0  0  0  0  0  0  0  0  0  0
   11.2506    0.0228    0.0000 C   0  0  0  0  0  0  0  0  0  0  0  0
    5.2092   -0.2091    0.0000 C   0  0  0  0  0  0  0  0  0  0  0  0
    7.6819   -0.9717    0.0000 C   0  0  0  0  0  0  0  0  0  0  0  0
    6.7038   -1.1796    0.0000 C   0  0  0  0  0  0  0  0  0  0  0  0
    3.8080    0.8090    0.0000 C   0  0  0  0  0  0  0  0  0  0  0  0
    4.8025    0.7045    0.0000 C   0  0  0  0  0  0  0  0  0  0  0  0
    8.6525   -1.4772    0.0000 C   0  0  0  0  0  0  0  0  0  0  0  0
    4.6215   -1.0181    0.0000 C   0  0  0  0  0  0  0  0  0  0  0  0
   12.1166    0.5228    0.0000 C   0  0  0  0  0  0  0  0  0  0  0  0
   11.2506   -0.9772    0.0000 C   0  0  0  0  0  0  0  0  0  0  0  0
   12.9826    0.0228    0.0000 C   0  0  0  0  0  0  0  0  0  0  0  0
    3.2202    0.0000    0.0000 C   0  0  0  0  0  0  0  0  0  0  0  0
    2.9945    2.6361    0.0000 C   0  0  0  0  0  0  0  0  0  0  0  0
   12.9826   -0.9772    0.0000 C   0  0  0  0  0  0  0  0  0  0  0  0
    3.6270   -0.9135    0.0000 C   0  0  0  0  0  0  0  0  0  0  0  0
   12.1166   -1.4772    0.0000 C   0  0  0  0  0  0  0  0  0  0  0  0
    2.0000    2.7406    0.0000 C   0  0  0  0  0  0  0  0  0  0  0  0
   14.5124   -0.4772    0.0000 C   0  0  0  0  0  0  0  0  0  0  0  0
    4.4404   -2.7406    0.0000 C   0  0  0  0  0  0  0  0  0  0  0  0
    9.0510    0.9978    0.0000 H   0  0  0  0  0  0  0  0  0  0  0  0
    8.2540    0.9978    0.0000 H   0  0  0  0  0  0  0  0  0  0  0  0
   10.7831    0.9978    0.0000 H   0  0  0  0  0  0  0  0  0  0  0  0
    9.9860    0.9978    0.0000 H   0  0  0  0  0  0  0  0  0  0  0  0
    9.7305   -1.5598    0.0000 H   0  0  0  0  0  0  0  0  0  0  0  0
   10.1291   -0.8695    0.0000 H   0  0  0  0  0  0  0  0  0  0  0  0
    6.7440    1.0360    0.0000 H   0  0  0  0  0  0  0  0  0  0  0  0
    8.1427   -1.3866    0.0000 H   0  0  0  0  0  0  0  0  0  0  0  0
    6.4516   -1.7460    0.0000 H   0  0  0  0  0  0  0  0  0  0  0  0
    5.1669    1.2061    0.0000 H   0  0  0  0  0  0  0  0  0  0  0  0
    8.3425   -0.9402    0.0000 H   0  0  0  0  0  0  0  0  0  0  0  0
    8.1155   -1.7872    0.0000 H   0  0  0  0  0  0  0  0  0  0  0  0
    8.9625   -2.0141    0.0000 H   0  0  0  0  0  0  0  0  0  0  0  0
   12.1166    1.1428    0.0000 H   0  0  0  0  0  0  0  0  0  0  0  0
   10.7136   -1.2872    0.0000 H   0  0  0  0  0  0  0  0  0  0  0  0
    3.5961    2.7861    0.0000 H   0  0  0  0  0  0  0  0  0  0  0  0
    2.9513    3.2546    0.0000 H   0  0  0  0  0  0  0  0  0  0  0  0
    2.6036    0.0648    0.0000 H   0  0  0  0  0  0  0  0  0  0  0  0
    3.2625   -1.4151    0.0000 H   0  0  0  0  0  0  0  0  0  0  0  0
   12.1166   -2.0972    0.0000 H   0  0  0  0  0  0  0  0  0  0  0  0
    2.0648    3.3572    0.0000 H   0  0  0  0  0  0  0  0  0  0  0  0
    1.3834    2.8054    0.0000 H   0  0  0  0  0  0  0  0  0  0  0  0
    1.9352    2.1240    0.0000 H   0  0  0  0  0  0  0  0  0  0  0  0
   14.9733   -0.8919    0.0000 H   0  0  0  0  0  0  0  0  0  0  0  0
   14.9733   -0.0624    0.0000 H   0  0  0  0  0  0  0  0  0  0  0  0
    3.9388   -2.3762    0.0000 H   0  0  0  0  0  0  0  0  0  0  0  0
    4.0760   -3.2422    0.0000 H   0  0  0  0  0  0  0  0  0  0  0  0
    4.9420   -3.1051    0.0000 H   0  0  0  0  0  0  0  0  0  0  0  0
  1  5  2  0  0  0  0
  1  6  2  0  0  0  0
  1 18  1  0  0  0  0
  1 26  1  0  0  0  0
  2 24  1  0  0  0  0
  2 31  1  0  0  0  0
  3 27  1  0  0  0  0
  3 31  1  0  0  0  0
  4 21  1  0  0  0  0
  4 32  1  0  0  0  0
  7  9  1  0  0  0  0
  7 10  1  0  0  0  0
  7 12  1  0  0  0  0
  8 11  1  0  0  0  0
  8 13  1  0  0  0  0
  8 39  1  0  0  0  0
  9 11  1  0  0  0  0
  9 33  1  0  0  0  0
  9 34  1  0  0  0  0
 10 14  1  0  0  0  0
 10 35  1  0  0  0  0
 10 36  1  0  0  0  0
 11 16  2  0  0  0  0
 12 20  1  0  0  0  0
 12 37  1  0  0  0  0
 12 38  1  0  0  0  0
 13 15  1  0  0  0  0
 13 17  2  0  0  0  0
 14 22  2  0  0  0  0
 14 23  1  0  0  0  0
 15 19  1  0  0  0  0
 15 21  2  0  0  0  0
 16 17  1  0  0  0  0
 16 40  1  0  0  0  0
 17 41  1  0  0  0  0
 18 19  2  0  0  0  0
 18 25  1  0  0  0  0
 19 42  1  0  0  0  0
 20 43  1  0  0  0  0
 20 44  1  0  0  0  0
 20 45  1  0  0  0  0
 21 28  1  0  0  0  0
 22 24  1  0  0  0  0
 22 46  1  0  0  0  0
 23 29  2  0  0  0  0
 23 47  1  0  0  0  0
 24 27  2  0  0  0  0
 25 28  2  0  0  0  0
 25 50  1  0  0  0  0
 26 30  1  0  0  0  0
 26 48  1  0  0  0  0
 26 49  1  0  0  0  0
 27 29  1  0  0  0  0
 28 51  1  0  0  0  0
 29 52  1  0  0  0  0
 30 53  1  0  0  0  0
 30 54  1  0  0  0  0
 30 55  1  0  0  0  0
 31 56  1  0  0  0  0
 31 57  1  0  0  0  0
 32 58  1  0  0  0  0
 32 59  1  0  0  0  0
 32 60  1  0  0  0  0
M  END
> <PUBCHEM_COMPOUND_CID>
44340695

> <PUBCHEM_COMPOUND_CANONICALIZED>
1

> <PUBCHEM_CACTVS_COMPLEXITY>
699

> <PUBCHEM_CACTVS_HBOND_ACCEPTOR>
6

> <PUBCHEM_CACTVS_HBOND_DONOR>
1

> <PUBCHEM_CACTVS_ROTATABLE_BOND>
9

> <PUBCHEM_CACTVS_SUBSKEYS>
AAADceB7OABAAAAAAAAAAAAAAAAAAWJAAAAwYAAAAAAAAEgB0AAAHgQQAAAADAzF3geyj5PJlAqgAyRiRHDCiCAhKjAImTg+7JgdZuLksZu0MCpm0BHu6Aew0PIOIIABgAAIQABBAAMAABCAAAAAAAAAAA==

> <PUBCHEM_IUPAC_OPENEYE_NAME>
N-(1,3-benzodioxol-5-ylmethyl)-N-[[5-(5-ethylsulfonyl-2-methoxy-phenyl)-1H-pyrrol-2-yl]methyl]ethanamine

> <PUBCHEM_IUPAC_CAS_NAME>
N-(1,3-benzodioxol-5-ylmethyl)-N-[[5-(5-ethylsulfonyl-2-methoxyphenyl)-1H-pyrrol-2-yl]methyl]ethanamine

> <PUBCHEM_IUPAC_NAME_MARKUP>
<I>N</I>-(1,3-benzodioxol-5-ylmethyl)-<I>N</I>-[[5-(5-ethylsulfonyl-2-methoxyphenyl)-1<I>H</I>-pyrrol-2-yl]methyl]ethanamine

> <PUBCHEM_IUPAC_NAME>
N-(1,3-benzodioxol-5-ylmethyl)-N-[[5-(5-ethylsulfonyl-2-methoxyphenyl)-1H-pyrrol-2-yl]methyl]ethanamine

> <PUBCHEM_IUPAC_SYSTEMATIC_NAME>
N-(1,3-benzodioxol-5-ylmethyl)-N-[[5-(5-ethylsulfonyl-2-methoxy-phenyl)-1H-pyrrol-2-yl]methyl]ethanamine

> <PUBCHEM_IUPAC_TRADITIONAL_NAME>
[5-(5-esyl-2-methoxy-phenyl)-1H-pyrrol-2-yl]methyl-ethyl-piperonyl-amine

> <PUBCHEM_IUPAC_INCHI>
InChI=1S/C24H28N2O5S/c1-4-26(14-17-6-10-23-24(12-17)31-16-30-23)15-18-7-9-21(25-18)20-13-19(32(27,28)5-2)8-11-22(20)29-3/h6-13,25H,4-5,14-16H2,1-3H3

> <PUBCHEM_IUPAC_INCHIKEY>
UTEKSPGIYDUAMB-UHFFFAOYSA-N

> <PUBCHEM_XLOGP3_AA>
3.5

> <PUBCHEM_EXACT_MASS>
456.17189317

> <PUBCHEM_MOLECULAR_FORMULA>
C24H28N2O5S

> <PUBCHEM_MOLECULAR_WEIGHT>
456.6

> <PUBCHEM_OPENEYE_CAN_SMILES>
CCN(CC1=CC2=C(C=C1)OCO2)CC3=CC=C(N3)C4=C(C=CC(=C4)S(=O)(=O)CC)OC

> <PUBCHEM_OPENEYE_ISO_SMILES>
CCN(CC1=CC2=C(C=C1)OCO2)CC3=CC=C(N3)C4=C(C=CC(=C4)S(=O)(=O)CC)OC

> <PUBCHEM_CACTVS_TPSA>
89.2

> <PUBCHEM_MONOISOTOPIC_WEIGHT>
456.17189317

> <PUBCHEM_TOTAL_CHARGE>
0

> <PUBCHEM_HEAVY_ATOM_COUNT>
32

> <PUBCHEM_ATOM_DEF_STEREO_COUNT>
0

> <PUBCHEM_ATOM_UDEF_STEREO_COUNT>
0

> <PUBCHEM_BOND_DEF_STEREO_COUNT>
0

> <PUBCHEM_BOND_UDEF_STEREO_COUNT>
0

> <PUBCHEM_ISOTOPIC_ATOM_COUNT>
0

> <PUBCHEM_COMPONENT_COUNT>
1

> <PUBCHEM_CACTVS_TAUTO_COUNT>
-1

> <PUBCHEM_COORDINATE_TYPE>
1
5
255

> <PUBCHEM_BONDANNOTATIONS>
11  16  8
13  17  8
14  22  8
14  23  8
15  19  8
15  21  8
16  17  8
18  19  8
18  25  8
21  28  8
22  24  8
23  29  8
24  27  8
25  28  8
27  29  8
8  11  8
8  13  8

$$$$
