163639561
  -OEChem-09292322442D

 55 57  0     1  0  0  0  0  0999 V2000
    2.0000   -4.6013    0.0000 F   0  0  0  0  0  0  0  0  0  0  0  0
    5.5443   -4.4061    0.0000 O   0  0  0  0  0  0  0  0  0  0  0  0
    9.7225    1.6241    0.0000 O   0  0  0  0  0  0  0  0  0  0  0  0
   10.3438    3.5252    0.0000 O   0  0  0  0  0  0  0  0  0  0  0  0
    6.4763    0.0550    0.0000 N   0  0  0  0  0  0  0  0  0  0  0  0
    8.0761    2.1622    0.0000 N   0  0  0  0  0  0  0  0  0  0  0  0
    6.1279   -3.6013    0.0000 N   0  0  0  0  0  0  0  0  0  0  0  0
    5.8550   -1.8461    0.0000 C   0  0  0  0  0  0  0  0  0  0  0  0
    5.1871   -1.1018    0.0000 C   0  0  0  0  0  0  0  0  0  0  0  0
    6.8335   -1.6399    0.0000 C   0  0  0  0  0  0  0  0  0  0  0  0
    5.4978   -0.1513    0.0000 C   0  0  0  0  0  0  0  0  0  0  0  0
    7.1441   -0.6893    0.0000 C   0  0  0  0  0  0  0  0  0  0  0  0
    6.7870    1.0055    0.0000 C   0  0  0  0  0  0  0  0  0  0  0  0
    5.5443   -2.7966    0.0000 C   0  0  0  0  0  0  0  0  0  0  0  0
    7.7654    1.2117    0.0000 C   0  0  0  0  0  0  0  0  0  0  0  0
    4.5981   -3.1013    0.0000 C   0  0  0  0  0  0  0  0  0  0  0  0
    4.5981   -4.1013    0.0000 C   0  0  0  0  0  0  0  0  0  0  0  0
    7.4083    2.9065    0.0000 C   0  0  0  0  0  0  0  0  0  0  0  0
    3.7320   -2.6013    0.0000 C   0  0  0  0  0  0  0  0  0  0  0  0
    9.0546    2.3684    0.0000 C   0  0  0  0  0  0  0  0  0  0  0  0
    7.7189    3.8570    0.0000 C   0  0  0  0  0  0  0  0  0  0  0  0
    3.7320   -4.6013    0.0000 C   0  0  0  0  0  0  0  0  0  0  0  0
    9.3653    3.3190    0.0000 C   0  0  3  0  0  0  0  0  0  0  0  0
    2.8660   -3.1013    0.0000 C   0  0  0  0  0  0  0  0  0  0  0  0
    2.8660   -4.1013    0.0000 C   0  0  0  0  0  0  0  0  0  0  0  0
    7.0511    4.6013    0.0000 C   0  0  0  0  0  0  0  0  0  0  0  0
    8.6974    4.0633    0.0000 C   0  0  0  0  0  0  0  0  0  0  0  0
    6.2690   -2.3076    0.0000 H   0  0  0  0  0  0  0  0  0  0  0  0
    4.6402   -0.8098    0.0000 H   0  0  0  0  0  0  0  0  0  0  0  0
    4.8046   -1.5897    0.0000 H   0  0  0  0  0  0  0  0  0  0  0  0
    6.8540   -2.2595    0.0000 H   0  0  0  0  0  0  0  0  0  0  0  0
    7.4473   -1.7272    0.0000 H   0  0  0  0  0  0  0  0  0  0  0  0
    5.4772    0.4684    0.0000 H   0  0  0  0  0  0  0  0  0  0  0  0
    4.8840   -0.0639    0.0000 H   0  0  0  0  0  0  0  0  0  0  0  0
    7.6910   -0.9814    0.0000 H   0  0  0  0  0  0  0  0  0  0  0  0
    7.5267   -0.2014    0.0000 H   0  0  0  0  0  0  0  0  0  0  0  0
    6.7664    1.6251    0.0000 H   0  0  0  0  0  0  0  0  0  0  0  0
    6.1731    1.0928    0.0000 H   0  0  0  0  0  0  0  0  0  0  0  0
    7.7860    0.5920    0.0000 H   0  0  0  0  0  0  0  0  0  0  0  0
    8.3793    1.1243    0.0000 H   0  0  0  0  0  0  0  0  0  0  0  0
    6.8614    3.1985    0.0000 H   0  0  0  0  0  0  0  0  0  0  0  0
    7.0257    2.4186    0.0000 H   0  0  0  0  0  0  0  0  0  0  0  0
    3.7320   -1.9813    0.0000 H   0  0  0  0  0  0  0  0  0  0  0  0
    8.2658    3.5650    0.0000 H   0  0  0  0  0  0  0  0  0  0  0  0
    8.1015    4.3449    0.0000 H   0  0  0  0  0  0  0  0  0  0  0  0
    3.7320   -5.2213    0.0000 H   0  0  0  0  0  0  0  0  0  0  0  0
    9.7794    2.8575    0.0000 H   0  0  0  0  0  0  0  0  0  0  0  0
    2.3291   -2.7913    0.0000 H   0  0  0  0  0  0  0  0  0  0  0  0
    7.5126    5.0154    0.0000 H   0  0  0  0  0  0  0  0  0  0  0  0
    6.6370    5.0628    0.0000 H   0  0  0  0  0  0  0  0  0  0  0  0
    6.5896    4.1873    0.0000 H   0  0  0  0  0  0  0  0  0  0  0  0
    9.1589    4.4773    0.0000 H   0  0  0  0  0  0  0  0  0  0  0  0
    8.2834    4.5247    0.0000 H   0  0  0  0  0  0  0  0  0  0  0  0
    8.2360    3.6492    0.0000 H   0  0  0  0  0  0  0  0  0  0  0  0
   10.5364    4.1145    0.0000 H   0  0  0  0  0  0  0  0  0  0  0  0
  1 25  1  0  0  0  0
  2  7  1  0  0  0  0
  2 17  1  0  0  0  0
  3 20  2  0  0  0  0
  4 23  1  0  0  0  0
  4 55  1  0  0  0  0
  5 11  1  0  0  0  0
  5 12  1  0  0  0  0
  5 13  1  0  0  0  0
  6 15  1  0  0  0  0
  6 18  1  0  0  0  0
  6 20  1  0  0  0  0
  7 14  2  0  0  0  0
  8  9  1  0  0  0  0
  8 10  1  0  0  0  0
  8 14  1  0  0  0  0
  8 28  1  0  0  0  0
  9 11  1  0  0  0  0
  9 29  1  0  0  0  0
  9 30  1  0  0  0  0
 10 12  1  0  0  0  0
 10 31  1  0  0  0  0
 10 32  1  0  0  0  0
 11 33  1  0  0  0  0
 11 34  1  0  0  0  0
 12 35  1  0  0  0  0
 12 36  1  0  0  0  0
 13 15  1  0  0  0  0
 13 37  1  0  0  0  0
 13 38  1  0  0  0  0
 14 16  1  0  0  0  0
 15 39  1  0  0  0  0
 15 40  1  0  0  0  0
 16 17  2  0  0  0  0
 16 19  1  0  0  0  0
 17 22  1  0  0  0  0
 18 21  1  0  0  0  0
 18 41  1  0  0  0  0
 18 42  1  0  0  0  0
 19 24  2  0  0  0  0
 19 43  1  0  0  0  0
 20 23  1  0  0  0  0
 21 26  1  0  0  0  0
 21 44  1  0  0  0  0
 21 45  1  0  0  0  0
 22 25  2  0  0  0  0
 22 46  1  0  0  0  0
 23 27  1  0  0  0  0
 23 47  1  0  0  0  0
 24 25  1  0  0  0  0
 24 48  1  0  0  0  0
 26 49  1  0  0  0  0
 26 50  1  0  0  0  0
 26 51  1  0  0  0  0
 27 52  1  0  0  0  0
 27 53  1  0  0  0  0
 27 54  1  0  0  0  0
M  END
> <PUBCHEM_COMPOUND_CID>
163639561

> <PUBCHEM_COMPOUND_CANONICALIZED>
1

> <PUBCHEM_CACTVS_COMPLEXITY>
487

> <PUBCHEM_CACTVS_HBOND_ACCEPTOR>
6

> <PUBCHEM_CACTVS_HBOND_DONOR>
1

> <PUBCHEM_CACTVS_ROTATABLE_BOND>
7

> <PUBCHEM_CACTVS_SUBSKEYS>
AAADceB7MQAAAAAAAAAAAAAAAAAAAWAAAAA8QAAAAAAAAFgB8AAAHwAECAAADRzhng4yhtMQAgCpA6VyUgKCAAAkIAAomCF+TNoKdrqAlZOUMYBmxhmYyceYyOCOAAAAAAAIAAAAAAAAABAAAAAAAAAAAA==

> <PUBCHEM_IUPAC_OPENEYE_NAME>
N-[2-[4-(6-fluoro-1,2-benzoxazol-3-yl)-1-piperidyl]ethyl]-2-hydroxy-N-propyl-propanamide

> <PUBCHEM_IUPAC_CAS_NAME>
N-[2-[4-(6-fluoro-1,2-benzoxazol-3-yl)-1-piperidinyl]ethyl]-2-hydroxy-N-propylpropanamide

> <PUBCHEM_IUPAC_NAME_MARKUP>
<I>N</I>-[2-[4-(6-fluoro-1,2-benzoxazol-3-yl)piperidin-1-yl]ethyl]-2-hydroxy-<I>N</I>-propylpropanamide

> <PUBCHEM_IUPAC_NAME>
N-[2-[4-(6-fluoro-1,2-benzoxazol-3-yl)piperidin-1-yl]ethyl]-2-hydroxy-N-propylpropanamide

> <PUBCHEM_IUPAC_SYSTEMATIC_NAME>
N-[2-[4-(6-fluoranyl-1,2-benzoxazol-3-yl)piperidin-1-yl]ethyl]-2-oxidanyl-N-propyl-propanamide

> <PUBCHEM_IUPAC_TRADITIONAL_NAME>
N-[2-[4-(6-fluoroindoxazen-3-yl)piperidino]ethyl]-2-hydroxy-N-propyl-propionamide

> <PUBCHEM_IUPAC_INCHI>
InChI=1S/C20H28FN3O3/c1-3-8-24(20(26)14(2)25)12-11-23-9-6-15(7-10-23)19-17-5-4-16(21)13-18(17)27-22-19/h4-5,13-15,25H,3,6-12H2,1-2H3

> <PUBCHEM_IUPAC_INCHIKEY>
IDBDRTSGQKZOSY-UHFFFAOYSA-N

> <PUBCHEM_XLOGP3_AA>
2.6

> <PUBCHEM_EXACT_MASS>
377.21146993

> <PUBCHEM_MOLECULAR_FORMULA>
C20H28FN3O3

> <PUBCHEM_MOLECULAR_WEIGHT>
377.5

> <PUBCHEM_OPENEYE_CAN_SMILES>
CCCN(CCN1CCC(CC1)C2=NOC3=C2C=CC(=C3)F)C(=O)C(C)O

> <PUBCHEM_OPENEYE_ISO_SMILES>
CCCN(CCN1CCC(CC1)C2=NOC3=C2C=CC(=C3)F)C(=O)C(C)O

> <PUBCHEM_CACTVS_TPSA>
69.8

> <PUBCHEM_MONOISOTOPIC_WEIGHT>
377.21146993

> <PUBCHEM_TOTAL_CHARGE>
0

> <PUBCHEM_HEAVY_ATOM_COUNT>
27

> <PUBCHEM_ATOM_DEF_STEREO_COUNT>
0

> <PUBCHEM_ATOM_UDEF_STEREO_COUNT>
1

> <PUBCHEM_BOND_DEF_STEREO_COUNT>
0

> <PUBCHEM_BOND_UDEF_STEREO_COUNT>
0

> <PUBCHEM_ISOTOPIC_ATOM_COUNT>
0

> <PUBCHEM_COMPONENT_COUNT>
1

> <PUBCHEM_CACTVS_TAUTO_COUNT>
-1

> <PUBCHEM_COORDINATE_TYPE>
1
5
255

> <PUBCHEM_BONDANNOTATIONS>
14  16  8
16  17  8
16  19  8
17  22  8
19  24  8
2  17  8
2  7  8
22  25  8
24  25  8
23  4  3
7  14  8

$$$$
