11518499
  -OEChem-09292322482D

 65 69  0     0  0  0  0  0  0999 V2000
    6.4103   -6.3024    0.0000 O   0  0  0  0  0  0  0  0  0  0  0  0
    2.8660   -4.4977    0.0000 O   0  0  0  0  0  0  0  0  0  0  0  0
   11.8777    0.8845    0.0000 O   0  0  0  0  0  0  0  0  0  0  0  0
    7.3423   -1.8414    0.0000 N   0  0  0  0  0  0  0  0  0  0  0  0
    6.7210   -3.7425    0.0000 N   0  0  0  0  0  0  0  0  0  0  0  0
    6.9939   -5.4977    0.0000 N   0  0  0  0  0  0  0  0  0  0  0  0
   10.2313    1.4226    0.0000 N   0  0  0  0  0  0  0  0  0  0  0  0
   10.4955    5.0184    0.0000 N   0  0  0  0  0  0  0  0  0  0  0  0
    9.8399    6.4977    0.0000 N   0  0  0  0  0  0  0  0  0  0  0  0
    6.3638   -2.0476    0.0000 C   0  0  0  0  0  0  0  0  0  0  0  0
    8.0102   -2.5857    0.0000 C   0  0  0  0  0  0  0  0  0  0  0  0
    6.0531   -2.9982    0.0000 C   0  0  0  0  0  0  0  0  0  0  0  0
    7.6995   -3.5362    0.0000 C   0  0  0  0  0  0  0  0  0  0  0  0
    7.6530   -0.8909    0.0000 C   0  0  0  0  0  0  0  0  0  0  0  0
    8.6315   -0.6847    0.0000 C   0  0  0  0  0  0  0  0  0  0  0  0
    6.4103   -4.6930    0.0000 C   0  0  0  0  0  0  0  0  0  0  0  0
    8.9421    0.2658    0.0000 C   0  0  0  0  0  0  0  0  0  0  0  0
    5.4641   -4.9977    0.0000 C   0  0  0  0  0  0  0  0  0  0  0  0
    9.9206    0.4721    0.0000 C   0  0  0  0  0  0  0  0  0  0  0  0
    5.4641   -5.9977    0.0000 C   0  0  0  0  0  0  0  0  0  0  0  0
    4.5981   -4.4977    0.0000 C   0  0  0  0  0  0  0  0  0  0  0  0
    4.5981   -6.4977    0.0000 C   0  0  0  0  0  0  0  0  0  0  0  0
    3.7320   -4.9977    0.0000 C   0  0  0  0  0  0  0  0  0  0  0  0
    3.7320   -5.9977    0.0000 C   0  0  0  0  0  0  0  0  0  0  0  0
   11.2098    1.6288    0.0000 C   0  0  0  0  0  0  0  0  0  0  0  0
   11.5205    2.5793    0.0000 C   0  0  0  0  0  0  0  0  0  0  0  0
   10.8526    3.3236    0.0000 C   0  0  0  0  0  0  0  0  0  0  0  0
   12.4990    2.7855    0.0000 C   0  0  0  0  0  0  0  0  0  0  0  0
   11.1633    4.2741    0.0000 C   0  0  0  0  0  0  0  0  0  0  0  0
    2.0000   -4.9977    0.0000 C   0  0  0  0  0  0  0  0  0  0  0  0
   12.8096    3.7360    0.0000 C   0  0  0  0  0  0  0  0  0  0  0  0
   12.1418    4.4803    0.0000 C   0  0  0  0  0  0  0  0  0  0  0  0
    9.5008    4.9156    0.0000 C   0  0  0  0  0  0  0  0  0  0  0  0
   10.7051    5.9962    0.0000 C   0  0  0  0  0  0  0  0  0  0  0  0
    9.0956    5.8299    0.0000 C   0  0  0  0  0  0  0  0  0  0  0  0
    6.3432   -1.4280    0.0000 H   0  0  0  0  0  0  0  0  0  0  0  0
    5.7500   -1.9603    0.0000 H   0  0  0  0  0  0  0  0  0  0  0  0
    8.5571   -2.8777    0.0000 H   0  0  0  0  0  0  0  0  0  0  0  0
    8.3927   -2.0978    0.0000 H   0  0  0  0  0  0  0  0  0  0  0  0
    5.5062   -2.7062    0.0000 H   0  0  0  0  0  0  0  0  0  0  0  0
    5.6706   -3.4861    0.0000 H   0  0  0  0  0  0  0  0  0  0  0  0
    7.7201   -4.1559    0.0000 H   0  0  0  0  0  0  0  0  0  0  0  0
    8.3133   -3.6236    0.0000 H   0  0  0  0  0  0  0  0  0  0  0  0
    7.6324   -0.2712    0.0000 H   0  0  0  0  0  0  0  0  0  0  0  0
    7.0392   -0.8036    0.0000 H   0  0  0  0  0  0  0  0  0  0  0  0
    8.6520   -1.3043    0.0000 H   0  0  0  0  0  0  0  0  0  0  0  0
    9.2453   -0.7720    0.0000 H   0  0  0  0  0  0  0  0  0  0  0  0
    8.9216    0.8855    0.0000 H   0  0  0  0  0  0  0  0  0  0  0  0
    8.3283    0.3532    0.0000 H   0  0  0  0  0  0  0  0  0  0  0  0
    9.9412   -0.1476    0.0000 H   0  0  0  0  0  0  0  0  0  0  0  0
   10.5345    0.3847    0.0000 H   0  0  0  0  0  0  0  0  0  0  0  0
    4.5981   -3.8777    0.0000 H   0  0  0  0  0  0  0  0  0  0  0  0
    9.8172    1.8840    0.0000 H   0  0  0  0  0  0  0  0  0  0  0  0
    4.5981   -7.1177    0.0000 H   0  0  0  0  0  0  0  0  0  0  0  0
    3.1951   -6.3077    0.0000 H   0  0  0  0  0  0  0  0  0  0  0  0
   10.2460    3.1958    0.0000 H   0  0  0  0  0  0  0  0  0  0  0  0
   12.9130    2.3241    0.0000 H   0  0  0  0  0  0  0  0  0  0  0  0
    1.6900   -4.4608    0.0000 H   0  0  0  0  0  0  0  0  0  0  0  0
    1.4631   -5.3077    0.0000 H   0  0  0  0  0  0  0  0  0  0  0  0
    2.3100   -5.5347    0.0000 H   0  0  0  0  0  0  0  0  0  0  0  0
   13.4163    3.8639    0.0000 H   0  0  0  0  0  0  0  0  0  0  0  0
   12.3344    5.0697    0.0000 H   0  0  0  0  0  0  0  0  0  0  0  0
    9.1898    4.3792    0.0000 H   0  0  0  0  0  0  0  0  0  0  0  0
   11.2719    6.2474    0.0000 H   0  0  0  0  0  0  0  0  0  0  0  0
    8.4894    5.9598    0.0000 H   0  0  0  0  0  0  0  0  0  0  0  0
  1  6  1  0  0  0  0
  1 20  1  0  0  0  0
  2 23  1  0  0  0  0
  2 30  1  0  0  0  0
  3 25  2  0  0  0  0
  4 10  1  0  0  0  0
  4 11  1  0  0  0  0
  4 14  1  0  0  0  0
  5 12  1  0  0  0  0
  5 13  1  0  0  0  0
  5 16  1  0  0  0  0
  6 16  2  0  0  0  0
  7 19  1  0  0  0  0
  7 25  1  0  0  0  0
  7 53  1  0  0  0  0
  8 29  1  0  0  0  0
  8 33  1  0  0  0  0
  8 34  1  0  0  0  0
  9 34  2  0  0  0  0
  9 35  1  0  0  0  0
 10 12  1  0  0  0  0
 10 36  1  0  0  0  0
 10 37  1  0  0  0  0
 11 13  1  0  0  0  0
 11 38  1  0  0  0  0
 11 39  1  0  0  0  0
 12 40  1  0  0  0  0
 12 41  1  0  0  0  0
 13 42  1  0  0  0  0
 13 43  1  0  0  0  0
 14 15  1  0  0  0  0
 14 44  1  0  0  0  0
 14 45  1  0  0  0  0
 15 17  1  0  0  0  0
 15 46  1  0  0  0  0
 15 47  1  0  0  0  0
 16 18  1  0  0  0  0
 17 19  1  0  0  0  0
 17 48  1  0  0  0  0
 17 49  1  0  0  0  0
 18 20  2  0  0  0  0
 18 21  1  0  0  0  0
 19 50  1  0  0  0  0
 19 51  1  0  0  0  0
 20 22  1  0  0  0  0
 21 23  2  0  0  0  0
 21 52  1  0  0  0  0
 22 24  2  0  0  0  0
 22 54  1  0  0  0  0
 23 24  1  0  0  0  0
 24 55  1  0  0  0  0
 25 26  1  0  0  0  0
 26 27  2  0  0  0  0
 26 28  1  0  0  0  0
 27 29  1  0  0  0  0
 27 56  1  0  0  0  0
 28 31  2  0  0  0  0
 28 57  1  0  0  0  0
 29 32  2  0  0  0  0
 30 58  1  0  0  0  0
 30 59  1  0  0  0  0
 30 60  1  0  0  0  0
 31 32  1  0  0  0  0
 31 61  1  0  0  0  0
 32 62  1  0  0  0  0
 33 35  2  0  0  0  0
 33 63  1  0  0  0  0
 34 64  1  0  0  0  0
 35 65  1  0  0  0  0
M  END
> <PUBCHEM_COMPOUND_CID>
11518499

> <PUBCHEM_COMPOUND_CANONICALIZED>
1

> <PUBCHEM_CACTVS_COMPLEXITY>
676

> <PUBCHEM_CACTVS_HBOND_ACCEPTOR>
7

> <PUBCHEM_CACTVS_HBOND_DONOR>
1

> <PUBCHEM_CACTVS_ROTATABLE_BOND>
9

> <PUBCHEM_CACTVS_SUBSKEYS>
AAADceB7sAAAAAAAAAAAAAAAAAAAAWLAAAA8YIAAAAAAAFgB/AAAHgAUAAAADAzBmgY/9tfcFACpArd3dgCCiC01MqAp2KE+fNqMbvrEvZuUMahu1hvI6ef+yDCOAQABQAAIAAACAAKAABAAAAAAAAAAAA==

> <PUBCHEM_IUPAC_OPENEYE_NAME>
3-imidazol-1-yl-N-[4-[4-(5-methoxy-1,2-benzoxazol-3-yl)piperazin-1-yl]butyl]benzamide

> <PUBCHEM_IUPAC_CAS_NAME>
3-(1-imidazolyl)-N-[4-[4-(5-methoxy-1,2-benzoxazol-3-yl)-1-piperazinyl]butyl]benzamide

> <PUBCHEM_IUPAC_NAME_MARKUP>
3-imidazol-1-yl-<I>N</I>-[4-[4-(5-methoxy-1,2-benzoxazol-3-yl)piperazin-1-yl]butyl]benzamide

> <PUBCHEM_IUPAC_NAME>
3-imidazol-1-yl-N-[4-[4-(5-methoxy-1,2-benzoxazol-3-yl)piperazin-1-yl]butyl]benzamide

> <PUBCHEM_IUPAC_SYSTEMATIC_NAME>
3-imidazol-1-yl-N-[4-[4-(5-methoxy-1,2-benzoxazol-3-yl)piperazin-1-yl]butyl]benzamide

> <PUBCHEM_IUPAC_TRADITIONAL_NAME>
3-imidazol-1-yl-N-[4-[4-(5-methoxyindoxazen-3-yl)piperazino]butyl]benzamide

> <PUBCHEM_IUPAC_INCHI>
InChI=1S/C26H30N6O3/c1-34-22-7-8-24-23(18-22)25(29-35-24)31-15-13-30(14-16-31)11-3-2-9-28-26(33)20-5-4-6-21(17-20)32-12-10-27-19-32/h4-8,10,12,17-19H,2-3,9,11,13-16H2,1H3,(H,28,33)

> <PUBCHEM_IUPAC_INCHIKEY>
YSIFTTPUSXNYII-UHFFFAOYSA-N

> <PUBCHEM_XLOGP3_AA>
3.4

> <PUBCHEM_EXACT_MASS>
474.23793884

> <PUBCHEM_MOLECULAR_FORMULA>
C26H30N6O3

> <PUBCHEM_MOLECULAR_WEIGHT>
474.6

> <PUBCHEM_OPENEYE_CAN_SMILES>
COC1=CC2=C(C=C1)ON=C2N3CCN(CC3)CCCCNC(=O)C4=CC(=CC=C4)N5C=CN=C5

> <PUBCHEM_OPENEYE_ISO_SMILES>
COC1=CC2=C(C=C1)ON=C2N3CCN(CC3)CCCCNC(=O)C4=CC(=CC=C4)N5C=CN=C5

> <PUBCHEM_CACTVS_TPSA>
88.7

> <PUBCHEM_MONOISOTOPIC_WEIGHT>
474.23793884

> <PUBCHEM_TOTAL_CHARGE>
0

> <PUBCHEM_HEAVY_ATOM_COUNT>
35

> <PUBCHEM_ATOM_DEF_STEREO_COUNT>
0

> <PUBCHEM_ATOM_UDEF_STEREO_COUNT>
0

> <PUBCHEM_BOND_DEF_STEREO_COUNT>
0

> <PUBCHEM_BOND_UDEF_STEREO_COUNT>
0

> <PUBCHEM_ISOTOPIC_ATOM_COUNT>
0

> <PUBCHEM_COMPONENT_COUNT>
1

> <PUBCHEM_CACTVS_TAUTO_COUNT>
-1

> <PUBCHEM_COORDINATE_TYPE>
1
5
255

> <PUBCHEM_BONDANNOTATIONS>
1  20  8
1  6  8
16  18  8
18  20  8
18  21  8
20  22  8
21  23  8
22  24  8
23  24  8
26  27  8
26  28  8
27  29  8
28  31  8
29  32  8
31  32  8
33  35  8
6  16  8
8  33  8
8  34  8
9  34  8
9  35  8

$$$$
