44415825
  -OEChem-09292322482D

 66 71  0     0  0  0  0  0  0999 V2000
    8.7204   -0.5970    0.0000 Cl  0  0  0  0  0  0  0  0  0  0  0  0
    4.0169   -4.4240    0.0000 Cl  0  0  0  0  0  0  0  0  0  0  0  0
    4.6419    3.7211    0.0000 F   0  0  0  0  0  0  0  0  0  0  0  0
    6.6150   -2.9240    0.0000 O   0  0  0  0  0  0  0  0  0  0  0  0
    3.0814    2.9696    0.0000 N   0  0  0  0  0  0  0  0  0  0  0  0
    3.9491    1.1676    0.0000 N   0  0  0  0  0  0  0  0  0  0  0  0
    5.3830    0.2667    0.0000 N   0  0  0  0  0  0  0  0  0  0  0  0
    4.8830   -1.9240    0.0000 N   0  0  0  0  0  0  0  0  0  0  0  0
    4.8830   -2.9240    0.0000 N   0  0  0  0  0  0  0  0  0  0  0  0
    4.0786    2.8948    0.0000 C   0  0  0  0  0  0  0  0  0  0  0  0
    2.5180    2.1433    0.0000 C   0  0  0  0  0  0  0  0  0  0  0  0
    4.5125    1.9939    0.0000 C   0  0  0  0  0  0  0  0  0  0  0  0
    2.9519    1.2424    0.0000 C   0  0  0  0  0  0  0  0  0  0  0  0
    2.6475    3.8706    0.0000 C   0  0  0  0  0  0  0  0  0  0  0  0
    4.3830    0.2667    0.0000 C   0  0  0  0  0  0  0  0  0  0  0  0
    3.7595   -0.5152    0.0000 C   0  0  0  0  0  0  0  0  0  0  0  0
    3.2108    4.6968    0.0000 C   0  0  0  0  0  0  0  0  0  0  0  0
    3.9820   -1.4901    0.0000 C   0  0  0  0  0  0  0  0  0  0  0  0
    6.0065   -0.5152    0.0000 C   0  0  0  0  0  0  0  0  0  0  0  0
    5.7840   -1.4901    0.0000 C   0  0  0  0  0  0  0  0  0  0  0  0
    2.7690   -0.1928    0.0000 C   0  0  0  0  0  0  0  0  0  0  0  0
    4.2080    4.6220    0.0000 C   0  0  0  0  0  0  0  0  0  0  0  0
    2.7769    5.5978    0.0000 C   0  0  0  0  0  0  0  0  0  0  0  0
    3.2295   -2.2103    0.0000 C   0  0  0  0  0  0  0  0  0  0  0  0
    2.0000   -0.8954    0.0000 C   0  0  0  0  0  0  0  0  0  0  0  0
    2.2318   -1.9109    0.0000 C   0  0  0  0  0  0  0  0  0  0  0  0
    6.9970   -0.1929    0.0000 C   0  0  0  0  0  0  0  0  0  0  0  0
    6.5365   -2.2103    0.0000 C   0  0  0  0  0  0  0  0  0  0  0  0
    4.7714    5.4483    0.0000 C   0  0  0  0  0  0  0  0  0  0  0  0
    3.3403    6.4240    0.0000 C   0  0  0  0  0  0  0  0  0  0  0  0
    7.7660   -0.8954    0.0000 C   0  0  0  0  0  0  0  0  0  0  0  0
    7.5342   -1.9110    0.0000 C   0  0  0  0  0  0  0  0  0  0  0  0
    4.3375    6.3492    0.0000 C   0  0  0  0  0  0  0  0  0  0  0  0
    5.7490   -3.4240    0.0000 C   0  0  0  0  0  0  0  0  0  0  0  0
    5.7490   -4.4240    0.0000 C   0  0  0  0  0  0  0  0  0  0  0  0
    4.8830   -4.9240    0.0000 C   0  0  0  0  0  0  0  0  0  0  0  0
    6.6150   -4.9240    0.0000 C   0  0  0  0  0  0  0  0  0  0  0  0
    4.8830   -5.9240    0.0000 C   0  0  0  0  0  0  0  0  0  0  0  0
    6.6150   -5.9240    0.0000 C   0  0  0  0  0  0  0  0  0  0  0  0
    5.7490   -6.4240    0.0000 C   0  0  0  0  0  0  0  0  0  0  0  0
    4.6754    3.0628    0.0000 H   0  0  0  0  0  0  0  0  0  0  0  0
    4.0168    3.5118    0.0000 H   0  0  0  0  0  0  0  0  0  0  0  0
    2.0742    2.5762    0.0000 H   0  0  0  0  0  0  0  0  0  0  0  0
    2.0146    1.7814    0.0000 H   0  0  0  0  0  0  0  0  0  0  0  0
    4.9563    1.5610    0.0000 H   0  0  0  0  0  0  0  0  0  0  0  0
    5.0159    2.3558    0.0000 H   0  0  0  0  0  0  0  0  0  0  0  0
    2.3551    1.0744    0.0000 H   0  0  0  0  0  0  0  0  0  0  0  0
    3.0137    0.6255    0.0000 H   0  0  0  0  0  0  0  0  0  0  0  0
    2.2037    4.3035    0.0000 H   0  0  0  0  0  0  0  0  0  0  0  0
    2.1441    3.5086    0.0000 H   0  0  0  0  0  0  0  0  0  0  0  0
    2.6380    0.4132    0.0000 H   0  0  0  0  0  0  0  0  0  0  0  0
    3.3744   -2.8131    0.0000 H   0  0  0  0  0  0  0  0  0  0  0  0
    2.1587    5.6441    0.0000 H   0  0  0  0  0  0  0  0  0  0  0  0
    1.4083   -0.7104    0.0000 H   0  0  0  0  0  0  0  0  0  0  0  0
    7.1280    0.4132    0.0000 H   0  0  0  0  0  0  0  0  0  0  0  0
    1.7789   -2.3344    0.0000 H   0  0  0  0  0  0  0  0  0  0  0  0
    6.3916   -2.8131    0.0000 H   0  0  0  0  0  0  0  0  0  0  0  0
    4.3460   -3.2340    0.0000 H   0  0  0  0  0  0  0  0  0  0  0  0
    5.3896    5.4019    0.0000 H   0  0  0  0  0  0  0  0  0  0  0  0
    3.0713    6.9826    0.0000 H   0  0  0  0  0  0  0  0  0  0  0  0
    7.9871   -2.3344    0.0000 H   0  0  0  0  0  0  0  0  0  0  0  0
    4.6867    6.8615    0.0000 H   0  0  0  0  0  0  0  0  0  0  0  0
    7.1520   -4.6140    0.0000 H   0  0  0  0  0  0  0  0  0  0  0  0
    4.3460   -6.2340    0.0000 H   0  0  0  0  0  0  0  0  0  0  0  0
    7.1520   -6.2340    0.0000 H   0  0  0  0  0  0  0  0  0  0  0  0
    5.7490   -7.0440    0.0000 H   0  0  0  0  0  0  0  0  0  0  0  0
  1 31  1  0  0  0  0
  2 36  1  0  0  0  0
  3 22  1  0  0  0  0
  4 34  2  0  0  0  0
  5 10  1  0  0  0  0
  5 11  1  0  0  0  0
  5 14  1  0  0  0  0
  6 12  1  0  0  0  0
  6 13  1  0  0  0  0
  6 15  1  0  0  0  0
  7 15  2  0  0  0  0
  7 19  1  0  0  0  0
  8  9  1  0  0  0  0
  8 18  1  0  0  0  0
  8 20  1  0  0  0  0
  9 34  1  0  0  0  0
  9 58  1  0  0  0  0
 10 12  1  0  0  0  0
 10 41  1  0  0  0  0
 10 42  1  0  0  0  0
 11 13  1  0  0  0  0
 11 43  1  0  0  0  0
 11 44  1  0  0  0  0
 12 45  1  0  0  0  0
 12 46  1  0  0  0  0
 13 47  1  0  0  0  0
 13 48  1  0  0  0  0
 14 17  1  0  0  0  0
 14 49  1  0  0  0  0
 14 50  1  0  0  0  0
 15 16  1  0  0  0  0
 16 18  1  0  0  0  0
 16 21  2  0  0  0  0
 17 22  1  0  0  0  0
 17 23  2  0  0  0  0
 18 24  2  0  0  0  0
 19 20  2  0  0  0  0
 19 27  1  0  0  0  0
 20 28  1  0  0  0  0
 21 25  1  0  0  0  0
 21 51  1  0  0  0  0
 22 29  2  0  0  0  0
 23 30  1  0  0  0  0
 23 53  1  0  0  0  0
 24 26  1  0  0  0  0
 24 52  1  0  0  0  0
 25 26  2  0  0  0  0
 25 54  1  0  0  0  0
 26 56  1  0  0  0  0
 27 31  2  0  0  0  0
 27 55  1  0  0  0  0
 28 32  2  0  0  0  0
 28 57  1  0  0  0  0
 29 33  1  0  0  0  0
 29 59  1  0  0  0  0
 30 33  2  0  0  0  0
 30 60  1  0  0  0  0
 31 32  1  0  0  0  0
 32 61  1  0  0  0  0
 33 62  1  0  0  0  0
 34 35  1  0  0  0  0
 35 36  1  0  0  0  0
 35 37  2  0  0  0  0
 36 38  2  0  0  0  0
 37 39  1  0  0  0  0
 37 63  1  0  0  0  0
 38 40  1  0  0  0  0
 38 64  1  0  0  0  0
 39 40  2  0  0  0  0
 39 65  1  0  0  0  0
 40 66  1  0  0  0  0
M  END
> <PUBCHEM_COMPOUND_CID>
44415825

> <PUBCHEM_COMPOUND_CANONICALIZED>
1

> <PUBCHEM_CACTVS_COMPLEXITY>
901

> <PUBCHEM_CACTVS_HBOND_ACCEPTOR>
5

> <PUBCHEM_CACTVS_HBOND_DONOR>
1

> <PUBCHEM_CACTVS_ROTATABLE_BOND>
5

> <PUBCHEM_CACTVS_SUBSKEYS>
AAADceB7oQAGAAAAAAAAAAAAAAAAAAAAAAA8YMGCBAAAAAABVAAAHwIYAAAADArBmCwxwINiAACoAidydACCBAElBwAbqAEodtgIYPLB35GUIQhggADIzYcYiACOAABAAAIDACAAAIAABAYAQAAAAAAAAA==

> <PUBCHEM_IUPAC_OPENEYE_NAME>
2-chloro-N-[3-chloro-6-[4-[(2-fluorophenyl)methyl]piperazin-1-yl]benzo[b][1,4]benzodiazepin-11-yl]benzamide

> <PUBCHEM_IUPAC_CAS_NAME>
2-chloro-N-[3-chloro-6-[4-[(2-fluorophenyl)methyl]-1-piperazinyl]-11-benzo[b][1,4]benzodiazepinyl]benzamide

> <PUBCHEM_IUPAC_NAME_MARKUP>
2-chloro-<I>N</I>-[3-chloro-6-[4-[(2-fluorophenyl)methyl]piperazin-1-yl]benzo[b][1,4]benzodiazepin-11-yl]benzamide

> <PUBCHEM_IUPAC_NAME>
2-chloro-N-[3-chloro-6-[4-[(2-fluorophenyl)methyl]piperazin-1-yl]benzo[b][1,4]benzodiazepin-11-yl]benzamide

> <PUBCHEM_IUPAC_SYSTEMATIC_NAME>
2-chloranyl-N-[3-chloranyl-6-[4-[(2-fluorophenyl)methyl]piperazin-1-yl]benzo[b][1,4]benzodiazepin-11-yl]benzamide

> <PUBCHEM_IUPAC_TRADITIONAL_NAME>
2-chloro-N-[3-chloro-6-[4-(2-fluorobenzyl)piperazino]benzo[b][1,4]benzodiazepin-11-yl]benzamide

> <PUBCHEM_IUPAC_INCHI>
InChI=1S/C31H26Cl2FN5O/c32-22-13-14-29-27(19-22)35-30(38-17-15-37(16-18-38)20-21-7-1-5-11-26(21)34)24-9-3-6-12-28(24)39(29)36-31(40)23-8-2-4-10-25(23)33/h1-14,19H,15-18,20H2,(H,36,40)

> <PUBCHEM_IUPAC_INCHIKEY>
ZNTONPVDCMBCJJ-UHFFFAOYSA-N

> <PUBCHEM_XLOGP3_AA>
6.6

> <PUBCHEM_EXACT_MASS>
573.1498440

> <PUBCHEM_MOLECULAR_FORMULA>
C31H26Cl2FN5O

> <PUBCHEM_MOLECULAR_WEIGHT>
574.5

> <PUBCHEM_OPENEYE_CAN_SMILES>
C1CN(CCN1CC2=CC=CC=C2F)C3=NC4=C(C=CC(=C4)Cl)N(C5=CC=CC=C53)NC(=O)C6=CC=CC=C6Cl

> <PUBCHEM_OPENEYE_ISO_SMILES>
C1CN(CCN1CC2=CC=CC=C2F)C3=NC4=C(C=CC(=C4)Cl)N(C5=CC=CC=C53)NC(=O)C6=CC=CC=C6Cl

> <PUBCHEM_CACTVS_TPSA>
51.2

> <PUBCHEM_MONOISOTOPIC_WEIGHT>
573.1498440

> <PUBCHEM_TOTAL_CHARGE>
0

> <PUBCHEM_HEAVY_ATOM_COUNT>
40

> <PUBCHEM_ATOM_DEF_STEREO_COUNT>
0

> <PUBCHEM_ATOM_UDEF_STEREO_COUNT>
0

> <PUBCHEM_BOND_DEF_STEREO_COUNT>
0

> <PUBCHEM_BOND_UDEF_STEREO_COUNT>
0

> <PUBCHEM_ISOTOPIC_ATOM_COUNT>
0

> <PUBCHEM_COMPONENT_COUNT>
1

> <PUBCHEM_CACTVS_TAUTO_COUNT>
-1

> <PUBCHEM_COORDINATE_TYPE>
1
5
255

> <PUBCHEM_BONDANNOTATIONS>
16  18  8
16  21  8
17  22  8
17  23  8
18  24  8
19  20  8
19  27  8
20  28  8
21  25  8
22  29  8
23  30  8
24  26  8
25  26  8
27  31  8
28  32  8
29  33  8
30  33  8
31  32  8
35  36  8
35  37  8
36  38  8
37  39  8
38  40  8
39  40  8

$$$$
