155523073
  -OEChem-09292322412D

 68 70  0     1  0  0  0  0  0999 V2000
    7.4985    0.0000    0.0000 Cl  0  0  0  0  0  0  0  0  0  0  0  0
    1.4030    7.5514    0.0000 F   0  0  0  0  0  0  0  0  0  0  0  0
    1.4030    3.5514    0.0000 O   0  0  0  0  0  0  0  0  0  0  0  0
   11.0632    3.5514    0.0000 O   0  0  0  0  0  0  0  0  0  0  0  0
    5.8671    4.5514    0.0000 N   0  0  3  0  0  0  0  0  0  0  0  0
   10.1972    5.0514    0.0000 N   0  0  0  0  0  0  0  0  0  0  0  0
    4.1350    4.5514    0.0000 C   0  0  3  0  0  0  0  0  0  0  0  0
    3.1350    4.5514    0.0000 C   0  0  3  0  0  0  0  0  0  0  0  0
    3.6350    3.6854    0.0000 C   0  0  0  0  0  0  0  0  0  0  0  0
    5.0010    5.0514    0.0000 C   0  0  0  0  0  0  0  0  0  0  0  0
    2.2690    5.0514    0.0000 C   0  0  0  0  0  0  0  0  0  0  0  0
    1.4030    4.5514    0.0000 C   0  0  0  0  0  0  0  0  0  0  0  0
    2.2690    6.0514    0.0000 C   0  0  0  0  0  0  0  0  0  0  0  0
    6.7331    5.0514    0.0000 C   0  0  0  0  0  0  0  0  0  0  0  0
    5.8671    3.5514    0.0000 C   0  0  0  0  0  0  0  0  0  0  0  0
    7.5991    4.5514    0.0000 C   0  0  0  0  0  0  0  0  0  0  0  0
    0.5369    5.0514    0.0000 C   0  0  0  0  0  0  0  0  0  0  0  0
    1.4030    6.5514    0.0000 C   0  0  0  0  0  0  0  0  0  0  0  0
    6.7331    3.0514    0.0000 C   0  0  0  0  0  0  0  0  0  0  0  0
    0.5369    6.0514    0.0000 C   0  0  0  0  0  0  0  0  0  0  0  0
    8.4651    5.0514    0.0000 C   0  0  0  0  0  0  0  0  0  0  0  0
    9.3312    4.5514    0.0000 C   0  0  0  0  0  0  0  0  0  0  0  0
    0.5369    3.0514    0.0000 C   0  0  0  0  0  0  0  0  0  0  0  0
   11.0632    4.5514    0.0000 C   0  0  0  0  0  0  0  0  0  0  0  0
   11.9292    5.0514    0.0000 C   0  0  0  0  0  0  0  0  0  0  0  0
   12.7953    4.5514    0.0000 C   0  0  0  0  0  0  0  0  0  0  0  0
   11.9292    6.0514    0.0000 C   0  0  0  0  0  0  0  0  0  0  0  0
   13.6613    5.0514    0.0000 C   0  0  0  0  0  0  0  0  0  0  0  0
   13.6613    6.0514    0.0000 C   0  0  0  0  0  0  0  0  0  0  0  0
   12.7953    6.5514    0.0000 C   0  0  0  0  0  0  0  0  0  0  0  0
   14.5552    4.5167    0.0000 C   0  0  0  0  0  0  0  0  0  0  0  0
   14.5552    6.5860    0.0000 C   0  0  0  0  0  0  0  0  0  0  0  0
   15.4613    5.0306    0.0000 C   0  0  0  0  0  0  0  0  0  0  0  0
   15.4613    6.0722    0.0000 C   0  0  0  0  0  0  0  0  0  0  0  0
    3.9745    5.1503    0.0000 H   0  0  0  0  0  0  0  0  0  0  0  0
    3.2955    5.1503    0.0000 H   0  0  0  0  0  0  0  0  0  0  0  0
    3.1601    3.2868    0.0000 H   0  0  0  0  0  0  0  0  0  0  0  0
    4.1100    3.2868    0.0000 H   0  0  0  0  0  0  0  0  0  0  0  0
    5.3996    5.5263    0.0000 H   0  0  0  0  0  0  0  0  0  0  0  0
    4.6025    5.5263    0.0000 H   0  0  0  0  0  0  0  0  0  0  0  0
    2.8059    6.3614    0.0000 H   0  0  0  0  0  0  0  0  0  0  0  0
    7.1316    5.5263    0.0000 H   0  0  0  0  0  0  0  0  0  0  0  0
    6.3346    5.5263    0.0000 H   0  0  0  0  0  0  0  0  0  0  0  0
    5.2565    3.6590    0.0000 H   0  0  0  0  0  0  0  0  0  0  0  0
    5.6550    2.9688    0.0000 H   0  0  0  0  0  0  0  0  0  0  0  0
    7.2006    4.0764    0.0000 H   0  0  0  0  0  0  0  0  0  0  0  0
    7.9976    4.0764    0.0000 H   0  0  0  0  0  0  0  0  0  0  0  0
    0.0000    4.7414    0.0000 H   0  0  0  0  0  0  0  0  0  0  0  0
    6.4231    2.5145    0.0000 H   0  0  0  0  0  0  0  0  0  0  0  0
    7.2700    2.7414    0.0000 H   0  0  0  0  0  0  0  0  0  0  0  0
    7.0431    3.5883    0.0000 H   0  0  0  0  0  0  0  0  0  0  0  0
    0.0000    6.3614    0.0000 H   0  0  0  0  0  0  0  0  0  0  0  0
    8.8637    5.5263    0.0000 H   0  0  0  0  0  0  0  0  0  0  0  0
    8.0666    5.5263    0.0000 H   0  0  0  0  0  0  0  0  0  0  0  0
    8.9326    4.0764    0.0000 H   0  0  0  0  0  0  0  0  0  0  0  0
    9.7297    4.0764    0.0000 H   0  0  0  0  0  0  0  0  0  0  0  0
    0.2269    3.5883    0.0000 H   0  0  0  0  0  0  0  0  0  0  0  0
    0.0000    2.7414    0.0000 H   0  0  0  0  0  0  0  0  0  0  0  0
    0.8469    2.5145    0.0000 H   0  0  0  0  0  0  0  0  0  0  0  0
   10.1972    5.6714    0.0000 H   0  0  0  0  0  0  0  0  0  0  0  0
   12.7953    3.9314    0.0000 H   0  0  0  0  0  0  0  0  0  0  0  0
   11.3923    6.3614    0.0000 H   0  0  0  0  0  0  0  0  0  0  0  0
   12.7953    7.1714    0.0000 H   0  0  0  0  0  0  0  0  0  0  0  0
   14.5481    3.8968    0.0000 H   0  0  0  0  0  0  0  0  0  0  0  0
   14.5481    7.2060    0.0000 H   0  0  0  0  0  0  0  0  0  0  0  0
   15.9970    4.7185    0.0000 H   0  0  0  0  0  0  0  0  0  0  0  0
   15.9970    6.3843    0.0000 H   0  0  0  0  0  0  0  0  0  0  0  0
    8.4985    0.0000    0.0000 H   0  0  0  0  0  0  0  0  0  0  0  0
  1 68  1  0  0  0  0
  2 18  1  0  0  0  0
  3 12  1  0  0  0  0
  3 23  1  0  0  0  0
  4 24  2  0  0  0  0
  5 10  1  0  0  0  0
  5 14  1  0  0  0  0
  5 15  1  0  0  0  0
  6 22  1  0  0  0  0
  6 24  1  0  0  0  0
  6 60  1  0  0  0  0
  7  8  1  0  0  0  0
  7  9  1  0  0  0  0
  7 10  1  0  0  0  0
  7 35  1  0  0  0  0
  8  9  1  0  0  0  0
  8 11  1  0  0  0  0
  8 36  1  0  0  0  0
  9 37  1  0  0  0  0
  9 38  1  0  0  0  0
 10 39  1  0  0  0  0
 10 40  1  0  0  0  0
 11 12  2  0  0  0  0
 11 13  1  0  0  0  0
 12 17  1  0  0  0  0
 13 18  2  0  0  0  0
 13 41  1  0  0  0  0
 14 16  1  0  0  0  0
 14 42  1  0  0  0  0
 14 43  1  0  0  0  0
 15 19  1  0  0  0  0
 15 44  1  0  0  0  0
 15 45  1  0  0  0  0
 16 21  1  0  0  0  0
 16 46  1  0  0  0  0
 16 47  1  0  0  0  0
 17 20  2  0  0  0  0
 17 48  1  0  0  0  0
 18 20  1  0  0  0  0
 19 49  1  0  0  0  0
 19 50  1  0  0  0  0
 19 51  1  0  0  0  0
 20 52  1  0  0  0  0
 21 22  1  0  0  0  0
 21 53  1  0  0  0  0
 21 54  1  0  0  0  0
 22 55  1  0  0  0  0
 22 56  1  0  0  0  0
 23 57  1  0  0  0  0
 23 58  1  0  0  0  0
 23 59  1  0  0  0  0
 24 25  1  0  0  0  0
 25 26  2  0  0  0  0
 25 27  1  0  0  0  0
 26 28  1  0  0  0  0
 26 61  1  0  0  0  0
 27 30  2  0  0  0  0
 27 62  1  0  0  0  0
 28 29  1  0  0  0  0
 28 31  2  0  0  0  0
 29 30  1  0  0  0  0
 29 32  2  0  0  0  0
 30 63  1  0  0  0  0
 31 33  1  0  0  0  0
 31 64  1  0  0  0  0
 32 34  1  0  0  0  0
 32 65  1  0  0  0  0
 33 34  2  0  0  0  0
 33 66  1  0  0  0  0
 34 67  1  0  0  0  0
M  END
> <PUBCHEM_COMPOUND_CID>
155523073

> <PUBCHEM_COMPOUND_CANONICALIZED>
1

> <PUBCHEM_CACTVS_COMPLEXITY>
617

> <PUBCHEM_CACTVS_HBOND_ACCEPTOR>
4

> <PUBCHEM_CACTVS_HBOND_DONOR>
2

> <PUBCHEM_CACTVS_ROTATABLE_BOND>
11

> <PUBCHEM_CACTVS_SUBSKEYS>
AAADcfB7MQAEAAAAAAAAAAAAGAAAAAAAAAAwYMAAAAAAAADBVAAAHwAQAAAADQTBmA4yBsPABACIAiFSEACCCAAkIAAIiIEODMgMJjKEtRuEMShk1hGIqYeY2OKOwAACAAAYAACAAAQAADAAAAAAAAAAAA==

> <PUBCHEM_IUPAC_OPENEYE_NAME>
N-[4-[ethyl-[[2-(5-fluoro-2-methoxy-phenyl)cyclopropyl]methyl]amino]butyl]naphthalene-2-carboxamide;hydrochloride

> <PUBCHEM_IUPAC_CAS_NAME>
N-[4-[ethyl-[[2-(5-fluoro-2-methoxyphenyl)cyclopropyl]methyl]amino]butyl]-2-naphthalenecarboxamide;hydrochloride

> <PUBCHEM_IUPAC_NAME_MARKUP>
<I>N</I>-[4-[ethyl-[[2-(5-fluoro-2-methoxyphenyl)cyclopropyl]methyl]amino]butyl]naphthalene-2-carboxamide;hydrochloride

> <PUBCHEM_IUPAC_NAME>
N-[4-[ethyl-[[2-(5-fluoro-2-methoxyphenyl)cyclopropyl]methyl]amino]butyl]naphthalene-2-carboxamide;hydrochloride

> <PUBCHEM_IUPAC_SYSTEMATIC_NAME>
N-[4-[ethyl-[[2-(5-fluoranyl-2-methoxy-phenyl)cyclopropyl]methyl]amino]butyl]naphthalene-2-carboxamide;hydrochloride

> <PUBCHEM_IUPAC_TRADITIONAL_NAME>
N-[4-[ethyl-[[2-(5-fluoro-2-methoxy-phenyl)cyclopropyl]methyl]amino]butyl]-2-naphthamide;hydrochloride

> <PUBCHEM_IUPAC_INCHI>
InChI=1S/C28H33FN2O2.ClH/c1-3-31(19-23-17-25(23)26-18-24(29)12-13-27(26)33-2)15-7-6-14-30-28(32)22-11-10-20-8-4-5-9-21(20)16-22;/h4-5,8-13,16,18,23,25H,3,6-7,14-15,17,19H2,1-2H3,(H,30,32);1H

> <PUBCHEM_IUPAC_INCHIKEY>
ASOSBTLEHILKFM-UHFFFAOYSA-N

> <PUBCHEM_EXACT_MASS>
484.2292842

> <PUBCHEM_MOLECULAR_FORMULA>
C28H34ClFN2O2

> <PUBCHEM_MOLECULAR_WEIGHT>
485.0

> <PUBCHEM_OPENEYE_CAN_SMILES>
CCN(CCCCNC(=O)C1=CC2=CC=CC=C2C=C1)CC3CC3C4=C(C=CC(=C4)F)OC.Cl

> <PUBCHEM_OPENEYE_ISO_SMILES>
CCN(CCCCNC(=O)C1=CC2=CC=CC=C2C=C1)CC3CC3C4=C(C=CC(=C4)F)OC.Cl

> <PUBCHEM_CACTVS_TPSA>
41.6

> <PUBCHEM_MONOISOTOPIC_WEIGHT>
484.2292842

> <PUBCHEM_TOTAL_CHARGE>
0

> <PUBCHEM_HEAVY_ATOM_COUNT>
34

> <PUBCHEM_ATOM_DEF_STEREO_COUNT>
0

> <PUBCHEM_ATOM_UDEF_STEREO_COUNT>
2

> <PUBCHEM_BOND_DEF_STEREO_COUNT>
0

> <PUBCHEM_BOND_UDEF_STEREO_COUNT>
0

> <PUBCHEM_ISOTOPIC_ATOM_COUNT>
0

> <PUBCHEM_COMPONENT_COUNT>
2

> <PUBCHEM_CACTVS_TAUTO_COUNT>
-1

> <PUBCHEM_COORDINATE_TYPE>
1
5
255

> <PUBCHEM_BONDANNOTATIONS>
11  12  8
11  13  8
12  17  8
13  18  8
17  20  8
18  20  8
25  26  8
25  27  8
26  28  8
27  30  8
28  29  8
28  31  8
29  30  8
29  32  8
31  33  8
32  34  8
33  34  8
7  10  3
8  11  3

$$$$
