44338308
  -OEChem-09292322192D

 46 49  0     0  0  0  0  0  0999 V2000
    2.3176    4.5313    0.0000 Cl  0  0  0  0  0  0  0  0  0  0  0  0
    9.2619   -3.6653    0.0000 O   0  0  0  0  0  0  0  0  0  0  0  0
    7.7619   -4.5313    0.0000 O   0  0  0  0  0  0  0  0  0  0  0  0
    4.6783    0.6036    0.0000 N   0  0  0  0  0  0  0  0  0  0  0  0
    4.6783   -1.0059    0.0000 N   0  0  0  0  0  0  0  0  0  0  0  0
    6.2619   -0.2012    0.0000 N   0  0  0  0  0  0  0  0  0  0  0  0
    3.7320    0.2988    0.0000 C   0  0  0  0  0  0  0  0  0  0  0  0
    4.9889    1.5541    0.0000 C   0  0  0  0  0  0  0  0  0  0  0  0
    5.2619   -0.2012    0.0000 C   0  0  0  0  0  0  0  0  0  0  0  0
    3.7320   -0.7012    0.0000 C   0  0  0  0  0  0  0  0  0  0  0  0
    4.3211    2.2984    0.0000 C   0  0  0  0  0  0  0  0  0  0  0  0
    2.8660    0.7988    0.0000 C   0  0  0  0  0  0  0  0  0  0  0  0
    2.8660   -1.2012    0.0000 C   0  0  0  0  0  0  0  0  0  0  0  0
    6.7619   -1.0672    0.0000 C   0  0  0  0  0  0  0  0  0  0  0  0
    2.0000    0.2988    0.0000 C   0  0  0  0  0  0  0  0  0  0  0  0
    2.0000   -0.7012    0.0000 C   0  0  0  0  0  0  0  0  0  0  0  0
    3.3426    2.0922    0.0000 C   0  0  0  0  0  0  0  0  0  0  0  0
    4.6318    3.2489    0.0000 C   0  0  0  0  0  0  0  0  0  0  0  0
    6.2619   -1.9332    0.0000 C   0  0  0  0  0  0  0  0  0  0  0  0
    7.7619   -1.0672    0.0000 C   0  0  0  0  0  0  0  0  0  0  0  0
    2.6747    2.8365    0.0000 C   0  0  0  0  0  0  0  0  0  0  0  0
    3.9639    3.9932    0.0000 C   0  0  0  0  0  0  0  0  0  0  0  0
    2.9854    3.7870    0.0000 C   0  0  0  0  0  0  0  0  0  0  0  0
    6.7619   -2.7992    0.0000 C   0  0  0  0  0  0  0  0  0  0  0  0
    8.2619   -1.9332    0.0000 C   0  0  0  0  0  0  0  0  0  0  0  0
    7.7619   -2.7992    0.0000 C   0  0  0  0  0  0  0  0  0  0  0  0
    8.2619   -3.6653    0.0000 C   0  0  0  0  0  0  0  0  0  0  0  0
    9.7619   -4.5313    0.0000 C   0  0  0  0  0  0  0  0  0  0  0  0
    5.5359    1.2621    0.0000 H   0  0  0  0  0  0  0  0  0  0  0  0
    5.3715    2.0420    0.0000 H   0  0  0  0  0  0  0  0  0  0  0  0
    2.8660    1.4188    0.0000 H   0  0  0  0  0  0  0  0  0  0  0  0
    6.5719    0.3358    0.0000 H   0  0  0  0  0  0  0  0  0  0  0  0
    2.8660   -1.8212    0.0000 H   0  0  0  0  0  0  0  0  0  0  0  0
    1.4631    0.6088    0.0000 H   0  0  0  0  0  0  0  0  0  0  0  0
    3.1500    1.5028    0.0000 H   0  0  0  0  0  0  0  0  0  0  0  0
    5.2384    3.3768    0.0000 H   0  0  0  0  0  0  0  0  0  0  0  0
    1.4631   -1.0112    0.0000 H   0  0  0  0  0  0  0  0  0  0  0  0
    5.6419   -1.9332    0.0000 H   0  0  0  0  0  0  0  0  0  0  0  0
    8.0719   -0.5303    0.0000 H   0  0  0  0  0  0  0  0  0  0  0  0
    2.0681    2.7086    0.0000 H   0  0  0  0  0  0  0  0  0  0  0  0
    4.1565    4.5825    0.0000 H   0  0  0  0  0  0  0  0  0  0  0  0
    6.4519   -3.3362    0.0000 H   0  0  0  0  0  0  0  0  0  0  0  0
    8.8819   -1.9332    0.0000 H   0  0  0  0  0  0  0  0  0  0  0  0
    9.2249   -4.8413    0.0000 H   0  0  0  0  0  0  0  0  0  0  0  0
   10.0719   -5.0682    0.0000 H   0  0  0  0  0  0  0  0  0  0  0  0
   10.2988   -4.2213    0.0000 H   0  0  0  0  0  0  0  0  0  0  0  0
  1 23  1  0  0  0  0
  2 27  1  0  0  0  0
  2 28  1  0  0  0  0
  3 27  2  0  0  0  0
  4  7  1  0  0  0  0
  4  8  1  0  0  0  0
  4  9  1  0  0  0  0
  5  9  2  0  0  0  0
  5 10  1  0  0  0  0
  6  9  1  0  0  0  0
  6 14  1  0  0  0  0
  6 32  1  0  0  0  0
  7 10  1  0  0  0  0
  7 12  2  0  0  0  0
  8 11  1  0  0  0  0
  8 29  1  0  0  0  0
  8 30  1  0  0  0  0
 10 13  2  0  0  0  0
 11 17  2  0  0  0  0
 11 18  1  0  0  0  0
 12 15  1  0  0  0  0
 12 31  1  0  0  0  0
 13 16  1  0  0  0  0
 13 33  1  0  0  0  0
 14 19  2  0  0  0  0
 14 20  1  0  0  0  0
 15 16  2  0  0  0  0
 15 34  1  0  0  0  0
 16 37  1  0  0  0  0
 17 21  1  0  0  0  0
 17 35  1  0  0  0  0
 18 22  2  0  0  0  0
 18 36  1  0  0  0  0
 19 24  1  0  0  0  0
 19 38  1  0  0  0  0
 20 25  2  0  0  0  0
 20 39  1  0  0  0  0
 21 23  2  0  0  0  0
 21 40  1  0  0  0  0
 22 23  1  0  0  0  0
 22 41  1  0  0  0  0
 24 26  2  0  0  0  0
 24 42  1  0  0  0  0
 25 26  1  0  0  0  0
 25 43  1  0  0  0  0
 26 27  1  0  0  0  0
 28 44  1  0  0  0  0
 28 45  1  0  0  0  0
 28 46  1  0  0  0  0
M  END
> <PUBCHEM_COMPOUND_CID>
44338308

> <PUBCHEM_COMPOUND_CANONICALIZED>
1

> <PUBCHEM_CACTVS_COMPLEXITY>
518

> <PUBCHEM_CACTVS_HBOND_ACCEPTOR>
4

> <PUBCHEM_CACTVS_HBOND_DONOR>
1

> <PUBCHEM_CACTVS_ROTATABLE_BOND>
6

> <PUBCHEM_CACTVS_SUBSKEYS>
AAADceB7MAAEAAAAAAAAAAAAAAAAAWAAAAAwYMAAAAAAAFgB9AAAHgIQAAAADArBniYz2LfMFACoAyTybACCgC0lF6AJ2CE4ftiIbrLBv5mUMQhs0API6aeY2SOeDAAAAAAAACAYAAAAAAAAQAAAAAAAAA==

> <PUBCHEM_IUPAC_OPENEYE_NAME>
methyl 4-[[1-[(4-chlorophenyl)methyl]benzimidazol-2-yl]amino]benzoate

> <PUBCHEM_IUPAC_CAS_NAME>
4-[[1-[(4-chlorophenyl)methyl]-2-benzimidazolyl]amino]benzoic acid methyl ester

> <PUBCHEM_IUPAC_NAME_MARKUP>
methyl 4-[[1-[(4-chlorophenyl)methyl]benzimidazol-2-yl]amino]benzoate

> <PUBCHEM_IUPAC_NAME>
methyl 4-[[1-[(4-chlorophenyl)methyl]benzimidazol-2-yl]amino]benzoate

> <PUBCHEM_IUPAC_SYSTEMATIC_NAME>
methyl 4-[[1-[(4-chlorophenyl)methyl]benzimidazol-2-yl]amino]benzoate

> <PUBCHEM_IUPAC_TRADITIONAL_NAME>
4-[[1-(4-chlorobenzyl)benzimidazol-2-yl]amino]benzoic acid methyl ester

> <PUBCHEM_IUPAC_INCHI>
InChI=1S/C22H18ClN3O2/c1-28-21(27)16-8-12-18(13-9-16)24-22-25-19-4-2-3-5-20(19)26(22)14-15-6-10-17(23)11-7-15/h2-13H,14H2,1H3,(H,24,25)

> <PUBCHEM_IUPAC_INCHIKEY>
BIRXIMHINOMMAU-UHFFFAOYSA-N

> <PUBCHEM_XLOGP3_AA>
5.4

> <PUBCHEM_EXACT_MASS>
391.1087545

> <PUBCHEM_MOLECULAR_FORMULA>
C22H18ClN3O2

> <PUBCHEM_MOLECULAR_WEIGHT>
391.8

> <PUBCHEM_OPENEYE_CAN_SMILES>
COC(=O)C1=CC=C(C=C1)NC2=NC3=CC=CC=C3N2CC4=CC=C(C=C4)Cl

> <PUBCHEM_OPENEYE_ISO_SMILES>
COC(=O)C1=CC=C(C=C1)NC2=NC3=CC=CC=C3N2CC4=CC=C(C=C4)Cl

> <PUBCHEM_CACTVS_TPSA>
56.2

> <PUBCHEM_MONOISOTOPIC_WEIGHT>
391.1087545

> <PUBCHEM_TOTAL_CHARGE>
0

> <PUBCHEM_HEAVY_ATOM_COUNT>
28

> <PUBCHEM_ATOM_DEF_STEREO_COUNT>
0

> <PUBCHEM_ATOM_UDEF_STEREO_COUNT>
0

> <PUBCHEM_BOND_DEF_STEREO_COUNT>
0

> <PUBCHEM_BOND_UDEF_STEREO_COUNT>
0

> <PUBCHEM_ISOTOPIC_ATOM_COUNT>
0

> <PUBCHEM_COMPONENT_COUNT>
1

> <PUBCHEM_CACTVS_TAUTO_COUNT>
-1

> <PUBCHEM_COORDINATE_TYPE>
1
5
255

> <PUBCHEM_BONDANNOTATIONS>
10  13  8
11  17  8
11  18  8
12  15  8
13  16  8
14  19  8
14  20  8
15  16  8
17  21  8
18  22  8
19  24  8
20  25  8
21  23  8
22  23  8
24  26  8
25  26  8
4  7  8
4  9  8
5  10  8
5  9  8
7  10  8
7  12  8

$$$$
