44407007
  -OEChem-09292322272D

 67 69  0     0  0  0  0  0  0999 V2000
    3.3660   -7.1830    0.0000 F   0  0  0  0  0  0  0  0  0  0  0  0
    2.0000   -6.8170    0.0000 F   0  0  0  0  0  0  0  0  0  0  0  0
    2.3660   -5.4510    0.0000 F   0  0  0  0  0  0  0  0  0  0  0  0
    8.0622    2.6830    0.0000 O   0  0  0  0  0  0  0  0  0  0  0  0
    6.3301    5.6830    0.0000 O   0  0  0  0  0  0  0  0  0  0  0  0
    4.5981   -1.3170    0.0000 N   0  0  0  0  0  0  0  0  0  0  0  0
    4.5981   -3.3170    0.0000 N   0  0  0  0  0  0  0  0  0  0  0  0
    5.4641   -4.8170    0.0000 N   0  0  0  0  0  0  0  0  0  0  0  0
    6.3301    2.6830    0.0000 N   0  0  0  0  0  0  0  0  0  0  0  0
    4.5981   -6.3170    0.0000 N   0  0  0  0  0  0  0  0  0  0  0  0
    7.1962    4.1830    0.0000 N   0  0  0  0  0  0  0  0  0  0  0  0
    5.4641   -1.8170    0.0000 C   0  0  0  0  0  0  0  0  0  0  0  0
    3.7320   -1.8170    0.0000 C   0  0  0  0  0  0  0  0  0  0  0  0
    5.4641   -2.8170    0.0000 C   0  0  0  0  0  0  0  0  0  0  0  0
    3.7320   -2.8170    0.0000 C   0  0  0  0  0  0  0  0  0  0  0  0
    4.5981   -0.3170    0.0000 C   0  0  0  0  0  0  0  0  0  0  0  0
    5.4641    0.1830    0.0000 C   0  0  0  0  0  0  0  0  0  0  0  0
    4.5981   -4.3170    0.0000 C   0  0  0  0  0  0  0  0  0  0  0  0
    5.4641    1.1830    0.0000 C   0  0  0  0  0  0  0  0  0  0  0  0
    6.3301   -6.3170    0.0000 C   0  0  0  0  0  0  0  0  0  0  0  0
    6.3301    1.6830    0.0000 C   0  0  0  0  0  0  0  0  0  0  0  0
    5.4641   -5.8170    0.0000 C   0  0  0  0  0  0  0  0  0  0  0  0
    3.7320   -4.8170    0.0000 C   0  0  0  0  0  0  0  0  0  0  0  0
    3.7320   -5.8170    0.0000 C   0  0  0  0  0  0  0  0  0  0  0  0
    7.1962   -6.8170    0.0000 C   0  0  0  0  0  0  0  0  0  0  0  0
    5.8301   -7.1830    0.0000 C   0  0  0  0  0  0  0  0  0  0  0  0
    6.8301   -5.4510    0.0000 C   0  0  0  0  0  0  0  0  0  0  0  0
    2.8660   -6.3170    0.0000 C   0  0  0  0  0  0  0  0  0  0  0  0
    5.4641    3.1830    0.0000 C   0  0  0  0  0  0  0  0  0  0  0  0
    7.1962    3.1830    0.0000 C   0  0  0  0  0  0  0  0  0  0  0  0
    5.4641    4.1830    0.0000 C   0  0  0  0  0  0  0  0  0  0  0  0
    6.3301    4.6830    0.0000 C   0  0  0  0  0  0  0  0  0  0  0  0
    5.4641    6.1830    0.0000 C   0  0  0  0  0  0  0  0  0  0  0  0
    5.4641    7.1830    0.0000 C   0  0  0  0  0  0  0  0  0  0  0  0
    6.0747   -1.9246    0.0000 H   0  0  0  0  0  0  0  0  0  0  0  0
    5.6762   -1.2344    0.0000 H   0  0  0  0  0  0  0  0  0  0  0  0
    3.5200   -1.2344    0.0000 H   0  0  0  0  0  0  0  0  0  0  0  0
    3.1215   -1.9246    0.0000 H   0  0  0  0  0  0  0  0  0  0  0  0
    5.6762   -3.3996    0.0000 H   0  0  0  0  0  0  0  0  0  0  0  0
    6.0747   -2.7093    0.0000 H   0  0  0  0  0  0  0  0  0  0  0  0
    3.1215   -2.7093    0.0000 H   0  0  0  0  0  0  0  0  0  0  0  0
    3.5200   -3.3996    0.0000 H   0  0  0  0  0  0  0  0  0  0  0  0
    4.3860    0.2656    0.0000 H   0  0  0  0  0  0  0  0  0  0  0  0
    3.9875   -0.4246    0.0000 H   0  0  0  0  0  0  0  0  0  0  0  0
    5.6762   -0.3996    0.0000 H   0  0  0  0  0  0  0  0  0  0  0  0
    6.0747    0.2907    0.0000 H   0  0  0  0  0  0  0  0  0  0  0  0
    5.2520    1.7656    0.0000 H   0  0  0  0  0  0  0  0  0  0  0  0
    4.8535    1.0754    0.0000 H   0  0  0  0  0  0  0  0  0  0  0  0
    6.5422    1.1004    0.0000 H   0  0  0  0  0  0  0  0  0  0  0  0
    6.9407    1.7907    0.0000 H   0  0  0  0  0  0  0  0  0  0  0  0
    3.1951   -4.5070    0.0000 H   0  0  0  0  0  0  0  0  0  0  0  0
    6.8862   -7.3539    0.0000 H   0  0  0  0  0  0  0  0  0  0  0  0
    7.7331   -7.1270    0.0000 H   0  0  0  0  0  0  0  0  0  0  0  0
    7.5062   -6.2800    0.0000 H   0  0  0  0  0  0  0  0  0  0  0  0
    5.2932   -6.8730    0.0000 H   0  0  0  0  0  0  0  0  0  0  0  0
    5.5201   -7.7200    0.0000 H   0  0  0  0  0  0  0  0  0  0  0  0
    6.3671   -7.4930    0.0000 H   0  0  0  0  0  0  0  0  0  0  0  0
    7.3671   -5.7610    0.0000 H   0  0  0  0  0  0  0  0  0  0  0  0
    7.1401   -4.9140    0.0000 H   0  0  0  0  0  0  0  0  0  0  0  0
    6.2932   -5.1410    0.0000 H   0  0  0  0  0  0  0  0  0  0  0  0
    4.9272    2.8730    0.0000 H   0  0  0  0  0  0  0  0  0  0  0  0
    4.9272    4.4930    0.0000 H   0  0  0  0  0  0  0  0  0  0  0  0
    4.8535    6.2907    0.0000 H   0  0  0  0  0  0  0  0  0  0  0  0
    5.2520    5.6004    0.0000 H   0  0  0  0  0  0  0  0  0  0  0  0
    6.0841    7.1830    0.0000 H   0  0  0  0  0  0  0  0  0  0  0  0
    5.4641    7.8030    0.0000 H   0  0  0  0  0  0  0  0  0  0  0  0
    4.8441    7.1830    0.0000 H   0  0  0  0  0  0  0  0  0  0  0  0
  1 28  1  0  0  0  0
  2 28  1  0  0  0  0
  3 28  1  0  0  0  0
  4 30  2  0  0  0  0
  5 32  1  0  0  0  0
  5 33  1  0  0  0  0
  6 12  1  0  0  0  0
  6 13  1  0  0  0  0
  6 16  1  0  0  0  0
  7 14  1  0  0  0  0
  7 15  1  0  0  0  0
  7 18  1  0  0  0  0
  8 18  2  0  0  0  0
  8 22  1  0  0  0  0
  9 21  1  0  0  0  0
  9 29  1  0  0  0  0
  9 30  1  0  0  0  0
 10 22  2  0  0  0  0
 10 24  1  0  0  0  0
 11 30  1  0  0  0  0
 11 32  2  0  0  0  0
 12 14  1  0  0  0  0
 12 35  1  0  0  0  0
 12 36  1  0  0  0  0
 13 15  1  0  0  0  0
 13 37  1  0  0  0  0
 13 38  1  0  0  0  0
 14 39  1  0  0  0  0
 14 40  1  0  0  0  0
 15 41  1  0  0  0  0
 15 42  1  0  0  0  0
 16 17  1  0  0  0  0
 16 43  1  0  0  0  0
 16 44  1  0  0  0  0
 17 19  1  0  0  0  0
 17 45  1  0  0  0  0
 17 46  1  0  0  0  0
 18 23  1  0  0  0  0
 19 21  1  0  0  0  0
 19 47  1  0  0  0  0
 19 48  1  0  0  0  0
 20 22  1  0  0  0  0
 20 25  1  0  0  0  0
 20 26  1  0  0  0  0
 20 27  1  0  0  0  0
 21 49  1  0  0  0  0
 21 50  1  0  0  0  0
 23 24  2  0  0  0  0
 23 51  1  0  0  0  0
 24 28  1  0  0  0  0
 25 52  1  0  0  0  0
 25 53  1  0  0  0  0
 25 54  1  0  0  0  0
 26 55  1  0  0  0  0
 26 56  1  0  0  0  0
 26 57  1  0  0  0  0
 27 58  1  0  0  0  0
 27 59  1  0  0  0  0
 27 60  1  0  0  0  0
 29 31  2  0  0  0  0
 29 61  1  0  0  0  0
 31 32  1  0  0  0  0
 31 62  1  0  0  0  0
 33 34  1  0  0  0  0
 33 63  1  0  0  0  0
 33 64  1  0  0  0  0
 34 65  1  0  0  0  0
 34 66  1  0  0  0  0
 34 67  1  0  0  0  0
M  END
> <PUBCHEM_COMPOUND_CID>
44407007

> <PUBCHEM_COMPOUND_CANONICALIZED>
1

> <PUBCHEM_CACTVS_COMPLEXITY>
744

> <PUBCHEM_CACTVS_HBOND_ACCEPTOR>
9

> <PUBCHEM_CACTVS_HBOND_DONOR>
0

> <PUBCHEM_CACTVS_ROTATABLE_BOND>
9

> <PUBCHEM_CACTVS_SUBSKEYS>
AAADcfB7sYAAAAAAAAAAAAAAAAAAAAAAAAAsWIAAAAAAAAABgAAAHwAAAAAADgjhlxYzsJcIFACoASZmdACAgCkhAqAJGCA4ZBiAbABA6MAWBAhIBgLAYCAAAAAAAAAAAAAAAAAAAAAAAAAAAAAAAAAAAA==

> <PUBCHEM_IUPAC_OPENEYE_NAME>
1-[4-[4-[2-tert-butyl-6-(trifluoromethyl)pyrimidin-4-yl]piperazin-1-yl]butyl]-4-ethoxy-pyrimidin-2-one

> <PUBCHEM_IUPAC_CAS_NAME>
1-[4-[4-[2-tert-butyl-6-(trifluoromethyl)-4-pyrimidinyl]-1-piperazinyl]butyl]-4-ethoxy-2-pyrimidinone

> <PUBCHEM_IUPAC_NAME_MARKUP>
1-[4-[4-[2-<I>tert</I>-butyl-6-(trifluoromethyl)pyrimidin-4-yl]piperazin-1-yl]butyl]-4-ethoxypyrimidin-2-one

> <PUBCHEM_IUPAC_NAME>
1-[4-[4-[2-tert-butyl-6-(trifluoromethyl)pyrimidin-4-yl]piperazin-1-yl]butyl]-4-ethoxypyrimidin-2-one

> <PUBCHEM_IUPAC_SYSTEMATIC_NAME>
1-[4-[4-[2-tert-butyl-6-(trifluoromethyl)pyrimidin-4-yl]piperazin-1-yl]butyl]-4-ethoxy-pyrimidin-2-one

> <PUBCHEM_IUPAC_TRADITIONAL_NAME>
1-[4-[4-[2-tert-butyl-6-(trifluoromethyl)pyrimidin-4-yl]piperazino]butyl]-4-ethoxy-pyrimidin-2-one

> <PUBCHEM_IUPAC_INCHI>
InChI=1S/C23H33F3N6O2/c1-5-34-19-8-11-32(21(33)29-19)10-7-6-9-30-12-14-31(15-13-30)18-16-17(23(24,25)26)27-20(28-18)22(2,3)4/h8,11,16H,5-7,9-10,12-15H2,1-4H3

> <PUBCHEM_IUPAC_INCHIKEY>
FOKZOGSWMCKMLR-UHFFFAOYSA-N

> <PUBCHEM_XLOGP3_AA>
3.8

> <PUBCHEM_EXACT_MASS>
482.26170880

> <PUBCHEM_MOLECULAR_FORMULA>
C23H33F3N6O2

> <PUBCHEM_MOLECULAR_WEIGHT>
482.5

> <PUBCHEM_OPENEYE_CAN_SMILES>
CCOC1=NC(=O)N(C=C1)CCCCN2CCN(CC2)C3=NC(=NC(=C3)C(F)(F)F)C(C)(C)C

> <PUBCHEM_OPENEYE_ISO_SMILES>
CCOC1=NC(=O)N(C=C1)CCCCN2CCN(CC2)C3=NC(=NC(=C3)C(F)(F)F)C(C)(C)C

> <PUBCHEM_CACTVS_TPSA>
74.2

> <PUBCHEM_MONOISOTOPIC_WEIGHT>
482.26170880

> <PUBCHEM_TOTAL_CHARGE>
0

> <PUBCHEM_HEAVY_ATOM_COUNT>
34

> <PUBCHEM_ATOM_DEF_STEREO_COUNT>
0

> <PUBCHEM_ATOM_UDEF_STEREO_COUNT>
0

> <PUBCHEM_BOND_DEF_STEREO_COUNT>
0

> <PUBCHEM_BOND_UDEF_STEREO_COUNT>
0

> <PUBCHEM_ISOTOPIC_ATOM_COUNT>
0

> <PUBCHEM_COMPONENT_COUNT>
1

> <PUBCHEM_CACTVS_TAUTO_COUNT>
-1

> <PUBCHEM_COORDINATE_TYPE>
1
5
255

> <PUBCHEM_BONDANNOTATIONS>
10  22  8
10  24  8
11  30  8
11  32  8
18  23  8
23  24  8
29  31  8
31  32  8
8  18  8
8  22  8
9  29  8
9  30  8

$$$$
