44350664
  -OEChem-09292322232D

 52 55  0     1  0  0  0  0  0999 V2000
    4.3913    5.4260    0.0000 F   0  0  0  0  0  0  0  0  0  0  0  0
    7.3913    1.9619    0.0000 O   0  0  0  0  0  0  0  0  0  0  0  0
    6.3913   -1.5022    0.0000 N   0  0  0  0  0  0  0  0  0  0  0  0
    7.1280   -2.4848    0.0000 C   0  0  3  0  0  0  0  0  0  0  0  0
    6.8691   -3.4507    0.0000 C   0  0  3  0  0  0  0  0  0  0  0  0
    8.5269   -2.9936    0.0000 C   0  0  0  0  0  0  0  0  0  0  0  0
    8.2681   -3.9595    0.0000 C   0  0  0  0  0  0  0  0  0  0  0  0
    5.0947   -2.7959    0.0000 C   0  0  0  0  0  0  0  0  0  0  0  0
    5.6481   -4.3164    0.0000 C   0  0  0  0  0  0  0  0  0  0  0  0
    4.8191   -3.7572    0.0000 C   0  0  0  0  0  0  0  0  0  0  0  0
    5.8913   -0.6361    0.0000 C   0  0  0  0  0  0  0  0  0  0  0  0
    3.8794   -4.0992    0.0000 C   0  0  0  0  0  0  0  0  0  0  0  0
    6.3913    0.2299    0.0000 C   0  0  0  0  0  0  0  0  0  0  0  0
    3.1133   -3.4564    0.0000 C   0  0  0  0  0  0  0  0  0  0  0  0
    3.7057   -5.0840    0.0000 C   0  0  0  0  0  0  0  0  0  0  0  0
    5.8913    1.0959    0.0000 C   0  0  0  0  0  0  0  0  0  0  0  0
    2.1736   -3.7984    0.0000 C   0  0  0  0  0  0  0  0  0  0  0  0
    2.7660   -5.4260    0.0000 C   0  0  0  0  0  0  0  0  0  0  0  0
    6.3913    1.9619    0.0000 C   0  0  0  0  0  0  0  0  0  0  0  0
    2.0000   -4.7832    0.0000 C   0  0  0  0  0  0  0  0  0  0  0  0
    5.8913    2.8280    0.0000 C   0  0  0  0  0  0  0  0  0  0  0  0
    4.8913    2.8280    0.0000 C   0  0  0  0  0  0  0  0  0  0  0  0
    6.3913    3.6940    0.0000 C   0  0  0  0  0  0  0  0  0  0  0  0
    4.3913    3.6940    0.0000 C   0  0  0  0  0  0  0  0  0  0  0  0
    5.8913    4.5600    0.0000 C   0  0  0  0  0  0  0  0  0  0  0  0
    4.8913    4.5600    0.0000 C   0  0  0  0  0  0  0  0  0  0  0  0
    7.4973   -1.9868    0.0000 H   0  0  0  0  0  0  0  0  0  0  0  0
    6.9519   -4.0652    0.0000 H   0  0  0  0  0  0  0  0  0  0  0  0
    9.1209   -3.1714    0.0000 H   0  0  0  0  0  0  0  0  0  0  0  0
    8.7218   -2.4050    0.0000 H   0  0  0  0  0  0  0  0  0  0  0  0
    8.0732   -4.5481    0.0000 H   0  0  0  0  0  0  0  0  0  0  0  0
    8.8620   -4.1373    0.0000 H   0  0  0  0  0  0  0  0  0  0  0  0
    5.0897   -2.1759    0.0000 H   0  0  0  0  0  0  0  0  0  0  0  0
    4.4804   -2.7121    0.0000 H   0  0  0  0  0  0  0  0  0  0  0  0
    5.2423   -4.7851    0.0000 H   0  0  0  0  0  0  0  0  0  0  0  0
    6.0648   -4.7755    0.0000 H   0  0  0  0  0  0  0  0  0  0  0  0
    4.7435   -4.3726    0.0000 H   0  0  0  0  0  0  0  0  0  0  0  0
    5.4164   -0.2376    0.0000 H   0  0  0  0  0  0  0  0  0  0  0  0
    5.4164   -1.0347    0.0000 H   0  0  0  0  0  0  0  0  0  0  0  0
    6.8663   -0.1687    0.0000 H   0  0  0  0  0  0  0  0  0  0  0  0
    6.8663    0.6284    0.0000 H   0  0  0  0  0  0  0  0  0  0  0  0
    3.2210   -2.8458    0.0000 H   0  0  0  0  0  0  0  0  0  0  0  0
    4.1807   -5.4825    0.0000 H   0  0  0  0  0  0  0  0  0  0  0  0
    5.4164    1.4944    0.0000 H   0  0  0  0  0  0  0  0  0  0  0  0
    5.4164    0.6974    0.0000 H   0  0  0  0  0  0  0  0  0  0  0  0
    1.6987   -3.3999    0.0000 H   0  0  0  0  0  0  0  0  0  0  0  0
    2.6584   -6.0366    0.0000 H   0  0  0  0  0  0  0  0  0  0  0  0
    1.4174   -4.9953    0.0000 H   0  0  0  0  0  0  0  0  0  0  0  0
    4.5813    2.2910    0.0000 H   0  0  0  0  0  0  0  0  0  0  0  0
    7.0113    3.6940    0.0000 H   0  0  0  0  0  0  0  0  0  0  0  0
    3.7713    3.6940    0.0000 H   0  0  0  0  0  0  0  0  0  0  0  0
    6.2013    5.0969    0.0000 H   0  0  0  0  0  0  0  0  0  0  0  0
  1 26  1  0  0  0  0
  2 19  2  0  0  0  0
  3  4  1  0  0  0  0
  3  5  1  0  0  0  0
  3 11  1  0  0  0  0
  4  6  1  0  0  0  0
  4  8  1  0  0  0  0
  4 27  1  0  0  0  0
  5  7  1  0  0  0  0
  5  9  1  0  0  0  0
  5 28  1  0  0  0  0
  6  7  1  0  0  0  0
  6 29  1  0  0  0  0
  6 30  1  0  0  0  0
  7 31  1  0  0  0  0
  7 32  1  0  0  0  0
  8 10  1  0  0  0  0
  8 33  1  0  0  0  0
  8 34  1  0  0  0  0
  9 10  1  0  0  0  0
  9 35  1  0  0  0  0
  9 36  1  0  0  0  0
 10 12  1  0  0  0  0
 10 37  1  0  0  0  0
 11 13  1  0  0  0  0
 11 38  1  0  0  0  0
 11 39  1  0  0  0  0
 12 14  2  0  0  0  0
 12 15  1  0  0  0  0
 13 16  1  0  0  0  0
 13 40  1  0  0  0  0
 13 41  1  0  0  0  0
 14 17  1  0  0  0  0
 14 42  1  0  0  0  0
 15 18  2  0  0  0  0
 15 43  1  0  0  0  0
 16 19  1  0  0  0  0
 16 44  1  0  0  0  0
 16 45  1  0  0  0  0
 17 20  2  0  0  0  0
 17 46  1  0  0  0  0
 18 20  1  0  0  0  0
 18 47  1  0  0  0  0
 19 21  1  0  0  0  0
 20 48  1  0  0  0  0
 21 22  2  0  0  0  0
 21 23  1  0  0  0  0
 22 24  1  0  0  0  0
 22 49  1  0  0  0  0
 23 25  2  0  0  0  0
 23 50  1  0  0  0  0
 24 26  2  0  0  0  0
 24 51  1  0  0  0  0
 25 26  1  0  0  0  0
 25 52  1  0  0  0  0
M  END
> <PUBCHEM_COMPOUND_CID>
44350664

> <PUBCHEM_COMPOUND_CANONICALIZED>
1

> <PUBCHEM_CACTVS_COMPLEXITY>
453

> <PUBCHEM_CACTVS_HBOND_ACCEPTOR>
3

> <PUBCHEM_CACTVS_HBOND_DONOR>
0

> <PUBCHEM_CACTVS_ROTATABLE_BOND>
6

> <PUBCHEM_CACTVS_SUBSKEYS>
AAADceB6IQAAAAAAAAAAAAAAAAAAAWAAAAA8YIAABgAAAAABQAAAHwAAAAAADSzBmAwwAIMAAACIAqBSAAACAAAkAAAIiAEIAMgIIDKAlRCEIQAggACIiYcciMCOgAAAAAAAAAAAAAAAAAAAAAAAAAAAAA==

> <PUBCHEM_IUPAC_OPENEYE_NAME>
1-(4-fluorophenyl)-4-(3-phenyl-8-azabicyclo[3.2.1]octan-8-yl)butan-1-one

> <PUBCHEM_IUPAC_CAS_NAME>
1-(4-fluorophenyl)-4-(3-phenyl-8-azabicyclo[3.2.1]octan-8-yl)-1-butanone

> <PUBCHEM_IUPAC_NAME_MARKUP>
1-(4-fluorophenyl)-4-(3-phenyl-8-azabicyclo[3.2.1]octan-8-yl)butan-1-one

> <PUBCHEM_IUPAC_NAME>
1-(4-fluorophenyl)-4-(3-phenyl-8-azabicyclo[3.2.1]octan-8-yl)butan-1-one

> <PUBCHEM_IUPAC_SYSTEMATIC_NAME>
1-(4-fluorophenyl)-4-(3-phenyl-8-azabicyclo[3.2.1]octan-8-yl)butan-1-one

> <PUBCHEM_IUPAC_TRADITIONAL_NAME>
1-(4-fluorophenyl)-4-(3-phenyl-8-azabicyclo[3.2.1]octan-8-yl)butan-1-one

> <PUBCHEM_IUPAC_INCHI>
InChI=1S/C23H26FNO/c24-20-10-8-18(9-11-20)23(26)7-4-14-25-21-12-13-22(25)16-19(15-21)17-5-2-1-3-6-17/h1-3,5-6,8-11,19,21-22H,4,7,12-16H2

> <PUBCHEM_IUPAC_INCHIKEY>
LECUUDCCVOYUHG-UHFFFAOYSA-N

> <PUBCHEM_XLOGP3_AA>
4.9

> <PUBCHEM_EXACT_MASS>
351.19984261

> <PUBCHEM_MOLECULAR_FORMULA>
C23H26FNO

> <PUBCHEM_MOLECULAR_WEIGHT>
351.5

> <PUBCHEM_OPENEYE_CAN_SMILES>
C1CC2CC(CC1N2CCCC(=O)C3=CC=C(C=C3)F)C4=CC=CC=C4

> <PUBCHEM_OPENEYE_ISO_SMILES>
C1CC2CC(CC1N2CCCC(=O)C3=CC=C(C=C3)F)C4=CC=CC=C4

> <PUBCHEM_CACTVS_TPSA>
20.3

> <PUBCHEM_MONOISOTOPIC_WEIGHT>
351.19984261

> <PUBCHEM_TOTAL_CHARGE>
0

> <PUBCHEM_HEAVY_ATOM_COUNT>
26

> <PUBCHEM_ATOM_DEF_STEREO_COUNT>
0

> <PUBCHEM_ATOM_UDEF_STEREO_COUNT>
2

> <PUBCHEM_BOND_DEF_STEREO_COUNT>
0

> <PUBCHEM_BOND_UDEF_STEREO_COUNT>
0

> <PUBCHEM_ISOTOPIC_ATOM_COUNT>
0

> <PUBCHEM_COMPONENT_COUNT>
1

> <PUBCHEM_CACTVS_TAUTO_COUNT>
-1

> <PUBCHEM_COORDINATE_TYPE>
1
5
255

> <PUBCHEM_BONDANNOTATIONS>
12  14  8
12  15  8
14  17  8
15  18  8
17  20  8
18  20  8
21  22  8
21  23  8
22  24  8
23  25  8
24  26  8
25  26  8
4  6  3
5  7  3

$$$$
