45262347
  -OEChem-09292322122D

 77 79  0     1  0  0  0  0  0999 V2000
    9.1244    0.0000    0.0000 Cl  0  0  0  0  0  0  0  0  0  0  0  0
   17.8427    7.9906    0.0000 S   0  0  0  0  0  0  0  0  0  0  0  0
    6.6200    4.8651    0.0000 O   0  0  0  0  0  0  0  0  0  0  0  0
   16.9747    8.4873    0.0000 O   0  0  0  0  0  0  0  0  0  0  0  0
   18.3393    8.8586    0.0000 O   0  0  0  0  0  0  0  0  0  0  0  0
   17.3460    7.1227    0.0000 O   0  0  0  0  0  0  0  0  0  0  0  0
    1.6200    3.1330    0.0000 O   0  0  0  0  0  0  0  0  0  0  0  0
   12.1200    7.4631    0.0000 N   0  0  3  0  0  0  0  0  0  0  0  0
    6.6200    6.5971    0.0000 N   0  0  0  0  0  0  0  0  0  0  0  0
    9.6200    6.5971    0.0000 C   0  0  0  0  0  0  0  0  0  0  0  0
    9.1200    5.7311    0.0000 C   0  0  0  0  0  0  0  0  0  0  0  0
    9.1200    7.4631    0.0000 C   0  0  0  0  0  0  0  0  0  0  0  0
    7.6200    6.5971    0.0000 C   0  0  0  0  0  0  0  0  0  0  0  0
    8.1200    5.7311    0.0000 C   0  0  0  0  0  0  0  0  0  0  0  0
    8.1200    7.4631    0.0000 C   0  0  0  0  0  0  0  0  0  0  0  0
   10.6200    6.5971    0.0000 C   0  0  0  0  0  0  0  0  0  0  0  0
   11.1200    7.4631    0.0000 C   0  0  0  0  0  0  0  0  0  0  0  0
   12.5539    8.3641    0.0000 C   0  0  0  0  0  0  0  0  0  0  0  0
   12.5539    6.5622    0.0000 C   0  0  0  0  0  0  0  0  0  0  0  0
   13.5288    8.5866    0.0000 C   0  0  0  0  0  0  0  0  0  0  0  0
   13.5288    6.3396    0.0000 C   0  0  0  0  0  0  0  0  0  0  0  0
   14.3106    7.9631    0.0000 C   0  0  0  0  0  0  0  0  0  0  0  0
   14.3106    6.9631    0.0000 C   0  0  0  0  0  0  0  0  0  0  0  0
    6.1200    5.7311    0.0000 C   0  0  0  0  0  0  0  0  0  0  0  0
   15.2046    8.4978    0.0000 C   0  0  0  0  0  0  0  0  0  0  0  0
   15.2046    6.4285    0.0000 C   0  0  0  0  0  0  0  0  0  0  0  0
    5.1200    5.7311    0.0000 C   0  0  0  0  0  0  0  0  0  0  0  0
   16.1107    7.9840    0.0000 C   0  0  0  0  0  0  0  0  0  0  0  0
   16.1107    6.9423    0.0000 C   0  0  0  0  0  0  0  0  0  0  0  0
    4.6200    4.8651    0.0000 C   0  0  0  0  0  0  0  0  0  0  0  0
    3.6200    4.8651    0.0000 C   0  0  0  0  0  0  0  0  0  0  0  0
   18.7106    7.4940    0.0000 C   0  0  0  0  0  0  0  0  0  0  0  0
    3.1200    3.9990    0.0000 C   0  0  0  0  0  0  0  0  0  0  0  0
    3.1200    5.7311    0.0000 C   0  0  0  0  0  0  0  0  0  0  0  0
    2.1200    3.9990    0.0000 C   0  0  0  0  0  0  0  0  0  0  0  0
    2.1200    5.7311    0.0000 C   0  0  0  0  0  0  0  0  0  0  0  0
    1.6200    4.8651    0.0000 C   0  0  0  0  0  0  0  0  0  0  0  0
    0.6200    3.1330    0.0000 C   0  0  0  0  0  0  0  0  0  0  0  0
    9.9300    7.1340    0.0000 H   0  0  0  0  0  0  0  0  0  0  0  0
    9.0123    5.1205    0.0000 H   0  0  0  0  0  0  0  0  0  0  0  0
    9.7026    5.5190    0.0000 H   0  0  0  0  0  0  0  0  0  0  0  0
    9.7026    7.6752    0.0000 H   0  0  0  0  0  0  0  0  0  0  0  0
    9.0123    8.0737    0.0000 H   0  0  0  0  0  0  0  0  0  0  0  0
    7.3100    7.1340    0.0000 H   0  0  0  0  0  0  0  0  0  0  0  0
    7.5374    5.5190    0.0000 H   0  0  0  0  0  0  0  0  0  0  0  0
    8.2277    5.1205    0.0000 H   0  0  0  0  0  0  0  0  0  0  0  0
    8.2277    8.0737    0.0000 H   0  0  0  0  0  0  0  0  0  0  0  0
    7.5374    7.6752    0.0000 H   0  0  0  0  0  0  0  0  0  0  0  0
   10.5123    5.9865    0.0000 H   0  0  0  0  0  0  0  0  0  0  0  0
   11.2026    6.3851    0.0000 H   0  0  0  0  0  0  0  0  0  0  0  0
   11.2277    8.0737    0.0000 H   0  0  0  0  0  0  0  0  0  0  0  0
   10.5374    7.6752    0.0000 H   0  0  0  0  0  0  0  0  0  0  0  0
    6.3100    7.1340    0.0000 H   0  0  0  0  0  0  0  0  0  0  0  0
   12.5539    8.9841    0.0000 H   0  0  0  0  0  0  0  0  0  0  0  0
   11.9494    8.5021    0.0000 H   0  0  0  0  0  0  0  0  0  0  0  0
   11.9494    6.4242    0.0000 H   0  0  0  0  0  0  0  0  0  0  0  0
   12.5539    5.9422    0.0000 H   0  0  0  0  0  0  0  0  0  0  0  0
   14.0135    8.9732    0.0000 H   0  0  0  0  0  0  0  0  0  0  0  0
   13.2598    9.1452    0.0000 H   0  0  0  0  0  0  0  0  0  0  0  0
   13.2598    5.7810    0.0000 H   0  0  0  0  0  0  0  0  0  0  0  0
   14.0135    5.9531    0.0000 H   0  0  0  0  0  0  0  0  0  0  0  0
   15.1974    9.1178    0.0000 H   0  0  0  0  0  0  0  0  0  0  0  0
   15.1974    5.8085    0.0000 H   0  0  0  0  0  0  0  0  0  0  0  0
    4.8100    6.2680    0.0000 H   0  0  0  0  0  0  0  0  0  0  0  0
   16.6464    6.6302    0.0000 H   0  0  0  0  0  0  0  0  0  0  0  0
    4.9300    4.3281    0.0000 H   0  0  0  0  0  0  0  0  0  0  0  0
   18.4027    6.9558    0.0000 H   0  0  0  0  0  0  0  0  0  0  0  0
   19.2488    7.1860    0.0000 H   0  0  0  0  0  0  0  0  0  0  0  0
   19.0186    8.0321    0.0000 H   0  0  0  0  0  0  0  0  0  0  0  0
    3.4300    3.4621    0.0000 H   0  0  0  0  0  0  0  0  0  0  0  0
    3.4300    6.2680    0.0000 H   0  0  0  0  0  0  0  0  0  0  0  0
    1.8100    6.2680    0.0000 H   0  0  0  0  0  0  0  0  0  0  0  0
    1.0000    4.8651    0.0000 H   0  0  0  0  0  0  0  0  0  0  0  0
    0.6200    3.7530    0.0000 H   0  0  0  0  0  0  0  0  0  0  0  0
    0.0000    3.1330    0.0000 H   0  0  0  0  0  0  0  0  0  0  0  0
    0.6200    2.5130    0.0000 H   0  0  0  0  0  0  0  0  0  0  0  0
   10.1244    0.0000    0.0000 H   0  0  0  0  0  0  0  0  0  0  0  0
  1 77  1  0  0  0  0
  2  4  1  0  0  0  0
  2  5  2  0  0  0  0
  2  6  2  0  0  0  0
  2 32  1  0  0  0  0
  3 24  2  0  0  0  0
  4 28  1  0  0  0  0
  7 35  1  0  0  0  0
  7 38  1  0  0  0  0
  8 17  1  0  0  0  0
  8 18  1  0  0  0  0
  8 19  1  0  0  0  0
  9 13  1  0  0  0  0
  9 24  1  0  0  0  0
  9 53  1  0  0  0  0
 10 11  1  0  0  0  0
 10 12  1  0  0  0  0
 10 16  1  0  0  0  0
 10 39  1  0  0  0  0
 11 14  1  0  0  0  0
 11 40  1  0  0  0  0
 11 41  1  0  0  0  0
 12 15  1  0  0  0  0
 12 42  1  0  0  0  0
 12 43  1  0  0  0  0
 13 14  1  0  0  0  0
 13 15  1  0  0  0  0
 13 44  1  0  0  0  0
 14 45  1  0  0  0  0
 14 46  1  0  0  0  0
 15 47  1  0  0  0  0
 15 48  1  0  0  0  0
 16 17  1  0  0  0  0
 16 49  1  0  0  0  0
 16 50  1  0  0  0  0
 17 51  1  0  0  0  0
 17 52  1  0  0  0  0
 18 20  1  0  0  0  0
 18 54  1  0  0  0  0
 18 55  1  0  0  0  0
 19 21  1  0  0  0  0
 19 56  1  0  0  0  0
 19 57  1  0  0  0  0
 20 22  1  0  0  0  0
 20 58  1  0  0  0  0
 20 59  1  0  0  0  0
 21 23  1  0  0  0  0
 21 60  1  0  0  0  0
 21 61  1  0  0  0  0
 22 23  2  0  0  0  0
 22 25  1  0  0  0  0
 23 26  1  0  0  0  0
 24 27  1  0  0  0  0
 25 28  2  0  0  0  0
 25 62  1  0  0  0  0
 26 29  2  0  0  0  0
 26 63  1  0  0  0  0
 27 30  2  0  0  0  0
 27 64  1  0  0  0  0
 28 29  1  0  0  0  0
 29 65  1  0  0  0  0
 30 31  1  0  0  0  0
 30 66  1  0  0  0  0
 31 33  2  0  0  0  0
 31 34  1  0  0  0  0
 32 67  1  0  0  0  0
 32 68  1  0  0  0  0
 32 69  1  0  0  0  0
 33 35  1  0  0  0  0
 33 70  1  0  0  0  0
 34 36  2  0  0  0  0
 34 71  1  0  0  0  0
 35 37  2  0  0  0  0
 36 37  1  0  0  0  0
 36 72  1  0  0  0  0
 37 73  1  0  0  0  0
 38 74  1  0  0  0  0
 38 75  1  0  0  0  0
 38 76  1  0  0  0  0
M  END
> <PUBCHEM_COMPOUND_CID>
45262347

> <PUBCHEM_COMPOUND_CANONICALIZED>
1

> <PUBCHEM_CACTVS_COMPLEXITY>
849

> <PUBCHEM_CACTVS_HBOND_ACCEPTOR>
6

> <PUBCHEM_CACTVS_HBOND_DONOR>
2

> <PUBCHEM_CACTVS_ROTATABLE_BOND>
9

> <PUBCHEM_CACTVS_SUBSKEYS>
AAADcfB7OABEAAAAAAAAAAAAAAAAAAAAAAAwYMAABYAAAAABQAAAHgQQAAAADSzBmAayBoPABAKIAiFSEHCCCAAgIAAIiIAOCMgMJiKEsRuEMCAk1hGIqYeQ0LIOoAABAAAQAABQAAIAACAAAAAAAAAAAA==

> <PUBCHEM_IUPAC_OPENEYE_NAME>
[3-[2-[4-[[(E)-3-(3-methoxyphenyl)prop-2-enoyl]amino]cyclohexyl]ethyl]-1,2,4,5-tetrahydro-3-benzazepin-7-yl] methanesulfonate;hydrochloride

> <PUBCHEM_IUPAC_CAS_NAME>
methanesulfonic acid [3-[2-[4-[[(E)-3-(3-methoxyphenyl)-1-oxoprop-2-enyl]amino]cyclohexyl]ethyl]-1,2,4,5-tetrahydro-3-benzazepin-7-yl] ester;hydrochloride

> <PUBCHEM_IUPAC_NAME_MARKUP>
[3-[2-[4-[[(<I>E</I>)-3-(3-methoxyphenyl)prop-2-enoyl]amino]cyclohexyl]ethyl]-1,2,4,5-tetrahydro-3-benzazepin-7-yl] methanesulfonate;hydrochloride

> <PUBCHEM_IUPAC_NAME>
[3-[2-[4-[[(E)-3-(3-methoxyphenyl)prop-2-enoyl]amino]cyclohexyl]ethyl]-1,2,4,5-tetrahydro-3-benzazepin-7-yl] methanesulfonate;hydrochloride

> <PUBCHEM_IUPAC_SYSTEMATIC_NAME>
[3-[2-[4-[[(E)-3-(3-methoxyphenyl)prop-2-enoyl]amino]cyclohexyl]ethyl]-1,2,4,5-tetrahydro-3-benzazepin-7-yl] methanesulfonate;hydrochloride

> <PUBCHEM_IUPAC_TRADITIONAL_NAME>
methanesulfonic acid [3-[2-[4-[[(E)-3-(3-methoxyphenyl)acryloyl]amino]cyclohexyl]ethyl]-1,2,4,5-tetrahydro-3-benzazepin-7-yl] ester;hydrochloride

> <PUBCHEM_IUPAC_INCHI>
InChI=1S/C29H38N2O5S.ClH/c1-35-27-5-3-4-23(20-27)8-13-29(32)30-26-10-6-22(7-11-26)14-17-31-18-15-24-9-12-28(36-37(2,33)34)21-25(24)16-19-31;/h3-5,8-9,12-13,20-22,26H,6-7,10-11,14-19H2,1-2H3,(H,30,32);1H/b13-8+;

> <PUBCHEM_IUPAC_INCHIKEY>
IBXACZQZOLOKMN-FNXZNAJJSA-N

> <PUBCHEM_EXACT_MASS>
562.2268212

> <PUBCHEM_MOLECULAR_FORMULA>
C29H39ClN2O5S

> <PUBCHEM_MOLECULAR_WEIGHT>
563.1

> <PUBCHEM_OPENEYE_CAN_SMILES>
COC1=CC=CC(=C1)C=CC(=O)NC2CCC(CC2)CCN3CCC4=C(CC3)C=C(C=C4)OS(=O)(=O)C.Cl

> <PUBCHEM_OPENEYE_ISO_SMILES>
COC1=CC=CC(=C1)/C=C/C(=O)NC2CCC(CC2)CCN3CCC4=C(CC3)C=C(C=C4)OS(=O)(=O)C.Cl

> <PUBCHEM_CACTVS_TPSA>
93.3

> <PUBCHEM_MONOISOTOPIC_WEIGHT>
562.2268212

> <PUBCHEM_TOTAL_CHARGE>
0

> <PUBCHEM_HEAVY_ATOM_COUNT>
38

> <PUBCHEM_ATOM_DEF_STEREO_COUNT>
0

> <PUBCHEM_ATOM_UDEF_STEREO_COUNT>
0

> <PUBCHEM_BOND_DEF_STEREO_COUNT>
1

> <PUBCHEM_BOND_UDEF_STEREO_COUNT>
0

> <PUBCHEM_ISOTOPIC_ATOM_COUNT>
0

> <PUBCHEM_COMPONENT_COUNT>
2

> <PUBCHEM_CACTVS_TAUTO_COUNT>
-1

> <PUBCHEM_COORDINATE_TYPE>
1
5
255

> <PUBCHEM_BONDANNOTATIONS>
22  23  8
22  25  8
23  26  8
25  28  8
26  29  8
28  29  8
31  33  8
31  34  8
33  35  8
34  36  8
35  37  8
36  37  8

$$$$
