127046819
  -OEChem-09292322372D

 61 65  0     0  0  0  0  0  0999 V2000
    8.4530   -2.5406    0.0000 S   0  0  0  0  0  0  0  0  0  0  0  0
    9.4035   -2.2300    0.0000 O   0  0  0  0  0  0  0  0  0  0  0  0
    7.5025   -2.8513    0.0000 O   0  0  0  0  0  0  0  0  0  0  0  0
    4.5981   -1.7854    0.0000 N   0  0  0  0  0  0  0  0  0  0  0  0
    2.8660   -2.7854    0.0000 N   0  0  0  0  0  0  0  0  0  0  0  0
    8.1424   -1.5901    0.0000 N   0  0  0  0  0  0  0  0  0  0  0  0
    6.3301   -1.7854    0.0000 N   0  0  0  0  0  0  0  0  0  0  0  0
    6.1209    4.1864    0.0000 N   0  0  0  0  0  0  0  0  0  0  0  0
    4.5981   -2.7854    0.0000 C   0  0  0  0  0  0  0  0  0  0  0  0
    3.7320   -1.2854    0.0000 C   0  0  0  0  0  0  0  0  0  0  0  0
    3.7320   -3.2854    0.0000 C   0  0  0  0  0  0  0  0  0  0  0  0
    2.8660   -1.7854    0.0000 C   0  0  0  0  0  0  0  0  0  0  0  0
    5.4641   -1.2854    0.0000 C   0  0  0  0  0  0  0  0  0  0  0  0
    7.1962   -1.2854    0.0000 C   0  0  0  0  0  0  0  0  0  0  0  0
    7.1962   -0.2854    0.0000 C   0  0  0  0  0  0  0  0  0  0  0  0
    6.3301    0.2146    0.0000 C   0  0  0  0  0  0  0  0  0  0  0  0
    8.7637   -3.4912    0.0000 C   0  0  0  0  0  0  0  0  0  0  0  0
    5.4641   -0.2854    0.0000 C   0  0  0  0  0  0  0  0  0  0  0  0
    9.7422   -3.6974    0.0000 C   0  0  0  0  0  0  0  0  0  0  0  0
    8.7260   -0.7854    0.0000 C   0  0  0  0  0  0  0  0  0  0  0  0
    8.1424    0.0193    0.0000 C   0  0  0  0  0  0  0  0  0  0  0  0
    2.0000   -3.2854    0.0000 C   0  0  0  0  0  0  0  0  0  0  0  0
    6.3301    1.2146    0.0000 C   0  0  0  0  0  0  0  0  0  0  0  0
   10.0529   -4.6479    0.0000 C   0  0  0  0  0  0  0  0  0  0  0  0
   10.4100   -2.9531    0.0000 C   0  0  0  0  0  0  0  0  0  0  0  0
    5.4641    1.7146    0.0000 C   0  0  0  0  0  0  0  0  0  0  0  0
    7.1962    1.7146    0.0000 C   0  0  0  0  0  0  0  0  0  0  0  0
    5.4641    2.7146    0.0000 C   0  0  0  0  0  0  0  0  0  0  0  0
    6.3301    3.2146    0.0000 C   0  0  0  0  0  0  0  0  0  0  0  0
    7.1962    2.7146    0.0000 C   0  0  0  0  0  0  0  0  0  0  0  0
    4.7271    3.3817    0.0000 C   0  0  0  0  0  0  0  0  0  0  0  0
    5.1322    4.2895    0.0000 C   0  0  0  0  0  0  0  0  0  0  0  0
    4.8101   -3.3680    0.0000 H   0  0  0  0  0  0  0  0  0  0  0  0
    5.2087   -2.6777    0.0000 H   0  0  0  0  0  0  0  0  0  0  0  0
    4.1306   -0.8104    0.0000 H   0  0  0  0  0  0  0  0  0  0  0  0
    3.3335   -0.8104    0.0000 H   0  0  0  0  0  0  0  0  0  0  0  0
    3.3335   -3.7603    0.0000 H   0  0  0  0  0  0  0  0  0  0  0  0
    4.1306   -3.7603    0.0000 H   0  0  0  0  0  0  0  0  0  0  0  0
    2.6540   -1.2028    0.0000 H   0  0  0  0  0  0  0  0  0  0  0  0
    2.2554   -1.8930    0.0000 H   0  0  0  0  0  0  0  0  0  0  0  0
    8.1499   -3.5785    0.0000 H   0  0  0  0  0  0  0  0  0  0  0  0
    8.7431   -4.1108    0.0000 H   0  0  0  0  0  0  0  0  0  0  0  0
    4.9272    0.0246    0.0000 H   0  0  0  0  0  0  0  0  0  0  0  0
    9.5496   -3.1080    0.0000 H   0  0  0  0  0  0  0  0  0  0  0  0
    9.3460   -0.7854    0.0000 H   0  0  0  0  0  0  0  0  0  0  0  0
    8.3350    0.6087    0.0000 H   0  0  0  0  0  0  0  0  0  0  0  0
    1.6900   -2.7484    0.0000 H   0  0  0  0  0  0  0  0  0  0  0  0
    1.4631   -3.5954    0.0000 H   0  0  0  0  0  0  0  0  0  0  0  0
    2.3100   -3.8223    0.0000 H   0  0  0  0  0  0  0  0  0  0  0  0
    9.4635   -4.8405    0.0000 H   0  0  0  0  0  0  0  0  0  0  0  0
   10.2455   -5.2372    0.0000 H   0  0  0  0  0  0  0  0  0  0  0  0
   10.6422   -4.4553    0.0000 H   0  0  0  0  0  0  0  0  0  0  0  0
   10.8715   -3.3671    0.0000 H   0  0  0  0  0  0  0  0  0  0  0  0
   10.8241   -2.4916    0.0000 H   0  0  0  0  0  0  0  0  0  0  0  0
    9.9486   -2.5390    0.0000 H   0  0  0  0  0  0  0  0  0  0  0  0
    4.9272    1.4046    0.0000 H   0  0  0  0  0  0  0  0  0  0  0  0
    7.7331    1.4046    0.0000 H   0  0  0  0  0  0  0  0  0  0  0  0
    7.7331    3.0246    0.0000 H   0  0  0  0  0  0  0  0  0  0  0  0
    4.1204    3.2538    0.0000 H   0  0  0  0  0  0  0  0  0  0  0  0
    6.5350    4.6479    0.0000 H   0  0  0  0  0  0  0  0  0  0  0  0
    4.8222    4.8264    0.0000 H   0  0  0  0  0  0  0  0  0  0  0  0
  1  2  2  0  0  0  0
  1  3  2  0  0  0  0
  1  6  1  0  0  0  0
  1 17  1  0  0  0  0
  4  9  1  0  0  0  0
  4 10  1  0  0  0  0
  4 13  1  0  0  0  0
  5 11  1  0  0  0  0
  5 12  1  0  0  0  0
  5 22  1  0  0  0  0
  6 14  1  0  0  0  0
  6 20  1  0  0  0  0
  7 13  2  0  0  0  0
  7 14  1  0  0  0  0
  8 29  1  0  0  0  0
  8 32  1  0  0  0  0
  8 60  1  0  0  0  0
  9 11  1  0  0  0  0
  9 33  1  0  0  0  0
  9 34  1  0  0  0  0
 10 12  1  0  0  0  0
 10 35  1  0  0  0  0
 10 36  1  0  0  0  0
 11 37  1  0  0  0  0
 11 38  1  0  0  0  0
 12 39  1  0  0  0  0
 12 40  1  0  0  0  0
 13 18  1  0  0  0  0
 14 15  2  0  0  0  0
 15 16  1  0  0  0  0
 15 21  1  0  0  0  0
 16 18  2  0  0  0  0
 16 23  1  0  0  0  0
 17 19  1  0  0  0  0
 17 41  1  0  0  0  0
 17 42  1  0  0  0  0
 18 43  1  0  0  0  0
 19 24  1  0  0  0  0
 19 25  1  0  0  0  0
 19 44  1  0  0  0  0
 20 21  2  0  0  0  0
 20 45  1  0  0  0  0
 21 46  1  0  0  0  0
 22 47  1  0  0  0  0
 22 48  1  0  0  0  0
 22 49  1  0  0  0  0
 23 26  2  0  0  0  0
 23 27  1  0  0  0  0
 24 50  1  0  0  0  0
 24 51  1  0  0  0  0
 24 52  1  0  0  0  0
 25 53  1  0  0  0  0
 25 54  1  0  0  0  0
 25 55  1  0  0  0  0
 26 28  1  0  0  0  0
 26 56  1  0  0  0  0
 27 30  2  0  0  0  0
 27 57  1  0  0  0  0
 28 29  2  0  0  0  0
 28 31  1  0  0  0  0
 29 30  1  0  0  0  0
 30 58  1  0  0  0  0
 31 32  2  0  0  0  0
 31 59  1  0  0  0  0
 32 61  1  0  0  0  0
M  END
> <PUBCHEM_COMPOUND_CID>
127046819

> <PUBCHEM_COMPOUND_CANONICALIZED>
1

> <PUBCHEM_CACTVS_COMPLEXITY>
748

> <PUBCHEM_CACTVS_HBOND_ACCEPTOR>
5

> <PUBCHEM_CACTVS_HBOND_DONOR>
1

> <PUBCHEM_CACTVS_ROTATABLE_BOND>
5

> <PUBCHEM_CACTVS_SUBSKEYS>
AAADceB7sABAAAAAAAAAAAAAAAAAAWLAAAA8WIAAAAAAAFgB/gAAHAQQQAAADQjFXwS/8P/JkAKgAzZnZHDCgCkxAqAJ2aA4ZJiIaOLAmZGUIAhokALIyCcQgMAOiAACAAACAAAQAAQAAAQAAAAAAAAAAA==

> <PUBCHEM_IUPAC_OPENEYE_NAME>
4-(1H-indol-5-yl)-1-isobutylsulfonyl-6-(4-methylpiperazin-1-yl)pyrrolo[2,3-b]pyridine

> <PUBCHEM_IUPAC_CAS_NAME>
4-(1H-indol-5-yl)-6-(4-methyl-1-piperazinyl)-1-(2-methylpropylsulfonyl)pyrrolo[2,3-b]pyridine

> <PUBCHEM_IUPAC_NAME_MARKUP>
4-(1<I>H</I>-indol-5-yl)-6-(4-methylpiperazin-1-yl)-1-(2-methylpropylsulfonyl)pyrrolo[2,3-b]pyridine

> <PUBCHEM_IUPAC_NAME>
4-(1H-indol-5-yl)-6-(4-methylpiperazin-1-yl)-1-(2-methylpropylsulfonyl)pyrrolo[2,3-b]pyridine

> <PUBCHEM_IUPAC_SYSTEMATIC_NAME>
4-(1H-indol-5-yl)-6-(4-methylpiperazin-1-yl)-1-(2-methylpropylsulfonyl)pyrrolo[2,3-b]pyridine

> <PUBCHEM_IUPAC_TRADITIONAL_NAME>
4-(1H-indol-5-yl)-1-isobutylsulfonyl-6-(4-methylpiperazino)pyrrolo[2,3-b]pyridine

> <PUBCHEM_IUPAC_INCHI>
InChI=1S/C24H29N5O2S/c1-17(2)16-32(30,31)29-9-7-20-21(18-4-5-22-19(14-18)6-8-25-22)15-23(26-24(20)29)28-12-10-27(3)11-13-28/h4-9,14-15,17,25H,10-13,16H2,1-3H3

> <PUBCHEM_IUPAC_INCHIKEY>
PRQQYPXIMIPIPH-UHFFFAOYSA-N

> <PUBCHEM_XLOGP3_AA>
4.3

> <PUBCHEM_EXACT_MASS>
451.20419636

> <PUBCHEM_MOLECULAR_FORMULA>
C24H29N5O2S

> <PUBCHEM_MOLECULAR_WEIGHT>
451.6

> <PUBCHEM_OPENEYE_CAN_SMILES>
CC(C)CS(=O)(=O)N1C=CC2=C1N=C(C=C2C3=CC4=C(C=C3)NC=C4)N5CCN(CC5)C

> <PUBCHEM_OPENEYE_ISO_SMILES>
CC(C)CS(=O)(=O)N1C=CC2=C1N=C(C=C2C3=CC4=C(C=C3)NC=C4)N5CCN(CC5)C

> <PUBCHEM_CACTVS_TPSA>
82.6

> <PUBCHEM_MONOISOTOPIC_WEIGHT>
451.20419636

> <PUBCHEM_TOTAL_CHARGE>
0

> <PUBCHEM_HEAVY_ATOM_COUNT>
32

> <PUBCHEM_ATOM_DEF_STEREO_COUNT>
0

> <PUBCHEM_ATOM_UDEF_STEREO_COUNT>
0

> <PUBCHEM_BOND_DEF_STEREO_COUNT>
0

> <PUBCHEM_BOND_UDEF_STEREO_COUNT>
0

> <PUBCHEM_ISOTOPIC_ATOM_COUNT>
0

> <PUBCHEM_COMPONENT_COUNT>
1

> <PUBCHEM_CACTVS_TAUTO_COUNT>
-1

> <PUBCHEM_COORDINATE_TYPE>
1
5
255

> <PUBCHEM_BONDANNOTATIONS>
13  18  8
14  15  8
15  16  8
15  21  8
16  18  8
20  21  8
23  26  8
23  27  8
26  28  8
27  30  8
28  29  8
28  31  8
29  30  8
31  32  8
6  14  8
6  20  8
7  13  8
7  14  8
8  29  8
8  32  8

$$$$
