10573876
  -OEChem-09292322102D

 51 53  0     1  0  0  0  0  0999 V2000
    2.0000   -2.7694    0.0000 Br  0  0  0  0  0  0  0  0  0  0  0  0
    3.7320    0.2306    0.0000 S   0  0  0  0  0  0  0  0  0  0  0  0
    4.7320    0.2306    0.0000 O   0  0  0  0  0  0  0  0  0  0  0  0
    2.7320    0.2306    0.0000 O   0  0  0  0  0  0  0  0  0  0  0  0
    3.7320    1.2306    0.0000 N   0  0  3  0  0  0  0  0  0  0  0  0
    7.1863    1.8695    0.0000 N   0  0  0  0  0  0  0  0  0  0  0  0
    4.5411    1.8184    0.0000 C   0  0  2  0  0  0  0  0  0  0  0  0
    4.2320    2.7694    0.0000 C   0  0  0  0  0  0  0  0  0  0  0  0
    5.4921    1.5094    0.0000 C   0  0  0  0  0  0  0  0  0  0  0  0
    3.2320    2.7694    0.0000 C   0  0  0  0  0  0  0  0  0  0  0  0
    2.9230    1.8184    0.0000 C   0  0  0  0  0  0  0  0  0  0  0  0
    6.2353    2.1785    0.0000 C   0  0  0  0  0  0  0  0  0  0  0  0
    9.0884    1.2514    0.0000 C   0  0  0  0  0  0  0  0  0  0  0  0
    7.3942    0.8913    0.0000 C   0  0  0  0  0  0  0  0  0  0  0  0
    7.9295    2.5386    0.0000 C   0  0  0  0  0  0  0  0  0  0  0  0
    8.3453    0.5823    0.0000 C   0  0  0  0  0  0  0  0  0  0  0  0
    8.8805    2.2296    0.0000 C   0  0  0  0  0  0  0  0  0  0  0  0
   10.0395    0.9424    0.0000 C   0  0  0  0  0  0  0  0  0  0  0  0
    3.7320   -0.7694    0.0000 C   0  0  0  0  0  0  0  0  0  0  0  0
    2.8660   -1.2694    0.0000 C   0  0  0  0  0  0  0  0  0  0  0  0
    4.5981   -1.2694    0.0000 C   0  0  0  0  0  0  0  0  0  0  0  0
    2.8660   -2.2694    0.0000 C   0  0  0  0  0  0  0  0  0  0  0  0
    4.5981   -2.2694    0.0000 C   0  0  0  0  0  0  0  0  0  0  0  0
    3.7320   -2.7694    0.0000 C   0  0  0  0  0  0  0  0  0  0  0  0
    4.6381    1.2060    0.0000 H   0  0  0  0  0  0  0  0  0  0  0  0
    4.8385    2.8983    0.0000 H   0  0  0  0  0  0  0  0  0  0  0  0
    4.1672    3.3860    0.0000 H   0  0  0  0  0  0  0  0  0  0  0  0
    5.2011    0.9619    0.0000 H   0  0  0  0  0  0  0  0  0  0  0  0
    5.9807    1.1276    0.0000 H   0  0  0  0  0  0  0  0  0  0  0  0
    3.2969    3.3860    0.0000 H   0  0  0  0  0  0  0  0  0  0  0  0
    2.6256    2.8983    0.0000 H   0  0  0  0  0  0  0  0  0  0  0  0
    2.3566    2.0705    0.0000 H   0  0  0  0  0  0  0  0  0  0  0  0
    2.6130    1.2814    0.0000 H   0  0  0  0  0  0  0  0  0  0  0  0
    6.5263    2.7259    0.0000 H   0  0  0  0  0  0  0  0  0  0  0  0
    5.7467    2.5602    0.0000 H   0  0  0  0  0  0  0  0  0  0  0  0
    9.5492    1.6663    0.0000 H   0  0  0  0  0  0  0  0  0  0  0  0
    6.7746    0.8697    0.0000 H   0  0  0  0  0  0  0  0  0  0  0  0
    7.3080    0.2773    0.0000 H   0  0  0  0  0  0  0  0  0  0  0  0
    8.2205    3.0860    0.0000 H   0  0  0  0  0  0  0  0  0  0  0  0
    7.4409    2.9203    0.0000 H   0  0  0  0  0  0  0  0  0  0  0  0
    8.0542    0.0349    0.0000 H   0  0  0  0  0  0  0  0  0  0  0  0
    8.8339    0.2006    0.0000 H   0  0  0  0  0  0  0  0  0  0  0  0
    9.5002    2.2512    0.0000 H   0  0  0  0  0  0  0  0  0  0  0  0
    8.9668    2.8435    0.0000 H   0  0  0  0  0  0  0  0  0  0  0  0
    9.8479    0.3528    0.0000 H   0  0  0  0  0  0  0  0  0  0  0  0
   10.6292    0.7508    0.0000 H   0  0  0  0  0  0  0  0  0  0  0  0
   10.2311    1.5321    0.0000 H   0  0  0  0  0  0  0  0  0  0  0  0
    2.3291   -0.9594    0.0000 H   0  0  0  0  0  0  0  0  0  0  0  0
    5.1350   -0.9594    0.0000 H   0  0  0  0  0  0  0  0  0  0  0  0
    5.1350   -2.5794    0.0000 H   0  0  0  0  0  0  0  0  0  0  0  0
    3.7320   -3.3894    0.0000 H   0  0  0  0  0  0  0  0  0  0  0  0
  1 22  1  0  0  0  0
  2  3  2  0  0  0  0
  2  4  2  0  0  0  0
  2  5  1  0  0  0  0
  2 19  1  0  0  0  0
  5  7  1  0  0  0  0
  5 11  1  0  0  0  0
  6 12  1  0  0  0  0
  6 14  1  0  0  0  0
  6 15  1  0  0  0  0
  7  8  1  0  0  0  0
  7  9  1  6  0  0  0
  7 25  1  0  0  0  0
  8 10  1  0  0  0  0
  8 26  1  0  0  0  0
  8 27  1  0  0  0  0
  9 12  1  0  0  0  0
  9 28  1  0  0  0  0
  9 29  1  0  0  0  0
 10 11  1  0  0  0  0
 10 30  1  0  0  0  0
 10 31  1  0  0  0  0
 11 32  1  0  0  0  0
 11 33  1  0  0  0  0
 12 34  1  0  0  0  0
 12 35  1  0  0  0  0
 13 16  1  0  0  0  0
 13 17  1  0  0  0  0
 13 18  1  0  0  0  0
 13 36  1  0  0  0  0
 14 16  1  0  0  0  0
 14 37  1  0  0  0  0
 14 38  1  0  0  0  0
 15 17  1  0  0  0  0
 15 39  1  0  0  0  0
 15 40  1  0  0  0  0
 16 41  1  0  0  0  0
 16 42  1  0  0  0  0
 17 43  1  0  0  0  0
 17 44  1  0  0  0  0
 18 45  1  0  0  0  0
 18 46  1  0  0  0  0
 18 47  1  0  0  0  0
 19 20  2  0  0  0  0
 19 21  1  0  0  0  0
 20 22  1  0  0  0  0
 20 48  1  0  0  0  0
 21 23  2  0  0  0  0
 21 49  1  0  0  0  0
 22 24  2  0  0  0  0
 23 24  1  0  0  0  0
 23 50  1  0  0  0  0
 24 51  1  0  0  0  0
M  END
> <PUBCHEM_COMPOUND_CID>
10573876

> <PUBCHEM_COMPOUND_CANONICALIZED>
1

> <PUBCHEM_CACTVS_COMPLEXITY>
500

> <PUBCHEM_CACTVS_HBOND_ACCEPTOR>
4

> <PUBCHEM_CACTVS_HBOND_DONOR>
0

> <PUBCHEM_CACTVS_ROTATABLE_BOND>
5

> <PUBCHEM_CACTVS_SUBSKEYS>
AAADceB7MABAEAAAAAAAAAAAAAAAAWAAAAA8QAAAAAAAAAABAAAAHARAQAABrSjBUAQyAYMAAAKAACBCAHBCABAgAAQIiBgIAKgIICKA0RCEIAAggACIihcQAAAKAAAAAAgAAAAAAAAAEAAAAAAAAAAAAA==

> <PUBCHEM_IUPAC_OPENEYE_NAME>
1-[2-[(2R)-1-(3-bromophenyl)sulfonylpyrrolidin-2-yl]ethyl]-4-methyl-piperidine

> <PUBCHEM_IUPAC_CAS_NAME>
1-[2-[(2R)-1-(3-bromophenyl)sulfonyl-2-pyrrolidinyl]ethyl]-4-methylpiperidine

> <PUBCHEM_IUPAC_NAME_MARKUP>
1-[2-[(2<I>R</I>)-1-(3-bromophenyl)sulfonylpyrrolidin-2-yl]ethyl]-4-methylpiperidine

> <PUBCHEM_IUPAC_NAME>
1-[2-[(2R)-1-(3-bromophenyl)sulfonylpyrrolidin-2-yl]ethyl]-4-methylpiperidine

> <PUBCHEM_IUPAC_SYSTEMATIC_NAME>
1-[2-[(2R)-1-(3-bromophenyl)sulfonylpyrrolidin-2-yl]ethyl]-4-methyl-piperidine

> <PUBCHEM_IUPAC_TRADITIONAL_NAME>
1-[2-[(2R)-1-(3-bromophenyl)sulfonylpyrrolidin-2-yl]ethyl]-4-methyl-piperidine

> <PUBCHEM_IUPAC_INCHI>
InChI=1S/C18H27BrN2O2S/c1-15-7-11-20(12-8-15)13-9-17-5-3-10-21(17)24(22,23)18-6-2-4-16(19)14-18/h2,4,6,14-15,17H,3,5,7-13H2,1H3/t17-/m1/s1

> <PUBCHEM_IUPAC_INCHIKEY>
JBIWUVRCMUOUNK-QGZVFWFLSA-N

> <PUBCHEM_XLOGP3_AA>
4

> <PUBCHEM_EXACT_MASS>
414.09766

> <PUBCHEM_MOLECULAR_FORMULA>
C18H27BrN2O2S

> <PUBCHEM_MOLECULAR_WEIGHT>
415.4

> <PUBCHEM_OPENEYE_CAN_SMILES>
CC1CCN(CC1)CCC2CCCN2S(=O)(=O)C3=CC(=CC=C3)Br

> <PUBCHEM_OPENEYE_ISO_SMILES>
CC1CCN(CC1)CC[C@H]2CCCN2S(=O)(=O)C3=CC(=CC=C3)Br

> <PUBCHEM_CACTVS_TPSA>
49

> <PUBCHEM_MONOISOTOPIC_WEIGHT>
414.09766

> <PUBCHEM_TOTAL_CHARGE>
0

> <PUBCHEM_HEAVY_ATOM_COUNT>
24

> <PUBCHEM_ATOM_DEF_STEREO_COUNT>
1

> <PUBCHEM_ATOM_UDEF_STEREO_COUNT>
0

> <PUBCHEM_BOND_DEF_STEREO_COUNT>
0

> <PUBCHEM_BOND_UDEF_STEREO_COUNT>
0

> <PUBCHEM_ISOTOPIC_ATOM_COUNT>
0

> <PUBCHEM_COMPONENT_COUNT>
1

> <PUBCHEM_CACTVS_TAUTO_COUNT>
-1

> <PUBCHEM_COORDINATE_TYPE>
1
5
255

> <PUBCHEM_BONDANNOTATIONS>
19  20  8
19  21  8
20  22  8
21  23  8
22  24  8
23  24  8
7  9  6

$$$$
