46232064
  -OEChem-09292322292D

 56 60  0     1  0  0  0  0  0999 V2000
    2.1374    3.8402    0.0000 Cl  0  0  0  0  0  0  0  0  0  0  0  0
    9.8361   -4.4356    0.0000 F   0  0  0  0  0  0  0  0  0  0  0  0
    8.4476   -4.7039    0.0000 F   0  0  0  0  0  0  0  0  0  0  0  0
    9.5679   -3.0471    0.0000 F   0  0  0  0  0  0  0  0  0  0  0  0
    2.5932    1.8433    0.0000 O   0  0  0  0  0  0  0  0  0  0  0  0
    8.1793   -3.3153    0.0000 O   0  0  0  0  0  0  0  0  0  0  0  0
    7.0983    3.9220    0.0000 N   0  0  3  0  0  0  0  0  0  0  0  0
    6.8758    2.9471    0.0000 C   0  0  1  0  0  0  0  0  0  0  0  0
    5.9748    2.5132    0.0000 C   0  0  2  0  0  0  0  0  0  0  0  0
    7.7453    2.3737    0.0000 C   0  0  0  0  0  0  0  0  0  0  0  0
    5.8810    1.4758    0.0000 C   0  0  0  0  0  0  0  0  0  0  0  0
    7.6755    1.3344    0.0000 C   0  0  0  0  0  0  0  0  0  0  0  0
    5.0738    2.9471    0.0000 C   0  0  0  0  0  0  0  0  0  0  0  0
    6.7370    0.8824    0.0000 C   0  0  0  0  0  0  0  0  0  0  0  0
    6.4748    4.7039    0.0000 C   0  0  0  0  0  0  0  0  0  0  0  0
    4.8513    3.9220    0.0000 C   0  0  0  0  0  0  0  0  0  0  0  0
    5.4748    4.7039    0.0000 C   0  0  0  0  0  0  0  0  0  0  0  0
    6.6643   -0.2001    0.0000 C   0  0  0  0  0  0  0  0  0  0  0  0
    8.0732    4.1446    0.0000 C   0  0  0  0  0  0  0  0  0  0  0  0
    4.8928    1.0278    0.0000 C   0  0  0  0  0  0  0  0  0  0  0  0
    4.3213    2.2269    0.0000 C   0  0  0  0  0  0  0  0  0  0  0  0
    3.8608    4.2444    0.0000 C   0  0  0  0  0  0  0  0  0  0  0  0
    5.6868   -0.6709    0.0000 C   0  0  0  0  0  0  0  0  0  0  0  0
    4.7950   -0.0528    0.0000 C   0  0  0  0  0  0  0  0  0  0  0  0
    3.3236    2.5263    0.0000 C   0  0  0  0  0  0  0  0  0  0  0  0
    7.4927   -0.7602    0.0000 C   0  0  0  0  0  0  0  0  0  0  0  0
    3.0918    3.5418    0.0000 C   0  0  0  0  0  0  0  0  0  0  0  0
    7.4218   -1.7577    0.0000 C   0  0  0  0  0  0  0  0  0  0  0  0
    8.3920   -0.3229    0.0000 C   0  0  0  0  0  0  0  0  0  0  0  0
    8.2502   -2.3178    0.0000 C   0  0  0  0  0  0  0  0  0  0  0  0
    9.2204   -0.8830    0.0000 C   0  0  0  0  0  0  0  0  0  0  0  0
    9.1495   -1.8805    0.0000 C   0  0  0  0  0  0  0  0  0  0  0  0
    9.0077   -3.8755    0.0000 C   0  0  0  0  0  0  0  0  0  0  0  0
    7.6646    3.2637    0.0000 H   0  0  0  0  0  0  0  0  0  0  0  0
    5.2354    2.0939    0.0000 H   0  0  0  0  0  0  0  0  0  0  0  0
    8.3477    2.2269    0.0000 H   0  0  0  0  0  0  0  0  0  0  0  0
    7.9931    2.9420    0.0000 H   0  0  0  0  0  0  0  0  0  0  0  0
    7.8450    0.7380    0.0000 H   0  0  0  0  0  0  0  0  0  0  0  0
    8.2921    1.3993    0.0000 H   0  0  0  0  0  0  0  0  0  0  0  0
    7.0334    4.9729    0.0000 H   0  0  0  0  0  0  0  0  0  0  0  0
    6.3368    5.3083    0.0000 H   0  0  0  0  0  0  0  0  0  0  0  0
    5.6128    5.3083    0.0000 H   0  0  0  0  0  0  0  0  0  0  0  0
    4.9162    4.9729    0.0000 H   0  0  0  0  0  0  0  0  0  0  0  0
    8.2112    3.5401    0.0000 H   0  0  0  0  0  0  0  0  0  0  0  0
    8.6777    4.2825    0.0000 H   0  0  0  0  0  0  0  0  0  0  0  0
    7.9352    4.7490    0.0000 H   0  0  0  0  0  0  0  0  0  0  0  0
    4.3873    1.3869    0.0000 H   0  0  0  0  0  0  0  0  0  0  0  0
    4.4662    1.6241    0.0000 H   0  0  0  0  0  0  0  0  0  0  0  0
    3.7298    4.8504    0.0000 H   0  0  0  0  0  0  0  0  0  0  0  0
    5.6380   -1.2890    0.0000 H   0  0  0  0  0  0  0  0  0  0  0  0
    4.2334   -0.3153    0.0000 H   0  0  0  0  0  0  0  0  0  0  0  0
    6.8643   -2.0289    0.0000 H   0  0  0  0  0  0  0  0  0  0  0  0
    8.4359    0.2956    0.0000 H   0  0  0  0  0  0  0  0  0  0  0  0
    2.0000    2.0238    0.0000 H   0  0  0  0  0  0  0  0  0  0  0  0
    9.7780   -0.6119    0.0000 H   0  0  0  0  0  0  0  0  0  0  0  0
    9.6631   -2.2278    0.0000 H   0  0  0  0  0  0  0  0  0  0  0  0
  1 27  1  0  0  0  0
  2 33  1  0  0  0  0
  3 33  1  0  0  0  0
  4 33  1  0  0  0  0
  5 25  1  0  0  0  0
  5 54  1  0  0  0  0
  6 30  1  0  0  0  0
  6 33  1  0  0  0  0
  7  8  1  0  0  0  0
  7 15  1  0  0  0  0
  7 19  1  0  0  0  0
  8  9  1  0  0  0  0
  8 10  1  0  0  0  0
  8 34  1  1  0  0  0
  9 11  1  0  0  0  0
  9 13  1  0  0  0  0
  9 35  1  1  0  0  0
 10 12  1  0  0  0  0
 10 36  1  0  0  0  0
 10 37  1  0  0  0  0
 11 14  1  0  0  0  0
 11 20  2  0  0  0  0
 12 14  1  0  0  0  0
 12 38  1  0  0  0  0
 12 39  1  0  0  0  0
 13 16  1  0  0  0  0
 13 21  2  0  0  0  0
 14 18  2  0  0  0  0
 15 17  1  0  0  0  0
 15 40  1  0  0  0  0
 15 41  1  0  0  0  0
 16 17  1  0  0  0  0
 16 22  2  0  0  0  0
 17 42  1  0  0  0  0
 17 43  1  0  0  0  0
 18 23  1  0  0  0  0
 18 26  1  0  0  0  0
 19 44  1  0  0  0  0
 19 45  1  0  0  0  0
 19 46  1  0  0  0  0
 20 24  1  0  0  0  0
 20 47  1  0  0  0  0
 21 25  1  0  0  0  0
 21 48  1  0  0  0  0
 22 27  1  0  0  0  0
 22 49  1  0  0  0  0
 23 24  2  0  0  0  0
 23 50  1  0  0  0  0
 24 51  1  0  0  0  0
 25 27  2  0  0  0  0
 26 28  2  0  0  0  0
 26 29  1  0  0  0  0
 28 30  1  0  0  0  0
 28 52  1  0  0  0  0
 29 31  2  0  0  0  0
 29 53  1  0  0  0  0
 30 32  2  0  0  0  0
 31 32  1  0  0  0  0
 31 55  1  0  0  0  0
 32 56  1  0  0  0  0
M  END
> <PUBCHEM_COMPOUND_CID>
46232064

> <PUBCHEM_COMPOUND_CANONICALIZED>
1

> <PUBCHEM_CACTVS_COMPLEXITY>
678

> <PUBCHEM_CACTVS_HBOND_ACCEPTOR>
6

> <PUBCHEM_CACTVS_HBOND_DONOR>
1

> <PUBCHEM_CACTVS_ROTATABLE_BOND>
2

> <PUBCHEM_CACTVS_SUBSKEYS>
AAADceB6MYAEAAAAAAAAAAAAAAAAAAAAAAAwYMGABYAAAADBUAAAHwIACAAADS7BmDQyBoMABgCAAiBCAAACCAAgJUAIiAAOC4gMJiKHsxuEcCAkwBGIuAeQ0PMOpAADIAAQCABYAAbAACQQAAAAAAAAAA==

> <PUBCHEM_IUPAC_OPENEYE_NAME>
(6aR,13bS)-11-chloro-7-methyl-4-[3-(trifluoromethoxy)phenyl]-5,6,6a,8,9,13b-hexahydronaphtho[1,2-a][3]benzazepin-12-ol

> <PUBCHEM_IUPAC_CAS_NAME>
(6aR,13bS)-11-chloro-7-methyl-4-[3-(trifluoromethoxy)phenyl]-5,6,6a,8,9,13b-hexahydronaphtho[1,2-a][3]benzazepin-12-ol

> <PUBCHEM_IUPAC_NAME_MARKUP>
(6<I>a</I><I>R</I>,13<I>b</I><I>S</I>)-11-chloro-7-methyl-4-[3-(trifluoromethoxy)phenyl]-5,6,6<I>a</I>,8,9,13<I>b</I>-hexahydronaphtho[1,2-a][3]benzazepin-12-ol

> <PUBCHEM_IUPAC_NAME>
(6aR,13bS)-11-chloro-7-methyl-4-[3-(trifluoromethoxy)phenyl]-5,6,6a,8,9,13b-hexahydronaphtho[1,2-a][3]benzazepin-12-ol

> <PUBCHEM_IUPAC_SYSTEMATIC_NAME>
(6aR,13bS)-11-chloranyl-7-methyl-4-[3-(trifluoromethyloxy)phenyl]-5,6,6a,8,9,13b-hexahydronaphtho[1,2-a][3]benzazepin-12-ol

> <PUBCHEM_IUPAC_TRADITIONAL_NAME>
(6aR,13bS)-11-chloro-7-methyl-4-[3-(trifluoromethoxy)phenyl]-5,6,6a,8,9,13b-hexahydronaphtho[1,2-a][3]benzazepin-12-ol

> <PUBCHEM_IUPAC_INCHI>
InChI=1S/C26H23ClF3NO2/c1-31-11-10-16-13-22(27)24(32)14-21(16)25-20-7-3-6-18(19(20)8-9-23(25)31)15-4-2-5-17(12-15)33-26(28,29)30/h2-7,12-14,23,25,32H,8-11H2,1H3/t23-,25-/m1/s1

> <PUBCHEM_IUPAC_INCHIKEY>
VRUUWJUSPIOSIG-ILBGXUMGSA-N

> <PUBCHEM_XLOGP3_AA>
7.2

> <PUBCHEM_EXACT_MASS>
473.1369412

> <PUBCHEM_MOLECULAR_FORMULA>
C26H23ClF3NO2

> <PUBCHEM_MOLECULAR_WEIGHT>
473.9

> <PUBCHEM_OPENEYE_CAN_SMILES>
CN1CCC2=CC(=C(C=C2C3C1CCC4=C(C=CC=C34)C5=CC(=CC=C5)OC(F)(F)F)O)Cl

> <PUBCHEM_OPENEYE_ISO_SMILES>
CN1CCC2=CC(=C(C=C2[C@@H]3[C@H]1CCC4=C(C=CC=C34)C5=CC(=CC=C5)OC(F)(F)F)O)Cl

> <PUBCHEM_CACTVS_TPSA>
32.7

> <PUBCHEM_MONOISOTOPIC_WEIGHT>
473.1369412

> <PUBCHEM_TOTAL_CHARGE>
0

> <PUBCHEM_HEAVY_ATOM_COUNT>
33

> <PUBCHEM_ATOM_DEF_STEREO_COUNT>
2

> <PUBCHEM_ATOM_UDEF_STEREO_COUNT>
0

> <PUBCHEM_BOND_DEF_STEREO_COUNT>
0

> <PUBCHEM_BOND_UDEF_STEREO_COUNT>
0

> <PUBCHEM_ISOTOPIC_ATOM_COUNT>
0

> <PUBCHEM_COMPONENT_COUNT>
1

> <PUBCHEM_CACTVS_TAUTO_COUNT>
-1

> <PUBCHEM_COORDINATE_TYPE>
1
5
255

> <PUBCHEM_BONDANNOTATIONS>
11  14  8
11  20  8
13  16  8
13  21  8
14  18  8
16  22  8
18  23  8
20  24  8
21  25  8
22  27  8
23  24  8
25  27  8
26  28  8
26  29  8
28  30  8
29  31  8
30  32  8
31  32  8
8  34  5
9  35  5

$$$$
