44372296
  -OEChem-09292322492D

 46 49  0     0  0  0  0  0  0999 V2000
   14.1075    1.8304    0.0000 Cl  0  0  0  0  0  0  0  0  0  0  0  0
    2.5369   -1.8684    0.0000 O   0  0  0  0  0  0  0  0  0  0  0  0
    8.2364    0.5930    0.0000 N   0  0  0  0  0  0  0  0  0  0  0  0
   10.1934    1.0055    0.0000 N   0  0  0  0  0  0  0  0  0  0  0  0
    6.0010   -1.8684    0.0000 N   0  0  0  0  0  0  0  0  0  0  0  0
    6.9473   -2.1732    0.0000 N   0  0  0  0  0  0  0  0  0  0  0  0
    8.9043   -0.1513    0.0000 C   0  0  0  0  0  0  0  0  0  0  0  0
    8.5471    1.5436    0.0000 C   0  0  0  0  0  0  0  0  0  0  0  0
    9.8828    0.0550    0.0000 C   0  0  0  0  0  0  0  0  0  0  0  0
    9.5256    1.7498    0.0000 C   0  0  0  0  0  0  0  0  0  0  0  0
    7.2579    0.3868    0.0000 C   0  0  0  0  0  0  0  0  0  0  0  0
    6.9473   -0.5637    0.0000 C   0  0  0  0  0  0  0  0  0  0  0  0
   11.1719    1.2117    0.0000 C   0  0  0  0  0  0  0  0  0  0  0  0
    6.0010   -0.8684    0.0000 C   0  0  0  0  0  0  0  0  0  0  0  0
    7.5309   -1.3684    0.0000 C   0  0  0  0  0  0  0  0  0  0  0  0
   11.8398    0.4674    0.0000 C   0  0  0  0  0  0  0  0  0  0  0  0
   11.4826    2.1622    0.0000 C   0  0  0  0  0  0  0  0  0  0  0  0
    5.1350   -0.3684    0.0000 C   0  0  0  0  0  0  0  0  0  0  0  0
    5.1350   -2.3684    0.0000 C   0  0  0  0  0  0  0  0  0  0  0  0
    4.2690   -1.8684    0.0000 C   0  0  0  0  0  0  0  0  0  0  0  0
    4.2690   -0.8684    0.0000 C   0  0  0  0  0  0  0  0  0  0  0  0
   12.8183    0.6736    0.0000 C   0  0  0  0  0  0  0  0  0  0  0  0
   12.4611    2.3684    0.0000 C   0  0  0  0  0  0  0  0  0  0  0  0
   13.1290    1.6241    0.0000 C   0  0  0  0  0  0  0  0  0  0  0  0
    3.4030   -2.3684    0.0000 C   0  0  0  0  0  0  0  0  0  0  0  0
    8.3779   -0.4789    0.0000 H   0  0  0  0  0  0  0  0  0  0  0  0
    9.1355   -0.7265    0.0000 H   0  0  0  0  0  0  0  0  0  0  0  0
    8.5265    2.1632    0.0000 H   0  0  0  0  0  0  0  0  0  0  0  0
    7.9333    1.6309    0.0000 H   0  0  0  0  0  0  0  0  0  0  0  0
    9.9033   -0.5647    0.0000 H   0  0  0  0  0  0  0  0  0  0  0  0
   10.4966   -0.0324    0.0000 H   0  0  0  0  0  0  0  0  0  0  0  0
   10.0520    2.0774    0.0000 H   0  0  0  0  0  0  0  0  0  0  0  0
    9.2943    2.3250    0.0000 H   0  0  0  0  0  0  0  0  0  0  0  0
    7.2374    1.0065    0.0000 H   0  0  0  0  0  0  0  0  0  0  0  0
    6.6441    0.4742    0.0000 H   0  0  0  0  0  0  0  0  0  0  0  0
    8.1509   -1.3684    0.0000 H   0  0  0  0  0  0  0  0  0  0  0  0
   11.6472   -0.1219    0.0000 H   0  0  0  0  0  0  0  0  0  0  0  0
   11.0685    2.6237    0.0000 H   0  0  0  0  0  0  0  0  0  0  0  0
    5.1350    0.2516    0.0000 H   0  0  0  0  0  0  0  0  0  0  0  0
    5.1350   -2.9884    0.0000 H   0  0  0  0  0  0  0  0  0  0  0  0
    3.7320   -0.5584    0.0000 H   0  0  0  0  0  0  0  0  0  0  0  0
   13.2324    0.2121    0.0000 H   0  0  0  0  0  0  0  0  0  0  0  0
   12.6537    2.9578    0.0000 H   0  0  0  0  0  0  0  0  0  0  0  0
    3.0044   -2.8434    0.0000 H   0  0  0  0  0  0  0  0  0  0  0  0
    3.8015   -2.8434    0.0000 H   0  0  0  0  0  0  0  0  0  0  0  0
    2.0000   -2.1784    0.0000 H   0  0  0  0  0  0  0  0  0  0  0  0
  1 24  1  0  0  0  0
  2 25  1  0  0  0  0
  2 46  1  0  0  0  0
  3  7  1  0  0  0  0
  3  8  1  0  0  0  0
  3 11  1  0  0  0  0
  4  9  1  0  0  0  0
  4 10  1  0  0  0  0
  4 13  1  0  0  0  0
  5  6  1  0  0  0  0
  5 14  1  0  0  0  0
  5 19  1  0  0  0  0
  6 15  2  0  0  0  0
  7  9  1  0  0  0  0
  7 26  1  0  0  0  0
  7 27  1  0  0  0  0
  8 10  1  0  0  0  0
  8 28  1  0  0  0  0
  8 29  1  0  0  0  0
  9 30  1  0  0  0  0
  9 31  1  0  0  0  0
 10 32  1  0  0  0  0
 10 33  1  0  0  0  0
 11 12  1  0  0  0  0
 11 34  1  0  0  0  0
 11 35  1  0  0  0  0
 12 14  2  0  0  0  0
 12 15  1  0  0  0  0
 13 16  2  0  0  0  0
 13 17  1  0  0  0  0
 14 18  1  0  0  0  0
 15 36  1  0  0  0  0
 16 22  1  0  0  0  0
 16 37  1  0  0  0  0
 17 23  2  0  0  0  0
 17 38  1  0  0  0  0
 18 21  2  0  0  0  0
 18 39  1  0  0  0  0
 19 20  2  0  0  0  0
 19 40  1  0  0  0  0
 20 21  1  0  0  0  0
 20 25  1  0  0  0  0
 21 41  1  0  0  0  0
 22 24  2  0  0  0  0
 22 42  1  0  0  0  0
 23 24  1  0  0  0  0
 23 43  1  0  0  0  0
 25 44  1  0  0  0  0
 25 45  1  0  0  0  0
M  END
> <PUBCHEM_COMPOUND_CID>
44372296

> <PUBCHEM_COMPOUND_CANONICALIZED>
1

> <PUBCHEM_CACTVS_COMPLEXITY>
424

> <PUBCHEM_CACTVS_HBOND_ACCEPTOR>
4

> <PUBCHEM_CACTVS_HBOND_DONOR>
1

> <PUBCHEM_CACTVS_ROTATABLE_BOND>
4

> <PUBCHEM_CACTVS_SUBSKEYS>
AAADceB7oAAEAAAAAAAAAAAAAAAAAWAAAAA8WIAAAAAAAFgB8AAAHgIICAAADArhniY8wLMIEgCiAzRnRACShCAxhyAY2CA4bpgIduLB09GU9AhmyAHI2AeQ0GMMAABAAAAAAAAAAIAAAAAAAAAAAAAAAA==

> <PUBCHEM_IUPAC_OPENEYE_NAME>
[3-[[4-(4-chlorophenyl)piperazin-1-yl]methyl]pyrazolo[1,5-a]pyridin-6-yl]methanol

> <PUBCHEM_IUPAC_CAS_NAME>
[3-[[4-(4-chlorophenyl)-1-piperazinyl]methyl]-6-pyrazolo[1,5-a]pyridinyl]methanol

> <PUBCHEM_IUPAC_NAME_MARKUP>
[3-[[4-(4-chlorophenyl)piperazin-1-yl]methyl]pyrazolo[1,5-a]pyridin-6-yl]methanol

> <PUBCHEM_IUPAC_NAME>
[3-[[4-(4-chlorophenyl)piperazin-1-yl]methyl]pyrazolo[1,5-a]pyridin-6-yl]methanol

> <PUBCHEM_IUPAC_SYSTEMATIC_NAME>
[3-[[4-(4-chlorophenyl)piperazin-1-yl]methyl]pyrazolo[1,5-a]pyridin-6-yl]methanol

> <PUBCHEM_IUPAC_TRADITIONAL_NAME>
[3-[[4-(4-chlorophenyl)piperazino]methyl]pyrazolo[1,5-a]pyridin-6-yl]methanol

> <PUBCHEM_IUPAC_INCHI>
InChI=1S/C19H21ClN4O/c20-17-2-4-18(5-3-17)23-9-7-22(8-10-23)13-16-11-21-24-12-15(14-25)1-6-19(16)24/h1-6,11-12,25H,7-10,13-14H2

> <PUBCHEM_IUPAC_INCHIKEY>
SAPCLYRXCUDCRV-UHFFFAOYSA-N

> <PUBCHEM_XLOGP3_AA>
2.2

> <PUBCHEM_EXACT_MASS>
356.1403890

> <PUBCHEM_MOLECULAR_FORMULA>
C19H21ClN4O

> <PUBCHEM_MOLECULAR_WEIGHT>
356.8

> <PUBCHEM_OPENEYE_CAN_SMILES>
C1CN(CCN1CC2=C3C=CC(=CN3N=C2)CO)C4=CC=C(C=C4)Cl

> <PUBCHEM_OPENEYE_ISO_SMILES>
C1CN(CCN1CC2=C3C=CC(=CN3N=C2)CO)C4=CC=C(C=C4)Cl

> <PUBCHEM_CACTVS_TPSA>
44

> <PUBCHEM_MONOISOTOPIC_WEIGHT>
356.1403890

> <PUBCHEM_TOTAL_CHARGE>
0

> <PUBCHEM_HEAVY_ATOM_COUNT>
25

> <PUBCHEM_ATOM_DEF_STEREO_COUNT>
0

> <PUBCHEM_ATOM_UDEF_STEREO_COUNT>
0

> <PUBCHEM_BOND_DEF_STEREO_COUNT>
0

> <PUBCHEM_BOND_UDEF_STEREO_COUNT>
0

> <PUBCHEM_ISOTOPIC_ATOM_COUNT>
0

> <PUBCHEM_COMPONENT_COUNT>
1

> <PUBCHEM_CACTVS_TAUTO_COUNT>
-1

> <PUBCHEM_COORDINATE_TYPE>
1
5
255

> <PUBCHEM_BONDANNOTATIONS>
12  14  8
12  15  8
13  16  8
13  17  8
14  18  8
16  22  8
17  23  8
18  21  8
19  20  8
20  21  8
22  24  8
23  24  8
5  14  8
5  19  8
5  6  8
6  15  8

$$$$
