12997413
  -OEChem-09292322112D

 60 64  0     0  0  0  0  0  0999 V2000
   13.4795    0.7967    0.0000 Cl  0  0  0  0  0  0  0  0  0  0  0  0
   15.4309    1.2351    0.0000 Cl  0  0  0  0  0  0  0  0  0  0  0  0
    5.9721   -0.0024    0.0000 O   0  0  0  0  0  0  0  0  0  0  0  0
   10.1728    1.8290    0.0000 N   0  0  0  0  0  0  0  0  0  0  0  0
   12.1242    2.2674    0.0000 N   0  0  0  0  0  0  0  0  0  0  0  0
    7.6255   -0.5186    0.0000 N   0  0  0  0  0  0  0  0  0  0  0  0
   10.8505    1.0936    0.0000 C   0  0  0  0  0  0  0  0  0  0  0  0
   10.4708    2.7836    0.0000 C   0  0  0  0  0  0  0  0  0  0  0  0
   11.8262    1.3128    0.0000 C   0  0  0  0  0  0  0  0  0  0  0  0
   11.4465    3.0028    0.0000 C   0  0  0  0  0  0  0  0  0  0  0  0
    9.1971    1.6098    0.0000 C   0  0  0  0  0  0  0  0  0  0  0  0
    8.8991    0.6552    0.0000 C   0  0  0  0  0  0  0  0  0  0  0  0
   13.0999    2.4866    0.0000 C   0  0  0  0  0  0  0  0  0  0  0  0
    7.9235    0.4360    0.0000 C   0  0  0  0  0  0  0  0  0  0  0  0
    5.3364   -1.9246    0.0000 C   0  0  0  0  0  0  0  0  0  0  0  0
    4.5274   -1.3368    0.0000 C   0  0  0  0  0  0  0  0  0  0  0  0
    5.0274   -2.8756    0.0000 C   0  0  0  0  0  0  0  0  0  0  0  0
    3.7183   -1.9246    0.0000 C   0  0  0  0  0  0  0  0  0  0  0  0
    4.0274   -2.8756    0.0000 C   0  0  0  0  0  0  0  0  0  0  0  0
    6.3518   -1.6923    0.0000 C   0  0  0  0  0  0  0  0  0  0  0  0
   13.7775    1.7512    0.0000 C   0  0  0  0  0  0  0  0  0  0  0  0
   13.3978    3.4412    0.0000 C   0  0  0  0  0  0  0  0  0  0  0  0
    6.6498   -0.7378    0.0000 C   0  0  0  0  0  0  0  0  0  0  0  0
    5.7123   -3.6604    0.0000 C   0  0  0  0  0  0  0  0  0  0  0  0
    7.0547   -2.4610    0.0000 C   0  0  0  0  0  0  0  0  0  0  0  0
    2.7029   -1.6923    0.0000 C   0  0  0  0  0  0  0  0  0  0  0  0
    3.3424   -3.6604    0.0000 C   0  0  0  0  0  0  0  0  0  0  0  0
    6.7328   -3.4517    0.0000 C   0  0  0  0  0  0  0  0  0  0  0  0
   14.7532    1.9705    0.0000 C   0  0  0  0  0  0  0  0  0  0  0  0
   14.3735    3.6604    0.0000 C   0  0  0  0  0  0  0  0  0  0  0  0
    2.0000   -2.4610    0.0000 C   0  0  0  0  0  0  0  0  0  0  0  0
    2.3219   -3.4517    0.0000 C   0  0  0  0  0  0  0  0  0  0  0  0
   15.0512    2.9250    0.0000 C   0  0  0  0  0  0  0  0  0  0  0  0
   10.3285    0.7590    0.0000 H   0  0  0  0  0  0  0  0  0  0  0  0
   11.0894    0.5215    0.0000 H   0  0  0  0  0  0  0  0  0  0  0  0
   10.4420    3.4029    0.0000 H   0  0  0  0  0  0  0  0  0  0  0  0
    9.8559    2.8627    0.0000 H   0  0  0  0  0  0  0  0  0  0  0  0
   11.8550    0.6935    0.0000 H   0  0  0  0  0  0  0  0  0  0  0  0
   12.4411    1.2336    0.0000 H   0  0  0  0  0  0  0  0  0  0  0  0
   11.9684    3.3374    0.0000 H   0  0  0  0  0  0  0  0  0  0  0  0
   11.2076    3.5749    0.0000 H   0  0  0  0  0  0  0  0  0  0  0  0
    9.1683    2.2291    0.0000 H   0  0  0  0  0  0  0  0  0  0  0  0
    8.5822    1.6890    0.0000 H   0  0  0  0  0  0  0  0  0  0  0  0
    8.9279    0.0359    0.0000 H   0  0  0  0  0  0  0  0  0  0  0  0
    9.5141    0.5760    0.0000 H   0  0  0  0  0  0  0  0  0  0  0  0
    7.8947    1.0553    0.0000 H   0  0  0  0  0  0  0  0  0  0  0  0
    7.3085    0.5152    0.0000 H   0  0  0  0  0  0  0  0  0  0  0  0
    4.9422   -0.8761    0.0000 H   0  0  0  0  0  0  0  0  0  0  0  0
    4.1125   -0.8761    0.0000 H   0  0  0  0  0  0  0  0  0  0  0  0
    8.0456   -0.9745    0.0000 H   0  0  0  0  0  0  0  0  0  0  0  0
   12.9777    3.8971    0.0000 H   0  0  0  0  0  0  0  0  0  0  0  0
    5.5139   -4.2478    0.0000 H   0  0  0  0  0  0  0  0  0  0  0  0
    7.6607   -2.3298    0.0000 H   0  0  0  0  0  0  0  0  0  0  0  0
    2.5182   -1.1005    0.0000 H   0  0  0  0  0  0  0  0  0  0  0  0
    3.5408   -4.2478    0.0000 H   0  0  0  0  0  0  0  0  0  0  0  0
    7.1459   -3.9140    0.0000 H   0  0  0  0  0  0  0  0  0  0  0  0
   14.5583    4.2522    0.0000 H   0  0  0  0  0  0  0  0  0  0  0  0
    1.3940   -2.3298    0.0000 H   0  0  0  0  0  0  0  0  0  0  0  0
    1.9088   -3.9140    0.0000 H   0  0  0  0  0  0  0  0  0  0  0  0
   15.6561    3.0609    0.0000 H   0  0  0  0  0  0  0  0  0  0  0  0
  1 21  1  0  0  0  0
  2 29  1  0  0  0  0
  3 23  2  0  0  0  0
  4  7  1  0  0  0  0
  4  8  1  0  0  0  0
  4 11  1  0  0  0  0
  5  9  1  0  0  0  0
  5 10  1  0  0  0  0
  5 13  1  0  0  0  0
  6 14  1  0  0  0  0
  6 23  1  0  0  0  0
  6 50  1  0  0  0  0
  7  9  1  0  0  0  0
  7 34  1  0  0  0  0
  7 35  1  0  0  0  0
  8 10  1  0  0  0  0
  8 36  1  0  0  0  0
  8 37  1  0  0  0  0
  9 38  1  0  0  0  0
  9 39  1  0  0  0  0
 10 40  1  0  0  0  0
 10 41  1  0  0  0  0
 11 12  1  0  0  0  0
 11 42  1  0  0  0  0
 11 43  1  0  0  0  0
 12 14  1  0  0  0  0
 12 44  1  0  0  0  0
 12 45  1  0  0  0  0
 13 21  2  0  0  0  0
 13 22  1  0  0  0  0
 14 46  1  0  0  0  0
 14 47  1  0  0  0  0
 15 16  1  0  0  0  0
 15 17  2  0  0  0  0
 15 20  1  0  0  0  0
 16 18  1  0  0  0  0
 16 48  1  0  0  0  0
 16 49  1  0  0  0  0
 17 19  1  0  0  0  0
 17 24  1  0  0  0  0
 18 19  1  0  0  0  0
 18 26  2  0  0  0  0
 19 27  2  0  0  0  0
 20 23  1  0  0  0  0
 20 25  2  0  0  0  0
 21 29  1  0  0  0  0
 22 30  2  0  0  0  0
 22 51  1  0  0  0  0
 24 28  2  0  0  0  0
 24 52  1  0  0  0  0
 25 28  1  0  0  0  0
 25 53  1  0  0  0  0
 26 31  1  0  0  0  0
 26 54  1  0  0  0  0
 27 32  1  0  0  0  0
 27 55  1  0  0  0  0
 28 56  1  0  0  0  0
 29 33  2  0  0  0  0
 30 33  1  0  0  0  0
 30 57  1  0  0  0  0
 31 32  2  0  0  0  0
 31 58  1  0  0  0  0
 32 59  1  0  0  0  0
 33 60  1  0  0  0  0
M  END
> <PUBCHEM_COMPOUND_CID>
12997413

> <PUBCHEM_COMPOUND_CANONICALIZED>
1

> <PUBCHEM_CACTVS_COMPLEXITY>
655

> <PUBCHEM_CACTVS_HBOND_ACCEPTOR>
3

> <PUBCHEM_CACTVS_HBOND_DONOR>
1

> <PUBCHEM_CACTVS_ROTATABLE_BOND>
6

> <PUBCHEM_CACTVS_SUBSKEYS>
AAADceB7IAAGAAAAAAAAAAAAAAAAAYAAAAA8YMEAAAAAAGABUAAAHgIQAAAADArBmCQwwIPAAACIAiVSUACCAAAlBwAIisEIZsgIYDLB15HUIQhglgDIyYcYiMCOgAACAAIQABQAAAQABCAAKQAACAAAAA==

> <PUBCHEM_IUPAC_OPENEYE_NAME>
N-[3-[4-(2,3-dichlorophenyl)piperazin-1-yl]propyl]-9H-fluorene-1-carboxamide

> <PUBCHEM_IUPAC_CAS_NAME>
N-[3-[4-(2,3-dichlorophenyl)-1-piperazinyl]propyl]-9H-fluorene-1-carboxamide

> <PUBCHEM_IUPAC_NAME_MARKUP>
<I>N</I>-[3-[4-(2,3-dichlorophenyl)piperazin-1-yl]propyl]-9<I>H</I>-fluorene-1-carboxamide

> <PUBCHEM_IUPAC_NAME>
N-[3-[4-(2,3-dichlorophenyl)piperazin-1-yl]propyl]-9H-fluorene-1-carboxamide

> <PUBCHEM_IUPAC_SYSTEMATIC_NAME>
N-[3-[4-[2,3-bis(chloranyl)phenyl]piperazin-1-yl]propyl]-9H-fluorene-1-carboxamide

> <PUBCHEM_IUPAC_TRADITIONAL_NAME>
N-[3-[4-(2,3-dichlorophenyl)piperazino]propyl]-9H-fluorene-1-carboxamide

> <PUBCHEM_IUPAC_INCHI>
InChI=1S/C27H27Cl2N3O/c28-24-10-4-11-25(26(24)29)32-16-14-31(15-17-32)13-5-12-30-27(33)22-9-3-8-21-20-7-2-1-6-19(20)18-23(21)22/h1-4,6-11H,5,12-18H2,(H,30,33)

> <PUBCHEM_IUPAC_INCHIKEY>
CVHDGXBLAOQADH-UHFFFAOYSA-N

> <PUBCHEM_XLOGP3_AA>
6.1

> <PUBCHEM_EXACT_MASS>
479.1531179

> <PUBCHEM_MOLECULAR_FORMULA>
C27H27Cl2N3O

> <PUBCHEM_MOLECULAR_WEIGHT>
480.4

> <PUBCHEM_OPENEYE_CAN_SMILES>
C1CN(CCN1CCCNC(=O)C2=CC=CC3=C2CC4=CC=CC=C43)C5=C(C(=CC=C5)Cl)Cl

> <PUBCHEM_OPENEYE_ISO_SMILES>
C1CN(CCN1CCCNC(=O)C2=CC=CC3=C2CC4=CC=CC=C43)C5=C(C(=CC=C5)Cl)Cl

> <PUBCHEM_CACTVS_TPSA>
35.6

> <PUBCHEM_MONOISOTOPIC_WEIGHT>
479.1531179

> <PUBCHEM_TOTAL_CHARGE>
0

> <PUBCHEM_HEAVY_ATOM_COUNT>
33

> <PUBCHEM_ATOM_DEF_STEREO_COUNT>
0

> <PUBCHEM_ATOM_UDEF_STEREO_COUNT>
0

> <PUBCHEM_BOND_DEF_STEREO_COUNT>
0

> <PUBCHEM_BOND_UDEF_STEREO_COUNT>
0

> <PUBCHEM_ISOTOPIC_ATOM_COUNT>
0

> <PUBCHEM_COMPONENT_COUNT>
1

> <PUBCHEM_CACTVS_TAUTO_COUNT>
-1

> <PUBCHEM_COORDINATE_TYPE>
1
5
255

> <PUBCHEM_BONDANNOTATIONS>
13  21  8
13  22  8
15  17  8
15  20  8
17  24  8
18  19  8
18  26  8
19  27  8
20  25  8
21  29  8
22  30  8
24  28  8
25  28  8
26  31  8
27  32  8
29  33  8
30  33  8
31  32  8

$$$$
