49781891
  -OEChem-09292322312D

 55 59  0     1  0  0  0  0  0999 V2000
    8.0439   -2.5170    0.0000 S   0  0  0  0  0  0  0  0  0  0  0  0
    7.1100    0.5746    0.0000 N   0  0  0  0  0  0  0  0  0  0  0  0
    6.2422    2.3765    0.0000 N   0  0  0  0  0  0  0  0  0  0  0  0
    2.4904   -1.6703    0.0000 N   0  0  0  0  0  0  0  0  0  0  0  0
    3.5863   -2.8606    0.0000 N   0  0  0  0  0  0  0  0  0  0  0  0
    2.0000   -2.5418    0.0000 N   0  0  0  0  0  0  0  0  0  0  0  0
    2.6773   -3.2775    0.0000 N   0  0  0  0  0  0  0  0  0  0  0  0
    7.5439   -0.3264    0.0000 C   0  0  3  0  0  0  0  0  0  0  0  0
    6.1128    0.6493    0.0000 C   0  0  0  0  0  0  0  0  0  0  0  0
    7.6733    1.4008    0.0000 C   0  0  0  0  0  0  0  0  0  0  0  0
    8.5439   -0.3264    0.0000 C   0  0  0  0  0  0  0  0  0  0  0  0
    5.6789    1.5503    0.0000 C   0  0  0  0  0  0  0  0  0  0  0  0
    7.2394    2.3018    0.0000 C   0  0  0  0  0  0  0  0  0  0  0  0
    6.9204   -1.1082    0.0000 C   0  0  0  0  0  0  0  0  0  0  0  0
    9.1674   -1.1082    0.0000 C   0  0  0  0  0  0  0  0  0  0  0  0
    7.1429   -2.0832    0.0000 C   0  0  0  0  0  0  0  0  0  0  0  0
    5.9299   -0.7859    0.0000 C   0  0  0  0  0  0  0  0  0  0  0  0
    5.8084    3.2775    0.0000 C   0  0  0  0  0  0  0  0  0  0  0  0
    8.9448   -2.0832    0.0000 C   0  0  0  0  0  0  0  0  0  0  0  0
    5.1608   -1.4884    0.0000 C   0  0  0  0  0  0  0  0  0  0  0  0
    6.3903   -2.8033    0.0000 C   0  0  0  0  0  0  0  0  0  0  0  0
   10.1579   -0.7859    0.0000 C   0  0  0  0  0  0  0  0  0  0  0  0
    5.3926   -2.5040    0.0000 C   0  0  0  0  0  0  0  0  0  0  0  0
    4.2064   -1.1900    0.0000 C   0  0  0  0  0  0  0  0  0  0  0  0
    9.6974   -2.8033    0.0000 C   0  0  0  0  0  0  0  0  0  0  0  0
   10.9269   -1.4885    0.0000 C   0  0  0  0  0  0  0  0  0  0  0  0
   10.6951   -2.5040    0.0000 C   0  0  0  0  0  0  0  0  0  0  0  0
    3.4708   -1.8674    0.0000 C   0  0  0  0  0  0  0  0  0  0  0  0
    2.0735   -0.7613    0.0000 C   0  0  0  0  0  0  0  0  0  0  0  0
    7.8737    0.1986    0.0000 H   0  0  0  0  0  0  0  0  0  0  0  0
    5.5160    0.4814    0.0000 H   0  0  0  0  0  0  0  0  0  0  0  0
    6.1745    0.0324    0.0000 H   0  0  0  0  0  0  0  0  0  0  0  0
    8.1172    0.9679    0.0000 H   0  0  0  0  0  0  0  0  0  0  0  0
    8.1767    1.7627    0.0000 H   0  0  0  0  0  0  0  0  0  0  0  0
    9.1025   -0.0574    0.0000 H   0  0  0  0  0  0  0  0  0  0  0  0
    8.4059    0.2781    0.0000 H   0  0  0  0  0  0  0  0  0  0  0  0
    5.2351    1.9832    0.0000 H   0  0  0  0  0  0  0  0  0  0  0  0
    5.1755    1.1884    0.0000 H   0  0  0  0  0  0  0  0  0  0  0  0
    7.8363    2.4697    0.0000 H   0  0  0  0  0  0  0  0  0  0  0  0
    7.1777    2.9187    0.0000 H   0  0  0  0  0  0  0  0  0  0  0  0
    5.7989   -0.1799    0.0000 H   0  0  0  0  0  0  0  0  0  0  0  0
    6.3670    3.5465    0.0000 H   0  0  0  0  0  0  0  0  0  0  0  0
    5.5394    3.8361    0.0000 H   0  0  0  0  0  0  0  0  0  0  0  0
    5.2498    3.0085    0.0000 H   0  0  0  0  0  0  0  0  0  0  0  0
    6.5353   -3.4061    0.0000 H   0  0  0  0  0  0  0  0  0  0  0  0
   10.2888   -0.1799    0.0000 H   0  0  0  0  0  0  0  0  0  0  0  0
    4.9398   -2.9274    0.0000 H   0  0  0  0  0  0  0  0  0  0  0  0
    4.4914   -0.6394    0.0000 H   0  0  0  0  0  0  0  0  0  0  0  0
    3.7136   -0.8137    0.0000 H   0  0  0  0  0  0  0  0  0  0  0  0
    9.5524   -3.4062    0.0000 H   0  0  0  0  0  0  0  0  0  0  0  0
   11.5186   -1.3035    0.0000 H   0  0  0  0  0  0  0  0  0  0  0  0
   11.1479   -2.9275    0.0000 H   0  0  0  0  0  0  0  0  0  0  0  0
    2.6371   -0.5029    0.0000 H   0  0  0  0  0  0  0  0  0  0  0  0
    1.8151   -0.1978    0.0000 H   0  0  0  0  0  0  0  0  0  0  0  0
    1.5099   -1.0198    0.0000 H   0  0  0  0  0  0  0  0  0  0  0  0
  1 16  1  0  0  0  0
  1 19  1  0  0  0  0
  2  8  1  0  0  0  0
  2  9  1  0  0  0  0
  2 10  1  0  0  0  0
  3 12  1  0  0  0  0
  3 13  1  0  0  0  0
  3 18  1  0  0  0  0
  4  6  1  0  0  0  0
  4 28  1  0  0  0  0
  4 29  1  0  0  0  0
  5  7  1  0  0  0  0
  5 28  2  0  0  0  0
  6  7  2  0  0  0  0
  8 11  1  0  0  0  0
  8 14  1  0  0  0  0
  8 30  1  0  0  0  0
  9 12  1  0  0  0  0
  9 31  1  0  0  0  0
  9 32  1  0  0  0  0
 10 13  1  0  0  0  0
 10 33  1  0  0  0  0
 10 34  1  0  0  0  0
 11 15  1  0  0  0  0
 11 35  1  0  0  0  0
 11 36  1  0  0  0  0
 12 37  1  0  0  0  0
 12 38  1  0  0  0  0
 13 39  1  0  0  0  0
 13 40  1  0  0  0  0
 14 16  2  0  0  0  0
 14 17  1  0  0  0  0
 15 19  1  0  0  0  0
 15 22  2  0  0  0  0
 16 21  1  0  0  0  0
 17 20  2  0  0  0  0
 17 41  1  0  0  0  0
 18 42  1  0  0  0  0
 18 43  1  0  0  0  0
 18 44  1  0  0  0  0
 19 25  2  0  0  0  0
 20 23  1  0  0  0  0
 20 24  1  0  0  0  0
 21 23  2  0  0  0  0
 21 45  1  0  0  0  0
 22 26  1  0  0  0  0
 22 46  1  0  0  0  0
 23 47  1  0  0  0  0
 24 28  1  0  0  0  0
 24 48  1  0  0  0  0
 24 49  1  0  0  0  0
 25 27  1  0  0  0  0
 25 50  1  0  0  0  0
 26 27  2  0  0  0  0
 26 51  1  0  0  0  0
 27 52  1  0  0  0  0
 29 53  1  0  0  0  0
 29 54  1  0  0  0  0
 29 55  1  0  0  0  0
M  END
> <PUBCHEM_COMPOUND_CID>
49781891

> <PUBCHEM_COMPOUND_CANONICALIZED>
1

> <PUBCHEM_CACTVS_COMPLEXITY>
541

> <PUBCHEM_CACTVS_HBOND_ACCEPTOR>
6

> <PUBCHEM_CACTVS_HBOND_DONOR>
0

> <PUBCHEM_CACTVS_ROTATABLE_BOND>
3

> <PUBCHEM_CACTVS_SUBSKEYS>
AAADceB7gABAAAAAAAAAAAAAAAAAAWAAAAA8YIAABIAAAAAB0AAAHAQIAAAADCjBWwQzEYcIAAiiAiJiJACCAAMgiJAdyBg4BIiIYCKgkRGUIAhggACoiAcQgMAOEAACAAAEAAAgAAQAAAgAAAAAAAAAAA==

> <PUBCHEM_IUPAC_OPENEYE_NAME>
1-methyl-4-[3-[(1-methyltetrazol-5-yl)methyl]-5,6-dihydrobenzo[b][1]benzothiepin-5-yl]piperazine

> <PUBCHEM_IUPAC_CAS_NAME>
1-methyl-4-[3-[(1-methyl-5-tetrazolyl)methyl]-5,6-dihydrobenzo[b][1]benzothiepin-5-yl]piperazine

> <PUBCHEM_IUPAC_NAME_MARKUP>
1-methyl-4-[3-[(1-methyltetrazol-5-yl)methyl]-5,6-dihydrobenzo[b][1]benzothiepin-5-yl]piperazine

> <PUBCHEM_IUPAC_NAME>
1-methyl-4-[3-[(1-methyltetrazol-5-yl)methyl]-5,6-dihydrobenzo[b][1]benzothiepin-5-yl]piperazine

> <PUBCHEM_IUPAC_SYSTEMATIC_NAME>
1-methyl-4-[3-[(1-methyl-1,2,3,4-tetrazol-5-yl)methyl]-5,6-dihydrobenzo[b][1]benzothiepin-5-yl]piperazine

> <PUBCHEM_IUPAC_TRADITIONAL_NAME>
1-methyl-4-[3-[(1-methyltetrazol-5-yl)methyl]-5,6-dihydrobenzo[b][1]benzothiepin-5-yl]piperazine

> <PUBCHEM_IUPAC_INCHI>
InChI=1S/C22H26N6S/c1-26-9-11-28(12-10-26)19-15-17-5-3-4-6-20(17)29-21-8-7-16(13-18(19)21)14-22-23-24-25-27(22)2/h3-8,13,19H,9-12,14-15H2,1-2H3

> <PUBCHEM_IUPAC_INCHIKEY>
AKYWUMKVNYAANP-UHFFFAOYSA-N

> <PUBCHEM_XLOGP3_AA>
3.3

> <PUBCHEM_EXACT_MASS>
406.19396603

> <PUBCHEM_MOLECULAR_FORMULA>
C22H26N6S

> <PUBCHEM_MOLECULAR_WEIGHT>
406.5

> <PUBCHEM_OPENEYE_CAN_SMILES>
CN1CCN(CC1)C2CC3=CC=CC=C3SC4=C2C=C(C=C4)CC5=NN=NN5C

> <PUBCHEM_OPENEYE_ISO_SMILES>
CN1CCN(CC1)C2CC3=CC=CC=C3SC4=C2C=C(C=C4)CC5=NN=NN5C

> <PUBCHEM_CACTVS_TPSA>
75.4

> <PUBCHEM_MONOISOTOPIC_WEIGHT>
406.19396603

> <PUBCHEM_TOTAL_CHARGE>
0

> <PUBCHEM_HEAVY_ATOM_COUNT>
29

> <PUBCHEM_ATOM_DEF_STEREO_COUNT>
0

> <PUBCHEM_ATOM_UDEF_STEREO_COUNT>
1

> <PUBCHEM_BOND_DEF_STEREO_COUNT>
0

> <PUBCHEM_BOND_UDEF_STEREO_COUNT>
0

> <PUBCHEM_ISOTOPIC_ATOM_COUNT>
0

> <PUBCHEM_COMPONENT_COUNT>
1

> <PUBCHEM_CACTVS_TAUTO_COUNT>
-1

> <PUBCHEM_COORDINATE_TYPE>
1
5
255

> <PUBCHEM_BONDANNOTATIONS>
14  16  8
14  17  8
15  19  8
15  22  8
16  21  8
17  20  8
19  25  8
8  2  3
20  23  8
21  23  8
22  26  8
25  27  8
26  27  8
4  28  8
4  6  8
5  28  8
5  7  8
6  7  8

$$$$
