126534740
  -OEChem-09292322372D

 60 64  0     1  0  0  0  0  0999 V2000
   11.0334    2.5141    0.0000 S   0  0  0  0  0  0  0  0  0  0  0  0
    2.0000   -2.5528    0.0000 F   0  0  0  0  0  0  0  0  0  0  0  0
    3.1861   -3.3231    0.0000 F   0  0  0  0  0  0  0  0  0  0  0  0
    2.7702   -1.3668    0.0000 F   0  0  0  0  0  0  0  0  0  0  0  0
    5.5525   -0.0270    0.0000 N   0  0  3  0  0  0  0  0  0  0  0  0
    8.0334    0.7820    0.0000 N   0  0  3  0  0  0  0  0  0  0  0  0
   12.6211    1.7050    0.0000 N   0  0  0  0  0  0  0  0  0  0  0  0
   12.6211    3.3231    0.0000 N   0  0  0  0  0  0  0  0  0  0  0  0
   13.5722    3.0141    0.0000 N   0  0  0  0  0  0  0  0  0  0  0  0
   15.2948    1.8330    0.0000 N   0  0  0  0  0  0  0  0  0  0  0  0
   15.0857   -0.1560    0.0000 N   0  0  0  0  0  0  0  0  0  0  0  0
    6.5035    1.2820    0.0000 C   0  0  3  0  0  0  0  0  0  0  0  0
    6.5035    0.2820    0.0000 C   0  0  3  0  0  0  0  0  0  0  0  0
    7.4498    1.5868    0.0000 C   0  0  0  0  0  0  0  0  0  0  0  0
    5.5525    1.5910    0.0000 C   0  0  0  0  0  0  0  0  0  0  0  0
    7.4498   -0.0227    0.0000 C   0  0  0  0  0  0  0  0  0  0  0  0
    4.9647    0.7820    0.0000 C   0  0  0  0  0  0  0  0  0  0  0  0
    9.0334    0.7820    0.0000 C   0  0  0  0  0  0  0  0  0  0  0  0
    5.2435   -0.9781    0.0000 C   0  0  0  0  0  0  0  0  0  0  0  0
    9.5334    1.6480    0.0000 C   0  0  0  0  0  0  0  0  0  0  0  0
    4.2653   -1.1860    0.0000 C   0  0  0  0  0  0  0  0  0  0  0  0
    5.9126   -1.7212    0.0000 C   0  0  0  0  0  0  0  0  0  0  0  0
   10.5334    1.6480    0.0000 C   0  0  0  0  0  0  0  0  0  0  0  0
    3.9563   -2.1370    0.0000 C   0  0  0  0  0  0  0  0  0  0  0  0
    5.6036   -2.6723    0.0000 C   0  0  0  0  0  0  0  0  0  0  0  0
    4.6254   -2.8802    0.0000 C   0  0  0  0  0  0  0  0  0  0  0  0
    2.9782   -2.3449    0.0000 C   0  0  0  0  0  0  0  0  0  0  0  0
   12.0334    2.5141    0.0000 C   0  0  0  0  0  0  0  0  0  0  0  0
   13.5722    2.0141    0.0000 C   0  0  0  0  0  0  0  0  0  0  0  0
   12.3121    0.7540    0.0000 C   0  0  0  0  0  0  0  0  0  0  0  0
   14.3812    1.4263    0.0000 C   0  0  0  0  0  0  0  0  0  0  0  0
   14.2767    0.4318    0.0000 C   0  0  0  0  0  0  0  0  0  0  0  0
   16.1038    1.2452    0.0000 C   0  0  0  0  0  0  0  0  0  0  0  0
   15.9993    0.2507    0.0000 C   0  0  0  0  0  0  0  0  0  0  0  0
    6.5043    1.9020    0.0000 H   0  0  0  0  0  0  0  0  0  0  0  0
    6.5043   -0.3380    0.0000 H   0  0  0  0  0  0  0  0  0  0  0  0
    7.9871    1.8960    0.0000 H   0  0  0  0  0  0  0  0  0  0  0  0
    7.1987    2.1537    0.0000 H   0  0  0  0  0  0  0  0  0  0  0  0
    5.8046    2.1574    0.0000 H   0  0  0  0  0  0  0  0  0  0  0  0
    5.0155    1.9010    0.0000 H   0  0  0  0  0  0  0  0  0  0  0  0
    7.1987   -0.5896    0.0000 H   0  0  0  0  0  0  0  0  0  0  0  0
    7.9871   -0.3319    0.0000 H   0  0  0  0  0  0  0  0  0  0  0  0
    4.5039    1.1969    0.0000 H   0  0  0  0  0  0  0  0  0  0  0  0
    4.5039    0.3672    0.0000 H   0  0  0  0  0  0  0  0  0  0  0  0
    8.9257    0.1714    0.0000 H   0  0  0  0  0  0  0  0  0  0  0  0
    9.6160    0.5700    0.0000 H   0  0  0  0  0  0  0  0  0  0  0  0
    9.6410    2.2586    0.0000 H   0  0  0  0  0  0  0  0  0  0  0  0
    8.9508    1.8601    0.0000 H   0  0  0  0  0  0  0  0  0  0  0  0
    3.8504   -0.7252    0.0000 H   0  0  0  0  0  0  0  0  0  0  0  0
    6.5190   -1.5923    0.0000 H   0  0  0  0  0  0  0  0  0  0  0  0
   10.4257    1.0375    0.0000 H   0  0  0  0  0  0  0  0  0  0  0  0
   11.1160    1.4360    0.0000 H   0  0  0  0  0  0  0  0  0  0  0  0
    6.0184   -3.1330    0.0000 H   0  0  0  0  0  0  0  0  0  0  0  0
    4.4338   -3.4698    0.0000 H   0  0  0  0  0  0  0  0  0  0  0  0
   11.7225    0.9456    0.0000 H   0  0  0  0  0  0  0  0  0  0  0  0
   12.1205    0.1643    0.0000 H   0  0  0  0  0  0  0  0  0  0  0  0
   12.9018    0.5624    0.0000 H   0  0  0  0  0  0  0  0  0  0  0  0
   13.7103    0.1796    0.0000 H   0  0  0  0  0  0  0  0  0  0  0  0
   16.6702    1.4974    0.0000 H   0  0  0  0  0  0  0  0  0  0  0  0
   16.5008   -0.1137    0.0000 H   0  0  0  0  0  0  0  0  0  0  0  0
  1 23  1  0  0  0  0
  1 28  1  0  0  0  0
  2 27  1  0  0  0  0
  3 27  1  0  0  0  0
  4 27  1  0  0  0  0
  5 13  1  0  0  0  0
  5 17  1  0  0  0  0
  5 19  1  0  0  0  0
  6 14  1  0  0  0  0
  6 16  1  0  0  0  0
  6 18  1  0  0  0  0
  7 28  1  0  0  0  0
  7 29  1  0  0  0  0
  7 30  1  0  0  0  0
  8  9  1  0  0  0  0
  8 28  2  0  0  0  0
  9 29  2  0  0  0  0
 10 31  2  0  0  0  0
 10 33  1  0  0  0  0
 11 32  2  0  0  0  0
 11 34  1  0  0  0  0
 12 13  1  0  0  0  0
 12 14  1  0  0  0  0
 12 15  1  0  0  0  0
 12 35  1  0  0  0  0
 13 16  1  0  0  0  0
 13 36  1  0  0  0  0
 14 37  1  0  0  0  0
 14 38  1  0  0  0  0
 15 17  1  0  0  0  0
 15 39  1  0  0  0  0
 15 40  1  0  0  0  0
 16 41  1  0  0  0  0
 16 42  1  0  0  0  0
 17 43  1  0  0  0  0
 17 44  1  0  0  0  0
 18 20  1  0  0  0  0
 18 45  1  0  0  0  0
 18 46  1  0  0  0  0
 19 21  1  0  0  0  0
 19 22  2  0  0  0  0
 20 23  1  0  0  0  0
 20 47  1  0  0  0  0
 20 48  1  0  0  0  0
 21 24  2  0  0  0  0
 21 49  1  0  0  0  0
 22 25  1  0  0  0  0
 22 50  1  0  0  0  0
 23 51  1  0  0  0  0
 23 52  1  0  0  0  0
 24 26  1  0  0  0  0
 24 27  1  0  0  0  0
 25 26  2  0  0  0  0
 25 53  1  0  0  0  0
 26 54  1  0  0  0  0
 29 31  1  0  0  0  0
 30 55  1  0  0  0  0
 30 56  1  0  0  0  0
 30 57  1  0  0  0  0
 31 32  1  0  0  0  0
 32 58  1  0  0  0  0
 33 34  2  0  0  0  0
 33 59  1  0  0  0  0
 34 60  1  0  0  0  0
M  END
> <PUBCHEM_COMPOUND_CID>
126534740

> <PUBCHEM_COMPOUND_CANONICALIZED>
1

> <PUBCHEM_CACTVS_COMPLEXITY>
671

> <PUBCHEM_CACTVS_HBOND_ACCEPTOR>
10

> <PUBCHEM_CACTVS_HBOND_DONOR>
0

> <PUBCHEM_CACTVS_ROTATABLE_BOND>
7

> <PUBCHEM_CACTVS_SUBSKEYS>
AAADceB7gYBAAAAAAAAAAAAAAAAAAWLFgAA8QAAAAAAWAAAB8AAAHQQIAAAADSjFXxS/0JcMEAiiAzZnZACS0C9xErAd2CA4dJiIaOLg2ZGUIAhgiALIyAcQgAAOAAAAQAAAAAAAAACAAAAAAAAAAAAAAA==

> <PUBCHEM_IUPAC_OPENEYE_NAME>
5-[3-[(4-methyl-5-pyrazin-2-yl-1,2,4-triazol-3-yl)sulfanyl]propyl]-1-[3-(trifluoromethyl)phenyl]-2,3,3a,4,6,6a-hexahydropyrrolo[2,3-c]pyrrole

> <PUBCHEM_IUPAC_CAS_NAME>
5-[3-[[4-methyl-5-(2-pyrazinyl)-1,2,4-triazol-3-yl]thio]propyl]-1-[3-(trifluoromethyl)phenyl]-2,3,3a,4,6,6a-hexahydropyrrolo[2,3-c]pyrrole

> <PUBCHEM_IUPAC_NAME_MARKUP>
5-[3-[(4-methyl-5-pyrazin-2-yl-1,2,4-triazol-3-yl)sulfanyl]propyl]-1-[3-(trifluoromethyl)phenyl]-2,3,3<I>a</I>,4,6,6<I>a</I>-hexahydropyrrolo[2,3-c]pyrrole

> <PUBCHEM_IUPAC_NAME>
5-[3-[(4-methyl-5-pyrazin-2-yl-1,2,4-triazol-3-yl)sulfanyl]propyl]-1-[3-(trifluoromethyl)phenyl]-2,3,3a,4,6,6a-hexahydropyrrolo[2,3-c]pyrrole

> <PUBCHEM_IUPAC_SYSTEMATIC_NAME>
5-[3-[(4-methyl-5-pyrazin-2-yl-1,2,4-triazol-3-yl)sulfanyl]propyl]-1-[3-(trifluoromethyl)phenyl]-2,3,3a,4,6,6a-hexahydropyrrolo[2,3-c]pyrrole

> <PUBCHEM_IUPAC_TRADITIONAL_NAME>
5-[3-[(4-methyl-5-pyrazin-2-yl-1,2,4-triazol-3-yl)thio]propyl]-1-[3-(trifluoromethyl)phenyl]-2,3,3a,4,6,6a-hexahydropyrrolo[2,3-c]pyrrole

> <PUBCHEM_IUPAC_INCHI>
InChI=1S/C23H26F3N7S/c1-31-21(19-13-27-7-8-28-19)29-30-22(31)34-11-3-9-32-14-16-6-10-33(20(16)15-32)18-5-2-4-17(12-18)23(24,25)26/h2,4-5,7-8,12-13,16,20H,3,6,9-11,14-15H2,1H3

> <PUBCHEM_IUPAC_INCHIKEY>
AENHFZZMNBETCL-UHFFFAOYSA-N

> <PUBCHEM_XLOGP3_AA>
3.2

> <PUBCHEM_EXACT_MASS>
489.19224952

> <PUBCHEM_MOLECULAR_FORMULA>
C23H26F3N7S

> <PUBCHEM_MOLECULAR_WEIGHT>
489.6

> <PUBCHEM_OPENEYE_CAN_SMILES>
CN1C(=NN=C1SCCCN2CC3CCN(C3C2)C4=CC=CC(=C4)C(F)(F)F)C5=NC=CN=C5

> <PUBCHEM_OPENEYE_ISO_SMILES>
CN1C(=NN=C1SCCCN2CC3CCN(C3C2)C4=CC=CC(=C4)C(F)(F)F)C5=NC=CN=C5

> <PUBCHEM_CACTVS_TPSA>
88.3

> <PUBCHEM_MONOISOTOPIC_WEIGHT>
489.19224952

> <PUBCHEM_TOTAL_CHARGE>
0

> <PUBCHEM_HEAVY_ATOM_COUNT>
34

> <PUBCHEM_ATOM_DEF_STEREO_COUNT>
0

> <PUBCHEM_ATOM_UDEF_STEREO_COUNT>
2

> <PUBCHEM_BOND_DEF_STEREO_COUNT>
0

> <PUBCHEM_BOND_UDEF_STEREO_COUNT>
0

> <PUBCHEM_ISOTOPIC_ATOM_COUNT>
0

> <PUBCHEM_COMPONENT_COUNT>
1

> <PUBCHEM_CACTVS_TAUTO_COUNT>
-1

> <PUBCHEM_COORDINATE_TYPE>
1
5
255

> <PUBCHEM_BONDANNOTATIONS>
10  31  8
10  33  8
11  32  8
11  34  8
12  15  3
13  16  3
19  21  8
19  22  8
21  24  8
22  25  8
24  26  8
25  26  8
31  32  8
33  34  8
7  28  8
7  29  8
8  28  8
8  9  8
9  29  8

$$$$
