155538451
  -OEChem-09292322412D

 71 75  0     0  0  0  0  0  0999 V2000
    8.1142    5.0346    0.0000 O   0  0  0  0  0  0  0  0  0  0  0  0
    5.5161   -3.4654    0.0000 O   0  0  0  0  0  0  0  0  0  0  0  0
    2.0520   -3.4654    0.0000 O   0  0  0  0  0  0  0  0  0  0  0  0
    6.3821    2.0346    0.0000 N   0  0  0  0  0  0  0  0  0  0  0  0
    6.3821    4.0346    0.0000 N   0  0  0  0  0  0  0  0  0  0  0  0
    3.7841   -3.4654    0.0000 N   0  0  0  0  0  0  0  0  0  0  0  0
    7.2482    2.5346    0.0000 C   0  0  0  0  0  0  0  0  0  0  0  0
    5.5161    2.5346    0.0000 C   0  0  0  0  0  0  0  0  0  0  0  0
    6.3821    1.0346    0.0000 C   0  0  0  0  0  0  0  0  0  0  0  0
    7.2482    3.5346    0.0000 C   0  0  0  0  0  0  0  0  0  0  0  0
    5.5161    3.5346    0.0000 C   0  0  0  0  0  0  0  0  0  0  0  0
    5.5161    0.5346    0.0000 C   0  0  0  0  0  0  0  0  0  0  0  0
    5.5161   -0.4654    0.0000 C   0  0  0  0  0  0  0  0  0  0  0  0
    4.6501   -0.9654    0.0000 C   0  0  0  0  0  0  0  0  0  0  0  0
    6.3821    5.0346    0.0000 C   0  0  0  0  0  0  0  0  0  0  0  0
    4.6501   -1.9654    0.0000 C   0  0  0  0  0  0  0  0  0  0  0  0
    3.7841   -2.4654    0.0000 C   0  0  0  0  0  0  0  0  0  0  0  0
    7.2482    5.5346    0.0000 C   0  0  0  0  0  0  0  0  0  0  0  0
    5.5161    5.5346    0.0000 C   0  0  0  0  0  0  0  0  0  0  0  0
    3.7841   -5.4654    0.0000 C   0  0  0  0  0  0  0  0  0  0  0  0
    4.6501   -3.9654    0.0000 C   0  0  0  0  0  0  0  0  0  0  0  0
    2.9180   -3.9654    0.0000 C   0  0  0  0  0  0  0  0  0  0  0  0
    4.6501   -4.9654    0.0000 C   0  0  0  0  0  0  0  0  0  0  0  0
    2.9180   -4.9654    0.0000 C   0  0  0  0  0  0  0  0  0  0  0  0
    7.2482    6.5346    0.0000 C   0  0  0  0  0  0  0  0  0  0  0  0
    5.5161    6.5346    0.0000 C   0  0  0  0  0  0  0  0  0  0  0  0
    3.8001   -6.5069    0.0000 C   0  0  0  0  0  0  0  0  0  0  0  0
    6.3821    7.0346    0.0000 C   0  0  0  0  0  0  0  0  0  0  0  0
    5.5601   -5.4722    0.0000 C   0  0  0  0  0  0  0  0  0  0  0  0
    2.0080   -5.4722    0.0000 C   0  0  0  0  0  0  0  0  0  0  0  0
    4.6660   -7.0346    0.0000 C   0  0  0  0  0  0  0  0  0  0  0  0
    2.9021   -7.0346    0.0000 C   0  0  0  0  0  0  0  0  0  0  0  0
    5.5681   -6.5138    0.0000 C   0  0  0  0  0  0  0  0  0  0  0  0
    2.0000   -6.5138    0.0000 C   0  0  0  0  0  0  0  0  0  0  0  0
    8.9802    5.5346    0.0000 C   0  0  0  0  0  0  0  0  0  0  0  0
    9.8462    5.0346    0.0000 C   0  0  0  0  0  0  0  0  0  0  0  0
    7.4602    1.9520    0.0000 H   0  0  0  0  0  0  0  0  0  0  0  0
    7.8587    2.6423    0.0000 H   0  0  0  0  0  0  0  0  0  0  0  0
    4.9055    2.6423    0.0000 H   0  0  0  0  0  0  0  0  0  0  0  0
    5.3040    1.9520    0.0000 H   0  0  0  0  0  0  0  0  0  0  0  0
    6.5942    0.4520    0.0000 H   0  0  0  0  0  0  0  0  0  0  0  0
    6.9927    1.1423    0.0000 H   0  0  0  0  0  0  0  0  0  0  0  0
    7.8587    3.4270    0.0000 H   0  0  0  0  0  0  0  0  0  0  0  0
    7.4602    4.1172    0.0000 H   0  0  0  0  0  0  0  0  0  0  0  0
    5.3040    4.1172    0.0000 H   0  0  0  0  0  0  0  0  0  0  0  0
    4.9055    3.4270    0.0000 H   0  0  0  0  0  0  0  0  0  0  0  0
    5.3040    1.1172    0.0000 H   0  0  0  0  0  0  0  0  0  0  0  0
    4.9055    0.4270    0.0000 H   0  0  0  0  0  0  0  0  0  0  0  0
    5.7282   -1.0480    0.0000 H   0  0  0  0  0  0  0  0  0  0  0  0
    6.1267   -0.3577    0.0000 H   0  0  0  0  0  0  0  0  0  0  0  0
    4.4380   -0.3828    0.0000 H   0  0  0  0  0  0  0  0  0  0  0  0
    4.0395   -1.0730    0.0000 H   0  0  0  0  0  0  0  0  0  0  0  0
    4.8621   -2.5480    0.0000 H   0  0  0  0  0  0  0  0  0  0  0  0
    5.2607   -1.8577    0.0000 H   0  0  0  0  0  0  0  0  0  0  0  0
    3.5720   -1.8828    0.0000 H   0  0  0  0  0  0  0  0  0  0  0  0
    3.1735   -2.5730    0.0000 H   0  0  0  0  0  0  0  0  0  0  0  0
    4.9792    5.2246    0.0000 H   0  0  0  0  0  0  0  0  0  0  0  0
    7.7851    6.8446    0.0000 H   0  0  0  0  0  0  0  0  0  0  0  0
    4.9792    6.8446    0.0000 H   0  0  0  0  0  0  0  0  0  0  0  0
    6.3821    7.6546    0.0000 H   0  0  0  0  0  0  0  0  0  0  0  0
    6.0934   -5.1560    0.0000 H   0  0  0  0  0  0  0  0  0  0  0  0
    1.4747   -5.1560    0.0000 H   0  0  0  0  0  0  0  0  0  0  0  0
    4.6587   -7.6546    0.0000 H   0  0  0  0  0  0  0  0  0  0  0  0
    2.9045   -7.6546    0.0000 H   0  0  0  0  0  0  0  0  0  0  0  0
    6.1062   -6.8217    0.0000 H   0  0  0  0  0  0  0  0  0  0  0  0
    1.4619   -6.8217    0.0000 H   0  0  0  0  0  0  0  0  0  0  0  0
    9.3787    6.0096    0.0000 H   0  0  0  0  0  0  0  0  0  0  0  0
    8.5817    6.0096    0.0000 H   0  0  0  0  0  0  0  0  0  0  0  0
    9.5362    4.4977    0.0000 H   0  0  0  0  0  0  0  0  0  0  0  0
   10.3832    4.7246    0.0000 H   0  0  0  0  0  0  0  0  0  0  0  0
   10.1562    5.5716    0.0000 H   0  0  0  0  0  0  0  0  0  0  0  0
  1 18  1  0  0  0  0
  1 35  1  0  0  0  0
  2 21  2  0  0  0  0
  3 22  2  0  0  0  0
  4  7  1  0  0  0  0
  4  8  1  0  0  0  0
  4  9  1  0  0  0  0
  5 10  1  0  0  0  0
  5 11  1  0  0  0  0
  5 15  1  0  0  0  0
  6 17  1  0  0  0  0
  6 21  1  0  0  0  0
  6 22  1  0  0  0  0
  7 10  1  0  0  0  0
  7 37  1  0  0  0  0
  7 38  1  0  0  0  0
  8 11  1  0  0  0  0
  8 39  1  0  0  0  0
  8 40  1  0  0  0  0
  9 12  1  0  0  0  0
  9 41  1  0  0  0  0
  9 42  1  0  0  0  0
 10 43  1  0  0  0  0
 10 44  1  0  0  0  0
 11 45  1  0  0  0  0
 11 46  1  0  0  0  0
 12 13  1  0  0  0  0
 12 47  1  0  0  0  0
 12 48  1  0  0  0  0
 13 14  1  0  0  0  0
 13 49  1  0  0  0  0
 13 50  1  0  0  0  0
 14 16  1  0  0  0  0
 14 51  1  0  0  0  0
 14 52  1  0  0  0  0
 15 18  1  0  0  0  0
 15 19  2  0  0  0  0
 16 17  1  0  0  0  0
 16 53  1  0  0  0  0
 16 54  1  0  0  0  0
 17 55  1  0  0  0  0
 17 56  1  0  0  0  0
 18 25  2  0  0  0  0
 19 26  1  0  0  0  0
 19 57  1  0  0  0  0
 20 23  1  0  0  0  0
 20 24  1  0  0  0  0
 20 27  2  0  0  0  0
 21 23  1  0  0  0  0
 22 24  1  0  0  0  0
 23 29  2  0  0  0  0
 24 30  2  0  0  0  0
 25 28  1  0  0  0  0
 25 58  1  0  0  0  0
 26 28  2  0  0  0  0
 26 59  1  0  0  0  0
 27 31  1  0  0  0  0
 27 32  1  0  0  0  0
 28 60  1  0  0  0  0
 29 33  1  0  0  0  0
 29 61  1  0  0  0  0
 30 34  1  0  0  0  0
 30 62  1  0  0  0  0
 31 33  2  0  0  0  0
 31 63  1  0  0  0  0
 32 34  2  0  0  0  0
 32 64  1  0  0  0  0
 33 65  1  0  0  0  0
 34 66  1  0  0  0  0
 35 36  1  0  0  0  0
 35 67  1  0  0  0  0
 35 68  1  0  0  0  0
 36 69  1  0  0  0  0
 36 70  1  0  0  0  0
 36 71  1  0  0  0  0
M  END
> <PUBCHEM_COMPOUND_CID>
155538451

> <PUBCHEM_COMPOUND_CANONICALIZED>
1

> <PUBCHEM_CACTVS_COMPLEXITY>
707

> <PUBCHEM_CACTVS_HBOND_ACCEPTOR>
5

> <PUBCHEM_CACTVS_HBOND_DONOR>
0

> <PUBCHEM_CACTVS_ROTATABLE_BOND>
10

> <PUBCHEM_CACTVS_SUBSKEYS>
AAADcfB7MAAAAAAAAAAAAAAAAAAAAAAAAAA8eMECAAAAAADxVAAAHgAAAAAADAzhmAYyxsMABACIAiVSUACCCAAlIgAIiAEPbMgOZjLEtZuXOSjkxjHY6YeYy8COgAACAAAQEAAAAAQAACAgAAAAAAAAAA==

> <PUBCHEM_IUPAC_OPENEYE_NAME>
2-[6-[4-(2-ethoxyphenyl)piperazin-1-yl]hexyl]benzo[de]isoquinoline-1,3-dione

> <PUBCHEM_IUPAC_CAS_NAME>
2-[6-[4-(2-ethoxyphenyl)-1-piperazinyl]hexyl]benzo[de]isoquinoline-1,3-dione

> <PUBCHEM_IUPAC_NAME_MARKUP>
2-[6-[4-(2-ethoxyphenyl)piperazin-1-yl]hexyl]benzo[de]isoquinoline-1,3-dione

> <PUBCHEM_IUPAC_NAME>
2-[6-[4-(2-ethoxyphenyl)piperazin-1-yl]hexyl]benzo[de]isoquinoline-1,3-dione

> <PUBCHEM_IUPAC_SYSTEMATIC_NAME>
2-[6-[4-(2-ethoxyphenyl)piperazin-1-yl]hexyl]benzo[de]isoquinoline-1,3-dione

> <PUBCHEM_IUPAC_TRADITIONAL_NAME>
2-[6-(4-o-phenetylpiperazino)hexyl]benzo[de]isoquinoline-1,3-quinone

> <PUBCHEM_IUPAC_INCHI>
InChI=1S/C30H35N3O3/c1-2-36-27-16-6-5-15-26(27)32-21-19-31(20-22-32)17-7-3-4-8-18-33-29(34)24-13-9-11-23-12-10-14-25(28(23)24)30(33)35/h5-6,9-16H,2-4,7-8,17-22H2,1H3

> <PUBCHEM_IUPAC_INCHIKEY>
VYUXTFBVDSGWAR-UHFFFAOYSA-N

> <PUBCHEM_XLOGP3_AA>
5.5

> <PUBCHEM_EXACT_MASS>
485.26784199

> <PUBCHEM_MOLECULAR_FORMULA>
C30H35N3O3

> <PUBCHEM_MOLECULAR_WEIGHT>
485.6

> <PUBCHEM_OPENEYE_CAN_SMILES>
CCOC1=CC=CC=C1N2CCN(CC2)CCCCCCN3C(=O)C4=CC=CC5=C4C(=CC=C5)C3=O

> <PUBCHEM_OPENEYE_ISO_SMILES>
CCOC1=CC=CC=C1N2CCN(CC2)CCCCCCN3C(=O)C4=CC=CC5=C4C(=CC=C5)C3=O

> <PUBCHEM_CACTVS_TPSA>
53.1

> <PUBCHEM_MONOISOTOPIC_WEIGHT>
485.26784199

> <PUBCHEM_TOTAL_CHARGE>
0

> <PUBCHEM_HEAVY_ATOM_COUNT>
36

> <PUBCHEM_ATOM_DEF_STEREO_COUNT>
0

> <PUBCHEM_ATOM_UDEF_STEREO_COUNT>
0

> <PUBCHEM_BOND_DEF_STEREO_COUNT>
0

> <PUBCHEM_BOND_UDEF_STEREO_COUNT>
0

> <PUBCHEM_ISOTOPIC_ATOM_COUNT>
0

> <PUBCHEM_COMPONENT_COUNT>
1

> <PUBCHEM_CACTVS_TAUTO_COUNT>
-1

> <PUBCHEM_COORDINATE_TYPE>
1
5
255

> <PUBCHEM_BONDANNOTATIONS>
15  18  8
15  19  8
18  25  8
19  26  8
20  23  8
20  24  8
20  27  8
23  29  8
24  30  8
25  28  8
26  28  8
27  31  8
27  32  8
29  33  8
30  34  8
31  33  8
32  34  8

$$$$
