10619737
  -OEChem-09292322132D

 53 56  0     0  0  0  0  0  0999 V2000
    6.5832    6.1374    0.0000 Cl  0  0  0  0  0  0  0  0  0  0  0  0
    3.7320   -1.6374    0.0000 N   0  0  0  0  0  0  0  0  0  0  0  0
    2.9230    1.9503    0.0000 N   0  0  0  0  0  0  0  0  0  0  0  0
    3.2320    2.9014    0.0000 N   0  0  0  0  0  0  0  0  0  0  0  0
    3.7320    0.3625    0.0000 C   0  0  0  0  0  0  0  0  0  0  0  0
    2.8660   -0.1375    0.0000 C   0  0  0  0  0  0  0  0  0  0  0  0
    4.5981   -0.1375    0.0000 C   0  0  0  0  0  0  0  0  0  0  0  0
    2.8660   -1.1374    0.0000 C   0  0  0  0  0  0  0  0  0  0  0  0
    4.5981   -1.1374    0.0000 C   0  0  0  0  0  0  0  0  0  0  0  0
    3.7320    1.3626    0.0000 C   0  0  0  0  0  0  0  0  0  0  0  0
    3.7320   -2.6374    0.0000 C   0  0  0  0  0  0  0  0  0  0  0  0
    4.5411    1.9503    0.0000 C   0  0  0  0  0  0  0  0  0  0  0  0
    2.8660   -3.1374    0.0000 C   0  0  0  0  0  0  0  0  0  0  0  0
    4.2320    2.9014    0.0000 C   0  0  0  0  0  0  0  0  0  0  0  0
    5.4921    1.6413    0.0000 C   0  0  0  0  0  0  0  0  0  0  0  0
    2.8660   -4.1374    0.0000 C   0  0  0  0  0  0  0  0  0  0  0  0
    4.8198    3.7104    0.0000 C   0  0  0  0  0  0  0  0  0  0  0  0
    3.7320   -4.6374    0.0000 C   0  0  0  0  0  0  0  0  0  0  0  0
    2.0000   -4.6374    0.0000 C   0  0  0  0  0  0  0  0  0  0  0  0
    5.8144    3.6059    0.0000 C   0  0  0  0  0  0  0  0  0  0  0  0
    4.4131    4.6240    0.0000 C   0  0  0  0  0  0  0  0  0  0  0  0
    3.7320   -5.6374    0.0000 C   0  0  0  0  0  0  0  0  0  0  0  0
    2.0000   -5.6374    0.0000 C   0  0  0  0  0  0  0  0  0  0  0  0
    2.8660   -6.1374    0.0000 C   0  0  0  0  0  0  0  0  0  0  0  0
    6.4021    4.4149    0.0000 C   0  0  0  0  0  0  0  0  0  0  0  0
    5.0009    5.4330    0.0000 C   0  0  0  0  0  0  0  0  0  0  0  0
    5.9954    5.3284    0.0000 C   0  0  0  0  0  0  0  0  0  0  0  0
    4.2690    0.6725    0.0000 H   0  0  0  0  0  0  0  0  0  0  0  0
    2.6540    0.4452    0.0000 H   0  0  0  0  0  0  0  0  0  0  0  0
    2.2554   -0.2451    0.0000 H   0  0  0  0  0  0  0  0  0  0  0  0
    5.2087   -0.2451    0.0000 H   0  0  0  0  0  0  0  0  0  0  0  0
    4.8101    0.4452    0.0000 H   0  0  0  0  0  0  0  0  0  0  0  0
    2.2554   -1.0298    0.0000 H   0  0  0  0  0  0  0  0  0  0  0  0
    2.6540   -1.7201    0.0000 H   0  0  0  0  0  0  0  0  0  0  0  0
    4.8101   -1.7201    0.0000 H   0  0  0  0  0  0  0  0  0  0  0  0
    5.2087   -1.0298    0.0000 H   0  0  0  0  0  0  0  0  0  0  0  0
    3.9441   -3.2201    0.0000 H   0  0  0  0  0  0  0  0  0  0  0  0
    4.3426   -2.5298    0.0000 H   0  0  0  0  0  0  0  0  0  0  0  0
    2.6540   -2.5548    0.0000 H   0  0  0  0  0  0  0  0  0  0  0  0
    2.2554   -3.2451    0.0000 H   0  0  0  0  0  0  0  0  0  0  0  0
    2.3334    1.7587    0.0000 H   0  0  0  0  0  0  0  0  0  0  0  0
    5.3005    1.0517    0.0000 H   0  0  0  0  0  0  0  0  0  0  0  0
    6.0818    1.4497    0.0000 H   0  0  0  0  0  0  0  0  0  0  0  0
    5.6837    2.2310    0.0000 H   0  0  0  0  0  0  0  0  0  0  0  0
    4.2690   -4.3275    0.0000 H   0  0  0  0  0  0  0  0  0  0  0  0
    1.4631   -4.3275    0.0000 H   0  0  0  0  0  0  0  0  0  0  0  0
    6.0665    3.0395    0.0000 H   0  0  0  0  0  0  0  0  0  0  0  0
    3.7965    4.6888    0.0000 H   0  0  0  0  0  0  0  0  0  0  0  0
    4.2690   -5.9474    0.0000 H   0  0  0  0  0  0  0  0  0  0  0  0
    1.4631   -5.9474    0.0000 H   0  0  0  0  0  0  0  0  0  0  0  0
    2.8660   -6.7574    0.0000 H   0  0  0  0  0  0  0  0  0  0  0  0
    7.0188    4.3501    0.0000 H   0  0  0  0  0  0  0  0  0  0  0  0
    4.7487    5.9994    0.0000 H   0  0  0  0  0  0  0  0  0  0  0  0
  1 27  1  0  0  0  0
  2  8  1  0  0  0  0
  2  9  1  0  0  0  0
  2 11  1  0  0  0  0
  3  4  1  0  0  0  0
  3 10  1  0  0  0  0
  3 41  1  0  0  0  0
  4 14  2  0  0  0  0
  5  6  1  0  0  0  0
  5  7  1  0  0  0  0
  5 10  1  0  0  0  0
  5 28  1  0  0  0  0
  6  8  1  0  0  0  0
  6 29  1  0  0  0  0
  6 30  1  0  0  0  0
  7  9  1  0  0  0  0
  7 31  1  0  0  0  0
  7 32  1  0  0  0  0
  8 33  1  0  0  0  0
  8 34  1  0  0  0  0
  9 35  1  0  0  0  0
  9 36  1  0  0  0  0
 10 12  2  0  0  0  0
 11 13  1  0  0  0  0
 11 37  1  0  0  0  0
 11 38  1  0  0  0  0
 12 14  1  0  0  0  0
 12 15  1  0  0  0  0
 13 16  1  0  0  0  0
 13 39  1  0  0  0  0
 13 40  1  0  0  0  0
 14 17  1  0  0  0  0
 15 42  1  0  0  0  0
 15 43  1  0  0  0  0
 15 44  1  0  0  0  0
 16 18  2  0  0  0  0
 16 19  1  0  0  0  0
 17 20  2  0  0  0  0
 17 21  1  0  0  0  0
 18 22  1  0  0  0  0
 18 45  1  0  0  0  0
 19 23  2  0  0  0  0
 19 46  1  0  0  0  0
 20 25  1  0  0  0  0
 20 47  1  0  0  0  0
 21 26  2  0  0  0  0
 21 48  1  0  0  0  0
 22 24  2  0  0  0  0
 22 49  1  0  0  0  0
 23 24  1  0  0  0  0
 23 50  1  0  0  0  0
 24 51  1  0  0  0  0
 25 27  2  0  0  0  0
 25 52  1  0  0  0  0
 26 27  1  0  0  0  0
 26 53  1  0  0  0  0
M  END
> <PUBCHEM_COMPOUND_CID>
10619737

> <PUBCHEM_COMPOUND_CANONICALIZED>
1

> <PUBCHEM_CACTVS_COMPLEXITY>
437

> <PUBCHEM_CACTVS_HBOND_ACCEPTOR>
2

> <PUBCHEM_CACTVS_HBOND_DONOR>
1

> <PUBCHEM_CACTVS_ROTATABLE_BOND>
5

> <PUBCHEM_CACTVS_SUBSKEYS>
AAADceB7AAAEAAAAAAAAAAAAAAAAAWAAAAA8YIAAAAAAAAAB0AAAHAIYAAAADQrBHiQygJNjAACiAyRiQACSBAAgBQAYuSA4RpgIIKKB09GEpABgmACIyAcQgMAOBAAAAAAAAAAIAAAAAAAAAAAAAAAAAA==

> <PUBCHEM_IUPAC_OPENEYE_NAME>
4-[3-(4-chlorophenyl)-4-methyl-1H-pyrazol-5-yl]-1-(2-phenylethyl)piperidine

> <PUBCHEM_IUPAC_CAS_NAME>
4-[3-(4-chlorophenyl)-4-methyl-1H-pyrazol-5-yl]-1-(2-phenylethyl)piperidine

> <PUBCHEM_IUPAC_NAME_MARKUP>
4-[3-(4-chlorophenyl)-4-methyl-1<I>H</I>-pyrazol-5-yl]-1-(2-phenylethyl)piperidine

> <PUBCHEM_IUPAC_NAME>
4-[3-(4-chlorophenyl)-4-methyl-1H-pyrazol-5-yl]-1-(2-phenylethyl)piperidine

> <PUBCHEM_IUPAC_SYSTEMATIC_NAME>
4-[3-(4-chlorophenyl)-4-methyl-1H-pyrazol-5-yl]-1-(2-phenylethyl)piperidine

> <PUBCHEM_IUPAC_TRADITIONAL_NAME>
4-[3-(4-chlorophenyl)-4-methyl-1H-pyrazol-5-yl]-1-phenethyl-piperidine

> <PUBCHEM_IUPAC_INCHI>
InChI=1S/C23H26ClN3/c1-17-22(19-7-9-21(24)10-8-19)25-26-23(17)20-12-15-27(16-13-20)14-11-18-5-3-2-4-6-18/h2-10,20H,11-16H2,1H3,(H,25,26)

> <PUBCHEM_IUPAC_INCHIKEY>
GNGQVEIKYIVCPC-UHFFFAOYSA-N

> <PUBCHEM_XLOGP3_AA>
5.4

> <PUBCHEM_EXACT_MASS>
379.1815255

> <PUBCHEM_MOLECULAR_FORMULA>
C23H26ClN3

> <PUBCHEM_MOLECULAR_WEIGHT>
379.9

> <PUBCHEM_OPENEYE_CAN_SMILES>
CC1=C(NN=C1C2=CC=C(C=C2)Cl)C3CCN(CC3)CCC4=CC=CC=C4

> <PUBCHEM_OPENEYE_ISO_SMILES>
CC1=C(NN=C1C2=CC=C(C=C2)Cl)C3CCN(CC3)CCC4=CC=CC=C4

> <PUBCHEM_CACTVS_TPSA>
31.9

> <PUBCHEM_MONOISOTOPIC_WEIGHT>
379.1815255

> <PUBCHEM_TOTAL_CHARGE>
0

> <PUBCHEM_HEAVY_ATOM_COUNT>
27

> <PUBCHEM_ATOM_DEF_STEREO_COUNT>
0

> <PUBCHEM_ATOM_UDEF_STEREO_COUNT>
0

> <PUBCHEM_BOND_DEF_STEREO_COUNT>
0

> <PUBCHEM_BOND_UDEF_STEREO_COUNT>
0

> <PUBCHEM_ISOTOPIC_ATOM_COUNT>
0

> <PUBCHEM_COMPONENT_COUNT>
1

> <PUBCHEM_CACTVS_TAUTO_COUNT>
-1

> <PUBCHEM_COORDINATE_TYPE>
1
5
255

> <PUBCHEM_BONDANNOTATIONS>
10  12  8
12  14  8
16  18  8
16  19  8
17  20  8
17  21  8
18  22  8
19  23  8
20  25  8
21  26  8
22  24  8
23  24  8
25  27  8
26  27  8
3  10  8
3  4  8
4  14  8

$$$$
