122167
  -OEChem-09292321582D

 44 45  0     1  0  0  0  0  0999 V2000
    4.2690   -2.6087    0.0000 O   0  0  0  0  0  0  0  0  0  0  0  0
    2.5369   -1.6087    0.0000 O   0  0  0  0  0  0  0  0  0  0  0  0
    7.7991    0.4154    0.0000 N   0  0  0  0  0  0  0  0  0  0  0  0
    6.9350   -0.0879    0.0000 C   0  0  3  0  0  0  0  0  0  0  0  0
    6.9350   -1.1296    0.0000 C   0  0  0  0  0  0  0  0  0  0  0  0
    6.0290    0.4259    0.0000 C   0  0  0  0  0  0  0  0  0  0  0  0
    6.0290   -1.6434    0.0000 C   0  0  0  0  0  0  0  0  0  0  0  0
    5.1350   -0.1087    0.0000 C   0  0  0  0  0  0  0  0  0  0  0  0
    5.1350   -1.1087    0.0000 C   0  0  0  0  0  0  0  0  0  0  0  0
    8.6671   -0.0812    0.0000 C   0  0  0  0  0  0  0  0  0  0  0  0
    7.7953    1.4154    0.0000 C   0  0  0  0  0  0  0  0  0  0  0  0
    9.5312    0.4221    0.0000 C   0  0  0  0  0  0  0  0  0  0  0  0
    8.6594    1.9187    0.0000 C   0  0  0  0  0  0  0  0  0  0  0  0
    4.2690   -1.6087    0.0000 C   0  0  0  0  0  0  0  0  0  0  0  0
    4.2690    0.3913    0.0000 C   0  0  0  0  0  0  0  0  0  0  0  0
    3.4030   -1.1087    0.0000 C   0  0  0  0  0  0  0  0  0  0  0  0
    3.4030   -0.1087    0.0000 C   0  0  0  0  0  0  0  0  0  0  0  0
   10.3991   -0.0746    0.0000 C   0  0  0  0  0  0  0  0  0  0  0  0
    8.6555    2.9187    0.0000 C   0  0  0  0  0  0  0  0  0  0  0  0
    7.6720   -0.5115    0.0000 H   0  0  0  0  0  0  0  0  0  0  0  0
    7.1441   -1.7132    0.0000 H   0  0  0  0  0  0  0  0  0  0  0  0
    7.5459   -1.0235    0.0000 H   0  0  0  0  0  0  0  0  0  0  0  0
    6.4226    0.9049    0.0000 H   0  0  0  0  0  0  0  0  0  0  0  0
    5.6244    0.8957    0.0000 H   0  0  0  0  0  0  0  0  0  0  0  0
    5.6244   -2.1132    0.0000 H   0  0  0  0  0  0  0  0  0  0  0  0
    6.4226   -2.1224    0.0000 H   0  0  0  0  0  0  0  0  0  0  0  0
    8.2704   -0.5577    0.0000 H   0  0  0  0  0  0  0  0  0  0  0  0
    9.0674   -0.5547    0.0000 H   0  0  0  0  0  0  0  0  0  0  0  0
    7.5810    1.9972    0.0000 H   0  0  0  0  0  0  0  0  0  0  0  0
    7.1851    1.3054    0.0000 H   0  0  0  0  0  0  0  0  0  0  0  0
    9.9278    0.8986    0.0000 H   0  0  0  0  0  0  0  0  0  0  0  0
    9.1308    0.8955    0.0000 H   0  0  0  0  0  0  0  0  0  0  0  0
    8.8736    1.3370    0.0000 H   0  0  0  0  0  0  0  0  0  0  0  0
    9.2695    2.0288    0.0000 H   0  0  0  0  0  0  0  0  0  0  0  0
    4.2690    1.0113    0.0000 H   0  0  0  0  0  0  0  0  0  0  0  0
    2.8660    0.2013    0.0000 H   0  0  0  0  0  0  0  0  0  0  0  0
   10.0912   -0.6127    0.0000 H   0  0  0  0  0  0  0  0  0  0  0  0
   10.9372   -0.3825    0.0000 H   0  0  0  0  0  0  0  0  0  0  0  0
   10.7070    0.4636    0.0000 H   0  0  0  0  0  0  0  0  0  0  0  0
    9.2755    2.9211    0.0000 H   0  0  0  0  0  0  0  0  0  0  0  0
    8.6531    3.5387    0.0000 H   0  0  0  0  0  0  0  0  0  0  0  0
    8.0355    2.9164    0.0000 H   0  0  0  0  0  0  0  0  0  0  0  0
    3.7320   -2.9187    0.0000 H   0  0  0  0  0  0  0  0  0  0  0  0
    2.0000   -1.2987    0.0000 H   0  0  0  0  0  0  0  0  0  0  0  0
  1 14  1  0  0  0  0
  1 43  1  0  0  0  0
  2 16  1  0  0  0  0
  2 44  1  0  0  0  0
  3  4  1  0  0  0  0
  3 10  1  0  0  0  0
  3 11  1  0  0  0  0
  4  5  1  0  0  0  0
  4  6  1  0  0  0  0
  4 20  1  0  0  0  0
  5  7  1  0  0  0  0
  5 21  1  0  0  0  0
  5 22  1  0  0  0  0
  6  8  1  0  0  0  0
  6 23  1  0  0  0  0
  6 24  1  0  0  0  0
  7  9  1  0  0  0  0
  7 25  1  0  0  0  0
  7 26  1  0  0  0  0
  8  9  2  0  0  0  0
  8 15  1  0  0  0  0
  9 14  1  0  0  0  0
 10 12  1  0  0  0  0
 10 27  1  0  0  0  0
 10 28  1  0  0  0  0
 11 13  1  0  0  0  0
 11 29  1  0  0  0  0
 11 30  1  0  0  0  0
 12 18  1  0  0  0  0
 12 31  1  0  0  0  0
 12 32  1  0  0  0  0
 13 19  1  0  0  0  0
 13 33  1  0  0  0  0
 13 34  1  0  0  0  0
 14 16  2  0  0  0  0
 15 17  2  0  0  0  0
 15 35  1  0  0  0  0
 16 17  1  0  0  0  0
 17 36  1  0  0  0  0
 18 37  1  0  0  0  0
 18 38  1  0  0  0  0
 18 39  1  0  0  0  0
 19 40  1  0  0  0  0
 19 41  1  0  0  0  0
 19 42  1  0  0  0  0
M  END
> <PUBCHEM_COMPOUND_CID>
122167

> <PUBCHEM_COMPOUND_CANONICALIZED>
1

> <PUBCHEM_CACTVS_COMPLEXITY>
266

> <PUBCHEM_CACTVS_HBOND_ACCEPTOR>
3

> <PUBCHEM_CACTVS_HBOND_DONOR>
2

> <PUBCHEM_CACTVS_ROTATABLE_BOND>
5

> <PUBCHEM_CACTVS_SUBSKEYS>
AAADceB6MAAAAAAAAAAAAAAAAAAAAAAAAAAwYAAAAAAAAADBAAAAHgAACAAADCzBmAQyBoMAAgCAAiBCAAACAAAgIAAIiAAOiIgJJiKCkROEcAEkwBGJmAeQ0LMOoAABAAAYQABQAAKAADCAAAAAAAAAAA==

> <PUBCHEM_IUPAC_OPENEYE_NAME>
2-(dipropylamino)tetralin-5,6-diol

> <PUBCHEM_IUPAC_CAS_NAME>
6-(dipropylamino)-5,6,7,8-tetrahydronaphthalene-1,2-diol

> <PUBCHEM_IUPAC_NAME_MARKUP>
6-(dipropylamino)-5,6,7,8-tetrahydronaphthalene-1,2-diol

> <PUBCHEM_IUPAC_NAME>
6-(dipropylamino)-5,6,7,8-tetrahydronaphthalene-1,2-diol

> <PUBCHEM_IUPAC_SYSTEMATIC_NAME>
6-(dipropylamino)-5,6,7,8-tetrahydronaphthalene-1,2-diol

> <PUBCHEM_IUPAC_TRADITIONAL_NAME>
2-(dipropylamino)tetralin-5,6-diol

> <PUBCHEM_IUPAC_INCHI>
InChI=1S/C16H25NO2/c1-3-9-17(10-4-2)13-6-7-14-12(11-13)5-8-15(18)16(14)19/h5,8,13,18-19H,3-4,6-7,9-11H2,1-2H3

> <PUBCHEM_IUPAC_INCHIKEY>
JQHSYAQISCFWOK-UHFFFAOYSA-N

> <PUBCHEM_XLOGP3_AA>
3.8

> <PUBCHEM_EXACT_MASS>
263.188529040

> <PUBCHEM_MOLECULAR_FORMULA>
C16H25NO2

> <PUBCHEM_MOLECULAR_WEIGHT>
263.37

> <PUBCHEM_OPENEYE_CAN_SMILES>
CCCN(CCC)C1CCC2=C(C1)C=CC(=C2O)O

> <PUBCHEM_OPENEYE_ISO_SMILES>
CCCN(CCC)C1CCC2=C(C1)C=CC(=C2O)O

> <PUBCHEM_CACTVS_TPSA>
43.7

> <PUBCHEM_MONOISOTOPIC_WEIGHT>
263.188529040

> <PUBCHEM_TOTAL_CHARGE>
0

> <PUBCHEM_HEAVY_ATOM_COUNT>
19

> <PUBCHEM_ATOM_DEF_STEREO_COUNT>
0

> <PUBCHEM_ATOM_UDEF_STEREO_COUNT>
1

> <PUBCHEM_BOND_DEF_STEREO_COUNT>
0

> <PUBCHEM_BOND_UDEF_STEREO_COUNT>
0

> <PUBCHEM_ISOTOPIC_ATOM_COUNT>
0

> <PUBCHEM_COMPONENT_COUNT>
1

> <PUBCHEM_CACTVS_TAUTO_COUNT>
53

> <PUBCHEM_COORDINATE_TYPE>
1
5
255

> <PUBCHEM_BONDANNOTATIONS>
14  16  8
15  17  8
16  17  8
4  20  3
8  15  8
8  9  8
9  14  8

$$$$
