11777449
  -OEChem-09292322132D

 46 47  0     1  0  0  0  0  0999 V2000
    7.2125   -0.8019    0.0000 O   0  0  0  0  0  0  0  0  0  0  0  0
    3.7320    0.2327    0.0000 N   0  0  3  0  0  0  0  0  0  0  0  0
    4.5981    0.7327    0.0000 C   0  0  1  0  0  0  0  0  0  0  0  0
    5.4641    0.2327    0.0000 C   0  0  2  0  0  0  0  0  0  0  0  0
    4.5981    1.7327    0.0000 C   0  0  0  0  0  0  0  0  0  0  0  0
    6.3301    0.7327    0.0000 C   0  0  0  0  0  0  0  0  0  0  0  0
    5.4641    2.2327    0.0000 C   0  0  0  0  0  0  0  0  0  0  0  0
    6.3301    1.7327    0.0000 C   0  0  0  0  0  0  0  0  0  0  0  0
    2.8660    0.7327    0.0000 C   0  0  0  0  0  0  0  0  0  0  0  0
    3.7320   -0.7673    0.0000 C   0  0  0  0  0  0  0  0  0  0  0  0
    5.4641   -0.7673    0.0000 C   0  0  0  0  0  0  0  0  0  0  0  0
    7.2241    0.1980    0.0000 C   0  0  0  0  0  0  0  0  0  0  0  0
    2.8660   -1.2673    0.0000 C   0  0  0  0  0  0  0  0  0  0  0  0
    7.2241    2.2673    0.0000 C   0  0  0  0  0  0  0  0  0  0  0  0
    2.0000    0.2327    0.0000 C   0  0  0  0  0  0  0  0  0  0  0  0
    2.8660    1.7327    0.0000 C   0  0  0  0  0  0  0  0  0  0  0  0
    8.1301    0.7119    0.0000 C   0  0  0  0  0  0  0  0  0  0  0  0
    8.1301    1.7535    0.0000 C   0  0  0  0  0  0  0  0  0  0  0  0
    2.8660   -2.2673    0.0000 C   0  0  0  0  0  0  0  0  0  0  0  0
    4.5981    0.1127    0.0000 H   0  0  0  0  0  0  0  0  0  0  0  0
    6.0010   -0.0773    0.0000 H   0  0  0  0  0  0  0  0  0  0  0  0
    4.3860    2.3153    0.0000 H   0  0  0  0  0  0  0  0  0  0  0  0
    3.9875    1.6250    0.0000 H   0  0  0  0  0  0  0  0  0  0  0  0
    5.8626    2.7076    0.0000 H   0  0  0  0  0  0  0  0  0  0  0  0
    5.0656    2.7076    0.0000 H   0  0  0  0  0  0  0  0  0  0  0  0
    2.8660    0.1127    0.0000 H   0  0  0  0  0  0  0  0  0  0  0  0
    3.9441   -1.3499    0.0000 H   0  0  0  0  0  0  0  0  0  0  0  0
    4.3426   -0.6597    0.0000 H   0  0  0  0  0  0  0  0  0  0  0  0
    4.8441   -0.7673    0.0000 H   0  0  0  0  0  0  0  0  0  0  0  0
    5.4641   -1.3873    0.0000 H   0  0  0  0  0  0  0  0  0  0  0  0
    6.0841   -0.7673    0.0000 H   0  0  0  0  0  0  0  0  0  0  0  0
    2.6540   -0.6847    0.0000 H   0  0  0  0  0  0  0  0  0  0  0  0
    2.2554   -1.3750    0.0000 H   0  0  0  0  0  0  0  0  0  0  0  0
    7.2169    2.8873    0.0000 H   0  0  0  0  0  0  0  0  0  0  0  0
    1.6900    0.7696    0.0000 H   0  0  0  0  0  0  0  0  0  0  0  0
    1.4631   -0.0773    0.0000 H   0  0  0  0  0  0  0  0  0  0  0  0
    2.3100   -0.3043    0.0000 H   0  0  0  0  0  0  0  0  0  0  0  0
    3.4860    1.7327    0.0000 H   0  0  0  0  0  0  0  0  0  0  0  0
    2.8660    2.3527    0.0000 H   0  0  0  0  0  0  0  0  0  0  0  0
    2.2460    1.7327    0.0000 H   0  0  0  0  0  0  0  0  0  0  0  0
    8.6659    0.3998    0.0000 H   0  0  0  0  0  0  0  0  0  0  0  0
    8.6659    2.0656    0.0000 H   0  0  0  0  0  0  0  0  0  0  0  0
    2.2460   -2.2673    0.0000 H   0  0  0  0  0  0  0  0  0  0  0  0
    2.8660   -2.8873    0.0000 H   0  0  0  0  0  0  0  0  0  0  0  0
    3.4860   -2.2673    0.0000 H   0  0  0  0  0  0  0  0  0  0  0  0
    7.7458   -1.1181    0.0000 H   0  0  0  0  0  0  0  0  0  0  0  0
  1 12  1  0  0  0  0
  1 46  1  0  0  0  0
  3  2  1  6  0  0  0
  2  9  1  0  0  0  0
  2 10  1  0  0  0  0
  3  4  1  0  0  0  0
  3  5  1  0  0  0  0
  3 20  1  0  0  0  0
  4  6  1  0  0  0  0
  4 11  1  6  0  0  0
  4 21  1  0  0  0  0
  5  7  1  0  0  0  0
  5 22  1  0  0  0  0
  5 23  1  0  0  0  0
  6  8  2  0  0  0  0
  6 12  1  0  0  0  0
  7  8  1  0  0  0  0
  7 24  1  0  0  0  0
  7 25  1  0  0  0  0
  8 14  1  0  0  0  0
  9 15  1  0  0  0  0
  9 16  1  0  0  0  0
  9 26  1  0  0  0  0
 10 13  1  0  0  0  0
 10 27  1  0  0  0  0
 10 28  1  0  0  0  0
 11 29  1  0  0  0  0
 11 30  1  0  0  0  0
 11 31  1  0  0  0  0
 12 17  2  0  0  0  0
 13 19  1  0  0  0  0
 13 32  1  0  0  0  0
 13 33  1  0  0  0  0
 14 18  2  0  0  0  0
 14 34  1  0  0  0  0
 15 35  1  0  0  0  0
 15 36  1  0  0  0  0
 15 37  1  0  0  0  0
 16 38  1  0  0  0  0
 16 39  1  0  0  0  0
 16 40  1  0  0  0  0
 17 18  1  0  0  0  0
 17 41  1  0  0  0  0
 18 42  1  0  0  0  0
 19 43  1  0  0  0  0
 19 44  1  0  0  0  0
 19 45  1  0  0  0  0
M  END
> <PUBCHEM_COMPOUND_CID>
11777449

> <PUBCHEM_COMPOUND_CANONICALIZED>
1

> <PUBCHEM_CACTVS_COMPLEXITY>
278

> <PUBCHEM_CACTVS_HBOND_ACCEPTOR>
2

> <PUBCHEM_CACTVS_HBOND_DONOR>
1

> <PUBCHEM_CACTVS_ROTATABLE_BOND>
4

> <PUBCHEM_CACTVS_SUBSKEYS>
AAADceB6IAAAAAAAAAAAAAAAAAAAAAAAAAAwYAAAAAAAAADBAAAAHgAACAAADSzBmAQyBoMAAgCAAiBCAAACAAAgIAAIiAAOCIgIJiKCkROEcAAkwBGImAewwPAOgAABAAAYAAAQAAaAADQAAAAAAAAAAA==

> <PUBCHEM_IUPAC_OPENEYE_NAME>
(3R,4S)-3-[isopropyl(propyl)amino]-4-methyl-tetralin-5-ol

> <PUBCHEM_IUPAC_CAS_NAME>
(7R,8S)-8-methyl-7-[propan-2-yl(propyl)amino]-5,6,7,8-tetrahydronaphthalen-1-ol

> <PUBCHEM_IUPAC_NAME_MARKUP>
(7<I>R</I>,8<I>S</I>)-8-methyl-7-[propan-2-yl(propyl)amino]-5,6,7,8-tetrahydronaphthalen-1-ol

> <PUBCHEM_IUPAC_NAME>
(7R,8S)-8-methyl-7-[propan-2-yl(propyl)amino]-5,6,7,8-tetrahydronaphthalen-1-ol

> <PUBCHEM_IUPAC_SYSTEMATIC_NAME>
(7R,8S)-8-methyl-7-[propan-2-yl(propyl)amino]-5,6,7,8-tetrahydronaphthalen-1-ol

> <PUBCHEM_IUPAC_TRADITIONAL_NAME>
(3R,4S)-3-[isopropyl(propyl)amino]-4-methyl-tetralin-5-ol

> <PUBCHEM_IUPAC_INCHI>
InChI=1S/C17H27NO/c1-5-11-18(12(2)3)15-10-9-14-7-6-8-16(19)17(14)13(15)4/h6-8,12-13,15,19H,5,9-11H2,1-4H3/t13-,15-/m1/s1

> <PUBCHEM_IUPAC_INCHIKEY>
QGAQMNABIHSUAU-UKRRQHHQSA-N

> <PUBCHEM_XLOGP3_AA>
4.3

> <PUBCHEM_EXACT_MASS>
261.209264485

> <PUBCHEM_MOLECULAR_FORMULA>
C17H27NO

> <PUBCHEM_MOLECULAR_WEIGHT>
261.4

> <PUBCHEM_OPENEYE_CAN_SMILES>
CCCN(C1CCC2=C(C1C)C(=CC=C2)O)C(C)C

> <PUBCHEM_OPENEYE_ISO_SMILES>
CCCN([C@@H]1CCC2=C([C@@H]1C)C(=CC=C2)O)C(C)C

> <PUBCHEM_CACTVS_TPSA>
23.5

> <PUBCHEM_MONOISOTOPIC_WEIGHT>
261.209264485

> <PUBCHEM_TOTAL_CHARGE>
0

> <PUBCHEM_HEAVY_ATOM_COUNT>
19

> <PUBCHEM_ATOM_DEF_STEREO_COUNT>
2

> <PUBCHEM_ATOM_UDEF_STEREO_COUNT>
0

> <PUBCHEM_BOND_DEF_STEREO_COUNT>
0

> <PUBCHEM_BOND_UDEF_STEREO_COUNT>
0

> <PUBCHEM_ISOTOPIC_ATOM_COUNT>
0

> <PUBCHEM_COMPONENT_COUNT>
1

> <PUBCHEM_CACTVS_TAUTO_COUNT>
-1

> <PUBCHEM_COORDINATE_TYPE>
1
5
255

> <PUBCHEM_BONDANNOTATIONS>
12  17  8
14  18  8
17  18  8
3  2  6
4  11  6
6  12  8
6  8  8
8  14  8

$$$$
