44415644
  -OEChem-09292322482D

 72 77  0     0  0  0  0  0  0999 V2000
    8.7204   -0.9728    0.0000 Cl  0  0  0  0  0  0  0  0  0  0  0  0
    4.0169   -4.7997    0.0000 Cl  0  0  0  0  0  0  0  0  0  0  0  0
    6.6150   -3.2998    0.0000 O   0  0  0  0  0  0  0  0  0  0  0  0
    3.0814    2.5938    0.0000 N   0  0  0  0  0  0  0  0  0  0  0  0
    3.9491    0.7919    0.0000 N   0  0  0  0  0  0  0  0  0  0  0  0
    5.3830   -0.1091    0.0000 N   0  0  0  0  0  0  0  0  0  0  0  0
    4.8830   -2.2997    0.0000 N   0  0  0  0  0  0  0  0  0  0  0  0
    4.8830   -3.2997    0.0000 N   0  0  0  0  0  0  0  0  0  0  0  0
    2.5180    1.7676    0.0000 C   0  0  0  0  0  0  0  0  0  0  0  0
    4.0786    2.5191    0.0000 C   0  0  0  0  0  0  0  0  0  0  0  0
    2.9519    0.8666    0.0000 C   0  0  0  0  0  0  0  0  0  0  0  0
    4.5125    1.6181    0.0000 C   0  0  0  0  0  0  0  0  0  0  0  0
    2.6475    3.4948    0.0000 C   0  0  0  0  0  0  0  0  0  0  0  0
    4.3830   -0.1091    0.0000 C   0  0  0  0  0  0  0  0  0  0  0  0
    3.2108    4.3210    0.0000 C   0  0  0  0  0  0  0  0  0  0  0  0
    3.7595   -0.8909    0.0000 C   0  0  0  0  0  0  0  0  0  0  0  0
    3.9820   -1.8658    0.0000 C   0  0  0  0  0  0  0  0  0  0  0  0
    4.2080    4.2463    0.0000 C   0  0  0  0  0  0  0  0  0  0  0  0
    2.7769    5.2220    0.0000 C   0  0  0  0  0  0  0  0  0  0  0  0
    6.0065   -0.8909    0.0000 C   0  0  0  0  0  0  0  0  0  0  0  0
    5.7840   -1.8659    0.0000 C   0  0  0  0  0  0  0  0  0  0  0  0
    2.7690   -0.5686    0.0000 C   0  0  0  0  0  0  0  0  0  0  0  0
    4.7714    5.0725    0.0000 C   0  0  0  0  0  0  0  0  0  0  0  0
    3.2295   -2.5860    0.0000 C   0  0  0  0  0  0  0  0  0  0  0  0
    3.3403    6.0482    0.0000 C   0  0  0  0  0  0  0  0  0  0  0  0
    4.3375    5.9735    0.0000 C   0  0  0  0  0  0  0  0  0  0  0  0
    4.6419    3.3453    0.0000 C   0  0  0  0  0  0  0  0  0  0  0  0
    2.0000   -1.2712    0.0000 C   0  0  0  0  0  0  0  0  0  0  0  0
    2.2318   -2.2867    0.0000 C   0  0  0  0  0  0  0  0  0  0  0  0
    6.9970   -0.5686    0.0000 C   0  0  0  0  0  0  0  0  0  0  0  0
    6.5365   -2.5860    0.0000 C   0  0  0  0  0  0  0  0  0  0  0  0
    7.7660   -1.2712    0.0000 C   0  0  0  0  0  0  0  0  0  0  0  0
    4.9008    6.7997    0.0000 C   0  0  0  0  0  0  0  0  0  0  0  0
    7.5342   -2.2867    0.0000 C   0  0  0  0  0  0  0  0  0  0  0  0
    5.7490   -3.7997    0.0000 C   0  0  0  0  0  0  0  0  0  0  0  0
    5.7490   -4.7997    0.0000 C   0  0  0  0  0  0  0  0  0  0  0  0
    4.8830   -5.2997    0.0000 C   0  0  0  0  0  0  0  0  0  0  0  0
    6.6150   -5.2998    0.0000 C   0  0  0  0  0  0  0  0  0  0  0  0
    4.8830   -6.2997    0.0000 C   0  0  0  0  0  0  0  0  0  0  0  0
    6.6150   -6.2998    0.0000 C   0  0  0  0  0  0  0  0  0  0  0  0
    5.7490   -6.7997    0.0000 C   0  0  0  0  0  0  0  0  0  0  0  0
    2.0742    2.2005    0.0000 H   0  0  0  0  0  0  0  0  0  0  0  0
    2.0146    1.4057    0.0000 H   0  0  0  0  0  0  0  0  0  0  0  0
    4.6754    2.6870    0.0000 H   0  0  0  0  0  0  0  0  0  0  0  0
    4.0168    3.1360    0.0000 H   0  0  0  0  0  0  0  0  0  0  0  0
    2.3551    0.6987    0.0000 H   0  0  0  0  0  0  0  0  0  0  0  0
    3.0137    0.2497    0.0000 H   0  0  0  0  0  0  0  0  0  0  0  0
    4.9563    1.1852    0.0000 H   0  0  0  0  0  0  0  0  0  0  0  0
    5.0159    1.9800    0.0000 H   0  0  0  0  0  0  0  0  0  0  0  0
    2.2037    3.9277    0.0000 H   0  0  0  0  0  0  0  0  0  0  0  0
    2.1441    3.1329    0.0000 H   0  0  0  0  0  0  0  0  0  0  0  0
    2.1587    5.2684    0.0000 H   0  0  0  0  0  0  0  0  0  0  0  0
    2.6380    0.0374    0.0000 H   0  0  0  0  0  0  0  0  0  0  0  0
    5.3896    5.0262    0.0000 H   0  0  0  0  0  0  0  0  0  0  0  0
    3.3744   -3.1888    0.0000 H   0  0  0  0  0  0  0  0  0  0  0  0
    3.0713    6.6068    0.0000 H   0  0  0  0  0  0  0  0  0  0  0  0
    4.0833    3.0763    0.0000 H   0  0  0  0  0  0  0  0  0  0  0  0
    4.9109    2.7867    0.0000 H   0  0  0  0  0  0  0  0  0  0  0  0
    5.2005    3.6143    0.0000 H   0  0  0  0  0  0  0  0  0  0  0  0
    1.4083   -1.0861    0.0000 H   0  0  0  0  0  0  0  0  0  0  0  0
    1.7789   -2.7101    0.0000 H   0  0  0  0  0  0  0  0  0  0  0  0
    7.1280    0.0374    0.0000 H   0  0  0  0  0  0  0  0  0  0  0  0
    6.3916   -3.1889    0.0000 H   0  0  0  0  0  0  0  0  0  0  0  0
    4.3460   -3.6097    0.0000 H   0  0  0  0  0  0  0  0  0  0  0  0
    5.4131    6.4505    0.0000 H   0  0  0  0  0  0  0  0  0  0  0  0
    5.2501    7.3120    0.0000 H   0  0  0  0  0  0  0  0  0  0  0  0
    4.3885    7.1490    0.0000 H   0  0  0  0  0  0  0  0  0  0  0  0
    7.9871   -2.7102    0.0000 H   0  0  0  0  0  0  0  0  0  0  0  0
    7.1520   -4.9898    0.0000 H   0  0  0  0  0  0  0  0  0  0  0  0
    4.3460   -6.6097    0.0000 H   0  0  0  0  0  0  0  0  0  0  0  0
    7.1520   -6.6098    0.0000 H   0  0  0  0  0  0  0  0  0  0  0  0
    5.7490   -7.4197    0.0000 H   0  0  0  0  0  0  0  0  0  0  0  0
  1 32  1  0  0  0  0
  2 37  1  0  0  0  0
  3 35  2  0  0  0  0
  4  9  1  0  0  0  0
  4 10  1  0  0  0  0
  4 13  1  0  0  0  0
  5 11  1  0  0  0  0
  5 12  1  0  0  0  0
  5 14  1  0  0  0  0
  6 14  2  0  0  0  0
  6 20  1  0  0  0  0
  7  8  1  0  0  0  0
  7 17  1  0  0  0  0
  7 21  1  0  0  0  0
  8 35  1  0  0  0  0
  8 64  1  0  0  0  0
  9 11  1  0  0  0  0
  9 42  1  0  0  0  0
  9 43  1  0  0  0  0
 10 12  1  0  0  0  0
 10 44  1  0  0  0  0
 10 45  1  0  0  0  0
 11 46  1  0  0  0  0
 11 47  1  0  0  0  0
 12 48  1  0  0  0  0
 12 49  1  0  0  0  0
 13 15  1  0  0  0  0
 13 50  1  0  0  0  0
 13 51  1  0  0  0  0
 14 16  1  0  0  0  0
 15 18  2  0  0  0  0
 15 19  1  0  0  0  0
 16 17  1  0  0  0  0
 16 22  2  0  0  0  0
 17 24  2  0  0  0  0
 18 23  1  0  0  0  0
 18 27  1  0  0  0  0
 19 25  2  0  0  0  0
 19 52  1  0  0  0  0
 20 21  2  0  0  0  0
 20 30  1  0  0  0  0
 21 31  1  0  0  0  0
 22 28  1  0  0  0  0
 22 53  1  0  0  0  0
 23 26  2  0  0  0  0
 23 54  1  0  0  0  0
 24 29  1  0  0  0  0
 24 55  1  0  0  0  0
 25 26  1  0  0  0  0
 25 56  1  0  0  0  0
 26 33  1  0  0  0  0
 27 57  1  0  0  0  0
 27 58  1  0  0  0  0
 27 59  1  0  0  0  0
 28 29  2  0  0  0  0
 28 60  1  0  0  0  0
 29 61  1  0  0  0  0
 30 32  2  0  0  0  0
 30 62  1  0  0  0  0
 31 34  2  0  0  0  0
 31 63  1  0  0  0  0
 32 34  1  0  0  0  0
 33 65  1  0  0  0  0
 33 66  1  0  0  0  0
 33 67  1  0  0  0  0
 34 68  1  0  0  0  0
 35 36  1  0  0  0  0
 36 37  1  0  0  0  0
 36 38  2  0  0  0  0
 37 39  2  0  0  0  0
 38 40  1  0  0  0  0
 38 69  1  0  0  0  0
 39 41  1  0  0  0  0
 39 70  1  0  0  0  0
 40 41  2  0  0  0  0
 40 71  1  0  0  0  0
 41 72  1  0  0  0  0
M  END
> <PUBCHEM_COMPOUND_CID>
44415644

> <PUBCHEM_COMPOUND_CANONICALIZED>
1

> <PUBCHEM_CACTVS_COMPLEXITY>
925

> <PUBCHEM_CACTVS_HBOND_ACCEPTOR>
4

> <PUBCHEM_CACTVS_HBOND_DONOR>
1

> <PUBCHEM_CACTVS_ROTATABLE_BOND>
5

> <PUBCHEM_CACTVS_SUBSKEYS>
AAADceB/oAAGAAAAAAAAAAAAAAAAAAAAAAA8YMGCBAAAAAABVAAAHgIYAAAADArBmCQzwINiAACoAidydACCBAElBwAbqAEodtgIYPLB35GUIQhggADIzYcYiMCOwABCAAITACCAAIQABCYAQAAAAAAAAA==

> <PUBCHEM_IUPAC_OPENEYE_NAME>
2-chloro-N-[3-chloro-6-[4-[(2,4-dimethylphenyl)methyl]piperazin-1-yl]benzo[b][1,4]benzodiazepin-11-yl]benzamide

> <PUBCHEM_IUPAC_CAS_NAME>
2-chloro-N-[3-chloro-6-[4-[(2,4-dimethylphenyl)methyl]-1-piperazinyl]-11-benzo[b][1,4]benzodiazepinyl]benzamide

> <PUBCHEM_IUPAC_NAME_MARKUP>
2-chloro-<I>N</I>-[3-chloro-6-[4-[(2,4-dimethylphenyl)methyl]piperazin-1-yl]benzo[b][1,4]benzodiazepin-11-yl]benzamide

> <PUBCHEM_IUPAC_NAME>
2-chloro-N-[3-chloro-6-[4-[(2,4-dimethylphenyl)methyl]piperazin-1-yl]benzo[b][1,4]benzodiazepin-11-yl]benzamide

> <PUBCHEM_IUPAC_SYSTEMATIC_NAME>
2-chloranyl-N-[3-chloranyl-6-[4-[(2,4-dimethylphenyl)methyl]piperazin-1-yl]benzo[b][1,4]benzodiazepin-11-yl]benzamide

> <PUBCHEM_IUPAC_TRADITIONAL_NAME>
2-chloro-N-[3-chloro-6-[4-(2,4-dimethylbenzyl)piperazino]benzo[b][1,4]benzodiazepin-11-yl]benzamide

> <PUBCHEM_IUPAC_INCHI>
InChI=1S/C33H31Cl2N5O/c1-22-11-12-24(23(2)19-22)21-38-15-17-39(18-16-38)32-27-8-4-6-10-30(27)40(31-14-13-25(34)20-29(31)36-32)37-33(41)26-7-3-5-9-28(26)35/h3-14,19-20H,15-18,21H2,1-2H3,(H,37,41)

> <PUBCHEM_IUPAC_INCHIKEY>
SSGXOSRVRMKOMB-UHFFFAOYSA-N

> <PUBCHEM_XLOGP3_AA>
7.2

> <PUBCHEM_EXACT_MASS>
583.1905660

> <PUBCHEM_MOLECULAR_FORMULA>
C33H31Cl2N5O

> <PUBCHEM_MOLECULAR_WEIGHT>
584.5

> <PUBCHEM_OPENEYE_CAN_SMILES>
CC1=CC(=C(C=C1)CN2CCN(CC2)C3=NC4=C(C=CC(=C4)Cl)N(C5=CC=CC=C53)NC(=O)C6=CC=CC=C6Cl)C

> <PUBCHEM_OPENEYE_ISO_SMILES>
CC1=CC(=C(C=C1)CN2CCN(CC2)C3=NC4=C(C=CC(=C4)Cl)N(C5=CC=CC=C53)NC(=O)C6=CC=CC=C6Cl)C

> <PUBCHEM_CACTVS_TPSA>
51.2

> <PUBCHEM_MONOISOTOPIC_WEIGHT>
583.1905660

> <PUBCHEM_TOTAL_CHARGE>
0

> <PUBCHEM_HEAVY_ATOM_COUNT>
41

> <PUBCHEM_ATOM_DEF_STEREO_COUNT>
0

> <PUBCHEM_ATOM_UDEF_STEREO_COUNT>
0

> <PUBCHEM_BOND_DEF_STEREO_COUNT>
0

> <PUBCHEM_BOND_UDEF_STEREO_COUNT>
0

> <PUBCHEM_ISOTOPIC_ATOM_COUNT>
0

> <PUBCHEM_COMPONENT_COUNT>
1

> <PUBCHEM_CACTVS_TAUTO_COUNT>
-1

> <PUBCHEM_COORDINATE_TYPE>
1
5
255

> <PUBCHEM_BONDANNOTATIONS>
15  18  8
15  19  8
16  17  8
16  22  8
17  24  8
18  23  8
19  25  8
20  21  8
20  30  8
21  31  8
22  28  8
23  26  8
24  29  8
25  26  8
28  29  8
30  32  8
31  34  8
32  34  8
36  37  8
36  38  8
37  39  8
38  40  8
39  41  8
40  41  8

$$$$
