9893282
  -OEChem-09292322522D

 72 75  0     0  0  0  0  0  0999 V2000
    6.6962    3.0116    0.0000 F   0  0  0  0  0  0  0  0  0  0  0  0
    8.0622    3.3776    0.0000 F   0  0  0  0  0  0  0  0  0  0  0  0
    7.6962    4.7436    0.0000 F   0  0  0  0  0  0  0  0  0  0  0  0
    5.4641    3.8776    0.0000 O   0  0  0  0  0  0  0  0  0  0  0  0
    3.7320   -2.1224    0.0000 O   0  0  0  0  0  0  0  0  0  0  0  0
    3.7320    0.8776    0.0000 N   0  0  0  0  0  0  0  0  0  0  0  0
    3.7320    2.8776    0.0000 N   0  0  0  0  0  0  0  0  0  0  0  0
    5.4641   -2.1224    0.0000 N   0  0  0  0  0  0  0  0  0  0  0  0
    7.2764   -4.9271    0.0000 N   0  0  0  0  0  0  0  0  0  0  0  0
    5.4641   -5.1224    0.0000 N   0  0  0  0  0  0  0  0  0  0  0  0
    7.8600   -4.1224    0.0000 N   0  0  0  0  0  0  0  0  0  0  0  0
    2.8660   -3.6224    0.0000 N   0  0  0  0  0  0  0  0  0  0  0  0
    4.5981    1.3776    0.0000 C   0  0  0  0  0  0  0  0  0  0  0  0
    2.8660    1.3776    0.0000 C   0  0  0  0  0  0  0  0  0  0  0  0
    4.5981    2.3776    0.0000 C   0  0  0  0  0  0  0  0  0  0  0  0
    2.8660    2.3776    0.0000 C   0  0  0  0  0  0  0  0  0  0  0  0
    3.7320   -0.1224    0.0000 C   0  0  0  0  0  0  0  0  0  0  0  0
    4.5981   -0.6224    0.0000 C   0  0  0  0  0  0  0  0  0  0  0  0
    3.7320    3.8776    0.0000 C   0  0  0  0  0  0  0  0  0  0  0  0
    4.5981   -1.6224    0.0000 C   0  0  0  0  0  0  0  0  0  0  0  0
    4.5981    4.3776    0.0000 C   0  0  0  0  0  0  0  0  0  0  0  0
    2.8660    4.3776    0.0000 C   0  0  0  0  0  0  0  0  0  0  0  0
    5.4641   -3.1224    0.0000 C   0  0  0  0  0  0  0  0  0  0  0  0
    6.3301   -3.6224    0.0000 C   0  0  0  0  0  0  0  0  0  0  0  0
    4.5981    5.3776    0.0000 C   0  0  0  0  0  0  0  0  0  0  0  0
    2.8660    5.3776    0.0000 C   0  0  0  0  0  0  0  0  0  0  0  0
    4.5981   -3.6224    0.0000 C   0  0  0  0  0  0  0  0  0  0  0  0
    6.3301   -4.6224    0.0000 C   0  0  0  0  0  0  0  0  0  0  0  0
    3.7320    5.8776    0.0000 C   0  0  0  0  0  0  0  0  0  0  0  0
    7.2764   -3.3176    0.0000 C   0  0  0  0  0  0  0  0  0  0  0  0
    4.5981   -4.6224    0.0000 C   0  0  0  0  0  0  0  0  0  0  0  0
    3.7320   -3.1224    0.0000 C   0  0  0  0  0  0  0  0  0  0  0  0
    6.3301    4.3776    0.0000 C   0  0  0  0  0  0  0  0  0  0  0  0
    7.5870   -2.3671    0.0000 C   0  0  0  0  0  0  0  0  0  0  0  0
    7.5870   -5.8776    0.0000 C   0  0  0  0  0  0  0  0  0  0  0  0
    7.1962    3.8776    0.0000 C   0  0  0  0  0  0  0  0  0  0  0  0
    2.0000   -3.1224    0.0000 C   0  0  0  0  0  0  0  0  0  0  0  0
    2.8660   -4.6224    0.0000 C   0  0  0  0  0  0  0  0  0  0  0  0
    4.8101    0.7950    0.0000 H   0  0  0  0  0  0  0  0  0  0  0  0
    5.2087    1.4853    0.0000 H   0  0  0  0  0  0  0  0  0  0  0  0
    2.2554    1.4853    0.0000 H   0  0  0  0  0  0  0  0  0  0  0  0
    2.6540    0.7950    0.0000 H   0  0  0  0  0  0  0  0  0  0  0  0
    5.2087    2.2700    0.0000 H   0  0  0  0  0  0  0  0  0  0  0  0
    4.8101    2.9602    0.0000 H   0  0  0  0  0  0  0  0  0  0  0  0
    2.6540    2.9602    0.0000 H   0  0  0  0  0  0  0  0  0  0  0  0
    2.2554    2.2700    0.0000 H   0  0  0  0  0  0  0  0  0  0  0  0
    3.1215   -0.0147    0.0000 H   0  0  0  0  0  0  0  0  0  0  0  0
    3.5200   -0.7050    0.0000 H   0  0  0  0  0  0  0  0  0  0  0  0
    5.2087   -0.7300    0.0000 H   0  0  0  0  0  0  0  0  0  0  0  0
    4.8101   -0.0398    0.0000 H   0  0  0  0  0  0  0  0  0  0  0  0
    3.9875   -1.5147    0.0000 H   0  0  0  0  0  0  0  0  0  0  0  0
    4.3860   -2.2050    0.0000 H   0  0  0  0  0  0  0  0  0  0  0  0
    6.0010   -1.8124    0.0000 H   0  0  0  0  0  0  0  0  0  0  0  0
    2.3291    4.0676    0.0000 H   0  0  0  0  0  0  0  0  0  0  0  0
    5.1350    5.6876    0.0000 H   0  0  0  0  0  0  0  0  0  0  0  0
    2.3291    5.6876    0.0000 H   0  0  0  0  0  0  0  0  0  0  0  0
    3.7320    6.4976    0.0000 H   0  0  0  0  0  0  0  0  0  0  0  0
    4.0611   -4.9324    0.0000 H   0  0  0  0  0  0  0  0  0  0  0  0
    6.7287    4.8526    0.0000 H   0  0  0  0  0  0  0  0  0  0  0  0
    5.9316    4.8526    0.0000 H   0  0  0  0  0  0  0  0  0  0  0  0
    8.1763   -2.5597    0.0000 H   0  0  0  0  0  0  0  0  0  0  0  0
    7.7796   -1.7778    0.0000 H   0  0  0  0  0  0  0  0  0  0  0  0
    6.9977   -2.1745    0.0000 H   0  0  0  0  0  0  0  0  0  0  0  0
    6.9977   -6.0702    0.0000 H   0  0  0  0  0  0  0  0  0  0  0  0
    7.7796   -6.4670    0.0000 H   0  0  0  0  0  0  0  0  0  0  0  0
    8.1763   -5.6850    0.0000 H   0  0  0  0  0  0  0  0  0  0  0  0
    2.3100   -2.5854    0.0000 H   0  0  0  0  0  0  0  0  0  0  0  0
    1.4631   -2.8124    0.0000 H   0  0  0  0  0  0  0  0  0  0  0  0
    1.6900   -3.6593    0.0000 H   0  0  0  0  0  0  0  0  0  0  0  0
    2.2460   -4.6224    0.0000 H   0  0  0  0  0  0  0  0  0  0  0  0
    2.8660   -5.2424    0.0000 H   0  0  0  0  0  0  0  0  0  0  0  0
    3.4860   -4.6224    0.0000 H   0  0  0  0  0  0  0  0  0  0  0  0
  1 36  1  0  0  0  0
  2 36  1  0  0  0  0
  3 36  1  0  0  0  0
  4 21  1  0  0  0  0
  4 33  1  0  0  0  0
  5 32  2  0  0  0  0
  6 13  1  0  0  0  0
  6 14  1  0  0  0  0
  6 17  1  0  0  0  0
  7 15  1  0  0  0  0
  7 16  1  0  0  0  0
  7 19  1  0  0  0  0
  8 20  1  0  0  0  0
  8 23  1  0  0  0  0
  8 53  1  0  0  0  0
  9 11  1  0  0  0  0
  9 28  1  0  0  0  0
  9 35  1  0  0  0  0
 10 28  2  0  0  0  0
 10 31  1  0  0  0  0
 11 30  2  0  0  0  0
 12 32  1  0  0  0  0
 12 37  1  0  0  0  0
 12 38  1  0  0  0  0
 13 15  1  0  0  0  0
 13 39  1  0  0  0  0
 13 40  1  0  0  0  0
 14 16  1  0  0  0  0
 14 41  1  0  0  0  0
 14 42  1  0  0  0  0
 15 43  1  0  0  0  0
 15 44  1  0  0  0  0
 16 45  1  0  0  0  0
 16 46  1  0  0  0  0
 17 18  1  0  0  0  0
 17 47  1  0  0  0  0
 17 48  1  0  0  0  0
 18 20  1  0  0  0  0
 18 49  1  0  0  0  0
 18 50  1  0  0  0  0
 19 21  1  0  0  0  0
 19 22  2  0  0  0  0
 20 51  1  0  0  0  0
 20 52  1  0  0  0  0
 21 25  2  0  0  0  0
 22 26  1  0  0  0  0
 22 54  1  0  0  0  0
 23 24  2  0  0  0  0
 23 27  1  0  0  0  0
 24 28  1  0  0  0  0
 24 30  1  0  0  0  0
 25 29  1  0  0  0  0
 25 55  1  0  0  0  0
 26 29  2  0  0  0  0
 26 56  1  0  0  0  0
 27 31  2  0  0  0  0
 27 32  1  0  0  0  0
 29 57  1  0  0  0  0
 30 34  1  0  0  0  0
 31 58  1  0  0  0  0
 33 36  1  0  0  0  0
 33 59  1  0  0  0  0
 33 60  1  0  0  0  0
 34 61  1  0  0  0  0
 34 62  1  0  0  0  0
 34 63  1  0  0  0  0
 35 64  1  0  0  0  0
 35 65  1  0  0  0  0
 35 66  1  0  0  0  0
 37 67  1  0  0  0  0
 37 68  1  0  0  0  0
 37 69  1  0  0  0  0
 38 70  1  0  0  0  0
 38 71  1  0  0  0  0
 38 72  1  0  0  0  0
M  END
> <PUBCHEM_COMPOUND_CID>
9893282

> <PUBCHEM_COMPOUND_CANONICALIZED>
1

> <PUBCHEM_CACTVS_COMPLEXITY>
766

> <PUBCHEM_CACTVS_HBOND_ACCEPTOR>
10

> <PUBCHEM_CACTVS_HBOND_DONOR>
1

> <PUBCHEM_CACTVS_ROTATABLE_BOND>
9

> <PUBCHEM_CACTVS_SUBSKEYS>
AAADcfB7sYAAAAAAAAAAAAAAAAAAAWAAAAA8WIAAAAAAAFgB/AAAHwAYAAAADAzhnxY/9t/IFACqAzd3dACSjCs1oqAd2KE/bNiObnrE/duXvajs2hPY6eeYSQAeAAAAAAAAEAAAAAAAAAAgAAAAAAAAAA==

> <PUBCHEM_IUPAC_OPENEYE_NAME>
N,N,1,3-tetramethyl-4-[3-[4-[2-(2,2,2-trifluoroethoxy)phenyl]piperazin-1-yl]propylamino]pyrazolo[3,4-b]pyridine-5-carboxamide

> <PUBCHEM_IUPAC_CAS_NAME>
N,N,1,3-tetramethyl-4-[3-[4-[2-(2,2,2-trifluoroethoxy)phenyl]-1-piperazinyl]propylamino]-5-pyrazolo[3,4-b]pyridinecarboxamide

> <PUBCHEM_IUPAC_NAME_MARKUP>
<I>N</I>,<I>N</I>,1,3-tetramethyl-4-[3-[4-[2-(2,2,2-trifluoroethoxy)phenyl]piperazin-1-yl]propylamino]pyrazolo[3,4-b]pyridine-5-carboxamide

> <PUBCHEM_IUPAC_NAME>
N,N,1,3-tetramethyl-4-[3-[4-[2-(2,2,2-trifluoroethoxy)phenyl]piperazin-1-yl]propylamino]pyrazolo[3,4-b]pyridine-5-carboxamide

> <PUBCHEM_IUPAC_SYSTEMATIC_NAME>
N,N,1,3-tetramethyl-4-[3-[4-[2-[2,2,2-tris(fluoranyl)ethoxy]phenyl]piperazin-1-yl]propylamino]pyrazolo[3,4-b]pyridine-5-carboxamide

> <PUBCHEM_IUPAC_TRADITIONAL_NAME>
N,N,1,3-tetramethyl-4-[3-[4-[2-(2,2,2-trifluoroethoxy)phenyl]piperazino]propylamino]pyrazolo[3,4-b]pyridine-5-carboxamide

> <PUBCHEM_IUPAC_INCHI>
InChI=1S/C26H34F3N7O2/c1-18-22-23(19(25(37)33(2)3)16-31-24(22)34(4)32-18)30-10-7-11-35-12-14-36(15-13-35)20-8-5-6-9-21(20)38-17-26(27,28)29/h5-6,8-9,16H,7,10-15,17H2,1-4H3,(H,30,31)

> <PUBCHEM_IUPAC_INCHIKEY>
BSUZYOKJXFBXNY-UHFFFAOYSA-N

> <PUBCHEM_XLOGP3_AA>
4.3

> <PUBCHEM_EXACT_MASS>
533.27260784

> <PUBCHEM_MOLECULAR_FORMULA>
C26H34F3N7O2

> <PUBCHEM_MOLECULAR_WEIGHT>
533.6

> <PUBCHEM_OPENEYE_CAN_SMILES>
CC1=NN(C2=NC=C(C(=C12)NCCCN3CCN(CC3)C4=CC=CC=C4OCC(F)(F)F)C(=O)N(C)C)C

> <PUBCHEM_OPENEYE_ISO_SMILES>
CC1=NN(C2=NC=C(C(=C12)NCCCN3CCN(CC3)C4=CC=CC=C4OCC(F)(F)F)C(=O)N(C)C)C

> <PUBCHEM_CACTVS_TPSA>
78.8

> <PUBCHEM_MONOISOTOPIC_WEIGHT>
533.27260784

> <PUBCHEM_TOTAL_CHARGE>
0

> <PUBCHEM_HEAVY_ATOM_COUNT>
38

> <PUBCHEM_ATOM_DEF_STEREO_COUNT>
0

> <PUBCHEM_ATOM_UDEF_STEREO_COUNT>
0

> <PUBCHEM_BOND_DEF_STEREO_COUNT>
0

> <PUBCHEM_BOND_UDEF_STEREO_COUNT>
0

> <PUBCHEM_ISOTOPIC_ATOM_COUNT>
0

> <PUBCHEM_COMPONENT_COUNT>
1

> <PUBCHEM_CACTVS_TAUTO_COUNT>
-1

> <PUBCHEM_COORDINATE_TYPE>
1
5
255

> <PUBCHEM_BONDANNOTATIONS>
10  28  8
10  31  8
11  30  8
19  21  8
19  22  8
21  25  8
22  26  8
23  24  8
23  27  8
24  28  8
24  30  8
25  29  8
26  29  8
27  31  8
9  11  8
9  28  8

$$$$
