127047641
  -OEChem-09292322002D

 58 60  0     0  0  0  0  0  0999 V2000
    4.7307    8.6200    0.0000 Cl  0  0  0  0  0  0  0  0  0  0  0  0
    2.9986    9.6200    0.0000 Cl  0  0  0  0  0  0  0  0  0  0  0  0
    0.0000    5.8702    0.0000 Cl  0  0  0  0  0  0  0  0  0  0  0  0
   11.6589    3.6200    0.0000 O   0  0  0  0  0  0  0  0  0  0  0  0
    9.9268    3.6200    0.0000 O   0  0  0  0  0  0  0  0  0  0  0  0
    8.1948    8.6200    0.0000 N   0  0  0  0  0  0  0  0  0  0  0  0
    6.4627    9.6200    0.0000 N   0  0  0  0  0  0  0  0  0  0  0  0
   10.7928    5.1200    0.0000 N   0  0  0  0  0  0  0  0  0  0  0  0
   13.4711    0.8153    0.0000 N   0  0  0  0  0  0  0  0  0  0  0  0
   13.4711    2.4247    0.0000 N   0  0  0  0  0  0  0  0  0  0  0  0
    8.1948    9.6200    0.0000 C   0  0  0  0  0  0  0  0  0  0  0  0
    7.3287    8.1200    0.0000 C   0  0  0  0  0  0  0  0  0  0  0  0
    7.3287   10.1200    0.0000 C   0  0  0  0  0  0  0  0  0  0  0  0
    6.4627    8.6200    0.0000 C   0  0  0  0  0  0  0  0  0  0  0  0
    9.0608    8.1200    0.0000 C   0  0  0  0  0  0  0  0  0  0  0  0
    9.0608    7.1200    0.0000 C   0  0  0  0  0  0  0  0  0  0  0  0
    5.5967   10.1200    0.0000 C   0  0  0  0  0  0  0  0  0  0  0  0
    9.9268    6.6200    0.0000 C   0  0  0  0  0  0  0  0  0  0  0  0
    9.9268    5.6200    0.0000 C   0  0  0  0  0  0  0  0  0  0  0  0
    4.7307    9.6200    0.0000 C   0  0  0  0  0  0  0  0  0  0  0  0
    5.5967   11.1200    0.0000 C   0  0  0  0  0  0  0  0  0  0  0  0
    3.8646   10.1200    0.0000 C   0  0  0  0  0  0  0  0  0  0  0  0
    4.7307   11.6200    0.0000 C   0  0  0  0  0  0  0  0  0  0  0  0
    3.8646   11.1200    0.0000 C   0  0  0  0  0  0  0  0  0  0  0  0
   10.7928    4.1200    0.0000 C   0  0  0  0  0  0  0  0  0  0  0  0
   11.6589    2.6200    0.0000 C   0  0  0  0  0  0  0  0  0  0  0  0
   12.5249    2.1200    0.0000 C   0  0  0  0  0  0  0  0  0  0  0  0
   12.5249    1.1200    0.0000 C   0  0  0  0  0  0  0  0  0  0  0  0
   10.7928    2.1200    0.0000 C   0  0  0  0  0  0  0  0  0  0  0  0
   11.6589    0.6200    0.0000 C   0  0  0  0  0  0  0  0  0  0  0  0
   10.7928    1.1200    0.0000 C   0  0  0  0  0  0  0  0  0  0  0  0
   14.0547    1.6200    0.0000 C   0  0  0  0  0  0  0  0  0  0  0  0
    8.8053    9.5123    0.0000 H   0  0  0  0  0  0  0  0  0  0  0  0
    8.4068   10.2026    0.0000 H   0  0  0  0  0  0  0  0  0  0  0  0
    6.9302    7.6450    0.0000 H   0  0  0  0  0  0  0  0  0  0  0  0
    7.7273    7.6450    0.0000 H   0  0  0  0  0  0  0  0  0  0  0  0
    7.7273   10.5949    0.0000 H   0  0  0  0  0  0  0  0  0  0  0  0
    6.9302   10.5949    0.0000 H   0  0  0  0  0  0  0  0  0  0  0  0
    5.8521    8.7277    0.0000 H   0  0  0  0  0  0  0  0  0  0  0  0
    6.2507    8.0374    0.0000 H   0  0  0  0  0  0  0  0  0  0  0  0
    9.6714    8.0123    0.0000 H   0  0  0  0  0  0  0  0  0  0  0  0
    9.2728    8.7026    0.0000 H   0  0  0  0  0  0  0  0  0  0  0  0
    8.4502    7.2277    0.0000 H   0  0  0  0  0  0  0  0  0  0  0  0
    8.8487    6.5374    0.0000 H   0  0  0  0  0  0  0  0  0  0  0  0
   10.5374    6.5123    0.0000 H   0  0  0  0  0  0  0  0  0  0  0  0
   10.1389    7.2026    0.0000 H   0  0  0  0  0  0  0  0  0  0  0  0
    9.3162    5.7277    0.0000 H   0  0  0  0  0  0  0  0  0  0  0  0
    9.7148    5.0374    0.0000 H   0  0  0  0  0  0  0  0  0  0  0  0
    6.1336   11.4300    0.0000 H   0  0  0  0  0  0  0  0  0  0  0  0
   11.3298    5.4300    0.0000 H   0  0  0  0  0  0  0  0  0  0  0  0
    4.7307   12.2400    0.0000 H   0  0  0  0  0  0  0  0  0  0  0  0
    3.3277   11.4300    0.0000 H   0  0  0  0  0  0  0  0  0  0  0  0
   10.2559    2.4300    0.0000 H   0  0  0  0  0  0  0  0  0  0  0  0
   11.6589    0.0000    0.0000 H   0  0  0  0  0  0  0  0  0  0  0  0
   10.2559    0.8100    0.0000 H   0  0  0  0  0  0  0  0  0  0  0  0
   13.6637    0.2259    0.0000 H   0  0  0  0  0  0  0  0  0  0  0  0
   14.6747    1.6200    0.0000 H   0  0  0  0  0  0  0  0  0  0  0  0
    1.0000    5.8702    0.0000 H   0  0  0  0  0  0  0  0  0  0  0  0
  1 20  1  0  0  0  0
  2 22  1  0  0  0  0
  3 58  1  0  0  0  0
  4 25  1  0  0  0  0
  4 26  1  0  0  0  0
  5 25  2  0  0  0  0
  6 11  1  0  0  0  0
  6 12  1  0  0  0  0
  6 15  1  0  0  0  0
  7 13  1  0  0  0  0
  7 14  1  0  0  0  0
  7 17  1  0  0  0  0
  8 19  1  0  0  0  0
  8 25  1  0  0  0  0
  8 50  1  0  0  0  0
  9 28  1  0  0  0  0
  9 32  1  0  0  0  0
  9 56  1  0  0  0  0
 10 27  1  0  0  0  0
 10 32  2  0  0  0  0
 11 13  1  0  0  0  0
 11 33  1  0  0  0  0
 11 34  1  0  0  0  0
 12 14  1  0  0  0  0
 12 35  1  0  0  0  0
 12 36  1  0  0  0  0
 13 37  1  0  0  0  0
 13 38  1  0  0  0  0
 14 39  1  0  0  0  0
 14 40  1  0  0  0  0
 15 16  1  0  0  0  0
 15 41  1  0  0  0  0
 15 42  1  0  0  0  0
 16 18  1  0  0  0  0
 16 43  1  0  0  0  0
 16 44  1  0  0  0  0
 17 20  2  0  0  0  0
 17 21  1  0  0  0  0
 18 19  1  0  0  0  0
 18 45  1  0  0  0  0
 18 46  1  0  0  0  0
 19 47  1  0  0  0  0
 19 48  1  0  0  0  0
 20 22  1  0  0  0  0
 21 23  2  0  0  0  0
 21 49  1  0  0  0  0
 22 24  2  0  0  0  0
 23 24  1  0  0  0  0
 23 51  1  0  0  0  0
 24 52  1  0  0  0  0
 26 27  1  0  0  0  0
 26 29  2  0  0  0  0
 27 28  2  0  0  0  0
 28 30  1  0  0  0  0
 29 31  1  0  0  0  0
 29 53  1  0  0  0  0
 30 31  2  0  0  0  0
 30 54  1  0  0  0  0
 31 55  1  0  0  0  0
 32 57  1  0  0  0  0
M  END
> <PUBCHEM_COMPOUND_CID>
127047641

> <PUBCHEM_COMPOUND_CANONICALIZED>
1

> <PUBCHEM_CACTVS_COMPLEXITY>
578

> <PUBCHEM_CACTVS_HBOND_ACCEPTOR>
5

> <PUBCHEM_CACTVS_HBOND_DONOR>
3

> <PUBCHEM_CACTVS_ROTATABLE_BOND>
8

> <PUBCHEM_CACTVS_SUBSKEYS>
AAADceB7sAAGAAAAAAAAAAAAAAAAAWAAAAA8YIAAAAAAAFgB9AAAHgIQAAAACA7BliQ13rfJlACoASRjfASCiC2xd6AJ2+A/fpmObqLFu5vdMihu1hvY6CeQUAMAAAAAAgIAEDQAAAAEBAAgaAAAAAAAAA==

> <PUBCHEM_IUPAC_OPENEYE_NAME>
1H-benzimidazol-4-yl N-[4-[4-(2,3-dichlorophenyl)piperazin-1-yl]butyl]carbamate;hydrochloride

> <PUBCHEM_IUPAC_CAS_NAME>
N-[4-[4-(2,3-dichlorophenyl)-1-piperazinyl]butyl]carbamic acid 1H-benzimidazol-4-yl ester;hydrochloride

> <PUBCHEM_IUPAC_NAME_MARKUP>
1<I>H</I>-benzimidazol-4-yl <I>N</I>-[4-[4-(2,3-dichlorophenyl)piperazin-1-yl]butyl]carbamate;hydrochloride

> <PUBCHEM_IUPAC_NAME>
1H-benzimidazol-4-yl N-[4-[4-(2,3-dichlorophenyl)piperazin-1-yl]butyl]carbamate;hydrochloride

> <PUBCHEM_IUPAC_SYSTEMATIC_NAME>
1H-benzimidazol-4-yl N-[4-[4-[2,3-bis(chloranyl)phenyl]piperazin-1-yl]butyl]carbamate;hydrochloride

> <PUBCHEM_IUPAC_TRADITIONAL_NAME>
N-[4-[4-(2,3-dichlorophenyl)piperazino]butyl]carbamic acid 1H-benzimidazol-4-yl ester;hydrochloride

> <PUBCHEM_IUPAC_INCHI>
InChI=1S/C22H25Cl2N5O2.ClH/c23-16-5-3-7-18(20(16)24)29-13-11-28(12-14-29)10-2-1-9-25-22(30)31-19-8-4-6-17-21(19)27-15-26-17;/h3-8,15H,1-2,9-14H2,(H,25,30)(H,26,27);1H

> <PUBCHEM_IUPAC_INCHIKEY>
WEPKFXLEEGTYON-UHFFFAOYSA-N

> <PUBCHEM_EXACT_MASS>
497.115208

> <PUBCHEM_MOLECULAR_FORMULA>
C22H26Cl3N5O2

> <PUBCHEM_MOLECULAR_WEIGHT>
498.8

> <PUBCHEM_OPENEYE_CAN_SMILES>
C1CN(CCN1CCCCNC(=O)OC2=CC=CC3=C2N=CN3)C4=C(C(=CC=C4)Cl)Cl.Cl

> <PUBCHEM_OPENEYE_ISO_SMILES>
C1CN(CCN1CCCCNC(=O)OC2=CC=CC3=C2N=CN3)C4=C(C(=CC=C4)Cl)Cl.Cl

> <PUBCHEM_CACTVS_TPSA>
73.5

> <PUBCHEM_MONOISOTOPIC_WEIGHT>
497.115208

> <PUBCHEM_TOTAL_CHARGE>
0

> <PUBCHEM_HEAVY_ATOM_COUNT>
32

> <PUBCHEM_ATOM_DEF_STEREO_COUNT>
0

> <PUBCHEM_ATOM_UDEF_STEREO_COUNT>
0

> <PUBCHEM_BOND_DEF_STEREO_COUNT>
0

> <PUBCHEM_BOND_UDEF_STEREO_COUNT>
0

> <PUBCHEM_ISOTOPIC_ATOM_COUNT>
0

> <PUBCHEM_COMPONENT_COUNT>
2

> <PUBCHEM_CACTVS_TAUTO_COUNT>
-1

> <PUBCHEM_COORDINATE_TYPE>
1
5
255

> <PUBCHEM_BONDANNOTATIONS>
10  27  8
10  32  8
17  20  8
17  21  8
20  22  8
21  23  8
22  24  8
23  24  8
26  27  8
26  29  8
27  28  8
28  30  8
29  31  8
30  31  8
9  28  8
9  32  8

$$$$
