57391897
  -OEChem-09292322322D

 70 73  0     0  0  0  0  0  0999 V2000
   17.0346    0.6736    0.0000 O   0  0  0  0  0  0  0  0  0  0  0  0
    9.5172   -0.0256    0.0000 O   0  0  0  0  0  0  0  0  0  0  0  0
    6.3301   -1.5252    0.0000 O   0  0  0  0  0  0  0  0  0  0  0  0
    3.7320   -2.0252    0.0000 O   0  0  0  0  0  0  0  0  0  0  0  0
   13.7419    1.7498    0.0000 N   0  0  0  0  0  0  0  0  0  0  0  0
   15.6989    2.1622    0.0000 N   0  0  0  0  0  0  0  0  0  0  0  0
   11.1636   -0.5637    0.0000 N   0  0  0  0  0  0  0  0  0  0  0  0
    8.9282   -3.0252    0.0000 N   0  0  0  0  0  0  0  0  0  0  0  0
    9.8744   -3.3299    0.0000 N   0  0  0  0  0  0  0  0  0  0  0  0
   14.0526    2.7003    0.0000 C   0  0  0  0  0  0  0  0  0  0  0  0
   14.4098    1.0055    0.0000 C   0  0  0  0  0  0  0  0  0  0  0  0
   15.0311    2.9065    0.0000 C   0  0  0  0  0  0  0  0  0  0  0  0
   15.3883    1.2117    0.0000 C   0  0  0  0  0  0  0  0  0  0  0  0
   12.7634    1.5436    0.0000 C   0  0  0  0  0  0  0  0  0  0  0  0
   12.4528    0.5930    0.0000 C   0  0  0  0  0  0  0  0  0  0  0  0
   16.6774    2.3684    0.0000 C   0  0  0  0  0  0  0  0  0  0  0  0
   11.4743    0.3868    0.0000 C   0  0  0  0  0  0  0  0  0  0  0  0
   17.3453    1.6241    0.0000 C   0  0  0  0  0  0  0  0  0  0  0  0
   16.9881    3.3190    0.0000 C   0  0  0  0  0  0  0  0  0  0  0  0
   18.3238    1.8304    0.0000 C   0  0  0  0  0  0  0  0  0  0  0  0
   17.9666    3.5252    0.0000 C   0  0  0  0  0  0  0  0  0  0  0  0
   18.6345    2.7809    0.0000 C   0  0  0  0  0  0  0  0  0  0  0  0
   10.1851   -0.7699    0.0000 C   0  0  0  0  0  0  0  0  0  0  0  0
    9.8744   -1.7204    0.0000 C   0  0  0  0  0  0  0  0  0  0  0  0
    8.9282   -2.0252    0.0000 C   0  0  0  0  0  0  0  0  0  0  0  0
   17.7025   -0.0707    0.0000 C   0  0  0  0  0  0  0  0  0  0  0  0
   10.4580   -2.5252    0.0000 C   0  0  0  0  0  0  0  0  0  0  0  0
    8.0622   -1.5252    0.0000 C   0  0  0  0  0  0  0  0  0  0  0  0
    7.1962   -2.0252    0.0000 C   0  0  0  0  0  0  0  0  0  0  0  0
    8.0622   -3.5252    0.0000 C   0  0  0  0  0  0  0  0  0  0  0  0
    7.1962   -3.0252    0.0000 C   0  0  0  0  0  0  0  0  0  0  0  0
    5.4641   -2.0252    0.0000 C   0  0  0  0  0  0  0  0  0  0  0  0
    4.5981   -1.5252    0.0000 C   0  0  0  0  0  0  0  0  0  0  0  0
    2.8660   -1.5252    0.0000 C   0  0  0  0  0  0  0  0  0  0  0  0
    2.0000   -2.0252    0.0000 C   0  0  0  0  0  0  0  0  0  0  0  0
   14.0320    3.3200    0.0000 H   0  0  0  0  0  0  0  0  0  0  0  0
   13.4388    2.7877    0.0000 H   0  0  0  0  0  0  0  0  0  0  0  0
   13.8834    0.6778    0.0000 H   0  0  0  0  0  0  0  0  0  0  0  0
   14.6410    0.4302    0.0000 H   0  0  0  0  0  0  0  0  0  0  0  0
   15.5575    3.2342    0.0000 H   0  0  0  0  0  0  0  0  0  0  0  0
   14.7998    3.4818    0.0000 H   0  0  0  0  0  0  0  0  0  0  0  0
   15.4088    0.5920    0.0000 H   0  0  0  0  0  0  0  0  0  0  0  0
   16.0021    1.1243    0.0000 H   0  0  0  0  0  0  0  0  0  0  0  0
   12.7429    2.1632    0.0000 H   0  0  0  0  0  0  0  0  0  0  0  0
   12.1496    1.6309    0.0000 H   0  0  0  0  0  0  0  0  0  0  0  0
   12.4733   -0.0266    0.0000 H   0  0  0  0  0  0  0  0  0  0  0  0
   13.0666    0.5057    0.0000 H   0  0  0  0  0  0  0  0  0  0  0  0
   11.4537    1.0065    0.0000 H   0  0  0  0  0  0  0  0  0  0  0  0
   10.8604    0.4742    0.0000 H   0  0  0  0  0  0  0  0  0  0  0  0
   16.5740    3.7804    0.0000 H   0  0  0  0  0  0  0  0  0  0  0  0
   11.5777   -1.0252    0.0000 H   0  0  0  0  0  0  0  0  0  0  0  0
   18.7379    1.3689    0.0000 H   0  0  0  0  0  0  0  0  0  0  0  0
   18.1592    4.1145    0.0000 H   0  0  0  0  0  0  0  0  0  0  0  0
   19.2411    2.9087    0.0000 H   0  0  0  0  0  0  0  0  0  0  0  0
   17.2410   -0.4848    0.0000 H   0  0  0  0  0  0  0  0  0  0  0  0
   18.1165   -0.5322    0.0000 H   0  0  0  0  0  0  0  0  0  0  0  0
   18.1639    0.3434    0.0000 H   0  0  0  0  0  0  0  0  0  0  0  0
   11.0780   -2.5252    0.0000 H   0  0  0  0  0  0  0  0  0  0  0  0
    8.0622   -0.9052    0.0000 H   0  0  0  0  0  0  0  0  0  0  0  0
    8.0622   -4.1452    0.0000 H   0  0  0  0  0  0  0  0  0  0  0  0
    6.6592   -3.3352    0.0000 H   0  0  0  0  0  0  0  0  0  0  0  0
    5.0656   -2.5001    0.0000 H   0  0  0  0  0  0  0  0  0  0  0  0
    5.8626   -2.5001    0.0000 H   0  0  0  0  0  0  0  0  0  0  0  0
    4.9966   -1.0502    0.0000 H   0  0  0  0  0  0  0  0  0  0  0  0
    4.1996   -1.0502    0.0000 H   0  0  0  0  0  0  0  0  0  0  0  0
    3.2646   -1.0502    0.0000 H   0  0  0  0  0  0  0  0  0  0  0  0
    2.4675   -1.0502    0.0000 H   0  0  0  0  0  0  0  0  0  0  0  0
    1.6900   -1.4882    0.0000 H   0  0  0  0  0  0  0  0  0  0  0  0
    1.4631   -2.3352    0.0000 H   0  0  0  0  0  0  0  0  0  0  0  0
    2.3100   -2.5621    0.0000 H   0  0  0  0  0  0  0  0  0  0  0  0
  1 18  1  0  0  0  0
  1 26  1  0  0  0  0
  2 23  2  0  0  0  0
  3 29  1  0  0  0  0
  3 32  1  0  0  0  0
  4 33  1  0  0  0  0
  4 34  1  0  0  0  0
  5 10  1  0  0  0  0
  5 11  1  0  0  0  0
  5 14  1  0  0  0  0
  6 12  1  0  0  0  0
  6 13  1  0  0  0  0
  6 16  1  0  0  0  0
  7 17  1  0  0  0  0
  7 23  1  0  0  0  0
  7 51  1  0  0  0  0
  8  9  1  0  0  0  0
  8 25  1  0  0  0  0
  8 30  1  0  0  0  0
  9 27  2  0  0  0  0
 10 12  1  0  0  0  0
 10 36  1  0  0  0  0
 10 37  1  0  0  0  0
 11 13  1  0  0  0  0
 11 38  1  0  0  0  0
 11 39  1  0  0  0  0
 12 40  1  0  0  0  0
 12 41  1  0  0  0  0
 13 42  1  0  0  0  0
 13 43  1  0  0  0  0
 14 15  1  0  0  0  0
 14 44  1  0  0  0  0
 14 45  1  0  0  0  0
 15 17  1  0  0  0  0
 15 46  1  0  0  0  0
 15 47  1  0  0  0  0
 16 18  1  0  0  0  0
 16 19  2  0  0  0  0
 17 48  1  0  0  0  0
 17 49  1  0  0  0  0
 18 20  2  0  0  0  0
 19 21  1  0  0  0  0
 19 50  1  0  0  0  0
 20 22  1  0  0  0  0
 20 52  1  0  0  0  0
 21 22  2  0  0  0  0
 21 53  1  0  0  0  0
 22 54  1  0  0  0  0
 23 24  1  0  0  0  0
 24 25  2  0  0  0  0
 24 27  1  0  0  0  0
 25 28  1  0  0  0  0
 26 55  1  0  0  0  0
 26 56  1  0  0  0  0
 26 57  1  0  0  0  0
 27 58  1  0  0  0  0
 28 29  2  0  0  0  0
 28 59  1  0  0  0  0
 29 31  1  0  0  0  0
 30 31  2  0  0  0  0
 30 60  1  0  0  0  0
 31 61  1  0  0  0  0
 32 33  1  0  0  0  0
 32 62  1  0  0  0  0
 32 63  1  0  0  0  0
 33 64  1  0  0  0  0
 33 65  1  0  0  0  0
 34 35  1  0  0  0  0
 34 66  1  0  0  0  0
 34 67  1  0  0  0  0
 35 68  1  0  0  0  0
 35 69  1  0  0  0  0
 35 70  1  0  0  0  0
M  END
> <PUBCHEM_COMPOUND_CID>
57391897

> <PUBCHEM_COMPOUND_CANONICALIZED>
1

> <PUBCHEM_CACTVS_COMPLEXITY>
633

> <PUBCHEM_CACTVS_HBOND_ACCEPTOR>
7

> <PUBCHEM_CACTVS_HBOND_DONOR>
1

> <PUBCHEM_CACTVS_ROTATABLE_BOND>
12

> <PUBCHEM_CACTVS_SUBSKEYS>
AAADcfB7uAAAAAAAAAAAAAAAAAAAAWAAAAA8WIAAAAAAAFgB8AAAHgAYAAAADAzhngY+xrPIFACqAzV3VACSjCA1oiAY2KE/bNgPZvrE9duXvajm3hna6ceY3ELMAAAAAAAAEAAAAAAAAAAgAAAAAAAAAA==

> <PUBCHEM_IUPAC_OPENEYE_NAME>
5-(2-ethoxyethoxy)-N-[3-[4-(2-methoxyphenyl)piperazin-1-yl]propyl]pyrazolo[1,5-a]pyridine-3-carboxamide

> <PUBCHEM_IUPAC_CAS_NAME>
5-(2-ethoxyethoxy)-N-[3-[4-(2-methoxyphenyl)-1-piperazinyl]propyl]-3-pyrazolo[1,5-a]pyridinecarboxamide

> <PUBCHEM_IUPAC_NAME_MARKUP>
5-(2-ethoxyethoxy)-<I>N</I>-[3-[4-(2-methoxyphenyl)piperazin-1-yl]propyl]pyrazolo[1,5-a]pyridine-3-carboxamide

> <PUBCHEM_IUPAC_NAME>
5-(2-ethoxyethoxy)-N-[3-[4-(2-methoxyphenyl)piperazin-1-yl]propyl]pyrazolo[1,5-a]pyridine-3-carboxamide

> <PUBCHEM_IUPAC_SYSTEMATIC_NAME>
5-(2-ethoxyethoxy)-N-[3-[4-(2-methoxyphenyl)piperazin-1-yl]propyl]pyrazolo[1,5-a]pyridine-3-carboxamide

> <PUBCHEM_IUPAC_TRADITIONAL_NAME>
5-(2-ethoxyethoxy)-N-[3-[4-(2-methoxyphenyl)piperazino]propyl]pyrazolo[1,5-a]pyridine-3-carboxamide

> <PUBCHEM_IUPAC_INCHI>
InChI=1S/C26H35N5O4/c1-3-34-17-18-35-21-9-12-31-24(19-21)22(20-28-31)26(32)27-10-6-11-29-13-15-30(16-14-29)23-7-4-5-8-25(23)33-2/h4-5,7-9,12,19-20H,3,6,10-11,13-18H2,1-2H3,(H,27,32)

> <PUBCHEM_IUPAC_INCHIKEY>
BEYYMPWIMDYWDO-UHFFFAOYSA-N

> <PUBCHEM_XLOGP3_AA>
2.5

> <PUBCHEM_EXACT_MASS>
481.26890461

> <PUBCHEM_MOLECULAR_FORMULA>
C26H35N5O4

> <PUBCHEM_MOLECULAR_WEIGHT>
481.6

> <PUBCHEM_OPENEYE_CAN_SMILES>
CCOCCOC1=CC2=C(C=NN2C=C1)C(=O)NCCCN3CCN(CC3)C4=CC=CC=C4OC

> <PUBCHEM_OPENEYE_ISO_SMILES>
CCOCCOC1=CC2=C(C=NN2C=C1)C(=O)NCCCN3CCN(CC3)C4=CC=CC=C4OC

> <PUBCHEM_CACTVS_TPSA>
80.6

> <PUBCHEM_MONOISOTOPIC_WEIGHT>
481.26890461

> <PUBCHEM_TOTAL_CHARGE>
0

> <PUBCHEM_HEAVY_ATOM_COUNT>
35

> <PUBCHEM_ATOM_DEF_STEREO_COUNT>
0

> <PUBCHEM_ATOM_UDEF_STEREO_COUNT>
0

> <PUBCHEM_BOND_DEF_STEREO_COUNT>
0

> <PUBCHEM_BOND_UDEF_STEREO_COUNT>
0

> <PUBCHEM_ISOTOPIC_ATOM_COUNT>
0

> <PUBCHEM_COMPONENT_COUNT>
1

> <PUBCHEM_CACTVS_TAUTO_COUNT>
-1

> <PUBCHEM_COORDINATE_TYPE>
1
5
255

> <PUBCHEM_BONDANNOTATIONS>
16  18  8
16  19  8
18  20  8
19  21  8
20  22  8
21  22  8
24  25  8
24  27  8
25  28  8
28  29  8
29  31  8
30  31  8
8  25  8
8  30  8
8  9  8
9  27  8

$$$$
