44439398
  -OEChem-09292322492D

 58 61  0     1  0  0  0  0  0999 V2000
   11.6145    0.7813    0.0000 O   0  0  0  0  0  0  0  0  0  0  0  0
    2.0000    1.2876    0.0000 O   0  0  0  0  0  0  0  0  0  0  0  0
    2.0000   -0.7124    0.0000 O   0  0  0  0  0  0  0  0  0  0  0  0
   13.3465    0.7947    0.0000 O   0  0  0  0  0  0  0  0  0  0  0  0
    6.3981   -0.2332    0.0000 N   0  0  0  0  0  0  0  0  0  0  0  0
    8.1301   -0.2398    0.0000 N   0  0  0  0  0  0  0  0  0  0  0  0
   11.6222   -0.2186    0.0000 C   0  0  3  0  0  0  0  0  0  0  0  0
   12.5263   -0.7360    0.0000 C   0  0  0  0  0  0  0  0  0  0  0  0
   12.5223   -1.7776    0.0000 C   0  0  0  0  0  0  0  0  0  0  0  0
   11.6143   -2.2880    0.0000 C   0  0  0  0  0  0  0  0  0  0  0  0
   10.7263   -0.7499    0.0000 C   0  0  0  0  0  0  0  0  0  0  0  0
   10.7224   -1.7498    0.0000 C   0  0  0  0  0  0  0  0  0  0  0  0
    6.3981    0.8085    0.0000 C   0  0  0  0  0  0  0  0  0  0  0  0
    5.4920    1.3223    0.0000 C   0  0  0  0  0  0  0  0  0  0  0  0
    5.4920   -0.7470    0.0000 C   0  0  0  0  0  0  0  0  0  0  0  0
    4.5981    0.7876    0.0000 C   0  0  0  0  0  0  0  0  0  0  0  0
    4.5981   -0.2124    0.0000 C   0  0  0  0  0  0  0  0  0  0  0  0
    9.8622   -0.2465    0.0000 C   0  0  0  0  0  0  0  0  0  0  0  0
    9.8544   -2.2465    0.0000 C   0  0  0  0  0  0  0  0  0  0  0  0
    8.9942   -0.7432    0.0000 C   0  0  0  0  0  0  0  0  0  0  0  0
    8.9904   -1.7432    0.0000 C   0  0  0  0  0  0  0  0  0  0  0  0
    7.2622   -0.7365    0.0000 C   0  0  0  0  0  0  0  0  0  0  0  0
    3.7320    1.2876    0.0000 C   0  0  0  0  0  0  0  0  0  0  0  0
    3.7320   -0.7124    0.0000 C   0  0  0  0  0  0  0  0  0  0  0  0
    2.8660    0.7876    0.0000 C   0  0  0  0  0  0  0  0  0  0  0  0
    2.8660   -0.2124    0.0000 C   0  0  0  0  0  0  0  0  0  0  0  0
   12.4767    1.2880    0.0000 C   0  0  0  0  0  0  0  0  0  0  0  0
   12.4690    2.2880    0.0000 C   0  0  0  0  0  0  0  0  0  0  0  0
    2.0000    2.2876    0.0000 C   0  0  0  0  0  0  0  0  0  0  0  0
    2.0000   -1.7124    0.0000 C   0  0  0  0  0  0  0  0  0  0  0  0
   11.0824    0.0862    0.0000 H   0  0  0  0  0  0  0  0  0  0  0  0
   13.1368   -0.8444    0.0000 H   0  0  0  0  0  0  0  0  0  0  0  0
   12.7376   -0.1531    0.0000 H   0  0  0  0  0  0  0  0  0  0  0  0
   12.7291   -2.3621    0.0000 H   0  0  0  0  0  0  0  0  0  0  0  0
   13.1336   -1.6739    0.0000 H   0  0  0  0  0  0  0  0  0  0  0  0
   11.2079   -2.7562    0.0000 H   0  0  0  0  0  0  0  0  0  0  0  0
   12.0060   -2.7685    0.0000 H   0  0  0  0  0  0  0  0  0  0  0  0
    7.0089    0.7024    0.0000 H   0  0  0  0  0  0  0  0  0  0  0  0
    6.6071    1.3922    0.0000 H   0  0  0  0  0  0  0  0  0  0  0  0
    5.8856    1.8013    0.0000 H   0  0  0  0  0  0  0  0  0  0  0  0
    5.0874    1.7921    0.0000 H   0  0  0  0  0  0  0  0  0  0  0  0
    5.0874   -1.2168    0.0000 H   0  0  0  0  0  0  0  0  0  0  0  0
    5.8856   -1.2260    0.0000 H   0  0  0  0  0  0  0  0  0  0  0  0
    9.8646    0.3735    0.0000 H   0  0  0  0  0  0  0  0  0  0  0  0
    9.8521   -2.8665    0.0000 H   0  0  0  0  0  0  0  0  0  0  0  0
    8.4522   -2.0511    0.0000 H   0  0  0  0  0  0  0  0  0  0  0  0
    7.2598   -1.3565    0.0000 H   0  0  0  0  0  0  0  0  0  0  0  0
    3.7320    1.9076    0.0000 H   0  0  0  0  0  0  0  0  0  0  0  0
    3.7320   -1.3324    0.0000 H   0  0  0  0  0  0  0  0  0  0  0  0
   13.0890    2.2927    0.0000 H   0  0  0  0  0  0  0  0  0  0  0  0
   12.4642    2.9079    0.0000 H   0  0  0  0  0  0  0  0  0  0  0  0
   11.8490    2.2832    0.0000 H   0  0  0  0  0  0  0  0  0  0  0  0
    2.6200    2.2876    0.0000 H   0  0  0  0  0  0  0  0  0  0  0  0
    2.0000    2.9076    0.0000 H   0  0  0  0  0  0  0  0  0  0  0  0
    1.3800    2.2876    0.0000 H   0  0  0  0  0  0  0  0  0  0  0  0
    1.3800   -1.7124    0.0000 H   0  0  0  0  0  0  0  0  0  0  0  0
    2.0000   -2.3324    0.0000 H   0  0  0  0  0  0  0  0  0  0  0  0
    2.6200   -1.7124    0.0000 H   0  0  0  0  0  0  0  0  0  0  0  0
  1  7  1  0  0  0  0
  1 27  1  0  0  0  0
  2 25  1  0  0  0  0
  2 29  1  0  0  0  0
  3 26  1  0  0  0  0
  3 30  1  0  0  0  0
  4 27  2  0  0  0  0
  5 13  1  0  0  0  0
  5 15  1  0  0  0  0
  5 22  1  0  0  0  0
  6 20  1  0  0  0  0
  6 22  2  0  0  0  0
  7  8  1  0  0  0  0
  7 11  1  0  0  0  0
  7 31  1  0  0  0  0
  8  9  1  0  0  0  0
  8 32  1  0  0  0  0
  8 33  1  0  0  0  0
  9 10  1  0  0  0  0
  9 34  1  0  0  0  0
  9 35  1  0  0  0  0
 10 12  1  0  0  0  0
 10 36  1  0  0  0  0
 10 37  1  0  0  0  0
 11 12  2  0  0  0  0
 11 18  1  0  0  0  0
 12 19  1  0  0  0  0
 13 14  1  0  0  0  0
 13 38  1  0  0  0  0
 13 39  1  0  0  0  0
 14 16  1  0  0  0  0
 14 40  1  0  0  0  0
 14 41  1  0  0  0  0
 15 17  1  0  0  0  0
 15 42  1  0  0  0  0
 15 43  1  0  0  0  0
 16 17  1  0  0  0  0
 16 23  2  0  0  0  0
 17 24  2  0  0  0  0
 18 20  2  0  0  0  0
 18 44  1  0  0  0  0
 19 21  2  0  0  0  0
 19 45  1  0  0  0  0
 20 21  1  0  0  0  0
 21 46  1  0  0  0  0
 22 47  1  0  0  0  0
 23 25  1  0  0  0  0
 23 48  1  0  0  0  0
 24 26  1  0  0  0  0
 24 49  1  0  0  0  0
 25 26  2  0  0  0  0
 27 28  1  0  0  0  0
 28 50  1  0  0  0  0
 28 51  1  0  0  0  0
 28 52  1  0  0  0  0
 29 53  1  0  0  0  0
 29 54  1  0  0  0  0
 29 55  1  0  0  0  0
 30 56  1  0  0  0  0
 30 57  1  0  0  0  0
 30 58  1  0  0  0  0
M  END
> <PUBCHEM_COMPOUND_CID>
44439398

> <PUBCHEM_COMPOUND_CANONICALIZED>
1

> <PUBCHEM_CACTVS_COMPLEXITY>
612

> <PUBCHEM_CACTVS_HBOND_ACCEPTOR>
5

> <PUBCHEM_CACTVS_HBOND_DONOR>
0

> <PUBCHEM_CACTVS_ROTATABLE_BOND>
6

> <PUBCHEM_CACTVS_SUBSKEYS>
AAADceB7OAAAAAAAAAAAAAAAAAAAAAAAAAA8YMEAAAAAAADxQAAAHgAAAAAADBzhmAYzzoMABACoAiTTbACCCAEgIgAJiAAO7IgNJiKEuZuGMCpkwBGK6Aew0LIOqAABQAAQQABQAAKAADCAAAAAAAAAAA==

> <PUBCHEM_IUPAC_OPENEYE_NAME>
[7-[(6,7-dimethoxy-3,4-dihydro-1H-isoquinolin-2-yl)methyleneamino]tetralin-1-yl] acetate

> <PUBCHEM_IUPAC_CAS_NAME>
acetic acid [7-[(6,7-dimethoxy-3,4-dihydro-1H-isoquinolin-2-yl)methylideneamino]-1,2,3,4-tetrahydronaphthalen-1-yl] ester

> <PUBCHEM_IUPAC_NAME_MARKUP>
[7-[(6,7-dimethoxy-3,4-dihydro-1<I>H</I>-isoquinolin-2-yl)methylideneamino]-1,2,3,4-tetrahydronaphthalen-1-yl] acetate

> <PUBCHEM_IUPAC_NAME>
[7-[(6,7-dimethoxy-3,4-dihydro-1H-isoquinolin-2-yl)methylideneamino]-1,2,3,4-tetrahydronaphthalen-1-yl] acetate

> <PUBCHEM_IUPAC_SYSTEMATIC_NAME>
[7-[(6,7-dimethoxy-3,4-dihydro-1H-isoquinolin-2-yl)methylideneamino]-1,2,3,4-tetrahydronaphthalen-1-yl] ethanoate

> <PUBCHEM_IUPAC_TRADITIONAL_NAME>
acetic acid [7-[(6,7-dimethoxy-3,4-dihydro-1H-isoquinolin-2-yl)methyleneamino]tetralin-1-yl] ester

> <PUBCHEM_IUPAC_INCHI>
InChI=1S/C24H28N2O4/c1-16(27)30-22-6-4-5-17-7-8-20(13-21(17)22)25-15-26-10-9-18-11-23(28-2)24(29-3)12-19(18)14-26/h7-8,11-13,15,22H,4-6,9-10,14H2,1-3H3

> <PUBCHEM_IUPAC_INCHIKEY>
LHDVHKCXIMBGFK-UHFFFAOYSA-N

> <PUBCHEM_XLOGP3_AA>
3.5

> <PUBCHEM_EXACT_MASS>
408.20490738

> <PUBCHEM_MOLECULAR_FORMULA>
C24H28N2O4

> <PUBCHEM_MOLECULAR_WEIGHT>
408.5

> <PUBCHEM_OPENEYE_CAN_SMILES>
CC(=O)OC1CCCC2=C1C=C(C=C2)N=CN3CCC4=CC(=C(C=C4C3)OC)OC

> <PUBCHEM_OPENEYE_ISO_SMILES>
CC(=O)OC1CCCC2=C1C=C(C=C2)N=CN3CCC4=CC(=C(C=C4C3)OC)OC

> <PUBCHEM_CACTVS_TPSA>
60.4

> <PUBCHEM_MONOISOTOPIC_WEIGHT>
408.20490738

> <PUBCHEM_TOTAL_CHARGE>
0

> <PUBCHEM_HEAVY_ATOM_COUNT>
30

> <PUBCHEM_ATOM_DEF_STEREO_COUNT>
0

> <PUBCHEM_ATOM_UDEF_STEREO_COUNT>
1

> <PUBCHEM_BOND_DEF_STEREO_COUNT>
0

> <PUBCHEM_BOND_UDEF_STEREO_COUNT>
0

> <PUBCHEM_ISOTOPIC_ATOM_COUNT>
0

> <PUBCHEM_COMPONENT_COUNT>
1

> <PUBCHEM_CACTVS_TAUTO_COUNT>
-1

> <PUBCHEM_COORDINATE_TYPE>
1
5
255

> <PUBCHEM_BONDANNOTATIONS>
7  1  3
11  12  8
11  18  8
12  19  8
16  17  8
16  23  8
17  24  8
18  20  8
19  21  8
20  21  8
23  25  8
24  26  8
25  26  8

$$$$
