52941427
  -OEChem-09292322302D

 59 63  0     1  0  0  0  0  0999 V2000
    6.0767   -2.3874    0.0000 S   0  0  0  0  0  0  0  0  0  0  0  0
    9.5408    6.6126    0.0000 F   0  0  0  0  0  0  0  0  0  0  0  0
   10.5408    5.6126    0.0000 F   0  0  0  0  0  0  0  0  0  0  0  0
    8.5408    5.6126    0.0000 F   0  0  0  0  0  0  0  0  0  0  0  0
    4.2213   -5.8694    0.0000 O   0  0  0  0  0  0  0  0  0  0  0  0
    7.8088    0.6126    0.0000 N   0  0  3  0  0  0  0  0  0  0  0  0
    5.1062   -3.8820    0.0000 N   0  0  0  0  0  0  0  0  0  0  0  0
    4.2972   -2.4807    0.0000 N   0  0  0  0  0  0  0  0  0  0  0  0
    3.6280   -3.2238    0.0000 N   0  0  0  0  0  0  0  0  0  0  0  0
    2.6386   -6.2058    0.0000 N   0  0  0  0  0  0  0  0  0  0  0  0
    9.5408    1.6126    0.0000 C   0  0  3  0  0  0  0  0  0  0  0  0
    9.5408    0.6126    0.0000 C   0  0  3  0  0  0  0  0  0  0  0  0
   10.4074    1.1126    0.0000 C   0  0  0  0  0  0  0  0  0  0  0  0
    8.6748    2.1126    0.0000 C   0  0  0  0  0  0  0  0  0  0  0  0
    8.6748    0.1126    0.0000 C   0  0  0  0  0  0  0  0  0  0  0  0
    9.5408    2.6126    0.0000 C   0  0  0  0  0  0  0  0  0  0  0  0
    7.8088    1.6126    0.0000 C   0  0  0  0  0  0  0  0  0  0  0  0
    6.9428    0.1126    0.0000 C   0  0  0  0  0  0  0  0  0  0  0  0
   10.4069    3.1126    0.0000 C   0  0  0  0  0  0  0  0  0  0  0  0
    8.6748    3.1126    0.0000 C   0  0  0  0  0  0  0  0  0  0  0  0
    6.9428   -0.8874    0.0000 C   0  0  0  0  0  0  0  0  0  0  0  0
   10.4069    4.1126    0.0000 C   0  0  0  0  0  0  0  0  0  0  0  0
    8.6748    4.1126    0.0000 C   0  0  0  0  0  0  0  0  0  0  0  0
    9.5408    4.6126    0.0000 C   0  0  0  0  0  0  0  0  0  0  0  0
    6.0767   -1.3874    0.0000 C   0  0  0  0  0  0  0  0  0  0  0  0
    9.5408    5.6126    0.0000 C   0  0  0  0  0  0  0  0  0  0  0  0
    5.2107   -2.8874    0.0000 C   0  0  0  0  0  0  0  0  0  0  0  0
    4.1280   -4.0899    0.0000 C   0  0  0  0  0  0  0  0  0  0  0  0
    5.8493   -4.5511    0.0000 C   0  0  0  0  0  0  0  0  0  0  0  0
    3.7213   -5.0034    0.0000 C   0  0  0  0  0  0  0  0  0  0  0  0
    2.7431   -5.2113    0.0000 C   0  0  0  0  0  0  0  0  0  0  0  0
    2.0000   -4.5422    0.0000 C   0  0  0  0  0  0  0  0  0  0  0  0
    3.5522   -6.6126    0.0000 C   0  0  0  0  0  0  0  0  0  0  0  0
    9.8508    0.0756    0.0000 H   0  0  0  0  0  0  0  0  0  0  0  0
   10.8059    0.6376    0.0000 H   0  0  0  0  0  0  0  0  0  0  0  0
   10.8059    1.5876    0.0000 H   0  0  0  0  0  0  0  0  0  0  0  0
    9.0733    2.5875    0.0000 H   0  0  0  0  0  0  0  0  0  0  0  0
    8.2763    2.5875    0.0000 H   0  0  0  0  0  0  0  0  0  0  0  0
    8.2763   -0.3624    0.0000 H   0  0  0  0  0  0  0  0  0  0  0  0
    9.0733   -0.3624    0.0000 H   0  0  0  0  0  0  0  0  0  0  0  0
    7.5967    2.1952    0.0000 H   0  0  0  0  0  0  0  0  0  0  0  0
    7.1982    1.5049    0.0000 H   0  0  0  0  0  0  0  0  0  0  0  0
    6.7307    0.6952    0.0000 H   0  0  0  0  0  0  0  0  0  0  0  0
    6.3322    0.0049    0.0000 H   0  0  0  0  0  0  0  0  0  0  0  0
   10.9438    2.8026    0.0000 H   0  0  0  0  0  0  0  0  0  0  0  0
    8.1379    2.8026    0.0000 H   0  0  0  0  0  0  0  0  0  0  0  0
    7.1548   -1.4700    0.0000 H   0  0  0  0  0  0  0  0  0  0  0  0
    7.5533   -0.7798    0.0000 H   0  0  0  0  0  0  0  0  0  0  0  0
   10.9438    4.4226    0.0000 H   0  0  0  0  0  0  0  0  0  0  0  0
    8.1379    4.4226    0.0000 H   0  0  0  0  0  0  0  0  0  0  0  0
    5.8647   -0.8048    0.0000 H   0  0  0  0  0  0  0  0  0  0  0  0
    5.4662   -1.4951    0.0000 H   0  0  0  0  0  0  0  0  0  0  0  0
    5.4345   -5.0118    0.0000 H   0  0  0  0  0  0  0  0  0  0  0  0
    6.3101   -4.9659    0.0000 H   0  0  0  0  0  0  0  0  0  0  0  0
    6.2642   -4.0903    0.0000 H   0  0  0  0  0  0  0  0  0  0  0  0
    2.4149   -4.0814    0.0000 H   0  0  0  0  0  0  0  0  0  0  0  0
    1.5392   -4.1273    0.0000 H   0  0  0  0  0  0  0  0  0  0  0  0
    1.5851   -5.0029    0.0000 H   0  0  0  0  0  0  0  0  0  0  0  0
    3.6811   -7.2190    0.0000 H   0  0  0  0  0  0  0  0  0  0  0  0
  1 25  1  0  0  0  0
  1 27  1  0  0  0  0
  2 26  1  0  0  0  0
  3 26  1  0  0  0  0
  4 26  1  0  0  0  0
  5 30  1  0  0  0  0
  5 33  1  0  0  0  0
  6 15  1  0  0  0  0
  6 17  1  0  0  0  0
  6 18  1  0  0  0  0
  7 27  1  0  0  0  0
  7 28  1  0  0  0  0
  7 29  1  0  0  0  0
  8  9  1  0  0  0  0
  8 27  2  0  0  0  0
  9 28  2  0  0  0  0
 10 31  1  0  0  0  0
 10 33  2  0  0  0  0
 11 12  1  0  0  0  0
 11 13  1  0  0  0  0
 11 14  1  0  0  0  0
 11 16  1  0  0  0  0
 12 13  1  0  0  0  0
 12 15  1  0  0  0  0
 12 34  1  0  0  0  0
 13 35  1  0  0  0  0
 13 36  1  0  0  0  0
 14 17  1  0  0  0  0
 14 37  1  0  0  0  0
 14 38  1  0  0  0  0
 15 39  1  0  0  0  0
 15 40  1  0  0  0  0
 16 19  2  0  0  0  0
 16 20  1  0  0  0  0
 17 41  1  0  0  0  0
 17 42  1  0  0  0  0
 18 21  1  0  0  0  0
 18 43  1  0  0  0  0
 18 44  1  0  0  0  0
 19 22  1  0  0  0  0
 19 45  1  0  0  0  0
 20 23  2  0  0  0  0
 20 46  1  0  0  0  0
 21 25  1  0  0  0  0
 21 47  1  0  0  0  0
 21 48  1  0  0  0  0
 22 24  2  0  0  0  0
 22 49  1  0  0  0  0
 23 24  1  0  0  0  0
 23 50  1  0  0  0  0
 24 26  1  0  0  0  0
 25 51  1  0  0  0  0
 25 52  1  0  0  0  0
 28 30  1  0  0  0  0
 29 53  1  0  0  0  0
 29 54  1  0  0  0  0
 29 55  1  0  0  0  0
 30 31  2  0  0  0  0
 31 32  1  0  0  0  0
 32 56  1  0  0  0  0
 32 57  1  0  0  0  0
 32 58  1  0  0  0  0
 33 59  1  0  0  0  0
M  END
> <PUBCHEM_COMPOUND_CID>
52941427

> <PUBCHEM_COMPOUND_CANONICALIZED>
1

> <PUBCHEM_CACTVS_COMPLEXITY>
679

> <PUBCHEM_CACTVS_HBOND_ACCEPTOR>
9

> <PUBCHEM_CACTVS_HBOND_DONOR>
0

> <PUBCHEM_CACTVS_ROTATABLE_BOND>
7

> <PUBCHEM_CACTVS_SUBSKEYS>
AAADceB7oYBAAAAAAAAAAAAAGAAAAWLAAAA8QAAABYAAAAAB8AAAHwQIAAAADwzF3xa3lJcMFEiqA6Zz9ASS2Ct7YLAd2CG9RJiOKCLk2TCNIChgjALYiAcQgMAPwAAAAAAAAACAAAAAAAAAAAAAAAAAAA==

> <PUBCHEM_IUPAC_OPENEYE_NAME>
4-methyl-5-[4-methyl-5-[3-[6-[4-(trifluoromethyl)phenyl]-3-azabicyclo[4.1.0]heptan-3-yl]propylsulfanyl]-1,2,4-triazol-3-yl]oxazole

> <PUBCHEM_IUPAC_CAS_NAME>
4-methyl-5-[4-methyl-5-[3-[6-[4-(trifluoromethyl)phenyl]-3-azabicyclo[4.1.0]heptan-3-yl]propylthio]-1,2,4-triazol-3-yl]oxazole

> <PUBCHEM_IUPAC_NAME_MARKUP>
4-methyl-5-[4-methyl-5-[3-[6-[4-(trifluoromethyl)phenyl]-3-azabicyclo[4.1.0]heptan-3-yl]propylsulfanyl]-1,2,4-triazol-3-yl]-1,3-oxazole

> <PUBCHEM_IUPAC_NAME>
4-methyl-5-[4-methyl-5-[3-[6-[4-(trifluoromethyl)phenyl]-3-azabicyclo[4.1.0]heptan-3-yl]propylsulfanyl]-1,2,4-triazol-3-yl]-1,3-oxazole

> <PUBCHEM_IUPAC_SYSTEMATIC_NAME>
4-methyl-5-[4-methyl-5-[3-[6-[4-(trifluoromethyl)phenyl]-3-azabicyclo[4.1.0]heptan-3-yl]propylsulfanyl]-1,2,4-triazol-3-yl]-1,3-oxazole

> <PUBCHEM_IUPAC_TRADITIONAL_NAME>
4-methyl-5-[4-methyl-5-[3-[6-[4-(trifluoromethyl)phenyl]-3-azabicyclo[4.1.0]heptan-3-yl]propylthio]-1,2,4-triazol-3-yl]oxazole

> <PUBCHEM_IUPAC_INCHI>
InChI=1S/C23H26F3N5OS/c1-15-19(32-14-27-15)20-28-29-21(30(20)2)33-11-3-9-31-10-8-22(12-18(22)13-31)16-4-6-17(7-5-16)23(24,25)26/h4-7,14,18H,3,8-13H2,1-2H3

> <PUBCHEM_IUPAC_INCHIKEY>
JKOYRFXVLZJKAP-UHFFFAOYSA-N

> <PUBCHEM_XLOGP3_AA>
4.3

> <PUBCHEM_EXACT_MASS>
477.18101613

> <PUBCHEM_MOLECULAR_FORMULA>
C23H26F3N5OS

> <PUBCHEM_MOLECULAR_WEIGHT>
477.5

> <PUBCHEM_OPENEYE_CAN_SMILES>
CC1=C(OC=N1)C2=NN=C(N2C)SCCCN3CCC4(CC4C3)C5=CC=C(C=C5)C(F)(F)F

> <PUBCHEM_OPENEYE_ISO_SMILES>
CC1=C(OC=N1)C2=NN=C(N2C)SCCCN3CCC4(CC4C3)C5=CC=C(C=C5)C(F)(F)F

> <PUBCHEM_CACTVS_TPSA>
85.3

> <PUBCHEM_MONOISOTOPIC_WEIGHT>
477.18101613

> <PUBCHEM_TOTAL_CHARGE>
0

> <PUBCHEM_HEAVY_ATOM_COUNT>
33

> <PUBCHEM_ATOM_DEF_STEREO_COUNT>
0

> <PUBCHEM_ATOM_UDEF_STEREO_COUNT>
2

> <PUBCHEM_BOND_DEF_STEREO_COUNT>
0

> <PUBCHEM_BOND_UDEF_STEREO_COUNT>
0

> <PUBCHEM_ISOTOPIC_ATOM_COUNT>
0

> <PUBCHEM_COMPONENT_COUNT>
1

> <PUBCHEM_CACTVS_TAUTO_COUNT>
-1

> <PUBCHEM_COORDINATE_TYPE>
1
5
255

> <PUBCHEM_BONDANNOTATIONS>
10  31  8
10  33  8
11  16  3
12  13  3
16  19  8
16  20  8
19  22  8
20  23  8
22  24  8
23  24  8
30  31  8
5  30  8
5  33  8
7  27  8
7  28  8
8  27  8
8  9  8
9  28  8

$$$$
