127047538
  -OEChem-09292322372D

 58 61  0     0  0  0  0  0  0999 V2000
    8.4530   -2.7209    0.0000 S   0  0  0  0  0  0  0  0  0  0  0  0
    6.3301    5.0344    0.0000 F   0  0  0  0  0  0  0  0  0  0  0  0
    5.3301    4.0344    0.0000 F   0  0  0  0  0  0  0  0  0  0  0  0
    7.3301    4.0344    0.0000 F   0  0  0  0  0  0  0  0  0  0  0  0
    9.4035   -2.4102    0.0000 O   0  0  0  0  0  0  0  0  0  0  0  0
    7.5025   -3.0316    0.0000 O   0  0  0  0  0  0  0  0  0  0  0  0
   10.0529   -4.8282    0.0000 O   0  0  0  0  0  0  0  0  0  0  0  0
    4.5981   -1.9656    0.0000 N   0  0  0  0  0  0  0  0  0  0  0  0
    2.8660   -2.9656    0.0000 N   0  0  0  0  0  0  0  0  0  0  0  0
    8.1424   -1.7704    0.0000 N   0  0  0  0  0  0  0  0  0  0  0  0
    6.3301   -1.9656    0.0000 N   0  0  0  0  0  0  0  0  0  0  0  0
    4.5981   -2.9656    0.0000 C   0  0  0  0  0  0  0  0  0  0  0  0
    3.7320   -1.4656    0.0000 C   0  0  0  0  0  0  0  0  0  0  0  0
    3.7320   -3.4656    0.0000 C   0  0  0  0  0  0  0  0  0  0  0  0
    2.8660   -1.9656    0.0000 C   0  0  0  0  0  0  0  0  0  0  0  0
    5.4641   -1.4656    0.0000 C   0  0  0  0  0  0  0  0  0  0  0  0
    7.1962   -1.4656    0.0000 C   0  0  0  0  0  0  0  0  0  0  0  0
    7.1962   -0.4656    0.0000 C   0  0  0  0  0  0  0  0  0  0  0  0
    6.3301    0.0344    0.0000 C   0  0  0  0  0  0  0  0  0  0  0  0
    5.4641   -0.4656    0.0000 C   0  0  0  0  0  0  0  0  0  0  0  0
    2.0000   -3.4656    0.0000 C   0  0  0  0  0  0  0  0  0  0  0  0
    8.1424   -0.1609    0.0000 C   0  0  0  0  0  0  0  0  0  0  0  0
    8.7260   -0.9656    0.0000 C   0  0  0  0  0  0  0  0  0  0  0  0
    6.3301    1.0344    0.0000 C   0  0  0  0  0  0  0  0  0  0  0  0
    8.7637   -3.6714    0.0000 C   0  0  0  0  0  0  0  0  0  0  0  0
    9.7422   -3.8776    0.0000 C   0  0  0  0  0  0  0  0  0  0  0  0
    7.1962    1.5344    0.0000 C   0  0  0  0  0  0  0  0  0  0  0  0
    5.4641    1.5344    0.0000 C   0  0  0  0  0  0  0  0  0  0  0  0
    7.1962    2.5344    0.0000 C   0  0  0  0  0  0  0  0  0  0  0  0
    5.4641    2.5344    0.0000 C   0  0  0  0  0  0  0  0  0  0  0  0
    6.3301    3.0344    0.0000 C   0  0  0  0  0  0  0  0  0  0  0  0
    6.3301    4.0344    0.0000 C   0  0  0  0  0  0  0  0  0  0  0  0
   11.0314   -5.0344    0.0000 C   0  0  0  0  0  0  0  0  0  0  0  0
    4.8101   -3.5482    0.0000 H   0  0  0  0  0  0  0  0  0  0  0  0
    5.2087   -2.8580    0.0000 H   0  0  0  0  0  0  0  0  0  0  0  0
    4.1306   -0.9907    0.0000 H   0  0  0  0  0  0  0  0  0  0  0  0
    3.3335   -0.9907    0.0000 H   0  0  0  0  0  0  0  0  0  0  0  0
    3.3335   -3.9406    0.0000 H   0  0  0  0  0  0  0  0  0  0  0  0
    4.1306   -3.9406    0.0000 H   0  0  0  0  0  0  0  0  0  0  0  0
    2.6540   -1.3830    0.0000 H   0  0  0  0  0  0  0  0  0  0  0  0
    2.2554   -2.0733    0.0000 H   0  0  0  0  0  0  0  0  0  0  0  0
    4.9272   -0.1556    0.0000 H   0  0  0  0  0  0  0  0  0  0  0  0
    1.6900   -2.9287    0.0000 H   0  0  0  0  0  0  0  0  0  0  0  0
    1.4631   -3.7756    0.0000 H   0  0  0  0  0  0  0  0  0  0  0  0
    2.3100   -4.0026    0.0000 H   0  0  0  0  0  0  0  0  0  0  0  0
    8.3350    0.4284    0.0000 H   0  0  0  0  0  0  0  0  0  0  0  0
    9.3460   -0.9656    0.0000 H   0  0  0  0  0  0  0  0  0  0  0  0
    8.1499   -3.7588    0.0000 H   0  0  0  0  0  0  0  0  0  0  0  0
    8.7431   -4.2911    0.0000 H   0  0  0  0  0  0  0  0  0  0  0  0
   10.3560   -3.7903    0.0000 H   0  0  0  0  0  0  0  0  0  0  0  0
    9.7628   -3.2580    0.0000 H   0  0  0  0  0  0  0  0  0  0  0  0
    7.7331    1.2244    0.0000 H   0  0  0  0  0  0  0  0  0  0  0  0
    4.9272    1.2244    0.0000 H   0  0  0  0  0  0  0  0  0  0  0  0
    7.7331    2.8444    0.0000 H   0  0  0  0  0  0  0  0  0  0  0  0
    4.9272    2.8444    0.0000 H   0  0  0  0  0  0  0  0  0  0  0  0
   10.9035   -5.6410    0.0000 H   0  0  0  0  0  0  0  0  0  0  0  0
   11.6380   -5.1622    0.0000 H   0  0  0  0  0  0  0  0  0  0  0  0
   11.1592   -4.4277    0.0000 H   0  0  0  0  0  0  0  0  0  0  0  0
  1  5  2  0  0  0  0
  1  6  2  0  0  0  0
  1 10  1  0  0  0  0
  1 25  1  0  0  0  0
  2 32  1  0  0  0  0
  3 32  1  0  0  0  0
  4 32  1  0  0  0  0
  7 26  1  0  0  0  0
  7 33  1  0  0  0  0
  8 12  1  0  0  0  0
  8 13  1  0  0  0  0
  8 16  1  0  0  0  0
  9 14  1  0  0  0  0
  9 15  1  0  0  0  0
  9 21  1  0  0  0  0
 10 17  1  0  0  0  0
 10 23  1  0  0  0  0
 11 16  2  0  0  0  0
 11 17  1  0  0  0  0
 12 14  1  0  0  0  0
 12 34  1  0  0  0  0
 12 35  1  0  0  0  0
 13 15  1  0  0  0  0
 13 36  1  0  0  0  0
 13 37  1  0  0  0  0
 14 38  1  0  0  0  0
 14 39  1  0  0  0  0
 15 40  1  0  0  0  0
 15 41  1  0  0  0  0
 16 20  1  0  0  0  0
 17 18  2  0  0  0  0
 18 19  1  0  0  0  0
 18 22  1  0  0  0  0
 19 20  2  0  0  0  0
 19 24  1  0  0  0  0
 20 42  1  0  0  0  0
 21 43  1  0  0  0  0
 21 44  1  0  0  0  0
 21 45  1  0  0  0  0
 22 23  2  0  0  0  0
 22 46  1  0  0  0  0
 23 47  1  0  0  0  0
 24 27  2  0  0  0  0
 24 28  1  0  0  0  0
 25 26  1  0  0  0  0
 25 48  1  0  0  0  0
 25 49  1  0  0  0  0
 26 50  1  0  0  0  0
 26 51  1  0  0  0  0
 27 29  1  0  0  0  0
 27 52  1  0  0  0  0
 28 30  2  0  0  0  0
 28 53  1  0  0  0  0
 29 31  2  0  0  0  0
 29 54  1  0  0  0  0
 30 31  1  0  0  0  0
 30 55  1  0  0  0  0
 31 32  1  0  0  0  0
 33 56  1  0  0  0  0
 33 57  1  0  0  0  0
 33 58  1  0  0  0  0
M  END
> <PUBCHEM_COMPOUND_CID>
127047538

> <PUBCHEM_COMPOUND_CANONICALIZED>
1

> <PUBCHEM_CACTVS_COMPLEXITY>
747

> <PUBCHEM_CACTVS_HBOND_ACCEPTOR>
9

> <PUBCHEM_CACTVS_HBOND_DONOR>
0

> <PUBCHEM_CACTVS_ROTATABLE_BOND>
6

> <PUBCHEM_CACTVS_SUBSKEYS>
AAADceB7sYBAAAAAAAAAAAAAAAAAAWAAAAA8WIAAAAAAAFgB/AAAHwQAQAAADADl2xa/sN8IFAKgAjJnZHDCgCkxAqAJ2CA4ZJiIaOLAmZGUIAhogALIyCcQgMAOwAAAAAAAAACAAAAAAAAAAAAAAAAAAA==

> <PUBCHEM_IUPAC_OPENEYE_NAME>
1-(2-methoxyethylsulfonyl)-6-(4-methylpiperazin-1-yl)-4-[4-(trifluoromethyl)phenyl]pyrrolo[2,3-b]pyridine

> <PUBCHEM_IUPAC_CAS_NAME>
1-(2-methoxyethylsulfonyl)-6-(4-methyl-1-piperazinyl)-4-[4-(trifluoromethyl)phenyl]pyrrolo[2,3-b]pyridine

> <PUBCHEM_IUPAC_NAME_MARKUP>
1-(2-methoxyethylsulfonyl)-6-(4-methylpiperazin-1-yl)-4-[4-(trifluoromethyl)phenyl]pyrrolo[2,3-b]pyridine

> <PUBCHEM_IUPAC_NAME>
1-(2-methoxyethylsulfonyl)-6-(4-methylpiperazin-1-yl)-4-[4-(trifluoromethyl)phenyl]pyrrolo[2,3-b]pyridine

> <PUBCHEM_IUPAC_SYSTEMATIC_NAME>
1-(2-methoxyethylsulfonyl)-6-(4-methylpiperazin-1-yl)-4-[4-(trifluoromethyl)phenyl]pyrrolo[2,3-b]pyridine

> <PUBCHEM_IUPAC_TRADITIONAL_NAME>
1-(2-methoxyethylsulfonyl)-6-(4-methylpiperazino)-4-[4-(trifluoromethyl)phenyl]pyrrolo[2,3-b]pyridine

> <PUBCHEM_IUPAC_INCHI>
InChI=1S/C22H25F3N4O3S/c1-27-9-11-28(12-10-27)20-15-19(16-3-5-17(6-4-16)22(23,24)25)18-7-8-29(21(18)26-20)33(30,31)14-13-32-2/h3-8,15H,9-14H2,1-2H3

> <PUBCHEM_IUPAC_INCHIKEY>
SSZMVCXZZWIPDF-UHFFFAOYSA-N

> <PUBCHEM_XLOGP3_AA>
3.6

> <PUBCHEM_EXACT_MASS>
482.15994633

> <PUBCHEM_MOLECULAR_FORMULA>
C22H25F3N4O3S

> <PUBCHEM_MOLECULAR_WEIGHT>
482.5

> <PUBCHEM_OPENEYE_CAN_SMILES>
CN1CCN(CC1)C2=NC3=C(C=CN3S(=O)(=O)CCOC)C(=C2)C4=CC=C(C=C4)C(F)(F)F

> <PUBCHEM_OPENEYE_ISO_SMILES>
CN1CCN(CC1)C2=NC3=C(C=CN3S(=O)(=O)CCOC)C(=C2)C4=CC=C(C=C4)C(F)(F)F

> <PUBCHEM_CACTVS_TPSA>
76

> <PUBCHEM_MONOISOTOPIC_WEIGHT>
482.15994633

> <PUBCHEM_TOTAL_CHARGE>
0

> <PUBCHEM_HEAVY_ATOM_COUNT>
33

> <PUBCHEM_ATOM_DEF_STEREO_COUNT>
0

> <PUBCHEM_ATOM_UDEF_STEREO_COUNT>
0

> <PUBCHEM_BOND_DEF_STEREO_COUNT>
0

> <PUBCHEM_BOND_UDEF_STEREO_COUNT>
0

> <PUBCHEM_ISOTOPIC_ATOM_COUNT>
0

> <PUBCHEM_COMPONENT_COUNT>
1

> <PUBCHEM_CACTVS_TAUTO_COUNT>
-1

> <PUBCHEM_COORDINATE_TYPE>
1
5
255

> <PUBCHEM_BONDANNOTATIONS>
10  17  8
10  23  8
11  16  8
11  17  8
16  20  8
17  18  8
18  19  8
18  22  8
19  20  8
22  23  8
24  27  8
24  28  8
27  29  8
28  30  8
29  31  8
30  31  8

$$$$
