122179561
  -OEChem-09292322002D

 60 61  0     1  0  0  0  0  0999 V2000
    3.7320    4.0140    0.0000 O   0  0  0  0  0  0  0  0  0  0  0  0
   10.5920   -3.9860    0.0000 O   0  0  0  0  0  0  0  0  0  0  0  0
    2.8660    2.5140    0.0000 O   0  0  0  0  0  0  0  0  0  0  0  0
    6.3301   -0.4860    0.0000 N   0  0  3  0  0  0  0  0  0  0  0  0
    9.0084   -4.7907    0.0000 N   0  0  0  0  0  0  0  0  0  0  0  0
    4.5981    2.5140    0.0000 N   0  0  0  0  0  0  0  0  0  0  0  0
    6.3301   -1.4860    0.0000 C   0  0  0  0  0  0  0  0  0  0  0  0
    7.1962   -1.9860    0.0000 C   0  0  0  0  0  0  0  0  0  0  0  0
    5.4641    0.0140    0.0000 C   0  0  0  0  0  0  0  0  0  0  0  0
    7.1962    0.0140    0.0000 C   0  0  0  0  0  0  0  0  0  0  0  0
    7.1962   -2.9860    0.0000 C   0  0  0  0  0  0  0  0  0  0  0  0
    8.0622   -3.4860    0.0000 C   0  0  0  0  0  0  0  0  0  0  0  0
    5.4641    1.0140    0.0000 C   0  0  0  0  0  0  0  0  0  0  0  0
    9.0084   -3.1812    0.0000 C   0  0  0  0  0  0  0  0  0  0  0  0
    7.1962    1.0140    0.0000 C   0  0  0  0  0  0  0  0  0  0  0  0
    8.0622   -4.4860    0.0000 C   0  0  0  0  0  0  0  0  0  0  0  0
    4.5981    1.5140    0.0000 C   0  0  0  0  0  0  0  0  0  0  0  0
    6.3301   -3.4860    0.0000 C   0  0  0  0  0  0  0  0  0  0  0  0
    9.5920   -3.9860    0.0000 C   0  0  0  0  0  0  0  0  0  0  0  0
    7.1962   -4.9860    0.0000 C   0  0  0  0  0  0  0  0  0  0  0  0
    6.3301   -4.4860    0.0000 C   0  0  0  0  0  0  0  0  0  0  0  0
    8.0622    1.5140    0.0000 C   0  0  0  0  0  0  0  0  0  0  0  0
    2.8660    4.5140    0.0000 C   0  0  0  0  0  0  0  0  0  0  0  0
    3.7320    3.0140    0.0000 C   0  0  0  0  0  0  0  0  0  0  0  0
    2.0000    5.0140    0.0000 C   0  0  0  0  0  0  0  0  0  0  0  0
    3.3660    5.3800    0.0000 C   0  0  0  0  0  0  0  0  0  0  0  0
    2.3660    3.6480    0.0000 C   0  0  0  0  0  0  0  0  0  0  0  0
    5.7196   -1.3783    0.0000 H   0  0  0  0  0  0  0  0  0  0  0  0
    6.1181   -2.0686    0.0000 H   0  0  0  0  0  0  0  0  0  0  0  0
    7.8067   -2.0936    0.0000 H   0  0  0  0  0  0  0  0  0  0  0  0
    7.4082   -1.4034    0.0000 H   0  0  0  0  0  0  0  0  0  0  0  0
    4.8535    0.1217    0.0000 H   0  0  0  0  0  0  0  0  0  0  0  0
    5.2520   -0.5686    0.0000 H   0  0  0  0  0  0  0  0  0  0  0  0
    7.4082   -0.5686    0.0000 H   0  0  0  0  0  0  0  0  0  0  0  0
    7.8067    0.1217    0.0000 H   0  0  0  0  0  0  0  0  0  0  0  0
    6.0747    0.9064    0.0000 H   0  0  0  0  0  0  0  0  0  0  0  0
    5.6762    1.5966    0.0000 H   0  0  0  0  0  0  0  0  0  0  0  0
    9.5458   -2.8720    0.0000 H   0  0  0  0  0  0  0  0  0  0  0  0
    8.7574   -2.6144    0.0000 H   0  0  0  0  0  0  0  0  0  0  0  0
    6.9841    1.5966    0.0000 H   0  0  0  0  0  0  0  0  0  0  0  0
    6.5856    0.9064    0.0000 H   0  0  0  0  0  0  0  0  0  0  0  0
    3.9875    1.6217    0.0000 H   0  0  0  0  0  0  0  0  0  0  0  0
    4.3860    0.9314    0.0000 H   0  0  0  0  0  0  0  0  0  0  0  0
    5.7932   -3.1760    0.0000 H   0  0  0  0  0  0  0  0  0  0  0  0
    9.2010   -5.3800    0.0000 H   0  0  0  0  0  0  0  0  0  0  0  0
    7.1962   -5.6060    0.0000 H   0  0  0  0  0  0  0  0  0  0  0  0
    5.7932   -4.7960    0.0000 H   0  0  0  0  0  0  0  0  0  0  0  0
    8.3722    0.9771    0.0000 H   0  0  0  0  0  0  0  0  0  0  0  0
    8.5991    1.8240    0.0000 H   0  0  0  0  0  0  0  0  0  0  0  0
    7.7522    2.0510    0.0000 H   0  0  0  0  0  0  0  0  0  0  0  0
    5.1350    2.8240    0.0000 H   0  0  0  0  0  0  0  0  0  0  0  0
    2.3100    5.5510    0.0000 H   0  0  0  0  0  0  0  0  0  0  0  0
    1.4631    5.3240    0.0000 H   0  0  0  0  0  0  0  0  0  0  0  0
    1.6900    4.4771    0.0000 H   0  0  0  0  0  0  0  0  0  0  0  0
    3.9030    5.0700    0.0000 H   0  0  0  0  0  0  0  0  0  0  0  0
    3.6760    5.9170    0.0000 H   0  0  0  0  0  0  0  0  0  0  0  0
    2.8291    5.6900    0.0000 H   0  0  0  0  0  0  0  0  0  0  0  0
    1.8291    3.9580    0.0000 H   0  0  0  0  0  0  0  0  0  0  0  0
    2.0560    3.1110    0.0000 H   0  0  0  0  0  0  0  0  0  0  0  0
    2.9030    3.3380    0.0000 H   0  0  0  0  0  0  0  0  0  0  0  0
  1 23  1  0  0  0  0
  1 24  1  0  0  0  0
  2 19  2  0  0  0  0
  3 24  2  0  0  0  0
  4  7  1  0  0  0  0
  4  9  1  0  0  0  0
  4 10  1  0  0  0  0
  5 16  1  0  0  0  0
  5 19  1  0  0  0  0
  5 45  1  0  0  0  0
  6 17  1  0  0  0  0
  6 24  1  0  0  0  0
  6 51  1  0  0  0  0
  7  8  1  0  0  0  0
  7 28  1  0  0  0  0
  7 29  1  0  0  0  0
  8 11  1  0  0  0  0
  8 30  1  0  0  0  0
  8 31  1  0  0  0  0
  9 13  1  0  0  0  0
  9 32  1  0  0  0  0
  9 33  1  0  0  0  0
 10 15  1  0  0  0  0
 10 34  1  0  0  0  0
 10 35  1  0  0  0  0
 11 12  2  0  0  0  0
 11 18  1  0  0  0  0
 12 14  1  0  0  0  0
 12 16  1  0  0  0  0
 13 17  1  0  0  0  0
 13 36  1  0  0  0  0
 13 37  1  0  0  0  0
 14 19  1  0  0  0  0
 14 38  1  0  0  0  0
 14 39  1  0  0  0  0
 15 22  1  0  0  0  0
 15 40  1  0  0  0  0
 15 41  1  0  0  0  0
 16 20  2  0  0  0  0
 17 42  1  0  0  0  0
 17 43  1  0  0  0  0
 18 21  2  0  0  0  0
 18 44  1  0  0  0  0
 20 21  1  0  0  0  0
 20 46  1  0  0  0  0
 21 47  1  0  0  0  0
 22 48  1  0  0  0  0
 22 49  1  0  0  0  0
 22 50  1  0  0  0  0
 23 25  1  0  0  0  0
 23 26  1  0  0  0  0
 23 27  1  0  0  0  0
 25 52  1  0  0  0  0
 25 53  1  0  0  0  0
 25 54  1  0  0  0  0
 26 55  1  0  0  0  0
 26 56  1  0  0  0  0
 26 57  1  0  0  0  0
 27 58  1  0  0  0  0
 27 59  1  0  0  0  0
 27 60  1  0  0  0  0
M  END
> <PUBCHEM_COMPOUND_CID>
122179561

> <PUBCHEM_COMPOUND_CANONICALIZED>
1

> <PUBCHEM_CACTVS_COMPLEXITY>
490

> <PUBCHEM_CACTVS_HBOND_ACCEPTOR>
4

> <PUBCHEM_CACTVS_HBOND_DONOR>
2

> <PUBCHEM_CACTVS_ROTATABLE_BOND>
11

> <PUBCHEM_CACTVS_SUBSKEYS>
AAADcfB7MAAAAAAAAAAAAAAAAAAAAWAAAAAwAAAAAAAAAFgBAAAAHgAQAAAADEzBmAQyyIPABACIAiVSWACCAAAhAgAIiIEIZIkIIDLA1ZGMIAhglgDIyAcciICOgAAAQAASAAAAAACAACQAAAAAAAAAAA==

> <PUBCHEM_IUPAC_OPENEYE_NAME>
tert-butyl N-[3-[2-(2-oxoindolin-4-yl)ethyl-propyl-amino]propyl]carbamate

> <PUBCHEM_IUPAC_CAS_NAME>
N-[3-[2-(2-oxo-1,3-dihydroindol-4-yl)ethyl-propylamino]propyl]carbamic acid tert-butyl ester

> <PUBCHEM_IUPAC_NAME_MARKUP>
<I>tert</I>-butyl <I>N</I>-[3-[2-(2-oxo-1,3-dihydroindol-4-yl)ethyl-propylamino]propyl]carbamate

> <PUBCHEM_IUPAC_NAME>
tert-butyl N-[3-[2-(2-oxo-1,3-dihydroindol-4-yl)ethyl-propylamino]propyl]carbamate

> <PUBCHEM_IUPAC_SYSTEMATIC_NAME>
tert-butyl N-[3-[2-(2-oxidanylidene-1,3-dihydroindol-4-yl)ethyl-propyl-amino]propyl]carbamate

> <PUBCHEM_IUPAC_TRADITIONAL_NAME>
N-[3-[2-(2-ketoindolin-4-yl)ethyl-propyl-amino]propyl]carbamic acid tert-butyl ester

> <PUBCHEM_IUPAC_INCHI>
InChI=1S/C21H33N3O3/c1-5-12-24(13-7-11-22-20(26)27-21(2,3)4)14-10-16-8-6-9-18-17(16)15-19(25)23-18/h6,8-9H,5,7,10-15H2,1-4H3,(H,22,26)(H,23,25)

> <PUBCHEM_IUPAC_INCHIKEY>
TZNPVAAHDJDERS-UHFFFAOYSA-N

> <PUBCHEM_XLOGP3>
2.9

> <PUBCHEM_EXACT_MASS>
375.25219192

> <PUBCHEM_MOLECULAR_FORMULA>
C21H33N3O3

> <PUBCHEM_MOLECULAR_WEIGHT>
375.5

> <PUBCHEM_OPENEYE_CAN_SMILES>
CCCN(CCCNC(=O)OC(C)(C)C)CCC1=C2CC(=O)NC2=CC=C1

> <PUBCHEM_OPENEYE_ISO_SMILES>
CCCN(CCCNC(=O)OC(C)(C)C)CCC1=C2CC(=O)NC2=CC=C1

> <PUBCHEM_CACTVS_TPSA>
70.7

> <PUBCHEM_MONOISOTOPIC_WEIGHT>
375.25219192

> <PUBCHEM_TOTAL_CHARGE>
0

> <PUBCHEM_HEAVY_ATOM_COUNT>
27

> <PUBCHEM_ATOM_DEF_STEREO_COUNT>
0

> <PUBCHEM_ATOM_UDEF_STEREO_COUNT>
0

> <PUBCHEM_BOND_DEF_STEREO_COUNT>
0

> <PUBCHEM_BOND_UDEF_STEREO_COUNT>
0

> <PUBCHEM_ISOTOPIC_ATOM_COUNT>
0

> <PUBCHEM_COMPONENT_COUNT>
1

> <PUBCHEM_CACTVS_TAUTO_COUNT>
-1

> <PUBCHEM_COORDINATE_TYPE>
1
5
255

> <PUBCHEM_BONDANNOTATIONS>
11  12  8
11  18  8
12  16  8
16  20  8
18  21  8
20  21  8

$$$$
