127034966
  -OEChem-09292322022D

 40 41  0     1  0  0  0  0  0999 V2000
    4.5574    0.2303    0.0000 O   0  0  0  0  0  0  0  0  0  0  0  0
    4.5806   -1.7696    0.0000 O   0  0  0  0  0  0  0  0  0  0  0  0
    2.8602   -2.7896    0.0000 N   0  0  0  0  0  0  0  0  0  0  0  0
    6.3058    1.2649    0.0000 N   0  0  0  0  0  0  0  0  0  0  0  0
    3.7088   -1.2796    0.0000 C   0  0  3  0  0  0  0  0  0  0  0  0
    2.8486   -1.7896    0.0000 C   0  0  0  0  0  0  0  0  0  0  0  0
    3.6972   -0.2797    0.0000 C   0  0  0  0  0  0  0  0  0  0  0  0
    5.4398    1.7649    0.0000 C   0  0  0  0  0  0  0  0  0  0  0  0
    4.5459    1.2302    0.0000 C   0  0  0  0  0  0  0  0  0  0  0  0
    5.4398    2.7649    0.0000 C   0  0  0  0  0  0  0  0  0  0  0  0
    3.6398    1.7441    0.0000 C   0  0  0  0  0  0  0  0  0  0  0  0
    2.0000   -3.2995    0.0000 C   0  0  0  0  0  0  0  0  0  0  0  0
    3.7319   -3.2795    0.0000 C   0  0  0  0  0  0  0  0  0  0  0  0
    6.3058    3.2649    0.0000 C   0  0  0  0  0  0  0  0  0  0  0  0
    4.5459    3.2995    0.0000 C   0  0  0  0  0  0  0  0  0  0  0  0
    7.1719    2.7649    0.0000 C   0  0  0  0  0  0  0  0  0  0  0  0
    3.6398    2.7857    0.0000 C   0  0  0  0  0  0  0  0  0  0  0  0
    8.0379    1.2649    0.0000 C   0  0  0  0  0  0  0  0  0  0  0  0
    7.1719    1.7649    0.0000 B   0  0  0  0  0  0  0  0  0  0  0  0
    4.2421   -0.9634    0.0000 H   0  0  0  0  0  0  0  0  0  0  0  0
    2.6298   -1.2095    0.0000 H   0  0  0  0  0  0  0  0  0  0  0  0
    2.2393   -1.9043    0.0000 H   0  0  0  0  0  0  0  0  0  0  0  0
    3.4785    0.3004    0.0000 H   0  0  0  0  0  0  0  0  0  0  0  0
    3.0880   -0.3944    0.0000 H   0  0  0  0  0  0  0  0  0  0  0  0
    6.3058    0.6449    0.0000 H   0  0  0  0  0  0  0  0  0  0  0  0
    3.1041    1.4320    0.0000 H   0  0  0  0  0  0  0  0  0  0  0  0
    1.6838   -2.7662    0.0000 H   0  0  0  0  0  0  0  0  0  0  0  0
    1.4667   -3.6157    0.0000 H   0  0  0  0  0  0  0  0  0  0  0  0
    2.3162   -3.8328    0.0000 H   0  0  0  0  0  0  0  0  0  0  0  0
    3.4282   -3.8200    0.0000 H   0  0  0  0  0  0  0  0  0  0  0  0
    4.2724   -3.5833    0.0000 H   0  0  0  0  0  0  0  0  0  0  0  0
    4.0357   -2.7390    0.0000 H   0  0  0  0  0  0  0  0  0  0  0  0
    6.3058    3.8849    0.0000 H   0  0  0  0  0  0  0  0  0  0  0  0
    4.5530    3.9195    0.0000 H   0  0  0  0  0  0  0  0  0  0  0  0
    7.7088    3.0749    0.0000 H   0  0  0  0  0  0  0  0  0  0  0  0
    3.1041    3.0978    0.0000 H   0  0  0  0  0  0  0  0  0  0  0  0
    4.5877   -2.3896    0.0000 H   0  0  0  0  0  0  0  0  0  0  0  0
    7.7279    0.7279    0.0000 H   0  0  0  0  0  0  0  0  0  0  0  0
    8.5748    0.9549    0.0000 H   0  0  0  0  0  0  0  0  0  0  0  0
    8.3479    1.8018    0.0000 H   0  0  0  0  0  0  0  0  0  0  0  0
  1  7  1  0  0  0  0
  1  9  1  0  0  0  0
  2  5  1  0  0  0  0
  2 37  1  0  0  0  0
  3  6  1  0  0  0  0
  3 12  1  0  0  0  0
  3 13  1  0  0  0  0
  4  8  1  0  0  0  0
  4 19  1  0  0  0  0
  4 25  1  0  0  0  0
  5  6  1  0  0  0  0
  5  7  1  0  0  0  0
  5 20  1  0  0  0  0
  6 21  1  0  0  0  0
  6 22  1  0  0  0  0
  7 23  1  0  0  0  0
  7 24  1  0  0  0  0
  8  9  1  0  0  0  0
  8 10  2  0  0  0  0
  9 11  2  0  0  0  0
 10 14  1  0  0  0  0
 10 15  1  0  0  0  0
 11 17  1  0  0  0  0
 11 26  1  0  0  0  0
 12 27  1  0  0  0  0
 12 28  1  0  0  0  0
 12 29  1  0  0  0  0
 13 30  1  0  0  0  0
 13 31  1  0  0  0  0
 13 32  1  0  0  0  0
 14 16  2  0  0  0  0
 14 33  1  0  0  0  0
 15 17  2  0  0  0  0
 15 34  1  0  0  0  0
 16 19  1  0  0  0  0
 16 35  1  0  0  0  0
 17 36  1  0  0  0  0
 18 19  1  0  0  0  0
 18 38  1  0  0  0  0
 18 39  1  0  0  0  0
 18 40  1  0  0  0  0
M  END
> <PUBCHEM_COMPOUND_CID>
127034966

> <PUBCHEM_COMPOUND_CANONICALIZED>
1

> <PUBCHEM_CACTVS_COMPLEXITY>
312

> <PUBCHEM_CACTVS_HBOND_ACCEPTOR>
4

> <PUBCHEM_CACTVS_HBOND_DONOR>
2

> <PUBCHEM_CACTVS_ROTATABLE_BOND>
5

> <PUBCHEM_CACTVS_SUBSKEYS>
AAADceJzMAAAAAAAAAAAAAAAAAAAAAAAAAAwQAAAAAAAAACBAAAwHgAQCAAADBzhmAYyxoNABgCAAiRCQACCCAAgIAAIiAAPTIgPNiKEsZuHOCDmwBEb6AeQwBAOAAABAAACEAAAAAIAAAQgAAAAAAAAAA==

> <PUBCHEM_IUPAC_OPENEYE_NAME>
1-(dimethylamino)-3-[(2-methyl-1H-1,2-benzazaborinin-8-yl)oxy]propan-2-ol

> <PUBCHEM_IUPAC_CAS_NAME>
1-(dimethylamino)-3-[(2-methyl-1H-1,2-benzazaborin-8-yl)oxy]-2-propanol

> <PUBCHEM_IUPAC_NAME_MARKUP>
1-(dimethylamino)-3-[(2-methyl-1<I>H</I>-1,2-benzazaborinin-8-yl)oxy]propan-2-ol

> <PUBCHEM_IUPAC_NAME>
1-(dimethylamino)-3-[(2-methyl-1H-1,2-benzazaborinin-8-yl)oxy]propan-2-ol

> <PUBCHEM_IUPAC_SYSTEMATIC_NAME>
1-(dimethylamino)-3-[(2-methyl-1H-1,2-benzazaborinin-8-yl)oxy]propan-2-ol

> <PUBCHEM_IUPAC_TRADITIONAL_NAME>
1-(dimethylamino)-3-[(2-methyl-1H-1,2-benzazaborin-8-yl)oxy]propan-2-ol

> <PUBCHEM_IUPAC_INCHI>
InChI=1S/C14H21BN2O2/c1-15-8-7-11-5-4-6-13(14(11)16-15)19-10-12(18)9-17(2)3/h4-8,12,16,18H,9-10H2,1-3H3

> <PUBCHEM_IUPAC_INCHIKEY>
CCSPGLLRANVKRG-UHFFFAOYSA-N

> <PUBCHEM_EXACT_MASS>
260.1696081

> <PUBCHEM_MOLECULAR_FORMULA>
C14H21BN2O2

> <PUBCHEM_MOLECULAR_WEIGHT>
260.14

> <PUBCHEM_OPENEYE_CAN_SMILES>
B1(C=CC2=C(N1)C(=CC=C2)OCC(CN(C)C)O)C

> <PUBCHEM_OPENEYE_ISO_SMILES>
B1(C=CC2=C(N1)C(=CC=C2)OCC(CN(C)C)O)C

> <PUBCHEM_CACTVS_TPSA>
44.7

> <PUBCHEM_MONOISOTOPIC_WEIGHT>
260.1696081

> <PUBCHEM_TOTAL_CHARGE>
0

> <PUBCHEM_HEAVY_ATOM_COUNT>
19

> <PUBCHEM_ATOM_DEF_STEREO_COUNT>
0

> <PUBCHEM_ATOM_UDEF_STEREO_COUNT>
1

> <PUBCHEM_BOND_DEF_STEREO_COUNT>
0

> <PUBCHEM_BOND_UDEF_STEREO_COUNT>
0

> <PUBCHEM_ISOTOPIC_ATOM_COUNT>
0

> <PUBCHEM_COMPONENT_COUNT>
1

> <PUBCHEM_CACTVS_TAUTO_COUNT>
-1

> <PUBCHEM_COORDINATE_TYPE>
1
5
255

> <PUBCHEM_BONDANNOTATIONS>
10  15  8
11  17  8
15  17  8
5  2  3
8  10  8
8  9  8
9  11  8

$$$$
