164916911
  -OEChem-09292322442D

 71 74  0     1  0  0  0  0  0999 V2000
    2.0000   -4.7990    0.0000 Cl  0  0  0  0  0  0  0  0  0  0  0  0
    2.0000   -6.7990    0.0000 Cl  0  0  0  0  0  0  0  0  0  0  0  0
    5.4641   -0.7990    0.0000 O   0  0  0  0  0  0  0  0  0  0  0  0
    3.7320   -1.7990    0.0000 N   0  0  0  0  0  0  0  0  0  0  0  0
    3.7320   -3.7990    0.0000 N   0  0  0  0  0  0  0  0  0  0  0  0
    5.4641    2.2010    0.0000 N   0  0  0  0  0  0  0  0  0  0  0  0
    8.1962    2.4689    0.0000 N   0  0  0  0  0  0  0  0  0  0  0  0
    4.5981   -2.2990    0.0000 C   0  0  0  0  0  0  0  0  0  0  0  0
    2.8660   -2.2990    0.0000 C   0  0  0  0  0  0  0  0  0  0  0  0
    3.7320   -0.7990    0.0000 C   0  0  0  0  0  0  0  0  0  0  0  0
    4.5981   -3.2990    0.0000 C   0  0  0  0  0  0  0  0  0  0  0  0
    2.8660   -3.2990    0.0000 C   0  0  0  0  0  0  0  0  0  0  0  0
    4.5981   -0.2990    0.0000 C   0  0  3  0  0  0  0  0  0  0  0  0
    4.5981    0.7010    0.0000 C   0  0  0  0  0  0  0  0  0  0  0  0
    5.4641    1.2010    0.0000 C   0  0  0  0  0  0  0  0  0  0  0  0
    3.7320   -4.7990    0.0000 C   0  0  0  0  0  0  0  0  0  0  0  0
    7.1962    4.2010    0.0000 C   0  0  0  0  0  0  0  0  0  0  0  0
    6.3301    3.7010    0.0000 C   0  0  0  0  0  0  0  0  0  0  0  0
    6.3301    2.7010    0.0000 C   0  0  0  0  0  0  0  0  0  0  0  0
    8.0622    4.7010    0.0000 C   0  0  0  0  0  0  0  0  0  0  0  0
    6.6962    5.0670    0.0000 C   0  0  0  0  0  0  0  0  0  0  0  0
    2.8660   -5.2990    0.0000 C   0  0  0  0  0  0  0  0  0  0  0  0
    4.5981   -5.2990    0.0000 C   0  0  0  0  0  0  0  0  0  0  0  0
    7.6962    3.3349    0.0000 C   0  0  0  0  0  0  0  0  0  0  0  0
    2.8660   -6.2990    0.0000 C   0  0  0  0  0  0  0  0  0  0  0  0
    4.5981   -6.2990    0.0000 C   0  0  0  0  0  0  0  0  0  0  0  0
    8.0622    5.7010    0.0000 C   0  0  0  0  0  0  0  0  0  0  0  0
    5.6962    5.0670    0.0000 C   0  0  0  0  0  0  0  0  0  0  0  0
    8.9282    4.2010    0.0000 C   0  0  0  0  0  0  0  0  0  0  0  0
    7.1962    5.9330    0.0000 C   0  0  0  0  0  0  0  0  0  0  0  0
    3.7320   -6.7990    0.0000 C   0  0  0  0  0  0  0  0  0  0  0  0
    8.9282    6.2010    0.0000 C   0  0  0  0  0  0  0  0  0  0  0  0
    5.1962    5.9330    0.0000 C   0  0  0  0  0  0  0  0  0  0  0  0
    9.7942    4.7010    0.0000 C   0  0  0  0  0  0  0  0  0  0  0  0
    6.6962    6.7990    0.0000 C   0  0  0  0  0  0  0  0  0  0  0  0
    9.7942    5.7010    0.0000 C   0  0  0  0  0  0  0  0  0  0  0  0
    5.6962    6.7990    0.0000 C   0  0  0  0  0  0  0  0  0  0  0  0
    5.2087   -2.4067    0.0000 H   0  0  0  0  0  0  0  0  0  0  0  0
    4.8101   -1.7164    0.0000 H   0  0  0  0  0  0  0  0  0  0  0  0
    2.6540   -1.7164    0.0000 H   0  0  0  0  0  0  0  0  0  0  0  0
    2.2554   -2.4067    0.0000 H   0  0  0  0  0  0  0  0  0  0  0  0
    3.5200   -0.2164    0.0000 H   0  0  0  0  0  0  0  0  0  0  0  0
    3.1215   -0.9067    0.0000 H   0  0  0  0  0  0  0  0  0  0  0  0
    4.8101   -3.8816    0.0000 H   0  0  0  0  0  0  0  0  0  0  0  0
    5.2087   -3.1914    0.0000 H   0  0  0  0  0  0  0  0  0  0  0  0
    2.2554   -3.1914    0.0000 H   0  0  0  0  0  0  0  0  0  0  0  0
    2.6540   -3.8816    0.0000 H   0  0  0  0  0  0  0  0  0  0  0  0
    4.5981   -0.9190    0.0000 H   0  0  0  0  0  0  0  0  0  0  0  0
    4.3860    1.2836    0.0000 H   0  0  0  0  0  0  0  0  0  0  0  0
    3.9875    0.5933    0.0000 H   0  0  0  0  0  0  0  0  0  0  0  0
    5.6762    0.6184    0.0000 H   0  0  0  0  0  0  0  0  0  0  0  0
    6.0747    1.3086    0.0000 H   0  0  0  0  0  0  0  0  0  0  0  0
    6.1181    4.2836    0.0000 H   0  0  0  0  0  0  0  0  0  0  0  0
    5.7196    3.5933    0.0000 H   0  0  0  0  0  0  0  0  0  0  0  0
    6.5422    2.1184    0.0000 H   0  0  0  0  0  0  0  0  0  0  0  0
    6.9407    2.8086    0.0000 H   0  0  0  0  0  0  0  0  0  0  0  0
    4.9272    2.5110    0.0000 H   0  0  0  0  0  0  0  0  0  0  0  0
    6.0010   -0.4890    0.0000 H   0  0  0  0  0  0  0  0  0  0  0  0
    5.1350   -4.9890    0.0000 H   0  0  0  0  0  0  0  0  0  0  0  0
    7.5252    6.0110    0.0000 H   0  0  0  0  0  0  0  0  0  0  0  0
    5.3862    4.5300    0.0000 H   0  0  0  0  0  0  0  0  0  0  0  0
    8.9282    3.5810    0.0000 H   0  0  0  0  0  0  0  0  0  0  0  0
    7.8162    5.9330    0.0000 H   0  0  0  0  0  0  0  0  0  0  0  0
    5.1350   -6.6090    0.0000 H   0  0  0  0  0  0  0  0  0  0  0  0
    3.7320   -7.4190    0.0000 H   0  0  0  0  0  0  0  0  0  0  0  0
    8.9282    6.8210    0.0000 H   0  0  0  0  0  0  0  0  0  0  0  0
    4.5762    5.9330    0.0000 H   0  0  0  0  0  0  0  0  0  0  0  0
   10.3312    4.3910    0.0000 H   0  0  0  0  0  0  0  0  0  0  0  0
    7.0062    7.3360    0.0000 H   0  0  0  0  0  0  0  0  0  0  0  0
   10.3312    6.0110    0.0000 H   0  0  0  0  0  0  0  0  0  0  0  0
    5.3862    7.3360    0.0000 H   0  0  0  0  0  0  0  0  0  0  0  0
  1 22  1  0  0  0  0
  2 25  1  0  0  0  0
  3 13  1  0  0  0  0
  3 58  1  0  0  0  0
  4  8  1  0  0  0  0
  4  9  1  0  0  0  0
  4 10  1  0  0  0  0
  5 11  1  0  0  0  0
  5 12  1  0  0  0  0
  5 16  1  0  0  0  0
  6 15  1  0  0  0  0
  6 19  1  0  0  0  0
  6 57  1  0  0  0  0
  7 24  3  0  0  0  0
  8 11  1  0  0  0  0
  8 38  1  0  0  0  0
  8 39  1  0  0  0  0
  9 12  1  0  0  0  0
  9 40  1  0  0  0  0
  9 41  1  0  0  0  0
 10 13  1  0  0  0  0
 10 42  1  0  0  0  0
 10 43  1  0  0  0  0
 11 44  1  0  0  0  0
 11 45  1  0  0  0  0
 12 46  1  0  0  0  0
 12 47  1  0  0  0  0
 13 14  1  0  0  0  0
 13 48  1  0  0  0  0
 14 15  1  0  0  0  0
 14 49  1  0  0  0  0
 14 50  1  0  0  0  0
 15 51  1  0  0  0  0
 15 52  1  0  0  0  0
 16 22  2  0  0  0  0
 16 23  1  0  0  0  0
 17 18  1  0  0  0  0
 17 20  1  0  0  0  0
 17 21  1  0  0  0  0
 17 24  1  0  0  0  0
 18 19  1  0  0  0  0
 18 53  1  0  0  0  0
 18 54  1  0  0  0  0
 19 55  1  0  0  0  0
 19 56  1  0  0  0  0
 20 27  2  0  0  0  0
 20 29  1  0  0  0  0
 21 28  2  0  0  0  0
 21 30  1  0  0  0  0
 22 25  1  0  0  0  0
 23 26  2  0  0  0  0
 23 59  1  0  0  0  0
 25 31  2  0  0  0  0
 26 31  1  0  0  0  0
 26 64  1  0  0  0  0
 27 32  1  0  0  0  0
 27 60  1  0  0  0  0
 28 33  1  0  0  0  0
 28 61  1  0  0  0  0
 29 34  2  0  0  0  0
 29 62  1  0  0  0  0
 30 35  2  0  0  0  0
 30 63  1  0  0  0  0
 31 65  1  0  0  0  0
 32 36  2  0  0  0  0
 32 66  1  0  0  0  0
 33 37  2  0  0  0  0
 33 67  1  0  0  0  0
 34 36  1  0  0  0  0
 34 68  1  0  0  0  0
 35 37  1  0  0  0  0
 35 69  1  0  0  0  0
 36 70  1  0  0  0  0
 37 71  1  0  0  0  0
M  END
> <PUBCHEM_COMPOUND_CID>
164916911

> <PUBCHEM_COMPOUND_CANONICALIZED>
1

> <PUBCHEM_CACTVS_COMPLEXITY>
692

> <PUBCHEM_CACTVS_HBOND_ACCEPTOR>
5

> <PUBCHEM_CACTVS_HBOND_DONOR>
2

> <PUBCHEM_CACTVS_ROTATABLE_BOND>
11

> <PUBCHEM_CACTVS_SUBSKEYS>
AAADcfB7oAAGAAAAAAAAAAAAAAAAAAAAAAA8YMEAAAAAAAABUAAAHgIQCAAADh7hmCYwwIPAAgCQBiRCQACCAAAhBwAIisAIZogK8CLBk5HUYAhikADYyA8QgMAPgAAAAAIAABQAAAAABAAAKAAAAAAAAA==

> <PUBCHEM_IUPAC_OPENEYE_NAME>
4-[[4-[4-(2,3-dichlorophenyl)piperazin-1-yl]-3-hydroxy-butyl]amino]-2,2-diphenyl-butanenitrile

> <PUBCHEM_IUPAC_CAS_NAME>
4-[[4-[4-(2,3-dichlorophenyl)-1-piperazinyl]-3-hydroxybutyl]amino]-2,2-diphenylbutanenitrile

> <PUBCHEM_IUPAC_NAME_MARKUP>
4-[[4-[4-(2,3-dichlorophenyl)piperazin-1-yl]-3-hydroxybutyl]amino]-2,2-diphenylbutanenitrile

> <PUBCHEM_IUPAC_NAME>
4-[[4-[4-(2,3-dichlorophenyl)piperazin-1-yl]-3-hydroxybutyl]amino]-2,2-diphenylbutanenitrile

> <PUBCHEM_IUPAC_SYSTEMATIC_NAME>
4-[[4-[4-[2,3-bis(chloranyl)phenyl]piperazin-1-yl]-3-oxidanyl-butyl]amino]-2,2-diphenyl-butanenitrile

> <PUBCHEM_IUPAC_TRADITIONAL_NAME>
4-[[4-[4-(2,3-dichlorophenyl)piperazino]-3-hydroxy-butyl]amino]-2,2-diphenyl-butyronitrile

> <PUBCHEM_IUPAC_INCHI>
InChI=1S/C30H34Cl2N4O/c31-27-12-7-13-28(29(27)32)36-20-18-35(19-21-36)22-26(37)14-16-34-17-15-30(23-33,24-8-3-1-4-9-24)25-10-5-2-6-11-25/h1-13,26,34,37H,14-22H2

> <PUBCHEM_IUPAC_INCHIKEY>
OVNWEDVAMBIZAQ-UHFFFAOYSA-N

> <PUBCHEM_XLOGP3_AA>
5.6

> <PUBCHEM_EXACT_MASS>
536.2109671

> <PUBCHEM_MOLECULAR_FORMULA>
C30H34Cl2N4O

> <PUBCHEM_MOLECULAR_WEIGHT>
537.5

> <PUBCHEM_OPENEYE_CAN_SMILES>
C1CN(CCN1CC(CCNCCC(C#N)(C2=CC=CC=C2)C3=CC=CC=C3)O)C4=C(C(=CC=C4)Cl)Cl

> <PUBCHEM_OPENEYE_ISO_SMILES>
C1CN(CCN1CC(CCNCCC(C#N)(C2=CC=CC=C2)C3=CC=CC=C3)O)C4=C(C(=CC=C4)Cl)Cl

> <PUBCHEM_CACTVS_TPSA>
62.5

> <PUBCHEM_MONOISOTOPIC_WEIGHT>
536.2109671

> <PUBCHEM_TOTAL_CHARGE>
0

> <PUBCHEM_HEAVY_ATOM_COUNT>
37

> <PUBCHEM_ATOM_DEF_STEREO_COUNT>
0

> <PUBCHEM_ATOM_UDEF_STEREO_COUNT>
1

> <PUBCHEM_BOND_DEF_STEREO_COUNT>
0

> <PUBCHEM_BOND_UDEF_STEREO_COUNT>
0

> <PUBCHEM_ISOTOPIC_ATOM_COUNT>
0

> <PUBCHEM_COMPONENT_COUNT>
1

> <PUBCHEM_CACTVS_TAUTO_COUNT>
-1

> <PUBCHEM_COORDINATE_TYPE>
1
5
255

> <PUBCHEM_BONDANNOTATIONS>
16  22  8
16  23  8
20  27  8
20  29  8
21  28  8
21  30  8
22  25  8
23  26  8
25  31  8
26  31  8
27  32  8
28  33  8
29  34  8
13  3  3
30  35  8
32  36  8
33  37  8
34  36  8
35  37  8

$$$$
