15115524
  -OEChem-09292322512D

 79 86  0     1  0  0  0  0  0999 V2000
   14.0679   -6.0003    0.0000 Br  0  0  0  0  0  0  0  0  0  0  0  0
    9.5920    0.2737    0.0000 S   0  0  0  0  0  0  0  0  0  0  0  0
    5.2592    2.7683    0.0000 O   0  0  0  0  0  0  0  0  0  0  0  0
    6.0682    5.3561    0.0000 O   0  0  0  0  0  0  0  0  0  0  0  0
    4.9805    1.0083    0.0000 O   0  0  0  0  0  0  0  0  0  0  0  0
   12.1566   -5.2636    0.0000 O   0  0  0  0  0  0  0  0  0  0  0  0
    2.5381    5.3803    0.0000 O   0  0  0  0  0  0  0  0  0  0  0  0
    9.5984    5.3803    0.0000 O   0  0  0  0  0  0  0  0  0  0  0  0
   14.8582   -1.1020    0.0000 N   0  0  3  0  0  0  0  0  0  0  0  0
    7.9836   -0.3690    0.0000 N   0  0  0  0  0  0  0  0  0  0  0  0
    9.3443   -1.4406    0.0000 N   0  0  0  0  0  0  0  0  0  0  0  0
    6.0682    3.3561    0.0000 C   0  0  0  0  0  0  0  0  0  0  0  0
   13.3032   -2.0125    0.0000 C   0  0  3  0  0  0  0  0  0  0  0  0
   13.8615   -1.1828    0.0000 C   0  0  0  0  0  0  0  0  0  0  0  0
    6.8773    2.7683    0.0000 C   0  0  0  0  0  0  0  0  0  0  0  0
   13.6038   -2.9663    0.0000 C   0  0  0  0  0  0  0  0  0  0  0  0
    5.2022    3.8561    0.0000 C   0  0  0  0  0  0  0  0  0  0  0  0
    6.9343    3.8561    0.0000 C   0  0  0  0  0  0  0  0  0  0  0  0
   15.5428   -1.8309    0.0000 C   0  0  0  0  0  0  0  0  0  0  0  0
   15.3998   -2.8206    0.0000 C   0  0  0  0  0  0  0  0  0  0  0  0
   14.5369   -3.3259    0.0000 C   0  0  0  0  0  0  0  0  0  0  0  0
    6.5682    1.8173    0.0000 C   0  0  0  0  0  0  0  0  0  0  0  0
   12.3135   -1.8695    0.0000 C   0  0  0  0  0  0  0  0  0  0  0  0
    5.2022    4.8561    0.0000 C   0  0  0  0  0  0  0  0  0  0  0  0
    6.9343    4.8561    0.0000 C   0  0  0  0  0  0  0  0  0  0  0  0
    5.5682    1.8173    0.0000 C   0  0  0  0  0  0  0  0  0  0  0  0
    7.8728    2.4618    0.0000 C   0  0  0  0  0  0  0  0  0  0  0  0
   12.7834   -3.6081    0.0000 C   0  0  0  0  0  0  0  0  0  0  0  0
    4.3083    3.3215    0.0000 C   0  0  0  0  0  0  0  0  0  0  0  0
    7.8282    3.3215    0.0000 C   0  0  0  0  0  0  0  0  0  0  0  0
   15.2178   -0.1689    0.0000 C   0  0  0  0  0  0  0  0  0  0  0  0
   14.7143   -4.3523    0.0000 C   0  0  0  0  0  0  0  0  0  0  0  0
    6.7691    0.7952    0.0000 C   0  0  0  0  0  0  0  0  0  0  0  0
    7.6125    0.5597    0.0000 C   0  0  0  0  0  0  0  0  0  0  0  0
   11.6948   -2.6552    0.0000 C   0  0  0  0  0  0  0  0  0  0  0  0
   11.9424   -0.9409    0.0000 C   0  0  0  0  0  0  0  0  0  0  0  0
    8.2419    1.3506    0.0000 C   0  0  0  0  0  0  0  0  0  0  0  0
    4.3083    5.3908    0.0000 C   0  0  0  0  0  0  0  0  0  0  0  0
    7.8282    5.3908    0.0000 C   0  0  0  0  0  0  0  0  0  0  0  0
   12.9370   -4.6384    0.0000 C   0  0  0  0  0  0  0  0  0  0  0  0
   13.9090   -5.0130    0.0000 C   0  0  0  0  0  0  0  0  0  0  0  0
    3.4022    3.8353    0.0000 C   0  0  0  0  0  0  0  0  0  0  0  0
    8.7343    3.8353    0.0000 C   0  0  0  0  0  0  0  0  0  0  0  0
    3.4022    4.8769    0.0000 C   0  0  0  0  0  0  0  0  0  0  0  0
    8.7343    4.8769    0.0000 C   0  0  0  0  0  0  0  0  0  0  0  0
   10.7051   -2.5122    0.0000 C   0  0  0  0  0  0  0  0  0  0  0  0
   10.9527   -0.7979    0.0000 C   0  0  0  0  0  0  0  0  0  0  0  0
   10.3340   -1.5836    0.0000 C   0  0  0  0  0  0  0  0  0  0  0  0
    8.9733   -0.5119    0.0000 C   0  0  0  0  0  0  0  0  0  0  0  0
   13.0518   -1.4458    0.0000 H   0  0  0  0  0  0  0  0  0  0  0  0
   13.9501   -0.5692    0.0000 H   0  0  0  0  0  0  0  0  0  0  0  0
   13.2829   -0.9599    0.0000 H   0  0  0  0  0  0  0  0  0  0  0  0
   16.1213   -2.0539    0.0000 H   0  0  0  0  0  0  0  0  0  0  0  0
   15.8889   -1.3165    0.0000 H   0  0  0  0  0  0  0  0  0  0  0  0
   15.5862   -3.4120    0.0000 H   0  0  0  0  0  0  0  0  0  0  0  0
   16.0178   -2.7705    0.0000 H   0  0  0  0  0  0  0  0  0  0  0  0
    8.3063    2.9050    0.0000 H   0  0  0  0  0  0  0  0  0  0  0  0
   12.2075   -3.3785    0.0000 H   0  0  0  0  0  0  0  0  0  0  0  0
    4.3154    2.7015    0.0000 H   0  0  0  0  0  0  0  0  0  0  0  0
    7.8210    2.7015    0.0000 H   0  0  0  0  0  0  0  0  0  0  0  0
   15.7963   -0.3919    0.0000 H   0  0  0  0  0  0  0  0  0  0  0  0
   15.4408    0.4096    0.0000 H   0  0  0  0  0  0  0  0  0  0  0  0
   14.6393    0.0540    0.0000 H   0  0  0  0  0  0  0  0  0  0  0  0
   15.2953   -4.5686    0.0000 H   0  0  0  0  0  0  0  0  0  0  0  0
    6.3139    0.3743    0.0000 H   0  0  0  0  0  0  0  0  0  0  0  0
   11.9248   -3.2309    0.0000 H   0  0  0  0  0  0  0  0  0  0  0  0
   12.3260   -0.4538    0.0000 H   0  0  0  0  0  0  0  0  0  0  0  0
    8.8523    1.2422    0.0000 H   0  0  0  0  0  0  0  0  0  0  0  0
    4.3154    6.0107    0.0000 H   0  0  0  0  0  0  0  0  0  0  0  0
    7.8210    6.0107    0.0000 H   0  0  0  0  0  0  0  0  0  0  0  0
    2.8665    3.5232    0.0000 H   0  0  0  0  0  0  0  0  0  0  0  0
    9.2700    3.5232    0.0000 H   0  0  0  0  0  0  0  0  0  0  0  0
   10.3215   -2.9993    0.0000 H   0  0  0  0  0  0  0  0  0  0  0  0
   10.7227   -0.2222    0.0000 H   0  0  0  0  0  0  0  0  0  0  0  0
    7.6000   -0.8560    0.0000 H   0  0  0  0  0  0  0  0  0  0  0  0
    8.9607   -1.9277    0.0000 H   0  0  0  0  0  0  0  0  0  0  0  0
   12.2504   -5.8765    0.0000 H   0  0  0  0  0  0  0  0  0  0  0  0
    2.0000    5.0724    0.0000 H   0  0  0  0  0  0  0  0  0  0  0  0
    9.5960    6.0003    0.0000 H   0  0  0  0  0  0  0  0  0  0  0  0
  1 41  1  0  0  0  0
  2 49  2  0  0  0  0
  3 12  1  0  0  0  0
  3 26  1  0  0  0  0
  4 24  1  0  0  0  0
  4 25  1  0  0  0  0
  5 26  2  0  0  0  0
  6 40  1  0  0  0  0
  6 77  1  0  0  0  0
  7 44  1  0  0  0  0
  7 78  1  0  0  0  0
  8 45  1  0  0  0  0
  8 79  1  0  0  0  0
  9 14  1  0  0  0  0
  9 19  1  0  0  0  0
  9 31  1  0  0  0  0
 10 34  1  0  0  0  0
 10 49  1  0  0  0  0
 10 75  1  0  0  0  0
 11 48  1  0  0  0  0
 11 49  1  0  0  0  0
 11 76  1  0  0  0  0
 12 15  1  0  0  0  0
 12 17  1  0  0  0  0
 12 18  1  0  0  0  0
 13 14  1  0  0  0  0
 13 16  1  0  0  0  0
 13 23  1  0  0  0  0
 13 50  1  0  0  0  0
 14 51  1  0  0  0  0
 14 52  1  0  0  0  0
 15 22  2  0  0  0  0
 15 27  1  0  0  0  0
 16 21  1  0  0  0  0
 16 28  2  0  0  0  0
 17 24  2  0  0  0  0
 17 29  1  0  0  0  0
 18 25  2  0  0  0  0
 18 30  1  0  0  0  0
 19 20  1  0  0  0  0
 19 53  1  0  0  0  0
 19 54  1  0  0  0  0
 20 21  1  0  0  0  0
 20 55  1  0  0  0  0
 20 56  1  0  0  0  0
 21 32  2  0  0  0  0
 22 26  1  0  0  0  0
 22 33  1  0  0  0  0
 23 35  2  0  0  0  0
 23 36  1  0  0  0  0
 24 38  1  0  0  0  0
 25 39  1  0  0  0  0
 27 37  2  0  0  0  0
 27 57  1  0  0  0  0
 28 40  1  0  0  0  0
 28 58  1  0  0  0  0
 29 42  2  0  0  0  0
 29 59  1  0  0  0  0
 30 43  2  0  0  0  0
 30 60  1  0  0  0  0
 31 61  1  0  0  0  0
 31 62  1  0  0  0  0
 31 63  1  0  0  0  0
 32 41  1  0  0  0  0
 32 64  1  0  0  0  0
 33 34  2  0  0  0  0
 33 65  1  0  0  0  0
 34 37  1  0  0  0  0
 35 46  1  0  0  0  0
 35 66  1  0  0  0  0
 36 47  2  0  0  0  0
 36 67  1  0  0  0  0
 37 68  1  0  0  0  0
 38 44  2  0  0  0  0
 38 69  1  0  0  0  0
 39 45  2  0  0  0  0
 39 70  1  0  0  0  0
 40 41  2  0  0  0  0
 42 44  1  0  0  0  0
 42 71  1  0  0  0  0
 43 45  1  0  0  0  0
 43 72  1  0  0  0  0
 46 48  2  0  0  0  0
 46 73  1  0  0  0  0
 47 48  1  0  0  0  0
 47 74  1  0  0  0  0
M  END
> <PUBCHEM_COMPOUND_CID>
15115524

> <PUBCHEM_COMPOUND_CANONICALIZED>
1

> <PUBCHEM_CACTVS_COMPLEXITY>
1200

> <PUBCHEM_CACTVS_HBOND_ACCEPTOR>
8

> <PUBCHEM_CACTVS_HBOND_DONOR>
5

> <PUBCHEM_CACTVS_ROTATABLE_BOND>
3

> <PUBCHEM_CACTVS_SUBSKEYS>
AAADceB/OABAEAAAAAAAAAAAAAAAASAAAAA0YMGDBYAAAEiRVAAAHgRQCAABrUzBmAQzzoPABgCMAiTSSACCCAAlIg0IiAEObOiMJzLGtZuGeSjt0BfI+7e++P+OqgABWAAYBABUAAKwADAIAAAAAAAAAA==

> <PUBCHEM_IUPAC_OPENEYE_NAME>
1-[4-(8-bromo-7-hydroxy-3-methyl-1,2,4,5-tetrahydro-3-benzazepin-5-yl)phenyl]-3-(3',6'-dihydroxy-3-oxo-spiro[isobenzofuran-1,9'-xanthene]-5-yl)thiourea

> <PUBCHEM_IUPAC_CAS_NAME>
1-[4-(8-bromo-7-hydroxy-3-methyl-1,2,4,5-tetrahydro-3-benzazepin-5-yl)phenyl]-3-(3',6'-dihydroxy-3-oxo-5-spiro[isobenzofuran-1,9'-xanthene]yl)thiourea

> <PUBCHEM_IUPAC_NAME_MARKUP>
1-[4-(8-bromo-7-hydroxy-3-methyl-1,2,4,5-tetrahydro-3-benzazepin-5-yl)phenyl]-3-(3&apos;,6&apos;-dihydroxy-3-oxospiro[2-benzofuran-1,9&apos;-xanthene]-5-yl)thiourea

> <PUBCHEM_IUPAC_NAME>
1-[4-(8-bromo-7-hydroxy-3-methyl-1,2,4,5-tetrahydro-3-benzazepin-5-yl)phenyl]-3-(3',6'-dihydroxy-3-oxospiro[2-benzofuran-1,9'-xanthene]-5-yl)thiourea

> <PUBCHEM_IUPAC_SYSTEMATIC_NAME>
1-[3',6'-bis(oxidanyl)-3-oxidanylidene-spiro[2-benzofuran-1,9'-xanthene]-5-yl]-3-[4-(8-bromanyl-3-methyl-7-oxidanyl-1,2,4,5-tetrahydro-3-benzazepin-5-yl)phenyl]thiourea

> <PUBCHEM_IUPAC_TRADITIONAL_NAME>
1-[4-(8-bromo-7-hydroxy-3-methyl-1,2,4,5-tetrahydro-3-benzazepin-5-yl)phenyl]-3-(3',6'-dihydroxy-3-keto-spiro[phthalan-1,9'-xanthene]-5-yl)thiourea

> <PUBCHEM_IUPAC_INCHI>
InChI=1S/C38H30BrN3O6S/c1-42-13-12-21-14-32(39)33(45)18-26(21)28(19-42)20-2-4-22(5-3-20)40-37(49)41-23-6-9-29-27(15-23)36(46)48-38(29)30-10-7-24(43)16-34(30)47-35-17-25(44)8-11-31(35)38/h2-11,14-18,28,43-45H,12-13,19H2,1H3,(H2,40,41,49)

> <PUBCHEM_IUPAC_INCHIKEY>
AAOCWUJDPXXWHS-UHFFFAOYSA-N

> <PUBCHEM_XLOGP3_AA>
6.7

> <PUBCHEM_EXACT_MASS>
735.10387

> <PUBCHEM_MOLECULAR_FORMULA>
C38H30BrN3O6S

> <PUBCHEM_MOLECULAR_WEIGHT>
736.6

> <PUBCHEM_OPENEYE_CAN_SMILES>
CN1CCC2=CC(=C(C=C2C(C1)C3=CC=C(C=C3)NC(=S)NC4=CC5=C(C=C4)C6(C7=C(C=C(C=C7)O)OC8=C6C=CC(=C8)O)OC5=O)O)Br

> <PUBCHEM_OPENEYE_ISO_SMILES>
CN1CCC2=CC(=C(C=C2C(C1)C3=CC=C(C=C3)NC(=S)NC4=CC5=C(C=C4)C6(C7=C(C=C(C=C7)O)OC8=C6C=CC(=C8)O)OC5=O)O)Br

> <PUBCHEM_CACTVS_TPSA>
156

> <PUBCHEM_MONOISOTOPIC_WEIGHT>
735.10387

> <PUBCHEM_TOTAL_CHARGE>
0

> <PUBCHEM_HEAVY_ATOM_COUNT>
49

> <PUBCHEM_ATOM_DEF_STEREO_COUNT>
0

> <PUBCHEM_ATOM_UDEF_STEREO_COUNT>
1

> <PUBCHEM_BOND_DEF_STEREO_COUNT>
0

> <PUBCHEM_BOND_UDEF_STEREO_COUNT>
0

> <PUBCHEM_ISOTOPIC_ATOM_COUNT>
0

> <PUBCHEM_COMPONENT_COUNT>
1

> <PUBCHEM_CACTVS_TAUTO_COUNT>
-1

> <PUBCHEM_COORDINATE_TYPE>
1
5
255

> <PUBCHEM_BONDANNOTATIONS>
13  23  3
15  22  8
15  27  8
16  21  8
16  28  8
17  24  8
17  29  8
18  25  8
18  30  8
21  32  8
22  33  8
23  35  8
23  36  8
24  38  8
25  39  8
27  37  8
28  40  8
29  42  8
30  43  8
32  41  8
33  34  8
34  37  8
35  46  8
36  47  8
38  44  8
39  45  8
40  41  8
42  44  8
43  45  8
46  48  8
47  48  8

$$$$
