148911402
  -OEChem-09292322452D

 75 80  0     0  0  0  0  0  0999 V2000
    8.2603   -3.2521    0.0000 O   0  0  0  0  0  0  0  0  0  0  0  0
    5.6622    2.2479    0.0000 N   0  0  0  0  0  0  0  0  0  0  0  0
    6.5282   -3.2521    0.0000 N   0  0  0  0  0  0  0  0  0  0  0  0
    5.6622    5.2479    0.0000 N   0  0  0  0  0  0  0  0  0  0  0  0
    6.4712    5.8357    0.0000 N   0  0  0  0  0  0  0  0  0  0  0  0
    9.1542   -6.7868    0.0000 N   0  0  0  0  0  0  0  0  0  0  0  0
    6.5282   -0.2521    0.0000 C   0  0  0  0  0  0  0  0  0  0  0  0
    7.3942   -0.7521    0.0000 C   0  0  0  0  0  0  0  0  0  0  0  0
    5.6622   -0.7521    0.0000 C   0  0  0  0  0  0  0  0  0  0  0  0
    6.5282    0.7479    0.0000 C   0  0  0  0  0  0  0  0  0  0  0  0
    6.5282   -2.2521    0.0000 C   0  0  0  0  0  0  0  0  0  0  0  0
    7.3942   -1.7521    0.0000 C   0  0  0  0  0  0  0  0  0  0  0  0
    5.6622   -1.7521    0.0000 C   0  0  0  0  0  0  0  0  0  0  0  0
    5.6622    1.2479    0.0000 C   0  0  0  0  0  0  0  0  0  0  0  0
    5.6622    4.2479    0.0000 C   0  0  0  0  0  0  0  0  0  0  0  0
    6.5282    2.7479    0.0000 C   0  0  0  0  0  0  0  0  0  0  0  0
    4.7962    2.7479    0.0000 C   0  0  0  0  0  0  0  0  0  0  0  0
    6.5282    3.7479    0.0000 C   0  0  0  0  0  0  0  0  0  0  0  0
    4.7962    3.7479    0.0000 C   0  0  0  0  0  0  0  0  0  0  0  0
    4.8532    5.8357    0.0000 C   0  0  0  0  0  0  0  0  0  0  0  0
    7.3942   -3.7521    0.0000 C   0  0  0  0  0  0  0  0  0  0  0  0
    5.1622    6.7868    0.0000 C   0  0  0  0  0  0  0  0  0  0  0  0
    7.3942   -4.7521    0.0000 C   0  0  0  0  0  0  0  0  0  0  0  0
    3.9021    5.5267    0.0000 C   0  0  0  0  0  0  0  0  0  0  0  0
    6.1622    6.7868    0.0000 C   0  0  0  0  0  0  0  0  0  0  0  0
    8.2603   -5.2521    0.0000 C   0  0  0  0  0  0  0  0  0  0  0  0
    6.5282   -5.2521    0.0000 C   0  0  0  0  0  0  0  0  0  0  0  0
    3.6942    4.5485    0.0000 C   0  0  0  0  0  0  0  0  0  0  0  0
    3.1590    6.1958    0.0000 C   0  0  0  0  0  0  0  0  0  0  0  0
    8.2603   -6.2521    0.0000 C   0  0  0  0  0  0  0  0  0  0  0  0
    6.5282   -6.2521    0.0000 C   0  0  0  0  0  0  0  0  0  0  0  0
    2.7431    4.2395    0.0000 C   0  0  0  0  0  0  0  0  0  0  0  0
    2.2079    5.8868    0.0000 C   0  0  0  0  0  0  0  0  0  0  0  0
    9.1542   -4.7174    0.0000 C   0  0  0  0  0  0  0  0  0  0  0  0
    7.3942   -6.7521    0.0000 C   0  0  0  0  0  0  0  0  0  0  0  0
    2.0000    4.9086    0.0000 C   0  0  0  0  0  0  0  0  0  0  0  0
   10.0603   -5.2313    0.0000 C   0  0  0  0  0  0  0  0  0  0  0  0
   10.0603   -6.2729    0.0000 C   0  0  0  0  0  0  0  0  0  0  0  0
    7.0652    0.0579    0.0000 H   0  0  0  0  0  0  0  0  0  0  0  0
    8.0048   -0.8598    0.0000 H   0  0  0  0  0  0  0  0  0  0  0  0
    7.6063   -0.1695    0.0000 H   0  0  0  0  0  0  0  0  0  0  0  0
    5.4501   -0.1695    0.0000 H   0  0  0  0  0  0  0  0  0  0  0  0
    5.0516   -0.8598    0.0000 H   0  0  0  0  0  0  0  0  0  0  0  0
    7.1388    0.6402    0.0000 H   0  0  0  0  0  0  0  0  0  0  0  0
    6.7403    1.3305    0.0000 H   0  0  0  0  0  0  0  0  0  0  0  0
    7.0652   -2.5621    0.0000 H   0  0  0  0  0  0  0  0  0  0  0  0
    7.6063   -2.3347    0.0000 H   0  0  0  0  0  0  0  0  0  0  0  0
    8.0048   -1.6444    0.0000 H   0  0  0  0  0  0  0  0  0  0  0  0
    5.0516   -1.6444    0.0000 H   0  0  0  0  0  0  0  0  0  0  0  0
    5.4501   -2.3347    0.0000 H   0  0  0  0  0  0  0  0  0  0  0  0
    5.0516    1.3556    0.0000 H   0  0  0  0  0  0  0  0  0  0  0  0
    5.4501    0.6653    0.0000 H   0  0  0  0  0  0  0  0  0  0  0  0
    6.1991    4.5579    0.0000 H   0  0  0  0  0  0  0  0  0  0  0  0
    6.7403    2.1653    0.0000 H   0  0  0  0  0  0  0  0  0  0  0  0
    7.1388    2.8556    0.0000 H   0  0  0  0  0  0  0  0  0  0  0  0
    4.1856    2.8556    0.0000 H   0  0  0  0  0  0  0  0  0  0  0  0
    4.5841    2.1653    0.0000 H   0  0  0  0  0  0  0  0  0  0  0  0
    7.1388    3.6402    0.0000 H   0  0  0  0  0  0  0  0  0  0  0  0
    6.7403    4.3305    0.0000 H   0  0  0  0  0  0  0  0  0  0  0  0
    4.5841    4.3305    0.0000 H   0  0  0  0  0  0  0  0  0  0  0  0
    4.1856    3.6402    0.0000 H   0  0  0  0  0  0  0  0  0  0  0  0
    5.9913   -3.5621    0.0000 H   0  0  0  0  0  0  0  0  0  0  0  0
    4.7978    7.2883    0.0000 H   0  0  0  0  0  0  0  0  0  0  0  0
    6.5266    7.2883    0.0000 H   0  0  0  0  0  0  0  0  0  0  0  0
    4.1550    4.1337    0.0000 H   0  0  0  0  0  0  0  0  0  0  0  0
    3.2879    6.8023    0.0000 H   0  0  0  0  0  0  0  0  0  0  0  0
    5.9913   -4.9421    0.0000 H   0  0  0  0  0  0  0  0  0  0  0  0
    5.9913   -6.5621    0.0000 H   0  0  0  0  0  0  0  0  0  0  0  0
    2.6142    3.6331    0.0000 H   0  0  0  0  0  0  0  0  0  0  0  0
    1.7472    6.3017    0.0000 H   0  0  0  0  0  0  0  0  0  0  0  0
    9.1470   -4.0975    0.0000 H   0  0  0  0  0  0  0  0  0  0  0  0
    7.3942   -7.3721    0.0000 H   0  0  0  0  0  0  0  0  0  0  0  0
    1.4103    4.7171    0.0000 H   0  0  0  0  0  0  0  0  0  0  0  0
   10.5960   -4.9192    0.0000 H   0  0  0  0  0  0  0  0  0  0  0  0
   10.5960   -6.5850    0.0000 H   0  0  0  0  0  0  0  0  0  0  0  0
  1 21  2  0  0  0  0
  2 14  1  0  0  0  0
  2 16  1  0  0  0  0
  2 17  1  0  0  0  0
  3 11  1  0  0  0  0
  3 21  1  0  0  0  0
  3 62  1  0  0  0  0
  4  5  1  0  0  0  0
  4 15  1  0  0  0  0
  4 20  1  0  0  0  0
  5 25  2  0  0  0  0
  6 30  1  0  0  0  0
  6 38  2  0  0  0  0
  7  8  1  0  0  0  0
  7  9  1  0  0  0  0
  7 10  1  0  0  0  0
  7 39  1  0  0  0  0
  8 12  1  0  0  0  0
  8 40  1  0  0  0  0
  8 41  1  0  0  0  0
  9 13  1  0  0  0  0
  9 42  1  0  0  0  0
  9 43  1  0  0  0  0
 10 14  1  0  0  0  0
 10 44  1  0  0  0  0
 10 45  1  0  0  0  0
 11 12  1  0  0  0  0
 11 13  1  0  0  0  0
 11 46  1  0  0  0  0
 12 47  1  0  0  0  0
 12 48  1  0  0  0  0
 13 49  1  0  0  0  0
 13 50  1  0  0  0  0
 14 51  1  0  0  0  0
 14 52  1  0  0  0  0
 15 18  1  0  0  0  0
 15 19  1  0  0  0  0
 15 53  1  0  0  0  0
 16 18  1  0  0  0  0
 16 54  1  0  0  0  0
 16 55  1  0  0  0  0
 17 19  1  0  0  0  0
 17 56  1  0  0  0  0
 17 57  1  0  0  0  0
 18 58  1  0  0  0  0
 18 59  1  0  0  0  0
 19 60  1  0  0  0  0
 19 61  1  0  0  0  0
 20 22  2  0  0  0  0
 20 24  1  0  0  0  0
 21 23  1  0  0  0  0
 22 25  1  0  0  0  0
 22 63  1  0  0  0  0
 23 26  2  0  0  0  0
 23 27  1  0  0  0  0
 24 28  2  0  0  0  0
 24 29  1  0  0  0  0
 25 64  1  0  0  0  0
 26 30  1  0  0  0  0
 26 34  1  0  0  0  0
 27 31  2  0  0  0  0
 27 67  1  0  0  0  0
 28 32  1  0  0  0  0
 28 65  1  0  0  0  0
 29 33  2  0  0  0  0
 29 66  1  0  0  0  0
 30 35  2  0  0  0  0
 31 35  1  0  0  0  0
 31 68  1  0  0  0  0
 32 36  2  0  0  0  0
 32 69  1  0  0  0  0
 33 36  1  0  0  0  0
 33 70  1  0  0  0  0
 34 37  2  0  0  0  0
 34 71  1  0  0  0  0
 35 72  1  0  0  0  0
 36 73  1  0  0  0  0
 37 38  1  0  0  0  0
 37 74  1  0  0  0  0
 38 75  1  0  0  0  0
M  END
> <PUBCHEM_COMPOUND_CID>
148911402

> <PUBCHEM_COMPOUND_CANONICALIZED>
1

> <PUBCHEM_CACTVS_COMPLEXITY>
740

> <PUBCHEM_CACTVS_HBOND_ACCEPTOR>
4

> <PUBCHEM_CACTVS_HBOND_DONOR>
1

> <PUBCHEM_CACTVS_ROTATABLE_BOND>
7

> <PUBCHEM_CACTVS_SUBSKEYS>
AAADcfB/oAAAAAAAAAAAAAAAAAAAAWAAAAA8eMECAAAAAACx/AAAHgAYAAAADSjBngQ8wPPIEACqAzV3VACShCA1giAY2KE4ZNgIIPLA1dGEpQhgngDIyYcciICOgAAAQAASAAAQAACAACQAAAAAAAAAAA==

> <PUBCHEM_IUPAC_OPENEYE_NAME>
N-[4-[2-[4-(5-phenylpyrazol-1-yl)-1-piperidyl]ethyl]cyclohexyl]quinoline-5-carboxamide

> <PUBCHEM_IUPAC_CAS_NAME>
N-[4-[2-[4-(5-phenyl-1-pyrazolyl)-1-piperidinyl]ethyl]cyclohexyl]-5-quinolinecarboxamide

> <PUBCHEM_IUPAC_NAME_MARKUP>
<I>N</I>-[4-[2-[4-(5-phenylpyrazol-1-yl)piperidin-1-yl]ethyl]cyclohexyl]quinoline-5-carboxamide

> <PUBCHEM_IUPAC_NAME>
N-[4-[2-[4-(5-phenylpyrazol-1-yl)piperidin-1-yl]ethyl]cyclohexyl]quinoline-5-carboxamide

> <PUBCHEM_IUPAC_SYSTEMATIC_NAME>
N-[4-[2-[4-(5-phenylpyrazol-1-yl)piperidin-1-yl]ethyl]cyclohexyl]quinoline-5-carboxamide

> <PUBCHEM_IUPAC_TRADITIONAL_NAME>
N-[4-[2-[4-(5-phenylpyrazol-1-yl)piperidino]ethyl]cyclohexyl]quinoline-5-carboxamide

> <PUBCHEM_IUPAC_INCHI>
InChI=1S/C32H37N5O/c38-32(29-8-4-10-30-28(29)9-5-19-33-30)35-26-13-11-24(12-14-26)16-21-36-22-17-27(18-23-36)37-31(15-20-34-37)25-6-2-1-3-7-25/h1-10,15,19-20,24,26-27H,11-14,16-18,21-23H2,(H,35,38)

> <PUBCHEM_IUPAC_INCHIKEY>
PISAGUMTFMXBJX-UHFFFAOYSA-N

> <PUBCHEM_XLOGP3_AA>
5.5

> <PUBCHEM_EXACT_MASS>
507.29981082

> <PUBCHEM_MOLECULAR_FORMULA>
C32H37N5O

> <PUBCHEM_MOLECULAR_WEIGHT>
507.7

> <PUBCHEM_OPENEYE_CAN_SMILES>
C1CC(CCC1CCN2CCC(CC2)N3C(=CC=N3)C4=CC=CC=C4)NC(=O)C5=C6C=CC=NC6=CC=C5

> <PUBCHEM_OPENEYE_ISO_SMILES>
C1CC(CCC1CCN2CCC(CC2)N3C(=CC=N3)C4=CC=CC=C4)NC(=O)C5=C6C=CC=NC6=CC=C5

> <PUBCHEM_CACTVS_TPSA>
63

> <PUBCHEM_MONOISOTOPIC_WEIGHT>
507.29981082

> <PUBCHEM_TOTAL_CHARGE>
0

> <PUBCHEM_HEAVY_ATOM_COUNT>
38

> <PUBCHEM_ATOM_DEF_STEREO_COUNT>
0

> <PUBCHEM_ATOM_UDEF_STEREO_COUNT>
0

> <PUBCHEM_BOND_DEF_STEREO_COUNT>
0

> <PUBCHEM_BOND_UDEF_STEREO_COUNT>
0

> <PUBCHEM_ISOTOPIC_ATOM_COUNT>
0

> <PUBCHEM_COMPONENT_COUNT>
1

> <PUBCHEM_CACTVS_TAUTO_COUNT>
-1

> <PUBCHEM_COORDINATE_TYPE>
1
5
255

> <PUBCHEM_BONDANNOTATIONS>
20  22  8
22  25  8
23  26  8
23  27  8
24  28  8
24  29  8
26  30  8
26  34  8
27  31  8
28  32  8
29  33  8
30  35  8
31  35  8
32  36  8
33  36  8
34  37  8
37  38  8
4  20  8
4  5  8
5  25  8
6  30  8
6  38  8

$$$$
