162650164
  -OEChem-09292322012D

177186  0     1  0  0  0  0  0999 V2000
   29.7530   -9.7084    0.0000 O   0  0  0  0  0  0  0  0  0  0  0  0
   11.2619   15.7426    0.0000 O   0  0  0  0  0  0  0  0  0  0  0  0
   24.0910   -4.7142    0.0000 O   0  0  0  0  0  0  0  0  0  0  0  0
   14.2619    8.8144    0.0000 O   0  0  0  0  0  0  0  0  0  0  0  0
   21.9502    0.8539    0.0000 O   0  0  0  0  0  0  0  0  0  0  0  0
   18.8959    5.0577    0.0000 O   0  0  0  0  0  0  0  0  0  0  0  0
   20.0185    2.6619    0.0000 O   0  0  0  0  0  0  0  0  0  0  0  0
   29.8552  -14.9989    0.0000 N   0  0  3  0  0  0  0  0  0  0  0  0
    6.2619   17.4746    0.0000 N   0  0  3  0  0  0  0  0  0  0  0  0
   28.4659  -10.8673    0.0000 N   0  0  0  0  0  0  0  0  0  0  0  0
    9.7619   14.8765    0.0000 N   0  0  0  0  0  0  0  0  0  0  0  0
   23.0728   -1.5419    0.0000 N   0  0  0  0  0  0  0  0  0  0  0  0
   16.9643    6.8656    0.0000 N   0  0  0  0  0  0  0  0  0  0  0  0
   22.7363   -3.1246    0.0000 N   0  0  0  0  0  0  0  0  0  0  0  0
   15.3551    7.0348    0.0000 N   0  0  0  0  0  0  0  0  0  0  0  0
   22.3296   -2.2110    0.0000 N   0  0  0  0  0  0  0  0  0  0  0  0
   16.0983    6.3656    0.0000 N   0  0  0  0  0  0  0  0  0  0  0  0
   29.5462  -15.9499    0.0000 C   0  0  0  0  0  0  0  0  0  0  0  0
    5.2619   17.4746    0.0000 C   0  0  0  0  0  0  0  0  0  0  0  0
   30.1312  -16.7536    0.0000 C   0  0  0  0  0  0  0  0  0  0  0  0
   28.6005  -16.2563    0.0000 C   0  0  0  0  0  0  0  0  0  0  0  0
    4.6783   16.6699    0.0000 C   0  0  0  0  0  0  0  0  0  0  0  0
    4.6783   18.2793    0.0000 C   0  0  0  0  0  0  0  0  0  0  0  0
   29.5490  -17.5594    0.0000 C   0  0  0  0  0  0  0  0  0  0  0  0
   28.5979  -17.2504    0.0000 C   0  0  0  0  0  0  0  0  0  0  0  0
    3.7320   16.9746    0.0000 C   0  0  0  0  0  0  0  0  0  0  0  0
    3.7320   17.9746    0.0000 C   0  0  0  0  0  0  0  0  0  0  0  0
   29.1861  -14.2557    0.0000 C   0  0  0  0  0  0  0  0  0  0  0  0
    6.7619   16.6086    0.0000 C   0  0  0  0  0  0  0  0  0  0  0  0
   30.8334  -14.7910    0.0000 C   0  0  0  0  0  0  0  0  0  0  0  0
    6.7619   18.3406    0.0000 C   0  0  0  0  0  0  0  0  0  0  0  0
   29.4951  -13.3047    0.0000 C   0  0  0  0  0  0  0  0  0  0  0  0
    7.7619   16.6086    0.0000 C   0  0  0  0  0  0  0  0  0  0  0  0
   29.7569  -18.5375    0.0000 C   0  0  0  0  0  0  0  0  0  0  0  0
   27.8548  -17.9195    0.0000 C   0  0  0  0  0  0  0  0  0  0  0  0
    2.8660   16.4746    0.0000 C   0  0  0  0  0  0  0  0  0  0  0  0
    2.8660   18.4746    0.0000 C   0  0  0  0  0  0  0  0  0  0  0  0
   31.1424  -13.8399    0.0000 C   0  0  0  0  0  0  0  0  0  0  0  0
    7.7619   18.3406    0.0000 C   0  0  0  0  0  0  0  0  0  0  0  0
   28.8260  -12.5615    0.0000 C   0  0  0  0  0  0  0  0  0  0  0  0
    8.2619   15.7426    0.0000 C   0  0  0  0  0  0  0  0  0  0  0  0
   29.0138  -19.2067    0.0000 C   0  0  0  0  0  0  0  0  0  0  0  0
   28.0627  -18.8976    0.0000 C   0  0  0  0  0  0  0  0  0  0  0  0
    2.0000   16.9746    0.0000 C   0  0  0  0  0  0  0  0  0  0  0  0
    2.0000   17.9746    0.0000 C   0  0  0  0  0  0  0  0  0  0  0  0
   32.1206  -13.6320    0.0000 C   0  0  0  0  0  0  0  0  0  0  0  0
    8.2619   19.2067    0.0000 C   0  0  0  0  0  0  0  0  0  0  0  0
   29.1350  -11.6105    0.0000 C   0  0  0  0  0  0  0  0  0  0  0  0
    9.2619   15.7426    0.0000 C   0  0  0  0  0  0  0  0  0  0  0  0
   28.7749   -9.9163    0.0000 C   0  0  0  0  0  0  0  0  0  0  0  0
   10.7619   14.8765    0.0000 C   0  0  0  0  0  0  0  0  0  0  0  0
   28.1058   -9.1731    0.0000 C   0  0  0  0  0  0  0  0  0  0  0  0
   11.2619   14.0105    0.0000 C   0  0  0  0  0  0  0  0  0  0  0  0
   28.4148   -8.2221    0.0000 C   0  0  0  0  0  0  0  0  0  0  0  0
   10.7619   13.1445    0.0000 C   0  0  0  0  0  0  0  0  0  0  0  0
   27.1276   -9.3810    0.0000 C   0  0  0  0  0  0  0  0  0  0  0  0
   12.2619   14.0105    0.0000 C   0  0  0  0  0  0  0  0  0  0  0  0
   27.7457   -7.4789    0.0000 C   0  0  0  0  0  0  0  0  0  0  0  0
   11.2619   12.2785    0.0000 C   0  0  0  0  0  0  0  0  0  0  0  0
   26.4585   -8.6379    0.0000 C   0  0  0  0  0  0  0  0  0  0  0  0
   12.7619   13.1445    0.0000 C   0  0  0  0  0  0  0  0  0  0  0  0
   26.7675   -7.6868    0.0000 C   0  0  0  0  0  0  0  0  0  0  0  0
   12.2619   12.2785    0.0000 C   0  0  0  0  0  0  0  0  0  0  0  0
   26.0984   -6.9437    0.0000 C   0  0  0  0  0  0  0  0  0  0  0  0
   12.7619   11.4124    0.0000 C   0  0  0  0  0  0  0  0  0  0  0  0
   25.1202   -7.1516    0.0000 C   0  0  0  0  0  0  0  0  0  0  0  0
   13.7619   11.4124    0.0000 C   0  0  0  0  0  0  0  0  0  0  0  0
   26.4074   -5.9926    0.0000 C   0  0  0  0  0  0  0  0  0  0  0  0
   12.2619   10.5464    0.0000 C   0  0  0  0  0  0  0  0  0  0  0  0
   24.4511   -6.4084    0.0000 C   0  0  0  0  0  0  0  0  0  0  0  0
   14.2619   10.5464    0.0000 C   0  0  0  0  0  0  0  0  0  0  0  0
   25.7383   -5.2495    0.0000 C   0  0  0  0  0  0  0  0  0  0  0  0
   12.7619    9.6804    0.0000 C   0  0  0  0  0  0  0  0  0  0  0  0
   24.7601   -5.4574    0.0000 C   0  0  0  0  0  0  0  0  0  0  0  0
   13.7619    9.6804    0.0000 C   0  0  0  0  0  0  0  0  0  0  0  0
   24.4000   -3.7632    0.0000 C   0  0  0  0  0  0  0  0  0  0  0  0
   15.2619    8.8144    0.0000 C   0  0  0  0  0  0  0  0  0  0  0  0
   23.7309   -3.0200    0.0000 C   0  0  0  0  0  0  0  0  0  0  0  0
   15.7619    7.9483    0.0000 C   0  0  0  0  0  0  0  0  0  0  0  0
   23.9388   -2.0419    0.0000 C   0  0  0  0  0  0  0  0  0  0  0  0
   16.7564    7.8438    0.0000 C   0  0  0  0  0  0  0  0  0  0  0  0
   22.9682   -0.5474    0.0000 C   0  0  0  0  0  0  0  0  0  0  0  0
   17.8779    6.4589    0.0000 C   0  0  0  0  0  0  0  0  0  0  0  0
   22.0547   -0.1406    0.0000 C   0  0  0  0  0  0  0  0  0  0  0  0
   17.9824    5.4644    0.0000 C   0  0  0  0  0  0  0  0  0  0  0  0
   21.0366    1.2606    0.0000 C   0  0  0  0  0  0  0  0  0  0  0  0
   19.0005    4.0631    0.0000 C   0  0  0  0  0  0  0  0  0  0  0  0
   20.9321    2.2551    0.0000 C   0  0  0  0  0  0  0  0  0  0  0  0
   19.9140    3.6564    0.0000 C   0  0  0  0  0  0  0  0  0  0  0  0
   30.1585  -15.8527    0.0000 H   0  0  0  0  0  0  0  0  0  0  0  0
    5.5436   16.9223    0.0000 H   0  0  0  0  0  0  0  0  0  0  0  0
   30.5928  -17.1676    0.0000 H   0  0  0  0  0  0  0  0  0  0  0  0
   30.5914  -16.3381    0.0000 H   0  0  0  0  0  0  0  0  0  0  0  0
   28.4725  -15.6497    0.0000 H   0  0  0  0  0  0  0  0  0  0  0  0
   27.9838  -16.3199    0.0000 H   0  0  0  0  0  0  0  0  0  0  0  0
    4.4272   16.1030    0.0000 H   0  0  0  0  0  0  0  0  0  0  0  0
    5.2156   16.3607    0.0000 H   0  0  0  0  0  0  0  0  0  0  0  0
    5.2156   18.5886    0.0000 H   0  0  0  0  0  0  0  0  0  0  0  0
    4.4272   18.8462    0.0000 H   0  0  0  0  0  0  0  0  0  0  0  0
   28.6387  -13.9646    0.0000 H   0  0  0  0  0  0  0  0  0  0  0  0
   28.8044  -14.7443    0.0000 H   0  0  0  0  0  0  0  0  0  0  0  0
    6.1793   16.3965    0.0000 H   0  0  0  0  0  0  0  0  0  0  0  0
    6.8695   15.9980    0.0000 H   0  0  0  0  0  0  0  0  0  0  0  0
   30.8550  -15.4106    0.0000 H   0  0  0  0  0  0  0  0  0  0  0  0
   31.4474  -14.8772    0.0000 H   0  0  0  0  0  0  0  0  0  0  0  0
    6.8695   18.9512    0.0000 H   0  0  0  0  0  0  0  0  0  0  0  0
    6.1793   18.5527    0.0000 H   0  0  0  0  0  0  0  0  0  0  0  0
   30.0426  -13.5957    0.0000 H   0  0  0  0  0  0  0  0  0  0  0  0
   29.8768  -12.8161    0.0000 H   0  0  0  0  0  0  0  0  0  0  0  0
    8.3445   16.8206    0.0000 H   0  0  0  0  0  0  0  0  0  0  0  0
    7.6542   17.2192    0.0000 H   0  0  0  0  0  0  0  0  0  0  0  0
   30.3466  -18.7291    0.0000 H   0  0  0  0  0  0  0  0  0  0  0  0
   27.2652  -17.7279    0.0000 H   0  0  0  0  0  0  0  0  0  0  0  0
    2.8660   15.8546    0.0000 H   0  0  0  0  0  0  0  0  0  0  0  0
    2.8660   19.0946    0.0000 H   0  0  0  0  0  0  0  0  0  0  0  0
   31.1208  -13.2203    0.0000 H   0  0  0  0  0  0  0  0  0  0  0  0
   30.5284  -13.7536    0.0000 H   0  0  0  0  0  0  0  0  0  0  0  0
    7.6542   17.7301    0.0000 H   0  0  0  0  0  0  0  0  0  0  0  0
    8.3445   18.1286    0.0000 H   0  0  0  0  0  0  0  0  0  0  0  0
   28.2786  -12.2704    0.0000 H   0  0  0  0  0  0  0  0  0  0  0  0
   28.4443  -13.0501    0.0000 H   0  0  0  0  0  0  0  0  0  0  0  0
    7.6793   15.5305    0.0000 H   0  0  0  0  0  0  0  0  0  0  0  0
    8.3695   15.1320    0.0000 H   0  0  0  0  0  0  0  0  0  0  0  0
   29.1427  -19.8131    0.0000 H   0  0  0  0  0  0  0  0  0  0  0  0
   27.6020  -19.3125    0.0000 H   0  0  0  0  0  0  0  0  0  0  0  0
    1.4631   16.6646    0.0000 H   0  0  0  0  0  0  0  0  0  0  0  0
    1.4631   18.2846    0.0000 H   0  0  0  0  0  0  0  0  0  0  0  0
   32.2495  -14.2384    0.0000 H   0  0  0  0  0  0  0  0  0  0  0  0
   32.7270  -13.5031    0.0000 H   0  0  0  0  0  0  0  0  0  0  0  0
   31.9916  -13.0255    0.0000 H   0  0  0  0  0  0  0  0  0  0  0  0
    8.7988   18.8967    0.0000 H   0  0  0  0  0  0  0  0  0  0  0  0
    8.5719   19.7436    0.0000 H   0  0  0  0  0  0  0  0  0  0  0  0
    7.7249   19.5167    0.0000 H   0  0  0  0  0  0  0  0  0  0  0  0
   29.6824  -11.9015    0.0000 H   0  0  0  0  0  0  0  0  0  0  0  0
   29.5167  -11.1219    0.0000 H   0  0  0  0  0  0  0  0  0  0  0  0
    9.8445   15.9546    0.0000 H   0  0  0  0  0  0  0  0  0  0  0  0
    9.1542   16.3531    0.0000 H   0  0  0  0  0  0  0  0  0  0  0  0
   27.8594  -10.9962    0.0000 H   0  0  0  0  0  0  0  0  0  0  0  0
    9.4519   14.3396    0.0000 H   0  0  0  0  0  0  0  0  0  0  0  0
   29.0212   -8.0932    0.0000 H   0  0  0  0  0  0  0  0  0  0  0  0
   10.1419   13.1445    0.0000 H   0  0  0  0  0  0  0  0  0  0  0  0
   26.9360   -9.9707    0.0000 H   0  0  0  0  0  0  0  0  0  0  0  0
   12.5719   14.5474    0.0000 H   0  0  0  0  0  0  0  0  0  0  0  0
   27.9372   -6.8893    0.0000 H   0  0  0  0  0  0  0  0  0  0  0  0
   10.9519   11.7415    0.0000 H   0  0  0  0  0  0  0  0  0  0  0  0
   25.8520   -8.7668    0.0000 H   0  0  0  0  0  0  0  0  0  0  0  0
   13.3819   13.1445    0.0000 H   0  0  0  0  0  0  0  0  0  0  0  0
   24.9286   -7.7412    0.0000 H   0  0  0  0  0  0  0  0  0  0  0  0
   14.0719   11.9494    0.0000 H   0  0  0  0  0  0  0  0  0  0  0  0
   27.0138   -5.8637    0.0000 H   0  0  0  0  0  0  0  0  0  0  0  0
   11.6419   10.5464    0.0000 H   0  0  0  0  0  0  0  0  0  0  0  0
   23.8446   -6.5374    0.0000 H   0  0  0  0  0  0  0  0  0  0  0  0
   14.8819   10.5464    0.0000 H   0  0  0  0  0  0  0  0  0  0  0  0
   25.9299   -4.6598    0.0000 H   0  0  0  0  0  0  0  0  0  0  0  0
   12.4519    9.1434    0.0000 H   0  0  0  0  0  0  0  0  0  0  0  0
   24.9474   -4.0543    0.0000 H   0  0  0  0  0  0  0  0  0  0  0  0
   24.7817   -3.2746    0.0000 H   0  0  0  0  0  0  0  0  0  0  0  0
   15.8445    9.0264    0.0000 H   0  0  0  0  0  0  0  0  0  0  0  0
   15.1542    9.4249    0.0000 H   0  0  0  0  0  0  0  0  0  0  0  0
   24.5052   -1.7897    0.0000 H   0  0  0  0  0  0  0  0  0  0  0  0
   17.1713    8.3046    0.0000 H   0  0  0  0  0  0  0  0  0  0  0  0
   23.5867   -0.5906    0.0000 H   0  0  0  0  0  0  0  0  0  0  0  0
   23.1182    0.0542    0.0000 H   0  0  0  0  0  0  0  0  0  0  0  0
   18.4963    6.4157    0.0000 H   0  0  0  0  0  0  0  0  0  0  0  0
   18.0279    7.0605    0.0000 H   0  0  0  0  0  0  0  0  0  0  0  0
   21.4362   -0.0974    0.0000 H   0  0  0  0  0  0  0  0  0  0  0  0
   21.9047   -0.7422    0.0000 H   0  0  0  0  0  0  0  0  0  0  0  0
   17.3639    5.5076    0.0000 H   0  0  0  0  0  0  0  0  0  0  0  0
   17.8324    4.8628    0.0000 H   0  0  0  0  0  0  0  0  0  0  0  0
   20.4181    1.3039    0.0000 H   0  0  0  0  0  0  0  0  0  0  0  0
   20.8866    0.6590    0.0000 H   0  0  0  0  0  0  0  0  0  0  0  0
   18.3820    4.1064    0.0000 H   0  0  0  0  0  0  0  0  0  0  0  0
   18.8505    3.4616    0.0000 H   0  0  0  0  0  0  0  0  0  0  0  0
   21.5506    2.2119    0.0000 H   0  0  0  0  0  0  0  0  0  0  0  0
   21.0821    2.8567    0.0000 H   0  0  0  0  0  0  0  0  0  0  0  0
   20.5325    3.6132    0.0000 H   0  0  0  0  0  0  0  0  0  0  0  0
   20.0640    4.2580    0.0000 H   0  0  0  0  0  0  0  0  0  0  0  0
  1 50  2  0  0  0  0
  2 51  2  0  0  0  0
  3 74  1  0  0  0  0
  3 76  1  0  0  0  0
  4 75  1  0  0  0  0
  4 77  1  0  0  0  0
  5 84  1  0  0  0  0
  5 86  1  0  0  0  0
  6 85  1  0  0  0  0
  6 87  1  0  0  0  0
  7 88  1  0  0  0  0
  7 89  1  0  0  0  0
  8 18  1  0  0  0  0
  8 28  1  0  0  0  0
  8 30  1  0  0  0  0
  9 19  1  0  0  0  0
  9 29  1  0  0  0  0
  9 31  1  0  0  0  0
 10 48  1  0  0  0  0
 10 50  1  0  0  0  0
 10138  1  0  0  0  0
 11 49  1  0  0  0  0
 11 51  1  0  0  0  0
 11139  1  0  0  0  0
 12 16  1  0  0  0  0
 12 80  1  0  0  0  0
 12 82  1  0  0  0  0
 13 17  1  0  0  0  0
 13 81  1  0  0  0  0
 13 83  1  0  0  0  0
 14 16  2  0  0  0  0
 14 78  1  0  0  0  0
 15 17  2  0  0  0  0
 15 79  1  0  0  0  0
 18 20  1  0  0  0  0
 18 21  1  0  0  0  0
 18 90  1  0  0  0  0
 19 22  1  0  0  0  0
 19 23  1  0  0  0  0
 19 91  1  0  0  0  0
 20 24  1  0  0  0  0
 20 92  1  0  0  0  0
 20 93  1  0  0  0  0
 21 25  1  0  0  0  0
 21 94  1  0  0  0  0
 21 95  1  0  0  0  0
 22 26  1  0  0  0  0
 22 96  1  0  0  0  0
 22 97  1  0  0  0  0
 23 27  1  0  0  0  0
 23 98  1  0  0  0  0
 23 99  1  0  0  0  0
 24 25  1  0  0  0  0
 24 34  2  0  0  0  0
 25 35  2  0  0  0  0
 26 27  1  0  0  0  0
 26 36  2  0  0  0  0
 27 37  2  0  0  0  0
 28 32  1  0  0  0  0
 28100  1  0  0  0  0
 28101  1  0  0  0  0
 29 33  1  0  0  0  0
 29102  1  0  0  0  0
 29103  1  0  0  0  0
 30 38  1  0  0  0  0
 30104  1  0  0  0  0
 30105  1  0  0  0  0
 31 39  1  0  0  0  0
 31106  1  0  0  0  0
 31107  1  0  0  0  0
 32 40  1  0  0  0  0
 32108  1  0  0  0  0
 32109  1  0  0  0  0
 33 41  1  0  0  0  0
 33110  1  0  0  0  0
 33111  1  0  0  0  0
 34 42  1  0  0  0  0
 34112  1  0  0  0  0
 35 43  1  0  0  0  0
 35113  1  0  0  0  0
 36 44  1  0  0  0  0
 36114  1  0  0  0  0
 37 45  1  0  0  0  0
 37115  1  0  0  0  0
 38 46  1  0  0  0  0
 38116  1  0  0  0  0
 38117  1  0  0  0  0
 39 47  1  0  0  0  0
 39118  1  0  0  0  0
 39119  1  0  0  0  0
 40 48  1  0  0  0  0
 40120  1  0  0  0  0
 40121  1  0  0  0  0
 41 49  1  0  0  0  0
 41122  1  0  0  0  0
 41123  1  0  0  0  0
 42 43  2  0  0  0  0
 42124  1  0  0  0  0
 43125  1  0  0  0  0
 44 45  2  0  0  0  0
 44126  1  0  0  0  0
 45127  1  0  0  0  0
 46128  1  0  0  0  0
 46129  1  0  0  0  0
 46130  1  0  0  0  0
 47131  1  0  0  0  0
 47132  1  0  0  0  0
 47133  1  0  0  0  0
 48134  1  0  0  0  0
 48135  1  0  0  0  0
 49136  1  0  0  0  0
 49137  1  0  0  0  0
 50 52  1  0  0  0  0
 51 53  1  0  0  0  0
 52 54  2  0  0  0  0
 52 56  1  0  0  0  0
 53 55  2  0  0  0  0
 53 57  1  0  0  0  0
 54 58  1  0  0  0  0
 54140  1  0  0  0  0
 55 59  1  0  0  0  0
 55141  1  0  0  0  0
 56 60  2  0  0  0  0
 56142  1  0  0  0  0
 57 61  2  0  0  0  0
 57143  1  0  0  0  0
 58 62  2  0  0  0  0
 58144  1  0  0  0  0
 59 63  2  0  0  0  0
 59145  1  0  0  0  0
 60 62  1  0  0  0  0
 60146  1  0  0  0  0
 61 63  1  0  0  0  0
 61147  1  0  0  0  0
 62 64  1  0  0  0  0
 63 65  1  0  0  0  0
 64 66  2  0  0  0  0
 64 68  1  0  0  0  0
 65 67  2  0  0  0  0
 65 69  1  0  0  0  0
 66 70  1  0  0  0  0
 66148  1  0  0  0  0
 67 71  1  0  0  0  0
 67149  1  0  0  0  0
 68 72  2  0  0  0  0
 68150  1  0  0  0  0
 69 73  2  0  0  0  0
 69151  1  0  0  0  0
 70 74  2  0  0  0  0
 70152  1  0  0  0  0
 71 75  2  0  0  0  0
 71153  1  0  0  0  0
 72 74  1  0  0  0  0
 72154  1  0  0  0  0
 73 75  1  0  0  0  0
 73155  1  0  0  0  0
 76 78  1  0  0  0  0
 76156  1  0  0  0  0
 76157  1  0  0  0  0
 77 79  1  0  0  0  0
 77158  1  0  0  0  0
 77159  1  0  0  0  0
 78 80  2  0  0  0  0
 79 81  2  0  0  0  0
 80160  1  0  0  0  0
 81161  1  0  0  0  0
 82 84  1  0  0  0  0
 82162  1  0  0  0  0
 82163  1  0  0  0  0
 83 85  1  0  0  0  0
 83164  1  0  0  0  0
 83165  1  0  0  0  0
 84166  1  0  0  0  0
 84167  1  0  0  0  0
 85168  1  0  0  0  0
 85169  1  0  0  0  0
 86 88  1  0  0  0  0
 86170  1  0  0  0  0
 86171  1  0  0  0  0
 87 89  1  0  0  0  0
 87172  1  0  0  0  0
 87173  1  0  0  0  0
 88174  1  0  0  0  0
 88175  1  0  0  0  0
 89176  1  0  0  0  0
 89177  1  0  0  0  0
M  END
> <PUBCHEM_COMPOUND_CID>
162650164

> <PUBCHEM_COMPOUND_CANONICALIZED>
1

> <PUBCHEM_CACTVS_COMPLEXITY>
1790

> <PUBCHEM_CACTVS_HBOND_ACCEPTOR>
13

> <PUBCHEM_CACTVS_HBOND_DONOR>
2

> <PUBCHEM_CACTVS_ROTATABLE_BOND>
38

> <PUBCHEM_CACTVS_SUBSKEYS>
AAADcfB/+AAAAAAAAAAAAAAAAAAAAePECAAwYMGDAAAAAGAB9AAAHgAYAAAADCzhngY+hpPIBACqAzV3VASCDAQ1sgAY2IE+fMgPZjLEtRuXOSjm1hHaqYeYyPCO4AAAAAAQAADAAAAAACAAACAACAAAAA==

> <PUBCHEM_IUPAC_OPENEYE_NAME>
N-[4-[indan-2-yl(propyl)amino]butyl]-4-[4-[[1-[2-[2-[2-[2-[4-[[4-[4-[4-[indan-2-yl(propyl)amino]butylcarbamoyl]phenyl]phenoxy]methyl]triazol-1-yl]ethoxy]ethoxy]ethoxy]ethyl]triazol-4-yl]methoxy]phenyl]benzamide

> <PUBCHEM_IUPAC_CAS_NAME>
N-[4-[2,3-dihydro-1H-inden-2-yl(propyl)amino]butyl]-4-[4-[[1-[2-[2-[2-[2-[4-[[4-[4-[[4-[2,3-dihydro-1H-inden-2-yl(propyl)amino]butylamino]-oxomethyl]phenyl]phenoxy]methyl]-1-triazolyl]ethoxy]ethoxy]ethoxy]ethyl]-4-triazolyl]methoxy]phenyl]benzamide

> <PUBCHEM_IUPAC_NAME_MARKUP>
<I>N</I>-[4-[2,3-dihydro-1<I>H</I>-inden-2-yl(propyl)amino]butyl]-4-[4-[[1-[2-[2-[2-[2-[4-[[4-[4-[4-[2,3-dihydro-1<I>H</I>-inden-2-yl(propyl)amino]butylcarbamoyl]phenyl]phenoxy]methyl]triazol-1-yl]ethoxy]ethoxy]ethoxy]ethyl]triazol-4-yl]methoxy]phenyl]benzamide

> <PUBCHEM_IUPAC_NAME>
N-[4-[2,3-dihydro-1H-inden-2-yl(propyl)amino]butyl]-4-[4-[[1-[2-[2-[2-[2-[4-[[4-[4-[4-[2,3-dihydro-1H-inden-2-yl(propyl)amino]butylcarbamoyl]phenyl]phenoxy]methyl]triazol-1-yl]ethoxy]ethoxy]ethoxy]ethyl]triazol-4-yl]methoxy]phenyl]benzamide

> <PUBCHEM_IUPAC_SYSTEMATIC_NAME>
N-[4-[2,3-dihydro-1H-inden-2-yl(propyl)amino]butyl]-4-[4-[[1-[2-[2-[2-[2-[4-[[4-[4-[4-[2,3-dihydro-1H-inden-2-yl(propyl)amino]butylcarbamoyl]phenyl]phenoxy]methyl]-1,2,3-triazol-1-yl]ethoxy]ethoxy]ethoxy]ethyl]-1,2,3-triazol-4-yl]methoxy]phenyl]benzamide

> <PUBCHEM_IUPAC_TRADITIONAL_NAME>
N-[4-[indan-2-yl(propyl)amino]butyl]-4-[4-[[1-[2-[2-[2-[2-[4-[[4-[4-[4-[indan-2-yl(propyl)amino]butylcarbamoyl]phenyl]phenoxy]methyl]triazol-1-yl]ethoxy]ethoxy]ethoxy]ethyl]triazol-4-yl]methoxy]phenyl]benzamide

> <PUBCHEM_IUPAC_INCHI>
InChI=1S/C72H88N10O7/c1-3-35-79(67-47-61-13-5-6-14-62(61)48-67)37-11-9-33-73-71(83)59-21-17-55(18-22-59)57-25-29-69(30-26-57)88-53-65-51-81(77-75-65)39-41-85-43-45-87-46-44-86-42-40-82-52-66(76-78-82)54-89-70-31-27-58(28-32-70)56-19-23-60(24-20-56)72(84)74-34-10-12-38-80(36-4-2)68-49-63-15-7-8-16-64(63)50-68/h5-8,13-32,51-52,67-68H,3-4,9-12,33-50,53-54H2,1-2H3,(H,73,83)(H,74,84)

> <PUBCHEM_IUPAC_INCHIKEY>
ZHXPQJBVBDKOKM-UHFFFAOYSA-N

> <PUBCHEM_XLOGP3_AA>
10.8

> <PUBCHEM_EXACT_MASS>
1204.68374518

> <PUBCHEM_MOLECULAR_FORMULA>
C72H88N10O7

> <PUBCHEM_MOLECULAR_WEIGHT>
1205.5

> <PUBCHEM_OPENEYE_CAN_SMILES>
CCCN(CCCCNC(=O)C1=CC=C(C=C1)C2=CC=C(C=C2)OCC3=CN(N=N3)CCOCCOCCOCCN4C=C(N=N4)COC5=CC=C(C=C5)C6=CC=C(C=C6)C(=O)NCCCCN(CCC)C7CC8=CC=CC=C8C7)C9CC1=CC=CC=C1C9

> <PUBCHEM_OPENEYE_ISO_SMILES>
CCCN(CCCCNC(=O)C1=CC=C(C=C1)C2=CC=C(C=C2)OCC3=CN(N=N3)CCOCCOCCOCCN4C=C(N=N4)COC5=CC=C(C=C5)C6=CC=C(C=C6)C(=O)NCCCCN(CCC)C7CC8=CC=CC=C8C7)C9CC1=CC=CC=C1C9

> <PUBCHEM_CACTVS_TPSA>
172

> <PUBCHEM_MONOISOTOPIC_WEIGHT>
1204.68374518

> <PUBCHEM_TOTAL_CHARGE>
0

> <PUBCHEM_HEAVY_ATOM_COUNT>
89

> <PUBCHEM_ATOM_DEF_STEREO_COUNT>
0

> <PUBCHEM_ATOM_UDEF_STEREO_COUNT>
0

> <PUBCHEM_BOND_DEF_STEREO_COUNT>
0

> <PUBCHEM_BOND_UDEF_STEREO_COUNT>
0

> <PUBCHEM_ISOTOPIC_ATOM_COUNT>
0

> <PUBCHEM_COMPONENT_COUNT>
1

> <PUBCHEM_CACTVS_TAUTO_COUNT>
-1

> <PUBCHEM_COORDINATE_TYPE>
1
5
255

> <PUBCHEM_BONDANNOTATIONS>
12  16  8
12  80  8
13  17  8
13  81  8
14  16  8
14  78  8
15  17  8
15  79  8
24  25  8
24  34  8
25  35  8
26  27  8
26  36  8
27  37  8
34  42  8
35  43  8
36  44  8
37  45  8
42  43  8
44  45  8
52  54  8
52  56  8
53  55  8
53  57  8
54  58  8
55  59  8
56  60  8
57  61  8
58  62  8
59  63  8
60  62  8
61  63  8
64  66  8
64  68  8
65  67  8
65  69  8
66  70  8
67  71  8
68  72  8
69  73  8
70  74  8
71  75  8
72  74  8
73  75  8
78  80  8
79  81  8

$$$$
