44324017
  -OEChem-09292322152D

 43 45  0     1  0  0  0  0  0999 V2000
    4.6783   -2.6801    0.0000 N   0  0  0  0  0  0  0  0  0  0  0  0
    4.6318    1.5747    0.0000 N   0  0  3  0  0  0  0  0  0  0  0  0
    4.6783   -1.0707    0.0000 C   0  0  0  0  0  0  0  0  0  0  0  0
    4.9889   -0.1202    0.0000 C   0  0  0  0  0  0  0  0  0  0  0  0
    3.7320   -1.3754    0.0000 C   0  0  0  0  0  0  0  0  0  0  0  0
    5.2619   -1.8754    0.0000 C   0  0  0  0  0  0  0  0  0  0  0  0
    4.3211    0.6241    0.0000 C   0  0  0  0  0  0  0  0  0  0  0  0
    3.7320   -2.3754    0.0000 C   0  0  0  0  0  0  0  0  0  0  0  0
    6.2619   -1.8754    0.0000 C   0  0  0  0  0  0  0  0  0  0  0  0
    2.8660   -0.8754    0.0000 C   0  0  0  0  0  0  0  0  0  0  0  0
    3.9639    2.3190    0.0000 C   0  0  0  0  0  0  0  0  0  0  0  0
    2.8660   -2.8754    0.0000 C   0  0  0  0  0  0  0  0  0  0  0  0
    5.6103    1.7809    0.0000 C   0  0  0  0  0  0  0  0  0  0  0  0
    2.0000   -1.3754    0.0000 C   0  0  0  0  0  0  0  0  0  0  0  0
    2.0000   -2.3754    0.0000 C   0  0  0  0  0  0  0  0  0  0  0  0
    6.7619   -2.7414    0.0000 C   0  0  0  0  0  0  0  0  0  0  0  0
    6.7619   -1.0094    0.0000 C   0  0  0  0  0  0  0  0  0  0  0  0
    4.2746    3.2695    0.0000 C   0  0  0  0  0  0  0  0  0  0  0  0
    7.7619   -2.7414    0.0000 C   0  0  0  0  0  0  0  0  0  0  0  0
    7.7619   -1.0094    0.0000 C   0  0  0  0  0  0  0  0  0  0  0  0
    8.2619   -1.8754    0.0000 C   0  0  0  0  0  0  0  0  0  0  0  0
    5.5359   -0.4122    0.0000 H   0  0  0  0  0  0  0  0  0  0  0  0
    5.3715    0.3677    0.0000 H   0  0  0  0  0  0  0  0  0  0  0  0
    3.7742    0.9162    0.0000 H   0  0  0  0  0  0  0  0  0  0  0  0
    3.9385    0.1362    0.0000 H   0  0  0  0  0  0  0  0  0  0  0  0
    4.8709   -3.2695    0.0000 H   0  0  0  0  0  0  0  0  0  0  0  0
    2.8660   -0.2554    0.0000 H   0  0  0  0  0  0  0  0  0  0  0  0
    3.4170    2.6110    0.0000 H   0  0  0  0  0  0  0  0  0  0  0  0
    3.5814    1.8310    0.0000 H   0  0  0  0  0  0  0  0  0  0  0  0
    2.8660   -3.4954    0.0000 H   0  0  0  0  0  0  0  0  0  0  0  0
    5.7381    1.1742    0.0000 H   0  0  0  0  0  0  0  0  0  0  0  0
    6.2169    1.9087    0.0000 H   0  0  0  0  0  0  0  0  0  0  0  0
    5.4824    2.3876    0.0000 H   0  0  0  0  0  0  0  0  0  0  0  0
    1.4631   -1.0654    0.0000 H   0  0  0  0  0  0  0  0  0  0  0  0
    1.4631   -2.6854    0.0000 H   0  0  0  0  0  0  0  0  0  0  0  0
    6.4519   -3.2784    0.0000 H   0  0  0  0  0  0  0  0  0  0  0  0
    6.4519   -0.4725    0.0000 H   0  0  0  0  0  0  0  0  0  0  0  0
    4.8639    3.0769    0.0000 H   0  0  0  0  0  0  0  0  0  0  0  0
    4.4672    3.8588    0.0000 H   0  0  0  0  0  0  0  0  0  0  0  0
    3.6852    3.4621    0.0000 H   0  0  0  0  0  0  0  0  0  0  0  0
    8.0719   -3.2784    0.0000 H   0  0  0  0  0  0  0  0  0  0  0  0
    8.0719   -0.4725    0.0000 H   0  0  0  0  0  0  0  0  0  0  0  0
    8.8819   -1.8754    0.0000 H   0  0  0  0  0  0  0  0  0  0  0  0
  1  6  1  0  0  0  0
  1  8  1  0  0  0  0
  1 26  1  0  0  0  0
  2  7  1  0  0  0  0
  2 11  1  0  0  0  0
  2 13  1  0  0  0  0
  3  4  1  0  0  0  0
  3  5  1  0  0  0  0
  3  6  2  0  0  0  0
  4  7  1  0  0  0  0
  4 22  1  0  0  0  0
  4 23  1  0  0  0  0
  5  8  1  0  0  0  0
  5 10  2  0  0  0  0
  6  9  1  0  0  0  0
  7 24  1  0  0  0  0
  7 25  1  0  0  0  0
  8 12  2  0  0  0  0
  9 16  2  0  0  0  0
  9 17  1  0  0  0  0
 10 14  1  0  0  0  0
 10 27  1  0  0  0  0
 11 18  1  0  0  0  0
 11 28  1  0  0  0  0
 11 29  1  0  0  0  0
 12 15  1  0  0  0  0
 12 30  1  0  0  0  0
 13 31  1  0  0  0  0
 13 32  1  0  0  0  0
 13 33  1  0  0  0  0
 14 15  2  0  0  0  0
 14 34  1  0  0  0  0
 15 35  1  0  0  0  0
 16 19  1  0  0  0  0
 16 36  1  0  0  0  0
 17 20  2  0  0  0  0
 17 37  1  0  0  0  0
 18 38  1  0  0  0  0
 18 39  1  0  0  0  0
 18 40  1  0  0  0  0
 19 21  2  0  0  0  0
 19 41  1  0  0  0  0
 20 21  1  0  0  0  0
 20 42  1  0  0  0  0
 21 43  1  0  0  0  0
M  END
> <PUBCHEM_COMPOUND_CID>
44324017

> <PUBCHEM_COMPOUND_CANONICALIZED>
1

> <PUBCHEM_CACTVS_COMPLEXITY>
311

> <PUBCHEM_CACTVS_HBOND_ACCEPTOR>
1

> <PUBCHEM_CACTVS_HBOND_DONOR>
1

> <PUBCHEM_CACTVS_ROTATABLE_BOND>
5

> <PUBCHEM_CACTVS_SUBSKEYS>
AAADceB7AAAAAAAAAAAAAAAAAAAAAWAAAAAwYAAAAAAAAFgB9AAAHAAQAAAADAjBHgQywPPJkACgAyRiRACCgCAhAiAImSA4ZJgIIOLAkZGEIAhgkADIyAcQgMAOgAAAAAACAAAAAAAAAAQAAAAAAAAAAA==

> <PUBCHEM_IUPAC_OPENEYE_NAME>
N-ethyl-N-methyl-2-(2-phenyl-1H-indol-3-yl)ethanamine

> <PUBCHEM_IUPAC_CAS_NAME>
N-ethyl-N-methyl-2-(2-phenyl-1H-indol-3-yl)ethanamine

> <PUBCHEM_IUPAC_NAME_MARKUP>
<I>N</I>-ethyl-<I>N</I>-methyl-2-(2-phenyl-1<I>H</I>-indol-3-yl)ethanamine

> <PUBCHEM_IUPAC_NAME>
N-ethyl-N-methyl-2-(2-phenyl-1H-indol-3-yl)ethanamine

> <PUBCHEM_IUPAC_SYSTEMATIC_NAME>
N-ethyl-N-methyl-2-(2-phenyl-1H-indol-3-yl)ethanamine

> <PUBCHEM_IUPAC_TRADITIONAL_NAME>
ethyl-methyl-[2-(2-phenyl-1H-indol-3-yl)ethyl]amine

> <PUBCHEM_IUPAC_INCHI>
InChI=1S/C19H22N2/c1-3-21(2)14-13-17-16-11-7-8-12-18(16)20-19(17)15-9-5-4-6-10-15/h4-12,20H,3,13-14H2,1-2H3

> <PUBCHEM_IUPAC_INCHIKEY>
GRZHXPBQXHUQHO-UHFFFAOYSA-N

> <PUBCHEM_XLOGP3_AA>
4.4

> <PUBCHEM_EXACT_MASS>
278.178298710

> <PUBCHEM_MOLECULAR_FORMULA>
C19H22N2

> <PUBCHEM_MOLECULAR_WEIGHT>
278.4

> <PUBCHEM_OPENEYE_CAN_SMILES>
CCN(C)CCC1=C(NC2=CC=CC=C21)C3=CC=CC=C3

> <PUBCHEM_OPENEYE_ISO_SMILES>
CCN(C)CCC1=C(NC2=CC=CC=C21)C3=CC=CC=C3

> <PUBCHEM_CACTVS_TPSA>
19

> <PUBCHEM_MONOISOTOPIC_WEIGHT>
278.178298710

> <PUBCHEM_TOTAL_CHARGE>
0

> <PUBCHEM_HEAVY_ATOM_COUNT>
21

> <PUBCHEM_ATOM_DEF_STEREO_COUNT>
0

> <PUBCHEM_ATOM_UDEF_STEREO_COUNT>
0

> <PUBCHEM_BOND_DEF_STEREO_COUNT>
0

> <PUBCHEM_BOND_UDEF_STEREO_COUNT>
0

> <PUBCHEM_ISOTOPIC_ATOM_COUNT>
0

> <PUBCHEM_COMPONENT_COUNT>
1

> <PUBCHEM_CACTVS_TAUTO_COUNT>
-1

> <PUBCHEM_COORDINATE_TYPE>
1
5
255

> <PUBCHEM_BONDANNOTATIONS>
1  6  8
1  8  8
10  14  8
12  15  8
14  15  8
16  19  8
17  20  8
19  21  8
20  21  8
3  5  8
3  6  8
5  10  8
5  8  8
8  12  8
9  16  8
9  17  8

$$$$
