155530350
  -OEChem-09292322412D

 68 71  0     1  0  0  0  0  0999 V2000
   13.9888    6.1189    0.0000 Cl  0  0  0  0  0  0  0  0  0  0  0  0
   10.2113    3.5789    0.0000 S   0  0  0  0  0  0  0  0  0  0  0  0
    0.3054   12.7402    0.0000 F   0  0  0  0  0  0  0  0  0  0  0  0
    0.0000   11.3594    0.0000 F   0  0  0  0  0  0  0  0  0  0  0  0
    1.6862   12.4349    0.0000 F   0  0  0  0  0  0  0  0  0  0  0  0
   10.1901    4.5787    0.0000 O   0  0  0  0  0  0  0  0  0  0  0  0
   11.1556    3.9080    0.0000 O   0  0  0  0  0  0  0  0  0  0  0  0
    4.0696    6.8385    0.0000 N   0  0  0  0  0  0  0  0  0  0  0  0
    2.9941    8.5247    0.0000 N   0  0  0  0  0  0  0  0  0  0  0  0
    9.2176    3.5985    0.0000 N   0  0  3  0  0  0  0  0  0  0  0  0
    4.6073    5.9954    0.0000 C   0  0  0  0  0  0  0  0  0  0  0  0
    4.5309    7.7257    0.0000 C   0  0  0  0  0  0  0  0  0  0  0  0
    3.0706    6.7943    0.0000 C   0  0  0  0  0  0  0  0  0  0  0  0
    5.6064    6.0395    0.0000 C   0  0  0  0  0  0  0  0  0  0  0  0
    3.9931    8.5688    0.0000 C   0  0  0  0  0  0  0  0  0  0  0  0
    2.5328    7.6374    0.0000 C   0  0  0  0  0  0  0  0  0  0  0  0
    6.1441    5.1964    0.0000 C   0  0  0  0  0  0  0  0  0  0  0  0
    7.1431    5.2406    0.0000 C   0  0  0  0  0  0  0  0  0  0  0  0
    8.6799    4.4416    0.0000 C   0  0  0  0  0  0  0  0  0  0  0  0
    7.6809    4.3975    0.0000 C   0  0  0  0  0  0  0  0  0  0  0  0
    8.8164    2.6893    0.0000 C   0  0  0  0  0  0  0  0  0  0  0  0
    9.7104    2.1546    0.0000 C   0  0  0  0  0  0  0  0  0  0  0  0
   10.5764    2.6546    0.0000 C   0  0  0  0  0  0  0  0  0  0  0  0
    2.4564    9.3678    0.0000 C   0  0  0  0  0  0  0  0  0  0  0  0
    9.7104    1.1546    0.0000 C   0  0  0  0  0  0  0  0  0  0  0  0
    7.9104    2.1754    0.0000 C   0  0  0  0  0  0  0  0  0  0  0  0
   11.4424    2.1546    0.0000 C   0  0  0  0  0  0  0  0  0  0  0  0
    8.8164    0.6200    0.0000 C   0  0  0  0  0  0  0  0  0  0  0  0
   10.5764    0.6546    0.0000 C   0  0  0  0  0  0  0  0  0  0  0  0
    7.9104    1.1338    0.0000 C   0  0  0  0  0  0  0  0  0  0  0  0
   11.4424    1.1546    0.0000 C   0  0  0  0  0  0  0  0  0  0  0  0
    1.4573    9.3237    0.0000 C   0  0  0  0  0  0  0  0  0  0  0  0
    2.9176   10.2551    0.0000 C   0  0  0  0  0  0  0  0  0  0  0  0
    0.9196   10.1668    0.0000 C   0  0  0  0  0  0  0  0  0  0  0  0
    2.3799   11.0982    0.0000 C   0  0  0  0  0  0  0  0  0  0  0  0
    1.3808   11.0540    0.0000 C   0  0  0  0  0  0  0  0  0  0  0  0
    0.8431   11.8971    0.0000 C   0  0  0  0  0  0  0  0  0  0  0  0
    4.0346    5.7578    0.0000 H   0  0  0  0  0  0  0  0  0  0  0  0
    4.7418    5.3902    0.0000 H   0  0  0  0  0  0  0  0  0  0  0  0
    5.0229    7.3486    0.0000 H   0  0  0  0  0  0  0  0  0  0  0  0
    4.9878    8.1448    0.0000 H   0  0  0  0  0  0  0  0  0  0  0  0
    2.4979    6.5568    0.0000 H   0  0  0  0  0  0  0  0  0  0  0  0
    3.2051    6.1891    0.0000 H   0  0  0  0  0  0  0  0  0  0  0  0
    6.1790    6.2771    0.0000 H   0  0  0  0  0  0  0  0  0  0  0  0
    5.4718    6.6448    0.0000 H   0  0  0  0  0  0  0  0  0  0  0  0
    4.5658    8.8064    0.0000 H   0  0  0  0  0  0  0  0  0  0  0  0
    3.8586    9.1741    0.0000 H   0  0  0  0  0  0  0  0  0  0  0  0
    2.0407    8.0146    0.0000 H   0  0  0  0  0  0  0  0  0  0  0  0
    2.0759    7.2183    0.0000 H   0  0  0  0  0  0  0  0  0  0  0  0
    5.5714    4.9589    0.0000 H   0  0  0  0  0  0  0  0  0  0  0  0
    6.2786    4.5912    0.0000 H   0  0  0  0  0  0  0  0  0  0  0  0
    7.7158    5.4781    0.0000 H   0  0  0  0  0  0  0  0  0  0  0  0
    7.0086    5.8458    0.0000 H   0  0  0  0  0  0  0  0  0  0  0  0
    9.2526    4.6792    0.0000 H   0  0  0  0  0  0  0  0  0  0  0  0
    8.5454    5.0468    0.0000 H   0  0  0  0  0  0  0  0  0  0  0  0
    7.1082    4.1599    0.0000 H   0  0  0  0  0  0  0  0  0  0  0  0
    7.8154    3.7922    0.0000 H   0  0  0  0  0  0  0  0  0  0  0  0
    7.3746    2.4875    0.0000 H   0  0  0  0  0  0  0  0  0  0  0  0
   11.9793    2.4646    0.0000 H   0  0  0  0  0  0  0  0  0  0  0  0
    8.8236    0.0000    0.0000 H   0  0  0  0  0  0  0  0  0  0  0  0
   10.5764    0.0346    0.0000 H   0  0  0  0  0  0  0  0  0  0  0  0
    7.3746    0.8217    0.0000 H   0  0  0  0  0  0  0  0  0  0  0  0
   11.9793    0.8446    0.0000 H   0  0  0  0  0  0  0  0  0  0  0  0
    1.1713    8.7736    0.0000 H   0  0  0  0  0  0  0  0  0  0  0  0
    3.5370   10.2824    0.0000 H   0  0  0  0  0  0  0  0  0  0  0  0
    0.3002   10.1394    0.0000 H   0  0  0  0  0  0  0  0  0  0  0  0
    2.6659   11.6483    0.0000 H   0  0  0  0  0  0  0  0  0  0  0  0
   14.9888    6.1189    0.0000 H   0  0  0  0  0  0  0  0  0  0  0  0
  1 68  1  0  0  0  0
  2  6  2  0  0  0  0
  2  7  2  0  0  0  0
  2 10  1  0  0  0  0
  2 23  1  0  0  0  0
  3 37  1  0  0  0  0
  4 37  1  0  0  0  0
  5 37  1  0  0  0  0
  8 11  1  0  0  0  0
  8 12  1  0  0  0  0
  8 13  1  0  0  0  0
  9 15  1  0  0  0  0
  9 16  1  0  0  0  0
  9 24  1  0  0  0  0
 10 19  1  0  0  0  0
 10 21  1  0  0  0  0
 11 14  1  0  0  0  0
 11 38  1  0  0  0  0
 11 39  1  0  0  0  0
 12 15  1  0  0  0  0
 12 40  1  0  0  0  0
 12 41  1  0  0  0  0
 13 16  1  0  0  0  0
 13 42  1  0  0  0  0
 13 43  1  0  0  0  0
 14 17  1  0  0  0  0
 14 44  1  0  0  0  0
 14 45  1  0  0  0  0
 15 46  1  0  0  0  0
 15 47  1  0  0  0  0
 16 48  1  0  0  0  0
 16 49  1  0  0  0  0
 17 18  1  0  0  0  0
 17 50  1  0  0  0  0
 17 51  1  0  0  0  0
 18 20  1  0  0  0  0
 18 52  1  0  0  0  0
 18 53  1  0  0  0  0
 19 20  1  0  0  0  0
 19 54  1  0  0  0  0
 19 55  1  0  0  0  0
 20 56  1  0  0  0  0
 20 57  1  0  0  0  0
 21 22  1  0  0  0  0
 21 26  2  0  0  0  0
 22 23  1  0  0  0  0
 22 25  2  0  0  0  0
 23 27  2  0  0  0  0
 24 32  2  0  0  0  0
 24 33  1  0  0  0  0
 25 28  1  0  0  0  0
 25 29  1  0  0  0  0
 26 30  1  0  0  0  0
 26 58  1  0  0  0  0
 27 31  1  0  0  0  0
 27 59  1  0  0  0  0
 28 30  2  0  0  0  0
 28 60  1  0  0  0  0
 29 31  2  0  0  0  0
 29 61  1  0  0  0  0
 30 62  1  0  0  0  0
 31 63  1  0  0  0  0
 32 34  1  0  0  0  0
 32 64  1  0  0  0  0
 33 35  2  0  0  0  0
 33 65  1  0  0  0  0
 34 36  2  0  0  0  0
 34 66  1  0  0  0  0
 35 36  1  0  0  0  0
 35 67  1  0  0  0  0
 36 37  1  0  0  0  0
M  END
> <PUBCHEM_COMPOUND_CID>
155530350

> <PUBCHEM_COMPOUND_CANONICALIZED>
1

> <PUBCHEM_CACTVS_COMPLEXITY>
817

> <PUBCHEM_CACTVS_HBOND_ACCEPTOR>
8

> <PUBCHEM_CACTVS_HBOND_DONOR>
1

> <PUBCHEM_CACTVS_ROTATABLE_BOND>
8

> <PUBCHEM_CACTVS_SUBSKEYS>
AAADceB7MYBEAAAAAAAAAAAAAAAAAWAAAAA8YMEAAAAAAFjBVAAAHQQAQAAADAjBWBQwwcMAAAKAAiRCQHDCABAhAgAIiBgIZIgIYCLAkZGUIAxggADIyAcQgIAOiAAAwAAWAAAQAAGAACwAAAAAAAAAAA==

> <PUBCHEM_IUPAC_OPENEYE_NAME>
3-[6-[4-[4-(trifluoromethyl)phenyl]piperazin-1-yl]hexyl]-2lambda6-thia-3-azatricyclo[6.3.1.04,12]dodeca-1(11),4,6,8(12),9-pentaene 2,2-dioxide;hydrochloride

> <PUBCHEM_IUPAC_CAS_NAME>
3-[6-[4-[4-(trifluoromethyl)phenyl]-1-piperazinyl]hexyl]-2lambda6-thia-3-azatricyclo[6.3.1.04,12]dodeca-1(11),4,6,8(12),9-pentaene 2,2-dioxide;hydrochloride

> <PUBCHEM_IUPAC_NAME_MARKUP>
3-[6-[4-[4-(trifluoromethyl)phenyl]piperazin-1-yl]hexyl]-2&lambda;<SUP>6</SUP>-thia-3-azatricyclo[6.3.1.0<SUP>4,12</SUP>]dodeca-1(11),4,6,8(12),9-pentaene 2,2-dioxide;hydrochloride

> <PUBCHEM_IUPAC_NAME>
3-[6-[4-[4-(trifluoromethyl)phenyl]piperazin-1-yl]hexyl]-2lambda6-thia-3-azatricyclo[6.3.1.04,12]dodeca-1(11),4,6,8(12),9-pentaene 2,2-dioxide;hydrochloride

> <PUBCHEM_IUPAC_SYSTEMATIC_NAME>
3-[6-[4-[4-(trifluoromethyl)phenyl]piperazin-1-yl]hexyl]-2lambda6-thia-3-azatricyclo[6.3.1.04,12]dodeca-1(11),4,6,8(12),9-pentaene 2,2-dioxide;hydrochloride

> <PUBCHEM_IUPAC_TRADITIONAL_NAME>
3-[6-[4-[4-(trifluoromethyl)phenyl]piperazino]hexyl]-2lambda6-thia-3-azatricyclo[6.3.1.04,12]dodeca-1(11),4,6,8(12),9-pentaene 2,2-dioxide;hydrochloride

> <PUBCHEM_IUPAC_INCHI>
InChI=1S/C27H30F3N3O2S.ClH/c28-27(29,30)22-11-13-23(14-12-22)32-19-17-31(18-20-32)15-3-1-2-4-16-33-24-9-5-7-21-8-6-10-25(26(21)24)36(33,34)35;/h5-14H,1-4,15-20H2;1H

> <PUBCHEM_IUPAC_INCHIKEY>
JEDORQMDIGPHLR-UHFFFAOYSA-N

> <PUBCHEM_EXACT_MASS>
553.1777606

> <PUBCHEM_MOLECULAR_FORMULA>
C27H31ClF3N3O2S

> <PUBCHEM_MOLECULAR_WEIGHT>
554.1

> <PUBCHEM_OPENEYE_CAN_SMILES>
C1CN(CCN1CCCCCCN2C3=CC=CC4=C3C(=CC=C4)S2(=O)=O)C5=CC=C(C=C5)C(F)(F)F.Cl

> <PUBCHEM_OPENEYE_ISO_SMILES>
C1CN(CCN1CCCCCCN2C3=CC=CC4=C3C(=CC=C4)S2(=O)=O)C5=CC=C(C=C5)C(F)(F)F.Cl

> <PUBCHEM_CACTVS_TPSA>
52.2

> <PUBCHEM_MONOISOTOPIC_WEIGHT>
553.1777606

> <PUBCHEM_TOTAL_CHARGE>
0

> <PUBCHEM_HEAVY_ATOM_COUNT>
37

> <PUBCHEM_ATOM_DEF_STEREO_COUNT>
0

> <PUBCHEM_ATOM_UDEF_STEREO_COUNT>
0

> <PUBCHEM_BOND_DEF_STEREO_COUNT>
0

> <PUBCHEM_BOND_UDEF_STEREO_COUNT>
0

> <PUBCHEM_ISOTOPIC_ATOM_COUNT>
0

> <PUBCHEM_COMPONENT_COUNT>
2

> <PUBCHEM_CACTVS_TAUTO_COUNT>
-1

> <PUBCHEM_COORDINATE_TYPE>
1
5
255

> <PUBCHEM_BONDANNOTATIONS>
21  22  8
21  26  8
22  23  8
22  25  8
23  27  8
24  32  8
24  33  8
25  28  8
25  29  8
26  30  8
27  31  8
28  30  8
29  31  8
32  34  8
33  35  8
34  36  8
35  36  8

$$$$
