71462179
  -OEChem-09292322332D

 53 56  0     1  0  0  0  0  0999 V2000
    3.8968   -1.8638    0.0000 S   0  0  0  0  0  0  0  0  0  0  0  0
    2.3090   -2.6729    0.0000 S   0  0  0  0  0  0  0  0  0  0  0  0
    8.7938    1.1770    0.0000 O   0  0  0  0  0  0  0  0  0  0  0  0
    3.0878   -1.2761    0.0000 O   0  0  0  0  0  0  0  0  0  0  0  0
    4.7058   -2.4516    0.0000 O   0  0  0  0  0  0  0  0  0  0  0  0
    7.0618   -0.8230    0.0000 N   0  0  3  0  0  0  0  0  0  0  0  0
    4.4846   -1.0548    0.0000 N   0  0  0  0  0  0  0  0  0  0  0  0
    5.4791   -1.1594    0.0000 C   0  0  3  0  0  0  0  0  0  0  0  0
    6.1482   -0.4162    0.0000 C   0  0  0  0  0  0  0  0  0  0  0  0
    5.9791   -2.0254    0.0000 C   0  0  0  0  0  0  0  0  0  0  0  0
    6.9573   -1.8175    0.0000 C   0  0  0  0  0  0  0  0  0  0  0  0
    7.9278   -0.3230    0.0000 C   0  0  0  0  0  0  0  0  0  0  0  0
    7.9278    0.6770    0.0000 C   0  0  0  0  0  0  0  0  0  0  0  0
    9.6599    2.6770    0.0000 C   0  0  0  0  0  0  0  0  0  0  0  0
   10.5538    2.1424    0.0000 C   0  0  0  0  0  0  0  0  0  0  0  0
   11.4599    2.6562    0.0000 C   0  0  0  0  0  0  0  0  0  0  0  0
   11.4599    3.6979    0.0000 C   0  0  0  0  0  0  0  0  0  0  0  0
   10.5538    4.2117    0.0000 C   0  0  0  0  0  0  0  0  0  0  0  0
    9.6599    3.6770    0.0000 C   0  0  0  0  0  0  0  0  0  0  0  0
    8.7938    2.1770    0.0000 C   0  0  0  0  0  0  0  0  0  0  0  0
    3.3090   -2.6729    0.0000 C   0  0  0  0  0  0  0  0  0  0  0  0
    8.7938    4.1771    0.0000 C   0  0  0  0  0  0  0  0  0  0  0  0
    7.9278    2.6770    0.0000 C   0  0  0  0  0  0  0  0  0  0  0  0
    7.9278    3.6770    0.0000 C   0  0  0  0  0  0  0  0  0  0  0  0
    3.6180   -3.6239    0.0000 C   0  0  0  0  0  0  0  0  0  0  0  0
    2.8090   -4.2117    0.0000 C   0  0  0  0  0  0  0  0  0  0  0  0
    2.0000   -3.6239    0.0000 C   0  0  0  0  0  0  0  0  0  0  0  0
    5.1414   -1.6793    0.0000 H   0  0  0  0  0  0  0  0  0  0  0  0
    6.4582    0.1207    0.0000 H   0  0  0  0  0  0  0  0  0  0  0  0
    5.6466   -0.0518    0.0000 H   0  0  0  0  0  0  0  0  0  0  0  0
    5.4127   -2.2776    0.0000 H   0  0  0  0  0  0  0  0  0  0  0  0
    6.1707   -2.6150    0.0000 H   0  0  0  0  0  0  0  0  0  0  0  0
    7.0221   -2.4341    0.0000 H   0  0  0  0  0  0  0  0  0  0  0  0
    7.5773   -1.8175    0.0000 H   0  0  0  0  0  0  0  0  0  0  0  0
    8.1399   -0.9056    0.0000 H   0  0  0  0  0  0  0  0  0  0  0  0
    8.5384   -0.2153    0.0000 H   0  0  0  0  0  0  0  0  0  0  0  0
    4.2324   -0.4884    0.0000 H   0  0  0  0  0  0  0  0  0  0  0  0
    7.7158    1.2597    0.0000 H   0  0  0  0  0  0  0  0  0  0  0  0
    7.3172    0.5694    0.0000 H   0  0  0  0  0  0  0  0  0  0  0  0
   10.1492    1.6726    0.0000 H   0  0  0  0  0  0  0  0  0  0  0  0
   10.9474    1.6634    0.0000 H   0  0  0  0  0  0  0  0  0  0  0  0
   11.6689    2.0725    0.0000 H   0  0  0  0  0  0  0  0  0  0  0  0
   12.0707    2.7623    0.0000 H   0  0  0  0  0  0  0  0  0  0  0  0
   12.0707    3.5918    0.0000 H   0  0  0  0  0  0  0  0  0  0  0  0
   11.6689    4.2816    0.0000 H   0  0  0  0  0  0  0  0  0  0  0  0
   10.9474    4.6907    0.0000 H   0  0  0  0  0  0  0  0  0  0  0  0
   10.1492    4.6815    0.0000 H   0  0  0  0  0  0  0  0  0  0  0  0
    8.7938    4.7970    0.0000 H   0  0  0  0  0  0  0  0  0  0  0  0
    7.3909    2.3670    0.0000 H   0  0  0  0  0  0  0  0  0  0  0  0
    7.3909    3.9870    0.0000 H   0  0  0  0  0  0  0  0  0  0  0  0
    4.2077   -3.8155    0.0000 H   0  0  0  0  0  0  0  0  0  0  0  0
    2.8090   -4.8317    0.0000 H   0  0  0  0  0  0  0  0  0  0  0  0
    1.4103   -3.8155    0.0000 H   0  0  0  0  0  0  0  0  0  0  0  0
  1  4  2  0  0  0  0
  1  5  2  0  0  0  0
  1  7  1  0  0  0  0
  1 21  1  0  0  0  0
  2 21  1  0  0  0  0
  2 27  1  0  0  0  0
  3 13  1  0  0  0  0
  3 20  1  0  0  0  0
  6  9  1  0  0  0  0
  6 11  1  0  0  0  0
  6 12  1  0  0  0  0
  7  8  1  0  0  0  0
  7 37  1  0  0  0  0
  8  9  1  0  0  0  0
  8 10  1  0  0  0  0
  8 28  1  0  0  0  0
  9 29  1  0  0  0  0
  9 30  1  0  0  0  0
 10 11  1  0  0  0  0
 10 31  1  0  0  0  0
 10 32  1  0  0  0  0
 11 33  1  0  0  0  0
 11 34  1  0  0  0  0
 12 13  1  0  0  0  0
 12 35  1  0  0  0  0
 12 36  1  0  0  0  0
 13 38  1  0  0  0  0
 13 39  1  0  0  0  0
 14 15  1  0  0  0  0
 14 19  2  0  0  0  0
 14 20  1  0  0  0  0
 15 16  1  0  0  0  0
 15 40  1  0  0  0  0
 15 41  1  0  0  0  0
 16 17  1  0  0  0  0
 16 42  1  0  0  0  0
 16 43  1  0  0  0  0
 17 18  1  0  0  0  0
 17 44  1  0  0  0  0
 17 45  1  0  0  0  0
 18 19  1  0  0  0  0
 18 46  1  0  0  0  0
 18 47  1  0  0  0  0
 19 22  1  0  0  0  0
 20 23  2  0  0  0  0
 21 25  2  0  0  0  0
 22 24  2  0  0  0  0
 22 48  1  0  0  0  0
 23 24  1  0  0  0  0
 23 49  1  0  0  0  0
 24 50  1  0  0  0  0
 25 26  1  0  0  0  0
 25 51  1  0  0  0  0
 26 27  2  0  0  0  0
 26 52  1  0  0  0  0
 27 53  1  0  0  0  0
M  END
> <PUBCHEM_COMPOUND_CID>
71462179

> <PUBCHEM_COMPOUND_CANONICALIZED>
1

> <PUBCHEM_CACTVS_COMPLEXITY>
580

> <PUBCHEM_CACTVS_HBOND_ACCEPTOR>
6

> <PUBCHEM_CACTVS_HBOND_DONOR>
1

> <PUBCHEM_CACTVS_ROTATABLE_BOND>
7

> <PUBCHEM_CACTVS_SUBSKEYS>
AAADceB7MABgAAAAAAAAAAAAAAAAAWJAAAAwYAAAAAAAAADBwAAAHgQQQAAADCzl2AawB4NABAqEAiBCAHBDCZAgKBBIiJgOCIgOZiKk8RqXOCCk0BG4qAeAwLAOgAABAAAYAAAAAAIAADAAAAAAAAAAAA==

> <PUBCHEM_IUPAC_OPENEYE_NAME>
N-[1-(2-tetralin-5-yloxyethyl)pyrrolidin-3-yl]thiophene-2-sulfonamide

> <PUBCHEM_IUPAC_CAS_NAME>
N-[1-[2-(5,6,7,8-tetrahydronaphthalen-1-yloxy)ethyl]-3-pyrrolidinyl]-2-thiophenesulfonamide

> <PUBCHEM_IUPAC_NAME_MARKUP>
<I>N</I>-[1-[2-(5,6,7,8-tetrahydronaphthalen-1-yloxy)ethyl]pyrrolidin-3-yl]thiophene-2-sulfonamide

> <PUBCHEM_IUPAC_NAME>
N-[1-[2-(5,6,7,8-tetrahydronaphthalen-1-yloxy)ethyl]pyrrolidin-3-yl]thiophene-2-sulfonamide

> <PUBCHEM_IUPAC_SYSTEMATIC_NAME>
N-[1-[2-(5,6,7,8-tetrahydronaphthalen-1-yloxy)ethyl]pyrrolidin-3-yl]thiophene-2-sulfonamide

> <PUBCHEM_IUPAC_TRADITIONAL_NAME>
N-[1-(2-tetralin-5-yloxyethyl)pyrrolidin-3-yl]thiophene-2-sulfonamide

> <PUBCHEM_IUPAC_INCHI>
InChI=1S/C20H26N2O3S2/c23-27(24,20-9-4-14-26-20)21-17-10-11-22(15-17)12-13-25-19-8-3-6-16-5-1-2-7-18(16)19/h3-4,6,8-9,14,17,21H,1-2,5,7,10-13,15H2

> <PUBCHEM_IUPAC_INCHIKEY>
MXELMKSJXSFSDI-UHFFFAOYSA-N

> <PUBCHEM_XLOGP3_AA>
4.2

> <PUBCHEM_EXACT_MASS>
406.13848504

> <PUBCHEM_MOLECULAR_FORMULA>
C20H26N2O3S2

> <PUBCHEM_MOLECULAR_WEIGHT>
406.6

> <PUBCHEM_OPENEYE_CAN_SMILES>
C1CCC2=C(C1)C=CC=C2OCCN3CCC(C3)NS(=O)(=O)C4=CC=CS4

> <PUBCHEM_OPENEYE_ISO_SMILES>
C1CCC2=C(C1)C=CC=C2OCCN3CCC(C3)NS(=O)(=O)C4=CC=CS4

> <PUBCHEM_CACTVS_TPSA>
95.3

> <PUBCHEM_MONOISOTOPIC_WEIGHT>
406.13848504

> <PUBCHEM_TOTAL_CHARGE>
0

> <PUBCHEM_HEAVY_ATOM_COUNT>
27

> <PUBCHEM_ATOM_DEF_STEREO_COUNT>
0

> <PUBCHEM_ATOM_UDEF_STEREO_COUNT>
1

> <PUBCHEM_BOND_DEF_STEREO_COUNT>
0

> <PUBCHEM_BOND_UDEF_STEREO_COUNT>
0

> <PUBCHEM_ISOTOPIC_ATOM_COUNT>
0

> <PUBCHEM_COMPONENT_COUNT>
1

> <PUBCHEM_CACTVS_TAUTO_COUNT>
-1

> <PUBCHEM_COORDINATE_TYPE>
1
5
255

> <PUBCHEM_BONDANNOTATIONS>
14  19  8
14  20  8
19  22  8
2  21  8
2  27  8
20  23  8
21  25  8
22  24  8
23  24  8
25  26  8
26  27  8
8  7  3

$$$$
