44556024
  -OEChem-10012300282D

 64 68  0     1  0  0  0  0  0999 V2000
    8.4530    0.0609    0.0000 Cl  0  0  0  0  0  0  0  0  0  0  0  0
    9.7942   -4.1839    0.0000 F   0  0  0  0  0  0  0  0  0  0  0  0
    8.4282   -4.5499    0.0000 F   0  0  0  0  0  0  0  0  0  0  0  0
    9.4282   -2.8178    0.0000 F   0  0  0  0  0  0  0  0  0  0  0  0
    5.4641   -0.6839    0.0000 O   0  0  0  0  0  0  0  0  0  0  0  0
    7.1962    2.3161    0.0000 N   0  0  0  0  0  0  0  0  0  0  0  0
    5.4641    1.3161    0.0000 N   0  0  3  0  0  0  0  0  0  0  0  0
    8.7260    1.8161    0.0000 N   0  0  0  0  0  0  0  0  0  0  0  0
    3.7320   -0.6839    0.0000 N   0  0  0  0  0  0  0  0  0  0  0  0
    8.4530    3.5714    0.0000 C   0  0  0  0  0  0  0  0  0  0  0  0
    9.1973    4.2392    0.0000 C   0  0  0  0  0  0  0  0  0  0  0  0
    8.2468    4.5499    0.0000 C   0  0  0  0  0  0  0  0  0  0  0  0
    8.1424    2.6209    0.0000 C   0  0  0  0  0  0  0  0  0  0  0  0
    6.3301    0.8161    0.0000 C   0  0  2  0  0  0  0  0  0  0  0  0
    7.1962    1.3161    0.0000 C   0  0  0  0  0  0  0  0  0  0  0  0
    6.3301    2.8161    0.0000 C   0  0  0  0  0  0  0  0  0  0  0  0
    5.4641    2.3161    0.0000 C   0  0  0  0  0  0  0  0  0  0  0  0
    6.3301   -0.1839    0.0000 C   0  0  0  0  0  0  0  0  0  0  0  0
    4.5981    0.8161    0.0000 C   0  0  2  0  0  0  0  0  0  0  0  0
    8.1424    1.0114    0.0000 C   0  0  0  0  0  0  0  0  0  0  0  0
    7.1962   -0.6839    0.0000 C   0  0  0  0  0  0  0  0  0  0  0  0
    3.7320    1.3161    0.0000 C   0  0  0  0  0  0  0  0  0  0  0  0
    4.5981   -0.1839    0.0000 C   0  0  0  0  0  0  0  0  0  0  0  0
    7.1962   -1.6839    0.0000 C   0  0  0  0  0  0  0  0  0  0  0  0
    2.8660    0.8161    0.0000 C   0  0  0  0  0  0  0  0  0  0  0  0
    3.7320    2.3161    0.0000 C   0  0  0  0  0  0  0  0  0  0  0  0
    8.0622   -2.1839    0.0000 C   0  0  0  0  0  0  0  0  0  0  0  0
    6.3301   -2.1839    0.0000 C   0  0  0  0  0  0  0  0  0  0  0  0
    2.0000    1.3161    0.0000 C   0  0  0  0  0  0  0  0  0  0  0  0
    2.8660    2.8161    0.0000 C   0  0  0  0  0  0  0  0  0  0  0  0
    8.0622   -3.1839    0.0000 C   0  0  0  0  0  0  0  0  0  0  0  0
    3.7320   -1.6839    0.0000 C   0  0  0  0  0  0  0  0  0  0  0  0
    2.0000    2.3161    0.0000 C   0  0  0  0  0  0  0  0  0  0  0  0
    6.3301   -3.1839    0.0000 C   0  0  0  0  0  0  0  0  0  0  0  0
    7.1962   -3.6839    0.0000 C   0  0  0  0  0  0  0  0  0  0  0  0
    8.9282   -3.6839    0.0000 C   0  0  0  0  0  0  0  0  0  0  0  0
    7.8339    3.6049    0.0000 H   0  0  0  0  0  0  0  0  0  0  0  0
    9.6852    3.8567    0.0000 H   0  0  0  0  0  0  0  0  0  0  0  0
    9.4894    4.7862    0.0000 H   0  0  0  0  0  0  0  0  0  0  0  0
    8.3342    5.1637    0.0000 H   0  0  0  0  0  0  0  0  0  0  0  0
    7.6272    4.5293    0.0000 H   0  0  0  0  0  0  0  0  0  0  0  0
    5.7932    0.5061    0.0000 H   0  0  0  0  0  0  0  0  0  0  0  0
    6.7287    3.2911    0.0000 H   0  0  0  0  0  0  0  0  0  0  0  0
    5.9316    3.2911    0.0000 H   0  0  0  0  0  0  0  0  0  0  0  0
    5.2520    2.8987    0.0000 H   0  0  0  0  0  0  0  0  0  0  0  0
    4.8535    2.2085    0.0000 H   0  0  0  0  0  0  0  0  0  0  0  0
    5.7196   -0.0762    0.0000 H   0  0  0  0  0  0  0  0  0  0  0  0
    6.1181   -0.7665    0.0000 H   0  0  0  0  0  0  0  0  0  0  0  0
    5.1350    0.5061    0.0000 H   0  0  0  0  0  0  0  0  0  0  0  0
    7.8067   -0.7915    0.0000 H   0  0  0  0  0  0  0  0  0  0  0  0
    7.4082   -0.1013    0.0000 H   0  0  0  0  0  0  0  0  0  0  0  0
    2.8660    0.1961    0.0000 H   0  0  0  0  0  0  0  0  0  0  0  0
    4.2690    2.6261    0.0000 H   0  0  0  0  0  0  0  0  0  0  0  0
    3.1951   -0.3739    0.0000 H   0  0  0  0  0  0  0  0  0  0  0  0
    8.5991   -1.8739    0.0000 H   0  0  0  0  0  0  0  0  0  0  0  0
    5.7932   -1.8739    0.0000 H   0  0  0  0  0  0  0  0  0  0  0  0
    1.4631    1.0061    0.0000 H   0  0  0  0  0  0  0  0  0  0  0  0
    2.8660    3.4361    0.0000 H   0  0  0  0  0  0  0  0  0  0  0  0
    3.1120   -1.6839    0.0000 H   0  0  0  0  0  0  0  0  0  0  0  0
    3.7320   -2.3039    0.0000 H   0  0  0  0  0  0  0  0  0  0  0  0
    4.3520   -1.6839    0.0000 H   0  0  0  0  0  0  0  0  0  0  0  0
    1.4631    2.6261    0.0000 H   0  0  0  0  0  0  0  0  0  0  0  0
    5.7932   -3.4939    0.0000 H   0  0  0  0  0  0  0  0  0  0  0  0
    7.1962   -4.3039    0.0000 H   0  0  0  0  0  0  0  0  0  0  0  0
  1 20  1  0  0  0  0
  2 36  1  0  0  0  0
  3 36  1  0  0  0  0
  4 36  1  0  0  0  0
  5 23  2  0  0  0  0
  6 13  1  0  0  0  0
  6 15  1  0  0  0  0
  6 16  1  0  0  0  0
  7 14  1  0  0  0  0
  7 17  1  0  0  0  0
  7 19  1  0  0  0  0
  8 13  2  0  0  0  0
  8 20  1  0  0  0  0
  9 23  1  0  0  0  0
  9 32  1  0  0  0  0
  9 54  1  0  0  0  0
 10 11  1  0  0  0  0
 10 12  1  0  0  0  0
 10 13  1  0  0  0  0
 10 37  1  0  0  0  0
 11 12  1  0  0  0  0
 11 38  1  0  0  0  0
 11 39  1  0  0  0  0
 12 40  1  0  0  0  0
 12 41  1  0  0  0  0
 14 15  1  0  0  0  0
 14 18  1  6  0  0  0
 14 42  1  0  0  0  0
 15 20  2  0  0  0  0
 16 17  1  0  0  0  0
 16 43  1  0  0  0  0
 16 44  1  0  0  0  0
 17 45  1  0  0  0  0
 17 46  1  0  0  0  0
 18 21  1  0  0  0  0
 18 47  1  0  0  0  0
 18 48  1  0  0  0  0
 19 22  1  0  0  0  0
 19 23  1  1  0  0  0
 19 49  1  0  0  0  0
 21 24  1  0  0  0  0
 21 50  1  0  0  0  0
 21 51  1  0  0  0  0
 22 25  2  0  0  0  0
 22 26  1  0  0  0  0
 24 27  2  0  0  0  0
 24 28  1  0  0  0  0
 25 29  1  0  0  0  0
 25 52  1  0  0  0  0
 26 30  2  0  0  0  0
 26 53  1  0  0  0  0
 27 31  1  0  0  0  0
 27 55  1  0  0  0  0
 28 34  2  0  0  0  0
 28 56  1  0  0  0  0
 29 33  2  0  0  0  0
 29 57  1  0  0  0  0
 30 33  1  0  0  0  0
 30 58  1  0  0  0  0
 31 35  2  0  0  0  0
 31 36  1  0  0  0  0
 32 59  1  0  0  0  0
 32 60  1  0  0  0  0
 32 61  1  0  0  0  0
 33 62  1  0  0  0  0
 34 35  1  0  0  0  0
 34 63  1  0  0  0  0
 35 64  1  0  0  0  0
M  END
> <PUBCHEM_COMPOUND_CID>
44556024

> <PUBCHEM_COMPOUND_CANONICALIZED>
1

> <PUBCHEM_CACTVS_COMPLEXITY>
760

> <PUBCHEM_CACTVS_HBOND_ACCEPTOR>
6

> <PUBCHEM_CACTVS_HBOND_DONOR>
1

> <PUBCHEM_CACTVS_ROTATABLE_BOND>
7

> <PUBCHEM_CACTVS_SUBSKEYS>
AAADceB7oYAEAAAAAAAAAAAAGAAAAWAAAAA8YIAAAAAAAFgB0AAAHwIQAAAADSrBnzQzkJfMEACoAydydACCgC0hFKAJ2IG4VoiIaDLB3THUIAhokgLIyCcYiMCOAAACAAAAAAAAAAQAAAAAAAAAAAAAAA==

> <PUBCHEM_IUPAC_OPENEYE_NAME>
(2R)-2-[(8S)-1-chloro-3-cyclopropyl-8-[2-[3-(trifluoromethyl)phenyl]ethyl]-6,8-dihydro-5H-imidazo[1,5-a]pyrazin-7-yl]-N-methyl-2-phenyl-acetamide

> <PUBCHEM_IUPAC_CAS_NAME>
(2R)-2-[(8S)-1-chloro-3-cyclopropyl-8-[2-[3-(trifluoromethyl)phenyl]ethyl]-6,8-dihydro-5H-imidazo[1,5-a]pyrazin-7-yl]-N-methyl-2-phenylacetamide

> <PUBCHEM_IUPAC_NAME_MARKUP>
(2<I>R</I>)-2-[(8<I>S</I>)-1-chloro-3-cyclopropyl-8-[2-[3-(trifluoromethyl)phenyl]ethyl]-6,8-dihydro-5<I>H</I>-imidazo[1,5-a]pyrazin-7-yl]-<I>N</I>-methyl-2-phenylacetamide

> <PUBCHEM_IUPAC_NAME>
(2R)-2-[(8S)-1-chloro-3-cyclopropyl-8-[2-[3-(trifluoromethyl)phenyl]ethyl]-6,8-dihydro-5H-imidazo[1,5-a]pyrazin-7-yl]-N-methyl-2-phenylacetamide

> <PUBCHEM_IUPAC_SYSTEMATIC_NAME>
(2R)-2-[(8S)-1-chloranyl-3-cyclopropyl-8-[2-[3-(trifluoromethyl)phenyl]ethyl]-6,8-dihydro-5H-imidazo[1,5-a]pyrazin-7-yl]-N-methyl-2-phenyl-ethanamide

> <PUBCHEM_IUPAC_TRADITIONAL_NAME>
(2R)-2-[(8S)-1-chloro-3-cyclopropyl-8-[2-[3-(trifluoromethyl)phenyl]ethyl]-6,8-dihydro-5H-imidazo[1,5-a]pyrazin-7-yl]-N-methyl-2-phenyl-acetamide

> <PUBCHEM_IUPAC_INCHI>
InChI=1S/C27H28ClF3N4O/c1-32-26(36)22(18-7-3-2-4-8-18)34-14-15-35-23(24(28)33-25(35)19-11-12-19)21(34)13-10-17-6-5-9-20(16-17)27(29,30)31/h2-9,16,19,21-22H,10-15H2,1H3,(H,32,36)/t21-,22+/m0/s1

> <PUBCHEM_IUPAC_INCHIKEY>
ZJBYRMRJSSUJAN-FCHUYYIVSA-N

> <PUBCHEM_XLOGP3_AA>
5.4

> <PUBCHEM_EXACT_MASS>
516.1903737

> <PUBCHEM_MOLECULAR_FORMULA>
C27H28ClF3N4O

> <PUBCHEM_MOLECULAR_WEIGHT>
517.0

> <PUBCHEM_OPENEYE_CAN_SMILES>
CNC(=O)C(C1=CC=CC=C1)N2CCN3C(=NC(=C3C2CCC4=CC(=CC=C4)C(F)(F)F)Cl)C5CC5

> <PUBCHEM_OPENEYE_ISO_SMILES>
CNC(=O)[C@@H](C1=CC=CC=C1)N2CCN3C(=C(N=C3C4CC4)Cl)[C@@H]2CCC5=CC(=CC=C5)C(F)(F)F

> <PUBCHEM_CACTVS_TPSA>
50.2

> <PUBCHEM_MONOISOTOPIC_WEIGHT>
516.1903737

> <PUBCHEM_TOTAL_CHARGE>
0

> <PUBCHEM_HEAVY_ATOM_COUNT>
36

> <PUBCHEM_ATOM_DEF_STEREO_COUNT>
2

> <PUBCHEM_ATOM_UDEF_STEREO_COUNT>
0

> <PUBCHEM_BOND_DEF_STEREO_COUNT>
0

> <PUBCHEM_BOND_UDEF_STEREO_COUNT>
0

> <PUBCHEM_ISOTOPIC_ATOM_COUNT>
0

> <PUBCHEM_COMPONENT_COUNT>
1

> <PUBCHEM_CACTVS_TAUTO_COUNT>
-1

> <PUBCHEM_COORDINATE_TYPE>
1
5
255

> <PUBCHEM_BONDANNOTATIONS>
14  18  6
15  20  8
19  23  5
22  25  8
22  26  8
24  27  8
24  28  8
25  29  8
26  30  8
27  31  8
28  34  8
29  33  8
30  33  8
31  35  8
34  35  8
6  13  8
6  15  8
8  13  8
8  20  8

$$$$
