53327908
  -OEChem-09292322312D

 69 73  0     0  0  0  0  0  0999 V2000
    7.2622   -1.2637    0.0000 O   0  0  0  0  0  0  0  0  0  0  0  0
   15.9224   -0.2637    0.0000 O   0  0  0  0  0  0  0  0  0  0  0  0
   12.4583   -0.2637    0.0000 N   0  0  0  0  0  0  0  0  0  0  0  0
   14.1904   -1.2637    0.0000 N   0  0  0  0  0  0  0  0  0  0  0  0
    8.1282    0.2363    0.0000 N   0  0  0  0  0  0  0  0  0  0  0  0
    2.0038    2.7671    0.0000 N   0  0  0  0  0  0  0  0  0  0  0  0
   12.4583   -1.2637    0.0000 C   0  0  0  0  0  0  0  0  0  0  0  0
   13.3243    0.2363    0.0000 C   0  0  0  0  0  0  0  0  0  0  0  0
   11.5923    0.2363    0.0000 C   0  0  0  0  0  0  0  0  0  0  0  0
   13.3243   -1.7637    0.0000 C   0  0  0  0  0  0  0  0  0  0  0  0
   14.1904   -0.2637    0.0000 C   0  0  0  0  0  0  0  0  0  0  0  0
   10.7263   -0.2637    0.0000 C   0  0  0  0  0  0  0  0  0  0  0  0
    9.8602    0.2363    0.0000 C   0  0  0  0  0  0  0  0  0  0  0  0
    8.9942   -0.2637    0.0000 C   0  0  0  0  0  0  0  0  0  0  0  0
    8.1282    1.2363    0.0000 C   0  0  0  0  0  0  0  0  0  0  0  0
   15.0564   -1.7637    0.0000 C   0  0  0  0  0  0  0  0  0  0  0  0
    7.2622    1.7363    0.0000 C   0  0  0  0  0  0  0  0  0  0  0  0
    6.3961    1.2363    0.0000 C   0  0  0  0  0  0  0  0  0  0  0  0
    7.2622   -0.2637    0.0000 C   0  0  0  0  0  0  0  0  0  0  0  0
    6.3961    0.2363    0.0000 C   0  0  0  0  0  0  0  0  0  0  0  0
   15.9224   -1.2637    0.0000 C   0  0  0  0  0  0  0  0  0  0  0  0
   15.0564   -2.7637    0.0000 C   0  0  0  0  0  0  0  0  0  0  0  0
    5.5022    1.7709    0.0000 C   0  0  0  0  0  0  0  0  0  0  0  0
    5.5022   -0.2984    0.0000 C   0  0  0  0  0  0  0  0  0  0  0  0
    4.5961    1.2571    0.0000 C   0  0  0  0  0  0  0  0  0  0  0  0
    4.5961    0.2154    0.0000 C   0  0  0  0  0  0  0  0  0  0  0  0
   16.7884   -1.7637    0.0000 C   0  0  0  0  0  0  0  0  0  0  0  0
   15.9224   -3.2637    0.0000 C   0  0  0  0  0  0  0  0  0  0  0  0
   16.7884   -2.7637    0.0000 C   0  0  0  0  0  0  0  0  0  0  0  0
    3.7320    1.7604    0.0000 C   0  0  0  0  0  0  0  0  0  0  0  0
   16.7884    0.2363    0.0000 C   0  0  0  0  0  0  0  0  0  0  0  0
    3.7359    2.7604    0.0000 C   0  0  0  0  0  0  0  0  0  0  0  0
    2.8641    1.2638    0.0000 C   0  0  0  0  0  0  0  0  0  0  0  0
    2.8718    3.2637    0.0000 C   0  0  0  0  0  0  0  0  0  0  0  0
    2.0000    1.7671    0.0000 C   0  0  0  0  0  0  0  0  0  0  0  0
   11.8477   -1.1561    0.0000 H   0  0  0  0  0  0  0  0  0  0  0  0
   12.2463   -1.8464    0.0000 H   0  0  0  0  0  0  0  0  0  0  0  0
   13.7229    0.7112    0.0000 H   0  0  0  0  0  0  0  0  0  0  0  0
   12.9258    0.7112    0.0000 H   0  0  0  0  0  0  0  0  0  0  0  0
   11.9908    0.7112    0.0000 H   0  0  0  0  0  0  0  0  0  0  0  0
   11.1938    0.7112    0.0000 H   0  0  0  0  0  0  0  0  0  0  0  0
   12.9258   -2.2387    0.0000 H   0  0  0  0  0  0  0  0  0  0  0  0
   13.7229   -2.2387    0.0000 H   0  0  0  0  0  0  0  0  0  0  0  0
   14.8009   -0.3714    0.0000 H   0  0  0  0  0  0  0  0  0  0  0  0
   14.4024    0.3189    0.0000 H   0  0  0  0  0  0  0  0  0  0  0  0
   10.3277   -0.7387    0.0000 H   0  0  0  0  0  0  0  0  0  0  0  0
   11.1248   -0.7387    0.0000 H   0  0  0  0  0  0  0  0  0  0  0  0
   10.2588    0.7112    0.0000 H   0  0  0  0  0  0  0  0  0  0  0  0
    9.4617    0.7112    0.0000 H   0  0  0  0  0  0  0  0  0  0  0  0
    8.5957   -0.7387    0.0000 H   0  0  0  0  0  0  0  0  0  0  0  0
    9.3927   -0.7387    0.0000 H   0  0  0  0  0  0  0  0  0  0  0  0
    8.7388    1.1286    0.0000 H   0  0  0  0  0  0  0  0  0  0  0  0
    8.3402    1.8189    0.0000 H   0  0  0  0  0  0  0  0  0  0  0  0
    7.6607    2.2112    0.0000 H   0  0  0  0  0  0  0  0  0  0  0  0
    6.8636    2.2112    0.0000 H   0  0  0  0  0  0  0  0  0  0  0  0
   14.5195   -3.0737    0.0000 H   0  0  0  0  0  0  0  0  0  0  0  0
    5.5094    2.3909    0.0000 H   0  0  0  0  0  0  0  0  0  0  0  0
    5.5094   -0.9184    0.0000 H   0  0  0  0  0  0  0  0  0  0  0  0
    4.0604   -0.0966    0.0000 H   0  0  0  0  0  0  0  0  0  0  0  0
   17.3254   -1.4537    0.0000 H   0  0  0  0  0  0  0  0  0  0  0  0
   15.9224   -3.8837    0.0000 H   0  0  0  0  0  0  0  0  0  0  0  0
   17.3254   -3.0737    0.0000 H   0  0  0  0  0  0  0  0  0  0  0  0
   17.0984   -0.3007    0.0000 H   0  0  0  0  0  0  0  0  0  0  0  0
   17.3254    0.5463    0.0000 H   0  0  0  0  0  0  0  0  0  0  0  0
   16.4784    0.7732    0.0000 H   0  0  0  0  0  0  0  0  0  0  0  0
    4.2740    3.0683    0.0000 H   0  0  0  0  0  0  0  0  0  0  0  0
    2.8617    0.6438    0.0000 H   0  0  0  0  0  0  0  0  0  0  0  0
    2.8742    3.8837    0.0000 H   0  0  0  0  0  0  0  0  0  0  0  0
    1.4619    1.4592    0.0000 H   0  0  0  0  0  0  0  0  0  0  0  0
  1 19  2  0  0  0  0
  2 21  1  0  0  0  0
  2 31  1  0  0  0  0
  3  7  1  0  0  0  0
  3  8  1  0  0  0  0
  3  9  1  0  0  0  0
  4 10  1  0  0  0  0
  4 11  1  0  0  0  0
  4 16  1  0  0  0  0
  5 14  1  0  0  0  0
  5 15  1  0  0  0  0
  5 19  1  0  0  0  0
  6 34  2  0  0  0  0
  6 35  1  0  0  0  0
  7 10  1  0  0  0  0
  7 36  1  0  0  0  0
  7 37  1  0  0  0  0
  8 11  1  0  0  0  0
  8 38  1  0  0  0  0
  8 39  1  0  0  0  0
  9 12  1  0  0  0  0
  9 40  1  0  0  0  0
  9 41  1  0  0  0  0
 10 42  1  0  0  0  0
 10 43  1  0  0  0  0
 11 44  1  0  0  0  0
 11 45  1  0  0  0  0
 12 13  1  0  0  0  0
 12 46  1  0  0  0  0
 12 47  1  0  0  0  0
 13 14  1  0  0  0  0
 13 48  1  0  0  0  0
 13 49  1  0  0  0  0
 14 50  1  0  0  0  0
 14 51  1  0  0  0  0
 15 17  1  0  0  0  0
 15 52  1  0  0  0  0
 15 53  1  0  0  0  0
 16 21  1  0  0  0  0
 16 22  2  0  0  0  0
 17 18  1  0  0  0  0
 17 54  1  0  0  0  0
 17 55  1  0  0  0  0
 18 20  2  0  0  0  0
 18 23  1  0  0  0  0
 19 20  1  0  0  0  0
 20 24  1  0  0  0  0
 21 27  2  0  0  0  0
 22 28  1  0  0  0  0
 22 56  1  0  0  0  0
 23 25  2  0  0  0  0
 23 57  1  0  0  0  0
 24 26  2  0  0  0  0
 24 58  1  0  0  0  0
 25 26  1  0  0  0  0
 25 30  1  0  0  0  0
 26 59  1  0  0  0  0
 27 29  1  0  0  0  0
 27 60  1  0  0  0  0
 28 29  2  0  0  0  0
 28 61  1  0  0  0  0
 29 62  1  0  0  0  0
 30 32  2  0  0  0  0
 30 33  1  0  0  0  0
 31 63  1  0  0  0  0
 31 64  1  0  0  0  0
 31 65  1  0  0  0  0
 32 34  1  0  0  0  0
 32 66  1  0  0  0  0
 33 35  2  0  0  0  0
 33 67  1  0  0  0  0
 34 68  1  0  0  0  0
 35 69  1  0  0  0  0
M  END
> <PUBCHEM_COMPOUND_CID>
53327908

> <PUBCHEM_COMPOUND_CANONICALIZED>
1

> <PUBCHEM_CACTVS_COMPLEXITY>
661

> <PUBCHEM_CACTVS_HBOND_ACCEPTOR>
5

> <PUBCHEM_CACTVS_HBOND_DONOR>
0

> <PUBCHEM_CACTVS_ROTATABLE_BOND>
8

> <PUBCHEM_CACTVS_SUBSKEYS>
AAADcfB7sAAAAAAAAAAAAAAAAAAAAAAAAAA8eLECAAAAAACx0AAAHgAAAAAADAzBmgY+xpMIFACoAjV3VACCiCA1IiAI2CE/bNgOZnLEtZuVMShkxhHY6YeYycCOwAACAAAQEACAAAQAACAgAAAAAAAAAA==

> <PUBCHEM_IUPAC_OPENEYE_NAME>
2-[4-[4-(2-methoxyphenyl)piperazin-1-yl]butyl]-6-(4-pyridyl)-3,4-dihydroisoquinolin-1-one

> <PUBCHEM_IUPAC_CAS_NAME>
2-[4-[4-(2-methoxyphenyl)-1-piperazinyl]butyl]-6-pyridin-4-yl-3,4-dihydroisoquinolin-1-one

> <PUBCHEM_IUPAC_NAME_MARKUP>
2-[4-[4-(2-methoxyphenyl)piperazin-1-yl]butyl]-6-pyridin-4-yl-3,4-dihydroisoquinolin-1-one

> <PUBCHEM_IUPAC_NAME>
2-[4-[4-(2-methoxyphenyl)piperazin-1-yl]butyl]-6-pyridin-4-yl-3,4-dihydroisoquinolin-1-one

> <PUBCHEM_IUPAC_SYSTEMATIC_NAME>
2-[4-[4-(2-methoxyphenyl)piperazin-1-yl]butyl]-6-pyridin-4-yl-3,4-dihydroisoquinolin-1-one

> <PUBCHEM_IUPAC_TRADITIONAL_NAME>
2-[4-[4-(2-methoxyphenyl)piperazino]butyl]-6-(4-pyridyl)-3,4-dihydroisocarbostyril

> <PUBCHEM_IUPAC_INCHI>
InChI=1S/C29H34N4O2/c1-35-28-7-3-2-6-27(28)32-20-18-31(19-21-32)15-4-5-16-33-17-12-25-22-24(8-9-26(25)29(33)34)23-10-13-30-14-11-23/h2-3,6-11,13-14,22H,4-5,12,15-21H2,1H3

> <PUBCHEM_IUPAC_INCHIKEY>
PFLVUDAFKXUKEV-UHFFFAOYSA-N

> <PUBCHEM_XLOGP3_AA>
4.3

> <PUBCHEM_EXACT_MASS>
470.26817634

> <PUBCHEM_MOLECULAR_FORMULA>
C29H34N4O2

> <PUBCHEM_MOLECULAR_WEIGHT>
470.6

> <PUBCHEM_OPENEYE_CAN_SMILES>
COC1=CC=CC=C1N2CCN(CC2)CCCCN3CCC4=C(C3=O)C=CC(=C4)C5=CC=NC=C5

> <PUBCHEM_OPENEYE_ISO_SMILES>
COC1=CC=CC=C1N2CCN(CC2)CCCCN3CCC4=C(C3=O)C=CC(=C4)C5=CC=NC=C5

> <PUBCHEM_CACTVS_TPSA>
48.9

> <PUBCHEM_MONOISOTOPIC_WEIGHT>
470.26817634

> <PUBCHEM_TOTAL_CHARGE>
0

> <PUBCHEM_HEAVY_ATOM_COUNT>
35

> <PUBCHEM_ATOM_DEF_STEREO_COUNT>
0

> <PUBCHEM_ATOM_UDEF_STEREO_COUNT>
0

> <PUBCHEM_BOND_DEF_STEREO_COUNT>
0

> <PUBCHEM_BOND_UDEF_STEREO_COUNT>
0

> <PUBCHEM_ISOTOPIC_ATOM_COUNT>
0

> <PUBCHEM_COMPONENT_COUNT>
1

> <PUBCHEM_CACTVS_TAUTO_COUNT>
-1

> <PUBCHEM_COORDINATE_TYPE>
1
5
255

> <PUBCHEM_BONDANNOTATIONS>
16  21  8
16  22  8
18  20  8
18  23  8
20  24  8
21  27  8
22  28  8
23  25  8
24  26  8
25  26  8
27  29  8
28  29  8
30  32  8
30  33  8
32  34  8
33  35  8
6  34  8
6  35  8

$$$$
