10406989
  -OEChem-09292322132D

 39 40  0     1  0  0  0  0  0999 V2000
    9.8622    0.4254    0.0000 I   0  0  0  0  0  0  0  0  0  0  0  0
    4.6660   -1.5746    0.0000 O   0  0  0  0  0  0  0  0  0  0  0  0
    2.9176   -2.6092    0.0000 O   0  0  0  0  0  0  0  0  0  0  0  0
    6.3981    0.4254    0.0000 N   0  0  3  0  0  0  0  0  0  0  0  0
    5.5321   -0.0746    0.0000 C   0  0  3  0  0  0  0  0  0  0  0  0
    4.6660    0.4254    0.0000 C   0  0  0  0  0  0  0  0  0  0  0  0
    5.5321   -1.0746    0.0000 C   0  0  0  0  0  0  0  0  0  0  0  0
    6.3981    1.4254    0.0000 C   0  0  0  0  0  0  0  0  0  0  0  0
    3.8000   -0.0746    0.0000 C   0  0  0  0  0  0  0  0  0  0  0  0
    7.2641   -0.0746    0.0000 C   0  0  0  0  0  0  0  0  0  0  0  0
    3.8000   -1.0746    0.0000 C   0  0  0  0  0  0  0  0  0  0  0  0
    7.2641    1.9254    0.0000 C   0  0  0  0  0  0  0  0  0  0  0  0
    2.9061    0.4601    0.0000 C   0  0  0  0  0  0  0  0  0  0  0  0
    2.9061   -1.6093    0.0000 C   0  0  0  0  0  0  0  0  0  0  0  0
    8.1301    0.4254    0.0000 C   0  0  0  0  0  0  0  0  0  0  0  0
    7.2641    2.9254    0.0000 C   0  0  0  0  0  0  0  0  0  0  0  0
    2.0000   -0.0538    0.0000 C   0  0  0  0  0  0  0  0  0  0  0  0
    2.0000   -1.0954    0.0000 C   0  0  0  0  0  0  0  0  0  0  0  0
    8.9962   -0.0746    0.0000 C   0  0  0  0  0  0  0  0  0  0  0  0
    5.5321    0.5454    0.0000 H   0  0  0  0  0  0  0  0  0  0  0  0
    5.0646    0.9003    0.0000 H   0  0  0  0  0  0  0  0  0  0  0  0
    4.2675    0.9003    0.0000 H   0  0  0  0  0  0  0  0  0  0  0  0
    5.7441   -1.6572    0.0000 H   0  0  0  0  0  0  0  0  0  0  0  0
    6.1426   -0.9669    0.0000 H   0  0  0  0  0  0  0  0  0  0  0  0
    6.1860    2.0080    0.0000 H   0  0  0  0  0  0  0  0  0  0  0  0
    5.7875    1.3177    0.0000 H   0  0  0  0  0  0  0  0  0  0  0  0
    6.8656   -0.5496    0.0000 H   0  0  0  0  0  0  0  0  0  0  0  0
    7.6626   -0.5496    0.0000 H   0  0  0  0  0  0  0  0  0  0  0  0
    7.4762    1.3428    0.0000 H   0  0  0  0  0  0  0  0  0  0  0  0
    7.8747    2.0330    0.0000 H   0  0  0  0  0  0  0  0  0  0  0  0
    2.9132    1.0800    0.0000 H   0  0  0  0  0  0  0  0  0  0  0  0
    8.1301    1.0454    0.0000 H   0  0  0  0  0  0  0  0  0  0  0  0
    7.8841    2.9254    0.0000 H   0  0  0  0  0  0  0  0  0  0  0  0
    7.2641    3.5454    0.0000 H   0  0  0  0  0  0  0  0  0  0  0  0
    6.6441    2.9254    0.0000 H   0  0  0  0  0  0  0  0  0  0  0  0
    1.4643    0.2583    0.0000 H   0  0  0  0  0  0  0  0  0  0  0  0
    1.4643   -1.4075    0.0000 H   0  0  0  0  0  0  0  0  0  0  0  0
    8.9962   -0.6946    0.0000 H   0  0  0  0  0  0  0  0  0  0  0  0
    2.3843   -2.9254    0.0000 H   0  0  0  0  0  0  0  0  0  0  0  0
  1 19  1  0  0  0  0
  2  7  1  0  0  0  0
  2 11  1  0  0  0  0
  3 14  1  0  0  0  0
  3 39  1  0  0  0  0
  4  5  1  0  0  0  0
  4  8  1  0  0  0  0
  4 10  1  0  0  0  0
  5  6  1  0  0  0  0
  5  7  1  0  0  0  0
  5 20  1  0  0  0  0
  6  9  1  0  0  0  0
  6 21  1  0  0  0  0
  6 22  1  0  0  0  0
  7 23  1  0  0  0  0
  7 24  1  0  0  0  0
  8 12  1  0  0  0  0
  8 25  1  0  0  0  0
  8 26  1  0  0  0  0
  9 11  2  0  0  0  0
  9 13  1  0  0  0  0
 10 15  1  0  0  0  0
 10 27  1  0  0  0  0
 10 28  1  0  0  0  0
 11 14  1  0  0  0  0
 12 16  1  0  0  0  0
 12 29  1  0  0  0  0
 12 30  1  0  0  0  0
 13 17  2  0  0  0  0
 13 31  1  0  0  0  0
 14 18  2  0  0  0  0
 15 19  2  0  0  0  0
 15 32  1  0  0  0  0
 16 33  1  0  0  0  0
 16 34  1  0  0  0  0
 16 35  1  0  0  0  0
 17 18  1  0  0  0  0
 17 36  1  0  0  0  0
 18 37  1  0  0  0  0
 19 38  1  0  0  0  0
M  END
> <PUBCHEM_COMPOUND_CID>
10406989

> <PUBCHEM_COMPOUND_CANONICALIZED>
1

> <PUBCHEM_CACTVS_COMPLEXITY>
298

> <PUBCHEM_CACTVS_HBOND_ACCEPTOR>
3

> <PUBCHEM_CACTVS_HBOND_DONOR>
1

> <PUBCHEM_CACTVS_ROTATABLE_BOND>
5

> <PUBCHEM_CACTVS_SUBSKEYS>
AAADceByMAAAAgAAAAAAAAAAAAAAAAAAAAA0QAAAAAAAAACRAAAAHgAgCAAADCzjmAYyBoMABgCAAiBCAACCCAAgIAAIiAAOiIgPJiKGsRuHeCOkwBGbuAew0LMOAAABAAAIQAAAAAIAABCAAAAAAAAAAA==

> <PUBCHEM_IUPAC_OPENEYE_NAME>
3-[[(E)-3-iodoallyl]-propyl-amino]chroman-8-ol

> <PUBCHEM_IUPAC_CAS_NAME>
3-[[(E)-3-iodoprop-2-enyl]-propylamino]-3,4-dihydro-2H-1-benzopyran-8-ol

> <PUBCHEM_IUPAC_NAME_MARKUP>
3-[[(<I>E</I>)-3-iodoprop-2-enyl]-propylamino]-3,4-dihydro-2<I>H</I>-chromen-8-ol

> <PUBCHEM_IUPAC_NAME>
3-[[(E)-3-iodoprop-2-enyl]-propylamino]-3,4-dihydro-2H-chromen-8-ol

> <PUBCHEM_IUPAC_SYSTEMATIC_NAME>
3-[[(E)-3-iodanylprop-2-enyl]-propyl-amino]-3,4-dihydro-2H-chromen-8-ol

> <PUBCHEM_IUPAC_TRADITIONAL_NAME>
3-[[(E)-3-iodoallyl]-propyl-amino]chroman-8-ol

> <PUBCHEM_IUPAC_INCHI>
InChI=1S/C15H20INO2/c1-2-8-17(9-4-7-16)13-10-12-5-3-6-14(18)15(12)19-11-13/h3-7,13,18H,2,8-11H2,1H3/b7-4+

> <PUBCHEM_IUPAC_INCHIKEY>
ONVPKPUWGYFERX-QPJJXVBHSA-N

> <PUBCHEM_XLOGP3_AA>
3.7

> <PUBCHEM_EXACT_MASS>
373.05388

> <PUBCHEM_MOLECULAR_FORMULA>
C15H20INO2

> <PUBCHEM_MOLECULAR_WEIGHT>
373.23

> <PUBCHEM_OPENEYE_CAN_SMILES>
CCCN(CC=CI)C1CC2=C(C(=CC=C2)O)OC1

> <PUBCHEM_OPENEYE_ISO_SMILES>
CCCN(C/C=C/I)C1CC2=C(C(=CC=C2)O)OC1

> <PUBCHEM_CACTVS_TPSA>
32.7

> <PUBCHEM_MONOISOTOPIC_WEIGHT>
373.05388

> <PUBCHEM_TOTAL_CHARGE>
0

> <PUBCHEM_HEAVY_ATOM_COUNT>
19

> <PUBCHEM_ATOM_DEF_STEREO_COUNT>
0

> <PUBCHEM_ATOM_UDEF_STEREO_COUNT>
1

> <PUBCHEM_BOND_DEF_STEREO_COUNT>
1

> <PUBCHEM_BOND_UDEF_STEREO_COUNT>
0

> <PUBCHEM_ISOTOPIC_ATOM_COUNT>
0

> <PUBCHEM_COMPONENT_COUNT>
1

> <PUBCHEM_CACTVS_TAUTO_COUNT>
-1

> <PUBCHEM_COORDINATE_TYPE>
1
5
255

> <PUBCHEM_BONDANNOTATIONS>
11  14  8
13  17  8
14  18  8
17  18  8
5  4  3
9  11  8
9  13  8

$$$$
