155519515
  -OEChem-09292322412D

 68 71  0     1  0  0  0  0  0999 V2000
    6.0289    0.0000    0.0000 Cl  0  0  0  0  0  0  0  0  0  0  0  0
   11.2897    6.0908    0.0000 S   0  0  0  0  0  0  0  0  0  0  0  0
    0.0000   12.5903    0.0000 F   0  0  0  0  0  0  0  0  0  0  0  0
    0.9549   13.6335    0.0000 F   0  0  0  0  0  0  0  0  0  0  0  0
    1.0432   11.6354    0.0000 F   0  0  0  0  0  0  0  0  0  0  0  0
   11.2686    7.0906    0.0000 O   0  0  0  0  0  0  0  0  0  0  0  0
   12.2340    6.4199    0.0000 O   0  0  0  0  0  0  0  0  0  0  0  0
    5.1481    9.3503    0.0000 N   0  0  0  0  0  0  0  0  0  0  0  0
    4.0726   11.0366    0.0000 N   0  0  0  0  0  0  0  0  0  0  0  0
   10.2961    6.1104    0.0000 N   0  0  3  0  0  0  0  0  0  0  0  0
    5.6093   10.2376    0.0000 C   0  0  0  0  0  0  0  0  0  0  0  0
    4.1490    9.3062    0.0000 C   0  0  0  0  0  0  0  0  0  0  0  0
    5.6858    8.5072    0.0000 C   0  0  0  0  0  0  0  0  0  0  0  0
    5.0716   11.0807    0.0000 C   0  0  0  0  0  0  0  0  0  0  0  0
    3.6113   10.1493    0.0000 C   0  0  0  0  0  0  0  0  0  0  0  0
    6.6848    8.5514    0.0000 C   0  0  0  0  0  0  0  0  0  0  0  0
    7.2226    7.7083    0.0000 C   0  0  0  0  0  0  0  0  0  0  0  0
    8.2216    7.7524    0.0000 C   0  0  0  0  0  0  0  0  0  0  0  0
    9.7584    6.9535    0.0000 C   0  0  0  0  0  0  0  0  0  0  0  0
    8.7594    6.9093    0.0000 C   0  0  0  0  0  0  0  0  0  0  0  0
    9.8949    5.2011    0.0000 C   0  0  0  0  0  0  0  0  0  0  0  0
   10.7888    4.6665    0.0000 C   0  0  0  0  0  0  0  0  0  0  0  0
   11.6549    5.1665    0.0000 C   0  0  0  0  0  0  0  0  0  0  0  0
    3.5348   11.8797    0.0000 C   0  0  0  0  0  0  0  0  0  0  0  0
   10.7888    3.6665    0.0000 C   0  0  0  0  0  0  0  0  0  0  0  0
    8.9888    4.6873    0.0000 C   0  0  0  0  0  0  0  0  0  0  0  0
   12.5209    4.6665    0.0000 C   0  0  0  0  0  0  0  0  0  0  0  0
    9.8949    3.1318    0.0000 C   0  0  0  0  0  0  0  0  0  0  0  0
   11.6549    3.1665    0.0000 C   0  0  0  0  0  0  0  0  0  0  0  0
    8.9888    3.6457    0.0000 C   0  0  0  0  0  0  0  0  0  0  0  0
    2.5358   11.8355    0.0000 C   0  0  0  0  0  0  0  0  0  0  0  0
   12.5209    3.6665    0.0000 C   0  0  0  0  0  0  0  0  0  0  0  0
    3.9961   12.7669    0.0000 C   0  0  0  0  0  0  0  0  0  0  0  0
    1.9980   12.6786    0.0000 C   0  0  0  0  0  0  0  0  0  0  0  0
    3.4584   13.6100    0.0000 C   0  0  0  0  0  0  0  0  0  0  0  0
    2.4593   13.5659    0.0000 C   0  0  0  0  0  0  0  0  0  0  0  0
    0.9990   12.6345    0.0000 C   0  0  0  0  0  0  0  0  0  0  0  0
    6.1014    9.8604    0.0000 H   0  0  0  0  0  0  0  0  0  0  0  0
    6.0662   10.6567    0.0000 H   0  0  0  0  0  0  0  0  0  0  0  0
    3.5764    9.0686    0.0000 H   0  0  0  0  0  0  0  0  0  0  0  0
    4.2836    8.7010    0.0000 H   0  0  0  0  0  0  0  0  0  0  0  0
    5.1131    8.2697    0.0000 H   0  0  0  0  0  0  0  0  0  0  0  0
    5.8203    7.9020    0.0000 H   0  0  0  0  0  0  0  0  0  0  0  0
    5.6443   11.3183    0.0000 H   0  0  0  0  0  0  0  0  0  0  0  0
    4.9371   11.6859    0.0000 H   0  0  0  0  0  0  0  0  0  0  0  0
    3.1192   10.5265    0.0000 H   0  0  0  0  0  0  0  0  0  0  0  0
    3.1544    9.7302    0.0000 H   0  0  0  0  0  0  0  0  0  0  0  0
    7.2575    8.7890    0.0000 H   0  0  0  0  0  0  0  0  0  0  0  0
    6.5503    9.1566    0.0000 H   0  0  0  0  0  0  0  0  0  0  0  0
    6.6499    7.4707    0.0000 H   0  0  0  0  0  0  0  0  0  0  0  0
    7.3571    7.1030    0.0000 H   0  0  0  0  0  0  0  0  0  0  0  0
    8.7943    7.9900    0.0000 H   0  0  0  0  0  0  0  0  0  0  0  0
    8.0871    8.3577    0.0000 H   0  0  0  0  0  0  0  0  0  0  0  0
   10.3311    7.1910    0.0000 H   0  0  0  0  0  0  0  0  0  0  0  0
    9.6239    7.5587    0.0000 H   0  0  0  0  0  0  0  0  0  0  0  0
    8.1867    6.6718    0.0000 H   0  0  0  0  0  0  0  0  0  0  0  0
    8.8939    6.3041    0.0000 H   0  0  0  0  0  0  0  0  0  0  0  0
    8.4531    4.9994    0.0000 H   0  0  0  0  0  0  0  0  0  0  0  0
   13.0578    4.9765    0.0000 H   0  0  0  0  0  0  0  0  0  0  0  0
    9.9021    2.5118    0.0000 H   0  0  0  0  0  0  0  0  0  0  0  0
   11.6549    2.5465    0.0000 H   0  0  0  0  0  0  0  0  0  0  0  0
    8.4531    3.3336    0.0000 H   0  0  0  0  0  0  0  0  0  0  0  0
    2.2498   11.2854    0.0000 H   0  0  0  0  0  0  0  0  0  0  0  0
   13.0578    3.3565    0.0000 H   0  0  0  0  0  0  0  0  0  0  0  0
    4.6155   12.7943    0.0000 H   0  0  0  0  0  0  0  0  0  0  0  0
    3.7444   14.1601    0.0000 H   0  0  0  0  0  0  0  0  0  0  0  0
    2.1259   14.0886    0.0000 H   0  0  0  0  0  0  0  0  0  0  0  0
    7.0289    0.0000    0.0000 H   0  0  0  0  0  0  0  0  0  0  0  0
  1 68  1  0  0  0  0
  2  6  2  0  0  0  0
  2  7  2  0  0  0  0
  2 10  1  0  0  0  0
  2 23  1  0  0  0  0
  3 37  1  0  0  0  0
  4 37  1  0  0  0  0
  5 37  1  0  0  0  0
  8 11  1  0  0  0  0
  8 12  1  0  0  0  0
  8 13  1  0  0  0  0
  9 14  1  0  0  0  0
  9 15  1  0  0  0  0
  9 24  1  0  0  0  0
 10 19  1  0  0  0  0
 10 21  1  0  0  0  0
 11 14  1  0  0  0  0
 11 38  1  0  0  0  0
 11 39  1  0  0  0  0
 12 15  1  0  0  0  0
 12 40  1  0  0  0  0
 12 41  1  0  0  0  0
 13 16  1  0  0  0  0
 13 42  1  0  0  0  0
 13 43  1  0  0  0  0
 14 44  1  0  0  0  0
 14 45  1  0  0  0  0
 15 46  1  0  0  0  0
 15 47  1  0  0  0  0
 16 17  1  0  0  0  0
 16 48  1  0  0  0  0
 16 49  1  0  0  0  0
 17 18  1  0  0  0  0
 17 50  1  0  0  0  0
 17 51  1  0  0  0  0
 18 20  1  0  0  0  0
 18 52  1  0  0  0  0
 18 53  1  0  0  0  0
 19 20  1  0  0  0  0
 19 54  1  0  0  0  0
 19 55  1  0  0  0  0
 20 56  1  0  0  0  0
 20 57  1  0  0  0  0
 21 22  1  0  0  0  0
 21 26  2  0  0  0  0
 22 23  1  0  0  0  0
 22 25  2  0  0  0  0
 23 27  2  0  0  0  0
 24 31  1  0  0  0  0
 24 33  2  0  0  0  0
 25 28  1  0  0  0  0
 25 29  1  0  0  0  0
 26 30  1  0  0  0  0
 26 58  1  0  0  0  0
 27 32  1  0  0  0  0
 27 59  1  0  0  0  0
 28 30  2  0  0  0  0
 28 60  1  0  0  0  0
 29 32  2  0  0  0  0
 29 61  1  0  0  0  0
 30 62  1  0  0  0  0
 31 34  2  0  0  0  0
 31 63  1  0  0  0  0
 32 64  1  0  0  0  0
 33 35  1  0  0  0  0
 33 65  1  0  0  0  0
 34 36  1  0  0  0  0
 34 37  1  0  0  0  0
 35 36  2  0  0  0  0
 35 66  1  0  0  0  0
 36 67  1  0  0  0  0
M  END
> <PUBCHEM_COMPOUND_CID>
155519515

> <PUBCHEM_COMPOUND_CANONICALIZED>
1

> <PUBCHEM_CACTVS_COMPLEXITY>
825

> <PUBCHEM_CACTVS_HBOND_ACCEPTOR>
8

> <PUBCHEM_CACTVS_HBOND_DONOR>
1

> <PUBCHEM_CACTVS_ROTATABLE_BOND>
8

> <PUBCHEM_CACTVS_SUBSKEYS>
AAADceB7MYBEAAAAAAAAAAAAAAAAAWAAAAA8YMEAAAAAAFjBVAAAHQQAQAAADAjBWBQwwcMAAAKAAiRCQHDCABAhAgAIiBgIZIgIYCLAkZGUIAxggADIyAcQgIAOgAAAwAAWAAAAAAGAACwAAAAAAAAAAA==

> <PUBCHEM_IUPAC_OPENEYE_NAME>
3-[6-[4-[3-(trifluoromethyl)phenyl]piperazin-1-yl]hexyl]-2lambda6-thia-3-azatricyclo[6.3.1.04,12]dodeca-1(11),4,6,8(12),9-pentaene 2,2-dioxide;hydrochloride

> <PUBCHEM_IUPAC_CAS_NAME>
3-[6-[4-[3-(trifluoromethyl)phenyl]-1-piperazinyl]hexyl]-2lambda6-thia-3-azatricyclo[6.3.1.04,12]dodeca-1(11),4,6,8(12),9-pentaene 2,2-dioxide;hydrochloride

> <PUBCHEM_IUPAC_NAME_MARKUP>
3-[6-[4-[3-(trifluoromethyl)phenyl]piperazin-1-yl]hexyl]-2&lambda;<SUP>6</SUP>-thia-3-azatricyclo[6.3.1.0<SUP>4,12</SUP>]dodeca-1(11),4,6,8(12),9-pentaene 2,2-dioxide;hydrochloride

> <PUBCHEM_IUPAC_NAME>
3-[6-[4-[3-(trifluoromethyl)phenyl]piperazin-1-yl]hexyl]-2lambda6-thia-3-azatricyclo[6.3.1.04,12]dodeca-1(11),4,6,8(12),9-pentaene 2,2-dioxide;hydrochloride

> <PUBCHEM_IUPAC_SYSTEMATIC_NAME>
3-[6-[4-[3-(trifluoromethyl)phenyl]piperazin-1-yl]hexyl]-2lambda6-thia-3-azatricyclo[6.3.1.04,12]dodeca-1(11),4,6,8(12),9-pentaene 2,2-dioxide;hydrochloride

> <PUBCHEM_IUPAC_TRADITIONAL_NAME>
3-[6-[4-[3-(trifluoromethyl)phenyl]piperazino]hexyl]-2lambda6-thia-3-azatricyclo[6.3.1.04,12]dodeca-1(11),4,6,8(12),9-pentaene 2,2-dioxide;hydrochloride

> <PUBCHEM_IUPAC_INCHI>
InChI=1S/C27H30F3N3O2S.ClH/c28-27(29,30)22-10-7-11-23(20-22)32-18-16-31(17-19-32)14-3-1-2-4-15-33-24-12-5-8-21-9-6-13-25(26(21)24)36(33,34)35;/h5-13,20H,1-4,14-19H2;1H

> <PUBCHEM_IUPAC_INCHIKEY>
AJPUWDQEPRUPMN-UHFFFAOYSA-N

> <PUBCHEM_EXACT_MASS>
553.1777606

> <PUBCHEM_MOLECULAR_FORMULA>
C27H31ClF3N3O2S

> <PUBCHEM_MOLECULAR_WEIGHT>
554.1

> <PUBCHEM_OPENEYE_CAN_SMILES>
C1CN(CCN1CCCCCCN2C3=CC=CC4=C3C(=CC=C4)S2(=O)=O)C5=CC=CC(=C5)C(F)(F)F.Cl

> <PUBCHEM_OPENEYE_ISO_SMILES>
C1CN(CCN1CCCCCCN2C3=CC=CC4=C3C(=CC=C4)S2(=O)=O)C5=CC=CC(=C5)C(F)(F)F.Cl

> <PUBCHEM_CACTVS_TPSA>
52.2

> <PUBCHEM_MONOISOTOPIC_WEIGHT>
553.1777606

> <PUBCHEM_TOTAL_CHARGE>
0

> <PUBCHEM_HEAVY_ATOM_COUNT>
37

> <PUBCHEM_ATOM_DEF_STEREO_COUNT>
0

> <PUBCHEM_ATOM_UDEF_STEREO_COUNT>
0

> <PUBCHEM_BOND_DEF_STEREO_COUNT>
0

> <PUBCHEM_BOND_UDEF_STEREO_COUNT>
0

> <PUBCHEM_ISOTOPIC_ATOM_COUNT>
0

> <PUBCHEM_COMPONENT_COUNT>
2

> <PUBCHEM_CACTVS_TAUTO_COUNT>
-1

> <PUBCHEM_COORDINATE_TYPE>
1
5
255

> <PUBCHEM_BONDANNOTATIONS>
21  22  8
21  26  8
22  23  8
22  25  8
23  27  8
24  31  8
24  33  8
25  28  8
25  29  8
26  30  8
27  32  8
28  30  8
29  32  8
31  34  8
33  35  8
34  36  8
35  36  8

$$$$
