54581963
  -OEChem-09292322312D

 67 70  0     0  0  0  0  0  0999 V2000
   11.2591    0.8431    0.0000 O   0  0  0  0  0  0  0  0  0  0  0  0
    2.9888   -1.2724    0.0000 O   0  0  0  0  0  0  0  0  0  0  0  0
   14.4825    3.9657    0.0000 O   0  0  0  0  0  0  0  0  0  0  0  0
    6.2135   -0.0068    0.0000 N   0  0  0  0  0  0  0  0  0  0  0  0
    4.9665   -1.5705    0.0000 N   0  0  0  0  0  0  0  0  0  0  0  0
   10.0616    2.0406    0.0000 N   0  0  0  0  0  0  0  0  0  0  0  0
    5.2246    0.1422    0.0000 C   0  0  0  0  0  0  0  0  0  0  0  0
    6.5788   -0.9377    0.0000 C   0  0  0  0  0  0  0  0  0  0  0  0
    6.8370    0.7750    0.0000 C   0  0  0  0  0  0  0  0  0  0  0  0
    4.6011   -0.6396    0.0000 C   0  0  0  0  0  0  0  0  0  0  0  0
    5.9553   -1.7195    0.0000 C   0  0  0  0  0  0  0  0  0  0  0  0
    7.8258    0.6260    0.0000 C   0  0  0  0  0  0  0  0  0  0  0  0
    8.4493    1.4078    0.0000 C   0  0  0  0  0  0  0  0  0  0  0  0
    9.4381    1.2587    0.0000 C   0  0  0  0  0  0  0  0  0  0  0  0
    9.6277    2.9415    0.0000 C   0  0  0  0  0  0  0  0  0  0  0  0
    4.3430   -2.3523    0.0000 C   0  0  0  0  0  0  0  0  0  0  0  0
   10.0616    3.8425    0.0000 C   0  0  0  0  0  0  0  0  0  0  0  0
   11.0365    4.0650    0.0000 C   0  0  0  0  0  0  0  0  0  0  0  0
   11.0365    1.8180    0.0000 C   0  0  0  0  0  0  0  0  0  0  0  0
   11.8184    3.4415    0.0000 C   0  0  0  0  0  0  0  0  0  0  0  0
   11.8184    2.4415    0.0000 C   0  0  0  0  0  0  0  0  0  0  0  0
    3.3542   -2.2033    0.0000 C   0  0  0  0  0  0  0  0  0  0  0  0
    4.7083   -3.2832    0.0000 C   0  0  0  0  0  0  0  0  0  0  0  0
   12.7123    3.9762    0.0000 C   0  0  0  0  0  0  0  0  0  0  0  0
   12.7123    1.9069    0.0000 C   0  0  0  0  0  0  0  0  0  0  0  0
    2.7307   -2.9851    0.0000 C   0  0  0  0  0  0  0  0  0  0  0  0
    4.0848   -4.0650    0.0000 C   0  0  0  0  0  0  0  0  0  0  0  0
   13.6184    3.4624    0.0000 C   0  0  0  0  0  0  0  0  0  0  0  0
   13.6184    2.4207    0.0000 C   0  0  0  0  0  0  0  0  0  0  0  0
    3.0960   -3.9160    0.0000 C   0  0  0  0  0  0  0  0  0  0  0  0
    2.0000   -1.1234    0.0000 C   0  0  0  0  0  0  0  0  0  0  0  0
   15.3504    3.4690    0.0000 C   0  0  0  0  0  0  0  0  0  0  0  0
    5.4221    0.7299    0.0000 H   0  0  0  0  0  0  0  0  0  0  0  0
    4.6801    0.4387    0.0000 H   0  0  0  0  0  0  0  0  0  0  0  0
    6.9891   -1.4026    0.0000 H   0  0  0  0  0  0  0  0  0  0  0  0
    7.1078   -0.6144    0.0000 H   0  0  0  0  0  0  0  0  0  0  0  0
    7.0344    1.3627    0.0000 H   0  0  0  0  0  0  0  0  0  0  0  0
    6.2925    1.0715    0.0000 H   0  0  0  0  0  0  0  0  0  0  0  0
    4.1909   -0.1748    0.0000 H   0  0  0  0  0  0  0  0  0  0  0  0
    4.0721   -0.9629    0.0000 H   0  0  0  0  0  0  0  0  0  0  0  0
    5.7579   -2.3072    0.0000 H   0  0  0  0  0  0  0  0  0  0  0  0
    6.4998   -2.0161    0.0000 H   0  0  0  0  0  0  0  0  0  0  0  0
    7.6283    0.0382    0.0000 H   0  0  0  0  0  0  0  0  0  0  0  0
    8.3703    0.3294    0.0000 H   0  0  0  0  0  0  0  0  0  0  0  0
    8.6467    1.9955    0.0000 H   0  0  0  0  0  0  0  0  0  0  0  0
    7.9048    1.7043    0.0000 H   0  0  0  0  0  0  0  0  0  0  0  0
    9.2406    0.6710    0.0000 H   0  0  0  0  0  0  0  0  0  0  0  0
    9.9826    0.9622    0.0000 H   0  0  0  0  0  0  0  0  0  0  0  0
    9.1430    3.3281    0.0000 H   0  0  0  0  0  0  0  0  0  0  0  0
    9.1430    2.5550    0.0000 H   0  0  0  0  0  0  0  0  0  0  0  0
   10.0616    4.4625    0.0000 H   0  0  0  0  0  0  0  0  0  0  0  0
    9.4572    3.9805    0.0000 H   0  0  0  0  0  0  0  0  0  0  0  0
   11.5213    4.4516    0.0000 H   0  0  0  0  0  0  0  0  0  0  0  0
   10.7675    4.6236    0.0000 H   0  0  0  0  0  0  0  0  0  0  0  0
    5.3214   -3.3756    0.0000 H   0  0  0  0  0  0  0  0  0  0  0  0
   12.7051    4.5962    0.0000 H   0  0  0  0  0  0  0  0  0  0  0  0
   12.7051    1.2869    0.0000 H   0  0  0  0  0  0  0  0  0  0  0  0
    2.1176   -2.8927    0.0000 H   0  0  0  0  0  0  0  0  0  0  0  0
    4.3114   -4.6422    0.0000 H   0  0  0  0  0  0  0  0  0  0  0  0
   14.1541    2.1087    0.0000 H   0  0  0  0  0  0  0  0  0  0  0  0
    2.7095   -4.4007    0.0000 H   0  0  0  0  0  0  0  0  0  0  0  0
    2.0924   -0.5103    0.0000 H   0  0  0  0  0  0  0  0  0  0  0  0
    1.3869   -1.0310    0.0000 H   0  0  0  0  0  0  0  0  0  0  0  0
    1.9076   -1.7364    0.0000 H   0  0  0  0  0  0  0  0  0  0  0  0
   15.0425    2.9309    0.0000 H   0  0  0  0  0  0  0  0  0  0  0  0
   15.8885    3.1611    0.0000 H   0  0  0  0  0  0  0  0  0  0  0  0
   15.6583    4.0072    0.0000 H   0  0  0  0  0  0  0  0  0  0  0  0
  1 19  2  0  0  0  0
  2 22  1  0  0  0  0
  2 31  1  0  0  0  0
  3 28  1  0  0  0  0
  3 32  1  0  0  0  0
  4  7  1  0  0  0  0
  4  8  1  0  0  0  0
  4  9  1  0  0  0  0
  5 10  1  0  0  0  0
  5 11  1  0  0  0  0
  5 16  1  0  0  0  0
  6 14  1  0  0  0  0
  6 15  1  0  0  0  0
  6 19  1  0  0  0  0
  7 10  1  0  0  0  0
  7 33  1  0  0  0  0
  7 34  1  0  0  0  0
  8 11  1  0  0  0  0
  8 35  1  0  0  0  0
  8 36  1  0  0  0  0
  9 12  1  0  0  0  0
  9 37  1  0  0  0  0
  9 38  1  0  0  0  0
 10 39  1  0  0  0  0
 10 40  1  0  0  0  0
 11 41  1  0  0  0  0
 11 42  1  0  0  0  0
 12 13  1  0  0  0  0
 12 43  1  0  0  0  0
 12 44  1  0  0  0  0
 13 14  1  0  0  0  0
 13 45  1  0  0  0  0
 13 46  1  0  0  0  0
 14 47  1  0  0  0  0
 14 48  1  0  0  0  0
 15 17  1  0  0  0  0
 15 49  1  0  0  0  0
 15 50  1  0  0  0  0
 16 22  1  0  0  0  0
 16 23  2  0  0  0  0
 17 18  1  0  0  0  0
 17 51  1  0  0  0  0
 17 52  1  0  0  0  0
 18 20  1  0  0  0  0
 18 53  1  0  0  0  0
 18 54  1  0  0  0  0
 19 21  1  0  0  0  0
 20 21  2  0  0  0  0
 20 24  1  0  0  0  0
 21 25  1  0  0  0  0
 22 26  2  0  0  0  0
 23 27  1  0  0  0  0
 23 55  1  0  0  0  0
 24 28  2  0  0  0  0
 24 56  1  0  0  0  0
 25 29  2  0  0  0  0
 25 57  1  0  0  0  0
 26 30  1  0  0  0  0
 26 58  1  0  0  0  0
 27 30  2  0  0  0  0
 27 59  1  0  0  0  0
 28 29  1  0  0  0  0
 29 60  1  0  0  0  0
 30 61  1  0  0  0  0
 31 62  1  0  0  0  0
 31 63  1  0  0  0  0
 31 64  1  0  0  0  0
 32 65  1  0  0  0  0
 32 66  1  0  0  0  0
 32 67  1  0  0  0  0
M  END
> <PUBCHEM_COMPOUND_CID>
54581963

> <PUBCHEM_COMPOUND_CANONICALIZED>
1

> <PUBCHEM_CACTVS_COMPLEXITY>
581

> <PUBCHEM_CACTVS_HBOND_ACCEPTOR>
5

> <PUBCHEM_CACTVS_HBOND_DONOR>
0

> <PUBCHEM_CACTVS_ROTATABLE_BOND>
8

> <PUBCHEM_CACTVS_SUBSKEYS>
AAADcfB7MAAAAAAAAAAAAAAAAAAAAAAAAAA8YIAABYAAAAABQAAAHgAAAAAADAzBmAYyxoMABACIAiVSUACCCAAlIgAIiAEPbMgOZjLEtZuVMShkxhHY6YeY3LLOoAABAAAQEABAAAIAACAgAAAAAAAAAA==

> <PUBCHEM_IUPAC_OPENEYE_NAME>
7-methoxy-2-[4-[4-(2-methoxyphenyl)piperazin-1-yl]butyl]-4,5-dihydro-3H-2-benzazepin-1-one

> <PUBCHEM_IUPAC_CAS_NAME>
7-methoxy-2-[4-[4-(2-methoxyphenyl)-1-piperazinyl]butyl]-4,5-dihydro-3H-2-benzazepin-1-one

> <PUBCHEM_IUPAC_NAME_MARKUP>
7-methoxy-2-[4-[4-(2-methoxyphenyl)piperazin-1-yl]butyl]-4,5-dihydro-3<I>H</I>-2-benzazepin-1-one

> <PUBCHEM_IUPAC_NAME>
7-methoxy-2-[4-[4-(2-methoxyphenyl)piperazin-1-yl]butyl]-4,5-dihydro-3H-2-benzazepin-1-one

> <PUBCHEM_IUPAC_SYSTEMATIC_NAME>
7-methoxy-2-[4-[4-(2-methoxyphenyl)piperazin-1-yl]butyl]-4,5-dihydro-3H-2-benzazepin-1-one

> <PUBCHEM_IUPAC_TRADITIONAL_NAME>
7-methoxy-2-[4-[4-(2-methoxyphenyl)piperazino]butyl]-4,5-dihydro-3H-2-benzazepin-1-one

> <PUBCHEM_IUPAC_INCHI>
InChI=1S/C26H35N3O3/c1-31-22-11-12-23-21(20-22)8-7-15-29(26(23)30)14-6-5-13-27-16-18-28(19-17-27)24-9-3-4-10-25(24)32-2/h3-4,9-12,20H,5-8,13-19H2,1-2H3

> <PUBCHEM_IUPAC_INCHIKEY>
OLFPBASVCZUWSQ-UHFFFAOYSA-N

> <PUBCHEM_XLOGP3_AA>
4.1

> <PUBCHEM_EXACT_MASS>
437.26784199

> <PUBCHEM_MOLECULAR_FORMULA>
C26H35N3O3

> <PUBCHEM_MOLECULAR_WEIGHT>
437.6

> <PUBCHEM_OPENEYE_CAN_SMILES>
COC1=CC2=C(C=C1)C(=O)N(CCC2)CCCCN3CCN(CC3)C4=CC=CC=C4OC

> <PUBCHEM_OPENEYE_ISO_SMILES>
COC1=CC2=C(C=C1)C(=O)N(CCC2)CCCCN3CCN(CC3)C4=CC=CC=C4OC

> <PUBCHEM_CACTVS_TPSA>
45.2

> <PUBCHEM_MONOISOTOPIC_WEIGHT>
437.26784199

> <PUBCHEM_TOTAL_CHARGE>
0

> <PUBCHEM_HEAVY_ATOM_COUNT>
32

> <PUBCHEM_ATOM_DEF_STEREO_COUNT>
0

> <PUBCHEM_ATOM_UDEF_STEREO_COUNT>
0

> <PUBCHEM_BOND_DEF_STEREO_COUNT>
0

> <PUBCHEM_BOND_UDEF_STEREO_COUNT>
0

> <PUBCHEM_ISOTOPIC_ATOM_COUNT>
0

> <PUBCHEM_COMPONENT_COUNT>
1

> <PUBCHEM_CACTVS_TAUTO_COUNT>
-1

> <PUBCHEM_COORDINATE_TYPE>
1
5
255

> <PUBCHEM_BONDANNOTATIONS>
16  22  8
16  23  8
20  21  8
20  24  8
21  25  8
22  26  8
23  27  8
24  28  8
25  29  8
26  30  8
27  30  8
28  29  8

$$$$
