44336059
  -OEChem-09292322512D

 47 50  0     0  0  0  0  0  0999 V2000
   10.1456   -3.6911    0.0000 Cl  0  0  0  0  0  0  0  0  0  0  0  0
    4.3211    0.1916    0.0000 O   0  0  0  0  0  0  0  0  0  0  0  0
    5.9674    0.7296    0.0000 N   0  0  0  0  0  0  0  0  0  0  0  0
    7.9244    0.3172    0.0000 N   0  0  0  0  0  0  0  0  0  0  0  0
    4.6783    1.8864    0.0000 N   0  0  0  0  0  0  0  0  0  0  0  0
    6.6353    1.4739    0.0000 C   0  0  0  0  0  0  0  0  0  0  0  0
    6.2781   -0.2209    0.0000 C   0  0  0  0  0  0  0  0  0  0  0  0
    7.6138    1.2677    0.0000 C   0  0  0  0  0  0  0  0  0  0  0  0
    7.2566   -0.4271    0.0000 C   0  0  0  0  0  0  0  0  0  0  0  0
    5.2619    2.6911    0.0000 C   0  0  0  0  0  0  0  0  0  0  0  0
    4.9889    0.9359    0.0000 C   0  0  0  0  0  0  0  0  0  0  0  0
    8.9030    0.1110    0.0000 C   0  0  0  0  0  0  0  0  0  0  0  0
    4.6783    3.4958    0.0000 C   0  0  0  0  0  0  0  0  0  0  0  0
    3.7320    2.1911    0.0000 C   0  0  0  0  0  0  0  0  0  0  0  0
    3.7320    3.1911    0.0000 C   0  0  0  0  0  0  0  0  0  0  0  0
    9.2136   -0.8395    0.0000 C   0  0  0  0  0  0  0  0  0  0  0  0
    2.8660    1.6911    0.0000 C   0  0  0  0  0  0  0  0  0  0  0  0
    2.8660    3.6911    0.0000 C   0  0  0  0  0  0  0  0  0  0  0  0
    2.0000    2.1911    0.0000 C   0  0  0  0  0  0  0  0  0  0  0  0
    2.0000    3.1911    0.0000 C   0  0  0  0  0  0  0  0  0  0  0  0
   10.1921   -1.0458    0.0000 C   0  0  0  0  0  0  0  0  0  0  0  0
    8.5458   -1.5838    0.0000 C   0  0  0  0  0  0  0  0  0  0  0  0
   10.5028   -1.9963    0.0000 C   0  0  0  0  0  0  0  0  0  0  0  0
    8.8564   -2.5344    0.0000 C   0  0  0  0  0  0  0  0  0  0  0  0
    9.8349   -2.7406    0.0000 C   0  0  0  0  0  0  0  0  0  0  0  0
    6.8665    2.0492    0.0000 H   0  0  0  0  0  0  0  0  0  0  0  0
    6.1089    1.8016    0.0000 H   0  0  0  0  0  0  0  0  0  0  0  0
    5.6643   -0.3082    0.0000 H   0  0  0  0  0  0  0  0  0  0  0  0
    6.2575   -0.8405    0.0000 H   0  0  0  0  0  0  0  0  0  0  0  0
    8.2276    1.3551    0.0000 H   0  0  0  0  0  0  0  0  0  0  0  0
    7.6344    1.8874    0.0000 H   0  0  0  0  0  0  0  0  0  0  0  0
    7.0254   -1.0024    0.0000 H   0  0  0  0  0  0  0  0  0  0  0  0
    7.7830   -0.7547    0.0000 H   0  0  0  0  0  0  0  0  0  0  0  0
    5.7227    2.2764    0.0000 H   0  0  0  0  0  0  0  0  0  0  0  0
    5.7227    3.1058    0.0000 H   0  0  0  0  0  0  0  0  0  0  0  0
    5.2156    3.8051    0.0000 H   0  0  0  0  0  0  0  0  0  0  0  0
    4.4272    4.0627    0.0000 H   0  0  0  0  0  0  0  0  0  0  0  0
    9.5168    0.1983    0.0000 H   0  0  0  0  0  0  0  0  0  0  0  0
    8.9235    0.7306    0.0000 H   0  0  0  0  0  0  0  0  0  0  0  0
    2.8660    1.0711    0.0000 H   0  0  0  0  0  0  0  0  0  0  0  0
    2.8660    4.3111    0.0000 H   0  0  0  0  0  0  0  0  0  0  0  0
    1.4631    1.8811    0.0000 H   0  0  0  0  0  0  0  0  0  0  0  0
    1.4631    3.5011    0.0000 H   0  0  0  0  0  0  0  0  0  0  0  0
   10.6062   -0.5843    0.0000 H   0  0  0  0  0  0  0  0  0  0  0  0
    7.9391   -1.4560    0.0000 H   0  0  0  0  0  0  0  0  0  0  0  0
   11.1095   -2.1241    0.0000 H   0  0  0  0  0  0  0  0  0  0  0  0
    8.4424   -2.9958    0.0000 H   0  0  0  0  0  0  0  0  0  0  0  0
  1 25  1  0  0  0  0
  2 11  2  0  0  0  0
  3  6  1  0  0  0  0
  3  7  1  0  0  0  0
  3 11  1  0  0  0  0
  4  8  1  0  0  0  0
  4  9  1  0  0  0  0
  4 12  1  0  0  0  0
  5 10  1  0  0  0  0
  5 11  1  0  0  0  0
  5 14  1  0  0  0  0
  6  8  1  0  0  0  0
  6 26  1  0  0  0  0
  6 27  1  0  0  0  0
  7  9  1  0  0  0  0
  7 28  1  0  0  0  0
  7 29  1  0  0  0  0
  8 30  1  0  0  0  0
  8 31  1  0  0  0  0
  9 32  1  0  0  0  0
  9 33  1  0  0  0  0
 10 13  1  0  0  0  0
 10 34  1  0  0  0  0
 10 35  1  0  0  0  0
 12 16  1  0  0  0  0
 12 38  1  0  0  0  0
 12 39  1  0  0  0  0
 13 15  1  0  0  0  0
 13 36  1  0  0  0  0
 13 37  1  0  0  0  0
 14 15  1  0  0  0  0
 14 17  2  0  0  0  0
 15 18  2  0  0  0  0
 16 21  2  0  0  0  0
 16 22  1  0  0  0  0
 17 19  1  0  0  0  0
 17 40  1  0  0  0  0
 18 20  1  0  0  0  0
 18 41  1  0  0  0  0
 19 20  2  0  0  0  0
 19 42  1  0  0  0  0
 20 43  1  0  0  0  0
 21 23  1  0  0  0  0
 21 44  1  0  0  0  0
 22 24  2  0  0  0  0
 22 45  1  0  0  0  0
 23 25  2  0  0  0  0
 23 46  1  0  0  0  0
 24 25  1  0  0  0  0
 24 47  1  0  0  0  0
M  END
> <PUBCHEM_COMPOUND_CID>
44336059

> <PUBCHEM_COMPOUND_CANONICALIZED>
1

> <PUBCHEM_CACTVS_COMPLEXITY>
458

> <PUBCHEM_CACTVS_HBOND_ACCEPTOR>
2

> <PUBCHEM_CACTVS_HBOND_DONOR>
0

> <PUBCHEM_CACTVS_ROTATABLE_BOND>
2

> <PUBCHEM_CACTVS_SUBSKEYS>
AAADceB7IAAEAAAAAAAAAAAAAAAAAWAAAAA8YIAAAAAAAFgBQAAAHgIAAAAADArBGCQxwIMAAACIAiRCUACCAAAhBwAIiAAIZoiIYCLBk5GUIAhohgLIyCcQgIAOBAAAAAACAAAIAAAAAAQAAAAAAAAAAA==

> <PUBCHEM_IUPAC_OPENEYE_NAME>
[4-[(4-chlorophenyl)methyl]piperazin-1-yl]-indolin-1-yl-methanone

> <PUBCHEM_IUPAC_CAS_NAME>
[4-[(4-chlorophenyl)methyl]-1-piperazinyl]-(2,3-dihydroindol-1-yl)methanone

> <PUBCHEM_IUPAC_NAME_MARKUP>
[4-[(4-chlorophenyl)methyl]piperazin-1-yl]-(2,3-dihydroindol-1-yl)methanone

> <PUBCHEM_IUPAC_NAME>
[4-[(4-chlorophenyl)methyl]piperazin-1-yl]-(2,3-dihydroindol-1-yl)methanone

> <PUBCHEM_IUPAC_SYSTEMATIC_NAME>
[4-[(4-chlorophenyl)methyl]piperazin-1-yl]-(2,3-dihydroindol-1-yl)methanone

> <PUBCHEM_IUPAC_TRADITIONAL_NAME>
[4-(4-chlorobenzyl)piperazino]-indolin-1-yl-methanone

> <PUBCHEM_IUPAC_INCHI>
InChI=1S/C20H22ClN3O/c21-18-7-5-16(6-8-18)15-22-11-13-23(14-12-22)20(25)24-10-9-17-3-1-2-4-19(17)24/h1-8H,9-15H2

> <PUBCHEM_IUPAC_INCHIKEY>
WKOOBVWHTGPRJA-UHFFFAOYSA-N

> <PUBCHEM_XLOGP3_AA>
3.3

> <PUBCHEM_EXACT_MASS>
355.1451400

> <PUBCHEM_MOLECULAR_FORMULA>
C20H22ClN3O

> <PUBCHEM_MOLECULAR_WEIGHT>
355.9

> <PUBCHEM_OPENEYE_CAN_SMILES>
C1CN(C2=CC=CC=C21)C(=O)N3CCN(CC3)CC4=CC=C(C=C4)Cl

> <PUBCHEM_OPENEYE_ISO_SMILES>
C1CN(C2=CC=CC=C21)C(=O)N3CCN(CC3)CC4=CC=C(C=C4)Cl

> <PUBCHEM_CACTVS_TPSA>
26.8

> <PUBCHEM_MONOISOTOPIC_WEIGHT>
355.1451400

> <PUBCHEM_TOTAL_CHARGE>
0

> <PUBCHEM_HEAVY_ATOM_COUNT>
25

> <PUBCHEM_ATOM_DEF_STEREO_COUNT>
0

> <PUBCHEM_ATOM_UDEF_STEREO_COUNT>
0

> <PUBCHEM_BOND_DEF_STEREO_COUNT>
0

> <PUBCHEM_BOND_UDEF_STEREO_COUNT>
0

> <PUBCHEM_ISOTOPIC_ATOM_COUNT>
0

> <PUBCHEM_COMPONENT_COUNT>
1

> <PUBCHEM_CACTVS_TAUTO_COUNT>
-1

> <PUBCHEM_COORDINATE_TYPE>
1
5
255

> <PUBCHEM_BONDANNOTATIONS>
14  15  8
14  17  8
15  18  8
16  21  8
16  22  8
17  19  8
18  20  8
19  20  8
21  23  8
22  24  8
23  25  8
24  25  8

$$$$
