156011666
  -OEChem-09292322062D

 54 58  0     0  0  0  0  0  0999 V2000
    3.0000   -6.1309    0.0000 F   0  0  0  0  0  0  0  0  0  0  0  0
    6.5443   -5.9357    0.0000 O   0  0  0  0  0  0  0  0  0  0  0  0
    4.7552    3.1420    0.0000 O   0  0  0  0  0  0  0  0  0  0  0  0
    4.7320   -1.1309    0.0000 N   0  0  0  0  0  0  0  0  0  0  0  0
    3.0000    2.8691    0.0000 N   0  0  0  0  0  0  0  0  0  0  0  0
    7.1279   -5.1309    0.0000 N   0  0  0  0  0  0  0  0  0  0  0  0
    3.5000    4.3989    0.0000 N   0  0  0  0  0  0  0  0  0  0  0  0
    2.1953    3.4527    0.0000 N   0  0  0  0  0  0  0  0  0  0  0  0
    4.7320   -3.1309    0.0000 C   0  0  0  0  0  0  0  0  0  0  0  0
    5.5981   -2.6309    0.0000 C   0  0  0  0  0  0  0  0  0  0  0  0
    3.8660   -2.6309    0.0000 C   0  0  0  0  0  0  0  0  0  0  0  0
    5.5981   -1.6309    0.0000 C   0  0  0  0  0  0  0  0  0  0  0  0
    3.8660   -1.6309    0.0000 C   0  0  0  0  0  0  0  0  0  0  0  0
    4.7320   -0.1309    0.0000 C   0  0  0  0  0  0  0  0  0  0  0  0
    4.7320   -4.1309    0.0000 C   0  0  0  0  0  0  0  0  0  0  0  0
    3.8660    0.3691    0.0000 C   0  0  0  0  0  0  0  0  0  0  0  0
    5.5981   -4.6309    0.0000 C   0  0  0  0  0  0  0  0  0  0  0  0
    3.8660    1.3691    0.0000 C   0  0  0  0  0  0  0  0  0  0  0  0
    3.8660   -4.6309    0.0000 C   0  0  0  0  0  0  0  0  0  0  0  0
    3.0000    1.8691    0.0000 C   0  0  0  0  0  0  0  0  0  0  0  0
    5.5981   -5.6309    0.0000 C   0  0  0  0  0  0  0  0  0  0  0  0
    3.8660   -5.6309    0.0000 C   0  0  0  0  0  0  0  0  0  0  0  0
    6.5443   -4.3262    0.0000 C   0  0  0  0  0  0  0  0  0  0  0  0
    4.7320   -6.1309    0.0000 C   0  0  0  0  0  0  0  0  0  0  0  0
    3.8047    3.4527    0.0000 C   0  0  0  0  0  0  0  0  0  0  0  0
    2.5000    4.3989    0.0000 C   0  0  0  0  0  0  0  0  0  0  0  0
    4.0000    5.2649    0.0000 C   0  0  0  0  0  0  0  0  0  0  0  0
    2.0000    5.2649    0.0000 C   0  0  0  0  0  0  0  0  0  0  0  0
    3.5000    6.1309    0.0000 C   0  0  0  0  0  0  0  0  0  0  0  0
    2.5000    6.1309    0.0000 C   0  0  0  0  0  0  0  0  0  0  0  0
    5.2690   -3.4409    0.0000 H   0  0  0  0  0  0  0  0  0  0  0  0
    5.8101   -3.2136    0.0000 H   0  0  0  0  0  0  0  0  0  0  0  0
    6.2087   -2.5233    0.0000 H   0  0  0  0  0  0  0  0  0  0  0  0
    3.2554   -2.5233    0.0000 H   0  0  0  0  0  0  0  0  0  0  0  0
    3.6540   -3.2136    0.0000 H   0  0  0  0  0  0  0  0  0  0  0  0
    6.2087   -1.7386    0.0000 H   0  0  0  0  0  0  0  0  0  0  0  0
    5.8101   -1.0483    0.0000 H   0  0  0  0  0  0  0  0  0  0  0  0
    3.6540   -1.0483    0.0000 H   0  0  0  0  0  0  0  0  0  0  0  0
    3.2554   -1.7386    0.0000 H   0  0  0  0  0  0  0  0  0  0  0  0
    5.3426   -0.2386    0.0000 H   0  0  0  0  0  0  0  0  0  0  0  0
    4.9441    0.4517    0.0000 H   0  0  0  0  0  0  0  0  0  0  0  0
    3.2554    0.4767    0.0000 H   0  0  0  0  0  0  0  0  0  0  0  0
    3.6540   -0.2135    0.0000 H   0  0  0  0  0  0  0  0  0  0  0  0
    4.4766    1.2614    0.0000 H   0  0  0  0  0  0  0  0  0  0  0  0
    4.0781    1.9517    0.0000 H   0  0  0  0  0  0  0  0  0  0  0  0
    3.3291   -4.3209    0.0000 H   0  0  0  0  0  0  0  0  0  0  0  0
    2.3894    1.9767    0.0000 H   0  0  0  0  0  0  0  0  0  0  0  0
    2.7880    1.2865    0.0000 H   0  0  0  0  0  0  0  0  0  0  0  0
    6.7369   -3.7369    0.0000 H   0  0  0  0  0  0  0  0  0  0  0  0
    4.7320   -6.7509    0.0000 H   0  0  0  0  0  0  0  0  0  0  0  0
    4.6200    5.2649    0.0000 H   0  0  0  0  0  0  0  0  0  0  0  0
    1.3800    5.2649    0.0000 H   0  0  0  0  0  0  0  0  0  0  0  0
    3.8100    6.6679    0.0000 H   0  0  0  0  0  0  0  0  0  0  0  0
    2.1900    6.6679    0.0000 H   0  0  0  0  0  0  0  0  0  0  0  0
  1 22  1  0  0  0  0
  2  6  1  0  0  0  0
  2 21  1  0  0  0  0
  3 25  2  0  0  0  0
  4 12  1  0  0  0  0
  4 13  1  0  0  0  0
  4 14  1  0  0  0  0
  5  8  1  0  0  0  0
  5 20  1  0  0  0  0
  5 25  1  0  0  0  0
  6 23  2  0  0  0  0
  7 25  1  0  0  0  0
  7 26  1  0  0  0  0
  7 27  1  0  0  0  0
  8 26  2  0  0  0  0
  9 10  1  0  0  0  0
  9 11  1  0  0  0  0
  9 15  1  0  0  0  0
  9 31  1  0  0  0  0
 10 12  1  0  0  0  0
 10 32  1  0  0  0  0
 10 33  1  0  0  0  0
 11 13  1  0  0  0  0
 11 34  1  0  0  0  0
 11 35  1  0  0  0  0
 12 36  1  0  0  0  0
 12 37  1  0  0  0  0
 13 38  1  0  0  0  0
 13 39  1  0  0  0  0
 14 16  1  0  0  0  0
 14 40  1  0  0  0  0
 14 41  1  0  0  0  0
 15 17  2  0  0  0  0
 15 19  1  0  0  0  0
 16 18  1  0  0  0  0
 16 42  1  0  0  0  0
 16 43  1  0  0  0  0
 17 21  1  0  0  0  0
 17 23  1  0  0  0  0
 18 20  1  0  0  0  0
 18 44  1  0  0  0  0
 18 45  1  0  0  0  0
 19 22  2  0  0  0  0
 19 46  1  0  0  0  0
 20 47  1  0  0  0  0
 20 48  1  0  0  0  0
 21 24  2  0  0  0  0
 22 24  1  0  0  0  0
 23 49  1  0  0  0  0
 24 50  1  0  0  0  0
 26 28  1  0  0  0  0
 27 29  2  0  0  0  0
 27 51  1  0  0  0  0
 28 30  2  0  0  0  0
 28 52  1  0  0  0  0
 29 30  1  0  0  0  0
 29 53  1  0  0  0  0
 30 54  1  0  0  0  0
M  END
> <PUBCHEM_COMPOUND_CID>
156011666

> <PUBCHEM_COMPOUND_CANONICALIZED>
1

> <PUBCHEM_CACTVS_COMPLEXITY>
733

> <PUBCHEM_CACTVS_HBOND_ACCEPTOR>
6

> <PUBCHEM_CACTVS_HBOND_DONOR>
0

> <PUBCHEM_CACTVS_ROTATABLE_BOND>
6

> <PUBCHEM_CACTVS_SUBSKEYS>
AAADceB7sQAAAAAAAAAAAAAAAAAAAWIAAAA8QIAAAAAAAFgB8AAAHwAMAAAADQTBmgw9htMQAACpArJ3cgCSAAAkIgA/mCE+TNqIJjqAlZOEMYBuzhuIyceYyPCOgAABAAAYAAAAAAIAADAAAAAAAAAAAA==

> <PUBCHEM_IUPAC_OPENEYE_NAME>
2-[4-[4-(6-fluoro-1,2-benzoxazol-4-yl)-1-piperidyl]butyl]-[1,2,4]triazolo[4,3-a]pyridin-3-one

> <PUBCHEM_IUPAC_CAS_NAME>
2-[4-[4-(6-fluoro-1,2-benzoxazol-4-yl)-1-piperidinyl]butyl]-[1,2,4]triazolo[4,3-a]pyridin-3-one

> <PUBCHEM_IUPAC_NAME_MARKUP>
2-[4-[4-(6-fluoro-1,2-benzoxazol-4-yl)piperidin-1-yl]butyl]-[1,2,4]triazolo[4,3-a]pyridin-3-one

> <PUBCHEM_IUPAC_NAME>
2-[4-[4-(6-fluoro-1,2-benzoxazol-4-yl)piperidin-1-yl]butyl]-[1,2,4]triazolo[4,3-a]pyridin-3-one

> <PUBCHEM_IUPAC_SYSTEMATIC_NAME>
2-[4-[4-(6-fluoranyl-1,2-benzoxazol-4-yl)piperidin-1-yl]butyl]-[1,2,4]triazolo[4,3-a]pyridin-3-one

> <PUBCHEM_IUPAC_TRADITIONAL_NAME>
2-[4-[4-(6-fluoroindoxazen-4-yl)piperidino]butyl]-[1,2,4]triazolo[4,3-a]pyridin-3-one

> <PUBCHEM_IUPAC_INCHI>
InChI=1S/C22H24FN5O2/c23-17-13-18(19-15-24-30-20(19)14-17)16-6-11-26(12-7-16)8-3-4-10-28-22(29)27-9-2-1-5-21(27)25-28/h1-2,5,9,13-16H,3-4,6-8,10-12H2

> <PUBCHEM_IUPAC_INCHIKEY>
NHSJCZWSFCNYLB-UHFFFAOYSA-N

> <PUBCHEM_XLOGP3_AA>
3.1

> <PUBCHEM_EXACT_MASS>
409.19140319

> <PUBCHEM_MOLECULAR_FORMULA>
C22H24FN5O2

> <PUBCHEM_MOLECULAR_WEIGHT>
409.5

> <PUBCHEM_OPENEYE_CAN_SMILES>
C1CN(CCC1C2=C3C=NOC3=CC(=C2)F)CCCCN4C(=O)N5C=CC=CC5=N4

> <PUBCHEM_OPENEYE_ISO_SMILES>
C1CN(CCC1C2=C3C=NOC3=CC(=C2)F)CCCCN4C(=O)N5C=CC=CC5=N4

> <PUBCHEM_CACTVS_TPSA>
65.2

> <PUBCHEM_MONOISOTOPIC_WEIGHT>
409.19140319

> <PUBCHEM_TOTAL_CHARGE>
0

> <PUBCHEM_HEAVY_ATOM_COUNT>
30

> <PUBCHEM_ATOM_DEF_STEREO_COUNT>
0

> <PUBCHEM_ATOM_UDEF_STEREO_COUNT>
0

> <PUBCHEM_BOND_DEF_STEREO_COUNT>
0

> <PUBCHEM_BOND_UDEF_STEREO_COUNT>
0

> <PUBCHEM_ISOTOPIC_ATOM_COUNT>
0

> <PUBCHEM_COMPONENT_COUNT>
1

> <PUBCHEM_CACTVS_TAUTO_COUNT>
-1

> <PUBCHEM_COORDINATE_TYPE>
1
5
255

> <PUBCHEM_BONDANNOTATIONS>
15  17  8
15  19  8
17  21  8
17  23  8
19  22  8
2  21  8
2  6  8
21  24  8
22  24  8
26  28  8
27  29  8
28  30  8
29  30  8
5  25  8
5  8  8
6  23  8
7  25  8
7  26  8
7  27  8
8  26  8

$$$$
