9820304
  -OEChem-09292322142D

 46 49  0     1  0  0  0  0  0999 V2000
    2.0000   -2.6830    0.0000 Cl  0  0  0  0  0  0  0  0  0  0  0  0
    3.7320   -5.6830    0.0000 Cl  0  0  0  0  0  0  0  0  0  0  0  0
    3.7320    0.3170    0.0000 N   0  0  0  0  0  0  0  0  0  0  0  0
    3.7320   -1.6830    0.0000 N   0  0  0  0  0  0  0  0  0  0  0  0
    4.5981    1.8170    0.0000 C   0  0  2  0  0  0  0  0  0  0  0  0
    5.0981    2.6830    0.0000 C   0  0  2  0  0  0  0  0  0  0  0  0
    5.5981    1.8170    0.0000 C   0  0  0  0  0  0  0  0  0  0  0  0
    3.7320    1.3170    0.0000 C   0  0  0  0  0  0  0  0  0  0  0  0
    5.0981    3.6830    0.0000 C   0  0  0  0  0  0  0  0  0  0  0  0
    2.8660   -0.1830    0.0000 C   0  0  0  0  0  0  0  0  0  0  0  0
    4.5981   -0.1830    0.0000 C   0  0  0  0  0  0  0  0  0  0  0  0
    2.8660   -1.1830    0.0000 C   0  0  0  0  0  0  0  0  0  0  0  0
    4.5981   -1.1830    0.0000 C   0  0  0  0  0  0  0  0  0  0  0  0
    4.2320    4.1830    0.0000 C   0  0  0  0  0  0  0  0  0  0  0  0
    5.9641    4.1830    0.0000 C   0  0  0  0  0  0  0  0  0  0  0  0
    4.2320    5.1830    0.0000 C   0  0  0  0  0  0  0  0  0  0  0  0
    5.9641    5.1830    0.0000 C   0  0  0  0  0  0  0  0  0  0  0  0
    3.7320   -2.6830    0.0000 C   0  0  0  0  0  0  0  0  0  0  0  0
    5.0981    5.6830    0.0000 C   0  0  0  0  0  0  0  0  0  0  0  0
    2.8660   -3.1830    0.0000 C   0  0  0  0  0  0  0  0  0  0  0  0
    4.5981   -3.1830    0.0000 C   0  0  0  0  0  0  0  0  0  0  0  0
    2.8660   -4.1830    0.0000 C   0  0  0  0  0  0  0  0  0  0  0  0
    4.5981   -4.1830    0.0000 C   0  0  0  0  0  0  0  0  0  0  0  0
    3.7320   -4.6830    0.0000 C   0  0  0  0  0  0  0  0  0  0  0  0
    4.7585    1.2181    0.0000 H   0  0  0  0  0  0  0  0  0  0  0  0
    5.6970    2.8435    0.0000 H   0  0  0  0  0  0  0  0  0  0  0  0
    5.7057    1.2064    0.0000 H   0  0  0  0  0  0  0  0  0  0  0  0
    6.1807    2.0290    0.0000 H   0  0  0  0  0  0  0  0  0  0  0  0
    3.5200    1.8996    0.0000 H   0  0  0  0  0  0  0  0  0  0  0  0
    3.1215    1.2093    0.0000 H   0  0  0  0  0  0  0  0  0  0  0  0
    2.6540    0.3996    0.0000 H   0  0  0  0  0  0  0  0  0  0  0  0
    2.2554   -0.2907    0.0000 H   0  0  0  0  0  0  0  0  0  0  0  0
    5.2087   -0.2907    0.0000 H   0  0  0  0  0  0  0  0  0  0  0  0
    4.8101    0.3996    0.0000 H   0  0  0  0  0  0  0  0  0  0  0  0
    2.2554   -1.0754    0.0000 H   0  0  0  0  0  0  0  0  0  0  0  0
    2.6540   -1.7656    0.0000 H   0  0  0  0  0  0  0  0  0  0  0  0
    4.8101   -1.7656    0.0000 H   0  0  0  0  0  0  0  0  0  0  0  0
    5.2087   -1.0754    0.0000 H   0  0  0  0  0  0  0  0  0  0  0  0
    3.6951    3.8730    0.0000 H   0  0  0  0  0  0  0  0  0  0  0  0
    6.5010    3.8730    0.0000 H   0  0  0  0  0  0  0  0  0  0  0  0
    3.6951    5.4930    0.0000 H   0  0  0  0  0  0  0  0  0  0  0  0
    6.5010    5.4930    0.0000 H   0  0  0  0  0  0  0  0  0  0  0  0
    5.0981    6.3030    0.0000 H   0  0  0  0  0  0  0  0  0  0  0  0
    5.1350   -2.8730    0.0000 H   0  0  0  0  0  0  0  0  0  0  0  0
    2.3291   -4.4930    0.0000 H   0  0  0  0  0  0  0  0  0  0  0  0
    5.1350   -4.4930    0.0000 H   0  0  0  0  0  0  0  0  0  0  0  0
  1 20  1  0  0  0  0
  2 24  1  0  0  0  0
  3  8  1  0  0  0  0
  3 10  1  0  0  0  0
  3 11  1  0  0  0  0
  4 12  1  0  0  0  0
  4 13  1  0  0  0  0
  4 18  1  0  0  0  0
  5  6  1  0  0  0  0
  5  7  1  0  0  0  0
  5  8  1  6  0  0  0
  5 25  1  0  0  0  0
  6  7  1  0  0  0  0
  6  9  1  1  0  0  0
  6 26  1  0  0  0  0
  7 27  1  0  0  0  0
  7 28  1  0  0  0  0
  8 29  1  0  0  0  0
  8 30  1  0  0  0  0
  9 14  2  0  0  0  0
  9 15  1  0  0  0  0
 10 12  1  0  0  0  0
 10 31  1  0  0  0  0
 10 32  1  0  0  0  0
 11 13  1  0  0  0  0
 11 33  1  0  0  0  0
 11 34  1  0  0  0  0
 12 35  1  0  0  0  0
 12 36  1  0  0  0  0
 13 37  1  0  0  0  0
 13 38  1  0  0  0  0
 14 16  1  0  0  0  0
 14 39  1  0  0  0  0
 15 17  2  0  0  0  0
 15 40  1  0  0  0  0
 16 19  2  0  0  0  0
 16 41  1  0  0  0  0
 17 19  1  0  0  0  0
 17 42  1  0  0  0  0
 18 20  2  0  0  0  0
 18 21  1  0  0  0  0
 19 43  1  0  0  0  0
 20 22  1  0  0  0  0
 21 23  2  0  0  0  0
 21 44  1  0  0  0  0
 22 24  2  0  0  0  0
 22 45  1  0  0  0  0
 23 24  1  0  0  0  0
 23 46  1  0  0  0  0
M  END
> <PUBCHEM_COMPOUND_CID>
9820304

> <PUBCHEM_COMPOUND_CANONICALIZED>
1

> <PUBCHEM_CACTVS_COMPLEXITY>
404

> <PUBCHEM_CACTVS_HBOND_ACCEPTOR>
2

> <PUBCHEM_CACTVS_HBOND_DONOR>
0

> <PUBCHEM_CACTVS_ROTATABLE_BOND>
4

> <PUBCHEM_CACTVS_SUBSKEYS>
AAADceB7AAAGAAAAAAAAAAAAGAAAAAAAAAA8YIAAAAAAAAABQAAAHAIAAAAADQrBGCQwwIMAAACAAiRCQACCAAAhBwAIiAAIZogIYCLBk5HUIAhggADIyAcQgMAOgABAAACAABAAAIAAAQAAIAAAAAAAAA==

> <PUBCHEM_IUPAC_OPENEYE_NAME>
1-(2,4-dichlorophenyl)-4-[[(1S,2S)-2-phenylcyclopropyl]methyl]piperazine

> <PUBCHEM_IUPAC_CAS_NAME>
1-(2,4-dichlorophenyl)-4-[[(1S,2S)-2-phenylcyclopropyl]methyl]piperazine

> <PUBCHEM_IUPAC_NAME_MARKUP>
1-(2,4-dichlorophenyl)-4-[[(1<I>S</I>,2<I>S</I>)-2-phenylcyclopropyl]methyl]piperazine

> <PUBCHEM_IUPAC_NAME>
1-(2,4-dichlorophenyl)-4-[[(1S,2S)-2-phenylcyclopropyl]methyl]piperazine

> <PUBCHEM_IUPAC_SYSTEMATIC_NAME>
1-(2,4-dichlorophenyl)-4-[[(1S,2S)-2-phenylcyclopropyl]methyl]piperazine

> <PUBCHEM_IUPAC_TRADITIONAL_NAME>
1-(2,4-dichlorophenyl)-4-[[(1S,2S)-2-phenylcyclopropyl]methyl]piperazine

> <PUBCHEM_IUPAC_INCHI>
InChI=1S/C20H22Cl2N2/c21-17-6-7-20(19(22)13-17)24-10-8-23(9-11-24)14-16-12-18(16)15-4-2-1-3-5-15/h1-7,13,16,18H,8-12,14H2/t16-,18-/m1/s1

> <PUBCHEM_IUPAC_INCHIKEY>
AOSAPZYJOHCROI-SJLPKXTDSA-N

> <PUBCHEM_XLOGP3_AA>
5.2

> <PUBCHEM_EXACT_MASS>
360.1160041

> <PUBCHEM_MOLECULAR_FORMULA>
C20H22Cl2N2

> <PUBCHEM_MOLECULAR_WEIGHT>
361.3

> <PUBCHEM_OPENEYE_CAN_SMILES>
C1CN(CCN1CC2CC2C3=CC=CC=C3)C4=C(C=C(C=C4)Cl)Cl

> <PUBCHEM_OPENEYE_ISO_SMILES>
C1CN(CCN1C[C@H]2C[C@@H]2C3=CC=CC=C3)C4=C(C=C(C=C4)Cl)Cl

> <PUBCHEM_CACTVS_TPSA>
6.5

> <PUBCHEM_MONOISOTOPIC_WEIGHT>
360.1160041

> <PUBCHEM_TOTAL_CHARGE>
0

> <PUBCHEM_HEAVY_ATOM_COUNT>
24

> <PUBCHEM_ATOM_DEF_STEREO_COUNT>
2

> <PUBCHEM_ATOM_UDEF_STEREO_COUNT>
0

> <PUBCHEM_BOND_DEF_STEREO_COUNT>
0

> <PUBCHEM_BOND_UDEF_STEREO_COUNT>
0

> <PUBCHEM_ISOTOPIC_ATOM_COUNT>
0

> <PUBCHEM_COMPONENT_COUNT>
1

> <PUBCHEM_CACTVS_TAUTO_COUNT>
-1

> <PUBCHEM_COORDINATE_TYPE>
1
5
255

> <PUBCHEM_BONDANNOTATIONS>
14  16  8
15  17  8
16  19  8
17  19  8
18  20  8
18  21  8
20  22  8
21  23  8
22  24  8
23  24  8
5  8  6
6  9  5
9  14  8
9  15  8

$$$$
