9882537
  -OEChem-09292322512D

 46 48  0     0  0  0  0  0  0999 V2000
    4.6318    1.5747    0.0000 N   0  0  0  0  0  0  0  0  0  0  0  0
    4.6783   -2.6801    0.0000 N   0  0  0  0  0  0  0  0  0  0  0  0
    4.6783   -1.0707    0.0000 C   0  0  0  0  0  0  0  0  0  0  0  0
    4.9889   -0.1202    0.0000 C   0  0  0  0  0  0  0  0  0  0  0  0
    4.3211    0.6241    0.0000 C   0  0  0  0  0  0  0  0  0  0  0  0
    3.7320   -1.3754    0.0000 C   0  0  0  0  0  0  0  0  0  0  0  0
    5.2619   -1.8754    0.0000 C   0  0  0  0  0  0  0  0  0  0  0  0
    3.7320   -2.3754    0.0000 C   0  0  0  0  0  0  0  0  0  0  0  0
    3.9639    2.3190    0.0000 C   0  0  0  0  0  0  0  0  0  0  0  0
    5.6103    1.7809    0.0000 C   0  0  0  0  0  0  0  0  0  0  0  0
    6.2619   -1.8754    0.0000 C   0  0  0  0  0  0  0  0  0  0  0  0
    2.8660   -0.8754    0.0000 C   0  0  0  0  0  0  0  0  0  0  0  0
    2.8660   -2.8754    0.0000 C   0  0  0  0  0  0  0  0  0  0  0  0
    4.2746    3.2695    0.0000 C   0  0  0  0  0  0  0  0  0  0  0  0
    5.9209    2.7314    0.0000 C   0  0  0  0  0  0  0  0  0  0  0  0
    2.0000   -1.3754    0.0000 C   0  0  0  0  0  0  0  0  0  0  0  0
    2.0000   -2.3754    0.0000 C   0  0  0  0  0  0  0  0  0  0  0  0
    6.7619   -2.7414    0.0000 C   0  0  0  0  0  0  0  0  0  0  0  0
    6.7619   -1.0094    0.0000 C   0  0  0  0  0  0  0  0  0  0  0  0
    7.7619   -2.7414    0.0000 C   0  0  0  0  0  0  0  0  0  0  0  0
    7.7619   -1.0094    0.0000 C   0  0  0  0  0  0  0  0  0  0  0  0
    8.2619   -1.8754    0.0000 C   0  0  0  0  0  0  0  0  0  0  0  0
    5.5359   -0.4122    0.0000 H   0  0  0  0  0  0  0  0  0  0  0  0
    5.3715    0.3677    0.0000 H   0  0  0  0  0  0  0  0  0  0  0  0
    3.7742    0.9162    0.0000 H   0  0  0  0  0  0  0  0  0  0  0  0
    3.9385    0.1362    0.0000 H   0  0  0  0  0  0  0  0  0  0  0  0
    4.8709   -3.2695    0.0000 H   0  0  0  0  0  0  0  0  0  0  0  0
    3.4170    2.6110    0.0000 H   0  0  0  0  0  0  0  0  0  0  0  0
    3.5814    1.8310    0.0000 H   0  0  0  0  0  0  0  0  0  0  0  0
    5.6308    1.1612    0.0000 H   0  0  0  0  0  0  0  0  0  0  0  0
    6.2241    1.6935    0.0000 H   0  0  0  0  0  0  0  0  0  0  0  0
    2.8660   -0.2554    0.0000 H   0  0  0  0  0  0  0  0  0  0  0  0
    2.8660   -3.4954    0.0000 H   0  0  0  0  0  0  0  0  0  0  0  0
    4.8639    3.0769    0.0000 H   0  0  0  0  0  0  0  0  0  0  0  0
    4.4672    3.8588    0.0000 H   0  0  0  0  0  0  0  0  0  0  0  0
    3.6852    3.4621    0.0000 H   0  0  0  0  0  0  0  0  0  0  0  0
    6.5102    2.5388    0.0000 H   0  0  0  0  0  0  0  0  0  0  0  0
    6.1135    3.3207    0.0000 H   0  0  0  0  0  0  0  0  0  0  0  0
    5.3316    2.9240    0.0000 H   0  0  0  0  0  0  0  0  0  0  0  0
    1.4631   -1.0654    0.0000 H   0  0  0  0  0  0  0  0  0  0  0  0
    1.4631   -2.6854    0.0000 H   0  0  0  0  0  0  0  0  0  0  0  0
    6.4519   -3.2784    0.0000 H   0  0  0  0  0  0  0  0  0  0  0  0
    6.4519   -0.4725    0.0000 H   0  0  0  0  0  0  0  0  0  0  0  0
    8.0719   -3.2784    0.0000 H   0  0  0  0  0  0  0  0  0  0  0  0
    8.0719   -0.4725    0.0000 H   0  0  0  0  0  0  0  0  0  0  0  0
    8.8819   -1.8754    0.0000 H   0  0  0  0  0  0  0  0  0  0  0  0
  1  5  1  0  0  0  0
  1  9  1  0  0  0  0
  1 10  1  0  0  0  0
  2  7  1  0  0  0  0
  2  8  1  0  0  0  0
  2 27  1  0  0  0  0
  3  4  1  0  0  0  0
  3  6  1  0  0  0  0
  3  7  2  0  0  0  0
  4  5  1  0  0  0  0
  4 23  1  0  0  0  0
  4 24  1  0  0  0  0
  5 25  1  0  0  0  0
  5 26  1  0  0  0  0
  6  8  1  0  0  0  0
  6 12  2  0  0  0  0
  7 11  1  0  0  0  0
  8 13  2  0  0  0  0
  9 14  1  0  0  0  0
  9 28  1  0  0  0  0
  9 29  1  0  0  0  0
 10 15  1  0  0  0  0
 10 30  1  0  0  0  0
 10 31  1  0  0  0  0
 11 18  2  0  0  0  0
 11 19  1  0  0  0  0
 12 16  1  0  0  0  0
 12 32  1  0  0  0  0
 13 17  1  0  0  0  0
 13 33  1  0  0  0  0
 14 34  1  0  0  0  0
 14 35  1  0  0  0  0
 14 36  1  0  0  0  0
 15 37  1  0  0  0  0
 15 38  1  0  0  0  0
 15 39  1  0  0  0  0
 16 17  2  0  0  0  0
 16 40  1  0  0  0  0
 17 41  1  0  0  0  0
 18 20  1  0  0  0  0
 18 42  1  0  0  0  0
 19 21  2  0  0  0  0
 19 43  1  0  0  0  0
 20 22  2  0  0  0  0
 20 44  1  0  0  0  0
 21 22  1  0  0  0  0
 21 45  1  0  0  0  0
 22 46  1  0  0  0  0
M  END
> <PUBCHEM_COMPOUND_CID>
9882537

> <PUBCHEM_COMPOUND_CANONICALIZED>
1

> <PUBCHEM_CACTVS_COMPLEXITY>
320

> <PUBCHEM_CACTVS_HBOND_ACCEPTOR>
1

> <PUBCHEM_CACTVS_HBOND_DONOR>
1

> <PUBCHEM_CACTVS_ROTATABLE_BOND>
6

> <PUBCHEM_CACTVS_SUBSKEYS>
AAADceB7AAAAAAAAAAAAAAAAAAAAAWAAAAAwYAAAAAAAAFgB9AAAHAAQAAAADAjBHgQywPPJkACgAyRiRACCgCAhAiAImSA4ZJgIIOLAkZGEIAhgkADIyAcQgMAOgAAAAAACAAAAAAAAAAQAAAAAAAAAAA==

> <PUBCHEM_IUPAC_OPENEYE_NAME>
N,N-diethyl-2-(2-phenyl-1H-indol-3-yl)ethanamine

> <PUBCHEM_IUPAC_CAS_NAME>
N,N-diethyl-2-(2-phenyl-1H-indol-3-yl)ethanamine

> <PUBCHEM_IUPAC_NAME_MARKUP>
<I>N</I>,<I>N</I>-diethyl-2-(2-phenyl-1<I>H</I>-indol-3-yl)ethanamine

> <PUBCHEM_IUPAC_NAME>
N,N-diethyl-2-(2-phenyl-1H-indol-3-yl)ethanamine

> <PUBCHEM_IUPAC_SYSTEMATIC_NAME>
N,N-diethyl-2-(2-phenyl-1H-indol-3-yl)ethanamine

> <PUBCHEM_IUPAC_TRADITIONAL_NAME>
diethyl-[2-(2-phenyl-1H-indol-3-yl)ethyl]amine

> <PUBCHEM_IUPAC_INCHI>
InChI=1S/C20H24N2/c1-3-22(4-2)15-14-18-17-12-8-9-13-19(17)21-20(18)16-10-6-5-7-11-16/h5-13,21H,3-4,14-15H2,1-2H3

> <PUBCHEM_IUPAC_INCHIKEY>
PULCEOFVPAHMNA-UHFFFAOYSA-N

> <PUBCHEM_XLOGP3_AA>
4.7

> <PUBCHEM_EXACT_MASS>
292.193948774

> <PUBCHEM_MOLECULAR_FORMULA>
C20H24N2

> <PUBCHEM_MOLECULAR_WEIGHT>
292.4

> <PUBCHEM_OPENEYE_CAN_SMILES>
CCN(CC)CCC1=C(NC2=CC=CC=C21)C3=CC=CC=C3

> <PUBCHEM_OPENEYE_ISO_SMILES>
CCN(CC)CCC1=C(NC2=CC=CC=C21)C3=CC=CC=C3

> <PUBCHEM_CACTVS_TPSA>
19

> <PUBCHEM_MONOISOTOPIC_WEIGHT>
292.193948774

> <PUBCHEM_TOTAL_CHARGE>
0

> <PUBCHEM_HEAVY_ATOM_COUNT>
22

> <PUBCHEM_ATOM_DEF_STEREO_COUNT>
0

> <PUBCHEM_ATOM_UDEF_STEREO_COUNT>
0

> <PUBCHEM_BOND_DEF_STEREO_COUNT>
0

> <PUBCHEM_BOND_UDEF_STEREO_COUNT>
0

> <PUBCHEM_ISOTOPIC_ATOM_COUNT>
0

> <PUBCHEM_COMPONENT_COUNT>
1

> <PUBCHEM_CACTVS_TAUTO_COUNT>
-1

> <PUBCHEM_COORDINATE_TYPE>
1
5
255

> <PUBCHEM_BONDANNOTATIONS>
11  18  8
11  19  8
12  16  8
13  17  8
16  17  8
18  20  8
19  21  8
2  7  8
2  8  8
20  22  8
21  22  8
3  6  8
3  7  8
6  12  8
6  8  8
8  13  8

$$$$
