11163741
  -OEChem-09292322242D

 48 50  0     0  0  0  0  0  0999 V2000
    8.0622   -0.4400    0.0000 S   0  0  0  0  0  0  0  0  0  0  0  0
    7.5622   -1.3060    0.0000 O   0  0  0  0  0  0  0  0  0  0  0  0
    8.5622    0.4260    0.0000 O   0  0  0  0  0  0  0  0  0  0  0  0
   13.3263   -0.4608    0.0000 N   0  0  0  0  0  0  0  0  0  0  0  0
    8.9282   -0.9400    0.0000 N   0  0  0  0  0  0  0  0  0  0  0  0
   11.5263    0.5600    0.0000 C   0  0  0  0  0  0  0  0  0  0  0  0
   11.5263   -0.4400    0.0000 C   0  0  0  0  0  0  0  0  0  0  0  0
   12.4202    1.0947    0.0000 C   0  0  0  0  0  0  0  0  0  0  0  0
   12.4202   -0.9747    0.0000 C   0  0  0  0  0  0  0  0  0  0  0  0
   13.3263    0.5808    0.0000 C   0  0  0  0  0  0  0  0  0  0  0  0
   10.6603   -0.9400    0.0000 C   0  0  0  0  0  0  0  0  0  0  0  0
    9.7942   -0.4400    0.0000 C   0  0  0  0  0  0  0  0  0  0  0  0
   10.6603    1.0600    0.0000 C   0  0  0  0  0  0  0  0  0  0  0  0
    9.7942    0.5600    0.0000 C   0  0  0  0  0  0  0  0  0  0  0  0
    4.5981    1.5600    0.0000 C   0  0  0  0  0  0  0  0  0  0  0  0
    3.7320    1.0600    0.0000 C   0  0  0  0  0  0  0  0  0  0  0  0
    5.4641    1.0600    0.0000 C   0  0  0  0  0  0  0  0  0  0  0  0
    7.1962    0.0600    0.0000 C   0  0  0  0  0  0  0  0  0  0  0  0
    2.8660    1.5600    0.0000 C   0  0  0  0  0  0  0  0  0  0  0  0
    6.3301    1.5600    0.0000 C   0  0  0  0  0  0  0  0  0  0  0  0
    5.4641    0.0600    0.0000 C   0  0  0  0  0  0  0  0  0  0  0  0
    7.1962    1.0600    0.0000 C   0  0  0  0  0  0  0  0  0  0  0  0
    6.3301   -0.4400    0.0000 C   0  0  0  0  0  0  0  0  0  0  0  0
    2.0000    1.0600    0.0000 C   0  0  0  0  0  0  0  0  0  0  0  0
   12.8138    1.5737    0.0000 H   0  0  0  0  0  0  0  0  0  0  0  0
   12.0156    1.5644    0.0000 H   0  0  0  0  0  0  0  0  0  0  0  0
   12.0156   -1.4444    0.0000 H   0  0  0  0  0  0  0  0  0  0  0  0
   12.8138   -1.4537    0.0000 H   0  0  0  0  0  0  0  0  0  0  0  0
   13.9371    0.4747    0.0000 H   0  0  0  0  0  0  0  0  0  0  0  0
   13.5353    1.1645    0.0000 H   0  0  0  0  0  0  0  0  0  0  0  0
   13.8620   -0.7729    0.0000 H   0  0  0  0  0  0  0  0  0  0  0  0
   10.6603   -1.5600    0.0000 H   0  0  0  0  0  0  0  0  0  0  0  0
   10.6603    1.6800    0.0000 H   0  0  0  0  0  0  0  0  0  0  0  0
    9.2573    0.8700    0.0000 H   0  0  0  0  0  0  0  0  0  0  0  0
    4.9966    2.0349    0.0000 H   0  0  0  0  0  0  0  0  0  0  0  0
    4.1996    2.0349    0.0000 H   0  0  0  0  0  0  0  0  0  0  0  0
    8.9282   -1.5600    0.0000 H   0  0  0  0  0  0  0  0  0  0  0  0
    3.3335    0.5851    0.0000 H   0  0  0  0  0  0  0  0  0  0  0  0
    4.1306    0.5851    0.0000 H   0  0  0  0  0  0  0  0  0  0  0  0
    3.2646    2.0349    0.0000 H   0  0  0  0  0  0  0  0  0  0  0  0
    2.4675    2.0349    0.0000 H   0  0  0  0  0  0  0  0  0  0  0  0
    6.3301    2.1800    0.0000 H   0  0  0  0  0  0  0  0  0  0  0  0
    4.9272   -0.2500    0.0000 H   0  0  0  0  0  0  0  0  0  0  0  0
    7.7331    1.3700    0.0000 H   0  0  0  0  0  0  0  0  0  0  0  0
    6.3301   -1.0600    0.0000 H   0  0  0  0  0  0  0  0  0  0  0  0
    1.6900    1.5969    0.0000 H   0  0  0  0  0  0  0  0  0  0  0  0
    1.4631    0.7500    0.0000 H   0  0  0  0  0  0  0  0  0  0  0  0
    2.3100    0.5231    0.0000 H   0  0  0  0  0  0  0  0  0  0  0  0
  1  2  2  0  0  0  0
  1  3  2  0  0  0  0
  1  5  1  0  0  0  0
  1 18  1  0  0  0  0
  4  9  1  0  0  0  0
  4 10  1  0  0  0  0
  4 31  1  0  0  0  0
  5 12  1  0  0  0  0
  5 37  1  0  0  0  0
  6  7  2  0  0  0  0
  6  8  1  0  0  0  0
  6 13  1  0  0  0  0
  7  9  1  0  0  0  0
  7 11  1  0  0  0  0
  8 10  1  0  0  0  0
  8 25  1  0  0  0  0
  8 26  1  0  0  0  0
  9 27  1  0  0  0  0
  9 28  1  0  0  0  0
 10 29  1  0  0  0  0
 10 30  1  0  0  0  0
 11 12  2  0  0  0  0
 11 32  1  0  0  0  0
 12 14  1  0  0  0  0
 13 14  2  0  0  0  0
 13 33  1  0  0  0  0
 14 34  1  0  0  0  0
 15 16  1  0  0  0  0
 15 17  1  0  0  0  0
 15 35  1  0  0  0  0
 15 36  1  0  0  0  0
 16 19  1  0  0  0  0
 16 38  1  0  0  0  0
 16 39  1  0  0  0  0
 17 20  2  0  0  0  0
 17 21  1  0  0  0  0
 18 22  2  0  0  0  0
 18 23  1  0  0  0  0
 19 24  1  0  0  0  0
 19 40  1  0  0  0  0
 19 41  1  0  0  0  0
 20 22  1  0  0  0  0
 20 42  1  0  0  0  0
 21 23  2  0  0  0  0
 21 43  1  0  0  0  0
 22 44  1  0  0  0  0
 23 45  1  0  0  0  0
 24 46  1  0  0  0  0
 24 47  1  0  0  0  0
 24 48  1  0  0  0  0
M  END
> <PUBCHEM_COMPOUND_CID>
11163741

> <PUBCHEM_COMPOUND_CANONICALIZED>
1

> <PUBCHEM_CACTVS_COMPLEXITY>
480

> <PUBCHEM_CACTVS_HBOND_ACCEPTOR>
4

> <PUBCHEM_CACTVS_HBOND_DONOR>
2

> <PUBCHEM_CACTVS_ROTATABLE_BOND>
6

> <PUBCHEM_CACTVS_SUBSKEYS>
AAADceB7MABAAAAAAAAAAAAAAAAAAAAAAAA8YIAAAAAAAACxQAAAHAQQQAAADAjBWAQywYLAAAKAAiRCQHDCABAgAgAIiJgIZIgIICKAkZGEIAhgkACIyAcQgIAOmAAAQAAQAAAwAACAACAAAAAAAAAAAA==

> <PUBCHEM_IUPAC_OPENEYE_NAME>
4-butyl-N-(1,2,3,4-tetrahydroisoquinolin-7-yl)benzenesulfonamide

> <PUBCHEM_IUPAC_CAS_NAME>
4-butyl-N-(1,2,3,4-tetrahydroisoquinolin-7-yl)benzenesulfonamide

> <PUBCHEM_IUPAC_NAME_MARKUP>
4-butyl-<I>N</I>-(1,2,3,4-tetrahydroisoquinolin-7-yl)benzenesulfonamide

> <PUBCHEM_IUPAC_NAME>
4-butyl-N-(1,2,3,4-tetrahydroisoquinolin-7-yl)benzenesulfonamide

> <PUBCHEM_IUPAC_SYSTEMATIC_NAME>
4-butyl-N-(1,2,3,4-tetrahydroisoquinolin-7-yl)benzenesulfonamide

> <PUBCHEM_IUPAC_TRADITIONAL_NAME>
4-butyl-N-(1,2,3,4-tetrahydroisoquinolin-7-yl)benzenesulfonamide

> <PUBCHEM_IUPAC_INCHI>
InChI=1S/C19H24N2O2S/c1-2-3-4-15-5-9-19(10-6-15)24(22,23)21-18-8-7-16-11-12-20-14-17(16)13-18/h5-10,13,20-21H,2-4,11-12,14H2,1H3

> <PUBCHEM_IUPAC_INCHIKEY>
CDLTZBNPLAYVJT-UHFFFAOYSA-N

> <PUBCHEM_XLOGP3_AA>
3.7

> <PUBCHEM_EXACT_MASS>
344.15584919

> <PUBCHEM_MOLECULAR_FORMULA>
C19H24N2O2S

> <PUBCHEM_MOLECULAR_WEIGHT>
344.5

> <PUBCHEM_OPENEYE_CAN_SMILES>
CCCCC1=CC=C(C=C1)S(=O)(=O)NC2=CC3=C(CCNC3)C=C2

> <PUBCHEM_OPENEYE_ISO_SMILES>
CCCCC1=CC=C(C=C1)S(=O)(=O)NC2=CC3=C(CCNC3)C=C2

> <PUBCHEM_CACTVS_TPSA>
66.6

> <PUBCHEM_MONOISOTOPIC_WEIGHT>
344.15584919

> <PUBCHEM_TOTAL_CHARGE>
0

> <PUBCHEM_HEAVY_ATOM_COUNT>
24

> <PUBCHEM_ATOM_DEF_STEREO_COUNT>
0

> <PUBCHEM_ATOM_UDEF_STEREO_COUNT>
0

> <PUBCHEM_BOND_DEF_STEREO_COUNT>
0

> <PUBCHEM_BOND_UDEF_STEREO_COUNT>
0

> <PUBCHEM_ISOTOPIC_ATOM_COUNT>
0

> <PUBCHEM_COMPONENT_COUNT>
1

> <PUBCHEM_CACTVS_TAUTO_COUNT>
-1

> <PUBCHEM_COORDINATE_TYPE>
1
5
255

> <PUBCHEM_BONDANNOTATIONS>
11  12  8
12  14  8
13  14  8
17  20  8
17  21  8
18  22  8
18  23  8
20  22  8
21  23  8
6  13  8
6  7  8
7  11  8

$$$$
