76318476
  -OEChem-09292322342D

 69 71  0     0  0  0  0  0  0999 V2000
   13.1648    2.4860    0.0000 O   0  0  0  0  0  0  0  0  0  0  0  0
    6.1648    0.7540    0.0000 O   0  0  0  0  0  0  0  0  0  0  0  0
    0.5369    2.6200    0.0000 O   0  0  0  0  0  0  0  0  0  0  0  0
    9.1915    8.6935    0.0000 O   0  0  0  0  0  0  0  0  0  0  0  0
    6.5934    9.1935    0.0000 O   0  0  0  0  0  0  0  0  0  0  0  0
    8.3254   10.1935    0.0000 O   0  0  0  0  0  0  0  0  0  0  0  0
    7.4594    7.6935    0.0000 O   0  0  0  0  0  0  0  0  0  0  0  0
   10.1648    4.2181    0.0000 N   0  0  0  0  0  0  0  0  0  0  0  0
   12.1648    4.2181    0.0000 N   0  0  0  0  0  0  0  0  0  0  0  0
    6.1648    2.4860    0.0000 N   0  0  0  0  0  0  0  0  0  0  0  0
    4.0812    0.8153    0.0000 N   0  0  0  0  0  0  0  0  0  0  0  0
   10.6648    5.0841    0.0000 C   0  0  0  0  0  0  0  0  0  0  0  0
   10.6648    3.3520    0.0000 C   0  0  0  0  0  0  0  0  0  0  0  0
   11.6648    5.0841    0.0000 C   0  0  0  0  0  0  0  0  0  0  0  0
   11.6648    3.3520    0.0000 C   0  0  0  0  0  0  0  0  0  0  0  0
    9.1648    4.2181    0.0000 C   0  0  0  0  0  0  0  0  0  0  0  0
    8.6648    3.3520    0.0000 C   0  0  0  0  0  0  0  0  0  0  0  0
   13.1648    4.2181    0.0000 C   0  0  0  0  0  0  0  0  0  0  0  0
    7.6648    3.3520    0.0000 C   0  0  0  0  0  0  0  0  0  0  0  0
    7.1648    2.4860    0.0000 C   0  0  0  0  0  0  0  0  0  0  0  0
   13.6648    3.3520    0.0000 C   0  0  0  0  0  0  0  0  0  0  0  0
   13.6648    5.0841    0.0000 C   0  0  0  0  0  0  0  0  0  0  0  0
   14.6648    3.3520    0.0000 C   0  0  0  0  0  0  0  0  0  0  0  0
   14.6648    5.0841    0.0000 C   0  0  0  0  0  0  0  0  0  0  0  0
   15.1648    4.2181    0.0000 C   0  0  0  0  0  0  0  0  0  0  0  0
    5.6648    1.6200    0.0000 C   0  0  0  0  0  0  0  0  0  0  0  0
    4.6648    1.6200    0.0000 C   0  0  0  0  0  0  0  0  0  0  0  0
    3.1350    2.1200    0.0000 C   0  0  0  0  0  0  0  0  0  0  0  0
    3.1350    1.1200    0.0000 C   0  0  0  0  0  0  0  0  0  0  0  0
    4.0812    2.4247    0.0000 C   0  0  0  0  0  0  0  0  0  0  0  0
   13.6648    1.6200    0.0000 C   0  0  0  0  0  0  0  0  0  0  0  0
    2.2690    2.6200    0.0000 C   0  0  0  0  0  0  0  0  0  0  0  0
    2.2690    0.6200    0.0000 C   0  0  0  0  0  0  0  0  0  0  0  0
    1.4030    2.1200    0.0000 C   0  0  0  0  0  0  0  0  0  0  0  0
    1.4030    1.1200    0.0000 C   0  0  0  0  0  0  0  0  0  0  0  0
    8.3254    9.1935    0.0000 C   0  0  0  0  0  0  0  0  0  0  0  0
    7.4594    8.6935    0.0000 C   0  0  0  0  0  0  0  0  0  0  0  0
   10.7725    5.6947    0.0000 H   0  0  0  0  0  0  0  0  0  0  0  0
   10.0822    5.2962    0.0000 H   0  0  0  0  0  0  0  0  0  0  0  0
   10.0822    3.1400    0.0000 H   0  0  0  0  0  0  0  0  0  0  0  0
   10.7725    2.7415    0.0000 H   0  0  0  0  0  0  0  0  0  0  0  0
   12.2474    5.2962    0.0000 H   0  0  0  0  0  0  0  0  0  0  0  0
   11.5572    5.6947    0.0000 H   0  0  0  0  0  0  0  0  0  0  0  0
   11.5572    2.7415    0.0000 H   0  0  0  0  0  0  0  0  0  0  0  0
   12.2474    3.1400    0.0000 H   0  0  0  0  0  0  0  0  0  0  0  0
    9.2725    4.8287    0.0000 H   0  0  0  0  0  0  0  0  0  0  0  0
    8.5822    4.4301    0.0000 H   0  0  0  0  0  0  0  0  0  0  0  0
    8.5572    2.7415    0.0000 H   0  0  0  0  0  0  0  0  0  0  0  0
    9.2474    3.1400    0.0000 H   0  0  0  0  0  0  0  0  0  0  0  0
    7.7725    3.9626    0.0000 H   0  0  0  0  0  0  0  0  0  0  0  0
    7.0822    3.5641    0.0000 H   0  0  0  0  0  0  0  0  0  0  0  0
    7.0572    1.8754    0.0000 H   0  0  0  0  0  0  0  0  0  0  0  0
    7.7474    2.2740    0.0000 H   0  0  0  0  0  0  0  0  0  0  0  0
   13.3548    5.6210    0.0000 H   0  0  0  0  0  0  0  0  0  0  0  0
    5.8548    3.0230    0.0000 H   0  0  0  0  0  0  0  0  0  0  0  0
   14.9748    2.8151    0.0000 H   0  0  0  0  0  0  0  0  0  0  0  0
   14.9748    5.6210    0.0000 H   0  0  0  0  0  0  0  0  0  0  0  0
   15.7848    4.2181    0.0000 H   0  0  0  0  0  0  0  0  0  0  0  0
    4.2738    3.0141    0.0000 H   0  0  0  0  0  0  0  0  0  0  0  0
    4.2738    0.2259    0.0000 H   0  0  0  0  0  0  0  0  0  0  0  0
   13.1279    1.3100    0.0000 H   0  0  0  0  0  0  0  0  0  0  0  0
   13.9748    1.0831    0.0000 H   0  0  0  0  0  0  0  0  0  0  0  0
   14.2018    1.9300    0.0000 H   0  0  0  0  0  0  0  0  0  0  0  0
    2.2690    3.2400    0.0000 H   0  0  0  0  0  0  0  0  0  0  0  0
    2.2690    0.0000    0.0000 H   0  0  0  0  0  0  0  0  0  0  0  0
    0.8660    0.8100    0.0000 H   0  0  0  0  0  0  0  0  0  0  0  0
    0.0000    2.3100    0.0000 H   0  0  0  0  0  0  0  0  0  0  0  0
    9.7284    9.0035    0.0000 H   0  0  0  0  0  0  0  0  0  0  0  0
    6.0564    8.8835    0.0000 H   0  0  0  0  0  0  0  0  0  0  0  0
  1 21  1  0  0  0  0
  1 31  1  0  0  0  0
  2 26  2  0  0  0  0
  3 34  1  0  0  0  0
  3 67  1  0  0  0  0
  4 36  1  0  0  0  0
  4 68  1  0  0  0  0
  5 37  1  0  0  0  0
  5 69  1  0  0  0  0
  6 36  2  0  0  0  0
  7 37  2  0  0  0  0
  8 12  1  0  0  0  0
  8 13  1  0  0  0  0
  8 16  1  0  0  0  0
  9 14  1  0  0  0  0
  9 15  1  0  0  0  0
  9 18  1  0  0  0  0
 10 20  1  0  0  0  0
 10 26  1  0  0  0  0
 10 55  1  0  0  0  0
 11 27  1  0  0  0  0
 11 29  1  0  0  0  0
 11 60  1  0  0  0  0
 12 14  1  0  0  0  0
 12 38  1  0  0  0  0
 12 39  1  0  0  0  0
 13 15  1  0  0  0  0
 13 40  1  0  0  0  0
 13 41  1  0  0  0  0
 14 42  1  0  0  0  0
 14 43  1  0  0  0  0
 15 44  1  0  0  0  0
 15 45  1  0  0  0  0
 16 17  1  0  0  0  0
 16 46  1  0  0  0  0
 16 47  1  0  0  0  0
 17 19  1  0  0  0  0
 17 48  1  0  0  0  0
 17 49  1  0  0  0  0
 18 21  1  0  0  0  0
 18 22  2  0  0  0  0
 19 20  1  0  0  0  0
 19 50  1  0  0  0  0
 19 51  1  0  0  0  0
 20 52  1  0  0  0  0
 20 53  1  0  0  0  0
 21 23  2  0  0  0  0
 22 24  1  0  0  0  0
 22 54  1  0  0  0  0
 23 25  1  0  0  0  0
 23 56  1  0  0  0  0
 24 25  2  0  0  0  0
 24 57  1  0  0  0  0
 25 58  1  0  0  0  0
 26 27  1  0  0  0  0
 27 30  2  0  0  0  0
 28 29  2  0  0  0  0
 28 30  1  0  0  0  0
 28 32  1  0  0  0  0
 29 33  1  0  0  0  0
 30 59  1  0  0  0  0
 31 61  1  0  0  0  0
 31 62  1  0  0  0  0
 31 63  1  0  0  0  0
 32 34  2  0  0  0  0
 32 64  1  0  0  0  0
 33 35  2  0  0  0  0
 33 65  1  0  0  0  0
 34 35  1  0  0  0  0
 35 66  1  0  0  0  0
 36 37  1  0  0  0  0
M  END
> <PUBCHEM_COMPOUND_CID>
76318476

> <PUBCHEM_COMPOUND_CANONICALIZED>
1

> <PUBCHEM_CACTVS_COMPLEXITY>
641

> <PUBCHEM_CACTVS_HBOND_ACCEPTOR>
9

> <PUBCHEM_CACTVS_HBOND_DONOR>
5

> <PUBCHEM_CACTVS_ROTATABLE_BOND>
9

> <PUBCHEM_CACTVS_SUBSKEYS>
AAADcfB7uAAAAAAAAAAAAAAAAAAAAWAAAAA8YIAAAAAAAFgB9AAAHgAQCAAADAzBngYyzvPJlgCoAyXyXAKCiCAnIiAImaH/bNgPZvLGtbuVcShk1hHZ+Ye42bOeAEABAAACEAAAgAIAAAQgAAAAAAAAAA==

> <PUBCHEM_IUPAC_OPENEYE_NAME>
5-hydroxy-N-[4-[4-(2-methoxyphenyl)piperazin-1-yl]butyl]-1H-indole-2-carboxamide;oxalic acid

> <PUBCHEM_IUPAC_CAS_NAME>
5-hydroxy-N-[4-[4-(2-methoxyphenyl)-1-piperazinyl]butyl]-1H-indole-2-carboxamide;oxalic acid

> <PUBCHEM_IUPAC_NAME_MARKUP>
5-hydroxy-<I>N</I>-[4-[4-(2-methoxyphenyl)piperazin-1-yl]butyl]-1<I>H</I>-indole-2-carboxamide;oxalic acid

> <PUBCHEM_IUPAC_NAME>
5-hydroxy-N-[4-[4-(2-methoxyphenyl)piperazin-1-yl]butyl]-1H-indole-2-carboxamide;oxalic acid

> <PUBCHEM_IUPAC_SYSTEMATIC_NAME>
ethanedioic acid;N-[4-[4-(2-methoxyphenyl)piperazin-1-yl]butyl]-5-oxidanyl-1H-indole-2-carboxamide

> <PUBCHEM_IUPAC_TRADITIONAL_NAME>
5-hydroxy-N-[4-[4-(2-methoxyphenyl)piperazino]butyl]-1H-indole-2-carboxamide;oxalic acid

> <PUBCHEM_IUPAC_INCHI>
InChI=1S/C24H30N4O3.C2H2O4/c1-31-23-7-3-2-6-22(23)28-14-12-27(13-15-28)11-5-4-10-25-24(30)21-17-18-16-19(29)8-9-20(18)26-21;3-1(4)2(5)6/h2-3,6-9,16-17,26,29H,4-5,10-15H2,1H3,(H,25,30);(H,3,4)(H,5,6)

> <PUBCHEM_IUPAC_INCHIKEY>
VZZDCPROLPTMFZ-UHFFFAOYSA-N

> <PUBCHEM_EXACT_MASS>
512.22709937

> <PUBCHEM_MOLECULAR_FORMULA>
C26H32N4O7

> <PUBCHEM_MOLECULAR_WEIGHT>
512.6

> <PUBCHEM_OPENEYE_CAN_SMILES>
COC1=CC=CC=C1N2CCN(CC2)CCCCNC(=O)C3=CC4=C(N3)C=CC(=C4)O.C(=O)(C(=O)O)O

> <PUBCHEM_OPENEYE_ISO_SMILES>
COC1=CC=CC=C1N2CCN(CC2)CCCCNC(=O)C3=CC4=C(N3)C=CC(=C4)O.C(=O)(C(=O)O)O

> <PUBCHEM_CACTVS_TPSA>
155

> <PUBCHEM_MONOISOTOPIC_WEIGHT>
512.22709937

> <PUBCHEM_TOTAL_CHARGE>
0

> <PUBCHEM_HEAVY_ATOM_COUNT>
37

> <PUBCHEM_ATOM_DEF_STEREO_COUNT>
0

> <PUBCHEM_ATOM_UDEF_STEREO_COUNT>
0

> <PUBCHEM_BOND_DEF_STEREO_COUNT>
0

> <PUBCHEM_BOND_UDEF_STEREO_COUNT>
0

> <PUBCHEM_ISOTOPIC_ATOM_COUNT>
0

> <PUBCHEM_COMPONENT_COUNT>
2

> <PUBCHEM_CACTVS_TAUTO_COUNT>
-1

> <PUBCHEM_COORDINATE_TYPE>
1
5
255

> <PUBCHEM_BONDANNOTATIONS>
11  27  8
11  29  8
18  21  8
18  22  8
21  23  8
22  24  8
23  25  8
24  25  8
27  30  8
28  29  8
28  30  8
28  32  8
29  33  8
32  34  8
33  35  8
34  35  8

$$$$
