164618867
  -OEChem-09292322432D

 68 71  0     1  0  0  0  0  0999 V2000
    8.9282   -2.6012    0.0000 Cl  0  0  0  0  0  0  0  0  0  0  0  0
    6.3301    0.8988    0.0000 O   0  0  0  0  0  0  0  0  0  0  0  0
    5.4641   -0.6012    0.0000 O   0  0  0  0  0  0  0  0  0  0  0  0
    8.9282   -0.6012    0.0000 O   0  0  0  0  0  0  0  0  0  0  0  0
    9.8418    1.9920    0.0000 N   0  0  3  0  0  0  0  0  0  0  0  0
    8.0622    0.8988    0.0000 N   0  0  0  0  0  0  0  0  0  0  0  0
    8.9282    2.3988    0.0000 C   0  0  1  0  0  0  0  0  0  0  0  0
    9.0327    3.3933    0.0000 C   0  0  0  0  0  0  0  0  0  0  0  0
   10.0109    3.6012    0.0000 C   0  0  0  0  0  0  0  0  0  0  0  0
   10.5109    2.7352    0.0000 C   0  0  0  0  0  0  0  0  0  0  0  0
    8.0622    1.8988    0.0000 C   0  0  0  0  0  0  0  0  0  0  0  0
   10.0497    1.0139    0.0000 C   0  0  0  0  0  0  0  0  0  0  0  0
   11.0007    0.7049    0.0000 C   0  0  0  0  0  0  0  0  0  0  0  0
    7.1962    0.3988    0.0000 C   0  0  0  0  0  0  0  0  0  0  0  0
   11.2086   -0.2733    0.0000 C   0  0  0  0  0  0  0  0  0  0  0  0
   11.7439    1.3740    0.0000 C   0  0  0  0  0  0  0  0  0  0  0  0
    7.1962   -0.6012    0.0000 C   0  0  0  0  0  0  0  0  0  0  0  0
   12.1597   -0.5823    0.0000 C   0  0  0  0  0  0  0  0  0  0  0  0
   12.6949    1.0650    0.0000 C   0  0  0  0  0  0  0  0  0  0  0  0
    6.3301   -1.1012    0.0000 C   0  0  0  0  0  0  0  0  0  0  0  0
   12.9028    0.0868    0.0000 C   0  0  0  0  0  0  0  0  0  0  0  0
    8.0622   -1.1012    0.0000 C   0  0  0  0  0  0  0  0  0  0  0  0
    6.3301   -2.1012    0.0000 C   0  0  0  0  0  0  0  0  0  0  0  0
    8.0622   -2.1012    0.0000 C   0  0  0  0  0  0  0  0  0  0  0  0
    7.1962   -2.6012    0.0000 C   0  0  0  0  0  0  0  0  0  0  0  0
    5.4641   -2.6012    0.0000 C   0  0  0  0  0  0  0  0  0  0  0  0
    4.5981   -1.1012    0.0000 C   0  0  0  0  0  0  0  0  0  0  0  0
    5.4641   -3.6012    0.0000 C   0  0  0  0  0  0  0  0  0  0  0  0
    3.7320   -0.6012    0.0000 C   0  0  0  0  0  0  0  0  0  0  0  0
    9.7942   -1.1012    0.0000 C   0  0  0  0  0  0  0  0  0  0  0  0
    3.7320    0.3988    0.0000 C   0  0  0  0  0  0  0  0  0  0  0  0
    2.8660   -1.1012    0.0000 C   0  0  0  0  0  0  0  0  0  0  0  0
    2.8660    0.8988    0.0000 C   0  0  0  0  0  0  0  0  0  0  0  0
    2.0000   -0.6012    0.0000 C   0  0  0  0  0  0  0  0  0  0  0  0
    2.0000    0.3988    0.0000 C   0  0  0  0  0  0  0  0  0  0  0  0
    8.9606    1.7796    0.0000 H   0  0  0  0  0  0  0  0  0  0  0  0
    8.9679    4.0099    0.0000 H   0  0  0  0  0  0  0  0  0  0  0  0
    8.4127    3.3933    0.0000 H   0  0  0  0  0  0  0  0  0  0  0  0
   10.5773    3.8534    0.0000 H   0  0  0  0  0  0  0  0  0  0  0  0
    9.8193    4.1909    0.0000 H   0  0  0  0  0  0  0  0  0  0  0  0
   10.9257    2.2744    0.0000 H   0  0  0  0  0  0  0  0  0  0  0  0
   11.0125    3.0996    0.0000 H   0  0  0  0  0  0  0  0  0  0  0  0
    7.8501    2.4814    0.0000 H   0  0  0  0  0  0  0  0  0  0  0  0
    7.4516    1.7911    0.0000 H   0  0  0  0  0  0  0  0  0  0  0  0
    9.4300    0.9923    0.0000 H   0  0  0  0  0  0  0  0  0  0  0  0
    9.9634    0.3999    0.0000 H   0  0  0  0  0  0  0  0  0  0  0  0
    8.5991    0.5888    0.0000 H   0  0  0  0  0  0  0  0  0  0  0  0
   10.7479   -0.6881    0.0000 H   0  0  0  0  0  0  0  0  0  0  0  0
   11.6150    1.9805    0.0000 H   0  0  0  0  0  0  0  0  0  0  0  0
   12.2886   -1.1887    0.0000 H   0  0  0  0  0  0  0  0  0  0  0  0
   13.1557    1.4799    0.0000 H   0  0  0  0  0  0  0  0  0  0  0  0
   13.4925   -0.1047    0.0000 H   0  0  0  0  0  0  0  0  0  0  0  0
    7.1962   -3.2212    0.0000 H   0  0  0  0  0  0  0  0  0  0  0  0
    5.2520   -2.0186    0.0000 H   0  0  0  0  0  0  0  0  0  0  0  0
    4.8535   -2.7089    0.0000 H   0  0  0  0  0  0  0  0  0  0  0  0
    4.1996   -1.5762    0.0000 H   0  0  0  0  0  0  0  0  0  0  0  0
    4.9966   -1.5762    0.0000 H   0  0  0  0  0  0  0  0  0  0  0  0
    4.8441   -3.6012    0.0000 H   0  0  0  0  0  0  0  0  0  0  0  0
    5.4641   -4.2212    0.0000 H   0  0  0  0  0  0  0  0  0  0  0  0
    6.0841   -3.6012    0.0000 H   0  0  0  0  0  0  0  0  0  0  0  0
    9.4842   -1.6382    0.0000 H   0  0  0  0  0  0  0  0  0  0  0  0
   10.3312   -1.4112    0.0000 H   0  0  0  0  0  0  0  0  0  0  0  0
   10.1042   -0.5643    0.0000 H   0  0  0  0  0  0  0  0  0  0  0  0
    4.2690    0.7088    0.0000 H   0  0  0  0  0  0  0  0  0  0  0  0
    2.8660   -1.7212    0.0000 H   0  0  0  0  0  0  0  0  0  0  0  0
    2.8660    1.5188    0.0000 H   0  0  0  0  0  0  0  0  0  0  0  0
    1.4631   -0.9112    0.0000 H   0  0  0  0  0  0  0  0  0  0  0  0
    1.4631    0.7088    0.0000 H   0  0  0  0  0  0  0  0  0  0  0  0
  1 24  1  0  0  0  0
  2 14  2  0  0  0  0
  3 20  1  0  0  0  0
  3 27  1  0  0  0  0
  4 22  1  0  0  0  0
  4 30  1  0  0  0  0
  5  7  1  0  0  0  0
  5 10  1  0  0  0  0
  5 12  1  0  0  0  0
  6 11  1  0  0  0  0
  6 14  1  0  0  0  0
  6 47  1  0  0  0  0
  7  8  1  0  0  0  0
  7 11  1  6  0  0  0
  7 36  1  0  0  0  0
  8  9  1  0  0  0  0
  8 37  1  0  0  0  0
  8 38  1  0  0  0  0
  9 10  1  0  0  0  0
  9 39  1  0  0  0  0
  9 40  1  0  0  0  0
 10 41  1  0  0  0  0
 10 42  1  0  0  0  0
 11 43  1  0  0  0  0
 11 44  1  0  0  0  0
 12 13  1  0  0  0  0
 12 45  1  0  0  0  0
 12 46  1  0  0  0  0
 13 15  2  0  0  0  0
 13 16  1  0  0  0  0
 14 17  1  0  0  0  0
 15 18  1  0  0  0  0
 15 48  1  0  0  0  0
 16 19  2  0  0  0  0
 16 49  1  0  0  0  0
 17 20  2  0  0  0  0
 17 22  1  0  0  0  0
 18 21  2  0  0  0  0
 18 50  1  0  0  0  0
 19 21  1  0  0  0  0
 19 51  1  0  0  0  0
 20 23  1  0  0  0  0
 21 52  1  0  0  0  0
 22 24  2  0  0  0  0
 23 25  2  0  0  0  0
 23 26  1  0  0  0  0
 24 25  1  0  0  0  0
 25 53  1  0  0  0  0
 26 28  1  0  0  0  0
 26 54  1  0  0  0  0
 26 55  1  0  0  0  0
 27 29  1  0  0  0  0
 27 56  1  0  0  0  0
 27 57  1  0  0  0  0
 28 58  1  0  0  0  0
 28 59  1  0  0  0  0
 28 60  1  0  0  0  0
 29 31  2  0  0  0  0
 29 32  1  0  0  0  0
 30 61  1  0  0  0  0
 30 62  1  0  0  0  0
 30 63  1  0  0  0  0
 31 33  1  0  0  0  0
 31 64  1  0  0  0  0
 32 34  2  0  0  0  0
 32 65  1  0  0  0  0
 33 35  2  0  0  0  0
 33 66  1  0  0  0  0
 34 35  1  0  0  0  0
 34 67  1  0  0  0  0
 35 68  1  0  0  0  0
M  END
> <PUBCHEM_COMPOUND_CID>
164618867

> <PUBCHEM_COMPOUND_CANONICALIZED>
1

> <PUBCHEM_CACTVS_COMPLEXITY>
637

> <PUBCHEM_CACTVS_HBOND_ACCEPTOR>
4

> <PUBCHEM_CACTVS_HBOND_DONOR>
1

> <PUBCHEM_CACTVS_ROTATABLE_BOND>
10

> <PUBCHEM_CACTVS_SUBSKEYS>
AAADcfB7MAAEAAAAAAAAAAAAAAAAAWAAAAAwYMAAAAAAAAABUAAAHgIQAAAADC7hmCYyBoPABACIAiFSEACCCAAkJUAIiIEMD8gMZzeFtxuWOWjn9hWIqQeY6OyOICACKAAICABAQARQABAQAAAAAAAAAA==

> <PUBCHEM_IUPAC_OPENEYE_NAME>
2-benzyloxy-N-[[(2S)-1-benzylpyrrolidin-2-yl]methyl]-5-chloro-3-ethyl-6-methoxy-benzamide

> <PUBCHEM_IUPAC_CAS_NAME>
3-chloro-5-ethyl-2-methoxy-6-phenylmethoxy-N-[[(2S)-1-(phenylmethyl)-2-pyrrolidinyl]methyl]benzamide

> <PUBCHEM_IUPAC_NAME_MARKUP>
<I>N</I>-[[(2<I>S</I>)-1-benzylpyrrolidin-2-yl]methyl]-3-chloro-5-ethyl-2-methoxy-6-phenylmethoxybenzamide

> <PUBCHEM_IUPAC_NAME>
N-[[(2S)-1-benzylpyrrolidin-2-yl]methyl]-3-chloro-5-ethyl-2-methoxy-6-phenylmethoxybenzamide

> <PUBCHEM_IUPAC_SYSTEMATIC_NAME>
3-chloranyl-5-ethyl-2-methoxy-6-phenylmethoxy-N-[[(2S)-1-(phenylmethyl)pyrrolidin-2-yl]methyl]benzamide

> <PUBCHEM_IUPAC_TRADITIONAL_NAME>
2-benzoxy-N-[[(2S)-1-benzylpyrrolidin-2-yl]methyl]-5-chloro-3-ethyl-6-methoxy-benzamide

> <PUBCHEM_IUPAC_INCHI>
InChI=1S/C29H33ClN2O3/c1-3-23-17-25(30)28(34-2)26(27(23)35-20-22-13-8-5-9-14-22)29(33)31-18-24-15-10-16-32(24)19-21-11-6-4-7-12-21/h4-9,11-14,17,24H,3,10,15-16,18-20H2,1-2H3,(H,31,33)/t24-/m0/s1

> <PUBCHEM_IUPAC_INCHIKEY>
QZNVCRYUPLFRHD-DEOSSOPVSA-N

> <PUBCHEM_XLOGP3_AA>
6.1

> <PUBCHEM_EXACT_MASS>
492.2179706

> <PUBCHEM_MOLECULAR_FORMULA>
C29H33ClN2O3

> <PUBCHEM_MOLECULAR_WEIGHT>
493.0

> <PUBCHEM_OPENEYE_CAN_SMILES>
CCC1=CC(=C(C(=C1OCC2=CC=CC=C2)C(=O)NCC3CCCN3CC4=CC=CC=C4)OC)Cl

> <PUBCHEM_OPENEYE_ISO_SMILES>
CCC1=CC(=C(C(=C1OCC2=CC=CC=C2)C(=O)NC[C@@H]3CCCN3CC4=CC=CC=C4)OC)Cl

> <PUBCHEM_CACTVS_TPSA>
50.8

> <PUBCHEM_MONOISOTOPIC_WEIGHT>
492.2179706

> <PUBCHEM_TOTAL_CHARGE>
0

> <PUBCHEM_HEAVY_ATOM_COUNT>
35

> <PUBCHEM_ATOM_DEF_STEREO_COUNT>
1

> <PUBCHEM_ATOM_UDEF_STEREO_COUNT>
0

> <PUBCHEM_BOND_DEF_STEREO_COUNT>
0

> <PUBCHEM_BOND_UDEF_STEREO_COUNT>
0

> <PUBCHEM_ISOTOPIC_ATOM_COUNT>
0

> <PUBCHEM_COMPONENT_COUNT>
1

> <PUBCHEM_CACTVS_TAUTO_COUNT>
-1

> <PUBCHEM_COORDINATE_TYPE>
1
5
255

> <PUBCHEM_BONDANNOTATIONS>
13  15  8
13  16  8
15  18  8
16  19  8
17  20  8
17  22  8
18  21  8
19  21  8
20  23  8
22  24  8
23  25  8
24  25  8
29  31  8
29  32  8
31  33  8
32  34  8
33  35  8
34  35  8
7  11  6

$$$$
