71658205
  -OEChem-09292322332D

 66 69  0     1  0  0  0  0  0999 V2000
    4.6698    3.7477    0.0000 S   0  0  0  0  0  0  0  0  0  0  0  0
    4.6466    8.4062    0.0000 F   0  0  0  0  0  0  0  0  0  0  0  0
    2.8660   -6.4062    0.0000 O   0  0  0  0  0  0  0  0  0  0  0  0
    3.7126    1.8914    0.0000 O   0  0  0  0  0  0  0  0  0  0  0  0
    5.0981   -3.2155    0.0000 N   0  0  3  0  0  0  0  0  0  0  0  0
    4.5981   -5.4062    0.0000 N   0  0  3  0  0  0  0  0  0  0  0  0
    5.2731    1.1399    0.0000 N   0  0  0  0  0  0  0  0  0  0  0  0
    4.0981   -3.2155    0.0000 C   0  0  0  0  0  0  0  0  0  0  0  0
    5.7216   -3.9974    0.0000 C   0  0  0  0  0  0  0  0  0  0  0  0
    3.4746   -3.9974    0.0000 C   0  0  0  0  0  0  0  0  0  0  0  0
    5.4990   -4.9723    0.0000 C   0  0  0  0  0  0  0  0  0  0  0  0
    3.6971   -4.9723    0.0000 C   0  0  0  0  0  0  0  0  0  0  0  0
    5.5320   -2.3146    0.0000 C   0  0  0  0  0  0  0  0  0  0  0  0
    4.9686   -1.4883    0.0000 C   0  0  0  0  0  0  0  0  0  0  0  0
    4.5981   -6.4062    0.0000 C   0  0  0  0  0  0  0  0  0  0  0  0
    5.4025   -0.5874    0.0000 C   0  0  0  0  0  0  0  0  0  0  0  0
    4.8392    0.2389    0.0000 C   0  0  0  0  0  0  0  0  0  0  0  0
    3.7320   -6.9062    0.0000 C   0  0  0  0  0  0  0  0  0  0  0  0
    5.4641   -6.9062    0.0000 C   0  0  0  0  0  0  0  0  0  0  0  0
    3.7320   -7.9062    0.0000 C   0  0  0  0  0  0  0  0  0  0  0  0
    5.4641   -7.9062    0.0000 C   0  0  0  0  0  0  0  0  0  0  0  0
    4.5981   -8.4062    0.0000 C   0  0  0  0  0  0  0  0  0  0  0  0
    4.7098    1.9661    0.0000 C   0  0  0  0  0  0  0  0  0  0  0  0
    2.0000   -6.9062    0.0000 C   0  0  0  0  0  0  0  0  0  0  0  0
    5.1436    2.8671    0.0000 C   0  0  0  0  0  0  0  0  0  0  0  0
    6.1276    3.0456    0.0000 C   0  0  0  0  0  0  0  0  0  0  0  0
    5.3608    4.4704    0.0000 C   0  0  0  0  0  0  0  0  0  0  0  0
    6.2618    4.0366    0.0000 C   0  0  0  0  0  0  0  0  0  0  0  0
    5.1823    5.4544    0.0000 C   0  0  0  0  0  0  0  0  0  0  0  0
    4.2409    5.7917    0.0000 C   0  0  0  0  0  0  0  0  0  0  0  0
    5.9451    6.1010    0.0000 C   0  0  0  0  0  0  0  0  0  0  0  0
    4.0623    6.7756    0.0000 C   0  0  0  0  0  0  0  0  0  0  0  0
    5.7666    7.0849    0.0000 C   0  0  0  0  0  0  0  0  0  0  0  0
    4.8252    7.4222    0.0000 C   0  0  0  0  0  0  0  0  0  0  0  0
    4.2360   -2.6111    0.0000 H   0  0  0  0  0  0  0  0  0  0  0  0
    3.5395   -2.9465    0.0000 H   0  0  0  0  0  0  0  0  0  0  0  0
    6.2802   -4.2664    0.0000 H   0  0  0  0  0  0  0  0  0  0  0  0
    6.1081   -3.5126    0.0000 H   0  0  0  0  0  0  0  0  0  0  0  0
    3.0880   -3.5126    0.0000 H   0  0  0  0  0  0  0  0  0  0  0  0
    2.9160   -4.2664    0.0000 H   0  0  0  0  0  0  0  0  0  0  0  0
    5.6370   -5.5767    0.0000 H   0  0  0  0  0  0  0  0  0  0  0  0
    6.1190   -4.9723    0.0000 H   0  0  0  0  0  0  0  0  0  0  0  0
    3.0771   -4.9723    0.0000 H   0  0  0  0  0  0  0  0  0  0  0  0
    3.5591   -5.5767    0.0000 H   0  0  0  0  0  0  0  0  0  0  0  0
    6.0354   -2.6765    0.0000 H   0  0  0  0  0  0  0  0  0  0  0  0
    5.9758   -1.8816    0.0000 H   0  0  0  0  0  0  0  0  0  0  0  0
    4.4652   -1.1264    0.0000 H   0  0  0  0  0  0  0  0  0  0  0  0
    4.5248   -1.9212    0.0000 H   0  0  0  0  0  0  0  0  0  0  0  0
    5.9059   -0.9493    0.0000 H   0  0  0  0  0  0  0  0  0  0  0  0
    5.8464   -0.1544    0.0000 H   0  0  0  0  0  0  0  0  0  0  0  0
    4.3358    0.6008    0.0000 H   0  0  0  0  0  0  0  0  0  0  0  0
    4.3954   -0.1940    0.0000 H   0  0  0  0  0  0  0  0  0  0  0  0
    6.0010   -6.5962    0.0000 H   0  0  0  0  0  0  0  0  0  0  0  0
    3.1951   -8.2162    0.0000 H   0  0  0  0  0  0  0  0  0  0  0  0
    5.8914    1.1862    0.0000 H   0  0  0  0  0  0  0  0  0  0  0  0
    6.0010   -8.2162    0.0000 H   0  0  0  0  0  0  0  0  0  0  0  0
    4.5981   -9.0262    0.0000 H   0  0  0  0  0  0  0  0  0  0  0  0
    1.6900   -6.3692    0.0000 H   0  0  0  0  0  0  0  0  0  0  0  0
    1.4631   -7.2162    0.0000 H   0  0  0  0  0  0  0  0  0  0  0  0
    2.3100   -7.4431    0.0000 H   0  0  0  0  0  0  0  0  0  0  0  0
    6.5757    2.6172    0.0000 H   0  0  0  0  0  0  0  0  0  0  0  0
    6.8078    4.3304    0.0000 H   0  0  0  0  0  0  0  0  0  0  0  0
    3.7680    5.3908    0.0000 H   0  0  0  0  0  0  0  0  0  0  0  0
    6.5288    5.8918    0.0000 H   0  0  0  0  0  0  0  0  0  0  0  0
    3.4787    6.9848    0.0000 H   0  0  0  0  0  0  0  0  0  0  0  0
    6.2395    7.4858    0.0000 H   0  0  0  0  0  0  0  0  0  0  0  0
  1 25  1  0  0  0  0
  1 27  1  0  0  0  0
  2 34  1  0  0  0  0
  3 18  1  0  0  0  0
  3 24  1  0  0  0  0
  4 23  2  0  0  0  0
  5  8  1  0  0  0  0
  5  9  1  0  0  0  0
  5 13  1  0  0  0  0
  6 11  1  0  0  0  0
  6 12  1  0  0  0  0
  6 15  1  0  0  0  0
  7 17  1  0  0  0  0
  7 23  1  0  0  0  0
  7 55  1  0  0  0  0
  8 10  1  0  0  0  0
  8 35  1  0  0  0  0
  8 36  1  0  0  0  0
  9 11  1  0  0  0  0
  9 37  1  0  0  0  0
  9 38  1  0  0  0  0
 10 12  1  0  0  0  0
 10 39  1  0  0  0  0
 10 40  1  0  0  0  0
 11 41  1  0  0  0  0
 11 42  1  0  0  0  0
 12 43  1  0  0  0  0
 12 44  1  0  0  0  0
 13 14  1  0  0  0  0
 13 45  1  0  0  0  0
 13 46  1  0  0  0  0
 14 16  1  0  0  0  0
 14 47  1  0  0  0  0
 14 48  1  0  0  0  0
 15 18  1  0  0  0  0
 15 19  2  0  0  0  0
 16 17  1  0  0  0  0
 16 49  1  0  0  0  0
 16 50  1  0  0  0  0
 17 51  1  0  0  0  0
 17 52  1  0  0  0  0
 18 20  2  0  0  0  0
 19 21  1  0  0  0  0
 19 53  1  0  0  0  0
 20 22  1  0  0  0  0
 20 54  1  0  0  0  0
 21 22  2  0  0  0  0
 21 56  1  0  0  0  0
 22 57  1  0  0  0  0
 23 25  1  0  0  0  0
 24 58  1  0  0  0  0
 24 59  1  0  0  0  0
 24 60  1  0  0  0  0
 25 26  2  0  0  0  0
 26 28  1  0  0  0  0
 26 61  1  0  0  0  0
 27 28  2  0  0  0  0
 27 29  1  0  0  0  0
 28 62  1  0  0  0  0
 29 30  2  0  0  0  0
 29 31  1  0  0  0  0
 30 32  1  0  0  0  0
 30 63  1  0  0  0  0
 31 33  2  0  0  0  0
 31 64  1  0  0  0  0
 32 34  2  0  0  0  0
 32 65  1  0  0  0  0
 33 34  1  0  0  0  0
 33 66  1  0  0  0  0
M  END
> <PUBCHEM_COMPOUND_CID>
71658205

> <PUBCHEM_COMPOUND_CANONICALIZED>
1

> <PUBCHEM_CACTVS_COMPLEXITY>
619

> <PUBCHEM_CACTVS_HBOND_ACCEPTOR>
6

> <PUBCHEM_CACTVS_HBOND_DONOR>
1

> <PUBCHEM_CACTVS_ROTATABLE_BOND>
9

> <PUBCHEM_CACTVS_SUBSKEYS>
AAADcfB7MQBAAAAAAAAAAAAAAAAAASAAAAAwYAAABYAAAAAB0AAAHwQQAAAADAzB2A4yx4PABAiMAiVSUACDCIAlKhBIiJkPbMgOZjLk9ZuVMShk1hH46YeYyMCOAAAAAAAAEAAAAAAAAAAgAAAAAAAAAA==

> <PUBCHEM_IUPAC_OPENEYE_NAME>
5-(4-fluorophenyl)-N-[4-[4-(2-methoxyphenyl)-1,4-diazepan-1-yl]butyl]thiophene-2-carboxamide

> <PUBCHEM_IUPAC_CAS_NAME>
5-(4-fluorophenyl)-N-[4-[4-(2-methoxyphenyl)-1,4-diazepan-1-yl]butyl]-2-thiophenecarboxamide

> <PUBCHEM_IUPAC_NAME_MARKUP>
5-(4-fluorophenyl)-<I>N</I>-[4-[4-(2-methoxyphenyl)-1,4-diazepan-1-yl]butyl]thiophene-2-carboxamide

> <PUBCHEM_IUPAC_NAME>
5-(4-fluorophenyl)-N-[4-[4-(2-methoxyphenyl)-1,4-diazepan-1-yl]butyl]thiophene-2-carboxamide

> <PUBCHEM_IUPAC_SYSTEMATIC_NAME>
5-(4-fluorophenyl)-N-[4-[4-(2-methoxyphenyl)-1,4-diazepan-1-yl]butyl]thiophene-2-carboxamide

> <PUBCHEM_IUPAC_TRADITIONAL_NAME>
5-(4-fluorophenyl)-N-[4-[4-(2-methoxyphenyl)-1,4-diazepan-1-yl]butyl]thiophene-2-carboxamide

> <PUBCHEM_IUPAC_INCHI>
InChI=1S/C27H32FN3O2S/c1-33-24-8-3-2-7-23(24)31-18-6-17-30(19-20-31)16-5-4-15-29-27(32)26-14-13-25(34-26)21-9-11-22(28)12-10-21/h2-3,7-14H,4-6,15-20H2,1H3,(H,29,32)

> <PUBCHEM_IUPAC_INCHIKEY>
MGDBVKSSHFDIJD-UHFFFAOYSA-N

> <PUBCHEM_XLOGP3_AA>
5.6

> <PUBCHEM_EXACT_MASS>
481.21992661

> <PUBCHEM_MOLECULAR_FORMULA>
C27H32FN3O2S

> <PUBCHEM_MOLECULAR_WEIGHT>
481.6

> <PUBCHEM_OPENEYE_CAN_SMILES>
COC1=CC=CC=C1N2CCCN(CC2)CCCCNC(=O)C3=CC=C(S3)C4=CC=C(C=C4)F

> <PUBCHEM_OPENEYE_ISO_SMILES>
COC1=CC=CC=C1N2CCCN(CC2)CCCCNC(=O)C3=CC=C(S3)C4=CC=C(C=C4)F

> <PUBCHEM_CACTVS_TPSA>
73

> <PUBCHEM_MONOISOTOPIC_WEIGHT>
481.21992661

> <PUBCHEM_TOTAL_CHARGE>
0

> <PUBCHEM_HEAVY_ATOM_COUNT>
34

> <PUBCHEM_ATOM_DEF_STEREO_COUNT>
0

> <PUBCHEM_ATOM_UDEF_STEREO_COUNT>
0

> <PUBCHEM_BOND_DEF_STEREO_COUNT>
0

> <PUBCHEM_BOND_UDEF_STEREO_COUNT>
0

> <PUBCHEM_ISOTOPIC_ATOM_COUNT>
0

> <PUBCHEM_COMPONENT_COUNT>
1

> <PUBCHEM_CACTVS_TAUTO_COUNT>
-1

> <PUBCHEM_COORDINATE_TYPE>
1
5
255

> <PUBCHEM_BONDANNOTATIONS>
1  25  8
1  27  8
15  18  8
15  19  8
18  20  8
19  21  8
20  22  8
21  22  8
25  26  8
26  28  8
27  28  8
29  30  8
29  31  8
30  32  8
31  33  8
32  34  8
33  34  8

$$$$
