24901285
  -OEChem-09292322042D

 65 68  0     1  0  0  0  0  0999 V2000
    2.0000    5.6550    0.0000 Cl  0  0  0  0  0  0  0  0  0  0  0  0
    5.4641    5.6550    0.0000 Cl  0  0  0  0  0  0  0  0  0  0  0  0
   10.7404   -4.5403    0.0000 S   0  0  0  0  0  0  0  0  0  0  0  0
    9.7942   -2.8450    0.0000 O   0  0  0  0  0  0  0  0  0  0  0  0
    8.9282   -7.3450    0.0000 O   0  0  0  0  0  0  0  0  0  0  0  0
   12.3241   -5.3450    0.0000 O   0  0  0  0  0  0  0  0  0  0  0  0
    8.0622   -1.8450    0.0000 N   0  0  0  0  0  0  0  0  0  0  0  0
    4.5981    3.1550    0.0000 N   0  0  0  0  0  0  0  0  0  0  0  0
   10.7404   -6.1497    0.0000 N   0  0  0  0  0  0  0  0  0  0  0  0
    7.1962   -1.3450    0.0000 C   0  0  3  0  0  0  0  0  0  0  0  0
    7.1962   -0.3450    0.0000 C   0  0  0  0  0  0  0  0  0  0  0  0
    8.0622   -2.8450    0.0000 C   0  0  0  0  0  0  0  0  0  0  0  0
    8.9282   -3.3450    0.0000 C   0  0  1  0  0  0  0  0  0  0  0  0
    6.3301    0.1550    0.0000 C   0  0  0  0  0  0  0  0  0  0  0  0
    8.9282   -4.3450    0.0000 C   0  0  0  0  0  0  0  0  0  0  0  0
    6.3301   -1.8450    0.0000 C   0  0  0  0  0  0  0  0  0  0  0  0
    6.3301    1.1550    0.0000 C   0  0  0  0  0  0  0  0  0  0  0  0
    9.7942   -4.8450    0.0000 C   0  0  0  0  0  0  0  0  0  0  0  0
    5.4641    1.6550    0.0000 C   0  0  0  0  0  0  0  0  0  0  0  0
    5.4641   -0.3450    0.0000 C   0  0  0  0  0  0  0  0  0  0  0  0
    5.4641    2.6550    0.0000 C   0  0  0  0  0  0  0  0  0  0  0  0
    9.7942   -5.8450    0.0000 C   0  0  0  0  0  0  0  0  0  0  0  0
    8.0622   -4.8450    0.0000 C   0  0  0  0  0  0  0  0  0  0  0  0
    4.5981    1.1550    0.0000 C   0  0  0  0  0  0  0  0  0  0  0  0
    4.5981    0.1550    0.0000 C   0  0  0  0  0  0  0  0  0  0  0  0
    8.9282   -6.3450    0.0000 C   0  0  0  0  0  0  0  0  0  0  0  0
    4.5981    4.1550    0.0000 C   0  0  0  0  0  0  0  0  0  0  0  0
    8.0622   -5.8450    0.0000 C   0  0  0  0  0  0  0  0  0  0  0  0
    3.7320    4.6550    0.0000 C   0  0  0  0  0  0  0  0  0  0  0  0
   11.3241   -5.3450    0.0000 C   0  0  0  0  0  0  0  0  0  0  0  0
    3.7320    5.6550    0.0000 C   0  0  0  0  0  0  0  0  0  0  0  0
    2.8660    6.1550    0.0000 C   0  0  0  0  0  0  0  0  0  0  0  0
    4.5981    6.1550    0.0000 C   0  0  0  0  0  0  0  0  0  0  0  0
    2.8660    7.1550    0.0000 C   0  0  0  0  0  0  0  0  0  0  0  0
    4.5981    7.1550    0.0000 C   0  0  0  0  0  0  0  0  0  0  0  0
    3.7320    7.6550    0.0000 C   0  0  0  0  0  0  0  0  0  0  0  0
    7.7331   -1.0350    0.0000 H   0  0  0  0  0  0  0  0  0  0  0  0
    7.8067   -0.4527    0.0000 H   0  0  0  0  0  0  0  0  0  0  0  0
    7.4082    0.2376    0.0000 H   0  0  0  0  0  0  0  0  0  0  0  0
    7.4516   -2.7373    0.0000 H   0  0  0  0  0  0  0  0  0  0  0  0
    7.8501   -3.4276    0.0000 H   0  0  0  0  0  0  0  0  0  0  0  0
    8.5991   -1.5350    0.0000 H   0  0  0  0  0  0  0  0  0  0  0  0
    9.4651   -3.6550    0.0000 H   0  0  0  0  0  0  0  0  0  0  0  0
    6.0201   -1.3081    0.0000 H   0  0  0  0  0  0  0  0  0  0  0  0
    5.7932   -2.1550    0.0000 H   0  0  0  0  0  0  0  0  0  0  0  0
    6.6401   -2.3819    0.0000 H   0  0  0  0  0  0  0  0  0  0  0  0
    6.8671    1.4650    0.0000 H   0  0  0  0  0  0  0  0  0  0  0  0
    5.4641   -0.9650    0.0000 H   0  0  0  0  0  0  0  0  0  0  0  0
    6.0747    2.5473    0.0000 H   0  0  0  0  0  0  0  0  0  0  0  0
    5.6762    3.2376    0.0000 H   0  0  0  0  0  0  0  0  0  0  0  0
    7.5252   -4.5350    0.0000 H   0  0  0  0  0  0  0  0  0  0  0  0
    4.0611    1.4650    0.0000 H   0  0  0  0  0  0  0  0  0  0  0  0
    4.0611   -0.1550    0.0000 H   0  0  0  0  0  0  0  0  0  0  0  0
    4.0611    2.8450    0.0000 H   0  0  0  0  0  0  0  0  0  0  0  0
    5.2087    4.0473    0.0000 H   0  0  0  0  0  0  0  0  0  0  0  0
    4.8101    4.7376    0.0000 H   0  0  0  0  0  0  0  0  0  0  0  0
    9.7942   -2.2250    0.0000 H   0  0  0  0  0  0  0  0  0  0  0  0
    7.5252   -6.1550    0.0000 H   0  0  0  0  0  0  0  0  0  0  0  0
    3.1215    4.7627    0.0000 H   0  0  0  0  0  0  0  0  0  0  0  0
    3.5200    4.0724    0.0000 H   0  0  0  0  0  0  0  0  0  0  0  0
   10.9331   -6.7391    0.0000 H   0  0  0  0  0  0  0  0  0  0  0  0
    8.3913   -7.6550    0.0000 H   0  0  0  0  0  0  0  0  0  0  0  0
    2.3291    7.4650    0.0000 H   0  0  0  0  0  0  0  0  0  0  0  0
    5.1350    7.4650    0.0000 H   0  0  0  0  0  0  0  0  0  0  0  0
    3.7320    8.2750    0.0000 H   0  0  0  0  0  0  0  0  0  0  0  0
  1 32  1  0  0  0  0
  2 33  1  0  0  0  0
  3 18  1  0  0  0  0
  3 30  1  0  0  0  0
 13  4  1  6  0  0  0
  4 57  1  0  0  0  0
  5 26  1  0  0  0  0
  5 62  1  0  0  0  0
  6 30  2  0  0  0  0
  7 10  1  0  0  0  0
  7 12  1  0  0  0  0
  7 42  1  0  0  0  0
  8 21  1  0  0  0  0
  8 27  1  0  0  0  0
  8 54  1  0  0  0  0
  9 22  1  0  0  0  0
  9 30  1  0  0  0  0
  9 61  1  0  0  0  0
 10 11  1  0  0  0  0
 10 16  1  0  0  0  0
 10 37  1  0  0  0  0
 11 14  1  0  0  0  0
 11 38  1  0  0  0  0
 11 39  1  0  0  0  0
 12 13  1  0  0  0  0
 12 40  1  0  0  0  0
 12 41  1  0  0  0  0
 13 15  1  0  0  0  0
 13 43  1  0  0  0  0
 14 17  2  0  0  0  0
 14 20  1  0  0  0  0
 15 18  2  0  0  0  0
 15 23  1  0  0  0  0
 16 44  1  0  0  0  0
 16 45  1  0  0  0  0
 16 46  1  0  0  0  0
 17 19  1  0  0  0  0
 17 47  1  0  0  0  0
 18 22  1  0  0  0  0
 19 21  1  0  0  0  0
 19 24  2  0  0  0  0
 20 25  2  0  0  0  0
 20 48  1  0  0  0  0
 21 49  1  0  0  0  0
 21 50  1  0  0  0  0
 22 26  2  0  0  0  0
 23 28  2  0  0  0  0
 23 51  1  0  0  0  0
 24 25  1  0  0  0  0
 24 52  1  0  0  0  0
 25 53  1  0  0  0  0
 26 28  1  0  0  0  0
 27 29  1  0  0  0  0
 27 55  1  0  0  0  0
 27 56  1  0  0  0  0
 28 58  1  0  0  0  0
 29 31  1  0  0  0  0
 29 59  1  0  0  0  0
 29 60  1  0  0  0  0
 31 32  2  0  0  0  0
 31 33  1  0  0  0  0
 32 34  1  0  0  0  0
 33 35  2  0  0  0  0
 34 36  2  0  0  0  0
 34 63  1  0  0  0  0
 35 36  1  0  0  0  0
 35 64  1  0  0  0  0
 36 65  1  0  0  0  0
M  END
> <PUBCHEM_COMPOUND_CID>
24901285

> <PUBCHEM_COMPOUND_CANONICALIZED>
1

> <PUBCHEM_CACTVS_COMPLEXITY>
697

> <PUBCHEM_CACTVS_HBOND_ACCEPTOR>
6

> <PUBCHEM_CACTVS_HBOND_DONOR>
5

> <PUBCHEM_CACTVS_ROTATABLE_BOND>
11

> <PUBCHEM_CACTVS_SUBSKEYS>
AAADceB7MABGAAAAAAAAAAAAAAAAAWAAAAAwYMAAAAAAAFgBUAAAHgYQCAAADD7h2CYyx4LAAgiIAiRCUACCAABhLRAIiJQPTogKNiLzk5OEcAhk1BHY2Aew4OQOIAACRACFEQBAAASIAQoiAAAAAAAAAA==

> <PUBCHEM_IUPAC_OPENEYE_NAME>
7-[(1R)-2-[[2-[3-[[2-(2,6-dichlorophenyl)ethylamino]methyl]phenyl]-1-methyl-ethyl]amino]-1-hydroxy-ethyl]-4-hydroxy-3H-1,3-benzothiazol-2-one

> <PUBCHEM_IUPAC_CAS_NAME>
7-[(1R)-2-[1-[3-[[2-(2,6-dichlorophenyl)ethylamino]methyl]phenyl]propan-2-ylamino]-1-hydroxyethyl]-4-hydroxy-3H-1,3-benzothiazol-2-one

> <PUBCHEM_IUPAC_NAME_MARKUP>
7-[(1<I>R</I>)-2-[1-[3-[[2-(2,6-dichlorophenyl)ethylamino]methyl]phenyl]propan-2-ylamino]-1-hydroxyethyl]-4-hydroxy-3<I>H</I>-1,3-benzothiazol-2-one

> <PUBCHEM_IUPAC_NAME>
7-[(1R)-2-[1-[3-[[2-(2,6-dichlorophenyl)ethylamino]methyl]phenyl]propan-2-ylamino]-1-hydroxyethyl]-4-hydroxy-3H-1,3-benzothiazol-2-one

> <PUBCHEM_IUPAC_SYSTEMATIC_NAME>
7-[(1R)-2-[1-[3-[[2-[2,6-bis(chloranyl)phenyl]ethylamino]methyl]phenyl]propan-2-ylamino]-1-oxidanyl-ethyl]-4-oxidanyl-3H-1,3-benzothiazol-2-one

> <PUBCHEM_IUPAC_TRADITIONAL_NAME>
7-[(1R)-2-[[2-[3-[[2-(2,6-dichlorophenyl)ethylamino]methyl]phenyl]-1-methyl-ethyl]amino]-1-hydroxy-ethyl]-4-hydroxy-3H-1,3-benzothiazol-2-one

> <PUBCHEM_IUPAC_INCHI>
InChI=1S/C27H29Cl2N3O3S/c1-16(31-15-24(34)20-8-9-23(33)25-26(20)36-27(35)32-25)12-17-4-2-5-18(13-17)14-30-11-10-19-21(28)6-3-7-22(19)29/h2-9,13,16,24,30-31,33-34H,10-12,14-15H2,1H3,(H,32,35)/t16?,24-/m0/s1

> <PUBCHEM_IUPAC_INCHIKEY>
WONPWDMMWFWEFC-ODOSRFNGSA-N

> <PUBCHEM_XLOGP3_AA>
5

> <PUBCHEM_EXACT_MASS>
545.1306684

> <PUBCHEM_MOLECULAR_FORMULA>
C27H29Cl2N3O3S

> <PUBCHEM_MOLECULAR_WEIGHT>
546.5

> <PUBCHEM_OPENEYE_CAN_SMILES>
CC(CC1=CC(=CC=C1)CNCCC2=C(C=CC=C2Cl)Cl)NCC(C3=C4C(=C(C=C3)O)NC(=O)S4)O

> <PUBCHEM_OPENEYE_ISO_SMILES>
CC(CC1=CC(=CC=C1)CNCCC2=C(C=CC=C2Cl)Cl)NC[C@@H](C3=C4C(=C(C=C3)O)NC(=O)S4)O

> <PUBCHEM_CACTVS_TPSA>
119

> <PUBCHEM_MONOISOTOPIC_WEIGHT>
545.1306684

> <PUBCHEM_TOTAL_CHARGE>
0

> <PUBCHEM_HEAVY_ATOM_COUNT>
36

> <PUBCHEM_ATOM_DEF_STEREO_COUNT>
1

> <PUBCHEM_ATOM_UDEF_STEREO_COUNT>
1

> <PUBCHEM_BOND_DEF_STEREO_COUNT>
0

> <PUBCHEM_BOND_UDEF_STEREO_COUNT>
0

> <PUBCHEM_ISOTOPIC_ATOM_COUNT>
0

> <PUBCHEM_COMPONENT_COUNT>
1

> <PUBCHEM_CACTVS_TAUTO_COUNT>
-1

> <PUBCHEM_COORDINATE_TYPE>
1
5
255

> <PUBCHEM_BONDANNOTATIONS>
10  16  3
14  17  8
14  20  8
15  18  8
15  23  8
17  19  8
18  22  8
19  24  8
20  25  8
22  26  8
23  28  8
24  25  8
26  28  8
3  18  8
3  30  8
31  32  8
31  33  8
32  34  8
33  35  8
34  36  8
35  36  8
13  4  6
9  22  8
9  30  8

$$$$
