72545240
  -OEChem-09292322342D

 66 69  0     0  0  0  0  0  0999 V2000
   16.3596    4.6704    0.0000 F   0  0  0  0  0  0  0  0  0  0  0  0
    2.8660   -2.6704    0.0000 O   0  0  0  0  0  0  0  0  0  0  0  0
   11.0249    1.7479    0.0000 O   0  0  0  0  0  0  0  0  0  0  0  0
   14.1895    3.1569    0.0000 O   0  0  0  0  0  0  0  0  0  0  0  0
    4.5981    0.3296    0.0000 N   0  0  0  0  0  0  0  0  0  0  0  0
    4.5981   -1.6704    0.0000 N   0  0  0  0  0  0  0  0  0  0  0  0
    7.0468    2.1660    0.0000 N   0  0  0  0  0  0  0  0  0  0  0  0
    5.5686    2.8241    0.0000 N   0  0  0  0  0  0  0  0  0  0  0  0
    6.5468    3.0320    0.0000 N   0  0  0  0  0  0  0  0  0  0  0  0
    5.4641   -0.1704    0.0000 C   0  0  0  0  0  0  0  0  0  0  0  0
    3.7320   -0.1704    0.0000 C   0  0  0  0  0  0  0  0  0  0  0  0
    5.4641   -1.1704    0.0000 C   0  0  0  0  0  0  0  0  0  0  0  0
    3.7320   -1.1704    0.0000 C   0  0  0  0  0  0  0  0  0  0  0  0
    4.5981    1.3296    0.0000 C   0  0  0  0  0  0  0  0  0  0  0  0
    4.5981   -2.6704    0.0000 C   0  0  0  0  0  0  0  0  0  0  0  0
    5.4641    1.8296    0.0000 C   0  0  0  0  0  0  0  0  0  0  0  0
    3.7320   -3.1704    0.0000 C   0  0  0  0  0  0  0  0  0  0  0  0
    5.4641   -3.1704    0.0000 C   0  0  0  0  0  0  0  0  0  0  0  0
    6.3776    1.4229    0.0000 C   0  0  0  0  0  0  0  0  0  0  0  0
    3.7320   -4.1704    0.0000 C   0  0  0  0  0  0  0  0  0  0  0  0
    5.4641   -4.1704    0.0000 C   0  0  0  0  0  0  0  0  0  0  0  0
    4.5981   -4.6704    0.0000 C   0  0  0  0  0  0  0  0  0  0  0  0
    8.0413    2.0615    0.0000 C   0  0  0  0  0  0  0  0  0  0  0  0
    2.0000   -3.1704    0.0000 C   0  0  0  0  0  0  0  0  0  0  0  0
    8.4480    1.1480    0.0000 C   0  0  0  0  0  0  0  0  0  0  0  0
    8.6291    2.8705    0.0000 C   0  0  0  0  0  0  0  0  0  0  0  0
   10.0303    1.8524    0.0000 C   0  0  0  0  0  0  0  0  0  0  0  0
    9.4426    1.0434    0.0000 C   0  0  0  0  0  0  0  0  0  0  0  0
    9.6236    2.7660    0.0000 C   0  0  0  0  0  0  0  0  0  0  0  0
   11.6127    2.5569    0.0000 C   0  0  0  0  0  0  0  0  0  0  0  0
   12.6072    2.4524    0.0000 C   0  0  0  0  0  0  0  0  0  0  0  0
   13.1950    3.2614    0.0000 C   0  0  0  0  0  0  0  0  0  0  0  0
   14.7773    3.9659    0.0000 C   0  0  0  0  0  0  0  0  0  0  0  0
   15.7718    3.8614    0.0000 C   0  0  0  0  0  0  0  0  0  0  0  0
    6.0747   -0.2780    0.0000 H   0  0  0  0  0  0  0  0  0  0  0  0
    5.6762    0.4122    0.0000 H   0  0  0  0  0  0  0  0  0  0  0  0
    3.5200    0.4122    0.0000 H   0  0  0  0  0  0  0  0  0  0  0  0
    3.1215   -0.2780    0.0000 H   0  0  0  0  0  0  0  0  0  0  0  0
    5.6762   -1.7530    0.0000 H   0  0  0  0  0  0  0  0  0  0  0  0
    6.0747   -1.0627    0.0000 H   0  0  0  0  0  0  0  0  0  0  0  0
    3.1215   -1.0627    0.0000 H   0  0  0  0  0  0  0  0  0  0  0  0
    3.5200   -1.7530    0.0000 H   0  0  0  0  0  0  0  0  0  0  0  0
    4.3860    1.9122    0.0000 H   0  0  0  0  0  0  0  0  0  0  0  0
    3.9875    1.2220    0.0000 H   0  0  0  0  0  0  0  0  0  0  0  0
    6.0010   -2.8604    0.0000 H   0  0  0  0  0  0  0  0  0  0  0  0
    6.5066    0.8164    0.0000 H   0  0  0  0  0  0  0  0  0  0  0  0
    3.1951   -4.4804    0.0000 H   0  0  0  0  0  0  0  0  0  0  0  0
    6.0010   -4.4804    0.0000 H   0  0  0  0  0  0  0  0  0  0  0  0
    4.5981   -5.2904    0.0000 H   0  0  0  0  0  0  0  0  0  0  0  0
    1.6900   -2.6334    0.0000 H   0  0  0  0  0  0  0  0  0  0  0  0
    1.4631   -3.4804    0.0000 H   0  0  0  0  0  0  0  0  0  0  0  0
    2.3100   -3.7073    0.0000 H   0  0  0  0  0  0  0  0  0  0  0  0
    8.0836    0.6464    0.0000 H   0  0  0  0  0  0  0  0  0  0  0  0
    8.3769    3.4369    0.0000 H   0  0  0  0  0  0  0  0  0  0  0  0
    9.6947    0.4770    0.0000 H   0  0  0  0  0  0  0  0  0  0  0  0
    9.9880    3.2676    0.0000 H   0  0  0  0  0  0  0  0  0  0  0  0
   11.7835    3.1529    0.0000 H   0  0  0  0  0  0  0  0  0  0  0  0
   11.0554    2.8287    0.0000 H   0  0  0  0  0  0  0  0  0  0  0  0
   12.4363    1.8564    0.0000 H   0  0  0  0  0  0  0  0  0  0  0  0
   13.1644    2.1806    0.0000 H   0  0  0  0  0  0  0  0  0  0  0  0
   13.3659    3.8574    0.0000 H   0  0  0  0  0  0  0  0  0  0  0  0
   12.6377    3.5332    0.0000 H   0  0  0  0  0  0  0  0  0  0  0  0
   14.9482    4.5619    0.0000 H   0  0  0  0  0  0  0  0  0  0  0  0
   14.2200    4.2377    0.0000 H   0  0  0  0  0  0  0  0  0  0  0  0
   15.6009    3.2654    0.0000 H   0  0  0  0  0  0  0  0  0  0  0  0
   16.3290    3.5896    0.0000 H   0  0  0  0  0  0  0  0  0  0  0  0
  1 34  1  0  0  0  0
  2 17  1  0  0  0  0
  2 24  1  0  0  0  0
  3 27  1  0  0  0  0
  3 30  1  0  0  0  0
  4 32  1  0  0  0  0
  4 33  1  0  0  0  0
  5 10  1  0  0  0  0
  5 11  1  0  0  0  0
  5 14  1  0  0  0  0
  6 12  1  0  0  0  0
  6 13  1  0  0  0  0
  6 15  1  0  0  0  0
  7  9  1  0  0  0  0
  7 19  1  0  0  0  0
  7 23  1  0  0  0  0
  8  9  2  0  0  0  0
  8 16  1  0  0  0  0
 10 12  1  0  0  0  0
 10 35  1  0  0  0  0
 10 36  1  0  0  0  0
 11 13  1  0  0  0  0
 11 37  1  0  0  0  0
 11 38  1  0  0  0  0
 12 39  1  0  0  0  0
 12 40  1  0  0  0  0
 13 41  1  0  0  0  0
 13 42  1  0  0  0  0
 14 16  1  0  0  0  0
 14 43  1  0  0  0  0
 14 44  1  0  0  0  0
 15 17  1  0  0  0  0
 15 18  2  0  0  0  0
 16 19  2  0  0  0  0
 17 20  2  0  0  0  0
 18 21  1  0  0  0  0
 18 45  1  0  0  0  0
 19 46  1  0  0  0  0
 20 22  1  0  0  0  0
 20 47  1  0  0  0  0
 21 22  2  0  0  0  0
 21 48  1  0  0  0  0
 22 49  1  0  0  0  0
 23 25  2  0  0  0  0
 23 26  1  0  0  0  0
 24 50  1  0  0  0  0
 24 51  1  0  0  0  0
 24 52  1  0  0  0  0
 25 28  1  0  0  0  0
 25 53  1  0  0  0  0
 26 29  2  0  0  0  0
 26 54  1  0  0  0  0
 27 28  2  0  0  0  0
 27 29  1  0  0  0  0
 28 55  1  0  0  0  0
 29 56  1  0  0  0  0
 30 31  1  0  0  0  0
 30 57  1  0  0  0  0
 30 58  1  0  0  0  0
 31 32  1  0  0  0  0
 31 59  1  0  0  0  0
 31 60  1  0  0  0  0
 32 61  1  0  0  0  0
 32 62  1  0  0  0  0
 33 34  1  0  0  0  0
 33 63  1  0  0  0  0
 33 64  1  0  0  0  0
 34 65  1  0  0  0  0
 34 66  1  0  0  0  0
M  END
> <PUBCHEM_COMPOUND_CID>
72545240

> <PUBCHEM_COMPOUND_CANONICALIZED>
1

> <PUBCHEM_CACTVS_COMPLEXITY>
561

> <PUBCHEM_CACTVS_HBOND_ACCEPTOR>
8

> <PUBCHEM_CACTVS_HBOND_DONOR>
0

> <PUBCHEM_CACTVS_ROTATABLE_BOND>
12

> <PUBCHEM_CACTVS_SUBSKEYS>
AAADcfB7sQAAAAAAAAAAAAAAAAAAAWAAAAA8YIAAAAAAAAAB0AAAHwAIAAAACAzhlgY+xpMIBACiATRnRACCDCQxsgAYmAA/fIgOZmLE8ZuXOCjlwBHY6AewQAAAAEAAAAAAEAAAgAAAAAAgAAAAAAAAAA==

> <PUBCHEM_IUPAC_OPENEYE_NAME>
1-[[1-[4-[3-(2-fluoroethoxy)propoxy]phenyl]triazol-4-yl]methyl]-4-(2-methoxyphenyl)piperazine

> <PUBCHEM_IUPAC_CAS_NAME>
1-[[1-[4-[3-(2-fluoroethoxy)propoxy]phenyl]-4-triazolyl]methyl]-4-(2-methoxyphenyl)piperazine

> <PUBCHEM_IUPAC_NAME_MARKUP>
1-[[1-[4-[3-(2-fluoroethoxy)propoxy]phenyl]triazol-4-yl]methyl]-4-(2-methoxyphenyl)piperazine

> <PUBCHEM_IUPAC_NAME>
1-[[1-[4-[3-(2-fluoroethoxy)propoxy]phenyl]triazol-4-yl]methyl]-4-(2-methoxyphenyl)piperazine

> <PUBCHEM_IUPAC_SYSTEMATIC_NAME>
1-[[1-[4-[3-(2-fluoranylethoxy)propoxy]phenyl]-1,2,3-triazol-4-yl]methyl]-4-(2-methoxyphenyl)piperazine

> <PUBCHEM_IUPAC_TRADITIONAL_NAME>
1-[[1-[4-[3-(2-fluoroethoxy)propoxy]phenyl]triazol-4-yl]methyl]-4-(2-methoxyphenyl)piperazine

> <PUBCHEM_IUPAC_INCHI>
InChI=1S/C25H32FN5O3/c1-32-25-6-3-2-5-24(25)30-14-12-29(13-15-30)19-21-20-31(28-27-21)22-7-9-23(10-8-22)34-17-4-16-33-18-11-26/h2-3,5-10,20H,4,11-19H2,1H3

> <PUBCHEM_IUPAC_INCHIKEY>
GVZVJCKGJVWISH-UHFFFAOYSA-N

> <PUBCHEM_XLOGP3_AA>
3.3

> <PUBCHEM_EXACT_MASS>
469.24891806

> <PUBCHEM_MOLECULAR_FORMULA>
C25H32FN5O3

> <PUBCHEM_MOLECULAR_WEIGHT>
469.6

> <PUBCHEM_OPENEYE_CAN_SMILES>
COC1=CC=CC=C1N2CCN(CC2)CC3=CN(N=N3)C4=CC=C(C=C4)OCCCOCCF

> <PUBCHEM_OPENEYE_ISO_SMILES>
COC1=CC=CC=C1N2CCN(CC2)CC3=CN(N=N3)C4=CC=C(C=C4)OCCCOCCF

> <PUBCHEM_CACTVS_TPSA>
64.9

> <PUBCHEM_MONOISOTOPIC_WEIGHT>
469.24891806

> <PUBCHEM_TOTAL_CHARGE>
0

> <PUBCHEM_HEAVY_ATOM_COUNT>
34

> <PUBCHEM_ATOM_DEF_STEREO_COUNT>
0

> <PUBCHEM_ATOM_UDEF_STEREO_COUNT>
0

> <PUBCHEM_BOND_DEF_STEREO_COUNT>
0

> <PUBCHEM_BOND_UDEF_STEREO_COUNT>
0

> <PUBCHEM_ISOTOPIC_ATOM_COUNT>
0

> <PUBCHEM_COMPONENT_COUNT>
1

> <PUBCHEM_CACTVS_TAUTO_COUNT>
-1

> <PUBCHEM_COORDINATE_TYPE>
1
5
255

> <PUBCHEM_BONDANNOTATIONS>
15  17  8
15  18  8
16  19  8
17  20  8
18  21  8
20  22  8
21  22  8
23  25  8
23  26  8
25  28  8
26  29  8
27  28  8
27  29  8
7  19  8
7  9  8
8  16  8
8  9  8

$$$$
