90644071
  -OEChem-09292322342D

 51 54  0     1  0  0  0  0  0999 V2000
   13.0952   -3.3162    0.0000 Cl  0  0  0  0  0  0  0  0  0  0  0  0
    4.6783    1.5115    0.0000 O   0  0  0  0  0  0  0  0  0  0  0  0
    8.2619    0.5842    0.0000 N   0  0  3  0  0  0  0  0  0  0  0  0
    9.7902   -1.0630    0.0000 N   0  0  3  0  0  0  0  0  0  0  0  0
    7.6986   -0.2420    0.0000 C   0  0  0  0  0  0  0  0  0  0  0  0
    9.2591    0.6589    0.0000 C   0  0  0  0  0  0  0  0  0  0  0  0
    7.9933   -1.1976    0.0000 C   0  0  0  0  0  0  0  0  0  0  0  0
    9.9393   -0.0741    0.0000 C   0  0  0  0  0  0  0  0  0  0  0  0
    8.9242   -1.5630    0.0000 C   0  0  0  0  0  0  0  0  0  0  0  0
    7.7619    1.4502    0.0000 C   0  0  0  0  0  0  0  0  0  0  0  0
    6.7619    1.4502    0.0000 C   0  0  0  0  0  0  0  0  0  0  0  0
    6.2619    2.3162    0.0000 C   0  0  0  0  0  0  0  0  0  0  0  0
   10.6165   -1.6263    0.0000 C   0  0  0  0  0  0  0  0  0  0  0  0
    5.2619    2.3162    0.0000 C   0  0  0  0  0  0  0  0  0  0  0  0
   11.5174   -1.1924    0.0000 C   0  0  0  0  0  0  0  0  0  0  0  0
   10.5417   -2.6235    0.0000 C   0  0  0  0  0  0  0  0  0  0  0  0
    4.6783    3.1210    0.0000 C   0  0  0  0  0  0  0  0  0  0  0  0
    3.7320    2.8162    0.0000 C   0  0  0  0  0  0  0  0  0  0  0  0
    3.7320    1.8162    0.0000 C   0  0  0  0  0  0  0  0  0  0  0  0
   12.3437   -1.7557    0.0000 C   0  0  0  0  0  0  0  0  0  0  0  0
   11.3680   -3.1868    0.0000 C   0  0  0  0  0  0  0  0  0  0  0  0
   12.2689   -2.7529    0.0000 C   0  0  0  0  0  0  0  0  0  0  0  0
    2.8660    3.3162    0.0000 C   0  0  0  0  0  0  0  0  0  0  0  0
    2.8660    1.3162    0.0000 C   0  0  0  0  0  0  0  0  0  0  0  0
    2.0000    2.8162    0.0000 C   0  0  0  0  0  0  0  0  0  0  0  0
    2.0000    1.8162    0.0000 C   0  0  0  0  0  0  0  0  0  0  0  0
    7.2768    0.2124    0.0000 H   0  0  0  0  0  0  0  0  0  0  0  0
    7.1616   -0.5520    0.0000 H   0  0  0  0  0  0  0  0  0  0  0  0
    9.7960    0.9689    0.0000 H   0  0  0  0  0  0  0  0  0  0  0  0
    9.0763    1.2514    0.0000 H   0  0  0  0  0  0  0  0  0  0  0  0
    7.3750   -1.2439    0.0000 H   0  0  0  0  0  0  0  0  0  0  0  0
    7.9009   -1.8107    0.0000 H   0  0  0  0  0  0  0  0  0  0  0  0
   10.5164   -0.3006    0.0000 H   0  0  0  0  0  0  0  0  0  0  0  0
   10.2885    0.4381    0.0000 H   0  0  0  0  0  0  0  0  0  0  0  0
    8.5749   -2.0752    0.0000 H   0  0  0  0  0  0  0  0  0  0  0  0
    9.3459   -2.0175    0.0000 H   0  0  0  0  0  0  0  0  0  0  0  0
    8.3445    1.6623    0.0000 H   0  0  0  0  0  0  0  0  0  0  0  0
    7.6542    2.0608    0.0000 H   0  0  0  0  0  0  0  0  0  0  0  0
    6.1793    1.2382    0.0000 H   0  0  0  0  0  0  0  0  0  0  0  0
    6.8695    0.8396    0.0000 H   0  0  0  0  0  0  0  0  0  0  0  0
    6.8445    2.5283    0.0000 H   0  0  0  0  0  0  0  0  0  0  0  0
    6.1542    2.9268    0.0000 H   0  0  0  0  0  0  0  0  0  0  0  0
   11.5638   -0.5741    0.0000 H   0  0  0  0  0  0  0  0  0  0  0  0
    9.9831   -2.8925    0.0000 H   0  0  0  0  0  0  0  0  0  0  0  0
    4.8709    3.7103    0.0000 H   0  0  0  0  0  0  0  0  0  0  0  0
   12.9023   -1.4867    0.0000 H   0  0  0  0  0  0  0  0  0  0  0  0
   11.3216   -3.8051    0.0000 H   0  0  0  0  0  0  0  0  0  0  0  0
    2.8660    3.9362    0.0000 H   0  0  0  0  0  0  0  0  0  0  0  0
    2.8660    0.6962    0.0000 H   0  0  0  0  0  0  0  0  0  0  0  0
    1.4631    3.1262    0.0000 H   0  0  0  0  0  0  0  0  0  0  0  0
    1.4631    1.5062    0.0000 H   0  0  0  0  0  0  0  0  0  0  0  0
  1 22  1  0  0  0  0
  2 14  1  0  0  0  0
  2 19  1  0  0  0  0
  3  5  1  0  0  0  0
  3  6  1  0  0  0  0
  3 10  1  0  0  0  0
  4  8  1  0  0  0  0
  4  9  1  0  0  0  0
  4 13  1  0  0  0  0
  5  7  1  0  0  0  0
  5 27  1  0  0  0  0
  5 28  1  0  0  0  0
  6  8  1  0  0  0  0
  6 29  1  0  0  0  0
  6 30  1  0  0  0  0
  7  9  1  0  0  0  0
  7 31  1  0  0  0  0
  7 32  1  0  0  0  0
  8 33  1  0  0  0  0
  8 34  1  0  0  0  0
  9 35  1  0  0  0  0
  9 36  1  0  0  0  0
 10 11  1  0  0  0  0
 10 37  1  0  0  0  0
 10 38  1  0  0  0  0
 11 12  1  0  0  0  0
 11 39  1  0  0  0  0
 11 40  1  0  0  0  0
 12 14  1  0  0  0  0
 12 41  1  0  0  0  0
 12 42  1  0  0  0  0
 13 15  2  0  0  0  0
 13 16  1  0  0  0  0
 14 17  2  0  0  0  0
 15 20  1  0  0  0  0
 15 43  1  0  0  0  0
 16 21  2  0  0  0  0
 16 44  1  0  0  0  0
 17 18  1  0  0  0  0
 17 45  1  0  0  0  0
 18 19  1  0  0  0  0
 18 23  2  0  0  0  0
 19 24  2  0  0  0  0
 20 22  2  0  0  0  0
 20 46  1  0  0  0  0
 21 22  1  0  0  0  0
 21 47  1  0  0  0  0
 23 25  1  0  0  0  0
 23 48  1  0  0  0  0
 24 26  1  0  0  0  0
 24 49  1  0  0  0  0
 25 26  2  0  0  0  0
 25 50  1  0  0  0  0
 26 51  1  0  0  0  0
M  END
> <PUBCHEM_COMPOUND_CID>
90644071

> <PUBCHEM_COMPOUND_CANONICALIZED>
1

> <PUBCHEM_CACTVS_COMPLEXITY>
426

> <PUBCHEM_CACTVS_HBOND_ACCEPTOR>
3

> <PUBCHEM_CACTVS_HBOND_DONOR>
0

> <PUBCHEM_CACTVS_ROTATABLE_BOND>
5

> <PUBCHEM_CACTVS_SUBSKEYS>
AAADceB7IAAEAAAAAAAAAAAAAAAAASAAAAAwYAAABYAAAEgB9AAAHgIAAAAADA7BmCQwxsMABECIAqRSQACCCAAlJwAIiAEObsgMZjLF95uWOSjkwBHI6Ye8yOCOAABAAAAIAAAAAIAAABAAAAAAAAAAAA==

> <PUBCHEM_IUPAC_OPENEYE_NAME>
1-[3-(benzofuran-2-yl)propyl]-4-(4-chlorophenyl)-1,4-diazepane

> <PUBCHEM_IUPAC_CAS_NAME>
1-[3-(2-benzofuranyl)propyl]-4-(4-chlorophenyl)-1,4-diazepane

> <PUBCHEM_IUPAC_NAME_MARKUP>
1-[3-(1-benzofuran-2-yl)propyl]-4-(4-chlorophenyl)-1,4-diazepane

> <PUBCHEM_IUPAC_NAME>
1-[3-(1-benzofuran-2-yl)propyl]-4-(4-chlorophenyl)-1,4-diazepane

> <PUBCHEM_IUPAC_SYSTEMATIC_NAME>
1-[3-(1-benzofuran-2-yl)propyl]-4-(4-chlorophenyl)-1,4-diazepane

> <PUBCHEM_IUPAC_TRADITIONAL_NAME>
1-[3-(benzofuran-2-yl)propyl]-4-(4-chlorophenyl)-1,4-diazepane

> <PUBCHEM_IUPAC_INCHI>
InChI=1S/C22H25ClN2O/c23-19-8-10-20(11-9-19)25-14-4-13-24(15-16-25)12-3-6-21-17-18-5-1-2-7-22(18)26-21/h1-2,5,7-11,17H,3-4,6,12-16H2

> <PUBCHEM_IUPAC_INCHIKEY>
MKNOKGDTUIIQRL-UHFFFAOYSA-N

> <PUBCHEM_XLOGP3_AA>
5.6

> <PUBCHEM_EXACT_MASS>
368.1655411

> <PUBCHEM_MOLECULAR_FORMULA>
C22H25ClN2O

> <PUBCHEM_MOLECULAR_WEIGHT>
368.9

> <PUBCHEM_OPENEYE_CAN_SMILES>
C1CN(CCN(C1)C2=CC=C(C=C2)Cl)CCCC3=CC4=CC=CC=C4O3

> <PUBCHEM_OPENEYE_ISO_SMILES>
C1CN(CCN(C1)C2=CC=C(C=C2)Cl)CCCC3=CC4=CC=CC=C4O3

> <PUBCHEM_CACTVS_TPSA>
19.6

> <PUBCHEM_MONOISOTOPIC_WEIGHT>
368.1655411

> <PUBCHEM_TOTAL_CHARGE>
0

> <PUBCHEM_HEAVY_ATOM_COUNT>
26

> <PUBCHEM_ATOM_DEF_STEREO_COUNT>
0

> <PUBCHEM_ATOM_UDEF_STEREO_COUNT>
0

> <PUBCHEM_BOND_DEF_STEREO_COUNT>
0

> <PUBCHEM_BOND_UDEF_STEREO_COUNT>
0

> <PUBCHEM_ISOTOPIC_ATOM_COUNT>
0

> <PUBCHEM_COMPONENT_COUNT>
1

> <PUBCHEM_CACTVS_TAUTO_COUNT>
-1

> <PUBCHEM_COORDINATE_TYPE>
1
5
255

> <PUBCHEM_BONDANNOTATIONS>
13  15  8
13  16  8
14  17  8
15  20  8
16  21  8
17  18  8
18  19  8
18  23  8
19  24  8
2  14  8
2  19  8
20  22  8
21  22  8
23  25  8
24  26  8
25  26  8

$$$$
