72700557
  -OEChem-09292322382D

 64 68  0     0  0  0  0  0  0999 V2000
    4.6783   -6.1412    0.0000 S   0  0  0  0  0  0  0  0  0  0  0  0
    9.7884    2.7406    0.0000 O   0  0  0  0  0  0  0  0  0  0  0  0
    5.6103   -1.6802    0.0000 N   0  0  0  0  0  0  0  0  0  0  0  0
    8.1421    3.2787    0.0000 N   0  0  0  0  0  0  0  0  0  0  0  0
    4.9889   -3.5812    0.0000 N   0  0  0  0  0  0  0  0  0  0  0  0
    5.2619   -5.3364    0.0000 N   0  0  0  0  0  0  0  0  0  0  0  0
    7.2101    0.4271    0.0000 C   0  0  0  0  0  0  0  0  0  0  0  0
    6.5422    1.1714    0.0000 C   0  0  0  0  0  0  0  0  0  0  0  0
    8.1886    0.6333    0.0000 C   0  0  0  0  0  0  0  0  0  0  0  0
    7.8314    2.3282    0.0000 C   0  0  0  0  0  0  0  0  0  0  0  0
    6.8529    2.1219    0.0000 C   0  0  0  0  0  0  0  0  0  0  0  0
    8.4993    1.5838    0.0000 C   0  0  0  0  0  0  0  0  0  0  0  0
    6.8994   -0.5234    0.0000 C   0  0  0  0  0  0  0  0  0  0  0  0
    5.9209   -0.7296    0.0000 C   0  0  0  0  0  0  0  0  0  0  0  0
    4.6318   -1.8864    0.0000 C   0  0  0  0  0  0  0  0  0  0  0  0
    6.2781   -2.4245    0.0000 C   0  0  0  0  0  0  0  0  0  0  0  0
    4.3211   -2.8369    0.0000 C   0  0  0  0  0  0  0  0  0  0  0  0
    5.9674   -3.3750    0.0000 C   0  0  0  0  0  0  0  0  0  0  0  0
    9.1206    3.4849    0.0000 C   0  0  0  0  0  0  0  0  0  0  0  0
    4.6783   -4.5317    0.0000 C   0  0  0  0  0  0  0  0  0  0  0  0
    3.7320   -4.8364    0.0000 C   0  0  0  0  0  0  0  0  0  0  0  0
    9.4312    4.4354    0.0000 C   0  0  0  0  0  0  0  0  0  0  0  0
    3.7320   -5.8364    0.0000 C   0  0  0  0  0  0  0  0  0  0  0  0
    2.8660   -4.3364    0.0000 C   0  0  0  0  0  0  0  0  0  0  0  0
   10.4097    4.6416    0.0000 C   0  0  0  0  0  0  0  0  0  0  0  0
    8.7634    5.1797    0.0000 C   0  0  0  0  0  0  0  0  0  0  0  0
    2.8660   -6.3364    0.0000 C   0  0  0  0  0  0  0  0  0  0  0  0
    2.0000   -4.8364    0.0000 C   0  0  0  0  0  0  0  0  0  0  0  0
    2.0000   -5.8364    0.0000 C   0  0  0  0  0  0  0  0  0  0  0  0
   10.7204    5.5921    0.0000 C   0  0  0  0  0  0  0  0  0  0  0  0
    9.0741    6.1302    0.0000 C   0  0  0  0  0  0  0  0  0  0  0  0
   10.0526    6.3364    0.0000 C   0  0  0  0  0  0  0  0  0  0  0  0
    7.6242   -0.0344    0.0000 H   0  0  0  0  0  0  0  0  0  0  0  0
    5.9953    1.4634    0.0000 H   0  0  0  0  0  0  0  0  0  0  0  0
    6.1597    0.6835    0.0000 H   0  0  0  0  0  0  0  0  0  0  0  0
    8.2092    0.0137    0.0000 H   0  0  0  0  0  0  0  0  0  0  0  0
    8.8024    0.5460    0.0000 H   0  0  0  0  0  0  0  0  0  0  0  0
    8.4381    2.4560    0.0000 H   0  0  0  0  0  0  0  0  0  0  0  0
    6.8323    2.7416    0.0000 H   0  0  0  0  0  0  0  0  0  0  0  0
    6.2391    2.2093    0.0000 H   0  0  0  0  0  0  0  0  0  0  0  0
    9.0462    1.2918    0.0000 H   0  0  0  0  0  0  0  0  0  0  0  0
    8.8818    2.0718    0.0000 H   0  0  0  0  0  0  0  0  0  0  0  0
    6.9200   -1.1431    0.0000 H   0  0  0  0  0  0  0  0  0  0  0  0
    7.5132   -0.6108    0.0000 H   0  0  0  0  0  0  0  0  0  0  0  0
    5.9004   -0.1100    0.0000 H   0  0  0  0  0  0  0  0  0  0  0  0
    5.3071   -0.6423    0.0000 H   0  0  0  0  0  0  0  0  0  0  0  0
    4.6112   -1.2667    0.0000 H   0  0  0  0  0  0  0  0  0  0  0  0
    4.0179   -1.7990    0.0000 H   0  0  0  0  0  0  0  0  0  0  0  0
    6.8250   -2.7165    0.0000 H   0  0  0  0  0  0  0  0  0  0  0  0
    6.6607   -1.9366    0.0000 H   0  0  0  0  0  0  0  0  0  0  0  0
    7.7280    3.7401    0.0000 H   0  0  0  0  0  0  0  0  0  0  0  0
    3.7742   -2.5449    0.0000 H   0  0  0  0  0  0  0  0  0  0  0  0
    3.9385   -3.3248    0.0000 H   0  0  0  0  0  0  0  0  0  0  0  0
    5.9880   -3.9946    0.0000 H   0  0  0  0  0  0  0  0  0  0  0  0
    6.5812   -3.4623    0.0000 H   0  0  0  0  0  0  0  0  0  0  0  0
    2.8660   -3.7164    0.0000 H   0  0  0  0  0  0  0  0  0  0  0  0
   10.8238    4.1802    0.0000 H   0  0  0  0  0  0  0  0  0  0  0  0
    8.1567    5.0518    0.0000 H   0  0  0  0  0  0  0  0  0  0  0  0
    2.8660   -6.9564    0.0000 H   0  0  0  0  0  0  0  0  0  0  0  0
    1.4631   -4.5264    0.0000 H   0  0  0  0  0  0  0  0  0  0  0  0
    1.4631   -6.1464    0.0000 H   0  0  0  0  0  0  0  0  0  0  0  0
   11.3271    5.7200    0.0000 H   0  0  0  0  0  0  0  0  0  0  0  0
    8.6600    6.5917    0.0000 H   0  0  0  0  0  0  0  0  0  0  0  0
   10.2452    6.9258    0.0000 H   0  0  0  0  0  0  0  0  0  0  0  0
  1  6  1  0  0  0  0
  1 23  1  0  0  0  0
  2 19  2  0  0  0  0
  3 14  1  0  0  0  0
  3 15  1  0  0  0  0
  3 16  1  0  0  0  0
  4 10  1  0  0  0  0
  4 19  1  0  0  0  0
  4 51  1  0  0  0  0
  5 17  1  0  0  0  0
  5 18  1  0  0  0  0
  5 20  1  0  0  0  0
  6 20  2  0  0  0  0
  7  8  1  0  0  0  0
  7  9  1  0  0  0  0
  7 13  1  0  0  0  0
  7 33  1  0  0  0  0
  8 11  1  0  0  0  0
  8 34  1  0  0  0  0
  8 35  1  0  0  0  0
  9 12  1  0  0  0  0
  9 36  1  0  0  0  0
  9 37  1  0  0  0  0
 10 11  1  0  0  0  0
 10 12  1  0  0  0  0
 10 38  1  0  0  0  0
 11 39  1  0  0  0  0
 11 40  1  0  0  0  0
 12 41  1  0  0  0  0
 12 42  1  0  0  0  0
 13 14  1  0  0  0  0
 13 43  1  0  0  0  0
 13 44  1  0  0  0  0
 14 45  1  0  0  0  0
 14 46  1  0  0  0  0
 15 17  1  0  0  0  0
 15 47  1  0  0  0  0
 15 48  1  0  0  0  0
 16 18  1  0  0  0  0
 16 49  1  0  0  0  0
 16 50  1  0  0  0  0
 17 52  1  0  0  0  0
 17 53  1  0  0  0  0
 18 54  1  0  0  0  0
 18 55  1  0  0  0  0
 19 22  1  0  0  0  0
 20 21  1  0  0  0  0
 21 23  1  0  0  0  0
 21 24  2  0  0  0  0
 22 25  2  0  0  0  0
 22 26  1  0  0  0  0
 23 27  2  0  0  0  0
 24 28  1  0  0  0  0
 24 56  1  0  0  0  0
 25 30  1  0  0  0  0
 25 57  1  0  0  0  0
 26 31  2  0  0  0  0
 26 58  1  0  0  0  0
 27 29  1  0  0  0  0
 27 59  1  0  0  0  0
 28 29  2  0  0  0  0
 28 60  1  0  0  0  0
 29 61  1  0  0  0  0
 30 32  2  0  0  0  0
 30 62  1  0  0  0  0
 31 32  1  0  0  0  0
 31 63  1  0  0  0  0
 32 64  1  0  0  0  0
M  END
> <PUBCHEM_COMPOUND_CID>
72700557

> <PUBCHEM_COMPOUND_CANONICALIZED>
1

> <PUBCHEM_CACTVS_COMPLEXITY>
597

> <PUBCHEM_CACTVS_HBOND_ACCEPTOR>
5

> <PUBCHEM_CACTVS_HBOND_DONOR>
1

> <PUBCHEM_CACTVS_ROTATABLE_BOND>
6

> <PUBCHEM_CACTVS_SUBSKEYS>
AAADcfB7oABAAAAAAAAAAAAAAAAAAWAAAAA8YMEAAAAAAFgB9AAAHgQQQAAADSjB2gQxsdPAAACsAiNycACDABAlAABJmLkoRNiIYLLAnZGUIQxglgLIyYcYiICOAAAAAAAEAAAQAAAAAAgAAAAAAAAAAA==

> <PUBCHEM_IUPAC_OPENEYE_NAME>
N-[4-[2-[4-(1,2-benzothiazol-3-yl)piperazin-1-yl]ethyl]cyclohexyl]benzamide

> <PUBCHEM_IUPAC_CAS_NAME>
N-[4-[2-[4-(1,2-benzothiazol-3-yl)-1-piperazinyl]ethyl]cyclohexyl]benzamide

> <PUBCHEM_IUPAC_NAME_MARKUP>
<I>N</I>-[4-[2-[4-(1,2-benzothiazol-3-yl)piperazin-1-yl]ethyl]cyclohexyl]benzamide

> <PUBCHEM_IUPAC_NAME>
N-[4-[2-[4-(1,2-benzothiazol-3-yl)piperazin-1-yl]ethyl]cyclohexyl]benzamide

> <PUBCHEM_IUPAC_SYSTEMATIC_NAME>
N-[4-[2-[4-(1,2-benzothiazol-3-yl)piperazin-1-yl]ethyl]cyclohexyl]benzamide

> <PUBCHEM_IUPAC_TRADITIONAL_NAME>
N-[4-[2-[4-(1,2-benzothiazol-3-yl)piperazino]ethyl]cyclohexyl]benzamide

> <PUBCHEM_IUPAC_INCHI>
InChI=1S/C26H32N4OS/c31-26(21-6-2-1-3-7-21)27-22-12-10-20(11-13-22)14-15-29-16-18-30(19-17-29)25-23-8-4-5-9-24(23)32-28-25/h1-9,20,22H,10-19H2,(H,27,31)

> <PUBCHEM_IUPAC_INCHIKEY>
VZKXQURASTWIAW-UHFFFAOYSA-N

> <PUBCHEM_XLOGP3_AA>
5.4

> <PUBCHEM_EXACT_MASS>
448.22968283

> <PUBCHEM_MOLECULAR_FORMULA>
C26H32N4OS

> <PUBCHEM_MOLECULAR_WEIGHT>
448.6

> <PUBCHEM_OPENEYE_CAN_SMILES>
C1CC(CCC1CCN2CCN(CC2)C3=NSC4=CC=CC=C43)NC(=O)C5=CC=CC=C5

> <PUBCHEM_OPENEYE_ISO_SMILES>
C1CC(CCC1CCN2CCN(CC2)C3=NSC4=CC=CC=C43)NC(=O)C5=CC=CC=C5

> <PUBCHEM_CACTVS_TPSA>
76.7

> <PUBCHEM_MONOISOTOPIC_WEIGHT>
448.22968283

> <PUBCHEM_TOTAL_CHARGE>
0

> <PUBCHEM_HEAVY_ATOM_COUNT>
32

> <PUBCHEM_ATOM_DEF_STEREO_COUNT>
0

> <PUBCHEM_ATOM_UDEF_STEREO_COUNT>
0

> <PUBCHEM_BOND_DEF_STEREO_COUNT>
0

> <PUBCHEM_BOND_UDEF_STEREO_COUNT>
0

> <PUBCHEM_ISOTOPIC_ATOM_COUNT>
0

> <PUBCHEM_COMPONENT_COUNT>
1

> <PUBCHEM_CACTVS_TAUTO_COUNT>
-1

> <PUBCHEM_COORDINATE_TYPE>
1
5
255

> <PUBCHEM_BONDANNOTATIONS>
1  23  8
1  6  8
20  21  8
21  23  8
21  24  8
22  25  8
22  26  8
23  27  8
24  28  8
25  30  8
26  31  8
27  29  8
28  29  8
30  32  8
31  32  8
6  20  8

$$$$
