156010592
  -OEChem-09292322422D

 52 55  0     1  0  0  0  0  0999 V2000
    6.3744    1.1224    0.0000 O   0  0  0  0  0  0  0  0  0  0  0  0
    8.1403    2.1602    0.0000 O   0  0  0  0  0  0  0  0  0  0  0  0
    2.8602   -1.8816    0.0000 O   0  0  0  0  0  0  0  0  0  0  0  0
    8.9864   -2.4060    0.0000 N   0  0  3  0  0  0  0  0  0  0  0  0
    3.7320   -0.3849    0.0000 N   0  0  0  0  0  0  0  0  0  0  0  0
    8.1282   -1.9091    0.0000 C   0  0  3  0  0  0  0  0  0  0  0  0
    8.1282   -0.9091    0.0000 C   0  0  0  0  0  0  0  0  0  0  0  0
    7.2622   -2.4091    0.0000 C   0  0  0  0  0  0  0  0  0  0  0  0
    9.0382   -0.4022    0.0000 C   0  0  0  0  0  0  0  0  0  0  0  0
    9.8519   -1.9218    0.0000 C   0  0  0  0  0  0  0  0  0  0  0  0
    7.2622   -0.4091    0.0000 C   0  0  0  0  0  0  0  0  0  0  0  0
    9.8775   -0.9305    0.0000 C   0  0  0  0  0  0  0  0  0  0  0  0
    6.3961   -1.9091    0.0000 C   0  0  0  0  0  0  0  0  0  0  0  0
    6.3961   -0.9091    0.0000 C   0  0  0  0  0  0  0  0  0  0  0  0
    7.2461    0.6324    0.0000 C   0  0  0  0  0  0  0  0  0  0  0  0
    9.0462    0.6394    0.0000 C   0  0  0  0  0  0  0  0  0  0  0  0
    8.9790   -3.4060    0.0000 C   0  0  0  0  0  0  0  0  0  0  0  0
    8.1441    1.1602    0.0000 C   0  0  0  0  0  0  0  0  0  0  0  0
    5.5022   -2.4437    0.0000 C   0  0  0  0  0  0  0  0  0  0  0  0
    5.5022   -0.3744    0.0000 C   0  0  0  0  0  0  0  0  0  0  0  0
    4.5961   -0.8883    0.0000 C   0  0  0  0  0  0  0  0  0  0  0  0
    4.5961   -1.9299    0.0000 C   0  0  0  0  0  0  0  0  0  0  0  0
    6.3628    2.1223    0.0000 C   0  0  0  0  0  0  0  0  0  0  0  0
    9.0044    2.6635    0.0000 C   0  0  0  0  0  0  0  0  0  0  0  0
    2.8641   -0.8816    0.0000 C   0  0  0  0  0  0  0  0  0  0  0  0
    5.4910    2.6123    0.0000 C   0  0  0  0  0  0  0  0  0  0  0  0
    2.0000   -0.3783    0.0000 C   0  0  0  0  0  0  0  0  0  0  0  0
    4.6193    3.1022    0.0000 C   0  0  0  0  0  0  0  0  0  0  0  0
    8.1278   -2.5291    0.0000 H   0  0  0  0  0  0  0  0  0  0  0  0
    6.8636   -2.8840    0.0000 H   0  0  0  0  0  0  0  0  0  0  0  0
    7.6607   -2.8840    0.0000 H   0  0  0  0  0  0  0  0  0  0  0  0
   10.0536   -2.5081    0.0000 H   0  0  0  0  0  0  0  0  0  0  0  0
   10.4647   -1.8275    0.0000 H   0  0  0  0  0  0  0  0  0  0  0  0
   10.4846   -1.0563    0.0000 H   0  0  0  0  0  0  0  0  0  0  0  0
   10.1093   -0.3554    0.0000 H   0  0  0  0  0  0  0  0  0  0  0  0
    9.5844    0.9473    0.0000 H   0  0  0  0  0  0  0  0  0  0  0  0
    8.3590   -3.4014    0.0000 H   0  0  0  0  0  0  0  0  0  0  0  0
    8.9744   -4.0260    0.0000 H   0  0  0  0  0  0  0  0  0  0  0  0
    9.5990   -3.4106    0.0000 H   0  0  0  0  0  0  0  0  0  0  0  0
    5.5094   -3.0637    0.0000 H   0  0  0  0  0  0  0  0  0  0  0  0
    5.5094    0.2455    0.0000 H   0  0  0  0  0  0  0  0  0  0  0  0
    4.0604   -2.2420    0.0000 H   0  0  0  0  0  0  0  0  0  0  0  0
    3.7344    0.2351    0.0000 H   0  0  0  0  0  0  0  0  0  0  0  0
    6.9746    2.0217    0.0000 H   0  0  0  0  0  0  0  0  0  0  0  0
    6.5681    2.7073    0.0000 H   0  0  0  0  0  0  0  0  0  0  0  0
    9.3164    2.1278    0.0000 H   0  0  0  0  0  0  0  0  0  0  0  0
    9.5401    2.9756    0.0000 H   0  0  0  0  0  0  0  0  0  0  0  0
    8.6923    3.1992    0.0000 H   0  0  0  0  0  0  0  0  0  0  0  0
    2.3121    0.1575    0.0000 H   0  0  0  0  0  0  0  0  0  0  0  0
    1.4643   -0.0662    0.0000 H   0  0  0  0  0  0  0  0  0  0  0  0
    1.6879   -0.9140    0.0000 H   0  0  0  0  0  0  0  0  0  0  0  0
    4.0788    3.4060    0.0000 H   0  0  0  0  0  0  0  0  0  0  0  0
  1 15  1  0  0  0  0
  1 23  1  0  0  0  0
  2 18  1  0  0  0  0
  2 24  1  0  0  0  0
  3 25  2  0  0  0  0
  4  6  1  0  0  0  0
  4 10  1  0  0  0  0
  4 17  1  0  0  0  0
  5 21  1  0  0  0  0
  5 25  1  0  0  0  0
  5 43  1  0  0  0  0
  6  7  1  0  0  0  0
  6  8  1  0  0  0  0
  6 29  1  0  0  0  0
  7  9  1  0  0  0  0
  7 11  2  0  0  0  0
  8 13  1  0  0  0  0
  8 30  1  0  0  0  0
  8 31  1  0  0  0  0
  9 12  1  0  0  0  0
  9 16  2  0  0  0  0
 10 12  1  0  0  0  0
 10 32  1  0  0  0  0
 10 33  1  0  0  0  0
 11 14  1  0  0  0  0
 11 15  1  0  0  0  0
 12 34  1  0  0  0  0
 12 35  1  0  0  0  0
 13 14  2  0  0  0  0
 13 19  1  0  0  0  0
 14 20  1  0  0  0  0
 15 18  2  0  0  0  0
 16 18  1  0  0  0  0
 16 36  1  0  0  0  0
 17 37  1  0  0  0  0
 17 38  1  0  0  0  0
 17 39  1  0  0  0  0
 19 22  2  0  0  0  0
 19 40  1  0  0  0  0
 20 21  2  0  0  0  0
 20 41  1  0  0  0  0
 21 22  1  0  0  0  0
 22 42  1  0  0  0  0
 23 26  1  0  0  0  0
 23 44  1  0  0  0  0
 23 45  1  0  0  0  0
 24 46  1  0  0  0  0
 24 47  1  0  0  0  0
 24 48  1  0  0  0  0
 25 27  1  0  0  0  0
 26 28  3  0  0  0  0
 27 49  1  0  0  0  0
 27 50  1  0  0  0  0
 27 51  1  0  0  0  0
 28 52  1  0  0  0  0
M  END
> <PUBCHEM_COMPOUND_CID>
156010592

> <PUBCHEM_COMPOUND_CANONICALIZED>
1

> <PUBCHEM_CACTVS_COMPLEXITY>
629

> <PUBCHEM_CACTVS_HBOND_ACCEPTOR>
4

> <PUBCHEM_CACTVS_HBOND_DONOR>
1

> <PUBCHEM_CACTVS_ROTATABLE_BOND>
4

> <PUBCHEM_CACTVS_SUBSKEYS>
AAADceB7MAAAAAAAAAAAAAAAAAAAAAAAAAA8YMEAAAAAAADxQAAAHgAQAAAADCzhmAYyxoPABADIGiVSUACCCAAhIgAIiAAO7IgNJiLEsZuGOCrk1BHK6Aew0PMOqAADQAAYQADQAAaAADSAAAAAAAAAAA==

> <PUBCHEM_IUPAC_OPENEYE_NAME>
N-(2-methoxy-6-methyl-1-prop-2-ynoxy-5,6,6a,7-tetrahydro-4H-dibenzo[de,g]quinolin-10-yl)acetamide

> <PUBCHEM_IUPAC_CAS_NAME>
N-(2-methoxy-6-methyl-1-prop-2-ynoxy-5,6,6a,7-tetrahydro-4H-dibenzo[de,g]quinolin-10-yl)acetamide

> <PUBCHEM_IUPAC_NAME_MARKUP>
<I>N</I>-(2-methoxy-6-methyl-1-prop-2-ynoxy-5,6,6<I>a</I>,7-tetrahydro-4<I>H</I>-dibenzo[de,g]quinolin-10-yl)acetamide

> <PUBCHEM_IUPAC_NAME>
N-(2-methoxy-6-methyl-1-prop-2-ynoxy-5,6,6a,7-tetrahydro-4H-dibenzo[de,g]quinolin-10-yl)acetamide

> <PUBCHEM_IUPAC_SYSTEMATIC_NAME>
N-(2-methoxy-6-methyl-1-prop-2-ynoxy-5,6,6a,7-tetrahydro-4H-dibenzo[de,g]quinolin-10-yl)ethanamide

> <PUBCHEM_IUPAC_TRADITIONAL_NAME>
N-(2-methoxy-6-methyl-1-propargyloxy-5,6,6a,7-tetrahydro-4H-dibenzo[de,g]quinolin-10-yl)acetamide

> <PUBCHEM_IUPAC_INCHI>
InChI=1S/C23H24N2O3/c1-5-10-28-23-20(27-4)12-16-8-9-25(3)19-11-15-6-7-17(24-14(2)26)13-18(15)22(23)21(16)19/h1,6-7,12-13,19H,8-11H2,2-4H3,(H,24,26)

> <PUBCHEM_IUPAC_INCHIKEY>
SBQXZROAPGSYPJ-UHFFFAOYSA-N

> <PUBCHEM_XLOGP3_AA>
2.7

> <PUBCHEM_EXACT_MASS>
376.17869263

> <PUBCHEM_MOLECULAR_FORMULA>
C23H24N2O3

> <PUBCHEM_MOLECULAR_WEIGHT>
376.4

> <PUBCHEM_OPENEYE_CAN_SMILES>
CC(=O)NC1=CC2=C(CC3C4=C2C(=C(C=C4CCN3C)OC)OCC#C)C=C1

> <PUBCHEM_OPENEYE_ISO_SMILES>
CC(=O)NC1=CC2=C(CC3C4=C2C(=C(C=C4CCN3C)OC)OCC#C)C=C1

> <PUBCHEM_CACTVS_TPSA>
50.8

> <PUBCHEM_MONOISOTOPIC_WEIGHT>
376.17869263

> <PUBCHEM_TOTAL_CHARGE>
0

> <PUBCHEM_HEAVY_ATOM_COUNT>
28

> <PUBCHEM_ATOM_DEF_STEREO_COUNT>
0

> <PUBCHEM_ATOM_UDEF_STEREO_COUNT>
1

> <PUBCHEM_BOND_DEF_STEREO_COUNT>
0

> <PUBCHEM_BOND_UDEF_STEREO_COUNT>
0

> <PUBCHEM_ISOTOPIC_ATOM_COUNT>
0

> <PUBCHEM_COMPONENT_COUNT>
1

> <PUBCHEM_CACTVS_TAUTO_COUNT>
-1

> <PUBCHEM_COORDINATE_TYPE>
1
5
255

> <PUBCHEM_BONDANNOTATIONS>
11  15  8
13  14  8
13  19  8
14  20  8
15  18  8
16  18  8
19  22  8
20  21  8
21  22  8
6  8  3
7  11  8
7  9  8
9  16  8

$$$$
