11133385
  -OEChem-09292322112D

 60 64  0     0  0  0  0  0  0999 V2000
    3.6613   -1.0882    0.0000 O   0  0  0  0  0  0  0  0  0  0  0  0
    7.1254    1.9118    0.0000 N   0  0  0  0  0  0  0  0  0  0  0  0
    8.8575    2.9118    0.0000 N   0  0  0  0  0  0  0  0  0  0  0  0
    5.3934   -1.0882    0.0000 N   0  0  0  0  0  0  0  0  0  0  0  0
    7.1254    2.9118    0.0000 C   0  0  0  0  0  0  0  0  0  0  0  0
    7.9915    1.4118    0.0000 C   0  0  0  0  0  0  0  0  0  0  0  0
    7.9915    3.4118    0.0000 C   0  0  0  0  0  0  0  0  0  0  0  0
    8.8575    1.9118    0.0000 C   0  0  0  0  0  0  0  0  0  0  0  0
    6.2594    1.4118    0.0000 C   0  0  0  0  0  0  0  0  0  0  0  0
    4.5274   -2.5882    0.0000 C   0  0  0  0  0  0  0  0  0  0  0  0
    6.2594    0.4118    0.0000 C   0  0  0  0  0  0  0  0  0  0  0  0
    5.3364   -3.1760    0.0000 C   0  0  0  0  0  0  0  0  0  0  0  0
    3.7183   -3.1760    0.0000 C   0  0  0  0  0  0  0  0  0  0  0  0
    5.3934   -0.0882    0.0000 C   0  0  0  0  0  0  0  0  0  0  0  0
    5.0274   -4.1270    0.0000 C   0  0  0  0  0  0  0  0  0  0  0  0
    4.0274   -4.1270    0.0000 C   0  0  0  0  0  0  0  0  0  0  0  0
    9.7235    3.4118    0.0000 C   0  0  0  0  0  0  0  0  0  0  0  0
    4.5274   -1.5882    0.0000 C   0  0  0  0  0  0  0  0  0  0  0  0
    6.3518   -2.9438    0.0000 C   0  0  0  0  0  0  0  0  0  0  0  0
    2.7029   -2.9438    0.0000 C   0  0  0  0  0  0  0  0  0  0  0  0
    5.7123   -4.9118    0.0000 C   0  0  0  0  0  0  0  0  0  0  0  0
    3.3424   -4.9118    0.0000 C   0  0  0  0  0  0  0  0  0  0  0  0
   10.5895    2.9118    0.0000 C   0  0  0  0  0  0  0  0  0  0  0  0
    9.7235    4.4118    0.0000 C   0  0  0  0  0  0  0  0  0  0  0  0
    7.0547   -3.7124    0.0000 C   0  0  0  0  0  0  0  0  0  0  0  0
    2.0000   -3.7124    0.0000 C   0  0  0  0  0  0  0  0  0  0  0  0
    6.7328   -4.7031    0.0000 C   0  0  0  0  0  0  0  0  0  0  0  0
    2.3219   -4.7031    0.0000 C   0  0  0  0  0  0  0  0  0  0  0  0
   11.4556    3.4118    0.0000 C   0  0  0  0  0  0  0  0  0  0  0  0
   10.5895    4.9118    0.0000 C   0  0  0  0  0  0  0  0  0  0  0  0
   11.4556    4.4118    0.0000 C   0  0  0  0  0  0  0  0  0  0  0  0
    6.9134    3.4944    0.0000 H   0  0  0  0  0  0  0  0  0  0  0  0
    6.5148    2.8041    0.0000 H   0  0  0  0  0  0  0  0  0  0  0  0
    7.5929    0.9368    0.0000 H   0  0  0  0  0  0  0  0  0  0  0  0
    8.3900    0.9368    0.0000 H   0  0  0  0  0  0  0  0  0  0  0  0
    8.3900    3.8867    0.0000 H   0  0  0  0  0  0  0  0  0  0  0  0
    7.5929    3.8867    0.0000 H   0  0  0  0  0  0  0  0  0  0  0  0
    9.0695    1.3292    0.0000 H   0  0  0  0  0  0  0  0  0  0  0  0
    9.4681    2.0194    0.0000 H   0  0  0  0  0  0  0  0  0  0  0  0
    6.0474    1.9944    0.0000 H   0  0  0  0  0  0  0  0  0  0  0  0
    5.6488    1.3041    0.0000 H   0  0  0  0  0  0  0  0  0  0  0  0
    5.0798   -2.3067    0.0000 H   0  0  0  0  0  0  0  0  0  0  0  0
    6.4715   -0.1708    0.0000 H   0  0  0  0  0  0  0  0  0  0  0  0
    6.8700    0.5195    0.0000 H   0  0  0  0  0  0  0  0  0  0  0  0
    5.1813    0.4944    0.0000 H   0  0  0  0  0  0  0  0  0  0  0  0
    4.7828   -0.1959    0.0000 H   0  0  0  0  0  0  0  0  0  0  0  0
    5.9303   -1.3982    0.0000 H   0  0  0  0  0  0  0  0  0  0  0  0
    6.5365   -2.3519    0.0000 H   0  0  0  0  0  0  0  0  0  0  0  0
    2.5182   -2.3519    0.0000 H   0  0  0  0  0  0  0  0  0  0  0  0
    5.5139   -5.4992    0.0000 H   0  0  0  0  0  0  0  0  0  0  0  0
    3.5408   -5.4992    0.0000 H   0  0  0  0  0  0  0  0  0  0  0  0
   10.5895    2.2918    0.0000 H   0  0  0  0  0  0  0  0  0  0  0  0
    9.1866    4.7218    0.0000 H   0  0  0  0  0  0  0  0  0  0  0  0
    7.6607   -3.5812    0.0000 H   0  0  0  0  0  0  0  0  0  0  0  0
    1.3940   -3.5812    0.0000 H   0  0  0  0  0  0  0  0  0  0  0  0
    7.1459   -5.1654    0.0000 H   0  0  0  0  0  0  0  0  0  0  0  0
    1.9088   -5.1654    0.0000 H   0  0  0  0  0  0  0  0  0  0  0  0
   11.9925    3.1018    0.0000 H   0  0  0  0  0  0  0  0  0  0  0  0
   10.5895    5.5318    0.0000 H   0  0  0  0  0  0  0  0  0  0  0  0
   11.9925    4.7218    0.0000 H   0  0  0  0  0  0  0  0  0  0  0  0
  1 18  2  0  0  0  0
  2  5  1  0  0  0  0
  2  6  1  0  0  0  0
  2  9  1  0  0  0  0
  3  7  1  0  0  0  0
  3  8  1  0  0  0  0
  3 17  1  0  0  0  0
  4 14  1  0  0  0  0
  4 18  1  0  0  0  0
  4 47  1  0  0  0  0
  5  7  1  0  0  0  0
  5 32  1  0  0  0  0
  5 33  1  0  0  0  0
  6  8  1  0  0  0  0
  6 34  1  0  0  0  0
  6 35  1  0  0  0  0
  7 36  1  0  0  0  0
  7 37  1  0  0  0  0
  8 38  1  0  0  0  0
  8 39  1  0  0  0  0
  9 11  1  0  0  0  0
  9 40  1  0  0  0  0
  9 41  1  0  0  0  0
 10 12  1  0  0  0  0
 10 13  1  0  0  0  0
 10 18  1  0  0  0  0
 10 42  1  0  0  0  0
 11 14  1  0  0  0  0
 11 43  1  0  0  0  0
 11 44  1  0  0  0  0
 12 15  1  0  0  0  0
 12 19  2  0  0  0  0
 13 16  1  0  0  0  0
 13 20  2  0  0  0  0
 14 45  1  0  0  0  0
 14 46  1  0  0  0  0
 15 16  1  0  0  0  0
 15 21  2  0  0  0  0
 16 22  2  0  0  0  0
 17 23  2  0  0  0  0
 17 24  1  0  0  0  0
 19 25  1  0  0  0  0
 19 48  1  0  0  0  0
 20 26  1  0  0  0  0
 20 49  1  0  0  0  0
 21 27  1  0  0  0  0
 21 50  1  0  0  0  0
 22 28  1  0  0  0  0
 22 51  1  0  0  0  0
 23 29  1  0  0  0  0
 23 52  1  0  0  0  0
 24 30  2  0  0  0  0
 24 53  1  0  0  0  0
 25 27  2  0  0  0  0
 25 54  1  0  0  0  0
 26 28  2  0  0  0  0
 26 55  1  0  0  0  0
 27 56  1  0  0  0  0
 28 57  1  0  0  0  0
 29 31  2  0  0  0  0
 29 58  1  0  0  0  0
 30 31  1  0  0  0  0
 30 59  1  0  0  0  0
 31 60  1  0  0  0  0
M  END
> <PUBCHEM_COMPOUND_CID>
11133385

> <PUBCHEM_COMPOUND_CANONICALIZED>
1

> <PUBCHEM_CACTVS_COMPLEXITY>
559

> <PUBCHEM_CACTVS_HBOND_ACCEPTOR>
3

> <PUBCHEM_CACTVS_HBOND_DONOR>
1

> <PUBCHEM_CACTVS_ROTATABLE_BOND>
6

> <PUBCHEM_CACTVS_SUBSKEYS>
AAADceB7IAAAAAAAAAAAAAAAAAAAAYAAAAA8YMEAAAAAAGABUAAAHgAQAAAADQjBmAQwwIPAAACIAiVSUACCAAAhAgAIiIEIZIgIYDLA1ZGUIAhglgDIyAcYiMCOgAAAAAAQAAAAAAAAACAAAQAACAAAAA==

> <PUBCHEM_IUPAC_OPENEYE_NAME>
N-[3-(4-phenylpiperazin-1-yl)propyl]-9H-fluorene-9-carboxamide

> <PUBCHEM_IUPAC_CAS_NAME>
N-[3-(4-phenyl-1-piperazinyl)propyl]-9H-fluorene-9-carboxamide

> <PUBCHEM_IUPAC_NAME_MARKUP>
<I>N</I>-[3-(4-phenylpiperazin-1-yl)propyl]-9<I>H</I>-fluorene-9-carboxamide

> <PUBCHEM_IUPAC_NAME>
N-[3-(4-phenylpiperazin-1-yl)propyl]-9H-fluorene-9-carboxamide

> <PUBCHEM_IUPAC_SYSTEMATIC_NAME>
N-[3-(4-phenylpiperazin-1-yl)propyl]-9H-fluorene-9-carboxamide

> <PUBCHEM_IUPAC_TRADITIONAL_NAME>
N-[3-(4-phenylpiperazino)propyl]-9H-fluorene-9-carboxamide

> <PUBCHEM_IUPAC_INCHI>
InChI=1S/C27H29N3O/c31-27(26-24-13-6-4-11-22(24)23-12-5-7-14-25(23)26)28-15-8-16-29-17-19-30(20-18-29)21-9-2-1-3-10-21/h1-7,9-14,26H,8,15-20H2,(H,28,31)

> <PUBCHEM_IUPAC_INCHIKEY>
SNZILXJFTMMHEQ-UHFFFAOYSA-N

> <PUBCHEM_XLOGP3_AA>
4.5

> <PUBCHEM_EXACT_MASS>
411.231062557

> <PUBCHEM_MOLECULAR_FORMULA>
C27H29N3O

> <PUBCHEM_MOLECULAR_WEIGHT>
411.5

> <PUBCHEM_OPENEYE_CAN_SMILES>
C1CN(CCN1CCCNC(=O)C2C3=CC=CC=C3C4=CC=CC=C24)C5=CC=CC=C5

> <PUBCHEM_OPENEYE_ISO_SMILES>
C1CN(CCN1CCCNC(=O)C2C3=CC=CC=C3C4=CC=CC=C24)C5=CC=CC=C5

> <PUBCHEM_CACTVS_TPSA>
35.6

> <PUBCHEM_MONOISOTOPIC_WEIGHT>
411.231062557

> <PUBCHEM_TOTAL_CHARGE>
0

> <PUBCHEM_HEAVY_ATOM_COUNT>
31

> <PUBCHEM_ATOM_DEF_STEREO_COUNT>
0

> <PUBCHEM_ATOM_UDEF_STEREO_COUNT>
0

> <PUBCHEM_BOND_DEF_STEREO_COUNT>
0

> <PUBCHEM_BOND_UDEF_STEREO_COUNT>
0

> <PUBCHEM_ISOTOPIC_ATOM_COUNT>
0

> <PUBCHEM_COMPONENT_COUNT>
1

> <PUBCHEM_CACTVS_TAUTO_COUNT>
-1

> <PUBCHEM_COORDINATE_TYPE>
1
5
255

> <PUBCHEM_BONDANNOTATIONS>
12  15  8
12  19  8
13  16  8
13  20  8
15  21  8
16  22  8
17  23  8
17  24  8
19  25  8
20  26  8
21  27  8
22  28  8
23  29  8
24  30  8
25  27  8
26  28  8
29  31  8
30  31  8

$$$$
