76313854
  -OEChem-09292322342D

 56 60  0     1  0  0  0  0  0999 V2000
    2.0000   -0.1107    0.0000 F   0  0  0  0  0  0  0  0  0  0  0  0
    4.7684    2.1110    0.0000 O   0  0  0  0  0  0  0  0  0  0  0  0
   11.0395    1.9131    0.0000 O   0  0  0  0  0  0  0  0  0  0  0  0
   14.5657   -2.1110    0.0000 O   0  0  0  0  0  0  0  0  0  0  0  0
    8.4414   -0.5869    0.0000 N   0  0  0  0  0  0  0  0  0  0  0  0
    5.7402    1.9018    0.0000 N   0  0  0  0  0  0  0  0  0  0  0  0
    6.7093    0.4131    0.0000 C   0  0  0  0  0  0  0  0  0  0  0  0
   10.1734   -0.5869    0.0000 C   0  0  3  0  0  0  0  0  0  0  0  0
    9.3074   -1.0869    0.0000 C   0  0  0  0  0  0  0  0  0  0  0  0
    7.5754    0.9131    0.0000 C   0  0  0  0  0  0  0  0  0  0  0  0
    6.7093   -0.5869    0.0000 C   0  0  0  0  0  0  0  0  0  0  0  0
    8.4414    0.4131    0.0000 C   0  0  0  0  0  0  0  0  0  0  0  0
    7.5754   -1.0869    0.0000 C   0  0  0  0  0  0  0  0  0  0  0  0
   11.0395   -1.0869    0.0000 C   0  0  0  0  0  0  0  0  0  0  0  0
   10.1734    0.4131    0.0000 C   0  0  0  0  0  0  0  0  0  0  0  0
    5.8433    0.9131    0.0000 C   0  0  0  0  0  0  0  0  0  0  0  0
   11.9055   -0.5869    0.0000 C   0  0  0  0  0  0  0  0  0  0  0  0
   11.0395    0.9131    0.0000 C   0  0  0  0  0  0  0  0  0  0  0  0
   11.9055    0.4131    0.0000 C   0  0  0  0  0  0  0  0  0  0  0  0
    4.9355    0.5080    0.0000 C   0  0  0  0  0  0  0  0  0  0  0  0
   12.7994   -1.1216    0.0000 C   0  0  0  0  0  0  0  0  0  0  0  0
   12.7994    0.9478    0.0000 C   0  0  0  0  0  0  0  0  0  0  0  0
    4.2677    1.2523    0.0000 C   0  0  0  0  0  0  0  0  0  0  0  0
   13.7055   -0.6077    0.0000 C   0  0  0  0  0  0  0  0  0  0  0  0
    4.6249   -0.4425    0.0000 C   0  0  0  0  0  0  0  0  0  0  0  0
   13.7055    0.4339    0.0000 C   0  0  0  0  0  0  0  0  0  0  0  0
    3.2892    1.0461    0.0000 C   0  0  0  0  0  0  0  0  0  0  0  0
    3.6464   -0.6487    0.0000 C   0  0  0  0  0  0  0  0  0  0  0  0
   14.5696   -1.1110    0.0000 C   0  0  0  0  0  0  0  0  0  0  0  0
    2.9785    0.0956    0.0000 C   0  0  0  0  0  0  0  0  0  0  0  0
   15.4375   -0.6144    0.0000 C   0  0  0  0  0  0  0  0  0  0  0  0
    6.7093    1.0331    0.0000 H   0  0  0  0  0  0  0  0  0  0  0  0
   10.1734   -1.2069    0.0000 H   0  0  0  0  0  0  0  0  0  0  0  0
    8.9089   -1.5618    0.0000 H   0  0  0  0  0  0  0  0  0  0  0  0
    9.7059   -1.5618    0.0000 H   0  0  0  0  0  0  0  0  0  0  0  0
    7.9739    1.3881    0.0000 H   0  0  0  0  0  0  0  0  0  0  0  0
    7.1768    1.3881    0.0000 H   0  0  0  0  0  0  0  0  0  0  0  0
    6.0988   -0.4792    0.0000 H   0  0  0  0  0  0  0  0  0  0  0  0
    6.4973   -1.1695    0.0000 H   0  0  0  0  0  0  0  0  0  0  0  0
    9.0520    0.3054    0.0000 H   0  0  0  0  0  0  0  0  0  0  0  0
    8.6534    0.9957    0.0000 H   0  0  0  0  0  0  0  0  0  0  0  0
    7.1768   -1.5618    0.0000 H   0  0  0  0  0  0  0  0  0  0  0  0
    7.9739   -1.5618    0.0000 H   0  0  0  0  0  0  0  0  0  0  0  0
   10.6409   -1.5618    0.0000 H   0  0  0  0  0  0  0  0  0  0  0  0
   11.4380   -1.5618    0.0000 H   0  0  0  0  0  0  0  0  0  0  0  0
    9.9614    0.9957    0.0000 H   0  0  0  0  0  0  0  0  0  0  0  0
    9.5628    0.3054    0.0000 H   0  0  0  0  0  0  0  0  0  0  0  0
   12.7923   -1.7415    0.0000 H   0  0  0  0  0  0  0  0  0  0  0  0
   12.7923    1.5677    0.0000 H   0  0  0  0  0  0  0  0  0  0  0  0
    5.0389   -0.9040    0.0000 H   0  0  0  0  0  0  0  0  0  0  0  0
   14.2412    0.7460    0.0000 H   0  0  0  0  0  0  0  0  0  0  0  0
    2.8751    1.5075    0.0000 H   0  0  0  0  0  0  0  0  0  0  0  0
    3.4537   -1.2381    0.0000 H   0  0  0  0  0  0  0  0  0  0  0  0
   15.7455   -1.1525    0.0000 H   0  0  0  0  0  0  0  0  0  0  0  0
   15.9757   -0.3065    0.0000 H   0  0  0  0  0  0  0  0  0  0  0  0
   15.1296   -0.0763    0.0000 H   0  0  0  0  0  0  0  0  0  0  0  0
  1 30  1  0  0  0  0
  2  6  1  0  0  0  0
  2 23  1  0  0  0  0
  3 18  2  0  0  0  0
  4 29  2  0  0  0  0
  5  9  1  0  0  0  0
  5 12  1  0  0  0  0
  5 13  1  0  0  0  0
  6 16  2  0  0  0  0
  7 10  1  0  0  0  0
  7 11  1  0  0  0  0
  7 16  1  0  0  0  0
  7 32  1  0  0  0  0
  8  9  1  0  0  0  0
  8 14  1  0  0  0  0
  8 15  1  0  0  0  0
  8 33  1  0  0  0  0
  9 34  1  0  0  0  0
  9 35  1  0  0  0  0
 10 12  1  0  0  0  0
 10 36  1  0  0  0  0
 10 37  1  0  0  0  0
 11 13  1  0  0  0  0
 11 38  1  0  0  0  0
 11 39  1  0  0  0  0
 12 40  1  0  0  0  0
 12 41  1  0  0  0  0
 13 42  1  0  0  0  0
 13 43  1  0  0  0  0
 14 17  1  0  0  0  0
 14 44  1  0  0  0  0
 14 45  1  0  0  0  0
 15 18  1  0  0  0  0
 15 46  1  0  0  0  0
 15 47  1  0  0  0  0
 16 20  1  0  0  0  0
 17 19  2  0  0  0  0
 17 21  1  0  0  0  0
 18 19  1  0  0  0  0
 19 22  1  0  0  0  0
 20 23  2  0  0  0  0
 20 25  1  0  0  0  0
 21 24  2  0  0  0  0
 21 48  1  0  0  0  0
 22 26  2  0  0  0  0
 22 49  1  0  0  0  0
 23 27  1  0  0  0  0
 24 26  1  0  0  0  0
 24 29  1  0  0  0  0
 25 28  2  0  0  0  0
 25 50  1  0  0  0  0
 26 51  1  0  0  0  0
 27 30  2  0  0  0  0
 27 52  1  0  0  0  0
 28 30  1  0  0  0  0
 28 53  1  0  0  0  0
 29 31  1  0  0  0  0
 31 54  1  0  0  0  0
 31 55  1  0  0  0  0
 31 56  1  0  0  0  0
M  END
> <PUBCHEM_COMPOUND_CID>
76313854

> <PUBCHEM_COMPOUND_CANONICALIZED>
1

> <PUBCHEM_CACTVS_COMPLEXITY>
680

> <PUBCHEM_CACTVS_HBOND_ACCEPTOR>
6

> <PUBCHEM_CACTVS_HBOND_DONOR>
0

> <PUBCHEM_CACTVS_ROTATABLE_BOND>
4

> <PUBCHEM_CACTVS_SUBSKEYS>
AAADceB7MQAAAAAAAAAAAAAAAAAAAWAAAAA8YMEAAAAAAFjB9AAAHwAEAAAADQzBngwyhtMQAACpA6RyQgCCAAAkIAAomCE+TNoIJrqAlZOEMYBmwBmIycecyOCOwAACAAAYAACAAAQAADAAAAAAAAAAAA==

> <PUBCHEM_IUPAC_OPENEYE_NAME>
6-acetyl-3-[[4-(6-fluoro-1,2-benzoxazol-3-yl)-1-piperidyl]methyl]tetralin-1-one

> <PUBCHEM_IUPAC_CAS_NAME>
6-acetyl-3-[[4-(6-fluoro-1,2-benzoxazol-3-yl)-1-piperidinyl]methyl]-3,4-dihydro-2H-naphthalen-1-one

> <PUBCHEM_IUPAC_NAME_MARKUP>
6-acetyl-3-[[4-(6-fluoro-1,2-benzoxazol-3-yl)piperidin-1-yl]methyl]-3,4-dihydro-2<I>H</I>-naphthalen-1-one

> <PUBCHEM_IUPAC_NAME>
6-acetyl-3-[[4-(6-fluoro-1,2-benzoxazol-3-yl)piperidin-1-yl]methyl]-3,4-dihydro-2H-naphthalen-1-one

> <PUBCHEM_IUPAC_SYSTEMATIC_NAME>
6-ethanoyl-3-[[4-(6-fluoranyl-1,2-benzoxazol-3-yl)piperidin-1-yl]methyl]-3,4-dihydro-2H-naphthalen-1-one

> <PUBCHEM_IUPAC_TRADITIONAL_NAME>
6-acetyl-3-[[4-(6-fluoroindoxazen-3-yl)piperidino]methyl]tetralin-1-one

> <PUBCHEM_IUPAC_INCHI>
InChI=1S/C25H25FN2O3/c1-15(29)18-2-4-21-19(12-18)10-16(11-23(21)30)14-28-8-6-17(7-9-28)25-22-5-3-20(26)13-24(22)31-27-25/h2-5,12-13,16-17H,6-11,14H2,1H3

> <PUBCHEM_IUPAC_INCHIKEY>
FDVGEVSBRKQEIG-UHFFFAOYSA-N

> <PUBCHEM_XLOGP3_AA>
3.8

> <PUBCHEM_EXACT_MASS>
420.18492083

> <PUBCHEM_MOLECULAR_FORMULA>
C25H25FN2O3

> <PUBCHEM_MOLECULAR_WEIGHT>
420.5

> <PUBCHEM_OPENEYE_CAN_SMILES>
CC(=O)C1=CC2=C(C=C1)C(=O)CC(C2)CN3CCC(CC3)C4=NOC5=C4C=CC(=C5)F

> <PUBCHEM_OPENEYE_ISO_SMILES>
CC(=O)C1=CC2=C(C=C1)C(=O)CC(C2)CN3CCC(CC3)C4=NOC5=C4C=CC(=C5)F

> <PUBCHEM_CACTVS_TPSA>
63.4

> <PUBCHEM_MONOISOTOPIC_WEIGHT>
420.18492083

> <PUBCHEM_TOTAL_CHARGE>
0

> <PUBCHEM_HEAVY_ATOM_COUNT>
31

> <PUBCHEM_ATOM_DEF_STEREO_COUNT>
0

> <PUBCHEM_ATOM_UDEF_STEREO_COUNT>
1

> <PUBCHEM_BOND_DEF_STEREO_COUNT>
0

> <PUBCHEM_BOND_UDEF_STEREO_COUNT>
0

> <PUBCHEM_ISOTOPIC_ATOM_COUNT>
0

> <PUBCHEM_COMPONENT_COUNT>
1

> <PUBCHEM_CACTVS_TAUTO_COUNT>
-1

> <PUBCHEM_COORDINATE_TYPE>
1
5
255

> <PUBCHEM_BONDANNOTATIONS>
16  20  8
17  19  8
17  21  8
19  22  8
2  23  8
2  6  8
20  23  8
20  25  8
21  24  8
22  26  8
23  27  8
24  26  8
25  28  8
27  30  8
28  30  8
6  16  8
8  9  3

$$$$
