44275155
  -OEChem-09292322122D

 41 43  0     1  0  0  0  0  0999 V2000
    2.9176   -2.2183    0.0000 O   0  0  0  0  0  0  0  0  0  0  0  0
    6.4783    0.6210    0.0000 N   0  0  3  0  0  0  0  0  0  0  0  0
    5.5321   -0.6837    0.0000 C   0  0  3  0  0  0  0  0  0  0  0  0
    5.5321    0.3163    0.0000 C   0  0  1  0  0  0  0  0  0  0  0  0
    6.4783   -0.9884    0.0000 C   0  0  0  0  0  0  0  0  0  0  0  0
    7.0619   -0.1837    0.0000 C   0  0  0  0  0  0  0  0  0  0  0  0
    4.6660   -1.1837    0.0000 C   0  0  0  0  0  0  0  0  0  0  0  0
    4.6660    0.8163    0.0000 C   0  0  0  0  0  0  0  0  0  0  0  0
    3.8000   -0.6837    0.0000 C   0  0  0  0  0  0  0  0  0  0  0  0
    3.8000    0.3163    0.0000 C   0  0  0  0  0  0  0  0  0  0  0  0
    6.7889    1.5715    0.0000 C   0  0  0  0  0  0  0  0  0  0  0  0
    7.7674    1.7778    0.0000 C   0  0  0  0  0  0  0  0  0  0  0  0
    2.9061   -1.2184    0.0000 C   0  0  0  0  0  0  0  0  0  0  0  0
    2.9061    0.8510    0.0000 C   0  0  0  0  0  0  0  0  0  0  0  0
    2.0000   -0.7045    0.0000 C   0  0  0  0  0  0  0  0  0  0  0  0
    2.0000    0.3371    0.0000 C   0  0  0  0  0  0  0  0  0  0  0  0
    8.0781    2.7283    0.0000 C   0  0  0  0  0  0  0  0  0  0  0  0
    2.0574   -2.7283    0.0000 C   0  0  0  0  0  0  0  0  0  0  0  0
    5.5977   -1.3002    0.0000 H   0  0  0  0  0  0  0  0  0  0  0  0
    5.6220    1.1615    0.0000 H   0  0  0  0  0  0  0  0  0  0  0  0
    6.2272   -1.5554    0.0000 H   0  0  0  0  0  0  0  0  0  0  0  0
    7.0157   -1.2977    0.0000 H   0  0  0  0  0  0  0  0  0  0  0  0
    7.5228   -0.5984    0.0000 H   0  0  0  0  0  0  0  0  0  0  0  0
    7.5228    0.2310    0.0000 H   0  0  0  0  0  0  0  0  0  0  0  0
    4.2675   -1.6587    0.0000 H   0  0  0  0  0  0  0  0  0  0  0  0
    5.0646   -1.6587    0.0000 H   0  0  0  0  0  0  0  0  0  0  0  0
    5.0646    1.2912    0.0000 H   0  0  0  0  0  0  0  0  0  0  0  0
    4.2675    1.2912    0.0000 H   0  0  0  0  0  0  0  0  0  0  0  0
    6.7684    2.1912    0.0000 H   0  0  0  0  0  0  0  0  0  0  0  0
    6.1751    1.6589    0.0000 H   0  0  0  0  0  0  0  0  0  0  0  0
    7.7880    1.1581    0.0000 H   0  0  0  0  0  0  0  0  0  0  0  0
    8.3813    1.6904    0.0000 H   0  0  0  0  0  0  0  0  0  0  0  0
    2.9132    1.4709    0.0000 H   0  0  0  0  0  0  0  0  0  0  0  0
    1.4643   -1.0166    0.0000 H   0  0  0  0  0  0  0  0  0  0  0  0
    1.4643    0.6492    0.0000 H   0  0  0  0  0  0  0  0  0  0  0  0
    8.6674    2.5357    0.0000 H   0  0  0  0  0  0  0  0  0  0  0  0
    8.2707    3.3176    0.0000 H   0  0  0  0  0  0  0  0  0  0  0  0
    7.4888    2.9209    0.0000 H   0  0  0  0  0  0  0  0  0  0  0  0
    1.7413   -2.1950    0.0000 H   0  0  0  0  0  0  0  0  0  0  0  0
    1.5241   -3.0445    0.0000 H   0  0  0  0  0  0  0  0  0  0  0  0
    2.3736   -3.2616    0.0000 H   0  0  0  0  0  0  0  0  0  0  0  0
  1 13  1  0  0  0  0
  1 18  1  0  0  0  0
  2  4  1  0  0  0  0
  2  6  1  0  0  0  0
  2 11  1  0  0  0  0
  3  4  1  0  0  0  0
  3  5  1  0  0  0  0
  3  7  1  0  0  0  0
  3 19  1  0  0  0  0
  4  8  1  0  0  0  0
  4 20  1  6  0  0  0
  5  6  1  0  0  0  0
  5 21  1  0  0  0  0
  5 22  1  0  0  0  0
  6 23  1  0  0  0  0
  6 24  1  0  0  0  0
  7  9  1  0  0  0  0
  7 25  1  0  0  0  0
  7 26  1  0  0  0  0
  8 10  1  0  0  0  0
  8 27  1  0  0  0  0
  8 28  1  0  0  0  0
  9 10  2  0  0  0  0
  9 13  1  0  0  0  0
 10 14  1  0  0  0  0
 11 12  1  0  0  0  0
 11 29  1  0  0  0  0
 11 30  1  0  0  0  0
 12 17  1  0  0  0  0
 12 31  1  0  0  0  0
 12 32  1  0  0  0  0
 13 15  2  0  0  0  0
 14 16  2  0  0  0  0
 14 33  1  0  0  0  0
 15 16  1  0  0  0  0
 15 34  1  0  0  0  0
 16 35  1  0  0  0  0
 17 36  1  0  0  0  0
 17 37  1  0  0  0  0
 17 38  1  0  0  0  0
 18 39  1  0  0  0  0
 18 40  1  0  0  0  0
 18 41  1  0  0  0  0
M  END
> <PUBCHEM_COMPOUND_CID>
44275155

> <PUBCHEM_COMPOUND_CANONICALIZED>
1

> <PUBCHEM_CACTVS_COMPLEXITY>
280

> <PUBCHEM_CACTVS_HBOND_ACCEPTOR>
2

> <PUBCHEM_CACTVS_HBOND_DONOR>
0

> <PUBCHEM_CACTVS_ROTATABLE_BOND>
3

> <PUBCHEM_CACTVS_SUBSKEYS>
AAADceB6IAAAAAAAAAAAAAAAAAAAAWAAAAAwYAAAAAAAAFjBAAAAHgAAAAAADSzBmAYyBoMABACAAiBCAAACCAAgIAAIiAAOCIgMJiKEsRuEMCAkwBGIqAeQ0PMOgAABAAAYAACQAAaAADQAAAAAAAAAAA==

> <PUBCHEM_IUPAC_OPENEYE_NAME>
(9aR)-5-methoxy-1-propyl-2,3,3a,4,9,9a-hexahydrobenzo[f]indole

> <PUBCHEM_IUPAC_CAS_NAME>
(9aR)-5-methoxy-1-propyl-2,3,3a,4,9,9a-hexahydrobenzo[f]indole

> <PUBCHEM_IUPAC_NAME_MARKUP>
(9<I>a</I><I>R</I>)-5-methoxy-1-propyl-2,3,3<I>a</I>,4,9,9<I>a</I>-hexahydrobenzo[f]indole

> <PUBCHEM_IUPAC_NAME>
(9aR)-5-methoxy-1-propyl-2,3,3a,4,9,9a-hexahydrobenzo[f]indole

> <PUBCHEM_IUPAC_SYSTEMATIC_NAME>
(9aR)-5-methoxy-1-propyl-2,3,3a,4,9,9a-hexahydrobenzo[f]indole

> <PUBCHEM_IUPAC_TRADITIONAL_NAME>
(9aR)-5-methoxy-1-propyl-2,3,3a,4,9,9a-hexahydrobenz[f]indole

> <PUBCHEM_IUPAC_INCHI>
InChI=1S/C16H23NO/c1-3-8-17-9-7-13-10-14-12(11-15(13)17)5-4-6-16(14)18-2/h4-6,13,15H,3,7-11H2,1-2H3/t13?,15-/m1/s1

> <PUBCHEM_IUPAC_INCHIKEY>
HDCVYYTWHHFQGS-AWKYBWMHSA-N

> <PUBCHEM_XLOGP3_AA>
3.6

> <PUBCHEM_EXACT_MASS>
245.177964357

> <PUBCHEM_MOLECULAR_FORMULA>
C16H23NO

> <PUBCHEM_MOLECULAR_WEIGHT>
245.36

> <PUBCHEM_OPENEYE_CAN_SMILES>
CCCN1CCC2C1CC3=C(C2)C(=CC=C3)OC

> <PUBCHEM_OPENEYE_ISO_SMILES>
CCCN1CCC2[C@H]1CC3=C(C2)C(=CC=C3)OC

> <PUBCHEM_CACTVS_TPSA>
12.5

> <PUBCHEM_MONOISOTOPIC_WEIGHT>
245.177964357

> <PUBCHEM_TOTAL_CHARGE>
0

> <PUBCHEM_HEAVY_ATOM_COUNT>
18

> <PUBCHEM_ATOM_DEF_STEREO_COUNT>
1

> <PUBCHEM_ATOM_UDEF_STEREO_COUNT>
1

> <PUBCHEM_BOND_DEF_STEREO_COUNT>
0

> <PUBCHEM_BOND_UDEF_STEREO_COUNT>
0

> <PUBCHEM_ISOTOPIC_ATOM_COUNT>
0

> <PUBCHEM_COMPONENT_COUNT>
1

> <PUBCHEM_CACTVS_TAUTO_COUNT>
-1

> <PUBCHEM_COORDINATE_TYPE>
1
5
255

> <PUBCHEM_BONDANNOTATIONS>
10  14  8
13  15  8
14  16  8
15  16  8
3  5  3
4  20  6
9  10  8
9  13  8

$$$$
