44582187
  -OEChem-09292322232D

 63 66  0     0  0  0  0  0  0999 V2000
   14.1923   -0.7500    0.0000 O   0  0  0  0  0  0  0  0  0  0  0  0
    4.6660   -2.2500    0.0000 O   0  0  0  0  0  0  0  0  0  0  0  0
   10.7282   -0.7500    0.0000 N   0  0  0  0  0  0  0  0  0  0  0  0
   12.4603    0.2500    0.0000 N   0  0  0  0  0  0  0  0  0  0  0  0
    5.5321   -0.7500    0.0000 N   0  0  0  0  0  0  0  0  0  0  0  0
   10.7282    0.2500    0.0000 C   0  0  0  0  0  0  0  0  0  0  0  0
   11.5942   -1.2500    0.0000 C   0  0  0  0  0  0  0  0  0  0  0  0
    9.8622   -1.2500    0.0000 C   0  0  0  0  0  0  0  0  0  0  0  0
   11.5942    0.7500    0.0000 C   0  0  0  0  0  0  0  0  0  0  0  0
   12.4603   -0.7500    0.0000 C   0  0  0  0  0  0  0  0  0  0  0  0
    8.9962   -0.7500    0.0000 C   0  0  0  0  0  0  0  0  0  0  0  0
    8.1301   -1.2500    0.0000 C   0  0  0  0  0  0  0  0  0  0  0  0
    7.2641   -0.7500    0.0000 C   0  0  0  0  0  0  0  0  0  0  0  0
    6.3981   -1.2500    0.0000 C   0  0  0  0  0  0  0  0  0  0  0  0
   13.3263    0.7500    0.0000 C   0  0  0  0  0  0  0  0  0  0  0  0
    5.5321    0.2500    0.0000 C   0  0  0  0  0  0  0  0  0  0  0  0
    4.6660    0.7500    0.0000 C   0  0  0  0  0  0  0  0  0  0  0  0
    4.6660   -1.2500    0.0000 C   0  0  0  0  0  0  0  0  0  0  0  0
    3.8000    0.2500    0.0000 C   0  0  0  0  0  0  0  0  0  0  0  0
    3.8000   -0.7500    0.0000 C   0  0  0  0  0  0  0  0  0  0  0  0
   14.1923    0.2500    0.0000 C   0  0  0  0  0  0  0  0  0  0  0  0
   13.3263    1.7500    0.0000 C   0  0  0  0  0  0  0  0  0  0  0  0
    2.9061    0.7847    0.0000 C   0  0  0  0  0  0  0  0  0  0  0  0
    2.9061   -1.2847    0.0000 C   0  0  0  0  0  0  0  0  0  0  0  0
   15.0583    0.7500    0.0000 C   0  0  0  0  0  0  0  0  0  0  0  0
   14.1923    2.2500    0.0000 C   0  0  0  0  0  0  0  0  0  0  0  0
   15.0583    1.7500    0.0000 C   0  0  0  0  0  0  0  0  0  0  0  0
    2.0000    0.2708    0.0000 C   0  0  0  0  0  0  0  0  0  0  0  0
    2.0000   -0.7708    0.0000 C   0  0  0  0  0  0  0  0  0  0  0  0
   15.0583   -1.2500    0.0000 C   0  0  0  0  0  0  0  0  0  0  0  0
   10.5162    0.8326    0.0000 H   0  0  0  0  0  0  0  0  0  0  0  0
   10.1176    0.1423    0.0000 H   0  0  0  0  0  0  0  0  0  0  0  0
   11.1957   -1.7250    0.0000 H   0  0  0  0  0  0  0  0  0  0  0  0
   11.9928   -1.7250    0.0000 H   0  0  0  0  0  0  0  0  0  0  0  0
    9.4637   -1.7250    0.0000 H   0  0  0  0  0  0  0  0  0  0  0  0
   10.2607   -1.7250    0.0000 H   0  0  0  0  0  0  0  0  0  0  0  0
   11.9928    1.2250    0.0000 H   0  0  0  0  0  0  0  0  0  0  0  0
   11.1957    1.2250    0.0000 H   0  0  0  0  0  0  0  0  0  0  0  0
   12.6723   -1.3326    0.0000 H   0  0  0  0  0  0  0  0  0  0  0  0
   13.0708   -0.6423    0.0000 H   0  0  0  0  0  0  0  0  0  0  0  0
    9.3947   -0.2751    0.0000 H   0  0  0  0  0  0  0  0  0  0  0  0
    8.5976   -0.2751    0.0000 H   0  0  0  0  0  0  0  0  0  0  0  0
    7.7316   -1.7250    0.0000 H   0  0  0  0  0  0  0  0  0  0  0  0
    8.5287   -1.7250    0.0000 H   0  0  0  0  0  0  0  0  0  0  0  0
    7.6626   -0.2751    0.0000 H   0  0  0  0  0  0  0  0  0  0  0  0
    6.8656   -0.2751    0.0000 H   0  0  0  0  0  0  0  0  0  0  0  0
    5.9996   -1.7250    0.0000 H   0  0  0  0  0  0  0  0  0  0  0  0
    6.7966   -1.7250    0.0000 H   0  0  0  0  0  0  0  0  0  0  0  0
    6.1426    0.1423    0.0000 H   0  0  0  0  0  0  0  0  0  0  0  0
    5.7441    0.8326    0.0000 H   0  0  0  0  0  0  0  0  0  0  0  0
    5.0646    1.2250    0.0000 H   0  0  0  0  0  0  0  0  0  0  0  0
    4.2675    1.2250    0.0000 H   0  0  0  0  0  0  0  0  0  0  0  0
   12.7894    2.0600    0.0000 H   0  0  0  0  0  0  0  0  0  0  0  0
    2.9132    1.4046    0.0000 H   0  0  0  0  0  0  0  0  0  0  0  0
    2.9132   -1.9046    0.0000 H   0  0  0  0  0  0  0  0  0  0  0  0
   15.5953    0.4400    0.0000 H   0  0  0  0  0  0  0  0  0  0  0  0
   14.1923    2.8700    0.0000 H   0  0  0  0  0  0  0  0  0  0  0  0
   15.5953    2.0600    0.0000 H   0  0  0  0  0  0  0  0  0  0  0  0
    1.4643    0.5829    0.0000 H   0  0  0  0  0  0  0  0  0  0  0  0
    1.4643   -1.0829    0.0000 H   0  0  0  0  0  0  0  0  0  0  0  0
   14.7483   -1.7869    0.0000 H   0  0  0  0  0  0  0  0  0  0  0  0
   15.5953   -1.5600    0.0000 H   0  0  0  0  0  0  0  0  0  0  0  0
   15.3683   -0.7131    0.0000 H   0  0  0  0  0  0  0  0  0  0  0  0
  1 21  1  0  0  0  0
  1 30  1  0  0  0  0
  2 18  2  0  0  0  0
  3  6  1  0  0  0  0
  3  7  1  0  0  0  0
  3  8  1  0  0  0  0
  4  9  1  0  0  0  0
  4 10  1  0  0  0  0
  4 15  1  0  0  0  0
  5 14  1  0  0  0  0
  5 16  1  0  0  0  0
  5 18  1  0  0  0  0
  6  9  1  0  0  0  0
  6 31  1  0  0  0  0
  6 32  1  0  0  0  0
  7 10  1  0  0  0  0
  7 33  1  0  0  0  0
  7 34  1  0  0  0  0
  8 11  1  0  0  0  0
  8 35  1  0  0  0  0
  8 36  1  0  0  0  0
  9 37  1  0  0  0  0
  9 38  1  0  0  0  0
 10 39  1  0  0  0  0
 10 40  1  0  0  0  0
 11 12  1  0  0  0  0
 11 41  1  0  0  0  0
 11 42  1  0  0  0  0
 12 13  1  0  0  0  0
 12 43  1  0  0  0  0
 12 44  1  0  0  0  0
 13 14  1  0  0  0  0
 13 45  1  0  0  0  0
 13 46  1  0  0  0  0
 14 47  1  0  0  0  0
 14 48  1  0  0  0  0
 15 21  1  0  0  0  0
 15 22  2  0  0  0  0
 16 17  1  0  0  0  0
 16 49  1  0  0  0  0
 16 50  1  0  0  0  0
 17 19  1  0  0  0  0
 17 51  1  0  0  0  0
 17 52  1  0  0  0  0
 18 20  1  0  0  0  0
 19 20  1  0  0  0  0
 19 23  2  0  0  0  0
 20 24  2  0  0  0  0
 21 25  2  0  0  0  0
 22 26  1  0  0  0  0
 22 53  1  0  0  0  0
 23 28  1  0  0  0  0
 23 54  1  0  0  0  0
 24 29  1  0  0  0  0
 24 55  1  0  0  0  0
 25 27  1  0  0  0  0
 25 56  1  0  0  0  0
 26 27  2  0  0  0  0
 26 57  1  0  0  0  0
 27 58  1  0  0  0  0
 28 29  2  0  0  0  0
 28 59  1  0  0  0  0
 29 60  1  0  0  0  0
 30 61  1  0  0  0  0
 30 62  1  0  0  0  0
 30 63  1  0  0  0  0
M  END
> <PUBCHEM_COMPOUND_CID>
44582187

> <PUBCHEM_COMPOUND_CANONICALIZED>
1

> <PUBCHEM_CACTVS_COMPLEXITY>
535

> <PUBCHEM_CACTVS_HBOND_ACCEPTOR>
4

> <PUBCHEM_CACTVS_HBOND_DONOR>
0

> <PUBCHEM_CACTVS_ROTATABLE_BOND>
8

> <PUBCHEM_CACTVS_SUBSKEYS>
AAADcfB7MAAAAAAAAAAAAAAAAAAAAAAAAAA8eIEAAAAAAACxQAAAHgAAAAAADAzBmAYyxoMABACIAiVSUACCCAAlIgAIiAEPbMgOZjLEtZuVMShkxhHY6YeYyYCOgAAAAAAQEAAAAAAAACAgAAAAAAAAAA==

> <PUBCHEM_IUPAC_OPENEYE_NAME>
2-[5-[4-(2-methoxyphenyl)piperazin-1-yl]pentyl]-3,4-dihydroisoquinolin-1-one

> <PUBCHEM_IUPAC_CAS_NAME>
2-[5-[4-(2-methoxyphenyl)-1-piperazinyl]pentyl]-3,4-dihydroisoquinolin-1-one

> <PUBCHEM_IUPAC_NAME_MARKUP>
2-[5-[4-(2-methoxyphenyl)piperazin-1-yl]pentyl]-3,4-dihydroisoquinolin-1-one

> <PUBCHEM_IUPAC_NAME>
2-[5-[4-(2-methoxyphenyl)piperazin-1-yl]pentyl]-3,4-dihydroisoquinolin-1-one

> <PUBCHEM_IUPAC_SYSTEMATIC_NAME>
2-[5-[4-(2-methoxyphenyl)piperazin-1-yl]pentyl]-3,4-dihydroisoquinolin-1-one

> <PUBCHEM_IUPAC_TRADITIONAL_NAME>
2-[5-[4-(2-methoxyphenyl)piperazino]pentyl]-3,4-dihydroisocarbostyril

> <PUBCHEM_IUPAC_INCHI>
InChI=1S/C25H33N3O2/c1-30-24-12-6-5-11-23(24)27-19-17-26(18-20-27)14-7-2-8-15-28-16-13-21-9-3-4-10-22(21)25(28)29/h3-6,9-12H,2,7-8,13-20H2,1H3

> <PUBCHEM_IUPAC_INCHIKEY>
NQKMYRGFSYIPHF-UHFFFAOYSA-N

> <PUBCHEM_XLOGP3_AA>
4.1

> <PUBCHEM_EXACT_MASS>
407.25727730

> <PUBCHEM_MOLECULAR_FORMULA>
C25H33N3O2

> <PUBCHEM_MOLECULAR_WEIGHT>
407.5

> <PUBCHEM_OPENEYE_CAN_SMILES>
COC1=CC=CC=C1N2CCN(CC2)CCCCCN3CCC4=CC=CC=C4C3=O

> <PUBCHEM_OPENEYE_ISO_SMILES>
COC1=CC=CC=C1N2CCN(CC2)CCCCCN3CCC4=CC=CC=C4C3=O

> <PUBCHEM_CACTVS_TPSA>
36

> <PUBCHEM_MONOISOTOPIC_WEIGHT>
407.25727730

> <PUBCHEM_TOTAL_CHARGE>
0

> <PUBCHEM_HEAVY_ATOM_COUNT>
30

> <PUBCHEM_ATOM_DEF_STEREO_COUNT>
0

> <PUBCHEM_ATOM_UDEF_STEREO_COUNT>
0

> <PUBCHEM_BOND_DEF_STEREO_COUNT>
0

> <PUBCHEM_BOND_UDEF_STEREO_COUNT>
0

> <PUBCHEM_ISOTOPIC_ATOM_COUNT>
0

> <PUBCHEM_COMPONENT_COUNT>
1

> <PUBCHEM_CACTVS_TAUTO_COUNT>
-1

> <PUBCHEM_COORDINATE_TYPE>
1
5
255

> <PUBCHEM_BONDANNOTATIONS>
15  21  8
15  22  8
19  20  8
19  23  8
20  24  8
21  25  8
22  26  8
23  28  8
24  29  8
25  27  8
26  27  8
28  29  8

$$$$
