44376921
  -OEChem-09292322212D

 54 57  0     1  0  0  0  0  0999 V2000
    7.1884   -0.0071    0.0000 O   0  0  0  0  0  0  0  0  0  0  0  0
    2.8641   -1.5238    0.0000 O   0  0  0  0  0  0  0  0  0  0  0  0
    3.7359   -3.0204    0.0000 O   0  0  0  0  0  0  0  0  0  0  0  0
   10.7205    0.0204    0.0000 N   0  0  3  0  0  0  0  0  0  0  0  0
   12.4525    1.0204    0.0000 N   0  0  3  0  0  0  0  0  0  0  0  0
   13.3185    2.5204    0.0000 N   0  0  0  0  0  0  0  0  0  0  0  0
   14.1846    1.0204    0.0000 N   0  0  0  0  0  0  0  0  0  0  0  0
   10.7205    1.0204    0.0000 C   0  0  1  0  0  0  0  0  0  0  0  0
    8.9204   -0.0004    0.0000 C   0  0  1  0  0  0  0  0  0  0  0  0
    9.8265    1.5551    0.0000 C   0  0  0  0  0  0  0  0  0  0  0  0
    9.8265   -0.5142    0.0000 C   0  0  0  0  0  0  0  0  0  0  0  0
    8.9204    1.0412    0.0000 C   0  0  0  0  0  0  0  0  0  0  0  0
   11.5865    1.5204    0.0000 C   0  0  0  0  0  0  0  0  0  0  0  0
   11.5865   -0.4796    0.0000 C   0  0  0  0  0  0  0  0  0  0  0  0
   12.4525    0.0204    0.0000 C   0  0  0  0  0  0  0  0  0  0  0  0
    8.0564   -0.5037    0.0000 C   0  0  0  0  0  0  0  0  0  0  0  0
   13.3185    1.5204    0.0000 C   0  0  0  0  0  0  0  0  0  0  0  0
    6.3243   -0.5104    0.0000 C   0  0  0  0  0  0  0  0  0  0  0  0
   14.1846    3.0204    0.0000 C   0  0  0  0  0  0  0  0  0  0  0  0
   15.0506    1.5204    0.0000 C   0  0  0  0  0  0  0  0  0  0  0  0
    6.3282   -1.5104    0.0000 C   0  0  0  0  0  0  0  0  0  0  0  0
    5.4564   -0.0138    0.0000 C   0  0  0  0  0  0  0  0  0  0  0  0
   15.0506    2.5204    0.0000 C   0  0  0  0  0  0  0  0  0  0  0  0
    5.4641   -2.0137    0.0000 C   0  0  0  0  0  0  0  0  0  0  0  0
    4.5923   -0.5171    0.0000 C   0  0  0  0  0  0  0  0  0  0  0  0
    4.5961   -1.5171    0.0000 C   0  0  0  0  0  0  0  0  0  0  0  0
    3.7320   -2.0204    0.0000 C   0  0  0  0  0  0  0  0  0  0  0  0
    2.0000   -2.0271    0.0000 C   0  0  0  0  0  0  0  0  0  0  0  0
   10.7270    1.8704    0.0000 H   0  0  0  0  0  0  0  0  0  0  0  0
    8.9240   -0.6204    0.0000 H   0  0  0  0  0  0  0  0  0  0  0  0
   10.2311    2.0249    0.0000 H   0  0  0  0  0  0  0  0  0  0  0  0
    9.4329    2.0341    0.0000 H   0  0  0  0  0  0  0  0  0  0  0  0
    9.4329   -0.9933    0.0000 H   0  0  0  0  0  0  0  0  0  0  0  0
   10.2311   -0.9840    0.0000 H   0  0  0  0  0  0  0  0  0  0  0  0
    8.7114    1.6249    0.0000 H   0  0  0  0  0  0  0  0  0  0  0  0
    8.3096    0.9351    0.0000 H   0  0  0  0  0  0  0  0  0  0  0  0
   11.9850    1.9954    0.0000 H   0  0  0  0  0  0  0  0  0  0  0  0
   11.1879    1.9954    0.0000 H   0  0  0  0  0  0  0  0  0  0  0  0
   11.1879   -0.9545    0.0000 H   0  0  0  0  0  0  0  0  0  0  0  0
   11.9850   -0.9545    0.0000 H   0  0  0  0  0  0  0  0  0  0  0  0
   12.6646   -0.5622    0.0000 H   0  0  0  0  0  0  0  0  0  0  0  0
   13.0631    0.1281    0.0000 H   0  0  0  0  0  0  0  0  0  0  0  0
    7.6597   -0.9802    0.0000 H   0  0  0  0  0  0  0  0  0  0  0  0
    8.4567   -0.9771    0.0000 H   0  0  0  0  0  0  0  0  0  0  0  0
   14.1846    3.6404    0.0000 H   0  0  0  0  0  0  0  0  0  0  0  0
   15.5875    1.2104    0.0000 H   0  0  0  0  0  0  0  0  0  0  0  0
    6.8663   -1.8183    0.0000 H   0  0  0  0  0  0  0  0  0  0  0  0
    5.4540    0.6062    0.0000 H   0  0  0  0  0  0  0  0  0  0  0  0
   15.5875    2.8304    0.0000 H   0  0  0  0  0  0  0  0  0  0  0  0
    5.4665   -2.6337    0.0000 H   0  0  0  0  0  0  0  0  0  0  0  0
    4.0542   -0.2092    0.0000 H   0  0  0  0  0  0  0  0  0  0  0  0
    1.6879   -1.4914    0.0000 H   0  0  0  0  0  0  0  0  0  0  0  0
    1.4643   -2.3392    0.0000 H   0  0  0  0  0  0  0  0  0  0  0  0
    2.3121   -2.5628    0.0000 H   0  0  0  0  0  0  0  0  0  0  0  0
  1 16  1  0  0  0  0
  1 18  1  0  0  0  0
  2 27  1  0  0  0  0
  2 28  1  0  0  0  0
  3 27  2  0  0  0  0
  4  8  1  0  0  0  0
  4 11  1  0  0  0  0
  4 14  1  0  0  0  0
  5 13  1  0  0  0  0
  5 15  1  0  0  0  0
  5 17  1  0  0  0  0
  6 17  2  0  0  0  0
  6 19  1  0  0  0  0
  7 17  1  0  0  0  0
  7 20  2  0  0  0  0
  8 10  1  0  0  0  0
  8 13  1  0  0  0  0
  8 29  1  6  0  0  0
  9 11  1  0  0  0  0
  9 12  1  0  0  0  0
  9 16  1  6  0  0  0
  9 30  1  0  0  0  0
 10 12  1  0  0  0  0
 10 31  1  0  0  0  0
 10 32  1  0  0  0  0
 11 33  1  0  0  0  0
 11 34  1  0  0  0  0
 12 35  1  0  0  0  0
 12 36  1  0  0  0  0
 13 37  1  0  0  0  0
 13 38  1  0  0  0  0
 14 15  1  0  0  0  0
 14 39  1  0  0  0  0
 14 40  1  0  0  0  0
 15 41  1  0  0  0  0
 15 42  1  0  0  0  0
 16 43  1  0  0  0  0
 16 44  1  0  0  0  0
 18 21  2  0  0  0  0
 18 22  1  0  0  0  0
 19 23  2  0  0  0  0
 19 45  1  0  0  0  0
 20 23  1  0  0  0  0
 20 46  1  0  0  0  0
 21 24  1  0  0  0  0
 21 47  1  0  0  0  0
 22 25  2  0  0  0  0
 22 48  1  0  0  0  0
 23 49  1  0  0  0  0
 24 26  2  0  0  0  0
 24 50  1  0  0  0  0
 25 26  1  0  0  0  0
 25 51  1  0  0  0  0
 26 27  1  0  0  0  0
 28 52  1  0  0  0  0
 28 53  1  0  0  0  0
 28 54  1  0  0  0  0
M  END
> <PUBCHEM_COMPOUND_CID>
44376921

> <PUBCHEM_COMPOUND_CANONICALIZED>
1

> <PUBCHEM_CACTVS_COMPLEXITY>
506

> <PUBCHEM_CACTVS_HBOND_ACCEPTOR>
7

> <PUBCHEM_CACTVS_HBOND_DONOR>
0

> <PUBCHEM_CACTVS_ROTATABLE_BOND>
6

> <PUBCHEM_CACTVS_SUBSKEYS>
AAADceB7sAAAAAAAAAAAAAAAAAAAAAAAAAA8WLEAAAAAAACxwAAAHgAAAAAADSzhmgY/npcIFACoAjD3bACCiCk1IqAJ2CE+bNiMbrLE/VqWPSiuwBPIqaeY/C/OIAAAAAAAAABAAAAAAAAAAAAAAAAAAA==

> <PUBCHEM_IUPAC_OPENEYE_NAME>
methyl 4-[[(7R,9aS)-2-pyrimidin-2-yl-1,3,4,6,7,8,9,9a-octahydropyrido[1,2-a]pyrazin-7-yl]methoxy]benzoate

> <PUBCHEM_IUPAC_CAS_NAME>
4-[[(7R,9aS)-2-(2-pyrimidinyl)-1,3,4,6,7,8,9,9a-octahydropyrido[1,2-a]pyrazin-7-yl]methoxy]benzoic acid methyl ester

> <PUBCHEM_IUPAC_NAME_MARKUP>
methyl 4-[[(7<I>R</I>,9<I>a</I><I>S</I>)-2-pyrimidin-2-yl-1,3,4,6,7,8,9,9<I>a</I>-octahydropyrido[1,2-a]pyrazin-7-yl]methoxy]benzoate

> <PUBCHEM_IUPAC_NAME>
methyl 4-[[(7R,9aS)-2-pyrimidin-2-yl-1,3,4,6,7,8,9,9a-octahydropyrido[1,2-a]pyrazin-7-yl]methoxy]benzoate

> <PUBCHEM_IUPAC_SYSTEMATIC_NAME>
methyl 4-[[(7R,9aS)-2-pyrimidin-2-yl-1,3,4,6,7,8,9,9a-octahydropyrido[1,2-a]pyrazin-7-yl]methoxy]benzoate

> <PUBCHEM_IUPAC_TRADITIONAL_NAME>
4-[[(7R,9aS)-2-(2-pyrimidyl)-1,3,4,6,7,8,9,9a-octahydropyrido[1,2-a]pyrazin-7-yl]methoxy]benzoic acid methyl ester

> <PUBCHEM_IUPAC_INCHI>
InChI=1S/C21H26N4O3/c1-27-20(26)17-4-7-19(8-5-17)28-15-16-3-6-18-14-25(12-11-24(18)13-16)21-22-9-2-10-23-21/h2,4-5,7-10,16,18H,3,6,11-15H2,1H3/t16-,18+/m1/s1

> <PUBCHEM_IUPAC_INCHIKEY>
XAVXJXMGRFXIFC-AEFFLSMTSA-N

> <PUBCHEM_XLOGP3_AA>
2.8

> <PUBCHEM_EXACT_MASS>
382.20049070

> <PUBCHEM_MOLECULAR_FORMULA>
C21H26N4O3

> <PUBCHEM_MOLECULAR_WEIGHT>
382.5

> <PUBCHEM_OPENEYE_CAN_SMILES>
COC(=O)C1=CC=C(C=C1)OCC2CCC3CN(CCN3C2)C4=NC=CC=N4

> <PUBCHEM_OPENEYE_ISO_SMILES>
COC(=O)C1=CC=C(C=C1)OC[C@@H]2CC[C@H]3CN(CCN3C2)C4=NC=CC=N4

> <PUBCHEM_CACTVS_TPSA>
67.8

> <PUBCHEM_MONOISOTOPIC_WEIGHT>
382.20049070

> <PUBCHEM_TOTAL_CHARGE>
0

> <PUBCHEM_HEAVY_ATOM_COUNT>
28

> <PUBCHEM_ATOM_DEF_STEREO_COUNT>
2

> <PUBCHEM_ATOM_UDEF_STEREO_COUNT>
0

> <PUBCHEM_BOND_DEF_STEREO_COUNT>
0

> <PUBCHEM_BOND_UDEF_STEREO_COUNT>
0

> <PUBCHEM_ISOTOPIC_ATOM_COUNT>
0

> <PUBCHEM_COMPONENT_COUNT>
1

> <PUBCHEM_CACTVS_TAUTO_COUNT>
-1

> <PUBCHEM_COORDINATE_TYPE>
1
5
255

> <PUBCHEM_BONDANNOTATIONS>
18  21  8
18  22  8
19  23  8
20  23  8
21  24  8
22  25  8
24  26  8
25  26  8
6  17  8
6  19  8
7  17  8
7  20  8
8  29  6
9  16  6

$$$$
