137662136
  -OEChem-09292322002D

 64 67  0     1  0  0  0  0  0999 V2000
    6.0210   -2.8390    0.0000 O   0  0  0  0  0  0  0  0  0  0  0  0
    3.8426   -1.0672    0.0000 O   0  0  0  0  0  0  0  0  0  0  0  0
    4.2274    1.5504    0.0000 O   0  0  0  0  0  0  0  0  0  0  0  0
    5.8156   -4.5846    0.0000 N   0  0  0  0  0  0  0  0  0  0  0  0
    4.4568   -3.6407    0.0000 N   0  0  0  0  0  0  0  0  0  0  0  0
    7.5476   -6.5846    0.0000 N   0  0  0  0  0  0  0  0  0  0  0  0
    6.6816   -6.0846    0.0000 C   0  0  1  0  0  0  0  0  0  0  0  0
    6.6816   -5.0846    0.0000 C   0  0  0  0  0  0  0  0  0  0  0  0
    4.9496   -5.0846    0.0000 C   0  0  0  0  0  0  0  0  0  0  0  0
    5.8156   -6.5846    0.0000 C   0  0  0  0  0  0  0  0  0  0  0  0
    4.9496   -6.0846    0.0000 C   0  0  0  0  0  0  0  0  0  0  0  0
    4.0556   -4.5499    0.0000 C   0  0  0  0  0  0  0  0  0  0  0  0
    5.4505   -3.6603    0.0000 C   0  0  0  0  0  0  0  0  0  0  0  0
    4.0556   -6.6192    0.0000 C   0  0  0  0  0  0  0  0  0  0  0  0
    3.9191   -2.7976    0.0000 C   0  0  0  0  0  0  0  0  0  0  0  0
    3.1496   -5.0638    0.0000 C   0  0  0  0  0  0  0  0  0  0  0  0
    3.1496   -6.1054    0.0000 C   0  0  0  0  0  0  0  0  0  0  0  0
    4.3804   -1.9103    0.0000 C   0  0  0  0  0  0  0  0  0  0  0  0
    7.5476   -7.5846    0.0000 C   0  0  0  0  0  0  0  0  0  0  0  0
    4.3039   -0.1800    0.0000 C   0  0  0  0  0  0  0  0  0  0  0  0
    3.7662    0.6631    0.0000 C   0  0  0  0  0  0  0  0  0  0  0  0
    4.1510    3.2808    0.0000 C   0  0  0  0  0  0  0  0  0  0  0  0
    3.6132    4.1239    0.0000 C   0  0  0  0  0  0  0  0  0  0  0  0
    3.6897    2.3935    0.0000 C   0  0  0  0  0  0  0  0  0  0  0  0
    4.0745    5.0111    0.0000 C   0  0  0  0  0  0  0  0  0  0  0  0
    3.5368    5.8542    0.0000 C   0  0  0  0  0  0  0  0  0  0  0  0
    2.5378    5.8101    0.0000 C   0  0  0  0  0  0  0  0  0  0  0  0
    3.9980    6.7415    0.0000 C   0  0  0  0  0  0  0  0  0  0  0  0
    2.0000    6.6532    0.0000 C   0  0  0  0  0  0  0  0  0  0  0  0
    3.4603    7.5846    0.0000 C   0  0  0  0  0  0  0  0  0  0  0  0
    2.4613    7.5404    0.0000 C   0  0  0  0  0  0  0  0  0  0  0  0
    6.6816   -6.7046    0.0000 H   0  0  0  0  0  0  0  0  0  0  0  0
    7.2922   -5.1922    0.0000 H   0  0  0  0  0  0  0  0  0  0  0  0
    6.8937   -4.5020    0.0000 H   0  0  0  0  0  0  0  0  0  0  0  0
    5.4171   -7.0595    0.0000 H   0  0  0  0  0  0  0  0  0  0  0  0
    6.2141   -7.0595    0.0000 H   0  0  0  0  0  0  0  0  0  0  0  0
    8.0846   -6.2746    0.0000 H   0  0  0  0  0  0  0  0  0  0  0  0
    4.0628   -7.2392    0.0000 H   0  0  0  0  0  0  0  0  0  0  0  0
    3.4270   -2.4204    0.0000 H   0  0  0  0  0  0  0  0  0  0  0  0
    3.4622   -3.2167    0.0000 H   0  0  0  0  0  0  0  0  0  0  0  0
    2.6138   -4.7517    0.0000 H   0  0  0  0  0  0  0  0  0  0  0  0
    2.6138   -6.4175    0.0000 H   0  0  0  0  0  0  0  0  0  0  0  0
    4.8725   -2.2875    0.0000 H   0  0  0  0  0  0  0  0  0  0  0  0
    4.8373   -1.4912    0.0000 H   0  0  0  0  0  0  0  0  0  0  0  0
    6.9276   -7.5846    0.0000 H   0  0  0  0  0  0  0  0  0  0  0  0
    7.5476   -8.2046    0.0000 H   0  0  0  0  0  0  0  0  0  0  0  0
    8.1676   -7.5846    0.0000 H   0  0  0  0  0  0  0  0  0  0  0  0
    4.7960   -0.5571    0.0000 H   0  0  0  0  0  0  0  0  0  0  0  0
    4.7608    0.2391    0.0000 H   0  0  0  0  0  0  0  0  0  0  0  0
    3.2741    1.0403    0.0000 H   0  0  0  0  0  0  0  0  0  0  0  0
    3.3093    0.2440    0.0000 H   0  0  0  0  0  0  0  0  0  0  0  0
    4.6431    2.9036    0.0000 H   0  0  0  0  0  0  0  0  0  0  0  0
    4.6079    3.6999    0.0000 H   0  0  0  0  0  0  0  0  0  0  0  0
    3.1212    4.5010    0.0000 H   0  0  0  0  0  0  0  0  0  0  0  0
    3.1564    3.7048    0.0000 H   0  0  0  0  0  0  0  0  0  0  0  0
    3.1976    2.7707    0.0000 H   0  0  0  0  0  0  0  0  0  0  0  0
    3.2328    1.9744    0.0000 H   0  0  0  0  0  0  0  0  0  0  0  0
    4.5666    4.6339    0.0000 H   0  0  0  0  0  0  0  0  0  0  0  0
    4.5314    5.4302    0.0000 H   0  0  0  0  0  0  0  0  0  0  0  0
    2.2518    5.2600    0.0000 H   0  0  0  0  0  0  0  0  0  0  0  0
    4.6174    6.7688    0.0000 H   0  0  0  0  0  0  0  0  0  0  0  0
    1.3806    6.6258    0.0000 H   0  0  0  0  0  0  0  0  0  0  0  0
    3.7463    8.1347    0.0000 H   0  0  0  0  0  0  0  0  0  0  0  0
    2.1279    8.0632    0.0000 H   0  0  0  0  0  0  0  0  0  0  0  0
  1 13  2  0  0  0  0
  2 18  1  0  0  0  0
  2 20  1  0  0  0  0
  3 21  1  0  0  0  0
  3 24  1  0  0  0  0
  4  8  1  0  0  0  0
  4  9  1  0  0  0  0
  4 13  1  0  0  0  0
  5 12  1  0  0  0  0
  5 13  1  0  0  0  0
  5 15  1  0  0  0  0
  7  6  1  6  0  0  0
  6 19  1  0  0  0  0
  6 37  1  0  0  0  0
  7  8  1  0  0  0  0
  7 10  1  0  0  0  0
  7 32  1  0  0  0  0
  8 33  1  0  0  0  0
  8 34  1  0  0  0  0
  9 11  2  0  0  0  0
  9 12  1  0  0  0  0
 10 11  1  0  0  0  0
 10 35  1  0  0  0  0
 10 36  1  0  0  0  0
 11 14  1  0  0  0  0
 12 16  2  0  0  0  0
 14 17  2  0  0  0  0
 14 38  1  0  0  0  0
 15 18  1  0  0  0  0
 15 39  1  0  0  0  0
 15 40  1  0  0  0  0
 16 17  1  0  0  0  0
 16 41  1  0  0  0  0
 17 42  1  0  0  0  0
 18 43  1  0  0  0  0
 18 44  1  0  0  0  0
 19 45  1  0  0  0  0
 19 46  1  0  0  0  0
 19 47  1  0  0  0  0
 20 21  1  0  0  0  0
 20 48  1  0  0  0  0
 20 49  1  0  0  0  0
 21 50  1  0  0  0  0
 21 51  1  0  0  0  0
 22 23  1  0  0  0  0
 22 24  1  0  0  0  0
 22 52  1  0  0  0  0
 22 53  1  0  0  0  0
 23 25  1  0  0  0  0
 23 54  1  0  0  0  0
 23 55  1  0  0  0  0
 24 56  1  0  0  0  0
 24 57  1  0  0  0  0
 25 26  1  0  0  0  0
 25 58  1  0  0  0  0
 25 59  1  0  0  0  0
 26 27  2  0  0  0  0
 26 28  1  0  0  0  0
 27 29  1  0  0  0  0
 27 60  1  0  0  0  0
 28 30  2  0  0  0  0
 28 61  1  0  0  0  0
 29 31  2  0  0  0  0
 29 62  1  0  0  0  0
 30 31  1  0  0  0  0
 30 63  1  0  0  0  0
 31 64  1  0  0  0  0
M  END
> <PUBCHEM_COMPOUND_CID>
137662136

> <PUBCHEM_COMPOUND_CANONICALIZED>
1

> <PUBCHEM_CACTVS_COMPLEXITY>
554

> <PUBCHEM_CACTVS_HBOND_ACCEPTOR>
4

> <PUBCHEM_CACTVS_HBOND_DONOR>
1

> <PUBCHEM_CACTVS_ROTATABLE_BOND>
12

> <PUBCHEM_CACTVS_SUBSKEYS>
AAADcfB7MAAAAAAAAAAAAAAAAAAAAWAAAAA8YIAAAAAAAFixQAAAHgAQAAAADCjhmAYzwIPABACIAiRCUACCAAAhAgAIiIAIdIiLYCLAkZGXIAhslgLayCeQwLAOAAAAQAACACAAAACAAAQAQAAAAAAAAA==

> <PUBCHEM_IUPAC_OPENEYE_NAME>
(10R)-10-(methylamino)-3-[2-[2-(4-phenylbutoxy)ethoxy]ethyl]-1,3-diazatricyclo[6.3.1.04,12]dodeca-4,6,8(12)-trien-2-one

> <PUBCHEM_IUPAC_CAS_NAME>
(10R)-10-(methylamino)-3-[2-[2-(4-phenylbutoxy)ethoxy]ethyl]-1,3-diazatricyclo[6.3.1.04,12]dodeca-4,6,8(12)-trien-2-one

> <PUBCHEM_IUPAC_NAME_MARKUP>
(10<I>R</I>)-10-(methylamino)-3-[2-[2-(4-phenylbutoxy)ethoxy]ethyl]-1,3-diazatricyclo[6.3.1.0<SUP>4,12</SUP>]dodeca-4,6,8(12)-trien-2-one

> <PUBCHEM_IUPAC_NAME>
(10R)-10-(methylamino)-3-[2-[2-(4-phenylbutoxy)ethoxy]ethyl]-1,3-diazatricyclo[6.3.1.04,12]dodeca-4,6,8(12)-trien-2-one

> <PUBCHEM_IUPAC_SYSTEMATIC_NAME>
(10R)-10-(methylamino)-3-[2-[2-(4-phenylbutoxy)ethoxy]ethyl]-1,3-diazatricyclo[6.3.1.04,12]dodeca-4,6,8(12)-trien-2-one

> <PUBCHEM_IUPAC_TRADITIONAL_NAME>
(10R)-10-(methylamino)-3-[2-[2-(4-phenylbutoxy)ethoxy]ethyl]-1,3-diazatricyclo[6.3.1.04,12]dodeca-4,6,8(12)-trien-2-one

> <PUBCHEM_IUPAC_INCHI>
InChI=1S/C25H33N3O3/c1-26-22-18-21-11-7-12-23-24(21)28(19-22)25(29)27(23)13-15-31-17-16-30-14-6-5-10-20-8-3-2-4-9-20/h2-4,7-9,11-12,22,26H,5-6,10,13-19H2,1H3/t22-/m1/s1

> <PUBCHEM_IUPAC_INCHIKEY>
FEPLZHWENCAUEC-JOCHJYFZSA-N

> <PUBCHEM_XLOGP3_AA>
3

> <PUBCHEM_EXACT_MASS>
423.25219192

> <PUBCHEM_MOLECULAR_FORMULA>
C25H33N3O3

> <PUBCHEM_MOLECULAR_WEIGHT>
423.5

> <PUBCHEM_OPENEYE_CAN_SMILES>
CNC1CC2=C3C(=CC=C2)N(C(=O)N3C1)CCOCCOCCCCC4=CC=CC=C4

> <PUBCHEM_OPENEYE_ISO_SMILES>
CN[C@@H]1CC2=C3C(=CC=C2)N(C(=O)N3C1)CCOCCOCCCCC4=CC=CC=C4

> <PUBCHEM_CACTVS_TPSA>
54

> <PUBCHEM_MONOISOTOPIC_WEIGHT>
423.25219192

> <PUBCHEM_TOTAL_CHARGE>
0

> <PUBCHEM_HEAVY_ATOM_COUNT>
31

> <PUBCHEM_ATOM_DEF_STEREO_COUNT>
1

> <PUBCHEM_ATOM_UDEF_STEREO_COUNT>
0

> <PUBCHEM_BOND_DEF_STEREO_COUNT>
0

> <PUBCHEM_BOND_UDEF_STEREO_COUNT>
0

> <PUBCHEM_ISOTOPIC_ATOM_COUNT>
0

> <PUBCHEM_COMPONENT_COUNT>
1

> <PUBCHEM_CACTVS_TAUTO_COUNT>
-1

> <PUBCHEM_COORDINATE_TYPE>
1
5
255

> <PUBCHEM_BONDANNOTATIONS>
11  14  8
12  16  8
14  17  8
16  17  8
26  27  8
26  28  8
27  29  8
28  30  8
29  31  8
30  31  8
4  13  8
4  9  8
5  12  8
5  13  8
7  6  6
9  11  8
9  12  8

$$$$
