131001
  -OEChem-09292322502D

 41 42  0     1  0  0  0  0  0999 V2000
    4.6660   -2.2327    0.0000 O   0  0  0  0  0  0  0  0  0  0  0  0
    2.9176    0.8019    0.0000 O   0  0  0  0  0  0  0  0  0  0  0  0
    6.3981   -0.2327    0.0000 N   0  0  0  0  0  0  0  0  0  0  0  0
    5.5321   -0.7327    0.0000 C   0  0  3  0  0  0  0  0  0  0  0  0
    4.6660   -0.2327    0.0000 C   0  0  0  0  0  0  0  0  0  0  0  0
    5.5321   -1.7327    0.0000 C   0  0  0  0  0  0  0  0  0  0  0  0
    7.2641   -0.7327    0.0000 C   0  0  0  0  0  0  0  0  0  0  0  0
    6.3981    0.7673    0.0000 C   0  0  0  0  0  0  0  0  0  0  0  0
    3.8000   -0.7327    0.0000 C   0  0  0  0  0  0  0  0  0  0  0  0
    3.8000   -1.7327    0.0000 C   0  0  0  0  0  0  0  0  0  0  0  0
    8.1301   -0.2327    0.0000 C   0  0  0  0  0  0  0  0  0  0  0  0
    7.2641    1.2673    0.0000 C   0  0  0  0  0  0  0  0  0  0  0  0
    2.9061   -0.1980    0.0000 C   0  0  0  0  0  0  0  0  0  0  0  0
    2.9061   -2.2673    0.0000 C   0  0  0  0  0  0  0  0  0  0  0  0
    8.9962   -0.7327    0.0000 C   0  0  0  0  0  0  0  0  0  0  0  0
    7.2641    2.2673    0.0000 C   0  0  0  0  0  0  0  0  0  0  0  0
    2.0000   -0.7119    0.0000 C   0  0  0  0  0  0  0  0  0  0  0  0
    2.0000   -1.7535    0.0000 C   0  0  0  0  0  0  0  0  0  0  0  0
    5.5321   -0.1127    0.0000 H   0  0  0  0  0  0  0  0  0  0  0  0
    5.0646    0.2423    0.0000 H   0  0  0  0  0  0  0  0  0  0  0  0
    4.2675    0.2423    0.0000 H   0  0  0  0  0  0  0  0  0  0  0  0
    5.7441   -2.3153    0.0000 H   0  0  0  0  0  0  0  0  0  0  0  0
    6.1426   -1.6250    0.0000 H   0  0  0  0  0  0  0  0  0  0  0  0
    6.8656   -1.2076    0.0000 H   0  0  0  0  0  0  0  0  0  0  0  0
    7.6626   -1.2076    0.0000 H   0  0  0  0  0  0  0  0  0  0  0  0
    6.1860    1.3499    0.0000 H   0  0  0  0  0  0  0  0  0  0  0  0
    5.7875    0.6597    0.0000 H   0  0  0  0  0  0  0  0  0  0  0  0
    8.5287    0.2423    0.0000 H   0  0  0  0  0  0  0  0  0  0  0  0
    7.7316    0.2423    0.0000 H   0  0  0  0  0  0  0  0  0  0  0  0
    7.4762    0.6847    0.0000 H   0  0  0  0  0  0  0  0  0  0  0  0
    7.8747    1.3750    0.0000 H   0  0  0  0  0  0  0  0  0  0  0  0
    2.9132   -2.8873    0.0000 H   0  0  0  0  0  0  0  0  0  0  0  0
    8.6862   -1.2696    0.0000 H   0  0  0  0  0  0  0  0  0  0  0  0
    9.5331   -1.0427    0.0000 H   0  0  0  0  0  0  0  0  0  0  0  0
    9.3062   -0.1957    0.0000 H   0  0  0  0  0  0  0  0  0  0  0  0
    7.8841    2.2673    0.0000 H   0  0  0  0  0  0  0  0  0  0  0  0
    7.2641    2.8873    0.0000 H   0  0  0  0  0  0  0  0  0  0  0  0
    6.6441    2.2673    0.0000 H   0  0  0  0  0  0  0  0  0  0  0  0
    1.4643   -0.3998    0.0000 H   0  0  0  0  0  0  0  0  0  0  0  0
    1.4643   -2.0656    0.0000 H   0  0  0  0  0  0  0  0  0  0  0  0
    2.3843    1.1181    0.0000 H   0  0  0  0  0  0  0  0  0  0  0  0
  1  6  1  0  0  0  0
  1 10  1  0  0  0  0
  2 13  1  0  0  0  0
  2 41  1  0  0  0  0
  3  4  1  0  0  0  0
  3  7  1  0  0  0  0
  3  8  1  0  0  0  0
  4  5  1  0  0  0  0
  4  6  1  0  0  0  0
  4 19  1  0  0  0  0
  5  9  1  0  0  0  0
  5 20  1  0  0  0  0
  5 21  1  0  0  0  0
  6 22  1  0  0  0  0
  6 23  1  0  0  0  0
  7 11  1  0  0  0  0
  7 24  1  0  0  0  0
  7 25  1  0  0  0  0
  8 12  1  0  0  0  0
  8 26  1  0  0  0  0
  8 27  1  0  0  0  0
  9 10  1  0  0  0  0
  9 13  2  0  0  0  0
 10 14  2  0  0  0  0
 11 15  1  0  0  0  0
 11 28  1  0  0  0  0
 11 29  1  0  0  0  0
 12 16  1  0  0  0  0
 12 30  1  0  0  0  0
 12 31  1  0  0  0  0
 13 17  1  0  0  0  0
 14 18  1  0  0  0  0
 14 32  1  0  0  0  0
 15 33  1  0  0  0  0
 15 34  1  0  0  0  0
 15 35  1  0  0  0  0
 16 36  1  0  0  0  0
 16 37  1  0  0  0  0
 16 38  1  0  0  0  0
 17 18  2  0  0  0  0
 17 39  1  0  0  0  0
 18 40  1  0  0  0  0
M  END
> <PUBCHEM_COMPOUND_CID>
131001

> <PUBCHEM_COMPOUND_CANONICALIZED>
1

> <PUBCHEM_CACTVS_COMPLEXITY>
241

> <PUBCHEM_CACTVS_HBOND_ACCEPTOR>
3

> <PUBCHEM_CACTVS_HBOND_DONOR>
1

> <PUBCHEM_CACTVS_ROTATABLE_BOND>
5

> <PUBCHEM_CACTVS_SUBSKEYS>
AAADceByMAAAAAAAAAAAAAAAAAAAAAAAAAA0QAAAAAAAAACRAAAAHgAACAAADCzhmAYyBoMABgCAAiBCAAACCAAgIAAIiAAOCIgOJyKGsRuHeCClwBWYuAew4KwOAAAACAAIAAAAAAAQABAAAAAAAAAAAA==

> <PUBCHEM_IUPAC_OPENEYE_NAME>
3-(dipropylamino)chroman-5-ol

> <PUBCHEM_IUPAC_CAS_NAME>
3-(dipropylamino)-3,4-dihydro-2H-1-benzopyran-5-ol

> <PUBCHEM_IUPAC_NAME_MARKUP>
3-(dipropylamino)-3,4-dihydro-2<I>H</I>-chromen-5-ol

> <PUBCHEM_IUPAC_NAME>
3-(dipropylamino)-3,4-dihydro-2H-chromen-5-ol

> <PUBCHEM_IUPAC_SYSTEMATIC_NAME>
3-(dipropylamino)-3,4-dihydro-2H-chromen-5-ol

> <PUBCHEM_IUPAC_TRADITIONAL_NAME>
3-(dipropylamino)chroman-5-ol

> <PUBCHEM_IUPAC_INCHI>
InChI=1S/C15H23NO2/c1-3-8-16(9-4-2)12-10-13-14(17)6-5-7-15(13)18-11-12/h5-7,12,17H,3-4,8-11H2,1-2H3

> <PUBCHEM_IUPAC_INCHIKEY>
QPVJRLOTNHJYTL-UHFFFAOYSA-N

> <PUBCHEM_XLOGP3_AA>
3.5

> <PUBCHEM_EXACT_MASS>
249.172878976

> <PUBCHEM_MOLECULAR_FORMULA>
C15H23NO2

> <PUBCHEM_MOLECULAR_WEIGHT>
249.35

> <PUBCHEM_OPENEYE_CAN_SMILES>
CCCN(CCC)C1CC2=C(C=CC=C2OC1)O

> <PUBCHEM_OPENEYE_ISO_SMILES>
CCCN(CCC)C1CC2=C(C=CC=C2OC1)O

> <PUBCHEM_CACTVS_TPSA>
32.7

> <PUBCHEM_MONOISOTOPIC_WEIGHT>
249.172878976

> <PUBCHEM_TOTAL_CHARGE>
0

> <PUBCHEM_HEAVY_ATOM_COUNT>
18

> <PUBCHEM_ATOM_DEF_STEREO_COUNT>
0

> <PUBCHEM_ATOM_UDEF_STEREO_COUNT>
1

> <PUBCHEM_BOND_DEF_STEREO_COUNT>
0

> <PUBCHEM_BOND_UDEF_STEREO_COUNT>
0

> <PUBCHEM_ISOTOPIC_ATOM_COUNT>
0

> <PUBCHEM_COMPONENT_COUNT>
1

> <PUBCHEM_CACTVS_TAUTO_COUNT>
-1

> <PUBCHEM_COORDINATE_TYPE>
1
5
255

> <PUBCHEM_BONDANNOTATIONS>
10  14  8
13  17  8
14  18  8
17  18  8
4  3  3
9  10  8
9  13  8

$$$$
