10593347
  -OEChem-09292322512D

 49 53  0     1  0  0  0  0  0999 V2000
    3.7817    2.7548    0.0000 O   0  0  0  0  0  0  0  0  0  0  0  0
    7.2544   -0.2767    0.0000 N   0  0  3  0  0  0  0  0  0  0  0  0
    6.3961    0.2202    0.0000 C   0  0  1  0  0  0  0  0  0  0  0  0
    6.3961    1.2202    0.0000 C   0  0  0  0  0  0  0  0  0  0  0  0
    5.5301   -0.2798    0.0000 C   0  0  0  0  0  0  0  0  0  0  0  0
    8.1198    0.2074    0.0000 C   0  0  0  0  0  0  0  0  0  0  0  0
    7.3062    1.7270    0.0000 C   0  0  0  0  0  0  0  0  0  0  0  0
    8.1455    1.1988    0.0000 C   0  0  0  0  0  0  0  0  0  0  0  0
    5.5301    1.7202    0.0000 C   0  0  0  0  0  0  0  0  0  0  0  0
    4.6641    0.2202    0.0000 C   0  0  0  0  0  0  0  0  0  0  0  0
    4.6641    1.2202    0.0000 C   0  0  0  0  0  0  0  0  0  0  0  0
    7.2470   -1.2767    0.0000 C   0  0  0  0  0  0  0  0  0  0  0  0
    7.3142    2.7686    0.0000 C   0  0  0  0  0  0  0  0  0  0  0  0
    5.5141    2.7617    0.0000 C   0  0  0  0  0  0  0  0  0  0  0  0
    3.7702    1.7549    0.0000 C   0  0  0  0  0  0  0  0  0  0  0  0
    3.7702   -0.3145    0.0000 C   0  0  0  0  0  0  0  0  0  0  0  0
    6.4121    3.2895    0.0000 C   0  0  0  0  0  0  0  0  0  0  0  0
    8.1093   -1.7831    0.0000 C   0  0  0  0  0  0  0  0  0  0  0  0
    2.8641    1.2410    0.0000 C   0  0  0  0  0  0  0  0  0  0  0  0
    2.8641    0.1994    0.0000 C   0  0  0  0  0  0  0  0  0  0  0  0
    8.1019   -2.7831    0.0000 C   0  0  0  0  0  0  0  0  0  0  0  0
    8.9790   -1.2895    0.0000 C   0  0  0  0  0  0  0  0  0  0  0  0
    2.0000    1.7444    0.0000 C   0  0  0  0  0  0  0  0  0  0  0  0
    8.9642   -3.2895    0.0000 C   0  0  0  0  0  0  0  0  0  0  0  0
    9.8413   -1.7959    0.0000 C   0  0  0  0  0  0  0  0  0  0  0  0
    9.8339   -2.7959    0.0000 C   0  0  0  0  0  0  0  0  0  0  0  0
    6.3956   -0.6298    0.0000 H   0  0  0  0  0  0  0  0  0  0  0  0
    5.1316   -0.7547    0.0000 H   0  0  0  0  0  0  0  0  0  0  0  0
    5.9286   -0.7547    0.0000 H   0  0  0  0  0  0  0  0  0  0  0  0
    8.3216   -0.3788    0.0000 H   0  0  0  0  0  0  0  0  0  0  0  0
    8.7326    0.3018    0.0000 H   0  0  0  0  0  0  0  0  0  0  0  0
    8.7526    1.0729    0.0000 H   0  0  0  0  0  0  0  0  0  0  0  0
    8.3772    1.7739    0.0000 H   0  0  0  0  0  0  0  0  0  0  0  0
    6.6372   -1.1645    0.0000 H   0  0  0  0  0  0  0  0  0  0  0  0
    7.0306   -1.8577    0.0000 H   0  0  0  0  0  0  0  0  0  0  0  0
    7.8523    3.0766    0.0000 H   0  0  0  0  0  0  0  0  0  0  0  0
    4.9736    3.0655    0.0000 H   0  0  0  0  0  0  0  0  0  0  0  0
    3.7773   -0.9344    0.0000 H   0  0  0  0  0  0  0  0  0  0  0  0
    6.4097    3.9095    0.0000 H   0  0  0  0  0  0  0  0  0  0  0  0
    2.3284   -0.1127    0.0000 H   0  0  0  0  0  0  0  0  0  0  0  0
    7.5626   -3.0891    0.0000 H   0  0  0  0  0  0  0  0  0  0  0  0
    8.9836   -0.6695    0.0000 H   0  0  0  0  0  0  0  0  0  0  0  0
    2.3121    2.2801    0.0000 H   0  0  0  0  0  0  0  0  0  0  0  0
    1.4643    2.0564    0.0000 H   0  0  0  0  0  0  0  0  0  0  0  0
    1.6879    1.2086    0.0000 H   0  0  0  0  0  0  0  0  0  0  0  0
    3.2484    3.0710    0.0000 H   0  0  0  0  0  0  0  0  0  0  0  0
    8.9596   -3.9094    0.0000 H   0  0  0  0  0  0  0  0  0  0  0  0
   10.3805   -1.4899    0.0000 H   0  0  0  0  0  0  0  0  0  0  0  0
   10.3685   -3.1098    0.0000 H   0  0  0  0  0  0  0  0  0  0  0  0
  1 15  1  0  0  0  0
  1 46  1  0  0  0  0
  2  3  1  0  0  0  0
  2  6  1  0  0  0  0
  2 12  1  0  0  0  0
  3  4  1  0  0  0  0
  3  5  1  0  0  0  0
  3 27  1  1  0  0  0
  4  7  2  0  0  0  0
  4  9  1  0  0  0  0
  5 10  1  0  0  0  0
  5 28  1  0  0  0  0
  5 29  1  0  0  0  0
  6  8  1  0  0  0  0
  6 30  1  0  0  0  0
  6 31  1  0  0  0  0
  7  8  1  0  0  0  0
  7 13  1  0  0  0  0
  8 32  1  0  0  0  0
  8 33  1  0  0  0  0
  9 11  1  0  0  0  0
  9 14  2  0  0  0  0
 10 11  2  0  0  0  0
 10 16  1  0  0  0  0
 11 15  1  0  0  0  0
 12 18  1  0  0  0  0
 12 34  1  0  0  0  0
 12 35  1  0  0  0  0
 13 17  2  0  0  0  0
 13 36  1  0  0  0  0
 14 17  1  0  0  0  0
 14 37  1  0  0  0  0
 15 19  2  0  0  0  0
 16 20  2  0  0  0  0
 16 38  1  0  0  0  0
 17 39  1  0  0  0  0
 18 21  2  0  0  0  0
 18 22  1  0  0  0  0
 19 20  1  0  0  0  0
 19 23  1  0  0  0  0
 20 40  1  0  0  0  0
 21 24  1  0  0  0  0
 21 41  1  0  0  0  0
 22 25  2  0  0  0  0
 22 42  1  0  0  0  0
 23 43  1  0  0  0  0
 23 44  1  0  0  0  0
 23 45  1  0  0  0  0
 24 26  2  0  0  0  0
 24 47  1  0  0  0  0
 25 26  1  0  0  0  0
 25 48  1  0  0  0  0
 26 49  1  0  0  0  0
M  END
> <PUBCHEM_COMPOUND_CID>
10593347

> <PUBCHEM_COMPOUND_CANONICALIZED>
1

> <PUBCHEM_CACTVS_COMPLEXITY>
487

> <PUBCHEM_CACTVS_HBOND_ACCEPTOR>
2

> <PUBCHEM_CACTVS_HBOND_DONOR>
1

> <PUBCHEM_CACTVS_ROTATABLE_BOND>
2

> <PUBCHEM_CACTVS_SUBSKEYS>
AAADceB6IAAAAAAAAAAAAAAAAAAAAAAAAAA8YMGCAAAAAADxUAAAHgAACAAADCzBmAQyBoMAAgCAAiBCAACCAAAgIAAIiAAMDIgIJiKCkROEcAhkwBGImAeQ0PMOwAADAAAYAACQAAaAADQAAAAAAAAAAA==

> <PUBCHEM_IUPAC_OPENEYE_NAME>
(6aR)-6-benzyl-10-methyl-5,6,6a,7-tetrahydro-4H-dibenzo[de,g]quinolin-11-ol

> <PUBCHEM_IUPAC_CAS_NAME>
(6aR)-10-methyl-6-(phenylmethyl)-5,6,6a,7-tetrahydro-4H-dibenzo[de,g]quinolin-11-ol

> <PUBCHEM_IUPAC_NAME_MARKUP>
(6<I>a</I><I>R</I>)-6-benzyl-10-methyl-5,6,6<I>a</I>,7-tetrahydro-4<I>H</I>-dibenzo[de,g]quinolin-11-ol

> <PUBCHEM_IUPAC_NAME>
(6aR)-6-benzyl-10-methyl-5,6,6a,7-tetrahydro-4H-dibenzo[de,g]quinolin-11-ol

> <PUBCHEM_IUPAC_SYSTEMATIC_NAME>
(6aR)-10-methyl-6-(phenylmethyl)-5,6,6a,7-tetrahydro-4H-dibenzo[de,g]quinolin-11-ol

> <PUBCHEM_IUPAC_TRADITIONAL_NAME>
(6aR)-6-benzyl-10-methyl-5,6,6a,7-tetrahydro-4H-dibenzo[de,g]quinolin-11-ol

> <PUBCHEM_IUPAC_INCHI>
InChI=1S/C24H23NO/c1-16-10-11-19-14-21-22-18(8-5-9-20(22)23(19)24(16)26)12-13-25(21)15-17-6-3-2-4-7-17/h2-11,21,26H,12-15H2,1H3/t21-/m1/s1

> <PUBCHEM_IUPAC_INCHIKEY>
GWXIMTBMRWMHCD-OAQYLSRUSA-N

> <PUBCHEM_XLOGP3_AA>
5

> <PUBCHEM_EXACT_MASS>
341.177964357

> <PUBCHEM_MOLECULAR_FORMULA>
C24H23NO

> <PUBCHEM_MOLECULAR_WEIGHT>
341.4

> <PUBCHEM_OPENEYE_CAN_SMILES>
CC1=C(C2=C(CC3C4=C(CCN3CC5=CC=CC=C5)C=CC=C42)C=C1)O

> <PUBCHEM_OPENEYE_ISO_SMILES>
CC1=C(C2=C(C[C@@H]3C4=C(CCN3CC5=CC=CC=C5)C=CC=C42)C=C1)O

> <PUBCHEM_CACTVS_TPSA>
23.5

> <PUBCHEM_MONOISOTOPIC_WEIGHT>
341.177964357

> <PUBCHEM_TOTAL_CHARGE>
0

> <PUBCHEM_HEAVY_ATOM_COUNT>
26

> <PUBCHEM_ATOM_DEF_STEREO_COUNT>
1

> <PUBCHEM_ATOM_UDEF_STEREO_COUNT>
0

> <PUBCHEM_BOND_DEF_STEREO_COUNT>
0

> <PUBCHEM_BOND_UDEF_STEREO_COUNT>
0

> <PUBCHEM_ISOTOPIC_ATOM_COUNT>
0

> <PUBCHEM_COMPONENT_COUNT>
1

> <PUBCHEM_CACTVS_TAUTO_COUNT>
-1

> <PUBCHEM_COORDINATE_TYPE>
1
5
255

> <PUBCHEM_BONDANNOTATIONS>
10  11  8
10  16  8
11  15  8
13  17  8
14  17  8
15  19  8
16  20  8
18  21  8
18  22  8
19  20  8
21  24  8
22  25  8
24  26  8
25  26  8
3  27  5
4  7  8
4  9  8
7  13  8
9  14  8

$$$$
