10384998
  -OEChem-09292322212D

 54 57  0     0  0  0  0  0  0999 V2000
    9.7884    0.4839    0.0000 O   0  0  0  0  0  0  0  0  0  0  0  0
   13.3185    0.5081    0.0000 O   0  0  0  0  0  0  0  0  0  0  0  0
   15.0506    0.5081    0.0000 O   0  0  0  0  0  0  0  0  0  0  0  0
    6.3243    0.4706    0.0000 N   0  0  0  0  0  0  0  0  0  0  0  0
    4.5961   -0.5361    0.0000 N   0  0  0  0  0  0  0  0  0  0  0  0
    6.3282   -0.5294    0.0000 C   0  0  0  0  0  0  0  0  0  0  0  0
    5.4564    0.9672    0.0000 C   0  0  0  0  0  0  0  0  0  0  0  0
    5.4641   -1.0327    0.0000 C   0  0  0  0  0  0  0  0  0  0  0  0
    4.5923    0.4639    0.0000 C   0  0  0  0  0  0  0  0  0  0  0  0
    7.1884    0.9739    0.0000 C   0  0  0  0  0  0  0  0  0  0  0  0
    8.0564    0.4773    0.0000 C   0  0  0  0  0  0  0  0  0  0  0  0
    3.7320   -1.0394    0.0000 C   0  0  0  0  0  0  0  0  0  0  0  0
    8.9204    0.9806    0.0000 C   0  0  0  0  0  0  0  0  0  0  0  0
    3.7359   -2.0394    0.0000 C   0  0  0  0  0  0  0  0  0  0  0  0
    2.8641   -0.5428    0.0000 C   0  0  0  0  0  0  0  0  0  0  0  0
    2.8718   -2.5428    0.0000 C   0  0  0  0  0  0  0  0  0  0  0  0
    2.0000   -1.0461    0.0000 C   0  0  0  0  0  0  0  0  0  0  0  0
    2.0038   -2.0461    0.0000 C   0  0  0  0  0  0  0  0  0  0  0  0
   10.6525    0.9873    0.0000 C   0  0  0  0  0  0  0  0  0  0  0  0
   11.5585    0.4734    0.0000 C   0  0  0  0  0  0  0  0  0  0  0  0
   10.6525    2.0289    0.0000 C   0  0  0  0  0  0  0  0  0  0  0  0
   12.4525    1.0081    0.0000 C   0  0  0  0  0  0  0  0  0  0  0  0
   12.4525    2.0081    0.0000 C   0  0  0  0  0  0  0  0  0  0  0  0
   11.5585    2.5428    0.0000 C   0  0  0  0  0  0  0  0  0  0  0  0
   13.3185    2.5081    0.0000 C   0  0  0  0  0  0  0  0  0  0  0  0
   14.1845    2.0081    0.0000 C   0  0  0  0  0  0  0  0  0  0  0  0
   14.1845    1.0081    0.0000 C   0  0  0  0  0  0  0  0  0  0  0  0
   15.0506    2.5081    0.0000 C   0  0  0  0  0  0  0  0  0  0  0  0
    6.5425   -1.1112    0.0000 H   0  0  0  0  0  0  0  0  0  0  0  0
    6.9383   -0.4194    0.0000 H   0  0  0  0  0  0  0  0  0  0  0  0
    5.8531    1.4437    0.0000 H   0  0  0  0  0  0  0  0  0  0  0  0
    5.0560    1.4406    0.0000 H   0  0  0  0  0  0  0  0  0  0  0  0
    5.0674   -1.5092    0.0000 H   0  0  0  0  0  0  0  0  0  0  0  0
    5.8644   -1.5062    0.0000 H   0  0  0  0  0  0  0  0  0  0  0  0
    4.3780    1.0457    0.0000 H   0  0  0  0  0  0  0  0  0  0  0  0
    3.9821    0.3539    0.0000 H   0  0  0  0  0  0  0  0  0  0  0  0
    7.5851    1.4504    0.0000 H   0  0  0  0  0  0  0  0  0  0  0  0
    6.7880    1.4473    0.0000 H   0  0  0  0  0  0  0  0  0  0  0  0
    7.6597    0.0008    0.0000 H   0  0  0  0  0  0  0  0  0  0  0  0
    8.4567    0.0039    0.0000 H   0  0  0  0  0  0  0  0  0  0  0  0
    9.3171    1.4571    0.0000 H   0  0  0  0  0  0  0  0  0  0  0  0
    8.5201    1.4540    0.0000 H   0  0  0  0  0  0  0  0  0  0  0  0
    4.2740   -2.3473    0.0000 H   0  0  0  0  0  0  0  0  0  0  0  0
    2.8617    0.0772    0.0000 H   0  0  0  0  0  0  0  0  0  0  0  0
    2.8742   -3.1627    0.0000 H   0  0  0  0  0  0  0  0  0  0  0  0
    1.4619   -0.7382    0.0000 H   0  0  0  0  0  0  0  0  0  0  0  0
    1.4681   -2.3582    0.0000 H   0  0  0  0  0  0  0  0  0  0  0  0
   11.5657   -0.1465    0.0000 H   0  0  0  0  0  0  0  0  0  0  0  0
   10.1167    2.3410    0.0000 H   0  0  0  0  0  0  0  0  0  0  0  0
   11.5657    3.1627    0.0000 H   0  0  0  0  0  0  0  0  0  0  0  0
   13.3185    3.1281    0.0000 H   0  0  0  0  0  0  0  0  0  0  0  0
   15.3606    1.9712    0.0000 H   0  0  0  0  0  0  0  0  0  0  0  0
   15.5875    2.8181    0.0000 H   0  0  0  0  0  0  0  0  0  0  0  0
   14.7406    3.0450    0.0000 H   0  0  0  0  0  0  0  0  0  0  0  0
  1 13  1  0  0  0  0
  1 19  1  0  0  0  0
  2 22  1  0  0  0  0
  2 27  1  0  0  0  0
  3 27  2  0  0  0  0
  4  6  1  0  0  0  0
  4  7  1  0  0  0  0
  4 10  1  0  0  0  0
  5  8  1  0  0  0  0
  5  9  1  0  0  0  0
  5 12  1  0  0  0  0
  6  8  1  0  0  0  0
  6 29  1  0  0  0  0
  6 30  1  0  0  0  0
  7  9  1  0  0  0  0
  7 31  1  0  0  0  0
  7 32  1  0  0  0  0
  8 33  1  0  0  0  0
  8 34  1  0  0  0  0
  9 35  1  0  0  0  0
  9 36  1  0  0  0  0
 10 11  1  0  0  0  0
 10 37  1  0  0  0  0
 10 38  1  0  0  0  0
 11 13  1  0  0  0  0
 11 39  1  0  0  0  0
 11 40  1  0  0  0  0
 12 14  2  0  0  0  0
 12 15  1  0  0  0  0
 13 41  1  0  0  0  0
 13 42  1  0  0  0  0
 14 16  1  0  0  0  0
 14 43  1  0  0  0  0
 15 17  2  0  0  0  0
 15 44  1  0  0  0  0
 16 18  2  0  0  0  0
 16 45  1  0  0  0  0
 17 18  1  0  0  0  0
 17 46  1  0  0  0  0
 18 47  1  0  0  0  0
 19 20  2  0  0  0  0
 19 21  1  0  0  0  0
 20 22  1  0  0  0  0
 20 48  1  0  0  0  0
 21 24  2  0  0  0  0
 21 49  1  0  0  0  0
 22 23  2  0  0  0  0
 23 24  1  0  0  0  0
 23 25  1  0  0  0  0
 24 50  1  0  0  0  0
 25 26  2  0  0  0  0
 25 51  1  0  0  0  0
 26 27  1  0  0  0  0
 26 28  1  0  0  0  0
 28 52  1  0  0  0  0
 28 53  1  0  0  0  0
 28 54  1  0  0  0  0
M  END
> <PUBCHEM_COMPOUND_CID>
10384998

> <PUBCHEM_COMPOUND_CANONICALIZED>
1

> <PUBCHEM_CACTVS_COMPLEXITY>
550

> <PUBCHEM_CACTVS_HBOND_ACCEPTOR>
5

> <PUBCHEM_CACTVS_HBOND_DONOR>
0

> <PUBCHEM_CACTVS_ROTATABLE_BOND>
6

> <PUBCHEM_CACTVS_SUBSKEYS>
AAADceB7MAAAAAAAAAAAAAAAAAAAAAAAAAA8YIEAAAAAAACBQAAAHgAAAAAADAzhmAYyzoMABACIAiTSSACCCAAhIgAIiAEObMgMZyLEsZuWOijnwBXI6YeQ4CwOIAAACAAIAABAAAAQABAAAAAAAAAAAA==

> <PUBCHEM_IUPAC_OPENEYE_NAME>
3-methyl-7-[3-(4-phenylpiperazin-1-yl)propoxy]chromen-2-one

> <PUBCHEM_IUPAC_CAS_NAME>
3-methyl-7-[3-(4-phenyl-1-piperazinyl)propoxy]-1-benzopyran-2-one

> <PUBCHEM_IUPAC_NAME_MARKUP>
3-methyl-7-[3-(4-phenylpiperazin-1-yl)propoxy]chromen-2-one

> <PUBCHEM_IUPAC_NAME>
3-methyl-7-[3-(4-phenylpiperazin-1-yl)propoxy]chromen-2-one

> <PUBCHEM_IUPAC_SYSTEMATIC_NAME>
3-methyl-7-[3-(4-phenylpiperazin-1-yl)propoxy]chromen-2-one

> <PUBCHEM_IUPAC_TRADITIONAL_NAME>
3-methyl-7-[3-(4-phenylpiperazino)propoxy]coumarin

> <PUBCHEM_IUPAC_INCHI>
InChI=1S/C23H26N2O3/c1-18-16-19-8-9-21(17-22(19)28-23(18)26)27-15-5-10-24-11-13-25(14-12-24)20-6-3-2-4-7-20/h2-4,6-9,16-17H,5,10-15H2,1H3

> <PUBCHEM_IUPAC_INCHIKEY>
GKYBNMJPQSRWPC-UHFFFAOYSA-N

> <PUBCHEM_XLOGP3_AA>
4.2

> <PUBCHEM_EXACT_MASS>
378.19434270

> <PUBCHEM_MOLECULAR_FORMULA>
C23H26N2O3

> <PUBCHEM_MOLECULAR_WEIGHT>
378.5

> <PUBCHEM_OPENEYE_CAN_SMILES>
CC1=CC2=C(C=C(C=C2)OCCCN3CCN(CC3)C4=CC=CC=C4)OC1=O

> <PUBCHEM_OPENEYE_ISO_SMILES>
CC1=CC2=C(C=C(C=C2)OCCCN3CCN(CC3)C4=CC=CC=C4)OC1=O

> <PUBCHEM_CACTVS_TPSA>
42

> <PUBCHEM_MONOISOTOPIC_WEIGHT>
378.19434270

> <PUBCHEM_TOTAL_CHARGE>
0

> <PUBCHEM_HEAVY_ATOM_COUNT>
28

> <PUBCHEM_ATOM_DEF_STEREO_COUNT>
0

> <PUBCHEM_ATOM_UDEF_STEREO_COUNT>
0

> <PUBCHEM_BOND_DEF_STEREO_COUNT>
0

> <PUBCHEM_BOND_UDEF_STEREO_COUNT>
0

> <PUBCHEM_ISOTOPIC_ATOM_COUNT>
0

> <PUBCHEM_COMPONENT_COUNT>
1

> <PUBCHEM_CACTVS_TAUTO_COUNT>
-1

> <PUBCHEM_COORDINATE_TYPE>
1
5
255

> <PUBCHEM_BONDANNOTATIONS>
12  14  8
12  15  8
14  16  8
15  17  8
16  18  8
17  18  8
19  20  8
19  21  8
2  22  8
2  27  8
20  22  8
21  24  8
22  23  8
23  24  8
23  25  8
25  26  8
26  27  8

$$$$
