127040697
  -OEChem-09292322472D

 56 59  0     1  0  0  0  0  0999 V2000
    5.7567    2.5285    0.0000 S   0  0  0  0  0  0  0  0  0  0  0  0
    8.3548   -6.9715    0.0000 F   0  0  0  0  0  0  0  0  0  0  0  0
    7.3548   -5.9715    0.0000 F   0  0  0  0  0  0  0  0  0  0  0  0
    9.3548   -5.9715    0.0000 F   0  0  0  0  0  0  0  0  0  0  0  0
    9.2208   -1.4715    0.0000 O   0  0  0  0  0  0  0  0  0  0  0  0
    7.4888   -0.4715    0.0000 N   0  0  3  0  0  0  0  0  0  0  0  0
    4.7861    4.0230    0.0000 N   0  0  0  0  0  0  0  0  0  0  0  0
    3.9771    2.6217    0.0000 N   0  0  0  0  0  0  0  0  0  0  0  0
    3.3080    3.3649    0.0000 N   0  0  0  0  0  0  0  0  0  0  0  0
    2.5878    6.9715    0.0000 N   0  0  0  0  0  0  0  0  0  0  0  0
    7.4888   -1.4715    0.0000 C   0  0  0  0  0  0  0  0  0  0  0  0
    8.3548   -1.9715    0.0000 C   0  0  3  0  0  0  0  0  0  0  0  0
    8.3548    0.0285    0.0000 C   0  0  0  0  0  0  0  0  0  0  0  0
    6.6227    0.0285    0.0000 C   0  0  0  0  0  0  0  0  0  0  0  0
    9.2208   -0.4715    0.0000 C   0  0  0  0  0  0  0  0  0  0  0  0
    8.3548   -2.9715    0.0000 C   0  0  0  0  0  0  0  0  0  0  0  0
    6.6227    1.0285    0.0000 C   0  0  0  0  0  0  0  0  0  0  0  0
    5.7567    1.5285    0.0000 C   0  0  0  0  0  0  0  0  0  0  0  0
    9.2208   -3.4715    0.0000 C   0  0  0  0  0  0  0  0  0  0  0  0
    7.4888   -3.4715    0.0000 C   0  0  0  0  0  0  0  0  0  0  0  0
    9.2208   -4.4715    0.0000 C   0  0  0  0  0  0  0  0  0  0  0  0
    7.4888   -4.4715    0.0000 C   0  0  0  0  0  0  0  0  0  0  0  0
    8.3548   -4.9715    0.0000 C   0  0  0  0  0  0  0  0  0  0  0  0
    4.8907    3.0285    0.0000 C   0  0  0  0  0  0  0  0  0  0  0  0
    8.3548   -5.9715    0.0000 C   0  0  0  0  0  0  0  0  0  0  0  0
    3.8080    4.2309    0.0000 C   0  0  0  0  0  0  0  0  0  0  0  0
    5.5293    4.6921    0.0000 C   0  0  0  0  0  0  0  0  0  0  0  0
    3.4013    5.1444    0.0000 C   0  0  0  0  0  0  0  0  0  0  0  0
    2.4067    5.2490    0.0000 C   0  0  0  0  0  0  0  0  0  0  0  0
    3.9890    5.9535    0.0000 C   0  0  0  0  0  0  0  0  0  0  0  0
    2.0000    6.1625    0.0000 C   0  0  0  0  0  0  0  0  0  0  0  0
    3.5823    6.8670    0.0000 C   0  0  0  0  0  0  0  0  0  0  0  0
    6.8782   -1.3639    0.0000 H   0  0  0  0  0  0  0  0  0  0  0  0
    7.2767   -2.0541    0.0000 H   0  0  0  0  0  0  0  0  0  0  0  0
    7.8178   -2.2815    0.0000 H   0  0  0  0  0  0  0  0  0  0  0  0
    8.7533    0.5034    0.0000 H   0  0  0  0  0  0  0  0  0  0  0  0
    7.9562    0.5034    0.0000 H   0  0  0  0  0  0  0  0  0  0  0  0
    6.0121    0.1361    0.0000 H   0  0  0  0  0  0  0  0  0  0  0  0
    6.4107   -0.5541    0.0000 H   0  0  0  0  0  0  0  0  0  0  0  0
    9.8314   -0.5792    0.0000 H   0  0  0  0  0  0  0  0  0  0  0  0
    9.4328    0.1111    0.0000 H   0  0  0  0  0  0  0  0  0  0  0  0
    7.2333    0.9208    0.0000 H   0  0  0  0  0  0  0  0  0  0  0  0
    6.8348    1.6111    0.0000 H   0  0  0  0  0  0  0  0  0  0  0  0
    5.1461    1.6361    0.0000 H   0  0  0  0  0  0  0  0  0  0  0  0
    5.5446    0.9459    0.0000 H   0  0  0  0  0  0  0  0  0  0  0  0
    9.7577   -3.1615    0.0000 H   0  0  0  0  0  0  0  0  0  0  0  0
    6.9518   -3.1615    0.0000 H   0  0  0  0  0  0  0  0  0  0  0  0
    9.7577   -4.7815    0.0000 H   0  0  0  0  0  0  0  0  0  0  0  0
    6.9518   -4.7815    0.0000 H   0  0  0  0  0  0  0  0  0  0  0  0
    5.9441    4.2314    0.0000 H   0  0  0  0  0  0  0  0  0  0  0  0
    5.9900    5.1070    0.0000 H   0  0  0  0  0  0  0  0  0  0  0  0
    5.1144    5.1529    0.0000 H   0  0  0  0  0  0  0  0  0  0  0  0
    2.0423    4.7474    0.0000 H   0  0  0  0  0  0  0  0  0  0  0  0
    4.6056    5.8886    0.0000 H   0  0  0  0  0  0  0  0  0  0  0  0
    1.3834    6.2273    0.0000 H   0  0  0  0  0  0  0  0  0  0  0  0
    3.9467    7.3686    0.0000 H   0  0  0  0  0  0  0  0  0  0  0  0
  1 18  1  0  0  0  0
  1 24  1  0  0  0  0
  2 25  1  0  0  0  0
  3 25  1  0  0  0  0
  4 25  1  0  0  0  0
  5 12  1  0  0  0  0
  5 15  1  0  0  0  0
  6 11  1  0  0  0  0
  6 13  1  0  0  0  0
  6 14  1  0  0  0  0
  7 24  1  0  0  0  0
  7 26  1  0  0  0  0
  7 27  1  0  0  0  0
  8  9  1  0  0  0  0
  8 24  2  0  0  0  0
  9 26  2  0  0  0  0
 10 31  2  0  0  0  0
 10 32  1  0  0  0  0
 11 12  1  0  0  0  0
 11 33  1  0  0  0  0
 11 34  1  0  0  0  0
 12 16  1  0  0  0  0
 12 35  1  0  0  0  0
 13 15  1  0  0  0  0
 13 36  1  0  0  0  0
 13 37  1  0  0  0  0
 14 17  1  0  0  0  0
 14 38  1  0  0  0  0
 14 39  1  0  0  0  0
 15 40  1  0  0  0  0
 15 41  1  0  0  0  0
 16 19  2  0  0  0  0
 16 20  1  0  0  0  0
 17 18  1  0  0  0  0
 17 42  1  0  0  0  0
 17 43  1  0  0  0  0
 18 44  1  0  0  0  0
 18 45  1  0  0  0  0
 19 21  1  0  0  0  0
 19 46  1  0  0  0  0
 20 22  2  0  0  0  0
 20 47  1  0  0  0  0
 21 23  2  0  0  0  0
 21 48  1  0  0  0  0
 22 23  1  0  0  0  0
 22 49  1  0  0  0  0
 23 25  1  0  0  0  0
 26 28  1  0  0  0  0
 27 50  1  0  0  0  0
 27 51  1  0  0  0  0
 27 52  1  0  0  0  0
 28 29  2  0  0  0  0
 28 30  1  0  0  0  0
 29 31  1  0  0  0  0
 29 53  1  0  0  0  0
 30 32  2  0  0  0  0
 30 54  1  0  0  0  0
 31 55  1  0  0  0  0
 32 56  1  0  0  0  0
M  END
> <PUBCHEM_COMPOUND_CID>
127040697

> <PUBCHEM_COMPOUND_CANONICALIZED>
1

> <PUBCHEM_CACTVS_COMPLEXITY>
572

> <PUBCHEM_CACTVS_HBOND_ACCEPTOR>
9

> <PUBCHEM_CACTVS_HBOND_DONOR>
0

> <PUBCHEM_CACTVS_ROTATABLE_BOND>
7

> <PUBCHEM_CACTVS_SUBSKEYS>
AAADceB7oYBAAAAAAAAAAAAAAAAAAWAAAAA8WIAAAAAAAAAB8AAAHwQIAAAADBTl2xa/kJcMFAiiAjJnZACS0CtxArAd2CA4bJiKLuLguZmHMAhkyAPY6AeQwPAOQAAAAAAAAACAAAAAAAAAAAAAAAAAAA==

> <PUBCHEM_IUPAC_OPENEYE_NAME>
4-[3-[[4-methyl-5-(4-pyridyl)-1,2,4-triazol-3-yl]sulfanyl]propyl]-2-[4-(trifluoromethyl)phenyl]morpholine

> <PUBCHEM_IUPAC_CAS_NAME>
4-[3-[(4-methyl-5-pyridin-4-yl-1,2,4-triazol-3-yl)thio]propyl]-2-[4-(trifluoromethyl)phenyl]morpholine

> <PUBCHEM_IUPAC_NAME_MARKUP>
4-[3-[(4-methyl-5-pyridin-4-yl-1,2,4-triazol-3-yl)sulfanyl]propyl]-2-[4-(trifluoromethyl)phenyl]morpholine

> <PUBCHEM_IUPAC_NAME>
4-[3-[(4-methyl-5-pyridin-4-yl-1,2,4-triazol-3-yl)sulfanyl]propyl]-2-[4-(trifluoromethyl)phenyl]morpholine

> <PUBCHEM_IUPAC_SYSTEMATIC_NAME>
4-[3-[(4-methyl-5-pyridin-4-yl-1,2,4-triazol-3-yl)sulfanyl]propyl]-2-[4-(trifluoromethyl)phenyl]morpholine

> <PUBCHEM_IUPAC_TRADITIONAL_NAME>
4-[3-[[4-methyl-5-(4-pyridyl)-1,2,4-triazol-3-yl]thio]propyl]-2-[4-(trifluoromethyl)phenyl]morpholine

> <PUBCHEM_IUPAC_INCHI>
InChI=1S/C22H24F3N5OS/c1-29-20(17-7-9-26-10-8-17)27-28-21(29)32-14-2-11-30-12-13-31-19(15-30)16-3-5-18(6-4-16)22(23,24)25/h3-10,19H,2,11-15H2,1H3

> <PUBCHEM_IUPAC_INCHIKEY>
QSGQMVZHKGEIIG-UHFFFAOYSA-N

> <PUBCHEM_XLOGP3_AA>
3.3

> <PUBCHEM_EXACT_MASS>
463.16536607

> <PUBCHEM_MOLECULAR_FORMULA>
C22H24F3N5OS

> <PUBCHEM_MOLECULAR_WEIGHT>
463.5

> <PUBCHEM_OPENEYE_CAN_SMILES>
CN1C(=NN=C1SCCCN2CCOC(C2)C3=CC=C(C=C3)C(F)(F)F)C4=CC=NC=C4

> <PUBCHEM_OPENEYE_ISO_SMILES>
CN1C(=NN=C1SCCCN2CCOC(C2)C3=CC=C(C=C3)C(F)(F)F)C4=CC=NC=C4

> <PUBCHEM_CACTVS_TPSA>
81.4

> <PUBCHEM_MONOISOTOPIC_WEIGHT>
463.16536607

> <PUBCHEM_TOTAL_CHARGE>
0

> <PUBCHEM_HEAVY_ATOM_COUNT>
32

> <PUBCHEM_ATOM_DEF_STEREO_COUNT>
0

> <PUBCHEM_ATOM_UDEF_STEREO_COUNT>
1

> <PUBCHEM_BOND_DEF_STEREO_COUNT>
0

> <PUBCHEM_BOND_UDEF_STEREO_COUNT>
0

> <PUBCHEM_ISOTOPIC_ATOM_COUNT>
0

> <PUBCHEM_COMPONENT_COUNT>
1

> <PUBCHEM_CACTVS_TAUTO_COUNT>
-1

> <PUBCHEM_COORDINATE_TYPE>
1
5
255

> <PUBCHEM_BONDANNOTATIONS>
10  31  8
10  32  8
12  16  3
16  19  8
16  20  8
19  21  8
20  22  8
21  23  8
22  23  8
28  29  8
28  30  8
29  31  8
30  32  8
7  24  8
7  26  8
8  24  8
8  9  8
9  26  8

$$$$
