155530545
  -OEChem-09292322092D

 44 47  0     0  0  0  0  0  0999 V2000
    6.5443   -1.8047    0.0000 S   0  0  0  0  0  0  0  0  0  0  0  0
    3.0000    5.0000    0.0000 F   0  0  0  0  0  0  0  0  0  0  0  0
    2.0000    4.0000    0.0000 F   0  0  0  0  0  0  0  0  0  0  0  0
    4.0000    4.0000    0.0000 F   0  0  0  0  0  0  0  0  0  0  0  0
    3.0000   -5.0000    0.0000 O   0  0  0  0  0  0  0  0  0  0  0  0
    3.0000   -3.0000    0.0000 N   0  0  0  0  0  0  0  0  0  0  0  0
    3.8660   -0.5000    0.0000 N   0  0  0  0  0  0  0  0  0  0  0  0
    4.7320   -2.0000    0.0000 N   0  0  0  0  0  0  0  0  0  0  0  0
    4.7320    1.0000    0.0000 N   0  0  0  0  0  0  0  0  0  0  0  0
    2.1340   -3.5000    0.0000 C   0  0  0  0  0  0  0  0  0  0  0  0
    3.8660   -3.5000    0.0000 C   0  0  0  0  0  0  0  0  0  0  0  0
    3.0000   -2.0000    0.0000 C   0  0  0  0  0  0  0  0  0  0  0  0
    2.1340   -4.5000    0.0000 C   0  0  0  0  0  0  0  0  0  0  0  0
    3.8660   -4.5000    0.0000 C   0  0  0  0  0  0  0  0  0  0  0  0
    3.8660   -1.5000    0.0000 C   0  0  0  0  0  0  0  0  0  0  0  0
    4.7320    0.0000    0.0000 C   0  0  0  0  0  0  0  0  0  0  0  0
    5.5981   -0.5000    0.0000 C   0  0  0  0  0  0  0  0  0  0  0  0
    5.5981   -1.5000    0.0000 C   0  0  0  0  0  0  0  0  0  0  0  0
    6.5443   -0.1953    0.0000 C   0  0  0  0  0  0  0  0  0  0  0  0
    3.8660    1.5000    0.0000 C   0  0  0  0  0  0  0  0  0  0  0  0
    7.1279   -1.0000    0.0000 C   0  0  0  0  0  0  0  0  0  0  0  0
    3.8660    2.5000    0.0000 C   0  0  0  0  0  0  0  0  0  0  0  0
    3.0000    3.0000    0.0000 C   0  0  0  0  0  0  0  0  0  0  0  0
    3.0000    1.0000    0.0000 C   0  0  0  0  0  0  0  0  0  0  0  0
    2.1340    2.5000    0.0000 C   0  0  0  0  0  0  0  0  0  0  0  0
    2.1340    1.5000    0.0000 C   0  0  0  0  0  0  0  0  0  0  0  0
    3.0000    4.0000    0.0000 C   0  0  0  0  0  0  0  0  0  0  0  0
    1.9219   -2.9174    0.0000 H   0  0  0  0  0  0  0  0  0  0  0  0
    1.5234   -3.6077    0.0000 H   0  0  0  0  0  0  0  0  0  0  0  0
    4.4766   -3.6077    0.0000 H   0  0  0  0  0  0  0  0  0  0  0  0
    4.0781   -2.9174    0.0000 H   0  0  0  0  0  0  0  0  0  0  0  0
    2.7880   -1.4174    0.0000 H   0  0  0  0  0  0  0  0  0  0  0  0
    2.3894   -2.1077    0.0000 H   0  0  0  0  0  0  0  0  0  0  0  0
    1.5234   -4.3923    0.0000 H   0  0  0  0  0  0  0  0  0  0  0  0
    1.9219   -5.0826    0.0000 H   0  0  0  0  0  0  0  0  0  0  0  0
    4.0781   -5.0826    0.0000 H   0  0  0  0  0  0  0  0  0  0  0  0
    4.4766   -4.3923    0.0000 H   0  0  0  0  0  0  0  0  0  0  0  0
    5.2690    1.3100    0.0000 H   0  0  0  0  0  0  0  0  0  0  0  0
    6.7369    0.3941    0.0000 H   0  0  0  0  0  0  0  0  0  0  0  0
    7.7479   -1.0000    0.0000 H   0  0  0  0  0  0  0  0  0  0  0  0
    4.4030    2.8100    0.0000 H   0  0  0  0  0  0  0  0  0  0  0  0
    3.0000    0.3800    0.0000 H   0  0  0  0  0  0  0  0  0  0  0  0
    1.5970    2.8100    0.0000 H   0  0  0  0  0  0  0  0  0  0  0  0
    1.5970    1.1900    0.0000 H   0  0  0  0  0  0  0  0  0  0  0  0
  1 18  1  0  0  0  0
  1 21  1  0  0  0  0
  2 27  1  0  0  0  0
  3 27  1  0  0  0  0
  4 27  1  0  0  0  0
  5 13  1  0  0  0  0
  5 14  1  0  0  0  0
  6 10  1  0  0  0  0
  6 11  1  0  0  0  0
  6 12  1  0  0  0  0
  7 15  2  0  0  0  0
  7 16  1  0  0  0  0
  8 15  1  0  0  0  0
  8 18  2  0  0  0  0
  9 16  1  0  0  0  0
  9 20  1  0  0  0  0
  9 38  1  0  0  0  0
 10 13  1  0  0  0  0
 10 28  1  0  0  0  0
 10 29  1  0  0  0  0
 11 14  1  0  0  0  0
 11 30  1  0  0  0  0
 11 31  1  0  0  0  0
 12 15  1  0  0  0  0
 12 32  1  0  0  0  0
 12 33  1  0  0  0  0
 13 34  1  0  0  0  0
 13 35  1  0  0  0  0
 14 36  1  0  0  0  0
 14 37  1  0  0  0  0
 16 17  2  0  0  0  0
 17 18  1  0  0  0  0
 17 19  1  0  0  0  0
 19 21  2  0  0  0  0
 19 39  1  0  0  0  0
 20 22  1  0  0  0  0
 20 24  2  0  0  0  0
 21 40  1  0  0  0  0
 22 23  2  0  0  0  0
 22 41  1  0  0  0  0
 23 25  1  0  0  0  0
 23 27  1  0  0  0  0
 24 26  1  0  0  0  0
 24 42  1  0  0  0  0
 25 26  2  0  0  0  0
 25 43  1  0  0  0  0
 26 44  1  0  0  0  0
M  END
> <PUBCHEM_COMPOUND_CID>
155530545

> <PUBCHEM_COMPOUND_CANONICALIZED>
1

> <PUBCHEM_CACTVS_COMPLEXITY>
492

> <PUBCHEM_CACTVS_HBOND_ACCEPTOR>
9

> <PUBCHEM_CACTVS_HBOND_DONOR>
1

> <PUBCHEM_CACTVS_ROTATABLE_BOND>
4

> <PUBCHEM_CACTVS_SUBSKEYS>
AAADceB7oYBAAAAAAAAAAAAAAAAAASAAAAA8WIAAAAAAAFgB/AAAHwQQAAAADAjl2xax8dfIFAikAiZiZACD0KlhCrhJmDg4ZJiKaOLg2dGXJAxokAL4yCcQgAAOAAAAQAAAAAAAAACAAAAAAAAAAAAAAA==

> <PUBCHEM_IUPAC_OPENEYE_NAME>
2-(morpholinomethyl)-N-[3-(trifluoromethyl)phenyl]thieno[2,3-d]pyrimidin-4-amine

> <PUBCHEM_IUPAC_CAS_NAME>
2-(4-morpholinylmethyl)-N-[3-(trifluoromethyl)phenyl]-4-thieno[2,3-d]pyrimidinamine

> <PUBCHEM_IUPAC_NAME_MARKUP>
2-(morpholin-4-ylmethyl)-<I>N</I>-[3-(trifluoromethyl)phenyl]thieno[2,3-d]pyrimidin-4-amine

> <PUBCHEM_IUPAC_NAME>
2-(morpholin-4-ylmethyl)-N-[3-(trifluoromethyl)phenyl]thieno[2,3-d]pyrimidin-4-amine

> <PUBCHEM_IUPAC_SYSTEMATIC_NAME>
2-(morpholin-4-ylmethyl)-N-[3-(trifluoromethyl)phenyl]thieno[2,3-d]pyrimidin-4-amine

> <PUBCHEM_IUPAC_TRADITIONAL_NAME>
[2-(morpholinomethyl)thieno[2,3-d]pyrimidin-4-yl]-[3-(trifluoromethyl)phenyl]amine

> <PUBCHEM_IUPAC_INCHI>
InChI=1S/C18H17F3N4OS/c19-18(20,21)12-2-1-3-13(10-12)22-16-14-4-9-27-17(14)24-15(23-16)11-25-5-7-26-8-6-25/h1-4,9-10H,5-8,11H2,(H,22,23,24)

> <PUBCHEM_IUPAC_INCHIKEY>
LGDUDENADQPLLX-UHFFFAOYSA-N

> <PUBCHEM_XLOGP3_AA>
3.8

> <PUBCHEM_EXACT_MASS>
394.10751684

> <PUBCHEM_MOLECULAR_FORMULA>
C18H17F3N4OS

> <PUBCHEM_MOLECULAR_WEIGHT>
394.4

> <PUBCHEM_OPENEYE_CAN_SMILES>
C1COCCN1CC2=NC(=C3C=CSC3=N2)NC4=CC=CC(=C4)C(F)(F)F

> <PUBCHEM_OPENEYE_ISO_SMILES>
C1COCCN1CC2=NC(=C3C=CSC3=N2)NC4=CC=CC(=C4)C(F)(F)F

> <PUBCHEM_CACTVS_TPSA>
78.5

> <PUBCHEM_MONOISOTOPIC_WEIGHT>
394.10751684

> <PUBCHEM_TOTAL_CHARGE>
0

> <PUBCHEM_HEAVY_ATOM_COUNT>
27

> <PUBCHEM_ATOM_DEF_STEREO_COUNT>
0

> <PUBCHEM_ATOM_UDEF_STEREO_COUNT>
0

> <PUBCHEM_BOND_DEF_STEREO_COUNT>
0

> <PUBCHEM_BOND_UDEF_STEREO_COUNT>
0

> <PUBCHEM_ISOTOPIC_ATOM_COUNT>
0

> <PUBCHEM_COMPONENT_COUNT>
1

> <PUBCHEM_CACTVS_TAUTO_COUNT>
-1

> <PUBCHEM_COORDINATE_TYPE>
1
5
255

> <PUBCHEM_BONDANNOTATIONS>
1  18  8
1  21  8
16  17  8
17  18  8
17  19  8
19  21  8
20  22  8
20  24  8
22  23  8
23  25  8
24  26  8
25  26  8
7  15  8
7  16  8
8  15  8
8  18  8

$$$$
