168293631
  -OEChem-09292322442D

 56 58  0     0  0  0  0  0  0999 V2000
    6.5084    1.0000    0.0000 O   0  0  0  0  0  0  0  0  0  0  0  0
    3.9104    1.5000    0.0000 O   0  0  0  0  0  0  0  0  0  0  0  0
    5.6424    2.5000    0.0000 O   0  0  0  0  0  0  0  0  0  0  0  0
    4.7764    0.0000    0.0000 O   0  0  0  0  0  0  0  0  0  0  0  0
    6.7988    9.3656    0.0000 N   0  0  0  0  0  0  0  0  0  0  0  0
    7.7988    7.6335    0.0000 N   0  0  0  0  0  0  0  0  0  0  0  0
    3.2152   11.9024    0.0000 N   0  0  0  0  0  0  0  0  0  0  0  0
    3.2152   10.2929    0.0000 N   0  0  0  0  0  0  0  0  0  0  0  0
    6.2988    8.4996    0.0000 C   0  0  0  0  0  0  0  0  0  0  0  0
    7.7988    9.3656    0.0000 C   0  0  0  0  0  0  0  0  0  0  0  0
    6.7988    7.6335    0.0000 C   0  0  0  0  0  0  0  0  0  0  0  0
    8.2988    8.4996    0.0000 C   0  0  0  0  0  0  0  0  0  0  0  0
    6.2988   10.2316    0.0000 C   0  0  0  0  0  0  0  0  0  0  0  0
    5.2988   10.2316    0.0000 C   0  0  0  0  0  0  0  0  0  0  0  0
    8.2988    6.7675    0.0000 C   0  0  0  0  0  0  0  0  0  0  0  0
    4.7988   11.0976    0.0000 C   0  0  0  0  0  0  0  0  0  0  0  0
    3.7988   11.0976    0.0000 C   0  0  0  0  0  0  0  0  0  0  0  0
    9.2988    6.7675    0.0000 C   0  0  0  0  0  0  0  0  0  0  0  0
    7.7988    5.9015    0.0000 C   0  0  0  0  0  0  0  0  0  0  0  0
    2.2690   11.5976    0.0000 C   0  0  0  0  0  0  0  0  0  0  0  0
    2.2690   10.5976    0.0000 C   0  0  0  0  0  0  0  0  0  0  0  0
    9.7988    5.9015    0.0000 C   0  0  0  0  0  0  0  0  0  0  0  0
    8.2988    5.0355    0.0000 C   0  0  0  0  0  0  0  0  0  0  0  0
    9.2988    5.0355    0.0000 C   0  0  0  0  0  0  0  0  0  0  0  0
    1.4030   12.0976    0.0000 C   0  0  0  0  0  0  0  0  0  0  0  0
    1.4030   10.0976    0.0000 C   0  0  0  0  0  0  0  0  0  0  0  0
    0.5369   11.5976    0.0000 C   0  0  0  0  0  0  0  0  0  0  0  0
    0.5369   10.5976    0.0000 C   0  0  0  0  0  0  0  0  0  0  0  0
    5.6424    1.5000    0.0000 C   0  0  0  0  0  0  0  0  0  0  0  0
    4.7764    1.0000    0.0000 C   0  0  0  0  0  0  0  0  0  0  0  0
    5.8239    8.8981    0.0000 H   0  0  0  0  0  0  0  0  0  0  0  0
    5.8239    8.1010    0.0000 H   0  0  0  0  0  0  0  0  0  0  0  0
    8.3814    9.5776    0.0000 H   0  0  0  0  0  0  0  0  0  0  0  0
    7.6912    9.9762    0.0000 H   0  0  0  0  0  0  0  0  0  0  0  0
    6.2162    7.4215    0.0000 H   0  0  0  0  0  0  0  0  0  0  0  0
    6.9065    7.0230    0.0000 H   0  0  0  0  0  0  0  0  0  0  0  0
    8.7738    8.1010    0.0000 H   0  0  0  0  0  0  0  0  0  0  0  0
    8.7738    8.8981    0.0000 H   0  0  0  0  0  0  0  0  0  0  0  0
    6.8814   10.4437    0.0000 H   0  0  0  0  0  0  0  0  0  0  0  0
    6.1912   10.8422    0.0000 H   0  0  0  0  0  0  0  0  0  0  0  0
    4.7162   10.0196    0.0000 H   0  0  0  0  0  0  0  0  0  0  0  0
    5.4065    9.6210    0.0000 H   0  0  0  0  0  0  0  0  0  0  0  0
    5.3814   11.3097    0.0000 H   0  0  0  0  0  0  0  0  0  0  0  0
    4.6912   11.7082    0.0000 H   0  0  0  0  0  0  0  0  0  0  0  0
    9.6088    7.3044    0.0000 H   0  0  0  0  0  0  0  0  0  0  0  0
    7.1788    5.9015    0.0000 H   0  0  0  0  0  0  0  0  0  0  0  0
    3.4078   12.4917    0.0000 H   0  0  0  0  0  0  0  0  0  0  0  0
   10.4188    5.9015    0.0000 H   0  0  0  0  0  0  0  0  0  0  0  0
    7.9888    4.4985    0.0000 H   0  0  0  0  0  0  0  0  0  0  0  0
    9.6088    4.4985    0.0000 H   0  0  0  0  0  0  0  0  0  0  0  0
    1.4030   12.7176    0.0000 H   0  0  0  0  0  0  0  0  0  0  0  0
    1.4030    9.4776    0.0000 H   0  0  0  0  0  0  0  0  0  0  0  0
    0.0000   11.9076    0.0000 H   0  0  0  0  0  0  0  0  0  0  0  0
    0.0000   10.2876    0.0000 H   0  0  0  0  0  0  0  0  0  0  0  0
    7.0454    1.3100    0.0000 H   0  0  0  0  0  0  0  0  0  0  0  0
    3.3734    1.1900    0.0000 H   0  0  0  0  0  0  0  0  0  0  0  0
  1 29  1  0  0  0  0
  1 55  1  0  0  0  0
  2 30  1  0  0  0  0
  2 56  1  0  0  0  0
  3 29  2  0  0  0  0
  4 30  2  0  0  0  0
  5  9  1  0  0  0  0
  5 10  1  0  0  0  0
  5 13  1  0  0  0  0
  6 11  1  0  0  0  0
  6 12  1  0  0  0  0
  6 15  1  0  0  0  0
  7 17  1  0  0  0  0
  7 20  1  0  0  0  0
  7 47  1  0  0  0  0
  8 17  2  0  0  0  0
  8 21  1  0  0  0  0
  9 11  1  0  0  0  0
  9 31  1  0  0  0  0
  9 32  1  0  0  0  0
 10 12  1  0  0  0  0
 10 33  1  0  0  0  0
 10 34  1  0  0  0  0
 11 35  1  0  0  0  0
 11 36  1  0  0  0  0
 12 37  1  0  0  0  0
 12 38  1  0  0  0  0
 13 14  1  0  0  0  0
 13 39  1  0  0  0  0
 13 40  1  0  0  0  0
 14 16  1  0  0  0  0
 14 41  1  0  0  0  0
 14 42  1  0  0  0  0
 15 18  2  0  0  0  0
 15 19  1  0  0  0  0
 16 17  1  0  0  0  0
 16 43  1  0  0  0  0
 16 44  1  0  0  0  0
 18 22  1  0  0  0  0
 18 45  1  0  0  0  0
 19 23  2  0  0  0  0
 19 46  1  0  0  0  0
 20 21  1  0  0  0  0
 20 25  2  0  0  0  0
 21 26  2  0  0  0  0
 22 24  2  0  0  0  0
 22 48  1  0  0  0  0
 23 24  1  0  0  0  0
 23 49  1  0  0  0  0
 24 50  1  0  0  0  0
 25 27  1  0  0  0  0
 25 51  1  0  0  0  0
 26 28  1  0  0  0  0
 26 52  1  0  0  0  0
 27 28  2  0  0  0  0
 27 53  1  0  0  0  0
 28 54  1  0  0  0  0
 29 30  1  0  0  0  0
M  END
> <PUBCHEM_COMPOUND_CID>
168293631

> <PUBCHEM_COMPOUND_CANONICALIZED>
1

> <PUBCHEM_CACTVS_COMPLEXITY>
445

> <PUBCHEM_CACTVS_HBOND_ACCEPTOR>
7

> <PUBCHEM_CACTVS_HBOND_DONOR>
3

> <PUBCHEM_CACTVS_ROTATABLE_BOND>
6

> <PUBCHEM_CACTVS_SUBSKEYS>
AAADceB7uAAAAAAAAAAAAAAAAAAAAWAAAAA8YIAAAAAAAFgB9AAAHgAQCAAACAjBlwQx2LfJkgCoASbybAKCgC2hEqAJmSB4dJiJaKLAmZGUIAhokALJyCcQAAAAAAAAAAAAACAAAAAAAAAAQAAAAAAAAA==

> <PUBCHEM_IUPAC_OPENEYE_NAME>
oxalic acid;2-[3-(4-phenylpiperazin-1-yl)propyl]-1H-benzimidazole

> <PUBCHEM_IUPAC_CAS_NAME>
oxalic acid;2-[3-(4-phenyl-1-piperazinyl)propyl]-1H-benzimidazole

> <PUBCHEM_IUPAC_NAME_MARKUP>
oxalic acid;2-[3-(4-phenylpiperazin-1-yl)propyl]-1<I>H</I>-benzimidazole

> <PUBCHEM_IUPAC_NAME>
oxalic acid;2-[3-(4-phenylpiperazin-1-yl)propyl]-1H-benzimidazole

> <PUBCHEM_IUPAC_SYSTEMATIC_NAME>
ethanedioic acid;2-[3-(4-phenylpiperazin-1-yl)propyl]-1H-benzimidazole

> <PUBCHEM_IUPAC_TRADITIONAL_NAME>
oxalic acid;2-[3-(4-phenylpiperazino)propyl]-1H-benzimidazole

> <PUBCHEM_IUPAC_INCHI>
InChI=1S/C20H24N4.C2H2O4/c1-2-7-17(8-3-1)24-15-13-23(14-16-24)12-6-11-20-21-18-9-4-5-10-19(18)22-20;3-1(4)2(5)6/h1-5,7-10H,6,11-16H2,(H,21,22);(H,3,4)(H,5,6)

> <PUBCHEM_IUPAC_INCHIKEY>
QSPDOTGNALJETL-UHFFFAOYSA-N

> <PUBCHEM_EXACT_MASS>
410.19540532

> <PUBCHEM_MOLECULAR_FORMULA>
C22H26N4O4

> <PUBCHEM_MOLECULAR_WEIGHT>
410.5

> <PUBCHEM_OPENEYE_CAN_SMILES>
C1CN(CCN1CCCC2=NC3=CC=CC=C3N2)C4=CC=CC=C4.C(=O)(C(=O)O)O

> <PUBCHEM_OPENEYE_ISO_SMILES>
C1CN(CCN1CCCC2=NC3=CC=CC=C3N2)C4=CC=CC=C4.C(=O)(C(=O)O)O

> <PUBCHEM_CACTVS_TPSA>
110

> <PUBCHEM_MONOISOTOPIC_WEIGHT>
410.19540532

> <PUBCHEM_TOTAL_CHARGE>
0

> <PUBCHEM_HEAVY_ATOM_COUNT>
30

> <PUBCHEM_ATOM_DEF_STEREO_COUNT>
0

> <PUBCHEM_ATOM_UDEF_STEREO_COUNT>
0

> <PUBCHEM_BOND_DEF_STEREO_COUNT>
0

> <PUBCHEM_BOND_UDEF_STEREO_COUNT>
0

> <PUBCHEM_ISOTOPIC_ATOM_COUNT>
0

> <PUBCHEM_COMPONENT_COUNT>
2

> <PUBCHEM_CACTVS_TAUTO_COUNT>
-1

> <PUBCHEM_COORDINATE_TYPE>
1
5
255

> <PUBCHEM_BONDANNOTATIONS>
15  18  8
15  19  8
18  22  8
19  23  8
20  21  8
20  25  8
21  26  8
22  24  8
23  24  8
25  27  8
26  28  8
27  28  8
7  17  8
7  20  8
8  17  8
8  21  8

$$$$
