9820261
  -OEChem-09292322472D

 48 51  0     1  0  0  0  0  0999 V2000
   14.1846    2.5204    0.0000 F   0  0  0  0  0  0  0  0  0  0  0  0
    2.0000   -2.5204    0.0000 F   0  0  0  0  0  0  0  0  0  0  0  0
    5.4564   -0.5071    0.0000 O   0  0  0  0  0  0  0  0  0  0  0  0
    8.9884   -0.4796    0.0000 N   0  0  3  0  0  0  0  0  0  0  0  0
   10.7205    0.5204    0.0000 N   0  0  3  0  0  0  0  0  0  0  0  0
   12.4525    0.5204    0.0000 N   0  0  0  0  0  0  0  0  0  0  0  0
   11.5865    2.0204    0.0000 N   0  0  0  0  0  0  0  0  0  0  0  0
    8.9884    0.5204    0.0000 C   0  0  1  0  0  0  0  0  0  0  0  0
    7.1884   -0.5004    0.0000 C   0  0  1  0  0  0  0  0  0  0  0  0
    8.0945    1.0551    0.0000 C   0  0  0  0  0  0  0  0  0  0  0  0
    8.0945   -1.0143    0.0000 C   0  0  0  0  0  0  0  0  0  0  0  0
    7.1884    0.5412    0.0000 C   0  0  0  0  0  0  0  0  0  0  0  0
    9.8544    1.0204    0.0000 C   0  0  0  0  0  0  0  0  0  0  0  0
    9.8544   -0.9796    0.0000 C   0  0  0  0  0  0  0  0  0  0  0  0
   10.7205   -0.4796    0.0000 C   0  0  0  0  0  0  0  0  0  0  0  0
    6.3243   -1.0037    0.0000 C   0  0  0  0  0  0  0  0  0  0  0  0
   11.5865    1.0204    0.0000 C   0  0  0  0  0  0  0  0  0  0  0  0
    4.5923   -1.0104    0.0000 C   0  0  0  0  0  0  0  0  0  0  0  0
   13.3185    1.0204    0.0000 C   0  0  0  0  0  0  0  0  0  0  0  0
   12.4525    2.5204    0.0000 C   0  0  0  0  0  0  0  0  0  0  0  0
    4.5961   -2.0104    0.0000 C   0  0  0  0  0  0  0  0  0  0  0  0
    3.7243   -0.5138    0.0000 C   0  0  0  0  0  0  0  0  0  0  0  0
   13.3185    2.0204    0.0000 C   0  0  0  0  0  0  0  0  0  0  0  0
    3.7320   -2.5137    0.0000 C   0  0  0  0  0  0  0  0  0  0  0  0
    2.8602   -1.0171    0.0000 C   0  0  0  0  0  0  0  0  0  0  0  0
    2.8641   -2.0171    0.0000 C   0  0  0  0  0  0  0  0  0  0  0  0
    8.9950    1.3704    0.0000 H   0  0  0  0  0  0  0  0  0  0  0  0
    7.1920   -1.1204    0.0000 H   0  0  0  0  0  0  0  0  0  0  0  0
    8.4991    1.5249    0.0000 H   0  0  0  0  0  0  0  0  0  0  0  0
    7.7008    1.5341    0.0000 H   0  0  0  0  0  0  0  0  0  0  0  0
    7.7008   -1.4933    0.0000 H   0  0  0  0  0  0  0  0  0  0  0  0
    8.4991   -1.4840    0.0000 H   0  0  0  0  0  0  0  0  0  0  0  0
    6.9794    1.1249    0.0000 H   0  0  0  0  0  0  0  0  0  0  0  0
    6.5776    0.4351    0.0000 H   0  0  0  0  0  0  0  0  0  0  0  0
   10.2530    1.4954    0.0000 H   0  0  0  0  0  0  0  0  0  0  0  0
    9.4559    1.4954    0.0000 H   0  0  0  0  0  0  0  0  0  0  0  0
    9.4559   -1.4545    0.0000 H   0  0  0  0  0  0  0  0  0  0  0  0
   10.2530   -1.4545    0.0000 H   0  0  0  0  0  0  0  0  0  0  0  0
   10.9325   -1.0622    0.0000 H   0  0  0  0  0  0  0  0  0  0  0  0
   11.3310   -0.3719    0.0000 H   0  0  0  0  0  0  0  0  0  0  0  0
    5.9276   -1.4802    0.0000 H   0  0  0  0  0  0  0  0  0  0  0  0
    6.7247   -1.4771    0.0000 H   0  0  0  0  0  0  0  0  0  0  0  0
   13.8555    0.7104    0.0000 H   0  0  0  0  0  0  0  0  0  0  0  0
   12.4525    3.1404    0.0000 H   0  0  0  0  0  0  0  0  0  0  0  0
    5.1343   -2.3183    0.0000 H   0  0  0  0  0  0  0  0  0  0  0  0
    3.7219    0.1062    0.0000 H   0  0  0  0  0  0  0  0  0  0  0  0
    3.7344   -3.1337    0.0000 H   0  0  0  0  0  0  0  0  0  0  0  0
    2.3221   -0.7092    0.0000 H   0  0  0  0  0  0  0  0  0  0  0  0
  1 23  1  0  0  0  0
  2 26  1  0  0  0  0
  3 16  1  0  0  0  0
  3 18  1  0  0  0  0
  4  8  1  0  0  0  0
  4 11  1  0  0  0  0
  4 14  1  0  0  0  0
  5 13  1  0  0  0  0
  5 15  1  0  0  0  0
  5 17  1  0  0  0  0
  6 17  2  0  0  0  0
  6 19  1  0  0  0  0
  7 17  1  0  0  0  0
  7 20  2  0  0  0  0
  8 10  1  0  0  0  0
  8 13  1  0  0  0  0
  8 27  1  6  0  0  0
  9 11  1  0  0  0  0
  9 12  1  0  0  0  0
  9 16  1  6  0  0  0
  9 28  1  0  0  0  0
 10 12  1  0  0  0  0
 10 29  1  0  0  0  0
 10 30  1  0  0  0  0
 11 31  1  0  0  0  0
 11 32  1  0  0  0  0
 12 33  1  0  0  0  0
 12 34  1  0  0  0  0
 13 35  1  0  0  0  0
 13 36  1  0  0  0  0
 14 15  1  0  0  0  0
 14 37  1  0  0  0  0
 14 38  1  0  0  0  0
 15 39  1  0  0  0  0
 15 40  1  0  0  0  0
 16 41  1  0  0  0  0
 16 42  1  0  0  0  0
 18 21  2  0  0  0  0
 18 22  1  0  0  0  0
 19 23  2  0  0  0  0
 19 43  1  0  0  0  0
 20 23  1  0  0  0  0
 20 44  1  0  0  0  0
 21 24  1  0  0  0  0
 21 45  1  0  0  0  0
 22 25  2  0  0  0  0
 22 46  1  0  0  0  0
 24 26  2  0  0  0  0
 24 47  1  0  0  0  0
 25 26  1  0  0  0  0
 25 48  1  0  0  0  0
M  END
> <PUBCHEM_COMPOUND_CID>
9820261

> <PUBCHEM_COMPOUND_CANONICALIZED>
1

> <PUBCHEM_CACTVS_COMPLEXITY>
441

> <PUBCHEM_CACTVS_HBOND_ACCEPTOR>
7

> <PUBCHEM_CACTVS_HBOND_DONOR>
0

> <PUBCHEM_CACTVS_ROTATABLE_BOND>
4

> <PUBCHEM_CACTVS_SUBSKEYS>
AAADceB7oYAAAAAAAAAAAAAAAAAAAAAAAAA8WLEAAAAAAACxwAAAHwAAAAAADSzhkg49lpcIFACgADBnZACCiCkxIKAJ2CAuTJiMbqLE+VqWPCiuwBPIqCeQUAMMAAAAAAAAAAAAAAAAAAAAAAAAAAAAAA==

> <PUBCHEM_IUPAC_OPENEYE_NAME>
(7R,9aS)-7-[(4-fluorophenoxy)methyl]-2-(5-fluoropyrimidin-2-yl)-1,3,4,6,7,8,9,9a-octahydropyrido[1,2-a]pyrazine

> <PUBCHEM_IUPAC_CAS_NAME>
(7R,9aS)-7-[(4-fluorophenoxy)methyl]-2-(5-fluoro-2-pyrimidinyl)-1,3,4,6,7,8,9,9a-octahydropyrido[1,2-a]pyrazine

> <PUBCHEM_IUPAC_NAME_MARKUP>
(7<I>R</I>,9<I>a</I><I>S</I>)-7-[(4-fluorophenoxy)methyl]-2-(5-fluoropyrimidin-2-yl)-1,3,4,6,7,8,9,9<I>a</I>-octahydropyrido[1,2-a]pyrazine

> <PUBCHEM_IUPAC_NAME>
(7R,9aS)-7-[(4-fluorophenoxy)methyl]-2-(5-fluoropyrimidin-2-yl)-1,3,4,6,7,8,9,9a-octahydropyrido[1,2-a]pyrazine

> <PUBCHEM_IUPAC_SYSTEMATIC_NAME>
(7R,9aS)-7-[(4-fluoranylphenoxy)methyl]-2-(5-fluoranylpyrimidin-2-yl)-1,3,4,6,7,8,9,9a-octahydropyrido[1,2-a]pyrazine

> <PUBCHEM_IUPAC_TRADITIONAL_NAME>
(7R,9aS)-7-[(4-fluorophenoxy)methyl]-2-(5-fluoropyrimidin-2-yl)-1,3,4,6,7,8,9,9a-octahydropyrido[1,2-a]pyrazine

> <PUBCHEM_IUPAC_INCHI>
InChI=1S/C19H22F2N4O/c20-15-2-5-18(6-3-15)26-13-14-1-4-17-12-25(8-7-24(17)11-14)19-22-9-16(21)10-23-19/h2-3,5-6,9-10,14,17H,1,4,7-8,11-13H2/t14-,17+/m1/s1

> <PUBCHEM_IUPAC_INCHIKEY>
QXWNESOGWFJDFR-PBHICJAKSA-N

> <PUBCHEM_XLOGP3_AA>
3.1

> <PUBCHEM_EXACT_MASS>
360.17616766

> <PUBCHEM_MOLECULAR_FORMULA>
C19H22F2N4O

> <PUBCHEM_MOLECULAR_WEIGHT>
360.4

> <PUBCHEM_OPENEYE_CAN_SMILES>
C1CC2CN(CCN2CC1COC3=CC=C(C=C3)F)C4=NC=C(C=N4)F

> <PUBCHEM_OPENEYE_ISO_SMILES>
C1C[C@H]2CN(CCN2C[C@@H]1COC3=CC=C(C=C3)F)C4=NC=C(C=N4)F

> <PUBCHEM_CACTVS_TPSA>
41.5

> <PUBCHEM_MONOISOTOPIC_WEIGHT>
360.17616766

> <PUBCHEM_TOTAL_CHARGE>
0

> <PUBCHEM_HEAVY_ATOM_COUNT>
26

> <PUBCHEM_ATOM_DEF_STEREO_COUNT>
2

> <PUBCHEM_ATOM_UDEF_STEREO_COUNT>
0

> <PUBCHEM_BOND_DEF_STEREO_COUNT>
0

> <PUBCHEM_BOND_UDEF_STEREO_COUNT>
0

> <PUBCHEM_ISOTOPIC_ATOM_COUNT>
0

> <PUBCHEM_COMPONENT_COUNT>
1

> <PUBCHEM_CACTVS_TAUTO_COUNT>
-1

> <PUBCHEM_COORDINATE_TYPE>
1
5
255

> <PUBCHEM_BONDANNOTATIONS>
18  21  8
18  22  8
19  23  8
20  23  8
21  24  8
22  25  8
24  26  8
25  26  8
6  17  8
6  19  8
7  17  8
7  20  8
8  27  6
9  16  6

$$$$
