53363200
  -OEChem-09292322322D

 76 79  0     0  0  0  0  0  0999 V2000
    7.1962   -7.6465    0.0000 O   0  0  0  0  0  0  0  0  0  0  0  0
    4.5981   -0.1465    0.0000 O   0  0  0  0  0  0  0  0  0  0  0  0
    2.8660   -1.1465    0.0000 O   0  0  0  0  0  0  0  0  0  0  0  0
    7.5990    6.9239    0.0000 O   0  0  0  0  0  0  0  0  0  0  0  0
    5.4641   -4.6465    0.0000 N   0  0  0  0  0  0  0  0  0  0  0  0
    7.1962   -5.6465    0.0000 N   0  0  0  0  0  0  0  0  0  0  0  0
    6.8301    4.3924    0.0000 N   0  0  0  0  0  0  0  0  0  0  0  0
    5.5211    3.4413    0.0000 N   0  0  0  0  0  0  0  0  0  0  0  0
    5.8301    4.3924    0.0000 N   0  0  0  0  0  0  0  0  0  0  0  0
    5.4641   -5.6465    0.0000 C   0  0  0  0  0  0  0  0  0  0  0  0
    6.3301   -4.1465    0.0000 C   0  0  0  0  0  0  0  0  0  0  0  0
    6.3301   -6.1465    0.0000 C   0  0  0  0  0  0  0  0  0  0  0  0
    7.1962   -4.6465    0.0000 C   0  0  0  0  0  0  0  0  0  0  0  0
    4.5981   -4.1465    0.0000 C   0  0  0  0  0  0  0  0  0  0  0  0
    8.0622   -6.1465    0.0000 C   0  0  0  0  0  0  0  0  0  0  0  0
    4.5981   -3.1465    0.0000 C   0  0  0  0  0  0  0  0  0  0  0  0
    8.0622   -7.1465    0.0000 C   0  0  0  0  0  0  0  0  0  0  0  0
    8.9282   -5.6465    0.0000 C   0  0  0  0  0  0  0  0  0  0  0  0
    3.7320   -2.6465    0.0000 C   0  0  0  0  0  0  0  0  0  0  0  0
    5.4641   -2.6465    0.0000 C   0  0  0  0  0  0  0  0  0  0  0  0
    8.9282   -7.6465    0.0000 C   0  0  0  0  0  0  0  0  0  0  0  0
    3.7320   -1.6465    0.0000 C   0  0  0  0  0  0  0  0  0  0  0  0
    9.7942   -6.1465    0.0000 C   0  0  0  0  0  0  0  0  0  0  0  0
    5.4641   -1.6465    0.0000 C   0  0  0  0  0  0  0  0  0  0  0  0
    4.5981   -1.1465    0.0000 C   0  0  0  0  0  0  0  0  0  0  0  0
    9.7942   -7.1465    0.0000 C   0  0  0  0  0  0  0  0  0  0  0  0
    5.4641    0.3535    0.0000 C   0  0  0  0  0  0  0  0  0  0  0  0
    5.4641    1.3535    0.0000 C   0  0  0  0  0  0  0  0  0  0  0  0
    6.3301    1.8535    0.0000 C   0  0  0  0  0  0  0  0  0  0  0  0
    7.1962   -8.6465    0.0000 C   0  0  0  0  0  0  0  0  0  0  0  0
    6.3301    2.8535    0.0000 C   0  0  0  0  0  0  0  0  0  0  0  0
    7.1391    3.4413    0.0000 C   0  0  0  0  0  0  0  0  0  0  0  0
    2.0000   -1.6465    0.0000 C   0  0  0  0  0  0  0  0  0  0  0  0
    7.4179    5.2014    0.0000 C   0  0  0  0  0  0  0  0  0  0  0  0
    7.0112    6.1149    0.0000 C   0  0  0  0  0  0  0  0  0  0  0  0
    7.1922    7.8375    0.0000 C   0  0  0  0  0  0  0  0  0  0  0  0
    7.7800    8.6465    0.0000 C   0  0  0  0  0  0  0  0  0  0  0  0
    4.8535   -5.5388    0.0000 H   0  0  0  0  0  0  0  0  0  0  0  0
    5.2520   -6.2291    0.0000 H   0  0  0  0  0  0  0  0  0  0  0  0
    6.7287   -3.6715    0.0000 H   0  0  0  0  0  0  0  0  0  0  0  0
    5.9316   -3.6715    0.0000 H   0  0  0  0  0  0  0  0  0  0  0  0
    5.9316   -6.6214    0.0000 H   0  0  0  0  0  0  0  0  0  0  0  0
    6.7287   -6.6214    0.0000 H   0  0  0  0  0  0  0  0  0  0  0  0
    7.8067   -4.7542    0.0000 H   0  0  0  0  0  0  0  0  0  0  0  0
    7.4082   -4.0639    0.0000 H   0  0  0  0  0  0  0  0  0  0  0  0
    3.9875   -4.0388    0.0000 H   0  0  0  0  0  0  0  0  0  0  0  0
    4.3860   -4.7291    0.0000 H   0  0  0  0  0  0  0  0  0  0  0  0
    8.9282   -5.0265    0.0000 H   0  0  0  0  0  0  0  0  0  0  0  0
    3.1951   -2.9565    0.0000 H   0  0  0  0  0  0  0  0  0  0  0  0
    6.0010   -2.9565    0.0000 H   0  0  0  0  0  0  0  0  0  0  0  0
    8.9282   -8.2665    0.0000 H   0  0  0  0  0  0  0  0  0  0  0  0
   10.3312   -5.8365    0.0000 H   0  0  0  0  0  0  0  0  0  0  0  0
    6.0010   -1.3365    0.0000 H   0  0  0  0  0  0  0  0  0  0  0  0
   10.3312   -7.4565    0.0000 H   0  0  0  0  0  0  0  0  0  0  0  0
    5.6762   -0.2291    0.0000 H   0  0  0  0  0  0  0  0  0  0  0  0
    6.0747    0.4612    0.0000 H   0  0  0  0  0  0  0  0  0  0  0  0
    5.2520    1.9361    0.0000 H   0  0  0  0  0  0  0  0  0  0  0  0
    4.8535    1.2458    0.0000 H   0  0  0  0  0  0  0  0  0  0  0  0
    6.5422    1.2709    0.0000 H   0  0  0  0  0  0  0  0  0  0  0  0
    6.9407    1.9612    0.0000 H   0  0  0  0  0  0  0  0  0  0  0  0
    6.5762   -8.6465    0.0000 H   0  0  0  0  0  0  0  0  0  0  0  0
    7.1962   -9.2665    0.0000 H   0  0  0  0  0  0  0  0  0  0  0  0
    7.8162   -8.6465    0.0000 H   0  0  0  0  0  0  0  0  0  0  0  0
    7.7288    3.2497    0.0000 H   0  0  0  0  0  0  0  0  0  0  0  0
    1.6900   -1.1096    0.0000 H   0  0  0  0  0  0  0  0  0  0  0  0
    1.4631   -1.9565    0.0000 H   0  0  0  0  0  0  0  0  0  0  0  0
    2.3100   -2.1834    0.0000 H   0  0  0  0  0  0  0  0  0  0  0  0
    7.8486    4.7554    0.0000 H   0  0  0  0  0  0  0  0  0  0  0  0
    7.9319    5.5481    0.0000 H   0  0  0  0  0  0  0  0  0  0  0  0
    6.5805    6.5609    0.0000 H   0  0  0  0  0  0  0  0  0  0  0  0
    6.4972    5.7682    0.0000 H   0  0  0  0  0  0  0  0  0  0  0  0
    6.7615    8.2835    0.0000 H   0  0  0  0  0  0  0  0  0  0  0  0
    6.6782    7.4908    0.0000 H   0  0  0  0  0  0  0  0  0  0  0  0
    8.2816    8.2821    0.0000 H   0  0  0  0  0  0  0  0  0  0  0  0
    8.1444    9.1481    0.0000 H   0  0  0  0  0  0  0  0  0  0  0  0
    7.2784    9.0109    0.0000 H   0  0  0  0  0  0  0  0  0  0  0  0
  1 17  1  0  0  0  0
  1 30  1  0  0  0  0
  2 25  1  0  0  0  0
  2 27  1  0  0  0  0
  3 22  1  0  0  0  0
  3 33  1  0  0  0  0
  4 35  1  0  0  0  0
  4 36  1  0  0  0  0
  5 10  1  0  0  0  0
  5 11  1  0  0  0  0
  5 14  1  0  0  0  0
  6 12  1  0  0  0  0
  6 13  1  0  0  0  0
  6 15  1  0  0  0  0
  7  9  1  0  0  0  0
  7 32  1  0  0  0  0
  7 34  1  0  0  0  0
  8  9  2  0  0  0  0
  8 31  1  0  0  0  0
 10 12  1  0  0  0  0
 10 38  1  0  0  0  0
 10 39  1  0  0  0  0
 11 13  1  0  0  0  0
 11 40  1  0  0  0  0
 11 41  1  0  0  0  0
 12 42  1  0  0  0  0
 12 43  1  0  0  0  0
 13 44  1  0  0  0  0
 13 45  1  0  0  0  0
 14 16  1  0  0  0  0
 14 46  1  0  0  0  0
 14 47  1  0  0  0  0
 15 17  1  0  0  0  0
 15 18  2  0  0  0  0
 16 19  2  0  0  0  0
 16 20  1  0  0  0  0
 17 21  2  0  0  0  0
 18 23  1  0  0  0  0
 18 48  1  0  0  0  0
 19 22  1  0  0  0  0
 19 49  1  0  0  0  0
 20 24  2  0  0  0  0
 20 50  1  0  0  0  0
 21 26  1  0  0  0  0
 21 51  1  0  0  0  0
 22 25  2  0  0  0  0
 23 26  2  0  0  0  0
 23 52  1  0  0  0  0
 24 25  1  0  0  0  0
 24 53  1  0  0  0  0
 26 54  1  0  0  0  0
 27 28  1  0  0  0  0
 27 55  1  0  0  0  0
 27 56  1  0  0  0  0
 28 29  1  0  0  0  0
 28 57  1  0  0  0  0
 28 58  1  0  0  0  0
 29 31  1  0  0  0  0
 29 59  1  0  0  0  0
 29 60  1  0  0  0  0
 30 61  1  0  0  0  0
 30 62  1  0  0  0  0
 30 63  1  0  0  0  0
 31 32  2  0  0  0  0
 32 64  1  0  0  0  0
 33 65  1  0  0  0  0
 33 66  1  0  0  0  0
 33 67  1  0  0  0  0
 34 35  1  0  0  0  0
 34 68  1  0  0  0  0
 34 69  1  0  0  0  0
 35 70  1  0  0  0  0
 35 71  1  0  0  0  0
 36 37  1  0  0  0  0
 36 72  1  0  0  0  0
 36 73  1  0  0  0  0
 37 74  1  0  0  0  0
 37 75  1  0  0  0  0
 37 76  1  0  0  0  0
M  END
> <PUBCHEM_COMPOUND_CID>
53363200

> <PUBCHEM_COMPOUND_CANONICALIZED>
1

> <PUBCHEM_CACTVS_COMPLEXITY>
623

> <PUBCHEM_CACTVS_HBOND_ACCEPTOR>
8

> <PUBCHEM_CACTVS_HBOND_DONOR>
0

> <PUBCHEM_CACTVS_ROTATABLE_BOND>
14

> <PUBCHEM_CACTVS_SUBSKEYS>
AAADcfB7uAAAAAAAAAAAAAAAAAAAAWAAAAA8YIAAAAAAAAAB0AAAHgAIAAAADAzhngY+xpMIBACiAzRnRACCDAQxsgAY2AA//IgPZiLEsZuXOCrkwBHa6Aew0BIOIAABAAAAUABAAAIAAACgAAAAAAAAAA==

> <PUBCHEM_IUPAC_OPENEYE_NAME>
1-[[4-[3-[1-(2-ethoxyethyl)triazol-4-yl]propoxy]-3-methoxy-phenyl]methyl]-4-(2-methoxyphenyl)piperazine

> <PUBCHEM_IUPAC_CAS_NAME>
1-[[4-[3-[1-(2-ethoxyethyl)-4-triazolyl]propoxy]-3-methoxyphenyl]methyl]-4-(2-methoxyphenyl)piperazine

> <PUBCHEM_IUPAC_NAME_MARKUP>
1-[[4-[3-[1-(2-ethoxyethyl)triazol-4-yl]propoxy]-3-methoxyphenyl]methyl]-4-(2-methoxyphenyl)piperazine

> <PUBCHEM_IUPAC_NAME>
1-[[4-[3-[1-(2-ethoxyethyl)triazol-4-yl]propoxy]-3-methoxyphenyl]methyl]-4-(2-methoxyphenyl)piperazine

> <PUBCHEM_IUPAC_SYSTEMATIC_NAME>
1-[[4-[3-[1-(2-ethoxyethyl)-1,2,3-triazol-4-yl]propoxy]-3-methoxy-phenyl]methyl]-4-(2-methoxyphenyl)piperazine

> <PUBCHEM_IUPAC_TRADITIONAL_NAME>
1-[4-[3-[1-(2-ethoxyethyl)triazol-4-yl]propoxy]-3-methoxy-benzyl]-4-(2-methoxyphenyl)piperazine

> <PUBCHEM_IUPAC_INCHI>
InChI=1S/C28H39N5O4/c1-4-36-19-17-33-22-24(29-30-33)8-7-18-37-27-12-11-23(20-28(27)35-3)21-31-13-15-32(16-14-31)25-9-5-6-10-26(25)34-2/h5-6,9-12,20,22H,4,7-8,13-19,21H2,1-3H3

> <PUBCHEM_IUPAC_INCHIKEY>
WFNJZMXOSUJROE-UHFFFAOYSA-N

> <PUBCHEM_XLOGP3_AA>
3.5

> <PUBCHEM_EXACT_MASS>
509.30020474

> <PUBCHEM_MOLECULAR_FORMULA>
C28H39N5O4

> <PUBCHEM_MOLECULAR_WEIGHT>
509.6

> <PUBCHEM_OPENEYE_CAN_SMILES>
CCOCCN1C=C(N=N1)CCCOC2=C(C=C(C=C2)CN3CCN(CC3)C4=CC=CC=C4OC)OC

> <PUBCHEM_OPENEYE_ISO_SMILES>
CCOCCN1C=C(N=N1)CCCOC2=C(C=C(C=C2)CN3CCN(CC3)C4=CC=CC=C4OC)OC

> <PUBCHEM_CACTVS_TPSA>
74.1

> <PUBCHEM_MONOISOTOPIC_WEIGHT>
509.30020474

> <PUBCHEM_TOTAL_CHARGE>
0

> <PUBCHEM_HEAVY_ATOM_COUNT>
37

> <PUBCHEM_ATOM_DEF_STEREO_COUNT>
0

> <PUBCHEM_ATOM_UDEF_STEREO_COUNT>
0

> <PUBCHEM_BOND_DEF_STEREO_COUNT>
0

> <PUBCHEM_BOND_UDEF_STEREO_COUNT>
0

> <PUBCHEM_ISOTOPIC_ATOM_COUNT>
0

> <PUBCHEM_COMPONENT_COUNT>
1

> <PUBCHEM_CACTVS_TAUTO_COUNT>
-1

> <PUBCHEM_COORDINATE_TYPE>
1
5
255

> <PUBCHEM_BONDANNOTATIONS>
15  17  8
15  18  8
16  19  8
16  20  8
17  21  8
18  23  8
19  22  8
20  24  8
21  26  8
22  25  8
23  26  8
24  25  8
31  32  8
7  32  8
7  9  8
8  31  8
8  9  8

$$$$
