11512962
  -OEChem-09292322272D

 63 67  0     0  0  0  0  0  0999 V2000
    3.6953   -4.2200    0.0000 O   0  0  0  0  0  0  0  0  0  0  0  0
    3.6340   -2.1364    0.0000 O   0  0  0  0  0  0  0  0  0  0  0  0
    2.5000   -6.0322    0.0000 O   0  0  0  0  0  0  0  0  0  0  0  0
    7.0981    1.8636    0.0000 N   0  0  0  0  0  0  0  0  0  0  0  0
    7.0981    3.8636    0.0000 N   0  0  0  0  0  0  0  0  0  0  0  0
    5.3660   -2.1364    0.0000 N   0  0  0  0  0  0  0  0  0  0  0  0
    8.8580    4.8290    0.0000 N   0  0  0  0  0  0  0  0  0  0  0  0
    8.8580    6.8983    0.0000 N   0  0  0  0  0  0  0  0  0  0  0  0
    7.9641    2.3636    0.0000 C   0  0  0  0  0  0  0  0  0  0  0  0
    6.2320    2.3636    0.0000 C   0  0  0  0  0  0  0  0  0  0  0  0
    7.9641    3.3636    0.0000 C   0  0  0  0  0  0  0  0  0  0  0  0
    6.2320    3.3636    0.0000 C   0  0  0  0  0  0  0  0  0  0  0  0
    7.0981    0.8636    0.0000 C   0  0  0  0  0  0  0  0  0  0  0  0
    6.2320    0.3636    0.0000 C   0  0  0  0  0  0  0  0  0  0  0  0
    7.0981    4.8636    0.0000 C   0  0  0  0  0  0  0  0  0  0  0  0
    6.2320   -0.6364    0.0000 C   0  0  0  0  0  0  0  0  0  0  0  0
    5.3660   -1.1364    0.0000 C   0  0  0  0  0  0  0  0  0  0  0  0
    7.9641    5.3636    0.0000 C   0  0  0  0  0  0  0  0  0  0  0  0
    6.2320    5.3636    0.0000 C   0  0  0  0  0  0  0  0  0  0  0  0
    7.9641    6.3636    0.0000 C   0  0  0  0  0  0  0  0  0  0  0  0
    6.2320    6.3636    0.0000 C   0  0  0  0  0  0  0  0  0  0  0  0
    7.0981    6.8636    0.0000 C   0  0  0  0  0  0  0  0  0  0  0  0
    4.5000   -2.6364    0.0000 C   0  0  0  0  0  0  0  0  0  0  0  0
    9.7641    5.3428    0.0000 C   0  0  0  0  0  0  0  0  0  0  0  0
    4.5000   -3.6364    0.0000 C   0  0  0  0  0  0  0  0  0  0  0  0
    9.7641    6.3844    0.0000 C   0  0  0  0  0  0  0  0  0  0  0  0
    5.3047   -4.2200    0.0000 C   0  0  0  0  0  0  0  0  0  0  0  0
    5.0000   -5.1662    0.0000 C   0  0  0  0  0  0  0  0  0  0  0  0
    4.0000   -5.1662    0.0000 C   0  0  0  0  0  0  0  0  0  0  0  0
    3.5000   -6.0322    0.0000 C   0  0  0  0  0  0  0  0  0  0  0  0
    5.5000   -6.0322    0.0000 C   0  0  0  0  0  0  0  0  0  0  0  0
    4.0000   -6.8983    0.0000 C   0  0  0  0  0  0  0  0  0  0  0  0
    5.0000   -6.8983    0.0000 C   0  0  0  0  0  0  0  0  0  0  0  0
    2.0000   -6.8983    0.0000 C   0  0  0  0  0  0  0  0  0  0  0  0
    8.1762    1.7810    0.0000 H   0  0  0  0  0  0  0  0  0  0  0  0
    8.5747    2.4713    0.0000 H   0  0  0  0  0  0  0  0  0  0  0  0
    5.6215    2.4713    0.0000 H   0  0  0  0  0  0  0  0  0  0  0  0
    6.0200    1.7810    0.0000 H   0  0  0  0  0  0  0  0  0  0  0  0
    8.5747    3.2560    0.0000 H   0  0  0  0  0  0  0  0  0  0  0  0
    8.1762    3.9462    0.0000 H   0  0  0  0  0  0  0  0  0  0  0  0
    6.0200    3.9462    0.0000 H   0  0  0  0  0  0  0  0  0  0  0  0
    5.6215    3.2560    0.0000 H   0  0  0  0  0  0  0  0  0  0  0  0
    7.3101    0.2810    0.0000 H   0  0  0  0  0  0  0  0  0  0  0  0
    7.7087    0.9713    0.0000 H   0  0  0  0  0  0  0  0  0  0  0  0
    6.0200    0.9462    0.0000 H   0  0  0  0  0  0  0  0  0  0  0  0
    5.6215    0.2559    0.0000 H   0  0  0  0  0  0  0  0  0  0  0  0
    6.4441   -1.2190    0.0000 H   0  0  0  0  0  0  0  0  0  0  0  0
    6.8426   -0.5287    0.0000 H   0  0  0  0  0  0  0  0  0  0  0  0
    5.1540   -0.5538    0.0000 H   0  0  0  0  0  0  0  0  0  0  0  0
    4.7554   -1.2441    0.0000 H   0  0  0  0  0  0  0  0  0  0  0  0
    5.6951    5.0536    0.0000 H   0  0  0  0  0  0  0  0  0  0  0  0
    5.6951    6.6736    0.0000 H   0  0  0  0  0  0  0  0  0  0  0  0
    5.9030   -2.4464    0.0000 H   0  0  0  0  0  0  0  0  0  0  0  0
    7.0981    7.4836    0.0000 H   0  0  0  0  0  0  0  0  0  0  0  0
   10.2998    5.0307    0.0000 H   0  0  0  0  0  0  0  0  0  0  0  0
   10.2998    6.6965    0.0000 H   0  0  0  0  0  0  0  0  0  0  0  0
    5.8940   -4.0274    0.0000 H   0  0  0  0  0  0  0  0  0  0  0  0
    6.1200   -6.0322    0.0000 H   0  0  0  0  0  0  0  0  0  0  0  0
    3.6900   -7.4352    0.0000 H   0  0  0  0  0  0  0  0  0  0  0  0
    5.3100   -7.4352    0.0000 H   0  0  0  0  0  0  0  0  0  0  0  0
    1.4631   -6.5883    0.0000 H   0  0  0  0  0  0  0  0  0  0  0  0
    1.6900   -7.4352    0.0000 H   0  0  0  0  0  0  0  0  0  0  0  0
    2.5369   -7.2083    0.0000 H   0  0  0  0  0  0  0  0  0  0  0  0
  1 25  1  0  0  0  0
  1 29  1  0  0  0  0
  2 23  2  0  0  0  0
  3 30  1  0  0  0  0
  3 34  1  0  0  0  0
  4  9  1  0  0  0  0
  4 10  1  0  0  0  0
  4 13  1  0  0  0  0
  5 11  1  0  0  0  0
  5 12  1  0  0  0  0
  5 15  1  0  0  0  0
  6 17  1  0  0  0  0
  6 23  1  0  0  0  0
  6 53  1  0  0  0  0
  7 18  2  0  0  0  0
  7 24  1  0  0  0  0
  8 20  2  0  0  0  0
  8 26  1  0  0  0  0
  9 11  1  0  0  0  0
  9 35  1  0  0  0  0
  9 36  1  0  0  0  0
 10 12  1  0  0  0  0
 10 37  1  0  0  0  0
 10 38  1  0  0  0  0
 11 39  1  0  0  0  0
 11 40  1  0  0  0  0
 12 41  1  0  0  0  0
 12 42  1  0  0  0  0
 13 14  1  0  0  0  0
 13 43  1  0  0  0  0
 13 44  1  0  0  0  0
 14 16  1  0  0  0  0
 14 45  1  0  0  0  0
 14 46  1  0  0  0  0
 15 18  1  0  0  0  0
 15 19  2  0  0  0  0
 16 17  1  0  0  0  0
 16 47  1  0  0  0  0
 16 48  1  0  0  0  0
 17 49  1  0  0  0  0
 17 50  1  0  0  0  0
 18 20  1  0  0  0  0
 19 21  1  0  0  0  0
 19 51  1  0  0  0  0
 20 22  1  0  0  0  0
 21 22  2  0  0  0  0
 21 52  1  0  0  0  0
 22 54  1  0  0  0  0
 23 25  1  0  0  0  0
 24 26  2  0  0  0  0
 24 55  1  0  0  0  0
 25 27  2  0  0  0  0
 26 56  1  0  0  0  0
 27 28  1  0  0  0  0
 27 57  1  0  0  0  0
 28 29  2  0  0  0  0
 28 31  1  0  0  0  0
 29 30  1  0  0  0  0
 30 32  2  0  0  0  0
 31 33  2  0  0  0  0
 31 58  1  0  0  0  0
 32 33  1  0  0  0  0
 32 59  1  0  0  0  0
 33 60  1  0  0  0  0
 34 61  1  0  0  0  0
 34 62  1  0  0  0  0
 34 63  1  0  0  0  0
M  END
> <PUBCHEM_COMPOUND_CID>
11512962

> <PUBCHEM_COMPOUND_CANONICALIZED>
1

> <PUBCHEM_CACTVS_COMPLEXITY>
658

> <PUBCHEM_CACTVS_HBOND_ACCEPTOR>
7

> <PUBCHEM_CACTVS_HBOND_DONOR>
1

> <PUBCHEM_CACTVS_ROTATABLE_BOND>
8

> <PUBCHEM_CACTVS_SUBSKEYS>
AAADceB7sAAAAAAAAAAAAAAAAAAAASAAAAA8eIEAAAAAAEix/gAAHgAQAAAADAzBngY+xvPIFECoA7V3VAKCiCQ1MiAI2KH+/NgPZvLE9f+XPSrk1hHa6YeY/77uAAABAAQIQCAAAAIACBCAQAAAAAAAAA==

> <PUBCHEM_IUPAC_OPENEYE_NAME>
7-methoxy-N-[4-(4-quinoxalin-5-ylpiperazin-1-yl)butyl]benzofuran-2-carboxamide

> <PUBCHEM_IUPAC_CAS_NAME>
7-methoxy-N-[4-[4-(5-quinoxalinyl)-1-piperazinyl]butyl]-2-benzofurancarboxamide

> <PUBCHEM_IUPAC_NAME_MARKUP>
7-methoxy-<I>N</I>-[4-(4-quinoxalin-5-ylpiperazin-1-yl)butyl]-1-benzofuran-2-carboxamide

> <PUBCHEM_IUPAC_NAME>
7-methoxy-N-[4-(4-quinoxalin-5-ylpiperazin-1-yl)butyl]-1-benzofuran-2-carboxamide

> <PUBCHEM_IUPAC_SYSTEMATIC_NAME>
7-methoxy-N-[4-(4-quinoxalin-5-ylpiperazin-1-yl)butyl]-1-benzofuran-2-carboxamide

> <PUBCHEM_IUPAC_TRADITIONAL_NAME>
7-methoxy-N-[4-(4-quinoxalin-5-ylpiperazino)butyl]coumarilamide

> <PUBCHEM_IUPAC_INCHI>
InChI=1S/C26H29N5O3/c1-33-22-9-4-6-19-18-23(34-25(19)22)26(32)29-10-2-3-13-30-14-16-31(17-15-30)21-8-5-7-20-24(21)28-12-11-27-20/h4-9,11-12,18H,2-3,10,13-17H2,1H3,(H,29,32)

> <PUBCHEM_IUPAC_INCHIKEY>
DTQBVMPAFWTCFE-UHFFFAOYSA-N

> <PUBCHEM_XLOGP3_AA>
3.5

> <PUBCHEM_EXACT_MASS>
459.22703980

> <PUBCHEM_MOLECULAR_FORMULA>
C26H29N5O3

> <PUBCHEM_MOLECULAR_WEIGHT>
459.5

> <PUBCHEM_OPENEYE_CAN_SMILES>
COC1=CC=CC2=C1OC(=C2)C(=O)NCCCCN3CCN(CC3)C4=CC=CC5=NC=CN=C54

> <PUBCHEM_OPENEYE_ISO_SMILES>
COC1=CC=CC2=C1OC(=C2)C(=O)NCCCCN3CCN(CC3)C4=CC=CC5=NC=CN=C54

> <PUBCHEM_CACTVS_TPSA>
83.7

> <PUBCHEM_MONOISOTOPIC_WEIGHT>
459.22703980

> <PUBCHEM_TOTAL_CHARGE>
0

> <PUBCHEM_HEAVY_ATOM_COUNT>
34

> <PUBCHEM_ATOM_DEF_STEREO_COUNT>
0

> <PUBCHEM_ATOM_UDEF_STEREO_COUNT>
0

> <PUBCHEM_BOND_DEF_STEREO_COUNT>
0

> <PUBCHEM_BOND_UDEF_STEREO_COUNT>
0

> <PUBCHEM_ISOTOPIC_ATOM_COUNT>
0

> <PUBCHEM_COMPONENT_COUNT>
1

> <PUBCHEM_CACTVS_TAUTO_COUNT>
-1

> <PUBCHEM_COORDINATE_TYPE>
1
5
255

> <PUBCHEM_BONDANNOTATIONS>
1  25  8
1  29  8
15  18  8
15  19  8
18  20  8
19  21  8
20  22  8
21  22  8
24  26  8
25  27  8
27  28  8
28  29  8
28  31  8
29  30  8
30  32  8
31  33  8
32  33  8
7  18  8
7  24  8
8  20  8
8  26  8

$$$$
