162646896
  -OEChem-09292322062D

 57 61  0     0  0  0  0  0  0999 V2000
    8.2103   -5.3221    0.0000 S   0  0  0  0  0  0  0  0  0  0  0  0
    4.6660    5.4827    0.0000 O   0  0  0  0  0  0  0  0  0  0  0  0
    6.3981    3.4827    0.0000 O   0  0  0  0  0  0  0  0  0  0  0  0
    6.3981   -0.5173    0.0000 N   0  0  0  0  0  0  0  0  0  0  0  0
    6.3981   -2.5173    0.0000 N   0  0  0  0  0  0  0  0  0  0  0  0
    4.6660    3.4827    0.0000 N   0  0  0  0  0  0  0  0  0  0  0  0
    5.5321   -1.0173    0.0000 C   0  0  0  0  0  0  0  0  0  0  0  0
    7.2641   -1.0173    0.0000 C   0  0  0  0  0  0  0  0  0  0  0  0
    5.5321   -2.0173    0.0000 C   0  0  0  0  0  0  0  0  0  0  0  0
    7.2641   -2.0173    0.0000 C   0  0  0  0  0  0  0  0  0  0  0  0
    6.3981    0.4827    0.0000 C   0  0  0  0  0  0  0  0  0  0  0  0
    5.5321    0.9827    0.0000 C   0  0  0  0  0  0  0  0  0  0  0  0
    5.5321    1.9827    0.0000 C   0  0  0  0  0  0  0  0  0  0  0  0
    6.3981   -3.5173    0.0000 C   0  0  0  0  0  0  0  0  0  0  0  0
    4.6660    2.4827    0.0000 C   0  0  0  0  0  0  0  0  0  0  0  0
    7.2641   -4.0173    0.0000 C   0  0  0  0  0  0  0  0  0  0  0  0
    5.5321   -4.0173    0.0000 C   0  0  0  0  0  0  0  0  0  0  0  0
    7.2641   -5.0173    0.0000 C   0  0  0  0  0  0  0  0  0  0  0  0
    3.8000    3.9827    0.0000 C   0  0  0  0  0  0  0  0  0  0  0  0
    8.2103   -3.7126    0.0000 C   0  0  0  0  0  0  0  0  0  0  0  0
    5.5321   -5.0173    0.0000 C   0  0  0  0  0  0  0  0  0  0  0  0
    5.5321    3.9827    0.0000 C   0  0  0  0  0  0  0  0  0  0  0  0
    6.3981   -5.5173    0.0000 C   0  0  0  0  0  0  0  0  0  0  0  0
    3.8000    4.9827    0.0000 C   0  0  0  0  0  0  0  0  0  0  0  0
    5.5321    4.9827    0.0000 C   0  0  0  0  0  0  0  0  0  0  0  0
    8.7939   -4.5173    0.0000 C   0  0  0  0  0  0  0  0  0  0  0  0
    2.9061    3.4480    0.0000 C   0  0  0  0  0  0  0  0  0  0  0  0
    2.9061    5.5173    0.0000 C   0  0  0  0  0  0  0  0  0  0  0  0
    2.0000    3.9618    0.0000 C   0  0  0  0  0  0  0  0  0  0  0  0
    2.0000    5.0035    0.0000 C   0  0  0  0  0  0  0  0  0  0  0  0
    5.3200   -0.4347    0.0000 H   0  0  0  0  0  0  0  0  0  0  0  0
    4.9215   -1.1250    0.0000 H   0  0  0  0  0  0  0  0  0  0  0  0
    7.8747   -1.1250    0.0000 H   0  0  0  0  0  0  0  0  0  0  0  0
    7.4762   -0.4347    0.0000 H   0  0  0  0  0  0  0  0  0  0  0  0
    4.9215   -1.9097    0.0000 H   0  0  0  0  0  0  0  0  0  0  0  0
    5.3200   -2.5999    0.0000 H   0  0  0  0  0  0  0  0  0  0  0  0
    7.4762   -2.5999    0.0000 H   0  0  0  0  0  0  0  0  0  0  0  0
    7.8747   -1.9097    0.0000 H   0  0  0  0  0  0  0  0  0  0  0  0
    7.0087    0.3750    0.0000 H   0  0  0  0  0  0  0  0  0  0  0  0
    6.6101    1.0653    0.0000 H   0  0  0  0  0  0  0  0  0  0  0  0
    4.9215    1.0903    0.0000 H   0  0  0  0  0  0  0  0  0  0  0  0
    5.3200    0.4001    0.0000 H   0  0  0  0  0  0  0  0  0  0  0  0
    6.1426    1.8750    0.0000 H   0  0  0  0  0  0  0  0  0  0  0  0
    5.7441    2.5653    0.0000 H   0  0  0  0  0  0  0  0  0  0  0  0
    4.0555    2.5903    0.0000 H   0  0  0  0  0  0  0  0  0  0  0  0
    4.4540    1.9001    0.0000 H   0  0  0  0  0  0  0  0  0  0  0  0
    4.9951   -3.7073    0.0000 H   0  0  0  0  0  0  0  0  0  0  0  0
    8.4029   -3.1233    0.0000 H   0  0  0  0  0  0  0  0  0  0  0  0
    4.9951   -5.3273    0.0000 H   0  0  0  0  0  0  0  0  0  0  0  0
    6.3981   -6.1373    0.0000 H   0  0  0  0  0  0  0  0  0  0  0  0
    6.1426    4.8750    0.0000 H   0  0  0  0  0  0  0  0  0  0  0  0
    5.7441    5.5653    0.0000 H   0  0  0  0  0  0  0  0  0  0  0  0
    9.4139   -4.5173    0.0000 H   0  0  0  0  0  0  0  0  0  0  0  0
    2.9132    2.8280    0.0000 H   0  0  0  0  0  0  0  0  0  0  0  0
    2.9132    6.1373    0.0000 H   0  0  0  0  0  0  0  0  0  0  0  0
    1.4643    3.6498    0.0000 H   0  0  0  0  0  0  0  0  0  0  0  0
    1.4643    5.3156    0.0000 H   0  0  0  0  0  0  0  0  0  0  0  0
  1 18  1  0  0  0  0
  1 26  1  0  0  0  0
  2 24  1  0  0  0  0
  2 25  1  0  0  0  0
  3 22  2  0  0  0  0
  4  7  1  0  0  0  0
  4  8  1  0  0  0  0
  4 11  1  0  0  0  0
  5  9  1  0  0  0  0
  5 10  1  0  0  0  0
  5 14  1  0  0  0  0
  6 15  1  0  0  0  0
  6 19  1  0  0  0  0
  6 22  1  0  0  0  0
  7  9  1  0  0  0  0
  7 31  1  0  0  0  0
  7 32  1  0  0  0  0
  8 10  1  0  0  0  0
  8 33  1  0  0  0  0
  8 34  1  0  0  0  0
  9 35  1  0  0  0  0
  9 36  1  0  0  0  0
 10 37  1  0  0  0  0
 10 38  1  0  0  0  0
 11 12  1  0  0  0  0
 11 39  1  0  0  0  0
 11 40  1  0  0  0  0
 12 13  1  0  0  0  0
 12 41  1  0  0  0  0
 12 42  1  0  0  0  0
 13 15  1  0  0  0  0
 13 43  1  0  0  0  0
 13 44  1  0  0  0  0
 14 16  2  0  0  0  0
 14 17  1  0  0  0  0
 15 45  1  0  0  0  0
 15 46  1  0  0  0  0
 16 18  1  0  0  0  0
 16 20  1  0  0  0  0
 17 21  2  0  0  0  0
 17 47  1  0  0  0  0
 18 23  2  0  0  0  0
 19 24  1  0  0  0  0
 19 27  2  0  0  0  0
 20 26  2  0  0  0  0
 20 48  1  0  0  0  0
 21 23  1  0  0  0  0
 21 49  1  0  0  0  0
 22 25  1  0  0  0  0
 23 50  1  0  0  0  0
 24 28  2  0  0  0  0
 25 51  1  0  0  0  0
 25 52  1  0  0  0  0
 26 53  1  0  0  0  0
 27 29  1  0  0  0  0
 27 54  1  0  0  0  0
 28 30  1  0  0  0  0
 28 55  1  0  0  0  0
 29 30  2  0  0  0  0
 29 56  1  0  0  0  0
 30 57  1  0  0  0  0
M  END
> <PUBCHEM_COMPOUND_CID>
162646896

> <PUBCHEM_COMPOUND_CANONICALIZED>
1

> <PUBCHEM_CACTVS_COMPLEXITY>
583

> <PUBCHEM_CACTVS_HBOND_ACCEPTOR>
5

> <PUBCHEM_CACTVS_HBOND_DONOR>
0

> <PUBCHEM_CACTVS_ROTATABLE_BOND>
6

> <PUBCHEM_CACTVS_SUBSKEYS>
AAADceB7MABAAAAAAAAAAAAAAAAAASAAAAA8eIEAAAAAAEix9AAAHgQAAAAADAzl2Aawx8MABAiMAiVSUAKDCIAhKhBIiBhPbIgOZiLksZ+XOCzkxhH46AeQwIAOAAAAACAGEAAAAAAAQAwgAAAAAAAAAA==

> <PUBCHEM_IUPAC_OPENEYE_NAME>
4-[4-[4-(benzothiophen-4-yl)piperazin-1-yl]butyl]-1,4-benzoxazin-3-one

> <PUBCHEM_IUPAC_CAS_NAME>
4-[4-[4-(1-benzothiophen-4-yl)-1-piperazinyl]butyl]-1,4-benzoxazin-3-one

> <PUBCHEM_IUPAC_NAME_MARKUP>
4-[4-[4-(1-benzothiophen-4-yl)piperazin-1-yl]butyl]-1,4-benzoxazin-3-one

> <PUBCHEM_IUPAC_NAME>
4-[4-[4-(1-benzothiophen-4-yl)piperazin-1-yl]butyl]-1,4-benzoxazin-3-one

> <PUBCHEM_IUPAC_SYSTEMATIC_NAME>
4-[4-[4-(1-benzothiophen-4-yl)piperazin-1-yl]butyl]-1,4-benzoxazin-3-one

> <PUBCHEM_IUPAC_TRADITIONAL_NAME>
4-[4-[4-(benzothiophen-4-yl)piperazino]butyl]-1,4-benzoxazin-3-one

> <PUBCHEM_IUPAC_INCHI>
InChI=1S/C24H27N3O2S/c28-24-18-29-22-8-2-1-6-21(22)27(24)12-4-3-11-25-13-15-26(16-14-25)20-7-5-9-23-19(20)10-17-30-23/h1-2,5-10,17H,3-4,11-16,18H2

> <PUBCHEM_IUPAC_INCHIKEY>
SXEPPXITHUOXQU-UHFFFAOYSA-N

> <PUBCHEM_XLOGP3_AA>
4.4

> <PUBCHEM_EXACT_MASS>
421.18239829

> <PUBCHEM_MOLECULAR_FORMULA>
C24H27N3O2S

> <PUBCHEM_MOLECULAR_WEIGHT>
421.6

> <PUBCHEM_OPENEYE_CAN_SMILES>
C1CN(CCN1CCCCN2C(=O)COC3=CC=CC=C32)C4=C5C=CSC5=CC=C4

> <PUBCHEM_OPENEYE_ISO_SMILES>
C1CN(CCN1CCCCN2C(=O)COC3=CC=CC=C32)C4=C5C=CSC5=CC=C4

> <PUBCHEM_CACTVS_TPSA>
64.3

> <PUBCHEM_MONOISOTOPIC_WEIGHT>
421.18239829

> <PUBCHEM_TOTAL_CHARGE>
0

> <PUBCHEM_HEAVY_ATOM_COUNT>
30

> <PUBCHEM_ATOM_DEF_STEREO_COUNT>
0

> <PUBCHEM_ATOM_UDEF_STEREO_COUNT>
0

> <PUBCHEM_BOND_DEF_STEREO_COUNT>
0

> <PUBCHEM_BOND_UDEF_STEREO_COUNT>
0

> <PUBCHEM_ISOTOPIC_ATOM_COUNT>
0

> <PUBCHEM_COMPONENT_COUNT>
1

> <PUBCHEM_CACTVS_TAUTO_COUNT>
-1

> <PUBCHEM_COORDINATE_TYPE>
1
5
255

> <PUBCHEM_BONDANNOTATIONS>
1  18  8
1  26  8
14  16  8
14  17  8
16  18  8
16  20  8
17  21  8
18  23  8
19  24  8
19  27  8
20  26  8
21  23  8
24  28  8
27  29  8
28  30  8
29  30  8

$$$$
