11792163
  -OEChem-09292322102D

 52 55  0     0  0  0  0  0  0999 V2000
   11.5542    0.6120    0.0000 O   0  0  0  0  0  0  0  0  0  0  0  0
   13.3244   -1.4468    0.0000 O   0  0  0  0  0  0  0  0  0  0  0  0
    7.1962   -0.9227    0.0000 N   0  0  0  0  0  0  0  0  0  0  0  0
   11.5542   -1.4574    0.0000 N   0  0  0  0  0  0  0  0  0  0  0  0
    5.4641    0.0773    0.0000 C   0  0  0  0  0  0  0  0  0  0  0  0
    6.3301    0.5773    0.0000 C   0  0  0  0  0  0  0  0  0  0  0  0
    5.4641   -0.9227    0.0000 C   0  0  0  0  0  0  0  0  0  0  0  0
    7.1962    0.0773    0.0000 C   0  0  0  0  0  0  0  0  0  0  0  0
    6.3301   -1.4227    0.0000 C   0  0  0  0  0  0  0  0  0  0  0  0
    4.5981    0.5773    0.0000 C   0  0  0  0  0  0  0  0  0  0  0  0
    8.0622   -1.4227    0.0000 C   0  0  0  0  0  0  0  0  0  0  0  0
    3.7320    0.0773    0.0000 C   0  0  0  0  0  0  0  0  0  0  0  0
    8.9282   -0.9227    0.0000 C   0  0  0  0  0  0  0  0  0  0  0  0
    4.5981    1.5773    0.0000 C   0  0  0  0  0  0  0  0  0  0  0  0
    2.8660    0.5773    0.0000 C   0  0  0  0  0  0  0  0  0  0  0  0
    3.7320    2.0773    0.0000 C   0  0  0  0  0  0  0  0  0  0  0  0
    2.8660    1.5773    0.0000 C   0  0  0  0  0  0  0  0  0  0  0  0
    9.7942   -1.4227    0.0000 C   0  0  0  0  0  0  0  0  0  0  0  0
    8.9282    0.0773    0.0000 C   0  0  0  0  0  0  0  0  0  0  0  0
   10.6603   -0.9227    0.0000 C   0  0  0  0  0  0  0  0  0  0  0  0
    2.0000    0.0773    0.0000 C   0  0  0  0  0  0  0  0  0  0  0  0
    9.7942    0.5773    0.0000 C   0  0  0  0  0  0  0  0  0  0  0  0
   10.6603    0.0773    0.0000 C   0  0  0  0  0  0  0  0  0  0  0  0
    2.0000    2.0773    0.0000 C   0  0  0  0  0  0  0  0  0  0  0  0
   12.4603    0.0981    0.0000 C   0  0  0  0  0  0  0  0  0  0  0  0
   12.4603   -0.9435    0.0000 C   0  0  0  0  0  0  0  0  0  0  0  0
    5.4641    0.6973    0.0000 H   0  0  0  0  0  0  0  0  0  0  0  0
    6.7287    1.0523    0.0000 H   0  0  0  0  0  0  0  0  0  0  0  0
    5.9316    1.0523    0.0000 H   0  0  0  0  0  0  0  0  0  0  0  0
    4.8535   -0.8150    0.0000 H   0  0  0  0  0  0  0  0  0  0  0  0
    5.2520   -1.5053    0.0000 H   0  0  0  0  0  0  0  0  0  0  0  0
    7.8067   -0.0304    0.0000 H   0  0  0  0  0  0  0  0  0  0  0  0
    7.4082    0.6599    0.0000 H   0  0  0  0  0  0  0  0  0  0  0  0
    5.9316   -1.8976    0.0000 H   0  0  0  0  0  0  0  0  0  0  0  0
    6.7287   -1.8976    0.0000 H   0  0  0  0  0  0  0  0  0  0  0  0
    7.6636   -1.8976    0.0000 H   0  0  0  0  0  0  0  0  0  0  0  0
    8.4607   -1.8976    0.0000 H   0  0  0  0  0  0  0  0  0  0  0  0
    3.7320   -0.5427    0.0000 H   0  0  0  0  0  0  0  0  0  0  0  0
    5.1350    1.8873    0.0000 H   0  0  0  0  0  0  0  0  0  0  0  0
    3.7320    2.6973    0.0000 H   0  0  0  0  0  0  0  0  0  0  0  0
    9.7942   -2.0427    0.0000 H   0  0  0  0  0  0  0  0  0  0  0  0
    8.3913    0.3873    0.0000 H   0  0  0  0  0  0  0  0  0  0  0  0
    1.6900    0.6142    0.0000 H   0  0  0  0  0  0  0  0  0  0  0  0
    1.4631   -0.2327    0.0000 H   0  0  0  0  0  0  0  0  0  0  0  0
    2.3100   -0.4596    0.0000 H   0  0  0  0  0  0  0  0  0  0  0  0
    9.7942    1.1973    0.0000 H   0  0  0  0  0  0  0  0  0  0  0  0
    2.3100    2.6143    0.0000 H   0  0  0  0  0  0  0  0  0  0  0  0
    1.4631    2.3873    0.0000 H   0  0  0  0  0  0  0  0  0  0  0  0
    1.6900    1.5404    0.0000 H   0  0  0  0  0  0  0  0  0  0  0  0
   11.5470   -2.0773    0.0000 H   0  0  0  0  0  0  0  0  0  0  0  0
   13.0711   -0.0080    0.0000 H   0  0  0  0  0  0  0  0  0  0  0  0
   12.6693    0.6818    0.0000 H   0  0  0  0  0  0  0  0  0  0  0  0
  1 23  1  0  0  0  0
  1 25  1  0  0  0  0
  2 26  2  0  0  0  0
  3  8  1  0  0  0  0
  3  9  1  0  0  0  0
  3 11  1  0  0  0  0
  4 20  1  0  0  0  0
  4 26  1  0  0  0  0
  4 50  1  0  0  0  0
  5  6  1  0  0  0  0
  5  7  1  0  0  0  0
  5 10  1  0  0  0  0
  5 27  1  0  0  0  0
  6  8  1  0  0  0  0
  6 28  1  0  0  0  0
  6 29  1  0  0  0  0
  7  9  1  0  0  0  0
  7 30  1  0  0  0  0
  7 31  1  0  0  0  0
  8 32  1  0  0  0  0
  8 33  1  0  0  0  0
  9 34  1  0  0  0  0
  9 35  1  0  0  0  0
 10 12  2  0  0  0  0
 10 14  1  0  0  0  0
 11 13  1  0  0  0  0
 11 36  1  0  0  0  0
 11 37  1  0  0  0  0
 12 15  1  0  0  0  0
 12 38  1  0  0  0  0
 13 18  2  0  0  0  0
 13 19  1  0  0  0  0
 14 16  2  0  0  0  0
 14 39  1  0  0  0  0
 15 17  2  0  0  0  0
 15 21  1  0  0  0  0
 16 17  1  0  0  0  0
 16 40  1  0  0  0  0
 17 24  1  0  0  0  0
 18 20  1  0  0  0  0
 18 41  1  0  0  0  0
 19 22  2  0  0  0  0
 19 42  1  0  0  0  0
 20 23  2  0  0  0  0
 21 43  1  0  0  0  0
 21 44  1  0  0  0  0
 21 45  1  0  0  0  0
 22 23  1  0  0  0  0
 22 46  1  0  0  0  0
 24 47  1  0  0  0  0
 24 48  1  0  0  0  0
 24 49  1  0  0  0  0
 25 26  1  0  0  0  0
 25 51  1  0  0  0  0
 25 52  1  0  0  0  0
M  END
> <PUBCHEM_COMPOUND_CID>
11792163

> <PUBCHEM_COMPOUND_CANONICALIZED>
1

> <PUBCHEM_CACTVS_COMPLEXITY>
489

> <PUBCHEM_CACTVS_HBOND_ACCEPTOR>
3

> <PUBCHEM_CACTVS_HBOND_DONOR>
1

> <PUBCHEM_CACTVS_ROTATABLE_BOND>
3

> <PUBCHEM_CACTVS_SUBSKEYS>
AAADceB7MAAAAAAAAAAAAAAAAAAAAAAAAAA8eIEAAAAAAACxQAAAHgAQAAAADQzhmAYyxoPABACIAiVSUAKCCAAhIgAIiABPbIgOJiLEsZ+HOCjk1BHY6AeQ0MIO4AACQAAQEADAAASAACAgAAAAAAAAAA==

> <PUBCHEM_IUPAC_OPENEYE_NAME>
6-[[4-(3,4-dimethylphenyl)-1-piperidyl]methyl]-4H-1,4-benzoxazin-3-one

> <PUBCHEM_IUPAC_CAS_NAME>
6-[[4-(3,4-dimethylphenyl)-1-piperidinyl]methyl]-4H-1,4-benzoxazin-3-one

> <PUBCHEM_IUPAC_NAME_MARKUP>
6-[[4-(3,4-dimethylphenyl)piperidin-1-yl]methyl]-4<I>H</I>-1,4-benzoxazin-3-one

> <PUBCHEM_IUPAC_NAME>
6-[[4-(3,4-dimethylphenyl)piperidin-1-yl]methyl]-4H-1,4-benzoxazin-3-one

> <PUBCHEM_IUPAC_SYSTEMATIC_NAME>
6-[[4-(3,4-dimethylphenyl)piperidin-1-yl]methyl]-4H-1,4-benzoxazin-3-one

> <PUBCHEM_IUPAC_TRADITIONAL_NAME>
6-[[4-(3,4-dimethylphenyl)piperidino]methyl]-4H-1,4-benzoxazin-3-one

> <PUBCHEM_IUPAC_INCHI>
InChI=1S/C22H26N2O2/c1-15-3-5-19(11-16(15)2)18-7-9-24(10-8-18)13-17-4-6-21-20(12-17)23-22(25)14-26-21/h3-6,11-12,18H,7-10,13-14H2,1-2H3,(H,23,25)

> <PUBCHEM_IUPAC_INCHIKEY>
UROZVASCLWFZOW-UHFFFAOYSA-N

> <PUBCHEM_XLOGP3_AA>
3.7

> <PUBCHEM_EXACT_MASS>
350.199428076

> <PUBCHEM_MOLECULAR_FORMULA>
C22H26N2O2

> <PUBCHEM_MOLECULAR_WEIGHT>
350.5

> <PUBCHEM_OPENEYE_CAN_SMILES>
CC1=C(C=C(C=C1)C2CCN(CC2)CC3=CC4=C(C=C3)OCC(=O)N4)C

> <PUBCHEM_OPENEYE_ISO_SMILES>
CC1=C(C=C(C=C1)C2CCN(CC2)CC3=CC4=C(C=C3)OCC(=O)N4)C

> <PUBCHEM_CACTVS_TPSA>
41.6

> <PUBCHEM_MONOISOTOPIC_WEIGHT>
350.199428076

> <PUBCHEM_TOTAL_CHARGE>
0

> <PUBCHEM_HEAVY_ATOM_COUNT>
26

> <PUBCHEM_ATOM_DEF_STEREO_COUNT>
0

> <PUBCHEM_ATOM_UDEF_STEREO_COUNT>
0

> <PUBCHEM_BOND_DEF_STEREO_COUNT>
0

> <PUBCHEM_BOND_UDEF_STEREO_COUNT>
0

> <PUBCHEM_ISOTOPIC_ATOM_COUNT>
0

> <PUBCHEM_COMPONENT_COUNT>
1

> <PUBCHEM_CACTVS_TAUTO_COUNT>
-1

> <PUBCHEM_COORDINATE_TYPE>
1
5
255

> <PUBCHEM_BONDANNOTATIONS>
10  12  8
10  14  8
12  15  8
13  18  8
13  19  8
14  16  8
15  17  8
16  17  8
18  20  8
19  22  8
20  23  8
22  23  8

$$$$
