44353438
  -OEChem-09292322202D

 63 65  0     1  0  0  0  0  0999 V2000
    7.1962   -2.5137    0.0000 O   0  0  0  0  0  0  0  0  0  0  0  0
    5.4641   -2.5137    0.0000 O   0  0  0  0  0  0  0  0  0  0  0  0
   10.7263    0.5104    0.0000 N   0  0  0  0  0  0  0  0  0  0  0  0
    9.8622    0.0071    0.0000 C   0  0  2  0  0  0  0  0  0  0  0  0
    9.8622   -1.0346    0.0000 C   0  0  0  0  0  0  0  0  0  0  0  0
    8.9561    0.5209    0.0000 C   0  0  0  0  0  0  0  0  0  0  0  0
    8.9561   -1.5484    0.0000 C   0  0  0  0  0  0  0  0  0  0  0  0
    8.0622   -0.0137    0.0000 C   0  0  0  0  0  0  0  0  0  0  0  0
    8.0622   -1.0137    0.0000 C   0  0  0  0  0  0  0  0  0  0  0  0
   11.5942    0.0138    0.0000 C   0  0  0  0  0  0  0  0  0  0  0  0
   10.7224    1.5104    0.0000 C   0  0  0  0  0  0  0  0  0  0  0  0
    7.1962   -1.5137    0.0000 C   0  0  0  0  0  0  0  0  0  0  0  0
    7.1962    0.4863    0.0000 C   0  0  0  0  0  0  0  0  0  0  0  0
    6.3301   -1.0137    0.0000 C   0  0  0  0  0  0  0  0  0  0  0  0
   12.4583    0.5171    0.0000 C   0  0  0  0  0  0  0  0  0  0  0  0
   11.5865    2.0137    0.0000 C   0  0  0  0  0  0  0  0  0  0  0  0
    6.3301   -0.0137    0.0000 C   0  0  0  0  0  0  0  0  0  0  0  0
    5.4641   -1.5137    0.0000 C   0  0  3  0  0  0  0  0  0  0  0  0
    4.5981   -1.0137    0.0000 C   0  0  0  0  0  0  0  0  0  0  0  0
   13.3263    0.0204    0.0000 C   0  0  0  0  0  0  0  0  0  0  0  0
   11.5827    3.0137    0.0000 C   0  0  0  0  0  0  0  0  0  0  0  0
    3.7320   -1.5137    0.0000 C   0  0  0  0  0  0  0  0  0  0  0  0
    8.0622   -3.0137    0.0000 C   0  0  0  0  0  0  0  0  0  0  0  0
    2.8660   -1.0137    0.0000 C   0  0  0  0  0  0  0  0  0  0  0  0
    3.7320   -2.5137    0.0000 C   0  0  0  0  0  0  0  0  0  0  0  0
    2.0000   -1.5137    0.0000 C   0  0  0  0  0  0  0  0  0  0  0  0
    2.8660   -3.0137    0.0000 C   0  0  0  0  0  0  0  0  0  0  0  0
    2.0000   -2.5137    0.0000 C   0  0  0  0  0  0  0  0  0  0  0  0
    9.8586    0.6271    0.0000 H   0  0  0  0  0  0  0  0  0  0  0  0
   10.0712   -1.6182    0.0000 H   0  0  0  0  0  0  0  0  0  0  0  0
   10.4730   -0.9285    0.0000 H   0  0  0  0  0  0  0  0  0  0  0  0
    9.3497    0.9999    0.0000 H   0  0  0  0  0  0  0  0  0  0  0  0
    8.5515    0.9907    0.0000 H   0  0  0  0  0  0  0  0  0  0  0  0
    8.5515   -2.0182    0.0000 H   0  0  0  0  0  0  0  0  0  0  0  0
    9.3497   -2.0274    0.0000 H   0  0  0  0  0  0  0  0  0  0  0  0
   11.1975   -0.4627    0.0000 H   0  0  0  0  0  0  0  0  0  0  0  0
   11.9946   -0.4597    0.0000 H   0  0  0  0  0  0  0  0  0  0  0  0
   10.5081    2.0922    0.0000 H   0  0  0  0  0  0  0  0  0  0  0  0
   10.1123    1.4004    0.0000 H   0  0  0  0  0  0  0  0  0  0  0  0
    7.1962    1.1063    0.0000 H   0  0  0  0  0  0  0  0  0  0  0  0
   12.8550    0.9936    0.0000 H   0  0  0  0  0  0  0  0  0  0  0  0
   12.0580    0.9905    0.0000 H   0  0  0  0  0  0  0  0  0  0  0  0
   11.8008    1.4320    0.0000 H   0  0  0  0  0  0  0  0  0  0  0  0
   12.1967    2.1238    0.0000 H   0  0  0  0  0  0  0  0  0  0  0  0
    5.7932    0.2963    0.0000 H   0  0  0  0  0  0  0  0  0  0  0  0
    6.0010   -1.8237    0.0000 H   0  0  0  0  0  0  0  0  0  0  0  0
    4.9966   -0.5388    0.0000 H   0  0  0  0  0  0  0  0  0  0  0  0
    4.1996   -0.5388    0.0000 H   0  0  0  0  0  0  0  0  0  0  0  0
   13.0183   -0.5177    0.0000 H   0  0  0  0  0  0  0  0  0  0  0  0
   13.8644   -0.2875    0.0000 H   0  0  0  0  0  0  0  0  0  0  0  0
   13.6342    0.5586    0.0000 H   0  0  0  0  0  0  0  0  0  0  0  0
   12.2027    3.0161    0.0000 H   0  0  0  0  0  0  0  0  0  0  0  0
   11.5803    3.6337    0.0000 H   0  0  0  0  0  0  0  0  0  0  0  0
   10.9627    3.0113    0.0000 H   0  0  0  0  0  0  0  0  0  0  0  0
    4.9272   -2.8237    0.0000 H   0  0  0  0  0  0  0  0  0  0  0  0
    7.7522   -3.5507    0.0000 H   0  0  0  0  0  0  0  0  0  0  0  0
    8.5991   -3.3237    0.0000 H   0  0  0  0  0  0  0  0  0  0  0  0
    8.3722   -2.4768    0.0000 H   0  0  0  0  0  0  0  0  0  0  0  0
    2.8660   -0.3937    0.0000 H   0  0  0  0  0  0  0  0  0  0  0  0
    4.2690   -2.8237    0.0000 H   0  0  0  0  0  0  0  0  0  0  0  0
    1.4631   -1.2037    0.0000 H   0  0  0  0  0  0  0  0  0  0  0  0
    2.8660   -3.6337    0.0000 H   0  0  0  0  0  0  0  0  0  0  0  0
    1.4631   -2.8237    0.0000 H   0  0  0  0  0  0  0  0  0  0  0  0
  1 12  1  0  0  0  0
  1 23  1  0  0  0  0
  2 18  1  0  0  0  0
  2 55  1  0  0  0  0
  4  3  1  6  0  0  0
  3 10  1  0  0  0  0
  3 11  1  0  0  0  0
  4  5  1  0  0  0  0
  4  6  1  0  0  0  0
  4 29  1  0  0  0  0
  5  7  1  0  0  0  0
  5 30  1  0  0  0  0
  5 31  1  0  0  0  0
  6  8  1  0  0  0  0
  6 32  1  0  0  0  0
  6 33  1  0  0  0  0
  7  9  1  0  0  0  0
  7 34  1  0  0  0  0
  7 35  1  0  0  0  0
  8  9  2  0  0  0  0
  8 13  1  0  0  0  0
  9 12  1  0  0  0  0
 10 15  1  0  0  0  0
 10 36  1  0  0  0  0
 10 37  1  0  0  0  0
 11 16  1  0  0  0  0
 11 38  1  0  0  0  0
 11 39  1  0  0  0  0
 12 14  2  0  0  0  0
 13 17  2  0  0  0  0
 13 40  1  0  0  0  0
 14 17  1  0  0  0  0
 14 18  1  0  0  0  0
 15 20  1  0  0  0  0
 15 41  1  0  0  0  0
 15 42  1  0  0  0  0
 16 21  1  0  0  0  0
 16 43  1  0  0  0  0
 16 44  1  0  0  0  0
 17 45  1  0  0  0  0
 18 19  1  0  0  0  0
 18 46  1  0  0  0  0
 19 22  1  0  0  0  0
 19 47  1  0  0  0  0
 19 48  1  0  0  0  0
 20 49  1  0  0  0  0
 20 50  1  0  0  0  0
 20 51  1  0  0  0  0
 21 52  1  0  0  0  0
 21 53  1  0  0  0  0
 21 54  1  0  0  0  0
 22 24  2  0  0  0  0
 22 25  1  0  0  0  0
 23 56  1  0  0  0  0
 23 57  1  0  0  0  0
 23 58  1  0  0  0  0
 24 26  1  0  0  0  0
 24 59  1  0  0  0  0
 25 27  2  0  0  0  0
 25 60  1  0  0  0  0
 26 28  2  0  0  0  0
 26 61  1  0  0  0  0
 27 28  1  0  0  0  0
 27 62  1  0  0  0  0
 28 63  1  0  0  0  0
M  END
> <PUBCHEM_COMPOUND_CID>
44353438

> <PUBCHEM_COMPOUND_CANONICALIZED>
1

> <PUBCHEM_CACTVS_COMPLEXITY>
430

> <PUBCHEM_CACTVS_HBOND_ACCEPTOR>
3

> <PUBCHEM_CACTVS_HBOND_DONOR>
1

> <PUBCHEM_CACTVS_ROTATABLE_BOND>
9

> <PUBCHEM_CACTVS_SUBSKEYS>
AAADcfB6MAAAAAAAAAAAAAAAAAAAAAAAAAAwYMAAAAAAAADBQAAAHgAACAAADDzhmAYyBoMABgCAAiBCAAACCAAgIAAIiAAMCIgMNyKEsRuEcCAlwBGIuAeQ0PMOwAADAAAYAACQAAaAADAAAAAAAAAAAA==

> <PUBCHEM_IUPAC_OPENEYE_NAME>
1-[(2R)-2-(dipropylamino)-5-methoxy-tetralin-6-yl]-2-phenyl-ethanol

> <PUBCHEM_IUPAC_CAS_NAME>
1-[(6R)-6-(dipropylamino)-1-methoxy-5,6,7,8-tetrahydronaphthalen-2-yl]-2-phenylethanol

> <PUBCHEM_IUPAC_NAME_MARKUP>
1-[(6<I>R</I>)-6-(dipropylamino)-1-methoxy-5,6,7,8-tetrahydronaphthalen-2-yl]-2-phenylethanol

> <PUBCHEM_IUPAC_NAME>
1-[(6R)-6-(dipropylamino)-1-methoxy-5,6,7,8-tetrahydronaphthalen-2-yl]-2-phenylethanol

> <PUBCHEM_IUPAC_SYSTEMATIC_NAME>
1-[(6R)-6-(dipropylamino)-1-methoxy-5,6,7,8-tetrahydronaphthalen-2-yl]-2-phenyl-ethanol

> <PUBCHEM_IUPAC_TRADITIONAL_NAME>
1-[(2R)-2-(dipropylamino)-5-methoxy-tetralin-6-yl]-2-phenyl-ethanol

> <PUBCHEM_IUPAC_INCHI>
InChI=1S/C25H35NO2/c1-4-15-26(16-5-2)21-12-14-22-20(18-21)11-13-23(25(22)28-3)24(27)17-19-9-7-6-8-10-19/h6-11,13,21,24,27H,4-5,12,14-18H2,1-3H3/t21-,24?/m1/s1

> <PUBCHEM_IUPAC_INCHIKEY>
ISTZGGNVALEGHJ-CILPGNKCSA-N

> <PUBCHEM_XLOGP3_AA>
5.5

> <PUBCHEM_EXACT_MASS>
381.266779359

> <PUBCHEM_MOLECULAR_FORMULA>
C25H35NO2

> <PUBCHEM_MOLECULAR_WEIGHT>
381.5

> <PUBCHEM_OPENEYE_CAN_SMILES>
CCCN(CCC)C1CCC2=C(C1)C=CC(=C2OC)C(CC3=CC=CC=C3)O

> <PUBCHEM_OPENEYE_ISO_SMILES>
CCCN(CCC)[C@@H]1CCC2=C(C1)C=CC(=C2OC)C(CC3=CC=CC=C3)O

> <PUBCHEM_CACTVS_TPSA>
32.7

> <PUBCHEM_MONOISOTOPIC_WEIGHT>
381.266779359

> <PUBCHEM_TOTAL_CHARGE>
0

> <PUBCHEM_HEAVY_ATOM_COUNT>
28

> <PUBCHEM_ATOM_DEF_STEREO_COUNT>
1

> <PUBCHEM_ATOM_UDEF_STEREO_COUNT>
1

> <PUBCHEM_BOND_DEF_STEREO_COUNT>
0

> <PUBCHEM_BOND_UDEF_STEREO_COUNT>
0

> <PUBCHEM_ISOTOPIC_ATOM_COUNT>
0

> <PUBCHEM_COMPONENT_COUNT>
1

> <PUBCHEM_CACTVS_TAUTO_COUNT>
-1

> <PUBCHEM_COORDINATE_TYPE>
1
5
255

> <PUBCHEM_BONDANNOTATIONS>
12  14  8
13  17  8
14  17  8
18  2  3
22  24  8
22  25  8
24  26  8
25  27  8
26  28  8
27  28  8
4  3  6
8  13  8
8  9  8
9  12  8

$$$$
