146025823
  -OEChem-09292322022D

 61 65  0     1  0  0  0  0  0999 V2000
    5.4116    2.6978    0.0000 O   0  0  0  0  0  0  0  0  0  0  0  0
    3.6298    1.6874    0.0000 O   0  0  0  0  0  0  0  0  0  0  0  0
    5.1087   -3.2667    0.0000 O   0  0  0  0  0  0  0  0  0  0  0  0
    3.6796    2.7178    0.0000 O   0  0  0  0  0  0  0  0  0  0  0  0
    2.0000    1.1012    0.0000 O   0  0  0  0  0  0  0  0  0  0  0  0
    8.8842   -0.3337    0.0000 N   0  0  3  0  0  0  0  0  0  0  0  0
    8.0260    0.1632    0.0000 C   0  0  1  0  0  0  0  0  0  0  0  0
    8.0260    1.1632    0.0000 C   0  0  0  0  0  0  0  0  0  0  0  0
    7.1600   -0.3368    0.0000 C   0  0  0  0  0  0  0  0  0  0  0  0
    8.9360    1.6701    0.0000 C   0  0  0  0  0  0  0  0  0  0  0  0
    9.7497    0.1505    0.0000 C   0  0  0  0  0  0  0  0  0  0  0  0
    7.1600    1.6632    0.0000 C   0  0  0  0  0  0  0  0  0  0  0  0
    9.7753    1.1418    0.0000 C   0  0  0  0  0  0  0  0  0  0  0  0
    6.2940    0.1632    0.0000 C   0  0  0  0  0  0  0  0  0  0  0  0
    6.2940    1.1632    0.0000 C   0  0  0  0  0  0  0  0  0  0  0  0
    8.8768   -1.3337    0.0000 C   0  0  0  0  0  0  0  0  0  0  0  0
    8.9440    2.7117    0.0000 C   0  0  0  0  0  0  0  0  0  0  0  0
    7.1439    2.7047    0.0000 C   0  0  0  0  0  0  0  0  0  0  0  0
    5.4000   -0.3714    0.0000 C   0  0  0  0  0  0  0  0  0  0  0  0
    5.4000    1.6979    0.0000 C   0  0  0  0  0  0  0  0  0  0  0  0
    8.0420    3.2325    0.0000 C   0  0  0  0  0  0  0  0  0  0  0  0
    4.4940    0.1424    0.0000 C   0  0  0  0  0  0  0  0  0  0  0  0
    4.4940    1.1840    0.0000 C   0  0  0  0  0  0  0  0  0  0  0  0
    4.1555   -0.7986    0.0000 C   0  0  0  0  0  0  0  0  0  0  0  0
    4.8013   -1.5622    0.0000 C   0  0  0  0  0  0  0  0  0  0  0  0
    3.1714   -0.9760    0.0000 C   0  0  0  0  0  0  0  0  0  0  0  0
    4.5514    3.2078    0.0000 C   0  0  0  0  0  0  0  0  0  0  0  0
    4.4629   -2.5032    0.0000 C   0  0  0  0  0  0  0  0  0  0  0  0
    2.6457    1.8648    0.0000 C   0  0  0  0  0  0  0  0  0  0  0  0
    2.8330   -1.9170    0.0000 C   0  0  0  0  0  0  0  0  0  0  0  0
    3.4787   -2.6806    0.0000 C   0  0  0  0  0  0  0  0  0  0  0  0
    4.5630    4.2077    0.0000 C   0  0  0  0  0  0  0  0  0  0  0  0
    2.3073    2.8058    0.0000 C   0  0  0  0  0  0  0  0  0  0  0  0
    4.7702   -4.2077    0.0000 C   0  0  0  0  0  0  0  0  0  0  0  0
    8.0255   -0.6868    0.0000 H   0  0  0  0  0  0  0  0  0  0  0  0
    6.7614   -0.8117    0.0000 H   0  0  0  0  0  0  0  0  0  0  0  0
    7.5585   -0.8117    0.0000 H   0  0  0  0  0  0  0  0  0  0  0  0
    9.9514   -0.4358    0.0000 H   0  0  0  0  0  0  0  0  0  0  0  0
   10.3625    0.2448    0.0000 H   0  0  0  0  0  0  0  0  0  0  0  0
   10.3824    1.0159    0.0000 H   0  0  0  0  0  0  0  0  0  0  0  0
   10.0071    1.7169    0.0000 H   0  0  0  0  0  0  0  0  0  0  0  0
    8.2568   -1.3291    0.0000 H   0  0  0  0  0  0  0  0  0  0  0  0
    8.8722   -1.9537    0.0000 H   0  0  0  0  0  0  0  0  0  0  0  0
    9.4968   -1.3383    0.0000 H   0  0  0  0  0  0  0  0  0  0  0  0
    9.4822    3.0196    0.0000 H   0  0  0  0  0  0  0  0  0  0  0  0
    6.6034    3.0085    0.0000 H   0  0  0  0  0  0  0  0  0  0  0  0
    5.4072   -0.9914    0.0000 H   0  0  0  0  0  0  0  0  0  0  0  0
    8.0396    3.8525    0.0000 H   0  0  0  0  0  0  0  0  0  0  0  0
    5.4115   -1.4521    0.0000 H   0  0  0  0  0  0  0  0  0  0  0  0
    2.7710   -0.5025    0.0000 H   0  0  0  0  0  0  0  0  0  0  0  0
    2.2228   -2.0270    0.0000 H   0  0  0  0  0  0  0  0  0  0  0  0
    3.2689   -3.2640    0.0000 H   0  0  0  0  0  0  0  0  0  0  0  0
    5.1829    4.2006    0.0000 H   0  0  0  0  0  0  0  0  0  0  0  0
    4.5701    4.8277    0.0000 H   0  0  0  0  0  0  0  0  0  0  0  0
    3.9430    4.2149    0.0000 H   0  0  0  0  0  0  0  0  0  0  0  0
    2.8908    3.0156    0.0000 H   0  0  0  0  0  0  0  0  0  0  0  0
    2.0975    3.3892    0.0000 H   0  0  0  0  0  0  0  0  0  0  0  0
    1.7239    2.5960    0.0000 H   0  0  0  0  0  0  0  0  0  0  0  0
    4.1868   -3.9979    0.0000 H   0  0  0  0  0  0  0  0  0  0  0  0
    4.5604   -4.7912    0.0000 H   0  0  0  0  0  0  0  0  0  0  0  0
    5.3537   -4.4175    0.0000 H   0  0  0  0  0  0  0  0  0  0  0  0
  1 20  1  0  0  0  0
  1 27  1  0  0  0  0
  2 23  1  0  0  0  0
  2 29  1  0  0  0  0
  3 28  1  0  0  0  0
  3 34  1  0  0  0  0
  4 27  2  0  0  0  0
  5 29  2  0  0  0  0
  6  7  1  0  0  0  0
  6 11  1  0  0  0  0
  6 16  1  0  0  0  0
  7  8  1  0  0  0  0
  7  9  1  0  0  0  0
  7 35  1  1  0  0  0
  8 10  2  0  0  0  0
  8 12  1  0  0  0  0
  9 14  1  0  0  0  0
  9 36  1  0  0  0  0
  9 37  1  0  0  0  0
 10 13  1  0  0  0  0
 10 17  1  0  0  0  0
 11 13  1  0  0  0  0
 11 38  1  0  0  0  0
 11 39  1  0  0  0  0
 12 15  1  0  0  0  0
 12 18  2  0  0  0  0
 13 40  1  0  0  0  0
 13 41  1  0  0  0  0
 14 15  1  0  0  0  0
 14 19  2  0  0  0  0
 15 20  2  0  0  0  0
 16 42  1  0  0  0  0
 16 43  1  0  0  0  0
 16 44  1  0  0  0  0
 17 21  2  0  0  0  0
 17 45  1  0  0  0  0
 18 21  1  0  0  0  0
 18 46  1  0  0  0  0
 19 22  1  0  0  0  0
 19 47  1  0  0  0  0
 20 23  1  0  0  0  0
 21 48  1  0  0  0  0
 22 23  2  0  0  0  0
 22 24  1  0  0  0  0
 24 25  2  0  0  0  0
 24 26  1  0  0  0  0
 25 28  1  0  0  0  0
 25 49  1  0  0  0  0
 26 30  2  0  0  0  0
 26 50  1  0  0  0  0
 27 32  1  0  0  0  0
 28 31  2  0  0  0  0
 29 33  1  0  0  0  0
 30 31  1  0  0  0  0
 30 51  1  0  0  0  0
 31 52  1  0  0  0  0
 32 53  1  0  0  0  0
 32 54  1  0  0  0  0
 32 55  1  0  0  0  0
 33 56  1  0  0  0  0
 33 57  1  0  0  0  0
 33 58  1  0  0  0  0
 34 59  1  0  0  0  0
 34 60  1  0  0  0  0
 34 61  1  0  0  0  0
M  END
> <PUBCHEM_COMPOUND_CID>
146025823

> <PUBCHEM_COMPOUND_CANONICALIZED>
1

> <PUBCHEM_CACTVS_COMPLEXITY>
757

> <PUBCHEM_CACTVS_HBOND_ACCEPTOR>
6

> <PUBCHEM_CACTVS_HBOND_DONOR>
0

> <PUBCHEM_CACTVS_ROTATABLE_BOND>
6

> <PUBCHEM_CACTVS_SUBSKEYS>
AAADceB6OAAAAAAAAAAAAAAAAAAAAAAAAAA8YMGCAAAAAADxUAAAHgAAAAAADCzBmAYyDoMABACIAiDSCACCCAAgIAAIiAAOjIgNJiKEsRuGOirkwBGKqAeQ8P8O4AADAAAYQADQAAaAADSAAAAAAAAAAA==

> <PUBCHEM_IUPAC_OPENEYE_NAME>
[(6aR)-11-acetoxy-9-(3-methoxyphenyl)-6-methyl-5,6,6a,7-tetrahydro-4H-dibenzo[de,g]quinolin-10-yl] acetate

> <PUBCHEM_IUPAC_CAS_NAME>
acetic acid [(6aR)-11-acetyloxy-9-(3-methoxyphenyl)-6-methyl-5,6,6a,7-tetrahydro-4H-dibenzo[de,g]quinolin-10-yl] ester

> <PUBCHEM_IUPAC_NAME_MARKUP>
[(6<I>a</I><I>R</I>)-11-acetyloxy-9-(3-methoxyphenyl)-6-methyl-5,6,6<I>a</I>,7-tetrahydro-4<I>H</I>-dibenzo[de,g]quinolin-10-yl] acetate

> <PUBCHEM_IUPAC_NAME>
[(6aR)-11-acetyloxy-9-(3-methoxyphenyl)-6-methyl-5,6,6a,7-tetrahydro-4H-dibenzo[de,g]quinolin-10-yl] acetate

> <PUBCHEM_IUPAC_SYSTEMATIC_NAME>
[(6aR)-11-acetyloxy-9-(3-methoxyphenyl)-6-methyl-5,6,6a,7-tetrahydro-4H-dibenzo[de,g]quinolin-10-yl] ethanoate

> <PUBCHEM_IUPAC_TRADITIONAL_NAME>
acetic acid [(6aR)-11-acetoxy-9-(3-methoxyphenyl)-6-methyl-5,6,6a,7-tetrahydro-4H-dibenzo[de,g]quinolin-10-yl] ester

> <PUBCHEM_IUPAC_INCHI>
InChI=1S/C28H27NO5/c1-16(30)33-27-23(19-8-5-9-21(13-19)32-4)14-20-15-24-25-18(11-12-29(24)3)7-6-10-22(25)26(20)28(27)34-17(2)31/h5-10,13-14,24H,11-12,15H2,1-4H3/t24-/m1/s1

> <PUBCHEM_IUPAC_INCHIKEY>
YLFXLCQTWLPWCT-XMMPIXPASA-N

> <PUBCHEM_XLOGP3_AA>
4.6

> <PUBCHEM_EXACT_MASS>
457.18892296

> <PUBCHEM_MOLECULAR_FORMULA>
C28H27NO5

> <PUBCHEM_MOLECULAR_WEIGHT>
457.5

> <PUBCHEM_OPENEYE_CAN_SMILES>
CC(=O)OC1=C(C=C2CC3C4=C(CCN3C)C=CC=C4C2=C1OC(=O)C)C5=CC(=CC=C5)OC

> <PUBCHEM_OPENEYE_ISO_SMILES>
CC(=O)OC1=C(C=C2C[C@@H]3C4=C(CCN3C)C=CC=C4C2=C1OC(=O)C)C5=CC(=CC=C5)OC

> <PUBCHEM_CACTVS_TPSA>
65.1

> <PUBCHEM_MONOISOTOPIC_WEIGHT>
457.18892296

> <PUBCHEM_TOTAL_CHARGE>
0

> <PUBCHEM_HEAVY_ATOM_COUNT>
34

> <PUBCHEM_ATOM_DEF_STEREO_COUNT>
1

> <PUBCHEM_ATOM_UDEF_STEREO_COUNT>
0

> <PUBCHEM_BOND_DEF_STEREO_COUNT>
0

> <PUBCHEM_BOND_UDEF_STEREO_COUNT>
0

> <PUBCHEM_ISOTOPIC_ATOM_COUNT>
0

> <PUBCHEM_COMPONENT_COUNT>
1

> <PUBCHEM_CACTVS_TAUTO_COUNT>
-1

> <PUBCHEM_COORDINATE_TYPE>
1
5
255

> <PUBCHEM_BONDANNOTATIONS>
10  17  8
12  18  8
14  15  8
14  19  8
15  20  8
17  21  8
18  21  8
19  22  8
20  23  8
22  23  8
24  25  8
24  26  8
25  28  8
26  30  8
28  31  8
30  31  8
7  35  5
8  10  8
8  12  8

$$$$
