168292953
  -OEChem-09292322022D

 71 70  0     1  0  0  0  0  0999 V2000
    7.1365   13.6145    0.0000 S   0  0  0  0  0  0  0  0  0  0  0  0
    0.0000    6.8018    0.0000 F   0  0  0  0  0  0  0  0  0  0  0  0
    0.3660    8.1678    0.0000 F   0  0  0  0  0  0  0  0  0  0  0  0
    1.3660    6.4358    0.0000 F   0  0  0  0  0  0  0  0  0  0  0  0
   13.2421    6.8018    0.0000 F   0  0  0  0  0  0  0  0  0  0  0  0
   13.6081    8.1678    0.0000 F   0  0  0  0  0  0  0  0  0  0  0  0
   14.6081    6.4358    0.0000 F   0  0  0  0  0  0  0  0  0  0  0  0
    8.1070    8.1200    0.0000 O   0  0  0  0  0  0  0  0  0  0  0  0
    2.5981    7.3018    0.0000 O   0  0  0  0  0  0  0  0  0  0  0  0
   15.8401    7.3018    0.0000 O   0  0  0  0  0  0  0  0  0  0  0  0
    1.7320    8.8018    0.0000 O   0  0  0  0  0  0  0  0  0  0  0  0
   14.9741    8.8018    0.0000 O   0  0  0  0  0  0  0  0  0  0  0  0
    8.9731    6.6200    0.0000 N   0  0  0  0  0  0  0  0  0  0  0  0
    9.8391    8.1200    0.0000 N   0  0  0  0  0  0  0  0  0  0  0  0
    8.9731    9.6200    0.0000 N   0  0  0  0  0  0  0  0  0  0  0  0
   10.7051    9.6200    0.0000 N   0  0  0  0  0  0  0  0  0  0  0  0
    5.6584   12.9564    0.0000 N   0  0  0  0  0  0  0  0  0  0  0  0
    5.7516   14.7360    0.0000 N   0  0  0  0  0  0  0  0  0  0  0  0
    8.1070    5.1200    0.0000 C   0  0  3  0  0  0  0  0  0  0  0  0
    7.2410    4.6200    0.0000 C   0  0  0  0  0  0  0  0  0  0  0  0
    8.1070    6.1200    0.0000 C   0  0  0  0  0  0  0  0  0  0  0  0
    8.9731    4.6200    0.0000 C   0  0  0  0  0  0  0  0  0  0  0  0
    7.2410    3.6200    0.0000 C   0  0  0  0  0  0  0  0  0  0  0  0
    6.3750    3.1200    0.0000 C   0  0  0  0  0  0  0  0  0  0  0  0
    8.1070    3.1200    0.0000 C   0  0  0  0  0  0  0  0  0  0  0  0
    6.3750    2.1200    0.0000 C   0  0  0  0  0  0  0  0  0  0  0  0
    8.1070    2.1200    0.0000 C   0  0  0  0  0  0  0  0  0  0  0  0
    7.2410    1.6200    0.0000 C   0  0  0  0  0  0  0  0  0  0  0  0
    8.9731    7.6200    0.0000 C   0  0  0  0  0  0  0  0  0  0  0  0
    7.2410    0.6200    0.0000 C   0  0  0  0  0  0  0  0  0  0  0  0
    8.1070   11.1200    0.0000 C   0  0  0  0  0  0  0  0  0  0  0  0
    8.1070   12.1200    0.0000 C   0  0  0  0  0  0  0  0  0  0  0  0
    8.9731   10.6200    0.0000 C   0  0  0  0  0  0  0  0  0  0  0  0
    9.8391    9.1200    0.0000 C   0  0  0  0  0  0  0  0  0  0  0  0
    7.2410   12.6200    0.0000 C   0  0  0  0  0  0  0  0  0  0  0  0
    6.3275   12.2133    0.0000 C   0  0  0  0  0  0  0  0  0  0  0  0
    6.1584   13.8224    0.0000 C   0  0  0  0  0  0  0  0  0  0  0  0
    0.8660    7.3018    0.0000 C   0  0  0  0  0  0  0  0  0  0  0  0
   14.1081    7.3018    0.0000 C   0  0  0  0  0  0  0  0  0  0  0  0
    1.7320    7.8018    0.0000 C   0  0  0  0  0  0  0  0  0  0  0  0
   14.9741    7.8018    0.0000 C   0  0  0  0  0  0  0  0  0  0  0  0
    8.1070    4.5000    0.0000 H   0  0  0  0  0  0  0  0  0  0  0  0
    7.0290    5.2026    0.0000 H   0  0  0  0  0  0  0  0  0  0  0  0
    6.6304    4.5123    0.0000 H   0  0  0  0  0  0  0  0  0  0  0  0
    7.8950    6.7026    0.0000 H   0  0  0  0  0  0  0  0  0  0  0  0
    7.4965    6.0123    0.0000 H   0  0  0  0  0  0  0  0  0  0  0  0
    8.6631    4.0831    0.0000 H   0  0  0  0  0  0  0  0  0  0  0  0
    9.5100    4.3100    0.0000 H   0  0  0  0  0  0  0  0  0  0  0  0
    9.2831    5.1569    0.0000 H   0  0  0  0  0  0  0  0  0  0  0  0
    9.5100    6.3100    0.0000 H   0  0  0  0  0  0  0  0  0  0  0  0
    5.8381    3.4300    0.0000 H   0  0  0  0  0  0  0  0  0  0  0  0
    8.6440    3.4300    0.0000 H   0  0  0  0  0  0  0  0  0  0  0  0
    5.8381    1.8100    0.0000 H   0  0  0  0  0  0  0  0  0  0  0  0
    8.6440    1.8100    0.0000 H   0  0  0  0  0  0  0  0  0  0  0  0
    6.6210    0.6200    0.0000 H   0  0  0  0  0  0  0  0  0  0  0  0
    7.2410    0.0000    0.0000 H   0  0  0  0  0  0  0  0  0  0  0  0
    7.8610    0.6200    0.0000 H   0  0  0  0  0  0  0  0  0  0  0  0
    7.4965   11.2277    0.0000 H   0  0  0  0  0  0  0  0  0  0  0  0
    7.8950   10.5374    0.0000 H   0  0  0  0  0  0  0  0  0  0  0  0
   10.3760    7.8100    0.0000 H   0  0  0  0  0  0  0  0  0  0  0  0
    8.7176   12.0123    0.0000 H   0  0  0  0  0  0  0  0  0  0  0  0
    8.3191   12.7026    0.0000 H   0  0  0  0  0  0  0  0  0  0  0  0
    9.5837   10.5123    0.0000 H   0  0  0  0  0  0  0  0  0  0  0  0
    9.1851   11.2026    0.0000 H   0  0  0  0  0  0  0  0  0  0  0  0
    6.1986   11.6068    0.0000 H   0  0  0  0  0  0  0  0  0  0  0  0
   10.7051   10.2400    0.0000 H   0  0  0  0  0  0  0  0  0  0  0  0
   11.2421    9.3100    0.0000 H   0  0  0  0  0  0  0  0  0  0  0  0
    5.1350   14.8008    0.0000 H   0  0  0  0  0  0  0  0  0  0  0  0
    6.1160   15.2376    0.0000 H   0  0  0  0  0  0  0  0  0  0  0  0
    3.1350    7.6118    0.0000 H   0  0  0  0  0  0  0  0  0  0  0  0
   16.3771    7.6118    0.0000 H   0  0  0  0  0  0  0  0  0  0  0  0
  1 35  1  0  0  0  0
  1 37  1  0  0  0  0
  2 38  1  0  0  0  0
  3 38  1  0  0  0  0
  4 38  1  0  0  0  0
  5 39  1  0  0  0  0
  6 39  1  0  0  0  0
  7 39  1  0  0  0  0
  8 29  2  0  0  0  0
  9 40  1  0  0  0  0
  9 70  1  0  0  0  0
 10 41  1  0  0  0  0
 10 71  1  0  0  0  0
 11 40  2  0  0  0  0
 12 41  2  0  0  0  0
 13 21  1  0  0  0  0
 13 29  1  0  0  0  0
 13 50  1  0  0  0  0
 14 29  1  0  0  0  0
 14 34  1  0  0  0  0
 14 60  1  0  0  0  0
 15 33  1  0  0  0  0
 15 34  2  0  0  0  0
 16 34  1  0  0  0  0
 16 66  1  0  0  0  0
 16 67  1  0  0  0  0
 17 36  1  0  0  0  0
 17 37  2  0  0  0  0
 18 37  1  0  0  0  0
 18 68  1  0  0  0  0
 18 69  1  0  0  0  0
 19 20  1  0  0  0  0
 19 21  1  0  0  0  0
 19 22  1  0  0  0  0
 19 42  1  0  0  0  0
 20 23  1  0  0  0  0
 20 43  1  0  0  0  0
 20 44  1  0  0  0  0
 21 45  1  0  0  0  0
 21 46  1  0  0  0  0
 22 47  1  0  0  0  0
 22 48  1  0  0  0  0
 22 49  1  0  0  0  0
 23 24  2  0  0  0  0
 23 25  1  0  0  0  0
 24 26  1  0  0  0  0
 24 51  1  0  0  0  0
 25 27  2  0  0  0  0
 25 52  1  0  0  0  0
 26 28  2  0  0  0  0
 26 53  1  0  0  0  0
 27 28  1  0  0  0  0
 27 54  1  0  0  0  0
 28 30  1  0  0  0  0
 30 55  1  0  0  0  0
 30 56  1  0  0  0  0
 30 57  1  0  0  0  0
 31 32  1  0  0  0  0
 31 33  1  0  0  0  0
 31 58  1  0  0  0  0
 31 59  1  0  0  0  0
 32 35  1  0  0  0  0
 32 61  1  0  0  0  0
 32 62  1  0  0  0  0
 33 63  1  0  0  0  0
 33 64  1  0  0  0  0
 35 36  2  0  0  0  0
 36 65  1  0  0  0  0
 38 40  1  0  0  0  0
 39 41  1  0  0  0  0
M  END
> <PUBCHEM_COMPOUND_CID>
168292953

> <PUBCHEM_COMPOUND_CANONICALIZED>
1

> <PUBCHEM_CACTVS_COMPLEXITY>
564

> <PUBCHEM_CACTVS_HBOND_ACCEPTOR>
15

> <PUBCHEM_CACTVS_HBOND_DONOR>
6

> <PUBCHEM_CACTVS_ROTATABLE_BOND>
9

> <PUBCHEM_CACTVS_SUBSKEYS>
AAADceB7ucBAAAAAAAAAAAAAAAAAAWAAAAAwAAAAAAAAAAABwAAAHwQQCAAADQDB2hQ/mZLIEgisAjD3fAAC8KlxCDlJ2IwoQIiIICLgkRCEIAAolwJIyCcQgMAOQAAAAAAAAACAAAAAAAAAAAAAAAAAAA==

> <PUBCHEM_IUPAC_OPENEYE_NAME>
1-[N'-[3-(2-aminothiazol-5-yl)propyl]carbamimidoyl]-3-[2-methyl-3-(p-tolyl)propyl]urea;2,2,2-trifluoroacetic acid

> <PUBCHEM_IUPAC_CAS_NAME>
1-[amino-[3-(2-amino-5-thiazolyl)propylimino]methyl]-3-[2-methyl-3-(4-methylphenyl)propyl]urea;2,2,2-trifluoroacetic acid

> <PUBCHEM_IUPAC_NAME_MARKUP>
1-[<I>N</I>&apos;-[3-(2-amino-1,3-thiazol-5-yl)propyl]carbamimidoyl]-3-[2-methyl-3-(4-methylphenyl)propyl]urea;2,2,2-trifluoroacetic acid

> <PUBCHEM_IUPAC_NAME>
1-[N'-[3-(2-amino-1,3-thiazol-5-yl)propyl]carbamimidoyl]-3-[2-methyl-3-(4-methylphenyl)propyl]urea;2,2,2-trifluoroacetic acid

> <PUBCHEM_IUPAC_SYSTEMATIC_NAME>
1-[N'-[3-(2-azanyl-1,3-thiazol-5-yl)propyl]carbamimidoyl]-3-[2-methyl-3-(4-methylphenyl)propyl]urea;2,2,2-tris(fluoranyl)ethanoic acid

> <PUBCHEM_IUPAC_TRADITIONAL_NAME>
1-[N'-[3-(2-aminothiazol-5-yl)propyl]amidino]-3-[2-methyl-3-(p-tolyl)propyl]urea;2,2,2-trifluoroacetic acid

> <PUBCHEM_IUPAC_INCHI>
InChI=1S/C19H28N6OS.2C2HF3O2/c1-13-5-7-15(8-6-13)10-14(2)11-24-19(26)25-17(20)22-9-3-4-16-12-23-18(21)27-16;2*3-2(4,5)1(6)7/h5-8,12,14H,3-4,9-11H2,1-2H3,(H2,21,23)(H4,20,22,24,25,26);2*(H,6,7)

> <PUBCHEM_IUPAC_INCHIKEY>
ZZDDLWVPLCUTER-UHFFFAOYSA-N

> <PUBCHEM_EXACT_MASS>
616.19025822

> <PUBCHEM_MOLECULAR_FORMULA>
C23H30F6N6O5S

> <PUBCHEM_MOLECULAR_WEIGHT>
616.6

> <PUBCHEM_OPENEYE_CAN_SMILES>
CC1=CC=C(C=C1)CC(C)CNC(=O)NC(=NCCCC2=CN=C(S2)N)N.C(=O)(C(F)(F)F)O.C(=O)(C(F)(F)F)O

> <PUBCHEM_OPENEYE_ISO_SMILES>
CC1=CC=C(C=C1)CC(C)CNC(=O)NC(=NCCCC2=CN=C(S2)N)N.C(=O)(C(F)(F)F)O.C(=O)(C(F)(F)F)O

> <PUBCHEM_CACTVS_TPSA>
221

> <PUBCHEM_MONOISOTOPIC_WEIGHT>
616.19025822

> <PUBCHEM_TOTAL_CHARGE>
0

> <PUBCHEM_HEAVY_ATOM_COUNT>
41

> <PUBCHEM_ATOM_DEF_STEREO_COUNT>
0

> <PUBCHEM_ATOM_UDEF_STEREO_COUNT>
1

> <PUBCHEM_BOND_DEF_STEREO_COUNT>
0

> <PUBCHEM_BOND_UDEF_STEREO_COUNT>
0

> <PUBCHEM_ISOTOPIC_ATOM_COUNT>
0

> <PUBCHEM_COMPONENT_COUNT>
3

> <PUBCHEM_CACTVS_TAUTO_COUNT>
-1

> <PUBCHEM_COORDINATE_TYPE>
1
5
255

> <PUBCHEM_BONDANNOTATIONS>
1  35  8
1  37  8
17  36  8
17  37  8
19  22  3
23  24  8
23  25  8
24  26  8
25  27  8
26  28  8
27  28  8
35  36  8

$$$$
