10450758
  -OEChem-09292322112D

 49 52  0     0  0  0  0  0  0999 V2000
    2.9059    5.5346    0.0000 Cl  0  0  0  0  0  0  0  0  0  0  0  0
    2.0520    0.9654    0.0000 O   0  0  0  0  0  0  0  0  0  0  0  0
    3.7841   -1.0346    0.0000 N   0  0  0  0  0  0  0  0  0  0  0  0
    3.7841    0.9654    0.0000 C   0  0  0  0  0  0  0  0  0  0  0  0
    4.6501    0.4654    0.0000 C   0  0  0  0  0  0  0  0  0  0  0  0
    2.9180    0.4654    0.0000 C   0  0  0  0  0  0  0  0  0  0  0  0
    4.6501    1.4654    0.0000 C   0  0  0  0  0  0  0  0  0  0  0  0
    4.6501   -0.5346    0.0000 C   0  0  0  0  0  0  0  0  0  0  0  0
    2.9180   -0.5346    0.0000 C   0  0  0  0  0  0  0  0  0  0  0  0
    2.9180    1.4654    0.0000 C   0  0  0  0  0  0  0  0  0  0  0  0
    4.6501    2.4654    0.0000 C   0  0  0  0  0  0  0  0  0  0  0  0
    2.9180    2.4654    0.0000 C   0  0  0  0  0  0  0  0  0  0  0  0
    3.7841    2.9654    0.0000 C   0  0  0  0  0  0  0  0  0  0  0  0
    3.7841   -2.0346    0.0000 C   0  0  0  0  0  0  0  0  0  0  0  0
    4.6501   -2.5346    0.0000 C   0  0  0  0  0  0  0  0  0  0  0  0
    2.0080    2.9722    0.0000 C   0  0  0  0  0  0  0  0  0  0  0  0
    3.8001    4.0069    0.0000 C   0  0  0  0  0  0  0  0  0  0  0  0
    2.0000    4.0138    0.0000 C   0  0  0  0  0  0  0  0  0  0  0  0
    2.9021    4.5346    0.0000 C   0  0  0  0  0  0  0  0  0  0  0  0
    4.6501   -3.5346    0.0000 C   0  0  0  0  0  0  0  0  0  0  0  0
    3.7841   -4.0346    0.0000 C   0  0  0  0  0  0  0  0  0  0  0  0
    5.5161   -4.0346    0.0000 C   0  0  0  0  0  0  0  0  0  0  0  0
    3.7841   -5.0346    0.0000 C   0  0  0  0  0  0  0  0  0  0  0  0
    5.5161   -5.0346    0.0000 C   0  0  0  0  0  0  0  0  0  0  0  0
    4.6501   -5.5346    0.0000 C   0  0  0  0  0  0  0  0  0  0  0  0
    5.2607    0.3577    0.0000 H   0  0  0  0  0  0  0  0  0  0  0  0
    4.8621    1.0480    0.0000 H   0  0  0  0  0  0  0  0  0  0  0  0
    2.7060    1.0480    0.0000 H   0  0  0  0  0  0  0  0  0  0  0  0
    2.3074    0.3577    0.0000 H   0  0  0  0  0  0  0  0  0  0  0  0
    4.8621    0.8828    0.0000 H   0  0  0  0  0  0  0  0  0  0  0  0
    5.2607    1.5730    0.0000 H   0  0  0  0  0  0  0  0  0  0  0  0
    4.8621   -1.1172    0.0000 H   0  0  0  0  0  0  0  0  0  0  0  0
    5.2607   -0.4270    0.0000 H   0  0  0  0  0  0  0  0  0  0  0  0
    2.3074   -0.4270    0.0000 H   0  0  0  0  0  0  0  0  0  0  0  0
    2.7060   -1.1172    0.0000 H   0  0  0  0  0  0  0  0  0  0  0  0
    5.2607    2.3577    0.0000 H   0  0  0  0  0  0  0  0  0  0  0  0
    4.8621    3.0480    0.0000 H   0  0  0  0  0  0  0  0  0  0  0  0
    3.1735   -1.9270    0.0000 H   0  0  0  0  0  0  0  0  0  0  0  0
    3.5720   -2.6172    0.0000 H   0  0  0  0  0  0  0  0  0  0  0  0
    5.2607   -2.6423    0.0000 H   0  0  0  0  0  0  0  0  0  0  0  0
    4.8621   -1.9520    0.0000 H   0  0  0  0  0  0  0  0  0  0  0  0
    1.4747    2.6560    0.0000 H   0  0  0  0  0  0  0  0  0  0  0  0
    4.3406    4.3106    0.0000 H   0  0  0  0  0  0  0  0  0  0  0  0
    1.4619    4.3218    0.0000 H   0  0  0  0  0  0  0  0  0  0  0  0
    3.2471   -3.7246    0.0000 H   0  0  0  0  0  0  0  0  0  0  0  0
    6.0530   -3.7246    0.0000 H   0  0  0  0  0  0  0  0  0  0  0  0
    3.2471   -5.3446    0.0000 H   0  0  0  0  0  0  0  0  0  0  0  0
    6.0530   -5.3446    0.0000 H   0  0  0  0  0  0  0  0  0  0  0  0
    4.6501   -6.1546    0.0000 H   0  0  0  0  0  0  0  0  0  0  0  0
  1 19  1  0  0  0  0
  2 10  2  0  0  0  0
  3  8  1  0  0  0  0
  3  9  1  0  0  0  0
  3 14  1  0  0  0  0
  4  5  1  0  0  0  0
  4  6  1  0  0  0  0
  4  7  1  0  0  0  0
  4 10  1  0  0  0  0
  5  8  1  0  0  0  0
  5 26  1  0  0  0  0
  5 27  1  0  0  0  0
  6  9  1  0  0  0  0
  6 28  1  0  0  0  0
  6 29  1  0  0  0  0
  7 11  1  0  0  0  0
  7 30  1  0  0  0  0
  7 31  1  0  0  0  0
  8 32  1  0  0  0  0
  8 33  1  0  0  0  0
  9 34  1  0  0  0  0
  9 35  1  0  0  0  0
 10 12  1  0  0  0  0
 11 13  1  0  0  0  0
 11 36  1  0  0  0  0
 11 37  1  0  0  0  0
 12 13  2  0  0  0  0
 12 16  1  0  0  0  0
 13 17  1  0  0  0  0
 14 15  1  0  0  0  0
 14 38  1  0  0  0  0
 14 39  1  0  0  0  0
 15 20  1  0  0  0  0
 15 40  1  0  0  0  0
 15 41  1  0  0  0  0
 16 18  2  0  0  0  0
 16 42  1  0  0  0  0
 17 19  2  0  0  0  0
 17 43  1  0  0  0  0
 18 19  1  0  0  0  0
 18 44  1  0  0  0  0
 20 21  2  0  0  0  0
 20 22  1  0  0  0  0
 21 23  1  0  0  0  0
 21 45  1  0  0  0  0
 22 24  2  0  0  0  0
 22 46  1  0  0  0  0
 23 25  2  0  0  0  0
 23 47  1  0  0  0  0
 24 25  1  0  0  0  0
 24 48  1  0  0  0  0
 25 49  1  0  0  0  0
M  END
> <PUBCHEM_COMPOUND_CID>
10450758

> <PUBCHEM_COMPOUND_CANONICALIZED>
1

> <PUBCHEM_CACTVS_COMPLEXITY>
465

> <PUBCHEM_CACTVS_HBOND_ACCEPTOR>
2

> <PUBCHEM_CACTVS_HBOND_DONOR>
0

> <PUBCHEM_CACTVS_ROTATABLE_BOND>
3

> <PUBCHEM_CACTVS_SUBSKEYS>
AAADceB6IAAEAAAAAAAAAAAAAAAAAAAAAAA8YMEAAAAAAADBQAAAHgIAAAAADgbBmCQwAIMAAACIAqBSAAACAAAkBQAIiAEIAsgIIDKBlxGEIQAggACIiYcciMCPhAAAIAAQAACIAARAACAAAAAAAAAAAA==

> <PUBCHEM_IUPAC_OPENEYE_NAME>
6'-chloro-1-(2-phenylethyl)spiro[piperidine-4,2'-tetralin]-1'-one

> <PUBCHEM_IUPAC_CAS_NAME>
6-chloro-1'-(2-phenylethyl)-1-spiro[3,4-dihydronaphthalene-2,4'-piperidine]one

> <PUBCHEM_IUPAC_NAME_MARKUP>
6-chloro-1&apos;-(2-phenylethyl)spiro[3,4-dihydronaphthalene-2,4&apos;-piperidine]-1-one

> <PUBCHEM_IUPAC_NAME>
6-chloro-1'-(2-phenylethyl)spiro[3,4-dihydronaphthalene-2,4'-piperidine]-1-one

> <PUBCHEM_IUPAC_SYSTEMATIC_NAME>
6-chloranyl-1'-(2-phenylethyl)spiro[3,4-dihydronaphthalene-2,4'-piperidine]-1-one

> <PUBCHEM_IUPAC_TRADITIONAL_NAME>
6'-chloro-1-phenethyl-spiro[piperidine-4,2'-tetralin]-1'-one

> <PUBCHEM_IUPAC_INCHI>
InChI=1S/C22H24ClNO/c23-19-6-7-20-18(16-19)8-10-22(21(20)25)11-14-24(15-12-22)13-9-17-4-2-1-3-5-17/h1-7,16H,8-15H2

> <PUBCHEM_IUPAC_INCHIKEY>
IWOPGTFNUXEULQ-UHFFFAOYSA-N

> <PUBCHEM_XLOGP3_AA>
5

> <PUBCHEM_EXACT_MASS>
353.1546421

> <PUBCHEM_MOLECULAR_FORMULA>
C22H24ClNO

> <PUBCHEM_MOLECULAR_WEIGHT>
353.9

> <PUBCHEM_OPENEYE_CAN_SMILES>
C1CC2(CCN(CC2)CCC3=CC=CC=C3)C(=O)C4=C1C=C(C=C4)Cl

> <PUBCHEM_OPENEYE_ISO_SMILES>
C1CC2(CCN(CC2)CCC3=CC=CC=C3)C(=O)C4=C1C=C(C=C4)Cl

> <PUBCHEM_CACTVS_TPSA>
20.3

> <PUBCHEM_MONOISOTOPIC_WEIGHT>
353.1546421

> <PUBCHEM_TOTAL_CHARGE>
0

> <PUBCHEM_HEAVY_ATOM_COUNT>
25

> <PUBCHEM_ATOM_DEF_STEREO_COUNT>
0

> <PUBCHEM_ATOM_UDEF_STEREO_COUNT>
0

> <PUBCHEM_BOND_DEF_STEREO_COUNT>
0

> <PUBCHEM_BOND_UDEF_STEREO_COUNT>
0

> <PUBCHEM_ISOTOPIC_ATOM_COUNT>
0

> <PUBCHEM_COMPONENT_COUNT>
1

> <PUBCHEM_CACTVS_TAUTO_COUNT>
-1

> <PUBCHEM_COORDINATE_TYPE>
1
5
255

> <PUBCHEM_BONDANNOTATIONS>
12  13  8
12  16  8
13  17  8
16  18  8
17  19  8
18  19  8
20  21  8
20  22  8
21  23  8
22  24  8
23  25  8
24  25  8

$$$$
