138671844
  -OEChem-09292322452D

 70 75  0     1  0  0  0  0  0999 V2000
    4.9887    4.6527    0.0000 S   0  0  0  0  0  0  0  0  0  0  0  0
    7.7960   -3.8191    0.0000 O   0  0  0  0  0  0  0  0  0  0  0  0
    2.5000    7.3538    0.0000 O   0  0  0  0  0  0  0  0  0  0  0  0
    5.1979    1.6809    0.0000 N   0  0  3  0  0  0  0  0  0  0  0  0
    6.0640   -3.8191    0.0000 N   0  0  0  0  0  0  0  0  0  0  0  0
    3.5949    3.8479    0.0000 N   0  0  0  0  0  0  0  0  0  0  0  0
    8.6900   -7.3538    0.0000 N   0  0  0  0  0  0  0  0  0  0  0  0
    6.0640   -0.8191    0.0000 C   0  0  0  0  0  0  0  0  0  0  0  0
    5.1979   -1.3191    0.0000 C   0  0  0  0  0  0  0  0  0  0  0  0
    6.9300   -1.3191    0.0000 C   0  0  0  0  0  0  0  0  0  0  0  0
    6.0640   -2.8191    0.0000 C   0  0  0  0  0  0  0  0  0  0  0  0
    5.1979   -2.3191    0.0000 C   0  0  0  0  0  0  0  0  0  0  0  0
    6.9300   -2.3191    0.0000 C   0  0  0  0  0  0  0  0  0  0  0  0
    6.0640    0.1809    0.0000 C   0  0  0  0  0  0  0  0  0  0  0  0
    5.1979    0.6809    0.0000 C   0  0  0  0  0  0  0  0  0  0  0  0
    6.0640    2.1809    0.0000 C   0  0  0  0  0  0  0  0  0  0  0  0
    4.3319    2.1809    0.0000 C   0  0  0  0  0  0  0  0  0  0  0  0
    6.0640    3.1809    0.0000 C   0  0  0  0  0  0  0  0  0  0  0  0
    4.3319    3.1809    0.0000 C   0  0  0  0  0  0  0  0  0  0  0  0
    5.1979    3.6809    0.0000 C   0  0  0  0  0  0  0  0  0  0  0  0
    6.9300   -4.3191    0.0000 C   0  0  0  0  0  0  0  0  0  0  0  0
    4.0000    4.7557    0.0000 C   0  0  0  0  0  0  0  0  0  0  0  0
    6.9300   -5.3191    0.0000 C   0  0  0  0  0  0  0  0  0  0  0  0
    3.5000    5.6217    0.0000 C   0  0  0  0  0  0  0  0  0  0  0  0
    7.7960   -5.8191    0.0000 C   0  0  0  0  0  0  0  0  0  0  0  0
    2.5000    5.6217    0.0000 C   0  0  0  0  0  0  0  0  0  0  0  0
    6.0640   -5.8191    0.0000 C   0  0  0  0  0  0  0  0  0  0  0  0
    4.0000    6.4878    0.0000 C   0  0  0  0  0  0  0  0  0  0  0  0
    2.0000    6.4878    0.0000 C   0  0  0  0  0  0  0  0  0  0  0  0
    7.7960   -6.8191    0.0000 C   0  0  0  0  0  0  0  0  0  0  0  0
    3.5000    7.3538    0.0000 C   0  0  0  0  0  0  0  0  0  0  0  0
    6.0640   -6.8191    0.0000 C   0  0  0  0  0  0  0  0  0  0  0  0
    8.6900   -5.2845    0.0000 C   0  0  0  0  0  0  0  0  0  0  0  0
    6.9300   -7.3191    0.0000 C   0  0  0  0  0  0  0  0  0  0  0  0
    9.5960   -5.7983    0.0000 C   0  0  0  0  0  0  0  0  0  0  0  0
    9.5960   -6.8400    0.0000 C   0  0  0  0  0  0  0  0  0  0  0  0
    6.6009   -0.5091    0.0000 H   0  0  0  0  0  0  0  0  0  0  0  0
    4.9859   -0.7365    0.0000 H   0  0  0  0  0  0  0  0  0  0  0  0
    4.5874   -1.4268    0.0000 H   0  0  0  0  0  0  0  0  0  0  0  0
    7.5406   -1.4268    0.0000 H   0  0  0  0  0  0  0  0  0  0  0  0
    7.1420   -0.7365    0.0000 H   0  0  0  0  0  0  0  0  0  0  0  0
    6.6009   -3.1291    0.0000 H   0  0  0  0  0  0  0  0  0  0  0  0
    4.5874   -2.2115    0.0000 H   0  0  0  0  0  0  0  0  0  0  0  0
    4.9859   -2.9018    0.0000 H   0  0  0  0  0  0  0  0  0  0  0  0
    7.1420   -2.9018    0.0000 H   0  0  0  0  0  0  0  0  0  0  0  0
    7.5406   -2.2115    0.0000 H   0  0  0  0  0  0  0  0  0  0  0  0
    6.6745    0.0732    0.0000 H   0  0  0  0  0  0  0  0  0  0  0  0
    6.2760    0.7635    0.0000 H   0  0  0  0  0  0  0  0  0  0  0  0
    4.5874    0.7885    0.0000 H   0  0  0  0  0  0  0  0  0  0  0  0
    4.9859    0.0982    0.0000 H   0  0  0  0  0  0  0  0  0  0  0  0
    5.5270   -4.1291    0.0000 H   0  0  0  0  0  0  0  0  0  0  0  0
    6.2760    1.5982    0.0000 H   0  0  0  0  0  0  0  0  0  0  0  0
    6.6745    2.2885    0.0000 H   0  0  0  0  0  0  0  0  0  0  0  0
    3.7213    2.2885    0.0000 H   0  0  0  0  0  0  0  0  0  0  0  0
    4.1198    1.5982    0.0000 H   0  0  0  0  0  0  0  0  0  0  0  0
    6.6745    3.0732    0.0000 H   0  0  0  0  0  0  0  0  0  0  0  0
    6.2760    3.7635    0.0000 H   0  0  0  0  0  0  0  0  0  0  0  0
    1.9174    5.4097    0.0000 H   0  0  0  0  0  0  0  0  0  0  0  0
    2.6077    5.0112    0.0000 H   0  0  0  0  0  0  0  0  0  0  0  0
    5.5270   -5.5091    0.0000 H   0  0  0  0  0  0  0  0  0  0  0  0
    4.6200    6.4878    0.0000 H   0  0  0  0  0  0  0  0  0  0  0  0
    1.5250    6.8863    0.0000 H   0  0  0  0  0  0  0  0  0  0  0  0
    1.5250    6.0892    0.0000 H   0  0  0  0  0  0  0  0  0  0  0  0
    4.0826    7.5659    0.0000 H   0  0  0  0  0  0  0  0  0  0  0  0
    3.3923    7.9644    0.0000 H   0  0  0  0  0  0  0  0  0  0  0  0
    5.5270   -7.1291    0.0000 H   0  0  0  0  0  0  0  0  0  0  0  0
    8.6828   -4.6645    0.0000 H   0  0  0  0  0  0  0  0  0  0  0  0
    6.9300   -7.9391    0.0000 H   0  0  0  0  0  0  0  0  0  0  0  0
   10.1317   -5.4863    0.0000 H   0  0  0  0  0  0  0  0  0  0  0  0
   10.1317   -7.1520    0.0000 H   0  0  0  0  0  0  0  0  0  0  0  0
  1 20  1  0  0  0  0
  1 22  1  0  0  0  0
  2 21  2  0  0  0  0
  3 29  1  0  0  0  0
  3 31  1  0  0  0  0
  4 15  1  0  0  0  0
  4 16  1  0  0  0  0
  4 17  1  0  0  0  0
  5 11  1  0  0  0  0
  5 21  1  0  0  0  0
  5 51  1  0  0  0  0
  6 19  1  0  0  0  0
  6 22  2  0  0  0  0
  7 30  1  0  0  0  0
  7 36  2  0  0  0  0
  8  9  1  0  0  0  0
  8 10  1  0  0  0  0
  8 14  1  0  0  0  0
  8 37  1  0  0  0  0
  9 12  1  0  0  0  0
  9 38  1  0  0  0  0
  9 39  1  0  0  0  0
 10 13  1  0  0  0  0
 10 40  1  0  0  0  0
 10 41  1  0  0  0  0
 11 12  1  0  0  0  0
 11 13  1  0  0  0  0
 11 42  1  0  0  0  0
 12 43  1  0  0  0  0
 12 44  1  0  0  0  0
 13 45  1  0  0  0  0
 13 46  1  0  0  0  0
 14 15  1  0  0  0  0
 14 47  1  0  0  0  0
 14 48  1  0  0  0  0
 15 49  1  0  0  0  0
 15 50  1  0  0  0  0
 16 18  1  0  0  0  0
 16 52  1  0  0  0  0
 16 53  1  0  0  0  0
 17 19  1  0  0  0  0
 17 54  1  0  0  0  0
 17 55  1  0  0  0  0
 18 20  1  0  0  0  0
 18 56  1  0  0  0  0
 18 57  1  0  0  0  0
 19 20  2  0  0  0  0
 21 23  1  0  0  0  0
 22 24  1  0  0  0  0
 23 25  2  0  0  0  0
 23 27  1  0  0  0  0
 24 26  1  0  0  0  0
 24 28  2  0  0  0  0
 25 30  1  0  0  0  0
 25 33  1  0  0  0  0
 26 29  1  0  0  0  0
 26 58  1  0  0  0  0
 26 59  1  0  0  0  0
 27 32  2  0  0  0  0
 27 60  1  0  0  0  0
 28 31  1  0  0  0  0
 28 61  1  0  0  0  0
 29 62  1  0  0  0  0
 29 63  1  0  0  0  0
 30 34  2  0  0  0  0
 31 64  1  0  0  0  0
 31 65  1  0  0  0  0
 32 34  1  0  0  0  0
 32 66  1  0  0  0  0
 33 35  2  0  0  0  0
 33 67  1  0  0  0  0
 34 68  1  0  0  0  0
 35 36  1  0  0  0  0
 35 69  1  0  0  0  0
 36 70  1  0  0  0  0
M  END
> <PUBCHEM_COMPOUND_CID>
138671844

> <PUBCHEM_COMPOUND_CANONICALIZED>
1

> <PUBCHEM_CACTVS_COMPLEXITY>
785

> <PUBCHEM_CACTVS_HBOND_ACCEPTOR>
6

> <PUBCHEM_CACTVS_HBOND_DONOR>
1

> <PUBCHEM_CACTVS_ROTATABLE_BOND>
6

> <PUBCHEM_CACTVS_SUBSKEYS>
AAADcfB7sABAAAAAAAAAAAAAAAAAAWAAAAA8eIECAAAAAFix/AAAHgQQAAAADSjh3gY8wfPIFAisAzV3VACC8KB1CjgI2LU4ZNgIZPLgtZGWMQhk1gDo6Yc8iICOgAAAQAASAAAQAACAACQAAAAAAAAAAA==

> <PUBCHEM_IUPAC_OPENEYE_NAME>
N-[4-[2-[2-(3,6-dihydro-2H-pyran-4-yl)-6,7-dihydro-4H-thiazolo[4,5-c]pyridin-5-yl]ethyl]cyclohexyl]quinoline-5-carboxamide

> <PUBCHEM_IUPAC_CAS_NAME>
N-[4-[2-[2-(3,6-dihydro-2H-pyran-4-yl)-6,7-dihydro-4H-thiazolo[4,5-c]pyridin-5-yl]ethyl]cyclohexyl]-5-quinolinecarboxamide

> <PUBCHEM_IUPAC_NAME_MARKUP>
<I>N</I>-[4-[2-[2-(3,6-dihydro-2<I>H</I>-pyran-4-yl)-6,7-dihydro-4<I>H</I>-[1,3]thiazolo[4,5-c]pyridin-5-yl]ethyl]cyclohexyl]quinoline-5-carboxamide

> <PUBCHEM_IUPAC_NAME>
N-[4-[2-[2-(3,6-dihydro-2H-pyran-4-yl)-6,7-dihydro-4H-[1,3]thiazolo[4,5-c]pyridin-5-yl]ethyl]cyclohexyl]quinoline-5-carboxamide

> <PUBCHEM_IUPAC_SYSTEMATIC_NAME>
N-[4-[2-[2-(3,6-dihydro-2H-pyran-4-yl)-6,7-dihydro-4H-[1,3]thiazolo[4,5-c]pyridin-5-yl]ethyl]cyclohexyl]quinoline-5-carboxamide

> <PUBCHEM_IUPAC_TRADITIONAL_NAME>
N-[4-[2-[2-(3,6-dihydro-2H-pyran-4-yl)-6,7-dihydro-4H-thiazolo[4,5-c]pyridin-5-yl]ethyl]cyclohexyl]quinoline-5-carboxamide

> <PUBCHEM_IUPAC_INCHI>
InChI=1S/C29H34N4O2S/c34-28(24-3-1-5-25-23(24)4-2-14-30-25)31-22-8-6-20(7-9-22)10-15-33-16-11-27-26(19-33)32-29(36-27)21-12-17-35-18-13-21/h1-5,12,14,20,22H,6-11,13,15-19H2,(H,31,34)

> <PUBCHEM_IUPAC_INCHIKEY>
MWNDNCSVRWMPJK-UHFFFAOYSA-N

> <PUBCHEM_XLOGP3_AA>
4.1

> <PUBCHEM_EXACT_MASS>
502.24024751

> <PUBCHEM_MOLECULAR_FORMULA>
C29H34N4O2S

> <PUBCHEM_MOLECULAR_WEIGHT>
502.7

> <PUBCHEM_OPENEYE_CAN_SMILES>
C1CC(CCC1CCN2CCC3=C(C2)N=C(S3)C4=CCOCC4)NC(=O)C5=C6C=CC=NC6=CC=C5

> <PUBCHEM_OPENEYE_ISO_SMILES>
C1CC(CCC1CCN2CCC3=C(C2)N=C(S3)C4=CCOCC4)NC(=O)C5=C6C=CC=NC6=CC=C5

> <PUBCHEM_CACTVS_TPSA>
95.6

> <PUBCHEM_MONOISOTOPIC_WEIGHT>
502.24024751

> <PUBCHEM_TOTAL_CHARGE>
0

> <PUBCHEM_HEAVY_ATOM_COUNT>
36

> <PUBCHEM_ATOM_DEF_STEREO_COUNT>
0

> <PUBCHEM_ATOM_UDEF_STEREO_COUNT>
0

> <PUBCHEM_BOND_DEF_STEREO_COUNT>
0

> <PUBCHEM_BOND_UDEF_STEREO_COUNT>
0

> <PUBCHEM_ISOTOPIC_ATOM_COUNT>
0

> <PUBCHEM_COMPONENT_COUNT>
1

> <PUBCHEM_CACTVS_TAUTO_COUNT>
-1

> <PUBCHEM_COORDINATE_TYPE>
1
5
255

> <PUBCHEM_BONDANNOTATIONS>
1  20  8
1  22  8
19  20  8
23  25  8
23  27  8
25  30  8
25  33  8
27  32  8
30  34  8
32  34  8
33  35  8
35  36  8
6  19  8
6  22  8
7  30  8
7  36  8

$$$$
