90667734
  -OEChem-09292322352D

 47 49  0     1  0  0  0  0  0999 V2000
    4.5981    0.0272    0.0000 O   0  0  0  0  0  0  0  0  0  0  0  0
    2.8660    1.0272    0.0000 O   0  0  0  0  0  0  0  0  0  0  0  0
    7.9973   -2.1144    0.0000 N   0  0  3  0  0  0  0  0  0  0  0  0
    6.3465   -0.0074    0.0000 N   0  0  0  0  0  0  0  0  0  0  0  0
    7.2641    1.5064    0.0000 N   0  0  0  0  0  0  0  0  0  0  0  0
    7.2641    2.5480    0.0000 N   0  0  0  0  0  0  0  0  0  0  0  0
    7.1951   -1.5173    0.0000 C   0  0  3  0  0  0  0  0  0  0  0  0
    6.3793   -2.0957    0.0000 C   0  0  0  0  0  0  0  0  0  0  0  0
    6.6773   -3.0503    0.0000 C   0  0  0  0  0  0  0  0  0  0  0  0
    7.6773   -3.0619    0.0000 C   0  0  0  0  0  0  0  0  0  0  0  0
    7.2067   -0.5174    0.0000 C   0  0  0  0  0  0  0  0  0  0  0  0
    8.9518   -1.8164    0.0000 C   0  0  0  0  0  0  0  0  0  0  0  0
    9.6872   -2.4941    0.0000 C   0  0  0  0  0  0  0  0  0  0  0  0
    6.3580    0.9925    0.0000 C   0  0  0  0  0  0  0  0  0  0  0  0
    5.4641    1.5272    0.0000 C   0  0  0  0  0  0  0  0  0  0  0  0
    5.4641    2.5272    0.0000 C   0  0  0  0  0  0  0  0  0  0  0  0
    4.5981    1.0272    0.0000 C   0  0  0  0  0  0  0  0  0  0  0  0
    3.7320    1.5272    0.0000 C   0  0  0  0  0  0  0  0  0  0  0  0
    4.5981    3.0272    0.0000 C   0  0  0  0  0  0  0  0  0  0  0  0
    6.3580    3.0619    0.0000 C   0  0  0  0  0  0  0  0  0  0  0  0
    3.7320    2.5272    0.0000 C   0  0  0  0  0  0  0  0  0  0  0  0
    3.7320   -0.4728    0.0000 C   0  0  0  0  0  0  0  0  0  0  0  0
    2.0000    1.5272    0.0000 C   0  0  0  0  0  0  0  0  0  0  0  0
    7.7507   -1.2423    0.0000 H   0  0  0  0  0  0  0  0  0  0  0  0
    6.0756   -1.5552    0.0000 H   0  0  0  0  0  0  0  0  0  0  0  0
    5.8101   -2.3413    0.0000 H   0  0  0  0  0  0  0  0  0  0  0  0
    6.0694   -3.1722    0.0000 H   0  0  0  0  0  0  0  0  0  0  0  0
    6.7350   -3.6676    0.0000 H   0  0  0  0  0  0  0  0  0  0  0  0
    7.6053   -3.6777    0.0000 H   0  0  0  0  0  0  0  0  0  0  0  0
    8.2822   -3.1978    0.0000 H   0  0  0  0  0  0  0  0  0  0  0  0
    7.8160   -0.6321    0.0000 H   0  0  0  0  0  0  0  0  0  0  0  0
    7.4254    0.0627    0.0000 H   0  0  0  0  0  0  0  0  0  0  0  0
    9.4448   -1.4404    0.0000 H   0  0  0  0  0  0  0  0  0  0  0  0
    8.6671   -1.2657    0.0000 H   0  0  0  0  0  0  0  0  0  0  0  0
    5.8060   -0.3112    0.0000 H   0  0  0  0  0  0  0  0  0  0  0  0
    9.2670   -2.9500    0.0000 H   0  0  0  0  0  0  0  0  0  0  0  0
   10.1431   -2.9143    0.0000 H   0  0  0  0  0  0  0  0  0  0  0  0
   10.1074   -2.0382    0.0000 H   0  0  0  0  0  0  0  0  0  0  0  0
    4.5981    3.6472    0.0000 H   0  0  0  0  0  0  0  0  0  0  0  0
    6.3509    3.6818    0.0000 H   0  0  0  0  0  0  0  0  0  0  0  0
    3.1951    2.8372    0.0000 H   0  0  0  0  0  0  0  0  0  0  0  0
    3.4220    0.0641    0.0000 H   0  0  0  0  0  0  0  0  0  0  0  0
    3.1951   -0.7828    0.0000 H   0  0  0  0  0  0  0  0  0  0  0  0
    4.0420   -1.0098    0.0000 H   0  0  0  0  0  0  0  0  0  0  0  0
    2.3100    2.0641    0.0000 H   0  0  0  0  0  0  0  0  0  0  0  0
    1.4631    1.8372    0.0000 H   0  0  0  0  0  0  0  0  0  0  0  0
    1.6900    0.9902    0.0000 H   0  0  0  0  0  0  0  0  0  0  0  0
  1 17  1  0  0  0  0
  1 22  1  0  0  0  0
  2 18  1  0  0  0  0
  2 23  1  0  0  0  0
  3  7  1  0  0  0  0
  3 10  1  0  0  0  0
  3 12  1  0  0  0  0
  4 11  1  0  0  0  0
  4 14  1  0  0  0  0
  4 35  1  0  0  0  0
  5  6  2  0  0  0  0
  5 14  1  0  0  0  0
  6 20  1  0  0  0  0
  7  8  1  0  0  0  0
  7 11  1  0  0  0  0
  7 24  1  0  0  0  0
  8  9  1  0  0  0  0
  8 25  1  0  0  0  0
  8 26  1  0  0  0  0
  9 10  1  0  0  0  0
  9 27  1  0  0  0  0
  9 28  1  0  0  0  0
 10 29  1  0  0  0  0
 10 30  1  0  0  0  0
 11 31  1  0  0  0  0
 11 32  1  0  0  0  0
 12 13  1  0  0  0  0
 12 33  1  0  0  0  0
 12 34  1  0  0  0  0
 13 36  1  0  0  0  0
 13 37  1  0  0  0  0
 13 38  1  0  0  0  0
 14 15  2  0  0  0  0
 15 16  1  0  0  0  0
 15 17  1  0  0  0  0
 16 19  1  0  0  0  0
 16 20  2  0  0  0  0
 17 18  2  0  0  0  0
 18 21  1  0  0  0  0
 19 21  2  0  0  0  0
 19 39  1  0  0  0  0
 20 40  1  0  0  0  0
 21 41  1  0  0  0  0
 22 42  1  0  0  0  0
 22 43  1  0  0  0  0
 22 44  1  0  0  0  0
 23 45  1  0  0  0  0
 23 46  1  0  0  0  0
 23 47  1  0  0  0  0
M  END
> <PUBCHEM_COMPOUND_CID>
90667734

> <PUBCHEM_COMPOUND_CANONICALIZED>
1

> <PUBCHEM_CACTVS_COMPLEXITY>
371

> <PUBCHEM_CACTVS_HBOND_ACCEPTOR>
6

> <PUBCHEM_CACTVS_HBOND_DONOR>
1

> <PUBCHEM_CACTVS_ROTATABLE_BOND>
6

> <PUBCHEM_CACTVS_SUBSKEYS>
AAADceB7sAAAAAAAAAAAAAAAAAAAAWAAAAA8QAAAAAAAAACx8AAAHgAYAAAADCzBmgY/ttPABACiAjJnYACSDAIhoAAdmKAuzJiNZqLEuZuUsCp22BvK6Aew0LAOoAABAAAYQABAAAIAADCAAAAAAAAAAA==

> <PUBCHEM_IUPAC_OPENEYE_NAME>
N-[(1-ethylpyrrolidin-2-yl)methyl]-7,8-dimethoxy-phthalazin-1-amine

> <PUBCHEM_IUPAC_CAS_NAME>
N-[(1-ethyl-2-pyrrolidinyl)methyl]-7,8-dimethoxy-1-phthalazinamine

> <PUBCHEM_IUPAC_NAME_MARKUP>
<I>N</I>-[(1-ethylpyrrolidin-2-yl)methyl]-7,8-dimethoxyphthalazin-1-amine

> <PUBCHEM_IUPAC_NAME>
N-[(1-ethylpyrrolidin-2-yl)methyl]-7,8-dimethoxyphthalazin-1-amine

> <PUBCHEM_IUPAC_SYSTEMATIC_NAME>
N-[(1-ethylpyrrolidin-2-yl)methyl]-7,8-dimethoxy-phthalazin-1-amine

> <PUBCHEM_IUPAC_TRADITIONAL_NAME>
(7,8-dimethoxyphthalazin-1-yl)-[(1-ethylpyrrolidin-2-yl)methyl]amine

> <PUBCHEM_IUPAC_INCHI>
InChI=1S/C17H24N4O2/c1-4-21-9-5-6-13(21)11-18-17-15-12(10-19-20-17)7-8-14(22-2)16(15)23-3/h7-8,10,13H,4-6,9,11H2,1-3H3,(H,18,20)

> <PUBCHEM_IUPAC_INCHIKEY>
HSRIVLACNJBPQF-UHFFFAOYSA-N

> <PUBCHEM_XLOGP3_AA>
2.3

> <PUBCHEM_EXACT_MASS>
316.18992602

> <PUBCHEM_MOLECULAR_FORMULA>
C17H24N4O2

> <PUBCHEM_MOLECULAR_WEIGHT>
316.4

> <PUBCHEM_OPENEYE_CAN_SMILES>
CCN1CCCC1CNC2=C3C(=CN=N2)C=CC(=C3OC)OC

> <PUBCHEM_OPENEYE_ISO_SMILES>
CCN1CCCC1CNC2=C3C(=CN=N2)C=CC(=C3OC)OC

> <PUBCHEM_CACTVS_TPSA>
59.5

> <PUBCHEM_MONOISOTOPIC_WEIGHT>
316.18992602

> <PUBCHEM_TOTAL_CHARGE>
0

> <PUBCHEM_HEAVY_ATOM_COUNT>
23

> <PUBCHEM_ATOM_DEF_STEREO_COUNT>
0

> <PUBCHEM_ATOM_UDEF_STEREO_COUNT>
1

> <PUBCHEM_BOND_DEF_STEREO_COUNT>
0

> <PUBCHEM_BOND_UDEF_STEREO_COUNT>
0

> <PUBCHEM_ISOTOPIC_ATOM_COUNT>
0

> <PUBCHEM_COMPONENT_COUNT>
1

> <PUBCHEM_CACTVS_TAUTO_COUNT>
-1

> <PUBCHEM_COORDINATE_TYPE>
1
5
255

> <PUBCHEM_BONDANNOTATIONS>
14  15  8
15  16  8
15  17  8
16  19  8
16  20  8
17  18  8
18  21  8
19  21  8
5  14  8
5  6  8
6  20  8
7  11  3

$$$$
