45259661
  -OEChem-09292322152D

 60 62  0     0  0  0  0  0  0999 V2000
    8.6764    7.7397    0.0000 Cl  0  0  0  0  0  0  0  0  0  0  0  0
    2.3996   10.2078    0.0000 O   0  0  0  0  0  0  0  0  0  0  0  0
    1.4766    5.6200    0.0000 N   0  0  0  0  0  0  0  0  0  0  0  0
    1.4766    3.6200    0.0000 N   0  0  0  0  0  0  0  0  0  0  0  0
    2.7087   11.1588    0.0000 N   0  0  0  0  0  0  0  0  0  0  0  0
    2.3426    5.1200    0.0000 C   0  0  0  0  0  0  0  0  0  0  0  0
    0.6106    5.1200    0.0000 C   0  0  0  0  0  0  0  0  0  0  0  0
    2.3426    4.1200    0.0000 C   0  0  0  0  0  0  0  0  0  0  0  0
    0.6106    4.1200    0.0000 C   0  0  0  0  0  0  0  0  0  0  0  0
    1.4766    6.6200    0.0000 C   0  0  0  0  0  0  0  0  0  0  0  0
    2.3426    7.1200    0.0000 C   0  0  0  0  0  0  0  0  0  0  0  0
    2.3426    8.1200    0.0000 C   0  0  0  0  0  0  0  0  0  0  0  0
    1.4766    2.6200    0.0000 C   0  0  0  0  0  0  0  0  0  0  0  0
    3.2087    8.6200    0.0000 C   0  0  0  0  0  0  0  0  0  0  0  0
    2.3426    2.1200    0.0000 C   0  0  0  0  0  0  0  0  0  0  0  0
    0.6106    2.1200    0.0000 C   0  0  0  0  0  0  0  0  0  0  0  0
    3.2087    9.6200    0.0000 C   0  0  0  0  0  0  0  0  0  0  0  0
    2.3426    1.1200    0.0000 C   0  0  0  0  0  0  0  0  0  0  0  0
    0.6106    1.1200    0.0000 C   0  0  0  0  0  0  0  0  0  0  0  0
    1.4766    0.6200    0.0000 C   0  0  0  0  0  0  0  0  0  0  0  0
    4.0177   10.2078    0.0000 C   0  0  0  0  0  0  0  0  0  0  0  0
    3.7087   11.1588    0.0000 C   0  0  0  0  0  0  0  0  0  0  0  0
    4.2964   11.9679    0.0000 C   0  0  0  0  0  0  0  0  0  0  0  0
    3.8897   12.8814    0.0000 C   0  0  0  0  0  0  0  0  0  0  0  0
    4.4775   13.6904    0.0000 C   0  0  0  0  0  0  0  0  0  0  0  0
    4.0708   14.6040    0.0000 C   0  0  0  0  0  0  0  0  0  0  0  0
    5.4720   13.5859    0.0000 C   0  0  0  0  0  0  0  0  0  0  0  0
    4.6585   15.4130    0.0000 C   0  0  0  0  0  0  0  0  0  0  0  0
    6.0598   14.3949    0.0000 C   0  0  0  0  0  0  0  0  0  0  0  0
    5.6531   15.3085    0.0000 C   0  0  0  0  0  0  0  0  0  0  0  0
    2.9532    5.0123    0.0000 H   0  0  0  0  0  0  0  0  0  0  0  0
    2.5547    5.7026    0.0000 H   0  0  0  0  0  0  0  0  0  0  0  0
    0.3985    5.7026    0.0000 H   0  0  0  0  0  0  0  0  0  0  0  0
    0.0000    5.0123    0.0000 H   0  0  0  0  0  0  0  0  0  0  0  0
    2.5547    3.5374    0.0000 H   0  0  0  0  0  0  0  0  0  0  0  0
    2.9532    4.2277    0.0000 H   0  0  0  0  0  0  0  0  0  0  0  0
    0.0000    4.2277    0.0000 H   0  0  0  0  0  0  0  0  0  0  0  0
    0.3985    3.5374    0.0000 H   0  0  0  0  0  0  0  0  0  0  0  0
    1.2646    7.2026    0.0000 H   0  0  0  0  0  0  0  0  0  0  0  0
    0.8660    6.5123    0.0000 H   0  0  0  0  0  0  0  0  0  0  0  0
    2.5547    6.5374    0.0000 H   0  0  0  0  0  0  0  0  0  0  0  0
    2.9532    7.2277    0.0000 H   0  0  0  0  0  0  0  0  0  0  0  0
    2.1306    8.7026    0.0000 H   0  0  0  0  0  0  0  0  0  0  0  0
    1.7320    8.0123    0.0000 H   0  0  0  0  0  0  0  0  0  0  0  0
    3.4207    8.0374    0.0000 H   0  0  0  0  0  0  0  0  0  0  0  0
    3.8192    8.7277    0.0000 H   0  0  0  0  0  0  0  0  0  0  0  0
    2.8796    2.4300    0.0000 H   0  0  0  0  0  0  0  0  0  0  0  0
    0.0736    2.4300    0.0000 H   0  0  0  0  0  0  0  0  0  0  0  0
    2.8796    0.8100    0.0000 H   0  0  0  0  0  0  0  0  0  0  0  0
    0.0736    0.8100    0.0000 H   0  0  0  0  0  0  0  0  0  0  0  0
    1.4766    0.0000    0.0000 H   0  0  0  0  0  0  0  0  0  0  0  0
    4.6073   10.0162    0.0000 H   0  0  0  0  0  0  0  0  0  0  0  0
    4.9130   11.9031    0.0000 H   0  0  0  0  0  0  0  0  0  0  0  0
    3.2731   12.9462    0.0000 H   0  0  0  0  0  0  0  0  0  0  0  0
    3.4542   14.6688    0.0000 H   0  0  0  0  0  0  0  0  0  0  0  0
    5.7242   13.0195    0.0000 H   0  0  0  0  0  0  0  0  0  0  0  0
    4.4064   15.9794    0.0000 H   0  0  0  0  0  0  0  0  0  0  0  0
    6.6764   14.3301    0.0000 H   0  0  0  0  0  0  0  0  0  0  0  0
    6.0175   15.8100    0.0000 H   0  0  0  0  0  0  0  0  0  0  0  0
    9.6764    7.7397    0.0000 H   0  0  0  0  0  0  0  0  0  0  0  0
  1 60  1  0  0  0  0
  2  5  1  0  0  0  0
  2 17  1  0  0  0  0
  3  6  1  0  0  0  0
  3  7  1  0  0  0  0
  3 10  1  0  0  0  0
  4  8  1  0  0  0  0
  4  9  1  0  0  0  0
  4 13  1  0  0  0  0
  5 22  2  0  0  0  0
  6  8  1  0  0  0  0
  6 31  1  0  0  0  0
  6 32  1  0  0  0  0
  7  9  1  0  0  0  0
  7 33  1  0  0  0  0
  7 34  1  0  0  0  0
  8 35  1  0  0  0  0
  8 36  1  0  0  0  0
  9 37  1  0  0  0  0
  9 38  1  0  0  0  0
 10 11  1  0  0  0  0
 10 39  1  0  0  0  0
 10 40  1  0  0  0  0
 11 12  1  0  0  0  0
 11 41  1  0  0  0  0
 11 42  1  0  0  0  0
 12 14  1  0  0  0  0
 12 43  1  0  0  0  0
 12 44  1  0  0  0  0
 13 15  2  0  0  0  0
 13 16  1  0  0  0  0
 14 17  1  0  0  0  0
 14 45  1  0  0  0  0
 14 46  1  0  0  0  0
 15 18  1  0  0  0  0
 15 47  1  0  0  0  0
 16 19  2  0  0  0  0
 16 48  1  0  0  0  0
 17 21  2  0  0  0  0
 18 20  2  0  0  0  0
 18 49  1  0  0  0  0
 19 20  1  0  0  0  0
 19 50  1  0  0  0  0
 20 51  1  0  0  0  0
 21 22  1  0  0  0  0
 21 52  1  0  0  0  0
 22 23  1  0  0  0  0
 23 24  2  0  0  0  0
 23 53  1  0  0  0  0
 24 25  1  0  0  0  0
 24 54  1  0  0  0  0
 25 26  2  0  0  0  0
 25 27  1  0  0  0  0
 26 28  1  0  0  0  0
 26 55  1  0  0  0  0
 27 29  2  0  0  0  0
 27 56  1  0  0  0  0
 28 30  2  0  0  0  0
 28 57  1  0  0  0  0
 29 30  1  0  0  0  0
 29 58  1  0  0  0  0
 30 59  1  0  0  0  0
M  END
> <PUBCHEM_COMPOUND_CID>
45259661

> <PUBCHEM_COMPOUND_CANONICALIZED>
1

> <PUBCHEM_CACTVS_COMPLEXITY>
477

> <PUBCHEM_CACTVS_HBOND_ACCEPTOR>
4

> <PUBCHEM_CACTVS_HBOND_DONOR>
1

> <PUBCHEM_CACTVS_ROTATABLE_BOND>
8

> <PUBCHEM_CACTVS_SUBSKEYS>
AAADceB7IAAEAAAAAAAAAAAAAAAAAWAAAAA8YIAAAAAAAAAB0AAAHgAEAAAADAzBngQwxJMQAACpA6RyQgCCAAAlIgAomCE+bNoIZjrAkZOUMYhmgBjIyUeYkYIOAAAAAAAAAAAAAAAAAAAAAAAAAAAAAA==

> <PUBCHEM_IUPAC_OPENEYE_NAME>
5-[4-(4-phenylpiperazin-1-yl)butyl]-3-[(E)-styryl]isoxazole;hydrochloride

> <PUBCHEM_IUPAC_CAS_NAME>
3-[(E)-2-phenylethenyl]-5-[4-(4-phenyl-1-piperazinyl)butyl]isoxazole;hydrochloride

> <PUBCHEM_IUPAC_NAME_MARKUP>
3-[(<I>E</I>)-2-phenylethenyl]-5-[4-(4-phenylpiperazin-1-yl)butyl]-1,2-oxazole;hydrochloride

> <PUBCHEM_IUPAC_NAME>
3-[(E)-2-phenylethenyl]-5-[4-(4-phenylpiperazin-1-yl)butyl]-1,2-oxazole;hydrochloride

> <PUBCHEM_IUPAC_SYSTEMATIC_NAME>
3-[(E)-2-phenylethenyl]-5-[4-(4-phenylpiperazin-1-yl)butyl]-1,2-oxazole;hydrochloride

> <PUBCHEM_IUPAC_TRADITIONAL_NAME>
5-[4-(4-phenylpiperazino)butyl]-3-[(E)-styryl]isoxazole;hydrochloride

> <PUBCHEM_IUPAC_INCHI>
InChI=1S/C25H29N3O.ClH/c1-3-9-22(10-4-1)14-15-23-21-25(29-26-23)13-7-8-16-27-17-19-28(20-18-27)24-11-5-2-6-12-24;/h1-6,9-12,14-15,21H,7-8,13,16-20H2;1H/b15-14+;

> <PUBCHEM_IUPAC_INCHIKEY>
GPZBHWMHLKUHEN-WPDLWGESSA-N

> <PUBCHEM_EXACT_MASS>
423.2077403

> <PUBCHEM_MOLECULAR_FORMULA>
C25H30ClN3O

> <PUBCHEM_MOLECULAR_WEIGHT>
424.0

> <PUBCHEM_OPENEYE_CAN_SMILES>
C1CN(CCN1CCCCC2=CC(=NO2)C=CC3=CC=CC=C3)C4=CC=CC=C4.Cl

> <PUBCHEM_OPENEYE_ISO_SMILES>
C1CN(CCN1CCCCC2=CC(=NO2)/C=C/C3=CC=CC=C3)C4=CC=CC=C4.Cl

> <PUBCHEM_CACTVS_TPSA>
32.5

> <PUBCHEM_MONOISOTOPIC_WEIGHT>
423.2077403

> <PUBCHEM_TOTAL_CHARGE>
0

> <PUBCHEM_HEAVY_ATOM_COUNT>
30

> <PUBCHEM_ATOM_DEF_STEREO_COUNT>
0

> <PUBCHEM_ATOM_UDEF_STEREO_COUNT>
0

> <PUBCHEM_BOND_DEF_STEREO_COUNT>
1

> <PUBCHEM_BOND_UDEF_STEREO_COUNT>
0

> <PUBCHEM_ISOTOPIC_ATOM_COUNT>
0

> <PUBCHEM_COMPONENT_COUNT>
2

> <PUBCHEM_CACTVS_TAUTO_COUNT>
-1

> <PUBCHEM_COORDINATE_TYPE>
1
5
255

> <PUBCHEM_BONDANNOTATIONS>
13  15  8
13  16  8
15  18  8
16  19  8
17  21  8
18  20  8
19  20  8
2  17  8
2  5  8
21  22  8
25  26  8
25  27  8
26  28  8
27  29  8
28  30  8
29  30  8
5  22  8

$$$$
