44589177
  -OEChem-09292322502D

 63 66  0     0  0  0  0  0  0999 V2000
    2.8660   -7.7694    0.0000 O   0  0  0  0  0  0  0  0  0  0  0  0
    6.3301    2.2306    0.0000 O   0  0  0  0  0  0  0  0  0  0  0  0
    2.8660   -1.7694    0.0000 N   0  0  0  0  0  0  0  0  0  0  0  0
    2.8660   -3.7694    0.0000 N   0  0  0  0  0  0  0  0  0  0  0  0
    4.5981    2.2306    0.0000 N   0  0  0  0  0  0  0  0  0  0  0  0
    5.4641    6.7306    0.0000 N   0  0  0  0  0  0  0  0  0  0  0  0
    5.9641    8.2694    0.0000 N   0  0  0  0  0  0  0  0  0  0  0  0
    2.0000   -2.2694    0.0000 C   0  0  0  0  0  0  0  0  0  0  0  0
    3.7320   -2.2694    0.0000 C   0  0  0  0  0  0  0  0  0  0  0  0
    2.0000   -3.2694    0.0000 C   0  0  0  0  0  0  0  0  0  0  0  0
    3.7320   -3.2694    0.0000 C   0  0  0  0  0  0  0  0  0  0  0  0
    2.8660   -0.7694    0.0000 C   0  0  0  0  0  0  0  0  0  0  0  0
    3.7320   -0.2694    0.0000 C   0  0  0  0  0  0  0  0  0  0  0  0
    2.8660   -4.7694    0.0000 C   0  0  0  0  0  0  0  0  0  0  0  0
    3.7320    0.7306    0.0000 C   0  0  0  0  0  0  0  0  0  0  0  0
    4.5981    1.2306    0.0000 C   0  0  0  0  0  0  0  0  0  0  0  0
    2.0000   -5.2694    0.0000 C   0  0  0  0  0  0  0  0  0  0  0  0
    3.7320   -5.2694    0.0000 C   0  0  0  0  0  0  0  0  0  0  0  0
    2.0000   -6.2694    0.0000 C   0  0  0  0  0  0  0  0  0  0  0  0
    3.7320   -6.2694    0.0000 C   0  0  0  0  0  0  0  0  0  0  0  0
    2.8660   -6.7694    0.0000 C   0  0  0  0  0  0  0  0  0  0  0  0
    5.4641    2.7306    0.0000 C   0  0  0  0  0  0  0  0  0  0  0  0
    5.4641    3.7306    0.0000 C   0  0  0  0  0  0  0  0  0  0  0  0
    6.3301    4.2306    0.0000 C   0  0  0  0  0  0  0  0  0  0  0  0
    4.5981    4.2306    0.0000 C   0  0  0  0  0  0  0  0  0  0  0  0
    5.4641    5.7306    0.0000 C   0  0  0  0  0  0  0  0  0  0  0  0
    6.3301    5.2306    0.0000 C   0  0  0  0  0  0  0  0  0  0  0  0
    4.5981    5.2306    0.0000 C   0  0  0  0  0  0  0  0  0  0  0  0
    2.0000   -8.2694    0.0000 C   0  0  0  0  0  0  0  0  0  0  0  0
    4.6551    7.3184    0.0000 C   0  0  0  0  0  0  0  0  0  0  0  0
    6.2731    7.3184    0.0000 C   0  0  0  0  0  0  0  0  0  0  0  0
    4.9641    8.2694    0.0000 C   0  0  0  0  0  0  0  0  0  0  0  0
    1.7880   -1.6868    0.0000 H   0  0  0  0  0  0  0  0  0  0  0  0
    1.3894   -2.3771    0.0000 H   0  0  0  0  0  0  0  0  0  0  0  0
    4.3426   -2.3771    0.0000 H   0  0  0  0  0  0  0  0  0  0  0  0
    3.9441   -1.6868    0.0000 H   0  0  0  0  0  0  0  0  0  0  0  0
    1.3894   -3.1618    0.0000 H   0  0  0  0  0  0  0  0  0  0  0  0
    1.7880   -3.8520    0.0000 H   0  0  0  0  0  0  0  0  0  0  0  0
    3.9441   -3.8520    0.0000 H   0  0  0  0  0  0  0  0  0  0  0  0
    4.3426   -3.1618    0.0000 H   0  0  0  0  0  0  0  0  0  0  0  0
    2.6540   -0.1868    0.0000 H   0  0  0  0  0  0  0  0  0  0  0  0
    2.2554   -0.8771    0.0000 H   0  0  0  0  0  0  0  0  0  0  0  0
    3.9441   -0.8520    0.0000 H   0  0  0  0  0  0  0  0  0  0  0  0
    4.3426   -0.1618    0.0000 H   0  0  0  0  0  0  0  0  0  0  0  0
    3.5200    1.3132    0.0000 H   0  0  0  0  0  0  0  0  0  0  0  0
    3.1215    0.6229    0.0000 H   0  0  0  0  0  0  0  0  0  0  0  0
    4.8101    0.6480    0.0000 H   0  0  0  0  0  0  0  0  0  0  0  0
    5.2087    1.3382    0.0000 H   0  0  0  0  0  0  0  0  0  0  0  0
    1.4631   -4.9594    0.0000 H   0  0  0  0  0  0  0  0  0  0  0  0
    4.2690   -4.9594    0.0000 H   0  0  0  0  0  0  0  0  0  0  0  0
    4.0611    2.5406    0.0000 H   0  0  0  0  0  0  0  0  0  0  0  0
    1.4631   -6.5794    0.0000 H   0  0  0  0  0  0  0  0  0  0  0  0
    4.2690   -6.5794    0.0000 H   0  0  0  0  0  0  0  0  0  0  0  0
    6.8671    3.9206    0.0000 H   0  0  0  0  0  0  0  0  0  0  0  0
    4.0611    3.9206    0.0000 H   0  0  0  0  0  0  0  0  0  0  0  0
    6.8671    5.5406    0.0000 H   0  0  0  0  0  0  0  0  0  0  0  0
    4.0611    5.5406    0.0000 H   0  0  0  0  0  0  0  0  0  0  0  0
    1.6900   -7.7325    0.0000 H   0  0  0  0  0  0  0  0  0  0  0  0
    1.4631   -8.5794    0.0000 H   0  0  0  0  0  0  0  0  0  0  0  0
    2.3100   -8.8064    0.0000 H   0  0  0  0  0  0  0  0  0  0  0  0
    4.0654    7.1268    0.0000 H   0  0  0  0  0  0  0  0  0  0  0  0
    6.8628    7.1268    0.0000 H   0  0  0  0  0  0  0  0  0  0  0  0
    4.5997    8.7710    0.0000 H   0  0  0  0  0  0  0  0  0  0  0  0
  1 21  1  0  0  0  0
  1 29  1  0  0  0  0
  2 22  2  0  0  0  0
  3  8  1  0  0  0  0
  3  9  1  0  0  0  0
  3 12  1  0  0  0  0
  4 10  1  0  0  0  0
  4 11  1  0  0  0  0
  4 14  1  0  0  0  0
  5 16  1  0  0  0  0
  5 22  1  0  0  0  0
  5 51  1  0  0  0  0
  6 26  1  0  0  0  0
  6 30  1  0  0  0  0
  6 31  1  0  0  0  0
  7 31  2  0  0  0  0
  7 32  1  0  0  0  0
  8 10  1  0  0  0  0
  8 33  1  0  0  0  0
  8 34  1  0  0  0  0
  9 11  1  0  0  0  0
  9 35  1  0  0  0  0
  9 36  1  0  0  0  0
 10 37  1  0  0  0  0
 10 38  1  0  0  0  0
 11 39  1  0  0  0  0
 11 40  1  0  0  0  0
 12 13  1  0  0  0  0
 12 41  1  0  0  0  0
 12 42  1  0  0  0  0
 13 15  1  0  0  0  0
 13 43  1  0  0  0  0
 13 44  1  0  0  0  0
 14 17  2  0  0  0  0
 14 18  1  0  0  0  0
 15 16  1  0  0  0  0
 15 45  1  0  0  0  0
 15 46  1  0  0  0  0
 16 47  1  0  0  0  0
 16 48  1  0  0  0  0
 17 19  1  0  0  0  0
 17 49  1  0  0  0  0
 18 20  2  0  0  0  0
 18 50  1  0  0  0  0
 19 21  2  0  0  0  0
 19 52  1  0  0  0  0
 20 21  1  0  0  0  0
 20 53  1  0  0  0  0
 22 23  1  0  0  0  0
 23 24  2  0  0  0  0
 23 25  1  0  0  0  0
 24 27  1  0  0  0  0
 24 54  1  0  0  0  0
 25 28  2  0  0  0  0
 25 55  1  0  0  0  0
 26 27  2  0  0  0  0
 26 28  1  0  0  0  0
 27 56  1  0  0  0  0
 28 57  1  0  0  0  0
 29 58  1  0  0  0  0
 29 59  1  0  0  0  0
 29 60  1  0  0  0  0
 30 32  2  0  0  0  0
 30 61  1  0  0  0  0
 31 62  1  0  0  0  0
 32 63  1  0  0  0  0
M  END
> <PUBCHEM_COMPOUND_CID>
44589177

> <PUBCHEM_COMPOUND_CANONICALIZED>
1

> <PUBCHEM_CACTVS_COMPLEXITY>
553

> <PUBCHEM_CACTVS_HBOND_ACCEPTOR>
5

> <PUBCHEM_CACTVS_HBOND_DONOR>
1

> <PUBCHEM_CACTVS_ROTATABLE_BOND>
9

> <PUBCHEM_CACTVS_SUBSKEYS>
AAADceB7sAAAAAAAAAAAAAAAAAAAAWAAAAA8YIAAAAAAAAAB0AAAHgAQAAAADAzBmgY/1pfMFACoAjV3dACCiC01MqAJyIEefMiMbnLEvZuUMShs1hPI6ae4yQCeCEAAAAAAAAAQgAAAAAAAAAAAAAAAAA==

> <PUBCHEM_IUPAC_OPENEYE_NAME>
4-imidazol-1-yl-N-[4-[4-(4-methoxyphenyl)piperazin-1-yl]butyl]benzamide

> <PUBCHEM_IUPAC_CAS_NAME>
4-(1-imidazolyl)-N-[4-[4-(4-methoxyphenyl)-1-piperazinyl]butyl]benzamide

> <PUBCHEM_IUPAC_NAME_MARKUP>
4-imidazol-1-yl-<I>N</I>-[4-[4-(4-methoxyphenyl)piperazin-1-yl]butyl]benzamide

> <PUBCHEM_IUPAC_NAME>
4-imidazol-1-yl-N-[4-[4-(4-methoxyphenyl)piperazin-1-yl]butyl]benzamide

> <PUBCHEM_IUPAC_SYSTEMATIC_NAME>
4-imidazol-1-yl-N-[4-[4-(4-methoxyphenyl)piperazin-1-yl]butyl]benzamide

> <PUBCHEM_IUPAC_TRADITIONAL_NAME>
4-imidazol-1-yl-N-[4-[4-(4-methoxyphenyl)piperazino]butyl]benzamide

> <PUBCHEM_IUPAC_INCHI>
InChI=1S/C25H31N5O2/c1-32-24-10-8-22(9-11-24)29-18-16-28(17-19-29)14-3-2-12-27-25(31)21-4-6-23(7-5-21)30-15-13-26-20-30/h4-11,13,15,20H,2-3,12,14,16-19H2,1H3,(H,27,31)

> <PUBCHEM_IUPAC_INCHIKEY>
RLJNOVFKZCYMTH-UHFFFAOYSA-N

> <PUBCHEM_XLOGP3_AA>
3.3

> <PUBCHEM_EXACT_MASS>
433.24777525

> <PUBCHEM_MOLECULAR_FORMULA>
C25H31N5O2

> <PUBCHEM_MOLECULAR_WEIGHT>
433.5

> <PUBCHEM_OPENEYE_CAN_SMILES>
COC1=CC=C(C=C1)N2CCN(CC2)CCCCNC(=O)C3=CC=C(C=C3)N4C=CN=C4

> <PUBCHEM_OPENEYE_ISO_SMILES>
COC1=CC=C(C=C1)N2CCN(CC2)CCCCNC(=O)C3=CC=C(C=C3)N4C=CN=C4

> <PUBCHEM_CACTVS_TPSA>
62.6

> <PUBCHEM_MONOISOTOPIC_WEIGHT>
433.24777525

> <PUBCHEM_TOTAL_CHARGE>
0

> <PUBCHEM_HEAVY_ATOM_COUNT>
32

> <PUBCHEM_ATOM_DEF_STEREO_COUNT>
0

> <PUBCHEM_ATOM_UDEF_STEREO_COUNT>
0

> <PUBCHEM_BOND_DEF_STEREO_COUNT>
0

> <PUBCHEM_BOND_UDEF_STEREO_COUNT>
0

> <PUBCHEM_ISOTOPIC_ATOM_COUNT>
0

> <PUBCHEM_COMPONENT_COUNT>
1

> <PUBCHEM_CACTVS_TAUTO_COUNT>
-1

> <PUBCHEM_COORDINATE_TYPE>
1
5
255

> <PUBCHEM_BONDANNOTATIONS>
14  17  8
14  18  8
17  19  8
18  20  8
19  21  8
20  21  8
23  24  8
23  25  8
24  27  8
25  28  8
26  27  8
26  28  8
30  32  8
6  30  8
6  31  8
7  31  8
7  32  8

$$$$
