44406799
  -OEChem-09292322492D

 47 49  0     0  0  0  0  0  0999 V2000
    7.9244   -1.0707    0.0000 O   0  0  0  0  0  0  0  0  0  0  0  0
   10.5028    1.2428    0.0000 O   0  0  0  0  0  0  0  0  0  0  0  0
    4.6783   -4.2493    0.0000 N   0  0  0  0  0  0  0  0  0  0  0  0
    6.2781   -0.5326    0.0000 N   0  0  0  0  0  0  0  0  0  0  0  0
    4.6783   -2.6399    0.0000 C   0  0  0  0  0  0  0  0  0  0  0  0
    4.9889   -1.6893    0.0000 C   0  0  0  0  0  0  0  0  0  0  0  0
    3.7320   -2.9446    0.0000 C   0  0  0  0  0  0  0  0  0  0  0  0
    5.9674   -1.4831    0.0000 C   0  0  0  0  0  0  0  0  0  0  0  0
    3.7320   -3.9446    0.0000 C   0  0  0  0  0  0  0  0  0  0  0  0
    5.2619   -3.4446    0.0000 C   0  0  0  0  0  0  0  0  0  0  0  0
    8.5458    0.8304    0.0000 C   0  0  0  0  0  0  0  0  0  0  0  0
    7.5673    0.6241    0.0000 C   0  0  0  0  0  0  0  0  0  0  0  0
    8.8564    1.7809    0.0000 C   0  0  0  0  0  0  0  0  0  0  0  0
    7.2566   -0.3264    0.0000 C   0  0  0  0  0  0  0  0  0  0  0  0
    2.8660   -2.4446    0.0000 C   0  0  0  0  0  0  0  0  0  0  0  0
    2.8660   -4.4446    0.0000 C   0  0  0  0  0  0  0  0  0  0  0  0
    2.0000   -2.9446    0.0000 C   0  0  0  0  0  0  0  0  0  0  0  0
    2.0000   -3.9446    0.0000 C   0  0  0  0  0  0  0  0  0  0  0  0
    9.8349    1.9871    0.0000 C   0  0  0  0  0  0  0  0  0  0  0  0
   10.1456    2.9376    0.0000 C   0  0  0  0  0  0  0  0  0  0  0  0
   11.1241    3.1438    0.0000 C   0  0  0  0  0  0  0  0  0  0  0  0
    9.4778    3.6819    0.0000 C   0  0  0  0  0  0  0  0  0  0  0  0
   11.4348    4.0944    0.0000 C   0  0  0  0  0  0  0  0  0  0  0  0
    9.7884    4.6324    0.0000 C   0  0  0  0  0  0  0  0  0  0  0  0
   10.7669    4.8386    0.0000 C   0  0  0  0  0  0  0  0  0  0  0  0
    4.9684   -1.0697    0.0000 H   0  0  0  0  0  0  0  0  0  0  0  0
    4.3751   -1.6020    0.0000 H   0  0  0  0  0  0  0  0  0  0  0  0
    5.9880   -2.1028    0.0000 H   0  0  0  0  0  0  0  0  0  0  0  0
    6.5812   -1.5705    0.0000 H   0  0  0  0  0  0  0  0  0  0  0  0
    5.8819   -3.4446    0.0000 H   0  0  0  0  0  0  0  0  0  0  0  0
    8.5663    0.2107    0.0000 H   0  0  0  0  0  0  0  0  0  0  0  0
    9.1596    0.7430    0.0000 H   0  0  0  0  0  0  0  0  0  0  0  0
    7.5467    1.2438    0.0000 H   0  0  0  0  0  0  0  0  0  0  0  0
    6.9534    0.7115    0.0000 H   0  0  0  0  0  0  0  0  0  0  0  0
    4.8709   -4.8386    0.0000 H   0  0  0  0  0  0  0  0  0  0  0  0
    5.8640   -0.0711    0.0000 H   0  0  0  0  0  0  0  0  0  0  0  0
    8.8359    2.4005    0.0000 H   0  0  0  0  0  0  0  0  0  0  0  0
    8.2426    1.8682    0.0000 H   0  0  0  0  0  0  0  0  0  0  0  0
    2.8660   -1.8246    0.0000 H   0  0  0  0  0  0  0  0  0  0  0  0
    2.8660   -5.0646    0.0000 H   0  0  0  0  0  0  0  0  0  0  0  0
    1.4631   -2.6346    0.0000 H   0  0  0  0  0  0  0  0  0  0  0  0
    1.4631   -4.2546    0.0000 H   0  0  0  0  0  0  0  0  0  0  0  0
   11.5382    2.6824    0.0000 H   0  0  0  0  0  0  0  0  0  0  0  0
    8.8711    3.5541    0.0000 H   0  0  0  0  0  0  0  0  0  0  0  0
   12.0414    4.2222    0.0000 H   0  0  0  0  0  0  0  0  0  0  0  0
    9.3744    5.0939    0.0000 H   0  0  0  0  0  0  0  0  0  0  0  0
   10.9595    5.4280    0.0000 H   0  0  0  0  0  0  0  0  0  0  0  0
  1 14  2  0  0  0  0
  2 19  2  0  0  0  0
  3  9  1  0  0  0  0
  3 10  1  0  0  0  0
  3 35  1  0  0  0  0
  4  8  1  0  0  0  0
  4 14  1  0  0  0  0
  4 36  1  0  0  0  0
  5  6  1  0  0  0  0
  5  7  1  0  0  0  0
  5 10  2  0  0  0  0
  6  8  1  0  0  0  0
  6 26  1  0  0  0  0
  6 27  1  0  0  0  0
  7  9  1  0  0  0  0
  7 15  2  0  0  0  0
  8 28  1  0  0  0  0
  8 29  1  0  0  0  0
  9 16  2  0  0  0  0
 10 30  1  0  0  0  0
 11 12  1  0  0  0  0
 11 13  1  0  0  0  0
 11 31  1  0  0  0  0
 11 32  1  0  0  0  0
 12 14  1  0  0  0  0
 12 33  1  0  0  0  0
 12 34  1  0  0  0  0
 13 19  1  0  0  0  0
 13 37  1  0  0  0  0
 13 38  1  0  0  0  0
 15 17  1  0  0  0  0
 15 39  1  0  0  0  0
 16 18  1  0  0  0  0
 16 40  1  0  0  0  0
 17 18  2  0  0  0  0
 17 41  1  0  0  0  0
 18 42  1  0  0  0  0
 19 20  1  0  0  0  0
 20 21  2  0  0  0  0
 20 22  1  0  0  0  0
 21 23  1  0  0  0  0
 21 43  1  0  0  0  0
 22 24  2  0  0  0  0
 22 44  1  0  0  0  0
 23 25  2  0  0  0  0
 23 45  1  0  0  0  0
 24 25  1  0  0  0  0
 24 46  1  0  0  0  0
 25 47  1  0  0  0  0
M  END
> <PUBCHEM_COMPOUND_CID>
44406799

> <PUBCHEM_COMPOUND_CANONICALIZED>
1

> <PUBCHEM_CACTVS_COMPLEXITY>
445

> <PUBCHEM_CACTVS_HBOND_ACCEPTOR>
2

> <PUBCHEM_CACTVS_HBOND_DONOR>
2

> <PUBCHEM_CACTVS_ROTATABLE_BOND>
8

> <PUBCHEM_CACTVS_SUBSKEYS>
AAADceB7MAAAAAAAAAAAAAAAAAAAAWAAAAAwYAAAAAAAAFgB9AAAHgAQAAAADAzBngQ8wPLJkACoA7V3VACCgCA1AiAI2aE4ZNgIIPLAlZGEIQhglgDIyYcYi8CugAAAAAACAAAAAAAAAAQAAAAAAAAAAA==

> <PUBCHEM_IUPAC_OPENEYE_NAME>
N-[2-(1H-indol-3-yl)ethyl]-5-oxo-5-phenyl-pentanamide

> <PUBCHEM_IUPAC_CAS_NAME>
N-[2-(1H-indol-3-yl)ethyl]-5-oxo-5-phenylpentanamide

> <PUBCHEM_IUPAC_NAME_MARKUP>
<I>N</I>-[2-(1<I>H</I>-indol-3-yl)ethyl]-5-oxo-5-phenylpentanamide

> <PUBCHEM_IUPAC_NAME>
N-[2-(1H-indol-3-yl)ethyl]-5-oxo-5-phenylpentanamide

> <PUBCHEM_IUPAC_SYSTEMATIC_NAME>
N-[2-(1H-indol-3-yl)ethyl]-5-oxidanylidene-5-phenyl-pentanamide

> <PUBCHEM_IUPAC_TRADITIONAL_NAME>
N-[2-(1H-indol-3-yl)ethyl]-5-keto-5-phenyl-valeramide

> <PUBCHEM_IUPAC_INCHI>
InChI=1S/C21H22N2O2/c24-20(16-7-2-1-3-8-16)11-6-12-21(25)22-14-13-17-15-23-19-10-5-4-9-18(17)19/h1-5,7-10,15,23H,6,11-14H2,(H,22,25)

> <PUBCHEM_IUPAC_INCHIKEY>
UBBCYDDYWOHYNA-UHFFFAOYSA-N

> <PUBCHEM_XLOGP3>
3.4

> <PUBCHEM_EXACT_MASS>
334.168127949

> <PUBCHEM_MOLECULAR_FORMULA>
C21H22N2O2

> <PUBCHEM_MOLECULAR_WEIGHT>
334.4

> <PUBCHEM_OPENEYE_CAN_SMILES>
C1=CC=C(C=C1)C(=O)CCCC(=O)NCCC2=CNC3=CC=CC=C32

> <PUBCHEM_OPENEYE_ISO_SMILES>
C1=CC=C(C=C1)C(=O)CCCC(=O)NCCC2=CNC3=CC=CC=C32

> <PUBCHEM_CACTVS_TPSA>
62

> <PUBCHEM_MONOISOTOPIC_WEIGHT>
334.168127949

> <PUBCHEM_TOTAL_CHARGE>
0

> <PUBCHEM_HEAVY_ATOM_COUNT>
25

> <PUBCHEM_ATOM_DEF_STEREO_COUNT>
0

> <PUBCHEM_ATOM_UDEF_STEREO_COUNT>
0

> <PUBCHEM_BOND_DEF_STEREO_COUNT>
0

> <PUBCHEM_BOND_UDEF_STEREO_COUNT>
0

> <PUBCHEM_ISOTOPIC_ATOM_COUNT>
0

> <PUBCHEM_COMPONENT_COUNT>
1

> <PUBCHEM_CACTVS_TAUTO_COUNT>
-1

> <PUBCHEM_COORDINATE_TYPE>
1
5
255

> <PUBCHEM_BONDANNOTATIONS>
15  17  8
16  18  8
17  18  8
20  21  8
20  22  8
21  23  8
22  24  8
23  25  8
24  25  8
3  10  8
3  9  8
5  10  8
5  7  8
7  15  8
7  9  8
9  16  8

$$$$
