44439401
  -OEChem-09292322492D

 54 57  0     0  0  0  0  0  0999 V2000
    2.0000    1.2671    0.0000 O   0  0  0  0  0  0  0  0  0  0  0  0
    2.0000   -0.7329    0.0000 O   0  0  0  0  0  0  0  0  0  0  0  0
   12.9673    0.6824    0.0000 O   0  0  0  0  0  0  0  0  0  0  0  0
   11.3230    1.2268    0.0000 O   0  0  0  0  0  0  0  0  0  0  0  0
    6.3981   -0.2537    0.0000 N   0  0  0  0  0  0  0  0  0  0  0  0
   11.6736   -0.4693    0.0000 N   0  0  0  0  0  0  0  0  0  0  0  0
    8.1301   -0.2604    0.0000 N   0  0  0  0  0  0  0  0  0  0  0  0
    5.4920    1.3017    0.0000 C   0  0  0  0  0  0  0  0  0  0  0  0
    6.3981    0.7879    0.0000 C   0  0  0  0  0  0  0  0  0  0  0  0
    5.4920   -0.7676    0.0000 C   0  0  0  0  0  0  0  0  0  0  0  0
    4.5981    0.7671    0.0000 C   0  0  0  0  0  0  0  0  0  0  0  0
    4.5981   -0.2329    0.0000 C   0  0  0  0  0  0  0  0  0  0  0  0
   11.6674   -2.0788    0.0000 C   0  0  0  0  0  0  0  0  0  0  0  0
   12.2541   -1.2763    0.0000 C   0  0  0  0  0  0  0  0  0  0  0  0
   10.7224   -1.7704    0.0000 C   0  0  0  0  0  0  0  0  0  0  0  0
   10.7263   -0.7704    0.0000 C   0  0  0  0  0  0  0  0  0  0  0  0
    3.7320    1.2671    0.0000 C   0  0  0  0  0  0  0  0  0  0  0  0
    3.7320   -0.7329    0.0000 C   0  0  0  0  0  0  0  0  0  0  0  0
    9.8622   -0.2671    0.0000 C   0  0  0  0  0  0  0  0  0  0  0  0
    7.2622   -0.7571    0.0000 C   0  0  0  0  0  0  0  0  0  0  0  0
    9.8544   -2.2671    0.0000 C   0  0  0  0  0  0  0  0  0  0  0  0
    8.9942   -0.7638    0.0000 C   0  0  0  0  0  0  0  0  0  0  0  0
    2.8660    0.7671    0.0000 C   0  0  0  0  0  0  0  0  0  0  0  0
    2.8660   -0.2329    0.0000 C   0  0  0  0  0  0  0  0  0  0  0  0
    8.9904   -1.7637    0.0000 C   0  0  0  0  0  0  0  0  0  0  0  0
   11.9880    0.4800    0.0000 C   0  0  0  0  0  0  0  0  0  0  0  0
    2.0000    2.2671    0.0000 C   0  0  0  0  0  0  0  0  0  0  0  0
    2.0000   -1.7329    0.0000 C   0  0  0  0  0  0  0  0  0  0  0  0
   13.2816    1.6317    0.0000 C   0  0  0  0  0  0  0  0  0  0  0  0
    5.8856    1.7808    0.0000 H   0  0  0  0  0  0  0  0  0  0  0  0
    5.0874    1.7715    0.0000 H   0  0  0  0  0  0  0  0  0  0  0  0
    7.0089    0.6818    0.0000 H   0  0  0  0  0  0  0  0  0  0  0  0
    6.6071    1.3716    0.0000 H   0  0  0  0  0  0  0  0  0  0  0  0
    5.0874   -1.2374    0.0000 H   0  0  0  0  0  0  0  0  0  0  0  0
    5.8856   -1.2466    0.0000 H   0  0  0  0  0  0  0  0  0  0  0  0
   11.4142   -2.6447    0.0000 H   0  0  0  0  0  0  0  0  0  0  0  0
   12.2036   -2.3901    0.0000 H   0  0  0  0  0  0  0  0  0  0  0  0
   12.7134   -1.6928    0.0000 H   0  0  0  0  0  0  0  0  0  0  0  0
   12.7166   -0.8634    0.0000 H   0  0  0  0  0  0  0  0  0  0  0  0
    3.7320    1.8871    0.0000 H   0  0  0  0  0  0  0  0  0  0  0  0
    3.7320   -1.3529    0.0000 H   0  0  0  0  0  0  0  0  0  0  0  0
    9.8646    0.3529    0.0000 H   0  0  0  0  0  0  0  0  0  0  0  0
    7.2598   -1.3771    0.0000 H   0  0  0  0  0  0  0  0  0  0  0  0
    9.8521   -2.8871    0.0000 H   0  0  0  0  0  0  0  0  0  0  0  0
    8.4522   -2.0717    0.0000 H   0  0  0  0  0  0  0  0  0  0  0  0
    2.6200    2.2671    0.0000 H   0  0  0  0  0  0  0  0  0  0  0  0
    2.0000    2.8871    0.0000 H   0  0  0  0  0  0  0  0  0  0  0  0
    1.3800    2.2671    0.0000 H   0  0  0  0  0  0  0  0  0  0  0  0
    1.3800   -1.7329    0.0000 H   0  0  0  0  0  0  0  0  0  0  0  0
    2.0000   -2.3529    0.0000 H   0  0  0  0  0  0  0  0  0  0  0  0
    2.6200   -1.7329    0.0000 H   0  0  0  0  0  0  0  0  0  0  0  0
   13.8702    1.4368    0.0000 H   0  0  0  0  0  0  0  0  0  0  0  0
   13.4765    2.2203    0.0000 H   0  0  0  0  0  0  0  0  0  0  0  0
   12.6930    1.8266    0.0000 H   0  0  0  0  0  0  0  0  0  0  0  0
  1 23  1  0  0  0  0
  1 27  1  0  0  0  0
  2 24  1  0  0  0  0
  2 28  1  0  0  0  0
  3 26  1  0  0  0  0
  3 29  1  0  0  0  0
  4 26  2  0  0  0  0
  5  9  1  0  0  0  0
  5 10  1  0  0  0  0
  5 20  1  0  0  0  0
  6 14  1  0  0  0  0
  6 16  1  0  0  0  0
  6 26  1  0  0  0  0
  7 20  2  0  0  0  0
  7 22  1  0  0  0  0
  8  9  1  0  0  0  0
  8 11  1  0  0  0  0
  8 30  1  0  0  0  0
  8 31  1  0  0  0  0
  9 32  1  0  0  0  0
  9 33  1  0  0  0  0
 10 12  1  0  0  0  0
 10 34  1  0  0  0  0
 10 35  1  0  0  0  0
 11 12  1  0  0  0  0
 11 17  2  0  0  0  0
 12 18  2  0  0  0  0
 13 14  1  0  0  0  0
 13 15  1  0  0  0  0
 13 36  1  0  0  0  0
 13 37  1  0  0  0  0
 14 38  1  0  0  0  0
 14 39  1  0  0  0  0
 15 16  2  0  0  0  0
 15 21  1  0  0  0  0
 16 19  1  0  0  0  0
 17 23  1  0  0  0  0
 17 40  1  0  0  0  0
 18 24  1  0  0  0  0
 18 41  1  0  0  0  0
 19 22  2  0  0  0  0
 19 42  1  0  0  0  0
 20 43  1  0  0  0  0
 21 25  2  0  0  0  0
 21 44  1  0  0  0  0
 22 25  1  0  0  0  0
 23 24  2  0  0  0  0
 25 45  1  0  0  0  0
 27 46  1  0  0  0  0
 27 47  1  0  0  0  0
 27 48  1  0  0  0  0
 28 49  1  0  0  0  0
 28 50  1  0  0  0  0
 28 51  1  0  0  0  0
 29 52  1  0  0  0  0
 29 53  1  0  0  0  0
 29 54  1  0  0  0  0
M  END
> <PUBCHEM_COMPOUND_CID>
44439401

> <PUBCHEM_COMPOUND_CANONICALIZED>
1

> <PUBCHEM_CACTVS_COMPLEXITY>
601

> <PUBCHEM_CACTVS_HBOND_ACCEPTOR>
5

> <PUBCHEM_CACTVS_HBOND_DONOR>
0

> <PUBCHEM_CACTVS_ROTATABLE_BOND>
5

> <PUBCHEM_CACTVS_SUBSKEYS>
AAADceB7OAAAAAAAAAAAAAAAAAAAAWAAAAA8YIAAAAAAAFixQAAAHgAAAAAADAzBmAYzzoMABACoAiRDfACCCAEhIgAJiAAO7IgNJiLE+duEMCpkxhHK6Aew0LIOqAABAAQSQABQAAIACCSAAAAAAAAAAA==

> <PUBCHEM_IUPAC_OPENEYE_NAME>
methyl 6-[(6,7-dimethoxy-3,4-dihydro-1H-isoquinolin-2-yl)methyleneamino]indoline-1-carboxylate

> <PUBCHEM_IUPAC_CAS_NAME>
6-[(6,7-dimethoxy-3,4-dihydro-1H-isoquinolin-2-yl)methylideneamino]-2,3-dihydroindole-1-carboxylic acid methyl ester

> <PUBCHEM_IUPAC_NAME_MARKUP>
methyl 6-[(6,7-dimethoxy-3,4-dihydro-1<I>H</I>-isoquinolin-2-yl)methylideneamino]-2,3-dihydroindole-1-carboxylate

> <PUBCHEM_IUPAC_NAME>
methyl 6-[(6,7-dimethoxy-3,4-dihydro-1H-isoquinolin-2-yl)methylideneamino]-2,3-dihydroindole-1-carboxylate

> <PUBCHEM_IUPAC_SYSTEMATIC_NAME>
methyl 6-[(6,7-dimethoxy-3,4-dihydro-1H-isoquinolin-2-yl)methylideneamino]-2,3-dihydroindole-1-carboxylate

> <PUBCHEM_IUPAC_TRADITIONAL_NAME>
6-[(6,7-dimethoxy-3,4-dihydro-1H-isoquinolin-2-yl)methyleneamino]indoline-1-carboxylic acid methyl ester

> <PUBCHEM_IUPAC_INCHI>
InChI=1S/C22H25N3O4/c1-27-20-10-16-6-8-24(13-17(16)11-21(20)28-2)14-23-18-5-4-15-7-9-25(19(15)12-18)22(26)29-3/h4-5,10-12,14H,6-9,13H2,1-3H3

> <PUBCHEM_IUPAC_INCHIKEY>
SHARLZVPHXBHLQ-UHFFFAOYSA-N

> <PUBCHEM_XLOGP3_AA>
2.8

> <PUBCHEM_EXACT_MASS>
395.18450629

> <PUBCHEM_MOLECULAR_FORMULA>
C22H25N3O4

> <PUBCHEM_MOLECULAR_WEIGHT>
395.5

> <PUBCHEM_OPENEYE_CAN_SMILES>
COC1=C(C=C2CN(CCC2=C1)C=NC3=CC4=C(CCN4C(=O)OC)C=C3)OC

> <PUBCHEM_OPENEYE_ISO_SMILES>
COC1=C(C=C2CN(CCC2=C1)C=NC3=CC4=C(CCN4C(=O)OC)C=C3)OC

> <PUBCHEM_CACTVS_TPSA>
63.6

> <PUBCHEM_MONOISOTOPIC_WEIGHT>
395.18450629

> <PUBCHEM_TOTAL_CHARGE>
0

> <PUBCHEM_HEAVY_ATOM_COUNT>
29

> <PUBCHEM_ATOM_DEF_STEREO_COUNT>
0

> <PUBCHEM_ATOM_UDEF_STEREO_COUNT>
0

> <PUBCHEM_BOND_DEF_STEREO_COUNT>
0

> <PUBCHEM_BOND_UDEF_STEREO_COUNT>
0

> <PUBCHEM_ISOTOPIC_ATOM_COUNT>
0

> <PUBCHEM_COMPONENT_COUNT>
1

> <PUBCHEM_CACTVS_TAUTO_COUNT>
-1

> <PUBCHEM_COORDINATE_TYPE>
1
5
255

> <PUBCHEM_BONDANNOTATIONS>
11  12  8
11  17  8
12  18  8
15  16  8
15  21  8
16  19  8
17  23  8
18  24  8
19  22  8
21  25  8
22  25  8
23  24  8

$$$$
