44537925
  -OEChem-09292322042D

 94 99  0     1  0  0  0  0  0999 V2000
   20.4064    0.7457    0.0000 O   0  0  0  0  0  0  0  0  0  0  0  0
   20.4064   -1.3026    0.0000 O   0  0  0  0  0  0  0  0  0  0  0  0
    3.1226   -0.7863    0.0000 O   0  0  0  0  0  0  0  0  0  0  0  0
   15.5517   -0.2784    0.0000 N   0  0  3  0  0  0  0  0  0  0  0  0
    6.5677   -1.1484    0.0000 N   0  0  0  0  0  0  0  0  0  0  0  0
    4.7406   -1.9618    0.0000 N   0  0  0  0  0  0  0  0  0  0  0  0
   10.0129   -1.5105    0.0000 N   0  0  0  0  0  0  0  0  0  0  0  0
   10.9639   -2.8195    0.0000 N   0  0  0  0  0  0  0  0  0  0  0  0
   10.0129   -2.5105    0.0000 N   0  0  0  0  0  0  0  0  0  0  0  0
   16.9605    0.8451    0.0000 C   0  0  3  0  0  0  0  0  0  0  0  0
   15.9856    0.6225    0.0000 C   0  0  0  0  0  0  0  0  0  0  0  0
   15.9856   -1.1794    0.0000 C   0  0  0  0  0  0  0  0  0  0  0  0
   17.7423    0.2216    0.0000 C   0  0  0  0  0  0  0  0  0  0  0  0
   16.9605   -1.4019    0.0000 C   0  0  0  0  0  0  0  0  0  0  0  0
   14.5517   -0.2784    0.0000 C   0  0  0  0  0  0  0  0  0  0  0  0
   17.7423   -0.7784    0.0000 C   0  0  0  0  0  0  0  0  0  0  0  0
   17.1830    1.8200    0.0000 C   0  0  0  0  0  0  0  0  0  0  0  0
   14.0517   -1.1444    0.0000 C   0  0  0  0  0  0  0  0  0  0  0  0
    5.7587   -0.5606    0.0000 C   0  0  0  0  0  0  0  0  0  0  0  0
    6.4632   -2.1429    0.0000 C   0  0  0  0  0  0  0  0  0  0  0  0
    4.8452   -0.9673    0.0000 C   0  0  0  0  0  0  0  0  0  0  0  0
    5.5496   -2.5496    0.0000 C   0  0  0  0  0  0  0  0  0  0  0  0
    7.4813   -0.7416    0.0000 C   0  0  0  0  0  0  0  0  0  0  0  0
   13.0517   -1.1444    0.0000 C   0  0  0  0  0  0  0  0  0  0  0  0
   18.6363    0.7562    0.0000 C   0  0  0  0  0  0  0  0  0  0  0  0
   18.6363   -1.3131    0.0000 C   0  0  0  0  0  0  0  0  0  0  0  0
    8.2903   -1.3294    0.0000 C   0  0  0  0  0  0  0  0  0  0  0  0
   12.5517   -2.0105    0.0000 C   0  0  0  0  0  0  0  0  0  0  0  0
   18.1386    2.1148    0.0000 C   0  0  0  0  0  0  0  0  0  0  0  0
   16.4500    2.5002    0.0000 C   0  0  0  0  0  0  0  0  0  0  0  0
    9.2038   -0.9227    0.0000 C   0  0  0  0  0  0  0  0  0  0  0  0
   19.5423    0.2424    0.0000 C   0  0  0  0  0  0  0  0  0  0  0  0
    3.8271   -2.3686    0.0000 C   0  0  0  0  0  0  0  0  0  0  0  0
   19.5423   -0.7992    0.0000 C   0  0  0  0  0  0  0  0  0  0  0  0
   11.5517   -2.0105    0.0000 C   0  0  0  0  0  0  0  0  0  0  0  0
   18.3611    3.0897    0.0000 C   0  0  0  0  0  0  0  0  0  0  0  0
   16.6725    3.4751    0.0000 C   0  0  0  0  0  0  0  0  0  0  0  0
   10.9639   -1.2015    0.0000 C   0  0  0  0  0  0  0  0  0  0  0  0
    3.0181   -1.7808    0.0000 C   0  0  0  0  0  0  0  0  0  0  0  0
   17.6281    3.7698    0.0000 C   0  0  0  0  0  0  0  0  0  0  0  0
    3.7226   -3.3631    0.0000 C   0  0  0  0  0  0  0  0  0  0  0  0
   19.3167    3.3844    0.0000 C   0  0  0  0  0  0  0  0  0  0  0  0
    2.1045   -2.1875    0.0000 C   0  0  0  0  0  0  0  0  0  0  0  0
    2.8090   -3.7698    0.0000 C   0  0  0  0  0  0  0  0  0  0  0  0
    2.0000   -3.1821    0.0000 C   0  0  0  0  0  0  0  0  0  0  0  0
    2.3136   -0.1985    0.0000 C   0  0  0  0  0  0  0  0  0  0  0  0
   16.5221    1.2835    0.0000 H   0  0  0  0  0  0  0  0  0  0  0  0
   15.9856    1.2425    0.0000 H   0  0  0  0  0  0  0  0  0  0  0  0
   15.3811    0.7605    0.0000 H   0  0  0  0  0  0  0  0  0  0  0  0
   15.3811   -1.3174    0.0000 H   0  0  0  0  0  0  0  0  0  0  0  0
   15.9856   -1.7994    0.0000 H   0  0  0  0  0  0  0  0  0  0  0  0
   16.6915   -1.9605    0.0000 H   0  0  0  0  0  0  0  0  0  0  0  0
   17.4452   -1.7885    0.0000 H   0  0  0  0  0  0  0  0  0  0  0  0
   14.6594    0.3322    0.0000 H   0  0  0  0  0  0  0  0  0  0  0  0
   13.9691   -0.0664    0.0000 H   0  0  0  0  0  0  0  0  0  0  0  0
   13.9440   -1.7550    0.0000 H   0  0  0  0  0  0  0  0  0  0  0  0
   14.6343   -1.3565    0.0000 H   0  0  0  0  0  0  0  0  0  0  0  0
    6.2047   -0.1299    0.0000 H   0  0  0  0  0  0  0  0  0  0  0  0
    5.4120   -0.0466    0.0000 H   0  0  0  0  0  0  0  0  0  0  0  0
    6.6132   -2.7445    0.0000 H   0  0  0  0  0  0  0  0  0  0  0  0
    7.0817   -2.0996    0.0000 H   0  0  0  0  0  0  0  0  0  0  0  0
    4.6952   -0.3657    0.0000 H   0  0  0  0  0  0  0  0  0  0  0  0
    4.2267   -1.0106    0.0000 H   0  0  0  0  0  0  0  0  0  0  0  0
    5.1037   -2.9803    0.0000 H   0  0  0  0  0  0  0  0  0  0  0  0
    5.8964   -3.0636    0.0000 H   0  0  0  0  0  0  0  0  0  0  0  0
    7.9273   -0.3110    0.0000 H   0  0  0  0  0  0  0  0  0  0  0  0
    7.1346   -0.2276    0.0000 H   0  0  0  0  0  0  0  0  0  0  0  0
   13.1594   -0.5339    0.0000 H   0  0  0  0  0  0  0  0  0  0  0  0
   12.4691   -0.9324    0.0000 H   0  0  0  0  0  0  0  0  0  0  0  0
   18.6291    1.3762    0.0000 H   0  0  0  0  0  0  0  0  0  0  0  0
   18.6291   -1.9330    0.0000 H   0  0  0  0  0  0  0  0  0  0  0  0
    7.8443   -1.7601    0.0000 H   0  0  0  0  0  0  0  0  0  0  0  0
    8.6370   -1.8434    0.0000 H   0  0  0  0  0  0  0  0  0  0  0  0
   12.4440   -2.6211    0.0000 H   0  0  0  0  0  0  0  0  0  0  0  0
   13.1343   -2.2225    0.0000 H   0  0  0  0  0  0  0  0  0  0  0  0
   18.5931    1.6930    0.0000 H   0  0  0  0  0  0  0  0  0  0  0  0
   15.8575    2.3174    0.0000 H   0  0  0  0  0  0  0  0  0  0  0  0
    9.6498   -0.4920    0.0000 H   0  0  0  0  0  0  0  0  0  0  0  0
    8.8571   -0.4087    0.0000 H   0  0  0  0  0  0  0  0  0  0  0  0
   16.2180    3.8968    0.0000 H   0  0  0  0  0  0  0  0  0  0  0  0
   11.1555   -0.6118    0.0000 H   0  0  0  0  0  0  0  0  0  0  0  0
   17.7660    4.3743    0.0000 H   0  0  0  0  0  0  0  0  0  0  0  0
    4.2242   -3.7275    0.0000 H   0  0  0  0  0  0  0  0  0  0  0  0
   19.4994    2.7920    0.0000 H   0  0  0  0  0  0  0  0  0  0  0  0
   19.9091    3.5672    0.0000 H   0  0  0  0  0  0  0  0  0  0  0  0
   19.1339    3.9769    0.0000 H   0  0  0  0  0  0  0  0  0  0  0  0
   20.9446    0.4378    0.0000 H   0  0  0  0  0  0  0  0  0  0  0  0
   20.4040   -1.9226    0.0000 H   0  0  0  0  0  0  0  0  0  0  0  0
    1.6029   -1.8231    0.0000 H   0  0  0  0  0  0  0  0  0  0  0  0
    2.7442   -4.3864    0.0000 H   0  0  0  0  0  0  0  0  0  0  0  0
    1.4336   -3.4342    0.0000 H   0  0  0  0  0  0  0  0  0  0  0  0
    2.6780    0.3031    0.0000 H   0  0  0  0  0  0  0  0  0  0  0  0
    1.8120    0.1659    0.0000 H   0  0  0  0  0  0  0  0  0  0  0  0
    1.9492   -0.7001    0.0000 H   0  0  0  0  0  0  0  0  0  0  0  0
  1 32  1  0  0  0  0
  1 87  1  0  0  0  0
  2 34  1  0  0  0  0
  2 88  1  0  0  0  0
  3 39  1  0  0  0  0
  3 46  1  0  0  0  0
  4 11  1  0  0  0  0
  4 12  1  0  0  0  0
  4 15  1  0  0  0  0
  5 19  1  0  0  0  0
  5 20  1  0  0  0  0
  5 23  1  0  0  0  0
  6 21  1  0  0  0  0
  6 22  1  0  0  0  0
  6 33  1  0  0  0  0
  7  9  1  0  0  0  0
  7 31  1  0  0  0  0
  7 38  1  0  0  0  0
  8  9  2  0  0  0  0
  8 35  1  0  0  0  0
 10 11  1  0  0  0  0
 10 13  1  0  0  0  0
 10 17  1  0  0  0  0
 10 47  1  0  0  0  0
 11 48  1  0  0  0  0
 11 49  1  0  0  0  0
 12 14  1  0  0  0  0
 12 50  1  0  0  0  0
 12 51  1  0  0  0  0
 13 16  1  0  0  0  0
 13 25  2  0  0  0  0
 14 16  1  0  0  0  0
 14 52  1  0  0  0  0
 14 53  1  0  0  0  0
 15 18  1  0  0  0  0
 15 54  1  0  0  0  0
 15 55  1  0  0  0  0
 16 26  2  0  0  0  0
 17 29  1  0  0  0  0
 17 30  2  0  0  0  0
 18 24  1  0  0  0  0
 18 56  1  0  0  0  0
 18 57  1  0  0  0  0
 19 21  1  0  0  0  0
 19 58  1  0  0  0  0
 19 59  1  0  0  0  0
 20 22  1  0  0  0  0
 20 60  1  0  0  0  0
 20 61  1  0  0  0  0
 21 62  1  0  0  0  0
 21 63  1  0  0  0  0
 22 64  1  0  0  0  0
 22 65  1  0  0  0  0
 23 27  1  0  0  0  0
 23 66  1  0  0  0  0
 23 67  1  0  0  0  0
 24 28  1  0  0  0  0
 24 68  1  0  0  0  0
 24 69  1  0  0  0  0
 25 32  1  0  0  0  0
 25 70  1  0  0  0  0
 26 34  1  0  0  0  0
 26 71  1  0  0  0  0
 27 31  1  0  0  0  0
 27 72  1  0  0  0  0
 27 73  1  0  0  0  0
 28 35  1  0  0  0  0
 28 74  1  0  0  0  0
 28 75  1  0  0  0  0
 29 36  2  0  0  0  0
 29 76  1  0  0  0  0
 30 37  1  0  0  0  0
 30 77  1  0  0  0  0
 31 78  1  0  0  0  0
 31 79  1  0  0  0  0
 32 34  2  0  0  0  0
 33 39  1  0  0  0  0
 33 41  2  0  0  0  0
 35 38  2  0  0  0  0
 36 40  1  0  0  0  0
 36 42  1  0  0  0  0
 37 40  2  0  0  0  0
 37 80  1  0  0  0  0
 38 81  1  0  0  0  0
 39 43  2  0  0  0  0
 40 82  1  0  0  0  0
 41 44  1  0  0  0  0
 41 83  1  0  0  0  0
 42 84  1  0  0  0  0
 42 85  1  0  0  0  0
 42 86  1  0  0  0  0
 43 45  1  0  0  0  0
 43 89  1  0  0  0  0
 44 45  2  0  0  0  0
 44 90  1  0  0  0  0
 45 91  1  0  0  0  0
 46 92  1  0  0  0  0
 46 93  1  0  0  0  0
 46 94  1  0  0  0  0
M  END
> <PUBCHEM_COMPOUND_CID>
44537925

> <PUBCHEM_COMPOUND_CANONICALIZED>
1

> <PUBCHEM_CACTVS_COMPLEXITY>
891

> <PUBCHEM_CACTVS_HBOND_ACCEPTOR>
8

> <PUBCHEM_CACTVS_HBOND_DONOR>
2

> <PUBCHEM_CACTVS_ROTATABLE_BOND>
12

> <PUBCHEM_CACTVS_SUBSKEYS>
AAADcfB/sAAAAAAAAAAAAAAAAAAAAWAAAAA8YMEABYAAAAAB1AAAHgAICAAADQzBngY+xpMIBgCiAzRnRACCDAQxsgAY2AA//IgPZiLG8ZuVcClkwBHZ+AeQ0PIOoAADAAAQUABAAAYAACCgAAAAAAAAAA==

> <PUBCHEM_IUPAC_OPENEYE_NAME>
3-[4-[1-[3-[4-(2-methoxyphenyl)piperazin-1-yl]propyl]triazol-4-yl]butyl]-5-(m-tolyl)-1,2,4,5-tetrahydro-3-benzazepine-7,8-diol

> <PUBCHEM_IUPAC_CAS_NAME>
3-[4-[1-[3-[4-(2-methoxyphenyl)-1-piperazinyl]propyl]-4-triazolyl]butyl]-5-(3-methylphenyl)-1,2,4,5-tetrahydro-3-benzazepine-7,8-diol

> <PUBCHEM_IUPAC_NAME_MARKUP>
3-[4-[1-[3-[4-(2-methoxyphenyl)piperazin-1-yl]propyl]triazol-4-yl]butyl]-5-(3-methylphenyl)-1,2,4,5-tetrahydro-3-benzazepine-7,8-diol

> <PUBCHEM_IUPAC_NAME>
3-[4-[1-[3-[4-(2-methoxyphenyl)piperazin-1-yl]propyl]triazol-4-yl]butyl]-5-(3-methylphenyl)-1,2,4,5-tetrahydro-3-benzazepine-7,8-diol

> <PUBCHEM_IUPAC_SYSTEMATIC_NAME>
3-[4-[1-[3-[4-(2-methoxyphenyl)piperazin-1-yl]propyl]-1,2,3-triazol-4-yl]butyl]-5-(3-methylphenyl)-1,2,4,5-tetrahydro-3-benzazepine-7,8-diol

> <PUBCHEM_IUPAC_TRADITIONAL_NAME>
3-[4-[1-[3-[4-(2-methoxyphenyl)piperazino]propyl]triazol-4-yl]butyl]-5-(m-tolyl)-1,2,4,5-tetrahydro-3-benzazepine-7,8-diol

> <PUBCHEM_IUPAC_INCHI>
InChI=1S/C37H48N6O3/c1-28-9-7-10-29(23-28)33-27-41(18-14-30-24-35(44)36(45)25-32(30)33)15-6-5-11-31-26-43(39-38-31)17-8-16-40-19-21-42(22-20-40)34-12-3-4-13-37(34)46-2/h3-4,7,9-10,12-13,23-26,33,44-45H,5-6,8,11,14-22,27H2,1-2H3

> <PUBCHEM_IUPAC_INCHIKEY>
JQGRSOUGXXQUQI-UHFFFAOYSA-N

> <PUBCHEM_XLOGP3_AA>
5.7

> <PUBCHEM_EXACT_MASS>
624.37878941

> <PUBCHEM_MOLECULAR_FORMULA>
C37H48N6O3

> <PUBCHEM_MOLECULAR_WEIGHT>
624.8

> <PUBCHEM_OPENEYE_CAN_SMILES>
CC1=CC(=CC=C1)C2CN(CCC3=CC(=C(C=C23)O)O)CCCCC4=CN(N=N4)CCCN5CCN(CC5)C6=CC=CC=C6OC

> <PUBCHEM_OPENEYE_ISO_SMILES>
CC1=CC(=CC=C1)C2CN(CCC3=CC(=C(C=C23)O)O)CCCCC4=CN(N=N4)CCCN5CCN(CC5)C6=CC=CC=C6OC

> <PUBCHEM_CACTVS_TPSA>
90.1

> <PUBCHEM_MONOISOTOPIC_WEIGHT>
624.37878941

> <PUBCHEM_TOTAL_CHARGE>
0

> <PUBCHEM_HEAVY_ATOM_COUNT>
46

> <PUBCHEM_ATOM_DEF_STEREO_COUNT>
0

> <PUBCHEM_ATOM_UDEF_STEREO_COUNT>
1

> <PUBCHEM_BOND_DEF_STEREO_COUNT>
0

> <PUBCHEM_BOND_UDEF_STEREO_COUNT>
0

> <PUBCHEM_ISOTOPIC_ATOM_COUNT>
0

> <PUBCHEM_COMPONENT_COUNT>
1

> <PUBCHEM_CACTVS_TAUTO_COUNT>
-1

> <PUBCHEM_COORDINATE_TYPE>
1
5
255

> <PUBCHEM_BONDANNOTATIONS>
10  17  3
13  16  8
13  25  8
16  26  8
17  29  8
17  30  8
25  32  8
26  34  8
29  36  8
30  37  8
32  34  8
33  39  8
33  41  8
35  38  8
36  40  8
37  40  8
39  43  8
41  44  8
43  45  8
44  45  8
7  38  8
7  9  8
8  35  8
8  9  8

$$$$
