71724978
  -OEChem-09292322012D

 52 55  0     0  0  0  0  0  0999 V2000
   11.4939    2.4291    0.0000 O   0  0  0  0  0  0  0  0  0  0  0  0
    8.4939   -2.7671    0.0000 O   0  0  0  0  0  0  0  0  0  0  0  0
    2.8660   -0.9010    0.0000 O   0  0  0  0  0  0  0  0  0  0  0  0
    9.4939    0.6970    0.0000 N   0  0  0  0  0  0  0  0  0  0  0  0
    8.4939   -1.0350    0.0000 N   0  0  0  0  0  0  0  0  0  0  0  0
    6.4103   -2.7058    0.0000 N   0  0  0  0  0  0  0  0  0  0  0  0
   13.9939    1.5630    0.0000 N   0  0  0  0  0  0  0  0  0  0  0  0
    8.4939    0.6970    0.0000 C   0  0  0  0  0  0  0  0  0  0  0  0
    9.9939   -0.1690    0.0000 C   0  0  0  0  0  0  0  0  0  0  0  0
    7.9939   -0.1690    0.0000 C   0  0  0  0  0  0  0  0  0  0  0  0
    9.4939   -1.0350    0.0000 C   0  0  0  0  0  0  0  0  0  0  0  0
    9.9939    1.5630    0.0000 C   0  0  0  0  0  0  0  0  0  0  0  0
    7.9939   -1.9010    0.0000 C   0  0  0  0  0  0  0  0  0  0  0  0
   10.9939    1.5630    0.0000 C   0  0  0  0  0  0  0  0  0  0  0  0
    6.9939   -1.9010    0.0000 C   0  0  0  0  0  0  0  0  0  0  0  0
    6.4103   -1.0963    0.0000 C   0  0  0  0  0  0  0  0  0  0  0  0
    5.4641   -1.4010    0.0000 C   0  0  0  0  0  0  0  0  0  0  0  0
    5.4641   -2.4010    0.0000 C   0  0  0  0  0  0  0  0  0  0  0  0
    4.5981   -0.9010    0.0000 C   0  0  0  0  0  0  0  0  0  0  0  0
    4.5981   -2.9010    0.0000 C   0  0  0  0  0  0  0  0  0  0  0  0
    3.7320   -1.4010    0.0000 C   0  0  0  0  0  0  0  0  0  0  0  0
    3.7320   -2.4010    0.0000 C   0  0  0  0  0  0  0  0  0  0  0  0
   12.4939    2.4291    0.0000 C   0  0  0  0  0  0  0  0  0  0  0  0
   12.9939    3.2951    0.0000 C   0  0  0  0  0  0  0  0  0  0  0  0
   12.9939    1.5630    0.0000 C   0  0  0  0  0  0  0  0  0  0  0  0
   13.9939    3.2951    0.0000 C   0  0  0  0  0  0  0  0  0  0  0  0
    2.0000   -1.4010    0.0000 C   0  0  0  0  0  0  0  0  0  0  0  0
   14.4939    2.4291    0.0000 C   0  0  0  0  0  0  0  0  0  0  0  0
    8.6016    1.3076    0.0000 H   0  0  0  0  0  0  0  0  0  0  0  0
    7.9113    0.9091    0.0000 H   0  0  0  0  0  0  0  0  0  0  0  0
   10.4689   -0.5675    0.0000 H   0  0  0  0  0  0  0  0  0  0  0  0
   10.4689    0.2295    0.0000 H   0  0  0  0  0  0  0  0  0  0  0  0
    7.5190    0.2295    0.0000 H   0  0  0  0  0  0  0  0  0  0  0  0
    7.5190   -0.5675    0.0000 H   0  0  0  0  0  0  0  0  0  0  0  0
    9.3863   -1.6456    0.0000 H   0  0  0  0  0  0  0  0  0  0  0  0
   10.0765   -1.2471    0.0000 H   0  0  0  0  0  0  0  0  0  0  0  0
   10.1016    2.1736    0.0000 H   0  0  0  0  0  0  0  0  0  0  0  0
    9.4113    1.7751    0.0000 H   0  0  0  0  0  0  0  0  0  0  0  0
   10.8863    0.9525    0.0000 H   0  0  0  0  0  0  0  0  0  0  0  0
   11.5765    1.3510    0.0000 H   0  0  0  0  0  0  0  0  0  0  0  0
    6.6029   -0.5070    0.0000 H   0  0  0  0  0  0  0  0  0  0  0  0
    6.6029   -3.2951    0.0000 H   0  0  0  0  0  0  0  0  0  0  0  0
    4.5981   -0.2810    0.0000 H   0  0  0  0  0  0  0  0  0  0  0  0
    4.5981   -3.5210    0.0000 H   0  0  0  0  0  0  0  0  0  0  0  0
    3.1951   -2.7110    0.0000 H   0  0  0  0  0  0  0  0  0  0  0  0
   12.6839    3.8320    0.0000 H   0  0  0  0  0  0  0  0  0  0  0  0
   12.6839    1.0261    0.0000 H   0  0  0  0  0  0  0  0  0  0  0  0
   14.3039    3.8320    0.0000 H   0  0  0  0  0  0  0  0  0  0  0  0
    1.6900   -0.8641    0.0000 H   0  0  0  0  0  0  0  0  0  0  0  0
    1.4631   -1.7110    0.0000 H   0  0  0  0  0  0  0  0  0  0  0  0
    2.3100   -1.9380    0.0000 H   0  0  0  0  0  0  0  0  0  0  0  0
   15.1139    2.4291    0.0000 H   0  0  0  0  0  0  0  0  0  0  0  0
  1 14  1  0  0  0  0
  1 23  1  0  0  0  0
  2 13  2  0  0  0  0
  3 21  1  0  0  0  0
  3 27  1  0  0  0  0
  4  8  1  0  0  0  0
  4  9  1  0  0  0  0
  4 12  1  0  0  0  0
  5 10  1  0  0  0  0
  5 11  1  0  0  0  0
  5 13  1  0  0  0  0
  6 15  1  0  0  0  0
  6 18  1  0  0  0  0
  6 42  1  0  0  0  0
  7 25  1  0  0  0  0
  7 28  2  0  0  0  0
  8 10  1  0  0  0  0
  8 29  1  0  0  0  0
  8 30  1  0  0  0  0
  9 11  1  0  0  0  0
  9 31  1  0  0  0  0
  9 32  1  0  0  0  0
 10 33  1  0  0  0  0
 10 34  1  0  0  0  0
 11 35  1  0  0  0  0
 11 36  1  0  0  0  0
 12 14  1  0  0  0  0
 12 37  1  0  0  0  0
 12 38  1  0  0  0  0
 13 15  1  0  0  0  0
 14 39  1  0  0  0  0
 14 40  1  0  0  0  0
 15 16  2  0  0  0  0
 16 17  1  0  0  0  0
 16 41  1  0  0  0  0
 17 18  2  0  0  0  0
 17 19  1  0  0  0  0
 18 20  1  0  0  0  0
 19 21  2  0  0  0  0
 19 43  1  0  0  0  0
 20 22  2  0  0  0  0
 20 44  1  0  0  0  0
 21 22  1  0  0  0  0
 22 45  1  0  0  0  0
 23 24  1  0  0  0  0
 23 25  2  0  0  0  0
 24 26  2  0  0  0  0
 24 46  1  0  0  0  0
 25 47  1  0  0  0  0
 26 28  1  0  0  0  0
 26 48  1  0  0  0  0
 27 49  1  0  0  0  0
 27 50  1  0  0  0  0
 27 51  1  0  0  0  0
 28 52  1  0  0  0  0
M  END
> <PUBCHEM_COMPOUND_CID>
71724978

> <PUBCHEM_COMPOUND_CANONICALIZED>
1

> <PUBCHEM_CACTVS_COMPLEXITY>
512

> <PUBCHEM_CACTVS_HBOND_ACCEPTOR>
5

> <PUBCHEM_CACTVS_HBOND_DONOR>
1

> <PUBCHEM_CACTVS_ROTATABLE_BOND>
6

> <PUBCHEM_CACTVS_SUBSKEYS>
AAADceB7sAAAAAAAAAAAAAAAAAAAAWAAAAA8WIAAAAAAAFgB/AAAHgAQAAAADAzhngY+xvPJlACoAzV3VASCiCA3YiAI2SG/bNgOZvLEtbuXOSjk1hHY6Ye42bOeAEABAAACAAAAgAIAAAQAAAAAAAAAAA==

> <PUBCHEM_IUPAC_OPENEYE_NAME>
(5-methoxy-1H-indol-2-yl)-[4-[2-(3-pyridyloxy)ethyl]piperazin-1-yl]methanone

> <PUBCHEM_IUPAC_CAS_NAME>
(5-methoxy-1H-indol-2-yl)-[4-[2-(3-pyridinyloxy)ethyl]-1-piperazinyl]methanone

> <PUBCHEM_IUPAC_NAME_MARKUP>
(5-methoxy-1<I>H</I>-indol-2-yl)-[4-(2-pyridin-3-yloxyethyl)piperazin-1-yl]methanone

> <PUBCHEM_IUPAC_NAME>
(5-methoxy-1H-indol-2-yl)-[4-(2-pyridin-3-yloxyethyl)piperazin-1-yl]methanone

> <PUBCHEM_IUPAC_SYSTEMATIC_NAME>
(5-methoxy-1H-indol-2-yl)-[4-(2-pyridin-3-yloxyethyl)piperazin-1-yl]methanone

> <PUBCHEM_IUPAC_TRADITIONAL_NAME>
(5-methoxy-1H-indol-2-yl)-[4-[2-(3-pyridyloxy)ethyl]piperazino]methanone

> <PUBCHEM_IUPAC_INCHI>
InChI=1S/C21H24N4O3/c1-27-17-4-5-19-16(13-17)14-20(23-19)21(26)25-9-7-24(8-10-25)11-12-28-18-3-2-6-22-15-18/h2-6,13-15,23H,7-12H2,1H3

> <PUBCHEM_IUPAC_INCHIKEY>
YXMNLDHKEGETAO-UHFFFAOYSA-N

> <PUBCHEM_XLOGP3_AA>
2.2

> <PUBCHEM_EXACT_MASS>
380.18484064

> <PUBCHEM_MOLECULAR_FORMULA>
C21H24N4O3

> <PUBCHEM_MOLECULAR_WEIGHT>
380.4

> <PUBCHEM_OPENEYE_CAN_SMILES>
COC1=CC2=C(C=C1)NC(=C2)C(=O)N3CCN(CC3)CCOC4=CN=CC=C4

> <PUBCHEM_OPENEYE_ISO_SMILES>
COC1=CC2=C(C=C1)NC(=C2)C(=O)N3CCN(CC3)CCOC4=CN=CC=C4

> <PUBCHEM_CACTVS_TPSA>
70.7

> <PUBCHEM_MONOISOTOPIC_WEIGHT>
380.18484064

> <PUBCHEM_TOTAL_CHARGE>
0

> <PUBCHEM_HEAVY_ATOM_COUNT>
28

> <PUBCHEM_ATOM_DEF_STEREO_COUNT>
0

> <PUBCHEM_ATOM_UDEF_STEREO_COUNT>
0

> <PUBCHEM_BOND_DEF_STEREO_COUNT>
0

> <PUBCHEM_BOND_UDEF_STEREO_COUNT>
0

> <PUBCHEM_ISOTOPIC_ATOM_COUNT>
0

> <PUBCHEM_COMPONENT_COUNT>
1

> <PUBCHEM_CACTVS_TAUTO_COUNT>
-1

> <PUBCHEM_COORDINATE_TYPE>
1
5
255

> <PUBCHEM_BONDANNOTATIONS>
15  16  8
16  17  8
17  18  8
17  19  8
18  20  8
19  21  8
20  22  8
21  22  8
23  24  8
23  25  8
24  26  8
26  28  8
6  15  8
6  18  8
7  25  8
7  28  8

$$$$
