121304598
  -OEChem-09292322382D

 73 77  0     1  0  0  0  0  0999 V2000
    4.8198    0.4341    0.0000 S   0  0  0  0  0  0  0  0  0  0  0  0
   10.5121   -7.9159    0.0000 F   0  0  0  0  0  0  0  0  0  0  0  0
    9.1460   -8.2819    0.0000 F   0  0  0  0  0  0  0  0  0  0  0  0
   10.1460   -6.5499    0.0000 F   0  0  0  0  0  0  0  0  0  0  0  0
    2.0000    6.7819    0.0000 O   0  0  0  0  0  0  0  0  0  0  0  0
    5.1819   -3.0110    0.0000 N   0  0  3  0  0  0  0  0  0  0  0  0
    4.5411    2.1942    0.0000 N   0  0  0  0  0  0  0  0  0  0  0  0
    3.7320    6.7819    0.0000 N   0  0  0  0  0  0  0  0  0  0  0  0
    2.9230    2.1942    0.0000 N   0  0  0  0  0  0  0  0  0  0  0  0
    3.2320    1.2431    0.0000 N   0  0  0  0  0  0  0  0  0  0  0  0
    5.6819   -4.5499    0.0000 C   0  0  2  0  0  0  0  0  0  0  0  0
    6.1819   -5.4159    0.0000 C   0  0  2  0  0  0  0  0  0  0  0  0
    5.1819   -5.4159    0.0000 C   0  0  0  0  0  0  0  0  0  0  0  0
    6.4910   -3.9621    0.0000 C   0  0  0  0  0  0  0  0  0  0  0  0
    4.8729   -3.9621    0.0000 C   0  0  0  0  0  0  0  0  0  0  0  0
    6.1819   -3.0110    0.0000 C   0  0  0  0  0  0  0  0  0  0  0  0
    7.0480   -5.9159    0.0000 C   0  0  0  0  0  0  0  0  0  0  0  0
    4.5942   -2.2020    0.0000 C   0  0  0  0  0  0  0  0  0  0  0  0
    7.9140   -5.4159    0.0000 C   0  0  0  0  0  0  0  0  0  0  0  0
    7.0480   -6.9159    0.0000 C   0  0  0  0  0  0  0  0  0  0  0  0
    5.0009   -1.2885    0.0000 C   0  0  0  0  0  0  0  0  0  0  0  0
    8.7800   -5.9159    0.0000 C   0  0  0  0  0  0  0  0  0  0  0  0
    7.9140   -7.4159    0.0000 C   0  0  0  0  0  0  0  0  0  0  0  0
    8.7800   -6.9159    0.0000 C   0  0  0  0  0  0  0  0  0  0  0  0
    4.4131   -0.4795    0.0000 C   0  0  0  0  0  0  0  0  0  0  0  0
    9.6460   -7.4159    0.0000 C   0  0  0  0  0  0  0  0  0  0  0  0
    3.7320    3.7819    0.0000 C   0  0  0  0  0  0  0  0  0  0  0  0
    2.8660    4.2819    0.0000 C   0  0  0  0  0  0  0  0  0  0  0  0
    4.5981    4.2819    0.0000 C   0  0  0  0  0  0  0  0  0  0  0  0
    3.7320    5.7819    0.0000 C   0  0  0  0  0  0  0  0  0  0  0  0
    2.8660    5.2819    0.0000 C   0  0  0  0  0  0  0  0  0  0  0  0
    4.5981    5.2819    0.0000 C   0  0  0  0  0  0  0  0  0  0  0  0
    3.7320    2.7819    0.0000 C   0  0  0  0  0  0  0  0  0  0  0  0
    4.2320    1.2431    0.0000 C   0  0  0  0  0  0  0  0  0  0  0  0
    5.4921    2.5032    0.0000 C   0  0  0  0  0  0  0  0  0  0  0  0
    2.8660    7.2819    0.0000 C   0  0  0  0  0  0  0  0  0  0  0  0
    2.8660    8.2819    0.0000 C   0  0  0  0  0  0  0  0  0  0  0  0
    6.0215   -6.0148    0.0000 H   0  0  0  0  0  0  0  0  0  0  0  0
    4.5993   -5.2039    0.0000 H   0  0  0  0  0  0  0  0  0  0  0  0
    5.0743   -6.0265    0.0000 H   0  0  0  0  0  0  0  0  0  0  0  0
    6.8010   -4.4990    0.0000 H   0  0  0  0  0  0  0  0  0  0  0  0
    7.0574   -3.7099    0.0000 H   0  0  0  0  0  0  0  0  0  0  0  0
    4.3065   -3.7099    0.0000 H   0  0  0  0  0  0  0  0  0  0  0  0
    4.5629   -4.4990    0.0000 H   0  0  0  0  0  0  0  0  0  0  0  0
    6.7884   -2.8821    0.0000 H   0  0  0  0  0  0  0  0  0  0  0  0
    6.1171   -2.3944    0.0000 H   0  0  0  0  0  0  0  0  0  0  0  0
    4.0801   -1.8553    0.0000 H   0  0  0  0  0  0  0  0  0  0  0  0
    4.1635   -2.6480    0.0000 H   0  0  0  0  0  0  0  0  0  0  0  0
    7.9140   -4.7959    0.0000 H   0  0  0  0  0  0  0  0  0  0  0  0
    6.5110   -7.2259    0.0000 H   0  0  0  0  0  0  0  0  0  0  0  0
    5.5149   -1.6352    0.0000 H   0  0  0  0  0  0  0  0  0  0  0  0
    5.4316   -0.8425    0.0000 H   0  0  0  0  0  0  0  0  0  0  0  0
    9.3170   -5.6059    0.0000 H   0  0  0  0  0  0  0  0  0  0  0  0
    7.9140   -8.0359    0.0000 H   0  0  0  0  0  0  0  0  0  0  0  0
    3.8991   -0.1328    0.0000 H   0  0  0  0  0  0  0  0  0  0  0  0
    3.9824   -0.9255    0.0000 H   0  0  0  0  0  0  0  0  0  0  0  0
    4.2690    3.4719    0.0000 H   0  0  0  0  0  0  0  0  0  0  0  0
    2.2554    4.3896    0.0000 H   0  0  0  0  0  0  0  0  0  0  0  0
    2.6540    3.6993    0.0000 H   0  0  0  0  0  0  0  0  0  0  0  0
    4.8101    3.6993    0.0000 H   0  0  0  0  0  0  0  0  0  0  0  0
    5.2087    4.3896    0.0000 H   0  0  0  0  0  0  0  0  0  0  0  0
    4.2690    6.0919    0.0000 H   0  0  0  0  0  0  0  0  0  0  0  0
    2.6540    5.8646    0.0000 H   0  0  0  0  0  0  0  0  0  0  0  0
    2.2554    5.1743    0.0000 H   0  0  0  0  0  0  0  0  0  0  0  0
    5.2087    5.1743    0.0000 H   0  0  0  0  0  0  0  0  0  0  0  0
    4.8101    5.8646    0.0000 H   0  0  0  0  0  0  0  0  0  0  0  0
    4.2690    7.0919    0.0000 H   0  0  0  0  0  0  0  0  0  0  0  0
    5.6837    1.9135    0.0000 H   0  0  0  0  0  0  0  0  0  0  0  0
    6.0818    2.6948    0.0000 H   0  0  0  0  0  0  0  0  0  0  0  0
    5.3005    3.0928    0.0000 H   0  0  0  0  0  0  0  0  0  0  0  0
    3.4860    8.2819    0.0000 H   0  0  0  0  0  0  0  0  0  0  0  0
    2.8660    8.9019    0.0000 H   0  0  0  0  0  0  0  0  0  0  0  0
    2.2460    8.2819    0.0000 H   0  0  0  0  0  0  0  0  0  0  0  0
  1 25  1  0  0  0  0
  1 34  1  0  0  0  0
  2 26  1  0  0  0  0
  3 26  1  0  0  0  0
  4 26  1  0  0  0  0
  5 36  2  0  0  0  0
  6 15  1  0  0  0  0
  6 16  1  0  0  0  0
  6 18  1  0  0  0  0
  7 33  1  0  0  0  0
  7 34  1  0  0  0  0
  7 35  1  0  0  0  0
  8 30  1  0  0  0  0
  8 36  1  0  0  0  0
  8 67  1  0  0  0  0
  9 10  1  0  0  0  0
  9 33  2  0  0  0  0
 10 34  2  0  0  0  0
 11 12  1  0  0  0  0
 11 13  1  6  0  0  0
 11 14  1  0  0  0  0
 11 15  1  0  0  0  0
 12 13  1  0  0  0  0
 12 17  1  1  0  0  0
 12 38  1  0  0  0  0
 13 39  1  0  0  0  0
 13 40  1  0  0  0  0
 14 16  1  0  0  0  0
 14 41  1  0  0  0  0
 14 42  1  0  0  0  0
 15 43  1  0  0  0  0
 15 44  1  0  0  0  0
 16 45  1  0  0  0  0
 16 46  1  0  0  0  0
 17 19  2  0  0  0  0
 17 20  1  0  0  0  0
 18 21  1  0  0  0  0
 18 47  1  0  0  0  0
 18 48  1  0  0  0  0
 19 22  1  0  0  0  0
 19 49  1  0  0  0  0
 20 23  2  0  0  0  0
 20 50  1  0  0  0  0
 21 25  1  0  0  0  0
 21 51  1  0  0  0  0
 21 52  1  0  0  0  0
 22 24  2  0  0  0  0
 22 53  1  0  0  0  0
 23 24  1  0  0  0  0
 23 54  1  0  0  0  0
 24 26  1  0  0  0  0
 25 55  1  0  0  0  0
 25 56  1  0  0  0  0
 27 28  1  0  0  0  0
 27 29  1  0  0  0  0
 27 33  1  0  0  0  0
 27 57  1  0  0  0  0
 28 31  1  0  0  0  0
 28 58  1  0  0  0  0
 28 59  1  0  0  0  0
 29 32  1  0  0  0  0
 29 60  1  0  0  0  0
 29 61  1  0  0  0  0
 30 31  1  0  0  0  0
 30 32  1  0  0  0  0
 30 62  1  0  0  0  0
 31 63  1  0  0  0  0
 31 64  1  0  0  0  0
 32 65  1  0  0  0  0
 32 66  1  0  0  0  0
 35 68  1  0  0  0  0
 35 69  1  0  0  0  0
 35 70  1  0  0  0  0
 36 37  1  0  0  0  0
 37 71  1  0  0  0  0
 37 72  1  0  0  0  0
 37 73  1  0  0  0  0
M  END
> <PUBCHEM_COMPOUND_CID>
121304598

> <PUBCHEM_COMPOUND_CANONICALIZED>
1

> <PUBCHEM_CACTVS_COMPLEXITY>
787

> <PUBCHEM_CACTVS_HBOND_ACCEPTOR>
8

> <PUBCHEM_CACTVS_HBOND_DONOR>
1

> <PUBCHEM_CACTVS_ROTATABLE_BOND>
8

> <PUBCHEM_CACTVS_SUBSKEYS>
AAADcfB7oYBAAAAAAAAAAAAAGAAAAWLAAAAwYAAAAAAAAAABwAAAHwQYAAAADyjF2xSzEIfMEAiqAiNyNAAS0AtgALAdyIA4AIiIKCKgmRCEIAAgngKIiAcQgMAPwAAAAAAAAACQAAAAAAAAAAAAAAAAAA==

> <PUBCHEM_IUPAC_OPENEYE_NAME>
N-[4-[4-methyl-5-[3-[(2R,3S)-2-[4-(trifluoromethyl)phenyl]-5-azaspiro[2.4]heptan-5-yl]propylsulfanyl]-1,2,4-triazol-3-yl]cyclohexyl]acetamide

> <PUBCHEM_IUPAC_CAS_NAME>
N-[4-[4-methyl-5-[3-[(2R,3S)-2-[4-(trifluoromethyl)phenyl]-5-azaspiro[2.4]heptan-5-yl]propylthio]-1,2,4-triazol-3-yl]cyclohexyl]acetamide

> <PUBCHEM_IUPAC_NAME_MARKUP>
<I>N</I>-[4-[4-methyl-5-[3-[(2<I>R</I>,3<I>S</I>)-2-[4-(trifluoromethyl)phenyl]-5-azaspiro[2.4]heptan-5-yl]propylsulfanyl]-1,2,4-triazol-3-yl]cyclohexyl]acetamide

> <PUBCHEM_IUPAC_NAME>
N-[4-[4-methyl-5-[3-[(2R,3S)-2-[4-(trifluoromethyl)phenyl]-5-azaspiro[2.4]heptan-5-yl]propylsulfanyl]-1,2,4-triazol-3-yl]cyclohexyl]acetamide

> <PUBCHEM_IUPAC_SYSTEMATIC_NAME>
N-[4-[4-methyl-5-[3-[(2R,3S)-2-[4-(trifluoromethyl)phenyl]-5-azaspiro[2.4]heptan-5-yl]propylsulfanyl]-1,2,4-triazol-3-yl]cyclohexyl]ethanamide

> <PUBCHEM_IUPAC_TRADITIONAL_NAME>
N-[4-[4-methyl-5-[3-[(2R,3S)-2-[4-(trifluoromethyl)phenyl]-5-azaspiro[2.4]heptan-5-yl]propylthio]-1,2,4-triazol-3-yl]cyclohexyl]acetamide

> <PUBCHEM_IUPAC_INCHI>
InChI=1S/C27H36F3N5OS/c1-18(36)31-22-10-6-20(7-11-22)24-32-33-25(34(24)2)37-15-3-13-35-14-12-26(17-35)16-23(26)19-4-8-21(9-5-19)27(28,29)30/h4-5,8-9,20,22-23H,3,6-7,10-17H2,1-2H3,(H,31,36)/t20?,22?,23-,26+/m1/s1

> <PUBCHEM_IUPAC_INCHIKEY>
QDBPUGDJXGIOJW-HFYIJGDASA-N

> <PUBCHEM_XLOGP3_AA>
4.3

> <PUBCHEM_EXACT_MASS>
535.25926645

> <PUBCHEM_MOLECULAR_FORMULA>
C27H36F3N5OS

> <PUBCHEM_MOLECULAR_WEIGHT>
535.7

> <PUBCHEM_OPENEYE_CAN_SMILES>
CC(=O)NC1CCC(CC1)C2=NN=C(N2C)SCCCN3CCC4(C3)CC4C5=CC=C(C=C5)C(F)(F)F

> <PUBCHEM_OPENEYE_ISO_SMILES>
CC(=O)NC1CCC(CC1)C2=NN=C(N2C)SCCCN3CC[C@@]4(C3)C[C@@H]4C5=CC=C(C=C5)C(F)(F)F

> <PUBCHEM_CACTVS_TPSA>
88.4

> <PUBCHEM_MONOISOTOPIC_WEIGHT>
535.25926645

> <PUBCHEM_TOTAL_CHARGE>
0

> <PUBCHEM_HEAVY_ATOM_COUNT>
37

> <PUBCHEM_ATOM_DEF_STEREO_COUNT>
2

> <PUBCHEM_ATOM_UDEF_STEREO_COUNT>
0

> <PUBCHEM_BOND_DEF_STEREO_COUNT>
0

> <PUBCHEM_BOND_UDEF_STEREO_COUNT>
0

> <PUBCHEM_ISOTOPIC_ATOM_COUNT>
0

> <PUBCHEM_COMPONENT_COUNT>
1

> <PUBCHEM_CACTVS_TAUTO_COUNT>
-1

> <PUBCHEM_COORDINATE_TYPE>
1
5
255

> <PUBCHEM_BONDANNOTATIONS>
10  34  8
11  13  6
12  17  5
17  19  8
17  20  8
19  22  8
20  23  8
22  24  8
23  24  8
7  33  8
7  34  8
9  10  8
9  33  8

$$$$
