134133604
  -OEChem-09292322382D

 45 47  0     1  0  0  0  0  0999 V2000
    9.7407    0.0000    0.0000 Cl  0  0  0  0  0  0  0  0  0  0  0  0
    4.6804    7.5988    0.0000 Cl  0  0  0  0  0  0  0  0  0  0  0  0
    7.7799    4.3136    0.0000 O   0  0  0  0  0  0  0  0  0  0  0  0
    4.0678    3.4300    0.0000 N   0  0  3  0  0  0  0  0  0  0  0  0
    6.6659    2.9300    0.0000 C   0  0  3  0  0  0  0  0  0  0  0  0
    5.7998    3.4300    0.0000 C   0  0  0  0  0  0  0  0  0  0  0  0
    4.9338    2.9300    0.0000 C   0  0  0  0  0  0  0  0  0  0  0  0
    6.7689    1.9412    0.0000 C   0  0  0  0  0  0  0  0  0  0  0  0
    4.0678    4.4300    0.0000 C   0  0  0  0  0  0  0  0  0  0  0  0
    3.2018    2.9300    0.0000 C   0  0  0  0  0  0  0  0  0  0  0  0
    7.5737    3.3351    0.0000 C   0  0  0  0  0  0  0  0  0  0  0  0
    7.7407    1.7320    0.0000 C   0  0  0  0  0  0  0  0  0  0  0  0
    3.2018    4.9300    0.0000 C   0  0  0  0  0  0  0  0  0  0  0  0
    8.2407    2.5981    0.0000 C   0  0  0  0  0  0  0  0  0  0  0  0
    2.3358    3.4300    0.0000 C   0  0  0  0  0  0  0  0  0  0  0  0
    2.3358    4.4300    0.0000 C   0  0  0  0  0  0  0  0  0  0  0  0
    8.2407    0.8660    0.0000 C   0  0  0  0  0  0  0  0  0  0  0  0
    9.2407    2.5981    0.0000 C   0  0  0  0  0  0  0  0  0  0  0  0
    1.4418    2.8953    0.0000 C   0  0  0  0  0  0  0  0  0  0  0  0
    1.4418    4.9646    0.0000 C   0  0  0  0  0  0  0  0  0  0  0  0
    9.2407    0.8660    0.0000 C   0  0  0  0  0  0  0  0  0  0  0  0
    9.7407    1.7320    0.0000 C   0  0  0  0  0  0  0  0  0  0  0  0
    0.5357    3.4092    0.0000 C   0  0  0  0  0  0  0  0  0  0  0  0
    0.5357    4.4508    0.0000 C   0  0  0  0  0  0  0  0  0  0  0  0
    6.1457    2.5925    0.0000 H   0  0  0  0  0  0  0  0  0  0  0  0
    6.1984    3.9049    0.0000 H   0  0  0  0  0  0  0  0  0  0  0  0
    5.4013    3.9049    0.0000 H   0  0  0  0  0  0  0  0  0  0  0  0
    4.5353    2.4550    0.0000 H   0  0  0  0  0  0  0  0  0  0  0  0
    5.3324    2.4550    0.0000 H   0  0  0  0  0  0  0  0  0  0  0  0
    6.1489    1.9422    0.0000 H   0  0  0  0  0  0  0  0  0  0  0  0
    6.7029    1.3248    0.0000 H   0  0  0  0  0  0  0  0  0  0  0  0
    4.6784    4.3223    0.0000 H   0  0  0  0  0  0  0  0  0  0  0  0
    4.2798    5.0126    0.0000 H   0  0  0  0  0  0  0  0  0  0  0  0
    2.8032    2.4550    0.0000 H   0  0  0  0  0  0  0  0  0  0  0  0
    3.6003    2.4550    0.0000 H   0  0  0  0  0  0  0  0  0  0  0  0
    3.6003    5.4049    0.0000 H   0  0  0  0  0  0  0  0  0  0  0  0
    2.8032    5.4049    0.0000 H   0  0  0  0  0  0  0  0  0  0  0  0
    7.9307    0.3291    0.0000 H   0  0  0  0  0  0  0  0  0  0  0  0
    9.5507    3.1350    0.0000 H   0  0  0  0  0  0  0  0  0  0  0  0
    1.4490    2.2754    0.0000 H   0  0  0  0  0  0  0  0  0  0  0  0
    1.4490    5.5846    0.0000 H   0  0  0  0  0  0  0  0  0  0  0  0
   10.3607    1.7320    0.0000 H   0  0  0  0  0  0  0  0  0  0  0  0
    0.0000    3.0971    0.0000 H   0  0  0  0  0  0  0  0  0  0  0  0
    0.0000    4.7629    0.0000 H   0  0  0  0  0  0  0  0  0  0  0  0
    5.6804    7.5988    0.0000 H   0  0  0  0  0  0  0  0  0  0  0  0
  1 21  1  0  0  0  0
  2 45  1  0  0  0  0
  3 11  2  0  0  0  0
  4  7  1  0  0  0  0
  4  9  1  0  0  0  0
  4 10  1  0  0  0  0
  5  6  1  0  0  0  0
  5  8  1  0  0  0  0
  5 11  1  0  0  0  0
  5 25  1  0  0  0  0
  6  7  1  0  0  0  0
  6 26  1  0  0  0  0
  6 27  1  0  0  0  0
  7 28  1  0  0  0  0
  7 29  1  0  0  0  0
  8 12  1  0  0  0  0
  8 30  1  0  0  0  0
  8 31  1  0  0  0  0
  9 13  1  0  0  0  0
  9 32  1  0  0  0  0
  9 33  1  0  0  0  0
 10 15  1  0  0  0  0
 10 34  1  0  0  0  0
 10 35  1  0  0  0  0
 11 14  1  0  0  0  0
 12 14  2  0  0  0  0
 12 17  1  0  0  0  0
 13 16  1  0  0  0  0
 13 36  1  0  0  0  0
 13 37  1  0  0  0  0
 14 18  1  0  0  0  0
 15 16  1  0  0  0  0
 15 19  2  0  0  0  0
 16 20  2  0  0  0  0
 17 21  2  0  0  0  0
 17 38  1  0  0  0  0
 18 22  2  0  0  0  0
 18 39  1  0  0  0  0
 19 23  1  0  0  0  0
 19 40  1  0  0  0  0
 20 24  1  0  0  0  0
 20 41  1  0  0  0  0
 21 22  1  0  0  0  0
 22 42  1  0  0  0  0
 23 24  2  0  0  0  0
 23 43  1  0  0  0  0
 24 44  1  0  0  0  0
M  END
> <PUBCHEM_COMPOUND_CID>
134133604

> <PUBCHEM_COMPOUND_CANONICALIZED>
1

> <PUBCHEM_CACTVS_COMPLEXITY>
439

> <PUBCHEM_CACTVS_HBOND_ACCEPTOR>
2

> <PUBCHEM_CACTVS_HBOND_DONOR>
1

> <PUBCHEM_CACTVS_ROTATABLE_BOND>
3

> <PUBCHEM_CACTVS_SUBSKEYS>
AAADceB6IAAGAAAAAAAAAAAAAAAAAYAAAAA8YIAAAAAAAGCxQAAAHgIAAAAADQbBmCQwAIMAAACIAqBSAACCAAAkBQAIiAEIBsgIIDKBlxGEIQhggACIiYcciMCOhAAAIAAQAAAIAABAACAAAQAACAAAAA==

> <PUBCHEM_IUPAC_OPENEYE_NAME>
5-chloro-2-[2-(3,4-dihydro-1H-isoquinolin-2-yl)ethyl]indan-1-one;hydrochloride

> <PUBCHEM_IUPAC_CAS_NAME>
5-chloro-2-[2-(3,4-dihydro-1H-isoquinolin-2-yl)ethyl]-2,3-dihydroinden-1-one;hydrochloride

> <PUBCHEM_IUPAC_NAME_MARKUP>
5-chloro-2-[2-(3,4-dihydro-1<I>H</I>-isoquinolin-2-yl)ethyl]-2,3-dihydroinden-1-one;hydrochloride

> <PUBCHEM_IUPAC_NAME>
5-chloro-2-[2-(3,4-dihydro-1H-isoquinolin-2-yl)ethyl]-2,3-dihydroinden-1-one;hydrochloride

> <PUBCHEM_IUPAC_SYSTEMATIC_NAME>
5-chloranyl-2-[2-(3,4-dihydro-1H-isoquinolin-2-yl)ethyl]-2,3-dihydroinden-1-one;hydrochloride

> <PUBCHEM_IUPAC_TRADITIONAL_NAME>
5-chloro-2-[2-(3,4-dihydro-1H-isoquinolin-2-yl)ethyl]indan-1-one;hydrochloride

> <PUBCHEM_IUPAC_INCHI>
InChI=1S/C20H20ClNO.ClH/c21-18-5-6-19-17(12-18)11-15(20(19)23)8-10-22-9-7-14-3-1-2-4-16(14)13-22;/h1-6,12,15H,7-11,13H2;1H

> <PUBCHEM_IUPAC_INCHIKEY>
CDKCTEJHUVKKNR-UHFFFAOYSA-N

> <PUBCHEM_EXACT_MASS>
361.1000197

> <PUBCHEM_MOLECULAR_FORMULA>
C20H21Cl2NO

> <PUBCHEM_MOLECULAR_WEIGHT>
362.3

> <PUBCHEM_OPENEYE_CAN_SMILES>
C1CN(CC2=CC=CC=C21)CCC3CC4=C(C3=O)C=CC(=C4)Cl.Cl

> <PUBCHEM_OPENEYE_ISO_SMILES>
C1CN(CC2=CC=CC=C21)CCC3CC4=C(C3=O)C=CC(=C4)Cl.Cl

> <PUBCHEM_CACTVS_TPSA>
20.3

> <PUBCHEM_MONOISOTOPIC_WEIGHT>
361.1000197

> <PUBCHEM_TOTAL_CHARGE>
0

> <PUBCHEM_HEAVY_ATOM_COUNT>
24

> <PUBCHEM_ATOM_DEF_STEREO_COUNT>
0

> <PUBCHEM_ATOM_UDEF_STEREO_COUNT>
1

> <PUBCHEM_BOND_DEF_STEREO_COUNT>
0

> <PUBCHEM_BOND_UDEF_STEREO_COUNT>
0

> <PUBCHEM_ISOTOPIC_ATOM_COUNT>
0

> <PUBCHEM_COMPONENT_COUNT>
2

> <PUBCHEM_CACTVS_TAUTO_COUNT>
-1

> <PUBCHEM_COORDINATE_TYPE>
1
5
255

> <PUBCHEM_BONDANNOTATIONS>
12  14  8
12  17  8
14  18  8
15  16  8
15  19  8
16  20  8
17  21  8
18  22  8
19  23  8
20  24  8
21  22  8
23  24  8
5  6  3

$$$$
