9881053
  -OEChem-09292322032D

 54 57  0     0  0  0  0  0  0999 V2000
    4.6660    0.7154    0.0000 O   0  0  0  0  0  0  0  0  0  0  0  0
    5.5321   -2.7846    0.0000 N   0  0  0  0  0  0  0  0  0  0  0  0
    2.9061    3.7500    0.0000 N   0  0  0  0  0  0  0  0  0  0  0  0
    5.5321    2.2154    0.0000 N   0  0  0  0  0  0  0  0  0  0  0  0
    5.5321   -0.7846    0.0000 C   0  0  0  0  0  0  0  0  0  0  0  0
    4.6660   -1.2846    0.0000 C   0  0  0  0  0  0  0  0  0  0  0  0
    6.3981   -1.2846    0.0000 C   0  0  0  0  0  0  0  0  0  0  0  0
    4.6660   -2.2846    0.0000 C   0  0  0  0  0  0  0  0  0  0  0  0
    6.3981   -2.2846    0.0000 C   0  0  0  0  0  0  0  0  0  0  0  0
    5.5321    0.2154    0.0000 C   0  0  0  0  0  0  0  0  0  0  0  0
    5.5321   -3.7846    0.0000 C   0  0  0  0  0  0  0  0  0  0  0  0
    6.3981   -4.2846    0.0000 C   0  0  0  0  0  0  0  0  0  0  0  0
    3.8000    2.2154    0.0000 C   0  0  0  0  0  0  0  0  0  0  0  0
    4.6660    1.7154    0.0000 C   0  0  0  0  0  0  0  0  0  0  0  0
    2.9061    1.6807    0.0000 C   0  0  0  0  0  0  0  0  0  0  0  0
    3.8000    3.2154    0.0000 C   0  0  0  0  0  0  0  0  0  0  0  0
    2.0000    2.1946    0.0000 C   0  0  0  0  0  0  0  0  0  0  0  0
    2.0000    3.2362    0.0000 C   0  0  0  0  0  0  0  0  0  0  0  0
    4.6660    3.7154    0.0000 C   0  0  0  0  0  0  0  0  0  0  0  0
    6.3981   -5.2846    0.0000 C   0  0  0  0  0  0  0  0  0  0  0  0
    5.5321    3.2154    0.0000 C   0  0  0  0  0  0  0  0  0  0  0  0
    4.6500    4.7569    0.0000 C   0  0  0  0  0  0  0  0  0  0  0  0
    6.4421    3.7222    0.0000 C   0  0  0  0  0  0  0  0  0  0  0  0
    5.5480    5.2846    0.0000 C   0  0  0  0  0  0  0  0  0  0  0  0
    6.4501    4.7638    0.0000 C   0  0  0  0  0  0  0  0  0  0  0  0
    6.0690   -0.4746    0.0000 H   0  0  0  0  0  0  0  0  0  0  0  0
    4.4540   -0.7020    0.0000 H   0  0  0  0  0  0  0  0  0  0  0  0
    4.0555   -1.3923    0.0000 H   0  0  0  0  0  0  0  0  0  0  0  0
    7.0087   -1.3923    0.0000 H   0  0  0  0  0  0  0  0  0  0  0  0
    6.6101   -0.7020    0.0000 H   0  0  0  0  0  0  0  0  0  0  0  0
    4.0555   -2.1770    0.0000 H   0  0  0  0  0  0  0  0  0  0  0  0
    4.4540   -2.8672    0.0000 H   0  0  0  0  0  0  0  0  0  0  0  0
    6.6101   -2.8672    0.0000 H   0  0  0  0  0  0  0  0  0  0  0  0
    7.0087   -2.1770    0.0000 H   0  0  0  0  0  0  0  0  0  0  0  0
    6.1426    0.1077    0.0000 H   0  0  0  0  0  0  0  0  0  0  0  0
    5.7441    0.7980    0.0000 H   0  0  0  0  0  0  0  0  0  0  0  0
    4.9215   -3.6770    0.0000 H   0  0  0  0  0  0  0  0  0  0  0  0
    5.3200   -4.3672    0.0000 H   0  0  0  0  0  0  0  0  0  0  0  0
    7.0087   -4.3923    0.0000 H   0  0  0  0  0  0  0  0  0  0  0  0
    6.6101   -3.7020    0.0000 H   0  0  0  0  0  0  0  0  0  0  0  0
    2.5124    1.2017    0.0000 H   0  0  0  0  0  0  0  0  0  0  0  0
    3.3107    1.2109    0.0000 H   0  0  0  0  0  0  0  0  0  0  0  0
    1.3891    2.3006    0.0000 H   0  0  0  0  0  0  0  0  0  0  0  0
    1.7909    1.6109    0.0000 H   0  0  0  0  0  0  0  0  0  0  0  0
    1.7909    3.8199    0.0000 H   0  0  0  0  0  0  0  0  0  0  0  0
    1.3891    3.1301    0.0000 H   0  0  0  0  0  0  0  0  0  0  0  0
    2.9132    4.3700    0.0000 H   0  0  0  0  0  0  0  0  0  0  0  0
    5.7781   -5.2846    0.0000 H   0  0  0  0  0  0  0  0  0  0  0  0
    6.3981   -5.9046    0.0000 H   0  0  0  0  0  0  0  0  0  0  0  0
    7.0181   -5.2846    0.0000 H   0  0  0  0  0  0  0  0  0  0  0  0
    4.1095    5.0606    0.0000 H   0  0  0  0  0  0  0  0  0  0  0  0
    6.9754    3.4060    0.0000 H   0  0  0  0  0  0  0  0  0  0  0  0
    5.5456    5.9046    0.0000 H   0  0  0  0  0  0  0  0  0  0  0  0
    6.9882    5.0717    0.0000 H   0  0  0  0  0  0  0  0  0  0  0  0
  1 10  1  0  0  0  0
  1 14  1  0  0  0  0
  2  8  1  0  0  0  0
  2  9  1  0  0  0  0
  2 11  1  0  0  0  0
  3 16  1  0  0  0  0
  3 18  1  0  0  0  0
  3 47  1  0  0  0  0
  4 14  2  0  0  0  0
  4 21  1  0  0  0  0
  5  6  1  0  0  0  0
  5  7  1  0  0  0  0
  5 10  1  0  0  0  0
  5 26  1  0  0  0  0
  6  8  1  0  0  0  0
  6 27  1  0  0  0  0
  6 28  1  0  0  0  0
  7  9  1  0  0  0  0
  7 29  1  0  0  0  0
  7 30  1  0  0  0  0
  8 31  1  0  0  0  0
  8 32  1  0  0  0  0
  9 33  1  0  0  0  0
  9 34  1  0  0  0  0
 10 35  1  0  0  0  0
 10 36  1  0  0  0  0
 11 12  1  0  0  0  0
 11 37  1  0  0  0  0
 11 38  1  0  0  0  0
 12 20  1  0  0  0  0
 12 39  1  0  0  0  0
 12 40  1  0  0  0  0
 13 14  1  0  0  0  0
 13 15  1  0  0  0  0
 13 16  2  0  0  0  0
 15 17  1  0  0  0  0
 15 41  1  0  0  0  0
 15 42  1  0  0  0  0
 16 19  1  0  0  0  0
 17 18  1  0  0  0  0
 17 43  1  0  0  0  0
 17 44  1  0  0  0  0
 18 45  1  0  0  0  0
 18 46  1  0  0  0  0
 19 21  1  0  0  0  0
 19 22  2  0  0  0  0
 20 48  1  0  0  0  0
 20 49  1  0  0  0  0
 20 50  1  0  0  0  0
 21 23  2  0  0  0  0
 22 24  1  0  0  0  0
 22 51  1  0  0  0  0
 23 25  1  0  0  0  0
 23 52  1  0  0  0  0
 24 25  2  0  0  0  0
 24 53  1  0  0  0  0
 25 54  1  0  0  0  0
M  END
> <PUBCHEM_COMPOUND_CID>
9881053

> <PUBCHEM_COMPOUND_CANONICALIZED>
1

> <PUBCHEM_CACTVS_COMPLEXITY>
410

> <PUBCHEM_CACTVS_HBOND_ACCEPTOR>
4

> <PUBCHEM_CACTVS_HBOND_DONOR>
1

> <PUBCHEM_CACTVS_ROTATABLE_BOND>
5

> <PUBCHEM_CACTVS_SUBSKEYS>
AAADceB7IAAAAAAAAAAAAAAAAAAAAAAAAAA8WLEAAAAAAACx8AAAHgAQAAAADQjhngYyxPPIFACgAyRiRACCiCAhIiAImKA8bJgMJuLE8duOPCjm0BnI6Aew0OMOAAAAAAACAAAAAAAAAAQAAAAAAAAAAA==

> <PUBCHEM_IUPAC_OPENEYE_NAME>
5-[(1-propyl-4-piperidyl)methoxy]-1,2,3,4-tetrahydrobenzo[h][1,6]naphthyridine

> <PUBCHEM_IUPAC_CAS_NAME>
5-[(1-propyl-4-piperidinyl)methoxy]-1,2,3,4-tetrahydrobenzo[h][1,6]naphthyridine

> <PUBCHEM_IUPAC_NAME_MARKUP>
5-[(1-propylpiperidin-4-yl)methoxy]-1,2,3,4-tetrahydrobenzo[h][1,6]naphthyridine

> <PUBCHEM_IUPAC_NAME>
5-[(1-propylpiperidin-4-yl)methoxy]-1,2,3,4-tetrahydrobenzo[h][1,6]naphthyridine

> <PUBCHEM_IUPAC_SYSTEMATIC_NAME>
5-[(1-propylpiperidin-4-yl)methoxy]-1,2,3,4-tetrahydrobenzo[h][1,6]naphthyridine

> <PUBCHEM_IUPAC_TRADITIONAL_NAME>
5-[(1-propyl-4-piperidyl)methoxy]-1,2,3,4-tetrahydrobenzo[h][1,6]naphthyridine

> <PUBCHEM_IUPAC_INCHI>
InChI=1S/C21H29N3O/c1-2-12-24-13-9-16(10-14-24)15-25-21-18-7-5-11-22-20(18)17-6-3-4-8-19(17)23-21/h3-4,6,8,16,22H,2,5,7,9-15H2,1H3

> <PUBCHEM_IUPAC_INCHIKEY>
UTMXFLLOSBJGIE-UHFFFAOYSA-N

> <PUBCHEM_XLOGP3_AA>
4.5

> <PUBCHEM_EXACT_MASS>
339.231062557

> <PUBCHEM_MOLECULAR_FORMULA>
C21H29N3O

> <PUBCHEM_MOLECULAR_WEIGHT>
339.5

> <PUBCHEM_OPENEYE_CAN_SMILES>
CCCN1CCC(CC1)COC2=NC3=CC=CC=C3C4=C2CCCN4

> <PUBCHEM_OPENEYE_ISO_SMILES>
CCCN1CCC(CC1)COC2=NC3=CC=CC=C3C4=C2CCCN4

> <PUBCHEM_CACTVS_TPSA>
37.4

> <PUBCHEM_MONOISOTOPIC_WEIGHT>
339.231062557

> <PUBCHEM_TOTAL_CHARGE>
0

> <PUBCHEM_HEAVY_ATOM_COUNT>
25

> <PUBCHEM_ATOM_DEF_STEREO_COUNT>
0

> <PUBCHEM_ATOM_UDEF_STEREO_COUNT>
0

> <PUBCHEM_BOND_DEF_STEREO_COUNT>
0

> <PUBCHEM_BOND_UDEF_STEREO_COUNT>
0

> <PUBCHEM_ISOTOPIC_ATOM_COUNT>
0

> <PUBCHEM_COMPONENT_COUNT>
1

> <PUBCHEM_CACTVS_TAUTO_COUNT>
-1

> <PUBCHEM_COORDINATE_TYPE>
1
5
255

> <PUBCHEM_BONDANNOTATIONS>
13  14  8
13  16  8
16  19  8
19  21  8
19  22  8
21  23  8
22  24  8
23  25  8
24  25  8
4  14  8
4  21  8

$$$$
