44591566
  -OEChem-09292322502D

 43 46  0     1  0  0  0  0  0999 V2000
    7.0954    1.1598    0.0000 O   0  0  0  0  0  0  0  0  0  0  0  0
    8.8875    0.1251    0.0000 N   0  0  3  0  0  0  0  0  0  0  0  0
    3.4807    1.1373    0.0000 N   0  0  0  0  0  0  0  0  0  0  0  0
    2.6663   -0.2608    0.0000 N   0  0  0  0  0  0  0  0  0  0  0  0
    2.5033    1.3490    0.0000 N   0  0  0  0  0  0  0  0  0  0  0  0
    2.0000    0.4849    0.0000 N   0  0  0  0  0  0  0  0  0  0  0  0
    7.9775   -0.3817    0.0000 C   0  0  1  0  0  0  0  0  0  0  0  0
    7.1115    0.1183    0.0000 C   0  0  1  0  0  0  0  0  0  0  0  0
    7.9775   -1.3817    0.0000 C   0  0  0  0  0  0  0  0  0  0  0  0
    6.2455   -0.3817    0.0000 C   0  0  0  0  0  0  0  0  0  0  0  0
    7.1115   -1.8817    0.0000 C   0  0  0  0  0  0  0  0  0  0  0  0
    8.8956    1.1667    0.0000 C   0  0  0  0  0  0  0  0  0  0  0  0
    6.2455   -1.3817    0.0000 C   0  0  0  0  0  0  0  0  0  0  0  0
    7.9935    1.6875    0.0000 C   0  0  0  0  0  0  0  0  0  0  0  0
    9.7477   -0.3849    0.0000 C   0  0  0  0  0  0  0  0  0  0  0  0
    5.3515    0.1529    0.0000 C   0  0  0  0  0  0  0  0  0  0  0  0
   10.6195    0.1051    0.0000 C   0  0  0  0  0  0  0  0  0  0  0  0
    5.3515   -1.9164    0.0000 C   0  0  0  0  0  0  0  0  0  0  0  0
    4.4455   -0.3609    0.0000 C   0  0  0  0  0  0  0  0  0  0  0  0
    4.4455   -1.4025    0.0000 C   0  0  0  0  0  0  0  0  0  0  0  0
   11.4796   -0.4049    0.0000 C   0  0  0  0  0  0  0  0  0  0  0  0
    3.5814    0.1424    0.0000 C   0  0  0  0  0  0  0  0  0  0  0  0
    8.7103   -0.8124    0.0000 H   0  0  0  0  0  0  0  0  0  0  0  0
    7.8443    0.5489    0.0000 H   0  0  0  0  0  0  0  0  0  0  0  0
    8.1896   -1.9643    0.0000 H   0  0  0  0  0  0  0  0  0  0  0  0
    8.5881   -1.2741    0.0000 H   0  0  0  0  0  0  0  0  0  0  0  0
    6.7130   -2.3567    0.0000 H   0  0  0  0  0  0  0  0  0  0  0  0
    7.5100   -2.3567    0.0000 H   0  0  0  0  0  0  0  0  0  0  0  0
    9.5056    1.0559    0.0000 H   0  0  0  0  0  0  0  0  0  0  0  0
    9.1091    1.7488    0.0000 H   0  0  0  0  0  0  0  0  0  0  0  0
    8.3908    2.1635    0.0000 H   0  0  0  0  0  0  0  0  0  0  0  0
    7.5925    2.1604    0.0000 H   0  0  0  0  0  0  0  0  0  0  0  0
    9.3437   -0.8552    0.0000 H   0  0  0  0  0  0  0  0  0  0  0  0
   10.1407   -0.8644    0.0000 H   0  0  0  0  0  0  0  0  0  0  0  0
    5.3587    0.7729    0.0000 H   0  0  0  0  0  0  0  0  0  0  0  0
   11.0234    0.5754    0.0000 H   0  0  0  0  0  0  0  0  0  0  0  0
   10.2264    0.5846    0.0000 H   0  0  0  0  0  0  0  0  0  0  0  0
    5.3587   -2.5364    0.0000 H   0  0  0  0  0  0  0  0  0  0  0  0
    3.9097   -1.7146    0.0000 H   0  0  0  0  0  0  0  0  0  0  0  0
   11.1635   -0.9382    0.0000 H   0  0  0  0  0  0  0  0  0  0  0  0
   12.0130   -0.7211    0.0000 H   0  0  0  0  0  0  0  0  0  0  0  0
   11.7958    0.1284    0.0000 H   0  0  0  0  0  0  0  0  0  0  0  0
    2.2533    1.9164    0.0000 H   0  0  0  0  0  0  0  0  0  0  0  0
  1  8  1  0  0  0  0
  1 14  1  0  0  0  0
  2  7  1  0  0  0  0
  2 12  1  0  0  0  0
  2 15  1  0  0  0  0
  3  5  1  0  0  0  0
  3 22  2  0  0  0  0
  4  6  2  0  0  0  0
  4 22  1  0  0  0  0
  5  6  1  0  0  0  0
  5 43  1  0  0  0  0
  7  8  1  0  0  0  0
  7  9  1  0  0  0  0
  7 23  1  1  0  0  0
  8 10  1  0  0  0  0
  8 24  1  6  0  0  0
  9 11  1  0  0  0  0
  9 25  1  0  0  0  0
  9 26  1  0  0  0  0
 10 13  2  0  0  0  0
 10 16  1  0  0  0  0
 11 13  1  0  0  0  0
 11 27  1  0  0  0  0
 11 28  1  0  0  0  0
 12 14  1  0  0  0  0
 12 29  1  0  0  0  0
 12 30  1  0  0  0  0
 13 18  1  0  0  0  0
 14 31  1  0  0  0  0
 14 32  1  0  0  0  0
 15 17  1  0  0  0  0
 15 33  1  0  0  0  0
 15 34  1  0  0  0  0
 16 19  2  0  0  0  0
 16 35  1  0  0  0  0
 17 21  1  0  0  0  0
 17 36  1  0  0  0  0
 17 37  1  0  0  0  0
 18 20  2  0  0  0  0
 18 38  1  0  0  0  0
 19 20  1  0  0  0  0
 19 22  1  0  0  0  0
 20 39  1  0  0  0  0
 21 40  1  0  0  0  0
 21 41  1  0  0  0  0
 21 42  1  0  0  0  0
M  END
> <PUBCHEM_COMPOUND_CID>
44591566

> <PUBCHEM_COMPOUND_CANONICALIZED>
1

> <PUBCHEM_CACTVS_COMPLEXITY>
382

> <PUBCHEM_CACTVS_HBOND_ACCEPTOR>
5

> <PUBCHEM_CACTVS_HBOND_DONOR>
1

> <PUBCHEM_CACTVS_ROTATABLE_BOND>
3

> <PUBCHEM_CACTVS_SUBSKEYS>
AAADceB7oAAAAAAAAAAAAAAAAAAAAWAAAAA8YIAAAAAAAADxwAAAHgAYAAAADDzhmwYzEIcCBACiAiJiIACCAAIgAAAcqCAoDJgKJqKAsRmHMABkwAGYqAeQ0PAOwAACAAAQAACQAAaAADAgAAAAAAAAAA==

> <PUBCHEM_IUPAC_OPENEYE_NAME>
(4aR,10bR)-4-propyl-9-(2H-tetrazol-5-yl)-2,3,4a,5,6,10b-hexahydrobenzo[h][1,4]benzoxazine

> <PUBCHEM_IUPAC_CAS_NAME>
(4aR,10bR)-4-propyl-9-(2H-tetrazol-5-yl)-2,3,4a,5,6,10b-hexahydrobenzo[h][1,4]benzoxazine

> <PUBCHEM_IUPAC_NAME_MARKUP>
(4<I>a</I><I>R</I>,10<I>b</I><I>R</I>)-4-propyl-9-(2<I>H</I>-tetrazol-5-yl)-2,3,4<I>a</I>,5,6,10<I>b</I>-hexahydrobenzo[h][1,4]benzoxazine

> <PUBCHEM_IUPAC_NAME>
(4aR,10bR)-4-propyl-9-(2H-tetrazol-5-yl)-2,3,4a,5,6,10b-hexahydrobenzo[h][1,4]benzoxazine

> <PUBCHEM_IUPAC_SYSTEMATIC_NAME>
(4aR,10bR)-4-propyl-9-(2H-1,2,3,4-tetrazol-5-yl)-2,3,4a,5,6,10b-hexahydrobenzo[h][1,4]benzoxazine

> <PUBCHEM_IUPAC_TRADITIONAL_NAME>
(4aR,10bR)-4-propyl-9-(2H-tetrazol-5-yl)-2,3,4a,5,6,10b-hexahydrobenzo[h][1,4]benzoxazine

> <PUBCHEM_IUPAC_INCHI>
InChI=1S/C16H21N5O/c1-2-7-21-8-9-22-15-13-10-12(16-17-19-20-18-16)4-3-11(13)5-6-14(15)21/h3-4,10,14-15H,2,5-9H2,1H3,(H,17,18,19,20)/t14-,15-/m1/s1

> <PUBCHEM_IUPAC_INCHIKEY>
MTTIQVJXLIYTBS-HUUCEWRRSA-N

> <PUBCHEM_XLOGP3>
2

> <PUBCHEM_EXACT_MASS>
299.17461031

> <PUBCHEM_MOLECULAR_FORMULA>
C16H21N5O

> <PUBCHEM_MOLECULAR_WEIGHT>
299.37

> <PUBCHEM_OPENEYE_CAN_SMILES>
CCCN1CCOC2C1CCC3=C2C=C(C=C3)C4=NNN=N4

> <PUBCHEM_OPENEYE_ISO_SMILES>
CCCN1CCO[C@H]2[C@H]1CCC3=C2C=C(C=C3)C4=NNN=N4

> <PUBCHEM_CACTVS_TPSA>
66.9

> <PUBCHEM_MONOISOTOPIC_WEIGHT>
299.17461031

> <PUBCHEM_TOTAL_CHARGE>
0

> <PUBCHEM_HEAVY_ATOM_COUNT>
22

> <PUBCHEM_ATOM_DEF_STEREO_COUNT>
2

> <PUBCHEM_ATOM_UDEF_STEREO_COUNT>
0

> <PUBCHEM_BOND_DEF_STEREO_COUNT>
0

> <PUBCHEM_BOND_UDEF_STEREO_COUNT>
0

> <PUBCHEM_ISOTOPIC_ATOM_COUNT>
0

> <PUBCHEM_COMPONENT_COUNT>
1

> <PUBCHEM_CACTVS_TAUTO_COUNT>
-1

> <PUBCHEM_COORDINATE_TYPE>
1
5
255

> <PUBCHEM_BONDANNOTATIONS>
10  13  8
10  16  8
13  18  8
16  19  8
18  20  8
19  20  8
3  22  8
3  5  8
4  22  8
4  6  8
5  6  8
7  23  5
8  24  6

$$$$
