71695973
  -OEChem-09292321582D

 53 55  0     1  0  0  0  0  0999 V2000
    3.4908    2.5158    0.0000 S   0  0  0  0  0  0  0  0  0  0  0  0
   10.7082   -3.1550    0.0000 O   0  0  0  0  0  0  0  0  0  0  0  0
    5.4499   -0.1791    0.0000 O   0  0  0  0  0  0  0  0  0  0  0  0
    6.3101    1.3242    0.0000 N   0  0  0  0  0  0  0  0  0  0  0  0
    8.9761   -0.1550    0.0000 N   0  0  0  0  0  0  0  0  0  0  0  0
    8.9761    2.8450    0.0000 N   0  0  0  0  0  0  0  0  0  0  0  0
    9.8422    1.3450    0.0000 N   0  0  0  0  0  0  0  0  0  0  0  0
   10.7082    2.8450    0.0000 N   0  0  0  0  0  0  0  0  0  0  0  0
    3.6661    0.9073    0.0000 N   0  0  0  0  0  0  0  0  0  0  0  0
    9.8422   -0.6550    0.0000 C   0  0  1  0  0  0  0  0  0  0  0  0
    8.1101    1.3450    0.0000 C   0  0  0  0  0  0  0  0  0  0  0  0
    7.2162    0.8103    0.0000 C   0  0  0  0  0  0  0  0  0  0  0  0
   10.7082   -0.1550    0.0000 C   0  0  0  0  0  0  0  0  0  0  0  0
    7.2162    2.8797    0.0000 C   0  0  0  0  0  0  0  0  0  0  0  0
    6.3101    2.3658    0.0000 C   0  0  0  0  0  0  0  0  0  0  0  0
    8.1101    2.3450    0.0000 C   0  0  0  0  0  0  0  0  0  0  0  0
    8.9761    0.8450    0.0000 C   0  0  0  0  0  0  0  0  0  0  0  0
    9.8422   -1.6550    0.0000 C   0  0  0  0  0  0  0  0  0  0  0  0
   11.5742   -0.6550    0.0000 C   0  0  0  0  0  0  0  0  0  0  0  0
   10.7082   -2.1550    0.0000 C   0  0  0  0  0  0  0  0  0  0  0  0
    5.4460    0.8208    0.0000 C   0  0  0  0  0  0  0  0  0  0  0  0
    9.8422    2.3450    0.0000 C   0  0  0  0  0  0  0  0  0  0  0  0
   12.4402   -0.1550    0.0000 C   0  0  0  0  0  0  0  0  0  0  0  0
    4.5781    1.3175    0.0000 C   0  0  0  0  0  0  0  0  0  0  0  0
    4.4697    2.3116    0.0000 C   0  0  0  0  0  0  0  0  0  0  0  0
    2.9941    1.6478    0.0000 C   0  0  0  0  0  0  0  0  0  0  0  0
    2.0000    1.5394    0.0000 C   0  0  0  0  0  0  0  0  0  0  0  0
    9.3052   -0.9650    0.0000 H   0  0  0  0  0  0  0  0  0  0  0  0
    6.8226    0.3313    0.0000 H   0  0  0  0  0  0  0  0  0  0  0  0
    7.6208    0.3406    0.0000 H   0  0  0  0  0  0  0  0  0  0  0  0
   11.1067    0.3199    0.0000 H   0  0  0  0  0  0  0  0  0  0  0  0
   10.3097    0.3199    0.0000 H   0  0  0  0  0  0  0  0  0  0  0  0
    7.6208    3.3494    0.0000 H   0  0  0  0  0  0  0  0  0  0  0  0
    6.8226    3.3587    0.0000 H   0  0  0  0  0  0  0  0  0  0  0  0
    6.1011    2.9495    0.0000 H   0  0  0  0  0  0  0  0  0  0  0  0
    5.6992    2.2597    0.0000 H   0  0  0  0  0  0  0  0  0  0  0  0
    9.2316   -1.5473    0.0000 H   0  0  0  0  0  0  0  0  0  0  0  0
    9.6301   -2.2376    0.0000 H   0  0  0  0  0  0  0  0  0  0  0  0
    8.4392   -0.4650    0.0000 H   0  0  0  0  0  0  0  0  0  0  0  0
   11.1757   -1.1300    0.0000 H   0  0  0  0  0  0  0  0  0  0  0  0
   11.9727   -1.1300    0.0000 H   0  0  0  0  0  0  0  0  0  0  0  0
   11.3188   -2.2627    0.0000 H   0  0  0  0  0  0  0  0  0  0  0  0
   10.9202   -1.5724    0.0000 H   0  0  0  0  0  0  0  0  0  0  0  0
   12.7502   -0.6919    0.0000 H   0  0  0  0  0  0  0  0  0  0  0  0
   12.9772    0.1550    0.0000 H   0  0  0  0  0  0  0  0  0  0  0  0
   12.1302    0.3819    0.0000 H   0  0  0  0  0  0  0  0  0  0  0  0
   11.2451   -3.4650    0.0000 H   0  0  0  0  0  0  0  0  0  0  0  0
   10.7082    3.4650    0.0000 H   0  0  0  0  0  0  0  0  0  0  0  0
   11.2451    2.5350    0.0000 H   0  0  0  0  0  0  0  0  0  0  0  0
    4.9289    2.7282    0.0000 H   0  0  0  0  0  0  0  0  0  0  0  0
    1.9328    2.1558    0.0000 H   0  0  0  0  0  0  0  0  0  0  0  0
    1.3836    1.4723    0.0000 H   0  0  0  0  0  0  0  0  0  0  0  0
    2.0672    0.9231    0.0000 H   0  0  0  0  0  0  0  0  0  0  0  0
  1 25  1  0  0  0  0
  1 26  1  0  0  0  0
  2 20  1  0  0  0  0
  2 47  1  0  0  0  0
  3 21  2  0  0  0  0
  4 12  1  0  0  0  0
  4 15  1  0  0  0  0
  4 21  1  0  0  0  0
 10  5  1  1  0  0  0
  5 17  1  0  0  0  0
  5 39  1  0  0  0  0
  6 16  1  0  0  0  0
  6 22  2  0  0  0  0
  7 17  2  0  0  0  0
  7 22  1  0  0  0  0
  8 22  1  0  0  0  0
  8 48  1  0  0  0  0
  8 49  1  0  0  0  0
  9 24  1  0  0  0  0
  9 26  2  0  0  0  0
 10 13  1  0  0  0  0
 10 18  1  0  0  0  0
 10 28  1  0  0  0  0
 11 12  1  0  0  0  0
 11 16  2  0  0  0  0
 11 17  1  0  0  0  0
 12 29  1  0  0  0  0
 12 30  1  0  0  0  0
 13 19  1  0  0  0  0
 13 31  1  0  0  0  0
 13 32  1  0  0  0  0
 14 15  1  0  0  0  0
 14 16  1  0  0  0  0
 14 33  1  0  0  0  0
 14 34  1  0  0  0  0
 15 35  1  0  0  0  0
 15 36  1  0  0  0  0
 18 20  1  0  0  0  0
 18 37  1  0  0  0  0
 18 38  1  0  0  0  0
 19 23  1  0  0  0  0
 19 40  1  0  0  0  0
 19 41  1  0  0  0  0
 20 42  1  0  0  0  0
 20 43  1  0  0  0  0
 21 24  1  0  0  0  0
 23 44  1  0  0  0  0
 23 45  1  0  0  0  0
 23 46  1  0  0  0  0
 24 25  2  0  0  0  0
 25 50  1  0  0  0  0
 26 27  1  0  0  0  0
 27 51  1  0  0  0  0
 27 52  1  0  0  0  0
 27 53  1  0  0  0  0
M  END
> <PUBCHEM_COMPOUND_CID>
71695973

> <PUBCHEM_COMPOUND_CANONICALIZED>
1

> <PUBCHEM_CACTVS_COMPLEXITY>
499

> <PUBCHEM_CACTVS_HBOND_ACCEPTOR>
8

> <PUBCHEM_CACTVS_HBOND_DONOR>
3

> <PUBCHEM_CACTVS_ROTATABLE_BOND>
7

> <PUBCHEM_CACTVS_SUBSKEYS>
AAADceB7sABAAAAAAAAAAAAAAAAAAWAAAAAsWAAAAAAAAACx4AAAHgQQCAAADCjl3gajsZfIEgisAwdydACA8KlnCrgBGLW4ZFiAeAJg2OGURAhulgLoSKOQQAAMAAAAAAAAAAAAAAAAAAAAAAAAAAAAAA==

> <PUBCHEM_IUPAC_OPENEYE_NAME>
[2-amino-4-[[(1S)-1-(2-hydroxyethyl)butyl]amino]-7,8-dihydro-5H-pyrido[4,3-d]pyrimidin-6-yl]-(2-methylthiazol-4-yl)methanone

> <PUBCHEM_IUPAC_CAS_NAME>
[2-amino-4-[[(3S)-1-hydroxyhexan-3-yl]amino]-7,8-dihydro-5H-pyrido[4,3-d]pyrimidin-6-yl]-(2-methyl-4-thiazolyl)methanone

> <PUBCHEM_IUPAC_NAME_MARKUP>
[2-amino-4-[[(3<I>S</I>)-1-hydroxyhexan-3-yl]amino]-7,8-dihydro-5<I>H</I>-pyrido[4,3-d]pyrimidin-6-yl]-(2-methyl-1,3-thiazol-4-yl)methanone

> <PUBCHEM_IUPAC_NAME>
[2-amino-4-[[(3S)-1-hydroxyhexan-3-yl]amino]-7,8-dihydro-5H-pyrido[4,3-d]pyrimidin-6-yl]-(2-methyl-1,3-thiazol-4-yl)methanone

> <PUBCHEM_IUPAC_SYSTEMATIC_NAME>
[2-azanyl-4-[[(3S)-1-oxidanylhexan-3-yl]amino]-7,8-dihydro-5H-pyrido[4,3-d]pyrimidin-6-yl]-(2-methyl-1,3-thiazol-4-yl)methanone

> <PUBCHEM_IUPAC_TRADITIONAL_NAME>
[2-amino-4-[[(1S)-1-(2-hydroxyethyl)butyl]amino]-7,8-dihydro-5H-pyrido[4,3-d]pyrimidin-6-yl]-(2-methylthiazol-4-yl)methanone

> <PUBCHEM_IUPAC_INCHI>
InChI=1S/C18H26N6O2S/c1-3-4-12(6-8-25)21-16-13-9-24(7-5-14(13)22-18(19)23-16)17(26)15-10-27-11(2)20-15/h10,12,25H,3-9H2,1-2H3,(H3,19,21,22,23)/t12-/m0/s1

> <PUBCHEM_IUPAC_INCHIKEY>
NGQVCINKVAWYDL-LBPRGKRZSA-N

> <PUBCHEM_XLOGP3_AA>
2.5

> <PUBCHEM_EXACT_MASS>
390.18379527

> <PUBCHEM_MOLECULAR_FORMULA>
C18H26N6O2S

> <PUBCHEM_MOLECULAR_WEIGHT>
390.5

> <PUBCHEM_OPENEYE_CAN_SMILES>
CCCC(CCO)NC1=NC(=NC2=C1CN(CC2)C(=O)C3=CSC(=N3)C)N

> <PUBCHEM_OPENEYE_ISO_SMILES>
CCC[C@@H](CCO)NC1=NC(=NC2=C1CN(CC2)C(=O)C3=CSC(=N3)C)N

> <PUBCHEM_CACTVS_TPSA>
146

> <PUBCHEM_MONOISOTOPIC_WEIGHT>
390.18379527

> <PUBCHEM_TOTAL_CHARGE>
0

> <PUBCHEM_HEAVY_ATOM_COUNT>
27

> <PUBCHEM_ATOM_DEF_STEREO_COUNT>
1

> <PUBCHEM_ATOM_UDEF_STEREO_COUNT>
0

> <PUBCHEM_BOND_DEF_STEREO_COUNT>
0

> <PUBCHEM_BOND_UDEF_STEREO_COUNT>
0

> <PUBCHEM_ISOTOPIC_ATOM_COUNT>
0

> <PUBCHEM_COMPONENT_COUNT>
1

> <PUBCHEM_CACTVS_TAUTO_COUNT>
-1

> <PUBCHEM_COORDINATE_TYPE>
1
5
255

> <PUBCHEM_BONDANNOTATIONS>
1  25  8
1  26  8
11  16  8
11  17  8
24  25  8
10  5  5
6  16  8
6  22  8
7  17  8
7  22  8
9  24  8
9  26  8

$$$$
