11584660
  -OEChem-09292322242D

 74 79  0     1  0  0  0  0  0999 V2000
    9.0604   -0.8736    0.0000 S   0  0  0  0  0  0  0  0  0  0  0  0
   12.0604    0.8584    0.0000 N   0  0  3  0  0  0  0  0  0  0  0  0
   17.0158    2.8775    0.0000 N   0  0  0  0  0  0  0  0  0  0  0  0
   17.9932    3.0892    0.0000 N   0  0  0  0  0  0  0  0  0  0  0  0
    7.4726   -1.6827    0.0000 N   0  0  0  0  0  0  0  0  0  0  0  0
    7.4726   -0.0646    0.0000 N   0  0  0  0  0  0  0  0  0  0  0  0
    6.5215   -0.3736    0.0000 N   0  0  0  0  0  0  0  0  0  0  0  0
    3.0320   -1.7335    0.0000 N   0  0  0  0  0  0  0  0  0  0  0  0
   12.4943    1.7594    0.0000 C   0  0  0  0  0  0  0  0  0  0  0  0
   12.4943   -0.0426    0.0000 C   0  0  0  0  0  0  0  0  0  0  0  0
   13.4692    1.9819    0.0000 C   0  0  0  0  0  0  0  0  0  0  0  0
   13.4692   -0.2651    0.0000 C   0  0  0  0  0  0  0  0  0  0  0  0
   14.2510    1.3584    0.0000 C   0  0  0  0  0  0  0  0  0  0  0  0
   14.2510    0.3584    0.0000 C   0  0  0  0  0  0  0  0  0  0  0  0
   11.0604    0.8584    0.0000 C   0  0  0  0  0  0  0  0  0  0  0  0
   10.5604   -0.0076    0.0000 C   0  0  0  0  0  0  0  0  0  0  0  0
   15.1450    1.8931    0.0000 C   0  0  0  0  0  0  0  0  0  0  0  0
   15.1450   -0.1763    0.0000 C   0  0  0  0  0  0  0  0  0  0  0  0
   16.0510    1.3792    0.0000 C   0  0  0  0  0  0  0  0  0  0  0  0
   16.0510    0.3376    0.0000 C   0  0  0  0  0  0  0  0  0  0  0  0
    9.5604   -0.0076    0.0000 C   0  0  0  0  0  0  0  0  0  0  0  0
   16.9151    1.8826    0.0000 C   0  0  0  0  0  0  0  0  0  0  0  0
   17.8302    1.4793    0.0000 C   0  0  0  0  0  0  0  0  0  0  0  0
   18.4965    2.2251    0.0000 C   0  0  0  0  0  0  0  0  0  0  0  0
    8.0604   -0.8736    0.0000 C   0  0  0  0  0  0  0  0  0  0  0  0
   16.2701    3.5437    0.0000 C   0  0  0  0  0  0  0  0  0  0  0  0
    6.5215   -1.3736    0.0000 C   0  0  0  0  0  0  0  0  0  0  0  0
   19.4914    2.1244    0.0000 C   0  0  0  0  0  0  0  0  0  0  0  0
    5.7125   -1.9614    0.0000 C   0  0  0  0  0  0  0  0  0  0  0  0
    4.7990   -1.5547    0.0000 C   0  0  0  0  0  0  0  0  0  0  0  0
    7.7816   -2.6337    0.0000 C   0  0  0  0  0  0  0  0  0  0  0  0
    3.9900   -2.1425    0.0000 C   0  0  0  0  0  0  0  0  0  0  0  0
    5.8171   -2.9560    0.0000 C   0  0  0  0  0  0  0  0  0  0  0  0
    4.7061   -0.5172    0.0000 C   0  0  0  0  0  0  0  0  0  0  0  0
    4.0945   -3.1370    0.0000 C   0  0  0  0  0  0  0  0  0  0  0  0
    5.0080   -3.5437    0.0000 C   0  0  0  0  0  0  0  0  0  0  0  0
    3.7578   -0.0862    0.0000 C   0  0  0  0  0  0  0  0  0  0  0  0
    2.9151   -0.6985    0.0000 C   0  0  0  0  0  0  0  0  0  0  0  0
    2.0000   -0.2953    0.0000 C   0  0  0  0  0  0  0  0  0  0  0  0
   12.4943    2.3794    0.0000 H   0  0  0  0  0  0  0  0  0  0  0  0
   11.8898    1.8973    0.0000 H   0  0  0  0  0  0  0  0  0  0  0  0
   11.8898   -0.1805    0.0000 H   0  0  0  0  0  0  0  0  0  0  0  0
   12.4943   -0.6626    0.0000 H   0  0  0  0  0  0  0  0  0  0  0  0
   13.9539    2.3685    0.0000 H   0  0  0  0  0  0  0  0  0  0  0  0
   13.2002    2.5405    0.0000 H   0  0  0  0  0  0  0  0  0  0  0  0
   13.2002   -0.8237    0.0000 H   0  0  0  0  0  0  0  0  0  0  0  0
   13.9539   -0.6516    0.0000 H   0  0  0  0  0  0  0  0  0  0  0  0
   11.1680    1.4690    0.0000 H   0  0  0  0  0  0  0  0  0  0  0  0
   10.4778    1.0705    0.0000 H   0  0  0  0  0  0  0  0  0  0  0  0
   10.4527   -0.6182    0.0000 H   0  0  0  0  0  0  0  0  0  0  0  0
   11.1430   -0.2197    0.0000 H   0  0  0  0  0  0  0  0  0  0  0  0
   15.1378    2.5130    0.0000 H   0  0  0  0  0  0  0  0  0  0  0  0
   15.1378   -0.7962    0.0000 H   0  0  0  0  0  0  0  0  0  0  0  0
   16.5868    0.0255    0.0000 H   0  0  0  0  0  0  0  0  0  0  0  0
    9.6680    0.6030    0.0000 H   0  0  0  0  0  0  0  0  0  0  0  0
    8.9778    0.2044    0.0000 H   0  0  0  0  0  0  0  0  0  0  0  0
   17.9615    0.8734    0.0000 H   0  0  0  0  0  0  0  0  0  0  0  0
   16.6832    4.0061    0.0000 H   0  0  0  0  0  0  0  0  0  0  0  0
   15.8078    3.9568    0.0000 H   0  0  0  0  0  0  0  0  0  0  0  0
   15.8570    3.0814    0.0000 H   0  0  0  0  0  0  0  0  0  0  0  0
   19.4290    1.5075    0.0000 H   0  0  0  0  0  0  0  0  0  0  0  0
   20.1083    2.0619    0.0000 H   0  0  0  0  0  0  0  0  0  0  0  0
   19.5538    2.7412    0.0000 H   0  0  0  0  0  0  0  0  0  0  0  0
    7.1920   -2.8253    0.0000 H   0  0  0  0  0  0  0  0  0  0  0  0
    7.9732   -3.2234    0.0000 H   0  0  0  0  0  0  0  0  0  0  0  0
    8.3713   -2.4421    0.0000 H   0  0  0  0  0  0  0  0  0  0  0  0
    6.3834   -3.2081    0.0000 H   0  0  0  0  0  0  0  0  0  0  0  0
    5.2119   -0.1586    0.0000 H   0  0  0  0  0  0  0  0  0  0  0  0
    3.5929   -3.5014    0.0000 H   0  0  0  0  0  0  0  0  0  0  0  0
    5.0728   -4.1603    0.0000 H   0  0  0  0  0  0  0  0  0  0  0  0
    3.6954    0.5306    0.0000 H   0  0  0  0  0  0  0  0  0  0  0  0
    2.2500    0.2721    0.0000 H   0  0  0  0  0  0  0  0  0  0  0  0
    1.4326   -0.0453    0.0000 H   0  0  0  0  0  0  0  0  0  0  0  0
    1.7500   -0.8626    0.0000 H   0  0  0  0  0  0  0  0  0  0  0  0
  1 21  1  0  0  0  0
  1 25  1  0  0  0  0
  2  9  1  0  0  0  0
  2 10  1  0  0  0  0
  2 15  1  0  0  0  0
  3  4  1  0  0  0  0
  3 22  1  0  0  0  0
  3 26  1  0  0  0  0
  4 24  2  0  0  0  0
  5 25  1  0  0  0  0
  5 27  1  0  0  0  0
  5 31  1  0  0  0  0
  6  7  1  0  0  0  0
  6 25  2  0  0  0  0
  7 27  2  0  0  0  0
  8 32  1  0  0  0  0
  8 38  2  0  0  0  0
  9 11  1  0  0  0  0
  9 40  1  0  0  0  0
  9 41  1  0  0  0  0
 10 12  1  0  0  0  0
 10 42  1  0  0  0  0
 10 43  1  0  0  0  0
 11 13  1  0  0  0  0
 11 44  1  0  0  0  0
 11 45  1  0  0  0  0
 12 14  1  0  0  0  0
 12 46  1  0  0  0  0
 12 47  1  0  0  0  0
 13 14  2  0  0  0  0
 13 17  1  0  0  0  0
 14 18  1  0  0  0  0
 15 16  1  0  0  0  0
 15 48  1  0  0  0  0
 15 49  1  0  0  0  0
 16 21  1  0  0  0  0
 16 50  1  0  0  0  0
 16 51  1  0  0  0  0
 17 19  2  0  0  0  0
 17 52  1  0  0  0  0
 18 20  2  0  0  0  0
 18 53  1  0  0  0  0
 19 20  1  0  0  0  0
 19 22  1  0  0  0  0
 20 54  1  0  0  0  0
 21 55  1  0  0  0  0
 21 56  1  0  0  0  0
 22 23  2  0  0  0  0
 23 24  1  0  0  0  0
 23 57  1  0  0  0  0
 24 28  1  0  0  0  0
 26 58  1  0  0  0  0
 26 59  1  0  0  0  0
 26 60  1  0  0  0  0
 27 29  1  0  0  0  0
 28 61  1  0  0  0  0
 28 62  1  0  0  0  0
 28 63  1  0  0  0  0
 29 30  2  0  0  0  0
 29 33  1  0  0  0  0
 30 32  1  0  0  0  0
 30 34  1  0  0  0  0
 31 64  1  0  0  0  0
 31 65  1  0  0  0  0
 31 66  1  0  0  0  0
 32 35  2  0  0  0  0
 33 36  2  0  0  0  0
 33 67  1  0  0  0  0
 34 37  2  0  0  0  0
 34 68  1  0  0  0  0
 35 36  1  0  0  0  0
 35 69  1  0  0  0  0
 36 70  1  0  0  0  0
 37 38  1  0  0  0  0
 37 71  1  0  0  0  0
 38 39  1  0  0  0  0
 39 72  1  0  0  0  0
 39 73  1  0  0  0  0
 39 74  1  0  0  0  0
M  END
> <PUBCHEM_COMPOUND_CID>
11584660

> <PUBCHEM_COMPOUND_CANONICALIZED>
1

> <PUBCHEM_CACTVS_COMPLEXITY>
786

> <PUBCHEM_CACTVS_HBOND_ACCEPTOR>
6

> <PUBCHEM_CACTVS_HBOND_DONOR>
0

> <PUBCHEM_CACTVS_ROTATABLE_BOND>
7

> <PUBCHEM_CACTVS_SUBSKEYS>
AAADcfB7gABAAAAAAAAAAAAAAAAAAWLAAAA8YIAABYAAAACx/gAAHAQIAAAADAjFXwSz0PcMEAiiAyZiZACS1CthgrAd2CA4ZJiIKOLg2dGEpAhgiALIyAcQgMAOwAACQAASAACAAASAACQAAAAAAAAAAA==

> <PUBCHEM_IUPAC_OPENEYE_NAME>
7-(2,5-dimethylpyrazol-3-yl)-3-[3-[[4-methyl-5-(2-methyl-5-quinolyl)-1,2,4-triazol-3-yl]sulfanyl]propyl]-1,2,4,5-tetrahydro-3-benzazepine

> <PUBCHEM_IUPAC_CAS_NAME>
7-(2,5-dimethyl-3-pyrazolyl)-3-[3-[[4-methyl-5-(2-methyl-5-quinolinyl)-1,2,4-triazol-3-yl]thio]propyl]-1,2,4,5-tetrahydro-3-benzazepine

> <PUBCHEM_IUPAC_NAME_MARKUP>
7-(2,5-dimethylpyrazol-3-yl)-3-[3-[[4-methyl-5-(2-methylquinolin-5-yl)-1,2,4-triazol-3-yl]sulfanyl]propyl]-1,2,4,5-tetrahydro-3-benzazepine

> <PUBCHEM_IUPAC_NAME>
7-(2,5-dimethylpyrazol-3-yl)-3-[3-[[4-methyl-5-(2-methylquinolin-5-yl)-1,2,4-triazol-3-yl]sulfanyl]propyl]-1,2,4,5-tetrahydro-3-benzazepine

> <PUBCHEM_IUPAC_SYSTEMATIC_NAME>
7-(2,5-dimethylpyrazol-3-yl)-3-[3-[[4-methyl-5-(2-methylquinolin-5-yl)-1,2,4-triazol-3-yl]sulfanyl]propyl]-1,2,4,5-tetrahydro-3-benzazepine

> <PUBCHEM_IUPAC_TRADITIONAL_NAME>
7-(2,5-dimethylpyrazol-3-yl)-3-[3-[[4-methyl-5-(2-methyl-5-quinolyl)-1,2,4-triazol-3-yl]thio]propyl]-1,2,4,5-tetrahydro-3-benzazepine

> <PUBCHEM_IUPAC_INCHI>
InChI=1S/C31H35N7S/c1-21-9-12-26-27(7-5-8-28(26)32-21)30-33-34-31(36(30)3)39-18-6-15-38-16-13-23-10-11-25(20-24(23)14-17-38)29-19-22(2)35-37(29)4/h5,7-12,19-20H,6,13-18H2,1-4H3

> <PUBCHEM_IUPAC_INCHIKEY>
WIHMMKGUBDZGEG-UHFFFAOYSA-N

> <PUBCHEM_XLOGP3_AA>
5.4

> <PUBCHEM_EXACT_MASS>
537.26746532

> <PUBCHEM_MOLECULAR_FORMULA>
C31H35N7S

> <PUBCHEM_MOLECULAR_WEIGHT>
537.7

> <PUBCHEM_OPENEYE_CAN_SMILES>
CC1=NC2=CC=CC(=C2C=C1)C3=NN=C(N3C)SCCCN4CCC5=C(CC4)C=C(C=C5)C6=CC(=NN6C)C

> <PUBCHEM_OPENEYE_ISO_SMILES>
CC1=NC2=CC=CC(=C2C=C1)C3=NN=C(N3C)SCCCN4CCC5=C(CC4)C=C(C=C5)C6=CC(=NN6C)C

> <PUBCHEM_CACTVS_TPSA>
90

> <PUBCHEM_MONOISOTOPIC_WEIGHT>
537.26746532

> <PUBCHEM_TOTAL_CHARGE>
0

> <PUBCHEM_HEAVY_ATOM_COUNT>
39

> <PUBCHEM_ATOM_DEF_STEREO_COUNT>
0

> <PUBCHEM_ATOM_UDEF_STEREO_COUNT>
0

> <PUBCHEM_BOND_DEF_STEREO_COUNT>
0

> <PUBCHEM_BOND_UDEF_STEREO_COUNT>
0

> <PUBCHEM_ISOTOPIC_ATOM_COUNT>
0

> <PUBCHEM_COMPONENT_COUNT>
1

> <PUBCHEM_CACTVS_TAUTO_COUNT>
-1

> <PUBCHEM_COORDINATE_TYPE>
1
5
255

> <PUBCHEM_BONDANNOTATIONS>
13  14  8
13  17  8
14  18  8
17  19  8
18  20  8
19  20  8
22  23  8
23  24  8
29  30  8
29  33  8
3  22  8
3  4  8
30  32  8
30  34  8
32  35  8
33  36  8
34  37  8
35  36  8
37  38  8
4  24  8
5  25  8
5  27  8
6  25  8
6  7  8
7  27  8
8  32  8
8  38  8

$$$$
