137655795
  -OEChem-09292322392D

 64 68  0     0  0  0  0  0  0999 V2000
    9.0021    4.0880    0.0000 O   0  0  0  0  0  0  0  0  0  0  0  0
    9.0021    6.1573    0.0000 O   0  0  0  0  0  0  0  0  0  0  0  0
    5.5101   -2.8774    0.0000 O   0  0  0  0  0  0  0  0  0  0  0  0
    7.2422    7.1226    0.0000 O   0  0  0  0  0  0  0  0  0  0  0  0
    2.8757   -7.4326    0.0000 O   0  0  0  0  0  0  0  0  0  0  0  0
    7.2422    1.1226    0.0000 N   0  0  0  0  0  0  0  0  0  0  0  0
    7.2422    3.1226    0.0000 N   0  0  0  0  0  0  0  0  0  0  0  0
    3.7359   -5.9293    0.0000 N   0  0  0  0  0  0  0  0  0  0  0  0
    6.3761    1.6226    0.0000 C   0  0  0  0  0  0  0  0  0  0  0  0
    8.1082    1.6226    0.0000 C   0  0  0  0  0  0  0  0  0  0  0  0
    6.3761    2.6226    0.0000 C   0  0  0  0  0  0  0  0  0  0  0  0
    8.1082    2.6226    0.0000 C   0  0  0  0  0  0  0  0  0  0  0  0
    7.2422    0.1226    0.0000 C   0  0  0  0  0  0  0  0  0  0  0  0
    6.3761   -0.3774    0.0000 C   0  0  0  0  0  0  0  0  0  0  0  0
    7.2422    4.1226    0.0000 C   0  0  0  0  0  0  0  0  0  0  0  0
    6.3761   -1.3774    0.0000 C   0  0  0  0  0  0  0  0  0  0  0  0
    8.1082    4.6226    0.0000 C   0  0  0  0  0  0  0  0  0  0  0  0
    6.3761    4.6226    0.0000 C   0  0  0  0  0  0  0  0  0  0  0  0
    5.5101   -1.8774    0.0000 C   0  0  0  0  0  0  0  0  0  0  0  0
    8.1082    5.6226    0.0000 C   0  0  0  0  0  0  0  0  0  0  0  0
    6.3761    5.6226    0.0000 C   0  0  0  0  0  0  0  0  0  0  0  0
    7.2422    6.1226    0.0000 C   0  0  0  0  0  0  0  0  0  0  0  0
    9.9082    4.6018    0.0000 C   0  0  0  0  0  0  0  0  0  0  0  0
    9.9082    5.6435    0.0000 C   0  0  0  0  0  0  0  0  0  0  0  0
    2.8641   -4.4327    0.0000 C   0  0  0  0  0  0  0  0  0  0  0  0
    4.6441   -3.3774    0.0000 C   0  0  0  0  0  0  0  0  0  0  0  0
    2.0000   -4.9360    0.0000 C   0  0  0  0  0  0  0  0  0  0  0  0
    3.7320   -4.9293    0.0000 C   0  0  0  0  0  0  0  0  0  0  0  0
    2.0038   -5.9360    0.0000 C   0  0  0  0  0  0  0  0  0  0  0  0
    4.6401   -4.4190    0.0000 C   0  0  0  0  0  0  0  0  0  0  0  0
    2.8440   -3.3912    0.0000 C   0  0  0  0  0  0  0  0  0  0  0  0
    3.7400   -2.8600    0.0000 C   0  0  0  0  0  0  0  0  0  0  0  0
    2.8718   -6.4326    0.0000 C   0  0  0  0  0  0  0  0  0  0  0  0
    5.7656    1.7303    0.0000 H   0  0  0  0  0  0  0  0  0  0  0  0
    6.1641    1.0400    0.0000 H   0  0  0  0  0  0  0  0  0  0  0  0
    8.3202    1.0400    0.0000 H   0  0  0  0  0  0  0  0  0  0  0  0
    8.7188    1.7303    0.0000 H   0  0  0  0  0  0  0  0  0  0  0  0
    6.1641    3.2053    0.0000 H   0  0  0  0  0  0  0  0  0  0  0  0
    5.7656    2.5150    0.0000 H   0  0  0  0  0  0  0  0  0  0  0  0
    8.7188    2.5150    0.0000 H   0  0  0  0  0  0  0  0  0  0  0  0
    8.3202    3.2053    0.0000 H   0  0  0  0  0  0  0  0  0  0  0  0
    7.4542   -0.4600    0.0000 H   0  0  0  0  0  0  0  0  0  0  0  0
    7.8528    0.2303    0.0000 H   0  0  0  0  0  0  0  0  0  0  0  0
    6.1641    0.2053    0.0000 H   0  0  0  0  0  0  0  0  0  0  0  0
    5.7656   -0.4850    0.0000 H   0  0  0  0  0  0  0  0  0  0  0  0
    6.5882   -1.9600    0.0000 H   0  0  0  0  0  0  0  0  0  0  0  0
    6.9867   -1.2697    0.0000 H   0  0  0  0  0  0  0  0  0  0  0  0
    5.8392    4.3126    0.0000 H   0  0  0  0  0  0  0  0  0  0  0  0
    5.2981   -1.2947    0.0000 H   0  0  0  0  0  0  0  0  0  0  0  0
    4.8995   -1.9850    0.0000 H   0  0  0  0  0  0  0  0  0  0  0  0
    5.8392    5.9326    0.0000 H   0  0  0  0  0  0  0  0  0  0  0  0
   10.1173    4.0181    0.0000 H   0  0  0  0  0  0  0  0  0  0  0  0
   10.5191    4.7079    0.0000 H   0  0  0  0  0  0  0  0  0  0  0  0
   10.5191    5.5374    0.0000 H   0  0  0  0  0  0  0  0  0  0  0  0
   10.1173    6.2272    0.0000 H   0  0  0  0  0  0  0  0  0  0  0  0
    1.7857   -4.3542    0.0000 H   0  0  0  0  0  0  0  0  0  0  0  0
    1.3898   -5.0460    0.0000 H   0  0  0  0  0  0  0  0  0  0  0  0
    1.3929   -5.8307    0.0000 H   0  0  0  0  0  0  0  0  0  0  0  0
    1.7940   -6.5194    0.0000 H   0  0  0  0  0  0  0  0  0  0  0  0
    5.1746   -4.7331    0.0000 H   0  0  0  0  0  0  0  0  0  0  0  0
    2.3024   -3.0896    0.0000 H   0  0  0  0  0  0  0  0  0  0  0  0
    3.7352   -2.2400    0.0000 H   0  0  0  0  0  0  0  0  0  0  0  0
    4.2740   -6.2373    0.0000 H   0  0  0  0  0  0  0  0  0  0  0  0
    6.7052    7.4326    0.0000 H   0  0  0  0  0  0  0  0  0  0  0  0
  1 17  1  0  0  0  0
  1 23  1  0  0  0  0
  2 20  1  0  0  0  0
  2 24  1  0  0  0  0
  3 19  1  0  0  0  0
  3 26  1  0  0  0  0
  4 22  1  0  0  0  0
  4 64  1  0  0  0  0
  5 33  2  0  0  0  0
  6  9  1  0  0  0  0
  6 10  1  0  0  0  0
  6 13  1  0  0  0  0
  7 11  1  0  0  0  0
  7 12  1  0  0  0  0
  7 15  1  0  0  0  0
  8 28  1  0  0  0  0
  8 33  1  0  0  0  0
  8 63  1  0  0  0  0
  9 11  1  0  0  0  0
  9 34  1  0  0  0  0
  9 35  1  0  0  0  0
 10 12  1  0  0  0  0
 10 36  1  0  0  0  0
 10 37  1  0  0  0  0
 11 38  1  0  0  0  0
 11 39  1  0  0  0  0
 12 40  1  0  0  0  0
 12 41  1  0  0  0  0
 13 14  1  0  0  0  0
 13 42  1  0  0  0  0
 13 43  1  0  0  0  0
 14 16  1  0  0  0  0
 14 44  1  0  0  0  0
 14 45  1  0  0  0  0
 15 17  2  0  0  0  0
 15 18  1  0  0  0  0
 16 19  1  0  0  0  0
 16 46  1  0  0  0  0
 16 47  1  0  0  0  0
 17 20  1  0  0  0  0
 18 21  2  0  0  0  0
 18 48  1  0  0  0  0
 19 49  1  0  0  0  0
 19 50  1  0  0  0  0
 20 22  2  0  0  0  0
 21 22  1  0  0  0  0
 21 51  1  0  0  0  0
 23 24  1  0  0  0  0
 23 52  1  0  0  0  0
 23 53  1  0  0  0  0
 24 54  1  0  0  0  0
 24 55  1  0  0  0  0
 25 27  1  0  0  0  0
 25 28  2  0  0  0  0
 25 31  1  0  0  0  0
 26 30  2  0  0  0  0
 26 32  1  0  0  0  0
 27 29  1  0  0  0  0
 27 56  1  0  0  0  0
 27 57  1  0  0  0  0
 28 30  1  0  0  0  0
 29 33  1  0  0  0  0
 29 58  1  0  0  0  0
 29 59  1  0  0  0  0
 30 60  1  0  0  0  0
 31 32  2  0  0  0  0
 31 61  1  0  0  0  0
 32 62  1  0  0  0  0
M  END
> <PUBCHEM_COMPOUND_CID>
137655795

> <PUBCHEM_COMPOUND_CANONICALIZED>
1

> <PUBCHEM_CACTVS_COMPLEXITY>
644

> <PUBCHEM_CACTVS_HBOND_ACCEPTOR>
7

> <PUBCHEM_CACTVS_HBOND_DONOR>
2

> <PUBCHEM_CACTVS_ROTATABLE_BOND>
7

> <PUBCHEM_CACTVS_SUBSKEYS>
AAADceB7OAAAAAAAAAAAAAAAAAAAAAAAAAA8eJECAAAAAACxQAAAHgAQCAAADAzhmAYwxoPABgCIAiVSUACCCAAhIgAIiAEP7IgPZzLGsZuXeCvn1B3b+Ae4+a+eIEAACgACUABAgAAUAASgAAAAAAAAAA==

> <PUBCHEM_IUPAC_OPENEYE_NAME>
7-[4-[4-(5-hydroxy-2,3-dihydro-1,4-benzodioxin-8-yl)piperazin-1-yl]butoxy]-3,4-dihydro-1H-quinolin-2-one

> <PUBCHEM_IUPAC_CAS_NAME>
7-[4-[4-(5-hydroxy-2,3-dihydro-1,4-benzodioxin-8-yl)-1-piperazinyl]butoxy]-3,4-dihydro-1H-quinolin-2-one

> <PUBCHEM_IUPAC_NAME_MARKUP>
7-[4-[4-(5-hydroxy-2,3-dihydro-1,4-benzodioxin-8-yl)piperazin-1-yl]butoxy]-3,4-dihydro-1<I>H</I>-quinolin-2-one

> <PUBCHEM_IUPAC_NAME>
7-[4-[4-(5-hydroxy-2,3-dihydro-1,4-benzodioxin-8-yl)piperazin-1-yl]butoxy]-3,4-dihydro-1H-quinolin-2-one

> <PUBCHEM_IUPAC_SYSTEMATIC_NAME>
7-[4-[4-(5-oxidanyl-2,3-dihydro-1,4-benzodioxin-8-yl)piperazin-1-yl]butoxy]-3,4-dihydro-1H-quinolin-2-one

> <PUBCHEM_IUPAC_TRADITIONAL_NAME>
7-[4-[4-(5-hydroxy-2,3-dihydro-1,4-benzodioxin-8-yl)piperazino]butoxy]-3,4-dihydrocarbostyril

> <PUBCHEM_IUPAC_INCHI>
InChI=1S/C25H31N3O5/c29-22-7-6-21(24-25(22)33-16-15-32-24)28-12-10-27(11-13-28)9-1-2-14-31-19-5-3-18-4-8-23(30)26-20(18)17-19/h3,5-7,17,29H,1-2,4,8-16H2,(H,26,30)

> <PUBCHEM_IUPAC_INCHIKEY>
VAGLBALSMGUHAJ-UHFFFAOYSA-N

> <PUBCHEM_XLOGP3_AA>
2.7

> <PUBCHEM_EXACT_MASS>
453.22637110

> <PUBCHEM_MOLECULAR_FORMULA>
C25H31N3O5

> <PUBCHEM_MOLECULAR_WEIGHT>
453.5

> <PUBCHEM_OPENEYE_CAN_SMILES>
C1CC(=O)NC2=C1C=CC(=C2)OCCCCN3CCN(CC3)C4=C5C(=C(C=C4)O)OCCO5

> <PUBCHEM_OPENEYE_ISO_SMILES>
C1CC(=O)NC2=C1C=CC(=C2)OCCCCN3CCN(CC3)C4=C5C(=C(C=C4)O)OCCO5

> <PUBCHEM_CACTVS_TPSA>
83.5

> <PUBCHEM_MONOISOTOPIC_WEIGHT>
453.22637110

> <PUBCHEM_TOTAL_CHARGE>
0

> <PUBCHEM_HEAVY_ATOM_COUNT>
33

> <PUBCHEM_ATOM_DEF_STEREO_COUNT>
0

> <PUBCHEM_ATOM_UDEF_STEREO_COUNT>
0

> <PUBCHEM_BOND_DEF_STEREO_COUNT>
0

> <PUBCHEM_BOND_UDEF_STEREO_COUNT>
0

> <PUBCHEM_ISOTOPIC_ATOM_COUNT>
0

> <PUBCHEM_COMPONENT_COUNT>
1

> <PUBCHEM_CACTVS_TAUTO_COUNT>
-1

> <PUBCHEM_COORDINATE_TYPE>
1
5
255

> <PUBCHEM_BONDANNOTATIONS>
15  17  8
15  18  8
17  20  8
18  21  8
20  22  8
21  22  8
25  28  8
25  31  8
26  30  8
26  32  8
28  30  8
31  32  8

$$$$
