117870976
  -OEChem-09292322352D

 72 75  0     0  0  0  0  0  0999 V2000
   16.2619   -4.1581    0.0000 F   0  0  0  0  0  0  0  0  0  0  0  0
   16.6279   -2.7920    0.0000 F   0  0  0  0  0  0  0  0  0  0  0  0
   14.8959   -3.7920    0.0000 F   0  0  0  0  0  0  0  0  0  0  0  0
    6.7619    1.9041    0.0000 O   0  0  0  0  0  0  0  0  0  0  0  0
    2.0000    3.5381    0.0000 O   0  0  0  0  0  0  0  0  0  0  0  0
   10.7619   -1.5600    0.0000 N   0  0  0  0  0  0  0  0  0  0  0  0
   12.7619   -1.5600    0.0000 N   0  0  0  0  0  0  0  0  0  0  0  0
   14.2619   -0.6940    0.0000 N   0  0  0  0  0  0  0  0  0  0  0  0
   15.7619   -1.5600    0.0000 N   0  0  0  0  0  0  0  0  0  0  0  0
    6.7619    0.1721    0.0000 N   0  0  0  0  0  0  0  0  0  0  0  0
    3.7320    1.5381    0.0000 N   0  0  0  0  0  0  0  0  0  0  0  0
    4.6783    0.2333    0.0000 N   0  0  0  0  0  0  0  0  0  0  0  0
   11.2619   -2.4260    0.0000 C   0  0  0  0  0  0  0  0  0  0  0  0
   11.2619   -0.6940    0.0000 C   0  0  0  0  0  0  0  0  0  0  0  0
   12.2619   -2.4260    0.0000 C   0  0  0  0  0  0  0  0  0  0  0  0
   12.2619   -0.6940    0.0000 C   0  0  0  0  0  0  0  0  0  0  0  0
    9.7619   -1.5600    0.0000 C   0  0  0  0  0  0  0  0  0  0  0  0
    9.2619   -0.6940    0.0000 C   0  0  0  0  0  0  0  0  0  0  0  0
   13.7619   -1.5600    0.0000 C   0  0  0  0  0  0  0  0  0  0  0  0
    8.2619   -0.6940    0.0000 C   0  0  0  0  0  0  0  0  0  0  0  0
   15.7619    0.1721    0.0000 C   0  0  0  0  0  0  0  0  0  0  0  0
   15.2619   -0.6940    0.0000 C   0  0  0  0  0  0  0  0  0  0  0  0
   14.2619   -2.4260    0.0000 C   0  0  0  0  0  0  0  0  0  0  0  0
    7.7619    0.1721    0.0000 C   0  0  0  0  0  0  0  0  0  0  0  0
   15.2619   -2.4260    0.0000 C   0  0  0  0  0  0  0  0  0  0  0  0
   16.2619    1.0381    0.0000 C   0  0  0  0  0  0  0  0  0  0  0  0
   16.6279   -0.3279    0.0000 C   0  0  0  0  0  0  0  0  0  0  0  0
   14.8959    0.6721    0.0000 C   0  0  0  0  0  0  0  0  0  0  0  0
   15.7619   -3.2920    0.0000 C   0  0  0  0  0  0  0  0  0  0  0  0
    6.2619    1.0381    0.0000 C   0  0  0  0  0  0  0  0  0  0  0  0
    5.2619    1.0381    0.0000 C   0  0  0  0  0  0  0  0  0  0  0  0
    4.6783    1.8428    0.0000 C   0  0  0  0  0  0  0  0  0  0  0  0
    3.7320    0.5381    0.0000 C   0  0  0  0  0  0  0  0  0  0  0  0
    2.8660    2.0381    0.0000 C   0  0  0  0  0  0  0  0  0  0  0  0
    2.8660    0.0381    0.0000 C   0  0  0  0  0  0  0  0  0  0  0  0
    2.0000    1.5381    0.0000 C   0  0  0  0  0  0  0  0  0  0  0  0
    2.8660    3.0381    0.0000 C   0  0  0  0  0  0  0  0  0  0  0  0
    2.0000    0.5381    0.0000 C   0  0  0  0  0  0  0  0  0  0  0  0
   10.6793   -2.6381    0.0000 H   0  0  0  0  0  0  0  0  0  0  0  0
   11.3695   -3.0366    0.0000 H   0  0  0  0  0  0  0  0  0  0  0  0
   11.3695   -0.0834    0.0000 H   0  0  0  0  0  0  0  0  0  0  0  0
   10.6793   -0.4819    0.0000 H   0  0  0  0  0  0  0  0  0  0  0  0
   12.1542   -3.0366    0.0000 H   0  0  0  0  0  0  0  0  0  0  0  0
   12.8445   -2.6381    0.0000 H   0  0  0  0  0  0  0  0  0  0  0  0
   12.8445   -0.4819    0.0000 H   0  0  0  0  0  0  0  0  0  0  0  0
   12.1542   -0.0834    0.0000 H   0  0  0  0  0  0  0  0  0  0  0  0
    9.1793   -1.7720    0.0000 H   0  0  0  0  0  0  0  0  0  0  0  0
    9.8695   -2.1706    0.0000 H   0  0  0  0  0  0  0  0  0  0  0  0
    9.8445   -0.4819    0.0000 H   0  0  0  0  0  0  0  0  0  0  0  0
    9.1542   -0.0834    0.0000 H   0  0  0  0  0  0  0  0  0  0  0  0
    7.6793   -0.9060    0.0000 H   0  0  0  0  0  0  0  0  0  0  0  0
    8.3695   -1.3046    0.0000 H   0  0  0  0  0  0  0  0  0  0  0  0
   13.9519   -2.9630    0.0000 H   0  0  0  0  0  0  0  0  0  0  0  0
    8.3445    0.3841    0.0000 H   0  0  0  0  0  0  0  0  0  0  0  0
    7.6542    0.7826    0.0000 H   0  0  0  0  0  0  0  0  0  0  0  0
   16.7988    0.7281    0.0000 H   0  0  0  0  0  0  0  0  0  0  0  0
   16.5719    1.5750    0.0000 H   0  0  0  0  0  0  0  0  0  0  0  0
   15.7249    1.3481    0.0000 H   0  0  0  0  0  0  0  0  0  0  0  0
   16.3179   -0.8649    0.0000 H   0  0  0  0  0  0  0  0  0  0  0  0
   17.1648   -0.6379    0.0000 H   0  0  0  0  0  0  0  0  0  0  0  0
   16.9379    0.2090    0.0000 H   0  0  0  0  0  0  0  0  0  0  0  0
   15.2059    1.2090    0.0000 H   0  0  0  0  0  0  0  0  0  0  0  0
   14.3589    0.9821    0.0000 H   0  0  0  0  0  0  0  0  0  0  0  0
   14.5859    0.1351    0.0000 H   0  0  0  0  0  0  0  0  0  0  0  0
    6.4519   -0.3649    0.0000 H   0  0  0  0  0  0  0  0  0  0  0  0
    4.8709    2.4321    0.0000 H   0  0  0  0  0  0  0  0  0  0  0  0
    2.8660   -0.5819    0.0000 H   0  0  0  0  0  0  0  0  0  0  0  0
    1.4631    1.8481    0.0000 H   0  0  0  0  0  0  0  0  0  0  0  0
    3.4766    2.9304    0.0000 H   0  0  0  0  0  0  0  0  0  0  0  0
    3.0781    3.6207    0.0000 H   0  0  0  0  0  0  0  0  0  0  0  0
    1.4631    0.2281    0.0000 H   0  0  0  0  0  0  0  0  0  0  0  0
    2.0000    4.1581    0.0000 H   0  0  0  0  0  0  0  0  0  0  0  0
  1 29  1  0  0  0  0
  2 29  1  0  0  0  0
  3 29  1  0  0  0  0
  4 30  2  0  0  0  0
  5 37  1  0  0  0  0
  5 72  1  0  0  0  0
  6 13  1  0  0  0  0
  6 14  1  0  0  0  0
  6 17  1  0  0  0  0
  7 15  1  0  0  0  0
  7 16  1  0  0  0  0
  7 19  1  0  0  0  0
  8 19  2  0  0  0  0
  8 22  1  0  0  0  0
  9 22  2  0  0  0  0
  9 25  1  0  0  0  0
 10 24  1  0  0  0  0
 10 30  1  0  0  0  0
 10 65  1  0  0  0  0
 11 32  1  0  0  0  0
 11 33  1  0  0  0  0
 11 34  1  0  0  0  0
 12 31  1  0  0  0  0
 12 33  2  0  0  0  0
 13 15  1  0  0  0  0
 13 39  1  0  0  0  0
 13 40  1  0  0  0  0
 14 16  1  0  0  0  0
 14 41  1  0  0  0  0
 14 42  1  0  0  0  0
 15 43  1  0  0  0  0
 15 44  1  0  0  0  0
 16 45  1  0  0  0  0
 16 46  1  0  0  0  0
 17 18  1  0  0  0  0
 17 47  1  0  0  0  0
 17 48  1  0  0  0  0
 18 20  1  0  0  0  0
 18 49  1  0  0  0  0
 18 50  1  0  0  0  0
 19 23  1  0  0  0  0
 20 24  1  0  0  0  0
 20 51  1  0  0  0  0
 20 52  1  0  0  0  0
 21 22  1  0  0  0  0
 21 26  1  0  0  0  0
 21 27  1  0  0  0  0
 21 28  1  0  0  0  0
 23 25  2  0  0  0  0
 23 53  1  0  0  0  0
 24 54  1  0  0  0  0
 24 55  1  0  0  0  0
 25 29  1  0  0  0  0
 26 56  1  0  0  0  0
 26 57  1  0  0  0  0
 26 58  1  0  0  0  0
 27 59  1  0  0  0  0
 27 60  1  0  0  0  0
 27 61  1  0  0  0  0
 28 62  1  0  0  0  0
 28 63  1  0  0  0  0
 28 64  1  0  0  0  0
 30 31  1  0  0  0  0
 31 32  2  0  0  0  0
 32 66  1  0  0  0  0
 33 35  1  0  0  0  0
 34 36  2  0  0  0  0
 34 37  1  0  0  0  0
 35 38  2  0  0  0  0
 35 67  1  0  0  0  0
 36 38  1  0  0  0  0
 36 68  1  0  0  0  0
 37 69  1  0  0  0  0
 37 70  1  0  0  0  0
 38 71  1  0  0  0  0
M  END
> <PUBCHEM_COMPOUND_CID>
117870976

> <PUBCHEM_COMPOUND_CANONICALIZED>
1

> <PUBCHEM_CACTVS_COMPLEXITY>
773

> <PUBCHEM_CACTVS_HBOND_ACCEPTOR>
10

> <PUBCHEM_CACTVS_HBOND_DONOR>
2

> <PUBCHEM_CACTVS_ROTATABLE_BOND>
9

> <PUBCHEM_CACTVS_SUBSKEYS>
AAADcfB7sYAAAAAAAAAAAAAAAAAAAWAAAAAsWLAAAAAAAFgB+AAAHwAQCAAADgjhlxY/sJ/MGgCoATd3dASCgC03EqAJ2KG4fNiKfurA2fGUdIhs1gPY2OeQQAAAAAAAAAAAAAAAAAAAAAAAAAAAAAAAAA==

> <PUBCHEM_IUPAC_OPENEYE_NAME>
N-[4-[4-[2-tert-butyl-6-(trifluoromethyl)pyrimidin-4-yl]piperazin-1-yl]butyl]-5-(hydroxymethyl)imidazo[1,2-a]pyridine-2-carboxamide

> <PUBCHEM_IUPAC_CAS_NAME>
N-[4-[4-[2-tert-butyl-6-(trifluoromethyl)-4-pyrimidinyl]-1-piperazinyl]butyl]-5-(hydroxymethyl)-2-imidazo[1,2-a]pyridinecarboxamide

> <PUBCHEM_IUPAC_NAME_MARKUP>
<I>N</I>-[4-[4-[2-<I>tert</I>-butyl-6-(trifluoromethyl)pyrimidin-4-yl]piperazin-1-yl]butyl]-5-(hydroxymethyl)imidazo[1,2-a]pyridine-2-carboxamide

> <PUBCHEM_IUPAC_NAME>
N-[4-[4-[2-tert-butyl-6-(trifluoromethyl)pyrimidin-4-yl]piperazin-1-yl]butyl]-5-(hydroxymethyl)imidazo[1,2-a]pyridine-2-carboxamide

> <PUBCHEM_IUPAC_SYSTEMATIC_NAME>
N-[4-[4-[2-tert-butyl-6-(trifluoromethyl)pyrimidin-4-yl]piperazin-1-yl]butyl]-5-(hydroxymethyl)imidazo[1,2-a]pyridine-2-carboxamide

> <PUBCHEM_IUPAC_TRADITIONAL_NAME>
N-[4-[4-[2-tert-butyl-6-(trifluoromethyl)pyrimidin-4-yl]piperazino]butyl]-5-methylol-imidazo[1,2-a]pyridine-2-carboxamide

> <PUBCHEM_IUPAC_INCHI>
InChI=1S/C26H34F3N7O2/c1-25(2,3)24-32-20(26(27,28)29)15-22(33-24)35-13-11-34(12-14-35)10-5-4-9-30-23(38)19-16-36-18(17-37)7-6-8-21(36)31-19/h6-8,15-16,37H,4-5,9-14,17H2,1-3H3,(H,30,38)

> <PUBCHEM_IUPAC_INCHIKEY>
JFDSONZAQMFHCW-UHFFFAOYSA-N

> <PUBCHEM_XLOGP3_AA>
4.1

> <PUBCHEM_EXACT_MASS>
533.27260784

> <PUBCHEM_MOLECULAR_FORMULA>
C26H34F3N7O2

> <PUBCHEM_MOLECULAR_WEIGHT>
533.6

> <PUBCHEM_OPENEYE_CAN_SMILES>
CC(C)(C)C1=NC(=CC(=N1)N2CCN(CC2)CCCCNC(=O)C3=CN4C(=N3)C=CC=C4CO)C(F)(F)F

> <PUBCHEM_OPENEYE_ISO_SMILES>
CC(C)(C)C1=NC(=CC(=N1)N2CCN(CC2)CCCCNC(=O)C3=CN4C(=N3)C=CC=C4CO)C(F)(F)F

> <PUBCHEM_CACTVS_TPSA>
98.9

> <PUBCHEM_MONOISOTOPIC_WEIGHT>
533.27260784

> <PUBCHEM_TOTAL_CHARGE>
0

> <PUBCHEM_HEAVY_ATOM_COUNT>
38

> <PUBCHEM_ATOM_DEF_STEREO_COUNT>
0

> <PUBCHEM_ATOM_UDEF_STEREO_COUNT>
0

> <PUBCHEM_BOND_DEF_STEREO_COUNT>
0

> <PUBCHEM_BOND_UDEF_STEREO_COUNT>
0

> <PUBCHEM_ISOTOPIC_ATOM_COUNT>
0

> <PUBCHEM_COMPONENT_COUNT>
1

> <PUBCHEM_CACTVS_TAUTO_COUNT>
-1

> <PUBCHEM_COORDINATE_TYPE>
1
5
255

> <PUBCHEM_BONDANNOTATIONS>
11  32  8
11  33  8
11  34  8
12  31  8
12  33  8
19  23  8
23  25  8
31  32  8
33  35  8
34  36  8
35  38  8
36  38  8
8  19  8
8  22  8
9  22  8
9  25  8

$$$$
