45260726
  -OEChem-09292322192D

 50 52  0     0  0  0  0  0  0999 V2000
    6.8671    5.3700    0.0000 Cl  0  0  0  0  0  0  0  0  0  0  0  0
    2.5981    6.1200    0.0000 O   0  0  0  0  0  0  0  0  0  0  0  0
    0.0000    7.6200    0.0000 O   0  0  0  0  0  0  0  0  0  0  0  0
    1.7320    3.6200    0.0000 N   0  0  0  0  0  0  0  0  0  0  0  0
    1.7320    5.6200    0.0000 C   0  0  0  0  0  0  0  0  0  0  0  0
    0.8660    5.1200    0.0000 C   0  0  0  0  0  0  0  0  0  0  0  0
    2.5981    5.1200    0.0000 C   0  0  0  0  0  0  0  0  0  0  0  0
    0.8660    4.1200    0.0000 C   0  0  0  0  0  0  0  0  0  0  0  0
    2.5981    4.1200    0.0000 C   0  0  0  0  0  0  0  0  0  0  0  0
    0.8660    6.1200    0.0000 C   0  0  0  0  0  0  0  0  0  0  0  0
    1.7320    2.6200    0.0000 C   0  0  0  0  0  0  0  0  0  0  0  0
    0.8660    7.1200    0.0000 C   0  0  0  0  0  0  0  0  0  0  0  0
    1.7320    7.6200    0.0000 C   0  0  0  0  0  0  0  0  0  0  0  0
    2.5981    7.1200    0.0000 C   0  0  0  0  0  0  0  0  0  0  0  0
    2.5981    2.1200    0.0000 C   0  0  0  0  0  0  0  0  0  0  0  0
    1.7320    8.6200    0.0000 C   0  0  0  0  0  0  0  0  0  0  0  0
    3.4641    2.6200    0.0000 C   0  0  0  0  0  0  0  0  0  0  0  0
    2.5981    1.1200    0.0000 C   0  0  0  0  0  0  0  0  0  0  0  0
    0.8660    9.1200    0.0000 C   0  0  0  0  0  0  0  0  0  0  0  0
    2.5981    9.1200    0.0000 C   0  0  0  0  0  0  0  0  0  0  0  0
    4.3301    2.1200    0.0000 C   0  0  0  0  0  0  0  0  0  0  0  0
    3.4641    0.6200    0.0000 C   0  0  0  0  0  0  0  0  0  0  0  0
    4.3301    1.1200    0.0000 C   0  0  0  0  0  0  0  0  0  0  0  0
    0.8660   10.1200    0.0000 C   0  0  0  0  0  0  0  0  0  0  0  0
    2.5981   10.1200    0.0000 C   0  0  0  0  0  0  0  0  0  0  0  0
    1.7320   10.6200    0.0000 C   0  0  0  0  0  0  0  0  0  0  0  0
    0.6540    5.7026    0.0000 H   0  0  0  0  0  0  0  0  0  0  0  0
    0.2554    5.0123    0.0000 H   0  0  0  0  0  0  0  0  0  0  0  0
    3.2087    5.0123    0.0000 H   0  0  0  0  0  0  0  0  0  0  0  0
    2.8101    5.7026    0.0000 H   0  0  0  0  0  0  0  0  0  0  0  0
    0.2554    4.2277    0.0000 H   0  0  0  0  0  0  0  0  0  0  0  0
    0.6540    3.5374    0.0000 H   0  0  0  0  0  0  0  0  0  0  0  0
    2.8101    3.5374    0.0000 H   0  0  0  0  0  0  0  0  0  0  0  0
    3.2087    4.2277    0.0000 H   0  0  0  0  0  0  0  0  0  0  0  0
    0.2554    6.2277    0.0000 H   0  0  0  0  0  0  0  0  0  0  0  0
    0.6540    5.5374    0.0000 H   0  0  0  0  0  0  0  0  0  0  0  0
    1.1215    2.7277    0.0000 H   0  0  0  0  0  0  0  0  0  0  0  0
    1.5200    2.0374    0.0000 H   0  0  0  0  0  0  0  0  0  0  0  0
    3.1350    7.4300    0.0000 H   0  0  0  0  0  0  0  0  0  0  0  0
    3.4641    3.2400    0.0000 H   0  0  0  0  0  0  0  0  0  0  0  0
    2.0611    0.8100    0.0000 H   0  0  0  0  0  0  0  0  0  0  0  0
    0.3291    8.8100    0.0000 H   0  0  0  0  0  0  0  0  0  0  0  0
    3.1350    8.8100    0.0000 H   0  0  0  0  0  0  0  0  0  0  0  0
    4.8671    2.4300    0.0000 H   0  0  0  0  0  0  0  0  0  0  0  0
    3.4641    0.0000    0.0000 H   0  0  0  0  0  0  0  0  0  0  0  0
    4.8671    0.8100    0.0000 H   0  0  0  0  0  0  0  0  0  0  0  0
    0.3291   10.4300    0.0000 H   0  0  0  0  0  0  0  0  0  0  0  0
    3.1350   10.4300    0.0000 H   0  0  0  0  0  0  0  0  0  0  0  0
    1.7320   11.2400    0.0000 H   0  0  0  0  0  0  0  0  0  0  0  0
    7.8671    5.3700    0.0000 H   0  0  0  0  0  0  0  0  0  0  0  0
  1 50  1  0  0  0  0
  2  5  1  0  0  0  0
  2 14  1  0  0  0  0
  3 12  2  0  0  0  0
  4  8  1  0  0  0  0
  4  9  1  0  0  0  0
  4 11  1  0  0  0  0
  5  6  1  0  0  0  0
  5  7  1  0  0  0  0
  5 10  1  0  0  0  0
  6  8  1  0  0  0  0
  6 27  1  0  0  0  0
  6 28  1  0  0  0  0
  7  9  1  0  0  0  0
  7 29  1  0  0  0  0
  7 30  1  0  0  0  0
  8 31  1  0  0  0  0
  8 32  1  0  0  0  0
  9 33  1  0  0  0  0
  9 34  1  0  0  0  0
 10 12  1  0  0  0  0
 10 35  1  0  0  0  0
 10 36  1  0  0  0  0
 11 15  1  0  0  0  0
 11 37  1  0  0  0  0
 11 38  1  0  0  0  0
 12 13  1  0  0  0  0
 13 14  2  0  0  0  0
 13 16  1  0  0  0  0
 14 39  1  0  0  0  0
 15 17  2  0  0  0  0
 15 18  1  0  0  0  0
 16 19  2  0  0  0  0
 16 20  1  0  0  0  0
 17 21  1  0  0  0  0
 17 40  1  0  0  0  0
 18 22  2  0  0  0  0
 18 41  1  0  0  0  0
 19 24  1  0  0  0  0
 19 42  1  0  0  0  0
 20 25  2  0  0  0  0
 20 43  1  0  0  0  0
 21 23  2  0  0  0  0
 21 44  1  0  0  0  0
 22 23  1  0  0  0  0
 22 45  1  0  0  0  0
 23 46  1  0  0  0  0
 24 26  2  0  0  0  0
 24 47  1  0  0  0  0
 25 26  1  0  0  0  0
 25 48  1  0  0  0  0
 26 49  1  0  0  0  0
M  END
> <PUBCHEM_COMPOUND_CID>
45260726

> <PUBCHEM_COMPOUND_CANONICALIZED>
1

> <PUBCHEM_CACTVS_COMPLEXITY>
492

> <PUBCHEM_CACTVS_HBOND_ACCEPTOR>
3

> <PUBCHEM_CACTVS_HBOND_DONOR>
1

> <PUBCHEM_CACTVS_ROTATABLE_BOND>
3

> <PUBCHEM_CACTVS_SUBSKEYS>
AAADceB6MAAEAAAAAAAAAAAAAAAAAAAAAAA8YIEAAAAAAAABQAAAHgAAAAAADEThmAYwAIMABACIAqBSAACCCAAgIAAIiAEIBMgIIDaAlRGEIAhmoACIiIeYyfCOAAAAAAAAAAAAAAAAAAAAAAAAAAAAAA==

> <PUBCHEM_IUPAC_OPENEYE_NAME>
9-benzyl-3-phenyl-1-oxa-9-azaspiro[5.5]undec-2-en-4-one;hydrochloride

> <PUBCHEM_IUPAC_CAS_NAME>
3-phenyl-9-(phenylmethyl)-1-oxa-9-azaspiro[5.5]undec-2-en-4-one;hydrochloride

> <PUBCHEM_IUPAC_NAME_MARKUP>
9-benzyl-3-phenyl-1-oxa-9-azaspiro[5.5]undec-2-en-4-one;hydrochloride

> <PUBCHEM_IUPAC_NAME>
9-benzyl-3-phenyl-1-oxa-9-azaspiro[5.5]undec-2-en-4-one;hydrochloride

> <PUBCHEM_IUPAC_SYSTEMATIC_NAME>
3-phenyl-9-(phenylmethyl)-1-oxa-9-azaspiro[5.5]undec-2-en-4-one;hydrochloride

> <PUBCHEM_IUPAC_TRADITIONAL_NAME>
9-benzyl-3-phenyl-1-oxa-9-azaspiro[5.5]undec-2-en-4-one;hydrochloride

> <PUBCHEM_IUPAC_INCHI>
InChI=1S/C22H23NO2.ClH/c24-21-15-22(25-17-20(21)19-9-5-2-6-10-19)11-13-23(14-12-22)16-18-7-3-1-4-8-18;/h1-10,17H,11-16H2;1H

> <PUBCHEM_IUPAC_INCHIKEY>
UISURUQYVPVTQA-UHFFFAOYSA-N

> <PUBCHEM_EXACT_MASS>
369.1495567

> <PUBCHEM_MOLECULAR_FORMULA>
C22H24ClNO2

> <PUBCHEM_MOLECULAR_WEIGHT>
369.9

> <PUBCHEM_OPENEYE_CAN_SMILES>
C1CN(CCC12CC(=O)C(=CO2)C3=CC=CC=C3)CC4=CC=CC=C4.Cl

> <PUBCHEM_OPENEYE_ISO_SMILES>
C1CN(CCC12CC(=O)C(=CO2)C3=CC=CC=C3)CC4=CC=CC=C4.Cl

> <PUBCHEM_CACTVS_TPSA>
29.5

> <PUBCHEM_MONOISOTOPIC_WEIGHT>
369.1495567

> <PUBCHEM_TOTAL_CHARGE>
0

> <PUBCHEM_HEAVY_ATOM_COUNT>
26

> <PUBCHEM_ATOM_DEF_STEREO_COUNT>
0

> <PUBCHEM_ATOM_UDEF_STEREO_COUNT>
0

> <PUBCHEM_BOND_DEF_STEREO_COUNT>
0

> <PUBCHEM_BOND_UDEF_STEREO_COUNT>
0

> <PUBCHEM_ISOTOPIC_ATOM_COUNT>
0

> <PUBCHEM_COMPONENT_COUNT>
2

> <PUBCHEM_CACTVS_TAUTO_COUNT>
-1

> <PUBCHEM_COORDINATE_TYPE>
1
5
255

> <PUBCHEM_BONDANNOTATIONS>
15  17  8
15  18  8
16  19  8
16  20  8
17  21  8
18  22  8
19  24  8
20  25  8
21  23  8
22  23  8
24  26  8
25  26  8

$$$$
