168290234
  -OEChem-09292322022D

 48 47  0     1  0  0  0  0  0999 V2000
    0.0000    5.5147    0.0000 Cl  0  0  0  0  0  0  0  0  0  0  0  0
    3.0000    5.5147    0.0000 Cl  0  0  0  0  0  0  0  0  0  0  0  0
    9.0653    5.6200    0.0000 O   0  0  0  0  0  0  0  0  0  0  0  0
    9.9313    4.1200    0.0000 N   0  0  0  0  0  0  0  0  0  0  0  0
    9.9313    7.1200    0.0000 N   0  0  0  0  0  0  0  0  0  0  0  0
   10.7974    5.6200    0.0000 N   0  0  0  0  0  0  0  0  0  0  0  0
    8.0948   11.1145    0.0000 N   0  0  0  0  0  0  0  0  0  0  0  0
    7.2857    9.7133    0.0000 N   0  0  0  0  0  0  0  0  0  0  0  0
    7.1166   11.3224    0.0000 N   0  0  0  0  0  0  0  0  0  0  0  0
   11.6634    7.1200    0.0000 N   0  0  0  0  0  0  0  0  0  0  0  0
    9.0653    3.6200    0.0000 C   0  0  1  0  0  0  0  0  0  0  0  0
    9.0653    2.6200    0.0000 C   0  0  0  0  0  0  0  0  0  0  0  0
    9.0653    8.6200    0.0000 C   0  0  0  0  0  0  0  0  0  0  0  0
    9.0653    9.6200    0.0000 C   0  0  0  0  0  0  0  0  0  0  0  0
    8.1993    4.1200    0.0000 C   0  0  0  0  0  0  0  0  0  0  0  0
    9.9313    8.1200    0.0000 C   0  0  0  0  0  0  0  0  0  0  0  0
    9.9313    2.1200    0.0000 C   0  0  0  0  0  0  0  0  0  0  0  0
    8.1993    2.1200    0.0000 C   0  0  0  0  0  0  0  0  0  0  0  0
    8.1993   10.1200    0.0000 C   0  0  0  0  0  0  0  0  0  0  0  0
    9.9313    5.1200    0.0000 C   0  0  0  0  0  0  0  0  0  0  0  0
    9.9313    1.1200    0.0000 C   0  0  0  0  0  0  0  0  0  0  0  0
    8.1993    1.1200    0.0000 C   0  0  0  0  0  0  0  0  0  0  0  0
   10.7974    6.6200    0.0000 C   0  0  0  0  0  0  0  0  0  0  0  0
    9.0653    0.6200    0.0000 C   0  0  0  0  0  0  0  0  0  0  0  0
    6.6166   10.4564    0.0000 C   0  0  0  0  0  0  0  0  0  0  0  0
    9.6022    3.3100    0.0000 H   0  0  0  0  0  0  0  0  0  0  0  0
    8.4547    8.7277    0.0000 H   0  0  0  0  0  0  0  0  0  0  0  0
    8.8532    8.0374    0.0000 H   0  0  0  0  0  0  0  0  0  0  0  0
    9.6759    9.5123    0.0000 H   0  0  0  0  0  0  0  0  0  0  0  0
    9.2774   10.2026    0.0000 H   0  0  0  0  0  0  0  0  0  0  0  0
    8.5093    4.6569    0.0000 H   0  0  0  0  0  0  0  0  0  0  0  0
    7.6623    4.4300    0.0000 H   0  0  0  0  0  0  0  0  0  0  0  0
    7.8893    3.5831    0.0000 H   0  0  0  0  0  0  0  0  0  0  0  0
   10.4683    3.8100    0.0000 H   0  0  0  0  0  0  0  0  0  0  0  0
   10.5419    8.0123    0.0000 H   0  0  0  0  0  0  0  0  0  0  0  0
   10.1434    8.7026    0.0000 H   0  0  0  0  0  0  0  0  0  0  0  0
   10.4683    2.4300    0.0000 H   0  0  0  0  0  0  0  0  0  0  0  0
    7.6623    2.4300    0.0000 H   0  0  0  0  0  0  0  0  0  0  0  0
   10.4683    0.8100    0.0000 H   0  0  0  0  0  0  0  0  0  0  0  0
    7.6623    0.8100    0.0000 H   0  0  0  0  0  0  0  0  0  0  0  0
   11.3343    5.3100    0.0000 H   0  0  0  0  0  0  0  0  0  0  0  0
    9.0653    0.0000    0.0000 H   0  0  0  0  0  0  0  0  0  0  0  0
    8.5555   11.5294    0.0000 H   0  0  0  0  0  0  0  0  0  0  0  0
    6.0000   10.3916    0.0000 H   0  0  0  0  0  0  0  0  0  0  0  0
   11.6634    7.7400    0.0000 H   0  0  0  0  0  0  0  0  0  0  0  0
   12.2003    6.8100    0.0000 H   0  0  0  0  0  0  0  0  0  0  0  0
    1.0000    5.5147    0.0000 H   0  0  0  0  0  0  0  0  0  0  0  0
    4.0000    5.5147    0.0000 H   0  0  0  0  0  0  0  0  0  0  0  0
  1 47  1  0  0  0  0
  2 48  1  0  0  0  0
  3 20  2  0  0  0  0
 11  4  1  1  0  0  0
  4 20  1  0  0  0  0
  4 34  1  0  0  0  0
  5 16  1  0  0  0  0
  5 23  2  0  0  0  0
  6 20  1  0  0  0  0
  6 23  1  0  0  0  0
  6 41  1  0  0  0  0
  7  9  1  0  0  0  0
  7 19  1  0  0  0  0
  7 43  1  0  0  0  0
  8 19  2  0  0  0  0
  8 25  1  0  0  0  0
  9 25  2  0  0  0  0
 10 23  1  0  0  0  0
 10 45  1  0  0  0  0
 10 46  1  0  0  0  0
 11 12  1  0  0  0  0
 11 15  1  0  0  0  0
 11 26  1  0  0  0  0
 12 17  2  0  0  0  0
 12 18  1  0  0  0  0
 13 14  1  0  0  0  0
 13 16  1  0  0  0  0
 13 27  1  0  0  0  0
 13 28  1  0  0  0  0
 14 19  1  0  0  0  0
 14 29  1  0  0  0  0
 14 30  1  0  0  0  0
 15 31  1  0  0  0  0
 15 32  1  0  0  0  0
 15 33  1  0  0  0  0
 16 35  1  0  0  0  0
 16 36  1  0  0  0  0
 17 21  1  0  0  0  0
 17 37  1  0  0  0  0
 18 22  2  0  0  0  0
 18 38  1  0  0  0  0
 21 24  2  0  0  0  0
 21 39  1  0  0  0  0
 22 24  1  0  0  0  0
 22 40  1  0  0  0  0
 24 42  1  0  0  0  0
 25 44  1  0  0  0  0
M  END
> <PUBCHEM_COMPOUND_CID>
168290234

> <PUBCHEM_COMPOUND_CANONICALIZED>
1

> <PUBCHEM_CACTVS_COMPLEXITY>
395

> <PUBCHEM_CACTVS_HBOND_ACCEPTOR>
4

> <PUBCHEM_CACTVS_HBOND_DONOR>
6

> <PUBCHEM_CACTVS_ROTATABLE_BOND>
7

> <PUBCHEM_CACTVS_SUBSKEYS>
AAADceBzoAAGAAAAAAAAAAAAAAAAAWAAAAAwAAAAAAAAAAABwAAAHgAYAAAADCjBGwQ3EIbrEACqAiJjNACSgAuwgKAd6IA4BIiIKCKAmRGEIAhonwIIiAcQgIAOAAAAAAAAAAAAAAAAAAAAAAAAAAAAAA==

> <PUBCHEM_IUPAC_OPENEYE_NAME>
1-[(1R)-1-phenylethyl]-3-[N'-[3-(1H-1,2,4-triazol-5-yl)propyl]carbamimidoyl]urea;dihydrochloride

> <PUBCHEM_IUPAC_CAS_NAME>
1-[amino-[3-(1H-1,2,4-triazol-5-yl)propylimino]methyl]-3-[(1R)-1-phenylethyl]urea;dihydrochloride

> <PUBCHEM_IUPAC_NAME_MARKUP>
1-[(1<I>R</I>)-1-phenylethyl]-3-[<I>N</I>&apos;-[3-(1<I>H</I>-1,2,4-triazol-5-yl)propyl]carbamimidoyl]urea;dihydrochloride

> <PUBCHEM_IUPAC_NAME>
1-[(1R)-1-phenylethyl]-3-[N'-[3-(1H-1,2,4-triazol-5-yl)propyl]carbamimidoyl]urea;dihydrochloride

> <PUBCHEM_IUPAC_SYSTEMATIC_NAME>
1-[(1R)-1-phenylethyl]-3-[N'-[3-(1H-1,2,4-triazol-5-yl)propyl]carbamimidoyl]urea;dihydrochloride

> <PUBCHEM_IUPAC_TRADITIONAL_NAME>
1-[(1R)-1-phenylethyl]-3-[N'-[3-(1H-1,2,4-triazol-5-yl)propyl]amidino]urea;dihydrochloride

> <PUBCHEM_IUPAC_INCHI>
InChI=1S/C15H21N7O.2ClH/c1-11(12-6-3-2-4-7-12)20-15(23)21-14(16)17-9-5-8-13-18-10-19-22-13;;/h2-4,6-7,10-11H,5,8-9H2,1H3,(H,18,19,22)(H4,16,17,20,21,23);2*1H/t11-;;/m1../s1

> <PUBCHEM_IUPAC_INCHIKEY>
XRYVFZXIDAULKH-NVJADKKVSA-N

> <PUBCHEM_EXACT_MASS>
387.1341138

> <PUBCHEM_MOLECULAR_FORMULA>
C15H23Cl2N7O

> <PUBCHEM_MOLECULAR_WEIGHT>
388.3

> <PUBCHEM_OPENEYE_CAN_SMILES>
CC(C1=CC=CC=C1)NC(=O)NC(=NCCCC2=NC=NN2)N.Cl.Cl

> <PUBCHEM_OPENEYE_ISO_SMILES>
C[C@H](C1=CC=CC=C1)NC(=O)NC(=NCCCC2=NC=NN2)N.Cl.Cl

> <PUBCHEM_CACTVS_TPSA>
121

> <PUBCHEM_MONOISOTOPIC_WEIGHT>
387.1341138

> <PUBCHEM_TOTAL_CHARGE>
0

> <PUBCHEM_HEAVY_ATOM_COUNT>
25

> <PUBCHEM_ATOM_DEF_STEREO_COUNT>
1

> <PUBCHEM_ATOM_UDEF_STEREO_COUNT>
0

> <PUBCHEM_BOND_DEF_STEREO_COUNT>
0

> <PUBCHEM_BOND_UDEF_STEREO_COUNT>
0

> <PUBCHEM_ISOTOPIC_ATOM_COUNT>
0

> <PUBCHEM_COMPONENT_COUNT>
3

> <PUBCHEM_CACTVS_TAUTO_COUNT>
-1

> <PUBCHEM_COORDINATE_TYPE>
1
5
255

> <PUBCHEM_BONDANNOTATIONS>
12  17  8
12  18  8
17  21  8
18  22  8
21  24  8
22  24  8
11  4  5
7  19  8
7  9  8
8  19  8
8  25  8
9  25  8

$$$$
