23630497
  -OEChem-09292322252D

 59 63  0     1  0  0  0  0  0999 V2000
    6.8867   -1.2406    0.0000 S   0  0  0  0  0  0  0  0  0  0  0  0
    3.5388   -3.3283    0.0000 S   0  0  0  0  0  0  0  0  0  0  0  0
   16.3228    1.8582    0.0000 O   0  0  0  0  0  0  0  0  0  0  0  0
    9.8867    0.4915    0.0000 N   0  0  3  0  0  0  0  0  0  0  0  0
   15.6566    1.1124    0.0000 N   0  0  0  0  0  0  0  0  0  0  0  0
    5.2989   -2.0496    0.0000 N   0  0  0  0  0  0  0  0  0  0  0  0
    5.2989   -0.4315    0.0000 N   0  0  0  0  0  0  0  0  0  0  0  0
    4.3479   -0.7406    0.0000 N   0  0  0  0  0  0  0  0  0  0  0  0
   10.3206    1.3925    0.0000 C   0  0  0  0  0  0  0  0  0  0  0  0
   10.3206   -0.4095    0.0000 C   0  0  0  0  0  0  0  0  0  0  0  0
   11.2955    1.6150    0.0000 C   0  0  0  0  0  0  0  0  0  0  0  0
   11.2955   -0.6320    0.0000 C   0  0  0  0  0  0  0  0  0  0  0  0
   12.0773    0.9915    0.0000 C   0  0  0  0  0  0  0  0  0  0  0  0
   12.0773   -0.0085    0.0000 C   0  0  0  0  0  0  0  0  0  0  0  0
    8.8867    0.4915    0.0000 C   0  0  0  0  0  0  0  0  0  0  0  0
    8.3867   -0.3745    0.0000 C   0  0  0  0  0  0  0  0  0  0  0  0
   12.9713    1.5262    0.0000 C   0  0  0  0  0  0  0  0  0  0  0  0
   12.9713   -0.5432    0.0000 C   0  0  0  0  0  0  0  0  0  0  0  0
   13.8774    1.0123    0.0000 C   0  0  0  0  0  0  0  0  0  0  0  0
    7.3867   -0.3745    0.0000 C   0  0  0  0  0  0  0  0  0  0  0  0
   13.8774   -0.0293    0.0000 C   0  0  0  0  0  0  0  0  0  0  0  0
   14.7414    1.5156    0.0000 C   0  0  0  0  0  0  0  0  0  0  0  0
   14.8421    2.5106    0.0000 C   0  0  0  0  0  0  0  0  0  0  0  0
    5.8867   -1.2406    0.0000 C   0  0  0  0  0  0  0  0  0  0  0  0
   15.8195    2.7222    0.0000 C   0  0  0  0  0  0  0  0  0  0  0  0
    4.3479   -1.7406    0.0000 C   0  0  0  0  0  0  0  0  0  0  0  0
    5.6079   -3.0006    0.0000 C   0  0  0  0  0  0  0  0  0  0  0  0
   16.2227    3.6374    0.0000 C   0  0  0  0  0  0  0  0  0  0  0  0
    3.5388   -2.3283    0.0000 C   0  0  0  0  0  0  0  0  0  0  0  0
    2.5878   -2.0193    0.0000 C   0  0  0  0  0  0  0  0  0  0  0  0
    2.0000   -2.8283    0.0000 C   0  0  0  0  0  0  0  0  0  0  0  0
    2.5878   -3.6374    0.0000 C   0  0  0  0  0  0  0  0  0  0  0  0
   10.3206    2.0125    0.0000 H   0  0  0  0  0  0  0  0  0  0  0  0
    9.7161    1.5304    0.0000 H   0  0  0  0  0  0  0  0  0  0  0  0
    9.7161   -0.5474    0.0000 H   0  0  0  0  0  0  0  0  0  0  0  0
   10.3206   -1.0295    0.0000 H   0  0  0  0  0  0  0  0  0  0  0  0
   11.7802    2.0016    0.0000 H   0  0  0  0  0  0  0  0  0  0  0  0
   11.0265    2.1736    0.0000 H   0  0  0  0  0  0  0  0  0  0  0  0
   11.0265   -1.1906    0.0000 H   0  0  0  0  0  0  0  0  0  0  0  0
   11.7802   -1.0186    0.0000 H   0  0  0  0  0  0  0  0  0  0  0  0
    8.9944    1.1021    0.0000 H   0  0  0  0  0  0  0  0  0  0  0  0
    8.3041    0.7036    0.0000 H   0  0  0  0  0  0  0  0  0  0  0  0
    8.2790   -0.9851    0.0000 H   0  0  0  0  0  0  0  0  0  0  0  0
    8.9693   -0.5866    0.0000 H   0  0  0  0  0  0  0  0  0  0  0  0
   12.9641    2.1461    0.0000 H   0  0  0  0  0  0  0  0  0  0  0  0
   12.9641   -1.1631    0.0000 H   0  0  0  0  0  0  0  0  0  0  0  0
    7.4944    0.2361    0.0000 H   0  0  0  0  0  0  0  0  0  0  0  0
    6.8041   -0.1625    0.0000 H   0  0  0  0  0  0  0  0  0  0  0  0
   14.4131   -0.3414    0.0000 H   0  0  0  0  0  0  0  0  0  0  0  0
   14.3798    2.9236    0.0000 H   0  0  0  0  0  0  0  0  0  0  0  0
    5.0183   -3.1922    0.0000 H   0  0  0  0  0  0  0  0  0  0  0  0
    5.7995   -3.5903    0.0000 H   0  0  0  0  0  0  0  0  0  0  0  0
    6.1976   -2.8090    0.0000 H   0  0  0  0  0  0  0  0  0  0  0  0
   16.7901    3.3874    0.0000 H   0  0  0  0  0  0  0  0  0  0  0  0
   16.4727    4.2047    0.0000 H   0  0  0  0  0  0  0  0  0  0  0  0
   15.6553    3.8874    0.0000 H   0  0  0  0  0  0  0  0  0  0  0  0
    2.3962   -1.4297    0.0000 H   0  0  0  0  0  0  0  0  0  0  0  0
    1.3800   -2.8283    0.0000 H   0  0  0  0  0  0  0  0  0  0  0  0
    2.3962   -4.2270    0.0000 H   0  0  0  0  0  0  0  0  0  0  0  0
  1 20  1  0  0  0  0
  1 24  1  0  0  0  0
  2 29  1  0  0  0  0
  2 32  1  0  0  0  0
  3  5  1  0  0  0  0
  3 25  1  0  0  0  0
  4  9  1  0  0  0  0
  4 10  1  0  0  0  0
  4 15  1  0  0  0  0
  5 22  2  0  0  0  0
  6 24  1  0  0  0  0
  6 26  1  0  0  0  0
  6 27  1  0  0  0  0
  7  8  1  0  0  0  0
  7 24  2  0  0  0  0
  8 26  2  0  0  0  0
  9 11  1  0  0  0  0
  9 33  1  0  0  0  0
  9 34  1  0  0  0  0
 10 12  1  0  0  0  0
 10 35  1  0  0  0  0
 10 36  1  0  0  0  0
 11 13  1  0  0  0  0
 11 37  1  0  0  0  0
 11 38  1  0  0  0  0
 12 14  1  0  0  0  0
 12 39  1  0  0  0  0
 12 40  1  0  0  0  0
 13 14  2  0  0  0  0
 13 17  1  0  0  0  0
 14 18  1  0  0  0  0
 15 16  1  0  0  0  0
 15 41  1  0  0  0  0
 15 42  1  0  0  0  0
 16 20  1  0  0  0  0
 16 43  1  0  0  0  0
 16 44  1  0  0  0  0
 17 19  2  0  0  0  0
 17 45  1  0  0  0  0
 18 21  2  0  0  0  0
 18 46  1  0  0  0  0
 19 21  1  0  0  0  0
 19 22  1  0  0  0  0
 20 47  1  0  0  0  0
 20 48  1  0  0  0  0
 21 49  1  0  0  0  0
 22 23  1  0  0  0  0
 23 25  2  0  0  0  0
 23 50  1  0  0  0  0
 25 28  1  0  0  0  0
 26 29  1  0  0  0  0
 27 51  1  0  0  0  0
 27 52  1  0  0  0  0
 27 53  1  0  0  0  0
 28 54  1  0  0  0  0
 28 55  1  0  0  0  0
 28 56  1  0  0  0  0
 29 30  2  0  0  0  0
 30 31  1  0  0  0  0
 30 57  1  0  0  0  0
 31 32  2  0  0  0  0
 31 58  1  0  0  0  0
 32 59  1  0  0  0  0
M  END
> <PUBCHEM_COMPOUND_CID>
23630497

> <PUBCHEM_COMPOUND_CANONICALIZED>
1

> <PUBCHEM_CACTVS_COMPLEXITY>
601

> <PUBCHEM_CACTVS_HBOND_ACCEPTOR>
7

> <PUBCHEM_CACTVS_HBOND_DONOR>
0

> <PUBCHEM_CACTVS_ROTATABLE_BOND>
7

> <PUBCHEM_CACTVS_SUBSKEYS>
AAADceB7oABgAAAAAAAAAAAAAAAAAWLEgAAwAAAABYAAAAAB/AAAHgQMAAAADAzF3wSzlZccEAivA6ZyZgCT0ItkKrB92Dk+bNqILrqgmZOEMYhmiBqoyUeYyOCOwAACAAAQAACAAAQAACAAAAAAAAAAAA==

> <PUBCHEM_IUPAC_OPENEYE_NAME>
5-methyl-3-[3-[3-[[4-methyl-5-(2-thienyl)-1,2,4-triazol-3-yl]sulfanyl]propyl]-1,2,4,5-tetrahydro-3-benzazepin-7-yl]isoxazole

> <PUBCHEM_IUPAC_CAS_NAME>
5-methyl-3-[3-[3-[(4-methyl-5-thiophen-2-yl-1,2,4-triazol-3-yl)thio]propyl]-1,2,4,5-tetrahydro-3-benzazepin-7-yl]isoxazole

> <PUBCHEM_IUPAC_NAME_MARKUP>
5-methyl-3-[3-[3-[(4-methyl-5-thiophen-2-yl-1,2,4-triazol-3-yl)sulfanyl]propyl]-1,2,4,5-tetrahydro-3-benzazepin-7-yl]-1,2-oxazole

> <PUBCHEM_IUPAC_NAME>
5-methyl-3-[3-[3-[(4-methyl-5-thiophen-2-yl-1,2,4-triazol-3-yl)sulfanyl]propyl]-1,2,4,5-tetrahydro-3-benzazepin-7-yl]-1,2-oxazole

> <PUBCHEM_IUPAC_SYSTEMATIC_NAME>
5-methyl-3-[3-[3-[(4-methyl-5-thiophen-2-yl-1,2,4-triazol-3-yl)sulfanyl]propyl]-1,2,4,5-tetrahydro-3-benzazepin-7-yl]-1,2-oxazole

> <PUBCHEM_IUPAC_TRADITIONAL_NAME>
5-methyl-3-[3-[3-[[4-methyl-5-(2-thienyl)-1,2,4-triazol-3-yl]thio]propyl]-1,2,4,5-tetrahydro-3-benzazepin-7-yl]isoxazole

> <PUBCHEM_IUPAC_INCHI>
InChI=1S/C24H27N5OS2/c1-17-15-21(27-30-17)20-7-6-18-8-11-29(12-9-19(18)16-20)10-4-14-32-24-26-25-23(28(24)2)22-5-3-13-31-22/h3,5-7,13,15-16H,4,8-12,14H2,1-2H3

> <PUBCHEM_IUPAC_INCHIKEY>
DSJQIICDRFEFMZ-UHFFFAOYSA-N

> <PUBCHEM_XLOGP3_AA>
4.5

> <PUBCHEM_EXACT_MASS>
465.16570285

> <PUBCHEM_MOLECULAR_FORMULA>
C24H27N5OS2

> <PUBCHEM_MOLECULAR_WEIGHT>
465.6

> <PUBCHEM_OPENEYE_CAN_SMILES>
CC1=CC(=NO1)C2=CC3=C(CCN(CC3)CCCSC4=NN=C(N4C)C5=CC=CS5)C=C2

> <PUBCHEM_OPENEYE_ISO_SMILES>
CC1=CC(=NO1)C2=CC3=C(CCN(CC3)CCCSC4=NN=C(N4C)C5=CC=CS5)C=C2

> <PUBCHEM_CACTVS_TPSA>
114

> <PUBCHEM_MONOISOTOPIC_WEIGHT>
465.16570285

> <PUBCHEM_TOTAL_CHARGE>
0

> <PUBCHEM_HEAVY_ATOM_COUNT>
32

> <PUBCHEM_ATOM_DEF_STEREO_COUNT>
0

> <PUBCHEM_ATOM_UDEF_STEREO_COUNT>
0

> <PUBCHEM_BOND_DEF_STEREO_COUNT>
0

> <PUBCHEM_BOND_UDEF_STEREO_COUNT>
0

> <PUBCHEM_ISOTOPIC_ATOM_COUNT>
0

> <PUBCHEM_COMPONENT_COUNT>
1

> <PUBCHEM_CACTVS_TAUTO_COUNT>
-1

> <PUBCHEM_COORDINATE_TYPE>
1
5
255

> <PUBCHEM_BONDANNOTATIONS>
13  14  8
13  17  8
14  18  8
17  19  8
18  21  8
19  21  8
2  29  8
2  32  8
22  23  8
23  25  8
29  30  8
3  25  8
3  5  8
30  31  8
31  32  8
5  22  8
6  24  8
6  26  8
7  24  8
7  8  8
8  26  8

$$$$
