118719810
  -OEChem-09292322362D

 65 68  0     0  0  0  0  0  0999 V2000
    9.9058    7.1260    0.0000 S   0  0  0  0  0  0  0  0  0  0  0  0
    2.8660   -5.2306    0.0000 O   0  0  0  0  0  0  0  0  0  0  0  0
    4.5981   -2.2306    0.0000 N   0  0  0  0  0  0  0  0  0  0  0  0
    4.5981   -4.2306    0.0000 N   0  0  0  0  0  0  0  0  0  0  0  0
    8.2788    3.4719    0.0000 N   0  0  0  0  0  0  0  0  0  0  0  0
    8.1097    1.8627    0.0000 N   0  0  0  0  0  0  0  0  0  0  0  0
    8.7788    2.6058    0.0000 N   0  0  0  0  0  0  0  0  0  0  0  0
    5.4641   -2.7306    0.0000 C   0  0  0  0  0  0  0  0  0  0  0  0
    3.7320   -2.7306    0.0000 C   0  0  0  0  0  0  0  0  0  0  0  0
    5.4641   -3.7306    0.0000 C   0  0  0  0  0  0  0  0  0  0  0  0
    3.7320   -3.7306    0.0000 C   0  0  0  0  0  0  0  0  0  0  0  0
    4.5981   -1.2306    0.0000 C   0  0  0  0  0  0  0  0  0  0  0  0
    5.4641   -0.7306    0.0000 C   0  0  0  0  0  0  0  0  0  0  0  0
    5.4641    0.2694    0.0000 C   0  0  0  0  0  0  0  0  0  0  0  0
    4.5981   -5.2306    0.0000 C   0  0  0  0  0  0  0  0  0  0  0  0
    6.3301    0.7694    0.0000 C   0  0  0  0  0  0  0  0  0  0  0  0
    6.3301    1.7694    0.0000 C   0  0  0  0  0  0  0  0  0  0  0  0
    3.7320   -5.7306    0.0000 C   0  0  0  0  0  0  0  0  0  0  0  0
    5.4641   -5.7306    0.0000 C   0  0  0  0  0  0  0  0  0  0  0  0
    7.1962    2.2694    0.0000 C   0  0  0  0  0  0  0  0  0  0  0  0
    3.7320   -6.7306    0.0000 C   0  0  0  0  0  0  0  0  0  0  0  0
    5.4641   -6.7306    0.0000 C   0  0  0  0  0  0  0  0  0  0  0  0
    4.5981   -7.2306    0.0000 C   0  0  0  0  0  0  0  0  0  0  0  0
    7.3007    3.2640    0.0000 C   0  0  0  0  0  0  0  0  0  0  0  0
    2.0000   -5.7306    0.0000 C   0  0  0  0  0  0  0  0  0  0  0  0
    8.6856    4.3854    0.0000 C   0  0  0  0  0  0  0  0  0  0  0  0
    9.6801    4.4899    0.0000 C   0  0  0  0  0  0  0  0  0  0  0  0
    8.0978    5.1944    0.0000 C   0  0  0  0  0  0  0  0  0  0  0  0
   10.0868    5.4035    0.0000 C   0  0  0  0  0  0  0  0  0  0  0  0
    8.5045    6.1080    0.0000 C   0  0  0  0  0  0  0  0  0  0  0  0
    9.4990    6.2125    0.0000 C   0  0  0  0  0  0  0  0  0  0  0  0
   10.9003    7.2306    0.0000 C   0  0  0  0  0  0  0  0  0  0  0  0
    6.0747   -2.8382    0.0000 H   0  0  0  0  0  0  0  0  0  0  0  0
    5.6762   -2.1480    0.0000 H   0  0  0  0  0  0  0  0  0  0  0  0
    3.5200   -2.1480    0.0000 H   0  0  0  0  0  0  0  0  0  0  0  0
    3.1215   -2.8382    0.0000 H   0  0  0  0  0  0  0  0  0  0  0  0
    5.6762   -4.3132    0.0000 H   0  0  0  0  0  0  0  0  0  0  0  0
    6.0747   -3.6229    0.0000 H   0  0  0  0  0  0  0  0  0  0  0  0
    3.1215   -3.6229    0.0000 H   0  0  0  0  0  0  0  0  0  0  0  0
    3.5200   -4.3132    0.0000 H   0  0  0  0  0  0  0  0  0  0  0  0
    4.3860   -0.6480    0.0000 H   0  0  0  0  0  0  0  0  0  0  0  0
    3.9875   -1.3382    0.0000 H   0  0  0  0  0  0  0  0  0  0  0  0
    5.6762   -1.3132    0.0000 H   0  0  0  0  0  0  0  0  0  0  0  0
    6.0747   -0.6229    0.0000 H   0  0  0  0  0  0  0  0  0  0  0  0
    5.2520    0.8520    0.0000 H   0  0  0  0  0  0  0  0  0  0  0  0
    4.8535    0.1618    0.0000 H   0  0  0  0  0  0  0  0  0  0  0  0
    6.5422    0.1868    0.0000 H   0  0  0  0  0  0  0  0  0  0  0  0
    6.9407    0.8771    0.0000 H   0  0  0  0  0  0  0  0  0  0  0  0
    6.1181    2.3520    0.0000 H   0  0  0  0  0  0  0  0  0  0  0  0
    5.7196    1.6618    0.0000 H   0  0  0  0  0  0  0  0  0  0  0  0
    6.0010   -5.4206    0.0000 H   0  0  0  0  0  0  0  0  0  0  0  0
    3.1951   -7.0406    0.0000 H   0  0  0  0  0  0  0  0  0  0  0  0
    6.0010   -7.0406    0.0000 H   0  0  0  0  0  0  0  0  0  0  0  0
    4.5981   -7.8506    0.0000 H   0  0  0  0  0  0  0  0  0  0  0  0
    6.8399    3.6788    0.0000 H   0  0  0  0  0  0  0  0  0  0  0  0
    1.6900   -5.1936    0.0000 H   0  0  0  0  0  0  0  0  0  0  0  0
    1.4631   -6.0406    0.0000 H   0  0  0  0  0  0  0  0  0  0  0  0
    2.3100   -6.2675    0.0000 H   0  0  0  0  0  0  0  0  0  0  0  0
   10.0445    3.9883    0.0000 H   0  0  0  0  0  0  0  0  0  0  0  0
    7.4812    5.1296    0.0000 H   0  0  0  0  0  0  0  0  0  0  0  0
   10.7034    5.4683    0.0000 H   0  0  0  0  0  0  0  0  0  0  0  0
    8.1401    6.6096    0.0000 H   0  0  0  0  0  0  0  0  0  0  0  0
   10.9651    6.6140    0.0000 H   0  0  0  0  0  0  0  0  0  0  0  0
   11.5169    7.2954    0.0000 H   0  0  0  0  0  0  0  0  0  0  0  0
   10.8355    7.8472    0.0000 H   0  0  0  0  0  0  0  0  0  0  0  0
  1 31  1  0  0  0  0
  1 32  1  0  0  0  0
  2 18  1  0  0  0  0
  2 25  1  0  0  0  0
  3  8  1  0  0  0  0
  3  9  1  0  0  0  0
  3 12  1  0  0  0  0
  4 10  1  0  0  0  0
  4 11  1  0  0  0  0
  4 15  1  0  0  0  0
  5  7  1  0  0  0  0
  5 24  1  0  0  0  0
  5 26  1  0  0  0  0
  6  7  2  0  0  0  0
  6 20  1  0  0  0  0
  8 10  1  0  0  0  0
  8 33  1  0  0  0  0
  8 34  1  0  0  0  0
  9 11  1  0  0  0  0
  9 35  1  0  0  0  0
  9 36  1  0  0  0  0
 10 37  1  0  0  0  0
 10 38  1  0  0  0  0
 11 39  1  0  0  0  0
 11 40  1  0  0  0  0
 12 13  1  0  0  0  0
 12 41  1  0  0  0  0
 12 42  1  0  0  0  0
 13 14  1  0  0  0  0
 13 43  1  0  0  0  0
 13 44  1  0  0  0  0
 14 16  1  0  0  0  0
 14 45  1  0  0  0  0
 14 46  1  0  0  0  0
 15 18  1  0  0  0  0
 15 19  2  0  0  0  0
 16 17  1  0  0  0  0
 16 47  1  0  0  0  0
 16 48  1  0  0  0  0
 17 20  1  0  0  0  0
 17 49  1  0  0  0  0
 17 50  1  0  0  0  0
 18 21  2  0  0  0  0
 19 22  1  0  0  0  0
 19 51  1  0  0  0  0
 20 24  2  0  0  0  0
 21 23  1  0  0  0  0
 21 52  1  0  0  0  0
 22 23  2  0  0  0  0
 22 53  1  0  0  0  0
 23 54  1  0  0  0  0
 24 55  1  0  0  0  0
 25 56  1  0  0  0  0
 25 57  1  0  0  0  0
 25 58  1  0  0  0  0
 26 27  2  0  0  0  0
 26 28  1  0  0  0  0
 27 29  1  0  0  0  0
 27 59  1  0  0  0  0
 28 30  2  0  0  0  0
 28 60  1  0  0  0  0
 29 31  2  0  0  0  0
 29 61  1  0  0  0  0
 30 31  1  0  0  0  0
 30 62  1  0  0  0  0
 32 63  1  0  0  0  0
 32 64  1  0  0  0  0
 32 65  1  0  0  0  0
M  END
> <PUBCHEM_COMPOUND_CID>
118719810

> <PUBCHEM_COMPOUND_CANONICALIZED>
1

> <PUBCHEM_CACTVS_COMPLEXITY>
525

> <PUBCHEM_CACTVS_HBOND_ACCEPTOR>
6

> <PUBCHEM_CACTVS_HBOND_DONOR>
0

> <PUBCHEM_CACTVS_ROTATABLE_BOND>
10

> <PUBCHEM_CACTVS_SUBSKEYS>
AAADcfB7oABAAAAAAAAAAAAAAAAAAWAAAAA8YIAAAAAAAAAB0AAAHgQIAAAACAzB1ga+x5MIBAiiATRnRACCDCQxuhAYmBg/fIgOZmLksZuVMChkwBHY6AeQwAAAAAQAAAAAEAAACAAAAAAgAAAAAAAAAA==

> <PUBCHEM_IUPAC_OPENEYE_NAME>
1-(2-methoxyphenyl)-4-[5-[1-(4-methylsulfanylphenyl)triazol-4-yl]pentyl]piperazine

> <PUBCHEM_IUPAC_CAS_NAME>
1-(2-methoxyphenyl)-4-[5-[1-[4-(methylthio)phenyl]-4-triazolyl]pentyl]piperazine

> <PUBCHEM_IUPAC_NAME_MARKUP>
1-(2-methoxyphenyl)-4-[5-[1-(4-methylsulfanylphenyl)triazol-4-yl]pentyl]piperazine

> <PUBCHEM_IUPAC_NAME>
1-(2-methoxyphenyl)-4-[5-[1-(4-methylsulfanylphenyl)triazol-4-yl]pentyl]piperazine

> <PUBCHEM_IUPAC_SYSTEMATIC_NAME>
1-(2-methoxyphenyl)-4-[5-[1-(4-methylsulfanylphenyl)-1,2,3-triazol-4-yl]pentyl]piperazine

> <PUBCHEM_IUPAC_TRADITIONAL_NAME>
1-(2-methoxyphenyl)-4-[5-[1-[4-(methylthio)phenyl]triazol-4-yl]pentyl]piperazine

> <PUBCHEM_IUPAC_INCHI>
InChI=1S/C25H33N5OS/c1-31-25-10-6-5-9-24(25)29-18-16-28(17-19-29)15-7-3-4-8-21-20-30(27-26-21)22-11-13-23(32-2)14-12-22/h5-6,9-14,20H,3-4,7-8,15-19H2,1-2H3

> <PUBCHEM_IUPAC_INCHIKEY>
IXQUACGJMOXDCP-UHFFFAOYSA-N

> <PUBCHEM_XLOGP3_AA>
4.8

> <PUBCHEM_EXACT_MASS>
451.24058187

> <PUBCHEM_MOLECULAR_FORMULA>
C25H33N5OS

> <PUBCHEM_MOLECULAR_WEIGHT>
451.6

> <PUBCHEM_OPENEYE_CAN_SMILES>
COC1=CC=CC=C1N2CCN(CC2)CCCCCC3=CN(N=N3)C4=CC=C(C=C4)SC

> <PUBCHEM_OPENEYE_ISO_SMILES>
COC1=CC=CC=C1N2CCN(CC2)CCCCCC3=CN(N=N3)C4=CC=C(C=C4)SC

> <PUBCHEM_CACTVS_TPSA>
71.7

> <PUBCHEM_MONOISOTOPIC_WEIGHT>
451.24058187

> <PUBCHEM_TOTAL_CHARGE>
0

> <PUBCHEM_HEAVY_ATOM_COUNT>
32

> <PUBCHEM_ATOM_DEF_STEREO_COUNT>
0

> <PUBCHEM_ATOM_UDEF_STEREO_COUNT>
0

> <PUBCHEM_BOND_DEF_STEREO_COUNT>
0

> <PUBCHEM_BOND_UDEF_STEREO_COUNT>
0

> <PUBCHEM_ISOTOPIC_ATOM_COUNT>
0

> <PUBCHEM_COMPONENT_COUNT>
1

> <PUBCHEM_CACTVS_TAUTO_COUNT>
-1

> <PUBCHEM_COORDINATE_TYPE>
1
5
255

> <PUBCHEM_BONDANNOTATIONS>
15  18  8
15  19  8
18  21  8
19  22  8
20  24  8
21  23  8
22  23  8
26  27  8
26  28  8
27  29  8
28  30  8
29  31  8
30  31  8
5  24  8
5  7  8
6  20  8
6  7  8

$$$$
