145969934
  -OEChem-09292322382D

 46 47  0     1  0  0  0  0  0999 V2000
    2.0000   -4.9478    0.0000 O   0  0  0  0  0  0  0  0  0  0  0  0
    3.2320   -0.4089    0.0000 N   0  0  3  0  0  0  0  0  0  0  0  0
    3.7320   -1.9478    0.0000 C   0  0  3  0  0  0  0  0  0  0  0  0
    2.9230   -1.3600    0.0000 C   0  0  0  0  0  0  0  0  0  0  0  0
    4.5411   -1.3600    0.0000 C   0  0  0  0  0  0  0  0  0  0  0  0
    4.2320   -0.4089    0.0000 C   0  0  0  0  0  0  0  0  0  0  0  0
    2.6443    0.4001    0.0000 C   0  0  0  0  0  0  0  0  0  0  0  0
    3.7320   -2.9478    0.0000 C   0  0  0  0  0  0  0  0  0  0  0  0
    3.0510    1.3136    0.0000 C   0  0  0  0  0  0  0  0  0  0  0  0
    2.4632    2.1226    0.0000 C   0  0  0  0  0  0  0  0  0  0  0  0
    2.8699    3.0362    0.0000 C   0  0  0  0  0  0  0  0  0  0  0  0
    2.8660   -3.4478    0.0000 C   0  0  0  0  0  0  0  0  0  0  0  0
    4.5981   -3.4478    0.0000 C   0  0  0  0  0  0  0  0  0  0  0  0
    2.2822    3.8452    0.0000 C   0  0  0  0  0  0  0  0  0  0  0  0
    2.8660   -4.4478    0.0000 C   0  0  0  0  0  0  0  0  0  0  0  0
    4.5981   -4.4478    0.0000 C   0  0  0  0  0  0  0  0  0  0  0  0
    2.6889    4.7588    0.0000 C   0  0  0  0  0  0  0  0  0  0  0  0
    3.7320   -4.9478    0.0000 C   0  0  0  0  0  0  0  0  0  0  0  0
    2.1011    5.5678    0.0000 C   0  0  0  0  0  0  0  0  0  0  0  0
    4.2845   -2.2292    0.0000 H   0  0  0  0  0  0  0  0  0  0  0  0
    2.3566   -1.1078    0.0000 H   0  0  0  0  0  0  0  0  0  0  0  0
    2.6130   -1.8969    0.0000 H   0  0  0  0  0  0  0  0  0  0  0  0
    4.8511   -1.8969    0.0000 H   0  0  0  0  0  0  0  0  0  0  0  0
    5.1075   -1.1078    0.0000 H   0  0  0  0  0  0  0  0  0  0  0  0
    4.8385   -0.2800    0.0000 H   0  0  0  0  0  0  0  0  0  0  0  0
    4.1672    0.2077    0.0000 H   0  0  0  0  0  0  0  0  0  0  0  0
    2.1303    0.7468    0.0000 H   0  0  0  0  0  0  0  0  0  0  0  0
    2.2136   -0.0459    0.0000 H   0  0  0  0  0  0  0  0  0  0  0  0
    3.5650    0.9669    0.0000 H   0  0  0  0  0  0  0  0  0  0  0  0
    3.4817    1.7596    0.0000 H   0  0  0  0  0  0  0  0  0  0  0  0
    1.9492    2.4694    0.0000 H   0  0  0  0  0  0  0  0  0  0  0  0
    2.0325    1.6767    0.0000 H   0  0  0  0  0  0  0  0  0  0  0  0
    3.3840    2.6895    0.0000 H   0  0  0  0  0  0  0  0  0  0  0  0
    3.3006    3.4822    0.0000 H   0  0  0  0  0  0  0  0  0  0  0  0
    2.3291   -3.1378    0.0000 H   0  0  0  0  0  0  0  0  0  0  0  0
    5.1350   -3.1378    0.0000 H   0  0  0  0  0  0  0  0  0  0  0  0
    1.7682    4.1919    0.0000 H   0  0  0  0  0  0  0  0  0  0  0  0
    1.8515    3.3992    0.0000 H   0  0  0  0  0  0  0  0  0  0  0  0
    3.2029    4.4121    0.0000 H   0  0  0  0  0  0  0  0  0  0  0  0
    3.1196    5.2048    0.0000 H   0  0  0  0  0  0  0  0  0  0  0  0
    5.1350   -4.7578    0.0000 H   0  0  0  0  0  0  0  0  0  0  0  0
    3.7320   -5.5678    0.0000 H   0  0  0  0  0  0  0  0  0  0  0  0
    2.6027    5.9322    0.0000 H   0  0  0  0  0  0  0  0  0  0  0  0
    1.7367    6.0694    0.0000 H   0  0  0  0  0  0  0  0  0  0  0  0
    1.5995    5.2034    0.0000 H   0  0  0  0  0  0  0  0  0  0  0  0
    2.0000   -5.5678    0.0000 H   0  0  0  0  0  0  0  0  0  0  0  0
  1 15  1  0  0  0  0
  1 46  1  0  0  0  0
  2  4  1  0  0  0  0
  2  6  1  0  0  0  0
  2  7  1  0  0  0  0
  3  4  1  0  0  0  0
  3  5  1  0  0  0  0
  3  8  1  0  0  0  0
  3 20  1  0  0  0  0
  4 21  1  0  0  0  0
  4 22  1  0  0  0  0
  5  6  1  0  0  0  0
  5 23  1  0  0  0  0
  5 24  1  0  0  0  0
  6 25  1  0  0  0  0
  6 26  1  0  0  0  0
  7  9  1  0  0  0  0
  7 27  1  0  0  0  0
  7 28  1  0  0  0  0
  8 12  2  0  0  0  0
  8 13  1  0  0  0  0
  9 10  1  0  0  0  0
  9 29  1  0  0  0  0
  9 30  1  0  0  0  0
 10 11  1  0  0  0  0
 10 31  1  0  0  0  0
 10 32  1  0  0  0  0
 11 14  1  0  0  0  0
 11 33  1  0  0  0  0
 11 34  1  0  0  0  0
 12 15  1  0  0  0  0
 12 35  1  0  0  0  0
 13 16  2  0  0  0  0
 13 36  1  0  0  0  0
 14 17  1  0  0  0  0
 14 37  1  0  0  0  0
 14 38  1  0  0  0  0
 15 18  2  0  0  0  0
 16 18  1  0  0  0  0
 16 41  1  0  0  0  0
 17 19  1  0  0  0  0
 17 39  1  0  0  0  0
 17 40  1  0  0  0  0
 18 42  1  0  0  0  0
 19 43  1  0  0  0  0
 19 44  1  0  0  0  0
 19 45  1  0  0  0  0
M  END
> <PUBCHEM_COMPOUND_CID>
145969934

> <PUBCHEM_COMPOUND_CANONICALIZED>
1

> <PUBCHEM_CACTVS_COMPLEXITY>
243

> <PUBCHEM_CACTVS_HBOND_ACCEPTOR>
2

> <PUBCHEM_CACTVS_HBOND_DONOR>
1

> <PUBCHEM_CACTVS_ROTATABLE_BOND>
7

> <PUBCHEM_CACTVS_SUBSKEYS>
AAADceB6IAAAAAAAAAAAAAAAAAAAAWAAAAAwAAAAAAAAAAABAAAAHgAACAAADQTBmAQyBoMAAgCAAiBCAAACAAAgIAAIiAAOCIgIJiKCkROEcAAkwBGImAeQ0PIOgAABAAAAAAAAAAIAAAAAAAAAAAAAAA==

> <PUBCHEM_IUPAC_OPENEYE_NAME>
3-(1-heptylpyrrolidin-3-yl)phenol

> <PUBCHEM_IUPAC_CAS_NAME>
3-(1-heptyl-3-pyrrolidinyl)phenol

> <PUBCHEM_IUPAC_NAME_MARKUP>
3-(1-heptylpyrrolidin-3-yl)phenol

> <PUBCHEM_IUPAC_NAME>
3-(1-heptylpyrrolidin-3-yl)phenol

> <PUBCHEM_IUPAC_SYSTEMATIC_NAME>
3-(1-heptylpyrrolidin-3-yl)phenol

> <PUBCHEM_IUPAC_TRADITIONAL_NAME>
3-(1-heptylpyrrolidin-3-yl)phenol

> <PUBCHEM_IUPAC_INCHI>
InChI=1S/C17H27NO/c1-2-3-4-5-6-11-18-12-10-16(14-18)15-8-7-9-17(19)13-15/h7-9,13,16,19H,2-6,10-12,14H2,1H3

> <PUBCHEM_IUPAC_INCHIKEY>
OLIUQFBIXLONDP-UHFFFAOYSA-N

> <PUBCHEM_XLOGP3_AA>
4.7

> <PUBCHEM_EXACT_MASS>
261.209264485

> <PUBCHEM_MOLECULAR_FORMULA>
C17H27NO

> <PUBCHEM_MOLECULAR_WEIGHT>
261.4

> <PUBCHEM_OPENEYE_CAN_SMILES>
CCCCCCCN1CCC(C1)C2=CC(=CC=C2)O

> <PUBCHEM_OPENEYE_ISO_SMILES>
CCCCCCCN1CCC(C1)C2=CC(=CC=C2)O

> <PUBCHEM_CACTVS_TPSA>
23.5

> <PUBCHEM_MONOISOTOPIC_WEIGHT>
261.209264485

> <PUBCHEM_TOTAL_CHARGE>
0

> <PUBCHEM_HEAVY_ATOM_COUNT>
19

> <PUBCHEM_ATOM_DEF_STEREO_COUNT>
0

> <PUBCHEM_ATOM_UDEF_STEREO_COUNT>
1

> <PUBCHEM_BOND_DEF_STEREO_COUNT>
0

> <PUBCHEM_BOND_UDEF_STEREO_COUNT>
0

> <PUBCHEM_ISOTOPIC_ATOM_COUNT>
0

> <PUBCHEM_COMPONENT_COUNT>
1

> <PUBCHEM_CACTVS_TAUTO_COUNT>
-1

> <PUBCHEM_COORDINATE_TYPE>
1
5
255

> <PUBCHEM_BONDANNOTATIONS>
12  15  8
13  16  8
15  18  8
16  18  8
3  8  3
8  12  8
8  13  8

$$$$
