73347826
  -OEChem-09292322342D

 42 47  0     1  0  0  0  0  0999 V2000
    4.3122    0.2265    0.0000 N   0  0  0  0  0  0  0  0  0  0  0  0
    3.9914   -3.2227    0.0000 N   0  0  0  0  0  0  0  0  0  0  0  0
    3.1686    2.1364    0.0000 C   0  0  3  0  0  0  0  0  0  0  0  0
    2.7432    2.7620    0.0000 C   0  0  3  0  0  0  0  0  0  0  0  0
    2.8181    1.2352    0.0000 C   0  0  3  0  0  0  0  0  0  0  0  0
    2.3928    1.7608    0.0000 C   0  0  3  0  0  0  0  0  0  0  0  0
    3.8694    2.5618    0.0000 C   0  0  3  0  0  0  0  0  0  0  0  0
    3.6442    3.1876    0.0000 C   0  0  3  0  0  0  0  0  0  0  0  0
    4.6204    1.9361    0.0000 C   0  0  3  0  0  0  0  0  0  0  0  0
    4.4452    2.7121    0.0000 C   0  0  3  0  0  0  0  0  0  0  0  0
    3.8945    1.1351    0.0000 C   0  0  2  0  0  0  0  0  0  0  0  0
    3.8444    4.0387    0.0000 C   0  0  0  0  0  0  0  0  0  0  0  0
    3.6192    1.7359    0.0000 C   0  0  0  0  0  0  0  0  0  0  0  0
    3.7341   -0.5895    0.0000 C   0  0  0  0  0  0  0  0  0  0  0  0
    4.1518   -1.4981    0.0000 C   0  0  0  0  0  0  0  0  0  0  0  0
    3.5738   -2.3141    0.0000 C   0  0  0  0  0  0  0  0  0  0  0  0
    2.5780   -2.2215    0.0000 C   0  0  0  0  0  0  0  0  0  0  0  0
    2.0000   -3.0375    0.0000 C   0  0  0  0  0  0  0  0  0  0  0  0
    3.4134   -4.0387    0.0000 C   0  0  0  0  0  0  0  0  0  0  0  0
    2.4177   -3.9461    0.0000 C   0  0  0  0  0  0  0  0  0  0  0  0
    3.6436    1.7379    0.0000 H   0  0  0  0  0  0  0  0  0  0  0  0
    2.2824    3.1769    0.0000 H   0  0  0  0  0  0  0  0  0  0  0  0
    2.5255    0.6886    0.0000 H   0  0  0  0  0  0  0  0  0  0  0  0
    1.7819    1.6548    0.0000 H   0  0  0  0  0  0  0  0  0  0  0  0
    3.3266    2.8613    0.0000 H   0  0  0  0  0  0  0  0  0  0  0  0
    3.1622    3.5776    0.0000 H   0  0  0  0  0  0  0  0  0  0  0  0
    5.2200    1.7785    0.0000 H   0  0  0  0  0  0  0  0  0  0  0  0
    4.9467    3.0766    0.0000 H   0  0  0  0  0  0  0  0  0  0  0  0
    3.5361    0.6292    0.0000 H   0  0  0  0  0  0  0  0  0  0  0  0
    4.4006    4.3128    0.0000 H   0  0  0  0  0  0  0  0  0  0  0  0
    3.3592    4.4247    0.0000 H   0  0  0  0  0  0  0  0  0  0  0  0
    3.4672    1.1348    0.0000 H   0  0  0  0  0  0  0  0  0  0  0  0
    4.1706    1.4524    0.0000 H   0  0  0  0  0  0  0  0  0  0  0  0
    4.9295    0.1691    0.0000 H   0  0  0  0  0  0  0  0  0  0  0  0
    3.2981   -0.1487    0.0000 H   0  0  0  0  0  0  0  0  0  0  0  0
    3.2243   -0.9423    0.0000 H   0  0  0  0  0  0  0  0  0  0  0  0
    4.5878   -1.9389    0.0000 H   0  0  0  0  0  0  0  0  0  0  0  0
    4.6616   -1.1452    0.0000 H   0  0  0  0  0  0  0  0  0  0  0  0
    2.3191   -1.6582    0.0000 H   0  0  0  0  0  0  0  0  0  0  0  0
    1.3827   -2.9801    0.0000 H   0  0  0  0  0  0  0  0  0  0  0  0
    3.6723   -4.6020    0.0000 H   0  0  0  0  0  0  0  0  0  0  0  0
    2.0593   -4.4520    0.0000 H   0  0  0  0  0  0  0  0  0  0  0  0
  1 11  1  0  0  0  0
  1 14  1  0  0  0  0
  1 34  1  0  0  0  0
  2 16  1  0  0  0  0
  2 19  2  0  0  0  0
  3  4  1  0  0  0  0
  3  5  1  0  0  0  0
  3  7  1  0  0  0  0
  3 21  1  0  0  0  0
  4  6  1  0  0  0  0
  4  8  1  0  0  0  0
  4 22  1  0  0  0  0
  5  6  1  0  0  0  0
  5 11  1  0  0  0  0
  5 23  1  0  0  0  0
  6 13  1  0  0  0  0
  6 24  1  0  0  0  0
  7  9  1  0  0  0  0
  7 12  1  0  0  0  0
  7 25  1  0  0  0  0
  8 10  1  0  0  0  0
  8 12  1  0  0  0  0
  8 26  1  0  0  0  0
  9 10  1  0  0  0  0
  9 11  1  0  0  0  0
  9 27  1  0  0  0  0
 10 13  1  0  0  0  0
 10 28  1  0  0  0  0
 11 29  1  0  0  0  0
 12 30  1  0  0  0  0
 12 31  1  0  0  0  0
 13 32  1  0  0  0  0
 13 33  1  0  0  0  0
 14 15  1  0  0  0  0
 14 35  1  0  0  0  0
 14 36  1  0  0  0  0
 15 16  1  0  0  0  0
 15 37  1  0  0  0  0
 15 38  1  0  0  0  0
 16 17  2  0  0  0  0
 17 18  1  0  0  0  0
 17 39  1  0  0  0  0
 18 20  2  0  0  0  0
 18 40  1  0  0  0  0
 19 20  1  0  0  0  0
 19 41  1  0  0  0  0
 20 42  1  0  0  0  0
M  END
> <PUBCHEM_COMPOUND_CID>
73347826

> <PUBCHEM_COMPOUND_CANONICALIZED>
1

> <PUBCHEM_CACTVS_COMPLEXITY>
435

> <PUBCHEM_CACTVS_HBOND_ACCEPTOR>
2

> <PUBCHEM_CACTVS_HBOND_DONOR>
1

> <PUBCHEM_CACTVS_ROTATABLE_BOND>
4

> <PUBCHEM_CACTVS_SUBSKEYS>
AAADceB7AAAAAAAAAAAAAAAAAABgAYMGDAA8QAAAAAAAAAABgAAAHAAQAAAADSjBFgQ8gJLIEACgATRnRACCgCAxAiAI2KA4ZJgIIOLA0ZGEIAhgkADIyAcQgMAOgAAAAAAAAACAAASAACQAASAACQAAAA==

> <PUBCHEM_IUPAC_OPENEYE_NAME>
(8S)-N-[2-(2-pyridyl)ethyl]pentacyclo[5.4.0.02,6.03,10.05,9]undecan-8-amine

> <PUBCHEM_IUPAC_CAS_NAME>
(8S)-N-[2-(2-pyridinyl)ethyl]-8-pentacyclo[5.4.0.02,6.03,10.05,9]undecanamine

> <PUBCHEM_IUPAC_NAME_MARKUP>
(8<I>S</I>)-<I>N</I>-(2-pyridin-2-ylethyl)pentacyclo[5.4.0.0<SUP>2,6</SUP>.0<SUP>3,10</SUP>.0<SUP>5,9</SUP>]undecan-8-amine

> <PUBCHEM_IUPAC_NAME>
(8S)-N-(2-pyridin-2-ylethyl)pentacyclo[5.4.0.02,6.03,10.05,9]undecan-8-amine

> <PUBCHEM_IUPAC_SYSTEMATIC_NAME>
(8S)-N-(2-pyridin-2-ylethyl)pentacyclo[5.4.0.02,6.03,10.05,9]undecan-8-amine

> <PUBCHEM_IUPAC_TRADITIONAL_NAME>
[(8S)-8-pentacyclo[5.4.0.02,6.03,10.05,9]undecanyl]-[2-(2-pyridyl)ethyl]amine

> <PUBCHEM_IUPAC_INCHI>
InChI=1S/C18H22N2/c1-2-5-19-9(3-1)4-6-20-18-15-11-8-12-14-10(11)7-13(15)16(14)17(12)18/h1-3,5,10-18,20H,4,6-8H2/t10?,11?,12?,13?,14?,15?,16?,17?,18-/m0/s1

> <PUBCHEM_IUPAC_INCHIKEY>
DUZKXKAAUHDBQA-CAUKCHDASA-N

> <PUBCHEM_XLOGP3_AA>
2.8

> <PUBCHEM_EXACT_MASS>
266.178298710

> <PUBCHEM_MOLECULAR_FORMULA>
C18H22N2

> <PUBCHEM_MOLECULAR_WEIGHT>
266.4

> <PUBCHEM_OPENEYE_CAN_SMILES>
C1C2C3CC4C2C5C1C3C(C45)NCCC6=CC=CC=N6

> <PUBCHEM_OPENEYE_ISO_SMILES>
C1C2C3CC4C2[C@@H](C5C1C3C45)NCCC6=CC=CC=N6

> <PUBCHEM_CACTVS_TPSA>
24.9

> <PUBCHEM_MONOISOTOPIC_WEIGHT>
266.178298710

> <PUBCHEM_TOTAL_CHARGE>
0

> <PUBCHEM_HEAVY_ATOM_COUNT>
20

> <PUBCHEM_ATOM_DEF_STEREO_COUNT>
1

> <PUBCHEM_ATOM_UDEF_STEREO_COUNT>
8

> <PUBCHEM_BOND_DEF_STEREO_COUNT>
0

> <PUBCHEM_BOND_UDEF_STEREO_COUNT>
0

> <PUBCHEM_ISOTOPIC_ATOM_COUNT>
0

> <PUBCHEM_COMPONENT_COUNT>
1

> <PUBCHEM_CACTVS_TAUTO_COUNT>
-1

> <PUBCHEM_COORDINATE_TYPE>
1
5
255

> <PUBCHEM_BONDANNOTATIONS>
10  13  3
16  17  8
17  18  8
18  20  8
19  20  8
2  16  8
2  19  8
3  7  3
4  8  3
5  11  3
6  13  3
7  12  3
8  12  3
9  11  3

$$$$
