52948653
  -OEChem-09292322302D

 56 60  0     1  0  0  0  0  0999 V2000
    7.0259    0.7500    0.0000 S   0  0  0  0  0  0  0  0  0  0  0  0
    2.9136   -0.7250    0.0000 O   0  0  0  0  0  0  0  0  0  0  0  0
   10.4900    0.7500    0.0000 N   0  0  3  0  0  0  0  0  0  0  0  0
    5.2463    0.6567    0.0000 N   0  0  0  0  0  0  0  0  0  0  0  0
    6.0554   -0.7445    0.0000 N   0  0  0  0  0  0  0  0  0  0  0  0
    5.0772   -0.9524    0.0000 N   0  0  0  0  0  0  0  0  0  0  0  0
    2.1045    0.6762    0.0000 N   0  0  0  0  0  0  0  0  0  0  0  0
   12.2221    0.7500    0.0000 C   0  0  3  0  0  0  0  0  0  0  0  0
   12.2221    1.7500    0.0000 C   0  0  3  0  0  0  0  0  0  0  0  0
   13.0886    1.2500    0.0000 C   0  0  0  0  0  0  0  0  0  0  0  0
   11.3560    0.2500    0.0000 C   0  0  0  0  0  0  0  0  0  0  0  0
   11.3560    2.2500    0.0000 C   0  0  0  0  0  0  0  0  0  0  0  0
   12.2221   -0.2500    0.0000 C   0  0  0  0  0  0  0  0  0  0  0  0
   10.4900    1.7500    0.0000 C   0  0  0  0  0  0  0  0  0  0  0  0
    9.6240    0.2500    0.0000 C   0  0  0  0  0  0  0  0  0  0  0  0
   11.3560   -0.7500    0.0000 C   0  0  0  0  0  0  0  0  0  0  0  0
   13.0881   -0.7500    0.0000 C   0  0  0  0  0  0  0  0  0  0  0  0
    8.7579    0.7500    0.0000 C   0  0  0  0  0  0  0  0  0  0  0  0
   11.3560   -1.7500    0.0000 C   0  0  0  0  0  0  0  0  0  0  0  0
   13.0881   -1.7500    0.0000 C   0  0  0  0  0  0  0  0  0  0  0  0
   12.2221   -2.2500    0.0000 C   0  0  0  0  0  0  0  0  0  0  0  0
    7.8919    0.2500    0.0000 C   0  0  0  0  0  0  0  0  0  0  0  0
    6.1599    0.2500    0.0000 C   0  0  0  0  0  0  0  0  0  0  0  0
    4.5772   -0.0864    0.0000 C   0  0  0  0  0  0  0  0  0  0  0  0
    5.0384    1.6349    0.0000 C   0  0  0  0  0  0  0  0  0  0  0  0
    3.5827    0.0181    0.0000 C   0  0  0  0  0  0  0  0  0  0  0  0
    3.0827    0.8841    0.0000 C   0  0  0  0  0  0  0  0  0  0  0  0
    3.4894    1.7977    0.0000 C   0  0  0  0  0  0  0  0  0  0  0  0
    2.0000   -0.3183    0.0000 C   0  0  0  0  0  0  0  0  0  0  0  0
   12.5320    2.2870    0.0000 H   0  0  0  0  0  0  0  0  0  0  0  0
   13.4871    0.7750    0.0000 H   0  0  0  0  0  0  0  0  0  0  0  0
   13.4871    1.7250    0.0000 H   0  0  0  0  0  0  0  0  0  0  0  0
   10.9575   -0.2249    0.0000 H   0  0  0  0  0  0  0  0  0  0  0  0
   11.7546   -0.2249    0.0000 H   0  0  0  0  0  0  0  0  0  0  0  0
   11.7546    2.7250    0.0000 H   0  0  0  0  0  0  0  0  0  0  0  0
   10.9575    2.7250    0.0000 H   0  0  0  0  0  0  0  0  0  0  0  0
   10.2779    2.3326    0.0000 H   0  0  0  0  0  0  0  0  0  0  0  0
    9.8794    1.6423    0.0000 H   0  0  0  0  0  0  0  0  0  0  0  0
    9.2254   -0.2249    0.0000 H   0  0  0  0  0  0  0  0  0  0  0  0
   10.0225   -0.2249    0.0000 H   0  0  0  0  0  0  0  0  0  0  0  0
   10.8191   -0.4400    0.0000 H   0  0  0  0  0  0  0  0  0  0  0  0
   13.6250   -0.4400    0.0000 H   0  0  0  0  0  0  0  0  0  0  0  0
    9.1565    1.2250    0.0000 H   0  0  0  0  0  0  0  0  0  0  0  0
    8.3594    1.2250    0.0000 H   0  0  0  0  0  0  0  0  0  0  0  0
   10.8191   -2.0600    0.0000 H   0  0  0  0  0  0  0  0  0  0  0  0
   13.6250   -2.0600    0.0000 H   0  0  0  0  0  0  0  0  0  0  0  0
   12.2221   -2.8700    0.0000 H   0  0  0  0  0  0  0  0  0  0  0  0
    7.4934   -0.2249    0.0000 H   0  0  0  0  0  0  0  0  0  0  0  0
    8.2904   -0.2249    0.0000 H   0  0  0  0  0  0  0  0  0  0  0  0
    5.6449    1.7638    0.0000 H   0  0  0  0  0  0  0  0  0  0  0  0
    4.9095    2.2413    0.0000 H   0  0  0  0  0  0  0  0  0  0  0  0
    4.4320    1.5060    0.0000 H   0  0  0  0  0  0  0  0  0  0  0  0
    4.0558    1.5455    0.0000 H   0  0  0  0  0  0  0  0  0  0  0  0
    3.7416    2.3641    0.0000 H   0  0  0  0  0  0  0  0  0  0  0  0
    2.9230    2.0499    0.0000 H   0  0  0  0  0  0  0  0  0  0  0  0
    1.4631   -0.6283    0.0000 H   0  0  0  0  0  0  0  0  0  0  0  0
  1 22  1  0  0  0  0
  1 23  1  0  0  0  0
  2 26  1  0  0  0  0
  2 29  1  0  0  0  0
  3 11  1  0  0  0  0
  3 14  1  0  0  0  0
  3 15  1  0  0  0  0
  4 23  1  0  0  0  0
  4 24  1  0  0  0  0
  4 25  1  0  0  0  0
  5  6  1  0  0  0  0
  5 23  2  0  0  0  0
  6 24  2  0  0  0  0
  7 27  1  0  0  0  0
  7 29  2  0  0  0  0
  8  9  1  0  0  0  0
  8 10  1  0  0  0  0
  8 11  1  0  0  0  0
  8 13  1  0  0  0  0
  9 10  1  0  0  0  0
  9 12  1  0  0  0  0
  9 30  1  0  0  0  0
 10 31  1  0  0  0  0
 10 32  1  0  0  0  0
 11 33  1  0  0  0  0
 11 34  1  0  0  0  0
 12 14  1  0  0  0  0
 12 35  1  0  0  0  0
 12 36  1  0  0  0  0
 13 16  2  0  0  0  0
 13 17  1  0  0  0  0
 14 37  1  0  0  0  0
 14 38  1  0  0  0  0
 15 18  1  0  0  0  0
 15 39  1  0  0  0  0
 15 40  1  0  0  0  0
 16 19  1  0  0  0  0
 16 41  1  0  0  0  0
 17 20  2  0  0  0  0
 17 42  1  0  0  0  0
 18 22  1  0  0  0  0
 18 43  1  0  0  0  0
 18 44  1  0  0  0  0
 19 21  2  0  0  0  0
 19 45  1  0  0  0  0
 20 21  1  0  0  0  0
 20 46  1  0  0  0  0
 21 47  1  0  0  0  0
 22 48  1  0  0  0  0
 22 49  1  0  0  0  0
 24 26  1  0  0  0  0
 25 50  1  0  0  0  0
 25 51  1  0  0  0  0
 25 52  1  0  0  0  0
 26 27  2  0  0  0  0
 27 28  1  0  0  0  0
 28 53  1  0  0  0  0
 28 54  1  0  0  0  0
 28 55  1  0  0  0  0
 29 56  1  0  0  0  0
M  END
> <PUBCHEM_COMPOUND_CID>
52948653

> <PUBCHEM_COMPOUND_CANONICALIZED>
1

> <PUBCHEM_CACTVS_COMPLEXITY>
561

> <PUBCHEM_CACTVS_HBOND_ACCEPTOR>
6

> <PUBCHEM_CACTVS_HBOND_DONOR>
0

> <PUBCHEM_CACTVS_ROTATABLE_BOND>
7

> <PUBCHEM_CACTVS_SUBSKEYS>
AAADceB7oABAAAAAAAAAAAAAGAAAAWLAAAA8QAAABYAAAAAB8AAAHgQIAAAADwzF3wa3lJcMFEiqA6Zz9ASS2Ct7YLAd2CG9RJiOKCLk2TGNIChgjALYiAcQgMAPgAAAAAAAAAAAAAAAAAAAAAAAAAAAAA==

> <PUBCHEM_IUPAC_OPENEYE_NAME>
4-methyl-5-[4-methyl-5-[3-(1-phenyl-3-azabicyclo[4.1.0]heptan-3-yl)propylsulfanyl]-1,2,4-triazol-3-yl]oxazole

> <PUBCHEM_IUPAC_CAS_NAME>
4-methyl-5-[4-methyl-5-[3-(1-phenyl-3-azabicyclo[4.1.0]heptan-3-yl)propylthio]-1,2,4-triazol-3-yl]oxazole

> <PUBCHEM_IUPAC_NAME_MARKUP>
4-methyl-5-[4-methyl-5-[3-(1-phenyl-3-azabicyclo[4.1.0]heptan-3-yl)propylsulfanyl]-1,2,4-triazol-3-yl]-1,3-oxazole

> <PUBCHEM_IUPAC_NAME>
4-methyl-5-[4-methyl-5-[3-(1-phenyl-3-azabicyclo[4.1.0]heptan-3-yl)propylsulfanyl]-1,2,4-triazol-3-yl]-1,3-oxazole

> <PUBCHEM_IUPAC_SYSTEMATIC_NAME>
4-methyl-5-[4-methyl-5-[3-(1-phenyl-3-azabicyclo[4.1.0]heptan-3-yl)propylsulfanyl]-1,2,4-triazol-3-yl]-1,3-oxazole

> <PUBCHEM_IUPAC_TRADITIONAL_NAME>
4-methyl-5-[4-methyl-5-[3-(1-phenyl-3-azabicyclo[4.1.0]heptan-3-yl)propylthio]-1,2,4-triazol-3-yl]oxazole

> <PUBCHEM_IUPAC_INCHI>
InChI=1S/C22H27N5OS/c1-16-19(28-15-23-16)20-24-25-21(26(20)2)29-12-6-10-27-11-9-18-13-22(18,14-27)17-7-4-3-5-8-17/h3-5,7-8,15,18H,6,9-14H2,1-2H3

> <PUBCHEM_IUPAC_INCHIKEY>
ACFIBJLBHXWBFG-UHFFFAOYSA-N

> <PUBCHEM_XLOGP3_AA>
3.5

> <PUBCHEM_EXACT_MASS>
409.19363168

> <PUBCHEM_MOLECULAR_FORMULA>
C22H27N5OS

> <PUBCHEM_MOLECULAR_WEIGHT>
409.5

> <PUBCHEM_OPENEYE_CAN_SMILES>
CC1=C(OC=N1)C2=NN=C(N2C)SCCCN3CCC4CC4(C3)C5=CC=CC=C5

> <PUBCHEM_OPENEYE_ISO_SMILES>
CC1=C(OC=N1)C2=NN=C(N2C)SCCCN3CCC4CC4(C3)C5=CC=CC=C5

> <PUBCHEM_CACTVS_TPSA>
85.3

> <PUBCHEM_MONOISOTOPIC_WEIGHT>
409.19363168

> <PUBCHEM_TOTAL_CHARGE>
0

> <PUBCHEM_HEAVY_ATOM_COUNT>
29

> <PUBCHEM_ATOM_DEF_STEREO_COUNT>
0

> <PUBCHEM_ATOM_UDEF_STEREO_COUNT>
2

> <PUBCHEM_BOND_DEF_STEREO_COUNT>
0

> <PUBCHEM_BOND_UDEF_STEREO_COUNT>
0

> <PUBCHEM_ISOTOPIC_ATOM_COUNT>
0

> <PUBCHEM_COMPONENT_COUNT>
1

> <PUBCHEM_CACTVS_TAUTO_COUNT>
-1

> <PUBCHEM_COORDINATE_TYPE>
1
5
255

> <PUBCHEM_BONDANNOTATIONS>
13  16  8
13  17  8
16  19  8
17  20  8
19  21  8
2  26  8
2  29  8
20  21  8
26  27  8
4  23  8
4  24  8
5  23  8
5  6  8
6  24  8
7  27  8
7  29  8
8  13  3
9  12  3

$$$$
