44454320
  -OEChem-09292322242D

 67 72  0     1  0  0  0  0  0999 V2000
    8.5361    2.5143    0.0000 S   0  0  0  0  0  0  0  0  0  0  0  0
   14.7964   -5.2462    0.0000 F   0  0  0  0  0  0  0  0  0  0  0  0
   15.6907   -4.1506    0.0000 F   0  0  0  0  0  0  0  0  0  0  0  0
   13.7008   -4.3520    0.0000 F   0  0  0  0  0  0  0  0  0  0  0  0
   10.8540   -0.0600    0.0000 N   0  0  3  0  0  0  0  0  0  0  0  0
   13.5539   -1.7879    0.0000 N   0  0  0  0  0  0  0  0  0  0  0  0
   14.0539   -0.2490    0.0000 N   0  0  0  0  0  0  0  0  0  0  0  0
    6.7760    2.2356    0.0000 N   0  0  0  0  0  0  0  0  0  0  0  0
    7.2760    3.7744    0.0000 N   0  0  0  0  0  0  0  0  0  0  0  0
    6.2760    3.7744    0.0000 N   0  0  0  0  0  0  0  0  0  0  0  0
    2.5370    3.5594    0.0000 N   0  0  0  0  0  0  0  0  0  0  0  0
   10.9844   -1.0321    0.0000 C   0  0  0  0  0  0  0  0  0  0  0  0
   11.8243   -1.5385    0.0000 C   0  0  0  0  0  0  0  0  0  0  0  0
   11.5309    0.6498    0.0000 C   0  0  0  0  0  0  0  0  0  0  0  0
   12.7449   -1.2001    0.0000 C   0  0  0  0  0  0  0  0  0  0  0  0
   12.5081    0.5659    0.0000 C   0  0  0  0  0  0  0  0  0  0  0  0
   13.0539   -0.2490    0.0000 C   0  0  0  0  0  0  0  0  0  0  0  0
    9.9030    0.2490    0.0000 C   0  0  0  0  0  0  0  0  0  0  0  0
   14.3629   -1.2001    0.0000 C   0  0  0  0  0  0  0  0  0  0  0  0
    9.6951    1.2272    0.0000 C   0  0  0  0  0  0  0  0  0  0  0  0
   13.6468   -2.8254    0.0000 C   0  0  0  0  0  0  0  0  0  0  0  0
    8.7440    1.5362    0.0000 C   0  0  0  0  0  0  0  0  0  0  0  0
   15.3209   -1.6090    0.0000 C   0  0  0  0  0  0  0  0  0  0  0  0
   14.5950   -3.2564    0.0000 C   0  0  0  0  0  0  0  0  0  0  0  0
   15.4377   -2.6441    0.0000 C   0  0  0  0  0  0  0  0  0  0  0  0
   14.6957   -4.2513    0.0000 C   0  0  0  0  0  0  0  0  0  0  0  0
    7.5850    2.8234    0.0000 C   0  0  0  0  0  0  0  0  0  0  0  0
    5.9670    2.8234    0.0000 C   0  0  0  0  0  0  0  0  0  0  0  0
    5.0160    2.5143    0.0000 C   0  0  0  0  0  0  0  0  0  0  0  0
    4.2728    3.1835    0.0000 C   0  0  0  0  0  0  0  0  0  0  0  0
    6.7760    1.2356    0.0000 C   0  0  0  0  0  0  0  0  0  0  0  0
    3.3218    2.8744    0.0000 C   0  0  0  0  0  0  0  0  0  0  0  0
    4.8080    1.5362    0.0000 C   0  0  0  0  0  0  0  0  0  0  0  0
    4.5050    4.1989    0.0000 C   0  0  0  0  0  0  0  0  0  0  0  0
    3.1138    1.8963    0.0000 C   0  0  0  0  0  0  0  0  0  0  0  0
    3.8570    1.2272    0.0000 C   0  0  0  0  0  0  0  0  0  0  0  0
    3.7364    4.9018    0.0000 C   0  0  0  0  0  0  0  0  0  0  0  0
    2.7457    4.5799    0.0000 C   0  0  0  0  0  0  0  0  0  0  0  0
    2.0000    5.2462    0.0000 C   0  0  0  0  0  0  0  0  0  0  0  0
   10.3670   -0.9751    0.0000 H   0  0  0  0  0  0  0  0  0  0  0  0
   10.7909   -1.6211    0.0000 H   0  0  0  0  0  0  0  0  0  0  0  0
   11.3936   -1.9846    0.0000 H   0  0  0  0  0  0  0  0  0  0  0  0
   12.1628   -2.0580    0.0000 H   0  0  0  0  0  0  0  0  0  0  0  0
   11.7206    1.2401    0.0000 H   0  0  0  0  0  0  0  0  0  0  0  0
   10.9979    0.9666    0.0000 H   0  0  0  0  0  0  0  0  0  0  0  0
   13.0872    0.7871    0.0000 H   0  0  0  0  0  0  0  0  0  0  0  0
   12.4218    1.1798    0.0000 H   0  0  0  0  0  0  0  0  0  0  0  0
    9.2834    0.2274    0.0000 H   0  0  0  0  0  0  0  0  0  0  0  0
    9.8167   -0.3649    0.0000 H   0  0  0  0  0  0  0  0  0  0  0  0
   10.3147    1.2488    0.0000 H   0  0  0  0  0  0  0  0  0  0  0  0
    9.7814    1.8411    0.0000 H   0  0  0  0  0  0  0  0  0  0  0  0
   13.1410   -3.1840    0.0000 H   0  0  0  0  0  0  0  0  0  0  0  0
    8.1244    1.5146    0.0000 H   0  0  0  0  0  0  0  0  0  0  0  0
    8.6577    0.9222    0.0000 H   0  0  0  0  0  0  0  0  0  0  0  0
   15.8182   -1.2388    0.0000 H   0  0  0  0  0  0  0  0  0  0  0  0
   16.0051   -2.8941    0.0000 H   0  0  0  0  0  0  0  0  0  0  0  0
    6.1560    1.2356    0.0000 H   0  0  0  0  0  0  0  0  0  0  0  0
    6.7760    0.6156    0.0000 H   0  0  0  0  0  0  0  0  0  0  0  0
    7.3960    1.2356    0.0000 H   0  0  0  0  0  0  0  0  0  0  0  0
    5.2688    1.1213    0.0000 H   0  0  0  0  0  0  0  0  0  0  0  0
    5.0969    4.3836    0.0000 H   0  0  0  0  0  0  0  0  0  0  0  0
    2.5242    1.7047    0.0000 H   0  0  0  0  0  0  0  0  0  0  0  0
    3.7281    0.6207    0.0000 H   0  0  0  0  0  0  0  0  0  0  0  0
    3.8676    5.5078    0.0000 H   0  0  0  0  0  0  0  0  0  0  0  0
    2.4131    5.7085    0.0000 H   0  0  0  0  0  0  0  0  0  0  0  0
    1.5376    5.6593    0.0000 H   0  0  0  0  0  0  0  0  0  0  0  0
    1.5869    4.7838    0.0000 H   0  0  0  0  0  0  0  0  0  0  0  0
  1 22  1  0  0  0  0
  1 27  1  0  0  0  0
  2 26  1  0  0  0  0
  3 26  1  0  0  0  0
  4 26  1  0  0  0  0
  5 12  1  0  0  0  0
  5 14  1  0  0  0  0
  5 18  1  0  0  0  0
  6 15  1  0  0  0  0
  6 19  1  0  0  0  0
  6 21  1  0  0  0  0
  7 17  1  0  0  0  0
  7 19  2  0  0  0  0
  8 27  1  0  0  0  0
  8 28  1  0  0  0  0
  8 31  1  0  0  0  0
  9 10  1  0  0  0  0
  9 27  2  0  0  0  0
 10 28  2  0  0  0  0
 11 32  1  0  0  0  0
 11 38  2  0  0  0  0
 12 13  1  0  0  0  0
 12 40  1  0  0  0  0
 12 41  1  0  0  0  0
 13 15  1  0  0  0  0
 13 42  1  0  0  0  0
 13 43  1  0  0  0  0
 14 16  1  0  0  0  0
 14 44  1  0  0  0  0
 14 45  1  0  0  0  0
 15 17  2  0  0  0  0
 16 17  1  0  0  0  0
 16 46  1  0  0  0  0
 16 47  1  0  0  0  0
 18 20  1  0  0  0  0
 18 48  1  0  0  0  0
 18 49  1  0  0  0  0
 19 23  1  0  0  0  0
 20 22  1  0  0  0  0
 20 50  1  0  0  0  0
 20 51  1  0  0  0  0
 21 24  2  0  0  0  0
 21 52  1  0  0  0  0
 22 53  1  0  0  0  0
 22 54  1  0  0  0  0
 23 25  2  0  0  0  0
 23 55  1  0  0  0  0
 24 25  1  0  0  0  0
 24 26  1  0  0  0  0
 25 56  1  0  0  0  0
 28 29  1  0  0  0  0
 29 30  2  0  0  0  0
 29 33  1  0  0  0  0
 30 32  1  0  0  0  0
 30 34  1  0  0  0  0
 31 57  1  0  0  0  0
 31 58  1  0  0  0  0
 31 59  1  0  0  0  0
 32 35  2  0  0  0  0
 33 36  2  0  0  0  0
 33 60  1  0  0  0  0
 34 37  2  0  0  0  0
 34 61  1  0  0  0  0
 35 36  1  0  0  0  0
 35 62  1  0  0  0  0
 36 63  1  0  0  0  0
 37 38  1  0  0  0  0
 37 64  1  0  0  0  0
 38 39  1  0  0  0  0
 39 65  1  0  0  0  0
 39 66  1  0  0  0  0
 39 67  1  0  0  0  0
M  END
> <PUBCHEM_COMPOUND_CID>
44454320

> <PUBCHEM_COMPOUND_CANONICALIZED>
1

> <PUBCHEM_CACTVS_COMPLEXITY>
821

> <PUBCHEM_CACTVS_HBOND_ACCEPTOR>
9

> <PUBCHEM_CACTVS_HBOND_DONOR>
0

> <PUBCHEM_CACTVS_ROTATABLE_BOND>
6

> <PUBCHEM_CACTVS_SUBSKEYS>
AAADceB7gYBAAAAAAAAAAAAAAAAAAWLAAAA8WIAABYAAAFix/gAAHQQIAAAADAjFXxS/8P8MGAiiAzZnZACS0C9xErAd2CA4dJiIaOLg2ZGUIAhoiALIyCcQgMAOgAAAQAASAAAAAACAACQAAAAAAAAAAA==

> <PUBCHEM_IUPAC_OPENEYE_NAME>
12-[3-[[4-methyl-5-(2-methyl-5-quinolyl)-1,2,4-triazol-3-yl]sulfanyl]propyl]-4-(trifluoromethyl)-2,8,12-triazatricyclo[7.5.0.02,7]tetradeca-1(9),3,5,7-tetraene

> <PUBCHEM_IUPAC_CAS_NAME>
12-[3-[[4-methyl-5-(2-methyl-5-quinolinyl)-1,2,4-triazol-3-yl]thio]propyl]-4-(trifluoromethyl)-2,8,12-triazatricyclo[7.5.0.02,7]tetradeca-1(9),3,5,7-tetraene

> <PUBCHEM_IUPAC_NAME_MARKUP>
12-[3-[[4-methyl-5-(2-methylquinolin-5-yl)-1,2,4-triazol-3-yl]sulfanyl]propyl]-4-(trifluoromethyl)-2,8,12-triazatricyclo[7.5.0.0<SUP>2,7</SUP>]tetradeca-1(9),3,5,7-tetraene

> <PUBCHEM_IUPAC_NAME>
12-[3-[[4-methyl-5-(2-methylquinolin-5-yl)-1,2,4-triazol-3-yl]sulfanyl]propyl]-4-(trifluoromethyl)-2,8,12-triazatricyclo[7.5.0.02,7]tetradeca-1(9),3,5,7-tetraene

> <PUBCHEM_IUPAC_SYSTEMATIC_NAME>
12-[3-[[4-methyl-5-(2-methylquinolin-5-yl)-1,2,4-triazol-3-yl]sulfanyl]propyl]-4-(trifluoromethyl)-2,8,12-triazatricyclo[7.5.0.02,7]tetradeca-1(9),3,5,7-tetraene

> <PUBCHEM_IUPAC_TRADITIONAL_NAME>
12-[3-[[4-methyl-5-(2-methyl-5-quinolyl)-1,2,4-triazol-3-yl]thio]propyl]-4-(trifluoromethyl)-2,8,12-triazatricyclo[7.5.0.02,7]tetradeca-1(9),3,5,7-tetraene

> <PUBCHEM_IUPAC_INCHI>
InChI=1S/C28H28F3N7S/c1-18-7-9-20-21(5-3-6-22(20)32-18)26-34-35-27(36(26)2)39-16-4-13-37-14-11-23-24(12-15-37)38-17-19(28(29,30)31)8-10-25(38)33-23/h3,5-10,17H,4,11-16H2,1-2H3

> <PUBCHEM_IUPAC_INCHIKEY>
KCLMHEWINSXASY-UHFFFAOYSA-N

> <PUBCHEM_XLOGP3_AA>
5.8

> <PUBCHEM_EXACT_MASS>
551.20789958

> <PUBCHEM_MOLECULAR_FORMULA>
C28H28F3N7S

> <PUBCHEM_MOLECULAR_WEIGHT>
551.6

> <PUBCHEM_OPENEYE_CAN_SMILES>
CC1=NC2=CC=CC(=C2C=C1)C3=NN=C(N3C)SCCCN4CCC5=C(CC4)N6C=C(C=CC6=N5)C(F)(F)F

> <PUBCHEM_OPENEYE_ISO_SMILES>
CC1=NC2=CC=CC(=C2C=C1)C3=NN=C(N3C)SCCCN4CCC5=C(CC4)N6C=C(C=CC6=N5)C(F)(F)F

> <PUBCHEM_CACTVS_TPSA>
89.4

> <PUBCHEM_MONOISOTOPIC_WEIGHT>
551.20789958

> <PUBCHEM_TOTAL_CHARGE>
0

> <PUBCHEM_HEAVY_ATOM_COUNT>
39

> <PUBCHEM_ATOM_DEF_STEREO_COUNT>
0

> <PUBCHEM_ATOM_UDEF_STEREO_COUNT>
0

> <PUBCHEM_BOND_DEF_STEREO_COUNT>
0

> <PUBCHEM_BOND_UDEF_STEREO_COUNT>
0

> <PUBCHEM_ISOTOPIC_ATOM_COUNT>
0

> <PUBCHEM_COMPONENT_COUNT>
1

> <PUBCHEM_CACTVS_TAUTO_COUNT>
-1

> <PUBCHEM_COORDINATE_TYPE>
1
5
255

> <PUBCHEM_BONDANNOTATIONS>
10  28  8
11  32  8
11  38  8
15  17  8
19  23  8
21  24  8
23  25  8
24  25  8
29  30  8
29  33  8
30  32  8
30  34  8
32  35  8
33  36  8
34  37  8
35  36  8
37  38  8
6  15  8
6  19  8
6  21  8
7  17  8
7  19  8
8  27  8
8  28  8
9  10  8
9  27  8

$$$$
