11520239
  -OEChem-09292322252D

 81 84  0     1  0  0  0  0  0999 V2000
    2.0000    3.2500    0.0000 F   0  0  0  0  0  0  0  0  0  0  0  0
    2.0000    1.2500    0.0000 F   0  0  0  0  0  0  0  0  0  0  0  0
    5.4641    1.2500    0.0000 O   0  0  0  0  0  0  0  0  0  0  0  0
    8.0622    2.7500    0.0000 O   0  0  0  0  0  0  0  0  0  0  0  0
    7.1962    6.2500    0.0000 O   0  0  0  0  0  0  0  0  0  0  0  0
    4.5981    5.7500    0.0000 O   0  0  0  0  0  0  0  0  0  0  0  0
    3.7320    4.2500    0.0000 O   0  0  0  0  0  0  0  0  0  0  0  0
   14.1244   -5.7500    0.0000 O   0  0  0  0  0  0  0  0  0  0  0  0
    8.9282   -1.7500    0.0000 N   0  0  0  0  0  0  0  0  0  0  0  0
    7.1962    1.2500    0.0000 N   0  0  0  0  0  0  0  0  0  0  0  0
    6.3301    2.7500    0.0000 N   0  0  0  0  0  0  0  0  0  0  0  0
   12.3923   -5.7500    0.0000 N   0  0  0  0  0  0  0  0  0  0  0  0
    7.1962    4.2500    0.0000 N   0  0  0  0  0  0  0  0  0  0  0  0
   10.6603   -2.7500    0.0000 C   0  0  0  0  0  0  0  0  0  0  0  0
    9.7942   -3.2500    0.0000 C   0  0  0  0  0  0  0  0  0  0  0  0
   10.6603   -1.7500    0.0000 C   0  0  0  0  0  0  0  0  0  0  0  0
    8.9282   -2.7500    0.0000 C   0  0  0  0  0  0  0  0  0  0  0  0
    9.7942   -1.2500    0.0000 C   0  0  0  0  0  0  0  0  0  0  0  0
    8.0622   -1.2500    0.0000 C   0  0  0  0  0  0  0  0  0  0  0  0
   11.5263   -3.2500    0.0000 C   0  0  0  0  0  0  0  0  0  0  0  0
    8.0622   -0.2500    0.0000 C   0  0  0  0  0  0  0  0  0  0  0  0
   11.5263   -4.2500    0.0000 C   0  0  0  0  0  0  0  0  0  0  0  0
   12.3923   -2.7500    0.0000 C   0  0  0  0  0  0  0  0  0  0  0  0
    7.1962    0.2500    0.0000 C   0  0  0  0  0  0  0  0  0  0  0  0
   12.3923   -4.7500    0.0000 C   0  0  0  0  0  0  0  0  0  0  0  0
   13.2583   -3.2500    0.0000 C   0  0  0  0  0  0  0  0  0  0  0  0
   13.2583   -4.2500    0.0000 C   0  0  0  0  0  0  0  0  0  0  0  0
    5.4641    3.2500    0.0000 C   0  0  2  0  0  0  0  0  0  0  0  0
    6.3301    1.7500    0.0000 C   0  0  0  0  0  0  0  0  0  0  0  0
    5.4641    4.2500    0.0000 C   0  0  0  0  0  0  0  0  0  0  0  0
    4.5981    2.7500    0.0000 C   0  0  0  0  0  0  0  0  0  0  0  0
    6.3301    4.7500    0.0000 C   0  0  0  0  0  0  0  0  0  0  0  0
    7.1962    3.2500    0.0000 C   0  0  0  0  0  0  0  0  0  0  0  0
    6.3301    5.7500    0.0000 C   0  0  0  0  0  0  0  0  0  0  0  0
    4.5981    4.7500    0.0000 C   0  0  0  0  0  0  0  0  0  0  0  0
   13.2583   -6.2500    0.0000 C   0  0  0  0  0  0  0  0  0  0  0  0
    3.7320    3.2500    0.0000 C   0  0  0  0  0  0  0  0  0  0  0  0
    4.5981    1.7500    0.0000 C   0  0  0  0  0  0  0  0  0  0  0  0
    2.8660    2.7500    0.0000 C   0  0  0  0  0  0  0  0  0  0  0  0
    3.7320    1.2500    0.0000 C   0  0  0  0  0  0  0  0  0  0  0  0
   13.2583   -7.2500    0.0000 C   0  0  0  0  0  0  0  0  0  0  0  0
    2.8660    1.7500    0.0000 C   0  0  0  0  0  0  0  0  0  0  0  0
    7.1962    7.2500    0.0000 C   0  0  0  0  0  0  0  0  0  0  0  0
    3.7320    6.2500    0.0000 C   0  0  0  0  0  0  0  0  0  0  0  0
   11.1972   -2.4400    0.0000 H   0  0  0  0  0  0  0  0  0  0  0  0
    9.3957   -3.7250    0.0000 H   0  0  0  0  0  0  0  0  0  0  0  0
   10.1928   -3.7250    0.0000 H   0  0  0  0  0  0  0  0  0  0  0  0
   11.2708   -1.8577    0.0000 H   0  0  0  0  0  0  0  0  0  0  0  0
   10.8723   -1.1674    0.0000 H   0  0  0  0  0  0  0  0  0  0  0  0
    8.3176   -2.6423    0.0000 H   0  0  0  0  0  0  0  0  0  0  0  0
    8.7162   -3.3326    0.0000 H   0  0  0  0  0  0  0  0  0  0  0  0
   10.1928   -0.7751    0.0000 H   0  0  0  0  0  0  0  0  0  0  0  0
    9.3957   -0.7751    0.0000 H   0  0  0  0  0  0  0  0  0  0  0  0
    7.4516   -1.1423    0.0000 H   0  0  0  0  0  0  0  0  0  0  0  0
    7.8501   -1.8326    0.0000 H   0  0  0  0  0  0  0  0  0  0  0  0
    8.6728   -0.3577    0.0000 H   0  0  0  0  0  0  0  0  0  0  0  0
    8.2742    0.3326    0.0000 H   0  0  0  0  0  0  0  0  0  0  0  0
   10.9893   -4.5600    0.0000 H   0  0  0  0  0  0  0  0  0  0  0  0
   12.3923   -2.1300    0.0000 H   0  0  0  0  0  0  0  0  0  0  0  0
    6.5856    0.3577    0.0000 H   0  0  0  0  0  0  0  0  0  0  0  0
    6.9841   -0.3326    0.0000 H   0  0  0  0  0  0  0  0  0  0  0  0
   13.7953   -2.9400    0.0000 H   0  0  0  0  0  0  0  0  0  0  0  0
    7.7331    1.5600    0.0000 H   0  0  0  0  0  0  0  0  0  0  0  0
   13.7953   -4.5600    0.0000 H   0  0  0  0  0  0  0  0  0  0  0  0
    5.4641    2.6300    0.0000 H   0  0  0  0  0  0  0  0  0  0  0  0
   11.8554   -6.0600    0.0000 H   0  0  0  0  0  0  0  0  0  0  0  0
    7.7331    4.5600    0.0000 H   0  0  0  0  0  0  0  0  0  0  0  0
    6.1181    6.3326    0.0000 H   0  0  0  0  0  0  0  0  0  0  0  0
    5.7196    5.6423    0.0000 H   0  0  0  0  0  0  0  0  0  0  0  0
    3.7320    3.8700    0.0000 H   0  0  0  0  0  0  0  0  0  0  0  0
    5.1350    1.4400    0.0000 H   0  0  0  0  0  0  0  0  0  0  0  0
    3.7320    0.6300    0.0000 H   0  0  0  0  0  0  0  0  0  0  0  0
   12.6383   -7.2500    0.0000 H   0  0  0  0  0  0  0  0  0  0  0  0
   13.2583   -7.8700    0.0000 H   0  0  0  0  0  0  0  0  0  0  0  0
   13.8783   -7.2500    0.0000 H   0  0  0  0  0  0  0  0  0  0  0  0
    7.8162    7.2500    0.0000 H   0  0  0  0  0  0  0  0  0  0  0  0
    7.1962    7.8700    0.0000 H   0  0  0  0  0  0  0  0  0  0  0  0
    6.5762    7.2500    0.0000 H   0  0  0  0  0  0  0  0  0  0  0  0
    4.0420    6.7869    0.0000 H   0  0  0  0  0  0  0  0  0  0  0  0
    3.1951    6.5600    0.0000 H   0  0  0  0  0  0  0  0  0  0  0  0
    3.4220    5.7131    0.0000 H   0  0  0  0  0  0  0  0  0  0  0  0
  1 39  1  0  0  0  0
  2 42  1  0  0  0  0
  3 29  2  0  0  0  0
  4 33  2  0  0  0  0
  5 34  1  0  0  0  0
  5 43  1  0  0  0  0
  6 35  1  0  0  0  0
  6 44  1  0  0  0  0
  7 35  2  0  0  0  0
  8 36  2  0  0  0  0
  9 17  1  0  0  0  0
  9 18  1  0  0  0  0
  9 19  1  0  0  0  0
 10 24  1  0  0  0  0
 10 29  1  0  0  0  0
 10 63  1  0  0  0  0
 11 28  1  0  0  0  0
 11 29  1  0  0  0  0
 11 33  1  0  0  0  0
 12 25  1  0  0  0  0
 12 36  1  0  0  0  0
 12 66  1  0  0  0  0
 13 32  1  0  0  0  0
 13 33  1  0  0  0  0
 13 67  1  0  0  0  0
 14 15  1  0  0  0  0
 14 16  1  0  0  0  0
 14 20  1  0  0  0  0
 14 45  1  0  0  0  0
 15 17  1  0  0  0  0
 15 46  1  0  0  0  0
 15 47  1  0  0  0  0
 16 18  1  0  0  0  0
 16 48  1  0  0  0  0
 16 49  1  0  0  0  0
 17 50  1  0  0  0  0
 17 51  1  0  0  0  0
 18 52  1  0  0  0  0
 18 53  1  0  0  0  0
 19 21  1  0  0  0  0
 19 54  1  0  0  0  0
 19 55  1  0  0  0  0
 20 22  2  0  0  0  0
 20 23  1  0  0  0  0
 21 24  1  0  0  0  0
 21 56  1  0  0  0  0
 21 57  1  0  0  0  0
 22 25  1  0  0  0  0
 22 58  1  0  0  0  0
 23 26  2  0  0  0  0
 23 59  1  0  0  0  0
 24 60  1  0  0  0  0
 24 61  1  0  0  0  0
 25 27  2  0  0  0  0
 26 27  1  0  0  0  0
 26 62  1  0  0  0  0
 27 64  1  0  0  0  0
 28 30  1  0  0  0  0
 28 31  1  1  0  0  0
 28 65  1  0  0  0  0
 30 32  2  0  0  0  0
 30 35  1  0  0  0  0
 31 37  2  0  0  0  0
 31 38  1  0  0  0  0
 32 34  1  0  0  0  0
 34 68  1  0  0  0  0
 34 69  1  0  0  0  0
 36 41  1  0  0  0  0
 37 39  1  0  0  0  0
 37 70  1  0  0  0  0
 38 40  2  0  0  0  0
 38 71  1  0  0  0  0
 39 42  2  0  0  0  0
 40 42  1  0  0  0  0
 40 72  1  0  0  0  0
 41 73  1  0  0  0  0
 41 74  1  0  0  0  0
 41 75  1  0  0  0  0
 43 76  1  0  0  0  0
 43 77  1  0  0  0  0
 43 78  1  0  0  0  0
 44 79  1  0  0  0  0
 44 80  1  0  0  0  0
 44 81  1  0  0  0  0
M  END
> <PUBCHEM_COMPOUND_CID>
11520239

> <PUBCHEM_COMPOUND_CANONICALIZED>
1

> <PUBCHEM_CACTVS_COMPLEXITY>
1070

> <PUBCHEM_CACTVS_HBOND_ACCEPTOR>
9

> <PUBCHEM_CACTVS_HBOND_DONOR>
3

> <PUBCHEM_CACTVS_ROTATABLE_BOND>
11

> <PUBCHEM_CACTVS_SUBSKEYS>
AAADcfB7uYAAAAAAAAAAAAAAAAAAAAAAAAA8YIEAAAAAAAABQAAAHwAQAAAADSjhmA4zyIPABACIAiXSWACCAAAhAgAIiIEIZMiKJDrA8ZGFMAhulyLY6UeYyOCOgAAAQAAAAAAAAACAAAAAAAAAAAAAAA==

> <PUBCHEM_IUPAC_OPENEYE_NAME>
methyl (4S)-3-[3-[4-(3-acetamidophenyl)-1-piperidyl]propylcarbamoyl]-4-(3,4-difluorophenyl)-6-(methoxymethyl)-2-oxo-1,4-dihydropyrimidine-5-carboxylate

> <PUBCHEM_IUPAC_CAS_NAME>
(4S)-3-[[3-[4-(3-acetamidophenyl)-1-piperidinyl]propylamino]-oxomethyl]-4-(3,4-difluorophenyl)-6-(methoxymethyl)-2-oxo-1,4-dihydropyrimidine-5-carboxylic acid methyl ester

> <PUBCHEM_IUPAC_NAME_MARKUP>
methyl (4<I>S</I>)-3-[3-[4-(3-acetamidophenyl)piperidin-1-yl]propylcarbamoyl]-4-(3,4-difluorophenyl)-6-(methoxymethyl)-2-oxo-1,4-dihydropyrimidine-5-carboxylate

> <PUBCHEM_IUPAC_NAME>
methyl (4S)-3-[3-[4-(3-acetamidophenyl)piperidin-1-yl]propylcarbamoyl]-4-(3,4-difluorophenyl)-6-(methoxymethyl)-2-oxo-1,4-dihydropyrimidine-5-carboxylate

> <PUBCHEM_IUPAC_SYSTEMATIC_NAME>
methyl (4S)-3-[3-[4-(3-acetamidophenyl)piperidin-1-yl]propylcarbamoyl]-4-[3,4-bis(fluoranyl)phenyl]-6-(methoxymethyl)-2-oxidanylidene-1,4-dihydropyrimidine-5-carboxylate

> <PUBCHEM_IUPAC_TRADITIONAL_NAME>
(4S)-3-[3-[4-(3-acetamidophenyl)piperidino]propylcarbamoyl]-4-(3,4-difluorophenyl)-2-keto-6-(methoxymethyl)-1,4-dihydropyrimidine-5-carboxylic acid methyl ester

> <PUBCHEM_IUPAC_INCHI>
InChI=1S/C31H37F2N5O6/c1-19(39)35-23-7-4-6-21(16-23)20-10-14-37(15-11-20)13-5-12-34-30(41)38-28(22-8-9-24(32)25(33)17-22)27(29(40)44-3)26(18-43-2)36-31(38)42/h4,6-9,16-17,20,28H,5,10-15,18H2,1-3H3,(H,34,41)(H,35,39)(H,36,42)/t28-/m0/s1

> <PUBCHEM_IUPAC_INCHIKEY>
FWMHZWMPUWAUPL-NDEPHWFRSA-N

> <PUBCHEM_XLOGP3_AA>
2.7

> <PUBCHEM_EXACT_MASS>
613.27119024

> <PUBCHEM_MOLECULAR_FORMULA>
C31H37F2N5O6

> <PUBCHEM_MOLECULAR_WEIGHT>
613.7

> <PUBCHEM_OPENEYE_CAN_SMILES>
CC(=O)NC1=CC=CC(=C1)C2CCN(CC2)CCCNC(=O)N3C(C(=C(NC3=O)COC)C(=O)OC)C4=CC(=C(C=C4)F)F

> <PUBCHEM_OPENEYE_ISO_SMILES>
CC(=O)NC1=CC=CC(=C1)C2CCN(CC2)CCCNC(=O)N3[C@H](C(=C(NC3=O)COC)C(=O)OC)C4=CC(=C(C=C4)F)F

> <PUBCHEM_CACTVS_TPSA>
129

> <PUBCHEM_MONOISOTOPIC_WEIGHT>
613.27119024

> <PUBCHEM_TOTAL_CHARGE>
0

> <PUBCHEM_HEAVY_ATOM_COUNT>
44

> <PUBCHEM_ATOM_DEF_STEREO_COUNT>
1

> <PUBCHEM_ATOM_UDEF_STEREO_COUNT>
0

> <PUBCHEM_BOND_DEF_STEREO_COUNT>
0

> <PUBCHEM_BOND_UDEF_STEREO_COUNT>
0

> <PUBCHEM_ISOTOPIC_ATOM_COUNT>
0

> <PUBCHEM_COMPONENT_COUNT>
1

> <PUBCHEM_CACTVS_TAUTO_COUNT>
-1

> <PUBCHEM_COORDINATE_TYPE>
1
5
255

> <PUBCHEM_BONDANNOTATIONS>
20  22  8
20  23  8
22  25  8
23  26  8
25  27  8
26  27  8
28  31  5
31  37  8
31  38  8
37  39  8
38  40  8
39  42  8
40  42  8

$$$$
