9886609
  -OEChem-09292321582D

 61 65  0     0  0  0  0  0  0999 V2000
    7.2101    1.2025    0.0000 N   0  0  0  0  0  0  0  0  0  0  0  0
    7.8314    3.1035    0.0000 N   0  0  0  0  0  0  0  0  0  0  0  0
    4.6783   -5.3658    0.0000 N   0  0  0  0  0  0  0  0  0  0  0  0
    7.4742    4.7984    0.0000 N   0  0  0  0  0  0  0  0  0  0  0  0
    5.6103   -0.9048    0.0000 C   0  0  0  0  0  0  0  0  0  0  0  0
    4.9889   -2.8058    0.0000 C   0  0  0  0  0  0  0  0  0  0  0  0
    4.6318   -1.1110    0.0000 C   0  0  0  0  0  0  0  0  0  0  0  0
    6.2781   -1.6491    0.0000 C   0  0  0  0  0  0  0  0  0  0  0  0
    4.3211   -2.0615    0.0000 C   0  0  0  0  0  0  0  0  0  0  0  0
    5.9674   -2.5996    0.0000 C   0  0  0  0  0  0  0  0  0  0  0  0
    5.9209    0.0458    0.0000 C   0  0  0  0  0  0  0  0  0  0  0  0
    6.8994    0.2520    0.0000 C   0  0  0  0  0  0  0  0  0  0  0  0
    4.6783   -3.7563    0.0000 C   0  0  0  0  0  0  0  0  0  0  0  0
    8.1886    1.4087    0.0000 C   0  0  0  0  0  0  0  0  0  0  0  0
    6.5422    1.9468    0.0000 C   0  0  0  0  0  0  0  0  0  0  0  0
    3.7320   -4.0610    0.0000 C   0  0  0  0  0  0  0  0  0  0  0  0
    8.4993    2.3592    0.0000 C   0  0  0  0  0  0  0  0  0  0  0  0
    6.8529    2.8973    0.0000 C   0  0  0  0  0  0  0  0  0  0  0  0
    5.2619   -4.5610    0.0000 C   0  0  0  0  0  0  0  0  0  0  0  0
    3.7320   -5.0610    0.0000 C   0  0  0  0  0  0  0  0  0  0  0  0
    2.8660   -3.5610    0.0000 C   0  0  0  0  0  0  0  0  0  0  0  0
    8.1421    4.0541    0.0000 C   0  0  0  0  0  0  0  0  0  0  0  0
    2.8660   -5.5610    0.0000 C   0  0  0  0  0  0  0  0  0  0  0  0
    2.0000   -4.0610    0.0000 C   0  0  0  0  0  0  0  0  0  0  0  0
    2.0000   -5.0610    0.0000 C   0  0  0  0  0  0  0  0  0  0  0  0
    9.1206    4.2603    0.0000 C   0  0  0  0  0  0  0  0  0  0  0  0
    9.4312    5.2108    0.0000 C   0  0  0  0  0  0  0  0  0  0  0  0
    7.7849    5.7489    0.0000 C   0  0  0  0  0  0  0  0  0  0  0  0
    8.7634    5.9551    0.0000 C   0  0  0  0  0  0  0  0  0  0  0  0
    6.2169   -0.7769    0.0000 H   0  0  0  0  0  0  0  0  0  0  0  0
    5.4030   -3.2673    0.0000 H   0  0  0  0  0  0  0  0  0  0  0  0
    4.6112   -0.4913    0.0000 H   0  0  0  0  0  0  0  0  0  0  0  0
    4.0179   -1.0236    0.0000 H   0  0  0  0  0  0  0  0  0  0  0  0
    6.8250   -1.9411    0.0000 H   0  0  0  0  0  0  0  0  0  0  0  0
    6.6607   -1.1611    0.0000 H   0  0  0  0  0  0  0  0  0  0  0  0
    3.7742   -1.7695    0.0000 H   0  0  0  0  0  0  0  0  0  0  0  0
    3.9385   -2.5494    0.0000 H   0  0  0  0  0  0  0  0  0  0  0  0
    5.9880   -3.2192    0.0000 H   0  0  0  0  0  0  0  0  0  0  0  0
    6.5812   -2.6869    0.0000 H   0  0  0  0  0  0  0  0  0  0  0  0
    5.9004    0.6654    0.0000 H   0  0  0  0  0  0  0  0  0  0  0  0
    5.3071    0.1331    0.0000 H   0  0  0  0  0  0  0  0  0  0  0  0
    6.9200   -0.3677    0.0000 H   0  0  0  0  0  0  0  0  0  0  0  0
    7.5132    0.1646    0.0000 H   0  0  0  0  0  0  0  0  0  0  0  0
    8.2092    0.7891    0.0000 H   0  0  0  0  0  0  0  0  0  0  0  0
    8.8024    1.3214    0.0000 H   0  0  0  0  0  0  0  0  0  0  0  0
    5.9953    2.2388    0.0000 H   0  0  0  0  0  0  0  0  0  0  0  0
    6.1597    1.4589    0.0000 H   0  0  0  0  0  0  0  0  0  0  0  0
    9.0462    2.0672    0.0000 H   0  0  0  0  0  0  0  0  0  0  0  0
    8.8818    2.8472    0.0000 H   0  0  0  0  0  0  0  0  0  0  0  0
    6.8323    3.5170    0.0000 H   0  0  0  0  0  0  0  0  0  0  0  0
    6.2391    2.9847    0.0000 H   0  0  0  0  0  0  0  0  0  0  0  0
    5.8819   -4.5610    0.0000 H   0  0  0  0  0  0  0  0  0  0  0  0
    4.8709   -5.9551    0.0000 H   0  0  0  0  0  0  0  0  0  0  0  0
    2.8660   -2.9410    0.0000 H   0  0  0  0  0  0  0  0  0  0  0  0
    2.8660   -6.1810    0.0000 H   0  0  0  0  0  0  0  0  0  0  0  0
    1.4631   -3.7510    0.0000 H   0  0  0  0  0  0  0  0  0  0  0  0
    1.4631   -5.3710    0.0000 H   0  0  0  0  0  0  0  0  0  0  0  0
    9.5346    3.7988    0.0000 H   0  0  0  0  0  0  0  0  0  0  0  0
   10.0379    5.3387    0.0000 H   0  0  0  0  0  0  0  0  0  0  0  0
    7.3708    6.2104    0.0000 H   0  0  0  0  0  0  0  0  0  0  0  0
    8.9560    6.5444    0.0000 H   0  0  0  0  0  0  0  0  0  0  0  0
  1 12  1  0  0  0  0
  1 14  1  0  0  0  0
  1 15  1  0  0  0  0
  2 17  1  0  0  0  0
  2 18  1  0  0  0  0
  2 22  1  0  0  0  0
  3 19  1  0  0  0  0
  3 20  1  0  0  0  0
  3 53  1  0  0  0  0
  4 22  1  0  0  0  0
  4 28  2  0  0  0  0
  5  7  1  0  0  0  0
  5  8  1  0  0  0  0
  5 11  1  0  0  0  0
  5 30  1  0  0  0  0
  6  9  1  0  0  0  0
  6 10  1  0  0  0  0
  6 13  1  0  0  0  0
  6 31  1  0  0  0  0
  7  9  1  0  0  0  0
  7 32  1  0  0  0  0
  7 33  1  0  0  0  0
  8 10  1  0  0  0  0
  8 34  1  0  0  0  0
  8 35  1  0  0  0  0
  9 36  1  0  0  0  0
  9 37  1  0  0  0  0
 10 38  1  0  0  0  0
 10 39  1  0  0  0  0
 11 12  1  0  0  0  0
 11 40  1  0  0  0  0
 11 41  1  0  0  0  0
 12 42  1  0  0  0  0
 12 43  1  0  0  0  0
 13 16  1  0  0  0  0
 13 19  2  0  0  0  0
 14 17  1  0  0  0  0
 14 44  1  0  0  0  0
 14 45  1  0  0  0  0
 15 18  1  0  0  0  0
 15 46  1  0  0  0  0
 15 47  1  0  0  0  0
 16 20  1  0  0  0  0
 16 21  2  0  0  0  0
 17 48  1  0  0  0  0
 17 49  1  0  0  0  0
 18 50  1  0  0  0  0
 18 51  1  0  0  0  0
 19 52  1  0  0  0  0
 20 23  2  0  0  0  0
 21 24  1  0  0  0  0
 21 54  1  0  0  0  0
 22 26  2  0  0  0  0
 23 25  1  0  0  0  0
 23 55  1  0  0  0  0
 24 25  2  0  0  0  0
 24 56  1  0  0  0  0
 25 57  1  0  0  0  0
 26 27  1  0  0  0  0
 26 58  1  0  0  0  0
 27 29  2  0  0  0  0
 27 59  1  0  0  0  0
 28 29  1  0  0  0  0
 28 60  1  0  0  0  0
 29 61  1  0  0  0  0
M  END
> <PUBCHEM_COMPOUND_CID>
9886609

> <PUBCHEM_COMPOUND_CANONICALIZED>
1

> <PUBCHEM_CACTVS_COMPLEXITY>
495

> <PUBCHEM_CACTVS_HBOND_ACCEPTOR>
3

> <PUBCHEM_CACTVS_HBOND_DONOR>
1

> <PUBCHEM_CACTVS_ROTATABLE_BOND>
5

> <PUBCHEM_CACTVS_SUBSKEYS>
AAADcfB7gAAAAAAAAAAAAAAAAAAAAWAAAAA8eIEAAAAAAFgB/AAAHAAQAAAADQjBHgQ98PPJkACgAzZnZACCgCkxAiAJ2aA4ZJiIYOLAmZGUIAhokALIyCcQgMAOgAAAAAACAACAAAAAAAQAAAAAAAAAAA==

> <PUBCHEM_IUPAC_OPENEYE_NAME>
3-[4-[2-[4-(2-pyridyl)piperazin-1-yl]ethyl]cyclohexyl]-1H-indole

> <PUBCHEM_IUPAC_CAS_NAME>
3-[4-[2-[4-(2-pyridinyl)-1-piperazinyl]ethyl]cyclohexyl]-1H-indole

> <PUBCHEM_IUPAC_NAME_MARKUP>
3-[4-[2-(4-pyridin-2-ylpiperazin-1-yl)ethyl]cyclohexyl]-1<I>H</I>-indole

> <PUBCHEM_IUPAC_NAME>
3-[4-[2-(4-pyridin-2-ylpiperazin-1-yl)ethyl]cyclohexyl]-1H-indole

> <PUBCHEM_IUPAC_SYSTEMATIC_NAME>
3-[4-[2-(4-pyridin-2-ylpiperazin-1-yl)ethyl]cyclohexyl]-1H-indole

> <PUBCHEM_IUPAC_TRADITIONAL_NAME>
3-[4-[2-[4-(2-pyridyl)piperazino]ethyl]cyclohexyl]-1H-indole

> <PUBCHEM_IUPAC_INCHI>
InChI=1S/C25H32N4/c1-2-6-24-22(5-1)23(19-27-24)21-10-8-20(9-11-21)12-14-28-15-17-29(18-16-28)25-7-3-4-13-26-25/h1-7,13,19-21,27H,8-12,14-18H2

> <PUBCHEM_IUPAC_INCHIKEY>
WKRNNVUISXJKDT-UHFFFAOYSA-N

> <PUBCHEM_XLOGP3_AA>
5.5

> <PUBCHEM_EXACT_MASS>
388.26269704

> <PUBCHEM_MOLECULAR_FORMULA>
C25H32N4

> <PUBCHEM_MOLECULAR_WEIGHT>
388.5

> <PUBCHEM_OPENEYE_CAN_SMILES>
C1CC(CCC1CCN2CCN(CC2)C3=CC=CC=N3)C4=CNC5=CC=CC=C54

> <PUBCHEM_OPENEYE_ISO_SMILES>
C1CC(CCC1CCN2CCN(CC2)C3=CC=CC=N3)C4=CNC5=CC=CC=C54

> <PUBCHEM_CACTVS_TPSA>
35.2

> <PUBCHEM_MONOISOTOPIC_WEIGHT>
388.26269704

> <PUBCHEM_TOTAL_CHARGE>
0

> <PUBCHEM_HEAVY_ATOM_COUNT>
29

> <PUBCHEM_ATOM_DEF_STEREO_COUNT>
0

> <PUBCHEM_ATOM_UDEF_STEREO_COUNT>
0

> <PUBCHEM_BOND_DEF_STEREO_COUNT>
0

> <PUBCHEM_BOND_UDEF_STEREO_COUNT>
0

> <PUBCHEM_ISOTOPIC_ATOM_COUNT>
0

> <PUBCHEM_COMPONENT_COUNT>
1

> <PUBCHEM_CACTVS_TAUTO_COUNT>
-1

> <PUBCHEM_COORDINATE_TYPE>
1
5
255

> <PUBCHEM_BONDANNOTATIONS>
13  16  8
13  19  8
16  20  8
16  21  8
20  23  8
21  24  8
22  26  8
23  25  8
24  25  8
26  27  8
27  29  8
28  29  8
3  19  8
3  20  8
4  22  8
4  28  8

$$$$
