135846033
  -OEChem-09292322252D

 66 71  0     1  0  0  0  0  0999 V2000
    8.2807   -0.2766    0.0000 S   0  0  0  0  0  0  0  0  0  0  0  0
   17.0505    2.0764    0.0000 O   0  0  0  0  0  0  0  0  0  0  0  0
   11.2807    1.4554    0.0000 N   0  0  3  0  0  0  0  0  0  0  0  0
    6.6929   -1.0856    0.0000 N   0  0  0  0  0  0  0  0  0  0  0  0
   16.2361    3.4745    0.0000 N   0  0  0  0  0  0  0  0  0  0  0  0
    4.9337   -2.3585    0.0000 N   0  0  0  0  0  0  0  0  0  0  0  0
    6.6929    0.5324    0.0000 N   0  0  0  0  0  0  0  0  0  0  0  0
    5.7418    0.2234    0.0000 N   0  0  0  0  0  0  0  0  0  0  0  0
   11.7146    2.3564    0.0000 C   0  0  0  0  0  0  0  0  0  0  0  0
   11.7146    0.5545    0.0000 C   0  0  0  0  0  0  0  0  0  0  0  0
   12.6895    2.5789    0.0000 C   0  0  0  0  0  0  0  0  0  0  0  0
   12.6895    0.3320    0.0000 C   0  0  0  0  0  0  0  0  0  0  0  0
   13.4713    1.9554    0.0000 C   0  0  0  0  0  0  0  0  0  0  0  0
   10.2807    1.4554    0.0000 C   0  0  0  0  0  0  0  0  0  0  0  0
   13.4713    0.9554    0.0000 C   0  0  0  0  0  0  0  0  0  0  0  0
    9.7807    0.5894    0.0000 C   0  0  0  0  0  0  0  0  0  0  0  0
   14.3653    2.4901    0.0000 C   0  0  0  0  0  0  0  0  0  0  0  0
   14.3653    0.4208    0.0000 C   0  0  0  0  0  0  0  0  0  0  0  0
   15.2713    1.9763    0.0000 C   0  0  0  0  0  0  0  0  0  0  0  0
    8.7807    0.5894    0.0000 C   0  0  0  0  0  0  0  0  0  0  0  0
   15.2713    0.9346    0.0000 C   0  0  0  0  0  0  0  0  0  0  0  0
   16.1354    2.4796    0.0000 C   0  0  0  0  0  0  0  0  0  0  0  0
    7.2807   -0.2766    0.0000 C   0  0  0  0  0  0  0  0  0  0  0  0
    5.7418   -0.7766    0.0000 C   0  0  0  0  0  0  0  0  0  0  0  0
    4.9328   -1.3644    0.0000 C   0  0  0  0  0  0  0  0  0  0  0  0
    3.9890   -2.6681    0.0000 C   0  0  0  0  0  0  0  0  0  0  0  0
    3.4013   -1.8591    0.0000 C   0  0  0  0  0  0  0  0  0  0  0  0
    3.9876   -1.0564    0.0000 C   0  0  0  0  0  0  0  0  0  0  0  0
   17.7168    2.8221    0.0000 C   0  0  0  0  0  0  0  0  0  0  0  0
    7.0019   -2.0367    0.0000 C   0  0  0  0  0  0  0  0  0  0  0  0
   17.2134    3.6862    0.0000 C   0  0  0  0  0  0  0  0  0  0  0  0
    3.5823   -3.5817    0.0000 C   0  0  0  0  0  0  0  0  0  0  0  0
    2.4067   -1.9636    0.0000 C   0  0  0  0  0  0  0  0  0  0  0  0
    2.5878   -3.6862    0.0000 C   0  0  0  0  0  0  0  0  0  0  0  0
    2.0000   -2.8772    0.0000 C   0  0  0  0  0  0  0  0  0  0  0  0
   18.7117    2.7214    0.0000 C   0  0  0  0  0  0  0  0  0  0  0  0
   11.7146    2.9764    0.0000 H   0  0  0  0  0  0  0  0  0  0  0  0
   11.1101    2.4944    0.0000 H   0  0  0  0  0  0  0  0  0  0  0  0
   11.1101    0.4165    0.0000 H   0  0  0  0  0  0  0  0  0  0  0  0
   11.7146   -0.0655    0.0000 H   0  0  0  0  0  0  0  0  0  0  0  0
   13.1742    2.9655    0.0000 H   0  0  0  0  0  0  0  0  0  0  0  0
   12.4205    3.1375    0.0000 H   0  0  0  0  0  0  0  0  0  0  0  0
   12.4205   -0.2266    0.0000 H   0  0  0  0  0  0  0  0  0  0  0  0
   13.1742   -0.0546    0.0000 H   0  0  0  0  0  0  0  0  0  0  0  0
   10.3883    2.0660    0.0000 H   0  0  0  0  0  0  0  0  0  0  0  0
    9.6981    1.6675    0.0000 H   0  0  0  0  0  0  0  0  0  0  0  0
    9.6730   -0.0212    0.0000 H   0  0  0  0  0  0  0  0  0  0  0  0
   10.3633    0.3774    0.0000 H   0  0  0  0  0  0  0  0  0  0  0  0
   14.3581    3.1101    0.0000 H   0  0  0  0  0  0  0  0  0  0  0  0
   14.3581   -0.1992    0.0000 H   0  0  0  0  0  0  0  0  0  0  0  0
    8.8883    1.2000    0.0000 H   0  0  0  0  0  0  0  0  0  0  0  0
    8.1981    0.8015    0.0000 H   0  0  0  0  0  0  0  0  0  0  0  0
   15.8071    0.6226    0.0000 H   0  0  0  0  0  0  0  0  0  0  0  0
    5.4359   -2.7220    0.0000 H   0  0  0  0  0  0  0  0  0  0  0  0
    3.7971   -0.4664    0.0000 H   0  0  0  0  0  0  0  0  0  0  0  0
    6.4122   -2.2283    0.0000 H   0  0  0  0  0  0  0  0  0  0  0  0
    7.1935   -2.6263    0.0000 H   0  0  0  0  0  0  0  0  0  0  0  0
    7.5916   -1.8451    0.0000 H   0  0  0  0  0  0  0  0  0  0  0  0
   17.4634    4.2536    0.0000 H   0  0  0  0  0  0  0  0  0  0  0  0
    3.9467   -4.0832    0.0000 H   0  0  0  0  0  0  0  0  0  0  0  0
    2.0423   -1.4620    0.0000 H   0  0  0  0  0  0  0  0  0  0  0  0
    2.3356   -4.2526    0.0000 H   0  0  0  0  0  0  0  0  0  0  0  0
    1.3834   -2.9420    0.0000 H   0  0  0  0  0  0  0  0  0  0  0  0
   18.6493    2.1046    0.0000 H   0  0  0  0  0  0  0  0  0  0  0  0
   19.3285    2.6590    0.0000 H   0  0  0  0  0  0  0  0  0  0  0  0
   18.7741    3.3382    0.0000 H   0  0  0  0  0  0  0  0  0  0  0  0
  1 20  1  0  0  0  0
  1 23  1  0  0  0  0
  2 22  1  0  0  0  0
  2 29  1  0  0  0  0
  3  9  1  0  0  0  0
  3 10  1  0  0  0  0
  3 14  1  0  0  0  0
  4 23  1  0  0  0  0
  4 24  1  0  0  0  0
  4 30  1  0  0  0  0
  5 22  2  0  0  0  0
  5 31  1  0  0  0  0
  6 25  1  0  0  0  0
  6 26  1  0  0  0  0
  6 54  1  0  0  0  0
  7  8  1  0  0  0  0
  7 23  2  0  0  0  0
  8 24  2  0  0  0  0
  9 11  1  0  0  0  0
  9 37  1  0  0  0  0
  9 38  1  0  0  0  0
 10 12  1  0  0  0  0
 10 39  1  0  0  0  0
 10 40  1  0  0  0  0
 11 13  1  0  0  0  0
 11 41  1  0  0  0  0
 11 42  1  0  0  0  0
 12 15  1  0  0  0  0
 12 43  1  0  0  0  0
 12 44  1  0  0  0  0
 13 15  2  0  0  0  0
 13 17  1  0  0  0  0
 14 16  1  0  0  0  0
 14 45  1  0  0  0  0
 14 46  1  0  0  0  0
 15 18  1  0  0  0  0
 16 20  1  0  0  0  0
 16 47  1  0  0  0  0
 16 48  1  0  0  0  0
 17 19  2  0  0  0  0
 17 49  1  0  0  0  0
 18 21  2  0  0  0  0
 18 50  1  0  0  0  0
 19 21  1  0  0  0  0
 19 22  1  0  0  0  0
 20 51  1  0  0  0  0
 20 52  1  0  0  0  0
 21 53  1  0  0  0  0
 24 25  1  0  0  0  0
 25 28  2  0  0  0  0
 26 27  1  0  0  0  0
 26 32  2  0  0  0  0
 27 28  1  0  0  0  0
 27 33  2  0  0  0  0
 28 55  1  0  0  0  0
 29 31  2  0  0  0  0
 29 36  1  0  0  0  0
 30 56  1  0  0  0  0
 30 57  1  0  0  0  0
 30 58  1  0  0  0  0
 31 59  1  0  0  0  0
 32 34  1  0  0  0  0
 32 60  1  0  0  0  0
 33 35  1  0  0  0  0
 33 61  1  0  0  0  0
 34 35  2  0  0  0  0
 34 62  1  0  0  0  0
 35 63  1  0  0  0  0
 36 64  1  0  0  0  0
 36 65  1  0  0  0  0
 36 66  1  0  0  0  0
M  END
> <PUBCHEM_COMPOUND_CID>
135846033

> <PUBCHEM_COMPOUND_CANONICALIZED>
1

> <PUBCHEM_CACTVS_COMPLEXITY>
716

> <PUBCHEM_CACTVS_HBOND_ACCEPTOR>
6

> <PUBCHEM_CACTVS_HBOND_DONOR>
1

> <PUBCHEM_CACTVS_ROTATABLE_BOND>
7

> <PUBCHEM_CACTVS_SUBSKEYS>
AAADceB7oABAAAAAAAAAAAAAAAAAAWLFgAAwYAAABYAAAFgB/gAAHgQYAAAADAzF3wS/1PfNlEiqA7d3dASS2Ct/QrAd2SG7bNiObvLgvbmfOQjk3gPY6YeYyPCOwAACAAASAACAAAQAACQAAAAAAAAAAA==

> <PUBCHEM_IUPAC_OPENEYE_NAME>
2-[3-[3-[[5-(1H-indol-2-yl)-4-methyl-1,2,4-triazol-3-yl]sulfanyl]propyl]-1,2,4,5-tetrahydro-3-benzazepin-7-yl]-5-methyl-oxazole

> <PUBCHEM_IUPAC_CAS_NAME>
2-[3-[3-[[5-(1H-indol-2-yl)-4-methyl-1,2,4-triazol-3-yl]thio]propyl]-1,2,4,5-tetrahydro-3-benzazepin-7-yl]-5-methyloxazole

> <PUBCHEM_IUPAC_NAME_MARKUP>
2-[3-[3-[[5-(1<I>H</I>-indol-2-yl)-4-methyl-1,2,4-triazol-3-yl]sulfanyl]propyl]-1,2,4,5-tetrahydro-3-benzazepin-7-yl]-5-methyl-1,3-oxazole

> <PUBCHEM_IUPAC_NAME>
2-[3-[3-[[5-(1H-indol-2-yl)-4-methyl-1,2,4-triazol-3-yl]sulfanyl]propyl]-1,2,4,5-tetrahydro-3-benzazepin-7-yl]-5-methyl-1,3-oxazole

> <PUBCHEM_IUPAC_SYSTEMATIC_NAME>
2-[3-[3-[[5-(1H-indol-2-yl)-4-methyl-1,2,4-triazol-3-yl]sulfanyl]propyl]-1,2,4,5-tetrahydro-3-benzazepin-7-yl]-5-methyl-1,3-oxazole

> <PUBCHEM_IUPAC_TRADITIONAL_NAME>
2-[3-[3-[[5-(1H-indol-2-yl)-4-methyl-1,2,4-triazol-3-yl]thio]propyl]-1,2,4,5-tetrahydro-3-benzazepin-7-yl]-5-methyl-oxazole

> <PUBCHEM_IUPAC_INCHI>
InChI=1S/C28H30N6OS/c1-19-18-29-27(35-19)23-9-8-20-10-13-34(14-11-21(20)16-23)12-5-15-36-28-32-31-26(33(28)2)25-17-22-6-3-4-7-24(22)30-25/h3-4,6-9,16-18,30H,5,10-15H2,1-2H3

> <PUBCHEM_IUPAC_INCHIKEY>
ANYPUOSSIOCSJC-UHFFFAOYSA-N

> <PUBCHEM_XLOGP3_AA>
5

> <PUBCHEM_EXACT_MASS>
498.22018078

> <PUBCHEM_MOLECULAR_FORMULA>
C28H30N6OS

> <PUBCHEM_MOLECULAR_WEIGHT>
498.6

> <PUBCHEM_OPENEYE_CAN_SMILES>
CC1=CN=C(O1)C2=CC3=C(CCN(CC3)CCCSC4=NN=C(N4C)C5=CC6=CC=CC=C6N5)C=C2

> <PUBCHEM_OPENEYE_ISO_SMILES>
CC1=CN=C(O1)C2=CC3=C(CCN(CC3)CCCSC4=NN=C(N4C)C5=CC6=CC=CC=C6N5)C=C2

> <PUBCHEM_CACTVS_TPSA>
101

> <PUBCHEM_MONOISOTOPIC_WEIGHT>
498.22018078

> <PUBCHEM_TOTAL_CHARGE>
0

> <PUBCHEM_HEAVY_ATOM_COUNT>
36

> <PUBCHEM_ATOM_DEF_STEREO_COUNT>
0

> <PUBCHEM_ATOM_UDEF_STEREO_COUNT>
0

> <PUBCHEM_BOND_DEF_STEREO_COUNT>
0

> <PUBCHEM_BOND_UDEF_STEREO_COUNT>
0

> <PUBCHEM_ISOTOPIC_ATOM_COUNT>
0

> <PUBCHEM_COMPONENT_COUNT>
1

> <PUBCHEM_CACTVS_TAUTO_COUNT>
-1

> <PUBCHEM_COORDINATE_TYPE>
1
5
255

> <PUBCHEM_BONDANNOTATIONS>
13  15  8
13  17  8
15  18  8
17  19  8
18  21  8
19  21  8
2  22  8
2  29  8
25  28  8
26  27  8
26  32  8
27  28  8
27  33  8
29  31  8
32  34  8
33  35  8
34  35  8
4  23  8
4  24  8
5  22  8
5  31  8
6  25  8
6  26  8
7  23  8
7  8  8
8  24  8

$$$$
