2822063
  -OEChem-09292322252D

 65 69  0     0  0  0  0  0  0999 V2000
    4.9889   -0.4678    0.0000 O   0  0  0  0  0  0  0  0  0  0  0  0
    4.9889    3.0427    0.0000 O   0  0  0  0  0  0  0  0  0  0  0  0
   11.2619   -0.4446    0.0000 N   0  0  0  0  0  0  0  0  0  0  0  0
    9.2619   -0.4446    0.0000 N   0  0  0  0  0  0  0  0  0  0  0  0
    5.2619    1.2874    0.0000 N   0  0  0  0  0  0  0  0  0  0  0  0
   10.7619   -1.3106    0.0000 C   0  0  0  0  0  0  0  0  0  0  0  0
   10.7619    0.4214    0.0000 C   0  0  0  0  0  0  0  0  0  0  0  0
    9.7619   -1.3106    0.0000 C   0  0  0  0  0  0  0  0  0  0  0  0
    9.7619    0.4214    0.0000 C   0  0  0  0  0  0  0  0  0  0  0  0
   12.2619   -0.4446    0.0000 C   0  0  0  0  0  0  0  0  0  0  0  0
    8.2619   -0.4446    0.0000 C   0  0  0  0  0  0  0  0  0  0  0  0
    7.7619    0.4214    0.0000 C   0  0  0  0  0  0  0  0  0  0  0  0
   12.7619   -1.3106    0.0000 C   0  0  0  0  0  0  0  0  0  0  0  0
   12.7619    0.4214    0.0000 C   0  0  0  0  0  0  0  0  0  0  0  0
    6.7619    0.4214    0.0000 C   0  0  0  0  0  0  0  0  0  0  0  0
    6.2619    1.2874    0.0000 C   0  0  0  0  0  0  0  0  0  0  0  0
   13.7619   -1.3106    0.0000 C   0  0  0  0  0  0  0  0  0  0  0  0
   12.2619    1.2874    0.0000 C   0  0  0  0  0  0  0  0  0  0  0  0
   12.2619   -2.1767    0.0000 C   0  0  0  0  0  0  0  0  0  0  0  0
   13.7619    0.4214    0.0000 C   0  0  0  0  0  0  0  0  0  0  0  0
    4.6783    0.4827    0.0000 C   0  0  0  0  0  0  0  0  0  0  0  0
    4.6783    2.0922    0.0000 C   0  0  0  0  0  0  0  0  0  0  0  0
   14.2619   -2.1767    0.0000 C   0  0  0  0  0  0  0  0  0  0  0  0
   12.7619    2.1535    0.0000 C   0  0  0  0  0  0  0  0  0  0  0  0
   12.7619   -3.0427    0.0000 C   0  0  0  0  0  0  0  0  0  0  0  0
   14.2619    1.2874    0.0000 C   0  0  0  0  0  0  0  0  0  0  0  0
    3.7320    0.7874    0.0000 C   0  0  0  0  0  0  0  0  0  0  0  0
    3.7320    1.7874    0.0000 C   0  0  0  0  0  0  0  0  0  0  0  0
   13.7619   -3.0427    0.0000 C   0  0  0  0  0  0  0  0  0  0  0  0
   13.7619    2.1535    0.0000 C   0  0  0  0  0  0  0  0  0  0  0  0
    2.8660    0.2874    0.0000 C   0  0  0  0  0  0  0  0  0  0  0  0
    2.8660    2.2874    0.0000 C   0  0  0  0  0  0  0  0  0  0  0  0
    2.0000    0.7874    0.0000 C   0  0  0  0  0  0  0  0  0  0  0  0
    2.0000    1.7874    0.0000 C   0  0  0  0  0  0  0  0  0  0  0  0
   10.6542   -1.9212    0.0000 H   0  0  0  0  0  0  0  0  0  0  0  0
   11.3445   -1.5227    0.0000 H   0  0  0  0  0  0  0  0  0  0  0  0
   11.3445    0.6335    0.0000 H   0  0  0  0  0  0  0  0  0  0  0  0
   10.6542    1.0320    0.0000 H   0  0  0  0  0  0  0  0  0  0  0  0
    9.1793   -1.5227    0.0000 H   0  0  0  0  0  0  0  0  0  0  0  0
    9.8695   -1.9212    0.0000 H   0  0  0  0  0  0  0  0  0  0  0  0
    9.8695    1.0320    0.0000 H   0  0  0  0  0  0  0  0  0  0  0  0
    9.1793    0.6335    0.0000 H   0  0  0  0  0  0  0  0  0  0  0  0
   11.9519   -0.9815    0.0000 H   0  0  0  0  0  0  0  0  0  0  0  0
    7.6793   -0.6567    0.0000 H   0  0  0  0  0  0  0  0  0  0  0  0
    8.3695   -1.0552    0.0000 H   0  0  0  0  0  0  0  0  0  0  0  0
    8.3445    0.6335    0.0000 H   0  0  0  0  0  0  0  0  0  0  0  0
    7.6542    1.0320    0.0000 H   0  0  0  0  0  0  0  0  0  0  0  0
    6.1793    0.2094    0.0000 H   0  0  0  0  0  0  0  0  0  0  0  0
    6.8695   -0.1892    0.0000 H   0  0  0  0  0  0  0  0  0  0  0  0
    6.8445    1.4995    0.0000 H   0  0  0  0  0  0  0  0  0  0  0  0
    6.1542    1.8980    0.0000 H   0  0  0  0  0  0  0  0  0  0  0  0
   14.0719   -0.7737    0.0000 H   0  0  0  0  0  0  0  0  0  0  0  0
   11.6419    1.2874    0.0000 H   0  0  0  0  0  0  0  0  0  0  0  0
   11.6419   -2.1767    0.0000 H   0  0  0  0  0  0  0  0  0  0  0  0
   14.0719   -0.1155    0.0000 H   0  0  0  0  0  0  0  0  0  0  0  0
   14.8819   -2.1767    0.0000 H   0  0  0  0  0  0  0  0  0  0  0  0
   12.4519    2.6904    0.0000 H   0  0  0  0  0  0  0  0  0  0  0  0
   12.4519   -3.5796    0.0000 H   0  0  0  0  0  0  0  0  0  0  0  0
   14.8819    1.2874    0.0000 H   0  0  0  0  0  0  0  0  0  0  0  0
   14.0719   -3.5796    0.0000 H   0  0  0  0  0  0  0  0  0  0  0  0
   14.0719    2.6904    0.0000 H   0  0  0  0  0  0  0  0  0  0  0  0
    2.8660   -0.3326    0.0000 H   0  0  0  0  0  0  0  0  0  0  0  0
    2.8660    2.9074    0.0000 H   0  0  0  0  0  0  0  0  0  0  0  0
    1.4631    0.4774    0.0000 H   0  0  0  0  0  0  0  0  0  0  0  0
    1.4631    2.0974    0.0000 H   0  0  0  0  0  0  0  0  0  0  0  0
  1 21  2  0  0  0  0
  2 22  2  0  0  0  0
  3  6  1  0  0  0  0
  3  7  1  0  0  0  0
  3 10  1  0  0  0  0
  4  8  1  0  0  0  0
  4  9  1  0  0  0  0
  4 11  1  0  0  0  0
  5 16  1  0  0  0  0
  5 21  1  0  0  0  0
  5 22  1  0  0  0  0
  6  8  1  0  0  0  0
  6 35  1  0  0  0  0
  6 36  1  0  0  0  0
  7  9  1  0  0  0  0
  7 37  1  0  0  0  0
  7 38  1  0  0  0  0
  8 39  1  0  0  0  0
  8 40  1  0  0  0  0
  9 41  1  0  0  0  0
  9 42  1  0  0  0  0
 10 13  1  0  0  0  0
 10 14  1  0  0  0  0
 10 43  1  0  0  0  0
 11 12  1  0  0  0  0
 11 44  1  0  0  0  0
 11 45  1  0  0  0  0
 12 15  1  0  0  0  0
 12 46  1  0  0  0  0
 12 47  1  0  0  0  0
 13 17  2  0  0  0  0
 13 19  1  0  0  0  0
 14 18  2  0  0  0  0
 14 20  1  0  0  0  0
 15 16  1  0  0  0  0
 15 48  1  0  0  0  0
 15 49  1  0  0  0  0
 16 50  1  0  0  0  0
 16 51  1  0  0  0  0
 17 23  1  0  0  0  0
 17 52  1  0  0  0  0
 18 24  1  0  0  0  0
 18 53  1  0  0  0  0
 19 25  2  0  0  0  0
 19 54  1  0  0  0  0
 20 26  2  0  0  0  0
 20 55  1  0  0  0  0
 21 27  1  0  0  0  0
 22 28  1  0  0  0  0
 23 29  2  0  0  0  0
 23 56  1  0  0  0  0
 24 30  2  0  0  0  0
 24 57  1  0  0  0  0
 25 29  1  0  0  0  0
 25 58  1  0  0  0  0
 26 30  1  0  0  0  0
 26 59  1  0  0  0  0
 27 28  1  0  0  0  0
 27 31  2  0  0  0  0
 28 32  2  0  0  0  0
 29 60  1  0  0  0  0
 30 61  1  0  0  0  0
 31 33  1  0  0  0  0
 31 62  1  0  0  0  0
 32 34  1  0  0  0  0
 32 63  1  0  0  0  0
 33 34  2  0  0  0  0
 33 64  1  0  0  0  0
 34 65  1  0  0  0  0
M  END
> <PUBCHEM_COMPOUND_CID>
2822063

> <PUBCHEM_COMPOUND_CANONICALIZED>
1

> <PUBCHEM_CACTVS_COMPLEXITY>
635

> <PUBCHEM_CACTVS_HBOND_ACCEPTOR>
4

> <PUBCHEM_CACTVS_HBOND_DONOR>
0

> <PUBCHEM_CACTVS_ROTATABLE_BOND>
8

> <PUBCHEM_CACTVS_SUBSKEYS>
AAADceB7MAAAAAAAAAAAAAAAAAAAAWAAAAA8YMEAAAAAAFgBUAAAHgAAAAAADCjBmAQwAIMAAACIAiFSEACCAAAkAAAIiAEIBMgIYDKAlRGUIQhghiCIiYcdiMCOgAAAAAAQAAAAAAAAACAAAAAAAAAAAA==

> <PUBCHEM_IUPAC_OPENEYE_NAME>
2-[4-(4-benzhydrylpiperazin-1-yl)butyl]isoindoline-1,3-dione

> <PUBCHEM_IUPAC_CAS_NAME>
2-[4-[4-(diphenylmethyl)-1-piperazinyl]butyl]isoindole-1,3-dione

> <PUBCHEM_IUPAC_NAME_MARKUP>
2-[4-(4-benzhydrylpiperazin-1-yl)butyl]isoindole-1,3-dione

> <PUBCHEM_IUPAC_NAME>
2-[4-(4-benzhydrylpiperazin-1-yl)butyl]isoindole-1,3-dione

> <PUBCHEM_IUPAC_SYSTEMATIC_NAME>
2-[4-[4-(diphenylmethyl)piperazin-1-yl]butyl]isoindole-1,3-dione

> <PUBCHEM_IUPAC_TRADITIONAL_NAME>
2-[4-(4-benzhydrylpiperazino)butyl]isoindoline-1,3-quinone

> <PUBCHEM_IUPAC_INCHI>
InChI=1S/C29H31N3O2/c33-28-25-15-7-8-16-26(25)29(34)32(28)18-10-9-17-30-19-21-31(22-20-30)27(23-11-3-1-4-12-23)24-13-5-2-6-14-24/h1-8,11-16,27H,9-10,17-22H2

> <PUBCHEM_IUPAC_INCHIKEY>
OBIIIJJDTMSOQS-UHFFFAOYSA-N

> <PUBCHEM_XLOGP3>
5.2

> <PUBCHEM_EXACT_MASS>
453.24162724

> <PUBCHEM_MOLECULAR_FORMULA>
C29H31N3O2

> <PUBCHEM_MOLECULAR_WEIGHT>
453.6

> <PUBCHEM_OPENEYE_CAN_SMILES>
C1CN(CCN1CCCCN2C(=O)C3=CC=CC=C3C2=O)C(C4=CC=CC=C4)C5=CC=CC=C5

> <PUBCHEM_OPENEYE_ISO_SMILES>
C1CN(CCN1CCCCN2C(=O)C3=CC=CC=C3C2=O)C(C4=CC=CC=C4)C5=CC=CC=C5

> <PUBCHEM_CACTVS_TPSA>
43.9

> <PUBCHEM_MONOISOTOPIC_WEIGHT>
453.24162724

> <PUBCHEM_TOTAL_CHARGE>
0

> <PUBCHEM_HEAVY_ATOM_COUNT>
34

> <PUBCHEM_ATOM_DEF_STEREO_COUNT>
0

> <PUBCHEM_ATOM_UDEF_STEREO_COUNT>
0

> <PUBCHEM_BOND_DEF_STEREO_COUNT>
0

> <PUBCHEM_BOND_UDEF_STEREO_COUNT>
0

> <PUBCHEM_ISOTOPIC_ATOM_COUNT>
0

> <PUBCHEM_COMPONENT_COUNT>
1

> <PUBCHEM_CACTVS_TAUTO_COUNT>
-1

> <PUBCHEM_COORDINATE_TYPE>
1
5
255

> <PUBCHEM_BONDANNOTATIONS>
13  17  8
13  19  8
14  18  8
14  20  8
17  23  8
18  24  8
19  25  8
20  26  8
23  29  8
24  30  8
25  29  8
26  30  8
27  28  8
27  31  8
28  32  8
31  33  8
32  34  8
33  34  8

$$$$
