137653096
  -OEChem-09292322392D

 42 44  0     0  0  0  0  0  0999 V2000
    4.6260    1.0603    0.0000 O   0  0  0  0  0  0  0  0  0  0  0  0
    4.6260    3.1297    0.0000 O   0  0  0  0  0  0  0  0  0  0  0  0
    2.8660    4.0950    0.0000 O   0  0  0  0  0  0  0  0  0  0  0  0
    2.8660   -1.9050    0.0000 N   0  0  0  0  0  0  0  0  0  0  0  0
    2.8660    0.0950    0.0000 N   0  0  0  0  0  0  0  0  0  0  0  0
    3.7320   -1.4050    0.0000 C   0  0  0  0  0  0  0  0  0  0  0  0
    2.0000   -1.4050    0.0000 C   0  0  0  0  0  0  0  0  0  0  0  0
    3.7320   -0.4050    0.0000 C   0  0  0  0  0  0  0  0  0  0  0  0
    2.0000   -0.4050    0.0000 C   0  0  0  0  0  0  0  0  0  0  0  0
    2.8660   -2.9050    0.0000 C   0  0  0  0  0  0  0  0  0  0  0  0
    2.8660    1.0950    0.0000 C   0  0  0  0  0  0  0  0  0  0  0  0
    2.0000   -3.4050    0.0000 C   0  0  0  0  0  0  0  0  0  0  0  0
    3.7320    1.5950    0.0000 C   0  0  0  0  0  0  0  0  0  0  0  0
    2.0000    1.5950    0.0000 C   0  0  0  0  0  0  0  0  0  0  0  0
    3.7320    2.5950    0.0000 C   0  0  0  0  0  0  0  0  0  0  0  0
    2.0000   -4.4050    0.0000 C   0  0  0  0  0  0  0  0  0  0  0  0
    2.0000    2.5950    0.0000 C   0  0  0  0  0  0  0  0  0  0  0  0
    2.8660    3.0950    0.0000 C   0  0  0  0  0  0  0  0  0  0  0  0
    5.5321    1.5742    0.0000 C   0  0  0  0  0  0  0  0  0  0  0  0
    5.5321    2.6158    0.0000 C   0  0  0  0  0  0  0  0  0  0  0  0
    3.9441   -1.9876    0.0000 H   0  0  0  0  0  0  0  0  0  0  0  0
    4.3426   -1.2973    0.0000 H   0  0  0  0  0  0  0  0  0  0  0  0
    1.3894   -1.2973    0.0000 H   0  0  0  0  0  0  0  0  0  0  0  0
    1.7880   -1.9876    0.0000 H   0  0  0  0  0  0  0  0  0  0  0  0
    4.3426   -0.5127    0.0000 H   0  0  0  0  0  0  0  0  0  0  0  0
    3.9441    0.1776    0.0000 H   0  0  0  0  0  0  0  0  0  0  0  0
    1.7880    0.1776    0.0000 H   0  0  0  0  0  0  0  0  0  0  0  0
    1.3894   -0.5127    0.0000 H   0  0  0  0  0  0  0  0  0  0  0  0
    3.0781   -3.4876    0.0000 H   0  0  0  0  0  0  0  0  0  0  0  0
    3.4766   -2.7973    0.0000 H   0  0  0  0  0  0  0  0  0  0  0  0
    1.7880   -2.8224    0.0000 H   0  0  0  0  0  0  0  0  0  0  0  0
    1.3894   -3.5127    0.0000 H   0  0  0  0  0  0  0  0  0  0  0  0
    1.4631    1.2850    0.0000 H   0  0  0  0  0  0  0  0  0  0  0  0
    1.3800   -4.4050    0.0000 H   0  0  0  0  0  0  0  0  0  0  0  0
    2.0000   -5.0250    0.0000 H   0  0  0  0  0  0  0  0  0  0  0  0
    2.6200   -4.4050    0.0000 H   0  0  0  0  0  0  0  0  0  0  0  0
    1.4631    2.9050    0.0000 H   0  0  0  0  0  0  0  0  0  0  0  0
    5.7411    0.9905    0.0000 H   0  0  0  0  0  0  0  0  0  0  0  0
    6.1429    1.6803    0.0000 H   0  0  0  0  0  0  0  0  0  0  0  0
    6.1429    2.5097    0.0000 H   0  0  0  0  0  0  0  0  0  0  0  0
    5.7411    3.1995    0.0000 H   0  0  0  0  0  0  0  0  0  0  0  0
    2.3291    4.4050    0.0000 H   0  0  0  0  0  0  0  0  0  0  0  0
  1 13  1  0  0  0  0
  1 19  1  0  0  0  0
  2 15  1  0  0  0  0
  2 20  1  0  0  0  0
  3 18  1  0  0  0  0
  3 42  1  0  0  0  0
  4  6  1  0  0  0  0
  4  7  1  0  0  0  0
  4 10  1  0  0  0  0
  5  8  1  0  0  0  0
  5  9  1  0  0  0  0
  5 11  1  0  0  0  0
  6  8  1  0  0  0  0
  6 21  1  0  0  0  0
  6 22  1  0  0  0  0
  7  9  1  0  0  0  0
  7 23  1  0  0  0  0
  7 24  1  0  0  0  0
  8 25  1  0  0  0  0
  8 26  1  0  0  0  0
  9 27  1  0  0  0  0
  9 28  1  0  0  0  0
 10 12  1  0  0  0  0
 10 29  1  0  0  0  0
 10 30  1  0  0  0  0
 11 13  2  0  0  0  0
 11 14  1  0  0  0  0
 12 16  1  0  0  0  0
 12 31  1  0  0  0  0
 12 32  1  0  0  0  0
 13 15  1  0  0  0  0
 14 17  2  0  0  0  0
 14 33  1  0  0  0  0
 15 18  2  0  0  0  0
 16 34  1  0  0  0  0
 16 35  1  0  0  0  0
 16 36  1  0  0  0  0
 17 18  1  0  0  0  0
 17 37  1  0  0  0  0
 19 20  1  0  0  0  0
 19 38  1  0  0  0  0
 19 39  1  0  0  0  0
 20 40  1  0  0  0  0
 20 41  1  0  0  0  0
M  END
> <PUBCHEM_COMPOUND_CID>
137653096

> <PUBCHEM_COMPOUND_CANONICALIZED>
1

> <PUBCHEM_CACTVS_COMPLEXITY>
308

> <PUBCHEM_CACTVS_HBOND_ACCEPTOR>
5

> <PUBCHEM_CACTVS_HBOND_DONOR>
1

> <PUBCHEM_CACTVS_ROTATABLE_BOND>
3

> <PUBCHEM_CACTVS_SUBSKEYS>
AAADceBzMAAAAAAAAAAAAAAAAAAAAAAAAAA8SIAAAAAAAACRAAAAHgAACAAACAzhkAYyxoMABgCAACRCQACCCAAhIgAIiAAP7IgPZyLGsJuXeCvnwB3b+AewcA8AAEAACgAAUAAAgAAUAACgAAAAAAAAAA==

> <PUBCHEM_IUPAC_OPENEYE_NAME>
8-(4-propylpiperazin-1-yl)-2,3-dihydro-1,4-benzodioxin-5-ol

> <PUBCHEM_IUPAC_CAS_NAME>
8-(4-propyl-1-piperazinyl)-2,3-dihydro-1,4-benzodioxin-5-ol

> <PUBCHEM_IUPAC_NAME_MARKUP>
8-(4-propylpiperazin-1-yl)-2,3-dihydro-1,4-benzodioxin-5-ol

> <PUBCHEM_IUPAC_NAME>
8-(4-propylpiperazin-1-yl)-2,3-dihydro-1,4-benzodioxin-5-ol

> <PUBCHEM_IUPAC_SYSTEMATIC_NAME>
8-(4-propylpiperazin-1-yl)-2,3-dihydro-1,4-benzodioxin-5-ol

> <PUBCHEM_IUPAC_TRADITIONAL_NAME>
8-(4-propylpiperazino)-2,3-dihydro-1,4-benzodioxin-5-ol

> <PUBCHEM_IUPAC_INCHI>
InChI=1S/C15H22N2O3/c1-2-5-16-6-8-17(9-7-16)12-3-4-13(18)15-14(12)19-10-11-20-15/h3-4,18H,2,5-11H2,1H3

> <PUBCHEM_IUPAC_INCHIKEY>
AIANRSPJEBRESY-UHFFFAOYSA-N

> <PUBCHEM_XLOGP3_AA>
2.1

> <PUBCHEM_EXACT_MASS>
278.16304257

> <PUBCHEM_MOLECULAR_FORMULA>
C15H22N2O3

> <PUBCHEM_MOLECULAR_WEIGHT>
278.35

> <PUBCHEM_OPENEYE_CAN_SMILES>
CCCN1CCN(CC1)C2=C3C(=C(C=C2)O)OCCO3

> <PUBCHEM_OPENEYE_ISO_SMILES>
CCCN1CCN(CC1)C2=C3C(=C(C=C2)O)OCCO3

> <PUBCHEM_CACTVS_TPSA>
45.2

> <PUBCHEM_MONOISOTOPIC_WEIGHT>
278.16304257

> <PUBCHEM_TOTAL_CHARGE>
0

> <PUBCHEM_HEAVY_ATOM_COUNT>
20

> <PUBCHEM_ATOM_DEF_STEREO_COUNT>
0

> <PUBCHEM_ATOM_UDEF_STEREO_COUNT>
0

> <PUBCHEM_BOND_DEF_STEREO_COUNT>
0

> <PUBCHEM_BOND_UDEF_STEREO_COUNT>
0

> <PUBCHEM_ISOTOPIC_ATOM_COUNT>
0

> <PUBCHEM_COMPONENT_COUNT>
1

> <PUBCHEM_CACTVS_TAUTO_COUNT>
-1

> <PUBCHEM_COORDINATE_TYPE>
1
5
255

> <PUBCHEM_BONDANNOTATIONS>
11  13  8
11  14  8
13  15  8
14  17  8
15  18  8
17  18  8

$$$$
