11540474
  -OEChem-09292322242D

 57 61  0     1  0  0  0  0  0999 V2000
    6.8867    1.4317    0.0000 S   0  0  0  0  0  0  0  0  0  0  0  0
   15.1012   -4.1073    0.0000 F   0  0  0  0  0  0  0  0  0  0  0  0
   15.4673   -2.7412    0.0000 F   0  0  0  0  0  0  0  0  0  0  0  0
   13.7352   -3.7412    0.0000 F   0  0  0  0  0  0  0  0  0  0  0  0
   13.1125   -2.2722    0.0000 O   0  0  0  0  0  0  0  0  0  0  0  0
    2.5878    2.2105    0.0000 O   0  0  0  0  0  0  0  0  0  0  0  0
    9.8867   -0.3004    0.0000 N   0  0  3  0  0  0  0  0  0  0  0  0
   14.5064   -1.4674    0.0000 N   0  0  0  0  0  0  0  0  0  0  0  0
    5.2989    2.2407    0.0000 N   0  0  0  0  0  0  0  0  0  0  0  0
    5.2989    0.6227    0.0000 N   0  0  0  0  0  0  0  0  0  0  0  0
    4.3479    0.9317    0.0000 N   0  0  0  0  0  0  0  0  0  0  0  0
    2.5878    3.8285    0.0000 N   0  0  0  0  0  0  0  0  0  0  0  0
   10.3111   -1.1846    0.0000 C   0  0  0  0  0  0  0  0  0  0  0  0
   10.3111    0.5839    0.0000 C   0  0  0  0  0  0  0  0  0  0  0  0
   11.2664   -1.4067    0.0000 C   0  0  0  0  0  0  0  0  0  0  0  0
   11.2664    0.8060    0.0000 C   0  0  0  0  0  0  0  0  0  0  0  0
   12.0373   -0.8004    0.0000 C   0  0  0  0  0  0  0  0  0  0  0  0
   12.0373    0.1996    0.0000 C   0  0  0  0  0  0  0  0  0  0  0  0
    8.8867   -0.3004    0.0000 C   0  0  0  0  0  0  0  0  0  0  0  0
   12.9033   -1.3003    0.0000 C   0  0  0  0  0  0  0  0  0  0  0  0
    8.3867    0.5657    0.0000 C   0  0  0  0  0  0  0  0  0  0  0  0
   12.9033    0.6996    0.0000 C   0  0  0  0  0  0  0  0  0  0  0  0
   13.7693   -0.8004    0.0000 C   0  0  0  0  0  0  0  0  0  0  0  0
   13.7693    0.1996    0.0000 C   0  0  0  0  0  0  0  0  0  0  0  0
    7.3867    0.5657    0.0000 C   0  0  0  0  0  0  0  0  0  0  0  0
   14.1012   -2.3752    0.0000 C   0  0  0  0  0  0  0  0  0  0  0  0
   14.6012   -3.2412    0.0000 C   0  0  0  0  0  0  0  0  0  0  0  0
    5.8867    1.4317    0.0000 C   0  0  0  0  0  0  0  0  0  0  0  0
    4.3479    1.9317    0.0000 C   0  0  0  0  0  0  0  0  0  0  0  0
    5.6079    3.1918    0.0000 C   0  0  0  0  0  0  0  0  0  0  0  0
    3.5388    2.5195    0.0000 C   0  0  0  0  0  0  0  0  0  0  0  0
    3.5388    3.5195    0.0000 C   0  0  0  0  0  0  0  0  0  0  0  0
    4.3479    4.1073    0.0000 C   0  0  0  0  0  0  0  0  0  0  0  0
    2.0000    3.0195    0.0000 C   0  0  0  0  0  0  0  0  0  0  0  0
    9.7063   -1.3212    0.0000 H   0  0  0  0  0  0  0  0  0  0  0  0
   10.3091   -1.8046    0.0000 H   0  0  0  0  0  0  0  0  0  0  0  0
   10.3091    1.2039    0.0000 H   0  0  0  0  0  0  0  0  0  0  0  0
    9.7063    0.7205    0.0000 H   0  0  0  0  0  0  0  0  0  0  0  0
   10.9946   -1.9640    0.0000 H   0  0  0  0  0  0  0  0  0  0  0  0
   11.7488   -1.7961    0.0000 H   0  0  0  0  0  0  0  0  0  0  0  0
   11.7488    1.1954    0.0000 H   0  0  0  0  0  0  0  0  0  0  0  0
   10.9946    1.3633    0.0000 H   0  0  0  0  0  0  0  0  0  0  0  0
    8.3041   -0.5124    0.0000 H   0  0  0  0  0  0  0  0  0  0  0  0
    8.9944   -0.9109    0.0000 H   0  0  0  0  0  0  0  0  0  0  0  0
    8.9693    0.7777    0.0000 H   0  0  0  0  0  0  0  0  0  0  0  0
    8.2790    1.1763    0.0000 H   0  0  0  0  0  0  0  0  0  0  0  0
   12.9033    1.3196    0.0000 H   0  0  0  0  0  0  0  0  0  0  0  0
   14.3063    0.5097    0.0000 H   0  0  0  0  0  0  0  0  0  0  0  0
    6.8041    0.3536    0.0000 H   0  0  0  0  0  0  0  0  0  0  0  0
    7.4944   -0.0449    0.0000 H   0  0  0  0  0  0  0  0  0  0  0  0
    6.1976    3.0002    0.0000 H   0  0  0  0  0  0  0  0  0  0  0  0
    5.7995    3.7814    0.0000 H   0  0  0  0  0  0  0  0  0  0  0  0
    5.0183    3.3834    0.0000 H   0  0  0  0  0  0  0  0  0  0  0  0
    4.7123    3.6057    0.0000 H   0  0  0  0  0  0  0  0  0  0  0  0
    4.8494    4.4717    0.0000 H   0  0  0  0  0  0  0  0  0  0  0  0
    3.9834    4.6089    0.0000 H   0  0  0  0  0  0  0  0  0  0  0  0
    1.3800    3.0195    0.0000 H   0  0  0  0  0  0  0  0  0  0  0  0
  1 25  1  0  0  0  0
  1 28  1  0  0  0  0
  2 27  1  0  0  0  0
  3 27  1  0  0  0  0
  4 27  1  0  0  0  0
  5 20  1  0  0  0  0
  5 26  1  0  0  0  0
  6 31  1  0  0  0  0
  6 34  1  0  0  0  0
  7 13  1  0  0  0  0
  7 14  1  0  0  0  0
  7 19  1  0  0  0  0
  8 23  1  0  0  0  0
  8 26  2  0  0  0  0
  9 28  1  0  0  0  0
  9 29  1  0  0  0  0
  9 30  1  0  0  0  0
 10 11  1  0  0  0  0
 10 28  2  0  0  0  0
 11 29  2  0  0  0  0
 12 32  1  0  0  0  0
 12 34  2  0  0  0  0
 13 15  1  0  0  0  0
 13 35  1  0  0  0  0
 13 36  1  0  0  0  0
 14 16  1  0  0  0  0
 14 37  1  0  0  0  0
 14 38  1  0  0  0  0
 15 17  1  0  0  0  0
 15 39  1  0  0  0  0
 15 40  1  0  0  0  0
 16 18  1  0  0  0  0
 16 41  1  0  0  0  0
 16 42  1  0  0  0  0
 17 18  2  0  0  0  0
 17 20  1  0  0  0  0
 18 22  1  0  0  0  0
 19 21  1  0  0  0  0
 19 43  1  0  0  0  0
 19 44  1  0  0  0  0
 20 23  2  0  0  0  0
 21 25  1  0  0  0  0
 21 45  1  0  0  0  0
 21 46  1  0  0  0  0
 22 24  2  0  0  0  0
 22 47  1  0  0  0  0
 23 24  1  0  0  0  0
 24 48  1  0  0  0  0
 25 49  1  0  0  0  0
 25 50  1  0  0  0  0
 26 27  1  0  0  0  0
 29 31  1  0  0  0  0
 30 51  1  0  0  0  0
 30 52  1  0  0  0  0
 30 53  1  0  0  0  0
 31 32  2  0  0  0  0
 32 33  1  0  0  0  0
 33 54  1  0  0  0  0
 33 55  1  0  0  0  0
 33 56  1  0  0  0  0
 34 57  1  0  0  0  0
M  END
> <PUBCHEM_COMPOUND_CID>
11540474

> <PUBCHEM_COMPOUND_CANONICALIZED>
1

> <PUBCHEM_CACTVS_COMPLEXITY>
694

> <PUBCHEM_CACTVS_HBOND_ACCEPTOR>
11

> <PUBCHEM_CACTVS_HBOND_DONOR>
0

> <PUBCHEM_CACTVS_ROTATABLE_BOND>
6

> <PUBCHEM_CACTVS_SUBSKEYS>
AAADceB7sYBAAAAAAAAAAAAAAAAAAWLFgAAwAAAABYAAAFgB/gAAHwQIAAAADAzF3xa31rcMFEiqA6dz9ASS2Ct/YrAd2CG9bNiOLrLk/buPOSjkzBPY6Ye82bKOiAABQAAYEAAQAAKAADAgAAAAAAAAAA==

> <PUBCHEM_IUPAC_OPENEYE_NAME>
8-[3-[[4-methyl-5-(4-methyloxazol-5-yl)-1,2,4-triazol-3-yl]sulfanyl]propyl]-2-(trifluoromethyl)-6,7,9,10-tetrahydrooxazolo[4,5-i][3]benzazepine

> <PUBCHEM_IUPAC_CAS_NAME>
8-[3-[[4-methyl-5-(4-methyl-5-oxazolyl)-1,2,4-triazol-3-yl]thio]propyl]-2-(trifluoromethyl)-6,7,9,10-tetrahydrooxazolo[4,5-i][3]benzazepine

> <PUBCHEM_IUPAC_NAME_MARKUP>
8-[3-[[4-methyl-5-(4-methyl-1,3-oxazol-5-yl)-1,2,4-triazol-3-yl]sulfanyl]propyl]-2-(trifluoromethyl)-6,7,9,10-tetrahydro-[1,3]oxazolo[4,5-i][3]benzazepine

> <PUBCHEM_IUPAC_NAME>
8-[3-[[4-methyl-5-(4-methyl-1,3-oxazol-5-yl)-1,2,4-triazol-3-yl]sulfanyl]propyl]-2-(trifluoromethyl)-6,7,9,10-tetrahydro-[1,3]oxazolo[4,5-i][3]benzazepine

> <PUBCHEM_IUPAC_SYSTEMATIC_NAME>
8-[3-[[4-methyl-5-(4-methyl-1,3-oxazol-5-yl)-1,2,4-triazol-3-yl]sulfanyl]propyl]-2-(trifluoromethyl)-6,7,9,10-tetrahydro-[1,3]oxazolo[4,5-i][3]benzazepine

> <PUBCHEM_IUPAC_TRADITIONAL_NAME>
8-[3-[[4-methyl-5-(4-methyloxazol-5-yl)-1,2,4-triazol-3-yl]thio]propyl]-2-(trifluoromethyl)-6,7,9,10-tetrahydrooxazolo[4,5-i][3]benzazepine

> <PUBCHEM_IUPAC_INCHI>
InChI=1S/C22H23F3N6O2S/c1-13-17(32-12-26-13)19-28-29-21(30(19)2)34-11-3-8-31-9-6-14-4-5-16-18(15(14)7-10-31)33-20(27-16)22(23,24)25/h4-5,12H,3,6-11H2,1-2H3

> <PUBCHEM_IUPAC_INCHIKEY>
ABWRXTVIPWIMTE-UHFFFAOYSA-N

> <PUBCHEM_XLOGP3_AA>
3.9

> <PUBCHEM_EXACT_MASS>
492.15552966

> <PUBCHEM_MOLECULAR_FORMULA>
C22H23F3N6O2S

> <PUBCHEM_MOLECULAR_WEIGHT>
492.5

> <PUBCHEM_OPENEYE_CAN_SMILES>
CC1=C(OC=N1)C2=NN=C(N2C)SCCCN3CCC4=C(CC3)C5=C(C=C4)N=C(O5)C(F)(F)F

> <PUBCHEM_OPENEYE_ISO_SMILES>
CC1=C(OC=N1)C2=NN=C(N2C)SCCCN3CCC4=C(CC3)C5=C(C=C4)N=C(O5)C(F)(F)F

> <PUBCHEM_CACTVS_TPSA>
111

> <PUBCHEM_MONOISOTOPIC_WEIGHT>
492.15552966

> <PUBCHEM_TOTAL_CHARGE>
0

> <PUBCHEM_HEAVY_ATOM_COUNT>
34

> <PUBCHEM_ATOM_DEF_STEREO_COUNT>
0

> <PUBCHEM_ATOM_UDEF_STEREO_COUNT>
0

> <PUBCHEM_BOND_DEF_STEREO_COUNT>
0

> <PUBCHEM_BOND_UDEF_STEREO_COUNT>
0

> <PUBCHEM_ISOTOPIC_ATOM_COUNT>
0

> <PUBCHEM_COMPONENT_COUNT>
1

> <PUBCHEM_CACTVS_TAUTO_COUNT>
-1

> <PUBCHEM_COORDINATE_TYPE>
1
5
255

> <PUBCHEM_BONDANNOTATIONS>
10  11  8
10  28  8
11  29  8
12  32  8
12  34  8
17  18  8
17  20  8
18  22  8
20  23  8
22  24  8
23  24  8
31  32  8
5  20  8
5  26  8
6  31  8
6  34  8
8  23  8
8  26  8
9  28  8
9  29  8

$$$$
