44338130
  -OEChem-09292322192D

 45 48  0     0  0  0  0  0  0999 V2000
    8.9030    1.9540    0.0000 Cl  0  0  0  0  0  0  0  0  0  0  0  0
    6.2619   -0.6261    0.0000 S   0  0  0  0  0  0  0  0  0  0  0  0
   11.7619   -1.4921    0.0000 F   0  0  0  0  0  0  0  0  0  0  0  0
   10.7619   -2.4921    0.0000 F   0  0  0  0  0  0  0  0  0  0  0  0
   10.7619   -0.4921    0.0000 F   0  0  0  0  0  0  0  0  0  0  0  0
    4.6783    0.1786    0.0000 N   0  0  0  0  0  0  0  0  0  0  0  0
    4.6783   -1.4308    0.0000 N   0  0  0  0  0  0  0  0  0  0  0  0
    3.7320   -0.1261    0.0000 C   0  0  0  0  0  0  0  0  0  0  0  0
    4.9889    1.1292    0.0000 C   0  0  0  0  0  0  0  0  0  0  0  0
    5.2619   -0.6261    0.0000 C   0  0  0  0  0  0  0  0  0  0  0  0
    3.7320   -1.1261    0.0000 C   0  0  0  0  0  0  0  0  0  0  0  0
    5.9674    1.3354    0.0000 C   0  0  0  0  0  0  0  0  0  0  0  0
    2.8660    0.3739    0.0000 C   0  0  0  0  0  0  0  0  0  0  0  0
    2.8660   -1.6261    0.0000 C   0  0  0  0  0  0  0  0  0  0  0  0
    6.7619   -1.4921    0.0000 C   0  0  0  0  0  0  0  0  0  0  0  0
    7.7619   -1.4921    0.0000 C   0  0  0  0  0  0  0  0  0  0  0  0
    2.0000   -0.1261    0.0000 C   0  0  0  0  0  0  0  0  0  0  0  0
    6.2781    2.2859    0.0000 C   0  0  0  0  0  0  0  0  0  0  0  0
    6.6353    0.5911    0.0000 C   0  0  0  0  0  0  0  0  0  0  0  0
    2.0000   -1.1261    0.0000 C   0  0  0  0  0  0  0  0  0  0  0  0
    8.2619   -2.3581    0.0000 C   0  0  0  0  0  0  0  0  0  0  0  0
    8.2619   -0.6261    0.0000 C   0  0  0  0  0  0  0  0  0  0  0  0
    7.2566    2.4921    0.0000 C   0  0  0  0  0  0  0  0  0  0  0  0
    7.6138    0.7973    0.0000 C   0  0  0  0  0  0  0  0  0  0  0  0
    9.7619   -1.4921    0.0000 C   0  0  0  0  0  0  0  0  0  0  0  0
    9.2619   -2.3581    0.0000 C   0  0  0  0  0  0  0  0  0  0  0  0
    9.2619   -0.6261    0.0000 C   0  0  0  0  0  0  0  0  0  0  0  0
    7.9244    1.7478    0.0000 C   0  0  0  0  0  0  0  0  0  0  0  0
   10.7619   -1.4921    0.0000 C   0  0  0  0  0  0  0  0  0  0  0  0
    4.9684    1.7488    0.0000 H   0  0  0  0  0  0  0  0  0  0  0  0
    4.3751    1.2165    0.0000 H   0  0  0  0  0  0  0  0  0  0  0  0
    2.8660    0.9939    0.0000 H   0  0  0  0  0  0  0  0  0  0  0  0
    2.8660   -2.2461    0.0000 H   0  0  0  0  0  0  0  0  0  0  0  0
    6.1793   -1.7042    0.0000 H   0  0  0  0  0  0  0  0  0  0  0  0
    6.8695   -2.1027    0.0000 H   0  0  0  0  0  0  0  0  0  0  0  0
    1.4631    0.1839    0.0000 H   0  0  0  0  0  0  0  0  0  0  0  0
    5.8640    2.7474    0.0000 H   0  0  0  0  0  0  0  0  0  0  0  0
    6.4427    0.0018    0.0000 H   0  0  0  0  0  0  0  0  0  0  0  0
    1.4631   -1.4361    0.0000 H   0  0  0  0  0  0  0  0  0  0  0  0
    7.9519   -2.8951    0.0000 H   0  0  0  0  0  0  0  0  0  0  0  0
    7.9519   -0.0892    0.0000 H   0  0  0  0  0  0  0  0  0  0  0  0
    7.4492    3.0814    0.0000 H   0  0  0  0  0  0  0  0  0  0  0  0
    8.0279    0.3358    0.0000 H   0  0  0  0  0  0  0  0  0  0  0  0
    9.5719   -2.8951    0.0000 H   0  0  0  0  0  0  0  0  0  0  0  0
    9.5719   -0.0892    0.0000 H   0  0  0  0  0  0  0  0  0  0  0  0
  1 28  1  0  0  0  0
  2 10  1  0  0  0  0
  2 15  1  0  0  0  0
  3 29  1  0  0  0  0
  4 29  1  0  0  0  0
  5 29  1  0  0  0  0
  6  8  1  0  0  0  0
  6  9  1  0  0  0  0
  6 10  1  0  0  0  0
  7 10  2  0  0  0  0
  7 11  1  0  0  0  0
  8 11  1  0  0  0  0
  8 13  2  0  0  0  0
  9 12  1  0  0  0  0
  9 30  1  0  0  0  0
  9 31  1  0  0  0  0
 11 14  2  0  0  0  0
 12 18  2  0  0  0  0
 12 19  1  0  0  0  0
 13 17  1  0  0  0  0
 13 32  1  0  0  0  0
 14 20  1  0  0  0  0
 14 33  1  0  0  0  0
 15 16  1  0  0  0  0
 15 34  1  0  0  0  0
 15 35  1  0  0  0  0
 16 21  2  0  0  0  0
 16 22  1  0  0  0  0
 17 20  2  0  0  0  0
 17 36  1  0  0  0  0
 18 23  1  0  0  0  0
 18 37  1  0  0  0  0
 19 24  2  0  0  0  0
 19 38  1  0  0  0  0
 20 39  1  0  0  0  0
 21 26  1  0  0  0  0
 21 40  1  0  0  0  0
 22 27  2  0  0  0  0
 22 41  1  0  0  0  0
 23 28  2  0  0  0  0
 23 42  1  0  0  0  0
 24 28  1  0  0  0  0
 24 43  1  0  0  0  0
 25 26  2  0  0  0  0
 25 27  1  0  0  0  0
 25 29  1  0  0  0  0
 26 44  1  0  0  0  0
 27 45  1  0  0  0  0
M  END
> <PUBCHEM_COMPOUND_CID>
44338130

> <PUBCHEM_COMPOUND_CANONICALIZED>
1

> <PUBCHEM_CACTVS_COMPLEXITY>
519

> <PUBCHEM_CACTVS_HBOND_ACCEPTOR>
5

> <PUBCHEM_CACTVS_HBOND_DONOR>
0

> <PUBCHEM_CACTVS_ROTATABLE_BOND>
5

> <PUBCHEM_CACTVS_SUBSKEYS>
AAADceB7AYBEAAAAAAAAAAAAAAAAAWAAAAAwYMAAAAAAAFgB9AAAHQYAAAAADArFXjSx0LcMEAigAyRiZACC0C1hF7AJ2CA4dpiIaKLhm5GUIAhogALIyCcQgAAORAAAAAAAACCIAAAAAAAAQAAAAAAAAA==

> <PUBCHEM_IUPAC_OPENEYE_NAME>
1-[(4-chlorophenyl)methyl]-2-[[4-(trifluoromethyl)phenyl]methylsulfanyl]benzimidazole

> <PUBCHEM_IUPAC_CAS_NAME>
1-[(4-chlorophenyl)methyl]-2-[[4-(trifluoromethyl)phenyl]methylthio]benzimidazole

> <PUBCHEM_IUPAC_NAME_MARKUP>
1-[(4-chlorophenyl)methyl]-2-[[4-(trifluoromethyl)phenyl]methylsulfanyl]benzimidazole

> <PUBCHEM_IUPAC_NAME>
1-[(4-chlorophenyl)methyl]-2-[[4-(trifluoromethyl)phenyl]methylsulfanyl]benzimidazole

> <PUBCHEM_IUPAC_SYSTEMATIC_NAME>
1-[(4-chlorophenyl)methyl]-2-[[4-(trifluoromethyl)phenyl]methylsulfanyl]benzimidazole

> <PUBCHEM_IUPAC_TRADITIONAL_NAME>
1-(4-chlorobenzyl)-2-[[4-(trifluoromethyl)benzyl]thio]benzimidazole

> <PUBCHEM_IUPAC_INCHI>
InChI=1S/C22H16ClF3N2S/c23-18-11-7-15(8-12-18)13-28-20-4-2-1-3-19(20)27-21(28)29-14-16-5-9-17(10-6-16)22(24,25)26/h1-12H,13-14H2

> <PUBCHEM_IUPAC_INCHIKEY>
PYFLVLOENQIVRZ-UHFFFAOYSA-N

> <PUBCHEM_XLOGP3_AA>
6.9

> <PUBCHEM_EXACT_MASS>
432.0674819

> <PUBCHEM_MOLECULAR_FORMULA>
C22H16ClF3N2S

> <PUBCHEM_MOLECULAR_WEIGHT>
432.9

> <PUBCHEM_OPENEYE_CAN_SMILES>
C1=CC=C2C(=C1)N=C(N2CC3=CC=C(C=C3)Cl)SCC4=CC=C(C=C4)C(F)(F)F

> <PUBCHEM_OPENEYE_ISO_SMILES>
C1=CC=C2C(=C1)N=C(N2CC3=CC=C(C=C3)Cl)SCC4=CC=C(C=C4)C(F)(F)F

> <PUBCHEM_CACTVS_TPSA>
43.1

> <PUBCHEM_MONOISOTOPIC_WEIGHT>
432.0674819

> <PUBCHEM_TOTAL_CHARGE>
0

> <PUBCHEM_HEAVY_ATOM_COUNT>
29

> <PUBCHEM_ATOM_DEF_STEREO_COUNT>
0

> <PUBCHEM_ATOM_UDEF_STEREO_COUNT>
0

> <PUBCHEM_BOND_DEF_STEREO_COUNT>
0

> <PUBCHEM_BOND_UDEF_STEREO_COUNT>
0

> <PUBCHEM_ISOTOPIC_ATOM_COUNT>
0

> <PUBCHEM_COMPONENT_COUNT>
1

> <PUBCHEM_CACTVS_TAUTO_COUNT>
-1

> <PUBCHEM_COORDINATE_TYPE>
1
5
255

> <PUBCHEM_BONDANNOTATIONS>
11  14  8
12  18  8
12  19  8
13  17  8
14  20  8
16  21  8
16  22  8
17  20  8
18  23  8
19  24  8
21  26  8
22  27  8
23  28  8
24  28  8
25  26  8
25  27  8
6  10  8
6  8  8
7  10  8
7  11  8
8  11  8
8  13  8

$$$$
