44415701
  -OEChem-09292322282D

 68 72  0     0  0  0  0  0  0999 V2000
    2.0000    1.4298    0.0000 Cl  0  0  0  0  0  0  0  0  0  0  0  0
    9.6749    1.4297    0.0000 Cl  0  0  0  0  0  0  0  0  0  0  0  0
    7.5695   -0.8973    0.0000 O   0  0  0  0  0  0  0  0  0  0  0  0
    8.4355   -4.3973    0.0000 O   0  0  0  0  0  0  0  0  0  0  0  0
    4.9714   -4.3972    0.0000 O   0  0  0  0  0  0  0  0  0  0  0  0
    6.7034   -5.3973    0.0000 O   0  0  0  0  0  0  0  0  0  0  0  0
    4.9036    3.1944    0.0000 N   0  0  0  0  0  0  0  0  0  0  0  0
    4.0358    4.9963    0.0000 N   0  0  0  0  0  0  0  0  0  0  0  0
    5.8374    0.1027    0.0000 N   0  0  0  0  0  0  0  0  0  0  0  0
    6.3374    2.2934    0.0000 N   0  0  0  0  0  0  0  0  0  0  0  0
    5.8374   -0.8973    0.0000 N   0  0  0  0  0  0  0  0  0  0  0  0
    3.9064    3.2691    0.0000 C   0  0  0  0  0  0  0  0  0  0  0  0
    5.4669    4.0206    0.0000 C   0  0  0  0  0  0  0  0  0  0  0  0
    3.4725    4.1701    0.0000 C   0  0  0  0  0  0  0  0  0  0  0  0
    5.0330    4.9216    0.0000 C   0  0  0  0  0  0  0  0  0  0  0  0
    5.3374    2.2934    0.0000 C   0  0  0  0  0  0  0  0  0  0  0  0
    4.7139    1.5116    0.0000 C   0  0  0  0  0  0  0  0  0  0  0  0
    3.6019    5.8973    0.0000 C   0  0  0  0  0  0  0  0  0  0  0  0
    4.9364    0.5366    0.0000 C   0  0  0  0  0  0  0  0  0  0  0  0
    6.7384    0.5366    0.0000 C   0  0  0  0  0  0  0  0  0  0  0  0
    6.9609    1.5115    0.0000 C   0  0  0  0  0  0  0  0  0  0  0  0
    3.7234    1.8339    0.0000 C   0  0  0  0  0  0  0  0  0  0  0  0
    4.1839   -0.1835    0.0000 C   0  0  0  0  0  0  0  0  0  0  0  0
    2.9544    1.1313    0.0000 C   0  0  0  0  0  0  0  0  0  0  0  0
    7.4909   -0.1836    0.0000 C   0  0  0  0  0  0  0  0  0  0  0  0
    7.9514    1.8339    0.0000 C   0  0  0  0  0  0  0  0  0  0  0  0
    3.1862    0.1158    0.0000 C   0  0  0  0  0  0  0  0  0  0  0  0
    8.4886    0.1158    0.0000 C   0  0  0  0  0  0  0  0  0  0  0  0
    8.7204    1.1313    0.0000 C   0  0  0  0  0  0  0  0  0  0  0  0
    6.7034   -1.3973    0.0000 C   0  0  0  0  0  0  0  0  0  0  0  0
    6.7034   -2.3973    0.0000 C   0  0  0  0  0  0  0  0  0  0  0  0
    5.8374   -2.8973    0.0000 C   0  0  0  0  0  0  0  0  0  0  0  0
    7.5694   -2.8973    0.0000 C   0  0  0  0  0  0  0  0  0  0  0  0
    7.5694   -3.8973    0.0000 C   0  0  0  0  0  0  0  0  0  0  0  0
    5.8374   -3.8973    0.0000 C   0  0  0  0  0  0  0  0  0  0  0  0
    6.7034   -4.3973    0.0000 C   0  0  0  0  0  0  0  0  0  0  0  0
    9.3015   -3.8973    0.0000 C   0  0  0  0  0  0  0  0  0  0  0  0
    4.9714   -5.3972    0.0000 C   0  0  0  0  0  0  0  0  0  0  0  0
    7.5694   -5.8973    0.0000 C   0  0  0  0  0  0  0  0  0  0  0  0
    3.3095    3.1012    0.0000 H   0  0  0  0  0  0  0  0  0  0  0  0
    3.9681    2.6522    0.0000 H   0  0  0  0  0  0  0  0  0  0  0  0
    5.9107    3.5877    0.0000 H   0  0  0  0  0  0  0  0  0  0  0  0
    5.9703    4.3825    0.0000 H   0  0  0  0  0  0  0  0  0  0  0  0
    3.0286    4.6030    0.0000 H   0  0  0  0  0  0  0  0  0  0  0  0
    2.9691    3.8082    0.0000 H   0  0  0  0  0  0  0  0  0  0  0  0
    5.6298    5.0895    0.0000 H   0  0  0  0  0  0  0  0  0  0  0  0
    4.9713    5.5385    0.0000 H   0  0  0  0  0  0  0  0  0  0  0  0
    4.1605    6.1663    0.0000 H   0  0  0  0  0  0  0  0  0  0  0  0
    3.3329    6.4559    0.0000 H   0  0  0  0  0  0  0  0  0  0  0  0
    3.0433    5.6283    0.0000 H   0  0  0  0  0  0  0  0  0  0  0  0
    3.5925    2.4399    0.0000 H   0  0  0  0  0  0  0  0  0  0  0  0
    4.3288   -0.7864    0.0000 H   0  0  0  0  0  0  0  0  0  0  0  0
    5.3005   -1.2073    0.0000 H   0  0  0  0  0  0  0  0  0  0  0  0
    7.3460   -0.7864    0.0000 H   0  0  0  0  0  0  0  0  0  0  0  0
    8.0824    2.4399    0.0000 H   0  0  0  0  0  0  0  0  0  0  0  0
    2.7333   -0.3076    0.0000 H   0  0  0  0  0  0  0  0  0  0  0  0
    8.9415   -0.3077    0.0000 H   0  0  0  0  0  0  0  0  0  0  0  0
    5.3005   -2.5873    0.0000 H   0  0  0  0  0  0  0  0  0  0  0  0
    8.1064   -2.5873    0.0000 H   0  0  0  0  0  0  0  0  0  0  0  0
    9.6115   -4.4342    0.0000 H   0  0  0  0  0  0  0  0  0  0  0  0
    9.8384   -3.5873    0.0000 H   0  0  0  0  0  0  0  0  0  0  0  0
    8.9915   -3.3604    0.0000 H   0  0  0  0  0  0  0  0  0  0  0  0
    4.3514   -5.3972    0.0000 H   0  0  0  0  0  0  0  0  0  0  0  0
    4.9714   -6.0172    0.0000 H   0  0  0  0  0  0  0  0  0  0  0  0
    5.5914   -5.3973    0.0000 H   0  0  0  0  0  0  0  0  0  0  0  0
    7.2594   -6.4342    0.0000 H   0  0  0  0  0  0  0  0  0  0  0  0
    8.1064   -6.2073    0.0000 H   0  0  0  0  0  0  0  0  0  0  0  0
    7.8794   -5.3603    0.0000 H   0  0  0  0  0  0  0  0  0  0  0  0
  1 24  1  0  0  0  0
  2 29  1  0  0  0  0
  3 30  2  0  0  0  0
  4 34  1  0  0  0  0
  4 37  1  0  0  0  0
  5 35  1  0  0  0  0
  5 38  1  0  0  0  0
  6 36  1  0  0  0  0
  6 39  1  0  0  0  0
  7 12  1  0  0  0  0
  7 13  1  0  0  0  0
  7 16  1  0  0  0  0
  8 14  1  0  0  0  0
  8 15  1  0  0  0  0
  8 18  1  0  0  0  0
  9 11  1  0  0  0  0
  9 19  1  0  0  0  0
  9 20  1  0  0  0  0
 10 16  2  0  0  0  0
 10 21  1  0  0  0  0
 11 30  1  0  0  0  0
 11 53  1  0  0  0  0
 12 14  1  0  0  0  0
 12 40  1  0  0  0  0
 12 41  1  0  0  0  0
 13 15  1  0  0  0  0
 13 42  1  0  0  0  0
 13 43  1  0  0  0  0
 14 44  1  0  0  0  0
 14 45  1  0  0  0  0
 15 46  1  0  0  0  0
 15 47  1  0  0  0  0
 16 17  1  0  0  0  0
 17 19  2  0  0  0  0
 17 22  1  0  0  0  0
 18 48  1  0  0  0  0
 18 49  1  0  0  0  0
 18 50  1  0  0  0  0
 19 23  1  0  0  0  0
 20 21  2  0  0  0  0
 20 25  1  0  0  0  0
 21 26  1  0  0  0  0
 22 24  2  0  0  0  0
 22 51  1  0  0  0  0
 23 27  2  0  0  0  0
 23 52  1  0  0  0  0
 24 27  1  0  0  0  0
 25 28  2  0  0  0  0
 25 54  1  0  0  0  0
 26 29  2  0  0  0  0
 26 55  1  0  0  0  0
 27 56  1  0  0  0  0
 28 29  1  0  0  0  0
 28 57  1  0  0  0  0
 30 31  1  0  0  0  0
 31 32  2  0  0  0  0
 31 33  1  0  0  0  0
 32 35  1  0  0  0  0
 32 58  1  0  0  0  0
 33 34  2  0  0  0  0
 33 59  1  0  0  0  0
 34 36  1  0  0  0  0
 35 36  2  0  0  0  0
 37 60  1  0  0  0  0
 37 61  1  0  0  0  0
 37 62  1  0  0  0  0
 38 63  1  0  0  0  0
 38 64  1  0  0  0  0
 38 65  1  0  0  0  0
 39 66  1  0  0  0  0
 39 67  1  0  0  0  0
 39 68  1  0  0  0  0
M  END
> <PUBCHEM_COMPOUND_CID>
44415701

> <PUBCHEM_COMPOUND_CANONICALIZED>
1

> <PUBCHEM_CACTVS_COMPLEXITY>
861

> <PUBCHEM_CACTVS_HBOND_ACCEPTOR>
7

> <PUBCHEM_CACTVS_HBOND_DONOR>
1

> <PUBCHEM_CACTVS_ROTATABLE_BOND>
6

> <PUBCHEM_CACTVS_SUBSKEYS>
AAADceB7uAAGAAAAAAAAAAAAAAAAAAAAAAA8YMEABAAAAAABUAAAHgIYAAAADA7BmCYzxoNiBACoAidydACCDAElJwAbqAEu/tgNZ/LF/5uUMSplwBXK6Ye6/BzOIABBKAICQCBAAIJQBASAQAAAAAAAAA==

> <PUBCHEM_IUPAC_OPENEYE_NAME>
N-[3,8-dichloro-6-(4-methylpiperazin-1-yl)benzo[b][1,4]benzodiazepin-11-yl]-3,4,5-trimethoxy-benzamide

> <PUBCHEM_IUPAC_CAS_NAME>
N-[3,8-dichloro-6-(4-methyl-1-piperazinyl)-11-benzo[b][1,4]benzodiazepinyl]-3,4,5-trimethoxybenzamide

> <PUBCHEM_IUPAC_NAME_MARKUP>
<I>N</I>-[3,8-dichloro-6-(4-methylpiperazin-1-yl)benzo[b][1,4]benzodiazepin-11-yl]-3,4,5-trimethoxybenzamide

> <PUBCHEM_IUPAC_NAME>
N-[3,8-dichloro-6-(4-methylpiperazin-1-yl)benzo[b][1,4]benzodiazepin-11-yl]-3,4,5-trimethoxybenzamide

> <PUBCHEM_IUPAC_SYSTEMATIC_NAME>
N-[3,8-bis(chloranyl)-6-(4-methylpiperazin-1-yl)benzo[b][1,4]benzodiazepin-11-yl]-3,4,5-trimethoxy-benzamide

> <PUBCHEM_IUPAC_TRADITIONAL_NAME>
N-[3,8-dichloro-6-(4-methylpiperazino)benzo[b][1,4]benzodiazepin-11-yl]-3,4,5-trimethoxy-benzamide

> <PUBCHEM_IUPAC_INCHI>
InChI=1S/C28H29Cl2N5O4/c1-33-9-11-34(12-10-33)27-20-15-18(29)5-7-22(20)35(23-8-6-19(30)16-21(23)31-27)32-28(36)17-13-24(37-2)26(39-4)25(14-17)38-3/h5-8,13-16H,9-12H2,1-4H3,(H,32,36)

> <PUBCHEM_IUPAC_INCHIKEY>
JFBANURFCNELLB-UHFFFAOYSA-N

> <PUBCHEM_XLOGP3_AA>
4.9

> <PUBCHEM_EXACT_MASS>
569.1596598

> <PUBCHEM_MOLECULAR_FORMULA>
C28H29Cl2N5O4

> <PUBCHEM_MOLECULAR_WEIGHT>
570.5

> <PUBCHEM_OPENEYE_CAN_SMILES>
CN1CCN(CC1)C2=NC3=C(C=CC(=C3)Cl)N(C4=C2C=C(C=C4)Cl)NC(=O)C5=CC(=C(C(=C5)OC)OC)OC

> <PUBCHEM_OPENEYE_ISO_SMILES>
CN1CCN(CC1)C2=NC3=C(C=CC(=C3)Cl)N(C4=C2C=C(C=C4)Cl)NC(=O)C5=CC(=C(C(=C5)OC)OC)OC

> <PUBCHEM_CACTVS_TPSA>
78.9

> <PUBCHEM_MONOISOTOPIC_WEIGHT>
569.1596598

> <PUBCHEM_TOTAL_CHARGE>
0

> <PUBCHEM_HEAVY_ATOM_COUNT>
39

> <PUBCHEM_ATOM_DEF_STEREO_COUNT>
0

> <PUBCHEM_ATOM_UDEF_STEREO_COUNT>
0

> <PUBCHEM_BOND_DEF_STEREO_COUNT>
0

> <PUBCHEM_BOND_UDEF_STEREO_COUNT>
0

> <PUBCHEM_ISOTOPIC_ATOM_COUNT>
0

> <PUBCHEM_COMPONENT_COUNT>
1

> <PUBCHEM_CACTVS_TAUTO_COUNT>
-1

> <PUBCHEM_COORDINATE_TYPE>
1
5
255

> <PUBCHEM_BONDANNOTATIONS>
17  19  8
17  22  8
19  23  8
20  21  8
20  25  8
21  26  8
22  24  8
23  27  8
24  27  8
25  28  8
26  29  8
28  29  8
31  32  8
31  33  8
32  35  8
33  34  8
34  36  8
35  36  8

$$$$
