151880864
  -OEChem-09292322462D

 49 51  0     1  0  0  0  0  0999 V2000
    4.9836    3.7182    0.0000 O   0  0  0  0  0  0  0  0  0  0  0  0
    5.1701   -1.1866    0.0000 N   0  0  3  0  0  0  0  0  0  0  0  0
    4.1701    1.8911    0.0000 N   0  0  3  0  0  0  0  0  0  0  0  0
    4.6701    0.3522    0.0000 C   0  0  3  0  0  0  0  0  0  0  0  0
    3.8611   -0.2355    0.0000 C   0  0  0  0  0  0  0  0  0  0  0  0
    5.4791   -0.2355    0.0000 C   0  0  0  0  0  0  0  0  0  0  0  0
    5.4791    0.9400    0.0000 C   0  0  0  0  0  0  0  0  0  0  0  0
    3.8611    0.9400    0.0000 C   0  0  0  0  0  0  0  0  0  0  0  0
    4.1701   -1.1866    0.0000 C   0  0  0  0  0  0  0  0  0  0  0  0
    5.1701    1.8911    0.0000 C   0  0  0  0  0  0  0  0  0  0  0  0
    5.7579   -1.9956    0.0000 C   0  0  0  0  0  0  0  0  0  0  0  0
    3.5823    2.7001    0.0000 C   0  0  0  0  0  0  0  0  0  0  0  0
    5.3511   -2.9092    0.0000 C   0  0  0  0  0  0  0  0  0  0  0  0
    3.9890    3.6136    0.0000 C   0  0  0  0  0  0  0  0  0  0  0  0
    2.5878    2.5956    0.0000 C   0  0  0  0  0  0  0  0  0  0  0  0
    5.9389   -3.7182    0.0000 C   0  0  0  0  0  0  0  0  0  0  0  0
    3.4013    4.4227    0.0000 C   0  0  0  0  0  0  0  0  0  0  0  0
    2.0000    3.4046    0.0000 C   0  0  0  0  0  0  0  0  0  0  0  0
    5.5322   -4.6317    0.0000 C   0  0  0  0  0  0  0  0  0  0  0  0
    2.4067    4.3181    0.0000 C   0  0  0  0  0  0  0  0  0  0  0  0
    5.3903    4.6317    0.0000 C   0  0  0  0  0  0  0  0  0  0  0  0
    3.5511    0.3014    0.0000 H   0  0  0  0  0  0  0  0  0  0  0  0
    3.2947   -0.4877    0.0000 H   0  0  0  0  0  0  0  0  0  0  0  0
    6.0455   -0.4877    0.0000 H   0  0  0  0  0  0  0  0  0  0  0  0
    5.7891    0.3014    0.0000 H   0  0  0  0  0  0  0  0  0  0  0  0
    5.7891    0.4031    0.0000 H   0  0  0  0  0  0  0  0  0  0  0  0
    6.0455    1.1922    0.0000 H   0  0  0  0  0  0  0  0  0  0  0  0
    3.2947    1.1922    0.0000 H   0  0  0  0  0  0  0  0  0  0  0  0
    3.5511    0.4031    0.0000 H   0  0  0  0  0  0  0  0  0  0  0  0
    3.5636   -1.3155    0.0000 H   0  0  0  0  0  0  0  0  0  0  0  0
    4.2349   -1.8032    0.0000 H   0  0  0  0  0  0  0  0  0  0  0  0
    5.7765    2.0200    0.0000 H   0  0  0  0  0  0  0  0  0  0  0  0
    5.1053    2.5077    0.0000 H   0  0  0  0  0  0  0  0  0  0  0  0
    6.2719   -2.3423    0.0000 H   0  0  0  0  0  0  0  0  0  0  0  0
    6.1886   -1.5496    0.0000 H   0  0  0  0  0  0  0  0  0  0  0  0
    4.8371   -2.5625    0.0000 H   0  0  0  0  0  0  0  0  0  0  0  0
    4.9204   -3.3552    0.0000 H   0  0  0  0  0  0  0  0  0  0  0  0
    2.3356    2.0292    0.0000 H   0  0  0  0  0  0  0  0  0  0  0  0
    6.4529   -4.0649    0.0000 H   0  0  0  0  0  0  0  0  0  0  0  0
    6.3696   -3.2722    0.0000 H   0  0  0  0  0  0  0  0  0  0  0  0
    3.6534    4.9891    0.0000 H   0  0  0  0  0  0  0  0  0  0  0  0
    1.3834    3.3398    0.0000 H   0  0  0  0  0  0  0  0  0  0  0  0
    4.9658   -4.3796    0.0000 H   0  0  0  0  0  0  0  0  0  0  0  0
    5.2800   -5.1981    0.0000 H   0  0  0  0  0  0  0  0  0  0  0  0
    6.0986   -4.8839    0.0000 H   0  0  0  0  0  0  0  0  0  0  0  0
    2.0423    4.8197    0.0000 H   0  0  0  0  0  0  0  0  0  0  0  0
    5.9567    4.3796    0.0000 H   0  0  0  0  0  0  0  0  0  0  0  0
    5.6425    5.1981    0.0000 H   0  0  0  0  0  0  0  0  0  0  0  0
    4.8239    4.8839    0.0000 H   0  0  0  0  0  0  0  0  0  0  0  0
  1 14  1  0  0  0  0
  1 21  1  0  0  0  0
  2  6  1  0  0  0  0
  2  9  1  0  0  0  0
  2 11  1  0  0  0  0
  3  8  1  0  0  0  0
  3 10  1  0  0  0  0
  3 12  1  0  0  0  0
  4  5  1  0  0  0  0
  4  6  1  0  0  0  0
  4  7  1  0  0  0  0
  4  8  1  0  0  0  0
  5  9  1  0  0  0  0
  5 22  1  0  0  0  0
  5 23  1  0  0  0  0
  6 24  1  0  0  0  0
  6 25  1  0  0  0  0
  7 10  1  0  0  0  0
  7 26  1  0  0  0  0
  7 27  1  0  0  0  0
  8 28  1  0  0  0  0
  8 29  1  0  0  0  0
  9 30  1  0  0  0  0
  9 31  1  0  0  0  0
 10 32  1  0  0  0  0
 10 33  1  0  0  0  0
 11 13  1  0  0  0  0
 11 34  1  0  0  0  0
 11 35  1  0  0  0  0
 12 14  1  0  0  0  0
 12 15  2  0  0  0  0
 13 16  1  0  0  0  0
 13 36  1  0  0  0  0
 13 37  1  0  0  0  0
 14 17  2  0  0  0  0
 15 18  1  0  0  0  0
 15 38  1  0  0  0  0
 16 19  1  0  0  0  0
 16 39  1  0  0  0  0
 16 40  1  0  0  0  0
 17 20  1  0  0  0  0
 17 41  1  0  0  0  0
 18 20  2  0  0  0  0
 18 42  1  0  0  0  0
 19 43  1  0  0  0  0
 19 44  1  0  0  0  0
 19 45  1  0  0  0  0
 20 46  1  0  0  0  0
 21 47  1  0  0  0  0
 21 48  1  0  0  0  0
 21 49  1  0  0  0  0
M  END
> <PUBCHEM_COMPOUND_CID>
151880864

> <PUBCHEM_COMPOUND_CANONICALIZED>
1

> <PUBCHEM_CACTVS_COMPLEXITY>
335

> <PUBCHEM_CACTVS_HBOND_ACCEPTOR>
3

> <PUBCHEM_CACTVS_HBOND_DONOR>
0

> <PUBCHEM_CACTVS_ROTATABLE_BOND>
5

> <PUBCHEM_CACTVS_SUBSKEYS>
AAADceB7IAAAAAAAAAAAAAAAAAAAAWLAAAAwAAAAAAAAAAABAAAAHgAAAAAADgzBkAYyxoMABACAACRCQACCCAAhIgAIiAAPbIgOJiLE8ZuFMChkwBHY6AeQQAALAAAAAAAAEAAAAAAAAAAgAAAAAAAAAA==

> <PUBCHEM_IUPAC_OPENEYE_NAME>
7-butyl-2-(2-methoxyphenyl)-2,7-diazaspiro[4.4]nonane

> <PUBCHEM_IUPAC_CAS_NAME>
7-butyl-2-(2-methoxyphenyl)-2,7-diazaspiro[4.4]nonane

> <PUBCHEM_IUPAC_NAME_MARKUP>
7-butyl-2-(2-methoxyphenyl)-2,7-diazaspiro[4.4]nonane

> <PUBCHEM_IUPAC_NAME>
7-butyl-2-(2-methoxyphenyl)-2,7-diazaspiro[4.4]nonane

> <PUBCHEM_IUPAC_SYSTEMATIC_NAME>
7-butyl-2-(2-methoxyphenyl)-2,7-diazaspiro[4.4]nonane

> <PUBCHEM_IUPAC_TRADITIONAL_NAME>
7-butyl-2-(2-methoxyphenyl)-2,7-diazaspiro[4.4]nonane

> <PUBCHEM_IUPAC_INCHI>
InChI=1S/C18H28N2O/c1-3-4-11-19-12-9-18(14-19)10-13-20(15-18)16-7-5-6-8-17(16)21-2/h5-8H,3-4,9-15H2,1-2H3

> <PUBCHEM_IUPAC_INCHIKEY>
SORKSMKEQFEIIG-UHFFFAOYSA-N

> <PUBCHEM_XLOGP3_AA>
3.7

> <PUBCHEM_EXACT_MASS>
288.220163521

> <PUBCHEM_MOLECULAR_FORMULA>
C18H28N2O

> <PUBCHEM_MOLECULAR_WEIGHT>
288.4

> <PUBCHEM_OPENEYE_CAN_SMILES>
CCCCN1CCC2(C1)CCN(C2)C3=CC=CC=C3OC

> <PUBCHEM_OPENEYE_ISO_SMILES>
CCCCN1CCC2(C1)CCN(C2)C3=CC=CC=C3OC

> <PUBCHEM_CACTVS_TPSA>
15.7

> <PUBCHEM_MONOISOTOPIC_WEIGHT>
288.220163521

> <PUBCHEM_TOTAL_CHARGE>
0

> <PUBCHEM_HEAVY_ATOM_COUNT>
21

> <PUBCHEM_ATOM_DEF_STEREO_COUNT>
0

> <PUBCHEM_ATOM_UDEF_STEREO_COUNT>
1

> <PUBCHEM_BOND_DEF_STEREO_COUNT>
0

> <PUBCHEM_BOND_UDEF_STEREO_COUNT>
0

> <PUBCHEM_ISOTOPIC_ATOM_COUNT>
0

> <PUBCHEM_COMPONENT_COUNT>
1

> <PUBCHEM_CACTVS_TAUTO_COUNT>
-1

> <PUBCHEM_COORDINATE_TYPE>
1
5
255

> <PUBCHEM_BONDANNOTATIONS>
12  14  8
12  15  8
14  17  8
15  18  8
17  20  8
18  20  8
4  5  3

$$$$
