11539056
  -OEChem-09292322272D

 58 62  0     1  0  0  0  0  0999 V2000
    2.0000   -5.2671    0.0000 F   0  0  0  0  0  0  0  0  0  0  0  0
    7.7659    3.1661    0.0000 O   0  0  0  0  0  0  0  0  0  0  0  0
    9.4980    5.1661    0.0000 O   0  0  0  0  0  0  0  0  0  0  0  0
    6.0406    0.1317    0.0000 N   0  0  0  0  0  0  0  0  0  0  0  0
    6.0175    2.1315    0.0000 N   0  0  0  0  0  0  0  0  0  0  0  0
    7.7659    5.1661    0.0000 N   0  0  0  0  0  0  0  0  0  0  0  0
    2.7724   -3.2383    0.0000 N   0  0  0  0  0  0  0  0  0  0  0  0
    6.9008    0.6416    0.0000 C   0  0  0  0  0  0  0  0  0  0  0  0
    5.1689    0.6216    0.0000 C   0  0  0  0  0  0  0  0  0  0  0  0
    6.8892    1.6416    0.0000 C   0  0  0  0  0  0  0  0  0  0  0  0
    5.1573    1.6215    0.0000 C   0  0  0  0  0  0  0  0  0  0  0  0
    6.0522   -0.8683    0.0000 C   0  0  0  0  0  0  0  0  0  0  0  0
    5.1920   -1.3783    0.0000 C   0  0  0  0  0  0  0  0  0  0  0  0
    6.0059    3.1315    0.0000 C   0  0  0  0  0  0  0  0  0  0  0  0
    5.2036   -2.3782    0.0000 C   0  0  0  0  0  0  0  0  0  0  0  0
    6.8999    3.6661    0.0000 C   0  0  0  0  0  0  0  0  0  0  0  0
    4.3434   -2.8882    0.0000 C   0  0  0  0  0  0  0  0  0  0  0  0
    5.0999    3.6453    0.0000 C   0  0  0  0  0  0  0  0  0  0  0  0
    6.8999    4.6661    0.0000 C   0  0  0  0  0  0  0  0  0  0  0  0
    4.2518   -3.8780    0.0000 C   0  0  0  0  0  0  0  0  0  0  0  0
    8.6319    3.6661    0.0000 C   0  0  2  0  0  0  0  0  0  0  0  0
    3.4310   -2.4936    0.0000 C   0  0  0  0  0  0  0  0  0  0  0  0
    5.0999    4.6869    0.0000 C   0  0  0  0  0  0  0  0  0  0  0  0
    6.0059    5.2008    0.0000 C   0  0  0  0  0  0  0  0  0  0  0  0
    3.2757   -4.0955    0.0000 C   0  0  0  0  0  0  0  0  0  0  0  0
    8.6319    4.6661    0.0000 C   0  0  0  0  0  0  0  0  0  0  0  0
    4.9282   -4.6146    0.0000 C   0  0  0  0  0  0  0  0  0  0  0  0
    9.4980    3.1661    0.0000 C   0  0  0  0  0  0  0  0  0  0  0  0
    2.9761   -5.0496    0.0000 C   0  0  0  0  0  0  0  0  0  0  0  0
    4.6285   -5.5686    0.0000 C   0  0  0  0  0  0  0  0  0  0  0  0
    3.6525   -5.7861    0.0000 C   0  0  0  0  0  0  0  0  0  0  0  0
    7.1196    0.0615    0.0000 H   0  0  0  0  0  0  0  0  0  0  0  0
    7.5101    0.7564    0.0000 H   0  0  0  0  0  0  0  0  0  0  0  0
    4.5571    0.7222    0.0000 H   0  0  0  0  0  0  0  0  0  0  0  0
    4.9636    0.0366    0.0000 H   0  0  0  0  0  0  0  0  0  0  0  0
    7.5010    1.5410    0.0000 H   0  0  0  0  0  0  0  0  0  0  0  0
    7.0946    2.2266    0.0000 H   0  0  0  0  0  0  0  0  0  0  0  0
    4.9385    2.2017    0.0000 H   0  0  0  0  0  0  0  0  0  0  0  0
    4.5480    1.5068    0.0000 H   0  0  0  0  0  0  0  0  0  0  0  0
    6.2710   -1.4484    0.0000 H   0  0  0  0  0  0  0  0  0  0  0  0
    6.6615   -0.7536    0.0000 H   0  0  0  0  0  0  0  0  0  0  0  0
    4.9732   -0.7981    0.0000 H   0  0  0  0  0  0  0  0  0  0  0  0
    4.5827   -1.4930    0.0000 H   0  0  0  0  0  0  0  0  0  0  0  0
    5.4223   -2.9583    0.0000 H   0  0  0  0  0  0  0  0  0  0  0  0
    5.8129   -2.2635    0.0000 H   0  0  0  0  0  0  0  0  0  0  0  0
    4.5641    3.3332    0.0000 H   0  0  0  0  0  0  0  0  0  0  0  0
    8.6319    3.0461    0.0000 H   0  0  0  0  0  0  0  0  0  0  0  0
    3.2961   -1.8884    0.0000 H   0  0  0  0  0  0  0  0  0  0  0  0
    4.5641    4.9990    0.0000 H   0  0  0  0  0  0  0  0  0  0  0  0
    6.0131    5.8207    0.0000 H   0  0  0  0  0  0  0  0  0  0  0  0
    7.7659    5.7861    0.0000 H   0  0  0  0  0  0  0  0  0  0  0  0
    2.1553   -3.1785    0.0000 H   0  0  0  0  0  0  0  0  0  0  0  0
    5.5333   -4.4797    0.0000 H   0  0  0  0  0  0  0  0  0  0  0  0
    9.1880    2.6292    0.0000 H   0  0  0  0  0  0  0  0  0  0  0  0
   10.0349    2.8561    0.0000 H   0  0  0  0  0  0  0  0  0  0  0  0
    9.8080    3.7030    0.0000 H   0  0  0  0  0  0  0  0  0  0  0  0
    5.0479   -6.0252    0.0000 H   0  0  0  0  0  0  0  0  0  0  0  0
    3.4667   -6.3776    0.0000 H   0  0  0  0  0  0  0  0  0  0  0  0
  1 29  1  0  0  0  0
  2 16  1  0  0  0  0
  2 21  1  0  0  0  0
  3 26  2  0  0  0  0
  4  8  1  0  0  0  0
  4  9  1  0  0  0  0
  4 12  1  0  0  0  0
  5 10  1  0  0  0  0
  5 11  1  0  0  0  0
  5 14  1  0  0  0  0
  6 19  1  0  0  0  0
  6 26  1  0  0  0  0
  6 51  1  0  0  0  0
  7 22  1  0  0  0  0
  7 25  1  0  0  0  0
  7 52  1  0  0  0  0
  8 10  1  0  0  0  0
  8 32  1  0  0  0  0
  8 33  1  0  0  0  0
  9 11  1  0  0  0  0
  9 34  1  0  0  0  0
  9 35  1  0  0  0  0
 10 36  1  0  0  0  0
 10 37  1  0  0  0  0
 11 38  1  0  0  0  0
 11 39  1  0  0  0  0
 12 13  1  0  0  0  0
 12 40  1  0  0  0  0
 12 41  1  0  0  0  0
 13 15  1  0  0  0  0
 13 42  1  0  0  0  0
 13 43  1  0  0  0  0
 14 16  1  0  0  0  0
 14 18  2  0  0  0  0
 15 17  1  0  0  0  0
 15 44  1  0  0  0  0
 15 45  1  0  0  0  0
 16 19  2  0  0  0  0
 17 20  1  0  0  0  0
 17 22  2  0  0  0  0
 18 23  1  0  0  0  0
 18 46  1  0  0  0  0
 19 24  1  0  0  0  0
 20 25  2  0  0  0  0
 20 27  1  0  0  0  0
 21 26  1  0  0  0  0
 21 28  1  6  0  0  0
 21 47  1  0  0  0  0
 22 48  1  0  0  0  0
 23 24  2  0  0  0  0
 23 49  1  0  0  0  0
 24 50  1  0  0  0  0
 25 29  1  0  0  0  0
 27 30  2  0  0  0  0
 27 53  1  0  0  0  0
 28 54  1  0  0  0  0
 28 55  1  0  0  0  0
 28 56  1  0  0  0  0
 29 31  2  0  0  0  0
 30 31  1  0  0  0  0
 30 57  1  0  0  0  0
 31 58  1  0  0  0  0
M  END
> <PUBCHEM_COMPOUND_CID>
11539056

> <PUBCHEM_COMPOUND_CANONICALIZED>
1

> <PUBCHEM_CACTVS_COMPLEXITY>
629

> <PUBCHEM_CACTVS_HBOND_ACCEPTOR>
5

> <PUBCHEM_CACTVS_HBOND_DONOR>
2

> <PUBCHEM_CACTVS_ROTATABLE_BOND>
5

> <PUBCHEM_CACTVS_SUBSKEYS>
AAADceB7sQAAAAAAAAAAAAAAAAAAAWAAAAA8eIEAAAAAAFix9AAAHwAQAAAADBzhng4+xvPJlACoAzV3VAKCiCAxIiAI2aFtbJgOZuLE8d+XOCjk1BHY6AeQwMAOgAAAAAQCEAAAAAAACAQgAAAAAAAAAA==

> <PUBCHEM_IUPAC_OPENEYE_NAME>
(2S)-8-[4-[3-(7-fluoro-1H-indol-3-yl)propyl]piperazin-1-yl]-2-methyl-4H-1,4-benzoxazin-3-one

> <PUBCHEM_IUPAC_CAS_NAME>
(2S)-8-[4-[3-(7-fluoro-1H-indol-3-yl)propyl]-1-piperazinyl]-2-methyl-4H-1,4-benzoxazin-3-one

> <PUBCHEM_IUPAC_NAME_MARKUP>
(2<I>S</I>)-8-[4-[3-(7-fluoro-1<I>H</I>-indol-3-yl)propyl]piperazin-1-yl]-2-methyl-4<I>H</I>-1,4-benzoxazin-3-one

> <PUBCHEM_IUPAC_NAME>
(2S)-8-[4-[3-(7-fluoro-1H-indol-3-yl)propyl]piperazin-1-yl]-2-methyl-4H-1,4-benzoxazin-3-one

> <PUBCHEM_IUPAC_SYSTEMATIC_NAME>
(2S)-8-[4-[3-(7-fluoranyl-1H-indol-3-yl)propyl]piperazin-1-yl]-2-methyl-4H-1,4-benzoxazin-3-one

> <PUBCHEM_IUPAC_TRADITIONAL_NAME>
(2S)-8-[4-[3-(7-fluoro-1H-indol-3-yl)propyl]piperazino]-2-methyl-4H-1,4-benzoxazin-3-one

> <PUBCHEM_IUPAC_INCHI>
InChI=1S/C24H27FN4O2/c1-16-24(30)27-20-8-3-9-21(23(20)31-16)29-13-11-28(12-14-29)10-4-5-17-15-26-22-18(17)6-2-7-19(22)25/h2-3,6-9,15-16,26H,4-5,10-14H2,1H3,(H,27,30)/t16-/m0/s1

> <PUBCHEM_IUPAC_INCHIKEY>
LWSDEDAXDVTMTG-INIZCTEOSA-N

> <PUBCHEM_XLOGP3_AA>
3.8

> <PUBCHEM_EXACT_MASS>
422.21180428

> <PUBCHEM_MOLECULAR_FORMULA>
C24H27FN4O2

> <PUBCHEM_MOLECULAR_WEIGHT>
422.5

> <PUBCHEM_OPENEYE_CAN_SMILES>
CC1C(=O)NC2=C(O1)C(=CC=C2)N3CCN(CC3)CCCC4=CNC5=C4C=CC=C5F

> <PUBCHEM_OPENEYE_ISO_SMILES>
C[C@H]1C(=O)NC2=C(O1)C(=CC=C2)N3CCN(CC3)CCCC4=CNC5=C4C=CC=C5F

> <PUBCHEM_CACTVS_TPSA>
60.6

> <PUBCHEM_MONOISOTOPIC_WEIGHT>
422.21180428

> <PUBCHEM_TOTAL_CHARGE>
0

> <PUBCHEM_HEAVY_ATOM_COUNT>
31

> <PUBCHEM_ATOM_DEF_STEREO_COUNT>
1

> <PUBCHEM_ATOM_UDEF_STEREO_COUNT>
0

> <PUBCHEM_BOND_DEF_STEREO_COUNT>
0

> <PUBCHEM_BOND_UDEF_STEREO_COUNT>
0

> <PUBCHEM_ISOTOPIC_ATOM_COUNT>
0

> <PUBCHEM_COMPONENT_COUNT>
1

> <PUBCHEM_CACTVS_TAUTO_COUNT>
-1

> <PUBCHEM_COORDINATE_TYPE>
1
5
255

> <PUBCHEM_BONDANNOTATIONS>
14  16  8
14  18  8
16  19  8
17  20  8
17  22  8
18  23  8
19  24  8
20  25  8
20  27  8
21  28  6
23  24  8
25  29  8
27  30  8
29  31  8
30  31  8
7  22  8
7  25  8

$$$$
