44295990
  -OEChem-09292321582D

 60 64  0     1  0  0  0  0  0999 V2000
    8.1724   -3.5786    0.0000 O   0  0  0  0  0  0  0  0  0  0  0  0
    5.8616    1.1817    0.0000 N   0  0  0  0  0  0  0  0  0  0  0  0
    6.7582   -2.1643    0.0000 N   0  0  0  0  0  0  0  0  0  0  0  0
    5.4133    2.8548    0.0000 C   0  0  0  0  0  0  0  0  0  0  0  0
    5.6721    3.8207    0.0000 C   0  0  0  0  0  0  0  0  0  0  0  0
    4.9355    4.8033    0.0000 C   0  0  0  0  0  0  0  0  0  0  0  0
    4.0406    2.2627    0.0000 C   0  0  0  0  0  0  0  0  0  0  0  0
    6.8122    2.3459    0.0000 C   0  0  0  0  0  0  0  0  0  0  0  0
    3.6986    3.2024    0.0000 C   0  0  0  0  0  0  0  0  0  0  0  0
    7.0711    3.3119    0.0000 C   0  0  0  0  0  0  0  0  0  0  0  0
    5.1545    1.8888    0.0000 C   0  0  0  0  0  0  0  0  0  0  0  0
    3.3834    1.4546    0.0000 C   0  0  0  0  0  0  0  0  0  0  0  0
    7.5373    1.5981    0.0000 C   0  0  0  0  0  0  0  0  0  0  0  0
    2.6757    3.3991    0.0000 C   0  0  0  0  0  0  0  0  0  0  0  0
    8.0729    3.5969    0.0000 C   0  0  0  0  0  0  0  0  0  0  0  0
    5.6028    0.2158    0.0000 C   0  0  0  0  0  0  0  0  0  0  0  0
    2.3563    1.6275    0.0000 C   0  0  0  0  0  0  0  0  0  0  0  0
    8.5455    1.8600    0.0000 C   0  0  0  0  0  0  0  0  0  0  0  0
    2.0000    2.6064    0.0000 C   0  0  0  0  0  0  0  0  0  0  0  0
    8.8151    2.8661    0.0000 C   0  0  0  0  0  0  0  0  0  0  0  0
    6.3099   -0.4913    0.0000 C   0  0  0  0  0  0  0  0  0  0  0  0
    6.0511   -1.4572    0.0000 C   0  0  0  0  0  0  0  0  0  0  0  0
    7.7241   -1.9055    0.0000 C   0  0  0  0  0  0  0  0  0  0  0  0
    6.4993   -3.1303    0.0000 C   0  0  0  0  0  0  0  0  0  0  0  0
    8.4312   -2.6126    0.0000 C   0  0  1  0  0  0  0  0  0  0  0  0
    7.2064   -3.8374    0.0000 C   0  0  1  0  0  0  0  0  0  0  0  0
    9.3971   -2.3538    0.0000 C   0  0  0  0  0  0  0  0  0  0  0  0
    6.9476   -4.8033    0.0000 C   0  0  0  0  0  0  0  0  0  0  0  0
    6.0415    4.3187    0.0000 H   0  0  0  0  0  0  0  0  0  0  0  0
    5.2533    5.3356    0.0000 H   0  0  0  0  0  0  0  0  0  0  0  0
    4.3224    4.8952    0.0000 H   0  0  0  0  0  0  0  0  0  0  0  0
    4.5926    2.1509    0.0000 H   0  0  0  0  0  0  0  0  0  0  0  0
    4.7989    1.3810    0.0000 H   0  0  0  0  0  0  0  0  0  0  0  0
    3.6022    0.8745    0.0000 H   0  0  0  0  0  0  0  0  0  0  0  0
    7.3700    1.0012    0.0000 H   0  0  0  0  0  0  0  0  0  0  0  0
    2.4704    3.9841    0.0000 H   0  0  0  0  0  0  0  0  0  0  0  0
    8.2264    4.1976    0.0000 H   0  0  0  0  0  0  0  0  0  0  0  0
    6.4605    1.3422    0.0000 H   0  0  0  0  0  0  0  0  0  0  0  0
    5.0409    0.4778    0.0000 H   0  0  0  0  0  0  0  0  0  0  0  0
    5.2472   -0.2921    0.0000 H   0  0  0  0  0  0  0  0  0  0  0  0
    1.9596    1.1511    0.0000 H   0  0  0  0  0  0  0  0  0  0  0  0
    8.9822    1.4199    0.0000 H   0  0  0  0  0  0  0  0  0  0  0  0
    1.3898    2.7164    0.0000 H   0  0  0  0  0  0  0  0  0  0  0  0
    9.4134    3.0289    0.0000 H   0  0  0  0  0  0  0  0  0  0  0  0
    6.8718   -0.7533    0.0000 H   0  0  0  0  0  0  0  0  0  0  0  0
    6.6655    0.0166    0.0000 H   0  0  0  0  0  0  0  0  0  0  0  0
    5.4892   -1.1952    0.0000 H   0  0  0  0  0  0  0  0  0  0  0  0
    5.6954   -1.9651    0.0000 H   0  0  0  0  0  0  0  0  0  0  0  0
    8.2320   -1.5499    0.0000 H   0  0  0  0  0  0  0  0  0  0  0  0
    7.4621   -1.3436    0.0000 H   0  0  0  0  0  0  0  0  0  0  0  0
    5.9374   -2.8682    0.0000 H   0  0  0  0  0  0  0  0  0  0  0  0
    6.1437   -3.6381    0.0000 H   0  0  0  0  0  0  0  0  0  0  0  0
    8.8696   -3.0510    0.0000 H   0  0  0  0  0  0  0  0  0  0  0  0
    7.6449   -4.2758    0.0000 H   0  0  0  0  0  0  0  0  0  0  0  0
    9.5576   -2.9527    0.0000 H   0  0  0  0  0  0  0  0  0  0  0  0
    9.9960   -2.1933    0.0000 H   0  0  0  0  0  0  0  0  0  0  0  0
    9.2366   -1.7549    0.0000 H   0  0  0  0  0  0  0  0  0  0  0  0
    6.3488   -4.6428    0.0000 H   0  0  0  0  0  0  0  0  0  0  0  0
    6.7872   -5.4022    0.0000 H   0  0  0  0  0  0  0  0  0  0  0  0
    7.5465   -4.9638    0.0000 H   0  0  0  0  0  0  0  0  0  0  0  0
  1 25  1  0  0  0  0
  1 26  1  0  0  0  0
  2 11  1  0  0  0  0
  2 16  1  0  0  0  0
  2 38  1  0  0  0  0
  3 22  1  0  0  0  0
  3 23  1  0  0  0  0
  3 24  1  0  0  0  0
  4  6  1  0  0  0  0
  4  7  1  0  0  0  0
  4  8  1  0  0  0  0
  4 11  1  0  0  0  0
  5  6  1  0  0  0  0
  5  9  1  0  0  0  0
  5 10  1  0  0  0  0
  5 29  1  0  0  0  0
  6 30  1  0  0  0  0
  6 31  1  0  0  0  0
  7  9  1  0  0  0  0
  7 12  2  0  0  0  0
  8 10  1  0  0  0  0
  8 13  2  0  0  0  0
  9 14  2  0  0  0  0
 10 15  2  0  0  0  0
 11 32  1  0  0  0  0
 11 33  1  0  0  0  0
 12 17  1  0  0  0  0
 12 34  1  0  0  0  0
 13 18  1  0  0  0  0
 13 35  1  0  0  0  0
 14 19  1  0  0  0  0
 14 36  1  0  0  0  0
 15 20  1  0  0  0  0
 15 37  1  0  0  0  0
 16 21  1  0  0  0  0
 16 39  1  0  0  0  0
 16 40  1  0  0  0  0
 17 19  2  0  0  0  0
 17 41  1  0  0  0  0
 18 20  2  0  0  0  0
 18 42  1  0  0  0  0
 19 43  1  0  0  0  0
 20 44  1  0  0  0  0
 21 22  1  0  0  0  0
 21 45  1  0  0  0  0
 21 46  1  0  0  0  0
 22 47  1  0  0  0  0
 22 48  1  0  0  0  0
 23 25  1  0  0  0  0
 23 49  1  0  0  0  0
 23 50  1  0  0  0  0
 24 26  1  0  0  0  0
 24 51  1  0  0  0  0
 24 52  1  0  0  0  0
 25 27  1  1  0  0  0
 25 53  1  0  0  0  0
 26 28  1  6  0  0  0
 26 54  1  0  0  0  0
 27 55  1  0  0  0  0
 27 56  1  0  0  0  0
 27 57  1  0  0  0  0
 28 58  1  0  0  0  0
 28 59  1  0  0  0  0
 28 60  1  0  0  0  0
M  END
> <PUBCHEM_COMPOUND_CID>
44295990

> <PUBCHEM_COMPOUND_CANONICALIZED>
1

> <PUBCHEM_CACTVS_COMPLEXITY>
503

> <PUBCHEM_CACTVS_HBOND_ACCEPTOR>
3

> <PUBCHEM_CACTVS_HBOND_DONOR>
1

> <PUBCHEM_CACTVS_ROTATABLE_BOND>
6

> <PUBCHEM_CACTVS_SUBSKEYS>
AAADcfB7IAAAAAAAAAAAAAAAAAAAAYMAAAA8YMEAAAAAAGABQAAAHgAQAAAADxThmAYyAIPABACAAiBCAAACAAAgAAAIiIAIAIgKICKA0RGHIAAgkACYiAcQgMAPgAAAAAAQAACAAAQAACAAAQAACAAAAA==

> <PUBCHEM_IUPAC_OPENEYE_NAME>
3-[(2R,6R)-2,6-dimethylmorpholin-4-yl]-N-(1-tetracyclo[6.6.1.02,7.09,14]pentadeca-2,4,6,9,11,13-hexaenylmethyl)propan-1-amine

> <PUBCHEM_IUPAC_CAS_NAME>
3-[(2R,6R)-2,6-dimethyl-4-morpholinyl]-N-(1-tetracyclo[6.6.1.02,7.09,14]pentadeca-2,4,6,9,11,13-hexaenylmethyl)-1-propanamine

> <PUBCHEM_IUPAC_NAME_MARKUP>
3-[(2<I>R</I>,6<I>R</I>)-2,6-dimethylmorpholin-4-yl]-<I>N</I>-(1-tetracyclo[6.6.1.0<SUP>2,7</SUP>.0<SUP>9,14</SUP>]pentadeca-2,4,6,9,11,13-hexaenylmethyl)propan-1-amine

> <PUBCHEM_IUPAC_NAME>
3-[(2R,6R)-2,6-dimethylmorpholin-4-yl]-N-(1-tetracyclo[6.6.1.02,7.09,14]pentadeca-2,4,6,9,11,13-hexaenylmethyl)propan-1-amine

> <PUBCHEM_IUPAC_SYSTEMATIC_NAME>
3-[(2R,6R)-2,6-dimethylmorpholin-4-yl]-N-(1-tetracyclo[6.6.1.02,7.09,14]pentadeca-2,4,6,9,11,13-hexaenylmethyl)propan-1-amine

> <PUBCHEM_IUPAC_TRADITIONAL_NAME>
3-[(2R,6R)-2,6-dimethylmorpholino]propyl-(1-tetracyclo[6.6.1.02,7.09,14]pentadeca-2,4,6,9,11,13-hexaenylmethyl)amine

> <PUBCHEM_IUPAC_INCHI>
InChI=1S/C25H32N2O/c1-18-15-27(16-19(2)28-18)13-7-12-26-17-25-14-22(20-8-3-5-10-23(20)25)21-9-4-6-11-24(21)25/h3-6,8-11,18-19,22,26H,7,12-17H2,1-2H3/t18-,19-,22?,25?/m1/s1

> <PUBCHEM_IUPAC_INCHIKEY>
WLLIDLPIBFAPOF-MOIPCJMDSA-N

> <PUBCHEM_XLOGP3_AA>
4

> <PUBCHEM_EXACT_MASS>
376.251463648

> <PUBCHEM_MOLECULAR_FORMULA>
C25H32N2O

> <PUBCHEM_MOLECULAR_WEIGHT>
376.5

> <PUBCHEM_OPENEYE_CAN_SMILES>
CC1CN(CC(O1)C)CCCNCC23CC(C4=CC=CC=C42)C5=CC=CC=C35

> <PUBCHEM_OPENEYE_ISO_SMILES>
C[C@@H]1CN(C[C@H](O1)C)CCCNCC23CC(C4=CC=CC=C42)C5=CC=CC=C35

> <PUBCHEM_CACTVS_TPSA>
24.5

> <PUBCHEM_MONOISOTOPIC_WEIGHT>
376.251463648

> <PUBCHEM_TOTAL_CHARGE>
0

> <PUBCHEM_HEAVY_ATOM_COUNT>
28

> <PUBCHEM_ATOM_DEF_STEREO_COUNT>
2

> <PUBCHEM_ATOM_UDEF_STEREO_COUNT>
0

> <PUBCHEM_BOND_DEF_STEREO_COUNT>
0

> <PUBCHEM_BOND_UDEF_STEREO_COUNT>
0

> <PUBCHEM_ISOTOPIC_ATOM_COUNT>
0

> <PUBCHEM_COMPONENT_COUNT>
1

> <PUBCHEM_CACTVS_TAUTO_COUNT>
-1

> <PUBCHEM_COORDINATE_TYPE>
1
5
255

> <PUBCHEM_BONDANNOTATIONS>
10  15  8
12  17  8
13  18  8
14  19  8
15  20  8
17  19  8
18  20  8
25  27  5
26  28  6
7  12  8
7  9  8
8  10  8
8  13  8
9  14  8

$$$$
