155542998
  -OEChem-09292322092D

 57 61  0     0  0  0  0  0  0999 V2000
    6.5443   -1.8047    0.0000 S   0  0  0  0  0  0  0  0  0  0  0  0
    3.0000    5.0000    0.0000 F   0  0  0  0  0  0  0  0  0  0  0  0
    2.0000    4.0000    0.0000 F   0  0  0  0  0  0  0  0  0  0  0  0
    4.0000    4.0000    0.0000 F   0  0  0  0  0  0  0  0  0  0  0  0
    3.0000   -5.0000    0.0000 O   0  0  0  0  0  0  0  0  0  0  0  0
    3.0000   -3.0000    0.0000 N   0  0  0  0  0  0  0  0  0  0  0  0
    4.7320   -2.0000    0.0000 N   0  0  0  0  0  0  0  0  0  0  0  0
    3.8660   -0.5000    0.0000 N   0  0  0  0  0  0  0  0  0  0  0  0
    4.7320    1.0000    0.0000 N   0  0  0  0  0  0  0  0  0  0  0  0
    3.8660   -3.5000    0.0000 C   0  0  0  0  0  0  0  0  0  0  0  0
    2.1340   -3.5000    0.0000 C   0  0  0  0  0  0  0  0  0  0  0  0
    3.0000   -2.0000    0.0000 C   0  0  0  0  0  0  0  0  0  0  0  0
    3.8660   -4.5000    0.0000 C   0  0  0  0  0  0  0  0  0  0  0  0
    2.1340   -4.5000    0.0000 C   0  0  0  0  0  0  0  0  0  0  0  0
    3.8660   -1.5000    0.0000 C   0  0  0  0  0  0  0  0  0  0  0  0
    5.5981   -0.5000    0.0000 C   0  0  0  0  0  0  0  0  0  0  0  0
    5.5981   -1.5000    0.0000 C   0  0  0  0  0  0  0  0  0  0  0  0
    4.7320    0.0000    0.0000 C   0  0  0  0  0  0  0  0  0  0  0  0
    7.1279   -1.0000    0.0000 C   0  0  0  0  0  0  0  0  0  0  0  0
    6.5443   -0.1953    0.0000 C   0  0  0  0  0  0  0  0  0  0  0  0
    8.1279   -1.0000    0.0000 C   0  0  0  0  0  0  0  0  0  0  0  0
    8.6279   -1.8660    0.0000 C   0  0  0  0  0  0  0  0  0  0  0  0
    3.8660    1.5000    0.0000 C   0  0  0  0  0  0  0  0  0  0  0  0
    3.8660    2.5000    0.0000 C   0  0  0  0  0  0  0  0  0  0  0  0
    8.1279   -2.7320    0.0000 C   0  0  0  0  0  0  0  0  0  0  0  0
    9.6279   -1.8660    0.0000 C   0  0  0  0  0  0  0  0  0  0  0  0
    3.0000    1.0000    0.0000 C   0  0  0  0  0  0  0  0  0  0  0  0
    3.0000    3.0000    0.0000 C   0  0  0  0  0  0  0  0  0  0  0  0
    2.1340    1.5000    0.0000 C   0  0  0  0  0  0  0  0  0  0  0  0
    2.1340    2.5000    0.0000 C   0  0  0  0  0  0  0  0  0  0  0  0
    8.6279   -3.5981    0.0000 C   0  0  0  0  0  0  0  0  0  0  0  0
   10.1279   -2.7320    0.0000 C   0  0  0  0  0  0  0  0  0  0  0  0
    9.6279   -3.5981    0.0000 C   0  0  0  0  0  0  0  0  0  0  0  0
    3.0000    4.0000    0.0000 C   0  0  0  0  0  0  0  0  0  0  0  0
    4.4766   -3.6077    0.0000 H   0  0  0  0  0  0  0  0  0  0  0  0
    4.0781   -2.9174    0.0000 H   0  0  0  0  0  0  0  0  0  0  0  0
    1.9219   -2.9174    0.0000 H   0  0  0  0  0  0  0  0  0  0  0  0
    1.5234   -3.6077    0.0000 H   0  0  0  0  0  0  0  0  0  0  0  0
    2.7880   -1.4174    0.0000 H   0  0  0  0  0  0  0  0  0  0  0  0
    2.3894   -2.1077    0.0000 H   0  0  0  0  0  0  0  0  0  0  0  0
    4.0781   -5.0826    0.0000 H   0  0  0  0  0  0  0  0  0  0  0  0
    4.4766   -4.3923    0.0000 H   0  0  0  0  0  0  0  0  0  0  0  0
    1.5234   -4.3923    0.0000 H   0  0  0  0  0  0  0  0  0  0  0  0
    1.9219   -5.0826    0.0000 H   0  0  0  0  0  0  0  0  0  0  0  0
    6.7369    0.3941    0.0000 H   0  0  0  0  0  0  0  0  0  0  0  0
    8.7105   -0.7879    0.0000 H   0  0  0  0  0  0  0  0  0  0  0  0
    8.0202   -0.3894    0.0000 H   0  0  0  0  0  0  0  0  0  0  0  0
    5.2690    1.3100    0.0000 H   0  0  0  0  0  0  0  0  0  0  0  0
    4.4030    2.8100    0.0000 H   0  0  0  0  0  0  0  0  0  0  0  0
    7.5079   -2.7320    0.0000 H   0  0  0  0  0  0  0  0  0  0  0  0
    9.9379   -1.3291    0.0000 H   0  0  0  0  0  0  0  0  0  0  0  0
    3.0000    0.3800    0.0000 H   0  0  0  0  0  0  0  0  0  0  0  0
    1.5970    1.1900    0.0000 H   0  0  0  0  0  0  0  0  0  0  0  0
    1.5970    2.8100    0.0000 H   0  0  0  0  0  0  0  0  0  0  0  0
    8.3179   -4.1350    0.0000 H   0  0  0  0  0  0  0  0  0  0  0  0
   10.7479   -2.7320    0.0000 H   0  0  0  0  0  0  0  0  0  0  0  0
    9.9379   -4.1350    0.0000 H   0  0  0  0  0  0  0  0  0  0  0  0
  1 17  1  0  0  0  0
  1 19  1  0  0  0  0
  2 34  1  0  0  0  0
  3 34  1  0  0  0  0
  4 34  1  0  0  0  0
  5 13  1  0  0  0  0
  5 14  1  0  0  0  0
  6 10  1  0  0  0  0
  6 11  1  0  0  0  0
  6 12  1  0  0  0  0
  7 15  1  0  0  0  0
  7 17  2  0  0  0  0
  8 15  2  0  0  0  0
  8 18  1  0  0  0  0
  9 18  1  0  0  0  0
  9 23  1  0  0  0  0
  9 48  1  0  0  0  0
 10 13  1  0  0  0  0
 10 35  1  0  0  0  0
 10 36  1  0  0  0  0
 11 14  1  0  0  0  0
 11 37  1  0  0  0  0
 11 38  1  0  0  0  0
 12 15  1  0  0  0  0
 12 39  1  0  0  0  0
 12 40  1  0  0  0  0
 13 41  1  0  0  0  0
 13 42  1  0  0  0  0
 14 43  1  0  0  0  0
 14 44  1  0  0  0  0
 16 17  1  0  0  0  0
 16 18  2  0  0  0  0
 16 20  1  0  0  0  0
 19 20  2  0  0  0  0
 19 21  1  0  0  0  0
 20 45  1  0  0  0  0
 21 22  1  0  0  0  0
 21 46  1  0  0  0  0
 21 47  1  0  0  0  0
 22 25  2  0  0  0  0
 22 26  1  0  0  0  0
 23 24  1  0  0  0  0
 23 27  2  0  0  0  0
 24 28  2  0  0  0  0
 24 49  1  0  0  0  0
 25 31  1  0  0  0  0
 25 50  1  0  0  0  0
 26 32  2  0  0  0  0
 26 51  1  0  0  0  0
 27 29  1  0  0  0  0
 27 52  1  0  0  0  0
 28 30  1  0  0  0  0
 28 34  1  0  0  0  0
 29 30  2  0  0  0  0
 29 53  1  0  0  0  0
 30 54  1  0  0  0  0
 31 33  2  0  0  0  0
 31 55  1  0  0  0  0
 32 33  1  0  0  0  0
 32 56  1  0  0  0  0
 33 57  1  0  0  0  0
M  END
> <PUBCHEM_COMPOUND_CID>
155542998

> <PUBCHEM_COMPOUND_CANONICALIZED>
1

> <PUBCHEM_CACTVS_COMPLEXITY>
644

> <PUBCHEM_CACTVS_HBOND_ACCEPTOR>
9

> <PUBCHEM_CACTVS_HBOND_DONOR>
1

> <PUBCHEM_CACTVS_ROTATABLE_BOND>
6

> <PUBCHEM_CACTVS_SUBSKEYS>
AAADceB7oYBAAAAAAAAAAAAAAAAAASAAAAA8eIEAAAAAAFgB/AAAHwQQAAAADAjh2xYx8dfIFAikAiZiZACD0KlhCrhJmDg4ZJiKaOLg2dGXJAxokAL4yCcQgMAOAAAAQAAAAAAAAACAAAAAAAAAAAAAAA==

> <PUBCHEM_IUPAC_OPENEYE_NAME>
6-benzyl-2-(morpholinomethyl)-N-[3-(trifluoromethyl)phenyl]thieno[2,3-d]pyrimidin-4-amine

> <PUBCHEM_IUPAC_CAS_NAME>
2-(4-morpholinylmethyl)-6-(phenylmethyl)-N-[3-(trifluoromethyl)phenyl]-4-thieno[2,3-d]pyrimidinamine

> <PUBCHEM_IUPAC_NAME_MARKUP>
6-benzyl-2-(morpholin-4-ylmethyl)-<I>N</I>-[3-(trifluoromethyl)phenyl]thieno[2,3-d]pyrimidin-4-amine

> <PUBCHEM_IUPAC_NAME>
6-benzyl-2-(morpholin-4-ylmethyl)-N-[3-(trifluoromethyl)phenyl]thieno[2,3-d]pyrimidin-4-amine

> <PUBCHEM_IUPAC_SYSTEMATIC_NAME>
2-(morpholin-4-ylmethyl)-6-(phenylmethyl)-N-[3-(trifluoromethyl)phenyl]thieno[2,3-d]pyrimidin-4-amine

> <PUBCHEM_IUPAC_TRADITIONAL_NAME>
[6-benzyl-2-(morpholinomethyl)thieno[2,3-d]pyrimidin-4-yl]-[3-(trifluoromethyl)phenyl]amine

> <PUBCHEM_IUPAC_INCHI>
InChI=1S/C25H23F3N4OS/c26-25(27,28)18-7-4-8-19(14-18)29-23-21-15-20(13-17-5-2-1-3-6-17)34-24(21)31-22(30-23)16-32-9-11-33-12-10-32/h1-8,14-15H,9-13,16H2,(H,29,30,31)

> <PUBCHEM_IUPAC_INCHIKEY>
KHRVKYSVCFCMLZ-UHFFFAOYSA-N

> <PUBCHEM_XLOGP3_AA>
5.8

> <PUBCHEM_EXACT_MASS>
484.15446703

> <PUBCHEM_MOLECULAR_FORMULA>
C25H23F3N4OS

> <PUBCHEM_MOLECULAR_WEIGHT>
484.5

> <PUBCHEM_OPENEYE_CAN_SMILES>
C1COCCN1CC2=NC(=C3C=C(SC3=N2)CC4=CC=CC=C4)NC5=CC=CC(=C5)C(F)(F)F

> <PUBCHEM_OPENEYE_ISO_SMILES>
C1COCCN1CC2=NC(=C3C=C(SC3=N2)CC4=CC=CC=C4)NC5=CC=CC(=C5)C(F)(F)F

> <PUBCHEM_CACTVS_TPSA>
78.5

> <PUBCHEM_MONOISOTOPIC_WEIGHT>
484.15446703

> <PUBCHEM_TOTAL_CHARGE>
0

> <PUBCHEM_HEAVY_ATOM_COUNT>
34

> <PUBCHEM_ATOM_DEF_STEREO_COUNT>
0

> <PUBCHEM_ATOM_UDEF_STEREO_COUNT>
0

> <PUBCHEM_BOND_DEF_STEREO_COUNT>
0

> <PUBCHEM_BOND_UDEF_STEREO_COUNT>
0

> <PUBCHEM_ISOTOPIC_ATOM_COUNT>
0

> <PUBCHEM_COMPONENT_COUNT>
1

> <PUBCHEM_CACTVS_TAUTO_COUNT>
-1

> <PUBCHEM_COORDINATE_TYPE>
1
5
255

> <PUBCHEM_BONDANNOTATIONS>
1  17  8
1  19  8
16  17  8
16  18  8
16  20  8
19  20  8
22  25  8
22  26  8
23  24  8
23  27  8
24  28  8
25  31  8
26  32  8
27  29  8
28  30  8
29  30  8
31  33  8
32  33  8
7  15  8
7  17  8
8  15  8
8  18  8

$$$$
