164620912
  -OEChem-09292322432D

 49 52  0     1  0  0  0  0  0999 V2000
    2.0000   -1.0755    0.0000 F   0  0  0  0  0  0  0  0  0  0  0  0
    5.8550    1.6797    0.0000 O   0  0  0  0  0  0  0  0  0  0  0  0
    8.6279   -0.9416    0.0000 N   0  0  0  0  0  0  0  0  0  0  0  0
   10.6279   -0.9416    0.0000 N   0  0  0  0  0  0  0  0  0  0  0  0
   12.1279   -1.8076    0.0000 N   0  0  0  0  0  0  0  0  0  0  0  0
    6.1279   -0.0755    0.0000 C   0  0  3  0  0  0  0  0  0  0  0  0
    7.1279   -0.0755    0.0000 C   0  0  0  0  0  0  0  0  0  0  0  0
    5.5443    0.7292    0.0000 C   0  0  3  0  0  0  0  0  0  0  0  0
    5.5443   -0.8803    0.0000 C   0  0  0  0  0  0  0  0  0  0  0  0
    7.6279   -0.9416    0.0000 C   0  0  0  0  0  0  0  0  0  0  0  0
    4.5981    0.4245    0.0000 C   0  0  0  0  0  0  0  0  0  0  0  0
    4.5981   -0.5755    0.0000 C   0  0  0  0  0  0  0  0  0  0  0  0
    9.1279   -0.0755    0.0000 C   0  0  0  0  0  0  0  0  0  0  0  0
    9.1279   -1.8076    0.0000 C   0  0  0  0  0  0  0  0  0  0  0  0
   10.1279   -0.0755    0.0000 C   0  0  0  0  0  0  0  0  0  0  0  0
   10.1279   -1.8076    0.0000 C   0  0  0  0  0  0  0  0  0  0  0  0
    3.7320    0.9245    0.0000 C   0  0  0  0  0  0  0  0  0  0  0  0
    3.7320   -1.0755    0.0000 C   0  0  0  0  0  0  0  0  0  0  0  0
    2.8660    0.4245    0.0000 C   0  0  0  0  0  0  0  0  0  0  0  0
    2.8660   -0.5755    0.0000 C   0  0  0  0  0  0  0  0  0  0  0  0
   11.6279   -0.9416    0.0000 C   0  0  0  0  0  0  0  0  0  0  0  0
   12.1279   -0.0755    0.0000 C   0  0  0  0  0  0  0  0  0  0  0  0
   13.1279   -0.0755    0.0000 C   0  0  0  0  0  0  0  0  0  0  0  0
   13.1279   -1.8076    0.0000 C   0  0  0  0  0  0  0  0  0  0  0  0
   13.6279   -0.9416    0.0000 C   0  0  0  0  0  0  0  0  0  0  0  0
    6.4096   -0.6278    0.0000 H   0  0  0  0  0  0  0  0  0  0  0  0
    7.7105    0.1365    0.0000 H   0  0  0  0  0  0  0  0  0  0  0  0
    7.0202    0.5351    0.0000 H   0  0  0  0  0  0  0  0  0  0  0  0
    5.1068    1.1686    0.0000 H   0  0  0  0  0  0  0  0  0  0  0  0
    5.2933   -1.4472    0.0000 H   0  0  0  0  0  0  0  0  0  0  0  0
    6.0817   -1.1895    0.0000 H   0  0  0  0  0  0  0  0  0  0  0  0
    7.0453   -1.1536    0.0000 H   0  0  0  0  0  0  0  0  0  0  0  0
    7.7356   -1.5521    0.0000 H   0  0  0  0  0  0  0  0  0  0  0  0
    9.2356    0.5351    0.0000 H   0  0  0  0  0  0  0  0  0  0  0  0
    8.5453    0.1365    0.0000 H   0  0  0  0  0  0  0  0  0  0  0  0
    8.5453   -2.0196    0.0000 H   0  0  0  0  0  0  0  0  0  0  0  0
    9.2356   -2.4182    0.0000 H   0  0  0  0  0  0  0  0  0  0  0  0
   10.7105    0.1365    0.0000 H   0  0  0  0  0  0  0  0  0  0  0  0
   10.0202    0.5351    0.0000 H   0  0  0  0  0  0  0  0  0  0  0  0
   10.0202   -2.4182    0.0000 H   0  0  0  0  0  0  0  0  0  0  0  0
   10.7105   -2.0196    0.0000 H   0  0  0  0  0  0  0  0  0  0  0  0
    3.7320    1.5445    0.0000 H   0  0  0  0  0  0  0  0  0  0  0  0
    3.7320   -1.6955    0.0000 H   0  0  0  0  0  0  0  0  0  0  0  0
    6.4616    1.8076    0.0000 H   0  0  0  0  0  0  0  0  0  0  0  0
    2.3291    0.7345    0.0000 H   0  0  0  0  0  0  0  0  0  0  0  0
   11.8179    0.4614    0.0000 H   0  0  0  0  0  0  0  0  0  0  0  0
   13.4379    0.4614    0.0000 H   0  0  0  0  0  0  0  0  0  0  0  0
   13.4379   -2.3445    0.0000 H   0  0  0  0  0  0  0  0  0  0  0  0
   14.2479   -0.9416    0.0000 H   0  0  0  0  0  0  0  0  0  0  0  0
  1 20  1  0  0  0  0
  2  8  1  0  0  0  0
  2 44  1  0  0  0  0
  3 10  1  0  0  0  0
  3 13  1  0  0  0  0
  3 14  1  0  0  0  0
  4 15  1  0  0  0  0
  4 16  1  0  0  0  0
  4 21  1  0  0  0  0
  5 21  1  0  0  0  0
  5 24  2  0  0  0  0
  6  7  1  0  0  0  0
  6  8  1  0  0  0  0
  6  9  1  0  0  0  0
  6 26  1  0  0  0  0
  7 10  1  0  0  0  0
  7 27  1  0  0  0  0
  7 28  1  0  0  0  0
  8 11  1  0  0  0  0
  8 29  1  0  0  0  0
  9 12  1  0  0  0  0
  9 30  1  0  0  0  0
  9 31  1  0  0  0  0
 10 32  1  0  0  0  0
 10 33  1  0  0  0  0
 11 12  2  0  0  0  0
 11 17  1  0  0  0  0
 12 18  1  0  0  0  0
 13 15  1  0  0  0  0
 13 34  1  0  0  0  0
 13 35  1  0  0  0  0
 14 16  1  0  0  0  0
 14 36  1  0  0  0  0
 14 37  1  0  0  0  0
 15 38  1  0  0  0  0
 15 39  1  0  0  0  0
 16 40  1  0  0  0  0
 16 41  1  0  0  0  0
 17 19  2  0  0  0  0
 17 42  1  0  0  0  0
 18 20  2  0  0  0  0
 18 43  1  0  0  0  0
 19 20  1  0  0  0  0
 19 45  1  0  0  0  0
 21 22  2  0  0  0  0
 22 23  1  0  0  0  0
 22 46  1  0  0  0  0
 23 25  2  0  0  0  0
 23 47  1  0  0  0  0
 24 25  1  0  0  0  0
 24 48  1  0  0  0  0
 25 49  1  0  0  0  0
M  END
> <PUBCHEM_COMPOUND_CID>
164620912

> <PUBCHEM_COMPOUND_CANONICALIZED>
1

> <PUBCHEM_CACTVS_COMPLEXITY>
429

> <PUBCHEM_CACTVS_HBOND_ACCEPTOR>
5

> <PUBCHEM_CACTVS_HBOND_DONOR>
1

> <PUBCHEM_CACTVS_ROTATABLE_BOND>
4

> <PUBCHEM_CACTVS_SUBSKEYS>
AAADceB7IQAAAAAAAAAAAAAAAAAAAYAAAAA8WIAAAAAAAGABwAAAHwAACAAADRThmg49sJMIEgCgAjJnZACCgCkxAiAJ2CA4bJiIduLAmZGUcAhswAPI2CewwOAOgAAAAAAQAAAAAAAAACAAAYAADAAAAA==

> <PUBCHEM_IUPAC_OPENEYE_NAME>
5-fluoro-2-[2-[4-(2-pyridyl)piperazin-1-yl]ethyl]indan-1-ol

> <PUBCHEM_IUPAC_CAS_NAME>
5-fluoro-2-[2-[4-(2-pyridinyl)-1-piperazinyl]ethyl]-2,3-dihydro-1H-inden-1-ol

> <PUBCHEM_IUPAC_NAME_MARKUP>
5-fluoro-2-[2-(4-pyridin-2-ylpiperazin-1-yl)ethyl]-2,3-dihydro-1<I>H</I>-inden-1-ol

> <PUBCHEM_IUPAC_NAME>
5-fluoro-2-[2-(4-pyridin-2-ylpiperazin-1-yl)ethyl]-2,3-dihydro-1H-inden-1-ol

> <PUBCHEM_IUPAC_SYSTEMATIC_NAME>
5-fluoranyl-2-[2-(4-pyridin-2-ylpiperazin-1-yl)ethyl]-2,3-dihydro-1H-inden-1-ol

> <PUBCHEM_IUPAC_TRADITIONAL_NAME>
5-fluoro-2-[2-[4-(2-pyridyl)piperazino]ethyl]indan-1-ol

> <PUBCHEM_IUPAC_INCHI>
InChI=1S/C20H24FN3O/c21-17-4-5-18-16(14-17)13-15(20(18)25)6-8-23-9-11-24(12-10-23)19-3-1-2-7-22-19/h1-5,7,14-15,20,25H,6,8-13H2

> <PUBCHEM_IUPAC_INCHIKEY>
RUOVJGSFCGUFDC-UHFFFAOYSA-N

> <PUBCHEM_XLOGP3_AA>
2.7

> <PUBCHEM_EXACT_MASS>
341.19034056

> <PUBCHEM_MOLECULAR_FORMULA>
C20H24FN3O

> <PUBCHEM_MOLECULAR_WEIGHT>
341.4

> <PUBCHEM_OPENEYE_CAN_SMILES>
C1CN(CCN1CCC2CC3=C(C2O)C=CC(=C3)F)C4=CC=CC=N4

> <PUBCHEM_OPENEYE_ISO_SMILES>
C1CN(CCN1CCC2CC3=C(C2O)C=CC(=C3)F)C4=CC=CC=N4

> <PUBCHEM_CACTVS_TPSA>
39.6

> <PUBCHEM_MONOISOTOPIC_WEIGHT>
341.19034056

> <PUBCHEM_TOTAL_CHARGE>
0

> <PUBCHEM_HEAVY_ATOM_COUNT>
25

> <PUBCHEM_ATOM_DEF_STEREO_COUNT>
0

> <PUBCHEM_ATOM_UDEF_STEREO_COUNT>
2

> <PUBCHEM_BOND_DEF_STEREO_COUNT>
0

> <PUBCHEM_BOND_UDEF_STEREO_COUNT>
0

> <PUBCHEM_ISOTOPIC_ATOM_COUNT>
0

> <PUBCHEM_COMPONENT_COUNT>
1

> <PUBCHEM_CACTVS_TAUTO_COUNT>
-1

> <PUBCHEM_COORDINATE_TYPE>
1
5
255

> <PUBCHEM_BONDANNOTATIONS>
11  12  8
11  17  8
12  18  8
17  19  8
18  20  8
19  20  8
8  2  3
21  22  8
22  23  8
23  25  8
24  25  8
5  21  8
5  24  8
6  7  3

$$$$
