44439402
  -OEChem-09292322492D

 42 45  0     1  0  0  0  0  0999 V2000
   11.1191    0.9879    0.0000 O   0  0  0  0  0  0  0  0  0  0  0  0
    5.5321    0.2327    0.0000 N   0  0  0  0  0  0  0  0  0  0  0  0
    7.2641    0.2327    0.0000 N   0  0  0  0  0  0  0  0  0  0  0  0
   10.8084    0.0374    0.0000 C   0  0  3  0  0  0  0  0  0  0  0  0
   11.3920   -0.7673    0.0000 C   0  0  0  0  0  0  0  0  0  0  0  0
   10.8084   -1.5721    0.0000 C   0  0  0  0  0  0  0  0  0  0  0  0
    9.8622   -0.2673    0.0000 C   0  0  0  0  0  0  0  0  0  0  0  0
    9.8622   -1.2673    0.0000 C   0  0  0  0  0  0  0  0  0  0  0  0
    5.5321    1.2327    0.0000 C   0  0  0  0  0  0  0  0  0  0  0  0
    4.6660    1.7327    0.0000 C   0  0  0  0  0  0  0  0  0  0  0  0
    4.6660   -0.2673    0.0000 C   0  0  0  0  0  0  0  0  0  0  0  0
    3.8000    1.2327    0.0000 C   0  0  0  0  0  0  0  0  0  0  0  0
    3.8000    0.2327    0.0000 C   0  0  0  0  0  0  0  0  0  0  0  0
    8.9962    0.2327    0.0000 C   0  0  0  0  0  0  0  0  0  0  0  0
    8.9962   -1.7673    0.0000 C   0  0  0  0  0  0  0  0  0  0  0  0
    8.1301   -0.2673    0.0000 C   0  0  0  0  0  0  0  0  0  0  0  0
    8.1301   -1.2673    0.0000 C   0  0  0  0  0  0  0  0  0  0  0  0
    6.3981   -0.2673    0.0000 C   0  0  0  0  0  0  0  0  0  0  0  0
    2.9061    1.7673    0.0000 C   0  0  0  0  0  0  0  0  0  0  0  0
    2.9061   -0.3020    0.0000 C   0  0  0  0  0  0  0  0  0  0  0  0
    2.0000    1.2535    0.0000 C   0  0  0  0  0  0  0  0  0  0  0  0
    2.0000    0.2119    0.0000 C   0  0  0  0  0  0  0  0  0  0  0  0
   11.4209    0.1336    0.0000 H   0  0  0  0  0  0  0  0  0  0  0  0
   11.8529   -1.1821    0.0000 H   0  0  0  0  0  0  0  0  0  0  0  0
   11.8529   -0.3526    0.0000 H   0  0  0  0  0  0  0  0  0  0  0  0
   10.5574   -2.1390    0.0000 H   0  0  0  0  0  0  0  0  0  0  0  0
   11.3458   -1.8813    0.0000 H   0  0  0  0  0  0  0  0  0  0  0  0
    6.1426    1.1250    0.0000 H   0  0  0  0  0  0  0  0  0  0  0  0
    5.7441    1.8153    0.0000 H   0  0  0  0  0  0  0  0  0  0  0  0
    5.0646    2.2076    0.0000 H   0  0  0  0  0  0  0  0  0  0  0  0
    4.2675    2.2076    0.0000 H   0  0  0  0  0  0  0  0  0  0  0  0
    4.2675   -0.7423    0.0000 H   0  0  0  0  0  0  0  0  0  0  0  0
    5.0646   -0.7423    0.0000 H   0  0  0  0  0  0  0  0  0  0  0  0
    8.9962    0.8527    0.0000 H   0  0  0  0  0  0  0  0  0  0  0  0
    8.9962   -2.3873    0.0000 H   0  0  0  0  0  0  0  0  0  0  0  0
    7.5932   -1.5773    0.0000 H   0  0  0  0  0  0  0  0  0  0  0  0
    6.3981   -0.8873    0.0000 H   0  0  0  0  0  0  0  0  0  0  0  0
    2.9132    2.3873    0.0000 H   0  0  0  0  0  0  0  0  0  0  0  0
    2.9132   -0.9220    0.0000 H   0  0  0  0  0  0  0  0  0  0  0  0
   11.7257    1.1158    0.0000 H   0  0  0  0  0  0  0  0  0  0  0  0
    1.4643    1.5656    0.0000 H   0  0  0  0  0  0  0  0  0  0  0  0
    1.4643   -0.1002    0.0000 H   0  0  0  0  0  0  0  0  0  0  0  0
  1  4  1  0  0  0  0
  1 40  1  0  0  0  0
  2  9  1  0  0  0  0
  2 11  1  0  0  0  0
  2 18  1  0  0  0  0
  3 16  1  0  0  0  0
  3 18  2  0  0  0  0
  4  5  1  0  0  0  0
  4  7  1  0  0  0  0
  4 23  1  0  0  0  0
  5  6  1  0  0  0  0
  5 24  1  0  0  0  0
  5 25  1  0  0  0  0
  6  8  1  0  0  0  0
  6 26  1  0  0  0  0
  6 27  1  0  0  0  0
  7  8  2  0  0  0  0
  7 14  1  0  0  0  0
  8 15  1  0  0  0  0
  9 10  1  0  0  0  0
  9 28  1  0  0  0  0
  9 29  1  0  0  0  0
 10 12  1  0  0  0  0
 10 30  1  0  0  0  0
 10 31  1  0  0  0  0
 11 13  1  0  0  0  0
 11 32  1  0  0  0  0
 11 33  1  0  0  0  0
 12 13  1  0  0  0  0
 12 19  2  0  0  0  0
 13 20  2  0  0  0  0
 14 16  2  0  0  0  0
 14 34  1  0  0  0  0
 15 17  2  0  0  0  0
 15 35  1  0  0  0  0
 16 17  1  0  0  0  0
 17 36  1  0  0  0  0
 18 37  1  0  0  0  0
 19 21  1  0  0  0  0
 19 38  1  0  0  0  0
 20 22  1  0  0  0  0
 20 39  1  0  0  0  0
 21 22  2  0  0  0  0
 21 41  1  0  0  0  0
 22 42  1  0  0  0  0
M  END
> <PUBCHEM_COMPOUND_CID>
44439402

> <PUBCHEM_COMPOUND_CANONICALIZED>
1

> <PUBCHEM_CACTVS_COMPLEXITY>
410

> <PUBCHEM_CACTVS_HBOND_ACCEPTOR>
2

> <PUBCHEM_CACTVS_HBOND_DONOR>
1

> <PUBCHEM_CACTVS_ROTATABLE_BOND>
2

> <PUBCHEM_CACTVS_SUBSKEYS>
AAADceB7IAAAAAAAAAAAAAAAAAAAAYAAAAA8YIAAAAAAAGCxQAAAHgAACAAADBzhmAYxwIMAAgCgAiRDZACCAAEgAgAJiAAIbIgINiKAmZGEcAhkwAGI2AewwKAOiAAAQAAQAAAQAACAACAAAIAADAAAAA==

> <PUBCHEM_IUPAC_OPENEYE_NAME>
6-(3,4-dihydro-1H-isoquinolin-2-ylmethyleneamino)indan-1-ol

> <PUBCHEM_IUPAC_CAS_NAME>
6-(3,4-dihydro-1H-isoquinolin-2-ylmethylideneamino)-2,3-dihydro-1H-inden-1-ol

> <PUBCHEM_IUPAC_NAME_MARKUP>
6-(3,4-dihydro-1<I>H</I>-isoquinolin-2-ylmethylideneamino)-2,3-dihydro-1<I>H</I>-inden-1-ol

> <PUBCHEM_IUPAC_NAME>
6-(3,4-dihydro-1H-isoquinolin-2-ylmethylideneamino)-2,3-dihydro-1H-inden-1-ol

> <PUBCHEM_IUPAC_SYSTEMATIC_NAME>
6-(3,4-dihydro-1H-isoquinolin-2-ylmethylideneamino)-2,3-dihydro-1H-inden-1-ol

> <PUBCHEM_IUPAC_TRADITIONAL_NAME>
6-(3,4-dihydro-1H-isoquinolin-2-ylmethyleneamino)indan-1-ol

> <PUBCHEM_IUPAC_INCHI>
InChI=1S/C19H20N2O/c22-19-8-6-15-5-7-17(11-18(15)19)20-13-21-10-9-14-3-1-2-4-16(14)12-21/h1-5,7,11,13,19,22H,6,8-10,12H2

> <PUBCHEM_IUPAC_INCHIKEY>
NRDCOYNEQGSTGB-UHFFFAOYSA-N

> <PUBCHEM_XLOGP3_AA>
2.6

> <PUBCHEM_EXACT_MASS>
292.157563266

> <PUBCHEM_MOLECULAR_FORMULA>
C19H20N2O

> <PUBCHEM_MOLECULAR_WEIGHT>
292.4

> <PUBCHEM_OPENEYE_CAN_SMILES>
C1CC2=C(C1O)C=C(C=C2)N=CN3CCC4=CC=CC=C4C3

> <PUBCHEM_OPENEYE_ISO_SMILES>
C1CC2=C(C1O)C=C(C=C2)N=CN3CCC4=CC=CC=C4C3

> <PUBCHEM_CACTVS_TPSA>
35.8

> <PUBCHEM_MONOISOTOPIC_WEIGHT>
292.157563266

> <PUBCHEM_TOTAL_CHARGE>
0

> <PUBCHEM_HEAVY_ATOM_COUNT>
22

> <PUBCHEM_ATOM_DEF_STEREO_COUNT>
0

> <PUBCHEM_ATOM_UDEF_STEREO_COUNT>
1

> <PUBCHEM_BOND_DEF_STEREO_COUNT>
0

> <PUBCHEM_BOND_UDEF_STEREO_COUNT>
0

> <PUBCHEM_ISOTOPIC_ATOM_COUNT>
0

> <PUBCHEM_COMPONENT_COUNT>
1

> <PUBCHEM_CACTVS_TAUTO_COUNT>
-1

> <PUBCHEM_COORDINATE_TYPE>
1
5
255

> <PUBCHEM_BONDANNOTATIONS>
4  1  3
12  13  8
12  19  8
13  20  8
14  16  8
15  17  8
16  17  8
19  21  8
20  22  8
21  22  8
7  14  8
7  8  8
8  15  8

$$$$
