44397589
  -OEChem-09292322092D

 84 87  0     0  0  0  0  0  0999 V2000
   10.3681    9.6690    0.0000 F   0  0  0  0  0  0  0  0  0  0  0  0
   10.0021    8.3030    0.0000 F   0  0  0  0  0  0  0  0  0  0  0  0
   11.3681    7.9370    0.0000 F   0  0  0  0  0  0  0  0  0  0  0  0
    3.1350    3.6200    0.0000 O   0  0  0  0  0  0  0  0  0  0  0  0
   12.6002    8.8030    0.0000 O   0  0  0  0  0  0  0  0  0  0  0  0
   11.7341   10.3030    0.0000 O   0  0  0  0  0  0  0  0  0  0  0  0
    4.0010    5.1200    0.0000 N   0  0  0  0  0  0  0  0  0  0  0  0
    5.7331   13.1200    0.0000 N   0  0  0  0  0  0  0  0  0  0  0  0
    0.5369    5.1200    0.0000 N   0  0  0  0  0  0  0  0  0  0  0  0
    4.8671    5.6200    0.0000 C   0  0  0  0  0  0  0  0  0  0  0  0
    4.8671    6.6200    0.0000 C   0  0  0  0  0  0  0  0  0  0  0  0
    4.8671    8.6200    0.0000 C   0  0  0  0  0  0  0  0  0  0  0  0
    4.8671    9.6200    0.0000 C   0  0  0  0  0  0  0  0  0  0  0  0
    4.8671   12.6200    0.0000 C   0  0  0  0  0  0  0  0  0  0  0  0
    4.8671   11.6200    0.0000 C   0  0  0  0  0  0  0  0  0  0  0  0
    3.1350    5.6200    0.0000 C   0  0  0  0  0  0  0  0  0  0  0  0
    5.7331   14.1200    0.0000 C   0  0  0  0  0  0  0  0  0  0  0  0
    5.7331    7.1200    0.0000 C   0  0  0  0  0  0  0  0  0  0  0  0
    4.0010    7.1200    0.0000 C   0  0  0  0  0  0  0  0  0  0  0  0
    6.5991   14.6200    0.0000 C   0  0  0  0  0  0  0  0  0  0  0  0
    5.7331    8.1200    0.0000 C   0  0  0  0  0  0  0  0  0  0  0  0
    4.0010    8.1200    0.0000 C   0  0  0  0  0  0  0  0  0  0  0  0
    5.7331   10.1200    0.0000 C   0  0  0  0  0  0  0  0  0  0  0  0
    4.0010   10.1200    0.0000 C   0  0  0  0  0  0  0  0  0  0  0  0
    5.7331   11.1200    0.0000 C   0  0  0  0  0  0  0  0  0  0  0  0
    4.0010   11.1200    0.0000 C   0  0  0  0  0  0  0  0  0  0  0  0
    2.2690    5.1200    0.0000 C   0  0  0  0  0  0  0  0  0  0  0  0
    4.0010    4.1200    0.0000 C   0  0  0  0  0  0  0  0  0  0  0  0
    6.5991   15.6200    0.0000 C   0  0  0  0  0  0  0  0  0  0  0  0
    2.2690    4.1200    0.0000 C   0  0  0  0  0  0  0  0  0  0  0  0
    7.4651   16.1200    0.0000 C   0  0  0  0  0  0  0  0  0  0  0  0
    5.7331   16.1200    0.0000 C   0  0  0  0  0  0  0  0  0  0  0  0
    4.8671    3.6200    0.0000 C   0  0  0  0  0  0  0  0  0  0  0  0
    1.4030    5.6200    0.0000 C   0  0  0  0  0  0  0  0  0  0  0  0
    7.4651   17.1200    0.0000 C   0  0  0  0  0  0  0  0  0  0  0  0
    5.7331   17.1200    0.0000 C   0  0  0  0  0  0  0  0  0  0  0  0
    1.4030    3.6200    0.0000 C   0  0  0  0  0  0  0  0  0  0  0  0
    4.8671    2.6200    0.0000 C   0  0  0  0  0  0  0  0  0  0  0  0
    6.5991   17.6200    0.0000 C   0  0  0  0  0  0  0  0  0  0  0  0
    0.5369    4.1200    0.0000 C   0  0  0  0  0  0  0  0  0  0  0  0
    5.7331    2.1200    0.0000 C   0  0  0  0  0  0  0  0  0  0  0  0
    5.7331    1.1200    0.0000 C   0  0  0  0  0  0  0  0  0  0  0  0
    6.5991    2.6200    0.0000 C   0  0  0  0  0  0  0  0  0  0  0  0
    6.5991    0.6200    0.0000 C   0  0  0  0  0  0  0  0  0  0  0  0
    7.4651    2.1200    0.0000 C   0  0  0  0  0  0  0  0  0  0  0  0
    7.4651    1.1200    0.0000 C   0  0  0  0  0  0  0  0  0  0  0  0
   10.8681    8.8030    0.0000 C   0  0  0  0  0  0  0  0  0  0  0  0
   11.7341    9.3030    0.0000 C   0  0  0  0  0  0  0  0  0  0  0  0
    5.0791    5.0374    0.0000 H   0  0  0  0  0  0  0  0  0  0  0  0
    5.4776    5.7277    0.0000 H   0  0  0  0  0  0  0  0  0  0  0  0
    4.6550   13.2026    0.0000 H   0  0  0  0  0  0  0  0  0  0  0  0
    4.2565   12.5123    0.0000 H   0  0  0  0  0  0  0  0  0  0  0  0
    3.5335    6.0950    0.0000 H   0  0  0  0  0  0  0  0  0  0  0  0
    2.7365    6.0950    0.0000 H   0  0  0  0  0  0  0  0  0  0  0  0
    5.5210   14.7026    0.0000 H   0  0  0  0  0  0  0  0  0  0  0  0
    5.1225   14.0123    0.0000 H   0  0  0  0  0  0  0  0  0  0  0  0
    6.2700    6.8100    0.0000 H   0  0  0  0  0  0  0  0  0  0  0  0
    3.4641    6.8100    0.0000 H   0  0  0  0  0  0  0  0  0  0  0  0
    6.8112   14.0374    0.0000 H   0  0  0  0  0  0  0  0  0  0  0  0
    7.2097   14.7277    0.0000 H   0  0  0  0  0  0  0  0  0  0  0  0
    6.2700    8.4300    0.0000 H   0  0  0  0  0  0  0  0  0  0  0  0
    3.4641    8.4300    0.0000 H   0  0  0  0  0  0  0  0  0  0  0  0
    6.2700   12.8100    0.0000 H   0  0  0  0  0  0  0  0  0  0  0  0
    6.2700    9.8100    0.0000 H   0  0  0  0  0  0  0  0  0  0  0  0
    3.4641    9.8100    0.0000 H   0  0  0  0  0  0  0  0  0  0  0  0
    6.2700   11.4300    0.0000 H   0  0  0  0  0  0  0  0  0  0  0  0
    3.4641   11.4300    0.0000 H   0  0  0  0  0  0  0  0  0  0  0  0
    2.8059    3.8100    0.0000 H   0  0  0  0  0  0  0  0  0  0  0  0
    8.0021   15.8100    0.0000 H   0  0  0  0  0  0  0  0  0  0  0  0
    5.1962   15.8100    0.0000 H   0  0  0  0  0  0  0  0  0  0  0  0
    5.4040    3.9300    0.0000 H   0  0  0  0  0  0  0  0  0  0  0  0
    1.4030    6.2400    0.0000 H   0  0  0  0  0  0  0  0  0  0  0  0
    8.0021   17.4300    0.0000 H   0  0  0  0  0  0  0  0  0  0  0  0
    5.1962   17.4300    0.0000 H   0  0  0  0  0  0  0  0  0  0  0  0
    1.4030    3.0000    0.0000 H   0  0  0  0  0  0  0  0  0  0  0  0
    4.3301    2.3100    0.0000 H   0  0  0  0  0  0  0  0  0  0  0  0
    6.5991   18.2400    0.0000 H   0  0  0  0  0  0  0  0  0  0  0  0
    0.0000    3.8100    0.0000 H   0  0  0  0  0  0  0  0  0  0  0  0
    5.1962    0.8100    0.0000 H   0  0  0  0  0  0  0  0  0  0  0  0
    6.5991    3.2400    0.0000 H   0  0  0  0  0  0  0  0  0  0  0  0
    6.5991    0.0000    0.0000 H   0  0  0  0  0  0  0  0  0  0  0  0
    8.0021    2.4300    0.0000 H   0  0  0  0  0  0  0  0  0  0  0  0
    8.0021    0.8100    0.0000 H   0  0  0  0  0  0  0  0  0  0  0  0
   13.1371    9.1130    0.0000 H   0  0  0  0  0  0  0  0  0  0  0  0
  1 47  1  0  0  0  0
  2 47  1  0  0  0  0
  3 47  1  0  0  0  0
  4 28  2  0  0  0  0
  5 48  1  0  0  0  0
  5 84  1  0  0  0  0
  6 48  2  0  0  0  0
  7 10  1  0  0  0  0
  7 16  1  0  0  0  0
  7 28  1  0  0  0  0
  8 14  1  0  0  0  0
  8 17  1  0  0  0  0
  8 63  1  0  0  0  0
  9 34  1  0  0  0  0
  9 40  2  0  0  0  0
 10 11  1  0  0  0  0
 10 49  1  0  0  0  0
 10 50  1  0  0  0  0
 11 18  2  0  0  0  0
 11 19  1  0  0  0  0
 12 13  1  0  0  0  0
 12 21  2  0  0  0  0
 12 22  1  0  0  0  0
 13 23  2  0  0  0  0
 13 24  1  0  0  0  0
 14 15  1  0  0  0  0
 14 51  1  0  0  0  0
 14 52  1  0  0  0  0
 15 25  2  0  0  0  0
 15 26  1  0  0  0  0
 16 27  1  0  0  0  0
 16 53  1  0  0  0  0
 16 54  1  0  0  0  0
 17 20  1  0  0  0  0
 17 55  1  0  0  0  0
 17 56  1  0  0  0  0
 18 21  1  0  0  0  0
 18 57  1  0  0  0  0
 19 22  2  0  0  0  0
 19 58  1  0  0  0  0
 20 29  1  0  0  0  0
 20 59  1  0  0  0  0
 20 60  1  0  0  0  0
 21 61  1  0  0  0  0
 22 62  1  0  0  0  0
 23 25  1  0  0  0  0
 23 64  1  0  0  0  0
 24 26  2  0  0  0  0
 24 65  1  0  0  0  0
 25 66  1  0  0  0  0
 26 67  1  0  0  0  0
 27 30  1  0  0  0  0
 27 34  2  0  0  0  0
 28 33  1  0  0  0  0
 29 31  2  0  0  0  0
 29 32  1  0  0  0  0
 30 37  2  0  0  0  0
 30 68  1  0  0  0  0
 31 35  1  0  0  0  0
 31 69  1  0  0  0  0
 32 36  2  0  0  0  0
 32 70  1  0  0  0  0
 33 38  2  0  0  0  0
 33 71  1  0  0  0  0
 34 72  1  0  0  0  0
 35 39  2  0  0  0  0
 35 73  1  0  0  0  0
 36 39  1  0  0  0  0
 36 74  1  0  0  0  0
 37 40  1  0  0  0  0
 37 75  1  0  0  0  0
 38 41  1  0  0  0  0
 38 76  1  0  0  0  0
 39 77  1  0  0  0  0
 40 78  1  0  0  0  0
 41 42  2  0  0  0  0
 41 43  1  0  0  0  0
 42 44  1  0  0  0  0
 42 79  1  0  0  0  0
 43 45  2  0  0  0  0
 43 80  1  0  0  0  0
 44 46  2  0  0  0  0
 44 81  1  0  0  0  0
 45 46  1  0  0  0  0
 45 82  1  0  0  0  0
 46 83  1  0  0  0  0
 47 48  1  0  0  0  0
M  END
> <PUBCHEM_COMPOUND_CID>
44397589

> <PUBCHEM_COMPOUND_CANONICALIZED>
1

> <PUBCHEM_CACTVS_COMPLEXITY>
838

> <PUBCHEM_CACTVS_HBOND_ACCEPTOR>
8

> <PUBCHEM_CACTVS_HBOND_DONOR>
2

> <PUBCHEM_CACTVS_ROTATABLE_BOND>
12

> <PUBCHEM_CACTVS_SUBSKEYS>
AAADcfB/MYAAAAAAAAAAAAAAAAAAAAAAAAA8YMGCAAAAAAAB1AAAHwAQCAAADADBmhQ8iJPIEgCoAjH3XACCgCAxAiAI2KA4ZNgIIOLA0ZGEIAhglgDIyYcQgMAOwAAAAAAAAACAAAAAAAAAAAAAAAAAAA==

> <PUBCHEM_IUPAC_OPENEYE_NAME>
(E)-3-phenyl-N-[[4-[4-[(2-phenylethylamino)methyl]phenyl]phenyl]methyl]-N-(3-pyridylmethyl)prop-2-enamide;2,2,2-trifluoroacetic acid

> <PUBCHEM_IUPAC_CAS_NAME>
(E)-3-phenyl-N-[[4-[4-[(2-phenylethylamino)methyl]phenyl]phenyl]methyl]-N-(3-pyridinylmethyl)-2-propenamide;2,2,2-trifluoroacetic acid

> <PUBCHEM_IUPAC_NAME_MARKUP>
(<I>E</I>)-3-phenyl-<I>N</I>-[[4-[4-[(2-phenylethylamino)methyl]phenyl]phenyl]methyl]-<I>N</I>-(pyridin-3-ylmethyl)prop-2-enamide;2,2,2-trifluoroacetic acid

> <PUBCHEM_IUPAC_NAME>
(E)-3-phenyl-N-[[4-[4-[(2-phenylethylamino)methyl]phenyl]phenyl]methyl]-N-(pyridin-3-ylmethyl)prop-2-enamide;2,2,2-trifluoroacetic acid

> <PUBCHEM_IUPAC_SYSTEMATIC_NAME>
(E)-3-phenyl-N-[[4-[4-[(2-phenylethylamino)methyl]phenyl]phenyl]methyl]-N-(pyridin-3-ylmethyl)prop-2-enamide;2,2,2-tris(fluoranyl)ethanoic acid

> <PUBCHEM_IUPAC_TRADITIONAL_NAME>
(E)-N-[4-[4-[(phenethylamino)methyl]phenyl]benzyl]-3-phenyl-N-(3-pyridylmethyl)acrylamide;2,2,2-trifluoroacetic acid

> <PUBCHEM_IUPAC_INCHI>
InChI=1S/C37H35N3O.C2HF3O2/c41-37(22-17-30-8-3-1-4-9-30)40(29-34-12-7-24-38-27-34)28-33-15-20-36(21-16-33)35-18-13-32(14-19-35)26-39-25-23-31-10-5-2-6-11-31;3-2(4,5)1(6)7/h1-22,24,27,39H,23,25-26,28-29H2;(H,6,7)/b22-17+;

> <PUBCHEM_IUPAC_INCHIKEY>
LYHQJHWJMJJLAD-GDHRODDYSA-N

> <PUBCHEM_EXACT_MASS>
651.27087651

> <PUBCHEM_MOLECULAR_FORMULA>
C39H36F3N3O3

> <PUBCHEM_MOLECULAR_WEIGHT>
651.7

> <PUBCHEM_OPENEYE_CAN_SMILES>
C1=CC=C(C=C1)CCNCC2=CC=C(C=C2)C3=CC=C(C=C3)CN(CC4=CN=CC=C4)C(=O)C=CC5=CC=CC=C5.C(=O)(C(F)(F)F)O

> <PUBCHEM_OPENEYE_ISO_SMILES>
C1=CC=C(C=C1)CCNCC2=CC=C(C=C2)C3=CC=C(C=C3)CN(CC4=CN=CC=C4)C(=O)/C=C/C5=CC=CC=C5.C(=O)(C(F)(F)F)O

> <PUBCHEM_CACTVS_TPSA>
82.5

> <PUBCHEM_MONOISOTOPIC_WEIGHT>
651.27087651

> <PUBCHEM_TOTAL_CHARGE>
0

> <PUBCHEM_HEAVY_ATOM_COUNT>
48

> <PUBCHEM_ATOM_DEF_STEREO_COUNT>
0

> <PUBCHEM_ATOM_UDEF_STEREO_COUNT>
0

> <PUBCHEM_BOND_DEF_STEREO_COUNT>
1

> <PUBCHEM_BOND_UDEF_STEREO_COUNT>
0

> <PUBCHEM_ISOTOPIC_ATOM_COUNT>
0

> <PUBCHEM_COMPONENT_COUNT>
2

> <PUBCHEM_CACTVS_TAUTO_COUNT>
-1

> <PUBCHEM_COORDINATE_TYPE>
1
5
255

> <PUBCHEM_BONDANNOTATIONS>
11  18  8
11  19  8
12  21  8
12  22  8
13  23  8
13  24  8
15  25  8
15  26  8
18  21  8
19  22  8
23  25  8
24  26  8
27  30  8
27  34  8
29  31  8
29  32  8
30  37  8
31  35  8
32  36  8
35  39  8
36  39  8
37  40  8
41  42  8
41  43  8
42  44  8
43  45  8
44  46  8
45  46  8
9  34  8
9  40  8

$$$$
