11519134
  -OEChem-09292322492D

 69 74  0     1  0  0  0  0  0999 V2000
    9.2062    0.4409    0.0000 S   0  0  0  0  0  0  0  0  0  0  0  0
    4.4887   -5.8755    0.0000 O   0  0  0  0  0  0  0  0  0  0  0  0
    6.2062   -1.2912    0.0000 N   0  0  3  0  0  0  0  0  0  0  0  0
    3.0949   -5.0707    0.0000 N   0  0  0  0  0  0  0  0  0  0  0  0
   10.7008    1.4114    0.0000 N   0  0  0  0  0  0  0  0  0  0  0  0
    9.2995    2.2204    0.0000 N   0  0  0  0  0  0  0  0  0  0  0  0
   10.0426    2.8896    0.0000 N   0  0  0  0  0  0  0  0  0  0  0  0
   12.9651    5.2317    0.0000 N   0  0  0  0  0  0  0  0  0  0  0  0
    6.7598   -2.1008    0.0000 C   0  0  0  0  0  0  0  0  0  0  0  0
    5.2283   -1.2166    0.0000 C   0  0  0  0  0  0  0  0  0  0  0  0
    6.4745   -3.0392    0.0000 C   0  0  0  0  0  0  0  0  0  0  0  0
    4.5583   -1.9328    0.0000 C   0  0  0  0  0  0  0  0  0  0  0  0
    5.5640   -3.4036    0.0000 C   0  0  0  0  0  0  0  0  0  0  0  0
    4.6979   -2.9036    0.0000 C   0  0  0  0  0  0  0  0  0  0  0  0
    6.7062   -0.4252    0.0000 C   0  0  0  0  0  0  0  0  0  0  0  0
    7.7062   -0.4252    0.0000 C   0  0  0  0  0  0  0  0  0  0  0  0
    5.5640   -4.4036    0.0000 C   0  0  0  0  0  0  0  0  0  0  0  0
    3.8319   -3.4036    0.0000 C   0  0  0  0  0  0  0  0  0  0  0  0
    4.6979   -4.9036    0.0000 C   0  0  0  0  0  0  0  0  0  0  0  0
    3.8319   -4.4036    0.0000 C   0  0  0  0  0  0  0  0  0  0  0  0
    8.2062    0.4409    0.0000 C   0  0  0  0  0  0  0  0  0  0  0  0
    3.5000   -5.9785    0.0000 C   0  0  0  0  0  0  0  0  0  0  0  0
    3.0000   -6.8445    0.0000 C   0  0  0  0  0  0  0  0  0  0  0  0
    9.7062    1.3069    0.0000 C   0  0  0  0  0  0  0  0  0  0  0  0
   10.9087    2.3896    0.0000 C   0  0  0  0  0  0  0  0  0  0  0  0
    2.0000   -6.8445    0.0000 C   0  0  0  0  0  0  0  0  0  0  0  0
   11.8222    2.7963    0.0000 C   0  0  0  0  0  0  0  0  0  0  0  0
   11.9267    3.7908    0.0000 C   0  0  0  0  0  0  0  0  0  0  0  0
   11.3699    0.6683    0.0000 C   0  0  0  0  0  0  0  0  0  0  0  0
   12.8403    4.1976    0.0000 C   0  0  0  0  0  0  0  0  0  0  0  0
   12.6312    2.2085    0.0000 C   0  0  0  0  0  0  0  0  0  0  0  0
   11.0747    4.3900    0.0000 C   0  0  0  0  0  0  0  0  0  0  0  0
   13.6493    3.6098    0.0000 C   0  0  0  0  0  0  0  0  0  0  0  0
   13.5448    2.6153    0.0000 C   0  0  0  0  0  0  0  0  0  0  0  0
   11.1756    5.4268    0.0000 C   0  0  0  0  0  0  0  0  0  0  0  0
   12.1272    5.8504    0.0000 C   0  0  0  0  0  0  0  0  0  0  0  0
   12.2355    6.8445    0.0000 C   0  0  0  0  0  0  0  0  0  0  0  0
    7.2977   -2.4091    0.0000 H   0  0  0  0  0  0  0  0  0  0  0  0
    7.1805   -1.6454    0.0000 H   0  0  0  0  0  0  0  0  0  0  0  0
    5.4124   -0.6245    0.0000 H   0  0  0  0  0  0  0  0  0  0  0  0
    4.6923   -0.9049    0.0000 H   0  0  0  0  0  0  0  0  0  0  0  0
    6.5705   -3.6517    0.0000 H   0  0  0  0  0  0  0  0  0  0  0  0
    7.0930   -3.0825    0.0000 H   0  0  0  0  0  0  0  0  0  0  0  0
    4.2116   -1.4189    0.0000 H   0  0  0  0  0  0  0  0  0  0  0  0
    3.9798   -2.1560    0.0000 H   0  0  0  0  0  0  0  0  0  0  0  0
    6.8139    0.1854    0.0000 H   0  0  0  0  0  0  0  0  0  0  0  0
    6.1236   -0.2131    0.0000 H   0  0  0  0  0  0  0  0  0  0  0  0
    7.5986   -1.0357    0.0000 H   0  0  0  0  0  0  0  0  0  0  0  0
    8.2888   -0.6372    0.0000 H   0  0  0  0  0  0  0  0  0  0  0  0
    6.1009   -4.7136    0.0000 H   0  0  0  0  0  0  0  0  0  0  0  0
    3.2950   -3.0936    0.0000 H   0  0  0  0  0  0  0  0  0  0  0  0
    8.3139    1.0514    0.0000 H   0  0  0  0  0  0  0  0  0  0  0  0
    7.6236    0.6529    0.0000 H   0  0  0  0  0  0  0  0  0  0  0  0
    2.8923   -7.4551    0.0000 H   0  0  0  0  0  0  0  0  0  0  0  0
    3.5826   -7.0566    0.0000 H   0  0  0  0  0  0  0  0  0  0  0  0
    2.0000   -6.2245    0.0000 H   0  0  0  0  0  0  0  0  0  0  0  0
    1.3800   -6.8445    0.0000 H   0  0  0  0  0  0  0  0  0  0  0  0
    2.0000   -7.4645    0.0000 H   0  0  0  0  0  0  0  0  0  0  0  0
   10.9091    0.2534    0.0000 H   0  0  0  0  0  0  0  0  0  0  0  0
   11.7847    0.2075    0.0000 H   0  0  0  0  0  0  0  0  0  0  0  0
   11.8306    1.0831    0.0000 H   0  0  0  0  0  0  0  0  0  0  0  0
   12.5664    1.5919    0.0000 H   0  0  0  0  0  0  0  0  0  0  0  0
   10.5113    4.1313    0.0000 H   0  0  0  0  0  0  0  0  0  0  0  0
   14.2157    3.8620    0.0000 H   0  0  0  0  0  0  0  0  0  0  0  0
   14.0464    2.2508    0.0000 H   0  0  0  0  0  0  0  0  0  0  0  0
   10.6726    5.7892    0.0000 H   0  0  0  0  0  0  0  0  0  0  0  0
   12.8519    6.7774    0.0000 H   0  0  0  0  0  0  0  0  0  0  0  0
   12.3027    7.4609    0.0000 H   0  0  0  0  0  0  0  0  0  0  0  0
   11.6192    6.9117    0.0000 H   0  0  0  0  0  0  0  0  0  0  0  0
  1 21  1  0  0  0  0
  1 24  1  0  0  0  0
  2 19  1  0  0  0  0
  2 22  1  0  0  0  0
  3  9  1  0  0  0  0
  3 10  1  0  0  0  0
  3 15  1  0  0  0  0
  4 20  1  0  0  0  0
  4 22  2  0  0  0  0
  5 24  1  0  0  0  0
  5 25  1  0  0  0  0
  5 29  1  0  0  0  0
  6  7  1  0  0  0  0
  6 24  2  0  0  0  0
  7 25  2  0  0  0  0
  8 30  1  0  0  0  0
  8 36  2  0  0  0  0
  9 11  1  0  0  0  0
  9 38  1  0  0  0  0
  9 39  1  0  0  0  0
 10 12  1  0  0  0  0
 10 40  1  0  0  0  0
 10 41  1  0  0  0  0
 11 13  1  0  0  0  0
 11 42  1  0  0  0  0
 11 43  1  0  0  0  0
 12 14  1  0  0  0  0
 12 44  1  0  0  0  0
 12 45  1  0  0  0  0
 13 14  1  0  0  0  0
 13 17  2  0  0  0  0
 14 18  2  0  0  0  0
 15 16  1  0  0  0  0
 15 46  1  0  0  0  0
 15 47  1  0  0  0  0
 16 21  1  0  0  0  0
 16 48  1  0  0  0  0
 16 49  1  0  0  0  0
 17 19  1  0  0  0  0
 17 50  1  0  0  0  0
 18 20  1  0  0  0  0
 18 51  1  0  0  0  0
 19 20  2  0  0  0  0
 21 52  1  0  0  0  0
 21 53  1  0  0  0  0
 22 23  1  0  0  0  0
 23 26  1  0  0  0  0
 23 54  1  0  0  0  0
 23 55  1  0  0  0  0
 25 27  1  0  0  0  0
 26 56  1  0  0  0  0
 26 57  1  0  0  0  0
 26 58  1  0  0  0  0
 27 28  2  0  0  0  0
 27 31  1  0  0  0  0
 28 30  1  0  0  0  0
 28 32  1  0  0  0  0
 29 59  1  0  0  0  0
 29 60  1  0  0  0  0
 29 61  1  0  0  0  0
 30 33  2  0  0  0  0
 31 34  2  0  0  0  0
 31 62  1  0  0  0  0
 32 35  2  0  0  0  0
 32 63  1  0  0  0  0
 33 34  1  0  0  0  0
 33 64  1  0  0  0  0
 34 65  1  0  0  0  0
 35 36  1  0  0  0  0
 35 66  1  0  0  0  0
 36 37  1  0  0  0  0
 37 67  1  0  0  0  0
 37 68  1  0  0  0  0
 37 69  1  0  0  0  0
M  END
> <PUBCHEM_COMPOUND_CID>
11519134

> <PUBCHEM_COMPOUND_CANONICALIZED>
1

> <PUBCHEM_CACTVS_COMPLEXITY>
745

> <PUBCHEM_CACTVS_HBOND_ACCEPTOR>
7

> <PUBCHEM_CACTVS_HBOND_DONOR>
0

> <PUBCHEM_CACTVS_ROTATABLE_BOND>
7

> <PUBCHEM_CACTVS_SUBSKEYS>
AAADcfB7oABAAAAAAAAAAAAAAAAAAWLAAAA8YIAABYAAAFix/gAAHgQIAAAADAzF3wSz1vcMFEiqA6dydASS2CtvYrAd2CG/bNiOLvLkvbuPOSjkzBPY6YeY2fKOqAABQAASEABQAAKAACQgAAAAAAAAAA==

> <PUBCHEM_IUPAC_OPENEYE_NAME>
2-ethyl-7-[3-[[4-methyl-5-(2-methyl-5-quinolyl)-1,2,4-triazol-3-yl]sulfanyl]propyl]-5,6,8,9-tetrahydrooxazolo[4,5-h][3]benzazepine

> <PUBCHEM_IUPAC_CAS_NAME>
2-ethyl-7-[3-[[4-methyl-5-(2-methyl-5-quinolinyl)-1,2,4-triazol-3-yl]thio]propyl]-5,6,8,9-tetrahydrooxazolo[4,5-h][3]benzazepine

> <PUBCHEM_IUPAC_NAME_MARKUP>
2-ethyl-7-[3-[[4-methyl-5-(2-methylquinolin-5-yl)-1,2,4-triazol-3-yl]sulfanyl]propyl]-5,6,8,9-tetrahydro-[1,3]oxazolo[4,5-h][3]benzazepine

> <PUBCHEM_IUPAC_NAME>
2-ethyl-7-[3-[[4-methyl-5-(2-methylquinolin-5-yl)-1,2,4-triazol-3-yl]sulfanyl]propyl]-5,6,8,9-tetrahydro-[1,3]oxazolo[4,5-h][3]benzazepine

> <PUBCHEM_IUPAC_SYSTEMATIC_NAME>
2-ethyl-7-[3-[[4-methyl-5-(2-methylquinolin-5-yl)-1,2,4-triazol-3-yl]sulfanyl]propyl]-5,6,8,9-tetrahydro-[1,3]oxazolo[4,5-h][3]benzazepine

> <PUBCHEM_IUPAC_TRADITIONAL_NAME>
2-ethyl-7-[3-[[4-methyl-5-(2-methyl-5-quinolyl)-1,2,4-triazol-3-yl]thio]propyl]-5,6,8,9-tetrahydrooxazolo[4,5-h][3]benzazepine

> <PUBCHEM_IUPAC_INCHI>
InChI=1S/C29H32N6OS/c1-4-27-31-25-17-20-11-14-35(15-12-21(20)18-26(25)36-27)13-6-16-37-29-33-32-28(34(29)3)23-7-5-8-24-22(23)10-9-19(2)30-24/h5,7-10,17-18H,4,6,11-16H2,1-3H3

> <PUBCHEM_IUPAC_INCHIKEY>
VURVNYUMSCKMDC-UHFFFAOYSA-N

> <PUBCHEM_XLOGP3_AA>
5.7

> <PUBCHEM_EXACT_MASS>
512.23583084

> <PUBCHEM_MOLECULAR_FORMULA>
C29H32N6OS

> <PUBCHEM_MOLECULAR_WEIGHT>
512.7

> <PUBCHEM_OPENEYE_CAN_SMILES>
CCC1=NC2=C(O1)C=C3CCN(CCC3=C2)CCCSC4=NN=C(N4C)C5=C6C=CC(=NC6=CC=C5)C

> <PUBCHEM_OPENEYE_ISO_SMILES>
CCC1=NC2=C(O1)C=C3CCN(CCC3=C2)CCCSC4=NN=C(N4C)C5=C6C=CC(=NC6=CC=C5)C

> <PUBCHEM_CACTVS_TPSA>
98.2

> <PUBCHEM_MONOISOTOPIC_WEIGHT>
512.23583084

> <PUBCHEM_TOTAL_CHARGE>
0

> <PUBCHEM_HEAVY_ATOM_COUNT>
37

> <PUBCHEM_ATOM_DEF_STEREO_COUNT>
0

> <PUBCHEM_ATOM_UDEF_STEREO_COUNT>
0

> <PUBCHEM_BOND_DEF_STEREO_COUNT>
0

> <PUBCHEM_BOND_UDEF_STEREO_COUNT>
0

> <PUBCHEM_ISOTOPIC_ATOM_COUNT>
0

> <PUBCHEM_COMPONENT_COUNT>
1

> <PUBCHEM_CACTVS_TAUTO_COUNT>
-1

> <PUBCHEM_COORDINATE_TYPE>
1
5
255

> <PUBCHEM_BONDANNOTATIONS>
13  14  8
13  17  8
14  18  8
17  19  8
18  20  8
19  20  8
2  19  8
2  22  8
27  28  8
27  31  8
28  30  8
28  32  8
30  33  8
31  34  8
32  35  8
33  34  8
35  36  8
4  20  8
4  22  8
5  24  8
5  25  8
6  24  8
6  7  8
7  25  8
8  30  8
8  36  8

$$$$
