57326982
  -OEChem-09292322052D

108115  0     0  0  0  0  0  0999 V2000
   13.0505   -5.5771    0.0000 Cl  0  0  0  0  0  0  0  0  0  0  0  0
    8.7204    5.5770    0.0000 Cl  0  0  0  0  0  0  0  0  0  0  0  0
    7.4810   -3.2500    0.0000 O   0  0  0  0  0  0  0  0  0  0  0  0
    6.6150    3.2500    0.0000 O   0  0  0  0  0  0  0  0  0  0  0  0
    8.2792   -7.3416    0.0000 N   0  0  0  0  0  0  0  0  0  0  0  0
    3.9491    7.3416    0.0000 N   0  0  0  0  0  0  0  0  0  0  0  0
    7.4114   -9.1436    0.0000 N   0  0  0  0  0  0  0  0  0  0  0  0
    3.0814    9.1436    0.0000 N   0  0  0  0  0  0  0  0  0  0  0  0
    9.2131   -4.2500    0.0000 N   0  0  0  0  0  0  0  0  0  0  0  0
    4.8830    4.2500    0.0000 N   0  0  0  0  0  0  0  0  0  0  0  0
    9.7130   -6.4407    0.0000 N   0  0  0  0  0  0  0  0  0  0  0  0
    5.3830    6.4406    0.0000 N   0  0  0  0  0  0  0  0  0  0  0  0
    9.2131   -3.2500    0.0000 N   0  0  0  0  0  0  0  0  0  0  0  0
    4.8830    3.2500    0.0000 N   0  0  0  0  0  0  0  0  0  0  0  0
    7.2820   -7.4164    0.0000 C   0  0  0  0  0  0  0  0  0  0  0  0
    8.8425   -8.1679    0.0000 C   0  0  0  0  0  0  0  0  0  0  0  0
    4.5125    8.1678    0.0000 C   0  0  0  0  0  0  0  0  0  0  0  0
    2.9519    7.4164    0.0000 C   0  0  0  0  0  0  0  0  0  0  0  0
    6.8480   -8.3173    0.0000 C   0  0  0  0  0  0  0  0  0  0  0  0
    8.4086   -9.0688    0.0000 C   0  0  0  0  0  0  0  0  0  0  0  0
    4.0786    9.0688    0.0000 C   0  0  0  0  0  0  0  0  0  0  0  0
    2.5180    8.3173    0.0000 C   0  0  0  0  0  0  0  0  0  0  0  0
    8.7130   -6.4407    0.0000 C   0  0  0  0  0  0  0  0  0  0  0  0
    4.3830    6.4406    0.0000 C   0  0  0  0  0  0  0  0  0  0  0  0
    8.0896   -5.6588    0.0000 C   0  0  0  0  0  0  0  0  0  0  0  0
    3.7595    5.6588    0.0000 C   0  0  0  0  0  0  0  0  0  0  0  0
    6.9775  -10.0445    0.0000 C   0  0  0  0  0  0  0  0  0  0  0  0
    2.6475   10.0445    0.0000 C   0  0  0  0  0  0  0  0  0  0  0  0
    8.3121   -4.6839    0.0000 C   0  0  0  0  0  0  0  0  0  0  0  0
    3.9820    4.6839    0.0000 C   0  0  0  0  0  0  0  0  0  0  0  0
   10.1140   -4.6839    0.0000 C   0  0  0  0  0  0  0  0  0  0  0  0
    5.7840    4.6839    0.0000 C   0  0  0  0  0  0  0  0  0  0  0  0
   10.3365   -5.6588    0.0000 C   0  0  0  0  0  0  0  0  0  0  0  0
    6.0065    5.6588    0.0000 C   0  0  0  0  0  0  0  0  0  0  0  0
    7.0990   -5.9812    0.0000 C   0  0  0  0  0  0  0  0  0  0  0  0
    2.7690    5.9812    0.0000 C   0  0  0  0  0  0  0  0  0  0  0  0
    7.4810   -0.2500    0.0000 C   0  0  0  0  0  0  0  0  0  0  0  0
    6.6150    0.2500    0.0000 C   0  0  0  0  0  0  0  0  0  0  0  0
    7.4810   -1.2500    0.0000 C   0  0  0  0  0  0  0  0  0  0  0  0
    6.6150    1.2500    0.0000 C   0  0  0  0  0  0  0  0  0  0  0  0
    7.5595   -3.9637    0.0000 C   0  0  0  0  0  0  0  0  0  0  0  0
    3.2295    3.9637    0.0000 C   0  0  0  0  0  0  0  0  0  0  0  0
    8.3470   -1.7500    0.0000 C   0  0  0  0  0  0  0  0  0  0  0  0
    5.7490    1.7500    0.0000 C   0  0  0  0  0  0  0  0  0  0  0  0
    6.3300   -5.2786    0.0000 C   0  0  0  0  0  0  0  0  0  0  0  0
    2.0000    5.2786    0.0000 C   0  0  0  0  0  0  0  0  0  0  0  0
    8.3470   -2.7500    0.0000 C   0  0  0  0  0  0  0  0  0  0  0  0
    5.7490    2.7500    0.0000 C   0  0  0  0  0  0  0  0  0  0  0  0
   10.8666   -3.9638    0.0000 C   0  0  0  0  0  0  0  0  0  0  0  0
    6.5365    3.9637    0.0000 C   0  0  0  0  0  0  0  0  0  0  0  0
    6.5618   -4.2631    0.0000 C   0  0  0  0  0  0  0  0  0  0  0  0
    2.2318    4.2631    0.0000 C   0  0  0  0  0  0  0  0  0  0  0  0
   11.3270   -5.9812    0.0000 C   0  0  0  0  0  0  0  0  0  0  0  0
    6.9970    5.9811    0.0000 C   0  0  0  0  0  0  0  0  0  0  0  0
   11.8643   -4.2631    0.0000 C   0  0  0  0  0  0  0  0  0  0  0  0
    7.5342    4.2630    0.0000 C   0  0  0  0  0  0  0  0  0  0  0  0
   12.0960   -5.2786    0.0000 C   0  0  0  0  0  0  0  0  0  0  0  0
    7.7660    5.2785    0.0000 C   0  0  0  0  0  0  0  0  0  0  0  0
    7.3437   -6.7994    0.0000 H   0  0  0  0  0  0  0  0  0  0  0  0
    6.6851   -7.2484    0.0000 H   0  0  0  0  0  0  0  0  0  0  0  0
    9.3459   -8.5298    0.0000 H   0  0  0  0  0  0  0  0  0  0  0  0
    9.2863   -7.7350    0.0000 H   0  0  0  0  0  0  0  0  0  0  0  0
    4.9563    7.7349    0.0000 H   0  0  0  0  0  0  0  0  0  0  0  0
    5.0159    8.5298    0.0000 H   0  0  0  0  0  0  0  0  0  0  0  0
    2.3551    7.2484    0.0000 H   0  0  0  0  0  0  0  0  0  0  0  0
    3.0137    6.7994    0.0000 H   0  0  0  0  0  0  0  0  0  0  0  0
    6.3447   -7.9554    0.0000 H   0  0  0  0  0  0  0  0  0  0  0  0
    6.4042   -8.7502    0.0000 H   0  0  0  0  0  0  0  0  0  0  0  0
    8.3468   -9.6858    0.0000 H   0  0  0  0  0  0  0  0  0  0  0  0
    9.0054   -9.2368    0.0000 H   0  0  0  0  0  0  0  0  0  0  0  0
    4.6754    9.2367    0.0000 H   0  0  0  0  0  0  0  0  0  0  0  0
    4.0168    9.6857    0.0000 H   0  0  0  0  0  0  0  0  0  0  0  0
    2.0742    8.7502    0.0000 H   0  0  0  0  0  0  0  0  0  0  0  0
    2.0146    7.9554    0.0000 H   0  0  0  0  0  0  0  0  0  0  0  0
    6.4189   -9.7755    0.0000 H   0  0  0  0  0  0  0  0  0  0  0  0
    6.7085  -10.6031    0.0000 H   0  0  0  0  0  0  0  0  0  0  0  0
    7.5361  -10.3135    0.0000 H   0  0  0  0  0  0  0  0  0  0  0  0
    3.2061   10.3135    0.0000 H   0  0  0  0  0  0  0  0  0  0  0  0
    2.3785   10.6031    0.0000 H   0  0  0  0  0  0  0  0  0  0  0  0
    2.0889    9.7755    0.0000 H   0  0  0  0  0  0  0  0  0  0  0  0
    6.9681   -6.5872    0.0000 H   0  0  0  0  0  0  0  0  0  0  0  0
    2.6380    6.5872    0.0000 H   0  0  0  0  0  0  0  0  0  0  0  0
    8.0916   -0.3577    0.0000 H   0  0  0  0  0  0  0  0  0  0  0  0
    7.6931    0.3326    0.0000 H   0  0  0  0  0  0  0  0  0  0  0  0
    6.0044    0.3577    0.0000 H   0  0  0  0  0  0  0  0  0  0  0  0
    6.4030   -0.3326    0.0000 H   0  0  0  0  0  0  0  0  0  0  0  0
    6.8704   -1.1424    0.0000 H   0  0  0  0  0  0  0  0  0  0  0  0
    7.2690   -1.8326    0.0000 H   0  0  0  0  0  0  0  0  0  0  0  0
    7.2256    1.1423    0.0000 H   0  0  0  0  0  0  0  0  0  0  0  0
    6.8271    1.8326    0.0000 H   0  0  0  0  0  0  0  0  0  0  0  0
    7.7045   -3.3609    0.0000 H   0  0  0  0  0  0  0  0  0  0  0  0
    3.3744    3.3609    0.0000 H   0  0  0  0  0  0  0  0  0  0  0  0
    8.9576   -1.8577    0.0000 H   0  0  0  0  0  0  0  0  0  0  0  0
    8.5591   -1.1674    0.0000 H   0  0  0  0  0  0  0  0  0  0  0  0
    5.1384    1.8577    0.0000 H   0  0  0  0  0  0  0  0  0  0  0  0
    5.5369    1.1674    0.0000 H   0  0  0  0  0  0  0  0  0  0  0  0
    9.7500   -2.9400    0.0000 H   0  0  0  0  0  0  0  0  0  0  0  0
    4.3460    2.9400    0.0000 H   0  0  0  0  0  0  0  0  0  0  0  0
    5.7383   -5.4636    0.0000 H   0  0  0  0  0  0  0  0  0  0  0  0
    1.4082    5.4636    0.0000 H   0  0  0  0  0  0  0  0  0  0  0  0
   10.7216   -3.3609    0.0000 H   0  0  0  0  0  0  0  0  0  0  0  0
    6.3916    3.3609    0.0000 H   0  0  0  0  0  0  0  0  0  0  0  0
    6.1090   -3.8396    0.0000 H   0  0  0  0  0  0  0  0  0  0  0  0
    1.7789    3.8396    0.0000 H   0  0  0  0  0  0  0  0  0  0  0  0
   11.4580   -6.5872    0.0000 H   0  0  0  0  0  0  0  0  0  0  0  0
    7.1280    6.5871    0.0000 H   0  0  0  0  0  0  0  0  0  0  0  0
   12.3171   -3.8396    0.0000 H   0  0  0  0  0  0  0  0  0  0  0  0
    7.9871    3.8396    0.0000 H   0  0  0  0  0  0  0  0  0  0  0  0
  1 57  1  0  0  0  0
  2 58  1  0  0  0  0
  3 47  2  0  0  0  0
  4 48  2  0  0  0  0
  5 15  1  0  0  0  0
  5 16  1  0  0  0  0
  5 23  1  0  0  0  0
  6 17  1  0  0  0  0
  6 18  1  0  0  0  0
  6 24  1  0  0  0  0
  7 19  1  0  0  0  0
  7 20  1  0  0  0  0
  7 27  1  0  0  0  0
  8 21  1  0  0  0  0
  8 22  1  0  0  0  0
  8 28  1  0  0  0  0
  9 13  1  0  0  0  0
  9 29  1  0  0  0  0
  9 31  1  0  0  0  0
 10 14  1  0  0  0  0
 10 30  1  0  0  0  0
 10 32  1  0  0  0  0
 11 23  2  0  0  0  0
 11 33  1  0  0  0  0
 12 24  2  0  0  0  0
 12 34  1  0  0  0  0
 13 47  1  0  0  0  0
 13 97  1  0  0  0  0
 14 48  1  0  0  0  0
 14 98  1  0  0  0  0
 15 19  1  0  0  0  0
 15 59  1  0  0  0  0
 15 60  1  0  0  0  0
 16 20  1  0  0  0  0
 16 61  1  0  0  0  0
 16 62  1  0  0  0  0
 17 21  1  0  0  0  0
 17 63  1  0  0  0  0
 17 64  1  0  0  0  0
 18 22  1  0  0  0  0
 18 65  1  0  0  0  0
 18 66  1  0  0  0  0
 19 67  1  0  0  0  0
 19 68  1  0  0  0  0
 20 69  1  0  0  0  0
 20 70  1  0  0  0  0
 21 71  1  0  0  0  0
 21 72  1  0  0  0  0
 22 73  1  0  0  0  0
 22 74  1  0  0  0  0
 23 25  1  0  0  0  0
 24 26  1  0  0  0  0
 25 29  1  0  0  0  0
 25 35  2  0  0  0  0
 26 30  1  0  0  0  0
 26 36  2  0  0  0  0
 27 75  1  0  0  0  0
 27 76  1  0  0  0  0
 27 77  1  0  0  0  0
 28 78  1  0  0  0  0
 28 79  1  0  0  0  0
 28 80  1  0  0  0  0
 29 41  2  0  0  0  0
 30 42  2  0  0  0  0
 31 33  2  0  0  0  0
 31 49  1  0  0  0  0
 32 34  2  0  0  0  0
 32 50  1  0  0  0  0
 33 53  1  0  0  0  0
 34 54  1  0  0  0  0
 35 45  1  0  0  0  0
 35 81  1  0  0  0  0
 36 46  1  0  0  0  0
 36 82  1  0  0  0  0
 37 38  1  0  0  0  0
 37 39  1  0  0  0  0
 37 83  1  0  0  0  0
 37 84  1  0  0  0  0
 38 40  1  0  0  0  0
 38 85  1  0  0  0  0
 38 86  1  0  0  0  0
 39 43  1  0  0  0  0
 39 87  1  0  0  0  0
 39 88  1  0  0  0  0
 40 44  1  0  0  0  0
 40 89  1  0  0  0  0
 40 90  1  0  0  0  0
 41 51  1  0  0  0  0
 41 91  1  0  0  0  0
 42 52  1  0  0  0  0
 42 92  1  0  0  0  0
 43 47  1  0  0  0  0
 43 93  1  0  0  0  0
 43 94  1  0  0  0  0
 44 48  1  0  0  0  0
 44 95  1  0  0  0  0
 44 96  1  0  0  0  0
 45 51  2  0  0  0  0
 45 99  1  0  0  0  0
 46 52  2  0  0  0  0
 46100  1  0  0  0  0
 49 55  2  0  0  0  0
 49101  1  0  0  0  0
 50 56  2  0  0  0  0
 50102  1  0  0  0  0
 51103  1  0  0  0  0
 52104  1  0  0  0  0
 53 57  2  0  0  0  0
 53105  1  0  0  0  0
 54 58  2  0  0  0  0
 54106  1  0  0  0  0
 55 57  1  0  0  0  0
 55107  1  0  0  0  0
 56 58  1  0  0  0  0
 56108  1  0  0  0  0
M  END
> <PUBCHEM_COMPOUND_CID>
57326982

> <PUBCHEM_COMPOUND_CANONICALIZED>
1

> <PUBCHEM_CACTVS_COMPLEXITY>
1350

> <PUBCHEM_CACTVS_HBOND_ACCEPTOR>
8

> <PUBCHEM_CACTVS_HBOND_DONOR>
2

> <PUBCHEM_CACTVS_ROTATABLE_BOND>
11

> <PUBCHEM_CACTVS_SUBSKEYS>
AAADcfB/8AAGAAAAAAAAAAAAAAAAAAAAAAA8eMGCBAgAAAABVAAAHgIYAAAADArBmCQzwINiAACoAidydACCBAEhBwAbqAEodpgIYPLB25GUIAhgkADIyAcYiICOAABAAAICACAAAIAABAQAQAAAAAAAAA==

> <PUBCHEM_IUPAC_OPENEYE_NAME>
N,N'-bis[3-chloro-6-(4-methylpiperazin-1-yl)benzo[b][1,4]benzodiazepin-11-yl]octanediamide

> <PUBCHEM_IUPAC_CAS_NAME>
N,N'-bis[3-chloro-6-(4-methyl-1-piperazinyl)-11-benzo[b][1,4]benzodiazepinyl]octanediamide

> <PUBCHEM_IUPAC_NAME_MARKUP>
<I>N</I>,<I>N</I>&apos;-bis[3-chloro-6-(4-methylpiperazin-1-yl)benzo[b][1,4]benzodiazepin-11-yl]octanediamide

> <PUBCHEM_IUPAC_NAME>
N,N'-bis[3-chloro-6-(4-methylpiperazin-1-yl)benzo[b][1,4]benzodiazepin-11-yl]octanediamide

> <PUBCHEM_IUPAC_SYSTEMATIC_NAME>
N,N'-bis[3-chloranyl-6-(4-methylpiperazin-1-yl)benzo[b][1,4]benzodiazepin-11-yl]octanediamide

> <PUBCHEM_IUPAC_TRADITIONAL_NAME>
N,N'-bis[3-chloro-6-(4-methylpiperazino)benzo[b][1,4]benzodiazepin-11-yl]suberamide

> <PUBCHEM_IUPAC_INCHI>
InChI=1S/C44H50Cl2N10O2/c1-51-21-25-53(26-22-51)43-33-11-7-9-13-37(33)55(39-19-17-31(45)29-35(39)47-43)49-41(57)15-5-3-4-6-16-42(58)50-56-38-14-10-8-12-34(38)44(54-27-23-52(2)24-28-54)48-36-30-32(46)18-20-40(36)56/h7-14,17-20,29-30H,3-6,15-16,21-28H2,1-2H3,(H,49,57)(H,50,58)

> <PUBCHEM_IUPAC_INCHIKEY>
YJNBVDQHEBIRRE-UHFFFAOYSA-N

> <PUBCHEM_XLOGP3_AA>
6.9

> <PUBCHEM_EXACT_MASS>
820.3495263

> <PUBCHEM_MOLECULAR_FORMULA>
C44H50Cl2N10O2

> <PUBCHEM_MOLECULAR_WEIGHT>
821.8

> <PUBCHEM_OPENEYE_CAN_SMILES>
CN1CCN(CC1)C2=NC3=C(C=CC(=C3)Cl)N(C4=CC=CC=C42)NC(=O)CCCCCCC(=O)NN5C6=C(C=C(C=C6)Cl)N=C(C7=CC=CC=C75)N8CCN(CC8)C

> <PUBCHEM_OPENEYE_ISO_SMILES>
CN1CCN(CC1)C2=NC3=C(C=CC(=C3)Cl)N(C4=CC=CC=C42)NC(=O)CCCCCCC(=O)NN5C6=C(C=C(C=C6)Cl)N=C(C7=CC=CC=C75)N8CCN(CC8)C

> <PUBCHEM_CACTVS_TPSA>
102

> <PUBCHEM_MONOISOTOPIC_WEIGHT>
820.3495263

> <PUBCHEM_TOTAL_CHARGE>
0

> <PUBCHEM_HEAVY_ATOM_COUNT>
58

> <PUBCHEM_ATOM_DEF_STEREO_COUNT>
0

> <PUBCHEM_ATOM_UDEF_STEREO_COUNT>
0

> <PUBCHEM_BOND_DEF_STEREO_COUNT>
0

> <PUBCHEM_BOND_UDEF_STEREO_COUNT>
0

> <PUBCHEM_ISOTOPIC_ATOM_COUNT>
0

> <PUBCHEM_COMPONENT_COUNT>
1

> <PUBCHEM_CACTVS_TAUTO_COUNT>
-1

> <PUBCHEM_COORDINATE_TYPE>
1
5
255

> <PUBCHEM_BONDANNOTATIONS>
25  29  8
25  35  8
26  30  8
26  36  8
29  41  8
30  42  8
31  33  8
31  49  8
32  34  8
32  50  8
33  53  8
34  54  8
35  45  8
36  46  8
41  51  8
42  52  8
45  51  8
46  52  8
49  55  8
50  56  8
53  57  8
54  58  8
55  57  8
56  58  8

$$$$
