101885475
  -OEChem-09292322002D

122125  0     1  0  0  0  0  0999 V2000
   12.3241   -4.7500    0.0000 O   0  0  0  0  0  0  0  0  0  0  0  0
    9.7260    4.7500    0.0000 O   0  0  0  0  0  0  0  0  0  0  0  0
   20.0500  -11.2500    0.0000 O   0  0  0  0  0  0  0  0  0  0  0  0
    2.0000   11.2500    0.0000 O   0  0  0  0  0  0  0  0  0  0  0  0
   15.7882   -7.7500    0.0000 N   0  0  3  0  0  0  0  0  0  0  0  0
    6.2619    7.7500    0.0000 N   0  0  3  0  0  0  0  0  0  0  0  0
   14.0561   -4.7500    0.0000 N   0  0  0  0  0  0  0  0  0  0  0  0
    7.9939    4.7500    0.0000 N   0  0  0  0  0  0  0  0  0  0  0  0
   18.4664  -12.0547    0.0000 N   0  0  0  0  0  0  0  0  0  0  0  0
    3.5836   12.0547    0.0000 N   0  0  0  0  0  0  0  0  0  0  0  0
   15.7882   -8.7500    0.0000 C   0  0  0  0  0  0  0  0  0  0  0  0
    6.2619    8.7500    0.0000 C   0  0  0  0  0  0  0  0  0  0  0  0
   11.4580   -0.2500    0.0000 C   0  0  0  0  0  0  0  0  0  0  0  0
   10.5920    0.2500    0.0000 C   0  0  0  0  0  0  0  0  0  0  0  0
   14.9221   -7.2500    0.0000 C   0  0  0  0  0  0  0  0  0  0  0  0
    7.1279    7.2500    0.0000 C   0  0  0  0  0  0  0  0  0  0  0  0
   16.6542   -9.2500    0.0000 C   0  0  0  0  0  0  0  0  0  0  0  0
    5.3958    9.2500    0.0000 C   0  0  0  0  0  0  0  0  0  0  0  0
   11.4580   -1.2500    0.0000 C   0  0  0  0  0  0  0  0  0  0  0  0
   10.5920    1.2500    0.0000 C   0  0  0  0  0  0  0  0  0  0  0  0
   12.3241   -1.7500    0.0000 C   0  0  0  0  0  0  0  0  0  0  0  0
    9.7260    1.7500    0.0000 C   0  0  0  0  0  0  0  0  0  0  0  0
   16.6542   -7.2500    0.0000 C   0  0  0  0  0  0  0  0  0  0  0  0
    5.3958    7.2500    0.0000 C   0  0  0  0  0  0  0  0  0  0  0  0
   16.6542  -10.2500    0.0000 C   0  0  0  0  0  0  0  0  0  0  0  0
    5.3958   10.2500    0.0000 C   0  0  0  0  0  0  0  0  0  0  0  0
   14.9221   -6.2500    0.0000 C   0  0  0  0  0  0  0  0  0  0  0  0
    7.1279    6.2500    0.0000 C   0  0  0  0  0  0  0  0  0  0  0  0
   17.5202  -10.7500    0.0000 C   0  0  0  0  0  0  0  0  0  0  0  0
    4.5298   10.7500    0.0000 C   0  0  0  0  0  0  0  0  0  0  0  0
   12.3241   -2.7500    0.0000 C   0  0  0  0  0  0  0  0  0  0  0  0
    9.7260    2.7500    0.0000 C   0  0  0  0  0  0  0  0  0  0  0  0
   14.0561   -5.7500    0.0000 C   0  0  0  0  0  0  0  0  0  0  0  0
    7.9939    5.7500    0.0000 C   0  0  0  0  0  0  0  0  0  0  0  0
   16.6542   -6.2500    0.0000 C   0  0  0  0  0  0  0  0  0  0  0  0
    4.5298    7.7500    0.0000 C   0  0  0  0  0  0  0  0  0  0  0  0
   18.4664  -10.4453    0.0000 C   0  0  0  0  0  0  0  0  0  0  0  0
    3.5836   10.4453    0.0000 C   0  0  0  0  0  0  0  0  0  0  0  0
   13.1901   -3.2500    0.0000 C   0  0  0  0  0  0  0  0  0  0  0  0
    8.8600    3.2500    0.0000 C   0  0  0  0  0  0  0  0  0  0  0  0
   17.5202  -11.7500    0.0000 C   0  0  0  0  0  0  0  0  0  0  0  0
    4.5298   11.7500    0.0000 C   0  0  0  0  0  0  0  0  0  0  0  0
   15.7882  -10.7500    0.0000 C   0  0  0  0  0  0  0  0  0  0  0  0
    6.2619   10.7500    0.0000 C   0  0  0  0  0  0  0  0  0  0  0  0
   13.1901   -4.2500    0.0000 C   0  0  0  0  0  0  0  0  0  0  0  0
    8.8600    4.2500    0.0000 C   0  0  0  0  0  0  0  0  0  0  0  0
   19.0500  -11.2500    0.0000 C   0  0  0  0  0  0  0  0  0  0  0  0
    3.0000   11.2500    0.0000 C   0  0  0  0  0  0  0  0  0  0  0  0
   16.6542  -12.2500    0.0000 C   0  0  0  0  0  0  0  0  0  0  0  0
    5.3958   12.2500    0.0000 C   0  0  0  0  0  0  0  0  0  0  0  0
   15.7882  -11.7500    0.0000 C   0  0  0  0  0  0  0  0  0  0  0  0
    6.2619   11.7500    0.0000 C   0  0  0  0  0  0  0  0  0  0  0  0
   17.5202   -5.7500    0.0000 C   0  0  0  0  0  0  0  0  0  0  0  0
    3.6638    7.2500    0.0000 C   0  0  0  0  0  0  0  0  0  0  0  0
   15.1776   -8.6423    0.0000 H   0  0  0  0  0  0  0  0  0  0  0  0
   15.5761   -9.3326    0.0000 H   0  0  0  0  0  0  0  0  0  0  0  0
    6.8725    8.6423    0.0000 H   0  0  0  0  0  0  0  0  0  0  0  0
    6.4739    9.3326    0.0000 H   0  0  0  0  0  0  0  0  0  0  0  0
   12.0686   -0.3577    0.0000 H   0  0  0  0  0  0  0  0  0  0  0  0
   11.6701    0.3326    0.0000 H   0  0  0  0  0  0  0  0  0  0  0  0
    9.9814    0.3577    0.0000 H   0  0  0  0  0  0  0  0  0  0  0  0
   10.3800   -0.3326    0.0000 H   0  0  0  0  0  0  0  0  0  0  0  0
   14.3116   -7.1423    0.0000 H   0  0  0  0  0  0  0  0  0  0  0  0
   14.7101   -7.8326    0.0000 H   0  0  0  0  0  0  0  0  0  0  0  0
    7.7385    7.1423    0.0000 H   0  0  0  0  0  0  0  0  0  0  0  0
    7.3400    7.8326    0.0000 H   0  0  0  0  0  0  0  0  0  0  0  0
   17.2648   -9.3577    0.0000 H   0  0  0  0  0  0  0  0  0  0  0  0
   16.8662   -8.6674    0.0000 H   0  0  0  0  0  0  0  0  0  0  0  0
    4.7853    9.3577    0.0000 H   0  0  0  0  0  0  0  0  0  0  0  0
    5.1838    8.6674    0.0000 H   0  0  0  0  0  0  0  0  0  0  0  0
   10.8475   -1.1423    0.0000 H   0  0  0  0  0  0  0  0  0  0  0  0
   11.2460   -1.8326    0.0000 H   0  0  0  0  0  0  0  0  0  0  0  0
   11.2026    1.1423    0.0000 H   0  0  0  0  0  0  0  0  0  0  0  0
   10.8041    1.8326    0.0000 H   0  0  0  0  0  0  0  0  0  0  0  0
   12.9346   -1.8577    0.0000 H   0  0  0  0  0  0  0  0  0  0  0  0
   12.5361   -1.1674    0.0000 H   0  0  0  0  0  0  0  0  0  0  0  0
    9.1154    1.8577    0.0000 H   0  0  0  0  0  0  0  0  0  0  0  0
    9.5139    1.1674    0.0000 H   0  0  0  0  0  0  0  0  0  0  0  0
   16.8662   -7.8326    0.0000 H   0  0  0  0  0  0  0  0  0  0  0  0
   17.2648   -7.1423    0.0000 H   0  0  0  0  0  0  0  0  0  0  0  0
    4.9973    6.7750    0.0000 H   0  0  0  0  0  0  0  0  0  0  0  0
    5.7944    6.7750    0.0000 H   0  0  0  0  0  0  0  0  0  0  0  0
   15.5327   -6.3577    0.0000 H   0  0  0  0  0  0  0  0  0  0  0  0
   15.1342   -5.6674    0.0000 H   0  0  0  0  0  0  0  0  0  0  0  0
    6.5173    6.3577    0.0000 H   0  0  0  0  0  0  0  0  0  0  0  0
    6.9158    5.6674    0.0000 H   0  0  0  0  0  0  0  0  0  0  0  0
   11.7135   -2.6423    0.0000 H   0  0  0  0  0  0  0  0  0  0  0  0
   12.1120   -3.3326    0.0000 H   0  0  0  0  0  0  0  0  0  0  0  0
   10.3366    2.6423    0.0000 H   0  0  0  0  0  0  0  0  0  0  0  0
    9.9380    3.3326    0.0000 H   0  0  0  0  0  0  0  0  0  0  0  0
   13.4455   -5.6423    0.0000 H   0  0  0  0  0  0  0  0  0  0  0  0
   13.8441   -6.3326    0.0000 H   0  0  0  0  0  0  0  0  0  0  0  0
    8.6045    5.6423    0.0000 H   0  0  0  0  0  0  0  0  0  0  0  0
    8.2060    6.3326    0.0000 H   0  0  0  0  0  0  0  0  0  0  0  0
   16.4421   -5.6674    0.0000 H   0  0  0  0  0  0  0  0  0  0  0  0
   16.0436   -6.3577    0.0000 H   0  0  0  0  0  0  0  0  0  0  0  0
    4.9284    8.2250    0.0000 H   0  0  0  0  0  0  0  0  0  0  0  0
    4.1313    8.2250    0.0000 H   0  0  0  0  0  0  0  0  0  0  0  0
   19.0038  -10.1360    0.0000 H   0  0  0  0  0  0  0  0  0  0  0  0
   18.2154   -9.8784    0.0000 H   0  0  0  0  0  0  0  0  0  0  0  0
    3.0462   10.1360    0.0000 H   0  0  0  0  0  0  0  0  0  0  0  0
    3.8346    9.8784    0.0000 H   0  0  0  0  0  0  0  0  0  0  0  0
   13.8007   -3.3577    0.0000 H   0  0  0  0  0  0  0  0  0  0  0  0
   13.4021   -2.6674    0.0000 H   0  0  0  0  0  0  0  0  0  0  0  0
    8.2494    3.3577    0.0000 H   0  0  0  0  0  0  0  0  0  0  0  0
    8.6479    2.6674    0.0000 H   0  0  0  0  0  0  0  0  0  0  0  0
   15.2512  -10.4400    0.0000 H   0  0  0  0  0  0  0  0  0  0  0  0
    6.7988   10.4400    0.0000 H   0  0  0  0  0  0  0  0  0  0  0  0
   14.5930   -4.4400    0.0000 H   0  0  0  0  0  0  0  0  0  0  0  0
    7.4570    4.4400    0.0000 H   0  0  0  0  0  0  0  0  0  0  0  0
   18.6590  -12.6441    0.0000 H   0  0  0  0  0  0  0  0  0  0  0  0
    3.3910   12.6441    0.0000 H   0  0  0  0  0  0  0  0  0  0  0  0
   16.6542  -12.8700    0.0000 H   0  0  0  0  0  0  0  0  0  0  0  0
    5.3958   12.8700    0.0000 H   0  0  0  0  0  0  0  0  0  0  0  0
   15.2512  -12.0600    0.0000 H   0  0  0  0  0  0  0  0  0  0  0  0
    6.7988   12.0600    0.0000 H   0  0  0  0  0  0  0  0  0  0  0  0
   17.8302   -6.2869    0.0000 H   0  0  0  0  0  0  0  0  0  0  0  0
   18.0571   -5.4400    0.0000 H   0  0  0  0  0  0  0  0  0  0  0  0
   17.2102   -5.2131    0.0000 H   0  0  0  0  0  0  0  0  0  0  0  0
    3.3538    7.7869    0.0000 H   0  0  0  0  0  0  0  0  0  0  0  0
    3.1269    6.9400    0.0000 H   0  0  0  0  0  0  0  0  0  0  0  0
    3.9738    6.7131    0.0000 H   0  0  0  0  0  0  0  0  0  0  0  0
  1 45  2  0  0  0  0
  2 46  2  0  0  0  0
  3 47  2  0  0  0  0
  4 48  2  0  0  0  0
  5 11  1  0  0  0  0
  5 15  1  0  0  0  0
  5 23  1  0  0  0  0
  6 12  1  0  0  0  0
  6 16  1  0  0  0  0
  6 24  1  0  0  0  0
  7 33  1  0  0  0  0
  7 45  1  0  0  0  0
  7109  1  0  0  0  0
  8 34  1  0  0  0  0
  8 46  1  0  0  0  0
  8110  1  0  0  0  0
  9 41  1  0  0  0  0
  9 47  1  0  0  0  0
  9111  1  0  0  0  0
 10 42  1  0  0  0  0
 10 48  1  0  0  0  0
 10112  1  0  0  0  0
 11 17  1  0  0  0  0
 11 55  1  0  0  0  0
 11 56  1  0  0  0  0
 12 18  1  0  0  0  0
 12 57  1  0  0  0  0
 12 58  1  0  0  0  0
 13 14  1  0  0  0  0
 13 19  1  0  0  0  0
 13 59  1  0  0  0  0
 13 60  1  0  0  0  0
 14 20  1  0  0  0  0
 14 61  1  0  0  0  0
 14 62  1  0  0  0  0
 15 27  1  0  0  0  0
 15 63  1  0  0  0  0
 15 64  1  0  0  0  0
 16 28  1  0  0  0  0
 16 65  1  0  0  0  0
 16 66  1  0  0  0  0
 17 25  1  0  0  0  0
 17 67  1  0  0  0  0
 17 68  1  0  0  0  0
 18 26  1  0  0  0  0
 18 69  1  0  0  0  0
 18 70  1  0  0  0  0
 19 21  1  0  0  0  0
 19 71  1  0  0  0  0
 19 72  1  0  0  0  0
 20 22  1  0  0  0  0
 20 73  1  0  0  0  0
 20 74  1  0  0  0  0
 21 31  1  0  0  0  0
 21 75  1  0  0  0  0
 21 76  1  0  0  0  0
 22 32  1  0  0  0  0
 22 77  1  0  0  0  0
 22 78  1  0  0  0  0
 23 35  1  0  0  0  0
 23 79  1  0  0  0  0
 23 80  1  0  0  0  0
 24 36  1  0  0  0  0
 24 81  1  0  0  0  0
 24 82  1  0  0  0  0
 25 29  2  0  0  0  0
 25 43  1  0  0  0  0
 26 30  2  0  0  0  0
 26 44  1  0  0  0  0
 27 33  1  0  0  0  0
 27 83  1  0  0  0  0
 27 84  1  0  0  0  0
 28 34  1  0  0  0  0
 28 85  1  0  0  0  0
 28 86  1  0  0  0  0
 29 37  1  0  0  0  0
 29 41  1  0  0  0  0
 30 38  1  0  0  0  0
 30 42  1  0  0  0  0
 31 39  1  0  0  0  0
 31 87  1  0  0  0  0
 31 88  1  0  0  0  0
 32 40  1  0  0  0  0
 32 89  1  0  0  0  0
 32 90  1  0  0  0  0
 33 91  1  0  0  0  0
 33 92  1  0  0  0  0
 34 93  1  0  0  0  0
 34 94  1  0  0  0  0
 35 53  1  0  0  0  0
 35 95  1  0  0  0  0
 35 96  1  0  0  0  0
 36 54  1  0  0  0  0
 36 97  1  0  0  0  0
 36 98  1  0  0  0  0
 37 47  1  0  0  0  0
 37 99  1  0  0  0  0
 37100  1  0  0  0  0
 38 48  1  0  0  0  0
 38101  1  0  0  0  0
 38102  1  0  0  0  0
 39 45  1  0  0  0  0
 39103  1  0  0  0  0
 39104  1  0  0  0  0
 40 46  1  0  0  0  0
 40105  1  0  0  0  0
 40106  1  0  0  0  0
 41 49  2  0  0  0  0
 42 50  2  0  0  0  0
 43 51  2  0  0  0  0
 43107  1  0  0  0  0
 44 52  2  0  0  0  0
 44108  1  0  0  0  0
 49 51  1  0  0  0  0
 49113  1  0  0  0  0
 50 52  1  0  0  0  0
 50114  1  0  0  0  0
 51115  1  0  0  0  0
 52116  1  0  0  0  0
 53117  1  0  0  0  0
 53118  1  0  0  0  0
 53119  1  0  0  0  0
 54120  1  0  0  0  0
 54121  1  0  0  0  0
 54122  1  0  0  0  0
M  END
> <PUBCHEM_COMPOUND_CID>
101885475

> <PUBCHEM_COMPOUND_CANONICALIZED>
1

> <PUBCHEM_CACTVS_COMPLEXITY>
1020

> <PUBCHEM_CACTVS_HBOND_ACCEPTOR>
6

> <PUBCHEM_CACTVS_HBOND_DONOR>
4

> <PUBCHEM_CACTVS_ROTATABLE_BOND>
29

> <PUBCHEM_CACTVS_SUBSKEYS>
AAADcfB/uAAAAAAAAAAAAAAAAAAAAWLAAAAwYAAAAAAAAFgBQAAAHgAQAAAADAjBmAQywIPAAACIAiVSUACCAAAhAgAIiIEIZIgIIDLA1ZGEIAhglgDIyAcciICOgAAAQAASAAAAAACAACQAAAAAAAAAAA==

> <PUBCHEM_IUPAC_OPENEYE_NAME>
N,N'-bis[3-[2-(2-oxoindolin-4-yl)ethyl-propyl-amino]propyl]dodecanediamide

> <PUBCHEM_IUPAC_CAS_NAME>
N,N'-bis[3-[2-(2-oxo-1,3-dihydroindol-4-yl)ethyl-propylamino]propyl]dodecanediamide

> <PUBCHEM_IUPAC_NAME_MARKUP>
<I>N</I>,<I>N</I>&apos;-bis[3-[2-(2-oxo-1,3-dihydroindol-4-yl)ethyl-propylamino]propyl]dodecanediamide

> <PUBCHEM_IUPAC_NAME>
N,N'-bis[3-[2-(2-oxo-1,3-dihydroindol-4-yl)ethyl-propylamino]propyl]dodecanediamide

> <PUBCHEM_IUPAC_SYSTEMATIC_NAME>
N,N'-bis[3-[2-(2-oxidanylidene-1,3-dihydroindol-4-yl)ethyl-propyl-amino]propyl]dodecanediamide

> <PUBCHEM_IUPAC_TRADITIONAL_NAME>
N,N'-bis[3-[2-(2-ketoindolin-4-yl)ethyl-propyl-amino]propyl]dodecanediamide

> <PUBCHEM_IUPAC_INCHI>
InChI=1S/C44H68N6O4/c1-3-27-49(31-23-35-17-13-19-39-37(35)33-43(53)47-39)29-15-25-45-41(51)21-11-9-7-5-6-8-10-12-22-42(52)46-26-16-30-50(28-4-2)32-24-36-18-14-20-40-38(36)34-44(54)48-40/h13-14,17-20H,3-12,15-16,21-34H2,1-2H3,(H,45,51)(H,46,52)(H,47,53)(H,48,54)

> <PUBCHEM_IUPAC_INCHIKEY>
RWRBNIAIUBPSNY-UHFFFAOYSA-N

> <PUBCHEM_XLOGP3_AA>
6.9

> <PUBCHEM_EXACT_MASS>
744.53020467

> <PUBCHEM_MOLECULAR_FORMULA>
C44H68N6O4

> <PUBCHEM_MOLECULAR_WEIGHT>
745.0

> <PUBCHEM_OPENEYE_CAN_SMILES>
CCCN(CCCNC(=O)CCCCCCCCCCC(=O)NCCCN(CCC)CCC1=C2CC(=O)NC2=CC=C1)CCC3=C4CC(=O)NC4=CC=C3

> <PUBCHEM_OPENEYE_ISO_SMILES>
CCCN(CCCNC(=O)CCCCCCCCCCC(=O)NCCCN(CCC)CCC1=C2CC(=O)NC2=CC=C1)CCC3=C4CC(=O)NC4=CC=C3

> <PUBCHEM_CACTVS_TPSA>
123

> <PUBCHEM_MONOISOTOPIC_WEIGHT>
744.53020467

> <PUBCHEM_TOTAL_CHARGE>
0

> <PUBCHEM_HEAVY_ATOM_COUNT>
54

> <PUBCHEM_ATOM_DEF_STEREO_COUNT>
0

> <PUBCHEM_ATOM_UDEF_STEREO_COUNT>
0

> <PUBCHEM_BOND_DEF_STEREO_COUNT>
0

> <PUBCHEM_BOND_UDEF_STEREO_COUNT>
0

> <PUBCHEM_ISOTOPIC_ATOM_COUNT>
0

> <PUBCHEM_COMPONENT_COUNT>
1

> <PUBCHEM_CACTVS_TAUTO_COUNT>
-1

> <PUBCHEM_COORDINATE_TYPE>
1
5
255

> <PUBCHEM_BONDANNOTATIONS>
25  29  8
25  43  8
26  30  8
26  44  8
29  41  8
30  42  8
41  49  8
42  50  8
43  51  8
44  52  8
49  51  8
50  52  8

$$$$
