164616272
  -OEChem-09292322432D

 63 67  0     1  0  0  0  0  0999 V2000
    5.4176    5.5320    0.0000 O   0  0  0  0  0  0  0  0  0  0  0  0
    8.0436    3.9974    0.0000 O   0  0  0  0  0  0  0  0  0  0  0  0
    2.0000   -0.5771    0.0000 O   0  0  0  0  0  0  0  0  0  0  0  0
    5.4176    3.4627    0.0000 N   0  0  3  0  0  0  0  0  0  0  0  0
    3.7319   -0.5571    0.0000 N   0  0  0  0  0  0  0  0  0  0  0  0
    6.3116    3.9974    0.0000 C   0  0  1  0  0  0  0  0  0  0  0  0
    6.3116    4.9974    0.0000 C   0  0  1  0  0  0  0  0  0  0  0  0
    4.5116    3.9766    0.0000 C   0  0  0  0  0  0  0  0  0  0  0  0
    7.1776    3.4974    0.0000 C   0  0  0  0  0  0  0  0  0  0  0  0
    5.4292    2.4628    0.0000 C   0  0  0  0  0  0  0  0  0  0  0  0
    7.1776    5.4974    0.0000 C   0  0  0  0  0  0  0  0  0  0  0  0
    4.5116    5.0182    0.0000 C   0  0  0  0  0  0  0  0  0  0  0  0
    4.5690    1.9528    0.0000 C   0  0  0  0  0  0  0  0  0  0  0  0
    8.0436    4.9974    0.0000 C   0  0  0  0  0  0  0  0  0  0  0  0
    4.5806    0.9529    0.0000 C   0  0  0  0  0  0  0  0  0  0  0  0
    7.1615    6.5389    0.0000 C   0  0  0  0  0  0  0  0  0  0  0  0
    8.9536    5.5042    0.0000 C   0  0  0  0  0  0  0  0  0  0  0  0
    3.7204    0.4429    0.0000 C   0  0  0  0  0  0  0  0  0  0  0  0
    8.0596    7.0666    0.0000 C   0  0  0  0  0  0  0  0  0  0  0  0
    8.9616    6.5458    0.0000 C   0  0  0  0  0  0  0  0  0  0  0  0
    2.8718   -1.0670    0.0000 C   0  0  0  0  0  0  0  0  0  0  0  0
    2.8833   -2.0670    0.0000 C   0  0  0  0  0  0  0  0  0  0  0  0
    3.7551   -2.5569    0.0000 C   0  0  0  0  0  0  0  0  0  0  0  0
    2.0231   -2.5770    0.0000 C   0  0  0  0  0  0  0  0  0  0  0  0
    2.9064   -4.0668    0.0000 C   0  0  0  0  0  0  0  0  0  0  0  0
    3.7666   -3.5568    0.0000 C   0  0  0  0  0  0  0  0  0  0  0  0
    2.0347   -3.5769    0.0000 C   0  0  0  0  0  0  0  0  0  0  0  0
    2.9180   -5.0668    0.0000 C   0  0  0  0  0  0  0  0  0  0  0  0
    3.7898   -5.5567    0.0000 C   0  0  0  0  0  0  0  0  0  0  0  0
    2.0578   -5.5768    0.0000 C   0  0  0  0  0  0  0  0  0  0  0  0
    3.8013   -6.5566    0.0000 C   0  0  0  0  0  0  0  0  0  0  0  0
    2.0694   -6.5767    0.0000 C   0  0  0  0  0  0  0  0  0  0  0  0
    2.9411   -7.0666    0.0000 C   0  0  0  0  0  0  0  0  0  0  0  0
    6.3181    3.1474    0.0000 H   0  0  0  0  0  0  0  0  0  0  0  0
    6.3181    5.8473    0.0000 H   0  0  0  0  0  0  0  0  0  0  0  0
    3.9007    4.0826    0.0000 H   0  0  0  0  0  0  0  0  0  0  0  0
    4.3025    3.3929    0.0000 H   0  0  0  0  0  0  0  0  0  0  0  0
    6.7791    3.0224    0.0000 H   0  0  0  0  0  0  0  0  0  0  0  0
    7.5761    3.0224    0.0000 H   0  0  0  0  0  0  0  0  0  0  0  0
    5.6480    1.8827    0.0000 H   0  0  0  0  0  0  0  0  0  0  0  0
    6.0385    2.5775    0.0000 H   0  0  0  0  0  0  0  0  0  0  0  0
    4.3025    5.6019    0.0000 H   0  0  0  0  0  0  0  0  0  0  0  0
    3.9007    4.9121    0.0000 H   0  0  0  0  0  0  0  0  0  0  0  0
    4.3502    2.5329    0.0000 H   0  0  0  0  0  0  0  0  0  0  0  0
    3.9597    1.8381    0.0000 H   0  0  0  0  0  0  0  0  0  0  0  0
    4.7993    0.3727    0.0000 H   0  0  0  0  0  0  0  0  0  0  0  0
    5.1898    1.0676    0.0000 H   0  0  0  0  0  0  0  0  0  0  0  0
    6.6210    6.8426    0.0000 H   0  0  0  0  0  0  0  0  0  0  0  0
    9.4869    5.1880    0.0000 H   0  0  0  0  0  0  0  0  0  0  0  0
    3.5016    1.0230    0.0000 H   0  0  0  0  0  0  0  0  0  0  0  0
    3.1111    0.3282    0.0000 H   0  0  0  0  0  0  0  0  0  0  0  0
    8.0572    7.6866    0.0000 H   0  0  0  0  0  0  0  0  0  0  0  0
    9.4998    6.8537    0.0000 H   0  0  0  0  0  0  0  0  0  0  0  0
    4.2724   -0.8608    0.0000 H   0  0  0  0  0  0  0  0  0  0  0  0
    4.2884   -2.2407    0.0000 H   0  0  0  0  0  0  0  0  0  0  0  0
    1.4826   -2.2732    0.0000 H   0  0  0  0  0  0  0  0  0  0  0  0
    4.3071   -3.8606    0.0000 H   0  0  0  0  0  0  0  0  0  0  0  0
    1.5014   -3.8931    0.0000 H   0  0  0  0  0  0  0  0  0  0  0  0
    4.3231   -5.2405    0.0000 H   0  0  0  0  0  0  0  0  0  0  0  0
    1.5173   -5.2730    0.0000 H   0  0  0  0  0  0  0  0  0  0  0  0
    4.3418   -6.8604    0.0000 H   0  0  0  0  0  0  0  0  0  0  0  0
    1.5361   -6.8929    0.0000 H   0  0  0  0  0  0  0  0  0  0  0  0
    2.9483   -7.6866    0.0000 H   0  0  0  0  0  0  0  0  0  0  0  0
  1  7  1  0  0  0  0
  1 12  1  0  0  0  0
  2  9  1  0  0  0  0
  2 14  1  0  0  0  0
  3 21  2  0  0  0  0
  4  6  1  0  0  0  0
  4  8  1  0  0  0  0
  4 10  1  0  0  0  0
  5 18  1  0  0  0  0
  5 21  1  0  0  0  0
  5 54  1  0  0  0  0
  6  7  1  0  0  0  0
  6  9  1  0  0  0  0
  6 34  1  6  0  0  0
  7 11  1  0  0  0  0
  7 35  1  1  0  0  0
  8 12  1  0  0  0  0
  8 36  1  0  0  0  0
  8 37  1  0  0  0  0
  9 38  1  0  0  0  0
  9 39  1  0  0  0  0
 10 13  1  0  0  0  0
 10 40  1  0  0  0  0
 10 41  1  0  0  0  0
 11 14  1  0  0  0  0
 11 16  2  0  0  0  0
 12 42  1  0  0  0  0
 12 43  1  0  0  0  0
 13 15  1  0  0  0  0
 13 44  1  0  0  0  0
 13 45  1  0  0  0  0
 14 17  2  0  0  0  0
 15 18  1  0  0  0  0
 15 46  1  0  0  0  0
 15 47  1  0  0  0  0
 16 19  1  0  0  0  0
 16 48  1  0  0  0  0
 17 20  1  0  0  0  0
 17 49  1  0  0  0  0
 18 50  1  0  0  0  0
 18 51  1  0  0  0  0
 19 20  2  0  0  0  0
 19 52  1  0  0  0  0
 20 53  1  0  0  0  0
 21 22  1  0  0  0  0
 22 23  2  0  0  0  0
 22 24  1  0  0  0  0
 23 26  1  0  0  0  0
 23 55  1  0  0  0  0
 24 27  2  0  0  0  0
 24 56  1  0  0  0  0
 25 26  2  0  0  0  0
 25 27  1  0  0  0  0
 25 28  1  0  0  0  0
 26 57  1  0  0  0  0
 27 58  1  0  0  0  0
 28 29  2  0  0  0  0
 28 30  1  0  0  0  0
 29 31  1  0  0  0  0
 29 59  1  0  0  0  0
 30 32  2  0  0  0  0
 30 60  1  0  0  0  0
 31 33  2  0  0  0  0
 31 61  1  0  0  0  0
 32 33  1  0  0  0  0
 32 62  1  0  0  0  0
 33 63  1  0  0  0  0
M  END
> <PUBCHEM_COMPOUND_CID>
164616272

> <PUBCHEM_COMPOUND_CANONICALIZED>
1

> <PUBCHEM_CACTVS_COMPLEXITY>
614

> <PUBCHEM_CACTVS_HBOND_ACCEPTOR>
4

> <PUBCHEM_CACTVS_HBOND_DONOR>
1

> <PUBCHEM_CACTVS_ROTATABLE_BOND>
7

> <PUBCHEM_CACTVS_SUBSKEYS>
AAADceB7MAAAAAAAAAAAAAAAAAAAAAAAAAA8aMECAAAAAACxUAAAHgAQAAAADDzhmAYwBoPABACIAiFSEACCCAAkIAAIiIEODMgOJzKEtRuHOSjl1hGYqYe4yOCOwAAAAAAIAACAAAAAABAAAAAAAAAAAA==

> <PUBCHEM_IUPAC_OPENEYE_NAME>
N-[4-[(4aR,10bR)-3,4a,5,10b-tetrahydro-2H-chromeno[4,3-b][1,4]oxazin-4-yl]butyl]-4-phenyl-benzamide

> <PUBCHEM_IUPAC_CAS_NAME>
N-[4-[(4aR,10bR)-3,4a,5,10b-tetrahydro-2H-[1]benzopyrano[4,3-b][1,4]oxazin-4-yl]butyl]-4-phenylbenzamide

> <PUBCHEM_IUPAC_NAME_MARKUP>
<I>N</I>-[4-[(4<I>a</I><I>R</I>,10<I>b</I><I>R</I>)-3,4<I>a</I>,5,10<I>b</I>-tetrahydro-2<I>H</I>-chromeno[4,3-b][1,4]oxazin-4-yl]butyl]-4-phenylbenzamide

> <PUBCHEM_IUPAC_NAME>
N-[4-[(4aR,10bR)-3,4a,5,10b-tetrahydro-2H-chromeno[4,3-b][1,4]oxazin-4-yl]butyl]-4-phenylbenzamide

> <PUBCHEM_IUPAC_SYSTEMATIC_NAME>
N-[4-[(4aR,10bR)-3,4a,5,10b-tetrahydro-2H-chromeno[4,3-b][1,4]oxazin-4-yl]butyl]-4-phenyl-benzamide

> <PUBCHEM_IUPAC_TRADITIONAL_NAME>
N-[4-[(4aR,10bR)-3,4a,5,10b-tetrahydro-2H-chromeno[4,3-b][1,4]oxazin-4-yl]butyl]-4-phenyl-benzamide

> <PUBCHEM_IUPAC_INCHI>
InChI=1S/C28H30N2O3/c31-28(23-14-12-22(13-15-23)21-8-2-1-3-9-21)29-16-6-7-17-30-18-19-32-27-24-10-4-5-11-26(24)33-20-25(27)30/h1-5,8-15,25,27H,6-7,16-20H2,(H,29,31)/t25-,27-/m1/s1

> <PUBCHEM_IUPAC_INCHIKEY>
VXNGRJYOYXAYSC-XNMGPUDCSA-N

> <PUBCHEM_XLOGP3>
4.7

> <PUBCHEM_EXACT_MASS>
442.22564282

> <PUBCHEM_MOLECULAR_FORMULA>
C28H30N2O3

> <PUBCHEM_MOLECULAR_WEIGHT>
442.5

> <PUBCHEM_OPENEYE_CAN_SMILES>
C1COC2C(N1CCCCNC(=O)C3=CC=C(C=C3)C4=CC=CC=C4)COC5=CC=CC=C25

> <PUBCHEM_OPENEYE_ISO_SMILES>
C1CO[C@H]2[C@H](N1CCCCNC(=O)C3=CC=C(C=C3)C4=CC=CC=C4)COC5=CC=CC=C25

> <PUBCHEM_CACTVS_TPSA>
50.8

> <PUBCHEM_MONOISOTOPIC_WEIGHT>
442.22564282

> <PUBCHEM_TOTAL_CHARGE>
0

> <PUBCHEM_HEAVY_ATOM_COUNT>
33

> <PUBCHEM_ATOM_DEF_STEREO_COUNT>
2

> <PUBCHEM_ATOM_UDEF_STEREO_COUNT>
0

> <PUBCHEM_BOND_DEF_STEREO_COUNT>
0

> <PUBCHEM_BOND_UDEF_STEREO_COUNT>
0

> <PUBCHEM_ISOTOPIC_ATOM_COUNT>
0

> <PUBCHEM_COMPONENT_COUNT>
1

> <PUBCHEM_CACTVS_TAUTO_COUNT>
-1

> <PUBCHEM_COORDINATE_TYPE>
1
5
255

> <PUBCHEM_BONDANNOTATIONS>
11  14  8
11  16  8
14  17  8
16  19  8
17  20  8
19  20  8
22  23  8
22  24  8
23  26  8
24  27  8
25  26  8
25  27  8
28  29  8
28  30  8
29  31  8
30  32  8
31  33  8
32  33  8
6  34  6
7  35  5

$$$$
