155528048
  -OEChem-09292322402D

 60 64  0     1  0  0  0  0  0999 V2000
    7.0758    5.2067    0.0000 S   0  0  0  0  0  0  0  0  0  0  0  0
    2.8070   -1.9301    0.0000 O   0  0  0  0  0  0  0  0  0  0  0  0
    4.5390   -1.9301    0.0000 N   0  0  0  0  0  0  0  0  0  0  0  0
    6.2711    2.0699    0.0000 N   0  0  3  0  0  0  0  0  0  0  0  0
    5.4663    5.2067    0.0000 N   0  0  0  0  0  0  0  0  0  0  0  0
    3.6730   -3.4301    0.0000 C   0  0  0  0  0  0  0  0  0  0  0  0
    4.5092   -4.8784    0.0000 C   0  0  0  0  0  0  0  0  0  0  0  0
    2.8368   -4.8784    0.0000 C   0  0  0  0  0  0  0  0  0  0  0  0
    2.9819   -5.3136    0.0000 C   0  0  0  0  0  0  0  0  0  0  0  0
    4.5092   -3.9129    0.0000 C   0  0  0  0  0  0  0  0  0  0  0  0
    2.8368   -3.9129    0.0000 C   0  0  0  0  0  0  0  0  0  0  0  0
    2.9819   -4.2682    0.0000 C   0  0  0  0  0  0  0  0  0  0  0  0
    3.6730   -5.1812    0.0000 C   0  0  0  0  0  0  0  0  0  0  0  0
    3.8876   -5.7904    0.0000 C   0  0  0  0  0  0  0  0  0  0  0  0
    2.0000   -5.3612    0.0000 C   0  0  0  0  0  0  0  0  0  0  0  0
    3.6730   -2.4301    0.0000 C   0  0  0  0  0  0  0  0  0  0  0  0
    4.5390   -0.9301    0.0000 C   0  0  0  0  0  0  0  0  0  0  0  0
    5.4050   -0.4301    0.0000 C   0  0  0  0  0  0  0  0  0  0  0  0
    5.4050    0.5699    0.0000 C   0  0  0  0  0  0  0  0  0  0  0  0
    6.2711    1.0699    0.0000 C   0  0  0  0  0  0  0  0  0  0  0  0
    7.1720    2.5038    0.0000 C   0  0  0  0  0  0  0  0  0  0  0  0
    5.3701    2.5038    0.0000 C   0  0  0  0  0  0  0  0  0  0  0  0
    7.3945    3.4787    0.0000 C   0  0  0  0  0  0  0  0  0  0  0  0
    5.1476    3.4787    0.0000 C   0  0  0  0  0  0  0  0  0  0  0  0
    6.7710    4.2605    0.0000 C   0  0  0  0  0  0  0  0  0  0  0  0
    5.7710    4.2605    0.0000 C   0  0  0  0  0  0  0  0  0  0  0  0
    6.2710    5.7904    0.0000 C   0  0  0  0  0  0  0  0  0  0  0  0
    5.1016   -5.0612    0.0000 H   0  0  0  0  0  0  0  0  0  0  0  0
    3.3444   -4.5224    0.0000 H   0  0  0  0  0  0  0  0  0  0  0  0
    2.8478   -5.9189    0.0000 H   0  0  0  0  0  0  0  0  0  0  0  0
    5.1198   -4.0206    0.0000 H   0  0  0  0  0  0  0  0  0  0  0  0
    4.7212   -3.3303    0.0000 H   0  0  0  0  0  0  0  0  0  0  0  0
    2.6247   -3.3303    0.0000 H   0  0  0  0  0  0  0  0  0  0  0  0
    2.2262   -4.0206    0.0000 H   0  0  0  0  0  0  0  0  0  0  0  0
    2.6383   -3.7522    0.0000 H   0  0  0  0  0  0  0  0  0  0  0  0
    2.3885   -4.4478    0.0000 H   0  0  0  0  0  0  0  0  0  0  0  0
    3.3030   -5.6788    0.0000 H   0  0  0  0  0  0  0  0  0  0  0  0
    4.0430   -5.6787    0.0000 H   0  0  0  0  0  0  0  0  0  0  0  0
    3.5782   -6.3276    0.0000 H   0  0  0  0  0  0  0  0  0  0  0  0
    4.4127   -6.1199    0.0000 H   0  0  0  0  0  0  0  0  0  0  0  0
    1.5188   -4.9703    0.0000 H   0  0  0  0  0  0  0  0  0  0  0  0
    1.8068   -5.9504    0.0000 H   0  0  0  0  0  0  0  0  0  0  0  0
    5.0760   -2.2401    0.0000 H   0  0  0  0  0  0  0  0  0  0  0  0
    4.3270   -0.3475    0.0000 H   0  0  0  0  0  0  0  0  0  0  0  0
    3.9284   -1.0378    0.0000 H   0  0  0  0  0  0  0  0  0  0  0  0
    5.6171   -1.0127    0.0000 H   0  0  0  0  0  0  0  0  0  0  0  0
    6.0156   -0.3225    0.0000 H   0  0  0  0  0  0  0  0  0  0  0  0
    5.1930    1.1525    0.0000 H   0  0  0  0  0  0  0  0  0  0  0  0
    4.7945    0.4622    0.0000 H   0  0  0  0  0  0  0  0  0  0  0  0
    6.4831    0.4873    0.0000 H   0  0  0  0  0  0  0  0  0  0  0  0
    6.8816    1.1775    0.0000 H   0  0  0  0  0  0  0  0  0  0  0  0
    7.3100    1.8993    0.0000 H   0  0  0  0  0  0  0  0  0  0  0  0
    7.7920    2.5038    0.0000 H   0  0  0  0  0  0  0  0  0  0  0  0
    4.7501    2.5038    0.0000 H   0  0  0  0  0  0  0  0  0  0  0  0
    5.2321    1.8993    0.0000 H   0  0  0  0  0  0  0  0  0  0  0  0
    7.9531    3.2097    0.0000 H   0  0  0  0  0  0  0  0  0  0  0  0
    7.7811    3.9634    0.0000 H   0  0  0  0  0  0  0  0  0  0  0  0
    4.7610    3.9634    0.0000 H   0  0  0  0  0  0  0  0  0  0  0  0
    4.5890    3.2097    0.0000 H   0  0  0  0  0  0  0  0  0  0  0  0
    6.2710    6.4104    0.0000 H   0  0  0  0  0  0  0  0  0  0  0  0
  1 25  1  0  0  0  0
  1 27  1  0  0  0  0
  2 16  2  0  0  0  0
  3 16  1  0  0  0  0
  3 17  1  0  0  0  0
  3 43  1  0  0  0  0
  4 20  1  0  0  0  0
  4 21  1  0  0  0  0
  4 22  1  0  0  0  0
  5 26  1  0  0  0  0
  5 27  2  0  0  0  0
  6 10  1  0  0  0  0
  6 11  1  0  0  0  0
  6 12  1  0  0  0  0
  6 16  1  0  0  0  0
  7 10  1  0  0  0  0
  7 13  1  0  0  0  0
  7 14  1  0  0  0  0
  7 28  1  0  0  0  0
  8 11  1  0  0  0  0
  8 13  1  0  0  0  0
  8 15  1  0  0  0  0
  8 29  1  0  0  0  0
  9 12  1  0  0  0  0
  9 14  1  0  0  0  0
  9 15  1  0  0  0  0
  9 30  1  0  0  0  0
 10 31  1  0  0  0  0
 10 32  1  0  0  0  0
 11 33  1  0  0  0  0
 11 34  1  0  0  0  0
 12 35  1  0  0  0  0
 12 36  1  0  0  0  0
 13 37  1  0  0  0  0
 13 38  1  0  0  0  0
 14 39  1  0  0  0  0
 14 40  1  0  0  0  0
 15 41  1  0  0  0  0
 15 42  1  0  0  0  0
 17 18  1  0  0  0  0
 17 44  1  0  0  0  0
 17 45  1  0  0  0  0
 18 19  1  0  0  0  0
 18 46  1  0  0  0  0
 18 47  1  0  0  0  0
 19 20  1  0  0  0  0
 19 48  1  0  0  0  0
 19 49  1  0  0  0  0
 20 50  1  0  0  0  0
 20 51  1  0  0  0  0
 21 23  1  0  0  0  0
 21 52  1  0  0  0  0
 21 53  1  0  0  0  0
 22 24  1  0  0  0  0
 22 54  1  0  0  0  0
 22 55  1  0  0  0  0
 23 25  1  0  0  0  0
 23 56  1  0  0  0  0
 23 57  1  0  0  0  0
 24 26  1  0  0  0  0
 24 58  1  0  0  0  0
 24 59  1  0  0  0  0
 25 26  2  0  0  0  0
 27 60  1  0  0  0  0
M  END
> <PUBCHEM_COMPOUND_CID>
155528048

> <PUBCHEM_COMPOUND_CANONICALIZED>
1

> <PUBCHEM_CACTVS_COMPLEXITY>
512

> <PUBCHEM_CACTVS_HBOND_ACCEPTOR>
4

> <PUBCHEM_CACTVS_HBOND_DONOR>
1

> <PUBCHEM_CACTVS_ROTATABLE_BOND>
6

> <PUBCHEM_CACTVS_SUBSKEYS>
AAADcfB7IABAAAAAAAAAAAAAAAAAAWAAAAAwYMGABYAAAACxgAAAHgQQAAAADwjB1gSEgRPIEAisAQVxVAAA8KBxCDgAWJU4QAgAIBJgwAEEAAAgFgDISAMYiMCPAAAAAAAAAAAAAAQAAAAAAAAAAAAAAA==

> <PUBCHEM_IUPAC_OPENEYE_NAME>
N-[4-(4,5,7,8-tetrahydrothiazolo[4,5-d]azepin-6-yl)butyl]adamantane-1-carboxamide

> <PUBCHEM_IUPAC_CAS_NAME>
N-[4-(4,5,7,8-tetrahydrothiazolo[4,5-d]azepin-6-yl)butyl]-1-adamantanecarboxamide

> <PUBCHEM_IUPAC_NAME_MARKUP>
<I>N</I>-[4-(4,5,7,8-tetrahydro-[1,3]thiazolo[4,5-d]azepin-6-yl)butyl]adamantane-1-carboxamide

> <PUBCHEM_IUPAC_NAME>
N-[4-(4,5,7,8-tetrahydro-[1,3]thiazolo[4,5-d]azepin-6-yl)butyl]adamantane-1-carboxamide

> <PUBCHEM_IUPAC_SYSTEMATIC_NAME>
N-[4-(4,5,7,8-tetrahydro-[1,3]thiazolo[4,5-d]azepin-6-yl)butyl]adamantane-1-carboxamide

> <PUBCHEM_IUPAC_TRADITIONAL_NAME>
N-[4-(4,5,7,8-tetrahydrothiazol[4,5-d]azepin-6-yl)butyl]adamantane-1-carboxamide

> <PUBCHEM_IUPAC_INCHI>
InChI=1S/C22H33N3OS/c26-21(22-12-16-9-17(13-22)11-18(10-16)14-22)23-5-1-2-6-25-7-3-19-20(4-8-25)27-15-24-19/h15-18H,1-14H2,(H,23,26)

> <PUBCHEM_IUPAC_INCHIKEY>
RXOQYNOKQGUANO-UHFFFAOYSA-N

> <PUBCHEM_XLOGP3_AA>
4

> <PUBCHEM_EXACT_MASS>
387.23443386

> <PUBCHEM_MOLECULAR_FORMULA>
C22H33N3OS

> <PUBCHEM_MOLECULAR_WEIGHT>
387.6

> <PUBCHEM_OPENEYE_CAN_SMILES>
C1CN(CCC2=C1N=CS2)CCCCNC(=O)C34CC5CC(C3)CC(C5)C4

> <PUBCHEM_OPENEYE_ISO_SMILES>
C1CN(CCC2=C1N=CS2)CCCCNC(=O)C34CC5CC(C3)CC(C5)C4

> <PUBCHEM_CACTVS_TPSA>
73.5

> <PUBCHEM_MONOISOTOPIC_WEIGHT>
387.23443386

> <PUBCHEM_TOTAL_CHARGE>
0

> <PUBCHEM_HEAVY_ATOM_COUNT>
27

> <PUBCHEM_ATOM_DEF_STEREO_COUNT>
0

> <PUBCHEM_ATOM_UDEF_STEREO_COUNT>
0

> <PUBCHEM_BOND_DEF_STEREO_COUNT>
0

> <PUBCHEM_BOND_UDEF_STEREO_COUNT>
0

> <PUBCHEM_ISOTOPIC_ATOM_COUNT>
0

> <PUBCHEM_COMPONENT_COUNT>
1

> <PUBCHEM_CACTVS_TAUTO_COUNT>
-1

> <PUBCHEM_COORDINATE_TYPE>
1
5
255

> <PUBCHEM_BONDANNOTATIONS>
1  25  8
1  27  8
25  26  8
5  26  8
5  27  8

$$$$
