57402787
  -OEChem-09292322322D

139146  0     0  0  0  0  0  0999 V2000
   35.4011   -0.0707    0.0000 O   0  0  0  0  0  0  0  0  0  0  0  0
    4.3142    3.3190    0.0000 O   0  0  0  0  0  0  0  0  0  0  0  0
   27.8837   -0.7699    0.0000 O   0  0  0  0  0  0  0  0  0  0  0  0
   11.1172   -0.7699    0.0000 O   0  0  0  0  0  0  0  0  0  0  0  0
   24.6966   -2.2695    0.0000 O   0  0  0  0  0  0  0  0  0  0  0  0
   14.3043   -2.2695    0.0000 O   0  0  0  0  0  0  0  0  0  0  0  0
   22.0986   -2.7695    0.0000 O   0  0  0  0  0  0  0  0  0  0  0  0
   16.9024   -2.7695    0.0000 O   0  0  0  0  0  0  0  0  0  0  0  0
   19.5005   -2.2695    0.0000 O   0  0  0  0  0  0  0  0  0  0  0  0
   32.1084    1.0055    0.0000 N   0  0  0  0  0  0  0  0  0  0  0  0
    6.8925    1.0055    0.0000 N   0  0  0  0  0  0  0  0  0  0  0  0
   34.0654    1.4179    0.0000 N   0  0  0  0  0  0  0  0  0  0  0  0
    4.9355    1.4179    0.0000 N   0  0  0  0  0  0  0  0  0  0  0  0
   29.5301   -1.3080    0.0000 N   0  0  0  0  0  0  0  0  0  0  0  0
    9.4709   -1.3080    0.0000 N   0  0  0  0  0  0  0  0  0  0  0  0
   27.2947   -3.7695    0.0000 N   0  0  0  0  0  0  0  0  0  0  0  0
   11.7063   -3.7695    0.0000 N   0  0  0  0  0  0  0  0  0  0  0  0
   28.2409   -4.0742    0.0000 N   0  0  0  0  0  0  0  0  0  0  0  0
   10.7600   -4.0742    0.0000 N   0  0  0  0  0  0  0  0  0  0  0  0
   32.7763    0.2612    0.0000 C   0  0  0  0  0  0  0  0  0  0  0  0
   32.4191    1.9560    0.0000 C   0  0  0  0  0  0  0  0  0  0  0  0
    6.5819    1.9560    0.0000 C   0  0  0  0  0  0  0  0  0  0  0  0
    6.2247    0.2612    0.0000 C   0  0  0  0  0  0  0  0  0  0  0  0
   33.7548    0.4674    0.0000 C   0  0  0  0  0  0  0  0  0  0  0  0
   33.3976    2.1622    0.0000 C   0  0  0  0  0  0  0  0  0  0  0  0
    5.6034    2.1622    0.0000 C   0  0  0  0  0  0  0  0  0  0  0  0
    5.2462    0.4674    0.0000 C   0  0  0  0  0  0  0  0  0  0  0  0
   31.1299    0.7993    0.0000 C   0  0  0  0  0  0  0  0  0  0  0  0
    7.8710    0.7993    0.0000 C   0  0  0  0  0  0  0  0  0  0  0  0
   30.8193   -0.1513    0.0000 C   0  0  0  0  0  0  0  0  0  0  0  0
    8.1817   -0.1513    0.0000 C   0  0  0  0  0  0  0  0  0  0  0  0
   35.0440    1.6241    0.0000 C   0  0  0  0  0  0  0  0  0  0  0  0
    3.9570    1.6241    0.0000 C   0  0  0  0  0  0  0  0  0  0  0  0
   29.8408   -0.3575    0.0000 C   0  0  0  0  0  0  0  0  0  0  0  0
    9.1602   -0.3575    0.0000 C   0  0  0  0  0  0  0  0  0  0  0  0
   35.7118    0.8798    0.0000 C   0  0  0  0  0  0  0  0  0  0  0  0
    3.6464    2.5746    0.0000 C   0  0  0  0  0  0  0  0  0  0  0  0
   35.3546    2.5746    0.0000 C   0  0  0  0  0  0  0  0  0  0  0  0
    3.2892    0.8798    0.0000 C   0  0  0  0  0  0  0  0  0  0  0  0
   36.6903    1.0860    0.0000 C   0  0  0  0  0  0  0  0  0  0  0  0
    2.6678    2.7809    0.0000 C   0  0  0  0  0  0  0  0  0  0  0  0
   36.3331    2.7809    0.0000 C   0  0  0  0  0  0  0  0  0  0  0  0
    2.3107    1.0860    0.0000 C   0  0  0  0  0  0  0  0  0  0  0  0
   37.0010    2.0366    0.0000 C   0  0  0  0  0  0  0  0  0  0  0  0
    2.0000    2.0366    0.0000 C   0  0  0  0  0  0  0  0  0  0  0  0
   28.5516   -1.5142    0.0000 C   0  0  0  0  0  0  0  0  0  0  0  0
   10.4494   -1.5142    0.0000 C   0  0  0  0  0  0  0  0  0  0  0  0
   28.2409   -2.4647    0.0000 C   0  0  0  0  0  0  0  0  0  0  0  0
   10.7600   -2.4647    0.0000 C   0  0  0  0  0  0  0  0  0  0  0  0
   36.0690   -0.8150    0.0000 C   0  0  0  0  0  0  0  0  0  0  0  0
    4.0035    4.2695    0.0000 C   0  0  0  0  0  0  0  0  0  0  0  0
   27.2947   -2.7695    0.0000 C   0  0  0  0  0  0  0  0  0  0  0  0
   11.7063   -2.7695    0.0000 C   0  0  0  0  0  0  0  0  0  0  0  0
   28.8245   -3.2695    0.0000 C   0  0  0  0  0  0  0  0  0  0  0  0
   10.1764   -3.2695    0.0000 C   0  0  0  0  0  0  0  0  0  0  0  0
   26.4287   -2.2695    0.0000 C   0  0  0  0  0  0  0  0  0  0  0  0
   12.5723   -2.2695    0.0000 C   0  0  0  0  0  0  0  0  0  0  0  0
   26.4287   -4.2695    0.0000 C   0  0  0  0  0  0  0  0  0  0  0  0
   12.5723   -4.2695    0.0000 C   0  0  0  0  0  0  0  0  0  0  0  0
   25.5627   -2.7695    0.0000 C   0  0  0  0  0  0  0  0  0  0  0  0
   13.4383   -2.7695    0.0000 C   0  0  0  0  0  0  0  0  0  0  0  0
   25.5627   -3.7695    0.0000 C   0  0  0  0  0  0  0  0  0  0  0  0
   13.4383   -3.7695    0.0000 C   0  0  0  0  0  0  0  0  0  0  0  0
   23.8306   -2.7695    0.0000 C   0  0  0  0  0  0  0  0  0  0  0  0
   15.1704   -2.7695    0.0000 C   0  0  0  0  0  0  0  0  0  0  0  0
   22.9646   -2.2695    0.0000 C   0  0  0  0  0  0  0  0  0  0  0  0
   16.0364   -2.2695    0.0000 C   0  0  0  0  0  0  0  0  0  0  0  0
   21.2325   -2.2695    0.0000 C   0  0  0  0  0  0  0  0  0  0  0  0
   17.7684   -2.2695    0.0000 C   0  0  0  0  0  0  0  0  0  0  0  0
   20.3665   -2.7695    0.0000 C   0  0  0  0  0  0  0  0  0  0  0  0
   18.6345   -2.7695    0.0000 C   0  0  0  0  0  0  0  0  0  0  0  0
   32.2499   -0.0665    0.0000 H   0  0  0  0  0  0  0  0  0  0  0  0
   33.0075   -0.3141    0.0000 H   0  0  0  0  0  0  0  0  0  0  0  0
   32.3985    2.5756    0.0000 H   0  0  0  0  0  0  0  0  0  0  0  0
   31.8053    2.0434    0.0000 H   0  0  0  0  0  0  0  0  0  0  0  0
    7.1957    2.0434    0.0000 H   0  0  0  0  0  0  0  0  0  0  0  0
    6.6024    2.5756    0.0000 H   0  0  0  0  0  0  0  0  0  0  0  0
    5.9934   -0.3141    0.0000 H   0  0  0  0  0  0  0  0  0  0  0  0
    6.7510   -0.0665    0.0000 H   0  0  0  0  0  0  0  0  0  0  0  0
   33.7753   -0.1523    0.0000 H   0  0  0  0  0  0  0  0  0  0  0  0
   34.3686    0.3800    0.0000 H   0  0  0  0  0  0  0  0  0  0  0  0
   33.9240    2.4898    0.0000 H   0  0  0  0  0  0  0  0  0  0  0  0
   33.1663    2.7375    0.0000 H   0  0  0  0  0  0  0  0  0  0  0  0
    5.8346    2.7375    0.0000 H   0  0  0  0  0  0  0  0  0  0  0  0
    5.0770    2.4898    0.0000 H   0  0  0  0  0  0  0  0  0  0  0  0
    4.6324    0.3800    0.0000 H   0  0  0  0  0  0  0  0  0  0  0  0
    5.2256   -0.1523    0.0000 H   0  0  0  0  0  0  0  0  0  0  0  0
   31.1094    1.4189    0.0000 H   0  0  0  0  0  0  0  0  0  0  0  0
   30.5161    0.8866    0.0000 H   0  0  0  0  0  0  0  0  0  0  0  0
    8.4848    0.8866    0.0000 H   0  0  0  0  0  0  0  0  0  0  0  0
    7.8916    1.4189    0.0000 H   0  0  0  0  0  0  0  0  0  0  0  0
   30.8398   -0.7709    0.0000 H   0  0  0  0  0  0  0  0  0  0  0  0
   31.4331   -0.2386    0.0000 H   0  0  0  0  0  0  0  0  0  0  0  0
    7.5679   -0.2386    0.0000 H   0  0  0  0  0  0  0  0  0  0  0  0
    8.1611   -0.7709    0.0000 H   0  0  0  0  0  0  0  0  0  0  0  0
   29.8202    0.2622    0.0000 H   0  0  0  0  0  0  0  0  0  0  0  0
   29.2269   -0.2701    0.0000 H   0  0  0  0  0  0  0  0  0  0  0  0
    9.7740   -0.2701    0.0000 H   0  0  0  0  0  0  0  0  0  0  0  0
    9.1808    0.2622    0.0000 H   0  0  0  0  0  0  0  0  0  0  0  0
   34.9406    3.0361    0.0000 H   0  0  0  0  0  0  0  0  0  0  0  0
    3.4818    0.2905    0.0000 H   0  0  0  0  0  0  0  0  0  0  0  0
   29.9442   -1.7695    0.0000 H   0  0  0  0  0  0  0  0  0  0  0  0
    9.0568   -1.7695    0.0000 H   0  0  0  0  0  0  0  0  0  0  0  0
   37.1044    0.6246    0.0000 H   0  0  0  0  0  0  0  0  0  0  0  0
    2.4752    3.3702    0.0000 H   0  0  0  0  0  0  0  0  0  0  0  0
   36.5257    3.3702    0.0000 H   0  0  0  0  0  0  0  0  0  0  0  0
    1.8966    0.6246    0.0000 H   0  0  0  0  0  0  0  0  0  0  0  0
   37.6076    2.1644    0.0000 H   0  0  0  0  0  0  0  0  0  0  0  0
    1.3933    2.1644    0.0000 H   0  0  0  0  0  0  0  0  0  0  0  0
   35.6075   -1.2290    0.0000 H   0  0  0  0  0  0  0  0  0  0  0  0
   36.4830   -1.2765    0.0000 H   0  0  0  0  0  0  0  0  0  0  0  0
   36.5304   -0.4009    0.0000 H   0  0  0  0  0  0  0  0  0  0  0  0
    4.5928    4.4621    0.0000 H   0  0  0  0  0  0  0  0  0  0  0  0
    3.8109    4.8588    0.0000 H   0  0  0  0  0  0  0  0  0  0  0  0
    3.4142    4.0769    0.0000 H   0  0  0  0  0  0  0  0  0  0  0  0
   29.4445   -3.2695    0.0000 H   0  0  0  0  0  0  0  0  0  0  0  0
    9.5564   -3.2695    0.0000 H   0  0  0  0  0  0  0  0  0  0  0  0
   26.4287   -1.6495    0.0000 H   0  0  0  0  0  0  0  0  0  0  0  0
   12.5723   -1.6495    0.0000 H   0  0  0  0  0  0  0  0  0  0  0  0
   26.4287   -4.8895    0.0000 H   0  0  0  0  0  0  0  0  0  0  0  0
   12.5723   -4.8895    0.0000 H   0  0  0  0  0  0  0  0  0  0  0  0
   25.0257   -4.0795    0.0000 H   0  0  0  0  0  0  0  0  0  0  0  0
   13.9752   -4.0795    0.0000 H   0  0  0  0  0  0  0  0  0  0  0  0
   23.4321   -3.2444    0.0000 H   0  0  0  0  0  0  0  0  0  0  0  0
   24.2291   -3.2444    0.0000 H   0  0  0  0  0  0  0  0  0  0  0  0
   14.7718   -3.2444    0.0000 H   0  0  0  0  0  0  0  0  0  0  0  0
   15.5689   -3.2444    0.0000 H   0  0  0  0  0  0  0  0  0  0  0  0
   23.3631   -1.7945    0.0000 H   0  0  0  0  0  0  0  0  0  0  0  0
   22.5661   -1.7945    0.0000 H   0  0  0  0  0  0  0  0  0  0  0  0
   16.4349   -1.7945    0.0000 H   0  0  0  0  0  0  0  0  0  0  0  0
   15.6379   -1.7945    0.0000 H   0  0  0  0  0  0  0  0  0  0  0  0
   21.6311   -1.7945    0.0000 H   0  0  0  0  0  0  0  0  0  0  0  0
   20.8340   -1.7945    0.0000 H   0  0  0  0  0  0  0  0  0  0  0  0
   18.1670   -1.7945    0.0000 H   0  0  0  0  0  0  0  0  0  0  0  0
   17.3699   -1.7945    0.0000 H   0  0  0  0  0  0  0  0  0  0  0  0
   19.9680   -3.2444    0.0000 H   0  0  0  0  0  0  0  0  0  0  0  0
   20.7650   -3.2444    0.0000 H   0  0  0  0  0  0  0  0  0  0  0  0
   18.2359   -3.2444    0.0000 H   0  0  0  0  0  0  0  0  0  0  0  0
   19.0330   -3.2444    0.0000 H   0  0  0  0  0  0  0  0  0  0  0  0
  1 36  1  0  0  0  0
  1 50  1  0  0  0  0
  2 37  1  0  0  0  0
  2 51  1  0  0  0  0
  3 46  2  0  0  0  0
  4 47  2  0  0  0  0
  5 60  1  0  0  0  0
  5 64  1  0  0  0  0
  6 61  1  0  0  0  0
  6 65  1  0  0  0  0
  7 66  1  0  0  0  0
  7 68  1  0  0  0  0
  8 67  1  0  0  0  0
  8 69  1  0  0  0  0
  9 70  1  0  0  0  0
  9 71  1  0  0  0  0
 10 20  1  0  0  0  0
 10 21  1  0  0  0  0
 10 28  1  0  0  0  0
 11 22  1  0  0  0  0
 11 23  1  0  0  0  0
 11 29  1  0  0  0  0
 12 24  1  0  0  0  0
 12 25  1  0  0  0  0
 12 32  1  0  0  0  0
 13 26  1  0  0  0  0
 13 27  1  0  0  0  0
 13 33  1  0  0  0  0
 14 34  1  0  0  0  0
 14 46  1  0  0  0  0
 14102  1  0  0  0  0
 15 35  1  0  0  0  0
 15 47  1  0  0  0  0
 15103  1  0  0  0  0
 16 18  1  0  0  0  0
 16 52  1  0  0  0  0
 16 58  1  0  0  0  0
 17 19  1  0  0  0  0
 17 53  1  0  0  0  0
 17 59  1  0  0  0  0
 18 54  2  0  0  0  0
 19 55  2  0  0  0  0
 20 24  1  0  0  0  0
 20 72  1  0  0  0  0
 20 73  1  0  0  0  0
 21 25  1  0  0  0  0
 21 74  1  0  0  0  0
 21 75  1  0  0  0  0
 22 26  1  0  0  0  0
 22 76  1  0  0  0  0
 22 77  1  0  0  0  0
 23 27  1  0  0  0  0
 23 78  1  0  0  0  0
 23 79  1  0  0  0  0
 24 80  1  0  0  0  0
 24 81  1  0  0  0  0
 25 82  1  0  0  0  0
 25 83  1  0  0  0  0
 26 84  1  0  0  0  0
 26 85  1  0  0  0  0
 27 86  1  0  0  0  0
 27 87  1  0  0  0  0
 28 30  1  0  0  0  0
 28 88  1  0  0  0  0
 28 89  1  0  0  0  0
 29 31  1  0  0  0  0
 29 90  1  0  0  0  0
 29 91  1  0  0  0  0
 30 34  1  0  0  0  0
 30 92  1  0  0  0  0
 30 93  1  0  0  0  0
 31 35  1  0  0  0  0
 31 94  1  0  0  0  0
 31 95  1  0  0  0  0
 32 36  1  0  0  0  0
 32 38  2  0  0  0  0
 33 37  1  0  0  0  0
 33 39  2  0  0  0  0
 34 96  1  0  0  0  0
 34 97  1  0  0  0  0
 35 98  1  0  0  0  0
 35 99  1  0  0  0  0
 36 40  2  0  0  0  0
 37 41  2  0  0  0  0
 38 42  1  0  0  0  0
 38100  1  0  0  0  0
 39 43  1  0  0  0  0
 39101  1  0  0  0  0
 40 44  1  0  0  0  0
 40104  1  0  0  0  0
 41 45  1  0  0  0  0
 41105  1  0  0  0  0
 42 44  2  0  0  0  0
 42106  1  0  0  0  0
 43 45  2  0  0  0  0
 43107  1  0  0  0  0
 44108  1  0  0  0  0
 45109  1  0  0  0  0
 46 48  1  0  0  0  0
 47 49  1  0  0  0  0
 48 52  2  0  0  0  0
 48 54  1  0  0  0  0
 49 53  2  0  0  0  0
 49 55  1  0  0  0  0
 50110  1  0  0  0  0
 50111  1  0  0  0  0
 50112  1  0  0  0  0
 51113  1  0  0  0  0
 51114  1  0  0  0  0
 51115  1  0  0  0  0
 52 56  1  0  0  0  0
 53 57  1  0  0  0  0
 54116  1  0  0  0  0
 55117  1  0  0  0  0
 56 60  2  0  0  0  0
 56118  1  0  0  0  0
 57 61  2  0  0  0  0
 57119  1  0  0  0  0
 58 62  2  0  0  0  0
 58120  1  0  0  0  0
 59 63  2  0  0  0  0
 59121  1  0  0  0  0
 60 62  1  0  0  0  0
 61 63  1  0  0  0  0
 62122  1  0  0  0  0
 63123  1  0  0  0  0
 64 66  1  0  0  0  0
 64124  1  0  0  0  0
 64125  1  0  0  0  0
 65 67  1  0  0  0  0
 65126  1  0  0  0  0
 65127  1  0  0  0  0
 66128  1  0  0  0  0
 66129  1  0  0  0  0
 67130  1  0  0  0  0
 67131  1  0  0  0  0
 68 70  1  0  0  0  0
 68132  1  0  0  0  0
 68133  1  0  0  0  0
 69 71  1  0  0  0  0
 69134  1  0  0  0  0
 69135  1  0  0  0  0
 70136  1  0  0  0  0
 70137  1  0  0  0  0
 71138  1  0  0  0  0
 71139  1  0  0  0  0
M  END
> <PUBCHEM_COMPOUND_CID>
57402787

> <PUBCHEM_COMPOUND_CANONICALIZED>
1

> <PUBCHEM_CACTVS_COMPLEXITY>
1420

> <PUBCHEM_CACTVS_HBOND_ACCEPTOR>
15

> <PUBCHEM_CACTVS_HBOND_DONOR>
2

> <PUBCHEM_CACTVS_ROTATABLE_BOND>
28

> <PUBCHEM_CACTVS_SUBSKEYS>
AAADcfB//AAAAAAAAAAAAAAAAAAAAWLAAAA8eLFiAAAAAFgB/gAAHgAYAAAADAzhngY+xrPIFACqAzV3VACSjCA1oiAY2KE/bNgPZvrE9duXvajm3hna6ceY3ELMAAAAAAAAEAAAAAAAAAAgAAAAAAAAAA==

> <PUBCHEM_IUPAC_OPENEYE_NAME>
N-[3-[4-(2-methoxyphenyl)piperazin-1-yl]propyl]-5-[2-[2-[2-[2-[3-[3-[4-(2-methoxyphenyl)piperazin-1-yl]propylcarbamoyl]pyrazolo[1,5-a]pyridin-5-yl]oxyethoxy]ethoxy]ethoxy]ethoxy]pyrazolo[1,5-a]pyridine-3-carboxamide

> <PUBCHEM_IUPAC_CAS_NAME>
N-[3-[4-(2-methoxyphenyl)-1-piperazinyl]propyl]-5-[2-[2-[2-[2-[[3-[[3-[4-(2-methoxyphenyl)-1-piperazinyl]propylamino]-oxomethyl]-5-pyrazolo[1,5-a]pyridinyl]oxy]ethoxy]ethoxy]ethoxy]ethoxy]-3-pyrazolo[1,5-a]pyridinecarboxamide

> <PUBCHEM_IUPAC_NAME_MARKUP>
<I>N</I>-[3-[4-(2-methoxyphenyl)piperazin-1-yl]propyl]-5-[2-[2-[2-[2-[3-[3-[4-(2-methoxyphenyl)piperazin-1-yl]propylcarbamoyl]pyrazolo[1,5-a]pyridin-5-yl]oxyethoxy]ethoxy]ethoxy]ethoxy]pyrazolo[1,5-a]pyridine-3-carboxamide

> <PUBCHEM_IUPAC_NAME>
N-[3-[4-(2-methoxyphenyl)piperazin-1-yl]propyl]-5-[2-[2-[2-[2-[3-[3-[4-(2-methoxyphenyl)piperazin-1-yl]propylcarbamoyl]pyrazolo[1,5-a]pyridin-5-yl]oxyethoxy]ethoxy]ethoxy]ethoxy]pyrazolo[1,5-a]pyridine-3-carboxamide

> <PUBCHEM_IUPAC_SYSTEMATIC_NAME>
N-[3-[4-(2-methoxyphenyl)piperazin-1-yl]propyl]-5-[2-[2-[2-[2-[3-[3-[4-(2-methoxyphenyl)piperazin-1-yl]propylcarbamoyl]pyrazolo[1,5-a]pyridin-5-yl]oxyethoxy]ethoxy]ethoxy]ethoxy]pyrazolo[1,5-a]pyridine-3-carboxamide

> <PUBCHEM_IUPAC_TRADITIONAL_NAME>
N-[3-[4-(2-methoxyphenyl)piperazino]propyl]-5-[2-[2-[2-[2-[3-[3-[4-(2-methoxyphenyl)piperazino]propylcarbamoyl]pyrazolo[1,5-a]pyridin-5-yl]oxyethoxy]ethoxy]ethoxy]ethoxy]pyrazolo[1,5-a]pyridine-3-carboxamide

> <PUBCHEM_IUPAC_INCHI>
InChI=1S/C52H68N10O9/c1-65-49-11-5-3-9-45(49)59-25-21-57(22-26-59)17-7-15-53-51(63)43-39-55-61-19-13-41(37-47(43)61)70-35-33-68-31-29-67-30-32-69-34-36-71-42-14-20-62-48(38-42)44(40-56-62)52(64)54-16-8-18-58-23-27-60(28-24-58)46-10-4-6-12-50(46)66-2/h3-6,9-14,19-20,37-40H,7-8,15-18,21-36H2,1-2H3,(H,53,63)(H,54,64)

> <PUBCHEM_IUPAC_INCHIKEY>
SKOOZXVTNXFHFP-UHFFFAOYSA-N

> <PUBCHEM_XLOGP3_AA>
3.9

> <PUBCHEM_EXACT_MASS>
976.51707378

> <PUBCHEM_MOLECULAR_FORMULA>
C52H68N10O9

> <PUBCHEM_MOLECULAR_WEIGHT>
977.2

> <PUBCHEM_OPENEYE_CAN_SMILES>
COC1=CC=CC=C1N2CCN(CC2)CCCNC(=O)C3=C4C=C(C=CN4N=C3)OCCOCCOCCOCCOC5=CC6=C(C=NN6C=C5)C(=O)NCCCN7CCN(CC7)C8=CC=CC=C8OC

> <PUBCHEM_OPENEYE_ISO_SMILES>
COC1=CC=CC=C1N2CCN(CC2)CCCNC(=O)C3=C4C=C(C=CN4N=C3)OCCOCCOCCOCCOC5=CC6=C(C=NN6C=C5)C(=O)NCCCN7CCN(CC7)C8=CC=CC=C8OC

> <PUBCHEM_CACTVS_TPSA>
170

> <PUBCHEM_MONOISOTOPIC_WEIGHT>
976.51707378

> <PUBCHEM_TOTAL_CHARGE>
0

> <PUBCHEM_HEAVY_ATOM_COUNT>
71

> <PUBCHEM_ATOM_DEF_STEREO_COUNT>
0

> <PUBCHEM_ATOM_UDEF_STEREO_COUNT>
0

> <PUBCHEM_BOND_DEF_STEREO_COUNT>
0

> <PUBCHEM_BOND_UDEF_STEREO_COUNT>
0

> <PUBCHEM_ISOTOPIC_ATOM_COUNT>
0

> <PUBCHEM_COMPONENT_COUNT>
1

> <PUBCHEM_CACTVS_TAUTO_COUNT>
-1

> <PUBCHEM_COORDINATE_TYPE>
1
5
255

> <PUBCHEM_BONDANNOTATIONS>
16  18  8
16  52  8
16  58  8
17  19  8
17  53  8
17  59  8
18  54  8
19  55  8
32  36  8
32  38  8
33  37  8
33  39  8
36  40  8
37  41  8
38  42  8
39  43  8
40  44  8
41  45  8
42  44  8
43  45  8
48  52  8
48  54  8
49  53  8
49  55  8
52  56  8
53  57  8
56  60  8
57  61  8
58  62  8
59  63  8
60  62  8
61  63  8

$$$$
