57401435
  -OEChem-09292322072D

 64 67  0     1  0  0  0  0  0999 V2000
   13.2583    0.1550    0.0000 O   0  0  0  0  0  0  0  0  0  0  0  0
   12.3923   -4.3450    0.0000 O   0  0  0  0  0  0  0  0  0  0  0  0
   15.9224   -3.3692    0.0000 O   0  0  0  0  0  0  0  0  0  0  0  0
   11.5263    1.1550    0.0000 N   0  0  0  0  0  0  0  0  0  0  0  0
   14.1523   -3.3797    0.0000 N   0  0  0  0  0  0  0  0  0  0  0  0
    6.3301    3.1550    0.0000 N   0  0  0  0  0  0  0  0  0  0  0  0
    2.8660    3.1550    0.0000 N   0  0  0  0  0  0  0  0  0  0  0  0
   12.3923   -0.3450    0.0000 C   0  0  1  0  0  0  0  0  0  0  0  0
   11.5263    0.1550    0.0000 C   0  0  0  0  0  0  0  0  0  0  0  0
   12.3923   -1.3450    0.0000 C   0  0  0  0  0  0  0  0  0  0  0  0
   10.6603    1.6550    0.0000 C   0  0  0  0  0  0  0  0  0  0  0  0
   10.6603    2.6550    0.0000 C   0  0  0  0  0  0  0  0  0  0  0  0
   13.2583   -1.8450    0.0000 C   0  0  0  0  0  0  0  0  0  0  0  0
    9.7942    3.1550    0.0000 C   0  0  0  0  0  0  0  0  0  0  0  0
   13.2583   -2.8450    0.0000 C   0  0  0  0  0  0  0  0  0  0  0  0
   11.5263   -1.8450    0.0000 C   0  0  0  0  0  0  0  0  0  0  0  0
    8.0622    3.1550    0.0000 C   0  0  0  0  0  0  0  0  0  0  0  0
    8.9282    2.6550    0.0000 C   0  0  0  0  0  0  0  0  0  0  0  0
    7.1962    2.6550    0.0000 C   0  0  0  0  0  0  0  0  0  0  0  0
   12.3923   -3.3450    0.0000 C   0  0  0  0  0  0  0  0  0  0  0  0
   14.1523   -1.3103    0.0000 C   0  0  0  0  0  0  0  0  0  0  0  0
   11.5263   -2.8450    0.0000 C   0  0  0  0  0  0  0  0  0  0  0  0
    9.7942    4.1550    0.0000 C   0  0  0  0  0  0  0  0  0  0  0  0
    8.0622    4.1550    0.0000 C   0  0  0  0  0  0  0  0  0  0  0  0
    5.4641    2.6550    0.0000 C   0  0  0  0  0  0  0  0  0  0  0  0
    8.9282    4.6550    0.0000 C   0  0  0  0  0  0  0  0  0  0  0  0
   15.0583   -1.8242    0.0000 C   0  0  0  0  0  0  0  0  0  0  0  0
   15.0583   -2.8658    0.0000 C   0  0  0  0  0  0  0  0  0  0  0  0
    4.5981    3.1550    0.0000 C   0  0  0  0  0  0  0  0  0  0  0  0
    3.7320    2.6550    0.0000 C   0  0  0  0  0  0  0  0  0  0  0  0
    3.7320    1.6550    0.0000 C   0  0  0  0  0  0  0  0  0  0  0  0
    2.8660    1.1550    0.0000 C   0  0  0  0  0  0  0  0  0  0  0  0
    2.0000    2.6550    0.0000 C   0  0  0  0  0  0  0  0  0  0  0  0
    2.0000    1.6550    0.0000 C   0  0  0  0  0  0  0  0  0  0  0  0
   12.3923    0.2750    0.0000 H   0  0  0  0  0  0  0  0  0  0  0  0
   10.9157    0.2627    0.0000 H   0  0  0  0  0  0  0  0  0  0  0  0
   11.3142   -0.4276    0.0000 H   0  0  0  0  0  0  0  0  0  0  0  0
   10.0497    1.7627    0.0000 H   0  0  0  0  0  0  0  0  0  0  0  0
   10.4482    1.0724    0.0000 H   0  0  0  0  0  0  0  0  0  0  0  0
   11.2708    2.5473    0.0000 H   0  0  0  0  0  0  0  0  0  0  0  0
   10.8723    3.2376    0.0000 H   0  0  0  0  0  0  0  0  0  0  0  0
   12.0632    1.4650    0.0000 H   0  0  0  0  0  0  0  0  0  0  0  0
   10.9893   -1.5350    0.0000 H   0  0  0  0  0  0  0  0  0  0  0  0
    8.9282    2.0350    0.0000 H   0  0  0  0  0  0  0  0  0  0  0  0
    6.7976    2.1800    0.0000 H   0  0  0  0  0  0  0  0  0  0  0  0
    7.5947    2.1800    0.0000 H   0  0  0  0  0  0  0  0  0  0  0  0
   14.1451   -0.6904    0.0000 H   0  0  0  0  0  0  0  0  0  0  0  0
   10.9893   -3.1550    0.0000 H   0  0  0  0  0  0  0  0  0  0  0  0
   10.3312    4.4650    0.0000 H   0  0  0  0  0  0  0  0  0  0  0  0
   14.1451   -3.9996    0.0000 H   0  0  0  0  0  0  0  0  0  0  0  0
   13.2583    0.7750    0.0000 H   0  0  0  0  0  0  0  0  0  0  0  0
    7.5252    4.4650    0.0000 H   0  0  0  0  0  0  0  0  0  0  0  0
    6.3301    3.7750    0.0000 H   0  0  0  0  0  0  0  0  0  0  0  0
    5.0656    2.1800    0.0000 H   0  0  0  0  0  0  0  0  0  0  0  0
    5.8626    2.1800    0.0000 H   0  0  0  0  0  0  0  0  0  0  0  0
    8.9282    5.2750    0.0000 H   0  0  0  0  0  0  0  0  0  0  0  0
   15.5941   -1.5121    0.0000 H   0  0  0  0  0  0  0  0  0  0  0  0
    4.9966    3.6300    0.0000 H   0  0  0  0  0  0  0  0  0  0  0  0
    4.1996    3.6300    0.0000 H   0  0  0  0  0  0  0  0  0  0  0  0
   11.8554   -4.6550    0.0000 H   0  0  0  0  0  0  0  0  0  0  0  0
    4.2690    1.3450    0.0000 H   0  0  0  0  0  0  0  0  0  0  0  0
    2.8660    0.5350    0.0000 H   0  0  0  0  0  0  0  0  0  0  0  0
    1.4631    2.9650    0.0000 H   0  0  0  0  0  0  0  0  0  0  0  0
    1.4631    1.3450    0.0000 H   0  0  0  0  0  0  0  0  0  0  0  0
  8  1  1  6  0  0  0
  1 51  1  0  0  0  0
  2 20  1  0  0  0  0
  2 60  1  0  0  0  0
  3 28  2  0  0  0  0
  4  9  1  0  0  0  0
  4 11  1  0  0  0  0
  4 42  1  0  0  0  0
  5 15  1  0  0  0  0
  5 28  1  0  0  0  0
  5 50  1  0  0  0  0
  6 19  1  0  0  0  0
  6 25  1  0  0  0  0
  6 53  1  0  0  0  0
  7 30  1  0  0  0  0
  7 33  2  0  0  0  0
  8  9  1  0  0  0  0
  8 10  1  0  0  0  0
  8 35  1  0  0  0  0
  9 36  1  0  0  0  0
  9 37  1  0  0  0  0
 10 13  2  0  0  0  0
 10 16  1  0  0  0  0
 11 12  1  0  0  0  0
 11 38  1  0  0  0  0
 11 39  1  0  0  0  0
 12 14  1  0  0  0  0
 12 40  1  0  0  0  0
 12 41  1  0  0  0  0
 13 15  1  0  0  0  0
 13 21  1  0  0  0  0
 14 18  2  0  0  0  0
 14 23  1  0  0  0  0
 15 20  2  0  0  0  0
 16 22  2  0  0  0  0
 16 43  1  0  0  0  0
 17 18  1  0  0  0  0
 17 19  1  0  0  0  0
 17 24  2  0  0  0  0
 18 44  1  0  0  0  0
 19 45  1  0  0  0  0
 19 46  1  0  0  0  0
 20 22  1  0  0  0  0
 21 27  2  0  0  0  0
 21 47  1  0  0  0  0
 22 48  1  0  0  0  0
 23 26  2  0  0  0  0
 23 49  1  0  0  0  0
 24 26  1  0  0  0  0
 24 52  1  0  0  0  0
 25 29  1  0  0  0  0
 25 54  1  0  0  0  0
 25 55  1  0  0  0  0
 26 56  1  0  0  0  0
 27 28  1  0  0  0  0
 27 57  1  0  0  0  0
 29 30  1  0  0  0  0
 29 58  1  0  0  0  0
 29 59  1  0  0  0  0
 30 31  2  0  0  0  0
 31 32  1  0  0  0  0
 31 61  1  0  0  0  0
 32 34  2  0  0  0  0
 32 62  1  0  0  0  0
 33 34  1  0  0  0  0
 33 63  1  0  0  0  0
 34 64  1  0  0  0  0
M  END
> <PUBCHEM_COMPOUND_CID>
57401435

> <PUBCHEM_COMPOUND_CANONICALIZED>
1

> <PUBCHEM_CACTVS_COMPLEXITY>
660

> <PUBCHEM_CACTVS_HBOND_ACCEPTOR>
6

> <PUBCHEM_CACTVS_HBOND_DONOR>
5

> <PUBCHEM_CACTVS_ROTATABLE_BOND>
11

> <PUBCHEM_CACTVS_SUBSKEYS>
AAADceB7sAAAAAAAAAAAAAAAAAAAAAAAAAA8YIEAAAAAAACB0AAAHgAQCAAADBzhngY8xpLIEgCoAzV3VACCgCAxIiAI2KA/bNgKNuLS0ZOEcAhk1BHY2Yew4PQOoAADQAASEABAAAaAACQgAAAAAAAAAA==

> <PUBCHEM_IUPAC_OPENEYE_NAME>
8-hydroxy-5-[(1R)-1-hydroxy-2-[2-[3-[[2-(2-pyridyl)ethylamino]methyl]phenyl]ethylamino]ethyl]-1H-quinolin-2-one

> <PUBCHEM_IUPAC_CAS_NAME>
8-hydroxy-5-[(1R)-1-hydroxy-2-[2-[3-[[2-(2-pyridinyl)ethylamino]methyl]phenyl]ethylamino]ethyl]-1H-quinolin-2-one

> <PUBCHEM_IUPAC_NAME_MARKUP>
8-hydroxy-5-[(1<I>R</I>)-1-hydroxy-2-[2-[3-[(2-pyridin-2-ylethylamino)methyl]phenyl]ethylamino]ethyl]-1<I>H</I>-quinolin-2-one

> <PUBCHEM_IUPAC_NAME>
8-hydroxy-5-[(1R)-1-hydroxy-2-[2-[3-[(2-pyridin-2-ylethylamino)methyl]phenyl]ethylamino]ethyl]-1H-quinolin-2-one

> <PUBCHEM_IUPAC_SYSTEMATIC_NAME>
8-oxidanyl-5-[(1R)-1-oxidanyl-2-[2-[3-[(2-pyridin-2-ylethylamino)methyl]phenyl]ethylamino]ethyl]-1H-quinolin-2-one

> <PUBCHEM_IUPAC_TRADITIONAL_NAME>
8-hydroxy-5-[(1R)-1-hydroxy-2-[2-[3-[[2-(2-pyridyl)ethylamino]methyl]phenyl]ethylamino]ethyl]carbostyril

> <PUBCHEM_IUPAC_INCHI>
InChI=1S/C27H30N4O3/c32-24-9-7-22(23-8-10-26(34)31-27(23)24)25(33)18-29-14-11-19-4-3-5-20(16-19)17-28-15-12-21-6-1-2-13-30-21/h1-10,13,16,25,28-29,32-33H,11-12,14-15,17-18H2,(H,31,34)/t25-/m0/s1

> <PUBCHEM_IUPAC_INCHIKEY>
VUIMNDBYTPAGQZ-VWLOTQADSA-N

> <PUBCHEM_XLOGP3_AA>
1.9

> <PUBCHEM_EXACT_MASS>
458.23179083

> <PUBCHEM_MOLECULAR_FORMULA>
C27H30N4O3

> <PUBCHEM_MOLECULAR_WEIGHT>
458.6

> <PUBCHEM_OPENEYE_CAN_SMILES>
C1=CC=NC(=C1)CCNCC2=CC=CC(=C2)CCNCC(C3=C4C=CC(=O)NC4=C(C=C3)O)O

> <PUBCHEM_OPENEYE_ISO_SMILES>
C1=CC=NC(=C1)CCNCC2=CC=CC(=C2)CCNC[C@@H](C3=C4C=CC(=O)NC4=C(C=C3)O)O

> <PUBCHEM_CACTVS_TPSA>
107

> <PUBCHEM_MONOISOTOPIC_WEIGHT>
458.23179083

> <PUBCHEM_TOTAL_CHARGE>
0

> <PUBCHEM_HEAVY_ATOM_COUNT>
34

> <PUBCHEM_ATOM_DEF_STEREO_COUNT>
1

> <PUBCHEM_ATOM_UDEF_STEREO_COUNT>
0

> <PUBCHEM_BOND_DEF_STEREO_COUNT>
0

> <PUBCHEM_BOND_UDEF_STEREO_COUNT>
0

> <PUBCHEM_ISOTOPIC_ATOM_COUNT>
0

> <PUBCHEM_COMPONENT_COUNT>
1

> <PUBCHEM_CACTVS_TAUTO_COUNT>
-1

> <PUBCHEM_COORDINATE_TYPE>
1
5
255

> <PUBCHEM_BONDANNOTATIONS>
8  1  6
10  13  8
10  16  8
13  15  8
13  21  8
14  18  8
14  23  8
15  20  8
16  22  8
17  18  8
17  24  8
20  22  8
21  27  8
23  26  8
24  26  8
27  28  8
30  31  8
31  32  8
32  34  8
33  34  8
5  15  8
5  28  8
7  30  8
7  33  8

$$$$
