156021344
  -OEChem-09292322062D

 54 58  0     0  0  0  0  0  0999 V2000
   14.0666   -1.8580    0.0000 S   0  0  0  0  0  0  0  0  0  0  0  0
   13.2619   -3.4416    0.0000 F   0  0  0  0  0  0  0  0  0  0  0  0
    2.8660   -0.3137    0.0000 F   0  0  0  0  0  0  0  0  0  0  0  0
    4.9889    3.4416    0.0000 O   0  0  0  0  0  0  0  0  0  0  0  0
    9.2619   -0.0457    0.0000 N   0  0  0  0  0  0  0  0  0  0  0  0
   11.2619   -0.0457    0.0000 N   0  0  0  0  0  0  0  0  0  0  0  0
    5.2619    1.6863    0.0000 N   0  0  0  0  0  0  0  0  0  0  0  0
    3.7320    2.1863    0.0000 N   0  0  0  0  0  0  0  0  0  0  0  0
    4.6783    0.8816    0.0000 N   0  0  0  0  0  0  0  0  0  0  0  0
    9.7619   -0.9118    0.0000 C   0  0  0  0  0  0  0  0  0  0  0  0
    9.7619    0.8203    0.0000 C   0  0  0  0  0  0  0  0  0  0  0  0
   10.7619   -0.9118    0.0000 C   0  0  0  0  0  0  0  0  0  0  0  0
   10.7619    0.8203    0.0000 C   0  0  0  0  0  0  0  0  0  0  0  0
    8.2619   -0.0457    0.0000 C   0  0  0  0  0  0  0  0  0  0  0  0
    7.7619    0.8203    0.0000 C   0  0  0  0  0  0  0  0  0  0  0  0
   12.2619   -0.0457    0.0000 C   0  0  0  0  0  0  0  0  0  0  0  0
    6.7619    0.8203    0.0000 C   0  0  0  0  0  0  0  0  0  0  0  0
    6.2619    1.6863    0.0000 C   0  0  0  0  0  0  0  0  0  0  0  0
   12.7619   -0.9118    0.0000 C   0  0  0  0  0  0  0  0  0  0  0  0
   12.7619    0.8203    0.0000 C   0  0  0  0  0  0  0  0  0  0  0  0
   13.7619   -0.9118    0.0000 C   0  0  0  0  0  0  0  0  0  0  0  0
   12.4571   -1.8580    0.0000 C   0  0  0  0  0  0  0  0  0  0  0  0
   13.7619    0.8203    0.0000 C   0  0  0  0  0  0  0  0  0  0  0  0
   14.2619   -0.0457    0.0000 C   0  0  0  0  0  0  0  0  0  0  0  0
    4.6783    2.4911    0.0000 C   0  0  0  0  0  0  0  0  0  0  0  0
    3.7320    1.1863    0.0000 C   0  0  0  0  0  0  0  0  0  0  0  0
   13.2619   -2.4416    0.0000 C   0  0  0  0  0  0  0  0  0  0  0  0
    2.8660    2.6863    0.0000 C   0  0  0  0  0  0  0  0  0  0  0  0
    2.8660    0.6863    0.0000 C   0  0  0  0  0  0  0  0  0  0  0  0
    2.0000    2.1863    0.0000 C   0  0  0  0  0  0  0  0  0  0  0  0
    2.0000    1.1863    0.0000 C   0  0  0  0  0  0  0  0  0  0  0  0
    9.1793   -1.1238    0.0000 H   0  0  0  0  0  0  0  0  0  0  0  0
    9.8695   -1.5223    0.0000 H   0  0  0  0  0  0  0  0  0  0  0  0
    9.8695    1.4309    0.0000 H   0  0  0  0  0  0  0  0  0  0  0  0
    9.1793    1.0324    0.0000 H   0  0  0  0  0  0  0  0  0  0  0  0
   10.6542   -1.5223    0.0000 H   0  0  0  0  0  0  0  0  0  0  0  0
   11.3445   -1.1238    0.0000 H   0  0  0  0  0  0  0  0  0  0  0  0
   11.3445    1.0324    0.0000 H   0  0  0  0  0  0  0  0  0  0  0  0
   10.6542    1.4309    0.0000 H   0  0  0  0  0  0  0  0  0  0  0  0
    7.6793   -0.2578    0.0000 H   0  0  0  0  0  0  0  0  0  0  0  0
    8.3695   -0.6563    0.0000 H   0  0  0  0  0  0  0  0  0  0  0  0
    8.3445    1.0324    0.0000 H   0  0  0  0  0  0  0  0  0  0  0  0
    7.6542    1.4309    0.0000 H   0  0  0  0  0  0  0  0  0  0  0  0
    6.1793    0.6082    0.0000 H   0  0  0  0  0  0  0  0  0  0  0  0
    6.8695    0.2097    0.0000 H   0  0  0  0  0  0  0  0  0  0  0  0
    6.8445    1.8984    0.0000 H   0  0  0  0  0  0  0  0  0  0  0  0
    6.1542    2.2969    0.0000 H   0  0  0  0  0  0  0  0  0  0  0  0
   12.4519    1.3572    0.0000 H   0  0  0  0  0  0  0  0  0  0  0  0
   11.8678   -2.0506    0.0000 H   0  0  0  0  0  0  0  0  0  0  0  0
   14.0719    1.3572    0.0000 H   0  0  0  0  0  0  0  0  0  0  0  0
   14.8819   -0.0457    0.0000 H   0  0  0  0  0  0  0  0  0  0  0  0
    2.8660    3.3063    0.0000 H   0  0  0  0  0  0  0  0  0  0  0  0
    1.4631    2.4963    0.0000 H   0  0  0  0  0  0  0  0  0  0  0  0
    1.4631    0.8763    0.0000 H   0  0  0  0  0  0  0  0  0  0  0  0
  1 21  1  0  0  0  0
  1 27  1  0  0  0  0
  2 27  1  0  0  0  0
  3 29  1  0  0  0  0
  4 25  2  0  0  0  0
  5 10  1  0  0  0  0
  5 11  1  0  0  0  0
  5 14  1  0  0  0  0
  6 12  1  0  0  0  0
  6 13  1  0  0  0  0
  6 16  1  0  0  0  0
  7  9  1  0  0  0  0
  7 18  1  0  0  0  0
  7 25  1  0  0  0  0
  8 25  1  0  0  0  0
  8 26  1  0  0  0  0
  8 28  1  0  0  0  0
  9 26  2  0  0  0  0
 10 12  1  0  0  0  0
 10 32  1  0  0  0  0
 10 33  1  0  0  0  0
 11 13  1  0  0  0  0
 11 34  1  0  0  0  0
 11 35  1  0  0  0  0
 12 36  1  0  0  0  0
 12 37  1  0  0  0  0
 13 38  1  0  0  0  0
 13 39  1  0  0  0  0
 14 15  1  0  0  0  0
 14 40  1  0  0  0  0
 14 41  1  0  0  0  0
 15 17  1  0  0  0  0
 15 42  1  0  0  0  0
 15 43  1  0  0  0  0
 16 19  2  0  0  0  0
 16 20  1  0  0  0  0
 17 18  1  0  0  0  0
 17 44  1  0  0  0  0
 17 45  1  0  0  0  0
 18 46  1  0  0  0  0
 18 47  1  0  0  0  0
 19 21  1  0  0  0  0
 19 22  1  0  0  0  0
 20 23  2  0  0  0  0
 20 48  1  0  0  0  0
 21 24  2  0  0  0  0
 22 27  2  0  0  0  0
 22 49  1  0  0  0  0
 23 24  1  0  0  0  0
 23 50  1  0  0  0  0
 24 51  1  0  0  0  0
 26 29  1  0  0  0  0
 28 30  2  0  0  0  0
 28 52  1  0  0  0  0
 29 31  2  0  0  0  0
 30 31  1  0  0  0  0
 30 53  1  0  0  0  0
 31 54  1  0  0  0  0
M  END
> <PUBCHEM_COMPOUND_CID>
156021344

> <PUBCHEM_COMPOUND_CANONICALIZED>
1

> <PUBCHEM_CACTVS_COMPLEXITY>
782

> <PUBCHEM_CACTVS_HBOND_ACCEPTOR>
7

> <PUBCHEM_CACTVS_HBOND_DONOR>
0

> <PUBCHEM_CACTVS_ROTATABLE_BOND>
6

> <PUBCHEM_CACTVS_SUBSKEYS>
AAADceB7oYBAAAAAAAAAAAAAAAAAASIAAAA8QIAAAAAAAEgB8AAAHwQIAAAADAjBWAwxwcMAAAisAiZmcACTAIAhChBfiBgIZJiIYCLgkZGUIAxojgLoyAcQgIAOAAAAACAGAAAAAAAAQAwAAAAAAAAAAA==

> <PUBCHEM_IUPAC_OPENEYE_NAME>
8-fluoro-2-[4-[4-(2-fluorobenzothiophen-4-yl)piperazin-1-yl]butyl]-[1,2,4]triazolo[4,3-a]pyridin-3-one

> <PUBCHEM_IUPAC_CAS_NAME>
8-fluoro-2-[4-[4-(2-fluoro-1-benzothiophen-4-yl)-1-piperazinyl]butyl]-[1,2,4]triazolo[4,3-a]pyridin-3-one

> <PUBCHEM_IUPAC_NAME_MARKUP>
8-fluoro-2-[4-[4-(2-fluoro-1-benzothiophen-4-yl)piperazin-1-yl]butyl]-[1,2,4]triazolo[4,3-a]pyridin-3-one

> <PUBCHEM_IUPAC_NAME>
8-fluoro-2-[4-[4-(2-fluoro-1-benzothiophen-4-yl)piperazin-1-yl]butyl]-[1,2,4]triazolo[4,3-a]pyridin-3-one

> <PUBCHEM_IUPAC_SYSTEMATIC_NAME>
8-fluoranyl-2-[4-[4-(2-fluoranyl-1-benzothiophen-4-yl)piperazin-1-yl]butyl]-[1,2,4]triazolo[4,3-a]pyridin-3-one

> <PUBCHEM_IUPAC_TRADITIONAL_NAME>
8-fluoro-2-[4-[4-(2-fluorobenzothiophen-4-yl)piperazino]butyl]-[1,2,4]triazolo[4,3-a]pyridin-3-one

> <PUBCHEM_IUPAC_INCHI>
InChI=1S/C22H23F2N5OS/c23-17-5-4-9-28-21(17)25-29(22(28)30)10-2-1-8-26-11-13-27(14-12-26)18-6-3-7-19-16(18)15-20(24)31-19/h3-7,9,15H,1-2,8,10-14H2

> <PUBCHEM_IUPAC_INCHIKEY>
NUMVELFDJZDMIW-UHFFFAOYSA-N

> <PUBCHEM_XLOGP3_AA>
4.3

> <PUBCHEM_EXACT_MASS>
443.15913787

> <PUBCHEM_MOLECULAR_FORMULA>
C22H23F2N5OS

> <PUBCHEM_MOLECULAR_WEIGHT>
443.5

> <PUBCHEM_OPENEYE_CAN_SMILES>
C1CN(CCN1CCCCN2C(=O)N3C=CC=C(C3=N2)F)C4=C5C=C(SC5=CC=C4)F

> <PUBCHEM_OPENEYE_ISO_SMILES>
C1CN(CCN1CCCCN2C(=O)N3C=CC=C(C3=N2)F)C4=C5C=C(SC5=CC=C4)F

> <PUBCHEM_CACTVS_TPSA>
70.6

> <PUBCHEM_MONOISOTOPIC_WEIGHT>
443.15913787

> <PUBCHEM_TOTAL_CHARGE>
0

> <PUBCHEM_HEAVY_ATOM_COUNT>
31

> <PUBCHEM_ATOM_DEF_STEREO_COUNT>
0

> <PUBCHEM_ATOM_UDEF_STEREO_COUNT>
0

> <PUBCHEM_BOND_DEF_STEREO_COUNT>
0

> <PUBCHEM_BOND_UDEF_STEREO_COUNT>
0

> <PUBCHEM_ISOTOPIC_ATOM_COUNT>
0

> <PUBCHEM_COMPONENT_COUNT>
1

> <PUBCHEM_CACTVS_TAUTO_COUNT>
-1

> <PUBCHEM_COORDINATE_TYPE>
1
5
255

> <PUBCHEM_BONDANNOTATIONS>
1  21  8
1  27  8
16  19  8
16  20  8
19  21  8
19  22  8
20  23  8
21  24  8
22  27  8
23  24  8
26  29  8
28  30  8
29  31  8
30  31  8
7  25  8
7  9  8
8  25  8
8  26  8
8  28  8
9  26  8

$$$$
