162644572
  -OEChem-09292322012D

191200  0     1  0  0  0  0  0999 V2000
   21.2906  -12.5961    0.0000 O   0  0  0  0  0  0  0  0  0  0  0  0
   11.2619   18.2690    0.0000 O   0  0  0  0  0  0  0  0  0  0  0  0
   25.7906   -6.5339    0.0000 O   0  0  0  0  0  0  0  0  0  0  0  0
   14.2619   11.3408    0.0000 O   0  0  0  0  0  0  0  0  0  0  0  0
   25.0044   -0.8234    0.0000 O   0  0  0  0  0  0  0  0  0  0  0  0
   18.8959    7.5841    0.0000 O   0  0  0  0  0  0  0  0  0  0  0  0
   23.0728    0.9846    0.0000 O   0  0  0  0  0  0  0  0  0  0  0  0
   20.0185    5.1884    0.0000 O   0  0  0  0  0  0  0  0  0  0  0  0
   21.9502    3.3804    0.0000 O   0  0  0  0  0  0  0  0  0  0  0  0
   22.2906  -17.7922    0.0000 N   0  0  3  0  0  0  0  0  0  0  0  0
    6.2619   20.0011    0.0000 N   0  0  3  0  0  0  0  0  0  0  0  0
   22.7906  -13.4621    0.0000 N   0  0  0  0  0  0  0  0  0  0  0  0
    9.7619   17.4030    0.0000 N   0  0  0  0  0  0  0  0  0  0  0  0
   26.7851   -4.6973    0.0000 N   0  0  0  0  0  0  0  0  0  0  0  0
   15.3551    9.5613    0.0000 N   0  0  0  0  0  0  0  0  0  0  0  0
   26.1270   -3.2192    0.0000 N   0  0  0  0  0  0  0  0  0  0  0  0
   16.9643    9.3921    0.0000 N   0  0  0  0  0  0  0  0  0  0  0  0
   26.9930   -3.7192    0.0000 N   0  0  0  0  0  0  0  0  0  0  0  0
   16.0983    8.8921    0.0000 N   0  0  0  0  0  0  0  0  0  0  0  0
   22.7906  -18.6583    0.0000 C   0  0  0  0  0  0  0  0  0  0  0  0
    5.2619   20.0011    0.0000 C   0  0  0  0  0  0  0  0  0  0  0  0
   22.3855  -19.5661    0.0000 C   0  0  0  0  0  0  0  0  0  0  0  0
   23.7793  -18.7613    0.0000 C   0  0  0  0  0  0  0  0  0  0  0  0
    4.6783   19.1964    0.0000 C   0  0  0  0  0  0  0  0  0  0  0  0
    4.6783   20.8058    0.0000 C   0  0  0  0  0  0  0  0  0  0  0  0
   23.1225  -20.2331    0.0000 C   0  0  0  0  0  0  0  0  0  0  0  0
   23.9885  -19.7331    0.0000 C   0  0  0  0  0  0  0  0  0  0  0  0
    3.7320   19.5011    0.0000 C   0  0  0  0  0  0  0  0  0  0  0  0
    3.7320   20.5011    0.0000 C   0  0  0  0  0  0  0  0  0  0  0  0
   22.7906  -16.9262    0.0000 C   0  0  0  0  0  0  0  0  0  0  0  0
    6.7619   19.1351    0.0000 C   0  0  0  0  0  0  0  0  0  0  0  0
   21.2906  -17.7922    0.0000 C   0  0  0  0  0  0  0  0  0  0  0  0
    6.7619   20.8671    0.0000 C   0  0  0  0  0  0  0  0  0  0  0  0
   22.2906  -16.0602    0.0000 C   0  0  0  0  0  0  0  0  0  0  0  0
    7.7619   19.1351    0.0000 C   0  0  0  0  0  0  0  0  0  0  0  0
   23.1225  -21.2331    0.0000 C   0  0  0  0  0  0  0  0  0  0  0  0
   24.8545  -20.2331    0.0000 C   0  0  0  0  0  0  0  0  0  0  0  0
    2.8660   19.0011    0.0000 C   0  0  0  0  0  0  0  0  0  0  0  0
    2.8660   21.0011    0.0000 C   0  0  0  0  0  0  0  0  0  0  0  0
   20.7906  -16.9262    0.0000 C   0  0  0  0  0  0  0  0  0  0  0  0
    7.7619   20.8671    0.0000 C   0  0  0  0  0  0  0  0  0  0  0  0
   22.7906  -15.1942    0.0000 C   0  0  0  0  0  0  0  0  0  0  0  0
    8.2619   18.2690    0.0000 C   0  0  0  0  0  0  0  0  0  0  0  0
   23.9885  -21.7331    0.0000 C   0  0  0  0  0  0  0  0  0  0  0  0
   24.8545  -21.2331    0.0000 C   0  0  0  0  0  0  0  0  0  0  0  0
    2.0000   19.5011    0.0000 C   0  0  0  0  0  0  0  0  0  0  0  0
    2.0000   20.5011    0.0000 C   0  0  0  0  0  0  0  0  0  0  0  0
   19.7906  -16.9262    0.0000 C   0  0  0  0  0  0  0  0  0  0  0  0
    8.2619   21.7331    0.0000 C   0  0  0  0  0  0  0  0  0  0  0  0
   22.2906  -14.3281    0.0000 C   0  0  0  0  0  0  0  0  0  0  0  0
    9.2619   18.2690    0.0000 C   0  0  0  0  0  0  0  0  0  0  0  0
   22.2906  -12.5961    0.0000 C   0  0  0  0  0  0  0  0  0  0  0  0
   10.7619   17.4030    0.0000 C   0  0  0  0  0  0  0  0  0  0  0  0
   22.7906  -11.7301    0.0000 C   0  0  0  0  0  0  0  0  0  0  0  0
   11.2619   16.5370    0.0000 C   0  0  0  0  0  0  0  0  0  0  0  0
   22.2906  -10.8640    0.0000 C   0  0  0  0  0  0  0  0  0  0  0  0
   10.7619   15.6710    0.0000 C   0  0  0  0  0  0  0  0  0  0  0  0
   23.7906  -11.7301    0.0000 C   0  0  0  0  0  0  0  0  0  0  0  0
   12.2619   16.5370    0.0000 C   0  0  0  0  0  0  0  0  0  0  0  0
   22.7906   -9.9980    0.0000 C   0  0  0  0  0  0  0  0  0  0  0  0
   11.2619   14.8049    0.0000 C   0  0  0  0  0  0  0  0  0  0  0  0
   24.2906  -10.8640    0.0000 C   0  0  0  0  0  0  0  0  0  0  0  0
   12.7619   15.6710    0.0000 C   0  0  0  0  0  0  0  0  0  0  0  0
   23.7906   -9.9980    0.0000 C   0  0  0  0  0  0  0  0  0  0  0  0
   12.2619   14.8049    0.0000 C   0  0  0  0  0  0  0  0  0  0  0  0
   24.2906   -9.1320    0.0000 C   0  0  0  0  0  0  0  0  0  0  0  0
   12.7619   13.9389    0.0000 C   0  0  0  0  0  0  0  0  0  0  0  0
   25.2906   -9.1320    0.0000 C   0  0  0  0  0  0  0  0  0  0  0  0
   12.2619   13.0729    0.0000 C   0  0  0  0  0  0  0  0  0  0  0  0
   23.7906   -8.2660    0.0000 C   0  0  0  0  0  0  0  0  0  0  0  0
   13.7619   13.9389    0.0000 C   0  0  0  0  0  0  0  0  0  0  0  0
   25.7906   -8.2660    0.0000 C   0  0  0  0  0  0  0  0  0  0  0  0
   12.7619   12.2069    0.0000 C   0  0  0  0  0  0  0  0  0  0  0  0
   24.2906   -7.3999    0.0000 C   0  0  0  0  0  0  0  0  0  0  0  0
   14.2619   13.0729    0.0000 C   0  0  0  0  0  0  0  0  0  0  0  0
   25.2906   -7.3999    0.0000 C   0  0  0  0  0  0  0  0  0  0  0  0
   13.7619   12.2069    0.0000 C   0  0  0  0  0  0  0  0  0  0  0  0
   25.2906   -5.6679    0.0000 C   0  0  0  0  0  0  0  0  0  0  0  0
   15.2619   11.3408    0.0000 C   0  0  0  0  0  0  0  0  0  0  0  0
   25.7906   -4.8019    0.0000 C   0  0  0  0  0  0  0  0  0  0  0  0
   15.7619   10.4748    0.0000 C   0  0  0  0  0  0  0  0  0  0  0  0
   25.3838   -3.8883    0.0000 C   0  0  0  0  0  0  0  0  0  0  0  0
   16.7564   10.3703    0.0000 C   0  0  0  0  0  0  0  0  0  0  0  0
   26.0224   -2.2247    0.0000 C   0  0  0  0  0  0  0  0  0  0  0  0
   17.8779    8.9854    0.0000 C   0  0  0  0  0  0  0  0  0  0  0  0
   25.1089   -1.8179    0.0000 C   0  0  0  0  0  0  0  0  0  0  0  0
   17.9824    7.9909    0.0000 C   0  0  0  0  0  0  0  0  0  0  0  0
   24.0908   -0.4167    0.0000 C   0  0  0  0  0  0  0  0  0  0  0  0
   19.0005    6.5896    0.0000 C   0  0  0  0  0  0  0  0  0  0  0  0
   23.9863    0.5778    0.0000 C   0  0  0  0  0  0  0  0  0  0  0  0
   19.9140    6.1829    0.0000 C   0  0  0  0  0  0  0  0  0  0  0  0
   22.9682    1.9791    0.0000 C   0  0  0  0  0  0  0  0  0  0  0  0
   20.9321    4.7816    0.0000 C   0  0  0  0  0  0  0  0  0  0  0  0
   22.0547    2.3858    0.0000 C   0  0  0  0  0  0  0  0  0  0  0  0
   21.0366    3.7871    0.0000 C   0  0  0  0  0  0  0  0  0  0  0  0
   23.1280  -18.1381    0.0000 H   0  0  0  0  0  0  0  0  0  0  0  0
    5.5436   20.5534    0.0000 H   0  0  0  0  0  0  0  0  0  0  0  0
   21.8490  -19.2553    0.0000 H   0  0  0  0  0  0  0  0  0  0  0  0
   22.0200  -20.0669    0.0000 H   0  0  0  0  0  0  0  0  0  0  0  0
   24.3958  -18.6953    0.0000 H   0  0  0  0  0  0  0  0  0  0  0  0
   23.7784  -18.1413    0.0000 H   0  0  0  0  0  0  0  0  0  0  0  0
    4.4272   18.6295    0.0000 H   0  0  0  0  0  0  0  0  0  0  0  0
    5.2156   18.8871    0.0000 H   0  0  0  0  0  0  0  0  0  0  0  0
    5.2156   21.1150    0.0000 H   0  0  0  0  0  0  0  0  0  0  0  0
    4.4272   21.3727    0.0000 H   0  0  0  0  0  0  0  0  0  0  0  0
   23.2655  -17.3248    0.0000 H   0  0  0  0  0  0  0  0  0  0  0  0
   23.2655  -16.5277    0.0000 H   0  0  0  0  0  0  0  0  0  0  0  0
    6.1793   18.9230    0.0000 H   0  0  0  0  0  0  0  0  0  0  0  0
    6.8695   18.5245    0.0000 H   0  0  0  0  0  0  0  0  0  0  0  0
   20.7080  -18.0043    0.0000 H   0  0  0  0  0  0  0  0  0  0  0  0
   21.3982  -18.4028    0.0000 H   0  0  0  0  0  0  0  0  0  0  0  0
    6.8695   21.4777    0.0000 H   0  0  0  0  0  0  0  0  0  0  0  0
    6.1793   21.0792    0.0000 H   0  0  0  0  0  0  0  0  0  0  0  0
   21.8156  -15.6617    0.0000 H   0  0  0  0  0  0  0  0  0  0  0  0
   21.8156  -16.4587    0.0000 H   0  0  0  0  0  0  0  0  0  0  0  0
    8.3445   19.3471    0.0000 H   0  0  0  0  0  0  0  0  0  0  0  0
    7.6542   19.7456    0.0000 H   0  0  0  0  0  0  0  0  0  0  0  0
   22.5855  -21.5431    0.0000 H   0  0  0  0  0  0  0  0  0  0  0  0
   25.3915  -19.9231    0.0000 H   0  0  0  0  0  0  0  0  0  0  0  0
    2.8660   18.3811    0.0000 H   0  0  0  0  0  0  0  0  0  0  0  0
    2.8660   21.6211    0.0000 H   0  0  0  0  0  0  0  0  0  0  0  0
   21.3732  -16.7142    0.0000 H   0  0  0  0  0  0  0  0  0  0  0  0
   20.6829  -16.3156    0.0000 H   0  0  0  0  0  0  0  0  0  0  0  0
    7.6542   20.2565    0.0000 H   0  0  0  0  0  0  0  0  0  0  0  0
    8.3445   20.6551    0.0000 H   0  0  0  0  0  0  0  0  0  0  0  0
   23.2655  -15.5927    0.0000 H   0  0  0  0  0  0  0  0  0  0  0  0
   23.2655  -14.7956    0.0000 H   0  0  0  0  0  0  0  0  0  0  0  0
    7.6793   18.0570    0.0000 H   0  0  0  0  0  0  0  0  0  0  0  0
    8.3695   17.6585    0.0000 H   0  0  0  0  0  0  0  0  0  0  0  0
   23.9885  -22.3531    0.0000 H   0  0  0  0  0  0  0  0  0  0  0  0
   25.3915  -21.5431    0.0000 H   0  0  0  0  0  0  0  0  0  0  0  0
    1.4631   19.1911    0.0000 H   0  0  0  0  0  0  0  0  0  0  0  0
    1.4631   20.8111    0.0000 H   0  0  0  0  0  0  0  0  0  0  0  0
   19.7906  -16.3062    0.0000 H   0  0  0  0  0  0  0  0  0  0  0  0
   19.1706  -16.9262    0.0000 H   0  0  0  0  0  0  0  0  0  0  0  0
   19.7906  -17.5462    0.0000 H   0  0  0  0  0  0  0  0  0  0  0  0
    8.7988   21.4231    0.0000 H   0  0  0  0  0  0  0  0  0  0  0  0
    8.5719   22.2701    0.0000 H   0  0  0  0  0  0  0  0  0  0  0  0
    7.7249   22.0431    0.0000 H   0  0  0  0  0  0  0  0  0  0  0  0
   21.8156  -13.9296    0.0000 H   0  0  0  0  0  0  0  0  0  0  0  0
   21.8156  -14.7267    0.0000 H   0  0  0  0  0  0  0  0  0  0  0  0
    9.8445   18.4811    0.0000 H   0  0  0  0  0  0  0  0  0  0  0  0
    9.1542   18.8796    0.0000 H   0  0  0  0  0  0  0  0  0  0  0  0
   23.4106  -13.4621    0.0000 H   0  0  0  0  0  0  0  0  0  0  0  0
    9.4519   16.8661    0.0000 H   0  0  0  0  0  0  0  0  0  0  0  0
   21.6706  -10.8640    0.0000 H   0  0  0  0  0  0  0  0  0  0  0  0
   10.1419   15.6710    0.0000 H   0  0  0  0  0  0  0  0  0  0  0  0
   24.1006  -12.2670    0.0000 H   0  0  0  0  0  0  0  0  0  0  0  0
   12.5719   17.0739    0.0000 H   0  0  0  0  0  0  0  0  0  0  0  0
   22.4806   -9.4611    0.0000 H   0  0  0  0  0  0  0  0  0  0  0  0
   10.9519   14.2680    0.0000 H   0  0  0  0  0  0  0  0  0  0  0  0
   24.9106  -10.8640    0.0000 H   0  0  0  0  0  0  0  0  0  0  0  0
   13.3819   15.6710    0.0000 H   0  0  0  0  0  0  0  0  0  0  0  0
   25.6006   -9.6689    0.0000 H   0  0  0  0  0  0  0  0  0  0  0  0
   11.6419   13.0729    0.0000 H   0  0  0  0  0  0  0  0  0  0  0  0
   23.1706   -8.2660    0.0000 H   0  0  0  0  0  0  0  0  0  0  0  0
   14.0719   14.4759    0.0000 H   0  0  0  0  0  0  0  0  0  0  0  0
   26.4106   -8.2660    0.0000 H   0  0  0  0  0  0  0  0  0  0  0  0
   12.4519   11.6699    0.0000 H   0  0  0  0  0  0  0  0  0  0  0  0
   23.9806   -6.8630    0.0000 H   0  0  0  0  0  0  0  0  0  0  0  0
   14.8819   13.0729    0.0000 H   0  0  0  0  0  0  0  0  0  0  0  0
   24.8156   -5.2694    0.0000 H   0  0  0  0  0  0  0  0  0  0  0  0
   24.8156   -6.0664    0.0000 H   0  0  0  0  0  0  0  0  0  0  0  0
   15.8445   11.5529    0.0000 H   0  0  0  0  0  0  0  0  0  0  0  0
   15.1542   11.9514    0.0000 H   0  0  0  0  0  0  0  0  0  0  0  0
   24.7774   -3.7594    0.0000 H   0  0  0  0  0  0  0  0  0  0  0  0
   17.1713   10.8310    0.0000 H   0  0  0  0  0  0  0  0  0  0  0  0
   26.6409   -2.2679    0.0000 H   0  0  0  0  0  0  0  0  0  0  0  0
   26.1724   -1.6231    0.0000 H   0  0  0  0  0  0  0  0  0  0  0  0
   18.4963    8.9422    0.0000 H   0  0  0  0  0  0  0  0  0  0  0  0
   18.0279    9.5870    0.0000 H   0  0  0  0  0  0  0  0  0  0  0  0
   24.4904   -1.7747    0.0000 H   0  0  0  0  0  0  0  0  0  0  0  0
   24.9589   -2.4195    0.0000 H   0  0  0  0  0  0  0  0  0  0  0  0
   17.3639    8.0341    0.0000 H   0  0  0  0  0  0  0  0  0  0  0  0
   17.8324    7.3893    0.0000 H   0  0  0  0  0  0  0  0  0  0  0  0
   23.4723   -0.3734    0.0000 H   0  0  0  0  0  0  0  0  0  0  0  0
   23.9408   -1.0183    0.0000 H   0  0  0  0  0  0  0  0  0  0  0  0
   18.3820    6.6329    0.0000 H   0  0  0  0  0  0  0  0  0  0  0  0
   18.8505    5.9880    0.0000 H   0  0  0  0  0  0  0  0  0  0  0  0
   24.6048    0.5346    0.0000 H   0  0  0  0  0  0  0  0  0  0  0  0
   24.1363    1.1794    0.0000 H   0  0  0  0  0  0  0  0  0  0  0  0
   20.5325    6.1396    0.0000 H   0  0  0  0  0  0  0  0  0  0  0  0
   20.0640    6.7845    0.0000 H   0  0  0  0  0  0  0  0  0  0  0  0
   23.5867    1.9359    0.0000 H   0  0  0  0  0  0  0  0  0  0  0  0
   23.1182    2.5807    0.0000 H   0  0  0  0  0  0  0  0  0  0  0  0
   21.5506    4.7384    0.0000 H   0  0  0  0  0  0  0  0  0  0  0  0
   21.0821    5.3832    0.0000 H   0  0  0  0  0  0  0  0  0  0  0  0
   21.4362    2.4291    0.0000 H   0  0  0  0  0  0  0  0  0  0  0  0
   21.9047    1.7843    0.0000 H   0  0  0  0  0  0  0  0  0  0  0  0
   20.4181    3.8304    0.0000 H   0  0  0  0  0  0  0  0  0  0  0  0
   20.8866    3.1855    0.0000 H   0  0  0  0  0  0  0  0  0  0  0  0
  1 52  2  0  0  0  0
  2 53  2  0  0  0  0
  3 76  1  0  0  0  0
  3 78  1  0  0  0  0
  4 77  1  0  0  0  0
  4 79  1  0  0  0  0
  5 86  1  0  0  0  0
  5 88  1  0  0  0  0
  6 87  1  0  0  0  0
  6 89  1  0  0  0  0
  7 90  1  0  0  0  0
  7 92  1  0  0  0  0
  8 91  1  0  0  0  0
  8 93  1  0  0  0  0
  9 94  1  0  0  0  0
  9 95  1  0  0  0  0
 10 20  1  0  0  0  0
 10 30  1  0  0  0  0
 10 32  1  0  0  0  0
 11 21  1  0  0  0  0
 11 31  1  0  0  0  0
 11 33  1  0  0  0  0
 12 50  1  0  0  0  0
 12 52  1  0  0  0  0
 12144  1  0  0  0  0
 13 51  1  0  0  0  0
 13 53  1  0  0  0  0
 13145  1  0  0  0  0
 14 18  2  0  0  0  0
 14 80  1  0  0  0  0
 15 19  2  0  0  0  0
 15 81  1  0  0  0  0
 16 18  1  0  0  0  0
 16 82  1  0  0  0  0
 16 84  1  0  0  0  0
 17 19  1  0  0  0  0
 17 83  1  0  0  0  0
 17 85  1  0  0  0  0
 20 22  1  0  0  0  0
 20 23  1  0  0  0  0
 20 96  1  0  0  0  0
 21 24  1  0  0  0  0
 21 25  1  0  0  0  0
 21 97  1  0  0  0  0
 22 26  1  0  0  0  0
 22 98  1  0  0  0  0
 22 99  1  0  0  0  0
 23 27  1  0  0  0  0
 23100  1  0  0  0  0
 23101  1  0  0  0  0
 24 28  1  0  0  0  0
 24102  1  0  0  0  0
 24103  1  0  0  0  0
 25 29  1  0  0  0  0
 25104  1  0  0  0  0
 25105  1  0  0  0  0
 26 27  1  0  0  0  0
 26 36  2  0  0  0  0
 27 37  2  0  0  0  0
 28 29  1  0  0  0  0
 28 38  2  0  0  0  0
 29 39  2  0  0  0  0
 30 34  1  0  0  0  0
 30106  1  0  0  0  0
 30107  1  0  0  0  0
 31 35  1  0  0  0  0
 31108  1  0  0  0  0
 31109  1  0  0  0  0
 32 40  1  0  0  0  0
 32110  1  0  0  0  0
 32111  1  0  0  0  0
 33 41  1  0  0  0  0
 33112  1  0  0  0  0
 33113  1  0  0  0  0
 34 42  1  0  0  0  0
 34114  1  0  0  0  0
 34115  1  0  0  0  0
 35 43  1  0  0  0  0
 35116  1  0  0  0  0
 35117  1  0  0  0  0
 36 44  1  0  0  0  0
 36118  1  0  0  0  0
 37 45  1  0  0  0  0
 37119  1  0  0  0  0
 38 46  1  0  0  0  0
 38120  1  0  0  0  0
 39 47  1  0  0  0  0
 39121  1  0  0  0  0
 40 48  1  0  0  0  0
 40122  1  0  0  0  0
 40123  1  0  0  0  0
 41 49  1  0  0  0  0
 41124  1  0  0  0  0
 41125  1  0  0  0  0
 42 50  1  0  0  0  0
 42126  1  0  0  0  0
 42127  1  0  0  0  0
 43 51  1  0  0  0  0
 43128  1  0  0  0  0
 43129  1  0  0  0  0
 44 45  2  0  0  0  0
 44130  1  0  0  0  0
 45131  1  0  0  0  0
 46 47  2  0  0  0  0
 46132  1  0  0  0  0
 47133  1  0  0  0  0
 48134  1  0  0  0  0
 48135  1  0  0  0  0
 48136  1  0  0  0  0
 49137  1  0  0  0  0
 49138  1  0  0  0  0
 49139  1  0  0  0  0
 50140  1  0  0  0  0
 50141  1  0  0  0  0
 51142  1  0  0  0  0
 51143  1  0  0  0  0
 52 54  1  0  0  0  0
 53 55  1  0  0  0  0
 54 56  2  0  0  0  0
 54 58  1  0  0  0  0
 55 57  2  0  0  0  0
 55 59  1  0  0  0  0
 56 60  1  0  0  0  0
 56146  1  0  0  0  0
 57 61  1  0  0  0  0
 57147  1  0  0  0  0
 58 62  2  0  0  0  0
 58148  1  0  0  0  0
 59 63  2  0  0  0  0
 59149  1  0  0  0  0
 60 64  2  0  0  0  0
 60150  1  0  0  0  0
 61 65  2  0  0  0  0
 61151  1  0  0  0  0
 62 64  1  0  0  0  0
 62152  1  0  0  0  0
 63 65  1  0  0  0  0
 63153  1  0  0  0  0
 64 66  1  0  0  0  0
 65 67  1  0  0  0  0
 66 68  2  0  0  0  0
 66 70  1  0  0  0  0
 67 69  2  0  0  0  0
 67 71  1  0  0  0  0
 68 72  1  0  0  0  0
 68154  1  0  0  0  0
 69 73  1  0  0  0  0
 69155  1  0  0  0  0
 70 74  2  0  0  0  0
 70156  1  0  0  0  0
 71 75  2  0  0  0  0
 71157  1  0  0  0  0
 72 76  2  0  0  0  0
 72158  1  0  0  0  0
 73 77  2  0  0  0  0
 73159  1  0  0  0  0
 74 76  1  0  0  0  0
 74160  1  0  0  0  0
 75 77  1  0  0  0  0
 75161  1  0  0  0  0
 78 80  1  0  0  0  0
 78162  1  0  0  0  0
 78163  1  0  0  0  0
 79 81  1  0  0  0  0
 79164  1  0  0  0  0
 79165  1  0  0  0  0
 80 82  2  0  0  0  0
 81 83  2  0  0  0  0
 82166  1  0  0  0  0
 83167  1  0  0  0  0
 84 86  1  0  0  0  0
 84168  1  0  0  0  0
 84169  1  0  0  0  0
 85 87  1  0  0  0  0
 85170  1  0  0  0  0
 85171  1  0  0  0  0
 86172  1  0  0  0  0
 86173  1  0  0  0  0
 87174  1  0  0  0  0
 87175  1  0  0  0  0
 88 90  1  0  0  0  0
 88176  1  0  0  0  0
 88177  1  0  0  0  0
 89 91  1  0  0  0  0
 89178  1  0  0  0  0
 89179  1  0  0  0  0
 90180  1  0  0  0  0
 90181  1  0  0  0  0
 91182  1  0  0  0  0
 91183  1  0  0  0  0
 92 94  1  0  0  0  0
 92184  1  0  0  0  0
 92185  1  0  0  0  0
 93 95  1  0  0  0  0
 93186  1  0  0  0  0
 93187  1  0  0  0  0
 94188  1  0  0  0  0
 94189  1  0  0  0  0
 95190  1  0  0  0  0
 95191  1  0  0  0  0
M  END
> <PUBCHEM_COMPOUND_CID>
162644572

> <PUBCHEM_COMPOUND_CANONICALIZED>
1

> <PUBCHEM_CACTVS_COMPLEXITY>
1890

> <PUBCHEM_CACTVS_HBOND_ACCEPTOR>
15

> <PUBCHEM_CACTVS_HBOND_DONOR>
2

> <PUBCHEM_CACTVS_ROTATABLE_BOND>
44

> <PUBCHEM_CACTVS_SUBSKEYS>
AAADcfB//AAAAAAAAAAAAAAAAAAAAePECAAwYMGDAAAAAGAB9AAAHgAYAAAADCzhngY+hpPIBACqAzV3VASCDAQ1sgAY2IE+fMgPZjLEtRuXOSjm1hHaqYeYyPCO4AAAAAAQAADAAAAAACAAACAACAAAAA==

> <PUBCHEM_IUPAC_OPENEYE_NAME>
N-[4-[indan-2-yl(propyl)amino]butyl]-4-[4-[[1-[2-[2-[2-[2-[2-[2-[4-[[4-[4-[4-[indan-2-yl(propyl)amino]butylcarbamoyl]phenyl]phenoxy]methyl]triazol-1-yl]ethoxy]ethoxy]ethoxy]ethoxy]ethoxy]ethyl]triazol-4-yl]methoxy]phenyl]benzamide

> <PUBCHEM_IUPAC_CAS_NAME>
N-[4-[2,3-dihydro-1H-inden-2-yl(propyl)amino]butyl]-4-[4-[[1-[2-[2-[2-[2-[2-[2-[4-[[4-[4-[[4-[2,3-dihydro-1H-inden-2-yl(propyl)amino]butylamino]-oxomethyl]phenyl]phenoxy]methyl]-1-triazolyl]ethoxy]ethoxy]ethoxy]ethoxy]ethoxy]ethyl]-4-triazolyl]methoxy]phenyl]benzamide

> <PUBCHEM_IUPAC_NAME_MARKUP>
<I>N</I>-[4-[2,3-dihydro-1<I>H</I>-inden-2-yl(propyl)amino]butyl]-4-[4-[[1-[2-[2-[2-[2-[2-[2-[4-[[4-[4-[4-[2,3-dihydro-1<I>H</I>-inden-2-yl(propyl)amino]butylcarbamoyl]phenyl]phenoxy]methyl]triazol-1-yl]ethoxy]ethoxy]ethoxy]ethoxy]ethoxy]ethyl]triazol-4-yl]methoxy]phenyl]benzamide

> <PUBCHEM_IUPAC_NAME>
N-[4-[2,3-dihydro-1H-inden-2-yl(propyl)amino]butyl]-4-[4-[[1-[2-[2-[2-[2-[2-[2-[4-[[4-[4-[4-[2,3-dihydro-1H-inden-2-yl(propyl)amino]butylcarbamoyl]phenyl]phenoxy]methyl]triazol-1-yl]ethoxy]ethoxy]ethoxy]ethoxy]ethoxy]ethyl]triazol-4-yl]methoxy]phenyl]benzamide

> <PUBCHEM_IUPAC_SYSTEMATIC_NAME>
N-[4-[2,3-dihydro-1H-inden-2-yl(propyl)amino]butyl]-4-[4-[[1-[2-[2-[2-[2-[2-[2-[4-[[4-[4-[4-[2,3-dihydro-1H-inden-2-yl(propyl)amino]butylcarbamoyl]phenyl]phenoxy]methyl]-1,2,3-triazol-1-yl]ethoxy]ethoxy]ethoxy]ethoxy]ethoxy]ethyl]-1,2,3-triazol-4-yl]methoxy]phenyl]benzamide

> <PUBCHEM_IUPAC_TRADITIONAL_NAME>
N-[4-[indan-2-yl(propyl)amino]butyl]-4-[4-[[1-[2-[2-[2-[2-[2-[2-[4-[[4-[4-[4-[indan-2-yl(propyl)amino]butylcarbamoyl]phenyl]phenoxy]methyl]triazol-1-yl]ethoxy]ethoxy]ethoxy]ethoxy]ethoxy]ethyl]triazol-4-yl]methoxy]phenyl]benzamide

> <PUBCHEM_IUPAC_INCHI>
InChI=1S/C76H96N10O9/c1-3-35-83(71-51-65-13-5-6-14-66(65)52-71)37-11-9-33-77-75(87)63-21-17-59(18-22-63)61-25-29-73(30-26-61)94-57-69-55-85(81-79-69)39-41-89-43-45-91-47-49-93-50-48-92-46-44-90-42-40-86-56-70(80-82-86)58-95-74-31-27-62(28-32-74)60-19-23-64(24-20-60)76(88)78-34-10-12-38-84(36-4-2)72-53-67-15-7-8-16-68(67)54-72/h5-8,13-32,55-56,71-72H,3-4,9-12,33-54,57-58H2,1-2H3,(H,77,87)(H,78,88)

> <PUBCHEM_IUPAC_INCHIKEY>
VLBMGXWHOLLSJU-UHFFFAOYSA-N

> <PUBCHEM_XLOGP3_AA>
10.5

> <PUBCHEM_EXACT_MASS>
1292.73617468

> <PUBCHEM_MOLECULAR_FORMULA>
C76H96N10O9

> <PUBCHEM_MOLECULAR_WEIGHT>
1293.6

> <PUBCHEM_OPENEYE_CAN_SMILES>
CCCN(CCCCNC(=O)C1=CC=C(C=C1)C2=CC=C(C=C2)OCC3=CN(N=N3)CCOCCOCCOCCOCCOCCN4C=C(N=N4)COC5=CC=C(C=C5)C6=CC=C(C=C6)C(=O)NCCCCN(CCC)C7CC8=CC=CC=C8C7)C9CC1=CC=CC=C1C9

> <PUBCHEM_OPENEYE_ISO_SMILES>
CCCN(CCCCNC(=O)C1=CC=C(C=C1)C2=CC=C(C=C2)OCC3=CN(N=N3)CCOCCOCCOCCOCCOCCN4C=C(N=N4)COC5=CC=C(C=C5)C6=CC=C(C=C6)C(=O)NCCCCN(CCC)C7CC8=CC=CC=C8C7)C9CC1=CC=CC=C1C9

> <PUBCHEM_CACTVS_TPSA>
191

> <PUBCHEM_MONOISOTOPIC_WEIGHT>
1292.73617468

> <PUBCHEM_TOTAL_CHARGE>
0

> <PUBCHEM_HEAVY_ATOM_COUNT>
95

> <PUBCHEM_ATOM_DEF_STEREO_COUNT>
0

> <PUBCHEM_ATOM_UDEF_STEREO_COUNT>
0

> <PUBCHEM_BOND_DEF_STEREO_COUNT>
0

> <PUBCHEM_BOND_UDEF_STEREO_COUNT>
0

> <PUBCHEM_ISOTOPIC_ATOM_COUNT>
0

> <PUBCHEM_COMPONENT_COUNT>
1

> <PUBCHEM_CACTVS_TAUTO_COUNT>
-1

> <PUBCHEM_COORDINATE_TYPE>
1
5
255

> <PUBCHEM_BONDANNOTATIONS>
14  18  8
14  80  8
15  19  8
15  81  8
16  18  8
16  82  8
17  19  8
17  83  8
26  27  8
26  36  8
27  37  8
28  29  8
28  38  8
29  39  8
36  44  8
37  45  8
38  46  8
39  47  8
44  45  8
46  47  8
54  56  8
54  58  8
55  57  8
55  59  8
56  60  8
57  61  8
58  62  8
59  63  8
60  64  8
61  65  8
62  64  8
63  65  8
66  68  8
66  70  8
67  69  8
67  71  8
68  72  8
69  73  8
70  74  8
71  75  8
72  76  8
73  77  8
74  76  8
75  77  8
80  82  8
81  83  8

$$$$
