168284197
  -OEChem-09292322442D

 75 79  0     0  0  0  0  0  0999 V2000
   15.7060    2.6058    0.0000 O   0  0  0  0  0  0  0  0  0  0  0  0
   12.4133    3.6819    0.0000 N   0  0  0  0  0  0  0  0  0  0  0  0
   14.3703    4.0944    0.0000 N   0  0  0  0  0  0  0  0  0  0  0  0
    8.8564    1.1622    0.0000 N   0  0  0  0  0  0  0  0  0  0  0  0
    4.6783   -4.8680    0.0000 N   0  0  0  0  0  0  0  0  0  0  0  0
    6.2781   -1.1513    0.0000 N   0  0  0  0  0  0  0  0  0  0  0  0
    7.5673    0.0055    0.0000 N   0  0  0  0  0  0  0  0  0  0  0  0
    9.2136   -0.5326    0.0000 N   0  0  0  0  0  0  0  0  0  0  0  0
    7.9244   -1.6893    0.0000 N   0  0  0  0  0  0  0  0  0  0  0  0
    9.5708   -2.2274    0.0000 N   0  0  0  0  0  0  0  0  0  0  0  0
   13.0811    2.9376    0.0000 C   0  0  0  0  0  0  0  0  0  0  0  0
   12.7239    4.6324    0.0000 C   0  0  0  0  0  0  0  0  0  0  0  0
   14.0596    3.1438    0.0000 C   0  0  0  0  0  0  0  0  0  0  0  0
   13.7024    4.8386    0.0000 C   0  0  0  0  0  0  0  0  0  0  0  0
   11.4348    3.4757    0.0000 C   0  0  0  0  0  0  0  0  0  0  0  0
   11.1241    2.5252    0.0000 C   0  0  0  0  0  0  0  0  0  0  0  0
   15.3488    4.3006    0.0000 C   0  0  0  0  0  0  0  0  0  0  0  0
   10.1456    2.3190    0.0000 C   0  0  0  0  0  0  0  0  0  0  0  0
    9.8349    1.3684    0.0000 C   0  0  0  0  0  0  0  0  0  0  0  0
   16.0166    3.5563    0.0000 C   0  0  0  0  0  0  0  0  0  0  0  0
   15.6595    5.2511    0.0000 C   0  0  0  0  0  0  0  0  0  0  0  0
   16.9951    3.7625    0.0000 C   0  0  0  0  0  0  0  0  0  0  0  0
   16.6380    5.4573    0.0000 C   0  0  0  0  0  0  0  0  0  0  0  0
   17.3058    4.7130    0.0000 C   0  0  0  0  0  0  0  0  0  0  0  0
    8.5458    0.2117    0.0000 C   0  0  0  0  0  0  0  0  0  0  0  0
    4.6783   -3.2585    0.0000 C   0  0  0  0  0  0  0  0  0  0  0  0
    4.9889   -2.3080    0.0000 C   0  0  0  0  0  0  0  0  0  0  0  0
    3.7320   -3.5632    0.0000 C   0  0  0  0  0  0  0  0  0  0  0  0
    5.9674   -2.1018    0.0000 C   0  0  0  0  0  0  0  0  0  0  0  0
    3.7320   -4.5632    0.0000 C   0  0  0  0  0  0  0  0  0  0  0  0
   16.3738    1.8614    0.0000 C   0  0  0  0  0  0  0  0  0  0  0  0
    5.2619   -4.0632    0.0000 C   0  0  0  0  0  0  0  0  0  0  0  0
    2.8660   -3.0632    0.0000 C   0  0  0  0  0  0  0  0  0  0  0  0
    7.2566   -0.9450    0.0000 C   0  0  0  0  0  0  0  0  0  0  0  0
    2.8660   -5.0632    0.0000 C   0  0  0  0  0  0  0  0  0  0  0  0
    2.0000   -3.5632    0.0000 C   0  0  0  0  0  0  0  0  0  0  0  0
    2.0000   -4.5632    0.0000 C   0  0  0  0  0  0  0  0  0  0  0  0
    8.9030   -1.4831    0.0000 C   0  0  0  0  0  0  0  0  0  0  0  0
   12.5548    2.6100    0.0000 H   0  0  0  0  0  0  0  0  0  0  0  0
   13.3124    2.3624    0.0000 H   0  0  0  0  0  0  0  0  0  0  0  0
   12.7034    5.2521    0.0000 H   0  0  0  0  0  0  0  0  0  0  0  0
   12.1101    4.7198    0.0000 H   0  0  0  0  0  0  0  0  0  0  0  0
   14.0802    2.5242    0.0000 H   0  0  0  0  0  0  0  0  0  0  0  0
   14.6734    3.0565    0.0000 H   0  0  0  0  0  0  0  0  0  0  0  0
   14.2288    5.1663    0.0000 H   0  0  0  0  0  0  0  0  0  0  0  0
   13.4712    5.4139    0.0000 H   0  0  0  0  0  0  0  0  0  0  0  0
   11.4142    4.0954    0.0000 H   0  0  0  0  0  0  0  0  0  0  0  0
   10.8210    3.5630    0.0000 H   0  0  0  0  0  0  0  0  0  0  0  0
   11.1447    1.9055    0.0000 H   0  0  0  0  0  0  0  0  0  0  0  0
   11.7379    2.4378    0.0000 H   0  0  0  0  0  0  0  0  0  0  0  0
   10.1250    2.9386    0.0000 H   0  0  0  0  0  0  0  0  0  0  0  0
    9.5318    2.4063    0.0000 H   0  0  0  0  0  0  0  0  0  0  0  0
    9.8555    0.7488    0.0000 H   0  0  0  0  0  0  0  0  0  0  0  0
   10.4488    1.2811    0.0000 H   0  0  0  0  0  0  0  0  0  0  0  0
   15.2454    5.7126    0.0000 H   0  0  0  0  0  0  0  0  0  0  0  0
   17.4092    3.3010    0.0000 H   0  0  0  0  0  0  0  0  0  0  0  0
   16.8306    6.0466    0.0000 H   0  0  0  0  0  0  0  0  0  0  0  0
    8.4424    1.6237    0.0000 H   0  0  0  0  0  0  0  0  0  0  0  0
   17.9125    4.8409    0.0000 H   0  0  0  0  0  0  0  0  0  0  0  0
    4.9684   -1.6883    0.0000 H   0  0  0  0  0  0  0  0  0  0  0  0
    4.3751   -2.2206    0.0000 H   0  0  0  0  0  0  0  0  0  0  0  0
    5.9880   -2.7214    0.0000 H   0  0  0  0  0  0  0  0  0  0  0  0
    6.5812   -2.1891    0.0000 H   0  0  0  0  0  0  0  0  0  0  0  0
   15.9124    1.4474    0.0000 H   0  0  0  0  0  0  0  0  0  0  0  0
   16.7879    1.4000    0.0000 H   0  0  0  0  0  0  0  0  0  0  0  0
   16.8353    2.2755    0.0000 H   0  0  0  0  0  0  0  0  0  0  0  0
    5.8819   -4.0632    0.0000 H   0  0  0  0  0  0  0  0  0  0  0  0
    4.8709   -5.4573    0.0000 H   0  0  0  0  0  0  0  0  0  0  0  0
    5.8640   -0.6898    0.0000 H   0  0  0  0  0  0  0  0  0  0  0  0
    2.8660   -2.4432    0.0000 H   0  0  0  0  0  0  0  0  0  0  0  0
    2.8660   -5.6832    0.0000 H   0  0  0  0  0  0  0  0  0  0  0  0
    1.4631   -3.2532    0.0000 H   0  0  0  0  0  0  0  0  0  0  0  0
    1.4631   -4.8732    0.0000 H   0  0  0  0  0  0  0  0  0  0  0  0
   10.1775   -2.0996    0.0000 H   0  0  0  0  0  0  0  0  0  0  0  0
    9.3782   -2.8168    0.0000 H   0  0  0  0  0  0  0  0  0  0  0  0
  1 20  1  0  0  0  0
  1 31  1  0  0  0  0
  2 11  1  0  0  0  0
  2 12  1  0  0  0  0
  2 15  1  0  0  0  0
  3 13  1  0  0  0  0
  3 14  1  0  0  0  0
  3 17  1  0  0  0  0
  4 19  1  0  0  0  0
  4 25  1  0  0  0  0
  4 58  1  0  0  0  0
  5 30  1  0  0  0  0
  5 32  1  0  0  0  0
  5 68  1  0  0  0  0
  6 29  1  0  0  0  0
  6 34  1  0  0  0  0
  6 69  1  0  0  0  0
  7 25  2  0  0  0  0
  7 34  1  0  0  0  0
  8 25  1  0  0  0  0
  8 38  2  0  0  0  0
  9 34  2  0  0  0  0
  9 38  1  0  0  0  0
 10 38  1  0  0  0  0
 10 74  1  0  0  0  0
 10 75  1  0  0  0  0
 11 13  1  0  0  0  0
 11 39  1  0  0  0  0
 11 40  1  0  0  0  0
 12 14  1  0  0  0  0
 12 41  1  0  0  0  0
 12 42  1  0  0  0  0
 13 43  1  0  0  0  0
 13 44  1  0  0  0  0
 14 45  1  0  0  0  0
 14 46  1  0  0  0  0
 15 16  1  0  0  0  0
 15 47  1  0  0  0  0
 15 48  1  0  0  0  0
 16 18  1  0  0  0  0
 16 49  1  0  0  0  0
 16 50  1  0  0  0  0
 17 20  1  0  0  0  0
 17 21  2  0  0  0  0
 18 19  1  0  0  0  0
 18 51  1  0  0  0  0
 18 52  1  0  0  0  0
 19 53  1  0  0  0  0
 19 54  1  0  0  0  0
 20 22  2  0  0  0  0
 21 23  1  0  0  0  0
 21 55  1  0  0  0  0
 22 24  1  0  0  0  0
 22 56  1  0  0  0  0
 23 24  2  0  0  0  0
 23 57  1  0  0  0  0
 24 59  1  0  0  0  0
 26 27  1  0  0  0  0
 26 28  1  0  0  0  0
 26 32  2  0  0  0  0
 27 29  1  0  0  0  0
 27 60  1  0  0  0  0
 27 61  1  0  0  0  0
 28 30  1  0  0  0  0
 28 33  2  0  0  0  0
 29 62  1  0  0  0  0
 29 63  1  0  0  0  0
 30 35  2  0  0  0  0
 31 64  1  0  0  0  0
 31 65  1  0  0  0  0
 31 66  1  0  0  0  0
 32 67  1  0  0  0  0
 33 36  1  0  0  0  0
 33 70  1  0  0  0  0
 35 37  1  0  0  0  0
 35 71  1  0  0  0  0
 36 37  2  0  0  0  0
 36 72  1  0  0  0  0
 37 73  1  0  0  0  0
M  END
> <PUBCHEM_COMPOUND_CID>
168284197

> <PUBCHEM_COMPOUND_CANONICALIZED>
1

> <PUBCHEM_CACTVS_COMPLEXITY>
679

> <PUBCHEM_CACTVS_HBOND_ACCEPTOR>
9

> <PUBCHEM_CACTVS_HBOND_DONOR>
4

> <PUBCHEM_CACTVS_ROTATABLE_BOND>
12

> <PUBCHEM_CACTVS_SUBSKEYS>
AAADcfB74AAAAAAAAAAAAAAAAAAAAWAAAAA8eIEAAAAAAFgB/AAAHgAQAAAADAzBngY/1vfJlACgAzRnZACCiCkxIqAJ2aA/bJiObuLEuZuVMChs0BPY6AeQwMAOgAAAAAACEAAAAAAAAAQgAAAAAAAAAA==

> <PUBCHEM_IUPAC_OPENEYE_NAME>
N2-[2-(1H-indol-3-yl)ethyl]-N4-[4-[4-(2-methoxyphenyl)piperazin-1-yl]butyl]-1,3,5-triazine-2,4,6-triamine

> <PUBCHEM_IUPAC_CAS_NAME>
N2-[2-(1H-indol-3-yl)ethyl]-N4-[4-[4-(2-methoxyphenyl)-1-piperazinyl]butyl]-1,3,5-triazine-2,4,6-triamine

> <PUBCHEM_IUPAC_NAME_MARKUP>
2-<I>N</I>-[2-(1<I>H</I>-indol-3-yl)ethyl]-4-<I>N</I>-[4-[4-(2-methoxyphenyl)piperazin-1-yl]butyl]-1,3,5-triazine-2,4,6-triamine

> <PUBCHEM_IUPAC_NAME>
2-N-[2-(1H-indol-3-yl)ethyl]-4-N-[4-[4-(2-methoxyphenyl)piperazin-1-yl]butyl]-1,3,5-triazine-2,4,6-triamine

> <PUBCHEM_IUPAC_SYSTEMATIC_NAME>
N2-[2-(1H-indol-3-yl)ethyl]-N4-[4-[4-(2-methoxyphenyl)piperazin-1-yl]butyl]-1,3,5-triazine-2,4,6-triamine

> <PUBCHEM_IUPAC_TRADITIONAL_NAME>
[4-amino-6-[2-(1H-indol-3-yl)ethylamino]-s-triazin-2-yl]-[4-[4-(2-methoxyphenyl)piperazino]butyl]amine

> <PUBCHEM_IUPAC_INCHI>
InChI=1S/C28H37N9O/c1-38-25-11-5-4-10-24(25)37-18-16-36(17-19-37)15-7-6-13-30-27-33-26(29)34-28(35-27)31-14-12-21-20-32-23-9-3-2-8-22(21)23/h2-5,8-11,20,32H,6-7,12-19H2,1H3,(H4,29,30,31,33,34,35)

> <PUBCHEM_IUPAC_INCHIKEY>
QYJKOXINDLTROG-UHFFFAOYSA-N

> <PUBCHEM_XLOGP3_AA>
4.7

> <PUBCHEM_EXACT_MASS>
515.31210684

> <PUBCHEM_MOLECULAR_FORMULA>
C28H37N9O

> <PUBCHEM_MOLECULAR_WEIGHT>
515.7

> <PUBCHEM_OPENEYE_CAN_SMILES>
COC1=CC=CC=C1N2CCN(CC2)CCCCNC3=NC(=NC(=N3)N)NCCC4=CNC5=CC=CC=C54

> <PUBCHEM_OPENEYE_ISO_SMILES>
COC1=CC=CC=C1N2CCN(CC2)CCCCNC3=NC(=NC(=N3)N)NCCC4=CNC5=CC=CC=C54

> <PUBCHEM_CACTVS_TPSA>
120

> <PUBCHEM_MONOISOTOPIC_WEIGHT>
515.31210684

> <PUBCHEM_TOTAL_CHARGE>
0

> <PUBCHEM_HEAVY_ATOM_COUNT>
38

> <PUBCHEM_ATOM_DEF_STEREO_COUNT>
0

> <PUBCHEM_ATOM_UDEF_STEREO_COUNT>
0

> <PUBCHEM_BOND_DEF_STEREO_COUNT>
0

> <PUBCHEM_BOND_UDEF_STEREO_COUNT>
0

> <PUBCHEM_ISOTOPIC_ATOM_COUNT>
0

> <PUBCHEM_COMPONENT_COUNT>
1

> <PUBCHEM_CACTVS_TAUTO_COUNT>
-1

> <PUBCHEM_COORDINATE_TYPE>
1
5
255

> <PUBCHEM_BONDANNOTATIONS>
17  20  8
17  21  8
20  22  8
21  23  8
22  24  8
23  24  8
26  28  8
26  32  8
28  30  8
28  33  8
30  35  8
33  36  8
35  37  8
36  37  8
5  30  8
5  32  8
7  25  8
7  34  8
8  25  8
8  38  8
9  34  8
9  38  8

$$$$
