10805130
  -OEChem-09292322512D

 40 43  0     1  0  0  0  0  0999 V2000
    4.2086    1.1622    0.0000 F   0  0  0  0  0  0  0  0  0  0  0  0
    2.0000   -2.1311    0.0000 F   0  0  0  0  0  0  0  0  0  0  0  0
    7.1441    1.7809    0.0000 N   0  0  0  0  0  0  0  0  0  0  0  0
    5.5443   -1.9358    0.0000 N   0  0  0  0  0  0  0  0  0  0  0  0
    8.6279   -0.2651    0.0000 N   0  0  0  0  0  0  0  0  0  0  0  0
    5.8550    0.6241    0.0000 C   0  0  1  0  0  0  0  0  0  0  0  0
    5.1871    1.3684    0.0000 C   0  0  1  0  0  0  0  0  0  0  0  0
    6.8335    0.8304    0.0000 C   0  0  0  0  0  0  0  0  0  0  0  0
    5.5443   -0.3264    0.0000 C   0  0  0  0  0  0  0  0  0  0  0  0
    5.4978    2.3190    0.0000 C   0  0  0  0  0  0  0  0  0  0  0  0
    6.4763    2.5252    0.0000 C   0  0  0  0  0  0  0  0  0  0  0  0
    4.5981   -0.6311    0.0000 C   0  0  0  0  0  0  0  0  0  0  0  0
    6.1279   -1.1311    0.0000 C   0  0  0  0  0  0  0  0  0  0  0  0
    4.5981   -1.6311    0.0000 C   0  0  0  0  0  0  0  0  0  0  0  0
    7.1279   -1.1311    0.0000 C   0  0  0  0  0  0  0  0  0  0  0  0
    3.7320   -0.1311    0.0000 C   0  0  0  0  0  0  0  0  0  0  0  0
    3.7320   -2.1311    0.0000 C   0  0  0  0  0  0  0  0  0  0  0  0
    2.8660   -0.6311    0.0000 C   0  0  0  0  0  0  0  0  0  0  0  0
    2.8660   -1.6311    0.0000 C   0  0  0  0  0  0  0  0  0  0  0  0
    7.6279   -1.9971    0.0000 C   0  0  0  0  0  0  0  0  0  0  0  0
    7.6279   -0.2651    0.0000 C   0  0  0  0  0  0  0  0  0  0  0  0
    8.6279   -1.9971    0.0000 C   0  0  0  0  0  0  0  0  0  0  0  0
    9.1279   -1.1311    0.0000 C   0  0  0  0  0  0  0  0  0  0  0  0
    6.4226   -0.0085    0.0000 H   0  0  0  0  0  0  0  0  0  0  0  0
    4.9945    0.7791    0.0000 H   0  0  0  0  0  0  0  0  0  0  0  0
    6.8540    0.2107    0.0000 H   0  0  0  0  0  0  0  0  0  0  0  0
    7.4473    0.7430    0.0000 H   0  0  0  0  0  0  0  0  0  0  0  0
    5.4772    2.9386    0.0000 H   0  0  0  0  0  0  0  0  0  0  0  0
    4.8840    2.4063    0.0000 H   0  0  0  0  0  0  0  0  0  0  0  0
    7.0026    2.8528    0.0000 H   0  0  0  0  0  0  0  0  0  0  0  0
    6.2450    3.1004    0.0000 H   0  0  0  0  0  0  0  0  0  0  0  0
    7.7508    1.9087    0.0000 H   0  0  0  0  0  0  0  0  0  0  0  0
    5.7369   -2.5252    0.0000 H   0  0  0  0  0  0  0  0  0  0  0  0
    3.7320    0.4889    0.0000 H   0  0  0  0  0  0  0  0  0  0  0  0
    3.7320   -2.7511    0.0000 H   0  0  0  0  0  0  0  0  0  0  0  0
    2.3291   -0.3211    0.0000 H   0  0  0  0  0  0  0  0  0  0  0  0
    7.3179   -2.5341    0.0000 H   0  0  0  0  0  0  0  0  0  0  0  0
    7.3179    0.2718    0.0000 H   0  0  0  0  0  0  0  0  0  0  0  0
    8.9379   -2.5341    0.0000 H   0  0  0  0  0  0  0  0  0  0  0  0
    9.7479   -1.1311    0.0000 H   0  0  0  0  0  0  0  0  0  0  0  0
  7  1  1  6  0  0  0
  2 19  1  0  0  0  0
  3  8  1  0  0  0  0
  3 11  1  0  0  0  0
  3 32  1  0  0  0  0
  4 13  1  0  0  0  0
  4 14  1  0  0  0  0
  4 33  1  0  0  0  0
  5 21  1  0  0  0  0
  5 23  2  0  0  0  0
  6  7  1  0  0  0  0
  6  8  1  0  0  0  0
  6  9  1  0  0  0  0
  6 24  1  6  0  0  0
  7 10  1  0  0  0  0
  7 25  1  0  0  0  0
  8 26  1  0  0  0  0
  8 27  1  0  0  0  0
  9 12  1  0  0  0  0
  9 13  2  0  0  0  0
 10 11  1  0  0  0  0
 10 28  1  0  0  0  0
 10 29  1  0  0  0  0
 11 30  1  0  0  0  0
 11 31  1  0  0  0  0
 12 14  2  0  0  0  0
 12 16  1  0  0  0  0
 13 15  1  0  0  0  0
 14 17  1  0  0  0  0
 15 20  1  0  0  0  0
 15 21  2  0  0  0  0
 16 18  2  0  0  0  0
 16 34  1  0  0  0  0
 17 19  2  0  0  0  0
 17 35  1  0  0  0  0
 18 19  1  0  0  0  0
 18 36  1  0  0  0  0
 20 22  2  0  0  0  0
 20 37  1  0  0  0  0
 21 38  1  0  0  0  0
 22 23  1  0  0  0  0
 22 39  1  0  0  0  0
 23 40  1  0  0  0  0
M  END
> <PUBCHEM_COMPOUND_CID>
10805130

> <PUBCHEM_COMPOUND_CANONICALIZED>
1

> <PUBCHEM_CACTVS_COMPLEXITY>
408

> <PUBCHEM_CACTVS_HBOND_ACCEPTOR>
4

> <PUBCHEM_CACTVS_HBOND_DONOR>
2

> <PUBCHEM_CACTVS_ROTATABLE_BOND>
2

> <PUBCHEM_CACTVS_SUBSKEYS>
AAADceB7AYAAAAAAAAAAAAAAAAAAAWAAAAA8WIAAAAAAAFgB/AAAHQAQAAAADQjBHgw8wPLJkACgAzRnRACCgCAxAiAI2aA4ZJgIIOLA0ZGEIAhgkADIyAcQgMAOgAAAAAACAAAAAAAAAAQAAAAAAAAAAA==

> <PUBCHEM_IUPAC_OPENEYE_NAME>
6-fluoro-3-[(3R,4R)-4-fluoro-3-piperidyl]-2-(3-pyridyl)-1H-indole

> <PUBCHEM_IUPAC_CAS_NAME>
6-fluoro-3-[(3R,4R)-4-fluoro-3-piperidinyl]-2-(3-pyridinyl)-1H-indole

> <PUBCHEM_IUPAC_NAME_MARKUP>
6-fluoro-3-[(3<I>R</I>,4<I>R</I>)-4-fluoropiperidin-3-yl]-2-pyridin-3-yl-1<I>H</I>-indole

> <PUBCHEM_IUPAC_NAME>
6-fluoro-3-[(3R,4R)-4-fluoropiperidin-3-yl]-2-pyridin-3-yl-1H-indole

> <PUBCHEM_IUPAC_SYSTEMATIC_NAME>
6-fluoranyl-3-[(3R,4R)-4-fluoranylpiperidin-3-yl]-2-pyridin-3-yl-1H-indole

> <PUBCHEM_IUPAC_TRADITIONAL_NAME>
6-fluoro-3-[(3R,4R)-4-fluoro-3-piperidyl]-2-(3-pyridyl)-1H-indole

> <PUBCHEM_IUPAC_INCHI>
InChI=1S/C18H17F2N3/c19-12-3-4-13-16(8-12)23-18(11-2-1-6-21-9-11)17(13)14-10-22-7-5-15(14)20/h1-4,6,8-9,14-15,22-23H,5,7,10H2/t14-,15-/m1/s1

> <PUBCHEM_IUPAC_INCHIKEY>
CHURMCWBVMVAMK-HUUCEWRRSA-N

> <PUBCHEM_XLOGP3_AA>
2.9

> <PUBCHEM_EXACT_MASS>
313.13905388

> <PUBCHEM_MOLECULAR_FORMULA>
C18H17F2N3

> <PUBCHEM_MOLECULAR_WEIGHT>
313.3

> <PUBCHEM_OPENEYE_CAN_SMILES>
C1CNCC(C1F)C2=C(NC3=C2C=CC(=C3)F)C4=CN=CC=C4

> <PUBCHEM_OPENEYE_ISO_SMILES>
C1CNC[C@H]([C@@H]1F)C2=C(NC3=C2C=CC(=C3)F)C4=CN=CC=C4

> <PUBCHEM_CACTVS_TPSA>
40.7

> <PUBCHEM_MONOISOTOPIC_WEIGHT>
313.13905388

> <PUBCHEM_TOTAL_CHARGE>
0

> <PUBCHEM_HEAVY_ATOM_COUNT>
23

> <PUBCHEM_ATOM_DEF_STEREO_COUNT>
2

> <PUBCHEM_ATOM_UDEF_STEREO_COUNT>
0

> <PUBCHEM_BOND_DEF_STEREO_COUNT>
0

> <PUBCHEM_BOND_UDEF_STEREO_COUNT>
0

> <PUBCHEM_ISOTOPIC_ATOM_COUNT>
0

> <PUBCHEM_COMPONENT_COUNT>
1

> <PUBCHEM_CACTVS_TAUTO_COUNT>
-1

> <PUBCHEM_COORDINATE_TYPE>
1
5
255

> <PUBCHEM_BONDANNOTATIONS>
7  1  6
12  14  8
12  16  8
14  17  8
15  20  8
15  21  8
16  18  8
17  19  8
18  19  8
20  22  8
22  23  8
4  13  8
4  14  8
5  21  8
5  23  8
6  24  6
9  12  8
9  13  8

$$$$
