71454295
  -OEChem-09292322332D

 80 85  0     0  0  0  0  0  0999 V2000
    8.9830    3.5257    0.0000 O   0  0  0  0  0  0  0  0  0  0  0  0
    9.7230   -1.6309    0.0000 O   0  0  0  0  0  0  0  0  0  0  0  0
    6.4162    1.1994    0.0000 N   0  0  0  0  0  0  0  0  0  0  0  0
    6.4358   -2.7235    0.0000 N   0  0  0  0  0  0  0  0  0  0  0  0
    8.3711    1.6216    0.0000 N   0  0  0  0  0  0  0  0  0  0  0  0
    8.3948   -3.1262    0.0000 N   0  0  0  0  0  0  0  0  0  0  0  0
    5.4387    0.9883    0.0000 C   0  0  0  0  0  0  0  0  0  0  0  0
    5.4562   -2.5221    0.0000 C   0  0  0  0  0  0  0  0  0  0  0  0
    6.7221    2.1515    0.0000 C   0  0  0  0  0  0  0  0  0  0  0  0
    7.0877    0.4585    0.0000 C   0  0  0  0  0  0  0  0  0  0  0  0
    6.7512   -3.6724    0.0000 C   0  0  0  0  0  0  0  0  0  0  0  0
    7.0999   -1.9758    0.0000 C   0  0  0  0  0  0  0  0  0  0  0  0
    5.1328    0.0363    0.0000 C   0  0  0  0  0  0  0  0  0  0  0  0
    5.1408   -1.5732    0.0000 C   0  0  0  0  0  0  0  0  0  0  0  0
    7.6996    2.3626    0.0000 C   0  0  0  0  0  0  0  0  0  0  0  0
    8.0652    0.6696    0.0000 C   0  0  0  0  0  0  0  0  0  0  0  0
    7.7307   -3.8738    0.0000 C   0  0  0  0  0  0  0  0  0  0  0  0
    8.0794   -2.1772    0.0000 C   0  0  0  0  0  0  0  0  0  0  0  0
    4.1881   -0.2732    0.0000 C   0  0  0  0  0  0  0  0  0  0  0  0
    4.1931   -1.2732    0.0000 C   0  0  0  0  0  0  0  0  0  0  0  0
    5.7204   -0.7655    0.0000 C   0  0  0  0  0  0  0  0  0  0  0  0
    9.3486    1.8327    0.0000 C   0  0  0  0  0  0  0  0  0  0  0  0
    9.3743   -3.3275    0.0000 C   0  0  0  0  0  0  0  0  0  0  0  0
    3.4032    0.3464    0.0000 C   0  0  0  0  0  0  0  0  0  0  0  0
    3.4144   -1.9006    0.0000 C   0  0  0  0  0  0  0  0  0  0  0  0
    9.6545    2.7848    0.0000 C   0  0  0  0  0  0  0  0  0  0  0  0
   10.0384   -2.5799    0.0000 C   0  0  0  0  0  0  0  0  0  0  0  0
   10.0201    1.0917    0.0000 C   0  0  0  0  0  0  0  0  0  0  0  0
    9.6897   -4.2764    0.0000 C   0  0  0  0  0  0  0  0  0  0  0  0
    2.4294    0.1190    0.0000 C   0  0  0  0  0  0  0  0  0  0  0  0
    2.4384   -1.6829    0.0000 C   0  0  0  0  0  0  0  0  0  0  0  0
    2.0000   -0.7841    0.0000 C   0  0  0  0  0  0  0  0  0  0  0  0
   10.6320    2.9959    0.0000 C   0  0  0  0  0  0  0  0  0  0  0  0
   11.0180   -2.7812    0.0000 C   0  0  0  0  0  0  0  0  0  0  0  0
   10.9976    1.3028    0.0000 C   0  0  0  0  0  0  0  0  0  0  0  0
   10.6692   -4.4778    0.0000 C   0  0  0  0  0  0  0  0  0  0  0  0
   11.3035    2.2549    0.0000 C   0  0  0  0  0  0  0  0  0  0  0  0
   11.3334   -3.7302    0.0000 C   0  0  0  0  0  0  0  0  0  0  0  0
    9.2889    4.4778    0.0000 C   0  0  0  0  0  0  0  0  0  0  0  0
   10.3872   -0.8833    0.0000 C   0  0  0  0  0  0  0  0  0  0  0  0
    5.4151    1.6079    0.0000 H   0  0  0  0  0  0  0  0  0  0  0  0
    4.8245    1.0726    0.0000 H   0  0  0  0  0  0  0  0  0  0  0  0
    4.8429   -2.6126    0.0000 H   0  0  0  0  0  0  0  0  0  0  0  0
    5.4388   -3.1419    0.0000 H   0  0  0  0  0  0  0  0  0  0  0  0
    6.6985    2.7710    0.0000 H   0  0  0  0  0  0  0  0  0  0  0  0
    6.1079    2.2358    0.0000 H   0  0  0  0  0  0  0  0  0  0  0  0
    6.5630    0.1282    0.0000 H   0  0  0  0  0  0  0  0  0  0  0  0
    7.3219   -0.1156    0.0000 H   0  0  0  0  0  0  0  0  0  0  0  0
    6.1378   -3.7628    0.0000 H   0  0  0  0  0  0  0  0  0  0  0  0
    6.7337   -4.2922    0.0000 H   0  0  0  0  0  0  0  0  0  0  0  0
    7.3283   -1.3994    0.0000 H   0  0  0  0  0  0  0  0  0  0  0  0
    6.5719   -1.6508    0.0000 H   0  0  0  0  0  0  0  0  0  0  0  0
    8.2243    2.6928    0.0000 H   0  0  0  0  0  0  0  0  0  0  0  0
    7.4654    2.9367    0.0000 H   0  0  0  0  0  0  0  0  0  0  0  0
    8.0889    0.0500    0.0000 H   0  0  0  0  0  0  0  0  0  0  0  0
    8.6794    0.5853    0.0000 H   0  0  0  0  0  0  0  0  0  0  0  0
    7.5023   -4.4502    0.0000 H   0  0  0  0  0  0  0  0  0  0  0  0
    8.2587   -4.1988    0.0000 H   0  0  0  0  0  0  0  0  0  0  0  0
    8.6928   -2.0868    0.0000 H   0  0  0  0  0  0  0  0  0  0  0  0
    8.0969   -1.5574    0.0000 H   0  0  0  0  0  0  0  0  0  0  0  0
    6.3404   -0.7625    0.0000 H   0  0  0  0  0  0  0  0  0  0  0  0
    3.5381    0.9515    0.0000 H   0  0  0  0  0  0  0  0  0  0  0  0
    3.5554   -2.5043    0.0000 H   0  0  0  0  0  0  0  0  0  0  0  0
    9.8305    0.5015    0.0000 H   0  0  0  0  0  0  0  0  0  0  0  0
    9.2780   -4.7400    0.0000 H   0  0  0  0  0  0  0  0  0  0  0  0
    2.0404    0.6018    0.0000 H   0  0  0  0  0  0  0  0  0  0  0  0
    2.0542   -2.1696    0.0000 H   0  0  0  0  0  0  0  0  0  0  0  0
    1.3800   -0.7872    0.0000 H   0  0  0  0  0  0  0  0  0  0  0  0
   10.8216    3.5861    0.0000 H   0  0  0  0  0  0  0  0  0  0  0  0
   11.4297   -2.3177    0.0000 H   0  0  0  0  0  0  0  0  0  0  0  0
   11.4140    0.8434    0.0000 H   0  0  0  0  0  0  0  0  0  0  0  0
   10.8648   -5.0661    0.0000 H   0  0  0  0  0  0  0  0  0  0  0  0
   11.9096    2.3858    0.0000 H   0  0  0  0  0  0  0  0  0  0  0  0
   11.9407   -3.8550    0.0000 H   0  0  0  0  0  0  0  0  0  0  0  0
    9.8792    4.2881    0.0000 H   0  0  0  0  0  0  0  0  0  0  0  0
    9.4786    5.0681    0.0000 H   0  0  0  0  0  0  0  0  0  0  0  0
    8.6986    4.6674    0.0000 H   0  0  0  0  0  0  0  0  0  0  0  0
   10.8507   -1.2950    0.0000 H   0  0  0  0  0  0  0  0  0  0  0  0
   10.7989   -0.4198    0.0000 H   0  0  0  0  0  0  0  0  0  0  0  0
    9.9236   -0.4715    0.0000 H   0  0  0  0  0  0  0  0  0  0  0  0
  1 26  1  0  0  0  0
  1 39  1  0  0  0  0
  2 27  1  0  0  0  0
  2 40  1  0  0  0  0
  3  7  1  0  0  0  0
  3  9  1  0  0  0  0
  3 10  1  0  0  0  0
  4  8  1  0  0  0  0
  4 11  1  0  0  0  0
  4 12  1  0  0  0  0
  5 15  1  0  0  0  0
  5 16  1  0  0  0  0
  5 22  1  0  0  0  0
  6 17  1  0  0  0  0
  6 18  1  0  0  0  0
  6 23  1  0  0  0  0
  7 13  1  0  0  0  0
  7 41  1  0  0  0  0
  7 42  1  0  0  0  0
  8 14  1  0  0  0  0
  8 43  1  0  0  0  0
  8 44  1  0  0  0  0
  9 15  1  0  0  0  0
  9 45  1  0  0  0  0
  9 46  1  0  0  0  0
 10 16  1  0  0  0  0
 10 47  1  0  0  0  0
 10 48  1  0  0  0  0
 11 17  1  0  0  0  0
 11 49  1  0  0  0  0
 11 50  1  0  0  0  0
 12 18  1  0  0  0  0
 12 51  1  0  0  0  0
 12 52  1  0  0  0  0
 13 19  2  0  0  0  0
 13 21  1  0  0  0  0
 14 20  1  0  0  0  0
 14 21  2  0  0  0  0
 15 53  1  0  0  0  0
 15 54  1  0  0  0  0
 16 55  1  0  0  0  0
 16 56  1  0  0  0  0
 17 57  1  0  0  0  0
 17 58  1  0  0  0  0
 18 59  1  0  0  0  0
 18 60  1  0  0  0  0
 19 20  1  0  0  0  0
 19 24  1  0  0  0  0
 20 25  2  0  0  0  0
 21 61  1  0  0  0  0
 22 26  1  0  0  0  0
 22 28  2  0  0  0  0
 23 27  1  0  0  0  0
 23 29  2  0  0  0  0
 24 30  2  0  0  0  0
 24 62  1  0  0  0  0
 25 31  1  0  0  0  0
 25 63  1  0  0  0  0
 26 33  2  0  0  0  0
 27 34  2  0  0  0  0
 28 35  1  0  0  0  0
 28 64  1  0  0  0  0
 29 36  1  0  0  0  0
 29 65  1  0  0  0  0
 30 32  1  0  0  0  0
 30 66  1  0  0  0  0
 31 32  2  0  0  0  0
 31 67  1  0  0  0  0
 32 68  1  0  0  0  0
 33 37  1  0  0  0  0
 33 69  1  0  0  0  0
 34 38  1  0  0  0  0
 34 70  1  0  0  0  0
 35 37  2  0  0  0  0
 35 71  1  0  0  0  0
 36 38  2  0  0  0  0
 36 72  1  0  0  0  0
 37 73  1  0  0  0  0
 38 74  1  0  0  0  0
 39 75  1  0  0  0  0
 39 76  1  0  0  0  0
 39 77  1  0  0  0  0
 40 78  1  0  0  0  0
 40 79  1  0  0  0  0
 40 80  1  0  0  0  0
M  END
> <PUBCHEM_COMPOUND_CID>
71454295

> <PUBCHEM_COMPOUND_CANONICALIZED>
1

> <PUBCHEM_CACTVS_COMPLEXITY>
692

> <PUBCHEM_CACTVS_HBOND_ACCEPTOR>
6

> <PUBCHEM_CACTVS_HBOND_DONOR>
0

> <PUBCHEM_CACTVS_ROTATABLE_BOND>
8

> <PUBCHEM_CACTVS_SUBSKEYS>
AAADcfB/sAAAAAAAAAAAAAAAAAAAAYAAAAA8eIEABgAAAADBUAAAHgAAAAAADAzBmAYyxsMABACAAiRCQACCCAAhIgAIiAAPbIgOZiLEsZuVMChkwBHY6AeQwMAOgAAAAAAAEAAAAAAAAAAgAQAACAAAAA==

> <PUBCHEM_IUPAC_OPENEYE_NAME>
1-(2-methoxyphenyl)-4-[[3-[[4-(2-methoxyphenyl)piperazin-1-yl]methyl]azulen-1-yl]methyl]piperazine

> <PUBCHEM_IUPAC_CAS_NAME>
1-(2-methoxyphenyl)-4-[[3-[[4-(2-methoxyphenyl)-1-piperazinyl]methyl]-1-azulenyl]methyl]piperazine

> <PUBCHEM_IUPAC_NAME_MARKUP>
1-(2-methoxyphenyl)-4-[[3-[[4-(2-methoxyphenyl)piperazin-1-yl]methyl]azulen-1-yl]methyl]piperazine

> <PUBCHEM_IUPAC_NAME>
1-(2-methoxyphenyl)-4-[[3-[[4-(2-methoxyphenyl)piperazin-1-yl]methyl]azulen-1-yl]methyl]piperazine

> <PUBCHEM_IUPAC_SYSTEMATIC_NAME>
1-(2-methoxyphenyl)-4-[[3-[[4-(2-methoxyphenyl)piperazin-1-yl]methyl]azulen-1-yl]methyl]piperazine

> <PUBCHEM_IUPAC_TRADITIONAL_NAME>
1-(2-methoxyphenyl)-4-[[3-[[4-(2-methoxyphenyl)piperazino]methyl]azulen-1-yl]methyl]piperazine

> <PUBCHEM_IUPAC_INCHI>
InChI=1S/C34H40N4O2/c1-39-33-14-8-6-12-31(33)37-20-16-35(17-21-37)25-27-24-28(30-11-5-3-4-10-29(27)30)26-36-18-22-38(23-19-36)32-13-7-9-15-34(32)40-2/h3-15,24H,16-23,25-26H2,1-2H3

> <PUBCHEM_IUPAC_INCHIKEY>
HVGNYVOUQOKFLU-UHFFFAOYSA-N

> <PUBCHEM_XLOGP3_AA>
5.7

> <PUBCHEM_EXACT_MASS>
536.31512653

> <PUBCHEM_MOLECULAR_FORMULA>
C34H40N4O2

> <PUBCHEM_MOLECULAR_WEIGHT>
536.7

> <PUBCHEM_OPENEYE_CAN_SMILES>
COC1=CC=CC=C1N2CCN(CC2)CC3=CC(=C4C3=CC=CC=C4)CN5CCN(CC5)C6=CC=CC=C6OC

> <PUBCHEM_OPENEYE_ISO_SMILES>
COC1=CC=CC=C1N2CCN(CC2)CC3=CC(=C4C3=CC=CC=C4)CN5CCN(CC5)C6=CC=CC=C6OC

> <PUBCHEM_CACTVS_TPSA>
31.4

> <PUBCHEM_MONOISOTOPIC_WEIGHT>
536.31512653

> <PUBCHEM_TOTAL_CHARGE>
0

> <PUBCHEM_HEAVY_ATOM_COUNT>
40

> <PUBCHEM_ATOM_DEF_STEREO_COUNT>
0

> <PUBCHEM_ATOM_UDEF_STEREO_COUNT>
0

> <PUBCHEM_BOND_DEF_STEREO_COUNT>
0

> <PUBCHEM_BOND_UDEF_STEREO_COUNT>
0

> <PUBCHEM_ISOTOPIC_ATOM_COUNT>
0

> <PUBCHEM_COMPONENT_COUNT>
1

> <PUBCHEM_CACTVS_TAUTO_COUNT>
-1

> <PUBCHEM_COORDINATE_TYPE>
1
5
255

> <PUBCHEM_BONDANNOTATIONS>
13  19  8
13  21  8
14  20  8
14  21  8
19  24  8
20  25  8
22  26  8
22  28  8
23  27  8
23  29  8
24  30  8
25  31  8
26  33  8
27  34  8
28  35  8
29  36  8
30  32  8
31  32  8
33  37  8
34  38  8
35  37  8
36  38  8

$$$$
