9891002
  -OEChem-09292322152D

 52 56  0     0  0  0  0  0  0999 V2000
    2.3572    1.0134    0.0000 Cl  0  0  0  0  0  0  0  0  0  0  0  0
    5.7308   -0.9989    0.0000 S   0  0  0  0  0  0  0  0  0  0  0  0
    3.7899   -2.6968    0.0000 S   0  0  0  0  0  0  0  0  0  0  0  0
    5.2308   -0.1329    0.0000 O   0  0  0  0  0  0  0  0  0  0  0  0
    6.2308   -1.8650    0.0000 O   0  0  0  0  0  0  0  0  0  0  0  0
   10.0773    0.5357    0.0000 N   0  0  0  0  0  0  0  0  0  0  0  0
   10.0542    2.5355    0.0000 N   0  0  0  0  0  0  0  0  0  0  0  0
    6.5968   -0.4989    0.0000 N   0  0  0  0  0  0  0  0  0  0  0  0
   10.0889   -2.5336    0.0000 N   0  0  0  0  0  0  0  0  0  0  0  0
   10.9375    1.0456    0.0000 C   0  0  0  0  0  0  0  0  0  0  0  0
    9.2056    1.0256    0.0000 C   0  0  0  0  0  0  0  0  0  0  0  0
   10.9259    2.0456    0.0000 C   0  0  0  0  0  0  0  0  0  0  0  0
    9.1940    2.0256    0.0000 C   0  0  0  0  0  0  0  0  0  0  0  0
   10.0889   -0.4643    0.0000 C   0  0  0  0  0  0  0  0  0  0  0  0
    9.1949   -0.9989    0.0000 C   0  0  0  0  0  0  0  0  0  0  0  0
    9.1949   -1.9989    0.0000 C   0  0  0  0  0  0  0  0  0  0  0  0
   10.9949   -0.9781    0.0000 C   0  0  0  0  0  0  0  0  0  0  0  0
    8.3289   -0.4989    0.0000 C   0  0  0  0  0  0  0  0  0  0  0  0
    7.4629   -0.9989    0.0000 C   0  0  0  0  0  0  0  0  0  0  0  0
    4.8648   -1.4989    0.0000 C   0  0  0  0  0  0  0  0  0  0  0  0
    3.9570   -1.0938    0.0000 C   0  0  0  0  0  0  0  0  0  0  0  0
    8.3289   -2.4989    0.0000 C   0  0  0  0  0  0  0  0  0  0  0  0
    7.4629   -1.9989    0.0000 C   0  0  0  0  0  0  0  0  0  0  0  0
    4.7617   -2.4876    0.0000 C   0  0  0  0  0  0  0  0  0  0  0  0
   10.9949   -2.0197    0.0000 C   0  0  0  0  0  0  0  0  0  0  0  0
    3.2892   -1.8381    0.0000 C   0  0  0  0  0  0  0  0  0  0  0  0
    3.6464   -0.1433    0.0000 C   0  0  0  0  0  0  0  0  0  0  0  0
    5.5060   -3.1555    0.0000 C   0  0  0  0  0  0  0  0  0  0  0  0
    2.3107   -1.6319    0.0000 C   0  0  0  0  0  0  0  0  0  0  0  0
    2.6678    0.0629    0.0000 C   0  0  0  0  0  0  0  0  0  0  0  0
    2.0000   -0.6814    0.0000 C   0  0  0  0  0  0  0  0  0  0  0  0
   11.1563    0.4655    0.0000 H   0  0  0  0  0  0  0  0  0  0  0  0
   11.5468    1.1604    0.0000 H   0  0  0  0  0  0  0  0  0  0  0  0
    8.5938    1.1262    0.0000 H   0  0  0  0  0  0  0  0  0  0  0  0
    9.0002    0.4406    0.0000 H   0  0  0  0  0  0  0  0  0  0  0  0
   11.5377    1.9450    0.0000 H   0  0  0  0  0  0  0  0  0  0  0  0
   11.1312    2.6306    0.0000 H   0  0  0  0  0  0  0  0  0  0  0  0
    8.9752    2.6057    0.0000 H   0  0  0  0  0  0  0  0  0  0  0  0
    8.5847    1.9108    0.0000 H   0  0  0  0  0  0  0  0  0  0  0  0
   10.0470    3.1555    0.0000 H   0  0  0  0  0  0  0  0  0  0  0  0
    8.3289    0.1211    0.0000 H   0  0  0  0  0  0  0  0  0  0  0  0
   11.5307   -0.6660    0.0000 H   0  0  0  0  0  0  0  0  0  0  0  0
    6.5968    0.1211    0.0000 H   0  0  0  0  0  0  0  0  0  0  0  0
    8.3289   -3.1189    0.0000 H   0  0  0  0  0  0  0  0  0  0  0  0
    6.9259   -2.3089    0.0000 H   0  0  0  0  0  0  0  0  0  0  0  0
   11.5307   -2.3318    0.0000 H   0  0  0  0  0  0  0  0  0  0  0  0
    4.0604    0.3182    0.0000 H   0  0  0  0  0  0  0  0  0  0  0  0
    5.0920   -3.6170    0.0000 H   0  0  0  0  0  0  0  0  0  0  0  0
    5.9675   -3.5696    0.0000 H   0  0  0  0  0  0  0  0  0  0  0  0
    5.9201   -2.6940    0.0000 H   0  0  0  0  0  0  0  0  0  0  0  0
    1.8966   -2.0934    0.0000 H   0  0  0  0  0  0  0  0  0  0  0  0
    1.3933   -0.5535    0.0000 H   0  0  0  0  0  0  0  0  0  0  0  0
  1 30  1  0  0  0  0
  2  4  2  0  0  0  0
  2  5  2  0  0  0  0
  2  8  1  0  0  0  0
  2 20  1  0  0  0  0
  3 24  1  0  0  0  0
  3 26  1  0  0  0  0
  6 10  1  0  0  0  0
  6 11  1  0  0  0  0
  6 14  1  0  0  0  0
  7 12  1  0  0  0  0
  7 13  1  0  0  0  0
  7 40  1  0  0  0  0
  8 19  1  0  0  0  0
  8 43  1  0  0  0  0
  9 16  2  0  0  0  0
  9 25  1  0  0  0  0
 10 12  1  0  0  0  0
 10 32  1  0  0  0  0
 10 33  1  0  0  0  0
 11 13  1  0  0  0  0
 11 34  1  0  0  0  0
 11 35  1  0  0  0  0
 12 36  1  0  0  0  0
 12 37  1  0  0  0  0
 13 38  1  0  0  0  0
 13 39  1  0  0  0  0
 14 15  2  0  0  0  0
 14 17  1  0  0  0  0
 15 16  1  0  0  0  0
 15 18  1  0  0  0  0
 16 22  1  0  0  0  0
 17 25  2  0  0  0  0
 17 42  1  0  0  0  0
 18 19  2  0  0  0  0
 18 41  1  0  0  0  0
 19 23  1  0  0  0  0
 20 21  1  0  0  0  0
 20 24  2  0  0  0  0
 21 26  2  0  0  0  0
 21 27  1  0  0  0  0
 22 23  2  0  0  0  0
 22 44  1  0  0  0  0
 23 45  1  0  0  0  0
 24 28  1  0  0  0  0
 25 46  1  0  0  0  0
 26 29  1  0  0  0  0
 27 30  2  0  0  0  0
 27 47  1  0  0  0  0
 28 48  1  0  0  0  0
 28 49  1  0  0  0  0
 28 50  1  0  0  0  0
 29 31  2  0  0  0  0
 29 51  1  0  0  0  0
 30 31  1  0  0  0  0
 31 52  1  0  0  0  0
M  END
> <PUBCHEM_COMPOUND_CID>
9891002

> <PUBCHEM_COMPOUND_CANONICALIZED>
1

> <PUBCHEM_CACTVS_COMPLEXITY>
730

> <PUBCHEM_CACTVS_HBOND_ACCEPTOR>
7

> <PUBCHEM_CACTVS_HBOND_DONOR>
2

> <PUBCHEM_CACTVS_ROTATABLE_BOND>
4

> <PUBCHEM_CACTVS_SUBSKEYS>
AAADceB7sABkAAAAAAAAAAAAAAAAASAAAAA8eIEAAAAAAEix/gAAHAYQQAAADArBXiQ+wfPIEAqkAzRnRHDDgLAxDzBI2Lg4ZpgIYOLh09GUJAhgkADoyAcQgIAOAAKAYAAGAAAABQDAAAwAAAAAAAAAAA==

> <PUBCHEM_IUPAC_OPENEYE_NAME>
5-chloro-2-methyl-N-(4-piperazin-1-yl-6-quinolyl)benzothiophene-3-sulfonamide

> <PUBCHEM_IUPAC_CAS_NAME>
5-chloro-2-methyl-N-[4-(1-piperazinyl)-6-quinolinyl]-1-benzothiophene-3-sulfonamide

> <PUBCHEM_IUPAC_NAME_MARKUP>
5-chloro-2-methyl-<I>N</I>-(4-piperazin-1-ylquinolin-6-yl)-1-benzothiophene-3-sulfonamide

> <PUBCHEM_IUPAC_NAME>
5-chloro-2-methyl-N-(4-piperazin-1-ylquinolin-6-yl)-1-benzothiophene-3-sulfonamide

> <PUBCHEM_IUPAC_SYSTEMATIC_NAME>
5-chloranyl-2-methyl-N-(4-piperazin-1-ylquinolin-6-yl)-1-benzothiophene-3-sulfonamide

> <PUBCHEM_IUPAC_TRADITIONAL_NAME>
5-chloro-2-methyl-N-(4-piperazino-6-quinolyl)benzothiophene-3-sulfonamide

> <PUBCHEM_IUPAC_INCHI>
InChI=1S/C22H21ClN4O2S2/c1-14-22(18-12-15(23)2-5-21(18)30-14)31(28,29)26-16-3-4-19-17(13-16)20(6-7-25-19)27-10-8-24-9-11-27/h2-7,12-13,24,26H,8-11H2,1H3

> <PUBCHEM_IUPAC_INCHIKEY>
HLVPVEOVTOGVAE-UHFFFAOYSA-N

> <PUBCHEM_XLOGP3_AA>
4.2

> <PUBCHEM_EXACT_MASS>
472.0794460

> <PUBCHEM_MOLECULAR_FORMULA>
C22H21ClN4O2S2

> <PUBCHEM_MOLECULAR_WEIGHT>
473.0

> <PUBCHEM_OPENEYE_CAN_SMILES>
CC1=C(C2=C(S1)C=CC(=C2)Cl)S(=O)(=O)NC3=CC4=C(C=CN=C4C=C3)N5CCNCC5

> <PUBCHEM_OPENEYE_ISO_SMILES>
CC1=C(C2=C(S1)C=CC(=C2)Cl)S(=O)(=O)NC3=CC4=C(C=CN=C4C=C3)N5CCNCC5

> <PUBCHEM_CACTVS_TPSA>
111

> <PUBCHEM_MONOISOTOPIC_WEIGHT>
472.0794460

> <PUBCHEM_TOTAL_CHARGE>
0

> <PUBCHEM_HEAVY_ATOM_COUNT>
31

> <PUBCHEM_ATOM_DEF_STEREO_COUNT>
0

> <PUBCHEM_ATOM_UDEF_STEREO_COUNT>
0

> <PUBCHEM_BOND_DEF_STEREO_COUNT>
0

> <PUBCHEM_BOND_UDEF_STEREO_COUNT>
0

> <PUBCHEM_ISOTOPIC_ATOM_COUNT>
0

> <PUBCHEM_COMPONENT_COUNT>
1

> <PUBCHEM_CACTVS_TAUTO_COUNT>
-1

> <PUBCHEM_COORDINATE_TYPE>
1
5
255

> <PUBCHEM_BONDANNOTATIONS>
14  15  8
14  17  8
15  16  8
15  18  8
16  22  8
17  25  8
18  19  8
19  23  8
20  21  8
20  24  8
21  26  8
21  27  8
22  23  8
26  29  8
27  30  8
29  31  8
3  24  8
3  26  8
30  31  8
9  16  8
9  25  8

$$$$
