107930
  -OEChem-09292322292D

 42 45  0     1  0  0  0  0  0999 V2000
    2.1374    1.8237    0.0000 Cl  0  0  0  0  0  0  0  0  0  0  0  0
    2.5932   -0.1732    0.0000 O   0  0  0  0  0  0  0  0  0  0  0  0
    7.0983    1.9055    0.0000 N   0  0  3  0  0  0  0  0  0  0  0  0
    6.8758    0.9306    0.0000 C   0  0  2  0  0  0  0  0  0  0  0  0
    5.9748    0.4967    0.0000 C   0  0  2  0  0  0  0  0  0  0  0  0
    7.7453    0.3572    0.0000 C   0  0  0  0  0  0  0  0  0  0  0  0
    5.8810   -0.5407    0.0000 C   0  0  0  0  0  0  0  0  0  0  0  0
    5.0738    0.9306    0.0000 C   0  0  0  0  0  0  0  0  0  0  0  0
    7.6755   -0.6821    0.0000 C   0  0  0  0  0  0  0  0  0  0  0  0
    6.7370   -1.1341    0.0000 C   0  0  0  0  0  0  0  0  0  0  0  0
    6.4748    2.6874    0.0000 C   0  0  0  0  0  0  0  0  0  0  0  0
    5.4748    2.6874    0.0000 C   0  0  0  0  0  0  0  0  0  0  0  0
    4.8513    1.9055    0.0000 C   0  0  0  0  0  0  0  0  0  0  0  0
    8.0732    2.1281    0.0000 C   0  0  0  0  0  0  0  0  0  0  0  0
    4.8928   -0.9887    0.0000 C   0  0  0  0  0  0  0  0  0  0  0  0
    4.3213    0.2104    0.0000 C   0  0  0  0  0  0  0  0  0  0  0  0
    6.6643   -2.2166    0.0000 C   0  0  0  0  0  0  0  0  0  0  0  0
    3.8608    2.2279    0.0000 C   0  0  0  0  0  0  0  0  0  0  0  0
    4.7950   -2.0693    0.0000 C   0  0  0  0  0  0  0  0  0  0  0  0
    3.3236    0.5098    0.0000 C   0  0  0  0  0  0  0  0  0  0  0  0
    5.6868   -2.6874    0.0000 C   0  0  0  0  0  0  0  0  0  0  0  0
    3.0918    1.5253    0.0000 C   0  0  0  0  0  0  0  0  0  0  0  0
    7.6646    1.2472    0.0000 H   0  0  0  0  0  0  0  0  0  0  0  0
    5.2354    0.0774    0.0000 H   0  0  0  0  0  0  0  0  0  0  0  0
    8.3477    0.2104    0.0000 H   0  0  0  0  0  0  0  0  0  0  0  0
    7.9931    0.9255    0.0000 H   0  0  0  0  0  0  0  0  0  0  0  0
    7.8450   -1.2785    0.0000 H   0  0  0  0  0  0  0  0  0  0  0  0
    8.2921   -0.6172    0.0000 H   0  0  0  0  0  0  0  0  0  0  0  0
    7.0334    2.9564    0.0000 H   0  0  0  0  0  0  0  0  0  0  0  0
    6.3368    3.2918    0.0000 H   0  0  0  0  0  0  0  0  0  0  0  0
    5.6128    3.2918    0.0000 H   0  0  0  0  0  0  0  0  0  0  0  0
    4.9162    2.9564    0.0000 H   0  0  0  0  0  0  0  0  0  0  0  0
    8.2112    1.5236    0.0000 H   0  0  0  0  0  0  0  0  0  0  0  0
    8.6777    2.2660    0.0000 H   0  0  0  0  0  0  0  0  0  0  0  0
    7.9352    2.7325    0.0000 H   0  0  0  0  0  0  0  0  0  0  0  0
    4.3873   -0.6296    0.0000 H   0  0  0  0  0  0  0  0  0  0  0  0
    4.4662   -0.3924    0.0000 H   0  0  0  0  0  0  0  0  0  0  0  0
    7.1779   -2.5639    0.0000 H   0  0  0  0  0  0  0  0  0  0  0  0
    3.7298    2.8339    0.0000 H   0  0  0  0  0  0  0  0  0  0  0  0
    4.2334   -2.3318    0.0000 H   0  0  0  0  0  0  0  0  0  0  0  0
    5.6380   -3.3054    0.0000 H   0  0  0  0  0  0  0  0  0  0  0  0
    2.0000    0.0072    0.0000 H   0  0  0  0  0  0  0  0  0  0  0  0
  1 22  1  0  0  0  0
  2 20  1  0  0  0  0
  2 42  1  0  0  0  0
  3  4  1  0  0  0  0
  3 11  1  0  0  0  0
  3 14  1  0  0  0  0
  4  5  1  0  0  0  0
  4  6  1  0  0  0  0
  4 23  1  6  0  0  0
  5  7  1  0  0  0  0
  5  8  1  0  0  0  0
  5 24  1  1  0  0  0
  6  9  1  0  0  0  0
  6 25  1  0  0  0  0
  6 26  1  0  0  0  0
  7 10  1  0  0  0  0
  7 15  2  0  0  0  0
  8 13  1  0  0  0  0
  8 16  2  0  0  0  0
  9 10  1  0  0  0  0
  9 27  1  0  0  0  0
  9 28  1  0  0  0  0
 10 17  2  0  0  0  0
 11 12  1  0  0  0  0
 11 29  1  0  0  0  0
 11 30  1  0  0  0  0
 12 13  1  0  0  0  0
 12 31  1  0  0  0  0
 12 32  1  0  0  0  0
 13 18  2  0  0  0  0
 14 33  1  0  0  0  0
 14 34  1  0  0  0  0
 14 35  1  0  0  0  0
 15 19  1  0  0  0  0
 15 36  1  0  0  0  0
 16 20  1  0  0  0  0
 16 37  1  0  0  0  0
 17 21  1  0  0  0  0
 17 38  1  0  0  0  0
 18 22  1  0  0  0  0
 18 39  1  0  0  0  0
 19 21  2  0  0  0  0
 19 40  1  0  0  0  0
 20 22  2  0  0  0  0
 21 41  1  0  0  0  0
M  END
> <PUBCHEM_COMPOUND_CID>
107930

> <PUBCHEM_COMPOUND_CANONICALIZED>
1

> <PUBCHEM_CACTVS_COMPLEXITY>
403

> <PUBCHEM_CACTVS_HBOND_ACCEPTOR>
2

> <PUBCHEM_CACTVS_HBOND_DONOR>
1

> <PUBCHEM_CACTVS_ROTATABLE_BOND>
0

> <PUBCHEM_CACTVS_SUBSKEYS>
AAADceB6IAAEAAAAAAAAAAAAAAAAAAAAAAAwYMAABYAAAADBQAAAHgIACAAADS7BmCQyBoMAAgCAAiBCAAACAAAgJUAIiAAOC4gIJiKDkxOEcAAkwBGImAeQ0PMOpAABIAAQCABYAAbAACQQAAAAAAAAAA==

> <PUBCHEM_IUPAC_OPENEYE_NAME>
(6aS,13bR)-11-chloro-7-methyl-5,6,6a,8,9,13b-hexahydronaphtho[1,2-a][3]benzazepin-12-ol

> <PUBCHEM_IUPAC_CAS_NAME>
(6aS,13bR)-11-chloro-7-methyl-5,6,6a,8,9,13b-hexahydronaphtho[1,2-a][3]benzazepin-12-ol

> <PUBCHEM_IUPAC_NAME_MARKUP>
(6<I>a</I><I>S</I>,13<I>b</I><I>R</I>)-11-chloro-7-methyl-5,6,6<I>a</I>,8,9,13<I>b</I>-hexahydronaphtho[1,2-a][3]benzazepin-12-ol

> <PUBCHEM_IUPAC_NAME>
(6aS,13bR)-11-chloro-7-methyl-5,6,6a,8,9,13b-hexahydronaphtho[1,2-a][3]benzazepin-12-ol

> <PUBCHEM_IUPAC_SYSTEMATIC_NAME>
(6aS,13bR)-11-chloranyl-7-methyl-5,6,6a,8,9,13b-hexahydronaphtho[1,2-a][3]benzazepin-12-ol

> <PUBCHEM_IUPAC_TRADITIONAL_NAME>
(6aS,13bR)-11-chloro-7-methyl-5,6,6a,8,9,13b-hexahydronaphtho[1,2-a][3]benzazepin-12-ol

> <PUBCHEM_IUPAC_INCHI>
InChI=1S/C19H20ClNO/c1-21-9-8-13-10-16(20)18(22)11-15(13)19-14-5-3-2-4-12(14)6-7-17(19)21/h2-5,10-11,17,19,22H,6-9H2,1H3/t17-,19+/m0/s1

> <PUBCHEM_IUPAC_INCHIKEY>
DMJWENQHWZZWDF-PKOBYXMFSA-N

> <PUBCHEM_XLOGP3_AA>
4.4

> <PUBCHEM_EXACT_MASS>
313.1233420

> <PUBCHEM_MOLECULAR_FORMULA>
C19H20ClNO

> <PUBCHEM_MOLECULAR_WEIGHT>
313.8

> <PUBCHEM_OPENEYE_CAN_SMILES>
CN1CCC2=CC(=C(C=C2C3C1CCC4=CC=CC=C34)O)Cl

> <PUBCHEM_OPENEYE_ISO_SMILES>
CN1CCC2=CC(=C(C=C2[C@@H]3[C@@H]1CCC4=CC=CC=C34)O)Cl

> <PUBCHEM_CACTVS_TPSA>
23.5

> <PUBCHEM_MONOISOTOPIC_WEIGHT>
313.1233420

> <PUBCHEM_TOTAL_CHARGE>
0

> <PUBCHEM_HEAVY_ATOM_COUNT>
22

> <PUBCHEM_ATOM_DEF_STEREO_COUNT>
2

> <PUBCHEM_ATOM_UDEF_STEREO_COUNT>
0

> <PUBCHEM_BOND_DEF_STEREO_COUNT>
0

> <PUBCHEM_BOND_UDEF_STEREO_COUNT>
0

> <PUBCHEM_ISOTOPIC_ATOM_COUNT>
0

> <PUBCHEM_COMPONENT_COUNT>
1

> <PUBCHEM_CACTVS_TAUTO_COUNT>
9

> <PUBCHEM_COORDINATE_TYPE>
1
5
255

> <PUBCHEM_BONDANNOTATIONS>
10  17  8
13  18  8
15  19  8
16  20  8
17  21  8
18  22  8
19  21  8
20  22  8
4  23  6
5  24  5
7  10  8
7  15  8
8  13  8
8  16  8

$$$$
