137640152
  -OEChem-09292322002D

 91 95  0     1  0  0  0  0  0999 V2000
    8.7946   -9.8238    0.0000 O   0  0  0  0  0  0  0  0  0  0  0  0
   12.3247   -8.8479    0.0000 O   0  0  0  0  0  0  0  0  0  0  0  0
   10.4668    0.7970    0.0000 O   0  0  0  0  0  0  0  0  0  0  0  0
    7.2163    4.0272    0.0000 O   0  0  0  0  0  0  0  0  0  0  0  0
    9.2107    4.1767    0.0000 O   0  0  0  0  0  0  0  0  0  0  0  0
    9.2946   -3.6332    0.0000 N   0  0  3  0  0  0  0  0  0  0  0  0
    8.7946   -5.8238    0.0000 N   0  0  3  0  0  0  0  0  0  0  0  0
    9.0357   -0.1787    0.0000 N   0  0  0  0  0  0  0  0  0  0  0  0
   10.5546   -8.8584    0.0000 N   0  0  0  0  0  0  0  0  0  0  0  0
    3.6415    7.0833    0.0000 N   0  0  0  0  0  0  0  0  0  0  0  0
    3.0957    5.5601    0.0000 N   0  0  0  0  0  0  0  0  0  0  0  0
    2.8153    6.5200    0.0000 N   0  0  0  0  0  0  0  0  0  0  0  0
    8.2946   -3.6332    0.0000 C   0  0  0  0  0  0  0  0  0  0  0  0
    9.9181   -4.4150    0.0000 C   0  0  0  0  0  0  0  0  0  0  0  0
    7.6711   -4.4150    0.0000 C   0  0  0  0  0  0  0  0  0  0  0  0
    9.6956   -5.3899    0.0000 C   0  0  0  0  0  0  0  0  0  0  0  0
    7.8936   -5.3899    0.0000 C   0  0  0  0  0  0  0  0  0  0  0  0
    9.7285   -2.7322    0.0000 C   0  0  0  0  0  0  0  0  0  0  0  0
    8.7946   -6.8238    0.0000 C   0  0  0  0  0  0  0  0  0  0  0  0
    9.1652   -1.9059    0.0000 C   0  0  0  0  0  0  0  0  0  0  0  0
    9.6606   -7.3238    0.0000 C   0  0  0  0  0  0  0  0  0  0  0  0
    9.5990   -1.0050    0.0000 C   0  0  0  0  0  0  0  0  0  0  0  0
    7.9286   -7.3238    0.0000 C   0  0  0  0  0  0  0  0  0  0  0  0
    9.6606   -8.3238    0.0000 C   0  0  0  0  0  0  0  0  0  0  0  0
    7.9286   -8.3238    0.0000 C   0  0  0  0  0  0  0  0  0  0  0  0
   10.5546   -6.7891    0.0000 C   0  0  0  0  0  0  0  0  0  0  0  0
    8.7946   -8.8238    0.0000 C   0  0  0  0  0  0  0  0  0  0  0  0
   11.4606   -7.3030    0.0000 C   0  0  0  0  0  0  0  0  0  0  0  0
   11.4606   -8.3446    0.0000 C   0  0  0  0  0  0  0  0  0  0  0  0
    9.4696    0.7222    0.0000 C   0  0  0  0  0  0  0  0  0  0  0  0
    8.9063    1.5485    0.0000 C   0  0  0  0  0  0  0  0  0  0  0  0
    9.3402    2.4494    0.0000 C   0  0  0  0  0  0  0  0  0  0  0  0
    7.9091    1.4737    0.0000 C   0  0  0  0  0  0  0  0  0  0  0  0
    4.6586    4.7040    0.0000 C   0  0  0  0  0  0  0  0  0  0  0  0
    5.6558    4.7787    0.0000 C   0  0  0  0  0  0  0  0  0  0  0  0
    3.6714    8.0829    0.0000 C   0  0  0  0  0  0  0  0  0  0  0  0
    2.8208    8.6085    0.0000 C   0  0  0  0  0  0  0  0  0  0  0  0
    8.7768    3.2757    0.0000 C   0  0  0  0  0  0  0  0  0  0  0  0
    7.7796    3.2010    0.0000 C   0  0  0  0  0  0  0  0  0  0  0  0
    6.2191    3.9525    0.0000 C   0  0  0  0  0  0  0  0  0  0  0  0
    4.0953    5.5302    0.0000 C   0  0  0  0  0  0  0  0  0  0  0  0
    7.3458    2.3000    0.0000 C   0  0  0  0  0  0  0  0  0  0  0  0
    2.8507    9.6081    0.0000 C   0  0  0  0  0  0  0  0  0  0  0  0
    4.4326    6.4716    0.0000 C   0  0  0  0  0  0  0  0  0  0  0  0
    2.0000   10.1338    0.0000 C   0  0  0  0  0  0  0  0  0  0  0  0
   10.2079    4.2514    0.0000 C   0  0  0  0  0  0  0  0  0  0  0  0
    8.4326   -3.0287    0.0000 H   0  0  0  0  0  0  0  0  0  0  0  0
    7.7360   -3.3641    0.0000 H   0  0  0  0  0  0  0  0  0  0  0  0
   10.4767   -4.6840    0.0000 H   0  0  0  0  0  0  0  0  0  0  0  0
   10.3046   -3.9302    0.0000 H   0  0  0  0  0  0  0  0  0  0  0  0
    7.2845   -3.9302    0.0000 H   0  0  0  0  0  0  0  0  0  0  0  0
    7.1125   -4.6840    0.0000 H   0  0  0  0  0  0  0  0  0  0  0  0
    9.8335   -5.9944    0.0000 H   0  0  0  0  0  0  0  0  0  0  0  0
   10.3156   -5.3899    0.0000 H   0  0  0  0  0  0  0  0  0  0  0  0
    7.2736   -5.3899    0.0000 H   0  0  0  0  0  0  0  0  0  0  0  0
    7.7557   -5.9944    0.0000 H   0  0  0  0  0  0  0  0  0  0  0  0
   10.2319   -3.0941    0.0000 H   0  0  0  0  0  0  0  0  0  0  0  0
   10.1723   -2.2993    0.0000 H   0  0  0  0  0  0  0  0  0  0  0  0
    8.6618   -1.5440    0.0000 H   0  0  0  0  0  0  0  0  0  0  0  0
    8.7213   -2.3388    0.0000 H   0  0  0  0  0  0  0  0  0  0  0  0
   10.1024   -1.3669    0.0000 H   0  0  0  0  0  0  0  0  0  0  0  0
   10.0429   -0.5721    0.0000 H   0  0  0  0  0  0  0  0  0  0  0  0
    7.3916   -7.0138    0.0000 H   0  0  0  0  0  0  0  0  0  0  0  0
    7.3916   -8.6338    0.0000 H   0  0  0  0  0  0  0  0  0  0  0  0
   10.5474   -6.1692    0.0000 H   0  0  0  0  0  0  0  0  0  0  0  0
    8.4174   -0.2251    0.0000 H   0  0  0  0  0  0  0  0  0  0  0  0
   10.5474   -9.4784    0.0000 H   0  0  0  0  0  0  0  0  0  0  0  0
   11.9964   -6.9909    0.0000 H   0  0  0  0  0  0  0  0  0  0  0  0
    8.2576  -10.1338    0.0000 H   0  0  0  0  0  0  0  0  0  0  0  0
    9.9584    2.4958    0.0000 H   0  0  0  0  0  0  0  0  0  0  0  0
    7.6401    0.9151    0.0000 H   0  0  0  0  0  0  0  0  0  0  0  0
    4.0935    4.4490    0.0000 H   0  0  0  0  0  0  0  0  0  0  0  0
    4.8116    4.1031    0.0000 H   0  0  0  0  0  0  0  0  0  0  0  0
    6.2209    5.0337    0.0000 H   0  0  0  0  0  0  0  0  0  0  0  0
    5.5028    5.3795    0.0000 H   0  0  0  0  0  0  0  0  0  0  0  0
    4.2785    7.9570    0.0000 H   0  0  0  0  0  0  0  0  0  0  0  0
    3.9008    8.6589    0.0000 H   0  0  0  0  0  0  0  0  0  0  0  0
    2.2137    8.7344    0.0000 H   0  0  0  0  0  0  0  0  0  0  0  0
    2.5914    8.0326    0.0000 H   0  0  0  0  0  0  0  0  0  0  0  0
    5.6540    3.6975    0.0000 H   0  0  0  0  0  0  0  0  0  0  0  0
    6.3721    3.3516    0.0000 H   0  0  0  0  0  0  0  0  0  0  0  0
    6.7275    2.2536    0.0000 H   0  0  0  0  0  0  0  0  0  0  0  0
    3.4578    9.4822    0.0000 H   0  0  0  0  0  0  0  0  0  0  0  0
    3.0801   10.1841    0.0000 H   0  0  0  0  0  0  0  0  0  0  0  0
    5.0277    6.6455    0.0000 H   0  0  0  0  0  0  0  0  0  0  0  0
    2.3259   10.6612    0.0000 H   0  0  0  0  0  0  0  0  0  0  0  0
    1.4726   10.4597    0.0000 H   0  0  0  0  0  0  0  0  0  0  0  0
    1.6741    9.6064    0.0000 H   0  0  0  0  0  0  0  0  0  0  0  0
   10.2543    3.6331    0.0000 H   0  0  0  0  0  0  0  0  0  0  0  0
   10.8262    4.2977    0.0000 H   0  0  0  0  0  0  0  0  0  0  0  0
   10.1616    4.8696    0.0000 H   0  0  0  0  0  0  0  0  0  0  0  0
  1 27  1  0  0  0  0
  1 69  1  0  0  0  0
  2 29  2  0  0  0  0
  3 30  2  0  0  0  0
  4 39  1  0  0  0  0
  4 40  1  0  0  0  0
  5 38  1  0  0  0  0
  5 46  1  0  0  0  0
  6 13  1  0  0  0  0
  6 14  1  0  0  0  0
  6 18  1  0  0  0  0
  7 16  1  0  0  0  0
  7 17  1  0  0  0  0
  7 19  1  0  0  0  0
  8 22  1  0  0  0  0
  8 30  1  0  0  0  0
  8 66  1  0  0  0  0
  9 24  1  0  0  0  0
  9 29  1  0  0  0  0
  9 67  1  0  0  0  0
 10 12  1  0  0  0  0
 10 36  1  0  0  0  0
 10 44  1  0  0  0  0
 11 12  2  0  0  0  0
 11 41  1  0  0  0  0
 13 15  1  0  0  0  0
 13 47  1  0  0  0  0
 13 48  1  0  0  0  0
 14 16  1  0  0  0  0
 14 49  1  0  0  0  0
 14 50  1  0  0  0  0
 15 17  1  0  0  0  0
 15 51  1  0  0  0  0
 15 52  1  0  0  0  0
 16 53  1  0  0  0  0
 16 54  1  0  0  0  0
 17 55  1  0  0  0  0
 17 56  1  0  0  0  0
 18 20  1  0  0  0  0
 18 57  1  0  0  0  0
 18 58  1  0  0  0  0
 19 21  2  0  0  0  0
 19 23  1  0  0  0  0
 20 22  1  0  0  0  0
 20 59  1  0  0  0  0
 20 60  1  0  0  0  0
 21 24  1  0  0  0  0
 21 26  1  0  0  0  0
 22 61  1  0  0  0  0
 22 62  1  0  0  0  0
 23 25  2  0  0  0  0
 23 63  1  0  0  0  0
 24 27  2  0  0  0  0
 25 27  1  0  0  0  0
 25 64  1  0  0  0  0
 26 28  2  0  0  0  0
 26 65  1  0  0  0  0
 28 29  1  0  0  0  0
 28 68  1  0  0  0  0
 30 31  1  0  0  0  0
 31 32  2  0  0  0  0
 31 33  1  0  0  0  0
 32 38  1  0  0  0  0
 32 70  1  0  0  0  0
 33 42  2  0  0  0  0
 33 71  1  0  0  0  0
 34 35  1  0  0  0  0
 34 41  1  0  0  0  0
 34 72  1  0  0  0  0
 34 73  1  0  0  0  0
 35 40  1  0  0  0  0
 35 74  1  0  0  0  0
 35 75  1  0  0  0  0
 36 37  1  0  0  0  0
 36 76  1  0  0  0  0
 36 77  1  0  0  0  0
 37 43  1  0  0  0  0
 37 78  1  0  0  0  0
 37 79  1  0  0  0  0
 38 39  2  0  0  0  0
 39 42  1  0  0  0  0
 40 80  1  0  0  0  0
 40 81  1  0  0  0  0
 41 44  2  0  0  0  0
 42 82  1  0  0  0  0
 43 45  1  0  0  0  0
 43 83  1  0  0  0  0
 43 84  1  0  0  0  0
 44 85  1  0  0  0  0
 45 86  1  0  0  0  0
 45 87  1  0  0  0  0
 45 88  1  0  0  0  0
 46 89  1  0  0  0  0
 46 90  1  0  0  0  0
 46 91  1  0  0  0  0
M  END
> <PUBCHEM_COMPOUND_CID>
137640152

> <PUBCHEM_COMPOUND_CANONICALIZED>
1

> <PUBCHEM_CACTVS_COMPLEXITY>
988

> <PUBCHEM_CACTVS_HBOND_ACCEPTOR>
9

> <PUBCHEM_CACTVS_HBOND_DONOR>
3

> <PUBCHEM_CACTVS_ROTATABLE_BOND>
15

> <PUBCHEM_CACTVS_SUBSKEYS>
AAADcfB/uAAAAAAAAAAAAAAAAAAAAWAAAAAwYIAABYAAAACB0AAAHgAYCAAADAzhngY+xpPIBgCqAzV3VACCDAQ1sgAY2IE//MgPZjLW9duWeSrk1hHa+Ye63BLOIEABAAQCUABAgAIACASgAAAAAAAAAA==

> <PUBCHEM_IUPAC_OPENEYE_NAME>
4-[3-(1-butyltriazol-4-yl)propoxy]-N-[3-[4-(8-hydroxy-2-oxo-1H-quinolin-5-yl)-1,4-diazepan-1-yl]propyl]-3-methoxy-benzamide

> <PUBCHEM_IUPAC_CAS_NAME>
4-[3-(1-butyl-4-triazolyl)propoxy]-N-[3-[4-(8-hydroxy-2-oxo-1H-quinolin-5-yl)-1,4-diazepan-1-yl]propyl]-3-methoxybenzamide

> <PUBCHEM_IUPAC_NAME_MARKUP>
4-[3-(1-butyltriazol-4-yl)propoxy]-<I>N</I>-[3-[4-(8-hydroxy-2-oxo-1<I>H</I>-quinolin-5-yl)-1,4-diazepan-1-yl]propyl]-3-methoxybenzamide

> <PUBCHEM_IUPAC_NAME>
4-[3-(1-butyltriazol-4-yl)propoxy]-N-[3-[4-(8-hydroxy-2-oxo-1H-quinolin-5-yl)-1,4-diazepan-1-yl]propyl]-3-methoxybenzamide

> <PUBCHEM_IUPAC_SYSTEMATIC_NAME>
4-[3-(1-butyl-1,2,3-triazol-4-yl)propoxy]-3-methoxy-N-[3-[4-(8-oxidanyl-2-oxidanylidene-1H-quinolin-5-yl)-1,4-diazepan-1-yl]propyl]benzamide

> <PUBCHEM_IUPAC_TRADITIONAL_NAME>
4-[3-(1-butyltriazol-4-yl)propoxy]-N-[3-[4-(8-hydroxy-2-keto-1H-quinolin-5-yl)-1,4-diazepan-1-yl]propyl]-3-methoxy-benzamide

> <PUBCHEM_IUPAC_INCHI>
InChI=1S/C34H45N7O5/c1-3-4-19-41-24-26(37-38-41)8-5-22-46-30-13-9-25(23-31(30)45-2)34(44)35-15-6-16-39-17-7-18-40(21-20-39)28-11-12-29(42)33-27(28)10-14-32(43)36-33/h9-14,23-24,42H,3-8,15-22H2,1-2H3,(H,35,44)(H,36,43)

> <PUBCHEM_IUPAC_INCHIKEY>
LQFUKCCOLHDWFK-UHFFFAOYSA-N

> <PUBCHEM_XLOGP3_AA>
3.8

> <PUBCHEM_EXACT_MASS>
631.34821756

> <PUBCHEM_MOLECULAR_FORMULA>
C34H45N7O5

> <PUBCHEM_MOLECULAR_WEIGHT>
631.8

> <PUBCHEM_OPENEYE_CAN_SMILES>
CCCCN1C=C(N=N1)CCCOC2=C(C=C(C=C2)C(=O)NCCCN3CCCN(CC3)C4=C5C=CC(=O)NC5=C(C=C4)O)OC

> <PUBCHEM_OPENEYE_ISO_SMILES>
CCCCN1C=C(N=N1)CCCOC2=C(C=C(C=C2)C(=O)NCCCN3CCCN(CC3)C4=C5C=CC(=O)NC5=C(C=C4)O)OC

> <PUBCHEM_CACTVS_TPSA>
134

> <PUBCHEM_MONOISOTOPIC_WEIGHT>
631.34821756

> <PUBCHEM_TOTAL_CHARGE>
0

> <PUBCHEM_HEAVY_ATOM_COUNT>
46

> <PUBCHEM_ATOM_DEF_STEREO_COUNT>
0

> <PUBCHEM_ATOM_UDEF_STEREO_COUNT>
0

> <PUBCHEM_BOND_DEF_STEREO_COUNT>
0

> <PUBCHEM_BOND_UDEF_STEREO_COUNT>
0

> <PUBCHEM_ISOTOPIC_ATOM_COUNT>
0

> <PUBCHEM_COMPONENT_COUNT>
1

> <PUBCHEM_CACTVS_TAUTO_COUNT>
-1

> <PUBCHEM_COORDINATE_TYPE>
1
5
255

> <PUBCHEM_BONDANNOTATIONS>
10  12  8
10  44  8
11  12  8
11  41  8
19  21  8
19  23  8
21  24  8
21  26  8
23  25  8
24  27  8
25  27  8
26  28  8
28  29  8
31  32  8
31  33  8
32  38  8
33  42  8
38  39  8
39  42  8
41  44  8
9  24  8
9  29  8

$$$$
