44406862
  -OEChem-09292322492D

 47 50  0     1  0  0  0  0  0999 V2000
    4.6318    1.5436    0.0000 O   0  0  0  0  0  0  0  0  0  0  0  0
    6.2781    1.0055    0.0000 N   0  0  0  0  0  0  0  0  0  0  0  0
    7.2566    1.2117    0.0000 C   0  0  3  0  0  0  0  0  0  0  0  0
    7.5673    2.1622    0.0000 C   0  0  0  0  0  0  0  0  0  0  0  0
    6.8994    2.9065    0.0000 C   0  0  0  0  0  0  0  0  0  0  0  0
    5.9674    0.0550    0.0000 C   0  0  0  0  0  0  0  0  0  0  0  0
    5.9209    2.7003    0.0000 C   0  0  0  0  0  0  0  0  0  0  0  0
    5.6103    1.7498    0.0000 C   0  0  0  0  0  0  0  0  0  0  0  0
    4.9889   -0.1513    0.0000 C   0  0  0  0  0  0  0  0  0  0  0  0
    7.9244    0.4674    0.0000 C   0  0  0  0  0  0  0  0  0  0  0  0
    4.6783   -1.1018    0.0000 C   0  0  0  0  0  0  0  0  0  0  0  0
    3.7320   -1.4065    0.0000 C   0  0  0  0  0  0  0  0  0  0  0  0
    3.7320   -2.4065    0.0000 C   0  0  0  0  0  0  0  0  0  0  0  0
    4.6783   -2.7112    0.0000 C   0  0  0  0  0  0  0  0  0  0  0  0
    5.2619   -1.9065    0.0000 C   0  0  0  0  0  0  0  0  0  0  0  0
    8.9030    0.6736    0.0000 C   0  0  0  0  0  0  0  0  0  0  0  0
    7.6138   -0.4831    0.0000 C   0  0  0  0  0  0  0  0  0  0  0  0
    2.8660   -0.9065    0.0000 C   0  0  0  0  0  0  0  0  0  0  0  0
    2.8660   -2.9065    0.0000 C   0  0  0  0  0  0  0  0  0  0  0  0
    9.5708   -0.0707    0.0000 C   0  0  0  0  0  0  0  0  0  0  0  0
    8.2816   -1.2274    0.0000 C   0  0  0  0  0  0  0  0  0  0  0  0
    9.2601   -1.0212    0.0000 C   0  0  0  0  0  0  0  0  0  0  0  0
    2.0000   -1.4065    0.0000 C   0  0  0  0  0  0  0  0  0  0  0  0
    2.0000   -2.4065    0.0000 C   0  0  0  0  0  0  0  0  0  0  0  0
    7.0640    0.6224    0.0000 H   0  0  0  0  0  0  0  0  0  0  0  0
    8.1142    1.8702    0.0000 H   0  0  0  0  0  0  0  0  0  0  0  0
    7.9498    2.6501    0.0000 H   0  0  0  0  0  0  0  0  0  0  0  0
    7.4258    3.2342    0.0000 H   0  0  0  0  0  0  0  0  0  0  0  0
    6.6682    3.4818    0.0000 H   0  0  0  0  0  0  0  0  0  0  0  0
    5.9880   -0.5647    0.0000 H   0  0  0  0  0  0  0  0  0  0  0  0
    6.5812   -0.0324    0.0000 H   0  0  0  0  0  0  0  0  0  0  0  0
    5.9004    3.3200    0.0000 H   0  0  0  0  0  0  0  0  0  0  0  0
    5.3071    2.7877    0.0000 H   0  0  0  0  0  0  0  0  0  0  0  0
    4.9684    0.4684    0.0000 H   0  0  0  0  0  0  0  0  0  0  0  0
    4.3751   -0.0639    0.0000 H   0  0  0  0  0  0  0  0  0  0  0  0
    4.4272   -3.2782    0.0000 H   0  0  0  0  0  0  0  0  0  0  0  0
    5.2156   -3.0205    0.0000 H   0  0  0  0  0  0  0  0  0  0  0  0
    5.8819   -1.9065    0.0000 H   0  0  0  0  0  0  0  0  0  0  0  0
    9.0956    1.2629    0.0000 H   0  0  0  0  0  0  0  0  0  0  0  0
    7.0071   -0.6110    0.0000 H   0  0  0  0  0  0  0  0  0  0  0  0
    2.8660   -0.2865    0.0000 H   0  0  0  0  0  0  0  0  0  0  0  0
    2.8660   -3.5265    0.0000 H   0  0  0  0  0  0  0  0  0  0  0  0
   10.1775    0.0572    0.0000 H   0  0  0  0  0  0  0  0  0  0  0  0
    8.0890   -1.8168    0.0000 H   0  0  0  0  0  0  0  0  0  0  0  0
    9.6742   -1.4827    0.0000 H   0  0  0  0  0  0  0  0  0  0  0  0
    1.4631   -1.0965    0.0000 H   0  0  0  0  0  0  0  0  0  0  0  0
    1.4631   -2.7165    0.0000 H   0  0  0  0  0  0  0  0  0  0  0  0
  1  8  2  0  0  0  0
  2  3  1  0  0  0  0
  2  6  1  0  0  0  0
  2  8  1  0  0  0  0
  3  4  1  0  0  0  0
  3 10  1  0  0  0  0
  3 25  1  0  0  0  0
  4  5  1  0  0  0  0
  4 26  1  0  0  0  0
  4 27  1  0  0  0  0
  5  7  1  0  0  0  0
  5 28  1  0  0  0  0
  5 29  1  0  0  0  0
  6  9  1  0  0  0  0
  6 30  1  0  0  0  0
  6 31  1  0  0  0  0
  7  8  1  0  0  0  0
  7 32  1  0  0  0  0
  7 33  1  0  0  0  0
  9 11  1  0  0  0  0
  9 34  1  0  0  0  0
  9 35  1  0  0  0  0
 10 16  2  0  0  0  0
 10 17  1  0  0  0  0
 11 12  1  0  0  0  0
 11 15  2  0  0  0  0
 12 13  1  0  0  0  0
 12 18  2  0  0  0  0
 13 14  1  0  0  0  0
 13 19  2  0  0  0  0
 14 15  1  0  0  0  0
 14 36  1  0  0  0  0
 14 37  1  0  0  0  0
 15 38  1  0  0  0  0
 16 20  1  0  0  0  0
 16 39  1  0  0  0  0
 17 21  2  0  0  0  0
 17 40  1  0  0  0  0
 18 23  1  0  0  0  0
 18 41  1  0  0  0  0
 19 24  1  0  0  0  0
 19 42  1  0  0  0  0
 20 22  2  0  0  0  0
 20 43  1  0  0  0  0
 21 22  1  0  0  0  0
 21 44  1  0  0  0  0
 22 45  1  0  0  0  0
 23 24  2  0  0  0  0
 23 46  1  0  0  0  0
 24 47  1  0  0  0  0
M  END
> <PUBCHEM_COMPOUND_CID>
44406862

> <PUBCHEM_COMPOUND_CANONICALIZED>
1

> <PUBCHEM_CACTVS_COMPLEXITY>
476

> <PUBCHEM_CACTVS_HBOND_ACCEPTOR>
1

> <PUBCHEM_CACTVS_HBOND_DONOR>
0

> <PUBCHEM_CACTVS_ROTATABLE_BOND>
4

> <PUBCHEM_CACTVS_SUBSKEYS>
AAADceB6IAAAAAAAAAAAAAAAAAAAAQAAAAA8YIAAAAAAAEABQAAAHgAAAAAADCjBmAQwAIMAAACIAiFSEACCAAAgAAAIiAEIBIgIIDKAkRGEIAhghgCIiAcYicCegAAAAAAQAAAAAAAAACAAAAAAAAAAAA==

> <PUBCHEM_IUPAC_OPENEYE_NAME>
1-[2-(3H-inden-1-yl)ethyl]-6-phenyl-piperidin-2-one

> <PUBCHEM_IUPAC_CAS_NAME>
1-[2-(3H-inden-1-yl)ethyl]-6-phenyl-2-piperidinone

> <PUBCHEM_IUPAC_NAME_MARKUP>
1-[2-(3<I>H</I>-inden-1-yl)ethyl]-6-phenylpiperidin-2-one

> <PUBCHEM_IUPAC_NAME>
1-[2-(3H-inden-1-yl)ethyl]-6-phenylpiperidin-2-one

> <PUBCHEM_IUPAC_SYSTEMATIC_NAME>
1-[2-(3H-inden-1-yl)ethyl]-6-phenyl-piperidin-2-one

> <PUBCHEM_IUPAC_TRADITIONAL_NAME>
1-[2-(3H-inden-1-yl)ethyl]-6-phenyl-2-piperidone

> <PUBCHEM_IUPAC_INCHI>
InChI=1S/C22H23NO/c24-22-12-6-11-21(19-8-2-1-3-9-19)23(22)16-15-18-14-13-17-7-4-5-10-20(17)18/h1-5,7-10,14,21H,6,11-13,15-16H2

> <PUBCHEM_IUPAC_INCHIKEY>
GYEPXPNIWUTXDF-UHFFFAOYSA-N

> <PUBCHEM_XLOGP3_AA>
4

> <PUBCHEM_EXACT_MASS>
317.177964357

> <PUBCHEM_MOLECULAR_FORMULA>
C22H23NO

> <PUBCHEM_MOLECULAR_WEIGHT>
317.4

> <PUBCHEM_OPENEYE_CAN_SMILES>
C1CC(N(C(=O)C1)CCC2=CCC3=CC=CC=C32)C4=CC=CC=C4

> <PUBCHEM_OPENEYE_ISO_SMILES>
C1CC(N(C(=O)C1)CCC2=CCC3=CC=CC=C32)C4=CC=CC=C4

> <PUBCHEM_CACTVS_TPSA>
20.3

> <PUBCHEM_MONOISOTOPIC_WEIGHT>
317.177964357

> <PUBCHEM_TOTAL_CHARGE>
0

> <PUBCHEM_HEAVY_ATOM_COUNT>
24

> <PUBCHEM_ATOM_DEF_STEREO_COUNT>
0

> <PUBCHEM_ATOM_UDEF_STEREO_COUNT>
1

> <PUBCHEM_BOND_DEF_STEREO_COUNT>
0

> <PUBCHEM_BOND_UDEF_STEREO_COUNT>
0

> <PUBCHEM_ISOTOPIC_ATOM_COUNT>
0

> <PUBCHEM_COMPONENT_COUNT>
1

> <PUBCHEM_CACTVS_TAUTO_COUNT>
-1

> <PUBCHEM_COORDINATE_TYPE>
1
5
255

> <PUBCHEM_BONDANNOTATIONS>
10  16  8
10  17  8
12  13  8
12  18  8
13  19  8
16  20  8
17  21  8
18  23  8
19  24  8
20  22  8
21  22  8
23  24  8
3  10  3

$$$$
