2100068
  -OEChem-09292322082D

 29 32  0     0  0  0  0  0  0999 V2000
    6.5527    1.1250    0.0000 S   0  0  0  0  0  0  0  0  0  0  0  0
    3.9302   -1.0129    0.0000 N   0  0  0  0  0  0  0  0  0  0  0  0
    3.5253    0.7104    0.0000 N   0  0  0  0  0  0  0  0  0  0  0  0
    4.8677    1.9098    0.0000 N   0  0  0  0  0  0  0  0  0  0  0  0
    2.9546   -1.2321    0.0000 C   0  0  0  0  0  0  0  0  0  0  0  0
    2.2192   -1.9098    0.0000 C   0  0  0  0  0  0  0  0  0  0  0  0
    2.0000   -0.9341    0.0000 C   0  0  0  0  0  0  0  0  0  0  0  0
    6.0527   -0.4138    0.0000 C   0  0  0  0  0  0  0  0  0  0  0  0
    6.3623   -1.3584    0.0000 C   0  0  0  0  0  0  0  0  0  0  0  0
    5.2436    0.1740    0.0000 C   0  0  0  0  0  0  0  0  0  0  0  0
    7.3564   -1.3576    0.0000 C   0  0  0  0  0  0  0  0  0  0  0  0
    4.2282   -0.0583    0.0000 C   0  0  0  0  0  0  0  0  0  0  0  0
    6.8617    0.1740    0.0000 C   0  0  0  0  0  0  0  0  0  0  0  0
    7.6644   -0.4124    0.0000 C   0  0  0  0  0  0  0  0  0  0  0  0
    5.5527    1.1250    0.0000 C   0  0  0  0  0  0  0  0  0  0  0  0
    3.8472    1.7010    0.0000 C   0  0  0  0  0  0  0  0  0  0  0  0
    3.2424   -1.7812    0.0000 H   0  0  0  0  0  0  0  0  0  0  0  0
    1.6471   -2.1486    0.0000 H   0  0  0  0  0  0  0  0  0  0  0  0
    2.5538   -2.4317    0.0000 H   0  0  0  0  0  0  0  0  0  0  0  0
    2.0792   -0.3191    0.0000 H   0  0  0  0  0  0  0  0  0  0  0  0
    1.3807   -0.9629    0.0000 H   0  0  0  0  0  0  0  0  0  0  0  0
    4.3504   -1.4688    0.0000 H   0  0  0  0  0  0  0  0  0  0  0  0
    5.7561   -1.4886    0.0000 H   0  0  0  0  0  0  0  0  0  0  0  0
    6.4280   -1.9750    0.0000 H   0  0  0  0  0  0  0  0  0  0  0  0
    7.2918   -1.9742    0.0000 H   0  0  0  0  0  0  0  0  0  0  0  0
    7.9628   -1.4867    0.0000 H   0  0  0  0  0  0  0  0  0  0  0  0
    8.2304   -0.6654    0.0000 H   0  0  0  0  0  0  0  0  0  0  0  0
    7.9755    0.1239    0.0000 H   0  0  0  0  0  0  0  0  0  0  0  0
    3.4341    2.1634    0.0000 H   0  0  0  0  0  0  0  0  0  0  0  0
  1 13  1  0  0  0  0
  1 15  1  0  0  0  0
  2  5  1  0  0  0  0
  2 12  1  0  0  0  0
  2 22  1  0  0  0  0
  3 12  1  0  0  0  0
  3 16  2  0  0  0  0
  4 15  2  0  0  0  0
  4 16  1  0  0  0  0
  5  6  1  0  0  0  0
  5  7  1  0  0  0  0
  5 17  1  0  0  0  0
  6  7  1  0  0  0  0
  6 18  1  0  0  0  0
  6 19  1  0  0  0  0
  7 20  1  0  0  0  0
  7 21  1  0  0  0  0
  8  9  1  0  0  0  0
  8 10  1  0  0  0  0
  8 13  2  0  0  0  0
  9 11  1  0  0  0  0
  9 23  1  0  0  0  0
  9 24  1  0  0  0  0
 10 12  2  0  0  0  0
 10 15  1  0  0  0  0
 11 14  1  0  0  0  0
 11 25  1  0  0  0  0
 11 26  1  0  0  0  0
 13 14  1  0  0  0  0
 14 27  1  0  0  0  0
 14 28  1  0  0  0  0
 16 29  1  0  0  0  0
M  END
> <PUBCHEM_COMPOUND_CID>
2100068

> <PUBCHEM_COMPOUND_CANONICALIZED>
1

> <PUBCHEM_CACTVS_COMPLEXITY>
281

> <PUBCHEM_CACTVS_HBOND_ACCEPTOR>
4

> <PUBCHEM_CACTVS_HBOND_DONOR>
1

> <PUBCHEM_CACTVS_ROTATABLE_BOND>
2

> <PUBCHEM_CACTVS_SUBSKEYS>
AAADccBzAABAAAAAAAAAAAAAGAAAAaIAAAAsAAAAAAASAFgB+AAAHAQQAAAADCjBWgQFsdbIEAikAgJhZACD0KlxCLgB2LAoRJiIKCLg2NGEBAxokALoyCcQgEAOgAAAAAAAAAAAAAAAAAAAAAAAAgAAAA==

> <PUBCHEM_IUPAC_OPENEYE_NAME>
N-cyclopropyl-7-thia-9,11-diazatricyclo[6.4.0.02,6]dodeca-1(12),2(6),8,10-tetraen-12-amine

> <PUBCHEM_IUPAC_CAS_NAME>
N-cyclopropyl-7-thia-9,11-diazatricyclo[6.4.0.02,6]dodeca-1(12),2(6),8,10-tetraen-12-amine

> <PUBCHEM_IUPAC_NAME_MARKUP>
<I>N</I>-cyclopropyl-7-thia-9,11-diazatricyclo[6.4.0.0<SUP>2,6</SUP>]dodeca-1(12),2(6),8,10-tetraen-12-amine

> <PUBCHEM_IUPAC_NAME>
N-cyclopropyl-7-thia-9,11-diazatricyclo[6.4.0.02,6]dodeca-1(12),2(6),8,10-tetraen-12-amine

> <PUBCHEM_IUPAC_SYSTEMATIC_NAME>
N-cyclopropyl-7-thia-9,11-diazatricyclo[6.4.0.02,6]dodeca-1(12),2(6),8,10-tetraen-12-amine

> <PUBCHEM_IUPAC_TRADITIONAL_NAME>
cyclopropyl(7-thia-9,11-diazatricyclo[6.4.0.02,6]dodeca-1(12),2(6),8,10-tetraen-12-yl)amine

> <PUBCHEM_IUPAC_INCHI>
InChI=1S/C12H13N3S/c1-2-8-9(3-1)16-12-10(8)11(13-6-14-12)15-7-4-5-7/h6-7H,1-5H2,(H,13,14,15)

> <PUBCHEM_IUPAC_INCHIKEY>
FABFPKATFPTBFE-UHFFFAOYSA-N

> <PUBCHEM_XLOGP3_AA>
3.1

> <PUBCHEM_EXACT_MASS>
231.08301860

> <PUBCHEM_MOLECULAR_FORMULA>
C12H13N3S

> <PUBCHEM_MOLECULAR_WEIGHT>
231.32

> <PUBCHEM_OPENEYE_CAN_SMILES>
C1CC2=C(C1)SC3=NC=NC(=C23)NC4CC4

> <PUBCHEM_OPENEYE_ISO_SMILES>
C1CC2=C(C1)SC3=NC=NC(=C23)NC4CC4

> <PUBCHEM_CACTVS_TPSA>
66

> <PUBCHEM_MONOISOTOPIC_WEIGHT>
231.08301860

> <PUBCHEM_TOTAL_CHARGE>
0

> <PUBCHEM_HEAVY_ATOM_COUNT>
16

> <PUBCHEM_ATOM_DEF_STEREO_COUNT>
0

> <PUBCHEM_ATOM_UDEF_STEREO_COUNT>
0

> <PUBCHEM_BOND_DEF_STEREO_COUNT>
0

> <PUBCHEM_BOND_UDEF_STEREO_COUNT>
0

> <PUBCHEM_ISOTOPIC_ATOM_COUNT>
0

> <PUBCHEM_COMPONENT_COUNT>
1

> <PUBCHEM_CACTVS_TAUTO_COUNT>
-1

> <PUBCHEM_COORDINATE_TYPE>
1
5
255

> <PUBCHEM_BONDANNOTATIONS>
1  13  8
1  15  8
10  12  8
10  15  8
3  12  8
3  16  8
4  15  8
4  16  8
8  10  8
8  13  8

$$$$
