118731511
  -OEChem-09292322352D

 68 72  0     0  0  0  0  0  0999 V2000
    4.9889   -3.8625    0.0000 S   0  0  0  0  0  0  0  0  0  0  0  0
    8.1886    3.8625    0.0000 O   0  0  0  0  0  0  0  0  0  0  0  0
    5.9394   -3.5518    0.0000 O   0  0  0  0  0  0  0  0  0  0  0  0
    4.0384   -4.1732    0.0000 O   0  0  0  0  0  0  0  0  0  0  0  0
    6.5422    4.4006    0.0000 O   0  0  0  0  0  0  0  0  0  0  0  0
    5.6103    1.5490    0.0000 N   0  0  0  0  0  0  0  0  0  0  0  0
    4.6783   -2.9120    0.0000 N   0  0  0  0  0  0  0  0  0  0  0  0
    6.1851    6.0954    0.0000 N   0  0  0  0  0  0  0  0  0  0  0  0
    4.9889   -0.3520    0.0000 C   0  0  0  0  0  0  0  0  0  0  0  0
    5.9674   -0.1458    0.0000 C   0  0  0  0  0  0  0  0  0  0  0  0
    4.3211    0.3923    0.0000 C   0  0  0  0  0  0  0  0  0  0  0  0
    6.2781    0.8047    0.0000 C   0  0  0  0  0  0  0  0  0  0  0  0
    4.6318    1.3428    0.0000 C   0  0  0  0  0  0  0  0  0  0  0  0
    4.6783   -1.3025    0.0000 C   0  0  0  0  0  0  0  0  0  0  0  0
    5.9209    2.4996    0.0000 C   0  0  0  0  0  0  0  0  0  0  0  0
    3.7320   -1.6073    0.0000 C   0  0  0  0  0  0  0  0  0  0  0  0
    5.2619   -2.1073    0.0000 C   0  0  0  0  0  0  0  0  0  0  0  0
    3.7320   -2.6073    0.0000 C   0  0  0  0  0  0  0  0  0  0  0  0
    6.8994    2.7058    0.0000 C   0  0  0  0  0  0  0  0  0  0  0  0
    2.8660   -1.1073    0.0000 C   0  0  0  0  0  0  0  0  0  0  0  0
    2.8660   -3.1073    0.0000 C   0  0  0  0  0  0  0  0  0  0  0  0
    7.2101    3.6563    0.0000 C   0  0  0  0  0  0  0  0  0  0  0  0
    2.0000   -1.6073    0.0000 C   0  0  0  0  0  0  0  0  0  0  0  0
    2.0000   -2.6073    0.0000 C   0  0  0  0  0  0  0  0  0  0  0  0
    5.2996   -4.8130    0.0000 C   0  0  0  0  0  0  0  0  0  0  0  0
    6.2781   -5.0193    0.0000 C   0  0  0  0  0  0  0  0  0  0  0  0
    4.6318   -5.5573    0.0000 C   0  0  0  0  0  0  0  0  0  0  0  0
    8.4993    4.8130    0.0000 C   0  0  0  0  0  0  0  0  0  0  0  0
    6.5888   -5.9698    0.0000 C   0  0  0  0  0  0  0  0  0  0  0  0
    4.9424   -6.5078    0.0000 C   0  0  0  0  0  0  0  0  0  0  0  0
    5.9209   -6.7141    0.0000 C   0  0  0  0  0  0  0  0  0  0  0  0
    7.8314    5.5573    0.0000 C   0  0  0  0  0  0  0  0  0  0  0  0
    9.4778    5.0193    0.0000 C   0  0  0  0  0  0  0  0  0  0  0  0
    8.1421    6.5078    0.0000 C   0  0  0  0  0  0  0  0  0  0  0  0
    9.7884    5.9698    0.0000 C   0  0  0  0  0  0  0  0  0  0  0  0
    6.8529    5.3511    0.0000 C   0  0  0  0  0  0  0  0  0  0  0  0
    9.1206    6.7141    0.0000 C   0  0  0  0  0  0  0  0  0  0  0  0
    5.4030   -0.8135    0.0000 H   0  0  0  0  0  0  0  0  0  0  0  0
    5.9880   -0.7654    0.0000 H   0  0  0  0  0  0  0  0  0  0  0  0
    6.5812   -0.2331    0.0000 H   0  0  0  0  0  0  0  0  0  0  0  0
    3.7742    0.6843    0.0000 H   0  0  0  0  0  0  0  0  0  0  0  0
    3.9385   -0.0956    0.0000 H   0  0  0  0  0  0  0  0  0  0  0  0
    6.8250    0.5127    0.0000 H   0  0  0  0  0  0  0  0  0  0  0  0
    6.6607    1.2926    0.0000 H   0  0  0  0  0  0  0  0  0  0  0  0
    4.6112    1.9625    0.0000 H   0  0  0  0  0  0  0  0  0  0  0  0
    4.0179    1.4302    0.0000 H   0  0  0  0  0  0  0  0  0  0  0  0
    5.9004    3.1192    0.0000 H   0  0  0  0  0  0  0  0  0  0  0  0
    5.3071    2.5869    0.0000 H   0  0  0  0  0  0  0  0  0  0  0  0
    5.8819   -2.1073    0.0000 H   0  0  0  0  0  0  0  0  0  0  0  0
    6.9200    2.0861    0.0000 H   0  0  0  0  0  0  0  0  0  0  0  0
    7.5132    2.6184    0.0000 H   0  0  0  0  0  0  0  0  0  0  0  0
    2.8660   -0.4873    0.0000 H   0  0  0  0  0  0  0  0  0  0  0  0
    2.8660   -3.7273    0.0000 H   0  0  0  0  0  0  0  0  0  0  0  0
    7.1895    4.2760    0.0000 H   0  0  0  0  0  0  0  0  0  0  0  0
    6.5963    3.7436    0.0000 H   0  0  0  0  0  0  0  0  0  0  0  0
    1.4631   -1.2973    0.0000 H   0  0  0  0  0  0  0  0  0  0  0  0
    1.4631   -2.9173    0.0000 H   0  0  0  0  0  0  0  0  0  0  0  0
    6.6922   -4.5578    0.0000 H   0  0  0  0  0  0  0  0  0  0  0  0
    4.0251   -5.4295    0.0000 H   0  0  0  0  0  0  0  0  0  0  0  0
    7.1954   -6.0976    0.0000 H   0  0  0  0  0  0  0  0  0  0  0  0
    4.5284   -6.9693    0.0000 H   0  0  0  0  0  0  0  0  0  0  0  0
    6.1135   -7.3034    0.0000 H   0  0  0  0  0  0  0  0  0  0  0  0
    9.8918    4.5578    0.0000 H   0  0  0  0  0  0  0  0  0  0  0  0
    7.7280    6.9693    0.0000 H   0  0  0  0  0  0  0  0  0  0  0  0
   10.3951    6.0976    0.0000 H   0  0  0  0  0  0  0  0  0  0  0  0
    9.3132    7.3034    0.0000 H   0  0  0  0  0  0  0  0  0  0  0  0
    5.5784    5.9676    0.0000 H   0  0  0  0  0  0  0  0  0  0  0  0
    6.3777    6.6847    0.0000 H   0  0  0  0  0  0  0  0  0  0  0  0
  1  3  2  0  0  0  0
  1  4  2  0  0  0  0
  1  7  1  0  0  0  0
  1 25  1  0  0  0  0
  2 22  1  0  0  0  0
  2 28  1  0  0  0  0
  5 36  2  0  0  0  0
  6 12  1  0  0  0  0
  6 13  1  0  0  0  0
  6 15  1  0  0  0  0
  7 17  1  0  0  0  0
  7 18  1  0  0  0  0
  8 36  1  0  0  0  0
  8 67  1  0  0  0  0
  8 68  1  0  0  0  0
  9 10  1  0  0  0  0
  9 11  1  0  0  0  0
  9 14  1  0  0  0  0
  9 38  1  0  0  0  0
 10 12  1  0  0  0  0
 10 39  1  0  0  0  0
 10 40  1  0  0  0  0
 11 13  1  0  0  0  0
 11 41  1  0  0  0  0
 11 42  1  0  0  0  0
 12 43  1  0  0  0  0
 12 44  1  0  0  0  0
 13 45  1  0  0  0  0
 13 46  1  0  0  0  0
 14 16  1  0  0  0  0
 14 17  2  0  0  0  0
 15 19  1  0  0  0  0
 15 47  1  0  0  0  0
 15 48  1  0  0  0  0
 16 18  1  0  0  0  0
 16 20  2  0  0  0  0
 17 49  1  0  0  0  0
 18 21  2  0  0  0  0
 19 22  1  0  0  0  0
 19 50  1  0  0  0  0
 19 51  1  0  0  0  0
 20 23  1  0  0  0  0
 20 52  1  0  0  0  0
 21 24  1  0  0  0  0
 21 53  1  0  0  0  0
 22 54  1  0  0  0  0
 22 55  1  0  0  0  0
 23 24  2  0  0  0  0
 23 56  1  0  0  0  0
 24 57  1  0  0  0  0
 25 26  2  0  0  0  0
 25 27  1  0  0  0  0
 26 29  1  0  0  0  0
 26 58  1  0  0  0  0
 27 30  2  0  0  0  0
 27 59  1  0  0  0  0
 28 32  1  0  0  0  0
 28 33  2  0  0  0  0
 29 31  2  0  0  0  0
 29 60  1  0  0  0  0
 30 31  1  0  0  0  0
 30 61  1  0  0  0  0
 31 62  1  0  0  0  0
 32 34  2  0  0  0  0
 32 36  1  0  0  0  0
 33 35  1  0  0  0  0
 33 63  1  0  0  0  0
 34 37  1  0  0  0  0
 34 64  1  0  0  0  0
 35 37  2  0  0  0  0
 35 65  1  0  0  0  0
 37 66  1  0  0  0  0
M  END
> <PUBCHEM_COMPOUND_CID>
118731511

> <PUBCHEM_COMPOUND_CANONICALIZED>
1

> <PUBCHEM_CACTVS_COMPLEXITY>
848

> <PUBCHEM_CACTVS_HBOND_ACCEPTOR>
5

> <PUBCHEM_CACTVS_HBOND_DONOR>
1

> <PUBCHEM_CACTVS_ROTATABLE_BOND>
9

> <PUBCHEM_CACTVS_SUBSKEYS>
AAADceB7OABAAAAAAAAAAAAAAAAAAWAAAAA8YMEAAAAAAFgB9AAAHgQQQAAADQzh3gY8x/NIFAKoAzV3VHDCiDA1IiAI2Dk+bNgMJvbEtZuGOWjm4BHI6YeYyOCOgAAAAAAKAAAAAAAAABQAAAAAAAAAAA==

> <PUBCHEM_IUPAC_OPENEYE_NAME>
2-[3-[4-[1-(benzenesulfonyl)indol-3-yl]-1-piperidyl]propoxy]benzamide

> <PUBCHEM_IUPAC_CAS_NAME>
2-[3-[4-[1-(benzenesulfonyl)-3-indolyl]-1-piperidinyl]propoxy]benzamide

> <PUBCHEM_IUPAC_NAME_MARKUP>
2-[3-[4-[1-(benzenesulfonyl)indol-3-yl]piperidin-1-yl]propoxy]benzamide

> <PUBCHEM_IUPAC_NAME>
2-[3-[4-[1-(benzenesulfonyl)indol-3-yl]piperidin-1-yl]propoxy]benzamide

> <PUBCHEM_IUPAC_SYSTEMATIC_NAME>
2-[3-[4-[1-(phenylsulfonyl)indol-3-yl]piperidin-1-yl]propoxy]benzamide

> <PUBCHEM_IUPAC_TRADITIONAL_NAME>
2-[3-[4-(1-besylindol-3-yl)piperidino]propoxy]benzamide

> <PUBCHEM_IUPAC_INCHI>
InChI=1S/C29H31N3O4S/c30-29(33)25-12-5-7-14-28(25)36-20-8-17-31-18-15-22(16-19-31)26-21-32(27-13-6-4-11-24(26)27)37(34,35)23-9-2-1-3-10-23/h1-7,9-14,21-22H,8,15-20H2,(H2,30,33)

> <PUBCHEM_IUPAC_INCHIKEY>
FTOJNYBTEQZZPY-UHFFFAOYSA-N

> <PUBCHEM_XLOGP3_AA>
4.7

> <PUBCHEM_EXACT_MASS>
517.20352765

> <PUBCHEM_MOLECULAR_FORMULA>
C29H31N3O4S

> <PUBCHEM_MOLECULAR_WEIGHT>
517.6

> <PUBCHEM_OPENEYE_CAN_SMILES>
C1CN(CCC1C2=CN(C3=CC=CC=C32)S(=O)(=O)C4=CC=CC=C4)CCCOC5=CC=CC=C5C(=O)N

> <PUBCHEM_OPENEYE_ISO_SMILES>
C1CN(CCC1C2=CN(C3=CC=CC=C32)S(=O)(=O)C4=CC=CC=C4)CCCOC5=CC=CC=C5C(=O)N

> <PUBCHEM_CACTVS_TPSA>
103

> <PUBCHEM_MONOISOTOPIC_WEIGHT>
517.20352765

> <PUBCHEM_TOTAL_CHARGE>
0

> <PUBCHEM_HEAVY_ATOM_COUNT>
37

> <PUBCHEM_ATOM_DEF_STEREO_COUNT>
0

> <PUBCHEM_ATOM_UDEF_STEREO_COUNT>
0

> <PUBCHEM_BOND_DEF_STEREO_COUNT>
0

> <PUBCHEM_BOND_UDEF_STEREO_COUNT>
0

> <PUBCHEM_ISOTOPIC_ATOM_COUNT>
0

> <PUBCHEM_COMPONENT_COUNT>
1

> <PUBCHEM_CACTVS_TAUTO_COUNT>
-1

> <PUBCHEM_COORDINATE_TYPE>
1
5
255

> <PUBCHEM_BONDANNOTATIONS>
14  16  8
14  17  8
16  18  8
16  20  8
18  21  8
20  23  8
21  24  8
23  24  8
25  26  8
25  27  8
26  29  8
27  30  8
28  32  8
28  33  8
29  31  8
30  31  8
32  34  8
33  35  8
34  37  8
35  37  8
7  17  8
7  18  8

$$$$
