155543223
  -OEChem-09292322422D

 55 59  0     1  0  0  0  0  0999 V2000
    4.9889   -2.6590    0.0000 S   0  0  0  0  0  0  0  0  0  0  0  0
    5.9394   -2.3483    0.0000 O   0  0  0  0  0  0  0  0  0  0  0  0
    4.0384   -2.9696    0.0000 O   0  0  0  0  0  0  0  0  0  0  0  0
    2.8660    3.0963    0.0000 N   0  0  0  0  0  0  0  0  0  0  0  0
    2.8660    1.0963    0.0000 N   0  0  0  0  0  0  0  0  0  0  0  0
    4.6783   -1.7084    0.0000 N   0  0  3  0  0  0  0  0  0  0  0  0
    2.8660    4.0963    0.0000 C   0  0  0  0  0  0  0  0  0  0  0  0
    3.5731    4.8034    0.0000 C   0  0  0  0  0  0  0  0  0  0  0  0
    2.1589    4.8034    0.0000 C   0  0  0  0  0  0  0  0  0  0  0  0
    2.8660    5.5105    0.0000 C   0  0  0  0  0  0  0  0  0  0  0  0
    2.0000    2.5963    0.0000 C   0  0  0  0  0  0  0  0  0  0  0  0
    3.7320    2.5963    0.0000 C   0  0  0  0  0  0  0  0  0  0  0  0
    2.0000    1.5963    0.0000 C   0  0  0  0  0  0  0  0  0  0  0  0
    3.7320    1.5963    0.0000 C   0  0  0  0  0  0  0  0  0  0  0  0
    2.8660    0.0963    0.0000 C   0  0  0  0  0  0  0  0  0  0  0  0
    3.7320   -0.4037    0.0000 C   0  0  0  0  0  0  0  0  0  0  0  0
    4.6783   -0.0990    0.0000 C   0  0  0  0  0  0  0  0  0  0  0  0
    3.7320   -1.4037    0.0000 C   0  0  0  0  0  0  0  0  0  0  0  0
    5.2619   -0.9037    0.0000 C   0  0  0  0  0  0  0  0  0  0  0  0
    2.0000   -0.4037    0.0000 C   0  0  0  0  0  0  0  0  0  0  0  0
    2.8660   -1.9037    0.0000 C   0  0  0  0  0  0  0  0  0  0  0  0
    2.0000   -1.4037    0.0000 C   0  0  0  0  0  0  0  0  0  0  0  0
    5.2996   -3.6095    0.0000 C   0  0  0  0  0  0  0  0  0  0  0  0
    6.2781   -3.8157    0.0000 C   0  0  0  0  0  0  0  0  0  0  0  0
    4.6318   -4.3538    0.0000 C   0  0  0  0  0  0  0  0  0  0  0  0
    6.5888   -4.7662    0.0000 C   0  0  0  0  0  0  0  0  0  0  0  0
    4.9424   -5.3043    0.0000 C   0  0  0  0  0  0  0  0  0  0  0  0
    5.9209   -5.5105    0.0000 C   0  0  0  0  0  0  0  0  0  0  0  0
    3.4388    3.8590    0.0000 H   0  0  0  0  0  0  0  0  0  0  0  0
    4.0115    4.3650    0.0000 H   0  0  0  0  0  0  0  0  0  0  0  0
    4.0115    5.2418    0.0000 H   0  0  0  0  0  0  0  0  0  0  0  0
    1.7205    5.2418    0.0000 H   0  0  0  0  0  0  0  0  0  0  0  0
    1.7205    4.3650    0.0000 H   0  0  0  0  0  0  0  0  0  0  0  0
    3.3044    5.9489    0.0000 H   0  0  0  0  0  0  0  0  0  0  0  0
    2.4276    5.9489    0.0000 H   0  0  0  0  0  0  0  0  0  0  0  0
    1.7880    3.1789    0.0000 H   0  0  0  0  0  0  0  0  0  0  0  0
    1.3894    2.4886    0.0000 H   0  0  0  0  0  0  0  0  0  0  0  0
    4.3426    2.4886    0.0000 H   0  0  0  0  0  0  0  0  0  0  0  0
    3.9441    3.1789    0.0000 H   0  0  0  0  0  0  0  0  0  0  0  0
    1.3894    1.7040    0.0000 H   0  0  0  0  0  0  0  0  0  0  0  0
    1.7880    1.0137    0.0000 H   0  0  0  0  0  0  0  0  0  0  0  0
    3.9441    1.0137    0.0000 H   0  0  0  0  0  0  0  0  0  0  0  0
    4.3426    1.7040    0.0000 H   0  0  0  0  0  0  0  0  0  0  0  0
    5.2156    0.2103    0.0000 H   0  0  0  0  0  0  0  0  0  0  0  0
    4.4272    0.4679    0.0000 H   0  0  0  0  0  0  0  0  0  0  0  0
    5.7227   -1.3184    0.0000 H   0  0  0  0  0  0  0  0  0  0  0  0
    5.7227   -0.4890    0.0000 H   0  0  0  0  0  0  0  0  0  0  0  0
    1.4631   -0.0937    0.0000 H   0  0  0  0  0  0  0  0  0  0  0  0
    2.8660   -2.5237    0.0000 H   0  0  0  0  0  0  0  0  0  0  0  0
    1.4631   -1.7137    0.0000 H   0  0  0  0  0  0  0  0  0  0  0  0
    6.6922   -3.3542    0.0000 H   0  0  0  0  0  0  0  0  0  0  0  0
    4.0251   -4.2259    0.0000 H   0  0  0  0  0  0  0  0  0  0  0  0
    7.1954   -4.8941    0.0000 H   0  0  0  0  0  0  0  0  0  0  0  0
    4.5284   -5.7658    0.0000 H   0  0  0  0  0  0  0  0  0  0  0  0
    6.1135   -6.0998    0.0000 H   0  0  0  0  0  0  0  0  0  0  0  0
  1  2  2  0  0  0  0
  1  3  2  0  0  0  0
  1  6  1  0  0  0  0
  1 23  1  0  0  0  0
  4  7  1  0  0  0  0
  4 11  1  0  0  0  0
  4 12  1  0  0  0  0
  5 13  1  0  0  0  0
  5 14  1  0  0  0  0
  5 15  1  0  0  0  0
  6 18  1  0  0  0  0
  6 19  1  0  0  0  0
  7  8  1  0  0  0  0
  7  9  1  0  0  0  0
  7 29  1  0  0  0  0
  8 10  1  0  0  0  0
  8 30  1  0  0  0  0
  8 31  1  0  0  0  0
  9 10  1  0  0  0  0
  9 32  1  0  0  0  0
  9 33  1  0  0  0  0
 10 34  1  0  0  0  0
 10 35  1  0  0  0  0
 11 13  1  0  0  0  0
 11 36  1  0  0  0  0
 11 37  1  0  0  0  0
 12 14  1  0  0  0  0
 12 38  1  0  0  0  0
 12 39  1  0  0  0  0
 13 40  1  0  0  0  0
 13 41  1  0  0  0  0
 14 42  1  0  0  0  0
 14 43  1  0  0  0  0
 15 16  2  0  0  0  0
 15 20  1  0  0  0  0
 16 17  1  0  0  0  0
 16 18  1  0  0  0  0
 17 19  1  0  0  0  0
 17 44  1  0  0  0  0
 17 45  1  0  0  0  0
 18 21  2  0  0  0  0
 19 46  1  0  0  0  0
 19 47  1  0  0  0  0
 20 22  2  0  0  0  0
 20 48  1  0  0  0  0
 21 22  1  0  0  0  0
 21 49  1  0  0  0  0
 22 50  1  0  0  0  0
 23 24  2  0  0  0  0
 23 25  1  0  0  0  0
 24 26  1  0  0  0  0
 24 51  1  0  0  0  0
 25 27  2  0  0  0  0
 25 52  1  0  0  0  0
 26 28  2  0  0  0  0
 26 53  1  0  0  0  0
 27 28  1  0  0  0  0
 27 54  1  0  0  0  0
 28 55  1  0  0  0  0
M  END
> <PUBCHEM_COMPOUND_CID>
155543223

> <PUBCHEM_COMPOUND_CANONICALIZED>
1

> <PUBCHEM_CACTVS_COMPLEXITY>
631

> <PUBCHEM_CACTVS_HBOND_ACCEPTOR>
5

> <PUBCHEM_CACTVS_HBOND_DONOR>
0

> <PUBCHEM_CACTVS_ROTATABLE_BOND>
4

> <PUBCHEM_CACTVS_SUBSKEYS>
AAADceB7MABAAAAAAAAAAAAAAABgAWAAAAA8YIAAAAAAAFgBQAAAHAQAQAAADCjBWAQwwYMAAAKAAiRCQHDCABAhAgAIiBgIZIgIYCLA0dGUIAhggADIyAcQgIAOAAAAAAQCAAAAAAAACAQAAAAAAAAAAA==

> <PUBCHEM_IUPAC_OPENEYE_NAME>
1-(benzenesulfonyl)-4-(4-cyclobutylpiperazin-1-yl)indoline

> <PUBCHEM_IUPAC_CAS_NAME>
1-(benzenesulfonyl)-4-(4-cyclobutyl-1-piperazinyl)-2,3-dihydroindole

> <PUBCHEM_IUPAC_NAME_MARKUP>
1-(benzenesulfonyl)-4-(4-cyclobutylpiperazin-1-yl)-2,3-dihydroindole

> <PUBCHEM_IUPAC_NAME>
1-(benzenesulfonyl)-4-(4-cyclobutylpiperazin-1-yl)-2,3-dihydroindole

> <PUBCHEM_IUPAC_SYSTEMATIC_NAME>
4-(4-cyclobutylpiperazin-1-yl)-1-(phenylsulfonyl)-2,3-dihydroindole

> <PUBCHEM_IUPAC_TRADITIONAL_NAME>
1-besyl-4-(4-cyclobutylpiperazino)indoline

> <PUBCHEM_IUPAC_INCHI>
InChI=1S/C22H27N3O2S/c26-28(27,19-8-2-1-3-9-19)25-13-12-20-21(10-5-11-22(20)25)24-16-14-23(15-17-24)18-6-4-7-18/h1-3,5,8-11,18H,4,6-7,12-17H2

> <PUBCHEM_IUPAC_INCHIKEY>
XERZUXOKZOACKV-UHFFFAOYSA-N

> <PUBCHEM_XLOGP3_AA>
3.5

> <PUBCHEM_EXACT_MASS>
397.18239829

> <PUBCHEM_MOLECULAR_FORMULA>
C22H27N3O2S

> <PUBCHEM_MOLECULAR_WEIGHT>
397.5

> <PUBCHEM_OPENEYE_CAN_SMILES>
C1CC(C1)N2CCN(CC2)C3=C4CCN(C4=CC=C3)S(=O)(=O)C5=CC=CC=C5

> <PUBCHEM_OPENEYE_ISO_SMILES>
C1CC(C1)N2CCN(CC2)C3=C4CCN(C4=CC=C3)S(=O)(=O)C5=CC=CC=C5

> <PUBCHEM_CACTVS_TPSA>
52.2

> <PUBCHEM_MONOISOTOPIC_WEIGHT>
397.18239829

> <PUBCHEM_TOTAL_CHARGE>
0

> <PUBCHEM_HEAVY_ATOM_COUNT>
28

> <PUBCHEM_ATOM_DEF_STEREO_COUNT>
0

> <PUBCHEM_ATOM_UDEF_STEREO_COUNT>
0

> <PUBCHEM_BOND_DEF_STEREO_COUNT>
0

> <PUBCHEM_BOND_UDEF_STEREO_COUNT>
0

> <PUBCHEM_ISOTOPIC_ATOM_COUNT>
0

> <PUBCHEM_COMPONENT_COUNT>
1

> <PUBCHEM_CACTVS_TAUTO_COUNT>
-1

> <PUBCHEM_COORDINATE_TYPE>
1
5
255

> <PUBCHEM_BONDANNOTATIONS>
15  16  8
15  20  8
16  18  8
18  21  8
20  22  8
21  22  8
23  24  8
23  25  8
24  26  8
25  27  8
26  28  8
27  28  8

$$$$
