44438197
  -OEChem-09292321592D

 45 48  0     0  0  0  0  0  0999 V2000
    7.5120    2.1946    0.0000 Cl  0  0  0  0  0  0  0  0  0  0  0  0
    9.0006    3.5303    0.0000 Cl  0  0  0  0  0  0  0  0  0  0  0  0
    8.8750   -0.0730    0.0000 O   0  0  0  0  0  0  0  0  0  0  0  0
    5.9674   -0.1748    0.0000 N   0  0  0  0  0  0  0  0  0  0  0  0
    4.6783   -2.9410    0.0000 N   0  0  0  0  0  0  0  0  0  0  0  0
    7.9244    0.2376    0.0000 C   0  0  0  0  0  0  0  0  0  0  0  0
    7.6138   -0.7129    0.0000 C   0  0  0  0  0  0  0  0  0  0  0  0
    7.2566    0.9819    0.0000 C   0  0  0  0  0  0  0  0  0  0  0  0
    6.6353   -0.9191    0.0000 C   0  0  0  0  0  0  0  0  0  0  0  0
    6.2781    0.7757    0.0000 C   0  0  0  0  0  0  0  0  0  0  0  0
    8.6688    0.9055    0.0000 C   0  0  0  0  0  0  0  0  0  0  0  0
    4.9889   -0.3810    0.0000 C   0  0  0  0  0  0  0  0  0  0  0  0
    4.6783   -1.3315    0.0000 C   0  0  0  0  0  0  0  0  0  0  0  0
    8.4625    1.8840    0.0000 C   0  0  0  0  0  0  0  0  0  0  0  0
    9.6193    0.5948    0.0000 C   0  0  0  0  0  0  0  0  0  0  0  0
    3.7320   -1.6363    0.0000 C   0  0  0  0  0  0  0  0  0  0  0  0
    5.2619   -2.1363    0.0000 C   0  0  0  0  0  0  0  0  0  0  0  0
    3.7320   -2.6363    0.0000 C   0  0  0  0  0  0  0  0  0  0  0  0
    9.2068    2.5518    0.0000 C   0  0  0  0  0  0  0  0  0  0  0  0
   10.3636    1.2627    0.0000 C   0  0  0  0  0  0  0  0  0  0  0  0
    2.8660   -1.1363    0.0000 C   0  0  0  0  0  0  0  0  0  0  0  0
   10.1574    2.2412    0.0000 C   0  0  0  0  0  0  0  0  0  0  0  0
    2.8660   -3.1363    0.0000 C   0  0  0  0  0  0  0  0  0  0  0  0
    2.0000   -1.6363    0.0000 C   0  0  0  0  0  0  0  0  0  0  0  0
    2.0000   -2.6363    0.0000 C   0  0  0  0  0  0  0  0  0  0  0  0
    7.6344   -1.3325    0.0000 H   0  0  0  0  0  0  0  0  0  0  0  0
    8.2276   -0.8002    0.0000 H   0  0  0  0  0  0  0  0  0  0  0  0
    7.7830    1.3096    0.0000 H   0  0  0  0  0  0  0  0  0  0  0  0
    7.0254    1.5572    0.0000 H   0  0  0  0  0  0  0  0  0  0  0  0
    6.1089   -1.2468    0.0000 H   0  0  0  0  0  0  0  0  0  0  0  0
    6.8665   -1.4944    0.0000 H   0  0  0  0  0  0  0  0  0  0  0  0
    6.2575    1.3954    0.0000 H   0  0  0  0  0  0  0  0  0  0  0  0
    5.6643    0.8631    0.0000 H   0  0  0  0  0  0  0  0  0  0  0  0
    4.9684    0.2386    0.0000 H   0  0  0  0  0  0  0  0  0  0  0  0
    4.3751   -0.2937    0.0000 H   0  0  0  0  0  0  0  0  0  0  0  0
    9.0028   -0.6797    0.0000 H   0  0  0  0  0  0  0  0  0  0  0  0
    9.7471   -0.0119    0.0000 H   0  0  0  0  0  0  0  0  0  0  0  0
    5.8819   -2.1363    0.0000 H   0  0  0  0  0  0  0  0  0  0  0  0
    4.8709   -3.5303    0.0000 H   0  0  0  0  0  0  0  0  0  0  0  0
   10.9529    1.0700    0.0000 H   0  0  0  0  0  0  0  0  0  0  0  0
    2.8660   -0.5163    0.0000 H   0  0  0  0  0  0  0  0  0  0  0  0
   10.6188    2.6552    0.0000 H   0  0  0  0  0  0  0  0  0  0  0  0
    2.8660   -3.7563    0.0000 H   0  0  0  0  0  0  0  0  0  0  0  0
    1.4631   -1.3263    0.0000 H   0  0  0  0  0  0  0  0  0  0  0  0
    1.4631   -2.9463    0.0000 H   0  0  0  0  0  0  0  0  0  0  0  0
  1 14  1  0  0  0  0
  2 19  1  0  0  0  0
  3  6  1  0  0  0  0
  3 36  1  0  0  0  0
  4  9  1  0  0  0  0
  4 10  1  0  0  0  0
  4 12  1  0  0  0  0
  5 17  1  0  0  0  0
  5 18  1  0  0  0  0
  5 39  1  0  0  0  0
  6  7  1  0  0  0  0
  6  8  1  0  0  0  0
  6 11  1  0  0  0  0
  7  9  1  0  0  0  0
  7 26  1  0  0  0  0
  7 27  1  0  0  0  0
  8 10  1  0  0  0  0
  8 28  1  0  0  0  0
  8 29  1  0  0  0  0
  9 30  1  0  0  0  0
  9 31  1  0  0  0  0
 10 32  1  0  0  0  0
 10 33  1  0  0  0  0
 11 14  2  0  0  0  0
 11 15  1  0  0  0  0
 12 13  1  0  0  0  0
 12 34  1  0  0  0  0
 12 35  1  0  0  0  0
 13 16  1  0  0  0  0
 13 17  2  0  0  0  0
 14 19  1  0  0  0  0
 15 20  2  0  0  0  0
 15 37  1  0  0  0  0
 16 18  1  0  0  0  0
 16 21  2  0  0  0  0
 17 38  1  0  0  0  0
 18 23  2  0  0  0  0
 19 22  2  0  0  0  0
 20 22  1  0  0  0  0
 20 40  1  0  0  0  0
 21 24  1  0  0  0  0
 21 41  1  0  0  0  0
 22 42  1  0  0  0  0
 23 25  1  0  0  0  0
 23 43  1  0  0  0  0
 24 25  2  0  0  0  0
 24 44  1  0  0  0  0
 25 45  1  0  0  0  0
M  END
> <PUBCHEM_COMPOUND_CID>
44438197

> <PUBCHEM_COMPOUND_CANONICALIZED>
1

> <PUBCHEM_CACTVS_COMPLEXITY>
455

> <PUBCHEM_CACTVS_HBOND_ACCEPTOR>
2

> <PUBCHEM_CACTVS_HBOND_DONOR>
2

> <PUBCHEM_CACTVS_ROTATABLE_BOND>
3

> <PUBCHEM_CACTVS_SUBSKEYS>
AAADceB7IAAGAAAAAAAAAAAAAAAAAWAAAAA8YIAAAAAAAFgB9AAAHgIQCAAADE7BniQ8wPPJkgCgAzRnRACCgCAxByAI2+A4bpgIJuLB05GEcAhm0AHI2AeQwOAOgAAAIAADAAQAAABAAAYACAAAAAAAAA==

> <PUBCHEM_IUPAC_OPENEYE_NAME>
4-(2,3-dichlorophenyl)-1-(1H-indol-3-ylmethyl)piperidin-4-ol

> <PUBCHEM_IUPAC_CAS_NAME>
4-(2,3-dichlorophenyl)-1-(1H-indol-3-ylmethyl)-4-piperidinol

> <PUBCHEM_IUPAC_NAME_MARKUP>
4-(2,3-dichlorophenyl)-1-(1<I>H</I>-indol-3-ylmethyl)piperidin-4-ol

> <PUBCHEM_IUPAC_NAME>
4-(2,3-dichlorophenyl)-1-(1H-indol-3-ylmethyl)piperidin-4-ol

> <PUBCHEM_IUPAC_SYSTEMATIC_NAME>
4-[2,3-bis(chloranyl)phenyl]-1-(1H-indol-3-ylmethyl)piperidin-4-ol

> <PUBCHEM_IUPAC_TRADITIONAL_NAME>
4-(2,3-dichlorophenyl)-1-(1H-indol-3-ylmethyl)piperidin-4-ol

> <PUBCHEM_IUPAC_INCHI>
InChI=1S/C20H20Cl2N2O/c21-17-6-3-5-16(19(17)22)20(25)8-10-24(11-9-20)13-14-12-23-18-7-2-1-4-15(14)18/h1-7,12,23,25H,8-11,13H2

> <PUBCHEM_IUPAC_INCHIKEY>
ASKCQUQTSBOXCM-UHFFFAOYSA-N

> <PUBCHEM_XLOGP3_AA>
4.3

> <PUBCHEM_EXACT_MASS>
374.0952687

> <PUBCHEM_MOLECULAR_FORMULA>
C20H20Cl2N2O

> <PUBCHEM_MOLECULAR_WEIGHT>
375.3

> <PUBCHEM_OPENEYE_CAN_SMILES>
C1CN(CCC1(C2=C(C(=CC=C2)Cl)Cl)O)CC3=CNC4=CC=CC=C43

> <PUBCHEM_OPENEYE_ISO_SMILES>
C1CN(CCC1(C2=C(C(=CC=C2)Cl)Cl)O)CC3=CNC4=CC=CC=C43

> <PUBCHEM_CACTVS_TPSA>
39.3

> <PUBCHEM_MONOISOTOPIC_WEIGHT>
374.0952687

> <PUBCHEM_TOTAL_CHARGE>
0

> <PUBCHEM_HEAVY_ATOM_COUNT>
25

> <PUBCHEM_ATOM_DEF_STEREO_COUNT>
0

> <PUBCHEM_ATOM_UDEF_STEREO_COUNT>
0

> <PUBCHEM_BOND_DEF_STEREO_COUNT>
0

> <PUBCHEM_BOND_UDEF_STEREO_COUNT>
0

> <PUBCHEM_ISOTOPIC_ATOM_COUNT>
0

> <PUBCHEM_COMPONENT_COUNT>
1

> <PUBCHEM_CACTVS_TAUTO_COUNT>
-1

> <PUBCHEM_COORDINATE_TYPE>
1
5
255

> <PUBCHEM_BONDANNOTATIONS>
11  14  8
11  15  8
13  16  8
13  17  8
14  19  8
15  20  8
16  18  8
16  21  8
18  23  8
19  22  8
20  22  8
21  24  8
23  25  8
24  25  8
5  17  8
5  18  8

$$$$
