10594113
  -OEChem-09292322132D

 47 50  0     0  0  0  0  0  0999 V2000
    7.4492    5.3874    0.0000 Cl  0  0  0  0  0  0  0  0  0  0  0  0
    4.5981   -2.3874    0.0000 N   0  0  0  0  0  0  0  0  0  0  0  0
    3.7891    1.2003    0.0000 N   0  0  0  0  0  0  0  0  0  0  0  0
    4.0981    2.1514    0.0000 N   0  0  0  0  0  0  0  0  0  0  0  0
    4.5981   -0.3875    0.0000 C   0  0  0  0  0  0  0  0  0  0  0  0
    3.7320   -0.8875    0.0000 C   0  0  0  0  0  0  0  0  0  0  0  0
    5.4641   -0.8875    0.0000 C   0  0  0  0  0  0  0  0  0  0  0  0
    3.7320   -1.8874    0.0000 C   0  0  0  0  0  0  0  0  0  0  0  0
    5.4641   -1.8874    0.0000 C   0  0  0  0  0  0  0  0  0  0  0  0
    4.5981    0.6125    0.0000 C   0  0  0  0  0  0  0  0  0  0  0  0
    4.5981   -3.3874    0.0000 C   0  0  0  0  0  0  0  0  0  0  0  0
    5.4071    1.2003    0.0000 C   0  0  0  0  0  0  0  0  0  0  0  0
    3.7320   -3.8874    0.0000 C   0  0  0  0  0  0  0  0  0  0  0  0
    5.0981    2.1514    0.0000 C   0  0  0  0  0  0  0  0  0  0  0  0
    2.8660   -3.3874    0.0000 C   0  0  0  0  0  0  0  0  0  0  0  0
    3.7320   -4.8874    0.0000 C   0  0  0  0  0  0  0  0  0  0  0  0
    5.6859    2.9604    0.0000 C   0  0  0  0  0  0  0  0  0  0  0  0
    2.0000   -3.8874    0.0000 C   0  0  0  0  0  0  0  0  0  0  0  0
    2.8660   -5.3874    0.0000 C   0  0  0  0  0  0  0  0  0  0  0  0
    5.2791    3.8740    0.0000 C   0  0  0  0  0  0  0  0  0  0  0  0
    6.6804    2.8559    0.0000 C   0  0  0  0  0  0  0  0  0  0  0  0
    2.0000   -4.8874    0.0000 C   0  0  0  0  0  0  0  0  0  0  0  0
    5.8669    4.6830    0.0000 C   0  0  0  0  0  0  0  0  0  0  0  0
    7.2682    3.6649    0.0000 C   0  0  0  0  0  0  0  0  0  0  0  0
    6.8614    4.5784    0.0000 C   0  0  0  0  0  0  0  0  0  0  0  0
    5.1350   -0.0775    0.0000 H   0  0  0  0  0  0  0  0  0  0  0  0
    3.5200   -0.3048    0.0000 H   0  0  0  0  0  0  0  0  0  0  0  0
    3.1215   -0.9951    0.0000 H   0  0  0  0  0  0  0  0  0  0  0  0
    6.0747   -0.9951    0.0000 H   0  0  0  0  0  0  0  0  0  0  0  0
    5.6762   -0.3048    0.0000 H   0  0  0  0  0  0  0  0  0  0  0  0
    3.1215   -1.7798    0.0000 H   0  0  0  0  0  0  0  0  0  0  0  0
    3.5200   -2.4701    0.0000 H   0  0  0  0  0  0  0  0  0  0  0  0
    5.6762   -2.4701    0.0000 H   0  0  0  0  0  0  0  0  0  0  0  0
    6.0747   -1.7798    0.0000 H   0  0  0  0  0  0  0  0  0  0  0  0
    4.8101   -3.9701    0.0000 H   0  0  0  0  0  0  0  0  0  0  0  0
    5.2087   -3.2798    0.0000 H   0  0  0  0  0  0  0  0  0  0  0  0
    5.9967    1.0087    0.0000 H   0  0  0  0  0  0  0  0  0  0  0  0
    3.1994    1.0087    0.0000 H   0  0  0  0  0  0  0  0  0  0  0  0
    2.8660   -2.7675    0.0000 H   0  0  0  0  0  0  0  0  0  0  0  0
    4.2690   -5.1974    0.0000 H   0  0  0  0  0  0  0  0  0  0  0  0
    1.4631   -3.5775    0.0000 H   0  0  0  0  0  0  0  0  0  0  0  0
    2.8660   -6.0075    0.0000 H   0  0  0  0  0  0  0  0  0  0  0  0
    4.6625    3.9388    0.0000 H   0  0  0  0  0  0  0  0  0  0  0  0
    6.9326    2.2895    0.0000 H   0  0  0  0  0  0  0  0  0  0  0  0
    1.4631   -5.1974    0.0000 H   0  0  0  0  0  0  0  0  0  0  0  0
    5.6147    5.2494    0.0000 H   0  0  0  0  0  0  0  0  0  0  0  0
    7.8848    3.6001    0.0000 H   0  0  0  0  0  0  0  0  0  0  0  0
  1 25  1  0  0  0  0
  2  8  1  0  0  0  0
  2  9  1  0  0  0  0
  2 11  1  0  0  0  0
  3  4  1  0  0  0  0
  3 10  1  0  0  0  0
  3 38  1  0  0  0  0
  4 14  2  0  0  0  0
  5  6  1  0  0  0  0
  5  7  1  0  0  0  0
  5 10  1  0  0  0  0
  5 26  1  0  0  0  0
  6  8  1  0  0  0  0
  6 27  1  0  0  0  0
  6 28  1  0  0  0  0
  7  9  1  0  0  0  0
  7 29  1  0  0  0  0
  7 30  1  0  0  0  0
  8 31  1  0  0  0  0
  8 32  1  0  0  0  0
  9 33  1  0  0  0  0
  9 34  1  0  0  0  0
 10 12  2  0  0  0  0
 11 13  1  0  0  0  0
 11 35  1  0  0  0  0
 11 36  1  0  0  0  0
 12 14  1  0  0  0  0
 12 37  1  0  0  0  0
 13 15  2  0  0  0  0
 13 16  1  0  0  0  0
 14 17  1  0  0  0  0
 15 18  1  0  0  0  0
 15 39  1  0  0  0  0
 16 19  2  0  0  0  0
 16 40  1  0  0  0  0
 17 20  2  0  0  0  0
 17 21  1  0  0  0  0
 18 22  2  0  0  0  0
 18 41  1  0  0  0  0
 19 22  1  0  0  0  0
 19 42  1  0  0  0  0
 20 23  1  0  0  0  0
 20 43  1  0  0  0  0
 21 24  2  0  0  0  0
 21 44  1  0  0  0  0
 22 45  1  0  0  0  0
 23 25  2  0  0  0  0
 23 46  1  0  0  0  0
 24 25  1  0  0  0  0
 24 47  1  0  0  0  0
M  END
> <PUBCHEM_COMPOUND_CID>
10594113

> <PUBCHEM_COMPOUND_CANONICALIZED>
1

> <PUBCHEM_CACTVS_COMPLEXITY>
396

> <PUBCHEM_CACTVS_HBOND_ACCEPTOR>
2

> <PUBCHEM_CACTVS_HBOND_DONOR>
1

> <PUBCHEM_CACTVS_ROTATABLE_BOND>
4

> <PUBCHEM_CACTVS_SUBSKEYS>
AAADceB7AAAEAAAAAAAAAAAAAAAAAWAAAAA8YIAAAAAAAAAB0AAAHAIYAAAADQrBHiQwgJNjAACiAyRiQACSBAAgBwAYuSA4ZpgIIKKB09GEpAhgmACIyAcQgMAOBAAAAAAAAAAIAAAAAAAAAAAAAAAAAA==

> <PUBCHEM_IUPAC_OPENEYE_NAME>
1-benzyl-4-[3-(4-chlorophenyl)-1H-pyrazol-5-yl]piperidine

> <PUBCHEM_IUPAC_CAS_NAME>
4-[3-(4-chlorophenyl)-1H-pyrazol-5-yl]-1-(phenylmethyl)piperidine

> <PUBCHEM_IUPAC_NAME_MARKUP>
1-benzyl-4-[3-(4-chlorophenyl)-1<I>H</I>-pyrazol-5-yl]piperidine

> <PUBCHEM_IUPAC_NAME>
1-benzyl-4-[3-(4-chlorophenyl)-1H-pyrazol-5-yl]piperidine

> <PUBCHEM_IUPAC_SYSTEMATIC_NAME>
4-[3-(4-chlorophenyl)-1H-pyrazol-5-yl]-1-(phenylmethyl)piperidine

> <PUBCHEM_IUPAC_TRADITIONAL_NAME>
1-benzyl-4-[3-(4-chlorophenyl)-1H-pyrazol-5-yl]piperidine

> <PUBCHEM_IUPAC_INCHI>
InChI=1S/C21H22ClN3/c22-19-8-6-17(7-9-19)20-14-21(24-23-20)18-10-12-25(13-11-18)15-16-4-2-1-3-5-16/h1-9,14,18H,10-13,15H2,(H,23,24)

> <PUBCHEM_IUPAC_INCHIKEY>
VCKOBAOVBZHUOW-UHFFFAOYSA-N

> <PUBCHEM_XLOGP3_AA>
4.6

> <PUBCHEM_EXACT_MASS>
351.1502254

> <PUBCHEM_MOLECULAR_FORMULA>
C21H22ClN3

> <PUBCHEM_MOLECULAR_WEIGHT>
351.9

> <PUBCHEM_OPENEYE_CAN_SMILES>
C1CN(CCC1C2=CC(=NN2)C3=CC=C(C=C3)Cl)CC4=CC=CC=C4

> <PUBCHEM_OPENEYE_ISO_SMILES>
C1CN(CCC1C2=CC(=NN2)C3=CC=C(C=C3)Cl)CC4=CC=CC=C4

> <PUBCHEM_CACTVS_TPSA>
31.9

> <PUBCHEM_MONOISOTOPIC_WEIGHT>
351.1502254

> <PUBCHEM_TOTAL_CHARGE>
0

> <PUBCHEM_HEAVY_ATOM_COUNT>
25

> <PUBCHEM_ATOM_DEF_STEREO_COUNT>
0

> <PUBCHEM_ATOM_UDEF_STEREO_COUNT>
0

> <PUBCHEM_BOND_DEF_STEREO_COUNT>
0

> <PUBCHEM_BOND_UDEF_STEREO_COUNT>
0

> <PUBCHEM_ISOTOPIC_ATOM_COUNT>
0

> <PUBCHEM_COMPONENT_COUNT>
1

> <PUBCHEM_CACTVS_TAUTO_COUNT>
-1

> <PUBCHEM_COORDINATE_TYPE>
1
5
255

> <PUBCHEM_BONDANNOTATIONS>
10  12  8
12  14  8
13  15  8
13  16  8
15  18  8
16  19  8
17  20  8
17  21  8
18  22  8
19  22  8
20  23  8
21  24  8
23  25  8
24  25  8
3  10  8
3  4  8
4  14  8

$$$$
