71722433
  -OEChem-09292321592D

 59 63  0     1  0  0  0  0  0999 V2000
    9.3765    4.4781    0.0000 Cl  0  0  0  0  0  0  0  0  0  0  0  0
    2.3737    4.6515    0.0000 O   0  0  0  0  0  0  0  0  0  0  0  0
    0.5920    3.6410    0.0000 O   0  0  0  0  0  0  0  0  0  0  0  0
    3.1881    9.1481    0.0000 O   0  0  0  0  0  0  0  0  0  0  0  0
    5.8464    1.6200    0.0000 N   0  0  3  0  0  0  0  0  0  0  0  0
    4.9882    2.1169    0.0000 C   0  0  1  0  0  0  0  0  0  0  0  0
    4.9882    3.1169    0.0000 C   0  0  0  0  0  0  0  0  0  0  0  0
    4.1221    1.6169    0.0000 C   0  0  0  0  0  0  0  0  0  0  0  0
    4.1221    3.6169    0.0000 C   0  0  0  0  0  0  0  0  0  0  0  0
    5.8982    3.6237    0.0000 C   0  0  0  0  0  0  0  0  0  0  0  0
    6.7118    2.1041    0.0000 C   0  0  0  0  0  0  0  0  0  0  0  0
    6.7375    3.0955    0.0000 C   0  0  0  0  0  0  0  0  0  0  0  0
    3.2561    2.1169    0.0000 C   0  0  0  0  0  0  0  0  0  0  0  0
    3.2561    3.1169    0.0000 C   0  0  0  0  0  0  0  0  0  0  0  0
    4.1061    4.6584    0.0000 C   0  0  0  0  0  0  0  0  0  0  0  0
    5.9062    4.6653    0.0000 C   0  0  0  0  0  0  0  0  0  0  0  0
    5.8390    0.6200    0.0000 C   0  0  0  0  0  0  0  0  0  0  0  0
    5.0041    5.1861    0.0000 C   0  0  0  0  0  0  0  0  0  0  0  0
    3.2343    5.1483    0.0000 C   0  0  0  0  0  0  0  0  0  0  0  0
    2.3622    3.6516    0.0000 C   0  0  0  0  0  0  0  0  0  0  0  0
    2.3622    1.5822    0.0000 C   0  0  0  0  0  0  0  0  0  0  0  0
    1.4561    3.1377    0.0000 C   0  0  0  0  0  0  0  0  0  0  0  0
    3.2228    6.1483    0.0000 C   0  0  0  0  0  0  0  0  0  0  0  0
    1.4561    2.0961    0.0000 C   0  0  0  0  0  0  0  0  0  0  0  0
    2.3510    6.6382    0.0000 C   0  0  0  0  0  0  0  0  0  0  0  0
    4.0829    6.6583    0.0000 C   0  0  0  0  0  0  0  0  0  0  0  0
    2.3394    7.6382    0.0000 C   0  0  0  0  0  0  0  0  0  0  0  0
    4.0714    7.6582    0.0000 C   0  0  0  0  0  0  0  0  0  0  0  0
    1.4633    6.0933    0.0000 C   0  0  0  0  0  0  0  0  0  0  0  0
    3.1996    8.1481    0.0000 C   0  0  0  0  0  0  0  0  0  0  0  0
    1.4394    8.1624    0.0000 C   0  0  0  0  0  0  0  0  0  0  0  0
    0.5514    6.5966    0.0000 C   0  0  0  0  0  0  0  0  0  0  0  0
    0.5393    7.6382    0.0000 C   0  0  0  0  0  0  0  0  0  0  0  0
    4.9876    1.2669    0.0000 H   0  0  0  0  0  0  0  0  0  0  0  0
    3.7236    1.1419    0.0000 H   0  0  0  0  0  0  0  0  0  0  0  0
    4.5206    1.1419    0.0000 H   0  0  0  0  0  0  0  0  0  0  0  0
    6.9136    1.5179    0.0000 H   0  0  0  0  0  0  0  0  0  0  0  0
    7.3246    2.1985    0.0000 H   0  0  0  0  0  0  0  0  0  0  0  0
    7.3446    2.9696    0.0000 H   0  0  0  0  0  0  0  0  0  0  0  0
    6.9692    3.6706    0.0000 H   0  0  0  0  0  0  0  0  0  0  0  0
    6.4443    4.9733    0.0000 H   0  0  0  0  0  0  0  0  0  0  0  0
    5.2190    0.6246    0.0000 H   0  0  0  0  0  0  0  0  0  0  0  0
    5.8344    0.0000    0.0000 H   0  0  0  0  0  0  0  0  0  0  0  0
    6.4590    0.6154    0.0000 H   0  0  0  0  0  0  0  0  0  0  0  0
    5.0017    5.8061    0.0000 H   0  0  0  0  0  0  0  0  0  0  0  0
    2.6225    5.2489    0.0000 H   0  0  0  0  0  0  0  0  0  0  0  0
    3.0290    4.5633    0.0000 H   0  0  0  0  0  0  0  0  0  0  0  0
    2.3693    0.9623    0.0000 H   0  0  0  0  0  0  0  0  0  0  0  0
    0.9204    1.7840    0.0000 H   0  0  0  0  0  0  0  0  0  0  0  0
    1.8404    4.9677    0.0000 H   0  0  0  0  0  0  0  0  0  0  0  0
    4.6234    6.3545    0.0000 H   0  0  0  0  0  0  0  0  0  0  0  0
    0.0539    3.3331    0.0000 H   0  0  0  0  0  0  0  0  0  0  0  0
    4.6047    7.9744    0.0000 H   0  0  0  0  0  0  0  0  0  0  0  0
    1.4776    5.4734    0.0000 H   0  0  0  0  0  0  0  0  0  0  0  0
    1.4394    8.7825    0.0000 H   0  0  0  0  0  0  0  0  0  0  0  0
    0.0193    6.2784    0.0000 H   0  0  0  0  0  0  0  0  0  0  0  0
    0.0000    7.9440    0.0000 H   0  0  0  0  0  0  0  0  0  0  0  0
    3.7214    9.4643    0.0000 H   0  0  0  0  0  0  0  0  0  0  0  0
   10.3765    4.4781    0.0000 H   0  0  0  0  0  0  0  0  0  0  0  0
  1 59  1  0  0  0  0
  2 20  1  0  0  0  0
  2 50  1  0  0  0  0
  3 22  1  0  0  0  0
  3 52  1  0  0  0  0
  4 30  1  0  0  0  0
  4 58  1  0  0  0  0
  5  6  1  0  0  0  0
  5 11  1  0  0  0  0
  5 17  1  0  0  0  0
  6  7  1  0  0  0  0
  6  8  1  0  0  0  0
  6 34  1  1  0  0  0
  7  9  1  0  0  0  0
  7 10  2  0  0  0  0
  8 13  1  0  0  0  0
  8 35  1  0  0  0  0
  8 36  1  0  0  0  0
  9 14  1  0  0  0  0
  9 15  2  0  0  0  0
 10 12  1  0  0  0  0
 10 16  1  0  0  0  0
 11 12  1  0  0  0  0
 11 37  1  0  0  0  0
 11 38  1  0  0  0  0
 12 39  1  0  0  0  0
 12 40  1  0  0  0  0
 13 14  2  0  0  0  0
 13 21  1  0  0  0  0
 14 20  1  0  0  0  0
 15 18  1  0  0  0  0
 15 19  1  0  0  0  0
 16 18  2  0  0  0  0
 16 41  1  0  0  0  0
 17 42  1  0  0  0  0
 17 43  1  0  0  0  0
 17 44  1  0  0  0  0
 18 45  1  0  0  0  0
 19 23  1  0  0  0  0
 19 46  1  0  0  0  0
 19 47  1  0  0  0  0
 20 22  2  0  0  0  0
 21 24  2  0  0  0  0
 21 48  1  0  0  0  0
 22 24  1  0  0  0  0
 23 25  1  0  0  0  0
 23 26  2  0  0  0  0
 24 49  1  0  0  0  0
 25 27  1  0  0  0  0
 25 29  2  0  0  0  0
 26 28  1  0  0  0  0
 26 51  1  0  0  0  0
 27 30  1  0  0  0  0
 27 31  2  0  0  0  0
 28 30  2  0  0  0  0
 28 53  1  0  0  0  0
 29 32  1  0  0  0  0
 29 54  1  0  0  0  0
 31 33  1  0  0  0  0
 31 55  1  0  0  0  0
 32 33  2  0  0  0  0
 32 56  1  0  0  0  0
 33 57  1  0  0  0  0
M  END
> <PUBCHEM_COMPOUND_CID>
71722433

> <PUBCHEM_COMPOUND_CANONICALIZED>
1

> <PUBCHEM_CACTVS_COMPLEXITY>
671

> <PUBCHEM_CACTVS_HBOND_ACCEPTOR>
4

> <PUBCHEM_CACTVS_HBOND_DONOR>
4

> <PUBCHEM_CACTVS_ROTATABLE_BOND>
2

> <PUBCHEM_CACTVS_SUBSKEYS>
AAADceB6MAAEAAAAAAAAAAAAAAAAAAAAAAA8YMGDAAAAAADxVAAAHgAACAAADCzBmAQyBsMAAgCAAiBCAACCAAAgIAAIiAAOjIgJJiKCkROEcAlkwBGJmAeQ0PMO4AADAAAYQADQAAaAADSAAAAAAAAAAA==

> <PUBCHEM_IUPAC_OPENEYE_NAME>
(6aR)-1-[(4-hydroxy-1-naphthyl)methyl]-6-methyl-5,6,6a,7-tetrahydro-4H-dibenzo[de,g]quinoline-10,11-diol;hydrochloride

> <PUBCHEM_IUPAC_CAS_NAME>
(6aR)-1-[(4-hydroxy-1-naphthalenyl)methyl]-6-methyl-5,6,6a,7-tetrahydro-4H-dibenzo[de,g]quinoline-10,11-diol;hydrochloride

> <PUBCHEM_IUPAC_NAME_MARKUP>
(6<I>a</I><I>R</I>)-1-[(4-hydroxynaphthalen-1-yl)methyl]-6-methyl-5,6,6<I>a</I>,7-tetrahydro-4<I>H</I>-dibenzo[de,g]quinoline-10,11-diol;hydrochloride

> <PUBCHEM_IUPAC_NAME>
(6aR)-1-[(4-hydroxynaphthalen-1-yl)methyl]-6-methyl-5,6,6a,7-tetrahydro-4H-dibenzo[de,g]quinoline-10,11-diol;hydrochloride

> <PUBCHEM_IUPAC_SYSTEMATIC_NAME>
(6aR)-6-methyl-1-[(4-oxidanylnaphthalen-1-yl)methyl]-5,6,6a,7-tetrahydro-4H-dibenzo[de,g]quinoline-10,11-diol;hydrochloride

> <PUBCHEM_IUPAC_TRADITIONAL_NAME>
(6aR)-1-[(4-hydroxy-1-naphthyl)methyl]-6-methyl-5,6,6a,7-tetrahydro-4H-dibenzo[de,g]quinoline-10,11-diol;hydrochloride

> <PUBCHEM_IUPAC_INCHI>
InChI=1S/C28H25NO3.ClH/c1-29-13-12-16-6-7-18(14-17-8-10-23(30)21-5-3-2-4-20(17)21)26-25(16)22(29)15-19-9-11-24(31)28(32)27(19)26;/h2-11,22,30-32H,12-15H2,1H3;1H/t22-;/m1./s1

> <PUBCHEM_IUPAC_INCHIKEY>
PHJYNOVRHXVAMX-VZYDHVRKSA-N

> <PUBCHEM_EXACT_MASS>
459.1601214

> <PUBCHEM_MOLECULAR_FORMULA>
C28H26ClNO3

> <PUBCHEM_MOLECULAR_WEIGHT>
460.0

> <PUBCHEM_OPENEYE_CAN_SMILES>
CN1CCC2=C3C1CC4=C(C3=C(C=C2)CC5=CC=C(C6=CC=CC=C56)O)C(=C(C=C4)O)O.Cl

> <PUBCHEM_OPENEYE_ISO_SMILES>
CN1CCC2=C3[C@H]1CC4=C(C3=C(C=C2)CC5=CC=C(C6=CC=CC=C56)O)C(=C(C=C4)O)O.Cl

> <PUBCHEM_CACTVS_TPSA>
63.9

> <PUBCHEM_MONOISOTOPIC_WEIGHT>
459.1601214

> <PUBCHEM_TOTAL_CHARGE>
0

> <PUBCHEM_HEAVY_ATOM_COUNT>
33

> <PUBCHEM_ATOM_DEF_STEREO_COUNT>
1

> <PUBCHEM_ATOM_UDEF_STEREO_COUNT>
0

> <PUBCHEM_BOND_DEF_STEREO_COUNT>
0

> <PUBCHEM_BOND_UDEF_STEREO_COUNT>
0

> <PUBCHEM_ISOTOPIC_ATOM_COUNT>
0

> <PUBCHEM_COMPONENT_COUNT>
2

> <PUBCHEM_CACTVS_TAUTO_COUNT>
-1

> <PUBCHEM_COORDINATE_TYPE>
1
5
255

> <PUBCHEM_BONDANNOTATIONS>
10  16  8
13  14  8
13  21  8
14  20  8
15  18  8
16  18  8
20  22  8
21  24  8
22  24  8
23  25  8
23  26  8
25  27  8
25  29  8
26  28  8
27  30  8
27  31  8
28  30  8
29  32  8
31  33  8
32  33  8
6  34  5
7  10  8
7  9  8
9  15  8

$$$$
