44425701
  -OEChem-09292322242D

 54 56  0     1  0  0  0  0  0999 V2000
    8.7227    0.4383    0.0000 S   0  0  0  0  0  0  0  0  0  0  0  0
    9.2194    1.3063    0.0000 O   0  0  0  0  0  0  0  0  0  0  0  0
    8.2260   -0.4296    0.0000 O   0  0  0  0  0  0  0  0  0  0  0  0
    3.0000   -0.0892    0.0000 N   0  0  3  0  0  0  0  0  0  0  0  0
    7.8547    0.9350    0.0000 N   0  0  0  0  0  0  0  0  0  0  0  0
    4.4088    1.0343    0.0000 C   0  0  0  0  0  0  0  0  0  0  0  0
    4.4088   -1.2126    0.0000 C   0  0  0  0  0  0  0  0  0  0  0  0
    3.4339    0.8118    0.0000 C   0  0  0  0  0  0  0  0  0  0  0  0
    3.4339   -0.9901    0.0000 C   0  0  0  0  0  0  0  0  0  0  0  0
    5.1906    0.4108    0.0000 C   0  0  0  0  0  0  0  0  0  0  0  0
    5.1906   -0.5892    0.0000 C   0  0  0  0  0  0  0  0  0  0  0  0
    6.0846    0.9455    0.0000 C   0  0  0  0  0  0  0  0  0  0  0  0
    6.0846   -1.1238    0.0000 C   0  0  0  0  0  0  0  0  0  0  0  0
    6.9906    0.4317    0.0000 C   0  0  0  0  0  0  0  0  0  0  0  0
    2.0000   -0.0892    0.0000 C   0  0  0  0  0  0  0  0  0  0  0  0
    6.9906   -0.6100    0.0000 C   0  0  0  0  0  0  0  0  0  0  0  0
    9.5906   -0.0583    0.0000 C   0  0  0  0  0  0  0  0  0  0  0  0
   12.1945   -1.5483    0.0000 C   0  0  0  0  0  0  0  0  0  0  0  0
   11.3265   -1.0516    0.0000 C   0  0  0  0  0  0  0  0  0  0  0  0
   13.0586   -1.0450    0.0000 C   0  0  0  0  0  0  0  0  0  0  0  0
   10.4547    0.4450    0.0000 C   0  0  0  0  0  0  0  0  0  0  0  0
    9.5945   -1.0583    0.0000 C   0  0  0  0  0  0  0  0  0  0  0  0
   13.9265   -1.5416    0.0000 C   0  0  0  0  0  0  0  0  0  0  0  0
   11.3227   -0.0517    0.0000 C   0  0  0  0  0  0  0  0  0  0  0  0
   10.4624   -1.5550    0.0000 C   0  0  0  0  0  0  0  0  0  0  0  0
   14.7906   -1.0383    0.0000 C   0  0  0  0  0  0  0  0  0  0  0  0
    4.8936    1.4209    0.0000 H   0  0  0  0  0  0  0  0  0  0  0  0
    4.1398    1.5929    0.0000 H   0  0  0  0  0  0  0  0  0  0  0  0
    4.1398   -1.7712    0.0000 H   0  0  0  0  0  0  0  0  0  0  0  0
    4.8936   -1.5992    0.0000 H   0  0  0  0  0  0  0  0  0  0  0  0
    3.4339    1.4318    0.0000 H   0  0  0  0  0  0  0  0  0  0  0  0
    2.8294    0.9498    0.0000 H   0  0  0  0  0  0  0  0  0  0  0  0
    2.8294   -1.1281    0.0000 H   0  0  0  0  0  0  0  0  0  0  0  0
    3.4339   -1.6101    0.0000 H   0  0  0  0  0  0  0  0  0  0  0  0
    6.0774    1.5655    0.0000 H   0  0  0  0  0  0  0  0  0  0  0  0
    6.0774   -1.7438    0.0000 H   0  0  0  0  0  0  0  0  0  0  0  0
    2.0000    0.5308    0.0000 H   0  0  0  0  0  0  0  0  0  0  0  0
    1.3800   -0.0892    0.0000 H   0  0  0  0  0  0  0  0  0  0  0  0
    2.0000   -0.7092    0.0000 H   0  0  0  0  0  0  0  0  0  0  0  0
    7.5264   -0.9220    0.0000 H   0  0  0  0  0  0  0  0  0  0  0  0
    7.8524    1.5550    0.0000 H   0  0  0  0  0  0  0  0  0  0  0  0
   11.7978   -2.0248    0.0000 H   0  0  0  0  0  0  0  0  0  0  0  0
   12.5948   -2.0217    0.0000 H   0  0  0  0  0  0  0  0  0  0  0  0
   13.4553   -0.5685    0.0000 H   0  0  0  0  0  0  0  0  0  0  0  0
   12.6582   -0.5716    0.0000 H   0  0  0  0  0  0  0  0  0  0  0  0
   10.4523    1.0650    0.0000 H   0  0  0  0  0  0  0  0  0  0  0  0
    9.0588   -1.3704    0.0000 H   0  0  0  0  0  0  0  0  0  0  0  0
   13.5298   -2.0181    0.0000 H   0  0  0  0  0  0  0  0  0  0  0  0
   14.3269   -2.0150    0.0000 H   0  0  0  0  0  0  0  0  0  0  0  0
   11.8584    0.2604    0.0000 H   0  0  0  0  0  0  0  0  0  0  0  0
   10.4648   -2.1750    0.0000 H   0  0  0  0  0  0  0  0  0  0  0  0
   15.1027   -1.5740    0.0000 H   0  0  0  0  0  0  0  0  0  0  0  0
   15.3263   -0.7262    0.0000 H   0  0  0  0  0  0  0  0  0  0  0  0
   14.4785   -0.5026    0.0000 H   0  0  0  0  0  0  0  0  0  0  0  0
  1  2  2  0  0  0  0
  1  3  2  0  0  0  0
  1  5  1  0  0  0  0
  1 17  1  0  0  0  0
  4  8  1  0  0  0  0
  4  9  1  0  0  0  0
  4 15  1  0  0  0  0
  5 14  1  0  0  0  0
  5 41  1  0  0  0  0
  6  8  1  0  0  0  0
  6 10  1  0  0  0  0
  6 27  1  0  0  0  0
  6 28  1  0  0  0  0
  7  9  1  0  0  0  0
  7 11  1  0  0  0  0
  7 29  1  0  0  0  0
  7 30  1  0  0  0  0
  8 31  1  0  0  0  0
  8 32  1  0  0  0  0
  9 33  1  0  0  0  0
  9 34  1  0  0  0  0
 10 11  2  0  0  0  0
 10 12  1  0  0  0  0
 11 13  1  0  0  0  0
 12 14  2  0  0  0  0
 12 35  1  0  0  0  0
 13 16  2  0  0  0  0
 13 36  1  0  0  0  0
 14 16  1  0  0  0  0
 15 37  1  0  0  0  0
 15 38  1  0  0  0  0
 15 39  1  0  0  0  0
 16 40  1  0  0  0  0
 17 21  2  0  0  0  0
 17 22  1  0  0  0  0
 18 19  1  0  0  0  0
 18 20  1  0  0  0  0
 18 42  1  0  0  0  0
 18 43  1  0  0  0  0
 19 24  2  0  0  0  0
 19 25  1  0  0  0  0
 20 23  1  0  0  0  0
 20 44  1  0  0  0  0
 20 45  1  0  0  0  0
 21 24  1  0  0  0  0
 21 46  1  0  0  0  0
 22 25  2  0  0  0  0
 22 47  1  0  0  0  0
 23 26  1  0  0  0  0
 23 48  1  0  0  0  0
 23 49  1  0  0  0  0
 24 50  1  0  0  0  0
 25 51  1  0  0  0  0
 26 52  1  0  0  0  0
 26 53  1  0  0  0  0
 26 54  1  0  0  0  0
M  END
> <PUBCHEM_COMPOUND_CID>
44425701

> <PUBCHEM_COMPOUND_CANONICALIZED>
1

> <PUBCHEM_CACTVS_COMPLEXITY>
523

> <PUBCHEM_CACTVS_HBOND_ACCEPTOR>
4

> <PUBCHEM_CACTVS_HBOND_DONOR>
1

> <PUBCHEM_CACTVS_ROTATABLE_BOND>
6

> <PUBCHEM_CACTVS_SUBSKEYS>
AAADceB7MABAAAAAAAAAAAAAAAAAAAAAAAAwYAAABYAAAAABQAAAHAQQQAAADAjBWAQywYNAAAKAAiRCQHDCABAgAgAIiBgIZIgIICKAkZGEIABgkACIyAcQgIAOmAAAQAAQAAAwAACAACAAAAAAAAAAAA==

> <PUBCHEM_IUPAC_OPENEYE_NAME>
4-butyl-N-(3-methyl-1,2,4,5-tetrahydro-3-benzazepin-7-yl)benzenesulfonamide

> <PUBCHEM_IUPAC_CAS_NAME>
4-butyl-N-(3-methyl-1,2,4,5-tetrahydro-3-benzazepin-7-yl)benzenesulfonamide

> <PUBCHEM_IUPAC_NAME_MARKUP>
4-butyl-<I>N</I>-(3-methyl-1,2,4,5-tetrahydro-3-benzazepin-7-yl)benzenesulfonamide

> <PUBCHEM_IUPAC_NAME>
4-butyl-N-(3-methyl-1,2,4,5-tetrahydro-3-benzazepin-7-yl)benzenesulfonamide

> <PUBCHEM_IUPAC_SYSTEMATIC_NAME>
4-butyl-N-(3-methyl-1,2,4,5-tetrahydro-3-benzazepin-7-yl)benzenesulfonamide

> <PUBCHEM_IUPAC_TRADITIONAL_NAME>
4-butyl-N-(3-methyl-1,2,4,5-tetrahydro-3-benzazepin-7-yl)benzenesulfonamide

> <PUBCHEM_IUPAC_INCHI>
InChI=1S/C21H28N2O2S/c1-3-4-5-17-6-10-21(11-7-17)26(24,25)22-20-9-8-18-12-14-23(2)15-13-19(18)16-20/h6-11,16,22H,3-5,12-15H2,1-2H3

> <PUBCHEM_IUPAC_INCHIKEY>
GGAQZJOAVWSKSS-UHFFFAOYSA-N

> <PUBCHEM_XLOGP3_AA>
4.7

> <PUBCHEM_EXACT_MASS>
372.18714931

> <PUBCHEM_MOLECULAR_FORMULA>
C21H28N2O2S

> <PUBCHEM_MOLECULAR_WEIGHT>
372.5

> <PUBCHEM_OPENEYE_CAN_SMILES>
CCCCC1=CC=C(C=C1)S(=O)(=O)NC2=CC3=C(CCN(CC3)C)C=C2

> <PUBCHEM_OPENEYE_ISO_SMILES>
CCCCC1=CC=C(C=C1)S(=O)(=O)NC2=CC3=C(CCN(CC3)C)C=C2

> <PUBCHEM_CACTVS_TPSA>
57.8

> <PUBCHEM_MONOISOTOPIC_WEIGHT>
372.18714931

> <PUBCHEM_TOTAL_CHARGE>
0

> <PUBCHEM_HEAVY_ATOM_COUNT>
26

> <PUBCHEM_ATOM_DEF_STEREO_COUNT>
0

> <PUBCHEM_ATOM_UDEF_STEREO_COUNT>
0

> <PUBCHEM_BOND_DEF_STEREO_COUNT>
0

> <PUBCHEM_BOND_UDEF_STEREO_COUNT>
0

> <PUBCHEM_ISOTOPIC_ATOM_COUNT>
0

> <PUBCHEM_COMPONENT_COUNT>
1

> <PUBCHEM_CACTVS_TAUTO_COUNT>
-1

> <PUBCHEM_COORDINATE_TYPE>
1
5
255

> <PUBCHEM_BONDANNOTATIONS>
10  11  8
10  12  8
11  13  8
12  14  8
13  16  8
14  16  8
17  21  8
17  22  8
19  24  8
19  25  8
21  24  8
22  25  8

$$$$
