132247311
  -OEChem-09292322452D

 59 61  0     0  0  0  0  0  0999 V2000
    2.0000   -3.0981    0.0000 Cl  0  0  0  0  0  0  0  0  0  0  0  0
    4.9641    0.7679    0.0000 F   0  0  0  0  0  0  0  0  0  0  0  0
    2.0000   -5.0981    0.0000 F   0  0  0  0  0  0  0  0  0  0  0  0
    6.3301   -3.5981    0.0000 O   0  0  0  0  0  0  0  0  0  0  0  0
    8.9641    2.5000    0.0000 O   0  0  0  0  0  0  0  0  0  0  0  0
    5.4641   -2.0981    0.0000 N   0  0  0  0  0  0  0  0  0  0  0  0
    6.9641    0.7679    0.0000 N   0  0  0  0  0  0  0  0  0  0  0  0
   11.9641    4.2320    0.0000 N   0  0  0  0  0  0  0  0  0  0  0  0
    5.4641   -0.0981    0.0000 C   0  0  0  0  0  0  0  0  0  0  0  0
    4.5981   -0.5981    0.0000 C   0  0  0  0  0  0  0  0  0  0  0  0
    6.3301   -0.5981    0.0000 C   0  0  0  0  0  0  0  0  0  0  0  0
    4.5981   -1.5981    0.0000 C   0  0  0  0  0  0  0  0  0  0  0  0
    6.3301   -1.5981    0.0000 C   0  0  0  0  0  0  0  0  0  0  0  0
    5.9641    0.7679    0.0000 C   0  0  0  0  0  0  0  0  0  0  0  0
    5.4641   -3.0981    0.0000 C   0  0  0  0  0  0  0  0  0  0  0  0
    7.4641    1.6340    0.0000 C   0  0  0  0  0  0  0  0  0  0  0  0
    4.5981   -3.5981    0.0000 C   0  0  0  0  0  0  0  0  0  0  0  0
    8.4641    1.6340    0.0000 C   0  0  0  0  0  0  0  0  0  0  0  0
    3.7320   -3.0981    0.0000 C   0  0  0  0  0  0  0  0  0  0  0  0
    4.5981   -4.5981    0.0000 C   0  0  0  0  0  0  0  0  0  0  0  0
    2.8660   -3.5981    0.0000 C   0  0  0  0  0  0  0  0  0  0  0  0
    3.7320   -5.0981    0.0000 C   0  0  0  0  0  0  0  0  0  0  0  0
    9.9641    2.5000    0.0000 C   0  0  0  0  0  0  0  0  0  0  0  0
    2.8660   -4.5981    0.0000 C   0  0  0  0  0  0  0  0  0  0  0  0
   10.4641    3.3660    0.0000 C   0  0  0  0  0  0  0  0  0  0  0  0
   10.4641    1.6340    0.0000 C   0  0  0  0  0  0  0  0  0  0  0  0
   11.4641    3.3660    0.0000 C   0  0  0  0  0  0  0  0  0  0  0  0
   11.4641    1.6340    0.0000 C   0  0  0  0  0  0  0  0  0  0  0  0
   11.9641    2.5000    0.0000 C   0  0  0  0  0  0  0  0  0  0  0  0
   12.9641    4.2320    0.0000 C   0  0  0  0  0  0  0  0  0  0  0  0
   11.4641    5.0981    0.0000 C   0  0  0  0  0  0  0  0  0  0  0  0
    4.3860   -0.0155    0.0000 H   0  0  0  0  0  0  0  0  0  0  0  0
    3.9875   -0.7057    0.0000 H   0  0  0  0  0  0  0  0  0  0  0  0
    6.9407   -0.7057    0.0000 H   0  0  0  0  0  0  0  0  0  0  0  0
    6.5422   -0.0155    0.0000 H   0  0  0  0  0  0  0  0  0  0  0  0
    3.9875   -1.4904    0.0000 H   0  0  0  0  0  0  0  0  0  0  0  0
    4.3860   -2.1807    0.0000 H   0  0  0  0  0  0  0  0  0  0  0  0
    6.5422   -2.1807    0.0000 H   0  0  0  0  0  0  0  0  0  0  0  0
    6.9407   -1.4904    0.0000 H   0  0  0  0  0  0  0  0  0  0  0  0
    6.0718    1.3785    0.0000 H   0  0  0  0  0  0  0  0  0  0  0  0
    5.3815    0.9800    0.0000 H   0  0  0  0  0  0  0  0  0  0  0  0
    7.2741    0.2310    0.0000 H   0  0  0  0  0  0  0  0  0  0  0  0
    7.5718    2.2446    0.0000 H   0  0  0  0  0  0  0  0  0  0  0  0
    6.8815    1.8460    0.0000 H   0  0  0  0  0  0  0  0  0  0  0  0
    8.3564    1.0234    0.0000 H   0  0  0  0  0  0  0  0  0  0  0  0
    9.0467    1.4219    0.0000 H   0  0  0  0  0  0  0  0  0  0  0  0
    3.7320   -2.4781    0.0000 H   0  0  0  0  0  0  0  0  0  0  0  0
    5.1350   -4.9081    0.0000 H   0  0  0  0  0  0  0  0  0  0  0  0
    3.7320   -5.7181    0.0000 H   0  0  0  0  0  0  0  0  0  0  0  0
   10.1541    3.9030    0.0000 H   0  0  0  0  0  0  0  0  0  0  0  0
   10.1541    1.0970    0.0000 H   0  0  0  0  0  0  0  0  0  0  0  0
   12.5841    2.5000    0.0000 H   0  0  0  0  0  0  0  0  0  0  0  0
   11.7741    1.0970    0.0000 H   0  0  0  0  0  0  0  0  0  0  0  0
   12.9641    3.6120    0.0000 H   0  0  0  0  0  0  0  0  0  0  0  0
   13.5841    4.2320    0.0000 H   0  0  0  0  0  0  0  0  0  0  0  0
   12.9641    4.8520    0.0000 H   0  0  0  0  0  0  0  0  0  0  0  0
   12.0010    5.4081    0.0000 H   0  0  0  0  0  0  0  0  0  0  0  0
   11.1541    5.6350    0.0000 H   0  0  0  0  0  0  0  0  0  0  0  0
   10.9272    4.7881    0.0000 H   0  0  0  0  0  0  0  0  0  0  0  0
  1 21  1  0  0  0  0
  2  9  1  0  0  0  0
  3 24  1  0  0  0  0
  4 15  2  0  0  0  0
  5 18  1  0  0  0  0
  5 23  1  0  0  0  0
  6 12  1  0  0  0  0
  6 13  1  0  0  0  0
  6 15  1  0  0  0  0
  7 14  1  0  0  0  0
  7 16  1  0  0  0  0
  7 42  1  0  0  0  0
  8 27  1  0  0  0  0
  8 30  1  0  0  0  0
  8 31  1  0  0  0  0
  9 10  1  0  0  0  0
  9 11  1  0  0  0  0
  9 14  1  0  0  0  0
 10 12  1  0  0  0  0
 10 32  1  0  0  0  0
 10 33  1  0  0  0  0
 11 13  1  0  0  0  0
 11 34  1  0  0  0  0
 11 35  1  0  0  0  0
 12 36  1  0  0  0  0
 12 37  1  0  0  0  0
 13 38  1  0  0  0  0
 13 39  1  0  0  0  0
 14 40  1  0  0  0  0
 14 41  1  0  0  0  0
 15 17  1  0  0  0  0
 16 18  1  0  0  0  0
 16 43  1  0  0  0  0
 16 44  1  0  0  0  0
 17 19  2  0  0  0  0
 17 20  1  0  0  0  0
 18 45  1  0  0  0  0
 18 46  1  0  0  0  0
 19 21  1  0  0  0  0
 19 47  1  0  0  0  0
 20 22  2  0  0  0  0
 20 48  1  0  0  0  0
 21 24  2  0  0  0  0
 22 24  1  0  0  0  0
 22 49  1  0  0  0  0
 23 25  1  0  0  0  0
 23 26  2  0  0  0  0
 25 27  2  0  0  0  0
 25 50  1  0  0  0  0
 26 28  1  0  0  0  0
 26 51  1  0  0  0  0
 27 29  1  0  0  0  0
 28 29  2  0  0  0  0
 28 53  1  0  0  0  0
 29 52  1  0  0  0  0
 30 54  1  0  0  0  0
 30 55  1  0  0  0  0
 30 56  1  0  0  0  0
 31 57  1  0  0  0  0
 31 58  1  0  0  0  0
 31 59  1  0  0  0  0
M  END
> <PUBCHEM_COMPOUND_CID>
132247311

> <PUBCHEM_COMPOUND_CANONICALIZED>
1

> <PUBCHEM_CACTVS_COMPLEXITY>
575

> <PUBCHEM_CACTVS_HBOND_ACCEPTOR>
6

> <PUBCHEM_CACTVS_HBOND_DONOR>
1

> <PUBCHEM_CACTVS_ROTATABLE_BOND>
8

> <PUBCHEM_CACTVS_SUBSKEYS>
AAADceB7MYAEAAAAAAAAAAAAAAAAAAAAAAA8YIAAAAAAAAABQAAAHwIQAAAADA7hmC4yxoPABACIAiVSUACCCAAlJwAIiIEObsgOJjLFt5uHOSjm1hnY6YeY2AOOAAAAIgAAAAAAAABEAAAAAAAAAAAAAA==

> <PUBCHEM_IUPAC_OPENEYE_NAME>
(3-chloro-4-fluoro-phenyl)-[4-[[2-[3-(dimethylamino)phenoxy]ethylamino]methyl]-4-fluoro-1-piperidyl]methanone

> <PUBCHEM_IUPAC_CAS_NAME>
(3-chloro-4-fluorophenyl)-[4-[[2-[3-(dimethylamino)phenoxy]ethylamino]methyl]-4-fluoro-1-piperidinyl]methanone

> <PUBCHEM_IUPAC_NAME_MARKUP>
(3-chloro-4-fluorophenyl)-[4-[[2-[3-(dimethylamino)phenoxy]ethylamino]methyl]-4-fluoropiperidin-1-yl]methanone

> <PUBCHEM_IUPAC_NAME>
(3-chloro-4-fluorophenyl)-[4-[[2-[3-(dimethylamino)phenoxy]ethylamino]methyl]-4-fluoropiperidin-1-yl]methanone

> <PUBCHEM_IUPAC_SYSTEMATIC_NAME>
(3-chloranyl-4-fluoranyl-phenyl)-[4-[[2-[3-(dimethylamino)phenoxy]ethylamino]methyl]-4-fluoranyl-piperidin-1-yl]methanone

> <PUBCHEM_IUPAC_TRADITIONAL_NAME>
(3-chloro-4-fluoro-phenyl)-[4-[[2-[3-(dimethylamino)phenoxy]ethylamino]methyl]-4-fluoro-piperidino]methanone

> <PUBCHEM_IUPAC_INCHI>
InChI=1S/C23H28ClF2N3O2/c1-28(2)18-4-3-5-19(15-18)31-13-10-27-16-23(26)8-11-29(12-9-23)22(30)17-6-7-21(25)20(24)14-17/h3-7,14-15,27H,8-13,16H2,1-2H3

> <PUBCHEM_IUPAC_INCHIKEY>
UMTUAIYAQNJXDJ-UHFFFAOYSA-N

> <PUBCHEM_XLOGP3_AA>
4.2

> <PUBCHEM_EXACT_MASS>
451.1838112

> <PUBCHEM_MOLECULAR_FORMULA>
C23H28ClF2N3O2

> <PUBCHEM_MOLECULAR_WEIGHT>
451.9

> <PUBCHEM_OPENEYE_CAN_SMILES>
CN(C)C1=CC(=CC=C1)OCCNCC2(CCN(CC2)C(=O)C3=CC(=C(C=C3)F)Cl)F

> <PUBCHEM_OPENEYE_ISO_SMILES>
CN(C)C1=CC(=CC=C1)OCCNCC2(CCN(CC2)C(=O)C3=CC(=C(C=C3)F)Cl)F

> <PUBCHEM_CACTVS_TPSA>
44.8

> <PUBCHEM_MONOISOTOPIC_WEIGHT>
451.1838112

> <PUBCHEM_TOTAL_CHARGE>
0

> <PUBCHEM_HEAVY_ATOM_COUNT>
31

> <PUBCHEM_ATOM_DEF_STEREO_COUNT>
0

> <PUBCHEM_ATOM_UDEF_STEREO_COUNT>
0

> <PUBCHEM_BOND_DEF_STEREO_COUNT>
0

> <PUBCHEM_BOND_UDEF_STEREO_COUNT>
0

> <PUBCHEM_ISOTOPIC_ATOM_COUNT>
0

> <PUBCHEM_COMPONENT_COUNT>
1

> <PUBCHEM_CACTVS_TAUTO_COUNT>
-1

> <PUBCHEM_COORDINATE_TYPE>
1
5
255

> <PUBCHEM_BONDANNOTATIONS>
17  19  8
17  20  8
19  21  8
20  22  8
21  24  8
22  24  8
23  25  8
23  26  8
25  27  8
26  28  8
27  29  8
28  29  8

$$$$
