11551780
  -OEChem-09292322072D

 38 39  0     1  0  0  0  0  0999 V2000
    2.0000   -2.6012    0.0000 Cl  0  0  0  0  0  0  0  0  0  0  0  0
    3.7320   -3.6012    0.0000 Cl  0  0  0  0  0  0  0  0  0  0  0  0
    2.8660    0.8988    0.0000 O   0  0  0  0  0  0  0  0  0  0  0  0
    5.4641    2.3988    0.0000 N   0  0  0  0  0  0  0  0  0  0  0  0
    4.5981    1.8988    0.0000 C   0  0  3  0  0  0  0  0  0  0  0  0
    5.5686    3.3933    0.0000 C   0  0  0  0  0  0  0  0  0  0  0  0
    6.3776    1.9920    0.0000 C   0  0  0  0  0  0  0  0  0  0  0  0
    6.5468    3.6012    0.0000 C   0  0  0  0  0  0  0  0  0  0  0  0
    7.0468    2.7352    0.0000 C   0  0  0  0  0  0  0  0  0  0  0  0
    3.7320    2.3988    0.0000 C   0  0  0  0  0  0  0  0  0  0  0  0
    4.5981    0.8988    0.0000 C   0  0  0  0  0  0  0  0  0  0  0  0
    3.7320    3.3988    0.0000 C   0  0  0  0  0  0  0  0  0  0  0  0
    3.7320    0.3988    0.0000 C   0  0  0  0  0  0  0  0  0  0  0  0
    3.7320   -0.6012    0.0000 C   0  0  0  0  0  0  0  0  0  0  0  0
    2.8660   -1.1012    0.0000 C   0  0  0  0  0  0  0  0  0  0  0  0
    4.5981   -1.1012    0.0000 C   0  0  0  0  0  0  0  0  0  0  0  0
    2.8660   -2.1012    0.0000 C   0  0  0  0  0  0  0  0  0  0  0  0
    4.5981   -2.1012    0.0000 C   0  0  0  0  0  0  0  0  0  0  0  0
    3.7320   -2.6012    0.0000 C   0  0  0  0  0  0  0  0  0  0  0  0
    4.5981    2.5188    0.0000 H   0  0  0  0  0  0  0  0  0  0  0  0
    5.5038    4.0099    0.0000 H   0  0  0  0  0  0  0  0  0  0  0  0
    4.9486    3.3933    0.0000 H   0  0  0  0  0  0  0  0  0  0  0  0
    6.0677    1.4551    0.0000 H   0  0  0  0  0  0  0  0  0  0  0  0
    6.8792    1.6276    0.0000 H   0  0  0  0  0  0  0  0  0  0  0  0
    7.1132    3.8534    0.0000 H   0  0  0  0  0  0  0  0  0  0  0  0
    6.3552    4.1909    0.0000 H   0  0  0  0  0  0  0  0  0  0  0  0
    7.4616    2.2744    0.0000 H   0  0  0  0  0  0  0  0  0  0  0  0
    7.5484    3.0996    0.0000 H   0  0  0  0  0  0  0  0  0  0  0  0
    3.1215    2.5064    0.0000 H   0  0  0  0  0  0  0  0  0  0  0  0
    3.5200    1.8162    0.0000 H   0  0  0  0  0  0  0  0  0  0  0  0
    4.8101    0.3162    0.0000 H   0  0  0  0  0  0  0  0  0  0  0  0
    5.2087    1.0064    0.0000 H   0  0  0  0  0  0  0  0  0  0  0  0
    4.3520    3.3988    0.0000 H   0  0  0  0  0  0  0  0  0  0  0  0
    3.7320    4.0188    0.0000 H   0  0  0  0  0  0  0  0  0  0  0  0
    3.1120    3.3988    0.0000 H   0  0  0  0  0  0  0  0  0  0  0  0
    2.3291   -0.7912    0.0000 H   0  0  0  0  0  0  0  0  0  0  0  0
    5.1350   -0.7912    0.0000 H   0  0  0  0  0  0  0  0  0  0  0  0
    5.1350   -2.4112    0.0000 H   0  0  0  0  0  0  0  0  0  0  0  0
  1 17  1  0  0  0  0
  2 19  1  0  0  0  0
  3 13  2  0  0  0  0
  4  5  1  0  0  0  0
  4  6  1  0  0  0  0
  4  7  1  0  0  0  0
  5 10  1  0  0  0  0
  5 11  1  0  0  0  0
  5 20  1  0  0  0  0
  6  8  1  0  0  0  0
  6 21  1  0  0  0  0
  6 22  1  0  0  0  0
  7  9  1  0  0  0  0
  7 23  1  0  0  0  0
  7 24  1  0  0  0  0
  8  9  1  0  0  0  0
  8 25  1  0  0  0  0
  8 26  1  0  0  0  0
  9 27  1  0  0  0  0
  9 28  1  0  0  0  0
 10 12  1  0  0  0  0
 10 29  1  0  0  0  0
 10 30  1  0  0  0  0
 11 13  1  0  0  0  0
 11 31  1  0  0  0  0
 11 32  1  0  0  0  0
 12 33  1  0  0  0  0
 12 34  1  0  0  0  0
 12 35  1  0  0  0  0
 13 14  1  0  0  0  0
 14 15  2  0  0  0  0
 14 16  1  0  0  0  0
 15 17  1  0  0  0  0
 15 36  1  0  0  0  0
 16 18  2  0  0  0  0
 16 37  1  0  0  0  0
 17 19  2  0  0  0  0
 18 19  1  0  0  0  0
 18 38  1  0  0  0  0
M  END
> <PUBCHEM_COMPOUND_CID>
11551780

> <PUBCHEM_COMPOUND_CANONICALIZED>
1

> <PUBCHEM_CACTVS_COMPLEXITY>
305

> <PUBCHEM_CACTVS_HBOND_ACCEPTOR>
2

> <PUBCHEM_CACTVS_HBOND_DONOR>
0

> <PUBCHEM_CACTVS_ROTATABLE_BOND>
5

> <PUBCHEM_CACTVS_SUBSKEYS>
AAADceByIAAGAAAAAAAAAAAAAAAAAWAAAAAwAAAAAAAAAAABAAAAHgIAAAAADC7BmCQyAIMAAACIAqBSAAACAAAkBQAIikEIAsgIIDqBlxCEIQAggACIiYcYiMCOBAAAIAAAAAQIAABAAAAACAAAAAAAAA==

> <PUBCHEM_IUPAC_OPENEYE_NAME>
1-(3,4-dichlorophenyl)-3-pyrrolidin-1-yl-pentan-1-one

> <PUBCHEM_IUPAC_CAS_NAME>
1-(3,4-dichlorophenyl)-3-(1-pyrrolidinyl)-1-pentanone

> <PUBCHEM_IUPAC_NAME_MARKUP>
1-(3,4-dichlorophenyl)-3-pyrrolidin-1-ylpentan-1-one

> <PUBCHEM_IUPAC_NAME>
1-(3,4-dichlorophenyl)-3-pyrrolidin-1-ylpentan-1-one

> <PUBCHEM_IUPAC_SYSTEMATIC_NAME>
1-(3,4-dichlorophenyl)-3-pyrrolidin-1-yl-pentan-1-one

> <PUBCHEM_IUPAC_TRADITIONAL_NAME>
1-(3,4-dichlorophenyl)-3-pyrrolidino-pentan-1-one

> <PUBCHEM_IUPAC_INCHI>
InChI=1S/C15H19Cl2NO/c1-2-12(18-7-3-4-8-18)10-15(19)11-5-6-13(16)14(17)9-11/h5-6,9,12H,2-4,7-8,10H2,1H3

> <PUBCHEM_IUPAC_INCHIKEY>
BQKRARPXRCZXGV-UHFFFAOYSA-N

> <PUBCHEM_XLOGP3_AA>
4.3

> <PUBCHEM_EXACT_MASS>
299.0843696

> <PUBCHEM_MOLECULAR_FORMULA>
C15H19Cl2NO

> <PUBCHEM_MOLECULAR_WEIGHT>
300.2

> <PUBCHEM_OPENEYE_CAN_SMILES>
CCC(CC(=O)C1=CC(=C(C=C1)Cl)Cl)N2CCCC2

> <PUBCHEM_OPENEYE_ISO_SMILES>
CCC(CC(=O)C1=CC(=C(C=C1)Cl)Cl)N2CCCC2

> <PUBCHEM_CACTVS_TPSA>
20.3

> <PUBCHEM_MONOISOTOPIC_WEIGHT>
299.0843696

> <PUBCHEM_TOTAL_CHARGE>
0

> <PUBCHEM_HEAVY_ATOM_COUNT>
19

> <PUBCHEM_ATOM_DEF_STEREO_COUNT>
0

> <PUBCHEM_ATOM_UDEF_STEREO_COUNT>
1

> <PUBCHEM_BOND_DEF_STEREO_COUNT>
0

> <PUBCHEM_BOND_UDEF_STEREO_COUNT>
0

> <PUBCHEM_ISOTOPIC_ATOM_COUNT>
0

> <PUBCHEM_COMPONENT_COUNT>
1

> <PUBCHEM_CACTVS_TAUTO_COUNT>
-1

> <PUBCHEM_COORDINATE_TYPE>
1
5
255

> <PUBCHEM_BONDANNOTATIONS>
14  15  8
14  16  8
15  17  8
16  18  8
17  19  8
18  19  8
5  10  3

$$$$
