45259662
  -OEChem-09292322152D

 68 70  0     0  0  0  0  0  0999 V2000
   11.3606    7.5230    0.0000 Cl  0  0  0  0  0  0  0  0  0  0  0  0
    7.7495   12.2389    0.0000 O   0  0  0  0  0  0  0  0  0  0  0  0
    2.6350    6.5758    0.0000 O   0  0  0  0  0  0  0  0  0  0  0  0
    1.4030    4.0369    0.0000 O   0  0  0  0  0  0  0  0  0  0  0  0
    3.1350    1.0369    0.0000 O   0  0  0  0  0  0  0  0  0  0  0  0
    4.5849   10.8299    0.0000 N   0  0  0  0  0  0  0  0  0  0  0  0
    5.7605   12.4480    0.0000 N   0  0  0  0  0  0  0  0  0  0  0  0
    2.3260    5.6247    0.0000 N   0  0  0  0  0  0  0  0  0  0  0  0
    4.1782   11.7435    0.0000 C   0  0  0  0  0  0  0  0  0  0  0  0
    5.5794   10.7254    0.0000 C   0  0  0  0  0  0  0  0  0  0  0  0
    4.7659   12.5525    0.0000 C   0  0  0  0  0  0  0  0  0  0  0  0
    6.1672   11.5344    0.0000 C   0  0  0  0  0  0  0  0  0  0  0  0
    3.9971   10.0209    0.0000 C   0  0  0  0  0  0  0  0  0  0  0  0
    4.4038    9.1074    0.0000 C   0  0  0  0  0  0  0  0  0  0  0  0
    6.3482   13.2570    0.0000 C   0  0  0  0  0  0  0  0  0  0  0  0
    3.8161    8.2983    0.0000 C   0  0  0  0  0  0  0  0  0  0  0  0
    4.2228    7.3848    0.0000 C   0  0  0  0  0  0  0  0  0  0  0  0
    7.3428   13.1524    0.0000 C   0  0  0  0  0  0  0  0  0  0  0  0
    5.9415   14.1705    0.0000 C   0  0  0  0  0  0  0  0  0  0  0  0
    3.6350    6.5758    0.0000 C   0  0  0  0  0  0  0  0  0  0  0  0
    7.9306   13.9615    0.0000 C   0  0  0  0  0  0  0  0  0  0  0  0
    6.5293   14.9795    0.0000 C   0  0  0  0  0  0  0  0  0  0  0  0
    7.5238   14.8750    0.0000 C   0  0  0  0  0  0  0  0  0  0  0  0
    3.9440    5.6247    0.0000 C   0  0  0  0  0  0  0  0  0  0  0  0
    3.1350    5.0369    0.0000 C   0  0  0  0  0  0  0  0  0  0  0  0
    3.1350    4.0369    0.0000 C   0  0  0  0  0  0  0  0  0  0  0  0
    8.7440   12.1344    0.0000 C   0  0  0  0  0  0  0  0  0  0  0  0
    2.2690    3.5369    0.0000 C   0  0  0  0  0  0  0  0  0  0  0  0
    4.0010    3.5369    0.0000 C   0  0  0  0  0  0  0  0  0  0  0  0
    2.2690    2.5369    0.0000 C   0  0  0  0  0  0  0  0  0  0  0  0
    4.0010    2.5369    0.0000 C   0  0  0  0  0  0  0  0  0  0  0  0
    3.1350    2.0369    0.0000 C   0  0  0  0  0  0  0  0  0  0  0  0
    0.5369    3.5369    0.0000 C   0  0  0  0  0  0  0  0  0  0  0  0
    4.0010    0.5369    0.0000 C   0  0  0  0  0  0  0  0  0  0  0  0
    3.7475   12.1895    0.0000 H   0  0  0  0  0  0  0  0  0  0  0  0
    3.6642   11.3968    0.0000 H   0  0  0  0  0  0  0  0  0  0  0  0
    5.4085   10.1294    0.0000 H   0  0  0  0  0  0  0  0  0  0  0  0
    6.1367   10.4536    0.0000 H   0  0  0  0  0  0  0  0  0  0  0  0
    4.9368   13.1485    0.0000 H   0  0  0  0  0  0  0  0  0  0  0  0
    4.2087   12.8243    0.0000 H   0  0  0  0  0  0  0  0  0  0  0  0
    6.5979   11.0884    0.0000 H   0  0  0  0  0  0  0  0  0  0  0  0
    6.6812   11.8811    0.0000 H   0  0  0  0  0  0  0  0  0  0  0  0
    3.5664   10.4669    0.0000 H   0  0  0  0  0  0  0  0  0  0  0  0
    3.4831    9.6742    0.0000 H   0  0  0  0  0  0  0  0  0  0  0  0
    4.8345    8.6614    0.0000 H   0  0  0  0  0  0  0  0  0  0  0  0
    4.9178    9.4541    0.0000 H   0  0  0  0  0  0  0  0  0  0  0  0
    3.3854    8.7443    0.0000 H   0  0  0  0  0  0  0  0  0  0  0  0
    3.3021    7.9516    0.0000 H   0  0  0  0  0  0  0  0  0  0  0  0
    4.6535    6.9388    0.0000 H   0  0  0  0  0  0  0  0  0  0  0  0
    4.7368    7.7315    0.0000 H   0  0  0  0  0  0  0  0  0  0  0  0
    5.3249   14.2353    0.0000 H   0  0  0  0  0  0  0  0  0  0  0  0
    8.5472   13.8967    0.0000 H   0  0  0  0  0  0  0  0  0  0  0  0
    6.2771   15.5459    0.0000 H   0  0  0  0  0  0  0  0  0  0  0  0
    7.8882   15.3766    0.0000 H   0  0  0  0  0  0  0  0  0  0  0  0
    4.5337    5.4331    0.0000 H   0  0  0  0  0  0  0  0  0  0  0  0
    8.6792   11.5178    0.0000 H   0  0  0  0  0  0  0  0  0  0  0  0
    9.3606   12.0696    0.0000 H   0  0  0  0  0  0  0  0  0  0  0  0
    8.8088   12.7510    0.0000 H   0  0  0  0  0  0  0  0  0  0  0  0
    4.5380    3.8469    0.0000 H   0  0  0  0  0  0  0  0  0  0  0  0
    1.7320    2.2269    0.0000 H   0  0  0  0  0  0  0  0  0  0  0  0
    4.5380    2.2269    0.0000 H   0  0  0  0  0  0  0  0  0  0  0  0
    0.2269    4.0739    0.0000 H   0  0  0  0  0  0  0  0  0  0  0  0
    0.0000    3.2269    0.0000 H   0  0  0  0  0  0  0  0  0  0  0  0
    0.8469    3.0000    0.0000 H   0  0  0  0  0  0  0  0  0  0  0  0
    3.6910    0.0000    0.0000 H   0  0  0  0  0  0  0  0  0  0  0  0
    4.5380    0.2269    0.0000 H   0  0  0  0  0  0  0  0  0  0  0  0
    4.3110    1.0739    0.0000 H   0  0  0  0  0  0  0  0  0  0  0  0
   12.3606    7.5230    0.0000 H   0  0  0  0  0  0  0  0  0  0  0  0
  1 68  1  0  0  0  0
  2 18  1  0  0  0  0
  2 27  1  0  0  0  0
  3  8  1  0  0  0  0
  3 20  1  0  0  0  0
  4 28  1  0  0  0  0
  4 33  1  0  0  0  0
  5 32  1  0  0  0  0
  5 34  1  0  0  0  0
  6  9  1  0  0  0  0
  6 10  1  0  0  0  0
  6 13  1  0  0  0  0
  7 11  1  0  0  0  0
  7 12  1  0  0  0  0
  7 15  1  0  0  0  0
  8 25  2  0  0  0  0
  9 11  1  0  0  0  0
  9 35  1  0  0  0  0
  9 36  1  0  0  0  0
 10 12  1  0  0  0  0
 10 37  1  0  0  0  0
 10 38  1  0  0  0  0
 11 39  1  0  0  0  0
 11 40  1  0  0  0  0
 12 41  1  0  0  0  0
 12 42  1  0  0  0  0
 13 14  1  0  0  0  0
 13 43  1  0  0  0  0
 13 44  1  0  0  0  0
 14 16  1  0  0  0  0
 14 45  1  0  0  0  0
 14 46  1  0  0  0  0
 15 18  1  0  0  0  0
 15 19  2  0  0  0  0
 16 17  1  0  0  0  0
 16 47  1  0  0  0  0
 16 48  1  0  0  0  0
 17 20  1  0  0  0  0
 17 49  1  0  0  0  0
 17 50  1  0  0  0  0
 18 21  2  0  0  0  0
 19 22  1  0  0  0  0
 19 51  1  0  0  0  0
 20 24  2  0  0  0  0
 21 23  1  0  0  0  0
 21 52  1  0  0  0  0
 22 23  2  0  0  0  0
 22 53  1  0  0  0  0
 23 54  1  0  0  0  0
 24 25  1  0  0  0  0
 24 55  1  0  0  0  0
 25 26  1  0  0  0  0
 26 28  2  0  0  0  0
 26 29  1  0  0  0  0
 27 56  1  0  0  0  0
 27 57  1  0  0  0  0
 27 58  1  0  0  0  0
 28 30  1  0  0  0  0
 29 31  2  0  0  0  0
 29 59  1  0  0  0  0
 30 32  2  0  0  0  0
 30 60  1  0  0  0  0
 31 32  1  0  0  0  0
 31 61  1  0  0  0  0
 33 62  1  0  0  0  0
 33 63  1  0  0  0  0
 33 64  1  0  0  0  0
 34 65  1  0  0  0  0
 34 66  1  0  0  0  0
 34 67  1  0  0  0  0
M  END
> <PUBCHEM_COMPOUND_CID>
45259662

> <PUBCHEM_COMPOUND_CANONICALIZED>
1

> <PUBCHEM_CACTVS_COMPLEXITY>
560

> <PUBCHEM_CACTVS_HBOND_ACCEPTOR>
7

> <PUBCHEM_CACTVS_HBOND_DONOR>
1

> <PUBCHEM_CACTVS_ROTATABLE_BOND>
10

> <PUBCHEM_CACTVS_SUBSKEYS>
AAADcfB7OAAEAAAAAAAAAAAAAAAAAWAAAAA8YIAAAAAAAAAB0AAAHgAEAAAADAzBngYyxpMQBACpA6RyQgCCCAAlIgAomCE/bNoOZ7rEsZuVMahnwB3Y6UeY/e/OIAAACAAIEABAAAAQABAgAAAAAAAAAA==

> <PUBCHEM_IUPAC_OPENEYE_NAME>
3-(2,4-dimethoxyphenyl)-5-[4-[4-(2-methoxyphenyl)piperazin-1-yl]butyl]isoxazole;hydrochloride

> <PUBCHEM_IUPAC_CAS_NAME>
3-(2,4-dimethoxyphenyl)-5-[4-[4-(2-methoxyphenyl)-1-piperazinyl]butyl]isoxazole;hydrochloride

> <PUBCHEM_IUPAC_NAME_MARKUP>
3-(2,4-dimethoxyphenyl)-5-[4-[4-(2-methoxyphenyl)piperazin-1-yl]butyl]-1,2-oxazole;hydrochloride

> <PUBCHEM_IUPAC_NAME>
3-(2,4-dimethoxyphenyl)-5-[4-[4-(2-methoxyphenyl)piperazin-1-yl]butyl]-1,2-oxazole;hydrochloride

> <PUBCHEM_IUPAC_SYSTEMATIC_NAME>
3-(2,4-dimethoxyphenyl)-5-[4-[4-(2-methoxyphenyl)piperazin-1-yl]butyl]-1,2-oxazole;hydrochloride

> <PUBCHEM_IUPAC_TRADITIONAL_NAME>
3-(2,4-dimethoxyphenyl)-5-[4-[4-(2-methoxyphenyl)piperazino]butyl]isoxazole;hydrochloride

> <PUBCHEM_IUPAC_INCHI>
InChI=1S/C26H33N3O4.ClH/c1-30-20-11-12-22(26(19-20)32-3)23-18-21(33-27-23)8-6-7-13-28-14-16-29(17-15-28)24-9-4-5-10-25(24)31-2;/h4-5,9-12,18-19H,6-8,13-17H2,1-3H3;1H

> <PUBCHEM_IUPAC_INCHIKEY>
ZRUVDPINVPKPDX-UHFFFAOYSA-N

> <PUBCHEM_EXACT_MASS>
487.2237843

> <PUBCHEM_MOLECULAR_FORMULA>
C26H34ClN3O4

> <PUBCHEM_MOLECULAR_WEIGHT>
488.0

> <PUBCHEM_OPENEYE_CAN_SMILES>
COC1=CC(=C(C=C1)C2=NOC(=C2)CCCCN3CCN(CC3)C4=CC=CC=C4OC)OC.Cl

> <PUBCHEM_OPENEYE_ISO_SMILES>
COC1=CC(=C(C=C1)C2=NOC(=C2)CCCCN3CCN(CC3)C4=CC=CC=C4OC)OC.Cl

> <PUBCHEM_CACTVS_TPSA>
60.2

> <PUBCHEM_MONOISOTOPIC_WEIGHT>
487.2237843

> <PUBCHEM_TOTAL_CHARGE>
0

> <PUBCHEM_HEAVY_ATOM_COUNT>
34

> <PUBCHEM_ATOM_DEF_STEREO_COUNT>
0

> <PUBCHEM_ATOM_UDEF_STEREO_COUNT>
0

> <PUBCHEM_BOND_DEF_STEREO_COUNT>
0

> <PUBCHEM_BOND_UDEF_STEREO_COUNT>
0

> <PUBCHEM_ISOTOPIC_ATOM_COUNT>
0

> <PUBCHEM_COMPONENT_COUNT>
2

> <PUBCHEM_CACTVS_TAUTO_COUNT>
-1

> <PUBCHEM_COORDINATE_TYPE>
1
5
255

> <PUBCHEM_BONDANNOTATIONS>
15  18  8
15  19  8
18  21  8
19  22  8
20  24  8
21  23  8
22  23  8
24  25  8
26  28  8
26  29  8
28  30  8
29  31  8
3  20  8
3  8  8
30  32  8
31  32  8
8  25  8

$$$$
