45260667
  -OEChem-09292322502D

 34 35  0     0  0  0  0  0  0999 V2000
    3.1284    0.0000    0.0000 Cl  0  0  0  0  0  0  0  0  0  0  0  0
    3.2078    4.9777    0.0000 O   0  0  0  0  0  0  0  0  0  0  0  0
    2.8988    7.5468    0.0000 O   0  0  0  0  0  0  0  0  0  0  0  0
    0.6200    5.7867    0.0000 N   0  0  0  0  0  0  0  0  0  0  0  0
    2.6200    5.7867    0.0000 C   0  0  0  0  0  0  0  0  0  0  0  0
    2.1200    4.9207    0.0000 C   0  0  0  0  0  0  0  0  0  0  0  0
    2.1200    6.6527    0.0000 C   0  0  0  0  0  0  0  0  0  0  0  0
    1.1200    4.9207    0.0000 C   0  0  0  0  0  0  0  0  0  0  0  0
    1.1200    6.6527    0.0000 C   0  0  0  0  0  0  0  0  0  0  0  0
    3.2078    6.5957    0.0000 C   0  0  0  0  0  0  0  0  0  0  0  0
    4.1588    5.2867    0.0000 C   0  0  0  0  0  0  0  0  0  0  0  0
    4.1588    6.2867    0.0000 C   0  0  0  0  0  0  0  0  0  0  0  0
    4.9679    4.6989    0.0000 C   0  0  0  0  0  0  0  0  0  0  0  0
    5.8814    5.1056    0.0000 C   0  0  0  0  0  0  0  0  0  0  0  0
    4.8633    3.7044    0.0000 C   0  0  0  0  0  0  0  0  0  0  0  0
    6.6904    4.5179    0.0000 C   0  0  0  0  0  0  0  0  0  0  0  0
    5.6724    3.1166    0.0000 C   0  0  0  0  0  0  0  0  0  0  0  0
    6.5859    3.5233    0.0000 C   0  0  0  0  0  0  0  0  0  0  0  0
    2.0123    4.3101    0.0000 H   0  0  0  0  0  0  0  0  0  0  0  0
    2.7026    4.7086    0.0000 H   0  0  0  0  0  0  0  0  0  0  0  0
    2.7026    6.8648    0.0000 H   0  0  0  0  0  0  0  0  0  0  0  0
    2.0123    7.2633    0.0000 H   0  0  0  0  0  0  0  0  0  0  0  0
    0.5374    4.7086    0.0000 H   0  0  0  0  0  0  0  0  0  0  0  0
    1.2277    4.3101    0.0000 H   0  0  0  0  0  0  0  0  0  0  0  0
    1.2277    7.2633    0.0000 H   0  0  0  0  0  0  0  0  0  0  0  0
    0.5374    6.8648    0.0000 H   0  0  0  0  0  0  0  0  0  0  0  0
    0.0000    5.7867    0.0000 H   0  0  0  0  0  0  0  0  0  0  0  0
    4.6604    6.6511    0.0000 H   0  0  0  0  0  0  0  0  0  0  0  0
    5.9462    5.7222    0.0000 H   0  0  0  0  0  0  0  0  0  0  0  0
    4.2969    3.4522    0.0000 H   0  0  0  0  0  0  0  0  0  0  0  0
    7.2568    4.7700    0.0000 H   0  0  0  0  0  0  0  0  0  0  0  0
    5.6075    2.5000    0.0000 H   0  0  0  0  0  0  0  0  0  0  0  0
    7.0875    3.1589    0.0000 H   0  0  0  0  0  0  0  0  0  0  0  0
    4.1284    0.0000    0.0000 H   0  0  0  0  0  0  0  0  0  0  0  0
  1 34  1  0  0  0  0
  2  5  1  0  0  0  0
  2 11  1  0  0  0  0
  3 10  2  0  0  0  0
  4  8  1  0  0  0  0
  4  9  1  0  0  0  0
  4 27  1  0  0  0  0
  5  6  1  0  0  0  0
  5  7  1  0  0  0  0
  5 10  1  0  0  0  0
  6  8  1  0  0  0  0
  6 19  1  0  0  0  0
  6 20  1  0  0  0  0
  7  9  1  0  0  0  0
  7 21  1  0  0  0  0
  7 22  1  0  0  0  0
  8 23  1  0  0  0  0
  8 24  1  0  0  0  0
  9 25  1  0  0  0  0
  9 26  1  0  0  0  0
 10 12  1  0  0  0  0
 11 12  2  0  0  0  0
 11 13  1  0  0  0  0
 12 28  1  0  0  0  0
 13 14  2  0  0  0  0
 13 15  1  0  0  0  0
 14 16  1  0  0  0  0
 14 29  1  0  0  0  0
 15 17  2  0  0  0  0
 15 30  1  0  0  0  0
 16 18  2  0  0  0  0
 16 31  1  0  0  0  0
 17 18  1  0  0  0  0
 17 32  1  0  0  0  0
 18 33  1  0  0  0  0
M  END
> <PUBCHEM_COMPOUND_CID>
45260667

> <PUBCHEM_COMPOUND_CANONICALIZED>
1

> <PUBCHEM_CACTVS_COMPLEXITY>
336

> <PUBCHEM_CACTVS_HBOND_ACCEPTOR>
3

> <PUBCHEM_CACTVS_HBOND_DONOR>
2

> <PUBCHEM_CACTVS_ROTATABLE_BOND>
1

> <PUBCHEM_CACTVS_SUBSKEYS>
AAADceByMAAEAAAAAAAAAAAAAAAAAQAAAAA8QAAAAAAAAAABAAAAHgAQAAAADETBmAQwAILABACIAqBSAAICCAAgIAAIiIFICMgIJjKAsRyGMAAm0AGIqQeUwCAOAAAAAAAAAAAAAAAAAAAAAAAAAAAAAA==

> <PUBCHEM_IUPAC_OPENEYE_NAME>
2-phenyl-1-oxa-8-azaspiro[4.5]dec-2-en-4-one;hydrochloride

> <PUBCHEM_IUPAC_CAS_NAME>
2-phenyl-1-oxa-8-azaspiro[4.5]dec-2-en-4-one;hydrochloride

> <PUBCHEM_IUPAC_NAME_MARKUP>
2-phenyl-1-oxa-8-azaspiro[4.5]dec-2-en-4-one;hydrochloride

> <PUBCHEM_IUPAC_NAME>
2-phenyl-1-oxa-8-azaspiro[4.5]dec-2-en-4-one;hydrochloride

> <PUBCHEM_IUPAC_SYSTEMATIC_NAME>
2-phenyl-1-oxa-8-azaspiro[4.5]dec-2-en-4-one;hydrochloride

> <PUBCHEM_IUPAC_TRADITIONAL_NAME>
2-phenyl-1-oxa-8-azaspiro[4.5]dec-2-en-4-one;hydrochloride

> <PUBCHEM_IUPAC_INCHI>
InChI=1S/C14H15NO2.ClH/c16-13-10-12(11-4-2-1-3-5-11)17-14(13)6-8-15-9-7-14;/h1-5,10,15H,6-9H2;1H

> <PUBCHEM_IUPAC_INCHIKEY>
GOZOXATYUNCLQI-UHFFFAOYSA-N

> <PUBCHEM_EXACT_MASS>
265.0869564

> <PUBCHEM_MOLECULAR_FORMULA>
C14H16ClNO2

> <PUBCHEM_MOLECULAR_WEIGHT>
265.73

> <PUBCHEM_OPENEYE_CAN_SMILES>
C1CNCCC12C(=O)C=C(O2)C3=CC=CC=C3.Cl

> <PUBCHEM_OPENEYE_ISO_SMILES>
C1CNCCC12C(=O)C=C(O2)C3=CC=CC=C3.Cl

> <PUBCHEM_CACTVS_TPSA>
38.3

> <PUBCHEM_MONOISOTOPIC_WEIGHT>
265.0869564

> <PUBCHEM_TOTAL_CHARGE>
0

> <PUBCHEM_HEAVY_ATOM_COUNT>
18

> <PUBCHEM_ATOM_DEF_STEREO_COUNT>
0

> <PUBCHEM_ATOM_UDEF_STEREO_COUNT>
0

> <PUBCHEM_BOND_DEF_STEREO_COUNT>
0

> <PUBCHEM_BOND_UDEF_STEREO_COUNT>
0

> <PUBCHEM_ISOTOPIC_ATOM_COUNT>
0

> <PUBCHEM_COMPONENT_COUNT>
2

> <PUBCHEM_CACTVS_TAUTO_COUNT>
-1

> <PUBCHEM_COORDINATE_TYPE>
1
5
255

> <PUBCHEM_BONDANNOTATIONS>
13  14  8
13  15  8
14  16  8
15  17  8
16  18  8
17  18  8

$$$$
