45273523
  -OEChem-09292322282D

 57 60  0     1  0  0  0  0  0999 V2000
    7.1922   -6.2420    0.0000 Cl  0  0  0  0  0  0  0  0  0  0  0  0
    8.0902   -1.5368    0.0000 O   0  0  0  0  0  0  0  0  0  0  0  0
    2.8660    5.7420    0.0000 O   0  0  0  0  0  0  0  0  0  0  0  0
    5.4641    1.2420    0.0000 N   0  0  3  0  0  0  0  0  0  0  0  0
    6.3301   -1.2580    0.0000 N   0  0  0  0  0  0  0  0  0  0  0  0
    6.8301   -2.7969    0.0000 N   0  0  0  0  0  0  0  0  0  0  0  0
    4.5981    2.7420    0.0000 C   0  0  3  0  0  0  0  0  0  0  0  0
    4.5981    1.7420    0.0000 C   0  0  0  0  0  0  0  0  0  0  0  0
    5.4641    3.2420    0.0000 C   0  0  0  0  0  0  0  0  0  0  0  0
    6.3301    1.7420    0.0000 C   0  0  0  0  0  0  0  0  0  0  0  0
    6.3301    2.7420    0.0000 C   0  0  0  0  0  0  0  0  0  0  0  0
    5.4641    0.2420    0.0000 C   0  0  0  0  0  0  0  0  0  0  0  0
    6.3301   -0.2580    0.0000 C   0  0  0  0  0  0  0  0  0  0  0  0
    3.7320    3.2420    0.0000 C   0  0  0  0  0  0  0  0  0  0  0  0
    5.5211   -1.8458    0.0000 C   0  0  0  0  0  0  0  0  0  0  0  0
    5.8301   -2.7969    0.0000 C   0  0  0  0  0  0  0  0  0  0  0  0
    7.1391   -1.8458    0.0000 C   0  0  0  0  0  0  0  0  0  0  0  0
    3.7320    4.2420    0.0000 C   0  0  0  0  0  0  0  0  0  0  0  0
    2.8660    2.7420    0.0000 C   0  0  0  0  0  0  0  0  0  0  0  0
    7.4179   -3.6059    0.0000 C   0  0  0  0  0  0  0  0  0  0  0  0
    2.8660    4.7420    0.0000 C   0  0  0  0  0  0  0  0  0  0  0  0
    2.0000    3.2420    0.0000 C   0  0  0  0  0  0  0  0  0  0  0  0
    2.0000    4.2420    0.0000 C   0  0  0  0  0  0  0  0  0  0  0  0
    7.0112   -4.5194    0.0000 C   0  0  0  0  0  0  0  0  0  0  0  0
    8.4124   -3.5014    0.0000 C   0  0  0  0  0  0  0  0  0  0  0  0
    7.5990   -5.3284    0.0000 C   0  0  0  0  0  0  0  0  0  0  0  0
    9.0002   -4.3104    0.0000 C   0  0  0  0  0  0  0  0  0  0  0  0
    8.5935   -5.2239    0.0000 C   0  0  0  0  0  0  0  0  0  0  0  0
    2.0000    6.2420    0.0000 C   0  0  0  0  0  0  0  0  0  0  0  0
    4.5981    3.3620    0.0000 H   0  0  0  0  0  0  0  0  0  0  0  0
    3.9875    1.8496    0.0000 H   0  0  0  0  0  0  0  0  0  0  0  0
    4.3860    1.1594    0.0000 H   0  0  0  0  0  0  0  0  0  0  0  0
    5.8626    3.7169    0.0000 H   0  0  0  0  0  0  0  0  0  0  0  0
    5.0656    3.7169    0.0000 H   0  0  0  0  0  0  0  0  0  0  0  0
    6.5422    1.1594    0.0000 H   0  0  0  0  0  0  0  0  0  0  0  0
    6.9407    1.8496    0.0000 H   0  0  0  0  0  0  0  0  0  0  0  0
    6.9407    2.6343    0.0000 H   0  0  0  0  0  0  0  0  0  0  0  0
    6.5422    3.3246    0.0000 H   0  0  0  0  0  0  0  0  0  0  0  0
    4.8535    0.3496    0.0000 H   0  0  0  0  0  0  0  0  0  0  0  0
    5.2520   -0.3406    0.0000 H   0  0  0  0  0  0  0  0  0  0  0  0
    6.9407   -0.3657    0.0000 H   0  0  0  0  0  0  0  0  0  0  0  0
    6.5422    0.3246    0.0000 H   0  0  0  0  0  0  0  0  0  0  0  0
    5.2111   -1.3089    0.0000 H   0  0  0  0  0  0  0  0  0  0  0  0
    4.9547   -2.0980    0.0000 H   0  0  0  0  0  0  0  0  0  0  0  0
    5.2237   -2.9258    0.0000 H   0  0  0  0  0  0  0  0  0  0  0  0
    5.8949   -3.4135    0.0000 H   0  0  0  0  0  0  0  0  0  0  0  0
    4.2690    4.5520    0.0000 H   0  0  0  0  0  0  0  0  0  0  0  0
    2.8660    2.1220    0.0000 H   0  0  0  0  0  0  0  0  0  0  0  0
    1.4631    2.9320    0.0000 H   0  0  0  0  0  0  0  0  0  0  0  0
    1.4631    4.5520    0.0000 H   0  0  0  0  0  0  0  0  0  0  0  0
    6.3946   -4.5842    0.0000 H   0  0  0  0  0  0  0  0  0  0  0  0
    8.6646   -2.9350    0.0000 H   0  0  0  0  0  0  0  0  0  0  0  0
    9.6168   -4.2456    0.0000 H   0  0  0  0  0  0  0  0  0  0  0  0
    8.9579   -5.7255    0.0000 H   0  0  0  0  0  0  0  0  0  0  0  0
    2.3100    6.7789    0.0000 H   0  0  0  0  0  0  0  0  0  0  0  0
    1.4631    6.5520    0.0000 H   0  0  0  0  0  0  0  0  0  0  0  0
    1.6900    5.7050    0.0000 H   0  0  0  0  0  0  0  0  0  0  0  0
  1 26  1  0  0  0  0
  2 17  2  0  0  0  0
  3 21  1  0  0  0  0
  3 29  1  0  0  0  0
  4  8  1  0  0  0  0
  4 10  1  0  0  0  0
  4 12  1  0  0  0  0
  5 13  1  0  0  0  0
  5 15  1  0  0  0  0
  5 17  1  0  0  0  0
  6 16  1  0  0  0  0
  6 17  1  0  0  0  0
  6 20  1  0  0  0  0
  7  8  1  0  0  0  0
  7  9  1  0  0  0  0
  7 14  1  0  0  0  0
  7 30  1  0  0  0  0
  8 31  1  0  0  0  0
  8 32  1  0  0  0  0
  9 11  1  0  0  0  0
  9 33  1  0  0  0  0
  9 34  1  0  0  0  0
 10 11  1  0  0  0  0
 10 35  1  0  0  0  0
 10 36  1  0  0  0  0
 11 37  1  0  0  0  0
 11 38  1  0  0  0  0
 12 13  1  0  0  0  0
 12 39  1  0  0  0  0
 12 40  1  0  0  0  0
 13 41  1  0  0  0  0
 13 42  1  0  0  0  0
 14 18  2  0  0  0  0
 14 19  1  0  0  0  0
 15 16  1  0  0  0  0
 15 43  1  0  0  0  0
 15 44  1  0  0  0  0
 16 45  1  0  0  0  0
 16 46  1  0  0  0  0
 18 21  1  0  0  0  0
 18 47  1  0  0  0  0
 19 22  2  0  0  0  0
 19 48  1  0  0  0  0
 20 24  2  0  0  0  0
 20 25  1  0  0  0  0
 21 23  2  0  0  0  0
 22 23  1  0  0  0  0
 22 49  1  0  0  0  0
 23 50  1  0  0  0  0
 24 26  1  0  0  0  0
 24 51  1  0  0  0  0
 25 27  2  0  0  0  0
 25 52  1  0  0  0  0
 26 28  2  0  0  0  0
 27 28  1  0  0  0  0
 27 53  1  0  0  0  0
 28 54  1  0  0  0  0
 29 55  1  0  0  0  0
 29 56  1  0  0  0  0
 29 57  1  0  0  0  0
M  END
> <PUBCHEM_COMPOUND_CID>
45273523

> <PUBCHEM_COMPOUND_CANONICALIZED>
1

> <PUBCHEM_CACTVS_COMPLEXITY>
548

> <PUBCHEM_CACTVS_HBOND_ACCEPTOR>
3

> <PUBCHEM_CACTVS_HBOND_DONOR>
0

> <PUBCHEM_CACTVS_ROTATABLE_BOND>
6

> <PUBCHEM_CACTVS_SUBSKEYS>
AAADceB7MAAEAAAAAAAAAAAAAAAAAWAAAAA8YIAAAAAAAAABQAAAHgIAAAAADQ7BmCYzxoMABACIAiRCUACCCAAhJwAIiAAOboiMZiLFs5uUMChsxhPI6CeQ0PIOgAABAAIAAAAAAAIABAAAAAAAAAAAAA==

> <PUBCHEM_IUPAC_OPENEYE_NAME>
1-(3-chlorophenyl)-3-[2-[3-(3-methoxyphenyl)-1-piperidyl]ethyl]imidazolidin-2-one

> <PUBCHEM_IUPAC_CAS_NAME>
1-(3-chlorophenyl)-3-[2-[3-(3-methoxyphenyl)-1-piperidinyl]ethyl]-2-imidazolidinone

> <PUBCHEM_IUPAC_NAME_MARKUP>
1-(3-chlorophenyl)-3-[2-[3-(3-methoxyphenyl)piperidin-1-yl]ethyl]imidazolidin-2-one

> <PUBCHEM_IUPAC_NAME>
1-(3-chlorophenyl)-3-[2-[3-(3-methoxyphenyl)piperidin-1-yl]ethyl]imidazolidin-2-one

> <PUBCHEM_IUPAC_SYSTEMATIC_NAME>
1-(3-chlorophenyl)-3-[2-[3-(3-methoxyphenyl)piperidin-1-yl]ethyl]imidazolidin-2-one

> <PUBCHEM_IUPAC_TRADITIONAL_NAME>
1-(3-chlorophenyl)-3-[2-[3-(3-methoxyphenyl)piperidino]ethyl]-2-imidazolidinone

> <PUBCHEM_IUPAC_INCHI>
InChI=1S/C23H28ClN3O2/c1-29-22-9-2-5-18(15-22)19-6-4-10-25(17-19)11-12-26-13-14-27(23(26)28)21-8-3-7-20(24)16-21/h2-3,5,7-9,15-16,19H,4,6,10-14,17H2,1H3

> <PUBCHEM_IUPAC_INCHIKEY>
CUOZZEMLTFRECQ-UHFFFAOYSA-N

> <PUBCHEM_XLOGP3_AA>
3.9

> <PUBCHEM_EXACT_MASS>
413.1870048

> <PUBCHEM_MOLECULAR_FORMULA>
C23H28ClN3O2

> <PUBCHEM_MOLECULAR_WEIGHT>
413.9

> <PUBCHEM_OPENEYE_CAN_SMILES>
COC1=CC=CC(=C1)C2CCCN(C2)CCN3CCN(C3=O)C4=CC(=CC=C4)Cl

> <PUBCHEM_OPENEYE_ISO_SMILES>
COC1=CC=CC(=C1)C2CCCN(C2)CCN3CCN(C3=O)C4=CC(=CC=C4)Cl

> <PUBCHEM_CACTVS_TPSA>
36

> <PUBCHEM_MONOISOTOPIC_WEIGHT>
413.1870048

> <PUBCHEM_TOTAL_CHARGE>
0

> <PUBCHEM_HEAVY_ATOM_COUNT>
29

> <PUBCHEM_ATOM_DEF_STEREO_COUNT>
0

> <PUBCHEM_ATOM_UDEF_STEREO_COUNT>
1

> <PUBCHEM_BOND_DEF_STEREO_COUNT>
0

> <PUBCHEM_BOND_UDEF_STEREO_COUNT>
0

> <PUBCHEM_ISOTOPIC_ATOM_COUNT>
0

> <PUBCHEM_COMPONENT_COUNT>
1

> <PUBCHEM_CACTVS_TAUTO_COUNT>
-1

> <PUBCHEM_COORDINATE_TYPE>
1
5
255

> <PUBCHEM_BONDANNOTATIONS>
14  18  8
14  19  8
18  21  8
19  22  8
20  24  8
20  25  8
21  23  8
22  23  8
24  26  8
25  27  8
26  28  8
27  28  8
7  14  3

$$$$
