118710463
  -OEChem-09292322352D

 60 64  0     0  0  0  0  0  0999 V2000
   13.3263    0.7646    0.0000 O   0  0  0  0  0  0  0  0  0  0  0  0
    8.1301   -0.2354    0.0000 N   0  0  0  0  0  0  0  0  0  0  0  0
    6.3981    0.7646    0.0000 N   0  0  0  0  0  0  0  0  0  0  0  0
    4.6660    0.7646    0.0000 N   0  0  0  0  0  0  0  0  0  0  0  0
   12.4603   -0.7354    0.0000 N   0  0  0  0  0  0  0  0  0  0  0  0
   15.7672   -1.0673    0.0000 N   0  0  0  0  0  0  0  0  0  0  0  0
   14.2954   -1.7241    0.0000 N   0  0  0  0  0  0  0  0  0  0  0  0
    8.1301    0.7646    0.0000 C   0  0  0  0  0  0  0  0  0  0  0  0
    7.2641   -0.7354    0.0000 C   0  0  0  0  0  0  0  0  0  0  0  0
    7.2641    1.2646    0.0000 C   0  0  0  0  0  0  0  0  0  0  0  0
    6.3981   -0.2354    0.0000 C   0  0  0  0  0  0  0  0  0  0  0  0
    8.9962   -0.7354    0.0000 C   0  0  0  0  0  0  0  0  0  0  0  0
    9.8622   -0.2354    0.0000 C   0  0  0  0  0  0  0  0  0  0  0  0
   10.7282   -0.7354    0.0000 C   0  0  0  0  0  0  0  0  0  0  0  0
    5.5321    1.2646    0.0000 C   0  0  0  0  0  0  0  0  0  0  0  0
   11.5942   -0.2354    0.0000 C   0  0  0  0  0  0  0  0  0  0  0  0
    5.5321    2.2646    0.0000 C   0  0  0  0  0  0  0  0  0  0  0  0
    3.8000    1.2646    0.0000 C   0  0  0  0  0  0  0  0  0  0  0  0
    4.6660    2.7646    0.0000 C   0  0  0  0  0  0  0  0  0  0  0  0
    3.8000    2.2646    0.0000 C   0  0  0  0  0  0  0  0  0  0  0  0
   13.3263   -0.2354    0.0000 C   0  0  0  0  0  0  0  0  0  0  0  0
    2.9061    0.7300    0.0000 C   0  0  0  0  0  0  0  0  0  0  0  0
    2.9061    2.7993    0.0000 C   0  0  0  0  0  0  0  0  0  0  0  0
   14.1923   -0.7354    0.0000 C   0  0  0  0  0  0  0  0  0  0  0  0
    2.0000    1.2438    0.0000 C   0  0  0  0  0  0  0  0  0  0  0  0
    2.0000    2.2855    0.0000 C   0  0  0  0  0  0  0  0  0  0  0  0
   15.1001   -0.3302    0.0000 C   0  0  0  0  0  0  0  0  0  0  0  0
   15.2672   -1.9333    0.0000 C   0  0  0  0  0  0  0  0  0  0  0  0
   16.7672   -1.0673    0.0000 C   0  0  0  0  0  0  0  0  0  0  0  0
   15.7672   -2.7993    0.0000 C   0  0  0  0  0  0  0  0  0  0  0  0
   17.2672   -1.9333    0.0000 C   0  0  0  0  0  0  0  0  0  0  0  0
   16.7672   -2.7993    0.0000 C   0  0  0  0  0  0  0  0  0  0  0  0
    8.7407    0.6570    0.0000 H   0  0  0  0  0  0  0  0  0  0  0  0
    8.3422    1.3472    0.0000 H   0  0  0  0  0  0  0  0  0  0  0  0
    6.8656   -1.2103    0.0000 H   0  0  0  0  0  0  0  0  0  0  0  0
    7.6626   -1.2103    0.0000 H   0  0  0  0  0  0  0  0  0  0  0  0
    7.6626    1.7396    0.0000 H   0  0  0  0  0  0  0  0  0  0  0  0
    6.8656    1.7396    0.0000 H   0  0  0  0  0  0  0  0  0  0  0  0
    5.7875   -0.1277    0.0000 H   0  0  0  0  0  0  0  0  0  0  0  0
    6.1860   -0.8180    0.0000 H   0  0  0  0  0  0  0  0  0  0  0  0
    8.5976   -1.2103    0.0000 H   0  0  0  0  0  0  0  0  0  0  0  0
    9.3947   -1.2103    0.0000 H   0  0  0  0  0  0  0  0  0  0  0  0
   10.2607    0.2396    0.0000 H   0  0  0  0  0  0  0  0  0  0  0  0
    9.4637    0.2396    0.0000 H   0  0  0  0  0  0  0  0  0  0  0  0
   10.3297   -1.2103    0.0000 H   0  0  0  0  0  0  0  0  0  0  0  0
   11.1267   -1.2103    0.0000 H   0  0  0  0  0  0  0  0  0  0  0  0
   11.9928    0.2396    0.0000 H   0  0  0  0  0  0  0  0  0  0  0  0
   11.1957    0.2396    0.0000 H   0  0  0  0  0  0  0  0  0  0  0  0
    6.0690    2.5746    0.0000 H   0  0  0  0  0  0  0  0  0  0  0  0
    4.6660    3.3846    0.0000 H   0  0  0  0  0  0  0  0  0  0  0  0
   12.4603   -1.3554    0.0000 H   0  0  0  0  0  0  0  0  0  0  0  0
    2.9132    0.1100    0.0000 H   0  0  0  0  0  0  0  0  0  0  0  0
    2.9132    3.4193    0.0000 H   0  0  0  0  0  0  0  0  0  0  0  0
    1.4643    0.9318    0.0000 H   0  0  0  0  0  0  0  0  0  0  0  0
    1.4643    2.5975    0.0000 H   0  0  0  0  0  0  0  0  0  0  0  0
   15.2280    0.2764    0.0000 H   0  0  0  0  0  0  0  0  0  0  0  0
   17.0772   -0.5303    0.0000 H   0  0  0  0  0  0  0  0  0  0  0  0
   15.4572   -3.3362    0.0000 H   0  0  0  0  0  0  0  0  0  0  0  0
   17.8872   -1.9333    0.0000 H   0  0  0  0  0  0  0  0  0  0  0  0
   17.0772   -3.3362    0.0000 H   0  0  0  0  0  0  0  0  0  0  0  0
  1 21  2  0  0  0  0
  2  8  1  0  0  0  0
  2  9  1  0  0  0  0
  2 12  1  0  0  0  0
  3 10  1  0  0  0  0
  3 11  1  0  0  0  0
  3 15  1  0  0  0  0
  4 15  2  0  0  0  0
  4 18  1  0  0  0  0
  5 16  1  0  0  0  0
  5 21  1  0  0  0  0
  5 51  1  0  0  0  0
  6 27  1  0  0  0  0
  6 28  1  0  0  0  0
  6 29  1  0  0  0  0
  7 24  1  0  0  0  0
  7 28  2  0  0  0  0
  8 10  1  0  0  0  0
  8 33  1  0  0  0  0
  8 34  1  0  0  0  0
  9 11  1  0  0  0  0
  9 35  1  0  0  0  0
  9 36  1  0  0  0  0
 10 37  1  0  0  0  0
 10 38  1  0  0  0  0
 11 39  1  0  0  0  0
 11 40  1  0  0  0  0
 12 13  1  0  0  0  0
 12 41  1  0  0  0  0
 12 42  1  0  0  0  0
 13 14  1  0  0  0  0
 13 43  1  0  0  0  0
 13 44  1  0  0  0  0
 14 16  1  0  0  0  0
 14 45  1  0  0  0  0
 14 46  1  0  0  0  0
 15 17  1  0  0  0  0
 16 47  1  0  0  0  0
 16 48  1  0  0  0  0
 17 19  2  0  0  0  0
 17 49  1  0  0  0  0
 18 20  1  0  0  0  0
 18 22  2  0  0  0  0
 19 20  1  0  0  0  0
 19 50  1  0  0  0  0
 20 23  2  0  0  0  0
 21 24  1  0  0  0  0
 22 25  1  0  0  0  0
 22 52  1  0  0  0  0
 23 26  1  0  0  0  0
 23 53  1  0  0  0  0
 24 27  2  0  0  0  0
 25 26  2  0  0  0  0
 25 54  1  0  0  0  0
 26 55  1  0  0  0  0
 27 56  1  0  0  0  0
 28 30  1  0  0  0  0
 29 31  2  0  0  0  0
 29 57  1  0  0  0  0
 30 32  2  0  0  0  0
 30 58  1  0  0  0  0
 31 32  1  0  0  0  0
 31 59  1  0  0  0  0
 32 60  1  0  0  0  0
M  END
> <PUBCHEM_COMPOUND_CID>
118710463

> <PUBCHEM_COMPOUND_CANONICALIZED>
1

> <PUBCHEM_CACTVS_COMPLEXITY>
609

> <PUBCHEM_CACTVS_HBOND_ACCEPTOR>
5

> <PUBCHEM_CACTVS_HBOND_DONOR>
1

> <PUBCHEM_CACTVS_ROTATABLE_BOND>
7

> <PUBCHEM_CACTVS_SUBSKEYS>
AAADceB7oAAAAAAAAAAAAAAAAAAAAWAAAAA8WLEAAAAAAFix/gAAHgAQAAAADAjBnwQ98P/MGACoAzd3dACCgC03EqAJ2KG4dNiIaOrA2bGUIIholgLIyOcQgIAOAAAAAAACAAAAAAAAAAQAAAAAAAAAAA==

> <PUBCHEM_IUPAC_OPENEYE_NAME>
N-[4-[4-(2-quinolyl)piperazin-1-yl]butyl]imidazo[1,2-a]pyridine-2-carboxamide

> <PUBCHEM_IUPAC_CAS_NAME>
N-[4-[4-(2-quinolinyl)-1-piperazinyl]butyl]-2-imidazo[1,2-a]pyridinecarboxamide

> <PUBCHEM_IUPAC_NAME_MARKUP>
<I>N</I>-[4-(4-quinolin-2-ylpiperazin-1-yl)butyl]imidazo[1,2-a]pyridine-2-carboxamide

> <PUBCHEM_IUPAC_NAME>
N-[4-(4-quinolin-2-ylpiperazin-1-yl)butyl]imidazo[1,2-a]pyridine-2-carboxamide

> <PUBCHEM_IUPAC_SYSTEMATIC_NAME>
N-[4-(4-quinolin-2-ylpiperazin-1-yl)butyl]imidazo[1,2-a]pyridine-2-carboxamide

> <PUBCHEM_IUPAC_TRADITIONAL_NAME>
N-[4-[4-(2-quinolyl)piperazino]butyl]imidazo[1,2-a]pyridine-2-carboxamide

> <PUBCHEM_IUPAC_INCHI>
InChI=1S/C25H28N6O/c32-25(22-19-31-14-5-3-9-23(31)28-22)26-12-4-6-13-29-15-17-30(18-16-29)24-11-10-20-7-1-2-8-21(20)27-24/h1-3,5,7-11,14,19H,4,6,12-13,15-18H2,(H,26,32)

> <PUBCHEM_IUPAC_INCHIKEY>
BWWHZGYOJOBIMA-UHFFFAOYSA-N

> <PUBCHEM_XLOGP3_AA>
4.3

> <PUBCHEM_EXACT_MASS>
428.23245954

> <PUBCHEM_MOLECULAR_FORMULA>
C25H28N6O

> <PUBCHEM_MOLECULAR_WEIGHT>
428.5

> <PUBCHEM_OPENEYE_CAN_SMILES>
C1CN(CCN1CCCCNC(=O)C2=CN3C=CC=CC3=N2)C4=NC5=CC=CC=C5C=C4

> <PUBCHEM_OPENEYE_ISO_SMILES>
C1CN(CCN1CCCCNC(=O)C2=CN3C=CC=CC3=N2)C4=NC5=CC=CC=C5C=C4

> <PUBCHEM_CACTVS_TPSA>
65.8

> <PUBCHEM_MONOISOTOPIC_WEIGHT>
428.23245954

> <PUBCHEM_TOTAL_CHARGE>
0

> <PUBCHEM_HEAVY_ATOM_COUNT>
32

> <PUBCHEM_ATOM_DEF_STEREO_COUNT>
0

> <PUBCHEM_ATOM_UDEF_STEREO_COUNT>
0

> <PUBCHEM_BOND_DEF_STEREO_COUNT>
0

> <PUBCHEM_BOND_UDEF_STEREO_COUNT>
0

> <PUBCHEM_ISOTOPIC_ATOM_COUNT>
0

> <PUBCHEM_COMPONENT_COUNT>
1

> <PUBCHEM_CACTVS_TAUTO_COUNT>
-1

> <PUBCHEM_COORDINATE_TYPE>
1
5
255

> <PUBCHEM_BONDANNOTATIONS>
15  17  8
17  19  8
18  20  8
18  22  8
19  20  8
20  23  8
22  25  8
23  26  8
24  27  8
25  26  8
28  30  8
29  31  8
30  32  8
31  32  8
4  15  8
4  18  8
6  27  8
6  28  8
6  29  8
7  24  8
7  28  8

$$$$
