71463197
  -OEChem-09292322332D

 39 41  0     0  0  0  0  0  0999 V2000
    4.6783   -0.8047    0.0000 S   0  0  0  0  0  0  0  0  0  0  0  0
    8.2619    0.0000    0.0000 N   0  0  0  0  0  0  0  0  0  0  0  0
    6.2619    0.0000    0.0000 C   0  0  0  0  0  0  0  0  0  0  0  0
    6.7619   -0.8660    0.0000 C   0  0  0  0  0  0  0  0  0  0  0  0
    6.7619    0.8660    0.0000 C   0  0  0  0  0  0  0  0  0  0  0  0
    7.7619   -0.8660    0.0000 C   0  0  0  0  0  0  0  0  0  0  0  0
    7.7619    0.8660    0.0000 C   0  0  0  0  0  0  0  0  0  0  0  0
    5.2619    0.0000    0.0000 C   0  0  0  0  0  0  0  0  0  0  0  0
    9.2619    0.0000    0.0000 C   0  0  0  0  0  0  0  0  0  0  0  0
    9.7619   -0.8660    0.0000 C   0  0  0  0  0  0  0  0  0  0  0  0
    4.6783    0.8047    0.0000 C   0  0  0  0  0  0  0  0  0  0  0  0
    3.7320    0.5000    0.0000 C   0  0  0  0  0  0  0  0  0  0  0  0
    3.7320   -0.5000    0.0000 C   0  0  0  0  0  0  0  0  0  0  0  0
   10.7619   -0.8660    0.0000 C   0  0  0  0  0  0  0  0  0  0  0  0
    2.8660    1.0000    0.0000 C   0  0  0  0  0  0  0  0  0  0  0  0
    2.8660   -1.0000    0.0000 C   0  0  0  0  0  0  0  0  0  0  0  0
    2.0000    0.5000    0.0000 C   0  0  0  0  0  0  0  0  0  0  0  0
    2.0000   -0.5000    0.0000 C   0  0  0  0  0  0  0  0  0  0  0  0
    5.9519   -0.5369    0.0000 H   0  0  0  0  0  0  0  0  0  0  0  0
    6.1793   -1.0781    0.0000 H   0  0  0  0  0  0  0  0  0  0  0  0
    6.8695   -1.4766    0.0000 H   0  0  0  0  0  0  0  0  0  0  0  0
    6.8695    1.4766    0.0000 H   0  0  0  0  0  0  0  0  0  0  0  0
    6.1793    1.0781    0.0000 H   0  0  0  0  0  0  0  0  0  0  0  0
    7.6542   -1.4766    0.0000 H   0  0  0  0  0  0  0  0  0  0  0  0
    8.3445   -1.0781    0.0000 H   0  0  0  0  0  0  0  0  0  0  0  0
    8.3445    1.0781    0.0000 H   0  0  0  0  0  0  0  0  0  0  0  0
    7.6542    1.4766    0.0000 H   0  0  0  0  0  0  0  0  0  0  0  0
    9.8445    0.2121    0.0000 H   0  0  0  0  0  0  0  0  0  0  0  0
    9.1542    0.6106    0.0000 H   0  0  0  0  0  0  0  0  0  0  0  0
    9.1793   -1.0781    0.0000 H   0  0  0  0  0  0  0  0  0  0  0  0
    9.8695   -1.4766    0.0000 H   0  0  0  0  0  0  0  0  0  0  0  0
    4.8709    1.3940    0.0000 H   0  0  0  0  0  0  0  0  0  0  0  0
   10.7619   -1.4860    0.0000 H   0  0  0  0  0  0  0  0  0  0  0  0
   11.3819   -0.8660    0.0000 H   0  0  0  0  0  0  0  0  0  0  0  0
   10.7619   -0.2460    0.0000 H   0  0  0  0  0  0  0  0  0  0  0  0
    2.8660    1.6200    0.0000 H   0  0  0  0  0  0  0  0  0  0  0  0
    2.8660   -1.6200    0.0000 H   0  0  0  0  0  0  0  0  0  0  0  0
    1.4631    0.8100    0.0000 H   0  0  0  0  0  0  0  0  0  0  0  0
    1.4631   -0.8100    0.0000 H   0  0  0  0  0  0  0  0  0  0  0  0
  1  8  1  0  0  0  0
  1 13  1  0  0  0  0
  2  6  1  0  0  0  0
  2  7  1  0  0  0  0
  2  9  1  0  0  0  0
  3  4  1  0  0  0  0
  3  5  1  0  0  0  0
  3  8  1  0  0  0  0
  3 19  1  0  0  0  0
  4  6  1  0  0  0  0
  4 20  1  0  0  0  0
  4 21  1  0  0  0  0
  5  7  1  0  0  0  0
  5 22  1  0  0  0  0
  5 23  1  0  0  0  0
  6 24  1  0  0  0  0
  6 25  1  0  0  0  0
  7 26  1  0  0  0  0
  7 27  1  0  0  0  0
  8 11  2  0  0  0  0
  9 10  1  0  0  0  0
  9 28  1  0  0  0  0
  9 29  1  0  0  0  0
 10 14  1  0  0  0  0
 10 30  1  0  0  0  0
 10 31  1  0  0  0  0
 11 12  1  0  0  0  0
 11 32  1  0  0  0  0
 12 13  1  0  0  0  0
 12 15  2  0  0  0  0
 13 16  2  0  0  0  0
 14 33  1  0  0  0  0
 14 34  1  0  0  0  0
 14 35  1  0  0  0  0
 15 17  1  0  0  0  0
 15 36  1  0  0  0  0
 16 18  1  0  0  0  0
 16 37  1  0  0  0  0
 17 18  2  0  0  0  0
 17 38  1  0  0  0  0
 18 39  1  0  0  0  0
M  END
> <PUBCHEM_COMPOUND_CID>
71463197

> <PUBCHEM_COMPOUND_CANONICALIZED>
1

> <PUBCHEM_CACTVS_COMPLEXITY>
260

> <PUBCHEM_CACTVS_HBOND_ACCEPTOR>
2

> <PUBCHEM_CACTVS_HBOND_DONOR>
0

> <PUBCHEM_CACTVS_ROTATABLE_BOND>
3

> <PUBCHEM_CACTVS_SUBSKEYS>
AAADceB6AABAAAAAAAAAAAAAAAAAASAAAAA8QAAAAAAAAEgB8AAAHAQAAAAADQDBWAQyAcMAAAiEAiBCAAADAIAgCBBIiBgIAIgIICKgkRCEIAAggACoiAcQgMAOAAAAAAAEAAAAAAAAAAgAAAAAAAAAAA==

> <PUBCHEM_IUPAC_OPENEYE_NAME>
4-(benzothiophen-2-yl)-1-propyl-piperidine

> <PUBCHEM_IUPAC_CAS_NAME>
4-(1-benzothiophen-2-yl)-1-propylpiperidine

> <PUBCHEM_IUPAC_NAME_MARKUP>
4-(1-benzothiophen-2-yl)-1-propylpiperidine

> <PUBCHEM_IUPAC_NAME>
4-(1-benzothiophen-2-yl)-1-propylpiperidine

> <PUBCHEM_IUPAC_SYSTEMATIC_NAME>
4-(1-benzothiophen-2-yl)-1-propyl-piperidine

> <PUBCHEM_IUPAC_TRADITIONAL_NAME>
4-(benzothiophen-2-yl)-1-propyl-piperidine

> <PUBCHEM_IUPAC_INCHI>
InChI=1S/C16H21NS/c1-2-9-17-10-7-13(8-11-17)16-12-14-5-3-4-6-15(14)18-16/h3-6,12-13H,2,7-11H2,1H3

> <PUBCHEM_IUPAC_INCHIKEY>
ZSFVXIXYHJMAHE-UHFFFAOYSA-N

> <PUBCHEM_XLOGP3_AA>
4.4

> <PUBCHEM_EXACT_MASS>
259.13947085

> <PUBCHEM_MOLECULAR_FORMULA>
C16H21NS

> <PUBCHEM_MOLECULAR_WEIGHT>
259.4

> <PUBCHEM_OPENEYE_CAN_SMILES>
CCCN1CCC(CC1)C2=CC3=CC=CC=C3S2

> <PUBCHEM_OPENEYE_ISO_SMILES>
CCCN1CCC(CC1)C2=CC3=CC=CC=C3S2

> <PUBCHEM_CACTVS_TPSA>
31.5

> <PUBCHEM_MONOISOTOPIC_WEIGHT>
259.13947085

> <PUBCHEM_TOTAL_CHARGE>
0

> <PUBCHEM_HEAVY_ATOM_COUNT>
18

> <PUBCHEM_ATOM_DEF_STEREO_COUNT>
0

> <PUBCHEM_ATOM_UDEF_STEREO_COUNT>
0

> <PUBCHEM_BOND_DEF_STEREO_COUNT>
0

> <PUBCHEM_BOND_UDEF_STEREO_COUNT>
0

> <PUBCHEM_ISOTOPIC_ATOM_COUNT>
0

> <PUBCHEM_COMPONENT_COUNT>
1

> <PUBCHEM_CACTVS_TAUTO_COUNT>
-1

> <PUBCHEM_COORDINATE_TYPE>
1
5
255

> <PUBCHEM_BONDANNOTATIONS>
1  13  8
1  8  8
11  12  8
12  13  8
12  15  8
13  16  8
15  17  8
16  18  8
17  18  8
8  11  8

$$$$
