45486840
  -OEChem-09292322292D

 58 63  0     1  0  0  0  0  0999 V2000
    2.0000    1.1217    0.0000 F   0  0  0  0  0  0  0  0  0  0  0  0
   12.0544    0.2472    0.0000 O   0  0  0  0  0  0  0  0  0  0  0  0
   11.4149   -1.7208    0.0000 O   0  0  0  0  0  0  0  0  0  0  0  0
   14.1145   -4.6023    0.0000 O   0  0  0  0  0  0  0  0  0  0  0  0
    4.8717    3.9823    0.0000 N   0  0  0  0  0  0  0  0  0  0  0  0
    9.3887    0.5801    0.0000 N   0  0  0  0  0  0  0  0  0  0  0  0
   14.5724   -2.8860    0.0000 N   0  0  0  0  0  0  0  0  0  0  0  0
    7.0772    1.8674    0.0000 C   0  0  3  0  0  0  0  0  0  0  0  0
    6.0567    1.6587    0.0000 C   0  0  0  0  0  0  0  0  0  0  0  0
    7.3991    2.8581    0.0000 C   0  0  0  0  0  0  0  0  0  0  0  0
    5.3717    2.4434    0.0000 C   0  0  0  0  0  0  0  0  0  0  0  0
    6.6962    3.6268    0.0000 C   0  0  0  0  0  0  0  0  0  0  0  0
    7.7435    1.1217    0.0000 C   0  0  0  0  0  0  0  0  0  0  0  0
    5.6808    3.3945    0.0000 C   0  0  0  0  0  0  0  0  0  0  0  0
    4.3717    2.4434    0.0000 C   0  0  0  0  0  0  0  0  0  0  0  0
    8.7224    1.3258    0.0000 C   0  0  0  0  0  0  0  0  0  0  0  0
    4.0627    3.3945    0.0000 C   0  0  0  0  0  0  0  0  0  0  0  0
   10.3676    0.7843    0.0000 C   0  0  0  0  0  0  0  0  0  0  0  0
   11.0339    0.0385    0.0000 C   0  0  1  0  0  0  0  0  0  0  0  0
    3.6868    1.6587    0.0000 C   0  0  0  0  0  0  0  0  0  0  0  0
    3.0473    3.6268    0.0000 C   0  0  0  0  0  0  0  0  0  0  0  0
   10.7120   -0.9521    0.0000 C   0  0  0  0  0  0  0  0  0  0  0  0
    2.6663    1.8674    0.0000 C   0  0  0  0  0  0  0  0  0  0  0  0
    2.3444    2.8581    0.0000 C   0  0  0  0  0  0  0  0  0  0  0  0
   12.4303   -1.4886    0.0000 C   0  0  0  0  0  0  0  0  0  0  0  0
   12.7394   -0.5375    0.0000 C   0  0  0  0  0  0  0  0  0  0  0  0
   13.0995   -2.2317    0.0000 C   0  0  0  0  0  0  0  0  0  0  0  0
   14.0776   -2.0238    0.0000 C   0  0  0  0  0  0  0  0  0  0  0  0
   12.9981   -3.2206    0.0000 C   0  0  0  0  0  0  0  0  0  0  0  0
   13.7175   -0.3296    0.0000 C   0  0  0  0  0  0  0  0  0  0  0  0
   14.3866   -1.0727    0.0000 C   0  0  0  0  0  0  0  0  0  0  0  0
   13.9066   -3.6241    0.0000 C   0  0  0  0  0  0  0  0  0  0  0  0
    6.8822    1.2789    0.0000 H   0  0  0  0  0  0  0  0  0  0  0  0
    5.5267    1.3369    0.0000 H   0  0  0  0  0  0  0  0  0  0  0  0
    6.2830    1.0815    0.0000 H   0  0  0  0  0  0  0  0  0  0  0  0
    7.9473    2.5684    0.0000 H   0  0  0  0  0  0  0  0  0  0  0  0
    7.7783    3.3486    0.0000 H   0  0  0  0  0  0  0  0  0  0  0  0
    7.2186    3.9607    0.0000 H   0  0  0  0  0  0  0  0  0  0  0  0
    6.4565    4.1986    0.0000 H   0  0  0  0  0  0  0  0  0  0  0  0
    7.2164    0.7952    0.0000 H   0  0  0  0  0  0  0  0  0  0  0  0
    7.9735    0.5459    0.0000 H   0  0  0  0  0  0  0  0  0  0  0  0
    9.2495    1.6524    0.0000 H   0  0  0  0  0  0  0  0  0  0  0  0
    8.4924    1.9016    0.0000 H   0  0  0  0  0  0  0  0  0  0  0  0
    4.8717    4.6023    0.0000 H   0  0  0  0  0  0  0  0  0  0  0  0
    9.1948   -0.0088    0.0000 H   0  0  0  0  0  0  0  0  0  0  0  0
   10.8947    1.1108    0.0000 H   0  0  0  0  0  0  0  0  0  0  0  0
   10.1376    1.3600    0.0000 H   0  0  0  0  0  0  0  0  0  0  0  0
   11.2289    0.6271    0.0000 H   0  0  0  0  0  0  0  0  0  0  0  0
    3.8852    1.0713    0.0000 H   0  0  0  0  0  0  0  0  0  0  0  0
    2.8626    4.2186    0.0000 H   0  0  0  0  0  0  0  0  0  0  0  0
   10.1638   -0.6624    0.0000 H   0  0  0  0  0  0  0  0  0  0  0  0
   10.3328   -1.4426    0.0000 H   0  0  0  0  0  0  0  0  0  0  0  0
    1.7384    2.9893    0.0000 H   0  0  0  0  0  0  0  0  0  0  0  0
   12.3914   -3.0929    0.0000 H   0  0  0  0  0  0  0  0  0  0  0  0
   12.8074   -3.8105    0.0000 H   0  0  0  0  0  0  0  0  0  0  0  0
   13.9091    0.2601    0.0000 H   0  0  0  0  0  0  0  0  0  0  0  0
   14.9931   -0.9438    0.0000 H   0  0  0  0  0  0  0  0  0  0  0  0
   15.1889   -2.9518    0.0000 H   0  0  0  0  0  0  0  0  0  0  0  0
  1 23  1  0  0  0  0
  2 19  1  0  0  0  0
  2 26  1  0  0  0  0
  3 22  1  0  0  0  0
  3 25  1  0  0  0  0
  4 32  2  0  0  0  0
  5 14  1  0  0  0  0
  5 17  1  0  0  0  0
  5 44  1  0  0  0  0
  6 16  1  0  0  0  0
  6 18  1  0  0  0  0
  6 45  1  0  0  0  0
  7 28  1  0  0  0  0
  7 32  1  0  0  0  0
  7 58  1  0  0  0  0
  8  9  1  0  0  0  0
  8 10  1  0  0  0  0
  8 13  1  0  0  0  0
  8 33  1  0  0  0  0
  9 11  1  0  0  0  0
  9 34  1  0  0  0  0
  9 35  1  0  0  0  0
 10 12  1  0  0  0  0
 10 36  1  0  0  0  0
 10 37  1  0  0  0  0
 11 14  2  0  0  0  0
 11 15  1  0  0  0  0
 12 14  1  0  0  0  0
 12 38  1  0  0  0  0
 12 39  1  0  0  0  0
 13 16  1  0  0  0  0
 13 40  1  0  0  0  0
 13 41  1  0  0  0  0
 15 17  2  0  0  0  0
 15 20  1  0  0  0  0
 16 42  1  0  0  0  0
 16 43  1  0  0  0  0
 17 21  1  0  0  0  0
 19 18  1  6  0  0  0
 18 46  1  0  0  0  0
 18 47  1  0  0  0  0
 19 22  1  0  0  0  0
 19 48  1  0  0  0  0
 20 23  2  0  0  0  0
 20 49  1  0  0  0  0
 21 24  2  0  0  0  0
 21 50  1  0  0  0  0
 22 51  1  0  0  0  0
 22 52  1  0  0  0  0
 23 24  1  0  0  0  0
 24 53  1  0  0  0  0
 25 26  2  0  0  0  0
 25 27  1  0  0  0  0
 26 30  1  0  0  0  0
 27 28  2  0  0  0  0
 27 29  1  0  0  0  0
 28 31  1  0  0  0  0
 29 32  1  0  0  0  0
 29 54  1  0  0  0  0
 29 55  1  0  0  0  0
 30 31  2  0  0  0  0
 30 56  1  0  0  0  0
 31 57  1  0  0  0  0
M  END
> <PUBCHEM_COMPOUND_CID>
45486840

> <PUBCHEM_COMPOUND_CANONICALIZED>
1

> <PUBCHEM_CACTVS_COMPLEXITY>
695

> <PUBCHEM_CACTVS_HBOND_ACCEPTOR>
5

> <PUBCHEM_CACTVS_HBOND_DONOR>
3

> <PUBCHEM_CACTVS_ROTATABLE_BOND>
5

> <PUBCHEM_CACTVS_SUBSKEYS>
AAADceB7MQAAAAAAAAAAAAAAAAAAAWLAAAA0YMEAAAAAAFiR9AAAHwAQAAAADRzhng4wxvLJlACoAyVyVACCiCAhIiAImaE+7JgPJvLEtZuHOCrm1Bna6Ae+3PPOgEABAgAKQAAQgAYEABSAAAAAAAAAAA==

> <PUBCHEM_IUPAC_OPENEYE_NAME>
(3S)-3-[[2-(6-fluoro-2,3,4,9-tetrahydro-1H-carbazol-3-yl)ethylamino]methyl]-2,3,7,9-tetrahydro-[1,4]dioxino[2,3-e]indol-8-one

> <PUBCHEM_IUPAC_CAS_NAME>
(3S)-3-[[2-(6-fluoro-2,3,4,9-tetrahydro-1H-carbazol-3-yl)ethylamino]methyl]-2,3,7,9-tetrahydro-[1,4]dioxino[2,3-e]indol-8-one

> <PUBCHEM_IUPAC_NAME_MARKUP>
(3<I>S</I>)-3-[[2-(6-fluoro-2,3,4,9-tetrahydro-1<I>H</I>-carbazol-3-yl)ethylamino]methyl]-2,3,7,9-tetrahydro-[1,4]dioxino[2,3-e]indol-8-one

> <PUBCHEM_IUPAC_NAME>
(3S)-3-[[2-(6-fluoro-2,3,4,9-tetrahydro-1H-carbazol-3-yl)ethylamino]methyl]-2,3,7,9-tetrahydro-[1,4]dioxino[2,3-e]indol-8-one

> <PUBCHEM_IUPAC_SYSTEMATIC_NAME>
(3S)-3-[[2-(6-fluoranyl-2,3,4,9-tetrahydro-1H-carbazol-3-yl)ethylamino]methyl]-2,3,7,9-tetrahydro-[1,4]dioxino[2,3-e]indol-8-one

> <PUBCHEM_IUPAC_TRADITIONAL_NAME>
(3S)-3-[[2-(6-fluoro-2,3,4,9-tetrahydro-1H-carbazol-3-yl)ethylamino]methyl]-2,3,7,9-tetrahydro-[1,4]dioxin[2,3-e]indol-8-one

> <PUBCHEM_IUPAC_INCHI>
InChI=1S/C25H26FN3O3/c26-15-2-4-21-18(10-15)17-9-14(1-3-20(17)28-21)7-8-27-12-16-13-31-25-19-11-24(30)29-22(19)5-6-23(25)32-16/h2,4-6,10,14,16,27-28H,1,3,7-9,11-13H2,(H,29,30)/t14?,16-/m0/s1

> <PUBCHEM_IUPAC_INCHIKEY>
CBHNJIKFZUSAPH-WMCAAGNKSA-N

> <PUBCHEM_XLOGP3_AA>
3.3

> <PUBCHEM_EXACT_MASS>
435.19581986

> <PUBCHEM_MOLECULAR_FORMULA>
C25H26FN3O3

> <PUBCHEM_MOLECULAR_WEIGHT>
435.5

> <PUBCHEM_OPENEYE_CAN_SMILES>
C1CC2=C(CC1CCNCC3COC4=C(O3)C=CC5=C4CC(=O)N5)C6=C(N2)C=CC(=C6)F

> <PUBCHEM_OPENEYE_ISO_SMILES>
C1CC2=C(CC1CCNC[C@H]3COC4=C(O3)C=CC5=C4CC(=O)N5)C6=C(N2)C=CC(=C6)F

> <PUBCHEM_CACTVS_TPSA>
75.4

> <PUBCHEM_MONOISOTOPIC_WEIGHT>
435.19581986

> <PUBCHEM_TOTAL_CHARGE>
0

> <PUBCHEM_HEAVY_ATOM_COUNT>
32

> <PUBCHEM_ATOM_DEF_STEREO_COUNT>
1

> <PUBCHEM_ATOM_UDEF_STEREO_COUNT>
1

> <PUBCHEM_BOND_DEF_STEREO_COUNT>
0

> <PUBCHEM_BOND_UDEF_STEREO_COUNT>
0

> <PUBCHEM_ISOTOPIC_ATOM_COUNT>
0

> <PUBCHEM_COMPONENT_COUNT>
1

> <PUBCHEM_CACTVS_TAUTO_COUNT>
-1

> <PUBCHEM_COORDINATE_TYPE>
1
5
255

> <PUBCHEM_BONDANNOTATIONS>
11  14  8
11  15  8
15  17  8
15  20  8
17  21  8
19  18  6
20  23  8
21  24  8
23  24  8
25  26  8
25  27  8
26  30  8
27  28  8
28  31  8
30  31  8
5  14  8
5  17  8
8  13  3

$$$$
