44439408
  -OEChem-09292322492D

 55 59  0     1  0  0  0  0  0999 V2000
    2.7029    3.2238    0.0000 S   0  0  0  0  0  0  0  0  0  0  0  0
    3.3424    1.2558    0.0000 S   0  0  0  0  0  0  0  0  0  0  0  0
   12.7572   -2.6283    0.0000 O   0  0  0  0  0  0  0  0  0  0  0  0
   13.3752   -0.7262    0.0000 O   0  0  0  0  0  0  0  0  0  0  0  0
    9.0443    0.1772    0.0000 N   0  0  0  0  0  0  0  0  0  0  0  0
    7.3991    0.7188    0.0000 N   0  0  0  0  0  0  0  0  0  0  0  0
    3.7183    2.9916    0.0000 C   0  0  3  0  0  0  0  0  0  0  0  0
    4.0274    2.0405    0.0000 C   0  0  3  0  0  0  0  0  0  0  0  0
    4.5274    3.5793    0.0000 C   0  0  0  0  0  0  0  0  0  0  0  0
    5.0274    2.0405    0.0000 C   0  0  0  0  0  0  0  0  0  0  0  0
    5.3364    2.9916    0.0000 C   0  0  0  0  0  0  0  0  0  0  0  0
    2.0000    2.4551    0.0000 C   0  0  0  0  0  0  0  0  0  0  0  0
    2.3219    1.4645    0.0000 C   0  0  0  0  0  0  0  0  0  0  0  0
    5.7123    1.2558    0.0000 C   0  0  0  0  0  0  0  0  0  0  0  0
    6.3518    3.2238    0.0000 C   0  0  0  0  0  0  0  0  0  0  0  0
    6.7328    1.4645    0.0000 C   0  0  0  0  0  0  0  0  0  0  0  0
    7.0547    2.4551    0.0000 C   0  0  0  0  0  0  0  0  0  0  0  0
    8.7224   -0.8135    0.0000 C   0  0  0  0  0  0  0  0  0  0  0  0
    9.4254   -1.5822    0.0000 C   0  0  0  0  0  0  0  0  0  0  0  0
   10.0648    0.3859    0.0000 C   0  0  0  0  0  0  0  0  0  0  0  0
   10.4408   -1.3499    0.0000 C   0  0  0  0  0  0  0  0  0  0  0  0
   10.7498   -0.3989    0.0000 C   0  0  0  0  0  0  0  0  0  0  0  0
    8.3780    0.9229    0.0000 C   0  0  0  0  0  0  0  0  0  0  0  0
   11.1099   -2.0931    0.0000 C   0  0  0  0  0  0  0  0  0  0  0  0
   11.7279   -0.1909    0.0000 C   0  0  0  0  0  0  0  0  0  0  0  0
   12.0880   -1.8851    0.0000 C   0  0  0  0  0  0  0  0  0  0  0  0
   12.3971   -0.9341    0.0000 C   0  0  0  0  0  0  0  0  0  0  0  0
   12.4482   -3.5793    0.0000 C   0  0  0  0  0  0  0  0  0  0  0  0
   13.6842    0.2249    0.0000 C   0  0  0  0  0  0  0  0  0  0  0  0
    3.5941    3.5990    0.0000 H   0  0  0  0  0  0  0  0  0  0  0  0
    4.2839    1.4761    0.0000 H   0  0  0  0  0  0  0  0  0  0  0  0
    4.9422    4.0401    0.0000 H   0  0  0  0  0  0  0  0  0  0  0  0
    4.1125    4.0401    0.0000 H   0  0  0  0  0  0  0  0  0  0  0  0
    1.6208    2.9456    0.0000 H   0  0  0  0  0  0  0  0  0  0  0  0
    1.4518    2.1655    0.0000 H   0  0  0  0  0  0  0  0  0  0  0  0
    1.7081    1.3766    0.0000 H   0  0  0  0  0  0  0  0  0  0  0  0
    2.3034    0.8447    0.0000 H   0  0  0  0  0  0  0  0  0  0  0  0
    5.5139    0.6684    0.0000 H   0  0  0  0  0  0  0  0  0  0  0  0
    6.5365    3.8156    0.0000 H   0  0  0  0  0  0  0  0  0  0  0  0
    7.6607    2.5864    0.0000 H   0  0  0  0  0  0  0  0  0  0  0  0
    8.1742   -0.5238    0.0000 H   0  0  0  0  0  0  0  0  0  0  0  0
    8.3432   -1.3040    0.0000 H   0  0  0  0  0  0  0  0  0  0  0  0
    8.9030   -1.9161    0.0000 H   0  0  0  0  0  0  0  0  0  0  0  0
    9.6650   -2.1540    0.0000 H   0  0  0  0  0  0  0  0  0  0  0  0
   10.5948    0.7076    0.0000 H   0  0  0  0  0  0  0  0  0  0  0  0
    9.8385    0.9631    0.0000 H   0  0  0  0  0  0  0  0  0  0  0  0
    8.5719    1.5118    0.0000 H   0  0  0  0  0  0  0  0  0  0  0  0
   10.9183   -2.6827    0.0000 H   0  0  0  0  0  0  0  0  0  0  0  0
   11.9195    0.3987    0.0000 H   0  0  0  0  0  0  0  0  0  0  0  0
   11.8585   -3.3878    0.0000 H   0  0  0  0  0  0  0  0  0  0  0  0
   12.2566   -4.1690    0.0000 H   0  0  0  0  0  0  0  0  0  0  0  0
   13.0378   -3.7709    0.0000 H   0  0  0  0  0  0  0  0  0  0  0  0
   14.2739    0.0333    0.0000 H   0  0  0  0  0  0  0  0  0  0  0  0
   13.8758    0.8145    0.0000 H   0  0  0  0  0  0  0  0  0  0  0  0
   13.0946    0.4165    0.0000 H   0  0  0  0  0  0  0  0  0  0  0  0
  1  7  1  0  0  0  0
  1 12  1  0  0  0  0
  2  8  1  0  0  0  0
  2 13  1  0  0  0  0
  3 26  1  0  0  0  0
  3 28  1  0  0  0  0
  4 27  1  0  0  0  0
  4 29  1  0  0  0  0
  5 18  1  0  0  0  0
  5 20  1  0  0  0  0
  5 23  1  0  0  0  0
  6 16  1  0  0  0  0
  6 23  2  0  0  0  0
  7  8  1  0  0  0  0
  7  9  1  0  0  0  0
  7 30  1  0  0  0  0
  8 10  1  0  0  0  0
  8 31  1  0  0  0  0
  9 11  1  0  0  0  0
  9 32  1  0  0  0  0
  9 33  1  0  0  0  0
 10 11  2  0  0  0  0
 10 14  1  0  0  0  0
 11 15  1  0  0  0  0
 12 13  1  0  0  0  0
 12 34  1  0  0  0  0
 12 35  1  0  0  0  0
 13 36  1  0  0  0  0
 13 37  1  0  0  0  0
 14 16  2  0  0  0  0
 14 38  1  0  0  0  0
 15 17  2  0  0  0  0
 15 39  1  0  0  0  0
 16 17  1  0  0  0  0
 17 40  1  0  0  0  0
 18 19  1  0  0  0  0
 18 41  1  0  0  0  0
 18 42  1  0  0  0  0
 19 21  1  0  0  0  0
 19 43  1  0  0  0  0
 19 44  1  0  0  0  0
 20 22  1  0  0  0  0
 20 45  1  0  0  0  0
 20 46  1  0  0  0  0
 21 22  1  0  0  0  0
 21 24  2  0  0  0  0
 22 25  2  0  0  0  0
 23 47  1  0  0  0  0
 24 26  1  0  0  0  0
 24 48  1  0  0  0  0
 25 27  1  0  0  0  0
 25 49  1  0  0  0  0
 26 27  2  0  0  0  0
 28 50  1  0  0  0  0
 28 51  1  0  0  0  0
 28 52  1  0  0  0  0
 29 53  1  0  0  0  0
 29 54  1  0  0  0  0
 29 55  1  0  0  0  0
M  END
> <PUBCHEM_COMPOUND_CID>
44439408

> <PUBCHEM_COMPOUND_CANONICALIZED>
1

> <PUBCHEM_CACTVS_COMPLEXITY>
591

> <PUBCHEM_CACTVS_HBOND_ACCEPTOR>
5

> <PUBCHEM_CACTVS_HBOND_DONOR>
0

> <PUBCHEM_CACTVS_ROTATABLE_BOND>
4

> <PUBCHEM_CACTVS_SUBSKEYS>
AAADceB7MABgAAAAAAAAAAAAAAAAAYAAAAA8aIEAAAAAAGixQAAAHgQAAAAADAzF2AazxoMABAigAiRDZACCCAEgIhAJiAAO7IgNJiKkuZuEMCpkwBGq6Aew0LIOqAABQAAQQABQAAKAACCAAEAACgEAAA==

> <PUBCHEM_IUPAC_OPENEYE_NAME>
N-(3,4a,9,9a-tetrahydro-2H-indeno[1,2-b][1,4]dithiin-6-yl)-1-(6,7-dimethoxy-3,4-dihydro-1H-isoquinolin-2-yl)methanimine

> <PUBCHEM_IUPAC_CAS_NAME>
N-(3,4a,9,9a-tetrahydro-2H-indeno[1,2-b][1,4]dithiin-6-yl)-1-(6,7-dimethoxy-3,4-dihydro-1H-isoquinolin-2-yl)methanimine

> <PUBCHEM_IUPAC_NAME_MARKUP>
<I>N</I>-(3,4<I>a</I>,9,9<I>a</I>-tetrahydro-2<I>H</I>-indeno[1,2-b][1,4]dithiin-6-yl)-1-(6,7-dimethoxy-3,4-dihydro-1<I>H</I>-isoquinolin-2-yl)methanimine

> <PUBCHEM_IUPAC_NAME>
N-(3,4a,9,9a-tetrahydro-2H-indeno[1,2-b][1,4]dithiin-6-yl)-1-(6,7-dimethoxy-3,4-dihydro-1H-isoquinolin-2-yl)methanimine

> <PUBCHEM_IUPAC_SYSTEMATIC_NAME>
N-(3,4a,9,9a-tetrahydro-2H-indeno[1,2-b][1,4]dithiin-6-yl)-1-(6,7-dimethoxy-3,4-dihydro-1H-isoquinolin-2-yl)methanimine

> <PUBCHEM_IUPAC_TRADITIONAL_NAME>
3,4a,9,9a-tetrahydro-2H-indeno[1,2-b][1,4]dithiin-6-yl-[(6,7-dimethoxy-3,4-dihydro-1H-isoquinolin-2-yl)methylene]amine

> <PUBCHEM_IUPAC_INCHI>
InChI=1S/C23H26N2O2S2/c1-26-20-9-15-5-6-25(13-17(15)10-21(20)27-2)14-24-18-4-3-16-11-22-23(19(16)12-18)29-8-7-28-22/h3-4,9-10,12,14,22-23H,5-8,11,13H2,1-2H3

> <PUBCHEM_IUPAC_INCHIKEY>
IVOXPEAHOOVZCL-UHFFFAOYSA-N

> <PUBCHEM_XLOGP3_AA>
4.1

> <PUBCHEM_EXACT_MASS>
426.14357042

> <PUBCHEM_MOLECULAR_FORMULA>
C23H26N2O2S2

> <PUBCHEM_MOLECULAR_WEIGHT>
426.6

> <PUBCHEM_OPENEYE_CAN_SMILES>
COC1=C(C=C2CN(CCC2=C1)C=NC3=CC4=C(CC5C4SCCS5)C=C3)OC

> <PUBCHEM_OPENEYE_ISO_SMILES>
COC1=C(C=C2CN(CCC2=C1)C=NC3=CC4=C(CC5C4SCCS5)C=C3)OC

> <PUBCHEM_CACTVS_TPSA>
84.7

> <PUBCHEM_MONOISOTOPIC_WEIGHT>
426.14357042

> <PUBCHEM_TOTAL_CHARGE>
0

> <PUBCHEM_HEAVY_ATOM_COUNT>
29

> <PUBCHEM_ATOM_DEF_STEREO_COUNT>
0

> <PUBCHEM_ATOM_UDEF_STEREO_COUNT>
2

> <PUBCHEM_BOND_DEF_STEREO_COUNT>
0

> <PUBCHEM_BOND_UDEF_STEREO_COUNT>
0

> <PUBCHEM_ISOTOPIC_ATOM_COUNT>
0

> <PUBCHEM_COMPONENT_COUNT>
1

> <PUBCHEM_CACTVS_TAUTO_COUNT>
-1

> <PUBCHEM_COORDINATE_TYPE>
1
5
255

> <PUBCHEM_BONDANNOTATIONS>
10  11  8
10  14  8
11  15  8
14  16  8
15  17  8
16  17  8
8  2  3
21  22  8
21  24  8
22  25  8
24  26  8
25  27  8
26  27  8
7  9  3

$$$$
