44407298
  -OEChem-09292322272D

 70 73  0     0  0  0  0  0  0999 V2000
    8.9962   -5.5843    0.0000 F   0  0  0  0  0  0  0  0  0  0  0  0
    7.6301   -5.9503    0.0000 F   0  0  0  0  0  0  0  0  0  0  0  0
    8.6301   -4.2183    0.0000 F   0  0  0  0  0  0  0  0  0  0  0  0
    6.3981    3.9157    0.0000 O   0  0  0  0  0  0  0  0  0  0  0  0
    6.3981   -0.0843    0.0000 N   0  0  0  0  0  0  0  0  0  0  0  0
    6.3981   -2.0843    0.0000 N   0  0  0  0  0  0  0  0  0  0  0  0
    4.6660    3.9157    0.0000 N   0  0  0  0  0  0  0  0  0  0  0  0
    5.5321   -3.5843    0.0000 N   0  0  0  0  0  0  0  0  0  0  0  0
    6.3981   -5.0843    0.0000 N   0  0  0  0  0  0  0  0  0  0  0  0
    5.5321   -0.5843    0.0000 C   0  0  0  0  0  0  0  0  0  0  0  0
    7.2641   -0.5843    0.0000 C   0  0  0  0  0  0  0  0  0  0  0  0
    5.5321   -1.5843    0.0000 C   0  0  0  0  0  0  0  0  0  0  0  0
    7.2641   -1.5843    0.0000 C   0  0  0  0  0  0  0  0  0  0  0  0
    6.3981    0.9157    0.0000 C   0  0  0  0  0  0  0  0  0  0  0  0
    6.3981   -3.0843    0.0000 C   0  0  0  0  0  0  0  0  0  0  0  0
    4.6660   -5.0843    0.0000 C   0  0  0  0  0  0  0  0  0  0  0  0
    5.5321    1.4157    0.0000 C   0  0  0  0  0  0  0  0  0  0  0  0
    5.5321    2.4157    0.0000 C   0  0  0  0  0  0  0  0  0  0  0  0
    4.6660    2.9157    0.0000 C   0  0  0  0  0  0  0  0  0  0  0  0
    5.5321   -4.5843    0.0000 C   0  0  0  0  0  0  0  0  0  0  0  0
    7.2641   -3.5843    0.0000 C   0  0  0  0  0  0  0  0  0  0  0  0
    3.8000    4.4157    0.0000 C   0  0  0  0  0  0  0  0  0  0  0  0
    4.6660    5.9157    0.0000 C   0  0  0  0  0  0  0  0  0  0  0  0
    3.8000    5.4157    0.0000 C   0  0  0  0  0  0  0  0  0  0  0  0
    5.5321    5.4157    0.0000 C   0  0  0  0  0  0  0  0  0  0  0  0
    5.5321    4.4157    0.0000 C   0  0  0  0  0  0  0  0  0  0  0  0
    7.2641   -4.5843    0.0000 C   0  0  0  0  0  0  0  0  0  0  0  0
    3.8000   -5.5843    0.0000 C   0  0  0  0  0  0  0  0  0  0  0  0
    5.1660   -5.9503    0.0000 C   0  0  0  0  0  0  0  0  0  0  0  0
    4.1660   -4.2183    0.0000 C   0  0  0  0  0  0  0  0  0  0  0  0
    6.3981    2.9157    0.0000 C   0  0  0  0  0  0  0  0  0  0  0  0
    2.9061    3.8810    0.0000 C   0  0  0  0  0  0  0  0  0  0  0  0
    2.9061    5.9503    0.0000 C   0  0  0  0  0  0  0  0  0  0  0  0
    8.1301   -5.0843    0.0000 C   0  0  0  0  0  0  0  0  0  0  0  0
    2.0000    4.3949    0.0000 C   0  0  0  0  0  0  0  0  0  0  0  0
    2.0000    5.4365    0.0000 C   0  0  0  0  0  0  0  0  0  0  0  0
    5.3200   -0.0017    0.0000 H   0  0  0  0  0  0  0  0  0  0  0  0
    4.9215   -0.6920    0.0000 H   0  0  0  0  0  0  0  0  0  0  0  0
    7.8747   -0.6920    0.0000 H   0  0  0  0  0  0  0  0  0  0  0  0
    7.4762   -0.0017    0.0000 H   0  0  0  0  0  0  0  0  0  0  0  0
    4.9215   -1.4767    0.0000 H   0  0  0  0  0  0  0  0  0  0  0  0
    5.3200   -2.1669    0.0000 H   0  0  0  0  0  0  0  0  0  0  0  0
    7.4762   -2.1669    0.0000 H   0  0  0  0  0  0  0  0  0  0  0  0
    7.8747   -1.4767    0.0000 H   0  0  0  0  0  0  0  0  0  0  0  0
    7.0087    0.8080    0.0000 H   0  0  0  0  0  0  0  0  0  0  0  0
    6.6101    1.4983    0.0000 H   0  0  0  0  0  0  0  0  0  0  0  0
    4.9951    1.1057    0.0000 H   0  0  0  0  0  0  0  0  0  0  0  0
    4.0555    3.0233    0.0000 H   0  0  0  0  0  0  0  0  0  0  0  0
    4.4540    2.3331    0.0000 H   0  0  0  0  0  0  0  0  0  0  0  0
    7.8010   -3.2743    0.0000 H   0  0  0  0  0  0  0  0  0  0  0  0
    5.0646    6.3906    0.0000 H   0  0  0  0  0  0  0  0  0  0  0  0
    4.2675    6.3906    0.0000 H   0  0  0  0  0  0  0  0  0  0  0  0
    6.1426    5.3080    0.0000 H   0  0  0  0  0  0  0  0  0  0  0  0
    5.7441    5.9983    0.0000 H   0  0  0  0  0  0  0  0  0  0  0  0
    3.4900   -5.0474    0.0000 H   0  0  0  0  0  0  0  0  0  0  0  0
    3.2631   -5.8943    0.0000 H   0  0  0  0  0  0  0  0  0  0  0  0
    4.1100   -6.1212    0.0000 H   0  0  0  0  0  0  0  0  0  0  0  0
    4.6291   -6.2603    0.0000 H   0  0  0  0  0  0  0  0  0  0  0  0
    5.4760   -6.4873    0.0000 H   0  0  0  0  0  0  0  0  0  0  0  0
    5.7030   -5.6403    0.0000 H   0  0  0  0  0  0  0  0  0  0  0  0
    4.7030   -3.9083    0.0000 H   0  0  0  0  0  0  0  0  0  0  0  0
    3.8560   -3.6814    0.0000 H   0  0  0  0  0  0  0  0  0  0  0  0
    3.6291   -4.5283    0.0000 H   0  0  0  0  0  0  0  0  0  0  0  0
    6.7081    2.3788    0.0000 H   0  0  0  0  0  0  0  0  0  0  0  0
    6.9350    3.2257    0.0000 H   0  0  0  0  0  0  0  0  0  0  0  0
    6.0881    3.4526    0.0000 H   0  0  0  0  0  0  0  0  0  0  0  0
    2.9132    3.2611    0.0000 H   0  0  0  0  0  0  0  0  0  0  0  0
    2.9132    6.5703    0.0000 H   0  0  0  0  0  0  0  0  0  0  0  0
    1.4643    4.0828    0.0000 H   0  0  0  0  0  0  0  0  0  0  0  0
    1.4643    5.7486    0.0000 H   0  0  0  0  0  0  0  0  0  0  0  0
  1 34  1  0  0  0  0
  2 34  1  0  0  0  0
  3 34  1  0  0  0  0
  4 26  2  0  0  0  0
  5 10  1  0  0  0  0
  5 11  1  0  0  0  0
  5 14  1  0  0  0  0
  6 12  1  0  0  0  0
  6 13  1  0  0  0  0
  6 15  1  0  0  0  0
  7 19  1  0  0  0  0
  7 22  1  0  0  0  0
  7 26  1  0  0  0  0
  8 15  2  0  0  0  0
  8 20  1  0  0  0  0
  9 20  2  0  0  0  0
  9 27  1  0  0  0  0
 10 12  1  0  0  0  0
 10 37  1  0  0  0  0
 10 38  1  0  0  0  0
 11 13  1  0  0  0  0
 11 39  1  0  0  0  0
 11 40  1  0  0  0  0
 12 41  1  0  0  0  0
 12 42  1  0  0  0  0
 13 43  1  0  0  0  0
 13 44  1  0  0  0  0
 14 17  1  0  0  0  0
 14 45  1  0  0  0  0
 14 46  1  0  0  0  0
 15 21  1  0  0  0  0
 16 20  1  0  0  0  0
 16 28  1  0  0  0  0
 16 29  1  0  0  0  0
 16 30  1  0  0  0  0
 17 18  2  0  0  0  0
 17 47  1  0  0  0  0
 18 19  1  0  0  0  0
 18 31  1  0  0  0  0
 19 48  1  0  0  0  0
 19 49  1  0  0  0  0
 21 27  2  0  0  0  0
 21 50  1  0  0  0  0
 22 24  1  0  0  0  0
 22 32  2  0  0  0  0
 23 24  1  0  0  0  0
 23 25  1  0  0  0  0
 23 51  1  0  0  0  0
 23 52  1  0  0  0  0
 24 33  2  0  0  0  0
 25 26  1  0  0  0  0
 25 53  1  0  0  0  0
 25 54  1  0  0  0  0
 27 34  1  0  0  0  0
 28 55  1  0  0  0  0
 28 56  1  0  0  0  0
 28 57  1  0  0  0  0
 29 58  1  0  0  0  0
 29 59  1  0  0  0  0
 29 60  1  0  0  0  0
 30 61  1  0  0  0  0
 30 62  1  0  0  0  0
 30 63  1  0  0  0  0
 31 64  1  0  0  0  0
 31 65  1  0  0  0  0
 31 66  1  0  0  0  0
 32 35  1  0  0  0  0
 32 67  1  0  0  0  0
 33 36  1  0  0  0  0
 33 68  1  0  0  0  0
 35 36  2  0  0  0  0
 35 69  1  0  0  0  0
 36 70  1  0  0  0  0
M  END
> <PUBCHEM_COMPOUND_CID>
44407298

> <PUBCHEM_COMPOUND_CANONICALIZED>
1

> <PUBCHEM_CACTVS_COMPLEXITY>
787

> <PUBCHEM_CACTVS_HBOND_ACCEPTOR>
8

> <PUBCHEM_CACTVS_HBOND_DONOR>
0

> <PUBCHEM_CACTVS_ROTATABLE_BOND>
6

> <PUBCHEM_CACTVS_SUBSKEYS>
AAADcfB7oYAAAAAAAAAAAAAAAAAAAAAAAAA8WLEAAAAAAACxwAAAHwAAAAAADgjBnxQz8JcIEACoAydydACCgCkhAqAJmCE4ZJiIaDLA2dGUJAhohgLIyCcYiYCeAAAAAAACAAAAAAAAAAQAAAAAAAAAAA==

> <PUBCHEM_IUPAC_OPENEYE_NAME>
1-[(E)-4-[4-[2-tert-butyl-6-(trifluoromethyl)pyrimidin-4-yl]piperazin-1-yl]-2-methyl-but-2-enyl]-3,4-dihydroquinolin-2-one

> <PUBCHEM_IUPAC_CAS_NAME>
1-[(E)-4-[4-[2-tert-butyl-6-(trifluoromethyl)-4-pyrimidinyl]-1-piperazinyl]-2-methylbut-2-enyl]-3,4-dihydroquinolin-2-one

> <PUBCHEM_IUPAC_NAME_MARKUP>
1-[(<I>E</I>)-4-[4-[2-<I>tert</I>-butyl-6-(trifluoromethyl)pyrimidin-4-yl]piperazin-1-yl]-2-methylbut-2-enyl]-3,4-dihydroquinolin-2-one

> <PUBCHEM_IUPAC_NAME>
1-[(E)-4-[4-[2-tert-butyl-6-(trifluoromethyl)pyrimidin-4-yl]piperazin-1-yl]-2-methylbut-2-enyl]-3,4-dihydroquinolin-2-one

> <PUBCHEM_IUPAC_SYSTEMATIC_NAME>
1-[(E)-4-[4-[2-tert-butyl-6-(trifluoromethyl)pyrimidin-4-yl]piperazin-1-yl]-2-methyl-but-2-enyl]-3,4-dihydroquinolin-2-one

> <PUBCHEM_IUPAC_TRADITIONAL_NAME>
1-[(E)-4-[4-[2-tert-butyl-6-(trifluoromethyl)pyrimidin-4-yl]piperazino]-2-methyl-but-2-enyl]-3,4-dihydrocarbostyril

> <PUBCHEM_IUPAC_INCHI>
InChI=1S/C27H34F3N5O/c1-19(18-35-21-8-6-5-7-20(21)9-10-24(35)36)11-12-33-13-15-34(16-14-33)23-17-22(27(28,29)30)31-25(32-23)26(2,3)4/h5-8,11,17H,9-10,12-16,18H2,1-4H3/b19-11+

> <PUBCHEM_IUPAC_INCHIKEY>
PKOUVYCYGDKEDL-YBFXNURJSA-N

> <PUBCHEM_XLOGP3_AA>
5.1

> <PUBCHEM_EXACT_MASS>
501.27154521

> <PUBCHEM_MOLECULAR_FORMULA>
C27H34F3N5O

> <PUBCHEM_MOLECULAR_WEIGHT>
501.6

> <PUBCHEM_OPENEYE_CAN_SMILES>
CC(=CCN1CCN(CC1)C2=NC(=NC(=C2)C(F)(F)F)C(C)(C)C)CN3C(=O)CCC4=CC=CC=C43

> <PUBCHEM_OPENEYE_ISO_SMILES>
C/C(=C\CN1CCN(CC1)C2=NC(=NC(=C2)C(F)(F)F)C(C)(C)C)/CN3C(=O)CCC4=CC=CC=C43

> <PUBCHEM_CACTVS_TPSA>
52.6

> <PUBCHEM_MONOISOTOPIC_WEIGHT>
501.27154521

> <PUBCHEM_TOTAL_CHARGE>
0

> <PUBCHEM_HEAVY_ATOM_COUNT>
36

> <PUBCHEM_ATOM_DEF_STEREO_COUNT>
0

> <PUBCHEM_ATOM_UDEF_STEREO_COUNT>
0

> <PUBCHEM_BOND_DEF_STEREO_COUNT>
1

> <PUBCHEM_BOND_UDEF_STEREO_COUNT>
0

> <PUBCHEM_ISOTOPIC_ATOM_COUNT>
0

> <PUBCHEM_COMPONENT_COUNT>
1

> <PUBCHEM_CACTVS_TAUTO_COUNT>
-1

> <PUBCHEM_COORDINATE_TYPE>
1
5
255

> <PUBCHEM_BONDANNOTATIONS>
15  21  8
21  27  8
22  24  8
22  32  8
24  33  8
32  35  8
33  36  8
35  36  8
8  15  8
8  20  8
9  20  8
9  27  8

$$$$
