11497924
  -OEChem-09292322492D

 72 77  0     1  0  0  0  0  0999 V2000
    6.0723    2.0291    0.0000 S   0  0  0  0  0  0  0  0  0  0  0  0
    2.3660   -7.8544    0.0000 F   0  0  0  0  0  0  0  0  0  0  0  0
    2.0000   -6.4884    0.0000 F   0  0  0  0  0  0  0  0  0  0  0  0
    3.7320   -7.4884    0.0000 F   0  0  0  0  0  0  0  0  0  0  0  0
    4.3548   -6.0193    0.0000 O   0  0  0  0  0  0  0  0  0  0  0  0
    6.0723   -1.4350    0.0000 N   0  0  3  0  0  0  0  0  0  0  0  0
    2.9609   -5.2146    0.0000 N   0  0  0  0  0  0  0  0  0  0  0  0
    6.1655    3.8087    0.0000 N   0  0  0  0  0  0  0  0  0  0  0  0
    7.5668    2.9997    0.0000 N   0  0  0  0  0  0  0  0  0  0  0  0
    7.7747    3.9778    0.0000 N   0  0  0  0  0  0  0  0  0  0  0  0
    8.3418    7.6798    0.0000 N   0  0  0  0  0  0  0  0  0  0  0  0
    6.5723   -0.5690    0.0000 C   0  0  3  0  0  0  0  0  0  0  0  0
    6.6258   -2.2446    0.0000 C   0  0  0  0  0  0  0  0  0  0  0  0
    5.0943   -1.3604    0.0000 C   0  0  0  0  0  0  0  0  0  0  0  0
    6.3405   -3.1830    0.0000 C   0  0  0  0  0  0  0  0  0  0  0  0
    4.4243   -2.0767    0.0000 C   0  0  0  0  0  0  0  0  0  0  0  0
    5.4300   -3.5475    0.0000 C   0  0  0  0  0  0  0  0  0  0  0  0
    4.5640   -3.0475    0.0000 C   0  0  0  0  0  0  0  0  0  0  0  0
    6.0723    0.2970    0.0000 C   0  0  0  0  0  0  0  0  0  0  0  0
    5.4300   -4.5475    0.0000 C   0  0  0  0  0  0  0  0  0  0  0  0
    7.5723   -0.5690    0.0000 C   0  0  0  0  0  0  0  0  0  0  0  0
    3.6979   -3.5475    0.0000 C   0  0  0  0  0  0  0  0  0  0  0  0
    4.5640   -5.0475    0.0000 C   0  0  0  0  0  0  0  0  0  0  0  0
    6.5723    1.1631    0.0000 C   0  0  0  0  0  0  0  0  0  0  0  0
    3.6979   -4.5475    0.0000 C   0  0  0  0  0  0  0  0  0  0  0  0
    6.2960   -5.0475    0.0000 C   0  0  0  0  0  0  0  0  0  0  0  0
    3.3660   -6.1223    0.0000 C   0  0  0  0  0  0  0  0  0  0  0  0
    6.5723    2.8951    0.0000 C   0  0  0  0  0  0  0  0  0  0  0  0
    2.8660   -6.9884    0.0000 C   0  0  0  0  0  0  0  0  0  0  0  0
    6.9087    4.4778    0.0000 C   0  0  0  0  0  0  0  0  0  0  0  0
    6.8041    5.4723    0.0000 C   0  0  0  0  0  0  0  0  0  0  0  0
    5.1874    4.0166    0.0000 C   0  0  0  0  0  0  0  0  0  0  0  0
    7.6132    6.0601    0.0000 C   0  0  0  0  0  0  0  0  0  0  0  0
    5.8906    5.8791    0.0000 C   0  0  0  0  0  0  0  0  0  0  0  0
    7.5086    7.0546    0.0000 C   0  0  0  0  0  0  0  0  0  0  0  0
    8.5581    5.6218    0.0000 C   0  0  0  0  0  0  0  0  0  0  0  0
    5.7861    6.8736    0.0000 C   0  0  0  0  0  0  0  0  0  0  0  0
    6.5951    7.4614    0.0000 C   0  0  0  0  0  0  0  0  0  0  0  0
    9.4055    6.2276    0.0000 C   0  0  0  0  0  0  0  0  0  0  0  0
    9.2966    7.2635    0.0000 C   0  0  0  0  0  0  0  0  0  0  0  0
   10.1033    7.8544    0.0000 C   0  0  0  0  0  0  0  0  0  0  0  0
    6.8823   -1.1059    0.0000 H   0  0  0  0  0  0  0  0  0  0  0  0
    7.1638   -2.5529    0.0000 H   0  0  0  0  0  0  0  0  0  0  0  0
    7.0465   -1.7892    0.0000 H   0  0  0  0  0  0  0  0  0  0  0  0
    5.2784   -0.7683    0.0000 H   0  0  0  0  0  0  0  0  0  0  0  0
    4.5584   -1.0487    0.0000 H   0  0  0  0  0  0  0  0  0  0  0  0
    6.4365   -3.7955    0.0000 H   0  0  0  0  0  0  0  0  0  0  0  0
    6.9590   -3.2263    0.0000 H   0  0  0  0  0  0  0  0  0  0  0  0
    4.0776   -1.5627    0.0000 H   0  0  0  0  0  0  0  0  0  0  0  0
    3.8458   -2.2998    0.0000 H   0  0  0  0  0  0  0  0  0  0  0  0
    5.5973    0.6956    0.0000 H   0  0  0  0  0  0  0  0  0  0  0  0
    5.5973   -0.1015    0.0000 H   0  0  0  0  0  0  0  0  0  0  0  0
    7.5723   -1.1890    0.0000 H   0  0  0  0  0  0  0  0  0  0  0  0
    8.1923   -0.5690    0.0000 H   0  0  0  0  0  0  0  0  0  0  0  0
    7.5723    0.0510    0.0000 H   0  0  0  0  0  0  0  0  0  0  0  0
    3.1610   -3.2375    0.0000 H   0  0  0  0  0  0  0  0  0  0  0  0
    7.0472    0.7645    0.0000 H   0  0  0  0  0  0  0  0  0  0  0  0
    7.0472    1.5616    0.0000 H   0  0  0  0  0  0  0  0  0  0  0  0
    5.9860   -5.5844    0.0000 H   0  0  0  0  0  0  0  0  0  0  0  0
    6.8329   -5.3575    0.0000 H   0  0  0  0  0  0  0  0  0  0  0  0
    6.6060   -4.5105    0.0000 H   0  0  0  0  0  0  0  0  0  0  0  0
    5.3163    4.6230    0.0000 H   0  0  0  0  0  0  0  0  0  0  0  0
    4.5809    4.1455    0.0000 H   0  0  0  0  0  0  0  0  0  0  0  0
    5.0585    3.4101    0.0000 H   0  0  0  0  0  0  0  0  0  0  0  0
    5.3890    5.5146    0.0000 H   0  0  0  0  0  0  0  0  0  0  0  0
    8.6158    5.0045    0.0000 H   0  0  0  0  0  0  0  0  0  0  0  0
    5.2197    7.1258    0.0000 H   0  0  0  0  0  0  0  0  0  0  0  0
    6.5303    8.0780    0.0000 H   0  0  0  0  0  0  0  0  0  0  0  0
    9.9709    5.9732    0.0000 H   0  0  0  0  0  0  0  0  0  0  0  0
   10.4697    7.3542    0.0000 H   0  0  0  0  0  0  0  0  0  0  0  0
   10.6035    8.2207    0.0000 H   0  0  0  0  0  0  0  0  0  0  0  0
    9.7370    8.3546    0.0000 H   0  0  0  0  0  0  0  0  0  0  0  0
  1 24  1  0  0  0  0
  1 28  1  0  0  0  0
  2 29  1  0  0  0  0
  3 29  1  0  0  0  0
  4 29  1  0  0  0  0
  5 23  1  0  0  0  0
  5 27  1  0  0  0  0
  6 12  1  0  0  0  0
  6 13  1  0  0  0  0
  6 14  1  0  0  0  0
  7 25  1  0  0  0  0
  7 27  2  0  0  0  0
  8 28  1  0  0  0  0
  8 30  1  0  0  0  0
  8 32  1  0  0  0  0
  9 10  1  0  0  0  0
  9 28  2  0  0  0  0
 10 30  2  0  0  0  0
 11 35  1  0  0  0  0
 11 40  2  0  0  0  0
 12 19  1  0  0  0  0
 12 21  1  0  0  0  0
 12 42  1  0  0  0  0
 13 15  1  0  0  0  0
 13 43  1  0  0  0  0
 13 44  1  0  0  0  0
 14 16  1  0  0  0  0
 14 45  1  0  0  0  0
 14 46  1  0  0  0  0
 15 17  1  0  0  0  0
 15 47  1  0  0  0  0
 15 48  1  0  0  0  0
 16 18  1  0  0  0  0
 16 49  1  0  0  0  0
 16 50  1  0  0  0  0
 17 18  1  0  0  0  0
 17 20  2  0  0  0  0
 18 22  2  0  0  0  0
 19 24  1  0  0  0  0
 19 51  1  0  0  0  0
 19 52  1  0  0  0  0
 20 23  1  0  0  0  0
 20 26  1  0  0  0  0
 21 53  1  0  0  0  0
 21 54  1  0  0  0  0
 21 55  1  0  0  0  0
 22 25  1  0  0  0  0
 22 56  1  0  0  0  0
 23 25  2  0  0  0  0
 24 57  1  0  0  0  0
 24 58  1  0  0  0  0
 26 59  1  0  0  0  0
 26 60  1  0  0  0  0
 26 61  1  0  0  0  0
 27 29  1  0  0  0  0
 30 31  1  0  0  0  0
 31 33  2  0  0  0  0
 31 34  1  0  0  0  0
 32 62  1  0  0  0  0
 32 63  1  0  0  0  0
 32 64  1  0  0  0  0
 33 35  1  0  0  0  0
 33 36  1  0  0  0  0
 34 37  2  0  0  0  0
 34 65  1  0  0  0  0
 35 38  2  0  0  0  0
 36 39  2  0  0  0  0
 36 66  1  0  0  0  0
 37 38  1  0  0  0  0
 37 67  1  0  0  0  0
 38 68  1  0  0  0  0
 39 40  1  0  0  0  0
 39 69  1  0  0  0  0
 40 41  1  0  0  0  0
 41 70  1  0  0  0  0
 41 71  1  0  0  0  0
 41 72  1  0  0  0  0
M  END
> <PUBCHEM_COMPOUND_CID>
11497924

> <PUBCHEM_COMPOUND_CANONICALIZED>
1

> <PUBCHEM_CACTVS_COMPLEXITY>
886

> <PUBCHEM_CACTVS_HBOND_ACCEPTOR>
10

> <PUBCHEM_CACTVS_HBOND_DONOR>
0

> <PUBCHEM_CACTVS_ROTATABLE_BOND>
6

> <PUBCHEM_CACTVS_SUBSKEYS>
AAADceB7oYBAAAAAAAAAAAAAAAAAAWLAAAA8YIAABYAAAFix/gAAHwQIAAAADCzF3xSz1vcMFEiqA6dydASS2CtvYrAd2CG9bNiOLvLkvbuPOSjkzBPY6YeY2fKOqAADQAAaEABQAAaAADQgAAAAAAAAAA==

> <PUBCHEM_IUPAC_OPENEYE_NAME>
10-methyl-7-[1-methyl-3-[[4-methyl-5-(2-methyl-5-quinolyl)-1,2,4-triazol-3-yl]sulfanyl]propyl]-2-(trifluoromethyl)-5,6,8,9-tetrahydrooxazolo[4,5-h][3]benzazepine

> <PUBCHEM_IUPAC_CAS_NAME>
10-methyl-7-[4-[[4-methyl-5-(2-methyl-5-quinolinyl)-1,2,4-triazol-3-yl]thio]butan-2-yl]-2-(trifluoromethyl)-5,6,8,9-tetrahydrooxazolo[4,5-h][3]benzazepine

> <PUBCHEM_IUPAC_NAME_MARKUP>
10-methyl-7-[4-[[4-methyl-5-(2-methylquinolin-5-yl)-1,2,4-triazol-3-yl]sulfanyl]butan-2-yl]-2-(trifluoromethyl)-5,6,8,9-tetrahydro-[1,3]oxazolo[4,5-h][3]benzazepine

> <PUBCHEM_IUPAC_NAME>
10-methyl-7-[4-[[4-methyl-5-(2-methylquinolin-5-yl)-1,2,4-triazol-3-yl]sulfanyl]butan-2-yl]-2-(trifluoromethyl)-5,6,8,9-tetrahydro-[1,3]oxazolo[4,5-h][3]benzazepine

> <PUBCHEM_IUPAC_SYSTEMATIC_NAME>
10-methyl-7-[4-[[4-methyl-5-(2-methylquinolin-5-yl)-1,2,4-triazol-3-yl]sulfanyl]butan-2-yl]-2-(trifluoromethyl)-5,6,8,9-tetrahydro-[1,3]oxazolo[4,5-h][3]benzazepine

> <PUBCHEM_IUPAC_TRADITIONAL_NAME>
10-methyl-7-[1-methyl-3-[[4-methyl-5-(2-methyl-5-quinolyl)-1,2,4-triazol-3-yl]thio]propyl]-2-(trifluoromethyl)-5,6,8,9-tetrahydrooxazolo[4,5-h][3]benzazepine

> <PUBCHEM_IUPAC_INCHI>
InChI=1S/C30H31F3N6OS/c1-17-8-9-22-23(6-5-7-24(22)34-17)27-36-37-29(38(27)4)41-15-12-18(2)39-13-10-20-16-25-26(19(3)21(20)11-14-39)40-28(35-25)30(31,32)33/h5-9,16,18H,10-15H2,1-4H3

> <PUBCHEM_IUPAC_INCHIKEY>
ILAPINSYTQOSTH-UHFFFAOYSA-N

> <PUBCHEM_XLOGP3_AA>
6.5

> <PUBCHEM_EXACT_MASS>
580.22321529

> <PUBCHEM_MOLECULAR_FORMULA>
C30H31F3N6OS

> <PUBCHEM_MOLECULAR_WEIGHT>
580.7

> <PUBCHEM_OPENEYE_CAN_SMILES>
CC1=NC2=CC=CC(=C2C=C1)C3=NN=C(N3C)SCCC(C)N4CCC5=CC6=C(C(=C5CC4)C)OC(=N6)C(F)(F)F

> <PUBCHEM_OPENEYE_ISO_SMILES>
CC1=NC2=CC=CC(=C2C=C1)C3=NN=C(N3C)SCCC(C)N4CCC5=CC6=C(C(=C5CC4)C)OC(=N6)C(F)(F)F

> <PUBCHEM_CACTVS_TPSA>
98.2

> <PUBCHEM_MONOISOTOPIC_WEIGHT>
580.22321529

> <PUBCHEM_TOTAL_CHARGE>
0

> <PUBCHEM_HEAVY_ATOM_COUNT>
41

> <PUBCHEM_ATOM_DEF_STEREO_COUNT>
0

> <PUBCHEM_ATOM_UDEF_STEREO_COUNT>
1

> <PUBCHEM_BOND_DEF_STEREO_COUNT>
0

> <PUBCHEM_BOND_UDEF_STEREO_COUNT>
0

> <PUBCHEM_ISOTOPIC_ATOM_COUNT>
0

> <PUBCHEM_COMPONENT_COUNT>
1

> <PUBCHEM_CACTVS_TAUTO_COUNT>
-1

> <PUBCHEM_COORDINATE_TYPE>
1
5
255

> <PUBCHEM_BONDANNOTATIONS>
10  30  8
11  35  8
11  40  8
12  21  3
17  18  8
17  20  8
18  22  8
20  23  8
22  25  8
23  25  8
31  33  8
31  34  8
33  35  8
33  36  8
34  37  8
35  38  8
36  39  8
37  38  8
39  40  8
5  23  8
5  27  8
7  25  8
7  27  8
8  28  8
8  30  8
9  10  8
9  28  8

$$$$
