164619290
  -OEChem-09292322432D

 62 66  0     0  0  0  0  0  0999 V2000
    4.9718   -4.7241    0.0000 S   0  0  0  0  0  0  0  0  0  0  0  0
    5.1814   -5.7019    0.0000 O   0  0  0  0  0  0  0  0  0  0  0  0
    5.9665   -4.8269    0.0000 O   0  0  0  0  0  0  0  0  0  0  0  0
    3.9609   -2.3517    0.0000 O   0  0  0  0  0  0  0  0  0  0  0  0
    7.6730    0.7646    0.0000 N   0  0  0  0  0  0  0  0  0  0  0  0
    7.6730    2.7646    0.0000 N   0  0  0  0  0  0  0  0  0  0  0  0
    5.0749   -3.7354    0.0000 N   0  0  0  0  0  0  0  0  0  0  0  0
    8.5390    1.2646    0.0000 C   0  0  0  0  0  0  0  0  0  0  0  0
    6.8069    1.2646    0.0000 C   0  0  0  0  0  0  0  0  0  0  0  0
    7.6730   -0.2354    0.0000 C   0  0  0  0  0  0  0  0  0  0  0  0
    8.5390    2.2646    0.0000 C   0  0  0  0  0  0  0  0  0  0  0  0
    6.8069    2.2646    0.0000 C   0  0  0  0  0  0  0  0  0  0  0  0
    6.8069   -0.7354    0.0000 C   0  0  0  0  0  0  0  0  0  0  0  0
    6.8069   -1.7354    0.0000 C   0  0  0  0  0  0  0  0  0  0  0  0
    5.9409   -2.2354    0.0000 C   0  0  0  0  0  0  0  0  0  0  0  0
    7.6730    3.7646    0.0000 C   0  0  0  0  0  0  0  0  0  0  0  0
    5.9409   -3.2354    0.0000 C   0  0  0  0  0  0  0  0  0  0  0  0
    8.5390    4.2646    0.0000 C   0  0  0  0  0  0  0  0  0  0  0  0
    4.0000   -4.9333    0.0000 C   0  0  0  0  0  0  0  0  0  0  0  0
    4.1671   -3.3302    0.0000 C   0  0  0  0  0  0  0  0  0  0  0  0
    3.5000   -4.0673    0.0000 C   0  0  0  0  0  0  0  0  0  0  0  0
    6.8069    4.2646    0.0000 C   0  0  0  0  0  0  0  0  0  0  0  0
    8.5390    5.2646    0.0000 C   0  0  0  0  0  0  0  0  0  0  0  0
    6.8069    5.2646    0.0000 C   0  0  0  0  0  0  0  0  0  0  0  0
    9.4329    3.7300    0.0000 C   0  0  0  0  0  0  0  0  0  0  0  0
    3.5000   -5.7993    0.0000 C   0  0  0  0  0  0  0  0  0  0  0  0
    7.6730    5.7646    0.0000 C   0  0  0  0  0  0  0  0  0  0  0  0
    2.5000   -4.0673    0.0000 C   0  0  0  0  0  0  0  0  0  0  0  0
    9.4329    5.7993    0.0000 C   0  0  0  0  0  0  0  0  0  0  0  0
    2.5000   -5.7993    0.0000 C   0  0  0  0  0  0  0  0  0  0  0  0
    2.0000   -4.9333    0.0000 C   0  0  0  0  0  0  0  0  0  0  0  0
   10.3390    4.2438    0.0000 C   0  0  0  0  0  0  0  0  0  0  0  0
   10.3390    5.2855    0.0000 C   0  0  0  0  0  0  0  0  0  0  0  0
    8.7510    0.6820    0.0000 H   0  0  0  0  0  0  0  0  0  0  0  0
    9.1496    1.3723    0.0000 H   0  0  0  0  0  0  0  0  0  0  0  0
    6.1963    1.3723    0.0000 H   0  0  0  0  0  0  0  0  0  0  0  0
    6.5949    0.6820    0.0000 H   0  0  0  0  0  0  0  0  0  0  0  0
    7.8850   -0.8180    0.0000 H   0  0  0  0  0  0  0  0  0  0  0  0
    8.2835   -0.1277    0.0000 H   0  0  0  0  0  0  0  0  0  0  0  0
    9.1496    2.1570    0.0000 H   0  0  0  0  0  0  0  0  0  0  0  0
    8.7510    2.8472    0.0000 H   0  0  0  0  0  0  0  0  0  0  0  0
    6.5949    2.8472    0.0000 H   0  0  0  0  0  0  0  0  0  0  0  0
    6.1963    2.1570    0.0000 H   0  0  0  0  0  0  0  0  0  0  0  0
    6.5949   -0.1527    0.0000 H   0  0  0  0  0  0  0  0  0  0  0  0
    6.1963   -0.8430    0.0000 H   0  0  0  0  0  0  0  0  0  0  0  0
    7.0190   -2.3180    0.0000 H   0  0  0  0  0  0  0  0  0  0  0  0
    7.4175   -1.6277    0.0000 H   0  0  0  0  0  0  0  0  0  0  0  0
    5.7288   -1.6528    0.0000 H   0  0  0  0  0  0  0  0  0  0  0  0
    5.3303   -2.3430    0.0000 H   0  0  0  0  0  0  0  0  0  0  0  0
    6.1530   -3.8180    0.0000 H   0  0  0  0  0  0  0  0  0  0  0  0
    6.5515   -3.1277    0.0000 H   0  0  0  0  0  0  0  0  0  0  0  0
    6.2700    3.9546    0.0000 H   0  0  0  0  0  0  0  0  0  0  0  0
    9.4258    3.1100    0.0000 H   0  0  0  0  0  0  0  0  0  0  0  0
    6.2700    5.5746    0.0000 H   0  0  0  0  0  0  0  0  0  0  0  0
    3.8100   -6.3362    0.0000 H   0  0  0  0  0  0  0  0  0  0  0  0
    7.6730    6.3846    0.0000 H   0  0  0  0  0  0  0  0  0  0  0  0
    2.1900   -3.5303    0.0000 H   0  0  0  0  0  0  0  0  0  0  0  0
    9.4258    6.4193    0.0000 H   0  0  0  0  0  0  0  0  0  0  0  0
    2.1900   -6.3362    0.0000 H   0  0  0  0  0  0  0  0  0  0  0  0
    1.3800   -4.9333    0.0000 H   0  0  0  0  0  0  0  0  0  0  0  0
   10.8747    3.9318    0.0000 H   0  0  0  0  0  0  0  0  0  0  0  0
   10.8747    5.5975    0.0000 H   0  0  0  0  0  0  0  0  0  0  0  0
  1  2  2  0  0  0  0
  1  3  2  0  0  0  0
  1  7  1  0  0  0  0
  1 19  1  0  0  0  0
  4 20  2  0  0  0  0
  5  8  1  0  0  0  0
  5  9  1  0  0  0  0
  5 10  1  0  0  0  0
  6 11  1  0  0  0  0
  6 12  1  0  0  0  0
  6 16  1  0  0  0  0
  7 17  1  0  0  0  0
  7 20  1  0  0  0  0
  8 11  1  0  0  0  0
  8 34  1  0  0  0  0
  8 35  1  0  0  0  0
  9 12  1  0  0  0  0
  9 36  1  0  0  0  0
  9 37  1  0  0  0  0
 10 13  1  0  0  0  0
 10 38  1  0  0  0  0
 10 39  1  0  0  0  0
 11 40  1  0  0  0  0
 11 41  1  0  0  0  0
 12 42  1  0  0  0  0
 12 43  1  0  0  0  0
 13 14  1  0  0  0  0
 13 44  1  0  0  0  0
 13 45  1  0  0  0  0
 14 15  1  0  0  0  0
 14 46  1  0  0  0  0
 14 47  1  0  0  0  0
 15 17  1  0  0  0  0
 15 48  1  0  0  0  0
 15 49  1  0  0  0  0
 16 18  1  0  0  0  0
 16 22  2  0  0  0  0
 17 50  1  0  0  0  0
 17 51  1  0  0  0  0
 18 23  1  0  0  0  0
 18 25  2  0  0  0  0
 19 21  1  0  0  0  0
 19 26  2  0  0  0  0
 20 21  1  0  0  0  0
 21 28  2  0  0  0  0
 22 24  1  0  0  0  0
 22 52  1  0  0  0  0
 23 27  1  0  0  0  0
 23 29  2  0  0  0  0
 24 27  2  0  0  0  0
 24 54  1  0  0  0  0
 25 32  1  0  0  0  0
 25 53  1  0  0  0  0
 26 30  1  0  0  0  0
 26 55  1  0  0  0  0
 27 56  1  0  0  0  0
 28 31  1  0  0  0  0
 28 57  1  0  0  0  0
 29 33  1  0  0  0  0
 29 58  1  0  0  0  0
 30 31  2  0  0  0  0
 30 59  1  0  0  0  0
 31 60  1  0  0  0  0
 32 33  2  0  0  0  0
 32 61  1  0  0  0  0
 33 62  1  0  0  0  0
M  END
> <PUBCHEM_COMPOUND_CID>
164619290

> <PUBCHEM_COMPOUND_CANONICALIZED>
1

> <PUBCHEM_CACTVS_COMPLEXITY>
774

> <PUBCHEM_CACTVS_HBOND_ACCEPTOR>
5

> <PUBCHEM_CACTVS_HBOND_DONOR>
0

> <PUBCHEM_CACTVS_ROTATABLE_BOND>
7

> <PUBCHEM_CACTVS_SUBSKEYS>
AAADceB7MABAAAAAAAAAAAAAAAAAAWAAAAA8YMEAAAAAAFjBVAAAHgQAQAAADAjB2AQwwcMAAAKIAiVSUHDCABAlAgAIiBkIZMgIYDLAlZGUIQhghgDIyYcYiICOgAAAQAAWAAAAAACAACwAAAAAAAAAAA==

> <PUBCHEM_IUPAC_OPENEYE_NAME>
2-[5-[4-(1-naphthyl)piperazin-1-yl]pentyl]-1,1-dioxo-1,2-benzothiazol-3-one

> <PUBCHEM_IUPAC_CAS_NAME>
2-[5-[4-(1-naphthalenyl)-1-piperazinyl]pentyl]-1,1-dioxo-1,2-benzothiazol-3-one

> <PUBCHEM_IUPAC_NAME_MARKUP>
2-[5-(4-naphthalen-1-ylpiperazin-1-yl)pentyl]-1,1-dioxo-1,2-benzothiazol-3-one

> <PUBCHEM_IUPAC_NAME>
2-[5-(4-naphthalen-1-ylpiperazin-1-yl)pentyl]-1,1-dioxo-1,2-benzothiazol-3-one

> <PUBCHEM_IUPAC_SYSTEMATIC_NAME>
2-[5-(4-naphthalen-1-ylpiperazin-1-yl)pentyl]-1,1-bis(oxidanylidene)-1,2-benzothiazol-3-one

> <PUBCHEM_IUPAC_TRADITIONAL_NAME>
1,1-diketo-2-[5-[4-(1-naphthyl)piperazino]pentyl]-1,2-benzothiazol-3-one

> <PUBCHEM_IUPAC_INCHI>
InChI=1S/C26H29N3O3S/c30-26-23-12-4-5-14-25(23)33(31,32)29(26)16-7-1-6-15-27-17-19-28(20-18-27)24-13-8-10-21-9-2-3-11-22(21)24/h2-5,8-14H,1,6-7,15-20H2

> <PUBCHEM_IUPAC_INCHIKEY>
BOADXZOXJDNMTH-UHFFFAOYSA-N

> <PUBCHEM_XLOGP3_AA>
4.5

> <PUBCHEM_EXACT_MASS>
463.19296297

> <PUBCHEM_MOLECULAR_FORMULA>
C26H29N3O3S

> <PUBCHEM_MOLECULAR_WEIGHT>
463.6

> <PUBCHEM_OPENEYE_CAN_SMILES>
C1CN(CCN1CCCCCN2C(=O)C3=CC=CC=C3S2(=O)=O)C4=CC=CC5=CC=CC=C54

> <PUBCHEM_OPENEYE_ISO_SMILES>
C1CN(CCN1CCCCCN2C(=O)C3=CC=CC=C3S2(=O)=O)C4=CC=CC5=CC=CC=C54

> <PUBCHEM_CACTVS_TPSA>
69.3

> <PUBCHEM_MONOISOTOPIC_WEIGHT>
463.19296297

> <PUBCHEM_TOTAL_CHARGE>
0

> <PUBCHEM_HEAVY_ATOM_COUNT>
33

> <PUBCHEM_ATOM_DEF_STEREO_COUNT>
0

> <PUBCHEM_ATOM_UDEF_STEREO_COUNT>
0

> <PUBCHEM_BOND_DEF_STEREO_COUNT>
0

> <PUBCHEM_BOND_UDEF_STEREO_COUNT>
0

> <PUBCHEM_ISOTOPIC_ATOM_COUNT>
0

> <PUBCHEM_COMPONENT_COUNT>
1

> <PUBCHEM_CACTVS_TAUTO_COUNT>
-1

> <PUBCHEM_COORDINATE_TYPE>
1
5
255

> <PUBCHEM_BONDANNOTATIONS>
16  18  8
16  22  8
18  23  8
18  25  8
19  21  8
19  26  8
21  28  8
22  24  8
23  27  8
23  29  8
24  27  8
25  32  8
26  30  8
28  31  8
29  33  8
30  31  8
32  33  8

$$$$
