10948527
  -OEChem-09292322032D

 50 54  0     1  0  0  0  0  0999 V2000
    8.3536   -1.9236    0.0000 O   0  0  0  0  0  0  0  0  0  0  0  0
    2.1030   -2.1048    0.0000 O   0  0  0  0  0  0  0  0  0  0  0  0
    2.9078   -3.4986    0.0000 O   0  0  0  0  0  0  0  0  0  0  0  0
    8.6627    0.6455    0.0000 N   0  0  3  0  0  0  0  0  0  0  0  0
    6.0749   -0.1635    0.0000 N   0  0  0  0  0  0  0  0  0  0  0  0
    9.6137   -0.6635    0.0000 N   0  0  0  0  0  0  0  0  0  0  0  0
    8.0749   -0.1635    0.0000 C   0  0  0  0  0  0  0  0  0  0  0  0
    7.5749   -1.0296    0.0000 C   0  0  0  0  0  0  0  0  0  0  0  0
    7.5749    0.7025    0.0000 C   0  0  0  0  0  0  0  0  0  0  0  0
    6.5749   -1.0296    0.0000 C   0  0  0  0  0  0  0  0  0  0  0  0
    6.5749    0.7025    0.0000 C   0  0  0  0  0  0  0  0  0  0  0  0
    8.6627   -0.9726    0.0000 C   0  0  0  0  0  0  0  0  0  0  0  0
    9.6137    0.3365    0.0000 C   0  0  0  0  0  0  0  0  0  0  0  0
    5.0749   -0.1635    0.0000 C   0  0  0  0  0  0  0  0  0  0  0  0
    8.3536    1.5965    0.0000 C   0  0  0  0  0  0  0  0  0  0  0  0
    4.5749   -1.0296    0.0000 C   0  0  0  0  0  0  0  0  0  0  0  0
    9.0228    2.3397    0.0000 C   0  0  0  0  0  0  0  0  0  0  0  0
    7.3755    1.8044    0.0000 C   0  0  0  0  0  0  0  0  0  0  0  0
    3.5749   -1.0296    0.0000 C   0  0  0  0  0  0  0  0  0  0  0  0
    5.0749   -1.8956    0.0000 C   0  0  0  0  0  0  0  0  0  0  0  0
    8.7137    3.2907    0.0000 C   0  0  0  0  0  0  0  0  0  0  0  0
    7.0665    2.7555    0.0000 C   0  0  0  0  0  0  0  0  0  0  0  0
    7.7356    3.4986    0.0000 C   0  0  0  0  0  0  0  0  0  0  0  0
    3.0749   -1.8956    0.0000 C   0  0  0  0  0  0  0  0  0  0  0  0
    4.5749   -2.7616    0.0000 C   0  0  0  0  0  0  0  0  0  0  0  0
    3.5749   -2.7616    0.0000 C   0  0  0  0  0  0  0  0  0  0  0  0
    2.0000   -3.0935    0.0000 C   0  0  0  0  0  0  0  0  0  0  0  0
    7.4672   -1.6402    0.0000 H   0  0  0  0  0  0  0  0  0  0  0  0
    8.1575   -1.2416    0.0000 H   0  0  0  0  0  0  0  0  0  0  0  0
    8.1575    0.9145    0.0000 H   0  0  0  0  0  0  0  0  0  0  0  0
    7.4672    1.3131    0.0000 H   0  0  0  0  0  0  0  0  0  0  0  0
    5.9923   -1.2416    0.0000 H   0  0  0  0  0  0  0  0  0  0  0  0
    6.6825   -1.6402    0.0000 H   0  0  0  0  0  0  0  0  0  0  0  0
    6.6825    1.3131    0.0000 H   0  0  0  0  0  0  0  0  0  0  0  0
    5.9923    0.9145    0.0000 H   0  0  0  0  0  0  0  0  0  0  0  0
   10.2303    0.2716    0.0000 H   0  0  0  0  0  0  0  0  0  0  0  0
    9.7426    0.9429    0.0000 H   0  0  0  0  0  0  0  0  0  0  0  0
   10.1153   -1.0280    0.0000 H   0  0  0  0  0  0  0  0  0  0  0  0
    5.1825    0.4470    0.0000 H   0  0  0  0  0  0  0  0  0  0  0  0
    4.4923    0.0485    0.0000 H   0  0  0  0  0  0  0  0  0  0  0  0
    9.6292    2.2108    0.0000 H   0  0  0  0  0  0  0  0  0  0  0  0
    6.9606    1.3437    0.0000 H   0  0  0  0  0  0  0  0  0  0  0  0
    3.2649   -0.4926    0.0000 H   0  0  0  0  0  0  0  0  0  0  0  0
    5.6949   -1.8956    0.0000 H   0  0  0  0  0  0  0  0  0  0  0  0
    9.1286    3.7515    0.0000 H   0  0  0  0  0  0  0  0  0  0  0  0
    6.4600    2.8844    0.0000 H   0  0  0  0  0  0  0  0  0  0  0  0
    7.5440    4.0883    0.0000 H   0  0  0  0  0  0  0  0  0  0  0  0
    4.8849   -3.2986    0.0000 H   0  0  0  0  0  0  0  0  0  0  0  0
    1.3935   -2.9648    0.0000 H   0  0  0  0  0  0  0  0  0  0  0  0
    1.8082   -3.6831    0.0000 H   0  0  0  0  0  0  0  0  0  0  0  0
  1 12  2  0  0  0  0
  2 24  1  0  0  0  0
  2 27  1  0  0  0  0
  3 26  1  0  0  0  0
  3 27  1  0  0  0  0
  4  7  1  0  0  0  0
  4 13  1  0  0  0  0
  4 15  1  0  0  0  0
  5 10  1  0  0  0  0
  5 11  1  0  0  0  0
  5 14  1  0  0  0  0
  6 12  1  0  0  0  0
  6 13  1  0  0  0  0
  6 38  1  0  0  0  0
  7  8  1  0  0  0  0
  7  9  1  0  0  0  0
  7 12  1  0  0  0  0
  8 10  1  0  0  0  0
  8 28  1  0  0  0  0
  8 29  1  0  0  0  0
  9 11  1  0  0  0  0
  9 30  1  0  0  0  0
  9 31  1  0  0  0  0
 10 32  1  0  0  0  0
 10 33  1  0  0  0  0
 11 34  1  0  0  0  0
 11 35  1  0  0  0  0
 13 36  1  0  0  0  0
 13 37  1  0  0  0  0
 14 16  1  0  0  0  0
 14 39  1  0  0  0  0
 14 40  1  0  0  0  0
 15 17  2  0  0  0  0
 15 18  1  0  0  0  0
 16 19  2  0  0  0  0
 16 20  1  0  0  0  0
 17 21  1  0  0  0  0
 17 41  1  0  0  0  0
 18 22  2  0  0  0  0
 18 42  1  0  0  0  0
 19 24  1  0  0  0  0
 19 43  1  0  0  0  0
 20 25  2  0  0  0  0
 20 44  1  0  0  0  0
 21 23  2  0  0  0  0
 21 45  1  0  0  0  0
 22 23  1  0  0  0  0
 22 46  1  0  0  0  0
 23 47  1  0  0  0  0
 24 26  2  0  0  0  0
 25 26  1  0  0  0  0
 25 48  1  0  0  0  0
 27 49  1  0  0  0  0
 27 50  1  0  0  0  0
M  END
> <PUBCHEM_COMPOUND_CID>
10948527

> <PUBCHEM_COMPOUND_CANONICALIZED>
1

> <PUBCHEM_CACTVS_COMPLEXITY>
543

> <PUBCHEM_CACTVS_HBOND_ACCEPTOR>
5

> <PUBCHEM_CACTVS_HBOND_DONOR>
1

> <PUBCHEM_CACTVS_ROTATABLE_BOND>
3

> <PUBCHEM_CACTVS_SUBSKEYS>
AAADceB7MAAAAAAAAAAAAAAAAAAAAWJAAAA8YIAAAAAAAEgBQAAAHgAQAAAADIzBmAcxzoPABACIAiVSUACCCAAhIgAIiIGO7IidZjLE8bu0MCpswxPO6Ce00BIOIAABAAAAQABAAAIAAACAAAAAAAAAAA==

> <PUBCHEM_IUPAC_OPENEYE_NAME>
8-(1,3-benzodioxol-5-ylmethyl)-1-phenyl-1,3,8-triazaspiro[4.5]decan-4-one

> <PUBCHEM_IUPAC_CAS_NAME>
8-(1,3-benzodioxol-5-ylmethyl)-1-phenyl-1,3,8-triazaspiro[4.5]decan-4-one

> <PUBCHEM_IUPAC_NAME_MARKUP>
8-(1,3-benzodioxol-5-ylmethyl)-1-phenyl-1,3,8-triazaspiro[4.5]decan-4-one

> <PUBCHEM_IUPAC_NAME>
8-(1,3-benzodioxol-5-ylmethyl)-1-phenyl-1,3,8-triazaspiro[4.5]decan-4-one

> <PUBCHEM_IUPAC_SYSTEMATIC_NAME>
8-(1,3-benzodioxol-5-ylmethyl)-1-phenyl-1,3,8-triazaspiro[4.5]decan-4-one

> <PUBCHEM_IUPAC_TRADITIONAL_NAME>
1-phenyl-8-piperonyl-1,3,8-triazaspiro[4.5]decan-4-one

> <PUBCHEM_IUPAC_INCHI>
InChI=1S/C21H23N3O3/c25-20-21(24(14-22-20)17-4-2-1-3-5-17)8-10-23(11-9-21)13-16-6-7-18-19(12-16)27-15-26-18/h1-7,12H,8-11,13-15H2,(H,22,25)

> <PUBCHEM_IUPAC_INCHIKEY>
HWOUIMXZGKRMNK-UHFFFAOYSA-N

> <PUBCHEM_XLOGP3_AA>
3

> <PUBCHEM_EXACT_MASS>
365.17394160

> <PUBCHEM_MOLECULAR_FORMULA>
C21H23N3O3

> <PUBCHEM_MOLECULAR_WEIGHT>
365.4

> <PUBCHEM_OPENEYE_CAN_SMILES>
C1CN(CCC12C(=O)NCN2C3=CC=CC=C3)CC4=CC5=C(C=C4)OCO5

> <PUBCHEM_OPENEYE_ISO_SMILES>
C1CN(CCC12C(=O)NCN2C3=CC=CC=C3)CC4=CC5=C(C=C4)OCO5

> <PUBCHEM_CACTVS_TPSA>
54

> <PUBCHEM_MONOISOTOPIC_WEIGHT>
365.17394160

> <PUBCHEM_TOTAL_CHARGE>
0

> <PUBCHEM_HEAVY_ATOM_COUNT>
27

> <PUBCHEM_ATOM_DEF_STEREO_COUNT>
0

> <PUBCHEM_ATOM_UDEF_STEREO_COUNT>
0

> <PUBCHEM_BOND_DEF_STEREO_COUNT>
0

> <PUBCHEM_BOND_UDEF_STEREO_COUNT>
0

> <PUBCHEM_ISOTOPIC_ATOM_COUNT>
0

> <PUBCHEM_COMPONENT_COUNT>
1

> <PUBCHEM_CACTVS_TAUTO_COUNT>
-1

> <PUBCHEM_COORDINATE_TYPE>
1
5
255

> <PUBCHEM_BONDANNOTATIONS>
15  17  8
15  18  8
16  19  8
16  20  8
17  21  8
18  22  8
19  24  8
20  25  8
21  23  8
22  23  8
24  26  8
25  26  8

$$$$
