44340301
  -OEChem-09292322212D

 55 58  0     1  0  0  0  0  0999 V2000
   12.0114    1.6703    0.0000 S   0  0  0  0  0  0  0  0  0  0  0  0
    9.6603   -1.5658    0.0000 O   0  0  0  0  0  0  0  0  0  0  0  0
   12.8204    1.0825    0.0000 O   0  0  0  0  0  0  0  0  0  0  0  0
   11.2024    2.2581    0.0000 O   0  0  0  0  0  0  0  0  0  0  0  0
    5.5321   -0.0751    0.0000 N   0  0  3  0  0  0  0  0  0  0  0  0
    8.1777   -0.4818    0.0000 N   0  0  0  0  0  0  0  0  0  0  0  0
    5.5321    0.9249    0.0000 C   0  0  0  0  0  0  0  0  0  0  0  0
    4.6660   -0.5751    0.0000 C   0  0  0  0  0  0  0  0  0  0  0  0
    4.6660    1.4249    0.0000 C   0  0  0  0  0  0  0  0  0  0  0  0
    6.3981   -0.5751    0.0000 C   0  0  0  0  0  0  0  0  0  0  0  0
    3.8000   -0.0751    0.0000 C   0  0  0  0  0  0  0  0  0  0  0  0
    3.8000    0.9249    0.0000 C   0  0  0  0  0  0  0  0  0  0  0  0
    7.2641   -0.0751    0.0000 C   0  0  0  0  0  0  0  0  0  0  0  0
    2.9061   -0.6097    0.0000 C   0  0  0  0  0  0  0  0  0  0  0  0
    2.9061    1.4596    0.0000 C   0  0  0  0  0  0  0  0  0  0  0  0
    8.8468    0.2613    0.0000 C   0  0  0  0  0  0  0  0  0  0  0  0
    7.3686    0.9194    0.0000 C   0  0  0  0  0  0  0  0  0  0  0  0
    9.8413    0.1568    0.0000 C   0  0  0  0  0  0  0  0  0  0  0  0
    8.3468    1.1274    0.0000 C   0  0  0  0  0  0  0  0  0  0  0  0
    2.0000   -0.0959    0.0000 C   0  0  0  0  0  0  0  0  0  0  0  0
    2.0000    0.9457    0.0000 C   0  0  0  0  0  0  0  0  0  0  0  0
   11.4236    0.8613    0.0000 C   0  0  0  0  0  0  0  0  0  0  0  0
   10.4291    0.9658    0.0000 C   0  0  0  0  0  0  0  0  0  0  0  0
   10.2480   -0.7568    0.0000 C   0  0  0  0  0  0  0  0  0  0  0  0
   11.8304   -0.0523    0.0000 C   0  0  0  0  0  0  0  0  0  0  0  0
   12.5992    2.4793    0.0000 C   0  0  0  0  0  0  0  0  0  0  0  0
   11.2426   -0.8613    0.0000 C   0  0  0  0  0  0  0  0  0  0  0  0
   13.5937    2.3748    0.0000 C   0  0  0  0  0  0  0  0  0  0  0  0
   10.0670   -2.4793    0.0000 C   0  0  0  0  0  0  0  0  0  0  0  0
    6.1426    0.8173    0.0000 H   0  0  0  0  0  0  0  0  0  0  0  0
    5.7441    1.5075    0.0000 H   0  0  0  0  0  0  0  0  0  0  0  0
    4.2675   -1.0500    0.0000 H   0  0  0  0  0  0  0  0  0  0  0  0
    5.0646   -1.0500    0.0000 H   0  0  0  0  0  0  0  0  0  0  0  0
    5.0646    1.8999    0.0000 H   0  0  0  0  0  0  0  0  0  0  0  0
    4.2675    1.8999    0.0000 H   0  0  0  0  0  0  0  0  0  0  0  0
    5.9996   -1.0500    0.0000 H   0  0  0  0  0  0  0  0  0  0  0  0
    6.7966   -1.0500    0.0000 H   0  0  0  0  0  0  0  0  0  0  0  0
    2.9132   -1.2297    0.0000 H   0  0  0  0  0  0  0  0  0  0  0  0
    2.9132    2.0795    0.0000 H   0  0  0  0  0  0  0  0  0  0  0  0
    8.3066   -1.0883    0.0000 H   0  0  0  0  0  0  0  0  0  0  0  0
    6.9079    1.3343    0.0000 H   0  0  0  0  0  0  0  0  0  0  0  0
    8.5990    1.6937    0.0000 H   0  0  0  0  0  0  0  0  0  0  0  0
    1.4643   -0.4080    0.0000 H   0  0  0  0  0  0  0  0  0  0  0  0
    1.4643    1.2578    0.0000 H   0  0  0  0  0  0  0  0  0  0  0  0
   10.1769    1.5322    0.0000 H   0  0  0  0  0  0  0  0  0  0  0  0
   12.4470   -0.1171    0.0000 H   0  0  0  0  0  0  0  0  0  0  0  0
   12.7701    3.0753    0.0000 H   0  0  0  0  0  0  0  0  0  0  0  0
   12.0419    2.7511    0.0000 H   0  0  0  0  0  0  0  0  0  0  0  0
   11.4947   -1.4277    0.0000 H   0  0  0  0  0  0  0  0  0  0  0  0
   13.5289    1.7582    0.0000 H   0  0  0  0  0  0  0  0  0  0  0  0
   14.2103    2.3100    0.0000 H   0  0  0  0  0  0  0  0  0  0  0  0
   13.6585    2.9914    0.0000 H   0  0  0  0  0  0  0  0  0  0  0  0
    9.5006   -2.7315    0.0000 H   0  0  0  0  0  0  0  0  0  0  0  0
   10.3192   -3.0457    0.0000 H   0  0  0  0  0  0  0  0  0  0  0  0
   10.6334   -2.2271    0.0000 H   0  0  0  0  0  0  0  0  0  0  0  0
  1  3  2  0  0  0  0
  1  4  2  0  0  0  0
  1 22  1  0  0  0  0
  1 26  1  0  0  0  0
  2 24  1  0  0  0  0
  2 29  1  0  0  0  0
  5  7  1  0  0  0  0
  5  8  1  0  0  0  0
  5 10  1  0  0  0  0
  6 13  1  0  0  0  0
  6 16  1  0  0  0  0
  6 40  1  0  0  0  0
  7  9  1  0  0  0  0
  7 30  1  0  0  0  0
  7 31  1  0  0  0  0
  8 11  1  0  0  0  0
  8 32  1  0  0  0  0
  8 33  1  0  0  0  0
  9 12  1  0  0  0  0
  9 34  1  0  0  0  0
  9 35  1  0  0  0  0
 10 13  1  0  0  0  0
 10 36  1  0  0  0  0
 10 37  1  0  0  0  0
 11 12  1  0  0  0  0
 11 14  2  0  0  0  0
 12 15  2  0  0  0  0
 13 17  2  0  0  0  0
 14 20  1  0  0  0  0
 14 38  1  0  0  0  0
 15 21  1  0  0  0  0
 15 39  1  0  0  0  0
 16 18  1  0  0  0  0
 16 19  2  0  0  0  0
 17 19  1  0  0  0  0
 17 41  1  0  0  0  0
 18 23  1  0  0  0  0
 18 24  2  0  0  0  0
 19 42  1  0  0  0  0
 20 21  2  0  0  0  0
 20 43  1  0  0  0  0
 21 44  1  0  0  0  0
 22 23  2  0  0  0  0
 22 25  1  0  0  0  0
 23 45  1  0  0  0  0
 24 27  1  0  0  0  0
 25 27  2  0  0  0  0
 25 46  1  0  0  0  0
 26 28  1  0  0  0  0
 26 47  1  0  0  0  0
 26 48  1  0  0  0  0
 27 49  1  0  0  0  0
 28 50  1  0  0  0  0
 28 51  1  0  0  0  0
 28 52  1  0  0  0  0
 29 53  1  0  0  0  0
 29 54  1  0  0  0  0
 29 55  1  0  0  0  0
M  END
> <PUBCHEM_COMPOUND_CID>
44340301

> <PUBCHEM_COMPOUND_CANONICALIZED>
1

> <PUBCHEM_CACTVS_COMPLEXITY>
635

> <PUBCHEM_CACTVS_HBOND_ACCEPTOR>
4

> <PUBCHEM_CACTVS_HBOND_DONOR>
1

> <PUBCHEM_CACTVS_ROTATABLE_BOND>
6

> <PUBCHEM_CACTVS_SUBSKEYS>
AAADceB7MABAAAAAAAAAAAAAAAAAAWAAAAA8YIAAAAAAAACx0AAAHgQQAAAADAzF3gayh5PJlAqgAyRiRHDCiCAhKjAImTg+bJgMZuLksZuUMChm0BHo6AeQwOAOgIAAgAAYAAABAAEAADAAAAAAAAAAAA==

> <PUBCHEM_IUPAC_OPENEYE_NAME>
2-[[5-(5-ethylsulfonyl-2-methoxy-phenyl)-1H-pyrrol-2-yl]methyl]-3,4-dihydro-1H-isoquinoline

> <PUBCHEM_IUPAC_CAS_NAME>
2-[[5-(5-ethylsulfonyl-2-methoxyphenyl)-1H-pyrrol-2-yl]methyl]-3,4-dihydro-1H-isoquinoline

> <PUBCHEM_IUPAC_NAME_MARKUP>
2-[[5-(5-ethylsulfonyl-2-methoxyphenyl)-1<I>H</I>-pyrrol-2-yl]methyl]-3,4-dihydro-1<I>H</I>-isoquinoline

> <PUBCHEM_IUPAC_NAME>
2-[[5-(5-ethylsulfonyl-2-methoxyphenyl)-1H-pyrrol-2-yl]methyl]-3,4-dihydro-1H-isoquinoline

> <PUBCHEM_IUPAC_SYSTEMATIC_NAME>
2-[[5-(5-ethylsulfonyl-2-methoxy-phenyl)-1H-pyrrol-2-yl]methyl]-3,4-dihydro-1H-isoquinoline

> <PUBCHEM_IUPAC_TRADITIONAL_NAME>
2-[[5-(5-esyl-2-methoxy-phenyl)-1H-pyrrol-2-yl]methyl]-3,4-dihydro-1H-isoquinoline

> <PUBCHEM_IUPAC_INCHI>
InChI=1S/C23H26N2O3S/c1-3-29(26,27)20-9-11-23(28-2)21(14-20)22-10-8-19(24-22)16-25-13-12-17-6-4-5-7-18(17)15-25/h4-11,14,24H,3,12-13,15-16H2,1-2H3

> <PUBCHEM_IUPAC_INCHIKEY>
SXSCQNHPXUWSQP-UHFFFAOYSA-N

> <PUBCHEM_XLOGP3_AA>
3.3

> <PUBCHEM_EXACT_MASS>
410.16641387

> <PUBCHEM_MOLECULAR_FORMULA>
C23H26N2O3S

> <PUBCHEM_MOLECULAR_WEIGHT>
410.5

> <PUBCHEM_OPENEYE_CAN_SMILES>
CCS(=O)(=O)C1=CC(=C(C=C1)OC)C2=CC=C(N2)CN3CCC4=CC=CC=C4C3

> <PUBCHEM_OPENEYE_ISO_SMILES>
CCS(=O)(=O)C1=CC(=C(C=C1)OC)C2=CC=C(N2)CN3CCC4=CC=CC=C4C3

> <PUBCHEM_CACTVS_TPSA>
70.8

> <PUBCHEM_MONOISOTOPIC_WEIGHT>
410.16641387

> <PUBCHEM_TOTAL_CHARGE>
0

> <PUBCHEM_HEAVY_ATOM_COUNT>
29

> <PUBCHEM_ATOM_DEF_STEREO_COUNT>
0

> <PUBCHEM_ATOM_UDEF_STEREO_COUNT>
0

> <PUBCHEM_BOND_DEF_STEREO_COUNT>
0

> <PUBCHEM_BOND_UDEF_STEREO_COUNT>
0

> <PUBCHEM_ISOTOPIC_ATOM_COUNT>
0

> <PUBCHEM_COMPONENT_COUNT>
1

> <PUBCHEM_CACTVS_TAUTO_COUNT>
-1

> <PUBCHEM_COORDINATE_TYPE>
1
5
255

> <PUBCHEM_BONDANNOTATIONS>
11  12  8
11  14  8
12  15  8
13  17  8
14  20  8
15  21  8
16  19  8
17  19  8
18  23  8
18  24  8
20  21  8
22  23  8
22  25  8
24  27  8
25  27  8
6  13  8
6  16  8

$$$$
