134154943
  -OEChem-09292322382D

 61 65  0     0  0  0  0  0  0999 V2000
    4.6783   -4.8832    0.0000 S   0  0  0  0  0  0  0  0  0  0  0  0
   11.7920    1.7656    0.0000 O   0  0  0  0  0  0  0  0  0  0  0  0
   12.3864    3.7678    0.0000 O   0  0  0  0  0  0  0  0  0  0  0  0
    5.6103   -0.4222    0.0000 N   0  0  0  0  0  0  0  0  0  0  0  0
    4.9889   -2.3232    0.0000 N   0  0  0  0  0  0  0  0  0  0  0  0
   10.1456    2.3037    0.0000 N   0  0  0  0  0  0  0  0  0  0  0  0
    5.2619   -4.0785    0.0000 N   0  0  0  0  0  0  0  0  0  0  0  0
    6.8994    0.7345    0.0000 C   0  0  0  0  0  0  0  0  0  0  0  0
    8.8564    1.1470    0.0000 C   0  0  0  0  0  0  0  0  0  0  0  0
    7.2101    1.6851    0.0000 C   0  0  0  0  0  0  0  0  0  0  0  0
    7.5673   -0.0098    0.0000 C   0  0  0  0  0  0  0  0  0  0  0  0
    8.1886    1.8913    0.0000 C   0  0  0  0  0  0  0  0  0  0  0  0
    8.5458    0.1965    0.0000 C   0  0  0  0  0  0  0  0  0  0  0  0
    5.9209    0.5283    0.0000 C   0  0  0  0  0  0  0  0  0  0  0  0
    9.8349    1.3532    0.0000 C   0  0  0  0  0  0  0  0  0  0  0  0
    6.2781   -1.1665    0.0000 C   0  0  0  0  0  0  0  0  0  0  0  0
    4.6318   -0.6284    0.0000 C   0  0  0  0  0  0  0  0  0  0  0  0
    5.9674   -2.1170    0.0000 C   0  0  0  0  0  0  0  0  0  0  0  0
    4.3211   -1.5789    0.0000 C   0  0  0  0  0  0  0  0  0  0  0  0
    4.6783   -3.2738    0.0000 C   0  0  0  0  0  0  0  0  0  0  0  0
   11.1241    2.5099    0.0000 C   0  0  0  0  0  0  0  0  0  0  0  0
    3.7320   -3.5785    0.0000 C   0  0  0  0  0  0  0  0  0  0  0  0
    3.7320   -4.5785    0.0000 C   0  0  0  0  0  0  0  0  0  0  0  0
   11.4348    3.4605    0.0000 C   0  0  0  0  0  0  0  0  0  0  0  0
    2.8660   -3.0785    0.0000 C   0  0  0  0  0  0  0  0  0  0  0  0
    2.8660   -5.0785    0.0000 C   0  0  0  0  0  0  0  0  0  0  0  0
    2.0000   -3.5785    0.0000 C   0  0  0  0  0  0  0  0  0  0  0  0
   10.8484    4.2705    0.0000 C   0  0  0  0  0  0  0  0  0  0  0  0
    2.0000   -4.5785    0.0000 C   0  0  0  0  0  0  0  0  0  0  0  0
   11.4376    5.0785    0.0000 C   0  0  0  0  0  0  0  0  0  0  0  0
   12.3881    4.7678    0.0000 C   0  0  0  0  0  0  0  0  0  0  0  0
    6.4854    1.1960    0.0000 H   0  0  0  0  0  0  0  0  0  0  0  0
    9.0490    1.7363    0.0000 H   0  0  0  0  0  0  0  0  0  0  0  0
    7.1895    2.3047    0.0000 H   0  0  0  0  0  0  0  0  0  0  0  0
    6.5963    1.7724    0.0000 H   0  0  0  0  0  0  0  0  0  0  0  0
    7.0409   -0.3374    0.0000 H   0  0  0  0  0  0  0  0  0  0  0  0
    7.7985   -0.5850    0.0000 H   0  0  0  0  0  0  0  0  0  0  0  0
    8.7150    2.2189    0.0000 H   0  0  0  0  0  0  0  0  0  0  0  0
    7.9573    2.4665    0.0000 H   0  0  0  0  0  0  0  0  0  0  0  0
    8.5663   -0.4232    0.0000 H   0  0  0  0  0  0  0  0  0  0  0  0
    9.1596    0.1091    0.0000 H   0  0  0  0  0  0  0  0  0  0  0  0
    5.9004    1.1480    0.0000 H   0  0  0  0  0  0  0  0  0  0  0  0
    5.3071    0.6157    0.0000 H   0  0  0  0  0  0  0  0  0  0  0  0
    9.8555    0.7335    0.0000 H   0  0  0  0  0  0  0  0  0  0  0  0
   10.4488    1.2658    0.0000 H   0  0  0  0  0  0  0  0  0  0  0  0
    6.8250   -1.4585    0.0000 H   0  0  0  0  0  0  0  0  0  0  0  0
    6.6607   -0.6786    0.0000 H   0  0  0  0  0  0  0  0  0  0  0  0
    4.6112   -0.0088    0.0000 H   0  0  0  0  0  0  0  0  0  0  0  0
    4.0179   -0.5411    0.0000 H   0  0  0  0  0  0  0  0  0  0  0  0
    5.9880   -2.7367    0.0000 H   0  0  0  0  0  0  0  0  0  0  0  0
    6.5812   -2.2044    0.0000 H   0  0  0  0  0  0  0  0  0  0  0  0
    3.7742   -1.2869    0.0000 H   0  0  0  0  0  0  0  0  0  0  0  0
    3.9385   -2.0668    0.0000 H   0  0  0  0  0  0  0  0  0  0  0  0
    9.7315    2.7652    0.0000 H   0  0  0  0  0  0  0  0  0  0  0  0
    2.8660   -2.4585    0.0000 H   0  0  0  0  0  0  0  0  0  0  0  0
    2.8660   -5.6985    0.0000 H   0  0  0  0  0  0  0  0  0  0  0  0
    1.4631   -3.2685    0.0000 H   0  0  0  0  0  0  0  0  0  0  0  0
    1.4631   -4.8885    0.0000 H   0  0  0  0  0  0  0  0  0  0  0  0
   10.2284    4.2716    0.0000 H   0  0  0  0  0  0  0  0  0  0  0  0
   11.2470    5.6685    0.0000 H   0  0  0  0  0  0  0  0  0  0  0  0
   12.8903    5.1314    0.0000 H   0  0  0  0  0  0  0  0  0  0  0  0
  1  7  1  0  0  0  0
  1 23  1  0  0  0  0
  2 21  2  0  0  0  0
  3 24  1  0  0  0  0
  3 31  1  0  0  0  0
  4 14  1  0  0  0  0
  4 16  1  0  0  0  0
  4 17  1  0  0  0  0
  5 18  1  0  0  0  0
  5 19  1  0  0  0  0
  5 20  1  0  0  0  0
  6 15  1  0  0  0  0
  6 21  1  0  0  0  0
  6 54  1  0  0  0  0
  7 20  2  0  0  0  0
  8 10  1  0  0  0  0
  8 11  1  0  0  0  0
  8 14  1  0  0  0  0
  8 32  1  0  0  0  0
  9 12  1  0  0  0  0
  9 13  1  0  0  0  0
  9 15  1  0  0  0  0
  9 33  1  0  0  0  0
 10 12  1  0  0  0  0
 10 34  1  0  0  0  0
 10 35  1  0  0  0  0
 11 13  1  0  0  0  0
 11 36  1  0  0  0  0
 11 37  1  0  0  0  0
 12 38  1  0  0  0  0
 12 39  1  0  0  0  0
 13 40  1  0  0  0  0
 13 41  1  0  0  0  0
 14 42  1  0  0  0  0
 14 43  1  0  0  0  0
 15 44  1  0  0  0  0
 15 45  1  0  0  0  0
 16 18  1  0  0  0  0
 16 46  1  0  0  0  0
 16 47  1  0  0  0  0
 17 19  1  0  0  0  0
 17 48  1  0  0  0  0
 17 49  1  0  0  0  0
 18 50  1  0  0  0  0
 18 51  1  0  0  0  0
 19 52  1  0  0  0  0
 19 53  1  0  0  0  0
 20 22  1  0  0  0  0
 21 24  1  0  0  0  0
 22 23  1  0  0  0  0
 22 25  2  0  0  0  0
 23 26  2  0  0  0  0
 24 28  2  0  0  0  0
 25 27  1  0  0  0  0
 25 55  1  0  0  0  0
 26 29  1  0  0  0  0
 26 56  1  0  0  0  0
 27 29  2  0  0  0  0
 27 57  1  0  0  0  0
 28 30  1  0  0  0  0
 28 59  1  0  0  0  0
 29 58  1  0  0  0  0
 30 31  2  0  0  0  0
 30 60  1  0  0  0  0
 31 61  1  0  0  0  0
M  END
> <PUBCHEM_COMPOUND_CID>
134154943

> <PUBCHEM_COMPOUND_CANONICALIZED>
1

> <PUBCHEM_CACTVS_COMPLEXITY>
592

> <PUBCHEM_CACTVS_HBOND_ACCEPTOR>
6

> <PUBCHEM_CACTVS_HBOND_DONOR>
1

> <PUBCHEM_CACTVS_ROTATABLE_BOND>
6

> <PUBCHEM_CACTVS_SUBSKEYS>
AAADceB7sABAAAAAAAAAAAAAAAAAAWJAAAA8YIAAAAAAAFgB/AAAHgQQQAAADQTh2gYxtdPABECsAqty8AKDCBAlIABJmLnuTNiOZrLEvb+XOSzk1hPY6YeYlwIOAAAAAAAEAACAAAAAAAgAAAAAAAAAAA==

> <PUBCHEM_IUPAC_OPENEYE_NAME>
N-[[4-[[4-(1,2-benzothiazol-3-yl)piperazin-1-yl]methyl]cyclohexyl]methyl]furan-2-carboxamide

> <PUBCHEM_IUPAC_CAS_NAME>
N-[[4-[[4-(1,2-benzothiazol-3-yl)-1-piperazinyl]methyl]cyclohexyl]methyl]-2-furancarboxamide

> <PUBCHEM_IUPAC_NAME_MARKUP>
<I>N</I>-[[4-[[4-(1,2-benzothiazol-3-yl)piperazin-1-yl]methyl]cyclohexyl]methyl]furan-2-carboxamide

> <PUBCHEM_IUPAC_NAME>
N-[[4-[[4-(1,2-benzothiazol-3-yl)piperazin-1-yl]methyl]cyclohexyl]methyl]furan-2-carboxamide

> <PUBCHEM_IUPAC_SYSTEMATIC_NAME>
N-[[4-[[4-(1,2-benzothiazol-3-yl)piperazin-1-yl]methyl]cyclohexyl]methyl]furan-2-carboxamide

> <PUBCHEM_IUPAC_TRADITIONAL_NAME>
N-[[4-[[4-(1,2-benzothiazol-3-yl)piperazino]methyl]cyclohexyl]methyl]-2-furamide

> <PUBCHEM_IUPAC_INCHI>
InChI=1S/C24H30N4O2S/c29-24(21-5-3-15-30-21)25-16-18-7-9-19(10-8-18)17-27-11-13-28(14-12-27)23-20-4-1-2-6-22(20)31-26-23/h1-6,15,18-19H,7-14,16-17H2,(H,25,29)

> <PUBCHEM_IUPAC_INCHIKEY>
UXEHMYRJTUKZNV-UHFFFAOYSA-N

> <PUBCHEM_XLOGP3_AA>
4.7

> <PUBCHEM_EXACT_MASS>
438.20894739

> <PUBCHEM_MOLECULAR_FORMULA>
C24H30N4O2S

> <PUBCHEM_MOLECULAR_WEIGHT>
438.6

> <PUBCHEM_OPENEYE_CAN_SMILES>
C1CC(CCC1CNC(=O)C2=CC=CO2)CN3CCN(CC3)C4=NSC5=CC=CC=C54

> <PUBCHEM_OPENEYE_ISO_SMILES>
C1CC(CCC1CNC(=O)C2=CC=CO2)CN3CCN(CC3)C4=NSC5=CC=CC=C54

> <PUBCHEM_CACTVS_TPSA>
89.8

> <PUBCHEM_MONOISOTOPIC_WEIGHT>
438.20894739

> <PUBCHEM_TOTAL_CHARGE>
0

> <PUBCHEM_HEAVY_ATOM_COUNT>
31

> <PUBCHEM_ATOM_DEF_STEREO_COUNT>
0

> <PUBCHEM_ATOM_UDEF_STEREO_COUNT>
0

> <PUBCHEM_BOND_DEF_STEREO_COUNT>
0

> <PUBCHEM_BOND_UDEF_STEREO_COUNT>
0

> <PUBCHEM_ISOTOPIC_ATOM_COUNT>
0

> <PUBCHEM_COMPONENT_COUNT>
1

> <PUBCHEM_CACTVS_TAUTO_COUNT>
-1

> <PUBCHEM_COORDINATE_TYPE>
1
5
255

> <PUBCHEM_BONDANNOTATIONS>
1  23  8
1  7  8
20  22  8
22  23  8
22  25  8
23  26  8
24  28  8
25  27  8
26  29  8
27  29  8
28  30  8
3  24  8
3  31  8
30  31  8
7  20  8

$$$$
