14950447
  -OEChem-09292322122D

 50 52  0     1  0  0  0  0  0999 V2000
    2.6200   -2.9570    0.0000 O   0  0  0  0  0  0  0  0  0  0  0  0
    7.3940    1.4783    0.0000 N   0  0  0  0  0  0  0  0  0  0  0  0
    4.7036   -2.8957    0.0000 N   0  0  0  0  0  0  0  0  0  0  0  0
    2.6200   -1.2249    0.0000 N   0  0  0  0  0  0  0  0  0  0  0  0
    7.3978    0.4783    0.0000 C   0  0  1  0  0  0  0  0  0  0  0  0
    6.4998   -0.0494    0.0000 C   0  0  0  0  0  0  0  0  0  0  0  0
    8.2999   -0.0425    0.0000 C   0  0  0  0  0  0  0  0  0  0  0  0
    6.5158   -1.0909    0.0000 C   0  0  0  0  0  0  0  0  0  0  0  0
    8.2919   -1.0841    0.0000 C   0  0  0  0  0  0  0  0  0  0  0  0
    7.3819   -1.5909    0.0000 C   0  0  0  0  0  0  0  0  0  0  0  0
    8.2581    1.9817    0.0000 C   0  0  0  0  0  0  0  0  0  0  0  0
    6.5260    1.9750    0.0000 C   0  0  0  0  0  0  0  0  0  0  0  0
    5.6498   -1.5909    0.0000 C   0  0  0  0  0  0  0  0  0  0  0  0
    7.3819   -2.5909    0.0000 C   0  0  0  0  0  0  0  0  0  0  0  0
    5.6498   -2.5909    0.0000 C   0  0  0  0  0  0  0  0  0  0  0  0
    8.2542    2.9816    0.0000 C   0  0  0  0  0  0  0  0  0  0  0  0
    6.5222    2.9750    0.0000 C   0  0  0  0  0  0  0  0  0  0  0  0
    6.5158   -3.0909    0.0000 C   0  0  0  0  0  0  0  0  0  0  0  0
    4.7036   -1.2862    0.0000 C   0  0  0  0  0  0  0  0  0  0  0  0
    4.1200   -2.0909    0.0000 C   0  0  0  0  0  0  0  0  0  0  0  0
    9.1183    3.4850    0.0000 C   0  0  0  0  0  0  0  0  0  0  0  0
    5.6542    3.4716    0.0000 C   0  0  0  0  0  0  0  0  0  0  0  0
    3.1200   -2.0909    0.0000 C   0  0  0  0  0  0  0  0  0  0  0  0
    6.8591    0.7852    0.0000 H   0  0  0  0  0  0  0  0  0  0  0  0
    6.2818    0.5310    0.0000 H   0  0  0  0  0  0  0  0  0  0  0  0
    5.8906   -0.1649    0.0000 H   0  0  0  0  0  0  0  0  0  0  0  0
    8.9099   -0.1533    0.0000 H   0  0  0  0  0  0  0  0  0  0  0  0
    8.5135    0.5396    0.0000 H   0  0  0  0  0  0  0  0  0  0  0  0
    8.4964   -1.6694    0.0000 H   0  0  0  0  0  0  0  0  0  0  0  0
    8.9035   -0.9827    0.0000 H   0  0  0  0  0  0  0  0  0  0  0  0
    8.4724    1.3999    0.0000 H   0  0  0  0  0  0  0  0  0  0  0  0
    8.8682    2.0917    0.0000 H   0  0  0  0  0  0  0  0  0  0  0  0
    5.9150    2.0803    0.0000 H   0  0  0  0  0  0  0  0  0  0  0  0
    6.3162    1.3916    0.0000 H   0  0  0  0  0  0  0  0  0  0  0  0
    7.9188   -2.9009    0.0000 H   0  0  0  0  0  0  0  0  0  0  0  0
    8.0399    3.5634    0.0000 H   0  0  0  0  0  0  0  0  0  0  0  0
    7.6440    2.8716    0.0000 H   0  0  0  0  0  0  0  0  0  0  0  0
    7.1332    2.8697    0.0000 H   0  0  0  0  0  0  0  0  0  0  0  0
    6.7320    3.5584    0.0000 H   0  0  0  0  0  0  0  0  0  0  0  0
    6.5158   -3.7109    0.0000 H   0  0  0  0  0  0  0  0  0  0  0  0
    4.5110   -0.6969    0.0000 H   0  0  0  0  0  0  0  0  0  0  0  0
    4.5110   -3.4850    0.0000 H   0  0  0  0  0  0  0  0  0  0  0  0
    9.4304    2.9492    0.0000 H   0  0  0  0  0  0  0  0  0  0  0  0
    9.6540    3.7970    0.0000 H   0  0  0  0  0  0  0  0  0  0  0  0
    8.8062    4.0207    0.0000 H   0  0  0  0  0  0  0  0  0  0  0  0
    5.9622    4.0098    0.0000 H   0  0  0  0  0  0  0  0  0  0  0  0
    5.1161    3.7796    0.0000 H   0  0  0  0  0  0  0  0  0  0  0  0
    5.3463    2.9335    0.0000 H   0  0  0  0  0  0  0  0  0  0  0  0
    2.0000   -1.2249    0.0000 H   0  0  0  0  0  0  0  0  0  0  0  0
    2.9300   -0.6880    0.0000 H   0  0  0  0  0  0  0  0  0  0  0  0
  1 23  2  0  0  0  0
  5  2  1  6  0  0  0
  2 11  1  0  0  0  0
  2 12  1  0  0  0  0
  3 15  1  0  0  0  0
  3 20  1  0  0  0  0
  3 42  1  0  0  0  0
  4 23  1  0  0  0  0
  4 49  1  0  0  0  0
  4 50  1  0  0  0  0
  5  6  1  0  0  0  0
  5  7  1  0  0  0  0
  5 24  1  0  0  0  0
  6  8  1  0  0  0  0
  6 25  1  0  0  0  0
  6 26  1  0  0  0  0
  7  9  1  0  0  0  0
  7 27  1  0  0  0  0
  7 28  1  0  0  0  0
  8 10  2  0  0  0  0
  8 13  1  0  0  0  0
  9 10  1  0  0  0  0
  9 29  1  0  0  0  0
  9 30  1  0  0  0  0
 10 14  1  0  0  0  0
 11 16  1  0  0  0  0
 11 31  1  0  0  0  0
 11 32  1  0  0  0  0
 12 17  1  0  0  0  0
 12 33  1  0  0  0  0
 12 34  1  0  0  0  0
 13 15  2  0  0  0  0
 13 19  1  0  0  0  0
 14 18  2  0  0  0  0
 14 35  1  0  0  0  0
 15 18  1  0  0  0  0
 16 21  1  0  0  0  0
 16 36  1  0  0  0  0
 16 37  1  0  0  0  0
 17 22  1  0  0  0  0
 17 38  1  0  0  0  0
 17 39  1  0  0  0  0
 18 40  1  0  0  0  0
 19 20  2  0  0  0  0
 19 41  1  0  0  0  0
 20 23  1  0  0  0  0
 21 43  1  0  0  0  0
 21 44  1  0  0  0  0
 21 45  1  0  0  0  0
 22 46  1  0  0  0  0
 22 47  1  0  0  0  0
 22 48  1  0  0  0  0
M  END
> <PUBCHEM_COMPOUND_CID>
14950447

> <PUBCHEM_COMPOUND_CANONICALIZED>
1

> <PUBCHEM_CACTVS_COMPLEXITY>
407

> <PUBCHEM_CACTVS_HBOND_ACCEPTOR>
2

> <PUBCHEM_CACTVS_HBOND_DONOR>
2

> <PUBCHEM_CACTVS_ROTATABLE_BOND>
6

> <PUBCHEM_CACTVS_SUBSKEYS>
AAADceB7IAAAAAAAAAAAAAAAAAAAAWAAAAAwYAAAAAAAAFjB8AAAHgAQAAAADCjBngQywPPJkACoAyVyVACCgCAnAiAImSG4ZNgIYPLAlbGUIQhgkADIyYcYicCeiAACQAASAAAQAASAACQAAAAAAAAAAA==

> <PUBCHEM_IUPAC_OPENEYE_NAME>
(8R)-8-(dipropylamino)-6,7,8,9-tetrahydro-3H-benzo[e]indole-2-carboxamide

> <PUBCHEM_IUPAC_CAS_NAME>
(8R)-8-(dipropylamino)-6,7,8,9-tetrahydro-3H-benzo[e]indole-2-carboxamide

> <PUBCHEM_IUPAC_NAME_MARKUP>
(8<I>R</I>)-8-(dipropylamino)-6,7,8,9-tetrahydro-3<I>H</I>-benzo[e]indole-2-carboxamide

> <PUBCHEM_IUPAC_NAME>
(8R)-8-(dipropylamino)-6,7,8,9-tetrahydro-3H-benzo[e]indole-2-carboxamide

> <PUBCHEM_IUPAC_SYSTEMATIC_NAME>
(8R)-8-(dipropylamino)-6,7,8,9-tetrahydro-3H-benzo[e]indole-2-carboxamide

> <PUBCHEM_IUPAC_TRADITIONAL_NAME>
(8R)-8-(dipropylamino)-6,7,8,9-tetrahydro-3H-benz[e]indole-2-carboxamide

> <PUBCHEM_IUPAC_INCHI>
InChI=1S/C19H27N3O/c1-3-9-22(10-4-2)14-7-5-13-6-8-17-16(15(13)11-14)12-18(21-17)19(20)23/h6,8,12,14,21H,3-5,7,9-11H2,1-2H3,(H2,20,23)/t14-/m1/s1

> <PUBCHEM_IUPAC_INCHIKEY>
AJMVNIXLWRBDLU-CQSZACIVSA-N

> <PUBCHEM_XLOGP3_AA>
3.8

> <PUBCHEM_EXACT_MASS>
313.215412493

> <PUBCHEM_MOLECULAR_FORMULA>
C19H27N3O

> <PUBCHEM_MOLECULAR_WEIGHT>
313.4

> <PUBCHEM_OPENEYE_CAN_SMILES>
CCCN(CCC)C1CCC2=C(C1)C3=C(C=C2)NC(=C3)C(=O)N

> <PUBCHEM_OPENEYE_ISO_SMILES>
CCCN(CCC)[C@@H]1CCC2=C(C1)C3=C(C=C2)NC(=C3)C(=O)N

> <PUBCHEM_CACTVS_TPSA>
62.1

> <PUBCHEM_MONOISOTOPIC_WEIGHT>
313.215412493

> <PUBCHEM_TOTAL_CHARGE>
0

> <PUBCHEM_HEAVY_ATOM_COUNT>
23

> <PUBCHEM_ATOM_DEF_STEREO_COUNT>
1

> <PUBCHEM_ATOM_UDEF_STEREO_COUNT>
0

> <PUBCHEM_BOND_DEF_STEREO_COUNT>
0

> <PUBCHEM_BOND_UDEF_STEREO_COUNT>
0

> <PUBCHEM_ISOTOPIC_ATOM_COUNT>
0

> <PUBCHEM_COMPONENT_COUNT>
1

> <PUBCHEM_CACTVS_TAUTO_COUNT>
-1

> <PUBCHEM_COORDINATE_TYPE>
1
5
255

> <PUBCHEM_BONDANNOTATIONS>
10  14  8
13  15  8
13  19  8
14  18  8
15  18  8
19  20  8
5  2  6
3  15  8
3  20  8
8  10  8
8  13  8

$$$$
