10042972
  -OEChem-09292322142D

 40 43  0     1  0  0  0  0  0999 V2000
    2.0000    0.3799    0.0000 Cl  0  0  0  0  0  0  0  0  0  0  0  0
    9.8679   -1.0825    0.0000 O   0  0  0  0  0  0  0  0  0  0  0  0
    9.0019   -2.5826    0.0000 O   0  0  0  0  0  0  0  0  0  0  0  0
   11.6539    1.9626    0.0000 O   0  0  0  0  0  0  0  0  0  0  0  0
    6.3359   -1.1034    0.0000 N   0  0  3  0  0  0  0  0  0  0  0  0
    6.3359   -0.0617    0.0000 C   0  0  0  0  0  0  0  0  0  0  0  0
    7.2419    0.4521    0.0000 C   0  0  0  0  0  0  0  0  0  0  0  0
    7.2419   -1.6172    0.0000 C   0  0  0  0  0  0  0  0  0  0  0  0
    8.1359   -0.0825    0.0000 C   0  0  0  0  0  0  0  0  0  0  0  0
    8.1359   -1.0825    0.0000 C   0  0  0  0  0  0  0  0  0  0  0  0
    5.4718   -1.6067    0.0000 C   0  0  0  0  0  0  0  0  0  0  0  0
    9.0019    0.4174    0.0000 C   0  0  0  0  0  0  0  0  0  0  0  0
    9.0019   -1.5825    0.0000 C   0  0  0  0  0  0  0  0  0  0  0  0
    9.8679   -0.0825    0.0000 C   0  0  0  0  0  0  0  0  0  0  0  0
    4.6038   -1.1100    0.0000 C   0  0  0  0  0  0  0  0  0  0  0  0
    8.9858    1.4590    0.0000 C   0  0  0  0  0  0  0  0  0  0  0  0
   10.7779    0.4243    0.0000 C   0  0  0  0  0  0  0  0  0  0  0  0
    9.8839    1.9867    0.0000 C   0  0  0  0  0  0  0  0  0  0  0  0
    3.7398   -1.6134    0.0000 C   0  0  0  0  0  0  0  0  0  0  0  0
    4.6000   -0.1100    0.0000 C   0  0  0  0  0  0  0  0  0  0  0  0
   10.7860    1.4659    0.0000 C   0  0  0  0  0  0  0  0  0  0  0  0
    2.8718   -1.1167    0.0000 C   0  0  0  0  0  0  0  0  0  0  0  0
    3.7320    0.3866    0.0000 C   0  0  0  0  0  0  0  0  0  0  0  0
    2.8680   -0.1167    0.0000 C   0  0  0  0  0  0  0  0  0  0  0  0
    6.1268    0.5220    0.0000 H   0  0  0  0  0  0  0  0  0  0  0  0
    5.7250   -0.1678    0.0000 H   0  0  0  0  0  0  0  0  0  0  0  0
    7.6465    0.9219    0.0000 H   0  0  0  0  0  0  0  0  0  0  0  0
    6.8483    0.9311    0.0000 H   0  0  0  0  0  0  0  0  0  0  0  0
    6.8483   -2.0962    0.0000 H   0  0  0  0  0  0  0  0  0  0  0  0
    7.6465   -2.0870    0.0000 H   0  0  0  0  0  0  0  0  0  0  0  0
    5.0751   -2.0832    0.0000 H   0  0  0  0  0  0  0  0  0  0  0  0
    5.8721   -2.0801    0.0000 H   0  0  0  0  0  0  0  0  0  0  0  0
    8.4454    1.7627    0.0000 H   0  0  0  0  0  0  0  0  0  0  0  0
   11.3113    0.1081    0.0000 H   0  0  0  0  0  0  0  0  0  0  0  0
    9.8815    2.6067    0.0000 H   0  0  0  0  0  0  0  0  0  0  0  0
    3.7421   -2.2334    0.0000 H   0  0  0  0  0  0  0  0  0  0  0  0
    5.1357    0.2020    0.0000 H   0  0  0  0  0  0  0  0  0  0  0  0
    2.3361   -1.4288    0.0000 H   0  0  0  0  0  0  0  0  0  0  0  0
    3.7296    1.0066    0.0000 H   0  0  0  0  0  0  0  0  0  0  0  0
   11.6563    2.5826    0.0000 H   0  0  0  0  0  0  0  0  0  0  0  0
  1 24  1  0  0  0  0
  2 13  1  0  0  0  0
  2 14  1  0  0  0  0
  3 13  2  0  0  0  0
  4 21  1  0  0  0  0
  4 40  1  0  0  0  0
  5  6  1  0  0  0  0
  5  8  1  0  0  0  0
  5 11  1  0  0  0  0
  6  7  1  0  0  0  0
  6 25  1  0  0  0  0
  6 26  1  0  0  0  0
  7  9  1  0  0  0  0
  7 27  1  0  0  0  0
  7 28  1  0  0  0  0
  8 10  1  0  0  0  0
  8 29  1  0  0  0  0
  8 30  1  0  0  0  0
  9 10  2  0  0  0  0
  9 12  1  0  0  0  0
 10 13  1  0  0  0  0
 11 15  1  0  0  0  0
 11 31  1  0  0  0  0
 11 32  1  0  0  0  0
 12 14  2  0  0  0  0
 12 16  1  0  0  0  0
 14 17  1  0  0  0  0
 15 19  2  0  0  0  0
 15 20  1  0  0  0  0
 16 18  2  0  0  0  0
 16 33  1  0  0  0  0
 17 21  2  0  0  0  0
 17 34  1  0  0  0  0
 18 21  1  0  0  0  0
 18 35  1  0  0  0  0
 19 22  1  0  0  0  0
 19 36  1  0  0  0  0
 20 23  2  0  0  0  0
 20 37  1  0  0  0  0
 22 24  2  0  0  0  0
 22 38  1  0  0  0  0
 23 24  1  0  0  0  0
 23 39  1  0  0  0  0
M  END
> <PUBCHEM_COMPOUND_CID>
10042972

> <PUBCHEM_COMPOUND_CANONICALIZED>
1

> <PUBCHEM_CACTVS_COMPLEXITY>
527

> <PUBCHEM_CACTVS_HBOND_ACCEPTOR>
4

> <PUBCHEM_CACTVS_HBOND_DONOR>
1

> <PUBCHEM_CACTVS_ROTATABLE_BOND>
2

> <PUBCHEM_CACTVS_SUBSKEYS>
AAADceB6MAAEAAAAAAAAAAAAAAAAAAAAAAAwYIEAAAAAAACxQAAAHgIACAAADAbBmCQwDoMABgCIAiDSCACCCAAgJQAIiAEODsgMJyqHsxuGeijnwBWIuQeQ8K4OJAAACAAIAABIAAAQABAAAAAAAAAAAA==

> <PUBCHEM_IUPAC_OPENEYE_NAME>
3-[(4-chlorophenyl)methyl]-8-hydroxy-2,4-dihydro-1H-chromeno[3,4-c]pyridin-5-one

> <PUBCHEM_IUPAC_CAS_NAME>
3-[(4-chlorophenyl)methyl]-8-hydroxy-2,4-dihydro-1H-[1]benzopyrano[3,4-c]pyridin-5-one

> <PUBCHEM_IUPAC_NAME_MARKUP>
3-[(4-chlorophenyl)methyl]-8-hydroxy-2,4-dihydro-1<I>H</I>-chromeno[3,4-c]pyridin-5-one

> <PUBCHEM_IUPAC_NAME>
3-[(4-chlorophenyl)methyl]-8-hydroxy-2,4-dihydro-1H-chromeno[3,4-c]pyridin-5-one

> <PUBCHEM_IUPAC_SYSTEMATIC_NAME>
3-[(4-chlorophenyl)methyl]-8-oxidanyl-2,4-dihydro-1H-chromeno[3,4-c]pyridin-5-one

> <PUBCHEM_IUPAC_TRADITIONAL_NAME>
3-(4-chlorobenzyl)-8-hydroxy-2,4-dihydro-1H-chromeno[3,4-c]pyridin-5-one

> <PUBCHEM_IUPAC_INCHI>
InChI=1S/C19H16ClNO3/c20-13-3-1-12(2-4-13)10-21-8-7-15-16-6-5-14(22)9-18(16)24-19(23)17(15)11-21/h1-6,9,22H,7-8,10-11H2

> <PUBCHEM_IUPAC_INCHIKEY>
DTSBUYTYJIUAIH-UHFFFAOYSA-N

> <PUBCHEM_XLOGP3_AA>
3.1

> <PUBCHEM_EXACT_MASS>
341.0818711

> <PUBCHEM_MOLECULAR_FORMULA>
C19H16ClNO3

> <PUBCHEM_MOLECULAR_WEIGHT>
341.8

> <PUBCHEM_OPENEYE_CAN_SMILES>
C1CN(CC2=C1C3=C(C=C(C=C3)O)OC2=O)CC4=CC=C(C=C4)Cl

> <PUBCHEM_OPENEYE_ISO_SMILES>
C1CN(CC2=C1C3=C(C=C(C=C3)O)OC2=O)CC4=CC=C(C=C4)Cl

> <PUBCHEM_CACTVS_TPSA>
49.8

> <PUBCHEM_MONOISOTOPIC_WEIGHT>
341.0818711

> <PUBCHEM_TOTAL_CHARGE>
0

> <PUBCHEM_HEAVY_ATOM_COUNT>
24

> <PUBCHEM_ATOM_DEF_STEREO_COUNT>
0

> <PUBCHEM_ATOM_UDEF_STEREO_COUNT>
0

> <PUBCHEM_BOND_DEF_STEREO_COUNT>
0

> <PUBCHEM_BOND_UDEF_STEREO_COUNT>
0

> <PUBCHEM_ISOTOPIC_ATOM_COUNT>
0

> <PUBCHEM_COMPONENT_COUNT>
1

> <PUBCHEM_CACTVS_TAUTO_COUNT>
-1

> <PUBCHEM_COORDINATE_TYPE>
1
5
255

> <PUBCHEM_BONDANNOTATIONS>
10  13  8
12  14  8
12  16  8
14  17  8
15  19  8
15  20  8
16  18  8
17  21  8
18  21  8
19  22  8
2  13  8
2  14  8
20  23  8
22  24  8
23  24  8
9  10  8
9  12  8

$$$$
