44304644
  -OEChem-09292322142D

 56 59  0     1  0  0  0  0  0999 V2000
    6.3301   -6.4438    0.0000 Br  0  0  0  0  0  0  0  0  0  0  0  0
    2.8660   -4.4438    0.0000 O   0  0  0  0  0  0  0  0  0  0  0  0
    3.9051    3.1493    0.0000 N   0  0  3  0  0  0  0  0  0  0  0  0
    3.9170   -0.1824    0.0000 N   0  0  0  0  0  0  0  0  0  0  0  0
    3.7891   -2.8561    0.0000 N   0  0  0  0  0  0  0  0  0  0  0  0
    5.4071   -2.8561    0.0000 N   0  0  0  0  0  0  0  0  0  0  0  0
    3.7360    1.5401    0.0000 C   0  0  2  0  0  0  0  0  0  0  0  0
    4.7141    1.7480    0.0000 C   0  0  0  0  0  0  0  0  0  0  0  0
    3.2360    2.4061    0.0000 C   0  0  0  0  0  0  0  0  0  0  0  0
    4.8187    2.7426    0.0000 C   0  0  0  0  0  0  0  0  0  0  0  0
    3.3292    0.6266    0.0000 C   0  0  0  0  0  0  0  0  0  0  0  0
    3.6972    4.1274    0.0000 C   0  0  0  0  0  0  0  0  0  0  0  0
    4.4403    4.7966    0.0000 C   0  0  0  0  0  0  0  0  0  0  0  0
    3.5103   -1.0960    0.0000 C   0  0  0  0  0  0  0  0  0  0  0  0
    4.0981   -1.9050    0.0000 C   0  0  0  0  0  0  0  0  0  0  0  0
    4.2324    5.7747    0.0000 C   0  0  0  0  0  0  0  0  0  0  0  0
    5.3914    4.4876    0.0000 C   0  0  0  0  0  0  0  0  0  0  0  0
    4.9756    6.4438    0.0000 C   0  0  0  0  0  0  0  0  0  0  0  0
    6.1345    5.1567    0.0000 C   0  0  0  0  0  0  0  0  0  0  0  0
    5.0981   -1.9050    0.0000 C   0  0  0  0  0  0  0  0  0  0  0  0
    4.5981   -3.4438    0.0000 C   0  0  0  0  0  0  0  0  0  0  0  0
    5.9266    6.1348    0.0000 C   0  0  0  0  0  0  0  0  0  0  0  0
    4.5981   -4.4438    0.0000 C   0  0  0  0  0  0  0  0  0  0  0  0
    3.7320   -4.9438    0.0000 C   0  0  0  0  0  0  0  0  0  0  0  0
    5.4641   -4.9438    0.0000 C   0  0  0  0  0  0  0  0  0  0  0  0
    3.7320   -5.9438    0.0000 C   0  0  0  0  0  0  0  0  0  0  0  0
    5.4641   -5.9438    0.0000 C   0  0  0  0  0  0  0  0  0  0  0  0
    4.5981   -6.4438    0.0000 C   0  0  0  0  0  0  0  0  0  0  0  0
    2.0000   -4.9438    0.0000 C   0  0  0  0  0  0  0  0  0  0  0  0
    4.1262    1.0583    0.0000 H   0  0  0  0  0  0  0  0  0  0  0  0
    4.7789    1.1314    0.0000 H   0  0  0  0  0  0  0  0  0  0  0  0
    5.3341    1.7480    0.0000 H   0  0  0  0  0  0  0  0  0  0  0  0
    2.8211    2.8669    0.0000 H   0  0  0  0  0  0  0  0  0  0  0  0
    2.7344    2.0417    0.0000 H   0  0  0  0  0  0  0  0  0  0  0  0
    5.4251    2.6136    0.0000 H   0  0  0  0  0  0  0  0  0  0  0  0
    5.0102    3.3322    0.0000 H   0  0  0  0  0  0  0  0  0  0  0  0
    2.8152    0.9733    0.0000 H   0  0  0  0  0  0  0  0  0  0  0  0
    2.8986    0.1806    0.0000 H   0  0  0  0  0  0  0  0  0  0  0  0
    3.3686    4.6532    0.0000 H   0  0  0  0  0  0  0  0  0  0  0  0
    3.1223    3.8952    0.0000 H   0  0  0  0  0  0  0  0  0  0  0  0
    4.5336   -0.1176    0.0000 H   0  0  0  0  0  0  0  0  0  0  0  0
    2.9963   -0.7493    0.0000 H   0  0  0  0  0  0  0  0  0  0  0  0
    3.0796   -1.5420    0.0000 H   0  0  0  0  0  0  0  0  0  0  0  0
    3.6428    5.9663    0.0000 H   0  0  0  0  0  0  0  0  0  0  0  0
    5.5203    3.8811    0.0000 H   0  0  0  0  0  0  0  0  0  0  0  0
    3.1994   -3.0476    0.0000 H   0  0  0  0  0  0  0  0  0  0  0  0
    4.8467    7.0503    0.0000 H   0  0  0  0  0  0  0  0  0  0  0  0
    6.7242    4.9651    0.0000 H   0  0  0  0  0  0  0  0  0  0  0  0
    5.4625   -1.4034    0.0000 H   0  0  0  0  0  0  0  0  0  0  0  0
    6.3874    6.5497    0.0000 H   0  0  0  0  0  0  0  0  0  0  0  0
    6.0010   -4.6338    0.0000 H   0  0  0  0  0  0  0  0  0  0  0  0
    3.1951   -6.2538    0.0000 H   0  0  0  0  0  0  0  0  0  0  0  0
    4.5981   -7.0638    0.0000 H   0  0  0  0  0  0  0  0  0  0  0  0
    1.6900   -4.4069    0.0000 H   0  0  0  0  0  0  0  0  0  0  0  0
    1.4631   -5.2538    0.0000 H   0  0  0  0  0  0  0  0  0  0  0  0
    2.3100   -5.4808    0.0000 H   0  0  0  0  0  0  0  0  0  0  0  0
  1 27  1  0  0  0  0
  2 24  1  0  0  0  0
  2 29  1  0  0  0  0
  3  9  1  0  0  0  0
  3 10  1  0  0  0  0
  3 12  1  0  0  0  0
  4 11  1  0  0  0  0
  4 14  1  0  0  0  0
  4 41  1  0  0  0  0
  5 15  1  0  0  0  0
  5 21  1  0  0  0  0
  5 46  1  0  0  0  0
  6 20  1  0  0  0  0
  6 21  2  0  0  0  0
  7  8  1  0  0  0  0
  7  9  1  0  0  0  0
  7 11  1  1  0  0  0
  7 30  1  0  0  0  0
  8 10  1  0  0  0  0
  8 31  1  0  0  0  0
  8 32  1  0  0  0  0
  9 33  1  0  0  0  0
  9 34  1  0  0  0  0
 10 35  1  0  0  0  0
 10 36  1  0  0  0  0
 11 37  1  0  0  0  0
 11 38  1  0  0  0  0
 12 13  1  0  0  0  0
 12 39  1  0  0  0  0
 12 40  1  0  0  0  0
 13 16  2  0  0  0  0
 13 17  1  0  0  0  0
 14 15  1  0  0  0  0
 14 42  1  0  0  0  0
 14 43  1  0  0  0  0
 15 20  2  0  0  0  0
 16 18  1  0  0  0  0
 16 44  1  0  0  0  0
 17 19  2  0  0  0  0
 17 45  1  0  0  0  0
 18 22  2  0  0  0  0
 18 47  1  0  0  0  0
 19 22  1  0  0  0  0
 19 48  1  0  0  0  0
 20 49  1  0  0  0  0
 21 23  1  0  0  0  0
 22 50  1  0  0  0  0
 23 24  2  0  0  0  0
 23 25  1  0  0  0  0
 24 26  1  0  0  0  0
 25 27  2  0  0  0  0
 25 51  1  0  0  0  0
 26 28  2  0  0  0  0
 26 52  1  0  0  0  0
 27 28  1  0  0  0  0
 28 53  1  0  0  0  0
 29 54  1  0  0  0  0
 29 55  1  0  0  0  0
 29 56  1  0  0  0  0
M  END
> <PUBCHEM_COMPOUND_CID>
44304644

> <PUBCHEM_COMPOUND_CANONICALIZED>
1

> <PUBCHEM_CACTVS_COMPLEXITY>
490

> <PUBCHEM_CACTVS_HBOND_ACCEPTOR>
4

> <PUBCHEM_CACTVS_HBOND_DONOR>
2

> <PUBCHEM_CACTVS_ROTATABLE_BOND>
8

> <PUBCHEM_CACTVS_SUBSKEYS>
AAADceB7oAAAEAAAAAAAAAAAAAAAAWLAAAAwYAAAAAAAAAAB0AAAHgBQAAABrQzBnwY/lpfJlACgAzZnZACCiC2xMqQJ2aA+fLiMbqLE+RuUMChu0BPIqjeQwCAOABAAEAAIAAAAIAAgABAAAAAAAAAAAA==

> <PUBCHEM_IUPAC_OPENEYE_NAME>
1-[(3S)-1-benzylpyrrolidin-3-yl]-N-[[2-(5-bromo-2-methoxy-phenyl)-1H-imidazol-5-yl]methyl]methanamine

> <PUBCHEM_IUPAC_CAS_NAME>
N-[[2-(5-bromo-2-methoxyphenyl)-1H-imidazol-5-yl]methyl]-1-[(3S)-1-(phenylmethyl)-3-pyrrolidinyl]methanamine

> <PUBCHEM_IUPAC_NAME_MARKUP>
1-[(3<I>S</I>)-1-benzylpyrrolidin-3-yl]-<I>N</I>-[[2-(5-bromo-2-methoxyphenyl)-1<I>H</I>-imidazol-5-yl]methyl]methanamine

> <PUBCHEM_IUPAC_NAME>
1-[(3S)-1-benzylpyrrolidin-3-yl]-N-[[2-(5-bromo-2-methoxyphenyl)-1H-imidazol-5-yl]methyl]methanamine

> <PUBCHEM_IUPAC_SYSTEMATIC_NAME>
N-[[2-(5-bromanyl-2-methoxy-phenyl)-1H-imidazol-5-yl]methyl]-1-[(3S)-1-(phenylmethyl)pyrrolidin-3-yl]methanamine

> <PUBCHEM_IUPAC_TRADITIONAL_NAME>
[(3S)-1-benzylpyrrolidin-3-yl]methyl-[[2-(5-bromo-2-methoxy-phenyl)-1H-imidazol-5-yl]methyl]amine

> <PUBCHEM_IUPAC_INCHI>
InChI=1S/C23H27BrN4O/c1-29-22-8-7-19(24)11-21(22)23-26-14-20(27-23)13-25-12-18-9-10-28(16-18)15-17-5-3-2-4-6-17/h2-8,11,14,18,25H,9-10,12-13,15-16H2,1H3,(H,26,27)/t18-/m0/s1

> <PUBCHEM_IUPAC_INCHIKEY>
XWPFAYFZWMVJSL-SFHVURJKSA-N

> <PUBCHEM_XLOGP3_AA>
3.7

> <PUBCHEM_EXACT_MASS>
454.13682

> <PUBCHEM_MOLECULAR_FORMULA>
C23H27BrN4O

> <PUBCHEM_MOLECULAR_WEIGHT>
455.4

> <PUBCHEM_OPENEYE_CAN_SMILES>
COC1=C(C=C(C=C1)Br)C2=NC=C(N2)CNCC3CCN(C3)CC4=CC=CC=C4

> <PUBCHEM_OPENEYE_ISO_SMILES>
COC1=C(C=C(C=C1)Br)C2=NC=C(N2)CNC[C@@H]3CCN(C3)CC4=CC=CC=C4

> <PUBCHEM_CACTVS_TPSA>
53.2

> <PUBCHEM_MONOISOTOPIC_WEIGHT>
454.13682

> <PUBCHEM_TOTAL_CHARGE>
0

> <PUBCHEM_HEAVY_ATOM_COUNT>
29

> <PUBCHEM_ATOM_DEF_STEREO_COUNT>
1

> <PUBCHEM_ATOM_UDEF_STEREO_COUNT>
0

> <PUBCHEM_BOND_DEF_STEREO_COUNT>
0

> <PUBCHEM_BOND_UDEF_STEREO_COUNT>
0

> <PUBCHEM_ISOTOPIC_ATOM_COUNT>
0

> <PUBCHEM_COMPONENT_COUNT>
1

> <PUBCHEM_CACTVS_TAUTO_COUNT>
-1

> <PUBCHEM_COORDINATE_TYPE>
1
5
255

> <PUBCHEM_BONDANNOTATIONS>
13  16  8
13  17  8
15  20  8
16  18  8
17  19  8
18  22  8
19  22  8
23  24  8
23  25  8
24  26  8
25  27  8
26  28  8
27  28  8
5  15  8
5  21  8
6  20  8
6  21  8
7  11  5

$$$$
