66801251
  -OEChem-09292322342D

 56 60  0     0  0  0  0  0  0999 V2000
    2.0000   -2.7702    0.0000 Cl  0  0  0  0  0  0  0  0  0  0  0  0
    7.1279   -1.7702    0.0000 S   0  0  0  0  0  0  0  0  0  0  0  0
    5.5443   -2.5749    0.0000 S   0  0  0  0  0  0  0  0  0  0  0  0
   16.9444    2.7702    0.0000 F   0  0  0  0  0  0  0  0  0  0  0  0
   15.6577   -0.5381    0.0000 O   0  0  0  0  0  0  0  0  0  0  0  0
    7.1279   -0.7702    0.0000 O   0  0  0  0  0  0  0  0  0  0  0  0
    7.1279   -2.7702    0.0000 O   0  0  0  0  0  0  0  0  0  0  0  0
   11.1279   -0.0381    0.0000 N   0  0  0  0  0  0  0  0  0  0  0  0
   14.7115   -0.8428    0.0000 N   0  0  0  0  0  0  0  0  0  0  0  0
    8.1279   -1.7702    0.0000 N   0  0  0  0  0  0  0  0  0  0  0  0
   13.1279   -0.0381    0.0000 C   0  0  0  0  0  0  0  0  0  0  0  0
   12.6279   -0.9041    0.0000 C   0  0  0  0  0  0  0  0  0  0  0  0
   12.6279    0.8279    0.0000 C   0  0  0  0  0  0  0  0  0  0  0  0
   11.6279   -0.9041    0.0000 C   0  0  0  0  0  0  0  0  0  0  0  0
   11.6279    0.8279    0.0000 C   0  0  0  0  0  0  0  0  0  0  0  0
   10.1279   -0.0381    0.0000 C   0  0  0  0  0  0  0  0  0  0  0  0
   14.1279   -0.0381    0.0000 C   0  0  0  0  0  0  0  0  0  0  0  0
    9.6279   -0.9041    0.0000 C   0  0  0  0  0  0  0  0  0  0  0  0
   14.7115    0.7666    0.0000 C   0  0  0  0  0  0  0  0  0  0  0  0
    8.6279   -0.9041    0.0000 C   0  0  0  0  0  0  0  0  0  0  0  0
   15.6620    0.4560    0.0000 C   0  0  0  0  0  0  0  0  0  0  0  0
   14.5053    1.7451    0.0000 C   0  0  0  0  0  0  0  0  0  0  0  0
   16.4063    1.1238    0.0000 C   0  0  0  0  0  0  0  0  0  0  0  0
   15.2496    2.4130    0.0000 C   0  0  0  0  0  0  0  0  0  0  0  0
   16.2001    2.1023    0.0000 C   0  0  0  0  0  0  0  0  0  0  0  0
    6.1279   -1.7702    0.0000 C   0  0  0  0  0  0  0  0  0  0  0  0
    5.5443   -0.9654    0.0000 C   0  0  0  0  0  0  0  0  0  0  0  0
    4.5981   -1.2702    0.0000 C   0  0  0  0  0  0  0  0  0  0  0  0
    4.5981   -2.2702    0.0000 C   0  0  0  0  0  0  0  0  0  0  0  0
    3.7320   -0.7702    0.0000 C   0  0  0  0  0  0  0  0  0  0  0  0
    3.7320   -2.7702    0.0000 C   0  0  0  0  0  0  0  0  0  0  0  0
    2.8660   -1.2702    0.0000 C   0  0  0  0  0  0  0  0  0  0  0  0
    2.8660   -2.2702    0.0000 C   0  0  0  0  0  0  0  0  0  0  0  0
   13.4379    0.4988    0.0000 H   0  0  0  0  0  0  0  0  0  0  0  0
   12.5202   -1.5147    0.0000 H   0  0  0  0  0  0  0  0  0  0  0  0
   13.2105   -1.1162    0.0000 H   0  0  0  0  0  0  0  0  0  0  0  0
   13.2105    1.0400    0.0000 H   0  0  0  0  0  0  0  0  0  0  0  0
   12.5202    1.4385    0.0000 H   0  0  0  0  0  0  0  0  0  0  0  0
   11.0453   -1.1162    0.0000 H   0  0  0  0  0  0  0  0  0  0  0  0
   11.7356   -1.5147    0.0000 H   0  0  0  0  0  0  0  0  0  0  0  0
   11.7356    1.4385    0.0000 H   0  0  0  0  0  0  0  0  0  0  0  0
   11.0453    1.0400    0.0000 H   0  0  0  0  0  0  0  0  0  0  0  0
   10.2356    0.5725    0.0000 H   0  0  0  0  0  0  0  0  0  0  0  0
    9.5453    0.1739    0.0000 H   0  0  0  0  0  0  0  0  0  0  0  0
    9.5202   -1.5147    0.0000 H   0  0  0  0  0  0  0  0  0  0  0  0
   10.2105   -1.1162    0.0000 H   0  0  0  0  0  0  0  0  0  0  0  0
    8.7356   -0.2936    0.0000 H   0  0  0  0  0  0  0  0  0  0  0  0
    8.0453   -0.6921    0.0000 H   0  0  0  0  0  0  0  0  0  0  0  0
   13.9160    1.9377    0.0000 H   0  0  0  0  0  0  0  0  0  0  0  0
    8.4379   -2.3071    0.0000 H   0  0  0  0  0  0  0  0  0  0  0  0
   16.9957    0.9312    0.0000 H   0  0  0  0  0  0  0  0  0  0  0  0
   15.1217    3.0196    0.0000 H   0  0  0  0  0  0  0  0  0  0  0  0
    5.7369   -0.3761    0.0000 H   0  0  0  0  0  0  0  0  0  0  0  0
    3.7320   -0.1502    0.0000 H   0  0  0  0  0  0  0  0  0  0  0  0
    3.7320   -3.3902    0.0000 H   0  0  0  0  0  0  0  0  0  0  0  0
    2.3291   -0.9602    0.0000 H   0  0  0  0  0  0  0  0  0  0  0  0
  1 33  1  0  0  0  0
  2  6  2  0  0  0  0
  2  7  2  0  0  0  0
  2 10  1  0  0  0  0
  2 26  1  0  0  0  0
  3 26  1  0  0  0  0
  3 29  1  0  0  0  0
  4 25  1  0  0  0  0
  5  9  1  0  0  0  0
  5 21  1  0  0  0  0
  8 14  1  0  0  0  0
  8 15  1  0  0  0  0
  8 16  1  0  0  0  0
  9 17  2  0  0  0  0
 10 20  1  0  0  0  0
 10 50  1  0  0  0  0
 11 12  1  0  0  0  0
 11 13  1  0  0  0  0
 11 17  1  0  0  0  0
 11 34  1  0  0  0  0
 12 14  1  0  0  0  0
 12 35  1  0  0  0  0
 12 36  1  0  0  0  0
 13 15  1  0  0  0  0
 13 37  1  0  0  0  0
 13 38  1  0  0  0  0
 14 39  1  0  0  0  0
 14 40  1  0  0  0  0
 15 41  1  0  0  0  0
 15 42  1  0  0  0  0
 16 18  1  0  0  0  0
 16 43  1  0  0  0  0
 16 44  1  0  0  0  0
 17 19  1  0  0  0  0
 18 20  1  0  0  0  0
 18 45  1  0  0  0  0
 18 46  1  0  0  0  0
 19 21  2  0  0  0  0
 19 22  1  0  0  0  0
 20 47  1  0  0  0  0
 20 48  1  0  0  0  0
 21 23  1  0  0  0  0
 22 24  2  0  0  0  0
 22 49  1  0  0  0  0
 23 25  2  0  0  0  0
 23 51  1  0  0  0  0
 24 25  1  0  0  0  0
 24 52  1  0  0  0  0
 26 27  2  0  0  0  0
 27 28  1  0  0  0  0
 27 53  1  0  0  0  0
 28 29  2  0  0  0  0
 28 30  1  0  0  0  0
 29 31  1  0  0  0  0
 30 32  2  0  0  0  0
 30 54  1  0  0  0  0
 31 33  2  0  0  0  0
 31 55  1  0  0  0  0
 32 33  1  0  0  0  0
 32 56  1  0  0  0  0
M  END
> <PUBCHEM_COMPOUND_CID>
66801251

> <PUBCHEM_COMPOUND_CANONICALIZED>
1

> <PUBCHEM_CACTVS_COMPLEXITY>
765

> <PUBCHEM_CACTVS_HBOND_ACCEPTOR>
8

> <PUBCHEM_CACTVS_HBOND_DONOR>
1

> <PUBCHEM_CACTVS_ROTATABLE_BOND>
7

> <PUBCHEM_CACTVS_SUBSKEYS>
AAADceB7MQBkAAAAAAAAAAAAAAAAAWJAAAA8YIAAAAAAAFgB/gAAHwYUQAAADQ7B3iwwh9NQAAqtA6RyQnDDAZAkLRBomLk+TtoIJrqh15OEMYBm0BmoyceYyOCOBAAAABAMAAAIAAAAIBgAAAAAAAAAAA==

> <PUBCHEM_IUPAC_OPENEYE_NAME>
6-chloro-N-[3-[4-(6-fluoro-1,2-benzoxazol-3-yl)-1-piperidyl]propyl]benzothiophene-2-sulfonamide

> <PUBCHEM_IUPAC_CAS_NAME>
6-chloro-N-[3-[4-(6-fluoro-1,2-benzoxazol-3-yl)-1-piperidinyl]propyl]-1-benzothiophene-2-sulfonamide

> <PUBCHEM_IUPAC_NAME_MARKUP>
6-chloro-<I>N</I>-[3-[4-(6-fluoro-1,2-benzoxazol-3-yl)piperidin-1-yl]propyl]-1-benzothiophene-2-sulfonamide

> <PUBCHEM_IUPAC_NAME>
6-chloro-N-[3-[4-(6-fluoro-1,2-benzoxazol-3-yl)piperidin-1-yl]propyl]-1-benzothiophene-2-sulfonamide

> <PUBCHEM_IUPAC_SYSTEMATIC_NAME>
6-chloranyl-N-[3-[4-(6-fluoranyl-1,2-benzoxazol-3-yl)piperidin-1-yl]propyl]-1-benzothiophene-2-sulfonamide

> <PUBCHEM_IUPAC_TRADITIONAL_NAME>
6-chloro-N-[3-[4-(6-fluoroindoxazen-3-yl)piperidino]propyl]benzothiophene-2-sulfonamide

> <PUBCHEM_IUPAC_INCHI>
InChI=1S/C23H23ClFN3O3S2/c24-17-3-2-16-12-22(32-21(16)13-17)33(29,30)26-8-1-9-28-10-6-15(7-11-28)23-19-5-4-18(25)14-20(19)31-27-23/h2-5,12-15,26H,1,6-11H2

> <PUBCHEM_IUPAC_INCHIKEY>
XTENPQMXIHRLGV-UHFFFAOYSA-N

> <PUBCHEM_XLOGP3_AA>
5.4

> <PUBCHEM_EXACT_MASS>
507.0853398

> <PUBCHEM_MOLECULAR_FORMULA>
C23H23ClFN3O3S2

> <PUBCHEM_MOLECULAR_WEIGHT>
508.0

> <PUBCHEM_OPENEYE_CAN_SMILES>
C1CN(CCC1C2=NOC3=C2C=CC(=C3)F)CCCNS(=O)(=O)C4=CC5=C(S4)C=C(C=C5)Cl

> <PUBCHEM_OPENEYE_ISO_SMILES>
C1CN(CCC1C2=NOC3=C2C=CC(=C3)F)CCCNS(=O)(=O)C4=CC5=C(S4)C=C(C=C5)Cl

> <PUBCHEM_CACTVS_TPSA>
112

> <PUBCHEM_MONOISOTOPIC_WEIGHT>
507.0853398

> <PUBCHEM_TOTAL_CHARGE>
0

> <PUBCHEM_HEAVY_ATOM_COUNT>
33

> <PUBCHEM_ATOM_DEF_STEREO_COUNT>
0

> <PUBCHEM_ATOM_UDEF_STEREO_COUNT>
0

> <PUBCHEM_BOND_DEF_STEREO_COUNT>
0

> <PUBCHEM_BOND_UDEF_STEREO_COUNT>
0

> <PUBCHEM_ISOTOPIC_ATOM_COUNT>
0

> <PUBCHEM_COMPONENT_COUNT>
1

> <PUBCHEM_CACTVS_TAUTO_COUNT>
-1

> <PUBCHEM_COORDINATE_TYPE>
1
5
255

> <PUBCHEM_BONDANNOTATIONS>
17  19  8
19  21  8
19  22  8
21  23  8
22  24  8
23  25  8
24  25  8
26  27  8
27  28  8
28  29  8
28  30  8
29  31  8
3  26  8
3  29  8
30  32  8
31  33  8
32  33  8
5  21  8
5  9  8
9  17  8

$$$$
