16048564
  -OEChem-09292322092D

 51 53  0     1  0  0  0  0  0999 V2000
    7.1350    6.2320    0.0000 Cl  0  0  0  0  0  0  0  0  0  0  0  0
    3.4030   -6.2320    0.0000 F   0  0  0  0  0  0  0  0  0  0  0  0
    4.6350    3.6340    0.0000 O   0  0  0  0  0  0  0  0  0  0  0  0
    2.5369   -1.7320    0.0000 O   0  0  0  0  0  0  0  0  0  0  0  0
    5.1350    0.7679    0.0000 N   0  0  0  0  0  0  0  0  0  0  0  0
    5.1350    2.7680    0.0000 C   0  0  0  0  0  0  0  0  0  0  0  0
    4.2690    2.2680    0.0000 C   0  0  0  0  0  0  0  0  0  0  0  0
    6.0010    2.2680    0.0000 C   0  0  0  0  0  0  0  0  0  0  0  0
    4.2690    1.2680    0.0000 C   0  0  0  0  0  0  0  0  0  0  0  0
    6.0010    1.2680    0.0000 C   0  0  0  0  0  0  0  0  0  0  0  0
    5.1350   -0.2321    0.0000 C   0  0  0  0  0  0  0  0  0  0  0  0
    5.6350    3.6340    0.0000 C   0  0  0  0  0  0  0  0  0  0  0  0
    4.2690   -0.7321    0.0000 C   0  0  0  0  0  0  0  0  0  0  0  0
    4.2690   -1.7320    0.0000 C   0  0  0  0  0  0  0  0  0  0  0  0
    5.1350    4.5000    0.0000 C   0  0  0  0  0  0  0  0  0  0  0  0
    6.6350    3.6340    0.0000 C   0  0  0  0  0  0  0  0  0  0  0  0
    3.4030   -2.2320    0.0000 C   0  0  1  0  0  0  0  0  0  0  0  0
    5.6350    5.3660    0.0000 C   0  0  0  0  0  0  0  0  0  0  0  0
    7.1350    4.5000    0.0000 C   0  0  0  0  0  0  0  0  0  0  0  0
    3.4030   -3.2320    0.0000 C   0  0  0  0  0  0  0  0  0  0  0  0
    6.6350    5.3660    0.0000 C   0  0  0  0  0  0  0  0  0  0  0  0
    2.5369   -3.7320    0.0000 C   0  0  0  0  0  0  0  0  0  0  0  0
    4.2690   -3.7320    0.0000 C   0  0  0  0  0  0  0  0  0  0  0  0
    2.5369   -4.7320    0.0000 C   0  0  0  0  0  0  0  0  0  0  0  0
    4.2690   -4.7320    0.0000 C   0  0  0  0  0  0  0  0  0  0  0  0
    3.4030   -5.2320    0.0000 C   0  0  0  0  0  0  0  0  0  0  0  0
    4.0569    2.8506    0.0000 H   0  0  0  0  0  0  0  0  0  0  0  0
    3.6584    2.1603    0.0000 H   0  0  0  0  0  0  0  0  0  0  0  0
    6.6116    2.1603    0.0000 H   0  0  0  0  0  0  0  0  0  0  0  0
    6.2131    2.8506    0.0000 H   0  0  0  0  0  0  0  0  0  0  0  0
    3.6584    1.3756    0.0000 H   0  0  0  0  0  0  0  0  0  0  0  0
    4.0569    0.6853    0.0000 H   0  0  0  0  0  0  0  0  0  0  0  0
    6.2131    0.6853    0.0000 H   0  0  0  0  0  0  0  0  0  0  0  0
    6.6116    1.3756    0.0000 H   0  0  0  0  0  0  0  0  0  0  0  0
    5.3471   -0.8147    0.0000 H   0  0  0  0  0  0  0  0  0  0  0  0
    5.7456   -0.1244    0.0000 H   0  0  0  0  0  0  0  0  0  0  0  0
    4.0569   -0.1494    0.0000 H   0  0  0  0  0  0  0  0  0  0  0  0
    3.6584   -0.8397    0.0000 H   0  0  0  0  0  0  0  0  0  0  0  0
    4.0150    3.6340    0.0000 H   0  0  0  0  0  0  0  0  0  0  0  0
    4.4810   -2.3147    0.0000 H   0  0  0  0  0  0  0  0  0  0  0  0
    4.8796   -1.6244    0.0000 H   0  0  0  0  0  0  0  0  0  0  0  0
    4.5150    4.5000    0.0000 H   0  0  0  0  0  0  0  0  0  0  0  0
    6.9450    3.0970    0.0000 H   0  0  0  0  0  0  0  0  0  0  0  0
    2.8660   -2.5420    0.0000 H   0  0  0  0  0  0  0  0  0  0  0  0
    5.3250    5.9030    0.0000 H   0  0  0  0  0  0  0  0  0  0  0  0
    7.7550    4.5000    0.0000 H   0  0  0  0  0  0  0  0  0  0  0  0
    2.0000   -2.0420    0.0000 H   0  0  0  0  0  0  0  0  0  0  0  0
    2.0000   -3.4220    0.0000 H   0  0  0  0  0  0  0  0  0  0  0  0
    4.8059   -3.4220    0.0000 H   0  0  0  0  0  0  0  0  0  0  0  0
    2.0000   -5.0420    0.0000 H   0  0  0  0  0  0  0  0  0  0  0  0
    4.8059   -5.0420    0.0000 H   0  0  0  0  0  0  0  0  0  0  0  0
  1 21  1  0  0  0  0
  2 26  1  0  0  0  0
  3  6  1  0  0  0  0
  3 39  1  0  0  0  0
 17  4  1  1  0  0  0
  4 47  1  0  0  0  0
  5  9  1  0  0  0  0
  5 10  1  0  0  0  0
  5 11  1  0  0  0  0
  6  7  1  0  0  0  0
  6  8  1  0  0  0  0
  6 12  1  0  0  0  0
  7  9  1  0  0  0  0
  7 27  1  0  0  0  0
  7 28  1  0  0  0  0
  8 10  1  0  0  0  0
  8 29  1  0  0  0  0
  8 30  1  0  0  0  0
  9 31  1  0  0  0  0
  9 32  1  0  0  0  0
 10 33  1  0  0  0  0
 10 34  1  0  0  0  0
 11 13  1  0  0  0  0
 11 35  1  0  0  0  0
 11 36  1  0  0  0  0
 12 15  2  0  0  0  0
 12 16  1  0  0  0  0
 13 14  1  0  0  0  0
 13 37  1  0  0  0  0
 13 38  1  0  0  0  0
 14 17  1  0  0  0  0
 14 40  1  0  0  0  0
 14 41  1  0  0  0  0
 15 18  1  0  0  0  0
 15 42  1  0  0  0  0
 16 19  2  0  0  0  0
 16 43  1  0  0  0  0
 17 20  1  0  0  0  0
 17 44  1  0  0  0  0
 18 21  2  0  0  0  0
 18 45  1  0  0  0  0
 19 21  1  0  0  0  0
 19 46  1  0  0  0  0
 20 22  2  0  0  0  0
 20 23  1  0  0  0  0
 22 24  1  0  0  0  0
 22 48  1  0  0  0  0
 23 25  2  0  0  0  0
 23 49  1  0  0  0  0
 24 26  2  0  0  0  0
 24 50  1  0  0  0  0
 25 26  1  0  0  0  0
 25 51  1  0  0  0  0
M  END
> <PUBCHEM_COMPOUND_CID>
16048564

> <PUBCHEM_COMPOUND_CANONICALIZED>
1

> <PUBCHEM_CACTVS_COMPLEXITY>
414

> <PUBCHEM_CACTVS_HBOND_ACCEPTOR>
4

> <PUBCHEM_CACTVS_HBOND_DONOR>
2

> <PUBCHEM_CACTVS_ROTATABLE_BOND>
6

> <PUBCHEM_CACTVS_SUBSKEYS>
AAADceB6MQAEAAAAAAAAAAAAAAAAAAAAAAA8YIAAAAAAAAABQAAAHwIACAAADFbhmC4wAIMAAgCAAiBCAAACAAAgBQAIiAAICogINiKBkxCEcAAmwAGImAewwOAOhAAAAAAAAAAIAAAAAAAAAAAAAAAAAA==

> <PUBCHEM_IUPAC_OPENEYE_NAME>
4-(4-chlorophenyl)-1-[(4S)-4-(4-fluorophenyl)-4-hydroxy-butyl]piperidin-4-ol

> <PUBCHEM_IUPAC_CAS_NAME>
4-(4-chlorophenyl)-1-[(4S)-4-(4-fluorophenyl)-4-hydroxybutyl]-4-piperidinol

> <PUBCHEM_IUPAC_NAME_MARKUP>
4-(4-chlorophenyl)-1-[(4<I>S</I>)-4-(4-fluorophenyl)-4-hydroxybutyl]piperidin-4-ol

> <PUBCHEM_IUPAC_NAME>
4-(4-chlorophenyl)-1-[(4S)-4-(4-fluorophenyl)-4-hydroxybutyl]piperidin-4-ol

> <PUBCHEM_IUPAC_SYSTEMATIC_NAME>
4-(4-chlorophenyl)-1-[(4S)-4-(4-fluorophenyl)-4-oxidanyl-butyl]piperidin-4-ol

> <PUBCHEM_IUPAC_TRADITIONAL_NAME>
4-(4-chlorophenyl)-1-[(4S)-4-(4-fluorophenyl)-4-hydroxy-butyl]piperidin-4-ol

> <PUBCHEM_IUPAC_INCHI>
InChI=1S/C21H25ClFNO2/c22-18-7-5-17(6-8-18)21(26)11-14-24(15-12-21)13-1-2-20(25)16-3-9-19(23)10-4-16/h3-10,20,25-26H,1-2,11-15H2/t20-/m0/s1

> <PUBCHEM_IUPAC_INCHIKEY>
WNZBBTJFOIOEMP-FQEVSTJZSA-N

> <PUBCHEM_XLOGP3_AA>
3.7

> <PUBCHEM_EXACT_MASS>
377.1557849

> <PUBCHEM_MOLECULAR_FORMULA>
C21H25ClFNO2

> <PUBCHEM_MOLECULAR_WEIGHT>
377.9

> <PUBCHEM_OPENEYE_CAN_SMILES>
C1CN(CCC1(C2=CC=C(C=C2)Cl)O)CCCC(C3=CC=C(C=C3)F)O

> <PUBCHEM_OPENEYE_ISO_SMILES>
C1CN(CCC1(C2=CC=C(C=C2)Cl)O)CCC[C@@H](C3=CC=C(C=C3)F)O

> <PUBCHEM_CACTVS_TPSA>
43.7

> <PUBCHEM_MONOISOTOPIC_WEIGHT>
377.1557849

> <PUBCHEM_TOTAL_CHARGE>
0

> <PUBCHEM_HEAVY_ATOM_COUNT>
26

> <PUBCHEM_ATOM_DEF_STEREO_COUNT>
1

> <PUBCHEM_ATOM_UDEF_STEREO_COUNT>
0

> <PUBCHEM_BOND_DEF_STEREO_COUNT>
0

> <PUBCHEM_BOND_UDEF_STEREO_COUNT>
0

> <PUBCHEM_ISOTOPIC_ATOM_COUNT>
0

> <PUBCHEM_COMPONENT_COUNT>
1

> <PUBCHEM_CACTVS_TAUTO_COUNT>
-1

> <PUBCHEM_COORDINATE_TYPE>
1
5
255

> <PUBCHEM_BONDANNOTATIONS>
12  15  8
12  16  8
15  18  8
16  19  8
18  21  8
19  21  8
20  22  8
20  23  8
22  24  8
23  25  8
24  26  8
25  26  8
17  4  5

$$$$
