44454384
  -OEChem-09292322242D

 67 72  0     1  0  0  0  0  0999 V2000
    8.8936    0.9895    0.0000 S   0  0  0  0  0  0  0  0  0  0  0  0
   11.2115   -1.5848    0.0000 N   0  0  3  0  0  0  0  0  0  0  0  0
   13.9113   -3.3127    0.0000 N   0  0  0  0  0  0  0  0  0  0  0  0
   14.4113   -1.7738    0.0000 N   0  0  0  0  0  0  0  0  0  0  0  0
    7.6335    2.2496    0.0000 N   0  0  0  0  0  0  0  0  0  0  0  0
    7.1335    0.7107    0.0000 N   0  0  0  0  0  0  0  0  0  0  0  0
    6.3245    1.2985    0.0000 N   0  0  0  0  0  0  0  0  0  0  0  0
    3.4259    3.6702    0.0000 N   0  0  0  0  0  0  0  0  0  0  0  0
   11.3418   -2.5569    0.0000 C   0  0  0  0  0  0  0  0  0  0  0  0
   11.8883   -0.8750    0.0000 C   0  0  0  0  0  0  0  0  0  0  0  0
   12.1818   -3.0633    0.0000 C   0  0  0  0  0  0  0  0  0  0  0  0
   13.1023   -2.7249    0.0000 C   0  0  0  0  0  0  0  0  0  0  0  0
   12.8655   -0.9590    0.0000 C   0  0  0  0  0  0  0  0  0  0  0  0
   13.4113   -1.7738    0.0000 C   0  0  0  0  0  0  0  0  0  0  0  0
   10.2604   -1.2758    0.0000 C   0  0  0  0  0  0  0  0  0  0  0  0
   14.7203   -2.7249    0.0000 C   0  0  0  0  0  0  0  0  0  0  0  0
   10.0525   -0.2976    0.0000 C   0  0  0  0  0  0  0  0  0  0  0  0
   14.0042   -4.3502    0.0000 C   0  0  0  0  0  0  0  0  0  0  0  0
    9.1015    0.0114    0.0000 C   0  0  0  0  0  0  0  0  0  0  0  0
   15.6783   -3.1339    0.0000 C   0  0  0  0  0  0  0  0  0  0  0  0
   15.7952   -4.1689    0.0000 C   0  0  0  0  0  0  0  0  0  0  0  0
   14.9525   -4.7812    0.0000 C   0  0  0  0  0  0  0  0  0  0  0  0
   16.7103   -4.5721    0.0000 C   0  0  0  0  0  0  0  0  0  0  0  0
    7.9425    1.2985    0.0000 C   0  0  0  0  0  0  0  0  0  0  0  0
    6.6335    2.2496    0.0000 C   0  0  0  0  0  0  0  0  0  0  0  0
    6.0457    3.0586    0.0000 C   0  0  0  0  0  0  0  0  0  0  0  0
    5.0512    2.9541    0.0000 C   0  0  0  0  0  0  0  0  0  0  0  0
    8.2213    3.0586    0.0000 C   0  0  0  0  0  0  0  0  0  0  0  0
    4.4634    3.7631    0.0000 C   0  0  0  0  0  0  0  0  0  0  0  0
    6.4524    3.9722    0.0000 C   0  0  0  0  0  0  0  0  0  0  0  0
    4.6422    1.9961    0.0000 C   0  0  0  0  0  0  0  0  0  0  0  0
    4.8701    4.6766    0.0000 C   0  0  0  0  0  0  0  0  0  0  0  0
    5.8646    4.7812    0.0000 C   0  0  0  0  0  0  0  0  0  0  0  0
    3.6072    1.8792    0.0000 C   0  0  0  0  0  0  0  0  0  0  0  0
    2.9949    2.7219    0.0000 C   0  0  0  0  0  0  0  0  0  0  0  0
    2.0000    2.6212    0.0000 C   0  0  0  0  0  0  0  0  0  0  0  0
   10.7245   -2.5000    0.0000 H   0  0  0  0  0  0  0  0  0  0  0  0
   11.1484   -3.1460    0.0000 H   0  0  0  0  0  0  0  0  0  0  0  0
   12.0781   -0.2847    0.0000 H   0  0  0  0  0  0  0  0  0  0  0  0
   11.3554   -0.5582    0.0000 H   0  0  0  0  0  0  0  0  0  0  0  0
   11.7511   -3.5094    0.0000 H   0  0  0  0  0  0  0  0  0  0  0  0
   12.5203   -3.5828    0.0000 H   0  0  0  0  0  0  0  0  0  0  0  0
   13.4447   -0.7377    0.0000 H   0  0  0  0  0  0  0  0  0  0  0  0
   12.7793   -0.3450    0.0000 H   0  0  0  0  0  0  0  0  0  0  0  0
    9.6408   -1.2974    0.0000 H   0  0  0  0  0  0  0  0  0  0  0  0
   10.1741   -1.8898    0.0000 H   0  0  0  0  0  0  0  0  0  0  0  0
   10.6721   -0.2760    0.0000 H   0  0  0  0  0  0  0  0  0  0  0  0
   10.1388    0.3163    0.0000 H   0  0  0  0  0  0  0  0  0  0  0  0
   13.4985   -4.7088    0.0000 H   0  0  0  0  0  0  0  0  0  0  0  0
    8.4818   -0.0103    0.0000 H   0  0  0  0  0  0  0  0  0  0  0  0
    9.0152   -0.6026    0.0000 H   0  0  0  0  0  0  0  0  0  0  0  0
   16.1757   -2.7637    0.0000 H   0  0  0  0  0  0  0  0  0  0  0  0
   15.0149   -5.3980    0.0000 H   0  0  0  0  0  0  0  0  0  0  0  0
   16.4603   -5.1395    0.0000 H   0  0  0  0  0  0  0  0  0  0  0  0
   17.2777   -4.8221    0.0000 H   0  0  0  0  0  0  0  0  0  0  0  0
   16.9603   -4.0048    0.0000 H   0  0  0  0  0  0  0  0  0  0  0  0
    8.7229    2.6942    0.0000 H   0  0  0  0  0  0  0  0  0  0  0  0
    8.5857    3.5602    0.0000 H   0  0  0  0  0  0  0  0  0  0  0  0
    7.7197    3.4230    0.0000 H   0  0  0  0  0  0  0  0  0  0  0  0
    7.0690    4.0370    0.0000 H   0  0  0  0  0  0  0  0  0  0  0  0
    5.0124    1.4987    0.0000 H   0  0  0  0  0  0  0  0  0  0  0  0
    4.5057    5.1782    0.0000 H   0  0  0  0  0  0  0  0  0  0  0  0
    6.1168    5.3476    0.0000 H   0  0  0  0  0  0  0  0  0  0  0  0
    3.3572    1.3118    0.0000 H   0  0  0  0  0  0  0  0  0  0  0  0
    1.9376    3.2381    0.0000 H   0  0  0  0  0  0  0  0  0  0  0  0
    1.3832    2.5588    0.0000 H   0  0  0  0  0  0  0  0  0  0  0  0
    2.0624    2.0044    0.0000 H   0  0  0  0  0  0  0  0  0  0  0  0
  1 19  1  0  0  0  0
  1 24  1  0  0  0  0
  2  9  1  0  0  0  0
  2 10  1  0  0  0  0
  2 15  1  0  0  0  0
  3 12  1  0  0  0  0
  3 16  1  0  0  0  0
  3 18  1  0  0  0  0
  4 14  1  0  0  0  0
  4 16  2  0  0  0  0
  5 24  1  0  0  0  0
  5 25  1  0  0  0  0
  5 28  1  0  0  0  0
  6  7  1  0  0  0  0
  6 24  2  0  0  0  0
  7 25  2  0  0  0  0
  8 29  1  0  0  0  0
  8 35  2  0  0  0  0
  9 11  1  0  0  0  0
  9 37  1  0  0  0  0
  9 38  1  0  0  0  0
 10 13  1  0  0  0  0
 10 39  1  0  0  0  0
 10 40  1  0  0  0  0
 11 12  1  0  0  0  0
 11 41  1  0  0  0  0
 11 42  1  0  0  0  0
 12 14  2  0  0  0  0
 13 14  1  0  0  0  0
 13 43  1  0  0  0  0
 13 44  1  0  0  0  0
 15 17  1  0  0  0  0
 15 45  1  0  0  0  0
 15 46  1  0  0  0  0
 16 20  1  0  0  0  0
 17 19  1  0  0  0  0
 17 47  1  0  0  0  0
 17 48  1  0  0  0  0
 18 22  2  0  0  0  0
 18 49  1  0  0  0  0
 19 50  1  0  0  0  0
 19 51  1  0  0  0  0
 20 21  2  0  0  0  0
 20 52  1  0  0  0  0
 21 22  1  0  0  0  0
 21 23  1  0  0  0  0
 22 53  1  0  0  0  0
 23 54  1  0  0  0  0
 23 55  1  0  0  0  0
 23 56  1  0  0  0  0
 25 26  1  0  0  0  0
 26 27  2  0  0  0  0
 26 30  1  0  0  0  0
 27 29  1  0  0  0  0
 27 31  1  0  0  0  0
 28 57  1  0  0  0  0
 28 58  1  0  0  0  0
 28 59  1  0  0  0  0
 29 32  2  0  0  0  0
 30 33  2  0  0  0  0
 30 60  1  0  0  0  0
 31 34  2  0  0  0  0
 31 61  1  0  0  0  0
 32 33  1  0  0  0  0
 32 62  1  0  0  0  0
 33 63  1  0  0  0  0
 34 35  1  0  0  0  0
 34 64  1  0  0  0  0
 35 36  1  0  0  0  0
 36 65  1  0  0  0  0
 36 66  1  0  0  0  0
 36 67  1  0  0  0  0
M  END
> <PUBCHEM_COMPOUND_CID>
44454384

> <PUBCHEM_COMPOUND_CANONICALIZED>
1

> <PUBCHEM_CACTVS_COMPLEXITY>
726

> <PUBCHEM_CACTVS_HBOND_ACCEPTOR>
6

> <PUBCHEM_CACTVS_HBOND_DONOR>
0

> <PUBCHEM_CACTVS_ROTATABLE_BOND>
6

> <PUBCHEM_CACTVS_SUBSKEYS>
AAADceB7gABAAAAAAAAAAAAAAAAAAWLAAAA8WIAABYAAAFix/gAAHAQIAAAADAjFXwS/8P8MGAiiAzZnZACS0C9xErAd2CA4dJiIaOLg2ZGUIAhoiALIyCcQgMAOgAAAQAASAAAAAACAACQAAAAAAAAAAA==

> <PUBCHEM_IUPAC_OPENEYE_NAME>
5-methyl-12-[3-[[4-methyl-5-(2-methyl-5-quinolyl)-1,2,4-triazol-3-yl]sulfanyl]propyl]-2,8,12-triazatricyclo[7.5.0.02,7]tetradeca-1(9),3,5,7-tetraene

> <PUBCHEM_IUPAC_CAS_NAME>
5-methyl-12-[3-[[4-methyl-5-(2-methyl-5-quinolinyl)-1,2,4-triazol-3-yl]thio]propyl]-2,8,12-triazatricyclo[7.5.0.02,7]tetradeca-1(9),3,5,7-tetraene

> <PUBCHEM_IUPAC_NAME_MARKUP>
5-methyl-12-[3-[[4-methyl-5-(2-methylquinolin-5-yl)-1,2,4-triazol-3-yl]sulfanyl]propyl]-2,8,12-triazatricyclo[7.5.0.0<SUP>2,7</SUP>]tetradeca-1(9),3,5,7-tetraene

> <PUBCHEM_IUPAC_NAME>
5-methyl-12-[3-[[4-methyl-5-(2-methylquinolin-5-yl)-1,2,4-triazol-3-yl]sulfanyl]propyl]-2,8,12-triazatricyclo[7.5.0.02,7]tetradeca-1(9),3,5,7-tetraene

> <PUBCHEM_IUPAC_SYSTEMATIC_NAME>
5-methyl-12-[3-[[4-methyl-5-(2-methylquinolin-5-yl)-1,2,4-triazol-3-yl]sulfanyl]propyl]-2,8,12-triazatricyclo[7.5.0.02,7]tetradeca-1(9),3,5,7-tetraene

> <PUBCHEM_IUPAC_TRADITIONAL_NAME>
5-methyl-12-[3-[[4-methyl-5-(2-methyl-5-quinolyl)-1,2,4-triazol-3-yl]thio]propyl]-2,8,12-triazatricyclo[7.5.0.02,7]tetradeca-1(9),3,5,7-tetraene

> <PUBCHEM_IUPAC_INCHI>
InChI=1S/C28H31N7S/c1-19-10-16-35-25-12-15-34(14-11-24(25)30-26(35)18-19)13-5-17-36-28-32-31-27(33(28)3)22-6-4-7-23-21(22)9-8-20(2)29-23/h4,6-10,16,18H,5,11-15,17H2,1-3H3

> <PUBCHEM_IUPAC_INCHIKEY>
NAFIXABLSKOHPB-UHFFFAOYSA-N

> <PUBCHEM_XLOGP3_AA>
5.3

> <PUBCHEM_EXACT_MASS>
497.23616519

> <PUBCHEM_MOLECULAR_FORMULA>
C28H31N7S

> <PUBCHEM_MOLECULAR_WEIGHT>
497.7

> <PUBCHEM_OPENEYE_CAN_SMILES>
CC1=CC2=NC3=C(N2C=C1)CCN(CC3)CCCSC4=NN=C(N4C)C5=C6C=CC(=NC6=CC=C5)C

> <PUBCHEM_OPENEYE_ISO_SMILES>
CC1=CC2=NC3=C(N2C=C1)CCN(CC3)CCCSC4=NN=C(N4C)C5=C6C=CC(=NC6=CC=C5)C

> <PUBCHEM_CACTVS_TPSA>
89.4

> <PUBCHEM_MONOISOTOPIC_WEIGHT>
497.23616519

> <PUBCHEM_TOTAL_CHARGE>
0

> <PUBCHEM_HEAVY_ATOM_COUNT>
36

> <PUBCHEM_ATOM_DEF_STEREO_COUNT>
0

> <PUBCHEM_ATOM_UDEF_STEREO_COUNT>
0

> <PUBCHEM_BOND_DEF_STEREO_COUNT>
0

> <PUBCHEM_BOND_UDEF_STEREO_COUNT>
0

> <PUBCHEM_ISOTOPIC_ATOM_COUNT>
0

> <PUBCHEM_COMPONENT_COUNT>
1

> <PUBCHEM_CACTVS_TAUTO_COUNT>
-1

> <PUBCHEM_COORDINATE_TYPE>
1
5
255

> <PUBCHEM_BONDANNOTATIONS>
12  14  8
16  20  8
18  22  8
20  21  8
21  22  8
26  27  8
26  30  8
27  29  8
27  31  8
29  32  8
3  12  8
3  16  8
3  18  8
30  33  8
31  34  8
32  33  8
34  35  8
4  14  8
4  16  8
5  24  8
5  25  8
6  24  8
6  7  8
7  25  8
8  29  8
8  35  8

$$$$
