145991746
  -OEChem-09292322062D

 54 59  0     1  0  0  0  0  0999 V2000
   13.3105   -0.0815    0.0000 S   0  0  0  0  0  0  0  0  0  0  0  0
    4.6735   -1.6560    0.0000 O   0  0  0  0  0  0  0  0  0  0  0  0
    5.8741    1.6428    0.0000 O   0  0  0  0  0  0  0  0  0  0  0  0
    5.5303   -0.0999    0.0000 N   0  0  0  0  0  0  0  0  0  0  0  0
    8.1757   -0.1412    0.0000 N   0  0  0  0  0  0  0  0  0  0  0  0
   10.0551   -0.8252    0.0000 N   0  0  0  0  0  0  0  0  0  0  0  0
    3.9217   -0.0465    0.0000 C   0  0  2  0  0  0  0  0  0  0  0  0
    4.2637    0.8932    0.0000 C   0  0  1  0  0  0  0  0  0  0  0  0
    2.5490    0.5455    0.0000 C   0  0  1  0  0  0  0  0  0  0  0  0
    2.2902    1.5114    0.0000 C   0  0  2  0  0  0  0  0  0  0  0  0
    3.0268    2.4940    0.0000 C   0  0  0  0  0  0  0  0  0  0  0  0
    1.1501    0.0367    0.0000 C   0  0  0  0  0  0  0  0  0  0  0  0
    0.8913    1.0026    0.0000 C   0  0  0  0  0  0  0  0  0  0  0  0
    4.7066   -0.6565    0.0000 C   0  0  0  0  0  0  0  0  0  0  0  0
    5.2571    0.8559    0.0000 C   0  0  0  0  0  0  0  0  0  0  0  0
    6.4700   -0.4419    0.0000 C   0  0  0  0  0  0  0  0  0  0  0  0
    7.2360    0.2009    0.0000 C   0  0  0  0  0  0  0  0  0  0  0  0
    8.3494   -1.1260    0.0000 C   0  0  0  0  0  0  0  0  0  0  0  0
    8.9418    0.5016    0.0000 C   0  0  0  0  0  0  0  0  0  0  0  0
    9.2891   -1.4680    0.0000 C   0  0  0  0  0  0  0  0  0  0  0  0
    9.8815    0.1596    0.0000 C   0  0  0  0  0  0  0  0  0  0  0  0
   10.9948   -1.1672    0.0000 C   0  0  0  0  0  0  0  0  0  0  0  0
   11.7608   -0.5244    0.0000 C   0  0  0  0  0  0  0  0  0  0  0  0
   11.1685   -2.1520    0.0000 C   0  0  0  0  0  0  0  0  0  0  0  0
   12.7005   -0.8664    0.0000 C   0  0  0  0  0  0  0  0  0  0  0  0
   11.7981    0.4690    0.0000 C   0  0  0  0  0  0  0  0  0  0  0  0
   12.1081   -2.4940    0.0000 C   0  0  0  0  0  0  0  0  0  0  0  0
   12.8742   -1.8513    0.0000 C   0  0  0  0  0  0  0  0  0  0  0  0
   12.7539    0.7421    0.0000 C   0  0  0  0  0  0  0  0  0  0  0  0
    3.6310   -0.8453    0.0000 H   0  0  0  0  0  0  0  0  0  0  0  0
    4.5544    1.6919    0.0000 H   0  0  0  0  0  0  0  0  0  0  0  0
    2.7690   -0.2755    0.0000 H   0  0  0  0  0  0  0  0  0  0  0  0
    2.0702    2.3325    0.0000 H   0  0  0  0  0  0  0  0  0  0  0  0
    2.7090    3.0264    0.0000 H   0  0  0  0  0  0  0  0  0  0  0  0
    3.6400    2.5860    0.0000 H   0  0  0  0  0  0  0  0  0  0  0  0
    0.8637   -0.5132    0.0000 H   0  0  0  0  0  0  0  0  0  0  0  0
    0.3413    1.2890    0.0000 H   0  0  0  0  0  0  0  0  0  0  0  0
    6.9449   -0.8405    0.0000 H   0  0  0  0  0  0  0  0  0  0  0  0
    6.1600   -0.9789    0.0000 H   0  0  0  0  0  0  0  0  0  0  0  0
    6.7611    0.5994    0.0000 H   0  0  0  0  0  0  0  0  0  0  0  0
    7.5460    0.7378    0.0000 H   0  0  0  0  0  0  0  0  0  0  0  0
    8.2417   -1.7365    0.0000 H   0  0  0  0  0  0  0  0  0  0  0  0
    7.7294   -1.1260    0.0000 H   0  0  0  0  0  0  0  0  0  0  0  0
    8.4668    0.9002    0.0000 H   0  0  0  0  0  0  0  0  0  0  0  0
    9.2518    1.0386    0.0000 H   0  0  0  0  0  0  0  0  0  0  0  0
    9.7640   -1.8665    0.0000 H   0  0  0  0  0  0  0  0  0  0  0  0
    8.9791   -2.0049    0.0000 H   0  0  0  0  0  0  0  0  0  0  0  0
    9.9891    0.7702    0.0000 H   0  0  0  0  0  0  0  0  0  0  0  0
   10.5015    0.1596    0.0000 H   0  0  0  0  0  0  0  0  0  0  0  0
   10.6935   -2.5506    0.0000 H   0  0  0  0  0  0  0  0  0  0  0  0
   11.3102    0.8515    0.0000 H   0  0  0  0  0  0  0  0  0  0  0  0
   12.2158   -3.1046    0.0000 H   0  0  0  0  0  0  0  0  0  0  0  0
   13.4568   -2.0633    0.0000 H   0  0  0  0  0  0  0  0  0  0  0  0
   12.9660    1.3247    0.0000 H   0  0  0  0  0  0  0  0  0  0  0  0
  1 25  1  0  0  0  0
  1 29  1  0  0  0  0
  2 14  2  0  0  0  0
  3 15  2  0  0  0  0
  4 14  1  0  0  0  0
  4 15  1  0  0  0  0
  4 16  1  0  0  0  0
  5 17  1  0  0  0  0
  5 18  1  0  0  0  0
  5 19  1  0  0  0  0
  6 20  1  0  0  0  0
  6 21  1  0  0  0  0
  6 22  1  0  0  0  0
  7  8  1  0  0  0  0
  7  9  1  0  0  0  0
  7 14  1  0  0  0  0
  7 30  1  6  0  0  0
  8 10  1  0  0  0  0
  8 15  1  0  0  0  0
  8 31  1  6  0  0  0
  9 11  1  0  0  0  0
  9 12  1  0  0  0  0
  9 32  1  1  0  0  0
 10 11  1  0  0  0  0
 10 13  1  0  0  0  0
 10 33  1  6  0  0  0
 11 34  1  0  0  0  0
 11 35  1  0  0  0  0
 12 13  2  0  0  0  0
 12 36  1  0  0  0  0
 13 37  1  0  0  0  0
 16 17  1  0  0  0  0
 16 38  1  0  0  0  0
 16 39  1  0  0  0  0
 17 40  1  0  0  0  0
 17 41  1  0  0  0  0
 18 20  1  0  0  0  0
 18 42  1  0  0  0  0
 18 43  1  0  0  0  0
 19 21  1  0  0  0  0
 19 44  1  0  0  0  0
 19 45  1  0  0  0  0
 20 46  1  0  0  0  0
 20 47  1  0  0  0  0
 21 48  1  0  0  0  0
 21 49  1  0  0  0  0
 22 23  2  0  0  0  0
 22 24  1  0  0  0  0
 23 25  1  0  0  0  0
 23 26  1  0  0  0  0
 24 27  2  0  0  0  0
 24 50  1  0  0  0  0
 25 28  2  0  0  0  0
 26 29  2  0  0  0  0
 26 51  1  0  0  0  0
 27 28  1  0  0  0  0
 27 52  1  0  0  0  0
 28 53  1  0  0  0  0
 29 54  1  0  0  0  0
M  END
> <PUBCHEM_COMPOUND_CID>
145991746

> <PUBCHEM_COMPOUND_CANONICALIZED>
1

> <PUBCHEM_CACTVS_COMPLEXITY>
689

> <PUBCHEM_CACTVS_HBOND_ACCEPTOR>
5

> <PUBCHEM_CACTVS_HBOND_DONOR>
0

> <PUBCHEM_CACTVS_ROTATABLE_BOND>
4

> <PUBCHEM_CACTVS_SUBSKEYS>
AAADceB7MABAAAAAAAAAAAAAAAAAAeJECAA8QIAAAAAWAEgB8AAAHgQAAAAADQjF2ASwwcMAAAiMAiVSUACDAIAhChBIiBkIZIgIYDLgkZGUIAxghiDoyAcdiICOgAAAACAGAAAAAAAAQAwAAQAACAAAAA==

> <PUBCHEM_IUPAC_OPENEYE_NAME>
(1S,2S,6R,7R)-4-[2-[4-(benzothiophen-4-yl)piperazin-1-yl]ethyl]-4-azatricyclo[5.2.1.02,6]dec-8-ene-3,5-dione

> <PUBCHEM_IUPAC_CAS_NAME>
(1S,2S,6R,7R)-4-[2-[4-(1-benzothiophen-4-yl)-1-piperazinyl]ethyl]-4-azatricyclo[5.2.1.02,6]dec-8-ene-3,5-dione

> <PUBCHEM_IUPAC_NAME_MARKUP>
(1<I>S</I>,2<I>S</I>,6<I>R</I>,7<I>R</I>)-4-[2-[4-(1-benzothiophen-4-yl)piperazin-1-yl]ethyl]-4-azatricyclo[5.2.1.0<SUP>2,6</SUP>]dec-8-ene-3,5-dione

> <PUBCHEM_IUPAC_NAME>
(1S,2S,6R,7R)-4-[2-[4-(1-benzothiophen-4-yl)piperazin-1-yl]ethyl]-4-azatricyclo[5.2.1.02,6]dec-8-ene-3,5-dione

> <PUBCHEM_IUPAC_SYSTEMATIC_NAME>
(1S,2S,6R,7R)-4-[2-[4-(1-benzothiophen-4-yl)piperazin-1-yl]ethyl]-4-azatricyclo[5.2.1.02,6]dec-8-ene-3,5-dione

> <PUBCHEM_IUPAC_TRADITIONAL_NAME>
(1S,2S,6R,7R)-4-[2-[4-(benzothiophen-4-yl)piperazino]ethyl]-4-azatricyclo[5.2.1.02,6]dec-8-ene-3,5-quinone

> <PUBCHEM_IUPAC_INCHI>
InChI=1S/C23H25N3O2S/c27-22-20-15-4-5-16(14-15)21(20)23(28)26(22)12-9-24-7-10-25(11-8-24)18-2-1-3-19-17(18)6-13-29-19/h1-6,13,15-16,20-21H,7-12,14H2/t15-,16+,20+,21-

> <PUBCHEM_IUPAC_INCHIKEY>
CYJSCTCAPUEIHE-IFCLKOLQSA-N

> <PUBCHEM_XLOGP3_AA>
2.9

> <PUBCHEM_EXACT_MASS>
407.16674822

> <PUBCHEM_MOLECULAR_FORMULA>
C23H25N3O2S

> <PUBCHEM_MOLECULAR_WEIGHT>
407.5

> <PUBCHEM_OPENEYE_CAN_SMILES>
C1CN(CCN1CCN2C(=O)C3C4CC(C3C2=O)C=C4)C5=C6C=CSC6=CC=C5

> <PUBCHEM_OPENEYE_ISO_SMILES>
C1CN(CCN1CCN2C(=O)[C@@H]3[C@@H]4C[C@H]([C@@H]3C2=O)C=C4)C5=C6C=CSC6=CC=C5

> <PUBCHEM_CACTVS_TPSA>
72.1

> <PUBCHEM_MONOISOTOPIC_WEIGHT>
407.16674822

> <PUBCHEM_TOTAL_CHARGE>
0

> <PUBCHEM_HEAVY_ATOM_COUNT>
29

> <PUBCHEM_ATOM_DEF_STEREO_COUNT>
4

> <PUBCHEM_ATOM_UDEF_STEREO_COUNT>
0

> <PUBCHEM_BOND_DEF_STEREO_COUNT>
0

> <PUBCHEM_BOND_UDEF_STEREO_COUNT>
0

> <PUBCHEM_ISOTOPIC_ATOM_COUNT>
0

> <PUBCHEM_COMPONENT_COUNT>
1

> <PUBCHEM_CACTVS_TAUTO_COUNT>
-1

> <PUBCHEM_COORDINATE_TYPE>
1
5
255

> <PUBCHEM_BONDANNOTATIONS>
1  25  8
1  29  8
10  33  6
22  23  8
22  24  8
23  25  8
23  26  8
24  27  8
25  28  8
26  29  8
27  28  8
7  30  6
8  31  6
9  32  5

$$$$
