168289099
  -OEChem-09292322442D

 62 64  0     0  0  0  0  0  0999 V2000
    4.9338   11.1316    0.0000 O   0  0  0  0  0  0  0  0  0  0  0  0
    3.6014    1.5000    0.0000 O   0  0  0  0  0  0  0  0  0  0  0  0
    6.1995    1.0000    0.0000 O   0  0  0  0  0  0  0  0  0  0  0  0
    4.4674    0.0000    0.0000 O   0  0  0  0  0  0  0  0  0  0  0  0
    5.3335    2.5000    0.0000 O   0  0  0  0  0  0  0  0  0  0  0  0
    4.9338    8.1316    0.0000 N   0  0  0  0  0  0  0  0  0  0  0  0
    6.6659    7.1316    0.0000 N   0  0  0  0  0  0  0  0  0  0  0  0
    3.2018   11.1316    0.0000 N   0  0  0  0  0  0  0  0  0  0  0  0
    8.3979    9.1316    0.0000 N   0  0  0  0  0  0  0  0  0  0  0  0
    5.7998    8.6316    0.0000 C   0  0  0  0  0  0  0  0  0  0  0  0
    4.9338    7.1316    0.0000 C   0  0  0  0  0  0  0  0  0  0  0  0
    4.0678    8.6316    0.0000 C   0  0  0  0  0  0  0  0  0  0  0  0
    6.6659    8.1316    0.0000 C   0  0  0  0  0  0  0  0  0  0  0  0
    5.7998    6.6316    0.0000 C   0  0  0  0  0  0  0  0  0  0  0  0
    4.0678    9.6316    0.0000 C   0  0  0  0  0  0  0  0  0  0  0  0
    3.2018   10.1316    0.0000 C   0  0  0  0  0  0  0  0  0  0  0  0
    7.5319    6.6316    0.0000 C   0  0  0  0  0  0  0  0  0  0  0  0
    2.3358   11.6316    0.0000 C   0  0  0  0  0  0  0  0  0  0  0  0
    3.2018   13.1316    0.0000 C   0  0  0  0  0  0  0  0  0  0  0  0
    2.3358   12.6316    0.0000 C   0  0  0  0  0  0  0  0  0  0  0  0
    4.0678   12.6316    0.0000 C   0  0  0  0  0  0  0  0  0  0  0  0
    4.0678   11.6316    0.0000 C   0  0  0  0  0  0  0  0  0  0  0  0
    8.3979    7.1316    0.0000 C   0  0  0  0  0  0  0  0  0  0  0  0
    7.5319    5.6316    0.0000 C   0  0  0  0  0  0  0  0  0  0  0  0
    1.4418   11.0969    0.0000 C   0  0  0  0  0  0  0  0  0  0  0  0
    1.4418   13.1662    0.0000 C   0  0  0  0  0  0  0  0  0  0  0  0
    0.5357   11.6107    0.0000 C   0  0  0  0  0  0  0  0  0  0  0  0
    0.5357   12.6524    0.0000 C   0  0  0  0  0  0  0  0  0  0  0  0
    9.2640    6.6316    0.0000 C   0  0  0  0  0  0  0  0  0  0  0  0
    8.3979    5.1316    0.0000 C   0  0  0  0  0  0  0  0  0  0  0  0
    9.2640    5.6316    0.0000 C   0  0  0  0  0  0  0  0  0  0  0  0
    8.3979    8.1316    0.0000 C   0  0  0  0  0  0  0  0  0  0  0  0
    4.4674    1.0000    0.0000 C   0  0  0  0  0  0  0  0  0  0  0  0
    5.3335    1.5000    0.0000 C   0  0  0  0  0  0  0  0  0  0  0  0
    6.1984    9.1065    0.0000 H   0  0  0  0  0  0  0  0  0  0  0  0
    5.4013    9.1065    0.0000 H   0  0  0  0  0  0  0  0  0  0  0  0
    4.3232    7.2392    0.0000 H   0  0  0  0  0  0  0  0  0  0  0  0
    4.7218    6.5489    0.0000 H   0  0  0  0  0  0  0  0  0  0  0  0
    3.4572    8.7392    0.0000 H   0  0  0  0  0  0  0  0  0  0  0  0
    3.8557    8.0490    0.0000 H   0  0  0  0  0  0  0  0  0  0  0  0
    7.2764    8.0239    0.0000 H   0  0  0  0  0  0  0  0  0  0  0  0
    6.8779    8.7142    0.0000 H   0  0  0  0  0  0  0  0  0  0  0  0
    5.4013    6.1566    0.0000 H   0  0  0  0  0  0  0  0  0  0  0  0
    6.1984    6.1566    0.0000 H   0  0  0  0  0  0  0  0  0  0  0  0
    4.6784    9.5239    0.0000 H   0  0  0  0  0  0  0  0  0  0  0  0
    4.2798   10.2142    0.0000 H   0  0  0  0  0  0  0  0  0  0  0  0
    2.5912   10.2392    0.0000 H   0  0  0  0  0  0  0  0  0  0  0  0
    2.9897    9.5490    0.0000 H   0  0  0  0  0  0  0  0  0  0  0  0
    3.6003   13.6065    0.0000 H   0  0  0  0  0  0  0  0  0  0  0  0
    2.8032   13.6065    0.0000 H   0  0  0  0  0  0  0  0  0  0  0  0
    4.6784   12.5239    0.0000 H   0  0  0  0  0  0  0  0  0  0  0  0
    4.2798   13.2142    0.0000 H   0  0  0  0  0  0  0  0  0  0  0  0
    6.9950    5.3216    0.0000 H   0  0  0  0  0  0  0  0  0  0  0  0
    1.4490   10.4769    0.0000 H   0  0  0  0  0  0  0  0  0  0  0  0
    1.4490   13.7862    0.0000 H   0  0  0  0  0  0  0  0  0  0  0  0
    0.0000   11.2987    0.0000 H   0  0  0  0  0  0  0  0  0  0  0  0
    0.0000   12.9644    0.0000 H   0  0  0  0  0  0  0  0  0  0  0  0
    9.8009    6.9416    0.0000 H   0  0  0  0  0  0  0  0  0  0  0  0
    8.3979    4.5116    0.0000 H   0  0  0  0  0  0  0  0  0  0  0  0
    9.8009    5.3216    0.0000 H   0  0  0  0  0  0  0  0  0  0  0  0
    3.0645    1.1900    0.0000 H   0  0  0  0  0  0  0  0  0  0  0  0
    6.7364    1.3100    0.0000 H   0  0  0  0  0  0  0  0  0  0  0  0
  1 22  2  0  0  0  0
  2 33  1  0  0  0  0
  2 61  1  0  0  0  0
  3 34  1  0  0  0  0
  3 62  1  0  0  0  0
  4 33  2  0  0  0  0
  5 34  2  0  0  0  0
  6 10  1  0  0  0  0
  6 11  1  0  0  0  0
  6 12  1  0  0  0  0
  7 13  1  0  0  0  0
  7 14  1  0  0  0  0
  7 17  1  0  0  0  0
  8 16  1  0  0  0  0
  8 18  1  0  0  0  0
  8 22  1  0  0  0  0
  9 32  3  0  0  0  0
 10 13  1  0  0  0  0
 10 35  1  0  0  0  0
 10 36  1  0  0  0  0
 11 14  1  0  0  0  0
 11 37  1  0  0  0  0
 11 38  1  0  0  0  0
 12 15  1  0  0  0  0
 12 39  1  0  0  0  0
 12 40  1  0  0  0  0
 13 41  1  0  0  0  0
 13 42  1  0  0  0  0
 14 43  1  0  0  0  0
 14 44  1  0  0  0  0
 15 16  1  0  0  0  0
 15 45  1  0  0  0  0
 15 46  1  0  0  0  0
 16 47  1  0  0  0  0
 16 48  1  0  0  0  0
 17 23  1  0  0  0  0
 17 24  2  0  0  0  0
 18 20  1  0  0  0  0
 18 25  2  0  0  0  0
 19 20  1  0  0  0  0
 19 21  1  0  0  0  0
 19 49  1  0  0  0  0
 19 50  1  0  0  0  0
 20 26  2  0  0  0  0
 21 22  1  0  0  0  0
 21 51  1  0  0  0  0
 21 52  1  0  0  0  0
 23 29  2  0  0  0  0
 23 32  1  0  0  0  0
 24 30  1  0  0  0  0
 24 53  1  0  0  0  0
 25 27  1  0  0  0  0
 25 54  1  0  0  0  0
 26 28  1  0  0  0  0
 26 55  1  0  0  0  0
 27 28  2  0  0  0  0
 27 56  1  0  0  0  0
 28 57  1  0  0  0  0
 29 31  1  0  0  0  0
 29 58  1  0  0  0  0
 30 31  2  0  0  0  0
 30 59  1  0  0  0  0
 31 60  1  0  0  0  0
 33 34  1  0  0  0  0
M  END
> <PUBCHEM_COMPOUND_CID>
168289099

> <PUBCHEM_COMPOUND_CANONICALIZED>
1

> <PUBCHEM_CACTVS_COMPLEXITY>
648

> <PUBCHEM_CACTVS_HBOND_ACCEPTOR>
8

> <PUBCHEM_CACTVS_HBOND_DONOR>
2

> <PUBCHEM_CACTVS_ROTATABLE_BOND>
6

> <PUBCHEM_CACTVS_SUBSKEYS>
AAADceB7uAAAAAAAAAAAAAAAAAAAAAAAAAA8eIEAAAAAAACxQAAAHgAACAAADAjBmAQwyIMAAgCYBiXSWAKiAAAhAgAIiAFIZIgJ4DLA0ZGUIAhghgDJyA8YiYCeAAAAAAACAAAAAAAAAAQAAAAAAAAAAA==

> <PUBCHEM_IUPAC_OPENEYE_NAME>
oxalic acid;2-[4-[3-(2-oxo-3,4-dihydroquinolin-1-yl)propyl]piperazin-1-yl]benzonitrile

> <PUBCHEM_IUPAC_CAS_NAME>
oxalic acid;2-[4-[3-(2-oxo-3,4-dihydroquinolin-1-yl)propyl]-1-piperazinyl]benzonitrile

> <PUBCHEM_IUPAC_NAME_MARKUP>
oxalic acid;2-[4-[3-(2-oxo-3,4-dihydroquinolin-1-yl)propyl]piperazin-1-yl]benzonitrile

> <PUBCHEM_IUPAC_NAME>
oxalic acid;2-[4-[3-(2-oxo-3,4-dihydroquinolin-1-yl)propyl]piperazin-1-yl]benzonitrile

> <PUBCHEM_IUPAC_SYSTEMATIC_NAME>
ethanedioic acid;2-[4-[3-(2-oxidanylidene-3,4-dihydroquinolin-1-yl)propyl]piperazin-1-yl]benzenecarbonitrile

> <PUBCHEM_IUPAC_TRADITIONAL_NAME>
2-[4-[3-(2-keto-3,4-dihydroquinolin-1-yl)propyl]piperazino]benzonitrile;oxalic acid

> <PUBCHEM_IUPAC_INCHI>
InChI=1S/C23H26N4O.C2H2O4/c24-18-20-7-2-3-8-21(20)26-16-14-25(15-17-26)12-5-13-27-22-9-4-1-6-19(22)10-11-23(27)28;3-1(4)2(5)6/h1-4,6-9H,5,10-17H2;(H,3,4)(H,5,6)

> <PUBCHEM_IUPAC_INCHIKEY>
ORJULAMCAJKNIW-UHFFFAOYSA-N

> <PUBCHEM_EXACT_MASS>
464.20597001

> <PUBCHEM_MOLECULAR_FORMULA>
C25H28N4O5

> <PUBCHEM_MOLECULAR_WEIGHT>
464.5

> <PUBCHEM_OPENEYE_CAN_SMILES>
C1CC(=O)N(C2=CC=CC=C21)CCCN3CCN(CC3)C4=CC=CC=C4C#N.C(=O)(C(=O)O)O

> <PUBCHEM_OPENEYE_ISO_SMILES>
C1CC(=O)N(C2=CC=CC=C21)CCCN3CCN(CC3)C4=CC=CC=C4C#N.C(=O)(C(=O)O)O

> <PUBCHEM_CACTVS_TPSA>
125

> <PUBCHEM_MONOISOTOPIC_WEIGHT>
464.20597001

> <PUBCHEM_TOTAL_CHARGE>
0

> <PUBCHEM_HEAVY_ATOM_COUNT>
34

> <PUBCHEM_ATOM_DEF_STEREO_COUNT>
0

> <PUBCHEM_ATOM_UDEF_STEREO_COUNT>
0

> <PUBCHEM_BOND_DEF_STEREO_COUNT>
0

> <PUBCHEM_BOND_UDEF_STEREO_COUNT>
0

> <PUBCHEM_ISOTOPIC_ATOM_COUNT>
0

> <PUBCHEM_COMPONENT_COUNT>
2

> <PUBCHEM_CACTVS_TAUTO_COUNT>
-1

> <PUBCHEM_COORDINATE_TYPE>
1
5
255

> <PUBCHEM_BONDANNOTATIONS>
17  23  8
17  24  8
18  20  8
18  25  8
20  26  8
23  29  8
24  30  8
25  27  8
26  28  8
27  28  8
29  31  8
30  31  8

$$$$
