44319418
  -OEChem-09292322202D

126135  0     0  0  0  0  0  0999 V2000
    9.2619   -3.3354    0.0000 O   0  0  0  0  0  0  0  0  0  0  0  0
    8.4487   -0.2481    0.0000 O   0  0  0  0  0  0  0  0  0  0  0  0
   12.2619   -5.0674    0.0000 N   0  0  0  0  0  0  0  0  0  0  0  0
   11.1935    0.9627    0.0000 N   0  0  0  0  0  0  0  0  0  0  0  0
   14.2619   -5.0674    0.0000 N   0  0  0  0  0  0  0  0  0  0  0  0
   11.4095    2.9510    0.0000 N   0  0  0  0  0  0  0  0  0  0  0  0
    4.6783   -2.5306    0.0000 N   0  0  0  0  0  0  0  0  0  0  0  0
    4.2746    1.8095    0.0000 N   0  0  0  0  0  0  0  0  0  0  0  0
    4.6783   -4.1401    0.0000 N   0  0  0  0  0  0  0  0  0  0  0  0
    5.2251    3.1083    0.0000 N   0  0  0  0  0  0  0  0  0  0  0  0
   12.7619   -5.9334    0.0000 C   0  0  0  0  0  0  0  0  0  0  0  0
   12.7619   -4.2014    0.0000 C   0  0  0  0  0  0  0  0  0  0  0  0
   12.1085    1.3662    0.0000 C   0  0  0  0  0  0  0  0  0  0  0  0
   10.3866    1.5532    0.0000 C   0  0  0  0  0  0  0  0  0  0  0  0
   13.7619   -5.9334    0.0000 C   0  0  0  0  0  0  0  0  0  0  0  0
   13.7619   -4.2014    0.0000 C   0  0  0  0  0  0  0  0  0  0  0  0
   12.2165    2.3604    0.0000 C   0  0  0  0  0  0  0  0  0  0  0  0
   10.4945    2.5474    0.0000 C   0  0  0  0  0  0  0  0  0  0  0  0
   11.2619   -5.0674    0.0000 C   0  0  0  0  0  0  0  0  0  0  0  0
   11.0856   -0.0315    0.0000 C   0  0  0  0  0  0  0  0  0  0  0  0
   10.7619   -4.2014    0.0000 C   0  0  0  0  0  0  0  0  0  0  0  0
   10.1706   -0.4351    0.0000 C   0  0  0  0  0  0  0  0  0  0  0  0
   15.2619   -5.0674    0.0000 C   0  0  0  0  0  0  0  0  0  0  0  0
   11.5175    3.9451    0.0000 C   0  0  0  0  0  0  0  0  0  0  0  0
    9.7619   -4.2014    0.0000 C   0  0  0  0  0  0  0  0  0  0  0  0
    9.3636    0.1555    0.0000 C   0  0  0  0  0  0  0  0  0  0  0  0
   15.7619   -5.9334    0.0000 C   0  0  0  0  0  0  0  0  0  0  0  0
   12.4324    4.3487    0.0000 C   0  0  0  0  0  0  0  0  0  0  0  0
   15.7619   -4.2014    0.0000 C   0  0  0  0  0  0  0  0  0  0  0  0
   10.7105    4.5357    0.0000 C   0  0  0  0  0  0  0  0  0  0  0  0
   16.7619   -5.9334    0.0000 C   0  0  0  0  0  0  0  0  0  0  0  0
   12.5404    5.3428    0.0000 C   0  0  0  0  0  0  0  0  0  0  0  0
   16.7619   -4.2014    0.0000 C   0  0  0  0  0  0  0  0  0  0  0  0
   10.8184    5.5299    0.0000 C   0  0  0  0  0  0  0  0  0  0  0  0
   17.2619   -5.0674    0.0000 C   0  0  0  0  0  0  0  0  0  0  0  0
   11.7334    5.9334    0.0000 C   0  0  0  0  0  0  0  0  0  0  0  0
    8.2619   -3.3354    0.0000 C   0  0  0  0  0  0  0  0  0  0  0  0
    7.6417    0.3425    0.0000 C   0  0  0  0  0  0  0  0  0  0  0  0
    7.7619   -4.2014    0.0000 C   0  0  0  0  0  0  0  0  0  0  0  0
    6.7268   -0.0610    0.0000 C   0  0  0  0  0  0  0  0  0  0  0  0
    7.7619   -2.4693    0.0000 C   0  0  0  0  0  0  0  0  0  0  0  0
    7.7497    1.3367    0.0000 C   0  0  0  0  0  0  0  0  0  0  0  0
    6.2619   -3.3354    0.0000 C   0  0  0  0  0  0  0  0  0  0  0  0
    6.0278    1.5237    0.0000 C   0  0  0  0  0  0  0  0  0  0  0  0
    5.2619   -3.3354    0.0000 C   0  0  0  0  0  0  0  0  0  0  0  0
    5.2208    2.1143    0.0000 C   0  0  0  0  0  0  0  0  0  0  0  0
    6.7619   -4.2014    0.0000 C   0  0  0  0  0  0  0  0  0  0  0  0
    5.9198    0.5295    0.0000 C   0  0  0  0  0  0  0  0  0  0  0  0
    6.7619   -2.4693    0.0000 C   0  0  0  0  0  0  0  0  0  0  0  0
    6.9427    1.9273    0.0000 C   0  0  0  0  0  0  0  0  0  0  0  0
    4.9889   -1.5801    0.0000 C   0  0  0  0  0  0  0  0  0  0  0  0
    3.9639    0.8590    0.0000 C   0  0  0  0  0  0  0  0  0  0  0  0
    3.7320   -2.8354    0.0000 C   0  0  0  0  0  0  0  0  0  0  0  0
    3.6910    2.6143    0.0000 C   0  0  0  0  0  0  0  0  0  0  0  0
    3.7320   -3.8354    0.0000 C   0  0  0  0  0  0  0  0  0  0  0  0
    4.2815    3.4212    0.0000 C   0  0  0  0  0  0  0  0  0  0  0  0
    4.3211   -0.8358    0.0000 C   0  0  0  0  0  0  0  0  0  0  0  0
    4.6318    0.1147    0.0000 C   0  0  0  0  0  0  0  0  0  0  0  0
    2.8660   -2.3354    0.0000 C   0  0  0  0  0  0  0  0  0  0  0  0
    2.6968    2.7222    0.0000 C   0  0  0  0  0  0  0  0  0  0  0  0
    2.8660   -4.3354    0.0000 C   0  0  0  0  0  0  0  0  0  0  0  0
    3.8780    4.3362    0.0000 C   0  0  0  0  0  0  0  0  0  0  0  0
    2.0000   -2.8354    0.0000 C   0  0  0  0  0  0  0  0  0  0  0  0
    2.2932    3.6372    0.0000 C   0  0  0  0  0  0  0  0  0  0  0  0
    2.0000   -3.8354    0.0000 C   0  0  0  0  0  0  0  0  0  0  0  0
    2.8838    4.4442    0.0000 C   0  0  0  0  0  0  0  0  0  0  0  0
   12.1793   -6.1455    0.0000 H   0  0  0  0  0  0  0  0  0  0  0  0
   12.8695   -6.5440    0.0000 H   0  0  0  0  0  0  0  0  0  0  0  0
   12.8695   -3.5908    0.0000 H   0  0  0  0  0  0  0  0  0  0  0  0
   12.1793   -3.9893    0.0000 H   0  0  0  0  0  0  0  0  0  0  0  0
   12.2564    0.7641    0.0000 H   0  0  0  0  0  0  0  0  0  0  0  0
   12.7271    1.4073    0.0000 H   0  0  0  0  0  0  0  0  0  0  0  0
    9.7912    1.7262    0.0000 H   0  0  0  0  0  0  0  0  0  0  0  0
   10.1129    0.9969    0.0000 H   0  0  0  0  0  0  0  0  0  0  0  0
   13.6542   -6.5440    0.0000 H   0  0  0  0  0  0  0  0  0  0  0  0
   14.3445   -6.1455    0.0000 H   0  0  0  0  0  0  0  0  0  0  0  0
   14.3445   -3.9893    0.0000 H   0  0  0  0  0  0  0  0  0  0  0  0
   13.6542   -3.5908    0.0000 H   0  0  0  0  0  0  0  0  0  0  0  0
   12.8118    2.1874    0.0000 H   0  0  0  0  0  0  0  0  0  0  0  0
   12.4902    2.9167    0.0000 H   0  0  0  0  0  0  0  0  0  0  0  0
   10.3466    3.1495    0.0000 H   0  0  0  0  0  0  0  0  0  0  0  0
    9.8759    2.5063    0.0000 H   0  0  0  0  0  0  0  0  0  0  0  0
   10.6793   -5.2795    0.0000 H   0  0  0  0  0  0  0  0  0  0  0  0
   11.3695   -5.6780    0.0000 H   0  0  0  0  0  0  0  0  0  0  0  0
   11.2335   -0.6336    0.0000 H   0  0  0  0  0  0  0  0  0  0  0  0
   11.7042    0.0096    0.0000 H   0  0  0  0  0  0  0  0  0  0  0  0
   11.3445   -3.9893    0.0000 H   0  0  0  0  0  0  0  0  0  0  0  0
   10.6542   -3.5908    0.0000 H   0  0  0  0  0  0  0  0  0  0  0  0
    9.7232   -0.8642    0.0000 H   0  0  0  0  0  0  0  0  0  0  0  0
   10.5155   -0.9503    0.0000 H   0  0  0  0  0  0  0  0  0  0  0  0
    9.1793   -4.4134    0.0000 H   0  0  0  0  0  0  0  0  0  0  0  0
    9.8695   -4.8120    0.0000 H   0  0  0  0  0  0  0  0  0  0  0  0
    9.8111    0.5847    0.0000 H   0  0  0  0  0  0  0  0  0  0  0  0
    9.0187    0.6707    0.0000 H   0  0  0  0  0  0  0  0  0  0  0  0
   15.4519   -6.4704    0.0000 H   0  0  0  0  0  0  0  0  0  0  0  0
   12.9327    3.9825    0.0000 H   0  0  0  0  0  0  0  0  0  0  0  0
   15.4519   -3.6644    0.0000 H   0  0  0  0  0  0  0  0  0  0  0  0
   10.1432    4.2855    0.0000 H   0  0  0  0  0  0  0  0  0  0  0  0
   17.0719   -6.4704    0.0000 H   0  0  0  0  0  0  0  0  0  0  0  0
   13.1076    5.5931    0.0000 H   0  0  0  0  0  0  0  0  0  0  0  0
   17.0719   -3.6644    0.0000 H   0  0  0  0  0  0  0  0  0  0  0  0
   10.3181    5.8960    0.0000 H   0  0  0  0  0  0  0  0  0  0  0  0
   17.8819   -5.0674    0.0000 H   0  0  0  0  0  0  0  0  0  0  0  0
   11.8003    6.5498    0.0000 H   0  0  0  0  0  0  0  0  0  0  0  0
    8.0719   -4.7383    0.0000 H   0  0  0  0  0  0  0  0  0  0  0  0
    6.6598   -0.6774    0.0000 H   0  0  0  0  0  0  0  0  0  0  0  0
    8.0719   -1.9324    0.0000 H   0  0  0  0  0  0  0  0  0  0  0  0
    8.3170    1.5869    0.0000 H   0  0  0  0  0  0  0  0  0  0  0  0
    6.4519   -4.7383    0.0000 H   0  0  0  0  0  0  0  0  0  0  0  0
    5.3525    0.2793    0.0000 H   0  0  0  0  0  0  0  0  0  0  0  0
    6.4519   -1.9324    0.0000 H   0  0  0  0  0  0  0  0  0  0  0  0
    7.0097    2.5436    0.0000 H   0  0  0  0  0  0  0  0  0  0  0  0
    5.5359   -1.8721    0.0000 H   0  0  0  0  0  0  0  0  0  0  0  0
    5.3715   -1.0922    0.0000 H   0  0  0  0  0  0  0  0  0  0  0  0
    3.4170    1.1510    0.0000 H   0  0  0  0  0  0  0  0  0  0  0  0
    3.5814    0.3711    0.0000 H   0  0  0  0  0  0  0  0  0  0  0  0
    3.7144   -0.9637    0.0000 H   0  0  0  0  0  0  0  0  0  0  0  0
    5.2384    0.2426    0.0000 H   0  0  0  0  0  0  0  0  0  0  0  0
    2.8660   -1.7154    0.0000 H   0  0  0  0  0  0  0  0  0  0  0  0
    2.3306    2.2219    0.0000 H   0  0  0  0  0  0  0  0  0  0  0  0
    2.8660   -4.9554    0.0000 H   0  0  0  0  0  0  0  0  0  0  0  0
    4.2441    4.8365    0.0000 H   0  0  0  0  0  0  0  0  0  0  0  0
    1.4631   -2.5254    0.0000 H   0  0  0  0  0  0  0  0  0  0  0  0
    1.6769    3.7041    0.0000 H   0  0  0  0  0  0  0  0  0  0  0  0
    1.4631   -4.1454    0.0000 H   0  0  0  0  0  0  0  0  0  0  0  0
    2.6336    5.0114    0.0000 H   0  0  0  0  0  0  0  0  0  0  0  0
  1 25  1  0  0  0  0
  1 37  1  0  0  0  0
  2 26  1  0  0  0  0
  2 38  1  0  0  0  0
  3 11  1  0  0  0  0
  3 12  1  0  0  0  0
  3 19  1  0  0  0  0
  4 13  1  0  0  0  0
  4 14  1  0  0  0  0
  4 20  1  0  0  0  0
  5 15  1  0  0  0  0
  5 16  1  0  0  0  0
  5 23  1  0  0  0  0
  6 17  1  0  0  0  0
  6 18  1  0  0  0  0
  6 24  1  0  0  0  0
  7 45  1  0  0  0  0
  7 51  1  0  0  0  0
  7 53  1  0  0  0  0
  8 46  1  0  0  0  0
  8 52  1  0  0  0  0
  8 54  1  0  0  0  0
  9 45  2  0  0  0  0
  9 55  1  0  0  0  0
 10 46  2  0  0  0  0
 10 56  1  0  0  0  0
 11 15  1  0  0  0  0
 11 67  1  0  0  0  0
 11 68  1  0  0  0  0
 12 16  1  0  0  0  0
 12 69  1  0  0  0  0
 12 70  1  0  0  0  0
 13 17  1  0  0  0  0
 13 71  1  0  0  0  0
 13 72  1  0  0  0  0
 14 18  1  0  0  0  0
 14 73  1  0  0  0  0
 14 74  1  0  0  0  0
 15 75  1  0  0  0  0
 15 76  1  0  0  0  0
 16 77  1  0  0  0  0
 16 78  1  0  0  0  0
 17 79  1  0  0  0  0
 17 80  1  0  0  0  0
 18 81  1  0  0  0  0
 18 82  1  0  0  0  0
 19 21  1  0  0  0  0
 19 83  1  0  0  0  0
 19 84  1  0  0  0  0
 20 22  1  0  0  0  0
 20 85  1  0  0  0  0
 20 86  1  0  0  0  0
 21 25  1  0  0  0  0
 21 87  1  0  0  0  0
 21 88  1  0  0  0  0
 22 26  1  0  0  0  0
 22 89  1  0  0  0  0
 22 90  1  0  0  0  0
 23 27  2  0  0  0  0
 23 29  1  0  0  0  0
 24 28  2  0  0  0  0
 24 30  1  0  0  0  0
 25 91  1  0  0  0  0
 25 92  1  0  0  0  0
 26 93  1  0  0  0  0
 26 94  1  0  0  0  0
 27 31  1  0  0  0  0
 27 95  1  0  0  0  0
 28 32  1  0  0  0  0
 28 96  1  0  0  0  0
 29 33  2  0  0  0  0
 29 97  1  0  0  0  0
 30 34  2  0  0  0  0
 30 98  1  0  0  0  0
 31 35  2  0  0  0  0
 31 99  1  0  0  0  0
 32 36  2  0  0  0  0
 32100  1  0  0  0  0
 33 35  1  0  0  0  0
 33101  1  0  0  0  0
 34 36  1  0  0  0  0
 34102  1  0  0  0  0
 35103  1  0  0  0  0
 36104  1  0  0  0  0
 37 39  2  0  0  0  0
 37 41  1  0  0  0  0
 38 40  2  0  0  0  0
 38 42  1  0  0  0  0
 39 47  1  0  0  0  0
 39105  1  0  0  0  0
 40 48  1  0  0  0  0
 40106  1  0  0  0  0
 41 49  2  0  0  0  0
 41107  1  0  0  0  0
 42 50  2  0  0  0  0
 42108  1  0  0  0  0
 43 45  1  0  0  0  0
 43 47  2  0  0  0  0
 43 49  1  0  0  0  0
 44 46  1  0  0  0  0
 44 48  2  0  0  0  0
 44 50  1  0  0  0  0
 47109  1  0  0  0  0
 48110  1  0  0  0  0
 49111  1  0  0  0  0
 50112  1  0  0  0  0
 51 57  1  0  0  0  0
 51113  1  0  0  0  0
 51114  1  0  0  0  0
 52 58  1  0  0  0  0
 52115  1  0  0  0  0
 52116  1  0  0  0  0
 53 55  1  0  0  0  0
 53 59  2  0  0  0  0
 54 56  1  0  0  0  0
 54 60  2  0  0  0  0
 55 61  2  0  0  0  0
 56 62  2  0  0  0  0
 57 58  2  0  0  0  0
 57117  1  0  0  0  0
 58118  1  0  0  0  0
 59 63  1  0  0  0  0
 59119  1  0  0  0  0
 60 64  1  0  0  0  0
 60120  1  0  0  0  0
 61 65  1  0  0  0  0
 61121  1  0  0  0  0
 62 66  1  0  0  0  0
 62122  1  0  0  0  0
 63 65  2  0  0  0  0
 63123  1  0  0  0  0
 64 66  2  0  0  0  0
 64124  1  0  0  0  0
 65125  1  0  0  0  0
 66126  1  0  0  0  0
M  END
> <PUBCHEM_COMPOUND_CID>
44319418

> <PUBCHEM_COMPOUND_CANONICALIZED>
1

> <PUBCHEM_CACTVS_COMPLEXITY>
1310

> <PUBCHEM_CACTVS_HBOND_ACCEPTOR>
8

> <PUBCHEM_CACTVS_HBOND_DONOR>
0

> <PUBCHEM_CACTVS_ROTATABLE_BOND>
18

> <PUBCHEM_CACTVS_SUBSKEYS>
AAADcfB/8AAAAAAAAAAAAAAAAAAAAWLAAAA8eMGDAAAAAFgB/gAAHgAAAAAADAzhnwYx1rcMFACgAyZiZACCiC0hMqAJ2CA+fJiMbqLEuZuWOCjuwBPI6CeQ0AIOIAAAAAAAACBAAAAAAAAAQAAAAAAAAA==

> <PUBCHEM_IUPAC_OPENEYE_NAME>
2-[4-[3-(4-phenylpiperazin-1-yl)propoxy]phenyl]-1-[(E)-4-[2-[4-[3-(4-phenylpiperazin-1-yl)propoxy]phenyl]benzimidazol-1-yl]but-2-enyl]benzimidazole

> <PUBCHEM_IUPAC_CAS_NAME>
2-[4-[3-(4-phenyl-1-piperazinyl)propoxy]phenyl]-1-[(E)-4-[2-[4-[3-(4-phenyl-1-piperazinyl)propoxy]phenyl]-1-benzimidazolyl]but-2-enyl]benzimidazole

> <PUBCHEM_IUPAC_NAME_MARKUP>
2-[4-[3-(4-phenylpiperazin-1-yl)propoxy]phenyl]-1-[(<I>E</I>)-4-[2-[4-[3-(4-phenylpiperazin-1-yl)propoxy]phenyl]benzimidazol-1-yl]but-2-enyl]benzimidazole

> <PUBCHEM_IUPAC_NAME>
2-[4-[3-(4-phenylpiperazin-1-yl)propoxy]phenyl]-1-[(E)-4-[2-[4-[3-(4-phenylpiperazin-1-yl)propoxy]phenyl]benzimidazol-1-yl]but-2-enyl]benzimidazole

> <PUBCHEM_IUPAC_SYSTEMATIC_NAME>
2-[4-[3-(4-phenylpiperazin-1-yl)propoxy]phenyl]-1-[(E)-4-[2-[4-[3-(4-phenylpiperazin-1-yl)propoxy]phenyl]benzimidazol-1-yl]but-2-enyl]benzimidazole

> <PUBCHEM_IUPAC_TRADITIONAL_NAME>
2-[4-[3-(4-phenylpiperazino)propoxy]phenyl]-1-[(E)-4-[2-[4-[3-(4-phenylpiperazino)propoxy]phenyl]benzimidazol-1-yl]but-2-enyl]benzimidazole

> <PUBCHEM_IUPAC_INCHI>
InChI=1S/C56H60N8O2/c1-3-15-47(16-4-1)61-39-35-59(36-40-61)31-13-43-65-49-27-23-45(24-28-49)55-57-51-19-7-9-21-53(51)63(55)33-11-12-34-64-54-22-10-8-20-52(54)58-56(64)46-25-29-50(30-26-46)66-44-14-32-60-37-41-62(42-38-60)48-17-5-2-6-18-48/h1-12,15-30H,13-14,31-44H2/b12-11+

> <PUBCHEM_IUPAC_INCHIKEY>
PDRHZVHAACZKMF-VAWYXSNFSA-N

> <PUBCHEM_XLOGP3_AA>
10.4

> <PUBCHEM_EXACT_MASS>
876.48392319

> <PUBCHEM_MOLECULAR_FORMULA>
C56H60N8O2

> <PUBCHEM_MOLECULAR_WEIGHT>
877.1

> <PUBCHEM_OPENEYE_CAN_SMILES>
C1CN(CCN1CCCOC2=CC=C(C=C2)C3=NC4=CC=CC=C4N3CC=CCN5C6=CC=CC=C6N=C5C7=CC=C(C=C7)OCCCN8CCN(CC8)C9=CC=CC=C9)C1=CC=CC=C1

> <PUBCHEM_OPENEYE_ISO_SMILES>
C1CN(CCN1CCCOC2=CC=C(C=C2)C3=NC4=CC=CC=C4N3C/C=C/CN5C6=CC=CC=C6N=C5C7=CC=C(C=C7)OCCCN8CCN(CC8)C9=CC=CC=C9)C1=CC=CC=C1

> <PUBCHEM_CACTVS_TPSA>
67.1

> <PUBCHEM_MONOISOTOPIC_WEIGHT>
876.48392319

> <PUBCHEM_TOTAL_CHARGE>
0

> <PUBCHEM_HEAVY_ATOM_COUNT>
66

> <PUBCHEM_ATOM_DEF_STEREO_COUNT>
0

> <PUBCHEM_ATOM_UDEF_STEREO_COUNT>
0

> <PUBCHEM_BOND_DEF_STEREO_COUNT>
1

> <PUBCHEM_BOND_UDEF_STEREO_COUNT>
0

> <PUBCHEM_ISOTOPIC_ATOM_COUNT>
0

> <PUBCHEM_COMPONENT_COUNT>
1

> <PUBCHEM_CACTVS_TAUTO_COUNT>
-1

> <PUBCHEM_COORDINATE_TYPE>
1
5
255

> <PUBCHEM_BONDANNOTATIONS>
10  46  8
10  56  8
23  27  8
23  29  8
24  28  8
24  30  8
27  31  8
28  32  8
29  33  8
30  34  8
31  35  8
32  36  8
33  35  8
34  36  8
37  39  8
37  41  8
38  40  8
38  42  8
39  47  8
40  48  8
41  49  8
42  50  8
43  47  8
43  49  8
44  48  8
44  50  8
53  55  8
53  59  8
54  56  8
54  60  8
55  61  8
56  62  8
59  63  8
60  64  8
61  65  8
62  66  8
63  65  8
64  66  8
7  45  8
7  53  8
8  46  8
8  54  8
9  45  8
9  55  8

$$$$
