138670819
  -OEChem-09292322452D

 68 72  0     1  0  0  0  0  0999 V2000
   18.5744    0.9485    0.0000 F   0  0  0  0  0  0  0  0  0  0  0  0
   17.7026   -0.5481    0.0000 F   0  0  0  0  0  0  0  0  0  0  0  0
    5.5161    0.4827    0.0000 O   0  0  0  0  0  0  0  0  0  0  0  0
   15.9744    0.4585    0.0000 O   0  0  0  0  0  0  0  0  0  0  0  0
   11.5783    0.9827    0.0000 N   0  0  3  0  0  0  0  0  0  0  0  0
    6.3821   -1.0173    0.0000 N   0  0  0  0  0  0  0  0  0  0  0  0
   14.2043    0.4480    0.0000 N   0  0  0  0  0  0  0  0  0  0  0  0
    2.0080   -0.5105    0.0000 N   0  0  0  0  0  0  0  0  0  0  0  0
    8.9802    0.4827    0.0000 C   0  0  0  0  0  0  0  0  0  0  0  0
    8.1142    0.9827    0.0000 C   0  0  0  0  0  0  0  0  0  0  0  0
    8.9802   -0.5173    0.0000 C   0  0  0  0  0  0  0  0  0  0  0  0
    7.2482   -0.5173    0.0000 C   0  0  0  0  0  0  0  0  0  0  0  0
    7.2482    0.4827    0.0000 C   0  0  0  0  0  0  0  0  0  0  0  0
    8.1142   -1.0173    0.0000 C   0  0  0  0  0  0  0  0  0  0  0  0
    9.8462    0.9827    0.0000 C   0  0  0  0  0  0  0  0  0  0  0  0
   10.7123    0.4827    0.0000 C   0  0  0  0  0  0  0  0  0  0  0  0
   11.5783    1.9827    0.0000 C   0  0  0  0  0  0  0  0  0  0  0  0
   12.4443    0.4827    0.0000 C   0  0  0  0  0  0  0  0  0  0  0  0
   12.4443    2.4827    0.0000 C   0  0  0  0  0  0  0  0  0  0  0  0
   13.3103    0.9827    0.0000 C   0  0  0  0  0  0  0  0  0  0  0  0
   13.3103    1.9827    0.0000 C   0  0  0  0  0  0  0  0  0  0  0  0
    5.5161   -0.5173    0.0000 C   0  0  0  0  0  0  0  0  0  0  0  0
    4.6501   -1.0173    0.0000 C   0  0  0  0  0  0  0  0  0  0  0  0
   14.2043    2.5173    0.0000 C   0  0  0  0  0  0  0  0  0  0  0  0
   15.1103    2.0035    0.0000 C   0  0  0  0  0  0  0  0  0  0  0  0
   15.1103    0.9619    0.0000 C   0  0  0  0  0  0  0  0  0  0  0  0
    3.7841   -0.5173    0.0000 C   0  0  0  0  0  0  0  0  0  0  0  0
    4.6501   -2.0173    0.0000 C   0  0  0  0  0  0  0  0  0  0  0  0
    2.9180   -1.0173    0.0000 C   0  0  0  0  0  0  0  0  0  0  0  0
    3.7841   -2.5173    0.0000 C   0  0  0  0  0  0  0  0  0  0  0  0
    3.8001    0.5242    0.0000 C   0  0  0  0  0  0  0  0  0  0  0  0
    2.9180   -2.0173    0.0000 C   0  0  0  0  0  0  0  0  0  0  0  0
   16.8424    0.9552    0.0000 C   0  0  0  0  0  0  0  0  0  0  0  0
    2.9021    1.0519    0.0000 C   0  0  0  0  0  0  0  0  0  0  0  0
    2.0000    0.5311    0.0000 C   0  0  0  0  0  0  0  0  0  0  0  0
   17.7065    0.4518    0.0000 C   0  0  0  0  0  0  0  0  0  0  0  0
    9.5172    0.1727    0.0000 H   0  0  0  0  0  0  0  0  0  0  0  0
    8.5127    1.4576    0.0000 H   0  0  0  0  0  0  0  0  0  0  0  0
    7.7156    1.4576    0.0000 H   0  0  0  0  0  0  0  0  0  0  0  0
    9.1923   -1.0999    0.0000 H   0  0  0  0  0  0  0  0  0  0  0  0
    9.5908   -0.4097    0.0000 H   0  0  0  0  0  0  0  0  0  0  0  0
    7.2482   -1.1373    0.0000 H   0  0  0  0  0  0  0  0  0  0  0  0
    7.0361    1.0653    0.0000 H   0  0  0  0  0  0  0  0  0  0  0  0
    6.6376    0.3750    0.0000 H   0  0  0  0  0  0  0  0  0  0  0  0
    7.7156   -1.4923    0.0000 H   0  0  0  0  0  0  0  0  0  0  0  0
    8.5127   -1.4923    0.0000 H   0  0  0  0  0  0  0  0  0  0  0  0
   10.2448    1.4576    0.0000 H   0  0  0  0  0  0  0  0  0  0  0  0
    9.4477    1.4576    0.0000 H   0  0  0  0  0  0  0  0  0  0  0  0
   10.3137    0.0077    0.0000 H   0  0  0  0  0  0  0  0  0  0  0  0
   11.1108    0.0077    0.0000 H   0  0  0  0  0  0  0  0  0  0  0  0
    6.3821   -1.6373    0.0000 H   0  0  0  0  0  0  0  0  0  0  0  0
   11.3662    2.5653    0.0000 H   0  0  0  0  0  0  0  0  0  0  0  0
   10.9677    1.8750    0.0000 H   0  0  0  0  0  0  0  0  0  0  0  0
   12.0458    0.0077    0.0000 H   0  0  0  0  0  0  0  0  0  0  0  0
   12.8428    0.0077    0.0000 H   0  0  0  0  0  0  0  0  0  0  0  0
   12.8428    2.9576    0.0000 H   0  0  0  0  0  0  0  0  0  0  0  0
   12.0458    2.9576    0.0000 H   0  0  0  0  0  0  0  0  0  0  0  0
   14.1971    3.1373    0.0000 H   0  0  0  0  0  0  0  0  0  0  0  0
   15.6461    2.3156    0.0000 H   0  0  0  0  0  0  0  0  0  0  0  0
    5.1870   -2.3273    0.0000 H   0  0  0  0  0  0  0  0  0  0  0  0
    3.7841   -3.1373    0.0000 H   0  0  0  0  0  0  0  0  0  0  0  0
    4.3406    0.8279    0.0000 H   0  0  0  0  0  0  0  0  0  0  0  0
    2.3811   -2.3273    0.0000 H   0  0  0  0  0  0  0  0  0  0  0  0
   17.2427    1.4286    0.0000 H   0  0  0  0  0  0  0  0  0  0  0  0
   16.4457    1.4317    0.0000 H   0  0  0  0  0  0  0  0  0  0  0  0
    2.9045    1.6719    0.0000 H   0  0  0  0  0  0  0  0  0  0  0  0
    1.4619    0.8390    0.0000 H   0  0  0  0  0  0  0  0  0  0  0  0
   17.7089    1.0718    0.0000 H   0  0  0  0  0  0  0  0  0  0  0  0
  1 36  1  0  0  0  0
  2 36  1  0  0  0  0
  3 22  2  0  0  0  0
  4 26  1  0  0  0  0
  4 33  1  0  0  0  0
  5 16  1  0  0  0  0
  5 17  1  0  0  0  0
  5 18  1  0  0  0  0
  6 12  1  0  0  0  0
  6 22  1  0  0  0  0
  6 51  1  0  0  0  0
  7 20  1  0  0  0  0
  7 26  2  0  0  0  0
  8 29  1  0  0  0  0
  8 35  2  0  0  0  0
  9 10  1  0  0  0  0
  9 11  1  0  0  0  0
  9 15  1  0  0  0  0
  9 37  1  0  0  0  0
 10 13  1  0  0  0  0
 10 38  1  0  0  0  0
 10 39  1  0  0  0  0
 11 14  1  0  0  0  0
 11 40  1  0  0  0  0
 11 41  1  0  0  0  0
 12 13  1  0  0  0  0
 12 14  1  0  0  0  0
 12 42  1  0  0  0  0
 13 43  1  0  0  0  0
 13 44  1  0  0  0  0
 14 45  1  0  0  0  0
 14 46  1  0  0  0  0
 15 16  1  0  0  0  0
 15 47  1  0  0  0  0
 15 48  1  0  0  0  0
 16 49  1  0  0  0  0
 16 50  1  0  0  0  0
 17 19  1  0  0  0  0
 17 52  1  0  0  0  0
 17 53  1  0  0  0  0
 18 20  1  0  0  0  0
 18 54  1  0  0  0  0
 18 55  1  0  0  0  0
 19 21  1  0  0  0  0
 19 56  1  0  0  0  0
 19 57  1  0  0  0  0
 20 21  2  0  0  0  0
 21 24  1  0  0  0  0
 22 23  1  0  0  0  0
 23 27  2  0  0  0  0
 23 28  1  0  0  0  0
 24 25  2  0  0  0  0
 24 58  1  0  0  0  0
 25 26  1  0  0  0  0
 25 59  1  0  0  0  0
 27 29  1  0  0  0  0
 27 31  1  0  0  0  0
 28 30  2  0  0  0  0
 28 60  1  0  0  0  0
 29 32  2  0  0  0  0
 30 32  1  0  0  0  0
 30 61  1  0  0  0  0
 31 34  2  0  0  0  0
 31 62  1  0  0  0  0
 32 63  1  0  0  0  0
 33 36  1  0  0  0  0
 33 64  1  0  0  0  0
 33 65  1  0  0  0  0
 34 35  1  0  0  0  0
 34 66  1  0  0  0  0
 35 67  1  0  0  0  0
 36 68  1  0  0  0  0
M  END
> <PUBCHEM_COMPOUND_CID>
138670819

> <PUBCHEM_COMPOUND_CANONICALIZED>
1

> <PUBCHEM_CACTVS_COMPLEXITY>
705

> <PUBCHEM_CACTVS_HBOND_ACCEPTOR>
7

> <PUBCHEM_CACTVS_HBOND_DONOR>
1

> <PUBCHEM_CACTVS_ROTATABLE_BOND>
8

> <PUBCHEM_CACTVS_SUBSKEYS>
AAADcfB7sYAAAAAAAAAAAAAAAAAAAAAAAAA8eLECAAAAAACx/AAAHwAQAAAADSjhnhY8xPPIFACoAzV3VACCiCA1IiAI2KE+bNgMZvLEtZueOSjk1hHI6Yec2IGOgAAAQAASAAAQAACAACQAAAAAAAAAAA==

> <PUBCHEM_IUPAC_OPENEYE_NAME>
N-[4-[2-[2-(2,2-difluoroethoxy)-6,8-dihydro-5H-1,7-naphthyridin-7-yl]ethyl]cyclohexyl]quinoline-5-carboxamide

> <PUBCHEM_IUPAC_CAS_NAME>
N-[4-[2-[2-(2,2-difluoroethoxy)-6,8-dihydro-5H-1,7-naphthyridin-7-yl]ethyl]cyclohexyl]-5-quinolinecarboxamide

> <PUBCHEM_IUPAC_NAME_MARKUP>
<I>N</I>-[4-[2-[2-(2,2-difluoroethoxy)-6,8-dihydro-5<I>H</I>-1,7-naphthyridin-7-yl]ethyl]cyclohexyl]quinoline-5-carboxamide

> <PUBCHEM_IUPAC_NAME>
N-[4-[2-[2-(2,2-difluoroethoxy)-6,8-dihydro-5H-1,7-naphthyridin-7-yl]ethyl]cyclohexyl]quinoline-5-carboxamide

> <PUBCHEM_IUPAC_SYSTEMATIC_NAME>
N-[4-[2-[2-[2,2-bis(fluoranyl)ethoxy]-6,8-dihydro-5H-1,7-naphthyridin-7-yl]ethyl]cyclohexyl]quinoline-5-carboxamide

> <PUBCHEM_IUPAC_TRADITIONAL_NAME>
N-[4-[2-[2-(2,2-difluoroethoxy)-6,8-dihydro-5H-1,7-naphthyridin-7-yl]ethyl]cyclohexyl]quinoline-5-carboxamide

> <PUBCHEM_IUPAC_INCHI>
InChI=1S/C28H32F2N4O2/c29-26(30)18-36-27-11-8-20-13-16-34(17-25(20)33-27)15-12-19-6-9-21(10-7-19)32-28(35)23-3-1-5-24-22(23)4-2-14-31-24/h1-5,8,11,14,19,21,26H,6-7,9-10,12-13,15-18H2,(H,32,35)

> <PUBCHEM_IUPAC_INCHIKEY>
NTVRUBIWHSZDEQ-UHFFFAOYSA-N

> <PUBCHEM_XLOGP3_AA>
5

> <PUBCHEM_EXACT_MASS>
494.24933260

> <PUBCHEM_MOLECULAR_FORMULA>
C28H32F2N4O2

> <PUBCHEM_MOLECULAR_WEIGHT>
494.6

> <PUBCHEM_OPENEYE_CAN_SMILES>
C1CC(CCC1CCN2CCC3=C(C2)N=C(C=C3)OCC(F)F)NC(=O)C4=C5C=CC=NC5=CC=C4

> <PUBCHEM_OPENEYE_ISO_SMILES>
C1CC(CCC1CCN2CCC3=C(C2)N=C(C=C3)OCC(F)F)NC(=O)C4=C5C=CC=NC5=CC=C4

> <PUBCHEM_CACTVS_TPSA>
67.4

> <PUBCHEM_MONOISOTOPIC_WEIGHT>
494.24933260

> <PUBCHEM_TOTAL_CHARGE>
0

> <PUBCHEM_HEAVY_ATOM_COUNT>
36

> <PUBCHEM_ATOM_DEF_STEREO_COUNT>
0

> <PUBCHEM_ATOM_UDEF_STEREO_COUNT>
0

> <PUBCHEM_BOND_DEF_STEREO_COUNT>
0

> <PUBCHEM_BOND_UDEF_STEREO_COUNT>
0

> <PUBCHEM_ISOTOPIC_ATOM_COUNT>
0

> <PUBCHEM_COMPONENT_COUNT>
1

> <PUBCHEM_CACTVS_TAUTO_COUNT>
-1

> <PUBCHEM_COORDINATE_TYPE>
1
5
255

> <PUBCHEM_BONDANNOTATIONS>
20  21  8
21  24  8
23  27  8
23  28  8
24  25  8
25  26  8
27  29  8
27  31  8
28  30  8
29  32  8
30  32  8
31  34  8
34  35  8
7  20  8
7  26  8
8  29  8
8  35  8

$$$$
