10379766
  -OEChem-09292322322D

 43 46  0     1  0  0  0  0  0999 V2000
    4.5416   -1.8999    0.0000 O   0  0  0  0  0  0  0  0  0  0  0  0
    6.3449   -2.9596    0.0000 O   0  0  0  0  0  0  0  0  0  0  0  0
    7.2641    2.7371    0.0000 N   0  0  0  0  0  0  0  0  0  0  0  0
    7.2641    1.7371    0.0000 C   0  0  1  0  0  0  0  0  0  0  0  0
    6.3981    1.2371    0.0000 C   0  0  1  0  0  0  0  0  0  0  0  0
    8.1741    1.2302    0.0000 C   0  0  0  0  0  0  0  0  0  0  0  0
    6.3820    0.1956    0.0000 C   0  0  0  0  0  0  0  0  0  0  0  0
    5.5320    1.7371    0.0000 C   0  0  0  0  0  0  0  0  0  0  0  0
    8.1821    0.1886    0.0000 C   0  0  0  0  0  0  0  0  0  0  0  0
    7.2800   -0.3322    0.0000 C   0  0  0  0  0  0  0  0  0  0  0  0
    5.5320    2.7371    0.0000 C   0  0  0  0  0  0  0  0  0  0  0  0
    6.3981    3.2371    0.0000 C   0  0  0  0  0  0  0  0  0  0  0  0
    4.6381    1.2024    0.0000 C   0  0  0  0  0  0  0  0  0  0  0  0
    5.4301   -0.3251    0.0000 C   0  0  0  0  0  0  0  0  0  0  0  0
    7.2884   -1.4172    0.0000 C   0  0  0  0  0  0  0  0  0  0  0  0
    4.6381    3.2717    0.0000 C   0  0  0  0  0  0  0  0  0  0  0  0
    3.7320    1.7162    0.0000 C   0  0  0  0  0  0  0  0  0  0  0  0
    5.4134   -1.4099    0.0000 C   0  0  0  0  0  0  0  0  0  0  0  0
    3.7320    2.7579    0.0000 C   0  0  0  0  0  0  0  0  0  0  0  0
    6.3488   -1.9597    0.0000 C   0  0  0  0  0  0  0  0  0  0  0  0
    2.8680    1.2129    0.0000 C   0  0  0  0  0  0  0  0  0  0  0  0
    2.0000    1.7096    0.0000 C   0  0  0  0  0  0  0  0  0  0  0  0
    7.9969    2.1677    0.0000 H   0  0  0  0  0  0  0  0  0  0  0  0
    5.6587    0.8177    0.0000 H   0  0  0  0  0  0  0  0  0  0  0  0
    8.7858    1.1288    0.0000 H   0  0  0  0  0  0  0  0  0  0  0  0
    8.3786    1.8155    0.0000 H   0  0  0  0  0  0  0  0  0  0  0  0
    8.3957   -0.3934    0.0000 H   0  0  0  0  0  0  0  0  0  0  0  0
    8.7922    0.2994    0.0000 H   0  0  0  0  0  0  0  0  0  0  0  0
    7.8010    3.0471    0.0000 H   0  0  0  0  0  0  0  0  0  0  0  0
    6.7966    3.7120    0.0000 H   0  0  0  0  0  0  0  0  0  0  0  0
    5.9995    3.7120    0.0000 H   0  0  0  0  0  0  0  0  0  0  0  0
    4.6453    0.5824    0.0000 H   0  0  0  0  0  0  0  0  0  0  0  0
    4.8992   -0.0048    0.0000 H   0  0  0  0  0  0  0  0  0  0  0  0
    7.8265   -1.7251    0.0000 H   0  0  0  0  0  0  0  0  0  0  0  0
    4.6453    3.8917    0.0000 H   0  0  0  0  0  0  0  0  0  0  0  0
    3.1963    3.0699    0.0000 H   0  0  0  0  0  0  0  0  0  0  0  0
    2.4712    0.7364    0.0000 H   0  0  0  0  0  0  0  0  0  0  0  0
    3.2683    0.7395    0.0000 H   0  0  0  0  0  0  0  0  0  0  0  0
    2.3079    2.2477    0.0000 H   0  0  0  0  0  0  0  0  0  0  0  0
    1.4619    2.0175    0.0000 H   0  0  0  0  0  0  0  0  0  0  0  0
    1.6921    1.1714    0.0000 H   0  0  0  0  0  0  0  0  0  0  0  0
    4.5344   -2.5198    0.0000 H   0  0  0  0  0  0  0  0  0  0  0  0
    6.8807   -3.2717    0.0000 H   0  0  0  0  0  0  0  0  0  0  0  0
  1 18  1  0  0  0  0
  1 42  1  0  0  0  0
  2 20  1  0  0  0  0
  2 43  1  0  0  0  0
  3  4  1  0  0  0  0
  3 12  1  0  0  0  0
  3 29  1  0  0  0  0
  4  5  1  0  0  0  0
  4  6  1  0  0  0  0
  4 23  1  1  0  0  0
  5  7  1  0  0  0  0
  5  8  1  0  0  0  0
  5 24  1  6  0  0  0
  6  9  1  0  0  0  0
  6 25  1  0  0  0  0
  6 26  1  0  0  0  0
  7 10  1  0  0  0  0
  7 14  2  0  0  0  0
  8 11  2  0  0  0  0
  8 13  1  0  0  0  0
  9 10  1  0  0  0  0
  9 27  1  0  0  0  0
  9 28  1  0  0  0  0
 10 15  2  0  0  0  0
 11 12  1  0  0  0  0
 11 16  1  0  0  0  0
 12 30  1  0  0  0  0
 12 31  1  0  0  0  0
 13 17  2  0  0  0  0
 13 32  1  0  0  0  0
 14 18  1  0  0  0  0
 14 33  1  0  0  0  0
 15 20  1  0  0  0  0
 15 34  1  0  0  0  0
 16 19  2  0  0  0  0
 16 35  1  0  0  0  0
 17 19  1  0  0  0  0
 17 21  1  0  0  0  0
 18 20  2  0  0  0  0
 19 36  1  0  0  0  0
 21 22  1  0  0  0  0
 21 37  1  0  0  0  0
 21 38  1  0  0  0  0
 22 39  1  0  0  0  0
 22 40  1  0  0  0  0
 22 41  1  0  0  0  0
M  END
> <PUBCHEM_COMPOUND_CID>
10379766

> <PUBCHEM_COMPOUND_CANONICALIZED>
1

> <PUBCHEM_CACTVS_COMPLEXITY>
401

> <PUBCHEM_CACTVS_HBOND_ACCEPTOR>
3

> <PUBCHEM_CACTVS_HBOND_DONOR>
3

> <PUBCHEM_CACTVS_ROTATABLE_BOND>
1

> <PUBCHEM_CACTVS_SUBSKEYS>
AAADceB6MAAAAAAAAAAAAAAAAAAAAAAAAAA8YMEAAAAAAADxQAAAHgAQCAAADSzBmAQyBoLAAgCAAiBCAACCAAAgIAAIiIAOjIgJJiKCkROEcAlk0BGJmAeQ0PMO4AADAAAQQADQAAaAACSAAAAAAAAAAA==

> <PUBCHEM_IUPAC_OPENEYE_NAME>
(6aR,12bS)-2-ethyl-5,6,6a,7,8,12b-hexahydrobenzo[a]phenanthridine-10,11-diol

> <PUBCHEM_IUPAC_CAS_NAME>
(6aR,12bS)-2-ethyl-5,6,6a,7,8,12b-hexahydrobenzo[a]phenanthridine-10,11-diol

> <PUBCHEM_IUPAC_NAME_MARKUP>
(6<I>a</I><I>R</I>,12<I>b</I><I>S</I>)-2-ethyl-5,6,6<I>a</I>,7,8,12<I>b</I>-hexahydrobenzo[a]phenanthridine-10,11-diol

> <PUBCHEM_IUPAC_NAME>
(6aR,12bS)-2-ethyl-5,6,6a,7,8,12b-hexahydrobenzo[a]phenanthridine-10,11-diol

> <PUBCHEM_IUPAC_SYSTEMATIC_NAME>
(6aR,12bS)-2-ethyl-5,6,6a,7,8,12b-hexahydrobenzo[a]phenanthridine-10,11-diol

> <PUBCHEM_IUPAC_TRADITIONAL_NAME>
(6aR,12bS)-2-ethyl-5,6,6a,7,8,12b-hexahydrobenzo[a]phenanthridine-10,11-diol

> <PUBCHEM_IUPAC_INCHI>
InChI=1S/C19H21NO2/c1-2-11-3-4-13-10-20-16-6-5-12-8-17(21)18(22)9-15(12)19(16)14(13)7-11/h3-4,7-9,16,19-22H,2,5-6,10H2,1H3/t16-,19-/m1/s1

> <PUBCHEM_IUPAC_INCHIKEY>
CMTLMUAHYIMWAR-VQIMIIECSA-N

> <PUBCHEM_XLOGP3_AA>
3.3

> <PUBCHEM_EXACT_MASS>
295.157228913

> <PUBCHEM_MOLECULAR_FORMULA>
C19H21NO2

> <PUBCHEM_MOLECULAR_WEIGHT>
295.4

> <PUBCHEM_OPENEYE_CAN_SMILES>
CCC1=CC2=C(CNC3C2C4=CC(=C(C=C4CC3)O)O)C=C1

> <PUBCHEM_OPENEYE_ISO_SMILES>
CCC1=CC2=C(CN[C@H]3[C@H]2C4=CC(=C(C=C4CC3)O)O)C=C1

> <PUBCHEM_CACTVS_TPSA>
52.5

> <PUBCHEM_MONOISOTOPIC_WEIGHT>
295.157228913

> <PUBCHEM_TOTAL_CHARGE>
0

> <PUBCHEM_HEAVY_ATOM_COUNT>
22

> <PUBCHEM_ATOM_DEF_STEREO_COUNT>
2

> <PUBCHEM_ATOM_UDEF_STEREO_COUNT>
0

> <PUBCHEM_BOND_DEF_STEREO_COUNT>
0

> <PUBCHEM_BOND_UDEF_STEREO_COUNT>
0

> <PUBCHEM_ISOTOPIC_ATOM_COUNT>
0

> <PUBCHEM_COMPONENT_COUNT>
1

> <PUBCHEM_CACTVS_TAUTO_COUNT>
-1

> <PUBCHEM_COORDINATE_TYPE>
1
5
255

> <PUBCHEM_BONDANNOTATIONS>
10  15  8
11  16  8
13  17  8
14  18  8
15  20  8
16  19  8
17  19  8
18  20  8
4  23  5
5  24  6
7  10  8
7  14  8
8  11  8
8  13  8

$$$$
