155519559
  -OEChem-09292322412D

 51 55  0     0  0  0  0  0  0999 V2000
    7.0200    1.4877    0.0000 S   0  0  0  0  0  0  0  0  0  0  0  0
    6.5200    2.3537    0.0000 O   0  0  0  0  0  0  0  0  0  0  0  0
    7.5200    0.6217    0.0000 O   0  0  0  0  0  0  0  0  0  0  0  0
    2.3107    2.0115    0.0000 O   0  0  0  0  0  0  0  0  0  0  0  0
    6.1540    0.9877    0.0000 N   0  0  0  0  0  0  0  0  0  0  0  0
    3.8684   -2.9551    0.0000 N   0  0  0  0  0  0  0  0  0  0  0  0
   10.5120    1.4530    0.0000 N   0  0  0  0  0  0  0  0  0  0  0  0
    5.0791   -0.2102    0.0000 C   0  0  0  0  0  0  0  0  0  0  0  0
    4.6755   -1.1252    0.0000 C   0  0  0  0  0  0  0  0  0  0  0  0
    4.5783    0.6485    0.0000 C   0  0  0  0  0  0  0  0  0  0  0  0
    5.2462    1.3928    0.0000 C   0  0  0  0  0  0  0  0  0  0  0  0
    5.2661   -1.9322    0.0000 C   0  0  0  0  0  0  0  0  0  0  0  0
    6.0509   -0.0010    0.0000 C   0  0  0  0  0  0  0  0  0  0  0  0
    4.8625   -2.8471    0.0000 C   0  0  0  0  0  0  0  0  0  0  0  0
    3.6814   -1.2332    0.0000 C   0  0  0  0  0  0  0  0  0  0  0  0
    3.2778   -2.1481    0.0000 C   0  0  0  0  0  0  0  0  0  0  0  0
    3.5998    0.8547    0.0000 C   0  0  0  0  0  0  0  0  0  0  0  0
    4.9355    2.3433    0.0000 C   0  0  0  0  0  0  0  0  0  0  0  0
    7.8860    1.9877    0.0000 C   0  0  0  0  0  0  0  0  0  0  0  0
    3.2892    1.8052    0.0000 C   0  0  0  0  0  0  0  0  0  0  0  0
    3.9570    2.5495    0.0000 C   0  0  0  0  0  0  0  0  0  0  0  0
    8.7520    1.4877    0.0000 C   0  0  0  0  0  0  0  0  0  0  0  0
    7.8860    2.9877    0.0000 C   0  0  0  0  0  0  0  0  0  0  0  0
    9.6181    1.9877    0.0000 C   0  0  0  0  0  0  0  0  0  0  0  0
    9.6181    2.9877    0.0000 C   0  0  0  0  0  0  0  0  0  0  0  0
    8.7520    3.4877    0.0000 C   0  0  0  0  0  0  0  0  0  0  0  0
   10.5120    3.5224    0.0000 C   0  0  0  0  0  0  0  0  0  0  0  0
    2.0000    2.9620    0.0000 C   0  0  0  0  0  0  0  0  0  0  0  0
   11.4181    3.0085    0.0000 C   0  0  0  0  0  0  0  0  0  0  0  0
   11.4181    1.9669    0.0000 C   0  0  0  0  0  0  0  0  0  0  0  0
    5.7813   -2.2771    0.0000 H   0  0  0  0  0  0  0  0  0  0  0  0
    5.6952   -1.4847    0.0000 H   0  0  0  0  0  0  0  0  0  0  0  0
    6.5124   -0.4151    0.0000 H   0  0  0  0  0  0  0  0  0  0  0  0
    4.8214   -3.4658    0.0000 H   0  0  0  0  0  0  0  0  0  0  0  0
    5.4646   -2.9950    0.0000 H   0  0  0  0  0  0  0  0  0  0  0  0
    3.3152   -0.7328    0.0000 H   0  0  0  0  0  0  0  0  0  0  0  0
    2.7626   -1.8032    0.0000 H   0  0  0  0  0  0  0  0  0  0  0  0
    2.8486   -2.5956    0.0000 H   0  0  0  0  0  0  0  0  0  0  0  0
    3.1858    0.3933    0.0000 H   0  0  0  0  0  0  0  0  0  0  0  0
    3.6182   -3.5224    0.0000 H   0  0  0  0  0  0  0  0  0  0  0  0
    5.3496    2.8048    0.0000 H   0  0  0  0  0  0  0  0  0  0  0  0
    3.7644    3.1389    0.0000 H   0  0  0  0  0  0  0  0  0  0  0  0
    8.7520    0.8677    0.0000 H   0  0  0  0  0  0  0  0  0  0  0  0
    7.3491    3.2977    0.0000 H   0  0  0  0  0  0  0  0  0  0  0  0
    8.7520    4.1077    0.0000 H   0  0  0  0  0  0  0  0  0  0  0  0
   10.5048    4.1423    0.0000 H   0  0  0  0  0  0  0  0  0  0  0  0
   11.9538    3.3206    0.0000 H   0  0  0  0  0  0  0  0  0  0  0  0
    2.5893    3.1546    0.0000 H   0  0  0  0  0  0  0  0  0  0  0  0
    1.8074    3.5513    0.0000 H   0  0  0  0  0  0  0  0  0  0  0  0
    1.4107    2.7694    0.0000 H   0  0  0  0  0  0  0  0  0  0  0  0
   11.9538    1.6548    0.0000 H   0  0  0  0  0  0  0  0  0  0  0  0
  1  2  2  0  0  0  0
  1  3  2  0  0  0  0
  1  5  1  0  0  0  0
  1 19  1  0  0  0  0
  4 20  1  0  0  0  0
  4 28  1  0  0  0  0
  5 11  1  0  0  0  0
  5 13  1  0  0  0  0
  6 14  1  0  0  0  0
  6 16  1  0  0  0  0
  6 40  1  0  0  0  0
  7 24  1  0  0  0  0
  7 30  2  0  0  0  0
  8  9  1  0  0  0  0
  8 10  1  0  0  0  0
  8 13  2  0  0  0  0
  9 12  1  0  0  0  0
  9 15  2  0  0  0  0
 10 11  2  0  0  0  0
 10 17  1  0  0  0  0
 11 18  1  0  0  0  0
 12 14  1  0  0  0  0
 12 31  1  0  0  0  0
 12 32  1  0  0  0  0
 13 33  1  0  0  0  0
 14 34  1  0  0  0  0
 14 35  1  0  0  0  0
 15 16  1  0  0  0  0
 15 36  1  0  0  0  0
 16 37  1  0  0  0  0
 16 38  1  0  0  0  0
 17 20  2  0  0  0  0
 17 39  1  0  0  0  0
 18 21  2  0  0  0  0
 18 41  1  0  0  0  0
 19 22  2  0  0  0  0
 19 23  1  0  0  0  0
 20 21  1  0  0  0  0
 21 42  1  0  0  0  0
 22 24  1  0  0  0  0
 22 43  1  0  0  0  0
 23 26  2  0  0  0  0
 23 44  1  0  0  0  0
 24 25  2  0  0  0  0
 25 26  1  0  0  0  0
 25 27  1  0  0  0  0
 26 45  1  0  0  0  0
 27 29  2  0  0  0  0
 27 46  1  0  0  0  0
 28 48  1  0  0  0  0
 28 49  1  0  0  0  0
 28 50  1  0  0  0  0
 29 30  1  0  0  0  0
 29 47  1  0  0  0  0
 30 51  1  0  0  0  0
M  END
> <PUBCHEM_COMPOUND_CID>
155519559

> <PUBCHEM_COMPOUND_CANONICALIZED>
1

> <PUBCHEM_CACTVS_COMPLEXITY>
749

> <PUBCHEM_CACTVS_HBOND_ACCEPTOR>
5

> <PUBCHEM_CACTVS_HBOND_DONOR>
1

> <PUBCHEM_CACTVS_ROTATABLE_BOND>
4

> <PUBCHEM_CACTVS_SUBSKEYS>
AAADceB7MABAAAAAAAAAAAAAAAAAAWAAAAA8YIEAAAAAAFix/gAAHgQQQAAADAzB3gY+x/LIFAKgAzRnRHDCiDAxIiAI2Lg+bJgMJuLEsZuEMCxk0BHI6Aew0PIOkEABACACAAAggAIAQAQAAAAAAAAAAA==

> <PUBCHEM_IUPAC_OPENEYE_NAME>
7-[5-methoxy-3-(1,2,3,6-tetrahydropyridin-4-yl)indol-1-yl]sulfonylquinoline

> <PUBCHEM_IUPAC_CAS_NAME>
7-[[5-methoxy-3-(1,2,3,6-tetrahydropyridin-4-yl)-1-indolyl]sulfonyl]quinoline

> <PUBCHEM_IUPAC_NAME_MARKUP>
7-[5-methoxy-3-(1,2,3,6-tetrahydropyridin-4-yl)indol-1-yl]sulfonylquinoline

> <PUBCHEM_IUPAC_NAME>
7-[5-methoxy-3-(1,2,3,6-tetrahydropyridin-4-yl)indol-1-yl]sulfonylquinoline

> <PUBCHEM_IUPAC_SYSTEMATIC_NAME>
7-[5-methoxy-3-(1,2,3,6-tetrahydropyridin-4-yl)indol-1-yl]sulfonylquinoline

> <PUBCHEM_IUPAC_TRADITIONAL_NAME>
7-[5-methoxy-3-(1,2,3,6-tetrahydropyridin-4-yl)indol-1-yl]sulfonylquinoline

> <PUBCHEM_IUPAC_INCHI>
InChI=1S/C23H21N3O3S/c1-29-18-5-7-23-20(13-18)21(16-8-11-24-12-9-16)15-26(23)30(27,28)19-6-4-17-3-2-10-25-22(17)14-19/h2-8,10,13-15,24H,9,11-12H2,1H3

> <PUBCHEM_IUPAC_INCHIKEY>
YMLDFYDEWIBRLP-UHFFFAOYSA-N

> <PUBCHEM_XLOGP3_AA>
3.2

> <PUBCHEM_EXACT_MASS>
419.13036271

> <PUBCHEM_MOLECULAR_FORMULA>
C23H21N3O3S

> <PUBCHEM_MOLECULAR_WEIGHT>
419.5

> <PUBCHEM_OPENEYE_CAN_SMILES>
COC1=CC2=C(C=C1)N(C=C2C3=CCNCC3)S(=O)(=O)C4=CC5=C(C=CC=N5)C=C4

> <PUBCHEM_OPENEYE_ISO_SMILES>
COC1=CC2=C(C=C1)N(C=C2C3=CCNCC3)S(=O)(=O)C4=CC5=C(C=CC=N5)C=C4

> <PUBCHEM_CACTVS_TPSA>
81.6

> <PUBCHEM_MONOISOTOPIC_WEIGHT>
419.13036271

> <PUBCHEM_TOTAL_CHARGE>
0

> <PUBCHEM_HEAVY_ATOM_COUNT>
30

> <PUBCHEM_ATOM_DEF_STEREO_COUNT>
0

> <PUBCHEM_ATOM_UDEF_STEREO_COUNT>
0

> <PUBCHEM_BOND_DEF_STEREO_COUNT>
0

> <PUBCHEM_BOND_UDEF_STEREO_COUNT>
0

> <PUBCHEM_ISOTOPIC_ATOM_COUNT>
0

> <PUBCHEM_COMPONENT_COUNT>
1

> <PUBCHEM_CACTVS_TAUTO_COUNT>
-1

> <PUBCHEM_COORDINATE_TYPE>
1
5
255

> <PUBCHEM_BONDANNOTATIONS>
10  11  8
10  17  8
11  18  8
17  20  8
18  21  8
19  22  8
19  23  8
20  21  8
22  24  8
23  26  8
24  25  8
25  26  8
25  27  8
27  29  8
29  30  8
5  11  8
5  13  8
7  24  8
7  30  8
8  10  8
8  13  8

$$$$
