134141354
  -OEChem-09292322382D

 47 48  0     1  0  0  0  0  0999 V2000
    0.3549    0.0000    0.0000 Cl  0  0  0  0  0  0  0  0  0  0  0  0
    4.5830    8.9926    0.0000 Cl  0  0  0  0  0  0  0  0  0  0  0  0
    2.4835    4.0582    0.0000 O   0  0  0  0  0  0  0  0  0  0  0  0
    6.0735    4.3929    0.0000 N   0  0  3  0  0  0  0  0  0  0  0  0
    5.6396    5.2939    0.0000 C   0  0  0  0  0  0  0  0  0  0  0  0
    6.0735    6.1948    0.0000 C   0  0  0  0  0  0  0  0  0  0  0  0
    7.0484    4.1704    0.0000 C   0  0  0  0  0  0  0  0  0  0  0  0
    7.0484    6.4174    0.0000 C   0  0  0  0  0  0  0  0  0  0  0  0
    5.4500    3.6111    0.0000 C   0  0  0  0  0  0  0  0  0  0  0  0
    7.8303    4.7939    0.0000 C   0  0  0  0  0  0  0  0  0  0  0  0
    7.8303    5.7939    0.0000 C   0  0  0  0  0  0  0  0  0  0  0  0
    4.4612    3.7601    0.0000 C   0  0  0  0  0  0  0  0  0  0  0  0
    3.8377    2.9783    0.0000 C   0  0  0  0  0  0  0  0  0  0  0  0
    8.7242    4.2592    0.0000 C   0  0  0  0  0  0  0  0  0  0  0  0
    8.7242    6.3285    0.0000 C   0  0  0  0  0  0  0  0  0  0  0  0
    9.6303    4.7731    0.0000 C   0  0  0  0  0  0  0  0  0  0  0  0
    9.6303    5.8147    0.0000 C   0  0  0  0  0  0  0  0  0  0  0  0
    2.8489    3.1273    0.0000 C   0  0  0  0  0  0  0  0  0  0  0  0
    2.2254    2.3455    0.0000 C   0  0  0  0  0  0  0  0  0  0  0  0
    2.5907    1.4146    0.0000 C   0  0  0  0  0  0  0  0  0  0  0  0
    1.2366    2.4945    0.0000 C   0  0  0  0  0  0  0  0  0  0  0  0
    1.9672    0.6328    0.0000 C   0  0  0  0  0  0  0  0  0  0  0  0
    0.6131    1.7127    0.0000 C   0  0  0  0  0  0  0  0  0  0  0  0
    0.9784    0.7818    0.0000 C   0  0  0  0  0  0  0  0  0  0  0  0
    5.1549    5.6804    0.0000 H   0  0  0  0  0  0  0  0  0  0  0  0
    5.1549    4.9073    0.0000 H   0  0  0  0  0  0  0  0  0  0  0  0
    6.0735    6.8148    0.0000 H   0  0  0  0  0  0  0  0  0  0  0  0
    5.4691    6.3328    0.0000 H   0  0  0  0  0  0  0  0  0  0  0  0
    6.7794    3.6118    0.0000 H   0  0  0  0  0  0  0  0  0  0  0  0
    7.5332    3.7838    0.0000 H   0  0  0  0  0  0  0  0  0  0  0  0
    5.2526    3.0234    0.0000 H   0  0  0  0  0  0  0  0  0  0  0  0
    5.9945    3.3146    0.0000 H   0  0  0  0  0  0  0  0  0  0  0  0
    7.5332    6.8039    0.0000 H   0  0  0  0  0  0  0  0  0  0  0  0
    6.7794    6.9760    0.0000 H   0  0  0  0  0  0  0  0  0  0  0  0
    4.6587    4.3478    0.0000 H   0  0  0  0  0  0  0  0  0  0  0  0
    3.9167    4.0566    0.0000 H   0  0  0  0  0  0  0  0  0  0  0  0
    3.6402    2.3906    0.0000 H   0  0  0  0  0  0  0  0  0  0  0  0
    4.3822    2.6818    0.0000 H   0  0  0  0  0  0  0  0  0  0  0  0
    8.7171    3.6392    0.0000 H   0  0  0  0  0  0  0  0  0  0  0  0
    8.7171    6.9485    0.0000 H   0  0  0  0  0  0  0  0  0  0  0  0
   10.1660    4.4610    0.0000 H   0  0  0  0  0  0  0  0  0  0  0  0
   10.1660    6.1268    0.0000 H   0  0  0  0  0  0  0  0  0  0  0  0
    3.2038    1.3222    0.0000 H   0  0  0  0  0  0  0  0  0  0  0  0
    1.0100    3.0717    0.0000 H   0  0  0  0  0  0  0  0  0  0  0  0
    2.1938    0.0556    0.0000 H   0  0  0  0  0  0  0  0  0  0  0  0
    0.0000    1.8051    0.0000 H   0  0  0  0  0  0  0  0  0  0  0  0
    5.5830    8.9926    0.0000 H   0  0  0  0  0  0  0  0  0  0  0  0
  1 24  1  0  0  0  0
  2 47  1  0  0  0  0
  3 18  2  0  0  0  0
  4  5  1  0  0  0  0
  4  7  1  0  0  0  0
  4  9  1  0  0  0  0
  5  6  1  0  0  0  0
  5 25  1  0  0  0  0
  5 26  1  0  0  0  0
  6  8  1  0  0  0  0
  6 27  1  0  0  0  0
  6 28  1  0  0  0  0
  7 10  1  0  0  0  0
  7 29  1  0  0  0  0
  7 30  1  0  0  0  0
  8 11  1  0  0  0  0
  8 33  1  0  0  0  0
  8 34  1  0  0  0  0
  9 12  1  0  0  0  0
  9 31  1  0  0  0  0
  9 32  1  0  0  0  0
 10 11  1  0  0  0  0
 10 14  2  0  0  0  0
 11 15  2  0  0  0  0
 12 13  1  0  0  0  0
 12 35  1  0  0  0  0
 12 36  1  0  0  0  0
 13 18  1  0  0  0  0
 13 37  1  0  0  0  0
 13 38  1  0  0  0  0
 14 16  1  0  0  0  0
 14 39  1  0  0  0  0
 15 17  1  0  0  0  0
 15 40  1  0  0  0  0
 16 17  2  0  0  0  0
 16 41  1  0  0  0  0
 17 42  1  0  0  0  0
 18 19  1  0  0  0  0
 19 20  2  0  0  0  0
 19 21  1  0  0  0  0
 20 22  1  0  0  0  0
 20 43  1  0  0  0  0
 21 23  2  0  0  0  0
 21 44  1  0  0  0  0
 22 24  2  0  0  0  0
 22 45  1  0  0  0  0
 23 24  1  0  0  0  0
 23 46  1  0  0  0  0
M  END
> <PUBCHEM_COMPOUND_CID>
134141354

> <PUBCHEM_COMPOUND_CANONICALIZED>
1

> <PUBCHEM_CACTVS_COMPLEXITY>
378

> <PUBCHEM_CACTVS_HBOND_ACCEPTOR>
2

> <PUBCHEM_CACTVS_HBOND_DONOR>
1

> <PUBCHEM_CACTVS_ROTATABLE_BOND>
5

> <PUBCHEM_CACTVS_SUBSKEYS>
AAADceB6IAAGAAAAAAAAAAAAAAAAAAAAAAAwYAAABYAAAAABQAAAHgIAAAAADAbBmCQwAIMAAACIAqBSAACCAAAkBQAIiAEIBsgIIDKBlxGEIQhggACIiYcciICOhAAAAAAQAAAIAAAAACAAAAAAAAAAAA==

> <PUBCHEM_IUPAC_OPENEYE_NAME>
1-(4-chlorophenyl)-4-(1,3,4,5-tetrahydro-2-benzazepin-2-yl)butan-1-one;hydrochloride

> <PUBCHEM_IUPAC_CAS_NAME>
1-(4-chlorophenyl)-4-(1,3,4,5-tetrahydro-2-benzazepin-2-yl)-1-butanone;hydrochloride

> <PUBCHEM_IUPAC_NAME_MARKUP>
1-(4-chlorophenyl)-4-(1,3,4,5-tetrahydro-2-benzazepin-2-yl)butan-1-one;hydrochloride

> <PUBCHEM_IUPAC_NAME>
1-(4-chlorophenyl)-4-(1,3,4,5-tetrahydro-2-benzazepin-2-yl)butan-1-one;hydrochloride

> <PUBCHEM_IUPAC_SYSTEMATIC_NAME>
1-(4-chlorophenyl)-4-(1,3,4,5-tetrahydro-2-benzazepin-2-yl)butan-1-one;hydrochloride

> <PUBCHEM_IUPAC_TRADITIONAL_NAME>
1-(4-chlorophenyl)-4-(1,3,4,5-tetrahydro-2-benzazepin-2-yl)butan-1-one;hydrochloride

> <PUBCHEM_IUPAC_INCHI>
InChI=1S/C20H22ClNO.ClH/c21-19-11-9-17(10-12-19)20(23)8-4-14-22-13-3-7-16-5-1-2-6-18(16)15-22;/h1-2,5-6,9-12H,3-4,7-8,13-15H2;1H

> <PUBCHEM_IUPAC_INCHIKEY>
FPDLYMXLPOEFDP-UHFFFAOYSA-N

> <PUBCHEM_EXACT_MASS>
363.1156697

> <PUBCHEM_MOLECULAR_FORMULA>
C20H23Cl2NO

> <PUBCHEM_MOLECULAR_WEIGHT>
364.3

> <PUBCHEM_OPENEYE_CAN_SMILES>
C1CC2=CC=CC=C2CN(C1)CCCC(=O)C3=CC=C(C=C3)Cl.Cl

> <PUBCHEM_OPENEYE_ISO_SMILES>
C1CC2=CC=CC=C2CN(C1)CCCC(=O)C3=CC=C(C=C3)Cl.Cl

> <PUBCHEM_CACTVS_TPSA>
20.3

> <PUBCHEM_MONOISOTOPIC_WEIGHT>
363.1156697

> <PUBCHEM_TOTAL_CHARGE>
0

> <PUBCHEM_HEAVY_ATOM_COUNT>
24

> <PUBCHEM_ATOM_DEF_STEREO_COUNT>
0

> <PUBCHEM_ATOM_UDEF_STEREO_COUNT>
0

> <PUBCHEM_BOND_DEF_STEREO_COUNT>
0

> <PUBCHEM_BOND_UDEF_STEREO_COUNT>
0

> <PUBCHEM_ISOTOPIC_ATOM_COUNT>
0

> <PUBCHEM_COMPONENT_COUNT>
2

> <PUBCHEM_CACTVS_TAUTO_COUNT>
-1

> <PUBCHEM_COORDINATE_TYPE>
1
5
255

> <PUBCHEM_BONDANNOTATIONS>
10  11  8
10  14  8
11  15  8
14  16  8
15  17  8
16  17  8
19  20  8
19  21  8
20  22  8
21  23  8
22  24  8
23  24  8

$$$$
