66559782
  -OEChem-09292321592D

 58 61  0     0  0  0  0  0  0999 V2000
    4.5961    1.5396    0.0000 Cl  0  0  0  0  0  0  0  0  0  0  0  0
    2.8602    2.5329    0.0000 Cl  0  0  0  0  0  0  0  0  0  0  0  0
   10.6718   -1.9370    0.0000 O   0  0  0  0  0  0  0  0  0  0  0  0
   15.9339   -1.9129    0.0000 O   0  0  0  0  0  0  0  0  0  0  0  0
    6.3397   -1.4537    0.0000 N   0  0  0  0  0  0  0  0  0  0  0  0
   14.2019   -1.9129    0.0000 N   0  0  0  0  0  0  0  0  0  0  0  0
    4.6038   -0.4604    0.0000 C   0  0  0  0  0  0  0  0  0  0  0  0
    5.4679    0.0429    0.0000 C   0  0  0  0  0  0  0  0  0  0  0  0
    4.6077   -1.4604    0.0000 C   0  0  0  0  0  0  0  0  0  0  0  0
    6.3359   -0.4537    0.0000 C   0  0  0  0  0  0  0  0  0  0  0  0
    5.4756   -1.9571    0.0000 C   0  0  0  0  0  0  0  0  0  0  0  0
    7.2077   -1.9504    0.0000 C   0  0  0  0  0  0  0  0  0  0  0  0
    3.7359    0.0362    0.0000 C   0  0  0  0  0  0  0  0  0  0  0  0
    8.0718   -1.4470    0.0000 C   0  0  0  0  0  0  0  0  0  0  0  0
    8.9397   -1.9437    0.0000 C   0  0  0  0  0  0  0  0  0  0  0  0
    3.7320    1.0362    0.0000 C   0  0  0  0  0  0  0  0  0  0  0  0
    2.8718   -0.4671    0.0000 C   0  0  0  0  0  0  0  0  0  0  0  0
    9.8038   -1.4404    0.0000 C   0  0  0  0  0  0  0  0  0  0  0  0
    2.8641    1.5329    0.0000 C   0  0  0  0  0  0  0  0  0  0  0  0
    2.0038    0.0296    0.0000 C   0  0  0  0  0  0  0  0  0  0  0  0
    2.0000    1.0296    0.0000 C   0  0  0  0  0  0  0  0  0  0  0  0
   13.3359   -0.4129    0.0000 C   0  0  0  0  0  0  0  0  0  0  0  0
   11.5358   -1.4337    0.0000 C   0  0  0  0  0  0  0  0  0  0  0  0
   14.2019    0.0871    0.0000 C   0  0  0  0  0  0  0  0  0  0  0  0
   13.3359   -1.4129    0.0000 C   0  0  0  0  0  0  0  0  0  0  0  0
   15.0679   -0.4129    0.0000 C   0  0  0  0  0  0  0  0  0  0  0  0
   12.4419   -1.9476    0.0000 C   0  0  0  0  0  0  0  0  0  0  0  0
   12.4419    0.1218    0.0000 C   0  0  0  0  0  0  0  0  0  0  0  0
   11.5358   -0.3921    0.0000 C   0  0  0  0  0  0  0  0  0  0  0  0
   15.0679   -1.4129    0.0000 C   0  0  0  0  0  0  0  0  0  0  0  0
    4.0681   -0.7725    0.0000 H   0  0  0  0  0  0  0  0  0  0  0  0
    5.8646    0.5194    0.0000 H   0  0  0  0  0  0  0  0  0  0  0  0
    5.0676    0.5163    0.0000 H   0  0  0  0  0  0  0  0  0  0  0  0
    3.9967   -1.3551    0.0000 H   0  0  0  0  0  0  0  0  0  0  0  0
    4.3979   -2.0438    0.0000 H   0  0  0  0  0  0  0  0  0  0  0  0
    6.9469   -0.5590    0.0000 H   0  0  0  0  0  0  0  0  0  0  0  0
    6.5457    0.1297    0.0000 H   0  0  0  0  0  0  0  0  0  0  0  0
    5.0789   -2.4336    0.0000 H   0  0  0  0  0  0  0  0  0  0  0  0
    5.8760   -2.4305    0.0000 H   0  0  0  0  0  0  0  0  0  0  0  0
    6.8110   -2.4269    0.0000 H   0  0  0  0  0  0  0  0  0  0  0  0
    7.6080   -2.4238    0.0000 H   0  0  0  0  0  0  0  0  0  0  0  0
    8.4685   -0.9706    0.0000 H   0  0  0  0  0  0  0  0  0  0  0  0
    7.6714   -0.9736    0.0000 H   0  0  0  0  0  0  0  0  0  0  0  0
    8.5430   -2.4202    0.0000 H   0  0  0  0  0  0  0  0  0  0  0  0
    9.3401   -2.4171    0.0000 H   0  0  0  0  0  0  0  0  0  0  0  0
    2.8742   -1.0871    0.0000 H   0  0  0  0  0  0  0  0  0  0  0  0
   10.2005   -0.9639    0.0000 H   0  0  0  0  0  0  0  0  0  0  0  0
    9.4034   -0.9670    0.0000 H   0  0  0  0  0  0  0  0  0  0  0  0
    1.4681   -0.2825    0.0000 H   0  0  0  0  0  0  0  0  0  0  0  0
    1.4619    1.3375    0.0000 H   0  0  0  0  0  0  0  0  0  0  0  0
   14.6004    0.5621    0.0000 H   0  0  0  0  0  0  0  0  0  0  0  0
   13.8034    0.5621    0.0000 H   0  0  0  0  0  0  0  0  0  0  0  0
   15.6785   -0.5205    0.0000 H   0  0  0  0  0  0  0  0  0  0  0  0
   15.2800    0.1697    0.0000 H   0  0  0  0  0  0  0  0  0  0  0  0
   12.4491   -2.5675    0.0000 H   0  0  0  0  0  0  0  0  0  0  0  0
   12.4491    0.7417    0.0000 H   0  0  0  0  0  0  0  0  0  0  0  0
   11.0001   -0.0800    0.0000 H   0  0  0  0  0  0  0  0  0  0  0  0
   14.2019   -2.5329    0.0000 H   0  0  0  0  0  0  0  0  0  0  0  0
  1 16  1  0  0  0  0
  2 19  1  0  0  0  0
  3 18  1  0  0  0  0
  3 23  1  0  0  0  0
  4 30  2  0  0  0  0
  5 10  1  0  0  0  0
  5 11  1  0  0  0  0
  5 12  1  0  0  0  0
  6 25  1  0  0  0  0
  6 30  1  0  0  0  0
  6 58  1  0  0  0  0
  7  8  1  0  0  0  0
  7  9  1  0  0  0  0
  7 13  1  0  0  0  0
  7 31  1  0  0  0  0
  8 10  1  0  0  0  0
  8 32  1  0  0  0  0
  8 33  1  0  0  0  0
  9 11  1  0  0  0  0
  9 34  1  0  0  0  0
  9 35  1  0  0  0  0
 10 36  1  0  0  0  0
 10 37  1  0  0  0  0
 11 38  1  0  0  0  0
 11 39  1  0  0  0  0
 12 14  1  0  0  0  0
 12 40  1  0  0  0  0
 12 41  1  0  0  0  0
 13 16  2  0  0  0  0
 13 17  1  0  0  0  0
 14 15  1  0  0  0  0
 14 42  1  0  0  0  0
 14 43  1  0  0  0  0
 15 18  1  0  0  0  0
 15 44  1  0  0  0  0
 15 45  1  0  0  0  0
 16 19  1  0  0  0  0
 17 20  2  0  0  0  0
 17 46  1  0  0  0  0
 18 47  1  0  0  0  0
 18 48  1  0  0  0  0
 19 21  2  0  0  0  0
 20 21  1  0  0  0  0
 20 49  1  0  0  0  0
 21 50  1  0  0  0  0
 22 24  1  0  0  0  0
 22 25  2  0  0  0  0
 22 28  1  0  0  0  0
 23 27  2  0  0  0  0
 23 29  1  0  0  0  0
 24 26  1  0  0  0  0
 24 51  1  0  0  0  0
 24 52  1  0  0  0  0
 25 27  1  0  0  0  0
 26 30  1  0  0  0  0
 26 53  1  0  0  0  0
 26 54  1  0  0  0  0
 27 55  1  0  0  0  0
 28 29  2  0  0  0  0
 28 56  1  0  0  0  0
 29 57  1  0  0  0  0
M  END
> <PUBCHEM_COMPOUND_CID>
66559782

> <PUBCHEM_COMPOUND_CANONICALIZED>
1

> <PUBCHEM_CACTVS_COMPLEXITY>
555

> <PUBCHEM_CACTVS_HBOND_ACCEPTOR>
3

> <PUBCHEM_CACTVS_HBOND_DONOR>
1

> <PUBCHEM_CACTVS_ROTATABLE_BOND>
7

> <PUBCHEM_CACTVS_SUBSKEYS>
AAADceB7MAAGAAAAAAAAAAAAAAAAAAAAAAA8eIEAAAAAAACxQAAAHgIQAAAADQ7hmCYwxoPABACIAiVSUACCCAAhJwAIikEObogMJjLFs5uGOCjm1BnI6Ae42eOeoAAAIgADAARAAABEAAYACAAAAAAAAA==

> <PUBCHEM_IUPAC_OPENEYE_NAME>
7-[4-[4-(2,3-dichlorophenyl)-1-piperidyl]butoxy]-3,4-dihydro-1H-quinolin-2-one

> <PUBCHEM_IUPAC_CAS_NAME>
7-[4-[4-(2,3-dichlorophenyl)-1-piperidinyl]butoxy]-3,4-dihydro-1H-quinolin-2-one

> <PUBCHEM_IUPAC_NAME_MARKUP>
7-[4-[4-(2,3-dichlorophenyl)piperidin-1-yl]butoxy]-3,4-dihydro-1<I>H</I>-quinolin-2-one

> <PUBCHEM_IUPAC_NAME>
7-[4-[4-(2,3-dichlorophenyl)piperidin-1-yl]butoxy]-3,4-dihydro-1H-quinolin-2-one

> <PUBCHEM_IUPAC_SYSTEMATIC_NAME>
7-[4-[4-[2,3-bis(chloranyl)phenyl]piperidin-1-yl]butoxy]-3,4-dihydro-1H-quinolin-2-one

> <PUBCHEM_IUPAC_TRADITIONAL_NAME>
7-[4-[4-(2,3-dichlorophenyl)piperidino]butoxy]-3,4-dihydrocarbostyril

> <PUBCHEM_IUPAC_INCHI>
InChI=1S/C24H28Cl2N2O2/c25-21-5-3-4-20(24(21)26)17-10-13-28(14-11-17)12-1-2-15-30-19-8-6-18-7-9-23(29)27-22(18)16-19/h3-6,8,16-17H,1-2,7,9-15H2,(H,27,29)

> <PUBCHEM_IUPAC_INCHIKEY>
GHSXGIFSVHMKHZ-UHFFFAOYSA-N

> <PUBCHEM_XLOGP3_AA>
5.3

> <PUBCHEM_EXACT_MASS>
446.1527835

> <PUBCHEM_MOLECULAR_FORMULA>
C24H28Cl2N2O2

> <PUBCHEM_MOLECULAR_WEIGHT>
447.4

> <PUBCHEM_OPENEYE_CAN_SMILES>
C1CN(CCC1C2=C(C(=CC=C2)Cl)Cl)CCCCOC3=CC4=C(CCC(=O)N4)C=C3

> <PUBCHEM_OPENEYE_ISO_SMILES>
C1CN(CCC1C2=C(C(=CC=C2)Cl)Cl)CCCCOC3=CC4=C(CCC(=O)N4)C=C3

> <PUBCHEM_CACTVS_TPSA>
41.6

> <PUBCHEM_MONOISOTOPIC_WEIGHT>
446.1527835

> <PUBCHEM_TOTAL_CHARGE>
0

> <PUBCHEM_HEAVY_ATOM_COUNT>
30

> <PUBCHEM_ATOM_DEF_STEREO_COUNT>
0

> <PUBCHEM_ATOM_UDEF_STEREO_COUNT>
0

> <PUBCHEM_BOND_DEF_STEREO_COUNT>
0

> <PUBCHEM_BOND_UDEF_STEREO_COUNT>
0

> <PUBCHEM_ISOTOPIC_ATOM_COUNT>
0

> <PUBCHEM_COMPONENT_COUNT>
1

> <PUBCHEM_CACTVS_TAUTO_COUNT>
-1

> <PUBCHEM_COORDINATE_TYPE>
1
5
255

> <PUBCHEM_BONDANNOTATIONS>
13  16  8
13  17  8
16  19  8
17  20  8
19  21  8
20  21  8
22  25  8
22  28  8
23  27  8
23  29  8
25  27  8
28  29  8

$$$$
