56661544
  -OEChem-09292322322D

 66 68  0     0  0  0  0  0  0999 V2000
    8.3342    3.6467    0.0000 O   0  0  0  0  0  0  0  0  0  0  0  0
    1.4061    3.6200    0.0000 O   0  0  0  0  0  0  0  0  0  0  0  0
   13.5964    3.6708    0.0000 O   0  0  0  0  0  0  0  0  0  0  0  0
    8.0972    9.3367    0.0000 O   0  0  0  0  0  0  0  0  0  0  0  0
    5.4992    9.8367    0.0000 O   0  0  0  0  0  0  0  0  0  0  0  0
    7.2312   10.8367    0.0000 O   0  0  0  0  0  0  0  0  0  0  0  0
    6.3652    8.3367    0.0000 O   0  0  0  0  0  0  0  0  0  0  0  0
    4.8702    3.6333    0.0000 N   0  0  0  0  0  0  0  0  0  0  0  0
    3.1420    2.6267    0.0000 N   0  0  0  0  0  0  0  0  0  0  0  0
   11.8644    3.6708    0.0000 N   0  0  0  0  0  0  0  0  0  0  0  0
    4.0022    4.1300    0.0000 C   0  0  0  0  0  0  0  0  0  0  0  0
    4.8740    2.6333    0.0000 C   0  0  0  0  0  0  0  0  0  0  0  0
    3.1381    3.6266    0.0000 C   0  0  0  0  0  0  0  0  0  0  0  0
    4.0099    2.1300    0.0000 C   0  0  0  0  0  0  0  0  0  0  0  0
    5.7342    4.1367    0.0000 C   0  0  0  0  0  0  0  0  0  0  0  0
    6.6022    3.6400    0.0000 C   0  0  0  0  0  0  0  0  0  0  0  0
    2.2779    2.1233    0.0000 C   0  0  0  0  0  0  0  0  0  0  0  0
    7.4663    4.1433    0.0000 C   0  0  0  0  0  0  0  0  0  0  0  0
    1.4099    2.6200    0.0000 C   0  0  0  0  0  0  0  0  0  0  0  0
    2.2817    1.1233    0.0000 C   0  0  0  0  0  0  0  0  0  0  0  0
    0.5458    2.1166    0.0000 C   0  0  0  0  0  0  0  0  0  0  0  0
    1.4176    0.6200    0.0000 C   0  0  0  0  0  0  0  0  0  0  0  0
    9.1983    4.1500    0.0000 C   0  0  0  0  0  0  0  0  0  0  0  0
   10.9983    5.1708    0.0000 C   0  0  0  0  0  0  0  0  0  0  0  0
   11.8644    5.6708    0.0000 C   0  0  0  0  0  0  0  0  0  0  0  0
   10.9983    4.1708    0.0000 C   0  0  0  0  0  0  0  0  0  0  0  0
    0.5497    1.1166    0.0000 C   0  0  0  0  0  0  0  0  0  0  0  0
   12.7304    5.1708    0.0000 C   0  0  0  0  0  0  0  0  0  0  0  0
   10.1044    3.6362    0.0000 C   0  0  0  0  0  0  0  0  0  0  0  0
   10.1044    5.7055    0.0000 C   0  0  0  0  0  0  0  0  0  0  0  0
    9.1983    5.1916    0.0000 C   0  0  0  0  0  0  0  0  0  0  0  0
   12.7304    4.1708    0.0000 C   0  0  0  0  0  0  0  0  0  0  0  0
    0.5381    4.1166    0.0000 C   0  0  0  0  0  0  0  0  0  0  0  0
    7.2312    9.8367    0.0000 C   0  0  0  0  0  0  0  0  0  0  0  0
    6.3652    9.3367    0.0000 C   0  0  0  0  0  0  0  0  0  0  0  0
    4.3989    4.6065    0.0000 H   0  0  0  0  0  0  0  0  0  0  0  0
    3.6018    4.6034    0.0000 H   0  0  0  0  0  0  0  0  0  0  0  0
    5.0883    2.0516    0.0000 H   0  0  0  0  0  0  0  0  0  0  0  0
    5.4842    2.7434    0.0000 H   0  0  0  0  0  0  0  0  0  0  0  0
    2.9238    4.2084    0.0000 H   0  0  0  0  0  0  0  0  0  0  0  0
    2.5280    3.5166    0.0000 H   0  0  0  0  0  0  0  0  0  0  0  0
    3.6132    1.6535    0.0000 H   0  0  0  0  0  0  0  0  0  0  0  0
    4.4103    1.6566    0.0000 H   0  0  0  0  0  0  0  0  0  0  0  0
    6.1309    4.6131    0.0000 H   0  0  0  0  0  0  0  0  0  0  0  0
    5.3339    4.6101    0.0000 H   0  0  0  0  0  0  0  0  0  0  0  0
    6.2055    3.1635    0.0000 H   0  0  0  0  0  0  0  0  0  0  0  0
    7.0025    3.1666    0.0000 H   0  0  0  0  0  0  0  0  0  0  0  0
    7.8630    4.6198    0.0000 H   0  0  0  0  0  0  0  0  0  0  0  0
    7.0659    4.6167    0.0000 H   0  0  0  0  0  0  0  0  0  0  0  0
    2.8199    0.8154    0.0000 H   0  0  0  0  0  0  0  0  0  0  0  0
    0.0077    2.4246    0.0000 H   0  0  0  0  0  0  0  0  0  0  0  0
    1.4200    0.0000    0.0000 H   0  0  0  0  0  0  0  0  0  0  0  0
   12.2629    6.1458    0.0000 H   0  0  0  0  0  0  0  0  0  0  0  0
   11.4658    6.1458    0.0000 H   0  0  0  0  0  0  0  0  0  0  0  0
    0.0140    0.8046    0.0000 H   0  0  0  0  0  0  0  0  0  0  0  0
   13.3410    5.0632    0.0000 H   0  0  0  0  0  0  0  0  0  0  0  0
   12.9424    5.7534    0.0000 H   0  0  0  0  0  0  0  0  0  0  0  0
   10.1116    3.0162    0.0000 H   0  0  0  0  0  0  0  0  0  0  0  0
   10.1116    6.3254    0.0000 H   0  0  0  0  0  0  0  0  0  0  0  0
    8.6626    5.5037    0.0000 H   0  0  0  0  0  0  0  0  0  0  0  0
   11.8644    3.0508    0.0000 H   0  0  0  0  0  0  0  0  0  0  0  0
    0.8461    4.6548    0.0000 H   0  0  0  0  0  0  0  0  0  0  0  0
    0.0000    4.4246    0.0000 H   0  0  0  0  0  0  0  0  0  0  0  0
    0.2302    3.5785    0.0000 H   0  0  0  0  0  0  0  0  0  0  0  0
    8.6342    9.6467    0.0000 H   0  0  0  0  0  0  0  0  0  0  0  0
    4.9622    9.5267    0.0000 H   0  0  0  0  0  0  0  0  0  0  0  0
  1 18  1  0  0  0  0
  1 23  1  0  0  0  0
  2 19  1  0  0  0  0
  2 33  1  0  0  0  0
  3 32  2  0  0  0  0
  4 34  1  0  0  0  0
  4 65  1  0  0  0  0
  5 35  1  0  0  0  0
  5 66  1  0  0  0  0
  6 34  2  0  0  0  0
  7 35  2  0  0  0  0
  8 11  1  0  0  0  0
  8 12  1  0  0  0  0
  8 15  1  0  0  0  0
  9 13  1  0  0  0  0
  9 14  1  0  0  0  0
  9 17  1  0  0  0  0
 10 26  1  0  0  0  0
 10 32  1  0  0  0  0
 10 61  1  0  0  0  0
 11 13  1  0  0  0  0
 11 36  1  0  0  0  0
 11 37  1  0  0  0  0
 12 14  1  0  0  0  0
 12 38  1  0  0  0  0
 12 39  1  0  0  0  0
 13 40  1  0  0  0  0
 13 41  1  0  0  0  0
 14 42  1  0  0  0  0
 14 43  1  0  0  0  0
 15 16  1  0  0  0  0
 15 44  1  0  0  0  0
 15 45  1  0  0  0  0
 16 18  1  0  0  0  0
 16 46  1  0  0  0  0
 16 47  1  0  0  0  0
 17 19  1  0  0  0  0
 17 20  2  0  0  0  0
 18 48  1  0  0  0  0
 18 49  1  0  0  0  0
 19 21  2  0  0  0  0
 20 22  1  0  0  0  0
 20 50  1  0  0  0  0
 21 27  1  0  0  0  0
 21 51  1  0  0  0  0
 22 27  2  0  0  0  0
 22 52  1  0  0  0  0
 23 29  2  0  0  0  0
 23 31  1  0  0  0  0
 24 25  1  0  0  0  0
 24 26  2  0  0  0  0
 24 30  1  0  0  0  0
 25 28  1  0  0  0  0
 25 53  1  0  0  0  0
 25 54  1  0  0  0  0
 26 29  1  0  0  0  0
 27 55  1  0  0  0  0
 28 32  1  0  0  0  0
 28 56  1  0  0  0  0
 28 57  1  0  0  0  0
 29 58  1  0  0  0  0
 30 31  2  0  0  0  0
 30 59  1  0  0  0  0
 31 60  1  0  0  0  0
 33 62  1  0  0  0  0
 33 63  1  0  0  0  0
 33 64  1  0  0  0  0
 34 35  1  0  0  0  0
M  END
> <PUBCHEM_COMPOUND_CID>
56661544

> <PUBCHEM_COMPOUND_CANONICALIZED>
1

> <PUBCHEM_CACTVS_COMPLEXITY>
595

> <PUBCHEM_CACTVS_HBOND_ACCEPTOR>
9

> <PUBCHEM_CACTVS_HBOND_DONOR>
3

> <PUBCHEM_CACTVS_ROTATABLE_BOND>
8

> <PUBCHEM_CACTVS_SUBSKEYS>
AAADceB7OAAAAAAAAAAAAAAAAAAAAAAAAAA8eIEAAAAAAACxQAAAHgAQCAAADAzhmAYyzoPABgCIAiXSWAKCCAAhIgAIiAFPbIgPZjLEsZuXOCjm1BnZ6AeY2aOeIAAAAgACEABAAAAEAAQgAAAAAAAAAA==

> <PUBCHEM_IUPAC_OPENEYE_NAME>
7-[3-[4-(2-methoxyphenyl)piperazin-1-yl]propoxy]-3,4-dihydro-1H-quinolin-2-one;oxalic acid

> <PUBCHEM_IUPAC_CAS_NAME>
7-[3-[4-(2-methoxyphenyl)-1-piperazinyl]propoxy]-3,4-dihydro-1H-quinolin-2-one;oxalic acid

> <PUBCHEM_IUPAC_NAME_MARKUP>
7-[3-[4-(2-methoxyphenyl)piperazin-1-yl]propoxy]-3,4-dihydro-1<I>H</I>-quinolin-2-one;oxalic acid

> <PUBCHEM_IUPAC_NAME>
7-[3-[4-(2-methoxyphenyl)piperazin-1-yl]propoxy]-3,4-dihydro-1H-quinolin-2-one;oxalic acid

> <PUBCHEM_IUPAC_SYSTEMATIC_NAME>
ethanedioic acid;7-[3-[4-(2-methoxyphenyl)piperazin-1-yl]propoxy]-3,4-dihydro-1H-quinolin-2-one

> <PUBCHEM_IUPAC_TRADITIONAL_NAME>
7-[3-[4-(2-methoxyphenyl)piperazino]propoxy]-3,4-dihydrocarbostyril;oxalic acid

> <PUBCHEM_IUPAC_INCHI>
InChI=1S/C23H29N3O3.C2H2O4/c1-28-22-6-3-2-5-21(22)26-14-12-25(13-15-26)11-4-16-29-19-9-7-18-8-10-23(27)24-20(18)17-19;3-1(4)2(5)6/h2-3,5-7,9,17H,4,8,10-16H2,1H3,(H,24,27);(H,3,4)(H,5,6)

> <PUBCHEM_IUPAC_INCHIKEY>
UFGVHSPYWZFNRU-UHFFFAOYSA-N

> <PUBCHEM_EXACT_MASS>
485.21620034

> <PUBCHEM_MOLECULAR_FORMULA>
C25H31N3O7

> <PUBCHEM_MOLECULAR_WEIGHT>
485.5

> <PUBCHEM_OPENEYE_CAN_SMILES>
COC1=CC=CC=C1N2CCN(CC2)CCCOC3=CC4=C(CCC(=O)N4)C=C3.C(=O)(C(=O)O)O

> <PUBCHEM_OPENEYE_ISO_SMILES>
COC1=CC=CC=C1N2CCN(CC2)CCCOC3=CC4=C(CCC(=O)N4)C=C3.C(=O)(C(=O)O)O

> <PUBCHEM_CACTVS_TPSA>
129

> <PUBCHEM_MONOISOTOPIC_WEIGHT>
485.21620034

> <PUBCHEM_TOTAL_CHARGE>
0

> <PUBCHEM_HEAVY_ATOM_COUNT>
35

> <PUBCHEM_ATOM_DEF_STEREO_COUNT>
0

> <PUBCHEM_ATOM_UDEF_STEREO_COUNT>
0

> <PUBCHEM_BOND_DEF_STEREO_COUNT>
0

> <PUBCHEM_BOND_UDEF_STEREO_COUNT>
0

> <PUBCHEM_ISOTOPIC_ATOM_COUNT>
0

> <PUBCHEM_COMPONENT_COUNT>
2

> <PUBCHEM_CACTVS_TAUTO_COUNT>
-1

> <PUBCHEM_COORDINATE_TYPE>
1
5
255

> <PUBCHEM_BONDANNOTATIONS>
17  19  8
17  20  8
19  21  8
20  22  8
21  27  8
22  27  8
23  29  8
23  31  8
24  26  8
24  30  8
26  29  8
30  31  8

$$$$
