11671211
  -OEChem-09292322482D

 65 69  0     0  0  0  0  0  0999 V2000
   14.3455    1.2443    0.0000 O   0  0  0  0  0  0  0  0  0  0  0  0
    4.6783   -1.3538    0.0000 O   0  0  0  0  0  0  0  0  0  0  0  0
   17.8898    3.0490    0.0000 O   0  0  0  0  0  0  0  0  0  0  0  0
    6.7619   -1.4151    0.0000 O   0  0  0  0  0  0  0  0  0  0  0  0
    2.8660   -2.5490    0.0000 O   0  0  0  0  0  0  0  0  0  0  0  0
   10.7619    2.0490    0.0000 N   0  0  0  0  0  0  0  0  0  0  0  0
   12.7619    2.0490    0.0000 N   0  0  0  0  0  0  0  0  0  0  0  0
   14.3455    2.8538    0.0000 N   0  0  0  0  0  0  0  0  0  0  0  0
    6.7619    0.3170    0.0000 N   0  0  0  0  0  0  0  0  0  0  0  0
   11.2619    1.1830    0.0000 C   0  0  0  0  0  0  0  0  0  0  0  0
   11.2619    2.9151    0.0000 C   0  0  0  0  0  0  0  0  0  0  0  0
   12.2619    1.1830    0.0000 C   0  0  0  0  0  0  0  0  0  0  0  0
   12.2619    2.9151    0.0000 C   0  0  0  0  0  0  0  0  0  0  0  0
    9.7619    2.0490    0.0000 C   0  0  0  0  0  0  0  0  0  0  0  0
    9.2619    1.1830    0.0000 C   0  0  0  0  0  0  0  0  0  0  0  0
    8.2619    1.1830    0.0000 C   0  0  0  0  0  0  0  0  0  0  0  0
   13.7619    2.0490    0.0000 C   0  0  0  0  0  0  0  0  0  0  0  0
    7.7619    0.3170    0.0000 C   0  0  0  0  0  0  0  0  0  0  0  0
   15.2917    2.5490    0.0000 C   0  0  0  0  0  0  0  0  0  0  0  0
   15.2917    1.5490    0.0000 C   0  0  0  0  0  0  0  0  0  0  0  0
   16.1577    3.0490    0.0000 C   0  0  0  0  0  0  0  0  0  0  0  0
   16.1577    1.0490    0.0000 C   0  0  0  0  0  0  0  0  0  0  0  0
    6.2619   -0.5490    0.0000 C   0  0  0  0  0  0  0  0  0  0  0  0
   17.0238    2.5490    0.0000 C   0  0  0  0  0  0  0  0  0  0  0  0
   17.0238    1.5490    0.0000 C   0  0  0  0  0  0  0  0  0  0  0  0
    5.2619   -0.5490    0.0000 C   0  0  0  0  0  0  0  0  0  0  0  0
    4.6783    0.2557    0.0000 C   0  0  0  0  0  0  0  0  0  0  0  0
    3.7320   -0.0490    0.0000 C   0  0  0  0  0  0  0  0  0  0  0  0
    3.7320   -1.0490    0.0000 C   0  0  0  0  0  0  0  0  0  0  0  0
    2.8660   -1.5490    0.0000 C   0  0  0  0  0  0  0  0  0  0  0  0
    2.8660    0.4510    0.0000 C   0  0  0  0  0  0  0  0  0  0  0  0
    2.0000   -1.0490    0.0000 C   0  0  0  0  0  0  0  0  0  0  0  0
    2.0000   -0.0490    0.0000 C   0  0  0  0  0  0  0  0  0  0  0  0
   18.7558    2.5490    0.0000 C   0  0  0  0  0  0  0  0  0  0  0  0
    2.0000   -3.0490    0.0000 C   0  0  0  0  0  0  0  0  0  0  0  0
   10.6793    0.9710    0.0000 H   0  0  0  0  0  0  0  0  0  0  0  0
   11.3695    0.5724    0.0000 H   0  0  0  0  0  0  0  0  0  0  0  0
   11.3695    3.5256    0.0000 H   0  0  0  0  0  0  0  0  0  0  0  0
   10.6793    3.1271    0.0000 H   0  0  0  0  0  0  0  0  0  0  0  0
   12.1542    0.5724    0.0000 H   0  0  0  0  0  0  0  0  0  0  0  0
   12.8445    0.9710    0.0000 H   0  0  0  0  0  0  0  0  0  0  0  0
   12.8445    3.1271    0.0000 H   0  0  0  0  0  0  0  0  0  0  0  0
   12.1542    3.5256    0.0000 H   0  0  0  0  0  0  0  0  0  0  0  0
    9.8695    2.6596    0.0000 H   0  0  0  0  0  0  0  0  0  0  0  0
    9.1793    2.2611    0.0000 H   0  0  0  0  0  0  0  0  0  0  0  0
    9.1542    0.5724    0.0000 H   0  0  0  0  0  0  0  0  0  0  0  0
    9.8445    0.9710    0.0000 H   0  0  0  0  0  0  0  0  0  0  0  0
    8.3695    1.7936    0.0000 H   0  0  0  0  0  0  0  0  0  0  0  0
    7.6793    1.3951    0.0000 H   0  0  0  0  0  0  0  0  0  0  0  0
    7.6542   -0.2936    0.0000 H   0  0  0  0  0  0  0  0  0  0  0  0
    8.3445    0.1049    0.0000 H   0  0  0  0  0  0  0  0  0  0  0  0
    6.4519    0.8539    0.0000 H   0  0  0  0  0  0  0  0  0  0  0  0
   16.1577    3.6690    0.0000 H   0  0  0  0  0  0  0  0  0  0  0  0
   16.1577    0.4290    0.0000 H   0  0  0  0  0  0  0  0  0  0  0  0
   17.5607    1.2390    0.0000 H   0  0  0  0  0  0  0  0  0  0  0  0
    4.8709    0.8450    0.0000 H   0  0  0  0  0  0  0  0  0  0  0  0
    2.8660    1.0710    0.0000 H   0  0  0  0  0  0  0  0  0  0  0  0
    1.4631   -1.3590    0.0000 H   0  0  0  0  0  0  0  0  0  0  0  0
    1.4631    0.2610    0.0000 H   0  0  0  0  0  0  0  0  0  0  0  0
   18.4458    2.0121    0.0000 H   0  0  0  0  0  0  0  0  0  0  0  0
   19.2927    2.2390    0.0000 H   0  0  0  0  0  0  0  0  0  0  0  0
   19.0658    3.0860    0.0000 H   0  0  0  0  0  0  0  0  0  0  0  0
    1.6900   -2.5121    0.0000 H   0  0  0  0  0  0  0  0  0  0  0  0
    1.4631   -3.3590    0.0000 H   0  0  0  0  0  0  0  0  0  0  0  0
    2.3100   -3.5860    0.0000 H   0  0  0  0  0  0  0  0  0  0  0  0
  1 17  1  0  0  0  0
  1 20  1  0  0  0  0
  2 26  1  0  0  0  0
  2 29  1  0  0  0  0
  3 24  1  0  0  0  0
  3 34  1  0  0  0  0
  4 23  2  0  0  0  0
  5 30  1  0  0  0  0
  5 35  1  0  0  0  0
  6 10  1  0  0  0  0
  6 11  1  0  0  0  0
  6 14  1  0  0  0  0
  7 12  1  0  0  0  0
  7 13  1  0  0  0  0
  7 17  1  0  0  0  0
  8 17  2  0  0  0  0
  8 19  1  0  0  0  0
  9 18  1  0  0  0  0
  9 23  1  0  0  0  0
  9 52  1  0  0  0  0
 10 12  1  0  0  0  0
 10 36  1  0  0  0  0
 10 37  1  0  0  0  0
 11 13  1  0  0  0  0
 11 38  1  0  0  0  0
 11 39  1  0  0  0  0
 12 40  1  0  0  0  0
 12 41  1  0  0  0  0
 13 42  1  0  0  0  0
 13 43  1  0  0  0  0
 14 15  1  0  0  0  0
 14 44  1  0  0  0  0
 14 45  1  0  0  0  0
 15 16  1  0  0  0  0
 15 46  1  0  0  0  0
 15 47  1  0  0  0  0
 16 18  1  0  0  0  0
 16 48  1  0  0  0  0
 16 49  1  0  0  0  0
 18 50  1  0  0  0  0
 18 51  1  0  0  0  0
 19 20  2  0  0  0  0
 19 21  1  0  0  0  0
 20 22  1  0  0  0  0
 21 24  2  0  0  0  0
 21 53  1  0  0  0  0
 22 25  2  0  0  0  0
 22 54  1  0  0  0  0
 23 26  1  0  0  0  0
 24 25  1  0  0  0  0
 25 55  1  0  0  0  0
 26 27  2  0  0  0  0
 27 28  1  0  0  0  0
 27 56  1  0  0  0  0
 28 29  2  0  0  0  0
 28 31  1  0  0  0  0
 29 30  1  0  0  0  0
 30 32  2  0  0  0  0
 31 33  2  0  0  0  0
 31 57  1  0  0  0  0
 32 33  1  0  0  0  0
 32 58  1  0  0  0  0
 33 59  1  0  0  0  0
 34 60  1  0  0  0  0
 34 61  1  0  0  0  0
 34 62  1  0  0  0  0
 35 63  1  0  0  0  0
 35 64  1  0  0  0  0
 35 65  1  0  0  0  0
M  END
> <PUBCHEM_COMPOUND_CID>
11671211

> <PUBCHEM_COMPOUND_CANONICALIZED>
1

> <PUBCHEM_CACTVS_COMPLEXITY>
691

> <PUBCHEM_CACTVS_HBOND_ACCEPTOR>
8

> <PUBCHEM_CACTVS_HBOND_DONOR>
1

> <PUBCHEM_CACTVS_ROTATABLE_BOND>
9

> <PUBCHEM_CACTVS_SUBSKEYS>
AAADceB7uAAAAAAAAAAAAAAAAAAAAWJAAAA8YIAAAAAAAFgB/gAAHgAQAAAADAzBngYz1vPIFECoA6VydAaCiCkvYiAJmKH/7NiPZrLEvb+fOSru1hva6afa/7/uAQABAgAIUAACAAIEABCgAAAAAAAAAA==

> <PUBCHEM_IUPAC_OPENEYE_NAME>
7-methoxy-N-[4-[4-(5-methoxy-1,3-benzoxazol-2-yl)piperazin-1-yl]butyl]benzofuran-2-carboxamide

> <PUBCHEM_IUPAC_CAS_NAME>
7-methoxy-N-[4-[4-(5-methoxy-1,3-benzoxazol-2-yl)-1-piperazinyl]butyl]-2-benzofurancarboxamide

> <PUBCHEM_IUPAC_NAME_MARKUP>
7-methoxy-<I>N</I>-[4-[4-(5-methoxy-1,3-benzoxazol-2-yl)piperazin-1-yl]butyl]-1-benzofuran-2-carboxamide

> <PUBCHEM_IUPAC_NAME>
7-methoxy-N-[4-[4-(5-methoxy-1,3-benzoxazol-2-yl)piperazin-1-yl]butyl]-1-benzofuran-2-carboxamide

> <PUBCHEM_IUPAC_SYSTEMATIC_NAME>
7-methoxy-N-[4-[4-(5-methoxy-1,3-benzoxazol-2-yl)piperazin-1-yl]butyl]-1-benzofuran-2-carboxamide

> <PUBCHEM_IUPAC_TRADITIONAL_NAME>
7-methoxy-N-[4-[4-(5-methoxy-1,3-benzoxazol-2-yl)piperazino]butyl]coumarilamide

> <PUBCHEM_IUPAC_INCHI>
InChI=1S/C26H30N4O5/c1-32-19-8-9-21-20(17-19)28-26(35-21)30-14-12-29(13-15-30)11-4-3-10-27-25(31)23-16-18-6-5-7-22(33-2)24(18)34-23/h5-9,16-17H,3-4,10-15H2,1-2H3,(H,27,31)

> <PUBCHEM_IUPAC_INCHIKEY>
NFJLPYMTHHPACY-UHFFFAOYSA-N

> <PUBCHEM_XLOGP3_AA>
4.4

> <PUBCHEM_EXACT_MASS>
478.22162007

> <PUBCHEM_MOLECULAR_FORMULA>
C26H30N4O5

> <PUBCHEM_MOLECULAR_WEIGHT>
478.5

> <PUBCHEM_OPENEYE_CAN_SMILES>
COC1=CC2=C(C=C1)OC(=N2)N3CCN(CC3)CCCCNC(=O)C4=CC5=C(O4)C(=CC=C5)OC

> <PUBCHEM_OPENEYE_ISO_SMILES>
COC1=CC2=C(C=C1)OC(=N2)N3CCN(CC3)CCCCNC(=O)C4=CC5=C(O4)C(=CC=C5)OC

> <PUBCHEM_CACTVS_TPSA>
93.2

> <PUBCHEM_MONOISOTOPIC_WEIGHT>
478.22162007

> <PUBCHEM_TOTAL_CHARGE>
0

> <PUBCHEM_HEAVY_ATOM_COUNT>
35

> <PUBCHEM_ATOM_DEF_STEREO_COUNT>
0

> <PUBCHEM_ATOM_UDEF_STEREO_COUNT>
0

> <PUBCHEM_BOND_DEF_STEREO_COUNT>
0

> <PUBCHEM_BOND_UDEF_STEREO_COUNT>
0

> <PUBCHEM_ISOTOPIC_ATOM_COUNT>
0

> <PUBCHEM_COMPONENT_COUNT>
1

> <PUBCHEM_CACTVS_TAUTO_COUNT>
-1

> <PUBCHEM_COORDINATE_TYPE>
1
5
255

> <PUBCHEM_BONDANNOTATIONS>
1  17  8
1  20  8
19  20  8
19  21  8
2  26  8
2  29  8
20  22  8
21  24  8
22  25  8
24  25  8
26  27  8
27  28  8
28  29  8
28  31  8
29  30  8
30  32  8
31  33  8
32  33  8
8  17  8
8  19  8

$$$$
