24768518
  -OEChem-09292322252D

 77 80  0     1  0  0  0  0  0999 V2000
    8.9282    2.4827    0.0000 O   0  0  0  0  0  0  0  0  0  0  0  0
    7.1962   -2.5173    0.0000 N   0  0  0  0  0  0  0  0  0  0  0  0
    5.4641   -3.5173    0.0000 N   0  0  0  0  0  0  0  0  0  0  0  0
   10.6603    2.4827    0.0000 N   0  0  0  0  0  0  0  0  0  0  0  0
    6.3301   -2.0173    0.0000 C   0  0  0  0  0  0  0  0  0  0  0  0
    7.1962   -3.5173    0.0000 C   0  0  0  0  0  0  0  0  0  0  0  0
    5.4641   -2.5173    0.0000 C   0  0  0  0  0  0  0  0  0  0  0  0
    6.3301   -4.0173    0.0000 C   0  0  0  0  0  0  0  0  0  0  0  0
    8.0622   -2.0173    0.0000 C   0  0  0  0  0  0  0  0  0  0  0  0
   10.6603    3.4827    0.0000 C   0  0  3  0  0  0  0  0  0  0  0  0
    8.0622   -1.0173    0.0000 C   0  0  0  0  0  0  0  0  0  0  0  0
    9.7942    3.9827    0.0000 C   0  0  0  0  0  0  0  0  0  0  0  0
    9.7942    4.9827    0.0000 C   0  0  0  0  0  0  0  0  0  0  0  0
   11.5263    3.9827    0.0000 C   0  0  0  0  0  0  0  0  0  0  0  0
   10.6603    5.4827    0.0000 C   0  0  0  0  0  0  0  0  0  0  0  0
    8.9282   -0.5173    0.0000 C   0  0  0  0  0  0  0  0  0  0  0  0
    4.5981   -4.0173    0.0000 C   0  0  0  0  0  0  0  0  0  0  0  0
   11.5263    4.9827    0.0000 C   0  0  0  0  0  0  0  0  0  0  0  0
    8.9282    0.4827    0.0000 C   0  0  0  0  0  0  0  0  0  0  0  0
    9.7942    0.9827    0.0000 C   0  0  0  0  0  0  0  0  0  0  0  0
    3.7320   -3.5173    0.0000 C   0  0  0  0  0  0  0  0  0  0  0  0
    9.7942    1.9827    0.0000 C   0  0  0  0  0  0  0  0  0  0  0  0
   12.4202    3.4480    0.0000 C   0  0  0  0  0  0  0  0  0  0  0  0
    3.7320   -2.5173    0.0000 C   0  0  0  0  0  0  0  0  0  0  0  0
   12.4202    5.5173    0.0000 C   0  0  0  0  0  0  0  0  0  0  0  0
    4.5981   -5.0173    0.0000 C   0  0  0  0  0  0  0  0  0  0  0  0
    2.8660   -4.0173    0.0000 C   0  0  0  0  0  0  0  0  0  0  0  0
    2.8660   -2.0173    0.0000 C   0  0  0  0  0  0  0  0  0  0  0  0
   13.3263    3.9618    0.0000 C   0  0  0  0  0  0  0  0  0  0  0  0
   13.3263    5.0035    0.0000 C   0  0  0  0  0  0  0  0  0  0  0  0
    3.7320   -5.5173    0.0000 C   0  0  0  0  0  0  0  0  0  0  0  0
    2.8660   -5.0173    0.0000 C   0  0  0  0  0  0  0  0  0  0  0  0
    2.8660   -1.0173    0.0000 C   0  0  0  0  0  0  0  0  0  0  0  0
    2.0000   -0.5173    0.0000 C   0  0  0  0  0  0  0  0  0  0  0  0
    6.7287   -1.5424    0.0000 H   0  0  0  0  0  0  0  0  0  0  0  0
    5.9316   -1.5424    0.0000 H   0  0  0  0  0  0  0  0  0  0  0  0
    7.4082   -4.0999    0.0000 H   0  0  0  0  0  0  0  0  0  0  0  0
    7.8067   -3.4097    0.0000 H   0  0  0  0  0  0  0  0  0  0  0  0
    5.2520   -1.9347    0.0000 H   0  0  0  0  0  0  0  0  0  0  0  0
    4.8535   -2.6250    0.0000 H   0  0  0  0  0  0  0  0  0  0  0  0
    5.9316   -4.4923    0.0000 H   0  0  0  0  0  0  0  0  0  0  0  0
    6.7287   -4.4923    0.0000 H   0  0  0  0  0  0  0  0  0  0  0  0
    8.2742   -2.5999    0.0000 H   0  0  0  0  0  0  0  0  0  0  0  0
    8.6728   -1.9097    0.0000 H   0  0  0  0  0  0  0  0  0  0  0  0
   11.1972    3.1727    0.0000 H   0  0  0  0  0  0  0  0  0  0  0  0
    7.8501   -0.4347    0.0000 H   0  0  0  0  0  0  0  0  0  0  0  0
    7.4516   -1.1250    0.0000 H   0  0  0  0  0  0  0  0  0  0  0  0
    9.1836    4.0903    0.0000 H   0  0  0  0  0  0  0  0  0  0  0  0
    9.5822    3.4001    0.0000 H   0  0  0  0  0  0  0  0  0  0  0  0
    9.5822    5.5653    0.0000 H   0  0  0  0  0  0  0  0  0  0  0  0
    9.1836    4.8750    0.0000 H   0  0  0  0  0  0  0  0  0  0  0  0
   11.0588    5.9576    0.0000 H   0  0  0  0  0  0  0  0  0  0  0  0
   10.2617    5.9576    0.0000 H   0  0  0  0  0  0  0  0  0  0  0  0
    9.1403   -1.0999    0.0000 H   0  0  0  0  0  0  0  0  0  0  0  0
    9.5388   -0.4097    0.0000 H   0  0  0  0  0  0  0  0  0  0  0  0
    8.7162    1.0653    0.0000 H   0  0  0  0  0  0  0  0  0  0  0  0
    8.3176    0.3750    0.0000 H   0  0  0  0  0  0  0  0  0  0  0  0
   11.1972    2.1727    0.0000 H   0  0  0  0  0  0  0  0  0  0  0  0
   10.0063    0.4001    0.0000 H   0  0  0  0  0  0  0  0  0  0  0  0
   10.4048    1.0903    0.0000 H   0  0  0  0  0  0  0  0  0  0  0  0
   12.4131    2.8280    0.0000 H   0  0  0  0  0  0  0  0  0  0  0  0
    4.3426   -2.6250    0.0000 H   0  0  0  0  0  0  0  0  0  0  0  0
    3.9441   -1.9347    0.0000 H   0  0  0  0  0  0  0  0  0  0  0  0
   12.4131    6.1373    0.0000 H   0  0  0  0  0  0  0  0  0  0  0  0
    5.1350   -5.3273    0.0000 H   0  0  0  0  0  0  0  0  0  0  0  0
    2.3291   -3.7073    0.0000 H   0  0  0  0  0  0  0  0  0  0  0  0
    2.2554   -1.9097    0.0000 H   0  0  0  0  0  0  0  0  0  0  0  0
    2.6540   -2.5999    0.0000 H   0  0  0  0  0  0  0  0  0  0  0  0
   13.8620    3.6498    0.0000 H   0  0  0  0  0  0  0  0  0  0  0  0
   13.8620    5.3156    0.0000 H   0  0  0  0  0  0  0  0  0  0  0  0
    3.7320   -6.1373    0.0000 H   0  0  0  0  0  0  0  0  0  0  0  0
    2.3291   -5.3273    0.0000 H   0  0  0  0  0  0  0  0  0  0  0  0
    3.4766   -1.1250    0.0000 H   0  0  0  0  0  0  0  0  0  0  0  0
    3.0781   -0.4347    0.0000 H   0  0  0  0  0  0  0  0  0  0  0  0
    2.3100    0.0196    0.0000 H   0  0  0  0  0  0  0  0  0  0  0  0
    1.4631   -0.2073    0.0000 H   0  0  0  0  0  0  0  0  0  0  0  0
    1.6900   -1.0543    0.0000 H   0  0  0  0  0  0  0  0  0  0  0  0
  1 22  2  0  0  0  0
  2  5  1  0  0  0  0
  2  6  1  0  0  0  0
  2  9  1  0  0  0  0
  3  7  1  0  0  0  0
  3  8  1  0  0  0  0
  3 17  1  0  0  0  0
  4 10  1  0  0  0  0
  4 22  1  0  0  0  0
  4 58  1  0  0  0  0
  5  7  1  0  0  0  0
  5 35  1  0  0  0  0
  5 36  1  0  0  0  0
  6  8  1  0  0  0  0
  6 37  1  0  0  0  0
  6 38  1  0  0  0  0
  7 39  1  0  0  0  0
  7 40  1  0  0  0  0
  8 41  1  0  0  0  0
  8 42  1  0  0  0  0
  9 11  1  0  0  0  0
  9 43  1  0  0  0  0
  9 44  1  0  0  0  0
 10 12  1  0  0  0  0
 10 14  1  0  0  0  0
 10 45  1  0  0  0  0
 11 16  1  0  0  0  0
 11 46  1  0  0  0  0
 11 47  1  0  0  0  0
 12 13  1  0  0  0  0
 12 48  1  0  0  0  0
 12 49  1  0  0  0  0
 13 15  1  0  0  0  0
 13 50  1  0  0  0  0
 13 51  1  0  0  0  0
 14 18  1  0  0  0  0
 14 23  2  0  0  0  0
 15 18  1  0  0  0  0
 15 52  1  0  0  0  0
 15 53  1  0  0  0  0
 16 19  1  0  0  0  0
 16 54  1  0  0  0  0
 16 55  1  0  0  0  0
 17 21  1  0  0  0  0
 17 26  2  0  0  0  0
 18 25  2  0  0  0  0
 19 20  1  0  0  0  0
 19 56  1  0  0  0  0
 19 57  1  0  0  0  0
 20 22  1  0  0  0  0
 20 59  1  0  0  0  0
 20 60  1  0  0  0  0
 21 24  1  0  0  0  0
 21 27  2  0  0  0  0
 23 29  1  0  0  0  0
 23 61  1  0  0  0  0
 24 28  1  0  0  0  0
 24 62  1  0  0  0  0
 24 63  1  0  0  0  0
 25 30  1  0  0  0  0
 25 64  1  0  0  0  0
 26 31  1  0  0  0  0
 26 65  1  0  0  0  0
 27 32  1  0  0  0  0
 27 66  1  0  0  0  0
 28 33  1  0  0  0  0
 28 67  1  0  0  0  0
 28 68  1  0  0  0  0
 29 30  2  0  0  0  0
 29 69  1  0  0  0  0
 30 70  1  0  0  0  0
 31 32  2  0  0  0  0
 31 71  1  0  0  0  0
 32 72  1  0  0  0  0
 33 34  1  0  0  0  0
 33 73  1  0  0  0  0
 33 74  1  0  0  0  0
 34 75  1  0  0  0  0
 34 76  1  0  0  0  0
 34 77  1  0  0  0  0
M  END
> <PUBCHEM_COMPOUND_CID>
24768518

> <PUBCHEM_COMPOUND_CANONICALIZED>
1

> <PUBCHEM_CACTVS_COMPLEXITY>
588

> <PUBCHEM_CACTVS_HBOND_ACCEPTOR>
3

> <PUBCHEM_CACTVS_HBOND_DONOR>
1

> <PUBCHEM_CACTVS_ROTATABLE_BOND>
11

> <PUBCHEM_CACTVS_SUBSKEYS>
AAADcfB7IAAAAAAAAAAAAAAAAAAAAAAAAAA8YMEAAAAAAADBQAAAHgAQAAAADCjBmAQywIPAAACIAiVSUACCAAAhAgAIiIEIZIgIYDLAkZGUIAhglgDIyAcYiIAOgAAAAAASAAAAAACAACQAAAAAAAAAAA==

> <PUBCHEM_IUPAC_OPENEYE_NAME>
6-[4-(2-butylphenyl)piperazin-1-yl]-N-tetralin-1-yl-hexanamide

> <PUBCHEM_IUPAC_CAS_NAME>
6-[4-(2-butylphenyl)-1-piperazinyl]-N-(1,2,3,4-tetrahydronaphthalen-1-yl)hexanamide

> <PUBCHEM_IUPAC_NAME_MARKUP>
6-[4-(2-butylphenyl)piperazin-1-yl]-<I>N</I>-(1,2,3,4-tetrahydronaphthalen-1-yl)hexanamide

> <PUBCHEM_IUPAC_NAME>
6-[4-(2-butylphenyl)piperazin-1-yl]-N-(1,2,3,4-tetrahydronaphthalen-1-yl)hexanamide

> <PUBCHEM_IUPAC_SYSTEMATIC_NAME>
6-[4-(2-butylphenyl)piperazin-1-yl]-N-(1,2,3,4-tetrahydronaphthalen-1-yl)hexanamide

> <PUBCHEM_IUPAC_TRADITIONAL_NAME>
6-[4-(2-butylphenyl)piperazino]-N-tetralin-1-yl-hexanamide

> <PUBCHEM_IUPAC_INCHI>
InChI=1S/C30H43N3O/c1-2-3-12-26-14-7-9-18-29(26)33-23-21-32(22-24-33)20-10-4-5-19-30(34)31-28-17-11-15-25-13-6-8-16-27(25)28/h6-9,13-14,16,18,28H,2-5,10-12,15,17,19-24H2,1H3,(H,31,34)

> <PUBCHEM_IUPAC_INCHIKEY>
GLAJHBSVLZCXST-UHFFFAOYSA-N

> <PUBCHEM_XLOGP3_AA>
6.3

> <PUBCHEM_EXACT_MASS>
461.340613004

> <PUBCHEM_MOLECULAR_FORMULA>
C30H43N3O

> <PUBCHEM_MOLECULAR_WEIGHT>
461.7

> <PUBCHEM_OPENEYE_CAN_SMILES>
CCCCC1=CC=CC=C1N2CCN(CC2)CCCCCC(=O)NC3CCCC4=CC=CC=C34

> <PUBCHEM_OPENEYE_ISO_SMILES>
CCCCC1=CC=CC=C1N2CCN(CC2)CCCCCC(=O)NC3CCCC4=CC=CC=C34

> <PUBCHEM_CACTVS_TPSA>
35.6

> <PUBCHEM_MONOISOTOPIC_WEIGHT>
461.340613004

> <PUBCHEM_TOTAL_CHARGE>
0

> <PUBCHEM_HEAVY_ATOM_COUNT>
34

> <PUBCHEM_ATOM_DEF_STEREO_COUNT>
0

> <PUBCHEM_ATOM_UDEF_STEREO_COUNT>
1

> <PUBCHEM_BOND_DEF_STEREO_COUNT>
0

> <PUBCHEM_BOND_UDEF_STEREO_COUNT>
0

> <PUBCHEM_ISOTOPIC_ATOM_COUNT>
0

> <PUBCHEM_COMPONENT_COUNT>
1

> <PUBCHEM_CACTVS_TAUTO_COUNT>
-1

> <PUBCHEM_COORDINATE_TYPE>
1
5
255

> <PUBCHEM_BONDANNOTATIONS>
14  18  8
14  23  8
17  21  8
17  26  8
18  25  8
21  27  8
23  29  8
25  30  8
26  31  8
27  32  8
29  30  8
31  32  8
10  4  3

$$$$
