45486820
  -OEChem-09292322292D

 57 63  0     1  0  0  0  0  0999 V2000
    2.0000   -0.8002    0.0000 F   0  0  0  0  0  0  0  0  0  0  0  0
   14.0681   -0.9171    0.0000 O   0  0  0  0  0  0  0  0  0  0  0  0
   15.7732   -1.4152    0.0000 O   0  0  0  0  0  0  0  0  0  0  0  0
    8.7224   -0.5960    0.0000 N   0  0  3  0  0  0  0  0  0  0  0  0
   11.9290   -0.5471    0.0000 N   0  0  3  0  0  0  0  0  0  0  0  0
    4.8717    2.0604    0.0000 N   0  0  0  0  0  0  0  0  0  0  0  0
   15.1703    0.2557    0.0000 N   0  0  0  0  0  0  0  0  0  0  0  0
    9.8921   -1.5168    0.0000 C   0  0  2  0  0  0  0  0  0  0  0  0
   10.4400   -0.6802    0.0000 C   0  0  2  0  0  0  0  0  0  0  0  0
   10.2846   -2.6804    0.0000 C   0  0  0  0  0  0  0  0  0  0  0  0
    9.2703    0.2405    0.0000 C   0  0  0  0  0  0  0  0  0  0  0  0
   11.9600   -1.5466    0.0000 C   0  0  0  0  0  0  0  0  0  0  0  0
    7.7435   -0.8002    0.0000 C   0  0  0  0  0  0  0  0  0  0  0  0
    7.0772   -0.0544    0.0000 C   0  0  3  0  0  0  0  0  0  0  0  0
    7.3991    0.9362    0.0000 C   0  0  0  0  0  0  0  0  0  0  0  0
   12.6138    0.1816    0.0000 C   0  0  0  0  0  0  0  0  0  0  0  0
    6.0567   -0.2632    0.0000 C   0  0  0  0  0  0  0  0  0  0  0  0
    6.6962    1.7049    0.0000 C   0  0  0  0  0  0  0  0  0  0  0  0
    5.3717    0.5216    0.0000 C   0  0  0  0  0  0  0  0  0  0  0  0
    5.6808    1.4726    0.0000 C   0  0  0  0  0  0  0  0  0  0  0  0
   13.5873   -0.0471    0.0000 C   0  0  0  0  0  0  0  0  0  0  0  0
   12.3251    1.1391    0.0000 C   0  0  0  0  0  0  0  0  0  0  0  0
    4.3717    0.5216    0.0000 C   0  0  0  0  0  0  0  0  0  0  0  0
    4.0627    1.4726    0.0000 C   0  0  0  0  0  0  0  0  0  0  0  0
   14.2721    0.6817    0.0000 C   0  0  0  0  0  0  0  0  0  0  0  0
   13.0099    1.8678    0.0000 C   0  0  0  0  0  0  0  0  0  0  0  0
    3.6868   -0.2632    0.0000 C   0  0  0  0  0  0  0  0  0  0  0  0
   13.9834    1.6391    0.0000 C   0  0  0  0  0  0  0  0  0  0  0  0
    3.0473    1.7049    0.0000 C   0  0  0  0  0  0  0  0  0  0  0  0
   15.0445   -0.7303    0.0000 C   0  0  0  0  0  0  0  0  0  0  0  0
    2.6663   -0.0544    0.0000 C   0  0  0  0  0  0  0  0  0  0  0  0
    2.3444    0.9362    0.0000 C   0  0  0  0  0  0  0  0  0  0  0  0
    9.4264   -2.2278    0.0000 H   0  0  0  0  0  0  0  0  0  0  0  0
   10.9057    0.0309    0.0000 H   0  0  0  0  0  0  0  0  0  0  0  0
    9.8162   -3.0867    0.0000 H   0  0  0  0  0  0  0  0  0  0  0  0
   10.8382   -2.9595    0.0000 H   0  0  0  0  0  0  0  0  0  0  0  0
    9.6395    0.7386    0.0000 H   0  0  0  0  0  0  0  0  0  0  0  0
    8.7617    0.5951    0.0000 H   0  0  0  0  0  0  0  0  0  0  0  0
   11.9605   -2.1666    0.0000 H   0  0  0  0  0  0  0  0  0  0  0  0
   12.5799   -1.5367    0.0000 H   0  0  0  0  0  0  0  0  0  0  0  0
    7.2164   -1.1267    0.0000 H   0  0  0  0  0  0  0  0  0  0  0  0
    7.9735   -1.3759    0.0000 H   0  0  0  0  0  0  0  0  0  0  0  0
    6.8822   -0.6430    0.0000 H   0  0  0  0  0  0  0  0  0  0  0  0
    7.9473    0.6465    0.0000 H   0  0  0  0  0  0  0  0  0  0  0  0
    7.7783    1.4267    0.0000 H   0  0  0  0  0  0  0  0  0  0  0  0
    5.5267   -0.5849    0.0000 H   0  0  0  0  0  0  0  0  0  0  0  0
    6.2830   -0.8404    0.0000 H   0  0  0  0  0  0  0  0  0  0  0  0
    7.2186    2.0388    0.0000 H   0  0  0  0  0  0  0  0  0  0  0  0
    6.4565    2.2767    0.0000 H   0  0  0  0  0  0  0  0  0  0  0  0
   11.7215    1.2809    0.0000 H   0  0  0  0  0  0  0  0  0  0  0  0
    4.8717    2.6804    0.0000 H   0  0  0  0  0  0  0  0  0  0  0  0
   12.8309    2.4614    0.0000 H   0  0  0  0  0  0  0  0  0  0  0  0
    3.8852   -0.8506    0.0000 H   0  0  0  0  0  0  0  0  0  0  0  0
   14.4080    2.0909    0.0000 H   0  0  0  0  0  0  0  0  0  0  0  0
    2.8626    2.2967    0.0000 H   0  0  0  0  0  0  0  0  0  0  0  0
   15.7142    0.5533    0.0000 H   0  0  0  0  0  0  0  0  0  0  0  0
    1.7384    1.0674    0.0000 H   0  0  0  0  0  0  0  0  0  0  0  0
  1 31  1  0  0  0  0
  2 21  1  0  0  0  0
  2 30  1  0  0  0  0
  3 30  2  0  0  0  0
  4  8  1  0  0  0  0
  4 11  1  0  0  0  0
  4 13  1  0  0  0  0
  5  9  1  0  0  0  0
  5 12  1  0  0  0  0
  5 16  1  0  0  0  0
  6 20  1  0  0  0  0
  6 24  1  0  0  0  0
  6 51  1  0  0  0  0
  7 25  1  0  0  0  0
  7 30  1  0  0  0  0
  7 56  1  0  0  0  0
  8 10  1  0  0  0  0
  8 12  1  0  0  0  0
  8 33  1  6  0  0  0
  9 10  1  0  0  0  0
  9 11  1  0  0  0  0
  9 34  1  1  0  0  0
 10 35  1  0  0  0  0
 10 36  1  0  0  0  0
 11 37  1  0  0  0  0
 11 38  1  0  0  0  0
 12 39  1  0  0  0  0
 12 40  1  0  0  0  0
 13 14  1  0  0  0  0
 13 41  1  0  0  0  0
 13 42  1  0  0  0  0
 14 15  1  0  0  0  0
 14 17  1  0  0  0  0
 14 43  1  0  0  0  0
 15 18  1  0  0  0  0
 15 44  1  0  0  0  0
 15 45  1  0  0  0  0
 16 21  1  0  0  0  0
 16 22  2  0  0  0  0
 17 19  1  0  0  0  0
 17 46  1  0  0  0  0
 17 47  1  0  0  0  0
 18 20  1  0  0  0  0
 18 48  1  0  0  0  0
 18 49  1  0  0  0  0
 19 20  2  0  0  0  0
 19 23  1  0  0  0  0
 21 25  2  0  0  0  0
 22 26  1  0  0  0  0
 22 50  1  0  0  0  0
 23 24  2  0  0  0  0
 23 27  1  0  0  0  0
 24 29  1  0  0  0  0
 25 28  1  0  0  0  0
 26 28  2  0  0  0  0
 26 52  1  0  0  0  0
 27 31  2  0  0  0  0
 27 53  1  0  0  0  0
 28 54  1  0  0  0  0
 29 32  2  0  0  0  0
 29 55  1  0  0  0  0
 31 32  1  0  0  0  0
 32 57  1  0  0  0  0
M  END
> <PUBCHEM_COMPOUND_CID>
45486820

> <PUBCHEM_COMPOUND_CANONICALIZED>
1

> <PUBCHEM_CACTVS_COMPLEXITY>
754

> <PUBCHEM_CACTVS_HBOND_ACCEPTOR>
5

> <PUBCHEM_CACTVS_HBOND_DONOR>
2

> <PUBCHEM_CACTVS_ROTATABLE_BOND>
3

> <PUBCHEM_CACTVS_SUBSKEYS>
AAADceB7sQAAAAAAAAAAAAAAAAAAAWLFiwA8YMEAAAAAAFgB9AAAHwAQAAAADSzBngwwzvPJlACoAyRiXACCiCAhIiAImSA9bJkOZuLE8dudMihk1BHY6AeQwMAOgAAAAAQCEAAQAAQACAQgAAAAAAAAAA==

> <PUBCHEM_IUPAC_OPENEYE_NAME>
7-[(1R,4R)-5-[(6-fluoro-2,3,4,9-tetrahydro-1H-carbazol-3-yl)methyl]-2,5-diazabicyclo[2.2.1]heptan-2-yl]-3H-1,3-benzoxazol-2-one

> <PUBCHEM_IUPAC_CAS_NAME>
7-[(1R,4R)-5-[(6-fluoro-2,3,4,9-tetrahydro-1H-carbazol-3-yl)methyl]-2,5-diazabicyclo[2.2.1]heptan-2-yl]-3H-1,3-benzoxazol-2-one

> <PUBCHEM_IUPAC_NAME_MARKUP>
7-[(1<I>R</I>,4<I>R</I>)-5-[(6-fluoro-2,3,4,9-tetrahydro-1<I>H</I>-carbazol-3-yl)methyl]-2,5-diazabicyclo[2.2.1]heptan-2-yl]-3<I>H</I>-1,3-benzoxazol-2-one

> <PUBCHEM_IUPAC_NAME>
7-[(1R,4R)-5-[(6-fluoro-2,3,4,9-tetrahydro-1H-carbazol-3-yl)methyl]-2,5-diazabicyclo[2.2.1]heptan-2-yl]-3H-1,3-benzoxazol-2-one

> <PUBCHEM_IUPAC_SYSTEMATIC_NAME>
7-[(1R,4R)-5-[(6-fluoranyl-2,3,4,9-tetrahydro-1H-carbazol-3-yl)methyl]-2,5-diazabicyclo[2.2.1]heptan-2-yl]-3H-1,3-benzoxazol-2-one

> <PUBCHEM_IUPAC_TRADITIONAL_NAME>
7-[(1R,4R)-5-[(6-fluoro-2,3,4,9-tetrahydro-1H-carbazol-3-yl)methyl]-2,5-diazabicyclo[2.2.1]heptan-2-yl]-3H-1,3-benzoxazol-2-one

> <PUBCHEM_IUPAC_INCHI>
InChI=1S/C25H25FN4O2/c26-15-5-7-21-19(9-15)18-8-14(4-6-20(18)27-21)11-29-12-17-10-16(29)13-30(17)23-3-1-2-22-24(23)32-25(31)28-22/h1-3,5,7,9,14,16-17,27H,4,6,8,10-13H2,(H,28,31)/t14?,16-,17-/m1/s1

> <PUBCHEM_IUPAC_INCHIKEY>
JDKQOFWWKCLDDD-VNCLPFQGSA-N

> <PUBCHEM_XLOGP3_AA>
4.2

> <PUBCHEM_EXACT_MASS>
432.19615422

> <PUBCHEM_MOLECULAR_FORMULA>
C25H25FN4O2

> <PUBCHEM_MOLECULAR_WEIGHT>
432.5

> <PUBCHEM_OPENEYE_CAN_SMILES>
C1CC2=C(CC1CN3CC4CC3CN4C5=CC=CC6=C5OC(=O)N6)C7=C(N2)C=CC(=C7)F

> <PUBCHEM_OPENEYE_ISO_SMILES>
C1CC2=C(CC1CN3C[C@H]4C[C@@H]3CN4C5=CC=CC6=C5OC(=O)N6)C7=C(N2)C=CC(=C7)F

> <PUBCHEM_CACTVS_TPSA>
60.6

> <PUBCHEM_MONOISOTOPIC_WEIGHT>
432.19615422

> <PUBCHEM_TOTAL_CHARGE>
0

> <PUBCHEM_HEAVY_ATOM_COUNT>
32

> <PUBCHEM_ATOM_DEF_STEREO_COUNT>
2

> <PUBCHEM_ATOM_UDEF_STEREO_COUNT>
1

> <PUBCHEM_BOND_DEF_STEREO_COUNT>
0

> <PUBCHEM_BOND_UDEF_STEREO_COUNT>
0

> <PUBCHEM_ISOTOPIC_ATOM_COUNT>
0

> <PUBCHEM_COMPONENT_COUNT>
1

> <PUBCHEM_CACTVS_TAUTO_COUNT>
-1

> <PUBCHEM_COORDINATE_TYPE>
1
5
255

> <PUBCHEM_BONDANNOTATIONS>
14  13  3
16  21  8
16  22  8
19  20  8
19  23  8
2  21  8
2  30  8
21  25  8
22  26  8
23  24  8
23  27  8
24  29  8
25  28  8
26  28  8
27  31  8
29  32  8
31  32  8
6  20  8
6  24  8
7  25  8
7  30  8
8  33  6
9  34  5

$$$$
