57325597
  -OEChem-09292322072D

138145  0     0  0  0  0  0  0999 V2000
   17.3805   -9.3271    0.0000 Cl  0  0  0  0  0  0  0  0  0  0  0  0
    8.7204    9.3270    0.0000 Cl  0  0  0  0  0  0  0  0  0  0  0  0
   11.8111   -7.0000    0.0000 O   0  0  0  0  0  0  0  0  0  0  0  0
    6.6150    7.0000    0.0000 O   0  0  0  0  0  0  0  0  0  0  0  0
   12.6092  -11.0917    0.0000 N   0  0  0  0  0  0  0  0  0  0  0  0
    3.9491   11.0916    0.0000 N   0  0  0  0  0  0  0  0  0  0  0  0
   11.7414  -12.8936    0.0000 N   0  0  0  0  0  0  0  0  0  0  0  0
    3.0814   12.8936    0.0000 N   0  0  0  0  0  0  0  0  0  0  0  0
   13.5431   -8.0000    0.0000 N   0  0  0  0  0  0  0  0  0  0  0  0
    4.8830    8.0000    0.0000 N   0  0  0  0  0  0  0  0  0  0  0  0
   14.0431  -10.1907    0.0000 N   0  0  0  0  0  0  0  0  0  0  0  0
    5.3830   10.1907    0.0000 N   0  0  0  0  0  0  0  0  0  0  0  0
   13.5431   -7.0000    0.0000 N   0  0  0  0  0  0  0  0  0  0  0  0
    4.8830    7.0000    0.0000 N   0  0  0  0  0  0  0  0  0  0  0  0
   13.1725  -11.9179    0.0000 C   0  0  0  0  0  0  0  0  0  0  0  0
   11.6120  -11.1664    0.0000 C   0  0  0  0  0  0  0  0  0  0  0  0
    2.9519   11.1664    0.0000 C   0  0  0  0  0  0  0  0  0  0  0  0
    4.5125   11.9179    0.0000 C   0  0  0  0  0  0  0  0  0  0  0  0
   12.7386  -12.8189    0.0000 C   0  0  0  0  0  0  0  0  0  0  0  0
   11.1781  -12.0673    0.0000 C   0  0  0  0  0  0  0  0  0  0  0  0
    2.5180   12.0673    0.0000 C   0  0  0  0  0  0  0  0  0  0  0  0
    4.0786   12.8188    0.0000 C   0  0  0  0  0  0  0  0  0  0  0  0
    9.2131   -0.5000    0.0000 C   0  0  0  0  0  0  0  0  0  0  0  0
    9.2131    0.5000    0.0000 C   0  0  0  0  0  0  0  0  0  0  0  0
   10.0791   -1.0000    0.0000 C   0  0  0  0  0  0  0  0  0  0  0  0
    8.3470    1.0000    0.0000 C   0  0  0  0  0  0  0  0  0  0  0  0
   10.0791   -2.0000    0.0000 C   0  0  0  0  0  0  0  0  0  0  0  0
    8.3470    2.0000    0.0000 C   0  0  0  0  0  0  0  0  0  0  0  0
   10.9451   -2.5000    0.0000 C   0  0  0  0  0  0  0  0  0  0  0  0
    7.4810    2.5000    0.0000 C   0  0  0  0  0  0  0  0  0  0  0  0
   13.0431  -10.1907    0.0000 C   0  0  0  0  0  0  0  0  0  0  0  0
    4.3830   10.1907    0.0000 C   0  0  0  0  0  0  0  0  0  0  0  0
   10.9451   -3.5000    0.0000 C   0  0  0  0  0  0  0  0  0  0  0  0
    7.4810    3.5000    0.0000 C   0  0  0  0  0  0  0  0  0  0  0  0
   11.8111   -4.0000    0.0000 C   0  0  0  0  0  0  0  0  0  0  0  0
    6.6150    4.0000    0.0000 C   0  0  0  0  0  0  0  0  0  0  0  0
   12.4196   -9.4088    0.0000 C   0  0  0  0  0  0  0  0  0  0  0  0
    3.7595    9.4088    0.0000 C   0  0  0  0  0  0  0  0  0  0  0  0
   11.3075  -13.7946    0.0000 C   0  0  0  0  0  0  0  0  0  0  0  0
    2.6475   13.7946    0.0000 C   0  0  0  0  0  0  0  0  0  0  0  0
   11.8111   -5.0000    0.0000 C   0  0  0  0  0  0  0  0  0  0  0  0
    6.6150    5.0000    0.0000 C   0  0  0  0  0  0  0  0  0  0  0  0
   12.6422   -8.4339    0.0000 C   0  0  0  0  0  0  0  0  0  0  0  0
    3.9820    8.4339    0.0000 C   0  0  0  0  0  0  0  0  0  0  0  0
   12.6771   -5.5000    0.0000 C   0  0  0  0  0  0  0  0  0  0  0  0
    5.7490    5.5000    0.0000 C   0  0  0  0  0  0  0  0  0  0  0  0
   14.4441   -8.4339    0.0000 C   0  0  0  0  0  0  0  0  0  0  0  0
    5.7840    8.4339    0.0000 C   0  0  0  0  0  0  0  0  0  0  0  0
   14.6666   -9.4089    0.0000 C   0  0  0  0  0  0  0  0  0  0  0  0
    6.0065    9.4088    0.0000 C   0  0  0  0  0  0  0  0  0  0  0  0
   11.4291   -9.7312    0.0000 C   0  0  0  0  0  0  0  0  0  0  0  0
    2.7690    9.7312    0.0000 C   0  0  0  0  0  0  0  0  0  0  0  0
   12.6771   -6.5000    0.0000 C   0  0  0  0  0  0  0  0  0  0  0  0
    5.7490    6.5000    0.0000 C   0  0  0  0  0  0  0  0  0  0  0  0
   11.8896   -7.7137    0.0000 C   0  0  0  0  0  0  0  0  0  0  0  0
    3.2295    7.7137    0.0000 C   0  0  0  0  0  0  0  0  0  0  0  0
   10.6601   -9.0286    0.0000 C   0  0  0  0  0  0  0  0  0  0  0  0
    2.0000    9.0286    0.0000 C   0  0  0  0  0  0  0  0  0  0  0  0
   15.1967   -7.7138    0.0000 C   0  0  0  0  0  0  0  0  0  0  0  0
    6.5365    7.7137    0.0000 C   0  0  0  0  0  0  0  0  0  0  0  0
   10.8919   -8.0131    0.0000 C   0  0  0  0  0  0  0  0  0  0  0  0
    2.2318    8.0131    0.0000 C   0  0  0  0  0  0  0  0  0  0  0  0
   15.6571   -9.7312    0.0000 C   0  0  0  0  0  0  0  0  0  0  0  0
    6.9970    9.7312    0.0000 C   0  0  0  0  0  0  0  0  0  0  0  0
   16.1943   -8.0131    0.0000 C   0  0  0  0  0  0  0  0  0  0  0  0
    7.5342    8.0130    0.0000 C   0  0  0  0  0  0  0  0  0  0  0  0
   16.4261   -9.0286    0.0000 C   0  0  0  0  0  0  0  0  0  0  0  0
    7.7660    9.0286    0.0000 C   0  0  0  0  0  0  0  0  0  0  0  0
   13.6759  -12.2798    0.0000 H   0  0  0  0  0  0  0  0  0  0  0  0
   13.6164  -11.4850    0.0000 H   0  0  0  0  0  0  0  0  0  0  0  0
   11.6738  -10.5495    0.0000 H   0  0  0  0  0  0  0  0  0  0  0  0
   11.0152  -10.9985    0.0000 H   0  0  0  0  0  0  0  0  0  0  0  0
    2.3551   10.9985    0.0000 H   0  0  0  0  0  0  0  0  0  0  0  0
    3.0137   10.5495    0.0000 H   0  0  0  0  0  0  0  0  0  0  0  0
    4.9563   11.4850    0.0000 H   0  0  0  0  0  0  0  0  0  0  0  0
    5.0159   12.2798    0.0000 H   0  0  0  0  0  0  0  0  0  0  0  0
   12.6769  -13.4358    0.0000 H   0  0  0  0  0  0  0  0  0  0  0  0
   13.3355  -12.9868    0.0000 H   0  0  0  0  0  0  0  0  0  0  0  0
   10.6747  -11.7054    0.0000 H   0  0  0  0  0  0  0  0  0  0  0  0
   10.7343  -12.5002    0.0000 H   0  0  0  0  0  0  0  0  0  0  0  0
    2.0742   12.5003    0.0000 H   0  0  0  0  0  0  0  0  0  0  0  0
    2.0146   11.7054    0.0000 H   0  0  0  0  0  0  0  0  0  0  0  0
    4.6754   12.9868    0.0000 H   0  0  0  0  0  0  0  0  0  0  0  0
    4.0168   13.4358    0.0000 H   0  0  0  0  0  0  0  0  0  0  0  0
    8.6025   -0.3923    0.0000 H   0  0  0  0  0  0  0  0  0  0  0  0
    9.0010   -1.0826    0.0000 H   0  0  0  0  0  0  0  0  0  0  0  0
    9.8236    0.3923    0.0000 H   0  0  0  0  0  0  0  0  0  0  0  0
    9.4251    1.0826    0.0000 H   0  0  0  0  0  0  0  0  0  0  0  0
   10.6897   -1.1077    0.0000 H   0  0  0  0  0  0  0  0  0  0  0  0
   10.2911   -0.4174    0.0000 H   0  0  0  0  0  0  0  0  0  0  0  0
    7.7365    1.1077    0.0000 H   0  0  0  0  0  0  0  0  0  0  0  0
    8.1350    0.4174    0.0000 H   0  0  0  0  0  0  0  0  0  0  0  0
    9.4685   -1.8924    0.0000 H   0  0  0  0  0  0  0  0  0  0  0  0
    9.8670   -2.5826    0.0000 H   0  0  0  0  0  0  0  0  0  0  0  0
    8.9576    1.8923    0.0000 H   0  0  0  0  0  0  0  0  0  0  0  0
    8.5591    2.5826    0.0000 H   0  0  0  0  0  0  0  0  0  0  0  0
   11.5557   -2.6077    0.0000 H   0  0  0  0  0  0  0  0  0  0  0  0
   11.1571   -1.9174    0.0000 H   0  0  0  0  0  0  0  0  0  0  0  0
    6.8704    2.6077    0.0000 H   0  0  0  0  0  0  0  0  0  0  0  0
    7.2690    1.9174    0.0000 H   0  0  0  0  0  0  0  0  0  0  0  0
   10.3345   -3.3924    0.0000 H   0  0  0  0  0  0  0  0  0  0  0  0
   10.7330   -4.0826    0.0000 H   0  0  0  0  0  0  0  0  0  0  0  0
    8.0916    3.3923    0.0000 H   0  0  0  0  0  0  0  0  0  0  0  0
    7.6931    4.0826    0.0000 H   0  0  0  0  0  0  0  0  0  0  0  0
   12.4217   -4.1077    0.0000 H   0  0  0  0  0  0  0  0  0  0  0  0
   12.0232   -3.4174    0.0000 H   0  0  0  0  0  0  0  0  0  0  0  0
    6.0044    4.1077    0.0000 H   0  0  0  0  0  0  0  0  0  0  0  0
    6.4030    3.4174    0.0000 H   0  0  0  0  0  0  0  0  0  0  0  0
   10.7490  -13.5255    0.0000 H   0  0  0  0  0  0  0  0  0  0  0  0
   11.0385  -14.3531    0.0000 H   0  0  0  0  0  0  0  0  0  0  0  0
   11.8661  -14.0636    0.0000 H   0  0  0  0  0  0  0  0  0  0  0  0
    3.2061   14.0636    0.0000 H   0  0  0  0  0  0  0  0  0  0  0  0
    2.3785   14.3532    0.0000 H   0  0  0  0  0  0  0  0  0  0  0  0
    2.0889   13.5255    0.0000 H   0  0  0  0  0  0  0  0  0  0  0  0
   11.2005   -4.8924    0.0000 H   0  0  0  0  0  0  0  0  0  0  0  0
   11.5990   -5.5826    0.0000 H   0  0  0  0  0  0  0  0  0  0  0  0
    7.2256    4.8923    0.0000 H   0  0  0  0  0  0  0  0  0  0  0  0
    6.8271    5.5826    0.0000 H   0  0  0  0  0  0  0  0  0  0  0  0
   13.2877   -5.6077    0.0000 H   0  0  0  0  0  0  0  0  0  0  0  0
   12.8892   -4.9174    0.0000 H   0  0  0  0  0  0  0  0  0  0  0  0
    5.1384    5.6077    0.0000 H   0  0  0  0  0  0  0  0  0  0  0  0
    5.5369    4.9174    0.0000 H   0  0  0  0  0  0  0  0  0  0  0  0
   11.2982  -10.3372    0.0000 H   0  0  0  0  0  0  0  0  0  0  0  0
    2.6380   10.3372    0.0000 H   0  0  0  0  0  0  0  0  0  0  0  0
   14.0801   -6.6900    0.0000 H   0  0  0  0  0  0  0  0  0  0  0  0
    4.3460    6.6900    0.0000 H   0  0  0  0  0  0  0  0  0  0  0  0
   12.0346   -7.1109    0.0000 H   0  0  0  0  0  0  0  0  0  0  0  0
    3.3744    7.1109    0.0000 H   0  0  0  0  0  0  0  0  0  0  0  0
   10.0684   -9.2136    0.0000 H   0  0  0  0  0  0  0  0  0  0  0  0
    1.4083    9.2136    0.0000 H   0  0  0  0  0  0  0  0  0  0  0  0
   15.0517   -7.1110    0.0000 H   0  0  0  0  0  0  0  0  0  0  0  0
    6.3916    7.1109    0.0000 H   0  0  0  0  0  0  0  0  0  0  0  0
   10.4391   -7.5896    0.0000 H   0  0  0  0  0  0  0  0  0  0  0  0
    1.7789    7.5896    0.0000 H   0  0  0  0  0  0  0  0  0  0  0  0
   15.7881  -10.3372    0.0000 H   0  0  0  0  0  0  0  0  0  0  0  0
    7.1280   10.3372    0.0000 H   0  0  0  0  0  0  0  0  0  0  0  0
   16.6472   -7.5897    0.0000 H   0  0  0  0  0  0  0  0  0  0  0  0
    7.9871    7.5896    0.0000 H   0  0  0  0  0  0  0  0  0  0  0  0
  1 67  1  0  0  0  0
  2 68  1  0  0  0  0
  3 53  2  0  0  0  0
  4 54  2  0  0  0  0
  5 15  1  0  0  0  0
  5 16  1  0  0  0  0
  5 31  1  0  0  0  0
  6 17  1  0  0  0  0
  6 18  1  0  0  0  0
  6 32  1  0  0  0  0
  7 19  1  0  0  0  0
  7 20  1  0  0  0  0
  7 39  1  0  0  0  0
  8 21  1  0  0  0  0
  8 22  1  0  0  0  0
  8 40  1  0  0  0  0
  9 13  1  0  0  0  0
  9 43  1  0  0  0  0
  9 47  1  0  0  0  0
 10 14  1  0  0  0  0
 10 44  1  0  0  0  0
 10 48  1  0  0  0  0
 11 31  2  0  0  0  0
 11 49  1  0  0  0  0
 12 32  2  0  0  0  0
 12 50  1  0  0  0  0
 13 53  1  0  0  0  0
 13125  1  0  0  0  0
 14 54  1  0  0  0  0
 14126  1  0  0  0  0
 15 19  1  0  0  0  0
 15 69  1  0  0  0  0
 15 70  1  0  0  0  0
 16 20  1  0  0  0  0
 16 71  1  0  0  0  0
 16 72  1  0  0  0  0
 17 21  1  0  0  0  0
 17 73  1  0  0  0  0
 17 74  1  0  0  0  0
 18 22  1  0  0  0  0
 18 75  1  0  0  0  0
 18 76  1  0  0  0  0
 19 77  1  0  0  0  0
 19 78  1  0  0  0  0
 20 79  1  0  0  0  0
 20 80  1  0  0  0  0
 21 81  1  0  0  0  0
 21 82  1  0  0  0  0
 22 83  1  0  0  0  0
 22 84  1  0  0  0  0
 23 24  1  0  0  0  0
 23 25  1  0  0  0  0
 23 85  1  0  0  0  0
 23 86  1  0  0  0  0
 24 26  1  0  0  0  0
 24 87  1  0  0  0  0
 24 88  1  0  0  0  0
 25 27  1  0  0  0  0
 25 89  1  0  0  0  0
 25 90  1  0  0  0  0
 26 28  1  0  0  0  0
 26 91  1  0  0  0  0
 26 92  1  0  0  0  0
 27 29  1  0  0  0  0
 27 93  1  0  0  0  0
 27 94  1  0  0  0  0
 28 30  1  0  0  0  0
 28 95  1  0  0  0  0
 28 96  1  0  0  0  0
 29 33  1  0  0  0  0
 29 97  1  0  0  0  0
 29 98  1  0  0  0  0
 30 34  1  0  0  0  0
 30 99  1  0  0  0  0
 30100  1  0  0  0  0
 31 37  1  0  0  0  0
 32 38  1  0  0  0  0
 33 35  1  0  0  0  0
 33101  1  0  0  0  0
 33102  1  0  0  0  0
 34 36  1  0  0  0  0
 34103  1  0  0  0  0
 34104  1  0  0  0  0
 35 41  1  0  0  0  0
 35105  1  0  0  0  0
 35106  1  0  0  0  0
 36 42  1  0  0  0  0
 36107  1  0  0  0  0
 36108  1  0  0  0  0
 37 43  1  0  0  0  0
 37 51  2  0  0  0  0
 38 44  1  0  0  0  0
 38 52  2  0  0  0  0
 39109  1  0  0  0  0
 39110  1  0  0  0  0
 39111  1  0  0  0  0
 40112  1  0  0  0  0
 40113  1  0  0  0  0
 40114  1  0  0  0  0
 41 45  1  0  0  0  0
 41115  1  0  0  0  0
 41116  1  0  0  0  0
 42 46  1  0  0  0  0
 42117  1  0  0  0  0
 42118  1  0  0  0  0
 43 55  2  0  0  0  0
 44 56  2  0  0  0  0
 45 53  1  0  0  0  0
 45119  1  0  0  0  0
 45120  1  0  0  0  0
 46 54  1  0  0  0  0
 46121  1  0  0  0  0
 46122  1  0  0  0  0
 47 49  2  0  0  0  0
 47 59  1  0  0  0  0
 48 50  2  0  0  0  0
 48 60  1  0  0  0  0
 49 63  1  0  0  0  0
 50 64  1  0  0  0  0
 51 57  1  0  0  0  0
 51123  1  0  0  0  0
 52 58  1  0  0  0  0
 52124  1  0  0  0  0
 55 61  1  0  0  0  0
 55127  1  0  0  0  0
 56 62  1  0  0  0  0
 56128  1  0  0  0  0
 57 61  2  0  0  0  0
 57129  1  0  0  0  0
 58 62  2  0  0  0  0
 58130  1  0  0  0  0
 59 65  2  0  0  0  0
 59131  1  0  0  0  0
 60 66  2  0  0  0  0
 60132  1  0  0  0  0
 61133  1  0  0  0  0
 62134  1  0  0  0  0
 63 67  2  0  0  0  0
 63135  1  0  0  0  0
 64 68  2  0  0  0  0
 64136  1  0  0  0  0
 65 67  1  0  0  0  0
 65137  1  0  0  0  0
 66 68  1  0  0  0  0
 66138  1  0  0  0  0
M  END
> <PUBCHEM_COMPOUND_CID>
57325597

> <PUBCHEM_COMPOUND_CANONICALIZED>
1

> <PUBCHEM_CACTVS_COMPLEXITY>
1510

> <PUBCHEM_CACTVS_HBOND_ACCEPTOR>
8

> <PUBCHEM_CACTVS_HBOND_DONOR>
2

> <PUBCHEM_CACTVS_ROTATABLE_BOND>
21

> <PUBCHEM_CACTVS_SUBSKEYS>
AAADcfB/8AAGAAAAAAAAAAAAAAAAAAAAAAA8eMGCBAgAAAABVAAAHgIYAAAADArBmCQzwINiAACoAidydACCBAEhBwAbqAEodpgIYPLB25GUIAhgkADIyAcYiICOAABAAAICACAAAIAABAQAQAAAAAAAAA==

> <PUBCHEM_IUPAC_OPENEYE_NAME>
N,N'-bis[3-chloro-6-(4-methylpiperazin-1-yl)benzo[b][1,4]benzodiazepin-11-yl]octadecanediamide

> <PUBCHEM_IUPAC_CAS_NAME>
N,N'-bis[3-chloro-6-(4-methyl-1-piperazinyl)-11-benzo[b][1,4]benzodiazepinyl]octadecanediamide

> <PUBCHEM_IUPAC_NAME_MARKUP>
<I>N</I>,<I>N</I>&apos;-bis[3-chloro-6-(4-methylpiperazin-1-yl)benzo[b][1,4]benzodiazepin-11-yl]octadecanediamide

> <PUBCHEM_IUPAC_NAME>
N,N'-bis[3-chloro-6-(4-methylpiperazin-1-yl)benzo[b][1,4]benzodiazepin-11-yl]octadecanediamide

> <PUBCHEM_IUPAC_SYSTEMATIC_NAME>
N,N'-bis[3-chloranyl-6-(4-methylpiperazin-1-yl)benzo[b][1,4]benzodiazepin-11-yl]octadecanediamide

> <PUBCHEM_IUPAC_TRADITIONAL_NAME>
N,N'-bis[3-chloro-6-(4-methylpiperazino)benzo[b][1,4]benzodiazepin-11-yl]octadecanediamide

> <PUBCHEM_IUPAC_INCHI>
InChI=1S/C54H70Cl2N10O2/c1-61-31-35-63(36-32-61)53-43-21-17-19-23-47(43)65(49-29-27-41(55)39-45(49)57-53)59-51(67)25-15-13-11-9-7-5-3-4-6-8-10-12-14-16-26-52(68)60-66-48-24-20-18-22-44(48)54(64-37-33-62(2)34-38-64)58-46-40-42(56)28-30-50(46)66/h17-24,27-30,39-40H,3-16,25-26,31-38H2,1-2H3,(H,59,67)(H,60,68)

> <PUBCHEM_IUPAC_INCHIKEY>
HOCFXPGDVOXFNP-UHFFFAOYSA-N

> <PUBCHEM_XLOGP3_AA>
12.3

> <PUBCHEM_EXACT_MASS>
960.5060269

> <PUBCHEM_MOLECULAR_FORMULA>
C54H70Cl2N10O2

> <PUBCHEM_MOLECULAR_WEIGHT>
962.1

> <PUBCHEM_OPENEYE_CAN_SMILES>
CN1CCN(CC1)C2=NC3=C(C=CC(=C3)Cl)N(C4=CC=CC=C42)NC(=O)CCCCCCCCCCCCCCCCC(=O)NN5C6=C(C=C(C=C6)Cl)N=C(C7=CC=CC=C75)N8CCN(CC8)C

> <PUBCHEM_OPENEYE_ISO_SMILES>
CN1CCN(CC1)C2=NC3=C(C=CC(=C3)Cl)N(C4=CC=CC=C42)NC(=O)CCCCCCCCCCCCCCCCC(=O)NN5C6=C(C=C(C=C6)Cl)N=C(C7=CC=CC=C75)N8CCN(CC8)C

> <PUBCHEM_CACTVS_TPSA>
102

> <PUBCHEM_MONOISOTOPIC_WEIGHT>
960.5060269

> <PUBCHEM_TOTAL_CHARGE>
0

> <PUBCHEM_HEAVY_ATOM_COUNT>
68

> <PUBCHEM_ATOM_DEF_STEREO_COUNT>
0

> <PUBCHEM_ATOM_UDEF_STEREO_COUNT>
0

> <PUBCHEM_BOND_DEF_STEREO_COUNT>
0

> <PUBCHEM_BOND_UDEF_STEREO_COUNT>
0

> <PUBCHEM_ISOTOPIC_ATOM_COUNT>
0

> <PUBCHEM_COMPONENT_COUNT>
1

> <PUBCHEM_CACTVS_TAUTO_COUNT>
-1

> <PUBCHEM_COORDINATE_TYPE>
1
5
255

> <PUBCHEM_BONDANNOTATIONS>
37  43  8
37  51  8
38  44  8
38  52  8
43  55  8
44  56  8
47  49  8
47  59  8
48  50  8
48  60  8
49  63  8
50  64  8
51  57  8
52  58  8
55  61  8
56  62  8
57  61  8
58  62  8
59  65  8
60  66  8
63  67  8
64  68  8
65  67  8
66  68  8

$$$$
