44439397
  -OEChem-09292322492D

 63 66  0     0  0  0  0  0  0999 V2000
   12.9673    0.5254    0.0000 O   0  0  0  0  0  0  0  0  0  0  0  0
    2.0000    1.1101    0.0000 O   0  0  0  0  0  0  0  0  0  0  0  0
    2.0000   -0.8899    0.0000 O   0  0  0  0  0  0  0  0  0  0  0  0
   11.3230    1.0699    0.0000 O   0  0  0  0  0  0  0  0  0  0  0  0
   11.6736   -0.6263    0.0000 N   0  0  0  0  0  0  0  0  0  0  0  0
    6.3981   -0.4107    0.0000 N   0  0  0  0  0  0  0  0  0  0  0  0
    8.1301   -0.4174    0.0000 N   0  0  0  0  0  0  0  0  0  0  0  0
   11.6674   -2.2358    0.0000 C   0  0  0  0  0  0  0  0  0  0  0  0
   12.2541   -1.4333    0.0000 C   0  0  0  0  0  0  0  0  0  0  0  0
    5.4920    1.1448    0.0000 C   0  0  0  0  0  0  0  0  0  0  0  0
    6.3981    0.6309    0.0000 C   0  0  0  0  0  0  0  0  0  0  0  0
   10.7224   -1.9274    0.0000 C   0  0  0  0  0  0  0  0  0  0  0  0
   10.7263   -0.9274    0.0000 C   0  0  0  0  0  0  0  0  0  0  0  0
    5.4920   -0.9246    0.0000 C   0  0  0  0  0  0  0  0  0  0  0  0
    4.5981    0.6101    0.0000 C   0  0  0  0  0  0  0  0  0  0  0  0
    4.5981   -0.3899    0.0000 C   0  0  0  0  0  0  0  0  0  0  0  0
    9.8622   -0.4241    0.0000 C   0  0  0  0  0  0  0  0  0  0  0  0
    9.8544   -2.4241    0.0000 C   0  0  0  0  0  0  0  0  0  0  0  0
    3.7320    1.1101    0.0000 C   0  0  0  0  0  0  0  0  0  0  0  0
    3.7320   -0.8899    0.0000 C   0  0  0  0  0  0  0  0  0  0  0  0
    8.9942   -0.9207    0.0000 C   0  0  0  0  0  0  0  0  0  0  0  0
   11.9880    0.3230    0.0000 C   0  0  0  0  0  0  0  0  0  0  0  0
    7.2622   -0.9141    0.0000 C   0  0  0  0  0  0  0  0  0  0  0  0
   13.2816    1.4748    0.0000 C   0  0  0  0  0  0  0  0  0  0  0  0
    8.9904   -1.9207    0.0000 C   0  0  0  0  0  0  0  0  0  0  0  0
    2.8660    0.6101    0.0000 C   0  0  0  0  0  0  0  0  0  0  0  0
    2.8660   -0.3899    0.0000 C   0  0  0  0  0  0  0  0  0  0  0  0
   13.5959    2.4241    0.0000 C   0  0  0  0  0  0  0  0  0  0  0  0
   14.2309    1.1604    0.0000 C   0  0  0  0  0  0  0  0  0  0  0  0
   12.3323    1.7891    0.0000 C   0  0  0  0  0  0  0  0  0  0  0  0
    2.0000    2.1101    0.0000 C   0  0  0  0  0  0  0  0  0  0  0  0
    2.0000   -1.8899    0.0000 C   0  0  0  0  0  0  0  0  0  0  0  0
   11.4142   -2.8017    0.0000 H   0  0  0  0  0  0  0  0  0  0  0  0
   12.2036   -2.5471    0.0000 H   0  0  0  0  0  0  0  0  0  0  0  0
   12.7134   -1.8498    0.0000 H   0  0  0  0  0  0  0  0  0  0  0  0
   12.7166   -1.0204    0.0000 H   0  0  0  0  0  0  0  0  0  0  0  0
    5.8856    1.6238    0.0000 H   0  0  0  0  0  0  0  0  0  0  0  0
    5.0874    1.6145    0.0000 H   0  0  0  0  0  0  0  0  0  0  0  0
    7.0089    0.5248    0.0000 H   0  0  0  0  0  0  0  0  0  0  0  0
    6.6071    1.2146    0.0000 H   0  0  0  0  0  0  0  0  0  0  0  0
    5.0874   -1.3944    0.0000 H   0  0  0  0  0  0  0  0  0  0  0  0
    5.8856   -1.4036    0.0000 H   0  0  0  0  0  0  0  0  0  0  0  0
    9.8646    0.1959    0.0000 H   0  0  0  0  0  0  0  0  0  0  0  0
    9.8521   -3.0441    0.0000 H   0  0  0  0  0  0  0  0  0  0  0  0
    3.7320    1.7301    0.0000 H   0  0  0  0  0  0  0  0  0  0  0  0
    3.7320   -1.5099    0.0000 H   0  0  0  0  0  0  0  0  0  0  0  0
    7.2598   -1.5341    0.0000 H   0  0  0  0  0  0  0  0  0  0  0  0
    8.4522   -2.2287    0.0000 H   0  0  0  0  0  0  0  0  0  0  0  0
   14.1845    2.2292    0.0000 H   0  0  0  0  0  0  0  0  0  0  0  0
   13.7908    3.0126    0.0000 H   0  0  0  0  0  0  0  0  0  0  0  0
   13.0073    2.6189    0.0000 H   0  0  0  0  0  0  0  0  0  0  0  0
   14.0360    0.5718    0.0000 H   0  0  0  0  0  0  0  0  0  0  0  0
   14.8195    0.9655    0.0000 H   0  0  0  0  0  0  0  0  0  0  0  0
   14.4258    1.7490    0.0000 H   0  0  0  0  0  0  0  0  0  0  0  0
   12.5271    2.3776    0.0000 H   0  0  0  0  0  0  0  0  0  0  0  0
   11.7437    1.9840    0.0000 H   0  0  0  0  0  0  0  0  0  0  0  0
   12.1374    1.2005    0.0000 H   0  0  0  0  0  0  0  0  0  0  0  0
    2.6200    2.1101    0.0000 H   0  0  0  0  0  0  0  0  0  0  0  0
    2.0000    2.7301    0.0000 H   0  0  0  0  0  0  0  0  0  0  0  0
    1.3800    2.1101    0.0000 H   0  0  0  0  0  0  0  0  0  0  0  0
    1.3800   -1.8899    0.0000 H   0  0  0  0  0  0  0  0  0  0  0  0
    2.0000   -2.5099    0.0000 H   0  0  0  0  0  0  0  0  0  0  0  0
    2.6200   -1.8899    0.0000 H   0  0  0  0  0  0  0  0  0  0  0  0
  1 22  1  0  0  0  0
  1 24  1  0  0  0  0
  2 26  1  0  0  0  0
  2 31  1  0  0  0  0
  3 27  1  0  0  0  0
  3 32  1  0  0  0  0
  4 22  2  0  0  0  0
  5  9  1  0  0  0  0
  5 13  1  0  0  0  0
  5 22  1  0  0  0  0
  6 11  1  0  0  0  0
  6 14  1  0  0  0  0
  6 23  1  0  0  0  0
  7 21  1  0  0  0  0
  7 23  2  0  0  0  0
  8  9  1  0  0  0  0
  8 12  1  0  0  0  0
  8 33  1  0  0  0  0
  8 34  1  0  0  0  0
  9 35  1  0  0  0  0
  9 36  1  0  0  0  0
 10 11  1  0  0  0  0
 10 15  1  0  0  0  0
 10 37  1  0  0  0  0
 10 38  1  0  0  0  0
 11 39  1  0  0  0  0
 11 40  1  0  0  0  0
 12 13  2  0  0  0  0
 12 18  1  0  0  0  0
 13 17  1  0  0  0  0
 14 16  1  0  0  0  0
 14 41  1  0  0  0  0
 14 42  1  0  0  0  0
 15 16  1  0  0  0  0
 15 19  2  0  0  0  0
 16 20  2  0  0  0  0
 17 21  2  0  0  0  0
 17 43  1  0  0  0  0
 18 25  2  0  0  0  0
 18 44  1  0  0  0  0
 19 26  1  0  0  0  0
 19 45  1  0  0  0  0
 20 27  1  0  0  0  0
 20 46  1  0  0  0  0
 21 25  1  0  0  0  0
 23 47  1  0  0  0  0
 24 28  1  0  0  0  0
 24 29  1  0  0  0  0
 24 30  1  0  0  0  0
 25 48  1  0  0  0  0
 26 27  2  0  0  0  0
 28 49  1  0  0  0  0
 28 50  1  0  0  0  0
 28 51  1  0  0  0  0
 29 52  1  0  0  0  0
 29 53  1  0  0  0  0
 29 54  1  0  0  0  0
 30 55  1  0  0  0  0
 30 56  1  0  0  0  0
 30 57  1  0  0  0  0
 31 58  1  0  0  0  0
 31 59  1  0  0  0  0
 31 60  1  0  0  0  0
 32 61  1  0  0  0  0
 32 62  1  0  0  0  0
 32 63  1  0  0  0  0
M  END
> <PUBCHEM_COMPOUND_CID>
44439397

> <PUBCHEM_COMPOUND_CANONICALIZED>
1

> <PUBCHEM_CACTVS_COMPLEXITY>
679

> <PUBCHEM_CACTVS_HBOND_ACCEPTOR>
5

> <PUBCHEM_CACTVS_HBOND_DONOR>
0

> <PUBCHEM_CACTVS_ROTATABLE_BOND>
6

> <PUBCHEM_CACTVS_SUBSKEYS>
AAADceB7OAAAAAAAAAAAAAAAAAAAAWAAAAA8YIAAAAAAAFixQAAAHgAAAAAADEzBmAYzzoMABACoAiRDfACCCAEhIgAJiAAO7IgNJiLE+duMMCpkxhHK6Aew0LIOqAABAAQSQABQAAIACCSAAAAAAAAAAA==

> <PUBCHEM_IUPAC_OPENEYE_NAME>
tert-butyl 6-[(6,7-dimethoxy-3,4-dihydro-1H-isoquinolin-2-yl)methyleneamino]indoline-1-carboxylate

> <PUBCHEM_IUPAC_CAS_NAME>
6-[(6,7-dimethoxy-3,4-dihydro-1H-isoquinolin-2-yl)methylideneamino]-2,3-dihydroindole-1-carboxylic acid tert-butyl ester

> <PUBCHEM_IUPAC_NAME_MARKUP>
<I>tert</I>-butyl 6-[(6,7-dimethoxy-3,4-dihydro-1<I>H</I>-isoquinolin-2-yl)methylideneamino]-2,3-dihydroindole-1-carboxylate

> <PUBCHEM_IUPAC_NAME>
tert-butyl 6-[(6,7-dimethoxy-3,4-dihydro-1H-isoquinolin-2-yl)methylideneamino]-2,3-dihydroindole-1-carboxylate

> <PUBCHEM_IUPAC_SYSTEMATIC_NAME>
tert-butyl 6-[(6,7-dimethoxy-3,4-dihydro-1H-isoquinolin-2-yl)methylideneamino]-2,3-dihydroindole-1-carboxylate

> <PUBCHEM_IUPAC_TRADITIONAL_NAME>
6-[(6,7-dimethoxy-3,4-dihydro-1H-isoquinolin-2-yl)methyleneamino]indoline-1-carboxylic acid tert-butyl ester

> <PUBCHEM_IUPAC_INCHI>
InChI=1S/C25H31N3O4/c1-25(2,3)32-24(29)28-11-9-17-6-7-20(14-21(17)28)26-16-27-10-8-18-12-22(30-4)23(31-5)13-19(18)15-27/h6-7,12-14,16H,8-11,15H2,1-5H3

> <PUBCHEM_IUPAC_INCHIKEY>
VZZJAZOBBQGWCX-UHFFFAOYSA-N

> <PUBCHEM_XLOGP3_AA>
3.8

> <PUBCHEM_EXACT_MASS>
437.23145648

> <PUBCHEM_MOLECULAR_FORMULA>
C25H31N3O4

> <PUBCHEM_MOLECULAR_WEIGHT>
437.5

> <PUBCHEM_OPENEYE_CAN_SMILES>
CC(C)(C)OC(=O)N1CCC2=C1C=C(C=C2)N=CN3CCC4=CC(=C(C=C4C3)OC)OC

> <PUBCHEM_OPENEYE_ISO_SMILES>
CC(C)(C)OC(=O)N1CCC2=C1C=C(C=C2)N=CN3CCC4=CC(=C(C=C4C3)OC)OC

> <PUBCHEM_CACTVS_TPSA>
63.6

> <PUBCHEM_MONOISOTOPIC_WEIGHT>
437.23145648

> <PUBCHEM_TOTAL_CHARGE>
0

> <PUBCHEM_HEAVY_ATOM_COUNT>
32

> <PUBCHEM_ATOM_DEF_STEREO_COUNT>
0

> <PUBCHEM_ATOM_UDEF_STEREO_COUNT>
0

> <PUBCHEM_BOND_DEF_STEREO_COUNT>
0

> <PUBCHEM_BOND_UDEF_STEREO_COUNT>
0

> <PUBCHEM_ISOTOPIC_ATOM_COUNT>
0

> <PUBCHEM_COMPONENT_COUNT>
1

> <PUBCHEM_CACTVS_TAUTO_COUNT>
-1

> <PUBCHEM_COORDINATE_TYPE>
1
5
255

> <PUBCHEM_BONDANNOTATIONS>
12  13  8
12  18  8
13  17  8
15  16  8
15  19  8
16  20  8
17  21  8
18  25  8
19  26  8
20  27  8
21  25  8
26  27  8

$$$$
