137661939
  -OEChem-09292322392D

 68 72  0     0  0  0  0  0  0999 V2000
    8.1342    5.5352    0.0000 Cl  0  0  0  0  0  0  0  0  0  0  0  0
    8.1342    7.5352    0.0000 Cl  0  0  0  0  0  0  0  0  0  0  0  0
    4.6701   -2.4648    0.0000 S   0  0  0  0  0  0  0  0  0  0  0  0
    6.4021    0.5352    0.0000 N   0  0  0  0  0  0  0  0  0  0  0  0
    6.4021    4.5352    0.0000 N   0  0  0  0  0  0  0  0  0  0  0  0
    3.8611   -4.0526    0.0000 N   0  0  0  0  0  0  0  0  0  0  0  0
    5.4791   -4.0526    0.0000 N   0  0  0  0  0  0  0  0  0  0  0  0
    5.1701   -5.0036    0.0000 N   0  0  0  0  0  0  0  0  0  0  0  0
    6.4021    2.5352    0.0000 C   0  0  0  0  0  0  0  0  0  0  0  0
    7.2682    2.0352    0.0000 C   0  0  0  0  0  0  0  0  0  0  0  0
    5.5361    2.0352    0.0000 C   0  0  0  0  0  0  0  0  0  0  0  0
    7.2682    3.0352    0.0000 C   0  0  0  0  0  0  0  0  0  0  0  0
    5.5361    3.0352    0.0000 C   0  0  0  0  0  0  0  0  0  0  0  0
    7.2682    1.0352    0.0000 C   0  0  0  0  0  0  0  0  0  0  0  0
    5.5361    1.0352    0.0000 C   0  0  0  0  0  0  0  0  0  0  0  0
    7.2682    4.0352    0.0000 C   0  0  0  0  0  0  0  0  0  0  0  0
    5.5361    4.0352    0.0000 C   0  0  0  0  0  0  0  0  0  0  0  0
    6.4021   -0.4648    0.0000 C   0  0  0  0  0  0  0  0  0  0  0  0
    6.4021    5.5352    0.0000 C   0  0  0  0  0  0  0  0  0  0  0  0
    5.5361   -0.9648    0.0000 C   0  0  0  0  0  0  0  0  0  0  0  0
    7.2682    6.0352    0.0000 C   0  0  0  0  0  0  0  0  0  0  0  0
    5.5361    6.0352    0.0000 C   0  0  0  0  0  0  0  0  0  0  0  0
    5.5361   -1.9648    0.0000 C   0  0  0  0  0  0  0  0  0  0  0  0
    7.2682    7.0352    0.0000 C   0  0  0  0  0  0  0  0  0  0  0  0
    5.5361    7.0352    0.0000 C   0  0  0  0  0  0  0  0  0  0  0  0
    6.4021    7.5352    0.0000 C   0  0  0  0  0  0  0  0  0  0  0  0
    4.6701   -3.4648    0.0000 C   0  0  0  0  0  0  0  0  0  0  0  0
    4.1701   -5.0036    0.0000 C   0  0  0  0  0  0  0  0  0  0  0  0
    2.9100   -3.7436    0.0000 C   0  0  0  0  0  0  0  0  0  0  0  0
    3.5823   -5.8126    0.0000 C   0  0  0  0  0  0  0  0  0  0  0  0
    3.9890   -6.7262    0.0000 C   0  0  0  0  0  0  0  0  0  0  0  0
    2.5878   -5.7081    0.0000 C   0  0  0  0  0  0  0  0  0  0  0  0
    3.4013   -7.5352    0.0000 C   0  0  0  0  0  0  0  0  0  0  0  0
    2.0000   -6.5171    0.0000 C   0  0  0  0  0  0  0  0  0  0  0  0
    2.4067   -7.4307    0.0000 C   0  0  0  0  0  0  0  0  0  0  0  0
    7.8788    1.9276    0.0000 H   0  0  0  0  0  0  0  0  0  0  0  0
    7.4802    2.6178    0.0000 H   0  0  0  0  0  0  0  0  0  0  0  0
    5.3241    2.6178    0.0000 H   0  0  0  0  0  0  0  0  0  0  0  0
    4.9255    1.9276    0.0000 H   0  0  0  0  0  0  0  0  0  0  0  0
    7.4802    2.4526    0.0000 H   0  0  0  0  0  0  0  0  0  0  0  0
    7.8788    3.1429    0.0000 H   0  0  0  0  0  0  0  0  0  0  0  0
    4.9255    3.1429    0.0000 H   0  0  0  0  0  0  0  0  0  0  0  0
    5.3241    2.4526    0.0000 H   0  0  0  0  0  0  0  0  0  0  0  0
    7.4802    0.4526    0.0000 H   0  0  0  0  0  0  0  0  0  0  0  0
    7.8788    1.1429    0.0000 H   0  0  0  0  0  0  0  0  0  0  0  0
    4.9255    1.1429    0.0000 H   0  0  0  0  0  0  0  0  0  0  0  0
    5.3241    0.4526    0.0000 H   0  0  0  0  0  0  0  0  0  0  0  0
    7.8788    3.9276    0.0000 H   0  0  0  0  0  0  0  0  0  0  0  0
    7.4802    4.6178    0.0000 H   0  0  0  0  0  0  0  0  0  0  0  0
    5.3241    4.6178    0.0000 H   0  0  0  0  0  0  0  0  0  0  0  0
    4.9255    3.9276    0.0000 H   0  0  0  0  0  0  0  0  0  0  0  0
    6.6142   -1.0474    0.0000 H   0  0  0  0  0  0  0  0  0  0  0  0
    7.0127   -0.3571    0.0000 H   0  0  0  0  0  0  0  0  0  0  0  0
    5.3241   -0.3822    0.0000 H   0  0  0  0  0  0  0  0  0  0  0  0
    4.9255   -1.0724    0.0000 H   0  0  0  0  0  0  0  0  0  0  0  0
    4.9992    5.7252    0.0000 H   0  0  0  0  0  0  0  0  0  0  0  0
    5.7482   -2.5474    0.0000 H   0  0  0  0  0  0  0  0  0  0  0  0
    6.1467   -1.8571    0.0000 H   0  0  0  0  0  0  0  0  0  0  0  0
    4.9992    7.3452    0.0000 H   0  0  0  0  0  0  0  0  0  0  0  0
    6.4021    8.1552    0.0000 H   0  0  0  0  0  0  0  0  0  0  0  0
    3.1016   -3.1539    0.0000 H   0  0  0  0  0  0  0  0  0  0  0  0
    2.3204   -3.5520    0.0000 H   0  0  0  0  0  0  0  0  0  0  0  0
    2.7184   -4.3332    0.0000 H   0  0  0  0  0  0  0  0  0  0  0  0
    4.6056   -6.7910    0.0000 H   0  0  0  0  0  0  0  0  0  0  0  0
    2.3356   -5.1417    0.0000 H   0  0  0  0  0  0  0  0  0  0  0  0
    3.6534   -8.1016    0.0000 H   0  0  0  0  0  0  0  0  0  0  0  0
    1.3834   -6.4523    0.0000 H   0  0  0  0  0  0  0  0  0  0  0  0
    2.0423   -7.9323    0.0000 H   0  0  0  0  0  0  0  0  0  0  0  0
  1 21  1  0  0  0  0
  2 24  1  0  0  0  0
  3 23  1  0  0  0  0
  3 27  1  0  0  0  0
  4 14  1  0  0  0  0
  4 15  1  0  0  0  0
  4 18  1  0  0  0  0
  5 16  1  0  0  0  0
  5 17  1  0  0  0  0
  5 19  1  0  0  0  0
  6 27  1  0  0  0  0
  6 28  1  0  0  0  0
  6 29  1  0  0  0  0
  7  8  1  0  0  0  0
  7 27  2  0  0  0  0
  8 28  2  0  0  0  0
  9 10  1  0  0  0  0
  9 11  1  0  0  0  0
  9 12  1  0  0  0  0
  9 13  1  0  0  0  0
 10 14  1  0  0  0  0
 10 36  1  0  0  0  0
 10 37  1  0  0  0  0
 11 15  1  0  0  0  0
 11 38  1  0  0  0  0
 11 39  1  0  0  0  0
 12 16  1  0  0  0  0
 12 40  1  0  0  0  0
 12 41  1  0  0  0  0
 13 17  1  0  0  0  0
 13 42  1  0  0  0  0
 13 43  1  0  0  0  0
 14 44  1  0  0  0  0
 14 45  1  0  0  0  0
 15 46  1  0  0  0  0
 15 47  1  0  0  0  0
 16 48  1  0  0  0  0
 16 49  1  0  0  0  0
 17 50  1  0  0  0  0
 17 51  1  0  0  0  0
 18 20  1  0  0  0  0
 18 52  1  0  0  0  0
 18 53  1  0  0  0  0
 19 21  2  0  0  0  0
 19 22  1  0  0  0  0
 20 23  1  0  0  0  0
 20 54  1  0  0  0  0
 20 55  1  0  0  0  0
 21 24  1  0  0  0  0
 22 25  2  0  0  0  0
 22 56  1  0  0  0  0
 23 57  1  0  0  0  0
 23 58  1  0  0  0  0
 24 26  2  0  0  0  0
 25 26  1  0  0  0  0
 25 59  1  0  0  0  0
 26 60  1  0  0  0  0
 28 30  1  0  0  0  0
 29 61  1  0  0  0  0
 29 62  1  0  0  0  0
 29 63  1  0  0  0  0
 30 31  2  0  0  0  0
 30 32  1  0  0  0  0
 31 33  1  0  0  0  0
 31 64  1  0  0  0  0
 32 34  2  0  0  0  0
 32 65  1  0  0  0  0
 33 35  2  0  0  0  0
 33 66  1  0  0  0  0
 34 35  1  0  0  0  0
 34 67  1  0  0  0  0
 35 68  1  0  0  0  0
M  END
> <PUBCHEM_COMPOUND_CID>
137661939

> <PUBCHEM_COMPOUND_CANONICALIZED>
1

> <PUBCHEM_CACTVS_COMPLEXITY>
648

> <PUBCHEM_CACTVS_HBOND_ACCEPTOR>
5

> <PUBCHEM_CACTVS_HBOND_DONOR>
0

> <PUBCHEM_CACTVS_ROTATABLE_BOND>
7

> <PUBCHEM_CACTVS_SUBSKEYS>
AAADcfB7gABGAAAAAAAAAAAAAAAAAWAAAAA8eIEAAAAAAAAB0AAAHAYIAAAADgrFWySz0IcMEAiiAiZiZACS0AthB7AdymAoZpiIKKLhm5HEIAhgiALIyAcQgAAPAAAAAAIAABQAAAAABAAAKAAAAAAAAA==

> <PUBCHEM_IUPAC_OPENEYE_NAME>
3-(2,3-dichlorophenyl)-9-[3-[(4-methyl-5-phenyl-1,2,4-triazol-3-yl)sulfanyl]propyl]-3,9-diazaspiro[5.5]undecane

> <PUBCHEM_IUPAC_CAS_NAME>
3-(2,3-dichlorophenyl)-9-[3-[(4-methyl-5-phenyl-1,2,4-triazol-3-yl)thio]propyl]-3,9-diazaspiro[5.5]undecane

> <PUBCHEM_IUPAC_NAME_MARKUP>
3-(2,3-dichlorophenyl)-9-[3-[(4-methyl-5-phenyl-1,2,4-triazol-3-yl)sulfanyl]propyl]-3,9-diazaspiro[5.5]undecane

> <PUBCHEM_IUPAC_NAME>
3-(2,3-dichlorophenyl)-9-[3-[(4-methyl-5-phenyl-1,2,4-triazol-3-yl)sulfanyl]propyl]-3,9-diazaspiro[5.5]undecane

> <PUBCHEM_IUPAC_SYSTEMATIC_NAME>
3-[2,3-bis(chloranyl)phenyl]-9-[3-[(4-methyl-5-phenyl-1,2,4-triazol-3-yl)sulfanyl]propyl]-3,9-diazaspiro[5.5]undecane

> <PUBCHEM_IUPAC_TRADITIONAL_NAME>
3-(2,3-dichlorophenyl)-9-[3-[(4-methyl-5-phenyl-1,2,4-triazol-3-yl)thio]propyl]-3,9-diazaspiro[5.5]undecane

> <PUBCHEM_IUPAC_INCHI>
InChI=1S/C27H33Cl2N5S/c1-32-25(21-7-3-2-4-8-21)30-31-26(32)35-20-6-15-33-16-11-27(12-17-33)13-18-34(19-14-27)23-10-5-9-22(28)24(23)29/h2-5,7-10H,6,11-20H2,1H3

> <PUBCHEM_IUPAC_INCHIKEY>
YCQKBDMLGQENAQ-UHFFFAOYSA-N

> <PUBCHEM_XLOGP3_AA>
6.5

> <PUBCHEM_EXACT_MASS>
529.1833726

> <PUBCHEM_MOLECULAR_FORMULA>
C27H33Cl2N5S

> <PUBCHEM_MOLECULAR_WEIGHT>
530.6

> <PUBCHEM_OPENEYE_CAN_SMILES>
CN1C(=NN=C1SCCCN2CCC3(CC2)CCN(CC3)C4=C(C(=CC=C4)Cl)Cl)C5=CC=CC=C5

> <PUBCHEM_OPENEYE_ISO_SMILES>
CN1C(=NN=C1SCCCN2CCC3(CC2)CCN(CC3)C4=C(C(=CC=C4)Cl)Cl)C5=CC=CC=C5

> <PUBCHEM_CACTVS_TPSA>
62.5

> <PUBCHEM_MONOISOTOPIC_WEIGHT>
529.1833726

> <PUBCHEM_TOTAL_CHARGE>
0

> <PUBCHEM_HEAVY_ATOM_COUNT>
35

> <PUBCHEM_ATOM_DEF_STEREO_COUNT>
0

> <PUBCHEM_ATOM_UDEF_STEREO_COUNT>
0

> <PUBCHEM_BOND_DEF_STEREO_COUNT>
0

> <PUBCHEM_BOND_UDEF_STEREO_COUNT>
0

> <PUBCHEM_ISOTOPIC_ATOM_COUNT>
0

> <PUBCHEM_COMPONENT_COUNT>
1

> <PUBCHEM_CACTVS_TAUTO_COUNT>
-1

> <PUBCHEM_COORDINATE_TYPE>
1
5
255

> <PUBCHEM_BONDANNOTATIONS>
19  21  8
19  22  8
21  24  8
22  25  8
24  26  8
25  26  8
30  31  8
30  32  8
31  33  8
32  34  8
33  35  8
34  35  8
6  27  8
6  28  8
7  27  8
7  8  8
8  28  8

$$$$
