44377901
  -OEChem-09292322192D

 64 68  0     1  0  0  0  0  0999 V2000
    7.2379   -5.9408    0.0000 S   0  0  0  0  0  0  0  0  0  0  0  0
    3.0000    2.4729    0.0000 S   0  0  0  0  0  0  0  0  0  0  0  0
    3.9866    5.9408    0.0000 F   0  0  0  0  0  0  0  0  0  0  0  0
    7.0000    2.4883    0.0000 O   0  0  0  0  0  0  0  0  0  0  0  0
    3.0038    1.4729    0.0000 O   0  0  0  0  0  0  0  0  0  0  0  0
    2.9961    3.4729    0.0000 O   0  0  0  0  0  0  0  0  0  0  0  0
    7.3432   -3.7307    0.0000 N   0  0  3  0  0  0  0  0  0  0  0  0
    6.0133   -0.9796    0.0000 N   0  0  3  0  0  0  0  0  0  0  0  0
    4.0000    2.4768    0.0000 N   0  0  0  0  0  0  0  0  0  0  0  0
    7.0341   -2.7796    0.0000 C   0  0  2  0  0  0  0  0  0  0  0  0
    6.0341   -2.7796    0.0000 C   0  0  1  0  0  0  0  0  0  0  0  0
    7.5688   -1.8857    0.0000 C   0  0  0  0  0  0  0  0  0  0  0  0
    5.4995   -1.8857    0.0000 C   0  0  0  0  0  0  0  0  0  0  0  0
    5.7251   -3.7307    0.0000 C   0  0  0  0  0  0  0  0  0  0  0  0
    6.5341   -4.3184    0.0000 C   0  0  0  0  0  0  0  0  0  0  0  0
    7.0550   -0.9796    0.0000 C   0  0  0  0  0  0  0  0  0  0  0  0
    8.2868   -3.9980    0.0000 C   0  0  0  0  0  0  0  0  0  0  0  0
    5.5100   -0.1155    0.0000 C   0  0  0  0  0  0  0  0  0  0  0  0
    6.4967   -5.2985    0.0000 C   0  0  0  0  0  0  0  0  0  0  0  0
    4.8500   -4.1816    0.0000 C   0  0  0  0  0  0  0  0  0  0  0  0
    8.6687   -4.9014    0.0000 C   0  0  0  0  0  0  0  0  0  0  0  0
    8.2027   -5.7644    0.0000 C   0  0  0  0  0  0  0  0  0  0  0  0
    6.0066    0.7524    0.0000 C   0  0  0  0  0  0  0  0  0  0  0  0
    5.6056   -5.7169    0.0000 C   0  0  0  0  0  0  0  0  0  0  0  0
    4.7908   -5.1643    0.0000 C   0  0  0  0  0  0  0  0  0  0  0  0
    5.5033    1.6165    0.0000 C   0  0  0  0  0  0  0  0  0  0  0  0
    6.0000    2.4845    0.0000 C   0  0  0  0  0  0  0  0  0  0  0  0
    5.4966    3.3486    0.0000 C   0  0  0  0  0  0  0  0  0  0  0  0
    4.4966    3.3447    0.0000 C   0  0  0  0  0  0  0  0  0  0  0  0
    5.9933    4.2165    0.0000 C   0  0  0  0  0  0  0  0  0  0  0  0
    3.9933    4.2088    0.0000 C   0  0  0  0  0  0  0  0  0  0  0  0
    5.4900    5.0806    0.0000 C   0  0  0  0  0  0  0  0  0  0  0  0
    4.4900    5.0768    0.0000 C   0  0  0  0  0  0  0  0  0  0  0  0
    2.0000    2.4691    0.0000 C   0  0  0  0  0  0  0  0  0  0  0  0
    7.8788   -2.8750    0.0000 H   0  0  0  0  0  0  0  0  0  0  0  0
    5.1895   -2.8750    0.0000 H   0  0  0  0  0  0  0  0  0  0  0  0
    8.0386   -2.2903    0.0000 H   0  0  0  0  0  0  0  0  0  0  0  0
    8.0478   -1.4920    0.0000 H   0  0  0  0  0  0  0  0  0  0  0  0
    5.0205   -1.4920    0.0000 H   0  0  0  0  0  0  0  0  0  0  0  0
    5.0297   -2.2903    0.0000 H   0  0  0  0  0  0  0  0  0  0  0  0
    7.6386   -0.7705    0.0000 H   0  0  0  0  0  0  0  0  0  0  0  0
    6.9489   -0.3687    0.0000 H   0  0  0  0  0  0  0  0  0  0  0  0
    8.8974   -3.8902    0.0000 H   0  0  0  0  0  0  0  0  0  0  0  0
    8.3183   -3.3787    0.0000 H   0  0  0  0  0  0  0  0  0  0  0  0
    5.0335    0.2812    0.0000 H   0  0  0  0  0  0  0  0  0  0  0  0
    5.0366   -0.5159    0.0000 H   0  0  0  0  0  0  0  0  0  0  0  0
    4.3306   -3.8431    0.0000 H   0  0  0  0  0  0  0  0  0  0  0  0
    9.1346   -5.3103    0.0000 H   0  0  0  0  0  0  0  0  0  0  0  0
    9.1714   -4.5385    0.0000 H   0  0  0  0  0  0  0  0  0  0  0  0
    8.1752   -6.3838    0.0000 H   0  0  0  0  0  0  0  0  0  0  0  0
    8.8003   -5.9296    0.0000 H   0  0  0  0  0  0  0  0  0  0  0  0
    6.4831    0.3557    0.0000 H   0  0  0  0  0  0  0  0  0  0  0  0
    6.4800    1.1528    0.0000 H   0  0  0  0  0  0  0  0  0  0  0  0
    5.5569   -6.3350    0.0000 H   0  0  0  0  0  0  0  0  0  0  0  0
    4.2346   -5.4380    0.0000 H   0  0  0  0  0  0  0  0  0  0  0  0
    5.0268    2.0132    0.0000 H   0  0  0  0  0  0  0  0  0  0  0  0
    5.0299    1.2162    0.0000 H   0  0  0  0  0  0  0  0  0  0  0  0
    6.6133    4.2189    0.0000 H   0  0  0  0  0  0  0  0  0  0  0  0
    3.3733    4.2064    0.0000 H   0  0  0  0  0  0  0  0  0  0  0  0
    4.3120    1.9410    0.0000 H   0  0  0  0  0  0  0  0  0  0  0  0
    5.7979    5.6187    0.0000 H   0  0  0  0  0  0  0  0  0  0  0  0
    1.9976    3.0890    0.0000 H   0  0  0  0  0  0  0  0  0  0  0  0
    1.3800    2.4667    0.0000 H   0  0  0  0  0  0  0  0  0  0  0  0
    2.0024    1.8491    0.0000 H   0  0  0  0  0  0  0  0  0  0  0  0
  1 19  1  0  0  0  0
  1 22  1  0  0  0  0
  2  5  2  0  0  0  0
  2  6  2  0  0  0  0
  2  9  1  0  0  0  0
  2 34  1  0  0  0  0
  3 33  1  0  0  0  0
  4 27  2  0  0  0  0
  7 10  1  0  0  0  0
  7 15  1  0  0  0  0
  7 17  1  0  0  0  0
  8 13  1  0  0  0  0
  8 16  1  0  0  0  0
  8 18  1  0  0  0  0
  9 29  1  0  0  0  0
  9 60  1  0  0  0  0
 10 11  1  0  0  0  0
 10 12  1  0  0  0  0
 10 35  1  1  0  0  0
 11 13  1  0  0  0  0
 11 14  1  0  0  0  0
 11 36  1  1  0  0  0
 12 16  1  0  0  0  0
 12 37  1  0  0  0  0
 12 38  1  0  0  0  0
 13 39  1  0  0  0  0
 13 40  1  0  0  0  0
 14 15  2  0  0  0  0
 14 20  1  0  0  0  0
 15 19  1  0  0  0  0
 16 41  1  0  0  0  0
 16 42  1  0  0  0  0
 17 21  1  0  0  0  0
 17 43  1  0  0  0  0
 17 44  1  0  0  0  0
 18 23  1  0  0  0  0
 18 45  1  0  0  0  0
 18 46  1  0  0  0  0
 19 24  2  0  0  0  0
 20 25  2  0  0  0  0
 20 47  1  0  0  0  0
 21 22  1  0  0  0  0
 21 48  1  0  0  0  0
 21 49  1  0  0  0  0
 22 50  1  0  0  0  0
 22 51  1  0  0  0  0
 23 26  1  0  0  0  0
 23 52  1  0  0  0  0
 23 53  1  0  0  0  0
 24 25  1  0  0  0  0
 24 54  1  0  0  0  0
 25 55  1  0  0  0  0
 26 27  1  0  0  0  0
 26 56  1  0  0  0  0
 26 57  1  0  0  0  0
 27 28  1  0  0  0  0
 28 29  2  0  0  0  0
 28 30  1  0  0  0  0
 29 31  1  0  0  0  0
 30 32  2  0  0  0  0
 30 58  1  0  0  0  0
 31 33  2  0  0  0  0
 31 59  1  0  0  0  0
 32 33  1  0  0  0  0
 32 61  1  0  0  0  0
 34 62  1  0  0  0  0
 34 63  1  0  0  0  0
 34 64  1  0  0  0  0
M  END
> <PUBCHEM_COMPOUND_CID>
44377901

> <PUBCHEM_COMPOUND_CANONICALIZED>
1

> <PUBCHEM_CACTVS_COMPLEXITY>
838

> <PUBCHEM_CACTVS_HBOND_ACCEPTOR>
8

> <PUBCHEM_CACTVS_HBOND_DONOR>
1

> <PUBCHEM_CACTVS_ROTATABLE_BOND>
7

> <PUBCHEM_CACTVS_SUBSKEYS>
AAADceB7MQBgAAAAAAAAAAAAAAAAAWAAAAA8YIAABYAAAFixQAAAHwQQQAAADSzF2AyywYNAAAqIAqRSQHCCAAAlChAIiB0IZMgIIDrg1ZGEIYhgkADoyccciMCOgAAAgAACAQAAAAEAAAQCAAAAAAAAAA==

> <PUBCHEM_IUPAC_OPENEYE_NAME>
N-[5-fluoro-2-[4-[(11S,16R)-6-thia-10,14-diazatetracyclo[8.6.1.05,17.011,16]heptadeca-1(17),2,4-trien-14-yl]butanoyl]phenyl]methanesulfonamide

> <PUBCHEM_IUPAC_CAS_NAME>
N-[5-fluoro-2-[1-oxo-4-[(11S,16R)-6-thia-10,14-diazatetracyclo[8.6.1.05,17.011,16]heptadeca-1(17),2,4-trien-14-yl]butyl]phenyl]methanesulfonamide

> <PUBCHEM_IUPAC_NAME_MARKUP>
<I>N</I>-[5-fluoro-2-[4-[(11<I>S</I>,16<I>R</I>)-6-thia-10,14-diazatetracyclo[8.6.1.0<SUP>5,17</SUP>.0<SUP>11,16</SUP>]heptadeca-1(17),2,4-trien-14-yl]butanoyl]phenyl]methanesulfonamide

> <PUBCHEM_IUPAC_NAME>
N-[5-fluoro-2-[4-[(11S,16R)-6-thia-10,14-diazatetracyclo[8.6.1.05,17.011,16]heptadeca-1(17),2,4-trien-14-yl]butanoyl]phenyl]methanesulfonamide

> <PUBCHEM_IUPAC_SYSTEMATIC_NAME>
N-[5-fluoranyl-2-[4-[(11S,16R)-6-thia-10,14-diazatetracyclo[8.6.1.05,17.011,16]heptadeca-1(17),2,4-trien-14-yl]butanoyl]phenyl]methanesulfonamide

> <PUBCHEM_IUPAC_TRADITIONAL_NAME>
N-[5-fluoro-2-[4-[(11S,16R)-6-thia-10,14-diazatetracyclo[8.6.1.05,17.011,16]heptadeca-1(17),2,4-trien-14-yl]butanoyl]phenyl]methanesulfonamide

> <PUBCHEM_IUPAC_INCHI>
InChI=1S/C25H30FN3O3S2/c1-34(31,32)27-21-15-17(26)8-9-19(21)23(30)6-3-11-28-13-10-22-20(16-28)18-5-2-7-24-25(18)29(22)12-4-14-33-24/h2,5,7-9,15,20,22,27H,3-4,6,10-14,16H2,1H3/t20-,22-/m0/s1

> <PUBCHEM_IUPAC_INCHIKEY>
DJAYOTFCMKFULR-UNMCSNQZSA-N

> <PUBCHEM_XLOGP3_AA>
4

> <PUBCHEM_EXACT_MASS>
503.17126234

> <PUBCHEM_MOLECULAR_FORMULA>
C25H30FN3O3S2

> <PUBCHEM_MOLECULAR_WEIGHT>
503.7

> <PUBCHEM_OPENEYE_CAN_SMILES>
CS(=O)(=O)NC1=C(C=CC(=C1)F)C(=O)CCCN2CCC3C(C2)C4=C5N3CCCSC5=CC=C4

> <PUBCHEM_OPENEYE_ISO_SMILES>
CS(=O)(=O)NC1=C(C=CC(=C1)F)C(=O)CCCN2CC[C@H]3[C@@H](C2)C4=C5N3CCCSC5=CC=C4

> <PUBCHEM_CACTVS_TPSA>
103

> <PUBCHEM_MONOISOTOPIC_WEIGHT>
503.17126234

> <PUBCHEM_TOTAL_CHARGE>
0

> <PUBCHEM_HEAVY_ATOM_COUNT>
34

> <PUBCHEM_ATOM_DEF_STEREO_COUNT>
2

> <PUBCHEM_ATOM_UDEF_STEREO_COUNT>
0

> <PUBCHEM_BOND_DEF_STEREO_COUNT>
0

> <PUBCHEM_BOND_UDEF_STEREO_COUNT>
0

> <PUBCHEM_ISOTOPIC_ATOM_COUNT>
0

> <PUBCHEM_COMPONENT_COUNT>
1

> <PUBCHEM_CACTVS_TAUTO_COUNT>
-1

> <PUBCHEM_COORDINATE_TYPE>
1
5
255

> <PUBCHEM_BONDANNOTATIONS>
10  35  5
11  36  5
14  15  8
14  20  8
15  19  8
19  24  8
20  25  8
24  25  8
28  29  8
28  30  8
29  31  8
30  32  8
31  33  8
32  33  8

$$$$
