10087023
  -OEChem-09292322082D

 53 55  0     1  0  0  0  0  0999 V2000
    2.2700   -1.4791    0.0000 O   0  0  0  0  0  0  0  0  0  0  0  0
    4.9726    1.0154    0.0000 N   0  0  3  0  0  0  0  0  0  0  0  0
    4.0020   -1.4791    0.0000 N   0  0  0  0  0  0  0  0  0  0  0  0
    4.8680    0.0209    0.0000 C   0  0  1  0  0  0  0  0  0  0  0  0
    5.7816   -0.3858    0.0000 C   0  0  0  0  0  0  0  0  0  0  0  0
    6.4507    0.3573    0.0000 C   0  0  0  0  0  0  0  0  0  0  0  0
    5.9507    1.2233    0.0000 C   0  0  0  0  0  0  0  0  0  0  0  0
    4.0020   -0.4791    0.0000 C   0  0  0  0  0  0  0  0  0  0  0  0
    3.1360   -2.9791    0.0000 C   0  0  0  0  0  0  0  0  0  0  0  0
    4.2294    1.6846    0.0000 C   0  0  0  0  0  0  0  0  0  0  0  0
    2.2700   -3.4791    0.0000 C   0  0  0  0  0  0  0  0  0  0  0  0
    4.0020   -3.4791    0.0000 C   0  0  0  0  0  0  0  0  0  0  0  0
    2.2700   -4.4791    0.0000 C   0  0  0  0  0  0  0  0  0  0  0  0
    4.0020   -4.4791    0.0000 C   0  0  0  0  0  0  0  0  0  0  0  0
    3.1360   -4.9791    0.0000 C   0  0  0  0  0  0  0  0  0  0  0  0
    3.1360   -1.9791    0.0000 C   0  0  0  0  0  0  0  0  0  0  0  0
    4.4374    2.6627    0.0000 C   0  0  0  0  0  0  0  0  0  0  0  0
    3.6942    3.3318    0.0000 C   0  0  0  0  0  0  0  0  0  0  0  0
    3.9021    4.3100    0.0000 C   0  0  0  0  0  0  0  0  0  0  0  0
    2.7431    3.0228    0.0000 C   0  0  0  0  0  0  0  0  0  0  0  0
    3.1590    4.9791    0.0000 C   0  0  0  0  0  0  0  0  0  0  0  0
    2.0000    3.6919    0.0000 C   0  0  0  0  0  0  0  0  0  0  0  0
    2.2079    4.6701    0.0000 C   0  0  0  0  0  0  0  0  0  0  0  0
    4.3481    0.3586    0.0000 H   0  0  0  0  0  0  0  0  0  0  0  0
    5.4716   -0.9228    0.0000 H   0  0  0  0  0  0  0  0  0  0  0  0
    6.2832   -0.7503    0.0000 H   0  0  0  0  0  0  0  0  0  0  0  0
    6.8656   -0.1034    0.0000 H   0  0  0  0  0  0  0  0  0  0  0  0
    6.9523    0.7217    0.0000 H   0  0  0  0  0  0  0  0  0  0  0  0
    6.5171    1.4755    0.0000 H   0  0  0  0  0  0  0  0  0  0  0  0
    5.7591    1.8130    0.0000 H   0  0  0  0  0  0  0  0  0  0  0  0
    3.7900    0.1035    0.0000 H   0  0  0  0  0  0  0  0  0  0  0  0
    3.3914   -0.5868    0.0000 H   0  0  0  0  0  0  0  0  0  0  0  0
    2.5991   -2.6691    0.0000 H   0  0  0  0  0  0  0  0  0  0  0  0
    3.6546    1.9168    0.0000 H   0  0  0  0  0  0  0  0  0  0  0  0
    3.9009    1.1588    0.0000 H   0  0  0  0  0  0  0  0  0  0  0  0
    2.0579   -2.8965    0.0000 H   0  0  0  0  0  0  0  0  0  0  0  0
    1.6594   -3.5868    0.0000 H   0  0  0  0  0  0  0  0  0  0  0  0
    4.6126   -3.5868    0.0000 H   0  0  0  0  0  0  0  0  0  0  0  0
    4.2141   -2.8965    0.0000 H   0  0  0  0  0  0  0  0  0  0  0  0
    1.6594   -4.3714    0.0000 H   0  0  0  0  0  0  0  0  0  0  0  0
    2.0579   -5.0617    0.0000 H   0  0  0  0  0  0  0  0  0  0  0  0
    4.2141   -5.0617    0.0000 H   0  0  0  0  0  0  0  0  0  0  0  0
    4.6126   -4.3714    0.0000 H   0  0  0  0  0  0  0  0  0  0  0  0
    2.7375   -5.4540    0.0000 H   0  0  0  0  0  0  0  0  0  0  0  0
    3.5345   -5.4540    0.0000 H   0  0  0  0  0  0  0  0  0  0  0  0
    4.5390   -1.7891    0.0000 H   0  0  0  0  0  0  0  0  0  0  0  0
    5.0122    2.4304    0.0000 H   0  0  0  0  0  0  0  0  0  0  0  0
    4.7659    3.1885    0.0000 H   0  0  0  0  0  0  0  0  0  0  0  0
    4.4918    4.5016    0.0000 H   0  0  0  0  0  0  0  0  0  0  0  0
    2.6142    2.4164    0.0000 H   0  0  0  0  0  0  0  0  0  0  0  0
    3.2879    5.5856    0.0000 H   0  0  0  0  0  0  0  0  0  0  0  0
    1.4103    3.5004    0.0000 H   0  0  0  0  0  0  0  0  0  0  0  0
    1.7472    5.0850    0.0000 H   0  0  0  0  0  0  0  0  0  0  0  0
  1 16  2  0  0  0  0
  2  4  1  0  0  0  0
  2  7  1  0  0  0  0
  2 10  1  0  0  0  0
  3  8  1  0  0  0  0
  3 16  1  0  0  0  0
  3 46  1  0  0  0  0
  4  5  1  0  0  0  0
  4  8  1  1  0  0  0
  4 24  1  0  0  0  0
  5  6  1  0  0  0  0
  5 25  1  0  0  0  0
  5 26  1  0  0  0  0
  6  7  1  0  0  0  0
  6 27  1  0  0  0  0
  6 28  1  0  0  0  0
  7 29  1  0  0  0  0
  7 30  1  0  0  0  0
  8 31  1  0  0  0  0
  8 32  1  0  0  0  0
  9 11  1  0  0  0  0
  9 12  1  0  0  0  0
  9 16  1  0  0  0  0
  9 33  1  0  0  0  0
 10 17  1  0  0  0  0
 10 34  1  0  0  0  0
 10 35  1  0  0  0  0
 11 13  1  0  0  0  0
 11 36  1  0  0  0  0
 11 37  1  0  0  0  0
 12 14  1  0  0  0  0
 12 38  1  0  0  0  0
 12 39  1  0  0  0  0
 13 15  1  0  0  0  0
 13 40  1  0  0  0  0
 13 41  1  0  0  0  0
 14 15  1  0  0  0  0
 14 42  1  0  0  0  0
 14 43  1  0  0  0  0
 15 44  1  0  0  0  0
 15 45  1  0  0  0  0
 17 18  1  0  0  0  0
 17 47  1  0  0  0  0
 17 48  1  0  0  0  0
 18 19  2  0  0  0  0
 18 20  1  0  0  0  0
 19 21  1  0  0  0  0
 19 49  1  0  0  0  0
 20 22  2  0  0  0  0
 20 50  1  0  0  0  0
 21 23  2  0  0  0  0
 21 51  1  0  0  0  0
 22 23  1  0  0  0  0
 22 52  1  0  0  0  0
 23 53  1  0  0  0  0
M  END
> <PUBCHEM_COMPOUND_CID>
10087023

> <PUBCHEM_COMPOUND_CANONICALIZED>
1

> <PUBCHEM_CACTVS_COMPLEXITY>
359

> <PUBCHEM_CACTVS_HBOND_ACCEPTOR>
2

> <PUBCHEM_CACTVS_HBOND_DONOR>
1

> <PUBCHEM_CACTVS_ROTATABLE_BOND>
6

> <PUBCHEM_CACTVS_SUBSKEYS>
AAADceB7IAAAAAAAAAAAAAAAAAAAAWAAAAAwYAAAAAAAAAABAAAAHgAQAAAADSjBmAQwAIPAAACIAiFSEAACAAAgAAAIiIEIAIgIYDKAkRGUIAAglgCIiAcYiICOAAAAAAAAAAAAAAAAAAAAAAAAAAAAAA==

> <PUBCHEM_IUPAC_OPENEYE_NAME>
N-[[(2S)-1-(2-phenylethyl)pyrrolidin-2-yl]methyl]cyclohexanecarboxamide

> <PUBCHEM_IUPAC_CAS_NAME>
N-[[(2S)-1-(2-phenylethyl)-2-pyrrolidinyl]methyl]cyclohexanecarboxamide

> <PUBCHEM_IUPAC_NAME_MARKUP>
<I>N</I>-[[(2<I>S</I>)-1-(2-phenylethyl)pyrrolidin-2-yl]methyl]cyclohexanecarboxamide

> <PUBCHEM_IUPAC_NAME>
N-[[(2S)-1-(2-phenylethyl)pyrrolidin-2-yl]methyl]cyclohexanecarboxamide

> <PUBCHEM_IUPAC_SYSTEMATIC_NAME>
N-[[(2S)-1-(2-phenylethyl)pyrrolidin-2-yl]methyl]cyclohexanecarboxamide

> <PUBCHEM_IUPAC_TRADITIONAL_NAME>
N-[[(2S)-1-phenethylpyrrolidin-2-yl]methyl]cyclohexanecarboxamide

> <PUBCHEM_IUPAC_INCHI>
InChI=1S/C20H30N2O/c23-20(18-10-5-2-6-11-18)21-16-19-12-7-14-22(19)15-13-17-8-3-1-4-9-17/h1,3-4,8-9,18-19H,2,5-7,10-16H2,(H,21,23)/t19-/m0/s1

> <PUBCHEM_IUPAC_INCHIKEY>
LJIIUDVZDYITID-IBGZPJMESA-N

> <PUBCHEM_XLOGP3_AA>
4.2

> <PUBCHEM_EXACT_MASS>
314.235813585

> <PUBCHEM_MOLECULAR_FORMULA>
C20H30N2O

> <PUBCHEM_MOLECULAR_WEIGHT>
314.5

> <PUBCHEM_OPENEYE_CAN_SMILES>
C1CCC(CC1)C(=O)NCC2CCCN2CCC3=CC=CC=C3

> <PUBCHEM_OPENEYE_ISO_SMILES>
C1CCC(CC1)C(=O)NC[C@@H]2CCCN2CCC3=CC=CC=C3

> <PUBCHEM_CACTVS_TPSA>
32.3

> <PUBCHEM_MONOISOTOPIC_WEIGHT>
314.235813585

> <PUBCHEM_TOTAL_CHARGE>
0

> <PUBCHEM_HEAVY_ATOM_COUNT>
23

> <PUBCHEM_ATOM_DEF_STEREO_COUNT>
1

> <PUBCHEM_ATOM_UDEF_STEREO_COUNT>
0

> <PUBCHEM_BOND_DEF_STEREO_COUNT>
0

> <PUBCHEM_BOND_UDEF_STEREO_COUNT>
0

> <PUBCHEM_ISOTOPIC_ATOM_COUNT>
0

> <PUBCHEM_COMPONENT_COUNT>
1

> <PUBCHEM_CACTVS_TAUTO_COUNT>
-1

> <PUBCHEM_COORDINATE_TYPE>
1
5
255

> <PUBCHEM_BONDANNOTATIONS>
18  19  8
18  20  8
19  21  8
20  22  8
21  23  8
22  23  8
4  8  5

$$$$
