122183780
  -OEChem-09292322362D

 62 65  0     1  0  0  0  0  0999 V2000
    2.0000   -0.4585    0.0000 F   0  0  0  0  0  0  0  0  0  0  0  0
   10.7263    0.5173    0.0000 O   0  0  0  0  0  0  0  0  0  0  0  0
   15.9224   -0.4827    0.0000 O   0  0  0  0  0  0  0  0  0  0  0  0
    7.2622    0.5173    0.0000 O   0  0  0  0  0  0  0  0  0  0  0  0
   12.4583   -0.4827    0.0000 N   0  0  0  0  0  0  0  0  0  0  0  0
   14.1904    0.5173    0.0000 N   0  0  0  0  0  0  0  0  0  0  0  0
    8.1282   -0.9827    0.0000 N   0  0  0  0  0  0  0  0  0  0  0  0
    5.5301   -2.4827    0.0000 N   0  0  0  0  0  0  0  0  0  0  0  0
   13.3244   -0.9827    0.0000 C   0  0  0  0  0  0  0  0  0  0  0  0
   12.4583    0.5173    0.0000 C   0  0  0  0  0  0  0  0  0  0  0  0
   14.1904   -0.4827    0.0000 C   0  0  0  0  0  0  0  0  0  0  0  0
   13.3244    1.0173    0.0000 C   0  0  0  0  0  0  0  0  0  0  0  0
   11.5923   -0.9827    0.0000 C   0  0  0  0  0  0  0  0  0  0  0  0
   10.7263   -0.4827    0.0000 C   0  0  3  0  0  0  0  0  0  0  0  0
    9.8602   -0.9827    0.0000 C   0  0  0  0  0  0  0  0  0  0  0  0
   15.0564    1.0173    0.0000 C   0  0  0  0  0  0  0  0  0  0  0  0
    8.9942   -0.4827    0.0000 C   0  0  0  0  0  0  0  0  0  0  0  0
   15.9224    0.5173    0.0000 C   0  0  0  0  0  0  0  0  0  0  0  0
   15.0564    2.0173    0.0000 C   0  0  0  0  0  0  0  0  0  0  0  0
   16.7885    1.0173    0.0000 C   0  0  0  0  0  0  0  0  0  0  0  0
   15.9224    2.5173    0.0000 C   0  0  0  0  0  0  0  0  0  0  0  0
   16.7885    2.0173    0.0000 C   0  0  0  0  0  0  0  0  0  0  0  0
    7.2622   -0.4827    0.0000 C   0  0  0  0  0  0  0  0  0  0  0  0
    6.3961   -0.9827    0.0000 C   0  0  0  0  0  0  0  0  0  0  0  0
   16.7885   -0.9827    0.0000 C   0  0  0  0  0  0  0  0  0  0  0  0
    5.5301   -0.4827    0.0000 C   0  0  0  0  0  0  0  0  0  0  0  0
    4.6641   -0.9827    0.0000 C   0  0  0  0  0  0  0  0  0  0  0  0
    6.3961   -1.9827    0.0000 C   0  0  0  0  0  0  0  0  0  0  0  0
    4.6641   -1.9827    0.0000 C   0  0  0  0  0  0  0  0  0  0  0  0
    3.7702   -0.4480    0.0000 C   0  0  0  0  0  0  0  0  0  0  0  0
    3.7702   -2.5173    0.0000 C   0  0  0  0  0  0  0  0  0  0  0  0
    2.8641   -0.9619    0.0000 C   0  0  0  0  0  0  0  0  0  0  0  0
    2.8641   -2.0035    0.0000 C   0  0  0  0  0  0  0  0  0  0  0  0
   12.9258   -1.4576    0.0000 H   0  0  0  0  0  0  0  0  0  0  0  0
   13.7229   -1.4576    0.0000 H   0  0  0  0  0  0  0  0  0  0  0  0
   12.2463    1.0999    0.0000 H   0  0  0  0  0  0  0  0  0  0  0  0
   11.8477    0.4097    0.0000 H   0  0  0  0  0  0  0  0  0  0  0  0
   14.4024   -1.0653    0.0000 H   0  0  0  0  0  0  0  0  0  0  0  0
   14.8010   -0.3750    0.0000 H   0  0  0  0  0  0  0  0  0  0  0  0
   13.7229    1.4923    0.0000 H   0  0  0  0  0  0  0  0  0  0  0  0
   12.9258    1.4923    0.0000 H   0  0  0  0  0  0  0  0  0  0  0  0
   11.1938   -1.4576    0.0000 H   0  0  0  0  0  0  0  0  0  0  0  0
   11.9908   -1.4576    0.0000 H   0  0  0  0  0  0  0  0  0  0  0  0
   10.1893   -0.1727    0.0000 H   0  0  0  0  0  0  0  0  0  0  0  0
    9.4617   -1.4576    0.0000 H   0  0  0  0  0  0  0  0  0  0  0  0
   10.2588   -1.4576    0.0000 H   0  0  0  0  0  0  0  0  0  0  0  0
    9.3928   -0.0077    0.0000 H   0  0  0  0  0  0  0  0  0  0  0  0
    8.5957   -0.0077    0.0000 H   0  0  0  0  0  0  0  0  0  0  0  0
   14.5195    2.3273    0.0000 H   0  0  0  0  0  0  0  0  0  0  0  0
   10.1893    0.8273    0.0000 H   0  0  0  0  0  0  0  0  0  0  0  0
    8.1282   -1.6027    0.0000 H   0  0  0  0  0  0  0  0  0  0  0  0
   17.3254    0.7073    0.0000 H   0  0  0  0  0  0  0  0  0  0  0  0
   15.9224    3.1373    0.0000 H   0  0  0  0  0  0  0  0  0  0  0  0
   17.3254    2.3273    0.0000 H   0  0  0  0  0  0  0  0  0  0  0  0
   16.4785   -1.5196    0.0000 H   0  0  0  0  0  0  0  0  0  0  0  0
   17.3254   -1.2927    0.0000 H   0  0  0  0  0  0  0  0  0  0  0  0
   17.0985   -0.4457    0.0000 H   0  0  0  0  0  0  0  0  0  0  0  0
    5.5301    0.1373    0.0000 H   0  0  0  0  0  0  0  0  0  0  0  0
    6.9331   -2.2927    0.0000 H   0  0  0  0  0  0  0  0  0  0  0  0
    3.7773    0.1720    0.0000 H   0  0  0  0  0  0  0  0  0  0  0  0
    3.7773   -3.1373    0.0000 H   0  0  0  0  0  0  0  0  0  0  0  0
    2.3284   -2.3156    0.0000 H   0  0  0  0  0  0  0  0  0  0  0  0
  1 32  1  0  0  0  0
  2 14  1  0  0  0  0
  2 50  1  0  0  0  0
  3 18  1  0  0  0  0
  3 25  1  0  0  0  0
  4 23  2  0  0  0  0
  5  9  1  0  0  0  0
  5 10  1  0  0  0  0
  5 13  1  0  0  0  0
  6 11  1  0  0  0  0
  6 12  1  0  0  0  0
  6 16  1  0  0  0  0
  7 17  1  0  0  0  0
  7 23  1  0  0  0  0
  7 51  1  0  0  0  0
  8 28  1  0  0  0  0
  8 29  2  0  0  0  0
  9 11  1  0  0  0  0
  9 34  1  0  0  0  0
  9 35  1  0  0  0  0
 10 12  1  0  0  0  0
 10 36  1  0  0  0  0
 10 37  1  0  0  0  0
 11 38  1  0  0  0  0
 11 39  1  0  0  0  0
 12 40  1  0  0  0  0
 12 41  1  0  0  0  0
 13 14  1  0  0  0  0
 13 42  1  0  0  0  0
 13 43  1  0  0  0  0
 14 15  1  0  0  0  0
 14 44  1  0  0  0  0
 15 17  1  0  0  0  0
 15 45  1  0  0  0  0
 15 46  1  0  0  0  0
 16 18  1  0  0  0  0
 16 19  2  0  0  0  0
 17 47  1  0  0  0  0
 17 48  1  0  0  0  0
 18 20  2  0  0  0  0
 19 21  1  0  0  0  0
 19 49  1  0  0  0  0
 20 22  1  0  0  0  0
 20 52  1  0  0  0  0
 21 22  2  0  0  0  0
 21 53  1  0  0  0  0
 22 54  1  0  0  0  0
 23 24  1  0  0  0  0
 24 26  1  0  0  0  0
 24 28  2  0  0  0  0
 25 55  1  0  0  0  0
 25 56  1  0  0  0  0
 25 57  1  0  0  0  0
 26 27  2  0  0  0  0
 26 58  1  0  0  0  0
 27 29  1  0  0  0  0
 27 30  1  0  0  0  0
 28 59  1  0  0  0  0
 29 31  1  0  0  0  0
 30 32  2  0  0  0  0
 30 60  1  0  0  0  0
 31 33  2  0  0  0  0
 31 61  1  0  0  0  0
 32 33  1  0  0  0  0
 33 62  1  0  0  0  0
M  END
> <PUBCHEM_COMPOUND_CID>
122183780

> <PUBCHEM_COMPOUND_CANONICALIZED>
1

> <PUBCHEM_CACTVS_COMPLEXITY>
619

> <PUBCHEM_CACTVS_HBOND_ACCEPTOR>
7

> <PUBCHEM_CACTVS_HBOND_DONOR>
2

> <PUBCHEM_CACTVS_ROTATABLE_BOND>
8

> <PUBCHEM_CACTVS_SUBSKEYS>
AAADceB7sQAAAAAAAAAAAAAAAAAAAAAAAAA8eIEAAAAAAACx9AAAHwAQCAAADBzhng4+xvPIFgCoAzV3VACCiCA1IiAI2KE/bNgOdvrE9ZuVcahm1hHY6ceYycCeAAAAAAACEAAAAAAAAAQgAAAAAAAAAA==

> <PUBCHEM_IUPAC_OPENEYE_NAME>
6-fluoro-N-[3-hydroxy-4-[4-(2-methoxyphenyl)piperazin-1-yl]butyl]quinoline-3-carboxamide

> <PUBCHEM_IUPAC_CAS_NAME>
6-fluoro-N-[3-hydroxy-4-[4-(2-methoxyphenyl)-1-piperazinyl]butyl]-3-quinolinecarboxamide

> <PUBCHEM_IUPAC_NAME_MARKUP>
6-fluoro-<I>N</I>-[3-hydroxy-4-[4-(2-methoxyphenyl)piperazin-1-yl]butyl]quinoline-3-carboxamide

> <PUBCHEM_IUPAC_NAME>
6-fluoro-N-[3-hydroxy-4-[4-(2-methoxyphenyl)piperazin-1-yl]butyl]quinoline-3-carboxamide

> <PUBCHEM_IUPAC_SYSTEMATIC_NAME>
6-fluoranyl-N-[4-[4-(2-methoxyphenyl)piperazin-1-yl]-3-oxidanyl-butyl]quinoline-3-carboxamide

> <PUBCHEM_IUPAC_TRADITIONAL_NAME>
6-fluoro-N-[3-hydroxy-4-[4-(2-methoxyphenyl)piperazino]butyl]quinoline-3-carboxamide

> <PUBCHEM_IUPAC_INCHI>
InChI=1S/C25H29FN4O3/c1-33-24-5-3-2-4-23(24)30-12-10-29(11-13-30)17-21(31)8-9-27-25(32)19-14-18-15-20(26)6-7-22(18)28-16-19/h2-7,14-16,21,31H,8-13,17H2,1H3,(H,27,32)

> <PUBCHEM_IUPAC_INCHIKEY>
MALMJWHGEVOLFD-UHFFFAOYSA-N

> <PUBCHEM_XLOGP3_AA>
2.9

> <PUBCHEM_EXACT_MASS>
452.22236896

> <PUBCHEM_MOLECULAR_FORMULA>
C25H29FN4O3

> <PUBCHEM_MOLECULAR_WEIGHT>
452.5

> <PUBCHEM_OPENEYE_CAN_SMILES>
COC1=CC=CC=C1N2CCN(CC2)CC(CCNC(=O)C3=CN=C4C=CC(=CC4=C3)F)O

> <PUBCHEM_OPENEYE_ISO_SMILES>
COC1=CC=CC=C1N2CCN(CC2)CC(CCNC(=O)C3=CN=C4C=CC(=CC4=C3)F)O

> <PUBCHEM_CACTVS_TPSA>
77.9

> <PUBCHEM_MONOISOTOPIC_WEIGHT>
452.22236896

> <PUBCHEM_TOTAL_CHARGE>
0

> <PUBCHEM_HEAVY_ATOM_COUNT>
33

> <PUBCHEM_ATOM_DEF_STEREO_COUNT>
0

> <PUBCHEM_ATOM_UDEF_STEREO_COUNT>
1

> <PUBCHEM_BOND_DEF_STEREO_COUNT>
0

> <PUBCHEM_BOND_UDEF_STEREO_COUNT>
0

> <PUBCHEM_ISOTOPIC_ATOM_COUNT>
0

> <PUBCHEM_COMPONENT_COUNT>
1

> <PUBCHEM_CACTVS_TAUTO_COUNT>
-1

> <PUBCHEM_COORDINATE_TYPE>
1
5
255

> <PUBCHEM_BONDANNOTATIONS>
16  18  8
16  19  8
18  20  8
19  21  8
14  2  3
20  22  8
21  22  8
24  26  8
24  28  8
26  27  8
27  29  8
27  30  8
29  31  8
30  32  8
31  33  8
32  33  8
8  28  8
8  29  8

$$$$
