118709174
  -OEChem-09292322352D

128133  0     1  0  0  0  0  0999 V2000
   16.0981    0.4330    0.0000 Cl  0  0  0  0  0  0  0  0  0  0  0  0
    2.5981   -0.4330    0.0000 Cl  0  0  0  0  0  0  0  0  0  0  0  0
   12.3660  -12.0311    0.0000 F   0  0  0  0  0  0  0  0  0  0  0  0
    2.8660   12.0311    0.0000 F   0  0  0  0  0  0  0  0  0  0  0  0
   13.5981   -2.1651    0.0000 O   0  0  0  0  0  0  0  0  0  0  0  0
    5.0981    2.1651    0.0000 O   0  0  0  0  0  0  0  0  0  0  0  0
   12.0981   -3.0311    0.0000 O   0  0  0  0  0  0  0  0  0  0  0  0
    6.5981    3.0311    0.0000 O   0  0  0  0  0  0  0  0  0  0  0  0
   11.5000   -7.5311    0.0000 O   0  0  0  0  0  0  0  0  0  0  0  0
    2.0000    7.5311    0.0000 O   0  0  0  0  0  0  0  0  0  0  0  0
   14.0981   -5.0311    0.0000 N   0  0  0  0  0  0  0  0  0  0  0  0
    4.5981    5.0311    0.0000 N   0  0  0  0  0  0  0  0  0  0  0  0
   10.5981   -0.4330    0.0000 N   0  0  3  0  0  0  0  0  0  0  0  0
    8.0981    0.4330    0.0000 N   0  0  3  0  0  0  0  0  0  0  0  0
   14.0981   -3.0311    0.0000 C   0  0  0  0  0  0  0  0  0  0  0  0
    4.5981    3.0311    0.0000 C   0  0  0  0  0  0  0  0  0  0  0  0
   14.9641   -3.5311    0.0000 C   0  0  0  0  0  0  0  0  0  0  0  0
   13.2321   -3.5311    0.0000 C   0  0  0  0  0  0  0  0  0  0  0  0
    3.7320    3.5311    0.0000 C   0  0  0  0  0  0  0  0  0  0  0  0
    5.4641    3.5311    0.0000 C   0  0  0  0  0  0  0  0  0  0  0  0
   14.9641   -4.5311    0.0000 C   0  0  0  0  0  0  0  0  0  0  0  0
   13.2321   -4.5311    0.0000 C   0  0  0  0  0  0  0  0  0  0  0  0
    3.7320    4.5311    0.0000 C   0  0  0  0  0  0  0  0  0  0  0  0
    5.4641    4.5311    0.0000 C   0  0  0  0  0  0  0  0  0  0  0  0
   14.5981   -2.1651    0.0000 C   0  0  0  0  0  0  0  0  0  0  0  0
    4.0981    2.1651    0.0000 C   0  0  0  0  0  0  0  0  0  0  0  0
   14.0981   -6.0311    0.0000 C   0  0  0  0  0  0  0  0  0  0  0  0
    4.5981    6.0311    0.0000 C   0  0  0  0  0  0  0  0  0  0  0  0
   13.2321   -6.5311    0.0000 C   0  0  0  0  0  0  0  0  0  0  0  0
    3.7320    6.5311    0.0000 C   0  0  0  0  0  0  0  0  0  0  0  0
   14.0981   -1.2990    0.0000 C   0  0  0  0  0  0  0  0  0  0  0  0
    3.0981    2.1651    0.0000 C   0  0  0  0  0  0  0  0  0  0  0  0
   15.5981   -2.1651    0.0000 C   0  0  0  0  0  0  0  0  0  0  0  0
    4.5981    1.2990    0.0000 C   0  0  0  0  0  0  0  0  0  0  0  0
   12.5981   -2.1651    0.0000 C   0  0  0  0  0  0  0  0  0  0  0  0
    6.0981    2.1651    0.0000 C   0  0  0  0  0  0  0  0  0  0  0  0
   13.2321   -7.5311    0.0000 C   0  0  0  0  0  0  0  0  0  0  0  0
    3.7320    7.5311    0.0000 C   0  0  0  0  0  0  0  0  0  0  0  0
   12.0981   -1.2990    0.0000 C   0  0  0  0  0  0  0  0  0  0  0  0
    6.5981    1.2990    0.0000 C   0  0  0  0  0  0  0  0  0  0  0  0
   14.5981   -0.4330    0.0000 C   0  0  0  0  0  0  0  0  0  0  0  0
    2.5981    1.2990    0.0000 C   0  0  0  0  0  0  0  0  0  0  0  0
   16.0981   -1.2990    0.0000 C   0  0  0  0  0  0  0  0  0  0  0  0
    4.0981    0.4330    0.0000 C   0  0  0  0  0  0  0  0  0  0  0  0
   11.0981   -1.2990    0.0000 C   0  0  0  0  0  0  0  0  0  0  0  0
    7.5981    1.2990    0.0000 C   0  0  0  0  0  0  0  0  0  0  0  0
   15.5981   -0.4330    0.0000 C   0  0  0  0  0  0  0  0  0  0  0  0
    3.0981    0.4330    0.0000 C   0  0  0  0  0  0  0  0  0  0  0  0
   12.3660   -8.0311    0.0000 C   0  0  0  0  0  0  0  0  0  0  0  0
    2.8660    8.0311    0.0000 C   0  0  0  0  0  0  0  0  0  0  0  0
    9.5981   -0.4330    0.0000 C   0  0  0  0  0  0  0  0  0  0  0  0
    9.0981    0.4330    0.0000 C   0  0  0  0  0  0  0  0  0  0  0  0
   12.3660   -9.0311    0.0000 C   0  0  0  0  0  0  0  0  0  0  0  0
    2.8660    9.0311    0.0000 C   0  0  0  0  0  0  0  0  0  0  0  0
   11.0981    0.4330    0.0000 C   0  0  0  0  0  0  0  0  0  0  0  0
    7.5981   -0.4330    0.0000 C   0  0  0  0  0  0  0  0  0  0  0  0
   13.2321   -9.5311    0.0000 C   0  0  0  0  0  0  0  0  0  0  0  0
    3.7320    9.5311    0.0000 C   0  0  0  0  0  0  0  0  0  0  0  0
   11.5000   -9.5311    0.0000 C   0  0  0  0  0  0  0  0  0  0  0  0
    2.0000    9.5311    0.0000 C   0  0  0  0  0  0  0  0  0  0  0  0
   13.2321  -10.5311    0.0000 C   0  0  0  0  0  0  0  0  0  0  0  0
    3.7320   10.5311    0.0000 C   0  0  0  0  0  0  0  0  0  0  0  0
   11.5000  -10.5311    0.0000 C   0  0  0  0  0  0  0  0  0  0  0  0
    2.0000   10.5311    0.0000 C   0  0  0  0  0  0  0  0  0  0  0  0
   12.3660  -11.0311    0.0000 C   0  0  0  0  0  0  0  0  0  0  0  0
    2.8660   11.0311    0.0000 C   0  0  0  0  0  0  0  0  0  0  0  0
   15.5747   -3.6388    0.0000 H   0  0  0  0  0  0  0  0  0  0  0  0
   15.1762   -2.9485    0.0000 H   0  0  0  0  0  0  0  0  0  0  0  0
   13.0200   -2.9485    0.0000 H   0  0  0  0  0  0  0  0  0  0  0  0
   12.6215   -3.6388    0.0000 H   0  0  0  0  0  0  0  0  0  0  0  0
    3.1215    3.6388    0.0000 H   0  0  0  0  0  0  0  0  0  0  0  0
    3.5200    2.9485    0.0000 H   0  0  0  0  0  0  0  0  0  0  0  0
    5.6762    2.9485    0.0000 H   0  0  0  0  0  0  0  0  0  0  0  0
    6.0747    3.6388    0.0000 H   0  0  0  0  0  0  0  0  0  0  0  0
   15.1762   -5.1137    0.0000 H   0  0  0  0  0  0  0  0  0  0  0  0
   15.5747   -4.4234    0.0000 H   0  0  0  0  0  0  0  0  0  0  0  0
   12.6215   -4.4234    0.0000 H   0  0  0  0  0  0  0  0  0  0  0  0
   13.0200   -5.1137    0.0000 H   0  0  0  0  0  0  0  0  0  0  0  0
    3.5200    5.1137    0.0000 H   0  0  0  0  0  0  0  0  0  0  0  0
    3.1215    4.4234    0.0000 H   0  0  0  0  0  0  0  0  0  0  0  0
    6.0747    4.4234    0.0000 H   0  0  0  0  0  0  0  0  0  0  0  0
    5.6762    5.1137    0.0000 H   0  0  0  0  0  0  0  0  0  0  0  0
   14.3101   -6.6137    0.0000 H   0  0  0  0  0  0  0  0  0  0  0  0
   14.7087   -5.9234    0.0000 H   0  0  0  0  0  0  0  0  0  0  0  0
    5.2087    5.9234    0.0000 H   0  0  0  0  0  0  0  0  0  0  0  0
    4.8101    6.6137    0.0000 H   0  0  0  0  0  0  0  0  0  0  0  0
   13.0200   -5.9485    0.0000 H   0  0  0  0  0  0  0  0  0  0  0  0
   12.6215   -6.6388    0.0000 H   0  0  0  0  0  0  0  0  0  0  0  0
    3.1215    6.6388    0.0000 H   0  0  0  0  0  0  0  0  0  0  0  0
    3.5200    5.9485    0.0000 H   0  0  0  0  0  0  0  0  0  0  0  0
   13.4781   -1.2990    0.0000 H   0  0  0  0  0  0  0  0  0  0  0  0
    2.7881    2.7020    0.0000 H   0  0  0  0  0  0  0  0  0  0  0  0
   15.9081   -2.7020    0.0000 H   0  0  0  0  0  0  0  0  0  0  0  0
    5.2181    1.2990    0.0000 H   0  0  0  0  0  0  0  0  0  0  0  0
   13.4441   -8.1137    0.0000 H   0  0  0  0  0  0  0  0  0  0  0  0
   13.8426   -7.4234    0.0000 H   0  0  0  0  0  0  0  0  0  0  0  0
    4.3426    7.4234    0.0000 H   0  0  0  0  0  0  0  0  0  0  0  0
    3.9441    8.1137    0.0000 H   0  0  0  0  0  0  0  0  0  0  0  0
   12.6807   -1.0870    0.0000 H   0  0  0  0  0  0  0  0  0  0  0  0
   11.9904   -0.6885    0.0000 H   0  0  0  0  0  0  0  0  0  0  0  0
    6.0155    1.0870    0.0000 H   0  0  0  0  0  0  0  0  0  0  0  0
    6.7057    0.6885    0.0000 H   0  0  0  0  0  0  0  0  0  0  0  0
   14.2881    0.1039    0.0000 H   0  0  0  0  0  0  0  0  0  0  0  0
    1.9781    1.2990    0.0000 H   0  0  0  0  0  0  0  0  0  0  0  0
   16.7181   -1.2990    0.0000 H   0  0  0  0  0  0  0  0  0  0  0  0
    4.4081   -0.1039    0.0000 H   0  0  0  0  0  0  0  0  0  0  0  0
   10.5155   -1.5111    0.0000 H   0  0  0  0  0  0  0  0  0  0  0  0
   11.2057   -1.9096    0.0000 H   0  0  0  0  0  0  0  0  0  0  0  0
    8.1807    1.5111    0.0000 H   0  0  0  0  0  0  0  0  0  0  0  0
    7.4904    1.9096    0.0000 H   0  0  0  0  0  0  0  0  0  0  0  0
    9.0155   -0.6451    0.0000 H   0  0  0  0  0  0  0  0  0  0  0  0
    9.7057   -1.0436    0.0000 H   0  0  0  0  0  0  0  0  0  0  0  0
    9.6807    0.6451    0.0000 H   0  0  0  0  0  0  0  0  0  0  0  0
    8.9904    1.0436    0.0000 H   0  0  0  0  0  0  0  0  0  0  0  0
   11.6350    0.1230    0.0000 H   0  0  0  0  0  0  0  0  0  0  0  0
   11.4081    0.9699    0.0000 H   0  0  0  0  0  0  0  0  0  0  0  0
   10.5611    0.7430    0.0000 H   0  0  0  0  0  0  0  0  0  0  0  0
    7.0611   -0.1230    0.0000 H   0  0  0  0  0  0  0  0  0  0  0  0
    7.2881   -0.9699    0.0000 H   0  0  0  0  0  0  0  0  0  0  0  0
    8.1350   -0.7430    0.0000 H   0  0  0  0  0  0  0  0  0  0  0  0
   13.7690   -9.2211    0.0000 H   0  0  0  0  0  0  0  0  0  0  0  0
    4.2690    9.2211    0.0000 H   0  0  0  0  0  0  0  0  0  0  0  0
   10.9631   -9.2211    0.0000 H   0  0  0  0  0  0  0  0  0  0  0  0
    1.4631    9.2211    0.0000 H   0  0  0  0  0  0  0  0  0  0  0  0
   13.7690  -10.8411    0.0000 H   0  0  0  0  0  0  0  0  0  0  0  0
    4.2690   10.8411    0.0000 H   0  0  0  0  0  0  0  0  0  0  0  0
   10.9631  -10.8411    0.0000 H   0  0  0  0  0  0  0  0  0  0  0  0
    1.4631   10.8411    0.0000 H   0  0  0  0  0  0  0  0  0  0  0  0
  1 47  1  0  0  0  0
  2 48  1  0  0  0  0
  3 65  1  0  0  0  0
  4 66  1  0  0  0  0
  5 15  1  0  0  0  0
  5 35  1  0  0  0  0
  6 16  1  0  0  0  0
  6 36  1  0  0  0  0
  7 35  2  0  0  0  0
  8 36  2  0  0  0  0
  9 49  2  0  0  0  0
 10 50  2  0  0  0  0
 11 21  1  0  0  0  0
 11 22  1  0  0  0  0
 11 27  1  0  0  0  0
 12 23  1  0  0  0  0
 12 24  1  0  0  0  0
 12 28  1  0  0  0  0
 13 45  1  0  0  0  0
 13 51  1  0  0  0  0
 13 55  1  0  0  0  0
 14 46  1  0  0  0  0
 14 52  1  0  0  0  0
 14 56  1  0  0  0  0
 15 17  1  0  0  0  0
 15 18  1  0  0  0  0
 15 25  1  0  0  0  0
 16 19  1  0  0  0  0
 16 20  1  0  0  0  0
 16 26  1  0  0  0  0
 17 21  1  0  0  0  0
 17 67  1  0  0  0  0
 17 68  1  0  0  0  0
 18 22  1  0  0  0  0
 18 69  1  0  0  0  0
 18 70  1  0  0  0  0
 19 23  1  0  0  0  0
 19 71  1  0  0  0  0
 19 72  1  0  0  0  0
 20 24  1  0  0  0  0
 20 73  1  0  0  0  0
 20 74  1  0  0  0  0
 21 75  1  0  0  0  0
 21 76  1  0  0  0  0
 22 77  1  0  0  0  0
 22 78  1  0  0  0  0
 23 79  1  0  0  0  0
 23 80  1  0  0  0  0
 24 81  1  0  0  0  0
 24 82  1  0  0  0  0
 25 31  2  0  0  0  0
 25 33  1  0  0  0  0
 26 32  2  0  0  0  0
 26 34  1  0  0  0  0
 27 29  1  0  0  0  0
 27 83  1  0  0  0  0
 27 84  1  0  0  0  0
 28 30  1  0  0  0  0
 28 85  1  0  0  0  0
 28 86  1  0  0  0  0
 29 37  1  0  0  0  0
 29 87  1  0  0  0  0
 29 88  1  0  0  0  0
 30 38  1  0  0  0  0
 30 89  1  0  0  0  0
 30 90  1  0  0  0  0
 31 41  1  0  0  0  0
 31 91  1  0  0  0  0
 32 42  1  0  0  0  0
 32 92  1  0  0  0  0
 33 43  2  0  0  0  0
 33 93  1  0  0  0  0
 34 44  2  0  0  0  0
 34 94  1  0  0  0  0
 35 39  1  0  0  0  0
 36 40  1  0  0  0  0
 37 49  1  0  0  0  0
 37 95  1  0  0  0  0
 37 96  1  0  0  0  0
 38 50  1  0  0  0  0
 38 97  1  0  0  0  0
 38 98  1  0  0  0  0
 39 45  1  0  0  0  0
 39 99  1  0  0  0  0
 39100  1  0  0  0  0
 40 46  1  0  0  0  0
 40101  1  0  0  0  0
 40102  1  0  0  0  0
 41 47  2  0  0  0  0
 41103  1  0  0  0  0
 42 48  2  0  0  0  0
 42104  1  0  0  0  0
 43 47  1  0  0  0  0
 43105  1  0  0  0  0
 44 48  1  0  0  0  0
 44106  1  0  0  0  0
 45107  1  0  0  0  0
 45108  1  0  0  0  0
 46109  1  0  0  0  0
 46110  1  0  0  0  0
 49 53  1  0  0  0  0
 50 54  1  0  0  0  0
 51 52  1  0  0  0  0
 51111  1  0  0  0  0
 51112  1  0  0  0  0
 52113  1  0  0  0  0
 52114  1  0  0  0  0
 53 57  2  0  0  0  0
 53 59  1  0  0  0  0
 54 58  2  0  0  0  0
 54 60  1  0  0  0  0
 55115  1  0  0  0  0
 55116  1  0  0  0  0
 55117  1  0  0  0  0
 56118  1  0  0  0  0
 56119  1  0  0  0  0
 56120  1  0  0  0  0
 57 61  1  0  0  0  0
 57121  1  0  0  0  0
 58 62  1  0  0  0  0
 58122  1  0  0  0  0
 59 63  2  0  0  0  0
 59123  1  0  0  0  0
 60 64  2  0  0  0  0
 60124  1  0  0  0  0
 61 65  2  0  0  0  0
 61125  1  0  0  0  0
 62 66  2  0  0  0  0
 62126  1  0  0  0  0
 63 65  1  0  0  0  0
 63127  1  0  0  0  0
 64 66  1  0  0  0  0
 64128  1  0  0  0  0
M  END
> <PUBCHEM_COMPOUND_CID>
118709174

> <PUBCHEM_COMPOUND_CANONICALIZED>
1

> <PUBCHEM_CACTVS_COMPLEXITY>
1390

> <PUBCHEM_CACTVS_HBOND_ACCEPTOR>
12

> <PUBCHEM_CACTVS_HBOND_DONOR>
0

> <PUBCHEM_CACTVS_ROTATABLE_BOND>
25

> <PUBCHEM_CACTVS_SUBSKEYS>
AAADcfB/uYAGAAAAAAAAAAAAAAAAAAAAAAA8eMGCAAAAAAABVAAAHwIAAAAADEbBmCwyCIMABACIAqDSCAACAAAkBQAIiAEICsgIZjqBtxiWMQAmwAGIqYecyOCOhAAAAAAAAAAIAAAAAAAAAAAAAAAAAA==

> <PUBCHEM_IUPAC_OPENEYE_NAME>
[4-(4-chlorophenyl)-1-[4-(4-fluorophenyl)-4-oxo-butyl]-4-piperidyl] 3-[2-[[3-[[4-(4-chlorophenyl)-1-[4-(4-fluorophenyl)-4-oxo-butyl]-4-piperidyl]oxy]-3-oxo-propyl]-methyl-amino]ethyl-methyl-amino]propanoate

> <PUBCHEM_IUPAC_CAS_NAME>
3-[2-[[3-[[4-(4-chlorophenyl)-1-[4-(4-fluorophenyl)-4-oxobutyl]-4-piperidinyl]oxy]-3-oxopropyl]-methylamino]ethyl-methylamino]propanoic acid [4-(4-chlorophenyl)-1-[4-(4-fluorophenyl)-4-oxobutyl]-4-piperidinyl] ester

> <PUBCHEM_IUPAC_NAME_MARKUP>
[4-(4-chlorophenyl)-1-[4-(4-fluorophenyl)-4-oxobutyl]piperidin-4-yl] 3-[2-[[3-[4-(4-chlorophenyl)-1-[4-(4-fluorophenyl)-4-oxobutyl]piperidin-4-yl]oxy-3-oxopropyl]-methylamino]ethyl-methylamino]propanoate

> <PUBCHEM_IUPAC_NAME>
[4-(4-chlorophenyl)-1-[4-(4-fluorophenyl)-4-oxobutyl]piperidin-4-yl] 3-[2-[[3-[4-(4-chlorophenyl)-1-[4-(4-fluorophenyl)-4-oxobutyl]piperidin-4-yl]oxy-3-oxopropyl]-methylamino]ethyl-methylamino]propanoate

> <PUBCHEM_IUPAC_SYSTEMATIC_NAME>
[4-(4-chlorophenyl)-1-[4-(4-fluorophenyl)-4-oxidanylidene-butyl]piperidin-4-yl] 3-[2-[[3-[4-(4-chlorophenyl)-1-[4-(4-fluorophenyl)-4-oxidanylidene-butyl]piperidin-4-yl]oxy-3-oxidanylidene-propyl]-methyl-amino]ethyl-methyl-amino]propanoate

> <PUBCHEM_IUPAC_TRADITIONAL_NAME>
3-[2-[[3-[[4-(4-chlorophenyl)-1-[4-(4-fluorophenyl)-4-keto-butyl]-4-piperidyl]oxy]-3-keto-propyl]-methyl-amino]ethyl-methyl-amino]propionic acid [4-(4-chlorophenyl)-1-[4-(4-fluorophenyl)-4-keto-butyl]-4-piperidyl] ester

> <PUBCHEM_IUPAC_INCHI>
InChI=1S/C52H62Cl2F2N4O6/c1-57(31-23-49(63)65-51(41-11-15-43(53)16-12-41)25-33-59(34-26-51)29-3-5-47(61)39-7-19-45(55)20-8-39)37-38-58(2)32-24-50(64)66-52(42-13-17-44(54)18-14-42)27-35-60(36-28-52)30-4-6-48(62)40-9-21-46(56)22-10-40/h7-22H,3-6,23-38H2,1-2H3

> <PUBCHEM_IUPAC_INCHIKEY>
YFXWJWJZNPPTDW-UHFFFAOYSA-N

> <PUBCHEM_XLOGP3_AA>
8.5

> <PUBCHEM_EXACT_MASS>
946.4014474

> <PUBCHEM_MOLECULAR_FORMULA>
C52H62Cl2F2N4O6

> <PUBCHEM_MOLECULAR_WEIGHT>
948.0

> <PUBCHEM_OPENEYE_CAN_SMILES>
CN(CCC(=O)OC1(CCN(CC1)CCCC(=O)C2=CC=C(C=C2)F)C3=CC=C(C=C3)Cl)CCN(C)CCC(=O)OC4(CCN(CC4)CCCC(=O)C5=CC=C(C=C5)F)C6=CC=C(C=C6)Cl

> <PUBCHEM_OPENEYE_ISO_SMILES>
CN(CCC(=O)OC1(CCN(CC1)CCCC(=O)C2=CC=C(C=C2)F)C3=CC=C(C=C3)Cl)CCN(C)CCC(=O)OC4(CCN(CC4)CCCC(=O)C5=CC=C(C=C5)F)C6=CC=C(C=C6)Cl

> <PUBCHEM_CACTVS_TPSA>
99.7

> <PUBCHEM_MONOISOTOPIC_WEIGHT>
946.4014474

> <PUBCHEM_TOTAL_CHARGE>
0

> <PUBCHEM_HEAVY_ATOM_COUNT>
66

> <PUBCHEM_ATOM_DEF_STEREO_COUNT>
0

> <PUBCHEM_ATOM_UDEF_STEREO_COUNT>
0

> <PUBCHEM_BOND_DEF_STEREO_COUNT>
0

> <PUBCHEM_BOND_UDEF_STEREO_COUNT>
0

> <PUBCHEM_ISOTOPIC_ATOM_COUNT>
0

> <PUBCHEM_COMPONENT_COUNT>
1

> <PUBCHEM_CACTVS_TAUTO_COUNT>
-1

> <PUBCHEM_COORDINATE_TYPE>
1
5
255

> <PUBCHEM_BONDANNOTATIONS>
25  31  8
25  33  8
26  32  8
26  34  8
31  41  8
32  42  8
33  43  8
34  44  8
41  47  8
42  48  8
43  47  8
44  48  8
53  57  8
53  59  8
54  58  8
54  60  8
57  61  8
58  62  8
59  63  8
60  64  8
61  65  8
62  66  8
63  65  8
64  66  8

$$$$
