155520552
  -OEChem-09292322412D

 65 68  0     1  0  0  0  0  0999 V2000
    3.6165   10.2992    0.0000 Cl  0  0  0  0  0  0  0  0  0  0  0  0
    2.5410   11.9854    0.0000 Cl  0  0  0  0  0  0  0  0  0  0  0  0
    5.3396   13.9954    0.0000 Cl  0  0  0  0  0  0  0  0  0  0  0  0
    9.9111    3.5789    0.0000 S   0  0  0  0  0  0  0  0  0  0  0  0
    9.8899    4.5787    0.0000 O   0  0  0  0  0  0  0  0  0  0  0  0
   10.8554    3.9080    0.0000 O   0  0  0  0  0  0  0  0  0  0  0  0
    3.7694    6.8385    0.0000 N   0  0  0  0  0  0  0  0  0  0  0  0
    8.9175    3.5985    0.0000 N   0  0  3  0  0  0  0  0  0  0  0  0
    2.6939    8.5247    0.0000 N   0  0  0  0  0  0  0  0  0  0  0  0
    4.3072    5.9954    0.0000 C   0  0  0  0  0  0  0  0  0  0  0  0
    4.2307    7.7257    0.0000 C   0  0  0  0  0  0  0  0  0  0  0  0
    2.7704    6.7943    0.0000 C   0  0  0  0  0  0  0  0  0  0  0  0
    5.3062    6.0395    0.0000 C   0  0  0  0  0  0  0  0  0  0  0  0
    3.6929    8.5688    0.0000 C   0  0  0  0  0  0  0  0  0  0  0  0
    2.2326    7.6374    0.0000 C   0  0  0  0  0  0  0  0  0  0  0  0
    5.8439    5.1964    0.0000 C   0  0  0  0  0  0  0  0  0  0  0  0
    6.8430    5.2406    0.0000 C   0  0  0  0  0  0  0  0  0  0  0  0
    8.3797    4.4416    0.0000 C   0  0  0  0  0  0  0  0  0  0  0  0
    7.3807    4.3975    0.0000 C   0  0  0  0  0  0  0  0  0  0  0  0
    8.5162    2.6893    0.0000 C   0  0  0  0  0  0  0  0  0  0  0  0
    9.4102    2.1546    0.0000 C   0  0  0  0  0  0  0  0  0  0  0  0
   10.2762    2.6546    0.0000 C   0  0  0  0  0  0  0  0  0  0  0  0
    2.1562    9.3678    0.0000 C   0  0  0  0  0  0  0  0  0  0  0  0
    9.4102    1.1546    0.0000 C   0  0  0  0  0  0  0  0  0  0  0  0
    7.6102    2.1754    0.0000 C   0  0  0  0  0  0  0  0  0  0  0  0
   11.1422    2.1546    0.0000 C   0  0  0  0  0  0  0  0  0  0  0  0
    8.5162    0.6200    0.0000 C   0  0  0  0  0  0  0  0  0  0  0  0
   10.2762    0.6546    0.0000 C   0  0  0  0  0  0  0  0  0  0  0  0
    7.6102    1.1338    0.0000 C   0  0  0  0  0  0  0  0  0  0  0  0
   11.1422    1.1546    0.0000 C   0  0  0  0  0  0  0  0  0  0  0  0
    2.6174   10.2551    0.0000 C   0  0  0  0  0  0  0  0  0  0  0  0
    1.1571    9.3237    0.0000 C   0  0  0  0  0  0  0  0  0  0  0  0
    2.0797   11.0982    0.0000 C   0  0  0  0  0  0  0  0  0  0  0  0
    0.6194   10.1668    0.0000 C   0  0  0  0  0  0  0  0  0  0  0  0
    1.0807   11.0540    0.0000 C   0  0  0  0  0  0  0  0  0  0  0  0
    3.7345    5.7578    0.0000 H   0  0  0  0  0  0  0  0  0  0  0  0
    4.4417    5.3902    0.0000 H   0  0  0  0  0  0  0  0  0  0  0  0
    4.7228    7.3486    0.0000 H   0  0  0  0  0  0  0  0  0  0  0  0
    4.6876    8.1448    0.0000 H   0  0  0  0  0  0  0  0  0  0  0  0
    2.1977    6.5568    0.0000 H   0  0  0  0  0  0  0  0  0  0  0  0
    2.9049    6.1891    0.0000 H   0  0  0  0  0  0  0  0  0  0  0  0
    5.8789    6.2771    0.0000 H   0  0  0  0  0  0  0  0  0  0  0  0
    5.1717    6.6448    0.0000 H   0  0  0  0  0  0  0  0  0  0  0  0
    4.2656    8.8064    0.0000 H   0  0  0  0  0  0  0  0  0  0  0  0
    3.5584    9.1741    0.0000 H   0  0  0  0  0  0  0  0  0  0  0  0
    1.7406    8.0146    0.0000 H   0  0  0  0  0  0  0  0  0  0  0  0
    1.7757    7.2183    0.0000 H   0  0  0  0  0  0  0  0  0  0  0  0
    5.2712    4.9589    0.0000 H   0  0  0  0  0  0  0  0  0  0  0  0
    5.9784    4.5912    0.0000 H   0  0  0  0  0  0  0  0  0  0  0  0
    7.4156    5.4781    0.0000 H   0  0  0  0  0  0  0  0  0  0  0  0
    6.7084    5.8458    0.0000 H   0  0  0  0  0  0  0  0  0  0  0  0
    8.9524    4.6792    0.0000 H   0  0  0  0  0  0  0  0  0  0  0  0
    8.2452    5.0468    0.0000 H   0  0  0  0  0  0  0  0  0  0  0  0
    6.8080    4.1599    0.0000 H   0  0  0  0  0  0  0  0  0  0  0  0
    7.5152    3.7922    0.0000 H   0  0  0  0  0  0  0  0  0  0  0  0
    7.0744    2.4875    0.0000 H   0  0  0  0  0  0  0  0  0  0  0  0
   11.6792    2.4646    0.0000 H   0  0  0  0  0  0  0  0  0  0  0  0
    8.5234    0.0000    0.0000 H   0  0  0  0  0  0  0  0  0  0  0  0
   10.2762    0.0346    0.0000 H   0  0  0  0  0  0  0  0  0  0  0  0
    7.0744    0.8217    0.0000 H   0  0  0  0  0  0  0  0  0  0  0  0
   11.6792    0.8446    0.0000 H   0  0  0  0  0  0  0  0  0  0  0  0
    0.8711    8.7736    0.0000 H   0  0  0  0  0  0  0  0  0  0  0  0
    0.0000   10.1394    0.0000 H   0  0  0  0  0  0  0  0  0  0  0  0
    0.7473   11.5767    0.0000 H   0  0  0  0  0  0  0  0  0  0  0  0
    6.3396   13.9954    0.0000 H   0  0  0  0  0  0  0  0  0  0  0  0
  1 31  1  0  0  0  0
  2 33  1  0  0  0  0
  3 65  1  0  0  0  0
  4  5  2  0  0  0  0
  4  6  2  0  0  0  0
  4  8  1  0  0  0  0
  4 22  1  0  0  0  0
  7 10  1  0  0  0  0
  7 11  1  0  0  0  0
  7 12  1  0  0  0  0
  8 18  1  0  0  0  0
  8 20  1  0  0  0  0
  9 14  1  0  0  0  0
  9 15  1  0  0  0  0
  9 23  1  0  0  0  0
 10 13  1  0  0  0  0
 10 36  1  0  0  0  0
 10 37  1  0  0  0  0
 11 14  1  0  0  0  0
 11 38  1  0  0  0  0
 11 39  1  0  0  0  0
 12 15  1  0  0  0  0
 12 40  1  0  0  0  0
 12 41  1  0  0  0  0
 13 16  1  0  0  0  0
 13 42  1  0  0  0  0
 13 43  1  0  0  0  0
 14 44  1  0  0  0  0
 14 45  1  0  0  0  0
 15 46  1  0  0  0  0
 15 47  1  0  0  0  0
 16 17  1  0  0  0  0
 16 48  1  0  0  0  0
 16 49  1  0  0  0  0
 17 19  1  0  0  0  0
 17 50  1  0  0  0  0
 17 51  1  0  0  0  0
 18 19  1  0  0  0  0
 18 52  1  0  0  0  0
 18 53  1  0  0  0  0
 19 54  1  0  0  0  0
 19 55  1  0  0  0  0
 20 21  1  0  0  0  0
 20 25  2  0  0  0  0
 21 22  1  0  0  0  0
 21 24  2  0  0  0  0
 22 26  2  0  0  0  0
 23 31  2  0  0  0  0
 23 32  1  0  0  0  0
 24 27  1  0  0  0  0
 24 28  1  0  0  0  0
 25 29  1  0  0  0  0
 25 56  1  0  0  0  0
 26 30  1  0  0  0  0
 26 57  1  0  0  0  0
 27 29  2  0  0  0  0
 27 58  1  0  0  0  0
 28 30  2  0  0  0  0
 28 59  1  0  0  0  0
 29 60  1  0  0  0  0
 30 61  1  0  0  0  0
 31 33  1  0  0  0  0
 32 34  2  0  0  0  0
 32 62  1  0  0  0  0
 33 35  2  0  0  0  0
 34 35  1  0  0  0  0
 34 63  1  0  0  0  0
 35 64  1  0  0  0  0
M  END
> <PUBCHEM_COMPOUND_CID>
155520552

> <PUBCHEM_COMPOUND_CANONICALIZED>
1

> <PUBCHEM_CACTVS_COMPLEXITY>
771

> <PUBCHEM_CACTVS_HBOND_ACCEPTOR>
5

> <PUBCHEM_CACTVS_HBOND_DONOR>
1

> <PUBCHEM_CACTVS_ROTATABLE_BOND>
8

> <PUBCHEM_CACTVS_SUBSKEYS>
AAADceB7MABGAAAAAAAAAAAAAAAAAWAAAAA8YMEAAAAAAFjBVAAAHAYAQAAADArBWCQwwcMAAAKAAiRCQHDCABAhBwAIilgIZogIYCLBk5HUIAxggADIyAcQgIAOgAAAwAIWABQAAAGABCwAKAAAAAAAAA==

> <PUBCHEM_IUPAC_OPENEYE_NAME>
3-[6-[4-(2,3-dichlorophenyl)piperazin-1-yl]hexyl]-2lambda6-thia-3-azatricyclo[6.3.1.04,12]dodeca-1(11),4,6,8(12),9-pentaene 2,2-dioxide;hydrochloride

> <PUBCHEM_IUPAC_CAS_NAME>
3-[6-[4-(2,3-dichlorophenyl)-1-piperazinyl]hexyl]-2lambda6-thia-3-azatricyclo[6.3.1.04,12]dodeca-1(11),4,6,8(12),9-pentaene 2,2-dioxide;hydrochloride

> <PUBCHEM_IUPAC_NAME_MARKUP>
3-[6-[4-(2,3-dichlorophenyl)piperazin-1-yl]hexyl]-2&lambda;<SUP>6</SUP>-thia-3-azatricyclo[6.3.1.0<SUP>4,12</SUP>]dodeca-1(11),4,6,8(12),9-pentaene 2,2-dioxide;hydrochloride

> <PUBCHEM_IUPAC_NAME>
3-[6-[4-(2,3-dichlorophenyl)piperazin-1-yl]hexyl]-2lambda6-thia-3-azatricyclo[6.3.1.04,12]dodeca-1(11),4,6,8(12),9-pentaene 2,2-dioxide;hydrochloride

> <PUBCHEM_IUPAC_SYSTEMATIC_NAME>
3-[6-[4-[2,3-bis(chloranyl)phenyl]piperazin-1-yl]hexyl]-2lambda6-thia-3-azatricyclo[6.3.1.04,12]dodeca-1(11),4,6,8(12),9-pentaene 2,2-dioxide;hydrochloride

> <PUBCHEM_IUPAC_TRADITIONAL_NAME>
3-[6-[4-(2,3-dichlorophenyl)piperazino]hexyl]-2lambda6-thia-3-azatricyclo[6.3.1.04,12]dodeca-1(11),4,6,8(12),9-pentaene 2,2-dioxide;hydrochloride

> <PUBCHEM_IUPAC_INCHI>
InChI=1S/C26H29Cl2N3O2S.ClH/c27-21-10-7-12-23(26(21)28)30-18-16-29(17-19-30)14-3-1-2-4-15-31-22-11-5-8-20-9-6-13-24(25(20)22)34(31,32)33;/h5-13H,1-4,14-19H2;1H

> <PUBCHEM_IUPAC_INCHIKEY>
FPZWJZXIUNZYHP-UHFFFAOYSA-N

> <PUBCHEM_EXACT_MASS>
553.112431

> <PUBCHEM_MOLECULAR_FORMULA>
C26H30Cl3N3O2S

> <PUBCHEM_MOLECULAR_WEIGHT>
555.0

> <PUBCHEM_OPENEYE_CAN_SMILES>
C1CN(CCN1CCCCCCN2C3=CC=CC4=C3C(=CC=C4)S2(=O)=O)C5=C(C(=CC=C5)Cl)Cl.Cl

> <PUBCHEM_OPENEYE_ISO_SMILES>
C1CN(CCN1CCCCCCN2C3=CC=CC4=C3C(=CC=C4)S2(=O)=O)C5=C(C(=CC=C5)Cl)Cl.Cl

> <PUBCHEM_CACTVS_TPSA>
52.2

> <PUBCHEM_MONOISOTOPIC_WEIGHT>
553.112431

> <PUBCHEM_TOTAL_CHARGE>
0

> <PUBCHEM_HEAVY_ATOM_COUNT>
35

> <PUBCHEM_ATOM_DEF_STEREO_COUNT>
0

> <PUBCHEM_ATOM_UDEF_STEREO_COUNT>
0

> <PUBCHEM_BOND_DEF_STEREO_COUNT>
0

> <PUBCHEM_BOND_UDEF_STEREO_COUNT>
0

> <PUBCHEM_ISOTOPIC_ATOM_COUNT>
0

> <PUBCHEM_COMPONENT_COUNT>
2

> <PUBCHEM_CACTVS_TAUTO_COUNT>
-1

> <PUBCHEM_COORDINATE_TYPE>
1
5
255

> <PUBCHEM_BONDANNOTATIONS>
20  21  8
20  25  8
21  22  8
21  24  8
22  26  8
23  31  8
23  32  8
24  27  8
24  28  8
25  29  8
26  30  8
27  29  8
28  30  8
31  33  8
32  34  8
33  35  8
34  35  8

$$$$
