135524323
  -OEChem-09292322292D

 54 57  0     0  0  0  0  0  0999 V2000
   11.4939    1.0000    0.0000 O   0  0  0  0  0  0  0  0  0  0  0  0
    4.5981    0.4019    0.0000 O   0  0  0  0  0  0  0  0  0  0  0  0
    8.4939   -0.7321    0.0000 N   0  0  0  0  0  0  0  0  0  0  0  0
    9.4939    1.0000    0.0000 N   0  0  0  0  0  0  0  0  0  0  0  0
    6.4103   -2.4028    0.0000 N   0  0  0  0  0  0  0  0  0  0  0  0
    4.5981   -2.5981    0.0000 N   0  0  0  0  0  0  0  0  0  0  0  0
    3.7320   -1.0981    0.0000 N   0  0  0  0  0  0  0  0  0  0  0  0
    2.8660   -2.5981    0.0000 N   0  0  0  0  0  0  0  0  0  0  0  0
    7.9939    0.1340    0.0000 C   0  0  0  0  0  0  0  0  0  0  0  0
    9.4939   -0.7321    0.0000 C   0  0  0  0  0  0  0  0  0  0  0  0
    8.4939    1.0000    0.0000 C   0  0  0  0  0  0  0  0  0  0  0  0
    9.9939    0.1340    0.0000 C   0  0  0  0  0  0  0  0  0  0  0  0
    7.9939   -1.5981    0.0000 C   0  0  0  0  0  0  0  0  0  0  0  0
    6.9939   -1.5981    0.0000 C   0  0  0  0  0  0  0  0  0  0  0  0
    9.9939    1.8660    0.0000 C   0  0  0  0  0  0  0  0  0  0  0  0
    6.4103   -0.7933    0.0000 C   0  0  0  0  0  0  0  0  0  0  0  0
    5.4641   -1.0981    0.0000 C   0  0  0  0  0  0  0  0  0  0  0  0
    5.4641   -2.0981    0.0000 C   0  0  0  0  0  0  0  0  0  0  0  0
   10.9939    1.8660    0.0000 C   0  0  0  0  0  0  0  0  0  0  0  0
    9.4939    2.7320    0.0000 C   0  0  0  0  0  0  0  0  0  0  0  0
    4.5981   -0.5981    0.0000 C   0  0  0  0  0  0  0  0  0  0  0  0
   11.4939    2.7320    0.0000 C   0  0  0  0  0  0  0  0  0  0  0  0
    9.9939    3.5981    0.0000 C   0  0  0  0  0  0  0  0  0  0  0  0
    3.7320   -2.0981    0.0000 C   0  0  0  0  0  0  0  0  0  0  0  0
   10.9939    3.5981    0.0000 C   0  0  0  0  0  0  0  0  0  0  0  0
   12.4939    1.0000    0.0000 C   0  0  0  0  0  0  0  0  0  0  0  0
    2.8660   -3.5981    0.0000 C   0  0  0  0  0  0  0  0  0  0  0  0
    2.0000   -2.0981    0.0000 C   0  0  0  0  0  0  0  0  0  0  0  0
    7.5190    0.5325    0.0000 H   0  0  0  0  0  0  0  0  0  0  0  0
    7.5190   -0.2646    0.0000 H   0  0  0  0  0  0  0  0  0  0  0  0
    9.3863   -1.3426    0.0000 H   0  0  0  0  0  0  0  0  0  0  0  0
   10.0765   -0.9441    0.0000 H   0  0  0  0  0  0  0  0  0  0  0  0
    8.6016    1.6106    0.0000 H   0  0  0  0  0  0  0  0  0  0  0  0
    7.9113    1.2120    0.0000 H   0  0  0  0  0  0  0  0  0  0  0  0
   10.4689   -0.2646    0.0000 H   0  0  0  0  0  0  0  0  0  0  0  0
   10.4689    0.5325    0.0000 H   0  0  0  0  0  0  0  0  0  0  0  0
    7.8863   -2.2087    0.0000 H   0  0  0  0  0  0  0  0  0  0  0  0
    8.5765   -1.8101    0.0000 H   0  0  0  0  0  0  0  0  0  0  0  0
    6.6029   -0.2040    0.0000 H   0  0  0  0  0  0  0  0  0  0  0  0
    6.6029   -2.9921    0.0000 H   0  0  0  0  0  0  0  0  0  0  0  0
    8.8739    2.7320    0.0000 H   0  0  0  0  0  0  0  0  0  0  0  0
   12.1139    2.7320    0.0000 H   0  0  0  0  0  0  0  0  0  0  0  0
    9.6839    4.1350    0.0000 H   0  0  0  0  0  0  0  0  0  0  0  0
   11.3039    4.1350    0.0000 H   0  0  0  0  0  0  0  0  0  0  0  0
    3.1951   -0.7881    0.0000 H   0  0  0  0  0  0  0  0  0  0  0  0
   12.4939    0.3800    0.0000 H   0  0  0  0  0  0  0  0  0  0  0  0
   13.1139    1.0000    0.0000 H   0  0  0  0  0  0  0  0  0  0  0  0
   12.4939    1.6200    0.0000 H   0  0  0  0  0  0  0  0  0  0  0  0
    2.2460   -3.5981    0.0000 H   0  0  0  0  0  0  0  0  0  0  0  0
    2.8660   -4.2181    0.0000 H   0  0  0  0  0  0  0  0  0  0  0  0
    3.4860   -3.5981    0.0000 H   0  0  0  0  0  0  0  0  0  0  0  0
    2.3100   -1.5611    0.0000 H   0  0  0  0  0  0  0  0  0  0  0  0
    1.4631   -1.7881    0.0000 H   0  0  0  0  0  0  0  0  0  0  0  0
    1.6900   -2.6350    0.0000 H   0  0  0  0  0  0  0  0  0  0  0  0
  1 19  1  0  0  0  0
  1 26  1  0  0  0  0
  2 21  2  0  0  0  0
  3  9  1  0  0  0  0
  3 10  1  0  0  0  0
  3 13  1  0  0  0  0
  4 11  1  0  0  0  0
  4 12  1  0  0  0  0
  4 15  1  0  0  0  0
  5 14  1  0  0  0  0
  5 18  1  0  0  0  0
  5 40  1  0  0  0  0
  6 18  1  0  0  0  0
  6 24  2  0  0  0  0
  7 21  1  0  0  0  0
  7 24  1  0  0  0  0
  7 45  1  0  0  0  0
  8 24  1  0  0  0  0
  8 27  1  0  0  0  0
  8 28  1  0  0  0  0
  9 11  1  0  0  0  0
  9 29  1  0  0  0  0
  9 30  1  0  0  0  0
 10 12  1  0  0  0  0
 10 31  1  0  0  0  0
 10 32  1  0  0  0  0
 11 33  1  0  0  0  0
 11 34  1  0  0  0  0
 12 35  1  0  0  0  0
 12 36  1  0  0  0  0
 13 14  1  0  0  0  0
 13 37  1  0  0  0  0
 13 38  1  0  0  0  0
 14 16  2  0  0  0  0
 15 19  1  0  0  0  0
 15 20  2  0  0  0  0
 16 17  1  0  0  0  0
 16 39  1  0  0  0  0
 17 18  2  0  0  0  0
 17 21  1  0  0  0  0
 19 22  2  0  0  0  0
 20 23  1  0  0  0  0
 20 41  1  0  0  0  0
 22 25  1  0  0  0  0
 22 42  1  0  0  0  0
 23 25  2  0  0  0  0
 23 43  1  0  0  0  0
 25 44  1  0  0  0  0
 26 46  1  0  0  0  0
 26 47  1  0  0  0  0
 26 48  1  0  0  0  0
 27 49  1  0  0  0  0
 27 50  1  0  0  0  0
 27 51  1  0  0  0  0
 28 52  1  0  0  0  0
 28 53  1  0  0  0  0
 28 54  1  0  0  0  0
M  END
> <PUBCHEM_COMPOUND_CID>
135524323

> <PUBCHEM_COMPOUND_CANONICALIZED>
1

> <PUBCHEM_CACTVS_COMPLEXITY>
589

> <PUBCHEM_CACTVS_HBOND_ACCEPTOR>
5

> <PUBCHEM_CACTVS_HBOND_DONOR>
2

> <PUBCHEM_CACTVS_ROTATABLE_BOND>
5

> <PUBCHEM_CACTVS_SUBSKEYS>
AAADceB7sAAAAAAAAAAAAAAAAAAAAWAAAAA8QIAAAAAAAEABwAAAHgAQAAAADAzBngYz9pPJlACoAydydACCiCmlIiAJmSE/bNiOZvrE/ZuVMahs0RPY6eecQQAMAAAAAAAAEAAAAAAAAAAgAAAAAAAAAA==

> <PUBCHEM_IUPAC_OPENEYE_NAME>
2-(dimethylamino)-6-[[4-(2-methoxyphenyl)piperazin-1-yl]methyl]-3,7-dihydropyrrolo[2,3-d]pyrimidin-4-one

> <PUBCHEM_IUPAC_CAS_NAME>
2-(dimethylamino)-6-[[4-(2-methoxyphenyl)-1-piperazinyl]methyl]-3,7-dihydropyrrolo[2,3-d]pyrimidin-4-one

> <PUBCHEM_IUPAC_NAME_MARKUP>
2-(dimethylamino)-6-[[4-(2-methoxyphenyl)piperazin-1-yl]methyl]-3,7-dihydropyrrolo[2,3-d]pyrimidin-4-one

> <PUBCHEM_IUPAC_NAME>
2-(dimethylamino)-6-[[4-(2-methoxyphenyl)piperazin-1-yl]methyl]-3,7-dihydropyrrolo[2,3-d]pyrimidin-4-one

> <PUBCHEM_IUPAC_SYSTEMATIC_NAME>
2-(dimethylamino)-6-[[4-(2-methoxyphenyl)piperazin-1-yl]methyl]-3,7-dihydropyrrolo[2,3-d]pyrimidin-4-one

> <PUBCHEM_IUPAC_TRADITIONAL_NAME>
2-(dimethylamino)-6-[[4-(2-methoxyphenyl)piperazino]methyl]-3,7-dihydropyrrolo[2,3-d]pyrimidin-4-one

> <PUBCHEM_IUPAC_INCHI>
InChI=1S/C20H26N6O2/c1-24(2)20-22-18-15(19(27)23-20)12-14(21-18)13-25-8-10-26(11-9-25)16-6-4-5-7-17(16)28-3/h4-7,12H,8-11,13H2,1-3H3,(H2,21,22,23,27)

> <PUBCHEM_IUPAC_INCHIKEY>
OIAXKPXJNIOPBF-UHFFFAOYSA-N

> <PUBCHEM_XLOGP3_AA>
1.3

> <PUBCHEM_EXACT_MASS>
382.21172409

> <PUBCHEM_MOLECULAR_FORMULA>
C20H26N6O2

> <PUBCHEM_MOLECULAR_WEIGHT>
382.5

> <PUBCHEM_OPENEYE_CAN_SMILES>
CN(C)C1=NC2=C(C=C(N2)CN3CCN(CC3)C4=CC=CC=C4OC)C(=O)N1

> <PUBCHEM_OPENEYE_ISO_SMILES>
CN(C)C1=NC2=C(C=C(N2)CN3CCN(CC3)C4=CC=CC=C4OC)C(=O)N1

> <PUBCHEM_CACTVS_TPSA>
76.2

> <PUBCHEM_MONOISOTOPIC_WEIGHT>
382.21172409

> <PUBCHEM_TOTAL_CHARGE>
0

> <PUBCHEM_HEAVY_ATOM_COUNT>
28

> <PUBCHEM_ATOM_DEF_STEREO_COUNT>
0

> <PUBCHEM_ATOM_UDEF_STEREO_COUNT>
0

> <PUBCHEM_BOND_DEF_STEREO_COUNT>
0

> <PUBCHEM_BOND_UDEF_STEREO_COUNT>
0

> <PUBCHEM_ISOTOPIC_ATOM_COUNT>
0

> <PUBCHEM_COMPONENT_COUNT>
1

> <PUBCHEM_CACTVS_TAUTO_COUNT>
-1

> <PUBCHEM_COORDINATE_TYPE>
1
5
255

> <PUBCHEM_BONDANNOTATIONS>
14  16  8
15  19  8
15  20  8
16  17  8
17  18  8
17  21  8
19  22  8
20  23  8
22  25  8
23  25  8
5  14  8
5  18  8
6  18  8
6  24  8
7  21  8
7  24  8

$$$$
