10562462
  -OEChem-09292322092D

 36 40  0     1  0  0  0  0  0999 V2000
    6.2686    1.2831    0.0000 N   0  0  3  0  0  0  0  0  0  0  0  0
    5.4104    0.7862    0.0000 C   0  0  1  0  0  0  0  0  0  0  0  0
    5.4104   -0.2138    0.0000 C   0  0  0  0  0  0  0  0  0  0  0  0
    4.5444   -0.7138    0.0000 C   0  0  0  0  0  0  0  0  0  0  0  0
    4.5444    1.2862    0.0000 C   0  0  0  0  0  0  0  0  0  0  0  0
    3.6784   -0.2138    0.0000 C   0  0  0  0  0  0  0  0  0  0  0  0
    6.3204   -0.7207    0.0000 C   0  0  0  0  0  0  0  0  0  0  0  0
    3.6784    0.7862    0.0000 C   0  0  0  0  0  0  0  0  0  0  0  0
    4.5284   -1.7553    0.0000 C   0  0  0  0  0  0  0  0  0  0  0  0
    7.1341    0.7989    0.0000 C   0  0  0  0  0  0  0  0  0  0  0  0
    7.1598   -0.1924    0.0000 C   0  0  0  0  0  0  0  0  0  0  0  0
    3.0605   -0.9922    0.0000 C   0  0  0  0  0  0  0  0  0  0  0  0
    3.5403   -1.8625    0.0000 C   0  0  0  0  0  0  0  0  0  0  0  0
    6.3285   -1.7623    0.0000 C   0  0  0  0  0  0  0  0  0  0  0  0
    5.4264   -2.2831    0.0000 C   0  0  0  0  0  0  0  0  0  0  0  0
    2.7270    1.0352    0.0000 C   0  0  0  0  0  0  0  0  0  0  0  0
    6.2613    2.2831    0.0000 C   0  0  0  0  0  0  0  0  0  0  0  0
    2.1596   -0.5976    0.0000 C   0  0  0  0  0  0  0  0  0  0  0  0
    2.0000    0.3728    0.0000 C   0  0  0  0  0  0  0  0  0  0  0  0
    5.4099    1.6362    0.0000 H   0  0  0  0  0  0  0  0  0  0  0  0
    4.9429    1.7611    0.0000 H   0  0  0  0  0  0  0  0  0  0  0  0
    4.1459    1.7611    0.0000 H   0  0  0  0  0  0  0  0  0  0  0  0
    7.7469    0.7046    0.0000 H   0  0  0  0  0  0  0  0  0  0  0  0
    7.3359    1.3852    0.0000 H   0  0  0  0  0  0  0  0  0  0  0  0
    7.3915   -0.7675    0.0000 H   0  0  0  0  0  0  0  0  0  0  0  0
    7.7668   -0.0665    0.0000 H   0  0  0  0  0  0  0  0  0  0  0  0
    2.9627   -2.0878    0.0000 H   0  0  0  0  0  0  0  0  0  0  0  0
    3.6877   -2.4647    0.0000 H   0  0  0  0  0  0  0  0  0  0  0  0
    6.8666   -2.0702    0.0000 H   0  0  0  0  0  0  0  0  0  0  0  0
    5.4240   -2.9031    0.0000 H   0  0  0  0  0  0  0  0  0  0  0  0
    6.8812    2.2877    0.0000 H   0  0  0  0  0  0  0  0  0  0  0  0
    6.2567    2.9031    0.0000 H   0  0  0  0  0  0  0  0  0  0  0  0
    5.6413    2.2785    0.0000 H   0  0  0  0  0  0  0  0  0  0  0  0
    2.5787    1.6372    0.0000 H   0  0  0  0  0  0  0  0  0  0  0  0
    1.6700   -0.9780    0.0000 H   0  0  0  0  0  0  0  0  0  0  0  0
    1.4144    0.5763    0.0000 H   0  0  0  0  0  0  0  0  0  0  0  0
  1  2  1  0  0  0  0
  1 10  1  0  0  0  0
  1 17  1  0  0  0  0
  2  3  1  0  0  0  0
  2  5  1  0  0  0  0
  2 20  1  6  0  0  0
  3  4  1  0  0  0  0
  3  7  2  0  0  0  0
  4  6  1  0  0  0  0
  4  9  2  0  0  0  0
  5  8  1  0  0  0  0
  5 21  1  0  0  0  0
  5 22  1  0  0  0  0
  6  8  1  0  0  0  0
  6 12  2  0  0  0  0
  7 11  1  0  0  0  0
  7 14  1  0  0  0  0
  8 16  2  0  0  0  0
  9 13  1  0  0  0  0
  9 15  1  0  0  0  0
 10 11  1  0  0  0  0
 10 23  1  0  0  0  0
 10 24  1  0  0  0  0
 11 25  1  0  0  0  0
 11 26  1  0  0  0  0
 12 13  1  0  0  0  0
 12 18  1  0  0  0  0
 13 27  1  0  0  0  0
 13 28  1  0  0  0  0
 14 15  2  0  0  0  0
 14 29  1  0  0  0  0
 15 30  1  0  0  0  0
 16 19  1  0  0  0  0
 16 34  1  0  0  0  0
 17 31  1  0  0  0  0
 17 32  1  0  0  0  0
 17 33  1  0  0  0  0
 18 19  2  0  0  0  0
 18 35  1  0  0  0  0
 19 36  1  0  0  0  0
M  END
> <PUBCHEM_COMPOUND_CID>
10562462

> <PUBCHEM_COMPOUND_CANONICALIZED>
1

> <PUBCHEM_CACTVS_COMPLEXITY>
378

> <PUBCHEM_CACTVS_HBOND_ACCEPTOR>
1

> <PUBCHEM_CACTVS_HBOND_DONOR>
0

> <PUBCHEM_CACTVS_ROTATABLE_BOND>
0

> <PUBCHEM_CACTVS_SUBSKEYS>
AAADceB6AAAAAAAAAAAAAAAAAAAAAYAAAAA8YMEAAAAAAGDxQAAAHAAAAAAADCjBGAQyAIMAAACAAiBCAACCAAAgAAAIiAAIBIgIICKAkRGEIAhggACIiAcQgMAOwAACAAAQAACQAASAACQAAQAACAAAAA==

> <PUBCHEM_IUPAC_OPENEYE_NAME>
(14R)-13-methyl-13-azapentacyclo[12.3.1.05,17.07,16.010,15]octadeca-1,3,5(17),7(16),8,10(15)-hexaene

> <PUBCHEM_IUPAC_CAS_NAME>
(14R)-13-methyl-13-azapentacyclo[12.3.1.05,17.07,16.010,15]octadeca-1,3,5(17),7(16),8,10(15)-hexaene

> <PUBCHEM_IUPAC_NAME_MARKUP>
(14<I>R</I>)-13-methyl-13-azapentacyclo[12.3.1.0<SUP>5,17</SUP>.0<SUP>7,16</SUP>.0<SUP>10,15</SUP>]octadeca-1,3,5(17),7(16),8,10(15)-hexaene

> <PUBCHEM_IUPAC_NAME>
(14R)-13-methyl-13-azapentacyclo[12.3.1.05,17.07,16.010,15]octadeca-1,3,5(17),7(16),8,10(15)-hexaene

> <PUBCHEM_IUPAC_SYSTEMATIC_NAME>
(14R)-13-methyl-13-azapentacyclo[12.3.1.05,17.07,16.010,15]octadeca-1,3,5(17),7(16),8,10(15)-hexaene

> <PUBCHEM_IUPAC_TRADITIONAL_NAME>
(14R)-13-methyl-13-azapentacyclo[12.3.1.05,17.07,16.010,15]octadeca-1,3,5(17),7(16),8,10(15)-hexaene

> <PUBCHEM_IUPAC_INCHI>
InChI=1S/C18H17N/c1-19-8-7-11-5-6-14-9-12-3-2-4-13-10-15(19)17(11)18(14)16(12)13/h2-6,15H,7-10H2,1H3/t15-/m1/s1

> <PUBCHEM_IUPAC_INCHIKEY>
PYONGVUMQJAWOL-OAHLLOKOSA-N

> <PUBCHEM_XLOGP3>
3

> <PUBCHEM_EXACT_MASS>
247.136099547

> <PUBCHEM_MOLECULAR_FORMULA>
C18H17N

> <PUBCHEM_MOLECULAR_WEIGHT>
247.3

> <PUBCHEM_OPENEYE_CAN_SMILES>
CN1CCC2=C3C1CC4=CC=CC5=C4C3=C(C5)C=C2

> <PUBCHEM_OPENEYE_ISO_SMILES>
CN1CCC2=C3[C@H]1CC4=CC=CC5=C4C3=C(C5)C=C2

> <PUBCHEM_CACTVS_TPSA>
3.2

> <PUBCHEM_MONOISOTOPIC_WEIGHT>
247.136099547

> <PUBCHEM_TOTAL_CHARGE>
0

> <PUBCHEM_HEAVY_ATOM_COUNT>
19

> <PUBCHEM_ATOM_DEF_STEREO_COUNT>
1

> <PUBCHEM_ATOM_UDEF_STEREO_COUNT>
0

> <PUBCHEM_BOND_DEF_STEREO_COUNT>
0

> <PUBCHEM_BOND_UDEF_STEREO_COUNT>
0

> <PUBCHEM_ISOTOPIC_ATOM_COUNT>
0

> <PUBCHEM_COMPONENT_COUNT>
1

> <PUBCHEM_CACTVS_TAUTO_COUNT>
-1

> <PUBCHEM_COORDINATE_TYPE>
1
5
255

> <PUBCHEM_BONDANNOTATIONS>
12  18  8
14  15  8
16  19  8
18  19  8
2  20  6
3  4  8
3  7  8
4  9  8
6  12  8
6  8  8
7  14  8
8  16  8
9  15  8

$$$$
