13922231
  -OEChem-09292322132D

 45 48  0     1  0  0  0  0  0999 V2000
    2.9176    2.5016    0.0000 O   0  0  0  0  0  0  0  0  0  0  0  0
    6.3903   -0.5299    0.0000 N   0  0  3  0  0  0  0  0  0  0  0  0
    5.5321   -0.0330    0.0000 C   0  0  1  0  0  0  0  0  0  0  0  0
    5.5321    0.9670    0.0000 C   0  0  0  0  0  0  0  0  0  0  0  0
    4.6660   -0.5330    0.0000 C   0  0  0  0  0  0  0  0  0  0  0  0
    7.2558   -0.0458    0.0000 C   0  0  0  0  0  0  0  0  0  0  0  0
    6.4421    1.4739    0.0000 C   0  0  0  0  0  0  0  0  0  0  0  0
    7.2814    0.9456    0.0000 C   0  0  0  0  0  0  0  0  0  0  0  0
    4.6660    1.4670    0.0000 C   0  0  0  0  0  0  0  0  0  0  0  0
    3.8000   -0.0330    0.0000 C   0  0  0  0  0  0  0  0  0  0  0  0
    6.3829   -1.5299    0.0000 C   0  0  0  0  0  0  0  0  0  0  0  0
    3.8000    0.9670    0.0000 C   0  0  0  0  0  0  0  0  0  0  0  0
    6.4501    2.5154    0.0000 C   0  0  0  0  0  0  0  0  0  0  0  0
    4.6500    2.5085    0.0000 C   0  0  0  0  0  0  0  0  0  0  0  0
    7.2452   -2.0363    0.0000 C   0  0  0  0  0  0  0  0  0  0  0  0
    2.9061    1.5017    0.0000 C   0  0  0  0  0  0  0  0  0  0  0  0
    2.9061   -0.5677    0.0000 C   0  0  0  0  0  0  0  0  0  0  0  0
    5.5480    3.0363    0.0000 C   0  0  0  0  0  0  0  0  0  0  0  0
    2.0000    0.9878    0.0000 C   0  0  0  0  0  0  0  0  0  0  0  0
    2.0000   -0.0538    0.0000 C   0  0  0  0  0  0  0  0  0  0  0  0
    7.2378   -3.0363    0.0000 C   0  0  0  0  0  0  0  0  0  0  0  0
    2.0574    3.0116    0.0000 C   0  0  0  0  0  0  0  0  0  0  0  0
    5.5315   -0.8830    0.0000 H   0  0  0  0  0  0  0  0  0  0  0  0
    4.2675   -1.0079    0.0000 H   0  0  0  0  0  0  0  0  0  0  0  0
    5.0646   -1.0079    0.0000 H   0  0  0  0  0  0  0  0  0  0  0  0
    7.4575   -0.6320    0.0000 H   0  0  0  0  0  0  0  0  0  0  0  0
    7.8685    0.0486    0.0000 H   0  0  0  0  0  0  0  0  0  0  0  0
    7.8885    0.8197    0.0000 H   0  0  0  0  0  0  0  0  0  0  0  0
    7.5131    1.5207    0.0000 H   0  0  0  0  0  0  0  0  0  0  0  0
    5.7731   -1.4177    0.0000 H   0  0  0  0  0  0  0  0  0  0  0  0
    6.1665   -2.1109    0.0000 H   0  0  0  0  0  0  0  0  0  0  0  0
    6.9882    2.8234    0.0000 H   0  0  0  0  0  0  0  0  0  0  0  0
    4.1095    2.8123    0.0000 H   0  0  0  0  0  0  0  0  0  0  0  0
    7.8550   -2.1485    0.0000 H   0  0  0  0  0  0  0  0  0  0  0  0
    7.4615   -1.4553    0.0000 H   0  0  0  0  0  0  0  0  0  0  0  0
    2.9132   -1.1876    0.0000 H   0  0  0  0  0  0  0  0  0  0  0  0
    5.5456    3.6563    0.0000 H   0  0  0  0  0  0  0  0  0  0  0  0
    1.4643    1.2999    0.0000 H   0  0  0  0  0  0  0  0  0  0  0  0
    1.4643   -0.3659    0.0000 H   0  0  0  0  0  0  0  0  0  0  0  0
    6.6178   -3.0317    0.0000 H   0  0  0  0  0  0  0  0  0  0  0  0
    7.2332   -3.6562    0.0000 H   0  0  0  0  0  0  0  0  0  0  0  0
    7.8578   -3.0408    0.0000 H   0  0  0  0  0  0  0  0  0  0  0  0
    2.3736    3.5449    0.0000 H   0  0  0  0  0  0  0  0  0  0  0  0
    1.5241    3.3278    0.0000 H   0  0  0  0  0  0  0  0  0  0  0  0
    1.7413    2.4783    0.0000 H   0  0  0  0  0  0  0  0  0  0  0  0
  1 16  1  0  0  0  0
  1 22  1  0  0  0  0
  2  3  1  0  0  0  0
  2  6  1  0  0  0  0
  2 11  1  0  0  0  0
  3  4  1  0  0  0  0
  3  5  1  0  0  0  0
  3 23  1  1  0  0  0
  4  7  2  0  0  0  0
  4  9  1  0  0  0  0
  5 10  1  0  0  0  0
  5 24  1  0  0  0  0
  5 25  1  0  0  0  0
  6  8  1  0  0  0  0
  6 26  1  0  0  0  0
  6 27  1  0  0  0  0
  7  8  1  0  0  0  0
  7 13  1  0  0  0  0
  8 28  1  0  0  0  0
  8 29  1  0  0  0  0
  9 12  1  0  0  0  0
  9 14  2  0  0  0  0
 10 12  2  0  0  0  0
 10 17  1  0  0  0  0
 11 15  1  0  0  0  0
 11 30  1  0  0  0  0
 11 31  1  0  0  0  0
 12 16  1  0  0  0  0
 13 18  2  0  0  0  0
 13 32  1  0  0  0  0
 14 18  1  0  0  0  0
 14 33  1  0  0  0  0
 15 21  1  0  0  0  0
 15 34  1  0  0  0  0
 15 35  1  0  0  0  0
 16 19  2  0  0  0  0
 17 20  2  0  0  0  0
 17 36  1  0  0  0  0
 18 37  1  0  0  0  0
 19 20  1  0  0  0  0
 19 38  1  0  0  0  0
 20 39  1  0  0  0  0
 21 40  1  0  0  0  0
 21 41  1  0  0  0  0
 21 42  1  0  0  0  0
 22 43  1  0  0  0  0
 22 44  1  0  0  0  0
 22 45  1  0  0  0  0
M  END
> <PUBCHEM_COMPOUND_CID>
13922231

> <PUBCHEM_COMPOUND_CANONICALIZED>
1

> <PUBCHEM_CACTVS_COMPLEXITY>
384

> <PUBCHEM_CACTVS_HBOND_ACCEPTOR>
2

> <PUBCHEM_CACTVS_HBOND_DONOR>
0

> <PUBCHEM_CACTVS_ROTATABLE_BOND>
3

> <PUBCHEM_CACTVS_SUBSKEYS>
AAADceB6IAAAAAAAAAAAAAAAAAAAAAAAAAA8YMEAAAAAAADxQAAAHgAAAAAADCzBmAYyBoMABACAAiBCAACCCAAgIAAIiAAODIgMJiKEsRuEMChkwBGIqAeQ0PMOgAADAAAYAACQAAaAADQAAAAAAAAAAA==

> <PUBCHEM_IUPAC_OPENEYE_NAME>
(6aR)-11-methoxy-6-propyl-5,6,6a,7-tetrahydro-4H-dibenzo[de,g]quinoline

> <PUBCHEM_IUPAC_CAS_NAME>
(6aR)-11-methoxy-6-propyl-5,6,6a,7-tetrahydro-4H-dibenzo[de,g]quinoline

> <PUBCHEM_IUPAC_NAME_MARKUP>
(6<I>a</I><I>R</I>)-11-methoxy-6-propyl-5,6,6<I>a</I>,7-tetrahydro-4<I>H</I>-dibenzo[de,g]quinoline

> <PUBCHEM_IUPAC_NAME>
(6aR)-11-methoxy-6-propyl-5,6,6a,7-tetrahydro-4H-dibenzo[de,g]quinoline

> <PUBCHEM_IUPAC_SYSTEMATIC_NAME>
(6aR)-11-methoxy-6-propyl-5,6,6a,7-tetrahydro-4H-dibenzo[de,g]quinoline

> <PUBCHEM_IUPAC_TRADITIONAL_NAME>
(6aR)-11-methoxy-6-propyl-5,6,6a,7-tetrahydro-4H-dibenzo[de,g]quinoline

> <PUBCHEM_IUPAC_INCHI>
InChI=1S/C20H23NO/c1-3-11-21-12-10-14-6-4-8-16-19(14)17(21)13-15-7-5-9-18(22-2)20(15)16/h4-9,17H,3,10-13H2,1-2H3/t17-/m1/s1

> <PUBCHEM_IUPAC_INCHIKEY>
PZJGVCFSNKRINT-QGZVFWFLSA-N

> <PUBCHEM_XLOGP3_AA>
4.4

> <PUBCHEM_EXACT_MASS>
293.177964357

> <PUBCHEM_MOLECULAR_FORMULA>
C20H23NO

> <PUBCHEM_MOLECULAR_WEIGHT>
293.4

> <PUBCHEM_OPENEYE_CAN_SMILES>
CCCN1CCC2=C3C1CC4=C(C3=CC=C2)C(=CC=C4)OC

> <PUBCHEM_OPENEYE_ISO_SMILES>
CCCN1CCC2=C3[C@H]1CC4=C(C3=CC=C2)C(=CC=C4)OC

> <PUBCHEM_CACTVS_TPSA>
12.5

> <PUBCHEM_MONOISOTOPIC_WEIGHT>
293.177964357

> <PUBCHEM_TOTAL_CHARGE>
0

> <PUBCHEM_HEAVY_ATOM_COUNT>
22

> <PUBCHEM_ATOM_DEF_STEREO_COUNT>
1

> <PUBCHEM_ATOM_UDEF_STEREO_COUNT>
0

> <PUBCHEM_BOND_DEF_STEREO_COUNT>
0

> <PUBCHEM_BOND_UDEF_STEREO_COUNT>
0

> <PUBCHEM_ISOTOPIC_ATOM_COUNT>
0

> <PUBCHEM_COMPONENT_COUNT>
1

> <PUBCHEM_CACTVS_TAUTO_COUNT>
-1

> <PUBCHEM_COORDINATE_TYPE>
1
5
255

> <PUBCHEM_BONDANNOTATIONS>
10  12  8
10  17  8
12  16  8
13  18  8
14  18  8
16  19  8
17  20  8
19  20  8
3  23  5
4  7  8
4  9  8
7  13  8
9  14  8

$$$$
