10245409
  -OEChem-09292322222D

 49 52  0     0  0  0  0  0  0999 V2000
    6.7619   -1.4680    0.0000 N   0  0  0  0  0  0  0  0  0  0  0  0
    4.6783   -3.1388    0.0000 N   0  0  0  0  0  0  0  0  0  0  0  0
    2.8660   -3.3341    0.0000 N   0  0  0  0  0  0  0  0  0  0  0  0
    7.7619    0.2640    0.0000 C   0  0  0  0  0  0  0  0  0  0  0  0
    8.2619   -0.6020    0.0000 C   0  0  0  0  0  0  0  0  0  0  0  0
    6.7619    0.2640    0.0000 C   0  0  0  0  0  0  0  0  0  0  0  0
    7.7619   -1.4680    0.0000 C   0  0  0  0  0  0  0  0  0  0  0  0
    6.2619   -0.6020    0.0000 C   0  0  0  0  0  0  0  0  0  0  0  0
    8.2619    1.1300    0.0000 C   0  0  0  0  0  0  0  0  0  0  0  0
    6.2619   -2.3341    0.0000 C   0  0  0  0  0  0  0  0  0  0  0  0
    9.2619    1.1300    0.0000 C   0  0  0  0  0  0  0  0  0  0  0  0
    5.2619   -2.3341    0.0000 C   0  0  0  0  0  0  0  0  0  0  0  0
    9.7619    1.9961    0.0000 C   0  0  0  0  0  0  0  0  0  0  0  0
    4.6783   -1.5293    0.0000 C   0  0  0  0  0  0  0  0  0  0  0  0
    3.7320   -1.8341    0.0000 C   0  0  0  0  0  0  0  0  0  0  0  0
    3.7320   -2.8341    0.0000 C   0  0  0  0  0  0  0  0  0  0  0  0
    9.2619    2.8621    0.0000 C   0  0  0  0  0  0  0  0  0  0  0  0
   10.7619    1.9961    0.0000 C   0  0  0  0  0  0  0  0  0  0  0  0
    2.8660   -1.3341    0.0000 C   0  0  0  0  0  0  0  0  0  0  0  0
    9.7619    3.7281    0.0000 C   0  0  0  0  0  0  0  0  0  0  0  0
   11.2619    2.8621    0.0000 C   0  0  0  0  0  0  0  0  0  0  0  0
   10.7619    3.7281    0.0000 C   0  0  0  0  0  0  0  0  0  0  0  0
    2.0000   -1.8341    0.0000 C   0  0  0  0  0  0  0  0  0  0  0  0
    2.0000   -2.8341    0.0000 C   0  0  0  0  0  0  0  0  0  0  0  0
    7.4519    0.8010    0.0000 H   0  0  0  0  0  0  0  0  0  0  0  0
    8.7368   -1.0005    0.0000 H   0  0  0  0  0  0  0  0  0  0  0  0
    8.7368   -0.2035    0.0000 H   0  0  0  0  0  0  0  0  0  0  0  0
    6.8695    0.8746    0.0000 H   0  0  0  0  0  0  0  0  0  0  0  0
    6.1793    0.4761    0.0000 H   0  0  0  0  0  0  0  0  0  0  0  0
    7.6542   -2.0786    0.0000 H   0  0  0  0  0  0  0  0  0  0  0  0
    8.3445   -1.6801    0.0000 H   0  0  0  0  0  0  0  0  0  0  0  0
    5.7869   -0.2035    0.0000 H   0  0  0  0  0  0  0  0  0  0  0  0
    5.7869   -1.0005    0.0000 H   0  0  0  0  0  0  0  0  0  0  0  0
    8.3695    1.7406    0.0000 H   0  0  0  0  0  0  0  0  0  0  0  0
    7.6793    1.3421    0.0000 H   0  0  0  0  0  0  0  0  0  0  0  0
    6.1542   -2.9446    0.0000 H   0  0  0  0  0  0  0  0  0  0  0  0
    6.8445   -2.5461    0.0000 H   0  0  0  0  0  0  0  0  0  0  0  0
    9.1542    0.5195    0.0000 H   0  0  0  0  0  0  0  0  0  0  0  0
    9.8445    0.9180    0.0000 H   0  0  0  0  0  0  0  0  0  0  0  0
    4.8709   -0.9400    0.0000 H   0  0  0  0  0  0  0  0  0  0  0  0
    4.8709   -3.7281    0.0000 H   0  0  0  0  0  0  0  0  0  0  0  0
    8.6419    2.8621    0.0000 H   0  0  0  0  0  0  0  0  0  0  0  0
   11.0719    1.4591    0.0000 H   0  0  0  0  0  0  0  0  0  0  0  0
    2.8660   -0.7141    0.0000 H   0  0  0  0  0  0  0  0  0  0  0  0
    9.4519    4.2650    0.0000 H   0  0  0  0  0  0  0  0  0  0  0  0
   11.8819    2.8621    0.0000 H   0  0  0  0  0  0  0  0  0  0  0  0
   11.0719    4.2650    0.0000 H   0  0  0  0  0  0  0  0  0  0  0  0
    1.4631   -1.5241    0.0000 H   0  0  0  0  0  0  0  0  0  0  0  0
    1.4631   -3.1441    0.0000 H   0  0  0  0  0  0  0  0  0  0  0  0
  1  7  1  0  0  0  0
  1  8  1  0  0  0  0
  1 10  1  0  0  0  0
  2 12  1  0  0  0  0
  2 16  1  0  0  0  0
  2 41  1  0  0  0  0
  3 16  1  0  0  0  0
  3 24  2  0  0  0  0
  4  5  1  0  0  0  0
  4  6  1  0  0  0  0
  4  9  1  0  0  0  0
  4 25  1  0  0  0  0
  5  7  1  0  0  0  0
  5 26  1  0  0  0  0
  5 27  1  0  0  0  0
  6  8  1  0  0  0  0
  6 28  1  0  0  0  0
  6 29  1  0  0  0  0
  7 30  1  0  0  0  0
  7 31  1  0  0  0  0
  8 32  1  0  0  0  0
  8 33  1  0  0  0  0
  9 11  1  0  0  0  0
  9 34  1  0  0  0  0
  9 35  1  0  0  0  0
 10 12  1  0  0  0  0
 10 36  1  0  0  0  0
 10 37  1  0  0  0  0
 11 13  1  0  0  0  0
 11 38  1  0  0  0  0
 11 39  1  0  0  0  0
 12 14  2  0  0  0  0
 13 17  2  0  0  0  0
 13 18  1  0  0  0  0
 14 15  1  0  0  0  0
 14 40  1  0  0  0  0
 15 16  2  0  0  0  0
 15 19  1  0  0  0  0
 17 20  1  0  0  0  0
 17 42  1  0  0  0  0
 18 21  2  0  0  0  0
 18 43  1  0  0  0  0
 19 23  2  0  0  0  0
 19 44  1  0  0  0  0
 20 22  2  0  0  0  0
 20 45  1  0  0  0  0
 21 22  1  0  0  0  0
 21 46  1  0  0  0  0
 22 47  1  0  0  0  0
 23 24  1  0  0  0  0
 23 48  1  0  0  0  0
 24 49  1  0  0  0  0
M  END
> <PUBCHEM_COMPOUND_CID>
10245409

> <PUBCHEM_COMPOUND_CANONICALIZED>
1

> <PUBCHEM_CACTVS_COMPLEXITY>
371

> <PUBCHEM_CACTVS_HBOND_ACCEPTOR>
2

> <PUBCHEM_CACTVS_HBOND_DONOR>
1

> <PUBCHEM_CACTVS_ROTATABLE_BOND>
5

> <PUBCHEM_CACTVS_SUBSKEYS>
AAADceB7AAAAAAAAAAAAAAAAAAAAAWAAAAA8WIAAAAAAAFgB/AAAHAAQAAAADQjBHwQ9sN/JkACgAzZnZACCgCmxAqAJ2SA4ZJiIaOLAmZGUIAhokALIyCcQgMAOAAAAAAAAAAAAAAAAAAAAAAAAAAAAAA==

> <PUBCHEM_IUPAC_OPENEYE_NAME>
2-[[4-(2-phenylethyl)-1-piperidyl]methyl]-1H-pyrrolo[2,3-b]pyridine

> <PUBCHEM_IUPAC_CAS_NAME>
2-[[4-(2-phenylethyl)-1-piperidinyl]methyl]-1H-pyrrolo[2,3-b]pyridine

> <PUBCHEM_IUPAC_NAME_MARKUP>
2-[[4-(2-phenylethyl)piperidin-1-yl]methyl]-1<I>H</I>-pyrrolo[2,3-b]pyridine

> <PUBCHEM_IUPAC_NAME>
2-[[4-(2-phenylethyl)piperidin-1-yl]methyl]-1H-pyrrolo[2,3-b]pyridine

> <PUBCHEM_IUPAC_SYSTEMATIC_NAME>
2-[[4-(2-phenylethyl)piperidin-1-yl]methyl]-1H-pyrrolo[2,3-b]pyridine

> <PUBCHEM_IUPAC_TRADITIONAL_NAME>
2-[(4-phenethylpiperidino)methyl]-1H-pyrrolo[2,3-b]pyridine

> <PUBCHEM_IUPAC_INCHI>
InChI=1S/C21H25N3/c1-2-5-17(6-3-1)8-9-18-10-13-24(14-11-18)16-20-15-19-7-4-12-22-21(19)23-20/h1-7,12,15,18H,8-11,13-14,16H2,(H,22,23)

> <PUBCHEM_IUPAC_INCHIKEY>
DZHAENXWCJQFRP-UHFFFAOYSA-N

> <PUBCHEM_XLOGP3_AA>
4.4

> <PUBCHEM_EXACT_MASS>
319.204847810

> <PUBCHEM_MOLECULAR_FORMULA>
C21H25N3

> <PUBCHEM_MOLECULAR_WEIGHT>
319.4

> <PUBCHEM_OPENEYE_CAN_SMILES>
C1CN(CCC1CCC2=CC=CC=C2)CC3=CC4=C(N3)N=CC=C4

> <PUBCHEM_OPENEYE_ISO_SMILES>
C1CN(CCC1CCC2=CC=CC=C2)CC3=CC4=C(N3)N=CC=C4

> <PUBCHEM_CACTVS_TPSA>
31.9

> <PUBCHEM_MONOISOTOPIC_WEIGHT>
319.204847810

> <PUBCHEM_TOTAL_CHARGE>
0

> <PUBCHEM_HEAVY_ATOM_COUNT>
24

> <PUBCHEM_ATOM_DEF_STEREO_COUNT>
0

> <PUBCHEM_ATOM_UDEF_STEREO_COUNT>
0

> <PUBCHEM_BOND_DEF_STEREO_COUNT>
0

> <PUBCHEM_BOND_UDEF_STEREO_COUNT>
0

> <PUBCHEM_ISOTOPIC_ATOM_COUNT>
0

> <PUBCHEM_COMPONENT_COUNT>
1

> <PUBCHEM_CACTVS_TAUTO_COUNT>
-1

> <PUBCHEM_COORDINATE_TYPE>
1
5
255

> <PUBCHEM_BONDANNOTATIONS>
12  14  8
13  17  8
13  18  8
14  15  8
15  16  8
15  19  8
17  20  8
18  21  8
19  23  8
2  12  8
2  16  8
20  22  8
21  22  8
23  24  8
3  16  8
3  24  8

$$$$
