164620827
  -OEChem-09292322432D

 65 68  0     1  0  0  0  0  0999 V2000
    7.1149    4.7871    0.0000 O   0  0  0  0  0  0  0  0  0  0  0  0
    9.7408    3.2524    0.0000 O   0  0  0  0  0  0  0  0  0  0  0  0
    3.6972   -1.3220    0.0000 O   0  0  0  0  0  0  0  0  0  0  0  0
    2.8718   -4.8318    0.0000 O   0  0  0  0  0  0  0  0  0  0  0  0
    6.3356   -4.7918    0.0000 O   0  0  0  0  0  0  0  0  0  0  0  0
    4.6152   -5.8117    0.0000 O   0  0  0  0  0  0  0  0  0  0  0  0
    7.1149    2.7178    0.0000 N   0  0  3  0  0  0  0  0  0  0  0  0
    5.4292   -1.3020    0.0000 N   0  0  0  0  0  0  0  0  0  0  0  0
    8.0088    3.2524    0.0000 C   0  0  1  0  0  0  0  0  0  0  0  0
    8.0088    4.2524    0.0000 C   0  0  1  0  0  0  0  0  0  0  0  0
    6.2088    3.2316    0.0000 C   0  0  0  0  0  0  0  0  0  0  0  0
    8.8748    2.7524    0.0000 C   0  0  0  0  0  0  0  0  0  0  0  0
    7.1264    1.7178    0.0000 C   0  0  0  0  0  0  0  0  0  0  0  0
    8.8748    4.7524    0.0000 C   0  0  0  0  0  0  0  0  0  0  0  0
    6.2088    4.2732    0.0000 C   0  0  0  0  0  0  0  0  0  0  0  0
    6.2662    1.2078    0.0000 C   0  0  0  0  0  0  0  0  0  0  0  0
    9.7408    4.2524    0.0000 C   0  0  0  0  0  0  0  0  0  0  0  0
    6.2778    0.2079    0.0000 C   0  0  0  0  0  0  0  0  0  0  0  0
    8.8588    5.7939    0.0000 C   0  0  0  0  0  0  0  0  0  0  0  0
   10.6509    4.7593    0.0000 C   0  0  0  0  0  0  0  0  0  0  0  0
    5.4176   -0.3021    0.0000 C   0  0  0  0  0  0  0  0  0  0  0  0
    9.7568    6.3217    0.0000 C   0  0  0  0  0  0  0  0  0  0  0  0
   10.6589    5.8009    0.0000 C   0  0  0  0  0  0  0  0  0  0  0  0
    4.5690   -1.8120    0.0000 C   0  0  0  0  0  0  0  0  0  0  0  0
    4.5806   -2.8119    0.0000 C   0  0  0  0  0  0  0  0  0  0  0  0
    5.4523   -3.3019    0.0000 C   0  0  0  0  0  0  0  0  0  0  0  0
    3.7204   -3.3219    0.0000 C   0  0  0  0  0  0  0  0  0  0  0  0
    3.7319   -4.3218    0.0000 C   0  0  0  0  0  0  0  0  0  0  0  0
    5.4639   -4.3018    0.0000 C   0  0  0  0  0  0  0  0  0  0  0  0
    4.6037   -4.8118    0.0000 C   0  0  0  0  0  0  0  0  0  0  0  0
    2.0000   -4.3418    0.0000 C   0  0  0  0  0  0  0  0  0  0  0  0
    7.1958   -4.2818    0.0000 C   0  0  0  0  0  0  0  0  0  0  0  0
    3.7551   -6.3217    0.0000 C   0  0  0  0  0  0  0  0  0  0  0  0
    8.0154    2.4024    0.0000 H   0  0  0  0  0  0  0  0  0  0  0  0
    8.0154    5.1024    0.0000 H   0  0  0  0  0  0  0  0  0  0  0  0
    5.5979    3.3377    0.0000 H   0  0  0  0  0  0  0  0  0  0  0  0
    5.9997    2.6479    0.0000 H   0  0  0  0  0  0  0  0  0  0  0  0
    8.4763    2.2775    0.0000 H   0  0  0  0  0  0  0  0  0  0  0  0
    9.2734    2.2775    0.0000 H   0  0  0  0  0  0  0  0  0  0  0  0
    7.3452    1.1377    0.0000 H   0  0  0  0  0  0  0  0  0  0  0  0
    7.7357    1.8326    0.0000 H   0  0  0  0  0  0  0  0  0  0  0  0
    5.9997    4.8569    0.0000 H   0  0  0  0  0  0  0  0  0  0  0  0
    5.5979    4.1672    0.0000 H   0  0  0  0  0  0  0  0  0  0  0  0
    6.0475    1.7880    0.0000 H   0  0  0  0  0  0  0  0  0  0  0  0
    5.6569    1.0931    0.0000 H   0  0  0  0  0  0  0  0  0  0  0  0
    6.4966   -0.3722    0.0000 H   0  0  0  0  0  0  0  0  0  0  0  0
    6.8871    0.3226    0.0000 H   0  0  0  0  0  0  0  0  0  0  0  0
    8.3183    6.0977    0.0000 H   0  0  0  0  0  0  0  0  0  0  0  0
   11.1842    4.4431    0.0000 H   0  0  0  0  0  0  0  0  0  0  0  0
    5.1988    0.2781    0.0000 H   0  0  0  0  0  0  0  0  0  0  0  0
    4.8083   -0.4168    0.0000 H   0  0  0  0  0  0  0  0  0  0  0  0
    9.7544    6.9417    0.0000 H   0  0  0  0  0  0  0  0  0  0  0  0
   11.1970    6.1088    0.0000 H   0  0  0  0  0  0  0  0  0  0  0  0
    5.9697   -1.6058    0.0000 H   0  0  0  0  0  0  0  0  0  0  0  0
    5.9856   -2.9857    0.0000 H   0  0  0  0  0  0  0  0  0  0  0  0
    3.1799   -3.0181    0.0000 H   0  0  0  0  0  0  0  0  0  0  0  0
    2.3038   -3.8014    0.0000 H   0  0  0  0  0  0  0  0  0  0  0  0
    1.4595   -4.0381    0.0000 H   0  0  0  0  0  0  0  0  0  0  0  0
    1.6962   -4.8823    0.0000 H   0  0  0  0  0  0  0  0  0  0  0  0
    7.5120   -4.8151    0.0000 H   0  0  0  0  0  0  0  0  0  0  0  0
    7.7291   -3.9656    0.0000 H   0  0  0  0  0  0  0  0  0  0  0  0
    6.8796   -3.7484    0.0000 H   0  0  0  0  0  0  0  0  0  0  0  0
    3.4389   -5.7884    0.0000 H   0  0  0  0  0  0  0  0  0  0  0  0
    3.2218   -6.6379    0.0000 H   0  0  0  0  0  0  0  0  0  0  0  0
    4.0712   -6.8550    0.0000 H   0  0  0  0  0  0  0  0  0  0  0  0
  1 10  1  0  0  0  0
  1 15  1  0  0  0  0
  2 12  1  0  0  0  0
  2 17  1  0  0  0  0
  3 24  2  0  0  0  0
  4 28  1  0  0  0  0
  4 31  1  0  0  0  0
  5 29  1  0  0  0  0
  5 32  1  0  0  0  0
  6 30  1  0  0  0  0
  6 33  1  0  0  0  0
  7  9  1  0  0  0  0
  7 11  1  0  0  0  0
  7 13  1  0  0  0  0
  8 21  1  0  0  0  0
  8 24  1  0  0  0  0
  8 54  1  0  0  0  0
  9 10  1  0  0  0  0
  9 12  1  0  0  0  0
  9 34  1  6  0  0  0
 10 14  1  0  0  0  0
 10 35  1  1  0  0  0
 11 15  1  0  0  0  0
 11 36  1  0  0  0  0
 11 37  1  0  0  0  0
 12 38  1  0  0  0  0
 12 39  1  0  0  0  0
 13 16  1  0  0  0  0
 13 40  1  0  0  0  0
 13 41  1  0  0  0  0
 14 17  1  0  0  0  0
 14 19  2  0  0  0  0
 15 42  1  0  0  0  0
 15 43  1  0  0  0  0
 16 18  1  0  0  0  0
 16 44  1  0  0  0  0
 16 45  1  0  0  0  0
 17 20  2  0  0  0  0
 18 21  1  0  0  0  0
 18 46  1  0  0  0  0
 18 47  1  0  0  0  0
 19 22  1  0  0  0  0
 19 48  1  0  0  0  0
 20 23  1  0  0  0  0
 20 49  1  0  0  0  0
 21 50  1  0  0  0  0
 21 51  1  0  0  0  0
 22 23  2  0  0  0  0
 22 52  1  0  0  0  0
 23 53  1  0  0  0  0
 24 25  1  0  0  0  0
 25 26  2  0  0  0  0
 25 27  1  0  0  0  0
 26 29  1  0  0  0  0
 26 55  1  0  0  0  0
 27 28  2  0  0  0  0
 27 56  1  0  0  0  0
 28 30  1  0  0  0  0
 29 30  2  0  0  0  0
 31 57  1  0  0  0  0
 31 58  1  0  0  0  0
 31 59  1  0  0  0  0
 32 60  1  0  0  0  0
 32 61  1  0  0  0  0
 32 62  1  0  0  0  0
 33 63  1  0  0  0  0
 33 64  1  0  0  0  0
 33 65  1  0  0  0  0
M  END
> <PUBCHEM_COMPOUND_CID>
164620827

> <PUBCHEM_COMPOUND_CANONICALIZED>
1

> <PUBCHEM_CACTVS_COMPLEXITY>
608

> <PUBCHEM_CACTVS_HBOND_ACCEPTOR>
7

> <PUBCHEM_CACTVS_HBOND_DONOR>
1

> <PUBCHEM_CACTVS_ROTATABLE_BOND>
9

> <PUBCHEM_CACTVS_SUBSKEYS>
AAADcfB7OAAAAAAAAAAAAAAAAAAAAAAAAAA8aIEAAAAAAACxQAAAHgAQAAAADDzhmAYyBoPABACIAiFSEACCCAAkIAAIiIEOjMgPJzKEtRuHOSrl1hWaqYe6/L7OIAABCAAIQABAAAIQABCAAAAAAAAAAA==

> <PUBCHEM_IUPAC_OPENEYE_NAME>
N-[4-[(4aR,10bR)-3,4a,5,10b-tetrahydro-2H-chromeno[4,3-b][1,4]oxazin-4-yl]butyl]-3,4,5-trimethoxy-benzamide

> <PUBCHEM_IUPAC_CAS_NAME>
N-[4-[(4aR,10bR)-3,4a,5,10b-tetrahydro-2H-[1]benzopyrano[4,3-b][1,4]oxazin-4-yl]butyl]-3,4,5-trimethoxybenzamide

> <PUBCHEM_IUPAC_NAME_MARKUP>
<I>N</I>-[4-[(4<I>a</I><I>R</I>,10<I>b</I><I>R</I>)-3,4<I>a</I>,5,10<I>b</I>-tetrahydro-2<I>H</I>-chromeno[4,3-b][1,4]oxazin-4-yl]butyl]-3,4,5-trimethoxybenzamide

> <PUBCHEM_IUPAC_NAME>
N-[4-[(4aR,10bR)-3,4a,5,10b-tetrahydro-2H-chromeno[4,3-b][1,4]oxazin-4-yl]butyl]-3,4,5-trimethoxybenzamide

> <PUBCHEM_IUPAC_SYSTEMATIC_NAME>
N-[4-[(4aR,10bR)-3,4a,5,10b-tetrahydro-2H-chromeno[4,3-b][1,4]oxazin-4-yl]butyl]-3,4,5-trimethoxy-benzamide

> <PUBCHEM_IUPAC_TRADITIONAL_NAME>
N-[4-[(4aR,10bR)-3,4a,5,10b-tetrahydro-2H-chromeno[4,3-b][1,4]oxazin-4-yl]butyl]-3,4,5-trimethoxy-benzamide

> <PUBCHEM_IUPAC_INCHI>
InChI=1S/C25H32N2O6/c1-29-21-14-17(15-22(30-2)24(21)31-3)25(28)26-10-6-7-11-27-12-13-32-23-18-8-4-5-9-20(18)33-16-19(23)27/h4-5,8-9,14-15,19,23H,6-7,10-13,16H2,1-3H3,(H,26,28)/t19-,23-/m1/s1

> <PUBCHEM_IUPAC_INCHIKEY>
CIZKQMKMGUKASR-AUSIDOKSSA-N

> <PUBCHEM_XLOGP3>
3

> <PUBCHEM_EXACT_MASS>
456.22603674

> <PUBCHEM_MOLECULAR_FORMULA>
C25H32N2O6

> <PUBCHEM_MOLECULAR_WEIGHT>
456.5

> <PUBCHEM_OPENEYE_CAN_SMILES>
COC1=CC(=CC(=C1OC)OC)C(=O)NCCCCN2CCOC3C2COC4=CC=CC=C34

> <PUBCHEM_OPENEYE_ISO_SMILES>
COC1=CC(=CC(=C1OC)OC)C(=O)NCCCCN2CCO[C@H]3[C@H]2COC4=CC=CC=C34

> <PUBCHEM_CACTVS_TPSA>
78.5

> <PUBCHEM_MONOISOTOPIC_WEIGHT>
456.22603674

> <PUBCHEM_TOTAL_CHARGE>
0

> <PUBCHEM_HEAVY_ATOM_COUNT>
33

> <PUBCHEM_ATOM_DEF_STEREO_COUNT>
2

> <PUBCHEM_ATOM_UDEF_STEREO_COUNT>
0

> <PUBCHEM_BOND_DEF_STEREO_COUNT>
0

> <PUBCHEM_BOND_UDEF_STEREO_COUNT>
0

> <PUBCHEM_ISOTOPIC_ATOM_COUNT>
0

> <PUBCHEM_COMPONENT_COUNT>
1

> <PUBCHEM_CACTVS_TAUTO_COUNT>
-1

> <PUBCHEM_COORDINATE_TYPE>
1
5
255

> <PUBCHEM_BONDANNOTATIONS>
10  35  5
14  17  8
14  19  8
17  20  8
19  22  8
20  23  8
22  23  8
25  26  8
25  27  8
26  29  8
27  28  8
28  30  8
29  30  8
9  34  6

$$$$
