52941718
  -OEChem-09292322092D

 67 69  0     1  0  0  0  0  0999 V2000
    7.2832    0.0000    0.0000 Cl  0  0  0  0  0  0  0  0  0  0  0  0
   13.5295    5.7070    0.0000 S   0  0  0  0  0  0  0  0  0  0  0  0
    3.2508    7.4670    0.0000 O   0  0  0  0  0  0  0  0  0  0  0  0
    3.2508    3.9469    0.0000 O   0  0  0  0  0  0  0  0  0  0  0  0
   13.5295    6.7070    0.0000 O   0  0  0  0  0  0  0  0  0  0  0  0
   13.5295    4.7070    0.0000 O   0  0  0  0  0  0  0  0  0  0  0  0
    1.9907    5.2070    0.0000 N   0  0  0  0  0  0  0  0  0  0  0  0
    3.5295    5.7070    0.0000 N   0  0  0  0  0  0  0  0  0  0  0  0
    7.5295    3.9749    0.0000 N   0  0  0  0  0  0  0  0  0  0  0  0
    9.5295    3.9749    0.0000 N   0  0  0  0  0  0  0  0  0  0  0  0
   12.5295    5.7070    0.0000 N   0  0  0  0  0  0  0  0  0  0  0  0
    1.9907    6.2070    0.0000 C   0  0  3  0  0  0  0  0  0  0  0  0
    1.0445    6.5117    0.0000 C   0  0  0  0  0  0  0  0  0  0  0  0
    1.0445    4.9022    0.0000 C   0  0  0  0  0  0  0  0  0  0  0  0
    0.4609    5.7070    0.0000 C   0  0  0  0  0  0  0  0  0  0  0  0
    2.9418    6.5160    0.0000 C   0  0  0  0  0  0  0  0  0  0  0  0
    2.9418    4.8980    0.0000 C   0  0  0  0  0  0  0  0  0  0  0  0
    4.5295    5.7070    0.0000 C   0  0  0  0  0  0  0  0  0  0  0  0
    5.0295    4.8409    0.0000 C   0  0  0  0  0  0  0  0  0  0  0  0
    6.0295    4.8409    0.0000 C   0  0  0  0  0  0  0  0  0  0  0  0
    6.5295    3.9749    0.0000 C   0  0  0  0  0  0  0  0  0  0  0  0
    8.0295    3.1089    0.0000 C   0  0  0  0  0  0  0  0  0  0  0  0
    8.0295    4.8409    0.0000 C   0  0  0  0  0  0  0  0  0  0  0  0
    9.0295    3.1089    0.0000 C   0  0  0  0  0  0  0  0  0  0  0  0
    9.0295    4.8409    0.0000 C   0  0  0  0  0  0  0  0  0  0  0  0
   10.5295    3.9749    0.0000 C   0  0  0  0  0  0  0  0  0  0  0  0
   11.0295    4.8409    0.0000 C   0  0  0  0  0  0  0  0  0  0  0  0
   11.0295    3.1089    0.0000 C   0  0  0  0  0  0  0  0  0  0  0  0
   12.0295    4.8409    0.0000 C   0  0  0  0  0  0  0  0  0  0  0  0
   12.0295    3.1089    0.0000 C   0  0  0  0  0  0  0  0  0  0  0  0
   12.5295    3.9749    0.0000 C   0  0  0  0  0  0  0  0  0  0  0  0
   14.5295    5.7070    0.0000 C   0  0  0  0  0  0  0  0  0  0  0  0
   15.0295    6.5730    0.0000 C   0  0  0  0  0  0  0  0  0  0  0  0
    1.9899    6.8270    0.0000 H   0  0  0  0  0  0  0  0  0  0  0  0
    1.2955    7.0786    0.0000 H   0  0  0  0  0  0  0  0  0  0  0  0
    0.5071    6.8209    0.0000 H   0  0  0  0  0  0  0  0  0  0  0  0
    0.5071    4.5930    0.0000 H   0  0  0  0  0  0  0  0  0  0  0  0
    1.2955    4.3353    0.0000 H   0  0  0  0  0  0  0  0  0  0  0  0
    0.0000    6.1217    0.0000 H   0  0  0  0  0  0  0  0  0  0  0  0
    0.0000    5.2922    0.0000 H   0  0  0  0  0  0  0  0  0  0  0  0
    5.1122    5.9190    0.0000 H   0  0  0  0  0  0  0  0  0  0  0  0
    4.4219    6.3176    0.0000 H   0  0  0  0  0  0  0  0  0  0  0  0
    4.4469    4.6289    0.0000 H   0  0  0  0  0  0  0  0  0  0  0  0
    5.1372    4.2304    0.0000 H   0  0  0  0  0  0  0  0  0  0  0  0
    6.6122    5.0530    0.0000 H   0  0  0  0  0  0  0  0  0  0  0  0
    5.9219    5.4515    0.0000 H   0  0  0  0  0  0  0  0  0  0  0  0
    5.9469    3.7629    0.0000 H   0  0  0  0  0  0  0  0  0  0  0  0
    6.6372    3.3643    0.0000 H   0  0  0  0  0  0  0  0  0  0  0  0
    7.4469    2.8968    0.0000 H   0  0  0  0  0  0  0  0  0  0  0  0
    8.1372    2.4983    0.0000 H   0  0  0  0  0  0  0  0  0  0  0  0
    8.1372    5.4515    0.0000 H   0  0  0  0  0  0  0  0  0  0  0  0
    7.4469    5.0530    0.0000 H   0  0  0  0  0  0  0  0  0  0  0  0
    8.9219    2.4983    0.0000 H   0  0  0  0  0  0  0  0  0  0  0  0
    9.6122    2.8968    0.0000 H   0  0  0  0  0  0  0  0  0  0  0  0
    9.6122    5.0530    0.0000 H   0  0  0  0  0  0  0  0  0  0  0  0
    8.9219    5.4515    0.0000 H   0  0  0  0  0  0  0  0  0  0  0  0
   10.7195    5.3779    0.0000 H   0  0  0  0  0  0  0  0  0  0  0  0
   10.7195    2.5720    0.0000 H   0  0  0  0  0  0  0  0  0  0  0  0
   12.3395    2.5720    0.0000 H   0  0  0  0  0  0  0  0  0  0  0  0
   13.1495    3.9749    0.0000 H   0  0  0  0  0  0  0  0  0  0  0  0
   12.2195    6.2439    0.0000 H   0  0  0  0  0  0  0  0  0  0  0  0
   14.4219    5.0964    0.0000 H   0  0  0  0  0  0  0  0  0  0  0  0
   15.1121    5.4949    0.0000 H   0  0  0  0  0  0  0  0  0  0  0  0
   15.5665    6.2630    0.0000 H   0  0  0  0  0  0  0  0  0  0  0  0
   15.3395    7.1099    0.0000 H   0  0  0  0  0  0  0  0  0  0  0  0
   14.4926    6.8830    0.0000 H   0  0  0  0  0  0  0  0  0  0  0  0
    8.2832    0.0000    0.0000 H   0  0  0  0  0  0  0  0  0  0  0  0
  1 67  1  0  0  0  0
  2  5  2  0  0  0  0
  2  6  2  0  0  0  0
  2 11  1  0  0  0  0
  2 32  1  0  0  0  0
  3 16  2  0  0  0  0
  4 17  2  0  0  0  0
  7 12  1  0  0  0  0
  7 14  1  0  0  0  0
  7 17  1  0  0  0  0
  8 16  1  0  0  0  0
  8 17  1  0  0  0  0
  8 18  1  0  0  0  0
  9 21  1  0  0  0  0
  9 22  1  0  0  0  0
  9 23  1  0  0  0  0
 10 24  1  0  0  0  0
 10 25  1  0  0  0  0
 10 26  1  0  0  0  0
 11 29  1  0  0  0  0
 11 61  1  0  0  0  0
 12 13  1  0  0  0  0
 12 16  1  0  0  0  0
 12 34  1  0  0  0  0
 13 15  1  0  0  0  0
 13 35  1  0  0  0  0
 13 36  1  0  0  0  0
 14 15  1  0  0  0  0
 14 37  1  0  0  0  0
 14 38  1  0  0  0  0
 15 39  1  0  0  0  0
 15 40  1  0  0  0  0
 18 19  1  0  0  0  0
 18 41  1  0  0  0  0
 18 42  1  0  0  0  0
 19 20  1  0  0  0  0
 19 43  1  0  0  0  0
 19 44  1  0  0  0  0
 20 21  1  0  0  0  0
 20 45  1  0  0  0  0
 20 46  1  0  0  0  0
 21 47  1  0  0  0  0
 21 48  1  0  0  0  0
 22 24  1  0  0  0  0
 22 49  1  0  0  0  0
 22 50  1  0  0  0  0
 23 25  1  0  0  0  0
 23 51  1  0  0  0  0
 23 52  1  0  0  0  0
 24 53  1  0  0  0  0
 24 54  1  0  0  0  0
 25 55  1  0  0  0  0
 25 56  1  0  0  0  0
 26 27  1  0  0  0  0
 26 28  2  0  0  0  0
 27 29  2  0  0  0  0
 27 57  1  0  0  0  0
 28 30  1  0  0  0  0
 28 58  1  0  0  0  0
 29 31  1  0  0  0  0
 30 31  2  0  0  0  0
 30 59  1  0  0  0  0
 31 60  1  0  0  0  0
 32 33  1  0  0  0  0
 32 62  1  0  0  0  0
 32 63  1  0  0  0  0
 33 64  1  0  0  0  0
 33 65  1  0  0  0  0
 33 66  1  0  0  0  0
M  END
> <PUBCHEM_COMPOUND_CID>
52941718

> <PUBCHEM_COMPOUND_CANONICALIZED>
1

> <PUBCHEM_CACTVS_COMPLEXITY>
778

> <PUBCHEM_CACTVS_HBOND_ACCEPTOR>
7

> <PUBCHEM_CACTVS_HBOND_DONOR>
2

> <PUBCHEM_CACTVS_ROTATABLE_BOND>
9

> <PUBCHEM_CACTVS_SUBSKEYS>
AAADcfB7uABEAAAAAAAAAAAAAAAAAWLAAAA8QAAAAAAWAAABAAAAHgQQQAAACCjF0ASzwINAAAKIACVSUHDCAAAhAgAIiAGIZIiIYDLA0fGUIAholyLIyAcYAQAAAAAAAAQAAAAAAAAACAAAAAAAAAAAAA==

> <PUBCHEM_IUPAC_OPENEYE_NAME>
N-[3-[4-[4-(1,3-dioxo-5,6,7,7a-tetrahydropyrrolo[1,2-c]imidazol-2-yl)butyl]piperazin-1-yl]phenyl]ethanesulfonamide;hydrochloride

> <PUBCHEM_IUPAC_CAS_NAME>
N-[3-[4-[4-(1,3-dioxo-5,6,7,7a-tetrahydropyrrolo[1,2-c]imidazol-2-yl)butyl]-1-piperazinyl]phenyl]ethanesulfonamide;hydrochloride

> <PUBCHEM_IUPAC_NAME_MARKUP>
<I>N</I>-[3-[4-[4-(1,3-dioxo-5,6,7,7<I>a</I>-tetrahydropyrrolo[1,2-c]imidazol-2-yl)butyl]piperazin-1-yl]phenyl]ethanesulfonamide;hydrochloride

> <PUBCHEM_IUPAC_NAME>
N-[3-[4-[4-(1,3-dioxo-5,6,7,7a-tetrahydropyrrolo[1,2-c]imidazol-2-yl)butyl]piperazin-1-yl]phenyl]ethanesulfonamide;hydrochloride

> <PUBCHEM_IUPAC_SYSTEMATIC_NAME>
N-[3-[4-[4-[1,3-bis(oxidanylidene)-5,6,7,7a-tetrahydropyrrolo[1,2-c]imidazol-2-yl]butyl]piperazin-1-yl]phenyl]ethanesulfonamide;hydrochloride

> <PUBCHEM_IUPAC_TRADITIONAL_NAME>
N-[3-[4-[4-(1,3-diketo-5,6,7,7a-tetrahydropyrrol[1,2-c]imidazol-2-yl)butyl]piperazino]phenyl]ethanesulfonamide;hydrochloride

> <PUBCHEM_IUPAC_INCHI>
InChI=1S/C22H33N5O4S.ClH/c1-2-32(30,31)23-18-7-5-8-19(17-18)25-15-13-24(14-16-25)10-3-4-11-27-21(28)20-9-6-12-26(20)22(27)29;/h5,7-8,17,20,23H,2-4,6,9-16H2,1H3;1H

> <PUBCHEM_IUPAC_INCHIKEY>
GQQHPWHBHFNFFC-UHFFFAOYSA-N

> <PUBCHEM_EXACT_MASS>
499.2020035

> <PUBCHEM_MOLECULAR_FORMULA>
C22H34ClN5O4S

> <PUBCHEM_MOLECULAR_WEIGHT>
500.1

> <PUBCHEM_OPENEYE_CAN_SMILES>
CCS(=O)(=O)NC1=CC(=CC=C1)N2CCN(CC2)CCCCN3C(=O)C4CCCN4C3=O.Cl

> <PUBCHEM_OPENEYE_ISO_SMILES>
CCS(=O)(=O)NC1=CC(=CC=C1)N2CCN(CC2)CCCCN3C(=O)C4CCCN4C3=O.Cl

> <PUBCHEM_CACTVS_TPSA>
102

> <PUBCHEM_MONOISOTOPIC_WEIGHT>
499.2020035

> <PUBCHEM_TOTAL_CHARGE>
0

> <PUBCHEM_HEAVY_ATOM_COUNT>
33

> <PUBCHEM_ATOM_DEF_STEREO_COUNT>
0

> <PUBCHEM_ATOM_UDEF_STEREO_COUNT>
1

> <PUBCHEM_BOND_DEF_STEREO_COUNT>
0

> <PUBCHEM_BOND_UDEF_STEREO_COUNT>
0

> <PUBCHEM_ISOTOPIC_ATOM_COUNT>
0

> <PUBCHEM_COMPONENT_COUNT>
2

> <PUBCHEM_CACTVS_TAUTO_COUNT>
-1

> <PUBCHEM_COORDINATE_TYPE>
1
5
255

> <PUBCHEM_BONDANNOTATIONS>
12  13  3
26  27  8
26  28  8
27  29  8
28  30  8
29  31  8
30  31  8

$$$$
