155567118
  -OEChem-09292322062D

 52 55  0     1  0  0  0  0  0999 V2000
    6.4203    1.3139    0.0000 O   0  0  0  0  0  0  0  0  0  0  0  0
    5.6405   -3.3199    0.0000 O   0  0  0  0  0  0  0  0  0  0  0  0
    3.8372   -4.3796    0.0000 O   0  0  0  0  0  0  0  0  0  0  0  0
    4.6622    4.3863    0.0000 O   0  0  0  0  0  0  0  0  0  0  0  0
    6.4361    3.3622    0.0000 O   0  0  0  0  0  0  0  0  0  0  0  0
    2.9180    0.3171    0.0000 N   0  0  3  0  0  0  0  0  0  0  0  0
    3.7841   -0.1829    0.0000 C   0  0  3  0  0  0  0  0  0  0  0  0
    4.6501    0.3171    0.0000 C   0  0  0  0  0  0  0  0  0  0  0  0
    2.0080   -0.1898    0.0000 C   0  0  0  0  0  0  0  0  0  0  0  0
    3.8001   -1.2244    0.0000 C   0  0  0  0  0  0  0  0  0  0  0  0
    2.9180    1.3171    0.0000 C   0  0  0  0  0  0  0  0  0  0  0  0
    2.0000   -1.2314    0.0000 C   0  0  0  0  0  0  0  0  0  0  0  0
    4.6501    1.3171    0.0000 C   0  0  0  0  0  0  0  0  0  0  0  0
    2.9021   -1.7522    0.0000 C   0  0  0  0  0  0  0  0  0  0  0  0
    3.7841    1.8171    0.0000 C   0  0  0  0  0  0  0  0  0  0  0  0
    4.7520   -1.7451    0.0000 C   0  0  0  0  0  0  0  0  0  0  0  0
    5.5601    1.8239    0.0000 C   0  0  0  0  0  0  0  0  0  0  0  0
    2.8937   -2.8372    0.0000 C   0  0  0  0  0  0  0  0  0  0  0  0
    3.7680    2.8586    0.0000 C   0  0  0  0  0  0  0  0  0  0  0  0
    4.7688   -2.8299    0.0000 C   0  0  0  0  0  0  0  0  0  0  0  0
    3.8334   -3.3796    0.0000 C   0  0  0  0  0  0  0  0  0  0  0  0
    5.5681    2.8655    0.0000 C   0  0  0  0  0  0  0  0  0  0  0  0
    4.6660    3.3863    0.0000 C   0  0  0  0  0  0  0  0  0  0  0  0
    7.2920    1.8039    0.0000 C   0  0  0  0  0  0  0  0  0  0  0  0
    5.6521   -4.3198    0.0000 C   0  0  0  0  0  0  0  0  0  0  0  0
    2.9731   -4.8830    0.0000 C   0  0  0  0  0  0  0  0  0  0  0  0
    3.7942    4.8830    0.0000 C   0  0  0  0  0  0  0  0  0  0  0  0
    4.3234   -0.4888    0.0000 H   0  0  0  0  0  0  0  0  0  0  0  0
    4.8621   -0.2655    0.0000 H   0  0  0  0  0  0  0  0  0  0  0  0
    5.2607    0.4247    0.0000 H   0  0  0  0  0  0  0  0  0  0  0  0
    1.8035    0.3955    0.0000 H   0  0  0  0  0  0  0  0  0  0  0  0
    1.3964   -0.2912    0.0000 H   0  0  0  0  0  0  0  0  0  0  0  0
    2.7060    1.8997    0.0000 H   0  0  0  0  0  0  0  0  0  0  0  0
    2.3074    1.2094    0.0000 H   0  0  0  0  0  0  0  0  0  0  0  0
    1.3900   -1.1206    0.0000 H   0  0  0  0  0  0  0  0  0  0  0  0
    1.7864   -1.8134    0.0000 H   0  0  0  0  0  0  0  0  0  0  0  0
    5.2829   -1.4248    0.0000 H   0  0  0  0  0  0  0  0  0  0  0  0
    2.3556   -3.1451    0.0000 H   0  0  0  0  0  0  0  0  0  0  0  0
    3.2275    3.1624    0.0000 H   0  0  0  0  0  0  0  0  0  0  0  0
    6.4384    3.9822    0.0000 H   0  0  0  0  0  0  0  0  0  0  0  0
    7.5958    1.2634    0.0000 H   0  0  0  0  0  0  0  0  0  0  0  0
    7.8325    2.1077    0.0000 H   0  0  0  0  0  0  0  0  0  0  0  0
    6.9882    2.3444    0.0000 H   0  0  0  0  0  0  0  0  0  0  0  0
    5.0321   -4.3270    0.0000 H   0  0  0  0  0  0  0  0  0  0  0  0
    5.6592   -4.9398    0.0000 H   0  0  0  0  0  0  0  0  0  0  0  0
    6.2720   -4.3126    0.0000 H   0  0  0  0  0  0  0  0  0  0  0  0
    2.6610   -4.3472    0.0000 H   0  0  0  0  0  0  0  0  0  0  0  0
    2.4374   -5.1950    0.0000 H   0  0  0  0  0  0  0  0  0  0  0  0
    3.2852   -5.4187    0.0000 H   0  0  0  0  0  0  0  0  0  0  0  0
    4.1022    5.4211    0.0000 H   0  0  0  0  0  0  0  0  0  0  0  0
    3.2561    5.1909    0.0000 H   0  0  0  0  0  0  0  0  0  0  0  0
    3.4863    4.3448    0.0000 H   0  0  0  0  0  0  0  0  0  0  0  0
  1 17  1  0  0  0  0
  1 24  1  0  0  0  0
  2 20  1  0  0  0  0
  2 25  1  0  0  0  0
  3 21  1  0  0  0  0
  3 26  1  0  0  0  0
  4 23  1  0  0  0  0
  4 27  1  0  0  0  0
  5 22  1  0  0  0  0
  5 40  1  0  0  0  0
  6  7  1  0  0  0  0
  6  9  1  0  0  0  0
  6 11  1  0  0  0  0
  7  8  1  0  0  0  0
  7 10  1  0  0  0  0
  7 28  1  0  0  0  0
  8 13  1  0  0  0  0
  8 29  1  0  0  0  0
  8 30  1  0  0  0  0
  9 12  1  0  0  0  0
  9 31  1  0  0  0  0
  9 32  1  0  0  0  0
 10 14  1  0  0  0  0
 10 16  2  0  0  0  0
 11 15  1  0  0  0  0
 11 33  1  0  0  0  0
 11 34  1  0  0  0  0
 12 14  1  0  0  0  0
 12 35  1  0  0  0  0
 12 36  1  0  0  0  0
 13 15  1  0  0  0  0
 13 17  2  0  0  0  0
 14 18  2  0  0  0  0
 15 19  2  0  0  0  0
 16 20  1  0  0  0  0
 16 37  1  0  0  0  0
 17 22  1  0  0  0  0
 18 21  1  0  0  0  0
 18 38  1  0  0  0  0
 19 23  1  0  0  0  0
 19 39  1  0  0  0  0
 20 21  2  0  0  0  0
 22 23  2  0  0  0  0
 24 41  1  0  0  0  0
 24 42  1  0  0  0  0
 24 43  1  0  0  0  0
 25 44  1  0  0  0  0
 25 45  1  0  0  0  0
 25 46  1  0  0  0  0
 26 47  1  0  0  0  0
 26 48  1  0  0  0  0
 26 49  1  0  0  0  0
 27 50  1  0  0  0  0
 27 51  1  0  0  0  0
 27 52  1  0  0  0  0
M  END
> <PUBCHEM_COMPOUND_CID>
155567118

> <PUBCHEM_COMPOUND_CANONICALIZED>
1

> <PUBCHEM_CACTVS_COMPLEXITY>
505

> <PUBCHEM_CACTVS_HBOND_ACCEPTOR>
6

> <PUBCHEM_CACTVS_HBOND_DONOR>
1

> <PUBCHEM_CACTVS_ROTATABLE_BOND>
4

> <PUBCHEM_CACTVS_SUBSKEYS>
AAADceB6OAAAAAAAAAAAAAAAAAAAAAAAAAA8eIEAAAAAAACxQAAAHgAACAAADCzBmAYyBoMABgCAAiBCAACCCAAgIAAAiAAOjIgNJyKGsRuEcCtlwBWLuAew8P8OoAABCAAYQABAAAIQADCAAAAAAAAAAA==

> <PUBCHEM_IUPAC_OPENEYE_NAME>
2,3,10,12-tetramethoxy-6,8,13,13a-tetrahydro-5H-isoquinolino[2,1-b]isoquinolin-11-ol

> <PUBCHEM_IUPAC_CAS_NAME>
2,3,10,12-tetramethoxy-6,8,13,13a-tetrahydro-5H-isoquinolino[2,1-b]isoquinolin-11-ol

> <PUBCHEM_IUPAC_NAME_MARKUP>
2,3,10,12-tetramethoxy-6,8,13,13<I>a</I>-tetrahydro-5<I>H</I>-isoquinolino[2,1-b]isoquinolin-11-ol

> <PUBCHEM_IUPAC_NAME>
2,3,10,12-tetramethoxy-6,8,13,13a-tetrahydro-5H-isoquinolino[2,1-b]isoquinolin-11-ol

> <PUBCHEM_IUPAC_SYSTEMATIC_NAME>
2,3,10,12-tetramethoxy-6,8,13,13a-tetrahydro-5H-isoquinolino[2,1-b]isoquinolin-11-ol

> <PUBCHEM_IUPAC_TRADITIONAL_NAME>
2,3,10,12-tetramethoxy-6,8,13,13a-tetrahydro-5H-isoquinolin[2,1-b]isoquinolin-11-ol

> <PUBCHEM_IUPAC_INCHI>
InChI=1S/C21H25NO5/c1-24-17-7-12-5-6-22-11-13-8-19(26-3)20(23)21(27-4)15(13)9-16(22)14(12)10-18(17)25-2/h7-8,10,16,23H,5-6,9,11H2,1-4H3

> <PUBCHEM_IUPAC_INCHIKEY>
NWYYBDGDVQCHHQ-UHFFFAOYSA-N

> <PUBCHEM_XLOGP3_AA>
2.9

> <PUBCHEM_EXACT_MASS>
371.17327290

> <PUBCHEM_MOLECULAR_FORMULA>
C21H25NO5

> <PUBCHEM_MOLECULAR_WEIGHT>
371.4

> <PUBCHEM_OPENEYE_CAN_SMILES>
COC1=C(C=C2C3CC4=C(C(=C(C=C4CN3CCC2=C1)OC)O)OC)OC

> <PUBCHEM_OPENEYE_ISO_SMILES>
COC1=C(C=C2C3CC4=C(C(=C(C=C4CN3CCC2=C1)OC)O)OC)OC

> <PUBCHEM_CACTVS_TPSA>
60.4

> <PUBCHEM_MONOISOTOPIC_WEIGHT>
371.17327290

> <PUBCHEM_TOTAL_CHARGE>
0

> <PUBCHEM_HEAVY_ATOM_COUNT>
27

> <PUBCHEM_ATOM_DEF_STEREO_COUNT>
0

> <PUBCHEM_ATOM_UDEF_STEREO_COUNT>
1

> <PUBCHEM_BOND_DEF_STEREO_COUNT>
0

> <PUBCHEM_BOND_UDEF_STEREO_COUNT>
0

> <PUBCHEM_ISOTOPIC_ATOM_COUNT>
0

> <PUBCHEM_COMPONENT_COUNT>
1

> <PUBCHEM_CACTVS_TAUTO_COUNT>
-1

> <PUBCHEM_COORDINATE_TYPE>
1
5
255

> <PUBCHEM_BONDANNOTATIONS>
10  14  8
10  16  8
13  15  8
13  17  8
14  18  8
15  19  8
16  20  8
17  22  8
18  21  8
19  23  8
20  21  8
22  23  8
7  8  3

$$$$
