46889013
  -OEChem-09292322292D

 61 64  0     0  0  0  0  0  0999 V2000
    3.0000    1.3273    0.0000 S   0  0  0  0  0  0  0  0  0  0  0  0
    3.0000   -1.6727    0.0000 F   0  0  0  0  0  0  0  0  0  0  0  0
   11.6603   -1.6727    0.0000 O   0  0  0  0  0  0  0  0  0  0  0  0
    6.4641    0.3273    0.0000 O   0  0  0  0  0  0  0  0  0  0  0  0
   16.9224   -1.6968    0.0000 O   0  0  0  0  0  0  0  0  0  0  0  0
    2.0000    1.3273    0.0000 O   0  0  0  0  0  0  0  0  0  0  0  0
    4.0000    1.3273    0.0000 O   0  0  0  0  0  0  0  0  0  0  0  0
    9.0622   -0.1727    0.0000 N   0  0  0  0  0  0  0  0  0  0  0  0
   15.1523   -1.7074    0.0000 N   0  0  0  0  0  0  0  0  0  0  0  0
    3.0000    0.3273    0.0000 N   0  0  0  0  0  0  0  0  0  0  0  0
   10.7942   -1.1727    0.0000 C   0  0  0  0  0  0  0  0  0  0  0  0
    9.9282   -1.6727    0.0000 C   0  0  0  0  0  0  0  0  0  0  0  0
   10.7942   -0.1727    0.0000 C   0  0  0  0  0  0  0  0  0  0  0  0
    9.0622   -1.1727    0.0000 C   0  0  0  0  0  0  0  0  0  0  0  0
    9.9282    0.3273    0.0000 C   0  0  0  0  0  0  0  0  0  0  0  0
    8.1962    0.3273    0.0000 C   0  0  0  0  0  0  0  0  0  0  0  0
    7.3301   -0.1727    0.0000 C   0  0  0  0  0  0  0  0  0  0  0  0
   12.5263   -1.1727    0.0000 C   0  0  0  0  0  0  0  0  0  0  0  0
   13.3923   -1.6727    0.0000 C   0  0  0  0  0  0  0  0  0  0  0  0
   14.2583   -0.1727    0.0000 C   0  0  0  0  0  0  0  0  0  0  0  0
   14.2583   -1.1727    0.0000 C   0  0  0  0  0  0  0  0  0  0  0  0
   12.5263   -0.1727    0.0000 C   0  0  0  0  0  0  0  0  0  0  0  0
   15.1523    0.3620    0.0000 C   0  0  0  0  0  0  0  0  0  0  0  0
   13.3923    0.3273    0.0000 C   0  0  0  0  0  0  0  0  0  0  0  0
   16.0583   -0.1519    0.0000 C   0  0  0  0  0  0  0  0  0  0  0  0
   16.0583   -1.1935    0.0000 C   0  0  0  0  0  0  0  0  0  0  0  0
    5.5981   -0.1727    0.0000 C   0  0  0  0  0  0  0  0  0  0  0  0
    4.7320    0.3273    0.0000 C   0  0  0  0  0  0  0  0  0  0  0  0
    5.5981   -1.1727    0.0000 C   0  0  0  0  0  0  0  0  0  0  0  0
    3.8660   -0.1727    0.0000 C   0  0  0  0  0  0  0  0  0  0  0  0
    4.7320   -1.6727    0.0000 C   0  0  0  0  0  0  0  0  0  0  0  0
    3.8660   -1.1727    0.0000 C   0  0  0  0  0  0  0  0  0  0  0  0
    3.0000    2.3273    0.0000 C   0  0  0  0  0  0  0  0  0  0  0  0
   10.7942   -1.7927    0.0000 H   0  0  0  0  0  0  0  0  0  0  0  0
    9.5297   -2.1476    0.0000 H   0  0  0  0  0  0  0  0  0  0  0  0
   10.3267   -2.1476    0.0000 H   0  0  0  0  0  0  0  0  0  0  0  0
   11.4048   -0.2804    0.0000 H   0  0  0  0  0  0  0  0  0  0  0  0
   11.0063    0.4099    0.0000 H   0  0  0  0  0  0  0  0  0  0  0  0
    8.4516   -1.0650    0.0000 H   0  0  0  0  0  0  0  0  0  0  0  0
    8.8501   -1.7553    0.0000 H   0  0  0  0  0  0  0  0  0  0  0  0
   10.3267    0.8023    0.0000 H   0  0  0  0  0  0  0  0  0  0  0  0
    9.5297    0.8023    0.0000 H   0  0  0  0  0  0  0  0  0  0  0  0
    8.5947    0.8023    0.0000 H   0  0  0  0  0  0  0  0  0  0  0  0
    7.7976    0.8023    0.0000 H   0  0  0  0  0  0  0  0  0  0  0  0
    6.9316   -0.6476    0.0000 H   0  0  0  0  0  0  0  0  0  0  0  0
    7.7287   -0.6476    0.0000 H   0  0  0  0  0  0  0  0  0  0  0  0
   13.3923   -2.2927    0.0000 H   0  0  0  0  0  0  0  0  0  0  0  0
   11.9893    0.1373    0.0000 H   0  0  0  0  0  0  0  0  0  0  0  0
   15.5459    0.8410    0.0000 H   0  0  0  0  0  0  0  0  0  0  0  0
   14.7477    0.8318    0.0000 H   0  0  0  0  0  0  0  0  0  0  0  0
   13.3923    0.9473    0.0000 H   0  0  0  0  0  0  0  0  0  0  0  0
   16.6692   -0.2580    0.0000 H   0  0  0  0  0  0  0  0  0  0  0  0
   16.2674    0.4318    0.0000 H   0  0  0  0  0  0  0  0  0  0  0  0
   15.1451   -2.3273    0.0000 H   0  0  0  0  0  0  0  0  0  0  0  0
    4.7320    0.9473    0.0000 H   0  0  0  0  0  0  0  0  0  0  0  0
    6.1350   -1.4827    0.0000 H   0  0  0  0  0  0  0  0  0  0  0  0
    4.7320   -2.2927    0.0000 H   0  0  0  0  0  0  0  0  0  0  0  0
    2.4631    0.0173    0.0000 H   0  0  0  0  0  0  0  0  0  0  0  0
    3.6200    2.3273    0.0000 H   0  0  0  0  0  0  0  0  0  0  0  0
    3.0000    2.9473    0.0000 H   0  0  0  0  0  0  0  0  0  0  0  0
    2.3800    2.3273    0.0000 H   0  0  0  0  0  0  0  0  0  0  0  0
  1  6  2  0  0  0  0
  1  7  2  0  0  0  0
  1 10  1  0  0  0  0
  1 33  1  0  0  0  0
  2 32  1  0  0  0  0
  3 11  1  0  0  0  0
  3 18  1  0  0  0  0
  4 17  1  0  0  0  0
  4 27  1  0  0  0  0
  5 26  2  0  0  0  0
  8 14  1  0  0  0  0
  8 15  1  0  0  0  0
  8 16  1  0  0  0  0
  9 21  1  0  0  0  0
  9 26  1  0  0  0  0
  9 54  1  0  0  0  0
 10 30  1  0  0  0  0
 10 58  1  0  0  0  0
 11 12  1  0  0  0  0
 11 13  1  0  0  0  0
 11 34  1  0  0  0  0
 12 14  1  0  0  0  0
 12 35  1  0  0  0  0
 12 36  1  0  0  0  0
 13 15  1  0  0  0  0
 13 37  1  0  0  0  0
 13 38  1  0  0  0  0
 14 39  1  0  0  0  0
 14 40  1  0  0  0  0
 15 41  1  0  0  0  0
 15 42  1  0  0  0  0
 16 17  1  0  0  0  0
 16 43  1  0  0  0  0
 16 44  1  0  0  0  0
 17 45  1  0  0  0  0
 17 46  1  0  0  0  0
 18 19  2  0  0  0  0
 18 22  1  0  0  0  0
 19 21  1  0  0  0  0
 19 47  1  0  0  0  0
 20 21  2  0  0  0  0
 20 23  1  0  0  0  0
 20 24  1  0  0  0  0
 22 24  2  0  0  0  0
 22 48  1  0  0  0  0
 23 25  1  0  0  0  0
 23 49  1  0  0  0  0
 23 50  1  0  0  0  0
 24 51  1  0  0  0  0
 25 26  1  0  0  0  0
 25 52  1  0  0  0  0
 25 53  1  0  0  0  0
 27 28  2  0  0  0  0
 27 29  1  0  0  0  0
 28 30  1  0  0  0  0
 28 55  1  0  0  0  0
 29 31  2  0  0  0  0
 29 56  1  0  0  0  0
 30 32  2  0  0  0  0
 31 32  1  0  0  0  0
 31 57  1  0  0  0  0
 33 59  1  0  0  0  0
 33 60  1  0  0  0  0
 33 61  1  0  0  0  0
M  END
> <PUBCHEM_COMPOUND_CID>
46889013

> <PUBCHEM_COMPOUND_CANONICALIZED>
1

> <PUBCHEM_CACTVS_COMPLEXITY>
756

> <PUBCHEM_CACTVS_HBOND_ACCEPTOR>
8

> <PUBCHEM_CACTVS_HBOND_DONOR>
2

> <PUBCHEM_CACTVS_ROTATABLE_BOND>
8

> <PUBCHEM_CACTVS_SUBSKEYS>
AAADceB7OQBAAAAAAAAAAAAAAAAAAAAAAAA8eIEAAAAAAACxQAAAHwQQQAAADBzhmA6yxoPABAKIAiVSUHCCCAAhIgAIiAEObIgOJjLEsZuHOCjm1BnY6AeY2aOeIAAAAgACAABAAAAEAAQAAAAAAAAAAA==

> <PUBCHEM_IUPAC_OPENEYE_NAME>
N-[2-fluoro-5-[2-[4-[(2-oxo-3,4-dihydro-1H-quinolin-7-yl)oxy]-1-piperidyl]ethoxy]phenyl]methanesulfonamide

> <PUBCHEM_IUPAC_CAS_NAME>
N-[2-fluoro-5-[2-[4-[(2-oxo-3,4-dihydro-1H-quinolin-7-yl)oxy]-1-piperidinyl]ethoxy]phenyl]methanesulfonamide

> <PUBCHEM_IUPAC_NAME_MARKUP>
<I>N</I>-[2-fluoro-5-[2-[4-[(2-oxo-3,4-dihydro-1<I>H</I>-quinolin-7-yl)oxy]piperidin-1-yl]ethoxy]phenyl]methanesulfonamide

> <PUBCHEM_IUPAC_NAME>
N-[2-fluoro-5-[2-[4-[(2-oxo-3,4-dihydro-1H-quinolin-7-yl)oxy]piperidin-1-yl]ethoxy]phenyl]methanesulfonamide

> <PUBCHEM_IUPAC_SYSTEMATIC_NAME>
N-[2-fluoranyl-5-[2-[4-[(2-oxidanylidene-3,4-dihydro-1H-quinolin-7-yl)oxy]piperidin-1-yl]ethoxy]phenyl]methanesulfonamide

> <PUBCHEM_IUPAC_TRADITIONAL_NAME>
N-[2-fluoro-5-[2-[4-[(2-keto-3,4-dihydro-1H-quinolin-7-yl)oxy]piperidino]ethoxy]phenyl]methanesulfonamide

> <PUBCHEM_IUPAC_INCHI>
InChI=1S/C23H28FN3O5S/c1-33(29,30)26-22-14-18(5-6-20(22)24)31-13-12-27-10-8-17(9-11-27)32-19-4-2-16-3-7-23(28)25-21(16)15-19/h2,4-6,14-15,17,26H,3,7-13H2,1H3,(H,25,28)

> <PUBCHEM_IUPAC_INCHIKEY>
PKONVMZWQJFPLP-UHFFFAOYSA-N

> <PUBCHEM_XLOGP3_AA>
2.4

> <PUBCHEM_EXACT_MASS>
477.17337034

> <PUBCHEM_MOLECULAR_FORMULA>
C23H28FN3O5S

> <PUBCHEM_MOLECULAR_WEIGHT>
477.6

> <PUBCHEM_OPENEYE_CAN_SMILES>
CS(=O)(=O)NC1=C(C=CC(=C1)OCCN2CCC(CC2)OC3=CC4=C(CCC(=O)N4)C=C3)F

> <PUBCHEM_OPENEYE_ISO_SMILES>
CS(=O)(=O)NC1=C(C=CC(=C1)OCCN2CCC(CC2)OC3=CC4=C(CCC(=O)N4)C=C3)F

> <PUBCHEM_CACTVS_TPSA>
105

> <PUBCHEM_MONOISOTOPIC_WEIGHT>
477.17337034

> <PUBCHEM_TOTAL_CHARGE>
0

> <PUBCHEM_HEAVY_ATOM_COUNT>
33

> <PUBCHEM_ATOM_DEF_STEREO_COUNT>
0

> <PUBCHEM_ATOM_UDEF_STEREO_COUNT>
0

> <PUBCHEM_BOND_DEF_STEREO_COUNT>
0

> <PUBCHEM_BOND_UDEF_STEREO_COUNT>
0

> <PUBCHEM_ISOTOPIC_ATOM_COUNT>
0

> <PUBCHEM_COMPONENT_COUNT>
1

> <PUBCHEM_CACTVS_TAUTO_COUNT>
-1

> <PUBCHEM_COORDINATE_TYPE>
1
5
255

> <PUBCHEM_BONDANNOTATIONS>
18  19  8
18  22  8
19  21  8
20  21  8
20  24  8
22  24  8
27  28  8
27  29  8
28  30  8
29  31  8
30  32  8
31  32  8

$$$$
