9820048
  -OEChem-09292322152D

 47 50  0     1  0  0  0  0  0999 V2000
    8.9962    4.0600    0.0000 Cl  0  0  0  0  0  0  0  0  0  0  0  0
    6.3981   -3.4400    0.0000 O   0  0  0  0  0  0  0  0  0  0  0  0
    6.3981   -1.4400    0.0000 N   0  0  0  0  0  0  0  0  0  0  0  0
    8.1301   -0.4400    0.0000 N   0  0  0  0  0  0  0  0  0  0  0  0
    4.6660   -3.4400    0.0000 N   0  0  0  0  0  0  0  0  0  0  0  0
    5.5321   -1.9400    0.0000 C   0  0  3  0  0  0  0  0  0  0  0  0
    6.3981   -0.4400    0.0000 C   0  0  0  0  0  0  0  0  0  0  0  0
    7.2641   -1.9400    0.0000 C   0  0  0  0  0  0  0  0  0  0  0  0
    7.2641    0.0600    0.0000 C   0  0  0  0  0  0  0  0  0  0  0  0
    8.1301   -1.4400    0.0000 C   0  0  0  0  0  0  0  0  0  0  0  0
    4.6660   -1.4400    0.0000 C   0  0  0  0  0  0  0  0  0  0  0  0
    5.5321   -2.9400    0.0000 C   0  0  0  0  0  0  0  0  0  0  0  0
    8.9962    0.0600    0.0000 C   0  0  0  0  0  0  0  0  0  0  0  0
    3.8000   -1.9400    0.0000 C   0  0  0  0  0  0  0  0  0  0  0  0
    3.8000   -2.9400    0.0000 C   0  0  0  0  0  0  0  0  0  0  0  0
    8.9962    1.0600    0.0000 C   0  0  0  0  0  0  0  0  0  0  0  0
    2.9061   -1.4053    0.0000 C   0  0  0  0  0  0  0  0  0  0  0  0
    2.9061   -3.4747    0.0000 C   0  0  0  0  0  0  0  0  0  0  0  0
    2.0000   -1.9192    0.0000 C   0  0  0  0  0  0  0  0  0  0  0  0
    2.0000   -2.9608    0.0000 C   0  0  0  0  0  0  0  0  0  0  0  0
    8.1301    1.5600    0.0000 C   0  0  0  0  0  0  0  0  0  0  0  0
    9.8622    1.5600    0.0000 C   0  0  0  0  0  0  0  0  0  0  0  0
    8.1301    2.5600    0.0000 C   0  0  0  0  0  0  0  0  0  0  0  0
    9.8622    2.5600    0.0000 C   0  0  0  0  0  0  0  0  0  0  0  0
    8.9962    3.0600    0.0000 C   0  0  0  0  0  0  0  0  0  0  0  0
    5.5321   -1.3200    0.0000 H   0  0  0  0  0  0  0  0  0  0  0  0
    6.1860    0.1426    0.0000 H   0  0  0  0  0  0  0  0  0  0  0  0
    5.7875   -0.5477    0.0000 H   0  0  0  0  0  0  0  0  0  0  0  0
    6.8656   -2.4150    0.0000 H   0  0  0  0  0  0  0  0  0  0  0  0
    7.6626   -2.4150    0.0000 H   0  0  0  0  0  0  0  0  0  0  0  0
    7.6626    0.5349    0.0000 H   0  0  0  0  0  0  0  0  0  0  0  0
    6.8656    0.5349    0.0000 H   0  0  0  0  0  0  0  0  0  0  0  0
    8.3422   -2.0226    0.0000 H   0  0  0  0  0  0  0  0  0  0  0  0
    8.7407   -1.3323    0.0000 H   0  0  0  0  0  0  0  0  0  0  0  0
    5.0646   -0.9651    0.0000 H   0  0  0  0  0  0  0  0  0  0  0  0
    4.2675   -0.9651    0.0000 H   0  0  0  0  0  0  0  0  0  0  0  0
    9.2082   -0.5226    0.0000 H   0  0  0  0  0  0  0  0  0  0  0  0
    9.6067    0.1677    0.0000 H   0  0  0  0  0  0  0  0  0  0  0  0
    4.6660   -4.0600    0.0000 H   0  0  0  0  0  0  0  0  0  0  0  0
    2.9132   -0.7854    0.0000 H   0  0  0  0  0  0  0  0  0  0  0  0
    2.9132   -4.0946    0.0000 H   0  0  0  0  0  0  0  0  0  0  0  0
    1.4643   -1.6071    0.0000 H   0  0  0  0  0  0  0  0  0  0  0  0
    1.4643   -3.2729    0.0000 H   0  0  0  0  0  0  0  0  0  0  0  0
    7.5932    1.2500    0.0000 H   0  0  0  0  0  0  0  0  0  0  0  0
   10.3991    1.2500    0.0000 H   0  0  0  0  0  0  0  0  0  0  0  0
    7.5932    2.8700    0.0000 H   0  0  0  0  0  0  0  0  0  0  0  0
   10.3991    2.8700    0.0000 H   0  0  0  0  0  0  0  0  0  0  0  0
  1 25  1  0  0  0  0
  2 12  2  0  0  0  0
  3  6  1  0  0  0  0
  3  7  1  0  0  0  0
  3  8  1  0  0  0  0
  4  9  1  0  0  0  0
  4 10  1  0  0  0  0
  4 13  1  0  0  0  0
  5 12  1  0  0  0  0
  5 15  1  0  0  0  0
  5 39  1  0  0  0  0
  6 11  1  0  0  0  0
  6 12  1  0  0  0  0
  6 26  1  0  0  0  0
  7  9  1  0  0  0  0
  7 27  1  0  0  0  0
  7 28  1  0  0  0  0
  8 10  1  0  0  0  0
  8 29  1  0  0  0  0
  8 30  1  0  0  0  0
  9 31  1  0  0  0  0
  9 32  1  0  0  0  0
 10 33  1  0  0  0  0
 10 34  1  0  0  0  0
 11 14  1  0  0  0  0
 11 35  1  0  0  0  0
 11 36  1  0  0  0  0
 13 16  1  0  0  0  0
 13 37  1  0  0  0  0
 13 38  1  0  0  0  0
 14 15  1  0  0  0  0
 14 17  2  0  0  0  0
 15 18  2  0  0  0  0
 16 21  2  0  0  0  0
 16 22  1  0  0  0  0
 17 19  1  0  0  0  0
 17 40  1  0  0  0  0
 18 20  1  0  0  0  0
 18 41  1  0  0  0  0
 19 20  2  0  0  0  0
 19 42  1  0  0  0  0
 20 43  1  0  0  0  0
 21 23  1  0  0  0  0
 21 44  1  0  0  0  0
 22 24  2  0  0  0  0
 22 45  1  0  0  0  0
 23 25  2  0  0  0  0
 23 46  1  0  0  0  0
 24 25  1  0  0  0  0
 24 47  1  0  0  0  0
M  END
> <PUBCHEM_COMPOUND_CID>
9820048

> <PUBCHEM_COMPOUND_CANONICALIZED>
1

> <PUBCHEM_CACTVS_COMPLEXITY>
458

> <PUBCHEM_CACTVS_HBOND_ACCEPTOR>
3

> <PUBCHEM_CACTVS_HBOND_DONOR>
1

> <PUBCHEM_CACTVS_ROTATABLE_BOND>
3

> <PUBCHEM_CACTVS_SUBSKEYS>
AAADceB7IAAEAAAAAAAAAAAAAAAAAAAAAAA8eIEAAAAAAACxQAAAHgIQAAAADCrBmCQwwIPAAACIAiVSUACCAAAhBwAIiAGIZogIYDLBk7GUIAhglADIyAcYiYCeBAAAAAACAAAIAAAAAAQAAAAAAAAAAA==

> <PUBCHEM_IUPAC_OPENEYE_NAME>
3-[4-[(4-chlorophenyl)methyl]piperazin-1-yl]-3,4-dihydro-1H-quinolin-2-one

> <PUBCHEM_IUPAC_CAS_NAME>
3-[4-[(4-chlorophenyl)methyl]-1-piperazinyl]-3,4-dihydro-1H-quinolin-2-one

> <PUBCHEM_IUPAC_NAME_MARKUP>
3-[4-[(4-chlorophenyl)methyl]piperazin-1-yl]-3,4-dihydro-1<I>H</I>-quinolin-2-one

> <PUBCHEM_IUPAC_NAME>
3-[4-[(4-chlorophenyl)methyl]piperazin-1-yl]-3,4-dihydro-1H-quinolin-2-one

> <PUBCHEM_IUPAC_SYSTEMATIC_NAME>
3-[4-[(4-chlorophenyl)methyl]piperazin-1-yl]-3,4-dihydro-1H-quinolin-2-one

> <PUBCHEM_IUPAC_TRADITIONAL_NAME>
3-[4-(4-chlorobenzyl)piperazino]-3,4-dihydrocarbostyril

> <PUBCHEM_IUPAC_INCHI>
InChI=1S/C20H22ClN3O/c21-17-7-5-15(6-8-17)14-23-9-11-24(12-10-23)19-13-16-3-1-2-4-18(16)22-20(19)25/h1-8,19H,9-14H2,(H,22,25)

> <PUBCHEM_IUPAC_INCHIKEY>
NKJVFWPJNBYTCK-UHFFFAOYSA-N

> <PUBCHEM_XLOGP3_AA>
3.2

> <PUBCHEM_EXACT_MASS>
355.1451400

> <PUBCHEM_MOLECULAR_FORMULA>
C20H22ClN3O

> <PUBCHEM_MOLECULAR_WEIGHT>
355.9

> <PUBCHEM_OPENEYE_CAN_SMILES>
C1CN(CCN1CC2=CC=C(C=C2)Cl)C3CC4=CC=CC=C4NC3=O

> <PUBCHEM_OPENEYE_ISO_SMILES>
C1CN(CCN1CC2=CC=C(C=C2)Cl)C3CC4=CC=CC=C4NC3=O

> <PUBCHEM_CACTVS_TPSA>
35.6

> <PUBCHEM_MONOISOTOPIC_WEIGHT>
355.1451400

> <PUBCHEM_TOTAL_CHARGE>
0

> <PUBCHEM_HEAVY_ATOM_COUNT>
25

> <PUBCHEM_ATOM_DEF_STEREO_COUNT>
0

> <PUBCHEM_ATOM_UDEF_STEREO_COUNT>
1

> <PUBCHEM_BOND_DEF_STEREO_COUNT>
0

> <PUBCHEM_BOND_UDEF_STEREO_COUNT>
0

> <PUBCHEM_ISOTOPIC_ATOM_COUNT>
0

> <PUBCHEM_COMPONENT_COUNT>
1

> <PUBCHEM_CACTVS_TAUTO_COUNT>
-1

> <PUBCHEM_COORDINATE_TYPE>
1
5
255

> <PUBCHEM_BONDANNOTATIONS>
14  15  8
14  17  8
15  18  8
16  21  8
16  22  8
17  19  8
18  20  8
19  20  8
21  23  8
22  24  8
23  25  8
24  25  8
6  3  3

$$$$
