162677207
  -OEChem-09292322062D

 57 60  0     0  0  0  0  0  0999 V2000
    2.0000   -3.2071    0.0000 Cl  0  0  0  0  0  0  0  0  0  0  0  0
    2.0000   -5.2071    0.0000 Cl  0  0  0  0  0  0  0  0  0  0  0  0
    5.4641    5.2071    0.0000 O   0  0  0  0  0  0  0  0  0  0  0  0
    6.3301    1.2929    0.0000 O   0  0  0  0  0  0  0  0  0  0  0  0
    3.7320   -0.2071    0.0000 N   0  0  0  0  0  0  0  0  0  0  0  0
    5.4641    2.7929    0.0000 N   0  0  0  0  0  0  0  0  0  0  0  0
    3.7320   -2.2071    0.0000 N   0  0  0  0  0  0  0  0  0  0  0  0
    5.4641    3.7929    0.0000 C   0  0  0  0  0  0  0  0  0  0  0  0
    3.7320    0.7929    0.0000 C   0  0  0  0  0  0  0  0  0  0  0  0
    4.5981   -0.7071    0.0000 C   0  0  0  0  0  0  0  0  0  0  0  0
    2.8660   -0.7071    0.0000 C   0  0  0  0  0  0  0  0  0  0  0  0
    4.5981    1.2929    0.0000 C   0  0  0  0  0  0  0  0  0  0  0  0
    4.5981    2.2929    0.0000 C   0  0  0  0  0  0  0  0  0  0  0  0
    4.5981   -1.7071    0.0000 C   0  0  0  0  0  0  0  0  0  0  0  0
    2.8660   -1.7071    0.0000 C   0  0  0  0  0  0  0  0  0  0  0  0
    4.7570    4.5000    0.0000 C   0  0  0  0  0  0  0  0  0  0  0  0
    6.1712    4.5000    0.0000 C   0  0  0  0  0  0  0  0  0  0  0  0
    6.3301    2.2929    0.0000 C   0  0  0  0  0  0  0  0  0  0  0  0
    3.7320   -3.2071    0.0000 C   0  0  0  0  0  0  0  0  0  0  0  0
    7.1962    2.7929    0.0000 C   0  0  0  0  0  0  0  0  0  0  0  0
    2.8660   -3.7071    0.0000 C   0  0  0  0  0  0  0  0  0  0  0  0
    4.5981   -3.7071    0.0000 C   0  0  0  0  0  0  0  0  0  0  0  0
    2.8660   -4.7071    0.0000 C   0  0  0  0  0  0  0  0  0  0  0  0
    4.5981   -4.7071    0.0000 C   0  0  0  0  0  0  0  0  0  0  0  0
    8.0622    2.2929    0.0000 C   0  0  0  0  0  0  0  0  0  0  0  0
    7.1962    3.7929    0.0000 C   0  0  0  0  0  0  0  0  0  0  0  0
    3.7320   -5.2071    0.0000 C   0  0  0  0  0  0  0  0  0  0  0  0
    8.9282    2.7929    0.0000 C   0  0  0  0  0  0  0  0  0  0  0  0
    8.0622    4.2929    0.0000 C   0  0  0  0  0  0  0  0  0  0  0  0
    8.9282    3.7929    0.0000 C   0  0  0  0  0  0  0  0  0  0  0  0
    6.0369    3.5556    0.0000 H   0  0  0  0  0  0  0  0  0  0  0  0
    3.5200    1.3755    0.0000 H   0  0  0  0  0  0  0  0  0  0  0  0
    3.1215    0.6852    0.0000 H   0  0  0  0  0  0  0  0  0  0  0  0
    5.2087   -0.8148    0.0000 H   0  0  0  0  0  0  0  0  0  0  0  0
    4.8101   -0.1245    0.0000 H   0  0  0  0  0  0  0  0  0  0  0  0
    2.6540   -0.1245    0.0000 H   0  0  0  0  0  0  0  0  0  0  0  0
    2.2554   -0.8148    0.0000 H   0  0  0  0  0  0  0  0  0  0  0  0
    4.8101    0.7103    0.0000 H   0  0  0  0  0  0  0  0  0  0  0  0
    5.2087    1.4006    0.0000 H   0  0  0  0  0  0  0  0  0  0  0  0
    4.3860    2.8755    0.0000 H   0  0  0  0  0  0  0  0  0  0  0  0
    3.9875    2.1852    0.0000 H   0  0  0  0  0  0  0  0  0  0  0  0
    4.8101   -2.2897    0.0000 H   0  0  0  0  0  0  0  0  0  0  0  0
    5.2087   -1.5994    0.0000 H   0  0  0  0  0  0  0  0  0  0  0  0
    2.2554   -1.5994    0.0000 H   0  0  0  0  0  0  0  0  0  0  0  0
    2.6540   -2.2897    0.0000 H   0  0  0  0  0  0  0  0  0  0  0  0
    4.3186    4.9384    0.0000 H   0  0  0  0  0  0  0  0  0  0  0  0
    4.3186    4.0616    0.0000 H   0  0  0  0  0  0  0  0  0  0  0  0
    6.6096    4.0616    0.0000 H   0  0  0  0  0  0  0  0  0  0  0  0
    6.6096    4.9384    0.0000 H   0  0  0  0  0  0  0  0  0  0  0  0
    5.1350   -3.3971    0.0000 H   0  0  0  0  0  0  0  0  0  0  0  0
    5.1350   -5.0171    0.0000 H   0  0  0  0  0  0  0  0  0  0  0  0
    8.0622    1.6729    0.0000 H   0  0  0  0  0  0  0  0  0  0  0  0
    6.6592    4.1029    0.0000 H   0  0  0  0  0  0  0  0  0  0  0  0
    3.7320   -5.8271    0.0000 H   0  0  0  0  0  0  0  0  0  0  0  0
    9.4651    2.4829    0.0000 H   0  0  0  0  0  0  0  0  0  0  0  0
    8.0622    4.9129    0.0000 H   0  0  0  0  0  0  0  0  0  0  0  0
    9.4651    4.1029    0.0000 H   0  0  0  0  0  0  0  0  0  0  0  0
  1 21  1  0  0  0  0
  2 23  1  0  0  0  0
  3 16  1  0  0  0  0
  3 17  1  0  0  0  0
  4 18  2  0  0  0  0
  5  9  1  0  0  0  0
  5 10  1  0  0  0  0
  5 11  1  0  0  0  0
  6  8  1  0  0  0  0
  6 13  1  0  0  0  0
  6 18  1  0  0  0  0
  7 14  1  0  0  0  0
  7 15  1  0  0  0  0
  7 19  1  0  0  0  0
  8 16  1  0  0  0  0
  8 17  1  0  0  0  0
  8 31  1  0  0  0  0
  9 12  1  0  0  0  0
  9 32  1  0  0  0  0
  9 33  1  0  0  0  0
 10 14  1  0  0  0  0
 10 34  1  0  0  0  0
 10 35  1  0  0  0  0
 11 15  1  0  0  0  0
 11 36  1  0  0  0  0
 11 37  1  0  0  0  0
 12 13  1  0  0  0  0
 12 38  1  0  0  0  0
 12 39  1  0  0  0  0
 13 40  1  0  0  0  0
 13 41  1  0  0  0  0
 14 42  1  0  0  0  0
 14 43  1  0  0  0  0
 15 44  1  0  0  0  0
 15 45  1  0  0  0  0
 16 46  1  0  0  0  0
 16 47  1  0  0  0  0
 17 48  1  0  0  0  0
 17 49  1  0  0  0  0
 18 20  1  0  0  0  0
 19 21  2  0  0  0  0
 19 22  1  0  0  0  0
 20 25  2  0  0  0  0
 20 26  1  0  0  0  0
 21 23  1  0  0  0  0
 22 24  2  0  0  0  0
 22 50  1  0  0  0  0
 23 27  2  0  0  0  0
 24 27  1  0  0  0  0
 24 51  1  0  0  0  0
 25 28  1  0  0  0  0
 25 52  1  0  0  0  0
 26 29  2  0  0  0  0
 26 53  1  0  0  0  0
 27 54  1  0  0  0  0
 28 30  2  0  0  0  0
 28 55  1  0  0  0  0
 29 30  1  0  0  0  0
 29 56  1  0  0  0  0
 30 57  1  0  0  0  0
M  END
> <PUBCHEM_COMPOUND_CID>
162677207

> <PUBCHEM_COMPOUND_CANONICALIZED>
1

> <PUBCHEM_CACTVS_COMPLEXITY>
549

> <PUBCHEM_CACTVS_HBOND_ACCEPTOR>
4

> <PUBCHEM_CACTVS_HBOND_DONOR>
0

> <PUBCHEM_CACTVS_ROTATABLE_BOND>
7

> <PUBCHEM_CACTVS_SUBSKEYS>
AAADceB7MAAGAAAAAAAAAAAAAABIAAAAAAA8YIAAAAAAAAABQAAAHgIAAAAADCrhmCYwwIMABACIAiVSUACCAAAlBwAIikEIZsgKYDLB15HVIQhghgDYyYcYiACOAAAAAAIAABQAAAAABAAAKAAAAAAAAA==

> <PUBCHEM_IUPAC_OPENEYE_NAME>
N-[3-[4-(2,3-dichlorophenyl)piperazin-1-yl]propyl]-N-(oxetan-3-yl)benzamide

> <PUBCHEM_IUPAC_CAS_NAME>
N-[3-[4-(2,3-dichlorophenyl)-1-piperazinyl]propyl]-N-(3-oxetanyl)benzamide

> <PUBCHEM_IUPAC_NAME_MARKUP>
<I>N</I>-[3-[4-(2,3-dichlorophenyl)piperazin-1-yl]propyl]-<I>N</I>-(oxetan-3-yl)benzamide

> <PUBCHEM_IUPAC_NAME>
N-[3-[4-(2,3-dichlorophenyl)piperazin-1-yl]propyl]-N-(oxetan-3-yl)benzamide

> <PUBCHEM_IUPAC_SYSTEMATIC_NAME>
N-[3-[4-[2,3-bis(chloranyl)phenyl]piperazin-1-yl]propyl]-N-(oxetan-3-yl)benzamide

> <PUBCHEM_IUPAC_TRADITIONAL_NAME>
N-[3-[4-(2,3-dichlorophenyl)piperazino]propyl]-N-(oxetan-3-yl)benzamide

> <PUBCHEM_IUPAC_INCHI>
InChI=1S/C23H27Cl2N3O2/c24-20-8-4-9-21(22(20)25)27-14-12-26(13-15-27)10-5-11-28(19-16-30-17-19)23(29)18-6-2-1-3-7-18/h1-4,6-9,19H,5,10-17H2

> <PUBCHEM_IUPAC_INCHIKEY>
QNARIGRIJHAUAQ-UHFFFAOYSA-N

> <PUBCHEM_XLOGP3_AA>
4.3

> <PUBCHEM_EXACT_MASS>
447.1480325

> <PUBCHEM_MOLECULAR_FORMULA>
C23H27Cl2N3O2

> <PUBCHEM_MOLECULAR_WEIGHT>
448.4

> <PUBCHEM_OPENEYE_CAN_SMILES>
C1CN(CCN1CCCN(C2COC2)C(=O)C3=CC=CC=C3)C4=C(C(=CC=C4)Cl)Cl

> <PUBCHEM_OPENEYE_ISO_SMILES>
C1CN(CCN1CCCN(C2COC2)C(=O)C3=CC=CC=C3)C4=C(C(=CC=C4)Cl)Cl

> <PUBCHEM_CACTVS_TPSA>
36

> <PUBCHEM_MONOISOTOPIC_WEIGHT>
447.1480325

> <PUBCHEM_TOTAL_CHARGE>
0

> <PUBCHEM_HEAVY_ATOM_COUNT>
30

> <PUBCHEM_ATOM_DEF_STEREO_COUNT>
0

> <PUBCHEM_ATOM_UDEF_STEREO_COUNT>
0

> <PUBCHEM_BOND_DEF_STEREO_COUNT>
0

> <PUBCHEM_BOND_UDEF_STEREO_COUNT>
0

> <PUBCHEM_ISOTOPIC_ATOM_COUNT>
0

> <PUBCHEM_COMPONENT_COUNT>
1

> <PUBCHEM_CACTVS_TAUTO_COUNT>
-1

> <PUBCHEM_COORDINATE_TYPE>
1
5
255

> <PUBCHEM_BONDANNOTATIONS>
19  21  8
19  22  8
20  25  8
20  26  8
21  23  8
22  24  8
23  27  8
24  27  8
25  28  8
26  29  8
28  30  8
29  30  8

$$$$
