11773599
  -OEChem-09292322342D

 49 52  0     0  0  0  0  0  0999 V2000
    2.0000   -1.9470    0.0000 Cl  0  0  0  0  0  0  0  0  0  0  0  0
   14.9221    0.5530    0.0000 S   0  0  0  0  0  0  0  0  0  0  0  0
    7.1962    1.0530    0.0000 N   0  0  0  0  0  0  0  0  0  0  0  0
    5.4641    0.0530    0.0000 N   0  0  0  0  0  0  0  0  0  0  0  0
   13.3385    1.3577    0.0000 N   0  0  0  0  0  0  0  0  0  0  0  0
   13.3385   -0.2518    0.0000 N   0  0  0  0  0  0  0  0  0  0  0  0
    6.3301    1.5530    0.0000 C   0  0  0  0  0  0  0  0  0  0  0  0
    7.1962    0.0530    0.0000 C   0  0  0  0  0  0  0  0  0  0  0  0
    5.4641    1.0530    0.0000 C   0  0  0  0  0  0  0  0  0  0  0  0
    6.3301   -0.4470    0.0000 C   0  0  0  0  0  0  0  0  0  0  0  0
    8.0622    1.5530    0.0000 C   0  0  0  0  0  0  0  0  0  0  0  0
    8.9282    1.0530    0.0000 C   0  0  0  0  0  0  0  0  0  0  0  0
    9.7942    1.5530    0.0000 C   0  0  0  0  0  0  0  0  0  0  0  0
    4.5981   -0.4470    0.0000 C   0  0  0  0  0  0  0  0  0  0  0  0
   10.6603    1.0530    0.0000 C   0  0  0  0  0  0  0  0  0  0  0  0
    3.7320    0.0530    0.0000 C   0  0  0  0  0  0  0  0  0  0  0  0
    4.5981   -1.4470    0.0000 C   0  0  0  0  0  0  0  0  0  0  0  0
   11.5263    1.5530    0.0000 C   0  0  0  0  0  0  0  0  0  0  0  0
   10.6603    0.0530    0.0000 C   0  0  0  0  0  0  0  0  0  0  0  0
   12.3923    1.0530    0.0000 C   0  0  0  0  0  0  0  0  0  0  0  0
   12.3923    0.0530    0.0000 C   0  0  0  0  0  0  0  0  0  0  0  0
   11.5263   -0.4470    0.0000 C   0  0  0  0  0  0  0  0  0  0  0  0
    2.8660   -0.4470    0.0000 C   0  0  0  0  0  0  0  0  0  0  0  0
    3.7320   -1.9470    0.0000 C   0  0  0  0  0  0  0  0  0  0  0  0
    2.8660   -1.4470    0.0000 C   0  0  0  0  0  0  0  0  0  0  0  0
   13.9221    0.5530    0.0000 C   0  0  0  0  0  0  0  0  0  0  0  0
    6.7287    2.0279    0.0000 H   0  0  0  0  0  0  0  0  0  0  0  0
    5.9316    2.0279    0.0000 H   0  0  0  0  0  0  0  0  0  0  0  0
    7.4082   -0.5296    0.0000 H   0  0  0  0  0  0  0  0  0  0  0  0
    7.8067    0.1606    0.0000 H   0  0  0  0  0  0  0  0  0  0  0  0
    5.2520    1.6356    0.0000 H   0  0  0  0  0  0  0  0  0  0  0  0
    4.8535    0.9453    0.0000 H   0  0  0  0  0  0  0  0  0  0  0  0
    5.9316   -0.9220    0.0000 H   0  0  0  0  0  0  0  0  0  0  0  0
    6.7287   -0.9220    0.0000 H   0  0  0  0  0  0  0  0  0  0  0  0
    8.4607    2.0279    0.0000 H   0  0  0  0  0  0  0  0  0  0  0  0
    7.6636    2.0279    0.0000 H   0  0  0  0  0  0  0  0  0  0  0  0
    8.5297    0.5780    0.0000 H   0  0  0  0  0  0  0  0  0  0  0  0
    9.3267    0.5780    0.0000 H   0  0  0  0  0  0  0  0  0  0  0  0
   10.1928    2.0279    0.0000 H   0  0  0  0  0  0  0  0  0  0  0  0
    9.3957    2.0279    0.0000 H   0  0  0  0  0  0  0  0  0  0  0  0
    3.7320    0.6730    0.0000 H   0  0  0  0  0  0  0  0  0  0  0  0
    5.1350   -1.7570    0.0000 H   0  0  0  0  0  0  0  0  0  0  0  0
   11.5263    2.1730    0.0000 H   0  0  0  0  0  0  0  0  0  0  0  0
   10.1233   -0.2570    0.0000 H   0  0  0  0  0  0  0  0  0  0  0  0
   11.5263   -1.0670    0.0000 H   0  0  0  0  0  0  0  0  0  0  0  0
    2.3291   -0.1370    0.0000 H   0  0  0  0  0  0  0  0  0  0  0  0
    3.7320   -2.5670    0.0000 H   0  0  0  0  0  0  0  0  0  0  0  0
   13.5311    1.9470    0.0000 H   0  0  0  0  0  0  0  0  0  0  0  0
   13.5311   -0.8411    0.0000 H   0  0  0  0  0  0  0  0  0  0  0  0
  1 25  1  0  0  0  0
  2 26  2  0  0  0  0
  3  7  1  0  0  0  0
  3  8  1  0  0  0  0
  3 11  1  0  0  0  0
  4  9  1  0  0  0  0
  4 10  1  0  0  0  0
  4 14  1  0  0  0  0
  5 20  1  0  0  0  0
  5 26  1  0  0  0  0
  5 48  1  0  0  0  0
  6 21  1  0  0  0  0
  6 26  1  0  0  0  0
  6 49  1  0  0  0  0
  7  9  1  0  0  0  0
  7 27  1  0  0  0  0
  7 28  1  0  0  0  0
  8 10  1  0  0  0  0
  8 29  1  0  0  0  0
  8 30  1  0  0  0  0
  9 31  1  0  0  0  0
  9 32  1  0  0  0  0
 10 33  1  0  0  0  0
 10 34  1  0  0  0  0
 11 12  1  0  0  0  0
 11 35  1  0  0  0  0
 11 36  1  0  0  0  0
 12 13  1  0  0  0  0
 12 37  1  0  0  0  0
 12 38  1  0  0  0  0
 13 15  1  0  0  0  0
 13 39  1  0  0  0  0
 13 40  1  0  0  0  0
 14 16  2  0  0  0  0
 14 17  1  0  0  0  0
 15 18  2  0  0  0  0
 15 19  1  0  0  0  0
 16 23  1  0  0  0  0
 16 41  1  0  0  0  0
 17 24  2  0  0  0  0
 17 42  1  0  0  0  0
 18 20  1  0  0  0  0
 18 43  1  0  0  0  0
 19 22  2  0  0  0  0
 19 44  1  0  0  0  0
 20 21  2  0  0  0  0
 21 22  1  0  0  0  0
 22 45  1  0  0  0  0
 23 25  2  0  0  0  0
 23 46  1  0  0  0  0
 24 25  1  0  0  0  0
 24 47  1  0  0  0  0
M  END
> <PUBCHEM_COMPOUND_CID>
11773599

> <PUBCHEM_COMPOUND_CANONICALIZED>
1

> <PUBCHEM_CACTVS_COMPLEXITY>
474

> <PUBCHEM_CACTVS_HBOND_ACCEPTOR>
3

> <PUBCHEM_CACTVS_HBOND_DONOR>
2

> <PUBCHEM_CACTVS_ROTATABLE_BOND>
5

> <PUBCHEM_CACTVS_SUBSKEYS>
AAADceB7gABEAAAAAAAAAAAAAAAAAWAAAAA8YIAAAAAAAFgBQAAAHAYQAAAADArBGCQxwIPAAACEAiRCQACCAAAhBwkIiAAIdoiIYCLBk5GUIAhokALIyCcQgIAOCABAQAAAACAQAICAAAAAQAAAAAAAAA==

> <PUBCHEM_IUPAC_OPENEYE_NAME>
5-[3-[4-(4-chlorophenyl)piperazin-1-yl]propyl]-1,3-dihydrobenzimidazole-2-thione

> <PUBCHEM_IUPAC_CAS_NAME>
5-[3-[4-(4-chlorophenyl)-1-piperazinyl]propyl]-1,3-dihydrobenzimidazole-2-thione

> <PUBCHEM_IUPAC_NAME_MARKUP>
5-[3-[4-(4-chlorophenyl)piperazin-1-yl]propyl]-1,3-dihydrobenzimidazole-2-thione

> <PUBCHEM_IUPAC_NAME>
5-[3-[4-(4-chlorophenyl)piperazin-1-yl]propyl]-1,3-dihydrobenzimidazole-2-thione

> <PUBCHEM_IUPAC_SYSTEMATIC_NAME>
5-[3-[4-(4-chlorophenyl)piperazin-1-yl]propyl]-1,3-dihydrobenzimidazole-2-thione

> <PUBCHEM_IUPAC_TRADITIONAL_NAME>
5-[3-[4-(4-chlorophenyl)piperazino]propyl]-1,3-dihydrobenzimidazole-2-thione

> <PUBCHEM_IUPAC_INCHI>
InChI=1S/C20H23ClN4S/c21-16-4-6-17(7-5-16)25-12-10-24(11-13-25)9-1-2-15-3-8-18-19(14-15)23-20(26)22-18/h3-8,14H,1-2,9-13H2,(H2,22,23,26)

> <PUBCHEM_IUPAC_INCHIKEY>
VMOGNRMSGFMLFQ-UHFFFAOYSA-N

> <PUBCHEM_XLOGP3_AA>
4

> <PUBCHEM_EXACT_MASS>
386.1331956

> <PUBCHEM_MOLECULAR_FORMULA>
C20H23ClN4S

> <PUBCHEM_MOLECULAR_WEIGHT>
386.9

> <PUBCHEM_OPENEYE_CAN_SMILES>
C1CN(CCN1CCCC2=CC3=C(C=C2)NC(=S)N3)C4=CC=C(C=C4)Cl

> <PUBCHEM_OPENEYE_ISO_SMILES>
C1CN(CCN1CCCC2=CC3=C(C=C2)NC(=S)N3)C4=CC=C(C=C4)Cl

> <PUBCHEM_CACTVS_TPSA>
62.6

> <PUBCHEM_MONOISOTOPIC_WEIGHT>
386.1331956

> <PUBCHEM_TOTAL_CHARGE>
0

> <PUBCHEM_HEAVY_ATOM_COUNT>
26

> <PUBCHEM_ATOM_DEF_STEREO_COUNT>
0

> <PUBCHEM_ATOM_UDEF_STEREO_COUNT>
0

> <PUBCHEM_BOND_DEF_STEREO_COUNT>
0

> <PUBCHEM_BOND_UDEF_STEREO_COUNT>
0

> <PUBCHEM_ISOTOPIC_ATOM_COUNT>
0

> <PUBCHEM_COMPONENT_COUNT>
1

> <PUBCHEM_CACTVS_TAUTO_COUNT>
-1

> <PUBCHEM_COORDINATE_TYPE>
1
5
255

> <PUBCHEM_BONDANNOTATIONS>
14  16  8
14  17  8
15  18  8
15  19  8
16  23  8
17  24  8
18  20  8
19  22  8
20  21  8
21  22  8
23  25  8
24  25  8
5  20  8
5  26  8
6  21  8
6  26  8

$$$$
