56820088
  -OEChem-09292322402D

 44 47  0     1  0  0  0  0  0999 V2000
    2.3145   -4.5532    0.0000 S   0  0  0  0  0  0  0  0  0  0  0  0
    2.2141    1.9422    0.0000 O   0  0  0  0  0  0  0  0  0  0  0  0
    3.6235   -0.7747    0.0000 N   0  0  3  0  0  0  0  0  0  0  0  0
    3.1235   -2.9654    0.0000 N   0  0  3  0  0  0  0  0  0  0  0  0
    3.8314    1.8938    0.0000 N   0  0  0  0  0  0  0  0  0  0  0  0
    3.9325   -4.5532    0.0000 N   0  0  0  0  0  0  0  0  0  0  0  0
    2.6235   -0.7747    0.0000 C   0  0  0  0  0  0  0  0  0  0  0  0
    4.2470   -1.5566    0.0000 C   0  0  0  0  0  0  0  0  0  0  0  0
    2.0000   -1.5566    0.0000 C   0  0  0  0  0  0  0  0  0  0  0  0
    4.0245   -2.5315    0.0000 C   0  0  0  0  0  0  0  0  0  0  0  0
    2.2225   -2.5315    0.0000 C   0  0  0  0  0  0  0  0  0  0  0  0
    4.0574    0.1262    0.0000 C   0  0  0  0  0  0  0  0  0  0  0  0
    3.1235   -3.9654    0.0000 C   0  0  0  0  0  0  0  0  0  0  0  0
    3.4940    0.9525    0.0000 C   0  0  0  0  0  0  0  0  0  0  0  0
    2.4945    0.9824    0.0000 C   0  0  0  0  0  0  0  0  0  0  0  0
    3.0403    2.5056    0.0000 C   0  0  0  0  0  0  0  0  0  0  0  0
    2.6235   -5.5042    0.0000 C   0  0  0  0  0  0  0  0  0  0  0  0
    3.6235   -5.5042    0.0000 C   0  0  0  0  0  0  0  0  0  0  0  0
    3.0702    3.5051    0.0000 C   0  0  0  0  0  0  0  0  0  0  0  0
    3.9508    3.9790    0.0000 C   0  0  0  0  0  0  0  0  0  0  0  0
    2.2196    4.0308    0.0000 C   0  0  0  0  0  0  0  0  0  0  0  0
    3.9807    4.9786    0.0000 C   0  0  0  0  0  0  0  0  0  0  0  0
    2.2495    5.0304    0.0000 C   0  0  0  0  0  0  0  0  0  0  0  0
    3.1301    5.5042    0.0000 C   0  0  0  0  0  0  0  0  0  0  0  0
    2.7614   -0.1703    0.0000 H   0  0  0  0  0  0  0  0  0  0  0  0
    2.0649   -0.5057    0.0000 H   0  0  0  0  0  0  0  0  0  0  0  0
    4.8056   -1.8256    0.0000 H   0  0  0  0  0  0  0  0  0  0  0  0
    4.6335   -1.0718    0.0000 H   0  0  0  0  0  0  0  0  0  0  0  0
    1.6134   -1.0718    0.0000 H   0  0  0  0  0  0  0  0  0  0  0  0
    1.4414   -1.8256    0.0000 H   0  0  0  0  0  0  0  0  0  0  0  0
    4.1624   -3.1360    0.0000 H   0  0  0  0  0  0  0  0  0  0  0  0
    4.6445   -2.5315    0.0000 H   0  0  0  0  0  0  0  0  0  0  0  0
    1.6025   -2.5315    0.0000 H   0  0  0  0  0  0  0  0  0  0  0  0
    2.0846   -3.1360    0.0000 H   0  0  0  0  0  0  0  0  0  0  0  0
    4.5608   -0.2357    0.0000 H   0  0  0  0  0  0  0  0  0  0  0  0
    4.5012    0.5591    0.0000 H   0  0  0  0  0  0  0  0  0  0  0  0
    2.1152    0.4919    0.0000 H   0  0  0  0  0  0  0  0  0  0  0  0
    2.2591   -6.0058    0.0000 H   0  0  0  0  0  0  0  0  0  0  0  0
    3.9879   -6.0058    0.0000 H   0  0  0  0  0  0  0  0  0  0  0  0
    4.4782    3.6531    0.0000 H   0  0  0  0  0  0  0  0  0  0  0  0
    1.6736    3.7370    0.0000 H   0  0  0  0  0  0  0  0  0  0  0  0
    4.5267    5.2724    0.0000 H   0  0  0  0  0  0  0  0  0  0  0  0
    1.7220    5.3563    0.0000 H   0  0  0  0  0  0  0  0  0  0  0  0
    3.1486    6.1240    0.0000 H   0  0  0  0  0  0  0  0  0  0  0  0
  1 13  1  0  0  0  0
  1 17  1  0  0  0  0
  2 15  1  0  0  0  0
  2 16  1  0  0  0  0
  3  7  1  0  0  0  0
  3  8  1  0  0  0  0
  3 12  1  0  0  0  0
  4 10  1  0  0  0  0
  4 11  1  0  0  0  0
  4 13  1  0  0  0  0
  5 14  1  0  0  0  0
  5 16  2  0  0  0  0
  6 13  2  0  0  0  0
  6 18  1  0  0  0  0
  7  9  1  0  0  0  0
  7 25  1  0  0  0  0
  7 26  1  0  0  0  0
  8 10  1  0  0  0  0
  8 27  1  0  0  0  0
  8 28  1  0  0  0  0
  9 11  1  0  0  0  0
  9 29  1  0  0  0  0
  9 30  1  0  0  0  0
 10 31  1  0  0  0  0
 10 32  1  0  0  0  0
 11 33  1  0  0  0  0
 11 34  1  0  0  0  0
 12 14  1  0  0  0  0
 12 35  1  0  0  0  0
 12 36  1  0  0  0  0
 14 15  2  0  0  0  0
 15 37  1  0  0  0  0
 16 19  1  0  0  0  0
 17 18  2  0  0  0  0
 17 38  1  0  0  0  0
 18 39  1  0  0  0  0
 19 20  2  0  0  0  0
 19 21  1  0  0  0  0
 20 22  1  0  0  0  0
 20 40  1  0  0  0  0
 21 23  2  0  0  0  0
 21 41  1  0  0  0  0
 22 24  2  0  0  0  0
 22 42  1  0  0  0  0
 23 24  1  0  0  0  0
 23 43  1  0  0  0  0
 24 44  1  0  0  0  0
M  END
> <PUBCHEM_COMPOUND_CID>
56820088

> <PUBCHEM_COMPOUND_CANONICALIZED>
1

> <PUBCHEM_CACTVS_COMPLEXITY>
393

> <PUBCHEM_CACTVS_HBOND_ACCEPTOR>
6

> <PUBCHEM_CACTVS_HBOND_DONOR>
0

> <PUBCHEM_CACTVS_ROTATABLE_BOND>
4

> <PUBCHEM_CACTVS_SUBSKEYS>
AAADceB7oABAAAAAAAAAAAAAAAAAAWLAAAAwAAAABYAAAAAB8AAAHgQAAAAADAjl3ga9lZMIFEisAz139ASC+Kl/ajhJyC29LNiOZrqE/TmfOSjuxAOYqaeYyCCOAAAAAAAAAAAAAAAAAAAAAAAAAAAAAA==

> <PUBCHEM_IUPAC_OPENEYE_NAME>
2-phenyl-4-[(4-thiazol-2-yl-1,4-diazepan-1-yl)methyl]oxazole

> <PUBCHEM_IUPAC_CAS_NAME>
2-phenyl-4-[[4-(2-thiazolyl)-1,4-diazepan-1-yl]methyl]oxazole

> <PUBCHEM_IUPAC_NAME_MARKUP>
2-phenyl-4-[[4-(1,3-thiazol-2-yl)-1,4-diazepan-1-yl]methyl]-1,3-oxazole

> <PUBCHEM_IUPAC_NAME>
2-phenyl-4-[[4-(1,3-thiazol-2-yl)-1,4-diazepan-1-yl]methyl]-1,3-oxazole

> <PUBCHEM_IUPAC_SYSTEMATIC_NAME>
2-phenyl-4-[[4-(1,3-thiazol-2-yl)-1,4-diazepan-1-yl]methyl]-1,3-oxazole

> <PUBCHEM_IUPAC_TRADITIONAL_NAME>
2-phenyl-4-[(4-thiazol-2-yl-1,4-diazepan-1-yl)methyl]oxazole

> <PUBCHEM_IUPAC_INCHI>
InChI=1S/C18H20N4OS/c1-2-5-15(6-3-1)17-20-16(14-23-17)13-21-8-4-9-22(11-10-21)18-19-7-12-24-18/h1-3,5-7,12,14H,4,8-11,13H2

> <PUBCHEM_IUPAC_INCHIKEY>
UHAMUBGOQVPGGQ-UHFFFAOYSA-N

> <PUBCHEM_XLOGP3_AA>
3.2

> <PUBCHEM_EXACT_MASS>
340.13578245

> <PUBCHEM_MOLECULAR_FORMULA>
C18H20N4OS

> <PUBCHEM_MOLECULAR_WEIGHT>
340.4

> <PUBCHEM_OPENEYE_CAN_SMILES>
C1CN(CCN(C1)C2=NC=CS2)CC3=COC(=N3)C4=CC=CC=C4

> <PUBCHEM_OPENEYE_ISO_SMILES>
C1CN(CCN(C1)C2=NC=CS2)CC3=COC(=N3)C4=CC=CC=C4

> <PUBCHEM_CACTVS_TPSA>
73.6

> <PUBCHEM_MONOISOTOPIC_WEIGHT>
340.13578245

> <PUBCHEM_TOTAL_CHARGE>
0

> <PUBCHEM_HEAVY_ATOM_COUNT>
24

> <PUBCHEM_ATOM_DEF_STEREO_COUNT>
0

> <PUBCHEM_ATOM_UDEF_STEREO_COUNT>
0

> <PUBCHEM_BOND_DEF_STEREO_COUNT>
0

> <PUBCHEM_BOND_UDEF_STEREO_COUNT>
0

> <PUBCHEM_ISOTOPIC_ATOM_COUNT>
0

> <PUBCHEM_COMPONENT_COUNT>
1

> <PUBCHEM_CACTVS_TAUTO_COUNT>
-1

> <PUBCHEM_COORDINATE_TYPE>
1
5
255

> <PUBCHEM_BONDANNOTATIONS>
1  13  8
1  17  8
14  15  8
17  18  8
19  20  8
19  21  8
2  15  8
2  16  8
20  22  8
21  23  8
22  24  8
23  24  8
5  14  8
5  16  8
6  13  8
6  18  8

$$$$
