44454309
  -OEChem-09292322492D

 67 72  0     1  0  0  0  0  0999 V2000
   11.5467   -0.3583    0.0000 S   0  0  0  0  0  0  0  0  0  0  0  0
    3.7702    0.3391    0.0000 O   0  0  0  0  0  0  0  0  0  0  0  0
    2.0000    2.3979    0.0000 O   0  0  0  0  0  0  0  0  0  0  0  0
    8.5467    1.3738    0.0000 N   0  0  3  0  0  0  0  0  0  0  0  0
    3.7702    2.4084    0.0000 N   0  0  0  0  0  0  0  0  0  0  0  0
   13.1345   -1.1673    0.0000 N   0  0  0  0  0  0  0  0  0  0  0  0
   13.1345    0.4507    0.0000 N   0  0  0  0  0  0  0  0  0  0  0  0
   14.0856    0.1417    0.0000 N   0  0  0  0  0  0  0  0  0  0  0  0
   17.5752   -1.2182    0.0000 N   0  0  0  0  0  0  0  0  0  0  0  0
    8.1224    2.2580    0.0000 C   0  0  0  0  0  0  0  0  0  0  0  0
    8.1224    0.4895    0.0000 C   0  0  0  0  0  0  0  0  0  0  0  0
    7.1671    2.4801    0.0000 C   0  0  0  0  0  0  0  0  0  0  0  0
    7.1671    0.2674    0.0000 C   0  0  0  0  0  0  0  0  0  0  0  0
    6.3961    1.8738    0.0000 C   0  0  0  0  0  0  0  0  0  0  0  0
    6.3961    0.8738    0.0000 C   0  0  0  0  0  0  0  0  0  0  0  0
    9.5467    1.3738    0.0000 C   0  0  0  0  0  0  0  0  0  0  0  0
   10.0467    0.5077    0.0000 C   0  0  0  0  0  0  0  0  0  0  0  0
    5.5301    2.3738    0.0000 C   0  0  0  0  0  0  0  0  0  0  0  0
    5.5301    0.3738    0.0000 C   0  0  0  0  0  0  0  0  0  0  0  0
    4.6641    1.8738    0.0000 C   0  0  0  0  0  0  0  0  0  0  0  0
    4.6641    0.8738    0.0000 C   0  0  0  0  0  0  0  0  0  0  0  0
   11.0467    0.5077    0.0000 C   0  0  0  0  0  0  0  0  0  0  0  0
    2.8641    0.8529    0.0000 C   0  0  0  0  0  0  0  0  0  0  0  0
    2.8641    1.8946    0.0000 C   0  0  0  0  0  0  0  0  0  0  0  0
   12.5467   -0.3583    0.0000 C   0  0  0  0  0  0  0  0  0  0  0  0
   14.0856   -0.8583    0.0000 C   0  0  0  0  0  0  0  0  0  0  0  0
   14.8946   -1.4461    0.0000 C   0  0  0  0  0  0  0  0  0  0  0  0
   15.8081   -1.0393    0.0000 C   0  0  0  0  0  0  0  0  0  0  0  0
   12.8255   -2.1184    0.0000 C   0  0  0  0  0  0  0  0  0  0  0  0
   16.6172   -1.6271    0.0000 C   0  0  0  0  0  0  0  0  0  0  0  0
   14.7901   -2.4406    0.0000 C   0  0  0  0  0  0  0  0  0  0  0  0
   15.9010   -0.0019    0.0000 C   0  0  0  0  0  0  0  0  0  0  0  0
   16.5126   -2.6216    0.0000 C   0  0  0  0  0  0  0  0  0  0  0  0
   15.5991   -3.0284    0.0000 C   0  0  0  0  0  0  0  0  0  0  0  0
   16.8493    0.4291    0.0000 C   0  0  0  0  0  0  0  0  0  0  0  0
   17.6920   -0.1831    0.0000 C   0  0  0  0  0  0  0  0  0  0  0  0
   18.6071    0.2201    0.0000 C   0  0  0  0  0  0  0  0  0  0  0  0
    8.7271    2.3946    0.0000 H   0  0  0  0  0  0  0  0  0  0  0  0
    8.1243    2.8780    0.0000 H   0  0  0  0  0  0  0  0  0  0  0  0
    8.1243   -0.1305    0.0000 H   0  0  0  0  0  0  0  0  0  0  0  0
    8.7271    0.3529    0.0000 H   0  0  0  0  0  0  0  0  0  0  0  0
    7.4388    3.0374    0.0000 H   0  0  0  0  0  0  0  0  0  0  0  0
    6.6846    2.8695    0.0000 H   0  0  0  0  0  0  0  0  0  0  0  0
    6.6846   -0.1220    0.0000 H   0  0  0  0  0  0  0  0  0  0  0  0
    7.4388   -0.2898    0.0000 H   0  0  0  0  0  0  0  0  0  0  0  0
   10.1293    1.5858    0.0000 H   0  0  0  0  0  0  0  0  0  0  0  0
    9.4391    1.9843    0.0000 H   0  0  0  0  0  0  0  0  0  0  0  0
    9.4641    0.2957    0.0000 H   0  0  0  0  0  0  0  0  0  0  0  0
   10.1544   -0.1028    0.0000 H   0  0  0  0  0  0  0  0  0  0  0  0
    5.5301    2.9938    0.0000 H   0  0  0  0  0  0  0  0  0  0  0  0
    5.5301   -0.2462    0.0000 H   0  0  0  0  0  0  0  0  0  0  0  0
   11.6293    0.7198    0.0000 H   0  0  0  0  0  0  0  0  0  0  0  0
   10.9391    1.1183    0.0000 H   0  0  0  0  0  0  0  0  0  0  0  0
    3.7773    3.0284    0.0000 H   0  0  0  0  0  0  0  0  0  0  0  0
    2.2532    0.9590    0.0000 H   0  0  0  0  0  0  0  0  0  0  0  0
    2.6550    0.2693    0.0000 H   0  0  0  0  0  0  0  0  0  0  0  0
   12.2359   -1.9268    0.0000 H   0  0  0  0  0  0  0  0  0  0  0  0
   12.6339   -2.7080    0.0000 H   0  0  0  0  0  0  0  0  0  0  0  0
   13.4152   -2.3100    0.0000 H   0  0  0  0  0  0  0  0  0  0  0  0
   14.2237   -2.6928    0.0000 H   0  0  0  0  0  0  0  0  0  0  0  0
   15.3953    0.3567    0.0000 H   0  0  0  0  0  0  0  0  0  0  0  0
   17.0142   -2.9861    0.0000 H   0  0  0  0  0  0  0  0  0  0  0  0
   15.5343   -3.6450    0.0000 H   0  0  0  0  0  0  0  0  0  0  0  0
   16.9118    1.0460    0.0000 H   0  0  0  0  0  0  0  0  0  0  0  0
   18.8571   -0.3473    0.0000 H   0  0  0  0  0  0  0  0  0  0  0  0
   19.1745    0.4701    0.0000 H   0  0  0  0  0  0  0  0  0  0  0  0
   18.3571    0.7875    0.0000 H   0  0  0  0  0  0  0  0  0  0  0  0
  1 22  1  0  0  0  0
  1 25  1  0  0  0  0
  2 21  1  0  0  0  0
  2 23  1  0  0  0  0
  3 24  2  0  0  0  0
  4 10  1  0  0  0  0
  4 11  1  0  0  0  0
  4 16  1  0  0  0  0
  5 20  1  0  0  0  0
  5 24  1  0  0  0  0
  5 54  1  0  0  0  0
  6 25  1  0  0  0  0
  6 26  1  0  0  0  0
  6 29  1  0  0  0  0
  7  8  1  0  0  0  0
  7 25  2  0  0  0  0
  8 26  2  0  0  0  0
  9 30  1  0  0  0  0
  9 36  2  0  0  0  0
 10 12  1  0  0  0  0
 10 38  1  0  0  0  0
 10 39  1  0  0  0  0
 11 13  1  0  0  0  0
 11 40  1  0  0  0  0
 11 41  1  0  0  0  0
 12 14  1  0  0  0  0
 12 42  1  0  0  0  0
 12 43  1  0  0  0  0
 13 15  1  0  0  0  0
 13 44  1  0  0  0  0
 13 45  1  0  0  0  0
 14 15  1  0  0  0  0
 14 18  2  0  0  0  0
 15 19  2  0  0  0  0
 16 17  1  0  0  0  0
 16 46  1  0  0  0  0
 16 47  1  0  0  0  0
 17 22  1  0  0  0  0
 17 48  1  0  0  0  0
 17 49  1  0  0  0  0
 18 20  1  0  0  0  0
 18 50  1  0  0  0  0
 19 21  1  0  0  0  0
 19 51  1  0  0  0  0
 20 21  2  0  0  0  0
 22 52  1  0  0  0  0
 22 53  1  0  0  0  0
 23 24  1  0  0  0  0
 23 55  1  0  0  0  0
 23 56  1  0  0  0  0
 26 27  1  0  0  0  0
 27 28  2  0  0  0  0
 27 31  1  0  0  0  0
 28 30  1  0  0  0  0
 28 32  1  0  0  0  0
 29 57  1  0  0  0  0
 29 58  1  0  0  0  0
 29 59  1  0  0  0  0
 30 33  2  0  0  0  0
 31 34  2  0  0  0  0
 31 60  1  0  0  0  0
 32 35  2  0  0  0  0
 32 61  1  0  0  0  0
 33 34  1  0  0  0  0
 33 62  1  0  0  0  0
 34 63  1  0  0  0  0
 35 36  1  0  0  0  0
 35 64  1  0  0  0  0
 36 37  1  0  0  0  0
 37 65  1  0  0  0  0
 37 66  1  0  0  0  0
 37 67  1  0  0  0  0
M  END
> <PUBCHEM_COMPOUND_CID>
44454309

> <PUBCHEM_COMPOUND_CANONICALIZED>
1

> <PUBCHEM_CACTVS_COMPLEXITY>
790

> <PUBCHEM_CACTVS_HBOND_ACCEPTOR>
7

> <PUBCHEM_CACTVS_HBOND_DONOR>
1

> <PUBCHEM_CACTVS_ROTATABLE_BOND>
6

> <PUBCHEM_CACTVS_SUBSKEYS>
AAADceB7sABAAAAAAAAAAAAAAAAAAWAAAAA8eIEABYAAAACx/AAAHgQYAAAADAzl3waz1vfMFAiqAydydAKS2CthIrAd2CB/bJiOLuLkuZ+HOCjk3BPY6AeQ0PIOqAABQAASEABQAAKAACQgAAAAAAAAAA==

> <PUBCHEM_IUPAC_OPENEYE_NAME>
8-[3-[[4-methyl-5-(2-methyl-5-quinolyl)-1,2,4-triazol-3-yl]sulfanyl]propyl]-6,7,9,10-tetrahydro-4H-[1,4]oxazino[2,3-h][3]benzazepin-3-one

> <PUBCHEM_IUPAC_CAS_NAME>
8-[3-[[4-methyl-5-(2-methyl-5-quinolinyl)-1,2,4-triazol-3-yl]thio]propyl]-6,7,9,10-tetrahydro-4H-[1,4]oxazino[2,3-h][3]benzazepin-3-one

> <PUBCHEM_IUPAC_NAME_MARKUP>
8-[3-[[4-methyl-5-(2-methylquinolin-5-yl)-1,2,4-triazol-3-yl]sulfanyl]propyl]-6,7,9,10-tetrahydro-4<I>H</I>-[1,4]oxazino[2,3-h][3]benzazepin-3-one

> <PUBCHEM_IUPAC_NAME>
8-[3-[[4-methyl-5-(2-methylquinolin-5-yl)-1,2,4-triazol-3-yl]sulfanyl]propyl]-6,7,9,10-tetrahydro-4H-[1,4]oxazino[2,3-h][3]benzazepin-3-one

> <PUBCHEM_IUPAC_SYSTEMATIC_NAME>
8-[3-[[4-methyl-5-(2-methylquinolin-5-yl)-1,2,4-triazol-3-yl]sulfanyl]propyl]-6,7,9,10-tetrahydro-4H-[1,4]oxazino[2,3-h][3]benzazepin-3-one

> <PUBCHEM_IUPAC_TRADITIONAL_NAME>
8-[3-[[4-methyl-5-(2-methyl-5-quinolyl)-1,2,4-triazol-3-yl]thio]propyl]-6,7,9,10-tetrahydro-4H-[1,4]oxazino[2,3-h][3]benzazepin-3-one

> <PUBCHEM_IUPAC_INCHI>
InChI=1S/C28H30N6O2S/c1-18-7-8-21-22(5-3-6-23(21)29-18)27-31-32-28(33(27)2)37-14-4-11-34-12-9-19-15-24-25(16-20(19)10-13-34)36-17-26(35)30-24/h3,5-8,15-16H,4,9-14,17H2,1-2H3,(H,30,35)

> <PUBCHEM_IUPAC_INCHIKEY>
JQEQULOLEPTBRS-UHFFFAOYSA-N

> <PUBCHEM_XLOGP3_AA>
3.9

> <PUBCHEM_EXACT_MASS>
514.21509539

> <PUBCHEM_MOLECULAR_FORMULA>
C28H30N6O2S

> <PUBCHEM_MOLECULAR_WEIGHT>
514.6

> <PUBCHEM_OPENEYE_CAN_SMILES>
CC1=NC2=CC=CC(=C2C=C1)C3=NN=C(N3C)SCCCN4CCC5=CC6=C(C=C5CC4)OCC(=O)N6

> <PUBCHEM_OPENEYE_ISO_SMILES>
CC1=NC2=CC=CC(=C2C=C1)C3=NN=C(N3C)SCCCN4CCC5=CC6=C(C=C5CC4)OCC(=O)N6

> <PUBCHEM_CACTVS_TPSA>
111

> <PUBCHEM_MONOISOTOPIC_WEIGHT>
514.21509539

> <PUBCHEM_TOTAL_CHARGE>
0

> <PUBCHEM_HEAVY_ATOM_COUNT>
37

> <PUBCHEM_ATOM_DEF_STEREO_COUNT>
0

> <PUBCHEM_ATOM_UDEF_STEREO_COUNT>
0

> <PUBCHEM_BOND_DEF_STEREO_COUNT>
0

> <PUBCHEM_BOND_UDEF_STEREO_COUNT>
0

> <PUBCHEM_ISOTOPIC_ATOM_COUNT>
0

> <PUBCHEM_COMPONENT_COUNT>
1

> <PUBCHEM_CACTVS_TAUTO_COUNT>
-1

> <PUBCHEM_COORDINATE_TYPE>
1
5
255

> <PUBCHEM_BONDANNOTATIONS>
14  15  8
14  18  8
15  19  8
18  20  8
19  21  8
20  21  8
27  28  8
27  31  8
28  30  8
28  32  8
30  33  8
31  34  8
32  35  8
33  34  8
35  36  8
6  25  8
6  26  8
7  25  8
7  8  8
8  26  8
9  30  8
9  36  8

$$$$
