20267108
  -OEChem-09292322112D

 43 46  0     1  0  0  0  0  0999 V2000
    3.6179   -3.5190    0.0000 S   0  0  0  0  0  0  0  0  0  0  0  0
    3.6392    1.6385    0.0000 O   0  0  0  0  0  0  0  0  0  0  0  0
    6.2773    4.1731    0.0000 O   0  0  0  0  0  0  0  0  0  0  0  0
    3.6392   -0.4308    0.0000 N   0  0  3  0  0  0  0  0  0  0  0  0
    4.5332    0.1039    0.0000 C   0  0  3  0  0  0  0  0  0  0  0  0
    4.5332    1.1038    0.0000 C   0  0  3  0  0  0  0  0  0  0  0  0
    5.3992   -0.3961    0.0000 C   0  0  0  0  0  0  0  0  0  0  0  0
    6.2652    0.1039    0.0000 C   0  0  0  0  0  0  0  0  0  0  0  0
    5.3992    1.6038    0.0000 C   0  0  0  0  0  0  0  0  0  0  0  0
    2.7332    0.0830    0.0000 C   0  0  0  0  0  0  0  0  0  0  0  0
    6.2652    1.1038    0.0000 C   0  0  0  0  0  0  0  0  0  0  0  0
    3.6508   -1.4307    0.0000 C   0  0  0  0  0  0  0  0  0  0  0  0
    2.7332    1.1247    0.0000 C   0  0  0  0  0  0  0  0  0  0  0  0
    5.3831    2.6454    0.0000 C   0  0  0  0  0  0  0  0  0  0  0  0
    2.7906   -1.9407    0.0000 C   0  0  0  0  0  0  0  0  0  0  0  0
    7.1752    1.6107    0.0000 C   0  0  0  0  0  0  0  0  0  0  0  0
    6.2812    3.1731    0.0000 C   0  0  0  0  0  0  0  0  0  0  0  0
    7.1832    2.6523    0.0000 C   0  0  0  0  0  0  0  0  0  0  0  0
    2.8022   -2.9407    0.0000 C   0  0  0  0  0  0  0  0  0  0  0  0
    2.0000   -3.5378    0.0000 C   0  0  0  0  0  0  0  0  0  0  0  0
    2.3200   -4.4852    0.0000 C   0  0  0  0  0  0  0  0  0  0  0  0
    3.3199   -4.4736    0.0000 C   0  0  0  0  0  0  0  0  0  0  0  0
    4.5380   -0.5161    0.0000 H   0  0  0  0  0  0  0  0  0  0  0  0
    4.5380    1.7238    0.0000 H   0  0  0  0  0  0  0  0  0  0  0  0
    5.0007   -0.8711    0.0000 H   0  0  0  0  0  0  0  0  0  0  0  0
    5.7977   -0.8711    0.0000 H   0  0  0  0  0  0  0  0  0  0  0  0
    6.4773   -0.4788    0.0000 H   0  0  0  0  0  0  0  0  0  0  0  0
    6.8758    0.2115    0.0000 H   0  0  0  0  0  0  0  0  0  0  0  0
    2.1223    0.1891    0.0000 H   0  0  0  0  0  0  0  0  0  0  0  0
    2.5241   -0.5007    0.0000 H   0  0  0  0  0  0  0  0  0  0  0  0
    3.8696   -2.0109    0.0000 H   0  0  0  0  0  0  0  0  0  0  0  0
    4.2601   -1.3160    0.0000 H   0  0  0  0  0  0  0  0  0  0  0  0
    2.5241    1.7084    0.0000 H   0  0  0  0  0  0  0  0  0  0  0  0
    2.1223    1.0186    0.0000 H   0  0  0  0  0  0  0  0  0  0  0  0
    4.8426    2.9491    0.0000 H   0  0  0  0  0  0  0  0  0  0  0  0
    2.5718   -1.3606    0.0000 H   0  0  0  0  0  0  0  0  0  0  0  0
    2.1813   -2.0554    0.0000 H   0  0  0  0  0  0  0  0  0  0  0  0
    7.7085    1.2945    0.0000 H   0  0  0  0  0  0  0  0  0  0  0  0
    7.7214    2.9602    0.0000 H   0  0  0  0  0  0  0  0  0  0  0  0
    1.4082   -3.3530    0.0000 H   0  0  0  0  0  0  0  0  0  0  0  0
    6.8130    4.4852    0.0000 H   0  0  0  0  0  0  0  0  0  0  0  0
    1.9614   -4.9910    0.0000 H   0  0  0  0  0  0  0  0  0  0  0  0
    3.6901   -4.9710    0.0000 H   0  0  0  0  0  0  0  0  0  0  0  0
  1 19  1  0  0  0  0
  1 22  1  0  0  0  0
  2  6  1  0  0  0  0
  2 13  1  0  0  0  0
  3 17  1  0  0  0  0
  3 41  1  0  0  0  0
  4  5  1  0  0  0  0
  4 10  1  0  0  0  0
  4 12  1  0  0  0  0
  5  6  1  0  0  0  0
  5  7  1  0  0  0  0
  5 23  1  0  0  0  0
  6  9  1  0  0  0  0
  6 24  1  0  0  0  0
  7  8  1  0  0  0  0
  7 25  1  0  0  0  0
  7 26  1  0  0  0  0
  8 11  1  0  0  0  0
  8 27  1  0  0  0  0
  8 28  1  0  0  0  0
  9 11  2  0  0  0  0
  9 14  1  0  0  0  0
 10 13  1  0  0  0  0
 10 29  1  0  0  0  0
 10 30  1  0  0  0  0
 11 16  1  0  0  0  0
 12 15  1  0  0  0  0
 12 31  1  0  0  0  0
 12 32  1  0  0  0  0
 13 33  1  0  0  0  0
 13 34  1  0  0  0  0
 14 17  2  0  0  0  0
 14 35  1  0  0  0  0
 15 19  1  0  0  0  0
 15 36  1  0  0  0  0
 15 37  1  0  0  0  0
 16 18  2  0  0  0  0
 16 38  1  0  0  0  0
 17 18  1  0  0  0  0
 18 39  1  0  0  0  0
 19 20  2  0  0  0  0
 20 21  1  0  0  0  0
 20 40  1  0  0  0  0
 21 22  2  0  0  0  0
 21 42  1  0  0  0  0
 22 43  1  0  0  0  0
M  END
> <PUBCHEM_COMPOUND_CID>
20267108

> <PUBCHEM_COMPOUND_CANONICALIZED>
1

> <PUBCHEM_CACTVS_COMPLEXITY>
380

> <PUBCHEM_CACTVS_HBOND_ACCEPTOR>
4

> <PUBCHEM_CACTVS_HBOND_DONOR>
1

> <PUBCHEM_CACTVS_ROTATABLE_BOND>
3

> <PUBCHEM_CACTVS_SUBSKEYS>
AAADceB6MABAAAAAAAAAAAAAAAAAASAAAAA8YIAAAAAAAADxwAAAHgQACAAADDzl2AawB4MABgiEAiBCAAADAIAgKBBIiBgOCIgKJiKisRuHcAAkwBG4uAfQ0LMOoAABAAAQAABQAAKAADAgAAAAAAAAAA==

> <PUBCHEM_IUPAC_OPENEYE_NAME>
4-[2-(2-thienyl)ethyl]-2,3,4a,5,6,10b-hexahydrobenzo[h][1,4]benzoxazin-9-ol

> <PUBCHEM_IUPAC_CAS_NAME>
4-(2-thiophen-2-ylethyl)-2,3,4a,5,6,10b-hexahydrobenzo[h][1,4]benzoxazin-9-ol

> <PUBCHEM_IUPAC_NAME_MARKUP>
4-(2-thiophen-2-ylethyl)-2,3,4<I>a</I>,5,6,10<I>b</I>-hexahydrobenzo[h][1,4]benzoxazin-9-ol

> <PUBCHEM_IUPAC_NAME>
4-(2-thiophen-2-ylethyl)-2,3,4a,5,6,10b-hexahydrobenzo[h][1,4]benzoxazin-9-ol

> <PUBCHEM_IUPAC_SYSTEMATIC_NAME>
4-(2-thiophen-2-ylethyl)-2,3,4a,5,6,10b-hexahydrobenzo[h][1,4]benzoxazin-9-ol

> <PUBCHEM_IUPAC_TRADITIONAL_NAME>
4-[2-(2-thienyl)ethyl]-2,3,4a,5,6,10b-hexahydrobenzo[h][1,4]benzoxazin-9-ol

> <PUBCHEM_IUPAC_INCHI>
InChI=1S/C18H21NO2S/c20-14-5-3-13-4-6-17-18(16(13)12-14)21-10-9-19(17)8-7-15-2-1-11-22-15/h1-3,5,11-12,17-18,20H,4,6-10H2

> <PUBCHEM_IUPAC_INCHIKEY>
XOLIIHROSJWMQH-UHFFFAOYSA-N

> <PUBCHEM_XLOGP3>
3.2

> <PUBCHEM_EXACT_MASS>
315.12930009

> <PUBCHEM_MOLECULAR_FORMULA>
C18H21NO2S

> <PUBCHEM_MOLECULAR_WEIGHT>
315.4

> <PUBCHEM_OPENEYE_CAN_SMILES>
C1CC2=C(C=C(C=C2)O)C3C1N(CCO3)CCC4=CC=CS4

> <PUBCHEM_OPENEYE_ISO_SMILES>
C1CC2=C(C=C(C=C2)O)C3C1N(CCO3)CCC4=CC=CS4

> <PUBCHEM_CACTVS_TPSA>
60.9

> <PUBCHEM_MONOISOTOPIC_WEIGHT>
315.12930009

> <PUBCHEM_TOTAL_CHARGE>
0

> <PUBCHEM_HEAVY_ATOM_COUNT>
22

> <PUBCHEM_ATOM_DEF_STEREO_COUNT>
0

> <PUBCHEM_ATOM_UDEF_STEREO_COUNT>
2

> <PUBCHEM_BOND_DEF_STEREO_COUNT>
0

> <PUBCHEM_BOND_UDEF_STEREO_COUNT>
0

> <PUBCHEM_ISOTOPIC_ATOM_COUNT>
0

> <PUBCHEM_COMPONENT_COUNT>
1

> <PUBCHEM_CACTVS_TAUTO_COUNT>
-1

> <PUBCHEM_COORDINATE_TYPE>
1
5
255

> <PUBCHEM_BONDANNOTATIONS>
1  19  8
1  22  8
11  16  8
14  17  8
16  18  8
17  18  8
19  20  8
6  2  3
20  21  8
21  22  8
5  7  3
9  11  8
9  14  8

$$$$
