44626740
  -OEChem-09292322292D

 62 67  0     1  0  0  0  0  0999 V2000
    6.1499    6.3588    0.0000 Cl  0  0  0  0  0  0  0  0  0  0  0  0
    3.7759   -0.9763    0.0000 S   0  0  0  0  0  0  0  0  0  0  0  0
    3.4138    2.4688    0.0000 N   0  0  3  0  0  0  0  0  0  0  0  0
    4.0547   -2.7364    0.0000 N   0  0  0  0  0  0  0  0  0  0  0  0
    5.3637   -1.7853    0.0000 N   0  0  0  0  0  0  0  0  0  0  0  0
    5.6728   -2.7364    0.0000 N   0  0  0  0  0  0  0  0  0  0  0  0
    6.6237   -6.3588    0.0000 N   0  0  0  0  0  0  0  0  0  0  0  0
    2.9138    4.0077    0.0000 C   0  0  3  0  0  0  0  0  0  0  0  0
    2.1048    3.4199    0.0000 C   0  0  3  0  0  0  0  0  0  0  0  0
    2.0000    4.4148    0.0000 C   0  0  0  0  0  0  0  0  0  0  0  0
    3.7229    3.4199    0.0000 C   0  0  0  0  0  0  0  0  0  0  0  0
    2.4138    2.4688    0.0000 C   0  0  0  0  0  0  0  0  0  0  0  0
    3.7229    4.5955    0.0000 C   0  0  0  0  0  0  0  0  0  0  0  0
    4.0016    1.6598    0.0000 C   0  0  0  0  0  0  0  0  0  0  0  0
    4.6364    4.1887    0.0000 C   0  0  0  0  0  0  0  0  0  0  0  0
    3.6183    5.5900    0.0000 C   0  0  0  0  0  0  0  0  0  0  0  0
    3.5949    0.7463    0.0000 C   0  0  0  0  0  0  0  0  0  0  0  0
    5.4454    4.7765    0.0000 C   0  0  0  0  0  0  0  0  0  0  0  0
    4.4274    6.1778    0.0000 C   0  0  0  0  0  0  0  0  0  0  0  0
    4.1827   -0.0627    0.0000 C   0  0  0  0  0  0  0  0  0  0  0  0
    5.3409    5.7710    0.0000 C   0  0  0  0  0  0  0  0  0  0  0  0
    4.3637   -1.7853    0.0000 C   0  0  0  0  0  0  0  0  0  0  0  0
    4.8637   -3.3242    0.0000 C   0  0  0  0  0  0  0  0  0  0  0  0
    3.1037   -3.0454    0.0000 C   0  0  0  0  0  0  0  0  0  0  0  0
    4.8637   -4.3242    0.0000 C   0  0  0  0  0  0  0  0  0  0  0  0
    5.7298   -4.8242    0.0000 C   0  0  0  0  0  0  0  0  0  0  0  0
    3.9977   -4.8242    0.0000 C   0  0  0  0  0  0  0  0  0  0  0  0
    5.7298   -5.8242    0.0000 C   0  0  0  0  0  0  0  0  0  0  0  0
    6.6237   -4.2895    0.0000 C   0  0  0  0  0  0  0  0  0  0  0  0
    3.9977   -5.8242    0.0000 C   0  0  0  0  0  0  0  0  0  0  0  0
    4.8637   -6.3242    0.0000 C   0  0  0  0  0  0  0  0  0  0  0  0
    7.5298   -4.8033    0.0000 C   0  0  0  0  0  0  0  0  0  0  0  0
    7.5298   -5.8450    0.0000 C   0  0  0  0  0  0  0  0  0  0  0  0
    8.3939   -6.3483    0.0000 C   0  0  0  0  0  0  0  0  0  0  0  0
    1.4984    3.2909    0.0000 H   0  0  0  0  0  0  0  0  0  0  0  0
    2.1500    5.0164    0.0000 H   0  0  0  0  0  0  0  0  0  0  0  0
    1.3815    4.4580    0.0000 H   0  0  0  0  0  0  0  0  0  0  0  0
    4.2893    3.1677    0.0000 H   0  0  0  0  0  0  0  0  0  0  0  0
    4.0329    3.9568    0.0000 H   0  0  0  0  0  0  0  0  0  0  0  0
    1.8074    2.3399    0.0000 H   0  0  0  0  0  0  0  0  0  0  0  0
    2.4786    1.8522    0.0000 H   0  0  0  0  0  0  0  0  0  0  0  0
    4.5156    1.3131    0.0000 H   0  0  0  0  0  0  0  0  0  0  0  0
    4.4323    2.1058    0.0000 H   0  0  0  0  0  0  0  0  0  0  0  0
    4.7012    3.5721    0.0000 H   0  0  0  0  0  0  0  0  0  0  0  0
    3.0519    5.8422    0.0000 H   0  0  0  0  0  0  0  0  0  0  0  0
    3.0809    1.0930    0.0000 H   0  0  0  0  0  0  0  0  0  0  0  0
    3.1642    0.3003    0.0000 H   0  0  0  0  0  0  0  0  0  0  0  0
    6.0118    4.5243    0.0000 H   0  0  0  0  0  0  0  0  0  0  0  0
    4.3625    6.7944    0.0000 H   0  0  0  0  0  0  0  0  0  0  0  0
    4.6967   -0.4094    0.0000 H   0  0  0  0  0  0  0  0  0  0  0  0
    4.6134    0.3832    0.0000 H   0  0  0  0  0  0  0  0  0  0  0  0
    2.9121   -2.4557    0.0000 H   0  0  0  0  0  0  0  0  0  0  0  0
    2.5140   -3.2370    0.0000 H   0  0  0  0  0  0  0  0  0  0  0  0
    3.2952   -3.6350    0.0000 H   0  0  0  0  0  0  0  0  0  0  0  0
    3.4608   -4.5142    0.0000 H   0  0  0  0  0  0  0  0  0  0  0  0
    6.6165   -3.6695    0.0000 H   0  0  0  0  0  0  0  0  0  0  0  0
    3.4608   -6.1342    0.0000 H   0  0  0  0  0  0  0  0  0  0  0  0
    4.8637   -6.9442    0.0000 H   0  0  0  0  0  0  0  0  0  0  0  0
    8.0655   -4.4913    0.0000 H   0  0  0  0  0  0  0  0  0  0  0  0
    8.0818   -6.8840    0.0000 H   0  0  0  0  0  0  0  0  0  0  0  0
    8.9296   -6.6604    0.0000 H   0  0  0  0  0  0  0  0  0  0  0  0
    8.7059   -5.8126    0.0000 H   0  0  0  0  0  0  0  0  0  0  0  0
  1 21  1  0  0  0  0
  2 20  1  0  0  0  0
  2 22  1  0  0  0  0
  3 11  1  0  0  0  0
  3 12  1  0  0  0  0
  3 14  1  0  0  0  0
  4 22  1  0  0  0  0
  4 23  1  0  0  0  0
  4 24  1  0  0  0  0
  5  6  1  0  0  0  0
  5 22  2  0  0  0  0
  6 23  2  0  0  0  0
  7 28  1  0  0  0  0
  7 33  2  0  0  0  0
  8  9  1  0  0  0  0
  8 10  1  0  0  0  0
  8 11  1  0  0  0  0
  8 13  1  0  0  0  0
  9 10  1  0  0  0  0
  9 12  1  0  0  0  0
  9 35  1  0  0  0  0
 10 36  1  0  0  0  0
 10 37  1  0  0  0  0
 11 38  1  0  0  0  0
 11 39  1  0  0  0  0
 12 40  1  0  0  0  0
 12 41  1  0  0  0  0
 13 15  2  0  0  0  0
 13 16  1  0  0  0  0
 14 17  1  0  0  0  0
 14 42  1  0  0  0  0
 14 43  1  0  0  0  0
 15 18  1  0  0  0  0
 15 44  1  0  0  0  0
 16 19  2  0  0  0  0
 16 45  1  0  0  0  0
 17 20  1  0  0  0  0
 17 46  1  0  0  0  0
 17 47  1  0  0  0  0
 18 21  2  0  0  0  0
 18 48  1  0  0  0  0
 19 21  1  0  0  0  0
 19 49  1  0  0  0  0
 20 50  1  0  0  0  0
 20 51  1  0  0  0  0
 23 25  1  0  0  0  0
 24 52  1  0  0  0  0
 24 53  1  0  0  0  0
 24 54  1  0  0  0  0
 25 26  2  0  0  0  0
 25 27  1  0  0  0  0
 26 28  1  0  0  0  0
 26 29  1  0  0  0  0
 27 30  2  0  0  0  0
 27 55  1  0  0  0  0
 28 31  2  0  0  0  0
 29 32  2  0  0  0  0
 29 56  1  0  0  0  0
 30 31  1  0  0  0  0
 30 57  1  0  0  0  0
 31 58  1  0  0  0  0
 32 33  1  0  0  0  0
 32 59  1  0  0  0  0
 33 34  1  0  0  0  0
 34 60  1  0  0  0  0
 34 61  1  0  0  0  0
 34 62  1  0  0  0  0
M  END
> <PUBCHEM_COMPOUND_CID>
44626740

> <PUBCHEM_COMPOUND_CANONICALIZED>
1

> <PUBCHEM_CACTVS_COMPLEXITY>
705

> <PUBCHEM_CACTVS_HBOND_ACCEPTOR>
5

> <PUBCHEM_CACTVS_HBOND_DONOR>
0

> <PUBCHEM_CACTVS_ROTATABLE_BOND>
7

> <PUBCHEM_CACTVS_SUBSKEYS>
AAADceB7gABEAAAAAAAAAAAAGAAAAWLAAAA8eIEAAAAAAACx/AAAHAYIAAAADwrFXySz0PcMEAiiAyZiZACS0CthB7Ad2CA4ZpiIKOLhm5GEIAhgiALIyAcQgMAPhAAAQAASAAAIAACAACQAAAAAAAAAAA==

> <PUBCHEM_IUPAC_OPENEYE_NAME>
5-[5-[3-[1-(4-chlorophenyl)-3-azabicyclo[3.1.0]hexan-3-yl]propylsulfanyl]-4-methyl-1,2,4-triazol-3-yl]-2-methyl-quinoline

> <PUBCHEM_IUPAC_CAS_NAME>
5-[5-[3-[1-(4-chlorophenyl)-3-azabicyclo[3.1.0]hexan-3-yl]propylthio]-4-methyl-1,2,4-triazol-3-yl]-2-methylquinoline

> <PUBCHEM_IUPAC_NAME_MARKUP>
5-[5-[3-[1-(4-chlorophenyl)-3-azabicyclo[3.1.0]hexan-3-yl]propylsulfanyl]-4-methyl-1,2,4-triazol-3-yl]-2-methylquinoline

> <PUBCHEM_IUPAC_NAME>
5-[5-[3-[1-(4-chlorophenyl)-3-azabicyclo[3.1.0]hexan-3-yl]propylsulfanyl]-4-methyl-1,2,4-triazol-3-yl]-2-methylquinoline

> <PUBCHEM_IUPAC_SYSTEMATIC_NAME>
5-[5-[3-[1-(4-chlorophenyl)-3-azabicyclo[3.1.0]hexan-3-yl]propylsulfanyl]-4-methyl-1,2,4-triazol-3-yl]-2-methyl-quinoline

> <PUBCHEM_IUPAC_TRADITIONAL_NAME>
5-[5-[3-[1-(4-chlorophenyl)-3-azabicyclo[3.1.0]hexan-3-yl]propylthio]-4-methyl-1,2,4-triazol-3-yl]-2-methyl-quinoline

> <PUBCHEM_IUPAC_INCHI>
InChI=1S/C27H28ClN5S/c1-18-7-12-22-23(5-3-6-24(22)29-18)25-30-31-26(32(25)2)34-14-4-13-33-16-20-15-27(20,17-33)19-8-10-21(28)11-9-19/h3,5-12,20H,4,13-17H2,1-2H3

> <PUBCHEM_IUPAC_INCHIKEY>
AAONJNLMLWRZJE-UHFFFAOYSA-N

> <PUBCHEM_XLOGP3_AA>
5.5

> <PUBCHEM_EXACT_MASS>
489.1753948

> <PUBCHEM_MOLECULAR_FORMULA>
C27H28ClN5S

> <PUBCHEM_MOLECULAR_WEIGHT>
490.1

> <PUBCHEM_OPENEYE_CAN_SMILES>
CC1=NC2=CC=CC(=C2C=C1)C3=NN=C(N3C)SCCCN4CC5CC5(C4)C6=CC=C(C=C6)Cl

> <PUBCHEM_OPENEYE_ISO_SMILES>
CC1=NC2=CC=CC(=C2C=C1)C3=NN=C(N3C)SCCCN4CC5CC5(C4)C6=CC=C(C=C6)Cl

> <PUBCHEM_CACTVS_TPSA>
72.1

> <PUBCHEM_MONOISOTOPIC_WEIGHT>
489.1753948

> <PUBCHEM_TOTAL_CHARGE>
0

> <PUBCHEM_HEAVY_ATOM_COUNT>
34

> <PUBCHEM_ATOM_DEF_STEREO_COUNT>
0

> <PUBCHEM_ATOM_UDEF_STEREO_COUNT>
2

> <PUBCHEM_BOND_DEF_STEREO_COUNT>
0

> <PUBCHEM_BOND_UDEF_STEREO_COUNT>
0

> <PUBCHEM_ISOTOPIC_ATOM_COUNT>
0

> <PUBCHEM_COMPONENT_COUNT>
1

> <PUBCHEM_CACTVS_TAUTO_COUNT>
-1

> <PUBCHEM_COORDINATE_TYPE>
1
5
255

> <PUBCHEM_BONDANNOTATIONS>
13  15  8
13  16  8
15  18  8
16  19  8
18  21  8
19  21  8
25  26  8
25  27  8
26  28  8
26  29  8
27  30  8
28  31  8
29  32  8
30  31  8
32  33  8
4  22  8
4  23  8
5  22  8
5  6  8
6  23  8
7  28  8
7  33  8
8  13  3
9  10  3

$$$$
