23630602
  -OEChem-09292322252D

 71 75  0     1  0  0  0  0  0999 V2000
    7.7749   -1.0134    0.0000 S   0  0  0  0  0  0  0  0  0  0  0  0
   17.2110    2.0853    0.0000 O   0  0  0  0  0  0  0  0  0  0  0  0
    6.1871   -1.8224    0.0000 N   0  0  0  0  0  0  0  0  0  0  0  0
    5.2361   -0.5134    0.0000 N   0  0  0  0  0  0  0  0  0  0  0  0
   10.7749    0.7187    0.0000 N   0  0  3  0  0  0  0  0  0  0  0  0
    6.1871   -0.2044    0.0000 N   0  0  0  0  0  0  0  0  0  0  0  0
   16.5448    1.3396    0.0000 N   0  0  0  0  0  0  0  0  0  0  0  0
    4.4271   -2.1012    0.0000 C   0  0  0  0  0  0  0  0  0  0  0  0
    2.8090   -3.2767    0.0000 C   0  0  0  0  0  0  0  0  0  0  0  0
    3.5135   -1.6944    0.0000 C   0  0  0  0  0  0  0  0  0  0  0  0
    4.5316   -3.0957    0.0000 C   0  0  0  0  0  0  0  0  0  0  0  0
    2.7045   -2.2822    0.0000 C   0  0  0  0  0  0  0  0  0  0  0  0
    3.7226   -3.6835    0.0000 C   0  0  0  0  0  0  0  0  0  0  0  0
    5.2361   -1.5134    0.0000 C   0  0  0  0  0  0  0  0  0  0  0  0
    2.0000   -3.8645    0.0000 C   0  0  0  0  0  0  0  0  0  0  0  0
    6.7749   -1.0134    0.0000 C   0  0  0  0  0  0  0  0  0  0  0  0
   11.2088    1.6196    0.0000 C   0  0  0  0  0  0  0  0  0  0  0  0
   11.2088   -0.1823    0.0000 C   0  0  0  0  0  0  0  0  0  0  0  0
    9.7749    0.7187    0.0000 C   0  0  0  0  0  0  0  0  0  0  0  0
   12.1837    1.8422    0.0000 C   0  0  0  0  0  0  0  0  0  0  0  0
   12.1837   -0.4048    0.0000 C   0  0  0  0  0  0  0  0  0  0  0  0
    6.4961   -2.7735    0.0000 C   0  0  0  0  0  0  0  0  0  0  0  0
   12.9656    1.2187    0.0000 C   0  0  0  0  0  0  0  0  0  0  0  0
   12.9656    0.2187    0.0000 C   0  0  0  0  0  0  0  0  0  0  0  0
    9.2749   -0.1474    0.0000 C   0  0  0  0  0  0  0  0  0  0  0  0
    8.2749   -0.1474    0.0000 C   0  0  0  0  0  0  0  0  0  0  0  0
   13.8595    1.7533    0.0000 C   0  0  0  0  0  0  0  0  0  0  0  0
   13.8595   -0.3160    0.0000 C   0  0  0  0  0  0  0  0  0  0  0  0
   14.7656    1.2395    0.0000 C   0  0  0  0  0  0  0  0  0  0  0  0
   14.7656    0.1979    0.0000 C   0  0  0  0  0  0  0  0  0  0  0  0
   15.6297    1.7428    0.0000 C   0  0  0  0  0  0  0  0  0  0  0  0
   15.7303    2.7377    0.0000 C   0  0  0  0  0  0  0  0  0  0  0  0
   16.7077    2.9494    0.0000 C   0  0  0  0  0  0  0  0  0  0  0  0
   17.1109    3.8645    0.0000 C   0  0  0  0  0  0  0  0  0  0  0  0
    4.9934   -2.3533    0.0000 H   0  0  0  0  0  0  0  0  0  0  0  0
    2.8738   -3.8933    0.0000 H   0  0  0  0  0  0  0  0  0  0  0  0
    3.8602   -1.1804    0.0000 H   0  0  0  0  0  0  0  0  0  0  0  0
    3.0675   -1.2637    0.0000 H   0  0  0  0  0  0  0  0  0  0  0  0
    4.8034   -3.6529    0.0000 H   0  0  0  0  0  0  0  0  0  0  0  0
    5.1276   -2.9248    0.0000 H   0  0  0  0  0  0  0  0  0  0  0  0
    2.4327   -1.7250    0.0000 H   0  0  0  0  0  0  0  0  0  0  0  0
    2.1085   -2.4531    0.0000 H   0  0  0  0  0  0  0  0  0  0  0  0
    3.3759   -4.1975    0.0000 H   0  0  0  0  0  0  0  0  0  0  0  0
    4.1686   -4.1142    0.0000 H   0  0  0  0  0  0  0  0  0  0  0  0
    1.6356   -3.3629    0.0000 H   0  0  0  0  0  0  0  0  0  0  0  0
    1.4984   -4.2290    0.0000 H   0  0  0  0  0  0  0  0  0  0  0  0
    2.3644   -4.3661    0.0000 H   0  0  0  0  0  0  0  0  0  0  0  0
   11.2088    2.2396    0.0000 H   0  0  0  0  0  0  0  0  0  0  0  0
   10.6043    1.7576    0.0000 H   0  0  0  0  0  0  0  0  0  0  0  0
   10.6043   -0.3203    0.0000 H   0  0  0  0  0  0  0  0  0  0  0  0
   11.2088   -0.8023    0.0000 H   0  0  0  0  0  0  0  0  0  0  0  0
    9.8826    1.3292    0.0000 H   0  0  0  0  0  0  0  0  0  0  0  0
    9.1923    0.9307    0.0000 H   0  0  0  0  0  0  0  0  0  0  0  0
   12.6685    2.2287    0.0000 H   0  0  0  0  0  0  0  0  0  0  0  0
   11.9147    2.4008    0.0000 H   0  0  0  0  0  0  0  0  0  0  0  0
   11.9147   -0.9634    0.0000 H   0  0  0  0  0  0  0  0  0  0  0  0
   12.6685   -0.7914    0.0000 H   0  0  0  0  0  0  0  0  0  0  0  0
    5.9065   -2.9651    0.0000 H   0  0  0  0  0  0  0  0  0  0  0  0
    6.6877   -3.3631    0.0000 H   0  0  0  0  0  0  0  0  0  0  0  0
    7.0858   -2.5819    0.0000 H   0  0  0  0  0  0  0  0  0  0  0  0
    9.1672   -0.7579    0.0000 H   0  0  0  0  0  0  0  0  0  0  0  0
    9.8575   -0.3594    0.0000 H   0  0  0  0  0  0  0  0  0  0  0  0
    8.3826    0.4632    0.0000 H   0  0  0  0  0  0  0  0  0  0  0  0
    7.6923    0.0647    0.0000 H   0  0  0  0  0  0  0  0  0  0  0  0
   13.8523    2.3733    0.0000 H   0  0  0  0  0  0  0  0  0  0  0  0
   13.8523   -0.9360    0.0000 H   0  0  0  0  0  0  0  0  0  0  0  0
   15.3013   -0.1142    0.0000 H   0  0  0  0  0  0  0  0  0  0  0  0
   15.2680    3.1508    0.0000 H   0  0  0  0  0  0  0  0  0  0  0  0
   17.6783    3.6145    0.0000 H   0  0  0  0  0  0  0  0  0  0  0  0
   17.3609    4.4319    0.0000 H   0  0  0  0  0  0  0  0  0  0  0  0
   16.5435    4.1145    0.0000 H   0  0  0  0  0  0  0  0  0  0  0  0
  1 16  1  0  0  0  0
  1 26  1  0  0  0  0
  2  7  1  0  0  0  0
  2 33  1  0  0  0  0
  3 14  1  0  0  0  0
  3 16  1  0  0  0  0
  3 22  1  0  0  0  0
  4  6  1  0  0  0  0
  4 14  2  0  0  0  0
  5 17  1  0  0  0  0
  5 18  1  0  0  0  0
  5 19  1  0  0  0  0
  6 16  2  0  0  0  0
  7 31  2  0  0  0  0
  8 10  1  0  0  0  0
  8 11  1  0  0  0  0
  8 14  1  0  0  0  0
  8 35  1  0  0  0  0
  9 12  1  0  0  0  0
  9 13  1  0  0  0  0
  9 15  1  0  0  0  0
  9 36  1  0  0  0  0
 10 12  1  0  0  0  0
 10 37  1  0  0  0  0
 10 38  1  0  0  0  0
 11 13  1  0  0  0  0
 11 39  1  0  0  0  0
 11 40  1  0  0  0  0
 12 41  1  0  0  0  0
 12 42  1  0  0  0  0
 13 43  1  0  0  0  0
 13 44  1  0  0  0  0
 15 45  1  0  0  0  0
 15 46  1  0  0  0  0
 15 47  1  0  0  0  0
 17 20  1  0  0  0  0
 17 48  1  0  0  0  0
 17 49  1  0  0  0  0
 18 21  1  0  0  0  0
 18 50  1  0  0  0  0
 18 51  1  0  0  0  0
 19 25  1  0  0  0  0
 19 52  1  0  0  0  0
 19 53  1  0  0  0  0
 20 23  1  0  0  0  0
 20 54  1  0  0  0  0
 20 55  1  0  0  0  0
 21 24  1  0  0  0  0
 21 56  1  0  0  0  0
 21 57  1  0  0  0  0
 22 58  1  0  0  0  0
 22 59  1  0  0  0  0
 22 60  1  0  0  0  0
 23 24  2  0  0  0  0
 23 27  1  0  0  0  0
 24 28  1  0  0  0  0
 25 26  1  0  0  0  0
 25 61  1  0  0  0  0
 25 62  1  0  0  0  0
 26 63  1  0  0  0  0
 26 64  1  0  0  0  0
 27 29  2  0  0  0  0
 27 65  1  0  0  0  0
 28 30  2  0  0  0  0
 28 66  1  0  0  0  0
 29 30  1  0  0  0  0
 29 31  1  0  0  0  0
 30 67  1  0  0  0  0
 31 32  1  0  0  0  0
 32 33  2  0  0  0  0
 32 68  1  0  0  0  0
 33 34  1  0  0  0  0
 34 69  1  0  0  0  0
 34 70  1  0  0  0  0
 34 71  1  0  0  0  0
M  END
> <PUBCHEM_COMPOUND_CID>
23630602

> <PUBCHEM_COMPOUND_CANONICALIZED>
1

> <PUBCHEM_CACTVS_COMPLEXITY>
632

> <PUBCHEM_CACTVS_HBOND_ACCEPTOR>
6

> <PUBCHEM_CACTVS_HBOND_DONOR>
0

> <PUBCHEM_CACTVS_ROTATABLE_BOND>
7

> <PUBCHEM_CACTVS_SUBSKEYS>
AAADcfB7oABAAAAAAAAAAAAAAAAAAWLAAAAwYAAABYAAAAAB8AAAHgQMAAAADQzF3wSzlJccEAirA6ZyZgCS0AtkIrA92CE+bNqILrqgmZOEMYBmiBqIyUeYyOCOwAACAAAQAACAAAQAACAAAAAAAAAAAA==

> <PUBCHEM_IUPAC_OPENEYE_NAME>
5-methyl-3-[3-[3-[[4-methyl-5-(4-methylcyclohexyl)-1,2,4-triazol-3-yl]sulfanyl]propyl]-1,2,4,5-tetrahydro-3-benzazepin-7-yl]isoxazole

> <PUBCHEM_IUPAC_CAS_NAME>
5-methyl-3-[3-[3-[[4-methyl-5-(4-methylcyclohexyl)-1,2,4-triazol-3-yl]thio]propyl]-1,2,4,5-tetrahydro-3-benzazepin-7-yl]isoxazole

> <PUBCHEM_IUPAC_NAME_MARKUP>
5-methyl-3-[3-[3-[[4-methyl-5-(4-methylcyclohexyl)-1,2,4-triazol-3-yl]sulfanyl]propyl]-1,2,4,5-tetrahydro-3-benzazepin-7-yl]-1,2-oxazole

> <PUBCHEM_IUPAC_NAME>
5-methyl-3-[3-[3-[[4-methyl-5-(4-methylcyclohexyl)-1,2,4-triazol-3-yl]sulfanyl]propyl]-1,2,4,5-tetrahydro-3-benzazepin-7-yl]-1,2-oxazole

> <PUBCHEM_IUPAC_SYSTEMATIC_NAME>
5-methyl-3-[3-[3-[[4-methyl-5-(4-methylcyclohexyl)-1,2,4-triazol-3-yl]sulfanyl]propyl]-1,2,4,5-tetrahydro-3-benzazepin-7-yl]-1,2-oxazole

> <PUBCHEM_IUPAC_TRADITIONAL_NAME>
5-methyl-3-[3-[3-[[4-methyl-5-(4-methylcyclohexyl)-1,2,4-triazol-3-yl]thio]propyl]-1,2,4,5-tetrahydro-3-benzazepin-7-yl]isoxazole

> <PUBCHEM_IUPAC_INCHI>
InChI=1S/C27H37N5OS/c1-19-5-7-22(8-6-19)26-28-29-27(31(26)3)34-16-4-13-32-14-11-21-9-10-24(18-23(21)12-15-32)25-17-20(2)33-30-25/h9-10,17-19,22H,4-8,11-16H2,1-3H3

> <PUBCHEM_IUPAC_INCHIKEY>
SQQYHALTXOFUNG-UHFFFAOYSA-N

> <PUBCHEM_XLOGP3_AA>
5.6

> <PUBCHEM_EXACT_MASS>
479.27188199

> <PUBCHEM_MOLECULAR_FORMULA>
C27H37N5OS

> <PUBCHEM_MOLECULAR_WEIGHT>
479.7

> <PUBCHEM_OPENEYE_CAN_SMILES>
CC1CCC(CC1)C2=NN=C(N2C)SCCCN3CCC4=C(CC3)C=C(C=C4)C5=NOC(=C5)C

> <PUBCHEM_OPENEYE_ISO_SMILES>
CC1CCC(CC1)C2=NN=C(N2C)SCCCN3CCC4=C(CC3)C=C(C=C4)C5=NOC(=C5)C

> <PUBCHEM_CACTVS_TPSA>
85.3

> <PUBCHEM_MONOISOTOPIC_WEIGHT>
479.27188199

> <PUBCHEM_TOTAL_CHARGE>
0

> <PUBCHEM_HEAVY_ATOM_COUNT>
34

> <PUBCHEM_ATOM_DEF_STEREO_COUNT>
0

> <PUBCHEM_ATOM_UDEF_STEREO_COUNT>
0

> <PUBCHEM_BOND_DEF_STEREO_COUNT>
0

> <PUBCHEM_BOND_UDEF_STEREO_COUNT>
0

> <PUBCHEM_ISOTOPIC_ATOM_COUNT>
0

> <PUBCHEM_COMPONENT_COUNT>
1

> <PUBCHEM_CACTVS_TAUTO_COUNT>
-1

> <PUBCHEM_COORDINATE_TYPE>
1
5
255

> <PUBCHEM_BONDANNOTATIONS>
2  33  8
2  7  8
23  24  8
23  27  8
24  28  8
27  29  8
28  30  8
29  30  8
3  14  8
3  16  8
31  32  8
32  33  8
4  14  8
4  6  8
6  16  8
7  31  8

$$$$
