9982218
  -OEChem-09292322152D

 66 69  0     1  0  0  0  0  0999 V2000
    4.5981   -0.4827    0.0000 S   0  0  0  0  0  0  0  0  0  0  0  0
    4.0981   -1.3487    0.0000 O   0  0  0  0  0  0  0  0  0  0  0  0
    5.0981    0.3834    0.0000 O   0  0  0  0  0  0  0  0  0  0  0  0
    4.5981    2.5173    0.0000 O   0  5  0  0  0  0  0  0  0  0  0  0
    5.4641    1.0173    0.0000 O   0  0  0  0  0  0  0  0  0  0  0  0
   10.6603   -1.9827    0.0000 N   0  0  0  0  0  0  0  0  0  0  0  0
    5.4641   -0.9827    0.0000 N   0  0  0  0  0  0  0  0  0  0  0  0
    4.5981    1.5173    0.0000 N   0  3  0  0  0  0  0  0  0  0  0  0
    8.9282   -1.9827    0.0000 C   0  0  0  0  0  0  0  0  0  0  0  0
    7.1962   -0.9827    0.0000 C   0  0  0  0  0  0  0  0  0  0  0  0
    8.0622   -2.4827    0.0000 C   0  0  0  0  0  0  0  0  0  0  0  0
    8.9282   -0.9827    0.0000 C   0  0  0  0  0  0  0  0  0  0  0  0
    7.1962   -1.9827    0.0000 C   0  0  0  0  0  0  0  0  0  0  0  0
    8.0622   -0.4827    0.0000 C   0  0  0  0  0  0  0  0  0  0  0  0
    9.7942   -2.4827    0.0000 C   0  0  0  0  0  0  0  0  0  0  0  0
    6.3301   -0.4827    0.0000 C   0  0  0  0  0  0  0  0  0  0  0  0
   12.3923   -1.9827    0.0000 C   0  0  3  0  0  0  0  0  0  0  0  0
   11.5263   -2.4827    0.0000 C   0  0  0  0  0  0  0  0  0  0  0  0
   12.3923   -0.9827    0.0000 C   0  0  0  0  0  0  0  0  0  0  0  0
   13.2583   -2.4827    0.0000 C   0  0  0  0  0  0  0  0  0  0  0  0
   13.2583   -0.4827    0.0000 C   0  0  0  0  0  0  0  0  0  0  0  0
   14.1244   -1.9827    0.0000 C   0  0  0  0  0  0  0  0  0  0  0  0
   14.1244   -0.9827    0.0000 C   0  0  0  0  0  0  0  0  0  0  0  0
   15.0183   -2.5173    0.0000 C   0  0  0  0  0  0  0  0  0  0  0  0
   15.0183   -0.4480    0.0000 C   0  0  0  0  0  0  0  0  0  0  0  0
    3.7320    0.0173    0.0000 C   0  0  0  0  0  0  0  0  0  0  0  0
   15.9244   -2.0035    0.0000 C   0  0  0  0  0  0  0  0  0  0  0  0
   15.9244   -0.9619    0.0000 C   0  0  0  0  0  0  0  0  0  0  0  0
    3.7320    1.0173    0.0000 C   0  0  0  0  0  0  0  0  0  0  0  0
    2.8660   -0.4827    0.0000 C   0  0  0  0  0  0  0  0  0  0  0  0
    2.8660    1.5173    0.0000 C   0  0  0  0  0  0  0  0  0  0  0  0
    2.0000    0.0173    0.0000 C   0  0  0  0  0  0  0  0  0  0  0  0
    2.0000    1.0173    0.0000 C   0  0  0  0  0  0  0  0  0  0  0  0
    9.4651   -1.6727    0.0000 H   0  0  0  0  0  0  0  0  0  0  0  0
    6.6592   -1.2927    0.0000 H   0  0  0  0  0  0  0  0  0  0  0  0
    7.6636   -2.9576    0.0000 H   0  0  0  0  0  0  0  0  0  0  0  0
    8.4607   -2.9576    0.0000 H   0  0  0  0  0  0  0  0  0  0  0  0
    9.5388   -1.0903    0.0000 H   0  0  0  0  0  0  0  0  0  0  0  0
    9.1403   -0.4001    0.0000 H   0  0  0  0  0  0  0  0  0  0  0  0
    6.5856   -1.8750    0.0000 H   0  0  0  0  0  0  0  0  0  0  0  0
    6.9841   -2.5653    0.0000 H   0  0  0  0  0  0  0  0  0  0  0  0
    8.4607   -0.0077    0.0000 H   0  0  0  0  0  0  0  0  0  0  0  0
    7.6636   -0.0077    0.0000 H   0  0  0  0  0  0  0  0  0  0  0  0
    9.3957   -2.9576    0.0000 H   0  0  0  0  0  0  0  0  0  0  0  0
   10.1928   -2.9576    0.0000 H   0  0  0  0  0  0  0  0  0  0  0  0
    6.7287   -0.0077    0.0000 H   0  0  0  0  0  0  0  0  0  0  0  0
    5.9316   -0.0077    0.0000 H   0  0  0  0  0  0  0  0  0  0  0  0
   11.8554   -1.6727    0.0000 H   0  0  0  0  0  0  0  0  0  0  0  0
   11.1278   -2.9576    0.0000 H   0  0  0  0  0  0  0  0  0  0  0  0
   11.9248   -2.9576    0.0000 H   0  0  0  0  0  0  0  0  0  0  0  0
   10.6603   -1.3627    0.0000 H   0  0  0  0  0  0  0  0  0  0  0  0
   12.1803   -0.4001    0.0000 H   0  0  0  0  0  0  0  0  0  0  0  0
   11.7817   -1.0903    0.0000 H   0  0  0  0  0  0  0  0  0  0  0  0
   12.8598   -2.9576    0.0000 H   0  0  0  0  0  0  0  0  0  0  0  0
   13.6569   -2.9576    0.0000 H   0  0  0  0  0  0  0  0  0  0  0  0
   13.6569   -0.0077    0.0000 H   0  0  0  0  0  0  0  0  0  0  0  0
   12.8598   -0.0077    0.0000 H   0  0  0  0  0  0  0  0  0  0  0  0
    5.4641   -1.6027    0.0000 H   0  0  0  0  0  0  0  0  0  0  0  0
   15.0111   -3.1373    0.0000 H   0  0  0  0  0  0  0  0  0  0  0  0
   15.0111    0.1720    0.0000 H   0  0  0  0  0  0  0  0  0  0  0  0
   16.4601   -2.3156    0.0000 H   0  0  0  0  0  0  0  0  0  0  0  0
   16.4601   -0.6498    0.0000 H   0  0  0  0  0  0  0  0  0  0  0  0
    2.8660   -1.1027    0.0000 H   0  0  0  0  0  0  0  0  0  0  0  0
    2.8660    2.1373    0.0000 H   0  0  0  0  0  0  0  0  0  0  0  0
    1.4631   -0.2927    0.0000 H   0  0  0  0  0  0  0  0  0  0  0  0
    1.4631    1.3273    0.0000 H   0  0  0  0  0  0  0  0  0  0  0  0
  1  2  2  0  0  0  0
  1  3  2  0  0  0  0
  1  7  1  0  0  0  0
  1 26  1  0  0  0  0
  4  8  1  0  0  0  0
  5  8  2  0  0  0  0
  6 15  1  0  0  0  0
  6 18  1  0  0  0  0
  6 51  1  0  0  0  0
  7 16  1  0  0  0  0
  7 58  1  0  0  0  0
  8 29  1  0  0  0  0
  9 11  1  0  0  0  0
  9 12  1  0  0  0  0
  9 15  1  0  0  0  0
  9 34  1  0  0  0  0
 10 13  1  0  0  0  0
 10 14  1  0  0  0  0
 10 16  1  0  0  0  0
 10 35  1  0  0  0  0
 11 13  1  0  0  0  0
 11 36  1  0  0  0  0
 11 37  1  0  0  0  0
 12 14  1  0  0  0  0
 12 38  1  0  0  0  0
 12 39  1  0  0  0  0
 13 40  1  0  0  0  0
 13 41  1  0  0  0  0
 14 42  1  0  0  0  0
 14 43  1  0  0  0  0
 15 44  1  0  0  0  0
 15 45  1  0  0  0  0
 16 46  1  0  0  0  0
 16 47  1  0  0  0  0
 17 18  1  0  0  0  0
 17 19  1  0  0  0  0
 17 20  1  0  0  0  0
 17 48  1  0  0  0  0
 18 49  1  0  0  0  0
 18 50  1  0  0  0  0
 19 21  1  0  0  0  0
 19 52  1  0  0  0  0
 19 53  1  0  0  0  0
 20 22  1  0  0  0  0
 20 54  1  0  0  0  0
 20 55  1  0  0  0  0
 21 23  1  0  0  0  0
 21 56  1  0  0  0  0
 21 57  1  0  0  0  0
 22 23  1  0  0  0  0
 22 24  2  0  0  0  0
 23 25  2  0  0  0  0
 24 27  1  0  0  0  0
 24 59  1  0  0  0  0
 25 28  1  0  0  0  0
 25 60  1  0  0  0  0
 26 29  1  0  0  0  0
 26 30  2  0  0  0  0
 27 28  2  0  0  0  0
 27 61  1  0  0  0  0
 28 62  1  0  0  0  0
 29 31  2  0  0  0  0
 30 32  1  0  0  0  0
 30 63  1  0  0  0  0
 31 33  1  0  0  0  0
 31 64  1  0  0  0  0
 32 33  2  0  0  0  0
 32 65  1  0  0  0  0
 33 66  1  0  0  0  0
M  CHG  2   4  -1   8   1
M  END
> <PUBCHEM_COMPOUND_CID>
9982218

> <PUBCHEM_COMPOUND_CANONICALIZED>
1

> <PUBCHEM_CACTVS_COMPLEXITY>
727

> <PUBCHEM_CACTVS_HBOND_ACCEPTOR>
6

> <PUBCHEM_CACTVS_HBOND_DONOR>
2

> <PUBCHEM_CACTVS_ROTATABLE_BOND>
8

> <PUBCHEM_CACTVS_SUBSKEYS>
AAADcfB7OABAAAAAAAAAAAAAAAAAAAAAAAAwYMGAAAAAAADBQAAAHAQUQAAADQjBWAQwwYLQQAKBAiRCQ3DCABAgAgAoiJwIZIoIICKAkZGEIABgkACIyAcQgMAOgAAAAAAQAQCAAAQAACACAAAAAAAAAA==

> <PUBCHEM_IUPAC_OPENEYE_NAME>
2-nitro-N-[[4-[(tetralin-2-ylmethylamino)methyl]cyclohexyl]methyl]benzenesulfonamide

> <PUBCHEM_IUPAC_CAS_NAME>
2-nitro-N-[[4-[(1,2,3,4-tetrahydronaphthalen-2-ylmethylamino)methyl]cyclohexyl]methyl]benzenesulfonamide

> <PUBCHEM_IUPAC_NAME_MARKUP>
2-nitro-<I>N</I>-[[4-[(1,2,3,4-tetrahydronaphthalen-2-ylmethylamino)methyl]cyclohexyl]methyl]benzenesulfonamide

> <PUBCHEM_IUPAC_NAME>
2-nitro-N-[[4-[(1,2,3,4-tetrahydronaphthalen-2-ylmethylamino)methyl]cyclohexyl]methyl]benzenesulfonamide

> <PUBCHEM_IUPAC_SYSTEMATIC_NAME>
2-nitro-N-[[4-[(1,2,3,4-tetrahydronaphthalen-2-ylmethylamino)methyl]cyclohexyl]methyl]benzenesulfonamide

> <PUBCHEM_IUPAC_TRADITIONAL_NAME>
2-nitro-N-[[4-[(tetralin-2-ylmethylamino)methyl]cyclohexyl]methyl]benzenesulfonamide

> <PUBCHEM_IUPAC_INCHI>
InChI=1S/C25H33N3O4S/c29-28(30)24-7-3-4-8-25(24)33(31,32)27-18-20-11-9-19(10-12-20)16-26-17-21-13-14-22-5-1-2-6-23(22)15-21/h1-8,19-21,26-27H,9-18H2

> <PUBCHEM_IUPAC_INCHIKEY>
ISSSVYKMIIAPTH-UHFFFAOYSA-N

> <PUBCHEM_XLOGP3_AA>
4.6

> <PUBCHEM_EXACT_MASS>
471.21917772

> <PUBCHEM_MOLECULAR_FORMULA>
C25H33N3O4S

> <PUBCHEM_MOLECULAR_WEIGHT>
471.6

> <PUBCHEM_OPENEYE_CAN_SMILES>
C1CC(CCC1CNCC2CCC3=CC=CC=C3C2)CNS(=O)(=O)C4=CC=CC=C4[N+](=O)[O-]

> <PUBCHEM_OPENEYE_ISO_SMILES>
C1CC(CCC1CNCC2CCC3=CC=CC=C3C2)CNS(=O)(=O)C4=CC=CC=C4[N+](=O)[O-]

> <PUBCHEM_CACTVS_TPSA>
112

> <PUBCHEM_MONOISOTOPIC_WEIGHT>
471.21917772

> <PUBCHEM_TOTAL_CHARGE>
0

> <PUBCHEM_HEAVY_ATOM_COUNT>
33

> <PUBCHEM_ATOM_DEF_STEREO_COUNT>
0

> <PUBCHEM_ATOM_UDEF_STEREO_COUNT>
1

> <PUBCHEM_BOND_DEF_STEREO_COUNT>
0

> <PUBCHEM_BOND_UDEF_STEREO_COUNT>
0

> <PUBCHEM_ISOTOPIC_ATOM_COUNT>
0

> <PUBCHEM_COMPONENT_COUNT>
1

> <PUBCHEM_CACTVS_TAUTO_COUNT>
-1

> <PUBCHEM_COORDINATE_TYPE>
1
5
255

> <PUBCHEM_BONDANNOTATIONS>
17  18  3
22  23  8
22  24  8
23  25  8
24  27  8
25  28  8
26  29  8
26  30  8
27  28  8
29  31  8
30  32  8
31  33  8
32  33  8

$$$$
