156077323
  -OEChem-09292322452D

 69 74  0     1  0  0  0  0  0999 V2000
   10.1402    2.2084    0.0000 F   0  0  0  0  0  0  0  0  0  0  0  0
    2.0000    3.5298    0.0000 F   0  0  0  0  0  0  0  0  0  0  0  0
    2.8900    2.4307    0.0000 F   0  0  0  0  0  0  0  0  0  0  0  0
    4.4890    2.4547    0.0000 O   0  0  0  0  0  0  0  0  0  0  0  0
   11.3722   -1.6576    0.0000 O   0  0  0  0  0  0  0  0  0  0  0  0
    7.6402    3.0745    0.0000 N   0  0  3  0  0  0  0  0  0  0  0  0
    5.4672    2.6626    0.0000 N   0  0  0  0  0  0  0  0  0  0  0  0
    9.6402   -1.6576    0.0000 N   0  0  0  0  0  0  0  0  0  0  0  0
   12.9021   -4.1576    0.0000 N   0  0  0  0  0  0  0  0  0  0  0  0
   12.3184   -4.9623    0.0000 N   0  0  0  0  0  0  0  0  0  0  0  0
    6.4378    4.1571    0.0000 C   0  0  2  0  0  0  0  0  0  0  0  0
    7.3038    4.6571    0.0000 C   0  0  1  0  0  0  0  0  0  0  0  0
    6.4375    5.1576    0.0000 C   0  0  0  0  0  0  0  0  0  0  0  0
    6.6457    3.1790    0.0000 C   0  0  0  0  0  0  0  0  0  0  0  0
    8.0469    3.9880    0.0000 C   0  0  0  0  0  0  0  0  0  0  0  0
    5.5717    3.6571    0.0000 C   0  0  0  0  0  0  0  0  0  0  0  0
    8.1402    2.2084    0.0000 C   0  0  0  0  0  0  0  0  0  0  0  0
    4.6582    4.0639    0.0000 C   0  0  0  0  0  0  0  0  0  0  0  0
    9.1402    2.2084    0.0000 C   0  0  0  0  0  0  0  0  0  0  0  0
    9.6402    1.3424    0.0000 C   0  0  0  0  0  0  0  0  0  0  0  0
    3.9890    3.3207    0.0000 C   0  0  0  0  0  0  0  0  0  0  0  0
    8.7742    0.8424    0.0000 C   0  0  0  0  0  0  0  0  0  0  0  0
   10.5062    0.8424    0.0000 C   0  0  0  0  0  0  0  0  0  0  0  0
    8.7742   -0.1576    0.0000 C   0  0  0  0  0  0  0  0  0  0  0  0
   10.5062   -0.1576    0.0000 C   0  0  0  0  0  0  0  0  0  0  0  0
    9.6402   -0.6576    0.0000 C   0  0  0  0  0  0  0  0  0  0  0  0
    2.9945    3.4253    0.0000 C   0  0  0  0  0  0  0  0  0  0  0  0
    3.0990    4.4198    0.0000 C   0  0  0  0  0  0  0  0  0  0  0  0
   10.5062   -2.1576    0.0000 C   0  0  0  0  0  0  0  0  0  0  0  0
   10.5062   -3.1576    0.0000 C   0  0  0  0  0  0  0  0  0  0  0  0
   11.3722   -3.6576    0.0000 C   0  0  0  0  0  0  0  0  0  0  0  0
    9.6402   -3.6576    0.0000 C   0  0  0  0  0  0  0  0  0  0  0  0
   11.3722   -4.6576    0.0000 C   0  0  0  0  0  0  0  0  0  0  0  0
   12.3184   -3.3528    0.0000 C   0  0  0  0  0  0  0  0  0  0  0  0
    9.6402   -4.6576    0.0000 C   0  0  0  0  0  0  0  0  0  0  0  0
   10.5062   -5.1576    0.0000 C   0  0  0  0  0  0  0  0  0  0  0  0
   13.9021   -4.1576    0.0000 C   0  0  0  0  0  0  0  0  0  0  0  0
    7.8035    5.3447    0.0000 H   0  0  0  0  0  0  0  0  0  0  0  0
    6.6496    5.7402    0.0000 H   0  0  0  0  0  0  0  0  0  0  0  0
    5.8269    5.2652    0.0000 H   0  0  0  0  0  0  0  0  0  0  0  0
    6.0290    3.1142    0.0000 H   0  0  0  0  0  0  0  0  0  0  0  0
    6.6457    2.5590    0.0000 H   0  0  0  0  0  0  0  0  0  0  0  0
    8.5838    3.6780    0.0000 H   0  0  0  0  0  0  0  0  0  0  0  0
    8.4113    4.4896    0.0000 H   0  0  0  0  0  0  0  0  0  0  0  0
    7.5576    1.9964    0.0000 H   0  0  0  0  0  0  0  0  0  0  0  0
    8.2478    1.5979    0.0000 H   0  0  0  0  0  0  0  0  0  0  0  0
    9.7228    2.4205    0.0000 H   0  0  0  0  0  0  0  0  0  0  0  0
    9.0325    2.8190    0.0000 H   0  0  0  0  0  0  0  0  0  0  0  0
    4.5293    4.6703    0.0000 H   0  0  0  0  0  0  0  0  0  0  0  0
    8.5621    1.4250    0.0000 H   0  0  0  0  0  0  0  0  0  0  0  0
    8.1636    0.7348    0.0000 H   0  0  0  0  0  0  0  0  0  0  0  0
   11.1168    0.7348    0.0000 H   0  0  0  0  0  0  0  0  0  0  0  0
   10.7183    1.4250    0.0000 H   0  0  0  0  0  0  0  0  0  0  0  0
    8.1636   -0.0499    0.0000 H   0  0  0  0  0  0  0  0  0  0  0  0
    8.5621   -0.7402    0.0000 H   0  0  0  0  0  0  0  0  0  0  0  0
   10.7183   -0.7402    0.0000 H   0  0  0  0  0  0  0  0  0  0  0  0
   11.1168   -0.0499    0.0000 H   0  0  0  0  0  0  0  0  0  0  0  0
    9.1032   -0.9676    0.0000 H   0  0  0  0  0  0  0  0  0  0  0  0
    9.1032   -1.9676    0.0000 H   0  0  0  0  0  0  0  0  0  0  0  0
    3.7156    4.3550    0.0000 H   0  0  0  0  0  0  0  0  0  0  0  0
    3.1639    5.0364    0.0000 H   0  0  0  0  0  0  0  0  0  0  0  0
    2.4824    4.4846    0.0000 H   0  0  0  0  0  0  0  0  0  0  0  0
    9.1032   -3.3476    0.0000 H   0  0  0  0  0  0  0  0  0  0  0  0
   12.5111   -2.7635    0.0000 H   0  0  0  0  0  0  0  0  0  0  0  0
    9.1032   -4.9676    0.0000 H   0  0  0  0  0  0  0  0  0  0  0  0
   10.5062   -5.7776    0.0000 H   0  0  0  0  0  0  0  0  0  0  0  0
   13.9021   -4.7776    0.0000 H   0  0  0  0  0  0  0  0  0  0  0  0
   14.5221   -4.1576    0.0000 H   0  0  0  0  0  0  0  0  0  0  0  0
   13.9021   -3.5376    0.0000 H   0  0  0  0  0  0  0  0  0  0  0  0
  1 20  1  0  0  0  0
  2 27  1  0  0  0  0
  3 27  1  0  0  0  0
  4  7  1  0  0  0  0
  4 21  1  0  0  0  0
  5 29  2  0  0  0  0
  6 14  1  0  0  0  0
  6 15  1  0  0  0  0
  6 17  1  0  0  0  0
  7 16  2  0  0  0  0
  8 26  1  0  0  0  0
  8 29  1  0  0  0  0
  8 59  1  0  0  0  0
  9 10  1  0  0  0  0
  9 34  1  0  0  0  0
  9 37  1  0  0  0  0
 10 33  2  0  0  0  0
 11 12  1  0  0  0  0
 11 13  1  0  0  0  0
 11 14  1  0  0  0  0
 11 16  1  6  0  0  0
 12 13  1  0  0  0  0
 12 15  1  0  0  0  0
 12 38  1  6  0  0  0
 13 39  1  0  0  0  0
 13 40  1  0  0  0  0
 14 41  1  0  0  0  0
 14 42  1  0  0  0  0
 15 43  1  0  0  0  0
 15 44  1  0  0  0  0
 16 18  1  0  0  0  0
 17 19  1  0  0  0  0
 17 45  1  0  0  0  0
 17 46  1  0  0  0  0
 18 21  2  0  0  0  0
 18 49  1  0  0  0  0
 19 20  1  0  0  0  0
 19 47  1  0  0  0  0
 19 48  1  0  0  0  0
 20 22  1  0  0  0  0
 20 23  1  0  0  0  0
 21 27  1  0  0  0  0
 22 24  1  0  0  0  0
 22 50  1  0  0  0  0
 22 51  1  0  0  0  0
 23 25  1  0  0  0  0
 23 52  1  0  0  0  0
 23 53  1  0  0  0  0
 24 26  1  0  0  0  0
 24 54  1  0  0  0  0
 24 55  1  0  0  0  0
 25 26  1  0  0  0  0
 25 56  1  0  0  0  0
 25 57  1  0  0  0  0
 26 58  1  0  0  0  0
 27 28  1  0  0  0  0
 28 60  1  0  0  0  0
 28 61  1  0  0  0  0
 28 62  1  0  0  0  0
 29 30  1  0  0  0  0
 30 31  1  0  0  0  0
 30 32  2  0  0  0  0
 31 33  1  0  0  0  0
 31 34  2  0  0  0  0
 32 35  1  0  0  0  0
 32 63  1  0  0  0  0
 33 36  1  0  0  0  0
 34 64  1  0  0  0  0
 35 36  2  0  0  0  0
 35 65  1  0  0  0  0
 36 66  1  0  0  0  0
 37 67  1  0  0  0  0
 37 68  1  0  0  0  0
 37 69  1  0  0  0  0
M  END
> <PUBCHEM_COMPOUND_CID>
156077323

> <PUBCHEM_COMPOUND_CANONICALIZED>
1

> <PUBCHEM_CACTVS_COMPLEXITY>
871

> <PUBCHEM_CACTVS_HBOND_ACCEPTOR>
8

> <PUBCHEM_CACTVS_HBOND_DONOR>
1

> <PUBCHEM_CACTVS_ROTATABLE_BOND>
7

> <PUBCHEM_CACTVS_SUBSKEYS>
AAADcfB7sYAAAAAAAAAAAAAAGAAAAWLFgAA8YIAAAAAAAFgB/AAAHwAcAAAADyzBnhQ+xPPYAACrA7V3VgCSBAA1ogA42KE+bNoIJrrA1dOEtYhmnhjIycec2fKPgAAAQAASAAAQAACAACQAAAAAAAAAAA==

> <PUBCHEM_IUPAC_OPENEYE_NAME>
N-[4-[2-[(1R,5R)-1-[5-(1,1-difluoroethyl)isoxazol-3-yl]-3-azabicyclo[3.1.0]hexan-3-yl]ethyl]-4-fluoro-cyclohexyl]-2-methyl-indazole-4-carboxamide

> <PUBCHEM_IUPAC_CAS_NAME>
N-[4-[2-[(1R,5R)-1-[5-(1,1-difluoroethyl)-3-isoxazolyl]-3-azabicyclo[3.1.0]hexan-3-yl]ethyl]-4-fluorocyclohexyl]-2-methyl-4-indazolecarboxamide

> <PUBCHEM_IUPAC_NAME_MARKUP>
<I>N</I>-[4-[2-[(1<I>R</I>,5<I>R</I>)-1-[5-(1,1-difluoroethyl)-1,2-oxazol-3-yl]-3-azabicyclo[3.1.0]hexan-3-yl]ethyl]-4-fluorocyclohexyl]-2-methylindazole-4-carboxamide

> <PUBCHEM_IUPAC_NAME>
N-[4-[2-[(1R,5R)-1-[5-(1,1-difluoroethyl)-1,2-oxazol-3-yl]-3-azabicyclo[3.1.0]hexan-3-yl]ethyl]-4-fluorocyclohexyl]-2-methylindazole-4-carboxamide

> <PUBCHEM_IUPAC_SYSTEMATIC_NAME>
N-[4-[2-[(1R,5R)-1-[5-[1,1-bis(fluoranyl)ethyl]-1,2-oxazol-3-yl]-3-azabicyclo[3.1.0]hexan-3-yl]ethyl]-4-fluoranyl-cyclohexyl]-2-methyl-indazole-4-carboxamide

> <PUBCHEM_IUPAC_TRADITIONAL_NAME>
N-[4-[2-[(1R,5R)-1-[5-(1,1-difluoroethyl)isoxazol-3-yl]-3-azabicyclo[3.1.0]hexan-3-yl]ethyl]-4-fluoro-cyclohexyl]-2-methyl-indazole-4-carboxamide

> <PUBCHEM_IUPAC_INCHI>
InChI=1S/C27H32F3N5O2/c1-25(28,29)23-12-22(33-37-23)27-13-17(27)14-35(16-27)11-10-26(30)8-6-18(7-9-26)31-24(36)19-4-3-5-21-20(19)15-34(2)32-21/h3-5,12,15,17-18H,6-11,13-14,16H2,1-2H3,(H,31,36)/t17-,18?,26?,27-/m0/s1

> <PUBCHEM_IUPAC_INCHIKEY>
ORYJIZSSGIMQPM-GGDBPMCLSA-N

> <PUBCHEM_XLOGP3_AA>
4

> <PUBCHEM_EXACT_MASS>
515.25080977

> <PUBCHEM_MOLECULAR_FORMULA>
C27H32F3N5O2

> <PUBCHEM_MOLECULAR_WEIGHT>
515.6

> <PUBCHEM_OPENEYE_CAN_SMILES>
CC(C1=CC(=NO1)C23CC2CN(C3)CCC4(CCC(CC4)NC(=O)C5=CC=CC6=NN(C=C65)C)F)(F)F

> <PUBCHEM_OPENEYE_ISO_SMILES>
CC(C1=CC(=NO1)[C@]23C[C@H]2CN(C3)CCC4(CCC(CC4)NC(=O)C5=CC=CC6=NN(C=C65)C)F)(F)F

> <PUBCHEM_CACTVS_TPSA>
76.2

> <PUBCHEM_MONOISOTOPIC_WEIGHT>
515.25080977

> <PUBCHEM_TOTAL_CHARGE>
0

> <PUBCHEM_HEAVY_ATOM_COUNT>
37

> <PUBCHEM_ATOM_DEF_STEREO_COUNT>
2

> <PUBCHEM_ATOM_UDEF_STEREO_COUNT>
0

> <PUBCHEM_BOND_DEF_STEREO_COUNT>
0

> <PUBCHEM_BOND_UDEF_STEREO_COUNT>
0

> <PUBCHEM_ISOTOPIC_ATOM_COUNT>
0

> <PUBCHEM_COMPONENT_COUNT>
1

> <PUBCHEM_CACTVS_TAUTO_COUNT>
-1

> <PUBCHEM_COORDINATE_TYPE>
1
5
255

> <PUBCHEM_BONDANNOTATIONS>
10  33  8
11  16  6
12  38  6
16  18  8
18  21  8
30  31  8
30  32  8
31  33  8
31  34  8
32  35  8
33  36  8
35  36  8
4  21  8
4  7  8
7  16  8
9  10  8
9  34  8

$$$$
