31343434
  -OEChem-09292322022D

 54 56  0     0  0  0  0  0  0999 V2000
    3.0000   -2.0000    0.0000 S   0  0  0  0  0  0  0  0  0  0  0  0
    2.0000   -2.0000    0.0000 O   0  0  0  0  0  0  0  0  0  0  0  0
    4.0000   -2.0000    0.0000 O   0  0  0  0  0  0  0  0  0  0  0  0
    3.8660    3.5000    0.0000 O   0  0  0  0  0  0  0  0  0  0  0  0
    3.0000   -6.0000    0.0000 O   0  0  0  0  0  0  0  0  0  0  0  0
    7.3301    5.5000    0.0000 O   0  0  0  0  0  0  0  0  0  0  0  0
    3.0000    1.0000    0.0000 N   0  0  0  0  0  0  0  0  0  0  0  0
    3.0000   -1.0000    0.0000 N   0  0  0  0  0  0  0  0  0  0  0  0
    2.1340    0.5000    0.0000 C   0  0  0  0  0  0  0  0  0  0  0  0
    3.8660    0.5000    0.0000 C   0  0  0  0  0  0  0  0  0  0  0  0
    2.1340   -0.5000    0.0000 C   0  0  0  0  0  0  0  0  0  0  0  0
    3.8660   -0.5000    0.0000 C   0  0  0  0  0  0  0  0  0  0  0  0
    3.0000    2.0000    0.0000 C   0  0  0  0  0  0  0  0  0  0  0  0
    3.8660    2.5000    0.0000 C   0  0  0  0  0  0  0  0  0  0  0  0
    3.0000   -3.0000    0.0000 C   0  0  0  0  0  0  0  0  0  0  0  0
    2.1340   -3.5000    0.0000 C   0  0  0  0  0  0  0  0  0  0  0  0
    3.8660   -3.5000    0.0000 C   0  0  0  0  0  0  0  0  0  0  0  0
    2.1340   -4.5000    0.0000 C   0  0  0  0  0  0  0  0  0  0  0  0
    3.8660   -4.5000    0.0000 C   0  0  0  0  0  0  0  0  0  0  0  0
    3.0000   -5.0000    0.0000 C   0  0  0  0  0  0  0  0  0  0  0  0
    4.7320    4.0000    0.0000 C   0  0  0  0  0  0  0  0  0  0  0  0
    4.7320    5.0000    0.0000 C   0  0  0  0  0  0  0  0  0  0  0  0
    5.5981    3.5000    0.0000 C   0  0  0  0  0  0  0  0  0  0  0  0
    5.5981    5.5000    0.0000 C   0  0  0  0  0  0  0  0  0  0  0  0
    6.4641    4.0000    0.0000 C   0  0  0  0  0  0  0  0  0  0  0  0
    6.4641    5.0000    0.0000 C   0  0  0  0  0  0  0  0  0  0  0  0
    2.1340   -6.5000    0.0000 C   0  0  0  0  0  0  0  0  0  0  0  0
    7.3301    6.5000    0.0000 C   0  0  0  0  0  0  0  0  0  0  0  0
    1.9219    1.0826    0.0000 H   0  0  0  0  0  0  0  0  0  0  0  0
    1.5234    0.3923    0.0000 H   0  0  0  0  0  0  0  0  0  0  0  0
    4.4766    0.3923    0.0000 H   0  0  0  0  0  0  0  0  0  0  0  0
    4.0781    1.0826    0.0000 H   0  0  0  0  0  0  0  0  0  0  0  0
    1.5234   -0.3923    0.0000 H   0  0  0  0  0  0  0  0  0  0  0  0
    1.9219   -1.0826    0.0000 H   0  0  0  0  0  0  0  0  0  0  0  0
    4.0781   -1.0826    0.0000 H   0  0  0  0  0  0  0  0  0  0  0  0
    4.4766   -0.3923    0.0000 H   0  0  0  0  0  0  0  0  0  0  0  0
    2.7880    2.5826    0.0000 H   0  0  0  0  0  0  0  0  0  0  0  0
    2.3894    1.8923    0.0000 H   0  0  0  0  0  0  0  0  0  0  0  0
    4.0781    1.9174    0.0000 H   0  0  0  0  0  0  0  0  0  0  0  0
    4.4766    2.6077    0.0000 H   0  0  0  0  0  0  0  0  0  0  0  0
    1.5970   -3.1900    0.0000 H   0  0  0  0  0  0  0  0  0  0  0  0
    4.4030   -3.1900    0.0000 H   0  0  0  0  0  0  0  0  0  0  0  0
    1.5970   -4.8100    0.0000 H   0  0  0  0  0  0  0  0  0  0  0  0
    4.4030   -4.8100    0.0000 H   0  0  0  0  0  0  0  0  0  0  0  0
    4.1951    5.3100    0.0000 H   0  0  0  0  0  0  0  0  0  0  0  0
    5.5981    2.8800    0.0000 H   0  0  0  0  0  0  0  0  0  0  0  0
    5.5981    6.1200    0.0000 H   0  0  0  0  0  0  0  0  0  0  0  0
    7.0010    3.6900    0.0000 H   0  0  0  0  0  0  0  0  0  0  0  0
    1.8240   -5.9631    0.0000 H   0  0  0  0  0  0  0  0  0  0  0  0
    1.5970   -6.8100    0.0000 H   0  0  0  0  0  0  0  0  0  0  0  0
    2.4440   -7.0369    0.0000 H   0  0  0  0  0  0  0  0  0  0  0  0
    7.9501    6.5000    0.0000 H   0  0  0  0  0  0  0  0  0  0  0  0
    7.3301    7.1200    0.0000 H   0  0  0  0  0  0  0  0  0  0  0  0
    6.7101    6.5000    0.0000 H   0  0  0  0  0  0  0  0  0  0  0  0
  1  2  2  0  0  0  0
  1  3  2  0  0  0  0
  1  8  1  0  0  0  0
  1 15  1  0  0  0  0
  4 14  1  0  0  0  0
  4 21  1  0  0  0  0
  5 20  1  0  0  0  0
  5 27  1  0  0  0  0
  6 26  1  0  0  0  0
  6 28  1  0  0  0  0
  7  9  1  0  0  0  0
  7 10  1  0  0  0  0
  7 13  1  0  0  0  0
  8 11  1  0  0  0  0
  8 12  1  0  0  0  0
  9 11  1  0  0  0  0
  9 29  1  0  0  0  0
  9 30  1  0  0  0  0
 10 12  1  0  0  0  0
 10 31  1  0  0  0  0
 10 32  1  0  0  0  0
 11 33  1  0  0  0  0
 11 34  1  0  0  0  0
 12 35  1  0  0  0  0
 12 36  1  0  0  0  0
 13 14  1  0  0  0  0
 13 37  1  0  0  0  0
 13 38  1  0  0  0  0
 14 39  1  0  0  0  0
 14 40  1  0  0  0  0
 15 16  2  0  0  0  0
 15 17  1  0  0  0  0
 16 18  1  0  0  0  0
 16 41  1  0  0  0  0
 17 19  2  0  0  0  0
 17 42  1  0  0  0  0
 18 20  2  0  0  0  0
 18 43  1  0  0  0  0
 19 20  1  0  0  0  0
 19 44  1  0  0  0  0
 21 22  2  0  0  0  0
 21 23  1  0  0  0  0
 22 24  1  0  0  0  0
 22 45  1  0  0  0  0
 23 25  2  0  0  0  0
 23 46  1  0  0  0  0
 24 26  2  0  0  0  0
 24 47  1  0  0  0  0
 25 26  1  0  0  0  0
 25 48  1  0  0  0  0
 27 49  1  0  0  0  0
 27 50  1  0  0  0  0
 27 51  1  0  0  0  0
 28 52  1  0  0  0  0
 28 53  1  0  0  0  0
 28 54  1  0  0  0  0
M  END
> <PUBCHEM_COMPOUND_CID>
31343434

> <PUBCHEM_COMPOUND_CANONICALIZED>
1

> <PUBCHEM_CACTVS_COMPLEXITY>
543

> <PUBCHEM_CACTVS_HBOND_ACCEPTOR>
7

> <PUBCHEM_CACTVS_HBOND_DONOR>
0

> <PUBCHEM_CACTVS_ROTATABLE_BOND>
8

> <PUBCHEM_CACTVS_SUBSKEYS>
AAADceB7OABAAAAAAAAAAAAAAAAAAAAAAAA8YIAAAAAAAAABQAAAHgQAQAAACATh0AYyB4MABAKAACBCAHBCCBAgIAAIiBgOCIgOZiKEMRqTOCCkwBGYqAfAQAAAAYAAAAAAAAADAAAAAAAAAAAAAAAAAA==

> <PUBCHEM_IUPAC_OPENEYE_NAME>
1-[2-(4-methoxyphenoxy)ethyl]-4-(4-methoxyphenyl)sulfonyl-piperazine

> <PUBCHEM_IUPAC_CAS_NAME>
1-[2-(4-methoxyphenoxy)ethyl]-4-(4-methoxyphenyl)sulfonylpiperazine

> <PUBCHEM_IUPAC_NAME_MARKUP>
1-[2-(4-methoxyphenoxy)ethyl]-4-(4-methoxyphenyl)sulfonylpiperazine

> <PUBCHEM_IUPAC_NAME>
1-[2-(4-methoxyphenoxy)ethyl]-4-(4-methoxyphenyl)sulfonylpiperazine

> <PUBCHEM_IUPAC_SYSTEMATIC_NAME>
1-[2-(4-methoxyphenoxy)ethyl]-4-(4-methoxyphenyl)sulfonyl-piperazine

> <PUBCHEM_IUPAC_TRADITIONAL_NAME>
1-[2-(4-methoxyphenoxy)ethyl]-4-(4-methoxyphenyl)sulfonyl-piperazine

> <PUBCHEM_IUPAC_INCHI>
InChI=1S/C20H26N2O5S/c1-25-17-3-5-19(6-4-17)27-16-15-21-11-13-22(14-12-21)28(23,24)20-9-7-18(26-2)8-10-20/h3-10H,11-16H2,1-2H3

> <PUBCHEM_IUPAC_INCHIKEY>
MUOYNPQFYVYBNW-UHFFFAOYSA-N

> <PUBCHEM_XLOGP3_AA>
2.5

> <PUBCHEM_EXACT_MASS>
406.15624311

> <PUBCHEM_MOLECULAR_FORMULA>
C20H26N2O5S

> <PUBCHEM_MOLECULAR_WEIGHT>
406.5

> <PUBCHEM_OPENEYE_CAN_SMILES>
COC1=CC=C(C=C1)OCCN2CCN(CC2)S(=O)(=O)C3=CC=C(C=C3)OC

> <PUBCHEM_OPENEYE_ISO_SMILES>
COC1=CC=C(C=C1)OCCN2CCN(CC2)S(=O)(=O)C3=CC=C(C=C3)OC

> <PUBCHEM_CACTVS_TPSA>
76.7

> <PUBCHEM_MONOISOTOPIC_WEIGHT>
406.15624311

> <PUBCHEM_TOTAL_CHARGE>
0

> <PUBCHEM_HEAVY_ATOM_COUNT>
28

> <PUBCHEM_ATOM_DEF_STEREO_COUNT>
0

> <PUBCHEM_ATOM_UDEF_STEREO_COUNT>
0

> <PUBCHEM_BOND_DEF_STEREO_COUNT>
0

> <PUBCHEM_BOND_UDEF_STEREO_COUNT>
0

> <PUBCHEM_ISOTOPIC_ATOM_COUNT>
0

> <PUBCHEM_COMPONENT_COUNT>
1

> <PUBCHEM_CACTVS_TAUTO_COUNT>
-1

> <PUBCHEM_COORDINATE_TYPE>
1
5
255

> <PUBCHEM_BONDANNOTATIONS>
15  16  8
15  17  8
16  18  8
17  19  8
18  20  8
19  20  8
21  22  8
21  23  8
22  24  8
23  25  8
24  26  8
25  26  8

$$$$
