122065
  -OEChem-09292322142D

 52 55  0     0  0  0  0  0  0999 V2000
    9.8622   -2.3100    0.0000 O   0  0  0  0  0  0  0  0  0  0  0  0
    4.6660   -0.3100    0.0000 O   0  0  0  0  0  0  0  0  0  0  0  0
    6.3981    2.6900    0.0000 O   0  0  0  0  0  0  0  0  0  0  0  0
    8.1301    0.6900    0.0000 N   0  0  0  0  0  0  0  0  0  0  0  0
    9.8622   -0.3100    0.0000 N   0  0  0  0  0  0  0  0  0  0  0  0
    5.5321    1.1900    0.0000 N   0  0  0  0  0  0  0  0  0  0  0  0
    4.6660    2.6900    0.0000 N   0  0  0  0  0  0  0  0  0  0  0  0
    8.1301   -0.3100    0.0000 C   0  0  0  0  0  0  0  0  0  0  0  0
    8.9962    1.1900    0.0000 C   0  0  0  0  0  0  0  0  0  0  0  0
    8.9962   -0.8100    0.0000 C   0  0  0  0  0  0  0  0  0  0  0  0
    9.8622    0.6900    0.0000 C   0  0  0  0  0  0  0  0  0  0  0  0
    7.2641    1.1900    0.0000 C   0  0  0  0  0  0  0  0  0  0  0  0
    6.3981    0.6900    0.0000 C   0  0  0  0  0  0  0  0  0  0  0  0
   10.7282   -0.8100    0.0000 C   0  0  0  0  0  0  0  0  0  0  0  0
   10.7282   -1.8100    0.0000 C   0  0  0  0  0  0  0  0  0  0  0  0
   11.5942   -0.3100    0.0000 C   0  0  0  0  0  0  0  0  0  0  0  0
    4.6660    0.6900    0.0000 C   0  0  0  0  0  0  0  0  0  0  0  0
    5.5321    2.1900    0.0000 C   0  0  0  0  0  0  0  0  0  0  0  0
    3.8000    1.1900    0.0000 C   0  0  0  0  0  0  0  0  0  0  0  0
    3.8000    2.1900    0.0000 C   0  0  0  0  0  0  0  0  0  0  0  0
   11.5942   -2.3100    0.0000 C   0  0  0  0  0  0  0  0  0  0  0  0
   12.4603   -0.8100    0.0000 C   0  0  0  0  0  0  0  0  0  0  0  0
   12.4603   -1.8100    0.0000 C   0  0  0  0  0  0  0  0  0  0  0  0
    2.9061    0.6553    0.0000 C   0  0  0  0  0  0  0  0  0  0  0  0
    2.9061    2.7247    0.0000 C   0  0  0  0  0  0  0  0  0  0  0  0
    2.0000    1.1692    0.0000 C   0  0  0  0  0  0  0  0  0  0  0  0
    2.0000    2.2108    0.0000 C   0  0  0  0  0  0  0  0  0  0  0  0
    9.8622   -3.3100    0.0000 C   0  0  0  0  0  0  0  0  0  0  0  0
    7.5196   -0.2023    0.0000 H   0  0  0  0  0  0  0  0  0  0  0  0
    7.9181   -0.8926    0.0000 H   0  0  0  0  0  0  0  0  0  0  0  0
    9.3947    1.6650    0.0000 H   0  0  0  0  0  0  0  0  0  0  0  0
    8.5976    1.6650    0.0000 H   0  0  0  0  0  0  0  0  0  0  0  0
    8.5976   -1.2850    0.0000 H   0  0  0  0  0  0  0  0  0  0  0  0
    9.3947   -1.2850    0.0000 H   0  0  0  0  0  0  0  0  0  0  0  0
   10.4728    0.5823    0.0000 H   0  0  0  0  0  0  0  0  0  0  0  0
   10.0742    1.2726    0.0000 H   0  0  0  0  0  0  0  0  0  0  0  0
    7.6626    1.6650    0.0000 H   0  0  0  0  0  0  0  0  0  0  0  0
    6.8656    1.6650    0.0000 H   0  0  0  0  0  0  0  0  0  0  0  0
    5.9996    0.2151    0.0000 H   0  0  0  0  0  0  0  0  0  0  0  0
    6.7966    0.2151    0.0000 H   0  0  0  0  0  0  0  0  0  0  0  0
   11.5942    0.3100    0.0000 H   0  0  0  0  0  0  0  0  0  0  0  0
   11.5942   -2.9300    0.0000 H   0  0  0  0  0  0  0  0  0  0  0  0
    4.6660    3.3100    0.0000 H   0  0  0  0  0  0  0  0  0  0  0  0
   12.9972   -0.5000    0.0000 H   0  0  0  0  0  0  0  0  0  0  0  0
   12.9972   -2.1200    0.0000 H   0  0  0  0  0  0  0  0  0  0  0  0
    2.9132    0.0354    0.0000 H   0  0  0  0  0  0  0  0  0  0  0  0
    2.9132    3.3446    0.0000 H   0  0  0  0  0  0  0  0  0  0  0  0
    1.4643    0.8571    0.0000 H   0  0  0  0  0  0  0  0  0  0  0  0
    1.4643    2.5229    0.0000 H   0  0  0  0  0  0  0  0  0  0  0  0
    9.2422   -3.3100    0.0000 H   0  0  0  0  0  0  0  0  0  0  0  0
    9.8622   -3.9300    0.0000 H   0  0  0  0  0  0  0  0  0  0  0  0
   10.4822   -3.3100    0.0000 H   0  0  0  0  0  0  0  0  0  0  0  0
  1 15  1  0  0  0  0
  1 28  1  0  0  0  0
  2 17  2  0  0  0  0
  3 18  2  0  0  0  0
  4  8  1  0  0  0  0
  4  9  1  0  0  0  0
  4 12  1  0  0  0  0
  5 10  1  0  0  0  0
  5 11  1  0  0  0  0
  5 14  1  0  0  0  0
  6 13  1  0  0  0  0
  6 17  1  0  0  0  0
  6 18  1  0  0  0  0
  7 18  1  0  0  0  0
  7 20  1  0  0  0  0
  7 43  1  0  0  0  0
  8 10  1  0  0  0  0
  8 29  1  0  0  0  0
  8 30  1  0  0  0  0
  9 11  1  0  0  0  0
  9 31  1  0  0  0  0
  9 32  1  0  0  0  0
 10 33  1  0  0  0  0
 10 34  1  0  0  0  0
 11 35  1  0  0  0  0
 11 36  1  0  0  0  0
 12 13  1  0  0  0  0
 12 37  1  0  0  0  0
 12 38  1  0  0  0  0
 13 39  1  0  0  0  0
 13 40  1  0  0  0  0
 14 15  1  0  0  0  0
 14 16  2  0  0  0  0
 15 21  2  0  0  0  0
 16 22  1  0  0  0  0
 16 41  1  0  0  0  0
 17 19  1  0  0  0  0
 19 20  1  0  0  0  0
 19 24  2  0  0  0  0
 20 25  2  0  0  0  0
 21 23  1  0  0  0  0
 21 42  1  0  0  0  0
 22 23  2  0  0  0  0
 22 44  1  0  0  0  0
 23 45  1  0  0  0  0
 24 26  1  0  0  0  0
 24 46  1  0  0  0  0
 25 27  1  0  0  0  0
 25 47  1  0  0  0  0
 26 27  2  0  0  0  0
 26 48  1  0  0  0  0
 27 49  1  0  0  0  0
 28 50  1  0  0  0  0
 28 51  1  0  0  0  0
 28 52  1  0  0  0  0
M  END
> <PUBCHEM_COMPOUND_CID>
122065

> <PUBCHEM_COMPOUND_CANONICALIZED>
1

> <PUBCHEM_CACTVS_COMPLEXITY>
564

> <PUBCHEM_CACTVS_HBOND_ACCEPTOR>
5

> <PUBCHEM_CACTVS_HBOND_DONOR>
1

> <PUBCHEM_CACTVS_ROTATABLE_BOND>
5

> <PUBCHEM_CACTVS_SUBSKEYS>
AAADceB7sAAAAAAAAAAAAAAAAAAAAAAAAAA8eIEAAAAAAACxQAAAHgAQAAAADAzBmAYzxoPABACIAiVSUACCCAAlIgAIiAEPbMiOZjrE9ZuVMahs1zPY6eeYyACOAAAAAAACEAAAAAAAAAQgAAAAAAAAAA==

> <PUBCHEM_IUPAC_OPENEYE_NAME>
3-[2-[4-(2-methoxyphenyl)piperazin-1-yl]ethyl]-1H-quinazoline-2,4-dione

> <PUBCHEM_IUPAC_CAS_NAME>
3-[2-[4-(2-methoxyphenyl)-1-piperazinyl]ethyl]-1H-quinazoline-2,4-dione

> <PUBCHEM_IUPAC_NAME_MARKUP>
3-[2-[4-(2-methoxyphenyl)piperazin-1-yl]ethyl]-1<I>H</I>-quinazoline-2,4-dione

> <PUBCHEM_IUPAC_NAME>
3-[2-[4-(2-methoxyphenyl)piperazin-1-yl]ethyl]-1H-quinazoline-2,4-dione

> <PUBCHEM_IUPAC_SYSTEMATIC_NAME>
3-[2-[4-(2-methoxyphenyl)piperazin-1-yl]ethyl]-1H-quinazoline-2,4-dione

> <PUBCHEM_IUPAC_TRADITIONAL_NAME>
3-[2-[4-(2-methoxyphenyl)piperazino]ethyl]-1H-quinazoline-2,4-quinone

> <PUBCHEM_IUPAC_INCHI>
InChI=1S/C21H24N4O3/c1-28-19-9-5-4-8-18(19)24-13-10-23(11-14-24)12-15-25-20(26)16-6-2-3-7-17(16)22-21(25)27/h2-9H,10-15H2,1H3,(H,22,27)

> <PUBCHEM_IUPAC_INCHIKEY>
ZFDWAPWETDMDSZ-UHFFFAOYSA-N

> <PUBCHEM_XLOGP3_AA>
2.2

> <PUBCHEM_EXACT_MASS>
380.18484064

> <PUBCHEM_MOLECULAR_FORMULA>
C21H24N4O3

> <PUBCHEM_MOLECULAR_WEIGHT>
380.4

> <PUBCHEM_OPENEYE_CAN_SMILES>
COC1=CC=CC=C1N2CCN(CC2)CCN3C(=O)C4=CC=CC=C4NC3=O

> <PUBCHEM_OPENEYE_ISO_SMILES>
COC1=CC=CC=C1N2CCN(CC2)CCN3C(=O)C4=CC=CC=C4NC3=O

> <PUBCHEM_CACTVS_TPSA>
65.1

> <PUBCHEM_MONOISOTOPIC_WEIGHT>
380.18484064

> <PUBCHEM_TOTAL_CHARGE>
0

> <PUBCHEM_HEAVY_ATOM_COUNT>
28

> <PUBCHEM_ATOM_DEF_STEREO_COUNT>
0

> <PUBCHEM_ATOM_UDEF_STEREO_COUNT>
0

> <PUBCHEM_BOND_DEF_STEREO_COUNT>
0

> <PUBCHEM_BOND_UDEF_STEREO_COUNT>
0

> <PUBCHEM_ISOTOPIC_ATOM_COUNT>
0

> <PUBCHEM_COMPONENT_COUNT>
1

> <PUBCHEM_CACTVS_TAUTO_COUNT>
-1

> <PUBCHEM_COORDINATE_TYPE>
1
5
255

> <PUBCHEM_BONDANNOTATIONS>
14  15  8
14  16  8
15  21  8
16  22  8
17  19  8
19  20  8
19  24  8
20  25  8
21  23  8
22  23  8
24  26  8
25  27  8
26  27  8
6  17  8
6  18  8
7  18  8
7  20  8

$$$$
