45261787
  -OEChem-09292322132D

 54 56  0     1  0  0  0  0  0999 V2000
   11.8613    5.6442    0.0000 Cl  0  0  0  0  0  0  0  0  0  0  0  0
    5.4306    8.2890    0.0000 Cl  0  0  0  0  0  0  0  0  0  0  0  0
    8.3312    2.6200    0.0000 O   0  0  0  0  0  0  0  0  0  0  0  0
    4.8671    2.6200    0.0000 N   0  0  0  0  0  0  0  0  0  0  0  0
    6.5991    3.6200    0.0000 C   0  0  0  0  0  0  0  0  0  0  0  0
    7.4651    4.1200    0.0000 C   0  0  3  0  0  0  0  0  0  0  0  0
    6.5991    2.6200    0.0000 C   0  0  0  0  0  0  0  0  0  0  0  0
    5.7331    4.1200    0.0000 C   0  0  0  0  0  0  0  0  0  0  0  0
    5.7331    2.1200    0.0000 C   0  0  0  0  0  0  0  0  0  0  0  0
    4.8671    3.6200    0.0000 C   0  0  0  0  0  0  0  0  0  0  0  0
    7.4651    5.1200    0.0000 C   0  0  0  0  0  0  0  0  0  0  0  0
    8.3312    3.6200    0.0000 C   0  0  0  0  0  0  0  0  0  0  0  0
    8.3312    5.6200    0.0000 C   0  0  0  0  0  0  0  0  0  0  0  0
    4.0010    2.1200    0.0000 C   0  0  0  0  0  0  0  0  0  0  0  0
    9.1972    4.1200    0.0000 C   0  0  0  0  0  0  0  0  0  0  0  0
    9.1972    5.1200    0.0000 C   0  0  0  0  0  0  0  0  0  0  0  0
    3.1350    2.6200    0.0000 C   0  0  0  0  0  0  0  0  0  0  0  0
   10.0911    3.5853    0.0000 C   0  0  0  0  0  0  0  0  0  0  0  0
   10.0911    5.6547    0.0000 C   0  0  0  0  0  0  0  0  0  0  0  0
    2.2690    2.1200    0.0000 C   0  0  0  0  0  0  0  0  0  0  0  0
   10.9972    4.0992    0.0000 C   0  0  0  0  0  0  0  0  0  0  0  0
   10.9972    5.1408    0.0000 C   0  0  0  0  0  0  0  0  0  0  0  0
    2.2690    1.1200    0.0000 C   0  0  0  0  0  0  0  0  0  0  0  0
    1.4030    2.6200    0.0000 C   0  0  0  0  0  0  0  0  0  0  0  0
    1.4030    0.6200    0.0000 C   0  0  0  0  0  0  0  0  0  0  0  0
    0.5369    2.1200    0.0000 C   0  0  0  0  0  0  0  0  0  0  0  0
    0.5369    1.1200    0.0000 C   0  0  0  0  0  0  0  0  0  0  0  0
    6.5991    4.2400    0.0000 H   0  0  0  0  0  0  0  0  0  0  0  0
    7.4651    3.5000    0.0000 H   0  0  0  0  0  0  0  0  0  0  0  0
    6.8112    2.0374    0.0000 H   0  0  0  0  0  0  0  0  0  0  0  0
    7.2097    2.7277    0.0000 H   0  0  0  0  0  0  0  0  0  0  0  0
    6.1316    4.5950    0.0000 H   0  0  0  0  0  0  0  0  0  0  0  0
    5.3346    4.5950    0.0000 H   0  0  0  0  0  0  0  0  0  0  0  0
    5.3346    1.6450    0.0000 H   0  0  0  0  0  0  0  0  0  0  0  0
    6.1316    1.6450    0.0000 H   0  0  0  0  0  0  0  0  0  0  0  0
    4.6550    4.2026    0.0000 H   0  0  0  0  0  0  0  0  0  0  0  0
    4.2565    3.5123    0.0000 H   0  0  0  0  0  0  0  0  0  0  0  0
    7.2531    5.7026    0.0000 H   0  0  0  0  0  0  0  0  0  0  0  0
    6.8546    5.0123    0.0000 H   0  0  0  0  0  0  0  0  0  0  0  0
    8.7297    6.0950    0.0000 H   0  0  0  0  0  0  0  0  0  0  0  0
    7.9326    6.0950    0.0000 H   0  0  0  0  0  0  0  0  0  0  0  0
    3.6025    1.6450    0.0000 H   0  0  0  0  0  0  0  0  0  0  0  0
    4.3996    1.6450    0.0000 H   0  0  0  0  0  0  0  0  0  0  0  0
    3.5335    3.0950    0.0000 H   0  0  0  0  0  0  0  0  0  0  0  0
    2.7365    3.0950    0.0000 H   0  0  0  0  0  0  0  0  0  0  0  0
   10.0840    2.9654    0.0000 H   0  0  0  0  0  0  0  0  0  0  0  0
   10.0840    6.2746    0.0000 H   0  0  0  0  0  0  0  0  0  0  0  0
   11.5329    3.7871    0.0000 H   0  0  0  0  0  0  0  0  0  0  0  0
    2.8059    0.8100    0.0000 H   0  0  0  0  0  0  0  0  0  0  0  0
    1.4030    3.2400    0.0000 H   0  0  0  0  0  0  0  0  0  0  0  0
    1.4030    0.0000    0.0000 H   0  0  0  0  0  0  0  0  0  0  0  0
    0.0000    2.4300    0.0000 H   0  0  0  0  0  0  0  0  0  0  0  0
    0.0000    0.8100    0.0000 H   0  0  0  0  0  0  0  0  0  0  0  0
    6.4306    8.2890    0.0000 H   0  0  0  0  0  0  0  0  0  0  0  0
  1 22  1  0  0  0  0
  2 54  1  0  0  0  0
  3 12  2  0  0  0  0
  4  9  1  0  0  0  0
  4 10  1  0  0  0  0
  4 14  1  0  0  0  0
  5  6  1  0  0  0  0
  5  7  1  0  0  0  0
  5  8  1  0  0  0  0
  5 28  1  0  0  0  0
  6 11  1  0  0  0  0
  6 12  1  0  0  0  0
  6 29  1  0  0  0  0
  7  9  1  0  0  0  0
  7 30  1  0  0  0  0
  7 31  1  0  0  0  0
  8 10  1  0  0  0  0
  8 32  1  0  0  0  0
  8 33  1  0  0  0  0
  9 34  1  0  0  0  0
  9 35  1  0  0  0  0
 10 36  1  0  0  0  0
 10 37  1  0  0  0  0
 11 13  1  0  0  0  0
 11 38  1  0  0  0  0
 11 39  1  0  0  0  0
 12 15  1  0  0  0  0
 13 16  1  0  0  0  0
 13 40  1  0  0  0  0
 13 41  1  0  0  0  0
 14 17  1  0  0  0  0
 14 42  1  0  0  0  0
 14 43  1  0  0  0  0
 15 16  2  0  0  0  0
 15 18  1  0  0  0  0
 16 19  1  0  0  0  0
 17 20  1  0  0  0  0
 17 44  1  0  0  0  0
 17 45  1  0  0  0  0
 18 21  2  0  0  0  0
 18 46  1  0  0  0  0
 19 22  2  0  0  0  0
 19 47  1  0  0  0  0
 20 23  2  0  0  0  0
 20 24  1  0  0  0  0
 21 22  1  0  0  0  0
 21 48  1  0  0  0  0
 23 25  1  0  0  0  0
 23 49  1  0  0  0  0
 24 26  2  0  0  0  0
 24 50  1  0  0  0  0
 25 27  2  0  0  0  0
 25 51  1  0  0  0  0
 26 27  1  0  0  0  0
 26 52  1  0  0  0  0
 27 53  1  0  0  0  0
M  END
> <PUBCHEM_COMPOUND_CID>
45261787

> <PUBCHEM_COMPOUND_CANONICALIZED>
1

> <PUBCHEM_CACTVS_COMPLEXITY>
467

> <PUBCHEM_CACTVS_HBOND_ACCEPTOR>
2

> <PUBCHEM_CACTVS_HBOND_DONOR>
1

> <PUBCHEM_CACTVS_ROTATABLE_BOND>
4

> <PUBCHEM_CACTVS_SUBSKEYS>
AAADceB6IAAGAAAAAAAAAAAAAAAAAAAAAAA8YMEAAAAAAADBQAAAHgIAAAAADQbBmCQwAIMAAACIAqBSAAACAAAkBQAIiAEIAsgIIDKBlxGEIQAggACIiYcYicCOhAAAIAAQAACIAARAACAAAAAAAAAAAA==

> <PUBCHEM_IUPAC_OPENEYE_NAME>
6-chloro-2-[1-(2-phenylethyl)-4-piperidyl]tetralin-1-one;hydrochloride

> <PUBCHEM_IUPAC_CAS_NAME>
6-chloro-2-[1-(2-phenylethyl)-4-piperidinyl]-3,4-dihydro-2H-naphthalen-1-one;hydrochloride

> <PUBCHEM_IUPAC_NAME_MARKUP>
6-chloro-2-[1-(2-phenylethyl)piperidin-4-yl]-3,4-dihydro-2<I>H</I>-naphthalen-1-one;hydrochloride

> <PUBCHEM_IUPAC_NAME>
6-chloro-2-[1-(2-phenylethyl)piperidin-4-yl]-3,4-dihydro-2H-naphthalen-1-one;hydrochloride

> <PUBCHEM_IUPAC_SYSTEMATIC_NAME>
6-chloranyl-2-[1-(2-phenylethyl)piperidin-4-yl]-3,4-dihydro-2H-naphthalen-1-one;hydrochloride

> <PUBCHEM_IUPAC_TRADITIONAL_NAME>
6-chloro-2-(1-phenethyl-4-piperidyl)tetralin-1-one;hydrochloride

> <PUBCHEM_IUPAC_INCHI>
InChI=1S/C23H26ClNO.ClH/c24-20-7-9-22-19(16-20)6-8-21(23(22)26)18-11-14-25(15-12-18)13-10-17-4-2-1-3-5-17;/h1-5,7,9,16,18,21H,6,8,10-15H2;1H

> <PUBCHEM_IUPAC_INCHIKEY>
CWHRJHRFGKBIQM-UHFFFAOYSA-N

> <PUBCHEM_EXACT_MASS>
403.1469699

> <PUBCHEM_MOLECULAR_FORMULA>
C23H27Cl2NO

> <PUBCHEM_MOLECULAR_WEIGHT>
404.4

> <PUBCHEM_OPENEYE_CAN_SMILES>
C1CC2=C(C=CC(=C2)Cl)C(=O)C1C3CCN(CC3)CCC4=CC=CC=C4.Cl

> <PUBCHEM_OPENEYE_ISO_SMILES>
C1CC2=C(C=CC(=C2)Cl)C(=O)C1C3CCN(CC3)CCC4=CC=CC=C4.Cl

> <PUBCHEM_CACTVS_TPSA>
20.3

> <PUBCHEM_MONOISOTOPIC_WEIGHT>
403.1469699

> <PUBCHEM_TOTAL_CHARGE>
0

> <PUBCHEM_HEAVY_ATOM_COUNT>
27

> <PUBCHEM_ATOM_DEF_STEREO_COUNT>
0

> <PUBCHEM_ATOM_UDEF_STEREO_COUNT>
1

> <PUBCHEM_BOND_DEF_STEREO_COUNT>
0

> <PUBCHEM_BOND_UDEF_STEREO_COUNT>
0

> <PUBCHEM_ISOTOPIC_ATOM_COUNT>
0

> <PUBCHEM_COMPONENT_COUNT>
2

> <PUBCHEM_CACTVS_TAUTO_COUNT>
-1

> <PUBCHEM_COORDINATE_TYPE>
1
5
255

> <PUBCHEM_BONDANNOTATIONS>
15  16  8
15  18  8
16  19  8
18  21  8
19  22  8
20  23  8
20  24  8
21  22  8
23  25  8
24  26  8
25  27  8
26  27  8
6  5  3

$$$$
