10385897
  -OEChem-09292322132D

 52 53  0     1  0  0  0  0  0999 V2000
    8.9387   -1.1045    0.0000 S   0  0  0  0  0  0  0  0  0  0  0  0
   10.6591   -2.1245    0.0000 F   0  0  0  0  0  0  0  0  0  0  0  0
    9.2889   -2.4747    0.0000 F   0  0  0  0  0  0  0  0  0  0  0  0
   10.3089   -0.7543    0.0000 F   0  0  0  0  0  0  0  0  0  0  0  0
    8.0785   -0.5946    0.0000 O   0  0  0  0  0  0  0  0  0  0  0  0
    8.4287   -1.9647    0.0000 O   0  0  0  0  0  0  0  0  0  0  0  0
    9.4487   -0.2443    0.0000 O   0  0  0  0  0  0  0  0  0  0  0  0
    4.5981    0.4400    0.0000 N   0  0  0  0  0  0  0  0  0  0  0  0
    5.4641    0.9400    0.0000 C   0  0  1  0  0  0  0  0  0  0  0  0
    6.3301    0.4400    0.0000 C   0  0  2  0  0  0  0  0  0  0  0  0
    5.4641    1.9400    0.0000 C   0  0  0  0  0  0  0  0  0  0  0  0
    7.1962    0.9400    0.0000 C   0  0  0  0  0  0  0  0  0  0  0  0
    6.3301    2.4400    0.0000 C   0  0  0  0  0  0  0  0  0  0  0  0
    7.1962    1.9400    0.0000 C   0  0  0  0  0  0  0  0  0  0  0  0
    6.3301   -0.5600    0.0000 C   0  0  0  0  0  0  0  0  0  0  0  0
    3.7320    0.9400    0.0000 C   0  0  0  0  0  0  0  0  0  0  0  0
    4.5981   -0.5600    0.0000 C   0  0  0  0  0  0  0  0  0  0  0  0
    8.0901    0.4054    0.0000 C   0  0  0  0  0  0  0  0  0  0  0  0
    8.0901    2.4747    0.0000 C   0  0  0  0  0  0  0  0  0  0  0  0
    2.8660    0.4400    0.0000 C   0  0  0  0  0  0  0  0  0  0  0  0
    3.7320   -1.0600    0.0000 C   0  0  0  0  0  0  0  0  0  0  0  0
    8.9962    0.9192    0.0000 C   0  0  0  0  0  0  0  0  0  0  0  0
    8.9962    1.9609    0.0000 C   0  0  0  0  0  0  0  0  0  0  0  0
    2.0000    0.9400    0.0000 C   0  0  0  0  0  0  0  0  0  0  0  0
    3.7320   -2.0600    0.0000 C   0  0  0  0  0  0  0  0  0  0  0  0
    9.7989   -1.6145    0.0000 C   0  0  0  0  0  0  0  0  0  0  0  0
    5.4641    0.3200    0.0000 H   0  0  0  0  0  0  0  0  0  0  0  0
    6.8671    0.1300    0.0000 H   0  0  0  0  0  0  0  0  0  0  0  0
    5.2520    2.5226    0.0000 H   0  0  0  0  0  0  0  0  0  0  0  0
    4.8535    1.8324    0.0000 H   0  0  0  0  0  0  0  0  0  0  0  0
    6.7287    2.9150    0.0000 H   0  0  0  0  0  0  0  0  0  0  0  0
    5.9316    2.9150    0.0000 H   0  0  0  0  0  0  0  0  0  0  0  0
    5.7101   -0.5600    0.0000 H   0  0  0  0  0  0  0  0  0  0  0  0
    6.3301   -1.1800    0.0000 H   0  0  0  0  0  0  0  0  0  0  0  0
    6.9501   -0.5600    0.0000 H   0  0  0  0  0  0  0  0  0  0  0  0
    4.1306    1.4150    0.0000 H   0  0  0  0  0  0  0  0  0  0  0  0
    3.3335    1.4150    0.0000 H   0  0  0  0  0  0  0  0  0  0  0  0
    4.8101   -1.1426    0.0000 H   0  0  0  0  0  0  0  0  0  0  0  0
    5.2087   -0.4523    0.0000 H   0  0  0  0  0  0  0  0  0  0  0  0
    8.0829    3.0947    0.0000 H   0  0  0  0  0  0  0  0  0  0  0  0
    2.4675   -0.0349    0.0000 H   0  0  0  0  0  0  0  0  0  0  0  0
    3.2646   -0.0349    0.0000 H   0  0  0  0  0  0  0  0  0  0  0  0
    3.5200   -0.4774    0.0000 H   0  0  0  0  0  0  0  0  0  0  0  0
    3.1215   -1.1676    0.0000 H   0  0  0  0  0  0  0  0  0  0  0  0
    9.5319    0.6072    0.0000 H   0  0  0  0  0  0  0  0  0  0  0  0
    9.5319    2.2729    0.0000 H   0  0  0  0  0  0  0  0  0  0  0  0
    2.3100    1.4770    0.0000 H   0  0  0  0  0  0  0  0  0  0  0  0
    1.4631    1.2500    0.0000 H   0  0  0  0  0  0  0  0  0  0  0  0
    1.6900    0.4031    0.0000 H   0  0  0  0  0  0  0  0  0  0  0  0
    3.1120   -2.0600    0.0000 H   0  0  0  0  0  0  0  0  0  0  0  0
    3.7320   -2.6800    0.0000 H   0  0  0  0  0  0  0  0  0  0  0  0
    4.3520   -2.0600    0.0000 H   0  0  0  0  0  0  0  0  0  0  0  0
  1  5  1  0  0  0  0
  1  6  2  0  0  0  0
  1  7  2  0  0  0  0
  1 26  1  0  0  0  0
  2 26  1  0  0  0  0
  3 26  1  0  0  0  0
  4 26  1  0  0  0  0
  5 18  1  0  0  0  0
  9  8  1  6  0  0  0
  8 16  1  0  0  0  0
  8 17  1  0  0  0  0
  9 10  1  0  0  0  0
  9 11  1  0  0  0  0
  9 27  1  0  0  0  0
 10 12  1  0  0  0  0
 10 15  1  6  0  0  0
 10 28  1  0  0  0  0
 11 13  1  0  0  0  0
 11 29  1  0  0  0  0
 11 30  1  0  0  0  0
 12 14  2  0  0  0  0
 12 18  1  0  0  0  0
 13 14  1  0  0  0  0
 13 31  1  0  0  0  0
 13 32  1  0  0  0  0
 14 19  1  0  0  0  0
 15 33  1  0  0  0  0
 15 34  1  0  0  0  0
 15 35  1  0  0  0  0
 16 20  1  0  0  0  0
 16 36  1  0  0  0  0
 16 37  1  0  0  0  0
 17 21  1  0  0  0  0
 17 38  1  0  0  0  0
 17 39  1  0  0  0  0
 18 22  2  0  0  0  0
 19 23  2  0  0  0  0
 19 40  1  0  0  0  0
 20 24  1  0  0  0  0
 20 41  1  0  0  0  0
 20 42  1  0  0  0  0
 21 25  1  0  0  0  0
 21 43  1  0  0  0  0
 21 44  1  0  0  0  0
 22 23  1  0  0  0  0
 22 45  1  0  0  0  0
 23 46  1  0  0  0  0
 24 47  1  0  0  0  0
 24 48  1  0  0  0  0
 24 49  1  0  0  0  0
 25 50  1  0  0  0  0
 25 51  1  0  0  0  0
 25 52  1  0  0  0  0
M  END
> <PUBCHEM_COMPOUND_CID>
10385897

> <PUBCHEM_COMPOUND_CANONICALIZED>
1

> <PUBCHEM_CACTVS_COMPLEXITY>
541

> <PUBCHEM_CACTVS_HBOND_ACCEPTOR>
7

> <PUBCHEM_CACTVS_HBOND_DONOR>
0

> <PUBCHEM_CACTVS_ROTATABLE_BOND>
7

> <PUBCHEM_CACTVS_SUBSKEYS>
AAADceB6MYBAAAAAAAAAAAAAAAAAAAAAAAAwYAAAAAAAAADBAAAAHwQAAAAADSzBmBQyBoMAAAKAAiBCAHACAAAgIAAIiAAOCIgIJiKAkROEMAAkwBGIiAewwPAOgAABAAAYAAAQAAaAADQAAAAAAAAAAA==

> <PUBCHEM_IUPAC_OPENEYE_NAME>
[(3R,4S)-3-(dipropylamino)-4-methyl-tetralin-5-yl] trifluoromethanesulfonate

> <PUBCHEM_IUPAC_CAS_NAME>
trifluoromethanesulfonic acid [(7R,8S)-7-(dipropylamino)-8-methyl-5,6,7,8-tetrahydronaphthalen-1-yl] ester

> <PUBCHEM_IUPAC_NAME_MARKUP>
[(7<I>R</I>,8<I>S</I>)-7-(dipropylamino)-8-methyl-5,6,7,8-tetrahydronaphthalen-1-yl] trifluoromethanesulfonate

> <PUBCHEM_IUPAC_NAME>
[(7R,8S)-7-(dipropylamino)-8-methyl-5,6,7,8-tetrahydronaphthalen-1-yl] trifluoromethanesulfonate

> <PUBCHEM_IUPAC_SYSTEMATIC_NAME>
[(7R,8S)-7-(dipropylamino)-8-methyl-5,6,7,8-tetrahydronaphthalen-1-yl] tris(fluoranyl)methanesulfonate

> <PUBCHEM_IUPAC_TRADITIONAL_NAME>
trifluoromethanesulfonic acid [(3R,4S)-3-(dipropylamino)-4-methyl-tetralin-5-yl] ester

> <PUBCHEM_IUPAC_INCHI>
InChI=1S/C18H26F3NO3S/c1-4-11-22(12-5-2)15-10-9-14-7-6-8-16(17(14)13(15)3)25-26(23,24)18(19,20)21/h6-8,13,15H,4-5,9-12H2,1-3H3/t13-,15-/m1/s1

> <PUBCHEM_IUPAC_INCHIKEY>
KCQJHHZOOWJYBY-UKRRQHHQSA-N

> <PUBCHEM_XLOGP3_AA>
5.5

> <PUBCHEM_EXACT_MASS>
393.15854935

> <PUBCHEM_MOLECULAR_FORMULA>
C18H26F3NO3S

> <PUBCHEM_MOLECULAR_WEIGHT>
393.5

> <PUBCHEM_OPENEYE_CAN_SMILES>
CCCN(CCC)C1CCC2=C(C1C)C(=CC=C2)OS(=O)(=O)C(F)(F)F

> <PUBCHEM_OPENEYE_ISO_SMILES>
CCCN(CCC)[C@@H]1CCC2=C([C@@H]1C)C(=CC=C2)OS(=O)(=O)C(F)(F)F

> <PUBCHEM_CACTVS_TPSA>
55

> <PUBCHEM_MONOISOTOPIC_WEIGHT>
393.15854935

> <PUBCHEM_TOTAL_CHARGE>
0

> <PUBCHEM_HEAVY_ATOM_COUNT>
26

> <PUBCHEM_ATOM_DEF_STEREO_COUNT>
2

> <PUBCHEM_ATOM_UDEF_STEREO_COUNT>
0

> <PUBCHEM_BOND_DEF_STEREO_COUNT>
0

> <PUBCHEM_BOND_UDEF_STEREO_COUNT>
0

> <PUBCHEM_ISOTOPIC_ATOM_COUNT>
0

> <PUBCHEM_COMPONENT_COUNT>
1

> <PUBCHEM_CACTVS_TAUTO_COUNT>
-1

> <PUBCHEM_COORDINATE_TYPE>
1
5
255

> <PUBCHEM_BONDANNOTATIONS>
10  15  6
12  14  8
12  18  8
14  19  8
18  22  8
19  23  8
22  23  8
9  8  6

$$$$
