10689266
  -OEChem-09292322512D

 47 50  0     1  0  0  0  0  0999 V2000
   10.7320   -1.2726    0.0000 O   0  0  0  0  0  0  0  0  0  0  0  0
    9.8660   -2.7726    0.0000 O   0  0  0  0  0  0  0  0  0  0  0  0
   12.5180    1.7726    0.0000 O   0  0  0  0  0  0  0  0  0  0  0  0
    2.8641    0.1899    0.0000 O   0  0  0  0  0  0  0  0  0  0  0  0
    7.2000   -1.2934    0.0000 N   0  0  3  0  0  0  0  0  0  0  0  0
    7.2000   -0.2517    0.0000 C   0  0  0  0  0  0  0  0  0  0  0  0
    8.1060    0.2621    0.0000 C   0  0  0  0  0  0  0  0  0  0  0  0
    8.1060   -1.8072    0.0000 C   0  0  0  0  0  0  0  0  0  0  0  0
    9.0000   -0.2725    0.0000 C   0  0  0  0  0  0  0  0  0  0  0  0
    9.0000   -1.2726    0.0000 C   0  0  0  0  0  0  0  0  0  0  0  0
    6.3359   -1.7967    0.0000 C   0  0  0  0  0  0  0  0  0  0  0  0
    9.8660    0.2275    0.0000 C   0  0  0  0  0  0  0  0  0  0  0  0
    9.8660   -1.7726    0.0000 C   0  0  0  0  0  0  0  0  0  0  0  0
   10.7320   -0.2725    0.0000 C   0  0  0  0  0  0  0  0  0  0  0  0
    5.4679   -1.3000    0.0000 C   0  0  0  0  0  0  0  0  0  0  0  0
    9.8499    1.2690    0.0000 C   0  0  0  0  0  0  0  0  0  0  0  0
   11.6420    0.2343    0.0000 C   0  0  0  0  0  0  0  0  0  0  0  0
   10.7480    1.7967    0.0000 C   0  0  0  0  0  0  0  0  0  0  0  0
    4.6038   -1.8034    0.0000 C   0  0  0  0  0  0  0  0  0  0  0  0
    5.4641   -0.3000    0.0000 C   0  0  0  0  0  0  0  0  0  0  0  0
   11.6501    1.2759    0.0000 C   0  0  0  0  0  0  0  0  0  0  0  0
    3.7359   -1.3067    0.0000 C   0  0  0  0  0  0  0  0  0  0  0  0
    4.5961    0.1966    0.0000 C   0  0  0  0  0  0  0  0  0  0  0  0
    3.7320   -0.3067    0.0000 C   0  0  0  0  0  0  0  0  0  0  0  0
   12.5219    2.7726    0.0000 C   0  0  0  0  0  0  0  0  0  0  0  0
    2.0000   -0.3134    0.0000 C   0  0  0  0  0  0  0  0  0  0  0  0
    6.9909    0.3320    0.0000 H   0  0  0  0  0  0  0  0  0  0  0  0
    6.5891   -0.3578    0.0000 H   0  0  0  0  0  0  0  0  0  0  0  0
    8.5106    0.7319    0.0000 H   0  0  0  0  0  0  0  0  0  0  0  0
    7.7124    0.7411    0.0000 H   0  0  0  0  0  0  0  0  0  0  0  0
    7.7124   -2.2862    0.0000 H   0  0  0  0  0  0  0  0  0  0  0  0
    8.5106   -2.2770    0.0000 H   0  0  0  0  0  0  0  0  0  0  0  0
    5.9392   -2.2732    0.0000 H   0  0  0  0  0  0  0  0  0  0  0  0
    6.7362   -2.2701    0.0000 H   0  0  0  0  0  0  0  0  0  0  0  0
    9.3095    1.5727    0.0000 H   0  0  0  0  0  0  0  0  0  0  0  0
   12.1753   -0.0819    0.0000 H   0  0  0  0  0  0  0  0  0  0  0  0
   10.7456    2.4167    0.0000 H   0  0  0  0  0  0  0  0  0  0  0  0
    4.6062   -2.4234    0.0000 H   0  0  0  0  0  0  0  0  0  0  0  0
    5.9998    0.0120    0.0000 H   0  0  0  0  0  0  0  0  0  0  0  0
    3.2002   -1.6188    0.0000 H   0  0  0  0  0  0  0  0  0  0  0  0
    4.5937    0.8166    0.0000 H   0  0  0  0  0  0  0  0  0  0  0  0
   13.1419    2.7702    0.0000 H   0  0  0  0  0  0  0  0  0  0  0  0
   12.5243    3.3925    0.0000 H   0  0  0  0  0  0  0  0  0  0  0  0
   11.9019    2.7749    0.0000 H   0  0  0  0  0  0  0  0  0  0  0  0
    1.6879    0.2223    0.0000 H   0  0  0  0  0  0  0  0  0  0  0  0
    1.4643   -0.6255    0.0000 H   0  0  0  0  0  0  0  0  0  0  0  0
    2.3121   -0.8491    0.0000 H   0  0  0  0  0  0  0  0  0  0  0  0
  1 13  1  0  0  0  0
  1 14  1  0  0  0  0
  2 13  2  0  0  0  0
  3 21  1  0  0  0  0
  3 25  1  0  0  0  0
  4 24  1  0  0  0  0
  4 26  1  0  0  0  0
  5  6  1  0  0  0  0
  5  8  1  0  0  0  0
  5 11  1  0  0  0  0
  6  7  1  0  0  0  0
  6 27  1  0  0  0  0
  6 28  1  0  0  0  0
  7  9  1  0  0  0  0
  7 29  1  0  0  0  0
  7 30  1  0  0  0  0
  8 10  1  0  0  0  0
  8 31  1  0  0  0  0
  8 32  1  0  0  0  0
  9 10  2  0  0  0  0
  9 12  1  0  0  0  0
 10 13  1  0  0  0  0
 11 15  1  0  0  0  0
 11 33  1  0  0  0  0
 11 34  1  0  0  0  0
 12 14  2  0  0  0  0
 12 16  1  0  0  0  0
 14 17  1  0  0  0  0
 15 19  2  0  0  0  0
 15 20  1  0  0  0  0
 16 18  2  0  0  0  0
 16 35  1  0  0  0  0
 17 21  2  0  0  0  0
 17 36  1  0  0  0  0
 18 21  1  0  0  0  0
 18 37  1  0  0  0  0
 19 22  1  0  0  0  0
 19 38  1  0  0  0  0
 20 23  2  0  0  0  0
 20 39  1  0  0  0  0
 22 24  2  0  0  0  0
 22 40  1  0  0  0  0
 23 24  1  0  0  0  0
 23 41  1  0  0  0  0
 25 42  1  0  0  0  0
 25 43  1  0  0  0  0
 25 44  1  0  0  0  0
 26 45  1  0  0  0  0
 26 46  1  0  0  0  0
 26 47  1  0  0  0  0
M  END
> <PUBCHEM_COMPOUND_CID>
10689266

> <PUBCHEM_COMPOUND_CANONICALIZED>
1

> <PUBCHEM_CACTVS_COMPLEXITY>
552

> <PUBCHEM_CACTVS_HBOND_ACCEPTOR>
5

> <PUBCHEM_CACTVS_HBOND_DONOR>
0

> <PUBCHEM_CACTVS_ROTATABLE_BOND>
4

> <PUBCHEM_CACTVS_SUBSKEYS>
AAADceB6OAAAAAAAAAAAAAAAAAAAAAAAAAAwYIEAAAAAAACxQAAAHgAAAAAADATBmAYyDoMABACIAiDSCACCCAAgIAAIiAEODMgMJyqEsRuGOijnwBWIqQeQ8K4OIAAACAAIAABAAAAQABAAAAAAAAAAAA==

> <PUBCHEM_IUPAC_OPENEYE_NAME>
8-methoxy-3-[(4-methoxyphenyl)methyl]-2,4-dihydro-1H-chromeno[3,4-c]pyridin-5-one

> <PUBCHEM_IUPAC_CAS_NAME>
8-methoxy-3-[(4-methoxyphenyl)methyl]-2,4-dihydro-1H-[1]benzopyrano[3,4-c]pyridin-5-one

> <PUBCHEM_IUPAC_NAME_MARKUP>
8-methoxy-3-[(4-methoxyphenyl)methyl]-2,4-dihydro-1<I>H</I>-chromeno[3,4-c]pyridin-5-one

> <PUBCHEM_IUPAC_NAME>
8-methoxy-3-[(4-methoxyphenyl)methyl]-2,4-dihydro-1H-chromeno[3,4-c]pyridin-5-one

> <PUBCHEM_IUPAC_SYSTEMATIC_NAME>
8-methoxy-3-[(4-methoxyphenyl)methyl]-2,4-dihydro-1H-chromeno[3,4-c]pyridin-5-one

> <PUBCHEM_IUPAC_TRADITIONAL_NAME>
8-methoxy-3-p-anisyl-2,4-dihydro-1H-chromeno[3,4-c]pyridin-5-one

> <PUBCHEM_IUPAC_INCHI>
InChI=1S/C21H21NO4/c1-24-15-5-3-14(4-6-15)12-22-10-9-17-18-8-7-16(25-2)11-20(18)26-21(23)19(17)13-22/h3-8,11H,9-10,12-13H2,1-2H3

> <PUBCHEM_IUPAC_INCHIKEY>
STNPHZVHYQRIIW-UHFFFAOYSA-N

> <PUBCHEM_XLOGP3_AA>
2.8

> <PUBCHEM_EXACT_MASS>
351.14705815

> <PUBCHEM_MOLECULAR_FORMULA>
C21H21NO4

> <PUBCHEM_MOLECULAR_WEIGHT>
351.4

> <PUBCHEM_OPENEYE_CAN_SMILES>
COC1=CC=C(C=C1)CN2CCC3=C(C2)C(=O)OC4=C3C=CC(=C4)OC

> <PUBCHEM_OPENEYE_ISO_SMILES>
COC1=CC=C(C=C1)CN2CCC3=C(C2)C(=O)OC4=C3C=CC(=C4)OC

> <PUBCHEM_CACTVS_TPSA>
48

> <PUBCHEM_MONOISOTOPIC_WEIGHT>
351.14705815

> <PUBCHEM_TOTAL_CHARGE>
0

> <PUBCHEM_HEAVY_ATOM_COUNT>
26

> <PUBCHEM_ATOM_DEF_STEREO_COUNT>
0

> <PUBCHEM_ATOM_UDEF_STEREO_COUNT>
0

> <PUBCHEM_BOND_DEF_STEREO_COUNT>
0

> <PUBCHEM_BOND_UDEF_STEREO_COUNT>
0

> <PUBCHEM_ISOTOPIC_ATOM_COUNT>
0

> <PUBCHEM_COMPONENT_COUNT>
1

> <PUBCHEM_CACTVS_TAUTO_COUNT>
-1

> <PUBCHEM_COORDINATE_TYPE>
1
5
255

> <PUBCHEM_BONDANNOTATIONS>
1  13  8
1  14  8
10  13  8
12  14  8
12  16  8
14  17  8
15  19  8
15  20  8
16  18  8
17  21  8
18  21  8
19  22  8
20  23  8
22  24  8
23  24  8
9  10  8
9  12  8

$$$$
