127041953
  -OEChem-09292322472D

 59 62  0     1  0  0  0  0  0999 V2000
    4.6756    2.5566    0.0000 S   0  0  0  0  0  0  0  0  0  0  0  0
    8.1397   -7.4434    0.0000 F   0  0  0  0  0  0  0  0  0  0  0  0
    7.1397   -6.4434    0.0000 F   0  0  0  0  0  0  0  0  0  0  0  0
    9.1397   -6.4434    0.0000 F   0  0  0  0  0  0  0  0  0  0  0  0
    9.0057   -1.9434    0.0000 O   0  0  0  0  0  0  0  0  0  0  0  0
    3.8968    6.8556    0.0000 O   0  0  0  0  0  0  0  0  0  0  0  0
    7.2736   -0.9434    0.0000 N   0  0  3  0  0  0  0  0  0  0  0  0
    3.8666    4.1444    0.0000 N   0  0  0  0  0  0  0  0  0  0  0  0
    5.4846    4.1444    0.0000 N   0  0  0  0  0  0  0  0  0  0  0  0
    5.1756    5.0955    0.0000 N   0  0  0  0  0  0  0  0  0  0  0  0
    2.2788    6.8556    0.0000 N   0  0  0  0  0  0  0  0  0  0  0  0
    7.2736   -1.9434    0.0000 C   0  0  0  0  0  0  0  0  0  0  0  0
    8.1397   -2.4434    0.0000 C   0  0  3  0  0  0  0  0  0  0  0  0
    8.1397   -0.4434    0.0000 C   0  0  0  0  0  0  0  0  0  0  0  0
    6.4076   -0.4434    0.0000 C   0  0  0  0  0  0  0  0  0  0  0  0
    9.0057   -0.9434    0.0000 C   0  0  0  0  0  0  0  0  0  0  0  0
    6.4076    0.5566    0.0000 C   0  0  0  0  0  0  0  0  0  0  0  0
    8.1397   -3.4434    0.0000 C   0  0  0  0  0  0  0  0  0  0  0  0
    5.5416    1.0566    0.0000 C   0  0  0  0  0  0  0  0  0  0  0  0
    7.2736   -3.9434    0.0000 C   0  0  0  0  0  0  0  0  0  0  0  0
    9.0057   -3.9434    0.0000 C   0  0  0  0  0  0  0  0  0  0  0  0
    5.5416    2.0566    0.0000 C   0  0  0  0  0  0  0  0  0  0  0  0
    7.2736   -4.9434    0.0000 C   0  0  0  0  0  0  0  0  0  0  0  0
    9.0057   -4.9434    0.0000 C   0  0  0  0  0  0  0  0  0  0  0  0
    8.1397   -5.4434    0.0000 C   0  0  0  0  0  0  0  0  0  0  0  0
    8.1397   -6.4434    0.0000 C   0  0  0  0  0  0  0  0  0  0  0  0
    4.6756    3.5566    0.0000 C   0  0  0  0  0  0  0  0  0  0  0  0
    4.1756    5.0955    0.0000 C   0  0  0  0  0  0  0  0  0  0  0  0
    2.9155    3.8354    0.0000 C   0  0  0  0  0  0  0  0  0  0  0  0
    3.5878    5.9045    0.0000 C   0  0  0  0  0  0  0  0  0  0  0  0
    2.5878    5.9045    0.0000 C   0  0  0  0  0  0  0  0  0  0  0  0
    2.0000    5.0955    0.0000 C   0  0  0  0  0  0  0  0  0  0  0  0
    3.0878    7.4434    0.0000 C   0  0  0  0  0  0  0  0  0  0  0  0
    6.6631   -1.8357    0.0000 H   0  0  0  0  0  0  0  0  0  0  0  0
    7.0616   -2.5260    0.0000 H   0  0  0  0  0  0  0  0  0  0  0  0
    8.6766   -2.7534    0.0000 H   0  0  0  0  0  0  0  0  0  0  0  0
    8.5382    0.0316    0.0000 H   0  0  0  0  0  0  0  0  0  0  0  0
    7.7411    0.0316    0.0000 H   0  0  0  0  0  0  0  0  0  0  0  0
    5.7970   -0.3357    0.0000 H   0  0  0  0  0  0  0  0  0  0  0  0
    6.1956   -1.0260    0.0000 H   0  0  0  0  0  0  0  0  0  0  0  0
    9.6163   -1.0510    0.0000 H   0  0  0  0  0  0  0  0  0  0  0  0
    9.2178   -0.3607    0.0000 H   0  0  0  0  0  0  0  0  0  0  0  0
    7.0182    0.4490    0.0000 H   0  0  0  0  0  0  0  0  0  0  0  0
    6.6197    1.1393    0.0000 H   0  0  0  0  0  0  0  0  0  0  0  0
    4.9310    1.1643    0.0000 H   0  0  0  0  0  0  0  0  0  0  0  0
    5.3295    0.4740    0.0000 H   0  0  0  0  0  0  0  0  0  0  0  0
    6.1522    1.9490    0.0000 H   0  0  0  0  0  0  0  0  0  0  0  0
    5.7537    2.6393    0.0000 H   0  0  0  0  0  0  0  0  0  0  0  0
    6.7367   -3.6334    0.0000 H   0  0  0  0  0  0  0  0  0  0  0  0
    9.5426   -3.6334    0.0000 H   0  0  0  0  0  0  0  0  0  0  0  0
    6.7367   -5.2534    0.0000 H   0  0  0  0  0  0  0  0  0  0  0  0
    9.5426   -5.2534    0.0000 H   0  0  0  0  0  0  0  0  0  0  0  0
    2.7239    4.4251    0.0000 H   0  0  0  0  0  0  0  0  0  0  0  0
    2.3258    3.6438    0.0000 H   0  0  0  0  0  0  0  0  0  0  0  0
    3.1071    3.2458    0.0000 H   0  0  0  0  0  0  0  0  0  0  0  0
    1.4984    5.4599    0.0000 H   0  0  0  0  0  0  0  0  0  0  0  0
    1.6356    4.5939    0.0000 H   0  0  0  0  0  0  0  0  0  0  0  0
    2.5016    4.7311    0.0000 H   0  0  0  0  0  0  0  0  0  0  0  0
    3.0878    8.0634    0.0000 H   0  0  0  0  0  0  0  0  0  0  0  0
  1 22  1  0  0  0  0
  1 27  1  0  0  0  0
  2 26  1  0  0  0  0
  3 26  1  0  0  0  0
  4 26  1  0  0  0  0
  5 13  1  0  0  0  0
  5 16  1  0  0  0  0
  6 30  1  0  0  0  0
  6 33  1  0  0  0  0
  7 12  1  0  0  0  0
  7 14  1  0  0  0  0
  7 15  1  0  0  0  0
  8 27  1  0  0  0  0
  8 28  1  0  0  0  0
  8 29  1  0  0  0  0
  9 10  1  0  0  0  0
  9 27  2  0  0  0  0
 10 28  2  0  0  0  0
 11 31  1  0  0  0  0
 11 33  2  0  0  0  0
 12 13  1  0  0  0  0
 12 34  1  0  0  0  0
 12 35  1  0  0  0  0
 13 18  1  0  0  0  0
 13 36  1  0  0  0  0
 14 16  1  0  0  0  0
 14 37  1  0  0  0  0
 14 38  1  0  0  0  0
 15 17  1  0  0  0  0
 15 39  1  0  0  0  0
 15 40  1  0  0  0  0
 16 41  1  0  0  0  0
 16 42  1  0  0  0  0
 17 19  1  0  0  0  0
 17 43  1  0  0  0  0
 17 44  1  0  0  0  0
 18 20  2  0  0  0  0
 18 21  1  0  0  0  0
 19 22  1  0  0  0  0
 19 45  1  0  0  0  0
 19 46  1  0  0  0  0
 20 23  1  0  0  0  0
 20 49  1  0  0  0  0
 21 24  2  0  0  0  0
 21 50  1  0  0  0  0
 22 47  1  0  0  0  0
 22 48  1  0  0  0  0
 23 25  2  0  0  0  0
 23 51  1  0  0  0  0
 24 25  1  0  0  0  0
 24 52  1  0  0  0  0
 25 26  1  0  0  0  0
 28 30  1  0  0  0  0
 29 53  1  0  0  0  0
 29 54  1  0  0  0  0
 29 55  1  0  0  0  0
 30 31  2  0  0  0  0
 31 32  1  0  0  0  0
 32 56  1  0  0  0  0
 32 57  1  0  0  0  0
 32 58  1  0  0  0  0
 33 59  1  0  0  0  0
M  END
> <PUBCHEM_COMPOUND_CID>
127041953

> <PUBCHEM_COMPOUND_CANONICALIZED>
1

> <PUBCHEM_CACTVS_COMPLEXITY>
611

> <PUBCHEM_CACTVS_HBOND_ACCEPTOR>
10

> <PUBCHEM_CACTVS_HBOND_DONOR>
0

> <PUBCHEM_CACTVS_ROTATABLE_BOND>
8

> <PUBCHEM_CACTVS_SUBSKEYS>
AAADceB7sYBAAAAAAAAAAAAAAAAAAWLAAAA8QAAAAAAAAAAB8AAAHwQIAAAADBzl3xa3lJcMFEiqA6Zz9ASS2Ct7YLAd2CG9TJiOLiLk+TmPMChkzAPYqAeQwPAOQAAAAAAAAACAAAAAAAAAAAAAAAAAAA==

> <PUBCHEM_IUPAC_OPENEYE_NAME>
4-[4-[[4-methyl-5-(4-methyloxazol-5-yl)-1,2,4-triazol-3-yl]sulfanyl]butyl]-2-[4-(trifluoromethyl)phenyl]morpholine

> <PUBCHEM_IUPAC_CAS_NAME>
4-[4-[[4-methyl-5-(4-methyl-5-oxazolyl)-1,2,4-triazol-3-yl]thio]butyl]-2-[4-(trifluoromethyl)phenyl]morpholine

> <PUBCHEM_IUPAC_NAME_MARKUP>
4-[4-[[4-methyl-5-(4-methyl-1,3-oxazol-5-yl)-1,2,4-triazol-3-yl]sulfanyl]butyl]-2-[4-(trifluoromethyl)phenyl]morpholine

> <PUBCHEM_IUPAC_NAME>
4-[4-[[4-methyl-5-(4-methyl-1,3-oxazol-5-yl)-1,2,4-triazol-3-yl]sulfanyl]butyl]-2-[4-(trifluoromethyl)phenyl]morpholine

> <PUBCHEM_IUPAC_SYSTEMATIC_NAME>
4-[4-[[4-methyl-5-(4-methyl-1,3-oxazol-5-yl)-1,2,4-triazol-3-yl]sulfanyl]butyl]-2-[4-(trifluoromethyl)phenyl]morpholine

> <PUBCHEM_IUPAC_TRADITIONAL_NAME>
4-[4-[[4-methyl-5-(4-methyloxazol-5-yl)-1,2,4-triazol-3-yl]thio]butyl]-2-[4-(trifluoromethyl)phenyl]morpholine

> <PUBCHEM_IUPAC_INCHI>
InChI=1S/C22H26F3N5O2S/c1-15-19(32-14-26-15)20-27-28-21(29(20)2)33-12-4-3-9-30-10-11-31-18(13-30)16-5-7-17(8-6-16)22(23,24)25/h5-8,14,18H,3-4,9-13H2,1-2H3

> <PUBCHEM_IUPAC_INCHIKEY>
WMFCPIPAGHYFMC-UHFFFAOYSA-N

> <PUBCHEM_XLOGP3_AA>
3.6

> <PUBCHEM_EXACT_MASS>
481.17593075

> <PUBCHEM_MOLECULAR_FORMULA>
C22H26F3N5O2S

> <PUBCHEM_MOLECULAR_WEIGHT>
481.5

> <PUBCHEM_OPENEYE_CAN_SMILES>
CC1=C(OC=N1)C2=NN=C(N2C)SCCCCN3CCOC(C3)C4=CC=C(C=C4)C(F)(F)F

> <PUBCHEM_OPENEYE_ISO_SMILES>
CC1=C(OC=N1)C2=NN=C(N2C)SCCCCN3CCOC(C3)C4=CC=C(C=C4)C(F)(F)F

> <PUBCHEM_CACTVS_TPSA>
94.5

> <PUBCHEM_MONOISOTOPIC_WEIGHT>
481.17593075

> <PUBCHEM_TOTAL_CHARGE>
0

> <PUBCHEM_HEAVY_ATOM_COUNT>
33

> <PUBCHEM_ATOM_DEF_STEREO_COUNT>
0

> <PUBCHEM_ATOM_UDEF_STEREO_COUNT>
1

> <PUBCHEM_BOND_DEF_STEREO_COUNT>
0

> <PUBCHEM_BOND_UDEF_STEREO_COUNT>
0

> <PUBCHEM_ISOTOPIC_ATOM_COUNT>
0

> <PUBCHEM_COMPONENT_COUNT>
1

> <PUBCHEM_CACTVS_TAUTO_COUNT>
-1

> <PUBCHEM_COORDINATE_TYPE>
1
5
255

> <PUBCHEM_BONDANNOTATIONS>
10  28  8
11  31  8
11  33  8
13  18  3
18  20  8
18  21  8
20  23  8
21  24  8
23  25  8
24  25  8
30  31  8
6  30  8
6  33  8
8  27  8
8  28  8
9  10  8
9  27  8

$$$$
