44439943
  -OEChem-09292322232D

 45 48  0     1  0  0  0  0  0999 V2000
    6.1191   -3.2621    0.0000 O   0  0  0  0  0  0  0  0  0  0  0  0
    5.5321    2.2946    0.0000 N   0  0  3  0  0  0  0  0  0  0  0  0
    3.9290    0.1275    0.0000 N   0  0  0  0  0  0  0  0  0  0  0  0
    5.5321    0.2946    0.0000 C   0  0  0  0  0  0  0  0  0  0  0  0
    4.6660    0.7946    0.0000 C   0  0  0  0  0  0  0  0  0  0  0  0
    6.3981    0.7946    0.0000 C   0  0  0  0  0  0  0  0  0  0  0  0
    6.3981    1.7946    0.0000 C   0  0  0  0  0  0  0  0  0  0  0  0
    4.6660    1.7946    0.0000 C   0  0  0  0  0  0  0  0  0  0  0  0
    5.3229   -0.6773    0.0000 C   0  0  0  0  0  0  0  0  0  0  0  0
    5.5321    3.2946    0.0000 C   0  0  0  0  0  0  0  0  0  0  0  0
    4.6660    3.7946    0.0000 C   0  0  0  0  0  0  0  0  0  0  0  0
    3.8000    2.2946    0.0000 C   0  0  0  0  0  0  0  0  0  0  0  0
    4.3341   -0.7803    0.0000 C   0  0  0  0  0  0  0  0  0  0  0  0
    3.8000    3.2946    0.0000 C   0  0  0  0  0  0  0  0  0  0  0  0
    5.9436   -1.5060    0.0000 C   0  0  0  0  0  0  0  0  0  0  0  0
    4.6660    2.7946    0.0000 C   0  0  0  0  0  0  0  0  0  0  0  0
    3.8976   -1.7193    0.0000 C   0  0  0  0  0  0  0  0  0  0  0  0
    2.9061    1.7599    0.0000 C   0  0  0  0  0  0  0  0  0  0  0  0
    2.9061    3.8292    0.0000 C   0  0  0  0  0  0  0  0  0  0  0  0
    5.5289   -2.4548    0.0000 C   0  0  0  0  0  0  0  0  0  0  0  0
    4.4991   -2.5622    0.0000 C   0  0  0  0  0  0  0  0  0  0  0  0
    2.0000    2.2738    0.0000 C   0  0  0  0  0  0  0  0  0  0  0  0
    2.0000    3.3154    0.0000 C   0  0  0  0  0  0  0  0  0  0  0  0
    6.6101    0.2120    0.0000 H   0  0  0  0  0  0  0  0  0  0  0  0
    7.0087    0.9022    0.0000 H   0  0  0  0  0  0  0  0  0  0  0  0
    7.0087    1.6869    0.0000 H   0  0  0  0  0  0  0  0  0  0  0  0
    6.6101    2.3772    0.0000 H   0  0  0  0  0  0  0  0  0  0  0  0
    5.2766    1.6869    0.0000 H   0  0  0  0  0  0  0  0  0  0  0  0
    4.8781    2.3772    0.0000 H   0  0  0  0  0  0  0  0  0  0  0  0
    6.1426    3.1869    0.0000 H   0  0  0  0  0  0  0  0  0  0  0  0
    5.7441    3.8772    0.0000 H   0  0  0  0  0  0  0  0  0  0  0  0
    5.0646    4.2695    0.0000 H   0  0  0  0  0  0  0  0  0  0  0  0
    4.2675    4.2695    0.0000 H   0  0  0  0  0  0  0  0  0  0  0  0
    3.3223    0.2553    0.0000 H   0  0  0  0  0  0  0  0  0  0  0  0
    6.5595   -1.4346    0.0000 H   0  0  0  0  0  0  0  0  0  0  0  0
    4.9761    3.3315    0.0000 H   0  0  0  0  0  0  0  0  0  0  0  0
    4.1291    3.1046    0.0000 H   0  0  0  0  0  0  0  0  0  0  0  0
    4.3560    2.2577    0.0000 H   0  0  0  0  0  0  0  0  0  0  0  0
    3.2803   -1.7764    0.0000 H   0  0  0  0  0  0  0  0  0  0  0  0
    2.9132    1.1399    0.0000 H   0  0  0  0  0  0  0  0  0  0  0  0
    2.9132    4.4492    0.0000 H   0  0  0  0  0  0  0  0  0  0  0  0
    4.2442   -3.1274    0.0000 H   0  0  0  0  0  0  0  0  0  0  0  0
    1.4643    1.9617    0.0000 H   0  0  0  0  0  0  0  0  0  0  0  0
    1.4643    3.6274    0.0000 H   0  0  0  0  0  0  0  0  0  0  0  0
    5.8686   -3.8292    0.0000 H   0  0  0  0  0  0  0  0  0  0  0  0
  1 20  1  0  0  0  0
  1 45  1  0  0  0  0
  2  7  1  0  0  0  0
  2 10  1  0  0  0  0
  2 16  1  0  0  0  0
  3  5  1  0  0  0  0
  3 13  1  0  0  0  0
  3 34  1  0  0  0  0
  4  5  2  0  0  0  0
  4  6  1  0  0  0  0
  4  9  1  0  0  0  0
  5  8  1  0  0  0  0
  6  7  1  0  0  0  0
  6 24  1  0  0  0  0
  6 25  1  0  0  0  0
  7 26  1  0  0  0  0
  7 27  1  0  0  0  0
  8 12  1  0  0  0  0
  8 28  1  0  0  0  0
  8 29  1  0  0  0  0
  9 13  2  0  0  0  0
  9 15  1  0  0  0  0
 10 11  1  0  0  0  0
 10 30  1  0  0  0  0
 10 31  1  0  0  0  0
 11 14  1  0  0  0  0
 11 32  1  0  0  0  0
 11 33  1  0  0  0  0
 12 14  1  0  0  0  0
 12 18  2  0  0  0  0
 13 17  1  0  0  0  0
 14 19  2  0  0  0  0
 15 20  2  0  0  0  0
 15 35  1  0  0  0  0
 16 36  1  0  0  0  0
 16 37  1  0  0  0  0
 16 38  1  0  0  0  0
 17 21  2  0  0  0  0
 17 39  1  0  0  0  0
 18 22  1  0  0  0  0
 18 40  1  0  0  0  0
 19 23  1  0  0  0  0
 19 41  1  0  0  0  0
 20 21  1  0  0  0  0
 21 42  1  0  0  0  0
 22 23  2  0  0  0  0
 22 43  1  0  0  0  0
 23 44  1  0  0  0  0
M  END
> <PUBCHEM_COMPOUND_CID>
44439943

> <PUBCHEM_COMPOUND_CANONICALIZED>
1

> <PUBCHEM_CACTVS_COMPLEXITY>
401

> <PUBCHEM_CACTVS_HBOND_ACCEPTOR>
2

> <PUBCHEM_CACTVS_HBOND_DONOR>
2

> <PUBCHEM_CACTVS_ROTATABLE_BOND>
0

> <PUBCHEM_CACTVS_SUBSKEYS>
AAADceB7IAAAAAAAAAAAAAAAAAAAAWAAAAAwYAAAAAAAAFix9AAAHgAQCAAADAzBngQyxvPJkgCgAyRiRACCgCAhIiAImSA+bJgIJuLCkZOEcAhk0BHI2Aew0PMOgEABAAASAAAAgAIAACQAAAAAAAAAAA==

> <PUBCHEM_IUPAC_OPENEYE_NAME>
11-methyl-11,21-diazatetracyclo[12.7.0.03,8.015,20]henicosa-1(14),3,5,7,15(20),16,18-heptaen-17-ol

> <PUBCHEM_IUPAC_CAS_NAME>
11-methyl-11,21-diazatetracyclo[12.7.0.03,8.015,20]heneicosa-1(14),3,5,7,15(20),16,18-heptaen-17-ol

> <PUBCHEM_IUPAC_NAME_MARKUP>
11-methyl-11,21-diazatetracyclo[12.7.0.0<SUP>3,8</SUP>.0<SUP>15,20</SUP>]henicosa-1(14),3,5,7,15(20),16,18-heptaen-17-ol

> <PUBCHEM_IUPAC_NAME>
11-methyl-11,21-diazatetracyclo[12.7.0.03,8.015,20]henicosa-1(14),3,5,7,15(20),16,18-heptaen-17-ol

> <PUBCHEM_IUPAC_SYSTEMATIC_NAME>
11-methyl-11,21-diazatetracyclo[12.7.0.03,8.015,20]henicosa-1(14),3,5,7,15(20),16,18-heptaen-17-ol

> <PUBCHEM_IUPAC_TRADITIONAL_NAME>
11-methyl-11,21-diazatetracyclo[12.7.0.03,8.015,20]heneicosa-1(14),3,5,7,15(20),16,18-heptaen-17-ol

> <PUBCHEM_IUPAC_INCHI>
InChI=1S/C20H22N2O/c1-22-10-8-14-4-2-3-5-15(14)12-20-17(9-11-22)18-13-16(23)6-7-19(18)21-20/h2-7,13,21,23H,8-12H2,1H3

> <PUBCHEM_IUPAC_INCHIKEY>
UPTHGVUSCNDAPF-UHFFFAOYSA-N

> <PUBCHEM_XLOGP3_AA>
4

> <PUBCHEM_EXACT_MASS>
306.173213330

> <PUBCHEM_MOLECULAR_FORMULA>
C20H22N2O

> <PUBCHEM_MOLECULAR_WEIGHT>
306.4

> <PUBCHEM_OPENEYE_CAN_SMILES>
CN1CCC2=CC=CC=C2CC3=C(CC1)C4=C(N3)C=CC(=C4)O

> <PUBCHEM_OPENEYE_ISO_SMILES>
CN1CCC2=CC=CC=C2CC3=C(CC1)C4=C(N3)C=CC(=C4)O

> <PUBCHEM_CACTVS_TPSA>
39.3

> <PUBCHEM_MONOISOTOPIC_WEIGHT>
306.173213330

> <PUBCHEM_TOTAL_CHARGE>
0

> <PUBCHEM_HEAVY_ATOM_COUNT>
23

> <PUBCHEM_ATOM_DEF_STEREO_COUNT>
0

> <PUBCHEM_ATOM_UDEF_STEREO_COUNT>
0

> <PUBCHEM_BOND_DEF_STEREO_COUNT>
0

> <PUBCHEM_BOND_UDEF_STEREO_COUNT>
0

> <PUBCHEM_ISOTOPIC_ATOM_COUNT>
0

> <PUBCHEM_COMPONENT_COUNT>
1

> <PUBCHEM_CACTVS_TAUTO_COUNT>
-1

> <PUBCHEM_COORDINATE_TYPE>
1
5
255

> <PUBCHEM_BONDANNOTATIONS>
12  14  8
12  18  8
13  17  8
14  19  8
15  20  8
17  21  8
18  22  8
19  23  8
20  21  8
22  23  8
3  13  8
3  5  8
4  5  8
4  9  8
9  13  8
9  15  8

$$$$
