24768523
  -OEChem-09292322462D

 73 76  0     1  0  0  0  0  0999 V2000
    4.5981   -5.5173    0.0000 S   0  0  0  0  0  0  0  0  0  0  0  0
    8.0622    3.4827    0.0000 O   0  0  0  0  0  0  0  0  0  0  0  0
    5.5981   -5.5173    0.0000 O   0  0  0  0  0  0  0  0  0  0  0  0
    3.5981   -5.5173    0.0000 O   0  0  0  0  0  0  0  0  0  0  0  0
    6.3301   -1.5173    0.0000 N   0  0  0  0  0  0  0  0  0  0  0  0
    4.5981   -2.5173    0.0000 N   0  0  0  0  0  0  0  0  0  0  0  0
    9.7942    3.4827    0.0000 N   0  0  0  0  0  0  0  0  0  0  0  0
    4.5981   -4.5173    0.0000 N   0  0  0  0  0  0  0  0  0  0  0  0
    5.4641   -1.0173    0.0000 C   0  0  0  0  0  0  0  0  0  0  0  0
    6.3301   -2.5173    0.0000 C   0  0  0  0  0  0  0  0  0  0  0  0
    4.5981   -1.5173    0.0000 C   0  0  0  0  0  0  0  0  0  0  0  0
    5.4641   -3.0173    0.0000 C   0  0  0  0  0  0  0  0  0  0  0  0
    7.1962   -1.0173    0.0000 C   0  0  0  0  0  0  0  0  0  0  0  0
    9.7942    4.4827    0.0000 C   0  0  3  0  0  0  0  0  0  0  0  0
    8.9282    4.9827    0.0000 C   0  0  0  0  0  0  0  0  0  0  0  0
    7.1962   -0.0173    0.0000 C   0  0  0  0  0  0  0  0  0  0  0  0
    8.9282    5.9827    0.0000 C   0  0  0  0  0  0  0  0  0  0  0  0
   10.6603    4.9827    0.0000 C   0  0  0  0  0  0  0  0  0  0  0  0
    9.7942    6.4827    0.0000 C   0  0  0  0  0  0  0  0  0  0  0  0
    8.0622    0.4827    0.0000 C   0  0  0  0  0  0  0  0  0  0  0  0
   10.6603    5.9827    0.0000 C   0  0  0  0  0  0  0  0  0  0  0  0
    8.0622    1.4827    0.0000 C   0  0  0  0  0  0  0  0  0  0  0  0
    3.7320   -3.0173    0.0000 C   0  0  0  0  0  0  0  0  0  0  0  0
    8.9282    1.9827    0.0000 C   0  0  0  0  0  0  0  0  0  0  0  0
    8.9282    2.9827    0.0000 C   0  0  0  0  0  0  0  0  0  0  0  0
   11.5542    4.4480    0.0000 C   0  0  0  0  0  0  0  0  0  0  0  0
   11.5542    6.5173    0.0000 C   0  0  0  0  0  0  0  0  0  0  0  0
    3.7320   -4.0173    0.0000 C   0  0  0  0  0  0  0  0  0  0  0  0
    2.8660   -2.5173    0.0000 C   0  0  0  0  0  0  0  0  0  0  0  0
   12.4603    4.9618    0.0000 C   0  0  0  0  0  0  0  0  0  0  0  0
   12.4603    6.0035    0.0000 C   0  0  0  0  0  0  0  0  0  0  0  0
    2.8660   -4.5173    0.0000 C   0  0  0  0  0  0  0  0  0  0  0  0
    2.0000   -3.0173    0.0000 C   0  0  0  0  0  0  0  0  0  0  0  0
    2.0000   -4.0173    0.0000 C   0  0  0  0  0  0  0  0  0  0  0  0
    4.5981   -6.5173    0.0000 C   0  0  0  0  0  0  0  0  0  0  0  0
    5.8626   -0.5424    0.0000 H   0  0  0  0  0  0  0  0  0  0  0  0
    5.0656   -0.5424    0.0000 H   0  0  0  0  0  0  0  0  0  0  0  0
    6.5422   -3.0999    0.0000 H   0  0  0  0  0  0  0  0  0  0  0  0
    6.9407   -2.4097    0.0000 H   0  0  0  0  0  0  0  0  0  0  0  0
    4.3860   -0.9347    0.0000 H   0  0  0  0  0  0  0  0  0  0  0  0
    3.9875   -1.6250    0.0000 H   0  0  0  0  0  0  0  0  0  0  0  0
    5.0656   -3.4923    0.0000 H   0  0  0  0  0  0  0  0  0  0  0  0
    5.8626   -3.4923    0.0000 H   0  0  0  0  0  0  0  0  0  0  0  0
    7.4082   -1.5999    0.0000 H   0  0  0  0  0  0  0  0  0  0  0  0
    7.8067   -0.9097    0.0000 H   0  0  0  0  0  0  0  0  0  0  0  0
    9.2573    4.1727    0.0000 H   0  0  0  0  0  0  0  0  0  0  0  0
    8.3176    5.0903    0.0000 H   0  0  0  0  0  0  0  0  0  0  0  0
    8.7162    4.4001    0.0000 H   0  0  0  0  0  0  0  0  0  0  0  0
    6.9841    0.5653    0.0000 H   0  0  0  0  0  0  0  0  0  0  0  0
    6.5856   -0.1250    0.0000 H   0  0  0  0  0  0  0  0  0  0  0  0
    8.7162    6.5653    0.0000 H   0  0  0  0  0  0  0  0  0  0  0  0
    8.3176    5.8750    0.0000 H   0  0  0  0  0  0  0  0  0  0  0  0
   10.1928    6.9576    0.0000 H   0  0  0  0  0  0  0  0  0  0  0  0
    9.3957    6.9576    0.0000 H   0  0  0  0  0  0  0  0  0  0  0  0
    8.2742   -0.0999    0.0000 H   0  0  0  0  0  0  0  0  0  0  0  0
    8.6728    0.5903    0.0000 H   0  0  0  0  0  0  0  0  0  0  0  0
    7.8501    2.0653    0.0000 H   0  0  0  0  0  0  0  0  0  0  0  0
    7.4516    1.3750    0.0000 H   0  0  0  0  0  0  0  0  0  0  0  0
   10.3312    3.1727    0.0000 H   0  0  0  0  0  0  0  0  0  0  0  0
    9.1403    1.4001    0.0000 H   0  0  0  0  0  0  0  0  0  0  0  0
    9.5388    2.0903    0.0000 H   0  0  0  0  0  0  0  0  0  0  0  0
   11.5470    3.8280    0.0000 H   0  0  0  0  0  0  0  0  0  0  0  0
   11.5470    7.1373    0.0000 H   0  0  0  0  0  0  0  0  0  0  0  0
    2.8660   -1.8973    0.0000 H   0  0  0  0  0  0  0  0  0  0  0  0
   12.9960    4.6498    0.0000 H   0  0  0  0  0  0  0  0  0  0  0  0
   12.9960    6.3156    0.0000 H   0  0  0  0  0  0  0  0  0  0  0  0
    2.8660   -5.1373    0.0000 H   0  0  0  0  0  0  0  0  0  0  0  0
    5.1350   -4.2073    0.0000 H   0  0  0  0  0  0  0  0  0  0  0  0
    1.4631   -2.7073    0.0000 H   0  0  0  0  0  0  0  0  0  0  0  0
    1.4631   -4.3273    0.0000 H   0  0  0  0  0  0  0  0  0  0  0  0
    3.9781   -6.5173    0.0000 H   0  0  0  0  0  0  0  0  0  0  0  0
    4.5981   -7.1373    0.0000 H   0  0  0  0  0  0  0  0  0  0  0  0
    5.2181   -6.5173    0.0000 H   0  0  0  0  0  0  0  0  0  0  0  0
  1  3  2  0  0  0  0
  1  4  2  0  0  0  0
  1  8  1  0  0  0  0
  1 35  1  0  0  0  0
  2 25  2  0  0  0  0
  5  9  1  0  0  0  0
  5 10  1  0  0  0  0
  5 13  1  0  0  0  0
  6 11  1  0  0  0  0
  6 12  1  0  0  0  0
  6 23  1  0  0  0  0
  7 14  1  0  0  0  0
  7 25  1  0  0  0  0
  7 59  1  0  0  0  0
  8 28  1  0  0  0  0
  8 68  1  0  0  0  0
  9 11  1  0  0  0  0
  9 36  1  0  0  0  0
  9 37  1  0  0  0  0
 10 12  1  0  0  0  0
 10 38  1  0  0  0  0
 10 39  1  0  0  0  0
 11 40  1  0  0  0  0
 11 41  1  0  0  0  0
 12 42  1  0  0  0  0
 12 43  1  0  0  0  0
 13 16  1  0  0  0  0
 13 44  1  0  0  0  0
 13 45  1  0  0  0  0
 14 15  1  0  0  0  0
 14 18  1  0  0  0  0
 14 46  1  0  0  0  0
 15 17  1  0  0  0  0
 15 47  1  0  0  0  0
 15 48  1  0  0  0  0
 16 20  1  0  0  0  0
 16 49  1  0  0  0  0
 16 50  1  0  0  0  0
 17 19  1  0  0  0  0
 17 51  1  0  0  0  0
 17 52  1  0  0  0  0
 18 21  1  0  0  0  0
 18 26  2  0  0  0  0
 19 21  1  0  0  0  0
 19 53  1  0  0  0  0
 19 54  1  0  0  0  0
 20 22  1  0  0  0  0
 20 55  1  0  0  0  0
 20 56  1  0  0  0  0
 21 27  2  0  0  0  0
 22 24  1  0  0  0  0
 22 57  1  0  0  0  0
 22 58  1  0  0  0  0
 23 28  1  0  0  0  0
 23 29  2  0  0  0  0
 24 25  1  0  0  0  0
 24 60  1  0  0  0  0
 24 61  1  0  0  0  0
 26 30  1  0  0  0  0
 26 62  1  0  0  0  0
 27 31  1  0  0  0  0
 27 63  1  0  0  0  0
 28 32  2  0  0  0  0
 29 33  1  0  0  0  0
 29 64  1  0  0  0  0
 30 31  2  0  0  0  0
 30 65  1  0  0  0  0
 31 66  1  0  0  0  0
 32 34  1  0  0  0  0
 32 67  1  0  0  0  0
 33 34  2  0  0  0  0
 33 69  1  0  0  0  0
 34 70  1  0  0  0  0
 35 71  1  0  0  0  0
 35 72  1  0  0  0  0
 35 73  1  0  0  0  0
M  END
> <PUBCHEM_COMPOUND_CID>
24768523

> <PUBCHEM_COMPOUND_CANONICALIZED>
1

> <PUBCHEM_CACTVS_COMPLEXITY>
763

> <PUBCHEM_CACTVS_HBOND_ACCEPTOR>
6

> <PUBCHEM_CACTVS_HBOND_DONOR>
2

> <PUBCHEM_CACTVS_ROTATABLE_BOND>
10

> <PUBCHEM_CACTVS_SUBSKEYS>
AAADcfB7sABAAAAAAAAAAAAAAAAAAAAAAAA8YMEAAAAAAADBQAAAHgQQQAAADCjBmASywIPAAAKIAiVSUHCCAAAhAgAIiIEIdIgIYDLAkZGUIAhglgDIyAcYiIAOgAAAAAAQACAAAACAACQAQAAAAAAAAA==

> <PUBCHEM_IUPAC_OPENEYE_NAME>
6-[4-[2-(methanesulfonamido)phenyl]piperazin-1-yl]-N-tetralin-1-yl-hexanamide

> <PUBCHEM_IUPAC_CAS_NAME>
6-[4-[2-(methanesulfonamido)phenyl]-1-piperazinyl]-N-(1,2,3,4-tetrahydronaphthalen-1-yl)hexanamide

> <PUBCHEM_IUPAC_NAME_MARKUP>
6-[4-[2-(methanesulfonamido)phenyl]piperazin-1-yl]-<I>N</I>-(1,2,3,4-tetrahydronaphthalen-1-yl)hexanamide

> <PUBCHEM_IUPAC_NAME>
6-[4-[2-(methanesulfonamido)phenyl]piperazin-1-yl]-N-(1,2,3,4-tetrahydronaphthalen-1-yl)hexanamide

> <PUBCHEM_IUPAC_SYSTEMATIC_NAME>
6-[4-[2-(methylsulfonylamino)phenyl]piperazin-1-yl]-N-(1,2,3,4-tetrahydronaphthalen-1-yl)hexanamide

> <PUBCHEM_IUPAC_TRADITIONAL_NAME>
6-[4-[2-(methanesulfonamido)phenyl]piperazino]-N-tetralin-1-yl-hexanamide

> <PUBCHEM_IUPAC_INCHI>
InChI=1S/C27H38N4O3S/c1-35(33,34)29-25-13-6-7-15-26(25)31-20-18-30(19-21-31)17-8-2-3-16-27(32)28-24-14-9-11-22-10-4-5-12-23(22)24/h4-7,10,12-13,15,24,29H,2-3,8-9,11,14,16-21H2,1H3,(H,28,32)

> <PUBCHEM_IUPAC_INCHIKEY>
PUVLRPJSGDJKOF-UHFFFAOYSA-N

> <PUBCHEM_XLOGP3_AA>
3.4

> <PUBCHEM_EXACT_MASS>
498.26646226

> <PUBCHEM_MOLECULAR_FORMULA>
C27H38N4O3S

> <PUBCHEM_MOLECULAR_WEIGHT>
498.7

> <PUBCHEM_OPENEYE_CAN_SMILES>
CS(=O)(=O)NC1=CC=CC=C1N2CCN(CC2)CCCCCC(=O)NC3CCCC4=CC=CC=C34

> <PUBCHEM_OPENEYE_ISO_SMILES>
CS(=O)(=O)NC1=CC=CC=C1N2CCN(CC2)CCCCCC(=O)NC3CCCC4=CC=CC=C34

> <PUBCHEM_CACTVS_TPSA>
90.1

> <PUBCHEM_MONOISOTOPIC_WEIGHT>
498.26646226

> <PUBCHEM_TOTAL_CHARGE>
0

> <PUBCHEM_HEAVY_ATOM_COUNT>
35

> <PUBCHEM_ATOM_DEF_STEREO_COUNT>
0

> <PUBCHEM_ATOM_UDEF_STEREO_COUNT>
1

> <PUBCHEM_BOND_DEF_STEREO_COUNT>
0

> <PUBCHEM_BOND_UDEF_STEREO_COUNT>
0

> <PUBCHEM_ISOTOPIC_ATOM_COUNT>
0

> <PUBCHEM_COMPONENT_COUNT>
1

> <PUBCHEM_CACTVS_TAUTO_COUNT>
-1

> <PUBCHEM_COORDINATE_TYPE>
1
5
255

> <PUBCHEM_BONDANNOTATIONS>
18  21  8
18  26  8
21  27  8
23  28  8
23  29  8
26  30  8
27  31  8
28  32  8
29  33  8
30  31  8
32  34  8
33  34  8
14  7  3

$$$$
