44329126
  -OEChem-09292322212D

 71 75  0     1  0  0  0  0  0999 V2000
   12.8674    6.2616    0.0000 S   0  0  0  0  0  0  0  0  0  0  0  0
   12.8636    5.2616    0.0000 O   0  0  0  0  0  0  0  0  0  0  0  0
   13.8674    6.2577    0.0000 O   0  0  0  0  0  0  0  0  0  0  0  0
   11.8674    6.2654    0.0000 O   0  0  0  0  0  0  0  0  0  0  0  0
    3.8640   -0.8142    0.0000 O   0  0  0  0  0  0  0  0  0  0  0  0
    8.3993    1.9118    0.0000 N   0  0  3  0  0  0  0  0  0  0  0  0
    5.5103   -1.3522    0.0000 N   0  0  0  0  0  0  0  0  0  0  0  0
    9.3455    2.2165    0.0000 C   0  0  2  0  0  0  0  0  0  0  0  0
    9.3455    3.2165    0.0000 C   0  0  1  0  0  0  0  0  0  0  0  0
    8.3993    3.5212    0.0000 C   0  0  0  0  0  0  0  0  0  0  0  0
   10.2116    1.7165    0.0000 C   0  0  0  0  0  0  0  0  0  0  0  0
    7.8157    2.7165    0.0000 C   0  0  0  0  0  0  0  0  0  0  0  0
   10.2116    3.7165    0.0000 C   0  0  0  0  0  0  0  0  0  0  0  0
   11.0776    2.2165    0.0000 C   0  0  0  0  0  0  0  0  0  0  0  0
   11.0776    3.2165    0.0000 C   0  0  0  0  0  0  0  0  0  0  0  0
    8.0887    0.9612    0.0000 C   0  0  0  0  0  0  0  0  0  0  0  0
   10.1955    4.7580    0.0000 C   0  0  0  0  0  0  0  0  0  0  0  0
    7.1102    0.7550    0.0000 C   0  0  0  0  0  0  0  0  0  0  0  0
   11.9876    3.7233    0.0000 C   0  0  0  0  0  0  0  0  0  0  0  0
   11.0935    5.2858    0.0000 C   0  0  0  0  0  0  0  0  0  0  0  0
    6.7995   -0.1955    0.0000 C   0  0  0  0  0  0  0  0  0  0  0  0
   11.9956    4.7649    0.0000 C   0  0  0  0  0  0  0  0  0  0  0  0
    5.8210   -0.4017    0.0000 C   0  0  0  0  0  0  0  0  0  0  0  0
    4.5318   -1.5585    0.0000 C   0  0  0  0  0  0  0  0  0  0  0  0
   12.8713    7.2616    0.0000 C   0  0  0  0  0  0  0  0  0  0  0  0
    4.2212   -2.5090    0.0000 C   0  0  0  0  0  0  0  0  0  0  0  0
    4.8890   -3.2533    0.0000 C   0  0  0  0  0  0  0  0  0  0  0  0
    3.2426   -2.7152    0.0000 C   0  0  0  0  0  0  0  0  0  0  0  0
    4.5783   -4.2038    0.0000 C   0  0  0  0  0  0  0  0  0  0  0  0
    2.9320   -3.6657    0.0000 C   0  0  0  0  0  0  0  0  0  0  0  0
    3.5998   -4.4100    0.0000 C   0  0  0  0  0  0  0  0  0  0  0  0
    3.2892   -5.3605    0.0000 C   0  0  0  0  0  0  0  0  0  0  0  0
    2.3107   -5.5668    0.0000 C   0  0  0  0  0  0  0  0  0  0  0  0
    3.9570   -6.1048    0.0000 C   0  0  0  0  0  0  0  0  0  0  0  0
    2.0000   -6.5173    0.0000 C   0  0  0  0  0  0  0  0  0  0  0  0
    3.6464   -7.0554    0.0000 C   0  0  0  0  0  0  0  0  0  0  0  0
    2.6678   -7.2616    0.0000 C   0  0  0  0  0  0  0  0  0  0  0  0
    9.2556    1.3713    0.0000 H   0  0  0  0  0  0  0  0  0  0  0  0
    9.2556    4.0617    0.0000 H   0  0  0  0  0  0  0  0  0  0  0  0
    8.6504    4.0881    0.0000 H   0  0  0  0  0  0  0  0  0  0  0  0
    7.8619    3.8304    0.0000 H   0  0  0  0  0  0  0  0  0  0  0  0
    9.8130    1.2415    0.0000 H   0  0  0  0  0  0  0  0  0  0  0  0
   10.6101    1.2415    0.0000 H   0  0  0  0  0  0  0  0  0  0  0  0
    7.3548    3.1312    0.0000 H   0  0  0  0  0  0  0  0  0  0  0  0
    7.3548    2.3018    0.0000 H   0  0  0  0  0  0  0  0  0  0  0  0
   11.2896    1.6339    0.0000 H   0  0  0  0  0  0  0  0  0  0  0  0
   11.6882    2.3242    0.0000 H   0  0  0  0  0  0  0  0  0  0  0  0
    8.1092    0.3416    0.0000 H   0  0  0  0  0  0  0  0  0  0  0  0
    8.7025    0.8739    0.0000 H   0  0  0  0  0  0  0  0  0  0  0  0
    9.6550    5.0618    0.0000 H   0  0  0  0  0  0  0  0  0  0  0  0
    7.0896    1.3747    0.0000 H   0  0  0  0  0  0  0  0  0  0  0  0
    6.4963    0.8424    0.0000 H   0  0  0  0  0  0  0  0  0  0  0  0
   12.5209    3.4072    0.0000 H   0  0  0  0  0  0  0  0  0  0  0  0
   11.0912    5.9058    0.0000 H   0  0  0  0  0  0  0  0  0  0  0  0
    6.8201   -0.8152    0.0000 H   0  0  0  0  0  0  0  0  0  0  0  0
    7.4133   -0.2828    0.0000 H   0  0  0  0  0  0  0  0  0  0  0  0
    5.8004    0.2179    0.0000 H   0  0  0  0  0  0  0  0  0  0  0  0
    5.2072   -0.3144    0.0000 H   0  0  0  0  0  0  0  0  0  0  0  0
    5.9244   -1.8137    0.0000 H   0  0  0  0  0  0  0  0  0  0  0  0
   13.4913    7.2592    0.0000 H   0  0  0  0  0  0  0  0  0  0  0  0
   12.8737    7.8816    0.0000 H   0  0  0  0  0  0  0  0  0  0  0  0
   12.2513    7.2640    0.0000 H   0  0  0  0  0  0  0  0  0  0  0  0
    5.4957   -3.1254    0.0000 H   0  0  0  0  0  0  0  0  0  0  0  0
    2.8286   -2.2537    0.0000 H   0  0  0  0  0  0  0  0  0  0  0  0
    4.9924   -4.6653    0.0000 H   0  0  0  0  0  0  0  0  0  0  0  0
    2.3253   -3.7936    0.0000 H   0  0  0  0  0  0  0  0  0  0  0  0
    1.8966   -5.1053    0.0000 H   0  0  0  0  0  0  0  0  0  0  0  0
    4.5637   -5.9770    0.0000 H   0  0  0  0  0  0  0  0  0  0  0  0
    1.3933   -6.6451    0.0000 H   0  0  0  0  0  0  0  0  0  0  0  0
    4.0604   -7.5168    0.0000 H   0  0  0  0  0  0  0  0  0  0  0  0
    2.4752   -7.8509    0.0000 H   0  0  0  0  0  0  0  0  0  0  0  0
  1  2  1  0  0  0  0
  1  3  2  0  0  0  0
  1  4  2  0  0  0  0
  1 25  1  0  0  0  0
  2 22  1  0  0  0  0
  5 24  2  0  0  0  0
  6  8  1  0  0  0  0
  6 12  1  0  0  0  0
  6 16  1  0  0  0  0
  7 23  1  0  0  0  0
  7 24  1  0  0  0  0
  7 59  1  0  0  0  0
  8  9  1  0  0  0  0
  8 11  1  0  0  0  0
  8 38  1  1  0  0  0
  9 10  1  0  0  0  0
  9 13  1  0  0  0  0
  9 39  1  6  0  0  0
 10 12  1  0  0  0  0
 10 40  1  0  0  0  0
 10 41  1  0  0  0  0
 11 14  1  0  0  0  0
 11 42  1  0  0  0  0
 11 43  1  0  0  0  0
 12 44  1  0  0  0  0
 12 45  1  0  0  0  0
 13 15  2  0  0  0  0
 13 17  1  0  0  0  0
 14 15  1  0  0  0  0
 14 46  1  0  0  0  0
 14 47  1  0  0  0  0
 15 19  1  0  0  0  0
 16 18  1  0  0  0  0
 16 48  1  0  0  0  0
 16 49  1  0  0  0  0
 17 20  2  0  0  0  0
 17 50  1  0  0  0  0
 18 21  1  0  0  0  0
 18 51  1  0  0  0  0
 18 52  1  0  0  0  0
 19 22  2  0  0  0  0
 19 53  1  0  0  0  0
 20 22  1  0  0  0  0
 20 54  1  0  0  0  0
 21 23  1  0  0  0  0
 21 55  1  0  0  0  0
 21 56  1  0  0  0  0
 23 57  1  0  0  0  0
 23 58  1  0  0  0  0
 24 26  1  0  0  0  0
 25 60  1  0  0  0  0
 25 61  1  0  0  0  0
 25 62  1  0  0  0  0
 26 27  2  0  0  0  0
 26 28  1  0  0  0  0
 27 29  1  0  0  0  0
 27 63  1  0  0  0  0
 28 30  2  0  0  0  0
 28 64  1  0  0  0  0
 29 31  2  0  0  0  0
 29 65  1  0  0  0  0
 30 31  1  0  0  0  0
 30 66  1  0  0  0  0
 31 32  1  0  0  0  0
 32 33  2  0  0  0  0
 32 34  1  0  0  0  0
 33 35  1  0  0  0  0
 33 67  1  0  0  0  0
 34 36  2  0  0  0  0
 34 68  1  0  0  0  0
 35 37  2  0  0  0  0
 35 69  1  0  0  0  0
 36 37  1  0  0  0  0
 36 70  1  0  0  0  0
 37 71  1  0  0  0  0
M  END
> <PUBCHEM_COMPOUND_CID>
44329126

> <PUBCHEM_COMPOUND_CANONICALIZED>
1

> <PUBCHEM_CACTVS_COMPLEXITY>
844

> <PUBCHEM_CACTVS_HBOND_ACCEPTOR>
5

> <PUBCHEM_CACTVS_HBOND_DONOR>
1

> <PUBCHEM_CACTVS_ROTATABLE_BOND>
9

> <PUBCHEM_CACTVS_SUBSKEYS>
AAADcfB7OABAAAAAAAAAAAAAAAAAAWAAAAAwYMGAAAAAAFjBUAAAHgQQAAAADSzBmASyBoPAAAKIAiFSEHCCAAAkIAAIiIEODMgIJjKAlROEMQhk1hGIiYeYyPCO4AABAAAQAADQAAaAACQAAAAAAAAAAA==

> <PUBCHEM_IUPAC_OPENEYE_NAME>
[(3aS,9bS)-3-[4-[(4-phenylbenzoyl)amino]butyl]-1,2,3a,4,5,9b-hexahydrobenzo[e]indol-7-yl] methanesulfonate

> <PUBCHEM_IUPAC_CAS_NAME>
methanesulfonic acid [(3aS,9bS)-3-[4-[[oxo-(4-phenylphenyl)methyl]amino]butyl]-1,2,3a,4,5,9b-hexahydrobenzo[e]indol-7-yl] ester

> <PUBCHEM_IUPAC_NAME_MARKUP>
[(3<I>a</I><I>S</I>,9<I>b</I><I>S</I>)-3-[4-[(4-phenylbenzoyl)amino]butyl]-1,2,3<I>a</I>,4,5,9<I>b</I>-hexahydrobenzo[e]indol-7-yl] methanesulfonate

> <PUBCHEM_IUPAC_NAME>
[(3aS,9bS)-3-[4-[(4-phenylbenzoyl)amino]butyl]-1,2,3a,4,5,9b-hexahydrobenzo[e]indol-7-yl] methanesulfonate

> <PUBCHEM_IUPAC_SYSTEMATIC_NAME>
[(3aS,9bS)-3-[4-[(4-phenylphenyl)carbonylamino]butyl]-1,2,3a,4,5,9b-hexahydrobenzo[e]indol-7-yl] methanesulfonate

> <PUBCHEM_IUPAC_TRADITIONAL_NAME>
methanesulfonic acid [(3aS,9bS)-3-[4-[(4-phenylbenzoyl)amino]butyl]-1,2,3a,4,5,9b-hexahydrobenz[e]indol-7-yl] ester

> <PUBCHEM_IUPAC_INCHI>
InChI=1S/C30H34N2O4S/c1-37(34,35)36-26-14-15-27-25(21-26)13-16-29-28(27)17-20-32(29)19-6-5-18-31-30(33)24-11-9-23(10-12-24)22-7-3-2-4-8-22/h2-4,7-12,14-15,21,28-29H,5-6,13,16-20H2,1H3,(H,31,33)/t28-,29-/m0/s1

> <PUBCHEM_IUPAC_INCHIKEY>
TWPGFOWTCCVBGS-VMPREFPWSA-N

> <PUBCHEM_XLOGP3_AA>
5.5

> <PUBCHEM_EXACT_MASS>
518.22392874

> <PUBCHEM_MOLECULAR_FORMULA>
C30H34N2O4S

> <PUBCHEM_MOLECULAR_WEIGHT>
518.7

> <PUBCHEM_OPENEYE_CAN_SMILES>
CS(=O)(=O)OC1=CC2=C(C=C1)C3CCN(C3CC2)CCCCNC(=O)C4=CC=C(C=C4)C5=CC=CC=C5

> <PUBCHEM_OPENEYE_ISO_SMILES>
CS(=O)(=O)OC1=CC2=C(C=C1)[C@@H]3CCN([C@H]3CC2)CCCCNC(=O)C4=CC=C(C=C4)C5=CC=CC=C5

> <PUBCHEM_CACTVS_TPSA>
84.1

> <PUBCHEM_MONOISOTOPIC_WEIGHT>
518.22392874

> <PUBCHEM_TOTAL_CHARGE>
0

> <PUBCHEM_HEAVY_ATOM_COUNT>
37

> <PUBCHEM_ATOM_DEF_STEREO_COUNT>
2

> <PUBCHEM_ATOM_UDEF_STEREO_COUNT>
0

> <PUBCHEM_BOND_DEF_STEREO_COUNT>
0

> <PUBCHEM_BOND_UDEF_STEREO_COUNT>
0

> <PUBCHEM_ISOTOPIC_ATOM_COUNT>
0

> <PUBCHEM_COMPONENT_COUNT>
1

> <PUBCHEM_CACTVS_TAUTO_COUNT>
-1

> <PUBCHEM_COORDINATE_TYPE>
1
5
255

> <PUBCHEM_BONDANNOTATIONS>
13  15  8
13  17  8
15  19  8
17  20  8
19  22  8
20  22  8
26  27  8
26  28  8
27  29  8
28  30  8
29  31  8
30  31  8
32  33  8
32  34  8
33  35  8
34  36  8
35  37  8
36  37  8
8  38  5
9  39  6

$$$$
