72191064
  -OEChem-09292322342D

 58 61  0     0  0  0  0  0  0999 V2000
    9.1813    6.8874    0.0000 Br  0  0  0  0  0  0  0  0  0  0  0  0
    2.8660   -4.8874    0.0000 O   0  0  0  0  0  0  0  0  0  0  0  0
    4.5981   -1.8874    0.0000 N   0  0  0  0  0  0  0  0  0  0  0  0
    4.5981   -3.8874    0.0000 N   0  0  0  0  0  0  0  0  0  0  0  0
    6.3301    2.1126    0.0000 N   0  0  0  0  0  0  0  0  0  0  0  0
    5.5211    2.7003    0.0000 N   0  0  0  0  0  0  0  0  0  0  0  0
    5.8301    3.6514    0.0000 N   0  0  0  0  0  0  0  0  0  0  0  0
    5.4641   -2.3874    0.0000 C   0  0  0  0  0  0  0  0  0  0  0  0
    3.7320   -2.3874    0.0000 C   0  0  0  0  0  0  0  0  0  0  0  0
    5.4641   -3.3874    0.0000 C   0  0  0  0  0  0  0  0  0  0  0  0
    3.7320   -3.3874    0.0000 C   0  0  0  0  0  0  0  0  0  0  0  0
    4.5981   -0.8875    0.0000 C   0  0  0  0  0  0  0  0  0  0  0  0
    5.4641   -0.3875    0.0000 C   0  0  0  0  0  0  0  0  0  0  0  0
    5.4641    0.6125    0.0000 C   0  0  0  0  0  0  0  0  0  0  0  0
    4.5981   -4.8874    0.0000 C   0  0  0  0  0  0  0  0  0  0  0  0
    6.3301    1.1126    0.0000 C   0  0  0  0  0  0  0  0  0  0  0  0
    3.7320   -5.3874    0.0000 C   0  0  0  0  0  0  0  0  0  0  0  0
    5.4641   -5.3874    0.0000 C   0  0  0  0  0  0  0  0  0  0  0  0
    3.7320   -6.3874    0.0000 C   0  0  0  0  0  0  0  0  0  0  0  0
    5.4641   -6.3874    0.0000 C   0  0  0  0  0  0  0  0  0  0  0  0
    4.5981   -6.8874    0.0000 C   0  0  0  0  0  0  0  0  0  0  0  0
    7.1391    2.7003    0.0000 C   0  0  0  0  0  0  0  0  0  0  0  0
    6.8301    3.6514    0.0000 C   0  0  0  0  0  0  0  0  0  0  0  0
    2.0000   -5.3874    0.0000 C   0  0  0  0  0  0  0  0  0  0  0  0
    7.4179    4.4604    0.0000 C   0  0  0  0  0  0  0  0  0  0  0  0
    8.4124    4.3559    0.0000 C   0  0  0  0  0  0  0  0  0  0  0  0
    7.0112    5.3740    0.0000 C   0  0  0  0  0  0  0  0  0  0  0  0
    9.0002    5.1649    0.0000 C   0  0  0  0  0  0  0  0  0  0  0  0
    7.5990    6.1830    0.0000 C   0  0  0  0  0  0  0  0  0  0  0  0
    8.5935    6.0784    0.0000 C   0  0  0  0  0  0  0  0  0  0  0  0
    6.0747   -2.4951    0.0000 H   0  0  0  0  0  0  0  0  0  0  0  0
    5.6762   -1.8048    0.0000 H   0  0  0  0  0  0  0  0  0  0  0  0
    3.5200   -1.8048    0.0000 H   0  0  0  0  0  0  0  0  0  0  0  0
    3.1215   -2.4951    0.0000 H   0  0  0  0  0  0  0  0  0  0  0  0
    5.6762   -3.9701    0.0000 H   0  0  0  0  0  0  0  0  0  0  0  0
    6.0747   -3.2798    0.0000 H   0  0  0  0  0  0  0  0  0  0  0  0
    3.1215   -3.2798    0.0000 H   0  0  0  0  0  0  0  0  0  0  0  0
    3.5200   -3.9701    0.0000 H   0  0  0  0  0  0  0  0  0  0  0  0
    4.3860   -0.3048    0.0000 H   0  0  0  0  0  0  0  0  0  0  0  0
    3.9875   -0.9951    0.0000 H   0  0  0  0  0  0  0  0  0  0  0  0
    5.6762   -0.9701    0.0000 H   0  0  0  0  0  0  0  0  0  0  0  0
    6.0747   -0.2798    0.0000 H   0  0  0  0  0  0  0  0  0  0  0  0
    5.2520    1.1952    0.0000 H   0  0  0  0  0  0  0  0  0  0  0  0
    4.8535    0.5049    0.0000 H   0  0  0  0  0  0  0  0  0  0  0  0
    6.5422    0.5299    0.0000 H   0  0  0  0  0  0  0  0  0  0  0  0
    6.9407    1.2202    0.0000 H   0  0  0  0  0  0  0  0  0  0  0  0
    6.0010   -5.0775    0.0000 H   0  0  0  0  0  0  0  0  0  0  0  0
    3.1951   -6.6974    0.0000 H   0  0  0  0  0  0  0  0  0  0  0  0
    6.0010   -6.6974    0.0000 H   0  0  0  0  0  0  0  0  0  0  0  0
    4.5981   -7.5074    0.0000 H   0  0  0  0  0  0  0  0  0  0  0  0
    7.7288    2.5087    0.0000 H   0  0  0  0  0  0  0  0  0  0  0  0
    1.6900   -4.8505    0.0000 H   0  0  0  0  0  0  0  0  0  0  0  0
    1.4631   -5.6974    0.0000 H   0  0  0  0  0  0  0  0  0  0  0  0
    2.3100   -5.9244    0.0000 H   0  0  0  0  0  0  0  0  0  0  0  0
    8.6646    3.7895    0.0000 H   0  0  0  0  0  0  0  0  0  0  0  0
    6.3946    5.4388    0.0000 H   0  0  0  0  0  0  0  0  0  0  0  0
    9.6168    5.1001    0.0000 H   0  0  0  0  0  0  0  0  0  0  0  0
    7.3468    6.7494    0.0000 H   0  0  0  0  0  0  0  0  0  0  0  0
  1 30  1  0  0  0  0
  2 17  1  0  0  0  0
  2 24  1  0  0  0  0
  3  8  1  0  0  0  0
  3  9  1  0  0  0  0
  3 12  1  0  0  0  0
  4 10  1  0  0  0  0
  4 11  1  0  0  0  0
  4 15  1  0  0  0  0
  5  6  1  0  0  0  0
  5 16  1  0  0  0  0
  5 22  1  0  0  0  0
  6  7  2  0  0  0  0
  7 23  1  0  0  0  0
  8 10  1  0  0  0  0
  8 31  1  0  0  0  0
  8 32  1  0  0  0  0
  9 11  1  0  0  0  0
  9 33  1  0  0  0  0
  9 34  1  0  0  0  0
 10 35  1  0  0  0  0
 10 36  1  0  0  0  0
 11 37  1  0  0  0  0
 11 38  1  0  0  0  0
 12 13  1  0  0  0  0
 12 39  1  0  0  0  0
 12 40  1  0  0  0  0
 13 14  1  0  0  0  0
 13 41  1  0  0  0  0
 13 42  1  0  0  0  0
 14 16  1  0  0  0  0
 14 43  1  0  0  0  0
 14 44  1  0  0  0  0
 15 17  1  0  0  0  0
 15 18  2  0  0  0  0
 16 45  1  0  0  0  0
 16 46  1  0  0  0  0
 17 19  2  0  0  0  0
 18 20  1  0  0  0  0
 18 47  1  0  0  0  0
 19 21  1  0  0  0  0
 19 48  1  0  0  0  0
 20 21  2  0  0  0  0
 20 49  1  0  0  0  0
 21 50  1  0  0  0  0
 22 23  2  0  0  0  0
 22 51  1  0  0  0  0
 23 25  1  0  0  0  0
 24 52  1  0  0  0  0
 24 53  1  0  0  0  0
 24 54  1  0  0  0  0
 25 26  2  0  0  0  0
 25 27  1  0  0  0  0
 26 28  1  0  0  0  0
 26 55  1  0  0  0  0
 27 29  2  0  0  0  0
 27 56  1  0  0  0  0
 28 30  2  0  0  0  0
 28 57  1  0  0  0  0
 29 30  1  0  0  0  0
 29 58  1  0  0  0  0
M  END
> <PUBCHEM_COMPOUND_CID>
72191064

> <PUBCHEM_COMPOUND_CANONICALIZED>
1

> <PUBCHEM_CACTVS_COMPLEXITY>
496

> <PUBCHEM_CACTVS_HBOND_ACCEPTOR>
5

> <PUBCHEM_CACTVS_HBOND_DONOR>
0

> <PUBCHEM_CACTVS_ROTATABLE_BOND>
8

> <PUBCHEM_CACTVS_SUBSKEYS>
AAADceB7oAAAEAAAAAAAAAAAAAAAAWAAAAA8YIAAAAAAAAAB0AAAHgBIAAABrAzBngY+xpMIBACiAzRnRACCDAQxsgQY2CA/fLgOZqLEsZuVMChkwBHY6heQwIAOAgAAAAAAEAAEAAAAAAAgAAAAAAAAAA==

> <PUBCHEM_IUPAC_OPENEYE_NAME>
1-[4-[4-(4-bromophenyl)triazol-1-yl]butyl]-4-(2-methoxyphenyl)piperazine

> <PUBCHEM_IUPAC_CAS_NAME>
1-[4-[4-(4-bromophenyl)-1-triazolyl]butyl]-4-(2-methoxyphenyl)piperazine

> <PUBCHEM_IUPAC_NAME_MARKUP>
1-[4-[4-(4-bromophenyl)triazol-1-yl]butyl]-4-(2-methoxyphenyl)piperazine

> <PUBCHEM_IUPAC_NAME>
1-[4-[4-(4-bromophenyl)triazol-1-yl]butyl]-4-(2-methoxyphenyl)piperazine

> <PUBCHEM_IUPAC_SYSTEMATIC_NAME>
1-[4-[4-(4-bromophenyl)-1,2,3-triazol-1-yl]butyl]-4-(2-methoxyphenyl)piperazine

> <PUBCHEM_IUPAC_TRADITIONAL_NAME>
1-[4-[4-(4-bromophenyl)triazol-1-yl]butyl]-4-(2-methoxyphenyl)piperazine

> <PUBCHEM_IUPAC_INCHI>
InChI=1S/C23H28BrN5O/c1-30-23-7-3-2-6-22(23)28-16-14-27(15-17-28)12-4-5-13-29-18-21(25-26-29)19-8-10-20(24)11-9-19/h2-3,6-11,18H,4-5,12-17H2,1H3

> <PUBCHEM_IUPAC_INCHIKEY>
JVNXUQVOPMMEKB-UHFFFAOYSA-N

> <PUBCHEM_XLOGP3_AA>
4.3

> <PUBCHEM_EXACT_MASS>
469.14772

> <PUBCHEM_MOLECULAR_FORMULA>
C23H28BrN5O

> <PUBCHEM_MOLECULAR_WEIGHT>
470.4

> <PUBCHEM_OPENEYE_CAN_SMILES>
COC1=CC=CC=C1N2CCN(CC2)CCCCN3C=C(N=N3)C4=CC=C(C=C4)Br

> <PUBCHEM_OPENEYE_ISO_SMILES>
COC1=CC=CC=C1N2CCN(CC2)CCCCN3C=C(N=N3)C4=CC=C(C=C4)Br

> <PUBCHEM_CACTVS_TPSA>
46.4

> <PUBCHEM_MONOISOTOPIC_WEIGHT>
469.14772

> <PUBCHEM_TOTAL_CHARGE>
0

> <PUBCHEM_HEAVY_ATOM_COUNT>
30

> <PUBCHEM_ATOM_DEF_STEREO_COUNT>
0

> <PUBCHEM_ATOM_UDEF_STEREO_COUNT>
0

> <PUBCHEM_BOND_DEF_STEREO_COUNT>
0

> <PUBCHEM_BOND_UDEF_STEREO_COUNT>
0

> <PUBCHEM_ISOTOPIC_ATOM_COUNT>
0

> <PUBCHEM_COMPONENT_COUNT>
1

> <PUBCHEM_CACTVS_TAUTO_COUNT>
-1

> <PUBCHEM_COORDINATE_TYPE>
1
5
255

> <PUBCHEM_BONDANNOTATIONS>
15  17  8
15  18  8
17  19  8
18  20  8
19  21  8
20  21  8
22  23  8
25  26  8
25  27  8
26  28  8
27  29  8
28  30  8
29  30  8
5  22  8
5  6  8
6  7  8
7  23  8

$$$$
