10333837
  -OEChem-09292322132D

 42 45  0     1  0  0  0  0  0999 V2000
    3.7817    1.7484    0.0000 O   0  0  0  0  0  0  0  0  0  0  0  0
    7.2544   -1.2831    0.0000 N   0  0  3  0  0  0  0  0  0  0  0  0
    6.3961   -0.7862    0.0000 C   0  0  1  0  0  0  0  0  0  0  0  0
    6.3961    0.2138    0.0000 C   0  0  0  0  0  0  0  0  0  0  0  0
    5.5301   -1.2862    0.0000 C   0  0  0  0  0  0  0  0  0  0  0  0
    7.3062    0.7207    0.0000 C   0  0  0  0  0  0  0  0  0  0  0  0
    8.1198   -0.7989    0.0000 C   0  0  0  0  0  0  0  0  0  0  0  0
    5.5301    0.7138    0.0000 C   0  0  0  0  0  0  0  0  0  0  0  0
    8.1455    0.1924    0.0000 C   0  0  0  0  0  0  0  0  0  0  0  0
    4.6641   -0.7862    0.0000 C   0  0  0  0  0  0  0  0  0  0  0  0
    4.6641    0.2138    0.0000 C   0  0  0  0  0  0  0  0  0  0  0  0
    7.2470   -2.2831    0.0000 C   0  0  0  0  0  0  0  0  0  0  0  0
    7.3142    1.7623    0.0000 C   0  0  0  0  0  0  0  0  0  0  0  0
    5.5141    1.7553    0.0000 C   0  0  0  0  0  0  0  0  0  0  0  0
    3.7702    0.7485    0.0000 C   0  0  0  0  0  0  0  0  0  0  0  0
    3.7702   -1.3208    0.0000 C   0  0  0  0  0  0  0  0  0  0  0  0
    6.4121    2.2831    0.0000 C   0  0  0  0  0  0  0  0  0  0  0  0
    2.8641    0.2346    0.0000 C   0  0  0  0  0  0  0  0  0  0  0  0
    2.8641   -0.8070    0.0000 C   0  0  0  0  0  0  0  0  0  0  0  0
    2.0000    0.7380    0.0000 C   0  0  0  0  0  0  0  0  0  0  0  0
    2.9215    2.2584    0.0000 C   0  0  0  0  0  0  0  0  0  0  0  0
    6.3956   -1.6362    0.0000 H   0  0  0  0  0  0  0  0  0  0  0  0
    5.1316   -1.7611    0.0000 H   0  0  0  0  0  0  0  0  0  0  0  0
    5.9286   -1.7611    0.0000 H   0  0  0  0  0  0  0  0  0  0  0  0
    8.3216   -1.3852    0.0000 H   0  0  0  0  0  0  0  0  0  0  0  0
    8.7326   -0.7046    0.0000 H   0  0  0  0  0  0  0  0  0  0  0  0
    8.7526    0.0665    0.0000 H   0  0  0  0  0  0  0  0  0  0  0  0
    8.3772    0.7675    0.0000 H   0  0  0  0  0  0  0  0  0  0  0  0
    6.6270   -2.2785    0.0000 H   0  0  0  0  0  0  0  0  0  0  0  0
    7.2424   -2.9031    0.0000 H   0  0  0  0  0  0  0  0  0  0  0  0
    7.8670   -2.2877    0.0000 H   0  0  0  0  0  0  0  0  0  0  0  0
    7.8523    2.0702    0.0000 H   0  0  0  0  0  0  0  0  0  0  0  0
    4.9736    2.0591    0.0000 H   0  0  0  0  0  0  0  0  0  0  0  0
    3.7773   -1.9408    0.0000 H   0  0  0  0  0  0  0  0  0  0  0  0
    6.4097    2.9031    0.0000 H   0  0  0  0  0  0  0  0  0  0  0  0
    2.3284   -1.1191    0.0000 H   0  0  0  0  0  0  0  0  0  0  0  0
    2.3121    1.2737    0.0000 H   0  0  0  0  0  0  0  0  0  0  0  0
    1.4643    1.0500    0.0000 H   0  0  0  0  0  0  0  0  0  0  0  0
    1.6879    0.2022    0.0000 H   0  0  0  0  0  0  0  0  0  0  0  0
    3.2377    2.7917    0.0000 H   0  0  0  0  0  0  0  0  0  0  0  0
    2.3882    2.5746    0.0000 H   0  0  0  0  0  0  0  0  0  0  0  0
    2.6054    1.7251    0.0000 H   0  0  0  0  0  0  0  0  0  0  0  0
  1 15  1  0  0  0  0
  1 21  1  0  0  0  0
  2  3  1  0  0  0  0
  2  7  1  0  0  0  0
  2 12  1  0  0  0  0
  3  4  1  0  0  0  0
  3  5  1  0  0  0  0
  3 22  1  1  0  0  0
  4  6  2  0  0  0  0
  4  8  1  0  0  0  0
  5 10  1  0  0  0  0
  5 23  1  0  0  0  0
  5 24  1  0  0  0  0
  6  9  1  0  0  0  0
  6 13  1  0  0  0  0
  7  9  1  0  0  0  0
  7 25  1  0  0  0  0
  7 26  1  0  0  0  0
  8 11  1  0  0  0  0
  8 14  2  0  0  0  0
  9 27  1  0  0  0  0
  9 28  1  0  0  0  0
 10 11  2  0  0  0  0
 10 16  1  0  0  0  0
 11 15  1  0  0  0  0
 12 29  1  0  0  0  0
 12 30  1  0  0  0  0
 12 31  1  0  0  0  0
 13 17  2  0  0  0  0
 13 32  1  0  0  0  0
 14 17  1  0  0  0  0
 14 33  1  0  0  0  0
 15 18  2  0  0  0  0
 16 19  2  0  0  0  0
 16 34  1  0  0  0  0
 17 35  1  0  0  0  0
 18 19  1  0  0  0  0
 18 20  1  0  0  0  0
 19 36  1  0  0  0  0
 20 37  1  0  0  0  0
 20 38  1  0  0  0  0
 20 39  1  0  0  0  0
 21 40  1  0  0  0  0
 21 41  1  0  0  0  0
 21 42  1  0  0  0  0
M  END
> <PUBCHEM_COMPOUND_CID>
10333837

> <PUBCHEM_COMPOUND_CANONICALIZED>
1

> <PUBCHEM_CACTVS_COMPLEXITY>
384

> <PUBCHEM_CACTVS_HBOND_ACCEPTOR>
2

> <PUBCHEM_CACTVS_HBOND_DONOR>
0

> <PUBCHEM_CACTVS_ROTATABLE_BOND>
1

> <PUBCHEM_CACTVS_SUBSKEYS>
AAADceB6IAAAAAAAAAAAAAAAAAAAAAAAAAA8YMEAAAAAAADxQAAAHgAAAAAADCzBmAYyBoMABACAAiBCAACCCAAgIAAIiAAMDIgMJiKEsRuEMChkwBGIqAeQ0PMOwAADAAAYAACQAAaAADQAAAAAAAAAAA==

> <PUBCHEM_IUPAC_OPENEYE_NAME>
(6aR)-11-methoxy-6,10-dimethyl-5,6,6a,7-tetrahydro-4H-dibenzo[de,g]quinoline

> <PUBCHEM_IUPAC_CAS_NAME>
(6aR)-11-methoxy-6,10-dimethyl-5,6,6a,7-tetrahydro-4H-dibenzo[de,g]quinoline

> <PUBCHEM_IUPAC_NAME_MARKUP>
(6<I>a</I><I>R</I>)-11-methoxy-6,10-dimethyl-5,6,6<I>a</I>,7-tetrahydro-4<I>H</I>-dibenzo[de,g]quinoline

> <PUBCHEM_IUPAC_NAME>
(6aR)-11-methoxy-6,10-dimethyl-5,6,6a,7-tetrahydro-4H-dibenzo[de,g]quinoline

> <PUBCHEM_IUPAC_SYSTEMATIC_NAME>
(6aR)-11-methoxy-6,10-dimethyl-5,6,6a,7-tetrahydro-4H-dibenzo[de,g]quinoline

> <PUBCHEM_IUPAC_TRADITIONAL_NAME>
(6aR)-11-methoxy-6,10-dimethyl-5,6,6a,7-tetrahydro-4H-dibenzo[de,g]quinoline

> <PUBCHEM_IUPAC_INCHI>
InChI=1S/C19H21NO/c1-12-7-8-14-11-16-17-13(9-10-20(16)2)5-4-6-15(17)18(14)19(12)21-3/h4-8,16H,9-11H2,1-3H3/t16-/m1/s1

> <PUBCHEM_IUPAC_INCHIKEY>
AERBGYMOICIFRM-MRXNPFEDSA-N

> <PUBCHEM_XLOGP3>
3.3

> <PUBCHEM_EXACT_MASS>
279.162314293

> <PUBCHEM_MOLECULAR_FORMULA>
C19H21NO

> <PUBCHEM_MOLECULAR_WEIGHT>
279.4

> <PUBCHEM_OPENEYE_CAN_SMILES>
CC1=C(C2=C(CC3C4=C(CCN3C)C=CC=C42)C=C1)OC

> <PUBCHEM_OPENEYE_ISO_SMILES>
CC1=C(C2=C(C[C@@H]3C4=C(CCN3C)C=CC=C42)C=C1)OC

> <PUBCHEM_CACTVS_TPSA>
12.5

> <PUBCHEM_MONOISOTOPIC_WEIGHT>
279.162314293

> <PUBCHEM_TOTAL_CHARGE>
0

> <PUBCHEM_HEAVY_ATOM_COUNT>
21

> <PUBCHEM_ATOM_DEF_STEREO_COUNT>
1

> <PUBCHEM_ATOM_UDEF_STEREO_COUNT>
0

> <PUBCHEM_BOND_DEF_STEREO_COUNT>
0

> <PUBCHEM_BOND_UDEF_STEREO_COUNT>
0

> <PUBCHEM_ISOTOPIC_ATOM_COUNT>
0

> <PUBCHEM_COMPONENT_COUNT>
1

> <PUBCHEM_CACTVS_TAUTO_COUNT>
-1

> <PUBCHEM_COORDINATE_TYPE>
1
5
255

> <PUBCHEM_BONDANNOTATIONS>
10  11  8
10  16  8
11  15  8
13  17  8
14  17  8
15  18  8
16  19  8
18  19  8
3  22  5
4  6  8
4  8  8
6  13  8
8  14  8

$$$$
