45260648
  -OEChem-09292322202D

 50 52  0     0  0  0  0  0  0999 V2000
    5.4474    0.0000    0.0000 Cl  0  0  0  0  0  0  0  0  0  0  0  0
   11.8949    7.6201    0.0000 F   0  0  0  0  0  0  0  0  0  0  0  0
    7.7078    3.9600    0.0000 O   0  0  0  0  0  0  0  0  0  0  0  0
    7.3988    6.5291    0.0000 O   0  0  0  0  0  0  0  0  0  0  0  0
    5.1200    4.7690    0.0000 N   0  0  0  0  0  0  0  0  0  0  0  0
    7.1200    4.7690    0.0000 C   0  0  0  0  0  0  0  0  0  0  0  0
    6.6200    5.6350    0.0000 C   0  0  0  0  0  0  0  0  0  0  0  0
    6.6200    3.9030    0.0000 C   0  0  0  0  0  0  0  0  0  0  0  0
    5.6200    5.6350    0.0000 C   0  0  0  0  0  0  0  0  0  0  0  0
    5.6200    3.9030    0.0000 C   0  0  0  0  0  0  0  0  0  0  0  0
    7.7078    5.5780    0.0000 C   0  0  0  0  0  0  0  0  0  0  0  0
    4.1200    4.7690    0.0000 C   0  0  0  0  0  0  0  0  0  0  0  0
    8.6588    5.2690    0.0000 C   0  0  0  0  0  0  0  0  0  0  0  0
    8.6588    4.2690    0.0000 C   0  0  0  0  0  0  0  0  0  0  0  0
    3.6200    3.9030    0.0000 C   0  0  0  0  0  0  0  0  0  0  0  0
    9.4679    5.8568    0.0000 C   0  0  0  0  0  0  0  0  0  0  0  0
    2.6200    3.9030    0.0000 C   0  0  0  0  0  0  0  0  0  0  0  0
    9.3633    6.8513    0.0000 C   0  0  0  0  0  0  0  0  0  0  0  0
   10.3814    5.4500    0.0000 C   0  0  0  0  0  0  0  0  0  0  0  0
    2.1200    3.0369    0.0000 C   0  0  0  0  0  0  0  0  0  0  0  0
    2.1200    4.7690    0.0000 C   0  0  0  0  0  0  0  0  0  0  0  0
   10.1723    7.4391    0.0000 C   0  0  0  0  0  0  0  0  0  0  0  0
   11.1904    6.0378    0.0000 C   0  0  0  0  0  0  0  0  0  0  0  0
    1.1200    3.0369    0.0000 C   0  0  0  0  0  0  0  0  0  0  0  0
    1.1200    4.7690    0.0000 C   0  0  0  0  0  0  0  0  0  0  0  0
   11.0859    7.0323    0.0000 C   0  0  0  0  0  0  0  0  0  0  0  0
    0.6200    3.9030    0.0000 C   0  0  0  0  0  0  0  0  0  0  0  0
    7.2026    5.8471    0.0000 H   0  0  0  0  0  0  0  0  0  0  0  0
    6.5123    6.2456    0.0000 H   0  0  0  0  0  0  0  0  0  0  0  0
    6.5123    3.2924    0.0000 H   0  0  0  0  0  0  0  0  0  0  0  0
    7.2026    3.6909    0.0000 H   0  0  0  0  0  0  0  0  0  0  0  0
    5.7277    6.2456    0.0000 H   0  0  0  0  0  0  0  0  0  0  0  0
    5.0374    5.8471    0.0000 H   0  0  0  0  0  0  0  0  0  0  0  0
    5.0374    3.6909    0.0000 H   0  0  0  0  0  0  0  0  0  0  0  0
    5.7277    3.2924    0.0000 H   0  0  0  0  0  0  0  0  0  0  0  0
    4.2277    5.3796    0.0000 H   0  0  0  0  0  0  0  0  0  0  0  0
    3.5374    4.9810    0.0000 H   0  0  0  0  0  0  0  0  0  0  0  0
    9.1604    3.9046    0.0000 H   0  0  0  0  0  0  0  0  0  0  0  0
    3.5123    3.2924    0.0000 H   0  0  0  0  0  0  0  0  0  0  0  0
    4.2026    3.6909    0.0000 H   0  0  0  0  0  0  0  0  0  0  0  0
    8.7969    7.1035    0.0000 H   0  0  0  0  0  0  0  0  0  0  0  0
   10.4462    4.8334    0.0000 H   0  0  0  0  0  0  0  0  0  0  0  0
    2.4300    2.5000    0.0000 H   0  0  0  0  0  0  0  0  0  0  0  0
    2.4300    5.3059    0.0000 H   0  0  0  0  0  0  0  0  0  0  0  0
   10.1075    8.0557    0.0000 H   0  0  0  0  0  0  0  0  0  0  0  0
   11.7568    5.7856    0.0000 H   0  0  0  0  0  0  0  0  0  0  0  0
    0.8100    2.5000    0.0000 H   0  0  0  0  0  0  0  0  0  0  0  0
    0.8100    5.3059    0.0000 H   0  0  0  0  0  0  0  0  0  0  0  0
    0.0000    3.9030    0.0000 H   0  0  0  0  0  0  0  0  0  0  0  0
    6.4474    0.0000    0.0000 H   0  0  0  0  0  0  0  0  0  0  0  0
  1 50  1  0  0  0  0
  2 26  1  0  0  0  0
  3  6  1  0  0  0  0
  3 14  1  0  0  0  0
  4 11  2  0  0  0  0
  5  9  1  0  0  0  0
  5 10  1  0  0  0  0
  5 12  1  0  0  0  0
  6  7  1  0  0  0  0
  6  8  1  0  0  0  0
  6 11  1  0  0  0  0
  7  9  1  0  0  0  0
  7 28  1  0  0  0  0
  7 29  1  0  0  0  0
  8 10  1  0  0  0  0
  8 30  1  0  0  0  0
  8 31  1  0  0  0  0
  9 32  1  0  0  0  0
  9 33  1  0  0  0  0
 10 34  1  0  0  0  0
 10 35  1  0  0  0  0
 11 13  1  0  0  0  0
 12 15  1  0  0  0  0
 12 36  1  0  0  0  0
 12 37  1  0  0  0  0
 13 14  2  0  0  0  0
 13 16  1  0  0  0  0
 14 38  1  0  0  0  0
 15 17  1  0  0  0  0
 15 39  1  0  0  0  0
 15 40  1  0  0  0  0
 16 18  2  0  0  0  0
 16 19  1  0  0  0  0
 17 20  2  0  0  0  0
 17 21  1  0  0  0  0
 18 22  1  0  0  0  0
 18 41  1  0  0  0  0
 19 23  2  0  0  0  0
 19 42  1  0  0  0  0
 20 24  1  0  0  0  0
 20 43  1  0  0  0  0
 21 25  2  0  0  0  0
 21 44  1  0  0  0  0
 22 26  2  0  0  0  0
 22 45  1  0  0  0  0
 23 26  1  0  0  0  0
 23 46  1  0  0  0  0
 24 27  2  0  0  0  0
 24 47  1  0  0  0  0
 25 27  1  0  0  0  0
 25 48  1  0  0  0  0
 27 49  1  0  0  0  0
M  END
> <PUBCHEM_COMPOUND_CID>
45260648

> <PUBCHEM_COMPOUND_CANONICALIZED>
1

> <PUBCHEM_CACTVS_COMPLEXITY>
524

> <PUBCHEM_CACTVS_HBOND_ACCEPTOR>
4

> <PUBCHEM_CACTVS_HBOND_DONOR>
1

> <PUBCHEM_CACTVS_ROTATABLE_BOND>
4

> <PUBCHEM_CACTVS_SUBSKEYS>
AAADceB6MQAEAAAAAAAAAAAAAAAAAQAAAAA8YIAAAAAAAAABQAAAHwAAAAAADEThmA4wAIMABACIAqBSAAICCAAgIAAIiAFIAMgIIDKAlRWEIAAmwACIiIecyOCOAAAAAAAAAAAAAAAAAAAAAAAAAAAAAA==

> <PUBCHEM_IUPAC_OPENEYE_NAME>
3-(4-fluorophenyl)-8-(2-phenylethyl)-1-oxa-8-azaspiro[4.5]dec-2-en-4-one;hydrochloride

> <PUBCHEM_IUPAC_CAS_NAME>
3-(4-fluorophenyl)-8-(2-phenylethyl)-1-oxa-8-azaspiro[4.5]dec-2-en-4-one;hydrochloride

> <PUBCHEM_IUPAC_NAME_MARKUP>
3-(4-fluorophenyl)-8-(2-phenylethyl)-1-oxa-8-azaspiro[4.5]dec-2-en-4-one;hydrochloride

> <PUBCHEM_IUPAC_NAME>
3-(4-fluorophenyl)-8-(2-phenylethyl)-1-oxa-8-azaspiro[4.5]dec-2-en-4-one;hydrochloride

> <PUBCHEM_IUPAC_SYSTEMATIC_NAME>
3-(4-fluorophenyl)-8-(2-phenylethyl)-1-oxa-8-azaspiro[4.5]dec-2-en-4-one;hydrochloride

> <PUBCHEM_IUPAC_TRADITIONAL_NAME>
3-(4-fluorophenyl)-8-phenethyl-1-oxa-8-azaspiro[4.5]dec-2-en-4-one;hydrochloride

> <PUBCHEM_IUPAC_INCHI>
InChI=1S/C22H22FNO2.ClH/c23-19-8-6-18(7-9-19)20-16-26-22(21(20)25)11-14-24(15-12-22)13-10-17-4-2-1-3-5-17;/h1-9,16H,10-15H2;1H

> <PUBCHEM_IUPAC_INCHIKEY>
VZASWTABWAXFHY-UHFFFAOYSA-N

> <PUBCHEM_EXACT_MASS>
387.1401348

> <PUBCHEM_MOLECULAR_FORMULA>
C22H23ClFNO2

> <PUBCHEM_MOLECULAR_WEIGHT>
387.9

> <PUBCHEM_OPENEYE_CAN_SMILES>
C1CN(CCC12C(=O)C(=CO2)C3=CC=C(C=C3)F)CCC4=CC=CC=C4.Cl

> <PUBCHEM_OPENEYE_ISO_SMILES>
C1CN(CCC12C(=O)C(=CO2)C3=CC=C(C=C3)F)CCC4=CC=CC=C4.Cl

> <PUBCHEM_CACTVS_TPSA>
29.5

> <PUBCHEM_MONOISOTOPIC_WEIGHT>
387.1401348

> <PUBCHEM_TOTAL_CHARGE>
0

> <PUBCHEM_HEAVY_ATOM_COUNT>
27

> <PUBCHEM_ATOM_DEF_STEREO_COUNT>
0

> <PUBCHEM_ATOM_UDEF_STEREO_COUNT>
0

> <PUBCHEM_BOND_DEF_STEREO_COUNT>
0

> <PUBCHEM_BOND_UDEF_STEREO_COUNT>
0

> <PUBCHEM_ISOTOPIC_ATOM_COUNT>
0

> <PUBCHEM_COMPONENT_COUNT>
2

> <PUBCHEM_CACTVS_TAUTO_COUNT>
-1

> <PUBCHEM_COORDINATE_TYPE>
1
5
255

> <PUBCHEM_BONDANNOTATIONS>
16  18  8
16  19  8
17  20  8
17  21  8
18  22  8
19  23  8
20  24  8
21  25  8
22  26  8
23  26  8
24  27  8
25  27  8

$$$$
