145985945
  -OEChem-09292322392D

135140  0     1  0  0  0  0  0999 V2000
   14.4064   13.6582    0.0000 S   0  0  0  0  0  0  0  0  0  0  0  0
    7.1962  -14.6480    0.0000 O   0  0  0  0  0  0  0  0  0  0  0  0
    4.5981   -7.1480    0.0000 O   0  0  0  0  0  0  0  0  0  0  0  0
    2.8660   -8.1480    0.0000 O   0  0  0  0  0  0  0  0  0  0  0  0
    6.5990   11.4984    0.0000 O   0  0  0  0  0  0  0  0  0  0  0  0
    7.7746   13.1164    0.0000 O   0  0  0  0  0  0  0  0  0  0  0  0
    5.4641  -11.6480    0.0000 N   0  0  0  0  0  0  0  0  0  0  0  0
    7.1962  -12.6480    0.0000 N   0  0  0  0  0  0  0  0  0  0  0  0
    7.4571    5.3126    0.0000 N   0  0  3  0  0  0  0  0  0  0  0  0
    5.9641   -4.1092    0.0000 N   0  0  0  0  0  0  0  0  0  0  0  0
    8.0003   10.4803    0.0000 N   0  0  0  0  0  0  0  0  0  0  0  0
    4.9641   -4.1092    0.0000 N   0  0  0  0  0  0  0  0  0  0  0  0
    4.6551   -5.0602    0.0000 N   0  0  0  0  0  0  0  0  0  0  0  0
    8.5434   15.6480    0.0000 N   0  0  0  0  0  0  0  0  0  0  0  0
   13.5974   15.0595    0.0000 N   0  0  0  0  0  0  0  0  0  0  0  0
    5.4641  -12.6480    0.0000 C   0  0  0  0  0  0  0  0  0  0  0  0
    6.3301  -11.1480    0.0000 C   0  0  0  0  0  0  0  0  0  0  0  0
    6.3301  -13.1480    0.0000 C   0  0  0  0  0  0  0  0  0  0  0  0
    7.1962  -11.6480    0.0000 C   0  0  0  0  0  0  0  0  0  0  0  0
    4.5981  -11.1480    0.0000 C   0  0  0  0  0  0  0  0  0  0  0  0
    8.0622  -13.1480    0.0000 C   0  0  0  0  0  0  0  0  0  0  0  0
    7.0950    1.8675    0.0000 C   0  0  0  0  0  0  0  0  0  0  0  0
    6.5072    1.0585    0.0000 C   0  0  0  0  0  0  0  0  0  0  0  0
    6.6883    2.7811    0.0000 C   0  0  0  0  0  0  0  0  0  0  0  0
    4.5981  -10.1480    0.0000 C   0  0  0  0  0  0  0  0  0  0  0  0
    6.9140    0.1450    0.0000 C   0  0  0  0  0  0  0  0  0  0  0  0
    7.2761    3.5901    0.0000 C   0  0  0  0  0  0  0  0  0  0  0  0
    6.3262   -0.6641    0.0000 C   0  0  0  0  0  0  0  0  0  0  0  0
    6.8693    4.5036    0.0000 C   0  0  0  0  0  0  0  0  0  0  0  0
    6.7329   -1.5776    0.0000 C   0  0  0  0  0  0  0  0  0  0  0  0
    8.0622  -14.1480    0.0000 C   0  0  0  0  0  0  0  0  0  0  0  0
    7.0504    6.2262    0.0000 C   0  0  0  0  0  0  0  0  0  0  0  0
    8.9282  -12.6480    0.0000 C   0  0  0  0  0  0  0  0  0  0  0  0
    7.6382    7.0352    0.0000 C   0  0  0  0  0  0  0  0  0  0  0  0
    6.1452   -2.3866    0.0000 C   0  0  0  0  0  0  0  0  0  0  0  0
    3.7320   -9.6480    0.0000 C   0  0  0  0  0  0  0  0  0  0  0  0
    5.4641   -9.6480    0.0000 C   0  0  0  0  0  0  0  0  0  0  0  0
    7.2314    7.9488    0.0000 C   0  0  0  0  0  0  0  0  0  0  0  0
    6.5519   -3.3002    0.0000 C   0  0  0  0  0  0  0  0  0  0  0  0
    8.9282  -14.6480    0.0000 C   0  0  0  0  0  0  0  0  0  0  0  0
    8.4517    5.2081    0.0000 C   0  0  0  0  0  0  0  0  0  0  0  0
    9.7942  -13.1480    0.0000 C   0  0  0  0  0  0  0  0  0  0  0  0
    7.8192    8.7578    0.0000 C   0  0  0  0  0  0  0  0  0  0  0  0
    3.7320   -8.6480    0.0000 C   0  0  0  0  0  0  0  0  0  0  0  0
    5.4641   -8.6480    0.0000 C   0  0  0  0  0  0  0  0  0  0  0  0
    4.5981   -8.1480    0.0000 C   0  0  0  0  0  0  0  0  0  0  0  0
    9.7942  -14.1480    0.0000 C   0  0  0  0  0  0  0  0  0  0  0  0
    7.4125    9.6713    0.0000 C   0  0  0  0  0  0  0  0  0  0  0  0
    6.2731   -5.0602    0.0000 C   0  0  0  0  0  0  0  0  0  0  0  0
    5.4641   -6.6480    0.0000 C   0  0  0  0  0  0  0  0  0  0  0  0
    5.4641   -5.6480    0.0000 C   0  0  0  0  0  0  0  0  0  0  0  0
    7.1962  -15.6480    0.0000 C   0  0  0  0  0  0  0  0  0  0  0  0
    2.0000   -8.6480    0.0000 C   0  0  0  0  0  0  0  0  0  0  0  0
    7.5935   11.3939    0.0000 C   0  0  0  0  0  0  0  0  0  0  0  0
    8.1813   12.2029    0.0000 C   0  0  0  0  0  0  0  0  0  0  0  0
    8.3624   13.9255    0.0000 C   0  0  0  0  0  0  0  0  0  0  0  0
    9.3569   13.8209    0.0000 C   0  0  0  0  0  0  0  0  0  0  0  0
    7.9556   14.8390    0.0000 C   0  0  0  0  0  0  0  0  0  0  0  0
    9.9447   14.6299    0.0000 C   0  0  0  0  0  0  0  0  0  0  0  0
    9.5379   15.5435    0.0000 C   0  0  0  0  0  0  0  0  0  0  0  0
   10.9392   14.5254    0.0000 C   0  0  0  0  0  0  0  0  0  0  0  0
   11.9337   14.4209    0.0000 C   0  0  0  0  0  0  0  0  0  0  0  0
   12.9282   14.3164    0.0000 C   0  0  0  0  0  0  0  0  0  0  0  0
   13.4282   13.4503    0.0000 C   0  0  0  0  0  0  0  0  0  0  0  0
   14.5109   14.6528    0.0000 C   0  0  0  0  0  0  0  0  0  0  0  0
   15.3769   15.1528    0.0000 C   0  0  0  0  0  0  0  0  0  0  0  0
    4.8535  -12.5404    0.0000 H   0  0  0  0  0  0  0  0  0  0  0  0
    5.2520  -13.2306    0.0000 H   0  0  0  0  0  0  0  0  0  0  0  0
    6.7287  -10.6731    0.0000 H   0  0  0  0  0  0  0  0  0  0  0  0
    5.9316  -10.6731    0.0000 H   0  0  0  0  0  0  0  0  0  0  0  0
    5.9316  -13.6230    0.0000 H   0  0  0  0  0  0  0  0  0  0  0  0
    6.7287  -13.6230    0.0000 H   0  0  0  0  0  0  0  0  0  0  0  0
    7.8067  -11.7557    0.0000 H   0  0  0  0  0  0  0  0  0  0  0  0
    7.4082  -11.0654    0.0000 H   0  0  0  0  0  0  0  0  0  0  0  0
    3.9875  -11.0404    0.0000 H   0  0  0  0  0  0  0  0  0  0  0  0
    4.3860  -11.7306    0.0000 H   0  0  0  0  0  0  0  0  0  0  0  0
    7.5257    1.4215    0.0000 H   0  0  0  0  0  0  0  0  0  0  0  0
    7.6090    2.2142    0.0000 H   0  0  0  0  0  0  0  0  0  0  0  0
    6.0766    1.5045    0.0000 H   0  0  0  0  0  0  0  0  0  0  0  0
    5.9932    0.7118    0.0000 H   0  0  0  0  0  0  0  0  0  0  0  0
    6.2576    3.2271    0.0000 H   0  0  0  0  0  0  0  0  0  0  0  0
    6.1743    2.4344    0.0000 H   0  0  0  0  0  0  0  0  0  0  0  0
    7.3447   -0.3010    0.0000 H   0  0  0  0  0  0  0  0  0  0  0  0
    7.4280    0.4917    0.0000 H   0  0  0  0  0  0  0  0  0  0  0  0
    7.7068    3.1441    0.0000 H   0  0  0  0  0  0  0  0  0  0  0  0
    7.7901    3.9368    0.0000 H   0  0  0  0  0  0  0  0  0  0  0  0
    5.8955   -0.2181    0.0000 H   0  0  0  0  0  0  0  0  0  0  0  0
    5.8122   -1.0108    0.0000 H   0  0  0  0  0  0  0  0  0  0  0  0
    6.4387    4.9496    0.0000 H   0  0  0  0  0  0  0  0  0  0  0  0
    6.3553    4.1569    0.0000 H   0  0  0  0  0  0  0  0  0  0  0  0
    7.1636   -2.0236    0.0000 H   0  0  0  0  0  0  0  0  0  0  0  0
    7.2469   -1.2309    0.0000 H   0  0  0  0  0  0  0  0  0  0  0  0
    6.6197    6.6722    0.0000 H   0  0  0  0  0  0  0  0  0  0  0  0
    6.5364    5.8795    0.0000 H   0  0  0  0  0  0  0  0  0  0  0  0
    8.9282  -12.0280    0.0000 H   0  0  0  0  0  0  0  0  0  0  0  0
    8.0689    6.5892    0.0000 H   0  0  0  0  0  0  0  0  0  0  0  0
    8.1522    7.3819    0.0000 H   0  0  0  0  0  0  0  0  0  0  0  0
    5.7145   -1.9406    0.0000 H   0  0  0  0  0  0  0  0  0  0  0  0
    5.6312   -2.7333    0.0000 H   0  0  0  0  0  0  0  0  0  0  0  0
    3.1951   -9.9580    0.0000 H   0  0  0  0  0  0  0  0  0  0  0  0
    6.0010   -9.9580    0.0000 H   0  0  0  0  0  0  0  0  0  0  0  0
    6.8008    8.3948    0.0000 H   0  0  0  0  0  0  0  0  0  0  0  0
    6.7174    7.6021    0.0000 H   0  0  0  0  0  0  0  0  0  0  0  0
    6.9826   -3.7462    0.0000 H   0  0  0  0  0  0  0  0  0  0  0  0
    7.0659   -2.9535    0.0000 H   0  0  0  0  0  0  0  0  0  0  0  0
    8.9282  -15.2680    0.0000 H   0  0  0  0  0  0  0  0  0  0  0  0
    8.3868    4.5915    0.0000 H   0  0  0  0  0  0  0  0  0  0  0  0
    9.0683    5.1433    0.0000 H   0  0  0  0  0  0  0  0  0  0  0  0
    8.5165    5.8247    0.0000 H   0  0  0  0  0  0  0  0  0  0  0  0
   10.3312  -12.8380    0.0000 H   0  0  0  0  0  0  0  0  0  0  0  0
    8.2499    8.3118    0.0000 H   0  0  0  0  0  0  0  0  0  0  0  0
    8.3332    9.1045    0.0000 H   0  0  0  0  0  0  0  0  0  0  0  0
    6.0010   -8.3380    0.0000 H   0  0  0  0  0  0  0  0  0  0  0  0
   10.3312  -14.4580    0.0000 H   0  0  0  0  0  0  0  0  0  0  0  0
    6.9818   10.1173    0.0000 H   0  0  0  0  0  0  0  0  0  0  0  0
    6.8985    9.3246    0.0000 H   0  0  0  0  0  0  0  0  0  0  0  0
    6.8628   -5.2518    0.0000 H   0  0  0  0  0  0  0  0  0  0  0  0
    5.6762   -7.2306    0.0000 H   0  0  0  0  0  0  0  0  0  0  0  0
    6.0747   -6.5404    0.0000 H   0  0  0  0  0  0  0  0  0  0  0  0
    6.5762  -15.6480    0.0000 H   0  0  0  0  0  0  0  0  0  0  0  0
    7.1962  -16.2680    0.0000 H   0  0  0  0  0  0  0  0  0  0  0  0
    7.8162  -15.6480    0.0000 H   0  0  0  0  0  0  0  0  0  0  0  0
    8.6169   10.4155    0.0000 H   0  0  0  0  0  0  0  0  0  0  0  0
    1.6900   -8.1111    0.0000 H   0  0  0  0  0  0  0  0  0  0  0  0
    1.4631   -8.9580    0.0000 H   0  0  0  0  0  0  0  0  0  0  0  0
    2.3100   -9.1850    0.0000 H   0  0  0  0  0  0  0  0  0  0  0  0
    8.6120   11.7569    0.0000 H   0  0  0  0  0  0  0  0  0  0  0  0
    8.6953   12.5496    0.0000 H   0  0  0  0  0  0  0  0  0  0  0  0
    9.6091   13.2545    0.0000 H   0  0  0  0  0  0  0  0  0  0  0  0
    7.3390   14.9038    0.0000 H   0  0  0  0  0  0  0  0  0  0  0  0
    9.9024   16.0451    0.0000 H   0  0  0  0  0  0  0  0  0  0  0  0
   13.1761   12.8839    0.0000 H   0  0  0  0  0  0  0  0  0  0  0  0
   15.6869   14.6158    0.0000 H   0  0  0  0  0  0  0  0  0  0  0  0
   15.9139   15.4628    0.0000 H   0  0  0  0  0  0  0  0  0  0  0  0
   15.0669   15.6897    0.0000 H   0  0  0  0  0  0  0  0  0  0  0  0
  1 64  1  0  0  0  0
  1 65  1  0  0  0  0
  2 31  1  0  0  0  0
  2 52  1  0  0  0  0
  3 46  1  0  0  0  0
  3 50  1  0  0  0  0
  4 44  1  0  0  0  0
  4 53  1  0  0  0  0
  5 54  2  0  0  0  0
  6 55  1  0  0  0  0
  6 56  1  0  0  0  0
  7 16  1  0  0  0  0
  7 17  1  0  0  0  0
  7 20  1  0  0  0  0
  8 18  1  0  0  0  0
  8 19  1  0  0  0  0
  8 21  1  0  0  0  0
  9 29  1  0  0  0  0
  9 32  1  0  0  0  0
  9 41  1  0  0  0  0
 10 12  1  0  0  0  0
 10 39  1  0  0  0  0
 10 49  1  0  0  0  0
 11 48  1  0  0  0  0
 11 54  1  0  0  0  0
 11123  1  0  0  0  0
 12 13  2  0  0  0  0
 13 51  1  0  0  0  0
 14 58  1  0  0  0  0
 14 60  2  0  0  0  0
 15 63  1  0  0  0  0
 15 65  2  0  0  0  0
 16 18  1  0  0  0  0
 16 67  1  0  0  0  0
 16 68  1  0  0  0  0
 17 19  1  0  0  0  0
 17 69  1  0  0  0  0
 17 70  1  0  0  0  0
 18 71  1  0  0  0  0
 18 72  1  0  0  0  0
 19 73  1  0  0  0  0
 19 74  1  0  0  0  0
 20 25  1  0  0  0  0
 20 75  1  0  0  0  0
 20 76  1  0  0  0  0
 21 31  1  0  0  0  0
 21 33  2  0  0  0  0
 22 23  1  0  0  0  0
 22 24  1  0  0  0  0
 22 77  1  0  0  0  0
 22 78  1  0  0  0  0
 23 26  1  0  0  0  0
 23 79  1  0  0  0  0
 23 80  1  0  0  0  0
 24 27  1  0  0  0  0
 24 81  1  0  0  0  0
 24 82  1  0  0  0  0
 25 36  2  0  0  0  0
 25 37  1  0  0  0  0
 26 28  1  0  0  0  0
 26 83  1  0  0  0  0
 26 84  1  0  0  0  0
 27 29  1  0  0  0  0
 27 85  1  0  0  0  0
 27 86  1  0  0  0  0
 28 30  1  0  0  0  0
 28 87  1  0  0  0  0
 28 88  1  0  0  0  0
 29 89  1  0  0  0  0
 29 90  1  0  0  0  0
 30 35  1  0  0  0  0
 30 91  1  0  0  0  0
 30 92  1  0  0  0  0
 31 40  2  0  0  0  0
 32 34  1  0  0  0  0
 32 93  1  0  0  0  0
 32 94  1  0  0  0  0
 33 42  1  0  0  0  0
 33 95  1  0  0  0  0
 34 38  1  0  0  0  0
 34 96  1  0  0  0  0
 34 97  1  0  0  0  0
 35 39  1  0  0  0  0
 35 98  1  0  0  0  0
 35 99  1  0  0  0  0
 36 44  1  0  0  0  0
 36100  1  0  0  0  0
 37 45  2  0  0  0  0
 37101  1  0  0  0  0
 38 43  1  0  0  0  0
 38102  1  0  0  0  0
 38103  1  0  0  0  0
 39104  1  0  0  0  0
 39105  1  0  0  0  0
 40 47  1  0  0  0  0
 40106  1  0  0  0  0
 41107  1  0  0  0  0
 41108  1  0  0  0  0
 41109  1  0  0  0  0
 42 47  2  0  0  0  0
 42110  1  0  0  0  0
 43 48  1  0  0  0  0
 43111  1  0  0  0  0
 43112  1  0  0  0  0
 44 46  2  0  0  0  0
 45 46  1  0  0  0  0
 45113  1  0  0  0  0
 47114  1  0  0  0  0
 48115  1  0  0  0  0
 48116  1  0  0  0  0
 49 51  2  0  0  0  0
 49117  1  0  0  0  0
 50 51  1  0  0  0  0
 50118  1  0  0  0  0
 50119  1  0  0  0  0
 52120  1  0  0  0  0
 52121  1  0  0  0  0
 52122  1  0  0  0  0
 53124  1  0  0  0  0
 53125  1  0  0  0  0
 53126  1  0  0  0  0
 54 55  1  0  0  0  0
 55127  1  0  0  0  0
 55128  1  0  0  0  0
 56 57  1  0  0  0  0
 56 58  2  0  0  0  0
 57 59  2  0  0  0  0
 57129  1  0  0  0  0
 58130  1  0  0  0  0
 59 60  1  0  0  0  0
 59 61  1  0  0  0  0
 60131  1  0  0  0  0
 61 62  3  0  0  0  0
 62 63  1  0  0  0  0
 63 64  2  0  0  0  0
 64132  1  0  0  0  0
 65 66  1  0  0  0  0
 66133  1  0  0  0  0
 66134  1  0  0  0  0
 66135  1  0  0  0  0
M  END
> <PUBCHEM_COMPOUND_CID>
145985945

> <PUBCHEM_COMPOUND_CANONICALIZED>
1

> <PUBCHEM_CACTVS_COMPLEXITY>
1400

> <PUBCHEM_CACTVS_HBOND_ACCEPTOR>
13

> <PUBCHEM_CACTVS_HBOND_DONOR>
1

> <PUBCHEM_CACTVS_ROTATABLE_BOND>
30

> <PUBCHEM_CACTVS_SUBSKEYS>
AAADcfB/+ABAAAAAAAAAAAAAAAAAAWLAAAA8eIEAAAAAAAAB/AAAHgQYAAAADAzl3ga+x5PIFAjuEzV3VA6C/KRx+jgY2LR//JgPZuLksZ+XOCrm1hH66Aew0JIOIAABAAAAUABAAAIAAACgAAAAAAAAAA==

> <PUBCHEM_IUPAC_OPENEYE_NAME>
N-[5-[10-[4-[[2-methoxy-4-[[4-(2-methoxyphenyl)piperazin-1-yl]methyl]phenoxy]methyl]triazol-1-yl]decyl-methyl-amino]pentyl]-2-[[5-[2-(2-methylthiazol-4-yl)ethynyl]-3-pyridyl]oxy]acetamide

> <PUBCHEM_IUPAC_CAS_NAME>
N-[5-[10-[4-[[2-methoxy-4-[[4-(2-methoxyphenyl)-1-piperazinyl]methyl]phenoxy]methyl]-1-triazolyl]decyl-methylamino]pentyl]-2-[[5-[2-(2-methyl-4-thiazolyl)ethynyl]-3-pyridinyl]oxy]acetamide

> <PUBCHEM_IUPAC_NAME_MARKUP>
<I>N</I>-[5-[10-[4-[[2-methoxy-4-[[4-(2-methoxyphenyl)piperazin-1-yl]methyl]phenoxy]methyl]triazol-1-yl]decyl-methylamino]pentyl]-2-[5-[2-(2-methyl-1,3-thiazol-4-yl)ethynyl]pyridin-3-yl]oxyacetamide

> <PUBCHEM_IUPAC_NAME>
N-[5-[10-[4-[[2-methoxy-4-[[4-(2-methoxyphenyl)piperazin-1-yl]methyl]phenoxy]methyl]triazol-1-yl]decyl-methylamino]pentyl]-2-[5-[2-(2-methyl-1,3-thiazol-4-yl)ethynyl]pyridin-3-yl]oxyacetamide

> <PUBCHEM_IUPAC_SYSTEMATIC_NAME>
N-[5-[10-[4-[[2-methoxy-4-[[4-(2-methoxyphenyl)piperazin-1-yl]methyl]phenoxy]methyl]-1,2,3-triazol-1-yl]decyl-methyl-amino]pentyl]-2-[5-[2-(2-methyl-1,3-thiazol-4-yl)ethynyl]pyridin-3-yl]oxy-ethanamide

> <PUBCHEM_IUPAC_TRADITIONAL_NAME>
N-[5-[10-[4-[[2-methoxy-4-[[4-(2-methoxyphenyl)piperazino]methyl]phenoxy]methyl]triazol-1-yl]decyl-methyl-amino]pentyl]-2-[[5-[2-(2-methylthiazol-4-yl)ethynyl]-3-pyridyl]oxy]acetamide

> <PUBCHEM_IUPAC_INCHI>
InChI=1S/C51H69N9O5S/c1-41-54-44(40-66-41)22-20-42-32-46(35-52-34-42)64-39-51(61)53-24-14-11-16-26-57(2)25-15-9-7-5-6-8-10-17-27-60-37-45(55-56-60)38-65-49-23-21-43(33-50(49)63-4)36-58-28-30-59(31-29-58)47-18-12-13-19-48(47)62-3/h12-13,18-19,21,23,32-35,37,40H,5-11,14-17,24-31,36,38-39H2,1-4H3,(H,53,61)

> <PUBCHEM_IUPAC_INCHIKEY>
HWAXOXRRJFJRSF-UHFFFAOYSA-N

> <PUBCHEM_XLOGP3_AA>
8.6

> <PUBCHEM_EXACT_MASS>
919.51423751

> <PUBCHEM_MOLECULAR_FORMULA>
C51H69N9O5S

> <PUBCHEM_MOLECULAR_WEIGHT>
920.2

> <PUBCHEM_OPENEYE_CAN_SMILES>
CC1=NC(=CS1)C#CC2=CC(=CN=C2)OCC(=O)NCCCCCN(C)CCCCCCCCCCN3C=C(N=N3)COC4=C(C=C(C=C4)CN5CCN(CC5)C6=CC=CC=C6OC)OC

> <PUBCHEM_OPENEYE_ISO_SMILES>
CC1=NC(=CS1)C#CC2=CC(=CN=C2)OCC(=O)NCCCCCN(C)CCCCCCCCCCN3C=C(N=N3)COC4=C(C=C(C=C4)CN5CCN(CC5)C6=CC=CC=C6OC)OC

> <PUBCHEM_CACTVS_TPSA>
161

> <PUBCHEM_MONOISOTOPIC_WEIGHT>
919.51423751

> <PUBCHEM_TOTAL_CHARGE>
0

> <PUBCHEM_HEAVY_ATOM_COUNT>
66

> <PUBCHEM_ATOM_DEF_STEREO_COUNT>
0

> <PUBCHEM_ATOM_UDEF_STEREO_COUNT>
0

> <PUBCHEM_BOND_DEF_STEREO_COUNT>
0

> <PUBCHEM_BOND_UDEF_STEREO_COUNT>
0

> <PUBCHEM_ISOTOPIC_ATOM_COUNT>
0

> <PUBCHEM_COMPONENT_COUNT>
1

> <PUBCHEM_CACTVS_TAUTO_COUNT>
-1

> <PUBCHEM_COORDINATE_TYPE>
1
5
255

> <PUBCHEM_BONDANNOTATIONS>
1  64  8
1  65  8
10  12  8
10  49  8
12  13  8
13  51  8
14  58  8
14  60  8
15  63  8
15  65  8
21  31  8
21  33  8
25  36  8
25  37  8
31  40  8
33  42  8
36  44  8
37  45  8
40  47  8
42  47  8
44  46  8
45  46  8
49  51  8
56  57  8
56  58  8
57  59  8
59  60  8
63  64  8

$$$$
