166627958
  -OEChem-09292322442D

 57 61  0     1  0  0  0  0  0999 V2000
   12.4068   -1.2055    0.0000 S   0  0  0  0  0  0  0  0  0  0  0  0
    2.0000    1.1679    0.0000 F   0  0  0  0  0  0  0  0  0  0  0  0
   11.9068   -0.3394    0.0000 O   0  0  0  0  0  0  0  0  0  0  0  0
   12.9068   -2.0715    0.0000 O   0  0  0  0  0  0  0  0  0  0  0  0
    5.4327    2.0715    0.0000 O   0  0  0  0  0  0  0  0  0  0  0  0
    9.0920   -0.8690    0.0000 N   0  0  3  0  0  0  0  0  0  0  0  0
    6.2354    1.4851    0.0000 N   0  0  0  0  0  0  0  0  0  0  0  0
   10.6747   -1.2055    0.0000 C   0  0  3  0  0  0  0  0  0  0  0  0
    9.7612   -1.6122    0.0000 C   0  0  0  0  0  0  0  0  0  0  0  0
   10.5702   -0.2109    0.0000 C   0  0  0  0  0  0  0  0  0  0  0  0
    9.5920   -0.0030    0.0000 C   0  0  0  0  0  0  0  0  0  0  0  0
   11.5408   -1.7055    0.0000 C   0  0  0  0  0  0  0  0  0  0  0  0
    8.0975   -0.9736    0.0000 C   0  0  0  0  0  0  0  0  0  0  0  0
    7.5098   -0.1646    0.0000 C   0  0  0  0  0  0  0  0  0  0  0  0
   13.2728   -0.7055    0.0000 C   0  0  0  0  0  0  0  0  0  0  0  0
    6.5152   -0.2691    0.0000 C   0  0  0  0  0  0  0  0  0  0  0  0
    5.9274    0.5399    0.0000 C   0  0  0  0  0  0  0  0  0  0  0  0
   14.1388   -1.2055    0.0000 C   0  0  0  0  0  0  0  0  0  0  0  0
   13.2728    0.2945    0.0000 C   0  0  0  0  0  0  0  0  0  0  0  0
   15.0049   -0.7055    0.0000 C   0  0  0  0  0  0  0  0  0  0  0  0
    4.9334    0.5391    0.0000 C   0  0  0  0  0  0  0  0  0  0  0  0
   14.1388    0.7945    0.0000 C   0  0  0  0  0  0  0  0  0  0  0  0
   15.0049    0.2945    0.0000 C   0  0  0  0  0  0  0  0  0  0  0  0
    4.6260    1.4907    0.0000 C   0  0  0  0  0  0  0  0  0  0  0  0
   15.8988   -1.2401    0.0000 C   0  0  0  0  0  0  0  0  0  0  0  0
    4.2629   -0.2029    0.0000 C   0  0  0  0  0  0  0  0  0  0  0  0
   15.8988    0.8292    0.0000 C   0  0  0  0  0  0  0  0  0  0  0  0
   16.8049   -0.7263    0.0000 C   0  0  0  0  0  0  0  0  0  0  0  0
    3.6482    1.7003    0.0000 C   0  0  0  0  0  0  0  0  0  0  0  0
   16.8049    0.3154    0.0000 C   0  0  0  0  0  0  0  0  0  0  0  0
    3.2852    0.0067    0.0000 C   0  0  0  0  0  0  0  0  0  0  0  0
    2.9778    0.9583    0.0000 C   0  0  0  0  0  0  0  0  0  0  0  0
   11.1947   -0.8678    0.0000 H   0  0  0  0  0  0  0  0  0  0  0  0
    9.2596   -1.9766    0.0000 H   0  0  0  0  0  0  0  0  0  0  0  0
   10.0712   -2.1491    0.0000 H   0  0  0  0  0  0  0  0  0  0  0  0
   11.1902   -0.2109    0.0000 H   0  0  0  0  0  0  0  0  0  0  0  0
   10.6350    0.4057    0.0000 H   0  0  0  0  0  0  0  0  0  0  0  0
    9.7836    0.5866    0.0000 H   0  0  0  0  0  0  0  0  0  0  0  0
    9.0256    0.2492    0.0000 H   0  0  0  0  0  0  0  0  0  0  0  0
   11.1422   -2.1804    0.0000 H   0  0  0  0  0  0  0  0  0  0  0  0
   11.9393   -2.1804    0.0000 H   0  0  0  0  0  0  0  0  0  0  0  0
    7.5403   -1.2454    0.0000 H   0  0  0  0  0  0  0  0  0  0  0  0
    8.2684   -1.5696    0.0000 H   0  0  0  0  0  0  0  0  0  0  0  0
    8.0670    0.1072    0.0000 H   0  0  0  0  0  0  0  0  0  0  0  0
    7.3388    0.4314    0.0000 H   0  0  0  0  0  0  0  0  0  0  0  0
    5.9580   -0.5409    0.0000 H   0  0  0  0  0  0  0  0  0  0  0  0
    6.6861   -0.8651    0.0000 H   0  0  0  0  0  0  0  0  0  0  0  0
   14.1388   -1.8255    0.0000 H   0  0  0  0  0  0  0  0  0  0  0  0
   12.7359    0.6045    0.0000 H   0  0  0  0  0  0  0  0  0  0  0  0
   14.1388    1.4145    0.0000 H   0  0  0  0  0  0  0  0  0  0  0  0
   15.8916   -1.8601    0.0000 H   0  0  0  0  0  0  0  0  0  0  0  0
    4.4535   -0.7929    0.0000 H   0  0  0  0  0  0  0  0  0  0  0  0
   15.8916    1.4492    0.0000 H   0  0  0  0  0  0  0  0  0  0  0  0
    3.4576    2.2902    0.0000 H   0  0  0  0  0  0  0  0  0  0  0  0
   17.3406   -1.0383    0.0000 H   0  0  0  0  0  0  0  0  0  0  0  0
   17.3406    0.6274    0.0000 H   0  0  0  0  0  0  0  0  0  0  0  0
    2.8695   -0.4533    0.0000 H   0  0  0  0  0  0  0  0  0  0  0  0
  1  3  2  0  0  0  0
  1  4  2  0  0  0  0
  1 12  1  0  0  0  0
  1 15  1  0  0  0  0
  2 32  1  0  0  0  0
  5  7  1  0  0  0  0
  5 24  1  0  0  0  0
  6  9  1  0  0  0  0
  6 11  1  0  0  0  0
  6 13  1  0  0  0  0
  7 17  2  0  0  0  0
  8  9  1  0  0  0  0
  8 10  1  0  0  0  0
  8 12  1  0  0  0  0
  8 33  1  0  0  0  0
  9 34  1  0  0  0  0
  9 35  1  0  0  0  0
 10 11  1  0  0  0  0
 10 36  1  0  0  0  0
 10 37  1  0  0  0  0
 11 38  1  0  0  0  0
 11 39  1  0  0  0  0
 12 40  1  0  0  0  0
 12 41  1  0  0  0  0
 13 14  1  0  0  0  0
 13 42  1  0  0  0  0
 13 43  1  0  0  0  0
 14 16  1  0  0  0  0
 14 44  1  0  0  0  0
 14 45  1  0  0  0  0
 15 18  2  0  0  0  0
 15 19  1  0  0  0  0
 16 17  1  0  0  0  0
 16 46  1  0  0  0  0
 16 47  1  0  0  0  0
 17 21  1  0  0  0  0
 18 20  1  0  0  0  0
 18 48  1  0  0  0  0
 19 22  2  0  0  0  0
 19 49  1  0  0  0  0
 20 23  1  0  0  0  0
 20 25  2  0  0  0  0
 21 24  2  0  0  0  0
 21 26  1  0  0  0  0
 22 23  1  0  0  0  0
 22 50  1  0  0  0  0
 23 27  2  0  0  0  0
 24 29  1  0  0  0  0
 25 28  1  0  0  0  0
 25 51  1  0  0  0  0
 26 31  2  0  0  0  0
 26 52  1  0  0  0  0
 27 30  1  0  0  0  0
 27 53  1  0  0  0  0
 28 30  2  0  0  0  0
 28 55  1  0  0  0  0
 29 32  2  0  0  0  0
 29 54  1  0  0  0  0
 30 56  1  0  0  0  0
 31 32  1  0  0  0  0
 31 57  1  0  0  0  0
M  END
> <PUBCHEM_COMPOUND_CID>
166627958

> <PUBCHEM_COMPOUND_CANONICALIZED>
1

> <PUBCHEM_CACTVS_COMPLEXITY>
729

> <PUBCHEM_CACTVS_HBOND_ACCEPTOR>
6

> <PUBCHEM_CACTVS_HBOND_DONOR>
0

> <PUBCHEM_CACTVS_ROTATABLE_BOND>
7

> <PUBCHEM_CACTVS_SUBSKEYS>
AAADceB7MQBAAAAAAAAAAAAAAAAAAWLAAAAwYMAAAAAAAFjB9AAAHwQEAAAADQzF3gywh9MQAAqpA6RyQnDCAAAkKBAomDk+TNoIJrqglZOEMYBmwBmoyceYyKCOkAAAgAAYAAAgAAEAADAAAAAAAAAAAA==

> <PUBCHEM_IUPAC_OPENEYE_NAME>
6-fluoro-3-[3-[3-(2-naphthylsulfonylmethyl)pyrrolidin-1-yl]propyl]-1,2-benzoxazole

> <PUBCHEM_IUPAC_CAS_NAME>
6-fluoro-3-[3-[3-(2-naphthalenylsulfonylmethyl)-1-pyrrolidinyl]propyl]-1,2-benzoxazole

> <PUBCHEM_IUPAC_NAME_MARKUP>
6-fluoro-3-[3-[3-(naphthalen-2-ylsulfonylmethyl)pyrrolidin-1-yl]propyl]-1,2-benzoxazole

> <PUBCHEM_IUPAC_NAME>
6-fluoro-3-[3-[3-(naphthalen-2-ylsulfonylmethyl)pyrrolidin-1-yl]propyl]-1,2-benzoxazole

> <PUBCHEM_IUPAC_SYSTEMATIC_NAME>
6-fluoranyl-3-[3-[3-(naphthalen-2-ylsulfonylmethyl)pyrrolidin-1-yl]propyl]-1,2-benzoxazole

> <PUBCHEM_IUPAC_TRADITIONAL_NAME>
6-fluoro-3-[3-[3-(2-naphthylsulfonylmethyl)pyrrolidino]propyl]indoxazene

> <PUBCHEM_IUPAC_INCHI>
InChI=1S/C25H25FN2O3S/c26-21-8-10-23-24(27-31-25(23)15-21)6-3-12-28-13-11-18(16-28)17-32(29,30)22-9-7-19-4-1-2-5-20(19)14-22/h1-2,4-5,7-10,14-15,18H,3,6,11-13,16-17H2

> <PUBCHEM_IUPAC_INCHIKEY>
WIJVLCXKSPDTFW-UHFFFAOYSA-N

> <PUBCHEM_XLOGP3_AA>
5.1

> <PUBCHEM_EXACT_MASS>
452.15699200

> <PUBCHEM_MOLECULAR_FORMULA>
C25H25FN2O3S

> <PUBCHEM_MOLECULAR_WEIGHT>
452.5

> <PUBCHEM_OPENEYE_CAN_SMILES>
C1CN(CC1CS(=O)(=O)C2=CC3=CC=CC=C3C=C2)CCCC4=NOC5=C4C=CC(=C5)F

> <PUBCHEM_OPENEYE_ISO_SMILES>
C1CN(CC1CS(=O)(=O)C2=CC3=CC=CC=C3C=C2)CCCC4=NOC5=C4C=CC(=C5)F

> <PUBCHEM_CACTVS_TPSA>
71.8

> <PUBCHEM_MONOISOTOPIC_WEIGHT>
452.15699200

> <PUBCHEM_TOTAL_CHARGE>
0

> <PUBCHEM_HEAVY_ATOM_COUNT>
32

> <PUBCHEM_ATOM_DEF_STEREO_COUNT>
0

> <PUBCHEM_ATOM_UDEF_STEREO_COUNT>
1

> <PUBCHEM_BOND_DEF_STEREO_COUNT>
0

> <PUBCHEM_BOND_UDEF_STEREO_COUNT>
0

> <PUBCHEM_ISOTOPIC_ATOM_COUNT>
0

> <PUBCHEM_COMPONENT_COUNT>
1

> <PUBCHEM_CACTVS_TAUTO_COUNT>
-1

> <PUBCHEM_COORDINATE_TYPE>
1
5
255

> <PUBCHEM_BONDANNOTATIONS>
15  18  8
15  19  8
17  21  8
18  20  8
19  22  8
20  23  8
20  25  8
21  24  8
21  26  8
22  23  8
23  27  8
24  29  8
25  28  8
26  31  8
27  30  8
28  30  8
29  32  8
31  32  8
5  24  8
5  7  8
7  17  8
8  12  3

$$$$
