118722915
  -OEChem-09292322472D

 58 61  0     0  0  0  0  0  0999 V2000
   16.7904    2.5173    0.0000 O   0  0  0  0  0  0  0  0  0  0  0  0
    6.3981    0.5173    0.0000 O   0  0  0  0  0  0  0  0  0  0  0  0
   11.5942   -0.4827    0.0000 N   0  0  0  0  0  0  0  0  0  0  0  0
   13.3263    0.5173    0.0000 N   0  0  0  0  0  0  0  0  0  0  0  0
    7.2641   -0.9827    0.0000 N   0  0  0  0  0  0  0  0  0  0  0  0
    5.5321   -1.9827    0.0000 N   0  0  0  0  0  0  0  0  0  0  0  0
   11.5942    0.5173    0.0000 C   0  0  0  0  0  0  0  0  0  0  0  0
   12.4603   -0.9827    0.0000 C   0  0  0  0  0  0  0  0  0  0  0  0
   12.4603    1.0173    0.0000 C   0  0  0  0  0  0  0  0  0  0  0  0
   13.3263   -0.4827    0.0000 C   0  0  0  0  0  0  0  0  0  0  0  0
   10.7282   -0.9827    0.0000 C   0  0  0  0  0  0  0  0  0  0  0  0
    9.8622   -0.4827    0.0000 C   0  0  0  0  0  0  0  0  0  0  0  0
   14.1923    1.0173    0.0000 C   0  0  0  0  0  0  0  0  0  0  0  0
    8.9962   -0.9827    0.0000 C   0  0  0  0  0  0  0  0  0  0  0  0
    8.1301   -0.4827    0.0000 C   0  0  0  0  0  0  0  0  0  0  0  0
   15.0583    0.5173    0.0000 C   0  0  0  0  0  0  0  0  0  0  0  0
   14.1923    2.0173    0.0000 C   0  0  0  0  0  0  0  0  0  0  0  0
   15.9244    1.0173    0.0000 C   0  0  0  0  0  0  0  0  0  0  0  0
   15.0583    2.5173    0.0000 C   0  0  0  0  0  0  0  0  0  0  0  0
   15.9244    2.0173    0.0000 C   0  0  0  0  0  0  0  0  0  0  0  0
    6.3981   -0.4827    0.0000 C   0  0  0  0  0  0  0  0  0  0  0  0
    5.5321   -0.9827    0.0000 C   0  0  0  0  0  0  0  0  0  0  0  0
    4.6660   -0.4827    0.0000 C   0  0  0  0  0  0  0  0  0  0  0  0
    3.8000   -0.9827    0.0000 C   0  0  0  0  0  0  0  0  0  0  0  0
    3.8000   -1.9827    0.0000 C   0  0  0  0  0  0  0  0  0  0  0  0
    4.6660   -2.4827    0.0000 C   0  0  0  0  0  0  0  0  0  0  0  0
    2.9061   -0.4480    0.0000 C   0  0  0  0  0  0  0  0  0  0  0  0
    2.9061   -2.5173    0.0000 C   0  0  0  0  0  0  0  0  0  0  0  0
    2.0000   -0.9619    0.0000 C   0  0  0  0  0  0  0  0  0  0  0  0
    2.0000   -2.0035    0.0000 C   0  0  0  0  0  0  0  0  0  0  0  0
   11.3822    1.0999    0.0000 H   0  0  0  0  0  0  0  0  0  0  0  0
   10.9837    0.4097    0.0000 H   0  0  0  0  0  0  0  0  0  0  0  0
   12.0617   -1.4576    0.0000 H   0  0  0  0  0  0  0  0  0  0  0  0
   12.8588   -1.4576    0.0000 H   0  0  0  0  0  0  0  0  0  0  0  0
   12.8588    1.4923    0.0000 H   0  0  0  0  0  0  0  0  0  0  0  0
   12.0617    1.4923    0.0000 H   0  0  0  0  0  0  0  0  0  0  0  0
   13.5383   -1.0653    0.0000 H   0  0  0  0  0  0  0  0  0  0  0  0
   13.9369   -0.3750    0.0000 H   0  0  0  0  0  0  0  0  0  0  0  0
   10.3297   -1.4576    0.0000 H   0  0  0  0  0  0  0  0  0  0  0  0
   11.1267   -1.4576    0.0000 H   0  0  0  0  0  0  0  0  0  0  0  0
   10.2607   -0.0077    0.0000 H   0  0  0  0  0  0  0  0  0  0  0  0
    9.4637   -0.0077    0.0000 H   0  0  0  0  0  0  0  0  0  0  0  0
    8.5976   -1.4576    0.0000 H   0  0  0  0  0  0  0  0  0  0  0  0
    9.3947   -1.4576    0.0000 H   0  0  0  0  0  0  0  0  0  0  0  0
    8.5287   -0.0077    0.0000 H   0  0  0  0  0  0  0  0  0  0  0  0
    7.7316   -0.0077    0.0000 H   0  0  0  0  0  0  0  0  0  0  0  0
   15.0583   -0.1027    0.0000 H   0  0  0  0  0  0  0  0  0  0  0  0
   13.6554    2.3273    0.0000 H   0  0  0  0  0  0  0  0  0  0  0  0
    7.2641   -1.6027    0.0000 H   0  0  0  0  0  0  0  0  0  0  0  0
   16.4613    0.7073    0.0000 H   0  0  0  0  0  0  0  0  0  0  0  0
   15.0583    3.1373    0.0000 H   0  0  0  0  0  0  0  0  0  0  0  0
    4.6660    0.1373    0.0000 H   0  0  0  0  0  0  0  0  0  0  0  0
   17.3273    2.2073    0.0000 H   0  0  0  0  0  0  0  0  0  0  0  0
    4.6660   -3.1027    0.0000 H   0  0  0  0  0  0  0  0  0  0  0  0
    2.9132    0.1720    0.0000 H   0  0  0  0  0  0  0  0  0  0  0  0
    2.9132   -3.1373    0.0000 H   0  0  0  0  0  0  0  0  0  0  0  0
    1.4643   -0.6498    0.0000 H   0  0  0  0  0  0  0  0  0  0  0  0
    1.4643   -2.3156    0.0000 H   0  0  0  0  0  0  0  0  0  0  0  0
  1 20  1  0  0  0  0
  1 53  1  0  0  0  0
  2 21  2  0  0  0  0
  3  7  1  0  0  0  0
  3  8  1  0  0  0  0
  3 11  1  0  0  0  0
  4  9  1  0  0  0  0
  4 10  1  0  0  0  0
  4 13  1  0  0  0  0
  5 15  1  0  0  0  0
  5 21  1  0  0  0  0
  5 49  1  0  0  0  0
  6 22  1  0  0  0  0
  6 26  2  0  0  0  0
  7  9  1  0  0  0  0
  7 31  1  0  0  0  0
  7 32  1  0  0  0  0
  8 10  1  0  0  0  0
  8 33  1  0  0  0  0
  8 34  1  0  0  0  0
  9 35  1  0  0  0  0
  9 36  1  0  0  0  0
 10 37  1  0  0  0  0
 10 38  1  0  0  0  0
 11 12  1  0  0  0  0
 11 39  1  0  0  0  0
 11 40  1  0  0  0  0
 12 14  1  0  0  0  0
 12 41  1  0  0  0  0
 12 42  1  0  0  0  0
 13 16  2  0  0  0  0
 13 17  1  0  0  0  0
 14 15  1  0  0  0  0
 14 43  1  0  0  0  0
 14 44  1  0  0  0  0
 15 45  1  0  0  0  0
 15 46  1  0  0  0  0
 16 18  1  0  0  0  0
 16 47  1  0  0  0  0
 17 19  2  0  0  0  0
 17 48  1  0  0  0  0
 18 20  2  0  0  0  0
 18 50  1  0  0  0  0
 19 20  1  0  0  0  0
 19 51  1  0  0  0  0
 21 22  1  0  0  0  0
 22 23  2  0  0  0  0
 23 24  1  0  0  0  0
 23 52  1  0  0  0  0
 24 25  1  0  0  0  0
 24 27  2  0  0  0  0
 25 26  1  0  0  0  0
 25 28  2  0  0  0  0
 26 54  1  0  0  0  0
 27 29  1  0  0  0  0
 27 55  1  0  0  0  0
 28 30  1  0  0  0  0
 28 56  1  0  0  0  0
 29 30  2  0  0  0  0
 29 57  1  0  0  0  0
 30 58  1  0  0  0  0
M  END
> <PUBCHEM_COMPOUND_CID>
118722915

> <PUBCHEM_COMPOUND_CANONICALIZED>
1

> <PUBCHEM_CACTVS_COMPLEXITY>
529

> <PUBCHEM_CACTVS_HBOND_ACCEPTOR>
5

> <PUBCHEM_CACTVS_HBOND_DONOR>
2

> <PUBCHEM_CACTVS_ROTATABLE_BOND>
7

> <PUBCHEM_CACTVS_SUBSKEYS>
AAADceB7sAAAAAAAAAAAAAAAAAAAAAAAAAA8eIEAAAAAAACx9AAAHgAQCAAADAzBngQ8xtPIEgCoAzV3VACCgCA3IiAI2KG+bNgIZvLClbOUcQhk1hHI2Ye4yICOgEAAAAAQAAAAgAAAACAAAAAAAAAAAA==

> <PUBCHEM_IUPAC_OPENEYE_NAME>
N-[4-[4-(4-hydroxyphenyl)piperazin-1-yl]butyl]isoquinoline-3-carboxamide

> <PUBCHEM_IUPAC_CAS_NAME>
N-[4-[4-(4-hydroxyphenyl)-1-piperazinyl]butyl]-3-isoquinolinecarboxamide

> <PUBCHEM_IUPAC_NAME_MARKUP>
<I>N</I>-[4-[4-(4-hydroxyphenyl)piperazin-1-yl]butyl]isoquinoline-3-carboxamide

> <PUBCHEM_IUPAC_NAME>
N-[4-[4-(4-hydroxyphenyl)piperazin-1-yl]butyl]isoquinoline-3-carboxamide

> <PUBCHEM_IUPAC_SYSTEMATIC_NAME>
N-[4-[4-(4-hydroxyphenyl)piperazin-1-yl]butyl]isoquinoline-3-carboxamide

> <PUBCHEM_IUPAC_TRADITIONAL_NAME>
N-[4-[4-(4-hydroxyphenyl)piperazino]butyl]isoquinoline-3-carboxamide

> <PUBCHEM_IUPAC_INCHI>
InChI=1S/C24H28N4O2/c29-22-9-7-21(8-10-22)28-15-13-27(14-16-28)12-4-3-11-25-24(30)23-17-19-5-1-2-6-20(19)18-26-23/h1-2,5-10,17-18,29H,3-4,11-16H2,(H,25,30)

> <PUBCHEM_IUPAC_INCHIKEY>
PEJKTDOJOAMLDH-UHFFFAOYSA-N

> <PUBCHEM_XLOGP3_AA>
3.7

> <PUBCHEM_EXACT_MASS>
404.22122615

> <PUBCHEM_MOLECULAR_FORMULA>
C24H28N4O2

> <PUBCHEM_MOLECULAR_WEIGHT>
404.5

> <PUBCHEM_OPENEYE_CAN_SMILES>
C1CN(CCN1CCCCNC(=O)C2=CC3=CC=CC=C3C=N2)C4=CC=C(C=C4)O

> <PUBCHEM_OPENEYE_ISO_SMILES>
C1CN(CCN1CCCCNC(=O)C2=CC3=CC=CC=C3C=N2)C4=CC=C(C=C4)O

> <PUBCHEM_CACTVS_TPSA>
68.7

> <PUBCHEM_MONOISOTOPIC_WEIGHT>
404.22122615

> <PUBCHEM_TOTAL_CHARGE>
0

> <PUBCHEM_HEAVY_ATOM_COUNT>
30

> <PUBCHEM_ATOM_DEF_STEREO_COUNT>
0

> <PUBCHEM_ATOM_UDEF_STEREO_COUNT>
0

> <PUBCHEM_BOND_DEF_STEREO_COUNT>
0

> <PUBCHEM_BOND_UDEF_STEREO_COUNT>
0

> <PUBCHEM_ISOTOPIC_ATOM_COUNT>
0

> <PUBCHEM_COMPONENT_COUNT>
1

> <PUBCHEM_CACTVS_TAUTO_COUNT>
-1

> <PUBCHEM_COORDINATE_TYPE>
1
5
255

> <PUBCHEM_BONDANNOTATIONS>
13  16  8
13  17  8
16  18  8
17  19  8
18  20  8
19  20  8
22  23  8
23  24  8
24  25  8
24  27  8
25  26  8
25  28  8
27  29  8
28  30  8
29  30  8
6  22  8
6  26  8

$$$$
