71502633
  -OEChem-09292322352D

 73 77  0     0  0  0  0  0  0999 V2000
    9.3191   -4.4518    0.0000 S   0  0  0  0  0  0  0  0  0  0  0  0
    5.4641    4.3034    0.0000 O   0  0  0  0  0  0  0  0  0  0  0  0
   10.2696   -4.1412    0.0000 O   0  0  0  0  0  0  0  0  0  0  0  0
    8.3685   -4.7625    0.0000 O   0  0  0  0  0  0  0  0  0  0  0  0
    3.7320    5.3034    0.0000 O   0  0  0  0  0  0  0  0  0  0  0  0
    7.1962    1.3034    0.0000 N   0  0  0  0  0  0  0  0  0  0  0  0
    7.1962   -0.6966    0.0000 N   0  0  0  0  0  0  0  0  0  0  0  0
    9.0084   -3.5013    0.0000 N   0  0  0  0  0  0  0  0  0  0  0  0
    6.3301    0.8034    0.0000 C   0  0  0  0  0  0  0  0  0  0  0  0
    8.0622    0.8034    0.0000 C   0  0  0  0  0  0  0  0  0  0  0  0
    6.3301   -0.1966    0.0000 C   0  0  0  0  0  0  0  0  0  0  0  0
    8.0622   -0.1966    0.0000 C   0  0  0  0  0  0  0  0  0  0  0  0
    7.1962    2.3034    0.0000 C   0  0  0  0  0  0  0  0  0  0  0  0
    7.1962   -1.6966    0.0000 C   0  0  0  0  0  0  0  0  0  0  0  0
    8.0622   -2.1966    0.0000 C   0  0  0  0  0  0  0  0  0  0  0  0
    6.3301    2.8034    0.0000 C   0  0  0  0  0  0  0  0  0  0  0  0
    8.0622   -3.1966    0.0000 C   0  0  0  0  0  0  0  0  0  0  0  0
    6.3301   -2.1966    0.0000 C   0  0  0  0  0  0  0  0  0  0  0  0
    9.0084   -1.8919    0.0000 C   0  0  0  0  0  0  0  0  0  0  0  0
    6.3301    3.8034    0.0000 C   0  0  0  0  0  0  0  0  0  0  0  0
    7.1962   -3.6966    0.0000 C   0  0  0  0  0  0  0  0  0  0  0  0
    9.5920   -2.6966    0.0000 C   0  0  0  0  0  0  0  0  0  0  0  0
    6.3301   -3.1966    0.0000 C   0  0  0  0  0  0  0  0  0  0  0  0
    9.6297   -5.4024    0.0000 C   0  0  0  0  0  0  0  0  0  0  0  0
    5.4641    5.3034    0.0000 C   0  0  0  0  0  0  0  0  0  0  0  0
    8.9619   -6.1467    0.0000 C   0  0  0  0  0  0  0  0  0  0  0  0
   10.6082   -5.6086    0.0000 C   0  0  0  0  0  0  0  0  0  0  0  0
    4.5981    5.8034    0.0000 C   0  0  0  0  0  0  0  0  0  0  0  0
    9.2725   -7.0972    0.0000 C   0  0  0  0  0  0  0  0  0  0  0  0
   10.9189   -6.5591    0.0000 C   0  0  0  0  0  0  0  0  0  0  0  0
    6.3301    5.8034    0.0000 C   0  0  0  0  0  0  0  0  0  0  0  0
   10.2510   -7.3034    0.0000 C   0  0  0  0  0  0  0  0  0  0  0  0
    4.5981    6.8034    0.0000 C   0  0  0  0  0  0  0  0  0  0  0  0
    6.3301    6.8034    0.0000 C   0  0  0  0  0  0  0  0  0  0  0  0
    2.8660    5.8034    0.0000 C   0  0  0  0  0  0  0  0  0  0  0  0
    5.4641    7.3034    0.0000 C   0  0  0  0  0  0  0  0  0  0  0  0
    2.0000    5.3034    0.0000 C   0  0  0  0  0  0  0  0  0  0  0  0
    2.8660    6.8034    0.0000 C   0  0  0  0  0  0  0  0  0  0  0  0
    6.1181    1.3860    0.0000 H   0  0  0  0  0  0  0  0  0  0  0  0
    5.7196    0.6957    0.0000 H   0  0  0  0  0  0  0  0  0  0  0  0
    8.6728    0.6957    0.0000 H   0  0  0  0  0  0  0  0  0  0  0  0
    8.2742    1.3860    0.0000 H   0  0  0  0  0  0  0  0  0  0  0  0
    5.7196   -0.0889    0.0000 H   0  0  0  0  0  0  0  0  0  0  0  0
    6.1181   -0.7792    0.0000 H   0  0  0  0  0  0  0  0  0  0  0  0
    8.2742   -0.7792    0.0000 H   0  0  0  0  0  0  0  0  0  0  0  0
    8.6728   -0.0889    0.0000 H   0  0  0  0  0  0  0  0  0  0  0  0
    7.8067    2.1957    0.0000 H   0  0  0  0  0  0  0  0  0  0  0  0
    7.4082    2.8860    0.0000 H   0  0  0  0  0  0  0  0  0  0  0  0
    5.7196    2.9111    0.0000 H   0  0  0  0  0  0  0  0  0  0  0  0
    6.1181    2.2208    0.0000 H   0  0  0  0  0  0  0  0  0  0  0  0
    5.7932   -1.8866    0.0000 H   0  0  0  0  0  0  0  0  0  0  0  0
    9.2010   -1.3025    0.0000 H   0  0  0  0  0  0  0  0  0  0  0  0
    6.9407    3.6958    0.0000 H   0  0  0  0  0  0  0  0  0  0  0  0
    6.5422    4.3860    0.0000 H   0  0  0  0  0  0  0  0  0  0  0  0
    7.1962   -4.3166    0.0000 H   0  0  0  0  0  0  0  0  0  0  0  0
   10.2120   -2.6966    0.0000 H   0  0  0  0  0  0  0  0  0  0  0  0
    5.7932   -3.5066    0.0000 H   0  0  0  0  0  0  0  0  0  0  0  0
    8.3552   -6.0188    0.0000 H   0  0  0  0  0  0  0  0  0  0  0  0
   11.0223   -5.1471    0.0000 H   0  0  0  0  0  0  0  0  0  0  0  0
    8.8585   -7.5586    0.0000 H   0  0  0  0  0  0  0  0  0  0  0  0
   11.5256   -6.6870    0.0000 H   0  0  0  0  0  0  0  0  0  0  0  0
    6.8671    5.4934    0.0000 H   0  0  0  0  0  0  0  0  0  0  0  0
   10.4437   -7.8927    0.0000 H   0  0  0  0  0  0  0  0  0  0  0  0
    4.0611    7.1134    0.0000 H   0  0  0  0  0  0  0  0  0  0  0  0
    6.8671    7.1134    0.0000 H   0  0  0  0  0  0  0  0  0  0  0  0
    2.8660    5.1834    0.0000 H   0  0  0  0  0  0  0  0  0  0  0  0
    5.4641    7.9234    0.0000 H   0  0  0  0  0  0  0  0  0  0  0  0
    1.6900    5.8403    0.0000 H   0  0  0  0  0  0  0  0  0  0  0  0
    1.4631    4.9934    0.0000 H   0  0  0  0  0  0  0  0  0  0  0  0
    2.3100    4.7665    0.0000 H   0  0  0  0  0  0  0  0  0  0  0  0
    3.4860    6.8034    0.0000 H   0  0  0  0  0  0  0  0  0  0  0  0
    2.8660    7.4234    0.0000 H   0  0  0  0  0  0  0  0  0  0  0  0
    2.2460    6.8034    0.0000 H   0  0  0  0  0  0  0  0  0  0  0  0
  1  3  2  0  0  0  0
  1  4  2  0  0  0  0
  1  8  1  0  0  0  0
  1 24  1  0  0  0  0
  2 20  1  0  0  0  0
  2 25  1  0  0  0  0
  5 28  1  0  0  0  0
  5 35  1  0  0  0  0
  6  9  1  0  0  0  0
  6 10  1  0  0  0  0
  6 13  1  0  0  0  0
  7 11  1  0  0  0  0
  7 12  1  0  0  0  0
  7 14  1  0  0  0  0
  8 17  1  0  0  0  0
  8 22  1  0  0  0  0
  9 11  1  0  0  0  0
  9 39  1  0  0  0  0
  9 40  1  0  0  0  0
 10 12  1  0  0  0  0
 10 41  1  0  0  0  0
 10 42  1  0  0  0  0
 11 43  1  0  0  0  0
 11 44  1  0  0  0  0
 12 45  1  0  0  0  0
 12 46  1  0  0  0  0
 13 16  1  0  0  0  0
 13 47  1  0  0  0  0
 13 48  1  0  0  0  0
 14 15  1  0  0  0  0
 14 18  2  0  0  0  0
 15 17  2  0  0  0  0
 15 19  1  0  0  0  0
 16 20  1  0  0  0  0
 16 49  1  0  0  0  0
 16 50  1  0  0  0  0
 17 21  1  0  0  0  0
 18 23  1  0  0  0  0
 18 51  1  0  0  0  0
 19 22  2  0  0  0  0
 19 52  1  0  0  0  0
 20 53  1  0  0  0  0
 20 54  1  0  0  0  0
 21 23  2  0  0  0  0
 21 55  1  0  0  0  0
 22 56  1  0  0  0  0
 23 57  1  0  0  0  0
 24 26  2  0  0  0  0
 24 27  1  0  0  0  0
 25 28  1  0  0  0  0
 25 31  2  0  0  0  0
 26 29  1  0  0  0  0
 26 58  1  0  0  0  0
 27 30  2  0  0  0  0
 27 59  1  0  0  0  0
 28 33  2  0  0  0  0
 29 32  2  0  0  0  0
 29 60  1  0  0  0  0
 30 32  1  0  0  0  0
 30 61  1  0  0  0  0
 31 34  1  0  0  0  0
 31 62  1  0  0  0  0
 32 63  1  0  0  0  0
 33 36  1  0  0  0  0
 33 64  1  0  0  0  0
 34 36  2  0  0  0  0
 34 65  1  0  0  0  0
 35 37  1  0  0  0  0
 35 38  1  0  0  0  0
 35 66  1  0  0  0  0
 36 67  1  0  0  0  0
 37 68  1  0  0  0  0
 37 69  1  0  0  0  0
 37 70  1  0  0  0  0
 38 71  1  0  0  0  0
 38 72  1  0  0  0  0
 38 73  1  0  0  0  0
M  END
> <PUBCHEM_COMPOUND_CID>
71502633

> <PUBCHEM_COMPOUND_CANONICALIZED>
1

> <PUBCHEM_CACTVS_COMPLEXITY>
820

> <PUBCHEM_CACTVS_HBOND_ACCEPTOR>
6

> <PUBCHEM_CACTVS_HBOND_DONOR>
0

> <PUBCHEM_CACTVS_ROTATABLE_BOND>
10

> <PUBCHEM_CACTVS_SUBSKEYS>
AAADcfB7OABAAAAAAAAAAAAAAAAAAWAAAAA8YMEAAAAAAFgB9AAAHgQAQAAADBzh3gY+x/MIFAKgAzRnRHDCiDAxIiAI2Dg+7JgNZuLE8duWPCrmwBHK6AeQwIAOAAAAAAQCQAAAAAAACASAAAAAAAAAAA==

> <PUBCHEM_IUPAC_OPENEYE_NAME>
1-(benzenesulfonyl)-4-[4-[3-(2-isopropoxyphenoxy)propyl]piperazin-1-yl]indole

> <PUBCHEM_IUPAC_CAS_NAME>
1-(benzenesulfonyl)-4-[4-[3-(2-propan-2-yloxyphenoxy)propyl]-1-piperazinyl]indole

> <PUBCHEM_IUPAC_NAME_MARKUP>
1-(benzenesulfonyl)-4-[4-[3-(2-propan-2-yloxyphenoxy)propyl]piperazin-1-yl]indole

> <PUBCHEM_IUPAC_NAME>
1-(benzenesulfonyl)-4-[4-[3-(2-propan-2-yloxyphenoxy)propyl]piperazin-1-yl]indole

> <PUBCHEM_IUPAC_SYSTEMATIC_NAME>
1-(phenylsulfonyl)-4-[4-[3-(2-propan-2-yloxyphenoxy)propyl]piperazin-1-yl]indole

> <PUBCHEM_IUPAC_TRADITIONAL_NAME>
1-besyl-4-[4-[3-(2-isopropoxyphenoxy)propyl]piperazino]indole

> <PUBCHEM_IUPAC_INCHI>
InChI=1S/C30H35N3O4S/c1-24(2)37-30-15-7-6-14-29(30)36-23-9-17-31-19-21-32(22-20-31)27-12-8-13-28-26(27)16-18-33(28)38(34,35)25-10-4-3-5-11-25/h3-8,10-16,18,24H,9,17,19-23H2,1-2H3

> <PUBCHEM_IUPAC_INCHIKEY>
KSMMWWDYFYFBQD-UHFFFAOYSA-N

> <PUBCHEM_XLOGP3_AA>
6

> <PUBCHEM_EXACT_MASS>
533.23482778

> <PUBCHEM_MOLECULAR_FORMULA>
C30H35N3O4S

> <PUBCHEM_MOLECULAR_WEIGHT>
533.7

> <PUBCHEM_OPENEYE_CAN_SMILES>
CC(C)OC1=CC=CC=C1OCCCN2CCN(CC2)C3=CC=CC4=C3C=CN4S(=O)(=O)C5=CC=CC=C5

> <PUBCHEM_OPENEYE_ISO_SMILES>
CC(C)OC1=CC=CC=C1OCCCN2CCN(CC2)C3=CC=CC4=C3C=CN4S(=O)(=O)C5=CC=CC=C5

> <PUBCHEM_CACTVS_TPSA>
72.4

> <PUBCHEM_MONOISOTOPIC_WEIGHT>
533.23482778

> <PUBCHEM_TOTAL_CHARGE>
0

> <PUBCHEM_HEAVY_ATOM_COUNT>
38

> <PUBCHEM_ATOM_DEF_STEREO_COUNT>
0

> <PUBCHEM_ATOM_UDEF_STEREO_COUNT>
0

> <PUBCHEM_BOND_DEF_STEREO_COUNT>
0

> <PUBCHEM_BOND_UDEF_STEREO_COUNT>
0

> <PUBCHEM_ISOTOPIC_ATOM_COUNT>
0

> <PUBCHEM_COMPONENT_COUNT>
1

> <PUBCHEM_CACTVS_TAUTO_COUNT>
-1

> <PUBCHEM_COORDINATE_TYPE>
1
5
255

> <PUBCHEM_BONDANNOTATIONS>
14  15  8
14  18  8
15  17  8
15  19  8
17  21  8
18  23  8
19  22  8
21  23  8
24  26  8
24  27  8
25  28  8
25  31  8
26  29  8
27  30  8
28  33  8
29  32  8
30  32  8
31  34  8
33  36  8
34  36  8
8  17  8
8  22  8

$$$$
