164916990
  -OEChem-09292322442D

 71 74  0     0  0  0  0  0  0999 V2000
    2.1077   -2.7500    0.0000 Cl  0  0  0  0  0  0  0  0  0  0  0  0
    3.2057    1.8840    0.0000 O   0  0  0  0  0  0  0  0  0  0  0  0
    3.8397    0.2500    0.0000 N   0  0  0  0  0  0  0  0  0  0  0  0
    3.8397   -1.7500    0.0000 N   0  0  0  0  0  0  0  0  0  0  0  0
    2.7660    3.0920    0.0000 N   0  0  0  0  0  0  0  0  0  0  0  0
    4.7057    2.7500    0.0000 C   0  0  0  0  0  0  0  0  0  0  0  0
    4.7057    1.7500    0.0000 C   0  0  0  0  0  0  0  0  0  0  0  0
    3.8397    1.2500    0.0000 C   0  0  0  0  0  0  0  0  0  0  0  0
    4.7057   -0.2500    0.0000 C   0  0  0  0  0  0  0  0  0  0  0  0
    2.9737   -0.2500    0.0000 C   0  0  0  0  0  0  0  0  0  0  0  0
    4.7057   -1.2500    0.0000 C   0  0  0  0  0  0  0  0  0  0  0  0
    2.9737   -1.2500    0.0000 C   0  0  0  0  0  0  0  0  0  0  0  0
    4.7057    3.7500    0.0000 C   0  0  0  0  0  0  0  0  0  0  0  0
    5.7057    2.7500    0.0000 C   0  0  0  0  0  0  0  0  0  0  0  0
    3.7057    2.7500    0.0000 C   0  0  0  0  0  0  0  0  0  0  0  0
    3.8397   -2.7500    0.0000 C   0  0  0  0  0  0  0  0  0  0  0  0
    3.8397    4.2500    0.0000 C   0  0  0  0  0  0  0  0  0  0  0  0
    6.2057    1.8840    0.0000 C   0  0  0  0  0  0  0  0  0  0  0  0
    5.5718    4.2500    0.0000 C   0  0  0  0  0  0  0  0  0  0  0  0
    6.2057    3.6160    0.0000 C   0  0  0  0  0  0  0  0  0  0  0  0
    2.9737   -3.2500    0.0000 C   0  0  0  0  0  0  0  0  0  0  0  0
    4.7057   -3.2500    0.0000 C   0  0  0  0  0  0  0  0  0  0  0  0
    2.9737   -4.2500    0.0000 C   0  0  0  0  0  0  0  0  0  0  0  0
    3.8397    5.2500    0.0000 C   0  0  0  0  0  0  0  0  0  0  0  0
    7.2057    1.8840    0.0000 C   0  0  0  0  0  0  0  0  0  0  0  0
    5.5718    5.2500    0.0000 C   0  0  0  0  0  0  0  0  0  0  0  0
    7.2057    3.6160    0.0000 C   0  0  0  0  0  0  0  0  0  0  0  0
    2.0000    2.4492    0.0000 C   0  0  0  0  0  0  0  0  0  0  0  0
    2.5924    4.0768    0.0000 C   0  0  0  0  0  0  0  0  0  0  0  0
    4.7057   -4.2500    0.0000 C   0  0  0  0  0  0  0  0  0  0  0  0
    4.7057    5.7500    0.0000 C   0  0  0  0  0  0  0  0  0  0  0  0
    7.7057    2.7500    0.0000 C   0  0  0  0  0  0  0  0  0  0  0  0
    3.8397   -4.7500    0.0000 C   0  0  0  0  0  0  0  0  0  0  0  0
    2.1077   -4.7500    0.0000 C   0  0  0  0  0  0  0  0  0  0  0  0
    2.1077   -5.7500    0.0000 C   0  0  0  0  0  0  0  0  0  0  0  0
    4.9178    1.1674    0.0000 H   0  0  0  0  0  0  0  0  0  0  0  0
    5.3163    1.8577    0.0000 H   0  0  0  0  0  0  0  0  0  0  0  0
    3.6277    1.8326    0.0000 H   0  0  0  0  0  0  0  0  0  0  0  0
    3.2291    1.1423    0.0000 H   0  0  0  0  0  0  0  0  0  0  0  0
    5.3163   -0.3577    0.0000 H   0  0  0  0  0  0  0  0  0  0  0  0
    4.9178    0.3326    0.0000 H   0  0  0  0  0  0  0  0  0  0  0  0
    2.7616    0.3326    0.0000 H   0  0  0  0  0  0  0  0  0  0  0  0
    2.3631   -0.3577    0.0000 H   0  0  0  0  0  0  0  0  0  0  0  0
    4.9178   -1.8326    0.0000 H   0  0  0  0  0  0  0  0  0  0  0  0
    5.3163   -1.1423    0.0000 H   0  0  0  0  0  0  0  0  0  0  0  0
    2.3631   -1.1423    0.0000 H   0  0  0  0  0  0  0  0  0  0  0  0
    2.7616   -1.8326    0.0000 H   0  0  0  0  0  0  0  0  0  0  0  0
    3.3028    3.9400    0.0000 H   0  0  0  0  0  0  0  0  0  0  0  0
    5.8957    1.3470    0.0000 H   0  0  0  0  0  0  0  0  0  0  0  0
    6.1087    3.9400    0.0000 H   0  0  0  0  0  0  0  0  0  0  0  0
    5.8957    4.1530    0.0000 H   0  0  0  0  0  0  0  0  0  0  0  0
    5.2427   -2.9400    0.0000 H   0  0  0  0  0  0  0  0  0  0  0  0
    3.3028    5.5600    0.0000 H   0  0  0  0  0  0  0  0  0  0  0  0
    7.5157    1.3470    0.0000 H   0  0  0  0  0  0  0  0  0  0  0  0
    6.1087    5.5600    0.0000 H   0  0  0  0  0  0  0  0  0  0  0  0
    7.5157    4.1530    0.0000 H   0  0  0  0  0  0  0  0  0  0  0  0
    1.6015    2.9242    0.0000 H   0  0  0  0  0  0  0  0  0  0  0  0
    1.5250    2.0507    0.0000 H   0  0  0  0  0  0  0  0  0  0  0  0
    2.3985    1.9743    0.0000 H   0  0  0  0  0  0  0  0  0  0  0  0
    3.2030    4.1845    0.0000 H   0  0  0  0  0  0  0  0  0  0  0  0
    2.4847    4.6874    0.0000 H   0  0  0  0  0  0  0  0  0  0  0  0
    1.9818    3.9692    0.0000 H   0  0  0  0  0  0  0  0  0  0  0  0
    5.2427   -4.5600    0.0000 H   0  0  0  0  0  0  0  0  0  0  0  0
    4.7057    6.3700    0.0000 H   0  0  0  0  0  0  0  0  0  0  0  0
    8.3257    2.7500    0.0000 H   0  0  0  0  0  0  0  0  0  0  0  0
    3.8397   -5.3700    0.0000 H   0  0  0  0  0  0  0  0  0  0  0  0
    1.8956   -4.1674    0.0000 H   0  0  0  0  0  0  0  0  0  0  0  0
    1.4971   -4.8577    0.0000 H   0  0  0  0  0  0  0  0  0  0  0  0
    1.4877   -5.7500    0.0000 H   0  0  0  0  0  0  0  0  0  0  0  0
    2.1077   -6.3700    0.0000 H   0  0  0  0  0  0  0  0  0  0  0  0
    2.7277   -5.7500    0.0000 H   0  0  0  0  0  0  0  0  0  0  0  0
  1 21  1  0  0  0  0
  2 15  2  0  0  0  0
  3  8  1  0  0  0  0
  3  9  1  0  0  0  0
  3 10  1  0  0  0  0
  4 11  1  0  0  0  0
  4 12  1  0  0  0  0
  4 16  1  0  0  0  0
  5 15  1  0  0  0  0
  5 28  1  0  0  0  0
  5 29  1  0  0  0  0
  6  7  1  0  0  0  0
  6 13  1  0  0  0  0
  6 14  1  0  0  0  0
  6 15  1  0  0  0  0
  7  8  1  0  0  0  0
  7 36  1  0  0  0  0
  7 37  1  0  0  0  0
  8 38  1  0  0  0  0
  8 39  1  0  0  0  0
  9 11  1  0  0  0  0
  9 40  1  0  0  0  0
  9 41  1  0  0  0  0
 10 12  1  0  0  0  0
 10 42  1  0  0  0  0
 10 43  1  0  0  0  0
 11 44  1  0  0  0  0
 11 45  1  0  0  0  0
 12 46  1  0  0  0  0
 12 47  1  0  0  0  0
 13 17  2  0  0  0  0
 13 19  1  0  0  0  0
 14 18  2  0  0  0  0
 14 20  1  0  0  0  0
 16 21  1  0  0  0  0
 16 22  2  0  0  0  0
 17 24  1  0  0  0  0
 17 48  1  0  0  0  0
 18 25  1  0  0  0  0
 18 49  1  0  0  0  0
 19 26  2  0  0  0  0
 19 50  1  0  0  0  0
 20 27  2  0  0  0  0
 20 51  1  0  0  0  0
 21 23  2  0  0  0  0
 22 30  1  0  0  0  0
 22 52  1  0  0  0  0
 23 33  1  0  0  0  0
 23 34  1  0  0  0  0
 24 31  2  0  0  0  0
 24 53  1  0  0  0  0
 25 32  2  0  0  0  0
 25 54  1  0  0  0  0
 26 31  1  0  0  0  0
 26 55  1  0  0  0  0
 27 32  1  0  0  0  0
 27 56  1  0  0  0  0
 28 57  1  0  0  0  0
 28 58  1  0  0  0  0
 28 59  1  0  0  0  0
 29 60  1  0  0  0  0
 29 61  1  0  0  0  0
 29 62  1  0  0  0  0
 30 33  2  0  0  0  0
 30 63  1  0  0  0  0
 31 64  1  0  0  0  0
 32 65  1  0  0  0  0
 33 66  1  0  0  0  0
 34 35  1  0  0  0  0
 34 67  1  0  0  0  0
 34 68  1  0  0  0  0
 35 69  1  0  0  0  0
 35 70  1  0  0  0  0
 35 71  1  0  0  0  0
M  END
> <PUBCHEM_COMPOUND_CID>
164916990

> <PUBCHEM_COMPOUND_CANONICALIZED>
1

> <PUBCHEM_CACTVS_COMPLEXITY>
632

> <PUBCHEM_CACTVS_HBOND_ACCEPTOR>
3

> <PUBCHEM_CACTVS_HBOND_DONOR>
0

> <PUBCHEM_CACTVS_ROTATABLE_BOND>
8

> <PUBCHEM_CACTVS_SUBSKEYS>
AAADcfB7IAAEAAAAAAAAAAAAAAAAAAAAAAA8YMEAAAAAAAABUAAAHgIAAAAADgrBmCQywIMAAACIAiVSUACCAAAhBgAIiAEIZogIYDLBl5HUIAhgggDIyAcciMCPgAAAQAABABAAAACAAAIAIAAAAAAAAA==

> <PUBCHEM_IUPAC_OPENEYE_NAME>
4-[4-(2-chloro-3-ethyl-phenyl)piperazin-1-yl]-N,N-dimethyl-2,2-diphenyl-butanamide

> <PUBCHEM_IUPAC_CAS_NAME>
4-[4-(2-chloro-3-ethylphenyl)-1-piperazinyl]-N,N-dimethyl-2,2-diphenylbutanamide

> <PUBCHEM_IUPAC_NAME_MARKUP>
4-[4-(2-chloro-3-ethylphenyl)piperazin-1-yl]-<I>N</I>,<I>N</I>-dimethyl-2,2-diphenylbutanamide

> <PUBCHEM_IUPAC_NAME>
4-[4-(2-chloro-3-ethylphenyl)piperazin-1-yl]-N,N-dimethyl-2,2-diphenylbutanamide

> <PUBCHEM_IUPAC_SYSTEMATIC_NAME>
4-[4-(2-chloranyl-3-ethyl-phenyl)piperazin-1-yl]-N,N-dimethyl-2,2-diphenyl-butanamide

> <PUBCHEM_IUPAC_TRADITIONAL_NAME>
4-[4-(2-chloro-3-ethyl-phenyl)piperazino]-N,N-dimethyl-2,2-diphenyl-butyramide

> <PUBCHEM_IUPAC_INCHI>
InChI=1S/C30H36ClN3O/c1-4-24-12-11-17-27(28(24)31)34-22-20-33(21-23-34)19-18-30(29(35)32(2)3,25-13-7-5-8-14-25)26-15-9-6-10-16-26/h5-17H,4,18-23H2,1-3H3

> <PUBCHEM_IUPAC_INCHIKEY>
VJKSHVBEJFBNJR-UHFFFAOYSA-N

> <PUBCHEM_XLOGP3_AA>
6.2

> <PUBCHEM_EXACT_MASS>
489.2546905

> <PUBCHEM_MOLECULAR_FORMULA>
C30H36ClN3O

> <PUBCHEM_MOLECULAR_WEIGHT>
490.1

> <PUBCHEM_OPENEYE_CAN_SMILES>
CCC1=C(C(=CC=C1)N2CCN(CC2)CCC(C3=CC=CC=C3)(C4=CC=CC=C4)C(=O)N(C)C)Cl

> <PUBCHEM_OPENEYE_ISO_SMILES>
CCC1=C(C(=CC=C1)N2CCN(CC2)CCC(C3=CC=CC=C3)(C4=CC=CC=C4)C(=O)N(C)C)Cl

> <PUBCHEM_CACTVS_TPSA>
26.8

> <PUBCHEM_MONOISOTOPIC_WEIGHT>
489.2546905

> <PUBCHEM_TOTAL_CHARGE>
0

> <PUBCHEM_HEAVY_ATOM_COUNT>
35

> <PUBCHEM_ATOM_DEF_STEREO_COUNT>
0

> <PUBCHEM_ATOM_UDEF_STEREO_COUNT>
0

> <PUBCHEM_BOND_DEF_STEREO_COUNT>
0

> <PUBCHEM_BOND_UDEF_STEREO_COUNT>
0

> <PUBCHEM_ISOTOPIC_ATOM_COUNT>
0

> <PUBCHEM_COMPONENT_COUNT>
1

> <PUBCHEM_CACTVS_TAUTO_COUNT>
-1

> <PUBCHEM_COORDINATE_TYPE>
1
5
255

> <PUBCHEM_BONDANNOTATIONS>
13  17  8
13  19  8
14  18  8
14  20  8
16  21  8
16  22  8
17  24  8
18  25  8
19  26  8
20  27  8
21  23  8
22  30  8
23  33  8
24  31  8
25  32  8
26  31  8
27  32  8
30  33  8

$$$$
