452533
  -OEChem-09292322192D

 32 33  0     0  0  0  0  0  0999 V2000
    2.3621    0.9514    0.0000 S   0  0  0  0  0  0  0  0  0  0  0  0
    3.9499    0.1424    0.0000 S   0  0  0  0  0  0  0  0  0  0  0  0
    2.5878    3.5875    0.0000 N   0  0  0  0  0  0  0  0  0  0  0  0
    2.6409   -0.8087    0.0000 N   0  0  0  0  0  0  0  0  0  0  0  0
    3.4499   -4.3965    0.0000 N   0  0  0  0  0  0  0  0  0  0  0  0
    2.1810    2.6739    0.0000 C   0  0  0  0  0  0  0  0  0  0  0  0
    2.7688    1.8649    0.0000 C   0  0  0  0  0  0  0  0  0  0  0  0
    2.0000    4.3965    0.0000 C   0  0  0  0  0  0  0  0  0  0  0  0
    3.5823    3.6920    0.0000 C   0  0  0  0  0  0  0  0  0  0  0  0
    3.4499   -1.3965    0.0000 C   0  0  0  0  0  0  0  0  0  0  0  0
    2.9499    0.1424    0.0000 C   0  0  0  0  0  0  0  0  0  0  0  0
    3.4499   -2.3965    0.0000 C   0  0  0  0  0  0  0  0  0  0  0  0
    4.2589   -0.8087    0.0000 C   0  0  0  0  0  0  0  0  0  0  0  0
    4.3159   -2.8965    0.0000 C   0  0  0  0  0  0  0  0  0  0  0  0
    2.5839   -2.8965    0.0000 C   0  0  0  0  0  0  0  0  0  0  0  0
    4.3159   -3.8965    0.0000 C   0  0  0  0  0  0  0  0  0  0  0  0
    2.5839   -3.8965    0.0000 C   0  0  0  0  0  0  0  0  0  0  0  0
    1.6670    3.0206    0.0000 H   0  0  0  0  0  0  0  0  0  0  0  0
    1.7504    2.2279    0.0000 H   0  0  0  0  0  0  0  0  0  0  0  0
    3.2828    1.5182    0.0000 H   0  0  0  0  0  0  0  0  0  0  0  0
    3.1995    2.3109    0.0000 H   0  0  0  0  0  0  0  0  0  0  0  0
    2.5016    4.7609    0.0000 H   0  0  0  0  0  0  0  0  0  0  0  0
    1.6356    4.8981    0.0000 H   0  0  0  0  0  0  0  0  0  0  0  0
    1.4984    4.0321    0.0000 H   0  0  0  0  0  0  0  0  0  0  0  0
    3.6471    3.0754    0.0000 H   0  0  0  0  0  0  0  0  0  0  0  0
    4.1989    3.7568    0.0000 H   0  0  0  0  0  0  0  0  0  0  0  0
    3.5175    4.3086    0.0000 H   0  0  0  0  0  0  0  0  0  0  0  0
    4.8486   -1.0003    0.0000 H   0  0  0  0  0  0  0  0  0  0  0  0
    4.8528   -2.5865    0.0000 H   0  0  0  0  0  0  0  0  0  0  0  0
    2.0469   -2.5865    0.0000 H   0  0  0  0  0  0  0  0  0  0  0  0
    4.8528   -4.2065    0.0000 H   0  0  0  0  0  0  0  0  0  0  0  0
    2.0469   -4.2065    0.0000 H   0  0  0  0  0  0  0  0  0  0  0  0
  1  7  1  0  0  0  0
  1 11  1  0  0  0  0
  2 11  1  0  0  0  0
  2 13  1  0  0  0  0
  3  6  1  0  0  0  0
  3  8  1  0  0  0  0
  3  9  1  0  0  0  0
  4 10  1  0  0  0  0
  4 11  2  0  0  0  0
  5 16  2  0  0  0  0
  5 17  1  0  0  0  0
  6  7  1  0  0  0  0
  6 18  1  0  0  0  0
  6 19  1  0  0  0  0
  7 20  1  0  0  0  0
  7 21  1  0  0  0  0
  8 22  1  0  0  0  0
  8 23  1  0  0  0  0
  8 24  1  0  0  0  0
  9 25  1  0  0  0  0
  9 26  1  0  0  0  0
  9 27  1  0  0  0  0
 10 12  1  0  0  0  0
 10 13  2  0  0  0  0
 12 14  2  0  0  0  0
 12 15  1  0  0  0  0
 13 28  1  0  0  0  0
 14 16  1  0  0  0  0
 14 29  1  0  0  0  0
 15 17  2  0  0  0  0
 15 30  1  0  0  0  0
 16 31  1  0  0  0  0
 17 32  1  0  0  0  0
M  END
> <PUBCHEM_COMPOUND_CID>
452533

> <PUBCHEM_COMPOUND_CANONICALIZED>
1

> <PUBCHEM_CACTVS_COMPLEXITY>
220

> <PUBCHEM_CACTVS_HBOND_ACCEPTOR>
5

> <PUBCHEM_CACTVS_HBOND_DONOR>
0

> <PUBCHEM_CACTVS_ROTATABLE_BOND>
5

> <PUBCHEM_CACTVS_SUBSKEYS>
AAADccBzAABgAAAAAAAAAAAAAAAAAWAAAAAsAAAAAAAAAAAB4AAAHAQAAAAADAjFXgS+gZMIEAikAzRnRACC8aBxCjgI2DQ4ZJgIIOLgkZGEIAhggADIyAYQAAAKAAAAAAAAAAAAAAAAAAAAAAAAAAAAAA==

> <PUBCHEM_IUPAC_OPENEYE_NAME>
N,N-dimethyl-2-[4-(4-pyridyl)thiazol-2-yl]sulfanyl-ethanamine

> <PUBCHEM_IUPAC_CAS_NAME>
N,N-dimethyl-2-[(4-pyridin-4-yl-2-thiazolyl)thio]ethanamine

> <PUBCHEM_IUPAC_NAME_MARKUP>
<I>N</I>,<I>N</I>-dimethyl-2-[(4-pyridin-4-yl-1,3-thiazol-2-yl)sulfanyl]ethanamine

> <PUBCHEM_IUPAC_NAME>
N,N-dimethyl-2-[(4-pyridin-4-yl-1,3-thiazol-2-yl)sulfanyl]ethanamine

> <PUBCHEM_IUPAC_SYSTEMATIC_NAME>
N,N-dimethyl-2-[(4-pyridin-4-yl-1,3-thiazol-2-yl)sulfanyl]ethanamine

> <PUBCHEM_IUPAC_TRADITIONAL_NAME>
dimethyl-[2-[[4-(4-pyridyl)thiazol-2-yl]thio]ethyl]amine

> <PUBCHEM_IUPAC_INCHI>
InChI=1S/C12H15N3S2/c1-15(2)7-8-16-12-14-11(9-17-12)10-3-5-13-6-4-10/h3-6,9H,7-8H2,1-2H3

> <PUBCHEM_IUPAC_INCHIKEY>
VQVFEOWWKRLYCL-UHFFFAOYSA-N

> <PUBCHEM_XLOGP3_AA>
2.4

> <PUBCHEM_EXACT_MASS>
265.07073984

> <PUBCHEM_MOLECULAR_FORMULA>
C12H15N3S2

> <PUBCHEM_MOLECULAR_WEIGHT>
265.4

> <PUBCHEM_OPENEYE_CAN_SMILES>
CN(C)CCSC1=NC(=CS1)C2=CC=NC=C2

> <PUBCHEM_OPENEYE_ISO_SMILES>
CN(C)CCSC1=NC(=CS1)C2=CC=NC=C2

> <PUBCHEM_CACTVS_TPSA>
82.6

> <PUBCHEM_MONOISOTOPIC_WEIGHT>
265.07073984

> <PUBCHEM_TOTAL_CHARGE>
0

> <PUBCHEM_HEAVY_ATOM_COUNT>
17

> <PUBCHEM_ATOM_DEF_STEREO_COUNT>
0

> <PUBCHEM_ATOM_UDEF_STEREO_COUNT>
0

> <PUBCHEM_BOND_DEF_STEREO_COUNT>
0

> <PUBCHEM_BOND_UDEF_STEREO_COUNT>
0

> <PUBCHEM_ISOTOPIC_ATOM_COUNT>
0

> <PUBCHEM_COMPONENT_COUNT>
1

> <PUBCHEM_CACTVS_TAUTO_COUNT>
1

> <PUBCHEM_COORDINATE_TYPE>
1
5
255

> <PUBCHEM_BONDANNOTATIONS>
10  13  8
12  14  8
12  15  8
14  16  8
15  17  8
2  11  8
2  13  8
4  10  8
4  11  8
5  16  8
5  17  8

$$$$
