798232
  -OEChem-09292322482D

 45 48  0     0  0  0  0  0  0999 V2000
    9.7619   -3.9087    0.0000 Cl  0  0  0  0  0  0  0  0  0  0  0  0
    6.7619    1.2874    0.0000 N   0  0  0  0  0  0  0  0  0  0  0  0
    7.7619   -0.4446    0.0000 N   0  0  0  0  0  0  0  0  0  0  0  0
    4.6783    2.9582    0.0000 N   0  0  0  0  0  0  0  0  0  0  0  0
    4.6783    1.3487    0.0000 N   0  0  0  0  0  0  0  0  0  0  0  0
    7.7619    1.2874    0.0000 C   0  0  0  0  0  0  0  0  0  0  0  0
    6.2619    0.4214    0.0000 C   0  0  0  0  0  0  0  0  0  0  0  0
    8.2619    0.4214    0.0000 C   0  0  0  0  0  0  0  0  0  0  0  0
    6.7619   -0.4446    0.0000 C   0  0  0  0  0  0  0  0  0  0  0  0
    6.2619    2.1535    0.0000 C   0  0  0  0  0  0  0  0  0  0  0  0
    5.2619    2.1535    0.0000 C   0  0  0  0  0  0  0  0  0  0  0  0
    8.2619   -1.3106    0.0000 C   0  0  0  0  0  0  0  0  0  0  0  0
    3.7320    2.6535    0.0000 C   0  0  0  0  0  0  0  0  0  0  0  0
    3.7320    1.6535    0.0000 C   0  0  0  0  0  0  0  0  0  0  0  0
    7.7619   -2.1767    0.0000 C   0  0  0  0  0  0  0  0  0  0  0  0
    9.2619   -1.3106    0.0000 C   0  0  0  0  0  0  0  0  0  0  0  0
    4.9889    3.9087    0.0000 C   0  0  0  0  0  0  0  0  0  0  0  0
    2.8660    3.1535    0.0000 C   0  0  0  0  0  0  0  0  0  0  0  0
    2.8660    1.1535    0.0000 C   0  0  0  0  0  0  0  0  0  0  0  0
    8.2619   -3.0427    0.0000 C   0  0  0  0  0  0  0  0  0  0  0  0
    9.7619   -2.1767    0.0000 C   0  0  0  0  0  0  0  0  0  0  0  0
    2.0000    2.6535    0.0000 C   0  0  0  0  0  0  0  0  0  0  0  0
    9.2619   -3.0427    0.0000 C   0  0  0  0  0  0  0  0  0  0  0  0
    2.0000    1.6535    0.0000 C   0  0  0  0  0  0  0  0  0  0  0  0
    8.3445    1.4995    0.0000 H   0  0  0  0  0  0  0  0  0  0  0  0
    7.6542    1.8980    0.0000 H   0  0  0  0  0  0  0  0  0  0  0  0
    5.7869    0.8199    0.0000 H   0  0  0  0  0  0  0  0  0  0  0  0
    5.7869    0.0229    0.0000 H   0  0  0  0  0  0  0  0  0  0  0  0
    8.7368    0.0229    0.0000 H   0  0  0  0  0  0  0  0  0  0  0  0
    8.7368    0.8199    0.0000 H   0  0  0  0  0  0  0  0  0  0  0  0
    6.1793   -0.6567    0.0000 H   0  0  0  0  0  0  0  0  0  0  0  0
    6.8695   -1.0552    0.0000 H   0  0  0  0  0  0  0  0  0  0  0  0
    6.8445    2.3655    0.0000 H   0  0  0  0  0  0  0  0  0  0  0  0
    6.1542    2.7640    0.0000 H   0  0  0  0  0  0  0  0  0  0  0  0
    7.1419   -2.1767    0.0000 H   0  0  0  0  0  0  0  0  0  0  0  0
    9.5719   -0.7737    0.0000 H   0  0  0  0  0  0  0  0  0  0  0  0
    5.5783    3.7161    0.0000 H   0  0  0  0  0  0  0  0  0  0  0  0
    5.1815    4.4980    0.0000 H   0  0  0  0  0  0  0  0  0  0  0  0
    4.3996    4.1013    0.0000 H   0  0  0  0  0  0  0  0  0  0  0  0
    2.8660    3.7735    0.0000 H   0  0  0  0  0  0  0  0  0  0  0  0
    2.8660    0.5335    0.0000 H   0  0  0  0  0  0  0  0  0  0  0  0
    7.9519   -3.5796    0.0000 H   0  0  0  0  0  0  0  0  0  0  0  0
   10.3819   -2.1767    0.0000 H   0  0  0  0  0  0  0  0  0  0  0  0
    1.4631    2.9635    0.0000 H   0  0  0  0  0  0  0  0  0  0  0  0
    1.4631    1.3435    0.0000 H   0  0  0  0  0  0  0  0  0  0  0  0
  1 23  1  0  0  0  0
  2  6  1  0  0  0  0
  2  7  1  0  0  0  0
  2 10  1  0  0  0  0
  3  8  1  0  0  0  0
  3  9  1  0  0  0  0
  3 12  1  0  0  0  0
  4 11  1  0  0  0  0
  4 13  1  0  0  0  0
  4 17  1  0  0  0  0
  5 11  2  0  0  0  0
  5 14  1  0  0  0  0
  6  8  1  0  0  0  0
  6 25  1  0  0  0  0
  6 26  1  0  0  0  0
  7  9  1  0  0  0  0
  7 27  1  0  0  0  0
  7 28  1  0  0  0  0
  8 29  1  0  0  0  0
  8 30  1  0  0  0  0
  9 31  1  0  0  0  0
  9 32  1  0  0  0  0
 10 11  1  0  0  0  0
 10 33  1  0  0  0  0
 10 34  1  0  0  0  0
 12 15  2  0  0  0  0
 12 16  1  0  0  0  0
 13 14  1  0  0  0  0
 13 18  2  0  0  0  0
 14 19  2  0  0  0  0
 15 20  1  0  0  0  0
 15 35  1  0  0  0  0
 16 21  2  0  0  0  0
 16 36  1  0  0  0  0
 17 37  1  0  0  0  0
 17 38  1  0  0  0  0
 17 39  1  0  0  0  0
 18 22  1  0  0  0  0
 18 40  1  0  0  0  0
 19 24  1  0  0  0  0
 19 41  1  0  0  0  0
 20 23  2  0  0  0  0
 20 42  1  0  0  0  0
 21 23  1  0  0  0  0
 21 43  1  0  0  0  0
 22 24  2  0  0  0  0
 22 44  1  0  0  0  0
 24 45  1  0  0  0  0
M  END
> <PUBCHEM_COMPOUND_CID>
798232

> <PUBCHEM_COMPOUND_CANONICALIZED>
1

> <PUBCHEM_CACTVS_COMPLEXITY>
404

> <PUBCHEM_CACTVS_HBOND_ACCEPTOR>
3

> <PUBCHEM_CACTVS_HBOND_DONOR>
0

> <PUBCHEM_CACTVS_ROTATABLE_BOND>
3

> <PUBCHEM_CACTVS_SUBSKEYS>
AAADceB7gAAEAAAAAAAAAAAAAAAAAWAAAAA8YIAAAAAAAFgB9AAAHAIAAAAACArBFyQz0LcMEACgASZiZACCgC0hF6AJ2CA4dpiIaKLBm5GUIAhogALIyCcQAAAAAABAAAAAACAAAIAAAAAAQAAAAAAAAA==

> <PUBCHEM_IUPAC_OPENEYE_NAME>
2-[[4-(4-chlorophenyl)piperazin-1-yl]methyl]-1-methyl-benzimidazole

> <PUBCHEM_IUPAC_CAS_NAME>
2-[[4-(4-chlorophenyl)-1-piperazinyl]methyl]-1-methylbenzimidazole

> <PUBCHEM_IUPAC_NAME_MARKUP>
2-[[4-(4-chlorophenyl)piperazin-1-yl]methyl]-1-methylbenzimidazole

> <PUBCHEM_IUPAC_NAME>
2-[[4-(4-chlorophenyl)piperazin-1-yl]methyl]-1-methylbenzimidazole

> <PUBCHEM_IUPAC_SYSTEMATIC_NAME>
2-[[4-(4-chlorophenyl)piperazin-1-yl]methyl]-1-methyl-benzimidazole

> <PUBCHEM_IUPAC_TRADITIONAL_NAME>
2-[[4-(4-chlorophenyl)piperazino]methyl]-1-methyl-benzimidazole

> <PUBCHEM_IUPAC_INCHI>
InChI=1S/C19H21ClN4/c1-22-18-5-3-2-4-17(18)21-19(22)14-23-10-12-24(13-11-23)16-8-6-15(20)7-9-16/h2-9H,10-14H2,1H3

> <PUBCHEM_IUPAC_INCHIKEY>
YKMSTUDOGGAEJH-UHFFFAOYSA-N

> <PUBCHEM_XLOGP3_AA>
3.5

> <PUBCHEM_EXACT_MASS>
340.1454744

> <PUBCHEM_MOLECULAR_FORMULA>
C19H21ClN4

> <PUBCHEM_MOLECULAR_WEIGHT>
340.8

> <PUBCHEM_OPENEYE_CAN_SMILES>
CN1C2=CC=CC=C2N=C1CN3CCN(CC3)C4=CC=C(C=C4)Cl

> <PUBCHEM_OPENEYE_ISO_SMILES>
CN1C2=CC=CC=C2N=C1CN3CCN(CC3)C4=CC=C(C=C4)Cl

> <PUBCHEM_CACTVS_TPSA>
24.3

> <PUBCHEM_MONOISOTOPIC_WEIGHT>
340.1454744

> <PUBCHEM_TOTAL_CHARGE>
0

> <PUBCHEM_HEAVY_ATOM_COUNT>
24

> <PUBCHEM_ATOM_DEF_STEREO_COUNT>
0

> <PUBCHEM_ATOM_UDEF_STEREO_COUNT>
0

> <PUBCHEM_BOND_DEF_STEREO_COUNT>
0

> <PUBCHEM_BOND_UDEF_STEREO_COUNT>
0

> <PUBCHEM_ISOTOPIC_ATOM_COUNT>
0

> <PUBCHEM_COMPONENT_COUNT>
1

> <PUBCHEM_CACTVS_TAUTO_COUNT>
-1

> <PUBCHEM_COORDINATE_TYPE>
1
5
255

> <PUBCHEM_BONDANNOTATIONS>
12  15  8
12  16  8
13  14  8
13  18  8
14  19  8
15  20  8
16  21  8
18  22  8
19  24  8
20  23  8
21  23  8
22  24  8
4  11  8
4  13  8
5  11  8
5  14  8

$$$$
