53361301
  -OEChem-09292322322D

148155  0     0  0  0  0  0  0999 V2000
    6.0440   13.3885    0.0000 O   0  0  0  0  0  0  0  0  0  0  0  0
    7.1962  -15.3885    0.0000 O   0  0  0  0  0  0  0  0  0  0  0  0
   10.3742    8.8885    0.0000 O   0  0  0  0  0  0  0  0  0  0  0  0
    4.5981   -7.8885    0.0000 O   0  0  0  0  0  0  0  0  0  0  0  0
   12.1062    9.8885    0.0000 O   0  0  0  0  0  0  0  0  0  0  0  0
    2.8660   -8.8885    0.0000 O   0  0  0  0  0  0  0  0  0  0  0  0
    9.5081   13.3885    0.0000 N   0  0  0  0  0  0  0  0  0  0  0  0
    5.4641  -12.3885    0.0000 N   0  0  0  0  0  0  0  0  0  0  0  0
    7.7761   14.3885    0.0000 N   0  0  0  0  0  0  0  0  0  0  0  0
    7.1962  -13.3885    0.0000 N   0  0  0  0  0  0  0  0  0  0  0  0
    8.1421    4.3496    0.0000 N   0  0  0  0  0  0  0  0  0  0  0  0
    6.8301   -3.3496    0.0000 N   0  0  0  0  0  0  0  0  0  0  0  0
    9.1421    4.3496    0.0000 N   0  0  0  0  0  0  0  0  0  0  0  0
    5.8301   -3.3496    0.0000 N   0  0  0  0  0  0  0  0  0  0  0  0
    9.4511    5.3007    0.0000 N   0  0  0  0  0  0  0  0  0  0  0  0
    5.5211   -4.3007    0.0000 N   0  0  0  0  0  0  0  0  0  0  0  0
    9.5081   14.3885    0.0000 C   0  0  0  0  0  0  0  0  0  0  0  0
    8.6421   12.8885    0.0000 C   0  0  0  0  0  0  0  0  0  0  0  0
    5.4641  -13.3885    0.0000 C   0  0  0  0  0  0  0  0  0  0  0  0
    6.3301  -11.8885    0.0000 C   0  0  0  0  0  0  0  0  0  0  0  0
    8.6421   14.8885    0.0000 C   0  0  0  0  0  0  0  0  0  0  0  0
    7.7761   13.3885    0.0000 C   0  0  0  0  0  0  0  0  0  0  0  0
    6.3301  -13.8885    0.0000 C   0  0  0  0  0  0  0  0  0  0  0  0
    7.1962  -12.3885    0.0000 C   0  0  0  0  0  0  0  0  0  0  0  0
   10.3742   12.8885    0.0000 C   0  0  0  0  0  0  0  0  0  0  0  0
    4.5981  -11.8885    0.0000 C   0  0  0  0  0  0  0  0  0  0  0  0
    6.9101   14.8885    0.0000 C   0  0  0  0  0  0  0  0  0  0  0  0
    8.0622  -13.8885    0.0000 C   0  0  0  0  0  0  0  0  0  0  0  0
   10.3742   11.8885    0.0000 C   0  0  0  0  0  0  0  0  0  0  0  0
    4.5981  -10.8885    0.0000 C   0  0  0  0  0  0  0  0  0  0  0  0
    6.0440   14.3885    0.0000 C   0  0  0  0  0  0  0  0  0  0  0  0
    8.0622  -14.8885    0.0000 C   0  0  0  0  0  0  0  0  0  0  0  0
    6.9101   15.8885    0.0000 C   0  0  0  0  0  0  0  0  0  0  0  0
    8.9282  -13.3885    0.0000 C   0  0  0  0  0  0  0  0  0  0  0  0
   11.2402   11.3885    0.0000 C   0  0  0  0  0  0  0  0  0  0  0  0
    3.7320  -10.3885    0.0000 C   0  0  0  0  0  0  0  0  0  0  0  0
    9.5081   11.3885    0.0000 C   0  0  0  0  0  0  0  0  0  0  0  0
    5.4641  -10.3885    0.0000 C   0  0  0  0  0  0  0  0  0  0  0  0
    5.1780   14.8885    0.0000 C   0  0  0  0  0  0  0  0  0  0  0  0
    8.9282  -15.3885    0.0000 C   0  0  0  0  0  0  0  0  0  0  0  0
    6.0440   16.3885    0.0000 C   0  0  0  0  0  0  0  0  0  0  0  0
    9.7942  -13.8885    0.0000 C   0  0  0  0  0  0  0  0  0  0  0  0
    7.7800    0.9045    0.0000 C   0  0  0  0  0  0  0  0  0  0  0  0
    7.1922    0.0955    0.0000 C   0  0  0  0  0  0  0  0  0  0  0  0
   11.2402   10.3885    0.0000 C   0  0  0  0  0  0  0  0  0  0  0  0
    3.7320   -9.3885    0.0000 C   0  0  0  0  0  0  0  0  0  0  0  0
    7.3733    1.8180    0.0000 C   0  0  0  0  0  0  0  0  0  0  0  0
    7.5990   -0.8181    0.0000 C   0  0  0  0  0  0  0  0  0  0  0  0
    9.5081   10.3885    0.0000 C   0  0  0  0  0  0  0  0  0  0  0  0
    5.4641   -9.3885    0.0000 C   0  0  0  0  0  0  0  0  0  0  0  0
    5.1780   15.8885    0.0000 C   0  0  0  0  0  0  0  0  0  0  0  0
    9.7942  -14.8885    0.0000 C   0  0  0  0  0  0  0  0  0  0  0  0
   10.3742    9.8885    0.0000 C   0  0  0  0  0  0  0  0  0  0  0  0
    4.5981   -8.8885    0.0000 C   0  0  0  0  0  0  0  0  0  0  0  0
    7.9611    2.6271    0.0000 C   0  0  0  0  0  0  0  0  0  0  0  0
    7.0112   -1.6271    0.0000 C   0  0  0  0  0  0  0  0  0  0  0  0
    7.5543    3.5406    0.0000 C   0  0  0  0  0  0  0  0  0  0  0  0
    7.4179   -2.5406    0.0000 C   0  0  0  0  0  0  0  0  0  0  0  0
    9.5081    8.3885    0.0000 C   0  0  0  0  0  0  0  0  0  0  0  0
    5.4641   -7.3885    0.0000 C   0  0  0  0  0  0  0  0  0  0  0  0
    9.5081    7.3885    0.0000 C   0  0  0  0  0  0  0  0  0  0  0  0
    5.4641   -6.3885    0.0000 C   0  0  0  0  0  0  0  0  0  0  0  0
    5.1780   12.8885    0.0000 C   0  0  0  0  0  0  0  0  0  0  0  0
    7.1962  -16.3885    0.0000 C   0  0  0  0  0  0  0  0  0  0  0  0
    8.6421    6.8885    0.0000 C   0  0  0  0  0  0  0  0  0  0  0  0
    6.3301   -5.8885    0.0000 C   0  0  0  0  0  0  0  0  0  0  0  0
    8.6421    5.8885    0.0000 C   0  0  0  0  0  0  0  0  0  0  0  0
    6.3301   -4.8885    0.0000 C   0  0  0  0  0  0  0  0  0  0  0  0
    7.8331    5.3007    0.0000 C   0  0  0  0  0  0  0  0  0  0  0  0
    7.1391   -4.3007    0.0000 C   0  0  0  0  0  0  0  0  0  0  0  0
   12.9722   10.3885    0.0000 C   0  0  0  0  0  0  0  0  0  0  0  0
    2.0000   -9.3885    0.0000 C   0  0  0  0  0  0  0  0  0  0  0  0
   10.1187   14.2808    0.0000 H   0  0  0  0  0  0  0  0  0  0  0  0
    9.7202   14.9711    0.0000 H   0  0  0  0  0  0  0  0  0  0  0  0
    8.2436   12.4135    0.0000 H   0  0  0  0  0  0  0  0  0  0  0  0
    9.0406   12.4135    0.0000 H   0  0  0  0  0  0  0  0  0  0  0  0
    4.8535  -13.2808    0.0000 H   0  0  0  0  0  0  0  0  0  0  0  0
    5.2520  -13.9711    0.0000 H   0  0  0  0  0  0  0  0  0  0  0  0
    6.7287  -11.4135    0.0000 H   0  0  0  0  0  0  0  0  0  0  0  0
    5.9316  -11.4135    0.0000 H   0  0  0  0  0  0  0  0  0  0  0  0
    9.0406   15.3634    0.0000 H   0  0  0  0  0  0  0  0  0  0  0  0
    8.2436   15.3634    0.0000 H   0  0  0  0  0  0  0  0  0  0  0  0
    7.1655   13.4961    0.0000 H   0  0  0  0  0  0  0  0  0  0  0  0
    7.5640   12.8059    0.0000 H   0  0  0  0  0  0  0  0  0  0  0  0
    5.9316  -14.3634    0.0000 H   0  0  0  0  0  0  0  0  0  0  0  0
    6.7287  -14.3634    0.0000 H   0  0  0  0  0  0  0  0  0  0  0  0
    7.8067  -12.4961    0.0000 H   0  0  0  0  0  0  0  0  0  0  0  0
    7.4082  -11.8059    0.0000 H   0  0  0  0  0  0  0  0  0  0  0  0
   10.9847   12.7808    0.0000 H   0  0  0  0  0  0  0  0  0  0  0  0
   10.5862   13.4711    0.0000 H   0  0  0  0  0  0  0  0  0  0  0  0
    3.9875  -11.7808    0.0000 H   0  0  0  0  0  0  0  0  0  0  0  0
    4.3860  -12.4711    0.0000 H   0  0  0  0  0  0  0  0  0  0  0  0
    7.4470   16.1985    0.0000 H   0  0  0  0  0  0  0  0  0  0  0  0
    8.9282  -12.7685    0.0000 H   0  0  0  0  0  0  0  0  0  0  0  0
   11.7771   11.6985    0.0000 H   0  0  0  0  0  0  0  0  0  0  0  0
    3.1951  -10.6985    0.0000 H   0  0  0  0  0  0  0  0  0  0  0  0
    8.9712   11.6985    0.0000 H   0  0  0  0  0  0  0  0  0  0  0  0
    6.0010  -10.6985    0.0000 H   0  0  0  0  0  0  0  0  0  0  0  0
    4.6411   14.5785    0.0000 H   0  0  0  0  0  0  0  0  0  0  0  0
    8.9282  -16.0085    0.0000 H   0  0  0  0  0  0  0  0  0  0  0  0
    6.0440   17.0085    0.0000 H   0  0  0  0  0  0  0  0  0  0  0  0
   10.3312  -13.5785    0.0000 H   0  0  0  0  0  0  0  0  0  0  0  0
    8.2107    0.4585    0.0000 H   0  0  0  0  0  0  0  0  0  0  0  0
    8.2940    1.2512    0.0000 H   0  0  0  0  0  0  0  0  0  0  0  0
    6.7615    0.5415    0.0000 H   0  0  0  0  0  0  0  0  0  0  0  0
    6.6782   -0.2512    0.0000 H   0  0  0  0  0  0  0  0  0  0  0  0
    6.9426    2.2640    0.0000 H   0  0  0  0  0  0  0  0  0  0  0  0
    6.8593    1.4714    0.0000 H   0  0  0  0  0  0  0  0  0  0  0  0
    8.0296   -1.2640    0.0000 H   0  0  0  0  0  0  0  0  0  0  0  0
    8.1130   -0.4714    0.0000 H   0  0  0  0  0  0  0  0  0  0  0  0
    8.9712   10.0785    0.0000 H   0  0  0  0  0  0  0  0  0  0  0  0
    6.0010   -9.0785    0.0000 H   0  0  0  0  0  0  0  0  0  0  0  0
    4.6411   16.1985    0.0000 H   0  0  0  0  0  0  0  0  0  0  0  0
   10.3312  -15.1985    0.0000 H   0  0  0  0  0  0  0  0  0  0  0  0
    8.3918    2.1811    0.0000 H   0  0  0  0  0  0  0  0  0  0  0  0
    8.4751    2.9738    0.0000 H   0  0  0  0  0  0  0  0  0  0  0  0
    6.5805   -1.1811    0.0000 H   0  0  0  0  0  0  0  0  0  0  0  0
    6.4972   -1.9738    0.0000 H   0  0  0  0  0  0  0  0  0  0  0  0
    7.1236    3.9866    0.0000 H   0  0  0  0  0  0  0  0  0  0  0  0
    7.0403    3.1939    0.0000 H   0  0  0  0  0  0  0  0  0  0  0  0
    7.8486   -2.9866    0.0000 H   0  0  0  0  0  0  0  0  0  0  0  0
    7.9319   -2.1939    0.0000 H   0  0  0  0  0  0  0  0  0  0  0  0
    9.2961    8.9711    0.0000 H   0  0  0  0  0  0  0  0  0  0  0  0
    8.8976    8.2808    0.0000 H   0  0  0  0  0  0  0  0  0  0  0  0
    5.6762   -7.9711    0.0000 H   0  0  0  0  0  0  0  0  0  0  0  0
    6.0747   -7.2808    0.0000 H   0  0  0  0  0  0  0  0  0  0  0  0
    9.7202    6.8059    0.0000 H   0  0  0  0  0  0  0  0  0  0  0  0
   10.1187    7.4961    0.0000 H   0  0  0  0  0  0  0  0  0  0  0  0
    5.2520   -5.8059    0.0000 H   0  0  0  0  0  0  0  0  0  0  0  0
    4.8535   -6.4961    0.0000 H   0  0  0  0  0  0  0  0  0  0  0  0
    4.8680   13.4254    0.0000 H   0  0  0  0  0  0  0  0  0  0  0  0
    4.6411   12.5785    0.0000 H   0  0  0  0  0  0  0  0  0  0  0  0
    5.4880   12.3515    0.0000 H   0  0  0  0  0  0  0  0  0  0  0  0
    6.5762  -16.3885    0.0000 H   0  0  0  0  0  0  0  0  0  0  0  0
    7.1962  -17.0085    0.0000 H   0  0  0  0  0  0  0  0  0  0  0  0
    7.8162  -16.3885    0.0000 H   0  0  0  0  0  0  0  0  0  0  0  0
    8.4300    7.4711    0.0000 H   0  0  0  0  0  0  0  0  0  0  0  0
    8.0315    6.7808    0.0000 H   0  0  0  0  0  0  0  0  0  0  0  0
    6.5422   -6.4711    0.0000 H   0  0  0  0  0  0  0  0  0  0  0  0
    6.9407   -5.7808    0.0000 H   0  0  0  0  0  0  0  0  0  0  0  0
    7.2434    5.4923    0.0000 H   0  0  0  0  0  0  0  0  0  0  0  0
    7.7288   -4.4923    0.0000 H   0  0  0  0  0  0  0  0  0  0  0  0
   13.2822    9.8515    0.0000 H   0  0  0  0  0  0  0  0  0  0  0  0
   13.5092   10.6985    0.0000 H   0  0  0  0  0  0  0  0  0  0  0  0
   12.6622   10.9254    0.0000 H   0  0  0  0  0  0  0  0  0  0  0  0
    1.6900   -8.8515    0.0000 H   0  0  0  0  0  0  0  0  0  0  0  0
    1.4631   -9.6985    0.0000 H   0  0  0  0  0  0  0  0  0  0  0  0
    2.3100   -9.9254    0.0000 H   0  0  0  0  0  0  0  0  0  0  0  0
  1 31  1  0  0  0  0
  1 63  1  0  0  0  0
  2 32  1  0  0  0  0
  2 64  1  0  0  0  0
  3 53  1  0  0  0  0
  3 59  1  0  0  0  0
  4 54  1  0  0  0  0
  4 60  1  0  0  0  0
  5 45  1  0  0  0  0
  5 71  1  0  0  0  0
  6 46  1  0  0  0  0
  6 72  1  0  0  0  0
  7 17  1  0  0  0  0
  7 18  1  0  0  0  0
  7 25  1  0  0  0  0
  8 19  1  0  0  0  0
  8 20  1  0  0  0  0
  8 26  1  0  0  0  0
  9 21  1  0  0  0  0
  9 22  1  0  0  0  0
  9 27  1  0  0  0  0
 10 23  1  0  0  0  0
 10 24  1  0  0  0  0
 10 28  1  0  0  0  0
 11 13  1  0  0  0  0
 11 57  1  0  0  0  0
 11 69  1  0  0  0  0
 12 14  1  0  0  0  0
 12 58  1  0  0  0  0
 12 70  1  0  0  0  0
 13 15  2  0  0  0  0
 14 16  2  0  0  0  0
 15 67  1  0  0  0  0
 16 68  1  0  0  0  0
 17 21  1  0  0  0  0
 17 73  1  0  0  0  0
 17 74  1  0  0  0  0
 18 22  1  0  0  0  0
 18 75  1  0  0  0  0
 18 76  1  0  0  0  0
 19 23  1  0  0  0  0
 19 77  1  0  0  0  0
 19 78  1  0  0  0  0
 20 24  1  0  0  0  0
 20 79  1  0  0  0  0
 20 80  1  0  0  0  0
 21 81  1  0  0  0  0
 21 82  1  0  0  0  0
 22 83  1  0  0  0  0
 22 84  1  0  0  0  0
 23 85  1  0  0  0  0
 23 86  1  0  0  0  0
 24 87  1  0  0  0  0
 24 88  1  0  0  0  0
 25 29  1  0  0  0  0
 25 89  1  0  0  0  0
 25 90  1  0  0  0  0
 26 30  1  0  0  0  0
 26 91  1  0  0  0  0
 26 92  1  0  0  0  0
 27 31  1  0  0  0  0
 27 33  2  0  0  0  0
 28 32  1  0  0  0  0
 28 34  2  0  0  0  0
 29 35  2  0  0  0  0
 29 37  1  0  0  0  0
 30 36  2  0  0  0  0
 30 38  1  0  0  0  0
 31 39  2  0  0  0  0
 32 40  2  0  0  0  0
 33 41  1  0  0  0  0
 33 93  1  0  0  0  0
 34 42  1  0  0  0  0
 34 94  1  0  0  0  0
 35 45  1  0  0  0  0
 35 95  1  0  0  0  0
 36 46  1  0  0  0  0
 36 96  1  0  0  0  0
 37 49  2  0  0  0  0
 37 97  1  0  0  0  0
 38 50  2  0  0  0  0
 38 98  1  0  0  0  0
 39 51  1  0  0  0  0
 39 99  1  0  0  0  0
 40 52  1  0  0  0  0
 40100  1  0  0  0  0
 41 51  2  0  0  0  0
 41101  1  0  0  0  0
 42 52  2  0  0  0  0
 42102  1  0  0  0  0
 43 44  1  0  0  0  0
 43 47  1  0  0  0  0
 43103  1  0  0  0  0
 43104  1  0  0  0  0
 44 48  1  0  0  0  0
 44105  1  0  0  0  0
 44106  1  0  0  0  0
 45 53  2  0  0  0  0
 46 54  2  0  0  0  0
 47 55  1  0  0  0  0
 47107  1  0  0  0  0
 47108  1  0  0  0  0
 48 56  1  0  0  0  0
 48109  1  0  0  0  0
 48110  1  0  0  0  0
 49 53  1  0  0  0  0
 49111  1  0  0  0  0
 50 54  1  0  0  0  0
 50112  1  0  0  0  0
 51113  1  0  0  0  0
 52114  1  0  0  0  0
 55 57  1  0  0  0  0
 55115  1  0  0  0  0
 55116  1  0  0  0  0
 56 58  1  0  0  0  0
 56117  1  0  0  0  0
 56118  1  0  0  0  0
 57119  1  0  0  0  0
 57120  1  0  0  0  0
 58121  1  0  0  0  0
 58122  1  0  0  0  0
 59 61  1  0  0  0  0
 59123  1  0  0  0  0
 59124  1  0  0  0  0
 60 62  1  0  0  0  0
 60125  1  0  0  0  0
 60126  1  0  0  0  0
 61 65  1  0  0  0  0
 61127  1  0  0  0  0
 61128  1  0  0  0  0
 62 66  1  0  0  0  0
 62129  1  0  0  0  0
 62130  1  0  0  0  0
 63131  1  0  0  0  0
 63132  1  0  0  0  0
 63133  1  0  0  0  0
 64134  1  0  0  0  0
 64135  1  0  0  0  0
 64136  1  0  0  0  0
 65 67  1  0  0  0  0
 65137  1  0  0  0  0
 65138  1  0  0  0  0
 66 68  1  0  0  0  0
 66139  1  0  0  0  0
 66140  1  0  0  0  0
 67 69  2  0  0  0  0
 68 70  2  0  0  0  0
 69141  1  0  0  0  0
 70142  1  0  0  0  0
 71143  1  0  0  0  0
 71144  1  0  0  0  0
 71145  1  0  0  0  0
 72146  1  0  0  0  0
 72147  1  0  0  0  0
 72148  1  0  0  0  0
M  END
> <PUBCHEM_COMPOUND_CID>
53361301

> <PUBCHEM_COMPOUND_CANONICALIZED>
1

> <PUBCHEM_CACTVS_COMPLEXITY>
1340

> <PUBCHEM_CACTVS_HBOND_ACCEPTOR>
14

> <PUBCHEM_CACTVS_HBOND_DONOR>
0

> <PUBCHEM_CACTVS_ROTATABLE_BOND>
29

> <PUBCHEM_CACTVS_SUBSKEYS>
AAADcfB/+AAAAAAAAAAAAAAAAAAAAWLAAAA8eMGCAAAAAAAB9AAAHgAIAAAADAzhngY+xpMIBACiAzRnRACCDAQxsgAY2AA//IgPZiLEsZuXOCrkwBHa6Aew0JIOIAABAAAAUABAAAIAAACgAAAAAAAAAA==

> <PUBCHEM_IUPAC_OPENEYE_NAME>
1-[[3-methoxy-4-[3-[1-[8-[4-[3-[2-methoxy-4-[[4-(2-methoxyphenyl)piperazin-1-yl]methyl]phenoxy]propyl]triazol-1-yl]octyl]triazol-4-yl]propoxy]phenyl]methyl]-4-(2-methoxyphenyl)piperazine

> <PUBCHEM_IUPAC_CAS_NAME>
1-[[3-methoxy-4-[3-[1-[8-[4-[3-[2-methoxy-4-[[4-(2-methoxyphenyl)-1-piperazinyl]methyl]phenoxy]propyl]-1-triazolyl]octyl]-4-triazolyl]propoxy]phenyl]methyl]-4-(2-methoxyphenyl)piperazine

> <PUBCHEM_IUPAC_NAME_MARKUP>
1-[[3-methoxy-4-[3-[1-[8-[4-[3-[2-methoxy-4-[[4-(2-methoxyphenyl)piperazin-1-yl]methyl]phenoxy]propyl]triazol-1-yl]octyl]triazol-4-yl]propoxy]phenyl]methyl]-4-(2-methoxyphenyl)piperazine

> <PUBCHEM_IUPAC_NAME>
1-[[3-methoxy-4-[3-[1-[8-[4-[3-[2-methoxy-4-[[4-(2-methoxyphenyl)piperazin-1-yl]methyl]phenoxy]propyl]triazol-1-yl]octyl]triazol-4-yl]propoxy]phenyl]methyl]-4-(2-methoxyphenyl)piperazine

> <PUBCHEM_IUPAC_SYSTEMATIC_NAME>
1-[[3-methoxy-4-[3-[1-[8-[4-[3-[2-methoxy-4-[[4-(2-methoxyphenyl)piperazin-1-yl]methyl]phenoxy]propyl]-1,2,3-triazol-1-yl]octyl]-1,2,3-triazol-4-yl]propoxy]phenyl]methyl]-4-(2-methoxyphenyl)piperazine

> <PUBCHEM_IUPAC_TRADITIONAL_NAME>
1-[3-methoxy-4-[3-[1-[8-[4-[3-[2-methoxy-4-[[4-(2-methoxyphenyl)piperazino]methyl]phenoxy]propyl]triazol-1-yl]octyl]triazol-4-yl]propoxy]benzyl]-4-(2-methoxyphenyl)piperazine

> <PUBCHEM_IUPAC_INCHI>
InChI=1S/C56H76N10O6/c1-67-51-21-11-9-19-49(51)63-33-29-61(30-34-63)41-45-23-25-53(55(39-45)69-3)71-37-15-17-47-43-65(59-57-47)27-13-7-5-6-8-14-28-66-44-48(58-60-66)18-16-38-72-54-26-24-46(40-56(54)70-4)42-62-31-35-64(36-32-62)50-20-10-12-22-52(50)68-2/h9-12,19-26,39-40,43-44H,5-8,13-18,27-38,41-42H2,1-4H3

> <PUBCHEM_IUPAC_INCHIKEY>
JJIBAQPGIKFZRA-UHFFFAOYSA-N

> <PUBCHEM_XLOGP3_AA>
8.9

> <PUBCHEM_EXACT_MASS>
984.59493018

> <PUBCHEM_MOLECULAR_FORMULA>
C56H76N10O6

> <PUBCHEM_MOLECULAR_WEIGHT>
985.3

> <PUBCHEM_OPENEYE_CAN_SMILES>
COC1=CC=CC=C1N2CCN(CC2)CC3=CC(=C(C=C3)OCCCC4=CN(N=N4)CCCCCCCCN5C=C(N=N5)CCCOC6=C(C=C(C=C6)CN7CCN(CC7)C8=CC=CC=C8OC)OC)OC

> <PUBCHEM_OPENEYE_ISO_SMILES>
COC1=CC=CC=C1N2CCN(CC2)CC3=CC(=C(C=C3)OCCCC4=CN(N=N4)CCCCCCCCN5C=C(N=N5)CCCOC6=C(C=C(C=C6)CN7CCN(CC7)C8=CC=CC=C8OC)OC)OC

> <PUBCHEM_CACTVS_TPSA>
130

> <PUBCHEM_MONOISOTOPIC_WEIGHT>
984.59493018

> <PUBCHEM_TOTAL_CHARGE>
0

> <PUBCHEM_HEAVY_ATOM_COUNT>
72

> <PUBCHEM_ATOM_DEF_STEREO_COUNT>
0

> <PUBCHEM_ATOM_UDEF_STEREO_COUNT>
0

> <PUBCHEM_BOND_DEF_STEREO_COUNT>
0

> <PUBCHEM_BOND_UDEF_STEREO_COUNT>
0

> <PUBCHEM_ISOTOPIC_ATOM_COUNT>
0

> <PUBCHEM_COMPONENT_COUNT>
1

> <PUBCHEM_CACTVS_TAUTO_COUNT>
-1

> <PUBCHEM_COORDINATE_TYPE>
1
5
255

> <PUBCHEM_BONDANNOTATIONS>
11  13  8
11  69  8
12  14  8
12  70  8
13  15  8
14  16  8
15  67  8
16  68  8
27  31  8
27  33  8
28  32  8
28  34  8
29  35  8
29  37  8
30  36  8
30  38  8
31  39  8
32  40  8
33  41  8
34  42  8
35  45  8
36  46  8
37  49  8
38  50  8
39  51  8
40  52  8
41  51  8
42  52  8
45  53  8
46  54  8
49  53  8
50  54  8
67  69  8
68  70  8

$$$$
