71458647
  -OEChem-09292322332D

 61 63  0     0  0  0  0  0  0999 V2000
    3.0000   -3.0000    0.0000 S   0  0  0  0  0  0  0  0  0  0  0  0
    3.0000   -7.0000    0.0000 F   0  0  0  0  0  0  0  0  0  0  0  0
    4.7320    4.0000    0.0000 O   0  0  0  0  0  0  0  0  0  0  0  0
    4.0000   -3.0000    0.0000 O   0  0  0  0  0  0  0  0  0  0  0  0
    2.0000   -3.0000    0.0000 O   0  0  0  0  0  0  0  0  0  0  0  0
    3.8660    1.5000    0.0000 N   0  0  0  0  0  0  0  0  0  0  0  0
    3.0000   -2.0000    0.0000 N   0  0  0  0  0  0  0  0  0  0  0  0
    3.8660   -0.5000    0.0000 C   0  0  0  0  0  0  0  0  0  0  0  0
    4.7320    0.0000    0.0000 C   0  0  0  0  0  0  0  0  0  0  0  0
    3.0000   -0.0000    0.0000 C   0  0  0  0  0  0  0  0  0  0  0  0
    4.7320    1.0000    0.0000 C   0  0  0  0  0  0  0  0  0  0  0  0
    3.0000    1.0000    0.0000 C   0  0  0  0  0  0  0  0  0  0  0  0
    3.8660   -1.5000    0.0000 C   0  0  0  0  0  0  0  0  0  0  0  0
    3.8660    2.5000    0.0000 C   0  0  0  0  0  0  0  0  0  0  0  0
    4.7320    3.0000    0.0000 C   0  0  0  0  0  0  0  0  0  0  0  0
    3.0000   -4.0000    0.0000 C   0  0  0  0  0  0  0  0  0  0  0  0
    5.5981    4.5000    0.0000 C   0  0  0  0  0  0  0  0  0  0  0  0
    5.5981    5.5000    0.0000 C   0  0  0  0  0  0  0  0  0  0  0  0
    4.7320    6.0000    0.0000 C   0  0  0  0  0  0  0  0  0  0  0  0
    3.8660   -4.5000    0.0000 C   0  0  0  0  0  0  0  0  0  0  0  0
    2.1340   -4.5000    0.0000 C   0  0  0  0  0  0  0  0  0  0  0  0
    6.4641    4.0000    0.0000 C   0  0  0  0  0  0  0  0  0  0  0  0
    6.4641    6.0000    0.0000 C   0  0  0  0  0  0  0  0  0  0  0  0
    4.7320    7.0000    0.0000 C   0  0  0  0  0  0  0  0  0  0  0  0
    3.8660    5.5000    0.0000 C   0  0  0  0  0  0  0  0  0  0  0  0
    3.8660   -5.5000    0.0000 C   0  0  0  0  0  0  0  0  0  0  0  0
    2.1340   -5.5000    0.0000 C   0  0  0  0  0  0  0  0  0  0  0  0
    7.3301    4.5000    0.0000 C   0  0  0  0  0  0  0  0  0  0  0  0
    7.3301    5.5000    0.0000 C   0  0  0  0  0  0  0  0  0  0  0  0
    3.0000   -6.0000    0.0000 C   0  0  0  0  0  0  0  0  0  0  0  0
    4.4030   -0.8100    0.0000 H   0  0  0  0  0  0  0  0  0  0  0  0
    4.9441   -0.5826    0.0000 H   0  0  0  0  0  0  0  0  0  0  0  0
    5.3426    0.1077    0.0000 H   0  0  0  0  0  0  0  0  0  0  0  0
    2.3894    0.1077    0.0000 H   0  0  0  0  0  0  0  0  0  0  0  0
    2.7880   -0.5826    0.0000 H   0  0  0  0  0  0  0  0  0  0  0  0
    5.3426    0.8923    0.0000 H   0  0  0  0  0  0  0  0  0  0  0  0
    4.9441    1.5826    0.0000 H   0  0  0  0  0  0  0  0  0  0  0  0
    2.7880    1.5826    0.0000 H   0  0  0  0  0  0  0  0  0  0  0  0
    2.3894    0.8923    0.0000 H   0  0  0  0  0  0  0  0  0  0  0  0
    4.0781   -2.0826    0.0000 H   0  0  0  0  0  0  0  0  0  0  0  0
    4.4766   -1.3923    0.0000 H   0  0  0  0  0  0  0  0  0  0  0  0
    3.6540    3.0826    0.0000 H   0  0  0  0  0  0  0  0  0  0  0  0
    3.2554    2.3923    0.0000 H   0  0  0  0  0  0  0  0  0  0  0  0
    2.4631   -1.6900    0.0000 H   0  0  0  0  0  0  0  0  0  0  0  0
    4.9441    2.4174    0.0000 H   0  0  0  0  0  0  0  0  0  0  0  0
    5.3426    3.1077    0.0000 H   0  0  0  0  0  0  0  0  0  0  0  0
    4.7320    5.3800    0.0000 H   0  0  0  0  0  0  0  0  0  0  0  0
    4.4030   -4.1900    0.0000 H   0  0  0  0  0  0  0  0  0  0  0  0
    1.5970   -4.1900    0.0000 H   0  0  0  0  0  0  0  0  0  0  0  0
    6.4641    3.3800    0.0000 H   0  0  0  0  0  0  0  0  0  0  0  0
    6.4641    6.6200    0.0000 H   0  0  0  0  0  0  0  0  0  0  0  0
    5.3520    7.0000    0.0000 H   0  0  0  0  0  0  0  0  0  0  0  0
    4.7320    7.6200    0.0000 H   0  0  0  0  0  0  0  0  0  0  0  0
    4.1120    7.0000    0.0000 H   0  0  0  0  0  0  0  0  0  0  0  0
    3.5560    6.0369    0.0000 H   0  0  0  0  0  0  0  0  0  0  0  0
    3.3291    5.1900    0.0000 H   0  0  0  0  0  0  0  0  0  0  0  0
    4.1760    4.9631    0.0000 H   0  0  0  0  0  0  0  0  0  0  0  0
    7.8671    4.1900    0.0000 H   0  0  0  0  0  0  0  0  0  0  0  0
    4.4030   -5.8100    0.0000 H   0  0  0  0  0  0  0  0  0  0  0  0
    1.5970   -5.8100    0.0000 H   0  0  0  0  0  0  0  0  0  0  0  0
    7.8671    5.8100    0.0000 H   0  0  0  0  0  0  0  0  0  0  0  0
  1  4  2  0  0  0  0
  1  5  2  0  0  0  0
  1  7  1  0  0  0  0
  1 16  1  0  0  0  0
  2 30  1  0  0  0  0
  3 15  1  0  0  0  0
  3 17  1  0  0  0  0
  6 11  1  0  0  0  0
  6 12  1  0  0  0  0
  6 14  1  0  0  0  0
  7 13  1  0  0  0  0
  7 44  1  0  0  0  0
  8  9  1  0  0  0  0
  8 10  1  0  0  0  0
  8 13  1  0  0  0  0
  8 31  1  0  0  0  0
  9 11  1  0  0  0  0
  9 32  1  0  0  0  0
  9 33  1  0  0  0  0
 10 12  1  0  0  0  0
 10 34  1  0  0  0  0
 10 35  1  0  0  0  0
 11 36  1  0  0  0  0
 11 37  1  0  0  0  0
 12 38  1  0  0  0  0
 12 39  1  0  0  0  0
 13 40  1  0  0  0  0
 13 41  1  0  0  0  0
 14 15  1  0  0  0  0
 14 42  1  0  0  0  0
 14 43  1  0  0  0  0
 15 45  1  0  0  0  0
 15 46  1  0  0  0  0
 16 20  2  0  0  0  0
 16 21  1  0  0  0  0
 17 18  1  0  0  0  0
 17 22  2  0  0  0  0
 18 19  1  0  0  0  0
 18 23  2  0  0  0  0
 19 24  1  0  0  0  0
 19 25  1  0  0  0  0
 19 47  1  0  0  0  0
 20 26  1  0  0  0  0
 20 48  1  0  0  0  0
 21 27  2  0  0  0  0
 21 49  1  0  0  0  0
 22 28  1  0  0  0  0
 22 50  1  0  0  0  0
 23 29  1  0  0  0  0
 23 51  1  0  0  0  0
 24 52  1  0  0  0  0
 24 53  1  0  0  0  0
 24 54  1  0  0  0  0
 25 55  1  0  0  0  0
 25 56  1  0  0  0  0
 25 57  1  0  0  0  0
 26 30  2  0  0  0  0
 26 59  1  0  0  0  0
 27 30  1  0  0  0  0
 27 60  1  0  0  0  0
 28 29  2  0  0  0  0
 28 58  1  0  0  0  0
 29 61  1  0  0  0  0
M  END
> <PUBCHEM_COMPOUND_CID>
71458647

> <PUBCHEM_COMPOUND_CANONICALIZED>
1

> <PUBCHEM_CACTVS_COMPLEXITY>
594

> <PUBCHEM_CACTVS_HBOND_ACCEPTOR>
6

> <PUBCHEM_CACTVS_HBOND_DONOR>
1

> <PUBCHEM_CACTVS_ROTATABLE_BOND>
9

> <PUBCHEM_CACTVS_SUBSKEYS>
AAADceB7MQBAAAAAAAAAAAAAAAAAAAAAAAA8YIAAAAAAAAABQAAAHwQQQAAADQTh2A4yB4NABAKAAiBCAHBCCBAgIAAIiJgOCIgOJiKEsRqHOCCk0BGYqAeQwOAOgAAAAAAIAAAAAAAAABAAAAAAAAAAAA==

> <PUBCHEM_IUPAC_OPENEYE_NAME>
4-fluoro-N-[[1-[2-(2-isopropylphenoxy)ethyl]-4-piperidyl]methyl]benzenesulfonamide

> <PUBCHEM_IUPAC_CAS_NAME>
4-fluoro-N-[[1-[2-(2-propan-2-ylphenoxy)ethyl]-4-piperidinyl]methyl]benzenesulfonamide

> <PUBCHEM_IUPAC_NAME_MARKUP>
4-fluoro-<I>N</I>-[[1-[2-(2-propan-2-ylphenoxy)ethyl]piperidin-4-yl]methyl]benzenesulfonamide

> <PUBCHEM_IUPAC_NAME>
4-fluoro-N-[[1-[2-(2-propan-2-ylphenoxy)ethyl]piperidin-4-yl]methyl]benzenesulfonamide

> <PUBCHEM_IUPAC_SYSTEMATIC_NAME>
4-fluoranyl-N-[[1-[2-(2-propan-2-ylphenoxy)ethyl]piperidin-4-yl]methyl]benzenesulfonamide

> <PUBCHEM_IUPAC_TRADITIONAL_NAME>
4-fluoro-N-[[1-[2-(2-isopropylphenoxy)ethyl]-4-piperidyl]methyl]benzenesulfonamide

> <PUBCHEM_IUPAC_INCHI>
InChI=1S/C23H31FN2O3S/c1-18(2)22-5-3-4-6-23(22)29-16-15-26-13-11-19(12-14-26)17-25-30(27,28)21-9-7-20(24)8-10-21/h3-10,18-19,25H,11-17H2,1-2H3

> <PUBCHEM_IUPAC_INCHIKEY>
IXEYQNFHDYVRSV-UHFFFAOYSA-N

> <PUBCHEM_XLOGP3_AA>
4.6

> <PUBCHEM_EXACT_MASS>
434.20394219

> <PUBCHEM_MOLECULAR_FORMULA>
C23H31FN2O3S

> <PUBCHEM_MOLECULAR_WEIGHT>
434.6

> <PUBCHEM_OPENEYE_CAN_SMILES>
CC(C)C1=CC=CC=C1OCCN2CCC(CC2)CNS(=O)(=O)C3=CC=C(C=C3)F

> <PUBCHEM_OPENEYE_ISO_SMILES>
CC(C)C1=CC=CC=C1OCCN2CCC(CC2)CNS(=O)(=O)C3=CC=C(C=C3)F

> <PUBCHEM_CACTVS_TPSA>
67

> <PUBCHEM_MONOISOTOPIC_WEIGHT>
434.20394219

> <PUBCHEM_TOTAL_CHARGE>
0

> <PUBCHEM_HEAVY_ATOM_COUNT>
30

> <PUBCHEM_ATOM_DEF_STEREO_COUNT>
0

> <PUBCHEM_ATOM_UDEF_STEREO_COUNT>
0

> <PUBCHEM_BOND_DEF_STEREO_COUNT>
0

> <PUBCHEM_BOND_UDEF_STEREO_COUNT>
0

> <PUBCHEM_ISOTOPIC_ATOM_COUNT>
0

> <PUBCHEM_COMPONENT_COUNT>
1

> <PUBCHEM_CACTVS_TAUTO_COUNT>
-1

> <PUBCHEM_COORDINATE_TYPE>
1
5
255

> <PUBCHEM_BONDANNOTATIONS>
16  20  8
16  21  8
17  18  8
17  22  8
18  23  8
20  26  8
21  27  8
22  28  8
23  29  8
26  30  8
27  30  8
28  29  8

$$$$
