45481888
  -OEChem-09292322292D

 91 96  0     1  0  0  0  0  0999 V2000
   15.7497    4.3192    0.0000 O   0  0  0  0  0  0  0  0  0  0  0  0
   15.7497    2.2710    0.0000 O   0  0  0  0  0  0  0  0  0  0  0  0
    4.7406   -6.3488    0.0000 O   0  0  0  0  0  0  0  0  0  0  0  0
   10.8950    3.2951    0.0000 N   0  0  3  0  0  0  0  0  0  0  0  0
    6.1496   -3.1842    0.0000 N   0  0  0  0  0  0  0  0  0  0  0  0
    4.5316   -4.3598    0.0000 N   0  0  0  0  0  0  0  0  0  0  0  0
    7.5586   -0.0196    0.0000 N   0  0  0  0  0  0  0  0  0  0  0  0
    6.9005    1.4585    0.0000 N   0  0  0  0  0  0  0  0  0  0  0  0
    6.6926    0.4804    0.0000 N   0  0  0  0  0  0  0  0  0  0  0  0
   12.3038    4.4186    0.0000 C   0  0  3  0  0  0  0  0  0  0  0  0
   11.3289    4.1961    0.0000 C   0  0  0  0  0  0  0  0  0  0  0  0
   11.3289    2.3941    0.0000 C   0  0  0  0  0  0  0  0  0  0  0  0
   13.0856    3.7951    0.0000 C   0  0  0  0  0  0  0  0  0  0  0  0
   12.3038    2.1716    0.0000 C   0  0  0  0  0  0  0  0  0  0  0  0
    9.8950    3.2951    0.0000 C   0  0  0  0  0  0  0  0  0  0  0  0
   13.0856    2.7951    0.0000 C   0  0  0  0  0  0  0  0  0  0  0  0
   12.5263    5.3935    0.0000 C   0  0  0  0  0  0  0  0  0  0  0  0
    5.2361   -2.7775    0.0000 C   0  0  0  0  0  0  0  0  0  0  0  0
    6.2541   -4.1788    0.0000 C   0  0  0  0  0  0  0  0  0  0  0  0
    4.4271   -3.3653    0.0000 C   0  0  0  0  0  0  0  0  0  0  0  0
    5.4451   -4.7665    0.0000 C   0  0  0  0  0  0  0  0  0  0  0  0
    9.3950    2.4291    0.0000 C   0  0  0  0  0  0  0  0  0  0  0  0
    6.9586   -2.5964    0.0000 C   0  0  0  0  0  0  0  0  0  0  0  0
   13.9796    4.3298    0.0000 C   0  0  0  0  0  0  0  0  0  0  0  0
    6.8541   -1.6019    0.0000 C   0  0  0  0  0  0  0  0  0  0  0  0
   13.9796    2.2604    0.0000 C   0  0  0  0  0  0  0  0  0  0  0  0
    8.3950    2.4291    0.0000 C   0  0  0  0  0  0  0  0  0  0  0  0
    7.6631   -1.0142    0.0000 C   0  0  0  0  0  0  0  0  0  0  0  0
   13.4819    5.6883    0.0000 C   0  0  0  0  0  0  0  0  0  0  0  0
    3.7226   -4.9476    0.0000 C   0  0  0  0  0  0  0  0  0  0  0  0
   11.7933    6.0737    0.0000 C   0  0  0  0  0  0  0  0  0  0  0  0
   14.8857    3.8159    0.0000 C   0  0  0  0  0  0  0  0  0  0  0  0
   14.8857    2.7743    0.0000 C   0  0  0  0  0  0  0  0  0  0  0  0
    7.8950    1.5630    0.0000 C   0  0  0  0  0  0  0  0  0  0  0  0
   13.7044    6.6632    0.0000 C   0  0  0  0  0  0  0  0  0  0  0  0
    8.3017    0.6495    0.0000 C   0  0  0  0  0  0  0  0  0  0  0  0
   12.0158    7.0486    0.0000 C   0  0  0  0  0  0  0  0  0  0  0  0
    3.8271   -5.9421    0.0000 C   0  0  0  0  0  0  0  0  0  0  0  0
   12.9714    7.3434    0.0000 C   0  0  0  0  0  0  0  0  0  0  0  0
    2.8090   -4.5409    0.0000 C   0  0  0  0  0  0  0  0  0  0  0  0
   14.6600    6.9580    0.0000 C   0  0  0  0  0  0  0  0  0  0  0  0
    3.0181   -6.5299    0.0000 C   0  0  0  0  0  0  0  0  0  0  0  0
    2.0000   -5.1286    0.0000 C   0  0  0  0  0  0  0  0  0  0  0  0
    2.1045   -6.1232    0.0000 C   0  0  0  0  0  0  0  0  0  0  0  0
    4.8452   -7.3434    0.0000 C   0  0  0  0  0  0  0  0  0  0  0  0
   11.8654    4.8570    0.0000 H   0  0  0  0  0  0  0  0  0  0  0  0
   11.3289    4.8161    0.0000 H   0  0  0  0  0  0  0  0  0  0  0  0
   10.7244    4.3340    0.0000 H   0  0  0  0  0  0  0  0  0  0  0  0
   10.7244    2.2562    0.0000 H   0  0  0  0  0  0  0  0  0  0  0  0
   11.3289    1.7741    0.0000 H   0  0  0  0  0  0  0  0  0  0  0  0
   12.0348    1.6130    0.0000 H   0  0  0  0  0  0  0  0  0  0  0  0
   12.7885    1.7850    0.0000 H   0  0  0  0  0  0  0  0  0  0  0  0
   10.0027    3.9057    0.0000 H   0  0  0  0  0  0  0  0  0  0  0  0
    9.3124    3.5072    0.0000 H   0  0  0  0  0  0  0  0  0  0  0  0
    5.5828   -2.2635    0.0000 H   0  0  0  0  0  0  0  0  0  0  0  0
    4.7901   -2.3468    0.0000 H   0  0  0  0  0  0  0  0  0  0  0  0
    6.5259   -4.7360    0.0000 H   0  0  0  0  0  0  0  0  0  0  0  0
    6.8501   -4.0079    0.0000 H   0  0  0  0  0  0  0  0  0  0  0  0
    4.1553   -2.8080    0.0000 H   0  0  0  0  0  0  0  0  0  0  0  0
    3.8311   -3.5362    0.0000 H   0  0  0  0  0  0  0  0  0  0  0  0
    5.0984   -5.2806    0.0000 H   0  0  0  0  0  0  0  0  0  0  0  0
    5.8911   -5.1972    0.0000 H   0  0  0  0  0  0  0  0  0  0  0  0
    9.2873    1.8185    0.0000 H   0  0  0  0  0  0  0  0  0  0  0  0
    9.9776    2.2170    0.0000 H   0  0  0  0  0  0  0  0  0  0  0  0
    7.2304   -3.1537    0.0000 H   0  0  0  0  0  0  0  0  0  0  0  0
    7.5546   -2.4256    0.0000 H   0  0  0  0  0  0  0  0  0  0  0  0
   13.9724    4.9497    0.0000 H   0  0  0  0  0  0  0  0  0  0  0  0
    6.5823   -1.0447    0.0000 H   0  0  0  0  0  0  0  0  0  0  0  0
    6.2581   -1.7728    0.0000 H   0  0  0  0  0  0  0  0  0  0  0  0
   13.9724    1.6405    0.0000 H   0  0  0  0  0  0  0  0  0  0  0  0
    8.5027    3.0397    0.0000 H   0  0  0  0  0  0  0  0  0  0  0  0
    7.8124    2.6411    0.0000 H   0  0  0  0  0  0  0  0  0  0  0  0
    7.9349   -1.5714    0.0000 H   0  0  0  0  0  0  0  0  0  0  0  0
    8.2591   -0.8433    0.0000 H   0  0  0  0  0  0  0  0  0  0  0  0
   13.9364    5.2666    0.0000 H   0  0  0  0  0  0  0  0  0  0  0  0
   11.2008    5.8909    0.0000 H   0  0  0  0  0  0  0  0  0  0  0  0
    8.9082    0.5206    0.0000 H   0  0  0  0  0  0  0  0  0  0  0  0
   11.5613    7.4703    0.0000 H   0  0  0  0  0  0  0  0  0  0  0  0
   13.1093    7.9478    0.0000 H   0  0  0  0  0  0  0  0  0  0  0  0
    2.7442   -3.9242    0.0000 H   0  0  0  0  0  0  0  0  0  0  0  0
   14.8427    6.3655    0.0000 H   0  0  0  0  0  0  0  0  0  0  0  0
   15.2525    7.1407    0.0000 H   0  0  0  0  0  0  0  0  0  0  0  0
   14.4773    7.5504    0.0000 H   0  0  0  0  0  0  0  0  0  0  0  0
   16.2879    4.0113    0.0000 H   0  0  0  0  0  0  0  0  0  0  0  0
    3.0829   -7.1465    0.0000 H   0  0  0  0  0  0  0  0  0  0  0  0
   15.7474    1.6510    0.0000 H   0  0  0  0  0  0  0  0  0  0  0  0
    1.4336   -4.8765    0.0000 H   0  0  0  0  0  0  0  0  0  0  0  0
    1.6029   -6.4876    0.0000 H   0  0  0  0  0  0  0  0  0  0  0  0
    4.2286   -7.4082    0.0000 H   0  0  0  0  0  0  0  0  0  0  0  0
    4.9100   -7.9600    0.0000 H   0  0  0  0  0  0  0  0  0  0  0  0
    5.4618   -7.2786    0.0000 H   0  0  0  0  0  0  0  0  0  0  0  0
  1 32  1  0  0  0  0
  1 84  1  0  0  0  0
  2 33  1  0  0  0  0
  2 86  1  0  0  0  0
  3 38  1  0  0  0  0
  3 45  1  0  0  0  0
  4 11  1  0  0  0  0
  4 12  1  0  0  0  0
  4 15  1  0  0  0  0
  5 18  1  0  0  0  0
  5 19  1  0  0  0  0
  5 23  1  0  0  0  0
  6 20  1  0  0  0  0
  6 21  1  0  0  0  0
  6 30  1  0  0  0  0
  7  9  1  0  0  0  0
  7 28  1  0  0  0  0
  7 36  1  0  0  0  0
  8  9  2  0  0  0  0
  8 34  1  0  0  0  0
 10 11  1  0  0  0  0
 10 13  1  0  0  0  0
 10 17  1  0  0  0  0
 10 46  1  0  0  0  0
 11 47  1  0  0  0  0
 11 48  1  0  0  0  0
 12 14  1  0  0  0  0
 12 49  1  0  0  0  0
 12 50  1  0  0  0  0
 13 16  1  0  0  0  0
 13 24  2  0  0  0  0
 14 16  1  0  0  0  0
 14 51  1  0  0  0  0
 14 52  1  0  0  0  0
 15 22  1  0  0  0  0
 15 53  1  0  0  0  0
 15 54  1  0  0  0  0
 16 26  2  0  0  0  0
 17 29  1  0  0  0  0
 17 31  2  0  0  0  0
 18 20  1  0  0  0  0
 18 55  1  0  0  0  0
 18 56  1  0  0  0  0
 19 21  1  0  0  0  0
 19 57  1  0  0  0  0
 19 58  1  0  0  0  0
 20 59  1  0  0  0  0
 20 60  1  0  0  0  0
 21 61  1  0  0  0  0
 21 62  1  0  0  0  0
 22 27  1  0  0  0  0
 22 63  1  0  0  0  0
 22 64  1  0  0  0  0
 23 25  1  0  0  0  0
 23 65  1  0  0  0  0
 23 66  1  0  0  0  0
 24 32  1  0  0  0  0
 24 67  1  0  0  0  0
 25 28  1  0  0  0  0
 25 68  1  0  0  0  0
 25 69  1  0  0  0  0
 26 33  1  0  0  0  0
 26 70  1  0  0  0  0
 27 34  1  0  0  0  0
 27 71  1  0  0  0  0
 27 72  1  0  0  0  0
 28 73  1  0  0  0  0
 28 74  1  0  0  0  0
 29 35  2  0  0  0  0
 29 75  1  0  0  0  0
 30 38  1  0  0  0  0
 30 40  2  0  0  0  0
 31 37  1  0  0  0  0
 31 76  1  0  0  0  0
 32 33  2  0  0  0  0
 34 36  2  0  0  0  0
 35 39  1  0  0  0  0
 35 41  1  0  0  0  0
 36 77  1  0  0  0  0
 37 39  2  0  0  0  0
 37 78  1  0  0  0  0
 38 42  2  0  0  0  0
 39 79  1  0  0  0  0
 40 43  1  0  0  0  0
 40 80  1  0  0  0  0
 41 81  1  0  0  0  0
 41 82  1  0  0  0  0
 41 83  1  0  0  0  0
 42 44  1  0  0  0  0
 42 85  1  0  0  0  0
 43 44  2  0  0  0  0
 43 87  1  0  0  0  0
 44 88  1  0  0  0  0
 45 89  1  0  0  0  0
 45 90  1  0  0  0  0
 45 91  1  0  0  0  0
M  END
> <PUBCHEM_COMPOUND_CID>
45481888

> <PUBCHEM_COMPOUND_CANONICALIZED>
1

> <PUBCHEM_CACTVS_COMPLEXITY>
876

> <PUBCHEM_CACTVS_HBOND_ACCEPTOR>
8

> <PUBCHEM_CACTVS_HBOND_DONOR>
2

> <PUBCHEM_CACTVS_ROTATABLE_BOND>
11

> <PUBCHEM_CACTVS_SUBSKEYS>
AAADcfB/sAAAAAAAAAAAAAAAAAAAAWAAAAA8YMEABYAAAAAB1AAAHgAICAAADQzBngY+xpMIBgCiAzRnRACCDAQxsgAY2AA//IgPZiLG8ZuVcClkwBHZ+AeQ0PIOoAADAAAQUABAAAYAACCgAAAAAAAAAA==

> <PUBCHEM_IUPAC_OPENEYE_NAME>
3-[3-[1-[3-[4-(2-methoxyphenyl)piperazin-1-yl]propyl]triazol-4-yl]propyl]-5-(m-tolyl)-1,2,4,5-tetrahydro-3-benzazepine-7,8-diol

> <PUBCHEM_IUPAC_CAS_NAME>
3-[3-[1-[3-[4-(2-methoxyphenyl)-1-piperazinyl]propyl]-4-triazolyl]propyl]-5-(3-methylphenyl)-1,2,4,5-tetrahydro-3-benzazepine-7,8-diol

> <PUBCHEM_IUPAC_NAME_MARKUP>
3-[3-[1-[3-[4-(2-methoxyphenyl)piperazin-1-yl]propyl]triazol-4-yl]propyl]-5-(3-methylphenyl)-1,2,4,5-tetrahydro-3-benzazepine-7,8-diol

> <PUBCHEM_IUPAC_NAME>
3-[3-[1-[3-[4-(2-methoxyphenyl)piperazin-1-yl]propyl]triazol-4-yl]propyl]-5-(3-methylphenyl)-1,2,4,5-tetrahydro-3-benzazepine-7,8-diol

> <PUBCHEM_IUPAC_SYSTEMATIC_NAME>
3-[3-[1-[3-[4-(2-methoxyphenyl)piperazin-1-yl]propyl]-1,2,3-triazol-4-yl]propyl]-5-(3-methylphenyl)-1,2,4,5-tetrahydro-3-benzazepine-7,8-diol

> <PUBCHEM_IUPAC_TRADITIONAL_NAME>
3-[3-[1-[3-[4-(2-methoxyphenyl)piperazino]propyl]triazol-4-yl]propyl]-5-(m-tolyl)-1,2,4,5-tetrahydro-3-benzazepine-7,8-diol

> <PUBCHEM_IUPAC_INCHI>
InChI=1S/C36H46N6O3/c1-27-8-5-9-28(22-27)32-26-40(17-13-29-23-34(43)35(44)24-31(29)32)14-6-10-30-25-42(38-37-30)16-7-15-39-18-20-41(21-19-39)33-11-3-4-12-36(33)45-2/h3-5,8-9,11-12,22-25,32,43-44H,6-7,10,13-21,26H2,1-2H3

> <PUBCHEM_IUPAC_INCHIKEY>
PSLDCUMPPHBRTH-UHFFFAOYSA-N

> <PUBCHEM_XLOGP3_AA>
5.4

> <PUBCHEM_EXACT_MASS>
610.36313935

> <PUBCHEM_MOLECULAR_FORMULA>
C36H46N6O3

> <PUBCHEM_MOLECULAR_WEIGHT>
610.8

> <PUBCHEM_OPENEYE_CAN_SMILES>
CC1=CC(=CC=C1)C2CN(CCC3=CC(=C(C=C23)O)O)CCCC4=CN(N=N4)CCCN5CCN(CC5)C6=CC=CC=C6OC

> <PUBCHEM_OPENEYE_ISO_SMILES>
CC1=CC(=CC=C1)C2CN(CCC3=CC(=C(C=C23)O)O)CCCC4=CN(N=N4)CCCN5CCN(CC5)C6=CC=CC=C6OC

> <PUBCHEM_CACTVS_TPSA>
90.1

> <PUBCHEM_MONOISOTOPIC_WEIGHT>
610.36313935

> <PUBCHEM_TOTAL_CHARGE>
0

> <PUBCHEM_HEAVY_ATOM_COUNT>
45

> <PUBCHEM_ATOM_DEF_STEREO_COUNT>
0

> <PUBCHEM_ATOM_UDEF_STEREO_COUNT>
1

> <PUBCHEM_BOND_DEF_STEREO_COUNT>
0

> <PUBCHEM_BOND_UDEF_STEREO_COUNT>
0

> <PUBCHEM_ISOTOPIC_ATOM_COUNT>
0

> <PUBCHEM_COMPONENT_COUNT>
1

> <PUBCHEM_CACTVS_TAUTO_COUNT>
-1

> <PUBCHEM_COORDINATE_TYPE>
1
5
255

> <PUBCHEM_BONDANNOTATIONS>
10  17  3
13  16  8
13  24  8
16  26  8
17  29  8
17  31  8
24  32  8
26  33  8
29  35  8
30  38  8
30  40  8
31  37  8
32  33  8
34  36  8
35  39  8
37  39  8
38  42  8
40  43  8
42  44  8
43  44  8
7  36  8
7  9  8
8  34  8
8  9  8

$$$$
