56837419
  -OEChem-09292322322D

152157  0     0  0  0  0  0  0999 V2000
   19.3205   17.7500    0.0000 O   0  0  0  0  0  0  0  0  0  0  0  0
    2.8660  -17.7500    0.0000 O   0  0  0  0  0  0  0  0  0  0  0  0
   14.1244   10.7500    0.0000 O   0  0  0  0  0  0  0  0  0  0  0  0
    8.0622  -10.7500    0.0000 O   0  0  0  0  0  0  0  0  0  0  0  0
   14.1244    5.7500    0.0000 O   0  0  0  0  0  0  0  0  0  0  0  0
    8.0622   -5.7500    0.0000 O   0  0  0  0  0  0  0  0  0  0  0  0
   13.2583    3.2500    0.0000 O   0  0  0  0  0  0  0  0  0  0  0  0
    8.9282   -3.2500    0.0000 O   0  0  0  0  0  0  0  0  0  0  0  0
   11.5263    1.2500    0.0000 O   0  0  0  0  0  0  0  0  0  0  0  0
   10.6603   -1.2500    0.0000 O   0  0  0  0  0  0  0  0  0  0  0  0
   17.5885   14.7500    0.0000 N   0  0  0  0  0  0  0  0  0  0  0  0
    4.5981  -14.7500    0.0000 N   0  0  0  0  0  0  0  0  0  0  0  0
   17.5885   16.7500    0.0000 N   0  0  0  0  0  0  0  0  0  0  0  0
    4.5981  -16.7500    0.0000 N   0  0  0  0  0  0  0  0  0  0  0  0
   15.8564   10.7500    0.0000 N   0  0  0  0  0  0  0  0  0  0  0  0
    6.3301  -10.7500    0.0000 N   0  0  0  0  0  0  0  0  0  0  0  0
   18.4545   15.2500    0.0000 C   0  0  0  0  0  0  0  0  0  0  0  0
   16.7224   15.2500    0.0000 C   0  0  0  0  0  0  0  0  0  0  0  0
    5.4641  -15.2500    0.0000 C   0  0  0  0  0  0  0  0  0  0  0  0
    3.7320  -15.2500    0.0000 C   0  0  0  0  0  0  0  0  0  0  0  0
   18.4545   16.2500    0.0000 C   0  0  0  0  0  0  0  0  0  0  0  0
   16.7224   16.2500    0.0000 C   0  0  0  0  0  0  0  0  0  0  0  0
    5.4641  -16.2500    0.0000 C   0  0  0  0  0  0  0  0  0  0  0  0
    3.7320  -16.2500    0.0000 C   0  0  0  0  0  0  0  0  0  0  0  0
   17.5885   13.7500    0.0000 C   0  0  0  0  0  0  0  0  0  0  0  0
    4.5981  -13.7500    0.0000 C   0  0  0  0  0  0  0  0  0  0  0  0
   16.7224   13.2500    0.0000 C   0  0  0  0  0  0  0  0  0  0  0  0
    5.4641  -13.2500    0.0000 C   0  0  0  0  0  0  0  0  0  0  0  0
   17.5885   17.7500    0.0000 C   0  0  0  0  0  0  0  0  0  0  0  0
    4.5981  -17.7500    0.0000 C   0  0  0  0  0  0  0  0  0  0  0  0
   16.7224   12.2500    0.0000 C   0  0  0  0  0  0  0  0  0  0  0  0
    5.4641  -12.2500    0.0000 C   0  0  0  0  0  0  0  0  0  0  0  0
   15.8564   11.7500    0.0000 C   0  0  0  0  0  0  0  0  0  0  0  0
    6.3301  -11.7500    0.0000 C   0  0  0  0  0  0  0  0  0  0  0  0
   18.4545   18.2500    0.0000 C   0  0  0  0  0  0  0  0  0  0  0  0
    3.7320  -18.2500    0.0000 C   0  0  0  0  0  0  0  0  0  0  0  0
   16.7224   18.2500    0.0000 C   0  0  0  0  0  0  0  0  0  0  0  0
    5.4641  -18.2500    0.0000 C   0  0  0  0  0  0  0  0  0  0  0  0
   18.4545   19.2500    0.0000 C   0  0  0  0  0  0  0  0  0  0  0  0
    3.7320  -19.2500    0.0000 C   0  0  0  0  0  0  0  0  0  0  0  0
   16.7224   19.2500    0.0000 C   0  0  0  0  0  0  0  0  0  0  0  0
    5.4641  -19.2500    0.0000 C   0  0  0  0  0  0  0  0  0  0  0  0
   17.5885   19.7500    0.0000 C   0  0  0  0  0  0  0  0  0  0  0  0
    4.5981  -19.7500    0.0000 C   0  0  0  0  0  0  0  0  0  0  0  0
   14.9904   10.2500    0.0000 C   0  0  0  0  0  0  0  0  0  0  0  0
    7.1962  -10.2500    0.0000 C   0  0  0  0  0  0  0  0  0  0  0  0
   20.1865   18.2500    0.0000 C   0  0  0  0  0  0  0  0  0  0  0  0
    2.0000  -18.2500    0.0000 C   0  0  0  0  0  0  0  0  0  0  0  0
   14.9904    9.2500    0.0000 C   0  0  0  0  0  0  0  0  0  0  0  0
    7.1962   -9.2500    0.0000 C   0  0  0  0  0  0  0  0  0  0  0  0
   14.1244    8.7500    0.0000 C   0  0  0  0  0  0  0  0  0  0  0  0
    6.3301   -8.7500    0.0000 C   0  0  0  0  0  0  0  0  0  0  0  0
   15.8564    8.7500    0.0000 C   0  0  0  0  0  0  0  0  0  0  0  0
    8.0622   -8.7500    0.0000 C   0  0  0  0  0  0  0  0  0  0  0  0
   14.1244    7.7500    0.0000 C   0  0  0  0  0  0  0  0  0  0  0  0
    6.3301   -7.7500    0.0000 C   0  0  0  0  0  0  0  0  0  0  0  0
   15.8564    7.7500    0.0000 C   0  0  0  0  0  0  0  0  0  0  0  0
    8.0622   -7.7500    0.0000 C   0  0  0  0  0  0  0  0  0  0  0  0
   14.9904    7.2500    0.0000 C   0  0  0  0  0  0  0  0  0  0  0  0
    7.1962   -7.2500    0.0000 C   0  0  0  0  0  0  0  0  0  0  0  0
   14.9904    6.2500    0.0000 C   0  0  0  0  0  0  0  0  0  0  0  0
    7.1962   -6.2500    0.0000 C   0  0  0  0  0  0  0  0  0  0  0  0
   14.1244    4.7500    0.0000 C   0  0  0  0  0  0  0  0  0  0  0  0
    8.0622   -4.7500    0.0000 C   0  0  0  0  0  0  0  0  0  0  0  0
   13.2583    4.2500    0.0000 C   0  0  0  0  0  0  0  0  0  0  0  0
    8.9282   -4.2500    0.0000 C   0  0  0  0  0  0  0  0  0  0  0  0
   12.3923    2.7500    0.0000 C   0  0  0  0  0  0  0  0  0  0  0  0
    9.7942   -2.7500    0.0000 C   0  0  0  0  0  0  0  0  0  0  0  0
   12.3923    1.7500    0.0000 C   0  0  0  0  0  0  0  0  0  0  0  0
    9.7942   -1.7500    0.0000 C   0  0  0  0  0  0  0  0  0  0  0  0
   11.5263    0.2500    0.0000 C   0  0  0  0  0  0  0  0  0  0  0  0
   10.6603   -0.2500    0.0000 C   0  0  0  0  0  0  0  0  0  0  0  0
   18.6665   14.6674    0.0000 H   0  0  0  0  0  0  0  0  0  0  0  0
   19.0651   15.3577    0.0000 H   0  0  0  0  0  0  0  0  0  0  0  0
   16.1119   15.3577    0.0000 H   0  0  0  0  0  0  0  0  0  0  0  0
   16.5104   14.6674    0.0000 H   0  0  0  0  0  0  0  0  0  0  0  0
    6.0747  -15.3577    0.0000 H   0  0  0  0  0  0  0  0  0  0  0  0
    5.6762  -14.6674    0.0000 H   0  0  0  0  0  0  0  0  0  0  0  0
    3.5200  -14.6674    0.0000 H   0  0  0  0  0  0  0  0  0  0  0  0
    3.1215  -15.3577    0.0000 H   0  0  0  0  0  0  0  0  0  0  0  0
   19.0651   16.1423    0.0000 H   0  0  0  0  0  0  0  0  0  0  0  0
   18.6665   16.8326    0.0000 H   0  0  0  0  0  0  0  0  0  0  0  0
   16.5104   16.8326    0.0000 H   0  0  0  0  0  0  0  0  0  0  0  0
   16.1119   16.1423    0.0000 H   0  0  0  0  0  0  0  0  0  0  0  0
    5.6762  -16.8326    0.0000 H   0  0  0  0  0  0  0  0  0  0  0  0
    6.0747  -16.1423    0.0000 H   0  0  0  0  0  0  0  0  0  0  0  0
    3.1215  -16.1423    0.0000 H   0  0  0  0  0  0  0  0  0  0  0  0
    3.5200  -16.8326    0.0000 H   0  0  0  0  0  0  0  0  0  0  0  0
   17.8005   13.1674    0.0000 H   0  0  0  0  0  0  0  0  0  0  0  0
   18.1990   13.8577    0.0000 H   0  0  0  0  0  0  0  0  0  0  0  0
    4.3860  -13.1674    0.0000 H   0  0  0  0  0  0  0  0  0  0  0  0
    3.9875  -13.8577    0.0000 H   0  0  0  0  0  0  0  0  0  0  0  0
   16.5104   13.8326    0.0000 H   0  0  0  0  0  0  0  0  0  0  0  0
   16.1119   13.1423    0.0000 H   0  0  0  0  0  0  0  0  0  0  0  0
    5.6762  -13.8326    0.0000 H   0  0  0  0  0  0  0  0  0  0  0  0
    6.0747  -13.1423    0.0000 H   0  0  0  0  0  0  0  0  0  0  0  0
   16.9345   11.6674    0.0000 H   0  0  0  0  0  0  0  0  0  0  0  0
   17.3330   12.3577    0.0000 H   0  0  0  0  0  0  0  0  0  0  0  0
    5.2520  -11.6674    0.0000 H   0  0  0  0  0  0  0  0  0  0  0  0
    4.8535  -12.3577    0.0000 H   0  0  0  0  0  0  0  0  0  0  0  0
   15.6444   12.3326    0.0000 H   0  0  0  0  0  0  0  0  0  0  0  0
   15.2458   11.6423    0.0000 H   0  0  0  0  0  0  0  0  0  0  0  0
    6.5422  -12.3326    0.0000 H   0  0  0  0  0  0  0  0  0  0  0  0
    6.9407  -11.6423    0.0000 H   0  0  0  0  0  0  0  0  0  0  0  0
   16.1855   17.9400    0.0000 H   0  0  0  0  0  0  0  0  0  0  0  0
    6.0010  -17.9400    0.0000 H   0  0  0  0  0  0  0  0  0  0  0  0
   18.9914   19.5600    0.0000 H   0  0  0  0  0  0  0  0  0  0  0  0
    3.1951  -19.5600    0.0000 H   0  0  0  0  0  0  0  0  0  0  0  0
   16.1855   19.5600    0.0000 H   0  0  0  0  0  0  0  0  0  0  0  0
    6.0010  -19.5600    0.0000 H   0  0  0  0  0  0  0  0  0  0  0  0
   16.3933   10.4400    0.0000 H   0  0  0  0  0  0  0  0  0  0  0  0
    5.7932  -10.4400    0.0000 H   0  0  0  0  0  0  0  0  0  0  0  0
   17.5885   20.3700    0.0000 H   0  0  0  0  0  0  0  0  0  0  0  0
    4.5981  -20.3700    0.0000 H   0  0  0  0  0  0  0  0  0  0  0  0
   20.4965   17.7131    0.0000 H   0  0  0  0  0  0  0  0  0  0  0  0
   20.7235   18.5600    0.0000 H   0  0  0  0  0  0  0  0  0  0  0  0
   19.8765   18.7869    0.0000 H   0  0  0  0  0  0  0  0  0  0  0  0
    1.6900  -17.7131    0.0000 H   0  0  0  0  0  0  0  0  0  0  0  0
    1.4631  -18.5600    0.0000 H   0  0  0  0  0  0  0  0  0  0  0  0
    2.3100  -18.7869    0.0000 H   0  0  0  0  0  0  0  0  0  0  0  0
   13.5874    9.0600    0.0000 H   0  0  0  0  0  0  0  0  0  0  0  0
    5.7932   -9.0600    0.0000 H   0  0  0  0  0  0  0  0  0  0  0  0
   16.3933    9.0600    0.0000 H   0  0  0  0  0  0  0  0  0  0  0  0
    8.5991   -9.0600    0.0000 H   0  0  0  0  0  0  0  0  0  0  0  0
   13.5874    7.4400    0.0000 H   0  0  0  0  0  0  0  0  0  0  0  0
    5.7932   -7.4400    0.0000 H   0  0  0  0  0  0  0  0  0  0  0  0
   16.3933    7.4400    0.0000 H   0  0  0  0  0  0  0  0  0  0  0  0
    8.5991   -7.4400    0.0000 H   0  0  0  0  0  0  0  0  0  0  0  0
   15.2024    5.6674    0.0000 H   0  0  0  0  0  0  0  0  0  0  0  0
   15.6010    6.3577    0.0000 H   0  0  0  0  0  0  0  0  0  0  0  0
    6.9841   -5.6674    0.0000 H   0  0  0  0  0  0  0  0  0  0  0  0
    6.5856   -6.3577    0.0000 H   0  0  0  0  0  0  0  0  0  0  0  0
   14.3364    4.1674    0.0000 H   0  0  0  0  0  0  0  0  0  0  0  0
   14.7349    4.8577    0.0000 H   0  0  0  0  0  0  0  0  0  0  0  0
    7.8501   -4.1674    0.0000 H   0  0  0  0  0  0  0  0  0  0  0  0
    7.4516   -4.8577    0.0000 H   0  0  0  0  0  0  0  0  0  0  0  0
   13.0463    4.8326    0.0000 H   0  0  0  0  0  0  0  0  0  0  0  0
   12.6477    4.1423    0.0000 H   0  0  0  0  0  0  0  0  0  0  0  0
    9.1403   -4.8326    0.0000 H   0  0  0  0  0  0  0  0  0  0  0  0
    9.5388   -4.1423    0.0000 H   0  0  0  0  0  0  0  0  0  0  0  0
   12.1803    3.3326    0.0000 H   0  0  0  0  0  0  0  0  0  0  0  0
   11.7817    2.6423    0.0000 H   0  0  0  0  0  0  0  0  0  0  0  0
   10.0063   -3.3326    0.0000 H   0  0  0  0  0  0  0  0  0  0  0  0
   10.4048   -2.6423    0.0000 H   0  0  0  0  0  0  0  0  0  0  0  0
   12.6044    1.1674    0.0000 H   0  0  0  0  0  0  0  0  0  0  0  0
   13.0029    1.8577    0.0000 H   0  0  0  0  0  0  0  0  0  0  0  0
    9.5822   -1.1674    0.0000 H   0  0  0  0  0  0  0  0  0  0  0  0
    9.1836   -1.8577    0.0000 H   0  0  0  0  0  0  0  0  0  0  0  0
   11.7383   -0.3326    0.0000 H   0  0  0  0  0  0  0  0  0  0  0  0
   12.1369    0.3577    0.0000 H   0  0  0  0  0  0  0  0  0  0  0  0
   10.4482    0.3326    0.0000 H   0  0  0  0  0  0  0  0  0  0  0  0
   10.0497   -0.3577    0.0000 H   0  0  0  0  0  0  0  0  0  0  0  0
  1 35  1  0  0  0  0
  1 47  1  0  0  0  0
  2 36  1  0  0  0  0
  2 48  1  0  0  0  0
  3 45  2  0  0  0  0
  4 46  2  0  0  0  0
  5 61  1  0  0  0  0
  5 63  1  0  0  0  0
  6 62  1  0  0  0  0
  6 64  1  0  0  0  0
  7 65  1  0  0  0  0
  7 67  1  0  0  0  0
  8 66  1  0  0  0  0
  8 68  1  0  0  0  0
  9 69  1  0  0  0  0
  9 71  1  0  0  0  0
 10 70  1  0  0  0  0
 10 72  1  0  0  0  0
 11 17  1  0  0  0  0
 11 18  1  0  0  0  0
 11 25  1  0  0  0  0
 12 19  1  0  0  0  0
 12 20  1  0  0  0  0
 12 26  1  0  0  0  0
 13 21  1  0  0  0  0
 13 22  1  0  0  0  0
 13 29  1  0  0  0  0
 14 23  1  0  0  0  0
 14 24  1  0  0  0  0
 14 30  1  0  0  0  0
 15 33  1  0  0  0  0
 15 45  1  0  0  0  0
 15111  1  0  0  0  0
 16 34  1  0  0  0  0
 16 46  1  0  0  0  0
 16112  1  0  0  0  0
 17 21  1  0  0  0  0
 17 73  1  0  0  0  0
 17 74  1  0  0  0  0
 18 22  1  0  0  0  0
 18 75  1  0  0  0  0
 18 76  1  0  0  0  0
 19 23  1  0  0  0  0
 19 77  1  0  0  0  0
 19 78  1  0  0  0  0
 20 24  1  0  0  0  0
 20 79  1  0  0  0  0
 20 80  1  0  0  0  0
 21 81  1  0  0  0  0
 21 82  1  0  0  0  0
 22 83  1  0  0  0  0
 22 84  1  0  0  0  0
 23 85  1  0  0  0  0
 23 86  1  0  0  0  0
 24 87  1  0  0  0  0
 24 88  1  0  0  0  0
 25 27  1  0  0  0  0
 25 89  1  0  0  0  0
 25 90  1  0  0  0  0
 26 28  1  0  0  0  0
 26 91  1  0  0  0  0
 26 92  1  0  0  0  0
 27 31  1  0  0  0  0
 27 93  1  0  0  0  0
 27 94  1  0  0  0  0
 28 32  1  0  0  0  0
 28 95  1  0  0  0  0
 28 96  1  0  0  0  0
 29 35  1  0  0  0  0
 29 37  2  0  0  0  0
 30 36  1  0  0  0  0
 30 38  2  0  0  0  0
 31 33  1  0  0  0  0
 31 97  1  0  0  0  0
 31 98  1  0  0  0  0
 32 34  1  0  0  0  0
 32 99  1  0  0  0  0
 32100  1  0  0  0  0
 33101  1  0  0  0  0
 33102  1  0  0  0  0
 34103  1  0  0  0  0
 34104  1  0  0  0  0
 35 39  2  0  0  0  0
 36 40  2  0  0  0  0
 37 41  1  0  0  0  0
 37105  1  0  0  0  0
 38 42  1  0  0  0  0
 38106  1  0  0  0  0
 39 43  1  0  0  0  0
 39107  1  0  0  0  0
 40 44  1  0  0  0  0
 40108  1  0  0  0  0
 41 43  2  0  0  0  0
 41109  1  0  0  0  0
 42 44  2  0  0  0  0
 42110  1  0  0  0  0
 43113  1  0  0  0  0
 44114  1  0  0  0  0
 45 49  1  0  0  0  0
 46 50  1  0  0  0  0
 47115  1  0  0  0  0
 47116  1  0  0  0  0
 47117  1  0  0  0  0
 48118  1  0  0  0  0
 48119  1  0  0  0  0
 48120  1  0  0  0  0
 49 51  2  0  0  0  0
 49 53  1  0  0  0  0
 50 52  2  0  0  0  0
 50 54  1  0  0  0  0
 51 55  1  0  0  0  0
 51121  1  0  0  0  0
 52 56  1  0  0  0  0
 52122  1  0  0  0  0
 53 57  2  0  0  0  0
 53123  1  0  0  0  0
 54 58  2  0  0  0  0
 54124  1  0  0  0  0
 55 59  2  0  0  0  0
 55125  1  0  0  0  0
 56 60  2  0  0  0  0
 56126  1  0  0  0  0
 57 59  1  0  0  0  0
 57127  1  0  0  0  0
 58 60  1  0  0  0  0
 58128  1  0  0  0  0
 59 61  1  0  0  0  0
 60 62  1  0  0  0  0
 61129  1  0  0  0  0
 61130  1  0  0  0  0
 62131  1  0  0  0  0
 62132  1  0  0  0  0
 63 65  1  0  0  0  0
 63133  1  0  0  0  0
 63134  1  0  0  0  0
 64 66  1  0  0  0  0
 64135  1  0  0  0  0
 64136  1  0  0  0  0
 65137  1  0  0  0  0
 65138  1  0  0  0  0
 66139  1  0  0  0  0
 66140  1  0  0  0  0
 67 69  1  0  0  0  0
 67141  1  0  0  0  0
 67142  1  0  0  0  0
 68 70  1  0  0  0  0
 68143  1  0  0  0  0
 68144  1  0  0  0  0
 69145  1  0  0  0  0
 69146  1  0  0  0  0
 70147  1  0  0  0  0
 70148  1  0  0  0  0
 71 72  1  0  0  0  0
 71149  1  0  0  0  0
 71150  1  0  0  0  0
 72151  1  0  0  0  0
 72152  1  0  0  0  0
M  END
> <PUBCHEM_COMPOUND_CID>
56837419

> <PUBCHEM_COMPOUND_CANONICALIZED>
1

> <PUBCHEM_CACTVS_COMPLEXITY>
1290

> <PUBCHEM_CACTVS_HBOND_ACCEPTOR>
14

> <PUBCHEM_CACTVS_HBOND_DONOR>
2

> <PUBCHEM_CACTVS_ROTATABLE_BOND>
35

> <PUBCHEM_CACTVS_SUBSKEYS>
AAADcfB/vAAAAAAAAAAAAAAAAAAAAAAAAAA8eMGCAAAAAAABVAAAHgAQAAAADAzhmAYyxoPABACIAiVSUACCCAAlIgAIiIEPbMgPZjLEtZuXMShk1hHa6YeYyDCOQAAAAAAAEACAAAAAAAAgAAAAAAAAAA==

> <PUBCHEM_IUPAC_OPENEYE_NAME>
N-[4-[4-(2-methoxyphenyl)piperazin-1-yl]butyl]-4-[2-[2-[2-[2-[2-[[4-[4-[4-(2-methoxyphenyl)piperazin-1-yl]butylcarbamoyl]phenyl]methoxy]ethoxy]ethoxy]ethoxy]ethoxy]ethoxymethyl]benzamide

> <PUBCHEM_IUPAC_CAS_NAME>
N-[4-[4-(2-methoxyphenyl)-1-piperazinyl]butyl]-4-[2-[2-[2-[2-[2-[[4-[[4-[4-(2-methoxyphenyl)-1-piperazinyl]butylamino]-oxomethyl]phenyl]methoxy]ethoxy]ethoxy]ethoxy]ethoxy]ethoxymethyl]benzamide

> <PUBCHEM_IUPAC_NAME_MARKUP>
<I>N</I>-[4-[4-(2-methoxyphenyl)piperazin-1-yl]butyl]-4-[2-[2-[2-[2-[2-[[4-[4-[4-(2-methoxyphenyl)piperazin-1-yl]butylcarbamoyl]phenyl]methoxy]ethoxy]ethoxy]ethoxy]ethoxy]ethoxymethyl]benzamide

> <PUBCHEM_IUPAC_NAME>
N-[4-[4-(2-methoxyphenyl)piperazin-1-yl]butyl]-4-[2-[2-[2-[2-[2-[[4-[4-[4-(2-methoxyphenyl)piperazin-1-yl]butylcarbamoyl]phenyl]methoxy]ethoxy]ethoxy]ethoxy]ethoxy]ethoxymethyl]benzamide

> <PUBCHEM_IUPAC_SYSTEMATIC_NAME>
N-[4-[4-(2-methoxyphenyl)piperazin-1-yl]butyl]-4-[2-[2-[2-[2-[2-[[4-[4-[4-(2-methoxyphenyl)piperazin-1-yl]butylcarbamoyl]phenyl]methoxy]ethoxy]ethoxy]ethoxy]ethoxy]ethoxymethyl]benzamide

> <PUBCHEM_IUPAC_TRADITIONAL_NAME>
N-[4-[4-(2-methoxyphenyl)piperazino]butyl]-4-[2-[2-[2-[2-[2-[4-[4-[4-(2-methoxyphenyl)piperazino]butylcarbamoyl]benzyl]oxyethoxy]ethoxy]ethoxy]ethoxy]ethoxymethyl]benzamide

> <PUBCHEM_IUPAC_INCHI>
InChI=1S/C56H80N6O10/c1-65-53-13-5-3-11-51(53)61-31-27-59(28-32-61)25-9-7-23-57-55(63)49-19-15-47(16-20-49)45-71-43-41-69-39-37-67-35-36-68-38-40-70-42-44-72-46-48-17-21-50(22-18-48)56(64)58-24-8-10-26-60-29-33-62(34-30-60)52-12-4-6-14-54(52)66-2/h3-6,11-22H,7-10,23-46H2,1-2H3,(H,57,63)(H,58,64)

> <PUBCHEM_IUPAC_INCHIKEY>
OTFGIKBDQRIECS-UHFFFAOYSA-N

> <PUBCHEM_XLOGP3_AA>
5.5

> <PUBCHEM_EXACT_MASS>
996.59359277

> <PUBCHEM_MOLECULAR_FORMULA>
C56H80N6O10

> <PUBCHEM_MOLECULAR_WEIGHT>
997.3

> <PUBCHEM_OPENEYE_CAN_SMILES>
COC1=CC=CC=C1N2CCN(CC2)CCCCNC(=O)C3=CC=C(C=C3)COCCOCCOCCOCCOCCOCC4=CC=C(C=C4)C(=O)NCCCCN5CCN(CC5)C6=CC=CC=C6OC

> <PUBCHEM_OPENEYE_ISO_SMILES>
COC1=CC=CC=C1N2CCN(CC2)CCCCNC(=O)C3=CC=C(C=C3)COCCOCCOCCOCCOCCOCC4=CC=C(C=C4)C(=O)NCCCCN5CCN(CC5)C6=CC=CC=C6OC

> <PUBCHEM_CACTVS_TPSA>
145

> <PUBCHEM_MONOISOTOPIC_WEIGHT>
996.59359277

> <PUBCHEM_TOTAL_CHARGE>
0

> <PUBCHEM_HEAVY_ATOM_COUNT>
72

> <PUBCHEM_ATOM_DEF_STEREO_COUNT>
0

> <PUBCHEM_ATOM_UDEF_STEREO_COUNT>
0

> <PUBCHEM_BOND_DEF_STEREO_COUNT>
0

> <PUBCHEM_BOND_UDEF_STEREO_COUNT>
0

> <PUBCHEM_ISOTOPIC_ATOM_COUNT>
0

> <PUBCHEM_COMPONENT_COUNT>
1

> <PUBCHEM_CACTVS_TAUTO_COUNT>
-1

> <PUBCHEM_COORDINATE_TYPE>
1
5
255

> <PUBCHEM_BONDANNOTATIONS>
29  35  8
29  37  8
30  36  8
30  38  8
35  39  8
36  40  8
37  41  8
38  42  8
39  43  8
40  44  8
41  43  8
42  44  8
49  51  8
49  53  8
50  52  8
50  54  8
51  55  8
52  56  8
53  57  8
54  58  8
55  59  8
56  60  8
57  59  8
58  60  8

$$$$
