126534373
  -OEChem-09292322372D

 61 65  0     1  0  0  0  0  0999 V2000
    9.6680    3.2437    0.0000 S   0  0  0  0  0  0  0  0  0  0  0  0
    2.2308    0.2868    0.0000 F   0  0  0  0  0  0  0  0  0  0  0  0
    2.6420   -4.0527    0.0000 F   0  0  0  0  0  0  0  0  0  0  0  0
    2.0000   -2.7926    0.0000 F   0  0  0  0  0  0  0  0  0  0  0  0
    3.9021   -3.4106    0.0000 F   0  0  0  0  0  0  0  0  0  0  0  0
   13.0159    1.1559    0.0000 O   0  0  0  0  0  0  0  0  0  0  0  0
    4.1871    0.7026    0.0000 N   0  0  3  0  0  0  0  0  0  0  0  0
    6.6680    1.5116    0.0000 N   0  0  3  0  0  0  0  0  0  0  0  0
   11.2558    2.4346    0.0000 N   0  0  0  0  0  0  0  0  0  0  0  0
   11.2558    4.0527    0.0000 N   0  0  0  0  0  0  0  0  0  0  0  0
   12.2069    3.7437    0.0000 N   0  0  0  0  0  0  0  0  0  0  0  0
   14.5547    1.6559    0.0000 N   0  0  0  0  0  0  0  0  0  0  0  0
    5.1382    2.0116    0.0000 C   0  0  3  0  0  0  0  0  0  0  0  0
    5.1382    1.0116    0.0000 C   0  0  3  0  0  0  0  0  0  0  0  0
    6.0844    2.3164    0.0000 C   0  0  0  0  0  0  0  0  0  0  0  0
    4.1871    2.3206    0.0000 C   0  0  0  0  0  0  0  0  0  0  0  0
    6.0844    0.7069    0.0000 C   0  0  0  0  0  0  0  0  0  0  0  0
    3.5993    1.5116    0.0000 C   0  0  0  0  0  0  0  0  0  0  0  0
    7.6680    1.5116    0.0000 C   0  0  0  0  0  0  0  0  0  0  0  0
    3.8781   -0.2485    0.0000 C   0  0  0  0  0  0  0  0  0  0  0  0
    8.1680    2.3776    0.0000 C   0  0  0  0  0  0  0  0  0  0  0  0
    2.9000   -0.4564    0.0000 C   0  0  0  0  0  0  0  0  0  0  0  0
    4.5472   -0.9916    0.0000 C   0  0  0  0  0  0  0  0  0  0  0  0
    9.1680    2.3776    0.0000 C   0  0  0  0  0  0  0  0  0  0  0  0
    2.5909   -1.4074    0.0000 C   0  0  0  0  0  0  0  0  0  0  0  0
    4.2382   -1.9427    0.0000 C   0  0  0  0  0  0  0  0  0  0  0  0
    3.2601   -2.1506    0.0000 C   0  0  0  0  0  0  0  0  0  0  0  0
    2.9511   -3.1016    0.0000 C   0  0  0  0  0  0  0  0  0  0  0  0
   10.6680    3.2437    0.0000 C   0  0  0  0  0  0  0  0  0  0  0  0
   12.2069    2.7437    0.0000 C   0  0  0  0  0  0  0  0  0  0  0  0
   10.9468    1.4836    0.0000 C   0  0  0  0  0  0  0  0  0  0  0  0
   13.0159    2.1559    0.0000 C   0  0  0  0  0  0  0  0  0  0  0  0
   13.9669    2.4649    0.0000 C   0  0  0  0  0  0  0  0  0  0  0  0
   14.2759    3.4160    0.0000 C   0  0  0  0  0  0  0  0  0  0  0  0
   13.9669    0.8469    0.0000 C   0  0  0  0  0  0  0  0  0  0  0  0
    5.1390    2.6316    0.0000 H   0  0  0  0  0  0  0  0  0  0  0  0
    5.1390    0.3916    0.0000 H   0  0  0  0  0  0  0  0  0  0  0  0
    6.6218    2.6256    0.0000 H   0  0  0  0  0  0  0  0  0  0  0  0
    5.8334    2.8832    0.0000 H   0  0  0  0  0  0  0  0  0  0  0  0
    4.4393    2.8870    0.0000 H   0  0  0  0  0  0  0  0  0  0  0  0
    3.6502    2.6306    0.0000 H   0  0  0  0  0  0  0  0  0  0  0  0
    5.8334    0.1400    0.0000 H   0  0  0  0  0  0  0  0  0  0  0  0
    6.6218    0.3977    0.0000 H   0  0  0  0  0  0  0  0  0  0  0  0
    3.1386    1.9265    0.0000 H   0  0  0  0  0  0  0  0  0  0  0  0
    3.1386    1.0967    0.0000 H   0  0  0  0  0  0  0  0  0  0  0  0
    7.5604    0.9010    0.0000 H   0  0  0  0  0  0  0  0  0  0  0  0
    8.2506    1.2996    0.0000 H   0  0  0  0  0  0  0  0  0  0  0  0
    8.2757    2.9882    0.0000 H   0  0  0  0  0  0  0  0  0  0  0  0
    7.5854    2.5897    0.0000 H   0  0  0  0  0  0  0  0  0  0  0  0
    5.1537   -0.8627    0.0000 H   0  0  0  0  0  0  0  0  0  0  0  0
    9.0604    1.7671    0.0000 H   0  0  0  0  0  0  0  0  0  0  0  0
    9.7506    2.1656    0.0000 H   0  0  0  0  0  0  0  0  0  0  0  0
    1.9845   -1.5363    0.0000 H   0  0  0  0  0  0  0  0  0  0  0  0
    4.6531   -2.4034    0.0000 H   0  0  0  0  0  0  0  0  0  0  0  0
   10.3571    1.6752    0.0000 H   0  0  0  0  0  0  0  0  0  0  0  0
   10.7552    0.8939    0.0000 H   0  0  0  0  0  0  0  0  0  0  0  0
   11.5364    1.2920    0.0000 H   0  0  0  0  0  0  0  0  0  0  0  0
   14.8656    3.2244    0.0000 H   0  0  0  0  0  0  0  0  0  0  0  0
   14.4675    4.0056    0.0000 H   0  0  0  0  0  0  0  0  0  0  0  0
   13.6863    3.6076    0.0000 H   0  0  0  0  0  0  0  0  0  0  0  0
   14.1585    0.2572    0.0000 H   0  0  0  0  0  0  0  0  0  0  0  0
  1 24  1  0  0  0  0
  1 29  1  0  0  0  0
  2 22  1  0  0  0  0
  3 28  1  0  0  0  0
  4 28  1  0  0  0  0
  5 28  1  0  0  0  0
  6 32  1  0  0  0  0
  6 35  1  0  0  0  0
  7 14  1  0  0  0  0
  7 18  1  0  0  0  0
  7 20  1  0  0  0  0
  8 15  1  0  0  0  0
  8 17  1  0  0  0  0
  8 19  1  0  0  0  0
  9 29  1  0  0  0  0
  9 30  1  0  0  0  0
  9 31  1  0  0  0  0
 10 11  1  0  0  0  0
 10 29  2  0  0  0  0
 11 30  2  0  0  0  0
 12 33  1  0  0  0  0
 12 35  2  0  0  0  0
 13 14  1  0  0  0  0
 13 15  1  0  0  0  0
 13 16  1  0  0  0  0
 13 36  1  0  0  0  0
 14 17  1  0  0  0  0
 14 37  1  0  0  0  0
 15 38  1  0  0  0  0
 15 39  1  0  0  0  0
 16 18  1  0  0  0  0
 16 40  1  0  0  0  0
 16 41  1  0  0  0  0
 17 42  1  0  0  0  0
 17 43  1  0  0  0  0
 18 44  1  0  0  0  0
 18 45  1  0  0  0  0
 19 21  1  0  0  0  0
 19 46  1  0  0  0  0
 19 47  1  0  0  0  0
 20 22  2  0  0  0  0
 20 23  1  0  0  0  0
 21 24  1  0  0  0  0
 21 48  1  0  0  0  0
 21 49  1  0  0  0  0
 22 25  1  0  0  0  0
 23 26  2  0  0  0  0
 23 50  1  0  0  0  0
 24 51  1  0  0  0  0
 24 52  1  0  0  0  0
 25 27  2  0  0  0  0
 25 53  1  0  0  0  0
 26 27  1  0  0  0  0
 26 54  1  0  0  0  0
 27 28  1  0  0  0  0
 30 32  1  0  0  0  0
 31 55  1  0  0  0  0
 31 56  1  0  0  0  0
 31 57  1  0  0  0  0
 32 33  2  0  0  0  0
 33 34  1  0  0  0  0
 34 58  1  0  0  0  0
 34 59  1  0  0  0  0
 34 60  1  0  0  0  0
 35 61  1  0  0  0  0
M  END
> <PUBCHEM_COMPOUND_CID>
126534373

> <PUBCHEM_COMPOUND_CANONICALIZED>
1

> <PUBCHEM_CACTVS_COMPLEXITY>
722

> <PUBCHEM_CACTVS_HBOND_ACCEPTOR>
11

> <PUBCHEM_CACTVS_HBOND_DONOR>
0

> <PUBCHEM_CACTVS_ROTATABLE_BOND>
7

> <PUBCHEM_CACTVS_SUBSKEYS>
AAADceB7ocBAAAAAAAAAAAAAAAAAAWLFiwAwAAAAAAAWAAAB8AAAHwQIAAAADSzF3x631JcMFEiqA6Zz9ASS2Ct7YrAd2CG9ZJiOaCLk2bGdIChgjALYyAcQgAAOCAAAAAAAAAAQAAAAAAAAAAAAAAAAAA==

> <PUBCHEM_IUPAC_OPENEYE_NAME>
5-[5-[3-[1-[2-fluoro-4-(trifluoromethyl)phenyl]-2,3,3a,4,6,6a-hexahydropyrrolo[2,3-c]pyrrol-5-yl]propylsulfanyl]-4-methyl-1,2,4-triazol-3-yl]-4-methyl-oxazole

> <PUBCHEM_IUPAC_CAS_NAME>
5-[5-[3-[1-[2-fluoro-4-(trifluoromethyl)phenyl]-2,3,3a,4,6,6a-hexahydropyrrolo[2,3-c]pyrrol-5-yl]propylthio]-4-methyl-1,2,4-triazol-3-yl]-4-methyloxazole

> <PUBCHEM_IUPAC_NAME_MARKUP>
5-[5-[3-[1-[2-fluoro-4-(trifluoromethyl)phenyl]-2,3,3<I>a</I>,4,6,6<I>a</I>-hexahydropyrrolo[2,3-c]pyrrol-5-yl]propylsulfanyl]-4-methyl-1,2,4-triazol-3-yl]-4-methyl-1,3-oxazole

> <PUBCHEM_IUPAC_NAME>
5-[5-[3-[1-[2-fluoro-4-(trifluoromethyl)phenyl]-2,3,3a,4,6,6a-hexahydropyrrolo[2,3-c]pyrrol-5-yl]propylsulfanyl]-4-methyl-1,2,4-triazol-3-yl]-4-methyl-1,3-oxazole

> <PUBCHEM_IUPAC_SYSTEMATIC_NAME>
5-[5-[3-[1-[2-fluoranyl-4-(trifluoromethyl)phenyl]-2,3,3a,4,6,6a-hexahydropyrrolo[2,3-c]pyrrol-5-yl]propylsulfanyl]-4-methyl-1,2,4-triazol-3-yl]-4-methyl-1,3-oxazole

> <PUBCHEM_IUPAC_TRADITIONAL_NAME>
5-[5-[3-[1-[2-fluoro-4-(trifluoromethyl)phenyl]-2,3,3a,4,6,6a-hexahydropyrrolo[2,3-c]pyrrol-5-yl]propylthio]-4-methyl-1,2,4-triazol-3-yl]-4-methyl-oxazole

> <PUBCHEM_IUPAC_INCHI>
InChI=1S/C23H26F4N6OS/c1-14-20(34-13-28-14)21-29-30-22(31(21)2)35-9-3-7-32-11-15-6-8-33(19(15)12-32)18-5-4-16(10-17(18)24)23(25,26)27/h4-5,10,13,15,19H,3,6-9,11-12H2,1-2H3

> <PUBCHEM_IUPAC_INCHIKEY>
YTXILLIRPDSLHZ-UHFFFAOYSA-N

> <PUBCHEM_XLOGP3_AA>
4.2

> <PUBCHEM_EXACT_MASS>
510.18249330

> <PUBCHEM_MOLECULAR_FORMULA>
C23H26F4N6OS

> <PUBCHEM_MOLECULAR_WEIGHT>
510.6

> <PUBCHEM_OPENEYE_CAN_SMILES>
CC1=C(OC=N1)C2=NN=C(N2C)SCCCN3CC4CCN(C4C3)C5=C(C=C(C=C5)C(F)(F)F)F

> <PUBCHEM_OPENEYE_ISO_SMILES>
CC1=C(OC=N1)C2=NN=C(N2C)SCCCN3CC4CCN(C4C3)C5=C(C=C(C=C5)C(F)(F)F)F

> <PUBCHEM_CACTVS_TPSA>
88.5

> <PUBCHEM_MONOISOTOPIC_WEIGHT>
510.18249330

> <PUBCHEM_TOTAL_CHARGE>
0

> <PUBCHEM_HEAVY_ATOM_COUNT>
35

> <PUBCHEM_ATOM_DEF_STEREO_COUNT>
0

> <PUBCHEM_ATOM_UDEF_STEREO_COUNT>
2

> <PUBCHEM_BOND_DEF_STEREO_COUNT>
0

> <PUBCHEM_BOND_UDEF_STEREO_COUNT>
0

> <PUBCHEM_ISOTOPIC_ATOM_COUNT>
0

> <PUBCHEM_COMPONENT_COUNT>
1

> <PUBCHEM_CACTVS_TAUTO_COUNT>
-1

> <PUBCHEM_COORDINATE_TYPE>
1
5
255

> <PUBCHEM_BONDANNOTATIONS>
10  11  8
10  29  8
11  30  8
12  33  8
12  35  8
13  16  3
14  17  3
20  22  8
20  23  8
22  25  8
23  26  8
25  27  8
26  27  8
32  33  8
6  32  8
6  35  8
9  29  8
9  30  8

$$$$
