126720252
  -OEChem-09292322382D

 97102  0     0  0  0  0  0  0999 V2000
   10.2171   11.2401    0.0000 F   0  0  0  0  0  0  0  0  0  0  0  0
   11.5846   10.8793    0.0000 F   0  0  0  0  0  0  0  0  0  0  0  0
   11.2238    9.5119    0.0000 F   0  0  0  0  0  0  0  0  0  0  0  0
    2.8660    9.8419    0.0000 O   0  0  0  0  0  0  0  0  0  0  0  0
    2.0000    8.3419    0.0000 O   0  0  0  0  0  0  0  0  0  0  0  0
    4.5981    0.8418    0.0000 N   0  0  0  0  0  0  0  0  0  0  0  0
    3.3660   -4.6970    0.0000 N   0  0  0  0  0  0  0  0  0  0  0  0
    2.0570   -3.7459    0.0000 N   0  0  0  0  0  0  0  0  0  0  0  0
    2.3660   -4.6970    0.0000 N   0  0  0  0  0  0  0  0  0  0  0  0
    4.4970  -10.6737    0.0000 N   0  0  0  0  0  0  0  0  0  0  0  0
    4.5981    2.8418    0.0000 C   0  0  0  0  0  0  0  0  0  0  0  0
    5.4641    2.3418    0.0000 C   0  0  0  0  0  0  0  0  0  0  0  0
    3.7320    2.3418    0.0000 C   0  0  0  0  0  0  0  0  0  0  0  0
    5.4641    1.3418    0.0000 C   0  0  0  0  0  0  0  0  0  0  0  0
    3.7320    1.3418    0.0000 C   0  0  0  0  0  0  0  0  0  0  0  0
    4.5981   -0.1582    0.0000 C   0  0  0  0  0  0  0  0  0  0  0  0
    4.5981    3.8418    0.0000 C   0  0  0  0  0  0  0  0  0  0  0  0
    3.7320   -0.6582    0.0000 C   0  0  0  0  0  0  0  0  0  0  0  0
    3.7320   -1.6582    0.0000 C   0  0  0  0  0  0  0  0  0  0  0  0
    3.7320    4.3418    0.0000 C   0  0  0  0  0  0  0  0  0  0  0  0
    5.4641    4.3418    0.0000 C   0  0  0  0  0  0  0  0  0  0  0  0
    2.8660   -2.1582    0.0000 C   0  0  0  0  0  0  0  0  0  0  0  0
    3.7320    5.3418    0.0000 C   0  0  0  0  0  0  0  0  0  0  0  0
    5.4641    5.3418    0.0000 C   0  0  0  0  0  0  0  0  0  0  0  0
    4.5981    5.8418    0.0000 C   0  0  0  0  0  0  0  0  0  0  0  0
    4.5981    6.8418    0.0000 C   0  0  0  0  0  0  0  0  0  0  0  0
    2.8660   -3.1582    0.0000 C   0  0  0  0  0  0  0  0  0  0  0  0
    5.4641    7.3418    0.0000 C   0  0  0  0  0  0  0  0  0  0  0  0
    3.6750   -3.7459    0.0000 C   0  0  0  0  0  0  0  0  0  0  0  0
    3.7320    7.3418    0.0000 C   0  0  0  0  0  0  0  0  0  0  0  0
    5.4641    8.3419    0.0000 C   0  0  0  0  0  0  0  0  0  0  0  0
    3.9538   -5.5060    0.0000 C   0  0  0  0  0  0  0  0  0  0  0  0
    3.5471   -6.4196    0.0000 C   0  0  0  0  0  0  0  0  0  0  0  0
    3.7320    8.3419    0.0000 C   0  0  0  0  0  0  0  0  0  0  0  0
    6.3580    6.8072    0.0000 C   0  0  0  0  0  0  0  0  0  0  0  0
    4.1349   -7.2286    0.0000 C   0  0  0  0  0  0  0  0  0  0  0  0
    4.5981    8.8419    0.0000 C   0  0  0  0  0  0  0  0  0  0  0  0
    3.7281   -8.1421    0.0000 C   0  0  0  0  0  0  0  0  0  0  0  0
    6.3580    8.8765    0.0000 C   0  0  0  0  0  0  0  0  0  0  0  0
    7.2641    8.3627    0.0000 C   0  0  0  0  0  0  0  0  0  0  0  0
    7.2641    7.3210    0.0000 C   0  0  0  0  0  0  0  0  0  0  0  0
    4.3159   -8.9511    0.0000 C   0  0  0  0  0  0  0  0  0  0  0  0
    2.8660    8.8419    0.0000 C   0  0  0  0  0  0  0  0  0  0  0  0
    8.1282    8.8660    0.0000 C   0  0  0  0  0  0  0  0  0  0  0  0
    3.9092   -9.8647    0.0000 C   0  0  0  0  0  0  0  0  0  0  0  0
    8.1244    9.8660    0.0000 C   0  0  0  0  0  0  0  0  0  0  0  0
    8.9962    8.3693    0.0000 C   0  0  0  0  0  0  0  0  0  0  0  0
    8.9884   10.3693    0.0000 C   0  0  0  0  0  0  0  0  0  0  0  0
    9.8602    8.8727    0.0000 C   0  0  0  0  0  0  0  0  0  0  0  0
    9.8564    9.8727    0.0000 C   0  0  0  0  0  0  0  0  0  0  0  0
   10.7205   10.3760    0.0000 C   0  0  0  0  0  0  0  0  0  0  0  0
    5.1350    3.1518    0.0000 H   0  0  0  0  0  0  0  0  0  0  0  0
    6.0747    2.2342    0.0000 H   0  0  0  0  0  0  0  0  0  0  0  0
    5.6762    2.9245    0.0000 H   0  0  0  0  0  0  0  0  0  0  0  0
    3.5200    2.9245    0.0000 H   0  0  0  0  0  0  0  0  0  0  0  0
    3.1215    2.2342    0.0000 H   0  0  0  0  0  0  0  0  0  0  0  0
    5.6762    0.7592    0.0000 H   0  0  0  0  0  0  0  0  0  0  0  0
    6.0747    1.4495    0.0000 H   0  0  0  0  0  0  0  0  0  0  0  0
    3.1215    1.4495    0.0000 H   0  0  0  0  0  0  0  0  0  0  0  0
    3.5200    0.7592    0.0000 H   0  0  0  0  0  0  0  0  0  0  0  0
    4.8101   -0.7408    0.0000 H   0  0  0  0  0  0  0  0  0  0  0  0
    5.2087   -0.0505    0.0000 H   0  0  0  0  0  0  0  0  0  0  0  0
    3.5200   -0.0755    0.0000 H   0  0  0  0  0  0  0  0  0  0  0  0
    3.1215   -0.7658    0.0000 H   0  0  0  0  0  0  0  0  0  0  0  0
    3.9441   -2.2408    0.0000 H   0  0  0  0  0  0  0  0  0  0  0  0
    4.3426   -1.5505    0.0000 H   0  0  0  0  0  0  0  0  0  0  0  0
    3.1951    4.0319    0.0000 H   0  0  0  0  0  0  0  0  0  0  0  0
    6.0010    4.0319    0.0000 H   0  0  0  0  0  0  0  0  0  0  0  0
    2.6540   -1.5755    0.0000 H   0  0  0  0  0  0  0  0  0  0  0  0
    2.2554   -2.2658    0.0000 H   0  0  0  0  0  0  0  0  0  0  0  0
    3.1951    5.6518    0.0000 H   0  0  0  0  0  0  0  0  0  0  0  0
    6.0010    5.6518    0.0000 H   0  0  0  0  0  0  0  0  0  0  0  0
    4.2647   -3.5543    0.0000 H   0  0  0  0  0  0  0  0  0  0  0  0
    3.1951    7.0318    0.0000 H   0  0  0  0  0  0  0  0  0  0  0  0
    4.4678   -5.8527    0.0000 H   0  0  0  0  0  0  0  0  0  0  0  0
    4.3845   -5.0600    0.0000 H   0  0  0  0  0  0  0  0  0  0  0  0
    3.0331   -6.0728    0.0000 H   0  0  0  0  0  0  0  0  0  0  0  0
    3.1164   -6.8655    0.0000 H   0  0  0  0  0  0  0  0  0  0  0  0
    4.6489   -7.5753    0.0000 H   0  0  0  0  0  0  0  0  0  0  0  0
    4.5656   -6.7826    0.0000 H   0  0  0  0  0  0  0  0  0  0  0  0
    6.3509    6.1872    0.0000 H   0  0  0  0  0  0  0  0  0  0  0  0
    4.5981    9.4618    0.0000 H   0  0  0  0  0  0  0  0  0  0  0  0
    3.2141   -7.7954    0.0000 H   0  0  0  0  0  0  0  0  0  0  0  0
    3.2974   -8.5881    0.0000 H   0  0  0  0  0  0  0  0  0  0  0  0
    6.3509    9.4965    0.0000 H   0  0  0  0  0  0  0  0  0  0  0  0
    7.7998    7.0090    0.0000 H   0  0  0  0  0  0  0  0  0  0  0  0
    4.8299   -9.2978    0.0000 H   0  0  0  0  0  0  0  0  0  0  0  0
    4.7466   -8.5051    0.0000 H   0  0  0  0  0  0  0  0  0  0  0  0
    3.3952   -9.5180    0.0000 H   0  0  0  0  0  0  0  0  0  0  0  0
    3.4785  -10.3107    0.0000 H   0  0  0  0  0  0  0  0  0  0  0  0
    7.5862   10.1739    0.0000 H   0  0  0  0  0  0  0  0  0  0  0  0
    8.9985    7.7494    0.0000 H   0  0  0  0  0  0  0  0  0  0  0  0
    4.2448  -11.2401    0.0000 H   0  0  0  0  0  0  0  0  0  0  0  0
    5.1136  -10.6089    0.0000 H   0  0  0  0  0  0  0  0  0  0  0  0
    2.3291   10.1518    0.0000 H   0  0  0  0  0  0  0  0  0  0  0  0
    8.9860   10.9893    0.0000 H   0  0  0  0  0  0  0  0  0  0  0  0
   10.3984    8.5648    0.0000 H   0  0  0  0  0  0  0  0  0  0  0  0
  1 51  1  0  0  0  0
  2 51  1  0  0  0  0
  3 51  1  0  0  0  0
  4 43  1  0  0  0  0
  4 95  1  0  0  0  0
  5 43  2  0  0  0  0
  6 14  1  0  0  0  0
  6 15  1  0  0  0  0
  6 16  1  0  0  0  0
  7  9  1  0  0  0  0
  7 29  1  0  0  0  0
  7 32  1  0  0  0  0
  8  9  2  0  0  0  0
  8 27  1  0  0  0  0
 10 45  1  0  0  0  0
 10 93  1  0  0  0  0
 10 94  1  0  0  0  0
 11 12  1  0  0  0  0
 11 13  1  0  0  0  0
 11 17  1  0  0  0  0
 11 52  1  0  0  0  0
 12 14  1  0  0  0  0
 12 53  1  0  0  0  0
 12 54  1  0  0  0  0
 13 15  1  0  0  0  0
 13 55  1  0  0  0  0
 13 56  1  0  0  0  0
 14 57  1  0  0  0  0
 14 58  1  0  0  0  0
 15 59  1  0  0  0  0
 15 60  1  0  0  0  0
 16 18  1  0  0  0  0
 16 61  1  0  0  0  0
 16 62  1  0  0  0  0
 17 20  2  0  0  0  0
 17 21  1  0  0  0  0
 18 19  1  0  0  0  0
 18 63  1  0  0  0  0
 18 64  1  0  0  0  0
 19 22  1  0  0  0  0
 19 65  1  0  0  0  0
 19 66  1  0  0  0  0
 20 23  1  0  0  0  0
 20 67  1  0  0  0  0
 21 24  2  0  0  0  0
 21 68  1  0  0  0  0
 22 27  1  0  0  0  0
 22 69  1  0  0  0  0
 22 70  1  0  0  0  0
 23 25  2  0  0  0  0
 23 71  1  0  0  0  0
 24 25  1  0  0  0  0
 24 72  1  0  0  0  0
 25 26  1  0  0  0  0
 26 28  2  0  0  0  0
 26 30  1  0  0  0  0
 27 29  2  0  0  0  0
 28 31  1  0  0  0  0
 28 35  1  0  0  0  0
 29 73  1  0  0  0  0
 30 34  2  0  0  0  0
 30 74  1  0  0  0  0
 31 37  2  0  0  0  0
 31 39  1  0  0  0  0
 32 33  1  0  0  0  0
 32 75  1  0  0  0  0
 32 76  1  0  0  0  0
 33 36  1  0  0  0  0
 33 77  1  0  0  0  0
 33 78  1  0  0  0  0
 34 37  1  0  0  0  0
 34 43  1  0  0  0  0
 35 41  2  0  0  0  0
 35 81  1  0  0  0  0
 36 38  1  0  0  0  0
 36 79  1  0  0  0  0
 36 80  1  0  0  0  0
 37 82  1  0  0  0  0
 38 42  1  0  0  0  0
 38 83  1  0  0  0  0
 38 84  1  0  0  0  0
 39 40  2  0  0  0  0
 39 85  1  0  0  0  0
 40 41  1  0  0  0  0
 40 44  1  0  0  0  0
 41 86  1  0  0  0  0
 42 45  1  0  0  0  0
 42 87  1  0  0  0  0
 42 88  1  0  0  0  0
 44 46  2  0  0  0  0
 44 47  1  0  0  0  0
 45 89  1  0  0  0  0
 45 90  1  0  0  0  0
 46 48  1  0  0  0  0
 46 91  1  0  0  0  0
 47 49  2  0  0  0  0
 47 92  1  0  0  0  0
 48 50  2  0  0  0  0
 48 96  1  0  0  0  0
 49 50  1  0  0  0  0
 49 97  1  0  0  0  0
 50 51  1  0  0  0  0
M  END
> <PUBCHEM_COMPOUND_CID>
126720252

> <PUBCHEM_COMPOUND_CANONICALIZED>
1

> <PUBCHEM_CACTVS_COMPLEXITY>
1040

> <PUBCHEM_CACTVS_HBOND_ACCEPTOR>
9

> <PUBCHEM_CACTVS_HBOND_DONOR>
2

> <PUBCHEM_CACTVS_ROTATABLE_BOND>
15

> <PUBCHEM_CACTVS_SUBSKEYS>
AAADcfB/sYAAAAAAAAAAAAAAAAAAAWAAAAA8YMGCAAAAAADB1AAAHwAYCAAADQjBnhQ8iNNIAgCqAzT3TAACBAQ1kgAY2IE4eMgIZjLAlRCUcQAk0AHI2YeYyPCOwAACAAAQAACAAAQAACAAAAAAAAAAAA==

> <PUBCHEM_IUPAC_OPENEYE_NAME>
4-[4-[1-[4-[1-(6-aminohexyl)triazol-4-yl]butyl]-4-piperidyl]phenyl]-7-[4-(trifluoromethyl)phenyl]naphthalene-2-carboxylic acid

> <PUBCHEM_IUPAC_CAS_NAME>
4-[4-[1-[4-[1-(6-aminohexyl)-4-triazolyl]butyl]-4-piperidinyl]phenyl]-7-[4-(trifluoromethyl)phenyl]-2-naphthalenecarboxylic acid

> <PUBCHEM_IUPAC_NAME_MARKUP>
4-[4-[1-[4-[1-(6-aminohexyl)triazol-4-yl]butyl]piperidin-4-yl]phenyl]-7-[4-(trifluoromethyl)phenyl]naphthalene-2-carboxylic acid

> <PUBCHEM_IUPAC_NAME>
4-[4-[1-[4-[1-(6-aminohexyl)triazol-4-yl]butyl]piperidin-4-yl]phenyl]-7-[4-(trifluoromethyl)phenyl]naphthalene-2-carboxylic acid

> <PUBCHEM_IUPAC_SYSTEMATIC_NAME>
4-[4-[1-[4-[1-(6-azanylhexyl)-1,2,3-triazol-4-yl]butyl]piperidin-4-yl]phenyl]-7-[4-(trifluoromethyl)phenyl]naphthalene-2-carboxylic acid

> <PUBCHEM_IUPAC_TRADITIONAL_NAME>
4-[4-[1-[4-[1-(6-aminohexyl)triazol-4-yl]butyl]-4-piperidyl]phenyl]-7-[4-(trifluoromethyl)phenyl]-2-naphthoic acid

> <PUBCHEM_IUPAC_INCHI>
InChI=1S/C41H46F3N5O2/c42-41(43,44)36-15-12-30(13-16-36)33-14-17-38-34(25-33)26-35(40(50)51)27-39(38)32-10-8-29(9-11-32)31-18-23-48(24-19-31)21-6-3-7-37-28-49(47-46-37)22-5-2-1-4-20-45/h8-17,25-28,31H,1-7,18-24,45H2,(H,50,51)

> <PUBCHEM_IUPAC_INCHIKEY>
UFIMBHYPDHTMKA-UHFFFAOYSA-N

> <PUBCHEM_XLOGP3_AA>
6

> <PUBCHEM_EXACT_MASS>
697.36036021

> <PUBCHEM_MOLECULAR_FORMULA>
C41H46F3N5O2

> <PUBCHEM_MOLECULAR_WEIGHT>
697.8

> <PUBCHEM_OPENEYE_CAN_SMILES>
C1CN(CCC1C2=CC=C(C=C2)C3=C4C=CC(=CC4=CC(=C3)C(=O)O)C5=CC=C(C=C5)C(F)(F)F)CCCCC6=CN(N=N6)CCCCCCN

> <PUBCHEM_OPENEYE_ISO_SMILES>
C1CN(CCC1C2=CC=C(C=C2)C3=C4C=CC(=CC4=CC(=C3)C(=O)O)C5=CC=C(C=C5)C(F)(F)F)CCCCC6=CN(N=N6)CCCCCCN

> <PUBCHEM_CACTVS_TPSA>
97.3

> <PUBCHEM_MONOISOTOPIC_WEIGHT>
697.36036021

> <PUBCHEM_TOTAL_CHARGE>
0

> <PUBCHEM_HEAVY_ATOM_COUNT>
51

> <PUBCHEM_ATOM_DEF_STEREO_COUNT>
0

> <PUBCHEM_ATOM_UDEF_STEREO_COUNT>
0

> <PUBCHEM_BOND_DEF_STEREO_COUNT>
0

> <PUBCHEM_BOND_UDEF_STEREO_COUNT>
0

> <PUBCHEM_ISOTOPIC_ATOM_COUNT>
0

> <PUBCHEM_COMPONENT_COUNT>
1

> <PUBCHEM_CACTVS_TAUTO_COUNT>
-1

> <PUBCHEM_COORDINATE_TYPE>
1
5
255

> <PUBCHEM_BONDANNOTATIONS>
17  20  8
17  21  8
20  23  8
21  24  8
23  25  8
24  25  8
26  28  8
26  30  8
27  29  8
28  31  8
28  35  8
30  34  8
31  37  8
31  39  8
34  37  8
35  41  8
39  40  8
40  41  8
44  46  8
44  47  8
46  48  8
47  49  8
48  50  8
49  50  8
7  29  8
7  9  8
8  27  8
8  9  8

$$$$
