11553516
  -OEChem-09292322272D

 61 65  0     0  0  0  0  0  0999 V2000
    7.6106    3.1661    0.0000 O   0  0  0  0  0  0  0  0  0  0  0  0
    9.3426    5.1661    0.0000 O   0  0  0  0  0  0  0  0  0  0  0  0
    5.8853    0.1317    0.0000 N   0  0  0  0  0  0  0  0  0  0  0  0
    5.8622    2.1315    0.0000 N   0  0  0  0  0  0  0  0  0  0  0  0
    7.6106    5.1661    0.0000 N   0  0  0  0  0  0  0  0  0  0  0  0
    2.6171   -3.2383    0.0000 N   0  0  0  0  0  0  0  0  0  0  0  0
    5.0135    0.6216    0.0000 C   0  0  0  0  0  0  0  0  0  0  0  0
    6.7455    0.6416    0.0000 C   0  0  0  0  0  0  0  0  0  0  0  0
    5.0020    1.6215    0.0000 C   0  0  0  0  0  0  0  0  0  0  0  0
    6.7339    1.6416    0.0000 C   0  0  0  0  0  0  0  0  0  0  0  0
    5.8968   -0.8683    0.0000 C   0  0  0  0  0  0  0  0  0  0  0  0
    5.8506    3.1315    0.0000 C   0  0  0  0  0  0  0  0  0  0  0  0
    5.0367   -1.3783    0.0000 C   0  0  0  0  0  0  0  0  0  0  0  0
    6.7445    3.6661    0.0000 C   0  0  0  0  0  0  0  0  0  0  0  0
    5.0482   -2.3782    0.0000 C   0  0  0  0  0  0  0  0  0  0  0  0
    8.4766    3.6661    0.0000 C   0  0  0  0  0  0  0  0  0  0  0  0
    6.7445    4.6661    0.0000 C   0  0  0  0  0  0  0  0  0  0  0  0
    4.9445    3.6453    0.0000 C   0  0  0  0  0  0  0  0  0  0  0  0
    4.1880   -2.8882    0.0000 C   0  0  0  0  0  0  0  0  0  0  0  0
    8.4766    4.6661    0.0000 C   0  0  0  0  0  0  0  0  0  0  0  0
    5.8506    5.2008    0.0000 C   0  0  0  0  0  0  0  0  0  0  0  0
    4.0964   -3.8780    0.0000 C   0  0  0  0  0  0  0  0  0  0  0  0
    4.9445    4.6869    0.0000 C   0  0  0  0  0  0  0  0  0  0  0  0
    9.4766    3.6661    0.0000 C   0  0  0  0  0  0  0  0  0  0  0  0
    8.9766    2.8001    0.0000 C   0  0  0  0  0  0  0  0  0  0  0  0
    3.2756   -2.4936    0.0000 C   0  0  0  0  0  0  0  0  0  0  0  0
    3.1204   -4.0955    0.0000 C   0  0  0  0  0  0  0  0  0  0  0  0
    4.7728   -4.6146    0.0000 C   0  0  0  0  0  0  0  0  0  0  0  0
    2.8207   -5.0496    0.0000 C   0  0  0  0  0  0  0  0  0  0  0  0
    4.4732   -5.5686    0.0000 C   0  0  0  0  0  0  0  0  0  0  0  0
    3.4971   -5.7861    0.0000 C   0  0  0  0  0  0  0  0  0  0  0  0
    4.4018    0.7222    0.0000 H   0  0  0  0  0  0  0  0  0  0  0  0
    4.8082    0.0366    0.0000 H   0  0  0  0  0  0  0  0  0  0  0  0
    6.9642    0.0615    0.0000 H   0  0  0  0  0  0  0  0  0  0  0  0
    7.3548    0.7564    0.0000 H   0  0  0  0  0  0  0  0  0  0  0  0
    4.7832    2.2017    0.0000 H   0  0  0  0  0  0  0  0  0  0  0  0
    4.3927    1.5068    0.0000 H   0  0  0  0  0  0  0  0  0  0  0  0
    7.3457    1.5410    0.0000 H   0  0  0  0  0  0  0  0  0  0  0  0
    6.9392    2.2266    0.0000 H   0  0  0  0  0  0  0  0  0  0  0  0
    6.1156   -1.4484    0.0000 H   0  0  0  0  0  0  0  0  0  0  0  0
    6.5061   -0.7536    0.0000 H   0  0  0  0  0  0  0  0  0  0  0  0
    4.8179   -0.7981    0.0000 H   0  0  0  0  0  0  0  0  0  0  0  0
    4.4274   -1.4930    0.0000 H   0  0  0  0  0  0  0  0  0  0  0  0
    5.2670   -2.9583    0.0000 H   0  0  0  0  0  0  0  0  0  0  0  0
    5.6575   -2.2635    0.0000 H   0  0  0  0  0  0  0  0  0  0  0  0
    4.4088    3.3332    0.0000 H   0  0  0  0  0  0  0  0  0  0  0  0
    7.6106    5.7861    0.0000 H   0  0  0  0  0  0  0  0  0  0  0  0
    5.8578    5.8207    0.0000 H   0  0  0  0  0  0  0  0  0  0  0  0
    4.4088    4.9990    0.0000 H   0  0  0  0  0  0  0  0  0  0  0  0
    9.4766    3.0461    0.0000 H   0  0  0  0  0  0  0  0  0  0  0  0
   10.0966    3.6661    0.0000 H   0  0  0  0  0  0  0  0  0  0  0  0
    9.4766    4.2861    0.0000 H   0  0  0  0  0  0  0  0  0  0  0  0
    8.4396    2.4901    0.0000 H   0  0  0  0  0  0  0  0  0  0  0  0
    9.2866    2.2632    0.0000 H   0  0  0  0  0  0  0  0  0  0  0  0
    9.5135    3.1101    0.0000 H   0  0  0  0  0  0  0  0  0  0  0  0
    3.1408   -1.8884    0.0000 H   0  0  0  0  0  0  0  0  0  0  0  0
    2.0000   -3.1785    0.0000 H   0  0  0  0  0  0  0  0  0  0  0  0
    5.3780   -4.4797    0.0000 H   0  0  0  0  0  0  0  0  0  0  0  0
    2.2156   -5.1844    0.0000 H   0  0  0  0  0  0  0  0  0  0  0  0
    4.8926   -6.0252    0.0000 H   0  0  0  0  0  0  0  0  0  0  0  0
    3.3113   -6.3776    0.0000 H   0  0  0  0  0  0  0  0  0  0  0  0
  1 14  1  0  0  0  0
  1 16  1  0  0  0  0
  2 20  2  0  0  0  0
  3  7  1  0  0  0  0
  3  8  1  0  0  0  0
  3 11  1  0  0  0  0
  4  9  1  0  0  0  0
  4 10  1  0  0  0  0
  4 12  1  0  0  0  0
  5 17  1  0  0  0  0
  5 20  1  0  0  0  0
  5 47  1  0  0  0  0
  6 26  1  0  0  0  0
  6 27  1  0  0  0  0
  6 57  1  0  0  0  0
  7  9  1  0  0  0  0
  7 32  1  0  0  0  0
  7 33  1  0  0  0  0
  8 10  1  0  0  0  0
  8 34  1  0  0  0  0
  8 35  1  0  0  0  0
  9 36  1  0  0  0  0
  9 37  1  0  0  0  0
 10 38  1  0  0  0  0
 10 39  1  0  0  0  0
 11 13  1  0  0  0  0
 11 40  1  0  0  0  0
 11 41  1  0  0  0  0
 12 14  1  0  0  0  0
 12 18  2  0  0  0  0
 13 15  1  0  0  0  0
 13 42  1  0  0  0  0
 13 43  1  0  0  0  0
 14 17  2  0  0  0  0
 15 19  1  0  0  0  0
 15 44  1  0  0  0  0
 15 45  1  0  0  0  0
 16 20  1  0  0  0  0
 16 24  1  0  0  0  0
 16 25  1  0  0  0  0
 17 21  1  0  0  0  0
 18 23  1  0  0  0  0
 18 46  1  0  0  0  0
 19 22  1  0  0  0  0
 19 26  2  0  0  0  0
 21 23  2  0  0  0  0
 21 48  1  0  0  0  0
 22 27  1  0  0  0  0
 22 28  2  0  0  0  0
 23 49  1  0  0  0  0
 24 50  1  0  0  0  0
 24 51  1  0  0  0  0
 24 52  1  0  0  0  0
 25 53  1  0  0  0  0
 25 54  1  0  0  0  0
 25 55  1  0  0  0  0
 26 56  1  0  0  0  0
 27 29  2  0  0  0  0
 28 30  1  0  0  0  0
 28 58  1  0  0  0  0
 29 31  1  0  0  0  0
 29 59  1  0  0  0  0
 30 31  2  0  0  0  0
 30 60  1  0  0  0  0
 31 61  1  0  0  0  0
M  END
> <PUBCHEM_COMPOUND_CID>
11553516

> <PUBCHEM_COMPOUND_CANONICALIZED>
1

> <PUBCHEM_CACTVS_COMPLEXITY>
633

> <PUBCHEM_CACTVS_HBOND_ACCEPTOR>
4

> <PUBCHEM_CACTVS_HBOND_DONOR>
2

> <PUBCHEM_CACTVS_ROTATABLE_BOND>
5

> <PUBCHEM_CACTVS_SUBSKEYS>
AAADceB7sAAAAAAAAAAAAAAAAAAAAWAAAAA8eIEAAAAAAFix9AAAHgAQAAAADEzBngQ+xvPJlACoAzV3VAKCiCAxIiAI2aF9bJgOZuLE8d+XOCjk1BHY6AeQwMAOgAAAAAQCEAAAAAAACAQgAAAAAAAAAA==

> <PUBCHEM_IUPAC_OPENEYE_NAME>
8-[4-[3-(1H-indol-3-yl)propyl]piperazin-1-yl]-2,2-dimethyl-4H-1,4-benzoxazin-3-one

> <PUBCHEM_IUPAC_CAS_NAME>
8-[4-[3-(1H-indol-3-yl)propyl]-1-piperazinyl]-2,2-dimethyl-4H-1,4-benzoxazin-3-one

> <PUBCHEM_IUPAC_NAME_MARKUP>
8-[4-[3-(1<I>H</I>-indol-3-yl)propyl]piperazin-1-yl]-2,2-dimethyl-4<I>H</I>-1,4-benzoxazin-3-one

> <PUBCHEM_IUPAC_NAME>
8-[4-[3-(1H-indol-3-yl)propyl]piperazin-1-yl]-2,2-dimethyl-4H-1,4-benzoxazin-3-one

> <PUBCHEM_IUPAC_SYSTEMATIC_NAME>
8-[4-[3-(1H-indol-3-yl)propyl]piperazin-1-yl]-2,2-dimethyl-4H-1,4-benzoxazin-3-one

> <PUBCHEM_IUPAC_TRADITIONAL_NAME>
8-[4-[3-(1H-indol-3-yl)propyl]piperazino]-2,2-dimethyl-4H-1,4-benzoxazin-3-one

> <PUBCHEM_IUPAC_INCHI>
InChI=1S/C25H30N4O2/c1-25(2)24(30)27-21-10-5-11-22(23(21)31-25)29-15-13-28(14-16-29)12-6-7-18-17-26-20-9-4-3-8-19(18)20/h3-5,8-11,17,26H,6-7,12-16H2,1-2H3,(H,27,30)

> <PUBCHEM_IUPAC_INCHIKEY>
NXIWXBJHNOSEDP-UHFFFAOYSA-N

> <PUBCHEM_XLOGP3_AA>
3.8

> <PUBCHEM_EXACT_MASS>
418.23687621

> <PUBCHEM_MOLECULAR_FORMULA>
C25H30N4O2

> <PUBCHEM_MOLECULAR_WEIGHT>
418.5

> <PUBCHEM_OPENEYE_CAN_SMILES>
CC1(C(=O)NC2=C(O1)C(=CC=C2)N3CCN(CC3)CCCC4=CNC5=CC=CC=C54)C

> <PUBCHEM_OPENEYE_ISO_SMILES>
CC1(C(=O)NC2=C(O1)C(=CC=C2)N3CCN(CC3)CCCC4=CNC5=CC=CC=C54)C

> <PUBCHEM_CACTVS_TPSA>
60.6

> <PUBCHEM_MONOISOTOPIC_WEIGHT>
418.23687621

> <PUBCHEM_TOTAL_CHARGE>
0

> <PUBCHEM_HEAVY_ATOM_COUNT>
31

> <PUBCHEM_ATOM_DEF_STEREO_COUNT>
0

> <PUBCHEM_ATOM_UDEF_STEREO_COUNT>
0

> <PUBCHEM_BOND_DEF_STEREO_COUNT>
0

> <PUBCHEM_BOND_UDEF_STEREO_COUNT>
0

> <PUBCHEM_ISOTOPIC_ATOM_COUNT>
0

> <PUBCHEM_COMPONENT_COUNT>
1

> <PUBCHEM_CACTVS_TAUTO_COUNT>
-1

> <PUBCHEM_COORDINATE_TYPE>
1
5
255

> <PUBCHEM_BONDANNOTATIONS>
12  14  8
12  18  8
14  17  8
17  21  8
18  23  8
19  22  8
19  26  8
21  23  8
22  27  8
22  28  8
27  29  8
28  30  8
29  31  8
30  31  8
6  26  8
6  27  8

$$$$
