118711269
  -OEChem-09292322472D

 42 44  0     1  0  0  0  0  0999 V2000
    3.0000   -1.4624    0.0000 N   0  0  3  0  0  0  0  0  0  0  0  0
    7.8547   -0.4382    0.0000 N   0  0  0  0  0  0  0  0  0  0  0  0
    4.4088   -0.3389    0.0000 C   0  0  3  0  0  0  0  0  0  0  0  0
    3.4339   -0.5614    0.0000 C   0  0  0  0  0  0  0  0  0  0  0  0
    5.1906   -0.9624    0.0000 C   0  0  0  0  0  0  0  0  0  0  0  0
    3.4339   -2.3634    0.0000 C   0  0  0  0  0  0  0  0  0  0  0  0
    4.4088   -2.5859    0.0000 C   0  0  0  0  0  0  0  0  0  0  0  0
    5.1906   -1.9624    0.0000 C   0  0  0  0  0  0  0  0  0  0  0  0
    4.6313    0.6360    0.0000 C   0  0  0  0  0  0  0  0  0  0  0  0
    6.0846   -0.4277    0.0000 C   0  0  0  0  0  0  0  0  0  0  0  0
    6.0846   -2.4971    0.0000 C   0  0  0  0  0  0  0  0  0  0  0  0
    2.0000   -1.4624    0.0000 C   0  0  0  0  0  0  0  0  0  0  0  0
    6.9906   -0.9416    0.0000 C   0  0  0  0  0  0  0  0  0  0  0  0
    6.9906   -1.9832    0.0000 C   0  0  0  0  0  0  0  0  0  0  0  0
    5.5869    0.9308    0.0000 C   0  0  0  0  0  0  0  0  0  0  0  0
    3.8983    1.3162    0.0000 C   0  0  0  0  0  0  0  0  0  0  0  0
    5.8094    1.9057    0.0000 C   0  0  0  0  0  0  0  0  0  0  0  0
    4.1208    2.2911    0.0000 C   0  0  0  0  0  0  0  0  0  0  0  0
    5.0764    2.5859    0.0000 C   0  0  0  0  0  0  0  0  0  0  0  0
    8.7227   -0.9349    0.0000 C   0  0  0  0  0  0  0  0  0  0  0  0
    3.9704    0.0995    0.0000 H   0  0  0  0  0  0  0  0  0  0  0  0
    3.4339    0.0586    0.0000 H   0  0  0  0  0  0  0  0  0  0  0  0
    2.8294   -0.4235    0.0000 H   0  0  0  0  0  0  0  0  0  0  0  0
    2.8294   -2.5013    0.0000 H   0  0  0  0  0  0  0  0  0  0  0  0
    3.4339   -2.9834    0.0000 H   0  0  0  0  0  0  0  0  0  0  0  0
    4.1398   -3.1445    0.0000 H   0  0  0  0  0  0  0  0  0  0  0  0
    4.8936   -2.9724    0.0000 H   0  0  0  0  0  0  0  0  0  0  0  0
    6.0774    0.1922    0.0000 H   0  0  0  0  0  0  0  0  0  0  0  0
    6.0774   -3.1170    0.0000 H   0  0  0  0  0  0  0  0  0  0  0  0
    2.0000   -0.8424    0.0000 H   0  0  0  0  0  0  0  0  0  0  0  0
    1.3800   -1.4624    0.0000 H   0  0  0  0  0  0  0  0  0  0  0  0
    2.0000   -2.0824    0.0000 H   0  0  0  0  0  0  0  0  0  0  0  0
    7.5264   -2.2953    0.0000 H   0  0  0  0  0  0  0  0  0  0  0  0
    6.0414    0.5091    0.0000 H   0  0  0  0  0  0  0  0  0  0  0  0
    3.3058    1.1334    0.0000 H   0  0  0  0  0  0  0  0  0  0  0  0
    6.4019    2.0885    0.0000 H   0  0  0  0  0  0  0  0  0  0  0  0
    3.6663    2.7128    0.0000 H   0  0  0  0  0  0  0  0  0  0  0  0
    7.8524    0.1818    0.0000 H   0  0  0  0  0  0  0  0  0  0  0  0
    5.2143    3.1903    0.0000 H   0  0  0  0  0  0  0  0  0  0  0  0
    8.4148   -1.4730    0.0000 H   0  0  0  0  0  0  0  0  0  0  0  0
    9.2608   -1.2428    0.0000 H   0  0  0  0  0  0  0  0  0  0  0  0
    9.0306   -0.3968    0.0000 H   0  0  0  0  0  0  0  0  0  0  0  0
  1  4  1  0  0  0  0
  1  6  1  0  0  0  0
  1 12  1  0  0  0  0
  2 13  1  0  0  0  0
  2 20  1  0  0  0  0
  2 38  1  0  0  0  0
  3  4  1  0  0  0  0
  3  5  1  0  0  0  0
  3  9  1  0  0  0  0
  3 21  1  0  0  0  0
  4 22  1  0  0  0  0
  4 23  1  0  0  0  0
  5  8  2  0  0  0  0
  5 10  1  0  0  0  0
  6  7  1  0  0  0  0
  6 24  1  0  0  0  0
  6 25  1  0  0  0  0
  7  8  1  0  0  0  0
  7 26  1  0  0  0  0
  7 27  1  0  0  0  0
  8 11  1  0  0  0  0
  9 15  2  0  0  0  0
  9 16  1  0  0  0  0
 10 13  2  0  0  0  0
 10 28  1  0  0  0  0
 11 14  2  0  0  0  0
 11 29  1  0  0  0  0
 12 30  1  0  0  0  0
 12 31  1  0  0  0  0
 12 32  1  0  0  0  0
 13 14  1  0  0  0  0
 14 33  1  0  0  0  0
 15 17  1  0  0  0  0
 15 34  1  0  0  0  0
 16 18  2  0  0  0  0
 16 35  1  0  0  0  0
 17 19  2  0  0  0  0
 17 36  1  0  0  0  0
 18 19  1  0  0  0  0
 18 37  1  0  0  0  0
 19 39  1  0  0  0  0
 20 40  1  0  0  0  0
 20 41  1  0  0  0  0
 20 42  1  0  0  0  0
M  END
> <PUBCHEM_COMPOUND_CID>
118711269

> <PUBCHEM_COMPOUND_CANONICALIZED>
1

> <PUBCHEM_CACTVS_COMPLEXITY>
298

> <PUBCHEM_CACTVS_HBOND_ACCEPTOR>
2

> <PUBCHEM_CACTVS_HBOND_DONOR>
1

> <PUBCHEM_CACTVS_ROTATABLE_BOND>
2

> <PUBCHEM_CACTVS_SUBSKEYS>
AAADceB7AAAAAAAAAAAAAAAAAAAAAAAAAAAwYAAABYAAAAABQAAAHAAQAAAADQjBGAQywIPAAACAAiRCQACCAAAhAgAIiIAIZIgIICLAkZGEIAhgkADIyAcQgMAOiAAAQAAQAAAQAACAACAAAAAAAAAAAA==

> <PUBCHEM_IUPAC_OPENEYE_NAME>
N,3-dimethyl-5-phenyl-1,2,4,5-tetrahydro-3-benzazepin-7-amine

> <PUBCHEM_IUPAC_CAS_NAME>
N,3-dimethyl-5-phenyl-1,2,4,5-tetrahydro-3-benzazepin-7-amine

> <PUBCHEM_IUPAC_NAME_MARKUP>
<I>N</I>,3-dimethyl-5-phenyl-1,2,4,5-tetrahydro-3-benzazepin-7-amine

> <PUBCHEM_IUPAC_NAME>
N,3-dimethyl-5-phenyl-1,2,4,5-tetrahydro-3-benzazepin-7-amine

> <PUBCHEM_IUPAC_SYSTEMATIC_NAME>
N,3-dimethyl-5-phenyl-1,2,4,5-tetrahydro-3-benzazepin-7-amine

> <PUBCHEM_IUPAC_TRADITIONAL_NAME>
methyl-(3-methyl-5-phenyl-1,2,4,5-tetrahydro-3-benzazepin-7-yl)amine

> <PUBCHEM_IUPAC_INCHI>
InChI=1S/C18H22N2/c1-19-16-9-8-15-10-11-20(2)13-18(17(15)12-16)14-6-4-3-5-7-14/h3-9,12,18-19H,10-11,13H2,1-2H3

> <PUBCHEM_IUPAC_INCHIKEY>
CUSZCLNHUVAVNP-UHFFFAOYSA-N

> <PUBCHEM_XLOGP3_AA>
3.7

> <PUBCHEM_EXACT_MASS>
266.178298710

> <PUBCHEM_MOLECULAR_FORMULA>
C18H22N2

> <PUBCHEM_MOLECULAR_WEIGHT>
266.4

> <PUBCHEM_OPENEYE_CAN_SMILES>
CNC1=CC2=C(CCN(CC2C3=CC=CC=C3)C)C=C1

> <PUBCHEM_OPENEYE_ISO_SMILES>
CNC1=CC2=C(CCN(CC2C3=CC=CC=C3)C)C=C1

> <PUBCHEM_CACTVS_TPSA>
15.3

> <PUBCHEM_MONOISOTOPIC_WEIGHT>
266.178298710

> <PUBCHEM_TOTAL_CHARGE>
0

> <PUBCHEM_HEAVY_ATOM_COUNT>
20

> <PUBCHEM_ATOM_DEF_STEREO_COUNT>
0

> <PUBCHEM_ATOM_UDEF_STEREO_COUNT>
1

> <PUBCHEM_BOND_DEF_STEREO_COUNT>
0

> <PUBCHEM_BOND_UDEF_STEREO_COUNT>
0

> <PUBCHEM_ISOTOPIC_ATOM_COUNT>
0

> <PUBCHEM_COMPONENT_COUNT>
1

> <PUBCHEM_CACTVS_TAUTO_COUNT>
-1

> <PUBCHEM_COORDINATE_TYPE>
1
5
255

> <PUBCHEM_BONDANNOTATIONS>
10  13  8
11  14  8
13  14  8
15  17  8
16  18  8
17  19  8
18  19  8
3  9  3
5  10  8
5  8  8
8  11  8
9  15  8
9  16  8

$$$$
