53248346
  -OEChem-09292322312D

 73 77  0     1  0  0  0  0  0999 V2000
   16.2787   -1.4079    0.0000 Cl  0  0  0  0  0  0  0  0  0  0  0  0
   18.2334   -0.9845    0.0000 Cl  0  0  0  0  0  0  0  0  0  0  0  0
   12.9800   -0.3501    0.0000 N   0  0  0  0  0  0  0  0  0  0  0  0
   14.9347    0.0733    0.0000 N   0  0  0  0  0  0  0  0  0  0  0  0
    8.7040    0.4960    0.0000 N   0  0  3  0  0  0  0  0  0  0  0  0
   13.2854    0.6021    0.0000 C   0  0  0  0  0  0  0  0  0  0  0  0
   13.6520   -1.0907    0.0000 C   0  0  0  0  0  0  0  0  0  0  0  0
   12.0027   -0.5618    0.0000 C   0  0  0  0  0  0  0  0  0  0  0  0
   14.2627    0.8138    0.0000 C   0  0  0  0  0  0  0  0  0  0  0  0
   14.6294   -0.8790    0.0000 C   0  0  0  0  0  0  0  0  0  0  0  0
   11.3307    0.1788    0.0000 C   0  0  0  0  0  0  0  0  0  0  0  0
   10.3534   -0.0329    0.0000 C   0  0  0  0  0  0  0  0  0  0  0  0
    9.6814    0.7076    0.0000 C   0  0  0  0  0  0  0  0  0  0  0  0
    8.0321    1.2365    0.0000 C   0  0  0  0  0  0  0  0  0  0  0  0
   15.9121    0.2849    0.0000 C   0  0  0  0  0  0  0  0  0  0  0  0
    8.3987   -0.4563    0.0000 C   0  0  0  0  0  0  0  0  0  0  0  0
    7.0547    1.0248    0.0000 C   0  0  0  0  0  0  0  0  0  0  0  0
    5.3364    1.5613    0.0000 C   0  0  0  0  0  0  0  0  0  0  0  0
    5.0274    0.6102    0.0000 C   0  0  0  0  0  0  0  0  0  0  0  0
    4.5274    2.1491    0.0000 C   0  0  0  0  0  0  0  0  0  0  0  0
    6.3518    1.7935    0.0000 C   0  0  0  0  0  0  0  0  0  0  0  0
    4.0274    0.6102    0.0000 C   0  0  0  0  0  0  0  0  0  0  0  0
    3.7183    1.5613    0.0000 C   0  0  0  0  0  0  0  0  0  0  0  0
    9.0707   -1.1968    0.0000 C   0  0  0  0  0  0  0  0  0  0  0  0
    6.7328    0.0342    0.0000 C   0  0  0  0  0  0  0  0  0  0  0  0
    5.7123   -0.1745    0.0000 C   0  0  0  0  0  0  0  0  0  0  0  0
   16.5841   -0.4556    0.0000 C   0  0  0  0  0  0  0  0  0  0  0  0
   16.2174    1.2372    0.0000 C   0  0  0  0  0  0  0  0  0  0  0  0
    3.3424   -0.1745    0.0000 C   0  0  0  0  0  0  0  0  0  0  0  0
    2.7029    1.7935    0.0000 C   0  0  0  0  0  0  0  0  0  0  0  0
    8.7653   -2.1491    0.0000 C   0  0  0  0  0  0  0  0  0  0  0  0
   17.5614   -0.2439    0.0000 C   0  0  0  0  0  0  0  0  0  0  0  0
   17.1947    1.4488    0.0000 C   0  0  0  0  0  0  0  0  0  0  0  0
    2.3219    0.0342    0.0000 C   0  0  0  0  0  0  0  0  0  0  0  0
    2.0000    1.0248    0.0000 C   0  0  0  0  0  0  0  0  0  0  0  0
   17.8667    0.7083    0.0000 C   0  0  0  0  0  0  0  0  0  0  0  0
   13.2614    1.2217    0.0000 H   0  0  0  0  0  0  0  0  0  0  0  0
   12.6711    0.6861    0.0000 H   0  0  0  0  0  0  0  0  0  0  0  0
   13.1275   -1.4212    0.0000 H   0  0  0  0  0  0  0  0  0  0  0  0
   13.8865   -1.6646    0.0000 H   0  0  0  0  0  0  0  0  0  0  0  0
   11.4782   -0.8924    0.0000 H   0  0  0  0  0  0  0  0  0  0  0  0
   12.2372   -1.1357    0.0000 H   0  0  0  0  0  0  0  0  0  0  0  0
   14.7873    1.1444    0.0000 H   0  0  0  0  0  0  0  0  0  0  0  0
   14.0283    1.3878    0.0000 H   0  0  0  0  0  0  0  0  0  0  0  0
   14.6534   -1.4985    0.0000 H   0  0  0  0  0  0  0  0  0  0  0  0
   15.2437   -0.9629    0.0000 H   0  0  0  0  0  0  0  0  0  0  0  0
   11.8552    0.5093    0.0000 H   0  0  0  0  0  0  0  0  0  0  0  0
   11.0962    0.7527    0.0000 H   0  0  0  0  0  0  0  0  0  0  0  0
    9.8289   -0.3635    0.0000 H   0  0  0  0  0  0  0  0  0  0  0  0
   10.5878   -0.6069    0.0000 H   0  0  0  0  0  0  0  0  0  0  0  0
   10.2059    1.0382    0.0000 H   0  0  0  0  0  0  0  0  0  0  0  0
    9.4469    1.2816    0.0000 H   0  0  0  0  0  0  0  0  0  0  0  0
    8.5566    1.5671    0.0000 H   0  0  0  0  0  0  0  0  0  0  0  0
    7.7976    1.8105    0.0000 H   0  0  0  0  0  0  0  0  0  0  0  0
    7.8502   -0.1673    0.0000 H   0  0  0  0  0  0  0  0  0  0  0  0
    8.0189   -0.9463    0.0000 H   0  0  0  0  0  0  0  0  0  0  0  0
    4.9422    2.6098    0.0000 H   0  0  0  0  0  0  0  0  0  0  0  0
    4.1125    2.6098    0.0000 H   0  0  0  0  0  0  0  0  0  0  0  0
    6.5365    2.3854    0.0000 H   0  0  0  0  0  0  0  0  0  0  0  0
    9.6192   -1.4858    0.0000 H   0  0  0  0  0  0  0  0  0  0  0  0
    9.4505   -0.7068    0.0000 H   0  0  0  0  0  0  0  0  0  0  0  0
    7.1459   -0.4281    0.0000 H   0  0  0  0  0  0  0  0  0  0  0  0
    5.5139   -0.7619    0.0000 H   0  0  0  0  0  0  0  0  0  0  0  0
   15.8008    1.6963    0.0000 H   0  0  0  0  0  0  0  0  0  0  0  0
    3.5408   -0.7619    0.0000 H   0  0  0  0  0  0  0  0  0  0  0  0
    2.5182    2.3854    0.0000 H   0  0  0  0  0  0  0  0  0  0  0  0
    8.1750   -1.9598    0.0000 H   0  0  0  0  0  0  0  0  0  0  0  0
    8.5760   -2.7395    0.0000 H   0  0  0  0  0  0  0  0  0  0  0  0
    9.3557   -2.3384    0.0000 H   0  0  0  0  0  0  0  0  0  0  0  0
   17.3841    2.0392    0.0000 H   0  0  0  0  0  0  0  0  0  0  0  0
    1.9088   -0.4281    0.0000 H   0  0  0  0  0  0  0  0  0  0  0  0
    1.3940    1.1561    0.0000 H   0  0  0  0  0  0  0  0  0  0  0  0
   18.4727    0.8395    0.0000 H   0  0  0  0  0  0  0  0  0  0  0  0
  1 27  1  0  0  0  0
  2 32  1  0  0  0  0
  3  6  1  0  0  0  0
  3  7  1  0  0  0  0
  3  8  1  0  0  0  0
  4  9  1  0  0  0  0
  4 10  1  0  0  0  0
  4 15  1  0  0  0  0
  5 13  1  0  0  0  0
  5 14  1  0  0  0  0
  5 16  1  0  0  0  0
  6  9  1  0  0  0  0
  6 37  1  0  0  0  0
  6 38  1  0  0  0  0
  7 10  1  0  0  0  0
  7 39  1  0  0  0  0
  7 40  1  0  0  0  0
  8 11  1  0  0  0  0
  8 41  1  0  0  0  0
  8 42  1  0  0  0  0
  9 43  1  0  0  0  0
  9 44  1  0  0  0  0
 10 45  1  0  0  0  0
 10 46  1  0  0  0  0
 11 12  1  0  0  0  0
 11 47  1  0  0  0  0
 11 48  1  0  0  0  0
 12 13  1  0  0  0  0
 12 49  1  0  0  0  0
 12 50  1  0  0  0  0
 13 51  1  0  0  0  0
 13 52  1  0  0  0  0
 14 17  1  0  0  0  0
 14 53  1  0  0  0  0
 14 54  1  0  0  0  0
 15 27  2  0  0  0  0
 15 28  1  0  0  0  0
 16 24  1  0  0  0  0
 16 55  1  0  0  0  0
 16 56  1  0  0  0  0
 17 21  2  0  0  0  0
 17 25  1  0  0  0  0
 18 19  2  0  0  0  0
 18 20  1  0  0  0  0
 18 21  1  0  0  0  0
 19 22  1  0  0  0  0
 19 26  1  0  0  0  0
 20 23  1  0  0  0  0
 20 57  1  0  0  0  0
 20 58  1  0  0  0  0
 21 59  1  0  0  0  0
 22 23  1  0  0  0  0
 22 29  2  0  0  0  0
 23 30  2  0  0  0  0
 24 31  1  0  0  0  0
 24 60  1  0  0  0  0
 24 61  1  0  0  0  0
 25 26  2  0  0  0  0
 25 62  1  0  0  0  0
 26 63  1  0  0  0  0
 27 32  1  0  0  0  0
 28 33  2  0  0  0  0
 28 64  1  0  0  0  0
 29 34  1  0  0  0  0
 29 65  1  0  0  0  0
 30 35  1  0  0  0  0
 30 66  1  0  0  0  0
 31 67  1  0  0  0  0
 31 68  1  0  0  0  0
 31 69  1  0  0  0  0
 32 36  2  0  0  0  0
 33 36  1  0  0  0  0
 33 70  1  0  0  0  0
 34 35  2  0  0  0  0
 34 71  1  0  0  0  0
 35 72  1  0  0  0  0
 36 73  1  0  0  0  0
M  END
> <PUBCHEM_COMPOUND_CID>
53248346

> <PUBCHEM_COMPOUND_CANONICALIZED>
1

> <PUBCHEM_CACTVS_COMPLEXITY>
654

> <PUBCHEM_CACTVS_HBOND_ACCEPTOR>
3

> <PUBCHEM_CACTVS_HBOND_DONOR>
0

> <PUBCHEM_CACTVS_ROTATABLE_BOND>
10

> <PUBCHEM_CACTVS_SUBSKEYS>
AAADcfB7AAAGAAAAAAAAAAAAAAAAAYAAAAA8YMEAAAAAAGABUAAAHAIAAAAADArBGCQywIMAAACAAiRCQACCAAAhBwAIikAIZogIYCLBk5HUIAhggADIyAcQgMAOwAACAAIQABSAAAQABCAAKQAACAAAAA==

> <PUBCHEM_IUPAC_OPENEYE_NAME>
4-[4-(2,3-dichlorophenyl)piperazin-1-yl]-N-(9H-fluoren-2-ylmethyl)-N-propyl-butan-1-amine

> <PUBCHEM_IUPAC_CAS_NAME>
4-[4-(2,3-dichlorophenyl)-1-piperazinyl]-N-(9H-fluoren-2-ylmethyl)-N-propyl-1-butanamine

> <PUBCHEM_IUPAC_NAME_MARKUP>
4-[4-(2,3-dichlorophenyl)piperazin-1-yl]-<I>N</I>-(9<I>H</I>-fluoren-2-ylmethyl)-<I>N</I>-propylbutan-1-amine

> <PUBCHEM_IUPAC_NAME>
4-[4-(2,3-dichlorophenyl)piperazin-1-yl]-N-(9H-fluoren-2-ylmethyl)-N-propylbutan-1-amine

> <PUBCHEM_IUPAC_SYSTEMATIC_NAME>
4-[4-[2,3-bis(chloranyl)phenyl]piperazin-1-yl]-N-(9H-fluoren-2-ylmethyl)-N-propyl-butan-1-amine

> <PUBCHEM_IUPAC_TRADITIONAL_NAME>
4-[4-(2,3-dichlorophenyl)piperazino]butyl-(9H-fluoren-2-ylmethyl)-propyl-amine

> <PUBCHEM_IUPAC_INCHI>
InChI=1S/C31H37Cl2N3/c1-2-14-35(23-24-12-13-28-26(21-24)22-25-8-3-4-9-27(25)28)16-6-5-15-34-17-19-36(20-18-34)30-11-7-10-29(32)31(30)33/h3-4,7-13,21H,2,5-6,14-20,22-23H2,1H3

> <PUBCHEM_IUPAC_INCHIKEY>
PMHUNJLVEGNLQB-UHFFFAOYSA-N

> <PUBCHEM_XLOGP3_AA>
7.9

> <PUBCHEM_EXACT_MASS>
521.2364536

> <PUBCHEM_MOLECULAR_FORMULA>
C31H37Cl2N3

> <PUBCHEM_MOLECULAR_WEIGHT>
522.5

> <PUBCHEM_OPENEYE_CAN_SMILES>
CCCN(CCCCN1CCN(CC1)C2=C(C(=CC=C2)Cl)Cl)CC3=CC4=C(C=C3)C5=CC=CC=C5C4

> <PUBCHEM_OPENEYE_ISO_SMILES>
CCCN(CCCCN1CCN(CC1)C2=C(C(=CC=C2)Cl)Cl)CC3=CC4=C(C=C3)C5=CC=CC=C5C4

> <PUBCHEM_CACTVS_TPSA>
9.7

> <PUBCHEM_MONOISOTOPIC_WEIGHT>
521.2364536

> <PUBCHEM_TOTAL_CHARGE>
0

> <PUBCHEM_HEAVY_ATOM_COUNT>
36

> <PUBCHEM_ATOM_DEF_STEREO_COUNT>
0

> <PUBCHEM_ATOM_UDEF_STEREO_COUNT>
0

> <PUBCHEM_BOND_DEF_STEREO_COUNT>
0

> <PUBCHEM_BOND_UDEF_STEREO_COUNT>
0

> <PUBCHEM_ISOTOPIC_ATOM_COUNT>
0

> <PUBCHEM_COMPONENT_COUNT>
1

> <PUBCHEM_CACTVS_TAUTO_COUNT>
-1

> <PUBCHEM_COORDINATE_TYPE>
1
5
255

> <PUBCHEM_BONDANNOTATIONS>
15  27  8
15  28  8
17  21  8
17  25  8
18  19  8
18  21  8
19  26  8
22  23  8
22  29  8
23  30  8
25  26  8
27  32  8
28  33  8
29  34  8
30  35  8
32  36  8
33  36  8
34  35  8

$$$$
