57391895
  -OEChem-09292322322D

139144  0     0  0  0  0  0  0999 V2000
   21.9186   13.0000    0.0000 O   0  0  0  0  0  0  0  0  0  0  0  0
    2.8660  -14.0000    0.0000 O   0  0  0  0  0  0  0  0  0  0  0  0
   14.9904   10.0000    0.0000 O   0  0  0  0  0  0  0  0  0  0  0  0
    5.4641   -6.5000    0.0000 O   0  0  0  0  0  0  0  0  0  0  0  0
   14.9904    5.0000    0.0000 O   0  0  0  0  0  0  0  0  0  0  0  0
    9.7942   -4.0000    0.0000 O   0  0  0  0  0  0  0  0  0  0  0  0
   14.1244    2.5000    0.0000 O   0  0  0  0  0  0  0  0  0  0  0  0
   11.5263   -2.0000    0.0000 O   0  0  0  0  0  0  0  0  0  0  0  0
   12.3923    0.5000    0.0000 O   0  0  0  0  0  0  0  0  0  0  0  0
   18.4545   13.0000    0.0000 N   0  0  0  0  0  0  0  0  0  0  0  0
    4.5981  -11.0000    0.0000 N   0  0  0  0  0  0  0  0  0  0  0  0
   20.1865   14.0000    0.0000 N   0  0  0  0  0  0  0  0  0  0  0  0
    4.5981  -13.0000    0.0000 N   0  0  0  0  0  0  0  0  0  0  0  0
   16.7224   10.0000    0.0000 N   0  0  0  0  0  0  0  0  0  0  0  0
    6.3301   -8.0000    0.0000 N   0  0  0  0  0  0  0  0  0  0  0  0
   18.4545   14.0000    0.0000 C   0  0  0  0  0  0  0  0  0  0  0  0
   19.3205   12.5000    0.0000 C   0  0  0  0  0  0  0  0  0  0  0  0
    5.4641  -11.5000    0.0000 C   0  0  0  0  0  0  0  0  0  0  0  0
    3.7320  -11.5000    0.0000 C   0  0  0  0  0  0  0  0  0  0  0  0
   19.3205   14.5000    0.0000 C   0  0  0  0  0  0  0  0  0  0  0  0
   20.1865   13.0000    0.0000 C   0  0  0  0  0  0  0  0  0  0  0  0
    5.4641  -12.5000    0.0000 C   0  0  0  0  0  0  0  0  0  0  0  0
    3.7320  -12.5000    0.0000 C   0  0  0  0  0  0  0  0  0  0  0  0
   17.5885   12.5000    0.0000 C   0  0  0  0  0  0  0  0  0  0  0  0
    4.5981  -10.0000    0.0000 C   0  0  0  0  0  0  0  0  0  0  0  0
   17.5885   11.5000    0.0000 C   0  0  0  0  0  0  0  0  0  0  0  0
    5.4641   -9.5000    0.0000 C   0  0  0  0  0  0  0  0  0  0  0  0
   21.0526   14.5000    0.0000 C   0  0  0  0  0  0  0  0  0  0  0  0
    4.5981  -14.0000    0.0000 C   0  0  0  0  0  0  0  0  0  0  0  0
   16.7224   11.0000    0.0000 C   0  0  0  0  0  0  0  0  0  0  0  0
    5.4641   -8.5000    0.0000 C   0  0  0  0  0  0  0  0  0  0  0  0
   21.9186   14.0000    0.0000 C   0  0  0  0  0  0  0  0  0  0  0  0
    3.7320  -14.5000    0.0000 C   0  0  0  0  0  0  0  0  0  0  0  0
   21.0526   15.5000    0.0000 C   0  0  0  0  0  0  0  0  0  0  0  0
    5.4641  -14.5000    0.0000 C   0  0  0  0  0  0  0  0  0  0  0  0
   22.7846   14.5000    0.0000 C   0  0  0  0  0  0  0  0  0  0  0  0
    3.7320  -15.5000    0.0000 C   0  0  0  0  0  0  0  0  0  0  0  0
   21.9186   16.0000    0.0000 C   0  0  0  0  0  0  0  0  0  0  0  0
    5.4641  -15.5000    0.0000 C   0  0  0  0  0  0  0  0  0  0  0  0
   22.7846   15.5000    0.0000 C   0  0  0  0  0  0  0  0  0  0  0  0
    4.5981  -16.0000    0.0000 C   0  0  0  0  0  0  0  0  0  0  0  0
   15.8564    9.5000    0.0000 C   0  0  0  0  0  0  0  0  0  0  0  0
    6.3301   -7.0000    0.0000 C   0  0  0  0  0  0  0  0  0  0  0  0
   22.7846   12.5000    0.0000 C   0  0  0  0  0  0  0  0  0  0  0  0
    2.0000  -14.5000    0.0000 C   0  0  0  0  0  0  0  0  0  0  0  0
   15.8564    8.5000    0.0000 C   0  0  0  0  0  0  0  0  0  0  0  0
    7.1962   -6.5000    0.0000 C   0  0  0  0  0  0  0  0  0  0  0  0
   16.7224    8.0000    0.0000 C   0  0  0  0  0  0  0  0  0  0  0  0
    8.0622   -7.0000    0.0000 C   0  0  0  0  0  0  0  0  0  0  0  0
   14.9904    8.0000    0.0000 C   0  0  0  0  0  0  0  0  0  0  0  0
    7.1962   -5.5000    0.0000 C   0  0  0  0  0  0  0  0  0  0  0  0
   16.7224    7.0000    0.0000 C   0  0  0  0  0  0  0  0  0  0  0  0
    8.9282   -6.5000    0.0000 C   0  0  0  0  0  0  0  0  0  0  0  0
   14.9904    7.0000    0.0000 C   0  0  0  0  0  0  0  0  0  0  0  0
    8.0622   -5.0000    0.0000 C   0  0  0  0  0  0  0  0  0  0  0  0
   15.8564    6.5000    0.0000 C   0  0  0  0  0  0  0  0  0  0  0  0
    8.9282   -5.5000    0.0000 C   0  0  0  0  0  0  0  0  0  0  0  0
   15.8564    5.5000    0.0000 C   0  0  0  0  0  0  0  0  0  0  0  0
    9.7942   -5.0000    0.0000 C   0  0  0  0  0  0  0  0  0  0  0  0
   14.9904    4.0000    0.0000 C   0  0  0  0  0  0  0  0  0  0  0  0
   10.6603   -3.5000    0.0000 C   0  0  0  0  0  0  0  0  0  0  0  0
   14.1244    3.5000    0.0000 C   0  0  0  0  0  0  0  0  0  0  0  0
   10.6603   -2.5000    0.0000 C   0  0  0  0  0  0  0  0  0  0  0  0
   13.2583    2.0000    0.0000 C   0  0  0  0  0  0  0  0  0  0  0  0
   11.5263   -1.0000    0.0000 C   0  0  0  0  0  0  0  0  0  0  0  0
   13.2583    1.0000    0.0000 C   0  0  0  0  0  0  0  0  0  0  0  0
   12.3923   -0.5000    0.0000 C   0  0  0  0  0  0  0  0  0  0  0  0
   18.2424   14.5826    0.0000 H   0  0  0  0  0  0  0  0  0  0  0  0
   17.8439   13.8923    0.0000 H   0  0  0  0  0  0  0  0  0  0  0  0
   18.9220   12.0251    0.0000 H   0  0  0  0  0  0  0  0  0  0  0  0
   19.7190   12.0251    0.0000 H   0  0  0  0  0  0  0  0  0  0  0  0
    6.0747  -11.6077    0.0000 H   0  0  0  0  0  0  0  0  0  0  0  0
    5.6762  -10.9174    0.0000 H   0  0  0  0  0  0  0  0  0  0  0  0
    3.5200  -10.9174    0.0000 H   0  0  0  0  0  0  0  0  0  0  0  0
    3.1215  -11.6077    0.0000 H   0  0  0  0  0  0  0  0  0  0  0  0
   19.7190   14.9749    0.0000 H   0  0  0  0  0  0  0  0  0  0  0  0
   18.9220   14.9749    0.0000 H   0  0  0  0  0  0  0  0  0  0  0  0
   20.3986   12.4174    0.0000 H   0  0  0  0  0  0  0  0  0  0  0  0
   20.7971   13.1077    0.0000 H   0  0  0  0  0  0  0  0  0  0  0  0
    5.6762  -13.0826    0.0000 H   0  0  0  0  0  0  0  0  0  0  0  0
    6.0747  -12.3923    0.0000 H   0  0  0  0  0  0  0  0  0  0  0  0
    3.1215  -12.3923    0.0000 H   0  0  0  0  0  0  0  0  0  0  0  0
    3.5200  -13.0826    0.0000 H   0  0  0  0  0  0  0  0  0  0  0  0
   17.3764   13.0826    0.0000 H   0  0  0  0  0  0  0  0  0  0  0  0
   16.9779   12.3923    0.0000 H   0  0  0  0  0  0  0  0  0  0  0  0
    4.3860   -9.4174    0.0000 H   0  0  0  0  0  0  0  0  0  0  0  0
    3.9875  -10.1077    0.0000 H   0  0  0  0  0  0  0  0  0  0  0  0
   17.8005   10.9174    0.0000 H   0  0  0  0  0  0  0  0  0  0  0  0
   18.1990   11.6077    0.0000 H   0  0  0  0  0  0  0  0  0  0  0  0
    5.6762  -10.0826    0.0000 H   0  0  0  0  0  0  0  0  0  0  0  0
    6.0747   -9.3923    0.0000 H   0  0  0  0  0  0  0  0  0  0  0  0
   16.5104   11.5826    0.0000 H   0  0  0  0  0  0  0  0  0  0  0  0
   16.1119   10.8923    0.0000 H   0  0  0  0  0  0  0  0  0  0  0  0
    5.2520   -7.9174    0.0000 H   0  0  0  0  0  0  0  0  0  0  0  0
    4.8535   -8.6077    0.0000 H   0  0  0  0  0  0  0  0  0  0  0  0
   20.5156   15.8100    0.0000 H   0  0  0  0  0  0  0  0  0  0  0  0
    6.0010  -14.1900    0.0000 H   0  0  0  0  0  0  0  0  0  0  0  0
   17.2594    9.6900    0.0000 H   0  0  0  0  0  0  0  0  0  0  0  0
    6.8671   -8.3100    0.0000 H   0  0  0  0  0  0  0  0  0  0  0  0
   23.3215   14.1900    0.0000 H   0  0  0  0  0  0  0  0  0  0  0  0
    3.1951  -15.8100    0.0000 H   0  0  0  0  0  0  0  0  0  0  0  0
   21.9186   16.6200    0.0000 H   0  0  0  0  0  0  0  0  0  0  0  0
    6.0010  -15.8100    0.0000 H   0  0  0  0  0  0  0  0  0  0  0  0
   23.3215   15.8100    0.0000 H   0  0  0  0  0  0  0  0  0  0  0  0
    4.5981  -16.6200    0.0000 H   0  0  0  0  0  0  0  0  0  0  0  0
   22.4746   11.9631    0.0000 H   0  0  0  0  0  0  0  0  0  0  0  0
   23.3215   12.1900    0.0000 H   0  0  0  0  0  0  0  0  0  0  0  0
   23.0946   13.0369    0.0000 H   0  0  0  0  0  0  0  0  0  0  0  0
    1.6900  -13.9631    0.0000 H   0  0  0  0  0  0  0  0  0  0  0  0
    1.4631  -14.8100    0.0000 H   0  0  0  0  0  0  0  0  0  0  0  0
    2.3100  -15.0369    0.0000 H   0  0  0  0  0  0  0  0  0  0  0  0
   17.2594    8.3100    0.0000 H   0  0  0  0  0  0  0  0  0  0  0  0
    8.0622   -7.6200    0.0000 H   0  0  0  0  0  0  0  0  0  0  0  0
   14.4534    8.3100    0.0000 H   0  0  0  0  0  0  0  0  0  0  0  0
    6.6592   -5.1900    0.0000 H   0  0  0  0  0  0  0  0  0  0  0  0
   17.2594    6.6900    0.0000 H   0  0  0  0  0  0  0  0  0  0  0  0
    9.4651   -6.8100    0.0000 H   0  0  0  0  0  0  0  0  0  0  0  0
   14.4534    6.6900    0.0000 H   0  0  0  0  0  0  0  0  0  0  0  0
    8.0622   -4.3800    0.0000 H   0  0  0  0  0  0  0  0  0  0  0  0
   16.0685    4.9174    0.0000 H   0  0  0  0  0  0  0  0  0  0  0  0
   16.4670    5.6077    0.0000 H   0  0  0  0  0  0  0  0  0  0  0  0
   10.0063   -5.5826    0.0000 H   0  0  0  0  0  0  0  0  0  0  0  0
   10.4048   -4.8923    0.0000 H   0  0  0  0  0  0  0  0  0  0  0  0
   15.2024    3.4174    0.0000 H   0  0  0  0  0  0  0  0  0  0  0  0
   15.6010    4.1077    0.0000 H   0  0  0  0  0  0  0  0  0  0  0  0
   10.8723   -4.0826    0.0000 H   0  0  0  0  0  0  0  0  0  0  0  0
   11.2708   -3.3923    0.0000 H   0  0  0  0  0  0  0  0  0  0  0  0
   13.9123    4.0826    0.0000 H   0  0  0  0  0  0  0  0  0  0  0  0
   13.5138    3.3923    0.0000 H   0  0  0  0  0  0  0  0  0  0  0  0
   10.4482   -1.9174    0.0000 H   0  0  0  0  0  0  0  0  0  0  0  0
   10.0497   -2.6077    0.0000 H   0  0  0  0  0  0  0  0  0  0  0  0
   13.0463    2.5826    0.0000 H   0  0  0  0  0  0  0  0  0  0  0  0
   12.6477    1.8923    0.0000 H   0  0  0  0  0  0  0  0  0  0  0  0
   11.3142   -0.4174    0.0000 H   0  0  0  0  0  0  0  0  0  0  0  0
   10.9157   -1.1077    0.0000 H   0  0  0  0  0  0  0  0  0  0  0  0
   13.4704    0.4174    0.0000 H   0  0  0  0  0  0  0  0  0  0  0  0
   13.8689    1.1077    0.0000 H   0  0  0  0  0  0  0  0  0  0  0  0
   12.6044   -1.0826    0.0000 H   0  0  0  0  0  0  0  0  0  0  0  0
   13.0029   -0.3923    0.0000 H   0  0  0  0  0  0  0  0  0  0  0  0
  1 32  1  0  0  0  0
  1 44  1  0  0  0  0
  2 33  1  0  0  0  0
  2 45  1  0  0  0  0
  3 42  2  0  0  0  0
  4 43  2  0  0  0  0
  5 58  1  0  0  0  0
  5 60  1  0  0  0  0
  6 59  1  0  0  0  0
  6 61  1  0  0  0  0
  7 62  1  0  0  0  0
  7 64  1  0  0  0  0
  8 63  1  0  0  0  0
  8 65  1  0  0  0  0
  9 66  1  0  0  0  0
  9 67  1  0  0  0  0
 10 16  1  0  0  0  0
 10 17  1  0  0  0  0
 10 24  1  0  0  0  0
 11 18  1  0  0  0  0
 11 19  1  0  0  0  0
 11 25  1  0  0  0  0
 12 20  1  0  0  0  0
 12 21  1  0  0  0  0
 12 28  1  0  0  0  0
 13 22  1  0  0  0  0
 13 23  1  0  0  0  0
 13 29  1  0  0  0  0
 14 30  1  0  0  0  0
 14 42  1  0  0  0  0
 14 98  1  0  0  0  0
 15 31  1  0  0  0  0
 15 43  1  0  0  0  0
 15 99  1  0  0  0  0
 16 20  1  0  0  0  0
 16 68  1  0  0  0  0
 16 69  1  0  0  0  0
 17 21  1  0  0  0  0
 17 70  1  0  0  0  0
 17 71  1  0  0  0  0
 18 22  1  0  0  0  0
 18 72  1  0  0  0  0
 18 73  1  0  0  0  0
 19 23  1  0  0  0  0
 19 74  1  0  0  0  0
 19 75  1  0  0  0  0
 20 76  1  0  0  0  0
 20 77  1  0  0  0  0
 21 78  1  0  0  0  0
 21 79  1  0  0  0  0
 22 80  1  0  0  0  0
 22 81  1  0  0  0  0
 23 82  1  0  0  0  0
 23 83  1  0  0  0  0
 24 26  1  0  0  0  0
 24 84  1  0  0  0  0
 24 85  1  0  0  0  0
 25 27  1  0  0  0  0
 25 86  1  0  0  0  0
 25 87  1  0  0  0  0
 26 30  1  0  0  0  0
 26 88  1  0  0  0  0
 26 89  1  0  0  0  0
 27 31  1  0  0  0  0
 27 90  1  0  0  0  0
 27 91  1  0  0  0  0
 28 32  1  0  0  0  0
 28 34  2  0  0  0  0
 29 33  1  0  0  0  0
 29 35  2  0  0  0  0
 30 92  1  0  0  0  0
 30 93  1  0  0  0  0
 31 94  1  0  0  0  0
 31 95  1  0  0  0  0
 32 36  2  0  0  0  0
 33 37  2  0  0  0  0
 34 38  1  0  0  0  0
 34 96  1  0  0  0  0
 35 39  1  0  0  0  0
 35 97  1  0  0  0  0
 36 40  1  0  0  0  0
 36100  1  0  0  0  0
 37 41  1  0  0  0  0
 37101  1  0  0  0  0
 38 40  2  0  0  0  0
 38102  1  0  0  0  0
 39 41  2  0  0  0  0
 39103  1  0  0  0  0
 40104  1  0  0  0  0
 41105  1  0  0  0  0
 42 46  1  0  0  0  0
 43 47  1  0  0  0  0
 44106  1  0  0  0  0
 44107  1  0  0  0  0
 44108  1  0  0  0  0
 45109  1  0  0  0  0
 45110  1  0  0  0  0
 45111  1  0  0  0  0
 46 48  2  0  0  0  0
 46 50  1  0  0  0  0
 47 49  2  0  0  0  0
 47 51  1  0  0  0  0
 48 52  1  0  0  0  0
 48112  1  0  0  0  0
 49 53  1  0  0  0  0
 49113  1  0  0  0  0
 50 54  2  0  0  0  0
 50114  1  0  0  0  0
 51 55  2  0  0  0  0
 51115  1  0  0  0  0
 52 56  2  0  0  0  0
 52116  1  0  0  0  0
 53 57  2  0  0  0  0
 53117  1  0  0  0  0
 54 56  1  0  0  0  0
 54118  1  0  0  0  0
 55 57  1  0  0  0  0
 55119  1  0  0  0  0
 56 58  1  0  0  0  0
 57 59  1  0  0  0  0
 58120  1  0  0  0  0
 58121  1  0  0  0  0
 59122  1  0  0  0  0
 59123  1  0  0  0  0
 60 62  1  0  0  0  0
 60124  1  0  0  0  0
 60125  1  0  0  0  0
 61 63  1  0  0  0  0
 61126  1  0  0  0  0
 61127  1  0  0  0  0
 62128  1  0  0  0  0
 62129  1  0  0  0  0
 63130  1  0  0  0  0
 63131  1  0  0  0  0
 64 66  1  0  0  0  0
 64132  1  0  0  0  0
 64133  1  0  0  0  0
 65 67  1  0  0  0  0
 65134  1  0  0  0  0
 65135  1  0  0  0  0
 66136  1  0  0  0  0
 66137  1  0  0  0  0
 67138  1  0  0  0  0
 67139  1  0  0  0  0
M  END
> <PUBCHEM_COMPOUND_CID>
57391895

> <PUBCHEM_COMPOUND_CANONICALIZED>
1

> <PUBCHEM_CACTVS_COMPLEXITY>
1210

> <PUBCHEM_CACTVS_HBOND_ACCEPTOR>
13

> <PUBCHEM_CACTVS_HBOND_DONOR>
2

> <PUBCHEM_CACTVS_ROTATABLE_BOND>
30

> <PUBCHEM_CACTVS_SUBSKEYS>
AAADcfB/vAAAAAAAAAAAAAAAAAAAAAAAAAA8eMGCAAAAAAABVAAAHgAQAAAADAzhmAYyxoPABACIAiVSUACCCAAlIgAIiIEPbMgPZjLE9ZuXMShk1hHa6YeYyDCOQAAAAAAAEACAAAAAAAAgAAAAAAAAAA==

> <PUBCHEM_IUPAC_OPENEYE_NAME>
N-[3-[4-(2-methoxyphenyl)piperazin-1-yl]propyl]-4-[2-[2-[2-[2-[[4-[3-[4-(2-methoxyphenyl)piperazin-1-yl]propylcarbamoyl]phenyl]methoxy]ethoxy]ethoxy]ethoxy]ethoxymethyl]benzamide

> <PUBCHEM_IUPAC_CAS_NAME>
N-[3-[4-(2-methoxyphenyl)-1-piperazinyl]propyl]-4-[2-[2-[2-[2-[[4-[[3-[4-(2-methoxyphenyl)-1-piperazinyl]propylamino]-oxomethyl]phenyl]methoxy]ethoxy]ethoxy]ethoxy]ethoxymethyl]benzamide

> <PUBCHEM_IUPAC_NAME_MARKUP>
<I>N</I>-[3-[4-(2-methoxyphenyl)piperazin-1-yl]propyl]-4-[2-[2-[2-[2-[[4-[3-[4-(2-methoxyphenyl)piperazin-1-yl]propylcarbamoyl]phenyl]methoxy]ethoxy]ethoxy]ethoxy]ethoxymethyl]benzamide

> <PUBCHEM_IUPAC_NAME>
N-[3-[4-(2-methoxyphenyl)piperazin-1-yl]propyl]-4-[2-[2-[2-[2-[[4-[3-[4-(2-methoxyphenyl)piperazin-1-yl]propylcarbamoyl]phenyl]methoxy]ethoxy]ethoxy]ethoxy]ethoxymethyl]benzamide

> <PUBCHEM_IUPAC_SYSTEMATIC_NAME>
N-[3-[4-(2-methoxyphenyl)piperazin-1-yl]propyl]-4-[2-[2-[2-[2-[[4-[3-[4-(2-methoxyphenyl)piperazin-1-yl]propylcarbamoyl]phenyl]methoxy]ethoxy]ethoxy]ethoxy]ethoxymethyl]benzamide

> <PUBCHEM_IUPAC_TRADITIONAL_NAME>
N-[3-[4-(2-methoxyphenyl)piperazino]propyl]-4-[2-[2-[2-[2-[4-[3-[4-(2-methoxyphenyl)piperazino]propylcarbamoyl]benzyl]oxyethoxy]ethoxy]ethoxy]ethoxymethyl]benzamide

> <PUBCHEM_IUPAC_INCHI>
InChI=1S/C52H72N6O9/c1-61-49-11-5-3-9-47(49)57-29-25-55(26-30-57)23-7-21-53-51(59)45-17-13-43(14-18-45)41-66-39-37-64-35-33-63-34-36-65-38-40-67-42-44-15-19-46(20-16-44)52(60)54-22-8-24-56-27-31-58(32-28-56)48-10-4-6-12-50(48)62-2/h3-6,9-20H,7-8,21-42H2,1-2H3,(H,53,59)(H,54,60)

> <PUBCHEM_IUPAC_INCHIKEY>
LLJNHDOQJFYFCL-UHFFFAOYSA-N

> <PUBCHEM_XLOGP3_AA>
4.9

> <PUBCHEM_EXACT_MASS>
924.53607790

> <PUBCHEM_MOLECULAR_FORMULA>
C52H72N6O9

> <PUBCHEM_MOLECULAR_WEIGHT>
925.2

> <PUBCHEM_OPENEYE_CAN_SMILES>
COC1=CC=CC=C1N2CCN(CC2)CCCNC(=O)C3=CC=C(C=C3)COCCOCCOCCOCCOCC4=CC=C(C=C4)C(=O)NCCCN5CCN(CC5)C6=CC=CC=C6OC

> <PUBCHEM_OPENEYE_ISO_SMILES>
COC1=CC=CC=C1N2CCN(CC2)CCCNC(=O)C3=CC=C(C=C3)COCCOCCOCCOCCOCC4=CC=C(C=C4)C(=O)NCCCN5CCN(CC5)C6=CC=CC=C6OC

> <PUBCHEM_CACTVS_TPSA>
136

> <PUBCHEM_MONOISOTOPIC_WEIGHT>
924.53607790

> <PUBCHEM_TOTAL_CHARGE>
0

> <PUBCHEM_HEAVY_ATOM_COUNT>
67

> <PUBCHEM_ATOM_DEF_STEREO_COUNT>
0

> <PUBCHEM_ATOM_UDEF_STEREO_COUNT>
0

> <PUBCHEM_BOND_DEF_STEREO_COUNT>
0

> <PUBCHEM_BOND_UDEF_STEREO_COUNT>
0

> <PUBCHEM_ISOTOPIC_ATOM_COUNT>
0

> <PUBCHEM_COMPONENT_COUNT>
1

> <PUBCHEM_CACTVS_TAUTO_COUNT>
-1

> <PUBCHEM_COORDINATE_TYPE>
1
5
255

> <PUBCHEM_BONDANNOTATIONS>
28  32  8
28  34  8
29  33  8
29  35  8
32  36  8
33  37  8
34  38  8
35  39  8
36  40  8
37  41  8
38  40  8
39  41  8
46  48  8
46  50  8
47  49  8
47  51  8
48  52  8
49  53  8
50  54  8
51  55  8
52  56  8
53  57  8
54  56  8
55  57  8

$$$$
