23631000
  -OEChem-09292322252D

 65 69  0     1  0  0  0  0  0999 V2000
    8.5839   -0.6089    0.0000 S   0  0  0  0  0  0  0  0  0  0  0  0
    2.0000   -4.0478    0.0000 F   0  0  0  0  0  0  0  0  0  0  0  0
    2.2212   -2.6510    0.0000 F   0  0  0  0  0  0  0  0  0  0  0  0
    3.3968   -4.2690    0.0000 F   0  0  0  0  0  0  0  0  0  0  0  0
   18.0200    2.4898    0.0000 O   0  0  0  0  0  0  0  0  0  0  0  0
   11.5839    1.1232    0.0000 N   0  0  3  0  0  0  0  0  0  0  0  0
    6.9961   -1.4179    0.0000 N   0  0  0  0  0  0  0  0  0  0  0  0
   17.3538    1.7441    0.0000 N   0  0  0  0  0  0  0  0  0  0  0  0
    6.9961    0.2001    0.0000 N   0  0  0  0  0  0  0  0  0  0  0  0
    6.0451   -0.1089    0.0000 N   0  0  0  0  0  0  0  0  0  0  0  0
   12.0178    2.0242    0.0000 C   0  0  0  0  0  0  0  0  0  0  0  0
   12.0178    0.2222    0.0000 C   0  0  0  0  0  0  0  0  0  0  0  0
   12.9927    2.2467    0.0000 C   0  0  0  0  0  0  0  0  0  0  0  0
   12.9927   -0.0003    0.0000 C   0  0  0  0  0  0  0  0  0  0  0  0
   13.7746    1.6232    0.0000 C   0  0  0  0  0  0  0  0  0  0  0  0
   13.7746    0.6232    0.0000 C   0  0  0  0  0  0  0  0  0  0  0  0
   10.5839    1.1232    0.0000 C   0  0  0  0  0  0  0  0  0  0  0  0
   10.0839    0.2572    0.0000 C   0  0  0  0  0  0  0  0  0  0  0  0
   14.6685    2.1578    0.0000 C   0  0  0  0  0  0  0  0  0  0  0  0
   14.6685    0.0885    0.0000 C   0  0  0  0  0  0  0  0  0  0  0  0
   15.5746    1.6440    0.0000 C   0  0  0  0  0  0  0  0  0  0  0  0
    9.0839    0.2572    0.0000 C   0  0  0  0  0  0  0  0  0  0  0  0
   15.5746    0.6024    0.0000 C   0  0  0  0  0  0  0  0  0  0  0  0
   16.4387    2.1473    0.0000 C   0  0  0  0  0  0  0  0  0  0  0  0
   16.5394    3.1422    0.0000 C   0  0  0  0  0  0  0  0  0  0  0  0
    7.5839   -0.6089    0.0000 C   0  0  0  0  0  0  0  0  0  0  0  0
   17.5167    3.3539    0.0000 C   0  0  0  0  0  0  0  0  0  0  0  0
    6.0451   -1.1089    0.0000 C   0  0  0  0  0  0  0  0  0  0  0  0
    5.2361   -1.6967    0.0000 C   0  0  0  0  0  0  0  0  0  0  0  0
    7.3052   -2.3690    0.0000 C   0  0  0  0  0  0  0  0  0  0  0  0
   17.9199    4.2690    0.0000 C   0  0  0  0  0  0  0  0  0  0  0  0
    4.3225   -1.2899    0.0000 C   0  0  0  0  0  0  0  0  0  0  0  0
    5.3406   -2.6912    0.0000 C   0  0  0  0  0  0  0  0  0  0  0  0
    3.6180   -2.8722    0.0000 C   0  0  0  0  0  0  0  0  0  0  0  0
    3.5135   -1.8777    0.0000 C   0  0  0  0  0  0  0  0  0  0  0  0
    4.5316   -3.2790    0.0000 C   0  0  0  0  0  0  0  0  0  0  0  0
    2.8090   -3.4600    0.0000 C   0  0  0  0  0  0  0  0  0  0  0  0
   12.0178    2.6441    0.0000 H   0  0  0  0  0  0  0  0  0  0  0  0
   11.4134    2.1621    0.0000 H   0  0  0  0  0  0  0  0  0  0  0  0
   11.4134    0.0842    0.0000 H   0  0  0  0  0  0  0  0  0  0  0  0
   12.0178   -0.3978    0.0000 H   0  0  0  0  0  0  0  0  0  0  0  0
   13.4775    2.6332    0.0000 H   0  0  0  0  0  0  0  0  0  0  0  0
   12.7237    2.8053    0.0000 H   0  0  0  0  0  0  0  0  0  0  0  0
   12.7237   -0.5589    0.0000 H   0  0  0  0  0  0  0  0  0  0  0  0
   13.4775   -0.3869    0.0000 H   0  0  0  0  0  0  0  0  0  0  0  0
   10.6916    1.7338    0.0000 H   0  0  0  0  0  0  0  0  0  0  0  0
   10.0013    1.3352    0.0000 H   0  0  0  0  0  0  0  0  0  0  0  0
    9.9763   -0.3534    0.0000 H   0  0  0  0  0  0  0  0  0  0  0  0
   10.6665    0.0451    0.0000 H   0  0  0  0  0  0  0  0  0  0  0  0
   14.6613    2.7778    0.0000 H   0  0  0  0  0  0  0  0  0  0  0  0
   14.6613   -0.5314    0.0000 H   0  0  0  0  0  0  0  0  0  0  0  0
    9.1916    0.8677    0.0000 H   0  0  0  0  0  0  0  0  0  0  0  0
    8.5013    0.4692    0.0000 H   0  0  0  0  0  0  0  0  0  0  0  0
   16.1103    0.2903    0.0000 H   0  0  0  0  0  0  0  0  0  0  0  0
   16.0770    3.5553    0.0000 H   0  0  0  0  0  0  0  0  0  0  0  0
    6.7155   -2.5605    0.0000 H   0  0  0  0  0  0  0  0  0  0  0  0
    7.4968   -2.9586    0.0000 H   0  0  0  0  0  0  0  0  0  0  0  0
    7.8948   -2.1774    0.0000 H   0  0  0  0  0  0  0  0  0  0  0  0
   18.4873    4.0190    0.0000 H   0  0  0  0  0  0  0  0  0  0  0  0
   18.1699    4.8364    0.0000 H   0  0  0  0  0  0  0  0  0  0  0  0
   17.3526    4.5190    0.0000 H   0  0  0  0  0  0  0  0  0  0  0  0
    4.2577   -0.6733    0.0000 H   0  0  0  0  0  0  0  0  0  0  0  0
    5.9070   -2.9434    0.0000 H   0  0  0  0  0  0  0  0  0  0  0  0
    2.9471   -1.6255    0.0000 H   0  0  0  0  0  0  0  0  0  0  0  0
    4.5964   -3.8956    0.0000 H   0  0  0  0  0  0  0  0  0  0  0  0
  1 22  1  0  0  0  0
  1 26  1  0  0  0  0
  2 37  1  0  0  0  0
  3 37  1  0  0  0  0
  4 37  1  0  0  0  0
  5  8  1  0  0  0  0
  5 27  1  0  0  0  0
  6 11  1  0  0  0  0
  6 12  1  0  0  0  0
  6 17  1  0  0  0  0
  7 26  1  0  0  0  0
  7 28  1  0  0  0  0
  7 30  1  0  0  0  0
  8 24  2  0  0  0  0
  9 10  1  0  0  0  0
  9 26  2  0  0  0  0
 10 28  2  0  0  0  0
 11 13  1  0  0  0  0
 11 38  1  0  0  0  0
 11 39  1  0  0  0  0
 12 14  1  0  0  0  0
 12 40  1  0  0  0  0
 12 41  1  0  0  0  0
 13 15  1  0  0  0  0
 13 42  1  0  0  0  0
 13 43  1  0  0  0  0
 14 16  1  0  0  0  0
 14 44  1  0  0  0  0
 14 45  1  0  0  0  0
 15 16  2  0  0  0  0
 15 19  1  0  0  0  0
 16 20  1  0  0  0  0
 17 18  1  0  0  0  0
 17 46  1  0  0  0  0
 17 47  1  0  0  0  0
 18 22  1  0  0  0  0
 18 48  1  0  0  0  0
 18 49  1  0  0  0  0
 19 21  2  0  0  0  0
 19 50  1  0  0  0  0
 20 23  2  0  0  0  0
 20 51  1  0  0  0  0
 21 23  1  0  0  0  0
 21 24  1  0  0  0  0
 22 52  1  0  0  0  0
 22 53  1  0  0  0  0
 23 54  1  0  0  0  0
 24 25  1  0  0  0  0
 25 27  2  0  0  0  0
 25 55  1  0  0  0  0
 27 31  1  0  0  0  0
 28 29  1  0  0  0  0
 29 32  2  0  0  0  0
 29 33  1  0  0  0  0
 30 56  1  0  0  0  0
 30 57  1  0  0  0  0
 30 58  1  0  0  0  0
 31 59  1  0  0  0  0
 31 60  1  0  0  0  0
 31 61  1  0  0  0  0
 32 35  1  0  0  0  0
 32 62  1  0  0  0  0
 33 36  2  0  0  0  0
 33 63  1  0  0  0  0
 34 35  2  0  0  0  0
 34 36  1  0  0  0  0
 34 37  1  0  0  0  0
 35 64  1  0  0  0  0
 36 65  1  0  0  0  0
M  END
> <PUBCHEM_COMPOUND_CID>
23631000

> <PUBCHEM_COMPOUND_CANONICALIZED>
1

> <PUBCHEM_CACTVS_COMPLEXITY>
725

> <PUBCHEM_CACTVS_HBOND_ACCEPTOR>
9

> <PUBCHEM_CACTVS_HBOND_DONOR>
0

> <PUBCHEM_CACTVS_ROTATABLE_BOND>
7

> <PUBCHEM_CACTVS_SUBSKEYS>
AAADceB7oYBAAAAAAAAAAAAAAAAAAWLAAAAwYAAABYAAAAAB9AAAHwQMAAAADAzF3xSzlJccEAirA6ZyZgCS0AtkIrA92CE+bNqILrqgmZOEMYhmiBqIyUeYyOCOwAACAAAQAACAAAQAACAAAAAAAAAAAA==

> <PUBCHEM_IUPAC_OPENEYE_NAME>
5-methyl-3-[3-[3-[[4-methyl-5-[4-(trifluoromethyl)phenyl]-1,2,4-triazol-3-yl]sulfanyl]propyl]-1,2,4,5-tetrahydro-3-benzazepin-7-yl]isoxazole

> <PUBCHEM_IUPAC_CAS_NAME>
5-methyl-3-[3-[3-[[4-methyl-5-[4-(trifluoromethyl)phenyl]-1,2,4-triazol-3-yl]thio]propyl]-1,2,4,5-tetrahydro-3-benzazepin-7-yl]isoxazole

> <PUBCHEM_IUPAC_NAME_MARKUP>
5-methyl-3-[3-[3-[[4-methyl-5-[4-(trifluoromethyl)phenyl]-1,2,4-triazol-3-yl]sulfanyl]propyl]-1,2,4,5-tetrahydro-3-benzazepin-7-yl]-1,2-oxazole

> <PUBCHEM_IUPAC_NAME>
5-methyl-3-[3-[3-[[4-methyl-5-[4-(trifluoromethyl)phenyl]-1,2,4-triazol-3-yl]sulfanyl]propyl]-1,2,4,5-tetrahydro-3-benzazepin-7-yl]-1,2-oxazole

> <PUBCHEM_IUPAC_SYSTEMATIC_NAME>
5-methyl-3-[3-[3-[[4-methyl-5-[4-(trifluoromethyl)phenyl]-1,2,4-triazol-3-yl]sulfanyl]propyl]-1,2,4,5-tetrahydro-3-benzazepin-7-yl]-1,2-oxazole

> <PUBCHEM_IUPAC_TRADITIONAL_NAME>
5-methyl-3-[3-[3-[[4-methyl-5-[4-(trifluoromethyl)phenyl]-1,2,4-triazol-3-yl]thio]propyl]-1,2,4,5-tetrahydro-3-benzazepin-7-yl]isoxazole

> <PUBCHEM_IUPAC_INCHI>
InChI=1S/C27H28F3N5OS/c1-18-16-24(33-36-18)22-5-4-19-10-13-35(14-11-21(19)17-22)12-3-15-37-26-32-31-25(34(26)2)20-6-8-23(9-7-20)27(28,29)30/h4-9,16-17H,3,10-15H2,1-2H3

> <PUBCHEM_IUPAC_INCHIKEY>
MMHPZQOEUVHNBB-UHFFFAOYSA-N

> <PUBCHEM_XLOGP3_AA>
5.7

> <PUBCHEM_EXACT_MASS>
527.19666619

> <PUBCHEM_MOLECULAR_FORMULA>
C27H28F3N5OS

> <PUBCHEM_MOLECULAR_WEIGHT>
527.6

> <PUBCHEM_OPENEYE_CAN_SMILES>
CC1=CC(=NO1)C2=CC3=C(CCN(CC3)CCCSC4=NN=C(N4C)C5=CC=C(C=C5)C(F)(F)F)C=C2

> <PUBCHEM_OPENEYE_ISO_SMILES>
CC1=CC(=NO1)C2=CC3=C(CCN(CC3)CCCSC4=NN=C(N4C)C5=CC=C(C=C5)C(F)(F)F)C=C2

> <PUBCHEM_CACTVS_TPSA>
85.3

> <PUBCHEM_MONOISOTOPIC_WEIGHT>
527.19666619

> <PUBCHEM_TOTAL_CHARGE>
0

> <PUBCHEM_HEAVY_ATOM_COUNT>
37

> <PUBCHEM_ATOM_DEF_STEREO_COUNT>
0

> <PUBCHEM_ATOM_UDEF_STEREO_COUNT>
0

> <PUBCHEM_BOND_DEF_STEREO_COUNT>
0

> <PUBCHEM_BOND_UDEF_STEREO_COUNT>
0

> <PUBCHEM_ISOTOPIC_ATOM_COUNT>
0

> <PUBCHEM_COMPONENT_COUNT>
1

> <PUBCHEM_CACTVS_TAUTO_COUNT>
-1

> <PUBCHEM_COORDINATE_TYPE>
1
5
255

> <PUBCHEM_BONDANNOTATIONS>
10  28  8
15  16  8
15  19  8
16  20  8
19  21  8
20  23  8
21  23  8
24  25  8
25  27  8
29  32  8
29  33  8
32  35  8
33  36  8
34  35  8
34  36  8
5  27  8
5  8  8
7  26  8
7  28  8
8  24  8
9  10  8
9  26  8

$$$$
