11584185
  -OEChem-09292322492D

 68 73  0     1  0  0  0  0  0999 V2000
   10.6826   -0.3583    0.0000 S   0  0  0  0  0  0  0  0  0  0  0  0
    2.9061    0.3391    0.0000 O   0  0  0  0  0  0  0  0  0  0  0  0
    7.6826    1.3738    0.0000 N   0  0  3  0  0  0  0  0  0  0  0  0
    2.9061    2.4084    0.0000 N   0  0  0  0  0  0  0  0  0  0  0  0
   12.2704   -1.1673    0.0000 N   0  0  0  0  0  0  0  0  0  0  0  0
   12.2704    0.4507    0.0000 N   0  0  0  0  0  0  0  0  0  0  0  0
   13.2215    0.1417    0.0000 N   0  0  0  0  0  0  0  0  0  0  0  0
   16.7111   -1.2182    0.0000 N   0  0  0  0  0  0  0  0  0  0  0  0
    7.2583    2.2580    0.0000 C   0  0  0  0  0  0  0  0  0  0  0  0
    7.2583    0.4895    0.0000 C   0  0  0  0  0  0  0  0  0  0  0  0
    6.3030    2.4801    0.0000 C   0  0  0  0  0  0  0  0  0  0  0  0
    6.3030    0.2674    0.0000 C   0  0  0  0  0  0  0  0  0  0  0  0
    5.5321    1.8738    0.0000 C   0  0  0  0  0  0  0  0  0  0  0  0
    5.5321    0.8738    0.0000 C   0  0  0  0  0  0  0  0  0  0  0  0
    8.6826    1.3738    0.0000 C   0  0  0  0  0  0  0  0  0  0  0  0
    4.6660    2.3738    0.0000 C   0  0  0  0  0  0  0  0  0  0  0  0
    4.6660    0.3738    0.0000 C   0  0  0  0  0  0  0  0  0  0  0  0
    9.1826    0.5077    0.0000 C   0  0  0  0  0  0  0  0  0  0  0  0
    3.8000    1.8738    0.0000 C   0  0  0  0  0  0  0  0  0  0  0  0
    3.8000    0.8738    0.0000 C   0  0  0  0  0  0  0  0  0  0  0  0
   10.1826    0.5077    0.0000 C   0  0  0  0  0  0  0  0  0  0  0  0
    2.0000    1.8946    0.0000 C   0  0  0  0  0  0  0  0  0  0  0  0
    2.0000    0.8529    0.0000 C   0  0  0  0  0  0  0  0  0  0  0  0
   11.6826   -0.3583    0.0000 C   0  0  0  0  0  0  0  0  0  0  0  0
   13.2215   -0.8583    0.0000 C   0  0  0  0  0  0  0  0  0  0  0  0
   14.0305   -1.4461    0.0000 C   0  0  0  0  0  0  0  0  0  0  0  0
   14.9441   -1.0393    0.0000 C   0  0  0  0  0  0  0  0  0  0  0  0
   11.9614   -2.1184    0.0000 C   0  0  0  0  0  0  0  0  0  0  0  0
   15.7531   -1.6271    0.0000 C   0  0  0  0  0  0  0  0  0  0  0  0
   13.9260   -2.4406    0.0000 C   0  0  0  0  0  0  0  0  0  0  0  0
   15.0369   -0.0019    0.0000 C   0  0  0  0  0  0  0  0  0  0  0  0
   15.6485   -2.6216    0.0000 C   0  0  0  0  0  0  0  0  0  0  0  0
   14.7350   -3.0284    0.0000 C   0  0  0  0  0  0  0  0  0  0  0  0
   15.9852    0.4291    0.0000 C   0  0  0  0  0  0  0  0  0  0  0  0
   16.8279   -0.1831    0.0000 C   0  0  0  0  0  0  0  0  0  0  0  0
   17.7430    0.2201    0.0000 C   0  0  0  0  0  0  0  0  0  0  0  0
    7.8630    2.3946    0.0000 H   0  0  0  0  0  0  0  0  0  0  0  0
    7.2602    2.8780    0.0000 H   0  0  0  0  0  0  0  0  0  0  0  0
    7.2602   -0.1305    0.0000 H   0  0  0  0  0  0  0  0  0  0  0  0
    7.8630    0.3529    0.0000 H   0  0  0  0  0  0  0  0  0  0  0  0
    6.5747    3.0374    0.0000 H   0  0  0  0  0  0  0  0  0  0  0  0
    5.8205    2.8695    0.0000 H   0  0  0  0  0  0  0  0  0  0  0  0
    5.8205   -0.1220    0.0000 H   0  0  0  0  0  0  0  0  0  0  0  0
    6.5747   -0.2898    0.0000 H   0  0  0  0  0  0  0  0  0  0  0  0
    9.2653    1.5858    0.0000 H   0  0  0  0  0  0  0  0  0  0  0  0
    8.5750    1.9843    0.0000 H   0  0  0  0  0  0  0  0  0  0  0  0
    4.6660    2.9938    0.0000 H   0  0  0  0  0  0  0  0  0  0  0  0
    4.6660   -0.2462    0.0000 H   0  0  0  0  0  0  0  0  0  0  0  0
    8.6000    0.2957    0.0000 H   0  0  0  0  0  0  0  0  0  0  0  0
    9.2903   -0.1028    0.0000 H   0  0  0  0  0  0  0  0  0  0  0  0
   10.7653    0.7198    0.0000 H   0  0  0  0  0  0  0  0  0  0  0  0
   10.0750    1.1183    0.0000 H   0  0  0  0  0  0  0  0  0  0  0  0
    2.9132    3.0284    0.0000 H   0  0  0  0  0  0  0  0  0  0  0  0
    1.7909    2.4783    0.0000 H   0  0  0  0  0  0  0  0  0  0  0  0
    1.3891    1.7885    0.0000 H   0  0  0  0  0  0  0  0  0  0  0  0
    1.3891    0.9590    0.0000 H   0  0  0  0  0  0  0  0  0  0  0  0
    1.7909    0.2693    0.0000 H   0  0  0  0  0  0  0  0  0  0  0  0
   11.3718   -1.9268    0.0000 H   0  0  0  0  0  0  0  0  0  0  0  0
   11.7698   -2.7080    0.0000 H   0  0  0  0  0  0  0  0  0  0  0  0
   12.5511   -2.3100    0.0000 H   0  0  0  0  0  0  0  0  0  0  0  0
   13.3596   -2.6928    0.0000 H   0  0  0  0  0  0  0  0  0  0  0  0
   14.5312    0.3567    0.0000 H   0  0  0  0  0  0  0  0  0  0  0  0
   16.1501   -2.9861    0.0000 H   0  0  0  0  0  0  0  0  0  0  0  0
   14.6702   -3.6450    0.0000 H   0  0  0  0  0  0  0  0  0  0  0  0
   16.0477    1.0460    0.0000 H   0  0  0  0  0  0  0  0  0  0  0  0
   17.9930   -0.3473    0.0000 H   0  0  0  0  0  0  0  0  0  0  0  0
   18.3104    0.4701    0.0000 H   0  0  0  0  0  0  0  0  0  0  0  0
   17.4930    0.7875    0.0000 H   0  0  0  0  0  0  0  0  0  0  0  0
  1 21  1  0  0  0  0
  1 24  1  0  0  0  0
  2 20  1  0  0  0  0
  2 23  1  0  0  0  0
  3  9  1  0  0  0  0
  3 10  1  0  0  0  0
  3 15  1  0  0  0  0
  4 19  1  0  0  0  0
  4 22  1  0  0  0  0
  4 53  1  0  0  0  0
  5 24  1  0  0  0  0
  5 25  1  0  0  0  0
  5 28  1  0  0  0  0
  6  7  1  0  0  0  0
  6 24  2  0  0  0  0
  7 25  2  0  0  0  0
  8 29  1  0  0  0  0
  8 35  2  0  0  0  0
  9 11  1  0  0  0  0
  9 37  1  0  0  0  0
  9 38  1  0  0  0  0
 10 12  1  0  0  0  0
 10 39  1  0  0  0  0
 10 40  1  0  0  0  0
 11 13  1  0  0  0  0
 11 41  1  0  0  0  0
 11 42  1  0  0  0  0
 12 14  1  0  0  0  0
 12 43  1  0  0  0  0
 12 44  1  0  0  0  0
 13 14  1  0  0  0  0
 13 16  2  0  0  0  0
 14 17  2  0  0  0  0
 15 18  1  0  0  0  0
 15 45  1  0  0  0  0
 15 46  1  0  0  0  0
 16 19  1  0  0  0  0
 16 47  1  0  0  0  0
 17 20  1  0  0  0  0
 17 48  1  0  0  0  0
 18 21  1  0  0  0  0
 18 49  1  0  0  0  0
 18 50  1  0  0  0  0
 19 20  2  0  0  0  0
 21 51  1  0  0  0  0
 21 52  1  0  0  0  0
 22 23  1  0  0  0  0
 22 54  1  0  0  0  0
 22 55  1  0  0  0  0
 23 56  1  0  0  0  0
 23 57  1  0  0  0  0
 25 26  1  0  0  0  0
 26 27  2  0  0  0  0
 26 30  1  0  0  0  0
 27 29  1  0  0  0  0
 27 31  1  0  0  0  0
 28 58  1  0  0  0  0
 28 59  1  0  0  0  0
 28 60  1  0  0  0  0
 29 32  2  0  0  0  0
 30 33  2  0  0  0  0
 30 61  1  0  0  0  0
 31 34  2  0  0  0  0
 31 62  1  0  0  0  0
 32 33  1  0  0  0  0
 32 63  1  0  0  0  0
 33 64  1  0  0  0  0
 34 35  1  0  0  0  0
 34 65  1  0  0  0  0
 35 36  1  0  0  0  0
 36 66  1  0  0  0  0
 36 67  1  0  0  0  0
 36 68  1  0  0  0  0
M  END
> <PUBCHEM_COMPOUND_CID>
11584185

> <PUBCHEM_COMPOUND_CANONICALIZED>
1

> <PUBCHEM_CACTVS_COMPLEXITY>
716

> <PUBCHEM_CACTVS_HBOND_ACCEPTOR>
7

> <PUBCHEM_CACTVS_HBOND_DONOR>
1

> <PUBCHEM_CACTVS_ROTATABLE_BOND>
6

> <PUBCHEM_CACTVS_SUBSKEYS>
AAADcfB7oABAAAAAAAAAAAAAAAAAAWAAAAA8eIEABYAAAACx/AAAHgQYAAAADAzl3waz1vfMFAiiAyZiZACS2CthIrAd2KA/bJiOLuLkuZuHOCjk2BPY6AeQ0PIOqAABQAASEABQAAKAACQgAAAAAAAAAA==

> <PUBCHEM_IUPAC_OPENEYE_NAME>
8-[3-[[4-methyl-5-(2-methyl-5-quinolyl)-1,2,4-triazol-3-yl]sulfanyl]propyl]-3,4,6,7,9,10-hexahydro-2H-[1,4]oxazino[2,3-h][3]benzazepine

> <PUBCHEM_IUPAC_CAS_NAME>
8-[3-[[4-methyl-5-(2-methyl-5-quinolinyl)-1,2,4-triazol-3-yl]thio]propyl]-3,4,6,7,9,10-hexahydro-2H-[1,4]oxazino[2,3-h][3]benzazepine

> <PUBCHEM_IUPAC_NAME_MARKUP>
8-[3-[[4-methyl-5-(2-methylquinolin-5-yl)-1,2,4-triazol-3-yl]sulfanyl]propyl]-3,4,6,7,9,10-hexahydro-2<I>H</I>-[1,4]oxazino[2,3-h][3]benzazepine

> <PUBCHEM_IUPAC_NAME>
8-[3-[[4-methyl-5-(2-methylquinolin-5-yl)-1,2,4-triazol-3-yl]sulfanyl]propyl]-3,4,6,7,9,10-hexahydro-2H-[1,4]oxazino[2,3-h][3]benzazepine

> <PUBCHEM_IUPAC_SYSTEMATIC_NAME>
8-[3-[[4-methyl-5-(2-methylquinolin-5-yl)-1,2,4-triazol-3-yl]sulfanyl]propyl]-3,4,6,7,9,10-hexahydro-2H-[1,4]oxazino[2,3-h][3]benzazepine

> <PUBCHEM_IUPAC_TRADITIONAL_NAME>
8-[3-[[4-methyl-5-(2-methyl-5-quinolyl)-1,2,4-triazol-3-yl]thio]propyl]-3,4,6,7,9,10-hexahydro-2H-[1,4]oxazino[2,3-h][3]benzazepine

> <PUBCHEM_IUPAC_INCHI>
InChI=1S/C28H32N6OS/c1-19-7-8-22-23(5-3-6-24(22)30-19)27-31-32-28(33(27)2)36-16-4-12-34-13-9-20-17-25-26(35-15-11-29-25)18-21(20)10-14-34/h3,5-8,17-18,29H,4,9-16H2,1-2H3

> <PUBCHEM_IUPAC_INCHIKEY>
AJBBNBBBDUCRTB-UHFFFAOYSA-N

> <PUBCHEM_XLOGP3_AA>
4.7

> <PUBCHEM_EXACT_MASS>
500.23583084

> <PUBCHEM_MOLECULAR_FORMULA>
C28H32N6OS

> <PUBCHEM_MOLECULAR_WEIGHT>
500.7

> <PUBCHEM_OPENEYE_CAN_SMILES>
CC1=NC2=CC=CC(=C2C=C1)C3=NN=C(N3C)SCCCN4CCC5=CC6=C(C=C5CC4)OCCN6

> <PUBCHEM_OPENEYE_ISO_SMILES>
CC1=NC2=CC=CC(=C2C=C1)C3=NN=C(N3C)SCCCN4CCC5=CC6=C(C=C5CC4)OCCN6

> <PUBCHEM_CACTVS_TPSA>
93.4

> <PUBCHEM_MONOISOTOPIC_WEIGHT>
500.23583084

> <PUBCHEM_TOTAL_CHARGE>
0

> <PUBCHEM_HEAVY_ATOM_COUNT>
36

> <PUBCHEM_ATOM_DEF_STEREO_COUNT>
0

> <PUBCHEM_ATOM_UDEF_STEREO_COUNT>
0

> <PUBCHEM_BOND_DEF_STEREO_COUNT>
0

> <PUBCHEM_BOND_UDEF_STEREO_COUNT>
0

> <PUBCHEM_ISOTOPIC_ATOM_COUNT>
0

> <PUBCHEM_COMPONENT_COUNT>
1

> <PUBCHEM_CACTVS_TAUTO_COUNT>
-1

> <PUBCHEM_COORDINATE_TYPE>
1
5
255

> <PUBCHEM_BONDANNOTATIONS>
13  14  8
13  16  8
14  17  8
16  19  8
17  20  8
19  20  8
26  27  8
26  30  8
27  29  8
27  31  8
29  32  8
30  33  8
31  34  8
32  33  8
34  35  8
5  24  8
5  25  8
6  24  8
6  7  8
7  25  8
8  29  8
8  35  8

$$$$
