10049549
  -OEChem-09292322242D

 42 45  0     0  0  0  0  0  0999 V2000
    2.8660   -2.8684    0.0000 I   0  0  0  0  0  0  0  0  0  0  0  0
   11.8385    2.3304    0.0000 Cl  0  0  0  0  0  0  0  0  0  0  0  0
    5.9674    1.0930    0.0000 N   0  0  0  0  0  0  0  0  0  0  0  0
    7.9244    1.5055    0.0000 N   0  0  0  0  0  0  0  0  0  0  0  0
    3.7320   -1.3684    0.0000 N   0  0  0  0  0  0  0  0  0  0  0  0
    4.6783   -1.6732    0.0000 N   0  0  0  0  0  0  0  0  0  0  0  0
    6.2781    2.0436    0.0000 C   0  0  0  0  0  0  0  0  0  0  0  0
    6.6353    0.3487    0.0000 C   0  0  0  0  0  0  0  0  0  0  0  0
    7.2566    2.2498    0.0000 C   0  0  0  0  0  0  0  0  0  0  0  0
    7.6138    0.5550    0.0000 C   0  0  0  0  0  0  0  0  0  0  0  0
    4.9889    0.8868    0.0000 C   0  0  0  0  0  0  0  0  0  0  0  0
    4.6783   -0.0637    0.0000 C   0  0  0  0  0  0  0  0  0  0  0  0
    8.9030    1.7117    0.0000 C   0  0  0  0  0  0  0  0  0  0  0  0
    3.7320   -0.3684    0.0000 C   0  0  0  0  0  0  0  0  0  0  0  0
    5.2619   -0.8684    0.0000 C   0  0  0  0  0  0  0  0  0  0  0  0
    9.5708    0.9674    0.0000 C   0  0  0  0  0  0  0  0  0  0  0  0
    9.2136    2.6622    0.0000 C   0  0  0  0  0  0  0  0  0  0  0  0
    2.8660    0.1316    0.0000 C   0  0  0  0  0  0  0  0  0  0  0  0
    2.8660   -1.8684    0.0000 C   0  0  0  0  0  0  0  0  0  0  0  0
   10.5493    1.1736    0.0000 C   0  0  0  0  0  0  0  0  0  0  0  0
   10.1921    2.8684    0.0000 C   0  0  0  0  0  0  0  0  0  0  0  0
    2.0000   -0.3684    0.0000 C   0  0  0  0  0  0  0  0  0  0  0  0
   10.8600    2.1241    0.0000 C   0  0  0  0  0  0  0  0  0  0  0  0
    2.0000   -1.3684    0.0000 C   0  0  0  0  0  0  0  0  0  0  0  0
    6.2575    2.6632    0.0000 H   0  0  0  0  0  0  0  0  0  0  0  0
    5.6643    2.1309    0.0000 H   0  0  0  0  0  0  0  0  0  0  0  0
    6.1089    0.0211    0.0000 H   0  0  0  0  0  0  0  0  0  0  0  0
    6.8665   -0.2265    0.0000 H   0  0  0  0  0  0  0  0  0  0  0  0
    7.7830    2.5774    0.0000 H   0  0  0  0  0  0  0  0  0  0  0  0
    7.0254    2.8250    0.0000 H   0  0  0  0  0  0  0  0  0  0  0  0
    7.6344   -0.0647    0.0000 H   0  0  0  0  0  0  0  0  0  0  0  0
    8.2276    0.4676    0.0000 H   0  0  0  0  0  0  0  0  0  0  0  0
    4.9684    1.5065    0.0000 H   0  0  0  0  0  0  0  0  0  0  0  0
    4.3751    0.9742    0.0000 H   0  0  0  0  0  0  0  0  0  0  0  0
    5.8819   -0.8684    0.0000 H   0  0  0  0  0  0  0  0  0  0  0  0
    9.3782    0.3781    0.0000 H   0  0  0  0  0  0  0  0  0  0  0  0
    8.7996    3.1237    0.0000 H   0  0  0  0  0  0  0  0  0  0  0  0
    2.8660    0.7516    0.0000 H   0  0  0  0  0  0  0  0  0  0  0  0
   10.9634    0.7121    0.0000 H   0  0  0  0  0  0  0  0  0  0  0  0
   10.3847    3.4578    0.0000 H   0  0  0  0  0  0  0  0  0  0  0  0
    1.4631   -0.0584    0.0000 H   0  0  0  0  0  0  0  0  0  0  0  0
    1.4631   -1.6784    0.0000 H   0  0  0  0  0  0  0  0  0  0  0  0
  1 19  1  0  0  0  0
  2 23  1  0  0  0  0
  3  7  1  0  0  0  0
  3  8  1  0  0  0  0
  3 11  1  0  0  0  0
  4  9  1  0  0  0  0
  4 10  1  0  0  0  0
  4 13  1  0  0  0  0
  5  6  1  0  0  0  0
  5 14  1  0  0  0  0
  5 19  1  0  0  0  0
  6 15  2  0  0  0  0
  7  9  1  0  0  0  0
  7 25  1  0  0  0  0
  7 26  1  0  0  0  0
  8 10  1  0  0  0  0
  8 27  1  0  0  0  0
  8 28  1  0  0  0  0
  9 29  1  0  0  0  0
  9 30  1  0  0  0  0
 10 31  1  0  0  0  0
 10 32  1  0  0  0  0
 11 12  1  0  0  0  0
 11 33  1  0  0  0  0
 11 34  1  0  0  0  0
 12 14  2  0  0  0  0
 12 15  1  0  0  0  0
 13 16  2  0  0  0  0
 13 17  1  0  0  0  0
 14 18  1  0  0  0  0
 15 35  1  0  0  0  0
 16 20  1  0  0  0  0
 16 36  1  0  0  0  0
 17 21  2  0  0  0  0
 17 37  1  0  0  0  0
 18 22  2  0  0  0  0
 18 38  1  0  0  0  0
 19 24  2  0  0  0  0
 20 23  2  0  0  0  0
 20 39  1  0  0  0  0
 21 23  1  0  0  0  0
 21 40  1  0  0  0  0
 22 24  1  0  0  0  0
 22 41  1  0  0  0  0
 24 42  1  0  0  0  0
M  END
> <PUBCHEM_COMPOUND_CID>
10049549

> <PUBCHEM_COMPOUND_CANONICALIZED>
1

> <PUBCHEM_CACTVS_COMPLEXITY>
410

> <PUBCHEM_CACTVS_HBOND_ACCEPTOR>
3

> <PUBCHEM_CACTVS_HBOND_DONOR>
0

> <PUBCHEM_CACTVS_ROTATABLE_BOND>
3

> <PUBCHEM_CACTVS_SUBSKEYS>
AAADceB7gAAEAgAAAAAAAAAAAAAAAWAAAAA8WIAAAAAAAFgB8AAAHAIoAAAADArDHiQ8wLMIEACiAzRnRACShCAhhyAYmCA4ZpgIYOLB09GUpAhgiADIyAcQgEAMAABAAAAAAAAAAIAAAAAAAAAAAAAAAA==

> <PUBCHEM_IUPAC_OPENEYE_NAME>
3-[[4-(4-chlorophenyl)piperazin-1-yl]methyl]-7-iodo-pyrazolo[1,5-a]pyridine

> <PUBCHEM_IUPAC_CAS_NAME>
3-[[4-(4-chlorophenyl)-1-piperazinyl]methyl]-7-iodopyrazolo[1,5-a]pyridine

> <PUBCHEM_IUPAC_NAME_MARKUP>
3-[[4-(4-chlorophenyl)piperazin-1-yl]methyl]-7-iodopyrazolo[1,5-a]pyridine

> <PUBCHEM_IUPAC_NAME>
3-[[4-(4-chlorophenyl)piperazin-1-yl]methyl]-7-iodopyrazolo[1,5-a]pyridine

> <PUBCHEM_IUPAC_SYSTEMATIC_NAME>
3-[[4-(4-chlorophenyl)piperazin-1-yl]methyl]-7-iodanyl-pyrazolo[1,5-a]pyridine

> <PUBCHEM_IUPAC_TRADITIONAL_NAME>
3-[[4-(4-chlorophenyl)piperazino]methyl]-7-iodo-pyrazolo[1,5-a]pyridine

> <PUBCHEM_IUPAC_INCHI>
InChI=1S/C18H18ClIN4/c19-15-4-6-16(7-5-15)23-10-8-22(9-11-23)13-14-12-21-24-17(14)2-1-3-18(24)20/h1-7,12H,8-11,13H2

> <PUBCHEM_IUPAC_INCHIKEY>
DQWYVTVADJXAAR-UHFFFAOYSA-N

> <PUBCHEM_XLOGP3_AA>
3.8

> <PUBCHEM_EXACT_MASS>
452.02647

> <PUBCHEM_MOLECULAR_FORMULA>
C18H18ClIN4

> <PUBCHEM_MOLECULAR_WEIGHT>
452.7

> <PUBCHEM_OPENEYE_CAN_SMILES>
C1CN(CCN1CC2=C3C=CC=C(N3N=C2)I)C4=CC=C(C=C4)Cl

> <PUBCHEM_OPENEYE_ISO_SMILES>
C1CN(CCN1CC2=C3C=CC=C(N3N=C2)I)C4=CC=C(C=C4)Cl

> <PUBCHEM_CACTVS_TPSA>
23.8

> <PUBCHEM_MONOISOTOPIC_WEIGHT>
452.02647

> <PUBCHEM_TOTAL_CHARGE>
0

> <PUBCHEM_HEAVY_ATOM_COUNT>
24

> <PUBCHEM_ATOM_DEF_STEREO_COUNT>
0

> <PUBCHEM_ATOM_UDEF_STEREO_COUNT>
0

> <PUBCHEM_BOND_DEF_STEREO_COUNT>
0

> <PUBCHEM_BOND_UDEF_STEREO_COUNT>
0

> <PUBCHEM_ISOTOPIC_ATOM_COUNT>
0

> <PUBCHEM_COMPONENT_COUNT>
1

> <PUBCHEM_CACTVS_TAUTO_COUNT>
-1

> <PUBCHEM_COORDINATE_TYPE>
1
5
255

> <PUBCHEM_BONDANNOTATIONS>
12  14  8
12  15  8
13  16  8
13  17  8
14  18  8
16  20  8
17  21  8
18  22  8
19  24  8
20  23  8
21  23  8
22  24  8
5  14  8
5  19  8
5  6  8
6  15  8

$$$$
