6918314
  -OEChem-09292322322D

 60 64  0     0  0  0  0  0  0999 V2000
   14.4713   -2.2358    0.0000 O   0  0  0  0  0  0  0  0  0  0  0  0
   16.5549   -0.5651    0.0000 O   0  0  0  0  0  0  0  0  0  0  0  0
    9.1949    0.5689    0.0000 N   0  0  0  0  0  0  0  0  0  0  0  0
   10.9270   -0.4311    0.0000 N   0  0  0  0  0  0  0  0  0  0  0  0
    3.7899    2.2668    0.0000 N   0  0  0  0  0  0  0  0  0  0  0  0
   16.5549   -2.2971    0.0000 N   0  0  0  0  0  0  0  0  0  0  0  0
    2.0465   -2.3940    0.0000 N   0  0  0  0  0  0  0  0  0  0  0  0
   10.0610    1.0689    0.0000 C   0  0  0  0  0  0  0  0  0  0  0  0
    9.1949   -0.4311    0.0000 C   0  0  0  0  0  0  0  0  0  0  0  0
   10.9270    0.5689    0.0000 C   0  0  0  0  0  0  0  0  0  0  0  0
   10.0610   -0.9311    0.0000 C   0  0  0  0  0  0  0  0  0  0  0  0
    8.3289    1.0689    0.0000 C   0  0  0  0  0  0  0  0  0  0  0  0
    7.4629    0.5689    0.0000 C   0  0  0  0  0  0  0  0  0  0  0  0
    6.5968    1.0689    0.0000 C   0  0  0  0  0  0  0  0  0  0  0  0
   11.7930   -0.9311    0.0000 C   0  0  0  0  0  0  0  0  0  0  0  0
    5.7308    0.5689    0.0000 C   0  0  0  0  0  0  0  0  0  0  0  0
    4.8648    1.0689    0.0000 C   0  0  0  0  0  0  0  0  0  0  0  0
   12.6590   -0.4311    0.0000 C   0  0  0  0  0  0  0  0  0  0  0  0
   11.7930   -1.9311    0.0000 C   0  0  0  0  0  0  0  0  0  0  0  0
    3.9570    0.6638    0.0000 C   0  0  0  0  0  0  0  0  0  0  0  0
   13.5251   -0.9311    0.0000 C   0  0  0  0  0  0  0  0  0  0  0  0
    4.7617    2.0576    0.0000 C   0  0  0  0  0  0  0  0  0  0  0  0
   13.5251   -1.9311    0.0000 C   0  0  0  0  0  0  0  0  0  0  0  0
   12.6590   -2.4311    0.0000 C   0  0  0  0  0  0  0  0  0  0  0  0
    3.2892    1.4081    0.0000 C   0  0  0  0  0  0  0  0  0  0  0  0
   14.4713   -0.6264    0.0000 C   0  0  0  0  0  0  0  0  0  0  0  0
    3.6464   -0.2868    0.0000 C   0  0  0  0  0  0  0  0  0  0  0  0
    2.3107    1.2018    0.0000 C   0  0  0  0  0  0  0  0  0  0  0  0
   15.0549   -1.4311    0.0000 C   0  0  0  0  0  0  0  0  0  0  0  0
    2.6678   -0.4930    0.0000 C   0  0  0  0  0  0  0  0  0  0  0  0
    2.0000    0.2513    0.0000 C   0  0  0  0  0  0  0  0  0  0  0  0
   16.0549   -1.4311    0.0000 C   0  0  0  0  0  0  0  0  0  0  0  0
    2.3572   -1.4435    0.0000 C   0  0  0  0  0  0  0  0  0  0  0  0
   10.4595    1.5438    0.0000 H   0  0  0  0  0  0  0  0  0  0  0  0
    9.6624    1.5438    0.0000 H   0  0  0  0  0  0  0  0  0  0  0  0
    8.5843   -0.3235    0.0000 H   0  0  0  0  0  0  0  0  0  0  0  0
    8.9829   -1.0137    0.0000 H   0  0  0  0  0  0  0  0  0  0  0  0
   11.5376    0.4612    0.0000 H   0  0  0  0  0  0  0  0  0  0  0  0
   11.1390    1.1515    0.0000 H   0  0  0  0  0  0  0  0  0  0  0  0
    9.6624   -1.4061    0.0000 H   0  0  0  0  0  0  0  0  0  0  0  0
   10.4595   -1.4061    0.0000 H   0  0  0  0  0  0  0  0  0  0  0  0
    8.7274    1.5438    0.0000 H   0  0  0  0  0  0  0  0  0  0  0  0
    7.9304    1.5438    0.0000 H   0  0  0  0  0  0  0  0  0  0  0  0
    7.0644    0.0939    0.0000 H   0  0  0  0  0  0  0  0  0  0  0  0
    7.8614    0.0939    0.0000 H   0  0  0  0  0  0  0  0  0  0  0  0
    6.9954    1.5438    0.0000 H   0  0  0  0  0  0  0  0  0  0  0  0
    6.1983    1.5438    0.0000 H   0  0  0  0  0  0  0  0  0  0  0  0
    5.3323    0.0939    0.0000 H   0  0  0  0  0  0  0  0  0  0  0  0
    6.1293    0.0939    0.0000 H   0  0  0  0  0  0  0  0  0  0  0  0
   12.6590    0.1889    0.0000 H   0  0  0  0  0  0  0  0  0  0  0  0
   11.2561   -2.2411    0.0000 H   0  0  0  0  0  0  0  0  0  0  0  0
    5.2232    2.4717    0.0000 H   0  0  0  0  0  0  0  0  0  0  0  0
   12.6590   -3.0511    0.0000 H   0  0  0  0  0  0  0  0  0  0  0  0
    3.5397    2.8341    0.0000 H   0  0  0  0  0  0  0  0  0  0  0  0
   14.6639   -0.0371    0.0000 H   0  0  0  0  0  0  0  0  0  0  0  0
    4.0604   -0.7482    0.0000 H   0  0  0  0  0  0  0  0  0  0  0  0
    1.8966    1.6633    0.0000 H   0  0  0  0  0  0  0  0  0  0  0  0
    1.3933    0.1235    0.0000 H   0  0  0  0  0  0  0  0  0  0  0  0
   17.1749   -2.2971    0.0000 H   0  0  0  0  0  0  0  0  0  0  0  0
   16.2449   -2.8341    0.0000 H   0  0  0  0  0  0  0  0  0  0  0  0
  1 23  1  0  0  0  0
  1 29  1  0  0  0  0
  2 32  2  0  0  0  0
  3  8  1  0  0  0  0
  3  9  1  0  0  0  0
  3 12  1  0  0  0  0
  4 10  1  0  0  0  0
  4 11  1  0  0  0  0
  4 15  1  0  0  0  0
  5 22  1  0  0  0  0
  5 25  1  0  0  0  0
  5 54  1  0  0  0  0
  6 32  1  0  0  0  0
  6 59  1  0  0  0  0
  6 60  1  0  0  0  0
  7 33  3  0  0  0  0
  8 10  1  0  0  0  0
  8 34  1  0  0  0  0
  8 35  1  0  0  0  0
  9 11  1  0  0  0  0
  9 36  1  0  0  0  0
  9 37  1  0  0  0  0
 10 38  1  0  0  0  0
 10 39  1  0  0  0  0
 11 40  1  0  0  0  0
 11 41  1  0  0  0  0
 12 13  1  0  0  0  0
 12 42  1  0  0  0  0
 12 43  1  0  0  0  0
 13 14  1  0  0  0  0
 13 44  1  0  0  0  0
 13 45  1  0  0  0  0
 14 16  1  0  0  0  0
 14 46  1  0  0  0  0
 14 47  1  0  0  0  0
 15 18  2  0  0  0  0
 15 19  1  0  0  0  0
 16 17  1  0  0  0  0
 16 48  1  0  0  0  0
 16 49  1  0  0  0  0
 17 20  1  0  0  0  0
 17 22  2  0  0  0  0
 18 21  1  0  0  0  0
 18 50  1  0  0  0  0
 19 24  2  0  0  0  0
 19 51  1  0  0  0  0
 20 25  2  0  0  0  0
 20 27  1  0  0  0  0
 21 23  2  0  0  0  0
 21 26  1  0  0  0  0
 22 52  1  0  0  0  0
 23 24  1  0  0  0  0
 24 53  1  0  0  0  0
 25 28  1  0  0  0  0
 26 29  2  0  0  0  0
 26 55  1  0  0  0  0
 27 30  2  0  0  0  0
 27 56  1  0  0  0  0
 28 31  2  0  0  0  0
 28 57  1  0  0  0  0
 29 32  1  0  0  0  0
 30 31  1  0  0  0  0
 30 33  1  0  0  0  0
 31 58  1  0  0  0  0
M  END
> <PUBCHEM_COMPOUND_CID>
6918314

> <PUBCHEM_COMPOUND_CANONICALIZED>
1

> <PUBCHEM_CACTVS_COMPLEXITY>
729

> <PUBCHEM_CACTVS_HBOND_ACCEPTOR>
5

> <PUBCHEM_CACTVS_HBOND_DONOR>
2

> <PUBCHEM_CACTVS_ROTATABLE_BOND>
7

> <PUBCHEM_CACTVS_SUBSKEYS>
AAADceB7sAAAAAAAAAAAAAAAAAAAAWJAAAA8YIAAAAAAAFgB/gAAHgAQAAAADAzBngQ8xvPJlEC4B7V3VAKiiCA1IiAI2aH+bNgO5vLEtZ+XOSjk0BHI6Y+83+P+iEACQAAKAAAQgASAABQAAAAAAAAAAA==

> <PUBCHEM_IUPAC_OPENEYE_NAME>
5-[4-[4-(5-cyano-1H-indol-3-yl)butyl]piperazin-1-yl]benzofuran-2-carboxamide

> <PUBCHEM_IUPAC_CAS_NAME>
5-[4-[4-(5-cyano-1H-indol-3-yl)butyl]-1-piperazinyl]-2-benzofurancarboxamide

> <PUBCHEM_IUPAC_NAME_MARKUP>
5-[4-[4-(5-cyano-1<I>H</I>-indol-3-yl)butyl]piperazin-1-yl]-1-benzofuran-2-carboxamide

> <PUBCHEM_IUPAC_NAME>
5-[4-[4-(5-cyano-1H-indol-3-yl)butyl]piperazin-1-yl]-1-benzofuran-2-carboxamide

> <PUBCHEM_IUPAC_SYSTEMATIC_NAME>
5-[4-[4-(5-cyano-1H-indol-3-yl)butyl]piperazin-1-yl]-1-benzofuran-2-carboxamide

> <PUBCHEM_IUPAC_TRADITIONAL_NAME>
5-[4-[4-(5-cyano-1H-indol-3-yl)butyl]piperazino]coumarilamide

> <PUBCHEM_IUPAC_INCHI>
InChI=1S/C26H27N5O2/c27-16-18-4-6-23-22(13-18)19(17-29-23)3-1-2-8-30-9-11-31(12-10-30)21-5-7-24-20(14-21)15-25(33-24)26(28)32/h4-7,13-15,17,29H,1-3,8-12H2,(H2,28,32)

> <PUBCHEM_IUPAC_INCHIKEY>
SGEGOXDYSFKCPT-UHFFFAOYSA-N

> <PUBCHEM_XLOGP3_AA>
4

> <PUBCHEM_EXACT_MASS>
441.21647512

> <PUBCHEM_MOLECULAR_FORMULA>
C26H27N5O2

> <PUBCHEM_MOLECULAR_WEIGHT>
441.5

> <PUBCHEM_OPENEYE_CAN_SMILES>
C1CN(CCN1CCCCC2=CNC3=C2C=C(C=C3)C#N)C4=CC5=C(C=C4)OC(=C5)C(=O)N

> <PUBCHEM_OPENEYE_ISO_SMILES>
C1CN(CCN1CCCCC2=CNC3=C2C=C(C=C3)C#N)C4=CC5=C(C=C4)OC(=C5)C(=O)N

> <PUBCHEM_CACTVS_TPSA>
102

> <PUBCHEM_MONOISOTOPIC_WEIGHT>
441.21647512

> <PUBCHEM_TOTAL_CHARGE>
0

> <PUBCHEM_HEAVY_ATOM_COUNT>
33

> <PUBCHEM_ATOM_DEF_STEREO_COUNT>
0

> <PUBCHEM_ATOM_UDEF_STEREO_COUNT>
0

> <PUBCHEM_BOND_DEF_STEREO_COUNT>
0

> <PUBCHEM_BOND_UDEF_STEREO_COUNT>
0

> <PUBCHEM_ISOTOPIC_ATOM_COUNT>
0

> <PUBCHEM_COMPONENT_COUNT>
1

> <PUBCHEM_CACTVS_TAUTO_COUNT>
-1

> <PUBCHEM_COORDINATE_TYPE>
1
5
255

> <PUBCHEM_BONDANNOTATIONS>
1  23  8
1  29  8
15  18  8
15  19  8
17  20  8
17  22  8
18  21  8
19  24  8
20  25  8
20  27  8
21  23  8
21  26  8
23  24  8
25  28  8
26  29  8
27  30  8
28  31  8
30  31  8
5  22  8
5  25  8

$$$$
