126534443
  -OEChem-09292322372D

 61 65  0     1  0  0  0  0  0999 V2000
    9.6951    2.8721    0.0000 S   0  0  0  0  0  0  0  0  0  0  0  0
    2.9782   -3.4732    0.0000 O   0  0  0  0  0  0  0  0  0  0  0  0
    4.2142    0.3310    0.0000 N   0  0  3  0  0  0  0  0  0  0  0  0
    6.6951    1.1400    0.0000 N   0  0  3  0  0  0  0  0  0  0  0  0
   11.2829    2.0631    0.0000 N   0  0  0  0  0  0  0  0  0  0  0  0
   11.2829    3.6811    0.0000 N   0  0  0  0  0  0  0  0  0  0  0  0
   12.2339    3.3721    0.0000 N   0  0  0  0  0  0  0  0  0  0  0  0
   13.9565    2.1910    0.0000 N   0  0  0  0  0  0  0  0  0  0  0  0
   13.7474    0.2020    0.0000 N   0  0  0  0  0  0  0  0  0  0  0  0
    5.1653    1.6400    0.0000 C   0  0  3  0  0  0  0  0  0  0  0  0
    5.1653    0.6400    0.0000 C   0  0  3  0  0  0  0  0  0  0  0  0
    6.1115    1.9448    0.0000 C   0  0  0  0  0  0  0  0  0  0  0  0
    4.2142    1.9491    0.0000 C   0  0  0  0  0  0  0  0  0  0  0  0
    6.1115    0.3353    0.0000 C   0  0  0  0  0  0  0  0  0  0  0  0
    3.6264    1.1400    0.0000 C   0  0  0  0  0  0  0  0  0  0  0  0
    7.6951    1.1400    0.0000 C   0  0  0  0  0  0  0  0  0  0  0  0
    3.9052   -0.6200    0.0000 C   0  0  0  0  0  0  0  0  0  0  0  0
    8.1951    2.0061    0.0000 C   0  0  0  0  0  0  0  0  0  0  0  0
    2.9270   -0.8279    0.0000 C   0  0  0  0  0  0  0  0  0  0  0  0
    4.5743   -1.3632    0.0000 C   0  0  0  0  0  0  0  0  0  0  0  0
    9.1951    2.0061    0.0000 C   0  0  0  0  0  0  0  0  0  0  0  0
    2.6180   -1.7790    0.0000 C   0  0  0  0  0  0  0  0  0  0  0  0
    4.2653   -2.3142    0.0000 C   0  0  0  0  0  0  0  0  0  0  0  0
    3.2872   -2.5221    0.0000 C   0  0  0  0  0  0  0  0  0  0  0  0
   10.6951    2.8721    0.0000 C   0  0  0  0  0  0  0  0  0  0  0  0
    2.0000   -3.6811    0.0000 C   0  0  0  0  0  0  0  0  0  0  0  0
   12.2339    2.3721    0.0000 C   0  0  0  0  0  0  0  0  0  0  0  0
   10.9739    1.1120    0.0000 C   0  0  0  0  0  0  0  0  0  0  0  0
   13.0430    1.7843    0.0000 C   0  0  0  0  0  0  0  0  0  0  0  0
   12.9384    0.7898    0.0000 C   0  0  0  0  0  0  0  0  0  0  0  0
   14.7655    1.6033    0.0000 C   0  0  0  0  0  0  0  0  0  0  0  0
   14.6610    0.6087    0.0000 C   0  0  0  0  0  0  0  0  0  0  0  0
    5.1661    2.2600    0.0000 H   0  0  0  0  0  0  0  0  0  0  0  0
    5.1661    0.0200    0.0000 H   0  0  0  0  0  0  0  0  0  0  0  0
    6.6489    2.2540    0.0000 H   0  0  0  0  0  0  0  0  0  0  0  0
    5.8605    2.5117    0.0000 H   0  0  0  0  0  0  0  0  0  0  0  0
    4.4664    2.5155    0.0000 H   0  0  0  0  0  0  0  0  0  0  0  0
    3.6773    2.2591    0.0000 H   0  0  0  0  0  0  0  0  0  0  0  0
    5.8605   -0.2316    0.0000 H   0  0  0  0  0  0  0  0  0  0  0  0
    6.6489    0.0261    0.0000 H   0  0  0  0  0  0  0  0  0  0  0  0
    3.1657    1.5549    0.0000 H   0  0  0  0  0  0  0  0  0  0  0  0
    3.1657    0.7252    0.0000 H   0  0  0  0  0  0  0  0  0  0  0  0
    7.5874    0.5295    0.0000 H   0  0  0  0  0  0  0  0  0  0  0  0
    8.2777    0.9280    0.0000 H   0  0  0  0  0  0  0  0  0  0  0  0
    8.3028    2.6166    0.0000 H   0  0  0  0  0  0  0  0  0  0  0  0
    7.6125    2.2181    0.0000 H   0  0  0  0  0  0  0  0  0  0  0  0
    2.5122   -0.3672    0.0000 H   0  0  0  0  0  0  0  0  0  0  0  0
    5.1808   -1.2343    0.0000 H   0  0  0  0  0  0  0  0  0  0  0  0
    9.0874    1.3955    0.0000 H   0  0  0  0  0  0  0  0  0  0  0  0
    9.7777    1.7940    0.0000 H   0  0  0  0  0  0  0  0  0  0  0  0
    2.0116   -1.9079    0.0000 H   0  0  0  0  0  0  0  0  0  0  0  0
    4.6802   -2.7750    0.0000 H   0  0  0  0  0  0  0  0  0  0  0  0
    1.8711   -3.0747    0.0000 H   0  0  0  0  0  0  0  0  0  0  0  0
    1.3936   -3.8100    0.0000 H   0  0  0  0  0  0  0  0  0  0  0  0
    2.1289   -4.2876    0.0000 H   0  0  0  0  0  0  0  0  0  0  0  0
   10.3842    1.3036    0.0000 H   0  0  0  0  0  0  0  0  0  0  0  0
   10.7823    0.5224    0.0000 H   0  0  0  0  0  0  0  0  0  0  0  0
   11.5635    0.9204    0.0000 H   0  0  0  0  0  0  0  0  0  0  0  0
   12.3720    0.5376    0.0000 H   0  0  0  0  0  0  0  0  0  0  0  0
   15.3319    1.8554    0.0000 H   0  0  0  0  0  0  0  0  0  0  0  0
   15.1626    0.2443    0.0000 H   0  0  0  0  0  0  0  0  0  0  0  0
  1 21  1  0  0  0  0
  1 25  1  0  0  0  0
  2 24  1  0  0  0  0
  2 26  1  0  0  0  0
  3 11  1  0  0  0  0
  3 15  1  0  0  0  0
  3 17  1  0  0  0  0
  4 12  1  0  0  0  0
  4 14  1  0  0  0  0
  4 16  1  0  0  0  0
  5 25  1  0  0  0  0
  5 27  1  0  0  0  0
  5 28  1  0  0  0  0
  6  7  1  0  0  0  0
  6 25  2  0  0  0  0
  7 27  2  0  0  0  0
  8 29  2  0  0  0  0
  8 31  1  0  0  0  0
  9 30  2  0  0  0  0
  9 32  1  0  0  0  0
 10 11  1  0  0  0  0
 10 12  1  0  0  0  0
 10 13  1  0  0  0  0
 10 33  1  0  0  0  0
 11 14  1  0  0  0  0
 11 34  1  0  0  0  0
 12 35  1  0  0  0  0
 12 36  1  0  0  0  0
 13 15  1  0  0  0  0
 13 37  1  0  0  0  0
 13 38  1  0  0  0  0
 14 39  1  0  0  0  0
 14 40  1  0  0  0  0
 15 41  1  0  0  0  0
 15 42  1  0  0  0  0
 16 18  1  0  0  0  0
 16 43  1  0  0  0  0
 16 44  1  0  0  0  0
 17 19  2  0  0  0  0
 17 20  1  0  0  0  0
 18 21  1  0  0  0  0
 18 45  1  0  0  0  0
 18 46  1  0  0  0  0
 19 22  1  0  0  0  0
 19 47  1  0  0  0  0
 20 23  2  0  0  0  0
 20 48  1  0  0  0  0
 21 49  1  0  0  0  0
 21 50  1  0  0  0  0
 22 24  2  0  0  0  0
 22 51  1  0  0  0  0
 23 24  1  0  0  0  0
 23 52  1  0  0  0  0
 26 53  1  0  0  0  0
 26 54  1  0  0  0  0
 26 55  1  0  0  0  0
 27 29  1  0  0  0  0
 28 56  1  0  0  0  0
 28 57  1  0  0  0  0
 28 58  1  0  0  0  0
 29 30  1  0  0  0  0
 30 59  1  0  0  0  0
 31 32  2  0  0  0  0
 31 60  1  0  0  0  0
 32 61  1  0  0  0  0
M  END
> <PUBCHEM_COMPOUND_CID>
126534443

> <PUBCHEM_COMPOUND_CANONICALIZED>
1

> <PUBCHEM_CACTVS_COMPLEXITY>
593

> <PUBCHEM_CACTVS_HBOND_ACCEPTOR>
8

> <PUBCHEM_CACTVS_HBOND_DONOR>
0

> <PUBCHEM_CACTVS_ROTATABLE_BOND>
8

> <PUBCHEM_CACTVS_SUBSKEYS>
AAADceB7oABAAAAAAAAAAAAAAAAAAWLFgAA8QAAAAAAWAAAB8AAAHgQIAAAADSzF1wa/1pcMFAiiATZnZACS2C9xMrAd2CA+fJiMbuLk+ZuUMChkyBPI6AewQAAKAEAAAAAAAAAAgAAAAAAAAAAAAAAAAA==

> <PUBCHEM_IUPAC_OPENEYE_NAME>
1-(4-methoxyphenyl)-5-[3-[(4-methyl-5-pyrazin-2-yl-1,2,4-triazol-3-yl)sulfanyl]propyl]-2,3,3a,4,6,6a-hexahydropyrrolo[2,3-c]pyrrole

> <PUBCHEM_IUPAC_CAS_NAME>
1-(4-methoxyphenyl)-5-[3-[[4-methyl-5-(2-pyrazinyl)-1,2,4-triazol-3-yl]thio]propyl]-2,3,3a,4,6,6a-hexahydropyrrolo[2,3-c]pyrrole

> <PUBCHEM_IUPAC_NAME_MARKUP>
1-(4-methoxyphenyl)-5-[3-[(4-methyl-5-pyrazin-2-yl-1,2,4-triazol-3-yl)sulfanyl]propyl]-2,3,3<I>a</I>,4,6,6<I>a</I>-hexahydropyrrolo[2,3-c]pyrrole

> <PUBCHEM_IUPAC_NAME>
1-(4-methoxyphenyl)-5-[3-[(4-methyl-5-pyrazin-2-yl-1,2,4-triazol-3-yl)sulfanyl]propyl]-2,3,3a,4,6,6a-hexahydropyrrolo[2,3-c]pyrrole

> <PUBCHEM_IUPAC_SYSTEMATIC_NAME>
1-(4-methoxyphenyl)-5-[3-[(4-methyl-5-pyrazin-2-yl-1,2,4-triazol-3-yl)sulfanyl]propyl]-2,3,3a,4,6,6a-hexahydropyrrolo[2,3-c]pyrrole

> <PUBCHEM_IUPAC_TRADITIONAL_NAME>
1-(4-methoxyphenyl)-5-[3-[(4-methyl-5-pyrazin-2-yl-1,2,4-triazol-3-yl)thio]propyl]-2,3,3a,4,6,6a-hexahydropyrrolo[2,3-c]pyrrole

> <PUBCHEM_IUPAC_INCHI>
InChI=1S/C23H29N7OS/c1-28-22(20-14-24-9-10-25-20)26-27-23(28)32-13-3-11-29-15-17-8-12-30(21(17)16-29)18-4-6-19(31-2)7-5-18/h4-7,9-10,14,17,21H,3,8,11-13,15-16H2,1-2H3

> <PUBCHEM_IUPAC_INCHIKEY>
AMIGTUQPTNLQHG-UHFFFAOYSA-N

> <PUBCHEM_XLOGP3_AA>
2.2

> <PUBCHEM_EXACT_MASS>
451.21542975

> <PUBCHEM_MOLECULAR_FORMULA>
C23H29N7OS

> <PUBCHEM_MOLECULAR_WEIGHT>
451.6

> <PUBCHEM_OPENEYE_CAN_SMILES>
CN1C(=NN=C1SCCCN2CC3CCN(C3C2)C4=CC=C(C=C4)OC)C5=NC=CN=C5

> <PUBCHEM_OPENEYE_ISO_SMILES>
CN1C(=NN=C1SCCCN2CC3CCN(C3C2)C4=CC=C(C=C4)OC)C5=NC=CN=C5

> <PUBCHEM_CACTVS_TPSA>
97.5

> <PUBCHEM_MONOISOTOPIC_WEIGHT>
451.21542975

> <PUBCHEM_TOTAL_CHARGE>
0

> <PUBCHEM_HEAVY_ATOM_COUNT>
32

> <PUBCHEM_ATOM_DEF_STEREO_COUNT>
0

> <PUBCHEM_ATOM_UDEF_STEREO_COUNT>
2

> <PUBCHEM_BOND_DEF_STEREO_COUNT>
0

> <PUBCHEM_BOND_UDEF_STEREO_COUNT>
0

> <PUBCHEM_ISOTOPIC_ATOM_COUNT>
0

> <PUBCHEM_COMPONENT_COUNT>
1

> <PUBCHEM_CACTVS_TAUTO_COUNT>
-1

> <PUBCHEM_COORDINATE_TYPE>
1
5
255

> <PUBCHEM_BONDANNOTATIONS>
10  13  3
11  14  3
17  19  8
17  20  8
19  22  8
20  23  8
22  24  8
23  24  8
29  30  8
31  32  8
5  25  8
5  27  8
6  25  8
6  7  8
7  27  8
8  29  8
8  31  8
9  30  8
9  32  8

$$$$
