44212702
  -OEChem-09292322502D

 56 61  0     1  0  0  0  0  0999 V2000
   11.6361    0.7618    0.0000 O   0  0  0  0  0  0  0  0  0  0  0  0
    7.0547    0.6557    0.0000 N   0  0  3  0  0  0  0  0  0  0  0  0
    4.5274    1.7799    0.0000 N   0  0  0  0  0  0  0  0  0  0  0  0
   12.0027   -0.9310    0.0000 N   0  0  0  0  0  0  0  0  0  0  0  0
    5.0274    0.2411    0.0000 C   0  0  0  0  0  0  0  0  0  0  0  0
    5.7123   -0.5437    0.0000 C   0  0  0  0  0  0  0  0  0  0  0  0
    6.7328   -0.3350    0.0000 C   0  0  0  0  0  0  0  0  0  0  0  0
    5.3364    1.1921    0.0000 C   0  0  0  0  0  0  0  0  0  0  0  0
    6.3518    1.4244    0.0000 C   0  0  0  0  0  0  0  0  0  0  0  0
    4.0274    0.2411    0.0000 C   0  0  0  0  0  0  0  0  0  0  0  0
    8.0321    0.8674    0.0000 C   0  0  0  0  0  0  0  0  0  0  0  0
    3.7183    1.1921    0.0000 C   0  0  0  0  0  0  0  0  0  0  0  0
    8.7040    0.1268    0.0000 C   0  0  0  0  0  0  0  0  0  0  0  0
   11.7989   -1.9039    0.0000 C   0  0  0  0  0  0  0  0  0  0  0  0
    3.3424   -0.5437    0.0000 C   0  0  0  0  0  0  0  0  0  0  0  0
   12.6605   -2.3999    0.0000 C   0  0  0  0  0  0  0  0  0  0  0  0
   12.9908   -0.8224    0.0000 C   0  0  0  0  0  0  0  0  0  0  0  0
   13.3995   -1.7351    0.0000 C   0  0  0  0  0  0  0  0  0  0  0  0
    2.7029    1.4244    0.0000 C   0  0  0  0  0  0  0  0  0  0  0  0
    9.6814    0.3385    0.0000 C   0  0  0  0  0  0  0  0  0  0  0  0
   10.3534   -0.4021    0.0000 C   0  0  0  0  0  0  0  0  0  0  0  0
   11.3307   -0.1904    0.0000 C   0  0  0  0  0  0  0  0  0  0  0  0
    8.3987   -0.8254    0.0000 C   0  0  0  0  0  0  0  0  0  0  0  0
    2.3219   -0.3350    0.0000 C   0  0  0  0  0  0  0  0  0  0  0  0
    2.0000    0.6557    0.0000 C   0  0  0  0  0  0  0  0  0  0  0  0
   13.5769   -0.0121    0.0000 C   0  0  0  0  0  0  0  0  0  0  0  0
   14.3943   -1.8375    0.0000 C   0  0  0  0  0  0  0  0  0  0  0  0
   10.0480   -1.3543    0.0000 C   0  0  0  0  0  0  0  0  0  0  0  0
    9.0707   -1.5660    0.0000 C   0  0  0  0  0  0  0  0  0  0  0  0
   14.5716   -0.1145    0.0000 C   0  0  0  0  0  0  0  0  0  0  0  0
   14.9803   -1.0272    0.0000 C   0  0  0  0  0  0  0  0  0  0  0  0
    5.1824   -0.8655    0.0000 H   0  0  0  0  0  0  0  0  0  0  0  0
    5.9387   -1.1209    0.0000 H   0  0  0  0  0  0  0  0  0  0  0  0
    6.7513   -0.9547    0.0000 H   0  0  0  0  0  0  0  0  0  0  0  0
    7.3466   -0.4228    0.0000 H   0  0  0  0  0  0  0  0  0  0  0  0
    6.8742    1.7583    0.0000 H   0  0  0  0  0  0  0  0  0  0  0  0
    6.1122    1.9962    0.0000 H   0  0  0  0  0  0  0  0  0  0  0  0
    8.5566    1.1979    0.0000 H   0  0  0  0  0  0  0  0  0  0  0  0
    7.7976    1.4413    0.0000 H   0  0  0  0  0  0  0  0  0  0  0  0
    4.5274    2.3999    0.0000 H   0  0  0  0  0  0  0  0  0  0  0  0
   11.2088   -1.7138    0.0000 H   0  0  0  0  0  0  0  0  0  0  0  0
   11.5478   -2.4708    0.0000 H   0  0  0  0  0  0  0  0  0  0  0  0
   12.2964   -2.9017    0.0000 H   0  0  0  0  0  0  0  0  0  0  0  0
   13.1212   -2.8147    0.0000 H   0  0  0  0  0  0  0  0  0  0  0  0
    3.5408   -1.1311    0.0000 H   0  0  0  0  0  0  0  0  0  0  0  0
    2.5182    2.0162    0.0000 H   0  0  0  0  0  0  0  0  0  0  0  0
    9.8707    0.9289    0.0000 H   0  0  0  0  0  0  0  0  0  0  0  0
    7.7928   -0.9567    0.0000 H   0  0  0  0  0  0  0  0  0  0  0  0
    1.9088   -0.7973    0.0000 H   0  0  0  0  0  0  0  0  0  0  0  0
    1.3940    0.7869    0.0000 H   0  0  0  0  0  0  0  0  0  0  0  0
   13.3235    0.5537    0.0000 H   0  0  0  0  0  0  0  0  0  0  0  0
   14.6476   -2.4034    0.0000 H   0  0  0  0  0  0  0  0  0  0  0  0
   10.4647   -1.8135    0.0000 H   0  0  0  0  0  0  0  0  0  0  0  0
    8.8814   -2.1564    0.0000 H   0  0  0  0  0  0  0  0  0  0  0  0
   14.9350    0.3878    0.0000 H   0  0  0  0  0  0  0  0  0  0  0  0
   15.5971   -1.0907    0.0000 H   0  0  0  0  0  0  0  0  0  0  0  0
  1 22  2  0  0  0  0
  2  7  1  0  0  0  0
  2  9  1  0  0  0  0
  2 11  1  0  0  0  0
  3  8  1  0  0  0  0
  3 12  1  0  0  0  0
  3 40  1  0  0  0  0
  4 14  1  0  0  0  0
  4 17  1  0  0  0  0
  4 22  1  0  0  0  0
  5  6  1  0  0  0  0
  5  8  2  0  0  0  0
  5 10  1  0  0  0  0
  6  7  1  0  0  0  0
  6 32  1  0  0  0  0
  6 33  1  0  0  0  0
  7 34  1  0  0  0  0
  7 35  1  0  0  0  0
  8  9  1  0  0  0  0
  9 36  1  0  0  0  0
  9 37  1  0  0  0  0
 10 12  1  0  0  0  0
 10 15  2  0  0  0  0
 11 13  1  0  0  0  0
 11 38  1  0  0  0  0
 11 39  1  0  0  0  0
 12 19  2  0  0  0  0
 13 20  2  0  0  0  0
 13 23  1  0  0  0  0
 14 16  1  0  0  0  0
 14 41  1  0  0  0  0
 14 42  1  0  0  0  0
 15 24  1  0  0  0  0
 15 45  1  0  0  0  0
 16 18  1  0  0  0  0
 16 43  1  0  0  0  0
 16 44  1  0  0  0  0
 17 18  1  0  0  0  0
 17 26  2  0  0  0  0
 18 27  2  0  0  0  0
 19 25  1  0  0  0  0
 19 46  1  0  0  0  0
 20 21  1  0  0  0  0
 20 47  1  0  0  0  0
 21 22  1  0  0  0  0
 21 28  2  0  0  0  0
 23 29  2  0  0  0  0
 23 48  1  0  0  0  0
 24 25  2  0  0  0  0
 24 49  1  0  0  0  0
 25 50  1  0  0  0  0
 26 30  1  0  0  0  0
 26 51  1  0  0  0  0
 27 31  1  0  0  0  0
 27 52  1  0  0  0  0
 28 29  1  0  0  0  0
 28 53  1  0  0  0  0
 29 54  1  0  0  0  0
 30 31  2  0  0  0  0
 30 55  1  0  0  0  0
 31 56  1  0  0  0  0
M  END
> <PUBCHEM_COMPOUND_CID>
44212702

> <PUBCHEM_COMPOUND_CANONICALIZED>
1

> <PUBCHEM_CACTVS_COMPLEXITY>
652

> <PUBCHEM_CACTVS_HBOND_ACCEPTOR>
2

> <PUBCHEM_CACTVS_HBOND_DONOR>
1

> <PUBCHEM_CACTVS_ROTATABLE_BOND>
3

> <PUBCHEM_CACTVS_SUBSKEYS>
AAADceB7IAAAAAAAAAAAAAAAAAAAAWLAAAA8YMEAAAAAAFgB9AAAHgAQAAAADAjBngQwwPPJkACoAyVyVACCgCAlAiAImSE4ZNgIYPLAlZGUIQhglgDIyYcYicCOgAACAAACAAAAAAQAAAQAAAAAAAAAAA==

> <PUBCHEM_IUPAC_OPENEYE_NAME>
indolin-1-yl-[3-(1,3,4,9-tetrahydropyrido[3,4-b]indol-2-ylmethyl)phenyl]methanone

> <PUBCHEM_IUPAC_CAS_NAME>
2,3-dihydroindol-1-yl-[3-(1,3,4,9-tetrahydropyrido[3,4-b]indol-2-ylmethyl)phenyl]methanone

> <PUBCHEM_IUPAC_NAME_MARKUP>
2,3-dihydroindol-1-yl-[3-(1,3,4,9-tetrahydropyrido[3,4-b]indol-2-ylmethyl)phenyl]methanone

> <PUBCHEM_IUPAC_NAME>
2,3-dihydroindol-1-yl-[3-(1,3,4,9-tetrahydropyrido[3,4-b]indol-2-ylmethyl)phenyl]methanone

> <PUBCHEM_IUPAC_SYSTEMATIC_NAME>
2,3-dihydroindol-1-yl-[3-(1,3,4,9-tetrahydropyrido[3,4-b]indol-2-ylmethyl)phenyl]methanone

> <PUBCHEM_IUPAC_TRADITIONAL_NAME>
indolin-1-yl-[3-(1,3,4,9-tetrahydro-beta-carbolin-2-ylmethyl)phenyl]methanone

> <PUBCHEM_IUPAC_INCHI>
InChI=1S/C27H25N3O/c31-27(30-15-12-20-7-1-4-11-26(20)30)21-8-5-6-19(16-21)17-29-14-13-23-22-9-2-3-10-24(22)28-25(23)18-29/h1-11,16,28H,12-15,17-18H2

> <PUBCHEM_IUPAC_INCHIKEY>
PDBBHWHTQRCWFH-UHFFFAOYSA-N

> <PUBCHEM_XLOGP3_AA>
4.5

> <PUBCHEM_EXACT_MASS>
407.199762429

> <PUBCHEM_MOLECULAR_FORMULA>
C27H25N3O

> <PUBCHEM_MOLECULAR_WEIGHT>
407.5

> <PUBCHEM_OPENEYE_CAN_SMILES>
C1CN(C2=CC=CC=C21)C(=O)C3=CC=CC(=C3)CN4CCC5=C(C4)NC6=CC=CC=C56

> <PUBCHEM_OPENEYE_ISO_SMILES>
C1CN(C2=CC=CC=C21)C(=O)C3=CC=CC(=C3)CN4CCC5=C(C4)NC6=CC=CC=C56

> <PUBCHEM_CACTVS_TPSA>
39.3

> <PUBCHEM_MONOISOTOPIC_WEIGHT>
407.199762429

> <PUBCHEM_TOTAL_CHARGE>
0

> <PUBCHEM_HEAVY_ATOM_COUNT>
31

> <PUBCHEM_ATOM_DEF_STEREO_COUNT>
0

> <PUBCHEM_ATOM_UDEF_STEREO_COUNT>
0

> <PUBCHEM_BOND_DEF_STEREO_COUNT>
0

> <PUBCHEM_BOND_UDEF_STEREO_COUNT>
0

> <PUBCHEM_ISOTOPIC_ATOM_COUNT>
0

> <PUBCHEM_COMPONENT_COUNT>
1

> <PUBCHEM_CACTVS_TAUTO_COUNT>
-1

> <PUBCHEM_COORDINATE_TYPE>
1
5
255

> <PUBCHEM_BONDANNOTATIONS>
10  12  8
10  15  8
12  19  8
13  20  8
13  23  8
15  24  8
17  18  8
17  26  8
18  27  8
19  25  8
20  21  8
21  28  8
23  29  8
24  25  8
26  30  8
27  31  8
28  29  8
3  12  8
3  8  8
30  31  8
5  10  8
5  8  8

$$$$
