145967904
  -OEChem-09292322382D

 43 44  0     1  0  0  0  0  0999 V2000
    2.0000   -4.5433    0.0000 O   0  0  0  0  0  0  0  0  0  0  0  0
    3.2320   -0.0044    0.0000 N   0  0  3  0  0  0  0  0  0  0  0  0
    3.7320   -1.5433    0.0000 C   0  0  3  0  0  0  0  0  0  0  0  0
    2.9230   -0.9555    0.0000 C   0  0  0  0  0  0  0  0  0  0  0  0
    4.5411   -0.9555    0.0000 C   0  0  0  0  0  0  0  0  0  0  0  0
    4.2320   -0.0044    0.0000 C   0  0  0  0  0  0  0  0  0  0  0  0
    2.6443    0.8046    0.0000 C   0  0  0  0  0  0  0  0  0  0  0  0
    3.7320   -2.5433    0.0000 C   0  0  0  0  0  0  0  0  0  0  0  0
    3.0510    1.7181    0.0000 C   0  0  0  0  0  0  0  0  0  0  0  0
    2.4632    2.5272    0.0000 C   0  0  0  0  0  0  0  0  0  0  0  0
    2.8660   -3.0433    0.0000 C   0  0  0  0  0  0  0  0  0  0  0  0
    2.8699    3.4407    0.0000 C   0  0  0  0  0  0  0  0  0  0  0  0
    4.5981   -3.0433    0.0000 C   0  0  0  0  0  0  0  0  0  0  0  0
    2.2822    4.2497    0.0000 C   0  0  0  0  0  0  0  0  0  0  0  0
    2.8660   -4.0433    0.0000 C   0  0  0  0  0  0  0  0  0  0  0  0
    4.5981   -4.0433    0.0000 C   0  0  0  0  0  0  0  0  0  0  0  0
    3.7320   -4.5433    0.0000 C   0  0  0  0  0  0  0  0  0  0  0  0
    2.6889    5.1633    0.0000 C   0  0  0  0  0  0  0  0  0  0  0  0
    4.2845   -1.8247    0.0000 H   0  0  0  0  0  0  0  0  0  0  0  0
    2.3566   -0.7033    0.0000 H   0  0  0  0  0  0  0  0  0  0  0  0
    2.6130   -1.4924    0.0000 H   0  0  0  0  0  0  0  0  0  0  0  0
    4.8511   -1.4924    0.0000 H   0  0  0  0  0  0  0  0  0  0  0  0
    5.1075   -0.7033    0.0000 H   0  0  0  0  0  0  0  0  0  0  0  0
    4.8385    0.1245    0.0000 H   0  0  0  0  0  0  0  0  0  0  0  0
    4.1672    0.6122    0.0000 H   0  0  0  0  0  0  0  0  0  0  0  0
    2.1303    1.1513    0.0000 H   0  0  0  0  0  0  0  0  0  0  0  0
    2.2136    0.3586    0.0000 H   0  0  0  0  0  0  0  0  0  0  0  0
    3.5650    1.3714    0.0000 H   0  0  0  0  0  0  0  0  0  0  0  0
    3.4817    2.1641    0.0000 H   0  0  0  0  0  0  0  0  0  0  0  0
    1.9492    2.8739    0.0000 H   0  0  0  0  0  0  0  0  0  0  0  0
    2.0325    2.0812    0.0000 H   0  0  0  0  0  0  0  0  0  0  0  0
    3.3840    3.0940    0.0000 H   0  0  0  0  0  0  0  0  0  0  0  0
    3.3006    3.8867    0.0000 H   0  0  0  0  0  0  0  0  0  0  0  0
    2.3291   -2.7333    0.0000 H   0  0  0  0  0  0  0  0  0  0  0  0
    5.1350   -2.7333    0.0000 H   0  0  0  0  0  0  0  0  0  0  0  0
    1.7682    4.5964    0.0000 H   0  0  0  0  0  0  0  0  0  0  0  0
    1.8515    3.8037    0.0000 H   0  0  0  0  0  0  0  0  0  0  0  0
    5.1350   -4.3533    0.0000 H   0  0  0  0  0  0  0  0  0  0  0  0
    3.7320   -5.1633    0.0000 H   0  0  0  0  0  0  0  0  0  0  0  0
    3.2553    4.9111    0.0000 H   0  0  0  0  0  0  0  0  0  0  0  0
    2.9411    5.7297    0.0000 H   0  0  0  0  0  0  0  0  0  0  0  0
    2.1225    5.4154    0.0000 H   0  0  0  0  0  0  0  0  0  0  0  0
    2.0000   -5.1633    0.0000 H   0  0  0  0  0  0  0  0  0  0  0  0
  1 15  1  0  0  0  0
  1 43  1  0  0  0  0
  2  4  1  0  0  0  0
  2  6  1  0  0  0  0
  2  7  1  0  0  0  0
  3  4  1  0  0  0  0
  3  5  1  0  0  0  0
  3  8  1  0  0  0  0
  3 19  1  0  0  0  0
  4 20  1  0  0  0  0
  4 21  1  0  0  0  0
  5  6  1  0  0  0  0
  5 22  1  0  0  0  0
  5 23  1  0  0  0  0
  6 24  1  0  0  0  0
  6 25  1  0  0  0  0
  7  9  1  0  0  0  0
  7 26  1  0  0  0  0
  7 27  1  0  0  0  0
  8 11  2  0  0  0  0
  8 13  1  0  0  0  0
  9 10  1  0  0  0  0
  9 28  1  0  0  0  0
  9 29  1  0  0  0  0
 10 12  1  0  0  0  0
 10 30  1  0  0  0  0
 10 31  1  0  0  0  0
 11 15  1  0  0  0  0
 11 34  1  0  0  0  0
 12 14  1  0  0  0  0
 12 32  1  0  0  0  0
 12 33  1  0  0  0  0
 13 16  2  0  0  0  0
 13 35  1  0  0  0  0
 14 18  1  0  0  0  0
 14 36  1  0  0  0  0
 14 37  1  0  0  0  0
 15 17  2  0  0  0  0
 16 17  1  0  0  0  0
 16 38  1  0  0  0  0
 17 39  1  0  0  0  0
 18 40  1  0  0  0  0
 18 41  1  0  0  0  0
 18 42  1  0  0  0  0
M  END
> <PUBCHEM_COMPOUND_CID>
145967904

> <PUBCHEM_COMPOUND_CANONICALIZED>
1

> <PUBCHEM_CACTVS_COMPLEXITY>
231

> <PUBCHEM_CACTVS_HBOND_ACCEPTOR>
2

> <PUBCHEM_CACTVS_HBOND_DONOR>
1

> <PUBCHEM_CACTVS_ROTATABLE_BOND>
6

> <PUBCHEM_CACTVS_SUBSKEYS>
AAADceB6IAAAAAAAAAAAAAAAAAAAAWAAAAAwAAAAAAAAAAABAAAAHgAACAAADQTBmAQyBoMAAgCAAiBCAAACAAAgIAAIiAAOCIgIJiKCkROEcAAkwBGImAeQ0PIOgAABAAAAAAAAAAIAAAAAAAAAAAAAAA==

> <PUBCHEM_IUPAC_OPENEYE_NAME>
3-(1-hexylpyrrolidin-3-yl)phenol

> <PUBCHEM_IUPAC_CAS_NAME>
3-(1-hexyl-3-pyrrolidinyl)phenol

> <PUBCHEM_IUPAC_NAME_MARKUP>
3-(1-hexylpyrrolidin-3-yl)phenol

> <PUBCHEM_IUPAC_NAME>
3-(1-hexylpyrrolidin-3-yl)phenol

> <PUBCHEM_IUPAC_SYSTEMATIC_NAME>
3-(1-hexylpyrrolidin-3-yl)phenol

> <PUBCHEM_IUPAC_TRADITIONAL_NAME>
3-(1-hexylpyrrolidin-3-yl)phenol

> <PUBCHEM_IUPAC_INCHI>
InChI=1S/C16H25NO/c1-2-3-4-5-10-17-11-9-15(13-17)14-7-6-8-16(18)12-14/h6-8,12,15,18H,2-5,9-11,13H2,1H3

> <PUBCHEM_IUPAC_INCHIKEY>
OIDVIVFTQMTONJ-UHFFFAOYSA-N

> <PUBCHEM_XLOGP3_AA>
4.1

> <PUBCHEM_EXACT_MASS>
247.193614421

> <PUBCHEM_MOLECULAR_FORMULA>
C16H25NO

> <PUBCHEM_MOLECULAR_WEIGHT>
247.38

> <PUBCHEM_OPENEYE_CAN_SMILES>
CCCCCCN1CCC(C1)C2=CC(=CC=C2)O

> <PUBCHEM_OPENEYE_ISO_SMILES>
CCCCCCN1CCC(C1)C2=CC(=CC=C2)O

> <PUBCHEM_CACTVS_TPSA>
23.5

> <PUBCHEM_MONOISOTOPIC_WEIGHT>
247.193614421

> <PUBCHEM_TOTAL_CHARGE>
0

> <PUBCHEM_HEAVY_ATOM_COUNT>
18

> <PUBCHEM_ATOM_DEF_STEREO_COUNT>
0

> <PUBCHEM_ATOM_UDEF_STEREO_COUNT>
1

> <PUBCHEM_BOND_DEF_STEREO_COUNT>
0

> <PUBCHEM_BOND_UDEF_STEREO_COUNT>
0

> <PUBCHEM_ISOTOPIC_ATOM_COUNT>
0

> <PUBCHEM_COMPONENT_COUNT>
1

> <PUBCHEM_CACTVS_TAUTO_COUNT>
-1

> <PUBCHEM_COORDINATE_TYPE>
1
5
255

> <PUBCHEM_BONDANNOTATIONS>
11  15  8
13  16  8
15  17  8
16  17  8
3  8  3
8  11  8
8  13  8

$$$$
