98358
  -OEChem-09292322482D

 35 38  0     1  0  0  0  0  0999 V2000
    6.9654    0.3852    0.0000 N   0  0  3  0  0  0  0  0  0  0  0  0
    4.5124   -0.7323    0.0000 N   0  0  0  0  0  0  0  0  0  0  0  0
    6.2962   -0.3580    0.0000 C   0  0  3  0  0  0  0  0  0  0  0  0
    6.6028   -1.3535    0.0000 C   0  0  0  0  0  0  0  0  0  0  0  0
    5.3181   -0.1501    0.0000 C   0  0  0  0  0  0  0  0  0  0  0  0
    6.6564    1.3362    0.0000 C   0  0  0  0  0  0  0  0  0  0  0  0
    7.9875    0.1843    0.0000 C   0  0  0  0  0  0  0  0  0  0  0  0
    7.6200   -1.5779    0.0000 C   0  0  0  0  0  0  0  0  0  0  0  0
    5.0091    0.8010    0.0000 C   0  0  0  0  0  0  0  0  0  0  0  0
    8.3170   -0.8038    0.0000 C   0  0  0  0  0  0  0  0  0  0  0  0
    5.6782    1.5441    0.0000 C   0  0  0  0  0  0  0  0  0  0  0  0
    4.0150    0.7984    0.0000 C   0  0  0  0  0  0  0  0  0  0  0  0
    3.7086   -0.1473    0.0000 C   0  0  0  0  0  0  0  0  0  0  0  0
    3.3334    1.5779    0.0000 C   0  0  0  0  0  0  0  0  0  0  0  0
    2.6994   -0.3790    0.0000 C   0  0  0  0  0  0  0  0  0  0  0  0
    2.3191    1.3696    0.0000 C   0  0  0  0  0  0  0  0  0  0  0  0
    2.0000    0.3845    0.0000 C   0  0  0  0  0  0  0  0  0  0  0  0
    5.8778   -0.8155    0.0000 H   0  0  0  0  0  0  0  0  0  0  0  0
    5.9878   -1.4319    0.0000 H   0  0  0  0  0  0  0  0  0  0  0  0
    6.5748   -1.9728    0.0000 H   0  0  0  0  0  0  0  0  0  0  0  0
    7.2703    1.4225    0.0000 H   0  0  0  0  0  0  0  0  0  0  0  0
    6.6780    1.9558    0.0000 H   0  0  0  0  0  0  0  0  0  0  0  0
    8.6005    0.2769    0.0000 H   0  0  0  0  0  0  0  0  0  0  0  0
    8.0011    0.8042    0.0000 H   0  0  0  0  0  0  0  0  0  0  0  0
    7.3848   -2.1516    0.0000 H   0  0  0  0  0  0  0  0  0  0  0  0
    8.1449   -1.9078    0.0000 H   0  0  0  0  0  0  0  0  0  0  0  0
    5.9105    2.1190    0.0000 H   0  0  0  0  0  0  0  0  0  0  0  0
    5.1524    1.8727    0.0000 H   0  0  0  0  0  0  0  0  0  0  0  0
    8.6999   -1.2914    0.0000 H   0  0  0  0  0  0  0  0  0  0  0  0
    8.8629   -0.5099    0.0000 H   0  0  0  0  0  0  0  0  0  0  0  0
    4.5113   -1.3523    0.0000 H   0  0  0  0  0  0  0  0  0  0  0  0
    3.5313    2.1655    0.0000 H   0  0  0  0  0  0  0  0  0  0  0  0
    2.5152   -0.9710    0.0000 H   0  0  0  0  0  0  0  0  0  0  0  0
    1.9056    1.8315    0.0000 H   0  0  0  0  0  0  0  0  0  0  0  0
    1.3942    0.2527    0.0000 H   0  0  0  0  0  0  0  0  0  0  0  0
  1  3  1  0  0  0  0
  1  6  1  0  0  0  0
  1  7  1  0  0  0  0
  2  5  1  0  0  0  0
  2 13  1  0  0  0  0
  2 31  1  0  0  0  0
  3  4  1  0  0  0  0
  3  5  1  0  0  0  0
  3 18  1  0  0  0  0
  4  8  1  0  0  0  0
  4 19  1  0  0  0  0
  4 20  1  0  0  0  0
  5  9  2  0  0  0  0
  6 11  1  0  0  0  0
  6 21  1  0  0  0  0
  6 22  1  0  0  0  0
  7 10  1  0  0  0  0
  7 23  1  0  0  0  0
  7 24  1  0  0  0  0
  8 10  1  0  0  0  0
  8 25  1  0  0  0  0
  8 26  1  0  0  0  0
  9 11  1  0  0  0  0
  9 12  1  0  0  0  0
 10 29  1  0  0  0  0
 10 30  1  0  0  0  0
 11 27  1  0  0  0  0
 11 28  1  0  0  0  0
 12 13  1  0  0  0  0
 12 14  2  0  0  0  0
 13 15  2  0  0  0  0
 14 16  1  0  0  0  0
 14 32  1  0  0  0  0
 15 17  1  0  0  0  0
 15 33  1  0  0  0  0
 16 17  2  0  0  0  0
 16 34  1  0  0  0  0
 17 35  1  0  0  0  0
M  END
> <PUBCHEM_COMPOUND_CID>
98358

> <PUBCHEM_COMPOUND_CANONICALIZED>
1

> <PUBCHEM_CACTVS_COMPLEXITY>
291

> <PUBCHEM_CACTVS_HBOND_ACCEPTOR>
1

> <PUBCHEM_CACTVS_HBOND_DONOR>
1

> <PUBCHEM_CACTVS_ROTATABLE_BOND>
0

> <PUBCHEM_CACTVS_SUBSKEYS>
AAADceBzAAAAAAAAAAAAAAAAAAAAAWAAAAA8WIAAAAAAAFix8AAAHAAQAAAADCjBHgQwwPPJkACgAyRiRACCgCAhAiAImSA4ZJgIYOLAkZGUIAhgkADIyAcQgMAOgAAAAAACAAAAAAAAAAQAAAAAAAAAAA==

> <PUBCHEM_IUPAC_OPENEYE_NAME>
1,2,3,4,6,7,12,12b-octahydroindolo[2,3-a]quinolizine

> <PUBCHEM_IUPAC_CAS_NAME>
1,2,3,4,6,7,12,12b-octahydroindolo[2,3-a]quinolizine

> <PUBCHEM_IUPAC_NAME_MARKUP>
1,2,3,4,6,7,12,12<I>b</I>-octahydroindolo[2,3-a]quinolizine

> <PUBCHEM_IUPAC_NAME>
1,2,3,4,6,7,12,12b-octahydroindolo[2,3-a]quinolizine

> <PUBCHEM_IUPAC_SYSTEMATIC_NAME>
1,2,3,4,6,7,12,12b-octahydroindolo[2,3-a]quinolizine

> <PUBCHEM_IUPAC_TRADITIONAL_NAME>
1,2,3,4,6,7,12,12b-octahydropyrido[2,1-a]beta-carboline

> <PUBCHEM_IUPAC_INCHI>
InChI=1S/C15H18N2/c1-2-6-13-11(5-1)12-8-10-17-9-4-3-7-14(17)15(12)16-13/h1-2,5-6,14,16H,3-4,7-10H2

> <PUBCHEM_IUPAC_INCHIKEY>
OURDZMSSMGUMKR-UHFFFAOYSA-N

> <PUBCHEM_XLOGP3_AA>
2.8

> <PUBCHEM_EXACT_MASS>
226.146998583

> <PUBCHEM_MOLECULAR_FORMULA>
C15H18N2

> <PUBCHEM_MOLECULAR_WEIGHT>
226.32

> <PUBCHEM_OPENEYE_CAN_SMILES>
C1CCN2CCC3=C(C2C1)NC4=CC=CC=C34

> <PUBCHEM_OPENEYE_ISO_SMILES>
C1CCN2CCC3=C(C2C1)NC4=CC=CC=C34

> <PUBCHEM_CACTVS_TPSA>
19

> <PUBCHEM_MONOISOTOPIC_WEIGHT>
226.146998583

> <PUBCHEM_TOTAL_CHARGE>
0

> <PUBCHEM_HEAVY_ATOM_COUNT>
17

> <PUBCHEM_ATOM_DEF_STEREO_COUNT>
0

> <PUBCHEM_ATOM_UDEF_STEREO_COUNT>
1

> <PUBCHEM_BOND_DEF_STEREO_COUNT>
0

> <PUBCHEM_BOND_UDEF_STEREO_COUNT>
0

> <PUBCHEM_ISOTOPIC_ATOM_COUNT>
0

> <PUBCHEM_COMPONENT_COUNT>
1

> <PUBCHEM_CACTVS_TAUTO_COUNT>
1

> <PUBCHEM_COORDINATE_TYPE>
1
5
255

> <PUBCHEM_BONDANNOTATIONS>
12  13  8
12  14  8
13  15  8
14  16  8
15  17  8
16  17  8
2  13  8
2  5  8
3  4  3
5  9  8
9  12  8

$$$$
