164608879
  -OEChem-09292322432D

 62 64  0     1  0  0  0  0  0999 V2000
    7.6962   -3.6830    0.0000 O   0  0  0  0  0  0  0  0  0  0  0  0
    4.5981    4.6830    0.0000 O   0  0  0  0  0  0  0  0  0  0  0  0
    8.0622   -0.3170    0.0000 N   0  0  0  0  0  0  0  0  0  0  0  0
    3.7320    3.1830    0.0000 N   0  0  0  0  0  0  0  0  0  0  0  0
    2.8660    4.6830    0.0000 N   0  0  0  0  0  0  0  0  0  0  0  0
    8.9282   -1.8170    0.0000 C   0  0  3  0  0  0  0  0  0  0  0  0
    9.4282   -2.6830    0.0000 C   0  0  3  0  0  0  0  0  0  0  0  0
    9.9282   -1.8170    0.0000 C   0  0  0  0  0  0  0  0  0  0  0  0
    8.0622   -1.3170    0.0000 C   0  0  0  0  0  0  0  0  0  0  0  0
    9.4282   -3.6830    0.0000 C   0  0  0  0  0  0  0  0  0  0  0  0
    6.3301    1.6830    0.0000 C   0  0  0  0  0  0  0  0  0  0  0  0
    7.1962    1.1830    0.0000 C   0  0  0  0  0  0  0  0  0  0  0  0
    5.4641    1.1830    0.0000 C   0  0  0  0  0  0  0  0  0  0  0  0
    6.3301    2.6830    0.0000 C   0  0  0  0  0  0  0  0  0  0  0  0
    7.1962    0.1830    0.0000 C   0  0  0  0  0  0  0  0  0  0  0  0
    4.5981    2.6830    0.0000 C   0  0  0  0  0  0  0  0  0  0  0  0
    4.5981    1.6830    0.0000 C   0  0  0  0  0  0  0  0  0  0  0  0
    5.4641    3.1830    0.0000 C   0  0  0  0  0  0  0  0  0  0  0  0
    8.5622   -4.1830    0.0000 C   0  0  0  0  0  0  0  0  0  0  0  0
   10.2942   -4.1830    0.0000 C   0  0  0  0  0  0  0  0  0  0  0  0
    8.5622   -5.1830    0.0000 C   0  0  0  0  0  0  0  0  0  0  0  0
   10.2942   -5.1830    0.0000 C   0  0  0  0  0  0  0  0  0  0  0  0
    9.4282   -5.6830    0.0000 C   0  0  0  0  0  0  0  0  0  0  0  0
    3.7320    4.1830    0.0000 C   0  0  0  0  0  0  0  0  0  0  0  0
    6.8301   -4.1830    0.0000 C   0  0  0  0  0  0  0  0  0  0  0  0
    2.8660    5.6830    0.0000 C   0  0  0  0  0  0  0  0  0  0  0  0
    2.0000    4.1830    0.0000 C   0  0  0  0  0  0  0  0  0  0  0  0
    9.0887   -1.2181    0.0000 H   0  0  0  0  0  0  0  0  0  0  0  0
   10.0271   -2.8435    0.0000 H   0  0  0  0  0  0  0  0  0  0  0  0
   10.5108   -2.0290    0.0000 H   0  0  0  0  0  0  0  0  0  0  0  0
   10.0359   -1.2064    0.0000 H   0  0  0  0  0  0  0  0  0  0  0  0
    7.4516   -1.2093    0.0000 H   0  0  0  0  0  0  0  0  0  0  0  0
    7.8501   -1.8996    0.0000 H   0  0  0  0  0  0  0  0  0  0  0  0
    6.8671    1.9930    0.0000 H   0  0  0  0  0  0  0  0  0  0  0  0
    8.5991   -0.0070    0.0000 H   0  0  0  0  0  0  0  0  0  0  0  0
    7.8067    1.0754    0.0000 H   0  0  0  0  0  0  0  0  0  0  0  0
    7.4082    1.7656    0.0000 H   0  0  0  0  0  0  0  0  0  0  0  0
    5.0656    0.7081    0.0000 H   0  0  0  0  0  0  0  0  0  0  0  0
    5.8626    0.7081    0.0000 H   0  0  0  0  0  0  0  0  0  0  0  0
    6.9407    2.5753    0.0000 H   0  0  0  0  0  0  0  0  0  0  0  0
    6.5422    3.2656    0.0000 H   0  0  0  0  0  0  0  0  0  0  0  0
    6.5856    0.2907    0.0000 H   0  0  0  0  0  0  0  0  0  0  0  0
    6.9841   -0.3996    0.0000 H   0  0  0  0  0  0  0  0  0  0  0  0
    4.5981    3.3030    0.0000 H   0  0  0  0  0  0  0  0  0  0  0  0
    3.9875    1.7907    0.0000 H   0  0  0  0  0  0  0  0  0  0  0  0
    4.3860    1.1004    0.0000 H   0  0  0  0  0  0  0  0  0  0  0  0
    5.8626    3.6580    0.0000 H   0  0  0  0  0  0  0  0  0  0  0  0
    5.0656    3.6580    0.0000 H   0  0  0  0  0  0  0  0  0  0  0  0
   10.8312   -3.8730    0.0000 H   0  0  0  0  0  0  0  0  0  0  0  0
    3.1951    2.8730    0.0000 H   0  0  0  0  0  0  0  0  0  0  0  0
    8.0252   -5.4930    0.0000 H   0  0  0  0  0  0  0  0  0  0  0  0
   10.8312   -5.4930    0.0000 H   0  0  0  0  0  0  0  0  0  0  0  0
    9.4282   -6.3030    0.0000 H   0  0  0  0  0  0  0  0  0  0  0  0
    6.5201   -3.6461    0.0000 H   0  0  0  0  0  0  0  0  0  0  0  0
    6.2932   -4.4930    0.0000 H   0  0  0  0  0  0  0  0  0  0  0  0
    7.1401   -4.7200    0.0000 H   0  0  0  0  0  0  0  0  0  0  0  0
    3.4860    5.6830    0.0000 H   0  0  0  0  0  0  0  0  0  0  0  0
    2.8660    6.3030    0.0000 H   0  0  0  0  0  0  0  0  0  0  0  0
    2.2460    5.6830    0.0000 H   0  0  0  0  0  0  0  0  0  0  0  0
    1.6900    4.7200    0.0000 H   0  0  0  0  0  0  0  0  0  0  0  0
    1.4631    3.8730    0.0000 H   0  0  0  0  0  0  0  0  0  0  0  0
    2.3100    3.6461    0.0000 H   0  0  0  0  0  0  0  0  0  0  0  0
  1 19  1  0  0  0  0
  1 25  1  0  0  0  0
  2 24  2  0  0  0  0
  3  9  1  0  0  0  0
  3 15  1  0  0  0  0
  3 35  1  0  0  0  0
  4 16  1  0  0  0  0
  4 24  1  0  0  0  0
  4 50  1  0  0  0  0
  5 24  1  0  0  0  0
  5 26  1  0  0  0  0
  5 27  1  0  0  0  0
  6  7  1  0  0  0  0
  6  8  1  0  0  0  0
  6  9  1  0  0  0  0
  6 28  1  0  0  0  0
  7  8  1  0  0  0  0
  7 10  1  0  0  0  0
  7 29  1  0  0  0  0
  8 30  1  0  0  0  0
  8 31  1  0  0  0  0
  9 32  1  0  0  0  0
  9 33  1  0  0  0  0
 10 19  1  0  0  0  0
 10 20  2  0  0  0  0
 11 12  1  0  0  0  0
 11 13  1  0  0  0  0
 11 14  1  0  0  0  0
 11 34  1  0  0  0  0
 12 15  1  0  0  0  0
 12 36  1  0  0  0  0
 12 37  1  0  0  0  0
 13 17  1  0  0  0  0
 13 38  1  0  0  0  0
 13 39  1  0  0  0  0
 14 18  1  0  0  0  0
 14 40  1  0  0  0  0
 14 41  1  0  0  0  0
 15 42  1  0  0  0  0
 15 43  1  0  0  0  0
 16 17  1  0  0  0  0
 16 18  1  0  0  0  0
 16 44  1  0  0  0  0
 17 45  1  0  0  0  0
 17 46  1  0  0  0  0
 18 47  1  0  0  0  0
 18 48  1  0  0  0  0
 19 21  2  0  0  0  0
 20 22  1  0  0  0  0
 20 49  1  0  0  0  0
 21 23  1  0  0  0  0
 21 51  1  0  0  0  0
 22 23  2  0  0  0  0
 22 52  1  0  0  0  0
 23 53  1  0  0  0  0
 25 54  1  0  0  0  0
 25 55  1  0  0  0  0
 25 56  1  0  0  0  0
 26 57  1  0  0  0  0
 26 58  1  0  0  0  0
 26 59  1  0  0  0  0
 27 60  1  0  0  0  0
 27 61  1  0  0  0  0
 27 62  1  0  0  0  0
M  END
> <PUBCHEM_COMPOUND_CID>
164608879

> <PUBCHEM_COMPOUND_CANONICALIZED>
1

> <PUBCHEM_CACTVS_COMPLEXITY>
463

> <PUBCHEM_CACTVS_HBOND_ACCEPTOR>
3

> <PUBCHEM_CACTVS_HBOND_DONOR>
2

> <PUBCHEM_CACTVS_ROTATABLE_BOND>
8

> <PUBCHEM_CACTVS_SUBSKEYS>
AAADcfB7MAAAAAAAAAAAAAAAGAAAAAAAAAAwYAAAAAAAAAABAAAAHgAQAAAADSzBmAYzBoPABACIAiBCEAACCAAgIAAIiIAOCIiMJiKEsRqEMCAs1hOIqAeQ0OIOgAAAAAAIAAAQAAAAABAAAAAAAAAAAA==

> <PUBCHEM_IUPAC_OPENEYE_NAME>
3-[4-[2-[[2-(2-methoxyphenyl)cyclopropyl]methylamino]ethyl]cyclohexyl]-1,1-dimethyl-urea

> <PUBCHEM_IUPAC_CAS_NAME>
3-[4-[2-[[2-(2-methoxyphenyl)cyclopropyl]methylamino]ethyl]cyclohexyl]-1,1-dimethylurea

> <PUBCHEM_IUPAC_NAME_MARKUP>
3-[4-[2-[[2-(2-methoxyphenyl)cyclopropyl]methylamino]ethyl]cyclohexyl]-1,1-dimethylurea

> <PUBCHEM_IUPAC_NAME>
3-[4-[2-[[2-(2-methoxyphenyl)cyclopropyl]methylamino]ethyl]cyclohexyl]-1,1-dimethylurea

> <PUBCHEM_IUPAC_SYSTEMATIC_NAME>
3-[4-[2-[[2-(2-methoxyphenyl)cyclopropyl]methylamino]ethyl]cyclohexyl]-1,1-dimethyl-urea

> <PUBCHEM_IUPAC_TRADITIONAL_NAME>
3-[4-[2-[[2-(2-methoxyphenyl)cyclopropyl]methylamino]ethyl]cyclohexyl]-1,1-dimethyl-urea

> <PUBCHEM_IUPAC_INCHI>
InChI=1S/C22H35N3O2/c1-25(2)22(26)24-18-10-8-16(9-11-18)12-13-23-15-17-14-20(17)19-6-4-5-7-21(19)27-3/h4-7,16-18,20,23H,8-15H2,1-3H3,(H,24,26)

> <PUBCHEM_IUPAC_INCHIKEY>
GMYFBVQGIPPIPJ-UHFFFAOYSA-N

> <PUBCHEM_XLOGP3_AA>
3.1

> <PUBCHEM_EXACT_MASS>
373.27292737

> <PUBCHEM_MOLECULAR_FORMULA>
C22H35N3O2

> <PUBCHEM_MOLECULAR_WEIGHT>
373.5

> <PUBCHEM_OPENEYE_CAN_SMILES>
CN(C)C(=O)NC1CCC(CC1)CCNCC2CC2C3=CC=CC=C3OC

> <PUBCHEM_OPENEYE_ISO_SMILES>
CN(C)C(=O)NC1CCC(CC1)CCNCC2CC2C3=CC=CC=C3OC

> <PUBCHEM_CACTVS_TPSA>
53.6

> <PUBCHEM_MONOISOTOPIC_WEIGHT>
373.27292737

> <PUBCHEM_TOTAL_CHARGE>
0

> <PUBCHEM_HEAVY_ATOM_COUNT>
27

> <PUBCHEM_ATOM_DEF_STEREO_COUNT>
0

> <PUBCHEM_ATOM_UDEF_STEREO_COUNT>
2

> <PUBCHEM_BOND_DEF_STEREO_COUNT>
0

> <PUBCHEM_BOND_UDEF_STEREO_COUNT>
0

> <PUBCHEM_ISOTOPIC_ATOM_COUNT>
0

> <PUBCHEM_COMPONENT_COUNT>
1

> <PUBCHEM_CACTVS_TAUTO_COUNT>
-1

> <PUBCHEM_COORDINATE_TYPE>
1
5
255

> <PUBCHEM_BONDANNOTATIONS>
10  19  8
10  20  8
19  21  8
20  22  8
21  23  8
22  23  8
6  9  3
7  10  3

$$$$
