45261726
  -OEChem-09292322132D

 51 53  0     1  0  0  0  0  0999 V2000
    4.9980    0.0000    0.0000 Cl  0  0  0  0  0  0  0  0  0  0  0  0
    0.0000    5.1386    0.0000 F   0  0  0  0  0  0  0  0  0  0  0  0
    7.7942    3.6386    0.0000 O   0  0  0  0  0  0  0  0  0  0  0  0
    4.3301    3.6386    0.0000 N   0  0  0  0  0  0  0  0  0  0  0  0
    6.0622    4.6386    0.0000 C   0  0  0  0  0  0  0  0  0  0  0  0
    6.9282    5.1386    0.0000 C   0  0  3  0  0  0  0  0  0  0  0  0
    6.0622    3.6386    0.0000 C   0  0  0  0  0  0  0  0  0  0  0  0
    5.1962    5.1386    0.0000 C   0  0  0  0  0  0  0  0  0  0  0  0
    5.1962    3.1386    0.0000 C   0  0  0  0  0  0  0  0  0  0  0  0
    4.3301    4.6386    0.0000 C   0  0  0  0  0  0  0  0  0  0  0  0
    6.9282    6.1386    0.0000 C   0  0  0  0  0  0  0  0  0  0  0  0
    7.7942    4.6386    0.0000 C   0  0  0  0  0  0  0  0  0  0  0  0
    7.7942    6.6386    0.0000 C   0  0  0  0  0  0  0  0  0  0  0  0
    8.6602    5.1386    0.0000 C   0  0  0  0  0  0  0  0  0  0  0  0
    8.6602    6.1386    0.0000 C   0  0  0  0  0  0  0  0  0  0  0  0
    3.4641    3.1386    0.0000 C   0  0  0  0  0  0  0  0  0  0  0  0
    9.5542    4.6039    0.0000 C   0  0  0  0  0  0  0  0  0  0  0  0
    2.5981    3.6386    0.0000 C   0  0  0  0  0  0  0  0  0  0  0  0
    9.5542    6.6732    0.0000 C   0  0  0  0  0  0  0  0  0  0  0  0
   10.4603    5.1178    0.0000 C   0  0  0  0  0  0  0  0  0  0  0  0
   10.4603    6.1594    0.0000 C   0  0  0  0  0  0  0  0  0  0  0  0
    1.7320    3.1386    0.0000 C   0  0  0  0  0  0  0  0  0  0  0  0
    2.5981    4.6386    0.0000 C   0  0  0  0  0  0  0  0  0  0  0  0
    0.8660    3.6386    0.0000 C   0  0  0  0  0  0  0  0  0  0  0  0
    1.7320    5.1386    0.0000 C   0  0  0  0  0  0  0  0  0  0  0  0
    0.8660    4.6386    0.0000 C   0  0  0  0  0  0  0  0  0  0  0  0
    6.0622    5.2586    0.0000 H   0  0  0  0  0  0  0  0  0  0  0  0
    6.9282    4.5186    0.0000 H   0  0  0  0  0  0  0  0  0  0  0  0
    6.2742    3.0560    0.0000 H   0  0  0  0  0  0  0  0  0  0  0  0
    6.6728    3.7462    0.0000 H   0  0  0  0  0  0  0  0  0  0  0  0
    5.5947    5.6135    0.0000 H   0  0  0  0  0  0  0  0  0  0  0  0
    4.7976    5.6135    0.0000 H   0  0  0  0  0  0  0  0  0  0  0  0
    4.7976    2.6636    0.0000 H   0  0  0  0  0  0  0  0  0  0  0  0
    5.5947    2.6636    0.0000 H   0  0  0  0  0  0  0  0  0  0  0  0
    4.1181    5.2212    0.0000 H   0  0  0  0  0  0  0  0  0  0  0  0
    3.7196    4.5309    0.0000 H   0  0  0  0  0  0  0  0  0  0  0  0
    6.7162    6.7212    0.0000 H   0  0  0  0  0  0  0  0  0  0  0  0
    6.3176    6.0309    0.0000 H   0  0  0  0  0  0  0  0  0  0  0  0
    8.1928    7.1135    0.0000 H   0  0  0  0  0  0  0  0  0  0  0  0
    7.3957    7.1135    0.0000 H   0  0  0  0  0  0  0  0  0  0  0  0
    3.0656    2.6636    0.0000 H   0  0  0  0  0  0  0  0  0  0  0  0
    3.8626    2.6636    0.0000 H   0  0  0  0  0  0  0  0  0  0  0  0
    9.5470    3.9840    0.0000 H   0  0  0  0  0  0  0  0  0  0  0  0
    9.5470    7.2932    0.0000 H   0  0  0  0  0  0  0  0  0  0  0  0
   10.9960    4.8057    0.0000 H   0  0  0  0  0  0  0  0  0  0  0  0
   10.9960    6.4715    0.0000 H   0  0  0  0  0  0  0  0  0  0  0  0
    1.7320    2.5186    0.0000 H   0  0  0  0  0  0  0  0  0  0  0  0
    3.1350    4.9486    0.0000 H   0  0  0  0  0  0  0  0  0  0  0  0
    0.3291    3.3286    0.0000 H   0  0  0  0  0  0  0  0  0  0  0  0
    1.7320    5.7586    0.0000 H   0  0  0  0  0  0  0  0  0  0  0  0
    5.9980    0.0000    0.0000 H   0  0  0  0  0  0  0  0  0  0  0  0
  1 51  1  0  0  0  0
  2 26  1  0  0  0  0
  3 12  2  0  0  0  0
  4  9  1  0  0  0  0
  4 10  1  0  0  0  0
  4 16  1  0  0  0  0
  5  6  1  0  0  0  0
  5  7  1  0  0  0  0
  5  8  1  0  0  0  0
  5 27  1  0  0  0  0
  6 11  1  0  0  0  0
  6 12  1  0  0  0  0
  6 28  1  0  0  0  0
  7  9  1  0  0  0  0
  7 29  1  0  0  0  0
  7 30  1  0  0  0  0
  8 10  1  0  0  0  0
  8 31  1  0  0  0  0
  8 32  1  0  0  0  0
  9 33  1  0  0  0  0
  9 34  1  0  0  0  0
 10 35  1  0  0  0  0
 10 36  1  0  0  0  0
 11 13  1  0  0  0  0
 11 37  1  0  0  0  0
 11 38  1  0  0  0  0
 12 14  1  0  0  0  0
 13 15  1  0  0  0  0
 13 39  1  0  0  0  0
 13 40  1  0  0  0  0
 14 15  1  0  0  0  0
 14 17  2  0  0  0  0
 15 19  2  0  0  0  0
 16 18  1  0  0  0  0
 16 41  1  0  0  0  0
 16 42  1  0  0  0  0
 17 20  1  0  0  0  0
 17 43  1  0  0  0  0
 18 22  2  0  0  0  0
 18 23  1  0  0  0  0
 19 21  1  0  0  0  0
 19 44  1  0  0  0  0
 20 21  2  0  0  0  0
 20 45  1  0  0  0  0
 21 46  1  0  0  0  0
 22 24  1  0  0  0  0
 22 47  1  0  0  0  0
 23 25  2  0  0  0  0
 23 48  1  0  0  0  0
 24 26  2  0  0  0  0
 24 49  1  0  0  0  0
 25 26  1  0  0  0  0
 25 50  1  0  0  0  0
M  END
> <PUBCHEM_COMPOUND_CID>
45261726

> <PUBCHEM_COMPOUND_CANONICALIZED>
1

> <PUBCHEM_CACTVS_COMPLEXITY>
451

> <PUBCHEM_CACTVS_HBOND_ACCEPTOR>
3

> <PUBCHEM_CACTVS_HBOND_DONOR>
1

> <PUBCHEM_CACTVS_ROTATABLE_BOND>
3

> <PUBCHEM_CACTVS_SUBSKEYS>
AAADceB6IQAEAAAAAAAAAAAAAAAAAAAAAAA8YMEAAAAAAADBQAAAHwAAAAAADQTBmAwwAIMAAACIAqBSAACCAAAkAAAIiAEIBMgIIDKAlRGEIQhggACIiYcYicCOgAAAAAAQAACAAAQAACAAAAAAAAAAAA==

> <PUBCHEM_IUPAC_OPENEYE_NAME>
2-[1-[(4-fluorophenyl)methyl]-4-piperidyl]tetralin-1-one;hydrochloride

> <PUBCHEM_IUPAC_CAS_NAME>
2-[1-[(4-fluorophenyl)methyl]-4-piperidinyl]-3,4-dihydro-2H-naphthalen-1-one;hydrochloride

> <PUBCHEM_IUPAC_NAME_MARKUP>
2-[1-[(4-fluorophenyl)methyl]piperidin-4-yl]-3,4-dihydro-2<I>H</I>-naphthalen-1-one;hydrochloride

> <PUBCHEM_IUPAC_NAME>
2-[1-[(4-fluorophenyl)methyl]piperidin-4-yl]-3,4-dihydro-2H-naphthalen-1-one;hydrochloride

> <PUBCHEM_IUPAC_SYSTEMATIC_NAME>
2-[1-[(4-fluorophenyl)methyl]piperidin-4-yl]-3,4-dihydro-2H-naphthalen-1-one;hydrochloride

> <PUBCHEM_IUPAC_TRADITIONAL_NAME>
2-[1-(4-fluorobenzyl)-4-piperidyl]tetralin-1-one;hydrochloride

> <PUBCHEM_IUPAC_INCHI>
InChI=1S/C22H24FNO.ClH/c23-19-8-5-16(6-9-19)15-24-13-11-18(12-14-24)21-10-7-17-3-1-2-4-20(17)22(21)25;/h1-6,8-9,18,21H,7,10-15H2;1H

> <PUBCHEM_IUPAC_INCHIKEY>
XIXSLDMOEJTCCQ-UHFFFAOYSA-N

> <PUBCHEM_EXACT_MASS>
373.1608703

> <PUBCHEM_MOLECULAR_FORMULA>
C22H25ClFNO

> <PUBCHEM_MOLECULAR_WEIGHT>
373.9

> <PUBCHEM_OPENEYE_CAN_SMILES>
C1CC2=CC=CC=C2C(=O)C1C3CCN(CC3)CC4=CC=C(C=C4)F.Cl

> <PUBCHEM_OPENEYE_ISO_SMILES>
C1CC2=CC=CC=C2C(=O)C1C3CCN(CC3)CC4=CC=C(C=C4)F.Cl

> <PUBCHEM_CACTVS_TPSA>
20.3

> <PUBCHEM_MONOISOTOPIC_WEIGHT>
373.1608703

> <PUBCHEM_TOTAL_CHARGE>
0

> <PUBCHEM_HEAVY_ATOM_COUNT>
26

> <PUBCHEM_ATOM_DEF_STEREO_COUNT>
0

> <PUBCHEM_ATOM_UDEF_STEREO_COUNT>
1

> <PUBCHEM_BOND_DEF_STEREO_COUNT>
0

> <PUBCHEM_BOND_UDEF_STEREO_COUNT>
0

> <PUBCHEM_ISOTOPIC_ATOM_COUNT>
0

> <PUBCHEM_COMPONENT_COUNT>
2

> <PUBCHEM_CACTVS_TAUTO_COUNT>
-1

> <PUBCHEM_COORDINATE_TYPE>
1
5
255

> <PUBCHEM_BONDANNOTATIONS>
14  15  8
14  17  8
15  19  8
17  20  8
18  22  8
18  23  8
19  21  8
20  21  8
22  24  8
23  25  8
24  26  8
25  26  8
6  5  3

$$$$
