44626632
  -OEChem-09292322292D

 62 67  0     1  0  0  0  0  0999 V2000
    3.7759   -0.8858    0.0000 S   0  0  0  0  0  0  0  0  0  0  0  0
    3.4138    2.5594    0.0000 N   0  0  3  0  0  0  0  0  0  0  0  0
    4.0547   -2.6458    0.0000 N   0  0  0  0  0  0  0  0  0  0  0  0
    5.3637   -1.6948    0.0000 N   0  0  0  0  0  0  0  0  0  0  0  0
    5.6728   -2.6458    0.0000 N   0  0  0  0  0  0  0  0  0  0  0  0
    6.6237   -6.2683    0.0000 N   0  0  0  0  0  0  0  0  0  0  0  0
    2.9138    4.0982    0.0000 C   0  0  3  0  0  0  0  0  0  0  0  0
    2.1048    3.5104    0.0000 C   0  0  3  0  0  0  0  0  0  0  0  0
    2.0000    4.5054    0.0000 C   0  0  0  0  0  0  0  0  0  0  0  0
    3.7229    3.5104    0.0000 C   0  0  0  0  0  0  0  0  0  0  0  0
    2.4138    2.5594    0.0000 C   0  0  0  0  0  0  0  0  0  0  0  0
    3.7229    4.6860    0.0000 C   0  0  0  0  0  0  0  0  0  0  0  0
    4.0016    1.7503    0.0000 C   0  0  0  0  0  0  0  0  0  0  0  0
    3.6183    5.6805    0.0000 C   0  0  0  0  0  0  0  0  0  0  0  0
    4.6364    4.2792    0.0000 C   0  0  0  0  0  0  0  0  0  0  0  0
    3.5949    0.8368    0.0000 C   0  0  0  0  0  0  0  0  0  0  0  0
    4.4274    6.2683    0.0000 C   0  0  0  0  0  0  0  0  0  0  0  0
    5.4454    4.8670    0.0000 C   0  0  0  0  0  0  0  0  0  0  0  0
    4.1827    0.0278    0.0000 C   0  0  0  0  0  0  0  0  0  0  0  0
    5.3409    5.8616    0.0000 C   0  0  0  0  0  0  0  0  0  0  0  0
    4.3637   -1.6948    0.0000 C   0  0  0  0  0  0  0  0  0  0  0  0
    4.8637   -3.2336    0.0000 C   0  0  0  0  0  0  0  0  0  0  0  0
    3.1037   -2.9549    0.0000 C   0  0  0  0  0  0  0  0  0  0  0  0
    4.8637   -4.2336    0.0000 C   0  0  0  0  0  0  0  0  0  0  0  0
    5.7298   -4.7336    0.0000 C   0  0  0  0  0  0  0  0  0  0  0  0
    3.9977   -4.7336    0.0000 C   0  0  0  0  0  0  0  0  0  0  0  0
    5.7298   -5.7336    0.0000 C   0  0  0  0  0  0  0  0  0  0  0  0
    6.6237   -4.1990    0.0000 C   0  0  0  0  0  0  0  0  0  0  0  0
    3.9977   -5.7336    0.0000 C   0  0  0  0  0  0  0  0  0  0  0  0
    4.8637   -6.2336    0.0000 C   0  0  0  0  0  0  0  0  0  0  0  0
    7.5298   -4.7128    0.0000 C   0  0  0  0  0  0  0  0  0  0  0  0
    7.5298   -5.7544    0.0000 C   0  0  0  0  0  0  0  0  0  0  0  0
    8.3939   -6.2578    0.0000 C   0  0  0  0  0  0  0  0  0  0  0  0
    1.4984    3.3814    0.0000 H   0  0  0  0  0  0  0  0  0  0  0  0
    2.1500    5.1069    0.0000 H   0  0  0  0  0  0  0  0  0  0  0  0
    1.3815    4.5485    0.0000 H   0  0  0  0  0  0  0  0  0  0  0  0
    4.2893    3.2582    0.0000 H   0  0  0  0  0  0  0  0  0  0  0  0
    4.0329    4.0474    0.0000 H   0  0  0  0  0  0  0  0  0  0  0  0
    1.8074    2.4304    0.0000 H   0  0  0  0  0  0  0  0  0  0  0  0
    2.4786    1.9428    0.0000 H   0  0  0  0  0  0  0  0  0  0  0  0
    4.5156    1.4036    0.0000 H   0  0  0  0  0  0  0  0  0  0  0  0
    4.4323    2.1963    0.0000 H   0  0  0  0  0  0  0  0  0  0  0  0
    3.0519    5.9327    0.0000 H   0  0  0  0  0  0  0  0  0  0  0  0
    4.7012    3.6626    0.0000 H   0  0  0  0  0  0  0  0  0  0  0  0
    3.0809    1.1835    0.0000 H   0  0  0  0  0  0  0  0  0  0  0  0
    3.1642    0.3908    0.0000 H   0  0  0  0  0  0  0  0  0  0  0  0
    4.3625    6.8849    0.0000 H   0  0  0  0  0  0  0  0  0  0  0  0
    6.0118    4.6148    0.0000 H   0  0  0  0  0  0  0  0  0  0  0  0
    4.6967   -0.3189    0.0000 H   0  0  0  0  0  0  0  0  0  0  0  0
    4.6134    0.4738    0.0000 H   0  0  0  0  0  0  0  0  0  0  0  0
    5.8425    6.2260    0.0000 H   0  0  0  0  0  0  0  0  0  0  0  0
    2.9121   -2.3652    0.0000 H   0  0  0  0  0  0  0  0  0  0  0  0
    2.5140   -3.1465    0.0000 H   0  0  0  0  0  0  0  0  0  0  0  0
    3.2952   -3.5445    0.0000 H   0  0  0  0  0  0  0  0  0  0  0  0
    3.4608   -4.4236    0.0000 H   0  0  0  0  0  0  0  0  0  0  0  0
    6.6165   -3.5790    0.0000 H   0  0  0  0  0  0  0  0  0  0  0  0
    3.4608   -6.0436    0.0000 H   0  0  0  0  0  0  0  0  0  0  0  0
    4.8637   -6.8536    0.0000 H   0  0  0  0  0  0  0  0  0  0  0  0
    8.0655   -4.4008    0.0000 H   0  0  0  0  0  0  0  0  0  0  0  0
    8.0818   -6.7935    0.0000 H   0  0  0  0  0  0  0  0  0  0  0  0
    8.9296   -6.5698    0.0000 H   0  0  0  0  0  0  0  0  0  0  0  0
    8.7059   -5.7220    0.0000 H   0  0  0  0  0  0  0  0  0  0  0  0
  1 19  1  0  0  0  0
  1 21  1  0  0  0  0
  2 10  1  0  0  0  0
  2 11  1  0  0  0  0
  2 13  1  0  0  0  0
  3 21  1  0  0  0  0
  3 22  1  0  0  0  0
  3 23  1  0  0  0  0
  4  5  1  0  0  0  0
  4 21  2  0  0  0  0
  5 22  2  0  0  0  0
  6 27  1  0  0  0  0
  6 32  2  0  0  0  0
  7  8  1  0  0  0  0
  7  9  1  0  0  0  0
  7 10  1  0  0  0  0
  7 12  1  0  0  0  0
  8  9  1  0  0  0  0
  8 11  1  0  0  0  0
  8 34  1  0  0  0  0
  9 35  1  0  0  0  0
  9 36  1  0  0  0  0
 10 37  1  0  0  0  0
 10 38  1  0  0  0  0
 11 39  1  0  0  0  0
 11 40  1  0  0  0  0
 12 14  2  0  0  0  0
 12 15  1  0  0  0  0
 13 16  1  0  0  0  0
 13 41  1  0  0  0  0
 13 42  1  0  0  0  0
 14 17  1  0  0  0  0
 14 43  1  0  0  0  0
 15 18  2  0  0  0  0
 15 44  1  0  0  0  0
 16 19  1  0  0  0  0
 16 45  1  0  0  0  0
 16 46  1  0  0  0  0
 17 20  2  0  0  0  0
 17 47  1  0  0  0  0
 18 20  1  0  0  0  0
 18 48  1  0  0  0  0
 19 49  1  0  0  0  0
 19 50  1  0  0  0  0
 20 51  1  0  0  0  0
 22 24  1  0  0  0  0
 23 52  1  0  0  0  0
 23 53  1  0  0  0  0
 23 54  1  0  0  0  0
 24 25  2  0  0  0  0
 24 26  1  0  0  0  0
 25 27  1  0  0  0  0
 25 28  1  0  0  0  0
 26 29  2  0  0  0  0
 26 55  1  0  0  0  0
 27 30  2  0  0  0  0
 28 31  2  0  0  0  0
 28 56  1  0  0  0  0
 29 30  1  0  0  0  0
 29 57  1  0  0  0  0
 30 58  1  0  0  0  0
 31 32  1  0  0  0  0
 31 59  1  0  0  0  0
 32 33  1  0  0  0  0
 33 60  1  0  0  0  0
 33 61  1  0  0  0  0
 33 62  1  0  0  0  0
M  END
> <PUBCHEM_COMPOUND_CID>
44626632

> <PUBCHEM_COMPOUND_CANONICALIZED>
1

> <PUBCHEM_CACTVS_COMPLEXITY>
671

> <PUBCHEM_CACTVS_HBOND_ACCEPTOR>
5

> <PUBCHEM_CACTVS_HBOND_DONOR>
0

> <PUBCHEM_CACTVS_ROTATABLE_BOND>
7

> <PUBCHEM_CACTVS_SUBSKEYS>
AAADceB7gABAAAAAAAAAAAAAGAAAAWLAAAA8eIEAAAAAAACx/AAAHAQIAAAADwjFXwSz0PcMEAiiAyZiZACS0CthArAd2CA4ZJiIKOLgmZGEIAhgiALIyAcQgMAPgAAAQAASAAAAAACAACQAAAAAAAAAAA==

> <PUBCHEM_IUPAC_OPENEYE_NAME>
2-methyl-5-[4-methyl-5-[3-(1-phenyl-3-azabicyclo[3.1.0]hexan-3-yl)propylsulfanyl]-1,2,4-triazol-3-yl]quinoline

> <PUBCHEM_IUPAC_CAS_NAME>
2-methyl-5-[4-methyl-5-[3-(1-phenyl-3-azabicyclo[3.1.0]hexan-3-yl)propylthio]-1,2,4-triazol-3-yl]quinoline

> <PUBCHEM_IUPAC_NAME_MARKUP>
2-methyl-5-[4-methyl-5-[3-(1-phenyl-3-azabicyclo[3.1.0]hexan-3-yl)propylsulfanyl]-1,2,4-triazol-3-yl]quinoline

> <PUBCHEM_IUPAC_NAME>
2-methyl-5-[4-methyl-5-[3-(1-phenyl-3-azabicyclo[3.1.0]hexan-3-yl)propylsulfanyl]-1,2,4-triazol-3-yl]quinoline

> <PUBCHEM_IUPAC_SYSTEMATIC_NAME>
2-methyl-5-[4-methyl-5-[3-(1-phenyl-3-azabicyclo[3.1.0]hexan-3-yl)propylsulfanyl]-1,2,4-triazol-3-yl]quinoline

> <PUBCHEM_IUPAC_TRADITIONAL_NAME>
2-methyl-5-[4-methyl-5-[3-(1-phenyl-3-azabicyclo[3.1.0]hexan-3-yl)propylthio]-1,2,4-triazol-3-yl]quinoline

> <PUBCHEM_IUPAC_INCHI>
InChI=1S/C27H29N5S/c1-19-12-13-22-23(10-6-11-24(22)28-19)25-29-30-26(31(25)2)33-15-7-14-32-17-21-16-27(21,18-32)20-8-4-3-5-9-20/h3-6,8-13,21H,7,14-18H2,1-2H3

> <PUBCHEM_IUPAC_INCHIKEY>
HMMLWDCQIVJIHP-UHFFFAOYSA-N

> <PUBCHEM_XLOGP3_AA>
4.9

> <PUBCHEM_EXACT_MASS>
455.21436712

> <PUBCHEM_MOLECULAR_FORMULA>
C27H29N5S

> <PUBCHEM_MOLECULAR_WEIGHT>
455.6

> <PUBCHEM_OPENEYE_CAN_SMILES>
CC1=NC2=CC=CC(=C2C=C1)C3=NN=C(N3C)SCCCN4CC5CC5(C4)C6=CC=CC=C6

> <PUBCHEM_OPENEYE_ISO_SMILES>
CC1=NC2=CC=CC(=C2C=C1)C3=NN=C(N3C)SCCCN4CC5CC5(C4)C6=CC=CC=C6

> <PUBCHEM_CACTVS_TPSA>
72.1

> <PUBCHEM_MONOISOTOPIC_WEIGHT>
455.21436712

> <PUBCHEM_TOTAL_CHARGE>
0

> <PUBCHEM_HEAVY_ATOM_COUNT>
33

> <PUBCHEM_ATOM_DEF_STEREO_COUNT>
0

> <PUBCHEM_ATOM_UDEF_STEREO_COUNT>
2

> <PUBCHEM_BOND_DEF_STEREO_COUNT>
0

> <PUBCHEM_BOND_UDEF_STEREO_COUNT>
0

> <PUBCHEM_ISOTOPIC_ATOM_COUNT>
0

> <PUBCHEM_COMPONENT_COUNT>
1

> <PUBCHEM_CACTVS_TAUTO_COUNT>
-1

> <PUBCHEM_COORDINATE_TYPE>
1
5
255

> <PUBCHEM_BONDANNOTATIONS>
12  14  8
12  15  8
14  17  8
15  18  8
17  20  8
18  20  8
24  25  8
24  26  8
25  27  8
25  28  8
26  29  8
27  30  8
28  31  8
29  30  8
3  21  8
3  22  8
31  32  8
4  21  8
4  5  8
5  22  8
6  27  8
6  32  8
7  12  3
8  9  3

$$$$
