71724962
  -OEChem-09292322012D

 57 60  0     0  0  0  0  0  0999 V2000
    9.7619    2.9820    0.0000 O   0  0  0  0  0  0  0  0  0  0  0  0
    6.7619   -2.2141    0.0000 O   0  0  0  0  0  0  0  0  0  0  0  0
    2.8660   -3.3481    0.0000 O   0  0  0  0  0  0  0  0  0  0  0  0
   13.7619    2.9820    0.0000 O   0  0  0  0  0  0  0  0  0  0  0  0
    7.7619    1.2500    0.0000 N   0  0  0  0  0  0  0  0  0  0  0  0
    6.7619   -0.4821    0.0000 N   0  0  0  0  0  0  0  0  0  0  0  0
    4.6783   -2.1528    0.0000 N   0  0  0  0  0  0  0  0  0  0  0  0
    6.7619    1.2500    0.0000 C   0  0  0  0  0  0  0  0  0  0  0  0
    8.2619    0.3840    0.0000 C   0  0  0  0  0  0  0  0  0  0  0  0
    6.2619    0.3840    0.0000 C   0  0  0  0  0  0  0  0  0  0  0  0
    7.7619   -0.4821    0.0000 C   0  0  0  0  0  0  0  0  0  0  0  0
    8.2619    2.1160    0.0000 C   0  0  0  0  0  0  0  0  0  0  0  0
    6.2619   -1.3481    0.0000 C   0  0  0  0  0  0  0  0  0  0  0  0
    9.2619    2.1160    0.0000 C   0  0  0  0  0  0  0  0  0  0  0  0
    5.2619   -1.3481    0.0000 C   0  0  0  0  0  0  0  0  0  0  0  0
    4.6783   -0.5433    0.0000 C   0  0  0  0  0  0  0  0  0  0  0  0
    3.7320   -1.8481    0.0000 C   0  0  0  0  0  0  0  0  0  0  0  0
    3.7320   -0.8481    0.0000 C   0  0  0  0  0  0  0  0  0  0  0  0
    2.8660   -2.3481    0.0000 C   0  0  0  0  0  0  0  0  0  0  0  0
    2.8660   -0.3481    0.0000 C   0  0  0  0  0  0  0  0  0  0  0  0
   10.7619    2.9820    0.0000 C   0  0  0  0  0  0  0  0  0  0  0  0
    2.0000   -1.8481    0.0000 C   0  0  0  0  0  0  0  0  0  0  0  0
    2.0000   -0.8481    0.0000 C   0  0  0  0  0  0  0  0  0  0  0  0
   11.2619    2.1160    0.0000 C   0  0  0  0  0  0  0  0  0  0  0  0
   11.2619    3.8481    0.0000 C   0  0  0  0  0  0  0  0  0  0  0  0
   12.2619    2.1160    0.0000 C   0  0  0  0  0  0  0  0  0  0  0  0
   12.2619    3.8481    0.0000 C   0  0  0  0  0  0  0  0  0  0  0  0
    2.0000   -3.8481    0.0000 C   0  0  0  0  0  0  0  0  0  0  0  0
   12.7619    2.9820    0.0000 C   0  0  0  0  0  0  0  0  0  0  0  0
   14.2619    3.8481    0.0000 C   0  0  0  0  0  0  0  0  0  0  0  0
    6.8695    1.8606    0.0000 H   0  0  0  0  0  0  0  0  0  0  0  0
    6.1793    1.4620    0.0000 H   0  0  0  0  0  0  0  0  0  0  0  0
    8.7368   -0.0146    0.0000 H   0  0  0  0  0  0  0  0  0  0  0  0
    8.7368    0.7825    0.0000 H   0  0  0  0  0  0  0  0  0  0  0  0
    5.7869    0.7825    0.0000 H   0  0  0  0  0  0  0  0  0  0  0  0
    5.7869   -0.0146    0.0000 H   0  0  0  0  0  0  0  0  0  0  0  0
    7.6542   -1.0926    0.0000 H   0  0  0  0  0  0  0  0  0  0  0  0
    8.3445   -0.6941    0.0000 H   0  0  0  0  0  0  0  0  0  0  0  0
    8.3695    2.7266    0.0000 H   0  0  0  0  0  0  0  0  0  0  0  0
    7.6793    2.3281    0.0000 H   0  0  0  0  0  0  0  0  0  0  0  0
    9.1542    1.5054    0.0000 H   0  0  0  0  0  0  0  0  0  0  0  0
    9.8445    1.9040    0.0000 H   0  0  0  0  0  0  0  0  0  0  0  0
    4.8709   -2.7421    0.0000 H   0  0  0  0  0  0  0  0  0  0  0  0
    4.8709    0.0460    0.0000 H   0  0  0  0  0  0  0  0  0  0  0  0
    2.8660    0.2719    0.0000 H   0  0  0  0  0  0  0  0  0  0  0  0
    1.4631   -2.1581    0.0000 H   0  0  0  0  0  0  0  0  0  0  0  0
    1.4631   -0.5381    0.0000 H   0  0  0  0  0  0  0  0  0  0  0  0
   10.9519    1.5791    0.0000 H   0  0  0  0  0  0  0  0  0  0  0  0
   10.9519    4.3850    0.0000 H   0  0  0  0  0  0  0  0  0  0  0  0
   12.5719    1.5791    0.0000 H   0  0  0  0  0  0  0  0  0  0  0  0
   12.5719    4.3850    0.0000 H   0  0  0  0  0  0  0  0  0  0  0  0
    1.6900   -3.3111    0.0000 H   0  0  0  0  0  0  0  0  0  0  0  0
    1.4631   -4.1581    0.0000 H   0  0  0  0  0  0  0  0  0  0  0  0
    2.3100   -4.3850    0.0000 H   0  0  0  0  0  0  0  0  0  0  0  0
   14.7988    3.5381    0.0000 H   0  0  0  0  0  0  0  0  0  0  0  0
   14.5719    4.3850    0.0000 H   0  0  0  0  0  0  0  0  0  0  0  0
   13.7249    4.1581    0.0000 H   0  0  0  0  0  0  0  0  0  0  0  0
  1 14  1  0  0  0  0
  1 21  1  0  0  0  0
  2 13  2  0  0  0  0
  3 19  1  0  0  0  0
  3 28  1  0  0  0  0
  4 29  1  0  0  0  0
  4 30  1  0  0  0  0
  5  8  1  0  0  0  0
  5  9  1  0  0  0  0
  5 12  1  0  0  0  0
  6 10  1  0  0  0  0
  6 11  1  0  0  0  0
  6 13  1  0  0  0  0
  7 15  1  0  0  0  0
  7 17  1  0  0  0  0
  7 43  1  0  0  0  0
  8 10  1  0  0  0  0
  8 31  1  0  0  0  0
  8 32  1  0  0  0  0
  9 11  1  0  0  0  0
  9 33  1  0  0  0  0
  9 34  1  0  0  0  0
 10 35  1  0  0  0  0
 10 36  1  0  0  0  0
 11 37  1  0  0  0  0
 11 38  1  0  0  0  0
 12 14  1  0  0  0  0
 12 39  1  0  0  0  0
 12 40  1  0  0  0  0
 13 15  1  0  0  0  0
 14 41  1  0  0  0  0
 14 42  1  0  0  0  0
 15 16  2  0  0  0  0
 16 18  1  0  0  0  0
 16 44  1  0  0  0  0
 17 18  2  0  0  0  0
 17 19  1  0  0  0  0
 18 20  1  0  0  0  0
 19 22  2  0  0  0  0
 20 23  2  0  0  0  0
 20 45  1  0  0  0  0
 21 24  2  0  0  0  0
 21 25  1  0  0  0  0
 22 23  1  0  0  0  0
 22 46  1  0  0  0  0
 23 47  1  0  0  0  0
 24 26  1  0  0  0  0
 24 48  1  0  0  0  0
 25 27  2  0  0  0  0
 25 49  1  0  0  0  0
 26 29  2  0  0  0  0
 26 50  1  0  0  0  0
 27 29  1  0  0  0  0
 27 51  1  0  0  0  0
 28 52  1  0  0  0  0
 28 53  1  0  0  0  0
 28 54  1  0  0  0  0
 30 55  1  0  0  0  0
 30 56  1  0  0  0  0
 30 57  1  0  0  0  0
M  END
> <PUBCHEM_COMPOUND_CID>
71724962

> <PUBCHEM_COMPOUND_CANONICALIZED>
1

> <PUBCHEM_CACTVS_COMPLEXITY>
547

> <PUBCHEM_CACTVS_HBOND_ACCEPTOR>
5

> <PUBCHEM_CACTVS_HBOND_DONOR>
1

> <PUBCHEM_CACTVS_ROTATABLE_BOND>
7

> <PUBCHEM_CACTVS_SUBSKEYS>
AAADceB7OAAAAAAAAAAAAAAAAAAAAWAAAAA8YIAAAAAAAFgB9AAAHgAQAAAADAzhngYyxvPJlACoAyVyVASCiCAnYiAImSG/bNgOZvLEtbuXOSjk1hHY6YfY2bGeAQABAAACEAACAAIAAAQgAAAAAAAAAA==

> <PUBCHEM_IUPAC_OPENEYE_NAME>
(7-methoxy-1H-indol-2-yl)-[4-[2-(4-methoxyphenoxy)ethyl]piperazin-1-yl]methanone

> <PUBCHEM_IUPAC_CAS_NAME>
(7-methoxy-1H-indol-2-yl)-[4-[2-(4-methoxyphenoxy)ethyl]-1-piperazinyl]methanone

> <PUBCHEM_IUPAC_NAME_MARKUP>
(7-methoxy-1<I>H</I>-indol-2-yl)-[4-[2-(4-methoxyphenoxy)ethyl]piperazin-1-yl]methanone

> <PUBCHEM_IUPAC_NAME>
(7-methoxy-1H-indol-2-yl)-[4-[2-(4-methoxyphenoxy)ethyl]piperazin-1-yl]methanone

> <PUBCHEM_IUPAC_SYSTEMATIC_NAME>
(7-methoxy-1H-indol-2-yl)-[4-[2-(4-methoxyphenoxy)ethyl]piperazin-1-yl]methanone

> <PUBCHEM_IUPAC_TRADITIONAL_NAME>
(7-methoxy-1H-indol-2-yl)-[4-[2-(4-methoxyphenoxy)ethyl]piperazino]methanone

> <PUBCHEM_IUPAC_INCHI>
InChI=1S/C23H27N3O4/c1-28-18-6-8-19(9-7-18)30-15-14-25-10-12-26(13-11-25)23(27)20-16-17-4-3-5-21(29-2)22(17)24-20/h3-9,16,24H,10-15H2,1-2H3

> <PUBCHEM_IUPAC_INCHIKEY>
DHUSVAZDGLXZIV-UHFFFAOYSA-N

> <PUBCHEM_XLOGP3_AA>
3.3

> <PUBCHEM_EXACT_MASS>
409.20015635

> <PUBCHEM_MOLECULAR_FORMULA>
C23H27N3O4

> <PUBCHEM_MOLECULAR_WEIGHT>
409.5

> <PUBCHEM_OPENEYE_CAN_SMILES>
COC1=CC=C(C=C1)OCCN2CCN(CC2)C(=O)C3=CC4=C(N3)C(=CC=C4)OC

> <PUBCHEM_OPENEYE_ISO_SMILES>
COC1=CC=C(C=C1)OCCN2CCN(CC2)C(=O)C3=CC4=C(N3)C(=CC=C4)OC

> <PUBCHEM_CACTVS_TPSA>
67

> <PUBCHEM_MONOISOTOPIC_WEIGHT>
409.20015635

> <PUBCHEM_TOTAL_CHARGE>
0

> <PUBCHEM_HEAVY_ATOM_COUNT>
30

> <PUBCHEM_ATOM_DEF_STEREO_COUNT>
0

> <PUBCHEM_ATOM_UDEF_STEREO_COUNT>
0

> <PUBCHEM_BOND_DEF_STEREO_COUNT>
0

> <PUBCHEM_BOND_UDEF_STEREO_COUNT>
0

> <PUBCHEM_ISOTOPIC_ATOM_COUNT>
0

> <PUBCHEM_COMPONENT_COUNT>
1

> <PUBCHEM_CACTVS_TAUTO_COUNT>
-1

> <PUBCHEM_COORDINATE_TYPE>
1
5
255

> <PUBCHEM_BONDANNOTATIONS>
15  16  8
16  18  8
17  18  8
17  19  8
18  20  8
19  22  8
20  23  8
21  24  8
21  25  8
22  23  8
24  26  8
25  27  8
26  29  8
27  29  8
7  15  8
7  17  8

$$$$
