44207909
  -OEChem-09292322082D

 59 62  0     0  0  0  0  0  0999 V2000
    4.6660    5.4827    0.0000 O   0  0  0  0  0  0  0  0  0  0  0  0
    8.1301   -2.5173    0.0000 O   0  0  0  0  0  0  0  0  0  0  0  0
    6.3981    3.4827    0.0000 O   0  0  0  0  0  0  0  0  0  0  0  0
    6.3981    0.4827    0.0000 N   0  0  0  0  0  0  0  0  0  0  0  0
    8.9962   -1.0173    0.0000 N   0  0  0  0  0  0  0  0  0  0  0  0
    4.6660    3.4827    0.0000 N   0  0  0  0  0  0  0  0  0  0  0  0
    8.1301   -0.5173    0.0000 C   0  0  0  0  0  0  0  0  0  0  0  0
    7.2641   -1.0173    0.0000 C   0  0  0  0  0  0  0  0  0  0  0  0
    8.1301    0.4827    0.0000 C   0  0  0  0  0  0  0  0  0  0  0  0
    6.3981   -0.5173    0.0000 C   0  0  0  0  0  0  0  0  0  0  0  0
    7.2641    0.9827    0.0000 C   0  0  0  0  0  0  0  0  0  0  0  0
    5.5321    0.9827    0.0000 C   0  0  0  0  0  0  0  0  0  0  0  0
    5.5321    1.9827    0.0000 C   0  0  0  0  0  0  0  0  0  0  0  0
    4.6660    2.4827    0.0000 C   0  0  0  0  0  0  0  0  0  0  0  0
    8.9962   -2.0173    0.0000 C   0  0  0  0  0  0  0  0  0  0  0  0
    9.8622   -2.5173    0.0000 C   0  0  0  0  0  0  0  0  0  0  0  0
    3.8000    3.9827    0.0000 C   0  0  0  0  0  0  0  0  0  0  0  0
    5.5321    3.9827    0.0000 C   0  0  0  0  0  0  0  0  0  0  0  0
    3.8000    4.9827    0.0000 C   0  0  0  0  0  0  0  0  0  0  0  0
    5.5321    4.9827    0.0000 C   0  0  0  0  0  0  0  0  0  0  0  0
    9.8622   -3.5173    0.0000 C   0  0  0  0  0  0  0  0  0  0  0  0
    2.9061    3.4480    0.0000 C   0  0  0  0  0  0  0  0  0  0  0  0
    2.9061    5.5173    0.0000 C   0  0  0  0  0  0  0  0  0  0  0  0
    2.0000    3.9618    0.0000 C   0  0  0  0  0  0  0  0  0  0  0  0
    2.0000    5.0035    0.0000 C   0  0  0  0  0  0  0  0  0  0  0  0
   10.7282   -4.0173    0.0000 C   0  0  0  0  0  0  0  0  0  0  0  0
    8.9962   -4.0173    0.0000 C   0  0  0  0  0  0  0  0  0  0  0  0
   10.7282   -5.0173    0.0000 C   0  0  0  0  0  0  0  0  0  0  0  0
    8.9962   -5.0173    0.0000 C   0  0  0  0  0  0  0  0  0  0  0  0
    9.8622   -5.5173    0.0000 C   0  0  0  0  0  0  0  0  0  0  0  0
    8.1301   -1.1373    0.0000 H   0  0  0  0  0  0  0  0  0  0  0  0
    6.8656   -1.4923    0.0000 H   0  0  0  0  0  0  0  0  0  0  0  0
    7.6626   -1.4923    0.0000 H   0  0  0  0  0  0  0  0  0  0  0  0
    8.7407    0.3750    0.0000 H   0  0  0  0  0  0  0  0  0  0  0  0
    8.3422    1.0653    0.0000 H   0  0  0  0  0  0  0  0  0  0  0  0
    5.7875   -0.4097    0.0000 H   0  0  0  0  0  0  0  0  0  0  0  0
    6.1860   -1.0999    0.0000 H   0  0  0  0  0  0  0  0  0  0  0  0
    7.6626    1.4576    0.0000 H   0  0  0  0  0  0  0  0  0  0  0  0
    6.8656    1.4576    0.0000 H   0  0  0  0  0  0  0  0  0  0  0  0
    4.9215    1.0903    0.0000 H   0  0  0  0  0  0  0  0  0  0  0  0
    5.3200    0.4001    0.0000 H   0  0  0  0  0  0  0  0  0  0  0  0
    6.1426    1.8750    0.0000 H   0  0  0  0  0  0  0  0  0  0  0  0
    5.7441    2.5653    0.0000 H   0  0  0  0  0  0  0  0  0  0  0  0
    9.5331   -0.7073    0.0000 H   0  0  0  0  0  0  0  0  0  0  0  0
    4.0555    2.5903    0.0000 H   0  0  0  0  0  0  0  0  0  0  0  0
    4.4540    1.9001    0.0000 H   0  0  0  0  0  0  0  0  0  0  0  0
   10.4728   -2.6250    0.0000 H   0  0  0  0  0  0  0  0  0  0  0  0
   10.0742   -1.9347    0.0000 H   0  0  0  0  0  0  0  0  0  0  0  0
    6.1426    4.8750    0.0000 H   0  0  0  0  0  0  0  0  0  0  0  0
    5.7441    5.5653    0.0000 H   0  0  0  0  0  0  0  0  0  0  0  0
    2.9132    2.8280    0.0000 H   0  0  0  0  0  0  0  0  0  0  0  0
    2.9132    6.1373    0.0000 H   0  0  0  0  0  0  0  0  0  0  0  0
    1.4643    3.6498    0.0000 H   0  0  0  0  0  0  0  0  0  0  0  0
    1.4643    5.3156    0.0000 H   0  0  0  0  0  0  0  0  0  0  0  0
   11.2651   -3.7073    0.0000 H   0  0  0  0  0  0  0  0  0  0  0  0
    8.4592   -3.7073    0.0000 H   0  0  0  0  0  0  0  0  0  0  0  0
   11.2651   -5.3273    0.0000 H   0  0  0  0  0  0  0  0  0  0  0  0
    8.4592   -5.3273    0.0000 H   0  0  0  0  0  0  0  0  0  0  0  0
    9.8622   -6.1373    0.0000 H   0  0  0  0  0  0  0  0  0  0  0  0
  1 19  1  0  0  0  0
  1 20  1  0  0  0  0
  2 15  2  0  0  0  0
  3 18  2  0  0  0  0
  4 10  1  0  0  0  0
  4 11  1  0  0  0  0
  4 12  1  0  0  0  0
  5  7  1  0  0  0  0
  5 15  1  0  0  0  0
  5 44  1  0  0  0  0
  6 14  1  0  0  0  0
  6 17  1  0  0  0  0
  6 18  1  0  0  0  0
  7  8  1  0  0  0  0
  7  9  1  0  0  0  0
  7 31  1  0  0  0  0
  8 10  1  0  0  0  0
  8 32  1  0  0  0  0
  8 33  1  0  0  0  0
  9 11  1  0  0  0  0
  9 34  1  0  0  0  0
  9 35  1  0  0  0  0
 10 36  1  0  0  0  0
 10 37  1  0  0  0  0
 11 38  1  0  0  0  0
 11 39  1  0  0  0  0
 12 13  1  0  0  0  0
 12 40  1  0  0  0  0
 12 41  1  0  0  0  0
 13 14  1  0  0  0  0
 13 42  1  0  0  0  0
 13 43  1  0  0  0  0
 14 45  1  0  0  0  0
 14 46  1  0  0  0  0
 15 16  1  0  0  0  0
 16 21  1  0  0  0  0
 16 47  1  0  0  0  0
 16 48  1  0  0  0  0
 17 19  1  0  0  0  0
 17 22  2  0  0  0  0
 18 20  1  0  0  0  0
 19 23  2  0  0  0  0
 20 49  1  0  0  0  0
 20 50  1  0  0  0  0
 21 26  2  0  0  0  0
 21 27  1  0  0  0  0
 22 24  1  0  0  0  0
 22 51  1  0  0  0  0
 23 25  1  0  0  0  0
 23 52  1  0  0  0  0
 24 25  2  0  0  0  0
 24 53  1  0  0  0  0
 25 54  1  0  0  0  0
 26 28  1  0  0  0  0
 26 55  1  0  0  0  0
 27 29  2  0  0  0  0
 27 56  1  0  0  0  0
 28 30  2  0  0  0  0
 28 57  1  0  0  0  0
 29 30  1  0  0  0  0
 29 58  1  0  0  0  0
 30 59  1  0  0  0  0
M  END
> <PUBCHEM_COMPOUND_CID>
44207909

> <PUBCHEM_COMPOUND_CANONICALIZED>
1

> <PUBCHEM_CACTVS_COMPLEXITY>
570

> <PUBCHEM_CACTVS_HBOND_ACCEPTOR>
4

> <PUBCHEM_CACTVS_HBOND_DONOR>
1

> <PUBCHEM_CACTVS_ROTATABLE_BOND>
7

> <PUBCHEM_CACTVS_SUBSKEYS>
AAADceB7MAAAAAAAAAAAAAAAAAAAAAAAAAA8eIEAAAAAAACxQAAAHgAQAAAADCzhmAYwxoPABACIAiVSUAKCCAAhIgAIiIFPbIgOJjLE9Z+HOCjk1hHY6AeYyICOAAAAAAAAEAAAAAAAAAAgAAAAAAAAAA==

> <PUBCHEM_IUPAC_OPENEYE_NAME>
N-[1-[3-(3-oxo-1,4-benzoxazin-4-yl)propyl]-4-piperidyl]-2-phenyl-acetamide

> <PUBCHEM_IUPAC_CAS_NAME>
N-[1-[3-(3-oxo-1,4-benzoxazin-4-yl)propyl]-4-piperidinyl]-2-phenylacetamide

> <PUBCHEM_IUPAC_NAME_MARKUP>
<I>N</I>-[1-[3-(3-oxo-1,4-benzoxazin-4-yl)propyl]piperidin-4-yl]-2-phenylacetamide

> <PUBCHEM_IUPAC_NAME>
N-[1-[3-(3-oxo-1,4-benzoxazin-4-yl)propyl]piperidin-4-yl]-2-phenylacetamide

> <PUBCHEM_IUPAC_SYSTEMATIC_NAME>
N-[1-[3-(3-oxidanylidene-1,4-benzoxazin-4-yl)propyl]piperidin-4-yl]-2-phenyl-ethanamide

> <PUBCHEM_IUPAC_TRADITIONAL_NAME>
N-[1-[3-(3-keto-1,4-benzoxazin-4-yl)propyl]-4-piperidyl]-2-phenyl-acetamide

> <PUBCHEM_IUPAC_INCHI>
InChI=1S/C24H29N3O3/c28-23(17-19-7-2-1-3-8-19)25-20-11-15-26(16-12-20)13-6-14-27-21-9-4-5-10-22(21)30-18-24(27)29/h1-5,7-10,20H,6,11-18H2,(H,25,28)

> <PUBCHEM_IUPAC_INCHIKEY>
FLGSUSWMWSZVMP-UHFFFAOYSA-N

> <PUBCHEM_XLOGP3_AA>
2.9

> <PUBCHEM_EXACT_MASS>
407.22089180

> <PUBCHEM_MOLECULAR_FORMULA>
C24H29N3O3

> <PUBCHEM_MOLECULAR_WEIGHT>
407.5

> <PUBCHEM_OPENEYE_CAN_SMILES>
C1CN(CCC1NC(=O)CC2=CC=CC=C2)CCCN3C(=O)COC4=CC=CC=C43

> <PUBCHEM_OPENEYE_ISO_SMILES>
C1CN(CCC1NC(=O)CC2=CC=CC=C2)CCCN3C(=O)COC4=CC=CC=C43

> <PUBCHEM_CACTVS_TPSA>
61.9

> <PUBCHEM_MONOISOTOPIC_WEIGHT>
407.22089180

> <PUBCHEM_TOTAL_CHARGE>
0

> <PUBCHEM_HEAVY_ATOM_COUNT>
30

> <PUBCHEM_ATOM_DEF_STEREO_COUNT>
0

> <PUBCHEM_ATOM_UDEF_STEREO_COUNT>
0

> <PUBCHEM_BOND_DEF_STEREO_COUNT>
0

> <PUBCHEM_BOND_UDEF_STEREO_COUNT>
0

> <PUBCHEM_ISOTOPIC_ATOM_COUNT>
0

> <PUBCHEM_COMPONENT_COUNT>
1

> <PUBCHEM_CACTVS_TAUTO_COUNT>
-1

> <PUBCHEM_COORDINATE_TYPE>
1
5
255

> <PUBCHEM_BONDANNOTATIONS>
17  19  8
17  22  8
19  23  8
21  26  8
21  27  8
22  24  8
23  25  8
24  25  8
26  28  8
27  29  8
28  30  8
29  30  8

$$$$
