11591633
  -OEChem-09292322492D

 64 68  0     1  0  0  0  0  0999 V2000
    9.2062    1.3981    0.0000 S   0  0  0  0  0  0  0  0  0  0  0  0
   15.4764    5.3805    0.0000 F   0  0  0  0  0  0  0  0  0  0  0  0
   14.1561    5.8873    0.0000 F   0  0  0  0  0  0  0  0  0  0  0  0
   14.9696    4.0602    0.0000 F   0  0  0  0  0  0  0  0  0  0  0  0
    4.4887   -4.9182    0.0000 O   0  0  0  0  0  0  0  0  0  0  0  0
    6.2062   -0.3339    0.0000 N   0  0  3  0  0  0  0  0  0  0  0  0
    3.0949   -4.1135    0.0000 N   0  0  0  0  0  0  0  0  0  0  0  0
   10.7008    2.3687    0.0000 N   0  0  0  0  0  0  0  0  0  0  0  0
    9.2995    3.1777    0.0000 N   0  0  0  0  0  0  0  0  0  0  0  0
   10.0426    3.8468    0.0000 N   0  0  0  0  0  0  0  0  0  0  0  0
    6.7598   -1.1436    0.0000 C   0  0  0  0  0  0  0  0  0  0  0  0
    5.2283   -0.2593    0.0000 C   0  0  0  0  0  0  0  0  0  0  0  0
    6.4745   -2.0820    0.0000 C   0  0  0  0  0  0  0  0  0  0  0  0
    4.5583   -0.9756    0.0000 C   0  0  0  0  0  0  0  0  0  0  0  0
    5.5640   -2.4464    0.0000 C   0  0  0  0  0  0  0  0  0  0  0  0
    4.6979   -1.9464    0.0000 C   0  0  0  0  0  0  0  0  0  0  0  0
    6.7062    0.5321    0.0000 C   0  0  0  0  0  0  0  0  0  0  0  0
    7.7062    0.5321    0.0000 C   0  0  0  0  0  0  0  0  0  0  0  0
    5.5640   -3.4464    0.0000 C   0  0  0  0  0  0  0  0  0  0  0  0
    3.8319   -2.4464    0.0000 C   0  0  0  0  0  0  0  0  0  0  0  0
    4.6979   -3.9464    0.0000 C   0  0  0  0  0  0  0  0  0  0  0  0
    3.8319   -3.4464    0.0000 C   0  0  0  0  0  0  0  0  0  0  0  0
    8.2062    1.3981    0.0000 C   0  0  0  0  0  0  0  0  0  0  0  0
    3.5000   -5.0213    0.0000 C   0  0  0  0  0  0  0  0  0  0  0  0
    3.0000   -5.8873    0.0000 C   0  0  0  0  0  0  0  0  0  0  0  0
    9.7062    2.2641    0.0000 C   0  0  0  0  0  0  0  0  0  0  0  0
    2.0000   -5.8873    0.0000 C   0  0  0  0  0  0  0  0  0  0  0  0
   10.9087    3.3468    0.0000 C   0  0  0  0  0  0  0  0  0  0  0  0
   11.8222    3.7536    0.0000 C   0  0  0  0  0  0  0  0  0  0  0  0
   11.3699    1.6255    0.0000 C   0  0  0  0  0  0  0  0  0  0  0  0
   12.6312    3.1658    0.0000 C   0  0  0  0  0  0  0  0  0  0  0  0
   11.9267    4.7481    0.0000 C   0  0  0  0  0  0  0  0  0  0  0  0
   13.6493    4.5670    0.0000 C   0  0  0  0  0  0  0  0  0  0  0  0
   13.5448    3.5725    0.0000 C   0  0  0  0  0  0  0  0  0  0  0  0
   12.8403    5.1548    0.0000 C   0  0  0  0  0  0  0  0  0  0  0  0
   14.5628    4.9738    0.0000 C   0  0  0  0  0  0  0  0  0  0  0  0
    7.2977   -1.4519    0.0000 H   0  0  0  0  0  0  0  0  0  0  0  0
    7.1805   -0.6881    0.0000 H   0  0  0  0  0  0  0  0  0  0  0  0
    5.4124    0.3327    0.0000 H   0  0  0  0  0  0  0  0  0  0  0  0
    4.6923    0.0524    0.0000 H   0  0  0  0  0  0  0  0  0  0  0  0
    6.5705   -2.6945    0.0000 H   0  0  0  0  0  0  0  0  0  0  0  0
    7.0930   -2.1252    0.0000 H   0  0  0  0  0  0  0  0  0  0  0  0
    4.2116   -0.4616    0.0000 H   0  0  0  0  0  0  0  0  0  0  0  0
    3.9798   -1.1988    0.0000 H   0  0  0  0  0  0  0  0  0  0  0  0
    6.8139    1.1427    0.0000 H   0  0  0  0  0  0  0  0  0  0  0  0
    6.1236    0.7441    0.0000 H   0  0  0  0  0  0  0  0  0  0  0  0
    7.5986   -0.0785    0.0000 H   0  0  0  0  0  0  0  0  0  0  0  0
    8.2888    0.3200    0.0000 H   0  0  0  0  0  0  0  0  0  0  0  0
    6.1009   -3.7564    0.0000 H   0  0  0  0  0  0  0  0  0  0  0  0
    3.2950   -2.1364    0.0000 H   0  0  0  0  0  0  0  0  0  0  0  0
    8.3139    2.0087    0.0000 H   0  0  0  0  0  0  0  0  0  0  0  0
    7.6236    1.6102    0.0000 H   0  0  0  0  0  0  0  0  0  0  0  0
    2.8923   -6.4979    0.0000 H   0  0  0  0  0  0  0  0  0  0  0  0
    3.5826   -6.0994    0.0000 H   0  0  0  0  0  0  0  0  0  0  0  0
    2.0000   -5.2673    0.0000 H   0  0  0  0  0  0  0  0  0  0  0  0
    1.3800   -5.8873    0.0000 H   0  0  0  0  0  0  0  0  0  0  0  0
    2.0000   -6.5073    0.0000 H   0  0  0  0  0  0  0  0  0  0  0  0
   10.9091    1.2107    0.0000 H   0  0  0  0  0  0  0  0  0  0  0  0
   11.7847    1.1648    0.0000 H   0  0  0  0  0  0  0  0  0  0  0  0
   11.8306    2.0404    0.0000 H   0  0  0  0  0  0  0  0  0  0  0  0
   12.5664    2.5492    0.0000 H   0  0  0  0  0  0  0  0  0  0  0  0
   11.4251    5.1125    0.0000 H   0  0  0  0  0  0  0  0  0  0  0  0
   14.0464    3.2081    0.0000 H   0  0  0  0  0  0  0  0  0  0  0  0
   12.9051    5.7714    0.0000 H   0  0  0  0  0  0  0  0  0  0  0  0
  1 23  1  0  0  0  0
  1 26  1  0  0  0  0
  2 36  1  0  0  0  0
  3 36  1  0  0  0  0
  4 36  1  0  0  0  0
  5 21  1  0  0  0  0
  5 24  1  0  0  0  0
  6 11  1  0  0  0  0
  6 12  1  0  0  0  0
  6 17  1  0  0  0  0
  7 22  1  0  0  0  0
  7 24  2  0  0  0  0
  8 26  1  0  0  0  0
  8 28  1  0  0  0  0
  8 30  1  0  0  0  0
  9 10  1  0  0  0  0
  9 26  2  0  0  0  0
 10 28  2  0  0  0  0
 11 13  1  0  0  0  0
 11 37  1  0  0  0  0
 11 38  1  0  0  0  0
 12 14  1  0  0  0  0
 12 39  1  0  0  0  0
 12 40  1  0  0  0  0
 13 15  1  0  0  0  0
 13 41  1  0  0  0  0
 13 42  1  0  0  0  0
 14 16  1  0  0  0  0
 14 43  1  0  0  0  0
 14 44  1  0  0  0  0
 15 16  1  0  0  0  0
 15 19  2  0  0  0  0
 16 20  2  0  0  0  0
 17 18  1  0  0  0  0
 17 45  1  0  0  0  0
 17 46  1  0  0  0  0
 18 23  1  0  0  0  0
 18 47  1  0  0  0  0
 18 48  1  0  0  0  0
 19 21  1  0  0  0  0
 19 49  1  0  0  0  0
 20 22  1  0  0  0  0
 20 50  1  0  0  0  0
 21 22  2  0  0  0  0
 23 51  1  0  0  0  0
 23 52  1  0  0  0  0
 24 25  1  0  0  0  0
 25 27  1  0  0  0  0
 25 53  1  0  0  0  0
 25 54  1  0  0  0  0
 27 55  1  0  0  0  0
 27 56  1  0  0  0  0
 27 57  1  0  0  0  0
 28 29  1  0  0  0  0
 29 31  2  0  0  0  0
 29 32  1  0  0  0  0
 30 58  1  0  0  0  0
 30 59  1  0  0  0  0
 30 60  1  0  0  0  0
 31 34  1  0  0  0  0
 31 61  1  0  0  0  0
 32 35  2  0  0  0  0
 32 62  1  0  0  0  0
 33 34  2  0  0  0  0
 33 35  1  0  0  0  0
 33 36  1  0  0  0  0
 34 63  1  0  0  0  0
 35 64  1  0  0  0  0
M  END
> <PUBCHEM_COMPOUND_CID>
11591633

> <PUBCHEM_COMPOUND_CANONICALIZED>
1

> <PUBCHEM_CACTVS_COMPLEXITY>
710

> <PUBCHEM_CACTVS_HBOND_ACCEPTOR>
9

> <PUBCHEM_CACTVS_HBOND_DONOR>
0

> <PUBCHEM_CACTVS_ROTATABLE_BOND>
7

> <PUBCHEM_CACTVS_SUBSKEYS>
AAADceB7oYBAAAAAAAAAAAAAAAAAAWLAAAAwYAAABYAAAFgB/AAAHwQIAAAADAzF3xSz1rcMFEiqA6dydASS2CtvYrAd2CG/bNiOLrLkvbuPOSjkzBPY6YeY2bKO6AABQAAQEADQAAKAACAgAAAAAAAAAA==

> <PUBCHEM_IUPAC_OPENEYE_NAME>
2-ethyl-7-[3-[[4-methyl-5-[4-(trifluoromethyl)phenyl]-1,2,4-triazol-3-yl]sulfanyl]propyl]-5,6,8,9-tetrahydrooxazolo[4,5-h][3]benzazepine

> <PUBCHEM_IUPAC_CAS_NAME>
2-ethyl-7-[3-[[4-methyl-5-[4-(trifluoromethyl)phenyl]-1,2,4-triazol-3-yl]thio]propyl]-5,6,8,9-tetrahydrooxazolo[4,5-h][3]benzazepine

> <PUBCHEM_IUPAC_NAME_MARKUP>
2-ethyl-7-[3-[[4-methyl-5-[4-(trifluoromethyl)phenyl]-1,2,4-triazol-3-yl]sulfanyl]propyl]-5,6,8,9-tetrahydro-[1,3]oxazolo[4,5-h][3]benzazepine

> <PUBCHEM_IUPAC_NAME>
2-ethyl-7-[3-[[4-methyl-5-[4-(trifluoromethyl)phenyl]-1,2,4-triazol-3-yl]sulfanyl]propyl]-5,6,8,9-tetrahydro-[1,3]oxazolo[4,5-h][3]benzazepine

> <PUBCHEM_IUPAC_SYSTEMATIC_NAME>
2-ethyl-7-[3-[[4-methyl-5-[4-(trifluoromethyl)phenyl]-1,2,4-triazol-3-yl]sulfanyl]propyl]-5,6,8,9-tetrahydro-[1,3]oxazolo[4,5-h][3]benzazepine

> <PUBCHEM_IUPAC_TRADITIONAL_NAME>
2-ethyl-7-[3-[[4-methyl-5-[4-(trifluoromethyl)phenyl]-1,2,4-triazol-3-yl]thio]propyl]-5,6,8,9-tetrahydrooxazolo[4,5-h][3]benzazepine

> <PUBCHEM_IUPAC_INCHI>
InChI=1S/C26H28F3N5OS/c1-3-23-30-21-15-18-9-12-34(13-10-19(18)16-22(21)35-23)11-4-14-36-25-32-31-24(33(25)2)17-5-7-20(8-6-17)26(27,28)29/h5-8,15-16H,3-4,9-14H2,1-2H3

> <PUBCHEM_IUPAC_INCHIKEY>
QRWDBCPLADXSGV-UHFFFAOYSA-N

> <PUBCHEM_XLOGP3_AA>
5.9

> <PUBCHEM_EXACT_MASS>
515.19666619

> <PUBCHEM_MOLECULAR_FORMULA>
C26H28F3N5OS

> <PUBCHEM_MOLECULAR_WEIGHT>
515.6

> <PUBCHEM_OPENEYE_CAN_SMILES>
CCC1=NC2=C(O1)C=C3CCN(CCC3=C2)CCCSC4=NN=C(N4C)C5=CC=C(C=C5)C(F)(F)F

> <PUBCHEM_OPENEYE_ISO_SMILES>
CCC1=NC2=C(O1)C=C3CCN(CCC3=C2)CCCSC4=NN=C(N4C)C5=CC=C(C=C5)C(F)(F)F

> <PUBCHEM_CACTVS_TPSA>
85.3

> <PUBCHEM_MONOISOTOPIC_WEIGHT>
515.19666619

> <PUBCHEM_TOTAL_CHARGE>
0

> <PUBCHEM_HEAVY_ATOM_COUNT>
36

> <PUBCHEM_ATOM_DEF_STEREO_COUNT>
0

> <PUBCHEM_ATOM_UDEF_STEREO_COUNT>
0

> <PUBCHEM_BOND_DEF_STEREO_COUNT>
0

> <PUBCHEM_BOND_UDEF_STEREO_COUNT>
0

> <PUBCHEM_ISOTOPIC_ATOM_COUNT>
0

> <PUBCHEM_COMPONENT_COUNT>
1

> <PUBCHEM_CACTVS_TAUTO_COUNT>
-1

> <PUBCHEM_COORDINATE_TYPE>
1
5
255

> <PUBCHEM_BONDANNOTATIONS>
10  28  8
15  16  8
15  19  8
16  20  8
19  21  8
20  22  8
21  22  8
29  31  8
29  32  8
31  34  8
32  35  8
33  34  8
33  35  8
5  21  8
5  24  8
7  22  8
7  24  8
8  26  8
8  28  8
9  10  8
9  26  8

$$$$
