121304428
  -OEChem-09292322372D

 64 68  0     1  0  0  0  0  0999 V2000
    6.2228    1.6841    0.0000 S   0  0  0  0  0  0  0  0  0  0  0  0
   11.9150   -6.6659    0.0000 F   0  0  0  0  0  0  0  0  0  0  0  0
   10.5490   -7.0319    0.0000 F   0  0  0  0  0  0  0  0  0  0  0  0
   11.5490   -5.2999    0.0000 F   0  0  0  0  0  0  0  0  0  0  0  0
    3.4030    4.0319    0.0000 O   0  0  0  0  0  0  0  0  0  0  0  0
    6.5849   -1.7610    0.0000 N   0  0  3  0  0  0  0  0  0  0  0  0
    5.9440    3.4442    0.0000 N   0  0  0  0  0  0  0  0  0  0  0  0
    4.6350    2.4931    0.0000 N   0  0  0  0  0  0  0  0  0  0  0  0
    4.3260    3.4442    0.0000 N   0  0  0  0  0  0  0  0  0  0  0  0
    2.5369    5.5319    0.0000 N   0  0  0  0  0  0  0  0  0  0  0  0
    7.0849   -3.2999    0.0000 C   0  0  2  0  0  0  0  0  0  0  0  0
    7.5849   -4.1659    0.0000 C   0  0  2  0  0  0  0  0  0  0  0  0
    6.5849   -4.1659    0.0000 C   0  0  0  0  0  0  0  0  0  0  0  0
    7.8939   -2.7121    0.0000 C   0  0  0  0  0  0  0  0  0  0  0  0
    6.2759   -2.7121    0.0000 C   0  0  0  0  0  0  0  0  0  0  0  0
    7.5849   -1.7610    0.0000 C   0  0  0  0  0  0  0  0  0  0  0  0
    8.4509   -4.6659    0.0000 C   0  0  0  0  0  0  0  0  0  0  0  0
    5.9971   -0.9520    0.0000 C   0  0  0  0  0  0  0  0  0  0  0  0
    9.3170   -4.1659    0.0000 C   0  0  0  0  0  0  0  0  0  0  0  0
    8.4509   -5.6659    0.0000 C   0  0  0  0  0  0  0  0  0  0  0  0
    6.4038   -0.0385    0.0000 C   0  0  0  0  0  0  0  0  0  0  0  0
   10.1830   -4.6659    0.0000 C   0  0  0  0  0  0  0  0  0  0  0  0
    9.3170   -6.1659    0.0000 C   0  0  0  0  0  0  0  0  0  0  0  0
   10.1830   -5.6659    0.0000 C   0  0  0  0  0  0  0  0  0  0  0  0
    5.8161    0.7705    0.0000 C   0  0  0  0  0  0  0  0  0  0  0  0
   11.0490   -6.1659    0.0000 C   0  0  0  0  0  0  0  0  0  0  0  0
    5.6350    2.4931    0.0000 C   0  0  0  0  0  0  0  0  0  0  0  0
    5.1350    4.0319    0.0000 C   0  0  0  0  0  0  0  0  0  0  0  0
    6.8951    3.7532    0.0000 C   0  0  0  0  0  0  0  0  0  0  0  0
    5.1350    5.0319    0.0000 C   0  0  0  0  0  0  0  0  0  0  0  0
    4.2690    5.5319    0.0000 C   0  0  0  0  0  0  0  0  0  0  0  0
    6.0010    5.5319    0.0000 C   0  0  0  0  0  0  0  0  0  0  0  0
    4.2690    6.5319    0.0000 C   0  0  0  0  0  0  0  0  0  0  0  0
    6.0010    6.5319    0.0000 C   0  0  0  0  0  0  0  0  0  0  0  0
    3.4030    5.0319    0.0000 C   0  0  0  0  0  0  0  0  0  0  0  0
    5.1350    7.0319    0.0000 C   0  0  0  0  0  0  0  0  0  0  0  0
    7.4244   -4.7648    0.0000 H   0  0  0  0  0  0  0  0  0  0  0  0
    6.0023   -3.9539    0.0000 H   0  0  0  0  0  0  0  0  0  0  0  0
    6.4772   -4.7765    0.0000 H   0  0  0  0  0  0  0  0  0  0  0  0
    8.2039   -3.2490    0.0000 H   0  0  0  0  0  0  0  0  0  0  0  0
    8.4603   -2.4599    0.0000 H   0  0  0  0  0  0  0  0  0  0  0  0
    5.7095   -2.4599    0.0000 H   0  0  0  0  0  0  0  0  0  0  0  0
    5.9659   -3.2490    0.0000 H   0  0  0  0  0  0  0  0  0  0  0  0
    8.1914   -1.6321    0.0000 H   0  0  0  0  0  0  0  0  0  0  0  0
    7.5201   -1.1444    0.0000 H   0  0  0  0  0  0  0  0  0  0  0  0
    5.4831   -0.6053    0.0000 H   0  0  0  0  0  0  0  0  0  0  0  0
    5.5664   -1.3980    0.0000 H   0  0  0  0  0  0  0  0  0  0  0  0
    9.3170   -3.5459    0.0000 H   0  0  0  0  0  0  0  0  0  0  0  0
    7.9140   -5.9759    0.0000 H   0  0  0  0  0  0  0  0  0  0  0  0
    6.9178   -0.3852    0.0000 H   0  0  0  0  0  0  0  0  0  0  0  0
    6.8345    0.4075    0.0000 H   0  0  0  0  0  0  0  0  0  0  0  0
   10.7199   -4.3559    0.0000 H   0  0  0  0  0  0  0  0  0  0  0  0
    9.3170   -6.7859    0.0000 H   0  0  0  0  0  0  0  0  0  0  0  0
    5.3021    1.1172    0.0000 H   0  0  0  0  0  0  0  0  0  0  0  0
    5.3854    0.3245    0.0000 H   0  0  0  0  0  0  0  0  0  0  0  0
    7.0867    3.1635    0.0000 H   0  0  0  0  0  0  0  0  0  0  0  0
    7.4847    3.9448    0.0000 H   0  0  0  0  0  0  0  0  0  0  0  0
    6.7035    4.3428    0.0000 H   0  0  0  0  0  0  0  0  0  0  0  0
    6.5380    5.2219    0.0000 H   0  0  0  0  0  0  0  0  0  0  0  0
    3.7320    6.8419    0.0000 H   0  0  0  0  0  0  0  0  0  0  0  0
    6.5380    6.8419    0.0000 H   0  0  0  0  0  0  0  0  0  0  0  0
    5.1350    7.6519    0.0000 H   0  0  0  0  0  0  0  0  0  0  0  0
    2.0000    5.2219    0.0000 H   0  0  0  0  0  0  0  0  0  0  0  0
    2.5369    6.1519    0.0000 H   0  0  0  0  0  0  0  0  0  0  0  0
  1 25  1  0  0  0  0
  1 27  1  0  0  0  0
  2 26  1  0  0  0  0
  3 26  1  0  0  0  0
  4 26  1  0  0  0  0
  5 35  2  0  0  0  0
  6 15  1  0  0  0  0
  6 16  1  0  0  0  0
  6 18  1  0  0  0  0
  7 27  1  0  0  0  0
  7 28  1  0  0  0  0
  7 29  1  0  0  0  0
  8  9  1  0  0  0  0
  8 27  2  0  0  0  0
  9 28  2  0  0  0  0
 10 35  1  0  0  0  0
 10 63  1  0  0  0  0
 10 64  1  0  0  0  0
 11 12  1  0  0  0  0
 11 13  1  6  0  0  0
 11 14  1  0  0  0  0
 11 15  1  0  0  0  0
 12 13  1  0  0  0  0
 12 17  1  1  0  0  0
 12 37  1  0  0  0  0
 13 38  1  0  0  0  0
 13 39  1  0  0  0  0
 14 16  1  0  0  0  0
 14 40  1  0  0  0  0
 14 41  1  0  0  0  0
 15 42  1  0  0  0  0
 15 43  1  0  0  0  0
 16 44  1  0  0  0  0
 16 45  1  0  0  0  0
 17 19  2  0  0  0  0
 17 20  1  0  0  0  0
 18 21  1  0  0  0  0
 18 46  1  0  0  0  0
 18 47  1  0  0  0  0
 19 22  1  0  0  0  0
 19 48  1  0  0  0  0
 20 23  2  0  0  0  0
 20 49  1  0  0  0  0
 21 25  1  0  0  0  0
 21 50  1  0  0  0  0
 21 51  1  0  0  0  0
 22 24  2  0  0  0  0
 22 52  1  0  0  0  0
 23 24  1  0  0  0  0
 23 53  1  0  0  0  0
 24 26  1  0  0  0  0
 25 54  1  0  0  0  0
 25 55  1  0  0  0  0
 28 30  1  0  0  0  0
 29 56  1  0  0  0  0
 29 57  1  0  0  0  0
 29 58  1  0  0  0  0
 30 31  1  0  0  0  0
 30 32  2  0  0  0  0
 31 33  2  0  0  0  0
 31 35  1  0  0  0  0
 32 34  1  0  0  0  0
 32 59  1  0  0  0  0
 33 36  1  0  0  0  0
 33 60  1  0  0  0  0
 34 36  2  0  0  0  0
 34 61  1  0  0  0  0
 36 62  1  0  0  0  0
M  END
> <PUBCHEM_COMPOUND_CID>
121304428

> <PUBCHEM_COMPOUND_CANONICALIZED>
1

> <PUBCHEM_CACTVS_COMPLEXITY>
779

> <PUBCHEM_CACTVS_HBOND_ACCEPTOR>
8

> <PUBCHEM_CACTVS_HBOND_DONOR>
1

> <PUBCHEM_CACTVS_ROTATABLE_BOND>
8

> <PUBCHEM_CACTVS_SUBSKEYS>
AAADceB7oYBAAAAAAAAAAAAAGAAAAWLAAAAwYAAAAAAAAAAB0AAAHwQYAAAADwDF2xSzEIdMEAiqAiNyNACS0AtkALAdyCEoBNiIKLKgnRGEIQhgiAKIiYcciMCPwAAAAAAQAACAAAAAACAAAAAAAAAAAA==

> <PUBCHEM_IUPAC_OPENEYE_NAME>
2-[4-methyl-5-[3-[(2R,3S)-2-[4-(trifluoromethyl)phenyl]-5-azaspiro[2.4]heptan-5-yl]propylsulfanyl]-1,2,4-triazol-3-yl]benzamide

> <PUBCHEM_IUPAC_CAS_NAME>
2-[4-methyl-5-[3-[(2R,3S)-2-[4-(trifluoromethyl)phenyl]-5-azaspiro[2.4]heptan-5-yl]propylthio]-1,2,4-triazol-3-yl]benzamide

> <PUBCHEM_IUPAC_NAME_MARKUP>
2-[4-methyl-5-[3-[(2<I>R</I>,3<I>S</I>)-2-[4-(trifluoromethyl)phenyl]-5-azaspiro[2.4]heptan-5-yl]propylsulfanyl]-1,2,4-triazol-3-yl]benzamide

> <PUBCHEM_IUPAC_NAME>
2-[4-methyl-5-[3-[(2R,3S)-2-[4-(trifluoromethyl)phenyl]-5-azaspiro[2.4]heptan-5-yl]propylsulfanyl]-1,2,4-triazol-3-yl]benzamide

> <PUBCHEM_IUPAC_SYSTEMATIC_NAME>
2-[4-methyl-5-[3-[(2R,3S)-2-[4-(trifluoromethyl)phenyl]-5-azaspiro[2.4]heptan-5-yl]propylsulfanyl]-1,2,4-triazol-3-yl]benzamide

> <PUBCHEM_IUPAC_TRADITIONAL_NAME>
2-[4-methyl-5-[3-[(2R,3S)-2-[4-(trifluoromethyl)phenyl]-5-azaspiro[2.4]heptan-5-yl]propylthio]-1,2,4-triazol-3-yl]benzamide

> <PUBCHEM_IUPAC_INCHI>
InChI=1S/C26H28F3N5OS/c1-33-23(20-6-3-2-5-19(20)22(30)35)31-32-24(33)36-14-4-12-34-13-11-25(16-34)15-21(25)17-7-9-18(10-8-17)26(27,28)29/h2-3,5-10,21H,4,11-16H2,1H3,(H2,30,35)/t21-,25+/m1/s1

> <PUBCHEM_IUPAC_INCHIKEY>
PGNPMTAEFDKCKN-BWKNWUBXSA-N

> <PUBCHEM_XLOGP3_AA>
4.2

> <PUBCHEM_EXACT_MASS>
515.19666619

> <PUBCHEM_MOLECULAR_FORMULA>
C26H28F3N5OS

> <PUBCHEM_MOLECULAR_WEIGHT>
515.6

> <PUBCHEM_OPENEYE_CAN_SMILES>
CN1C(=NN=C1SCCCN2CCC3(C2)CC3C4=CC=C(C=C4)C(F)(F)F)C5=CC=CC=C5C(=O)N

> <PUBCHEM_OPENEYE_ISO_SMILES>
CN1C(=NN=C1SCCCN2CC[C@@]3(C2)C[C@@H]3C4=CC=C(C=C4)C(F)(F)F)C5=CC=CC=C5C(=O)N

> <PUBCHEM_CACTVS_TPSA>
102

> <PUBCHEM_MONOISOTOPIC_WEIGHT>
515.19666619

> <PUBCHEM_TOTAL_CHARGE>
0

> <PUBCHEM_HEAVY_ATOM_COUNT>
36

> <PUBCHEM_ATOM_DEF_STEREO_COUNT>
2

> <PUBCHEM_ATOM_UDEF_STEREO_COUNT>
0

> <PUBCHEM_BOND_DEF_STEREO_COUNT>
0

> <PUBCHEM_BOND_UDEF_STEREO_COUNT>
0

> <PUBCHEM_ISOTOPIC_ATOM_COUNT>
0

> <PUBCHEM_COMPONENT_COUNT>
1

> <PUBCHEM_CACTVS_TAUTO_COUNT>
-1

> <PUBCHEM_COORDINATE_TYPE>
1
5
255

> <PUBCHEM_BONDANNOTATIONS>
11  13  6
12  17  5
17  19  8
17  20  8
19  22  8
20  23  8
22  24  8
23  24  8
30  31  8
30  32  8
31  33  8
32  34  8
33  36  8
34  36  8
7  27  8
7  28  8
8  27  8
8  9  8
9  28  8

$$$$
