24754914
  -OEChem-09292322262D

 68 72  0     1  0  0  0  0  0999 V2000
    8.8712   -2.8184    0.0000 S   0  0  0  0  0  0  0  0  0  0  0  0
   14.1904    0.2453    0.0000 O   0  0  0  0  0  0  0  0  0  0  0  0
    8.9282    0.2694    0.0000 N   0  0  3  0  0  0  0  0  0  0  0  0
    6.3301    0.7694    0.0000 N   0  0  0  0  0  0  0  0  0  0  0  0
    4.5981    1.7694    0.0000 N   0  0  0  0  0  0  0  0  0  0  0  0
    9.7942    0.7694    0.0000 C   0  0  3  0  0  0  0  0  0  0  0  0
    9.7942    1.7694    0.0000 C   0  0  0  0  0  0  0  0  0  0  0  0
   10.6603    0.2694    0.0000 C   0  0  0  0  0  0  0  0  0  0  0  0
    8.0622    0.7694    0.0000 C   0  0  0  0  0  0  0  0  0  0  0  0
   10.6603    2.2694    0.0000 C   0  0  0  0  0  0  0  0  0  0  0  0
    7.1962    0.2694    0.0000 C   0  0  0  0  0  0  0  0  0  0  0  0
   11.5263    0.7694    0.0000 C   0  0  0  0  0  0  0  0  0  0  0  0
    8.9282   -0.7306    0.0000 C   0  0  0  0  0  0  0  0  0  0  0  0
   11.5263    1.7694    0.0000 C   0  0  0  0  0  0  0  0  0  0  0  0
    6.3301    1.7694    0.0000 C   0  0  0  0  0  0  0  0  0  0  0  0
    5.4641    0.2694    0.0000 C   0  0  0  0  0  0  0  0  0  0  0  0
    5.4641    2.2694    0.0000 C   0  0  0  0  0  0  0  0  0  0  0  0
    4.5981    0.7694    0.0000 C   0  0  0  0  0  0  0  0  0  0  0  0
    8.0622   -1.2306    0.0000 C   0  0  0  0  0  0  0  0  0  0  0  0
   12.4202    0.2348    0.0000 C   0  0  0  0  0  0  0  0  0  0  0  0
   12.4202    2.3041    0.0000 C   0  0  0  0  0  0  0  0  0  0  0  0
    3.7320    2.2694    0.0000 C   0  0  0  0  0  0  0  0  0  0  0  0
   13.3263    0.7486    0.0000 C   0  0  0  0  0  0  0  0  0  0  0  0
   13.3263    1.7902    0.0000 C   0  0  0  0  0  0  0  0  0  0  0  0
    8.0622   -2.2306    0.0000 C   0  0  0  0  0  0  0  0  0  0  0  0
    3.7320    3.2694    0.0000 C   0  0  0  0  0  0  0  0  0  0  0  0
    2.8660    1.7694    0.0000 C   0  0  0  0  0  0  0  0  0  0  0  0
    7.2532   -2.8184    0.0000 C   0  0  0  0  0  0  0  0  0  0  0  0
    2.8660    3.7694    0.0000 C   0  0  0  0  0  0  0  0  0  0  0  0
    2.0000    2.2694    0.0000 C   0  0  0  0  0  0  0  0  0  0  0  0
    7.5622   -3.7694    0.0000 C   0  0  0  0  0  0  0  0  0  0  0  0
    8.5622   -3.7694    0.0000 C   0  0  0  0  0  0  0  0  0  0  0  0
    2.0000    3.2694    0.0000 C   0  0  0  0  0  0  0  0  0  0  0  0
    9.2573    1.0794    0.0000 H   0  0  0  0  0  0  0  0  0  0  0  0
    9.5822    2.3520    0.0000 H   0  0  0  0  0  0  0  0  0  0  0  0
    9.1836    1.6618    0.0000 H   0  0  0  0  0  0  0  0  0  0  0  0
   10.2617   -0.2055    0.0000 H   0  0  0  0  0  0  0  0  0  0  0  0
   11.0588   -0.2055    0.0000 H   0  0  0  0  0  0  0  0  0  0  0  0
    8.4607    1.2444    0.0000 H   0  0  0  0  0  0  0  0  0  0  0  0
    7.6636    1.2444    0.0000 H   0  0  0  0  0  0  0  0  0  0  0  0
   11.0588    2.7444    0.0000 H   0  0  0  0  0  0  0  0  0  0  0  0
   10.2617    2.7444    0.0000 H   0  0  0  0  0  0  0  0  0  0  0  0
    6.7976   -0.2055    0.0000 H   0  0  0  0  0  0  0  0  0  0  0  0
    7.5947   -0.2055    0.0000 H   0  0  0  0  0  0  0  0  0  0  0  0
    9.1403   -1.3132    0.0000 H   0  0  0  0  0  0  0  0  0  0  0  0
    9.5388   -0.6229    0.0000 H   0  0  0  0  0  0  0  0  0  0  0  0
    6.9407    1.6618    0.0000 H   0  0  0  0  0  0  0  0  0  0  0  0
    6.5422    2.3520    0.0000 H   0  0  0  0  0  0  0  0  0  0  0  0
    5.0656   -0.2055    0.0000 H   0  0  0  0  0  0  0  0  0  0  0  0
    5.8626   -0.2055    0.0000 H   0  0  0  0  0  0  0  0  0  0  0  0
    5.8626    2.7444    0.0000 H   0  0  0  0  0  0  0  0  0  0  0  0
    5.0656    2.7444    0.0000 H   0  0  0  0  0  0  0  0  0  0  0  0
    3.9875    0.8771    0.0000 H   0  0  0  0  0  0  0  0  0  0  0  0
    4.3860    0.1868    0.0000 H   0  0  0  0  0  0  0  0  0  0  0  0
    7.8501   -0.6480    0.0000 H   0  0  0  0  0  0  0  0  0  0  0  0
    7.4516   -1.3382    0.0000 H   0  0  0  0  0  0  0  0  0  0  0  0
   12.4131   -0.3852    0.0000 H   0  0  0  0  0  0  0  0  0  0  0  0
   12.4131    2.9240    0.0000 H   0  0  0  0  0  0  0  0  0  0  0  0
   13.8620    2.1023    0.0000 H   0  0  0  0  0  0  0  0  0  0  0  0
    4.2690    3.5794    0.0000 H   0  0  0  0  0  0  0  0  0  0  0  0
    2.8660    1.1494    0.0000 H   0  0  0  0  0  0  0  0  0  0  0  0
    6.6635   -2.6268    0.0000 H   0  0  0  0  0  0  0  0  0  0  0  0
   14.7285    0.5532    0.0000 H   0  0  0  0  0  0  0  0  0  0  0  0
    2.8660    4.3894    0.0000 H   0  0  0  0  0  0  0  0  0  0  0  0
    1.4631    1.9594    0.0000 H   0  0  0  0  0  0  0  0  0  0  0  0
    7.1978   -4.2710    0.0000 H   0  0  0  0  0  0  0  0  0  0  0  0
    8.9266   -4.2710    0.0000 H   0  0  0  0  0  0  0  0  0  0  0  0
    1.4631    3.5794    0.0000 H   0  0  0  0  0  0  0  0  0  0  0  0
  1 25  1  0  0  0  0
  1 32  1  0  0  0  0
  2 23  1  0  0  0  0
  2 63  1  0  0  0  0
  3  6  1  0  0  0  0
  3  9  1  0  0  0  0
  3 13  1  0  0  0  0
  4 11  1  0  0  0  0
  4 15  1  0  0  0  0
  4 16  1  0  0  0  0
  5 17  1  0  0  0  0
  5 18  1  0  0  0  0
  5 22  1  0  0  0  0
  6  7  1  0  0  0  0
  6  8  1  0  0  0  0
  6 34  1  0  0  0  0
  7 10  1  0  0  0  0
  7 35  1  0  0  0  0
  7 36  1  0  0  0  0
  8 12  1  0  0  0  0
  8 37  1  0  0  0  0
  8 38  1  0  0  0  0
  9 11  1  0  0  0  0
  9 39  1  0  0  0  0
  9 40  1  0  0  0  0
 10 14  1  0  0  0  0
 10 41  1  0  0  0  0
 10 42  1  0  0  0  0
 11 43  1  0  0  0  0
 11 44  1  0  0  0  0
 12 14  2  0  0  0  0
 12 20  1  0  0  0  0
 13 19  1  0  0  0  0
 13 45  1  0  0  0  0
 13 46  1  0  0  0  0
 14 21  1  0  0  0  0
 15 17  1  0  0  0  0
 15 47  1  0  0  0  0
 15 48  1  0  0  0  0
 16 18  1  0  0  0  0
 16 49  1  0  0  0  0
 16 50  1  0  0  0  0
 17 51  1  0  0  0  0
 17 52  1  0  0  0  0
 18 53  1  0  0  0  0
 18 54  1  0  0  0  0
 19 25  1  0  0  0  0
 19 55  1  0  0  0  0
 19 56  1  0  0  0  0
 20 23  2  0  0  0  0
 20 57  1  0  0  0  0
 21 24  2  0  0  0  0
 21 58  1  0  0  0  0
 22 26  2  0  0  0  0
 22 27  1  0  0  0  0
 23 24  1  0  0  0  0
 24 59  1  0  0  0  0
 25 28  2  0  0  0  0
 26 29  1  0  0  0  0
 26 60  1  0  0  0  0
 27 30  2  0  0  0  0
 27 61  1  0  0  0  0
 28 31  1  0  0  0  0
 28 62  1  0  0  0  0
 29 33  2  0  0  0  0
 29 64  1  0  0  0  0
 30 33  1  0  0  0  0
 30 65  1  0  0  0  0
 31 32  2  0  0  0  0
 31 66  1  0  0  0  0
 32 67  1  0  0  0  0
 33 68  1  0  0  0  0
M  END
> <PUBCHEM_COMPOUND_CID>
24754914

> <PUBCHEM_COMPOUND_CANONICALIZED>
1

> <PUBCHEM_CACTVS_COMPLEXITY>
578

> <PUBCHEM_CACTVS_HBOND_ACCEPTOR>
5

> <PUBCHEM_CACTVS_HBOND_DONOR>
1

> <PUBCHEM_CACTVS_ROTATABLE_BOND>
8

> <PUBCHEM_CACTVS_SUBSKEYS>
AAADcfB7IABAAAAAAAAAAAAAAAAAASAAAAA8YMEAAAAAAADB0AAAHgQACAAADCzF2ASwx4MAAgiEAiRCQACDAIAhKhBIiBgObIgIZiLikZOUcAhkwBHo2AeQ0LMOoAABAAAQAABQAAKAACAAAAAAAAAAAA==

> <PUBCHEM_IUPAC_OPENEYE_NAME>
3-[2-(4-phenylpiperazin-1-yl)ethyl-[2-(2-thienyl)ethyl]amino]tetralin-6-ol

> <PUBCHEM_IUPAC_CAS_NAME>
7-[2-(4-phenyl-1-piperazinyl)ethyl-(2-thiophen-2-ylethyl)amino]-5,6,7,8-tetrahydronaphthalen-2-ol

> <PUBCHEM_IUPAC_NAME_MARKUP>
7-[2-(4-phenylpiperazin-1-yl)ethyl-(2-thiophen-2-ylethyl)amino]-5,6,7,8-tetrahydronaphthalen-2-ol

> <PUBCHEM_IUPAC_NAME>
7-[2-(4-phenylpiperazin-1-yl)ethyl-(2-thiophen-2-ylethyl)amino]-5,6,7,8-tetrahydronaphthalen-2-ol

> <PUBCHEM_IUPAC_SYSTEMATIC_NAME>
7-[2-(4-phenylpiperazin-1-yl)ethyl-(2-thiophen-2-ylethyl)amino]-5,6,7,8-tetrahydronaphthalen-2-ol

> <PUBCHEM_IUPAC_TRADITIONAL_NAME>
3-[2-(4-phenylpiperazino)ethyl-[2-(2-thienyl)ethyl]amino]tetralin-6-ol

> <PUBCHEM_IUPAC_INCHI>
InChI=1S/C28H35N3OS/c32-27-11-9-23-8-10-26(21-24(23)22-27)30(13-12-28-7-4-20-33-28)17-14-29-15-18-31(19-16-29)25-5-2-1-3-6-25/h1-7,9,11,20,22,26,32H,8,10,12-19,21H2

> <PUBCHEM_IUPAC_INCHIKEY>
KNYXBOOAPFHWMJ-UHFFFAOYSA-N

> <PUBCHEM_XLOGP3_AA>
5.6

> <PUBCHEM_EXACT_MASS>
461.25008392

> <PUBCHEM_MOLECULAR_FORMULA>
C28H35N3OS

> <PUBCHEM_MOLECULAR_WEIGHT>
461.7

> <PUBCHEM_OPENEYE_CAN_SMILES>
C1CC2=C(CC1N(CCC3=CC=CS3)CCN4CCN(CC4)C5=CC=CC=C5)C=C(C=C2)O

> <PUBCHEM_OPENEYE_ISO_SMILES>
C1CC2=C(CC1N(CCC3=CC=CS3)CCN4CCN(CC4)C5=CC=CC=C5)C=C(C=C2)O

> <PUBCHEM_CACTVS_TPSA>
58.2

> <PUBCHEM_MONOISOTOPIC_WEIGHT>
461.25008392

> <PUBCHEM_TOTAL_CHARGE>
0

> <PUBCHEM_HEAVY_ATOM_COUNT>
33

> <PUBCHEM_ATOM_DEF_STEREO_COUNT>
0

> <PUBCHEM_ATOM_UDEF_STEREO_COUNT>
1

> <PUBCHEM_BOND_DEF_STEREO_COUNT>
0

> <PUBCHEM_BOND_UDEF_STEREO_COUNT>
0

> <PUBCHEM_ISOTOPIC_ATOM_COUNT>
0

> <PUBCHEM_COMPONENT_COUNT>
1

> <PUBCHEM_CACTVS_TAUTO_COUNT>
-1

> <PUBCHEM_COORDINATE_TYPE>
1
5
255

> <PUBCHEM_BONDANNOTATIONS>
1  25  8
1  32  8
12  14  8
12  20  8
14  21  8
20  23  8
21  24  8
22  26  8
22  27  8
23  24  8
25  28  8
26  29  8
27  30  8
28  31  8
29  33  8
6  3  3
30  33  8
31  32  8

$$$$
