10683943
  -OEChem-09292322132D

 40 43  0     1  0  0  0  0  0999 V2000
    3.7894    2.2384    0.0000 O   0  0  0  0  0  0  0  0  0  0  0  0
    6.3903   -1.2831    0.0000 N   0  0  3  0  0  0  0  0  0  0  0  0
    5.5321   -0.7862    0.0000 C   0  0  1  0  0  0  0  0  0  0  0  0
    5.5321    0.2138    0.0000 C   0  0  0  0  0  0  0  0  0  0  0  0
    4.6660   -1.2862    0.0000 C   0  0  0  0  0  0  0  0  0  0  0  0
    6.4421    0.7207    0.0000 C   0  0  0  0  0  0  0  0  0  0  0  0
    7.2558   -0.7989    0.0000 C   0  0  0  0  0  0  0  0  0  0  0  0
    4.6660    0.7138    0.0000 C   0  0  0  0  0  0  0  0  0  0  0  0
    7.2814    0.1924    0.0000 C   0  0  0  0  0  0  0  0  0  0  0  0
    3.8000   -0.7862    0.0000 C   0  0  0  0  0  0  0  0  0  0  0  0
    3.8000    0.2138    0.0000 C   0  0  0  0  0  0  0  0  0  0  0  0
    6.3829   -2.2831    0.0000 C   0  0  0  0  0  0  0  0  0  0  0  0
    6.4501    1.7623    0.0000 C   0  0  0  0  0  0  0  0  0  0  0  0
    4.6500    1.7553    0.0000 C   0  0  0  0  0  0  0  0  0  0  0  0
    2.9061    0.7485    0.0000 C   0  0  0  0  0  0  0  0  0  0  0  0
    2.9061   -1.3208    0.0000 C   0  0  0  0  0  0  0  0  0  0  0  0
    5.5480    2.2831    0.0000 C   0  0  0  0  0  0  0  0  0  0  0  0
    2.0000    0.2346    0.0000 C   0  0  0  0  0  0  0  0  0  0  0  0
    2.0000   -0.8070    0.0000 C   0  0  0  0  0  0  0  0  0  0  0  0
    2.9176    1.7484    0.0000 C   0  0  0  0  0  0  0  0  0  0  0  0
    2.0574    2.2584    0.0000 C   0  0  0  0  0  0  0  0  0  0  0  0
    5.5315   -1.6362    0.0000 H   0  0  0  0  0  0  0  0  0  0  0  0
    4.2675   -1.7611    0.0000 H   0  0  0  0  0  0  0  0  0  0  0  0
    5.0646   -1.7611    0.0000 H   0  0  0  0  0  0  0  0  0  0  0  0
    7.4575   -1.3852    0.0000 H   0  0  0  0  0  0  0  0  0  0  0  0
    7.8685   -0.7046    0.0000 H   0  0  0  0  0  0  0  0  0  0  0  0
    7.8885    0.0665    0.0000 H   0  0  0  0  0  0  0  0  0  0  0  0
    7.5131    0.7675    0.0000 H   0  0  0  0  0  0  0  0  0  0  0  0
    5.7629   -2.2785    0.0000 H   0  0  0  0  0  0  0  0  0  0  0  0
    6.3783   -2.9031    0.0000 H   0  0  0  0  0  0  0  0  0  0  0  0
    7.0029   -2.2877    0.0000 H   0  0  0  0  0  0  0  0  0  0  0  0
    6.9882    2.0702    0.0000 H   0  0  0  0  0  0  0  0  0  0  0  0
    4.1095    2.0591    0.0000 H   0  0  0  0  0  0  0  0  0  0  0  0
    2.9132   -1.9408    0.0000 H   0  0  0  0  0  0  0  0  0  0  0  0
    5.5456    2.9031    0.0000 H   0  0  0  0  0  0  0  0  0  0  0  0
    1.4643    0.5467    0.0000 H   0  0  0  0  0  0  0  0  0  0  0  0
    1.4643   -1.1191    0.0000 H   0  0  0  0  0  0  0  0  0  0  0  0
    2.3736    2.7917    0.0000 H   0  0  0  0  0  0  0  0  0  0  0  0
    1.5241    2.5746    0.0000 H   0  0  0  0  0  0  0  0  0  0  0  0
    1.7413    1.7251    0.0000 H   0  0  0  0  0  0  0  0  0  0  0  0
  1 20  2  0  0  0  0
  2  3  1  0  0  0  0
  2  7  1  0  0  0  0
  2 12  1  0  0  0  0
  3  4  1  0  0  0  0
  3  5  1  0  0  0  0
  3 22  1  1  0  0  0
  4  6  2  0  0  0  0
  4  8  1  0  0  0  0
  5 10  1  0  0  0  0
  5 23  1  0  0  0  0
  5 24  1  0  0  0  0
  6  9  1  0  0  0  0
  6 13  1  0  0  0  0
  7  9  1  0  0  0  0
  7 25  1  0  0  0  0
  7 26  1  0  0  0  0
  8 11  1  0  0  0  0
  8 14  2  0  0  0  0
  9 27  1  0  0  0  0
  9 28  1  0  0  0  0
 10 11  2  0  0  0  0
 10 16  1  0  0  0  0
 11 15  1  0  0  0  0
 12 29  1  0  0  0  0
 12 30  1  0  0  0  0
 12 31  1  0  0  0  0
 13 17  2  0  0  0  0
 13 32  1  0  0  0  0
 14 17  1  0  0  0  0
 14 33  1  0  0  0  0
 15 18  2  0  0  0  0
 15 20  1  0  0  0  0
 16 19  2  0  0  0  0
 16 34  1  0  0  0  0
 17 35  1  0  0  0  0
 18 19  1  0  0  0  0
 18 36  1  0  0  0  0
 19 37  1  0  0  0  0
 20 21  1  0  0  0  0
 21 38  1  0  0  0  0
 21 39  1  0  0  0  0
 21 40  1  0  0  0  0
M  END
> <PUBCHEM_COMPOUND_CID>
10683943

> <PUBCHEM_COMPOUND_CANONICALIZED>
1

> <PUBCHEM_CACTVS_COMPLEXITY>
420

> <PUBCHEM_CACTVS_HBOND_ACCEPTOR>
2

> <PUBCHEM_CACTVS_HBOND_DONOR>
0

> <PUBCHEM_CACTVS_ROTATABLE_BOND>
1

> <PUBCHEM_CACTVS_SUBSKEYS>
AAADceB6IAAAAAAAAAAAAAAAAAAAAAAAAAA8YMEAAAAAAADxQAAAHgAAAAAADCzBmAQyAIMAAACIAqBSAACCAAAkAAAIiAEIBMgIIDKAlRGEIQhggACIiYcYiMCOgAACAAAQAACQAASAACQAAAAAAAAAAA==

> <PUBCHEM_IUPAC_OPENEYE_NAME>
1-[(6aR)-6-methyl-5,6,6a,7-tetrahydro-4H-dibenzo[de,g]quinolin-11-yl]ethanone

> <PUBCHEM_IUPAC_CAS_NAME>
1-[(6aR)-6-methyl-5,6,6a,7-tetrahydro-4H-dibenzo[de,g]quinolin-11-yl]ethanone

> <PUBCHEM_IUPAC_NAME_MARKUP>
1-[(6<I>a</I><I>R</I>)-6-methyl-5,6,6<I>a</I>,7-tetrahydro-4<I>H</I>-dibenzo[de,g]quinolin-11-yl]ethanone

> <PUBCHEM_IUPAC_NAME>
1-[(6aR)-6-methyl-5,6,6a,7-tetrahydro-4H-dibenzo[de,g]quinolin-11-yl]ethanone

> <PUBCHEM_IUPAC_SYSTEMATIC_NAME>
1-[(6aR)-6-methyl-5,6,6a,7-tetrahydro-4H-dibenzo[de,g]quinolin-11-yl]ethanone

> <PUBCHEM_IUPAC_TRADITIONAL_NAME>
1-[(6aR)-6-methyl-5,6,6a,7-tetrahydro-4H-dibenzo[de,g]quinolin-11-yl]ethanone

> <PUBCHEM_IUPAC_INCHI>
InChI=1S/C19H19NO/c1-12(21)15-7-4-6-14-11-17-19-13(9-10-20(17)2)5-3-8-16(19)18(14)15/h3-8,17H,9-11H2,1-2H3/t17-/m1/s1

> <PUBCHEM_IUPAC_INCHIKEY>
ZAAVRXQHDCCUQJ-QGZVFWFLSA-N

> <PUBCHEM_XLOGP3>
2.7

> <PUBCHEM_EXACT_MASS>
277.146664230

> <PUBCHEM_MOLECULAR_FORMULA>
C19H19NO

> <PUBCHEM_MOLECULAR_WEIGHT>
277.4

> <PUBCHEM_OPENEYE_CAN_SMILES>
CC(=O)C1=CC=CC2=C1C3=CC=CC4=C3C(C2)N(CC4)C

> <PUBCHEM_OPENEYE_ISO_SMILES>
CC(=O)C1=CC=CC2=C1C3=CC=CC4=C3[C@@H](C2)N(CC4)C

> <PUBCHEM_CACTVS_TPSA>
20.3

> <PUBCHEM_MONOISOTOPIC_WEIGHT>
277.146664230

> <PUBCHEM_TOTAL_CHARGE>
0

> <PUBCHEM_HEAVY_ATOM_COUNT>
21

> <PUBCHEM_ATOM_DEF_STEREO_COUNT>
1

> <PUBCHEM_ATOM_UDEF_STEREO_COUNT>
0

> <PUBCHEM_BOND_DEF_STEREO_COUNT>
0

> <PUBCHEM_BOND_UDEF_STEREO_COUNT>
0

> <PUBCHEM_ISOTOPIC_ATOM_COUNT>
0

> <PUBCHEM_COMPONENT_COUNT>
1

> <PUBCHEM_CACTVS_TAUTO_COUNT>
-1

> <PUBCHEM_COORDINATE_TYPE>
1
5
255

> <PUBCHEM_BONDANNOTATIONS>
10  11  8
10  16  8
11  15  8
13  17  8
14  17  8
15  18  8
16  19  8
18  19  8
3  22  5
4  6  8
4  8  8
6  13  8
8  14  8

$$$$
