11716230
  -OEChem-09292322482D

 44 47  0     1  0  0  0  0  0999 V2000
    5.7051    1.5752    0.0000 N   0  0  3  0  0  0  0  0  0  0  0  0
    2.8893   -1.0605    0.0000 N   0  0  0  0  0  0  0  0  0  0  0  0
    4.4390   -0.6176    0.0000 C   0  0  0  0  0  0  0  0  0  0  0  0
    5.3787   -0.2756    0.0000 C   0  0  0  0  0  0  0  0  0  0  0  0
    3.4993   -0.2756    0.0000 C   0  0  0  0  0  0  0  0  0  0  0  0
    5.8787    0.5904    0.0000 C   0  0  0  0  0  0  0  0  0  0  0  0
    2.9993    0.5904    0.0000 C   0  0  0  0  0  0  0  0  0  0  0  0
    4.9390    2.2180    0.0000 C   0  0  0  0  0  0  0  0  0  0  0  0
    4.4017   -1.6110    0.0000 C   0  0  0  0  0  0  0  0  0  0  0  0
    3.1730    1.5752    0.0000 C   0  0  0  0  0  0  0  0  0  0  0  0
    3.9390    2.2180    0.0000 C   0  0  0  0  0  0  0  0  0  0  0  0
    3.4459   -1.8842    0.0000 C   0  0  0  0  0  0  0  0  0  0  0  0
    6.5711    2.0752    0.0000 C   0  0  0  0  0  0  0  0  0  0  0  0
    5.1570   -2.3194    0.0000 C   0  0  0  0  0  0  0  0  0  0  0  0
    2.1888    1.9164    0.0000 C   0  0  0  0  0  0  0  0  0  0  0  0
    3.7740    3.2465    0.0000 C   0  0  0  0  0  0  0  0  0  0  0  0
    3.1791   -2.8846    0.0000 C   0  0  0  0  0  0  0  0  0  0  0  0
    7.4371    1.5752    0.0000 C   0  0  0  0  0  0  0  0  0  0  0  0
    4.9134   -3.3258    0.0000 C   0  0  0  0  0  0  0  0  0  0  0  0
    2.0000    2.9408    0.0000 C   0  0  0  0  0  0  0  0  0  0  0  0
    2.7979    3.6103    0.0000 C   0  0  0  0  0  0  0  0  0  0  0  0
    3.9178   -3.6103    0.0000 C   0  0  0  0  0  0  0  0  0  0  0  0
    5.4148   -0.8945    0.0000 H   0  0  0  0  0  0  0  0  0  0  0  0
    5.9820   -0.4186    0.0000 H   0  0  0  0  0  0  0  0  0  0  0  0
    6.3042    0.1395    0.0000 H   0  0  0  0  0  0  0  0  0  0  0  0
    6.4328    0.8687    0.0000 H   0  0  0  0  0  0  0  0  0  0  0  0
    2.4453    0.8687    0.0000 H   0  0  0  0  0  0  0  0  0  0  0  0
    2.5739    0.1395    0.0000 H   0  0  0  0  0  0  0  0  0  0  0  0
    5.4570    2.5587    0.0000 H   0  0  0  0  0  0  0  0  0  0  0  0
    4.7612    2.8120    0.0000 H   0  0  0  0  0  0  0  0  0  0  0  0
    2.2697   -1.0400    0.0000 H   0  0  0  0  0  0  0  0  0  0  0  0
    6.9696    2.5502    0.0000 H   0  0  0  0  0  0  0  0  0  0  0  0
    6.1726    2.5502    0.0000 H   0  0  0  0  0  0  0  0  0  0  0  0
    5.7511   -2.1421    0.0000 H   0  0  0  0  0  0  0  0  0  0  0  0
    1.7185    1.5124    0.0000 H   0  0  0  0  0  0  0  0  0  0  0  0
    4.2535    3.6395    0.0000 H   0  0  0  0  0  0  0  0  0  0  0  0
    2.5810   -3.0481    0.0000 H   0  0  0  0  0  0  0  0  0  0  0  0
    7.1271    1.0383    0.0000 H   0  0  0  0  0  0  0  0  0  0  0  0
    7.9740    1.2652    0.0000 H   0  0  0  0  0  0  0  0  0  0  0  0
    7.7471    2.1122    0.0000 H   0  0  0  0  0  0  0  0  0  0  0  0
    5.3606   -3.7551    0.0000 H   0  0  0  0  0  0  0  0  0  0  0  0
    1.4166    3.1506    0.0000 H   0  0  0  0  0  0  0  0  0  0  0  0
    2.6926    4.2213    0.0000 H   0  0  0  0  0  0  0  0  0  0  0  0
    3.7649   -4.2112    0.0000 H   0  0  0  0  0  0  0  0  0  0  0  0
  1  6  1  0  0  0  0
  1  8  1  0  0  0  0
  1 13  1  0  0  0  0
  2  5  1  0  0  0  0
  2 12  1  0  0  0  0
  2 31  1  0  0  0  0
  3  4  1  0  0  0  0
  3  5  2  0  0  0  0
  3  9  1  0  0  0  0
  4  6  1  0  0  0  0
  4 23  1  0  0  0  0
  4 24  1  0  0  0  0
  5  7  1  0  0  0  0
  6 25  1  0  0  0  0
  6 26  1  0  0  0  0
  7 10  1  0  0  0  0
  7 27  1  0  0  0  0
  7 28  1  0  0  0  0
  8 11  1  0  0  0  0
  8 29  1  0  0  0  0
  8 30  1  0  0  0  0
  9 12  1  0  0  0  0
  9 14  2  0  0  0  0
 10 11  1  0  0  0  0
 10 15  2  0  0  0  0
 11 16  2  0  0  0  0
 12 17  2  0  0  0  0
 13 18  1  0  0  0  0
 13 32  1  0  0  0  0
 13 33  1  0  0  0  0
 14 19  1  0  0  0  0
 14 34  1  0  0  0  0
 15 20  1  0  0  0  0
 15 35  1  0  0  0  0
 16 21  1  0  0  0  0
 16 36  1  0  0  0  0
 17 22  1  0  0  0  0
 17 37  1  0  0  0  0
 18 38  1  0  0  0  0
 18 39  1  0  0  0  0
 18 40  1  0  0  0  0
 19 22  2  0  0  0  0
 19 41  1  0  0  0  0
 20 21  2  0  0  0  0
 20 42  1  0  0  0  0
 21 43  1  0  0  0  0
 22 44  1  0  0  0  0
M  END
> <PUBCHEM_COMPOUND_CID>
11716230

> <PUBCHEM_COMPOUND_CANONICALIZED>
1

> <PUBCHEM_CACTVS_COMPLEXITY>
369

> <PUBCHEM_CACTVS_HBOND_ACCEPTOR>
1

> <PUBCHEM_CACTVS_HBOND_DONOR>
1

> <PUBCHEM_CACTVS_ROTATABLE_BOND>
1

> <PUBCHEM_CACTVS_SUBSKEYS>
AAADceB7AAAAAAAAAAAAAAAAAAAAAWAAAAAwYAAAAAAAAFgB9AAAHAAQAAAADAjBHgQywPPJkACgAyRiRACCgCAhAiAImSA4ZJgIIOLAkZGEIAhgkADIyAcQgMAOgAAAAAASAAAAAAAAACQAAAAAAAAAAA==

> <PUBCHEM_IUPAC_OPENEYE_NAME>
10-ethyl-10,20-diazatetracyclo[11.7.0.03,8.014,19]icosa-1(13),3,5,7,14,16,18-heptaene

> <PUBCHEM_IUPAC_CAS_NAME>
10-ethyl-10,20-diazatetracyclo[11.7.0.03,8.014,19]eicosa-1(13),3,5,7,14,16,18-heptaene

> <PUBCHEM_IUPAC_NAME_MARKUP>
10-ethyl-10,20-diazatetracyclo[11.7.0.0<SUP>3,8</SUP>.0<SUP>14,19</SUP>]icosa-1(13),3,5,7,14,16,18-heptaene

> <PUBCHEM_IUPAC_NAME>
10-ethyl-10,20-diazatetracyclo[11.7.0.03,8.014,19]icosa-1(13),3,5,7,14,16,18-heptaene

> <PUBCHEM_IUPAC_SYSTEMATIC_NAME>
10-ethyl-10,20-diazatetracyclo[11.7.0.03,8.014,19]icosa-1(13),3,5,7,14,16,18-heptaene

> <PUBCHEM_IUPAC_TRADITIONAL_NAME>
10-ethyl-10,20-diazatetracyclo[11.7.0.03,8.014,19]eicosa-1(13),3,5,7,14,16,18-heptaene

> <PUBCHEM_IUPAC_INCHI>
InChI=1S/C20H22N2/c1-2-22-12-11-18-17-9-5-6-10-19(17)21-20(18)13-15-7-3-4-8-16(15)14-22/h3-10,21H,2,11-14H2,1H3

> <PUBCHEM_IUPAC_INCHIKEY>
GILRVKMKQIBKOK-UHFFFAOYSA-N

> <PUBCHEM_XLOGP3_AA>
4.2

> <PUBCHEM_EXACT_MASS>
290.178298710

> <PUBCHEM_MOLECULAR_FORMULA>
C20H22N2

> <PUBCHEM_MOLECULAR_WEIGHT>
290.4

> <PUBCHEM_OPENEYE_CAN_SMILES>
CCN1CCC2=C(CC3=CC=CC=C3C1)NC4=CC=CC=C24

> <PUBCHEM_OPENEYE_ISO_SMILES>
CCN1CCC2=C(CC3=CC=CC=C3C1)NC4=CC=CC=C24

> <PUBCHEM_CACTVS_TPSA>
19

> <PUBCHEM_MONOISOTOPIC_WEIGHT>
290.178298710

> <PUBCHEM_TOTAL_CHARGE>
0

> <PUBCHEM_HEAVY_ATOM_COUNT>
22

> <PUBCHEM_ATOM_DEF_STEREO_COUNT>
0

> <PUBCHEM_ATOM_UDEF_STEREO_COUNT>
0

> <PUBCHEM_BOND_DEF_STEREO_COUNT>
0

> <PUBCHEM_BOND_UDEF_STEREO_COUNT>
0

> <PUBCHEM_ISOTOPIC_ATOM_COUNT>
0

> <PUBCHEM_COMPONENT_COUNT>
1

> <PUBCHEM_CACTVS_TAUTO_COUNT>
-1

> <PUBCHEM_COORDINATE_TYPE>
1
5
255

> <PUBCHEM_BONDANNOTATIONS>
10  11  8
10  15  8
11  16  8
12  17  8
14  19  8
15  20  8
16  21  8
17  22  8
19  22  8
2  12  8
2  5  8
20  21  8
3  5  8
3  9  8
9  12  8
9  14  8

$$$$
