11682536
  -OEChem-09292322272D

 61 65  0     1  0  0  0  0  0999 V2000
    5.9233   -2.1176    0.0000 N   0  0  0  0  0  0  0  0  0  0  0  0
    5.9233   -0.1176    0.0000 N   0  0  0  0  0  0  0  0  0  0  0  0
    7.6833   -5.1522    0.0000 N   0  0  0  0  0  0  0  0  0  0  0  0
    2.6164    3.2143    0.0000 N   0  0  0  0  0  0  0  0  0  0  0  0
    5.0573   -1.6176    0.0000 C   0  0  0  0  0  0  0  0  0  0  0  0
    6.7893   -1.6176    0.0000 C   0  0  0  0  0  0  0  0  0  0  0  0
    5.0573   -0.6176    0.0000 C   0  0  0  0  0  0  0  0  0  0  0  0
    6.7893   -0.6176    0.0000 C   0  0  0  0  0  0  0  0  0  0  0  0
    6.7893   -3.6176    0.0000 C   0  0  0  0  0  0  0  0  0  0  0  0
    5.9233   -3.1176    0.0000 C   0  0  0  0  0  0  0  0  0  0  0  0
    8.5893   -3.5968    0.0000 C   0  0  3  0  0  0  0  0  0  0  0  0
    7.6833   -3.0829    0.0000 C   0  0  0  0  0  0  0  0  0  0  0  0
    5.9233    0.8824    0.0000 C   0  0  0  0  0  0  0  0  0  0  0  0
    8.5893   -4.6384    0.0000 C   0  0  0  0  0  0  0  0  0  0  0  0
    6.7893   -4.6176    0.0000 C   0  0  0  0  0  0  0  0  0  0  0  0
    5.0573    1.3824    0.0000 C   0  0  0  0  0  0  0  0  0  0  0  0
    5.0573   -3.6176    0.0000 C   0  0  0  0  0  0  0  0  0  0  0  0
    9.4534   -3.0934    0.0000 C   0  0  0  0  0  0  0  0  0  0  0  0
    5.0573    2.3824    0.0000 C   0  0  0  0  0  0  0  0  0  0  0  0
    5.9233   -5.1176    0.0000 C   0  0  0  0  0  0  0  0  0  0  0  0
    5.0573   -4.6176    0.0000 C   0  0  0  0  0  0  0  0  0  0  0  0
    4.1912    2.8824    0.0000 C   0  0  0  0  0  0  0  0  0  0  0  0
    4.0882    3.8712    0.0000 C   0  0  0  0  0  0  0  0  0  0  0  0
    3.2835    2.4773    0.0000 C   0  0  0  0  0  0  0  0  0  0  0  0
    3.1097    4.0774    0.0000 C   0  0  0  0  0  0  0  0  0  0  0  0
    4.7560    4.6154    0.0000 C   0  0  0  0  0  0  0  0  0  0  0  0
    2.7990    5.0279    0.0000 C   0  0  0  0  0  0  0  0  0  0  0  0
    4.4454    5.5660    0.0000 C   0  0  0  0  0  0  0  0  0  0  0  0
    3.4669    5.7722    0.0000 C   0  0  0  0  0  0  0  0  0  0  0  0
    4.4467   -1.5099    0.0000 H   0  0  0  0  0  0  0  0  0  0  0  0
    4.8452   -2.2002    0.0000 H   0  0  0  0  0  0  0  0  0  0  0  0
    7.0014   -2.2002    0.0000 H   0  0  0  0  0  0  0  0  0  0  0  0
    7.3999   -1.5099    0.0000 H   0  0  0  0  0  0  0  0  0  0  0  0
    4.8452   -0.0350    0.0000 H   0  0  0  0  0  0  0  0  0  0  0  0
    4.4467   -0.7252    0.0000 H   0  0  0  0  0  0  0  0  0  0  0  0
    7.3999   -0.7252    0.0000 H   0  0  0  0  0  0  0  0  0  0  0  0
    7.0014   -0.0350    0.0000 H   0  0  0  0  0  0  0  0  0  0  0  0
    9.1269   -3.9057    0.0000 H   0  0  0  0  0  0  0  0  0  0  0  0
    8.0769   -2.6039    0.0000 H   0  0  0  0  0  0  0  0  0  0  0  0
    7.2787   -2.6131    0.0000 H   0  0  0  0  0  0  0  0  0  0  0  0
    6.5339    0.7748    0.0000 H   0  0  0  0  0  0  0  0  0  0  0  0
    6.1354    1.4650    0.0000 H   0  0  0  0  0  0  0  0  0  0  0  0
    8.7984   -5.2221    0.0000 H   0  0  0  0  0  0  0  0  0  0  0  0
    9.2002   -4.5323    0.0000 H   0  0  0  0  0  0  0  0  0  0  0  0
    4.4467    1.4901    0.0000 H   0  0  0  0  0  0  0  0  0  0  0  0
    4.8452    0.7998    0.0000 H   0  0  0  0  0  0  0  0  0  0  0  0
    7.6761   -5.7722    0.0000 H   0  0  0  0  0  0  0  0  0  0  0  0
    4.5203   -3.3076    0.0000 H   0  0  0  0  0  0  0  0  0  0  0  0
    9.7655   -3.6292    0.0000 H   0  0  0  0  0  0  0  0  0  0  0  0
    9.9892   -2.7814    0.0000 H   0  0  0  0  0  0  0  0  0  0  0  0
    9.1413   -2.5577    0.0000 H   0  0  0  0  0  0  0  0  0  0  0  0
    5.6678    2.2748    0.0000 H   0  0  0  0  0  0  0  0  0  0  0  0
    5.2693    2.9650    0.0000 H   0  0  0  0  0  0  0  0  0  0  0  0
    5.9233   -5.7376    0.0000 H   0  0  0  0  0  0  0  0  0  0  0  0
    4.5203   -4.9276    0.0000 H   0  0  0  0  0  0  0  0  0  0  0  0
    3.1556    1.8706    0.0000 H   0  0  0  0  0  0  0  0  0  0  0  0
    2.0000    3.1474    0.0000 H   0  0  0  0  0  0  0  0  0  0  0  0
    5.3627    4.4876    0.0000 H   0  0  0  0  0  0  0  0  0  0  0  0
    2.1923    5.1558    0.0000 H   0  0  0  0  0  0  0  0  0  0  0  0
    4.8594    6.0274    0.0000 H   0  0  0  0  0  0  0  0  0  0  0  0
    3.2743    6.3615    0.0000 H   0  0  0  0  0  0  0  0  0  0  0  0
  1  5  1  0  0  0  0
  1  6  1  0  0  0  0
  1 10  1  0  0  0  0
  2  7  1  0  0  0  0
  2  8  1  0  0  0  0
  2 13  1  0  0  0  0
  3 14  1  0  0  0  0
  3 15  1  0  0  0  0
  3 47  1  0  0  0  0
  4 24  1  0  0  0  0
  4 25  1  0  0  0  0
  4 57  1  0  0  0  0
  5  7  1  0  0  0  0
  5 30  1  0  0  0  0
  5 31  1  0  0  0  0
  6  8  1  0  0  0  0
  6 32  1  0  0  0  0
  6 33  1  0  0  0  0
  7 34  1  0  0  0  0
  7 35  1  0  0  0  0
  8 36  1  0  0  0  0
  8 37  1  0  0  0  0
  9 10  1  0  0  0  0
  9 12  1  0  0  0  0
  9 15  2  0  0  0  0
 10 17  2  0  0  0  0
 11 12  1  0  0  0  0
 11 14  1  0  0  0  0
 11 18  1  0  0  0  0
 11 38  1  0  0  0  0
 12 39  1  0  0  0  0
 12 40  1  0  0  0  0
 13 16  1  0  0  0  0
 13 41  1  0  0  0  0
 13 42  1  0  0  0  0
 14 43  1  0  0  0  0
 14 44  1  0  0  0  0
 15 20  1  0  0  0  0
 16 19  1  0  0  0  0
 16 45  1  0  0  0  0
 16 46  1  0  0  0  0
 17 21  1  0  0  0  0
 17 48  1  0  0  0  0
 18 49  1  0  0  0  0
 18 50  1  0  0  0  0
 18 51  1  0  0  0  0
 19 22  1  0  0  0  0
 19 52  1  0  0  0  0
 19 53  1  0  0  0  0
 20 21  2  0  0  0  0
 20 54  1  0  0  0  0
 21 55  1  0  0  0  0
 22 23  1  0  0  0  0
 22 24  2  0  0  0  0
 23 25  1  0  0  0  0
 23 26  2  0  0  0  0
 24 56  1  0  0  0  0
 25 27  2  0  0  0  0
 26 28  1  0  0  0  0
 26 58  1  0  0  0  0
 27 29  1  0  0  0  0
 27 59  1  0  0  0  0
 28 29  2  0  0  0  0
 28 60  1  0  0  0  0
 29 61  1  0  0  0  0
M  END
> <PUBCHEM_COMPOUND_CID>
11682536

> <PUBCHEM_COMPOUND_CANONICALIZED>
1

> <PUBCHEM_CACTVS_COMPLEXITY>
517

> <PUBCHEM_CACTVS_HBOND_ACCEPTOR>
3

> <PUBCHEM_CACTVS_HBOND_DONOR>
2

> <PUBCHEM_CACTVS_ROTATABLE_BOND>
5

> <PUBCHEM_CACTVS_SUBSKEYS>
AAADcfB7gAAAAAAAAAAAAAAAAAAAAWAAAAA8eIEAAAAAAFix9AAAHAAQAAAADQjBHgQ+wPPJkACgAzRnRACCgCAxAiAI2aA4ZJgIYOLA0dGUIAhgkADIyAcQgMAOgAAAAAQCAAAAAAAACAQAAAAAAAAAAA==

> <PUBCHEM_IUPAC_OPENEYE_NAME>
5-[4-[3-(1H-indol-3-yl)propyl]piperazin-1-yl]-3-methyl-1,2,3,4-tetrahydroquinoline

> <PUBCHEM_IUPAC_CAS_NAME>
5-[4-[3-(1H-indol-3-yl)propyl]-1-piperazinyl]-3-methyl-1,2,3,4-tetrahydroquinoline

> <PUBCHEM_IUPAC_NAME_MARKUP>
5-[4-[3-(1<I>H</I>-indol-3-yl)propyl]piperazin-1-yl]-3-methyl-1,2,3,4-tetrahydroquinoline

> <PUBCHEM_IUPAC_NAME>
5-[4-[3-(1H-indol-3-yl)propyl]piperazin-1-yl]-3-methyl-1,2,3,4-tetrahydroquinoline

> <PUBCHEM_IUPAC_SYSTEMATIC_NAME>
5-[4-[3-(1H-indol-3-yl)propyl]piperazin-1-yl]-3-methyl-1,2,3,4-tetrahydroquinoline

> <PUBCHEM_IUPAC_TRADITIONAL_NAME>
5-[4-[3-(1H-indol-3-yl)propyl]piperazino]-3-methyl-1,2,3,4-tetrahydroquinoline

> <PUBCHEM_IUPAC_INCHI>
InChI=1S/C25H32N4/c1-19-16-22-24(26-17-19)9-4-10-25(22)29-14-12-28(13-15-29)11-5-6-20-18-27-23-8-3-2-7-21(20)23/h2-4,7-10,18-19,26-27H,5-6,11-17H2,1H3

> <PUBCHEM_IUPAC_INCHIKEY>
PEAYDJLRNGKNSM-UHFFFAOYSA-N

> <PUBCHEM_XLOGP3_AA>
5.1

> <PUBCHEM_EXACT_MASS>
388.26269704

> <PUBCHEM_MOLECULAR_FORMULA>
C25H32N4

> <PUBCHEM_MOLECULAR_WEIGHT>
388.5

> <PUBCHEM_OPENEYE_CAN_SMILES>
CC1CC2=C(C=CC=C2N3CCN(CC3)CCCC4=CNC5=CC=CC=C54)NC1

> <PUBCHEM_OPENEYE_ISO_SMILES>
CC1CC2=C(C=CC=C2N3CCN(CC3)CCCC4=CNC5=CC=CC=C54)NC1

> <PUBCHEM_CACTVS_TPSA>
34.3

> <PUBCHEM_MONOISOTOPIC_WEIGHT>
388.26269704

> <PUBCHEM_TOTAL_CHARGE>
0

> <PUBCHEM_HEAVY_ATOM_COUNT>
29

> <PUBCHEM_ATOM_DEF_STEREO_COUNT>
0

> <PUBCHEM_ATOM_UDEF_STEREO_COUNT>
1

> <PUBCHEM_BOND_DEF_STEREO_COUNT>
0

> <PUBCHEM_BOND_UDEF_STEREO_COUNT>
0

> <PUBCHEM_ISOTOPIC_ATOM_COUNT>
0

> <PUBCHEM_COMPONENT_COUNT>
1

> <PUBCHEM_CACTVS_TAUTO_COUNT>
-1

> <PUBCHEM_COORDINATE_TYPE>
1
5
255

> <PUBCHEM_BONDANNOTATIONS>
10  17  8
11  18  3
15  20  8
17  21  8
20  21  8
22  23  8
22  24  8
23  25  8
23  26  8
25  27  8
26  28  8
27  29  8
28  29  8
4  24  8
4  25  8
9  10  8
9  15  8

$$$$
