11672839
  -OEChem-09292322412D

 29 30  0     1  0  0  0  0  0999 V2000
    6.8671    0.2500    0.0000 O   0  0  0  0  0  0  0  0  0  0  0  0
    6.8671   -1.7500    0.0000 N   0  0  0  0  0  0  0  0  0  0  0  0
    4.2690    1.7500    0.0000 N   0  0  0  0  0  0  0  0  0  0  0  0
    2.5369    1.7500    0.0000 N   0  0  0  0  0  0  0  0  0  0  0  0
    7.7331   -1.2500    0.0000 C   0  0  2  0  0  0  0  0  0  0  0  0
    6.0010   -0.2500    0.0000 C   0  0  1  0  0  0  0  0  0  0  0  0
    6.0010   -1.2500    0.0000 C   0  0  0  0  0  0  0  0  0  0  0  0
    7.7331   -0.2500    0.0000 C   0  0  0  0  0  0  0  0  0  0  0  0
    5.1350    0.2500    0.0000 C   0  0  0  0  0  0  0  0  0  0  0  0
    8.5991   -1.7500    0.0000 C   0  0  0  0  0  0  0  0  0  0  0  0
    4.2690   -0.2500    0.0000 C   0  0  0  0  0  0  0  0  0  0  0  0
    5.1350    1.2500    0.0000 C   0  0  0  0  0  0  0  0  0  0  0  0
    3.4030    0.2500    0.0000 C   0  0  0  0  0  0  0  0  0  0  0  0
    3.4030    1.2500    0.0000 C   0  0  0  0  0  0  0  0  0  0  0  0
    7.7331   -1.8700    0.0000 H   0  0  0  0  0  0  0  0  0  0  0  0
    5.4641   -0.5600    0.0000 H   0  0  0  0  0  0  0  0  0  0  0  0
    5.3905   -1.1423    0.0000 H   0  0  0  0  0  0  0  0  0  0  0  0
    5.7890   -1.8326    0.0000 H   0  0  0  0  0  0  0  0  0  0  0  0
    8.3437   -0.3577    0.0000 H   0  0  0  0  0  0  0  0  0  0  0  0
    7.9451    0.3326    0.0000 H   0  0  0  0  0  0  0  0  0  0  0  0
    6.8671   -2.3700    0.0000 H   0  0  0  0  0  0  0  0  0  0  0  0
    8.2891   -2.2869    0.0000 H   0  0  0  0  0  0  0  0  0  0  0  0
    9.1360   -2.0600    0.0000 H   0  0  0  0  0  0  0  0  0  0  0  0
    8.9091   -1.2131    0.0000 H   0  0  0  0  0  0  0  0  0  0  0  0
    4.2690   -0.8700    0.0000 H   0  0  0  0  0  0  0  0  0  0  0  0
    5.6720    1.5600    0.0000 H   0  0  0  0  0  0  0  0  0  0  0  0
    2.8660   -0.0600    0.0000 H   0  0  0  0  0  0  0  0  0  0  0  0
    2.5369    2.3700    0.0000 H   0  0  0  0  0  0  0  0  0  0  0  0
    2.0000    1.4400    0.0000 H   0  0  0  0  0  0  0  0  0  0  0  0
  1  6  1  0  0  0  0
  1  8  1  0  0  0  0
  2  5  1  0  0  0  0
  2  7  1  0  0  0  0
  2 21  1  0  0  0  0
  3 12  1  0  0  0  0
  3 14  2  0  0  0  0
  4 14  1  0  0  0  0
  4 28  1  0  0  0  0
  4 29  1  0  0  0  0
  5  8  1  0  0  0  0
  5 10  1  6  0  0  0
  5 15  1  0  0  0  0
  6  7  1  0  0  0  0
  6  9  1  1  0  0  0
  6 16  1  0  0  0  0
  7 17  1  0  0  0  0
  7 18  1  0  0  0  0
  8 19  1  0  0  0  0
  8 20  1  0  0  0  0
  9 11  1  0  0  0  0
  9 12  2  0  0  0  0
 10 22  1  0  0  0  0
 10 23  1  0  0  0  0
 10 24  1  0  0  0  0
 11 13  2  0  0  0  0
 11 25  1  0  0  0  0
 12 26  1  0  0  0  0
 13 14  1  0  0  0  0
 13 27  1  0  0  0  0
M  END
> <PUBCHEM_COMPOUND_CID>
11672839

> <PUBCHEM_COMPOUND_CANONICALIZED>
1

> <PUBCHEM_CACTVS_COMPLEXITY>
188

> <PUBCHEM_CACTVS_HBOND_ACCEPTOR>
4

> <PUBCHEM_CACTVS_HBOND_DONOR>
2

> <PUBCHEM_CACTVS_ROTATABLE_BOND>
1

> <PUBCHEM_CACTVS_SUBSKEYS>
AAADccBzIAAAAAAAAAAAAAAAAAAAAAAAAAAsWAAAAAAAAAABgAAAHgAQAAAADDzhmgY/sJLIFACgAjJnZACCgCkxAiAI2KA4bJiKJuLAsZmHMAhm0APY6CeQEAIOAAAAAAAAAAAAAAAAAAAAAAAAAAAAAA==

> <PUBCHEM_IUPAC_OPENEYE_NAME>
5-[(2R,5S)-5-methylmorpholin-2-yl]pyridin-2-amine

> <PUBCHEM_IUPAC_CAS_NAME>
5-[(2R,5S)-5-methyl-2-morpholinyl]-2-pyridinamine

> <PUBCHEM_IUPAC_NAME_MARKUP>
5-[(2<I>R</I>,5<I>S</I>)-5-methylmorpholin-2-yl]pyridin-2-amine

> <PUBCHEM_IUPAC_NAME>
5-[(2R,5S)-5-methylmorpholin-2-yl]pyridin-2-amine

> <PUBCHEM_IUPAC_SYSTEMATIC_NAME>
5-[(2R,5S)-5-methylmorpholin-2-yl]pyridin-2-amine

> <PUBCHEM_IUPAC_TRADITIONAL_NAME>
[5-[(2R,5S)-5-methylmorpholin-2-yl]-2-pyridyl]amine

> <PUBCHEM_IUPAC_INCHI>
InChI=1S/C10H15N3O/c1-7-6-14-9(5-12-7)8-2-3-10(11)13-4-8/h2-4,7,9,12H,5-6H2,1H3,(H2,11,13)/t7-,9-/m0/s1

> <PUBCHEM_IUPAC_INCHIKEY>
UXRVFSIWSWPXSI-CBAPKCEASA-N

> <PUBCHEM_XLOGP3_AA>
0

> <PUBCHEM_EXACT_MASS>
193.121512110

> <PUBCHEM_MOLECULAR_FORMULA>
C10H15N3O

> <PUBCHEM_MOLECULAR_WEIGHT>
193.25

> <PUBCHEM_OPENEYE_CAN_SMILES>
CC1COC(CN1)C2=CN=C(C=C2)N

> <PUBCHEM_OPENEYE_ISO_SMILES>
C[C@H]1CO[C@@H](CN1)C2=CN=C(C=C2)N

> <PUBCHEM_CACTVS_TPSA>
60.2

> <PUBCHEM_MONOISOTOPIC_WEIGHT>
193.121512110

> <PUBCHEM_TOTAL_CHARGE>
0

> <PUBCHEM_HEAVY_ATOM_COUNT>
14

> <PUBCHEM_ATOM_DEF_STEREO_COUNT>
2

> <PUBCHEM_ATOM_UDEF_STEREO_COUNT>
0

> <PUBCHEM_BOND_DEF_STEREO_COUNT>
0

> <PUBCHEM_BOND_UDEF_STEREO_COUNT>
0

> <PUBCHEM_ISOTOPIC_ATOM_COUNT>
0

> <PUBCHEM_COMPONENT_COUNT>
1

> <PUBCHEM_CACTVS_TAUTO_COUNT>
-1

> <PUBCHEM_COORDINATE_TYPE>
1
5
255

> <PUBCHEM_BONDANNOTATIONS>
11  13  8
13  14  8
3  12  8
3  14  8
5  10  6
6  9  5
9  11  8
9  12  8

$$$$
