137652174
  -OEChem-09292322002D

 65 67  0     0  0  0  0  0  0999 V2000
    3.0000    2.6200    0.0000 Cl  0  0  0  0  0  0  0  0  0  0  0  0
    3.0000    0.6200    0.0000 Cl  0  0  0  0  0  0  0  0  0  0  0  0
    0.0000    7.3700    0.0000 Cl  0  0  0  0  0  0  0  0  0  0  0  0
    7.3301   11.1200    0.0000 O   0  0  0  0  0  0  0  0  0  0  0  0
    8.1962    9.6200    0.0000 O   0  0  0  0  0  0  0  0  0  0  0  0
    4.7320    5.6200    0.0000 N   0  0  0  0  0  0  0  0  0  0  0  0
    4.7320    3.6200    0.0000 N   0  0  0  0  0  0  0  0  0  0  0  0
    6.4641    9.6200    0.0000 N   0  0  0  0  0  0  0  0  0  0  0  0
    5.5981    5.1200    0.0000 C   0  0  0  0  0  0  0  0  0  0  0  0
    3.8660    5.1200    0.0000 C   0  0  0  0  0  0  0  0  0  0  0  0
    5.5981    4.1200    0.0000 C   0  0  0  0  0  0  0  0  0  0  0  0
    3.8660    4.1200    0.0000 C   0  0  0  0  0  0  0  0  0  0  0  0
    4.7320    6.6200    0.0000 C   0  0  0  0  0  0  0  0  0  0  0  0
    5.5981    7.1200    0.0000 C   0  0  0  0  0  0  0  0  0  0  0  0
    4.7320    2.6200    0.0000 C   0  0  0  0  0  0  0  0  0  0  0  0
    5.5981    8.1200    0.0000 C   0  0  0  0  0  0  0  0  0  0  0  0
    6.4641    8.6200    0.0000 C   0  0  0  0  0  0  0  0  0  0  0  0
    3.8660    2.1200    0.0000 C   0  0  0  0  0  0  0  0  0  0  0  0
    5.5981    2.1200    0.0000 C   0  0  0  0  0  0  0  0  0  0  0  0
    3.8660    1.1200    0.0000 C   0  0  0  0  0  0  0  0  0  0  0  0
    5.5981    1.1200    0.0000 C   0  0  0  0  0  0  0  0  0  0  0  0
    4.7320    0.6200    0.0000 C   0  0  0  0  0  0  0  0  0  0  0  0
    7.3301   10.1200    0.0000 C   0  0  0  0  0  0  0  0  0  0  0  0
    8.1962   11.6200    0.0000 C   0  0  0  0  0  0  0  0  0  0  0  0
    9.9282   12.6200    0.0000 C   0  0  0  0  0  0  0  0  0  0  0  0
    9.0622   11.1200    0.0000 C   0  0  0  0  0  0  0  0  0  0  0  0
    8.1962   12.6200    0.0000 C   0  0  0  0  0  0  0  0  0  0  0  0
    9.9282   11.6200    0.0000 C   0  0  0  0  0  0  0  0  0  0  0  0
    9.0622   13.1200    0.0000 C   0  0  0  0  0  0  0  0  0  0  0  0
   10.7942   13.1200    0.0000 C   0  0  0  0  0  0  0  0  0  0  0  0
   11.6603   12.6200    0.0000 C   0  0  0  0  0  0  0  0  0  0  0  0
   10.7942   14.1200    0.0000 C   0  0  0  0  0  0  0  0  0  0  0  0
   12.5263   13.1200    0.0000 C   0  0  0  0  0  0  0  0  0  0  0  0
   11.6603   14.6200    0.0000 C   0  0  0  0  0  0  0  0  0  0  0  0
   12.5263   14.1200    0.0000 C   0  0  0  0  0  0  0  0  0  0  0  0
    6.2087    5.0123    0.0000 H   0  0  0  0  0  0  0  0  0  0  0  0
    5.8101    5.7026    0.0000 H   0  0  0  0  0  0  0  0  0  0  0  0
    3.6540    5.7026    0.0000 H   0  0  0  0  0  0  0  0  0  0  0  0
    3.2554    5.0123    0.0000 H   0  0  0  0  0  0  0  0  0  0  0  0
    5.8101    3.5374    0.0000 H   0  0  0  0  0  0  0  0  0  0  0  0
    6.2087    4.2277    0.0000 H   0  0  0  0  0  0  0  0  0  0  0  0
    3.2554    4.2277    0.0000 H   0  0  0  0  0  0  0  0  0  0  0  0
    3.6540    3.5374    0.0000 H   0  0  0  0  0  0  0  0  0  0  0  0
    4.5200    7.2026    0.0000 H   0  0  0  0  0  0  0  0  0  0  0  0
    4.1215    6.5123    0.0000 H   0  0  0  0  0  0  0  0  0  0  0  0
    5.8101    6.5374    0.0000 H   0  0  0  0  0  0  0  0  0  0  0  0
    6.2087    7.2277    0.0000 H   0  0  0  0  0  0  0  0  0  0  0  0
    5.3860    8.7026    0.0000 H   0  0  0  0  0  0  0  0  0  0  0  0
    4.9875    8.0123    0.0000 H   0  0  0  0  0  0  0  0  0  0  0  0
    6.6762    8.0374    0.0000 H   0  0  0  0  0  0  0  0  0  0  0  0
    7.0747    8.7277    0.0000 H   0  0  0  0  0  0  0  0  0  0  0  0
    6.1350    2.4300    0.0000 H   0  0  0  0  0  0  0  0  0  0  0  0
    6.1350    0.8100    0.0000 H   0  0  0  0  0  0  0  0  0  0  0  0
    5.9272    9.9300    0.0000 H   0  0  0  0  0  0  0  0  0  0  0  0
    4.7320    0.0000    0.0000 H   0  0  0  0  0  0  0  0  0  0  0  0
    9.0622   10.5000    0.0000 H   0  0  0  0  0  0  0  0  0  0  0  0
    7.6592   12.9300    0.0000 H   0  0  0  0  0  0  0  0  0  0  0  0
   10.4651   11.3100    0.0000 H   0  0  0  0  0  0  0  0  0  0  0  0
    9.0622   13.7400    0.0000 H   0  0  0  0  0  0  0  0  0  0  0  0
   11.6603   12.0000    0.0000 H   0  0  0  0  0  0  0  0  0  0  0  0
   10.2573   14.4300    0.0000 H   0  0  0  0  0  0  0  0  0  0  0  0
   13.0632   12.8100    0.0000 H   0  0  0  0  0  0  0  0  0  0  0  0
   11.6603   15.2400    0.0000 H   0  0  0  0  0  0  0  0  0  0  0  0
   13.0632   14.4300    0.0000 H   0  0  0  0  0  0  0  0  0  0  0  0
    1.0000    7.3700    0.0000 H   0  0  0  0  0  0  0  0  0  0  0  0
  1 18  1  0  0  0  0
  2 20  1  0  0  0  0
  3 65  1  0  0  0  0
  4 23  1  0  0  0  0
  4 24  1  0  0  0  0
  5 23  2  0  0  0  0
  6  9  1  0  0  0  0
  6 10  1  0  0  0  0
  6 13  1  0  0  0  0
  7 11  1  0  0  0  0
  7 12  1  0  0  0  0
  7 15  1  0  0  0  0
  8 17  1  0  0  0  0
  8 23  1  0  0  0  0
  8 54  1  0  0  0  0
  9 11  1  0  0  0  0
  9 36  1  0  0  0  0
  9 37  1  0  0  0  0
 10 12  1  0  0  0  0
 10 38  1  0  0  0  0
 10 39  1  0  0  0  0
 11 40  1  0  0  0  0
 11 41  1  0  0  0  0
 12 42  1  0  0  0  0
 12 43  1  0  0  0  0
 13 14  1  0  0  0  0
 13 44  1  0  0  0  0
 13 45  1  0  0  0  0
 14 16  1  0  0  0  0
 14 46  1  0  0  0  0
 14 47  1  0  0  0  0
 15 18  2  0  0  0  0
 15 19  1  0  0  0  0
 16 17  1  0  0  0  0
 16 48  1  0  0  0  0
 16 49  1  0  0  0  0
 17 50  1  0  0  0  0
 17 51  1  0  0  0  0
 18 20  1  0  0  0  0
 19 21  2  0  0  0  0
 19 52  1  0  0  0  0
 20 22  2  0  0  0  0
 21 22  1  0  0  0  0
 21 53  1  0  0  0  0
 22 55  1  0  0  0  0
 24 26  2  0  0  0  0
 24 27  1  0  0  0  0
 25 28  2  0  0  0  0
 25 29  1  0  0  0  0
 25 30  1  0  0  0  0
 26 28  1  0  0  0  0
 26 56  1  0  0  0  0
 27 29  2  0  0  0  0
 27 57  1  0  0  0  0
 28 58  1  0  0  0  0
 29 59  1  0  0  0  0
 30 31  2  0  0  0  0
 30 32  1  0  0  0  0
 31 33  1  0  0  0  0
 31 60  1  0  0  0  0
 32 34  2  0  0  0  0
 32 61  1  0  0  0  0
 33 35  2  0  0  0  0
 33 62  1  0  0  0  0
 34 35  1  0  0  0  0
 34 63  1  0  0  0  0
 35 64  1  0  0  0  0
M  END
> <PUBCHEM_COMPOUND_CID>
137652174

> <PUBCHEM_COMPOUND_CANONICALIZED>
1

> <PUBCHEM_CACTVS_COMPLEXITY>
603

> <PUBCHEM_CACTVS_HBOND_ACCEPTOR>
4

> <PUBCHEM_CACTVS_HBOND_DONOR>
2

> <PUBCHEM_CACTVS_ROTATABLE_BOND>
9

> <PUBCHEM_CACTVS_SUBSKEYS>
AAADceB7MAAGAAAAAAAAAAAAAAAAAAAAAAA8YMEAAAAAAAABUAAAHgIQAAAADA7BmCQwzoPABACIAiRCWACCCAAhJwAIisAObokMZiLFs5vcMihk1hHI6AeQwPAOoAAAAAIAABRAAAAABAAAKAAAAAAAAA==

> <PUBCHEM_IUPAC_OPENEYE_NAME>
(4-phenylphenyl) N-[4-[4-(2,3-dichlorophenyl)piperazin-1-yl]butyl]carbamate;hydrochloride

> <PUBCHEM_IUPAC_CAS_NAME>
N-[4-[4-(2,3-dichlorophenyl)-1-piperazinyl]butyl]carbamic acid (4-phenylphenyl) ester;hydrochloride

> <PUBCHEM_IUPAC_NAME_MARKUP>
(4-phenylphenyl) <I>N</I>-[4-[4-(2,3-dichlorophenyl)piperazin-1-yl]butyl]carbamate;hydrochloride

> <PUBCHEM_IUPAC_NAME>
(4-phenylphenyl) N-[4-[4-(2,3-dichlorophenyl)piperazin-1-yl]butyl]carbamate;hydrochloride

> <PUBCHEM_IUPAC_SYSTEMATIC_NAME>
(4-phenylphenyl) N-[4-[4-[2,3-bis(chloranyl)phenyl]piperazin-1-yl]butyl]carbamate;hydrochloride

> <PUBCHEM_IUPAC_TRADITIONAL_NAME>
N-[4-[4-(2,3-dichlorophenyl)piperazino]butyl]carbamic acid (4-phenylphenyl) ester;hydrochloride

> <PUBCHEM_IUPAC_INCHI>
InChI=1S/C27H29Cl2N3O2.ClH/c28-24-9-6-10-25(26(24)29)32-19-17-31(18-20-32)16-5-4-15-30-27(33)34-23-13-11-22(12-14-23)21-7-2-1-3-8-21;/h1-3,6-14H,4-5,15-20H2,(H,30,33);1H

> <PUBCHEM_IUPAC_INCHIKEY>
FFOFVBVSVNPYLB-UHFFFAOYSA-N

> <PUBCHEM_EXACT_MASS>
533.140360

> <PUBCHEM_MOLECULAR_FORMULA>
C27H30Cl3N3O2

> <PUBCHEM_MOLECULAR_WEIGHT>
534.9

> <PUBCHEM_OPENEYE_CAN_SMILES>
C1CN(CCN1CCCCNC(=O)OC2=CC=C(C=C2)C3=CC=CC=C3)C4=C(C(=CC=C4)Cl)Cl.Cl

> <PUBCHEM_OPENEYE_ISO_SMILES>
C1CN(CCN1CCCCNC(=O)OC2=CC=C(C=C2)C3=CC=CC=C3)C4=C(C(=CC=C4)Cl)Cl.Cl

> <PUBCHEM_CACTVS_TPSA>
44.8

> <PUBCHEM_MONOISOTOPIC_WEIGHT>
533.140360

> <PUBCHEM_TOTAL_CHARGE>
0

> <PUBCHEM_HEAVY_ATOM_COUNT>
35

> <PUBCHEM_ATOM_DEF_STEREO_COUNT>
0

> <PUBCHEM_ATOM_UDEF_STEREO_COUNT>
0

> <PUBCHEM_BOND_DEF_STEREO_COUNT>
0

> <PUBCHEM_BOND_UDEF_STEREO_COUNT>
0

> <PUBCHEM_ISOTOPIC_ATOM_COUNT>
0

> <PUBCHEM_COMPONENT_COUNT>
2

> <PUBCHEM_CACTVS_TAUTO_COUNT>
-1

> <PUBCHEM_COORDINATE_TYPE>
1
5
255

> <PUBCHEM_BONDANNOTATIONS>
15  18  8
15  19  8
18  20  8
19  21  8
20  22  8
21  22  8
24  26  8
24  27  8
25  28  8
25  29  8
26  28  8
27  29  8
30  31  8
30  32  8
31  33  8
32  34  8
33  35  8
34  35  8

$$$$
