44336154
  -OEChem-09292322152D

 59 62  0     1  0  0  0  0  0999 V2000
   11.1241   -3.9033    0.0000 Cl  0  0  0  0  0  0  0  0  0  0  0  0
    4.3211    0.1855    0.0000 O   0  0  0  0  0  0  0  0  0  0  0  0
    4.6783    1.8804    0.0000 N   0  0  0  0  0  0  0  0  0  0  0  0
    6.2781   -0.2269    0.0000 N   0  0  0  0  0  0  0  0  0  0  0  0
    6.8994   -2.1279    0.0000 N   0  0  0  0  0  0  0  0  0  0  0  0
    4.6783    3.4898    0.0000 C   0  0  0  0  0  0  0  0  0  0  0  0
    5.2619    2.6851    0.0000 C   0  0  3  0  0  0  0  0  0  0  0  0
    3.7320    3.1851    0.0000 C   0  0  0  0  0  0  0  0  0  0  0  0
    3.7320    2.1851    0.0000 C   0  0  0  0  0  0  0  0  0  0  0  0
    5.4883    4.0762    0.0000 C   0  0  0  0  0  0  0  0  0  0  0  0
    4.3709    4.4414    0.0000 C   0  0  0  0  0  0  0  0  0  0  0  0
    6.2619    2.6851    0.0000 C   0  0  0  0  0  0  0  0  0  0  0  0
    4.9889    0.9298    0.0000 C   0  0  0  0  0  0  0  0  0  0  0  0
    5.9674    0.7236    0.0000 C   0  0  0  0  0  0  0  0  0  0  0  0
    2.8660    3.6851    0.0000 C   0  0  0  0  0  0  0  0  0  0  0  0
    5.6103   -0.9712    0.0000 C   0  0  0  0  0  0  0  0  0  0  0  0
    7.2566   -0.4331    0.0000 C   0  0  0  0  0  0  0  0  0  0  0  0
    2.8660    1.6851    0.0000 C   0  0  0  0  0  0  0  0  0  0  0  0
    5.9209   -1.9217    0.0000 C   0  0  0  0  0  0  0  0  0  0  0  0
    7.5673   -1.3836    0.0000 C   0  0  0  0  0  0  0  0  0  0  0  0
    2.0000    3.1851    0.0000 C   0  0  0  0  0  0  0  0  0  0  0  0
    2.0000    2.1851    0.0000 C   0  0  0  0  0  0  0  0  0  0  0  0
    7.2101   -3.0785    0.0000 C   0  0  0  0  0  0  0  0  0  0  0  0
    8.1886   -3.2847    0.0000 C   0  0  0  0  0  0  0  0  0  0  0  0
    8.8564   -2.5404    0.0000 C   0  0  0  0  0  0  0  0  0  0  0  0
    8.4993   -4.2352    0.0000 C   0  0  0  0  0  0  0  0  0  0  0  0
    9.8349   -2.7466    0.0000 C   0  0  0  0  0  0  0  0  0  0  0  0
    9.4778   -4.4414    0.0000 C   0  0  0  0  0  0  0  0  0  0  0  0
   10.1456   -3.6971    0.0000 C   0  0  0  0  0  0  0  0  0  0  0  0
    5.5436    2.1328    0.0000 H   0  0  0  0  0  0  0  0  0  0  0  0
    5.8519    3.5740    0.0000 H   0  0  0  0  0  0  0  0  0  0  0  0
    5.9905    4.4398    0.0000 H   0  0  0  0  0  0  0  0  0  0  0  0
    5.1248    4.5784    0.0000 H   0  0  0  0  0  0  0  0  0  0  0  0
    4.9609    4.6320    0.0000 H   0  0  0  0  0  0  0  0  0  0  0  0
    4.1803    5.0314    0.0000 H   0  0  0  0  0  0  0  0  0  0  0  0
    3.7809    4.2508    0.0000 H   0  0  0  0  0  0  0  0  0  0  0  0
    6.2619    2.0651    0.0000 H   0  0  0  0  0  0  0  0  0  0  0  0
    6.8819    2.6851    0.0000 H   0  0  0  0  0  0  0  0  0  0  0  0
    6.2619    3.3051    0.0000 H   0  0  0  0  0  0  0  0  0  0  0  0
    6.5812    0.8110    0.0000 H   0  0  0  0  0  0  0  0  0  0  0  0
    5.9880    1.3433    0.0000 H   0  0  0  0  0  0  0  0  0  0  0  0
    2.8660    4.3051    0.0000 H   0  0  0  0  0  0  0  0  0  0  0  0
    5.2277   -0.4833    0.0000 H   0  0  0  0  0  0  0  0  0  0  0  0
    5.0633   -1.2632    0.0000 H   0  0  0  0  0  0  0  0  0  0  0  0
    7.8704   -0.3458    0.0000 H   0  0  0  0  0  0  0  0  0  0  0  0
    7.2772    0.1865    0.0000 H   0  0  0  0  0  0  0  0  0  0  0  0
    2.8660    1.0651    0.0000 H   0  0  0  0  0  0  0  0  0  0  0  0
    5.3071   -2.0091    0.0000 H   0  0  0  0  0  0  0  0  0  0  0  0
    5.9004   -2.5414    0.0000 H   0  0  0  0  0  0  0  0  0  0  0  0
    7.9498   -1.8715    0.0000 H   0  0  0  0  0  0  0  0  0  0  0  0
    8.1142   -1.0916    0.0000 H   0  0  0  0  0  0  0  0  0  0  0  0
    1.4631    3.4951    0.0000 H   0  0  0  0  0  0  0  0  0  0  0  0
    1.4631    1.8751    0.0000 H   0  0  0  0  0  0  0  0  0  0  0  0
    6.5963   -3.1658    0.0000 H   0  0  0  0  0  0  0  0  0  0  0  0
    7.1895   -3.6981    0.0000 H   0  0  0  0  0  0  0  0  0  0  0  0
    8.6638   -1.9510    0.0000 H   0  0  0  0  0  0  0  0  0  0  0  0
    8.0852   -4.6967    0.0000 H   0  0  0  0  0  0  0  0  0  0  0  0
   10.2490   -2.2851    0.0000 H   0  0  0  0  0  0  0  0  0  0  0  0
    9.6704   -5.0307    0.0000 H   0  0  0  0  0  0  0  0  0  0  0  0
  1 29  1  0  0  0  0
  2 13  2  0  0  0  0
  3  7  1  0  0  0  0
  3  9  1  0  0  0  0
  3 13  1  0  0  0  0
  4 14  1  0  0  0  0
  4 16  1  0  0  0  0
  4 17  1  0  0  0  0
  5 19  1  0  0  0  0
  5 20  1  0  0  0  0
  5 23  1  0  0  0  0
  6  7  1  0  0  0  0
  6  8  1  0  0  0  0
  6 10  1  0  0  0  0
  6 11  1  0  0  0  0
  7 12  1  0  0  0  0
  7 30  1  0  0  0  0
  8  9  1  0  0  0  0
  8 15  2  0  0  0  0
  9 18  2  0  0  0  0
 10 31  1  0  0  0  0
 10 32  1  0  0  0  0
 10 33  1  0  0  0  0
 11 34  1  0  0  0  0
 11 35  1  0  0  0  0
 11 36  1  0  0  0  0
 12 37  1  0  0  0  0
 12 38  1  0  0  0  0
 12 39  1  0  0  0  0
 13 14  1  0  0  0  0
 14 40  1  0  0  0  0
 14 41  1  0  0  0  0
 15 21  1  0  0  0  0
 15 42  1  0  0  0  0
 16 19  1  0  0  0  0
 16 43  1  0  0  0  0
 16 44  1  0  0  0  0
 17 20  1  0  0  0  0
 17 45  1  0  0  0  0
 17 46  1  0  0  0  0
 18 22  1  0  0  0  0
 18 47  1  0  0  0  0
 19 48  1  0  0  0  0
 19 49  1  0  0  0  0
 20 50  1  0  0  0  0
 20 51  1  0  0  0  0
 21 22  2  0  0  0  0
 21 52  1  0  0  0  0
 22 53  1  0  0  0  0
 23 24  1  0  0  0  0
 23 54  1  0  0  0  0
 23 55  1  0  0  0  0
 24 25  2  0  0  0  0
 24 26  1  0  0  0  0
 25 27  1  0  0  0  0
 25 56  1  0  0  0  0
 26 28  2  0  0  0  0
 26 57  1  0  0  0  0
 27 29  2  0  0  0  0
 27 58  1  0  0  0  0
 28 29  1  0  0  0  0
 28 59  1  0  0  0  0
M  END
> <PUBCHEM_COMPOUND_CID>
44336154

> <PUBCHEM_COMPOUND_CANONICALIZED>
1

> <PUBCHEM_CACTVS_COMPLEXITY>
567

> <PUBCHEM_CACTVS_HBOND_ACCEPTOR>
3

> <PUBCHEM_CACTVS_HBOND_DONOR>
0

> <PUBCHEM_CACTVS_ROTATABLE_BOND>
4

> <PUBCHEM_CACTVS_SUBSKEYS>
AAADceB7IAAEAAAAAAAAAAAAAAAAAWAAAAA8YIAAAAAAAFgBQAAAHgIAAAAADirBmCQywIMAAACIAiVSUACCAAAhBwAIiACIZogIYCLBk7GUIAhghgDIyAcQgMAPhAAAAAACAAAIAAAAAAQAAAAAAAAAAA==

> <PUBCHEM_IUPAC_OPENEYE_NAME>
2-[4-[(4-chlorophenyl)methyl]piperazin-1-yl]-1-(2,3,3-trimethylindolin-1-yl)ethanone

> <PUBCHEM_IUPAC_CAS_NAME>
2-[4-[(4-chlorophenyl)methyl]-1-piperazinyl]-1-(2,3,3-trimethyl-2H-indol-1-yl)ethanone

> <PUBCHEM_IUPAC_NAME_MARKUP>
2-[4-[(4-chlorophenyl)methyl]piperazin-1-yl]-1-(2,3,3-trimethyl-2<I>H</I>-indol-1-yl)ethanone

> <PUBCHEM_IUPAC_NAME>
2-[4-[(4-chlorophenyl)methyl]piperazin-1-yl]-1-(2,3,3-trimethyl-2H-indol-1-yl)ethanone

> <PUBCHEM_IUPAC_SYSTEMATIC_NAME>
2-[4-[(4-chlorophenyl)methyl]piperazin-1-yl]-1-(2,3,3-trimethyl-2H-indol-1-yl)ethanone

> <PUBCHEM_IUPAC_TRADITIONAL_NAME>
2-[4-(4-chlorobenzyl)piperazino]-1-(2,3,3-trimethylindolin-1-yl)ethanone

> <PUBCHEM_IUPAC_INCHI>
InChI=1S/C24H30ClN3O/c1-18-24(2,3)21-6-4-5-7-22(21)28(18)23(29)17-27-14-12-26(13-15-27)16-19-8-10-20(25)11-9-19/h4-11,18H,12-17H2,1-3H3

> <PUBCHEM_IUPAC_INCHIKEY>
WIDARYDIQORZIK-UHFFFAOYSA-N

> <PUBCHEM_XLOGP3_AA>
4.6

> <PUBCHEM_EXACT_MASS>
411.2077403

> <PUBCHEM_MOLECULAR_FORMULA>
C24H30ClN3O

> <PUBCHEM_MOLECULAR_WEIGHT>
412.0

> <PUBCHEM_OPENEYE_CAN_SMILES>
CC1C(C2=CC=CC=C2N1C(=O)CN3CCN(CC3)CC4=CC=C(C=C4)Cl)(C)C

> <PUBCHEM_OPENEYE_ISO_SMILES>
CC1C(C2=CC=CC=C2N1C(=O)CN3CCN(CC3)CC4=CC=C(C=C4)Cl)(C)C

> <PUBCHEM_CACTVS_TPSA>
26.8

> <PUBCHEM_MONOISOTOPIC_WEIGHT>
411.2077403

> <PUBCHEM_TOTAL_CHARGE>
0

> <PUBCHEM_HEAVY_ATOM_COUNT>
29

> <PUBCHEM_ATOM_DEF_STEREO_COUNT>
0

> <PUBCHEM_ATOM_UDEF_STEREO_COUNT>
1

> <PUBCHEM_BOND_DEF_STEREO_COUNT>
0

> <PUBCHEM_BOND_UDEF_STEREO_COUNT>
0

> <PUBCHEM_ISOTOPIC_ATOM_COUNT>
0

> <PUBCHEM_COMPONENT_COUNT>
1

> <PUBCHEM_CACTVS_TAUTO_COUNT>
-1

> <PUBCHEM_COORDINATE_TYPE>
1
5
255

> <PUBCHEM_BONDANNOTATIONS>
15  21  8
18  22  8
21  22  8
24  25  8
24  26  8
25  27  8
26  28  8
27  29  8
28  29  8
7  12  3
8  15  8
8  9  8
9  18  8

$$$$
