121304458
  -OEChem-09292322372D

 56 60  0     1  0  0  0  0  0999 V2000
    4.8479    1.4816    0.0000 S   0  0  0  0  0  0  0  0  0  0  0  0
    4.5691    5.4173    0.0000 O   0  0  0  0  0  0  0  0  0  0  0  0
    5.2100   -1.9635    0.0000 N   0  0  3  0  0  0  0  0  0  0  0  0
    4.5691    3.2417    0.0000 N   0  0  0  0  0  0  0  0  0  0  0  0
    3.2601    2.2907    0.0000 N   0  0  0  0  0  0  0  0  0  0  0  0
    2.9511    3.2417    0.0000 N   0  0  0  0  0  0  0  0  0  0  0  0
    3.2601    6.3684    0.0000 N   0  0  0  0  0  0  0  0  0  0  0  0
    5.7100   -3.5023    0.0000 C   0  0  1  0  0  0  0  0  0  0  0  0
    6.2100   -4.3684    0.0000 C   0  0  1  0  0  0  0  0  0  0  0  0
    5.2100   -4.3684    0.0000 C   0  0  0  0  0  0  0  0  0  0  0  0
    6.5190   -2.9145    0.0000 C   0  0  0  0  0  0  0  0  0  0  0  0
    4.9009   -2.9145    0.0000 C   0  0  0  0  0  0  0  0  0  0  0  0
    6.2100   -1.9635    0.0000 C   0  0  0  0  0  0  0  0  0  0  0  0
    7.0760   -4.8684    0.0000 C   0  0  0  0  0  0  0  0  0  0  0  0
    4.6222   -1.1545    0.0000 C   0  0  0  0  0  0  0  0  0  0  0  0
    7.9420   -4.3684    0.0000 C   0  0  0  0  0  0  0  0  0  0  0  0
    7.0760   -5.8684    0.0000 C   0  0  0  0  0  0  0  0  0  0  0  0
    5.0289   -0.2409    0.0000 C   0  0  0  0  0  0  0  0  0  0  0  0
    8.8080   -4.8684    0.0000 C   0  0  0  0  0  0  0  0  0  0  0  0
    7.9420   -6.3684    0.0000 C   0  0  0  0  0  0  0  0  0  0  0  0
    4.4411    0.5681    0.0000 C   0  0  0  0  0  0  0  0  0  0  0  0
    8.8080   -5.8684    0.0000 C   0  0  0  0  0  0  0  0  0  0  0  0
    4.2601    2.2907    0.0000 C   0  0  0  0  0  0  0  0  0  0  0  0
    3.7601    3.8295    0.0000 C   0  0  0  0  0  0  0  0  0  0  0  0
    5.5202    3.5507    0.0000 C   0  0  0  0  0  0  0  0  0  0  0  0
    3.7601    4.8295    0.0000 C   0  0  0  0  0  0  0  0  0  0  0  0
    2.9511    5.4173    0.0000 C   0  0  0  0  0  0  0  0  0  0  0  0
    2.0000    5.1083    0.0000 C   0  0  0  0  0  0  0  0  0  0  0  0
    4.2601    6.3684    0.0000 C   0  0  0  0  0  0  0  0  0  0  0  0
    6.0495   -4.9672    0.0000 H   0  0  0  0  0  0  0  0  0  0  0  0
    4.6274   -4.1563    0.0000 H   0  0  0  0  0  0  0  0  0  0  0  0
    5.1023   -4.9789    0.0000 H   0  0  0  0  0  0  0  0  0  0  0  0
    6.8290   -3.4515    0.0000 H   0  0  0  0  0  0  0  0  0  0  0  0
    7.0854   -2.6624    0.0000 H   0  0  0  0  0  0  0  0  0  0  0  0
    4.3345   -2.6624    0.0000 H   0  0  0  0  0  0  0  0  0  0  0  0
    4.5909   -3.4515    0.0000 H   0  0  0  0  0  0  0  0  0  0  0  0
    6.8164   -1.8346    0.0000 H   0  0  0  0  0  0  0  0  0  0  0  0
    6.1452   -1.3469    0.0000 H   0  0  0  0  0  0  0  0  0  0  0  0
    4.1082   -0.8078    0.0000 H   0  0  0  0  0  0  0  0  0  0  0  0
    4.1915   -1.6004    0.0000 H   0  0  0  0  0  0  0  0  0  0  0  0
    7.9420   -3.7484    0.0000 H   0  0  0  0  0  0  0  0  0  0  0  0
    6.5390   -6.1784    0.0000 H   0  0  0  0  0  0  0  0  0  0  0  0
    5.5429   -0.5876    0.0000 H   0  0  0  0  0  0  0  0  0  0  0  0
    5.4596    0.2051    0.0000 H   0  0  0  0  0  0  0  0  0  0  0  0
    9.3450   -4.5584    0.0000 H   0  0  0  0  0  0  0  0  0  0  0  0
    7.9420   -6.9884    0.0000 H   0  0  0  0  0  0  0  0  0  0  0  0
    3.9271    0.9148    0.0000 H   0  0  0  0  0  0  0  0  0  0  0  0
    4.0104    0.1221    0.0000 H   0  0  0  0  0  0  0  0  0  0  0  0
    9.3450   -6.1784    0.0000 H   0  0  0  0  0  0  0  0  0  0  0  0
    5.7117    2.9611    0.0000 H   0  0  0  0  0  0  0  0  0  0  0  0
    6.1098    3.7423    0.0000 H   0  0  0  0  0  0  0  0  0  0  0  0
    5.3286    4.1404    0.0000 H   0  0  0  0  0  0  0  0  0  0  0  0
    1.8084    5.6979    0.0000 H   0  0  0  0  0  0  0  0  0  0  0  0
    1.4103    4.9167    0.0000 H   0  0  0  0  0  0  0  0  0  0  0  0
    2.1916    4.5186    0.0000 H   0  0  0  0  0  0  0  0  0  0  0  0
    4.6245    6.8699    0.0000 H   0  0  0  0  0  0  0  0  0  0  0  0
  1 21  1  0  0  0  0
  1 23  1  0  0  0  0
  2 26  1  0  0  0  0
  2 29  1  0  0  0  0
  3 12  1  0  0  0  0
  3 13  1  0  0  0  0
  3 15  1  0  0  0  0
  4 23  1  0  0  0  0
  4 24  1  0  0  0  0
  4 25  1  0  0  0  0
  5  6  1  0  0  0  0
  5 23  2  0  0  0  0
  6 24  2  0  0  0  0
  7 27  1  0  0  0  0
  7 29  2  0  0  0  0
  8  9  1  0  0  0  0
  8 10  1  1  0  0  0
  8 11  1  0  0  0  0
  8 12  1  0  0  0  0
  9 10  1  0  0  0  0
  9 14  1  6  0  0  0
  9 30  1  0  0  0  0
 10 31  1  0  0  0  0
 10 32  1  0  0  0  0
 11 13  1  0  0  0  0
 11 33  1  0  0  0  0
 11 34  1  0  0  0  0
 12 35  1  0  0  0  0
 12 36  1  0  0  0  0
 13 37  1  0  0  0  0
 13 38  1  0  0  0  0
 14 16  2  0  0  0  0
 14 17  1  0  0  0  0
 15 18  1  0  0  0  0
 15 39  1  0  0  0  0
 15 40  1  0  0  0  0
 16 19  1  0  0  0  0
 16 41  1  0  0  0  0
 17 20  2  0  0  0  0
 17 42  1  0  0  0  0
 18 21  1  0  0  0  0
 18 43  1  0  0  0  0
 18 44  1  0  0  0  0
 19 22  2  0  0  0  0
 19 45  1  0  0  0  0
 20 22  1  0  0  0  0
 20 46  1  0  0  0  0
 21 47  1  0  0  0  0
 21 48  1  0  0  0  0
 22 49  1  0  0  0  0
 24 26  1  0  0  0  0
 25 50  1  0  0  0  0
 25 51  1  0  0  0  0
 25 52  1  0  0  0  0
 26 27  2  0  0  0  0
 27 28  1  0  0  0  0
 28 53  1  0  0  0  0
 28 54  1  0  0  0  0
 28 55  1  0  0  0  0
 29 56  1  0  0  0  0
M  END
> <PUBCHEM_COMPOUND_CID>
121304458

> <PUBCHEM_COMPOUND_CANONICALIZED>
1

> <PUBCHEM_CACTVS_COMPLEXITY>
561

> <PUBCHEM_CACTVS_HBOND_ACCEPTOR>
6

> <PUBCHEM_CACTVS_HBOND_DONOR>
0

> <PUBCHEM_CACTVS_ROTATABLE_BOND>
7

> <PUBCHEM_CACTVS_SUBSKEYS>
AAADceB7oABAAAAAAAAAAAAAGAAAAWLFgAAwAAAAAAAAAAAB8AAAHgQIAAAADwzF3wa3lJcMFEiqA6Zz9ASS2Ct7YLAd2CG9RJiOKCLk2TCNIChgjALYiAcQgMAPgAAAAAAAAAAAAAAAAAAAAAAAAAAAAA==

> <PUBCHEM_IUPAC_OPENEYE_NAME>
4-methyl-5-[4-methyl-5-[3-[(2S,3R)-2-phenyl-5-azaspiro[2.4]heptan-5-yl]propylsulfanyl]-1,2,4-triazol-3-yl]oxazole

> <PUBCHEM_IUPAC_CAS_NAME>
4-methyl-5-[4-methyl-5-[3-[(2S,3R)-2-phenyl-5-azaspiro[2.4]heptan-5-yl]propylthio]-1,2,4-triazol-3-yl]oxazole

> <PUBCHEM_IUPAC_NAME_MARKUP>
4-methyl-5-[4-methyl-5-[3-[(2<I>S</I>,3<I>R</I>)-2-phenyl-5-azaspiro[2.4]heptan-5-yl]propylsulfanyl]-1,2,4-triazol-3-yl]-1,3-oxazole

> <PUBCHEM_IUPAC_NAME>
4-methyl-5-[4-methyl-5-[3-[(2S,3R)-2-phenyl-5-azaspiro[2.4]heptan-5-yl]propylsulfanyl]-1,2,4-triazol-3-yl]-1,3-oxazole

> <PUBCHEM_IUPAC_SYSTEMATIC_NAME>
4-methyl-5-[4-methyl-5-[3-[(2S,3R)-2-phenyl-5-azaspiro[2.4]heptan-5-yl]propylsulfanyl]-1,2,4-triazol-3-yl]-1,3-oxazole

> <PUBCHEM_IUPAC_TRADITIONAL_NAME>
4-methyl-5-[4-methyl-5-[3-[(2S,3R)-2-phenyl-5-azaspiro[2.4]heptan-5-yl]propylthio]-1,2,4-triazol-3-yl]oxazole

> <PUBCHEM_IUPAC_INCHI>
InChI=1S/C22H27N5OS/c1-16-19(28-15-23-16)20-24-25-21(26(20)2)29-12-6-10-27-11-9-22(14-27)13-18(22)17-7-4-3-5-8-17/h3-5,7-8,15,18H,6,9-14H2,1-2H3/t18-,22+/m0/s1

> <PUBCHEM_IUPAC_INCHIKEY>
AAPXNHMQKBDDJN-PGRDOPGGSA-N

> <PUBCHEM_XLOGP3_AA>
3.3

> <PUBCHEM_EXACT_MASS>
409.19363168

> <PUBCHEM_MOLECULAR_FORMULA>
C22H27N5OS

> <PUBCHEM_MOLECULAR_WEIGHT>
409.5

> <PUBCHEM_OPENEYE_CAN_SMILES>
CC1=C(OC=N1)C2=NN=C(N2C)SCCCN3CCC4(C3)CC4C5=CC=CC=C5

> <PUBCHEM_OPENEYE_ISO_SMILES>
CC1=C(OC=N1)C2=NN=C(N2C)SCCCN3CC[C@]4(C3)C[C@H]4C5=CC=CC=C5

> <PUBCHEM_CACTVS_TPSA>
85.3

> <PUBCHEM_MONOISOTOPIC_WEIGHT>
409.19363168

> <PUBCHEM_TOTAL_CHARGE>
0

> <PUBCHEM_HEAVY_ATOM_COUNT>
29

> <PUBCHEM_ATOM_DEF_STEREO_COUNT>
2

> <PUBCHEM_ATOM_UDEF_STEREO_COUNT>
0

> <PUBCHEM_BOND_DEF_STEREO_COUNT>
0

> <PUBCHEM_BOND_UDEF_STEREO_COUNT>
0

> <PUBCHEM_ISOTOPIC_ATOM_COUNT>
0

> <PUBCHEM_COMPONENT_COUNT>
1

> <PUBCHEM_CACTVS_TAUTO_COUNT>
-1

> <PUBCHEM_COORDINATE_TYPE>
1
5
255

> <PUBCHEM_BONDANNOTATIONS>
14  16  8
14  17  8
16  19  8
17  20  8
19  22  8
2  26  8
2  29  8
20  22  8
26  27  8
4  23  8
4  24  8
5  23  8
5  6  8
6  24  8
7  27  8
7  29  8
8  10  5
9  14  6

$$$$
