45260717
  -OEChem-09292322192D

 54 56  0     0  0  0  0  0  0999 V2000
    6.1874    0.0000    0.0000 Cl  0  0  0  0  0  0  0  0  0  0  0  0
    7.7078    4.9777    0.0000 O   0  0  0  0  0  0  0  0  0  0  0  0
    7.3988    7.5468    0.0000 O   0  0  0  0  0  0  0  0  0  0  0  0
   11.8949    2.9356    0.0000 O   0  0  0  0  0  0  0  0  0  0  0  0
    5.1200    5.7867    0.0000 N   0  0  0  0  0  0  0  0  0  0  0  0
    7.1200    5.7867    0.0000 C   0  0  0  0  0  0  0  0  0  0  0  0
    6.6200    6.6527    0.0000 C   0  0  0  0  0  0  0  0  0  0  0  0
    6.6200    4.9207    0.0000 C   0  0  0  0  0  0  0  0  0  0  0  0
    5.6200    6.6527    0.0000 C   0  0  0  0  0  0  0  0  0  0  0  0
    5.6200    4.9207    0.0000 C   0  0  0  0  0  0  0  0  0  0  0  0
    7.7078    6.5957    0.0000 C   0  0  0  0  0  0  0  0  0  0  0  0
    4.1200    5.7867    0.0000 C   0  0  0  0  0  0  0  0  0  0  0  0
    8.6588    5.2867    0.0000 C   0  0  0  0  0  0  0  0  0  0  0  0
    8.6588    6.2867    0.0000 C   0  0  0  0  0  0  0  0  0  0  0  0
    3.6200    4.9207    0.0000 C   0  0  0  0  0  0  0  0  0  0  0  0
    9.4679    4.6989    0.0000 C   0  0  0  0  0  0  0  0  0  0  0  0
    2.6200    4.9207    0.0000 C   0  0  0  0  0  0  0  0  0  0  0  0
   10.3814    5.1056    0.0000 C   0  0  0  0  0  0  0  0  0  0  0  0
    9.3633    3.7044    0.0000 C   0  0  0  0  0  0  0  0  0  0  0  0
    2.1200    5.7867    0.0000 C   0  0  0  0  0  0  0  0  0  0  0  0
    2.1200    4.0546    0.0000 C   0  0  0  0  0  0  0  0  0  0  0  0
   11.1904    4.5179    0.0000 C   0  0  0  0  0  0  0  0  0  0  0  0
   10.1723    3.1166    0.0000 C   0  0  0  0  0  0  0  0  0  0  0  0
   11.0859    3.5233    0.0000 C   0  0  0  0  0  0  0  0  0  0  0  0
    1.1200    5.7867    0.0000 C   0  0  0  0  0  0  0  0  0  0  0  0
    1.1200    4.0546    0.0000 C   0  0  0  0  0  0  0  0  0  0  0  0
    0.6200    4.9207    0.0000 C   0  0  0  0  0  0  0  0  0  0  0  0
   12.8085    3.3423    0.0000 C   0  0  0  0  0  0  0  0  0  0  0  0
    7.2026    6.8648    0.0000 H   0  0  0  0  0  0  0  0  0  0  0  0
    6.5123    7.2633    0.0000 H   0  0  0  0  0  0  0  0  0  0  0  0
    6.5123    4.3101    0.0000 H   0  0  0  0  0  0  0  0  0  0  0  0
    7.2026    4.7086    0.0000 H   0  0  0  0  0  0  0  0  0  0  0  0
    5.7277    7.2633    0.0000 H   0  0  0  0  0  0  0  0  0  0  0  0
    5.0374    6.8648    0.0000 H   0  0  0  0  0  0  0  0  0  0  0  0
    5.0374    4.7086    0.0000 H   0  0  0  0  0  0  0  0  0  0  0  0
    5.7277    4.3101    0.0000 H   0  0  0  0  0  0  0  0  0  0  0  0
    4.2277    6.3973    0.0000 H   0  0  0  0  0  0  0  0  0  0  0  0
    3.5374    5.9988    0.0000 H   0  0  0  0  0  0  0  0  0  0  0  0
    9.1604    6.6511    0.0000 H   0  0  0  0  0  0  0  0  0  0  0  0
    3.5123    4.3101    0.0000 H   0  0  0  0  0  0  0  0  0  0  0  0
    4.2026    4.7086    0.0000 H   0  0  0  0  0  0  0  0  0  0  0  0
   10.4462    5.7222    0.0000 H   0  0  0  0  0  0  0  0  0  0  0  0
    8.7969    3.4522    0.0000 H   0  0  0  0  0  0  0  0  0  0  0  0
    2.4300    6.3236    0.0000 H   0  0  0  0  0  0  0  0  0  0  0  0
    2.4300    3.5177    0.0000 H   0  0  0  0  0  0  0  0  0  0  0  0
   11.7568    4.7700    0.0000 H   0  0  0  0  0  0  0  0  0  0  0  0
   10.1075    2.5000    0.0000 H   0  0  0  0  0  0  0  0  0  0  0  0
    0.8100    6.3236    0.0000 H   0  0  0  0  0  0  0  0  0  0  0  0
    0.8100    3.5177    0.0000 H   0  0  0  0  0  0  0  0  0  0  0  0
    0.0000    4.9207    0.0000 H   0  0  0  0  0  0  0  0  0  0  0  0
   13.0606    2.7759    0.0000 H   0  0  0  0  0  0  0  0  0  0  0  0
   13.3749    3.5945    0.0000 H   0  0  0  0  0  0  0  0  0  0  0  0
   12.5563    3.9087    0.0000 H   0  0  0  0  0  0  0  0  0  0  0  0
    7.1874    0.0000    0.0000 H   0  0  0  0  0  0  0  0  0  0  0  0
  1 54  1  0  0  0  0
  2  6  1  0  0  0  0
  2 13  1  0  0  0  0
  3 11  2  0  0  0  0
  4 24  1  0  0  0  0
  4 28  1  0  0  0  0
  5  9  1  0  0  0  0
  5 10  1  0  0  0  0
  5 12  1  0  0  0  0
  6  7  1  0  0  0  0
  6  8  1  0  0  0  0
  6 11  1  0  0  0  0
  7  9  1  0  0  0  0
  7 29  1  0  0  0  0
  7 30  1  0  0  0  0
  8 10  1  0  0  0  0
  8 31  1  0  0  0  0
  8 32  1  0  0  0  0
  9 33  1  0  0  0  0
  9 34  1  0  0  0  0
 10 35  1  0  0  0  0
 10 36  1  0  0  0  0
 11 14  1  0  0  0  0
 12 15  1  0  0  0  0
 12 37  1  0  0  0  0
 12 38  1  0  0  0  0
 13 14  2  0  0  0  0
 13 16  1  0  0  0  0
 14 39  1  0  0  0  0
 15 17  1  0  0  0  0
 15 40  1  0  0  0  0
 15 41  1  0  0  0  0
 16 18  2  0  0  0  0
 16 19  1  0  0  0  0
 17 20  2  0  0  0  0
 17 21  1  0  0  0  0
 18 22  1  0  0  0  0
 18 42  1  0  0  0  0
 19 23  2  0  0  0  0
 19 43  1  0  0  0  0
 20 25  1  0  0  0  0
 20 44  1  0  0  0  0
 21 26  2  0  0  0  0
 21 45  1  0  0  0  0
 22 24  2  0  0  0  0
 22 46  1  0  0  0  0
 23 24  1  0  0  0  0
 23 47  1  0  0  0  0
 25 27  2  0  0  0  0
 25 48  1  0  0  0  0
 26 27  1  0  0  0  0
 26 49  1  0  0  0  0
 27 50  1  0  0  0  0
 28 51  1  0  0  0  0
 28 52  1  0  0  0  0
 28 53  1  0  0  0  0
M  END
> <PUBCHEM_COMPOUND_CID>
45260717

> <PUBCHEM_COMPOUND_CANONICALIZED>
1

> <PUBCHEM_CACTVS_COMPLEXITY>
536

> <PUBCHEM_CACTVS_HBOND_ACCEPTOR>
4

> <PUBCHEM_CACTVS_HBOND_DONOR>
1

> <PUBCHEM_CACTVS_ROTATABLE_BOND>
5

> <PUBCHEM_CACTVS_SUBSKEYS>
AAADceB6MAAEAAAAAAAAAAAAAAAAAQAAAAA8YIAAAAAAAAABQAAAHgAAAAAADETBmAYyBoMABACIAqBSAAICCAAgIAAIiAFOCMgMJjKEsR+GMCAmwBGIqQeU4KwOIAAAAAAAAABAAAAAAAAAAAAAAAAAAA==

> <PUBCHEM_IUPAC_OPENEYE_NAME>
2-(4-methoxyphenyl)-8-(2-phenylethyl)-1-oxa-8-azaspiro[4.5]dec-2-en-4-one;hydrochloride

> <PUBCHEM_IUPAC_CAS_NAME>
2-(4-methoxyphenyl)-8-(2-phenylethyl)-1-oxa-8-azaspiro[4.5]dec-2-en-4-one;hydrochloride

> <PUBCHEM_IUPAC_NAME_MARKUP>
2-(4-methoxyphenyl)-8-(2-phenylethyl)-1-oxa-8-azaspiro[4.5]dec-2-en-4-one;hydrochloride

> <PUBCHEM_IUPAC_NAME>
2-(4-methoxyphenyl)-8-(2-phenylethyl)-1-oxa-8-azaspiro[4.5]dec-2-en-4-one;hydrochloride

> <PUBCHEM_IUPAC_SYSTEMATIC_NAME>
2-(4-methoxyphenyl)-8-(2-phenylethyl)-1-oxa-8-azaspiro[4.5]dec-2-en-4-one;hydrochloride

> <PUBCHEM_IUPAC_TRADITIONAL_NAME>
2-(4-methoxyphenyl)-8-phenethyl-1-oxa-8-azaspiro[4.5]dec-2-en-4-one;hydrochloride

> <PUBCHEM_IUPAC_INCHI>
InChI=1S/C23H25NO3.ClH/c1-26-20-9-7-19(8-10-20)21-17-22(25)23(27-21)12-15-24(16-13-23)14-11-18-5-3-2-4-6-18;/h2-10,17H,11-16H2,1H3;1H

> <PUBCHEM_IUPAC_INCHIKEY>
VBCVMCUYKXGITI-UHFFFAOYSA-N

> <PUBCHEM_EXACT_MASS>
399.1601214

> <PUBCHEM_MOLECULAR_FORMULA>
C23H26ClNO3

> <PUBCHEM_MOLECULAR_WEIGHT>
399.9

> <PUBCHEM_OPENEYE_CAN_SMILES>
COC1=CC=C(C=C1)C2=CC(=O)C3(O2)CCN(CC3)CCC4=CC=CC=C4.Cl

> <PUBCHEM_OPENEYE_ISO_SMILES>
COC1=CC=C(C=C1)C2=CC(=O)C3(O2)CCN(CC3)CCC4=CC=CC=C4.Cl

> <PUBCHEM_CACTVS_TPSA>
38.8

> <PUBCHEM_MONOISOTOPIC_WEIGHT>
399.1601214

> <PUBCHEM_TOTAL_CHARGE>
0

> <PUBCHEM_HEAVY_ATOM_COUNT>
28

> <PUBCHEM_ATOM_DEF_STEREO_COUNT>
0

> <PUBCHEM_ATOM_UDEF_STEREO_COUNT>
0

> <PUBCHEM_BOND_DEF_STEREO_COUNT>
0

> <PUBCHEM_BOND_UDEF_STEREO_COUNT>
0

> <PUBCHEM_ISOTOPIC_ATOM_COUNT>
0

> <PUBCHEM_COMPONENT_COUNT>
2

> <PUBCHEM_CACTVS_TAUTO_COUNT>
-1

> <PUBCHEM_COORDINATE_TYPE>
1
5
255

> <PUBCHEM_BONDANNOTATIONS>
16  18  8
16  19  8
17  20  8
17  21  8
18  22  8
19  23  8
20  25  8
21  26  8
22  24  8
23  24  8
25  27  8
26  27  8

$$$$
