44333001
  -OEChem-09292322112D

 49 52  0     1  0  0  0  0  0999 V2000
    5.5022    0.8663    0.0000 O   0  0  0  0  0  0  0  0  0  0  0  0
    8.1403    3.4008    0.0000 O   0  0  0  0  0  0  0  0  0  0  0  0
    5.5022   -1.2031    0.0000 N   0  0  3  0  0  0  0  0  0  0  0  0
    6.3961   -0.6684    0.0000 C   0  0  3  0  0  0  0  0  0  0  0  0
    6.3961    0.3316    0.0000 C   0  0  3  0  0  0  0  0  0  0  0  0
    7.2622   -1.1684    0.0000 C   0  0  0  0  0  0  0  0  0  0  0  0
    4.5961   -0.6892    0.0000 C   0  0  0  0  0  0  0  0  0  0  0  0
    4.5961    0.3524    0.0000 C   0  0  3  0  0  0  0  0  0  0  0  0
    7.2622    0.8316    0.0000 C   0  0  0  0  0  0  0  0  0  0  0  0
    8.1282   -0.6684    0.0000 C   0  0  0  0  0  0  0  0  0  0  0  0
    8.1282    0.3316    0.0000 C   0  0  0  0  0  0  0  0  0  0  0  0
    5.5138   -2.2030    0.0000 C   0  0  0  0  0  0  0  0  0  0  0  0
    3.7320    0.8557    0.0000 C   0  0  0  0  0  0  0  0  0  0  0  0
    7.2461    1.8731    0.0000 C   0  0  0  0  0  0  0  0  0  0  0  0
    4.6536   -2.7130    0.0000 C   0  0  0  0  0  0  0  0  0  0  0  0
    9.0382    0.8384    0.0000 C   0  0  0  0  0  0  0  0  0  0  0  0
    8.1441    2.4008    0.0000 C   0  0  0  0  0  0  0  0  0  0  0  0
    9.0462    1.8800    0.0000 C   0  0  0  0  0  0  0  0  0  0  0  0
    3.7359    1.8557    0.0000 C   0  0  0  0  0  0  0  0  0  0  0  0
    2.8641    0.3591    0.0000 C   0  0  0  0  0  0  0  0  0  0  0  0
    4.6651   -3.7129    0.0000 C   0  0  0  0  0  0  0  0  0  0  0  0
    2.8718    2.3591    0.0000 C   0  0  0  0  0  0  0  0  0  0  0  0
    2.0000    0.8624    0.0000 C   0  0  0  0  0  0  0  0  0  0  0  0
    2.0038    1.8624    0.0000 C   0  0  0  0  0  0  0  0  0  0  0  0
    6.4009   -1.2884    0.0000 H   0  0  0  0  0  0  0  0  0  0  0  0
    6.4009    0.9516    0.0000 H   0  0  0  0  0  0  0  0  0  0  0  0
    6.8636   -1.6434    0.0000 H   0  0  0  0  0  0  0  0  0  0  0  0
    7.6607   -1.6434    0.0000 H   0  0  0  0  0  0  0  0  0  0  0  0
    3.9853   -0.5831    0.0000 H   0  0  0  0  0  0  0  0  0  0  0  0
    4.3871   -1.2729    0.0000 H   0  0  0  0  0  0  0  0  0  0  0  0
    4.5997    0.9724    0.0000 H   0  0  0  0  0  0  0  0  0  0  0  0
    8.3402   -1.2510    0.0000 H   0  0  0  0  0  0  0  0  0  0  0  0
    8.7388   -0.5607    0.0000 H   0  0  0  0  0  0  0  0  0  0  0  0
    5.7325   -2.7831    0.0000 H   0  0  0  0  0  0  0  0  0  0  0  0
    6.1230   -2.0883    0.0000 H   0  0  0  0  0  0  0  0  0  0  0  0
    6.7056    2.1769    0.0000 H   0  0  0  0  0  0  0  0  0  0  0  0
    4.4348   -2.1329    0.0000 H   0  0  0  0  0  0  0  0  0  0  0  0
    4.0443   -2.8277    0.0000 H   0  0  0  0  0  0  0  0  0  0  0  0
    9.5715    0.5223    0.0000 H   0  0  0  0  0  0  0  0  0  0  0  0
    9.5844    2.1880    0.0000 H   0  0  0  0  0  0  0  0  0  0  0  0
    4.2740    2.1637    0.0000 H   0  0  0  0  0  0  0  0  0  0  0  0
    2.8617   -0.2609    0.0000 H   0  0  0  0  0  0  0  0  0  0  0  0
    4.0452   -3.7201    0.0000 H   0  0  0  0  0  0  0  0  0  0  0  0
    4.6723   -4.3329    0.0000 H   0  0  0  0  0  0  0  0  0  0  0  0
    5.2851   -3.7058    0.0000 H   0  0  0  0  0  0  0  0  0  0  0  0
    2.8742    2.9791    0.0000 H   0  0  0  0  0  0  0  0  0  0  0  0
    1.4619    0.5545    0.0000 H   0  0  0  0  0  0  0  0  0  0  0  0
    1.4681    2.1745    0.0000 H   0  0  0  0  0  0  0  0  0  0  0  0
    8.6760    3.7129    0.0000 H   0  0  0  0  0  0  0  0  0  0  0  0
  1  5  1  0  0  0  0
  1  8  1  0  0  0  0
  2 17  1  0  0  0  0
  2 49  1  0  0  0  0
  3  4  1  0  0  0  0
  3  7  1  0  0  0  0
  3 12  1  0  0  0  0
  4  5  1  0  0  0  0
  4  6  1  0  0  0  0
  4 25  1  0  0  0  0
  5  9  1  0  0  0  0
  5 26  1  0  0  0  0
  6 10  1  0  0  0  0
  6 27  1  0  0  0  0
  6 28  1  0  0  0  0
  7  8  1  0  0  0  0
  7 29  1  0  0  0  0
  7 30  1  0  0  0  0
  8 13  1  0  0  0  0
  8 31  1  0  0  0  0
  9 11  2  0  0  0  0
  9 14  1  0  0  0  0
 10 11  1  0  0  0  0
 10 32  1  0  0  0  0
 10 33  1  0  0  0  0
 11 16  1  0  0  0  0
 12 15  1  0  0  0  0
 12 34  1  0  0  0  0
 12 35  1  0  0  0  0
 13 19  2  0  0  0  0
 13 20  1  0  0  0  0
 14 17  2  0  0  0  0
 14 36  1  0  0  0  0
 15 21  1  0  0  0  0
 15 37  1  0  0  0  0
 15 38  1  0  0  0  0
 16 18  2  0  0  0  0
 16 39  1  0  0  0  0
 17 18  1  0  0  0  0
 18 40  1  0  0  0  0
 19 22  1  0  0  0  0
 19 41  1  0  0  0  0
 20 23  2  0  0  0  0
 20 42  1  0  0  0  0
 21 43  1  0  0  0  0
 21 44  1  0  0  0  0
 21 45  1  0  0  0  0
 22 24  2  0  0  0  0
 22 46  1  0  0  0  0
 23 24  1  0  0  0  0
 23 47  1  0  0  0  0
 24 48  1  0  0  0  0
M  END
> <PUBCHEM_COMPOUND_CID>
44333001

> <PUBCHEM_COMPOUND_CANONICALIZED>
1

> <PUBCHEM_CACTVS_COMPLEXITY>
409

> <PUBCHEM_CACTVS_HBOND_ACCEPTOR>
3

> <PUBCHEM_CACTVS_HBOND_DONOR>
1

> <PUBCHEM_CACTVS_ROTATABLE_BOND>
3

> <PUBCHEM_CACTVS_SUBSKEYS>
AAADceB6MAAAAAAAAAAAAAAAAAAAAAAAAAA8YMEAAAAAAADxQAAAHgAACAAADDzhmAYyBoMABgCAAiBCAAACAAAgIAAIiAAOCIgKJiKCsRuHcAAkwBGYuAfQ0LMOoAABAAAQAABQAAKAADAgAAAAAAAAAA==

> <PUBCHEM_IUPAC_OPENEYE_NAME>
2-phenyl-4-propyl-2,3,4a,5,6,10b-hexahydrobenzo[h][1,4]benzoxazin-9-ol

> <PUBCHEM_IUPAC_CAS_NAME>
2-phenyl-4-propyl-2,3,4a,5,6,10b-hexahydrobenzo[h][1,4]benzoxazin-9-ol

> <PUBCHEM_IUPAC_NAME_MARKUP>
2-phenyl-4-propyl-2,3,4<I>a</I>,5,6,10<I>b</I>-hexahydrobenzo[h][1,4]benzoxazin-9-ol

> <PUBCHEM_IUPAC_NAME>
2-phenyl-4-propyl-2,3,4a,5,6,10b-hexahydrobenzo[h][1,4]benzoxazin-9-ol

> <PUBCHEM_IUPAC_SYSTEMATIC_NAME>
2-phenyl-4-propyl-2,3,4a,5,6,10b-hexahydrobenzo[h][1,4]benzoxazin-9-ol

> <PUBCHEM_IUPAC_TRADITIONAL_NAME>
2-phenyl-4-propyl-2,3,4a,5,6,10b-hexahydrobenzo[h][1,4]benzoxazin-9-ol

> <PUBCHEM_IUPAC_INCHI>
InChI=1S/C21H25NO2/c1-2-12-22-14-20(16-6-4-3-5-7-16)24-21-18-13-17(23)10-8-15(18)9-11-19(21)22/h3-8,10,13,19-21,23H,2,9,11-12,14H2,1H3

> <PUBCHEM_IUPAC_INCHIKEY>
IXUNXYUOXOHHSI-UHFFFAOYSA-N

> <PUBCHEM_XLOGP3>
4

> <PUBCHEM_EXACT_MASS>
323.188529040

> <PUBCHEM_MOLECULAR_FORMULA>
C21H25NO2

> <PUBCHEM_MOLECULAR_WEIGHT>
323.4

> <PUBCHEM_OPENEYE_CAN_SMILES>
CCCN1CC(OC2C1CCC3=C2C=C(C=C3)O)C4=CC=CC=C4

> <PUBCHEM_OPENEYE_ISO_SMILES>
CCCN1CC(OC2C1CCC3=C2C=C(C=C3)O)C4=CC=CC=C4

> <PUBCHEM_CACTVS_TPSA>
32.7

> <PUBCHEM_MONOISOTOPIC_WEIGHT>
323.188529040

> <PUBCHEM_TOTAL_CHARGE>
0

> <PUBCHEM_HEAVY_ATOM_COUNT>
24

> <PUBCHEM_ATOM_DEF_STEREO_COUNT>
0

> <PUBCHEM_ATOM_UDEF_STEREO_COUNT>
3

> <PUBCHEM_BOND_DEF_STEREO_COUNT>
0

> <PUBCHEM_BOND_UDEF_STEREO_COUNT>
0

> <PUBCHEM_ISOTOPIC_ATOM_COUNT>
0

> <PUBCHEM_COMPONENT_COUNT>
1

> <PUBCHEM_CACTVS_TAUTO_COUNT>
-1

> <PUBCHEM_COORDINATE_TYPE>
1
5
255

> <PUBCHEM_BONDANNOTATIONS>
5  1  3
11  16  8
13  19  8
13  20  8
14  17  8
16  18  8
17  18  8
19  22  8
20  23  8
22  24  8
23  24  8
4  6  3
8  13  3
9  11  8
9  14  8

$$$$
