11573806
  -OEChem-09292322272D

 48 50  0     0  0  0  0  0  0999 V2000
    2.0038   -2.0226    0.0000 O   0  0  0  0  0  0  0  0  0  0  0  0
    8.7848   -1.0462    0.0000 O   0  0  0  0  0  0  0  0  0  0  0  0
    4.6559    2.5226    0.0000 N   0  0  0  0  0  0  0  0  0  0  0  0
    4.6559    1.5226    0.0000 C   0  0  0  0  0  0  0  0  0  0  0  0
    5.5219    3.0226    0.0000 C   0  0  0  0  0  0  0  0  0  0  0  0
    3.7898    1.0226    0.0000 C   0  0  0  0  0  0  0  0  0  0  0  0
    6.3879    2.5226    0.0000 C   0  0  0  0  0  0  0  0  0  0  0  0
    5.5219    0.0225    0.0000 C   0  0  0  0  0  0  0  0  0  0  0  0
    3.7898    0.0225    0.0000 C   0  0  0  0  0  0  0  0  0  0  0  0
    6.3879    1.5226    0.0000 C   0  0  0  0  0  0  0  0  0  0  0  0
    4.6559   -0.4775    0.0000 C   0  0  0  0  0  0  0  0  0  0  0  0
    5.5219    1.0226    0.0000 C   0  0  0  0  0  0  0  0  0  0  0  0
    3.7898    3.0226    0.0000 C   0  0  0  0  0  0  0  0  0  0  0  0
    2.8798   -0.4843    0.0000 C   0  0  0  0  0  0  0  0  0  0  0  0
    7.7992    0.9454    0.0000 C   0  0  0  0  0  0  0  0  0  0  0  0
    4.6719   -1.5190    0.0000 C   0  0  0  0  0  0  0  0  0  0  0  0
    5.3160   -0.4882    0.0000 C   0  0  0  0  0  0  0  0  0  0  0  0
    2.8718   -1.5259    0.0000 C   0  0  0  0  0  0  0  0  0  0  0  0
    7.9024   -0.5758    0.0000 C   0  0  0  0  0  0  0  0  0  0  0  0
    3.7739   -2.0467    0.0000 C   0  0  0  0  0  0  0  0  0  0  0  0
    6.5819   -1.3382    0.0000 C   0  0  0  0  0  0  0  0  0  0  0  0
    2.0000   -3.0226    0.0000 C   0  0  0  0  0  0  0  0  0  0  0  0
    9.6334   -0.5172    0.0000 C   0  0  0  0  0  0  0  0  0  0  0  0
    4.8679    0.9399    0.0000 H   0  0  0  0  0  0  0  0  0  0  0  0
    5.2664    1.6302    0.0000 H   0  0  0  0  0  0  0  0  0  0  0  0
    5.9204    3.4975    0.0000 H   0  0  0  0  0  0  0  0  0  0  0  0
    5.1234    3.4975    0.0000 H   0  0  0  0  0  0  0  0  0  0  0  0
    3.5778    1.6052    0.0000 H   0  0  0  0  0  0  0  0  0  0  0  0
    3.1792    0.9149    0.0000 H   0  0  0  0  0  0  0  0  0  0  0  0
    6.9985    2.4149    0.0000 H   0  0  0  0  0  0  0  0  0  0  0  0
    6.6000    3.1052    0.0000 H   0  0  0  0  0  0  0  0  0  0  0  0
    5.7339   -0.5601    0.0000 H   0  0  0  0  0  0  0  0  0  0  0  0
    6.1325    0.1302    0.0000 H   0  0  0  0  0  0  0  0  0  0  0  0
    4.0998    3.5595    0.0000 H   0  0  0  0  0  0  0  0  0  0  0  0
    3.2529    3.3326    0.0000 H   0  0  0  0  0  0  0  0  0  0  0  0
    3.4798    2.4856    0.0000 H   0  0  0  0  0  0  0  0  0  0  0  0
    2.3465   -0.1681    0.0000 H   0  0  0  0  0  0  0  0  0  0  0  0
    8.3020    1.3083    0.0000 H   0  0  0  0  0  0  0  0  0  0  0  0
    5.2124   -1.8227    0.0000 H   0  0  0  0  0  0  0  0  0  0  0  0
    4.7504   -0.7422    0.0000 H   0  0  0  0  0  0  0  0  0  0  0  0
    3.7763   -2.6667    0.0000 H   0  0  0  0  0  0  0  0  0  0  0  0
    6.5609   -1.9579    0.0000 H   0  0  0  0  0  0  0  0  0  0  0  0
    1.3800   -3.0202    0.0000 H   0  0  0  0  0  0  0  0  0  0  0  0
    1.9976   -3.6425    0.0000 H   0  0  0  0  0  0  0  0  0  0  0  0
    2.6200   -3.0249    0.0000 H   0  0  0  0  0  0  0  0  0  0  0  0
    9.9614   -1.0434    0.0000 H   0  0  0  0  0  0  0  0  0  0  0  0
   10.1596   -0.1892    0.0000 H   0  0  0  0  0  0  0  0  0  0  0  0
    9.3054    0.0089    0.0000 H   0  0  0  0  0  0  0  0  0  0  0  0
  1 18  1  0  0  0  0
  1 22  1  0  0  0  0
  2 19  1  0  0  0  0
  2 23  1  0  0  0  0
  3  4  1  0  0  0  0
  3  5  1  0  0  0  0
  3 13  1  0  0  0  0
  4  6  1  0  0  0  0
  4 24  1  0  0  0  0
  4 25  1  0  0  0  0
  5  7  1  0  0  0  0
  5 26  1  0  0  0  0
  5 27  1  0  0  0  0
  6  9  1  0  0  0  0
  6 28  1  0  0  0  0
  6 29  1  0  0  0  0
  7 10  1  0  0  0  0
  7 30  1  0  0  0  0
  7 31  1  0  0  0  0
  8 11  1  0  0  0  0
  8 12  1  0  0  0  0
  8 32  1  0  0  0  0
  8 33  1  0  0  0  0
  9 11  2  0  0  0  0
  9 14  1  0  0  0  0
 10 12  2  0  0  0  0
 10 15  1  0  0  0  0
 11 16  1  0  0  0  0
 12 17  1  0  0  0  0
 13 34  1  0  0  0  0
 13 35  1  0  0  0  0
 13 36  1  0  0  0  0
 14 18  2  0  0  0  0
 14 37  1  0  0  0  0
 15 19  2  0  0  0  0
 15 38  1  0  0  0  0
 16 20  2  0  0  0  0
 16 39  1  0  0  0  0
 17 21  2  0  0  0  0
 17 40  1  0  0  0  0
 18 20  1  0  0  0  0
 19 21  1  0  0  0  0
 20 41  1  0  0  0  0
 21 42  1  0  0  0  0
 22 43  1  0  0  0  0
 22 44  1  0  0  0  0
 22 45  1  0  0  0  0
 23 46  1  0  0  0  0
 23 47  1  0  0  0  0
 23 48  1  0  0  0  0
M  END
> <PUBCHEM_COMPOUND_CID>
11573806

> <PUBCHEM_COMPOUND_CANONICALIZED>
1

> <PUBCHEM_CACTVS_COMPLEXITY>
330

> <PUBCHEM_CACTVS_HBOND_ACCEPTOR>
3

> <PUBCHEM_CACTVS_HBOND_DONOR>
0

> <PUBCHEM_CACTVS_ROTATABLE_BOND>
2

> <PUBCHEM_CACTVS_SUBSKEYS>
AAADceB6MAAAAAAAAAAAAAAAAAAAAAAAAAAwYAAAAAAAAACxQAAAHgAAAAAADATBmAYyBoMABACAAiBCAAACCAAgIAAIiAAOCIgMJiKEsRuEMCAkwBGIqAeQ0PIOoAABAAAQAABAAAIAACAAAAAAAAAAAA==

> <PUBCHEM_IUPAC_OPENEYE_NAME>
6,16-dimethoxy-11-methyl-11-azatricyclo[12.4.0.03,8]octadeca-1(14),3(8),4,6,15,17-hexaene

> <PUBCHEM_IUPAC_CAS_NAME>
6,16-dimethoxy-11-methyl-11-azatricyclo[12.4.0.03,8]octadeca-1(14),3(8),4,6,15,17-hexaene

> <PUBCHEM_IUPAC_NAME_MARKUP>
6,16-dimethoxy-11-methyl-11-azatricyclo[12.4.0.0<SUP>3,8</SUP>]octadeca-1(14),3(8),4,6,15,17-hexaene

> <PUBCHEM_IUPAC_NAME>
6,16-dimethoxy-11-methyl-11-azatricyclo[12.4.0.03,8]octadeca-1(14),3(8),4,6,15,17-hexaene

> <PUBCHEM_IUPAC_SYSTEMATIC_NAME>
6,16-dimethoxy-11-methyl-11-azatricyclo[12.4.0.03,8]octadeca-1(14),3(8),4,6,15,17-hexaene

> <PUBCHEM_IUPAC_TRADITIONAL_NAME>
6,16-dimethoxy-11-methyl-11-azatricyclo[12.4.0.03,8]octadeca-1(14),3(8),4,6,15,17-hexaene

> <PUBCHEM_IUPAC_INCHI>
InChI=1S/C20H25NO2/c1-21-10-8-17-13-19(22-2)6-4-15(17)12-16-5-7-20(23-3)14-18(16)9-11-21/h4-7,13-14H,8-12H2,1-3H3

> <PUBCHEM_IUPAC_INCHIKEY>
WZWHLVAXFSORKE-UHFFFAOYSA-N

> <PUBCHEM_XLOGP3_AA>
4.1

> <PUBCHEM_EXACT_MASS>
311.188529040

> <PUBCHEM_MOLECULAR_FORMULA>
C20H25NO2

> <PUBCHEM_MOLECULAR_WEIGHT>
311.4

> <PUBCHEM_OPENEYE_CAN_SMILES>
CN1CCC2=C(CC3=C(CC1)C=C(C=C3)OC)C=CC(=C2)OC

> <PUBCHEM_OPENEYE_ISO_SMILES>
CN1CCC2=C(CC3=C(CC1)C=C(C=C3)OC)C=CC(=C2)OC

> <PUBCHEM_CACTVS_TPSA>
21.7

> <PUBCHEM_MONOISOTOPIC_WEIGHT>
311.188529040

> <PUBCHEM_TOTAL_CHARGE>
0

> <PUBCHEM_HEAVY_ATOM_COUNT>
23

> <PUBCHEM_ATOM_DEF_STEREO_COUNT>
0

> <PUBCHEM_ATOM_UDEF_STEREO_COUNT>
0

> <PUBCHEM_BOND_DEF_STEREO_COUNT>
0

> <PUBCHEM_BOND_UDEF_STEREO_COUNT>
0

> <PUBCHEM_ISOTOPIC_ATOM_COUNT>
0

> <PUBCHEM_COMPONENT_COUNT>
1

> <PUBCHEM_CACTVS_TAUTO_COUNT>
-1

> <PUBCHEM_COORDINATE_TYPE>
1
5
255

> <PUBCHEM_BONDANNOTATIONS>
10  12  8
10  15  8
11  16  8
12  17  8
14  18  8
15  19  8
16  20  8
17  21  8
18  20  8
19  21  8
9  11  8
9  14  8

$$$$
