127031422
  -OEChem-09292322372D

 51 54  0     1  0  0  0  0  0999 V2000
    2.8963    2.8452    0.0000 O   0  0  0  0  0  0  0  0  0  0  0  0
    4.6622    3.8830    0.0000 O   0  0  0  0  0  0  0  0  0  0  0  0
    3.8372   -4.8830    0.0000 O   0  0  0  0  0  0  0  0  0  0  0  0
    5.6405   -3.8232    0.0000 O   0  0  0  0  0  0  0  0  0  0  0  0
    2.9180   -0.1863    0.0000 N   0  0  3  0  0  0  0  0  0  0  0  0
    3.7841   -0.6863    0.0000 C   0  0  3  0  0  0  0  0  0  0  0  0
    4.6501   -0.1863    0.0000 C   0  0  0  0  0  0  0  0  0  0  0  0
    2.0080   -0.6931    0.0000 C   0  0  0  0  0  0  0  0  0  0  0  0
    3.8001   -1.7278    0.0000 C   0  0  0  0  0  0  0  0  0  0  0  0
    2.9180    0.8137    0.0000 C   0  0  0  0  0  0  0  0  0  0  0  0
    2.0000   -1.7347    0.0000 C   0  0  0  0  0  0  0  0  0  0  0  0
    4.6501    0.8137    0.0000 C   0  0  0  0  0  0  0  0  0  0  0  0
    2.9021   -2.2555    0.0000 C   0  0  0  0  0  0  0  0  0  0  0  0
    3.7841    1.3137    0.0000 C   0  0  0  0  0  0  0  0  0  0  0  0
    4.7520   -2.2484    0.0000 C   0  0  0  0  0  0  0  0  0  0  0  0
    3.7680    2.3552    0.0000 C   0  0  0  0  0  0  0  0  0  0  0  0
    2.8937   -3.3405    0.0000 C   0  0  0  0  0  0  0  0  0  0  0  0
    5.5601    1.3206    0.0000 C   0  0  0  0  0  0  0  0  0  0  0  0
    4.7688   -3.3333    0.0000 C   0  0  0  0  0  0  0  0  0  0  0  0
    3.8334   -3.8830    0.0000 C   0  0  0  0  0  0  0  0  0  0  0  0
    4.6660    2.8830    0.0000 C   0  0  0  0  0  0  0  0  0  0  0  0
    5.5681    2.3622    0.0000 C   0  0  0  0  0  0  0  0  0  0  0  0
    2.8847    3.8451    0.0000 C   0  0  0  0  0  0  0  0  0  0  0  0
    5.5263    4.3863    0.0000 C   0  0  0  0  0  0  0  0  0  0  0  0
    2.9731   -5.3863    0.0000 C   0  0  0  0  0  0  0  0  0  0  0  0
    5.5224    5.3863    0.0000 C   0  0  0  0  0  0  0  0  0  0  0  0
    4.3234   -0.9921    0.0000 H   0  0  0  0  0  0  0  0  0  0  0  0
    4.8621   -0.7689    0.0000 H   0  0  0  0  0  0  0  0  0  0  0  0
    5.2607   -0.0786    0.0000 H   0  0  0  0  0  0  0  0  0  0  0  0
    1.8035   -0.1078    0.0000 H   0  0  0  0  0  0  0  0  0  0  0  0
    1.3964   -0.7945    0.0000 H   0  0  0  0  0  0  0  0  0  0  0  0
    2.7060    1.3963    0.0000 H   0  0  0  0  0  0  0  0  0  0  0  0
    2.3074    0.7061    0.0000 H   0  0  0  0  0  0  0  0  0  0  0  0
    1.3900   -1.6239    0.0000 H   0  0  0  0  0  0  0  0  0  0  0  0
    1.7864   -2.3168    0.0000 H   0  0  0  0  0  0  0  0  0  0  0  0
    5.2829   -1.9281    0.0000 H   0  0  0  0  0  0  0  0  0  0  0  0
    2.3556   -3.6484    0.0000 H   0  0  0  0  0  0  0  0  0  0  0  0
    6.0934    1.0044    0.0000 H   0  0  0  0  0  0  0  0  0  0  0  0
    6.1062    2.6701    0.0000 H   0  0  0  0  0  0  0  0  0  0  0  0
    5.6477   -4.4432    0.0000 H   0  0  0  0  0  0  0  0  0  0  0  0
    3.5046    3.8523    0.0000 H   0  0  0  0  0  0  0  0  0  0  0  0
    2.8775    4.4651    0.0000 H   0  0  0  0  0  0  0  0  0  0  0  0
    2.2647    3.8380    0.0000 H   0  0  0  0  0  0  0  0  0  0  0  0
    5.7406    3.8045    0.0000 H   0  0  0  0  0  0  0  0  0  0  0  0
    6.1364    4.4963    0.0000 H   0  0  0  0  0  0  0  0  0  0  0  0
    2.6610   -4.8506    0.0000 H   0  0  0  0  0  0  0  0  0  0  0  0
    2.4374   -5.6984    0.0000 H   0  0  0  0  0  0  0  0  0  0  0  0
    3.2852   -5.9220    0.0000 H   0  0  0  0  0  0  0  0  0  0  0  0
    6.1424    5.3887    0.0000 H   0  0  0  0  0  0  0  0  0  0  0  0
    5.5200    6.0063    0.0000 H   0  0  0  0  0  0  0  0  0  0  0  0
    4.9024    5.3839    0.0000 H   0  0  0  0  0  0  0  0  0  0  0  0
  1 16  1  0  0  0  0
  1 23  1  0  0  0  0
  2 21  1  0  0  0  0
  2 24  1  0  0  0  0
  3 20  1  0  0  0  0
  3 25  1  0  0  0  0
  4 19  1  0  0  0  0
  4 40  1  0  0  0  0
  5  6  1  0  0  0  0
  5  8  1  0  0  0  0
  5 10  1  0  0  0  0
  6  7  1  0  0  0  0
  6  9  1  0  0  0  0
  6 27  1  0  0  0  0
  7 12  1  0  0  0  0
  7 28  1  0  0  0  0
  7 29  1  0  0  0  0
  8 11  1  0  0  0  0
  8 30  1  0  0  0  0
  8 31  1  0  0  0  0
  9 13  1  0  0  0  0
  9 15  2  0  0  0  0
 10 14  1  0  0  0  0
 10 32  1  0  0  0  0
 10 33  1  0  0  0  0
 11 13  1  0  0  0  0
 11 34  1  0  0  0  0
 11 35  1  0  0  0  0
 12 14  2  0  0  0  0
 12 18  1  0  0  0  0
 13 17  2  0  0  0  0
 14 16  1  0  0  0  0
 15 19  1  0  0  0  0
 15 36  1  0  0  0  0
 16 21  2  0  0  0  0
 17 20  1  0  0  0  0
 17 37  1  0  0  0  0
 18 22  2  0  0  0  0
 18 38  1  0  0  0  0
 19 20  2  0  0  0  0
 21 22  1  0  0  0  0
 22 39  1  0  0  0  0
 23 41  1  0  0  0  0
 23 42  1  0  0  0  0
 23 43  1  0  0  0  0
 24 26  1  0  0  0  0
 24 44  1  0  0  0  0
 24 45  1  0  0  0  0
 25 46  1  0  0  0  0
 25 47  1  0  0  0  0
 25 48  1  0  0  0  0
 26 49  1  0  0  0  0
 26 50  1  0  0  0  0
 26 51  1  0  0  0  0
M  END
> <PUBCHEM_COMPOUND_CID>
127031422

> <PUBCHEM_COMPOUND_CANONICALIZED>
1

> <PUBCHEM_CACTVS_COMPLEXITY>
475

> <PUBCHEM_CACTVS_HBOND_ACCEPTOR>
5

> <PUBCHEM_CACTVS_HBOND_DONOR>
1

> <PUBCHEM_CACTVS_ROTATABLE_BOND>
4

> <PUBCHEM_CACTVS_SUBSKEYS>
AAADceB6OAAAAAAAAAAAAAAAAAAAAAAAAAA8eIEAAAAAAACxQAAAHgAACAAADCzhmAYyBoMABgCAAiBCAACCCAAgIAAIiAAOjIgNJiKGsRuGeCvmwBGLuAew0PMOoAABAAAYQABAAAIAADCAAAAAAAAAAA==

> <PUBCHEM_IUPAC_OPENEYE_NAME>
10-ethoxy-3,9-dimethoxy-6,8,13,13a-tetrahydro-5H-isoquinolino[2,1-b]isoquinolin-2-ol

> <PUBCHEM_IUPAC_CAS_NAME>
10-ethoxy-3,9-dimethoxy-6,8,13,13a-tetrahydro-5H-isoquinolino[2,1-b]isoquinolin-2-ol

> <PUBCHEM_IUPAC_NAME_MARKUP>
10-ethoxy-3,9-dimethoxy-6,8,13,13<I>a</I>-tetrahydro-5<I>H</I>-isoquinolino[2,1-b]isoquinolin-2-ol

> <PUBCHEM_IUPAC_NAME>
10-ethoxy-3,9-dimethoxy-6,8,13,13a-tetrahydro-5H-isoquinolino[2,1-b]isoquinolin-2-ol

> <PUBCHEM_IUPAC_SYSTEMATIC_NAME>
10-ethoxy-3,9-dimethoxy-6,8,13,13a-tetrahydro-5H-isoquinolino[2,1-b]isoquinolin-2-ol

> <PUBCHEM_IUPAC_TRADITIONAL_NAME>
10-ethoxy-3,9-dimethoxy-6,8,13,13a-tetrahydro-5H-isoquinolin[2,1-b]isoquinolin-2-ol

> <PUBCHEM_IUPAC_INCHI>
InChI=1S/C21H25NO4/c1-4-26-19-6-5-13-9-17-15-11-18(23)20(24-2)10-14(15)7-8-22(17)12-16(13)21(19)25-3/h5-6,10-11,17,23H,4,7-9,12H2,1-3H3

> <PUBCHEM_IUPAC_INCHIKEY>
KFIJYBXSQREASD-UHFFFAOYSA-N

> <PUBCHEM_XLOGP3_AA>
3.3

> <PUBCHEM_EXACT_MASS>
355.17835828

> <PUBCHEM_MOLECULAR_FORMULA>
C21H25NO4

> <PUBCHEM_MOLECULAR_WEIGHT>
355.4

> <PUBCHEM_OPENEYE_CAN_SMILES>
CCOC1=C(C2=C(CC3C4=CC(=C(C=C4CCN3C2)OC)O)C=C1)OC

> <PUBCHEM_OPENEYE_ISO_SMILES>
CCOC1=C(C2=C(CC3C4=CC(=C(C=C4CCN3C2)OC)O)C=C1)OC

> <PUBCHEM_CACTVS_TPSA>
51.2

> <PUBCHEM_MONOISOTOPIC_WEIGHT>
355.17835828

> <PUBCHEM_TOTAL_CHARGE>
0

> <PUBCHEM_HEAVY_ATOM_COUNT>
26

> <PUBCHEM_ATOM_DEF_STEREO_COUNT>
0

> <PUBCHEM_ATOM_UDEF_STEREO_COUNT>
1

> <PUBCHEM_BOND_DEF_STEREO_COUNT>
0

> <PUBCHEM_BOND_UDEF_STEREO_COUNT>
0

> <PUBCHEM_ISOTOPIC_ATOM_COUNT>
0

> <PUBCHEM_COMPONENT_COUNT>
1

> <PUBCHEM_CACTVS_TAUTO_COUNT>
-1

> <PUBCHEM_COORDINATE_TYPE>
1
5
255

> <PUBCHEM_BONDANNOTATIONS>
12  14  8
12  18  8
13  17  8
14  16  8
15  19  8
16  21  8
17  20  8
18  22  8
19  20  8
21  22  8
6  7  3
9  13  8
9  15  8

$$$$
