145967572
  -OEChem-09292322382D

 49 50  0     1  0  0  0  0  0999 V2000
    2.0000   -5.4046    0.0000 O   0  0  0  0  0  0  0  0  0  0  0  0
    3.2320   -0.8657    0.0000 N   0  0  3  0  0  0  0  0  0  0  0  0
    3.7320   -2.4046    0.0000 C   0  0  3  0  0  0  0  0  0  0  0  0
    2.9230   -1.8168    0.0000 C   0  0  0  0  0  0  0  0  0  0  0  0
    4.5411   -1.8168    0.0000 C   0  0  0  0  0  0  0  0  0  0  0  0
    4.2320   -0.8657    0.0000 C   0  0  0  0  0  0  0  0  0  0  0  0
    2.6443   -0.0567    0.0000 C   0  0  0  0  0  0  0  0  0  0  0  0
    3.7320   -3.4046    0.0000 C   0  0  0  0  0  0  0  0  0  0  0  0
    3.0510    0.8569    0.0000 C   0  0  0  0  0  0  0  0  0  0  0  0
    2.4632    1.6659    0.0000 C   0  0  0  0  0  0  0  0  0  0  0  0
    2.8699    2.5794    0.0000 C   0  0  0  0  0  0  0  0  0  0  0  0
    2.8660   -3.9046    0.0000 C   0  0  0  0  0  0  0  0  0  0  0  0
    4.5981   -3.9046    0.0000 C   0  0  0  0  0  0  0  0  0  0  0  0
    2.2822    3.3884    0.0000 C   0  0  0  0  0  0  0  0  0  0  0  0
    2.6889    4.3020    0.0000 C   0  0  0  0  0  0  0  0  0  0  0  0
    2.8660   -4.9046    0.0000 C   0  0  0  0  0  0  0  0  0  0  0  0
    4.5981   -4.9046    0.0000 C   0  0  0  0  0  0  0  0  0  0  0  0
    2.1011    5.1110    0.0000 C   0  0  0  0  0  0  0  0  0  0  0  0
    3.7320   -5.4046    0.0000 C   0  0  0  0  0  0  0  0  0  0  0  0
    2.5079    6.0245    0.0000 C   0  0  0  0  0  0  0  0  0  0  0  0
    4.2845   -2.6860    0.0000 H   0  0  0  0  0  0  0  0  0  0  0  0
    2.3566   -1.5646    0.0000 H   0  0  0  0  0  0  0  0  0  0  0  0
    2.6130   -2.3537    0.0000 H   0  0  0  0  0  0  0  0  0  0  0  0
    4.8511   -2.3537    0.0000 H   0  0  0  0  0  0  0  0  0  0  0  0
    5.1075   -1.5646    0.0000 H   0  0  0  0  0  0  0  0  0  0  0  0
    4.8385   -0.7368    0.0000 H   0  0  0  0  0  0  0  0  0  0  0  0
    4.1672   -0.2491    0.0000 H   0  0  0  0  0  0  0  0  0  0  0  0
    2.1303    0.2900    0.0000 H   0  0  0  0  0  0  0  0  0  0  0  0
    2.2136   -0.5027    0.0000 H   0  0  0  0  0  0  0  0  0  0  0  0
    3.5650    0.5102    0.0000 H   0  0  0  0  0  0  0  0  0  0  0  0
    3.4817    1.3028    0.0000 H   0  0  0  0  0  0  0  0  0  0  0  0
    1.9492    2.0126    0.0000 H   0  0  0  0  0  0  0  0  0  0  0  0
    2.0325    1.2199    0.0000 H   0  0  0  0  0  0  0  0  0  0  0  0
    3.3840    2.2327    0.0000 H   0  0  0  0  0  0  0  0  0  0  0  0
    3.3006    3.0254    0.0000 H   0  0  0  0  0  0  0  0  0  0  0  0
    2.3291   -3.5946    0.0000 H   0  0  0  0  0  0  0  0  0  0  0  0
    5.1350   -3.5946    0.0000 H   0  0  0  0  0  0  0  0  0  0  0  0
    1.7682    3.7351    0.0000 H   0  0  0  0  0  0  0  0  0  0  0  0
    1.8515    2.9424    0.0000 H   0  0  0  0  0  0  0  0  0  0  0  0
    3.2029    3.9553    0.0000 H   0  0  0  0  0  0  0  0  0  0  0  0
    3.1196    4.7480    0.0000 H   0  0  0  0  0  0  0  0  0  0  0  0
    5.1350   -5.2146    0.0000 H   0  0  0  0  0  0  0  0  0  0  0  0
    1.5871    5.4577    0.0000 H   0  0  0  0  0  0  0  0  0  0  0  0
    1.6704    4.6650    0.0000 H   0  0  0  0  0  0  0  0  0  0  0  0
    3.7320   -6.0245    0.0000 H   0  0  0  0  0  0  0  0  0  0  0  0
    3.0742    5.7724    0.0000 H   0  0  0  0  0  0  0  0  0  0  0  0
    2.7600    6.5909    0.0000 H   0  0  0  0  0  0  0  0  0  0  0  0
    1.9415    6.2767    0.0000 H   0  0  0  0  0  0  0  0  0  0  0  0
    2.0000   -6.0245    0.0000 H   0  0  0  0  0  0  0  0  0  0  0  0
  1 16  1  0  0  0  0
  1 49  1  0  0  0  0
  2  4  1  0  0  0  0
  2  6  1  0  0  0  0
  2  7  1  0  0  0  0
  3  4  1  0  0  0  0
  3  5  1  0  0  0  0
  3  8  1  0  0  0  0
  3 21  1  0  0  0  0
  4 22  1  0  0  0  0
  4 23  1  0  0  0  0
  5  6  1  0  0  0  0
  5 24  1  0  0  0  0
  5 25  1  0  0  0  0
  6 26  1  0  0  0  0
  6 27  1  0  0  0  0
  7  9  1  0  0  0  0
  7 28  1  0  0  0  0
  7 29  1  0  0  0  0
  8 12  2  0  0  0  0
  8 13  1  0  0  0  0
  9 10  1  0  0  0  0
  9 30  1  0  0  0  0
  9 31  1  0  0  0  0
 10 11  1  0  0  0  0
 10 32  1  0  0  0  0
 10 33  1  0  0  0  0
 11 14  1  0  0  0  0
 11 34  1  0  0  0  0
 11 35  1  0  0  0  0
 12 16  1  0  0  0  0
 12 36  1  0  0  0  0
 13 17  2  0  0  0  0
 13 37  1  0  0  0  0
 14 15  1  0  0  0  0
 14 38  1  0  0  0  0
 14 39  1  0  0  0  0
 15 18  1  0  0  0  0
 15 40  1  0  0  0  0
 15 41  1  0  0  0  0
 16 19  2  0  0  0  0
 17 19  1  0  0  0  0
 17 42  1  0  0  0  0
 18 20  1  0  0  0  0
 18 43  1  0  0  0  0
 18 44  1  0  0  0  0
 19 45  1  0  0  0  0
 20 46  1  0  0  0  0
 20 47  1  0  0  0  0
 20 48  1  0  0  0  0
M  END
> <PUBCHEM_COMPOUND_CID>
145967572

> <PUBCHEM_COMPOUND_CANONICALIZED>
1

> <PUBCHEM_CACTVS_COMPLEXITY>
256

> <PUBCHEM_CACTVS_HBOND_ACCEPTOR>
2

> <PUBCHEM_CACTVS_HBOND_DONOR>
1

> <PUBCHEM_CACTVS_ROTATABLE_BOND>
8

> <PUBCHEM_CACTVS_SUBSKEYS>
AAADceB6IAAAAAAAAAAAAAAAAAAAAWAAAAAwAAAAAAAAAAABAAAAHgAACAAADQTBmAQyBoMAAgCAAiBCAAACAAAgIAAIiAAOCIgIJiKCkROEcAAkwBGImAeQ0PIOgAABAAAAAAAAAAIAAAAAAAAAAAAAAA==

> <PUBCHEM_IUPAC_OPENEYE_NAME>
3-(1-octylpyrrolidin-3-yl)phenol

> <PUBCHEM_IUPAC_CAS_NAME>
3-(1-octyl-3-pyrrolidinyl)phenol

> <PUBCHEM_IUPAC_NAME_MARKUP>
3-(1-octylpyrrolidin-3-yl)phenol

> <PUBCHEM_IUPAC_NAME>
3-(1-octylpyrrolidin-3-yl)phenol

> <PUBCHEM_IUPAC_SYSTEMATIC_NAME>
3-(1-octylpyrrolidin-3-yl)phenol

> <PUBCHEM_IUPAC_TRADITIONAL_NAME>
3-(1-octylpyrrolidin-3-yl)phenol

> <PUBCHEM_IUPAC_INCHI>
InChI=1S/C18H29NO/c1-2-3-4-5-6-7-12-19-13-11-17(15-19)16-9-8-10-18(20)14-16/h8-10,14,17,20H,2-7,11-13,15H2,1H3

> <PUBCHEM_IUPAC_INCHIKEY>
INHLBBQJFLVLRB-UHFFFAOYSA-N

> <PUBCHEM_XLOGP3_AA>
5.2

> <PUBCHEM_EXACT_MASS>
275.224914549

> <PUBCHEM_MOLECULAR_FORMULA>
C18H29NO

> <PUBCHEM_MOLECULAR_WEIGHT>
275.4

> <PUBCHEM_OPENEYE_CAN_SMILES>
CCCCCCCCN1CCC(C1)C2=CC(=CC=C2)O

> <PUBCHEM_OPENEYE_ISO_SMILES>
CCCCCCCCN1CCC(C1)C2=CC(=CC=C2)O

> <PUBCHEM_CACTVS_TPSA>
23.5

> <PUBCHEM_MONOISOTOPIC_WEIGHT>
275.224914549

> <PUBCHEM_TOTAL_CHARGE>
0

> <PUBCHEM_HEAVY_ATOM_COUNT>
20

> <PUBCHEM_ATOM_DEF_STEREO_COUNT>
0

> <PUBCHEM_ATOM_UDEF_STEREO_COUNT>
1

> <PUBCHEM_BOND_DEF_STEREO_COUNT>
0

> <PUBCHEM_BOND_UDEF_STEREO_COUNT>
0

> <PUBCHEM_ISOTOPIC_ATOM_COUNT>
0

> <PUBCHEM_COMPONENT_COUNT>
1

> <PUBCHEM_CACTVS_TAUTO_COUNT>
-1

> <PUBCHEM_COORDINATE_TYPE>
1
5
255

> <PUBCHEM_BONDANNOTATIONS>
12  16  8
13  17  8
16  19  8
17  19  8
3  8  3
8  12  8
8  13  8

$$$$
