9819119
  -OEChem-09292322082D

 45 48  0     1  0  0  0  0  0999 V2000
    9.0843   -1.2512    0.0000 Cl  0  0  0  0  0  0  0  0  0  0  0  0
    5.8751    1.6985    0.0000 O   0  0  0  0  0  0  0  0  0  0  0  0
    7.4574    2.4030    0.0000 O   0  0  0  0  0  0  0  0  0  0  0  0
    2.3080   -3.2112    0.0000 N   0  0  0  0  0  0  0  0  0  0  0  0
    5.6940   -0.0241    0.0000 N   0  0  0  0  0  0  0  0  0  0  0  0
   10.2599    0.3668    0.0000 N   0  0  0  0  0  0  0  0  0  0  0  0
    4.1117   -0.7285    0.0000 C   0  0  0  0  0  0  0  0  0  0  0  0
    3.6117   -2.2674    0.0000 C   0  0  3  0  0  0  0  0  0  0  0  0
    2.8027   -1.6796    0.0000 C   0  0  3  0  0  0  0  0  0  0  0  0
    4.4207   -1.6796    0.0000 C   0  0  0  0  0  0  0  0  0  0  0  0
    3.1117   -0.7285    0.0000 C   0  0  0  0  0  0  0  0  0  0  0  0
    2.4932   -1.4492    0.0000 C   0  0  0  0  0  0  0  0  0  0  0  0
    3.3021   -3.2120    0.0000 C   0  0  0  0  0  0  0  0  0  0  0  0
    2.0000   -2.2660    0.0000 C   0  0  0  0  0  0  0  0  0  0  0  0
    4.6995    0.0805    0.0000 C   0  0  0  0  0  0  0  0  0  0  0  0
    6.2818    0.7850    0.0000 C   0  0  0  0  0  0  0  0  0  0  0  0
    7.2763    0.6804    0.0000 C   0  0  0  0  0  0  0  0  0  0  0  0
    7.8641    1.4894    0.0000 C   0  0  0  0  0  0  0  0  0  0  0  0
    7.6831   -0.2331    0.0000 C   0  0  0  0  0  0  0  0  0  0  0  0
    8.8587    1.3849    0.0000 C   0  0  0  0  0  0  0  0  0  0  0  0
    8.6776   -0.3376    0.0000 C   0  0  0  0  0  0  0  0  0  0  0  0
    9.2654    0.4714    0.0000 C   0  0  0  0  0  0  0  0  0  0  0  0
    8.0452    3.2120    0.0000 C   0  0  0  0  0  0  0  0  0  0  0  0
    4.1128   -2.6325    0.0000 H   0  0  0  0  0  0  0  0  0  0  0  0
    2.3006   -1.3158    0.0000 H   0  0  0  0  0  0  0  0  0  0  0  0
    4.7307   -2.2165    0.0000 H   0  0  0  0  0  0  0  0  0  0  0  0
    4.9871   -1.4274    0.0000 H   0  0  0  0  0  0  0  0  0  0  0  0
    3.1765   -0.1119    0.0000 H   0  0  0  0  0  0  0  0  0  0  0  0
    2.5053   -0.5996    0.0000 H   0  0  0  0  0  0  0  0  0  0  0  0
    2.3432   -0.8476    0.0000 H   0  0  0  0  0  0  0  0  0  0  0  0
    1.8747   -1.4924    0.0000 H   0  0  0  0  0  0  0  0  0  0  0  0
    3.2364   -3.8285    0.0000 H   0  0  0  0  0  0  0  0  0  0  0  0
    3.9083   -3.3421    0.0000 H   0  0  0  0  0  0  0  0  0  0  0  0
    1.6889   -1.7297    0.0000 H   0  0  0  0  0  0  0  0  0  0  0  0
    1.4340   -2.5190    0.0000 H   0  0  0  0  0  0  0  0  0  0  0  0
    4.8704    0.6765    0.0000 H   0  0  0  0  0  0  0  0  0  0  0  0
    4.1423    0.3523    0.0000 H   0  0  0  0  0  0  0  0  0  0  0  0
    5.9462   -0.5905    0.0000 H   0  0  0  0  0  0  0  0  0  0  0  0
    7.3186   -0.7347    0.0000 H   0  0  0  0  0  0  0  0  0  0  0  0
    9.2231    1.8865    0.0000 H   0  0  0  0  0  0  0  0  0  0  0  0
    8.5468    2.8476    0.0000 H   0  0  0  0  0  0  0  0  0  0  0  0
    8.4096    3.7136    0.0000 H   0  0  0  0  0  0  0  0  0  0  0  0
    7.5436    3.5764    0.0000 H   0  0  0  0  0  0  0  0  0  0  0  0
   10.6243    0.8684    0.0000 H   0  0  0  0  0  0  0  0  0  0  0  0
   10.5121   -0.1996    0.0000 H   0  0  0  0  0  0  0  0  0  0  0  0
  1 21  1  0  0  0  0
  2 16  2  0  0  0  0
  3 18  1  0  0  0  0
  3 23  1  0  0  0  0
  4 12  1  0  0  0  0
  4 13  1  0  0  0  0
  4 14  1  0  0  0  0
  5 15  1  0  0  0  0
  5 16  1  0  0  0  0
  5 38  1  0  0  0  0
  6 22  1  0  0  0  0
  6 44  1  0  0  0  0
  6 45  1  0  0  0  0
  7 10  1  0  0  0  0
  7 11  1  0  0  0  0
  7 12  1  0  0  0  0
  7 15  1  0  0  0  0
  8  9  1  0  0  0  0
  8 10  1  0  0  0  0
  8 13  1  0  0  0  0
  8 24  1  0  0  0  0
  9 11  1  0  0  0  0
  9 14  1  0  0  0  0
  9 25  1  0  0  0  0
 10 26  1  0  0  0  0
 10 27  1  0  0  0  0
 11 28  1  0  0  0  0
 11 29  1  0  0  0  0
 12 30  1  0  0  0  0
 12 31  1  0  0  0  0
 13 32  1  0  0  0  0
 13 33  1  0  0  0  0
 14 34  1  0  0  0  0
 14 35  1  0  0  0  0
 15 36  1  0  0  0  0
 15 37  1  0  0  0  0
 16 17  1  0  0  0  0
 17 18  1  0  0  0  0
 17 19  2  0  0  0  0
 18 20  2  0  0  0  0
 19 21  1  0  0  0  0
 19 39  1  0  0  0  0
 20 22  1  0  0  0  0
 20 40  1  0  0  0  0
 21 22  2  0  0  0  0
 23 41  1  0  0  0  0
 23 42  1  0  0  0  0
 23 43  1  0  0  0  0
M  END
> <PUBCHEM_COMPOUND_CID>
9819119

> <PUBCHEM_COMPOUND_CANONICALIZED>
1

> <PUBCHEM_CACTVS_COMPLEXITY>
475

> <PUBCHEM_CACTVS_HBOND_ACCEPTOR>
4

> <PUBCHEM_CACTVS_HBOND_DONOR>
2

> <PUBCHEM_CACTVS_ROTATABLE_BOND>
4

> <PUBCHEM_CACTVS_SUBSKEYS>
AAADceB7MAAEAAAAAAAAAAAAAAAAAeIAAAA8WIAAAAAAAAABAAAAHgIQAAAADw7BmCYyxoPABACIAiVSUACCCAAkJwAAiIEObsgMJjaF9puEMWhm9hmI6YeY2SGfiCAAIgAIABAQQABEABAAIQAACAAAAA==

> <PUBCHEM_IUPAC_OPENEYE_NAME>
4-amino-N-(1-azatricyclo[3.3.1.03,7]nonan-5-ylmethyl)-5-chloro-2-methoxy-benzamide

> <PUBCHEM_IUPAC_CAS_NAME>
4-amino-N-(1-azatricyclo[3.3.1.03,7]nonan-5-ylmethyl)-5-chloro-2-methoxybenzamide

> <PUBCHEM_IUPAC_NAME_MARKUP>
4-amino-<I>N</I>-(1-azatricyclo[3.3.1.0<SUP>3,7</SUP>]nonan-5-ylmethyl)-5-chloro-2-methoxybenzamide

> <PUBCHEM_IUPAC_NAME>
4-amino-N-(1-azatricyclo[3.3.1.03,7]nonan-5-ylmethyl)-5-chloro-2-methoxybenzamide

> <PUBCHEM_IUPAC_SYSTEMATIC_NAME>
4-azanyl-N-(1-azatricyclo[3.3.1.03,7]nonan-5-ylmethyl)-5-chloranyl-2-methoxy-benzamide

> <PUBCHEM_IUPAC_TRADITIONAL_NAME>
4-amino-N-(1-azatricyclo[3.3.1.03,7]nonan-5-ylmethyl)-5-chloro-2-methoxy-benzamide

> <PUBCHEM_IUPAC_INCHI>
InChI=1S/C17H22ClN3O2/c1-23-15-3-14(19)13(18)2-12(15)16(22)20-8-17-4-10-6-21(9-17)7-11(10)5-17/h2-3,10-11H,4-9,19H2,1H3,(H,20,22)

> <PUBCHEM_IUPAC_INCHIKEY>
UVHMYOBKZSQXOO-UHFFFAOYSA-N

> <PUBCHEM_XLOGP3_AA>
1.8

> <PUBCHEM_EXACT_MASS>
335.1400546

> <PUBCHEM_MOLECULAR_FORMULA>
C17H22ClN3O2

> <PUBCHEM_MOLECULAR_WEIGHT>
335.8

> <PUBCHEM_OPENEYE_CAN_SMILES>
COC1=CC(=C(C=C1C(=O)NCC23CC4CN(C2)CC4C3)Cl)N

> <PUBCHEM_OPENEYE_ISO_SMILES>
COC1=CC(=C(C=C1C(=O)NCC23CC4CN(C2)CC4C3)Cl)N

> <PUBCHEM_CACTVS_TPSA>
67.6

> <PUBCHEM_MONOISOTOPIC_WEIGHT>
335.1400546

> <PUBCHEM_TOTAL_CHARGE>
0

> <PUBCHEM_HEAVY_ATOM_COUNT>
23

> <PUBCHEM_ATOM_DEF_STEREO_COUNT>
0

> <PUBCHEM_ATOM_UDEF_STEREO_COUNT>
2

> <PUBCHEM_BOND_DEF_STEREO_COUNT>
0

> <PUBCHEM_BOND_UDEF_STEREO_COUNT>
0

> <PUBCHEM_ISOTOPIC_ATOM_COUNT>
0

> <PUBCHEM_COMPONENT_COUNT>
1

> <PUBCHEM_CACTVS_TAUTO_COUNT>
-1

> <PUBCHEM_COORDINATE_TYPE>
1
5
255

> <PUBCHEM_BONDANNOTATIONS>
17  18  8
17  19  8
18  20  8
19  21  8
20  22  8
21  22  8
8  10  3
9  11  3

$$$$
