121315615
  -OEChem-09292322372D

 59 63  0     1  0  0  0  0  0999 V2000
    3.9538    1.6841    0.0000 S   0  0  0  0  0  0  0  0  0  0  0  0
    9.6460   -6.6659    0.0000 F   0  0  0  0  0  0  0  0  0  0  0  0
    8.2800   -7.0319    0.0000 F   0  0  0  0  0  0  0  0  0  0  0  0
    9.2800   -5.2999    0.0000 F   0  0  0  0  0  0  0  0  0  0  0  0
    4.3159   -1.7610    0.0000 N   0  0  3  0  0  0  0  0  0  0  0  0
    3.6750    3.4442    0.0000 N   0  0  0  0  0  0  0  0  0  0  0  0
    2.3660    2.4931    0.0000 N   0  0  0  0  0  0  0  0  0  0  0  0
    2.0570    3.4442    0.0000 N   0  0  0  0  0  0  0  0  0  0  0  0
    2.0000    6.5319    0.0000 N   0  0  0  0  0  0  0  0  0  0  0  0
    4.8159   -3.2999    0.0000 C   0  0  2  0  0  0  0  0  0  0  0  0
    5.3159   -4.1659    0.0000 C   0  0  1  0  0  0  0  0  0  0  0  0
    4.3159   -4.1659    0.0000 C   0  0  0  0  0  0  0  0  0  0  0  0
    5.6249   -2.7121    0.0000 C   0  0  0  0  0  0  0  0  0  0  0  0
    4.0069   -2.7121    0.0000 C   0  0  0  0  0  0  0  0  0  0  0  0
    5.3159   -1.7610    0.0000 C   0  0  0  0  0  0  0  0  0  0  0  0
    6.1819   -4.6659    0.0000 C   0  0  0  0  0  0  0  0  0  0  0  0
    3.7281   -0.9520    0.0000 C   0  0  0  0  0  0  0  0  0  0  0  0
    7.0480   -4.1659    0.0000 C   0  0  0  0  0  0  0  0  0  0  0  0
    6.1819   -5.6659    0.0000 C   0  0  0  0  0  0  0  0  0  0  0  0
    4.1349   -0.0385    0.0000 C   0  0  0  0  0  0  0  0  0  0  0  0
    7.9140   -4.6659    0.0000 C   0  0  0  0  0  0  0  0  0  0  0  0
    7.0480   -6.1659    0.0000 C   0  0  0  0  0  0  0  0  0  0  0  0
    7.9140   -5.6659    0.0000 C   0  0  0  0  0  0  0  0  0  0  0  0
    3.5471    0.7705    0.0000 C   0  0  0  0  0  0  0  0  0  0  0  0
    8.7800   -6.1659    0.0000 C   0  0  0  0  0  0  0  0  0  0  0  0
    3.3660    2.4931    0.0000 C   0  0  0  0  0  0  0  0  0  0  0  0
    2.8660    4.0319    0.0000 C   0  0  0  0  0  0  0  0  0  0  0  0
    4.6261    3.7532    0.0000 C   0  0  0  0  0  0  0  0  0  0  0  0
    2.8660    5.0319    0.0000 C   0  0  0  0  0  0  0  0  0  0  0  0
    3.7320    5.5319    0.0000 C   0  0  0  0  0  0  0  0  0  0  0  0
    2.0000    5.5319    0.0000 C   0  0  0  0  0  0  0  0  0  0  0  0
    3.7320    6.5319    0.0000 C   0  0  0  0  0  0  0  0  0  0  0  0
    2.8660    7.0319    0.0000 C   0  0  0  0  0  0  0  0  0  0  0  0
    5.1554   -4.7648    0.0000 H   0  0  0  0  0  0  0  0  0  0  0  0
    3.7333   -3.9539    0.0000 H   0  0  0  0  0  0  0  0  0  0  0  0
    4.2082   -4.7765    0.0000 H   0  0  0  0  0  0  0  0  0  0  0  0
    5.9349   -3.2490    0.0000 H   0  0  0  0  0  0  0  0  0  0  0  0
    6.1913   -2.4599    0.0000 H   0  0  0  0  0  0  0  0  0  0  0  0
    3.4405   -2.4599    0.0000 H   0  0  0  0  0  0  0  0  0  0  0  0
    3.6969   -3.2490    0.0000 H   0  0  0  0  0  0  0  0  0  0  0  0
    5.9224   -1.6321    0.0000 H   0  0  0  0  0  0  0  0  0  0  0  0
    5.2511   -1.1444    0.0000 H   0  0  0  0  0  0  0  0  0  0  0  0
    3.2141   -0.6053    0.0000 H   0  0  0  0  0  0  0  0  0  0  0  0
    3.2974   -1.3980    0.0000 H   0  0  0  0  0  0  0  0  0  0  0  0
    7.0480   -3.5459    0.0000 H   0  0  0  0  0  0  0  0  0  0  0  0
    5.6450   -5.9759    0.0000 H   0  0  0  0  0  0  0  0  0  0  0  0
    4.6489   -0.3852    0.0000 H   0  0  0  0  0  0  0  0  0  0  0  0
    4.5656    0.4075    0.0000 H   0  0  0  0  0  0  0  0  0  0  0  0
    8.4509   -4.3559    0.0000 H   0  0  0  0  0  0  0  0  0  0  0  0
    7.0480   -6.7859    0.0000 H   0  0  0  0  0  0  0  0  0  0  0  0
    3.0331    1.1172    0.0000 H   0  0  0  0  0  0  0  0  0  0  0  0
    3.1164    0.3245    0.0000 H   0  0  0  0  0  0  0  0  0  0  0  0
    4.8177    3.1635    0.0000 H   0  0  0  0  0  0  0  0  0  0  0  0
    5.2158    3.9448    0.0000 H   0  0  0  0  0  0  0  0  0  0  0  0
    4.4345    4.3428    0.0000 H   0  0  0  0  0  0  0  0  0  0  0  0
    4.2690    5.2219    0.0000 H   0  0  0  0  0  0  0  0  0  0  0  0
    1.4631    5.2219    0.0000 H   0  0  0  0  0  0  0  0  0  0  0  0
    4.2690    6.8419    0.0000 H   0  0  0  0  0  0  0  0  0  0  0  0
    2.8660    7.6519    0.0000 H   0  0  0  0  0  0  0  0  0  0  0  0
  1 24  1  0  0  0  0
  1 26  1  0  0  0  0
  2 25  1  0  0  0  0
  3 25  1  0  0  0  0
  4 25  1  0  0  0  0
  5 14  1  0  0  0  0
  5 15  1  0  0  0  0
  5 17  1  0  0  0  0
  6 26  1  0  0  0  0
  6 27  1  0  0  0  0
  6 28  1  0  0  0  0
  7  8  1  0  0  0  0
  7 26  2  0  0  0  0
  8 27  2  0  0  0  0
  9 31  1  0  0  0  0
  9 33  2  0  0  0  0
 10 11  1  0  0  0  0
 10 12  1  6  0  0  0
 10 13  1  0  0  0  0
 10 14  1  0  0  0  0
 11 12  1  0  0  0  0
 11 16  1  6  0  0  0
 11 34  1  0  0  0  0
 12 35  1  0  0  0  0
 12 36  1  0  0  0  0
 13 15  1  0  0  0  0
 13 37  1  0  0  0  0
 13 38  1  0  0  0  0
 14 39  1  0  0  0  0
 14 40  1  0  0  0  0
 15 41  1  0  0  0  0
 15 42  1  0  0  0  0
 16 18  2  0  0  0  0
 16 19  1  0  0  0  0
 17 20  1  0  0  0  0
 17 43  1  0  0  0  0
 17 44  1  0  0  0  0
 18 21  1  0  0  0  0
 18 45  1  0  0  0  0
 19 22  2  0  0  0  0
 19 46  1  0  0  0  0
 20 24  1  0  0  0  0
 20 47  1  0  0  0  0
 20 48  1  0  0  0  0
 21 23  2  0  0  0  0
 21 49  1  0  0  0  0
 22 23  1  0  0  0  0
 22 50  1  0  0  0  0
 23 25  1  0  0  0  0
 24 51  1  0  0  0  0
 24 52  1  0  0  0  0
 27 29  1  0  0  0  0
 28 53  1  0  0  0  0
 28 54  1  0  0  0  0
 28 55  1  0  0  0  0
 29 30  1  0  0  0  0
 29 31  2  0  0  0  0
 30 32  2  0  0  0  0
 30 56  1  0  0  0  0
 31 57  1  0  0  0  0
 32 33  1  0  0  0  0
 32 58  1  0  0  0  0
 33 59  1  0  0  0  0
M  END
> <PUBCHEM_COMPOUND_CID>
121315615

> <PUBCHEM_COMPOUND_CANONICALIZED>
1

> <PUBCHEM_CACTVS_COMPLEXITY>
659

> <PUBCHEM_CACTVS_HBOND_ACCEPTOR>
8

> <PUBCHEM_CACTVS_HBOND_DONOR>
0

> <PUBCHEM_CACTVS_ROTATABLE_BOND>
7

> <PUBCHEM_CACTVS_SUBSKEYS>
AAADceB7gYBAAAAAAAAAAAAAGAAAAWLAAAA8QAAAAAAAAAAB8AAAHQQIAAAADwDFWxS/kJcMEAiiAjJnZACS0CtxArAd2CA4ZJiIKOLg2ZGEIAhgiALIyAcQgMAPwAAAAAAAAACAAAAAAAAAAAAAAAAAAA==

> <PUBCHEM_IUPAC_OPENEYE_NAME>
(2S,3S)-5-[3-[[4-methyl-5-(3-pyridyl)-1,2,4-triazol-3-yl]sulfanyl]propyl]-2-[4-(trifluoromethyl)phenyl]-5-azaspiro[2.4]heptane

> <PUBCHEM_IUPAC_CAS_NAME>
(2S,3S)-5-[3-[[4-methyl-5-(3-pyridinyl)-1,2,4-triazol-3-yl]thio]propyl]-2-[4-(trifluoromethyl)phenyl]-5-azaspiro[2.4]heptane

> <PUBCHEM_IUPAC_NAME_MARKUP>
(2<I>S</I>,3<I>S</I>)-5-[3-[(4-methyl-5-pyridin-3-yl-1,2,4-triazol-3-yl)sulfanyl]propyl]-2-[4-(trifluoromethyl)phenyl]-5-azaspiro[2.4]heptane

> <PUBCHEM_IUPAC_NAME>
(2S,3S)-5-[3-[(4-methyl-5-pyridin-3-yl-1,2,4-triazol-3-yl)sulfanyl]propyl]-2-[4-(trifluoromethyl)phenyl]-5-azaspiro[2.4]heptane

> <PUBCHEM_IUPAC_SYSTEMATIC_NAME>
(2S,3S)-5-[3-[(4-methyl-5-pyridin-3-yl-1,2,4-triazol-3-yl)sulfanyl]propyl]-2-[4-(trifluoromethyl)phenyl]-5-azaspiro[2.4]heptane

> <PUBCHEM_IUPAC_TRADITIONAL_NAME>
(2S,3S)-5-[3-[[4-methyl-5-(3-pyridyl)-1,2,4-triazol-3-yl]thio]propyl]-2-[4-(trifluoromethyl)phenyl]-5-azaspiro[2.4]heptane

> <PUBCHEM_IUPAC_INCHI>
InChI=1S/C24H26F3N5S/c1-31-21(18-4-2-10-28-15-18)29-30-22(31)33-13-3-11-32-12-9-23(16-32)14-20(23)17-5-7-19(8-6-17)24(25,26)27/h2,4-8,10,15,20H,3,9,11-14,16H2,1H3/t20-,23-/m0/s1

> <PUBCHEM_IUPAC_INCHIKEY>
ZDHMFNGMBGJLNF-REWPJTCUSA-N

> <PUBCHEM_XLOGP3_AA>
4.3

> <PUBCHEM_EXACT_MASS>
473.18610151

> <PUBCHEM_MOLECULAR_FORMULA>
C24H26F3N5S

> <PUBCHEM_MOLECULAR_WEIGHT>
473.6

> <PUBCHEM_OPENEYE_CAN_SMILES>
CN1C(=NN=C1SCCCN2CCC3(C2)CC3C4=CC=C(C=C4)C(F)(F)F)C5=CN=CC=C5

> <PUBCHEM_OPENEYE_ISO_SMILES>
CN1C(=NN=C1SCCCN2CC[C@@]3(C2)C[C@H]3C4=CC=C(C=C4)C(F)(F)F)C5=CN=CC=C5

> <PUBCHEM_CACTVS_TPSA>
72.1

> <PUBCHEM_MONOISOTOPIC_WEIGHT>
473.18610151

> <PUBCHEM_TOTAL_CHARGE>
0

> <PUBCHEM_HEAVY_ATOM_COUNT>
33

> <PUBCHEM_ATOM_DEF_STEREO_COUNT>
2

> <PUBCHEM_ATOM_UDEF_STEREO_COUNT>
0

> <PUBCHEM_BOND_DEF_STEREO_COUNT>
0

> <PUBCHEM_BOND_UDEF_STEREO_COUNT>
0

> <PUBCHEM_ISOTOPIC_ATOM_COUNT>
0

> <PUBCHEM_COMPONENT_COUNT>
1

> <PUBCHEM_CACTVS_TAUTO_COUNT>
-1

> <PUBCHEM_COORDINATE_TYPE>
1
5
255

> <PUBCHEM_BONDANNOTATIONS>
10  12  6
11  16  6
16  18  8
16  19  8
18  21  8
19  22  8
21  23  8
22  23  8
29  30  8
29  31  8
30  32  8
32  33  8
6  26  8
6  27  8
7  26  8
7  8  8
8  27  8
9  31  8
9  33  8

$$$$
