127034967
  -OEChem-09292322022D

 40 41  0     1  0  0  0  0  0999 V2000
    4.5574    0.0624    0.0000 O   0  0  0  0  0  0  0  0  0  0  0  0
    4.5806    2.0623    0.0000 O   0  0  0  0  0  0  0  0  0  0  0  0
    2.8602    3.0822    0.0000 N   0  0  0  0  0  0  0  0  0  0  0  0
    6.3058   -2.9722    0.0000 N   0  0  0  0  0  0  0  0  0  0  0  0
    3.7088    1.5723    0.0000 C   0  0  3  0  0  0  0  0  0  0  0  0
    2.8486    2.0823    0.0000 C   0  0  0  0  0  0  0  0  0  0  0  0
    3.6972    0.5724    0.0000 C   0  0  0  0  0  0  0  0  0  0  0  0
    5.4398   -1.4722    0.0000 C   0  0  0  0  0  0  0  0  0  0  0  0
    4.5459   -0.9375    0.0000 C   0  0  0  0  0  0  0  0  0  0  0  0
    5.4398   -2.4722    0.0000 C   0  0  0  0  0  0  0  0  0  0  0  0
    6.3058   -0.9722    0.0000 C   0  0  0  0  0  0  0  0  0  0  0  0
    3.6398   -1.4514    0.0000 C   0  0  0  0  0  0  0  0  0  0  0  0
    4.5459   -3.0069    0.0000 C   0  0  0  0  0  0  0  0  0  0  0  0
    2.0000    3.5922    0.0000 C   0  0  0  0  0  0  0  0  0  0  0  0
    3.7319    3.5722    0.0000 C   0  0  0  0  0  0  0  0  0  0  0  0
    7.1719   -1.4722    0.0000 C   0  0  0  0  0  0  0  0  0  0  0  0
    3.6398   -2.4930    0.0000 C   0  0  0  0  0  0  0  0  0  0  0  0
    8.0379   -2.9722    0.0000 C   0  0  0  0  0  0  0  0  0  0  0  0
    7.1719   -2.4722    0.0000 B   0  0  0  0  0  0  0  0  0  0  0  0
    4.2421    1.2561    0.0000 H   0  0  0  0  0  0  0  0  0  0  0  0
    2.2393    2.1970    0.0000 H   0  0  0  0  0  0  0  0  0  0  0  0
    2.6298    1.5022    0.0000 H   0  0  0  0  0  0  0  0  0  0  0  0
    3.0880    0.6871    0.0000 H   0  0  0  0  0  0  0  0  0  0  0  0
    3.4785   -0.0077    0.0000 H   0  0  0  0  0  0  0  0  0  0  0  0
    6.3058   -0.3522    0.0000 H   0  0  0  0  0  0  0  0  0  0  0  0
    6.3058   -3.5922    0.0000 H   0  0  0  0  0  0  0  0  0  0  0  0
    3.1041   -1.1393    0.0000 H   0  0  0  0  0  0  0  0  0  0  0  0
    2.3162    4.1255    0.0000 H   0  0  0  0  0  0  0  0  0  0  0  0
    1.4667    3.9084    0.0000 H   0  0  0  0  0  0  0  0  0  0  0  0
    1.6838    3.0589    0.0000 H   0  0  0  0  0  0  0  0  0  0  0  0
    4.0357    3.0317    0.0000 H   0  0  0  0  0  0  0  0  0  0  0  0
    4.2724    3.8759    0.0000 H   0  0  0  0  0  0  0  0  0  0  0  0
    3.4282    4.1127    0.0000 H   0  0  0  0  0  0  0  0  0  0  0  0
    4.5530   -3.6268    0.0000 H   0  0  0  0  0  0  0  0  0  0  0  0
    7.7088   -1.1622    0.0000 H   0  0  0  0  0  0  0  0  0  0  0  0
    3.1041   -2.8051    0.0000 H   0  0  0  0  0  0  0  0  0  0  0  0
    4.5877    2.6822    0.0000 H   0  0  0  0  0  0  0  0  0  0  0  0
    7.7279   -3.5091    0.0000 H   0  0  0  0  0  0  0  0  0  0  0  0
    8.5748   -3.2822    0.0000 H   0  0  0  0  0  0  0  0  0  0  0  0
    8.3479   -2.4353    0.0000 H   0  0  0  0  0  0  0  0  0  0  0  0
  1  7  1  0  0  0  0
  1  9  1  0  0  0  0
  2  5  1  0  0  0  0
  2 37  1  0  0  0  0
  3  6  1  0  0  0  0
  3 14  1  0  0  0  0
  3 15  1  0  0  0  0
  4 10  1  0  0  0  0
  4 19  1  0  0  0  0
  4 26  1  0  0  0  0
  5  6  1  0  0  0  0
  5  7  1  0  0  0  0
  5 20  1  0  0  0  0
  6 21  1  0  0  0  0
  6 22  1  0  0  0  0
  7 23  1  0  0  0  0
  7 24  1  0  0  0  0
  8  9  1  0  0  0  0
  8 10  2  0  0  0  0
  8 11  1  0  0  0  0
  9 12  2  0  0  0  0
 10 13  1  0  0  0  0
 11 16  2  0  0  0  0
 11 25  1  0  0  0  0
 12 17  1  0  0  0  0
 12 27  1  0  0  0  0
 13 17  2  0  0  0  0
 13 34  1  0  0  0  0
 14 28  1  0  0  0  0
 14 29  1  0  0  0  0
 14 30  1  0  0  0  0
 15 31  1  0  0  0  0
 15 32  1  0  0  0  0
 15 33  1  0  0  0  0
 16 19  1  0  0  0  0
 16 35  1  0  0  0  0
 17 36  1  0  0  0  0
 18 19  1  0  0  0  0
 18 38  1  0  0  0  0
 18 39  1  0  0  0  0
 18 40  1  0  0  0  0
M  END
> <PUBCHEM_COMPOUND_CID>
127034967

> <PUBCHEM_COMPOUND_CANONICALIZED>
1

> <PUBCHEM_CACTVS_COMPLEXITY>
312

> <PUBCHEM_CACTVS_HBOND_ACCEPTOR>
4

> <PUBCHEM_CACTVS_HBOND_DONOR>
2

> <PUBCHEM_CACTVS_ROTATABLE_BOND>
5

> <PUBCHEM_CACTVS_SUBSKEYS>
AAADceJzMAAAAAAAAAAAAAAAAAAAAAAAAAAwQAAAAAAAAACBAAAwHgAQCAAADBzhmAYyxoNABgCAAiRCQACCCAAgIgAIiAAObIgPNiKEsZuGOCDm0Bkb6AeQ0CEOAAAAAgAKAAAAAAAEABQAAAAAAAAAAA==

> <PUBCHEM_IUPAC_OPENEYE_NAME>
1-(dimethylamino)-3-[(2-methyl-1H-1,2-benzazaborinin-5-yl)oxy]propan-2-ol

> <PUBCHEM_IUPAC_CAS_NAME>
1-(dimethylamino)-3-[(2-methyl-1H-1,2-benzazaborin-5-yl)oxy]-2-propanol

> <PUBCHEM_IUPAC_NAME_MARKUP>
1-(dimethylamino)-3-[(2-methyl-1<I>H</I>-1,2-benzazaborinin-5-yl)oxy]propan-2-ol

> <PUBCHEM_IUPAC_NAME>
1-(dimethylamino)-3-[(2-methyl-1H-1,2-benzazaborinin-5-yl)oxy]propan-2-ol

> <PUBCHEM_IUPAC_SYSTEMATIC_NAME>
1-(dimethylamino)-3-[(2-methyl-1H-1,2-benzazaborinin-5-yl)oxy]propan-2-ol

> <PUBCHEM_IUPAC_TRADITIONAL_NAME>
1-(dimethylamino)-3-[(2-methyl-1H-1,2-benzazaborin-5-yl)oxy]propan-2-ol

> <PUBCHEM_IUPAC_INCHI>
InChI=1S/C14H21BN2O2/c1-15-8-7-12-13(16-15)5-4-6-14(12)19-10-11(18)9-17(2)3/h4-8,11,16,18H,9-10H2,1-3H3

> <PUBCHEM_IUPAC_INCHIKEY>
KVVLFJLSBAOKPZ-UHFFFAOYSA-N

> <PUBCHEM_EXACT_MASS>
260.1696081

> <PUBCHEM_MOLECULAR_FORMULA>
C14H21BN2O2

> <PUBCHEM_MOLECULAR_WEIGHT>
260.14

> <PUBCHEM_OPENEYE_CAN_SMILES>
B1(C=CC2=C(N1)C=CC=C2OCC(CN(C)C)O)C

> <PUBCHEM_OPENEYE_ISO_SMILES>
B1(C=CC2=C(N1)C=CC=C2OCC(CN(C)C)O)C

> <PUBCHEM_CACTVS_TPSA>
44.7

> <PUBCHEM_MONOISOTOPIC_WEIGHT>
260.1696081

> <PUBCHEM_TOTAL_CHARGE>
0

> <PUBCHEM_HEAVY_ATOM_COUNT>
19

> <PUBCHEM_ATOM_DEF_STEREO_COUNT>
0

> <PUBCHEM_ATOM_UDEF_STEREO_COUNT>
1

> <PUBCHEM_BOND_DEF_STEREO_COUNT>
0

> <PUBCHEM_BOND_UDEF_STEREO_COUNT>
0

> <PUBCHEM_ISOTOPIC_ATOM_COUNT>
0

> <PUBCHEM_COMPONENT_COUNT>
1

> <PUBCHEM_CACTVS_TAUTO_COUNT>
-1

> <PUBCHEM_COORDINATE_TYPE>
1
5
255

> <PUBCHEM_BONDANNOTATIONS>
10  13  8
12  17  8
13  17  8
5  2  3
8  10  8
8  9  8
9  12  8

$$$$
