71456045
  -OEChem-09292322332D

 53 56  0     0  0  0  0  0  0999 V2000
    9.7142    0.2977    0.0000 O   0  0  0  0  0  0  0  0  0  0  0  0
    6.4358   -2.5655    0.0000 O   0  0  0  0  0  0  0  0  0  0  0  0
    6.4162    1.3574    0.0000 N   0  0  0  0  0  0  0  0  0  0  0  0
    8.3711    1.7796    0.0000 N   0  0  0  0  0  0  0  0  0  0  0  0
    6.7221    2.3095    0.0000 C   0  0  0  0  0  0  0  0  0  0  0  0
    7.0877    0.6164    0.0000 C   0  0  0  0  0  0  0  0  0  0  0  0
    7.6996    2.5206    0.0000 C   0  0  0  0  0  0  0  0  0  0  0  0
    8.0652    0.8275    0.0000 C   0  0  0  0  0  0  0  0  0  0  0  0
    5.4387    1.1463    0.0000 C   0  0  0  0  0  0  0  0  0  0  0  0
    5.1328    0.1943    0.0000 C   0  0  0  0  0  0  0  0  0  0  0  0
    9.3486    1.9907    0.0000 C   0  0  0  0  0  0  0  0  0  0  0  0
    4.1881   -0.1152    0.0000 C   0  0  0  0  0  0  0  0  0  0  0  0
    5.7204   -0.6076    0.0000 C   0  0  0  0  0  0  0  0  0  0  0  0
    4.1931   -1.1152    0.0000 C   0  0  0  0  0  0  0  0  0  0  0  0
    5.1408   -1.4152    0.0000 C   0  0  0  0  0  0  0  0  0  0  0  0
   10.0201    1.2497    0.0000 C   0  0  0  0  0  0  0  0  0  0  0  0
    9.6545    2.9428    0.0000 C   0  0  0  0  0  0  0  0  0  0  0  0
    3.4032    0.5044    0.0000 C   0  0  0  0  0  0  0  0  0  0  0  0
    5.4562   -2.3642    0.0000 C   0  0  0  0  0  0  0  0  0  0  0  0
    3.4144   -1.7426    0.0000 C   0  0  0  0  0  0  0  0  0  0  0  0
   10.9976    1.4608    0.0000 C   0  0  0  0  0  0  0  0  0  0  0  0
   10.6320    3.1538    0.0000 C   0  0  0  0  0  0  0  0  0  0  0  0
    2.4294    0.2770    0.0000 C   0  0  0  0  0  0  0  0  0  0  0  0
   11.3035    2.4129    0.0000 C   0  0  0  0  0  0  0  0  0  0  0  0
    2.4384   -1.5249    0.0000 C   0  0  0  0  0  0  0  0  0  0  0  0
    2.0000   -0.6261    0.0000 C   0  0  0  0  0  0  0  0  0  0  0  0
   10.3858   -0.4433    0.0000 C   0  0  0  0  0  0  0  0  0  0  0  0
    6.6985    2.9290    0.0000 H   0  0  0  0  0  0  0  0  0  0  0  0
    6.1079    2.3938    0.0000 H   0  0  0  0  0  0  0  0  0  0  0  0
    6.5630    0.2862    0.0000 H   0  0  0  0  0  0  0  0  0  0  0  0
    7.3219    0.0423    0.0000 H   0  0  0  0  0  0  0  0  0  0  0  0
    8.2243    2.8508    0.0000 H   0  0  0  0  0  0  0  0  0  0  0  0
    7.4654    3.0946    0.0000 H   0  0  0  0  0  0  0  0  0  0  0  0
    8.0889    0.2080    0.0000 H   0  0  0  0  0  0  0  0  0  0  0  0
    8.6794    0.7432    0.0000 H   0  0  0  0  0  0  0  0  0  0  0  0
    5.4151    1.7659    0.0000 H   0  0  0  0  0  0  0  0  0  0  0  0
    4.8245    1.2306    0.0000 H   0  0  0  0  0  0  0  0  0  0  0  0
    6.3404   -0.6045    0.0000 H   0  0  0  0  0  0  0  0  0  0  0  0
    9.2381    3.4022    0.0000 H   0  0  0  0  0  0  0  0  0  0  0  0
    3.5381    1.1095    0.0000 H   0  0  0  0  0  0  0  0  0  0  0  0
    4.8429   -2.4546    0.0000 H   0  0  0  0  0  0  0  0  0  0  0  0
    5.4388   -2.9839    0.0000 H   0  0  0  0  0  0  0  0  0  0  0  0
    3.5554   -2.3463    0.0000 H   0  0  0  0  0  0  0  0  0  0  0  0
   11.4140    1.0014    0.0000 H   0  0  0  0  0  0  0  0  0  0  0  0
   10.8216    3.7441    0.0000 H   0  0  0  0  0  0  0  0  0  0  0  0
    2.0404    0.7598    0.0000 H   0  0  0  0  0  0  0  0  0  0  0  0
   11.9096    2.5438    0.0000 H   0  0  0  0  0  0  0  0  0  0  0  0
    2.0542   -2.0116    0.0000 H   0  0  0  0  0  0  0  0  0  0  0  0
    1.3800   -0.6292    0.0000 H   0  0  0  0  0  0  0  0  0  0  0  0
    6.6313   -3.1538    0.0000 H   0  0  0  0  0  0  0  0  0  0  0  0
    9.9264   -0.8596    0.0000 H   0  0  0  0  0  0  0  0  0  0  0  0
   10.8021   -0.9027    0.0000 H   0  0  0  0  0  0  0  0  0  0  0  0
   10.8452   -0.0269    0.0000 H   0  0  0  0  0  0  0  0  0  0  0  0
  1 16  1  0  0  0  0
  1 27  1  0  0  0  0
  2 19  1  0  0  0  0
  2 50  1  0  0  0  0
  3  5  1  0  0  0  0
  3  6  1  0  0  0  0
  3  9  1  0  0  0  0
  4  7  1  0  0  0  0
  4  8  1  0  0  0  0
  4 11  1  0  0  0  0
  5  7  1  0  0  0  0
  5 28  1  0  0  0  0
  5 29  1  0  0  0  0
  6  8  1  0  0  0  0
  6 30  1  0  0  0  0
  6 31  1  0  0  0  0
  7 32  1  0  0  0  0
  7 33  1  0  0  0  0
  8 34  1  0  0  0  0
  8 35  1  0  0  0  0
  9 10  1  0  0  0  0
  9 36  1  0  0  0  0
  9 37  1  0  0  0  0
 10 12  1  0  0  0  0
 10 13  2  0  0  0  0
 11 16  1  0  0  0  0
 11 17  2  0  0  0  0
 12 14  1  0  0  0  0
 12 18  2  0  0  0  0
 13 15  1  0  0  0  0
 13 38  1  0  0  0  0
 14 15  2  0  0  0  0
 14 20  1  0  0  0  0
 15 19  1  0  0  0  0
 16 21  2  0  0  0  0
 17 22  1  0  0  0  0
 17 39  1  0  0  0  0
 18 23  1  0  0  0  0
 18 40  1  0  0  0  0
 19 41  1  0  0  0  0
 19 42  1  0  0  0  0
 20 25  2  0  0  0  0
 20 43  1  0  0  0  0
 21 24  1  0  0  0  0
 21 44  1  0  0  0  0
 22 24  2  0  0  0  0
 22 45  1  0  0  0  0
 23 26  2  0  0  0  0
 23 46  1  0  0  0  0
 24 47  1  0  0  0  0
 25 26  1  0  0  0  0
 25 48  1  0  0  0  0
 26 49  1  0  0  0  0
 27 51  1  0  0  0  0
 27 52  1  0  0  0  0
 27 53  1  0  0  0  0
M  END
> <PUBCHEM_COMPOUND_CID>
71456045

> <PUBCHEM_COMPOUND_CANONICALIZED>
1

> <PUBCHEM_CACTVS_COMPLEXITY>
452

> <PUBCHEM_CACTVS_HBOND_ACCEPTOR>
4

> <PUBCHEM_CACTVS_HBOND_DONOR>
1

> <PUBCHEM_CACTVS_ROTATABLE_BOND>
5

> <PUBCHEM_CACTVS_SUBSKEYS>
AAADceB7MAAAAAAAAAAAAAAAAAAAAYAAAAA8QAAABgAAAADBQAAAHgAACAAADAzhmAYyxsMABgCAAiRCQACCCAAhIgAIiAAPbIgOdiLEsZuVcChkwBHY+AeQ0PIOgAAAAAAAEAAAAAAAAAAgAQAACAAAAA==

> <PUBCHEM_IUPAC_OPENEYE_NAME>
[3-[[4-(2-methoxyphenyl)piperazin-1-yl]methyl]azulen-1-yl]methanol

> <PUBCHEM_IUPAC_CAS_NAME>
[3-[[4-(2-methoxyphenyl)-1-piperazinyl]methyl]-1-azulenyl]methanol

> <PUBCHEM_IUPAC_NAME_MARKUP>
[3-[[4-(2-methoxyphenyl)piperazin-1-yl]methyl]azulen-1-yl]methanol

> <PUBCHEM_IUPAC_NAME>
[3-[[4-(2-methoxyphenyl)piperazin-1-yl]methyl]azulen-1-yl]methanol

> <PUBCHEM_IUPAC_SYSTEMATIC_NAME>
[3-[[4-(2-methoxyphenyl)piperazin-1-yl]methyl]azulen-1-yl]methanol

> <PUBCHEM_IUPAC_TRADITIONAL_NAME>
[3-[[4-(2-methoxyphenyl)piperazino]methyl]azulen-1-yl]methanol

> <PUBCHEM_IUPAC_INCHI>
InChI=1S/C23H26N2O2/c1-27-23-10-6-5-9-22(23)25-13-11-24(12-14-25)16-18-15-19(17-26)21-8-4-2-3-7-20(18)21/h2-10,15,26H,11-14,16-17H2,1H3

> <PUBCHEM_IUPAC_INCHIKEY>
NUTCIQIPIDPFOT-UHFFFAOYSA-N

> <PUBCHEM_XLOGP3_AA>
3.4

> <PUBCHEM_EXACT_MASS>
362.199428076

> <PUBCHEM_MOLECULAR_FORMULA>
C23H26N2O2

> <PUBCHEM_MOLECULAR_WEIGHT>
362.5

> <PUBCHEM_OPENEYE_CAN_SMILES>
COC1=CC=CC=C1N2CCN(CC2)CC3=CC(=C4C3=CC=CC=C4)CO

> <PUBCHEM_OPENEYE_ISO_SMILES>
COC1=CC=CC=C1N2CCN(CC2)CC3=CC(=C4C3=CC=CC=C4)CO

> <PUBCHEM_CACTVS_TPSA>
35.9

> <PUBCHEM_MONOISOTOPIC_WEIGHT>
362.199428076

> <PUBCHEM_TOTAL_CHARGE>
0

> <PUBCHEM_HEAVY_ATOM_COUNT>
27

> <PUBCHEM_ATOM_DEF_STEREO_COUNT>
0

> <PUBCHEM_ATOM_UDEF_STEREO_COUNT>
0

> <PUBCHEM_BOND_DEF_STEREO_COUNT>
0

> <PUBCHEM_BOND_UDEF_STEREO_COUNT>
0

> <PUBCHEM_ISOTOPIC_ATOM_COUNT>
0

> <PUBCHEM_COMPONENT_COUNT>
1

> <PUBCHEM_CACTVS_TAUTO_COUNT>
-1

> <PUBCHEM_COORDINATE_TYPE>
1
5
255

> <PUBCHEM_BONDANNOTATIONS>
10  12  8
10  13  8
11  16  8
11  17  8
12  18  8
13  15  8
14  15  8
14  20  8
16  21  8
17  22  8
18  23  8
20  25  8
21  24  8
22  24  8
23  26  8
25  26  8

$$$$
