10759963
  -OEChem-09292322132D

 53 56  0     1  0  0  0  0  0999 V2000
    4.5981    5.8450    0.0000 O   0  0  0  0  0  0  0  0  0  0  0  0
    4.5981   -0.1550    0.0000 N   0  0  3  0  0  0  0  0  0  0  0  0
    3.7320   -1.6550    0.0000 C   0  0  2  0  0  0  0  0  0  0  0  0
    4.5981   -1.1550    0.0000 C   0  0  0  0  0  0  0  0  0  0  0  0
    2.8660   -1.1550    0.0000 C   0  0  0  0  0  0  0  0  0  0  0  0
    3.7320   -2.6550    0.0000 C   0  0  0  0  0  0  0  0  0  0  0  0
    2.0000   -1.6550    0.0000 C   0  0  0  0  0  0  0  0  0  0  0  0
    2.8660   -3.1550    0.0000 C   0  0  0  0  0  0  0  0  0  0  0  0
    3.7320    0.3450    0.0000 C   0  0  0  0  0  0  0  0  0  0  0  0
    5.4641    0.3450    0.0000 C   0  0  0  0  0  0  0  0  0  0  0  0
    2.0000   -2.6550    0.0000 C   0  0  0  0  0  0  0  0  0  0  0  0
    3.7320    1.3450    0.0000 C   0  0  0  0  0  0  0  0  0  0  0  0
    4.5981    1.8450    0.0000 C   0  0  0  0  0  0  0  0  0  0  0  0
    5.4641    1.3450    0.0000 C   0  0  0  0  0  0  0  0  0  0  0  0
    2.8660   -4.1550    0.0000 C   0  0  0  0  0  0  0  0  0  0  0  0
    4.5981    2.8450    0.0000 C   0  0  0  0  0  0  0  0  0  0  0  0
    3.7320   -4.6550    0.0000 C   0  0  0  0  0  0  0  0  0  0  0  0
    2.0000   -4.6550    0.0000 C   0  0  0  0  0  0  0  0  0  0  0  0
    3.7320    3.3450    0.0000 C   0  0  0  0  0  0  0  0  0  0  0  0
    5.4641    3.3450    0.0000 C   0  0  0  0  0  0  0  0  0  0  0  0
    3.7320   -5.6550    0.0000 C   0  0  0  0  0  0  0  0  0  0  0  0
    2.0000   -5.6550    0.0000 C   0  0  0  0  0  0  0  0  0  0  0  0
    2.8660   -6.1550    0.0000 C   0  0  0  0  0  0  0  0  0  0  0  0
    3.7320    4.3450    0.0000 C   0  0  0  0  0  0  0  0  0  0  0  0
    5.4641    4.3450    0.0000 C   0  0  0  0  0  0  0  0  0  0  0  0
    4.5981    4.8450    0.0000 C   0  0  0  0  0  0  0  0  0  0  0  0
    3.7320   -1.0350    0.0000 H   0  0  0  0  0  0  0  0  0  0  0  0
    4.8101   -1.7376    0.0000 H   0  0  0  0  0  0  0  0  0  0  0  0
    5.2087   -1.0473    0.0000 H   0  0  0  0  0  0  0  0  0  0  0  0
    3.2646   -0.6801    0.0000 H   0  0  0  0  0  0  0  0  0  0  0  0
    2.4675   -0.6801    0.0000 H   0  0  0  0  0  0  0  0  0  0  0  0
    3.9441   -3.2376    0.0000 H   0  0  0  0  0  0  0  0  0  0  0  0
    4.3426   -2.5473    0.0000 H   0  0  0  0  0  0  0  0  0  0  0  0
    1.7880   -1.0724    0.0000 H   0  0  0  0  0  0  0  0  0  0  0  0
    1.3894   -1.7627    0.0000 H   0  0  0  0  0  0  0  0  0  0  0  0
    3.1215    0.4527    0.0000 H   0  0  0  0  0  0  0  0  0  0  0  0
    3.5200   -0.2376    0.0000 H   0  0  0  0  0  0  0  0  0  0  0  0
    5.6762   -0.2376    0.0000 H   0  0  0  0  0  0  0  0  0  0  0  0
    6.0747    0.4527    0.0000 H   0  0  0  0  0  0  0  0  0  0  0  0
    1.4631   -2.9650    0.0000 H   0  0  0  0  0  0  0  0  0  0  0  0
    3.5200    1.9276    0.0000 H   0  0  0  0  0  0  0  0  0  0  0  0
    3.1215    1.2373    0.0000 H   0  0  0  0  0  0  0  0  0  0  0  0
    6.0010    1.6550    0.0000 H   0  0  0  0  0  0  0  0  0  0  0  0
    4.2690   -4.3450    0.0000 H   0  0  0  0  0  0  0  0  0  0  0  0
    1.4631   -4.3450    0.0000 H   0  0  0  0  0  0  0  0  0  0  0  0
    3.1951    3.0350    0.0000 H   0  0  0  0  0  0  0  0  0  0  0  0
    6.0010    3.0350    0.0000 H   0  0  0  0  0  0  0  0  0  0  0  0
    4.2690   -5.9650    0.0000 H   0  0  0  0  0  0  0  0  0  0  0  0
    1.4631   -5.9650    0.0000 H   0  0  0  0  0  0  0  0  0  0  0  0
    2.8660   -6.7750    0.0000 H   0  0  0  0  0  0  0  0  0  0  0  0
    3.1951    4.6550    0.0000 H   0  0  0  0  0  0  0  0  0  0  0  0
    6.0010    4.6550    0.0000 H   0  0  0  0  0  0  0  0  0  0  0  0
    5.1350    6.1550    0.0000 H   0  0  0  0  0  0  0  0  0  0  0  0
  1 26  1  0  0  0  0
  1 53  1  0  0  0  0
  2  4  1  0  0  0  0
  2  9  1  0  0  0  0
  2 10  1  0  0  0  0
  3  4  1  1  0  0  0
  3  5  1  0  0  0  0
  3  6  1  0  0  0  0
  3 27  1  0  0  0  0
  4 28  1  0  0  0  0
  4 29  1  0  0  0  0
  5  7  1  0  0  0  0
  5 30  1  0  0  0  0
  5 31  1  0  0  0  0
  6  8  1  0  0  0  0
  6 32  1  0  0  0  0
  6 33  1  0  0  0  0
  7 11  1  0  0  0  0
  7 34  1  0  0  0  0
  7 35  1  0  0  0  0
  8 11  2  0  0  0  0
  8 15  1  0  0  0  0
  9 12  1  0  0  0  0
  9 36  1  0  0  0  0
  9 37  1  0  0  0  0
 10 14  1  0  0  0  0
 10 38  1  0  0  0  0
 10 39  1  0  0  0  0
 11 40  1  0  0  0  0
 12 13  1  0  0  0  0
 12 41  1  0  0  0  0
 12 42  1  0  0  0  0
 13 14  2  0  0  0  0
 13 16  1  0  0  0  0
 14 43  1  0  0  0  0
 15 17  2  0  0  0  0
 15 18  1  0  0  0  0
 16 19  2  0  0  0  0
 16 20  1  0  0  0  0
 17 21  1  0  0  0  0
 17 44  1  0  0  0  0
 18 22  2  0  0  0  0
 18 45  1  0  0  0  0
 19 24  1  0  0  0  0
 19 46  1  0  0  0  0
 20 25  2  0  0  0  0
 20 47  1  0  0  0  0
 21 23  2  0  0  0  0
 21 48  1  0  0  0  0
 22 23  1  0  0  0  0
 22 49  1  0  0  0  0
 23 50  1  0  0  0  0
 24 26  2  0  0  0  0
 24 51  1  0  0  0  0
 25 26  1  0  0  0  0
 25 52  1  0  0  0  0
M  END
> <PUBCHEM_COMPOUND_CID>
10759963

> <PUBCHEM_COMPOUND_CANONICALIZED>
1

> <PUBCHEM_CACTVS_COMPLEXITY>
508

> <PUBCHEM_CACTVS_HBOND_ACCEPTOR>
2

> <PUBCHEM_CACTVS_HBOND_DONOR>
1

> <PUBCHEM_CACTVS_ROTATABLE_BOND>
4

> <PUBCHEM_CACTVS_SUBSKEYS>
AAADceB6IAAAAAAAAAAAAAAAAAAAAAAAAAAwYIEAAAAAAAABQAAAHgAACAAADQTBmAQwBoMAAgCAAiBCAACCAAAgIAAIiAAOCIgIJiKCkRKEcAAkwBGImAeQwOAOIAAAAAAAAABAAAAAAAAAAAAAAAAAAA==

> <PUBCHEM_IUPAC_OPENEYE_NAME>
4-[1-[[(1R)-3-phenylcyclohex-3-en-1-yl]methyl]-3,6-dihydro-2H-pyridin-4-yl]phenol

> <PUBCHEM_IUPAC_CAS_NAME>
4-[1-[[(1R)-3-phenyl-1-cyclohex-3-enyl]methyl]-3,6-dihydro-2H-pyridin-4-yl]phenol

> <PUBCHEM_IUPAC_NAME_MARKUP>
4-[1-[[(1<I>R</I>)-3-phenylcyclohex-3-en-1-yl]methyl]-3,6-dihydro-2<I>H</I>-pyridin-4-yl]phenol

> <PUBCHEM_IUPAC_NAME>
4-[1-[[(1R)-3-phenylcyclohex-3-en-1-yl]methyl]-3,6-dihydro-2H-pyridin-4-yl]phenol

> <PUBCHEM_IUPAC_SYSTEMATIC_NAME>
4-[1-[[(1R)-3-phenylcyclohex-3-en-1-yl]methyl]-3,6-dihydro-2H-pyridin-4-yl]phenol

> <PUBCHEM_IUPAC_TRADITIONAL_NAME>
4-[1-[[(1R)-3-phenylcyclohex-3-en-1-yl]methyl]-3,6-dihydro-2H-pyridin-4-yl]phenol

> <PUBCHEM_IUPAC_INCHI>
InChI=1S/C24H27NO/c26-24-11-9-21(10-12-24)22-13-15-25(16-14-22)18-19-5-4-8-23(17-19)20-6-2-1-3-7-20/h1-3,6-13,19,26H,4-5,14-18H2/t19-/m1/s1

> <PUBCHEM_IUPAC_INCHIKEY>
RIRRORJZVJGNAL-LJQANCHMSA-N

> <PUBCHEM_XLOGP3_AA>
4.7

> <PUBCHEM_EXACT_MASS>
345.209264485

> <PUBCHEM_MOLECULAR_FORMULA>
C24H27NO

> <PUBCHEM_MOLECULAR_WEIGHT>
345.5

> <PUBCHEM_OPENEYE_CAN_SMILES>
C1CC(CC(=C1)C2=CC=CC=C2)CN3CCC(=CC3)C4=CC=C(C=C4)O

> <PUBCHEM_OPENEYE_ISO_SMILES>
C1C[C@H](CC(=C1)C2=CC=CC=C2)CN3CCC(=CC3)C4=CC=C(C=C4)O

> <PUBCHEM_CACTVS_TPSA>
23.5

> <PUBCHEM_MONOISOTOPIC_WEIGHT>
345.209264485

> <PUBCHEM_TOTAL_CHARGE>
0

> <PUBCHEM_HEAVY_ATOM_COUNT>
26

> <PUBCHEM_ATOM_DEF_STEREO_COUNT>
1

> <PUBCHEM_ATOM_UDEF_STEREO_COUNT>
0

> <PUBCHEM_BOND_DEF_STEREO_COUNT>
0

> <PUBCHEM_BOND_UDEF_STEREO_COUNT>
0

> <PUBCHEM_ISOTOPIC_ATOM_COUNT>
0

> <PUBCHEM_COMPONENT_COUNT>
1

> <PUBCHEM_CACTVS_TAUTO_COUNT>
-1

> <PUBCHEM_COORDINATE_TYPE>
1
5
255

> <PUBCHEM_BONDANNOTATIONS>
15  17  8
15  18  8
16  19  8
16  20  8
17  21  8
18  22  8
19  24  8
20  25  8
21  23  8
22  23  8
24  26  8
25  26  8
3  4  5

$$$$
