44332701
  -OEChem-09292322212D

 39 40  0     0  0  0  0  0  0999 V2000
    2.0000    2.5864    0.0000 Cl  0  0  0  0  0  0  0  0  0  0  0  0
    4.5981    4.0864    0.0000 S   0  0  0  0  0  0  0  0  0  0  0  0
    8.0052   -4.0014    0.0000 S   0  0  0  0  0  0  0  0  0  0  0  0
    5.4641    0.5864    0.0000 O   0  0  0  0  0  0  0  0  0  0  0  0
    4.0981    4.9524    0.0000 O   0  0  0  0  0  0  0  0  0  0  0  0
    5.0981    3.2204    0.0000 O   0  0  0  0  0  0  0  0  0  0  0  0
    6.3301   -1.9136    0.0000 N   0  0  0  0  0  0  0  0  0  0  0  0
    3.7320    3.5864    0.0000 N   0  0  0  0  0  0  0  0  0  0  0  0
    6.3301   -0.9136    0.0000 C   0  0  0  0  0  0  0  0  0  0  0  0
    5.4641   -0.4136    0.0000 C   0  0  0  0  0  0  0  0  0  0  0  0
    7.1962   -2.4136    0.0000 C   0  0  0  0  0  0  0  0  0  0  0  0
    3.7320    2.5864    0.0000 C   0  0  0  0  0  0  0  0  0  0  0  0
    4.5981    1.0864    0.0000 C   0  0  0  0  0  0  0  0  0  0  0  0
    4.5981    2.0864    0.0000 C   0  0  0  0  0  0  0  0  0  0  0  0
    7.1962   -3.4136    0.0000 C   0  0  0  0  0  0  0  0  0  0  0  0
    2.8660    2.0864    0.0000 C   0  0  0  0  0  0  0  0  0  0  0  0
    3.7320    0.5864    0.0000 C   0  0  0  0  0  0  0  0  0  0  0  0
    2.8660    1.0864    0.0000 C   0  0  0  0  0  0  0  0  0  0  0  0
    6.3871   -4.0014    0.0000 C   0  0  0  0  0  0  0  0  0  0  0  0
    5.4641    4.5864    0.0000 C   0  0  0  0  0  0  0  0  0  0  0  0
    6.6962   -4.9524    0.0000 C   0  0  0  0  0  0  0  0  0  0  0  0
    7.6962   -4.9524    0.0000 C   0  0  0  0  0  0  0  0  0  0  0  0
    6.9407   -1.0212    0.0000 H   0  0  0  0  0  0  0  0  0  0  0  0
    6.5422   -0.3310    0.0000 H   0  0  0  0  0  0  0  0  0  0  0  0
    4.8535   -0.3059    0.0000 H   0  0  0  0  0  0  0  0  0  0  0  0
    5.2520   -0.9962    0.0000 H   0  0  0  0  0  0  0  0  0  0  0  0
    7.8067   -2.5213    0.0000 H   0  0  0  0  0  0  0  0  0  0  0  0
    7.4082   -1.8310    0.0000 H   0  0  0  0  0  0  0  0  0  0  0  0
    5.7932   -2.2236    0.0000 H   0  0  0  0  0  0  0  0  0  0  0  0
    5.1350    2.3964    0.0000 H   0  0  0  0  0  0  0  0  0  0  0  0
    3.1951    3.8964    0.0000 H   0  0  0  0  0  0  0  0  0  0  0  0
    3.7320   -0.0336    0.0000 H   0  0  0  0  0  0  0  0  0  0  0  0
    2.3291    0.7764    0.0000 H   0  0  0  0  0  0  0  0  0  0  0  0
    5.7975   -3.8098    0.0000 H   0  0  0  0  0  0  0  0  0  0  0  0
    5.7741    4.0495    0.0000 H   0  0  0  0  0  0  0  0  0  0  0  0
    6.0010    4.8964    0.0000 H   0  0  0  0  0  0  0  0  0  0  0  0
    5.1541    5.1233    0.0000 H   0  0  0  0  0  0  0  0  0  0  0  0
    6.3317   -5.4540    0.0000 H   0  0  0  0  0  0  0  0  0  0  0  0
    8.0606   -5.4540    0.0000 H   0  0  0  0  0  0  0  0  0  0  0  0
  1 16  1  0  0  0  0
  2  5  2  0  0  0  0
  2  6  2  0  0  0  0
  2  8  1  0  0  0  0
  2 20  1  0  0  0  0
  3 15  1  0  0  0  0
  3 22  1  0  0  0  0
  4 10  1  0  0  0  0
  4 13  1  0  0  0  0
  7  9  1  0  0  0  0
  7 11  1  0  0  0  0
  7 29  1  0  0  0  0
  8 12  1  0  0  0  0
  8 31  1  0  0  0  0
  9 10  1  0  0  0  0
  9 23  1  0  0  0  0
  9 24  1  0  0  0  0
 10 25  1  0  0  0  0
 10 26  1  0  0  0  0
 11 15  1  0  0  0  0
 11 27  1  0  0  0  0
 11 28  1  0  0  0  0
 12 14  1  0  0  0  0
 12 16  2  0  0  0  0
 13 14  2  0  0  0  0
 13 17  1  0  0  0  0
 14 30  1  0  0  0  0
 15 19  2  0  0  0  0
 16 18  1  0  0  0  0
 17 18  2  0  0  0  0
 17 32  1  0  0  0  0
 18 33  1  0  0  0  0
 19 21  1  0  0  0  0
 19 34  1  0  0  0  0
 20 35  1  0  0  0  0
 20 36  1  0  0  0  0
 20 37  1  0  0  0  0
 21 22  2  0  0  0  0
 21 38  1  0  0  0  0
 22 39  1  0  0  0  0
M  END
> <PUBCHEM_COMPOUND_CID>
44332701

> <PUBCHEM_COMPOUND_CANONICALIZED>
1

> <PUBCHEM_CACTVS_COMPLEXITY>
430

> <PUBCHEM_CACTVS_HBOND_ACCEPTOR>
6

> <PUBCHEM_CACTVS_HBOND_DONOR>
2

> <PUBCHEM_CACTVS_ROTATABLE_BOND>
8

> <PUBCHEM_CACTVS_SUBSKEYS>
AAADceBzMABkAAAAAAAAAAAAAAAAASAAAAAwAAAAAAAAAAABwAAAHgYQQAAACA7l0Cayx4LABAqEACRCQHCDCIAgLxBIiJgObogOJiKls5uHOCjm0Bm46AeQUAEAACAAAgAAABAAQAAEAAAAIAAAAAAAAA==

> <PUBCHEM_IUPAC_OPENEYE_NAME>
N-[2-chloro-5-[2-(2-thienylmethylamino)ethoxy]phenyl]methanesulfonamide

> <PUBCHEM_IUPAC_CAS_NAME>
N-[2-chloro-5-[2-(thiophen-2-ylmethylamino)ethoxy]phenyl]methanesulfonamide

> <PUBCHEM_IUPAC_NAME_MARKUP>
<I>N</I>-[2-chloro-5-[2-(thiophen-2-ylmethylamino)ethoxy]phenyl]methanesulfonamide

> <PUBCHEM_IUPAC_NAME>
N-[2-chloro-5-[2-(thiophen-2-ylmethylamino)ethoxy]phenyl]methanesulfonamide

> <PUBCHEM_IUPAC_SYSTEMATIC_NAME>
N-[2-chloranyl-5-[2-(thiophen-2-ylmethylamino)ethoxy]phenyl]methanesulfonamide

> <PUBCHEM_IUPAC_TRADITIONAL_NAME>
N-[2-chloro-5-[2-(2-thenylamino)ethoxy]phenyl]methanesulfonamide

> <PUBCHEM_IUPAC_INCHI>
InChI=1S/C14H17ClN2O3S2/c1-22(18,19)17-14-9-11(4-5-13(14)15)20-7-6-16-10-12-3-2-8-21-12/h2-5,8-9,16-17H,6-7,10H2,1H3

> <PUBCHEM_IUPAC_INCHIKEY>
RGVJFPMOLSXLGJ-UHFFFAOYSA-N

> <PUBCHEM_XLOGP3_AA>
2.3

> <PUBCHEM_EXACT_MASS>
360.0369124

> <PUBCHEM_MOLECULAR_FORMULA>
C14H17ClN2O3S2

> <PUBCHEM_MOLECULAR_WEIGHT>
360.9

> <PUBCHEM_OPENEYE_CAN_SMILES>
CS(=O)(=O)NC1=C(C=CC(=C1)OCCNCC2=CC=CS2)Cl

> <PUBCHEM_OPENEYE_ISO_SMILES>
CS(=O)(=O)NC1=C(C=CC(=C1)OCCNCC2=CC=CS2)Cl

> <PUBCHEM_CACTVS_TPSA>
104

> <PUBCHEM_MONOISOTOPIC_WEIGHT>
360.0369124

> <PUBCHEM_TOTAL_CHARGE>
0

> <PUBCHEM_HEAVY_ATOM_COUNT>
22

> <PUBCHEM_ATOM_DEF_STEREO_COUNT>
0

> <PUBCHEM_ATOM_UDEF_STEREO_COUNT>
0

> <PUBCHEM_BOND_DEF_STEREO_COUNT>
0

> <PUBCHEM_BOND_UDEF_STEREO_COUNT>
0

> <PUBCHEM_ISOTOPIC_ATOM_COUNT>
0

> <PUBCHEM_COMPONENT_COUNT>
1

> <PUBCHEM_CACTVS_TAUTO_COUNT>
-1

> <PUBCHEM_COORDINATE_TYPE>
1
5
255

> <PUBCHEM_BONDANNOTATIONS>
12  14  8
12  16  8
13  14  8
13  17  8
15  19  8
16  18  8
17  18  8
19  21  8
21  22  8
3  15  8
3  22  8

$$$$
