44415383
  -OEChem-09292322282D

 66 70  0     0  0  0  0  0  0999 V2000
    8.7204    2.1797    0.0000 Cl  0  0  0  0  0  0  0  0  0  0  0  0
    4.8830   -5.1473    0.0000 Cl  0  0  0  0  0  0  0  0  0  0  0  0
    6.6150   -0.1473    0.0000 O   0  0  0  0  0  0  0  0  0  0  0  0
    6.6150   -6.1473    0.0000 O   0  0  0  0  0  0  0  0  0  0  0  0
    3.9491    3.9444    0.0000 N   0  0  0  0  0  0  0  0  0  0  0  0
    3.0814    5.7463    0.0000 N   0  0  0  0  0  0  0  0  0  0  0  0
    4.8830    0.8527    0.0000 N   0  0  0  0  0  0  0  0  0  0  0  0
    5.3830    3.0434    0.0000 N   0  0  0  0  0  0  0  0  0  0  0  0
    4.8830   -0.1473    0.0000 N   0  0  0  0  0  0  0  0  0  0  0  0
    2.9519    4.0191    0.0000 C   0  0  0  0  0  0  0  0  0  0  0  0
    4.5125    4.7706    0.0000 C   0  0  0  0  0  0  0  0  0  0  0  0
    2.5180    4.9201    0.0000 C   0  0  0  0  0  0  0  0  0  0  0  0
    4.0786    5.6716    0.0000 C   0  0  0  0  0  0  0  0  0  0  0  0
    4.3830    3.0434    0.0000 C   0  0  0  0  0  0  0  0  0  0  0  0
    3.7595    2.2616    0.0000 C   0  0  0  0  0  0  0  0  0  0  0  0
    2.6475    6.6473    0.0000 C   0  0  0  0  0  0  0  0  0  0  0  0
    3.9820    1.2866    0.0000 C   0  0  0  0  0  0  0  0  0  0  0  0
    5.7840    1.2866    0.0000 C   0  0  0  0  0  0  0  0  0  0  0  0
    6.0065    2.2616    0.0000 C   0  0  0  0  0  0  0  0  0  0  0  0
    2.7690    2.5839    0.0000 C   0  0  0  0  0  0  0  0  0  0  0  0
    3.2295    0.5665    0.0000 C   0  0  0  0  0  0  0  0  0  0  0  0
    2.0000    1.8813    0.0000 C   0  0  0  0  0  0  0  0  0  0  0  0
    6.5365    0.5664    0.0000 C   0  0  0  0  0  0  0  0  0  0  0  0
    6.9970    2.5839    0.0000 C   0  0  0  0  0  0  0  0  0  0  0  0
    2.2318    0.8658    0.0000 C   0  0  0  0  0  0  0  0  0  0  0  0
    5.7490   -0.6473    0.0000 C   0  0  0  0  0  0  0  0  0  0  0  0
    5.7490   -1.6473    0.0000 C   0  0  0  0  0  0  0  0  0  0  0  0
    7.5342    0.8658    0.0000 C   0  0  0  0  0  0  0  0  0  0  0  0
    7.7660    1.8813    0.0000 C   0  0  0  0  0  0  0  0  0  0  0  0
    6.6150   -2.1473    0.0000 C   0  0  0  0  0  0  0  0  0  0  0  0
    6.6150   -3.1473    0.0000 C   0  0  0  0  0  0  0  0  0  0  0  0
    5.7490   -3.6473    0.0000 C   0  0  0  0  0  0  0  0  0  0  0  0
    7.4810   -3.6473    0.0000 C   0  0  0  0  0  0  0  0  0  0  0  0
    5.7490   -4.6473    0.0000 C   0  0  0  0  0  0  0  0  0  0  0  0
    7.4810   -4.6473    0.0000 C   0  0  0  0  0  0  0  0  0  0  0  0
    6.6150   -5.1473    0.0000 C   0  0  0  0  0  0  0  0  0  0  0  0
    7.4810   -6.6473    0.0000 C   0  0  0  0  0  0  0  0  0  0  0  0
    2.3551    3.8512    0.0000 H   0  0  0  0  0  0  0  0  0  0  0  0
    3.0137    3.4022    0.0000 H   0  0  0  0  0  0  0  0  0  0  0  0
    4.9563    4.3377    0.0000 H   0  0  0  0  0  0  0  0  0  0  0  0
    5.0159    5.1325    0.0000 H   0  0  0  0  0  0  0  0  0  0  0  0
    2.0742    5.3530    0.0000 H   0  0  0  0  0  0  0  0  0  0  0  0
    2.0146    4.5582    0.0000 H   0  0  0  0  0  0  0  0  0  0  0  0
    4.6754    5.8395    0.0000 H   0  0  0  0  0  0  0  0  0  0  0  0
    4.0168    6.2885    0.0000 H   0  0  0  0  0  0  0  0  0  0  0  0
    3.2061    6.9163    0.0000 H   0  0  0  0  0  0  0  0  0  0  0  0
    2.3785    7.2059    0.0000 H   0  0  0  0  0  0  0  0  0  0  0  0
    2.0889    6.3783    0.0000 H   0  0  0  0  0  0  0  0  0  0  0  0
    2.6380    3.1899    0.0000 H   0  0  0  0  0  0  0  0  0  0  0  0
    3.3744   -0.0364    0.0000 H   0  0  0  0  0  0  0  0  0  0  0  0
    4.3460   -0.4573    0.0000 H   0  0  0  0  0  0  0  0  0  0  0  0
    1.4083    2.0664    0.0000 H   0  0  0  0  0  0  0  0  0  0  0  0
    6.3916   -0.0364    0.0000 H   0  0  0  0  0  0  0  0  0  0  0  0
    7.1280    3.1899    0.0000 H   0  0  0  0  0  0  0  0  0  0  0  0
    1.7789    0.4424    0.0000 H   0  0  0  0  0  0  0  0  0  0  0  0
    5.1384   -1.5396    0.0000 H   0  0  0  0  0  0  0  0  0  0  0  0
    5.5369   -2.2299    0.0000 H   0  0  0  0  0  0  0  0  0  0  0  0
    7.9871    0.4423    0.0000 H   0  0  0  0  0  0  0  0  0  0  0  0
    7.2256   -2.2549    0.0000 H   0  0  0  0  0  0  0  0  0  0  0  0
    6.8271   -1.5647    0.0000 H   0  0  0  0  0  0  0  0  0  0  0  0
    5.2120   -3.3373    0.0000 H   0  0  0  0  0  0  0  0  0  0  0  0
    8.0180   -3.3373    0.0000 H   0  0  0  0  0  0  0  0  0  0  0  0
    8.0180   -4.9573    0.0000 H   0  0  0  0  0  0  0  0  0  0  0  0
    7.1710   -7.1842    0.0000 H   0  0  0  0  0  0  0  0  0  0  0  0
    8.0180   -6.9573    0.0000 H   0  0  0  0  0  0  0  0  0  0  0  0
    7.7910   -6.1103    0.0000 H   0  0  0  0  0  0  0  0  0  0  0  0
  1 29  1  0  0  0  0
  2 34  1  0  0  0  0
  3 26  2  0  0  0  0
  4 36  1  0  0  0  0
  4 37  1  0  0  0  0
  5 10  1  0  0  0  0
  5 11  1  0  0  0  0
  5 14  1  0  0  0  0
  6 12  1  0  0  0  0
  6 13  1  0  0  0  0
  6 16  1  0  0  0  0
  7  9  1  0  0  0  0
  7 17  1  0  0  0  0
  7 18  1  0  0  0  0
  8 14  2  0  0  0  0
  8 19  1  0  0  0  0
  9 26  1  0  0  0  0
  9 51  1  0  0  0  0
 10 12  1  0  0  0  0
 10 38  1  0  0  0  0
 10 39  1  0  0  0  0
 11 13  1  0  0  0  0
 11 40  1  0  0  0  0
 11 41  1  0  0  0  0
 12 42  1  0  0  0  0
 12 43  1  0  0  0  0
 13 44  1  0  0  0  0
 13 45  1  0  0  0  0
 14 15  1  0  0  0  0
 15 17  1  0  0  0  0
 15 20  2  0  0  0  0
 16 46  1  0  0  0  0
 16 47  1  0  0  0  0
 16 48  1  0  0  0  0
 17 21  2  0  0  0  0
 18 19  2  0  0  0  0
 18 23  1  0  0  0  0
 19 24  1  0  0  0  0
 20 22  1  0  0  0  0
 20 49  1  0  0  0  0
 21 25  1  0  0  0  0
 21 50  1  0  0  0  0
 22 25  2  0  0  0  0
 22 52  1  0  0  0  0
 23 28  2  0  0  0  0
 23 53  1  0  0  0  0
 24 29  2  0  0  0  0
 24 54  1  0  0  0  0
 25 55  1  0  0  0  0
 26 27  1  0  0  0  0
 27 30  1  0  0  0  0
 27 56  1  0  0  0  0
 27 57  1  0  0  0  0
 28 29  1  0  0  0  0
 28 58  1  0  0  0  0
 30 31  1  0  0  0  0
 30 59  1  0  0  0  0
 30 60  1  0  0  0  0
 31 32  2  0  0  0  0
 31 33  1  0  0  0  0
 32 34  1  0  0  0  0
 32 61  1  0  0  0  0
 33 35  2  0  0  0  0
 33 62  1  0  0  0  0
 34 36  2  0  0  0  0
 35 36  1  0  0  0  0
 35 63  1  0  0  0  0
 37 64  1  0  0  0  0
 37 65  1  0  0  0  0
 37 66  1  0  0  0  0
M  END
> <PUBCHEM_COMPOUND_CID>
44415383

> <PUBCHEM_COMPOUND_CANONICALIZED>
1

> <PUBCHEM_CACTVS_COMPLEXITY>
807

> <PUBCHEM_CACTVS_HBOND_ACCEPTOR>
5

> <PUBCHEM_CACTVS_HBOND_DONOR>
1

> <PUBCHEM_CACTVS_ROTATABLE_BOND>
6

> <PUBCHEM_CACTVS_SUBSKEYS>
AAADceB7sAAGAAAAAAAAAAAAAAAAAAAAAAA8YMEABAAAAAABUAAAHgIYAAAADA7BmCYzxoNiBACoAidydACCDAEhJ0AbqAEuf5gMZvPF+5uUMChk0BHI6AeYyKCOIABAIAICCCBAAIBABAQQQAAAAAAAAA==

> <PUBCHEM_IUPAC_OPENEYE_NAME>
3-(3-chloro-4-methoxy-phenyl)-N-[3-chloro-6-(4-methylpiperazin-1-yl)benzo[b][1,4]benzodiazepin-11-yl]propanamide

> <PUBCHEM_IUPAC_CAS_NAME>
3-(3-chloro-4-methoxyphenyl)-N-[3-chloro-6-(4-methyl-1-piperazinyl)-11-benzo[b][1,4]benzodiazepinyl]propanamide

> <PUBCHEM_IUPAC_NAME_MARKUP>
3-(3-chloro-4-methoxyphenyl)-<I>N</I>-[3-chloro-6-(4-methylpiperazin-1-yl)benzo[b][1,4]benzodiazepin-11-yl]propanamide

> <PUBCHEM_IUPAC_NAME>
3-(3-chloro-4-methoxyphenyl)-N-[3-chloro-6-(4-methylpiperazin-1-yl)benzo[b][1,4]benzodiazepin-11-yl]propanamide

> <PUBCHEM_IUPAC_SYSTEMATIC_NAME>
3-(3-chloranyl-4-methoxy-phenyl)-N-[3-chloranyl-6-(4-methylpiperazin-1-yl)benzo[b][1,4]benzodiazepin-11-yl]propanamide

> <PUBCHEM_IUPAC_TRADITIONAL_NAME>
3-(3-chloro-4-methoxy-phenyl)-N-[3-chloro-6-(4-methylpiperazino)benzo[b][1,4]benzodiazepin-11-yl]propionamide

> <PUBCHEM_IUPAC_INCHI>
InChI=1S/C28H29Cl2N5O2/c1-33-13-15-34(16-14-33)28-21-5-3-4-6-24(21)35(25-10-9-20(29)18-23(25)31-28)32-27(36)12-8-19-7-11-26(37-2)22(30)17-19/h3-7,9-11,17-18H,8,12-16H2,1-2H3,(H,32,36)

> <PUBCHEM_IUPAC_INCHIKEY>
RGHKLXUPKREMAG-UHFFFAOYSA-N

> <PUBCHEM_XLOGP3_AA>
5.2

> <PUBCHEM_EXACT_MASS>
537.1698306

> <PUBCHEM_MOLECULAR_FORMULA>
C28H29Cl2N5O2

> <PUBCHEM_MOLECULAR_WEIGHT>
538.5

> <PUBCHEM_OPENEYE_CAN_SMILES>
CN1CCN(CC1)C2=NC3=C(C=CC(=C3)Cl)N(C4=CC=CC=C42)NC(=O)CCC5=CC(=C(C=C5)OC)Cl

> <PUBCHEM_OPENEYE_ISO_SMILES>
CN1CCN(CC1)C2=NC3=C(C=CC(=C3)Cl)N(C4=CC=CC=C42)NC(=O)CCC5=CC(=C(C=C5)OC)Cl

> <PUBCHEM_CACTVS_TPSA>
60.4

> <PUBCHEM_MONOISOTOPIC_WEIGHT>
537.1698306

> <PUBCHEM_TOTAL_CHARGE>
0

> <PUBCHEM_HEAVY_ATOM_COUNT>
37

> <PUBCHEM_ATOM_DEF_STEREO_COUNT>
0

> <PUBCHEM_ATOM_UDEF_STEREO_COUNT>
0

> <PUBCHEM_BOND_DEF_STEREO_COUNT>
0

> <PUBCHEM_BOND_UDEF_STEREO_COUNT>
0

> <PUBCHEM_ISOTOPIC_ATOM_COUNT>
0

> <PUBCHEM_COMPONENT_COUNT>
1

> <PUBCHEM_CACTVS_TAUTO_COUNT>
-1

> <PUBCHEM_COORDINATE_TYPE>
1
5
255

> <PUBCHEM_BONDANNOTATIONS>
15  17  8
15  20  8
17  21  8
18  19  8
18  23  8
19  24  8
20  22  8
21  25  8
22  25  8
23  28  8
24  29  8
28  29  8
31  32  8
31  33  8
32  34  8
33  35  8
34  36  8
35  36  8

$$$$
