10425969
  -OEChem-09292322222D

 43 45  0     0  0  0  0  0  0999 V2000
    2.8660   -0.6260    0.0000 N   0  0  0  0  0  0  0  0  0  0  0  0
    2.8660   -2.6260    0.0000 N   0  0  0  0  0  0  0  0  0  0  0  0
    5.3147    1.2104    0.0000 N   0  0  0  0  0  0  0  0  0  0  0  0
    5.4472    5.6260    0.0000 N   0  0  0  0  0  0  0  0  0  0  0  0
    2.6446    3.5899    0.0000 N   0  0  0  0  0  0  0  0  0  0  0  0
    3.7320   -1.1260    0.0000 C   0  0  0  0  0  0  0  0  0  0  0  0
    2.0000   -1.1260    0.0000 C   0  0  0  0  0  0  0  0  0  0  0  0
    3.7320   -2.1260    0.0000 C   0  0  0  0  0  0  0  0  0  0  0  0
    2.0000   -2.1260    0.0000 C   0  0  0  0  0  0  0  0  0  0  0  0
    2.8660    0.3740    0.0000 C   0  0  0  0  0  0  0  0  0  0  0  0
    2.8660   -3.6260    0.0000 C   0  0  0  0  0  0  0  0  0  0  0  0
    3.7320    0.8740    0.0000 C   0  0  0  0  0  0  0  0  0  0  0  0
    3.8366    1.8685    0.0000 C   0  0  0  0  0  0  0  0  0  0  0  0
    4.6456    0.4672    0.0000 C   0  0  0  0  0  0  0  0  0  0  0  0
    2.0000   -4.1260    0.0000 C   0  0  0  0  0  0  0  0  0  0  0  0
    3.7320   -4.1260    0.0000 C   0  0  0  0  0  0  0  0  0  0  0  0
    4.8147    2.0764    0.0000 C   0  0  0  0  0  0  0  0  0  0  0  0
    2.0000   -5.1260    0.0000 C   0  0  0  0  0  0  0  0  0  0  0  0
    3.7320   -5.1260    0.0000 C   0  0  0  0  0  0  0  0  0  0  0  0
    2.8660   -5.6260    0.0000 C   0  0  0  0  0  0  0  0  0  0  0  0
    5.2215    2.9899    0.0000 C   0  0  0  0  0  0  0  0  0  0  0  0
    4.6337    3.7990    0.0000 C   0  0  0  0  0  0  0  0  0  0  0  0
    5.0404    4.7125    0.0000 C   0  0  0  0  0  0  0  0  0  0  0  0
    3.6392    3.6944    0.0000 C   0  0  0  0  0  0  0  0  0  0  0  0
    4.3426   -1.2337    0.0000 H   0  0  0  0  0  0  0  0  0  0  0  0
    3.9441   -0.5434    0.0000 H   0  0  0  0  0  0  0  0  0  0  0  0
    1.7880   -0.5434    0.0000 H   0  0  0  0  0  0  0  0  0  0  0  0
    1.3894   -1.2337    0.0000 H   0  0  0  0  0  0  0  0  0  0  0  0
    3.9441   -2.7086    0.0000 H   0  0  0  0  0  0  0  0  0  0  0  0
    4.3426   -2.0184    0.0000 H   0  0  0  0  0  0  0  0  0  0  0  0
    1.3894   -2.0184    0.0000 H   0  0  0  0  0  0  0  0  0  0  0  0
    1.7880   -2.7086    0.0000 H   0  0  0  0  0  0  0  0  0  0  0  0
    2.6540    0.9566    0.0000 H   0  0  0  0  0  0  0  0  0  0  0  0
    2.2554    0.2663    0.0000 H   0  0  0  0  0  0  0  0  0  0  0  0
    3.3758    2.2833    0.0000 H   0  0  0  0  0  0  0  0  0  0  0  0
    4.7745   -0.1392    0.0000 H   0  0  0  0  0  0  0  0  0  0  0  0
    1.4631   -3.8160    0.0000 H   0  0  0  0  0  0  0  0  0  0  0  0
    4.2690   -3.8160    0.0000 H   0  0  0  0  0  0  0  0  0  0  0  0
    5.9313    1.1456    0.0000 H   0  0  0  0  0  0  0  0  0  0  0  0
    1.4631   -5.4360    0.0000 H   0  0  0  0  0  0  0  0  0  0  0  0
    4.2690   -5.4360    0.0000 H   0  0  0  0  0  0  0  0  0  0  0  0
    2.8660   -6.2460    0.0000 H   0  0  0  0  0  0  0  0  0  0  0  0
    5.8381    3.0547    0.0000 H   0  0  0  0  0  0  0  0  0  0  0  0
  1  6  1  0  0  0  0
  1  7  1  0  0  0  0
  1 10  1  0  0  0  0
  2  8  1  0  0  0  0
  2  9  1  0  0  0  0
  2 11  1  0  0  0  0
  3 14  1  0  0  0  0
  3 17  1  0  0  0  0
  3 39  1  0  0  0  0
  4 23  3  0  0  0  0
  5 24  3  0  0  0  0
  6  8  1  0  0  0  0
  6 25  1  0  0  0  0
  6 26  1  0  0  0  0
  7  9  1  0  0  0  0
  7 27  1  0  0  0  0
  7 28  1  0  0  0  0
  8 29  1  0  0  0  0
  8 30  1  0  0  0  0
  9 31  1  0  0  0  0
  9 32  1  0  0  0  0
 10 12  1  0  0  0  0
 10 33  1  0  0  0  0
 10 34  1  0  0  0  0
 11 15  2  0  0  0  0
 11 16  1  0  0  0  0
 12 13  1  0  0  0  0
 12 14  2  0  0  0  0
 13 17  2  0  0  0  0
 13 35  1  0  0  0  0
 14 36  1  0  0  0  0
 15 18  1  0  0  0  0
 15 37  1  0  0  0  0
 16 19  2  0  0  0  0
 16 38  1  0  0  0  0
 17 21  1  0  0  0  0
 18 20  2  0  0  0  0
 18 40  1  0  0  0  0
 19 20  1  0  0  0  0
 19 41  1  0  0  0  0
 20 42  1  0  0  0  0
 21 22  2  0  0  0  0
 21 43  1  0  0  0  0
 22 23  1  0  0  0  0
 22 24  1  0  0  0  0
M  END
> <PUBCHEM_COMPOUND_CID>
10425969

> <PUBCHEM_COMPOUND_CANONICALIZED>
1

> <PUBCHEM_CACTVS_COMPLEXITY>
519

> <PUBCHEM_CACTVS_HBOND_ACCEPTOR>
4

> <PUBCHEM_CACTVS_HBOND_DONOR>
1

> <PUBCHEM_CACTVS_ROTATABLE_BOND>
4

> <PUBCHEM_CACTVS_SUBSKEYS>
AAADceB7gAAAAAAAAAAAAAAAAAAAAWAAAAA8QAAAAAAAAAABwAAAHAAQAAAADAjBHgQ8wJPJkACwBzRnRACigCAxAiAI2aA4ZJgI4OLA0ZGUIAhgkADIyAcQAAAMAAAAAAAAAAAAAAAAAAAAAAAAAAAAAA==

> <PUBCHEM_IUPAC_OPENEYE_NAME>
2-[[4-[(4-phenylpiperazin-1-yl)methyl]-1H-pyrrol-2-yl]methylene]propanedinitrile

> <PUBCHEM_IUPAC_CAS_NAME>
2-[[4-[(4-phenyl-1-piperazinyl)methyl]-1H-pyrrol-2-yl]methylidene]propanedinitrile

> <PUBCHEM_IUPAC_NAME_MARKUP>
2-[[4-[(4-phenylpiperazin-1-yl)methyl]-1<I>H</I>-pyrrol-2-yl]methylidene]propanedinitrile

> <PUBCHEM_IUPAC_NAME>
2-[[4-[(4-phenylpiperazin-1-yl)methyl]-1H-pyrrol-2-yl]methylidene]propanedinitrile

> <PUBCHEM_IUPAC_SYSTEMATIC_NAME>
2-[[4-[(4-phenylpiperazin-1-yl)methyl]-1H-pyrrol-2-yl]methylidene]propanedinitrile

> <PUBCHEM_IUPAC_TRADITIONAL_NAME>
2-[[4-[(4-phenylpiperazino)methyl]-1H-pyrrol-2-yl]methylene]malononitrile

> <PUBCHEM_IUPAC_INCHI>
InChI=1S/C19H19N5/c20-12-16(13-21)10-18-11-17(14-22-18)15-23-6-8-24(9-7-23)19-4-2-1-3-5-19/h1-5,10-11,14,22H,6-9,15H2

> <PUBCHEM_IUPAC_INCHIKEY>
FASYQPOSAUOTDU-UHFFFAOYSA-N

> <PUBCHEM_XLOGP3_AA>
2.2

> <PUBCHEM_EXACT_MASS>
317.16404563

> <PUBCHEM_MOLECULAR_FORMULA>
C19H19N5

> <PUBCHEM_MOLECULAR_WEIGHT>
317.4

> <PUBCHEM_OPENEYE_CAN_SMILES>
C1CN(CCN1CC2=CNC(=C2)C=C(C#N)C#N)C3=CC=CC=C3

> <PUBCHEM_OPENEYE_ISO_SMILES>
C1CN(CCN1CC2=CNC(=C2)C=C(C#N)C#N)C3=CC=CC=C3

> <PUBCHEM_CACTVS_TPSA>
69.8

> <PUBCHEM_MONOISOTOPIC_WEIGHT>
317.16404563

> <PUBCHEM_TOTAL_CHARGE>
0

> <PUBCHEM_HEAVY_ATOM_COUNT>
24

> <PUBCHEM_ATOM_DEF_STEREO_COUNT>
0

> <PUBCHEM_ATOM_UDEF_STEREO_COUNT>
0

> <PUBCHEM_BOND_DEF_STEREO_COUNT>
0

> <PUBCHEM_BOND_UDEF_STEREO_COUNT>
0

> <PUBCHEM_ISOTOPIC_ATOM_COUNT>
0

> <PUBCHEM_COMPONENT_COUNT>
1

> <PUBCHEM_CACTVS_TAUTO_COUNT>
-1

> <PUBCHEM_COORDINATE_TYPE>
1
5
255

> <PUBCHEM_BONDANNOTATIONS>
11  15  8
11  16  8
12  13  8
12  14  8
13  17  8
15  18  8
16  19  8
18  20  8
19  20  8
3  14  8
3  17  8

$$$$
