9903398
  -OEChem-09292322512D

 40 42  0     0  0  0  0  0  0999 V2000
    4.6783   -2.2049    0.0000 N   0  0  0  0  0  0  0  0  0  0  0  0
    4.6318    2.0499    0.0000 N   0  0  0  0  0  0  0  0  0  0  0  0
    4.6783   -0.5954    0.0000 C   0  0  0  0  0  0  0  0  0  0  0  0
    4.9889    0.3551    0.0000 C   0  0  0  0  0  0  0  0  0  0  0  0
    3.7320   -0.9002    0.0000 C   0  0  0  0  0  0  0  0  0  0  0  0
    5.2619   -1.4002    0.0000 C   0  0  0  0  0  0  0  0  0  0  0  0
    3.7320   -1.9002    0.0000 C   0  0  0  0  0  0  0  0  0  0  0  0
    4.3211    1.0994    0.0000 C   0  0  0  0  0  0  0  0  0  0  0  0
    6.2619   -1.4002    0.0000 C   0  0  0  0  0  0  0  0  0  0  0  0
    2.8660   -0.4002    0.0000 C   0  0  0  0  0  0  0  0  0  0  0  0
    2.8660   -2.4002    0.0000 C   0  0  0  0  0  0  0  0  0  0  0  0
    2.0000   -0.9002    0.0000 C   0  0  0  0  0  0  0  0  0  0  0  0
    2.0000   -1.9002    0.0000 C   0  0  0  0  0  0  0  0  0  0  0  0
    6.7619   -0.5341    0.0000 C   0  0  0  0  0  0  0  0  0  0  0  0
    6.7619   -2.2662    0.0000 C   0  0  0  0  0  0  0  0  0  0  0  0
    3.9639    2.7942    0.0000 C   0  0  0  0  0  0  0  0  0  0  0  0
    5.6103    2.2561    0.0000 C   0  0  0  0  0  0  0  0  0  0  0  0
    7.7619   -0.5341    0.0000 C   0  0  0  0  0  0  0  0  0  0  0  0
    7.7619   -2.2662    0.0000 C   0  0  0  0  0  0  0  0  0  0  0  0
    8.2619   -1.4002    0.0000 C   0  0  0  0  0  0  0  0  0  0  0  0
    5.5359    0.0631    0.0000 H   0  0  0  0  0  0  0  0  0  0  0  0
    5.3715    0.8430    0.0000 H   0  0  0  0  0  0  0  0  0  0  0  0
    3.7742    1.3914    0.0000 H   0  0  0  0  0  0  0  0  0  0  0  0
    3.9385    0.6115    0.0000 H   0  0  0  0  0  0  0  0  0  0  0  0
    4.8709   -2.7942    0.0000 H   0  0  0  0  0  0  0  0  0  0  0  0
    2.8660    0.2198    0.0000 H   0  0  0  0  0  0  0  0  0  0  0  0
    2.8660   -3.0202    0.0000 H   0  0  0  0  0  0  0  0  0  0  0  0
    1.4631   -0.5902    0.0000 H   0  0  0  0  0  0  0  0  0  0  0  0
    1.4631   -2.2102    0.0000 H   0  0  0  0  0  0  0  0  0  0  0  0
    6.4519    0.0028    0.0000 H   0  0  0  0  0  0  0  0  0  0  0  0
    6.4519   -2.8031    0.0000 H   0  0  0  0  0  0  0  0  0  0  0  0
    4.4254    3.2083    0.0000 H   0  0  0  0  0  0  0  0  0  0  0  0
    3.5498    3.2557    0.0000 H   0  0  0  0  0  0  0  0  0  0  0  0
    3.5024    2.3802    0.0000 H   0  0  0  0  0  0  0  0  0  0  0  0
    5.7381    1.6495    0.0000 H   0  0  0  0  0  0  0  0  0  0  0  0
    6.2169    2.3840    0.0000 H   0  0  0  0  0  0  0  0  0  0  0  0
    5.4824    2.8628    0.0000 H   0  0  0  0  0  0  0  0  0  0  0  0
    8.0719    0.0028    0.0000 H   0  0  0  0  0  0  0  0  0  0  0  0
    8.0719   -2.8031    0.0000 H   0  0  0  0  0  0  0  0  0  0  0  0
    8.8819   -1.4002    0.0000 H   0  0  0  0  0  0  0  0  0  0  0  0
  1  6  1  0  0  0  0
  1  7  1  0  0  0  0
  1 25  1  0  0  0  0
  2  8  1  0  0  0  0
  2 16  1  0  0  0  0
  2 17  1  0  0  0  0
  3  4  1  0  0  0  0
  3  5  1  0  0  0  0
  3  6  2  0  0  0  0
  4  8  1  0  0  0  0
  4 21  1  0  0  0  0
  4 22  1  0  0  0  0
  5  7  1  0  0  0  0
  5 10  2  0  0  0  0
  6  9  1  0  0  0  0
  7 11  2  0  0  0  0
  8 23  1  0  0  0  0
  8 24  1  0  0  0  0
  9 14  2  0  0  0  0
  9 15  1  0  0  0  0
 10 12  1  0  0  0  0
 10 26  1  0  0  0  0
 11 13  1  0  0  0  0
 11 27  1  0  0  0  0
 12 13  2  0  0  0  0
 12 28  1  0  0  0  0
 13 29  1  0  0  0  0
 14 18  1  0  0  0  0
 14 30  1  0  0  0  0
 15 19  2  0  0  0  0
 15 31  1  0  0  0  0
 16 32  1  0  0  0  0
 16 33  1  0  0  0  0
 16 34  1  0  0  0  0
 17 35  1  0  0  0  0
 17 36  1  0  0  0  0
 17 37  1  0  0  0  0
 18 20  2  0  0  0  0
 18 38  1  0  0  0  0
 19 20  1  0  0  0  0
 19 39  1  0  0  0  0
 20 40  1  0  0  0  0
M  END
> <PUBCHEM_COMPOUND_CID>
9903398

> <PUBCHEM_COMPOUND_CANONICALIZED>
1

> <PUBCHEM_CACTVS_COMPLEXITY>
296

> <PUBCHEM_CACTVS_HBOND_ACCEPTOR>
1

> <PUBCHEM_CACTVS_HBOND_DONOR>
1

> <PUBCHEM_CACTVS_ROTATABLE_BOND>
4

> <PUBCHEM_CACTVS_SUBSKEYS>
AAADceB7AAAAAAAAAAAAAAAAAAAAAWAAAAAwYAAAAAAAAFgB9AAAHAAQAAAADAjBHgQywPPJkACgAyRiRACCgCAhAiAImSA4ZJgIIOLAkZGEIAhgkADIyAcQgMAOgAAAAAACAAAAAAAAAAQAAAAAAAAAAA==

> <PUBCHEM_IUPAC_OPENEYE_NAME>
N,N-dimethyl-2-(2-phenyl-1H-indol-3-yl)ethanamine

> <PUBCHEM_IUPAC_CAS_NAME>
N,N-dimethyl-2-(2-phenyl-1H-indol-3-yl)ethanamine

> <PUBCHEM_IUPAC_NAME_MARKUP>
<I>N</I>,<I>N</I>-dimethyl-2-(2-phenyl-1<I>H</I>-indol-3-yl)ethanamine

> <PUBCHEM_IUPAC_NAME>
N,N-dimethyl-2-(2-phenyl-1H-indol-3-yl)ethanamine

> <PUBCHEM_IUPAC_SYSTEMATIC_NAME>
N,N-dimethyl-2-(2-phenyl-1H-indol-3-yl)ethanamine

> <PUBCHEM_IUPAC_TRADITIONAL_NAME>
dimethyl-[2-(2-phenyl-1H-indol-3-yl)ethyl]amine

> <PUBCHEM_IUPAC_INCHI>
InChI=1S/C18H20N2/c1-20(2)13-12-16-15-10-6-7-11-17(15)19-18(16)14-8-4-3-5-9-14/h3-11,19H,12-13H2,1-2H3

> <PUBCHEM_IUPAC_INCHIKEY>
OCWQYTKVXQUMNM-UHFFFAOYSA-N

> <PUBCHEM_XLOGP3_AA>
4

> <PUBCHEM_EXACT_MASS>
264.162648646

> <PUBCHEM_MOLECULAR_FORMULA>
C18H20N2

> <PUBCHEM_MOLECULAR_WEIGHT>
264.4

> <PUBCHEM_OPENEYE_CAN_SMILES>
CN(C)CCC1=C(NC2=CC=CC=C21)C3=CC=CC=C3

> <PUBCHEM_OPENEYE_ISO_SMILES>
CN(C)CCC1=C(NC2=CC=CC=C21)C3=CC=CC=C3

> <PUBCHEM_CACTVS_TPSA>
19

> <PUBCHEM_MONOISOTOPIC_WEIGHT>
264.162648646

> <PUBCHEM_TOTAL_CHARGE>
0

> <PUBCHEM_HEAVY_ATOM_COUNT>
20

> <PUBCHEM_ATOM_DEF_STEREO_COUNT>
0

> <PUBCHEM_ATOM_UDEF_STEREO_COUNT>
0

> <PUBCHEM_BOND_DEF_STEREO_COUNT>
0

> <PUBCHEM_BOND_UDEF_STEREO_COUNT>
0

> <PUBCHEM_ISOTOPIC_ATOM_COUNT>
0

> <PUBCHEM_COMPONENT_COUNT>
1

> <PUBCHEM_CACTVS_TAUTO_COUNT>
-1

> <PUBCHEM_COORDINATE_TYPE>
1
5
255

> <PUBCHEM_BONDANNOTATIONS>
1  6  8
1  7  8
10  12  8
11  13  8
12  13  8
14  18  8
15  19  8
18  20  8
19  20  8
3  5  8
3  6  8
5  10  8
5  7  8
7  11  8
9  14  8
9  15  8

$$$$
