45260643
  -OEChem-09292322192D

 41 42  0     0  0  0  0  0  0999 V2000
    4.2234    0.0000    0.0000 Cl  0  0  0  0  0  0  0  0  0  0  0  0
    5.3978    3.1676    0.0000 O   0  0  0  0  0  0  0  0  0  0  0  0
    5.0888    5.7367    0.0000 O   0  0  0  0  0  0  0  0  0  0  0  0
    2.8100    3.9766    0.0000 N   0  0  0  0  0  0  0  0  0  0  0  0
    4.8100    3.9766    0.0000 C   0  0  0  0  0  0  0  0  0  0  0  0
    4.3100    4.8426    0.0000 C   0  0  0  0  0  0  0  0  0  0  0  0
    4.3100    3.1106    0.0000 C   0  0  0  0  0  0  0  0  0  0  0  0
    3.3100    4.8426    0.0000 C   0  0  0  0  0  0  0  0  0  0  0  0
    3.3100    3.1106    0.0000 C   0  0  0  0  0  0  0  0  0  0  0  0
    5.3978    4.7856    0.0000 C   0  0  0  0  0  0  0  0  0  0  0  0
    6.3488    4.4766    0.0000 C   0  0  0  0  0  0  0  0  0  0  0  0
    1.8100    3.9766    0.0000 C   0  0  0  0  0  0  0  0  0  0  0  0
    6.3488    3.4766    0.0000 C   0  0  0  0  0  0  0  0  0  0  0  0
    7.1579    5.0644    0.0000 C   0  0  0  0  0  0  0  0  0  0  0  0
    1.3100    3.1106    0.0000 C   0  0  0  0  0  0  0  0  0  0  0  0
    7.0533    6.0589    0.0000 C   0  0  0  0  0  0  0  0  0  0  0  0
    8.0714    4.6576    0.0000 C   0  0  0  0  0  0  0  0  0  0  0  0
    0.3100    3.1106    0.0000 C   0  0  0  0  0  0  0  0  0  0  0  0
    7.8624    6.6467    0.0000 C   0  0  0  0  0  0  0  0  0  0  0  0
    8.8804    5.2454    0.0000 C   0  0  0  0  0  0  0  0  0  0  0  0
    8.7759    6.2400    0.0000 C   0  0  0  0  0  0  0  0  0  0  0  0
    4.8926    5.0547    0.0000 H   0  0  0  0  0  0  0  0  0  0  0  0
    4.2023    5.4532    0.0000 H   0  0  0  0  0  0  0  0  0  0  0  0
    4.2023    2.5000    0.0000 H   0  0  0  0  0  0  0  0  0  0  0  0
    4.8926    2.8985    0.0000 H   0  0  0  0  0  0  0  0  0  0  0  0
    3.4177    5.4532    0.0000 H   0  0  0  0  0  0  0  0  0  0  0  0
    2.7274    5.0547    0.0000 H   0  0  0  0  0  0  0  0  0  0  0  0
    2.7274    2.8985    0.0000 H   0  0  0  0  0  0  0  0  0  0  0  0
    3.4177    2.5000    0.0000 H   0  0  0  0  0  0  0  0  0  0  0  0
    1.9177    4.5872    0.0000 H   0  0  0  0  0  0  0  0  0  0  0  0
    1.2274    4.1887    0.0000 H   0  0  0  0  0  0  0  0  0  0  0  0
    6.8504    3.1122    0.0000 H   0  0  0  0  0  0  0  0  0  0  0  0
    1.6200    2.5737    0.0000 H   0  0  0  0  0  0  0  0  0  0  0  0
    6.4869    6.3111    0.0000 H   0  0  0  0  0  0  0  0  0  0  0  0
    8.1362    4.0410    0.0000 H   0  0  0  0  0  0  0  0  0  0  0  0
    0.0000    3.6475    0.0000 H   0  0  0  0  0  0  0  0  0  0  0  0
    0.0000    2.5737    0.0000 H   0  0  0  0  0  0  0  0  0  0  0  0
    7.7975    7.2633    0.0000 H   0  0  0  0  0  0  0  0  0  0  0  0
    9.4468    4.9933    0.0000 H   0  0  0  0  0  0  0  0  0  0  0  0
    9.2775    6.6044    0.0000 H   0  0  0  0  0  0  0  0  0  0  0  0
    5.2234    0.0000    0.0000 H   0  0  0  0  0  0  0  0  0  0  0  0
  1 41  1  0  0  0  0
  2  5  1  0  0  0  0
  2 13  1  0  0  0  0
  3 10  2  0  0  0  0
  4  8  1  0  0  0  0
  4  9  1  0  0  0  0
  4 12  1  0  0  0  0
  5  6  1  0  0  0  0
  5  7  1  0  0  0  0
  5 10  1  0  0  0  0
  6  8  1  0  0  0  0
  6 22  1  0  0  0  0
  6 23  1  0  0  0  0
  7  9  1  0  0  0  0
  7 24  1  0  0  0  0
  7 25  1  0  0  0  0
  8 26  1  0  0  0  0
  8 27  1  0  0  0  0
  9 28  1  0  0  0  0
  9 29  1  0  0  0  0
 10 11  1  0  0  0  0
 11 13  2  0  0  0  0
 11 14  1  0  0  0  0
 12 15  1  0  0  0  0
 12 30  1  0  0  0  0
 12 31  1  0  0  0  0
 13 32  1  0  0  0  0
 14 16  2  0  0  0  0
 14 17  1  0  0  0  0
 15 18  2  0  0  0  0
 15 33  1  0  0  0  0
 16 19  1  0  0  0  0
 16 34  1  0  0  0  0
 17 20  2  0  0  0  0
 17 35  1  0  0  0  0
 18 36  1  0  0  0  0
 18 37  1  0  0  0  0
 19 21  2  0  0  0  0
 19 38  1  0  0  0  0
 20 21  1  0  0  0  0
 20 39  1  0  0  0  0
 21 40  1  0  0  0  0
M  END
> <PUBCHEM_COMPOUND_CID>
45260643

> <PUBCHEM_COMPOUND_CANONICALIZED>
1

> <PUBCHEM_CACTVS_COMPLEXITY>
413

> <PUBCHEM_CACTVS_HBOND_ACCEPTOR>
3

> <PUBCHEM_CACTVS_HBOND_DONOR>
1

> <PUBCHEM_CACTVS_ROTATABLE_BOND>
3

> <PUBCHEM_CACTVS_SUBSKEYS>
AAADceB6MAAEAAAAAAAAAAAAAAAAAQAAAAA8QAAAAAAAAAABAAAAHgAAAAAADEThmAYwAIMABACIAqBSAAKCCAAgIAAIiAFIAMgIIDKAlRSEIAAmwACIiIecyOCOAAAAAAAAAAAAAAAAAAAAAAAAAAAAAA==

> <PUBCHEM_IUPAC_OPENEYE_NAME>
8-allyl-3-phenyl-1-oxa-8-azaspiro[4.5]dec-2-en-4-one;hydrochloride

> <PUBCHEM_IUPAC_CAS_NAME>
3-phenyl-8-prop-2-enyl-1-oxa-8-azaspiro[4.5]dec-2-en-4-one;hydrochloride

> <PUBCHEM_IUPAC_NAME_MARKUP>
3-phenyl-8-prop-2-enyl-1-oxa-8-azaspiro[4.5]dec-2-en-4-one;hydrochloride

> <PUBCHEM_IUPAC_NAME>
3-phenyl-8-prop-2-enyl-1-oxa-8-azaspiro[4.5]dec-2-en-4-one;hydrochloride

> <PUBCHEM_IUPAC_SYSTEMATIC_NAME>
3-phenyl-8-prop-2-enyl-1-oxa-8-azaspiro[4.5]dec-2-en-4-one;hydrochloride

> <PUBCHEM_IUPAC_TRADITIONAL_NAME>
8-allyl-3-phenyl-1-oxa-8-azaspiro[4.5]dec-2-en-4-one;hydrochloride

> <PUBCHEM_IUPAC_INCHI>
InChI=1S/C17H19NO2.ClH/c1-2-10-18-11-8-17(9-12-18)16(19)15(13-20-17)14-6-4-3-5-7-14;/h2-7,13H,1,8-12H2;1H

> <PUBCHEM_IUPAC_INCHIKEY>
LVJZZOZFAFOKHS-UHFFFAOYSA-N

> <PUBCHEM_EXACT_MASS>
305.1182566

> <PUBCHEM_MOLECULAR_FORMULA>
C17H20ClNO2

> <PUBCHEM_MOLECULAR_WEIGHT>
305.8

> <PUBCHEM_OPENEYE_CAN_SMILES>
C=CCN1CCC2(CC1)C(=O)C(=CO2)C3=CC=CC=C3.Cl

> <PUBCHEM_OPENEYE_ISO_SMILES>
C=CCN1CCC2(CC1)C(=O)C(=CO2)C3=CC=CC=C3.Cl

> <PUBCHEM_CACTVS_TPSA>
29.5

> <PUBCHEM_MONOISOTOPIC_WEIGHT>
305.1182566

> <PUBCHEM_TOTAL_CHARGE>
0

> <PUBCHEM_HEAVY_ATOM_COUNT>
21

> <PUBCHEM_ATOM_DEF_STEREO_COUNT>
0

> <PUBCHEM_ATOM_UDEF_STEREO_COUNT>
0

> <PUBCHEM_BOND_DEF_STEREO_COUNT>
0

> <PUBCHEM_BOND_UDEF_STEREO_COUNT>
0

> <PUBCHEM_ISOTOPIC_ATOM_COUNT>
0

> <PUBCHEM_COMPONENT_COUNT>
2

> <PUBCHEM_CACTVS_TAUTO_COUNT>
-1

> <PUBCHEM_COORDINATE_TYPE>
1
5
255

> <PUBCHEM_BONDANNOTATIONS>
14  16  8
14  17  8
16  19  8
17  20  8
19  21  8
20  21  8

$$$$
