53322638
  -OEChem-09292322042D

 62 66  0     1  0  0  0  0  0999 V2000
    5.5301   -1.2326    0.0000 S   0  0  0  0  0  0  0  0  0  0  0  0
    5.5301    2.7674    0.0000 O   0  0  0  0  0  0  0  0  0  0  0  0
    6.5301   -1.2326    0.0000 O   0  0  0  0  0  0  0  0  0  0  0  0
    4.5301   -1.2326    0.0000 O   0  0  0  0  0  0  0  0  0  0  0  0
    5.5301   -0.2326    0.0000 N   0  0  3  0  0  0  0  0  0  0  0  0
    3.7817    2.8020    0.0000 N   0  0  0  0  0  0  0  0  0  0  0  0
    3.8048    4.8019    0.0000 N   0  0  0  0  0  0  0  0  0  0  0  0
    6.3961    0.2674    0.0000 C   0  0  3  0  0  0  0  0  0  0  0  0
    4.6641    1.2674    0.0000 C   0  0  0  0  0  0  0  0  0  0  0  0
    4.6641    0.2674    0.0000 C   0  0  0  0  0  0  0  0  0  0  0  0
    3.7702    1.8021    0.0000 C   0  0  0  0  0  0  0  0  0  0  0  0
    6.3961    1.2674    0.0000 C   0  0  0  0  0  0  0  0  0  0  0  0
    2.9215    3.3120    0.0000 C   0  0  0  0  0  0  0  0  0  0  0  0
    4.6535    3.2920    0.0000 C   0  0  0  0  0  0  0  0  0  0  0  0
    5.5301    1.7674    0.0000 C   0  0  0  0  0  0  0  0  0  0  0  0
    2.9331    4.3119    0.0000 C   0  0  0  0  0  0  0  0  0  0  0  0
    4.6650    4.2919    0.0000 C   0  0  0  0  0  0  0  0  0  0  0  0
    3.7702   -0.2672    0.0000 C   0  0  0  0  0  0  0  0  0  0  0  0
    7.2622   -0.2326    0.0000 C   0  0  0  0  0  0  0  0  0  0  0  0
    2.8641    1.2882    0.0000 C   0  0  0  0  0  0  0  0  0  0  0  0
    2.8641    0.2466    0.0000 C   0  0  0  0  0  0  0  0  0  0  0  0
    5.5301   -2.2326    0.0000 C   0  0  0  0  0  0  0  0  0  0  0  0
    3.8164    5.8018    0.0000 C   0  0  0  0  0  0  0  0  0  0  0  0
    2.0000   -0.2567    0.0000 C   0  0  0  0  0  0  0  0  0  0  0  0
    6.3961   -2.7326    0.0000 C   0  0  0  0  0  0  0  0  0  0  0  0
    4.6641   -2.7326    0.0000 C   0  0  0  0  0  0  0  0  0  0  0  0
    6.3961   -3.7326    0.0000 C   0  0  0  0  0  0  0  0  0  0  0  0
    5.5301   -4.2326    0.0000 C   0  0  0  0  0  0  0  0  0  0  0  0
    4.6641   -3.7326    0.0000 C   0  0  0  0  0  0  0  0  0  0  0  0
    7.3062   -4.2394    0.0000 C   0  0  0  0  0  0  0  0  0  0  0  0
    5.5141   -5.2741    0.0000 C   0  0  0  0  0  0  0  0  0  0  0  0
    7.3142   -5.2810    0.0000 C   0  0  0  0  0  0  0  0  0  0  0  0
    6.4121   -5.8018    0.0000 C   0  0  0  0  0  0  0  0  0  0  0  0
    6.3961   -0.3526    0.0000 H   0  0  0  0  0  0  0  0  0  0  0  0
    7.0067    1.1598    0.0000 H   0  0  0  0  0  0  0  0  0  0  0  0
    6.6082    1.8500    0.0000 H   0  0  0  0  0  0  0  0  0  0  0  0
    2.3122    3.4267    0.0000 H   0  0  0  0  0  0  0  0  0  0  0  0
    2.7028    2.7319    0.0000 H   0  0  0  0  0  0  0  0  0  0  0  0
    4.8588    2.7070    0.0000 H   0  0  0  0  0  0  0  0  0  0  0  0
    5.2653    3.3926    0.0000 H   0  0  0  0  0  0  0  0  0  0  0  0
    2.7278    4.8970    0.0000 H   0  0  0  0  0  0  0  0  0  0  0  0
    2.3213    4.2114    0.0000 H   0  0  0  0  0  0  0  0  0  0  0  0
    5.2743    4.1772    0.0000 H   0  0  0  0  0  0  0  0  0  0  0  0
    4.8838    4.8720    0.0000 H   0  0  0  0  0  0  0  0  0  0  0  0
    3.7773   -0.8872    0.0000 H   0  0  0  0  0  0  0  0  0  0  0  0
    6.9522   -0.7695    0.0000 H   0  0  0  0  0  0  0  0  0  0  0  0
    7.7991   -0.5426    0.0000 H   0  0  0  0  0  0  0  0  0  0  0  0
    7.5722    0.3044    0.0000 H   0  0  0  0  0  0  0  0  0  0  0  0
    2.3284    1.6003    0.0000 H   0  0  0  0  0  0  0  0  0  0  0  0
    4.4364    5.7947    0.0000 H   0  0  0  0  0  0  0  0  0  0  0  0
    3.8236    6.4218    0.0000 H   0  0  0  0  0  0  0  0  0  0  0  0
    3.1964    5.8090    0.0000 H   0  0  0  0  0  0  0  0  0  0  0  0
    1.6879    0.2790    0.0000 H   0  0  0  0  0  0  0  0  0  0  0  0
    1.4643   -0.5688    0.0000 H   0  0  0  0  0  0  0  0  0  0  0  0
    2.3121   -0.7925    0.0000 H   0  0  0  0  0  0  0  0  0  0  0  0
    6.9331   -2.4226    0.0000 H   0  0  0  0  0  0  0  0  0  0  0  0
    4.1272   -2.4226    0.0000 H   0  0  0  0  0  0  0  0  0  0  0  0
    4.1272   -4.0426    0.0000 H   0  0  0  0  0  0  0  0  0  0  0  0
    7.8395   -3.9232    0.0000 H   0  0  0  0  0  0  0  0  0  0  0  0
    4.9736   -5.5778    0.0000 H   0  0  0  0  0  0  0  0  0  0  0  0
    7.8523   -5.5889    0.0000 H   0  0  0  0  0  0  0  0  0  0  0  0
    6.4097   -6.4218    0.0000 H   0  0  0  0  0  0  0  0  0  0  0  0
  1  3  2  0  0  0  0
  1  4  2  0  0  0  0
  1  5  1  0  0  0  0
  1 22  1  0  0  0  0
  2 15  2  0  0  0  0
  5  8  1  0  0  0  0
  5 10  1  0  0  0  0
  6 11  1  0  0  0  0
  6 13  1  0  0  0  0
  6 14  1  0  0  0  0
  7 16  1  0  0  0  0
  7 17  1  0  0  0  0
  7 23  1  0  0  0  0
  8 12  1  0  0  0  0
  8 19  1  0  0  0  0
  8 34  1  0  0  0  0
  9 10  1  0  0  0  0
  9 11  2  0  0  0  0
  9 15  1  0  0  0  0
 10 18  2  0  0  0  0
 11 20  1  0  0  0  0
 12 15  1  0  0  0  0
 12 35  1  0  0  0  0
 12 36  1  0  0  0  0
 13 16  1  0  0  0  0
 13 37  1  0  0  0  0
 13 38  1  0  0  0  0
 14 17  1  0  0  0  0
 14 39  1  0  0  0  0
 14 40  1  0  0  0  0
 16 41  1  0  0  0  0
 16 42  1  0  0  0  0
 17 43  1  0  0  0  0
 17 44  1  0  0  0  0
 18 21  1  0  0  0  0
 18 45  1  0  0  0  0
 19 46  1  0  0  0  0
 19 47  1  0  0  0  0
 19 48  1  0  0  0  0
 20 21  2  0  0  0  0
 20 49  1  0  0  0  0
 21 24  1  0  0  0  0
 22 25  2  0  0  0  0
 22 26  1  0  0  0  0
 23 50  1  0  0  0  0
 23 51  1  0  0  0  0
 23 52  1  0  0  0  0
 24 53  1  0  0  0  0
 24 54  1  0  0  0  0
 24 55  1  0  0  0  0
 25 27  1  0  0  0  0
 25 56  1  0  0  0  0
 26 29  2  0  0  0  0
 26 57  1  0  0  0  0
 27 28  1  0  0  0  0
 27 30  2  0  0  0  0
 28 29  1  0  0  0  0
 28 31  2  0  0  0  0
 29 58  1  0  0  0  0
 30 32  1  0  0  0  0
 30 59  1  0  0  0  0
 31 33  1  0  0  0  0
 31 60  1  0  0  0  0
 32 33  2  0  0  0  0
 32 61  1  0  0  0  0
 33 62  1  0  0  0  0
M  END
> <PUBCHEM_COMPOUND_CID>
53322638

> <PUBCHEM_COMPOUND_CANONICALIZED>
1

> <PUBCHEM_CACTVS_COMPLEXITY>
819

> <PUBCHEM_CACTVS_HBOND_ACCEPTOR>
6

> <PUBCHEM_CACTVS_HBOND_DONOR>
0

> <PUBCHEM_CACTVS_ROTATABLE_BOND>
3

> <PUBCHEM_CACTVS_SUBSKEYS>
AAADceB7MABAAAAAAAAAAAAAAAAAAAAAAAA8eMECAAAAAADxVAAAHgQAQAAADCzB2AQywcMAAAKIAqRSQHDCABAlAgAIiBkIZMgIYDrA1dGUIYhggADIyUcYiMCO0AAAwAQSAACgAAGACCQAAAAAAAAAAA==

> <PUBCHEM_IUPAC_OPENEYE_NAME>
2,7-dimethyl-5-(4-methylpiperazin-1-yl)-1-(2-naphthylsulfonyl)-2,3-dihydroquinolin-4-one

> <PUBCHEM_IUPAC_CAS_NAME>
2,7-dimethyl-5-(4-methyl-1-piperazinyl)-1-(2-naphthalenylsulfonyl)-2,3-dihydroquinolin-4-one

> <PUBCHEM_IUPAC_NAME_MARKUP>
2,7-dimethyl-5-(4-methylpiperazin-1-yl)-1-naphthalen-2-ylsulfonyl-2,3-dihydroquinolin-4-one

> <PUBCHEM_IUPAC_NAME>
2,7-dimethyl-5-(4-methylpiperazin-1-yl)-1-naphthalen-2-ylsulfonyl-2,3-dihydroquinolin-4-one

> <PUBCHEM_IUPAC_SYSTEMATIC_NAME>
2,7-dimethyl-5-(4-methylpiperazin-1-yl)-1-naphthalen-2-ylsulfonyl-2,3-dihydroquinolin-4-one

> <PUBCHEM_IUPAC_TRADITIONAL_NAME>
2,7-dimethyl-5-(4-methylpiperazino)-1-(2-naphthylsulfonyl)-2,3-dihydroquinolin-4-one

> <PUBCHEM_IUPAC_INCHI>
InChI=1S/C26H29N3O3S/c1-18-14-23(28-12-10-27(3)11-13-28)26-24(15-18)29(19(2)16-25(26)30)33(31,32)22-9-8-20-6-4-5-7-21(20)17-22/h4-9,14-15,17,19H,10-13,16H2,1-3H3

> <PUBCHEM_IUPAC_INCHIKEY>
NFWRARMIHODAKJ-UHFFFAOYSA-N

> <PUBCHEM_XLOGP3_AA>
4.1

> <PUBCHEM_EXACT_MASS>
463.19296297

> <PUBCHEM_MOLECULAR_FORMULA>
C26H29N3O3S

> <PUBCHEM_MOLECULAR_WEIGHT>
463.6

> <PUBCHEM_OPENEYE_CAN_SMILES>
CC1CC(=O)C2=C(C=C(C=C2N1S(=O)(=O)C3=CC4=CC=CC=C4C=C3)C)N5CCN(CC5)C

> <PUBCHEM_OPENEYE_ISO_SMILES>
CC1CC(=O)C2=C(C=C(C=C2N1S(=O)(=O)C3=CC4=CC=CC=C4C=C3)C)N5CCN(CC5)C

> <PUBCHEM_CACTVS_TPSA>
69.3

> <PUBCHEM_MONOISOTOPIC_WEIGHT>
463.19296297

> <PUBCHEM_TOTAL_CHARGE>
0

> <PUBCHEM_HEAVY_ATOM_COUNT>
33

> <PUBCHEM_ATOM_DEF_STEREO_COUNT>
0

> <PUBCHEM_ATOM_UDEF_STEREO_COUNT>
1

> <PUBCHEM_BOND_DEF_STEREO_COUNT>
0

> <PUBCHEM_BOND_UDEF_STEREO_COUNT>
0

> <PUBCHEM_ISOTOPIC_ATOM_COUNT>
0

> <PUBCHEM_COMPONENT_COUNT>
1

> <PUBCHEM_CACTVS_TAUTO_COUNT>
-1

> <PUBCHEM_COORDINATE_TYPE>
1
5
255

> <PUBCHEM_BONDANNOTATIONS>
10  18  8
11  20  8
18  21  8
20  21  8
22  25  8
22  26  8
25  27  8
26  29  8
27  28  8
27  30  8
28  29  8
28  31  8
30  32  8
31  33  8
32  33  8
8  19  3
9  10  8
9  11  8

$$$$
