49799708
  -OEChem-09292322302D

 60 62  0     0  0  0  0  0  0999 V2000
    9.7677    6.6653    0.0000 Br  0  0  0  0  0  0  0  0  0  0  0  0
    0.0000    5.6200    0.0000 F   0  0  0  0  0  0  0  0  0  0  0  0
    7.7410    3.6832    0.0000 O   0  0  0  0  0  0  0  0  0  0  0  0
    1.7320    3.6200    0.0000 O   0  0  0  0  0  0  0  0  0  0  0  0
    6.2085    9.9135    0.0000 O   0  0  0  0  0  0  0  0  0  0  0  0
    3.6104   10.4135    0.0000 O   0  0  0  0  0  0  0  0  0  0  0  0
    5.3425   11.4135    0.0000 O   0  0  0  0  0  0  0  0  0  0  0  0
    4.4764    8.9135    0.0000 O   0  0  0  0  0  0  0  0  0  0  0  0
    4.8335    3.5815    0.0000 N   0  0  0  0  0  0  0  0  0  0  0  0
    3.5443    0.8153    0.0000 N   0  0  0  0  0  0  0  0  0  0  0  0
    6.7905    3.9939    0.0000 C   0  0  0  0  0  0  0  0  0  0  0  0
    6.1226    4.7382    0.0000 C   0  0  0  0  0  0  0  0  0  0  0  0
    6.4798    3.0434    0.0000 C   0  0  0  0  0  0  0  0  0  0  0  0
    5.1441    4.5320    0.0000 C   0  0  0  0  0  0  0  0  0  0  0  0
    5.5013    2.8372    0.0000 C   0  0  0  0  0  0  0  0  0  0  0  0
    3.8550    3.3752    0.0000 C   0  0  0  0  0  0  0  0  0  0  0  0
    7.5348    4.6617    0.0000 C   0  0  0  0  0  0  0  0  0  0  0  0
    3.5443    2.4247    0.0000 C   0  0  0  0  0  0  0  0  0  0  0  0
    7.3286    5.6403    0.0000 C   0  0  0  0  0  0  0  0  0  0  0  0
    8.4853    4.3511    0.0000 C   0  0  0  0  0  0  0  0  0  0  0  0
    2.5981    2.1200    0.0000 C   0  0  0  0  0  0  0  0  0  0  0  0
    4.1279    1.6200    0.0000 C   0  0  0  0  0  0  0  0  0  0  0  0
    2.5981    1.1200    0.0000 C   0  0  0  0  0  0  0  0  0  0  0  0
    8.0729    6.3081    0.0000 C   0  0  0  0  0  0  0  0  0  0  0  0
    9.2296    5.0189    0.0000 C   0  0  0  0  0  0  0  0  0  0  0  0
    1.7320    2.6200    0.0000 C   0  0  0  0  0  0  0  0  0  0  0  0
    9.0234    5.9974    0.0000 C   0  0  0  0  0  0  0  0  0  0  0  0
    1.7320    0.6200    0.0000 C   0  0  0  0  0  0  0  0  0  0  0  0
    0.8660    2.1200    0.0000 C   0  0  0  0  0  0  0  0  0  0  0  0
    0.8660    1.1200    0.0000 C   0  0  0  0  0  0  0  0  0  0  0  0
    0.8660    4.1200    0.0000 C   0  0  0  0  0  0  0  0  0  0  0  0
    0.8660    5.1200    0.0000 C   0  0  0  0  0  0  0  0  0  0  0  0
    5.3425   10.4135    0.0000 C   0  0  0  0  0  0  0  0  0  0  0  0
    4.4764    9.9135    0.0000 C   0  0  0  0  0  0  0  0  0  0  0  0
    6.6490    5.0658    0.0000 H   0  0  0  0  0  0  0  0  0  0  0  0
    5.8914    5.3135    0.0000 H   0  0  0  0  0  0  0  0  0  0  0  0
    6.5004    2.4237    0.0000 H   0  0  0  0  0  0  0  0  0  0  0  0
    7.0936    2.9560    0.0000 H   0  0  0  0  0  0  0  0  0  0  0  0
    5.1236    5.1516    0.0000 H   0  0  0  0  0  0  0  0  0  0  0  0
    4.5303    4.6193    0.0000 H   0  0  0  0  0  0  0  0  0  0  0  0
    4.9750    2.5095    0.0000 H   0  0  0  0  0  0  0  0  0  0  0  0
    5.7326    2.2619    0.0000 H   0  0  0  0  0  0  0  0  0  0  0  0
    3.8344    3.9949    0.0000 H   0  0  0  0  0  0  0  0  0  0  0  0
    3.2411    3.4626    0.0000 H   0  0  0  0  0  0  0  0  0  0  0  0
    7.8688    3.0766    0.0000 H   0  0  0  0  0  0  0  0  0  0  0  0
    6.7392    5.8329    0.0000 H   0  0  0  0  0  0  0  0  0  0  0  0
    8.6131    3.7444    0.0000 H   0  0  0  0  0  0  0  0  0  0  0  0
    4.7479    1.6200    0.0000 H   0  0  0  0  0  0  0  0  0  0  0  0
    3.7369    0.2259    0.0000 H   0  0  0  0  0  0  0  0  0  0  0  0
    7.9450    6.9148    0.0000 H   0  0  0  0  0  0  0  0  0  0  0  0
    9.8189    4.8263    0.0000 H   0  0  0  0  0  0  0  0  0  0  0  0
    1.7320    0.0000    0.0000 H   0  0  0  0  0  0  0  0  0  0  0  0
    0.3291    2.4300    0.0000 H   0  0  0  0  0  0  0  0  0  0  0  0
    0.3291    0.8100    0.0000 H   0  0  0  0  0  0  0  0  0  0  0  0
    0.2554    4.2277    0.0000 H   0  0  0  0  0  0  0  0  0  0  0  0
    0.6540    3.5374    0.0000 H   0  0  0  0  0  0  0  0  0  0  0  0
    1.4766    5.0123    0.0000 H   0  0  0  0  0  0  0  0  0  0  0  0
    1.0781    5.7026    0.0000 H   0  0  0  0  0  0  0  0  0  0  0  0
    6.7454   10.2235    0.0000 H   0  0  0  0  0  0  0  0  0  0  0  0
    3.0735   10.1035    0.0000 H   0  0  0  0  0  0  0  0  0  0  0  0
  1 27  1  0  0  0  0
  2 32  1  0  0  0  0
  3 11  1  0  0  0  0
  3 45  1  0  0  0  0
  4 26  1  0  0  0  0
  4 31  1  0  0  0  0
  5 33  1  0  0  0  0
  5 59  1  0  0  0  0
  6 34  1  0  0  0  0
  6 60  1  0  0  0  0
  7 33  2  0  0  0  0
  8 34  2  0  0  0  0
  9 14  1  0  0  0  0
  9 15  1  0  0  0  0
  9 16  1  0  0  0  0
 10 22  1  0  0  0  0
 10 23  1  0  0  0  0
 10 49  1  0  0  0  0
 11 12  1  0  0  0  0
 11 13  1  0  0  0  0
 11 17  1  0  0  0  0
 12 14  1  0  0  0  0
 12 35  1  0  0  0  0
 12 36  1  0  0  0  0
 13 15  1  0  0  0  0
 13 37  1  0  0  0  0
 13 38  1  0  0  0  0
 14 39  1  0  0  0  0
 14 40  1  0  0  0  0
 15 41  1  0  0  0  0
 15 42  1  0  0  0  0
 16 18  1  0  0  0  0
 16 43  1  0  0  0  0
 16 44  1  0  0  0  0
 17 19  2  0  0  0  0
 17 20  1  0  0  0  0
 18 21  1  0  0  0  0
 18 22  2  0  0  0  0
 19 24  1  0  0  0  0
 19 46  1  0  0  0  0
 20 25  2  0  0  0  0
 20 47  1  0  0  0  0
 21 23  2  0  0  0  0
 21 26  1  0  0  0  0
 22 48  1  0  0  0  0
 23 28  1  0  0  0  0
 24 27  2  0  0  0  0
 24 50  1  0  0  0  0
 25 27  1  0  0  0  0
 25 51  1  0  0  0  0
 26 29  2  0  0  0  0
 28 30  2  0  0  0  0
 28 52  1  0  0  0  0
 29 30  1  0  0  0  0
 29 53  1  0  0  0  0
 30 54  1  0  0  0  0
 31 32  1  0  0  0  0
 31 55  1  0  0  0  0
 31 56  1  0  0  0  0
 32 57  1  0  0  0  0
 32 58  1  0  0  0  0
 33 34  1  0  0  0  0
M  END
> <PUBCHEM_COMPOUND_CID>
49799708

> <PUBCHEM_COMPOUND_CANONICALIZED>
1

> <PUBCHEM_CACTVS_COMPLEXITY>
567

> <PUBCHEM_CACTVS_HBOND_ACCEPTOR>
8

> <PUBCHEM_CACTVS_HBOND_DONOR>
4

> <PUBCHEM_CACTVS_ROTATABLE_BOND>
7

> <PUBCHEM_CACTVS_SUBSKEYS>
AAADceB7OQAAEAAAAAAAAAAAAAAAAWAAAAA8YIAAAAAAAFgB9AAAHwBQCAABrEzhngY8zvPJlgCoAzT3TAKCiCAxIiQI2aB+bLgNJuLE8ZuGeCjm0BnJ+hew0OMOggAAAgAKAAAEAAAEABQAAAAAAAAAAA==

> <PUBCHEM_IUPAC_OPENEYE_NAME>
4-(4-bromophenyl)-1-[[4-(2-fluoroethoxy)-1H-indol-3-yl]methyl]piperidin-4-ol;oxalic acid

> <PUBCHEM_IUPAC_CAS_NAME>
4-(4-bromophenyl)-1-[[4-(2-fluoroethoxy)-1H-indol-3-yl]methyl]-4-piperidinol;oxalic acid

> <PUBCHEM_IUPAC_NAME_MARKUP>
4-(4-bromophenyl)-1-[[4-(2-fluoroethoxy)-1<I>H</I>-indol-3-yl]methyl]piperidin-4-ol;oxalic acid

> <PUBCHEM_IUPAC_NAME>
4-(4-bromophenyl)-1-[[4-(2-fluoroethoxy)-1H-indol-3-yl]methyl]piperidin-4-ol;oxalic acid

> <PUBCHEM_IUPAC_SYSTEMATIC_NAME>
4-(4-bromophenyl)-1-[[4-(2-fluoranylethoxy)-1H-indol-3-yl]methyl]piperidin-4-ol;ethanedioic acid

> <PUBCHEM_IUPAC_TRADITIONAL_NAME>
4-(4-bromophenyl)-1-[[4-(2-fluoroethoxy)-1H-indol-3-yl]methyl]piperidin-4-ol;oxalic acid

> <PUBCHEM_IUPAC_INCHI>
InChI=1S/C22H24BrFN2O2.C2H2O4/c23-18-6-4-17(5-7-18)22(27)8-11-26(12-9-22)15-16-14-25-19-2-1-3-20(21(16)19)28-13-10-24;3-1(4)2(5)6/h1-7,14,25,27H,8-13,15H2;(H,3,4)(H,5,6)

> <PUBCHEM_IUPAC_INCHIKEY>
PXUGVMBTUUMPQD-UHFFFAOYSA-N

> <PUBCHEM_EXACT_MASS>
536.09583

> <PUBCHEM_MOLECULAR_FORMULA>
C24H26BrFN2O6

> <PUBCHEM_MOLECULAR_WEIGHT>
537.4

> <PUBCHEM_OPENEYE_CAN_SMILES>
C1CN(CCC1(C2=CC=C(C=C2)Br)O)CC3=CNC4=C3C(=CC=C4)OCCF.C(=O)(C(=O)O)O

> <PUBCHEM_OPENEYE_ISO_SMILES>
C1CN(CCC1(C2=CC=C(C=C2)Br)O)CC3=CNC4=C3C(=CC=C4)OCCF.C(=O)(C(=O)O)O

> <PUBCHEM_CACTVS_TPSA>
123

> <PUBCHEM_MONOISOTOPIC_WEIGHT>
536.09583

> <PUBCHEM_TOTAL_CHARGE>
0

> <PUBCHEM_HEAVY_ATOM_COUNT>
34

> <PUBCHEM_ATOM_DEF_STEREO_COUNT>
0

> <PUBCHEM_ATOM_UDEF_STEREO_COUNT>
0

> <PUBCHEM_BOND_DEF_STEREO_COUNT>
0

> <PUBCHEM_BOND_UDEF_STEREO_COUNT>
0

> <PUBCHEM_ISOTOPIC_ATOM_COUNT>
0

> <PUBCHEM_COMPONENT_COUNT>
2

> <PUBCHEM_CACTVS_TAUTO_COUNT>
-1

> <PUBCHEM_COORDINATE_TYPE>
1
5
255

> <PUBCHEM_BONDANNOTATIONS>
10  22  8
10  23  8
17  19  8
17  20  8
18  21  8
18  22  8
19  24  8
20  25  8
21  23  8
21  26  8
23  28  8
24  27  8
25  27  8
26  29  8
28  30  8
29  30  8

$$$$
