9995378
  -OEChem-09292322222D

 44 47  0     0  0  0  0  0  0999 V2000
    5.3768    4.3556    0.0000 O   0  0  0  0  0  0  0  0  0  0  0  0
    4.5981   -1.9434    0.0000 N   0  0  0  0  0  0  0  0  0  0  0  0
    4.5981    1.0566    0.0000 N   0  0  0  0  0  0  0  0  0  0  0  0
    6.9949    4.3556    0.0000 N   0  0  0  0  0  0  0  0  0  0  0  0
    4.5981    0.0566    0.0000 C   0  0  0  0  0  0  0  0  0  0  0  0
    3.7320   -0.4434    0.0000 C   0  0  0  0  0  0  0  0  0  0  0  0
    5.4641   -0.4434    0.0000 C   0  0  0  0  0  0  0  0  0  0  0  0
    3.7320   -1.4434    0.0000 C   0  0  0  0  0  0  0  0  0  0  0  0
    5.4641   -1.4434    0.0000 C   0  0  0  0  0  0  0  0  0  0  0  0
    4.5981   -2.9434    0.0000 C   0  0  0  0  0  0  0  0  0  0  0  0
    5.4071    1.6444    0.0000 C   0  0  0  0  0  0  0  0  0  0  0  0
    3.7891    1.6444    0.0000 C   0  0  0  0  0  0  0  0  0  0  0  0
    3.7320   -3.4434    0.0000 C   0  0  0  0  0  0  0  0  0  0  0  0
    5.0981    2.5955    0.0000 C   0  0  0  0  0  0  0  0  0  0  0  0
    4.0981    2.5955    0.0000 C   0  0  0  0  0  0  0  0  0  0  0  0
    2.8660   -2.9434    0.0000 C   0  0  0  0  0  0  0  0  0  0  0  0
    3.7320   -4.4434    0.0000 C   0  0  0  0  0  0  0  0  0  0  0  0
    5.6859    3.4045    0.0000 C   0  0  0  0  0  0  0  0  0  0  0  0
    2.0000   -3.4434    0.0000 C   0  0  0  0  0  0  0  0  0  0  0  0
    2.8660   -4.9434    0.0000 C   0  0  0  0  0  0  0  0  0  0  0  0
    6.6859    3.4045    0.0000 C   0  0  0  0  0  0  0  0  0  0  0  0
    2.0000   -4.4434    0.0000 C   0  0  0  0  0  0  0  0  0  0  0  0
    6.1859    4.9434    0.0000 C   0  0  0  0  0  0  0  0  0  0  0  0
    5.1350    0.3666    0.0000 H   0  0  0  0  0  0  0  0  0  0  0  0
    3.5200    0.1393    0.0000 H   0  0  0  0  0  0  0  0  0  0  0  0
    3.1215   -0.5510    0.0000 H   0  0  0  0  0  0  0  0  0  0  0  0
    6.0747   -0.5510    0.0000 H   0  0  0  0  0  0  0  0  0  0  0  0
    5.6762    0.1393    0.0000 H   0  0  0  0  0  0  0  0  0  0  0  0
    3.1215   -1.3357    0.0000 H   0  0  0  0  0  0  0  0  0  0  0  0
    3.5200   -2.0260    0.0000 H   0  0  0  0  0  0  0  0  0  0  0  0
    5.6762   -2.0260    0.0000 H   0  0  0  0  0  0  0  0  0  0  0  0
    6.0747   -1.3357    0.0000 H   0  0  0  0  0  0  0  0  0  0  0  0
    4.8101   -3.5260    0.0000 H   0  0  0  0  0  0  0  0  0  0  0  0
    5.2087   -2.8357    0.0000 H   0  0  0  0  0  0  0  0  0  0  0  0
    5.9967    1.4528    0.0000 H   0  0  0  0  0  0  0  0  0  0  0  0
    3.1994    1.4528    0.0000 H   0  0  0  0  0  0  0  0  0  0  0  0
    3.7336    3.0971    0.0000 H   0  0  0  0  0  0  0  0  0  0  0  0
    2.8660   -2.3234    0.0000 H   0  0  0  0  0  0  0  0  0  0  0  0
    4.2690   -4.7534    0.0000 H   0  0  0  0  0  0  0  0  0  0  0  0
    1.4631   -3.1334    0.0000 H   0  0  0  0  0  0  0  0  0  0  0  0
    2.8660   -5.5634    0.0000 H   0  0  0  0  0  0  0  0  0  0  0  0
    7.0503    2.9029    0.0000 H   0  0  0  0  0  0  0  0  0  0  0  0
    1.4631   -4.7534    0.0000 H   0  0  0  0  0  0  0  0  0  0  0  0
    6.1859    5.5634    0.0000 H   0  0  0  0  0  0  0  0  0  0  0  0
  1 18  1  0  0  0  0
  1 23  1  0  0  0  0
  2  8  1  0  0  0  0
  2  9  1  0  0  0  0
  2 10  1  0  0  0  0
  3  5  1  0  0  0  0
  3 11  1  0  0  0  0
  3 12  1  0  0  0  0
  4 21  1  0  0  0  0
  4 23  2  0  0  0  0
  5  6  1  0  0  0  0
  5  7  1  0  0  0  0
  5 24  1  0  0  0  0
  6  8  1  0  0  0  0
  6 25  1  0  0  0  0
  6 26  1  0  0  0  0
  7  9  1  0  0  0  0
  7 27  1  0  0  0  0
  7 28  1  0  0  0  0
  8 29  1  0  0  0  0
  8 30  1  0  0  0  0
  9 31  1  0  0  0  0
  9 32  1  0  0  0  0
 10 13  1  0  0  0  0
 10 33  1  0  0  0  0
 10 34  1  0  0  0  0
 11 14  2  0  0  0  0
 11 35  1  0  0  0  0
 12 15  2  0  0  0  0
 12 36  1  0  0  0  0
 13 16  2  0  0  0  0
 13 17  1  0  0  0  0
 14 15  1  0  0  0  0
 14 18  1  0  0  0  0
 15 37  1  0  0  0  0
 16 19  1  0  0  0  0
 16 38  1  0  0  0  0
 17 20  2  0  0  0  0
 17 39  1  0  0  0  0
 18 21  2  0  0  0  0
 19 22  2  0  0  0  0
 19 40  1  0  0  0  0
 20 22  1  0  0  0  0
 20 41  1  0  0  0  0
 21 42  1  0  0  0  0
 22 43  1  0  0  0  0
 23 44  1  0  0  0  0
M  END
> <PUBCHEM_COMPOUND_CID>
9995378

> <PUBCHEM_COMPOUND_CANONICALIZED>
1

> <PUBCHEM_CACTVS_COMPLEXITY>
364

> <PUBCHEM_CACTVS_HBOND_ACCEPTOR>
3

> <PUBCHEM_CACTVS_HBOND_DONOR>
0

> <PUBCHEM_CACTVS_ROTATABLE_BOND>
4

> <PUBCHEM_CACTVS_SUBSKEYS>
AAADceB7IAAAAAAAAAAAAAAAAAAAAWLAAAA8QAAAAAAAAAAB8AAAHgAAAAAADCzBmgY8hJMMFECoArB31ASCiCA/QiAI2CG7bNgOJvrA9bmNMYhmxgHY6cc0gAAOAAAAAAAAAAAAAAAAAAAAAAAAAAAAAA==

> <PUBCHEM_IUPAC_OPENEYE_NAME>
5-[1-(1-benzyl-4-piperidyl)pyrrol-3-yl]oxazole

> <PUBCHEM_IUPAC_CAS_NAME>
5-[1-[1-(phenylmethyl)-4-piperidinyl]-3-pyrrolyl]oxazole

> <PUBCHEM_IUPAC_NAME_MARKUP>
5-[1-(1-benzylpiperidin-4-yl)pyrrol-3-yl]-1,3-oxazole

> <PUBCHEM_IUPAC_NAME>
5-[1-(1-benzylpiperidin-4-yl)pyrrol-3-yl]-1,3-oxazole

> <PUBCHEM_IUPAC_SYSTEMATIC_NAME>
5-[1-[1-(phenylmethyl)piperidin-4-yl]pyrrol-3-yl]-1,3-oxazole

> <PUBCHEM_IUPAC_TRADITIONAL_NAME>
5-[1-(1-benzyl-4-piperidyl)pyrrol-3-yl]oxazole

> <PUBCHEM_IUPAC_INCHI>
InChI=1S/C19H21N3O/c1-2-4-16(5-3-1)13-21-9-7-18(8-10-21)22-11-6-17(14-22)19-12-20-15-23-19/h1-6,11-12,14-15,18H,7-10,13H2

> <PUBCHEM_IUPAC_INCHIKEY>
ASGPPKHUWWRTLM-UHFFFAOYSA-N

> <PUBCHEM_XLOGP3_AA>
2.7

> <PUBCHEM_EXACT_MASS>
307.168462302

> <PUBCHEM_MOLECULAR_FORMULA>
C19H21N3O

> <PUBCHEM_MOLECULAR_WEIGHT>
307.4

> <PUBCHEM_OPENEYE_CAN_SMILES>
C1CN(CCC1N2C=CC(=C2)C3=CN=CO3)CC4=CC=CC=C4

> <PUBCHEM_OPENEYE_ISO_SMILES>
C1CN(CCC1N2C=CC(=C2)C3=CN=CO3)CC4=CC=CC=C4

> <PUBCHEM_CACTVS_TPSA>
34.2

> <PUBCHEM_MONOISOTOPIC_WEIGHT>
307.168462302

> <PUBCHEM_TOTAL_CHARGE>
0

> <PUBCHEM_HEAVY_ATOM_COUNT>
23

> <PUBCHEM_ATOM_DEF_STEREO_COUNT>
0

> <PUBCHEM_ATOM_UDEF_STEREO_COUNT>
0

> <PUBCHEM_BOND_DEF_STEREO_COUNT>
0

> <PUBCHEM_BOND_UDEF_STEREO_COUNT>
0

> <PUBCHEM_ISOTOPIC_ATOM_COUNT>
0

> <PUBCHEM_COMPONENT_COUNT>
1

> <PUBCHEM_CACTVS_TAUTO_COUNT>
-1

> <PUBCHEM_COORDINATE_TYPE>
1
5
255

> <PUBCHEM_BONDANNOTATIONS>
1  18  8
1  23  8
11  14  8
12  15  8
13  16  8
13  17  8
14  15  8
16  19  8
17  20  8
18  21  8
19  22  8
20  22  8
3  11  8
3  12  8
4  21  8
4  23  8

$$$$
