24754538
  -OEChem-09292322262D

 67 70  0     1  0  0  0  0  0999 V2000
   15.0564    0.4585    0.0000 O   0  0  0  0  0  0  0  0  0  0  0  0
    9.7942    0.4827    0.0000 N   0  0  3  0  0  0  0  0  0  0  0  0
    6.3301    0.4827    0.0000 N   0  0  0  0  0  0  0  0  0  0  0  0
    4.5981   -0.5173    0.0000 N   0  0  0  0  0  0  0  0  0  0  0  0
   10.6603    0.9827    0.0000 C   0  0  3  0  0  0  0  0  0  0  0  0
   10.6603    1.9827    0.0000 C   0  0  0  0  0  0  0  0  0  0  0  0
   11.5263    0.4827    0.0000 C   0  0  0  0  0  0  0  0  0  0  0  0
    8.9282    0.9827    0.0000 C   0  0  0  0  0  0  0  0  0  0  0  0
   11.5263    2.4827    0.0000 C   0  0  0  0  0  0  0  0  0  0  0  0
   12.3923    0.9827    0.0000 C   0  0  0  0  0  0  0  0  0  0  0  0
    8.0622    0.4827    0.0000 C   0  0  0  0  0  0  0  0  0  0  0  0
    9.7942   -0.5173    0.0000 C   0  0  0  0  0  0  0  0  0  0  0  0
   12.3923    1.9827    0.0000 C   0  0  0  0  0  0  0  0  0  0  0  0
    7.1962    0.9827    0.0000 C   0  0  0  0  0  0  0  0  0  0  0  0
    5.4641    0.9827    0.0000 C   0  0  0  0  0  0  0  0  0  0  0  0
    6.3301   -0.5173    0.0000 C   0  0  0  0  0  0  0  0  0  0  0  0
    4.5981    0.4827    0.0000 C   0  0  0  0  0  0  0  0  0  0  0  0
    5.4641   -1.0173    0.0000 C   0  0  0  0  0  0  0  0  0  0  0  0
    8.9282   -1.0173    0.0000 C   0  0  0  0  0  0  0  0  0  0  0  0
   13.2862    0.4480    0.0000 C   0  0  0  0  0  0  0  0  0  0  0  0
   13.2862    2.5173    0.0000 C   0  0  0  0  0  0  0  0  0  0  0  0
   14.1923    0.9619    0.0000 C   0  0  0  0  0  0  0  0  0  0  0  0
    3.7320   -1.0173    0.0000 C   0  0  0  0  0  0  0  0  0  0  0  0
   14.1923    2.0035    0.0000 C   0  0  0  0  0  0  0  0  0  0  0  0
    8.9282   -2.0173    0.0000 C   0  0  0  0  0  0  0  0  0  0  0  0
    3.7320   -2.0173    0.0000 C   0  0  0  0  0  0  0  0  0  0  0  0
    2.8660   -0.5173    0.0000 C   0  0  0  0  0  0  0  0  0  0  0  0
    2.8660   -2.5173    0.0000 C   0  0  0  0  0  0  0  0  0  0  0  0
    2.0000   -1.0173    0.0000 C   0  0  0  0  0  0  0  0  0  0  0  0
    2.0000   -2.0173    0.0000 C   0  0  0  0  0  0  0  0  0  0  0  0
   10.6603    0.3627    0.0000 H   0  0  0  0  0  0  0  0  0  0  0  0
   10.4482    2.5653    0.0000 H   0  0  0  0  0  0  0  0  0  0  0  0
   10.0497    1.8750    0.0000 H   0  0  0  0  0  0  0  0  0  0  0  0
   11.1278    0.0077    0.0000 H   0  0  0  0  0  0  0  0  0  0  0  0
   11.9248    0.0077    0.0000 H   0  0  0  0  0  0  0  0  0  0  0  0
    9.3267    1.4576    0.0000 H   0  0  0  0  0  0  0  0  0  0  0  0
    8.5297    1.4576    0.0000 H   0  0  0  0  0  0  0  0  0  0  0  0
   11.9248    2.9576    0.0000 H   0  0  0  0  0  0  0  0  0  0  0  0
   11.1278    2.9576    0.0000 H   0  0  0  0  0  0  0  0  0  0  0  0
    7.6636    0.0077    0.0000 H   0  0  0  0  0  0  0  0  0  0  0  0
    8.4607    0.0077    0.0000 H   0  0  0  0  0  0  0  0  0  0  0  0
   10.0063   -1.0999    0.0000 H   0  0  0  0  0  0  0  0  0  0  0  0
   10.4048   -0.4097    0.0000 H   0  0  0  0  0  0  0  0  0  0  0  0
    7.5947    1.4576    0.0000 H   0  0  0  0  0  0  0  0  0  0  0  0
    6.7976    1.4576    0.0000 H   0  0  0  0  0  0  0  0  0  0  0  0
    5.8626    1.4576    0.0000 H   0  0  0  0  0  0  0  0  0  0  0  0
    5.0656    1.4576    0.0000 H   0  0  0  0  0  0  0  0  0  0  0  0
    6.5422   -1.0999    0.0000 H   0  0  0  0  0  0  0  0  0  0  0  0
    6.9407   -0.4097    0.0000 H   0  0  0  0  0  0  0  0  0  0  0  0
    4.3860    1.0653    0.0000 H   0  0  0  0  0  0  0  0  0  0  0  0
    3.9875    0.3750    0.0000 H   0  0  0  0  0  0  0  0  0  0  0  0
    5.0656   -1.4923    0.0000 H   0  0  0  0  0  0  0  0  0  0  0  0
    5.8626   -1.4923    0.0000 H   0  0  0  0  0  0  0  0  0  0  0  0
    8.7162   -0.4347    0.0000 H   0  0  0  0  0  0  0  0  0  0  0  0
    8.3176   -1.1250    0.0000 H   0  0  0  0  0  0  0  0  0  0  0  0
   13.2791   -0.1720    0.0000 H   0  0  0  0  0  0  0  0  0  0  0  0
   13.2791    3.1373    0.0000 H   0  0  0  0  0  0  0  0  0  0  0  0
   14.7281    2.3156    0.0000 H   0  0  0  0  0  0  0  0  0  0  0  0
    8.3082   -2.0173    0.0000 H   0  0  0  0  0  0  0  0  0  0  0  0
    8.9282   -2.6373    0.0000 H   0  0  0  0  0  0  0  0  0  0  0  0
    9.5482   -2.0173    0.0000 H   0  0  0  0  0  0  0  0  0  0  0  0
    4.2690   -2.3273    0.0000 H   0  0  0  0  0  0  0  0  0  0  0  0
    2.8660    0.1027    0.0000 H   0  0  0  0  0  0  0  0  0  0  0  0
   15.5945    0.7664    0.0000 H   0  0  0  0  0  0  0  0  0  0  0  0
    2.8660   -3.1373    0.0000 H   0  0  0  0  0  0  0  0  0  0  0  0
    1.4631   -0.7073    0.0000 H   0  0  0  0  0  0  0  0  0  0  0  0
    1.4631   -2.3273    0.0000 H   0  0  0  0  0  0  0  0  0  0  0  0
  1 22  1  0  0  0  0
  1 64  1  0  0  0  0
  2  5  1  0  0  0  0
  2  8  1  0  0  0  0
  2 12  1  0  0  0  0
  3 14  1  0  0  0  0
  3 15  1  0  0  0  0
  3 16  1  0  0  0  0
  4 17  1  0  0  0  0
  4 18  1  0  0  0  0
  4 23  1  0  0  0  0
  5  6  1  0  0  0  0
  5  7  1  0  0  0  0
  5 31  1  0  0  0  0
  6  9  1  0  0  0  0
  6 32  1  0  0  0  0
  6 33  1  0  0  0  0
  7 10  1  0  0  0  0
  7 34  1  0  0  0  0
  7 35  1  0  0  0  0
  8 11  1  0  0  0  0
  8 36  1  0  0  0  0
  8 37  1  0  0  0  0
  9 13  1  0  0  0  0
  9 38  1  0  0  0  0
  9 39  1  0  0  0  0
 10 13  2  0  0  0  0
 10 20  1  0  0  0  0
 11 14  1  0  0  0  0
 11 40  1  0  0  0  0
 11 41  1  0  0  0  0
 12 19  1  0  0  0  0
 12 42  1  0  0  0  0
 12 43  1  0  0  0  0
 13 21  1  0  0  0  0
 14 44  1  0  0  0  0
 14 45  1  0  0  0  0
 15 17  1  0  0  0  0
 15 46  1  0  0  0  0
 15 47  1  0  0  0  0
 16 18  1  0  0  0  0
 16 48  1  0  0  0  0
 16 49  1  0  0  0  0
 17 50  1  0  0  0  0
 17 51  1  0  0  0  0
 18 52  1  0  0  0  0
 18 53  1  0  0  0  0
 19 25  1  0  0  0  0
 19 54  1  0  0  0  0
 19 55  1  0  0  0  0
 20 22  2  0  0  0  0
 20 56  1  0  0  0  0
 21 24  2  0  0  0  0
 21 57  1  0  0  0  0
 22 24  1  0  0  0  0
 23 26  2  0  0  0  0
 23 27  1  0  0  0  0
 24 58  1  0  0  0  0
 25 59  1  0  0  0  0
 25 60  1  0  0  0  0
 25 61  1  0  0  0  0
 26 28  1  0  0  0  0
 26 62  1  0  0  0  0
 27 29  2  0  0  0  0
 27 63  1  0  0  0  0
 28 30  2  0  0  0  0
 28 65  1  0  0  0  0
 29 30  1  0  0  0  0
 29 66  1  0  0  0  0
 30 67  1  0  0  0  0
M  END
> <PUBCHEM_COMPOUND_CID>
24754538

> <PUBCHEM_COMPOUND_CANONICALIZED>
1

> <PUBCHEM_CACTVS_COMPLEXITY>
487

> <PUBCHEM_CACTVS_HBOND_ACCEPTOR>
4

> <PUBCHEM_CACTVS_HBOND_DONOR>
1

> <PUBCHEM_CACTVS_ROTATABLE_BOND>
8

> <PUBCHEM_CACTVS_SUBSKEYS>
AAADcfB7IAAAAAAAAAAAAAAAAAAAAAAAAAA8YMEAAAAAAADBQAAAHgAACAAADCzBmAQyxoMAAgCAAiRCQACCAAAhIgAIiAAObIgIZiLC0ZOUcAhkwBHI2AeQ0LMOoAABAAAQAABQAAKAACAAAAAAAAAAAA==

> <PUBCHEM_IUPAC_OPENEYE_NAME>
3-[3-(4-phenylpiperazin-1-yl)propyl-propyl-amino]tetralin-6-ol

> <PUBCHEM_IUPAC_CAS_NAME>
7-[3-(4-phenyl-1-piperazinyl)propyl-propylamino]-5,6,7,8-tetrahydronaphthalen-2-ol

> <PUBCHEM_IUPAC_NAME_MARKUP>
7-[3-(4-phenylpiperazin-1-yl)propyl-propylamino]-5,6,7,8-tetrahydronaphthalen-2-ol

> <PUBCHEM_IUPAC_NAME>
7-[3-(4-phenylpiperazin-1-yl)propyl-propylamino]-5,6,7,8-tetrahydronaphthalen-2-ol

> <PUBCHEM_IUPAC_SYSTEMATIC_NAME>
7-[3-(4-phenylpiperazin-1-yl)propyl-propyl-amino]-5,6,7,8-tetrahydronaphthalen-2-ol

> <PUBCHEM_IUPAC_TRADITIONAL_NAME>
3-[3-(4-phenylpiperazino)propyl-propyl-amino]tetralin-6-ol

> <PUBCHEM_IUPAC_INCHI>
InChI=1S/C26H37N3O/c1-2-13-28(25-11-9-22-10-12-26(30)21-23(22)20-25)15-6-14-27-16-18-29(19-17-27)24-7-4-3-5-8-24/h3-5,7-8,10,12,21,25,30H,2,6,9,11,13-20H2,1H3

> <PUBCHEM_IUPAC_INCHIKEY>
JNTZATOMFKWPTP-UHFFFAOYSA-N

> <PUBCHEM_XLOGP3_AA>
5.2

> <PUBCHEM_EXACT_MASS>
407.293662812

> <PUBCHEM_MOLECULAR_FORMULA>
C26H37N3O

> <PUBCHEM_MOLECULAR_WEIGHT>
407.6

> <PUBCHEM_OPENEYE_CAN_SMILES>
CCCN(CCCN1CCN(CC1)C2=CC=CC=C2)C3CCC4=C(C3)C=C(C=C4)O

> <PUBCHEM_OPENEYE_ISO_SMILES>
CCCN(CCCN1CCN(CC1)C2=CC=CC=C2)C3CCC4=C(C3)C=C(C=C4)O

> <PUBCHEM_CACTVS_TPSA>
30

> <PUBCHEM_MONOISOTOPIC_WEIGHT>
407.293662812

> <PUBCHEM_TOTAL_CHARGE>
0

> <PUBCHEM_HEAVY_ATOM_COUNT>
30

> <PUBCHEM_ATOM_DEF_STEREO_COUNT>
0

> <PUBCHEM_ATOM_UDEF_STEREO_COUNT>
1

> <PUBCHEM_BOND_DEF_STEREO_COUNT>
0

> <PUBCHEM_BOND_UDEF_STEREO_COUNT>
0

> <PUBCHEM_ISOTOPIC_ATOM_COUNT>
0

> <PUBCHEM_COMPONENT_COUNT>
1

> <PUBCHEM_CACTVS_TAUTO_COUNT>
-1

> <PUBCHEM_COORDINATE_TYPE>
1
5
255

> <PUBCHEM_BONDANNOTATIONS>
10  13  8
10  20  8
13  21  8
5  2  3
20  22  8
21  24  8
22  24  8
23  26  8
23  27  8
26  28  8
27  29  8
28  30  8
29  30  8

$$$$
