155540721
  -OEChem-09292322402D

 49 52  0     0  0  0  0  0  0999 V2000
    9.7402    0.0482    0.0000 S   0  0  0  0  0  0  0  0  0  0  0  0
   10.6907    0.3588    0.0000 O   0  0  0  0  0  0  0  0  0  0  0  0
    8.7896   -0.2625    0.0000 O   0  0  0  0  0  0  0  0  0  0  0  0
    2.8135   -0.6081    0.0000 O   0  0  0  0  0  0  0  0  0  0  0  0
    9.4295    0.9987    0.0000 N   0  0  0  0  0  0  0  0  0  0  0  0
    4.3025    0.4670    0.0000 N   0  0  0  0  0  0  0  0  0  0  0  0
    5.7807   -0.1911    0.0000 N   0  0  0  0  0  0  0  0  0  0  0  0
    4.3958   -1.3126    0.0000 N   0  0  0  0  0  0  0  0  0  0  0  0
    8.4833    1.3034    0.0000 C   0  0  0  0  0  0  0  0  0  0  0  0
    8.4833    2.3034    0.0000 C   0  0  0  0  0  0  0  0  0  0  0  0
    6.7512    1.3034    0.0000 C   0  0  0  0  0  0  0  0  0  0  0  0
    7.6172    0.8034    0.0000 C   0  0  0  0  0  0  0  0  0  0  0  0
   10.0131    1.8034    0.0000 C   0  0  0  0  0  0  0  0  0  0  0  0
    9.4295    2.6081    0.0000 C   0  0  0  0  0  0  0  0  0  0  0  0
    7.6172    2.8034    0.0000 C   0  0  0  0  0  0  0  0  0  0  0  0
    5.8852    0.8034    0.0000 C   0  0  0  0  0  0  0  0  0  0  0  0
    6.7512    2.3034    0.0000 C   0  0  0  0  0  0  0  0  0  0  0  0
   10.0508   -0.9024    0.0000 C   0  0  0  0  0  0  0  0  0  0  0  0
    4.9716    1.2101    0.0000 C   0  0  0  0  0  0  0  0  0  0  0  0
    4.8025   -0.3990    0.0000 C   0  0  0  0  0  0  0  0  0  0  0  0
   11.0293   -1.1086    0.0000 C   0  0  0  0  0  0  0  0  0  0  0  0
    9.3830   -1.6467    0.0000 C   0  0  0  0  0  0  0  0  0  0  0  0
    4.7637    2.1883    0.0000 C   0  0  0  0  0  0  0  0  0  0  0  0
   11.3400   -2.0591    0.0000 C   0  0  0  0  0  0  0  0  0  0  0  0
    9.6936   -2.5972    0.0000 C   0  0  0  0  0  0  0  0  0  0  0  0
   10.6721   -2.8034    0.0000 C   0  0  0  0  0  0  0  0  0  0  0  0
    3.4013   -1.4171    0.0000 C   0  0  0  0  0  0  0  0  0  0  0  0
    2.9945   -2.3306    0.0000 C   0  0  0  0  0  0  0  0  0  0  0  0
    2.0000   -2.4352    0.0000 C   0  0  0  0  0  0  0  0  0  0  0  0
    7.6172    0.1834    0.0000 H   0  0  0  0  0  0  0  0  0  0  0  0
   10.6331    1.8034    0.0000 H   0  0  0  0  0  0  0  0  0  0  0  0
    9.6221    3.1975    0.0000 H   0  0  0  0  0  0  0  0  0  0  0  0
    7.6172    3.4234    0.0000 H   0  0  0  0  0  0  0  0  0  0  0  0
    6.2143    2.6134    0.0000 H   0  0  0  0  0  0  0  0  0  0  0  0
    3.6859    0.5318    0.0000 H   0  0  0  0  0  0  0  0  0  0  0  0
   11.4434   -0.6471    0.0000 H   0  0  0  0  0  0  0  0  0  0  0  0
    8.7763   -1.5188    0.0000 H   0  0  0  0  0  0  0  0  0  0  0  0
    5.3702    2.3172    0.0000 H   0  0  0  0  0  0  0  0  0  0  0  0
    4.6348    2.7947    0.0000 H   0  0  0  0  0  0  0  0  0  0  0  0
    4.1573    2.0594    0.0000 H   0  0  0  0  0  0  0  0  0  0  0  0
    4.7602   -1.8142    0.0000 H   0  0  0  0  0  0  0  0  0  0  0  0
   11.9467   -2.1870    0.0000 H   0  0  0  0  0  0  0  0  0  0  0  0
    9.2796   -3.0587    0.0000 H   0  0  0  0  0  0  0  0  0  0  0  0
   10.8647   -3.3927    0.0000 H   0  0  0  0  0  0  0  0  0  0  0  0
    2.9513   -2.9491    0.0000 H   0  0  0  0  0  0  0  0  0  0  0  0
    3.5961   -2.4806    0.0000 H   0  0  0  0  0  0  0  0  0  0  0  0
    1.9352   -1.8186    0.0000 H   0  0  0  0  0  0  0  0  0  0  0  0
    1.3834   -2.5000    0.0000 H   0  0  0  0  0  0  0  0  0  0  0  0
    2.0648   -3.0518    0.0000 H   0  0  0  0  0  0  0  0  0  0  0  0
  1  2  2  0  0  0  0
  1  3  2  0  0  0  0
  1  5  1  0  0  0  0
  1 18  1  0  0  0  0
  4 27  2  0  0  0  0
  5  9  1  0  0  0  0
  5 13  1  0  0  0  0
  6 19  1  0  0  0  0
  6 20  1  0  0  0  0
  6 35  1  0  0  0  0
  7 16  1  0  0  0  0
  7 20  2  0  0  0  0
  8 20  1  0  0  0  0
  8 27  1  0  0  0  0
  8 41  1  0  0  0  0
  9 10  2  0  0  0  0
  9 12  1  0  0  0  0
 10 14  1  0  0  0  0
 10 15  1  0  0  0  0
 11 12  2  0  0  0  0
 11 16  1  0  0  0  0
 11 17  1  0  0  0  0
 12 30  1  0  0  0  0
 13 14  2  0  0  0  0
 13 31  1  0  0  0  0
 14 32  1  0  0  0  0
 15 17  2  0  0  0  0
 15 33  1  0  0  0  0
 16 19  2  0  0  0  0
 17 34  1  0  0  0  0
 18 21  2  0  0  0  0
 18 22  1  0  0  0  0
 19 23  1  0  0  0  0
 21 24  1  0  0  0  0
 21 36  1  0  0  0  0
 22 25  2  0  0  0  0
 22 37  1  0  0  0  0
 23 38  1  0  0  0  0
 23 39  1  0  0  0  0
 23 40  1  0  0  0  0
 24 26  2  0  0  0  0
 24 42  1  0  0  0  0
 25 26  1  0  0  0  0
 25 43  1  0  0  0  0
 26 44  1  0  0  0  0
 27 28  1  0  0  0  0
 28 29  1  0  0  0  0
 28 45  1  0  0  0  0
 28 46  1  0  0  0  0
 29 47  1  0  0  0  0
 29 48  1  0  0  0  0
 29 49  1  0  0  0  0
M  END
> <PUBCHEM_COMPOUND_CID>
155540721

> <PUBCHEM_COMPOUND_CANONICALIZED>
1

> <PUBCHEM_CACTVS_COMPLEXITY>
689

> <PUBCHEM_CACTVS_HBOND_ACCEPTOR>
4

> <PUBCHEM_CACTVS_HBOND_DONOR>
2

> <PUBCHEM_CACTVS_ROTATABLE_BOND>
5

> <PUBCHEM_CACTVS_SUBSKEYS>
AAADceB7sABAAAAAAAAAAAAAAAAAAWLAAAAwYAAAAAAAAFgB/AAAHgQQQAAADAjB3gQ/0fbJkAKoAzV3dHDCgD2xEqAJ2Tk4dJiIaOLAmZGUIAhokQLIyCcQgMAOQAAAQAACAACAAACAAAQAAAAAAAAAAA==

> <PUBCHEM_IUPAC_OPENEYE_NAME>
N-[4-[1-(benzenesulfonyl)indol-6-yl]-5-methyl-1H-imidazol-2-yl]propanamide

> <PUBCHEM_IUPAC_CAS_NAME>
N-[4-[1-(benzenesulfonyl)-6-indolyl]-5-methyl-1H-imidazol-2-yl]propanamide

> <PUBCHEM_IUPAC_NAME_MARKUP>
<I>N</I>-[4-[1-(benzenesulfonyl)indol-6-yl]-5-methyl-1<I>H</I>-imidazol-2-yl]propanamide

> <PUBCHEM_IUPAC_NAME>
N-[4-[1-(benzenesulfonyl)indol-6-yl]-5-methyl-1H-imidazol-2-yl]propanamide

> <PUBCHEM_IUPAC_SYSTEMATIC_NAME>
N-[5-methyl-4-[1-(phenylsulfonyl)indol-6-yl]-1H-imidazol-2-yl]propanamide

> <PUBCHEM_IUPAC_TRADITIONAL_NAME>
N-[4-(1-besylindol-6-yl)-5-methyl-1H-imidazol-2-yl]propionamide

> <PUBCHEM_IUPAC_INCHI>
InChI=1S/C21H20N4O3S/c1-3-19(26)23-21-22-14(2)20(24-21)16-10-9-15-11-12-25(18(15)13-16)29(27,28)17-7-5-4-6-8-17/h4-13H,3H2,1-2H3,(H2,22,23,24,26)

> <PUBCHEM_IUPAC_INCHIKEY>
IELIPILAHREMSR-UHFFFAOYSA-N

> <PUBCHEM_XLOGP3_AA>
3.4

> <PUBCHEM_EXACT_MASS>
408.12561169

> <PUBCHEM_MOLECULAR_FORMULA>
C21H20N4O3S

> <PUBCHEM_MOLECULAR_WEIGHT>
408.5

> <PUBCHEM_OPENEYE_CAN_SMILES>
CCC(=O)NC1=NC(=C(N1)C)C2=CC3=C(C=C2)C=CN3S(=O)(=O)C4=CC=CC=C4

> <PUBCHEM_OPENEYE_ISO_SMILES>
CCC(=O)NC1=NC(=C(N1)C)C2=CC3=C(C=C2)C=CN3S(=O)(=O)C4=CC=CC=C4

> <PUBCHEM_CACTVS_TPSA>
105

> <PUBCHEM_MONOISOTOPIC_WEIGHT>
408.12561169

> <PUBCHEM_TOTAL_CHARGE>
0

> <PUBCHEM_HEAVY_ATOM_COUNT>
29

> <PUBCHEM_ATOM_DEF_STEREO_COUNT>
0

> <PUBCHEM_ATOM_UDEF_STEREO_COUNT>
0

> <PUBCHEM_BOND_DEF_STEREO_COUNT>
0

> <PUBCHEM_BOND_UDEF_STEREO_COUNT>
0

> <PUBCHEM_ISOTOPIC_ATOM_COUNT>
0

> <PUBCHEM_COMPONENT_COUNT>
1

> <PUBCHEM_CACTVS_TAUTO_COUNT>
-1

> <PUBCHEM_COORDINATE_TYPE>
1
5
255

> <PUBCHEM_BONDANNOTATIONS>
10  14  8
10  15  8
11  12  8
11  17  8
13  14  8
15  17  8
16  19  8
18  21  8
18  22  8
21  24  8
22  25  8
24  26  8
25  26  8
5  13  8
5  9  8
6  19  8
6  20  8
7  16  8
7  20  8
9  10  8
9  12  8

$$$$
