49782398
  -OEChem-09292322312D

 69 73  0     0  0  0  0  0  0999 V2000
   12.0730    3.6939    0.0000 F   0  0  0  0  0  0  0  0  0  0  0  0
    3.1256   -0.4224    0.0000 O   0  0  0  0  0  0  0  0  0  0  0  0
    9.1825    0.1379    0.0000 O   0  0  0  0  0  0  0  0  0  0  0  0
    5.5974    0.5212    0.0000 N   0  0  0  0  0  0  0  0  0  0  0  0
    4.0653   -0.7644    0.0000 C   0  0  0  0  0  0  0  0  0  0  0  0
    5.0050   -1.1064    0.0000 C   0  0  0  0  0  0  0  0  0  0  0  0
    3.8916    0.2204    0.0000 C   0  0  0  0  0  0  0  0  0  0  0  0
    5.7710   -0.4636    0.0000 C   0  0  0  0  0  0  0  0  0  0  0  0
    4.6577    0.8632    0.0000 C   0  0  0  0  0  0  0  0  0  0  0  0
    3.7232   -1.7041    0.0000 C   0  0  0  0  0  0  0  0  0  0  0  0
    6.3634    1.1640    0.0000 C   0  0  0  0  0  0  0  0  0  0  0  0
    2.8616   -1.2066    0.0000 C   0  0  0  0  0  0  0  0  0  0  0  0
    3.7232   -2.6990    0.0000 C   0  0  0  0  0  0  0  0  0  0  0  0
    7.3031    0.8220    0.0000 C   0  0  0  0  0  0  0  0  0  0  0  0
    3.7232   -0.7091    0.0000 C   0  0  0  0  0  0  0  0  0  0  0  0
    2.8616   -3.1964    0.0000 C   0  0  0  0  0  0  0  0  0  0  0  0
    2.0000   -1.7041    0.0000 C   0  0  0  0  0  0  0  0  0  0  0  0
    2.0000   -2.6990    0.0000 C   0  0  0  0  0  0  0  0  0  0  0  0
    4.7637   -0.6870    0.0000 C   0  0  0  0  0  0  0  0  0  0  0  0
    3.7232   -3.6939    0.0000 C   0  0  0  0  0  0  0  0  0  0  0  0
    8.0691    1.4648    0.0000 C   0  0  0  0  0  0  0  0  0  0  0  0
    4.7637   -3.6718    0.0000 C   0  0  0  0  0  0  0  0  0  0  0  0
    5.6253   -1.1845    0.0000 C   0  0  0  0  0  0  0  0  0  0  0  0
    5.6253   -3.1743    0.0000 C   0  0  0  0  0  0  0  0  0  0  0  0
    9.0088    1.1228    0.0000 C   0  0  0  0  0  0  0  0  0  0  0  0
    6.4869   -1.6820    0.0000 C   0  0  0  0  0  0  0  0  0  0  0  0
    4.7637   -1.6820    0.0000 C   0  0  0  0  0  0  0  0  0  0  0  0
    6.4869   -2.6769    0.0000 C   0  0  0  0  0  0  0  0  0  0  0  0
    4.7637   -2.6769    0.0000 C   0  0  0  0  0  0  0  0  0  0  0  0
    9.7749    1.7655    0.0000 C   0  0  0  0  0  0  0  0  0  0  0  0
    9.6012    2.7503    0.0000 C   0  0  0  0  0  0  0  0  0  0  0  0
   10.7146    1.4235    0.0000 C   0  0  0  0  0  0  0  0  0  0  0  0
   10.3673    3.3931    0.0000 C   0  0  0  0  0  0  0  0  0  0  0  0
   11.4806    2.0663    0.0000 C   0  0  0  0  0  0  0  0  0  0  0  0
   11.3070    3.0511    0.0000 C   0  0  0  0  0  0  0  0  0  0  0  0
    4.6950   -1.6433    0.0000 H   0  0  0  0  0  0  0  0  0  0  0  0
    5.4799   -1.5049    0.0000 H   0  0  0  0  0  0  0  0  0  0  0  0
    3.5816    0.7574    0.0000 H   0  0  0  0  0  0  0  0  0  0  0  0
    3.3090    0.0084    0.0000 H   0  0  0  0  0  0  0  0  0  0  0  0
    6.0810   -1.0005    0.0000 H   0  0  0  0  0  0  0  0  0  0  0  0
    6.3536   -0.2515    0.0000 H   0  0  0  0  0  0  0  0  0  0  0  0
    4.9677    1.4002    0.0000 H   0  0  0  0  0  0  0  0  0  0  0  0
    4.1827    1.2618    0.0000 H   0  0  0  0  0  0  0  0  0  0  0  0
    6.6734    1.7009    0.0000 H   0  0  0  0  0  0  0  0  0  0  0  0
    5.8884    1.5625    0.0000 H   0  0  0  0  0  0  0  0  0  0  0  0
    4.2602   -3.0090    0.0000 H   0  0  0  0  0  0  0  0  0  0  0  0
    3.0179    0.1882    0.0000 H   0  0  0  0  0  0  0  0  0  0  0  0
    6.9931    0.2850    0.0000 H   0  0  0  0  0  0  0  0  0  0  0  0
    7.7780    0.4234    0.0000 H   0  0  0  0  0  0  0  0  0  0  0  0
    3.9270   -0.1236    0.0000 H   0  0  0  0  0  0  0  0  0  0  0  0
    3.8901   -1.3063    0.0000 H   0  0  0  0  0  0  0  0  0  0  0  0
    1.4631   -1.3941    0.0000 H   0  0  0  0  0  0  0  0  0  0  0  0
    1.4631   -3.0090    0.0000 H   0  0  0  0  0  0  0  0  0  0  0  0
    5.2358   -0.2851    0.0000 H   0  0  0  0  0  0  0  0  0  0  0  0
    4.6096   -1.2876    0.0000 H   0  0  0  0  0  0  0  0  0  0  0  0
    3.2511   -4.0958    0.0000 H   0  0  0  0  0  0  0  0  0  0  0  0
    3.8774   -3.0934    0.0000 H   0  0  0  0  0  0  0  0  0  0  0  0
    8.3791    2.0017    0.0000 H   0  0  0  0  0  0  0  0  0  0  0  0
    7.5942    1.8633    0.0000 H   0  0  0  0  0  0  0  0  0  0  0  0
    4.5599   -4.2574    0.0000 H   0  0  0  0  0  0  0  0  0  0  0  0
    4.5968   -3.0747    0.0000 H   0  0  0  0  0  0  0  0  0  0  0  0
    7.0238   -1.3720    0.0000 H   0  0  0  0  0  0  0  0  0  0  0  0
    4.2267   -1.3720    0.0000 H   0  0  0  0  0  0  0  0  0  0  0  0
    7.0238   -2.9869    0.0000 H   0  0  0  0  0  0  0  0  0  0  0  0
    4.2267   -2.9869    0.0000 H   0  0  0  0  0  0  0  0  0  0  0  0
    9.0186    2.9624    0.0000 H   0  0  0  0  0  0  0  0  0  0  0  0
   10.8222    0.8129    0.0000 H   0  0  0  0  0  0  0  0  0  0  0  0
   10.2596    4.0037    0.0000 H   0  0  0  0  0  0  0  0  0  0  0  0
   12.0632    1.8542    0.0000 H   0  0  0  0  0  0  0  0  0  0  0  0
  1 35  1  0  0  0  0
  2  5  1  0  0  0  0
  2 47  1  0  0  0  0
  3 25  2  0  0  0  0
  4  8  1  0  0  0  0
  4  9  1  0  0  0  0
  4 11  1  0  0  0  0
  5  6  1  0  0  0  0
  5  7  1  0  0  0  0
  5 10  1  0  0  0  0
  6  8  1  0  0  0  0
  6 36  1  0  0  0  0
  6 37  1  0  0  0  0
  7  9  1  0  0  0  0
  7 38  1  0  0  0  0
  7 39  1  0  0  0  0
  8 40  1  0  0  0  0
  8 41  1  0  0  0  0
  9 42  1  0  0  0  0
  9 43  1  0  0  0  0
 10 12  2  0  0  0  0
 10 13  1  0  0  0  0
 11 14  1  0  0  0  0
 11 44  1  0  0  0  0
 11 45  1  0  0  0  0
 12 15  1  0  0  0  0
 12 17  1  0  0  0  0
 13 16  2  0  0  0  0
 13 46  1  0  0  0  0
 14 21  1  0  0  0  0
 14 48  1  0  0  0  0
 14 49  1  0  0  0  0
 15 19  1  0  0  0  0
 15 50  1  0  0  0  0
 15 51  1  0  0  0  0
 16 18  1  0  0  0  0
 16 20  1  0  0  0  0
 17 18  2  0  0  0  0
 17 52  1  0  0  0  0
 18 53  1  0  0  0  0
 19 23  1  0  0  0  0
 19 54  1  0  0  0  0
 19 55  1  0  0  0  0
 20 22  1  0  0  0  0
 20 56  1  0  0  0  0
 20 57  1  0  0  0  0
 21 25  1  0  0  0  0
 21 58  1  0  0  0  0
 21 59  1  0  0  0  0
 22 24  1  0  0  0  0
 22 60  1  0  0  0  0
 22 61  1  0  0  0  0
 23 26  2  0  0  0  0
 23 27  1  0  0  0  0
 24 28  2  0  0  0  0
 24 29  1  0  0  0  0
 25 30  1  0  0  0  0
 26 28  1  0  0  0  0
 26 62  1  0  0  0  0
 27 29  2  0  0  0  0
 27 63  1  0  0  0  0
 28 64  1  0  0  0  0
 29 65  1  0  0  0  0
 30 31  2  0  0  0  0
 30 32  1  0  0  0  0
 31 33  1  0  0  0  0
 31 66  1  0  0  0  0
 32 34  2  0  0  0  0
 32 67  1  0  0  0  0
 33 35  2  0  0  0  0
 33 68  1  0  0  0  0
 34 35  1  0  0  0  0
 34 69  1  0  0  0  0
M  END
> <PUBCHEM_COMPOUND_CID>
49782398

> <PUBCHEM_COMPOUND_CANONICALIZED>
1

> <PUBCHEM_CACTVS_COMPLEXITY>
674

> <PUBCHEM_CACTVS_HBOND_ACCEPTOR>
4

> <PUBCHEM_CACTVS_HBOND_DONOR>
1

> <PUBCHEM_CACTVS_ROTATABLE_BOND>
6

> <PUBCHEM_CACTVS_SUBSKEYS>
AAADcfB6MQAAAAAAAAAAAAAAAAAAAAAAAAA8YMEAAAAAAAABUAAAHwAACAAADETBmAwwAIMAAgCIAqBSAAACAAAkAAAIiAEICMgIJjKAlRCEcQAmwAGImYecyOCOwAACAAAQAACAAAQAACAAAAAAAAAAAA==

> <PUBCHEM_IUPAC_OPENEYE_NAME>
1-(4-fluorophenyl)-4-[4-hydroxy-4-(5-tricyclo[8.2.2.24,7]hexadeca-1(13),4,6,10(14),11,15-hexaenyl)-1-piperidyl]butan-1-one

> <PUBCHEM_IUPAC_CAS_NAME>
1-(4-fluorophenyl)-4-[4-hydroxy-4-(5-tricyclo[8.2.2.24,7]hexadeca-1(13),4,6,10(14),11,15-hexaenyl)-1-piperidinyl]-1-butanone

> <PUBCHEM_IUPAC_NAME_MARKUP>
1-(4-fluorophenyl)-4-[4-hydroxy-4-(5-tricyclo[8.2.2.2<SUP>4,7</SUP>]hexadeca-1(13),4,6,10(14),11,15-hexaenyl)piperidin-1-yl]butan-1-one

> <PUBCHEM_IUPAC_NAME>
1-(4-fluorophenyl)-4-[4-hydroxy-4-(5-tricyclo[8.2.2.24,7]hexadeca-1(13),4,6,10(14),11,15-hexaenyl)piperidin-1-yl]butan-1-one

> <PUBCHEM_IUPAC_SYSTEMATIC_NAME>
1-(4-fluorophenyl)-4-[4-oxidanyl-4-(5-tricyclo[8.2.2.24,7]hexadeca-1(13),4,6,10(14),11,15-hexaenyl)piperidin-1-yl]butan-1-one

> <PUBCHEM_IUPAC_TRADITIONAL_NAME>
1-(4-fluorophenyl)-4-[4-hydroxy-4-(5-tricyclo[8.2.2.24,7]hexadeca-1(13),4,6,10(14),11,15-hexaenyl)piperidino]butan-1-one

> <PUBCHEM_IUPAC_INCHI>
InChI=1S/C31H34FNO2/c32-28-15-13-27(14-16-28)30(34)2-1-19-33-20-17-31(35,18-21-33)29-22-25-8-7-23-3-5-24(6-4-23)9-11-26(29)12-10-25/h3-6,10,12-16,22,35H,1-2,7-9,11,17-21H2

> <PUBCHEM_IUPAC_INCHIKEY>
ZXZSMMMPXXEGFH-UHFFFAOYSA-N

> <PUBCHEM_XLOGP3_AA>
5.7

> <PUBCHEM_EXACT_MASS>
471.25735749

> <PUBCHEM_MOLECULAR_FORMULA>
C31H34FNO2

> <PUBCHEM_MOLECULAR_WEIGHT>
471.6

> <PUBCHEM_OPENEYE_CAN_SMILES>
C1CC2=CC(=C(CCC3=CC=C1C=C3)C=C2)C4(CCN(CC4)CCCC(=O)C5=CC=C(C=C5)F)O

> <PUBCHEM_OPENEYE_ISO_SMILES>
C1CC2=CC(=C(CCC3=CC=C1C=C3)C=C2)C4(CCN(CC4)CCCC(=O)C5=CC=C(C=C5)F)O

> <PUBCHEM_CACTVS_TPSA>
40.5

> <PUBCHEM_MONOISOTOPIC_WEIGHT>
471.25735749

> <PUBCHEM_TOTAL_CHARGE>
0

> <PUBCHEM_HEAVY_ATOM_COUNT>
35

> <PUBCHEM_ATOM_DEF_STEREO_COUNT>
0

> <PUBCHEM_ATOM_UDEF_STEREO_COUNT>
0

> <PUBCHEM_BOND_DEF_STEREO_COUNT>
0

> <PUBCHEM_BOND_UDEF_STEREO_COUNT>
0

> <PUBCHEM_ISOTOPIC_ATOM_COUNT>
0

> <PUBCHEM_COMPONENT_COUNT>
1

> <PUBCHEM_CACTVS_TAUTO_COUNT>
-1

> <PUBCHEM_COORDINATE_TYPE>
1
5
255

> <PUBCHEM_BONDANNOTATIONS>
10  12  8
10  13  8
12  17  8
13  16  8
16  18  8
17  18  8
23  26  8
23  27  8
24  28  8
24  29  8
26  28  8
27  29  8
30  31  8
30  32  8
31  33  8
32  34  8
33  35  8
34  35  8

$$$$
