66801354
  -OEChem-09292322342D

 58 62  0     0  0  0  0  0  0999 V2000
   11.7930    0.5816    0.0000 S   0  0  0  0  0  0  0  0  0  0  0  0
    3.7899   -2.6163    0.0000 O   0  0  0  0  0  0  0  0  0  0  0  0
   11.2930    1.4477    0.0000 O   0  0  0  0  0  0  0  0  0  0  0  0
   12.2930   -0.2844    0.0000 O   0  0  0  0  0  0  0  0  0  0  0  0
    7.4629    0.0816    0.0000 N   0  0  0  0  0  0  0  0  0  0  0  0
    5.7308   -0.9184    0.0000 N   0  0  0  0  0  0  0  0  0  0  0  0
   10.9270    0.0816    0.0000 N   0  0  0  0  0  0  0  0  0  0  0  0
    4.7617   -2.4071    0.0000 N   0  0  0  0  0  0  0  0  0  0  0  0
    6.5968    0.5816    0.0000 C   0  0  0  0  0  0  0  0  0  0  0  0
    7.4629   -0.9184    0.0000 C   0  0  0  0  0  0  0  0  0  0  0  0
    5.7308    0.0816    0.0000 C   0  0  0  0  0  0  0  0  0  0  0  0
    6.5968   -1.4184    0.0000 C   0  0  0  0  0  0  0  0  0  0  0  0
    8.3289    0.5816    0.0000 C   0  0  0  0  0  0  0  0  0  0  0  0
    9.1949    0.0816    0.0000 C   0  0  0  0  0  0  0  0  0  0  0  0
    4.8648   -1.4184    0.0000 C   0  0  0  0  0  0  0  0  0  0  0  0
   10.0610    0.5816    0.0000 C   0  0  0  0  0  0  0  0  0  0  0  0
    3.9570   -1.0132    0.0000 C   0  0  0  0  0  0  0  0  0  0  0  0
    3.2892   -1.7576    0.0000 C   0  0  0  0  0  0  0  0  0  0  0  0
    3.6464   -0.0627    0.0000 C   0  0  0  0  0  0  0  0  0  0  0  0
   12.6590    1.0816    0.0000 C   0  0  0  0  0  0  0  0  0  0  0  0
    2.3107   -1.5513    0.0000 C   0  0  0  0  0  0  0  0  0  0  0  0
    2.6678    0.1435    0.0000 C   0  0  0  0  0  0  0  0  0  0  0  0
   13.5251    0.5816    0.0000 C   0  0  0  0  0  0  0  0  0  0  0  0
    2.0000   -0.6008    0.0000 C   0  0  0  0  0  0  0  0  0  0  0  0
   12.6590    2.0816    0.0000 C   0  0  0  0  0  0  0  0  0  0  0  0
   14.3911    1.0816    0.0000 C   0  0  0  0  0  0  0  0  0  0  0  0
   14.3911    2.0816    0.0000 C   0  0  0  0  0  0  0  0  0  0  0  0
   13.5251    2.5816    0.0000 C   0  0  0  0  0  0  0  0  0  0  0  0
   15.2850    0.5470    0.0000 C   0  0  0  0  0  0  0  0  0  0  0  0
   15.2850    2.6163    0.0000 C   0  0  0  0  0  0  0  0  0  0  0  0
   16.1911    1.0608    0.0000 C   0  0  0  0  0  0  0  0  0  0  0  0
   16.1911    2.1024    0.0000 C   0  0  0  0  0  0  0  0  0  0  0  0
    6.9954    1.0566    0.0000 H   0  0  0  0  0  0  0  0  0  0  0  0
    6.1983    1.0566    0.0000 H   0  0  0  0  0  0  0  0  0  0  0  0
    7.6749   -1.5010    0.0000 H   0  0  0  0  0  0  0  0  0  0  0  0
    8.0734   -0.8107    0.0000 H   0  0  0  0  0  0  0  0  0  0  0  0
    5.5188    0.6642    0.0000 H   0  0  0  0  0  0  0  0  0  0  0  0
    5.1202   -0.0260    0.0000 H   0  0  0  0  0  0  0  0  0  0  0  0
    6.1983   -1.8933    0.0000 H   0  0  0  0  0  0  0  0  0  0  0  0
    6.9954   -1.8933    0.0000 H   0  0  0  0  0  0  0  0  0  0  0  0
    8.7274    1.0566    0.0000 H   0  0  0  0  0  0  0  0  0  0  0  0
    7.9304    1.0566    0.0000 H   0  0  0  0  0  0  0  0  0  0  0  0
    8.7964   -0.3933    0.0000 H   0  0  0  0  0  0  0  0  0  0  0  0
    9.5934   -0.3933    0.0000 H   0  0  0  0  0  0  0  0  0  0  0  0
   10.4595    1.0566    0.0000 H   0  0  0  0  0  0  0  0  0  0  0  0
    9.6624    1.0566    0.0000 H   0  0  0  0  0  0  0  0  0  0  0  0
   10.9270   -0.5384    0.0000 H   0  0  0  0  0  0  0  0  0  0  0  0
    4.0604    0.3987    0.0000 H   0  0  0  0  0  0  0  0  0  0  0  0
    1.8966   -2.0128    0.0000 H   0  0  0  0  0  0  0  0  0  0  0  0
    2.4752    0.7328    0.0000 H   0  0  0  0  0  0  0  0  0  0  0  0
   13.5251   -0.0384    0.0000 H   0  0  0  0  0  0  0  0  0  0  0  0
    1.3933   -0.4730    0.0000 H   0  0  0  0  0  0  0  0  0  0  0  0
   12.1221    2.3916    0.0000 H   0  0  0  0  0  0  0  0  0  0  0  0
   13.5251    3.2016    0.0000 H   0  0  0  0  0  0  0  0  0  0  0  0
   15.2779   -0.0730    0.0000 H   0  0  0  0  0  0  0  0  0  0  0  0
   15.2779    3.2362    0.0000 H   0  0  0  0  0  0  0  0  0  0  0  0
   16.7268    0.7488    0.0000 H   0  0  0  0  0  0  0  0  0  0  0  0
   16.7268    2.4145    0.0000 H   0  0  0  0  0  0  0  0  0  0  0  0
  1  3  2  0  0  0  0
  1  4  2  0  0  0  0
  1  7  1  0  0  0  0
  1 20  1  0  0  0  0
  2  8  1  0  0  0  0
  2 18  1  0  0  0  0
  5  9  1  0  0  0  0
  5 10  1  0  0  0  0
  5 13  1  0  0  0  0
  6 11  1  0  0  0  0
  6 12  1  0  0  0  0
  6 15  1  0  0  0  0
  7 16  1  0  0  0  0
  7 47  1  0  0  0  0
  8 15  2  0  0  0  0
  9 11  1  0  0  0  0
  9 33  1  0  0  0  0
  9 34  1  0  0  0  0
 10 12  1  0  0  0  0
 10 35  1  0  0  0  0
 10 36  1  0  0  0  0
 11 37  1  0  0  0  0
 11 38  1  0  0  0  0
 12 39  1  0  0  0  0
 12 40  1  0  0  0  0
 13 14  1  0  0  0  0
 13 41  1  0  0  0  0
 13 42  1  0  0  0  0
 14 16  1  0  0  0  0
 14 43  1  0  0  0  0
 14 44  1  0  0  0  0
 15 17  1  0  0  0  0
 16 45  1  0  0  0  0
 16 46  1  0  0  0  0
 17 18  1  0  0  0  0
 17 19  2  0  0  0  0
 18 21  2  0  0  0  0
 19 22  1  0  0  0  0
 19 48  1  0  0  0  0
 20 23  2  0  0  0  0
 20 25  1  0  0  0  0
 21 24  1  0  0  0  0
 21 49  1  0  0  0  0
 22 24  2  0  0  0  0
 22 50  1  0  0  0  0
 23 26  1  0  0  0  0
 23 51  1  0  0  0  0
 24 52  1  0  0  0  0
 25 28  2  0  0  0  0
 25 53  1  0  0  0  0
 26 27  1  0  0  0  0
 26 29  2  0  0  0  0
 27 28  1  0  0  0  0
 27 30  2  0  0  0  0
 28 54  1  0  0  0  0
 29 31  1  0  0  0  0
 29 55  1  0  0  0  0
 30 32  1  0  0  0  0
 30 56  1  0  0  0  0
 31 32  2  0  0  0  0
 31 57  1  0  0  0  0
 32 58  1  0  0  0  0
M  END
> <PUBCHEM_COMPOUND_CID>
66801354

> <PUBCHEM_COMPOUND_CANONICALIZED>
1

> <PUBCHEM_CACTVS_COMPLEXITY>
707

> <PUBCHEM_CACTVS_HBOND_ACCEPTOR>
7

> <PUBCHEM_CACTVS_HBOND_DONOR>
1

> <PUBCHEM_CACTVS_ROTATABLE_BOND>
7

> <PUBCHEM_CACTVS_SUBSKEYS>
AAADceB7sABAAAAAAAAAAAAAAAAAAWAAAAA8YMEAAAAAAFjB9AAAHgQUQAAADATB2gQxt9NQAAKpAqJyYnDCABAlIAApmLkuTNqIZrrA3ZOUMYhm0BvIyceYyKCOkAAAgAAYAAAgAAEAADAAAAAAAAAAAA==

> <PUBCHEM_IUPAC_OPENEYE_NAME>
N-[3-[4-(1,2-benzoxazol-3-yl)piperazin-1-yl]propyl]naphthalene-2-sulfonamide

> <PUBCHEM_IUPAC_CAS_NAME>
N-[3-[4-(1,2-benzoxazol-3-yl)-1-piperazinyl]propyl]-2-naphthalenesulfonamide

> <PUBCHEM_IUPAC_NAME_MARKUP>
<I>N</I>-[3-[4-(1,2-benzoxazol-3-yl)piperazin-1-yl]propyl]naphthalene-2-sulfonamide

> <PUBCHEM_IUPAC_NAME>
N-[3-[4-(1,2-benzoxazol-3-yl)piperazin-1-yl]propyl]naphthalene-2-sulfonamide

> <PUBCHEM_IUPAC_SYSTEMATIC_NAME>
N-[3-[4-(1,2-benzoxazol-3-yl)piperazin-1-yl]propyl]naphthalene-2-sulfonamide

> <PUBCHEM_IUPAC_TRADITIONAL_NAME>
N-[3-(4-indoxazen-3-ylpiperazino)propyl]naphthalene-2-sulfonamide

> <PUBCHEM_IUPAC_INCHI>
InChI=1S/C24H26N4O3S/c29-32(30,21-11-10-19-6-1-2-7-20(19)18-21)25-12-5-13-27-14-16-28(17-15-27)24-22-8-3-4-9-23(22)31-26-24/h1-4,6-11,18,25H,5,12-17H2

> <PUBCHEM_IUPAC_INCHIKEY>
CJGUBEHBJWODAS-UHFFFAOYSA-N

> <PUBCHEM_XLOGP3_AA>
4.2

> <PUBCHEM_EXACT_MASS>
450.17256188

> <PUBCHEM_MOLECULAR_FORMULA>
C24H26N4O3S

> <PUBCHEM_MOLECULAR_WEIGHT>
450.6

> <PUBCHEM_OPENEYE_CAN_SMILES>
C1CN(CCN1CCCNS(=O)(=O)C2=CC3=CC=CC=C3C=C2)C4=NOC5=CC=CC=C54

> <PUBCHEM_OPENEYE_ISO_SMILES>
C1CN(CCN1CCCNS(=O)(=O)C2=CC3=CC=CC=C3C=C2)C4=NOC5=CC=CC=C54

> <PUBCHEM_CACTVS_TPSA>
87.1

> <PUBCHEM_MONOISOTOPIC_WEIGHT>
450.17256188

> <PUBCHEM_TOTAL_CHARGE>
0

> <PUBCHEM_HEAVY_ATOM_COUNT>
32

> <PUBCHEM_ATOM_DEF_STEREO_COUNT>
0

> <PUBCHEM_ATOM_UDEF_STEREO_COUNT>
0

> <PUBCHEM_BOND_DEF_STEREO_COUNT>
0

> <PUBCHEM_BOND_UDEF_STEREO_COUNT>
0

> <PUBCHEM_ISOTOPIC_ATOM_COUNT>
0

> <PUBCHEM_COMPONENT_COUNT>
1

> <PUBCHEM_CACTVS_TAUTO_COUNT>
-1

> <PUBCHEM_COORDINATE_TYPE>
1
5
255

> <PUBCHEM_BONDANNOTATIONS>
15  17  8
17  18  8
17  19  8
18  21  8
19  22  8
2  18  8
2  8  8
20  23  8
20  25  8
21  24  8
22  24  8
23  26  8
25  28  8
26  27  8
26  29  8
27  28  8
27  30  8
29  31  8
30  32  8
31  32  8
8  15  8

$$$$
