155529679
  -OEChem-09292322402D

 62 65  0     0  0  0  0  0  0999 V2000
    4.6783   -1.6586    0.0000 S   0  0  0  0  0  0  0  0  0  0  0  0
   13.2619   -0.8539    0.0000 F   0  0  0  0  0  0  0  0  0  0  0  0
   14.6279   -0.4879    0.0000 F   0  0  0  0  0  0  0  0  0  0  0  0
   12.8959    0.5121    0.0000 F   0  0  0  0  0  0  0  0  0  0  0  0
    5.4883   -2.2450    0.0000 O   0  0  0  0  0  0  0  0  0  0  0  0
    4.3709   -2.6102    0.0000 O   0  0  0  0  0  0  0  0  0  0  0  0
    4.9889    0.9014    0.0000 O   0  0  0  0  0  0  0  0  0  0  0  0
   10.7619    1.7442    0.0000 N   0  0  0  0  0  0  0  0  0  0  0  0
   12.7619    1.7442    0.0000 N   0  0  0  0  0  0  0  0  0  0  0  0
    5.2619   -0.8539    0.0000 N   0  0  0  0  0  0  0  0  0  0  0  0
   11.2619    2.6102    0.0000 C   0  0  0  0  0  0  0  0  0  0  0  0
   11.2619    0.8782    0.0000 C   0  0  0  0  0  0  0  0  0  0  0  0
    9.7619    1.7442    0.0000 C   0  0  0  0  0  0  0  0  0  0  0  0
   12.2619    2.6102    0.0000 C   0  0  0  0  0  0  0  0  0  0  0  0
   12.2619    0.8782    0.0000 C   0  0  0  0  0  0  0  0  0  0  0  0
    9.2619    0.8782    0.0000 C   0  0  0  0  0  0  0  0  0  0  0  0
    8.2619    0.8782    0.0000 C   0  0  0  0  0  0  0  0  0  0  0  0
    7.7619    0.0121    0.0000 C   0  0  0  0  0  0  0  0  0  0  0  0
    6.7619    0.0121    0.0000 C   0  0  0  0  0  0  0  0  0  0  0  0
   13.7619    1.7442    0.0000 C   0  0  0  0  0  0  0  0  0  0  0  0
    6.2619   -0.8539    0.0000 C   0  0  0  0  0  0  0  0  0  0  0  0
    3.7320   -1.3539    0.0000 C   0  0  0  0  0  0  0  0  0  0  0  0
   14.2619    0.8782    0.0000 C   0  0  0  0  0  0  0  0  0  0  0  0
    4.6783   -0.0492    0.0000 C   0  0  0  0  0  0  0  0  0  0  0  0
    3.7320   -0.3539    0.0000 C   0  0  0  0  0  0  0  0  0  0  0  0
   14.2619    2.6102    0.0000 C   0  0  0  0  0  0  0  0  0  0  0  0
   15.2619    0.8782    0.0000 C   0  0  0  0  0  0  0  0  0  0  0  0
    2.8660   -1.8539    0.0000 C   0  0  0  0  0  0  0  0  0  0  0  0
   13.7619    0.0121    0.0000 C   0  0  0  0  0  0  0  0  0  0  0  0
    2.8660    0.1461    0.0000 C   0  0  0  0  0  0  0  0  0  0  0  0
   15.2619    2.6102    0.0000 C   0  0  0  0  0  0  0  0  0  0  0  0
   15.7619    1.7442    0.0000 C   0  0  0  0  0  0  0  0  0  0  0  0
    2.0000   -1.3539    0.0000 C   0  0  0  0  0  0  0  0  0  0  0  0
    2.0000   -0.3539    0.0000 C   0  0  0  0  0  0  0  0  0  0  0  0
   11.3695    3.2208    0.0000 H   0  0  0  0  0  0  0  0  0  0  0  0
   10.6793    2.8223    0.0000 H   0  0  0  0  0  0  0  0  0  0  0  0
   10.6793    0.6661    0.0000 H   0  0  0  0  0  0  0  0  0  0  0  0
   11.3695    0.2676    0.0000 H   0  0  0  0  0  0  0  0  0  0  0  0
    9.8695    2.3548    0.0000 H   0  0  0  0  0  0  0  0  0  0  0  0
    9.1793    1.9562    0.0000 H   0  0  0  0  0  0  0  0  0  0  0  0
   12.8445    2.8223    0.0000 H   0  0  0  0  0  0  0  0  0  0  0  0
   12.1542    3.2208    0.0000 H   0  0  0  0  0  0  0  0  0  0  0  0
   12.1542    0.2676    0.0000 H   0  0  0  0  0  0  0  0  0  0  0  0
   12.8445    0.6661    0.0000 H   0  0  0  0  0  0  0  0  0  0  0  0
    9.1542    0.2676    0.0000 H   0  0  0  0  0  0  0  0  0  0  0  0
    9.8445    0.6661    0.0000 H   0  0  0  0  0  0  0  0  0  0  0  0
    8.3695    1.4887    0.0000 H   0  0  0  0  0  0  0  0  0  0  0  0
    7.6793    1.0902    0.0000 H   0  0  0  0  0  0  0  0  0  0  0  0
    7.6542   -0.5984    0.0000 H   0  0  0  0  0  0  0  0  0  0  0  0
    8.3445   -0.1999    0.0000 H   0  0  0  0  0  0  0  0  0  0  0  0
    6.8695    0.6227    0.0000 H   0  0  0  0  0  0  0  0  0  0  0  0
    6.1793    0.2242    0.0000 H   0  0  0  0  0  0  0  0  0  0  0  0
    6.1542   -1.4645    0.0000 H   0  0  0  0  0  0  0  0  0  0  0  0
    6.8445   -1.0659    0.0000 H   0  0  0  0  0  0  0  0  0  0  0  0
   13.9519    3.1472    0.0000 H   0  0  0  0  0  0  0  0  0  0  0  0
    2.8660   -2.4739    0.0000 H   0  0  0  0  0  0  0  0  0  0  0  0
   15.5719    0.3412    0.0000 H   0  0  0  0  0  0  0  0  0  0  0  0
    2.8660    0.7661    0.0000 H   0  0  0  0  0  0  0  0  0  0  0  0
   15.5719    3.1472    0.0000 H   0  0  0  0  0  0  0  0  0  0  0  0
   16.3819    1.7442    0.0000 H   0  0  0  0  0  0  0  0  0  0  0  0
    1.4631   -1.6639    0.0000 H   0  0  0  0  0  0  0  0  0  0  0  0
    1.4631   -0.0439    0.0000 H   0  0  0  0  0  0  0  0  0  0  0  0
  1  5  2  0  0  0  0
  1  6  2  0  0  0  0
  1 10  1  0  0  0  0
  1 22  1  0  0  0  0
  2 29  1  0  0  0  0
  3 29  1  0  0  0  0
  4 29  1  0  0  0  0
  7 24  2  0  0  0  0
  8 11  1  0  0  0  0
  8 12  1  0  0  0  0
  8 13  1  0  0  0  0
  9 14  1  0  0  0  0
  9 15  1  0  0  0  0
  9 20  1  0  0  0  0
 10 21  1  0  0  0  0
 10 24  1  0  0  0  0
 11 14  1  0  0  0  0
 11 35  1  0  0  0  0
 11 36  1  0  0  0  0
 12 15  1  0  0  0  0
 12 37  1  0  0  0  0
 12 38  1  0  0  0  0
 13 16  1  0  0  0  0
 13 39  1  0  0  0  0
 13 40  1  0  0  0  0
 14 41  1  0  0  0  0
 14 42  1  0  0  0  0
 15 43  1  0  0  0  0
 15 44  1  0  0  0  0
 16 17  1  0  0  0  0
 16 45  1  0  0  0  0
 16 46  1  0  0  0  0
 17 18  1  0  0  0  0
 17 47  1  0  0  0  0
 17 48  1  0  0  0  0
 18 19  1  0  0  0  0
 18 49  1  0  0  0  0
 18 50  1  0  0  0  0
 19 21  1  0  0  0  0
 19 51  1  0  0  0  0
 19 52  1  0  0  0  0
 20 23  1  0  0  0  0
 20 26  2  0  0  0  0
 21 53  1  0  0  0  0
 21 54  1  0  0  0  0
 22 25  1  0  0  0  0
 22 28  2  0  0  0  0
 23 27  2  0  0  0  0
 23 29  1  0  0  0  0
 24 25  1  0  0  0  0
 25 30  2  0  0  0  0
 26 31  1  0  0  0  0
 26 55  1  0  0  0  0
 27 32  1  0  0  0  0
 27 57  1  0  0  0  0
 28 33  1  0  0  0  0
 28 56  1  0  0  0  0
 30 34  1  0  0  0  0
 30 58  1  0  0  0  0
 31 32  2  0  0  0  0
 31 59  1  0  0  0  0
 32 60  1  0  0  0  0
 33 34  2  0  0  0  0
 33 61  1  0  0  0  0
 34 62  1  0  0  0  0
M  END
> <PUBCHEM_COMPOUND_CID>
155529679

> <PUBCHEM_COMPOUND_CANONICALIZED>
1

> <PUBCHEM_CACTVS_COMPLEXITY>
794

> <PUBCHEM_CACTVS_HBOND_ACCEPTOR>
8

> <PUBCHEM_CACTVS_HBOND_DONOR>
0

> <PUBCHEM_CACTVS_ROTATABLE_BOND>
8

> <PUBCHEM_CACTVS_SUBSKEYS>
AAADceB7MYBAAAAAAAAAAAAAAAAAAWAAAAA8YIAAAAAAAFgBQAAAHwQAQAAADAjB2BQwwYMAAAKIAiVSUHDCABAlAgAIiBkIZMgIYDLAlZGUIQhghgDIyYcYiACOAAAAAAAGAAAAAAAAAAwAAAAAAAAAAA==

> <PUBCHEM_IUPAC_OPENEYE_NAME>
1,1-dioxo-2-[6-[4-[2-(trifluoromethyl)phenyl]piperazin-1-yl]hexyl]-1,2-benzothiazol-3-one

> <PUBCHEM_IUPAC_CAS_NAME>
1,1-dioxo-2-[6-[4-[2-(trifluoromethyl)phenyl]-1-piperazinyl]hexyl]-1,2-benzothiazol-3-one

> <PUBCHEM_IUPAC_NAME_MARKUP>
1,1-dioxo-2-[6-[4-[2-(trifluoromethyl)phenyl]piperazin-1-yl]hexyl]-1,2-benzothiazol-3-one

> <PUBCHEM_IUPAC_NAME>
1,1-dioxo-2-[6-[4-[2-(trifluoromethyl)phenyl]piperazin-1-yl]hexyl]-1,2-benzothiazol-3-one

> <PUBCHEM_IUPAC_SYSTEMATIC_NAME>
1,1-bis(oxidanylidene)-2-[6-[4-[2-(trifluoromethyl)phenyl]piperazin-1-yl]hexyl]-1,2-benzothiazol-3-one

> <PUBCHEM_IUPAC_TRADITIONAL_NAME>
1,1-diketo-2-[6-[4-[2-(trifluoromethyl)phenyl]piperazino]hexyl]-1,2-benzothiazol-3-one

> <PUBCHEM_IUPAC_INCHI>
InChI=1S/C24H28F3N3O3S/c25-24(26,27)20-10-4-5-11-21(20)29-17-15-28(16-18-29)13-7-1-2-8-14-30-23(31)19-9-3-6-12-22(19)34(30,32)33/h3-6,9-12H,1-2,7-8,13-18H2

> <PUBCHEM_IUPAC_INCHIKEY>
NCMZUNHPJFBZHL-UHFFFAOYSA-N

> <PUBCHEM_XLOGP3_AA>
4.5

> <PUBCHEM_EXACT_MASS>
495.18034742

> <PUBCHEM_MOLECULAR_FORMULA>
C24H28F3N3O3S

> <PUBCHEM_MOLECULAR_WEIGHT>
495.6

> <PUBCHEM_OPENEYE_CAN_SMILES>
C1CN(CCN1CCCCCCN2C(=O)C3=CC=CC=C3S2(=O)=O)C4=CC=CC=C4C(F)(F)F

> <PUBCHEM_OPENEYE_ISO_SMILES>
C1CN(CCN1CCCCCCN2C(=O)C3=CC=CC=C3S2(=O)=O)C4=CC=CC=C4C(F)(F)F

> <PUBCHEM_CACTVS_TPSA>
69.3

> <PUBCHEM_MONOISOTOPIC_WEIGHT>
495.18034742

> <PUBCHEM_TOTAL_CHARGE>
0

> <PUBCHEM_HEAVY_ATOM_COUNT>
34

> <PUBCHEM_ATOM_DEF_STEREO_COUNT>
0

> <PUBCHEM_ATOM_UDEF_STEREO_COUNT>
0

> <PUBCHEM_BOND_DEF_STEREO_COUNT>
0

> <PUBCHEM_BOND_UDEF_STEREO_COUNT>
0

> <PUBCHEM_ISOTOPIC_ATOM_COUNT>
0

> <PUBCHEM_COMPONENT_COUNT>
1

> <PUBCHEM_CACTVS_TAUTO_COUNT>
-1

> <PUBCHEM_COORDINATE_TYPE>
1
5
255

> <PUBCHEM_BONDANNOTATIONS>
20  23  8
20  26  8
22  25  8
22  28  8
23  27  8
25  30  8
26  31  8
27  32  8
28  33  8
30  34  8
31  32  8
33  34  8

$$$$
