121304685
  -OEChem-09292322382D

 64 68  0     1  0  0  0  0  0999 V2000
    4.8198    1.3741    0.0000 S   0  0  0  0  0  0  0  0  0  0  0  0
   10.5121   -6.9759    0.0000 F   0  0  0  0  0  0  0  0  0  0  0  0
    9.1460   -7.3419    0.0000 F   0  0  0  0  0  0  0  0  0  0  0  0
   10.1460   -5.6099    0.0000 F   0  0  0  0  0  0  0  0  0  0  0  0
    2.0000    6.7219    0.0000 O   0  0  0  0  0  0  0  0  0  0  0  0
    5.1819   -2.0710    0.0000 N   0  0  3  0  0  0  0  0  0  0  0  0
    4.5411    3.1342    0.0000 N   0  0  0  0  0  0  0  0  0  0  0  0
    3.2320    2.1831    0.0000 N   0  0  0  0  0  0  0  0  0  0  0  0
    2.9230    3.1342    0.0000 N   0  0  0  0  0  0  0  0  0  0  0  0
    3.7320    6.7219    0.0000 N   0  0  0  0  0  0  0  0  0  0  0  0
    5.6819   -3.6099    0.0000 C   0  0  2  0  0  0  0  0  0  0  0  0
    6.1819   -4.4759    0.0000 C   0  0  2  0  0  0  0  0  0  0  0  0
    5.1819   -4.4759    0.0000 C   0  0  0  0  0  0  0  0  0  0  0  0
    6.4910   -3.0221    0.0000 C   0  0  0  0  0  0  0  0  0  0  0  0
    4.8729   -3.0221    0.0000 C   0  0  0  0  0  0  0  0  0  0  0  0
    6.1819   -2.0710    0.0000 C   0  0  0  0  0  0  0  0  0  0  0  0
    7.0480   -4.9759    0.0000 C   0  0  0  0  0  0  0  0  0  0  0  0
    4.5942   -1.2620    0.0000 C   0  0  0  0  0  0  0  0  0  0  0  0
    7.9140   -4.4759    0.0000 C   0  0  0  0  0  0  0  0  0  0  0  0
    7.0480   -5.9759    0.0000 C   0  0  0  0  0  0  0  0  0  0  0  0
    5.0009   -0.3485    0.0000 C   0  0  0  0  0  0  0  0  0  0  0  0
    8.7800   -4.9759    0.0000 C   0  0  0  0  0  0  0  0  0  0  0  0
    7.9140   -6.4759    0.0000 C   0  0  0  0  0  0  0  0  0  0  0  0
    8.7800   -5.9759    0.0000 C   0  0  0  0  0  0  0  0  0  0  0  0
    4.4131    0.4605    0.0000 C   0  0  0  0  0  0  0  0  0  0  0  0
    9.6460   -6.4759    0.0000 C   0  0  0  0  0  0  0  0  0  0  0  0
    4.2320    2.1831    0.0000 C   0  0  0  0  0  0  0  0  0  0  0  0
    3.7320    4.7219    0.0000 C   0  0  3  0  0  0  0  0  0  0  0  0
    3.7320    3.7219    0.0000 C   0  0  0  0  0  0  0  0  0  0  0  0
    4.5981    5.2219    0.0000 C   0  0  0  0  0  0  0  0  0  0  0  0
    2.8660    5.2219    0.0000 C   0  0  0  0  0  0  0  0  0  0  0  0
    4.5981    6.2219    0.0000 C   0  0  0  0  0  0  0  0  0  0  0  0
    2.8660    6.2219    0.0000 C   0  0  0  0  0  0  0  0  0  0  0  0
    5.4921    3.4432    0.0000 C   0  0  0  0  0  0  0  0  0  0  0  0
    6.0215   -5.0748    0.0000 H   0  0  0  0  0  0  0  0  0  0  0  0
    4.5993   -4.2639    0.0000 H   0  0  0  0  0  0  0  0  0  0  0  0
    5.0743   -5.0865    0.0000 H   0  0  0  0  0  0  0  0  0  0  0  0
    6.8010   -3.5590    0.0000 H   0  0  0  0  0  0  0  0  0  0  0  0
    7.0574   -2.7699    0.0000 H   0  0  0  0  0  0  0  0  0  0  0  0
    4.3065   -2.7699    0.0000 H   0  0  0  0  0  0  0  0  0  0  0  0
    4.5629   -3.5590    0.0000 H   0  0  0  0  0  0  0  0  0  0  0  0
    6.7884   -1.9421    0.0000 H   0  0  0  0  0  0  0  0  0  0  0  0
    6.1171   -1.4544    0.0000 H   0  0  0  0  0  0  0  0  0  0  0  0
    4.0801   -0.9153    0.0000 H   0  0  0  0  0  0  0  0  0  0  0  0
    4.1635   -1.7080    0.0000 H   0  0  0  0  0  0  0  0  0  0  0  0
    7.9140   -3.8559    0.0000 H   0  0  0  0  0  0  0  0  0  0  0  0
    6.5110   -6.2859    0.0000 H   0  0  0  0  0  0  0  0  0  0  0  0
    5.5149   -0.6952    0.0000 H   0  0  0  0  0  0  0  0  0  0  0  0
    5.4316    0.0975    0.0000 H   0  0  0  0  0  0  0  0  0  0  0  0
    9.3170   -4.6659    0.0000 H   0  0  0  0  0  0  0  0  0  0  0  0
    7.9140   -7.0959    0.0000 H   0  0  0  0  0  0  0  0  0  0  0  0
    3.8991    0.8072    0.0000 H   0  0  0  0  0  0  0  0  0  0  0  0
    3.9824    0.0145    0.0000 H   0  0  0  0  0  0  0  0  0  0  0  0
    4.2690    4.4119    0.0000 H   0  0  0  0  0  0  0  0  0  0  0  0
    4.8101    4.6393    0.0000 H   0  0  0  0  0  0  0  0  0  0  0  0
    5.2087    5.3296    0.0000 H   0  0  0  0  0  0  0  0  0  0  0  0
    2.2554    5.3296    0.0000 H   0  0  0  0  0  0  0  0  0  0  0  0
    2.6540    4.6393    0.0000 H   0  0  0  0  0  0  0  0  0  0  0  0
    5.2087    6.1143    0.0000 H   0  0  0  0  0  0  0  0  0  0  0  0
    4.8101    6.8046    0.0000 H   0  0  0  0  0  0  0  0  0  0  0  0
    3.7320    7.3419    0.0000 H   0  0  0  0  0  0  0  0  0  0  0  0
    5.6837    2.8535    0.0000 H   0  0  0  0  0  0  0  0  0  0  0  0
    6.0818    3.6348    0.0000 H   0  0  0  0  0  0  0  0  0  0  0  0
    5.3005    4.0328    0.0000 H   0  0  0  0  0  0  0  0  0  0  0  0
  1 25  1  0  0  0  0
  1 27  1  0  0  0  0
  2 26  1  0  0  0  0
  3 26  1  0  0  0  0
  4 26  1  0  0  0  0
  5 33  2  0  0  0  0
  6 15  1  0  0  0  0
  6 16  1  0  0  0  0
  6 18  1  0  0  0  0
  7 27  1  0  0  0  0
  7 29  1  0  0  0  0
  7 34  1  0  0  0  0
  8  9  1  0  0  0  0
  8 27  2  0  0  0  0
  9 29  2  0  0  0  0
 10 32  1  0  0  0  0
 10 33  1  0  0  0  0
 10 61  1  0  0  0  0
 11 12  1  0  0  0  0
 11 13  1  6  0  0  0
 11 14  1  0  0  0  0
 11 15  1  0  0  0  0
 12 13  1  0  0  0  0
 12 17  1  1  0  0  0
 12 35  1  0  0  0  0
 13 36  1  0  0  0  0
 13 37  1  0  0  0  0
 14 16  1  0  0  0  0
 14 38  1  0  0  0  0
 14 39  1  0  0  0  0
 15 40  1  0  0  0  0
 15 41  1  0  0  0  0
 16 42  1  0  0  0  0
 16 43  1  0  0  0  0
 17 19  2  0  0  0  0
 17 20  1  0  0  0  0
 18 21  1  0  0  0  0
 18 44  1  0  0  0  0
 18 45  1  0  0  0  0
 19 22  1  0  0  0  0
 19 46  1  0  0  0  0
 20 23  2  0  0  0  0
 20 47  1  0  0  0  0
 21 25  1  0  0  0  0
 21 48  1  0  0  0  0
 21 49  1  0  0  0  0
 22 24  2  0  0  0  0
 22 50  1  0  0  0  0
 23 24  1  0  0  0  0
 23 51  1  0  0  0  0
 24 26  1  0  0  0  0
 25 52  1  0  0  0  0
 25 53  1  0  0  0  0
 28 29  1  0  0  0  0
 28 30  1  0  0  0  0
 28 31  1  0  0  0  0
 28 54  1  0  0  0  0
 30 32  1  0  0  0  0
 30 55  1  0  0  0  0
 30 56  1  0  0  0  0
 31 33  1  0  0  0  0
 31 57  1  0  0  0  0
 31 58  1  0  0  0  0
 32 59  1  0  0  0  0
 32 60  1  0  0  0  0
 34 62  1  0  0  0  0
 34 63  1  0  0  0  0
 34 64  1  0  0  0  0
M  END
> <PUBCHEM_COMPOUND_CID>
121304685

> <PUBCHEM_COMPOUND_CANONICALIZED>
1

> <PUBCHEM_CACTVS_COMPLEXITY>
734

> <PUBCHEM_CACTVS_HBOND_ACCEPTOR>
8

> <PUBCHEM_CACTVS_HBOND_DONOR>
1

> <PUBCHEM_CACTVS_ROTATABLE_BOND>
7

> <PUBCHEM_CACTVS_SUBSKEYS>
AAADceB7oYBAAAAAAAAAAAAAGAAAAWLAAAA8QAAAAAAAAAABwAAAHwQYAAAADwDF2xSzEIfMEAiqAiNyNAAS0AtgALAdyIE4AIiIKDKgmRCEIAAgngKIiAccgcAPwAAAAAAAAACAAAAAAAAAAAAAAAAAAA==

> <PUBCHEM_IUPAC_OPENEYE_NAME>
4-[4-methyl-5-[3-[(2R,3S)-2-[4-(trifluoromethyl)phenyl]-5-azaspiro[2.4]heptan-5-yl]propylsulfanyl]-1,2,4-triazol-3-yl]piperidin-2-one

> <PUBCHEM_IUPAC_CAS_NAME>
4-[4-methyl-5-[3-[(2R,3S)-2-[4-(trifluoromethyl)phenyl]-5-azaspiro[2.4]heptan-5-yl]propylthio]-1,2,4-triazol-3-yl]-2-piperidinone

> <PUBCHEM_IUPAC_NAME_MARKUP>
4-[4-methyl-5-[3-[(2<I>R</I>,3<I>S</I>)-2-[4-(trifluoromethyl)phenyl]-5-azaspiro[2.4]heptan-5-yl]propylsulfanyl]-1,2,4-triazol-3-yl]piperidin-2-one

> <PUBCHEM_IUPAC_NAME>
4-[4-methyl-5-[3-[(2R,3S)-2-[4-(trifluoromethyl)phenyl]-5-azaspiro[2.4]heptan-5-yl]propylsulfanyl]-1,2,4-triazol-3-yl]piperidin-2-one

> <PUBCHEM_IUPAC_SYSTEMATIC_NAME>
4-[4-methyl-5-[3-[(2R,3S)-2-[4-(trifluoromethyl)phenyl]-5-azaspiro[2.4]heptan-5-yl]propylsulfanyl]-1,2,4-triazol-3-yl]piperidin-2-one

> <PUBCHEM_IUPAC_TRADITIONAL_NAME>
4-[4-methyl-5-[3-[(2R,3S)-2-[4-(trifluoromethyl)phenyl]-5-azaspiro[2.4]heptan-5-yl]propylthio]-1,2,4-triazol-3-yl]-2-piperidone

> <PUBCHEM_IUPAC_INCHI>
InChI=1S/C24H30F3N5OS/c1-31-21(17-7-9-28-20(33)13-17)29-30-22(31)34-12-2-10-32-11-8-23(15-32)14-19(23)16-3-5-18(6-4-16)24(25,26)27/h3-6,17,19H,2,7-15H2,1H3,(H,28,33)/t17?,19-,23+/m1/s1

> <PUBCHEM_IUPAC_INCHIKEY>
ARSLLTCMIOZESX-PNYWAOBFSA-N

> <PUBCHEM_XLOGP3_AA>
3.1

> <PUBCHEM_EXACT_MASS>
493.21231626

> <PUBCHEM_MOLECULAR_FORMULA>
C24H30F3N5OS

> <PUBCHEM_MOLECULAR_WEIGHT>
493.6

> <PUBCHEM_OPENEYE_CAN_SMILES>
CN1C(=NN=C1SCCCN2CCC3(C2)CC3C4=CC=C(C=C4)C(F)(F)F)C5CCNC(=O)C5

> <PUBCHEM_OPENEYE_ISO_SMILES>
CN1C(=NN=C1SCCCN2CC[C@@]3(C2)C[C@@H]3C4=CC=C(C=C4)C(F)(F)F)C5CCNC(=O)C5

> <PUBCHEM_CACTVS_TPSA>
88.4

> <PUBCHEM_MONOISOTOPIC_WEIGHT>
493.21231626

> <PUBCHEM_TOTAL_CHARGE>
0

> <PUBCHEM_HEAVY_ATOM_COUNT>
34

> <PUBCHEM_ATOM_DEF_STEREO_COUNT>
2

> <PUBCHEM_ATOM_UDEF_STEREO_COUNT>
1

> <PUBCHEM_BOND_DEF_STEREO_COUNT>
0

> <PUBCHEM_BOND_UDEF_STEREO_COUNT>
0

> <PUBCHEM_ISOTOPIC_ATOM_COUNT>
0

> <PUBCHEM_COMPONENT_COUNT>
1

> <PUBCHEM_CACTVS_TAUTO_COUNT>
-1

> <PUBCHEM_COORDINATE_TYPE>
1
5
255

> <PUBCHEM_BONDANNOTATIONS>
11  13  6
12  17  5
17  19  8
17  20  8
19  22  8
20  23  8
22  24  8
23  24  8
28  29  3
7  27  8
7  29  8
8  27  8
8  9  8
9  29  8

$$$$
