12730768
  -OEChem-09292322092D

 42 43  0     0  0  0  0  0  0999 V2000
    3.2690    3.2500    0.0000 F   0  0  0  0  0  0  0  0  0  0  0  0
    4.2690    4.2500    0.0000 F   0  0  0  0  0  0  0  0  0  0  0  0
    5.2690    3.2500    0.0000 F   0  0  0  0  0  0  0  0  0  0  0  0
    4.2690   -2.7500    0.0000 N   0  0  0  0  0  0  0  0  0  0  0  0
    6.0010   -3.7500    0.0000 N   0  0  0  0  0  0  0  0  0  0  0  0
    4.2690   -3.7500    0.0000 C   0  0  0  0  0  0  0  0  0  0  0  0
    5.1350   -2.2500    0.0000 C   0  0  0  0  0  0  0  0  0  0  0  0
    5.1350   -4.2500    0.0000 C   0  0  0  0  0  0  0  0  0  0  0  0
    6.0010   -2.7500    0.0000 C   0  0  0  0  0  0  0  0  0  0  0  0
    3.4030   -2.2500    0.0000 C   0  0  0  0  0  0  0  0  0  0  0  0
    3.4030   -1.2500    0.0000 C   0  0  0  0  0  0  0  0  0  0  0  0
    6.8671   -4.2500    0.0000 C   0  0  0  0  0  0  0  0  0  0  0  0
    2.5369   -0.7500    0.0000 C   0  0  0  0  0  0  0  0  0  0  0  0
    2.5369    0.2500    0.0000 C   0  0  0  0  0  0  0  0  0  0  0  0
    3.4030    0.7500    0.0000 C   0  0  0  0  0  0  0  0  0  0  0  0
    3.4030    1.7500    0.0000 C   0  0  0  0  0  0  0  0  0  0  0  0
    4.2690    0.2500    0.0000 C   0  0  0  0  0  0  0  0  0  0  0  0
    4.2690    2.2500    0.0000 C   0  0  0  0  0  0  0  0  0  0  0  0
    5.1350    0.7500    0.0000 C   0  0  0  0  0  0  0  0  0  0  0  0
    5.1350    1.7500    0.0000 C   0  0  0  0  0  0  0  0  0  0  0  0
    4.2690    3.2500    0.0000 C   0  0  0  0  0  0  0  0  0  0  0  0
    3.6584   -3.6423    0.0000 H   0  0  0  0  0  0  0  0  0  0  0  0
    4.0569   -4.3326    0.0000 H   0  0  0  0  0  0  0  0  0  0  0  0
    5.5335   -1.7750    0.0000 H   0  0  0  0  0  0  0  0  0  0  0  0
    4.7365   -1.7750    0.0000 H   0  0  0  0  0  0  0  0  0  0  0  0
    4.7365   -4.7250    0.0000 H   0  0  0  0  0  0  0  0  0  0  0  0
    5.5335   -4.7250    0.0000 H   0  0  0  0  0  0  0  0  0  0  0  0
    6.6116   -2.8577    0.0000 H   0  0  0  0  0  0  0  0  0  0  0  0
    6.2131   -2.1674    0.0000 H   0  0  0  0  0  0  0  0  0  0  0  0
    2.7924   -2.1423    0.0000 H   0  0  0  0  0  0  0  0  0  0  0  0
    3.1909   -2.8326    0.0000 H   0  0  0  0  0  0  0  0  0  0  0  0
    4.0135   -1.3577    0.0000 H   0  0  0  0  0  0  0  0  0  0  0  0
    3.6150   -0.6674    0.0000 H   0  0  0  0  0  0  0  0  0  0  0  0
    6.5571   -4.7869    0.0000 H   0  0  0  0  0  0  0  0  0  0  0  0
    7.4040   -4.5600    0.0000 H   0  0  0  0  0  0  0  0  0  0  0  0
    7.1771   -3.7131    0.0000 H   0  0  0  0  0  0  0  0  0  0  0  0
    2.0000   -1.0600    0.0000 H   0  0  0  0  0  0  0  0  0  0  0  0
    2.0000    0.5600    0.0000 H   0  0  0  0  0  0  0  0  0  0  0  0
    2.8660    2.0600    0.0000 H   0  0  0  0  0  0  0  0  0  0  0  0
    4.2690   -0.3700    0.0000 H   0  0  0  0  0  0  0  0  0  0  0  0
    5.6720    0.4400    0.0000 H   0  0  0  0  0  0  0  0  0  0  0  0
    5.6720    2.0600    0.0000 H   0  0  0  0  0  0  0  0  0  0  0  0
  1 21  1  0  0  0  0
  2 21  1  0  0  0  0
  3 21  1  0  0  0  0
  4  6  1  0  0  0  0
  4  7  1  0  0  0  0
  4 10  1  0  0  0  0
  5  8  1  0  0  0  0
  5  9  1  0  0  0  0
  5 12  1  0  0  0  0
  6  8  1  0  0  0  0
  6 22  1  0  0  0  0
  6 23  1  0  0  0  0
  7  9  1  0  0  0  0
  7 24  1  0  0  0  0
  7 25  1  0  0  0  0
  8 26  1  0  0  0  0
  8 27  1  0  0  0  0
  9 28  1  0  0  0  0
  9 29  1  0  0  0  0
 10 11  1  0  0  0  0
 10 30  1  0  0  0  0
 10 31  1  0  0  0  0
 11 13  1  0  0  0  0
 11 32  1  0  0  0  0
 11 33  1  0  0  0  0
 12 34  1  0  0  0  0
 12 35  1  0  0  0  0
 12 36  1  0  0  0  0
 13 14  2  0  0  0  0
 13 37  1  0  0  0  0
 14 15  1  0  0  0  0
 14 38  1  0  0  0  0
 15 16  2  0  0  0  0
 15 17  1  0  0  0  0
 16 18  1  0  0  0  0
 16 39  1  0  0  0  0
 17 19  2  0  0  0  0
 17 40  1  0  0  0  0
 18 20  2  0  0  0  0
 18 21  1  0  0  0  0
 19 20  1  0  0  0  0
 19 41  1  0  0  0  0
 20 42  1  0  0  0  0
M  END
> <PUBCHEM_COMPOUND_CID>
12730768

> <PUBCHEM_COMPOUND_CANONICALIZED>
1

> <PUBCHEM_CACTVS_COMPLEXITY>
333

> <PUBCHEM_CACTVS_HBOND_ACCEPTOR>
5

> <PUBCHEM_CACTVS_HBOND_DONOR>
0

> <PUBCHEM_CACTVS_ROTATABLE_BOND>
4

> <PUBCHEM_CACTVS_SUBSKEYS>
AAADceB7AYAAAAAAAAAAAAAAAAAAAAAAAAA8QAAAAAAAAAABAAAAHQAAAAAADADBGBQyAIMAAACAAiBCAAACAAAgAAAIiAAIAIgIYCKAERCUIAAggACIiAcAgEAOAAACAAAAAAAAAAQAAAAAAAAAAAAAAA==

> <PUBCHEM_IUPAC_OPENEYE_NAME>
1-methyl-4-[(Z)-4-[3-(trifluoromethyl)phenyl]but-3-enyl]piperazine

> <PUBCHEM_IUPAC_CAS_NAME>
1-methyl-4-[(Z)-4-[3-(trifluoromethyl)phenyl]but-3-enyl]piperazine

> <PUBCHEM_IUPAC_NAME_MARKUP>
1-methyl-4-[(<I>Z</I>)-4-[3-(trifluoromethyl)phenyl]but-3-enyl]piperazine

> <PUBCHEM_IUPAC_NAME>
1-methyl-4-[(Z)-4-[3-(trifluoromethyl)phenyl]but-3-enyl]piperazine

> <PUBCHEM_IUPAC_SYSTEMATIC_NAME>
1-methyl-4-[(Z)-4-[3-(trifluoromethyl)phenyl]but-3-enyl]piperazine

> <PUBCHEM_IUPAC_TRADITIONAL_NAME>
1-methyl-4-[(Z)-4-[3-(trifluoromethyl)phenyl]but-3-enyl]piperazine

> <PUBCHEM_IUPAC_INCHI>
InChI=1S/C16H21F3N2/c1-20-9-11-21(12-10-20)8-3-2-5-14-6-4-7-15(13-14)16(17,18)19/h2,4-7,13H,3,8-12H2,1H3/b5-2-

> <PUBCHEM_IUPAC_INCHIKEY>
RMEPJCDUESJVLY-DJWKRKHSSA-N

> <PUBCHEM_XLOGP3_AA>
3.6

> <PUBCHEM_EXACT_MASS>
298.16568316

> <PUBCHEM_MOLECULAR_FORMULA>
C16H21F3N2

> <PUBCHEM_MOLECULAR_WEIGHT>
298.35

> <PUBCHEM_OPENEYE_CAN_SMILES>
CN1CCN(CC1)CCC=CC2=CC(=CC=C2)C(F)(F)F

> <PUBCHEM_OPENEYE_ISO_SMILES>
CN1CCN(CC1)CC/C=C\C2=CC(=CC=C2)C(F)(F)F

> <PUBCHEM_CACTVS_TPSA>
6.5

> <PUBCHEM_MONOISOTOPIC_WEIGHT>
298.16568316

> <PUBCHEM_TOTAL_CHARGE>
0

> <PUBCHEM_HEAVY_ATOM_COUNT>
21

> <PUBCHEM_ATOM_DEF_STEREO_COUNT>
0

> <PUBCHEM_ATOM_UDEF_STEREO_COUNT>
0

> <PUBCHEM_BOND_DEF_STEREO_COUNT>
1

> <PUBCHEM_BOND_UDEF_STEREO_COUNT>
0

> <PUBCHEM_ISOTOPIC_ATOM_COUNT>
0

> <PUBCHEM_COMPONENT_COUNT>
1

> <PUBCHEM_CACTVS_TAUTO_COUNT>
-1

> <PUBCHEM_COORDINATE_TYPE>
1
5
255

> <PUBCHEM_BONDANNOTATIONS>
15  16  8
15  17  8
16  18  8
17  19  8
18  20  8
19  20  8

$$$$
