44332566
  -OEChem-09292322502D

 36 37  0     0  0  0  0  0  0999 V2000
    2.0000    3.3450    0.0000 Cl  0  0  0  0  0  0  0  0  0  0  0  0
    5.4641    1.3450    0.0000 O   0  0  0  0  0  0  0  0  0  0  0  0
    6.3301   -1.1550    0.0000 N   0  0  0  0  0  0  0  0  0  0  0  0
    3.7320    4.3450    0.0000 N   0  0  0  0  0  0  0  0  0  0  0  0
    6.3301   -0.1550    0.0000 C   0  0  0  0  0  0  0  0  0  0  0  0
    7.1962   -1.6550    0.0000 C   0  0  0  0  0  0  0  0  0  0  0  0
    5.4641    0.3450    0.0000 C   0  0  0  0  0  0  0  0  0  0  0  0
    7.1962   -2.6550    0.0000 C   0  0  0  0  0  0  0  0  0  0  0  0
    4.5981    1.8450    0.0000 C   0  0  0  0  0  0  0  0  0  0  0  0
    8.0622   -3.1550    0.0000 C   0  0  0  0  0  0  0  0  0  0  0  0
    6.3301   -3.1550    0.0000 C   0  0  0  0  0  0  0  0  0  0  0  0
    4.5981    2.8450    0.0000 C   0  0  0  0  0  0  0  0  0  0  0  0
    8.0622   -4.1550    0.0000 C   0  0  0  0  0  0  0  0  0  0  0  0
    6.3301   -4.1550    0.0000 C   0  0  0  0  0  0  0  0  0  0  0  0
    3.7320    1.3450    0.0000 C   0  0  0  0  0  0  0  0  0  0  0  0
    3.7320    3.3450    0.0000 C   0  0  0  0  0  0  0  0  0  0  0  0
    7.1962   -4.6550    0.0000 C   0  0  0  0  0  0  0  0  0  0  0  0
    2.8660    1.8450    0.0000 C   0  0  0  0  0  0  0  0  0  0  0  0
    2.8660    2.8450    0.0000 C   0  0  0  0  0  0  0  0  0  0  0  0
    6.9407   -0.2627    0.0000 H   0  0  0  0  0  0  0  0  0  0  0  0
    6.5422    0.4276    0.0000 H   0  0  0  0  0  0  0  0  0  0  0  0
    7.8067   -1.7627    0.0000 H   0  0  0  0  0  0  0  0  0  0  0  0
    7.4082   -1.0724    0.0000 H   0  0  0  0  0  0  0  0  0  0  0  0
    5.7932   -1.4650    0.0000 H   0  0  0  0  0  0  0  0  0  0  0  0
    4.8535    0.4527    0.0000 H   0  0  0  0  0  0  0  0  0  0  0  0
    5.2520   -0.2376    0.0000 H   0  0  0  0  0  0  0  0  0  0  0  0
    8.5991   -2.8450    0.0000 H   0  0  0  0  0  0  0  0  0  0  0  0
    5.7932   -2.8450    0.0000 H   0  0  0  0  0  0  0  0  0  0  0  0
    5.1350    3.1550    0.0000 H   0  0  0  0  0  0  0  0  0  0  0  0
    3.7320    0.7250    0.0000 H   0  0  0  0  0  0  0  0  0  0  0  0
    8.5991   -4.4650    0.0000 H   0  0  0  0  0  0  0  0  0  0  0  0
    5.7932   -4.4650    0.0000 H   0  0  0  0  0  0  0  0  0  0  0  0
    7.1962   -5.2750    0.0000 H   0  0  0  0  0  0  0  0  0  0  0  0
    2.3291    1.5350    0.0000 H   0  0  0  0  0  0  0  0  0  0  0  0
    4.2690    4.6550    0.0000 H   0  0  0  0  0  0  0  0  0  0  0  0
    3.1951    4.6550    0.0000 H   0  0  0  0  0  0  0  0  0  0  0  0
  1 19  1  0  0  0  0
  2  7  1  0  0  0  0
  2  9  1  0  0  0  0
  3  5  1  0  0  0  0
  3  6  1  0  0  0  0
  3 24  1  0  0  0  0
  4 16  1  0  0  0  0
  4 35  1  0  0  0  0
  4 36  1  0  0  0  0
  5  7  1  0  0  0  0
  5 20  1  0  0  0  0
  5 21  1  0  0  0  0
  6  8  1  0  0  0  0
  6 22  1  0  0  0  0
  6 23  1  0  0  0  0
  7 25  1  0  0  0  0
  7 26  1  0  0  0  0
  8 10  2  0  0  0  0
  8 11  1  0  0  0  0
  9 12  2  0  0  0  0
  9 15  1  0  0  0  0
 10 13  1  0  0  0  0
 10 27  1  0  0  0  0
 11 14  2  0  0  0  0
 11 28  1  0  0  0  0
 12 16  1  0  0  0  0
 12 29  1  0  0  0  0
 13 17  2  0  0  0  0
 13 31  1  0  0  0  0
 14 17  1  0  0  0  0
 14 32  1  0  0  0  0
 15 18  2  0  0  0  0
 15 30  1  0  0  0  0
 16 19  2  0  0  0  0
 17 33  1  0  0  0  0
 18 19  1  0  0  0  0
 18 34  1  0  0  0  0
M  END
> <PUBCHEM_COMPOUND_CID>
44332566

> <PUBCHEM_COMPOUND_CANONICALIZED>
1

> <PUBCHEM_CACTVS_COMPLEXITY>
246

> <PUBCHEM_CACTVS_HBOND_ACCEPTOR>
3

> <PUBCHEM_CACTVS_HBOND_DONOR>
2

> <PUBCHEM_CACTVS_ROTATABLE_BOND>
6

> <PUBCHEM_CACTVS_SUBSKEYS>
AAADceBzIAAEAAAAAAAAAAAAAAAAAAAAAAAwYAAAAAAAAAABQAAAHgIQAAAADA7hmCYwxoLABACAAiRCQACCCAAgJwAIiIAObogOJiKFs5uHOCjm0BmY6AeQ0AEOACAAAgAAABAAQAAEAAAAIAAAAAAAAA==

> <PUBCHEM_IUPAC_OPENEYE_NAME>
5-[2-(benzylamino)ethoxy]-2-chloro-aniline

> <PUBCHEM_IUPAC_CAS_NAME>
2-chloro-5-[2-[(phenylmethyl)amino]ethoxy]aniline

> <PUBCHEM_IUPAC_NAME_MARKUP>
5-[2-(benzylamino)ethoxy]-2-chloroaniline

> <PUBCHEM_IUPAC_NAME>
5-[2-(benzylamino)ethoxy]-2-chloroaniline

> <PUBCHEM_IUPAC_SYSTEMATIC_NAME>
2-chloranyl-5-[2-[(phenylmethyl)amino]ethoxy]aniline

> <PUBCHEM_IUPAC_TRADITIONAL_NAME>
2-(3-amino-4-chloro-phenoxy)ethyl-benzyl-amine

> <PUBCHEM_IUPAC_INCHI>
InChI=1S/C15H17ClN2O/c16-14-7-6-13(10-15(14)17)19-9-8-18-11-12-4-2-1-3-5-12/h1-7,10,18H,8-9,11,17H2

> <PUBCHEM_IUPAC_INCHIKEY>
MSJYXZAZPCPYHS-UHFFFAOYSA-N

> <PUBCHEM_XLOGP3_AA>
2.9

> <PUBCHEM_EXACT_MASS>
276.1029409

> <PUBCHEM_MOLECULAR_FORMULA>
C15H17ClN2O

> <PUBCHEM_MOLECULAR_WEIGHT>
276.76

> <PUBCHEM_OPENEYE_CAN_SMILES>
C1=CC=C(C=C1)CNCCOC2=CC(=C(C=C2)Cl)N

> <PUBCHEM_OPENEYE_ISO_SMILES>
C1=CC=C(C=C1)CNCCOC2=CC(=C(C=C2)Cl)N

> <PUBCHEM_CACTVS_TPSA>
47.3

> <PUBCHEM_MONOISOTOPIC_WEIGHT>
276.1029409

> <PUBCHEM_TOTAL_CHARGE>
0

> <PUBCHEM_HEAVY_ATOM_COUNT>
19

> <PUBCHEM_ATOM_DEF_STEREO_COUNT>
0

> <PUBCHEM_ATOM_UDEF_STEREO_COUNT>
0

> <PUBCHEM_BOND_DEF_STEREO_COUNT>
0

> <PUBCHEM_BOND_UDEF_STEREO_COUNT>
0

> <PUBCHEM_ISOTOPIC_ATOM_COUNT>
0

> <PUBCHEM_COMPONENT_COUNT>
1

> <PUBCHEM_CACTVS_TAUTO_COUNT>
-1

> <PUBCHEM_COORDINATE_TYPE>
1
5
255

> <PUBCHEM_BONDANNOTATIONS>
10  13  8
11  14  8
12  16  8
13  17  8
14  17  8
15  18  8
16  19  8
18  19  8
8  10  8
8  11  8
9  12  8
9  15  8

$$$$
