164616161
  -OEChem-09292322432D

 58 60  0     1  0  0  0  0  0999 V2000
    2.0000   -3.6830    0.0000 Cl  0  0  0  0  0  0  0  0  0  0  0  0
    2.0000   -5.6830    0.0000 Cl  0  0  0  0  0  0  0  0  0  0  0  0
    8.5622    4.6830    0.0000 O   0  0  0  0  0  0  0  0  0  0  0  0
    5.0981   -0.3170    0.0000 N   0  0  0  0  0  0  0  0  0  0  0  0
    9.4282    3.1830    0.0000 N   0  0  0  0  0  0  0  0  0  0  0  0
   10.2942    4.6830    0.0000 N   0  0  0  0  0  0  0  0  0  0  0  0
    4.2320   -1.8170    0.0000 C   0  0  3  0  0  0  0  0  0  0  0  0
    3.7320   -2.6830    0.0000 C   0  0  3  0  0  0  0  0  0  0  0  0
    3.2320   -1.8170    0.0000 C   0  0  0  0  0  0  0  0  0  0  0  0
    5.0981   -1.3170    0.0000 C   0  0  0  0  0  0  0  0  0  0  0  0
    3.7320   -3.6830    0.0000 C   0  0  0  0  0  0  0  0  0  0  0  0
    6.8301    1.6830    0.0000 C   0  0  0  0  0  0  0  0  0  0  0  0
    5.9641    1.1830    0.0000 C   0  0  0  0  0  0  0  0  0  0  0  0
    7.6962    1.1830    0.0000 C   0  0  0  0  0  0  0  0  0  0  0  0
    6.8301    2.6830    0.0000 C   0  0  0  0  0  0  0  0  0  0  0  0
    5.9641    0.1830    0.0000 C   0  0  0  0  0  0  0  0  0  0  0  0
    8.5622    2.6830    0.0000 C   0  0  0  0  0  0  0  0  0  0  0  0
    8.5622    1.6830    0.0000 C   0  0  0  0  0  0  0  0  0  0  0  0
    7.6962    3.1830    0.0000 C   0  0  0  0  0  0  0  0  0  0  0  0
    2.8660   -4.1830    0.0000 C   0  0  0  0  0  0  0  0  0  0  0  0
    4.5981   -4.1830    0.0000 C   0  0  0  0  0  0  0  0  0  0  0  0
    2.8660   -5.1830    0.0000 C   0  0  0  0  0  0  0  0  0  0  0  0
    4.5981   -5.1830    0.0000 C   0  0  0  0  0  0  0  0  0  0  0  0
    3.7320   -5.6830    0.0000 C   0  0  0  0  0  0  0  0  0  0  0  0
    9.4282    4.1830    0.0000 C   0  0  0  0  0  0  0  0  0  0  0  0
   10.2942    5.6830    0.0000 C   0  0  0  0  0  0  0  0  0  0  0  0
   11.1603    4.1830    0.0000 C   0  0  0  0  0  0  0  0  0  0  0  0
    4.0716   -1.2181    0.0000 H   0  0  0  0  0  0  0  0  0  0  0  0
    4.3309   -2.8435    0.0000 H   0  0  0  0  0  0  0  0  0  0  0  0
    3.1244   -1.2064    0.0000 H   0  0  0  0  0  0  0  0  0  0  0  0
    2.6494   -2.0290    0.0000 H   0  0  0  0  0  0  0  0  0  0  0  0
    5.3101   -1.8996    0.0000 H   0  0  0  0  0  0  0  0  0  0  0  0
    5.7087   -1.2093    0.0000 H   0  0  0  0  0  0  0  0  0  0  0  0
    6.2932    1.9930    0.0000 H   0  0  0  0  0  0  0  0  0  0  0  0
    4.5611   -0.0070    0.0000 H   0  0  0  0  0  0  0  0  0  0  0  0
    5.7520    1.7656    0.0000 H   0  0  0  0  0  0  0  0  0  0  0  0
    5.3535    1.0754    0.0000 H   0  0  0  0  0  0  0  0  0  0  0  0
    7.2976    0.7081    0.0000 H   0  0  0  0  0  0  0  0  0  0  0  0
    8.0947    0.7081    0.0000 H   0  0  0  0  0  0  0  0  0  0  0  0
    6.6181    3.2656    0.0000 H   0  0  0  0  0  0  0  0  0  0  0  0
    6.2196    2.5753    0.0000 H   0  0  0  0  0  0  0  0  0  0  0  0
    6.1762   -0.3996    0.0000 H   0  0  0  0  0  0  0  0  0  0  0  0
    6.5747    0.2907    0.0000 H   0  0  0  0  0  0  0  0  0  0  0  0
    8.5622    3.3030    0.0000 H   0  0  0  0  0  0  0  0  0  0  0  0
    8.7742    1.1004    0.0000 H   0  0  0  0  0  0  0  0  0  0  0  0
    9.1728    1.7907    0.0000 H   0  0  0  0  0  0  0  0  0  0  0  0
    8.0947    3.6580    0.0000 H   0  0  0  0  0  0  0  0  0  0  0  0
    7.2976    3.6580    0.0000 H   0  0  0  0  0  0  0  0  0  0  0  0
    5.1350   -3.8730    0.0000 H   0  0  0  0  0  0  0  0  0  0  0  0
    9.9651    2.8730    0.0000 H   0  0  0  0  0  0  0  0  0  0  0  0
    5.1350   -5.4930    0.0000 H   0  0  0  0  0  0  0  0  0  0  0  0
    3.7320   -6.3030    0.0000 H   0  0  0  0  0  0  0  0  0  0  0  0
   10.9142    5.6830    0.0000 H   0  0  0  0  0  0  0  0  0  0  0  0
   10.2942    6.3030    0.0000 H   0  0  0  0  0  0  0  0  0  0  0  0
    9.6742    5.6830    0.0000 H   0  0  0  0  0  0  0  0  0  0  0  0
   10.8503    3.6461    0.0000 H   0  0  0  0  0  0  0  0  0  0  0  0
   11.6972    3.8730    0.0000 H   0  0  0  0  0  0  0  0  0  0  0  0
   11.4703    4.7200    0.0000 H   0  0  0  0  0  0  0  0  0  0  0  0
  1 20  1  0  0  0  0
  2 22  1  0  0  0  0
  3 25  2  0  0  0  0
  4 10  1  0  0  0  0
  4 16  1  0  0  0  0
  4 35  1  0  0  0  0
  5 17  1  0  0  0  0
  5 25  1  0  0  0  0
  5 50  1  0  0  0  0
  6 25  1  0  0  0  0
  6 26  1  0  0  0  0
  6 27  1  0  0  0  0
  7  8  1  0  0  0  0
  7  9  1  0  0  0  0
  7 10  1  0  0  0  0
  7 28  1  0  0  0  0
  8  9  1  0  0  0  0
  8 11  1  0  0  0  0
  8 29  1  0  0  0  0
  9 30  1  0  0  0  0
  9 31  1  0  0  0  0
 10 32  1  0  0  0  0
 10 33  1  0  0  0  0
 11 20  2  0  0  0  0
 11 21  1  0  0  0  0
 12 13  1  0  0  0  0
 12 14  1  0  0  0  0
 12 15  1  0  0  0  0
 12 34  1  0  0  0  0
 13 16  1  0  0  0  0
 13 36  1  0  0  0  0
 13 37  1  0  0  0  0
 14 18  1  0  0  0  0
 14 38  1  0  0  0  0
 14 39  1  0  0  0  0
 15 19  1  0  0  0  0
 15 40  1  0  0  0  0
 15 41  1  0  0  0  0
 16 42  1  0  0  0  0
 16 43  1  0  0  0  0
 17 18  1  0  0  0  0
 17 19  1  0  0  0  0
 17 44  1  0  0  0  0
 18 45  1  0  0  0  0
 18 46  1  0  0  0  0
 19 47  1  0  0  0  0
 19 48  1  0  0  0  0
 20 22  1  0  0  0  0
 21 23  2  0  0  0  0
 21 49  1  0  0  0  0
 22 24  2  0  0  0  0
 23 24  1  0  0  0  0
 23 51  1  0  0  0  0
 24 52  1  0  0  0  0
 26 53  1  0  0  0  0
 26 54  1  0  0  0  0
 26 55  1  0  0  0  0
 27 56  1  0  0  0  0
 27 57  1  0  0  0  0
 27 58  1  0  0  0  0
M  END
> <PUBCHEM_COMPOUND_CID>
164616161

> <PUBCHEM_COMPOUND_CANONICALIZED>
1

> <PUBCHEM_CACTVS_COMPLEXITY>
482

> <PUBCHEM_CACTVS_HBOND_ACCEPTOR>
2

> <PUBCHEM_CACTVS_HBOND_DONOR>
2

> <PUBCHEM_CACTVS_ROTATABLE_BOND>
7

> <PUBCHEM_CACTVS_SUBSKEYS>
AAADceB7IAAGAAAAAAAAAAAAGAAAAAAAAAAwYAAAAAAAAAABAAAAHgIQAAAADSrBGCQzAIPAAACIAiBCEAACAAAgBQAIisAIAoiIICKBkxCEIAAolgKIiAcQgMAOgAAAIAABAAQQAABAAAIACAAAAAAAAA==

> <PUBCHEM_IUPAC_OPENEYE_NAME>
3-[4-[2-[[2-(2,3-dichlorophenyl)cyclopropyl]methylamino]ethyl]cyclohexyl]-1,1-dimethyl-urea

> <PUBCHEM_IUPAC_CAS_NAME>
3-[4-[2-[[2-(2,3-dichlorophenyl)cyclopropyl]methylamino]ethyl]cyclohexyl]-1,1-dimethylurea

> <PUBCHEM_IUPAC_NAME_MARKUP>
3-[4-[2-[[2-(2,3-dichlorophenyl)cyclopropyl]methylamino]ethyl]cyclohexyl]-1,1-dimethylurea

> <PUBCHEM_IUPAC_NAME>
3-[4-[2-[[2-(2,3-dichlorophenyl)cyclopropyl]methylamino]ethyl]cyclohexyl]-1,1-dimethylurea

> <PUBCHEM_IUPAC_SYSTEMATIC_NAME>
3-[4-[2-[[2-[2,3-bis(chloranyl)phenyl]cyclopropyl]methylamino]ethyl]cyclohexyl]-1,1-dimethyl-urea

> <PUBCHEM_IUPAC_TRADITIONAL_NAME>
3-[4-[2-[[2-(2,3-dichlorophenyl)cyclopropyl]methylamino]ethyl]cyclohexyl]-1,1-dimethyl-urea

> <PUBCHEM_IUPAC_INCHI>
InChI=1S/C21H31Cl2N3O/c1-26(2)21(27)25-16-8-6-14(7-9-16)10-11-24-13-15-12-18(15)17-4-3-5-19(22)20(17)23/h3-5,14-16,18,24H,6-13H2,1-2H3,(H,25,27)

> <PUBCHEM_IUPAC_INCHIKEY>
XBTXMNZRNGSFCU-UHFFFAOYSA-N

> <PUBCHEM_XLOGP3_AA>
4.4

> <PUBCHEM_EXACT_MASS>
411.1844180

> <PUBCHEM_MOLECULAR_FORMULA>
C21H31Cl2N3O

> <PUBCHEM_MOLECULAR_WEIGHT>
412.4

> <PUBCHEM_OPENEYE_CAN_SMILES>
CN(C)C(=O)NC1CCC(CC1)CCNCC2CC2C3=C(C(=CC=C3)Cl)Cl

> <PUBCHEM_OPENEYE_ISO_SMILES>
CN(C)C(=O)NC1CCC(CC1)CCNCC2CC2C3=C(C(=CC=C3)Cl)Cl

> <PUBCHEM_CACTVS_TPSA>
44.4

> <PUBCHEM_MONOISOTOPIC_WEIGHT>
411.1844180

> <PUBCHEM_TOTAL_CHARGE>
0

> <PUBCHEM_HEAVY_ATOM_COUNT>
27

> <PUBCHEM_ATOM_DEF_STEREO_COUNT>
0

> <PUBCHEM_ATOM_UDEF_STEREO_COUNT>
2

> <PUBCHEM_BOND_DEF_STEREO_COUNT>
0

> <PUBCHEM_BOND_UDEF_STEREO_COUNT>
0

> <PUBCHEM_ISOTOPIC_ATOM_COUNT>
0

> <PUBCHEM_COMPONENT_COUNT>
1

> <PUBCHEM_CACTVS_TAUTO_COUNT>
-1

> <PUBCHEM_COORDINATE_TYPE>
1
5
255

> <PUBCHEM_BONDANNOTATIONS>
11  20  8
11  21  8
20  22  8
21  23  8
22  24  8
23  24  8
7  10  3
8  11  3

$$$$
