16737207
  -OEChem-09292322502D

 24 25  0     0  0  0  0  0  0999 V2000
    5.0981    2.6581    0.0000 S   0  0  0  0  0  0  0  0  0  0  0  0
    6.3301   -3.8807    0.0000 F   0  0  0  0  0  0  0  0  0  0  0  0
    3.9170    4.3807    0.0000 F   0  0  0  0  0  0  0  0  0  0  0  0
    3.7891    1.7071    0.0000 N   0  0  0  0  0  0  0  0  0  0  0  0
    2.0000   -4.3807    0.0000 N   0  0  0  0  0  0  0  0  0  0  0  0
    4.5981   -1.8807    0.0000 C   0  0  0  0  0  0  0  0  0  0  0  0
    4.0981    2.6581    0.0000 C   0  0  0  0  0  0  0  0  0  0  0  0
    4.5981    1.1193    0.0000 C   0  0  0  0  0  0  0  0  0  0  0  0
    3.7320   -2.3807    0.0000 C   0  0  0  0  0  0  0  0  0  0  0  0
    5.4641   -2.3807    0.0000 C   0  0  0  0  0  0  0  0  0  0  0  0
    3.7320   -3.3807    0.0000 C   0  0  0  0  0  0  0  0  0  0  0  0
    5.4641   -3.3807    0.0000 C   0  0  0  0  0  0  0  0  0  0  0  0
    4.5981   -3.8807    0.0000 C   0  0  0  0  0  0  0  0  0  0  0  0
    5.4071    1.7071    0.0000 C   0  0  0  0  0  0  0  0  0  0  0  0
    3.5103    3.4672    0.0000 C   0  0  0  0  0  0  0  0  0  0  0  0
    4.5981   -0.8807    0.0000 C   0  0  0  0  0  0  0  0  0  0  0  0
    4.5981    0.1193    0.0000 C   0  0  0  0  0  0  0  0  0  0  0  0
    2.8660   -3.8807    0.0000 C   0  0  0  0  0  0  0  0  0  0  0  0
    3.1951   -2.0707    0.0000 H   0  0  0  0  0  0  0  0  0  0  0  0
    6.0010   -2.0707    0.0000 H   0  0  0  0  0  0  0  0  0  0  0  0
    5.9967    1.5155    0.0000 H   0  0  0  0  0  0  0  0  0  0  0  0
    4.5981   -4.5007    0.0000 H   0  0  0  0  0  0  0  0  0  0  0  0
    2.9963    3.8139    0.0000 H   0  0  0  0  0  0  0  0  0  0  0  0
    3.0796    3.0212    0.0000 H   0  0  0  0  0  0  0  0  0  0  0  0
  1  7  1  0  0  0  0
  1 14  1  0  0  0  0
  2 12  1  0  0  0  0
  3 15  1  0  0  0  0
  4  7  2  0  0  0  0
  4  8  1  0  0  0  0
  5 18  3  0  0  0  0
  6  9  2  0  0  0  0
  6 10  1  0  0  0  0
  6 16  1  0  0  0  0
  7 15  1  0  0  0  0
  8 14  2  0  0  0  0
  8 17  1  0  0  0  0
  9 11  1  0  0  0  0
  9 19  1  0  0  0  0
 10 12  2  0  0  0  0
 10 20  1  0  0  0  0
 11 13  2  0  0  0  0
 11 18  1  0  0  0  0
 12 13  1  0  0  0  0
 13 22  1  0  0  0  0
 14 21  1  0  0  0  0
 15 23  1  0  0  0  0
 15 24  1  0  0  0  0
 16 17  3  0  0  0  0
M  END
> <PUBCHEM_COMPOUND_CID>
16737207

> <PUBCHEM_COMPOUND_CANONICALIZED>
1

> <PUBCHEM_CACTVS_COMPLEXITY>
405

> <PUBCHEM_CACTVS_HBOND_ACCEPTOR>
5

> <PUBCHEM_CACTVS_HBOND_DONOR>
0

> <PUBCHEM_CACTVS_ROTATABLE_BOND>
3

> <PUBCHEM_CACTVS_SUBSKEYS>
AAADcYBzAYBAAAAAAAAAAAAAAAAAAWAAAAAwAAAAAAAAAAABwAAAHQQAAAAADAiFXgiwgZIIEAj0FyRiRAgi8KBhCjgAiBQQIIgIoCKgERCAIAAggACoiA8AgEAOAAACAAAAAAAAAAQAAAAAAAAAAAAAAA==

> <PUBCHEM_IUPAC_OPENEYE_NAME>
3-fluoro-5-[2-[2-(fluoromethyl)thiazol-4-yl]ethynyl]benzonitrile

> <PUBCHEM_IUPAC_CAS_NAME>
3-fluoro-5-[2-[2-(fluoromethyl)-4-thiazolyl]ethynyl]benzonitrile

> <PUBCHEM_IUPAC_NAME_MARKUP>
3-fluoro-5-[2-[2-(fluoromethyl)-1,3-thiazol-4-yl]ethynyl]benzonitrile

> <PUBCHEM_IUPAC_NAME>
3-fluoro-5-[2-[2-(fluoromethyl)-1,3-thiazol-4-yl]ethynyl]benzonitrile

> <PUBCHEM_IUPAC_SYSTEMATIC_NAME>
3-fluoranyl-5-[2-[2-(fluoranylmethyl)-1,3-thiazol-4-yl]ethynyl]benzenecarbonitrile

> <PUBCHEM_IUPAC_TRADITIONAL_NAME>
3-fluoro-5-[2-[2-(fluoromethyl)thiazol-4-yl]ethynyl]benzonitrile

> <PUBCHEM_IUPAC_INCHI>
InChI=1S/C13H6F2N2S/c14-6-13-17-12(8-18-13)2-1-9-3-10(7-16)5-11(15)4-9/h3-5,8H,6H2

> <PUBCHEM_IUPAC_INCHIKEY>
WTLBLIGPXACYET-UHFFFAOYSA-N

> <PUBCHEM_XLOGP3_AA>
3

> <PUBCHEM_EXACT_MASS>
260.02197570

> <PUBCHEM_MOLECULAR_FORMULA>
C13H6F2N2S

> <PUBCHEM_MOLECULAR_WEIGHT>
260.26

> <PUBCHEM_OPENEYE_CAN_SMILES>
C1=C(C=C(C=C1C#N)F)C#CC2=CSC(=N2)CF

> <PUBCHEM_OPENEYE_ISO_SMILES>
C1=C(C=C(C=C1C#N)F)C#CC2=CSC(=N2)CF

> <PUBCHEM_CACTVS_TPSA>
64.9

> <PUBCHEM_MONOISOTOPIC_WEIGHT>
260.02197570

> <PUBCHEM_TOTAL_CHARGE>
0

> <PUBCHEM_HEAVY_ATOM_COUNT>
18

> <PUBCHEM_ATOM_DEF_STEREO_COUNT>
0

> <PUBCHEM_ATOM_UDEF_STEREO_COUNT>
0

> <PUBCHEM_BOND_DEF_STEREO_COUNT>
0

> <PUBCHEM_BOND_UDEF_STEREO_COUNT>
0

> <PUBCHEM_ISOTOPIC_ATOM_COUNT>
0

> <PUBCHEM_COMPONENT_COUNT>
1

> <PUBCHEM_CACTVS_TAUTO_COUNT>
1

> <PUBCHEM_COORDINATE_TYPE>
1
5
255

> <PUBCHEM_BONDANNOTATIONS>
1  14  8
1  7  8
10  12  8
11  13  8
12  13  8
4  7  8
4  8  8
6  10  8
6  9  8
8  14  8
9  11  8

$$$$
