118719805
  -OEChem-09292322362D

 65 68  0     0  0  0  0  0  0999 V2000
   10.8964   -4.1317    0.0000 O   0  0  0  0  0  0  0  0  0  0  0  0
    3.8080    5.3227    0.0000 O   0  0  0  0  0  0  0  0  0  0  0  0
    9.1643   -1.1317    0.0000 N   0  0  0  0  0  0  0  0  0  0  0  0
    9.1643   -3.1317    0.0000 N   0  0  0  0  0  0  0  0  0  0  0  0
    4.9836    3.7047    0.0000 N   0  0  0  0  0  0  0  0  0  0  0  0
    6.4617    4.3628    0.0000 N   0  0  0  0  0  0  0  0  0  0  0  0
    5.4836    4.5707    0.0000 N   0  0  0  0  0  0  0  0  0  0  0  0
    8.2983   -1.6317    0.0000 C   0  0  0  0  0  0  0  0  0  0  0  0
   10.0303   -1.6317    0.0000 C   0  0  0  0  0  0  0  0  0  0  0  0
    8.2983   -2.6317    0.0000 C   0  0  0  0  0  0  0  0  0  0  0  0
   10.0303   -2.6317    0.0000 C   0  0  0  0  0  0  0  0  0  0  0  0
    9.1643   -0.1317    0.0000 C   0  0  0  0  0  0  0  0  0  0  0  0
    8.2983    0.3683    0.0000 C   0  0  0  0  0  0  0  0  0  0  0  0
    8.2983    1.3683    0.0000 C   0  0  0  0  0  0  0  0  0  0  0  0
    9.1643   -4.1317    0.0000 C   0  0  0  0  0  0  0  0  0  0  0  0
    7.4323    1.8683    0.0000 C   0  0  0  0  0  0  0  0  0  0  0  0
    7.4323    2.8683    0.0000 C   0  0  0  0  0  0  0  0  0  0  0  0
   10.0303   -4.6317    0.0000 C   0  0  0  0  0  0  0  0  0  0  0  0
    8.2983   -4.6317    0.0000 C   0  0  0  0  0  0  0  0  0  0  0  0
    6.5662    3.3683    0.0000 C   0  0  0  0  0  0  0  0  0  0  0  0
   10.0303   -5.6317    0.0000 C   0  0  0  0  0  0  0  0  0  0  0  0
    8.2983   -5.6317    0.0000 C   0  0  0  0  0  0  0  0  0  0  0  0
    9.1643   -6.1317    0.0000 C   0  0  0  0  0  0  0  0  0  0  0  0
    5.6527    2.9615    0.0000 C   0  0  0  0  0  0  0  0  0  0  0  0
   11.7624   -4.6317    0.0000 C   0  0  0  0  0  0  0  0  0  0  0  0
    3.9890    3.6002    0.0000 C   0  0  0  0  0  0  0  0  0  0  0  0
    3.4013    4.4092    0.0000 C   0  0  0  0  0  0  0  0  0  0  0  0
    3.5823    2.6866    0.0000 C   0  0  0  0  0  0  0  0  0  0  0  0
    2.4067    4.3046    0.0000 C   0  0  0  0  0  0  0  0  0  0  0  0
    2.5878    2.5821    0.0000 C   0  0  0  0  0  0  0  0  0  0  0  0
    2.0000    3.3911    0.0000 C   0  0  0  0  0  0  0  0  0  0  0  0
    3.2202    6.1317    0.0000 C   0  0  0  0  0  0  0  0  0  0  0  0
    8.0862   -1.0491    0.0000 H   0  0  0  0  0  0  0  0  0  0  0  0
    7.6877   -1.7394    0.0000 H   0  0  0  0  0  0  0  0  0  0  0  0
   10.6409   -1.7394    0.0000 H   0  0  0  0  0  0  0  0  0  0  0  0
   10.2424   -1.0491    0.0000 H   0  0  0  0  0  0  0  0  0  0  0  0
    7.6877   -2.5241    0.0000 H   0  0  0  0  0  0  0  0  0  0  0  0
    8.0862   -3.2143    0.0000 H   0  0  0  0  0  0  0  0  0  0  0  0
   10.2424   -3.2143    0.0000 H   0  0  0  0  0  0  0  0  0  0  0  0
   10.6409   -2.5241    0.0000 H   0  0  0  0  0  0  0  0  0  0  0  0
    9.7749   -0.2394    0.0000 H   0  0  0  0  0  0  0  0  0  0  0  0
    9.3764    0.4509    0.0000 H   0  0  0  0  0  0  0  0  0  0  0  0
    7.6877    0.4759    0.0000 H   0  0  0  0  0  0  0  0  0  0  0  0
    8.0862   -0.2143    0.0000 H   0  0  0  0  0  0  0  0  0  0  0  0
    8.9089    1.2606    0.0000 H   0  0  0  0  0  0  0  0  0  0  0  0
    8.5103    1.9509    0.0000 H   0  0  0  0  0  0  0  0  0  0  0  0
    6.8217    1.9759    0.0000 H   0  0  0  0  0  0  0  0  0  0  0  0
    7.2202    1.2857    0.0000 H   0  0  0  0  0  0  0  0  0  0  0  0
    8.0428    2.7606    0.0000 H   0  0  0  0  0  0  0  0  0  0  0  0
    7.6443    3.4509    0.0000 H   0  0  0  0  0  0  0  0  0  0  0  0
    7.7614   -4.3217    0.0000 H   0  0  0  0  0  0  0  0  0  0  0  0
   10.5673   -5.9417    0.0000 H   0  0  0  0  0  0  0  0  0  0  0  0
    7.7614   -5.9417    0.0000 H   0  0  0  0  0  0  0  0  0  0  0  0
    9.1643   -6.7517    0.0000 H   0  0  0  0  0  0  0  0  0  0  0  0
    5.5238    2.3551    0.0000 H   0  0  0  0  0  0  0  0  0  0  0  0
   11.4524   -5.1687    0.0000 H   0  0  0  0  0  0  0  0  0  0  0  0
   12.2993   -4.9417    0.0000 H   0  0  0  0  0  0  0  0  0  0  0  0
   12.0724   -4.0948    0.0000 H   0  0  0  0  0  0  0  0  0  0  0  0
    3.9467    2.1850    0.0000 H   0  0  0  0  0  0  0  0  0  0  0  0
    2.0423    4.8062    0.0000 H   0  0  0  0  0  0  0  0  0  0  0  0
    2.3356    2.0157    0.0000 H   0  0  0  0  0  0  0  0  0  0  0  0
    1.3834    3.3263    0.0000 H   0  0  0  0  0  0  0  0  0  0  0  0
    3.7218    6.4962    0.0000 H   0  0  0  0  0  0  0  0  0  0  0  0
    2.8558    6.6333    0.0000 H   0  0  0  0  0  0  0  0  0  0  0  0
    2.7186    5.7673    0.0000 H   0  0  0  0  0  0  0  0  0  0  0  0
  1 18  1  0  0  0  0
  1 25  1  0  0  0  0
  2 27  1  0  0  0  0
  2 32  1  0  0  0  0
  3  8  1  0  0  0  0
  3  9  1  0  0  0  0
  3 12  1  0  0  0  0
  4 10  1  0  0  0  0
  4 11  1  0  0  0  0
  4 15  1  0  0  0  0
  5  7  1  0  0  0  0
  5 24  1  0  0  0  0
  5 26  1  0  0  0  0
  6  7  2  0  0  0  0
  6 20  1  0  0  0  0
  8 10  1  0  0  0  0
  8 33  1  0  0  0  0
  8 34  1  0  0  0  0
  9 11  1  0  0  0  0
  9 35  1  0  0  0  0
  9 36  1  0  0  0  0
 10 37  1  0  0  0  0
 10 38  1  0  0  0  0
 11 39  1  0  0  0  0
 11 40  1  0  0  0  0
 12 13  1  0  0  0  0
 12 41  1  0  0  0  0
 12 42  1  0  0  0  0
 13 14  1  0  0  0  0
 13 43  1  0  0  0  0
 13 44  1  0  0  0  0
 14 16  1  0  0  0  0
 14 45  1  0  0  0  0
 14 46  1  0  0  0  0
 15 18  1  0  0  0  0
 15 19  2  0  0  0  0
 16 17  1  0  0  0  0
 16 47  1  0  0  0  0
 16 48  1  0  0  0  0
 17 20  1  0  0  0  0
 17 49  1  0  0  0  0
 17 50  1  0  0  0  0
 18 21  2  0  0  0  0
 19 22  1  0  0  0  0
 19 51  1  0  0  0  0
 20 24  2  0  0  0  0
 21 23  1  0  0  0  0
 21 52  1  0  0  0  0
 22 23  2  0  0  0  0
 22 53  1  0  0  0  0
 23 54  1  0  0  0  0
 24 55  1  0  0  0  0
 25 56  1  0  0  0  0
 25 57  1  0  0  0  0
 25 58  1  0  0  0  0
 26 27  1  0  0  0  0
 26 28  2  0  0  0  0
 27 29  2  0  0  0  0
 28 30  1  0  0  0  0
 28 59  1  0  0  0  0
 29 31  1  0  0  0  0
 29 60  1  0  0  0  0
 30 31  2  0  0  0  0
 30 61  1  0  0  0  0
 31 62  1  0  0  0  0
 32 63  1  0  0  0  0
 32 64  1  0  0  0  0
 32 65  1  0  0  0  0
M  END
> <PUBCHEM_COMPOUND_CID>
118719805

> <PUBCHEM_COMPOUND_CANONICALIZED>
1

> <PUBCHEM_CACTVS_COMPLEXITY>
531

> <PUBCHEM_CACTVS_HBOND_ACCEPTOR>
6

> <PUBCHEM_CACTVS_HBOND_DONOR>
0

> <PUBCHEM_CACTVS_ROTATABLE_BOND>
10

> <PUBCHEM_CACTVS_SUBSKEYS>
AAADcfB7sAAAAAAAAAAAAAAAAAAAAWAAAAA8YIAAAAAAAAAB0AAAHgAIAAAACAzBlgY+xpMIBACiATRnRACCDCQxsgAYmAA/fIgOZmLEsZuVMChkwBHY6AeQwAAAAAAAAAAAEAAAAAAAAAAgAAAAAAAAAA==

> <PUBCHEM_IUPAC_OPENEYE_NAME>
1-(2-methoxyphenyl)-4-[5-[1-(2-methoxyphenyl)triazol-4-yl]pentyl]piperazine

> <PUBCHEM_IUPAC_CAS_NAME>
1-(2-methoxyphenyl)-4-[5-[1-(2-methoxyphenyl)-4-triazolyl]pentyl]piperazine

> <PUBCHEM_IUPAC_NAME_MARKUP>
1-(2-methoxyphenyl)-4-[5-[1-(2-methoxyphenyl)triazol-4-yl]pentyl]piperazine

> <PUBCHEM_IUPAC_NAME>
1-(2-methoxyphenyl)-4-[5-[1-(2-methoxyphenyl)triazol-4-yl]pentyl]piperazine

> <PUBCHEM_IUPAC_SYSTEMATIC_NAME>
1-(2-methoxyphenyl)-4-[5-[1-(2-methoxyphenyl)-1,2,3-triazol-4-yl]pentyl]piperazine

> <PUBCHEM_IUPAC_TRADITIONAL_NAME>
1-(2-methoxyphenyl)-4-[5-[1-(2-methoxyphenyl)triazol-4-yl]pentyl]piperazine

> <PUBCHEM_IUPAC_INCHI>
InChI=1S/C25H33N5O2/c1-31-24-13-7-5-11-22(24)29-18-16-28(17-19-29)15-9-3-4-10-21-20-30(27-26-21)23-12-6-8-14-25(23)32-2/h5-8,11-14,20H,3-4,9-10,15-19H2,1-2H3

> <PUBCHEM_IUPAC_INCHIKEY>
XLWMSPHJQIPEOR-UHFFFAOYSA-N

> <PUBCHEM_XLOGP3_AA>
4.3

> <PUBCHEM_EXACT_MASS>
435.26342531

> <PUBCHEM_MOLECULAR_FORMULA>
C25H33N5O2

> <PUBCHEM_MOLECULAR_WEIGHT>
435.6

> <PUBCHEM_OPENEYE_CAN_SMILES>
COC1=CC=CC=C1N2CCN(CC2)CCCCCC3=CN(N=N3)C4=CC=CC=C4OC

> <PUBCHEM_OPENEYE_ISO_SMILES>
COC1=CC=CC=C1N2CCN(CC2)CCCCCC3=CN(N=N3)C4=CC=CC=C4OC

> <PUBCHEM_CACTVS_TPSA>
55.6

> <PUBCHEM_MONOISOTOPIC_WEIGHT>
435.26342531

> <PUBCHEM_TOTAL_CHARGE>
0

> <PUBCHEM_HEAVY_ATOM_COUNT>
32

> <PUBCHEM_ATOM_DEF_STEREO_COUNT>
0

> <PUBCHEM_ATOM_UDEF_STEREO_COUNT>
0

> <PUBCHEM_BOND_DEF_STEREO_COUNT>
0

> <PUBCHEM_BOND_UDEF_STEREO_COUNT>
0

> <PUBCHEM_ISOTOPIC_ATOM_COUNT>
0

> <PUBCHEM_COMPONENT_COUNT>
1

> <PUBCHEM_CACTVS_TAUTO_COUNT>
-1

> <PUBCHEM_COORDINATE_TYPE>
1
5
255

> <PUBCHEM_BONDANNOTATIONS>
15  18  8
15  19  8
18  21  8
19  22  8
20  24  8
21  23  8
22  23  8
26  27  8
26  28  8
27  29  8
28  30  8
29  31  8
30  31  8
5  24  8
5  7  8
6  20  8
6  7  8

$$$$
