127037852
  -OEChem-09292322362D

 58 61  0     1  0  0  0  0  0999 V2000
    5.9824    1.6149    0.0000 S   0  0  0  0  0  0  0  0  0  0  0  0
    8.5805   -7.8851    0.0000 F   0  0  0  0  0  0  0  0  0  0  0  0
    7.5805   -6.8851    0.0000 F   0  0  0  0  0  0  0  0  0  0  0  0
    9.5805   -6.8851    0.0000 F   0  0  0  0  0  0  0  0  0  0  0  0
    9.4465   -2.3851    0.0000 O   0  0  0  0  0  0  0  0  0  0  0  0
    7.7144   -1.3851    0.0000 N   0  0  3  0  0  0  0  0  0  0  0  0
    5.0118    3.1094    0.0000 N   0  0  0  0  0  0  0  0  0  0  0  0
    4.2028    1.7082    0.0000 N   0  0  0  0  0  0  0  0  0  0  0  0
    3.5337    2.4513    0.0000 N   0  0  0  0  0  0  0  0  0  0  0  0
    2.0000    7.8851    0.0000 N   0  0  0  0  0  0  0  0  0  0  0  0
    7.7144   -2.3851    0.0000 C   0  0  0  0  0  0  0  0  0  0  0  0
    8.5805   -2.8851    0.0000 C   0  0  3  0  0  0  0  0  0  0  0  0
    8.5805   -0.8851    0.0000 C   0  0  0  0  0  0  0  0  0  0  0  0
    6.8484   -0.8851    0.0000 C   0  0  0  0  0  0  0  0  0  0  0  0
    9.4465   -1.3851    0.0000 C   0  0  0  0  0  0  0  0  0  0  0  0
    8.5805   -3.8851    0.0000 C   0  0  0  0  0  0  0  0  0  0  0  0
    6.8484    0.1149    0.0000 C   0  0  0  0  0  0  0  0  0  0  0  0
    5.9824    0.6149    0.0000 C   0  0  0  0  0  0  0  0  0  0  0  0
    9.4465   -4.3851    0.0000 C   0  0  0  0  0  0  0  0  0  0  0  0
    7.7144   -4.3851    0.0000 C   0  0  0  0  0  0  0  0  0  0  0  0
    9.4465   -5.3851    0.0000 C   0  0  0  0  0  0  0  0  0  0  0  0
    7.7144   -5.3851    0.0000 C   0  0  0  0  0  0  0  0  0  0  0  0
    8.5805   -5.8851    0.0000 C   0  0  0  0  0  0  0  0  0  0  0  0
    5.1164    2.1149    0.0000 C   0  0  0  0  0  0  0  0  0  0  0  0
    8.5805   -6.8851    0.0000 C   0  0  0  0  0  0  0  0  0  0  0  0
    4.0337    3.3174    0.0000 C   0  0  0  0  0  0  0  0  0  0  0  0
    5.7550    3.7786    0.0000 C   0  0  0  0  0  0  0  0  0  0  0  0
    3.6270    4.2309    0.0000 C   0  0  0  0  0  0  0  0  0  0  0  0
    4.2147    5.0399    0.0000 C   0  0  0  0  0  0  0  0  0  0  0  0
    2.6324    4.3354    0.0000 C   0  0  0  0  0  0  0  0  0  0  0  0
    3.8080    5.9535    0.0000 C   0  0  0  0  0  0  0  0  0  0  0  0
    2.2257    5.2490    0.0000 C   0  0  0  0  0  0  0  0  0  0  0  0
    2.8135    6.0580    0.0000 C   0  0  0  0  0  0  0  0  0  0  0  0
    2.4067    6.9715    0.0000 C   0  0  0  0  0  0  0  0  0  0  0  0
    7.1038   -2.2774    0.0000 H   0  0  0  0  0  0  0  0  0  0  0  0
    7.5024   -2.9677    0.0000 H   0  0  0  0  0  0  0  0  0  0  0  0
    8.0435   -3.1951    0.0000 H   0  0  0  0  0  0  0  0  0  0  0  0
    8.9790   -0.4101    0.0000 H   0  0  0  0  0  0  0  0  0  0  0  0
    8.1819   -0.4101    0.0000 H   0  0  0  0  0  0  0  0  0  0  0  0
    6.2378   -0.7774    0.0000 H   0  0  0  0  0  0  0  0  0  0  0  0
    6.6364   -1.4677    0.0000 H   0  0  0  0  0  0  0  0  0  0  0  0
   10.0571   -1.4927    0.0000 H   0  0  0  0  0  0  0  0  0  0  0  0
    9.6585   -0.8025    0.0000 H   0  0  0  0  0  0  0  0  0  0  0  0
    7.4590    0.0073    0.0000 H   0  0  0  0  0  0  0  0  0  0  0  0
    7.0605    0.6975    0.0000 H   0  0  0  0  0  0  0  0  0  0  0  0
    5.3718    0.7226    0.0000 H   0  0  0  0  0  0  0  0  0  0  0  0
    5.7703    0.0323    0.0000 H   0  0  0  0  0  0  0  0  0  0  0  0
    9.9834   -4.0751    0.0000 H   0  0  0  0  0  0  0  0  0  0  0  0
    7.1775   -4.0751    0.0000 H   0  0  0  0  0  0  0  0  0  0  0  0
    9.9834   -5.6951    0.0000 H   0  0  0  0  0  0  0  0  0  0  0  0
    7.1775   -5.6951    0.0000 H   0  0  0  0  0  0  0  0  0  0  0  0
    6.1698    3.3178    0.0000 H   0  0  0  0  0  0  0  0  0  0  0  0
    6.2157    4.1934    0.0000 H   0  0  0  0  0  0  0  0  0  0  0  0
    5.3401    4.2393    0.0000 H   0  0  0  0  0  0  0  0  0  0  0  0
    4.8313    4.9751    0.0000 H   0  0  0  0  0  0  0  0  0  0  0  0
    2.2680    3.8338    0.0000 H   0  0  0  0  0  0  0  0  0  0  0  0
    4.1724    6.4550    0.0000 H   0  0  0  0  0  0  0  0  0  0  0  0
    1.6091    5.3138    0.0000 H   0  0  0  0  0  0  0  0  0  0  0  0
  1 18  1  0  0  0  0
  1 24  1  0  0  0  0
  2 25  1  0  0  0  0
  3 25  1  0  0  0  0
  4 25  1  0  0  0  0
  5 12  1  0  0  0  0
  5 15  1  0  0  0  0
  6 11  1  0  0  0  0
  6 13  1  0  0  0  0
  6 14  1  0  0  0  0
  7 24  1  0  0  0  0
  7 26  1  0  0  0  0
  7 27  1  0  0  0  0
  8  9  1  0  0  0  0
  8 24  2  0  0  0  0
  9 26  2  0  0  0  0
 10 34  3  0  0  0  0
 11 12  1  0  0  0  0
 11 35  1  0  0  0  0
 11 36  1  0  0  0  0
 12 16  1  0  0  0  0
 12 37  1  0  0  0  0
 13 15  1  0  0  0  0
 13 38  1  0  0  0  0
 13 39  1  0  0  0  0
 14 17  1  0  0  0  0
 14 40  1  0  0  0  0
 14 41  1  0  0  0  0
 15 42  1  0  0  0  0
 15 43  1  0  0  0  0
 16 19  2  0  0  0  0
 16 20  1  0  0  0  0
 17 18  1  0  0  0  0
 17 44  1  0  0  0  0
 17 45  1  0  0  0  0
 18 46  1  0  0  0  0
 18 47  1  0  0  0  0
 19 21  1  0  0  0  0
 19 48  1  0  0  0  0
 20 22  2  0  0  0  0
 20 49  1  0  0  0  0
 21 23  2  0  0  0  0
 21 50  1  0  0  0  0
 22 23  1  0  0  0  0
 22 51  1  0  0  0  0
 23 25  1  0  0  0  0
 26 28  1  0  0  0  0
 27 52  1  0  0  0  0
 27 53  1  0  0  0  0
 27 54  1  0  0  0  0
 28 29  2  0  0  0  0
 28 30  1  0  0  0  0
 29 31  1  0  0  0  0
 29 55  1  0  0  0  0
 30 32  2  0  0  0  0
 30 56  1  0  0  0  0
 31 33  2  0  0  0  0
 31 57  1  0  0  0  0
 32 33  1  0  0  0  0
 32 58  1  0  0  0  0
 33 34  1  0  0  0  0
M  END
> <PUBCHEM_COMPOUND_CID>
127037852

> <PUBCHEM_COMPOUND_CANONICALIZED>
1

> <PUBCHEM_CACTVS_COMPLEXITY>
688

> <PUBCHEM_CACTVS_HBOND_ACCEPTOR>
9

> <PUBCHEM_CACTVS_HBOND_DONOR>
0

> <PUBCHEM_CACTVS_ROTATABLE_BOND>
7

> <PUBCHEM_CACTVS_SUBSKEYS>
AAADceB7oYBAAAAAAAAAAAAAAAAAAWAAAAA8YIAAAAAAAAAB0AAAHwQIAAAADBTl2xazEIcMFAiyBiJiJACy0AtgALAdyCAoDJiKrqKguRmHMAhkyAOYqA+QwPAOQAAAAAAAAACAAAAAAAAAAAAAAAAAAA==

> <PUBCHEM_IUPAC_OPENEYE_NAME>
4-[4-methyl-5-[3-[2-[4-(trifluoromethyl)phenyl]morpholin-4-yl]propylsulfanyl]-1,2,4-triazol-3-yl]benzonitrile

> <PUBCHEM_IUPAC_CAS_NAME>
4-[4-methyl-5-[3-[2-[4-(trifluoromethyl)phenyl]-4-morpholinyl]propylthio]-1,2,4-triazol-3-yl]benzonitrile

> <PUBCHEM_IUPAC_NAME_MARKUP>
4-[4-methyl-5-[3-[2-[4-(trifluoromethyl)phenyl]morpholin-4-yl]propylsulfanyl]-1,2,4-triazol-3-yl]benzonitrile

> <PUBCHEM_IUPAC_NAME>
4-[4-methyl-5-[3-[2-[4-(trifluoromethyl)phenyl]morpholin-4-yl]propylsulfanyl]-1,2,4-triazol-3-yl]benzonitrile

> <PUBCHEM_IUPAC_SYSTEMATIC_NAME>
4-[4-methyl-5-[3-[2-[4-(trifluoromethyl)phenyl]morpholin-4-yl]propylsulfanyl]-1,2,4-triazol-3-yl]benzenecarbonitrile

> <PUBCHEM_IUPAC_TRADITIONAL_NAME>
4-[4-methyl-5-[3-[2-[4-(trifluoromethyl)phenyl]morpholino]propylthio]-1,2,4-triazol-3-yl]benzonitrile

> <PUBCHEM_IUPAC_INCHI>
InChI=1S/C24H24F3N5OS/c1-31-22(19-5-3-17(15-28)4-6-19)29-30-23(31)34-14-2-11-32-12-13-33-21(16-32)18-7-9-20(10-8-18)24(25,26)27/h3-10,21H,2,11-14,16H2,1H3

> <PUBCHEM_IUPAC_INCHIKEY>
RWOJEGLVFGCYFU-UHFFFAOYSA-N

> <PUBCHEM_XLOGP3_AA>
4.1

> <PUBCHEM_EXACT_MASS>
487.16536607

> <PUBCHEM_MOLECULAR_FORMULA>
C24H24F3N5OS

> <PUBCHEM_MOLECULAR_WEIGHT>
487.5

> <PUBCHEM_OPENEYE_CAN_SMILES>
CN1C(=NN=C1SCCCN2CCOC(C2)C3=CC=C(C=C3)C(F)(F)F)C4=CC=C(C=C4)C#N

> <PUBCHEM_OPENEYE_ISO_SMILES>
CN1C(=NN=C1SCCCN2CCOC(C2)C3=CC=C(C=C3)C(F)(F)F)C4=CC=C(C=C4)C#N

> <PUBCHEM_CACTVS_TPSA>
92.3

> <PUBCHEM_MONOISOTOPIC_WEIGHT>
487.16536607

> <PUBCHEM_TOTAL_CHARGE>
0

> <PUBCHEM_HEAVY_ATOM_COUNT>
34

> <PUBCHEM_ATOM_DEF_STEREO_COUNT>
0

> <PUBCHEM_ATOM_UDEF_STEREO_COUNT>
1

> <PUBCHEM_BOND_DEF_STEREO_COUNT>
0

> <PUBCHEM_BOND_UDEF_STEREO_COUNT>
0

> <PUBCHEM_ISOTOPIC_ATOM_COUNT>
0

> <PUBCHEM_COMPONENT_COUNT>
1

> <PUBCHEM_CACTVS_TAUTO_COUNT>
-1

> <PUBCHEM_COORDINATE_TYPE>
1
5
255

> <PUBCHEM_BONDANNOTATIONS>
12  16  3
16  19  8
16  20  8
19  21  8
20  22  8
21  23  8
22  23  8
28  29  8
28  30  8
29  31  8
30  32  8
31  33  8
32  33  8
7  24  8
7  26  8
8  24  8
8  9  8
9  26  8

$$$$
