44336000
  -OEChem-09292322182D

 53 56  0     1  0  0  0  0  0999 V2000
    7.8314   -4.3323    0.0000 Cl  0  0  0  0  0  0  0  0  0  0  0  0
    4.3211    0.8327    0.0000 O   0  0  0  0  0  0  0  0  0  0  0  0
    6.2781    0.4203    0.0000 N   0  0  0  0  0  0  0  0  0  0  0  0
    4.6783    2.5276    0.0000 N   0  0  0  0  0  0  0  0  0  0  0  0
    6.8994   -1.4807    0.0000 N   0  0  0  0  0  0  0  0  0  0  0  0
    5.2619    3.3323    0.0000 C   0  0  1  0  0  0  0  0  0  0  0  0
    5.6103   -0.3240    0.0000 C   0  0  0  0  0  0  0  0  0  0  0  0
    7.2566    0.2141    0.0000 C   0  0  0  0  0  0  0  0  0  0  0  0
    5.9209   -1.2745    0.0000 C   0  0  0  0  0  0  0  0  0  0  0  0
    7.5673   -0.7364    0.0000 C   0  0  0  0  0  0  0  0  0  0  0  0
    4.6783    4.1370    0.0000 C   0  0  0  0  0  0  0  0  0  0  0  0
    5.9674    1.3708    0.0000 C   0  0  0  0  0  0  0  0  0  0  0  0
    3.7320    2.8323    0.0000 C   0  0  0  0  0  0  0  0  0  0  0  0
    3.7320    3.8323    0.0000 C   0  0  0  0  0  0  0  0  0  0  0  0
    4.9889    1.5770    0.0000 C   0  0  0  0  0  0  0  0  0  0  0  0
    7.2101   -2.4313    0.0000 C   0  0  0  0  0  0  0  0  0  0  0  0
    6.2619    3.3323    0.0000 C   0  0  0  0  0  0  0  0  0  0  0  0
    2.8660    2.3323    0.0000 C   0  0  0  0  0  0  0  0  0  0  0  0
    2.8660    4.3323    0.0000 C   0  0  0  0  0  0  0  0  0  0  0  0
    8.1886   -2.6375    0.0000 C   0  0  0  0  0  0  0  0  0  0  0  0
    2.0000    2.8323    0.0000 C   0  0  0  0  0  0  0  0  0  0  0  0
    2.0000    3.8323    0.0000 C   0  0  0  0  0  0  0  0  0  0  0  0
    8.4993   -3.5880    0.0000 C   0  0  0  0  0  0  0  0  0  0  0  0
    8.8564   -1.8932    0.0000 C   0  0  0  0  0  0  0  0  0  0  0  0
    9.4778   -3.7942    0.0000 C   0  0  0  0  0  0  0  0  0  0  0  0
    9.8349   -2.0994    0.0000 C   0  0  0  0  0  0  0  0  0  0  0  0
   10.1456   -3.0499    0.0000 C   0  0  0  0  0  0  0  0  0  0  0  0
    5.5436    2.7800    0.0000 H   0  0  0  0  0  0  0  0  0  0  0  0
    5.2277    0.1639    0.0000 H   0  0  0  0  0  0  0  0  0  0  0  0
    5.0633   -0.6160    0.0000 H   0  0  0  0  0  0  0  0  0  0  0  0
    7.8704    0.3014    0.0000 H   0  0  0  0  0  0  0  0  0  0  0  0
    7.2772    0.8337    0.0000 H   0  0  0  0  0  0  0  0  0  0  0  0
    5.3071   -1.3619    0.0000 H   0  0  0  0  0  0  0  0  0  0  0  0
    5.9004   -1.8942    0.0000 H   0  0  0  0  0  0  0  0  0  0  0  0
    7.9498   -1.2243    0.0000 H   0  0  0  0  0  0  0  0  0  0  0  0
    8.1142   -0.4444    0.0000 H   0  0  0  0  0  0  0  0  0  0  0  0
    5.2156    4.4462    0.0000 H   0  0  0  0  0  0  0  0  0  0  0  0
    4.4272    4.7039    0.0000 H   0  0  0  0  0  0  0  0  0  0  0  0
    6.5812    1.4582    0.0000 H   0  0  0  0  0  0  0  0  0  0  0  0
    5.9880    1.9905    0.0000 H   0  0  0  0  0  0  0  0  0  0  0  0
    6.5963   -2.5186    0.0000 H   0  0  0  0  0  0  0  0  0  0  0  0
    7.1895   -3.0509    0.0000 H   0  0  0  0  0  0  0  0  0  0  0  0
    6.2619    2.7123    0.0000 H   0  0  0  0  0  0  0  0  0  0  0  0
    6.8819    3.3323    0.0000 H   0  0  0  0  0  0  0  0  0  0  0  0
    6.2619    3.9523    0.0000 H   0  0  0  0  0  0  0  0  0  0  0  0
    2.8660    1.7123    0.0000 H   0  0  0  0  0  0  0  0  0  0  0  0
    2.8660    4.9523    0.0000 H   0  0  0  0  0  0  0  0  0  0  0  0
    1.4631    2.5223    0.0000 H   0  0  0  0  0  0  0  0  0  0  0  0
    1.4631    4.1423    0.0000 H   0  0  0  0  0  0  0  0  0  0  0  0
    8.6638   -1.3038    0.0000 H   0  0  0  0  0  0  0  0  0  0  0  0
    9.6704   -4.3835    0.0000 H   0  0  0  0  0  0  0  0  0  0  0  0
   10.2490   -1.6379    0.0000 H   0  0  0  0  0  0  0  0  0  0  0  0
   10.7523   -3.1778    0.0000 H   0  0  0  0  0  0  0  0  0  0  0  0
  1 23  1  0  0  0  0
  2 15  2  0  0  0  0
  3  7  1  0  0  0  0
  3  8  1  0  0  0  0
  3 12  1  0  0  0  0
  4  6  1  0  0  0  0
  4 13  1  0  0  0  0
  4 15  1  0  0  0  0
  5  9  1  0  0  0  0
  5 10  1  0  0  0  0
  5 16  1  0  0  0  0
  6 11  1  0  0  0  0
  6 17  1  1  0  0  0
  6 28  1  0  0  0  0
  7  9  1  0  0  0  0
  7 29  1  0  0  0  0
  7 30  1  0  0  0  0
  8 10  1  0  0  0  0
  8 31  1  0  0  0  0
  8 32  1  0  0  0  0
  9 33  1  0  0  0  0
  9 34  1  0  0  0  0
 10 35  1  0  0  0  0
 10 36  1  0  0  0  0
 11 14  1  0  0  0  0
 11 37  1  0  0  0  0
 11 38  1  0  0  0  0
 12 15  1  0  0  0  0
 12 39  1  0  0  0  0
 12 40  1  0  0  0  0
 13 14  1  0  0  0  0
 13 18  2  0  0  0  0
 14 19  2  0  0  0  0
 16 20  1  0  0  0  0
 16 41  1  0  0  0  0
 16 42  1  0  0  0  0
 17 43  1  0  0  0  0
 17 44  1  0  0  0  0
 17 45  1  0  0  0  0
 18 21  1  0  0  0  0
 18 46  1  0  0  0  0
 19 22  1  0  0  0  0
 19 47  1  0  0  0  0
 20 23  1  0  0  0  0
 20 24  2  0  0  0  0
 21 22  2  0  0  0  0
 21 48  1  0  0  0  0
 22 49  1  0  0  0  0
 23 25  2  0  0  0  0
 24 26  1  0  0  0  0
 24 50  1  0  0  0  0
 25 27  1  0  0  0  0
 25 51  1  0  0  0  0
 26 27  2  0  0  0  0
 26 52  1  0  0  0  0
 27 53  1  0  0  0  0
M  END
> <PUBCHEM_COMPOUND_CID>
44336000

> <PUBCHEM_COMPOUND_CANONICALIZED>
1

> <PUBCHEM_CACTVS_COMPLEXITY>
508

> <PUBCHEM_CACTVS_HBOND_ACCEPTOR>
3

> <PUBCHEM_CACTVS_HBOND_DONOR>
0

> <PUBCHEM_CACTVS_ROTATABLE_BOND>
4

> <PUBCHEM_CACTVS_SUBSKEYS>
AAADceB7IAAEAAAAAAAAAAAAAAAAAWAAAAA8YIAAAAAAAFgBQAAAHgIAAAAADCrBmCQywIMAAACIAiVSUACCAAAhBwAIiACIZogIYCLBk7GUIAhghgDIyAcQgIAOAAAAAAADAAAAAAAAAAYAAAAAAAAAAA==

> <PUBCHEM_IUPAC_OPENEYE_NAME>
2-[4-[(2-chlorophenyl)methyl]piperazin-1-yl]-1-[(2R)-2-methylindolin-1-yl]ethanone

> <PUBCHEM_IUPAC_CAS_NAME>
2-[4-[(2-chlorophenyl)methyl]-1-piperazinyl]-1-[(2R)-2-methyl-2,3-dihydroindol-1-yl]ethanone

> <PUBCHEM_IUPAC_NAME_MARKUP>
2-[4-[(2-chlorophenyl)methyl]piperazin-1-yl]-1-[(2<I>R</I>)-2-methyl-2,3-dihydroindol-1-yl]ethanone

> <PUBCHEM_IUPAC_NAME>
2-[4-[(2-chlorophenyl)methyl]piperazin-1-yl]-1-[(2R)-2-methyl-2,3-dihydroindol-1-yl]ethanone

> <PUBCHEM_IUPAC_SYSTEMATIC_NAME>
2-[4-[(2-chlorophenyl)methyl]piperazin-1-yl]-1-[(2R)-2-methyl-2,3-dihydroindol-1-yl]ethanone

> <PUBCHEM_IUPAC_TRADITIONAL_NAME>
2-[4-(2-chlorobenzyl)piperazino]-1-[(2R)-2-methylindolin-1-yl]ethanone

> <PUBCHEM_IUPAC_INCHI>
InChI=1S/C22H26ClN3O/c1-17-14-18-6-3-5-9-21(18)26(17)22(27)16-25-12-10-24(11-13-25)15-19-7-2-4-8-20(19)23/h2-9,17H,10-16H2,1H3/t17-/m1/s1

> <PUBCHEM_IUPAC_INCHIKEY>
IEICVHLYUUMYCM-QGZVFWFLSA-N

> <PUBCHEM_XLOGP3_AA>
3.8

> <PUBCHEM_EXACT_MASS>
383.1764402

> <PUBCHEM_MOLECULAR_FORMULA>
C22H26ClN3O

> <PUBCHEM_MOLECULAR_WEIGHT>
383.9

> <PUBCHEM_OPENEYE_CAN_SMILES>
CC1CC2=CC=CC=C2N1C(=O)CN3CCN(CC3)CC4=CC=CC=C4Cl

> <PUBCHEM_OPENEYE_ISO_SMILES>
C[C@@H]1CC2=CC=CC=C2N1C(=O)CN3CCN(CC3)CC4=CC=CC=C4Cl

> <PUBCHEM_CACTVS_TPSA>
26.8

> <PUBCHEM_MONOISOTOPIC_WEIGHT>
383.1764402

> <PUBCHEM_TOTAL_CHARGE>
0

> <PUBCHEM_HEAVY_ATOM_COUNT>
27

> <PUBCHEM_ATOM_DEF_STEREO_COUNT>
1

> <PUBCHEM_ATOM_UDEF_STEREO_COUNT>
0

> <PUBCHEM_BOND_DEF_STEREO_COUNT>
0

> <PUBCHEM_BOND_UDEF_STEREO_COUNT>
0

> <PUBCHEM_ISOTOPIC_ATOM_COUNT>
0

> <PUBCHEM_COMPONENT_COUNT>
1

> <PUBCHEM_CACTVS_TAUTO_COUNT>
-1

> <PUBCHEM_COORDINATE_TYPE>
1
5
255

> <PUBCHEM_BONDANNOTATIONS>
13  14  8
13  18  8
14  19  8
18  21  8
19  22  8
20  23  8
20  24  8
21  22  8
23  25  8
24  26  8
25  27  8
26  27  8
6  17  5

$$$$
