71449642
  -OEChem-09292322332D

 43 45  0     1  0  0  0  0  0999 V2000
   10.6109    3.9156    0.0000 Cl  0  0  0  0  0  0  0  0  0  0  0  0
    7.7631    1.8465    0.0000 S   0  0  0  0  0  0  0  0  0  0  0  0
    9.3508    2.6555    0.0000 S   0  0  0  0  0  0  0  0  0  0  0  0
    2.8660   -1.1944    0.0000 O   0  0  0  0  0  0  0  0  0  0  0  0
    8.5721    1.2587    0.0000 O   0  0  0  0  0  0  0  0  0  0  0  0
    6.9540    2.4343    0.0000 O   0  0  0  0  0  0  0  0  0  0  0  0
    4.5981    0.8056    0.0000 N   0  0  3  0  0  0  0  0  0  0  0  0
    7.1753    1.0375    0.0000 N   0  0  0  0  0  0  0  0  0  0  0  0
    6.1808    1.1420    0.0000 C   0  0  3  0  0  0  0  0  0  0  0  0
    5.6808    2.0081    0.0000 C   0  0  0  0  0  0  0  0  0  0  0  0
    5.5116    0.3989    0.0000 C   0  0  0  0  0  0  0  0  0  0  0  0
    4.7026    1.8001    0.0000 C   0  0  0  0  0  0  0  0  0  0  0  0
    3.7320    0.3056    0.0000 C   0  0  0  0  0  0  0  0  0  0  0  0
    3.7320   -0.6944    0.0000 C   0  0  0  0  0  0  0  0  0  0  0  0
    8.3508    2.6555    0.0000 C   0  0  0  0  0  0  0  0  0  0  0  0
    8.0418    3.6066    0.0000 C   0  0  0  0  0  0  0  0  0  0  0  0
    2.8660   -2.1944    0.0000 C   0  0  0  0  0  0  0  0  0  0  0  0
    8.8508    4.1944    0.0000 C   0  0  0  0  0  0  0  0  0  0  0  0
    9.6599    3.6066    0.0000 C   0  0  0  0  0  0  0  0  0  0  0  0
    3.7320   -2.6944    0.0000 C   0  0  0  0  0  0  0  0  0  0  0  0
    2.0000   -2.6944    0.0000 C   0  0  0  0  0  0  0  0  0  0  0  0
    3.7320   -3.6944    0.0000 C   0  0  0  0  0  0  0  0  0  0  0  0
    2.0000   -3.6944    0.0000 C   0  0  0  0  0  0  0  0  0  0  0  0
    2.8660   -4.1944    0.0000 C   0  0  0  0  0  0  0  0  0  0  0  0
    6.4029    0.5632    0.0000 H   0  0  0  0  0  0  0  0  0  0  0  0
    6.2472    2.2602    0.0000 H   0  0  0  0  0  0  0  0  0  0  0  0
    5.4892    2.5977    0.0000 H   0  0  0  0  0  0  0  0  0  0  0  0
    5.2016   -0.1380    0.0000 H   0  0  0  0  0  0  0  0  0  0  0  0
    6.0132    0.0345    0.0000 H   0  0  0  0  0  0  0  0  0  0  0  0
    4.6378    2.4168    0.0000 H   0  0  0  0  0  0  0  0  0  0  0  0
    4.0826    1.8001    0.0000 H   0  0  0  0  0  0  0  0  0  0  0  0
    3.5200    0.8882    0.0000 H   0  0  0  0  0  0  0  0  0  0  0  0
    3.1215    0.1980    0.0000 H   0  0  0  0  0  0  0  0  0  0  0  0
    7.4274    0.4711    0.0000 H   0  0  0  0  0  0  0  0  0  0  0  0
    3.9441   -1.2770    0.0000 H   0  0  0  0  0  0  0  0  0  0  0  0
    4.3426   -0.5867    0.0000 H   0  0  0  0  0  0  0  0  0  0  0  0
    7.4522    3.7982    0.0000 H   0  0  0  0  0  0  0  0  0  0  0  0
    8.8508    4.8144    0.0000 H   0  0  0  0  0  0  0  0  0  0  0  0
    4.2690   -2.3844    0.0000 H   0  0  0  0  0  0  0  0  0  0  0  0
    1.4631   -2.3844    0.0000 H   0  0  0  0  0  0  0  0  0  0  0  0
    4.2690   -4.0044    0.0000 H   0  0  0  0  0  0  0  0  0  0  0  0
    1.4631   -4.0044    0.0000 H   0  0  0  0  0  0  0  0  0  0  0  0
    2.8660   -4.8144    0.0000 H   0  0  0  0  0  0  0  0  0  0  0  0
  1 19  1  0  0  0  0
  2  5  2  0  0  0  0
  2  6  2  0  0  0  0
  2  8  1  0  0  0  0
  2 15  1  0  0  0  0
  3 15  1  0  0  0  0
  3 19  1  0  0  0  0
  4 14  1  0  0  0  0
  4 17  1  0  0  0  0
  7 11  1  0  0  0  0
  7 12  1  0  0  0  0
  7 13  1  0  0  0  0
  8  9  1  0  0  0  0
  8 34  1  0  0  0  0
  9 10  1  0  0  0  0
  9 11  1  0  0  0  0
  9 25  1  0  0  0  0
 10 12  1  0  0  0  0
 10 26  1  0  0  0  0
 10 27  1  0  0  0  0
 11 28  1  0  0  0  0
 11 29  1  0  0  0  0
 12 30  1  0  0  0  0
 12 31  1  0  0  0  0
 13 14  1  0  0  0  0
 13 32  1  0  0  0  0
 13 33  1  0  0  0  0
 14 35  1  0  0  0  0
 14 36  1  0  0  0  0
 15 16  2  0  0  0  0
 16 18  1  0  0  0  0
 16 37  1  0  0  0  0
 17 20  2  0  0  0  0
 17 21  1  0  0  0  0
 18 19  2  0  0  0  0
 18 38  1  0  0  0  0
 20 22  1  0  0  0  0
 20 39  1  0  0  0  0
 21 23  2  0  0  0  0
 21 40  1  0  0  0  0
 22 24  2  0  0  0  0
 22 41  1  0  0  0  0
 23 24  1  0  0  0  0
 23 42  1  0  0  0  0
 24 43  1  0  0  0  0
M  END
> <PUBCHEM_COMPOUND_CID>
71449642

> <PUBCHEM_COMPOUND_CANONICALIZED>
1

> <PUBCHEM_CACTVS_COMPLEXITY>
494

> <PUBCHEM_CACTVS_HBOND_ACCEPTOR>
6

> <PUBCHEM_CACTVS_HBOND_DONOR>
1

> <PUBCHEM_CACTVS_ROTATABLE_BOND>
7

> <PUBCHEM_CACTVS_SUBSKEYS>
AAADceB7MABkAAAAAAAAAAAAAAAAAWJAAAAwAAAAAAAAAAABwAAAHgYQQAAACC7h0CYwB4NABAqEACBCAHBDCZAgLRBIiJgOCogOZiKl8xqXOCCk0BG4qAeAQAAAAAAAAAAAAAAAAAAAAAAAAAAAAAAAAA==

> <PUBCHEM_IUPAC_OPENEYE_NAME>
5-chloro-N-[1-(2-phenoxyethyl)pyrrolidin-3-yl]thiophene-2-sulfonamide

> <PUBCHEM_IUPAC_CAS_NAME>
5-chloro-N-[1-(2-phenoxyethyl)-3-pyrrolidinyl]-2-thiophenesulfonamide

> <PUBCHEM_IUPAC_NAME_MARKUP>
5-chloro-<I>N</I>-[1-(2-phenoxyethyl)pyrrolidin-3-yl]thiophene-2-sulfonamide

> <PUBCHEM_IUPAC_NAME>
5-chloro-N-[1-(2-phenoxyethyl)pyrrolidin-3-yl]thiophene-2-sulfonamide

> <PUBCHEM_IUPAC_SYSTEMATIC_NAME>
5-chloranyl-N-[1-(2-phenoxyethyl)pyrrolidin-3-yl]thiophene-2-sulfonamide

> <PUBCHEM_IUPAC_TRADITIONAL_NAME>
5-chloro-N-[1-(2-phenoxyethyl)pyrrolidin-3-yl]thiophene-2-sulfonamide

> <PUBCHEM_IUPAC_INCHI>
InChI=1S/C16H19ClN2O3S2/c17-15-6-7-16(23-15)24(20,21)18-13-8-9-19(12-13)10-11-22-14-4-2-1-3-5-14/h1-7,13,18H,8-12H2

> <PUBCHEM_IUPAC_INCHIKEY>
ALMBNZHSWURVRM-UHFFFAOYSA-N

> <PUBCHEM_XLOGP3_AA>
3.8

> <PUBCHEM_EXACT_MASS>
386.0525625

> <PUBCHEM_MOLECULAR_FORMULA>
C16H19ClN2O3S2

> <PUBCHEM_MOLECULAR_WEIGHT>
386.9

> <PUBCHEM_OPENEYE_CAN_SMILES>
C1CN(CC1NS(=O)(=O)C2=CC=C(S2)Cl)CCOC3=CC=CC=C3

> <PUBCHEM_OPENEYE_ISO_SMILES>
C1CN(CC1NS(=O)(=O)C2=CC=C(S2)Cl)CCOC3=CC=CC=C3

> <PUBCHEM_CACTVS_TPSA>
95.3

> <PUBCHEM_MONOISOTOPIC_WEIGHT>
386.0525625

> <PUBCHEM_TOTAL_CHARGE>
0

> <PUBCHEM_HEAVY_ATOM_COUNT>
24

> <PUBCHEM_ATOM_DEF_STEREO_COUNT>
0

> <PUBCHEM_ATOM_UDEF_STEREO_COUNT>
1

> <PUBCHEM_BOND_DEF_STEREO_COUNT>
0

> <PUBCHEM_BOND_UDEF_STEREO_COUNT>
0

> <PUBCHEM_ISOTOPIC_ATOM_COUNT>
0

> <PUBCHEM_COMPONENT_COUNT>
1

> <PUBCHEM_CACTVS_TAUTO_COUNT>
-1

> <PUBCHEM_COORDINATE_TYPE>
1
5
255

> <PUBCHEM_BONDANNOTATIONS>
15  16  8
16  18  8
17  20  8
17  21  8
18  19  8
20  22  8
21  23  8
22  24  8
23  24  8
3  15  8
3  19  8
9  8  3

$$$$
