127031424
  -OEChem-09292322372D

 57 60  0     1  0  0  0  0  0999 V2000
    2.8963    2.0935    0.0000 O   0  0  0  0  0  0  0  0  0  0  0  0
    4.6622    3.1313    0.0000 O   0  0  0  0  0  0  0  0  0  0  0  0
    3.8372   -5.6346    0.0000 O   0  0  0  0  0  0  0  0  0  0  0  0
    5.6405   -4.5749    0.0000 O   0  0  0  0  0  0  0  0  0  0  0  0
    2.9180   -0.9379    0.0000 N   0  0  3  0  0  0  0  0  0  0  0  0
    3.7841   -1.4379    0.0000 C   0  0  3  0  0  0  0  0  0  0  0  0
    4.6501   -0.9379    0.0000 C   0  0  0  0  0  0  0  0  0  0  0  0
    2.0080   -1.4448    0.0000 C   0  0  0  0  0  0  0  0  0  0  0  0
    3.8001   -2.4794    0.0000 C   0  0  0  0  0  0  0  0  0  0  0  0
    2.9180    0.0621    0.0000 C   0  0  0  0  0  0  0  0  0  0  0  0
    2.0000   -2.4864    0.0000 C   0  0  0  0  0  0  0  0  0  0  0  0
    4.6501    0.0621    0.0000 C   0  0  0  0  0  0  0  0  0  0  0  0
    3.7841    0.5621    0.0000 C   0  0  0  0  0  0  0  0  0  0  0  0
    2.9021   -3.0072    0.0000 C   0  0  0  0  0  0  0  0  0  0  0  0
    4.7520   -3.0001    0.0000 C   0  0  0  0  0  0  0  0  0  0  0  0
    3.7680    1.6036    0.0000 C   0  0  0  0  0  0  0  0  0  0  0  0
    5.5601    0.5689    0.0000 C   0  0  0  0  0  0  0  0  0  0  0  0
    2.8937   -4.0922    0.0000 C   0  0  0  0  0  0  0  0  0  0  0  0
    4.7688   -4.0849    0.0000 C   0  0  0  0  0  0  0  0  0  0  0  0
    4.6660    2.1313    0.0000 C   0  0  0  0  0  0  0  0  0  0  0  0
    3.8334   -4.6346    0.0000 C   0  0  0  0  0  0  0  0  0  0  0  0
    5.5681    1.6105    0.0000 C   0  0  0  0  0  0  0  0  0  0  0  0
    5.5263    3.6347    0.0000 C   0  0  0  0  0  0  0  0  0  0  0  0
    2.8847    3.0935    0.0000 C   0  0  0  0  0  0  0  0  0  0  0  0
    5.5224    4.6346    0.0000 C   0  0  0  0  0  0  0  0  0  0  0  0
    2.9731   -6.1380    0.0000 C   0  0  0  0  0  0  0  0  0  0  0  0
    6.3865    5.1380    0.0000 C   0  0  0  0  0  0  0  0  0  0  0  0
    6.3826    6.1380    0.0000 C   0  0  0  0  0  0  0  0  0  0  0  0
    4.3234   -1.7438    0.0000 H   0  0  0  0  0  0  0  0  0  0  0  0
    4.8621   -1.5205    0.0000 H   0  0  0  0  0  0  0  0  0  0  0  0
    5.2607   -0.8303    0.0000 H   0  0  0  0  0  0  0  0  0  0  0  0
    1.8035   -0.8595    0.0000 H   0  0  0  0  0  0  0  0  0  0  0  0
    1.3964   -1.5462    0.0000 H   0  0  0  0  0  0  0  0  0  0  0  0
    2.7060    0.6447    0.0000 H   0  0  0  0  0  0  0  0  0  0  0  0
    2.3074   -0.0456    0.0000 H   0  0  0  0  0  0  0  0  0  0  0  0
    1.3900   -2.3756    0.0000 H   0  0  0  0  0  0  0  0  0  0  0  0
    1.7864   -3.0684    0.0000 H   0  0  0  0  0  0  0  0  0  0  0  0
    5.2829   -2.6798    0.0000 H   0  0  0  0  0  0  0  0  0  0  0  0
    6.0934    0.2527    0.0000 H   0  0  0  0  0  0  0  0  0  0  0  0
    2.3556   -4.4001    0.0000 H   0  0  0  0  0  0  0  0  0  0  0  0
    6.1062    1.9184    0.0000 H   0  0  0  0  0  0  0  0  0  0  0  0
    5.6477   -5.1948    0.0000 H   0  0  0  0  0  0  0  0  0  0  0  0
    5.7406    3.0529    0.0000 H   0  0  0  0  0  0  0  0  0  0  0  0
    6.1364    3.7447    0.0000 H   0  0  0  0  0  0  0  0  0  0  0  0
    3.5046    3.1006    0.0000 H   0  0  0  0  0  0  0  0  0  0  0  0
    2.8775    3.7134    0.0000 H   0  0  0  0  0  0  0  0  0  0  0  0
    2.2647    3.0863    0.0000 H   0  0  0  0  0  0  0  0  0  0  0  0
    5.3081    5.2164    0.0000 H   0  0  0  0  0  0  0  0  0  0  0  0
    4.9123    4.5246    0.0000 H   0  0  0  0  0  0  0  0  0  0  0  0
    2.6610   -5.6022    0.0000 H   0  0  0  0  0  0  0  0  0  0  0  0
    2.4374   -6.4500    0.0000 H   0  0  0  0  0  0  0  0  0  0  0  0
    3.2852   -6.6737    0.0000 H   0  0  0  0  0  0  0  0  0  0  0  0
    6.6008    4.5562    0.0000 H   0  0  0  0  0  0  0  0  0  0  0  0
    6.9967    5.2480    0.0000 H   0  0  0  0  0  0  0  0  0  0  0  0
    7.0026    6.1404    0.0000 H   0  0  0  0  0  0  0  0  0  0  0  0
    6.3803    6.7580    0.0000 H   0  0  0  0  0  0  0  0  0  0  0  0
    5.7627    6.1356    0.0000 H   0  0  0  0  0  0  0  0  0  0  0  0
  1 16  1  0  0  0  0
  1 24  1  0  0  0  0
  2 20  1  0  0  0  0
  2 23  1  0  0  0  0
  3 21  1  0  0  0  0
  3 26  1  0  0  0  0
  4 19  1  0  0  0  0
  4 42  1  0  0  0  0
  5  6  1  0  0  0  0
  5  8  1  0  0  0  0
  5 10  1  0  0  0  0
  6  7  1  0  0  0  0
  6  9  1  0  0  0  0
  6 29  1  0  0  0  0
  7 12  1  0  0  0  0
  7 30  1  0  0  0  0
  7 31  1  0  0  0  0
  8 11  1  0  0  0  0
  8 32  1  0  0  0  0
  8 33  1  0  0  0  0
  9 14  1  0  0  0  0
  9 15  2  0  0  0  0
 10 13  1  0  0  0  0
 10 34  1  0  0  0  0
 10 35  1  0  0  0  0
 11 14  1  0  0  0  0
 11 36  1  0  0  0  0
 11 37  1  0  0  0  0
 12 13  2  0  0  0  0
 12 17  1  0  0  0  0
 13 16  1  0  0  0  0
 14 18  2  0  0  0  0
 15 19  1  0  0  0  0
 15 38  1  0  0  0  0
 16 20  2  0  0  0  0
 17 22  2  0  0  0  0
 17 39  1  0  0  0  0
 18 21  1  0  0  0  0
 18 40  1  0  0  0  0
 19 21  2  0  0  0  0
 20 22  1  0  0  0  0
 22 41  1  0  0  0  0
 23 25  1  0  0  0  0
 23 43  1  0  0  0  0
 23 44  1  0  0  0  0
 24 45  1  0  0  0  0
 24 46  1  0  0  0  0
 24 47  1  0  0  0  0
 25 27  1  0  0  0  0
 25 48  1  0  0  0  0
 25 49  1  0  0  0  0
 26 50  1  0  0  0  0
 26 51  1  0  0  0  0
 26 52  1  0  0  0  0
 27 28  1  0  0  0  0
 27 53  1  0  0  0  0
 27 54  1  0  0  0  0
 28 55  1  0  0  0  0
 28 56  1  0  0  0  0
 28 57  1  0  0  0  0
M  END
> <PUBCHEM_COMPOUND_CID>
127031424

> <PUBCHEM_COMPOUND_CANONICALIZED>
1

> <PUBCHEM_CACTVS_COMPLEXITY>
503

> <PUBCHEM_CACTVS_HBOND_ACCEPTOR>
5

> <PUBCHEM_CACTVS_HBOND_DONOR>
1

> <PUBCHEM_CACTVS_ROTATABLE_BOND>
6

> <PUBCHEM_CACTVS_SUBSKEYS>
AAADceB6OAAAAAAAAAAAAAAAAAAAAAAAAAA8eIEAAAAAAACxQAAAHgAACAAADCzhmAYyBoMABgCAAiBCAACCCAAgIAAIiAAOjIgNJiKGsRuGeCvmwBGLuAew0PMOoAABAAAYQABAAAIAADCAAAAAAAAAAA==

> <PUBCHEM_IUPAC_OPENEYE_NAME>
10-butoxy-3,9-dimethoxy-6,8,13,13a-tetrahydro-5H-isoquinolino[2,1-b]isoquinolin-2-ol

> <PUBCHEM_IUPAC_CAS_NAME>
10-butoxy-3,9-dimethoxy-6,8,13,13a-tetrahydro-5H-isoquinolino[2,1-b]isoquinolin-2-ol

> <PUBCHEM_IUPAC_NAME_MARKUP>
10-butoxy-3,9-dimethoxy-6,8,13,13<I>a</I>-tetrahydro-5<I>H</I>-isoquinolino[2,1-b]isoquinolin-2-ol

> <PUBCHEM_IUPAC_NAME>
10-butoxy-3,9-dimethoxy-6,8,13,13a-tetrahydro-5H-isoquinolino[2,1-b]isoquinolin-2-ol

> <PUBCHEM_IUPAC_SYSTEMATIC_NAME>
10-butoxy-3,9-dimethoxy-6,8,13,13a-tetrahydro-5H-isoquinolino[2,1-b]isoquinolin-2-ol

> <PUBCHEM_IUPAC_TRADITIONAL_NAME>
10-butoxy-3,9-dimethoxy-6,8,13,13a-tetrahydro-5H-isoquinolin[2,1-b]isoquinolin-2-ol

> <PUBCHEM_IUPAC_INCHI>
InChI=1S/C23H29NO4/c1-4-5-10-28-21-7-6-15-11-19-17-13-20(25)22(26-2)12-16(17)8-9-24(19)14-18(15)23(21)27-3/h6-7,12-13,19,25H,4-5,8-11,14H2,1-3H3

> <PUBCHEM_IUPAC_INCHIKEY>
RZLZELGICQMPFL-UHFFFAOYSA-N

> <PUBCHEM_XLOGP3_AA>
4.2

> <PUBCHEM_EXACT_MASS>
383.20965841

> <PUBCHEM_MOLECULAR_FORMULA>
C23H29NO4

> <PUBCHEM_MOLECULAR_WEIGHT>
383.5

> <PUBCHEM_OPENEYE_CAN_SMILES>
CCCCOC1=C(C2=C(CC3C4=CC(=C(C=C4CCN3C2)OC)O)C=C1)OC

> <PUBCHEM_OPENEYE_ISO_SMILES>
CCCCOC1=C(C2=C(CC3C4=CC(=C(C=C4CCN3C2)OC)O)C=C1)OC

> <PUBCHEM_CACTVS_TPSA>
51.2

> <PUBCHEM_MONOISOTOPIC_WEIGHT>
383.20965841

> <PUBCHEM_TOTAL_CHARGE>
0

> <PUBCHEM_HEAVY_ATOM_COUNT>
28

> <PUBCHEM_ATOM_DEF_STEREO_COUNT>
0

> <PUBCHEM_ATOM_UDEF_STEREO_COUNT>
1

> <PUBCHEM_BOND_DEF_STEREO_COUNT>
0

> <PUBCHEM_BOND_UDEF_STEREO_COUNT>
0

> <PUBCHEM_ISOTOPIC_ATOM_COUNT>
0

> <PUBCHEM_COMPONENT_COUNT>
1

> <PUBCHEM_CACTVS_TAUTO_COUNT>
-1

> <PUBCHEM_COORDINATE_TYPE>
1
5
255

> <PUBCHEM_BONDANNOTATIONS>
12  13  8
12  17  8
13  16  8
14  18  8
15  19  8
16  20  8
17  22  8
18  21  8
19  21  8
20  22  8
6  7  3
9  14  8
9  15  8

$$$$
