122132
  -OEChem-09292322142D

 32 33  0     1  0  0  0  0  0999 V2000
    2.0000   -0.7979    0.0000 O   0  0  0  0  0  0  0  0  0  0  0  0
    2.0000    1.2021    0.0000 O   0  0  0  0  0  0  0  0  0  0  0  0
    7.2622   -0.8221    0.0000 N   0  0  0  0  0  0  0  0  0  0  0  0
    6.3981   -0.3187    0.0000 C   0  0  3  0  0  0  0  0  0  0  0  0
    6.3981    0.7229    0.0000 C   0  0  0  0  0  0  0  0  0  0  0  0
    5.4920   -0.8326    0.0000 C   0  0  0  0  0  0  0  0  0  0  0  0
    5.4920    1.2367    0.0000 C   0  0  0  0  0  0  0  0  0  0  0  0
    4.5981   -0.2979    0.0000 C   0  0  0  0  0  0  0  0  0  0  0  0
    4.5981    0.7021    0.0000 C   0  0  0  0  0  0  0  0  0  0  0  0
    3.7320   -0.7979    0.0000 C   0  0  0  0  0  0  0  0  0  0  0  0
    3.7320    1.2021    0.0000 C   0  0  0  0  0  0  0  0  0  0  0  0
    8.1301   -0.3254    0.0000 C   0  0  0  0  0  0  0  0  0  0  0  0
    7.2583   -1.8221    0.0000 C   0  0  0  0  0  0  0  0  0  0  0  0
    2.8660   -0.2979    0.0000 C   0  0  0  0  0  0  0  0  0  0  0  0
    2.8660    0.7021    0.0000 C   0  0  0  0  0  0  0  0  0  0  0  0
    6.9356   -0.0098    0.0000 H   0  0  0  0  0  0  0  0  0  0  0  0
    7.0089    0.6168    0.0000 H   0  0  0  0  0  0  0  0  0  0  0  0
    6.6071    1.3066    0.0000 H   0  0  0  0  0  0  0  0  0  0  0  0
    5.0874   -1.3024    0.0000 H   0  0  0  0  0  0  0  0  0  0  0  0
    5.8856   -1.3116    0.0000 H   0  0  0  0  0  0  0  0  0  0  0  0
    5.8856    1.7158    0.0000 H   0  0  0  0  0  0  0  0  0  0  0  0
    5.0874    1.7065    0.0000 H   0  0  0  0  0  0  0  0  0  0  0  0
    3.7320   -1.4179    0.0000 H   0  0  0  0  0  0  0  0  0  0  0  0
    3.7320    1.8221    0.0000 H   0  0  0  0  0  0  0  0  0  0  0  0
    8.4380   -0.8635    0.0000 H   0  0  0  0  0  0  0  0  0  0  0  0
    8.6682   -0.0175    0.0000 H   0  0  0  0  0  0  0  0  0  0  0  0
    7.8222    0.2127    0.0000 H   0  0  0  0  0  0  0  0  0  0  0  0
    6.6383   -1.8197    0.0000 H   0  0  0  0  0  0  0  0  0  0  0  0
    7.2559   -2.4421    0.0000 H   0  0  0  0  0  0  0  0  0  0  0  0
    7.8783   -1.8245    0.0000 H   0  0  0  0  0  0  0  0  0  0  0  0
    2.0000   -1.4179    0.0000 H   0  0  0  0  0  0  0  0  0  0  0  0
    2.0000    1.8221    0.0000 H   0  0  0  0  0  0  0  0  0  0  0  0
  1 14  1  0  0  0  0
  1 31  1  0  0  0  0
  2 15  1  0  0  0  0
  2 32  1  0  0  0  0
  3  4  1  0  0  0  0
  3 12  1  0  0  0  0
  3 13  1  0  0  0  0
  4  5  1  0  0  0  0
  4  6  1  0  0  0  0
  4 16  1  0  0  0  0
  5  7  1  0  0  0  0
  5 17  1  0  0  0  0
  5 18  1  0  0  0  0
  6  8  1  0  0  0  0
  6 19  1  0  0  0  0
  6 20  1  0  0  0  0
  7  9  1  0  0  0  0
  7 21  1  0  0  0  0
  7 22  1  0  0  0  0
  8  9  1  0  0  0  0
  8 10  2  0  0  0  0
  9 11  2  0  0  0  0
 10 14  1  0  0  0  0
 10 23  1  0  0  0  0
 11 15  1  0  0  0  0
 11 24  1  0  0  0  0
 12 25  1  0  0  0  0
 12 26  1  0  0  0  0
 12 27  1  0  0  0  0
 13 28  1  0  0  0  0
 13 29  1  0  0  0  0
 13 30  1  0  0  0  0
 14 15  2  0  0  0  0
M  END
> <PUBCHEM_COMPOUND_CID>
122132

> <PUBCHEM_COMPOUND_CANONICALIZED>
1

> <PUBCHEM_CACTVS_COMPLEXITY>
220

> <PUBCHEM_CACTVS_HBOND_ACCEPTOR>
3

> <PUBCHEM_CACTVS_HBOND_DONOR>
2

> <PUBCHEM_CACTVS_ROTATABLE_BOND>
1

> <PUBCHEM_CACTVS_SUBSKEYS>
AAADceByMAAAAAAAAAAAAAAAAAAAAAAAAAAwYAAAAAAAAADBAAAAHgAACAAADCzBmAQyBoMAAgCAAiBCAAACAAAgIAAAiAAOiIgJJiKCkROEcAEkwBEJmAeQ0LMOoAABAAAQQABQAAKAACCAAAAAAAAAAA==

> <PUBCHEM_IUPAC_OPENEYE_NAME>
2-(dimethylamino)tetralin-6,7-diol

> <PUBCHEM_IUPAC_CAS_NAME>
6-(dimethylamino)-5,6,7,8-tetrahydronaphthalene-2,3-diol

> <PUBCHEM_IUPAC_NAME_MARKUP>
6-(dimethylamino)-5,6,7,8-tetrahydronaphthalene-2,3-diol

> <PUBCHEM_IUPAC_NAME>
6-(dimethylamino)-5,6,7,8-tetrahydronaphthalene-2,3-diol

> <PUBCHEM_IUPAC_SYSTEMATIC_NAME>
6-(dimethylamino)-5,6,7,8-tetrahydronaphthalene-2,3-diol

> <PUBCHEM_IUPAC_TRADITIONAL_NAME>
2-(dimethylamino)tetralin-6,7-diol

> <PUBCHEM_IUPAC_INCHI>
InChI=1S/C12H17NO2/c1-13(2)10-4-3-8-6-11(14)12(15)7-9(8)5-10/h6-7,10,14-15H,3-5H2,1-2H3

> <PUBCHEM_IUPAC_INCHIKEY>
JWLJBTDXCBIGBW-UHFFFAOYSA-N

> <PUBCHEM_XLOGP3_AA>
2

> <PUBCHEM_EXACT_MASS>
207.125928785

> <PUBCHEM_MOLECULAR_FORMULA>
C12H17NO2

> <PUBCHEM_MOLECULAR_WEIGHT>
207.27

> <PUBCHEM_OPENEYE_CAN_SMILES>
CN(C)C1CCC2=CC(=C(C=C2C1)O)O

> <PUBCHEM_OPENEYE_ISO_SMILES>
CN(C)C1CCC2=CC(=C(C=C2C1)O)O

> <PUBCHEM_CACTVS_TPSA>
43.7

> <PUBCHEM_MONOISOTOPIC_WEIGHT>
207.125928785

> <PUBCHEM_TOTAL_CHARGE>
0

> <PUBCHEM_HEAVY_ATOM_COUNT>
15

> <PUBCHEM_ATOM_DEF_STEREO_COUNT>
0

> <PUBCHEM_ATOM_UDEF_STEREO_COUNT>
1

> <PUBCHEM_BOND_DEF_STEREO_COUNT>
0

> <PUBCHEM_BOND_UDEF_STEREO_COUNT>
0

> <PUBCHEM_ISOTOPIC_ATOM_COUNT>
0

> <PUBCHEM_COMPONENT_COUNT>
1

> <PUBCHEM_CACTVS_TAUTO_COUNT>
53

> <PUBCHEM_COORDINATE_TYPE>
1
5
255

> <PUBCHEM_BONDANNOTATIONS>
10  14  8
11  15  8
14  15  8
4  3  3
8  10  8
8  9  8
9  11  8

$$$$
