11633643
  -OEChem-09292322482D

 49 53  0     1  0  0  0  0  0999 V2000
    6.9654    1.4856    0.0000 N   0  3  3  0  0  0  0  0  0  0  0  0
    4.5124    0.3681    0.0000 N   0  0  0  0  0  0  0  0  0  0  0  0
    6.2962    0.7424    0.0000 C   0  0  3  0  0  0  0  0  0  0  0  0
    6.6028   -0.2531    0.0000 C   0  0  3  0  0  0  0  0  0  0  0  0
    7.9875    1.2848    0.0000 C   0  0  0  0  0  0  0  0  0  0  0  0
    6.6564    2.4367    0.0000 C   0  0  0  0  0  0  0  0  0  0  0  0
    5.3181    0.9504    0.0000 C   0  0  0  0  0  0  0  0  0  0  0  0
    7.6200   -0.4775    0.0000 C   0  0  0  0  0  0  0  0  0  0  0  0
    8.3170    0.2966    0.0000 C   0  0  0  0  0  0  0  0  0  0  0  0
    5.6782    2.6446    0.0000 C   0  0  0  0  0  0  0  0  0  0  0  0
    7.6345    2.2287    0.0000 C   0  0  0  0  0  0  0  0  0  0  0  0
    5.0091    1.9014    0.0000 C   0  0  0  0  0  0  0  0  0  0  0  0
    5.9251   -0.9884    0.0000 C   0  0  0  0  0  0  0  0  0  0  0  0
    4.0150    1.8988    0.0000 C   0  0  0  0  0  0  0  0  0  0  0  0
    3.7086    0.9531    0.0000 C   0  0  0  0  0  0  0  0  0  0  0  0
    4.9494   -0.7692    0.0000 C   0  0  0  0  0  0  0  0  0  0  0  0
    6.2231   -1.9430    0.0000 C   0  0  0  0  0  0  0  0  0  0  0  0
    3.3334    2.6783    0.0000 C   0  0  0  0  0  0  0  0  0  0  0  0
    2.6994    0.7214    0.0000 C   0  0  0  0  0  0  0  0  0  0  0  0
    4.2718   -1.5046    0.0000 C   0  0  0  0  0  0  0  0  0  0  0  0
    5.5454   -2.6783    0.0000 C   0  0  0  0  0  0  0  0  0  0  0  0
    2.3191    2.4700    0.0000 C   0  0  0  0  0  0  0  0  0  0  0  0
    2.0000    1.4849    0.0000 C   0  0  0  0  0  0  0  0  0  0  0  0
    4.5698   -2.4591    0.0000 C   0  0  0  0  0  0  0  0  0  0  0  0
    5.8778    0.2849    0.0000 H   0  0  0  0  0  0  0  0  0  0  0  0
    6.7887   -0.8445    0.0000 H   0  0  0  0  0  0  0  0  0  0  0  0
    8.6005    1.3774    0.0000 H   0  0  0  0  0  0  0  0  0  0  0  0
    8.0011    1.9046    0.0000 H   0  0  0  0  0  0  0  0  0  0  0  0
    7.2703    2.5229    0.0000 H   0  0  0  0  0  0  0  0  0  0  0  0
    6.6780    3.0563    0.0000 H   0  0  0  0  0  0  0  0  0  0  0  0
    7.3848   -1.0511    0.0000 H   0  0  0  0  0  0  0  0  0  0  0  0
    8.1449   -0.8074    0.0000 H   0  0  0  0  0  0  0  0  0  0  0  0
    8.6999   -0.1910    0.0000 H   0  0  0  0  0  0  0  0  0  0  0  0
    8.8629    0.5905    0.0000 H   0  0  0  0  0  0  0  0  0  0  0  0
    5.9105    3.2194    0.0000 H   0  0  0  0  0  0  0  0  0  0  0  0
    5.1524    2.9731    0.0000 H   0  0  0  0  0  0  0  0  0  0  0  0
    8.0952    1.8139    0.0000 H   0  0  0  0  0  0  0  0  0  0  0  0
    8.0494    2.6895    0.0000 H   0  0  0  0  0  0  0  0  0  0  0  0
    7.1738    2.6436    0.0000 H   0  0  0  0  0  0  0  0  0  0  0  0
    4.5113   -0.2519    0.0000 H   0  0  0  0  0  0  0  0  0  0  0  0
    4.7647   -0.1774    0.0000 H   0  0  0  0  0  0  0  0  0  0  0  0
    6.8280   -2.0789    0.0000 H   0  0  0  0  0  0  0  0  0  0  0  0
    3.5313    3.2659    0.0000 H   0  0  0  0  0  0  0  0  0  0  0  0
    2.5152    0.1294    0.0000 H   0  0  0  0  0  0  0  0  0  0  0  0
    3.6668   -1.3686    0.0000 H   0  0  0  0  0  0  0  0  0  0  0  0
    5.7302   -3.2702    0.0000 H   0  0  0  0  0  0  0  0  0  0  0  0
    1.9056    2.9320    0.0000 H   0  0  0  0  0  0  0  0  0  0  0  0
    1.3942    1.3532    0.0000 H   0  0  0  0  0  0  0  0  0  0  0  0
    4.1496   -2.9150    0.0000 H   0  0  0  0  0  0  0  0  0  0  0  0
  1  3  1  0  0  0  0
  1  5  1  0  0  0  0
  1  6  1  0  0  0  0
  1 11  1  0  0  0  0
  2  7  1  0  0  0  0
  2 15  1  0  0  0  0
  2 40  1  0  0  0  0
  3  4  1  0  0  0  0
  3  7  1  0  0  0  0
  3 25  1  0  0  0  0
  4  8  1  0  0  0  0
  4 13  1  0  0  0  0
  4 26  1  0  0  0  0
  5  9  1  0  0  0  0
  5 27  1  0  0  0  0
  5 28  1  0  0  0  0
  6 10  1  0  0  0  0
  6 29  1  0  0  0  0
  6 30  1  0  0  0  0
  7 12  2  0  0  0  0
  8  9  1  0  0  0  0
  8 31  1  0  0  0  0
  8 32  1  0  0  0  0
  9 33  1  0  0  0  0
  9 34  1  0  0  0  0
 10 12  1  0  0  0  0
 10 35  1  0  0  0  0
 10 36  1  0  0  0  0
 11 37  1  0  0  0  0
 11 38  1  0  0  0  0
 11 39  1  0  0  0  0
 12 14  1  0  0  0  0
 13 16  2  0  0  0  0
 13 17  1  0  0  0  0
 14 15  1  0  0  0  0
 14 18  2  0  0  0  0
 15 19  2  0  0  0  0
 16 20  1  0  0  0  0
 16 41  1  0  0  0  0
 17 21  2  0  0  0  0
 17 42  1  0  0  0  0
 18 22  1  0  0  0  0
 18 43  1  0  0  0  0
 19 23  1  0  0  0  0
 19 44  1  0  0  0  0
 20 24  2  0  0  0  0
 20 45  1  0  0  0  0
 21 24  1  0  0  0  0
 21 46  1  0  0  0  0
 22 23  2  0  0  0  0
 22 47  1  0  0  0  0
 23 48  1  0  0  0  0
 24 49  1  0  0  0  0
M  CHG  1   1   1
M  END
> <PUBCHEM_COMPOUND_CID>
11633643

> <PUBCHEM_COMPOUND_CANONICALIZED>
1

> <PUBCHEM_CACTVS_COMPLEXITY>
457

> <PUBCHEM_CACTVS_HBOND_ACCEPTOR>
0

> <PUBCHEM_CACTVS_HBOND_DONOR>
1

> <PUBCHEM_CACTVS_ROTATABLE_BOND>
1

> <PUBCHEM_CACTVS_SUBSKEYS>
AAADceB7AAAAAAAAAAAAAAAAAAAAAWAAAAA8eIEAAAAAAFix9AAAHAAQAAAADSjBHgQywPPJkACgAyRiRACCgCAhAiAImSA4ZJgIYOLAkZGUIAhgkADIyAcQgMAOgAAAAAACAAAAAAAAAAQAAAAAAAAAAA==

> <PUBCHEM_IUPAC_OPENEYE_NAME>
5-methyl-1-phenyl-1,2,3,4,6,7,12,12b-octahydroindolo[2,3-a]quinolizin-5-ium

> <PUBCHEM_IUPAC_CAS_NAME>
5-methyl-1-phenyl-1,2,3,4,6,7,12,12b-octahydroindolo[2,3-a]quinolizin-5-ium

> <PUBCHEM_IUPAC_NAME_MARKUP>
5-methyl-1-phenyl-1,2,3,4,6,7,12,12<I>b</I>-octahydroindolo[2,3-a]quinolizin-5-ium

> <PUBCHEM_IUPAC_NAME>
5-methyl-1-phenyl-1,2,3,4,6,7,12,12b-octahydroindolo[2,3-a]quinolizin-5-ium

> <PUBCHEM_IUPAC_SYSTEMATIC_NAME>
5-methyl-1-phenyl-1,2,3,4,6,7,12,12b-octahydroindolo[2,3-a]quinolizin-5-ium

> <PUBCHEM_IUPAC_TRADITIONAL_NAME>
5-methyl-1-phenyl-1,2,3,4,6,7,12,12b-octahydropyrido[2,1-a]beta-carbolin-5-ium

> <PUBCHEM_IUPAC_INCHI>
InChI=1S/C22H25N2/c1-24-14-7-11-17(16-8-3-2-4-9-16)22(24)21-19(13-15-24)18-10-5-6-12-20(18)23-21/h2-6,8-10,12,17,22-23H,7,11,13-15H2,1H3/q+1

> <PUBCHEM_IUPAC_INCHIKEY>
LZMVFVZIXDUMSW-UHFFFAOYSA-N

> <PUBCHEM_XLOGP3_AA>
4.2

> <PUBCHEM_EXACT_MASS>
317.201773806

> <PUBCHEM_MOLECULAR_FORMULA>
C22H25N2+

> <PUBCHEM_MOLECULAR_WEIGHT>
317.4

> <PUBCHEM_OPENEYE_CAN_SMILES>
C[N+]12CCCC(C1C3=C(CC2)C4=CC=CC=C4N3)C5=CC=CC=C5

> <PUBCHEM_OPENEYE_ISO_SMILES>
C[N+]12CCCC(C1C3=C(CC2)C4=CC=CC=C4N3)C5=CC=CC=C5

> <PUBCHEM_CACTVS_TPSA>
15.8

> <PUBCHEM_MONOISOTOPIC_WEIGHT>
317.201773806

> <PUBCHEM_TOTAL_CHARGE>
1

> <PUBCHEM_HEAVY_ATOM_COUNT>
24

> <PUBCHEM_ATOM_DEF_STEREO_COUNT>
0

> <PUBCHEM_ATOM_UDEF_STEREO_COUNT>
3

> <PUBCHEM_BOND_DEF_STEREO_COUNT>
0

> <PUBCHEM_BOND_UDEF_STEREO_COUNT>
0

> <PUBCHEM_ISOTOPIC_ATOM_COUNT>
0

> <PUBCHEM_COMPONENT_COUNT>
1

> <PUBCHEM_CACTVS_TAUTO_COUNT>
-1

> <PUBCHEM_COORDINATE_TYPE>
1
5
255

> <PUBCHEM_BONDANNOTATIONS>
1  11  3
12  14  8
13  16  8
13  17  8
14  15  8
14  18  8
15  19  8
16  20  8
17  21  8
18  22  8
19  23  8
2  15  8
2  7  8
20  24  8
21  24  8
22  23  8
3  7  3
4  13  3
7  12  8

$$$$
