162643405
  -OEChem-09292322062D

 57 61  0     0  0  0  0  0  0999 V2000
    8.2103   -5.8047    0.0000 S   0  0  0  0  0  0  0  0  0  0  0  0
    6.3981    3.0000    0.0000 O   0  0  0  0  0  0  0  0  0  0  0  0
    4.6660    6.0000    0.0000 O   0  0  0  0  0  0  0  0  0  0  0  0
    6.3981   -1.0000    0.0000 N   0  0  0  0  0  0  0  0  0  0  0  0
    6.3981   -3.0000    0.0000 N   0  0  0  0  0  0  0  0  0  0  0  0
    4.6660    3.0000    0.0000 N   0  0  0  0  0  0  0  0  0  0  0  0
    5.5321    4.5000    0.0000 N   0  0  0  0  0  0  0  0  0  0  0  0
    7.2641   -1.5000    0.0000 C   0  0  0  0  0  0  0  0  0  0  0  0
    5.5321   -1.5000    0.0000 C   0  0  0  0  0  0  0  0  0  0  0  0
    7.2641   -2.5000    0.0000 C   0  0  0  0  0  0  0  0  0  0  0  0
    5.5321   -2.5000    0.0000 C   0  0  0  0  0  0  0  0  0  0  0  0
    6.3981    0.0000    0.0000 C   0  0  0  0  0  0  0  0  0  0  0  0
    5.5321    0.5000    0.0000 C   0  0  0  0  0  0  0  0  0  0  0  0
    5.5321    1.5000    0.0000 C   0  0  0  0  0  0  0  0  0  0  0  0
    6.3981   -4.0000    0.0000 C   0  0  0  0  0  0  0  0  0  0  0  0
    4.6660    2.0000    0.0000 C   0  0  0  0  0  0  0  0  0  0  0  0
    7.2641   -4.5000    0.0000 C   0  0  0  0  0  0  0  0  0  0  0  0
    5.5321   -4.5000    0.0000 C   0  0  0  0  0  0  0  0  0  0  0  0
    7.2641   -5.5000    0.0000 C   0  0  0  0  0  0  0  0  0  0  0  0
    3.8000    3.5000    0.0000 C   0  0  0  0  0  0  0  0  0  0  0  0
    8.2103   -4.1953    0.0000 C   0  0  0  0  0  0  0  0  0  0  0  0
    5.5321   -5.5000    0.0000 C   0  0  0  0  0  0  0  0  0  0  0  0
    6.3981   -6.0000    0.0000 C   0  0  0  0  0  0  0  0  0  0  0  0
    5.5321    3.5000    0.0000 C   0  0  0  0  0  0  0  0  0  0  0  0
    3.8000    4.5000    0.0000 C   0  0  0  0  0  0  0  0  0  0  0  0
    8.7939   -5.0000    0.0000 C   0  0  0  0  0  0  0  0  0  0  0  0
    2.9061    2.9653    0.0000 C   0  0  0  0  0  0  0  0  0  0  0  0
    4.6660    5.0000    0.0000 C   0  0  0  0  0  0  0  0  0  0  0  0
    2.9061    5.0347    0.0000 C   0  0  0  0  0  0  0  0  0  0  0  0
    2.0000    3.4792    0.0000 C   0  0  0  0  0  0  0  0  0  0  0  0
    2.0000    4.5208    0.0000 C   0  0  0  0  0  0  0  0  0  0  0  0
    7.8747   -1.6077    0.0000 H   0  0  0  0  0  0  0  0  0  0  0  0
    7.4762   -0.9174    0.0000 H   0  0  0  0  0  0  0  0  0  0  0  0
    5.3200   -0.9174    0.0000 H   0  0  0  0  0  0  0  0  0  0  0  0
    4.9215   -1.6077    0.0000 H   0  0  0  0  0  0  0  0  0  0  0  0
    7.4762   -3.0826    0.0000 H   0  0  0  0  0  0  0  0  0  0  0  0
    7.8747   -2.3923    0.0000 H   0  0  0  0  0  0  0  0  0  0  0  0
    4.9215   -2.3923    0.0000 H   0  0  0  0  0  0  0  0  0  0  0  0
    5.3200   -3.0826    0.0000 H   0  0  0  0  0  0  0  0  0  0  0  0
    7.0087   -0.1077    0.0000 H   0  0  0  0  0  0  0  0  0  0  0  0
    6.6101    0.5826    0.0000 H   0  0  0  0  0  0  0  0  0  0  0  0
    4.9215    0.6077    0.0000 H   0  0  0  0  0  0  0  0  0  0  0  0
    5.3200   -0.0826    0.0000 H   0  0  0  0  0  0  0  0  0  0  0  0
    6.1426    1.3923    0.0000 H   0  0  0  0  0  0  0  0  0  0  0  0
    5.7441    2.0826    0.0000 H   0  0  0  0  0  0  0  0  0  0  0  0
    4.0555    2.1077    0.0000 H   0  0  0  0  0  0  0  0  0  0  0  0
    4.4540    1.4174    0.0000 H   0  0  0  0  0  0  0  0  0  0  0  0
    4.9951   -4.1900    0.0000 H   0  0  0  0  0  0  0  0  0  0  0  0
    8.4029   -3.6060    0.0000 H   0  0  0  0  0  0  0  0  0  0  0  0
    4.9951   -5.8100    0.0000 H   0  0  0  0  0  0  0  0  0  0  0  0
    6.3981   -6.6200    0.0000 H   0  0  0  0  0  0  0  0  0  0  0  0
    9.4139   -5.0000    0.0000 H   0  0  0  0  0  0  0  0  0  0  0  0
    2.9132    2.3454    0.0000 H   0  0  0  0  0  0  0  0  0  0  0  0
    6.0690    4.8100    0.0000 H   0  0  0  0  0  0  0  0  0  0  0  0
    2.9132    5.6546    0.0000 H   0  0  0  0  0  0  0  0  0  0  0  0
    1.4643    3.1671    0.0000 H   0  0  0  0  0  0  0  0  0  0  0  0
    1.4643    4.8329    0.0000 H   0  0  0  0  0  0  0  0  0  0  0  0
  1 19  1  0  0  0  0
  1 26  1  0  0  0  0
  2 24  2  0  0  0  0
  3 28  2  0  0  0  0
  4  8  1  0  0  0  0
  4  9  1  0  0  0  0
  4 12  1  0  0  0  0
  5 10  1  0  0  0  0
  5 11  1  0  0  0  0
  5 15  1  0  0  0  0
  6 16  1  0  0  0  0
  6 20  1  0  0  0  0
  6 24  1  0  0  0  0
  7 24  1  0  0  0  0
  7 28  1  0  0  0  0
  7 54  1  0  0  0  0
  8 10  1  0  0  0  0
  8 32  1  0  0  0  0
  8 33  1  0  0  0  0
  9 11  1  0  0  0  0
  9 34  1  0  0  0  0
  9 35  1  0  0  0  0
 10 36  1  0  0  0  0
 10 37  1  0  0  0  0
 11 38  1  0  0  0  0
 11 39  1  0  0  0  0
 12 13  1  0  0  0  0
 12 40  1  0  0  0  0
 12 41  1  0  0  0  0
 13 14  1  0  0  0  0
 13 42  1  0  0  0  0
 13 43  1  0  0  0  0
 14 16  1  0  0  0  0
 14 44  1  0  0  0  0
 14 45  1  0  0  0  0
 15 17  2  0  0  0  0
 15 18  1  0  0  0  0
 16 46  1  0  0  0  0
 16 47  1  0  0  0  0
 17 19  1  0  0  0  0
 17 21  1  0  0  0  0
 18 22  2  0  0  0  0
 18 48  1  0  0  0  0
 19 23  2  0  0  0  0
 20 25  1  0  0  0  0
 20 27  2  0  0  0  0
 21 26  2  0  0  0  0
 21 49  1  0  0  0  0
 22 23  1  0  0  0  0
 22 50  1  0  0  0  0
 23 51  1  0  0  0  0
 25 28  1  0  0  0  0
 25 29  2  0  0  0  0
 26 52  1  0  0  0  0
 27 30  1  0  0  0  0
 27 53  1  0  0  0  0
 29 31  1  0  0  0  0
 29 55  1  0  0  0  0
 30 31  2  0  0  0  0
 30 56  1  0  0  0  0
 31 57  1  0  0  0  0
M  END
> <PUBCHEM_COMPOUND_CID>
162643405

> <PUBCHEM_COMPOUND_CANONICALIZED>
1

> <PUBCHEM_CACTVS_COMPLEXITY>
654

> <PUBCHEM_CACTVS_HBOND_ACCEPTOR>
5

> <PUBCHEM_CACTVS_HBOND_DONOR>
1

> <PUBCHEM_CACTVS_ROTATABLE_BOND>
6

> <PUBCHEM_CACTVS_SUBSKEYS>
AAADceB7sABAAAAAAAAAAAAAAAAAASAAAAA8eIEAAAAAAEix9AAAHgQQAAAADAjF2ASxwcPAAAiMAiVSUACDAIAlChBIiBkIZMiIYDrg1ZGUIYxohyLoyecYiICOAAAAACAGAAAAAAAAQAwAAAAAAAAAAA==

> <PUBCHEM_IUPAC_OPENEYE_NAME>
1-[4-[4-(benzothiophen-4-yl)piperazin-1-yl]butyl]quinazoline-2,4-dione

> <PUBCHEM_IUPAC_CAS_NAME>
1-[4-[4-(1-benzothiophen-4-yl)-1-piperazinyl]butyl]quinazoline-2,4-dione

> <PUBCHEM_IUPAC_NAME_MARKUP>
1-[4-[4-(1-benzothiophen-4-yl)piperazin-1-yl]butyl]quinazoline-2,4-dione

> <PUBCHEM_IUPAC_NAME>
1-[4-[4-(1-benzothiophen-4-yl)piperazin-1-yl]butyl]quinazoline-2,4-dione

> <PUBCHEM_IUPAC_SYSTEMATIC_NAME>
1-[4-[4-(1-benzothiophen-4-yl)piperazin-1-yl]butyl]quinazoline-2,4-dione

> <PUBCHEM_IUPAC_TRADITIONAL_NAME>
1-[4-[4-(benzothiophen-4-yl)piperazino]butyl]quinazoline-2,4-quinone

> <PUBCHEM_IUPAC_INCHI>
InChI=1S/C24H26N4O2S/c29-23-19-6-1-2-7-21(19)28(24(30)25-23)12-4-3-11-26-13-15-27(16-14-26)20-8-5-9-22-18(20)10-17-31-22/h1-2,5-10,17H,3-4,11-16H2,(H,25,29,30)

> <PUBCHEM_IUPAC_INCHIKEY>
WDOHIMSNJWQAGJ-UHFFFAOYSA-N

> <PUBCHEM_XLOGP3_AA>
4

> <PUBCHEM_EXACT_MASS>
434.17764726

> <PUBCHEM_MOLECULAR_FORMULA>
C24H26N4O2S

> <PUBCHEM_MOLECULAR_WEIGHT>
434.6

> <PUBCHEM_OPENEYE_CAN_SMILES>
C1CN(CCN1CCCCN2C3=CC=CC=C3C(=O)NC2=O)C4=C5C=CSC5=CC=C4

> <PUBCHEM_OPENEYE_ISO_SMILES>
C1CN(CCN1CCCCN2C3=CC=CC=C3C(=O)NC2=O)C4=C5C=CSC5=CC=C4

> <PUBCHEM_CACTVS_TPSA>
84.1

> <PUBCHEM_MONOISOTOPIC_WEIGHT>
434.17764726

> <PUBCHEM_TOTAL_CHARGE>
0

> <PUBCHEM_HEAVY_ATOM_COUNT>
31

> <PUBCHEM_ATOM_DEF_STEREO_COUNT>
0

> <PUBCHEM_ATOM_UDEF_STEREO_COUNT>
0

> <PUBCHEM_BOND_DEF_STEREO_COUNT>
0

> <PUBCHEM_BOND_UDEF_STEREO_COUNT>
0

> <PUBCHEM_ISOTOPIC_ATOM_COUNT>
0

> <PUBCHEM_COMPONENT_COUNT>
1

> <PUBCHEM_CACTVS_TAUTO_COUNT>
-1

> <PUBCHEM_COORDINATE_TYPE>
1
5
255

> <PUBCHEM_BONDANNOTATIONS>
1  19  8
1  26  8
15  17  8
15  18  8
17  19  8
17  21  8
18  22  8
19  23  8
20  25  8
20  27  8
21  26  8
22  23  8
25  28  8
25  29  8
27  30  8
29  31  8
30  31  8
6  20  8
6  24  8
7  24  8
7  28  8

$$$$
