72736383
  -OEChem-09292322342D

 65 67  0     0  0  0  0  0  0999 V2000
    2.0000   -3.9330    0.0000 Cl  0  0  0  0  0  0  0  0  0  0  0  0
    2.0000   -5.9330    0.0000 Cl  0  0  0  0  0  0  0  0  0  0  0  0
    8.0622    4.5670    0.0000 O   0  0  0  0  0  0  0  0  0  0  0  0
    8.9282    3.0670    0.0000 O   0  0  0  0  0  0  0  0  0  0  0  0
    3.7320   -0.9330    0.0000 N   0  0  0  0  0  0  0  0  0  0  0  0
    3.7320   -2.9330    0.0000 N   0  0  0  0  0  0  0  0  0  0  0  0
    7.1962    3.0670    0.0000 N   0  0  0  0  0  0  0  0  0  0  0  0
    4.5981    0.5670    0.0000 C   0  0  0  0  0  0  0  0  0  0  0  0
    6.3301    1.5670    0.0000 C   0  0  0  0  0  0  0  0  0  0  0  0
    4.5981    1.5670    0.0000 C   0  0  0  0  0  0  0  0  0  0  0  0
    5.4641    0.0670    0.0000 C   0  0  0  0  0  0  0  0  0  0  0  0
    5.4641    2.0670    0.0000 C   0  0  0  0  0  0  0  0  0  0  0  0
    6.3301    0.5670    0.0000 C   0  0  0  0  0  0  0  0  0  0  0  0
    3.7320    0.0670    0.0000 C   0  0  0  0  0  0  0  0  0  0  0  0
    7.1962    2.0670    0.0000 C   0  0  0  0  0  0  0  0  0  0  0  0
    2.8660   -1.4330    0.0000 C   0  0  0  0  0  0  0  0  0  0  0  0
    4.5981   -1.4330    0.0000 C   0  0  0  0  0  0  0  0  0  0  0  0
    2.8660   -2.4330    0.0000 C   0  0  0  0  0  0  0  0  0  0  0  0
    4.5981   -2.4330    0.0000 C   0  0  0  0  0  0  0  0  0  0  0  0
    3.7320   -3.9330    0.0000 C   0  0  0  0  0  0  0  0  0  0  0  0
    8.0622    3.5670    0.0000 C   0  0  0  0  0  0  0  0  0  0  0  0
    2.8660   -4.4330    0.0000 C   0  0  0  0  0  0  0  0  0  0  0  0
    4.5981   -4.4330    0.0000 C   0  0  0  0  0  0  0  0  0  0  0  0
    8.9282    5.0670    0.0000 C   0  0  0  0  0  0  0  0  0  0  0  0
    2.8660   -5.4330    0.0000 C   0  0  0  0  0  0  0  0  0  0  0  0
    4.5981   -5.4330    0.0000 C   0  0  0  0  0  0  0  0  0  0  0  0
    3.7320   -5.9330    0.0000 C   0  0  0  0  0  0  0  0  0  0  0  0
    9.7942    5.5670    0.0000 C   0  0  0  0  0  0  0  0  0  0  0  0
    8.4282    5.9330    0.0000 C   0  0  0  0  0  0  0  0  0  0  0  0
    9.4282    4.2010    0.0000 C   0  0  0  0  0  0  0  0  0  0  0  0
    4.5981   -0.0530    0.0000 H   0  0  0  0  0  0  0  0  0  0  0  0
    6.8671    1.2570    0.0000 H   0  0  0  0  0  0  0  0  0  0  0  0
    4.3860    2.1496    0.0000 H   0  0  0  0  0  0  0  0  0  0  0  0
    3.9875    1.4593    0.0000 H   0  0  0  0  0  0  0  0  0  0  0  0
    5.0656   -0.4080    0.0000 H   0  0  0  0  0  0  0  0  0  0  0  0
    5.8626   -0.4080    0.0000 H   0  0  0  0  0  0  0  0  0  0  0  0
    5.8626    2.5419    0.0000 H   0  0  0  0  0  0  0  0  0  0  0  0
    5.0656    2.5419    0.0000 H   0  0  0  0  0  0  0  0  0  0  0  0
    6.5422   -0.0156    0.0000 H   0  0  0  0  0  0  0  0  0  0  0  0
    6.9407    0.6746    0.0000 H   0  0  0  0  0  0  0  0  0  0  0  0
    3.5200    0.6496    0.0000 H   0  0  0  0  0  0  0  0  0  0  0  0
    3.1215   -0.0407    0.0000 H   0  0  0  0  0  0  0  0  0  0  0  0
    7.4082    1.4844    0.0000 H   0  0  0  0  0  0  0  0  0  0  0  0
    7.8067    2.1747    0.0000 H   0  0  0  0  0  0  0  0  0  0  0  0
    2.6540   -0.8504    0.0000 H   0  0  0  0  0  0  0  0  0  0  0  0
    2.2554   -1.5407    0.0000 H   0  0  0  0  0  0  0  0  0  0  0  0
    5.2087   -1.5407    0.0000 H   0  0  0  0  0  0  0  0  0  0  0  0
    4.8101   -0.8504    0.0000 H   0  0  0  0  0  0  0  0  0  0  0  0
    2.2554   -2.3253    0.0000 H   0  0  0  0  0  0  0  0  0  0  0  0
    2.6540   -3.0156    0.0000 H   0  0  0  0  0  0  0  0  0  0  0  0
    4.8101   -3.0156    0.0000 H   0  0  0  0  0  0  0  0  0  0  0  0
    5.2087   -2.3253    0.0000 H   0  0  0  0  0  0  0  0  0  0  0  0
    6.6592    3.3770    0.0000 H   0  0  0  0  0  0  0  0  0  0  0  0
    5.1350   -4.1230    0.0000 H   0  0  0  0  0  0  0  0  0  0  0  0
    5.1350   -5.7430    0.0000 H   0  0  0  0  0  0  0  0  0  0  0  0
    3.7320   -6.5530    0.0000 H   0  0  0  0  0  0  0  0  0  0  0  0
   10.1042    5.0300    0.0000 H   0  0  0  0  0  0  0  0  0  0  0  0
   10.3312    5.8770    0.0000 H   0  0  0  0  0  0  0  0  0  0  0  0
    9.4842    6.1039    0.0000 H   0  0  0  0  0  0  0  0  0  0  0  0
    8.9651    6.2430    0.0000 H   0  0  0  0  0  0  0  0  0  0  0  0
    8.1182    6.4700    0.0000 H   0  0  0  0  0  0  0  0  0  0  0  0
    7.8913    5.6230    0.0000 H   0  0  0  0  0  0  0  0  0  0  0  0
    8.8913    3.8910    0.0000 H   0  0  0  0  0  0  0  0  0  0  0  0
    9.7382    3.6640    0.0000 H   0  0  0  0  0  0  0  0  0  0  0  0
    9.9651    4.5110    0.0000 H   0  0  0  0  0  0  0  0  0  0  0  0
  1 22  1  0  0  0  0
  2 25  1  0  0  0  0
  3 21  1  0  0  0  0
  3 24  1  0  0  0  0
  4 21  2  0  0  0  0
  5 14  1  0  0  0  0
  5 16  1  0  0  0  0
  5 17  1  0  0  0  0
  6 18  1  0  0  0  0
  6 19  1  0  0  0  0
  6 20  1  0  0  0  0
  7 15  1  0  0  0  0
  7 21  1  0  0  0  0
  7 53  1  0  0  0  0
  8 10  1  0  0  0  0
  8 11  1  0  0  0  0
  8 14  1  0  0  0  0
  8 31  1  0  0  0  0
  9 12  1  0  0  0  0
  9 13  1  0  0  0  0
  9 15  1  0  0  0  0
  9 32  1  0  0  0  0
 10 12  1  0  0  0  0
 10 33  1  0  0  0  0
 10 34  1  0  0  0  0
 11 13  1  0  0  0  0
 11 35  1  0  0  0  0
 11 36  1  0  0  0  0
 12 37  1  0  0  0  0
 12 38  1  0  0  0  0
 13 39  1  0  0  0  0
 13 40  1  0  0  0  0
 14 41  1  0  0  0  0
 14 42  1  0  0  0  0
 15 43  1  0  0  0  0
 15 44  1  0  0  0  0
 16 18  1  0  0  0  0
 16 45  1  0  0  0  0
 16 46  1  0  0  0  0
 17 19  1  0  0  0  0
 17 47  1  0  0  0  0
 17 48  1  0  0  0  0
 18 49  1  0  0  0  0
 18 50  1  0  0  0  0
 19 51  1  0  0  0  0
 19 52  1  0  0  0  0
 20 22  2  0  0  0  0
 20 23  1  0  0  0  0
 22 25  1  0  0  0  0
 23 26  2  0  0  0  0
 23 54  1  0  0  0  0
 24 28  1  0  0  0  0
 24 29  1  0  0  0  0
 24 30  1  0  0  0  0
 25 27  2  0  0  0  0
 26 27  1  0  0  0  0
 26 55  1  0  0  0  0
 27 56  1  0  0  0  0
 28 57  1  0  0  0  0
 28 58  1  0  0  0  0
 28 59  1  0  0  0  0
 29 60  1  0  0  0  0
 29 61  1  0  0  0  0
 29 62  1  0  0  0  0
 30 63  1  0  0  0  0
 30 64  1  0  0  0  0
 30 65  1  0  0  0  0
M  END
> <PUBCHEM_COMPOUND_CID>
72736383

> <PUBCHEM_COMPOUND_CANONICALIZED>
1

> <PUBCHEM_CACTVS_COMPLEXITY>
541

> <PUBCHEM_CACTVS_HBOND_ACCEPTOR>
4

> <PUBCHEM_CACTVS_HBOND_DONOR>
1

> <PUBCHEM_CACTVS_ROTATABLE_BOND>
7

> <PUBCHEM_CACTVS_SUBSKEYS>
AAADcfB7MAAGAAAAAAAAAAAAAAAAAAAAAAA8YIAAAAAAAAABAAAAHgIQAAAADU7BkCQyyIPABACIACRCWACCAAAhBwAIisAIZokIYCLBk5HcIAhglgDIyAcQgAAOAAAAAAIAABSAAAAABAAAKAAAAAAAAA==

> <PUBCHEM_IUPAC_OPENEYE_NAME>
tert-butyl N-[[4-[[4-(2,3-dichlorophenyl)piperazin-1-yl]methyl]cyclohexyl]methyl]carbamate

> <PUBCHEM_IUPAC_CAS_NAME>
N-[[4-[[4-(2,3-dichlorophenyl)-1-piperazinyl]methyl]cyclohexyl]methyl]carbamic acid tert-butyl ester

> <PUBCHEM_IUPAC_NAME_MARKUP>
<I>tert</I>-butyl <I>N</I>-[[4-[[4-(2,3-dichlorophenyl)piperazin-1-yl]methyl]cyclohexyl]methyl]carbamate

> <PUBCHEM_IUPAC_NAME>
tert-butyl N-[[4-[[4-(2,3-dichlorophenyl)piperazin-1-yl]methyl]cyclohexyl]methyl]carbamate

> <PUBCHEM_IUPAC_SYSTEMATIC_NAME>
tert-butyl N-[[4-[[4-[2,3-bis(chloranyl)phenyl]piperazin-1-yl]methyl]cyclohexyl]methyl]carbamate

> <PUBCHEM_IUPAC_TRADITIONAL_NAME>
N-[[4-[[4-(2,3-dichlorophenyl)piperazino]methyl]cyclohexyl]methyl]carbamic acid tert-butyl ester

> <PUBCHEM_IUPAC_INCHI>
InChI=1S/C23H35Cl2N3O2/c1-23(2,3)30-22(29)26-15-17-7-9-18(10-8-17)16-27-11-13-28(14-12-27)20-6-4-5-19(24)21(20)25/h4-6,17-18H,7-16H2,1-3H3,(H,26,29)

> <PUBCHEM_IUPAC_INCHIKEY>
PEZCNTUYUBESMV-UHFFFAOYSA-N

> <PUBCHEM_XLOGP3_AA>
5.5

> <PUBCHEM_EXACT_MASS>
455.2106328

> <PUBCHEM_MOLECULAR_FORMULA>
C23H35Cl2N3O2

> <PUBCHEM_MOLECULAR_WEIGHT>
456.4

> <PUBCHEM_OPENEYE_CAN_SMILES>
CC(C)(C)OC(=O)NCC1CCC(CC1)CN2CCN(CC2)C3=C(C(=CC=C3)Cl)Cl

> <PUBCHEM_OPENEYE_ISO_SMILES>
CC(C)(C)OC(=O)NCC1CCC(CC1)CN2CCN(CC2)C3=C(C(=CC=C3)Cl)Cl

> <PUBCHEM_CACTVS_TPSA>
44.8

> <PUBCHEM_MONOISOTOPIC_WEIGHT>
455.2106328

> <PUBCHEM_TOTAL_CHARGE>
0

> <PUBCHEM_HEAVY_ATOM_COUNT>
30

> <PUBCHEM_ATOM_DEF_STEREO_COUNT>
0

> <PUBCHEM_ATOM_UDEF_STEREO_COUNT>
0

> <PUBCHEM_BOND_DEF_STEREO_COUNT>
0

> <PUBCHEM_BOND_UDEF_STEREO_COUNT>
0

> <PUBCHEM_ISOTOPIC_ATOM_COUNT>
0

> <PUBCHEM_COMPONENT_COUNT>
1

> <PUBCHEM_CACTVS_TAUTO_COUNT>
-1

> <PUBCHEM_COORDINATE_TYPE>
1
5
255

> <PUBCHEM_BONDANNOTATIONS>
20  22  8
20  23  8
22  25  8
23  26  8
25  27  8
26  27  8

$$$$
