25068903
  -OEChem-09292322302D

 61 65  0     0  0  0  0  0  0999 V2000
   10.5973    4.2644    0.0000 F   0  0  0  0  0  0  0  0  0  0  0  0
    5.3351   -2.7114    0.0000 O   0  0  0  0  0  0  0  0  0  0  0  0
    7.0671    1.2886    0.0000 N   0  0  0  0  0  0  0  0  0  0  0  0
    7.0671    3.2886    0.0000 N   0  0  0  0  0  0  0  0  0  0  0  0
    2.4051   -5.7863    0.0000 N   0  0  0  0  0  0  0  0  0  0  0  0
    7.9332    1.7886    0.0000 C   0  0  0  0  0  0  0  0  0  0  0  0
    6.2011    1.7886    0.0000 C   0  0  0  0  0  0  0  0  0  0  0  0
    7.9332    2.7886    0.0000 C   0  0  0  0  0  0  0  0  0  0  0  0
    6.2011    2.7886    0.0000 C   0  0  0  0  0  0  0  0  0  0  0  0
    7.0671    0.2886    0.0000 C   0  0  0  0  0  0  0  0  0  0  0  0
    6.2011   -0.2114    0.0000 C   0  0  0  0  0  0  0  0  0  0  0  0
    7.0671    4.2886    0.0000 C   0  0  0  0  0  0  0  0  0  0  0  0
    6.2011   -1.2114    0.0000 C   0  0  0  0  0  0  0  0  0  0  0  0
    7.9332    4.7886    0.0000 C   0  0  0  0  0  0  0  0  0  0  0  0
    6.2011    4.7886    0.0000 C   0  0  0  0  0  0  0  0  0  0  0  0
    5.3351   -1.7114    0.0000 C   0  0  0  0  0  0  0  0  0  0  0  0
    7.9332    5.7886    0.0000 C   0  0  0  0  0  0  0  0  0  0  0  0
    3.6030   -4.7114    0.0000 C   0  0  0  0  0  0  0  0  0  0  0  0
    2.7370   -4.2114    0.0000 C   0  0  0  0  0  0  0  0  0  0  0  0
    8.8271    4.2539    0.0000 C   0  0  0  0  0  0  0  0  0  0  0  0
    6.2011    5.7886    0.0000 C   0  0  0  0  0  0  0  0  0  0  0  0
    3.3938   -5.6832    0.0000 C   0  0  0  0  0  0  0  0  0  0  0  0
    7.0671    6.2886    0.0000 C   0  0  0  0  0  0  0  0  0  0  0  0
    2.0000   -4.8785    0.0000 C   0  0  0  0  0  0  0  0  0  0  0  0
    4.4691   -3.2114    0.0000 C   0  0  0  0  0  0  0  0  0  0  0  0
    4.4691   -4.2114    0.0000 C   0  0  0  0  0  0  0  0  0  0  0  0
    8.8271    6.3232    0.0000 C   0  0  0  0  0  0  0  0  0  0  0  0
    2.7370   -3.2114    0.0000 C   0  0  0  0  0  0  0  0  0  0  0  0
    3.6030   -2.7114    0.0000 C   0  0  0  0  0  0  0  0  0  0  0  0
    9.7332    4.7678    0.0000 C   0  0  0  0  0  0  0  0  0  0  0  0
    9.7332    5.8094    0.0000 C   0  0  0  0  0  0  0  0  0  0  0  0
    8.1452    1.2060    0.0000 H   0  0  0  0  0  0  0  0  0  0  0  0
    8.5438    1.8962    0.0000 H   0  0  0  0  0  0  0  0  0  0  0  0
    5.5905    1.8962    0.0000 H   0  0  0  0  0  0  0  0  0  0  0  0
    5.9891    1.2060    0.0000 H   0  0  0  0  0  0  0  0  0  0  0  0
    8.5438    2.6809    0.0000 H   0  0  0  0  0  0  0  0  0  0  0  0
    8.1452    3.3712    0.0000 H   0  0  0  0  0  0  0  0  0  0  0  0
    5.9891    3.3712    0.0000 H   0  0  0  0  0  0  0  0  0  0  0  0
    5.5905    2.6809    0.0000 H   0  0  0  0  0  0  0  0  0  0  0  0
    7.2792   -0.2940    0.0000 H   0  0  0  0  0  0  0  0  0  0  0  0
    7.6777    0.3962    0.0000 H   0  0  0  0  0  0  0  0  0  0  0  0
    5.9891    0.3712    0.0000 H   0  0  0  0  0  0  0  0  0  0  0  0
    5.5905   -0.3191    0.0000 H   0  0  0  0  0  0  0  0  0  0  0  0
    6.4132   -1.7940    0.0000 H   0  0  0  0  0  0  0  0  0  0  0  0
    6.8117   -1.1038    0.0000 H   0  0  0  0  0  0  0  0  0  0  0  0
    5.6642    4.4786    0.0000 H   0  0  0  0  0  0  0  0  0  0  0  0
    5.1230   -1.1288    0.0000 H   0  0  0  0  0  0  0  0  0  0  0  0
    4.7245   -1.8191    0.0000 H   0  0  0  0  0  0  0  0  0  0  0  0
    8.8199    3.6340    0.0000 H   0  0  0  0  0  0  0  0  0  0  0  0
    5.6642    6.0986    0.0000 H   0  0  0  0  0  0  0  0  0  0  0  0
    3.3929   -6.3032    0.0000 H   0  0  0  0  0  0  0  0  0  0  0  0
    4.0103   -5.7493    0.0000 H   0  0  0  0  0  0  0  0  0  0  0  0
    1.6346   -4.3777    0.0000 H   0  0  0  0  0  0  0  0  0  0  0  0
    1.4635   -5.1893    0.0000 H   0  0  0  0  0  0  0  0  0  0  0  0
    7.0671    6.9086    0.0000 H   0  0  0  0  0  0  0  0  0  0  0  0
    2.0951   -6.3232    0.0000 H   0  0  0  0  0  0  0  0  0  0  0  0
    5.0060   -4.5214    0.0000 H   0  0  0  0  0  0  0  0  0  0  0  0
    8.8199    6.9432    0.0000 H   0  0  0  0  0  0  0  0  0  0  0  0
    2.2001   -2.9014    0.0000 H   0  0  0  0  0  0  0  0  0  0  0  0
    3.6030   -2.0914    0.0000 H   0  0  0  0  0  0  0  0  0  0  0  0
   10.2689    6.1215    0.0000 H   0  0  0  0  0  0  0  0  0  0  0  0
  1 30  1  0  0  0  0
  2 16  1  0  0  0  0
  2 25  1  0  0  0  0
  3  6  1  0  0  0  0
  3  7  1  0  0  0  0
  3 10  1  0  0  0  0
  4  8  1  0  0  0  0
  4  9  1  0  0  0  0
  4 12  1  0  0  0  0
  5 22  1  0  0  0  0
  5 24  1  0  0  0  0
  5 56  1  0  0  0  0
  6  8  1  0  0  0  0
  6 32  1  0  0  0  0
  6 33  1  0  0  0  0
  7  9  1  0  0  0  0
  7 34  1  0  0  0  0
  7 35  1  0  0  0  0
  8 36  1  0  0  0  0
  8 37  1  0  0  0  0
  9 38  1  0  0  0  0
  9 39  1  0  0  0  0
 10 11  1  0  0  0  0
 10 40  1  0  0  0  0
 10 41  1  0  0  0  0
 11 13  1  0  0  0  0
 11 42  1  0  0  0  0
 11 43  1  0  0  0  0
 12 14  1  0  0  0  0
 12 15  2  0  0  0  0
 13 16  1  0  0  0  0
 13 44  1  0  0  0  0
 13 45  1  0  0  0  0
 14 17  2  0  0  0  0
 14 20  1  0  0  0  0
 15 21  1  0  0  0  0
 15 46  1  0  0  0  0
 16 47  1  0  0  0  0
 16 48  1  0  0  0  0
 17 23  1  0  0  0  0
 17 27  1  0  0  0  0
 18 19  2  0  0  0  0
 18 22  1  0  0  0  0
 18 26  1  0  0  0  0
 19 24  1  0  0  0  0
 19 28  1  0  0  0  0
 20 30  2  0  0  0  0
 20 49  1  0  0  0  0
 21 23  2  0  0  0  0
 21 50  1  0  0  0  0
 22 51  1  0  0  0  0
 22 52  1  0  0  0  0
 23 55  1  0  0  0  0
 24 53  1  0  0  0  0
 24 54  1  0  0  0  0
 25 26  2  0  0  0  0
 25 29  1  0  0  0  0
 26 57  1  0  0  0  0
 27 31  2  0  0  0  0
 27 58  1  0  0  0  0
 28 29  2  0  0  0  0
 28 59  1  0  0  0  0
 29 60  1  0  0  0  0
 30 31  1  0  0  0  0
 31 61  1  0  0  0  0
M  END
> <PUBCHEM_COMPOUND_CID>
25068903

> <PUBCHEM_COMPOUND_CANONICALIZED>
1

> <PUBCHEM_CACTVS_COMPLEXITY>
555

> <PUBCHEM_CACTVS_HBOND_ACCEPTOR>
5

> <PUBCHEM_CACTVS_HBOND_DONOR>
1

> <PUBCHEM_CACTVS_ROTATABLE_BOND>
7

> <PUBCHEM_CACTVS_SUBSKEYS>
AAADceB7IQAAAAAAAAAAAAAAAAAAAWAAAAA8YMEAAAAAAFjBVAAAHwAQAAAADAzhmA4wxsPABACAAiRCQACCCAAhIgAIiIAObIgMZiLEsZuWOCjkwBHI6Aew0JIOoAABQAASAABAAAKAACQAAAAAAAAAAA==

> <PUBCHEM_IUPAC_OPENEYE_NAME>
5-[4-[4-(7-fluoro-1-naphthyl)piperazin-1-yl]butoxy]isoindoline

> <PUBCHEM_IUPAC_CAS_NAME>
5-[4-[4-(7-fluoro-1-naphthalenyl)-1-piperazinyl]butoxy]-2,3-dihydro-1H-isoindole

> <PUBCHEM_IUPAC_NAME_MARKUP>
5-[4-[4-(7-fluoronaphthalen-1-yl)piperazin-1-yl]butoxy]-2,3-dihydro-1<I>H</I>-isoindole

> <PUBCHEM_IUPAC_NAME>
5-[4-[4-(7-fluoronaphthalen-1-yl)piperazin-1-yl]butoxy]-2,3-dihydro-1H-isoindole

> <PUBCHEM_IUPAC_SYSTEMATIC_NAME>
5-[4-[4-(7-fluoranylnaphthalen-1-yl)piperazin-1-yl]butoxy]-2,3-dihydro-1H-isoindole

> <PUBCHEM_IUPAC_TRADITIONAL_NAME>
5-[4-[4-(7-fluoro-1-naphthyl)piperazino]butoxy]isoindoline

> <PUBCHEM_IUPAC_INCHI>
InChI=1S/C26H30FN3O/c27-23-8-6-20-4-3-5-26(25(20)17-23)30-13-11-29(12-14-30)10-1-2-15-31-24-9-7-21-18-28-19-22(21)16-24/h3-9,16-17,28H,1-2,10-15,18-19H2

> <PUBCHEM_IUPAC_INCHIKEY>
RWDCOKXPTKLVHK-UHFFFAOYSA-N

> <PUBCHEM_XLOGP3_AA>
4.5

> <PUBCHEM_EXACT_MASS>
419.23729075

> <PUBCHEM_MOLECULAR_FORMULA>
C26H30FN3O

> <PUBCHEM_MOLECULAR_WEIGHT>
419.5

> <PUBCHEM_OPENEYE_CAN_SMILES>
C1CN(CCN1CCCCOC2=CC3=C(CNC3)C=C2)C4=CC=CC5=C4C=C(C=C5)F

> <PUBCHEM_OPENEYE_ISO_SMILES>
C1CN(CCN1CCCCOC2=CC3=C(CNC3)C=C2)C4=CC=CC5=C4C=C(C=C5)F

> <PUBCHEM_CACTVS_TPSA>
27.7

> <PUBCHEM_MONOISOTOPIC_WEIGHT>
419.23729075

> <PUBCHEM_TOTAL_CHARGE>
0

> <PUBCHEM_HEAVY_ATOM_COUNT>
31

> <PUBCHEM_ATOM_DEF_STEREO_COUNT>
0

> <PUBCHEM_ATOM_UDEF_STEREO_COUNT>
0

> <PUBCHEM_BOND_DEF_STEREO_COUNT>
0

> <PUBCHEM_BOND_UDEF_STEREO_COUNT>
0

> <PUBCHEM_ISOTOPIC_ATOM_COUNT>
0

> <PUBCHEM_COMPONENT_COUNT>
1

> <PUBCHEM_CACTVS_TAUTO_COUNT>
-1

> <PUBCHEM_COORDINATE_TYPE>
1
5
255

> <PUBCHEM_BONDANNOTATIONS>
12  14  8
12  15  8
14  17  8
14  20  8
15  21  8
17  23  8
17  27  8
18  19  8
18  26  8
19  28  8
20  30  8
21  23  8
25  26  8
25  29  8
27  31  8
28  29  8
30  31  8

$$$$
