57383429
  -OEChem-09292321582D

 61 64  0     1  0  0  0  0  0999 V2000
   11.4246   -0.4412    0.0000 S   0  0  3  0  0  0  0  0  0  0  0  0
   12.3585    2.6504    0.0000 O   0  0  0  0  0  0  0  0  0  0  0  0
   11.4246   -1.4412    0.0000 O   0  0  0  0  0  0  0  0  0  0  0  0
    7.3685    1.8616    0.0000 O   0  0  0  0  0  0  0  0  0  0  0  0
    4.8633   -2.7993    0.0000 O   0  0  0  0  0  0  0  0  0  0  0  0
    2.5169   -0.2509    0.0000 O   0  0  0  0  0  0  0  0  0  0  0  0
    2.9544   -2.2024    0.0000 O   0  0  0  0  0  0  0  0  0  0  0  0
   10.9247    1.7494    0.0000 N   0  0  0  0  0  0  0  0  0  0  0  0
    6.8516    0.2085    0.0000 N   0  0  0  0  0  0  0  0  0  0  0  0
   10.3012    0.9676    0.0000 C   0  0  0  0  0  0  0  0  0  0  0  0
   10.5237   -0.0073    0.0000 C   0  0  0  0  0  0  0  0  0  0  0  0
   12.5481    0.9676    0.0000 C   0  0  0  0  0  0  0  0  0  0  0  0
   10.4908    2.6504    0.0000 C   0  0  0  0  0  0  0  0  0  0  0  0
   12.3256   -0.0073    0.0000 C   0  0  0  0  0  0  0  0  0  0  0  0
   11.9247    1.7494    0.0000 C   0  0  0  0  0  0  0  0  0  0  0  0
    9.3107    1.2900    0.0000 C   0  0  0  0  0  0  0  0  0  0  0  0
    8.5416    0.5874    0.0000 C   0  0  0  0  0  0  0  0  0  0  0  0
    9.7711   -0.7275    0.0000 C   0  0  0  0  0  0  0  0  0  0  0  0
    8.7734   -0.4281    0.0000 C   0  0  0  0  0  0  0  0  0  0  0  0
   13.5386    1.2899    0.0000 C   0  0  0  0  0  0  0  0  0  0  0  0
   13.0782   -0.7275    0.0000 C   0  0  0  0  0  0  0  0  0  0  0  0
   11.0541    3.4766    0.0000 C   0  0  0  0  0  0  0  0  0  0  0  0
    7.5872    0.8858    0.0000 C   0  0  0  0  0  0  0  0  0  0  0  0
    5.8971    0.5069    0.0000 C   0  0  0  0  0  0  0  0  0  0  0  0
    5.1614   -0.1704    0.0000 C   0  0  0  0  0  0  0  0  0  0  0  0
   14.3076    0.5873    0.0000 C   0  0  0  0  0  0  0  0  0  0  0  0
   14.0759   -0.4282    0.0000 C   0  0  0  0  0  0  0  0  0  0  0  0
    4.2070    0.1280    0.0000 C   0  0  0  0  0  0  0  0  0  0  0  0
    5.3802   -1.1462    0.0000 C   0  0  0  0  0  0  0  0  0  0  0  0
    4.6445   -1.8235    0.0000 C   0  0  0  0  0  0  0  0  0  0  0  0
    3.4714   -0.5493    0.0000 C   0  0  0  0  0  0  0  0  0  0  0  0
    3.6901   -1.5251    0.0000 C   0  0  0  0  0  0  0  0  0  0  0  0
    4.1276   -3.4766    0.0000 C   0  0  0  0  0  0  0  0  0  0  0  0
    2.2982    0.7249    0.0000 C   0  0  0  0  0  0  0  0  0  0  0  0
    2.0000   -1.9040    0.0000 C   0  0  0  0  0  0  0  0  0  0  0  0
   10.0469    3.0833    0.0000 H   0  0  0  0  0  0  0  0  0  0  0  0
    9.9874    2.2885    0.0000 H   0  0  0  0  0  0  0  0  0  0  0  0
    9.1797    1.8960    0.0000 H   0  0  0  0  0  0  0  0  0  0  0  0
    9.9160   -1.3303    0.0000 H   0  0  0  0  0  0  0  0  0  0  0  0
    8.3206   -0.8516    0.0000 H   0  0  0  0  0  0  0  0  0  0  0  0
   13.6696    1.8959    0.0000 H   0  0  0  0  0  0  0  0  0  0  0  0
   12.9332   -1.3303    0.0000 H   0  0  0  0  0  0  0  0  0  0  0  0
   11.5664    3.1274    0.0000 H   0  0  0  0  0  0  0  0  0  0  0  0
   11.4034    3.9889    0.0000 H   0  0  0  0  0  0  0  0  0  0  0  0
   10.5418    3.8259    0.0000 H   0  0  0  0  0  0  0  0  0  0  0  0
    6.1821    1.0576    0.0000 H   0  0  0  0  0  0  0  0  0  0  0  0
    5.4044    0.8832    0.0000 H   0  0  0  0  0  0  0  0  0  0  0  0
    6.9872   -0.3965    0.0000 H   0  0  0  0  0  0  0  0  0  0  0  0
   14.8994    0.7724    0.0000 H   0  0  0  0  0  0  0  0  0  0  0  0
   14.5287   -0.8516    0.0000 H   0  0  0  0  0  0  0  0  0  0  0  0
    4.0714    0.7330    0.0000 H   0  0  0  0  0  0  0  0  0  0  0  0
    5.9720   -1.3312    0.0000 H   0  0  0  0  0  0  0  0  0  0  0  0
    3.7077   -3.0205    0.0000 H   0  0  0  0  0  0  0  0  0  0  0  0
    3.6715   -3.8966    0.0000 H   0  0  0  0  0  0  0  0  0  0  0  0
    4.5476   -3.9328    0.0000 H   0  0  0  0  0  0  0  0  0  0  0  0
    2.9032    0.8605    0.0000 H   0  0  0  0  0  0  0  0  0  0  0  0
    2.1625    1.3299    0.0000 H   0  0  0  0  0  0  0  0  0  0  0  0
    1.6932    0.5893    0.0000 H   0  0  0  0  0  0  0  0  0  0  0  0
    2.1850   -1.3122    0.0000 H   0  0  0  0  0  0  0  0  0  0  0  0
    1.4083   -1.7189    0.0000 H   0  0  0  0  0  0  0  0  0  0  0  0
    1.8150   -2.4957    0.0000 H   0  0  0  0  0  0  0  0  0  0  0  0
  1  3  2  0  0  0  0
  1 11  1  0  0  0  0
  1 14  1  0  0  0  0
  2 15  2  0  0  0  0
  4 23  2  0  0  0  0
  5 30  1  0  0  0  0
  5 33  1  0  0  0  0
  6 31  1  0  0  0  0
  6 34  1  0  0  0  0
  7 32  1  0  0  0  0
  7 35  1  0  0  0  0
  8 10  1  0  0  0  0
  8 13  1  0  0  0  0
  8 15  1  0  0  0  0
  9 23  1  0  0  0  0
  9 24  1  0  0  0  0
  9 48  1  0  0  0  0
 10 11  2  0  0  0  0
 10 16  1  0  0  0  0
 11 18  1  0  0  0  0
 12 14  1  0  0  0  0
 12 15  1  0  0  0  0
 12 20  2  0  0  0  0
 13 22  1  0  0  0  0
 13 36  1  0  0  0  0
 13 37  1  0  0  0  0
 14 21  2  0  0  0  0
 16 17  2  0  0  0  0
 16 38  1  0  0  0  0
 17 19  1  0  0  0  0
 17 23  1  0  0  0  0
 18 19  2  0  0  0  0
 18 39  1  0  0  0  0
 19 40  1  0  0  0  0
 20 26  1  0  0  0  0
 20 41  1  0  0  0  0
 21 27  1  0  0  0  0
 21 42  1  0  0  0  0
 22 43  1  0  0  0  0
 22 44  1  0  0  0  0
 22 45  1  0  0  0  0
 24 25  1  0  0  0  0
 24 46  1  0  0  0  0
 24 47  1  0  0  0  0
 25 28  2  0  0  0  0
 25 29  1  0  0  0  0
 26 27  2  0  0  0  0
 26 49  1  0  0  0  0
 27 50  1  0  0  0  0
 28 31  1  0  0  0  0
 28 51  1  0  0  0  0
 29 30  2  0  0  0  0
 29 52  1  0  0  0  0
 30 32  1  0  0  0  0
 31 32  2  0  0  0  0
 33 53  1  0  0  0  0
 33 54  1  0  0  0  0
 33 55  1  0  0  0  0
 34 56  1  0  0  0  0
 34 57  1  0  0  0  0
 34 58  1  0  0  0  0
 35 59  1  0  0  0  0
 35 60  1  0  0  0  0
 35 61  1  0  0  0  0
M  END
> <PUBCHEM_COMPOUND_CID>
57383429

> <PUBCHEM_COMPOUND_CANONICALIZED>
1

> <PUBCHEM_CACTVS_COMPLEXITY>
767

> <PUBCHEM_CACTVS_HBOND_ACCEPTOR>
7

> <PUBCHEM_CACTVS_HBOND_DONOR>
1

> <PUBCHEM_CACTVS_ROTATABLE_BOND>
7

> <PUBCHEM_CACTVS_SUBSKEYS>
AAADceB7OABAAAAAAAAAAAAAAAAAAAAAAAAwYMAABYAAAAABUAAAHgQQAAAADAzB2AYyx4PABAqIAiVSUEDCCAAlKhAIiJ0O7MgNJzLktZuEMSplxhXq6Ye8+B6OMAABSAAEQQBgAAKQAAiCAAAAAAAAAA==

> <PUBCHEM_IUPAC_OPENEYE_NAME>
5-ethyl-6,11-dioxo-N-[(3,4,5-trimethoxyphenyl)methyl]benzo[b][1,4]benzothiazepine-3-carboxamide

> <PUBCHEM_IUPAC_CAS_NAME>
5-ethyl-6,11-dioxo-N-[(3,4,5-trimethoxyphenyl)methyl]-3-benzo[b][1,4]benzothiazepinecarboxamide

> <PUBCHEM_IUPAC_NAME_MARKUP>
5-ethyl-6,11-dioxo-<I>N</I>-[(3,4,5-trimethoxyphenyl)methyl]benzo[b][1,4]benzothiazepine-3-carboxamide

> <PUBCHEM_IUPAC_NAME>
5-ethyl-6,11-dioxo-N-[(3,4,5-trimethoxyphenyl)methyl]benzo[b][1,4]benzothiazepine-3-carboxamide

> <PUBCHEM_IUPAC_SYSTEMATIC_NAME>
5-ethyl-6,11-bis(oxidanylidene)-N-[(3,4,5-trimethoxyphenyl)methyl]benzo[b][1,4]benzothiazepine-3-carboxamide

> <PUBCHEM_IUPAC_TRADITIONAL_NAME>
5-ethyl-6,11-diketo-N-(3,4,5-trimethoxybenzyl)benzo[b][1,4]benzothiazepine-3-carboxamide

> <PUBCHEM_IUPAC_INCHI>
InChI=1S/C26H26N2O6S/c1-5-28-19-14-17(10-11-23(19)35(31)22-9-7-6-8-18(22)26(28)30)25(29)27-15-16-12-20(32-2)24(34-4)21(13-16)33-3/h6-14H,5,15H2,1-4H3,(H,27,29)

> <PUBCHEM_IUPAC_INCHIKEY>
CLICPRMRJONPKL-UHFFFAOYSA-N

> <PUBCHEM_XLOGP3_AA>
2.9

> <PUBCHEM_EXACT_MASS>
494.15115773

> <PUBCHEM_MOLECULAR_FORMULA>
C26H26N2O6S

> <PUBCHEM_MOLECULAR_WEIGHT>
494.6

> <PUBCHEM_OPENEYE_CAN_SMILES>
CCN1C2=C(C=CC(=C2)C(=O)NCC3=CC(=C(C(=C3)OC)OC)OC)S(=O)C4=CC=CC=C4C1=O

> <PUBCHEM_OPENEYE_ISO_SMILES>
CCN1C2=C(C=CC(=C2)C(=O)NCC3=CC(=C(C(=C3)OC)OC)OC)S(=O)C4=CC=CC=C4C1=O

> <PUBCHEM_CACTVS_TPSA>
113

> <PUBCHEM_MONOISOTOPIC_WEIGHT>
494.15115773

> <PUBCHEM_TOTAL_CHARGE>
0

> <PUBCHEM_HEAVY_ATOM_COUNT>
35

> <PUBCHEM_ATOM_DEF_STEREO_COUNT>
0

> <PUBCHEM_ATOM_UDEF_STEREO_COUNT>
1

> <PUBCHEM_BOND_DEF_STEREO_COUNT>
0

> <PUBCHEM_BOND_UDEF_STEREO_COUNT>
0

> <PUBCHEM_ISOTOPIC_ATOM_COUNT>
0

> <PUBCHEM_COMPONENT_COUNT>
1

> <PUBCHEM_CACTVS_TAUTO_COUNT>
-1

> <PUBCHEM_COORDINATE_TYPE>
1
5
255

> <PUBCHEM_BONDANNOTATIONS>
1  14  3
10  11  8
10  16  8
11  18  8
12  14  8
12  20  8
14  21  8
16  17  8
17  19  8
18  19  8
20  26  8
21  27  8
25  28  8
25  29  8
26  27  8
28  31  8
29  30  8
30  32  8
31  32  8

$$$$
