10014924
  -OEChem-09292322102D

 42 43  0     1  0  0  0  0  0999 V2000
    9.4315   -2.6031    0.0000 O   0  0  0  0  0  0  0  0  0  0  0  0
    4.5981    0.3584    0.0000 N   0  0  0  0  0  0  0  0  0  0  0  0
    7.1962   -1.1416    0.0000 N   0  0  0  0  0  0  0  0  0  0  0  0
    5.4641   -0.1416    0.0000 C   0  0  1  0  0  0  0  0  0  0  0  0
    5.4641   -1.1416    0.0000 C   0  0  0  0  0  0  0  0  0  0  0  0
    6.3301    0.3584    0.0000 C   0  0  0  0  0  0  0  0  0  0  0  0
    6.3301   -1.6416    0.0000 C   0  0  0  0  0  0  0  0  0  0  0  0
    7.1962   -0.1416    0.0000 C   0  0  0  0  0  0  0  0  0  0  0  0
    3.7320   -0.1416    0.0000 C   0  0  0  0  0  0  0  0  0  0  0  0
    4.5981    1.3584    0.0000 C   0  0  0  0  0  0  0  0  0  0  0  0
    8.1424   -1.4464    0.0000 C   0  0  0  0  0  0  0  0  0  0  0  0
    8.1424    0.1631    0.0000 C   0  0  0  0  0  0  0  0  0  0  0  0
    2.8660    0.3584    0.0000 C   0  0  0  0  0  0  0  0  0  0  0  0
    3.7320    1.8584    0.0000 C   0  0  0  0  0  0  0  0  0  0  0  0
    8.7260   -0.6416    0.0000 C   0  0  0  0  0  0  0  0  0  0  0  0
    2.0000   -0.1416    0.0000 C   0  0  0  0  0  0  0  0  0  0  0  0
    3.7320    2.8584    0.0000 C   0  0  0  0  0  0  0  0  0  0  0  0
    8.4530   -2.3969    0.0000 C   0  0  0  0  0  0  0  0  0  0  0  0
    5.4641    0.4784    0.0000 H   0  0  0  0  0  0  0  0  0  0  0  0
    4.8535   -1.0340    0.0000 H   0  0  0  0  0  0  0  0  0  0  0  0
    5.2520   -1.7242    0.0000 H   0  0  0  0  0  0  0  0  0  0  0  0
    6.7287    0.8333    0.0000 H   0  0  0  0  0  0  0  0  0  0  0  0
    5.9316    0.8333    0.0000 H   0  0  0  0  0  0  0  0  0  0  0  0
    5.9316   -2.1166    0.0000 H   0  0  0  0  0  0  0  0  0  0  0  0
    6.7287   -2.1166    0.0000 H   0  0  0  0  0  0  0  0  0  0  0  0
    3.3335   -0.6166    0.0000 H   0  0  0  0  0  0  0  0  0  0  0  0
    4.1306   -0.6166    0.0000 H   0  0  0  0  0  0  0  0  0  0  0  0
    5.2087    1.2507    0.0000 H   0  0  0  0  0  0  0  0  0  0  0  0
    4.8101    1.9410    0.0000 H   0  0  0  0  0  0  0  0  0  0  0  0
    8.3350    0.7524    0.0000 H   0  0  0  0  0  0  0  0  0  0  0  0
    3.2646    0.8333    0.0000 H   0  0  0  0  0  0  0  0  0  0  0  0
    2.4675    0.8333    0.0000 H   0  0  0  0  0  0  0  0  0  0  0  0
    3.1215    1.9660    0.0000 H   0  0  0  0  0  0  0  0  0  0  0  0
    3.5200    1.2758    0.0000 H   0  0  0  0  0  0  0  0  0  0  0  0
    9.3460   -0.6416    0.0000 H   0  0  0  0  0  0  0  0  0  0  0  0
    1.6900    0.3953    0.0000 H   0  0  0  0  0  0  0  0  0  0  0  0
    1.4631   -0.4516    0.0000 H   0  0  0  0  0  0  0  0  0  0  0  0
    2.3100   -0.6786    0.0000 H   0  0  0  0  0  0  0  0  0  0  0  0
    4.3520    2.8584    0.0000 H   0  0  0  0  0  0  0  0  0  0  0  0
    3.7320    3.4784    0.0000 H   0  0  0  0  0  0  0  0  0  0  0  0
    3.1120    2.8584    0.0000 H   0  0  0  0  0  0  0  0  0  0  0  0
    8.0390   -2.8584    0.0000 H   0  0  0  0  0  0  0  0  0  0  0  0
  1 18  2  0  0  0  0
  4  2  1  6  0  0  0
  2  9  1  0  0  0  0
  2 10  1  0  0  0  0
  3  7  1  0  0  0  0
  3  8  1  0  0  0  0
  3 11  1  0  0  0  0
  4  5  1  0  0  0  0
  4  6  1  0  0  0  0
  4 19  1  0  0  0  0
  5  7  1  0  0  0  0
  5 20  1  0  0  0  0
  5 21  1  0  0  0  0
  6  8  1  0  0  0  0
  6 22  1  0  0  0  0
  6 23  1  0  0  0  0
  7 24  1  0  0  0  0
  7 25  1  0  0  0  0
  8 12  2  0  0  0  0
  9 13  1  0  0  0  0
  9 26  1  0  0  0  0
  9 27  1  0  0  0  0
 10 14  1  0  0  0  0
 10 28  1  0  0  0  0
 10 29  1  0  0  0  0
 11 15  2  0  0  0  0
 11 18  1  0  0  0  0
 12 15  1  0  0  0  0
 12 30  1  0  0  0  0
 13 16  1  0  0  0  0
 13 31  1  0  0  0  0
 13 32  1  0  0  0  0
 14 17  1  0  0  0  0
 14 33  1  0  0  0  0
 14 34  1  0  0  0  0
 15 35  1  0  0  0  0
 16 36  1  0  0  0  0
 16 37  1  0  0  0  0
 16 38  1  0  0  0  0
 17 39  1  0  0  0  0
 17 40  1  0  0  0  0
 17 41  1  0  0  0  0
 18 42  1  0  0  0  0
M  END
> <PUBCHEM_COMPOUND_CID>
10014924

> <PUBCHEM_COMPOUND_CANONICALIZED>
1

> <PUBCHEM_CACTVS_COMPLEXITY>
263

> <PUBCHEM_CACTVS_HBOND_ACCEPTOR>
2

> <PUBCHEM_CACTVS_HBOND_DONOR>
0

> <PUBCHEM_CACTVS_ROTATABLE_BOND>
6

> <PUBCHEM_CACTVS_SUBSKEYS>
AAADceBzIAAAAAAAAAAAAAAAAAAAAWAAAAAsAAAAAAAAAFgBgAAAHgAAAAAACCjhlgYygJMMEACoASxyxACCgCAnAiAI2CG4ZNgIIPLA1bGEAQhggADIyYcYiYCQAAAAAAAAAAAAAAAAAAAAAAAAAAAAAA==

> <PUBCHEM_IUPAC_OPENEYE_NAME>
(7S)-7-(dipropylamino)-5,6,7,8-tetrahydroindolizine-3-carbaldehyde

> <PUBCHEM_IUPAC_CAS_NAME>
(7S)-7-(dipropylamino)-5,6,7,8-tetrahydroindolizine-3-carboxaldehyde

> <PUBCHEM_IUPAC_NAME_MARKUP>
(7<I>S</I>)-7-(dipropylamino)-5,6,7,8-tetrahydroindolizine-3-carbaldehyde

> <PUBCHEM_IUPAC_NAME>
(7S)-7-(dipropylamino)-5,6,7,8-tetrahydroindolizine-3-carbaldehyde

> <PUBCHEM_IUPAC_SYSTEMATIC_NAME>
(7S)-7-(dipropylamino)-5,6,7,8-tetrahydroindolizine-3-carbaldehyde

> <PUBCHEM_IUPAC_TRADITIONAL_NAME>
(7S)-7-(dipropylamino)-5,6,7,8-tetrahydroindolizine-3-carbaldehyde

> <PUBCHEM_IUPAC_INCHI>
InChI=1S/C15H24N2O/c1-3-8-16(9-4-2)13-7-10-17-14(11-13)5-6-15(17)12-18/h5-6,12-13H,3-4,7-11H2,1-2H3/t13-/m0/s1

> <PUBCHEM_IUPAC_INCHIKEY>
RIOOLQVLOZQLQJ-ZDUSSCGKSA-N

> <PUBCHEM_XLOGP3_AA>
2.7

> <PUBCHEM_EXACT_MASS>
248.188863393

> <PUBCHEM_MOLECULAR_FORMULA>
C15H24N2O

> <PUBCHEM_MOLECULAR_WEIGHT>
248.36

> <PUBCHEM_OPENEYE_CAN_SMILES>
CCCN(CCC)C1CCN2C(=CC=C2C=O)C1

> <PUBCHEM_OPENEYE_ISO_SMILES>
CCCN(CCC)[C@H]1CCN2C(=CC=C2C=O)C1

> <PUBCHEM_CACTVS_TPSA>
25.2

> <PUBCHEM_MONOISOTOPIC_WEIGHT>
248.188863393

> <PUBCHEM_TOTAL_CHARGE>
0

> <PUBCHEM_HEAVY_ATOM_COUNT>
18

> <PUBCHEM_ATOM_DEF_STEREO_COUNT>
1

> <PUBCHEM_ATOM_UDEF_STEREO_COUNT>
0

> <PUBCHEM_BOND_DEF_STEREO_COUNT>
0

> <PUBCHEM_BOND_UDEF_STEREO_COUNT>
0

> <PUBCHEM_ISOTOPIC_ATOM_COUNT>
0

> <PUBCHEM_COMPONENT_COUNT>
1

> <PUBCHEM_CACTVS_TAUTO_COUNT>
-1

> <PUBCHEM_COORDINATE_TYPE>
1
5
255

> <PUBCHEM_BONDANNOTATIONS>
11  15  8
12  15  8
4  2  6
3  11  8
3  8  8
8  12  8

$$$$
