134157769
  -OEChem-09292322382D

 80 83  0     0  0  0  0  0  0999 V2000
   10.6603    0.1900    0.0000 O   0  0  0  0  0  0  0  0  0  0  0  0
    2.8660   -5.3100    0.0000 O   0  0  0  0  0  0  0  0  0  0  0  0
   10.6603    6.1900    0.0000 O   0  0  0  0  0  0  0  0  0  0  0  0
   12.3923    8.1900    0.0000 O   0  0  0  0  0  0  0  0  0  0  0  0
    7.1962   -3.8100    0.0000 N   0  0  0  0  0  0  0  0  0  0  0  0
    7.1962   -5.8100    0.0000 N   0  0  0  0  0  0  0  0  0  0  0  0
    9.7942    1.6900    0.0000 N   0  0  0  0  0  0  0  0  0  0  0  0
    6.3301   -4.3100    0.0000 C   0  0  0  0  0  0  0  0  0  0  0  0
    8.0622   -4.3100    0.0000 C   0  0  0  0  0  0  0  0  0  0  0  0
    6.3301   -5.3100    0.0000 C   0  0  0  0  0  0  0  0  0  0  0  0
    8.0622   -5.3100    0.0000 C   0  0  0  0  0  0  0  0  0  0  0  0
    7.1962   -2.8100    0.0000 C   0  0  0  0  0  0  0  0  0  0  0  0
    8.0622   -2.3100    0.0000 C   0  0  0  0  0  0  0  0  0  0  0  0
    7.1962   -6.8100    0.0000 C   0  0  0  0  0  0  0  0  0  0  0  0
    8.0622   -1.3100    0.0000 C   0  0  0  0  0  0  0  0  0  0  0  0
    8.9282   -0.8100    0.0000 C   0  0  0  0  0  0  0  0  0  0  0  0
    6.3301   -7.3100    0.0000 C   0  0  0  0  0  0  0  0  0  0  0  0
    8.0622   -7.3100    0.0000 C   0  0  0  0  0  0  0  0  0  0  0  0
    8.9282    0.1900    0.0000 C   0  0  0  0  0  0  0  0  0  0  0  0
    5.4641   -6.8100    0.0000 C   0  0  0  0  0  0  0  0  0  0  0  0
    6.3301   -8.3100    0.0000 C   0  0  0  0  0  0  0  0  0  0  0  0
    8.0622   -8.3100    0.0000 C   0  0  0  0  0  0  0  0  0  0  0  0
    7.1962   -8.8100    0.0000 C   0  0  0  0  0  0  0  0  0  0  0  0
    9.7942    0.6900    0.0000 C   0  0  0  0  0  0  0  0  0  0  0  0
    4.5981   -7.3100    0.0000 C   0  0  0  0  0  0  0  0  0  0  0  0
    5.4641   -5.8100    0.0000 C   0  0  0  0  0  0  0  0  0  0  0  0
    3.7320   -6.8100    0.0000 C   0  0  0  0  0  0  0  0  0  0  0  0
    4.5981   -5.3100    0.0000 C   0  0  0  0  0  0  0  0  0  0  0  0
    3.7320   -5.8100    0.0000 C   0  0  0  0  0  0  0  0  0  0  0  0
   10.6603    2.1900    0.0000 C   0  0  0  0  0  0  0  0  0  0  0  0
   10.6603    3.1900    0.0000 C   0  0  0  0  0  0  0  0  0  0  0  0
    9.7942    3.6900    0.0000 C   0  0  0  0  0  0  0  0  0  0  0  0
   11.5263    3.6900    0.0000 C   0  0  0  0  0  0  0  0  0  0  0  0
    9.7942    4.6900    0.0000 C   0  0  0  0  0  0  0  0  0  0  0  0
   11.5263    4.6900    0.0000 C   0  0  0  0  0  0  0  0  0  0  0  0
   10.6603    5.1900    0.0000 C   0  0  0  0  0  0  0  0  0  0  0  0
    2.0000   -5.8100    0.0000 C   0  0  0  0  0  0  0  0  0  0  0  0
   11.5263    6.6900    0.0000 C   0  0  0  0  0  0  0  0  0  0  0  0
   11.5263    7.6900    0.0000 C   0  0  0  0  0  0  0  0  0  0  0  0
    6.1181   -3.7274    0.0000 H   0  0  0  0  0  0  0  0  0  0  0  0
    5.7196   -4.4177    0.0000 H   0  0  0  0  0  0  0  0  0  0  0  0
    8.6728   -4.4177    0.0000 H   0  0  0  0  0  0  0  0  0  0  0  0
    8.2742   -3.7274    0.0000 H   0  0  0  0  0  0  0  0  0  0  0  0
    5.7196   -5.2023    0.0000 H   0  0  0  0  0  0  0  0  0  0  0  0
    6.1181   -5.8926    0.0000 H   0  0  0  0  0  0  0  0  0  0  0  0
    8.2742   -5.8926    0.0000 H   0  0  0  0  0  0  0  0  0  0  0  0
    8.6728   -5.2023    0.0000 H   0  0  0  0  0  0  0  0  0  0  0  0
    6.9841   -2.2274    0.0000 H   0  0  0  0  0  0  0  0  0  0  0  0
    6.5856   -2.9177    0.0000 H   0  0  0  0  0  0  0  0  0  0  0  0
    8.2742   -2.8926    0.0000 H   0  0  0  0  0  0  0  0  0  0  0  0
    8.6728   -2.2023    0.0000 H   0  0  0  0  0  0  0  0  0  0  0  0
    7.8501   -0.7274    0.0000 H   0  0  0  0  0  0  0  0  0  0  0  0
    7.4516   -1.4177    0.0000 H   0  0  0  0  0  0  0  0  0  0  0  0
    9.1403   -1.3926    0.0000 H   0  0  0  0  0  0  0  0  0  0  0  0
    9.5388   -0.7023    0.0000 H   0  0  0  0  0  0  0  0  0  0  0  0
    8.5991   -7.0000    0.0000 H   0  0  0  0  0  0  0  0  0  0  0  0
    8.7162    0.7726    0.0000 H   0  0  0  0  0  0  0  0  0  0  0  0
    8.3176    0.0823    0.0000 H   0  0  0  0  0  0  0  0  0  0  0  0
    5.7932   -8.6200    0.0000 H   0  0  0  0  0  0  0  0  0  0  0  0
    8.5991   -8.6200    0.0000 H   0  0  0  0  0  0  0  0  0  0  0  0
    7.1962   -9.4300    0.0000 H   0  0  0  0  0  0  0  0  0  0  0  0
    4.5981   -7.9300    0.0000 H   0  0  0  0  0  0  0  0  0  0  0  0
    6.0010   -5.5000    0.0000 H   0  0  0  0  0  0  0  0  0  0  0  0
    9.2573    2.0000    0.0000 H   0  0  0  0  0  0  0  0  0  0  0  0
    3.1951   -7.1200    0.0000 H   0  0  0  0  0  0  0  0  0  0  0  0
    4.5981   -4.6900    0.0000 H   0  0  0  0  0  0  0  0  0  0  0  0
   10.8723    1.6074    0.0000 H   0  0  0  0  0  0  0  0  0  0  0  0
   11.2708    2.2977    0.0000 H   0  0  0  0  0  0  0  0  0  0  0  0
    9.2573    3.3800    0.0000 H   0  0  0  0  0  0  0  0  0  0  0  0
   12.0632    3.3800    0.0000 H   0  0  0  0  0  0  0  0  0  0  0  0
    9.2573    5.0000    0.0000 H   0  0  0  0  0  0  0  0  0  0  0  0
   12.0632    5.0000    0.0000 H   0  0  0  0  0  0  0  0  0  0  0  0
    1.6900   -5.2731    0.0000 H   0  0  0  0  0  0  0  0  0  0  0  0
    1.4631   -6.1200    0.0000 H   0  0  0  0  0  0  0  0  0  0  0  0
    2.3100   -6.3469    0.0000 H   0  0  0  0  0  0  0  0  0  0  0  0
   11.7383    6.1074    0.0000 H   0  0  0  0  0  0  0  0  0  0  0  0
   12.1369    6.7977    0.0000 H   0  0  0  0  0  0  0  0  0  0  0  0
   11.3142    8.2726    0.0000 H   0  0  0  0  0  0  0  0  0  0  0  0
   10.9157    7.5823    0.0000 H   0  0  0  0  0  0  0  0  0  0  0  0
   12.3923    8.8100    0.0000 H   0  0  0  0  0  0  0  0  0  0  0  0
  1 24  2  0  0  0  0
  2 29  1  0  0  0  0
  2 37  1  0  0  0  0
  3 36  1  0  0  0  0
  3 38  1  0  0  0  0
  4 39  1  0  0  0  0
  4 80  1  0  0  0  0
  5  8  1  0  0  0  0
  5  9  1  0  0  0  0
  5 12  1  0  0  0  0
  6 10  1  0  0  0  0
  6 11  1  0  0  0  0
  6 14  1  0  0  0  0
  7 24  1  0  0  0  0
  7 30  1  0  0  0  0
  7 64  1  0  0  0  0
  8 10  1  0  0  0  0
  8 40  1  0  0  0  0
  8 41  1  0  0  0  0
  9 11  1  0  0  0  0
  9 42  1  0  0  0  0
  9 43  1  0  0  0  0
 10 44  1  0  0  0  0
 10 45  1  0  0  0  0
 11 46  1  0  0  0  0
 11 47  1  0  0  0  0
 12 13  1  0  0  0  0
 12 48  1  0  0  0  0
 12 49  1  0  0  0  0
 13 15  1  0  0  0  0
 13 50  1  0  0  0  0
 13 51  1  0  0  0  0
 14 17  1  0  0  0  0
 14 18  2  0  0  0  0
 15 16  1  0  0  0  0
 15 52  1  0  0  0  0
 15 53  1  0  0  0  0
 16 19  1  0  0  0  0
 16 54  1  0  0  0  0
 16 55  1  0  0  0  0
 17 20  1  0  0  0  0
 17 21  2  0  0  0  0
 18 22  1  0  0  0  0
 18 56  1  0  0  0  0
 19 24  1  0  0  0  0
 19 57  1  0  0  0  0
 19 58  1  0  0  0  0
 20 25  2  0  0  0  0
 20 26  1  0  0  0  0
 21 23  1  0  0  0  0
 21 59  1  0  0  0  0
 22 23  2  0  0  0  0
 22 60  1  0  0  0  0
 23 61  1  0  0  0  0
 25 27  1  0  0  0  0
 25 62  1  0  0  0  0
 26 28  2  0  0  0  0
 26 63  1  0  0  0  0
 27 29  2  0  0  0  0
 27 65  1  0  0  0  0
 28 29  1  0  0  0  0
 28 66  1  0  0  0  0
 30 31  1  0  0  0  0
 30 67  1  0  0  0  0
 30 68  1  0  0  0  0
 31 32  2  0  0  0  0
 31 33  1  0  0  0  0
 32 34  1  0  0  0  0
 32 69  1  0  0  0  0
 33 35  2  0  0  0  0
 33 70  1  0  0  0  0
 34 36  2  0  0  0  0
 34 71  1  0  0  0  0
 35 36  1  0  0  0  0
 35 72  1  0  0  0  0
 37 73  1  0  0  0  0
 37 74  1  0  0  0  0
 37 75  1  0  0  0  0
 38 39  1  0  0  0  0
 38 76  1  0  0  0  0
 38 77  1  0  0  0  0
 39 78  1  0  0  0  0
 39 79  1  0  0  0  0
M  END
> <PUBCHEM_COMPOUND_CID>
134157769

> <PUBCHEM_COMPOUND_CANONICALIZED>
1

> <PUBCHEM_CACTVS_COMPLEXITY>
670

> <PUBCHEM_CACTVS_HBOND_ACCEPTOR>
6

> <PUBCHEM_CACTVS_HBOND_DONOR>
2

> <PUBCHEM_CACTVS_ROTATABLE_BOND>
14

> <PUBCHEM_CACTVS_SUBSKEYS>
AAADcfB/OAAAAAAAAAAAAAAAAAAAAAAAAAA8YMEAAAAAAAABUAAAHgAQCAAADAzhmAYyxoPABgCIAiVSUACCCAAhIgAIiIEObIgNdjLEsZuWOCjk1hHL6AeY2PIOoAAAAAACAABAAAAAAAQAAAAAAAAAAA==

> <PUBCHEM_IUPAC_OPENEYE_NAME>
N-[[4-(2-hydroxyethoxy)phenyl]methyl]-6-[4-[2-(4-methoxyphenyl)phenyl]piperazin-1-yl]hexanamide

> <PUBCHEM_IUPAC_CAS_NAME>
N-[[4-(2-hydroxyethoxy)phenyl]methyl]-6-[4-[2-(4-methoxyphenyl)phenyl]-1-piperazinyl]hexanamide

> <PUBCHEM_IUPAC_NAME_MARKUP>
<I>N</I>-[[4-(2-hydroxyethoxy)phenyl]methyl]-6-[4-[2-(4-methoxyphenyl)phenyl]piperazin-1-yl]hexanamide

> <PUBCHEM_IUPAC_NAME>
N-[[4-(2-hydroxyethoxy)phenyl]methyl]-6-[4-[2-(4-methoxyphenyl)phenyl]piperazin-1-yl]hexanamide

> <PUBCHEM_IUPAC_SYSTEMATIC_NAME>
N-[[4-(2-hydroxyethyloxy)phenyl]methyl]-6-[4-[2-(4-methoxyphenyl)phenyl]piperazin-1-yl]hexanamide

> <PUBCHEM_IUPAC_TRADITIONAL_NAME>
N-[4-(2-hydroxyethoxy)benzyl]-6-[4-[2-(4-methoxyphenyl)phenyl]piperazino]hexanamide

> <PUBCHEM_IUPAC_INCHI>
InChI=1S/C32H41N3O4/c1-38-28-16-12-27(13-17-28)30-7-4-5-8-31(30)35-21-19-34(20-22-35)18-6-2-3-9-32(37)33-25-26-10-14-29(15-11-26)39-24-23-36/h4-5,7-8,10-17,36H,2-3,6,9,18-25H2,1H3,(H,33,37)

> <PUBCHEM_IUPAC_INCHIKEY>
BTTMPMPJNCTVFY-UHFFFAOYSA-N

> <PUBCHEM_XLOGP3_AA>
4.6

> <PUBCHEM_EXACT_MASS>
531.30970680

> <PUBCHEM_MOLECULAR_FORMULA>
C32H41N3O4

> <PUBCHEM_MOLECULAR_WEIGHT>
531.7

> <PUBCHEM_OPENEYE_CAN_SMILES>
COC1=CC=C(C=C1)C2=CC=CC=C2N3CCN(CC3)CCCCCC(=O)NCC4=CC=C(C=C4)OCCO

> <PUBCHEM_OPENEYE_ISO_SMILES>
COC1=CC=C(C=C1)C2=CC=CC=C2N3CCN(CC3)CCCCCC(=O)NCC4=CC=C(C=C4)OCCO

> <PUBCHEM_CACTVS_TPSA>
74.3

> <PUBCHEM_MONOISOTOPIC_WEIGHT>
531.30970680

> <PUBCHEM_TOTAL_CHARGE>
0

> <PUBCHEM_HEAVY_ATOM_COUNT>
39

> <PUBCHEM_ATOM_DEF_STEREO_COUNT>
0

> <PUBCHEM_ATOM_UDEF_STEREO_COUNT>
0

> <PUBCHEM_BOND_DEF_STEREO_COUNT>
0

> <PUBCHEM_BOND_UDEF_STEREO_COUNT>
0

> <PUBCHEM_ISOTOPIC_ATOM_COUNT>
0

> <PUBCHEM_COMPONENT_COUNT>
1

> <PUBCHEM_CACTVS_TAUTO_COUNT>
-1

> <PUBCHEM_COORDINATE_TYPE>
1
5
255

> <PUBCHEM_BONDANNOTATIONS>
14  17  8
14  18  8
17  21  8
18  22  8
20  25  8
20  26  8
21  23  8
22  23  8
25  27  8
26  28  8
27  29  8
28  29  8
31  32  8
31  33  8
32  34  8
33  35  8
34  36  8
35  36  8

$$$$
