122177645
  -OEChem-09292322002D

 92 95  0     1  0  0  0  0  0999 V2000
   20.6201   -0.9119    0.0000 O   0  0  0  0  0  0  0  0  0  0  0  0
   11.9434    3.1227    0.0000 O   0  0  0  0  0  0  0  0  0  0  0  0
    8.4793    0.1227    0.0000 O   0  0  0  0  0  0  0  0  0  0  0  0
    8.4793    2.1227    0.0000 O   0  0  0  0  0  0  0  0  0  0  0  0
   17.1396    2.1227    0.0000 N   0  0  3  0  0  0  0  0  0  0  0  0
   12.8095    1.6227    0.0000 N   0  0  0  0  0  0  0  0  0  0  0  0
    5.1646   -3.2137    0.0000 N   0  0  0  0  0  0  0  0  0  0  0  0
    6.6428   -3.8718    0.0000 N   0  0  0  0  0  0  0  0  0  0  0  0
    5.6646   -4.0797    0.0000 N   0  0  0  0  0  0  0  0  0  0  0  0
   18.0056    1.6227    0.0000 C   0  0  1  0  0  0  0  0  0  0  0  0
   18.0056    0.6227    0.0000 C   0  0  0  0  0  0  0  0  0  0  0  0
   18.8716    2.1227    0.0000 C   0  0  0  0  0  0  0  0  0  0  0  0
   18.8716    0.1227    0.0000 C   0  0  0  0  0  0  0  0  0  0  0  0
   19.7377    1.6227    0.0000 C   0  0  0  0  0  0  0  0  0  0  0  0
   19.7377    0.6227    0.0000 C   0  0  0  0  0  0  0  0  0  0  0  0
   16.2736    1.6227    0.0000 C   0  0  0  0  0  0  0  0  0  0  0  0
   17.1396    3.1227    0.0000 C   0  0  0  0  0  0  0  0  0  0  0  0
   15.4075    2.1227    0.0000 C   0  0  0  0  0  0  0  0  0  0  0  0
   16.2736    3.6227    0.0000 C   0  0  0  0  0  0  0  0  0  0  0  0
   20.6316    2.1574    0.0000 C   0  0  0  0  0  0  0  0  0  0  0  0
   20.6316    0.0880    0.0000 C   0  0  0  0  0  0  0  0  0  0  0  0
   14.5415    1.6227    0.0000 C   0  0  0  0  0  0  0  0  0  0  0  0
   21.5377    1.6435    0.0000 C   0  0  0  0  0  0  0  0  0  0  0  0
   21.5377    0.6019    0.0000 C   0  0  0  0  0  0  0  0  0  0  0  0
   16.2736    4.6227    0.0000 C   0  0  0  0  0  0  0  0  0  0  0  0
   13.6755    2.1227    0.0000 C   0  0  0  0  0  0  0  0  0  0  0  0
   11.9434    2.1227    0.0000 C   0  0  0  0  0  0  0  0  0  0  0  0
   11.0774    1.6227    0.0000 C   0  0  0  0  0  0  0  0  0  0  0  0
   10.2114    2.1227    0.0000 C   0  0  0  0  0  0  0  0  0  0  0  0
   11.0774    0.6227    0.0000 C   0  0  0  0  0  0  0  0  0  0  0  0
    9.3454    1.6227    0.0000 C   0  0  0  0  0  0  0  0  0  0  0  0
    9.3454    0.6227    0.0000 C   0  0  0  0  0  0  0  0  0  0  0  0
   10.2114    0.1227    0.0000 C   0  0  0  0  0  0  0  0  0  0  0  0
    7.6133   -1.3773    0.0000 C   0  0  0  0  0  0  0  0  0  0  0  0
    7.6133   -2.3773    0.0000 C   0  0  0  0  0  0  0  0  0  0  0  0
    4.1701   -3.1092    0.0000 C   0  0  0  0  0  0  0  0  0  0  0  0
    3.5823   -3.9182    0.0000 C   0  0  0  0  0  0  0  0  0  0  0  0
    8.4793   -0.8773    0.0000 C   0  0  0  0  0  0  0  0  0  0  0  0
    6.7473   -2.8773    0.0000 C   0  0  0  0  0  0  0  0  0  0  0  0
    2.5878   -3.8137    0.0000 C   0  0  0  0  0  0  0  0  0  0  0  0
    5.8338   -2.4706    0.0000 C   0  0  0  0  0  0  0  0  0  0  0  0
    2.0000   -4.6227    0.0000 C   0  0  0  0  0  0  0  0  0  0  0  0
    8.4793    3.1227    0.0000 C   0  0  0  0  0  0  0  0  0  0  0  0
   18.0056    2.2427    0.0000 H   0  0  0  0  0  0  0  0  0  0  0  0
   17.3950    0.7304    0.0000 H   0  0  0  0  0  0  0  0  0  0  0  0
   17.7936    0.0401    0.0000 H   0  0  0  0  0  0  0  0  0  0  0  0
   19.2702    2.5976    0.0000 H   0  0  0  0  0  0  0  0  0  0  0  0
   18.4731    2.5976    0.0000 H   0  0  0  0  0  0  0  0  0  0  0  0
   18.4731   -0.3523    0.0000 H   0  0  0  0  0  0  0  0  0  0  0  0
   19.2702   -0.3523    0.0000 H   0  0  0  0  0  0  0  0  0  0  0  0
   15.8750    1.1478    0.0000 H   0  0  0  0  0  0  0  0  0  0  0  0
   16.6721    1.1477    0.0000 H   0  0  0  0  0  0  0  0  0  0  0  0
   17.7502    3.0150    0.0000 H   0  0  0  0  0  0  0  0  0  0  0  0
   17.3516    3.7053    0.0000 H   0  0  0  0  0  0  0  0  0  0  0  0
   15.8061    2.5976    0.0000 H   0  0  0  0  0  0  0  0  0  0  0  0
   15.0090    2.5976    0.0000 H   0  0  0  0  0  0  0  0  0  0  0  0
   15.6630    3.7304    0.0000 H   0  0  0  0  0  0  0  0  0  0  0  0
   16.0615    3.0401    0.0000 H   0  0  0  0  0  0  0  0  0  0  0  0
   20.6244    2.7773    0.0000 H   0  0  0  0  0  0  0  0  0  0  0  0
   14.1430    1.1477    0.0000 H   0  0  0  0  0  0  0  0  0  0  0  0
   14.9400    1.1478    0.0000 H   0  0  0  0  0  0  0  0  0  0  0  0
   22.0734    1.9556    0.0000 H   0  0  0  0  0  0  0  0  0  0  0  0
   22.0734    0.2898    0.0000 H   0  0  0  0  0  0  0  0  0  0  0  0
   16.8936    4.6227    0.0000 H   0  0  0  0  0  0  0  0  0  0  0  0
   16.2736    5.2427    0.0000 H   0  0  0  0  0  0  0  0  0  0  0  0
   15.6536    4.6227    0.0000 H   0  0  0  0  0  0  0  0  0  0  0  0
   14.0740    2.5976    0.0000 H   0  0  0  0  0  0  0  0  0  0  0  0
   13.2770    2.5976    0.0000 H   0  0  0  0  0  0  0  0  0  0  0  0
   21.1534   -1.2281    0.0000 H   0  0  0  0  0  0  0  0  0  0  0  0
   12.8095    1.0027    0.0000 H   0  0  0  0  0  0  0  0  0  0  0  0
   10.2114    2.7427    0.0000 H   0  0  0  0  0  0  0  0  0  0  0  0
   11.6144    0.3127    0.0000 H   0  0  0  0  0  0  0  0  0  0  0  0
    7.4013   -0.7947    0.0000 H   0  0  0  0  0  0  0  0  0  0  0  0
    7.0027   -1.4850    0.0000 H   0  0  0  0  0  0  0  0  0  0  0  0
   10.2114   -0.4973    0.0000 H   0  0  0  0  0  0  0  0  0  0  0  0
    7.8254   -2.9599    0.0000 H   0  0  0  0  0  0  0  0  0  0  0  0
    8.2239   -2.2696    0.0000 H   0  0  0  0  0  0  0  0  0  0  0  0
    4.3410   -2.5132    0.0000 H   0  0  0  0  0  0  0  0  0  0  0  0
    3.6128   -2.8374    0.0000 H   0  0  0  0  0  0  0  0  0  0  0  0
    3.4114   -4.5142    0.0000 H   0  0  0  0  0  0  0  0  0  0  0  0
    4.1396   -4.1900    0.0000 H   0  0  0  0  0  0  0  0  0  0  0  0
    8.6914   -1.4599    0.0000 H   0  0  0  0  0  0  0  0  0  0  0  0
    9.0899   -0.7696    0.0000 H   0  0  0  0  0  0  0  0  0  0  0  0
    2.7587   -3.2177    0.0000 H   0  0  0  0  0  0  0  0  0  0  0  0
    2.0305   -3.5419    0.0000 H   0  0  0  0  0  0  0  0  0  0  0  0
    5.7048   -1.8641    0.0000 H   0  0  0  0  0  0  0  0  0  0  0  0
    1.4984   -4.2583    0.0000 H   0  0  0  0  0  0  0  0  0  0  0  0
    1.6356   -5.1243    0.0000 H   0  0  0  0  0  0  0  0  0  0  0  0
    2.5016   -4.9871    0.0000 H   0  0  0  0  0  0  0  0  0  0  0  0
    9.0993    3.1227    0.0000 H   0  0  0  0  0  0  0  0  0  0  0  0
    8.4793    3.7427    0.0000 H   0  0  0  0  0  0  0  0  0  0  0  0
    7.8593    3.1227    0.0000 H   0  0  0  0  0  0  0  0  0  0  0  0
  1 21  1  0  0  0  0
  1 69  1  0  0  0  0
  2 27  2  0  0  0  0
  3 32  1  0  0  0  0
  3 38  1  0  0  0  0
  4 31  1  0  0  0  0
  4 43  1  0  0  0  0
 10  5  1  6  0  0  0
  5 16  1  0  0  0  0
  5 17  1  0  0  0  0
  6 26  1  0  0  0  0
  6 27  1  0  0  0  0
  6 70  1  0  0  0  0
  7  9  1  0  0  0  0
  7 36  1  0  0  0  0
  7 41  1  0  0  0  0
  8  9  2  0  0  0  0
  8 39  1  0  0  0  0
 10 11  1  0  0  0  0
 10 12  1  0  0  0  0
 10 44  1  0  0  0  0
 11 13  1  0  0  0  0
 11 45  1  0  0  0  0
 11 46  1  0  0  0  0
 12 14  1  0  0  0  0
 12 47  1  0  0  0  0
 12 48  1  0  0  0  0
 13 15  1  0  0  0  0
 13 49  1  0  0  0  0
 13 50  1  0  0  0  0
 14 15  2  0  0  0  0
 14 20  1  0  0  0  0
 15 21  1  0  0  0  0
 16 18  1  0  0  0  0
 16 51  1  0  0  0  0
 16 52  1  0  0  0  0
 17 19  1  0  0  0  0
 17 53  1  0  0  0  0
 17 54  1  0  0  0  0
 18 22  1  0  0  0  0
 18 55  1  0  0  0  0
 18 56  1  0  0  0  0
 19 25  1  0  0  0  0
 19 57  1  0  0  0  0
 19 58  1  0  0  0  0
 20 23  2  0  0  0  0
 20 59  1  0  0  0  0
 21 24  2  0  0  0  0
 22 26  1  0  0  0  0
 22 60  1  0  0  0  0
 22 61  1  0  0  0  0
 23 24  1  0  0  0  0
 23 62  1  0  0  0  0
 24 63  1  0  0  0  0
 25 64  1  0  0  0  0
 25 65  1  0  0  0  0
 25 66  1  0  0  0  0
 26 67  1  0  0  0  0
 26 68  1  0  0  0  0
 27 28  1  0  0  0  0
 28 29  2  0  0  0  0
 28 30  1  0  0  0  0
 29 31  1  0  0  0  0
 29 71  1  0  0  0  0
 30 33  2  0  0  0  0
 30 72  1  0  0  0  0
 31 32  2  0  0  0  0
 32 33  1  0  0  0  0
 33 75  1  0  0  0  0
 34 35  1  0  0  0  0
 34 38  1  0  0  0  0
 34 73  1  0  0  0  0
 34 74  1  0  0  0  0
 35 39  1  0  0  0  0
 35 76  1  0  0  0  0
 35 77  1  0  0  0  0
 36 37  1  0  0  0  0
 36 78  1  0  0  0  0
 36 79  1  0  0  0  0
 37 40  1  0  0  0  0
 37 80  1  0  0  0  0
 37 81  1  0  0  0  0
 38 82  1  0  0  0  0
 38 83  1  0  0  0  0
 39 41  2  0  0  0  0
 40 42  1  0  0  0  0
 40 84  1  0  0  0  0
 40 85  1  0  0  0  0
 41 86  1  0  0  0  0
 42 87  1  0  0  0  0
 42 88  1  0  0  0  0
 42 89  1  0  0  0  0
 43 90  1  0  0  0  0
 43 91  1  0  0  0  0
 43 92  1  0  0  0  0
M  END
> <PUBCHEM_COMPOUND_CID>
122177645

> <PUBCHEM_COMPOUND_CANONICALIZED>
1

> <PUBCHEM_CACTVS_COMPLEXITY>
790

> <PUBCHEM_CACTVS_HBOND_ACCEPTOR>
7

> <PUBCHEM_CACTVS_HBOND_DONOR>
2

> <PUBCHEM_CACTVS_ROTATABLE_BOND>
18

> <PUBCHEM_CACTVS_SUBSKEYS>
AAADcfB/uAAAAAAAAAAAAAAAAAAAAWAAAAAwYMAAAAAAAADB0AAAHgAYCAAADCzhngY+hpPIBgCqAzV3VACCDAQ1sgAY2IE+/MgNZjLGtRuWeSrk1hHK+Ye63LPOoAABAAAYQABQAAKAADCAAAAAAAAAAA==

> <PUBCHEM_IUPAC_OPENEYE_NAME>
4-[3-(1-butyltriazol-4-yl)propoxy]-N-[4-[[(2S)-5-hydroxytetralin-2-yl]-propyl-amino]butyl]-3-methoxy-benzamide

> <PUBCHEM_IUPAC_CAS_NAME>
4-[3-(1-butyl-4-triazolyl)propoxy]-N-[4-[[(2S)-5-hydroxy-1,2,3,4-tetrahydronaphthalen-2-yl]-propylamino]butyl]-3-methoxybenzamide

> <PUBCHEM_IUPAC_NAME_MARKUP>
4-[3-(1-butyltriazol-4-yl)propoxy]-<I>N</I>-[4-[[(2<I>S</I>)-5-hydroxy-1,2,3,4-tetrahydronaphthalen-2-yl]-propylamino]butyl]-3-methoxybenzamide

> <PUBCHEM_IUPAC_NAME>
4-[3-(1-butyltriazol-4-yl)propoxy]-N-[4-[[(2S)-5-hydroxy-1,2,3,4-tetrahydronaphthalen-2-yl]-propylamino]butyl]-3-methoxybenzamide

> <PUBCHEM_IUPAC_SYSTEMATIC_NAME>
4-[3-(1-butyl-1,2,3-triazol-4-yl)propoxy]-3-methoxy-N-[4-[[(2S)-5-oxidanyl-1,2,3,4-tetrahydronaphthalen-2-yl]-propyl-amino]butyl]benzamide

> <PUBCHEM_IUPAC_TRADITIONAL_NAME>
4-[3-(1-butyltriazol-4-yl)propoxy]-N-[4-[[(2S)-5-hydroxytetralin-2-yl]-propyl-amino]butyl]-3-methoxy-benzamide

> <PUBCHEM_IUPAC_INCHI>
InChI=1S/C34H49N5O4/c1-4-6-21-39-25-28(36-37-39)12-10-22-43-32-17-14-27(24-33(32)42-3)34(41)35-18-7-8-20-38(19-5-2)29-15-16-30-26(23-29)11-9-13-31(30)40/h9,11,13-14,17,24-25,29,40H,4-8,10,12,15-16,18-23H2,1-3H3,(H,35,41)/t29-/m0/s1

> <PUBCHEM_IUPAC_INCHIKEY>
OVKBSFKFSBQCLW-LJAQVGFWSA-N

> <PUBCHEM_XLOGP3_AA>
6.1

> <PUBCHEM_EXACT_MASS>
591.37845506

> <PUBCHEM_MOLECULAR_FORMULA>
C34H49N5O4

> <PUBCHEM_MOLECULAR_WEIGHT>
591.8

> <PUBCHEM_OPENEYE_CAN_SMILES>
CCCCN1C=C(N=N1)CCCOC2=C(C=C(C=C2)C(=O)NCCCCN(CCC)C3CCC4=C(C3)C=CC=C4O)OC

> <PUBCHEM_OPENEYE_ISO_SMILES>
CCCCN1C=C(N=N1)CCCOC2=C(C=C(C=C2)C(=O)NCCCCN(CCC)[C@H]3CCC4=C(C3)C=CC=C4O)OC

> <PUBCHEM_CACTVS_TPSA>
102

> <PUBCHEM_MONOISOTOPIC_WEIGHT>
591.37845506

> <PUBCHEM_TOTAL_CHARGE>
0

> <PUBCHEM_HEAVY_ATOM_COUNT>
43

> <PUBCHEM_ATOM_DEF_STEREO_COUNT>
1

> <PUBCHEM_ATOM_UDEF_STEREO_COUNT>
0

> <PUBCHEM_BOND_DEF_STEREO_COUNT>
0

> <PUBCHEM_BOND_UDEF_STEREO_COUNT>
0

> <PUBCHEM_ISOTOPIC_ATOM_COUNT>
0

> <PUBCHEM_COMPONENT_COUNT>
1

> <PUBCHEM_CACTVS_TAUTO_COUNT>
-1

> <PUBCHEM_COORDINATE_TYPE>
1
5
255

> <PUBCHEM_BONDANNOTATIONS>
14  15  8
14  20  8
15  21  8
20  23  8
21  24  8
23  24  8
28  29  8
28  30  8
29  31  8
30  33  8
31  32  8
32  33  8
39  41  8
10  5  6
7  41  8
7  9  8
8  39  8
8  9  8

$$$$
