10402380
  -OEChem-09292322132D

 46 48  0     1  0  0  0  0  0999 V2000
    8.9446   -2.7673    0.0000 F   0  0  0  0  0  0  0  0  0  0  0  0
    5.4641    0.2673    0.0000 N   0  0  3  0  0  0  0  0  0  0  0  0
    6.3301   -0.2327    0.0000 C   0  0  2  0  0  0  0  0  0  0  0  0
    6.3301   -1.2327    0.0000 C   0  0  0  0  0  0  0  0  0  0  0  0
    7.1962    0.2673    0.0000 C   0  0  0  0  0  0  0  0  0  0  0  0
    7.1962   -1.7327    0.0000 C   0  0  0  0  0  0  0  0  0  0  0  0
    8.0622   -0.2327    0.0000 C   0  0  0  0  0  0  0  0  0  0  0  0
    8.0622   -1.2327    0.0000 C   0  0  0  0  0  0  0  0  0  0  0  0
    5.4641    1.2673    0.0000 C   0  0  0  0  0  0  0  0  0  0  0  0
    4.5981   -0.2327    0.0000 C   0  0  0  0  0  0  0  0  0  0  0  0
    6.3301    1.7673    0.0000 C   0  0  0  0  0  0  0  0  0  0  0  0
    8.9561    0.3020    0.0000 C   0  0  0  0  0  0  0  0  0  0  0  0
    8.9561   -1.7674    0.0000 C   0  0  0  0  0  0  0  0  0  0  0  0
    3.7320    0.2673    0.0000 C   0  0  0  0  0  0  0  0  0  0  0  0
    9.8622   -0.2119    0.0000 C   0  0  0  0  0  0  0  0  0  0  0  0
    9.8622   -1.2535    0.0000 C   0  0  0  0  0  0  0  0  0  0  0  0
    6.3301    2.7673    0.0000 C   0  0  0  0  0  0  0  0  0  0  0  0
    2.8660   -0.2327    0.0000 C   0  0  0  0  0  0  0  0  0  0  0  0
    3.7320    1.2673    0.0000 C   0  0  0  0  0  0  0  0  0  0  0  0
    2.0000    0.2673    0.0000 C   0  0  0  0  0  0  0  0  0  0  0  0
    2.8660    1.7673    0.0000 C   0  0  0  0  0  0  0  0  0  0  0  0
    2.0000    1.2673    0.0000 C   0  0  0  0  0  0  0  0  0  0  0  0
    5.7932   -0.5427    0.0000 H   0  0  0  0  0  0  0  0  0  0  0  0
    5.7196   -1.1250    0.0000 H   0  0  0  0  0  0  0  0  0  0  0  0
    6.1181   -1.8153    0.0000 H   0  0  0  0  0  0  0  0  0  0  0  0
    7.5947    0.7422    0.0000 H   0  0  0  0  0  0  0  0  0  0  0  0
    6.7976    0.7422    0.0000 H   0  0  0  0  0  0  0  0  0  0  0  0
    6.7976   -2.2076    0.0000 H   0  0  0  0  0  0  0  0  0  0  0  0
    7.5947   -2.2076    0.0000 H   0  0  0  0  0  0  0  0  0  0  0  0
    5.2520    1.8499    0.0000 H   0  0  0  0  0  0  0  0  0  0  0  0
    4.8535    1.1596    0.0000 H   0  0  0  0  0  0  0  0  0  0  0  0
    4.1996   -0.7076    0.0000 H   0  0  0  0  0  0  0  0  0  0  0  0
    4.9966   -0.7076    0.0000 H   0  0  0  0  0  0  0  0  0  0  0  0
    6.5422    1.1847    0.0000 H   0  0  0  0  0  0  0  0  0  0  0  0
    6.9407    1.8750    0.0000 H   0  0  0  0  0  0  0  0  0  0  0  0
    8.9490    0.9219    0.0000 H   0  0  0  0  0  0  0  0  0  0  0  0
   10.3979    0.1002    0.0000 H   0  0  0  0  0  0  0  0  0  0  0  0
   10.3979   -1.5656    0.0000 H   0  0  0  0  0  0  0  0  0  0  0  0
    6.9501    2.7673    0.0000 H   0  0  0  0  0  0  0  0  0  0  0  0
    6.3301    3.3873    0.0000 H   0  0  0  0  0  0  0  0  0  0  0  0
    5.7101    2.7673    0.0000 H   0  0  0  0  0  0  0  0  0  0  0  0
    2.8660   -0.8527    0.0000 H   0  0  0  0  0  0  0  0  0  0  0  0
    4.2690    1.5773    0.0000 H   0  0  0  0  0  0  0  0  0  0  0  0
    1.4631   -0.0427    0.0000 H   0  0  0  0  0  0  0  0  0  0  0  0
    2.8660    2.3873    0.0000 H   0  0  0  0  0  0  0  0  0  0  0  0
    1.4631    1.5773    0.0000 H   0  0  0  0  0  0  0  0  0  0  0  0
  1 13  1  0  0  0  0
  3  2  1  1  0  0  0
  2  9  1  0  0  0  0
  2 10  1  0  0  0  0
  3  4  1  0  0  0  0
  3  5  1  0  0  0  0
  3 23  1  0  0  0  0
  4  6  1  0  0  0  0
  4 24  1  0  0  0  0
  4 25  1  0  0  0  0
  5  7  1  0  0  0  0
  5 26  1  0  0  0  0
  5 27  1  0  0  0  0
  6  8  1  0  0  0  0
  6 28  1  0  0  0  0
  6 29  1  0  0  0  0
  7  8  2  0  0  0  0
  7 12  1  0  0  0  0
  8 13  1  0  0  0  0
  9 11  1  0  0  0  0
  9 30  1  0  0  0  0
  9 31  1  0  0  0  0
 10 14  1  0  0  0  0
 10 32  1  0  0  0  0
 10 33  1  0  0  0  0
 11 17  1  0  0  0  0
 11 34  1  0  0  0  0
 11 35  1  0  0  0  0
 12 15  2  0  0  0  0
 12 36  1  0  0  0  0
 13 16  2  0  0  0  0
 14 18  2  0  0  0  0
 14 19  1  0  0  0  0
 15 16  1  0  0  0  0
 15 37  1  0  0  0  0
 16 38  1  0  0  0  0
 17 39  1  0  0  0  0
 17 40  1  0  0  0  0
 17 41  1  0  0  0  0
 18 20  1  0  0  0  0
 18 42  1  0  0  0  0
 19 21  2  0  0  0  0
 19 43  1  0  0  0  0
 20 22  2  0  0  0  0
 20 44  1  0  0  0  0
 21 22  1  0  0  0  0
 21 45  1  0  0  0  0
 22 46  1  0  0  0  0
M  END
> <PUBCHEM_COMPOUND_CID>
10402380

> <PUBCHEM_COMPOUND_CANONICALIZED>
1

> <PUBCHEM_CACTVS_COMPLEXITY>
326

> <PUBCHEM_CACTVS_HBOND_ACCEPTOR>
2

> <PUBCHEM_CACTVS_HBOND_DONOR>
0

> <PUBCHEM_CACTVS_ROTATABLE_BOND>
5

> <PUBCHEM_CACTVS_SUBSKEYS>
AAADceB6AQAAAAAAAAAAAAAAAAAAAAAAAAAwYMAAAAAAAADBQAAAHQAAAAAADCjBGAwyAIMAAACAAiBCAACCAAAgAAAIiAAIBIgIICKAkRGEIAhggACIiAcQgIAOgAAAAAAQAAAQAACAACAAAAAAAAAAAA==

> <PUBCHEM_IUPAC_OPENEYE_NAME>
(2R)-N-benzyl-5-fluoro-N-propyl-tetralin-2-amine

> <PUBCHEM_IUPAC_CAS_NAME>
(2R)-5-fluoro-N-(phenylmethyl)-N-propyl-1,2,3,4-tetrahydronaphthalen-2-amine

> <PUBCHEM_IUPAC_NAME_MARKUP>
(2<I>R</I>)-<I>N</I>-benzyl-5-fluoro-<I>N</I>-propyl-1,2,3,4-tetrahydronaphthalen-2-amine

> <PUBCHEM_IUPAC_NAME>
(2R)-N-benzyl-5-fluoro-N-propyl-1,2,3,4-tetrahydronaphthalen-2-amine

> <PUBCHEM_IUPAC_SYSTEMATIC_NAME>
(2R)-5-fluoranyl-N-(phenylmethyl)-N-propyl-1,2,3,4-tetrahydronaphthalen-2-amine

> <PUBCHEM_IUPAC_TRADITIONAL_NAME>
benzyl-[(2R)-5-fluorotetralin-2-yl]-propyl-amine

> <PUBCHEM_IUPAC_INCHI>
InChI=1S/C20H24FN/c1-2-13-22(15-16-7-4-3-5-8-16)18-11-12-19-17(14-18)9-6-10-20(19)21/h3-10,18H,2,11-15H2,1H3/t18-/m1/s1

> <PUBCHEM_IUPAC_INCHIKEY>
IZRKKTGXKLIJDE-GOSISDBHSA-N

> <PUBCHEM_XLOGP3_AA>
5.2

> <PUBCHEM_EXACT_MASS>
297.189277932

> <PUBCHEM_MOLECULAR_FORMULA>
C20H24FN

> <PUBCHEM_MOLECULAR_WEIGHT>
297.4

> <PUBCHEM_OPENEYE_CAN_SMILES>
CCCN(CC1=CC=CC=C1)C2CCC3=C(C2)C=CC=C3F

> <PUBCHEM_OPENEYE_ISO_SMILES>
CCCN(CC1=CC=CC=C1)[C@@H]2CCC3=C(C2)C=CC=C3F

> <PUBCHEM_CACTVS_TPSA>
3.2

> <PUBCHEM_MONOISOTOPIC_WEIGHT>
297.189277932

> <PUBCHEM_TOTAL_CHARGE>
0

> <PUBCHEM_HEAVY_ATOM_COUNT>
22

> <PUBCHEM_ATOM_DEF_STEREO_COUNT>
1

> <PUBCHEM_ATOM_UDEF_STEREO_COUNT>
0

> <PUBCHEM_BOND_DEF_STEREO_COUNT>
0

> <PUBCHEM_BOND_UDEF_STEREO_COUNT>
0

> <PUBCHEM_ISOTOPIC_ATOM_COUNT>
0

> <PUBCHEM_COMPONENT_COUNT>
1

> <PUBCHEM_CACTVS_TAUTO_COUNT>
-1

> <PUBCHEM_COORDINATE_TYPE>
1
5
255

> <PUBCHEM_BONDANNOTATIONS>
12  15  8
13  16  8
14  18  8
14  19  8
15  16  8
18  20  8
19  21  8
3  2  5
20  22  8
21  22  8
7  12  8
7  8  8
8  13  8

$$$$
