18797049
  -OEChem-09292322222D

 64 67  0     1  0  0  0  0  0999 V2000
    3.7320    1.0114    0.0000 S   0  0  0  0  0  0  0  0  0  0  0  0
    2.0000    2.0114    0.0000 F   0  0  0  0  0  0  0  0  0  0  0  0
    2.3660    0.6454    0.0000 F   0  0  0  0  0  0  0  0  0  0  0  0
    3.3660    2.3774    0.0000 F   0  0  0  0  0  0  0  0  0  0  0  0
    4.5981    0.5114    0.0000 O   0  0  0  0  0  0  0  0  0  0  0  0
   14.1961    1.9706    0.0000 O   0  0  0  0  0  0  0  0  0  0  0  0
    3.2320    0.1454    0.0000 O   0  0  0  0  0  0  0  0  0  0  0  0
    4.2320    1.8774    0.0000 O   0  0  0  0  0  0  0  0  0  0  0  0
    8.9962    0.9906    0.0000 N   0  0  3  0  0  0  0  0  0  0  0  0
   13.3243    0.4739    0.0000 N   0  0  0  0  0  0  0  0  0  0  0  0
    8.9962    2.0322    0.0000 C   0  0  0  0  0  0  0  0  0  0  0  0
    8.0901    0.4768    0.0000 C   0  0  0  0  0  0  0  0  0  0  0  0
    8.0901    2.5461    0.0000 C   0  0  0  0  0  0  0  0  0  0  0  0
    9.8602    0.4873    0.0000 C   0  0  0  0  0  0  0  0  0  0  0  0
    7.1962    1.0114    0.0000 C   0  0  0  0  0  0  0  0  0  0  0  0
    7.1962    2.0114    0.0000 C   0  0  0  0  0  0  0  0  0  0  0  0
   10.7282    0.9839    0.0000 C   0  0  0  0  0  0  0  0  0  0  0  0
   11.5923    0.4806    0.0000 C   0  0  0  0  0  0  0  0  0  0  0  0
    6.3301    0.5114    0.0000 C   0  0  0  0  0  0  0  0  0  0  0  0
    6.3301    2.5114    0.0000 C   0  0  0  0  0  0  0  0  0  0  0  0
    5.4641    1.0114    0.0000 C   0  0  0  0  0  0  0  0  0  0  0  0
   12.4602    0.9773    0.0000 C   0  0  0  0  0  0  0  0  0  0  0  0
    5.4641    2.0114    0.0000 C   0  0  0  0  0  0  0  0  0  0  0  0
   14.1923    0.9706    0.0000 C   0  0  0  0  0  0  0  0  0  0  0  0
   15.0564    0.4672    0.0000 C   0  0  0  0  0  0  0  0  0  0  0  0
    2.8660    1.5114    0.0000 C   0  0  0  0  0  0  0  0  0  0  0  0
   15.9243    0.9639    0.0000 C   0  0  0  0  0  0  0  0  0  0  0  0
   15.0525   -0.5327    0.0000 C   0  0  0  0  0  0  0  0  0  0  0  0
   16.7845   -0.5394    0.0000 C   0  0  0  0  0  0  0  0  0  0  0  0
   16.7884    0.4606    0.0000 C   0  0  0  0  0  0  0  0  0  0  0  0
   15.9166   -1.0361    0.0000 C   0  0  0  0  0  0  0  0  0  0  0  0
   17.6486   -1.0428    0.0000 C   0  0  0  0  0  0  0  0  0  0  0  0
   17.6448   -2.0428    0.0000 C   0  0  0  0  0  0  0  0  0  0  0  0
   18.5166   -0.5461    0.0000 C   0  0  0  0  0  0  0  0  0  0  0  0
   18.5089   -2.5461    0.0000 C   0  0  0  0  0  0  0  0  0  0  0  0
   19.3807   -1.0494    0.0000 C   0  0  0  0  0  0  0  0  0  0  0  0
   19.3768   -2.0494    0.0000 C   0  0  0  0  0  0  0  0  0  0  0  0
    9.6070    1.9262    0.0000 H   0  0  0  0  0  0  0  0  0  0  0  0
    9.2052    2.6159    0.0000 H   0  0  0  0  0  0  0  0  0  0  0  0
    7.6855    0.0070    0.0000 H   0  0  0  0  0  0  0  0  0  0  0  0
    8.4837   -0.0023    0.0000 H   0  0  0  0  0  0  0  0  0  0  0  0
    8.4837    3.0251    0.0000 H   0  0  0  0  0  0  0  0  0  0  0  0
    7.6855    3.0159    0.0000 H   0  0  0  0  0  0  0  0  0  0  0  0
    9.4599    0.0139    0.0000 H   0  0  0  0  0  0  0  0  0  0  0  0
   10.2569    0.0108    0.0000 H   0  0  0  0  0  0  0  0  0  0  0  0
   11.1286    1.4573    0.0000 H   0  0  0  0  0  0  0  0  0  0  0  0
   10.3315    1.4604    0.0000 H   0  0  0  0  0  0  0  0  0  0  0  0
   11.1919    0.0072    0.0000 H   0  0  0  0  0  0  0  0  0  0  0  0
   11.9890    0.0041    0.0000 H   0  0  0  0  0  0  0  0  0  0  0  0
    6.3301   -0.1086    0.0000 H   0  0  0  0  0  0  0  0  0  0  0  0
    6.3301    3.1314    0.0000 H   0  0  0  0  0  0  0  0  0  0  0  0
   12.8606    1.4507    0.0000 H   0  0  0  0  0  0  0  0  0  0  0  0
   12.0635    1.4537    0.0000 H   0  0  0  0  0  0  0  0  0  0  0  0
    4.9272    2.3214    0.0000 H   0  0  0  0  0  0  0  0  0  0  0  0
   13.3219   -0.1461    0.0000 H   0  0  0  0  0  0  0  0  0  0  0  0
   15.9267    1.5839    0.0000 H   0  0  0  0  0  0  0  0  0  0  0  0
   14.5144   -0.8407    0.0000 H   0  0  0  0  0  0  0  0  0  0  0  0
   17.3265    0.7685    0.0000 H   0  0  0  0  0  0  0  0  0  0  0  0
   15.9142   -1.6561    0.0000 H   0  0  0  0  0  0  0  0  0  0  0  0
   17.1067   -2.3507    0.0000 H   0  0  0  0  0  0  0  0  0  0  0  0
   18.5190    0.0739    0.0000 H   0  0  0  0  0  0  0  0  0  0  0  0
   18.5065   -3.1661    0.0000 H   0  0  0  0  0  0  0  0  0  0  0  0
   19.9188   -0.7415    0.0000 H   0  0  0  0  0  0  0  0  0  0  0  0
   19.9126   -2.3615    0.0000 H   0  0  0  0  0  0  0  0  0  0  0  0
  1  5  1  0  0  0  0
  1  7  2  0  0  0  0
  1  8  2  0  0  0  0
  1 26  1  0  0  0  0
  2 26  1  0  0  0  0
  3 26  1  0  0  0  0
  4 26  1  0  0  0  0
  5 21  1  0  0  0  0
  6 24  2  0  0  0  0
  9 11  1  0  0  0  0
  9 12  1  0  0  0  0
  9 14  1  0  0  0  0
 10 22  1  0  0  0  0
 10 24  1  0  0  0  0
 10 55  1  0  0  0  0
 11 13  1  0  0  0  0
 11 38  1  0  0  0  0
 11 39  1  0  0  0  0
 12 15  1  0  0  0  0
 12 40  1  0  0  0  0
 12 41  1  0  0  0  0
 13 16  1  0  0  0  0
 13 42  1  0  0  0  0
 13 43  1  0  0  0  0
 14 17  1  0  0  0  0
 14 44  1  0  0  0  0
 14 45  1  0  0  0  0
 15 16  2  0  0  0  0
 15 19  1  0  0  0  0
 16 20  1  0  0  0  0
 17 18  1  0  0  0  0
 17 46  1  0  0  0  0
 17 47  1  0  0  0  0
 18 22  1  0  0  0  0
 18 48  1  0  0  0  0
 18 49  1  0  0  0  0
 19 21  2  0  0  0  0
 19 50  1  0  0  0  0
 20 23  2  0  0  0  0
 20 51  1  0  0  0  0
 21 23  1  0  0  0  0
 22 52  1  0  0  0  0
 22 53  1  0  0  0  0
 23 54  1  0  0  0  0
 24 25  1  0  0  0  0
 25 27  2  0  0  0  0
 25 28  1  0  0  0  0
 27 30  1  0  0  0  0
 27 56  1  0  0  0  0
 28 31  2  0  0  0  0
 28 57  1  0  0  0  0
 29 30  2  0  0  0  0
 29 31  1  0  0  0  0
 29 32  1  0  0  0  0
 30 58  1  0  0  0  0
 31 59  1  0  0  0  0
 32 33  2  0  0  0  0
 32 34  1  0  0  0  0
 33 35  1  0  0  0  0
 33 60  1  0  0  0  0
 34 36  2  0  0  0  0
 34 61  1  0  0  0  0
 35 37  2  0  0  0  0
 35 62  1  0  0  0  0
 36 37  1  0  0  0  0
 36 63  1  0  0  0  0
 37 64  1  0  0  0  0
M  END
> <PUBCHEM_COMPOUND_CID>
18797049

> <PUBCHEM_COMPOUND_CANONICALIZED>
1

> <PUBCHEM_CACTVS_COMPLEXITY>
834

> <PUBCHEM_CACTVS_HBOND_ACCEPTOR>
8

> <PUBCHEM_CACTVS_HBOND_DONOR>
1

> <PUBCHEM_CACTVS_ROTATABLE_BOND>
9

> <PUBCHEM_CACTVS_SUBSKEYS>
AAADceB7OYBAAAAAAAAAAAAAAAAAAAAAAAA8YMEAAAAAAACxUAAAHwQQAAAADATBmBQwBoPAAAKIAiFSEHCCAAAkIAAIiIEODMgIJjKAlROEMQhk1hGIiYe4yNCO4AABAAAQAADAAAIAACAAAAAAAAAAAA==

> <PUBCHEM_IUPAC_OPENEYE_NAME>
[2-[4-[(4-phenylbenzoyl)amino]butyl]-3,4-dihydro-1H-isoquinolin-7-yl] trifluoromethanesulfonate

> <PUBCHEM_IUPAC_CAS_NAME>
trifluoromethanesulfonic acid [2-[4-[[oxo-(4-phenylphenyl)methyl]amino]butyl]-3,4-dihydro-1H-isoquinolin-7-yl] ester

> <PUBCHEM_IUPAC_NAME_MARKUP>
[2-[4-[(4-phenylbenzoyl)amino]butyl]-3,4-dihydro-1<I>H</I>-isoquinolin-7-yl] trifluoromethanesulfonate

> <PUBCHEM_IUPAC_NAME>
[2-[4-[(4-phenylbenzoyl)amino]butyl]-3,4-dihydro-1H-isoquinolin-7-yl] trifluoromethanesulfonate

> <PUBCHEM_IUPAC_SYSTEMATIC_NAME>
[2-[4-[(4-phenylphenyl)carbonylamino]butyl]-3,4-dihydro-1H-isoquinolin-7-yl] tris(fluoranyl)methanesulfonate

> <PUBCHEM_IUPAC_TRADITIONAL_NAME>
trifluoromethanesulfonic acid [2-[4-[(4-phenylbenzoyl)amino]butyl]-3,4-dihydro-1H-isoquinolin-7-yl] ester

> <PUBCHEM_IUPAC_INCHI>
InChI=1S/C27H27F3N2O4S/c28-27(29,30)37(34,35)36-25-13-12-22-14-17-32(19-24(22)18-25)16-5-4-15-31-26(33)23-10-8-21(9-11-23)20-6-2-1-3-7-20/h1-3,6-13,18H,4-5,14-17,19H2,(H,31,33)

> <PUBCHEM_IUPAC_INCHIKEY>
MUBFHRQVIYYBCR-UHFFFAOYSA-N

> <PUBCHEM_XLOGP3_AA>
5.9

> <PUBCHEM_EXACT_MASS>
532.16436301

> <PUBCHEM_MOLECULAR_FORMULA>
C27H27F3N2O4S

> <PUBCHEM_MOLECULAR_WEIGHT>
532.6

> <PUBCHEM_OPENEYE_CAN_SMILES>
C1CN(CC2=C1C=CC(=C2)OS(=O)(=O)C(F)(F)F)CCCCNC(=O)C3=CC=C(C=C3)C4=CC=CC=C4

> <PUBCHEM_OPENEYE_ISO_SMILES>
C1CN(CC2=C1C=CC(=C2)OS(=O)(=O)C(F)(F)F)CCCCNC(=O)C3=CC=C(C=C3)C4=CC=CC=C4

> <PUBCHEM_CACTVS_TPSA>
84.1

> <PUBCHEM_MONOISOTOPIC_WEIGHT>
532.16436301

> <PUBCHEM_TOTAL_CHARGE>
0

> <PUBCHEM_HEAVY_ATOM_COUNT>
37

> <PUBCHEM_ATOM_DEF_STEREO_COUNT>
0

> <PUBCHEM_ATOM_UDEF_STEREO_COUNT>
0

> <PUBCHEM_BOND_DEF_STEREO_COUNT>
0

> <PUBCHEM_BOND_UDEF_STEREO_COUNT>
0

> <PUBCHEM_ISOTOPIC_ATOM_COUNT>
0

> <PUBCHEM_COMPONENT_COUNT>
1

> <PUBCHEM_CACTVS_TAUTO_COUNT>
-1

> <PUBCHEM_COORDINATE_TYPE>
1
5
255

> <PUBCHEM_BONDANNOTATIONS>
15  16  8
15  19  8
16  20  8
19  21  8
20  23  8
21  23  8
25  27  8
25  28  8
27  30  8
28  31  8
29  30  8
29  31  8
32  33  8
32  34  8
33  35  8
34  36  8
35  37  8
36  37  8

$$$$
