71452041
  -OEChem-09292322022D

 50 52  0     1  0  0  0  0  0999 V2000
    3.7320   -3.3971    0.0000 O   0  0  0  0  0  0  0  0  0  0  0  0
    6.3301    1.1029    0.0000 N   0  0  3  0  0  0  0  0  0  0  0  0
    7.1962    2.6029    0.0000 C   0  0  0  0  0  0  0  0  0  0  0  0
    7.9033    3.3100    0.0000 C   0  0  0  0  0  0  0  0  0  0  0  0
    6.4890    3.3100    0.0000 C   0  0  0  0  0  0  0  0  0  0  0  0
    7.1962    4.0171    0.0000 C   0  0  0  0  0  0  0  0  0  0  0  0
    7.1962    1.6029    0.0000 C   0  0  0  0  0  0  0  0  0  0  0  0
    6.3301    0.1029    0.0000 C   0  0  0  0  0  0  0  0  0  0  0  0
    5.4641    1.6029    0.0000 C   0  0  0  0  0  0  0  0  0  0  0  0
    5.4641   -0.3971    0.0000 C   0  0  0  0  0  0  0  0  0  0  0  0
    4.5981    1.1029    0.0000 C   0  0  0  0  0  0  0  0  0  0  0  0
    5.4641   -1.3971    0.0000 C   0  0  0  0  0  0  0  0  0  0  0  0
    3.7320    1.6029    0.0000 C   0  0  0  0  0  0  0  0  0  0  0  0
    4.5981   -1.8971    0.0000 C   0  0  0  0  0  0  0  0  0  0  0  0
    6.3301   -1.8971    0.0000 C   0  0  0  0  0  0  0  0  0  0  0  0
    3.7320    2.6029    0.0000 C   0  0  0  0  0  0  0  0  0  0  0  0
    2.8660    1.1029    0.0000 C   0  0  0  0  0  0  0  0  0  0  0  0
    4.5981   -2.8971    0.0000 C   0  0  0  0  0  0  0  0  0  0  0  0
    6.3301   -2.8971    0.0000 C   0  0  0  0  0  0  0  0  0  0  0  0
    2.8660    3.1029    0.0000 C   0  0  0  0  0  0  0  0  0  0  0  0
    2.0000    1.6029    0.0000 C   0  0  0  0  0  0  0  0  0  0  0  0
    5.4641   -3.3971    0.0000 C   0  0  0  0  0  0  0  0  0  0  0  0
    2.0000    2.6029    0.0000 C   0  0  0  0  0  0  0  0  0  0  0  0
    6.6234    2.3656    0.0000 H   0  0  0  0  0  0  0  0  0  0  0  0
    8.3417    2.8716    0.0000 H   0  0  0  0  0  0  0  0  0  0  0  0
    8.3417    3.7484    0.0000 H   0  0  0  0  0  0  0  0  0  0  0  0
    6.0506    3.7484    0.0000 H   0  0  0  0  0  0  0  0  0  0  0  0
    6.0506    2.8716    0.0000 H   0  0  0  0  0  0  0  0  0  0  0  0
    7.6346    4.4555    0.0000 H   0  0  0  0  0  0  0  0  0  0  0  0
    6.7578    4.4555    0.0000 H   0  0  0  0  0  0  0  0  0  0  0  0
    7.4082    1.0203    0.0000 H   0  0  0  0  0  0  0  0  0  0  0  0
    7.8067    1.7106    0.0000 H   0  0  0  0  0  0  0  0  0  0  0  0
    6.5422   -0.4797    0.0000 H   0  0  0  0  0  0  0  0  0  0  0  0
    6.9407    0.2106    0.0000 H   0  0  0  0  0  0  0  0  0  0  0  0
    5.8626    2.0778    0.0000 H   0  0  0  0  0  0  0  0  0  0  0  0
    5.0656    2.0778    0.0000 H   0  0  0  0  0  0  0  0  0  0  0  0
    5.2520    0.1855    0.0000 H   0  0  0  0  0  0  0  0  0  0  0  0
    4.8535   -0.5048    0.0000 H   0  0  0  0  0  0  0  0  0  0  0  0
    4.1996    0.6279    0.0000 H   0  0  0  0  0  0  0  0  0  0  0  0
    4.9966    0.6279    0.0000 H   0  0  0  0  0  0  0  0  0  0  0  0
    4.0611   -1.5871    0.0000 H   0  0  0  0  0  0  0  0  0  0  0  0
    6.8671   -1.5871    0.0000 H   0  0  0  0  0  0  0  0  0  0  0  0
    4.2690    2.9129    0.0000 H   0  0  0  0  0  0  0  0  0  0  0  0
    2.8660    0.4829    0.0000 H   0  0  0  0  0  0  0  0  0  0  0  0
    6.8671   -3.2071    0.0000 H   0  0  0  0  0  0  0  0  0  0  0  0
    2.8660    3.7229    0.0000 H   0  0  0  0  0  0  0  0  0  0  0  0
    1.4631    1.2929    0.0000 H   0  0  0  0  0  0  0  0  0  0  0  0
    5.4641   -4.0171    0.0000 H   0  0  0  0  0  0  0  0  0  0  0  0
    1.4631    2.9129    0.0000 H   0  0  0  0  0  0  0  0  0  0  0  0
    3.7320   -4.0171    0.0000 H   0  0  0  0  0  0  0  0  0  0  0  0
  1 18  1  0  0  0  0
  1 50  1  0  0  0  0
  2  7  1  0  0  0  0
  2  8  1  0  0  0  0
  2  9  1  0  0  0  0
  3  4  1  0  0  0  0
  3  5  1  0  0  0  0
  3  7  1  0  0  0  0
  3 24  1  0  0  0  0
  4  6  1  0  0  0  0
  4 25  1  0  0  0  0
  4 26  1  0  0  0  0
  5  6  1  0  0  0  0
  5 27  1  0  0  0  0
  5 28  1  0  0  0  0
  6 29  1  0  0  0  0
  6 30  1  0  0  0  0
  7 31  1  0  0  0  0
  7 32  1  0  0  0  0
  8 10  1  0  0  0  0
  8 33  1  0  0  0  0
  8 34  1  0  0  0  0
  9 11  1  0  0  0  0
  9 35  1  0  0  0  0
  9 36  1  0  0  0  0
 10 12  1  0  0  0  0
 10 37  1  0  0  0  0
 10 38  1  0  0  0  0
 11 13  1  0  0  0  0
 11 39  1  0  0  0  0
 11 40  1  0  0  0  0
 12 14  2  0  0  0  0
 12 15  1  0  0  0  0
 13 16  2  0  0  0  0
 13 17  1  0  0  0  0
 14 18  1  0  0  0  0
 14 41  1  0  0  0  0
 15 19  2  0  0  0  0
 15 42  1  0  0  0  0
 16 20  1  0  0  0  0
 16 43  1  0  0  0  0
 17 21  2  0  0  0  0
 17 44  1  0  0  0  0
 18 22  2  0  0  0  0
 19 22  1  0  0  0  0
 19 45  1  0  0  0  0
 20 23  2  0  0  0  0
 20 46  1  0  0  0  0
 21 23  1  0  0  0  0
 21 47  1  0  0  0  0
 22 48  1  0  0  0  0
 23 49  1  0  0  0  0
M  END
> <PUBCHEM_COMPOUND_CID>
71452041

> <PUBCHEM_COMPOUND_CANONICALIZED>
1

> <PUBCHEM_CACTVS_COMPLEXITY>
322

> <PUBCHEM_CACTVS_HBOND_ACCEPTOR>
2

> <PUBCHEM_CACTVS_HBOND_DONOR>
1

> <PUBCHEM_CACTVS_ROTATABLE_BOND>
8

> <PUBCHEM_CACTVS_SUBSKEYS>
AAADceB6IAAAAAAAAAAAAAAAAABgAAAAAAAwYAAAAAAAAAABQAAAHgAACAAADQTBmAQwBoMAAgCAAiBCAAACAAAgIAAIiAAOCIgIJiKCkROEcAAkwBGImAeQ0LIOAAABAAAAAAAAAAIAAAAAAAAAAAAAAA==

> <PUBCHEM_IUPAC_OPENEYE_NAME>
3-[2-[cyclobutylmethyl(2-phenylethyl)amino]ethyl]phenol

> <PUBCHEM_IUPAC_CAS_NAME>
3-[2-[cyclobutylmethyl(2-phenylethyl)amino]ethyl]phenol

> <PUBCHEM_IUPAC_NAME_MARKUP>
3-[2-[cyclobutylmethyl(2-phenylethyl)amino]ethyl]phenol

> <PUBCHEM_IUPAC_NAME>
3-[2-[cyclobutylmethyl(2-phenylethyl)amino]ethyl]phenol

> <PUBCHEM_IUPAC_SYSTEMATIC_NAME>
3-[2-[cyclobutylmethyl(2-phenylethyl)amino]ethyl]phenol

> <PUBCHEM_IUPAC_TRADITIONAL_NAME>
3-[2-[cyclobutylmethyl(phenethyl)amino]ethyl]phenol

> <PUBCHEM_IUPAC_INCHI>
InChI=1S/C21H27NO/c23-21-11-5-8-19(16-21)13-15-22(17-20-9-4-10-20)14-12-18-6-2-1-3-7-18/h1-3,5-8,11,16,20,23H,4,9-10,12-15,17H2

> <PUBCHEM_IUPAC_INCHIKEY>
YNVKFHIWFDRVNY-UHFFFAOYSA-N

> <PUBCHEM_XLOGP3_AA>
5.1

> <PUBCHEM_EXACT_MASS>
309.209264485

> <PUBCHEM_MOLECULAR_FORMULA>
C21H27NO

> <PUBCHEM_MOLECULAR_WEIGHT>
309.4

> <PUBCHEM_OPENEYE_CAN_SMILES>
C1CC(C1)CN(CCC2=CC=CC=C2)CCC3=CC(=CC=C3)O

> <PUBCHEM_OPENEYE_ISO_SMILES>
C1CC(C1)CN(CCC2=CC=CC=C2)CCC3=CC(=CC=C3)O

> <PUBCHEM_CACTVS_TPSA>
23.5

> <PUBCHEM_MONOISOTOPIC_WEIGHT>
309.209264485

> <PUBCHEM_TOTAL_CHARGE>
0

> <PUBCHEM_HEAVY_ATOM_COUNT>
23

> <PUBCHEM_ATOM_DEF_STEREO_COUNT>
0

> <PUBCHEM_ATOM_UDEF_STEREO_COUNT>
0

> <PUBCHEM_BOND_DEF_STEREO_COUNT>
0

> <PUBCHEM_BOND_UDEF_STEREO_COUNT>
0

> <PUBCHEM_ISOTOPIC_ATOM_COUNT>
0

> <PUBCHEM_COMPONENT_COUNT>
1

> <PUBCHEM_CACTVS_TAUTO_COUNT>
-1

> <PUBCHEM_COORDINATE_TYPE>
1
5
255

> <PUBCHEM_BONDANNOTATIONS>
12  14  8
12  15  8
13  16  8
13  17  8
14  18  8
15  19  8
16  20  8
17  21  8
18  22  8
19  22  8
20  23  8
21  23  8

$$$$
