164626407
  -OEChem-09292322432D

 53 56  0     1  0  0  0  0  0999 V2000
    2.0000   -5.5768    0.0000 Cl  0  0  0  0  0  0  0  0  0  0  0  0
    6.2431    4.0422    0.0000 O   0  0  0  0  0  0  0  0  0  0  0  0
    8.8691    2.5075    0.0000 O   0  0  0  0  0  0  0  0  0  0  0  0
    2.8255   -2.0670    0.0000 O   0  0  0  0  0  0  0  0  0  0  0  0
    6.2431    1.9728    0.0000 N   0  0  3  0  0  0  0  0  0  0  0  0
    4.5574   -2.0469    0.0000 N   0  0  0  0  0  0  0  0  0  0  0  0
    7.1370    2.5075    0.0000 C   0  0  1  0  0  0  0  0  0  0  0  0
    7.1370    3.5075    0.0000 C   0  0  1  0  0  0  0  0  0  0  0  0
    5.3370    2.4867    0.0000 C   0  0  0  0  0  0  0  0  0  0  0  0
    8.0031    2.0075    0.0000 C   0  0  0  0  0  0  0  0  0  0  0  0
    6.2547    0.9729    0.0000 C   0  0  0  0  0  0  0  0  0  0  0  0
    8.0031    4.0075    0.0000 C   0  0  0  0  0  0  0  0  0  0  0  0
    5.3370    3.5283    0.0000 C   0  0  0  0  0  0  0  0  0  0  0  0
    5.3945    0.4629    0.0000 C   0  0  0  0  0  0  0  0  0  0  0  0
    8.8691    3.5075    0.0000 C   0  0  0  0  0  0  0  0  0  0  0  0
    5.4060   -0.5370    0.0000 C   0  0  0  0  0  0  0  0  0  0  0  0
    7.9870    5.0490    0.0000 C   0  0  0  0  0  0  0  0  0  0  0  0
    9.7791    4.0143    0.0000 C   0  0  0  0  0  0  0  0  0  0  0  0
    4.5459   -1.0470    0.0000 C   0  0  0  0  0  0  0  0  0  0  0  0
    8.8851    5.5768    0.0000 C   0  0  0  0  0  0  0  0  0  0  0  0
    9.7871    5.0559    0.0000 C   0  0  0  0  0  0  0  0  0  0  0  0
    3.6972   -2.5569    0.0000 C   0  0  0  0  0  0  0  0  0  0  0  0
    3.7088   -3.5568    0.0000 C   0  0  0  0  0  0  0  0  0  0  0  0
    2.8486   -4.0668    0.0000 C   0  0  0  0  0  0  0  0  0  0  0  0
    4.5806   -4.0468    0.0000 C   0  0  0  0  0  0  0  0  0  0  0  0
    2.8602   -5.0668    0.0000 C   0  0  0  0  0  0  0  0  0  0  0  0
    4.5921   -5.0467    0.0000 C   0  0  0  0  0  0  0  0  0  0  0  0
    3.7319   -5.5567    0.0000 C   0  0  0  0  0  0  0  0  0  0  0  0
    7.1436    1.6575    0.0000 H   0  0  0  0  0  0  0  0  0  0  0  0
    7.1436    4.3575    0.0000 H   0  0  0  0  0  0  0  0  0  0  0  0
    4.7262    2.5928    0.0000 H   0  0  0  0  0  0  0  0  0  0  0  0
    5.1280    1.9030    0.0000 H   0  0  0  0  0  0  0  0  0  0  0  0
    7.6046    1.5325    0.0000 H   0  0  0  0  0  0  0  0  0  0  0  0
    8.4016    1.5325    0.0000 H   0  0  0  0  0  0  0  0  0  0  0  0
    6.4734    0.3928    0.0000 H   0  0  0  0  0  0  0  0  0  0  0  0
    6.8640    1.0876    0.0000 H   0  0  0  0  0  0  0  0  0  0  0  0
    5.1280    4.1120    0.0000 H   0  0  0  0  0  0  0  0  0  0  0  0
    4.7262    3.4222    0.0000 H   0  0  0  0  0  0  0  0  0  0  0  0
    5.1757    1.0430    0.0000 H   0  0  0  0  0  0  0  0  0  0  0  0
    4.7852    0.3482    0.0000 H   0  0  0  0  0  0  0  0  0  0  0  0
    5.6248   -1.1171    0.0000 H   0  0  0  0  0  0  0  0  0  0  0  0
    6.0154   -0.4223    0.0000 H   0  0  0  0  0  0  0  0  0  0  0  0
    7.4465    5.3528    0.0000 H   0  0  0  0  0  0  0  0  0  0  0  0
   10.3124    3.6981    0.0000 H   0  0  0  0  0  0  0  0  0  0  0  0
    4.3271   -0.4669    0.0000 H   0  0  0  0  0  0  0  0  0  0  0  0
    3.9366   -1.1617    0.0000 H   0  0  0  0  0  0  0  0  0  0  0  0
    8.8827    6.1967    0.0000 H   0  0  0  0  0  0  0  0  0  0  0  0
   10.3253    5.3639    0.0000 H   0  0  0  0  0  0  0  0  0  0  0  0
    5.0979   -2.3507    0.0000 H   0  0  0  0  0  0  0  0  0  0  0  0
    2.3081   -3.7631    0.0000 H   0  0  0  0  0  0  0  0  0  0  0  0
    5.1139   -3.7306    0.0000 H   0  0  0  0  0  0  0  0  0  0  0  0
    5.1326   -5.3505    0.0000 H   0  0  0  0  0  0  0  0  0  0  0  0
    3.7391   -6.1767    0.0000 H   0  0  0  0  0  0  0  0  0  0  0  0
  1 26  1  0  0  0  0
  2  8  1  0  0  0  0
  2 13  1  0  0  0  0
  3 10  1  0  0  0  0
  3 15  1  0  0  0  0
  4 22  2  0  0  0  0
  5  7  1  0  0  0  0
  5  9  1  0  0  0  0
  5 11  1  0  0  0  0
  6 19  1  0  0  0  0
  6 22  1  0  0  0  0
  6 49  1  0  0  0  0
  7  8  1  0  0  0  0
  7 10  1  0  0  0  0
  7 29  1  6  0  0  0
  8 12  1  0  0  0  0
  8 30  1  1  0  0  0
  9 13  1  0  0  0  0
  9 31  1  0  0  0  0
  9 32  1  0  0  0  0
 10 33  1  0  0  0  0
 10 34  1  0  0  0  0
 11 14  1  0  0  0  0
 11 35  1  0  0  0  0
 11 36  1  0  0  0  0
 12 15  1  0  0  0  0
 12 17  2  0  0  0  0
 13 37  1  0  0  0  0
 13 38  1  0  0  0  0
 14 16  1  0  0  0  0
 14 39  1  0  0  0  0
 14 40  1  0  0  0  0
 15 18  2  0  0  0  0
 16 19  1  0  0  0  0
 16 41  1  0  0  0  0
 16 42  1  0  0  0  0
 17 20  1  0  0  0  0
 17 43  1  0  0  0  0
 18 21  1  0  0  0  0
 18 44  1  0  0  0  0
 19 45  1  0  0  0  0
 19 46  1  0  0  0  0
 20 21  2  0  0  0  0
 20 47  1  0  0  0  0
 21 48  1  0  0  0  0
 22 23  1  0  0  0  0
 23 24  2  0  0  0  0
 23 25  1  0  0  0  0
 24 26  1  0  0  0  0
 24 50  1  0  0  0  0
 25 27  2  0  0  0  0
 25 51  1  0  0  0  0
 26 28  2  0  0  0  0
 27 28  1  0  0  0  0
 27 52  1  0  0  0  0
 28 53  1  0  0  0  0
M  END
> <PUBCHEM_COMPOUND_CID>
164626407

> <PUBCHEM_COMPOUND_CANONICALIZED>
1

> <PUBCHEM_CACTVS_COMPLEXITY>
520

> <PUBCHEM_CACTVS_HBOND_ACCEPTOR>
4

> <PUBCHEM_CACTVS_HBOND_DONOR>
1

> <PUBCHEM_CACTVS_ROTATABLE_BOND>
6

> <PUBCHEM_CACTVS_SUBSKEYS>
AAADceB7MAAEAAAAAAAAAAAAAAAAAAAAAAA8aIEAAAAAAACxQAAAHgIQAAAADD7hmCYwBoPABACIAiFSEACCCAAkJQAIiIEODsgOJzKFtxuHOSjl1hGYqYe4yKCOAAAAIAAIAAAAAABAABAAAAAAAAAAAA==

> <PUBCHEM_IUPAC_OPENEYE_NAME>
N-[4-[(4aR,10bR)-3,4a,5,10b-tetrahydro-2H-chromeno[4,3-b][1,4]oxazin-4-yl]butyl]-3-chloro-benzamide

> <PUBCHEM_IUPAC_CAS_NAME>
N-[4-[(4aR,10bR)-3,4a,5,10b-tetrahydro-2H-[1]benzopyrano[4,3-b][1,4]oxazin-4-yl]butyl]-3-chlorobenzamide

> <PUBCHEM_IUPAC_NAME_MARKUP>
<I>N</I>-[4-[(4<I>a</I><I>R</I>,10<I>b</I><I>R</I>)-3,4<I>a</I>,5,10<I>b</I>-tetrahydro-2<I>H</I>-chromeno[4,3-b][1,4]oxazin-4-yl]butyl]-3-chlorobenzamide

> <PUBCHEM_IUPAC_NAME>
N-[4-[(4aR,10bR)-3,4a,5,10b-tetrahydro-2H-chromeno[4,3-b][1,4]oxazin-4-yl]butyl]-3-chlorobenzamide

> <PUBCHEM_IUPAC_SYSTEMATIC_NAME>
N-[4-[(4aR,10bR)-3,4a,5,10b-tetrahydro-2H-chromeno[4,3-b][1,4]oxazin-4-yl]butyl]-3-chloranyl-benzamide

> <PUBCHEM_IUPAC_TRADITIONAL_NAME>
N-[4-[(4aR,10bR)-3,4a,5,10b-tetrahydro-2H-chromeno[4,3-b][1,4]oxazin-4-yl]butyl]-3-chloro-benzamide

> <PUBCHEM_IUPAC_INCHI>
InChI=1S/C22H25ClN2O3/c23-17-7-5-6-16(14-17)22(26)24-10-3-4-11-25-12-13-27-21-18-8-1-2-9-20(18)28-15-19(21)25/h1-2,5-9,14,19,21H,3-4,10-13,15H2,(H,24,26)/t19-,21-/m1/s1

> <PUBCHEM_IUPAC_INCHIKEY>
QVCUVAFTSVIFFV-TZIWHRDSSA-N

> <PUBCHEM_XLOGP3>
3.7

> <PUBCHEM_EXACT_MASS>
400.1553704

> <PUBCHEM_MOLECULAR_FORMULA>
C22H25ClN2O3

> <PUBCHEM_MOLECULAR_WEIGHT>
400.9

> <PUBCHEM_OPENEYE_CAN_SMILES>
C1COC2C(N1CCCCNC(=O)C3=CC(=CC=C3)Cl)COC4=CC=CC=C24

> <PUBCHEM_OPENEYE_ISO_SMILES>
C1CO[C@H]2[C@H](N1CCCCNC(=O)C3=CC(=CC=C3)Cl)COC4=CC=CC=C24

> <PUBCHEM_CACTVS_TPSA>
50.8

> <PUBCHEM_MONOISOTOPIC_WEIGHT>
400.1553704

> <PUBCHEM_TOTAL_CHARGE>
0

> <PUBCHEM_HEAVY_ATOM_COUNT>
28

> <PUBCHEM_ATOM_DEF_STEREO_COUNT>
2

> <PUBCHEM_ATOM_UDEF_STEREO_COUNT>
0

> <PUBCHEM_BOND_DEF_STEREO_COUNT>
0

> <PUBCHEM_BOND_UDEF_STEREO_COUNT>
0

> <PUBCHEM_ISOTOPIC_ATOM_COUNT>
0

> <PUBCHEM_COMPONENT_COUNT>
1

> <PUBCHEM_CACTVS_TAUTO_COUNT>
-1

> <PUBCHEM_COORDINATE_TYPE>
1
5
255

> <PUBCHEM_BONDANNOTATIONS>
12  15  8
12  17  8
15  18  8
17  20  8
18  21  8
20  21  8
23  24  8
23  25  8
24  26  8
25  27  8
26  28  8
27  28  8
7  29  6
8  30  5

$$$$
