65340
  -OEChem-09292321592D

 24 23  0     0  0  0  0  0  0999 V2000
    2.2020    0.0000    0.0000 Cl  0  0  0  0  0  0  0  0  0  0  0  0
    2.2690    7.6200    0.0000 O   0  0  0  0  0  0  0  0  0  0  0  0
    0.5369    6.6200    0.0000 O   0  0  0  0  0  0  0  0  0  0  0  0
    4.8671    3.1200    0.0000 N   0  0  0  0  0  0  0  0  0  0  0  0
    4.0010    4.6200    0.0000 C   0  0  0  0  0  0  0  0  0  0  0  0
    3.1350    5.1200    0.0000 C   0  0  0  0  0  0  0  0  0  0  0  0
    4.0010    3.6200    0.0000 C   0  0  0  0  0  0  0  0  0  0  0  0
    3.1350    6.1200    0.0000 C   0  0  0  0  0  0  0  0  0  0  0  0
    2.2690    4.6200    0.0000 C   0  0  0  0  0  0  0  0  0  0  0  0
    2.2690    6.6200    0.0000 C   0  0  0  0  0  0  0  0  0  0  0  0
    1.4030    5.1200    0.0000 C   0  0  0  0  0  0  0  0  0  0  0  0
    1.4030    6.1200    0.0000 C   0  0  0  0  0  0  0  0  0  0  0  0
    4.6116    4.5123    0.0000 H   0  0  0  0  0  0  0  0  0  0  0  0
    4.2131    5.2026    0.0000 H   0  0  0  0  0  0  0  0  0  0  0  0
    3.3905    3.7277    0.0000 H   0  0  0  0  0  0  0  0  0  0  0  0
    3.7890    3.0374    0.0000 H   0  0  0  0  0  0  0  0  0  0  0  0
    3.6720    6.4300    0.0000 H   0  0  0  0  0  0  0  0  0  0  0  0
    2.2690    4.0000    0.0000 H   0  0  0  0  0  0  0  0  0  0  0  0
    0.8660    4.8100    0.0000 H   0  0  0  0  0  0  0  0  0  0  0  0
    4.8671    2.5000    0.0000 H   0  0  0  0  0  0  0  0  0  0  0  0
    5.4040    3.4300    0.0000 H   0  0  0  0  0  0  0  0  0  0  0  0
    2.8059    7.9300    0.0000 H   0  0  0  0  0  0  0  0  0  0  0  0
    0.0000    6.3100    0.0000 H   0  0  0  0  0  0  0  0  0  0  0  0
    3.2020    0.0000    0.0000 H   0  0  0  0  0  0  0  0  0  0  0  0
  1 24  1  0  0  0  0
  2 10  1  0  0  0  0
  2 22  1  0  0  0  0
  3 12  1  0  0  0  0
  3 23  1  0  0  0  0
  4  7  1  0  0  0  0
  4 20  1  0  0  0  0
  4 21  1  0  0  0  0
  5  6  1  0  0  0  0
  5  7  1  0  0  0  0
  5 13  1  0  0  0  0
  5 14  1  0  0  0  0
  6  8  2  0  0  0  0
  6  9  1  0  0  0  0
  7 15  1  0  0  0  0
  7 16  1  0  0  0  0
  8 10  1  0  0  0  0
  8 17  1  0  0  0  0
  9 11  2  0  0  0  0
  9 18  1  0  0  0  0
 10 12  2  0  0  0  0
 11 12  1  0  0  0  0
 11 19  1  0  0  0  0
M  END
> <PUBCHEM_COMPOUND_CID>
65340

> <PUBCHEM_COMPOUND_CANONICALIZED>
1

> <PUBCHEM_CACTVS_COMPLEXITY>
119

> <PUBCHEM_CACTVS_HBOND_ACCEPTOR>
3

> <PUBCHEM_CACTVS_HBOND_DONOR>
4

> <PUBCHEM_CACTVS_ROTATABLE_BOND>
2

> <PUBCHEM_CACTVS_SUBSKEYS>
AAADccByMAAEAAAAAAAAAAAAAAAAAAAAAAAwAAAAAAAAAAABAAAAHgAQCAAADATBmAQwBoBAAgCAAiBCAAACAAAgIAAIiIAGiIgJJiKCkROAcAEk0BEJmAeQ0LAOIAABAAAAQABAAAIAAACAAAAAAAAAAA==

> <PUBCHEM_IUPAC_OPENEYE_NAME>
4-(2-aminoethyl)benzene-1,2-diol;hydrochloride

> <PUBCHEM_IUPAC_CAS_NAME>
4-(2-aminoethyl)benzene-1,2-diol;hydrochloride

> <PUBCHEM_IUPAC_NAME_MARKUP>
4-(2-aminoethyl)benzene-1,2-diol;hydrochloride

> <PUBCHEM_IUPAC_NAME>
4-(2-aminoethyl)benzene-1,2-diol;hydrochloride

> <PUBCHEM_IUPAC_SYSTEMATIC_NAME>
4-(2-azanylethyl)benzene-1,2-diol;hydrochloride

> <PUBCHEM_IUPAC_TRADITIONAL_NAME>
4-(2-aminoethyl)pyrocatechol;hydrochloride

> <PUBCHEM_IUPAC_INCHI>
InChI=1S/C8H11NO2.ClH/c9-4-3-6-1-2-7(10)8(11)5-6;/h1-2,5,10-11H,3-4,9H2;1H

> <PUBCHEM_IUPAC_INCHIKEY>
CTENFNNZBMHDDG-UHFFFAOYSA-N

> <PUBCHEM_EXACT_MASS>
189.0556563

> <PUBCHEM_MOLECULAR_FORMULA>
C8H12ClNO2

> <PUBCHEM_MOLECULAR_WEIGHT>
189.64

> <PUBCHEM_OPENEYE_CAN_SMILES>
C1=CC(=C(C=C1CCN)O)O.Cl

> <PUBCHEM_OPENEYE_ISO_SMILES>
C1=CC(=C(C=C1CCN)O)O.Cl

> <PUBCHEM_CACTVS_TPSA>
66.5

> <PUBCHEM_MONOISOTOPIC_WEIGHT>
189.0556563

> <PUBCHEM_TOTAL_CHARGE>
0

> <PUBCHEM_HEAVY_ATOM_COUNT>
12

> <PUBCHEM_ATOM_DEF_STEREO_COUNT>
0

> <PUBCHEM_ATOM_UDEF_STEREO_COUNT>
0

> <PUBCHEM_BOND_DEF_STEREO_COUNT>
0

> <PUBCHEM_BOND_UDEF_STEREO_COUNT>
0

> <PUBCHEM_ISOTOPIC_ATOM_COUNT>
0

> <PUBCHEM_COMPONENT_COUNT>
2

> <PUBCHEM_CACTVS_TAUTO_COUNT>
18

> <PUBCHEM_COORDINATE_TYPE>
1
5
255

> <PUBCHEM_BONDANNOTATIONS>
10  12  8
11  12  8
6  8  8
6  9  8
8  10  8
9  11  8

$$$$
