71459761
  -OEChem-09292322332D

 76 81  0     0  0  0  0  0  0999 V2000
   12.3129   -3.1905    0.0000 Cl  0  0  0  0  0  0  0  0  0  0  0  0
    9.7142    0.8806    0.0000 O   0  0  0  0  0  0  0  0  0  0  0  0
    6.4162    1.9404    0.0000 N   0  0  0  0  0  0  0  0  0  0  0  0
    6.4358   -1.9825    0.0000 N   0  0  0  0  0  0  0  0  0  0  0  0
    8.3711    2.3626    0.0000 N   0  0  0  0  0  0  0  0  0  0  0  0
    8.3948   -2.3852    0.0000 N   0  0  0  0  0  0  0  0  0  0  0  0
    5.4387    1.7293    0.0000 C   0  0  0  0  0  0  0  0  0  0  0  0
    7.0877    1.1994    0.0000 C   0  0  0  0  0  0  0  0  0  0  0  0
    6.7221    2.8924    0.0000 C   0  0  0  0  0  0  0  0  0  0  0  0
    5.4562   -1.7812    0.0000 C   0  0  0  0  0  0  0  0  0  0  0  0
    7.0999   -1.2349    0.0000 C   0  0  0  0  0  0  0  0  0  0  0  0
    6.7512   -2.9315    0.0000 C   0  0  0  0  0  0  0  0  0  0  0  0
    5.1328    0.7772    0.0000 C   0  0  0  0  0  0  0  0  0  0  0  0
    8.0652    1.4105    0.0000 C   0  0  0  0  0  0  0  0  0  0  0  0
    7.6996    3.1035    0.0000 C   0  0  0  0  0  0  0  0  0  0  0  0
    5.1408   -0.8322    0.0000 C   0  0  0  0  0  0  0  0  0  0  0  0
    8.0794   -1.4362    0.0000 C   0  0  0  0  0  0  0  0  0  0  0  0
    7.7307   -3.1328    0.0000 C   0  0  0  0  0  0  0  0  0  0  0  0
    4.1881    0.4678    0.0000 C   0  0  0  0  0  0  0  0  0  0  0  0
    4.1931   -0.5322    0.0000 C   0  0  0  0  0  0  0  0  0  0  0  0
    5.7204   -0.0246    0.0000 C   0  0  0  0  0  0  0  0  0  0  0  0
    9.3486    2.5737    0.0000 C   0  0  0  0  0  0  0  0  0  0  0  0
    9.3743   -2.5865    0.0000 C   0  0  0  0  0  0  0  0  0  0  0  0
    3.4032    1.0874    0.0000 C   0  0  0  0  0  0  0  0  0  0  0  0
    3.4144   -1.1596    0.0000 C   0  0  0  0  0  0  0  0  0  0  0  0
   10.0201    1.8327    0.0000 C   0  0  0  0  0  0  0  0  0  0  0  0
    9.6545    3.5257    0.0000 C   0  0  0  0  0  0  0  0  0  0  0  0
   10.0384   -1.8389    0.0000 C   0  0  0  0  0  0  0  0  0  0  0  0
    9.6897   -3.5355    0.0000 C   0  0  0  0  0  0  0  0  0  0  0  0
    2.4294    0.8600    0.0000 C   0  0  0  0  0  0  0  0  0  0  0  0
    2.4384   -0.9419    0.0000 C   0  0  0  0  0  0  0  0  0  0  0  0
    2.0000   -0.0431    0.0000 C   0  0  0  0  0  0  0  0  0  0  0  0
   10.9976    2.0438    0.0000 C   0  0  0  0  0  0  0  0  0  0  0  0
   10.6320    3.7368    0.0000 C   0  0  0  0  0  0  0  0  0  0  0  0
   11.0180   -2.0402    0.0000 C   0  0  0  0  0  0  0  0  0  0  0  0
   10.6692   -3.7368    0.0000 C   0  0  0  0  0  0  0  0  0  0  0  0
   11.3035    2.9959    0.0000 C   0  0  0  0  0  0  0  0  0  0  0  0
   11.3334   -2.9892    0.0000 C   0  0  0  0  0  0  0  0  0  0  0  0
   10.3858    0.1397    0.0000 C   0  0  0  0  0  0  0  0  0  0  0  0
    5.4151    2.3488    0.0000 H   0  0  0  0  0  0  0  0  0  0  0  0
    4.8245    1.8136    0.0000 H   0  0  0  0  0  0  0  0  0  0  0  0
    6.5630    0.8692    0.0000 H   0  0  0  0  0  0  0  0  0  0  0  0
    7.3219    0.6253    0.0000 H   0  0  0  0  0  0  0  0  0  0  0  0
    6.6985    3.5120    0.0000 H   0  0  0  0  0  0  0  0  0  0  0  0
    6.1079    2.9767    0.0000 H   0  0  0  0  0  0  0  0  0  0  0  0
    4.8429   -1.8716    0.0000 H   0  0  0  0  0  0  0  0  0  0  0  0
    5.4388   -2.4009    0.0000 H   0  0  0  0  0  0  0  0  0  0  0  0
    7.3283   -0.6585    0.0000 H   0  0  0  0  0  0  0  0  0  0  0  0
    6.5719   -0.9099    0.0000 H   0  0  0  0  0  0  0  0  0  0  0  0
    6.1378   -3.0219    0.0000 H   0  0  0  0  0  0  0  0  0  0  0  0
    6.7337   -3.5512    0.0000 H   0  0  0  0  0  0  0  0  0  0  0  0
    8.0889    0.7910    0.0000 H   0  0  0  0  0  0  0  0  0  0  0  0
    8.6794    1.3262    0.0000 H   0  0  0  0  0  0  0  0  0  0  0  0
    8.2243    3.4338    0.0000 H   0  0  0  0  0  0  0  0  0  0  0  0
    7.4654    3.6776    0.0000 H   0  0  0  0  0  0  0  0  0  0  0  0
    8.6928   -1.3458    0.0000 H   0  0  0  0  0  0  0  0  0  0  0  0
    8.0969   -0.8165    0.0000 H   0  0  0  0  0  0  0  0  0  0  0  0
    7.5023   -3.7092    0.0000 H   0  0  0  0  0  0  0  0  0  0  0  0
    8.2587   -3.4578    0.0000 H   0  0  0  0  0  0  0  0  0  0  0  0
    6.3404   -0.0215    0.0000 H   0  0  0  0  0  0  0  0  0  0  0  0
    3.5381    1.6925    0.0000 H   0  0  0  0  0  0  0  0  0  0  0  0
    3.5554   -1.7634    0.0000 H   0  0  0  0  0  0  0  0  0  0  0  0
    9.2381    3.9851    0.0000 H   0  0  0  0  0  0  0  0  0  0  0  0
    9.8429   -1.2506    0.0000 H   0  0  0  0  0  0  0  0  0  0  0  0
    9.2780   -3.9990    0.0000 H   0  0  0  0  0  0  0  0  0  0  0  0
    2.0404    1.3428    0.0000 H   0  0  0  0  0  0  0  0  0  0  0  0
    2.0542   -1.4286    0.0000 H   0  0  0  0  0  0  0  0  0  0  0  0
    1.3800   -0.0462    0.0000 H   0  0  0  0  0  0  0  0  0  0  0  0
   11.4140    1.5844    0.0000 H   0  0  0  0  0  0  0  0  0  0  0  0
   10.8216    4.3271    0.0000 H   0  0  0  0  0  0  0  0  0  0  0  0
   11.4297   -1.5767    0.0000 H   0  0  0  0  0  0  0  0  0  0  0  0
   10.8648   -4.3252    0.0000 H   0  0  0  0  0  0  0  0  0  0  0  0
   11.9096    3.1267    0.0000 H   0  0  0  0  0  0  0  0  0  0  0  0
    9.9264   -0.2767    0.0000 H   0  0  0  0  0  0  0  0  0  0  0  0
   10.8021   -0.3197    0.0000 H   0  0  0  0  0  0  0  0  0  0  0  0
   10.8452    0.5560    0.0000 H   0  0  0  0  0  0  0  0  0  0  0  0
  1 38  1  0  0  0  0
  2 26  1  0  0  0  0
  2 39  1  0  0  0  0
  3  7  1  0  0  0  0
  3  8  1  0  0  0  0
  3  9  1  0  0  0  0
  4 10  1  0  0  0  0
  4 11  1  0  0  0  0
  4 12  1  0  0  0  0
  5 14  1  0  0  0  0
  5 15  1  0  0  0  0
  5 22  1  0  0  0  0
  6 17  1  0  0  0  0
  6 18  1  0  0  0  0
  6 23  1  0  0  0  0
  7 13  1  0  0  0  0
  7 40  1  0  0  0  0
  7 41  1  0  0  0  0
  8 14  1  0  0  0  0
  8 42  1  0  0  0  0
  8 43  1  0  0  0  0
  9 15  1  0  0  0  0
  9 44  1  0  0  0  0
  9 45  1  0  0  0  0
 10 16  1  0  0  0  0
 10 46  1  0  0  0  0
 10 47  1  0  0  0  0
 11 17  1  0  0  0  0
 11 48  1  0  0  0  0
 11 49  1  0  0  0  0
 12 18  1  0  0  0  0
 12 50  1  0  0  0  0
 12 51  1  0  0  0  0
 13 19  2  0  0  0  0
 13 21  1  0  0  0  0
 14 52  1  0  0  0  0
 14 53  1  0  0  0  0
 15 54  1  0  0  0  0
 15 55  1  0  0  0  0
 16 20  1  0  0  0  0
 16 21  2  0  0  0  0
 17 56  1  0  0  0  0
 17 57  1  0  0  0  0
 18 58  1  0  0  0  0
 18 59  1  0  0  0  0
 19 20  1  0  0  0  0
 19 24  1  0  0  0  0
 20 25  2  0  0  0  0
 21 60  1  0  0  0  0
 22 26  1  0  0  0  0
 22 27  2  0  0  0  0
 23 28  2  0  0  0  0
 23 29  1  0  0  0  0
 24 30  2  0  0  0  0
 24 61  1  0  0  0  0
 25 31  1  0  0  0  0
 25 62  1  0  0  0  0
 26 33  2  0  0  0  0
 27 34  1  0  0  0  0
 27 63  1  0  0  0  0
 28 35  1  0  0  0  0
 28 64  1  0  0  0  0
 29 36  2  0  0  0  0
 29 65  1  0  0  0  0
 30 32  1  0  0  0  0
 30 66  1  0  0  0  0
 31 32  2  0  0  0  0
 31 67  1  0  0  0  0
 32 68  1  0  0  0  0
 33 37  1  0  0  0  0
 33 69  1  0  0  0  0
 34 37  2  0  0  0  0
 34 70  1  0  0  0  0
 35 38  2  0  0  0  0
 35 71  1  0  0  0  0
 36 38  1  0  0  0  0
 36 72  1  0  0  0  0
 37 73  1  0  0  0  0
 39 74  1  0  0  0  0
 39 75  1  0  0  0  0
 39 76  1  0  0  0  0
M  END
> <PUBCHEM_COMPOUND_CID>
71459761

> <PUBCHEM_COMPOUND_CANONICALIZED>
1

> <PUBCHEM_CACTVS_COMPLEXITY>
731

> <PUBCHEM_CACTVS_HBOND_ACCEPTOR>
5

> <PUBCHEM_CACTVS_HBOND_DONOR>
0

> <PUBCHEM_CACTVS_ROTATABLE_BOND>
7

> <PUBCHEM_CACTVS_SUBSKEYS>
AAADcfB/oAAEAAAAAAAAAAAAAAAAAYAAAAA8eIEABgAAAADBUAAAHgIAAAAADA7BmCYyxsMABACAAiRCQACCCAAhJwAIiAAPbogOZiLFs5uVMChkwBHY6AeQwMAOgABAAAAAEAAAAIAAAAAgAQAACAAAAA==

> <PUBCHEM_IUPAC_OPENEYE_NAME>
1-(4-chlorophenyl)-4-[[3-[[4-(2-methoxyphenyl)piperazin-1-yl]methyl]azulen-1-yl]methyl]piperazine

> <PUBCHEM_IUPAC_CAS_NAME>
1-(4-chlorophenyl)-4-[[3-[[4-(2-methoxyphenyl)-1-piperazinyl]methyl]-1-azulenyl]methyl]piperazine

> <PUBCHEM_IUPAC_NAME_MARKUP>
1-(4-chlorophenyl)-4-[[3-[[4-(2-methoxyphenyl)piperazin-1-yl]methyl]azulen-1-yl]methyl]piperazine

> <PUBCHEM_IUPAC_NAME>
1-(4-chlorophenyl)-4-[[3-[[4-(2-methoxyphenyl)piperazin-1-yl]methyl]azulen-1-yl]methyl]piperazine

> <PUBCHEM_IUPAC_SYSTEMATIC_NAME>
1-(4-chlorophenyl)-4-[[3-[[4-(2-methoxyphenyl)piperazin-1-yl]methyl]azulen-1-yl]methyl]piperazine

> <PUBCHEM_IUPAC_TRADITIONAL_NAME>
1-(4-chlorophenyl)-4-[[3-[[4-(2-methoxyphenyl)piperazino]methyl]azulen-1-yl]methyl]piperazine

> <PUBCHEM_IUPAC_INCHI>
InChI=1S/C33H37ClN4O/c1-39-33-10-6-5-9-32(33)38-21-17-36(18-22-38)25-27-23-26(30-7-3-2-4-8-31(27)30)24-35-15-19-37(20-16-35)29-13-11-28(34)12-14-29/h2-14,23H,15-22,24-25H2,1H3

> <PUBCHEM_IUPAC_INCHIKEY>
VDCBDIRJDJYCIZ-UHFFFAOYSA-N

> <PUBCHEM_XLOGP3_AA>
6.4

> <PUBCHEM_EXACT_MASS>
540.2655895

> <PUBCHEM_MOLECULAR_FORMULA>
C33H37ClN4O

> <PUBCHEM_MOLECULAR_WEIGHT>
541.1

> <PUBCHEM_OPENEYE_CAN_SMILES>
COC1=CC=CC=C1N2CCN(CC2)CC3=C4C=CC=CC=C4C(=C3)CN5CCN(CC5)C6=CC=C(C=C6)Cl

> <PUBCHEM_OPENEYE_ISO_SMILES>
COC1=CC=CC=C1N2CCN(CC2)CC3=C4C=CC=CC=C4C(=C3)CN5CCN(CC5)C6=CC=C(C=C6)Cl

> <PUBCHEM_CACTVS_TPSA>
22.2

> <PUBCHEM_MONOISOTOPIC_WEIGHT>
540.2655895

> <PUBCHEM_TOTAL_CHARGE>
0

> <PUBCHEM_HEAVY_ATOM_COUNT>
39

> <PUBCHEM_ATOM_DEF_STEREO_COUNT>
0

> <PUBCHEM_ATOM_UDEF_STEREO_COUNT>
0

> <PUBCHEM_BOND_DEF_STEREO_COUNT>
0

> <PUBCHEM_BOND_UDEF_STEREO_COUNT>
0

> <PUBCHEM_ISOTOPIC_ATOM_COUNT>
0

> <PUBCHEM_COMPONENT_COUNT>
1

> <PUBCHEM_CACTVS_TAUTO_COUNT>
-1

> <PUBCHEM_COORDINATE_TYPE>
1
5
255

> <PUBCHEM_BONDANNOTATIONS>
13  19  8
13  21  8
16  20  8
16  21  8
19  24  8
20  25  8
22  26  8
22  27  8
23  28  8
23  29  8
24  30  8
25  31  8
26  33  8
27  34  8
28  35  8
29  36  8
30  32  8
31  32  8
33  37  8
34  37  8
35  38  8
36  38  8

$$$$
