164619236
  -OEChem-09292322432D

 53 56  0     0  0  0  0  0  0999 V2000
    9.7884   -0.1913    0.0000 O   0  0  0  0  0  0  0  0  0  0  0  0
   15.0506   -2.2154    0.0000 O   0  0  0  0  0  0  0  0  0  0  0  0
    6.3243   -0.1779    0.0000 N   0  0  0  0  0  0  0  0  0  0  0  0
    4.5961    0.8288    0.0000 N   0  0  0  0  0  0  0  0  0  0  0  0
    3.7359    2.3321    0.0000 N   0  0  0  0  0  0  0  0  0  0  0  0
   13.3185   -2.2154    0.0000 N   0  0  0  0  0  0  0  0  0  0  0  0
    6.3282    0.8221    0.0000 C   0  0  0  0  0  0  0  0  0  0  0  0
    5.4564   -0.6746    0.0000 C   0  0  0  0  0  0  0  0  0  0  0  0
    5.4641    1.3254    0.0000 C   0  0  0  0  0  0  0  0  0  0  0  0
    4.5923   -0.1712    0.0000 C   0  0  0  0  0  0  0  0  0  0  0  0
    7.1884   -0.6812    0.0000 C   0  0  0  0  0  0  0  0  0  0  0  0
    8.0564   -0.1846    0.0000 C   0  0  0  0  0  0  0  0  0  0  0  0
    3.7320    1.3321    0.0000 C   0  0  0  0  0  0  0  0  0  0  0  0
    8.9204   -0.6879    0.0000 C   0  0  0  0  0  0  0  0  0  0  0  0
   12.4525   -0.7154    0.0000 C   0  0  0  0  0  0  0  0  0  0  0  0
    2.8641    0.8354    0.0000 C   0  0  0  0  0  0  0  0  0  0  0  0
   13.3185   -0.2154    0.0000 C   0  0  0  0  0  0  0  0  0  0  0  0
   10.6525   -0.6946    0.0000 C   0  0  0  0  0  0  0  0  0  0  0  0
   12.4525   -1.7154    0.0000 C   0  0  0  0  0  0  0  0  0  0  0  0
   14.1845   -0.7154    0.0000 C   0  0  0  0  0  0  0  0  0  0  0  0
   11.5585   -0.1808    0.0000 C   0  0  0  0  0  0  0  0  0  0  0  0
   10.6525   -1.7362    0.0000 C   0  0  0  0  0  0  0  0  0  0  0  0
   11.5585   -2.2501    0.0000 C   0  0  0  0  0  0  0  0  0  0  0  0
   14.1845   -1.7154    0.0000 C   0  0  0  0  0  0  0  0  0  0  0  0
    2.0000    1.3388    0.0000 C   0  0  0  0  0  0  0  0  0  0  0  0
    2.8718    2.8354    0.0000 C   0  0  0  0  0  0  0  0  0  0  0  0
    2.0038    2.3388    0.0000 C   0  0  0  0  0  0  0  0  0  0  0  0
    6.9383    0.7121    0.0000 H   0  0  0  0  0  0  0  0  0  0  0  0
    6.5425    1.4039    0.0000 H   0  0  0  0  0  0  0  0  0  0  0  0
    5.0560   -1.1480    0.0000 H   0  0  0  0  0  0  0  0  0  0  0  0
    5.8531   -1.1510    0.0000 H   0  0  0  0  0  0  0  0  0  0  0  0
    5.8644    1.7988    0.0000 H   0  0  0  0  0  0  0  0  0  0  0  0
    5.0674    1.8019    0.0000 H   0  0  0  0  0  0  0  0  0  0  0  0
    3.9821   -0.0612    0.0000 H   0  0  0  0  0  0  0  0  0  0  0  0
    4.3780   -0.7530    0.0000 H   0  0  0  0  0  0  0  0  0  0  0  0
    6.7880   -1.1547    0.0000 H   0  0  0  0  0  0  0  0  0  0  0  0
    7.5851   -1.1577    0.0000 H   0  0  0  0  0  0  0  0  0  0  0  0
    8.4567    0.2888    0.0000 H   0  0  0  0  0  0  0  0  0  0  0  0
    7.6597    0.2919    0.0000 H   0  0  0  0  0  0  0  0  0  0  0  0
    8.5201   -1.1613    0.0000 H   0  0  0  0  0  0  0  0  0  0  0  0
    9.3171   -1.1644    0.0000 H   0  0  0  0  0  0  0  0  0  0  0  0
   13.7170    0.2595    0.0000 H   0  0  0  0  0  0  0  0  0  0  0  0
   12.9200    0.2595    0.0000 H   0  0  0  0  0  0  0  0  0  0  0  0
    2.8617    0.2154    0.0000 H   0  0  0  0  0  0  0  0  0  0  0  0
   14.7951   -0.8231    0.0000 H   0  0  0  0  0  0  0  0  0  0  0  0
   14.3966   -0.1328    0.0000 H   0  0  0  0  0  0  0  0  0  0  0  0
   11.5657    0.4392    0.0000 H   0  0  0  0  0  0  0  0  0  0  0  0
   11.5657   -2.8700    0.0000 H   0  0  0  0  0  0  0  0  0  0  0  0
   10.1167   -2.0483    0.0000 H   0  0  0  0  0  0  0  0  0  0  0  0
   13.3185   -2.8354    0.0000 H   0  0  0  0  0  0  0  0  0  0  0  0
    1.4619    1.0308    0.0000 H   0  0  0  0  0  0  0  0  0  0  0  0
    2.8742    3.4554    0.0000 H   0  0  0  0  0  0  0  0  0  0  0  0
    1.4681    2.6508    0.0000 H   0  0  0  0  0  0  0  0  0  0  0  0
  1 14  1  0  0  0  0
  1 18  1  0  0  0  0
  2 24  2  0  0  0  0
  3  7  1  0  0  0  0
  3  8  1  0  0  0  0
  3 11  1  0  0  0  0
  4  9  1  0  0  0  0
  4 10  1  0  0  0  0
  4 13  1  0  0  0  0
  5 13  1  0  0  0  0
  5 26  2  0  0  0  0
  6 19  1  0  0  0  0
  6 24  1  0  0  0  0
  6 50  1  0  0  0  0
  7  9  1  0  0  0  0
  7 28  1  0  0  0  0
  7 29  1  0  0  0  0
  8 10  1  0  0  0  0
  8 30  1  0  0  0  0
  8 31  1  0  0  0  0
  9 32  1  0  0  0  0
  9 33  1  0  0  0  0
 10 34  1  0  0  0  0
 10 35  1  0  0  0  0
 11 12  1  0  0  0  0
 11 36  1  0  0  0  0
 11 37  1  0  0  0  0
 12 14  1  0  0  0  0
 12 38  1  0  0  0  0
 12 39  1  0  0  0  0
 13 16  2  0  0  0  0
 14 40  1  0  0  0  0
 14 41  1  0  0  0  0
 15 17  1  0  0  0  0
 15 19  2  0  0  0  0
 15 21  1  0  0  0  0
 16 25  1  0  0  0  0
 16 44  1  0  0  0  0
 17 20  1  0  0  0  0
 17 42  1  0  0  0  0
 17 43  1  0  0  0  0
 18 21  2  0  0  0  0
 18 22  1  0  0  0  0
 19 23  1  0  0  0  0
 20 24  1  0  0  0  0
 20 45  1  0  0  0  0
 20 46  1  0  0  0  0
 21 47  1  0  0  0  0
 22 23  2  0  0  0  0
 22 49  1  0  0  0  0
 23 48  1  0  0  0  0
 25 27  2  0  0  0  0
 25 51  1  0  0  0  0
 26 27  1  0  0  0  0
 26 52  1  0  0  0  0
 27 53  1  0  0  0  0
M  END
> <PUBCHEM_COMPOUND_CID>
164619236

> <PUBCHEM_COMPOUND_CANONICALIZED>
1

> <PUBCHEM_CACTVS_COMPLEXITY>
481

> <PUBCHEM_CACTVS_HBOND_ACCEPTOR>
5

> <PUBCHEM_CACTVS_HBOND_DONOR>
1

> <PUBCHEM_CACTVS_ROTATABLE_BOND>
6

> <PUBCHEM_CACTVS_SUBSKEYS>
AAADceB7sAAAAAAAAAAAAAAAAAAAAAAAAAA8WLEAAAAAAACxwAAAHgAQAAAADAzhmgY99pPIFACoAjd3dACCiCkxIiAJ2CE+bJiMZvLEuZuWOCju1BPI6Ce4ybCeAEABAAACAAAAgAIAAAQAAAAAAAAAAA==

> <PUBCHEM_IUPAC_OPENEYE_NAME>
6-[3-[4-(2-pyridyl)piperazin-1-yl]propoxy]-3,4-dihydro-1H-quinolin-2-one

> <PUBCHEM_IUPAC_CAS_NAME>
6-[3-[4-(2-pyridinyl)-1-piperazinyl]propoxy]-3,4-dihydro-1H-quinolin-2-one

> <PUBCHEM_IUPAC_NAME_MARKUP>
6-[3-(4-pyridin-2-ylpiperazin-1-yl)propoxy]-3,4-dihydro-1<I>H</I>-quinolin-2-one

> <PUBCHEM_IUPAC_NAME>
6-[3-(4-pyridin-2-ylpiperazin-1-yl)propoxy]-3,4-dihydro-1H-quinolin-2-one

> <PUBCHEM_IUPAC_SYSTEMATIC_NAME>
6-[3-(4-pyridin-2-ylpiperazin-1-yl)propoxy]-3,4-dihydro-1H-quinolin-2-one

> <PUBCHEM_IUPAC_TRADITIONAL_NAME>
6-[3-[4-(2-pyridyl)piperazino]propoxy]-3,4-dihydrocarbostyril

> <PUBCHEM_IUPAC_INCHI>
InChI=1S/C21H26N4O2/c26-21-8-5-17-16-18(6-7-19(17)23-21)27-15-3-10-24-11-13-25(14-12-24)20-4-1-2-9-22-20/h1-2,4,6-7,9,16H,3,5,8,10-15H2,(H,23,26)

> <PUBCHEM_IUPAC_INCHIKEY>
NBSPIYLVJWAETB-UHFFFAOYSA-N

> <PUBCHEM_XLOGP3_AA>
2.3

> <PUBCHEM_EXACT_MASS>
366.20557608

> <PUBCHEM_MOLECULAR_FORMULA>
C21H26N4O2

> <PUBCHEM_MOLECULAR_WEIGHT>
366.5

> <PUBCHEM_OPENEYE_CAN_SMILES>
C1CC(=O)NC2=C1C=C(C=C2)OCCCN3CCN(CC3)C4=CC=CC=N4

> <PUBCHEM_OPENEYE_ISO_SMILES>
C1CC(=O)NC2=C1C=C(C=C2)OCCCN3CCN(CC3)C4=CC=CC=N4

> <PUBCHEM_CACTVS_TPSA>
57.7

> <PUBCHEM_MONOISOTOPIC_WEIGHT>
366.20557608

> <PUBCHEM_TOTAL_CHARGE>
0

> <PUBCHEM_HEAVY_ATOM_COUNT>
27

> <PUBCHEM_ATOM_DEF_STEREO_COUNT>
0

> <PUBCHEM_ATOM_UDEF_STEREO_COUNT>
0

> <PUBCHEM_BOND_DEF_STEREO_COUNT>
0

> <PUBCHEM_BOND_UDEF_STEREO_COUNT>
0

> <PUBCHEM_ISOTOPIC_ATOM_COUNT>
0

> <PUBCHEM_COMPONENT_COUNT>
1

> <PUBCHEM_CACTVS_TAUTO_COUNT>
-1

> <PUBCHEM_COORDINATE_TYPE>
1
5
255

> <PUBCHEM_BONDANNOTATIONS>
13  16  8
15  19  8
15  21  8
16  25  8
18  21  8
18  22  8
19  23  8
22  23  8
25  27  8
26  27  8
5  13  8
5  26  8

$$$$
