122183773
  -OEChem-09292322362D

 61 65  0     0  0  0  0  0  0999 V2000
    2.1953   -4.2200    0.0000 O   0  0  0  0  0  0  0  0  0  0  0  0
    2.1340   -2.1364    0.0000 O   0  0  0  0  0  0  0  0  0  0  0  0
    5.5981    1.8636    0.0000 N   0  0  0  0  0  0  0  0  0  0  0  0
    5.5981    3.8636    0.0000 N   0  0  0  0  0  0  0  0  0  0  0  0
    3.8660   -2.1364    0.0000 N   0  0  0  0  0  0  0  0  0  0  0  0
    6.4641    2.3636    0.0000 C   0  0  0  0  0  0  0  0  0  0  0  0
    4.7320    2.3636    0.0000 C   0  0  0  0  0  0  0  0  0  0  0  0
    6.4641    3.3636    0.0000 C   0  0  0  0  0  0  0  0  0  0  0  0
    4.7320    3.3636    0.0000 C   0  0  0  0  0  0  0  0  0  0  0  0
    5.5981    0.8636    0.0000 C   0  0  0  0  0  0  0  0  0  0  0  0
    4.7320    0.3636    0.0000 C   0  0  0  0  0  0  0  0  0  0  0  0
    5.5981    4.8636    0.0000 C   0  0  0  0  0  0  0  0  0  0  0  0
    4.7320   -0.6364    0.0000 C   0  0  0  0  0  0  0  0  0  0  0  0
    6.4641    5.3636    0.0000 C   0  0  0  0  0  0  0  0  0  0  0  0
    4.7320    5.3636    0.0000 C   0  0  0  0  0  0  0  0  0  0  0  0
    3.8660   -1.1364    0.0000 C   0  0  0  0  0  0  0  0  0  0  0  0
    6.4641    6.3636    0.0000 C   0  0  0  0  0  0  0  0  0  0  0  0
    7.3580    4.8290    0.0000 C   0  0  0  0  0  0  0  0  0  0  0  0
    4.7320    6.3636    0.0000 C   0  0  0  0  0  0  0  0  0  0  0  0
    5.5981    6.8636    0.0000 C   0  0  0  0  0  0  0  0  0  0  0  0
    7.3580    6.8983    0.0000 C   0  0  0  0  0  0  0  0  0  0  0  0
    8.2641    5.3428    0.0000 C   0  0  0  0  0  0  0  0  0  0  0  0
    8.2641    6.3844    0.0000 C   0  0  0  0  0  0  0  0  0  0  0  0
    3.0000   -2.6364    0.0000 C   0  0  0  0  0  0  0  0  0  0  0  0
    3.0000   -3.6364    0.0000 C   0  0  0  0  0  0  0  0  0  0  0  0
    3.8047   -4.2200    0.0000 C   0  0  0  0  0  0  0  0  0  0  0  0
    3.5000   -5.1662    0.0000 C   0  0  0  0  0  0  0  0  0  0  0  0
    2.5000   -5.1662    0.0000 C   0  0  0  0  0  0  0  0  0  0  0  0
    4.0000   -6.0322    0.0000 C   0  0  0  0  0  0  0  0  0  0  0  0
    2.0000   -6.0322    0.0000 C   0  0  0  0  0  0  0  0  0  0  0  0
    3.5000   -6.8983    0.0000 C   0  0  0  0  0  0  0  0  0  0  0  0
    2.5000   -6.8983    0.0000 C   0  0  0  0  0  0  0  0  0  0  0  0
    6.6762    1.7810    0.0000 H   0  0  0  0  0  0  0  0  0  0  0  0
    7.0747    2.4713    0.0000 H   0  0  0  0  0  0  0  0  0  0  0  0
    4.1215    2.4713    0.0000 H   0  0  0  0  0  0  0  0  0  0  0  0
    4.5200    1.7810    0.0000 H   0  0  0  0  0  0  0  0  0  0  0  0
    7.0747    3.2560    0.0000 H   0  0  0  0  0  0  0  0  0  0  0  0
    6.6762    3.9462    0.0000 H   0  0  0  0  0  0  0  0  0  0  0  0
    4.5200    3.9462    0.0000 H   0  0  0  0  0  0  0  0  0  0  0  0
    4.1215    3.2560    0.0000 H   0  0  0  0  0  0  0  0  0  0  0  0
    5.8101    0.2810    0.0000 H   0  0  0  0  0  0  0  0  0  0  0  0
    6.2087    0.9713    0.0000 H   0  0  0  0  0  0  0  0  0  0  0  0
    4.5200    0.9462    0.0000 H   0  0  0  0  0  0  0  0  0  0  0  0
    4.1215    0.2559    0.0000 H   0  0  0  0  0  0  0  0  0  0  0  0
    4.9441   -1.2190    0.0000 H   0  0  0  0  0  0  0  0  0  0  0  0
    5.3426   -0.5287    0.0000 H   0  0  0  0  0  0  0  0  0  0  0  0
    4.1951    5.0536    0.0000 H   0  0  0  0  0  0  0  0  0  0  0  0
    3.6540   -0.5538    0.0000 H   0  0  0  0  0  0  0  0  0  0  0  0
    3.2554   -1.2441    0.0000 H   0  0  0  0  0  0  0  0  0  0  0  0
    7.3509    4.2090    0.0000 H   0  0  0  0  0  0  0  0  0  0  0  0
    4.1951    6.6736    0.0000 H   0  0  0  0  0  0  0  0  0  0  0  0
    5.5981    7.4836    0.0000 H   0  0  0  0  0  0  0  0  0  0  0  0
    4.4030   -2.4464    0.0000 H   0  0  0  0  0  0  0  0  0  0  0  0
    7.3509    7.5182    0.0000 H   0  0  0  0  0  0  0  0  0  0  0  0
    8.7998    5.0307    0.0000 H   0  0  0  0  0  0  0  0  0  0  0  0
    8.7998    6.6965    0.0000 H   0  0  0  0  0  0  0  0  0  0  0  0
    4.3940   -4.0274    0.0000 H   0  0  0  0  0  0  0  0  0  0  0  0
    4.6200   -6.0322    0.0000 H   0  0  0  0  0  0  0  0  0  0  0  0
    1.3800   -6.0322    0.0000 H   0  0  0  0  0  0  0  0  0  0  0  0
    3.8100   -7.4352    0.0000 H   0  0  0  0  0  0  0  0  0  0  0  0
    2.1900   -7.4352    0.0000 H   0  0  0  0  0  0  0  0  0  0  0  0
  1 25  1  0  0  0  0
  1 28  1  0  0  0  0
  2 24  2  0  0  0  0
  3  6  1  0  0  0  0
  3  7  1  0  0  0  0
  3 10  1  0  0  0  0
  4  8  1  0  0  0  0
  4  9  1  0  0  0  0
  4 12  1  0  0  0  0
  5 16  1  0  0  0  0
  5 24  1  0  0  0  0
  5 53  1  0  0  0  0
  6  8  1  0  0  0  0
  6 33  1  0  0  0  0
  6 34  1  0  0  0  0
  7  9  1  0  0  0  0
  7 35  1  0  0  0  0
  7 36  1  0  0  0  0
  8 37  1  0  0  0  0
  8 38  1  0  0  0  0
  9 39  1  0  0  0  0
  9 40  1  0  0  0  0
 10 11  1  0  0  0  0
 10 41  1  0  0  0  0
 10 42  1  0  0  0  0
 11 13  1  0  0  0  0
 11 43  1  0  0  0  0
 11 44  1  0  0  0  0
 12 14  1  0  0  0  0
 12 15  2  0  0  0  0
 13 16  1  0  0  0  0
 13 45  1  0  0  0  0
 13 46  1  0  0  0  0
 14 17  1  0  0  0  0
 14 18  2  0  0  0  0
 15 19  1  0  0  0  0
 15 47  1  0  0  0  0
 16 48  1  0  0  0  0
 16 49  1  0  0  0  0
 17 20  1  0  0  0  0
 17 21  2  0  0  0  0
 18 22  1  0  0  0  0
 18 50  1  0  0  0  0
 19 20  2  0  0  0  0
 19 51  1  0  0  0  0
 20 52  1  0  0  0  0
 21 23  1  0  0  0  0
 21 54  1  0  0  0  0
 22 23  2  0  0  0  0
 22 55  1  0  0  0  0
 23 56  1  0  0  0  0
 24 25  1  0  0  0  0
 25 26  2  0  0  0  0
 26 27  1  0  0  0  0
 26 57  1  0  0  0  0
 27 28  1  0  0  0  0
 27 29  2  0  0  0  0
 28 30  2  0  0  0  0
 29 31  1  0  0  0  0
 29 58  1  0  0  0  0
 30 32  1  0  0  0  0
 30 59  1  0  0  0  0
 31 32  2  0  0  0  0
 31 60  1  0  0  0  0
 32 61  1  0  0  0  0
M  END
> <PUBCHEM_COMPOUND_CID>
122183773

> <PUBCHEM_COMPOUND_CANONICALIZED>
1

> <PUBCHEM_CACTVS_COMPLEXITY>
606

> <PUBCHEM_CACTVS_HBOND_ACCEPTOR>
4

> <PUBCHEM_CACTVS_HBOND_DONOR>
1

> <PUBCHEM_CACTVS_ROTATABLE_BOND>
7

> <PUBCHEM_CACTVS_SUBSKEYS>
AAADceB7MAAAAAAAAAAAAAAAAAAAASAAAAA8YMEAAAAAAEjB9AAAHgAQAAAADAzBmAQwxsPABECIAqVSUAKCCAAlIgAIiIHObMgOZjLEtb+XOSjk1hHY6YeY36LugAAAQAAaAAAAAACAADQAAAAAAAAAAA==

> <PUBCHEM_IUPAC_OPENEYE_NAME>
N-[4-[4-(1-naphthyl)piperazin-1-yl]butyl]benzofuran-2-carboxamide

> <PUBCHEM_IUPAC_CAS_NAME>
N-[4-[4-(1-naphthalenyl)-1-piperazinyl]butyl]-2-benzofurancarboxamide

> <PUBCHEM_IUPAC_NAME_MARKUP>
<I>N</I>-[4-(4-naphthalen-1-ylpiperazin-1-yl)butyl]-1-benzofuran-2-carboxamide

> <PUBCHEM_IUPAC_NAME>
N-[4-(4-naphthalen-1-ylpiperazin-1-yl)butyl]-1-benzofuran-2-carboxamide

> <PUBCHEM_IUPAC_SYSTEMATIC_NAME>
N-[4-(4-naphthalen-1-ylpiperazin-1-yl)butyl]-1-benzofuran-2-carboxamide

> <PUBCHEM_IUPAC_TRADITIONAL_NAME>
N-[4-[4-(1-naphthyl)piperazino]butyl]coumarilamide

> <PUBCHEM_IUPAC_INCHI>
InChI=1S/C27H29N3O2/c31-27(26-20-22-9-2-4-13-25(22)32-26)28-14-5-6-15-29-16-18-30(19-17-29)24-12-7-10-21-8-1-3-11-23(21)24/h1-4,7-13,20H,5-6,14-19H2,(H,28,31)

> <PUBCHEM_IUPAC_INCHIKEY>
RDRRNTYOUDJHNF-UHFFFAOYSA-N

> <PUBCHEM_XLOGP3_AA>
5.5

> <PUBCHEM_EXACT_MASS>
427.22597718

> <PUBCHEM_MOLECULAR_FORMULA>
C27H29N3O2

> <PUBCHEM_MOLECULAR_WEIGHT>
427.5

> <PUBCHEM_OPENEYE_CAN_SMILES>
C1CN(CCN1CCCCNC(=O)C2=CC3=CC=CC=C3O2)C4=CC=CC5=CC=CC=C54

> <PUBCHEM_OPENEYE_ISO_SMILES>
C1CN(CCN1CCCCNC(=O)C2=CC3=CC=CC=C3O2)C4=CC=CC5=CC=CC=C54

> <PUBCHEM_CACTVS_TPSA>
48.7

> <PUBCHEM_MONOISOTOPIC_WEIGHT>
427.22597718

> <PUBCHEM_TOTAL_CHARGE>
0

> <PUBCHEM_HEAVY_ATOM_COUNT>
32

> <PUBCHEM_ATOM_DEF_STEREO_COUNT>
0

> <PUBCHEM_ATOM_UDEF_STEREO_COUNT>
0

> <PUBCHEM_BOND_DEF_STEREO_COUNT>
0

> <PUBCHEM_BOND_UDEF_STEREO_COUNT>
0

> <PUBCHEM_ISOTOPIC_ATOM_COUNT>
0

> <PUBCHEM_COMPONENT_COUNT>
1

> <PUBCHEM_CACTVS_TAUTO_COUNT>
-1

> <PUBCHEM_COORDINATE_TYPE>
1
5
255

> <PUBCHEM_BONDANNOTATIONS>
1  25  8
1  28  8
12  14  8
12  15  8
14  17  8
14  18  8
15  19  8
17  20  8
17  21  8
18  22  8
19  20  8
21  23  8
22  23  8
25  26  8
26  27  8
27  28  8
27  29  8
28  30  8
29  31  8
30  32  8
31  32  8

$$$$
