71360
  -OEChem-09292322032D

 58 61  0     0  0  0  0  0  0999 V2000
    2.0000   -5.7581    0.0000 F   0  0  0  0  0  0  0  0  0  0  0  0
    5.5443   -5.5628    0.0000 O   0  0  0  0  0  0  0  0  0  0  0  0
    9.0546    1.2117    0.0000 O   0  0  0  0  0  0  0  0  0  0  0  0
    7.7189    2.7003    0.0000 O   0  0  0  0  0  0  0  0  0  0  0  0
    9.6294    5.7581    0.0000 O   0  0  0  0  0  0  0  0  0  0  0  0
    6.4763   -1.1018    0.0000 N   0  0  0  0  0  0  0  0  0  0  0  0
    6.1279   -4.7581    0.0000 N   0  0  0  0  0  0  0  0  0  0  0  0
    5.8550   -3.0028    0.0000 C   0  0  0  0  0  0  0  0  0  0  0  0
    6.8335   -2.7966    0.0000 C   0  0  0  0  0  0  0  0  0  0  0  0
    5.1871   -2.2585    0.0000 C   0  0  0  0  0  0  0  0  0  0  0  0
    7.1441   -1.8461    0.0000 C   0  0  0  0  0  0  0  0  0  0  0  0
    5.4978   -1.3080    0.0000 C   0  0  0  0  0  0  0  0  0  0  0  0
    6.7870   -0.1513    0.0000 C   0  0  0  0  0  0  0  0  0  0  0  0
    5.5443   -3.9533    0.0000 C   0  0  0  0  0  0  0  0  0  0  0  0
    7.7654    0.0550    0.0000 C   0  0  0  0  0  0  0  0  0  0  0  0
    4.5981   -4.2581    0.0000 C   0  0  0  0  0  0  0  0  0  0  0  0
    4.5981   -5.2581    0.0000 C   0  0  0  0  0  0  0  0  0  0  0  0
    8.0761    1.0055    0.0000 C   0  0  0  0  0  0  0  0  0  0  0  0
    3.7320   -3.7581    0.0000 C   0  0  0  0  0  0  0  0  0  0  0  0
    3.7320   -5.7581    0.0000 C   0  0  0  0  0  0  0  0  0  0  0  0
    2.8660   -4.2581    0.0000 C   0  0  0  0  0  0  0  0  0  0  0  0
    2.8660   -5.2581    0.0000 C   0  0  0  0  0  0  0  0  0  0  0  0
    9.3653    2.1622    0.0000 C   0  0  0  0  0  0  0  0  0  0  0  0
    8.6974    2.9065    0.0000 C   0  0  0  0  0  0  0  0  0  0  0  0
   10.3438    2.3684    0.0000 C   0  0  0  0  0  0  0  0  0  0  0  0
    9.0081    3.8570    0.0000 C   0  0  0  0  0  0  0  0  0  0  0  0
   10.6545    3.3190    0.0000 C   0  0  0  0  0  0  0  0  0  0  0  0
    9.9866    4.0633    0.0000 C   0  0  0  0  0  0  0  0  0  0  0  0
   10.2973    5.0138    0.0000 C   0  0  0  0  0  0  0  0  0  0  0  0
    7.0511    3.4446    0.0000 C   0  0  0  0  0  0  0  0  0  0  0  0
   11.2758    5.2200    0.0000 C   0  0  0  0  0  0  0  0  0  0  0  0
    6.2690   -3.4643    0.0000 H   0  0  0  0  0  0  0  0  0  0  0  0
    6.8540   -3.4163    0.0000 H   0  0  0  0  0  0  0  0  0  0  0  0
    7.4473   -2.8840    0.0000 H   0  0  0  0  0  0  0  0  0  0  0  0
    4.6402   -1.9665    0.0000 H   0  0  0  0  0  0  0  0  0  0  0  0
    4.8046   -2.7464    0.0000 H   0  0  0  0  0  0  0  0  0  0  0  0
    7.6910   -2.1381    0.0000 H   0  0  0  0  0  0  0  0  0  0  0  0
    7.5267   -1.3582    0.0000 H   0  0  0  0  0  0  0  0  0  0  0  0
    5.4772   -0.6883    0.0000 H   0  0  0  0  0  0  0  0  0  0  0  0
    4.8840   -1.2206    0.0000 H   0  0  0  0  0  0  0  0  0  0  0  0
    6.7664    0.4684    0.0000 H   0  0  0  0  0  0  0  0  0  0  0  0
    6.1731   -0.0639    0.0000 H   0  0  0  0  0  0  0  0  0  0  0  0
    7.7860   -0.5647    0.0000 H   0  0  0  0  0  0  0  0  0  0  0  0
    8.3793   -0.0324    0.0000 H   0  0  0  0  0  0  0  0  0  0  0  0
    8.0556    1.6251    0.0000 H   0  0  0  0  0  0  0  0  0  0  0  0
    7.4623    1.0928    0.0000 H   0  0  0  0  0  0  0  0  0  0  0  0
    3.7320   -3.1381    0.0000 H   0  0  0  0  0  0  0  0  0  0  0  0
    3.7320   -6.3781    0.0000 H   0  0  0  0  0  0  0  0  0  0  0  0
    2.3291   -3.9481    0.0000 H   0  0  0  0  0  0  0  0  0  0  0  0
   10.7578    1.9070    0.0000 H   0  0  0  0  0  0  0  0  0  0  0  0
    8.5940    4.3185    0.0000 H   0  0  0  0  0  0  0  0  0  0  0  0
   11.2611    3.4468    0.0000 H   0  0  0  0  0  0  0  0  0  0  0  0
    7.5126    3.8587    0.0000 H   0  0  0  0  0  0  0  0  0  0  0  0
    6.6370    3.9061    0.0000 H   0  0  0  0  0  0  0  0  0  0  0  0
    6.5896    3.0305    0.0000 H   0  0  0  0  0  0  0  0  0  0  0  0
   11.4036    4.6133    0.0000 H   0  0  0  0  0  0  0  0  0  0  0  0
   11.8824    5.3478    0.0000 H   0  0  0  0  0  0  0  0  0  0  0  0
   11.1479    5.8267    0.0000 H   0  0  0  0  0  0  0  0  0  0  0  0
  1 22  1  0  0  0  0
  2  7  1  0  0  0  0
  2 17  1  0  0  0  0
  3 18  1  0  0  0  0
  3 23  1  0  0  0  0
  4 24  1  0  0  0  0
  4 30  1  0  0  0  0
  5 29  2  0  0  0  0
  6 11  1  0  0  0  0
  6 12  1  0  0  0  0
  6 13  1  0  0  0  0
  7 14  2  0  0  0  0
  8  9  1  0  0  0  0
  8 10  1  0  0  0  0
  8 14  1  0  0  0  0
  8 32  1  0  0  0  0
  9 11  1  0  0  0  0
  9 33  1  0  0  0  0
  9 34  1  0  0  0  0
 10 12  1  0  0  0  0
 10 35  1  0  0  0  0
 10 36  1  0  0  0  0
 11 37  1  0  0  0  0
 11 38  1  0  0  0  0
 12 39  1  0  0  0  0
 12 40  1  0  0  0  0
 13 15  1  0  0  0  0
 13 41  1  0  0  0  0
 13 42  1  0  0  0  0
 14 16  1  0  0  0  0
 15 18  1  0  0  0  0
 15 43  1  0  0  0  0
 15 44  1  0  0  0  0
 16 17  2  0  0  0  0
 16 19  1  0  0  0  0
 17 20  1  0  0  0  0
 18 45  1  0  0  0  0
 18 46  1  0  0  0  0
 19 21  2  0  0  0  0
 19 47  1  0  0  0  0
 20 22  2  0  0  0  0
 20 48  1  0  0  0  0
 21 22  1  0  0  0  0
 21 49  1  0  0  0  0
 23 24  2  0  0  0  0
 23 25  1  0  0  0  0
 24 26  1  0  0  0  0
 25 27  2  0  0  0  0
 25 50  1  0  0  0  0
 26 28  2  0  0  0  0
 26 51  1  0  0  0  0
 27 28  1  0  0  0  0
 27 52  1  0  0  0  0
 28 29  1  0  0  0  0
 29 31  1  0  0  0  0
 30 53  1  0  0  0  0
 30 54  1  0  0  0  0
 30 55  1  0  0  0  0
 31 56  1  0  0  0  0
 31 57  1  0  0  0  0
 31 58  1  0  0  0  0
M  END
> <PUBCHEM_COMPOUND_CID>
71360

> <PUBCHEM_COMPOUND_CANONICALIZED>
1

> <PUBCHEM_CACTVS_COMPLEXITY>
586

> <PUBCHEM_CACTVS_HBOND_ACCEPTOR>
7

> <PUBCHEM_CACTVS_HBOND_DONOR>
0

> <PUBCHEM_CACTVS_ROTATABLE_BOND>
8

> <PUBCHEM_CACTVS_SUBSKEYS>
AAADceB7OQAAAAAAAAAAAAAAAAAAAWAAAAA8YIAAAAAAAFgB9AAAHwAEAAAADQzhng4yhtMQBACpA6RyQgCCCAAkIAAomCE+zNoNJrqEtZuGOaLmwBmK6ceazPDOIAABAAAIQABAAAIAABCAAAAAAAAAAA==

> <PUBCHEM_IUPAC_OPENEYE_NAME>
1-[4-[3-[4-(6-fluoro-1,2-benzoxazol-3-yl)-1-piperidyl]propoxy]-3-methoxy-phenyl]ethanone

> <PUBCHEM_IUPAC_CAS_NAME>
1-[4-[3-[4-(6-fluoro-1,2-benzoxazol-3-yl)-1-piperidinyl]propoxy]-3-methoxyphenyl]ethanone

> <PUBCHEM_IUPAC_NAME_MARKUP>
1-[4-[3-[4-(6-fluoro-1,2-benzoxazol-3-yl)piperidin-1-yl]propoxy]-3-methoxyphenyl]ethanone

> <PUBCHEM_IUPAC_NAME>
1-[4-[3-[4-(6-fluoro-1,2-benzoxazol-3-yl)piperidin-1-yl]propoxy]-3-methoxyphenyl]ethanone

> <PUBCHEM_IUPAC_SYSTEMATIC_NAME>
1-[4-[3-[4-(6-fluoranyl-1,2-benzoxazol-3-yl)piperidin-1-yl]propoxy]-3-methoxy-phenyl]ethanone

> <PUBCHEM_IUPAC_TRADITIONAL_NAME>
1-[4-[3-[4-(6-fluoroindoxazen-3-yl)piperidino]propoxy]-3-methoxy-phenyl]ethanone

> <PUBCHEM_IUPAC_INCHI>
InChI=1S/C24H27FN2O4/c1-16(28)18-4-7-21(23(14-18)29-2)30-13-3-10-27-11-8-17(9-12-27)24-20-6-5-19(25)15-22(20)31-26-24/h4-7,14-15,17H,3,8-13H2,1-2H3

> <PUBCHEM_IUPAC_INCHIKEY>
XMXHEBAFVSFQEX-UHFFFAOYSA-N

> <PUBCHEM_XLOGP3_AA>
4.1

> <PUBCHEM_EXACT_MASS>
426.19548551

> <PUBCHEM_MOLECULAR_FORMULA>
C24H27FN2O4

> <PUBCHEM_MOLECULAR_WEIGHT>
426.5

> <PUBCHEM_OPENEYE_CAN_SMILES>
CC(=O)C1=CC(=C(C=C1)OCCCN2CCC(CC2)C3=NOC4=C3C=CC(=C4)F)OC

> <PUBCHEM_OPENEYE_ISO_SMILES>
CC(=O)C1=CC(=C(C=C1)OCCCN2CCC(CC2)C3=NOC4=C3C=CC(=C4)F)OC

> <PUBCHEM_CACTVS_TPSA>
64.8

> <PUBCHEM_MONOISOTOPIC_WEIGHT>
426.19548551

> <PUBCHEM_TOTAL_CHARGE>
0

> <PUBCHEM_HEAVY_ATOM_COUNT>
31

> <PUBCHEM_ATOM_DEF_STEREO_COUNT>
0

> <PUBCHEM_ATOM_UDEF_STEREO_COUNT>
0

> <PUBCHEM_BOND_DEF_STEREO_COUNT>
0

> <PUBCHEM_BOND_UDEF_STEREO_COUNT>
0

> <PUBCHEM_ISOTOPIC_ATOM_COUNT>
0

> <PUBCHEM_COMPONENT_COUNT>
1

> <PUBCHEM_CACTVS_TAUTO_COUNT>
-1

> <PUBCHEM_COORDINATE_TYPE>
1
5
255

> <PUBCHEM_BONDANNOTATIONS>
14  16  8
16  17  8
16  19  8
17  20  8
19  21  8
2  17  8
2  7  8
20  22  8
21  22  8
23  24  8
23  25  8
24  26  8
25  27  8
26  28  8
27  28  8
7  14  8

$$$$
