21302457
  -OEChem-09292322192D

 58 62  0     1  0  0  0  0  0999 V2000
    6.2446   -5.5107    0.0000 S   0  0  0  0  0  0  0  0  0  0  0  0
    2.0000    4.6351    0.0000 F   0  0  0  0  0  0  0  0  0  0  0  0
    6.0066    2.9184    0.0000 O   0  0  0  0  0  0  0  0  0  0  0  0
    6.3498   -3.3006    0.0000 N   0  0  3  0  0  0  0  0  0  0  0  0
    5.0200   -0.5495    0.0000 N   0  0  3  0  0  0  0  0  0  0  0  0
    6.0000    4.6505    0.0000 N   0  0  0  0  0  0  0  0  0  0  0  0
    6.0408   -2.3495    0.0000 C   0  0  2  0  0  0  0  0  0  0  0  0
    5.0408   -2.3495    0.0000 C   0  0  1  0  0  0  0  0  0  0  0  0
    6.5755   -1.4555    0.0000 C   0  0  0  0  0  0  0  0  0  0  0  0
    4.5062   -1.4555    0.0000 C   0  0  0  0  0  0  0  0  0  0  0  0
    4.7318   -3.3006    0.0000 C   0  0  0  0  0  0  0  0  0  0  0  0
    5.5408   -3.8883    0.0000 C   0  0  0  0  0  0  0  0  0  0  0  0
    6.0616   -0.5495    0.0000 C   0  0  0  0  0  0  0  0  0  0  0  0
    7.2935   -3.5678    0.0000 C   0  0  0  0  0  0  0  0  0  0  0  0
    4.5167    0.3146    0.0000 C   0  0  0  0  0  0  0  0  0  0  0  0
    5.5034   -4.8684    0.0000 C   0  0  0  0  0  0  0  0  0  0  0  0
    3.8567   -3.7515    0.0000 C   0  0  0  0  0  0  0  0  0  0  0  0
    7.6753   -4.4712    0.0000 C   0  0  0  0  0  0  0  0  0  0  0  0
    7.2094   -5.3343    0.0000 C   0  0  0  0  0  0  0  0  0  0  0  0
    5.0133    1.1826    0.0000 C   0  0  0  0  0  0  0  0  0  0  0  0
    4.6123   -5.2867    0.0000 C   0  0  0  0  0  0  0  0  0  0  0  0
    3.7975   -4.7341    0.0000 C   0  0  0  0  0  0  0  0  0  0  0  0
    4.5100    2.0466    0.0000 C   0  0  0  0  0  0  0  0  0  0  0  0
    5.0066    2.9146    0.0000 C   0  0  0  0  0  0  0  0  0  0  0  0
    4.5033    3.7787    0.0000 C   0  0  0  0  0  0  0  0  0  0  0  0
    5.0000    4.6466    0.0000 C   0  0  0  0  0  0  0  0  0  0  0  0
    3.5033    3.7748    0.0000 C   0  0  0  0  0  0  0  0  0  0  0  0
    4.4966    5.5107    0.0000 C   0  0  0  0  0  0  0  0  0  0  0  0
    3.0000    4.6389    0.0000 C   0  0  0  0  0  0  0  0  0  0  0  0
    3.4966    5.5069    0.0000 C   0  0  0  0  0  0  0  0  0  0  0  0
    6.8855   -2.4449    0.0000 H   0  0  0  0  0  0  0  0  0  0  0  0
    4.1962   -2.4449    0.0000 H   0  0  0  0  0  0  0  0  0  0  0  0
    7.0453   -1.8601    0.0000 H   0  0  0  0  0  0  0  0  0  0  0  0
    7.0545   -1.0619    0.0000 H   0  0  0  0  0  0  0  0  0  0  0  0
    4.0271   -1.0619    0.0000 H   0  0  0  0  0  0  0  0  0  0  0  0
    4.0364   -1.8601    0.0000 H   0  0  0  0  0  0  0  0  0  0  0  0
    6.6453   -0.3404    0.0000 H   0  0  0  0  0  0  0  0  0  0  0  0
    5.9555    0.0614    0.0000 H   0  0  0  0  0  0  0  0  0  0  0  0
    7.9041   -3.4601    0.0000 H   0  0  0  0  0  0  0  0  0  0  0  0
    7.3249   -2.9486    0.0000 H   0  0  0  0  0  0  0  0  0  0  0  0
    4.0402    0.7113    0.0000 H   0  0  0  0  0  0  0  0  0  0  0  0
    4.0433   -0.0857    0.0000 H   0  0  0  0  0  0  0  0  0  0  0  0
    3.3372   -3.4129    0.0000 H   0  0  0  0  0  0  0  0  0  0  0  0
    8.1413   -4.8802    0.0000 H   0  0  0  0  0  0  0  0  0  0  0  0
    8.1781   -4.1084    0.0000 H   0  0  0  0  0  0  0  0  0  0  0  0
    7.1819   -5.9537    0.0000 H   0  0  0  0  0  0  0  0  0  0  0  0
    7.8070   -5.4995    0.0000 H   0  0  0  0  0  0  0  0  0  0  0  0
    5.4898    0.7859    0.0000 H   0  0  0  0  0  0  0  0  0  0  0  0
    5.4867    1.5829    0.0000 H   0  0  0  0  0  0  0  0  0  0  0  0
    4.5636   -5.9048    0.0000 H   0  0  0  0  0  0  0  0  0  0  0  0
    3.2412   -5.0079    0.0000 H   0  0  0  0  0  0  0  0  0  0  0  0
    4.0335    2.4433    0.0000 H   0  0  0  0  0  0  0  0  0  0  0  0
    4.0366    1.6463    0.0000 H   0  0  0  0  0  0  0  0  0  0  0  0
    3.1954    3.2367    0.0000 H   0  0  0  0  0  0  0  0  0  0  0  0
    4.8046    6.0488    0.0000 H   0  0  0  0  0  0  0  0  0  0  0  0
    3.1846    6.0426    0.0000 H   0  0  0  0  0  0  0  0  0  0  0  0
    6.3079    5.1886    0.0000 H   0  0  0  0  0  0  0  0  0  0  0  0
    6.3120    4.1148    0.0000 H   0  0  0  0  0  0  0  0  0  0  0  0
  1 16  1  0  0  0  0
  1 19  1  0  0  0  0
  2 29  1  0  0  0  0
  3 24  2  0  0  0  0
  4  7  1  0  0  0  0
  4 12  1  0  0  0  0
  4 14  1  0  0  0  0
  5 10  1  0  0  0  0
  5 13  1  0  0  0  0
  5 15  1  0  0  0  0
  6 26  1  0  0  0  0
  6 57  1  0  0  0  0
  6 58  1  0  0  0  0
  7  8  1  0  0  0  0
  7  9  1  0  0  0  0
  7 31  1  1  0  0  0
  8 10  1  0  0  0  0
  8 11  1  0  0  0  0
  8 32  1  1  0  0  0
  9 13  1  0  0  0  0
  9 33  1  0  0  0  0
  9 34  1  0  0  0  0
 10 35  1  0  0  0  0
 10 36  1  0  0  0  0
 11 12  2  0  0  0  0
 11 17  1  0  0  0  0
 12 16  1  0  0  0  0
 13 37  1  0  0  0  0
 13 38  1  0  0  0  0
 14 18  1  0  0  0  0
 14 39  1  0  0  0  0
 14 40  1  0  0  0  0
 15 20  1  0  0  0  0
 15 41  1  0  0  0  0
 15 42  1  0  0  0  0
 16 21  2  0  0  0  0
 17 22  2  0  0  0  0
 17 43  1  0  0  0  0
 18 19  1  0  0  0  0
 18 44  1  0  0  0  0
 18 45  1  0  0  0  0
 19 46  1  0  0  0  0
 19 47  1  0  0  0  0
 20 23  1  0  0  0  0
 20 48  1  0  0  0  0
 20 49  1  0  0  0  0
 21 22  1  0  0  0  0
 21 50  1  0  0  0  0
 22 51  1  0  0  0  0
 23 24  1  0  0  0  0
 23 52  1  0  0  0  0
 23 53  1  0  0  0  0
 24 25  1  0  0  0  0
 25 26  2  0  0  0  0
 25 27  1  0  0  0  0
 26 28  1  0  0  0  0
 27 29  2  0  0  0  0
 27 54  1  0  0  0  0
 28 30  2  0  0  0  0
 28 55  1  0  0  0  0
 29 30  1  0  0  0  0
 30 56  1  0  0  0  0
M  END
> <PUBCHEM_COMPOUND_CID>
21302457

> <PUBCHEM_COMPOUND_CANONICALIZED>
1

> <PUBCHEM_CACTVS_COMPLEXITY>
621

> <PUBCHEM_CACTVS_HBOND_ACCEPTOR>
6

> <PUBCHEM_CACTVS_HBOND_DONOR>
1

> <PUBCHEM_CACTVS_ROTATABLE_BOND>
5

> <PUBCHEM_CACTVS_SUBSKEYS>
AAADceB7IQBAAAAAAAAAAAAAAAAAAWAAAAA8YIAABYAAAFixQAAAHwQQAAAADSzF2AywwYNAAAiIAqRSQACCAAAlChAIiB0IZMgIIDrg1ZGEIYhgkADoyccciMCOgAAAgAACAQAAAAEAAAQCAAAAAAAAAA==

> <PUBCHEM_IUPAC_OPENEYE_NAME>
1-(2-amino-5-fluoro-phenyl)-4-[(11S,16R)-6-thia-10,14-diazatetracyclo[8.6.1.05,17.011,16]heptadeca-1(17),2,4-trien-14-yl]butan-1-one

> <PUBCHEM_IUPAC_CAS_NAME>
1-(2-amino-5-fluorophenyl)-4-[(11S,16R)-6-thia-10,14-diazatetracyclo[8.6.1.05,17.011,16]heptadeca-1(17),2,4-trien-14-yl]-1-butanone

> <PUBCHEM_IUPAC_NAME_MARKUP>
1-(2-amino-5-fluorophenyl)-4-[(11<I>S</I>,16<I>R</I>)-6-thia-10,14-diazatetracyclo[8.6.1.0<SUP>5,17</SUP>.0<SUP>11,16</SUP>]heptadeca-1(17),2,4-trien-14-yl]butan-1-one

> <PUBCHEM_IUPAC_NAME>
1-(2-amino-5-fluorophenyl)-4-[(11S,16R)-6-thia-10,14-diazatetracyclo[8.6.1.05,17.011,16]heptadeca-1(17),2,4-trien-14-yl]butan-1-one

> <PUBCHEM_IUPAC_SYSTEMATIC_NAME>
1-(2-azanyl-5-fluoranyl-phenyl)-4-[(11S,16R)-6-thia-10,14-diazatetracyclo[8.6.1.05,17.011,16]heptadeca-1(17),2,4-trien-14-yl]butan-1-one

> <PUBCHEM_IUPAC_TRADITIONAL_NAME>
1-(2-amino-5-fluoro-phenyl)-4-[(11S,16R)-6-thia-10,14-diazatetracyclo[8.6.1.05,17.011,16]heptadeca-1(17),2,4-trien-14-yl]butan-1-one

> <PUBCHEM_IUPAC_INCHI>
InChI=1S/C24H28FN3OS/c25-16-7-8-20(26)18(14-16)22(29)5-2-10-27-12-9-21-19(15-27)17-4-1-6-23-24(17)28(21)11-3-13-30-23/h1,4,6-8,14,19,21H,2-3,5,9-13,15,26H2/t19-,21-/m0/s1

> <PUBCHEM_IUPAC_INCHIKEY>
GMUXLQLWEFMPIT-FPOVZHCZSA-N

> <PUBCHEM_XLOGP3_AA>
4.4

> <PUBCHEM_EXACT_MASS>
425.19371186

> <PUBCHEM_MOLECULAR_FORMULA>
C24H28FN3OS

> <PUBCHEM_MOLECULAR_WEIGHT>
425.6

> <PUBCHEM_OPENEYE_CAN_SMILES>
C1CN2C3CCN(CC3C4=C2C(=CC=C4)SC1)CCCC(=O)C5=C(C=CC(=C5)F)N

> <PUBCHEM_OPENEYE_ISO_SMILES>
C1CN2[C@H]3CCN(C[C@H]3C4=C2C(=CC=C4)SC1)CCCC(=O)C5=C(C=CC(=C5)F)N

> <PUBCHEM_CACTVS_TPSA>
74.9

> <PUBCHEM_MONOISOTOPIC_WEIGHT>
425.19371186

> <PUBCHEM_TOTAL_CHARGE>
0

> <PUBCHEM_HEAVY_ATOM_COUNT>
30

> <PUBCHEM_ATOM_DEF_STEREO_COUNT>
2

> <PUBCHEM_ATOM_UDEF_STEREO_COUNT>
0

> <PUBCHEM_BOND_DEF_STEREO_COUNT>
0

> <PUBCHEM_BOND_UDEF_STEREO_COUNT>
0

> <PUBCHEM_ISOTOPIC_ATOM_COUNT>
0

> <PUBCHEM_COMPONENT_COUNT>
1

> <PUBCHEM_CACTVS_TAUTO_COUNT>
-1

> <PUBCHEM_COORDINATE_TYPE>
1
5
255

> <PUBCHEM_BONDANNOTATIONS>
11  12  8
11  17  8
12  16  8
16  21  8
17  22  8
21  22  8
25  26  8
25  27  8
26  28  8
27  29  8
28  30  8
29  30  8
7  31  5
8  32  5

$$$$
