42626243
  -OEChem-09292322362D

 57 60  0     1  0  0  0  0  0999 V2000
   14.6279   -0.1690    0.0000 Cl  0  0  0  0  0  0  0  0  0  0  0  0
   16.6279   -0.1690    0.0000 Cl  0  0  0  0  0  0  0  0  0  0  0  0
    2.0000   -0.0350    0.0000 F   0  0  0  0  0  0  0  0  0  0  0  0
   10.6279   -0.1690    0.0000 O   0  0  0  0  0  0  0  0  0  0  0  0
    7.6279   -1.9010    0.0000 O   0  0  0  0  0  0  0  0  0  0  0  0
   11.6279    1.5630    0.0000 N   0  0  0  0  0  0  0  0  0  0  0  0
   13.6279    1.5630    0.0000 N   0  0  0  0  0  0  0  0  0  0  0  0
    7.6279   -0.1690    0.0000 N   0  0  0  0  0  0  0  0  0  0  0  0
    5.5443   -1.8398    0.0000 N   0  0  0  0  0  0  0  0  0  0  0  0
   12.1279    0.6970    0.0000 C   0  0  0  0  0  0  0  0  0  0  0  0
   12.1279    2.4291    0.0000 C   0  0  0  0  0  0  0  0  0  0  0  0
   13.1279    0.6970    0.0000 C   0  0  0  0  0  0  0  0  0  0  0  0
   13.1279    2.4291    0.0000 C   0  0  0  0  0  0  0  0  0  0  0  0
   10.6279    1.5630    0.0000 C   0  0  0  0  0  0  0  0  0  0  0  0
   10.1279    0.6970    0.0000 C   0  0  3  0  0  0  0  0  0  0  0  0
    9.1279    0.6970    0.0000 C   0  0  0  0  0  0  0  0  0  0  0  0
   14.6279    1.5630    0.0000 C   0  0  0  0  0  0  0  0  0  0  0  0
    8.6279   -0.1690    0.0000 C   0  0  0  0  0  0  0  0  0  0  0  0
   15.1279    0.6970    0.0000 C   0  0  0  0  0  0  0  0  0  0  0  0
   15.1279    2.4291    0.0000 C   0  0  0  0  0  0  0  0  0  0  0  0
   16.1279    0.6970    0.0000 C   0  0  0  0  0  0  0  0  0  0  0  0
   16.1279    2.4291    0.0000 C   0  0  0  0  0  0  0  0  0  0  0  0
    7.1279   -1.0350    0.0000 C   0  0  0  0  0  0  0  0  0  0  0  0
   16.6279    1.5630    0.0000 C   0  0  0  0  0  0  0  0  0  0  0  0
    6.1279   -1.0350    0.0000 C   0  0  0  0  0  0  0  0  0  0  0  0
    4.5981   -1.5350    0.0000 C   0  0  0  0  0  0  0  0  0  0  0  0
    4.5981   -0.5350    0.0000 C   0  0  0  0  0  0  0  0  0  0  0  0
    5.5443   -0.2303    0.0000 C   0  0  0  0  0  0  0  0  0  0  0  0
    3.7320   -0.0350    0.0000 C   0  0  0  0  0  0  0  0  0  0  0  0
    3.7320   -2.0350    0.0000 C   0  0  0  0  0  0  0  0  0  0  0  0
    2.8660   -0.5350    0.0000 C   0  0  0  0  0  0  0  0  0  0  0  0
    2.8660   -1.5350    0.0000 C   0  0  0  0  0  0  0  0  0  0  0  0
   11.5453    0.4850    0.0000 H   0  0  0  0  0  0  0  0  0  0  0  0
   12.2356    0.0864    0.0000 H   0  0  0  0  0  0  0  0  0  0  0  0
   12.2356    3.0397    0.0000 H   0  0  0  0  0  0  0  0  0  0  0  0
   11.5453    2.6411    0.0000 H   0  0  0  0  0  0  0  0  0  0  0  0
   13.0202    0.0864    0.0000 H   0  0  0  0  0  0  0  0  0  0  0  0
   13.7105    0.4850    0.0000 H   0  0  0  0  0  0  0  0  0  0  0  0
   13.7105    2.6411    0.0000 H   0  0  0  0  0  0  0  0  0  0  0  0
   13.0202    3.0397    0.0000 H   0  0  0  0  0  0  0  0  0  0  0  0
   10.7356    2.1736    0.0000 H   0  0  0  0  0  0  0  0  0  0  0  0
   10.0453    1.7751    0.0000 H   0  0  0  0  0  0  0  0  0  0  0  0
   10.7479    0.6970    0.0000 H   0  0  0  0  0  0  0  0  0  0  0  0
    9.2356    1.3076    0.0000 H   0  0  0  0  0  0  0  0  0  0  0  0
    8.5453    0.9091    0.0000 H   0  0  0  0  0  0  0  0  0  0  0  0
    8.5202   -0.7796    0.0000 H   0  0  0  0  0  0  0  0  0  0  0  0
    9.2105   -0.3810    0.0000 H   0  0  0  0  0  0  0  0  0  0  0  0
   10.3179   -0.7059    0.0000 H   0  0  0  0  0  0  0  0  0  0  0  0
   14.8179    2.9660    0.0000 H   0  0  0  0  0  0  0  0  0  0  0  0
    7.3179    0.3679    0.0000 H   0  0  0  0  0  0  0  0  0  0  0  0
   16.4379    2.9660    0.0000 H   0  0  0  0  0  0  0  0  0  0  0  0
   17.2479    1.5630    0.0000 H   0  0  0  0  0  0  0  0  0  0  0  0
    5.7369   -2.4291    0.0000 H   0  0  0  0  0  0  0  0  0  0  0  0
    5.7369    0.3590    0.0000 H   0  0  0  0  0  0  0  0  0  0  0  0
    3.7320    0.5850    0.0000 H   0  0  0  0  0  0  0  0  0  0  0  0
    3.7320   -2.6550    0.0000 H   0  0  0  0  0  0  0  0  0  0  0  0
    2.3291   -1.8450    0.0000 H   0  0  0  0  0  0  0  0  0  0  0  0
  1 19  1  0  0  0  0
  2 21  1  0  0  0  0
  3 31  1  0  0  0  0
  4 15  1  0  0  0  0
  4 48  1  0  0  0  0
  5 23  2  0  0  0  0
  6 10  1  0  0  0  0
  6 11  1  0  0  0  0
  6 14  1  0  0  0  0
  7 12  1  0  0  0  0
  7 13  1  0  0  0  0
  7 17  1  0  0  0  0
  8 18  1  0  0  0  0
  8 23  1  0  0  0  0
  8 50  1  0  0  0  0
  9 25  1  0  0  0  0
  9 26  1  0  0  0  0
  9 53  1  0  0  0  0
 10 12  1  0  0  0  0
 10 33  1  0  0  0  0
 10 34  1  0  0  0  0
 11 13  1  0  0  0  0
 11 35  1  0  0  0  0
 11 36  1  0  0  0  0
 12 37  1  0  0  0  0
 12 38  1  0  0  0  0
 13 39  1  0  0  0  0
 13 40  1  0  0  0  0
 14 15  1  0  0  0  0
 14 41  1  0  0  0  0
 14 42  1  0  0  0  0
 15 16  1  0  0  0  0
 15 43  1  0  0  0  0
 16 18  1  0  0  0  0
 16 44  1  0  0  0  0
 16 45  1  0  0  0  0
 17 19  2  0  0  0  0
 17 20  1  0  0  0  0
 18 46  1  0  0  0  0
 18 47  1  0  0  0  0
 19 21  1  0  0  0  0
 20 22  2  0  0  0  0
 20 49  1  0  0  0  0
 21 24  2  0  0  0  0
 22 24  1  0  0  0  0
 22 51  1  0  0  0  0
 23 25  1  0  0  0  0
 24 52  1  0  0  0  0
 25 28  2  0  0  0  0
 26 27  2  0  0  0  0
 26 30  1  0  0  0  0
 27 28  1  0  0  0  0
 27 29  1  0  0  0  0
 28 54  1  0  0  0  0
 29 31  2  0  0  0  0
 29 55  1  0  0  0  0
 30 32  2  0  0  0  0
 30 56  1  0  0  0  0
 31 32  1  0  0  0  0
 32 57  1  0  0  0  0
M  END
> <PUBCHEM_COMPOUND_CID>
42626243

> <PUBCHEM_COMPOUND_CANONICALIZED>
1

> <PUBCHEM_CACTVS_COMPLEXITY>
625

> <PUBCHEM_CACTVS_HBOND_ACCEPTOR>
5

> <PUBCHEM_CACTVS_HBOND_DONOR>
3

> <PUBCHEM_CACTVS_ROTATABLE_BOND>
7

> <PUBCHEM_CACTVS_SUBSKEYS>
AAADceB7sQAGAAAAAAAAAAAAAAAAAWAAAAA8YIAAAAAAAFgB9AAAHwIQCAAADB7hni4wwPPJkgCoAyVyVACCgCAnByAIm+G4ZtgKcPLBl7HUYQhilgDYyYcYiYCeAAAAAAICABQAAAAABAQAKAAAAAAAAA==

> <PUBCHEM_IUPAC_OPENEYE_NAME>
N-[4-[4-(2,3-dichlorophenyl)piperazin-1-yl]-3-hydroxy-butyl]-5-fluoro-1H-indole-2-carboxamide

> <PUBCHEM_IUPAC_CAS_NAME>
N-[4-[4-(2,3-dichlorophenyl)-1-piperazinyl]-3-hydroxybutyl]-5-fluoro-1H-indole-2-carboxamide

> <PUBCHEM_IUPAC_NAME_MARKUP>
<I>N</I>-[4-[4-(2,3-dichlorophenyl)piperazin-1-yl]-3-hydroxybutyl]-5-fluoro-1<I>H</I>-indole-2-carboxamide

> <PUBCHEM_IUPAC_NAME>
N-[4-[4-(2,3-dichlorophenyl)piperazin-1-yl]-3-hydroxybutyl]-5-fluoro-1H-indole-2-carboxamide

> <PUBCHEM_IUPAC_SYSTEMATIC_NAME>
N-[4-[4-[2,3-bis(chloranyl)phenyl]piperazin-1-yl]-3-oxidanyl-butyl]-5-fluoranyl-1H-indole-2-carboxamide

> <PUBCHEM_IUPAC_TRADITIONAL_NAME>
N-[4-[4-(2,3-dichlorophenyl)piperazino]-3-hydroxy-butyl]-5-fluoro-1H-indole-2-carboxamide

> <PUBCHEM_IUPAC_INCHI>
InChI=1S/C23H25Cl2FN4O2/c24-18-2-1-3-21(22(18)25)30-10-8-29(9-11-30)14-17(31)6-7-27-23(32)20-13-15-12-16(26)4-5-19(15)28-20/h1-5,12-13,17,28,31H,6-11,14H2,(H,27,32)

> <PUBCHEM_IUPAC_INCHIKEY>
DISKLDRQYHVOPT-UHFFFAOYSA-N

> <PUBCHEM_XLOGP3_AA>
4.4

> <PUBCHEM_EXACT_MASS>
478.1338596

> <PUBCHEM_MOLECULAR_FORMULA>
C23H25Cl2FN4O2

> <PUBCHEM_MOLECULAR_WEIGHT>
479.4

> <PUBCHEM_OPENEYE_CAN_SMILES>
C1CN(CCN1CC(CCNC(=O)C2=CC3=C(N2)C=CC(=C3)F)O)C4=C(C(=CC=C4)Cl)Cl

> <PUBCHEM_OPENEYE_ISO_SMILES>
C1CN(CCN1CC(CCNC(=O)C2=CC3=C(N2)C=CC(=C3)F)O)C4=C(C(=CC=C4)Cl)Cl

> <PUBCHEM_CACTVS_TPSA>
71.6

> <PUBCHEM_MONOISOTOPIC_WEIGHT>
478.1338596

> <PUBCHEM_TOTAL_CHARGE>
0

> <PUBCHEM_HEAVY_ATOM_COUNT>
32

> <PUBCHEM_ATOM_DEF_STEREO_COUNT>
0

> <PUBCHEM_ATOM_UDEF_STEREO_COUNT>
1

> <PUBCHEM_BOND_DEF_STEREO_COUNT>
0

> <PUBCHEM_BOND_UDEF_STEREO_COUNT>
0

> <PUBCHEM_ISOTOPIC_ATOM_COUNT>
0

> <PUBCHEM_COMPONENT_COUNT>
1

> <PUBCHEM_CACTVS_TAUTO_COUNT>
-1

> <PUBCHEM_COORDINATE_TYPE>
1
5
255

> <PUBCHEM_BONDANNOTATIONS>
17  19  8
17  20  8
19  21  8
20  22  8
21  24  8
22  24  8
25  28  8
26  27  8
26  30  8
27  28  8
27  29  8
29  31  8
30  32  8
31  32  8
15  4  3
9  25  8
9  26  8

$$$$
