90645289
  -OEChem-09292321592D

 65 68  0     0  0  0  0  0  0999 V2000
   12.1279   -3.7064    0.0000 Cl  0  0  0  0  0  0  0  0  0  0  0  0
   13.1279   -5.4385    0.0000 Cl  0  0  0  0  0  0  0  0  0  0  0  0
    5.5443    2.4170    0.0000 S   0  0  0  0  0  0  0  0  0  0  0  0
    7.6279    4.0878    0.0000 O   0  0  0  0  0  0  0  0  0  0  0  0
   12.1279   -0.2423    0.0000 N   0  0  0  0  0  0  0  0  0  0  0  0
   13.1279   -1.9744    0.0000 N   0  0  0  0  0  0  0  0  0  0  0  0
    7.6279    2.3557    0.0000 N   0  0  0  0  0  0  0  0  0  0  0  0
    3.7320    2.2218    0.0000 N   0  0  0  0  0  0  0  0  0  0  0  0
    5.8550    4.9770    0.0000 N   0  0  0  0  0  0  0  0  0  0  0  0
   13.1279   -0.2423    0.0000 C   0  0  0  0  0  0  0  0  0  0  0  0
   11.6279   -1.1084    0.0000 C   0  0  0  0  0  0  0  0  0  0  0  0
   13.6279   -1.1084    0.0000 C   0  0  0  0  0  0  0  0  0  0  0  0
   12.1279   -1.9744    0.0000 C   0  0  0  0  0  0  0  0  0  0  0  0
   11.6279    0.6237    0.0000 C   0  0  0  0  0  0  0  0  0  0  0  0
   10.6279    0.6237    0.0000 C   0  0  0  0  0  0  0  0  0  0  0  0
   10.1279    1.4897    0.0000 C   0  0  0  0  0  0  0  0  0  0  0  0
   13.6279   -2.8404    0.0000 C   0  0  0  0  0  0  0  0  0  0  0  0
    9.1279    1.4897    0.0000 C   0  0  0  0  0  0  0  0  0  0  0  0
    8.6279    2.3557    0.0000 C   0  0  0  0  0  0  0  0  0  0  0  0
   13.1279   -3.7064    0.0000 C   0  0  0  0  0  0  0  0  0  0  0  0
   14.6279   -2.8404    0.0000 C   0  0  0  0  0  0  0  0  0  0  0  0
   13.6279   -4.5725    0.0000 C   0  0  0  0  0  0  0  0  0  0  0  0
   15.1279   -3.7064    0.0000 C   0  0  0  0  0  0  0  0  0  0  0  0
   14.6279   -4.5725    0.0000 C   0  0  0  0  0  0  0  0  0  0  0  0
    7.1279    3.2218    0.0000 C   0  0  0  0  0  0  0  0  0  0  0  0
    6.1279    3.2218    0.0000 C   0  0  0  0  0  0  0  0  0  0  0  0
    4.5981    3.7218    0.0000 C   0  0  0  0  0  0  0  0  0  0  0  0
    5.5443    4.0265    0.0000 C   0  0  0  0  0  0  0  0  0  0  0  0
    4.5981    2.7218    0.0000 C   0  0  0  0  0  0  0  0  0  0  0  0
    3.7320    4.2218    0.0000 C   0  0  0  0  0  0  0  0  0  0  0  0
    2.8660    3.7218    0.0000 C   0  0  0  0  0  0  0  0  0  0  0  0
    2.8660    2.7218    0.0000 C   0  0  0  0  0  0  0  0  0  0  0  0
    3.7320    5.2218    0.0000 C   0  0  0  0  0  0  0  0  0  0  0  0
    2.0000    2.2218    0.0000 C   0  0  0  0  0  0  0  0  0  0  0  0
   13.7105   -0.0303    0.0000 H   0  0  0  0  0  0  0  0  0  0  0  0
   13.0202    0.3682    0.0000 H   0  0  0  0  0  0  0  0  0  0  0  0
   11.1530   -0.7098    0.0000 H   0  0  0  0  0  0  0  0  0  0  0  0
   11.1530   -1.5069    0.0000 H   0  0  0  0  0  0  0  0  0  0  0  0
   14.1029   -1.5069    0.0000 H   0  0  0  0  0  0  0  0  0  0  0  0
   14.1029   -0.7098    0.0000 H   0  0  0  0  0  0  0  0  0  0  0  0
   11.5453   -2.1864    0.0000 H   0  0  0  0  0  0  0  0  0  0  0  0
   12.2356   -2.5850    0.0000 H   0  0  0  0  0  0  0  0  0  0  0  0
   12.2105    0.8357    0.0000 H   0  0  0  0  0  0  0  0  0  0  0  0
   11.5202    1.2343    0.0000 H   0  0  0  0  0  0  0  0  0  0  0  0
   10.0453    0.4116    0.0000 H   0  0  0  0  0  0  0  0  0  0  0  0
   10.7356    0.0131    0.0000 H   0  0  0  0  0  0  0  0  0  0  0  0
   10.7105    1.7018    0.0000 H   0  0  0  0  0  0  0  0  0  0  0  0
   10.0202    2.1003    0.0000 H   0  0  0  0  0  0  0  0  0  0  0  0
    8.5453    1.2777    0.0000 H   0  0  0  0  0  0  0  0  0  0  0  0
    9.2356    0.8791    0.0000 H   0  0  0  0  0  0  0  0  0  0  0  0
    9.2105    2.5678    0.0000 H   0  0  0  0  0  0  0  0  0  0  0  0
    8.5202    2.9663    0.0000 H   0  0  0  0  0  0  0  0  0  0  0  0
   14.9379   -2.3035    0.0000 H   0  0  0  0  0  0  0  0  0  0  0  0
    7.3179    1.8188    0.0000 H   0  0  0  0  0  0  0  0  0  0  0  0
   15.7479   -3.7064    0.0000 H   0  0  0  0  0  0  0  0  0  0  0  0
   14.9379   -5.1094    0.0000 H   0  0  0  0  0  0  0  0  0  0  0  0
    2.3291    4.0318    0.0000 H   0  0  0  0  0  0  0  0  0  0  0  0
    4.3520    5.2218    0.0000 H   0  0  0  0  0  0  0  0  0  0  0  0
    3.7320    5.8418    0.0000 H   0  0  0  0  0  0  0  0  0  0  0  0
    3.1120    5.2218    0.0000 H   0  0  0  0  0  0  0  0  0  0  0  0
    6.4616    5.1049    0.0000 H   0  0  0  0  0  0  0  0  0  0  0  0
    5.4409    5.4385    0.0000 H   0  0  0  0  0  0  0  0  0  0  0  0
    1.6900    2.7587    0.0000 H   0  0  0  0  0  0  0  0  0  0  0  0
    1.4631    1.9118    0.0000 H   0  0  0  0  0  0  0  0  0  0  0  0
    2.3100    1.6848    0.0000 H   0  0  0  0  0  0  0  0  0  0  0  0
  1 20  1  0  0  0  0
  2 22  1  0  0  0  0
  3 26  1  0  0  0  0
  3 29  1  0  0  0  0
  4 25  2  0  0  0  0
  5 10  1  0  0  0  0
  5 11  1  0  0  0  0
  5 14  1  0  0  0  0
  6 12  1  0  0  0  0
  6 13  1  0  0  0  0
  6 17  1  0  0  0  0
  7 19  1  0  0  0  0
  7 25  1  0  0  0  0
  7 54  1  0  0  0  0
  8 29  1  0  0  0  0
  8 32  2  0  0  0  0
  9 28  1  0  0  0  0
  9 61  1  0  0  0  0
  9 62  1  0  0  0  0
 10 12  1  0  0  0  0
 10 35  1  0  0  0  0
 10 36  1  0  0  0  0
 11 13  1  0  0  0  0
 11 37  1  0  0  0  0
 11 38  1  0  0  0  0
 12 39  1  0  0  0  0
 12 40  1  0  0  0  0
 13 41  1  0  0  0  0
 13 42  1  0  0  0  0
 14 15  1  0  0  0  0
 14 43  1  0  0  0  0
 14 44  1  0  0  0  0
 15 16  1  0  0  0  0
 15 45  1  0  0  0  0
 15 46  1  0  0  0  0
 16 18  1  0  0  0  0
 16 47  1  0  0  0  0
 16 48  1  0  0  0  0
 17 20  2  0  0  0  0
 17 21  1  0  0  0  0
 18 19  1  0  0  0  0
 18 49  1  0  0  0  0
 18 50  1  0  0  0  0
 19 51  1  0  0  0  0
 19 52  1  0  0  0  0
 20 22  1  0  0  0  0
 21 23  2  0  0  0  0
 21 53  1  0  0  0  0
 22 24  2  0  0  0  0
 23 24  1  0  0  0  0
 23 55  1  0  0  0  0
 24 56  1  0  0  0  0
 25 26  1  0  0  0  0
 26 28  2  0  0  0  0
 27 28  1  0  0  0  0
 27 29  2  0  0  0  0
 27 30  1  0  0  0  0
 30 31  2  0  0  0  0
 30 33  1  0  0  0  0
 31 32  1  0  0  0  0
 31 57  1  0  0  0  0
 32 34  1  0  0  0  0
 33 58  1  0  0  0  0
 33 59  1  0  0  0  0
 33 60  1  0  0  0  0
 34 63  1  0  0  0  0
 34 64  1  0  0  0  0
 34 65  1  0  0  0  0
M  END
> <PUBCHEM_COMPOUND_CID>
90645289

> <PUBCHEM_COMPOUND_CANONICALIZED>
1

> <PUBCHEM_CACTVS_COMPLEXITY>
667

> <PUBCHEM_CACTVS_HBOND_ACCEPTOR>
6

> <PUBCHEM_CACTVS_HBOND_DONOR>
2

> <PUBCHEM_CACTVS_ROTATABLE_BOND>
8

> <PUBCHEM_CACTVS_SUBSKEYS>
AAADceB7oABGAAAAAAAAAAAAAAAAASAAAAA8WIAAAAAAAFgB/AAAHgYQAAAADArB3iQywdPIEAisAyVyVACD0KBlDzgImvU4ZtgIYHrh19HUJYxglgDoyUcYiYCOgAAAAAIAABQAAAAABAAAKAAAAAAAAA==

> <PUBCHEM_IUPAC_OPENEYE_NAME>
3-amino-N-[5-[4-(2,3-dichlorophenyl)piperazin-1-yl]pentyl]-4,6-dimethyl-thieno[2,3-b]pyridine-2-carboxamide

> <PUBCHEM_IUPAC_CAS_NAME>
3-amino-N-[5-[4-(2,3-dichlorophenyl)-1-piperazinyl]pentyl]-4,6-dimethyl-2-thieno[2,3-b]pyridinecarboxamide

> <PUBCHEM_IUPAC_NAME_MARKUP>
3-amino-<I>N</I>-[5-[4-(2,3-dichlorophenyl)piperazin-1-yl]pentyl]-4,6-dimethylthieno[2,3-b]pyridine-2-carboxamide

> <PUBCHEM_IUPAC_NAME>
3-amino-N-[5-[4-(2,3-dichlorophenyl)piperazin-1-yl]pentyl]-4,6-dimethylthieno[2,3-b]pyridine-2-carboxamide

> <PUBCHEM_IUPAC_SYSTEMATIC_NAME>
3-azanyl-N-[5-[4-[2,3-bis(chloranyl)phenyl]piperazin-1-yl]pentyl]-4,6-dimethyl-thieno[2,3-b]pyridine-2-carboxamide

> <PUBCHEM_IUPAC_TRADITIONAL_NAME>
3-amino-N-[5-[4-(2,3-dichlorophenyl)piperazino]pentyl]-4,6-dimethyl-thieno[2,3-b]pyridine-2-carboxamide

> <PUBCHEM_IUPAC_INCHI>
InChI=1S/C25H31Cl2N5OS/c1-16-15-17(2)30-25-20(16)22(28)23(34-25)24(33)29-9-4-3-5-10-31-11-13-32(14-12-31)19-8-6-7-18(26)21(19)27/h6-8,15H,3-5,9-14,28H2,1-2H3,(H,29,33)

> <PUBCHEM_IUPAC_INCHIKEY>
YEDOJNFKHXVFHD-UHFFFAOYSA-N

> <PUBCHEM_XLOGP3_AA>
6.4

> <PUBCHEM_EXACT_MASS>
519.1626372

> <PUBCHEM_MOLECULAR_FORMULA>
C25H31Cl2N5OS

> <PUBCHEM_MOLECULAR_WEIGHT>
520.5

> <PUBCHEM_OPENEYE_CAN_SMILES>
CC1=CC(=NC2=C1C(=C(S2)C(=O)NCCCCCN3CCN(CC3)C4=C(C(=CC=C4)Cl)Cl)N)C

> <PUBCHEM_OPENEYE_ISO_SMILES>
CC1=CC(=NC2=C1C(=C(S2)C(=O)NCCCCCN3CCN(CC3)C4=C(C(=CC=C4)Cl)Cl)N)C

> <PUBCHEM_CACTVS_TPSA>
103

> <PUBCHEM_MONOISOTOPIC_WEIGHT>
519.1626372

> <PUBCHEM_TOTAL_CHARGE>
0

> <PUBCHEM_HEAVY_ATOM_COUNT>
34

> <PUBCHEM_ATOM_DEF_STEREO_COUNT>
0

> <PUBCHEM_ATOM_UDEF_STEREO_COUNT>
0

> <PUBCHEM_BOND_DEF_STEREO_COUNT>
0

> <PUBCHEM_BOND_UDEF_STEREO_COUNT>
0

> <PUBCHEM_ISOTOPIC_ATOM_COUNT>
0

> <PUBCHEM_COMPONENT_COUNT>
1

> <PUBCHEM_CACTVS_TAUTO_COUNT>
-1

> <PUBCHEM_COORDINATE_TYPE>
1
5
255

> <PUBCHEM_BONDANNOTATIONS>
17  20  8
17  21  8
20  22  8
21  23  8
22  24  8
23  24  8
26  28  8
27  28  8
27  29  8
27  30  8
3  26  8
3  29  8
30  31  8
31  32  8
8  29  8
8  32  8

$$$$
