118719793
  -OEChem-09292322362D

 61 64  0     0  0  0  0  0  0999 V2000
    2.8660   -4.7215    0.0000 O   0  0  0  0  0  0  0  0  0  0  0  0
    4.5981   -1.7215    0.0000 N   0  0  0  0  0  0  0  0  0  0  0  0
    4.5981   -3.7215    0.0000 N   0  0  0  0  0  0  0  0  0  0  0  0
    8.2788    3.9809    0.0000 N   0  0  0  0  0  0  0  0  0  0  0  0
    8.1097    2.3717    0.0000 N   0  0  0  0  0  0  0  0  0  0  0  0
    8.7788    3.1149    0.0000 N   0  0  0  0  0  0  0  0  0  0  0  0
    5.4641   -2.2215    0.0000 C   0  0  0  0  0  0  0  0  0  0  0  0
    3.7320   -2.2215    0.0000 C   0  0  0  0  0  0  0  0  0  0  0  0
    5.4641   -3.2215    0.0000 C   0  0  0  0  0  0  0  0  0  0  0  0
    3.7320   -3.2215    0.0000 C   0  0  0  0  0  0  0  0  0  0  0  0
    4.5981   -0.7215    0.0000 C   0  0  0  0  0  0  0  0  0  0  0  0
    5.4641   -0.2215    0.0000 C   0  0  0  0  0  0  0  0  0  0  0  0
    5.4641    0.7785    0.0000 C   0  0  0  0  0  0  0  0  0  0  0  0
    4.5981   -4.7215    0.0000 C   0  0  0  0  0  0  0  0  0  0  0  0
    6.3301    1.2785    0.0000 C   0  0  0  0  0  0  0  0  0  0  0  0
    6.3301    2.2785    0.0000 C   0  0  0  0  0  0  0  0  0  0  0  0
    3.7320   -5.2215    0.0000 C   0  0  0  0  0  0  0  0  0  0  0  0
    5.4641   -5.2215    0.0000 C   0  0  0  0  0  0  0  0  0  0  0  0
    7.1962    2.7785    0.0000 C   0  0  0  0  0  0  0  0  0  0  0  0
    3.7320   -6.2215    0.0000 C   0  0  0  0  0  0  0  0  0  0  0  0
    5.4641   -6.2215    0.0000 C   0  0  0  0  0  0  0  0  0  0  0  0
    4.5981   -6.7215    0.0000 C   0  0  0  0  0  0  0  0  0  0  0  0
    7.3007    3.7730    0.0000 C   0  0  0  0  0  0  0  0  0  0  0  0
    2.0000   -5.2215    0.0000 C   0  0  0  0  0  0  0  0  0  0  0  0
    8.6856    4.8944    0.0000 C   0  0  0  0  0  0  0  0  0  0  0  0
    8.0978    5.7035    0.0000 C   0  0  0  0  0  0  0  0  0  0  0  0
    9.6801    4.9990    0.0000 C   0  0  0  0  0  0  0  0  0  0  0  0
    8.5045    6.6170    0.0000 C   0  0  0  0  0  0  0  0  0  0  0  0
   10.0868    5.9125    0.0000 C   0  0  0  0  0  0  0  0  0  0  0  0
    9.4990    6.7215    0.0000 C   0  0  0  0  0  0  0  0  0  0  0  0
    6.0747   -2.3292    0.0000 H   0  0  0  0  0  0  0  0  0  0  0  0
    5.6762   -1.6389    0.0000 H   0  0  0  0  0  0  0  0  0  0  0  0
    3.5200   -1.6389    0.0000 H   0  0  0  0  0  0  0  0  0  0  0  0
    3.1215   -2.3292    0.0000 H   0  0  0  0  0  0  0  0  0  0  0  0
    5.6762   -3.8041    0.0000 H   0  0  0  0  0  0  0  0  0  0  0  0
    6.0747   -3.1139    0.0000 H   0  0  0  0  0  0  0  0  0  0  0  0
    3.1215   -3.1139    0.0000 H   0  0  0  0  0  0  0  0  0  0  0  0
    3.5200   -3.8041    0.0000 H   0  0  0  0  0  0  0  0  0  0  0  0
    4.3860   -0.1389    0.0000 H   0  0  0  0  0  0  0  0  0  0  0  0
    3.9875   -0.8292    0.0000 H   0  0  0  0  0  0  0  0  0  0  0  0
    5.6762   -0.8041    0.0000 H   0  0  0  0  0  0  0  0  0  0  0  0
    6.0747   -0.1139    0.0000 H   0  0  0  0  0  0  0  0  0  0  0  0
    5.2520    1.3611    0.0000 H   0  0  0  0  0  0  0  0  0  0  0  0
    4.8535    0.6708    0.0000 H   0  0  0  0  0  0  0  0  0  0  0  0
    6.5422    0.6959    0.0000 H   0  0  0  0  0  0  0  0  0  0  0  0
    6.9407    1.3861    0.0000 H   0  0  0  0  0  0  0  0  0  0  0  0
    6.1181    2.8611    0.0000 H   0  0  0  0  0  0  0  0  0  0  0  0
    5.7196    2.1708    0.0000 H   0  0  0  0  0  0  0  0  0  0  0  0
    6.0010   -4.9115    0.0000 H   0  0  0  0  0  0  0  0  0  0  0  0
    3.1951   -6.5315    0.0000 H   0  0  0  0  0  0  0  0  0  0  0  0
    6.0010   -6.5315    0.0000 H   0  0  0  0  0  0  0  0  0  0  0  0
    4.5981   -7.3415    0.0000 H   0  0  0  0  0  0  0  0  0  0  0  0
    6.8399    4.1878    0.0000 H   0  0  0  0  0  0  0  0  0  0  0  0
    1.6900   -4.6846    0.0000 H   0  0  0  0  0  0  0  0  0  0  0  0
    1.4631   -5.5315    0.0000 H   0  0  0  0  0  0  0  0  0  0  0  0
    2.3100   -5.7585    0.0000 H   0  0  0  0  0  0  0  0  0  0  0  0
    7.4812    5.6386    0.0000 H   0  0  0  0  0  0  0  0  0  0  0  0
   10.0445    4.4974    0.0000 H   0  0  0  0  0  0  0  0  0  0  0  0
    8.1401    7.1186    0.0000 H   0  0  0  0  0  0  0  0  0  0  0  0
   10.7034    5.9773    0.0000 H   0  0  0  0  0  0  0  0  0  0  0  0
    9.7512    7.2879    0.0000 H   0  0  0  0  0  0  0  0  0  0  0  0
  1 17  1  0  0  0  0
  1 24  1  0  0  0  0
  2  7  1  0  0  0  0
  2  8  1  0  0  0  0
  2 11  1  0  0  0  0
  3  9  1  0  0  0  0
  3 10  1  0  0  0  0
  3 14  1  0  0  0  0
  4  6  1  0  0  0  0
  4 23  1  0  0  0  0
  4 25  1  0  0  0  0
  5  6  2  0  0  0  0
  5 19  1  0  0  0  0
  7  9  1  0  0  0  0
  7 31  1  0  0  0  0
  7 32  1  0  0  0  0
  8 10  1  0  0  0  0
  8 33  1  0  0  0  0
  8 34  1  0  0  0  0
  9 35  1  0  0  0  0
  9 36  1  0  0  0  0
 10 37  1  0  0  0  0
 10 38  1  0  0  0  0
 11 12  1  0  0  0  0
 11 39  1  0  0  0  0
 11 40  1  0  0  0  0
 12 13  1  0  0  0  0
 12 41  1  0  0  0  0
 12 42  1  0  0  0  0
 13 15  1  0  0  0  0
 13 43  1  0  0  0  0
 13 44  1  0  0  0  0
 14 17  1  0  0  0  0
 14 18  2  0  0  0  0
 15 16  1  0  0  0  0
 15 45  1  0  0  0  0
 15 46  1  0  0  0  0
 16 19  1  0  0  0  0
 16 47  1  0  0  0  0
 16 48  1  0  0  0  0
 17 20  2  0  0  0  0
 18 21  1  0  0  0  0
 18 49  1  0  0  0  0
 19 23  2  0  0  0  0
 20 22  1  0  0  0  0
 20 50  1  0  0  0  0
 21 22  2  0  0  0  0
 21 51  1  0  0  0  0
 22 52  1  0  0  0  0
 23 53  1  0  0  0  0
 24 54  1  0  0  0  0
 24 55  1  0  0  0  0
 24 56  1  0  0  0  0
 25 26  2  0  0  0  0
 25 27  1  0  0  0  0
 26 28  1  0  0  0  0
 26 57  1  0  0  0  0
 27 29  2  0  0  0  0
 27 58  1  0  0  0  0
 28 30  2  0  0  0  0
 28 59  1  0  0  0  0
 29 30  1  0  0  0  0
 29 60  1  0  0  0  0
 30 61  1  0  0  0  0
M  END
> <PUBCHEM_COMPOUND_CID>
118719793

> <PUBCHEM_COMPOUND_CANONICALIZED>
1

> <PUBCHEM_CACTVS_COMPLEXITY>
478

> <PUBCHEM_CACTVS_HBOND_ACCEPTOR>
5

> <PUBCHEM_CACTVS_HBOND_DONOR>
0

> <PUBCHEM_CACTVS_ROTATABLE_BOND>
9

> <PUBCHEM_CACTVS_SUBSKEYS>
AAADceB7oAAAAAAAAAAAAAAAAAAAAWAAAAA8YIAAAAAAAAAB0AAAHgAIAAAACAzBlgY+xpMIBACiATRnRACCDCQxsgAYmAA/fIgOZmLEsZuVMChkwBHY6AeQwAAAAAAAAAAAEAAAAAAAAAAgAAAAAAAAAA==

> <PUBCHEM_IUPAC_OPENEYE_NAME>
1-(2-methoxyphenyl)-4-[5-(1-phenyltriazol-4-yl)pentyl]piperazine

> <PUBCHEM_IUPAC_CAS_NAME>
1-(2-methoxyphenyl)-4-[5-(1-phenyl-4-triazolyl)pentyl]piperazine

> <PUBCHEM_IUPAC_NAME_MARKUP>
1-(2-methoxyphenyl)-4-[5-(1-phenyltriazol-4-yl)pentyl]piperazine

> <PUBCHEM_IUPAC_NAME>
1-(2-methoxyphenyl)-4-[5-(1-phenyltriazol-4-yl)pentyl]piperazine

> <PUBCHEM_IUPAC_SYSTEMATIC_NAME>
1-(2-methoxyphenyl)-4-[5-(1-phenyl-1,2,3-triazol-4-yl)pentyl]piperazine

> <PUBCHEM_IUPAC_TRADITIONAL_NAME>
1-(2-methoxyphenyl)-4-[5-(1-phenyltriazol-4-yl)pentyl]piperazine

> <PUBCHEM_IUPAC_INCHI>
InChI=1S/C24H31N5O/c1-30-24-14-8-7-13-23(24)28-18-16-27(17-19-28)15-9-3-4-10-21-20-29(26-25-21)22-11-5-2-6-12-22/h2,5-8,11-14,20H,3-4,9-10,15-19H2,1H3

> <PUBCHEM_IUPAC_INCHIKEY>
UWNBKMQSNLLWQV-UHFFFAOYSA-N

> <PUBCHEM_XLOGP3_AA>
4.3

> <PUBCHEM_EXACT_MASS>
405.25286063

> <PUBCHEM_MOLECULAR_FORMULA>
C24H31N5O

> <PUBCHEM_MOLECULAR_WEIGHT>
405.5

> <PUBCHEM_OPENEYE_CAN_SMILES>
COC1=CC=CC=C1N2CCN(CC2)CCCCCC3=CN(N=N3)C4=CC=CC=C4

> <PUBCHEM_OPENEYE_ISO_SMILES>
COC1=CC=CC=C1N2CCN(CC2)CCCCCC3=CN(N=N3)C4=CC=CC=C4

> <PUBCHEM_CACTVS_TPSA>
46.4

> <PUBCHEM_MONOISOTOPIC_WEIGHT>
405.25286063

> <PUBCHEM_TOTAL_CHARGE>
0

> <PUBCHEM_HEAVY_ATOM_COUNT>
30

> <PUBCHEM_ATOM_DEF_STEREO_COUNT>
0

> <PUBCHEM_ATOM_UDEF_STEREO_COUNT>
0

> <PUBCHEM_BOND_DEF_STEREO_COUNT>
0

> <PUBCHEM_BOND_UDEF_STEREO_COUNT>
0

> <PUBCHEM_ISOTOPIC_ATOM_COUNT>
0

> <PUBCHEM_COMPONENT_COUNT>
1

> <PUBCHEM_CACTVS_TAUTO_COUNT>
-1

> <PUBCHEM_COORDINATE_TYPE>
1
5
255

> <PUBCHEM_BONDANNOTATIONS>
14  17  8
14  18  8
17  20  8
18  21  8
19  23  8
20  22  8
21  22  8
25  26  8
25  27  8
26  28  8
27  29  8
28  30  8
29  30  8
4  23  8
4  6  8
5  19  8
5  6  8

$$$$
