44192200
  -OEChem-09292322282D

 59 64  0     1  0  0  0  0  0999 V2000
   12.5100    1.2349    0.0000 O   0  0  0  0  0  0  0  0  0  0  0  0
   12.5100   -0.8345    0.0000 O   0  0  0  0  0  0  0  0  0  0  0  0
    9.8719    0.7277    0.0000 N   0  0  0  0  0  0  0  0  0  0  0  0
    8.1360   -0.2656    0.0000 N   0  0  0  0  0  0  0  0  0  0  0  0
    6.4039   -0.2589    0.0000 N   0  0  0  0  0  0  0  0  0  0  0  0
   16.0460    1.2070    0.0000 N   0  0  0  0  0  0  0  0  0  0  0  0
    2.0000   -2.7695    0.0000 N   0  0  0  0  0  0  0  0  0  0  0  0
    9.0078    1.2310    0.0000 C   0  0  0  0  0  0  0  0  0  0  0  0
    9.8680   -0.2723    0.0000 C   0  0  0  0  0  0  0  0  0  0  0  0
   10.7398    1.2244    0.0000 C   0  0  0  0  0  0  0  0  0  0  0  0
    8.1398    0.7344    0.0000 C   0  0  0  0  0  0  0  0  0  0  0  0
    9.0001   -0.7690    0.0000 C   0  0  0  0  0  0  0  0  0  0  0  0
   11.6039    0.7210    0.0000 C   0  0  1  0  0  0  0  0  0  0  0  0
   11.6039   -0.3206    0.0000 C   0  0  0  0  0  0  0  0  0  0  0  0
    7.2680   -0.7623    0.0000 C   0  0  0  0  0  0  0  0  0  0  0  0
   13.4039    0.7002    0.0000 C   0  0  0  0  0  0  0  0  0  0  0  0
   13.4039   -0.2998    0.0000 C   0  0  0  0  0  0  0  0  0  0  0  0
    7.2642   -1.7623    0.0000 C   0  0  0  0  0  0  0  0  0  0  0  0
   14.2699    1.2002    0.0000 C   0  0  0  0  0  0  0  0  0  0  0  0
   14.2699   -0.7998    0.0000 C   0  0  0  0  0  0  0  0  0  0  0  0
   15.1360    0.7002    0.0000 C   0  0  0  0  0  0  0  0  0  0  0  0
    5.5360   -0.7556    0.0000 C   0  0  0  0  0  0  0  0  0  0  0  0
    6.3962   -2.2589    0.0000 C   0  0  0  0  0  0  0  0  0  0  0  0
    5.5321   -1.7556    0.0000 C   0  0  0  0  0  0  0  0  0  0  0  0
   15.1360   -0.2998    0.0000 C   0  0  0  0  0  0  0  0  0  0  0  0
   14.2539    2.2417    0.0000 C   0  0  0  0  0  0  0  0  0  0  0  0
    4.6441   -0.2175    0.0000 C   0  0  0  0  0  0  0  0  0  0  0  0
   15.1519    2.7695    0.0000 C   0  0  0  0  0  0  0  0  0  0  0  0
    4.6361   -2.2868    0.0000 C   0  0  0  0  0  0  0  0  0  0  0  0
   16.0540    2.2486    0.0000 C   0  0  0  0  0  0  0  0  0  0  0  0
    3.7361   -0.7278    0.0000 C   0  0  0  0  0  0  0  0  0  0  0  0
    3.7320   -1.7695    0.0000 C   0  0  0  0  0  0  0  0  0  0  0  0
   16.9219    2.7453    0.0000 C   0  0  0  0  0  0  0  0  0  0  0  0
    2.8660   -2.2695    0.0000 C   0  0  0  0  0  0  0  0  0  0  0  0
    9.4081    1.7044    0.0000 H   0  0  0  0  0  0  0  0  0  0  0  0
    8.6111    1.7075    0.0000 H   0  0  0  0  0  0  0  0  0  0  0  0
   10.0778   -0.8557    0.0000 H   0  0  0  0  0  0  0  0  0  0  0  0
   10.4790   -0.1670    0.0000 H   0  0  0  0  0  0  0  0  0  0  0  0
   11.1402    1.6978    0.0000 H   0  0  0  0  0  0  0  0  0  0  0  0
   10.3431    1.7008    0.0000 H   0  0  0  0  0  0  0  0  0  0  0  0
    7.9300    1.3178    0.0000 H   0  0  0  0  0  0  0  0  0  0  0  0
    7.5288    0.6291    0.0000 H   0  0  0  0  0  0  0  0  0  0  0  0
    8.5997   -1.2424    0.0000 H   0  0  0  0  0  0  0  0  0  0  0  0
    9.3968   -1.2454    0.0000 H   0  0  0  0  0  0  0  0  0  0  0  0
   11.6075    1.3410    0.0000 H   0  0  0  0  0  0  0  0  0  0  0  0
   10.9930   -0.2145    0.0000 H   0  0  0  0  0  0  0  0  0  0  0  0
   11.3948   -0.9043    0.0000 H   0  0  0  0  0  0  0  0  0  0  0  0
    7.7999   -2.0743    0.0000 H   0  0  0  0  0  0  0  0  0  0  0  0
   14.2699   -1.4198    0.0000 H   0  0  0  0  0  0  0  0  0  0  0  0
    6.3938   -2.8789    0.0000 H   0  0  0  0  0  0  0  0  0  0  0  0
   15.6729   -0.6098    0.0000 H   0  0  0  0  0  0  0  0  0  0  0  0
   13.7134    2.5455    0.0000 H   0  0  0  0  0  0  0  0  0  0  0  0
    4.6537    0.4024    0.0000 H   0  0  0  0  0  0  0  0  0  0  0  0
   15.1495    3.3895    0.0000 H   0  0  0  0  0  0  0  0  0  0  0  0
    4.6409   -2.9068    0.0000 H   0  0  0  0  0  0  0  0  0  0  0  0
    3.2015   -0.4137    0.0000 H   0  0  0  0  0  0  0  0  0  0  0  0
   17.2299    2.2072    0.0000 H   0  0  0  0  0  0  0  0  0  0  0  0
   17.4601    3.0532    0.0000 H   0  0  0  0  0  0  0  0  0  0  0  0
   16.6140    3.2834    0.0000 H   0  0  0  0  0  0  0  0  0  0  0  0
  1 13  1  0  0  0  0
  1 16  1  0  0  0  0
  2 14  1  0  0  0  0
  2 17  1  0  0  0  0
  3  8  1  0  0  0  0
  3  9  1  0  0  0  0
  3 10  1  0  0  0  0
  4 11  1  0  0  0  0
  4 12  1  0  0  0  0
  4 15  1  0  0  0  0
  5 15  2  0  0  0  0
  5 22  1  0  0  0  0
  6 21  1  0  0  0  0
  6 30  2  0  0  0  0
  7 34  3  0  0  0  0
  8 11  1  0  0  0  0
  8 35  1  0  0  0  0
  8 36  1  0  0  0  0
  9 12  1  0  0  0  0
  9 37  1  0  0  0  0
  9 38  1  0  0  0  0
 13 10  1  6  0  0  0
 10 39  1  0  0  0  0
 10 40  1  0  0  0  0
 11 41  1  0  0  0  0
 11 42  1  0  0  0  0
 12 43  1  0  0  0  0
 12 44  1  0  0  0  0
 13 14  1  0  0  0  0
 13 45  1  0  0  0  0
 14 46  1  0  0  0  0
 14 47  1  0  0  0  0
 15 18  1  0  0  0  0
 16 17  2  0  0  0  0
 16 19  1  0  0  0  0
 17 20  1  0  0  0  0
 18 23  2  0  0  0  0
 18 48  1  0  0  0  0
 19 21  2  0  0  0  0
 19 26  1  0  0  0  0
 20 25  2  0  0  0  0
 20 49  1  0  0  0  0
 21 25  1  0  0  0  0
 22 24  2  0  0  0  0
 22 27  1  0  0  0  0
 23 24  1  0  0  0  0
 23 50  1  0  0  0  0
 24 29  1  0  0  0  0
 25 51  1  0  0  0  0
 26 28  2  0  0  0  0
 26 52  1  0  0  0  0
 27 31  2  0  0  0  0
 27 53  1  0  0  0  0
 28 30  1  0  0  0  0
 28 54  1  0  0  0  0
 29 32  2  0  0  0  0
 29 55  1  0  0  0  0
 30 33  1  0  0  0  0
 31 32  1  0  0  0  0
 31 56  1  0  0  0  0
 32 34  1  0  0  0  0
 33 57  1  0  0  0  0
 33 58  1  0  0  0  0
 33 59  1  0  0  0  0
M  END
> <PUBCHEM_COMPOUND_CID>
44192200

> <PUBCHEM_COMPOUND_CANONICALIZED>
1

> <PUBCHEM_CACTVS_COMPLEXITY>
749

> <PUBCHEM_CACTVS_HBOND_ACCEPTOR>
7

> <PUBCHEM_CACTVS_HBOND_DONOR>
0

> <PUBCHEM_CACTVS_ROTATABLE_BOND>
3

> <PUBCHEM_CACTVS_SUBSKEYS>
AAADceB7sAAAAAAAAAAAAAAAAAAAAAAAAAA8eLEiAAAAAACx/gAAHgAAAAAADBzhngYz9vMIFACwByZiZACiiCkhIiAJmCA+7JiP5uLEuZuXOCruwBva6C+w0PMOCEADAgAKQAAQgAYEABSAAAAAAAAAAA==

> <PUBCHEM_IUPAC_OPENEYE_NAME>
2-[4-[[(2S)-8-methyl-2,3-dihydro-[1,4]dioxino[2,3-f]quinolin-2-yl]methyl]piperazin-1-yl]quinoline-6-carbonitrile

> <PUBCHEM_IUPAC_CAS_NAME>
2-[4-[[(2S)-8-methyl-2,3-dihydro-[1,4]dioxino[2,3-f]quinolin-2-yl]methyl]-1-piperazinyl]-6-quinolinecarbonitrile

> <PUBCHEM_IUPAC_NAME_MARKUP>
2-[4-[[(2<I>S</I>)-8-methyl-2,3-dihydro-[1,4]dioxino[2,3-f]quinolin-2-yl]methyl]piperazin-1-yl]quinoline-6-carbonitrile

> <PUBCHEM_IUPAC_NAME>
2-[4-[[(2S)-8-methyl-2,3-dihydro-[1,4]dioxino[2,3-f]quinolin-2-yl]methyl]piperazin-1-yl]quinoline-6-carbonitrile

> <PUBCHEM_IUPAC_SYSTEMATIC_NAME>
2-[4-[[(2S)-8-methyl-2,3-dihydro-[1,4]dioxino[2,3-f]quinolin-2-yl]methyl]piperazin-1-yl]quinoline-6-carbonitrile

> <PUBCHEM_IUPAC_TRADITIONAL_NAME>
2-[4-[[(2S)-8-methyl-2,3-dihydro-[1,4]dioxino[2,3-f]quinolin-2-yl]methyl]piperazino]quinoline-6-carbonitrile

> <PUBCHEM_IUPAC_INCHI>
InChI=1S/C27H25N5O2/c1-18-2-5-22-24(29-18)7-8-25-27(22)34-21(17-33-25)16-31-10-12-32(13-11-31)26-9-4-20-14-19(15-28)3-6-23(20)30-26/h2-9,14,21H,10-13,16-17H2,1H3/t21-/m0/s1

> <PUBCHEM_IUPAC_INCHIKEY>
AIBSVCNXTNBLRF-NRFANRHFSA-N

> <PUBCHEM_XLOGP3_AA>
4.3

> <PUBCHEM_EXACT_MASS>
451.20082506

> <PUBCHEM_MOLECULAR_FORMULA>
C27H25N5O2

> <PUBCHEM_MOLECULAR_WEIGHT>
451.5

> <PUBCHEM_OPENEYE_CAN_SMILES>
CC1=NC2=C(C=C1)C3=C(C=C2)OCC(O3)CN4CCN(CC4)C5=NC6=C(C=C5)C=C(C=C6)C#N

> <PUBCHEM_OPENEYE_ISO_SMILES>
CC1=NC2=C(C=C1)C3=C(C=C2)OC[C@@H](O3)CN4CCN(CC4)C5=NC6=C(C=C5)C=C(C=C6)C#N

> <PUBCHEM_CACTVS_TPSA>
74.5

> <PUBCHEM_MONOISOTOPIC_WEIGHT>
451.20082506

> <PUBCHEM_TOTAL_CHARGE>
0

> <PUBCHEM_HEAVY_ATOM_COUNT>
34

> <PUBCHEM_ATOM_DEF_STEREO_COUNT>
1

> <PUBCHEM_ATOM_UDEF_STEREO_COUNT>
0

> <PUBCHEM_BOND_DEF_STEREO_COUNT>
0

> <PUBCHEM_BOND_UDEF_STEREO_COUNT>
0

> <PUBCHEM_ISOTOPIC_ATOM_COUNT>
0

> <PUBCHEM_COMPONENT_COUNT>
1

> <PUBCHEM_CACTVS_TAUTO_COUNT>
-1

> <PUBCHEM_COORDINATE_TYPE>
1
5
255

> <PUBCHEM_BONDANNOTATIONS>
13  10  6
15  18  8
16  17  8
16  19  8
17  20  8
18  23  8
19  21  8
19  26  8
20  25  8
21  25  8
22  24  8
22  27  8
23  24  8
24  29  8
26  28  8
27  31  8
28  30  8
29  32  8
31  32  8
5  15  8
5  22  8
6  21  8
6  30  8

$$$$
