155564667
  -OEChem-09292322422D

 61 64  0     0  0  0  0  0  0999 V2000
    5.0000   -0.0140    0.0000 Cl  0  0  0  0  0  0  0  0  0  0  0  0
   15.9851    0.0473    0.0000 S   0  0  0  0  0  0  0  0  0  0  0  0
   12.0000    1.7180    0.0000 O   0  0  0  0  0  0  0  0  0  0  0  0
    8.0000   -1.7461    0.0000 N   0  0  0  0  0  0  0  0  0  0  0  0
    6.0000   -1.7461    0.0000 N   0  0  0  0  0  0  0  0  0  0  0  0
   12.0000   -0.0140    0.0000 N   0  0  0  0  0  0  0  0  0  0  0  0
   15.0388    1.3520    0.0000 N   0  0  0  0  0  0  0  0  0  0  0  0
   14.0878    0.0430    0.0000 N   0  0  0  0  0  0  0  0  0  0  0  0
    7.5000   -2.6121    0.0000 C   0  0  0  0  0  0  0  0  0  0  0  0
    7.5000   -0.8800    0.0000 C   0  0  0  0  0  0  0  0  0  0  0  0
    6.5000   -2.6121    0.0000 C   0  0  0  0  0  0  0  0  0  0  0  0
    6.5000   -0.8800    0.0000 C   0  0  0  0  0  0  0  0  0  0  0  0
    9.0000   -1.7461    0.0000 C   0  0  0  0  0  0  0  0  0  0  0  0
    9.5000   -0.8800    0.0000 C   0  0  0  0  0  0  0  0  0  0  0  0
    5.0000   -1.7461    0.0000 C   0  0  0  0  0  0  0  0  0  0  0  0
   10.5000   -0.8800    0.0000 C   0  0  0  0  0  0  0  0  0  0  0  0
   11.0000   -0.0140    0.0000 C   0  0  0  0  0  0  0  0  0  0  0  0
    4.5000   -0.8800    0.0000 C   0  0  0  0  0  0  0  0  0  0  0  0
    4.5000   -2.6121    0.0000 C   0  0  0  0  0  0  0  0  0  0  0  0
    3.5000   -0.8800    0.0000 C   0  0  0  0  0  0  0  0  0  0  0  0
    3.5000   -2.6121    0.0000 C   0  0  0  0  0  0  0  0  0  0  0  0
    3.0000   -1.7461    0.0000 C   0  0  0  0  0  0  0  0  0  0  0  0
    3.0000   -0.0140    0.0000 C   0  0  0  0  0  0  0  0  0  0  0  0
   12.5000    0.8520    0.0000 C   0  0  0  0  0  0  0  0  0  0  0  0
   13.5000    0.8520    0.0000 C   0  0  0  0  0  0  0  0  0  0  0  0
    2.0000   -0.0140    0.0000 C   0  0  0  0  0  0  0  0  0  0  0  0
   14.0878    1.6610    0.0000 C   0  0  0  0  0  0  0  0  0  0  0  0
   15.0388    0.3520    0.0000 C   0  0  0  0  0  0  0  0  0  0  0  0
   13.7788    2.6121    0.0000 C   0  0  0  0  0  0  0  0  0  0  0  0
   15.9851    1.6568    0.0000 C   0  0  0  0  0  0  0  0  0  0  0  0
   16.5687    0.8520    0.0000 C   0  0  0  0  0  0  0  0  0  0  0  0
    7.3923   -3.2227    0.0000 H   0  0  0  0  0  0  0  0  0  0  0  0
    8.0826   -2.8241    0.0000 H   0  0  0  0  0  0  0  0  0  0  0  0
    8.0826   -0.6680    0.0000 H   0  0  0  0  0  0  0  0  0  0  0  0
    7.3923   -0.2695    0.0000 H   0  0  0  0  0  0  0  0  0  0  0  0
    5.9174   -2.8241    0.0000 H   0  0  0  0  0  0  0  0  0  0  0  0
    6.6077   -3.2227    0.0000 H   0  0  0  0  0  0  0  0  0  0  0  0
    6.6077   -0.2695    0.0000 H   0  0  0  0  0  0  0  0  0  0  0  0
    5.9174   -0.6680    0.0000 H   0  0  0  0  0  0  0  0  0  0  0  0
    8.8923   -2.3566    0.0000 H   0  0  0  0  0  0  0  0  0  0  0  0
    9.5826   -1.9581    0.0000 H   0  0  0  0  0  0  0  0  0  0  0  0
    9.6077   -0.2695    0.0000 H   0  0  0  0  0  0  0  0  0  0  0  0
    8.9174   -0.6680    0.0000 H   0  0  0  0  0  0  0  0  0  0  0  0
   10.3923   -1.4906    0.0000 H   0  0  0  0  0  0  0  0  0  0  0  0
   11.0826   -1.0921    0.0000 H   0  0  0  0  0  0  0  0  0  0  0  0
   11.1077    0.5966    0.0000 H   0  0  0  0  0  0  0  0  0  0  0  0
   10.4174    0.1980    0.0000 H   0  0  0  0  0  0  0  0  0  0  0  0
    4.8100   -3.1490    0.0000 H   0  0  0  0  0  0  0  0  0  0  0  0
    3.1900   -3.1490    0.0000 H   0  0  0  0  0  0  0  0  0  0  0  0
   12.3100   -0.5509    0.0000 H   0  0  0  0  0  0  0  0  0  0  0  0
    2.3800   -1.7461    0.0000 H   0  0  0  0  0  0  0  0  0  0  0  0
    3.5826    0.1980    0.0000 H   0  0  0  0  0  0  0  0  0  0  0  0
    2.8923    0.5966    0.0000 H   0  0  0  0  0  0  0  0  0  0  0  0
    2.0000    0.6060    0.0000 H   0  0  0  0  0  0  0  0  0  0  0  0
    1.3800   -0.0140    0.0000 H   0  0  0  0  0  0  0  0  0  0  0  0
    2.0000   -0.6340    0.0000 H   0  0  0  0  0  0  0  0  0  0  0  0
   14.3684    2.8037    0.0000 H   0  0  0  0  0  0  0  0  0  0  0  0
   13.5872    3.2017    0.0000 H   0  0  0  0  0  0  0  0  0  0  0  0
   13.1891    2.4205    0.0000 H   0  0  0  0  0  0  0  0  0  0  0  0
   16.1777    2.2461    0.0000 H   0  0  0  0  0  0  0  0  0  0  0  0
   17.1887    0.8520    0.0000 H   0  0  0  0  0  0  0  0  0  0  0  0
  1 18  1  0  0  0  0
  2 28  1  0  0  0  0
  2 31  1  0  0  0  0
  3 24  2  0  0  0  0
  4  9  1  0  0  0  0
  4 10  1  0  0  0  0
  4 13  1  0  0  0  0
  5 11  1  0  0  0  0
  5 12  1  0  0  0  0
  5 15  1  0  0  0  0
  6 17  1  0  0  0  0
  6 24  1  0  0  0  0
  6 50  1  0  0  0  0
  7 27  1  0  0  0  0
  7 28  1  0  0  0  0
  7 30  1  0  0  0  0
  8 25  1  0  0  0  0
  8 28  2  0  0  0  0
  9 11  1  0  0  0  0
  9 32  1  0  0  0  0
  9 33  1  0  0  0  0
 10 12  1  0  0  0  0
 10 34  1  0  0  0  0
 10 35  1  0  0  0  0
 11 36  1  0  0  0  0
 11 37  1  0  0  0  0
 12 38  1  0  0  0  0
 12 39  1  0  0  0  0
 13 14  1  0  0  0  0
 13 40  1  0  0  0  0
 13 41  1  0  0  0  0
 14 16  1  0  0  0  0
 14 42  1  0  0  0  0
 14 43  1  0  0  0  0
 15 18  1  0  0  0  0
 15 19  2  0  0  0  0
 16 17  1  0  0  0  0
 16 44  1  0  0  0  0
 16 45  1  0  0  0  0
 17 46  1  0  0  0  0
 17 47  1  0  0  0  0
 18 20  2  0  0  0  0
 19 21  1  0  0  0  0
 19 48  1  0  0  0  0
 20 22  1  0  0  0  0
 20 23  1  0  0  0  0
 21 22  2  0  0  0  0
 21 49  1  0  0  0  0
 22 51  1  0  0  0  0
 23 26  1  0  0  0  0
 23 52  1  0  0  0  0
 23 53  1  0  0  0  0
 24 25  1  0  0  0  0
 25 27  2  0  0  0  0
 26 54  1  0  0  0  0
 26 55  1  0  0  0  0
 26 56  1  0  0  0  0
 27 29  1  0  0  0  0
 29 57  1  0  0  0  0
 29 58  1  0  0  0  0
 29 59  1  0  0  0  0
 30 31  2  0  0  0  0
 30 60  1  0  0  0  0
 31 61  1  0  0  0  0
M  END
> <PUBCHEM_COMPOUND_CID>
155564667

> <PUBCHEM_COMPOUND_CANONICALIZED>
1

> <PUBCHEM_CACTVS_COMPLEXITY>
590

> <PUBCHEM_CACTVS_HBOND_ACCEPTOR>
5

> <PUBCHEM_CACTVS_HBOND_DONOR>
1

> <PUBCHEM_CACTVS_ROTATABLE_BOND>
8

> <PUBCHEM_CACTVS_SUBSKEYS>
AAADceB7oABEAAAAAAAAAAAAAAAAAWLAAAA8QAAAAAAWAAAB8AAAHgYQAAAADArF3iS/0ZfMGAisAzV3dACC8K13HrhJ2I24dsiIaHrB27HUIYholgLIyWcQgIAOAAAAQAABABAAAACAAAIAIAAAAAAAAA==

> <PUBCHEM_IUPAC_OPENEYE_NAME>
N-[4-[4-(2-chloro-3-ethyl-phenyl)piperazin-1-yl]butyl]-5-methyl-imidazo[2,1-b]thiazole-6-carboxamide

> <PUBCHEM_IUPAC_CAS_NAME>
N-[4-[4-(2-chloro-3-ethylphenyl)-1-piperazinyl]butyl]-5-methyl-6-imidazo[2,1-b]thiazolecarboxamide

> <PUBCHEM_IUPAC_NAME_MARKUP>
<I>N</I>-[4-[4-(2-chloro-3-ethylphenyl)piperazin-1-yl]butyl]-5-methylimidazo[2,1-b][1,3]thiazole-6-carboxamide

> <PUBCHEM_IUPAC_NAME>
N-[4-[4-(2-chloro-3-ethylphenyl)piperazin-1-yl]butyl]-5-methylimidazo[2,1-b][1,3]thiazole-6-carboxamide

> <PUBCHEM_IUPAC_SYSTEMATIC_NAME>
N-[4-[4-(2-chloranyl-3-ethyl-phenyl)piperazin-1-yl]butyl]-5-methyl-imidazo[2,1-b][1,3]thiazole-6-carboxamide

> <PUBCHEM_IUPAC_TRADITIONAL_NAME>
N-[4-[4-(2-chloro-3-ethyl-phenyl)piperazino]butyl]-5-methyl-imidazo[2,1-b]thiazole-6-carboxamide

> <PUBCHEM_IUPAC_INCHI>
InChI=1S/C23H30ClN5OS/c1-3-18-7-6-8-19(20(18)24)28-13-11-27(12-14-28)10-5-4-9-25-22(30)21-17(2)29-15-16-31-23(29)26-21/h6-8,15-16H,3-5,9-14H2,1-2H3,(H,25,30)

> <PUBCHEM_IUPAC_INCHIKEY>
VDXPHDCGJBDTON-UHFFFAOYSA-N

> <PUBCHEM_XLOGP3_AA>
5.6

> <PUBCHEM_EXACT_MASS>
459.1859595

> <PUBCHEM_MOLECULAR_FORMULA>
C23H30ClN5OS

> <PUBCHEM_MOLECULAR_WEIGHT>
460.0

> <PUBCHEM_OPENEYE_CAN_SMILES>
CCC1=C(C(=CC=C1)N2CCN(CC2)CCCCNC(=O)C3=C(N4C=CSC4=N3)C)Cl

> <PUBCHEM_OPENEYE_ISO_SMILES>
CCC1=C(C(=CC=C1)N2CCN(CC2)CCCCNC(=O)C3=C(N4C=CSC4=N3)C)Cl

> <PUBCHEM_CACTVS_TPSA>
81.1

> <PUBCHEM_MONOISOTOPIC_WEIGHT>
459.1859595

> <PUBCHEM_TOTAL_CHARGE>
0

> <PUBCHEM_HEAVY_ATOM_COUNT>
31

> <PUBCHEM_ATOM_DEF_STEREO_COUNT>
0

> <PUBCHEM_ATOM_UDEF_STEREO_COUNT>
0

> <PUBCHEM_BOND_DEF_STEREO_COUNT>
0

> <PUBCHEM_BOND_UDEF_STEREO_COUNT>
0

> <PUBCHEM_ISOTOPIC_ATOM_COUNT>
0

> <PUBCHEM_COMPONENT_COUNT>
1

> <PUBCHEM_CACTVS_TAUTO_COUNT>
-1

> <PUBCHEM_COORDINATE_TYPE>
1
5
255

> <PUBCHEM_BONDANNOTATIONS>
15  18  8
15  19  8
18  20  8
19  21  8
2  28  8
2  31  8
20  22  8
21  22  8
25  27  8
30  31  8
7  27  8
7  28  8
7  30  8
8  25  8
8  28  8

$$$$
