15057516
  -OEChem-09292322062D

 57 61  0     1  0  0  0  0  0999 V2000
   11.8031   -3.0244    0.0000 S   0  0  0  0  0  0  0  0  0  0  0  0
    2.9176    2.7082    0.0000 O   0  0  0  0  0  0  0  0  0  0  0  0
    4.6660   -1.3264    0.0000 O   0  0  0  0  0  0  0  0  0  0  0  0
    8.1301   -0.3264    0.0000 N   0  0  0  0  0  0  0  0  0  0  0  0
    9.8622   -1.3264    0.0000 N   0  0  0  0  0  0  0  0  0  0  0  0
    3.8000    0.1736    0.0000 N   0  0  0  0  0  0  0  0  0  0  0  0
    4.6660    1.6736    0.0000 N   0  0  0  0  0  0  0  0  0  0  0  0
   10.8313   -2.8152    0.0000 N   0  0  0  0  0  0  0  0  0  0  0  0
    8.9962    0.1736    0.0000 C   0  0  0  0  0  0  0  0  0  0  0  0
    8.1301   -1.3264    0.0000 C   0  0  0  0  0  0  0  0  0  0  0  0
    7.2641    0.1736    0.0000 C   0  0  0  0  0  0  0  0  0  0  0  0
    9.8622   -0.3264    0.0000 C   0  0  0  0  0  0  0  0  0  0  0  0
    8.9962   -1.8264    0.0000 C   0  0  0  0  0  0  0  0  0  0  0  0
    6.3981   -0.3264    0.0000 C   0  0  0  0  0  0  0  0  0  0  0  0
    2.9061   -0.3611    0.0000 C   0  0  0  0  0  0  0  0  0  0  0  0
    2.9061    1.7082    0.0000 C   0  0  3  0  0  0  0  0  0  0  0  0
    2.0000    0.1528    0.0000 C   0  0  0  0  0  0  0  0  0  0  0  0
    2.0000    1.1944    0.0000 C   0  0  0  0  0  0  0  0  0  0  0  0
    5.5321    0.1736    0.0000 C   0  0  0  0  0  0  0  0  0  0  0  0
    3.8000    1.1736    0.0000 C   0  0  0  0  0  0  0  0  0  0  0  0
    4.6660   -0.3264    0.0000 C   0  0  0  0  0  0  0  0  0  0  0  0
    5.5321    1.1736    0.0000 C   0  0  0  0  0  0  0  0  0  0  0  0
   10.7282   -1.8264    0.0000 C   0  0  0  0  0  0  0  0  0  0  0  0
   11.6360   -1.4213    0.0000 C   0  0  0  0  0  0  0  0  0  0  0  0
    6.3981    1.6736    0.0000 C   0  0  0  0  0  0  0  0  0  0  0  0
   12.3038   -2.1656    0.0000 C   0  0  0  0  0  0  0  0  0  0  0  0
   11.9467   -0.4708    0.0000 C   0  0  0  0  0  0  0  0  0  0  0  0
   13.2823   -1.9594    0.0000 C   0  0  0  0  0  0  0  0  0  0  0  0
   12.9252   -0.2646    0.0000 C   0  0  0  0  0  0  0  0  0  0  0  0
   13.5930   -1.0089    0.0000 C   0  0  0  0  0  0  0  0  0  0  0  0
    9.3947    0.6485    0.0000 H   0  0  0  0  0  0  0  0  0  0  0  0
    8.5976    0.6485    0.0000 H   0  0  0  0  0  0  0  0  0  0  0  0
    7.5196   -1.2188    0.0000 H   0  0  0  0  0  0  0  0  0  0  0  0
    7.9181   -1.9090    0.0000 H   0  0  0  0  0  0  0  0  0  0  0  0
    7.6626    0.6485    0.0000 H   0  0  0  0  0  0  0  0  0  0  0  0
    6.8656    0.6485    0.0000 H   0  0  0  0  0  0  0  0  0  0  0  0
   10.4728   -0.4341    0.0000 H   0  0  0  0  0  0  0  0  0  0  0  0
   10.0742    0.2562    0.0000 H   0  0  0  0  0  0  0  0  0  0  0  0
    8.5976   -2.3014    0.0000 H   0  0  0  0  0  0  0  0  0  0  0  0
    9.3947   -2.3014    0.0000 H   0  0  0  0  0  0  0  0  0  0  0  0
    5.9996   -0.8014    0.0000 H   0  0  0  0  0  0  0  0  0  0  0  0
    6.7966   -0.8014    0.0000 H   0  0  0  0  0  0  0  0  0  0  0  0
    2.5124   -0.8401    0.0000 H   0  0  0  0  0  0  0  0  0  0  0  0
    3.3107   -0.8309    0.0000 H   0  0  0  0  0  0  0  0  0  0  0  0
    3.4471    2.0110    0.0000 H   0  0  0  0  0  0  0  0  0  0  0  0
    1.3891    0.2588    0.0000 H   0  0  0  0  0  0  0  0  0  0  0  0
    1.7909   -0.4309    0.0000 H   0  0  0  0  0  0  0  0  0  0  0  0
    1.7909    1.7781    0.0000 H   0  0  0  0  0  0  0  0  0  0  0  0
    1.3891    1.0883    0.0000 H   0  0  0  0  0  0  0  0  0  0  0  0
    6.7081    1.1366    0.0000 H   0  0  0  0  0  0  0  0  0  0  0  0
    6.9350    1.9836    0.0000 H   0  0  0  0  0  0  0  0  0  0  0  0
    6.0881    2.2105    0.0000 H   0  0  0  0  0  0  0  0  0  0  0  0
    2.3843    3.0244    0.0000 H   0  0  0  0  0  0  0  0  0  0  0  0
   11.5326   -0.0093    0.0000 H   0  0  0  0  0  0  0  0  0  0  0  0
   13.6964   -2.4209    0.0000 H   0  0  0  0  0  0  0  0  0  0  0  0
   13.1178    0.3247    0.0000 H   0  0  0  0  0  0  0  0  0  0  0  0
   14.1997   -0.8810    0.0000 H   0  0  0  0  0  0  0  0  0  0  0  0
  1  8  1  0  0  0  0
  1 26  1  0  0  0  0
  2 16  1  0  0  0  0
  2 53  1  0  0  0  0
  3 21  2  0  0  0  0
  4  9  1  0  0  0  0
  4 10  1  0  0  0  0
  4 11  1  0  0  0  0
  5 12  1  0  0  0  0
  5 13  1  0  0  0  0
  5 23  1  0  0  0  0
  6 15  1  0  0  0  0
  6 20  1  0  0  0  0
  6 21  1  0  0  0  0
  7 20  2  0  0  0  0
  7 22  1  0  0  0  0
  8 23  2  0  0  0  0
  9 12  1  0  0  0  0
  9 31  1  0  0  0  0
  9 32  1  0  0  0  0
 10 13  1  0  0  0  0
 10 33  1  0  0  0  0
 10 34  1  0  0  0  0
 11 14  1  0  0  0  0
 11 35  1  0  0  0  0
 11 36  1  0  0  0  0
 12 37  1  0  0  0  0
 12 38  1  0  0  0  0
 13 39  1  0  0  0  0
 13 40  1  0  0  0  0
 14 19  1  0  0  0  0
 14 41  1  0  0  0  0
 14 42  1  0  0  0  0
 15 17  1  0  0  0  0
 15 43  1  0  0  0  0
 15 44  1  0  0  0  0
 16 18  1  0  0  0  0
 16 20  1  0  0  0  0
 16 45  1  0  0  0  0
 17 18  1  0  0  0  0
 17 46  1  0  0  0  0
 17 47  1  0  0  0  0
 18 48  1  0  0  0  0
 18 49  1  0  0  0  0
 19 21  1  0  0  0  0
 19 22  2  0  0  0  0
 22 25  1  0  0  0  0
 23 24  1  0  0  0  0
 24 26  1  0  0  0  0
 24 27  2  0  0  0  0
 25 50  1  0  0  0  0
 25 51  1  0  0  0  0
 25 52  1  0  0  0  0
 26 28  2  0  0  0  0
 27 29  1  0  0  0  0
 27 54  1  0  0  0  0
 28 30  1  0  0  0  0
 28 55  1  0  0  0  0
 29 30  2  0  0  0  0
 29 56  1  0  0  0  0
 30 57  1  0  0  0  0
M  END
> <PUBCHEM_COMPOUND_CID>
15057516

> <PUBCHEM_COMPOUND_CANONICALIZED>
1

> <PUBCHEM_CACTVS_COMPLEXITY>
733

> <PUBCHEM_CACTVS_HBOND_ACCEPTOR>
7

> <PUBCHEM_CACTVS_HBOND_DONOR>
1

> <PUBCHEM_CACTVS_ROTATABLE_BOND>
4

> <PUBCHEM_CACTVS_SUBSKEYS>
AAADceB7sABAAAAAAAAAAAAAAAAAAWAAAAA8WIEAAAAAAFiB8AAAHgQASAAADBzh2gYzsdMAAgCsAidydASDABEhAABJmDk4RNiKcLLAmZGUYAxkhgLYyUc0gAAOAAAAAAAEAAAAAAAAAAgAAAAAAAAAAA==

> <PUBCHEM_IUPAC_OPENEYE_NAME>
3-[2-[4-(1,2-benzothiazol-3-yl)piperazin-1-yl]ethyl]-9-hydroxy-2-methyl-6,7,8,9-tetrahydropyrido[1,2-a]pyrimidin-4-one

> <PUBCHEM_IUPAC_CAS_NAME>
3-[2-[4-(1,2-benzothiazol-3-yl)-1-piperazinyl]ethyl]-9-hydroxy-2-methyl-6,7,8,9-tetrahydropyrido[1,2-a]pyrimidin-4-one

> <PUBCHEM_IUPAC_NAME_MARKUP>
3-[2-[4-(1,2-benzothiazol-3-yl)piperazin-1-yl]ethyl]-9-hydroxy-2-methyl-6,7,8,9-tetrahydropyrido[1,2-a]pyrimidin-4-one

> <PUBCHEM_IUPAC_NAME>
3-[2-[4-(1,2-benzothiazol-3-yl)piperazin-1-yl]ethyl]-9-hydroxy-2-methyl-6,7,8,9-tetrahydropyrido[1,2-a]pyrimidin-4-one

> <PUBCHEM_IUPAC_SYSTEMATIC_NAME>
3-[2-[4-(1,2-benzothiazol-3-yl)piperazin-1-yl]ethyl]-2-methyl-9-oxidanyl-6,7,8,9-tetrahydropyrido[1,2-a]pyrimidin-4-one

> <PUBCHEM_IUPAC_TRADITIONAL_NAME>
3-[2-[4-(1,2-benzothiazol-3-yl)piperazino]ethyl]-9-hydroxy-2-methyl-6,7,8,9-tetrahydropyrido[1,2-a]pyrimidin-4-one

> <PUBCHEM_IUPAC_INCHI>
InChI=1S/C22H27N5O2S/c1-15-16(22(29)27-9-4-6-18(28)21(27)23-15)8-10-25-11-13-26(14-12-25)20-17-5-2-3-7-19(17)30-24-20/h2-3,5,7,18,28H,4,6,8-14H2,1H3

> <PUBCHEM_IUPAC_INCHIKEY>
NTVYYBXYUYDMTO-UHFFFAOYSA-N

> <PUBCHEM_XLOGP3_AA>
2.3

> <PUBCHEM_EXACT_MASS>
425.18854629

> <PUBCHEM_MOLECULAR_FORMULA>
C22H27N5O2S

> <PUBCHEM_MOLECULAR_WEIGHT>
425.5

> <PUBCHEM_OPENEYE_CAN_SMILES>
CC1=C(C(=O)N2CCCC(C2=N1)O)CCN3CCN(CC3)C4=NSC5=CC=CC=C54

> <PUBCHEM_OPENEYE_ISO_SMILES>
CC1=C(C(=O)N2CCCC(C2=N1)O)CCN3CCN(CC3)C4=NSC5=CC=CC=C54

> <PUBCHEM_CACTVS_TPSA>
101

> <PUBCHEM_MONOISOTOPIC_WEIGHT>
425.18854629

> <PUBCHEM_TOTAL_CHARGE>
0

> <PUBCHEM_HEAVY_ATOM_COUNT>
30

> <PUBCHEM_ATOM_DEF_STEREO_COUNT>
0

> <PUBCHEM_ATOM_UDEF_STEREO_COUNT>
1

> <PUBCHEM_BOND_DEF_STEREO_COUNT>
0

> <PUBCHEM_BOND_UDEF_STEREO_COUNT>
0

> <PUBCHEM_ISOTOPIC_ATOM_COUNT>
0

> <PUBCHEM_COMPONENT_COUNT>
1

> <PUBCHEM_CACTVS_TAUTO_COUNT>
-1

> <PUBCHEM_COORDINATE_TYPE>
1
5
255

> <PUBCHEM_BONDANNOTATIONS>
1  26  8
1  8  8
19  21  8
19  22  8
16  2  3
23  24  8
24  26  8
24  27  8
26  28  8
27  29  8
28  30  8
29  30  8
6  20  8
6  21  8
7  20  8
7  22  8
8  23  8

$$$$
