44393393
  -OEChem-09292322092D

 49 51  0     0  0  0  0  0  0999 V2000
    7.4179    6.4239    0.0000 I   0  0  0  0  0  0  0  0  0  0  0  0
    2.0000   -4.4239    0.0000 Cl  0  0  0  0  0  0  0  0  0  0  0  0
    2.0000   -6.4239    0.0000 Cl  0  0  0  0  0  0  0  0  0  0  0  0
    7.1391    4.6639    0.0000 S   0  0  0  0  0  0  0  0  0  0  0  0
    7.1962    2.5761    0.0000 O   0  0  0  0  0  0  0  0  0  0  0  0
    3.7320   -1.4239    0.0000 N   0  0  0  0  0  0  0  0  0  0  0  0
    3.7320   -3.4239    0.0000 N   0  0  0  0  0  0  0  0  0  0  0  0
    5.4641    2.5761    0.0000 N   0  0  0  0  0  0  0  0  0  0  0  0
    2.8660   -1.9239    0.0000 C   0  0  0  0  0  0  0  0  0  0  0  0
    4.5981   -1.9239    0.0000 C   0  0  0  0  0  0  0  0  0  0  0  0
    2.8660   -2.9239    0.0000 C   0  0  0  0  0  0  0  0  0  0  0  0
    4.5981   -2.9239    0.0000 C   0  0  0  0  0  0  0  0  0  0  0  0
    3.7320   -0.4239    0.0000 C   0  0  0  0  0  0  0  0  0  0  0  0
    4.5981    0.0761    0.0000 C   0  0  0  0  0  0  0  0  0  0  0  0
    3.7320   -4.4239    0.0000 C   0  0  0  0  0  0  0  0  0  0  0  0
    4.5981    1.0761    0.0000 C   0  0  0  0  0  0  0  0  0  0  0  0
    5.4641    1.5761    0.0000 C   0  0  0  0  0  0  0  0  0  0  0  0
    2.8660   -4.9239    0.0000 C   0  0  0  0  0  0  0  0  0  0  0  0
    4.5981   -4.9239    0.0000 C   0  0  0  0  0  0  0  0  0  0  0  0
    2.8660   -5.9239    0.0000 C   0  0  0  0  0  0  0  0  0  0  0  0
    4.5981   -5.9239    0.0000 C   0  0  0  0  0  0  0  0  0  0  0  0
    3.7320   -6.4239    0.0000 C   0  0  0  0  0  0  0  0  0  0  0  0
    6.3301    3.0761    0.0000 C   0  0  0  0  0  0  0  0  0  0  0  0
    6.3301    4.0761    0.0000 C   0  0  0  0  0  0  0  0  0  0  0  0
    5.5211    4.6639    0.0000 C   0  0  0  0  0  0  0  0  0  0  0  0
    5.8301    5.6149    0.0000 C   0  0  0  0  0  0  0  0  0  0  0  0
    6.8301    5.6149    0.0000 C   0  0  0  0  0  0  0  0  0  0  0  0
    2.6540   -1.3413    0.0000 H   0  0  0  0  0  0  0  0  0  0  0  0
    2.2554   -2.0316    0.0000 H   0  0  0  0  0  0  0  0  0  0  0  0
    5.2087   -2.0316    0.0000 H   0  0  0  0  0  0  0  0  0  0  0  0
    4.8101   -1.3413    0.0000 H   0  0  0  0  0  0  0  0  0  0  0  0
    2.2554   -2.8163    0.0000 H   0  0  0  0  0  0  0  0  0  0  0  0
    2.6540   -3.5065    0.0000 H   0  0  0  0  0  0  0  0  0  0  0  0
    4.8101   -3.5065    0.0000 H   0  0  0  0  0  0  0  0  0  0  0  0
    5.2087   -2.8163    0.0000 H   0  0  0  0  0  0  0  0  0  0  0  0
    3.5200    0.1587    0.0000 H   0  0  0  0  0  0  0  0  0  0  0  0
    3.1215   -0.5316    0.0000 H   0  0  0  0  0  0  0  0  0  0  0  0
    4.8101   -0.5065    0.0000 H   0  0  0  0  0  0  0  0  0  0  0  0
    5.2087    0.1837    0.0000 H   0  0  0  0  0  0  0  0  0  0  0  0
    4.3860    1.6587    0.0000 H   0  0  0  0  0  0  0  0  0  0  0  0
    3.9875    0.9684    0.0000 H   0  0  0  0  0  0  0  0  0  0  0  0
    5.6762    0.9935    0.0000 H   0  0  0  0  0  0  0  0  0  0  0  0
    6.0747    1.6837    0.0000 H   0  0  0  0  0  0  0  0  0  0  0  0
    5.1350   -4.6139    0.0000 H   0  0  0  0  0  0  0  0  0  0  0  0
    4.9272    2.8861    0.0000 H   0  0  0  0  0  0  0  0  0  0  0  0
    5.1350   -6.2339    0.0000 H   0  0  0  0  0  0  0  0  0  0  0  0
    3.7320   -7.0439    0.0000 H   0  0  0  0  0  0  0  0  0  0  0  0
    4.9315    4.4723    0.0000 H   0  0  0  0  0  0  0  0  0  0  0  0
    5.4657    6.1165    0.0000 H   0  0  0  0  0  0  0  0  0  0  0  0
  1 27  1  0  0  0  0
  2 18  1  0  0  0  0
  3 20  1  0  0  0  0
  4 24  1  0  0  0  0
  4 27  1  0  0  0  0
  5 23  2  0  0  0  0
  6  9  1  0  0  0  0
  6 10  1  0  0  0  0
  6 13  1  0  0  0  0
  7 11  1  0  0  0  0
  7 12  1  0  0  0  0
  7 15  1  0  0  0  0
  8 17  1  0  0  0  0
  8 23  1  0  0  0  0
  8 45  1  0  0  0  0
  9 11  1  0  0  0  0
  9 28  1  0  0  0  0
  9 29  1  0  0  0  0
 10 12  1  0  0  0  0
 10 30  1  0  0  0  0
 10 31  1  0  0  0  0
 11 32  1  0  0  0  0
 11 33  1  0  0  0  0
 12 34  1  0  0  0  0
 12 35  1  0  0  0  0
 13 14  1  0  0  0  0
 13 36  1  0  0  0  0
 13 37  1  0  0  0  0
 14 16  1  0  0  0  0
 14 38  1  0  0  0  0
 14 39  1  0  0  0  0
 15 18  2  0  0  0  0
 15 19  1  0  0  0  0
 16 17  1  0  0  0  0
 16 40  1  0  0  0  0
 16 41  1  0  0  0  0
 17 42  1  0  0  0  0
 17 43  1  0  0  0  0
 18 20  1  0  0  0  0
 19 21  2  0  0  0  0
 19 44  1  0  0  0  0
 20 22  2  0  0  0  0
 21 22  1  0  0  0  0
 21 46  1  0  0  0  0
 22 47  1  0  0  0  0
 23 24  1  0  0  0  0
 24 25  2  0  0  0  0
 25 26  1  0  0  0  0
 25 48  1  0  0  0  0
 26 27  2  0  0  0  0
 26 49  1  0  0  0  0
M  END
> <PUBCHEM_COMPOUND_CID>
44393393

> <PUBCHEM_COMPOUND_CANONICALIZED>
1

> <PUBCHEM_CACTVS_COMPLEXITY>
482

> <PUBCHEM_CACTVS_HBOND_ACCEPTOR>
4

> <PUBCHEM_CACTVS_HBOND_DONOR>
1

> <PUBCHEM_CACTVS_ROTATABLE_BOND>
7

> <PUBCHEM_CACTVS_SUBSKEYS>
AAADceB7IABGAgAAAAAAAAAAAAAAASAAAAA8QAAAAAAAAAABwAAAHgYwAAAACArD0CQwwYPAAAiMACVSUACDAIAlDxBIitkIZsgIYDLhl5HUIQhglgDoyYcYAAAAAAAAAAIAABQAAAAABAAAKAAAAAAAAA==

> <PUBCHEM_IUPAC_OPENEYE_NAME>
N-[4-[4-(2,3-dichlorophenyl)piperazin-1-yl]butyl]-5-iodo-thiophene-2-carboxamide

> <PUBCHEM_IUPAC_CAS_NAME>
N-[4-[4-(2,3-dichlorophenyl)-1-piperazinyl]butyl]-5-iodo-2-thiophenecarboxamide

> <PUBCHEM_IUPAC_NAME_MARKUP>
<I>N</I>-[4-[4-(2,3-dichlorophenyl)piperazin-1-yl]butyl]-5-iodothiophene-2-carboxamide

> <PUBCHEM_IUPAC_NAME>
N-[4-[4-(2,3-dichlorophenyl)piperazin-1-yl]butyl]-5-iodothiophene-2-carboxamide

> <PUBCHEM_IUPAC_SYSTEMATIC_NAME>
N-[4-[4-[2,3-bis(chloranyl)phenyl]piperazin-1-yl]butyl]-5-iodanyl-thiophene-2-carboxamide

> <PUBCHEM_IUPAC_TRADITIONAL_NAME>
N-[4-[4-(2,3-dichlorophenyl)piperazino]butyl]-5-iodo-thiophene-2-carboxamide

> <PUBCHEM_IUPAC_INCHI>
InChI=1S/C19H22Cl2IN3OS/c20-14-4-3-5-15(18(14)21)25-12-10-24(11-13-25)9-2-1-8-23-19(26)16-6-7-17(22)27-16/h3-7H,1-2,8-13H2,(H,23,26)

> <PUBCHEM_IUPAC_INCHIKEY>
CPTTYKNXUVQTGN-UHFFFAOYSA-N

> <PUBCHEM_XLOGP3_AA>
5.5

> <PUBCHEM_EXACT_MASS>
536.99054

> <PUBCHEM_MOLECULAR_FORMULA>
C19H22Cl2IN3OS

> <PUBCHEM_MOLECULAR_WEIGHT>
538.3

> <PUBCHEM_OPENEYE_CAN_SMILES>
C1CN(CCN1CCCCNC(=O)C2=CC=C(S2)I)C3=C(C(=CC=C3)Cl)Cl

> <PUBCHEM_OPENEYE_ISO_SMILES>
C1CN(CCN1CCCCNC(=O)C2=CC=C(S2)I)C3=C(C(=CC=C3)Cl)Cl

> <PUBCHEM_CACTVS_TPSA>
63.8

> <PUBCHEM_MONOISOTOPIC_WEIGHT>
536.99054

> <PUBCHEM_TOTAL_CHARGE>
0

> <PUBCHEM_HEAVY_ATOM_COUNT>
27

> <PUBCHEM_ATOM_DEF_STEREO_COUNT>
0

> <PUBCHEM_ATOM_UDEF_STEREO_COUNT>
0

> <PUBCHEM_BOND_DEF_STEREO_COUNT>
0

> <PUBCHEM_BOND_UDEF_STEREO_COUNT>
0

> <PUBCHEM_ISOTOPIC_ATOM_COUNT>
0

> <PUBCHEM_COMPONENT_COUNT>
1

> <PUBCHEM_CACTVS_TAUTO_COUNT>
-1

> <PUBCHEM_COORDINATE_TYPE>
1
5
255

> <PUBCHEM_BONDANNOTATIONS>
15  18  8
15  19  8
18  20  8
19  21  8
20  22  8
21  22  8
24  25  8
25  26  8
26  27  8
4  24  8
4  27  8

$$$$
