57383428
  -OEChem-09292321582D

 50 53  0     1  0  0  0  0  0999 V2000
   11.1265   -1.4589    0.0000 S   0  0  3  0  0  0  0  0  0  0  0  0
   12.0604    1.6327    0.0000 O   0  0  0  0  0  0  0  0  0  0  0  0
   11.1265   -2.4589    0.0000 O   0  0  0  0  0  0  0  0  0  0  0  0
    7.0703    0.8439    0.0000 O   0  0  0  0  0  0  0  0  0  0  0  0
    2.7357    0.3845    0.0000 O   0  0  0  0  0  0  0  0  0  0  0  0
   10.6265    0.7317    0.0000 N   0  0  0  0  0  0  0  0  0  0  0  0
    6.5534   -0.8092    0.0000 N   0  0  0  0  0  0  0  0  0  0  0  0
   10.0030   -0.0501    0.0000 C   0  0  0  0  0  0  0  0  0  0  0  0
   10.2255   -1.0250    0.0000 C   0  0  0  0  0  0  0  0  0  0  0  0
   12.2500   -0.0501    0.0000 C   0  0  0  0  0  0  0  0  0  0  0  0
   10.1926    1.6327    0.0000 C   0  0  0  0  0  0  0  0  0  0  0  0
   12.0274   -1.0250    0.0000 C   0  0  0  0  0  0  0  0  0  0  0  0
   11.6265    0.7317    0.0000 C   0  0  0  0  0  0  0  0  0  0  0  0
    9.0125    0.2722    0.0000 C   0  0  0  0  0  0  0  0  0  0  0  0
    8.2435   -0.4303    0.0000 C   0  0  0  0  0  0  0  0  0  0  0  0
    9.4730   -1.7452    0.0000 C   0  0  0  0  0  0  0  0  0  0  0  0
    8.4753   -1.4459    0.0000 C   0  0  0  0  0  0  0  0  0  0  0  0
   13.2405    0.2722    0.0000 C   0  0  0  0  0  0  0  0  0  0  0  0
   12.7800   -1.7452    0.0000 C   0  0  0  0  0  0  0  0  0  0  0  0
   10.7559    2.4589    0.0000 C   0  0  0  0  0  0  0  0  0  0  0  0
    7.2891   -0.1319    0.0000 C   0  0  0  0  0  0  0  0  0  0  0  0
   14.0095   -0.4304    0.0000 C   0  0  0  0  0  0  0  0  0  0  0  0
   13.7777   -1.4459    0.0000 C   0  0  0  0  0  0  0  0  0  0  0  0
    5.5990   -0.5108    0.0000 C   0  0  0  0  0  0  0  0  0  0  0  0
    5.3802    0.4650    0.0000 C   0  0  0  0  0  0  0  0  0  0  0  0
    4.8633   -1.1881    0.0000 C   0  0  0  0  0  0  0  0  0  0  0  0
    4.4258    0.7634    0.0000 C   0  0  0  0  0  0  0  0  0  0  0  0
    3.9088   -0.8897    0.0000 C   0  0  0  0  0  0  0  0  0  0  0  0
    3.6901    0.0861    0.0000 C   0  0  0  0  0  0  0  0  0  0  0  0
    2.0000   -0.2928    0.0000 C   0  0  0  0  0  0  0  0  0  0  0  0
    9.7488    2.0656    0.0000 H   0  0  0  0  0  0  0  0  0  0  0  0
    9.6892    1.2708    0.0000 H   0  0  0  0  0  0  0  0  0  0  0  0
    8.8815    0.8782    0.0000 H   0  0  0  0  0  0  0  0  0  0  0  0
    9.6179   -2.3480    0.0000 H   0  0  0  0  0  0  0  0  0  0  0  0
    8.0224   -1.8693    0.0000 H   0  0  0  0  0  0  0  0  0  0  0  0
   13.3715    0.8782    0.0000 H   0  0  0  0  0  0  0  0  0  0  0  0
   12.6350   -2.3481    0.0000 H   0  0  0  0  0  0  0  0  0  0  0  0
   11.2682    2.1097    0.0000 H   0  0  0  0  0  0  0  0  0  0  0  0
   11.1052    2.9712    0.0000 H   0  0  0  0  0  0  0  0  0  0  0  0
   10.2437    2.8082    0.0000 H   0  0  0  0  0  0  0  0  0  0  0  0
   14.6012   -0.2454    0.0000 H   0  0  0  0  0  0  0  0  0  0  0  0
   14.2306   -1.8694    0.0000 H   0  0  0  0  0  0  0  0  0  0  0  0
    6.6890   -1.4142    0.0000 H   0  0  0  0  0  0  0  0  0  0  0  0
    5.8363    0.8849    0.0000 H   0  0  0  0  0  0  0  0  0  0  0  0
    4.9989   -1.7931    0.0000 H   0  0  0  0  0  0  0  0  0  0  0  0
    4.2902    1.3684    0.0000 H   0  0  0  0  0  0  0  0  0  0  0  0
    3.4527   -1.3096    0.0000 H   0  0  0  0  0  0  0  0  0  0  0  0
    1.5800    0.1633    0.0000 H   0  0  0  0  0  0  0  0  0  0  0  0
    1.5439   -0.7127    0.0000 H   0  0  0  0  0  0  0  0  0  0  0  0
    2.4200   -0.7489    0.0000 H   0  0  0  0  0  0  0  0  0  0  0  0
  1  3  2  0  0  0  0
  1  9  1  0  0  0  0
  1 12  1  0  0  0  0
  2 13  2  0  0  0  0
  4 21  2  0  0  0  0
  5 29  1  0  0  0  0
  5 30  1  0  0  0  0
  6  8  1  0  0  0  0
  6 11  1  0  0  0  0
  6 13  1  0  0  0  0
  7 21  1  0  0  0  0
  7 24  1  0  0  0  0
  7 43  1  0  0  0  0
  8  9  2  0  0  0  0
  8 14  1  0  0  0  0
  9 16  1  0  0  0  0
 10 12  1  0  0  0  0
 10 13  1  0  0  0  0
 10 18  2  0  0  0  0
 11 20  1  0  0  0  0
 11 31  1  0  0  0  0
 11 32  1  0  0  0  0
 12 19  2  0  0  0  0
 14 15  2  0  0  0  0
 14 33  1  0  0  0  0
 15 17  1  0  0  0  0
 15 21  1  0  0  0  0
 16 17  2  0  0  0  0
 16 34  1  0  0  0  0
 17 35  1  0  0  0  0
 18 22  1  0  0  0  0
 18 36  1  0  0  0  0
 19 23  1  0  0  0  0
 19 37  1  0  0  0  0
 20 38  1  0  0  0  0
 20 39  1  0  0  0  0
 20 40  1  0  0  0  0
 22 23  2  0  0  0  0
 22 41  1  0  0  0  0
 23 42  1  0  0  0  0
 24 25  2  0  0  0  0
 24 26  1  0  0  0  0
 25 27  1  0  0  0  0
 25 44  1  0  0  0  0
 26 28  2  0  0  0  0
 26 45  1  0  0  0  0
 27 29  2  0  0  0  0
 27 46  1  0  0  0  0
 28 29  1  0  0  0  0
 28 47  1  0  0  0  0
 30 48  1  0  0  0  0
 30 49  1  0  0  0  0
 30 50  1  0  0  0  0
M  END
> <PUBCHEM_COMPOUND_CID>
57383428

> <PUBCHEM_COMPOUND_CANONICALIZED>
1

> <PUBCHEM_CACTVS_COMPLEXITY>
664

> <PUBCHEM_CACTVS_HBOND_ACCEPTOR>
5

> <PUBCHEM_CACTVS_HBOND_DONOR>
1

> <PUBCHEM_CACTVS_ROTATABLE_BOND>
4

> <PUBCHEM_CACTVS_SUBSKEYS>
AAADceB7OABAAAAAAAAAAAAAAAAAAAAAAAAwYMAABYAAAAABUAAAHgQQAAAADAzB2AYyx4PABAqIAiVSUEDCCAAlKhAIiB0ObMgMJjLktZuEMShk1hHo6Ye8yACOEEAAQAAEAQAggACAAAgCAAAAAAAAAA==

> <PUBCHEM_IUPAC_OPENEYE_NAME>
5-ethyl-N-(4-methoxyphenyl)-6,11-dioxo-benzo[b][1,4]benzothiazepine-3-carboxamide

> <PUBCHEM_IUPAC_CAS_NAME>
5-ethyl-N-(4-methoxyphenyl)-6,11-dioxo-3-benzo[b][1,4]benzothiazepinecarboxamide

> <PUBCHEM_IUPAC_NAME_MARKUP>
5-ethyl-<I>N</I>-(4-methoxyphenyl)-6,11-dioxobenzo[b][1,4]benzothiazepine-3-carboxamide

> <PUBCHEM_IUPAC_NAME>
5-ethyl-N-(4-methoxyphenyl)-6,11-dioxobenzo[b][1,4]benzothiazepine-3-carboxamide

> <PUBCHEM_IUPAC_SYSTEMATIC_NAME>
5-ethyl-N-(4-methoxyphenyl)-6,11-bis(oxidanylidene)benzo[b][1,4]benzothiazepine-3-carboxamide

> <PUBCHEM_IUPAC_TRADITIONAL_NAME>
5-ethyl-6,11-diketo-N-(4-methoxyphenyl)benzo[b][1,4]benzothiazepine-3-carboxamide

> <PUBCHEM_IUPAC_INCHI>
InChI=1S/C23H20N2O4S/c1-3-25-19-14-15(22(26)24-16-9-11-17(29-2)12-10-16)8-13-21(19)30(28)20-7-5-4-6-18(20)23(25)27/h4-14H,3H2,1-2H3,(H,24,26)

> <PUBCHEM_IUPAC_INCHIKEY>
GAXWVBMFBCTPPD-UHFFFAOYSA-N

> <PUBCHEM_XLOGP3_AA>
3

> <PUBCHEM_EXACT_MASS>
420.11437830

> <PUBCHEM_MOLECULAR_FORMULA>
C23H20N2O4S

> <PUBCHEM_MOLECULAR_WEIGHT>
420.5

> <PUBCHEM_OPENEYE_CAN_SMILES>
CCN1C2=C(C=CC(=C2)C(=O)NC3=CC=C(C=C3)OC)S(=O)C4=CC=CC=C4C1=O

> <PUBCHEM_OPENEYE_ISO_SMILES>
CCN1C2=C(C=CC(=C2)C(=O)NC3=CC=C(C=C3)OC)S(=O)C4=CC=CC=C4C1=O

> <PUBCHEM_CACTVS_TPSA>
94.9

> <PUBCHEM_MONOISOTOPIC_WEIGHT>
420.11437830

> <PUBCHEM_TOTAL_CHARGE>
0

> <PUBCHEM_HEAVY_ATOM_COUNT>
30

> <PUBCHEM_ATOM_DEF_STEREO_COUNT>
0

> <PUBCHEM_ATOM_UDEF_STEREO_COUNT>
1

> <PUBCHEM_BOND_DEF_STEREO_COUNT>
0

> <PUBCHEM_BOND_UDEF_STEREO_COUNT>
0

> <PUBCHEM_ISOTOPIC_ATOM_COUNT>
0

> <PUBCHEM_COMPONENT_COUNT>
1

> <PUBCHEM_CACTVS_TAUTO_COUNT>
-1

> <PUBCHEM_COORDINATE_TYPE>
1
5
255

> <PUBCHEM_BONDANNOTATIONS>
1  12  3
10  12  8
10  18  8
12  19  8
14  15  8
15  17  8
16  17  8
18  22  8
19  23  8
22  23  8
24  25  8
24  26  8
25  27  8
26  28  8
27  29  8
28  29  8
8  14  8
8  9  8
9  16  8

$$$$
