155535878
  -OEChem-09292322402D

 43 45  0     0  0  0  0  0  0999 V2000
    3.6304    0.0000    0.0000 Cl  0  0  0  0  0  0  0  0  0  0  0  0
    6.0542    5.9388    0.0000 S   0  0  0  0  0  0  0  0  0  0  0  0
    7.0048    6.2494    0.0000 O   0  0  0  0  0  0  0  0  0  0  0  0
    5.1037    5.6281    0.0000 O   0  0  0  0  0  0  0  0  0  0  0  0
    5.7436    6.8893    0.0000 N   0  0  0  0  0  0  0  0  0  0  0  0
    0.6166    6.3576    0.0000 N   0  0  0  0  0  0  0  0  0  0  0  0
    2.0948    5.6995    0.0000 N   0  0  0  0  0  0  0  0  0  0  0  0
    0.7099    4.5780    0.0000 N   0  0  0  0  0  0  0  0  0  0  0  0
    4.7974    7.1940    0.0000 C   0  0  0  0  0  0  0  0  0  0  0  0
    4.7974    8.1940    0.0000 C   0  0  0  0  0  0  0  0  0  0  0  0
    3.9313    6.6940    0.0000 C   0  0  0  0  0  0  0  0  0  0  0  0
    3.0653    7.1940    0.0000 C   0  0  0  0  0  0  0  0  0  0  0  0
    6.3272    7.6940    0.0000 C   0  0  0  0  0  0  0  0  0  0  0  0
    5.7436    8.4988    0.0000 C   0  0  0  0  0  0  0  0  0  0  0  0
    3.9313    8.6940    0.0000 C   0  0  0  0  0  0  0  0  0  0  0  0
    3.0653    8.1940    0.0000 C   0  0  0  0  0  0  0  0  0  0  0  0
    2.1993    6.6940    0.0000 C   0  0  0  0  0  0  0  0  0  0  0  0
    6.3649    4.9882    0.0000 C   0  0  0  0  0  0  0  0  0  0  0  0
    1.2857    7.1008    0.0000 C   0  0  0  0  0  0  0  0  0  0  0  0
    7.3434    4.7820    0.0000 C   0  0  0  0  0  0  0  0  0  0  0  0
    5.6971    4.2440    0.0000 C   0  0  0  0  0  0  0  0  0  0  0  0
    1.1166    5.4916    0.0000 C   0  0  0  0  0  0  0  0  0  0  0  0
    1.0778    8.0789    0.0000 C   0  0  0  0  0  0  0  0  0  0  0  0
    7.6541    3.8315    0.0000 C   0  0  0  0  0  0  0  0  0  0  0  0
    6.0077    3.2934    0.0000 C   0  0  0  0  0  0  0  0  0  0  0  0
    6.9862    3.0872    0.0000 C   0  0  0  0  0  0  0  0  0  0  0  0
    3.9313    6.0740    0.0000 H   0  0  0  0  0  0  0  0  0  0  0  0
    6.9472    7.6940    0.0000 H   0  0  0  0  0  0  0  0  0  0  0  0
    5.9362    9.0881    0.0000 H   0  0  0  0  0  0  0  0  0  0  0  0
    3.9313    9.3140    0.0000 H   0  0  0  0  0  0  0  0  0  0  0  0
    2.5284    8.5040    0.0000 H   0  0  0  0  0  0  0  0  0  0  0  0
    7.7575    5.2435    0.0000 H   0  0  0  0  0  0  0  0  0  0  0  0
    5.0904    4.3718    0.0000 H   0  0  0  0  0  0  0  0  0  0  0  0
    0.0000    6.4224    0.0000 H   0  0  0  0  0  0  0  0  0  0  0  0
    1.6843    8.2078    0.0000 H   0  0  0  0  0  0  0  0  0  0  0  0
    0.9489    8.6854    0.0000 H   0  0  0  0  0  0  0  0  0  0  0  0
    0.4714    7.9500    0.0000 H   0  0  0  0  0  0  0  0  0  0  0  0
    8.2607    3.7036    0.0000 H   0  0  0  0  0  0  0  0  0  0  0  0
    5.5937    2.8320    0.0000 H   0  0  0  0  0  0  0  0  0  0  0  0
    7.1788    2.4979    0.0000 H   0  0  0  0  0  0  0  0  0  0  0  0
    0.0933    4.5132    0.0000 H   0  0  0  0  0  0  0  0  0  0  0  0
    1.0743    4.0764    0.0000 H   0  0  0  0  0  0  0  0  0  0  0  0
    4.6304    0.0000    0.0000 H   0  0  0  0  0  0  0  0  0  0  0  0
  1 43  1  0  0  0  0
  2  3  2  0  0  0  0
  2  4  2  0  0  0  0
  2  5  1  0  0  0  0
  2 18  1  0  0  0  0
  5  9  1  0  0  0  0
  5 13  1  0  0  0  0
  6 19  1  0  0  0  0
  6 22  1  0  0  0  0
  6 34  1  0  0  0  0
  7 17  1  0  0  0  0
  7 22  2  0  0  0  0
  8 22  1  0  0  0  0
  8 41  1  0  0  0  0
  8 42  1  0  0  0  0
  9 10  2  0  0  0  0
  9 11  1  0  0  0  0
 10 14  1  0  0  0  0
 10 15  1  0  0  0  0
 11 12  2  0  0  0  0
 11 27  1  0  0  0  0
 12 16  1  0  0  0  0
 12 17  1  0  0  0  0
 13 14  2  0  0  0  0
 13 28  1  0  0  0  0
 14 29  1  0  0  0  0
 15 16  2  0  0  0  0
 15 30  1  0  0  0  0
 16 31  1  0  0  0  0
 17 19  2  0  0  0  0
 18 20  2  0  0  0  0
 18 21  1  0  0  0  0
 19 23  1  0  0  0  0
 20 24  1  0  0  0  0
 20 32  1  0  0  0  0
 21 25  2  0  0  0  0
 21 33  1  0  0  0  0
 23 35  1  0  0  0  0
 23 36  1  0  0  0  0
 23 37  1  0  0  0  0
 24 26  2  0  0  0  0
 24 38  1  0  0  0  0
 25 26  1  0  0  0  0
 25 39  1  0  0  0  0
 26 40  1  0  0  0  0
M  END
> <PUBCHEM_COMPOUND_CID>
155535878

> <PUBCHEM_COMPOUND_CANONICALIZED>
1

> <PUBCHEM_CACTVS_COMPLEXITY>
572

> <PUBCHEM_CACTVS_HBOND_ACCEPTOR>
4

> <PUBCHEM_CACTVS_HBOND_DONOR>
3

> <PUBCHEM_CACTVS_ROTATABLE_BOND>
3

> <PUBCHEM_CACTVS_SUBSKEYS>
AAADceB7sABEAAAAAAAAAAAAAAAAAWLAAAAwYAAAAAAAAFgB/AAAHAQQQAAADAjBXgQ/0fbJkAKgAzRnZHDCgD2xEqAJ2Tg4dJiIaOLAmZGUIAhokALIyCcQgMAOQAAAQAACAACAAACAAAQAAAAAAAAAAA==

> <PUBCHEM_IUPAC_OPENEYE_NAME>
4-[1-(benzenesulfonyl)indol-6-yl]-5-methyl-1H-imidazol-2-amine;hydrochloride

> <PUBCHEM_IUPAC_CAS_NAME>
4-[1-(benzenesulfonyl)-6-indolyl]-5-methyl-1H-imidazol-2-amine;hydrochloride

> <PUBCHEM_IUPAC_NAME_MARKUP>
4-[1-(benzenesulfonyl)indol-6-yl]-5-methyl-1<I>H</I>-imidazol-2-amine;hydrochloride

> <PUBCHEM_IUPAC_NAME>
4-[1-(benzenesulfonyl)indol-6-yl]-5-methyl-1H-imidazol-2-amine;hydrochloride

> <PUBCHEM_IUPAC_SYSTEMATIC_NAME>
5-methyl-4-[1-(phenylsulfonyl)indol-6-yl]-1H-imidazol-2-amine;hydrochloride

> <PUBCHEM_IUPAC_TRADITIONAL_NAME>
[4-(1-besylindol-6-yl)-5-methyl-1H-imidazol-2-yl]amine;hydrochloride

> <PUBCHEM_IUPAC_INCHI>
InChI=1S/C18H16N4O2S.ClH/c1-12-17(21-18(19)20-12)14-8-7-13-9-10-22(16(13)11-14)25(23,24)15-5-3-2-4-6-15;/h2-11H,1H3,(H3,19,20,21);1H

> <PUBCHEM_IUPAC_INCHIKEY>
VRTKOMCRNWJWCU-UHFFFAOYSA-N

> <PUBCHEM_EXACT_MASS>
388.0760747

> <PUBCHEM_MOLECULAR_FORMULA>
C18H17ClN4O2S

> <PUBCHEM_MOLECULAR_WEIGHT>
388.9

> <PUBCHEM_OPENEYE_CAN_SMILES>
CC1=C(N=C(N1)N)C2=CC3=C(C=C2)C=CN3S(=O)(=O)C4=CC=CC=C4.Cl

> <PUBCHEM_OPENEYE_ISO_SMILES>
CC1=C(N=C(N1)N)C2=CC3=C(C=C2)C=CN3S(=O)(=O)C4=CC=CC=C4.Cl

> <PUBCHEM_CACTVS_TPSA>
102

> <PUBCHEM_MONOISOTOPIC_WEIGHT>
388.0760747

> <PUBCHEM_TOTAL_CHARGE>
0

> <PUBCHEM_HEAVY_ATOM_COUNT>
26

> <PUBCHEM_ATOM_DEF_STEREO_COUNT>
0

> <PUBCHEM_ATOM_UDEF_STEREO_COUNT>
0

> <PUBCHEM_BOND_DEF_STEREO_COUNT>
0

> <PUBCHEM_BOND_UDEF_STEREO_COUNT>
0

> <PUBCHEM_ISOTOPIC_ATOM_COUNT>
0

> <PUBCHEM_COMPONENT_COUNT>
2

> <PUBCHEM_CACTVS_TAUTO_COUNT>
-1

> <PUBCHEM_COORDINATE_TYPE>
1
5
255

> <PUBCHEM_BONDANNOTATIONS>
10  14  8
10  15  8
11  12  8
12  16  8
13  14  8
15  16  8
17  19  8
18  20  8
18  21  8
20  24  8
21  25  8
24  26  8
25  26  8
5  13  8
5  9  8
6  19  8
6  22  8
7  17  8
7  22  8
9  10  8
9  11  8

$$$$
