9889736
  -OEChem-09292322152D

 65 68  0     1  0  0  0  0  0999 V2000
    4.0000    0.1023    0.0000 F   0  0  0  0  0  0  0  0  0  0  0  0
    7.0000   -1.6298    0.0000 O   0  0  0  0  0  0  0  0  0  0  0  0
   12.5000    0.9683    0.0000 N   0  0  3  0  0  0  0  0  0  0  0  0
    7.0000    0.1023    0.0000 N   0  0  0  0  0  0  0  0  0  0  0  0
   18.2188    2.4958    0.0000 N   0  0  0  0  0  0  0  0  0  0  0  0
   10.0000    0.1023    0.0000 C   0  0  0  0  0  0  0  0  0  0  0  0
    9.5000   -0.7637    0.0000 C   0  0  0  0  0  0  0  0  0  0  0  0
    9.5000    0.9683    0.0000 C   0  0  0  0  0  0  0  0  0  0  0  0
    8.0000    0.1023    0.0000 C   0  0  0  0  0  0  0  0  0  0  0  0
    8.5000   -0.7637    0.0000 C   0  0  0  0  0  0  0  0  0  0  0  0
    8.5000    0.9683    0.0000 C   0  0  0  0  0  0  0  0  0  0  0  0
   11.0000    0.1023    0.0000 C   0  0  0  0  0  0  0  0  0  0  0  0
   11.5000    0.9683    0.0000 C   0  0  0  0  0  0  0  0  0  0  0  0
   12.9339    1.8693    0.0000 C   0  0  0  0  0  0  0  0  0  0  0  0
   12.9339    0.0673    0.0000 C   0  0  0  0  0  0  0  0  0  0  0  0
   13.9088    2.0918    0.0000 C   0  0  0  0  0  0  0  0  0  0  0  0
   13.9088   -0.1552    0.0000 C   0  0  0  0  0  0  0  0  0  0  0  0
   14.6906    1.4683    0.0000 C   0  0  0  0  0  0  0  0  0  0  0  0
   14.6906    0.4683    0.0000 C   0  0  0  0  0  0  0  0  0  0  0  0
    6.5000   -0.7637    0.0000 C   0  0  0  0  0  0  0  0  0  0  0  0
   15.5846    2.0030    0.0000 C   0  0  0  0  0  0  0  0  0  0  0  0
   15.5846   -0.0664    0.0000 C   0  0  0  0  0  0  0  0  0  0  0  0
    5.5000   -0.7637    0.0000 C   0  0  0  0  0  0  0  0  0  0  0  0
   16.4907    1.4891    0.0000 C   0  0  0  0  0  0  0  0  0  0  0  0
   16.4907    0.4475    0.0000 C   0  0  0  0  0  0  0  0  0  0  0  0
    5.0000   -1.6298    0.0000 C   0  0  0  0  0  0  0  0  0  0  0  0
   17.3547    1.9925    0.0000 C   0  0  0  0  0  0  0  0  0  0  0  0
    4.0000   -1.6298    0.0000 C   0  0  0  0  0  0  0  0  0  0  0  0
    3.5000   -0.7637    0.0000 C   0  0  0  0  0  0  0  0  0  0  0  0
    3.5000   -2.4958    0.0000 C   0  0  0  0  0  0  0  0  0  0  0  0
    2.5000   -0.7637    0.0000 C   0  0  0  0  0  0  0  0  0  0  0  0
    2.5000   -2.4958    0.0000 C   0  0  0  0  0  0  0  0  0  0  0  0
    2.0000   -1.6298    0.0000 C   0  0  0  0  0  0  0  0  0  0  0  0
   10.3100   -0.4347    0.0000 H   0  0  0  0  0  0  0  0  0  0  0  0
    9.3923   -1.3743    0.0000 H   0  0  0  0  0  0  0  0  0  0  0  0
   10.0826   -0.9758    0.0000 H   0  0  0  0  0  0  0  0  0  0  0  0
   10.0826    1.1804    0.0000 H   0  0  0  0  0  0  0  0  0  0  0  0
    9.3923    1.5789    0.0000 H   0  0  0  0  0  0  0  0  0  0  0  0
    7.6900   -0.4347    0.0000 H   0  0  0  0  0  0  0  0  0  0  0  0
    7.9174   -0.9758    0.0000 H   0  0  0  0  0  0  0  0  0  0  0  0
    8.6077   -1.3743    0.0000 H   0  0  0  0  0  0  0  0  0  0  0  0
    8.6077    1.5789    0.0000 H   0  0  0  0  0  0  0  0  0  0  0  0
    7.9174    1.1804    0.0000 H   0  0  0  0  0  0  0  0  0  0  0  0
   10.8923   -0.5083    0.0000 H   0  0  0  0  0  0  0  0  0  0  0  0
   11.5826   -0.1098    0.0000 H   0  0  0  0  0  0  0  0  0  0  0  0
   11.6077    1.5789    0.0000 H   0  0  0  0  0  0  0  0  0  0  0  0
   10.9174    1.1804    0.0000 H   0  0  0  0  0  0  0  0  0  0  0  0
    6.6900    0.6392    0.0000 H   0  0  0  0  0  0  0  0  0  0  0  0
   12.9339    2.4893    0.0000 H   0  0  0  0  0  0  0  0  0  0  0  0
   12.3294    2.0072    0.0000 H   0  0  0  0  0  0  0  0  0  0  0  0
   12.3294   -0.0706    0.0000 H   0  0  0  0  0  0  0  0  0  0  0  0
   12.9339   -0.5527    0.0000 H   0  0  0  0  0  0  0  0  0  0  0  0
   14.3935    2.4784    0.0000 H   0  0  0  0  0  0  0  0  0  0  0  0
   13.6398    2.6504    0.0000 H   0  0  0  0  0  0  0  0  0  0  0  0
   13.6398   -0.7138    0.0000 H   0  0  0  0  0  0  0  0  0  0  0  0
   14.3935   -0.5417    0.0000 H   0  0  0  0  0  0  0  0  0  0  0  0
   15.5774    2.6229    0.0000 H   0  0  0  0  0  0  0  0  0  0  0  0
   15.5774   -0.6863    0.0000 H   0  0  0  0  0  0  0  0  0  0  0  0
    5.1900   -0.2268    0.0000 H   0  0  0  0  0  0  0  0  0  0  0  0
   17.0264    0.1354    0.0000 H   0  0  0  0  0  0  0  0  0  0  0  0
    5.3100   -2.1667    0.0000 H   0  0  0  0  0  0  0  0  0  0  0  0
    3.8100   -3.0327    0.0000 H   0  0  0  0  0  0  0  0  0  0  0  0
    2.1900   -0.2268    0.0000 H   0  0  0  0  0  0  0  0  0  0  0  0
    2.1900   -3.0327    0.0000 H   0  0  0  0  0  0  0  0  0  0  0  0
    1.3800   -1.6298    0.0000 H   0  0  0  0  0  0  0  0  0  0  0  0
  1 29  1  0  0  0  0
  2 20  2  0  0  0  0
  3 13  1  0  0  0  0
  3 14  1  0  0  0  0
  3 15  1  0  0  0  0
  4  9  1  0  0  0  0
  4 20  1  0  0  0  0
  4 48  1  0  0  0  0
  5 27  3  0  0  0  0
  6  7  1  0  0  0  0
  6  8  1  0  0  0  0
  6 12  1  0  0  0  0
  6 34  1  0  0  0  0
  7 10  1  0  0  0  0
  7 35  1  0  0  0  0
  7 36  1  0  0  0  0
  8 11  1  0  0  0  0
  8 37  1  0  0  0  0
  8 38  1  0  0  0  0
  9 10  1  0  0  0  0
  9 11  1  0  0  0  0
  9 39  1  0  0  0  0
 10 40  1  0  0  0  0
 10 41  1  0  0  0  0
 11 42  1  0  0  0  0
 11 43  1  0  0  0  0
 12 13  1  0  0  0  0
 12 44  1  0  0  0  0
 12 45  1  0  0  0  0
 13 46  1  0  0  0  0
 13 47  1  0  0  0  0
 14 16  1  0  0  0  0
 14 49  1  0  0  0  0
 14 50  1  0  0  0  0
 15 17  1  0  0  0  0
 15 51  1  0  0  0  0
 15 52  1  0  0  0  0
 16 18  1  0  0  0  0
 16 53  1  0  0  0  0
 16 54  1  0  0  0  0
 17 19  1  0  0  0  0
 17 55  1  0  0  0  0
 17 56  1  0  0  0  0
 18 19  2  0  0  0  0
 18 21  1  0  0  0  0
 19 22  1  0  0  0  0
 20 23  1  0  0  0  0
 21 24  2  0  0  0  0
 21 57  1  0  0  0  0
 22 25  2  0  0  0  0
 22 58  1  0  0  0  0
 23 26  2  0  0  0  0
 23 59  1  0  0  0  0
 24 25  1  0  0  0  0
 24 27  1  0  0  0  0
 25 60  1  0  0  0  0
 26 28  1  0  0  0  0
 26 61  1  0  0  0  0
 28 29  1  0  0  0  0
 28 30  2  0  0  0  0
 29 31  2  0  0  0  0
 30 32  1  0  0  0  0
 30 62  1  0  0  0  0
 31 33  1  0  0  0  0
 31 63  1  0  0  0  0
 32 33  2  0  0  0  0
 32 64  1  0  0  0  0
 33 65  1  0  0  0  0
M  END
> <PUBCHEM_COMPOUND_CID>
9889736

> <PUBCHEM_COMPOUND_CANONICALIZED>
1

> <PUBCHEM_CACTVS_COMPLEXITY>
707

> <PUBCHEM_CACTVS_HBOND_ACCEPTOR>
4

> <PUBCHEM_CACTVS_HBOND_DONOR>
1

> <PUBCHEM_CACTVS_ROTATABLE_BOND>
6

> <PUBCHEM_CACTVS_SUBSKEYS>
AAADcfB7IQAAAAAAAAAAAAAAAAAAAAAAAAAwYMAABYAAAAABQAAAHwAQAAAADSjBmAwwAIPAAACYBiFSEACiAAAgAAAIiIAIAMgIoCKAkRGEIAAglgCIiY8QgMAOwAACAAAQAACQAAQAACAAAAAAAAAAAA==

> <PUBCHEM_IUPAC_OPENEYE_NAME>
(E)-N-[4-[2-(7-cyano-1,2,4,5-tetrahydro-3-benzazepin-3-yl)ethyl]cyclohexyl]-3-(2-fluorophenyl)prop-2-enamide

> <PUBCHEM_IUPAC_CAS_NAME>
(E)-N-[4-[2-(7-cyano-1,2,4,5-tetrahydro-3-benzazepin-3-yl)ethyl]cyclohexyl]-3-(2-fluorophenyl)-2-propenamide

> <PUBCHEM_IUPAC_NAME_MARKUP>
(<I>E</I>)-<I>N</I>-[4-[2-(7-cyano-1,2,4,5-tetrahydro-3-benzazepin-3-yl)ethyl]cyclohexyl]-3-(2-fluorophenyl)prop-2-enamide

> <PUBCHEM_IUPAC_NAME>
(E)-N-[4-[2-(7-cyano-1,2,4,5-tetrahydro-3-benzazepin-3-yl)ethyl]cyclohexyl]-3-(2-fluorophenyl)prop-2-enamide

> <PUBCHEM_IUPAC_SYSTEMATIC_NAME>
(E)-N-[4-[2-(7-cyano-1,2,4,5-tetrahydro-3-benzazepin-3-yl)ethyl]cyclohexyl]-3-(2-fluorophenyl)prop-2-enamide

> <PUBCHEM_IUPAC_TRADITIONAL_NAME>
(E)-N-[4-[2-(7-cyano-1,2,4,5-tetrahydro-3-benzazepin-3-yl)ethyl]cyclohexyl]-3-(2-fluorophenyl)acrylamide

> <PUBCHEM_IUPAC_INCHI>
InChI=1S/C28H32FN3O/c29-27-4-2-1-3-24(27)9-12-28(33)31-26-10-6-21(7-11-26)13-16-32-17-14-23-8-5-22(20-30)19-25(23)15-18-32/h1-5,8-9,12,19,21,26H,6-7,10-11,13-18H2,(H,31,33)/b12-9+

> <PUBCHEM_IUPAC_INCHIKEY>
UICAAFBEFWZYOJ-FMIVXFBMSA-N

> <PUBCHEM_XLOGP3_AA>
5.4

> <PUBCHEM_EXACT_MASS>
445.25294081

> <PUBCHEM_MOLECULAR_FORMULA>
C28H32FN3O

> <PUBCHEM_MOLECULAR_WEIGHT>
445.6

> <PUBCHEM_OPENEYE_CAN_SMILES>
C1CC(CCC1CCN2CCC3=C(CC2)C=C(C=C3)C#N)NC(=O)C=CC4=CC=CC=C4F

> <PUBCHEM_OPENEYE_ISO_SMILES>
C1CC(CCC1CCN2CCC3=C(CC2)C=C(C=C3)C#N)NC(=O)/C=C/C4=CC=CC=C4F

> <PUBCHEM_CACTVS_TPSA>
56.1

> <PUBCHEM_MONOISOTOPIC_WEIGHT>
445.25294081

> <PUBCHEM_TOTAL_CHARGE>
0

> <PUBCHEM_HEAVY_ATOM_COUNT>
33

> <PUBCHEM_ATOM_DEF_STEREO_COUNT>
0

> <PUBCHEM_ATOM_UDEF_STEREO_COUNT>
0

> <PUBCHEM_BOND_DEF_STEREO_COUNT>
1

> <PUBCHEM_BOND_UDEF_STEREO_COUNT>
0

> <PUBCHEM_ISOTOPIC_ATOM_COUNT>
0

> <PUBCHEM_COMPONENT_COUNT>
1

> <PUBCHEM_CACTVS_TAUTO_COUNT>
-1

> <PUBCHEM_COORDINATE_TYPE>
1
5
255

> <PUBCHEM_BONDANNOTATIONS>
18  19  8
18  21  8
19  22  8
21  24  8
22  25  8
24  25  8
28  29  8
28  30  8
29  31  8
30  32  8
31  33  8
32  33  8

$$$$
