76311272
  -OEChem-09292322342D

 69 71  0     0  0  0  0  0  0999 V2000
   12.7988    0.0000    0.0000 F   0  0  0  0  0  0  0  0  0  0  0  0
   12.2988    2.5981    0.0000 O   0  0  0  0  0  0  0  0  0  0  0  0
    5.2988    0.8660    0.0000 O   0  0  0  0  0  0  0  0  0  0  0  0
    8.7584    8.8056    0.0000 O   0  0  0  0  0  0  0  0  0  0  0  0
    6.1604    9.3056    0.0000 O   0  0  0  0  0  0  0  0  0  0  0  0
    7.8924   10.3055    0.0000 O   0  0  0  0  0  0  0  0  0  0  0  0
    7.0264    7.8056    0.0000 O   0  0  0  0  0  0  0  0  0  0  0  0
    9.2988    4.3301    0.0000 N   0  0  0  0  0  0  0  0  0  0  0  0
   11.2988    4.3301    0.0000 N   0  0  0  0  0  0  0  0  0  0  0  0
    5.2988    2.5981    0.0000 N   0  0  0  0  0  0  0  0  0  0  0  0
    3.2152    0.9273    0.0000 N   0  0  0  0  0  0  0  0  0  0  0  0
    9.7988    5.1962    0.0000 C   0  0  0  0  0  0  0  0  0  0  0  0
    9.7988    3.4641    0.0000 C   0  0  0  0  0  0  0  0  0  0  0  0
   10.7988    5.1962    0.0000 C   0  0  0  0  0  0  0  0  0  0  0  0
   10.7988    3.4641    0.0000 C   0  0  0  0  0  0  0  0  0  0  0  0
    8.2988    4.3301    0.0000 C   0  0  0  0  0  0  0  0  0  0  0  0
   12.2988    4.3301    0.0000 C   0  0  0  0  0  0  0  0  0  0  0  0
   12.7988    3.4641    0.0000 C   0  0  0  0  0  0  0  0  0  0  0  0
    7.7988    3.4641    0.0000 C   0  0  0  0  0  0  0  0  0  0  0  0
   12.7988    5.1962    0.0000 C   0  0  0  0  0  0  0  0  0  0  0  0
   13.7988    3.4641    0.0000 C   0  0  0  0  0  0  0  0  0  0  0  0
   13.7988    5.1962    0.0000 C   0  0  0  0  0  0  0  0  0  0  0  0
    6.7988    3.4641    0.0000 C   0  0  0  0  0  0  0  0  0  0  0  0
   14.2988    4.3301    0.0000 C   0  0  0  0  0  0  0  0  0  0  0  0
    6.2988    2.5981    0.0000 C   0  0  0  0  0  0  0  0  0  0  0  0
   12.7988    1.7320    0.0000 C   0  0  0  0  0  0  0  0  0  0  0  0
    3.7988    1.7320    0.0000 C   0  0  0  0  0  0  0  0  0  0  0  0
    4.7988    1.7320    0.0000 C   0  0  0  0  0  0  0  0  0  0  0  0
    2.2690    1.2320    0.0000 C   0  0  0  0  0  0  0  0  0  0  0  0
    2.2690    2.2320    0.0000 C   0  0  0  0  0  0  0  0  0  0  0  0
   12.2988    0.8660    0.0000 C   0  0  0  0  0  0  0  0  0  0  0  0
    3.2152    2.5368    0.0000 C   0  0  0  0  0  0  0  0  0  0  0  0
    1.4030    0.7321    0.0000 C   0  0  0  0  0  0  0  0  0  0  0  0
    1.4030    2.7320    0.0000 C   0  0  0  0  0  0  0  0  0  0  0  0
    0.5369    1.2320    0.0000 C   0  0  0  0  0  0  0  0  0  0  0  0
    0.5369    2.2320    0.0000 C   0  0  0  0  0  0  0  0  0  0  0  0
    7.8924    9.3056    0.0000 C   0  0  0  0  0  0  0  0  0  0  0  0
    7.0264    8.8056    0.0000 C   0  0  0  0  0  0  0  0  0  0  0  0
    9.9065    5.8067    0.0000 H   0  0  0  0  0  0  0  0  0  0  0  0
    9.2162    5.4082    0.0000 H   0  0  0  0  0  0  0  0  0  0  0  0
    9.2162    3.2520    0.0000 H   0  0  0  0  0  0  0  0  0  0  0  0
    9.9065    2.8535    0.0000 H   0  0  0  0  0  0  0  0  0  0  0  0
   11.3814    5.4082    0.0000 H   0  0  0  0  0  0  0  0  0  0  0  0
   10.6912    5.8067    0.0000 H   0  0  0  0  0  0  0  0  0  0  0  0
   10.6912    2.8535    0.0000 H   0  0  0  0  0  0  0  0  0  0  0  0
   11.3814    3.2520    0.0000 H   0  0  0  0  0  0  0  0  0  0  0  0
    8.4065    4.9407    0.0000 H   0  0  0  0  0  0  0  0  0  0  0  0
    7.7162    4.5422    0.0000 H   0  0  0  0  0  0  0  0  0  0  0  0
    8.1088    2.9272    0.0000 H   0  0  0  0  0  0  0  0  0  0  0  0
   12.4888    5.7331    0.0000 H   0  0  0  0  0  0  0  0  0  0  0  0
   14.1088    2.9272    0.0000 H   0  0  0  0  0  0  0  0  0  0  0  0
   14.1088    5.7331    0.0000 H   0  0  0  0  0  0  0  0  0  0  0  0
    6.4888    4.0010    0.0000 H   0  0  0  0  0  0  0  0  0  0  0  0
   14.9188    4.3301    0.0000 H   0  0  0  0  0  0  0  0  0  0  0  0
    6.1912    1.9875    0.0000 H   0  0  0  0  0  0  0  0  0  0  0  0
    6.8814    2.3860    0.0000 H   0  0  0  0  0  0  0  0  0  0  0  0
   13.2738    1.3335    0.0000 H   0  0  0  0  0  0  0  0  0  0  0  0
   13.2738    2.1306    0.0000 H   0  0  0  0  0  0  0  0  0  0  0  0
    4.9888    3.1350    0.0000 H   0  0  0  0  0  0  0  0  0  0  0  0
   11.8239    1.2646    0.0000 H   0  0  0  0  0  0  0  0  0  0  0  0
   11.8239    0.4675    0.0000 H   0  0  0  0  0  0  0  0  0  0  0  0
    3.4078    0.3380    0.0000 H   0  0  0  0  0  0  0  0  0  0  0  0
    3.4078    3.1261    0.0000 H   0  0  0  0  0  0  0  0  0  0  0  0
    1.4030    0.1121    0.0000 H   0  0  0  0  0  0  0  0  0  0  0  0
    1.4030    3.3520    0.0000 H   0  0  0  0  0  0  0  0  0  0  0  0
    0.0000    0.9221    0.0000 H   0  0  0  0  0  0  0  0  0  0  0  0
    0.0000    2.5420    0.0000 H   0  0  0  0  0  0  0  0  0  0  0  0
    9.2954    9.1156    0.0000 H   0  0  0  0  0  0  0  0  0  0  0  0
    5.6234    8.9956    0.0000 H   0  0  0  0  0  0  0  0  0  0  0  0
  1 31  1  0  0  0  0
  2 18  1  0  0  0  0
  2 26  1  0  0  0  0
  3 28  2  0  0  0  0
  4 37  1  0  0  0  0
  4 68  1  0  0  0  0
  5 38  1  0  0  0  0
  5 69  1  0  0  0  0
  6 37  2  0  0  0  0
  7 38  2  0  0  0  0
  8 12  1  0  0  0  0
  8 13  1  0  0  0  0
  8 16  1  0  0  0  0
  9 14  1  0  0  0  0
  9 15  1  0  0  0  0
  9 17  1  0  0  0  0
 10 25  1  0  0  0  0
 10 28  1  0  0  0  0
 10 59  1  0  0  0  0
 11 27  1  0  0  0  0
 11 29  1  0  0  0  0
 11 62  1  0  0  0  0
 12 14  1  0  0  0  0
 12 39  1  0  0  0  0
 12 40  1  0  0  0  0
 13 15  1  0  0  0  0
 13 41  1  0  0  0  0
 13 42  1  0  0  0  0
 14 43  1  0  0  0  0
 14 44  1  0  0  0  0
 15 45  1  0  0  0  0
 15 46  1  0  0  0  0
 16 19  1  0  0  0  0
 16 47  1  0  0  0  0
 16 48  1  0  0  0  0
 17 18  1  0  0  0  0
 17 20  2  0  0  0  0
 18 21  2  0  0  0  0
 19 23  2  0  0  0  0
 19 49  1  0  0  0  0
 20 22  1  0  0  0  0
 20 50  1  0  0  0  0
 21 24  1  0  0  0  0
 21 51  1  0  0  0  0
 22 24  2  0  0  0  0
 22 52  1  0  0  0  0
 23 25  1  0  0  0  0
 23 53  1  0  0  0  0
 24 54  1  0  0  0  0
 25 55  1  0  0  0  0
 25 56  1  0  0  0  0
 26 31  1  0  0  0  0
 26 57  1  0  0  0  0
 26 58  1  0  0  0  0
 27 28  1  0  0  0  0
 27 32  2  0  0  0  0
 29 30  1  0  0  0  0
 29 33  2  0  0  0  0
 30 32  1  0  0  0  0
 30 34  2  0  0  0  0
 31 60  1  0  0  0  0
 31 61  1  0  0  0  0
 32 63  1  0  0  0  0
 33 35  1  0  0  0  0
 33 64  1  0  0  0  0
 34 36  1  0  0  0  0
 34 65  1  0  0  0  0
 35 36  2  0  0  0  0
 35 66  1  0  0  0  0
 36 67  1  0  0  0  0
 37 38  1  0  0  0  0
M  END
> <PUBCHEM_COMPOUND_CID>
76311272

> <PUBCHEM_COMPOUND_CANONICALIZED>
1

> <PUBCHEM_CACTVS_COMPLEXITY>
682

> <PUBCHEM_CACTVS_HBOND_ACCEPTOR>
9

> <PUBCHEM_CACTVS_HBOND_DONOR>
4

> <PUBCHEM_CACTVS_ROTATABLE_BOND>
10

> <PUBCHEM_CACTVS_SUBSKEYS>
AAADceB7uQAAAAAAAAAAAAAAAAAAAWAAAAA8YIAAAAAAAFgB9AAAHwAQCAAADAzhngYwzvPJlgCoAyXyXAKCiCAnIiAImaH/bNgPZvLEtbuXOSjk1hHZ6YeYyYCeAAAAAAACEAAAAAAAAAQgAAAAAAAAAA==

> <PUBCHEM_IUPAC_OPENEYE_NAME>
N-[(E)-4-[4-[2-(2-fluoroethoxy)phenyl]piperazin-1-yl]but-2-enyl]-1H-indole-2-carboxamide;oxalic acid

> <PUBCHEM_IUPAC_CAS_NAME>
N-[(E)-4-[4-[2-(2-fluoroethoxy)phenyl]-1-piperazinyl]but-2-enyl]-1H-indole-2-carboxamide;oxalic acid

> <PUBCHEM_IUPAC_NAME_MARKUP>
<I>N</I>-[(<I>E</I>)-4-[4-[2-(2-fluoroethoxy)phenyl]piperazin-1-yl]but-2-enyl]-1<I>H</I>-indole-2-carboxamide;oxalic acid

> <PUBCHEM_IUPAC_NAME>
N-[(E)-4-[4-[2-(2-fluoroethoxy)phenyl]piperazin-1-yl]but-2-enyl]-1H-indole-2-carboxamide;oxalic acid

> <PUBCHEM_IUPAC_SYSTEMATIC_NAME>
ethanedioic acid;N-[(E)-4-[4-[2-(2-fluoranylethoxy)phenyl]piperazin-1-yl]but-2-enyl]-1H-indole-2-carboxamide

> <PUBCHEM_IUPAC_TRADITIONAL_NAME>
N-[(E)-4-[4-[2-(2-fluoroethoxy)phenyl]piperazino]but-2-enyl]-1H-indole-2-carboxamide;oxalic acid

> <PUBCHEM_IUPAC_INCHI>
InChI=1S/C25H29FN4O2.C2H2O4/c26-11-18-32-24-10-4-3-9-23(24)30-16-14-29(15-17-30)13-6-5-12-27-25(31)22-19-20-7-1-2-8-21(20)28-22;3-1(4)2(5)6/h1-10,19,28H,11-18H2,(H,27,31);(H,3,4)(H,5,6)/b6-5+;

> <PUBCHEM_IUPAC_INCHIKEY>
GGKIOWJSZJQLII-IPZCTEOASA-N

> <PUBCHEM_EXACT_MASS>
526.22276288

> <PUBCHEM_MOLECULAR_FORMULA>
C27H31FN4O6

> <PUBCHEM_MOLECULAR_WEIGHT>
526.6

> <PUBCHEM_OPENEYE_CAN_SMILES>
C1CN(CCN1CC=CCNC(=O)C2=CC3=CC=CC=C3N2)C4=CC=CC=C4OCCF.C(=O)(C(=O)O)O

> <PUBCHEM_OPENEYE_ISO_SMILES>
C1CN(CCN1C/C=C/CNC(=O)C2=CC3=CC=CC=C3N2)C4=CC=CC=C4OCCF.C(=O)(C(=O)O)O

> <PUBCHEM_CACTVS_TPSA>
135

> <PUBCHEM_MONOISOTOPIC_WEIGHT>
526.22276288

> <PUBCHEM_TOTAL_CHARGE>
0

> <PUBCHEM_HEAVY_ATOM_COUNT>
38

> <PUBCHEM_ATOM_DEF_STEREO_COUNT>
0

> <PUBCHEM_ATOM_UDEF_STEREO_COUNT>
0

> <PUBCHEM_BOND_DEF_STEREO_COUNT>
1

> <PUBCHEM_BOND_UDEF_STEREO_COUNT>
0

> <PUBCHEM_ISOTOPIC_ATOM_COUNT>
0

> <PUBCHEM_COMPONENT_COUNT>
2

> <PUBCHEM_CACTVS_TAUTO_COUNT>
-1

> <PUBCHEM_COORDINATE_TYPE>
1
5
255

> <PUBCHEM_BONDANNOTATIONS>
11  27  8
11  29  8
17  18  8
17  20  8
18  21  8
20  22  8
21  24  8
22  24  8
27  32  8
29  30  8
29  33  8
30  32  8
30  34  8
33  35  8
34  36  8
35  36  8

$$$$
