25069073
  -OEChem-09292322302D

 64 68  0     0  0  0  0  0  0999 V2000
    5.3351   -2.6593    0.0000 O   0  0  0  0  0  0  0  0  0  0  0  0
    4.0617   -6.3754    0.0000 O   0  0  0  0  0  0  0  0  0  0  0  0
    7.0671    3.3407    0.0000 N   0  0  0  0  0  0  0  0  0  0  0  0
    7.0671    1.3407    0.0000 N   0  0  0  0  0  0  0  0  0  0  0  0
    2.4051   -5.7341    0.0000 N   0  0  0  0  0  0  0  0  0  0  0  0
    7.9332    2.8407    0.0000 C   0  0  0  0  0  0  0  0  0  0  0  0
    6.2011    2.8407    0.0000 C   0  0  0  0  0  0  0  0  0  0  0  0
    7.9332    1.8407    0.0000 C   0  0  0  0  0  0  0  0  0  0  0  0
    6.2011    1.8407    0.0000 C   0  0  0  0  0  0  0  0  0  0  0  0
    7.0671    4.3407    0.0000 C   0  0  0  0  0  0  0  0  0  0  0  0
    7.9332    4.8407    0.0000 C   0  0  0  0  0  0  0  0  0  0  0  0
    8.8271    4.3061    0.0000 C   0  0  0  0  0  0  0  0  0  0  0  0
    7.9332    5.8407    0.0000 C   0  0  0  0  0  0  0  0  0  0  0  0
    7.0671    0.3407    0.0000 C   0  0  0  0  0  0  0  0  0  0  0  0
    9.7332    4.8199    0.0000 C   0  0  0  0  0  0  0  0  0  0  0  0
    8.8271    6.3754    0.0000 C   0  0  0  0  0  0  0  0  0  0  0  0
    9.7332    5.8615    0.0000 C   0  0  0  0  0  0  0  0  0  0  0  0
    6.2011   -0.1593    0.0000 C   0  0  0  0  0  0  0  0  0  0  0  0
    6.2011    4.8407    0.0000 C   0  0  0  0  0  0  0  0  0  0  0  0
    7.0671    6.3407    0.0000 C   0  0  0  0  0  0  0  0  0  0  0  0
    6.2011   -1.1593    0.0000 C   0  0  0  0  0  0  0  0  0  0  0  0
    6.2011    5.8407    0.0000 C   0  0  0  0  0  0  0  0  0  0  0  0
    5.3351   -1.6593    0.0000 C   0  0  0  0  0  0  0  0  0  0  0  0
    4.4691   -3.1593    0.0000 C   0  0  0  0  0  0  0  0  0  0  0  0
    2.7370   -4.1593    0.0000 C   0  0  0  0  0  0  0  0  0  0  0  0
    3.6030   -4.6593    0.0000 C   0  0  0  0  0  0  0  0  0  0  0  0
    4.4691   -4.1593    0.0000 C   0  0  0  0  0  0  0  0  0  0  0  0
    2.0000   -4.8264    0.0000 C   0  0  0  0  0  0  0  0  0  0  0  0
    3.6030   -2.6593    0.0000 C   0  0  0  0  0  0  0  0  0  0  0  0
    2.7370   -3.1593    0.0000 C   0  0  0  0  0  0  0  0  0  0  0  0
    3.3938   -5.6311    0.0000 C   0  0  0  0  0  0  0  0  0  0  0  0
    8.5438    2.7331    0.0000 H   0  0  0  0  0  0  0  0  0  0  0  0
    8.1452    3.4233    0.0000 H   0  0  0  0  0  0  0  0  0  0  0  0
    5.9891    3.4233    0.0000 H   0  0  0  0  0  0  0  0  0  0  0  0
    5.5905    2.7331    0.0000 H   0  0  0  0  0  0  0  0  0  0  0  0
    8.1452    1.2581    0.0000 H   0  0  0  0  0  0  0  0  0  0  0  0
    8.5438    1.9484    0.0000 H   0  0  0  0  0  0  0  0  0  0  0  0
    5.5905    1.9484    0.0000 H   0  0  0  0  0  0  0  0  0  0  0  0
    5.9891    1.2581    0.0000 H   0  0  0  0  0  0  0  0  0  0  0  0
    8.4225    3.8363    0.0000 H   0  0  0  0  0  0  0  0  0  0  0  0
    9.2207    3.8270    0.0000 H   0  0  0  0  0  0  0  0  0  0  0  0
    7.2792   -0.2419    0.0000 H   0  0  0  0  0  0  0  0  0  0  0  0
    7.6777    0.4484    0.0000 H   0  0  0  0  0  0  0  0  0  0  0  0
    9.9422    4.2362    0.0000 H   0  0  0  0  0  0  0  0  0  0  0  0
   10.3440    4.9260    0.0000 H   0  0  0  0  0  0  0  0  0  0  0  0
    9.2207    6.8544    0.0000 H   0  0  0  0  0  0  0  0  0  0  0  0
    8.4225    6.8452    0.0000 H   0  0  0  0  0  0  0  0  0  0  0  0
   10.3440    5.7554    0.0000 H   0  0  0  0  0  0  0  0  0  0  0  0
    9.9422    6.4452    0.0000 H   0  0  0  0  0  0  0  0  0  0  0  0
    5.9891    0.4233    0.0000 H   0  0  0  0  0  0  0  0  0  0  0  0
    5.5905   -0.2669    0.0000 H   0  0  0  0  0  0  0  0  0  0  0  0
    5.6642    4.5307    0.0000 H   0  0  0  0  0  0  0  0  0  0  0  0
    7.0671    6.9607    0.0000 H   0  0  0  0  0  0  0  0  0  0  0  0
    6.4132   -1.7419    0.0000 H   0  0  0  0  0  0  0  0  0  0  0  0
    6.8117   -1.0516    0.0000 H   0  0  0  0  0  0  0  0  0  0  0  0
    5.6642    6.1507    0.0000 H   0  0  0  0  0  0  0  0  0  0  0  0
    5.1230   -1.0767    0.0000 H   0  0  0  0  0  0  0  0  0  0  0  0
    4.7245   -1.7669    0.0000 H   0  0  0  0  0  0  0  0  0  0  0  0
    5.0060   -4.4693    0.0000 H   0  0  0  0  0  0  0  0  0  0  0  0
    1.6346   -4.3255    0.0000 H   0  0  0  0  0  0  0  0  0  0  0  0
    1.4635   -5.1371    0.0000 H   0  0  0  0  0  0  0  0  0  0  0  0
    3.6030   -2.0393    0.0000 H   0  0  0  0  0  0  0  0  0  0  0  0
    2.2001   -2.8493    0.0000 H   0  0  0  0  0  0  0  0  0  0  0  0
    2.0951   -6.2711    0.0000 H   0  0  0  0  0  0  0  0  0  0  0  0
  1 23  1  0  0  0  0
  1 24  1  0  0  0  0
  2 31  2  0  0  0  0
  3  6  1  0  0  0  0
  3  7  1  0  0  0  0
  3 10  1  0  0  0  0
  4  8  1  0  0  0  0
  4  9  1  0  0  0  0
  4 14  1  0  0  0  0
  5 28  1  0  0  0  0
  5 31  1  0  0  0  0
  5 64  1  0  0  0  0
  6  8  1  0  0  0  0
  6 32  1  0  0  0  0
  6 33  1  0  0  0  0
  7  9  1  0  0  0  0
  7 34  1  0  0  0  0
  7 35  1  0  0  0  0
  8 36  1  0  0  0  0
  8 37  1  0  0  0  0
  9 38  1  0  0  0  0
  9 39  1  0  0  0  0
 10 11  1  0  0  0  0
 10 19  2  0  0  0  0
 11 12  1  0  0  0  0
 11 13  2  0  0  0  0
 12 15  1  0  0  0  0
 12 40  1  0  0  0  0
 12 41  1  0  0  0  0
 13 16  1  0  0  0  0
 13 20  1  0  0  0  0
 14 18  1  0  0  0  0
 14 42  1  0  0  0  0
 14 43  1  0  0  0  0
 15 17  1  0  0  0  0
 15 44  1  0  0  0  0
 15 45  1  0  0  0  0
 16 17  1  0  0  0  0
 16 46  1  0  0  0  0
 16 47  1  0  0  0  0
 17 48  1  0  0  0  0
 17 49  1  0  0  0  0
 18 21  1  0  0  0  0
 18 50  1  0  0  0  0
 18 51  1  0  0  0  0
 19 22  1  0  0  0  0
 19 52  1  0  0  0  0
 20 22  2  0  0  0  0
 20 53  1  0  0  0  0
 21 23  1  0  0  0  0
 21 54  1  0  0  0  0
 21 55  1  0  0  0  0
 22 56  1  0  0  0  0
 23 57  1  0  0  0  0
 23 58  1  0  0  0  0
 24 27  2  0  0  0  0
 24 29  1  0  0  0  0
 25 26  2  0  0  0  0
 25 28  1  0  0  0  0
 25 30  1  0  0  0  0
 26 27  1  0  0  0  0
 26 31  1  0  0  0  0
 27 59  1  0  0  0  0
 28 60  1  0  0  0  0
 28 61  1  0  0  0  0
 29 30  2  0  0  0  0
 29 62  1  0  0  0  0
 30 63  1  0  0  0  0
M  END
> <PUBCHEM_COMPOUND_CID>
25069073

> <PUBCHEM_COMPOUND_CANONICALIZED>
1

> <PUBCHEM_CACTVS_COMPLEXITY>
591

> <PUBCHEM_CACTVS_HBOND_ACCEPTOR>
4

> <PUBCHEM_CACTVS_HBOND_DONOR>
1

> <PUBCHEM_CACTVS_ROTATABLE_BOND>
7

> <PUBCHEM_CACTVS_SUBSKEYS>
AAADcfB7MAAAAAAAAAAAAAAAAAAAAWAAAAA8YMEAAAAAAFjBQAAAHgAQAAAADAzhmAYwxoPABACIAiVSUACCCAAlIgAIiIEObMgMZjLEtZuWOSjkxhHI6Ye+2JKOoAABQAASAABAAAKAACQAAAAAAAAAAA==

> <PUBCHEM_IUPAC_OPENEYE_NAME>
6-[4-(4-tetralin-5-ylpiperazin-1-yl)butoxy]isoindolin-1-one

> <PUBCHEM_IUPAC_CAS_NAME>
6-[4-[4-(5,6,7,8-tetrahydronaphthalen-1-yl)-1-piperazinyl]butoxy]-2,3-dihydroisoindol-1-one

> <PUBCHEM_IUPAC_NAME_MARKUP>
6-[4-[4-(5,6,7,8-tetrahydronaphthalen-1-yl)piperazin-1-yl]butoxy]-2,3-dihydroisoindol-1-one

> <PUBCHEM_IUPAC_NAME>
6-[4-[4-(5,6,7,8-tetrahydronaphthalen-1-yl)piperazin-1-yl]butoxy]-2,3-dihydroisoindol-1-one

> <PUBCHEM_IUPAC_SYSTEMATIC_NAME>
6-[4-[4-(5,6,7,8-tetrahydronaphthalen-1-yl)piperazin-1-yl]butoxy]-2,3-dihydroisoindol-1-one

> <PUBCHEM_IUPAC_TRADITIONAL_NAME>
6-[4-(4-tetralin-5-ylpiperazino)butoxy]isoindolin-1-one

> <PUBCHEM_IUPAC_INCHI>
InChI=1S/C26H33N3O2/c30-26-24-18-22(11-10-21(24)19-27-26)31-17-4-3-12-28-13-15-29(16-14-28)25-9-5-7-20-6-1-2-8-23(20)25/h5,7,9-11,18H,1-4,6,8,12-17,19H2,(H,27,30)

> <PUBCHEM_IUPAC_INCHIKEY>
ONXAINPGJUQBMC-UHFFFAOYSA-N

> <PUBCHEM_XLOGP3_AA>
4.5

> <PUBCHEM_EXACT_MASS>
419.25727730

> <PUBCHEM_MOLECULAR_FORMULA>
C26H33N3O2

> <PUBCHEM_MOLECULAR_WEIGHT>
419.6

> <PUBCHEM_OPENEYE_CAN_SMILES>
C1CCC2=C(C1)C=CC=C2N3CCN(CC3)CCCCOC4=CC5=C(CNC5=O)C=C4

> <PUBCHEM_OPENEYE_ISO_SMILES>
C1CCC2=C(C1)C=CC=C2N3CCN(CC3)CCCCOC4=CC5=C(CNC5=O)C=C4

> <PUBCHEM_CACTVS_TPSA>
44.8

> <PUBCHEM_MONOISOTOPIC_WEIGHT>
419.25727730

> <PUBCHEM_TOTAL_CHARGE>
0

> <PUBCHEM_HEAVY_ATOM_COUNT>
31

> <PUBCHEM_ATOM_DEF_STEREO_COUNT>
0

> <PUBCHEM_ATOM_UDEF_STEREO_COUNT>
0

> <PUBCHEM_BOND_DEF_STEREO_COUNT>
0

> <PUBCHEM_BOND_UDEF_STEREO_COUNT>
0

> <PUBCHEM_ISOTOPIC_ATOM_COUNT>
0

> <PUBCHEM_COMPONENT_COUNT>
1

> <PUBCHEM_CACTVS_TAUTO_COUNT>
-1

> <PUBCHEM_COORDINATE_TYPE>
1
5
255

> <PUBCHEM_BONDANNOTATIONS>
10  11  8
10  19  8
11  13  8
13  20  8
19  22  8
20  22  8
24  27  8
24  29  8
25  26  8
25  30  8
26  27  8
29  30  8

$$$$
