76335845
  -OEChem-09292322072D

 31 32  0     0  0  0  0  0  0999 V2000
    4.6660   -2.4827    0.0000 O   0  0  0  0  0  0  0  0  0  0  0  0
    6.3981   -2.4827    0.0000 O   0  0  0  0  0  0  0  0  0  0  0  0
    6.3981    0.5173    0.0000 N   0  0  0  0  0  0  0  0  0  0  0  0
    6.3981   -0.4827    0.0000 C   0  0  0  0  0  0  0  0  0  0  0  0
    5.5321   -0.9827    0.0000 C   0  0  0  0  0  0  0  0  0  0  0  0
    7.2641    1.0173    0.0000 C   0  0  0  0  0  0  0  0  0  0  0  0
    7.2641    2.0173    0.0000 C   0  0  0  0  0  0  0  0  0  0  0  0
    3.8000   -0.9827    0.0000 C   0  0  0  0  0  0  0  0  0  0  0  0
    4.6660   -0.4827    0.0000 C   0  0  0  0  0  0  0  0  0  0  0  0
    3.8000   -1.9827    0.0000 C   0  0  0  0  0  0  0  0  0  0  0  0
    5.5321   -1.9827    0.0000 C   0  0  0  0  0  0  0  0  0  0  0  0
    8.1301    2.5173    0.0000 C   0  0  0  0  0  0  0  0  0  0  0  0
    2.9061   -0.4480    0.0000 C   0  0  0  0  0  0  0  0  0  0  0  0
    2.9061   -2.5173    0.0000 C   0  0  0  0  0  0  0  0  0  0  0  0
    2.0000   -0.9619    0.0000 C   0  0  0  0  0  0  0  0  0  0  0  0
    2.0000   -2.0035    0.0000 C   0  0  0  0  0  0  0  0  0  0  0  0
    6.6101   -1.0653    0.0000 H   0  0  0  0  0  0  0  0  0  0  0  0
    7.0087   -0.3750    0.0000 H   0  0  0  0  0  0  0  0  0  0  0  0
    7.4762    0.4347    0.0000 H   0  0  0  0  0  0  0  0  0  0  0  0
    7.8747    1.1250    0.0000 H   0  0  0  0  0  0  0  0  0  0  0  0
    5.8612    0.8273    0.0000 H   0  0  0  0  0  0  0  0  0  0  0  0
    7.0521    2.5999    0.0000 H   0  0  0  0  0  0  0  0  0  0  0  0
    6.6535    1.9097    0.0000 H   0  0  0  0  0  0  0  0  0  0  0  0
    4.6660    0.1373    0.0000 H   0  0  0  0  0  0  0  0  0  0  0  0
    8.4401    1.9804    0.0000 H   0  0  0  0  0  0  0  0  0  0  0  0
    8.6671    2.8273    0.0000 H   0  0  0  0  0  0  0  0  0  0  0  0
    7.8201    3.0543    0.0000 H   0  0  0  0  0  0  0  0  0  0  0  0
    2.9132    0.1720    0.0000 H   0  0  0  0  0  0  0  0  0  0  0  0
    2.9132   -3.1373    0.0000 H   0  0  0  0  0  0  0  0  0  0  0  0
    1.4643   -0.6498    0.0000 H   0  0  0  0  0  0  0  0  0  0  0  0
    1.4643   -2.3156    0.0000 H   0  0  0  0  0  0  0  0  0  0  0  0
  1 10  1  0  0  0  0
  1 11  1  0  0  0  0
  2 11  2  0  0  0  0
  3  4  1  0  0  0  0
  3  6  1  0  0  0  0
  3 21  1  0  0  0  0
  4  5  1  0  0  0  0
  4 17  1  0  0  0  0
  4 18  1  0  0  0  0
  5  9  2  0  0  0  0
  5 11  1  0  0  0  0
  6  7  1  0  0  0  0
  6 19  1  0  0  0  0
  6 20  1  0  0  0  0
  7 12  1  0  0  0  0
  7 22  1  0  0  0  0
  7 23  1  0  0  0  0
  8  9  1  0  0  0  0
  8 10  1  0  0  0  0
  8 13  2  0  0  0  0
  9 24  1  0  0  0  0
 10 14  2  0  0  0  0
 12 25  1  0  0  0  0
 12 26  1  0  0  0  0
 12 27  1  0  0  0  0
 13 15  1  0  0  0  0
 13 28  1  0  0  0  0
 14 16  1  0  0  0  0
 14 29  1  0  0  0  0
 15 16  2  0  0  0  0
 15 30  1  0  0  0  0
 16 31  1  0  0  0  0
M  END
> <PUBCHEM_COMPOUND_CID>
76335845

> <PUBCHEM_COMPOUND_CANONICALIZED>
1

> <PUBCHEM_CACTVS_COMPLEXITY>
286

> <PUBCHEM_CACTVS_HBOND_ACCEPTOR>
3

> <PUBCHEM_CACTVS_HBOND_DONOR>
1

> <PUBCHEM_CACTVS_ROTATABLE_BOND>
4

> <PUBCHEM_CACTVS_SUBSKEYS>
AAADccByMAAAAAAAAAAAAAAAAAAAAAAAAAAwQAAAAAAAAACBAAAAHgAQAAAADATBmAQyDoLABACIAiDSCACCCAAgIAAIiIEOCMgMJiqEMRqGOiCm0BGIqYeAwCAOAAAAAAAIAAAAAAAAABAAAAAAAAAAAA==

> <PUBCHEM_IUPAC_OPENEYE_NAME>
3-(propylaminomethyl)chromen-2-one

> <PUBCHEM_IUPAC_CAS_NAME>
3-(propylaminomethyl)-1-benzopyran-2-one

> <PUBCHEM_IUPAC_NAME_MARKUP>
3-(propylaminomethyl)chromen-2-one

> <PUBCHEM_IUPAC_NAME>
3-(propylaminomethyl)chromen-2-one

> <PUBCHEM_IUPAC_SYSTEMATIC_NAME>
3-(propylaminomethyl)chromen-2-one

> <PUBCHEM_IUPAC_TRADITIONAL_NAME>
3-(propylaminomethyl)coumarin

> <PUBCHEM_IUPAC_INCHI>
InChI=1S/C13H15NO2/c1-2-7-14-9-11-8-10-5-3-4-6-12(10)16-13(11)15/h3-6,8,14H,2,7,9H2,1H3

> <PUBCHEM_IUPAC_INCHIKEY>
CJBPGDPRUYWCPW-UHFFFAOYSA-N

> <PUBCHEM_XLOGP3_AA>
2.7

> <PUBCHEM_EXACT_MASS>
217.110278721

> <PUBCHEM_MOLECULAR_FORMULA>
C13H15NO2

> <PUBCHEM_MOLECULAR_WEIGHT>
217.26

> <PUBCHEM_OPENEYE_CAN_SMILES>
CCCNCC1=CC2=CC=CC=C2OC1=O

> <PUBCHEM_OPENEYE_ISO_SMILES>
CCCNCC1=CC2=CC=CC=C2OC1=O

> <PUBCHEM_CACTVS_TPSA>
38.3

> <PUBCHEM_MONOISOTOPIC_WEIGHT>
217.110278721

> <PUBCHEM_TOTAL_CHARGE>
0

> <PUBCHEM_HEAVY_ATOM_COUNT>
16

> <PUBCHEM_ATOM_DEF_STEREO_COUNT>
0

> <PUBCHEM_ATOM_UDEF_STEREO_COUNT>
0

> <PUBCHEM_BOND_DEF_STEREO_COUNT>
0

> <PUBCHEM_BOND_UDEF_STEREO_COUNT>
0

> <PUBCHEM_ISOTOPIC_ATOM_COUNT>
0

> <PUBCHEM_COMPONENT_COUNT>
1

> <PUBCHEM_CACTVS_TAUTO_COUNT>
-1

> <PUBCHEM_COORDINATE_TYPE>
1
5
255

> <PUBCHEM_BONDANNOTATIONS>
1  10  8
1  11  8
10  14  8
13  15  8
14  16  8
15  16  8
5  11  8
5  9  8
8  10  8
8  13  8
8  9  8

$$$$
