45482153
  -OEChem-09292322292D

 62 65  0     0  0  0  0  0  0999 V2000
    2.0000   -6.0942    0.0000 Cl  0  0  0  0  0  0  0  0  0  0  0  0
    2.0000   -8.0942    0.0000 Cl  0  0  0  0  0  0  0  0  0  0  0  0
    7.1962    0.9058    0.0000 O   0  0  0  0  0  0  0  0  0  0  0  0
    3.4790    7.1807    0.0000 O   0  0  0  0  0  0  0  0  0  0  0  0
    3.7320   -3.0942    0.0000 N   0  0  0  0  0  0  0  0  0  0  0  0
    3.7320   -5.0942    0.0000 N   0  0  0  0  0  0  0  0  0  0  0  0
    5.4641    0.9058    0.0000 N   0  0  0  0  0  0  0  0  0  0  0  0
    5.8301    3.9446    0.0000 N   0  0  0  0  0  0  0  0  0  0  0  0
    7.1391    2.9936    0.0000 N   0  0  0  0  0  0  0  0  0  0  0  0
    6.8301    3.9446    0.0000 N   0  0  0  0  0  0  0  0  0  0  0  0
    4.5981   -3.5942    0.0000 C   0  0  0  0  0  0  0  0  0  0  0  0
    2.8660   -3.5942    0.0000 C   0  0  0  0  0  0  0  0  0  0  0  0
    4.5981   -4.5942    0.0000 C   0  0  0  0  0  0  0  0  0  0  0  0
    2.8660   -4.5942    0.0000 C   0  0  0  0  0  0  0  0  0  0  0  0
    3.7320   -2.0942    0.0000 C   0  0  0  0  0  0  0  0  0  0  0  0
    4.5981   -1.5942    0.0000 C   0  0  0  0  0  0  0  0  0  0  0  0
    3.7320   -6.0942    0.0000 C   0  0  0  0  0  0  0  0  0  0  0  0
    4.5981   -0.5942    0.0000 C   0  0  0  0  0  0  0  0  0  0  0  0
    5.4641   -0.0942    0.0000 C   0  0  0  0  0  0  0  0  0  0  0  0
    2.8660   -6.5942    0.0000 C   0  0  0  0  0  0  0  0  0  0  0  0
    4.5981   -6.5942    0.0000 C   0  0  0  0  0  0  0  0  0  0  0  0
    2.8660   -7.5942    0.0000 C   0  0  0  0  0  0  0  0  0  0  0  0
    4.5981   -7.5942    0.0000 C   0  0  0  0  0  0  0  0  0  0  0  0
    3.7320   -8.0942    0.0000 C   0  0  0  0  0  0  0  0  0  0  0  0
    6.3301    1.4058    0.0000 C   0  0  0  0  0  0  0  0  0  0  0  0
    6.3301    2.4058    0.0000 C   0  0  0  0  0  0  0  0  0  0  0  0
    5.5211    2.9936    0.0000 C   0  0  0  0  0  0  0  0  0  0  0  0
    5.2423    4.7536    0.0000 C   0  0  0  0  0  0  0  0  0  0  0  0
    5.6491    5.6672    0.0000 C   0  0  0  0  0  0  0  0  0  0  0  0
    4.2478    4.6491    0.0000 C   0  0  0  0  0  0  0  0  0  0  0  0
    5.0613    6.4762    0.0000 C   0  0  0  0  0  0  0  0  0  0  0  0
    3.6600    5.4581    0.0000 C   0  0  0  0  0  0  0  0  0  0  0  0
    4.0668    6.3717    0.0000 C   0  0  0  0  0  0  0  0  0  0  0  0
    3.8857    8.0942    0.0000 C   0  0  0  0  0  0  0  0  0  0  0  0
    5.2087   -3.7019    0.0000 H   0  0  0  0  0  0  0  0  0  0  0  0
    4.8101   -3.0116    0.0000 H   0  0  0  0  0  0  0  0  0  0  0  0
    2.6540   -3.0116    0.0000 H   0  0  0  0  0  0  0  0  0  0  0  0
    2.2554   -3.7019    0.0000 H   0  0  0  0  0  0  0  0  0  0  0  0
    4.8101   -5.1768    0.0000 H   0  0  0  0  0  0  0  0  0  0  0  0
    5.2087   -4.4866    0.0000 H   0  0  0  0  0  0  0  0  0  0  0  0
    2.2554   -4.4866    0.0000 H   0  0  0  0  0  0  0  0  0  0  0  0
    2.6540   -5.1768    0.0000 H   0  0  0  0  0  0  0  0  0  0  0  0
    3.5200   -1.5116    0.0000 H   0  0  0  0  0  0  0  0  0  0  0  0
    3.1215   -2.2019    0.0000 H   0  0  0  0  0  0  0  0  0  0  0  0
    4.8101   -2.1768    0.0000 H   0  0  0  0  0  0  0  0  0  0  0  0
    5.2087   -1.4866    0.0000 H   0  0  0  0  0  0  0  0  0  0  0  0
    4.3860   -0.0116    0.0000 H   0  0  0  0  0  0  0  0  0  0  0  0
    3.9875   -0.7019    0.0000 H   0  0  0  0  0  0  0  0  0  0  0  0
    5.6762   -0.6768    0.0000 H   0  0  0  0  0  0  0  0  0  0  0  0
    6.0747    0.0134    0.0000 H   0  0  0  0  0  0  0  0  0  0  0  0
    5.1350   -6.2842    0.0000 H   0  0  0  0  0  0  0  0  0  0  0  0
    4.9272    1.2158    0.0000 H   0  0  0  0  0  0  0  0  0  0  0  0
    5.1350   -7.9042    0.0000 H   0  0  0  0  0  0  0  0  0  0  0  0
    3.7320   -8.7142    0.0000 H   0  0  0  0  0  0  0  0  0  0  0  0
    4.9315    2.8020    0.0000 H   0  0  0  0  0  0  0  0  0  0  0  0
    6.2657    5.7320    0.0000 H   0  0  0  0  0  0  0  0  0  0  0  0
    3.9956    4.0827    0.0000 H   0  0  0  0  0  0  0  0  0  0  0  0
    5.3135    7.0426    0.0000 H   0  0  0  0  0  0  0  0  0  0  0  0
    3.0434    5.3933    0.0000 H   0  0  0  0  0  0  0  0  0  0  0  0
    4.4521    7.8420    0.0000 H   0  0  0  0  0  0  0  0  0  0  0  0
    4.1379    8.6606    0.0000 H   0  0  0  0  0  0  0  0  0  0  0  0
    3.3193    8.3464    0.0000 H   0  0  0  0  0  0  0  0  0  0  0  0
  1 20  1  0  0  0  0
  2 22  1  0  0  0  0
  3 25  2  0  0  0  0
  4 33  1  0  0  0  0
  4 34  1  0  0  0  0
  5 11  1  0  0  0  0
  5 12  1  0  0  0  0
  5 15  1  0  0  0  0
  6 13  1  0  0  0  0
  6 14  1  0  0  0  0
  6 17  1  0  0  0  0
  7 19  1  0  0  0  0
  7 25  1  0  0  0  0
  7 52  1  0  0  0  0
  8 10  1  0  0  0  0
  8 27  1  0  0  0  0
  8 28  1  0  0  0  0
  9 10  2  0  0  0  0
  9 26  1  0  0  0  0
 11 13  1  0  0  0  0
 11 35  1  0  0  0  0
 11 36  1  0  0  0  0
 12 14  1  0  0  0  0
 12 37  1  0  0  0  0
 12 38  1  0  0  0  0
 13 39  1  0  0  0  0
 13 40  1  0  0  0  0
 14 41  1  0  0  0  0
 14 42  1  0  0  0  0
 15 16  1  0  0  0  0
 15 43  1  0  0  0  0
 15 44  1  0  0  0  0
 16 18  1  0  0  0  0
 16 45  1  0  0  0  0
 16 46  1  0  0  0  0
 17 20  2  0  0  0  0
 17 21  1  0  0  0  0
 18 19  1  0  0  0  0
 18 47  1  0  0  0  0
 18 48  1  0  0  0  0
 19 49  1  0  0  0  0
 19 50  1  0  0  0  0
 20 22  1  0  0  0  0
 21 23  2  0  0  0  0
 21 51  1  0  0  0  0
 22 24  2  0  0  0  0
 23 24  1  0  0  0  0
 23 53  1  0  0  0  0
 24 54  1  0  0  0  0
 25 26  1  0  0  0  0
 26 27  2  0  0  0  0
 27 55  1  0  0  0  0
 28 29  2  0  0  0  0
 28 30  1  0  0  0  0
 29 31  1  0  0  0  0
 29 56  1  0  0  0  0
 30 32  2  0  0  0  0
 30 57  1  0  0  0  0
 31 33  2  0  0  0  0
 31 58  1  0  0  0  0
 32 33  1  0  0  0  0
 32 59  1  0  0  0  0
 34 60  1  0  0  0  0
 34 61  1  0  0  0  0
 34 62  1  0  0  0  0
M  END
> <PUBCHEM_COMPOUND_CID>
45482153

> <PUBCHEM_COMPOUND_CANONICALIZED>
1

> <PUBCHEM_CACTVS_COMPLEXITY>
631

> <PUBCHEM_CACTVS_HBOND_ACCEPTOR>
6

> <PUBCHEM_CACTVS_HBOND_DONOR>
1

> <PUBCHEM_CACTVS_ROTATABLE_BOND>
9

> <PUBCHEM_CACTVS_SUBSKEYS>
AAADceB7sAAGAAAAAAAAAAAAAAAAAWAAAAA8YIAAAAAAAAAB0AAAHgIYAAAACA7BliY+xpPIBACqATV3VACCDCQ3twAYmsG+fsgMZmrF85vUMKhk1hHI6MewQAAAAEAAAAIAABQAgAAABAAAKAAAAAAAAA==

> <PUBCHEM_IUPAC_OPENEYE_NAME>
N-[4-[4-(2,3-dichlorophenyl)piperazin-1-yl]butyl]-1-(4-methoxyphenyl)triazole-4-carboxamide

> <PUBCHEM_IUPAC_CAS_NAME>
N-[4-[4-(2,3-dichlorophenyl)-1-piperazinyl]butyl]-1-(4-methoxyphenyl)-4-triazolecarboxamide

> <PUBCHEM_IUPAC_NAME_MARKUP>
<I>N</I>-[4-[4-(2,3-dichlorophenyl)piperazin-1-yl]butyl]-1-(4-methoxyphenyl)triazole-4-carboxamide

> <PUBCHEM_IUPAC_NAME>
N-[4-[4-(2,3-dichlorophenyl)piperazin-1-yl]butyl]-1-(4-methoxyphenyl)triazole-4-carboxamide

> <PUBCHEM_IUPAC_SYSTEMATIC_NAME>
N-[4-[4-[2,3-bis(chloranyl)phenyl]piperazin-1-yl]butyl]-1-(4-methoxyphenyl)-1,2,3-triazole-4-carboxamide

> <PUBCHEM_IUPAC_TRADITIONAL_NAME>
N-[4-[4-(2,3-dichlorophenyl)piperazino]butyl]-1-(4-methoxyphenyl)triazole-4-carboxamide

> <PUBCHEM_IUPAC_INCHI>
InChI=1S/C24H28Cl2N6O2/c1-34-19-9-7-18(8-10-19)32-17-21(28-29-32)24(33)27-11-2-3-12-30-13-15-31(16-14-30)22-6-4-5-20(25)23(22)26/h4-10,17H,2-3,11-16H2,1H3,(H,27,33)

> <PUBCHEM_IUPAC_INCHIKEY>
UQQZLMXUYGQJIW-UHFFFAOYSA-N

> <PUBCHEM_XLOGP3_AA>
4.5

> <PUBCHEM_EXACT_MASS>
502.1650795

> <PUBCHEM_MOLECULAR_FORMULA>
C24H28Cl2N6O2

> <PUBCHEM_MOLECULAR_WEIGHT>
503.4

> <PUBCHEM_OPENEYE_CAN_SMILES>
COC1=CC=C(C=C1)N2C=C(N=N2)C(=O)NCCCCN3CCN(CC3)C4=C(C(=CC=C4)Cl)Cl

> <PUBCHEM_OPENEYE_ISO_SMILES>
COC1=CC=C(C=C1)N2C=C(N=N2)C(=O)NCCCCN3CCN(CC3)C4=C(C(=CC=C4)Cl)Cl

> <PUBCHEM_CACTVS_TPSA>
75.5

> <PUBCHEM_MONOISOTOPIC_WEIGHT>
502.1650795

> <PUBCHEM_TOTAL_CHARGE>
0

> <PUBCHEM_HEAVY_ATOM_COUNT>
34

> <PUBCHEM_ATOM_DEF_STEREO_COUNT>
0

> <PUBCHEM_ATOM_UDEF_STEREO_COUNT>
0

> <PUBCHEM_BOND_DEF_STEREO_COUNT>
0

> <PUBCHEM_BOND_UDEF_STEREO_COUNT>
0

> <PUBCHEM_ISOTOPIC_ATOM_COUNT>
0

> <PUBCHEM_COMPONENT_COUNT>
1

> <PUBCHEM_CACTVS_TAUTO_COUNT>
-1

> <PUBCHEM_COORDINATE_TYPE>
1
5
255

> <PUBCHEM_BONDANNOTATIONS>
17  20  8
17  21  8
20  22  8
21  23  8
22  24  8
23  24  8
26  27  8
28  29  8
28  30  8
29  31  8
30  32  8
31  33  8
32  33  8
8  10  8
8  27  8
9  10  8
9  26  8

$$$$
