53324761
  -OEChem-09292322482D

 47 49  0     0  0  0  0  0  0999 V2000
    9.6420    5.6887    0.0000 Cl  0  0  0  0  0  0  0  0  0  0  0  0
    4.3210    8.8145    0.0000 Cl  0  0  0  0  0  0  0  0  0  0  0  0
    7.0636    3.3752    0.0000 S   0  0  0  0  0  0  0  0  0  0  0  0
    8.0141    3.0646    0.0000 O   0  0  0  0  0  0  0  0  0  0  0  0
    6.1131    3.6859    0.0000 O   0  0  0  0  0  0  0  0  0  0  0  0
    3.2087    2.6200    0.0000 N   0  0  0  0  0  0  0  0  0  0  0  0
    0.6106    1.1200    0.0000 N   0  0  0  0  0  0  0  0  0  0  0  0
    7.3366    1.6200    0.0000 N   0  0  0  0  0  0  0  0  0  0  0  0
    6.7530    0.8153    0.0000 N   0  0  0  0  0  0  0  0  0  0  0  0
    2.3426    2.1200    0.0000 C   0  0  0  0  0  0  0  0  0  0  0  0
    2.3426    1.1200    0.0000 C   0  0  0  0  0  0  0  0  0  0  0  0
    1.4766    2.6200    0.0000 C   0  0  0  0  0  0  0  0  0  0  0  0
    1.4766    0.6200    0.0000 C   0  0  0  0  0  0  0  0  0  0  0  0
    0.6106    2.1200    0.0000 C   0  0  0  0  0  0  0  0  0  0  0  0
    4.0747    2.1200    0.0000 C   0  0  0  0  0  0  0  0  0  0  0  0
    5.8067    2.1200    0.0000 C   0  0  0  0  0  0  0  0  0  0  0  0
    4.9407    2.6200    0.0000 C   0  0  0  0  0  0  0  0  0  0  0  0
    6.7530    2.4247    0.0000 C   0  0  0  0  0  0  0  0  0  0  0  0
    4.0747    1.1200    0.0000 C   0  0  0  0  0  0  0  0  0  0  0  0
    5.8067    1.1200    0.0000 C   0  0  0  0  0  0  0  0  0  0  0  0
    4.9407    0.6200    0.0000 C   0  0  0  0  0  0  0  0  0  0  0  0
    7.3743    4.3258    0.0000 C   0  0  0  0  0  0  0  0  0  0  0  0
    8.3528    4.5320    0.0000 C   0  0  0  0  0  0  0  0  0  0  0  0
    6.7064    5.0701    0.0000 C   0  0  0  0  0  0  0  0  0  0  0  0
    8.6634    5.4825    0.0000 C   0  0  0  0  0  0  0  0  0  0  0  0
    7.0171    6.0206    0.0000 C   0  0  0  0  0  0  0  0  0  0  0  0
    7.9956    6.2268    0.0000 C   0  0  0  0  0  0  0  0  0  0  0  0
    2.3426    2.7400    0.0000 H   0  0  0  0  0  0  0  0  0  0  0  0
    2.5547    0.5374    0.0000 H   0  0  0  0  0  0  0  0  0  0  0  0
    2.9532    1.2277    0.0000 H   0  0  0  0  0  0  0  0  0  0  0  0
    1.8751    3.0950    0.0000 H   0  0  0  0  0  0  0  0  0  0  0  0
    1.0781    3.0950    0.0000 H   0  0  0  0  0  0  0  0  0  0  0  0
    1.0781    0.1451    0.0000 H   0  0  0  0  0  0  0  0  0  0  0  0
    1.8751    0.1451    0.0000 H   0  0  0  0  0  0  0  0  0  0  0  0
    0.3985    2.7026    0.0000 H   0  0  0  0  0  0  0  0  0  0  0  0
    0.0000    2.0123    0.0000 H   0  0  0  0  0  0  0  0  0  0  0  0
    3.2087    3.2400    0.0000 H   0  0  0  0  0  0  0  0  0  0  0  0
    0.0736    0.8100    0.0000 H   0  0  0  0  0  0  0  0  0  0  0  0
    4.9407    3.2400    0.0000 H   0  0  0  0  0  0  0  0  0  0  0  0
    3.5378    0.8100    0.0000 H   0  0  0  0  0  0  0  0  0  0  0  0
    4.9407    0.0000    0.0000 H   0  0  0  0  0  0  0  0  0  0  0  0
    7.9566    1.6200    0.0000 H   0  0  0  0  0  0  0  0  0  0  0  0
    8.7668    4.0705    0.0000 H   0  0  0  0  0  0  0  0  0  0  0  0
    6.0998    4.9422    0.0000 H   0  0  0  0  0  0  0  0  0  0  0  0
    6.6030    6.4821    0.0000 H   0  0  0  0  0  0  0  0  0  0  0  0
    8.1882    6.8161    0.0000 H   0  0  0  0  0  0  0  0  0  0  0  0
    5.3210    8.8145    0.0000 H   0  0  0  0  0  0  0  0  0  0  0  0
  1 25  1  0  0  0  0
  2 47  1  0  0  0  0
  3  4  2  0  0  0  0
  3  5  2  0  0  0  0
  3 18  1  0  0  0  0
  3 22  1  0  0  0  0
  6 10  1  0  0  0  0
  6 15  1  0  0  0  0
  6 37  1  0  0  0  0
  7 13  1  0  0  0  0
  7 14  1  0  0  0  0
  7 38  1  0  0  0  0
  8  9  1  0  0  0  0
  8 18  1  0  0  0  0
  8 42  1  0  0  0  0
  9 20  2  0  0  0  0
 10 11  1  0  0  0  0
 10 12  1  0  0  0  0
 10 28  1  0  0  0  0
 11 13  1  0  0  0  0
 11 29  1  0  0  0  0
 11 30  1  0  0  0  0
 12 14  1  0  0  0  0
 12 31  1  0  0  0  0
 12 32  1  0  0  0  0
 13 33  1  0  0  0  0
 13 34  1  0  0  0  0
 14 35  1  0  0  0  0
 14 36  1  0  0  0  0
 15 17  2  0  0  0  0
 15 19  1  0  0  0  0
 16 17  1  0  0  0  0
 16 18  2  0  0  0  0
 16 20  1  0  0  0  0
 17 39  1  0  0  0  0
 19 21  2  0  0  0  0
 19 40  1  0  0  0  0
 20 21  1  0  0  0  0
 21 41  1  0  0  0  0
 22 23  2  0  0  0  0
 22 24  1  0  0  0  0
 23 25  1  0  0  0  0
 23 43  1  0  0  0  0
 24 26  2  0  0  0  0
 24 44  1  0  0  0  0
 25 27  2  0  0  0  0
 26 27  1  0  0  0  0
 26 45  1  0  0  0  0
 27 46  1  0  0  0  0
M  END
> <PUBCHEM_COMPOUND_CID>
53324761

> <PUBCHEM_COMPOUND_CANONICALIZED>
1

> <PUBCHEM_CACTVS_COMPLEXITY>
578

> <PUBCHEM_CACTVS_HBOND_ACCEPTOR>
5

> <PUBCHEM_CACTVS_HBOND_DONOR>
4

> <PUBCHEM_CACTVS_ROTATABLE_BOND>
4

> <PUBCHEM_CACTVS_SUBSKEYS>
AAADceB7sABGAAAAAAAAAAAAAAAAAWAAAAA8YIAAAAAAAFgB9AAAHAYYAAAADCrBXiQwwfLjAAqiAyRiQHDaBgBhDxAYubg4ZpgIIKLh09GEpAxgmADoyAcQgAAOAACAQBACAAAAAQCAIAQAAAAAAAAAAA==

> <PUBCHEM_IUPAC_OPENEYE_NAME>
3-(3-chlorophenyl)sulfonyl-N-(4-piperidyl)-2H-indazol-5-amine;hydrochloride

> <PUBCHEM_IUPAC_CAS_NAME>
3-(3-chlorophenyl)sulfonyl-N-(4-piperidinyl)-2H-indazol-5-amine;hydrochloride

> <PUBCHEM_IUPAC_NAME_MARKUP>
3-(3-chlorophenyl)sulfonyl-<I>N</I>-piperidin-4-yl-2<I>H</I>-indazol-5-amine;hydrochloride

> <PUBCHEM_IUPAC_NAME>
3-(3-chlorophenyl)sulfonyl-N-piperidin-4-yl-2H-indazol-5-amine;hydrochloride

> <PUBCHEM_IUPAC_SYSTEMATIC_NAME>
3-(3-chlorophenyl)sulfonyl-N-piperidin-4-yl-2H-indazol-5-amine;hydrochloride

> <PUBCHEM_IUPAC_TRADITIONAL_NAME>
[3-(3-chlorophenyl)sulfonyl-2H-indazol-5-yl]-(4-piperidyl)amine;hydrochloride

> <PUBCHEM_IUPAC_INCHI>
InChI=1S/C18H19ClN4O2S.ClH/c19-12-2-1-3-15(10-12)26(24,25)18-16-11-14(4-5-17(16)22-23-18)21-13-6-8-20-9-7-13;/h1-5,10-11,13,20-21H,6-9H2,(H,22,23);1H

> <PUBCHEM_IUPAC_INCHIKEY>
ZZMKDSUXUVQHOG-UHFFFAOYSA-N

> <PUBCHEM_EXACT_MASS>
426.0684025

> <PUBCHEM_MOLECULAR_FORMULA>
C18H20Cl2N4O2S

> <PUBCHEM_MOLECULAR_WEIGHT>
427.3

> <PUBCHEM_OPENEYE_CAN_SMILES>
C1CNCCC1NC2=CC3=C(NN=C3C=C2)S(=O)(=O)C4=CC(=CC=C4)Cl.Cl

> <PUBCHEM_OPENEYE_ISO_SMILES>
C1CNCCC1NC2=CC3=C(NN=C3C=C2)S(=O)(=O)C4=CC(=CC=C4)Cl.Cl

> <PUBCHEM_CACTVS_TPSA>
95.3

> <PUBCHEM_MONOISOTOPIC_WEIGHT>
426.0684025

> <PUBCHEM_TOTAL_CHARGE>
0

> <PUBCHEM_HEAVY_ATOM_COUNT>
27

> <PUBCHEM_ATOM_DEF_STEREO_COUNT>
0

> <PUBCHEM_ATOM_UDEF_STEREO_COUNT>
0

> <PUBCHEM_BOND_DEF_STEREO_COUNT>
0

> <PUBCHEM_BOND_UDEF_STEREO_COUNT>
0

> <PUBCHEM_ISOTOPIC_ATOM_COUNT>
0

> <PUBCHEM_COMPONENT_COUNT>
2

> <PUBCHEM_CACTVS_TAUTO_COUNT>
-1

> <PUBCHEM_COORDINATE_TYPE>
1
5
255

> <PUBCHEM_BONDANNOTATIONS>
15  17  8
15  19  8
16  17  8
16  18  8
16  20  8
19  21  8
20  21  8
22  23  8
22  24  8
23  25  8
24  26  8
25  27  8
26  27  8
8  18  8
8  9  8
9  20  8

$$$$
