127041348
  -OEChem-09292322362D

 63 67  0     1  0  0  0  0  0999 V2000
    3.9444   -0.9244    0.0000 S   0  0  0  0  0  0  0  0  0  0  0  0
    5.4349    8.8111    0.0000 F   0  0  0  0  0  0  0  0  0  0  0  0
    4.1147    8.3042    0.0000 F   0  0  0  0  0  0  0  0  0  0  0  0
    5.9418    7.4908    0.0000 F   0  0  0  0  0  0  0  0  0  0  0  0
    2.4067    4.1388    0.0000 O   0  0  0  0  0  0  0  0  0  0  0  0
    5.8412   -7.8600    0.0000 O   0  0  0  0  0  0  0  0  0  0  0  0
    3.5823    2.5208    0.0000 N   0  0  3  0  0  0  0  0  0  0  0  0
    4.2232   -2.6844    0.0000 N   0  0  0  0  0  0  0  0  0  0  0  0
    5.5322   -1.7334    0.0000 N   0  0  0  0  0  0  0  0  0  0  0  0
    5.8412   -2.6844    0.0000 N   0  0  0  0  0  0  0  0  0  0  0  0
    4.2232   -7.8600    0.0000 N   0  0  0  0  0  0  0  0  0  0  0  0
    3.9890    3.4343    0.0000 C   0  0  0  0  0  0  0  0  0  0  0  0
    3.4013    4.2433    0.0000 C   0  0  3  0  0  0  0  0  0  0  0  0
    2.5878    2.4162    0.0000 C   0  0  0  0  0  0  0  0  0  0  0  0
    4.1701    1.7118    0.0000 C   0  0  0  0  0  0  0  0  0  0  0  0
    2.0000    3.2253    0.0000 C   0  0  0  0  0  0  0  0  0  0  0  0
    3.8080    5.1569    0.0000 C   0  0  0  0  0  0  0  0  0  0  0  0
    3.7634    0.7982    0.0000 C   0  0  0  0  0  0  0  0  0  0  0  0
    4.3511   -0.0108    0.0000 C   0  0  0  0  0  0  0  0  0  0  0  0
    3.2202    5.9659    0.0000 C   0  0  0  0  0  0  0  0  0  0  0  0
    4.8025    5.2614    0.0000 C   0  0  0  0  0  0  0  0  0  0  0  0
    3.6270    6.8794    0.0000 C   0  0  0  0  0  0  0  0  0  0  0  0
    5.2092    6.1750    0.0000 C   0  0  0  0  0  0  0  0  0  0  0  0
    4.6215    6.9840    0.0000 C   0  0  0  0  0  0  0  0  0  0  0  0
    4.5322   -1.7334    0.0000 C   0  0  0  0  0  0  0  0  0  0  0  0
    5.0282    7.8975    0.0000 C   0  0  0  0  0  0  0  0  0  0  0  0
    5.0322   -3.2722    0.0000 C   0  0  0  0  0  0  0  0  0  0  0  0
    5.0322   -4.2722    0.0000 C   0  0  0  0  0  0  0  0  0  0  0  0
    3.2721   -2.9934    0.0000 C   0  0  0  0  0  0  0  0  0  0  0  0
    5.8982   -4.7722    0.0000 C   0  0  0  0  0  0  0  0  0  0  0  0
    4.1662   -4.7722    0.0000 C   0  0  0  0  0  0  0  0  0  0  0  0
    5.0322   -6.2722    0.0000 C   0  0  0  0  0  0  0  0  0  0  0  0
    5.8982   -5.7722    0.0000 C   0  0  0  0  0  0  0  0  0  0  0  0
    4.1662   -5.7722    0.0000 C   0  0  0  0  0  0  0  0  0  0  0  0
    5.0322   -7.2722    0.0000 C   0  0  0  0  0  0  0  0  0  0  0  0
    5.5322   -8.8111    0.0000 C   0  0  0  0  0  0  0  0  0  0  0  0
    4.5322   -8.8111    0.0000 C   0  0  0  0  0  0  0  0  0  0  0  0
    4.5030    3.0876    0.0000 H   0  0  0  0  0  0  0  0  0  0  0  0
    4.4197    3.8803    0.0000 H   0  0  0  0  0  0  0  0  0  0  0  0
    3.0368    4.7449    0.0000 H   0  0  0  0  0  0  0  0  0  0  0  0
    2.0305    2.1444    0.0000 H   0  0  0  0  0  0  0  0  0  0  0  0
    2.7587    1.8203    0.0000 H   0  0  0  0  0  0  0  0  0  0  0  0
    4.6841    1.3651    0.0000 H   0  0  0  0  0  0  0  0  0  0  0  0
    4.6008    2.1577    0.0000 H   0  0  0  0  0  0  0  0  0  0  0  0
    1.4860    3.5720    0.0000 H   0  0  0  0  0  0  0  0  0  0  0  0
    1.5693    2.7793    0.0000 H   0  0  0  0  0  0  0  0  0  0  0  0
    3.2494    1.1449    0.0000 H   0  0  0  0  0  0  0  0  0  0  0  0
    3.3327    0.3522    0.0000 H   0  0  0  0  0  0  0  0  0  0  0  0
    4.8651   -0.3575    0.0000 H   0  0  0  0  0  0  0  0  0  0  0  0
    4.7818    0.4352    0.0000 H   0  0  0  0  0  0  0  0  0  0  0  0
    2.6036    5.9011    0.0000 H   0  0  0  0  0  0  0  0  0  0  0  0
    5.1669    4.7598    0.0000 H   0  0  0  0  0  0  0  0  0  0  0  0
    3.2625    7.3810    0.0000 H   0  0  0  0  0  0  0  0  0  0  0  0
    5.8259    6.2398    0.0000 H   0  0  0  0  0  0  0  0  0  0  0  0
    3.0805   -2.4038    0.0000 H   0  0  0  0  0  0  0  0  0  0  0  0
    2.6825   -3.1850    0.0000 H   0  0  0  0  0  0  0  0  0  0  0  0
    3.4637   -3.5831    0.0000 H   0  0  0  0  0  0  0  0  0  0  0  0
    6.4352   -4.4622    0.0000 H   0  0  0  0  0  0  0  0  0  0  0  0
    3.6292   -4.4622    0.0000 H   0  0  0  0  0  0  0  0  0  0  0  0
    6.4352   -6.0822    0.0000 H   0  0  0  0  0  0  0  0  0  0  0  0
    3.6292   -6.0822    0.0000 H   0  0  0  0  0  0  0  0  0  0  0  0
    5.8966   -9.3126    0.0000 H   0  0  0  0  0  0  0  0  0  0  0  0
    4.1678   -9.3126    0.0000 H   0  0  0  0  0  0  0  0  0  0  0  0
  1 19  1  0  0  0  0
  1 25  1  0  0  0  0
  2 26  1  0  0  0  0
  3 26  1  0  0  0  0
  4 26  1  0  0  0  0
  5 13  1  0  0  0  0
  5 16  1  0  0  0  0
  6 35  1  0  0  0  0
  6 36  1  0  0  0  0
  7 12  1  0  0  0  0
  7 14  1  0  0  0  0
  7 15  1  0  0  0  0
  8 25  1  0  0  0  0
  8 27  1  0  0  0  0
  8 29  1  0  0  0  0
  9 10  1  0  0  0  0
  9 25  2  0  0  0  0
 10 27  2  0  0  0  0
 11 35  2  0  0  0  0
 11 37  1  0  0  0  0
 12 13  1  0  0  0  0
 12 38  1  0  0  0  0
 12 39  1  0  0  0  0
 13 17  1  0  0  0  0
 13 40  1  0  0  0  0
 14 16  1  0  0  0  0
 14 41  1  0  0  0  0
 14 42  1  0  0  0  0
 15 18  1  0  0  0  0
 15 43  1  0  0  0  0
 15 44  1  0  0  0  0
 16 45  1  0  0  0  0
 16 46  1  0  0  0  0
 17 20  2  0  0  0  0
 17 21  1  0  0  0  0
 18 19  1  0  0  0  0
 18 47  1  0  0  0  0
 18 48  1  0  0  0  0
 19 49  1  0  0  0  0
 19 50  1  0  0  0  0
 20 22  1  0  0  0  0
 20 51  1  0  0  0  0
 21 23  2  0  0  0  0
 21 52  1  0  0  0  0
 22 24  2  0  0  0  0
 22 53  1  0  0  0  0
 23 24  1  0  0  0  0
 23 54  1  0  0  0  0
 24 26  1  0  0  0  0
 27 28  1  0  0  0  0
 28 30  2  0  0  0  0
 28 31  1  0  0  0  0
 29 55  1  0  0  0  0
 29 56  1  0  0  0  0
 29 57  1  0  0  0  0
 30 33  1  0  0  0  0
 30 58  1  0  0  0  0
 31 34  2  0  0  0  0
 31 59  1  0  0  0  0
 32 33  2  0  0  0  0
 32 34  1  0  0  0  0
 32 35  1  0  0  0  0
 33 60  1  0  0  0  0
 34 61  1  0  0  0  0
 36 37  2  0  0  0  0
 36 62  1  0  0  0  0
 37 63  1  0  0  0  0
M  END
> <PUBCHEM_COMPOUND_CID>
127041348

> <PUBCHEM_COMPOUND_CANONICALIZED>
1

> <PUBCHEM_CACTVS_COMPLEXITY>
706

> <PUBCHEM_CACTVS_HBOND_ACCEPTOR>
10

> <PUBCHEM_CACTVS_HBOND_DONOR>
0

> <PUBCHEM_CACTVS_ROTATABLE_BOND>
8

> <PUBCHEM_CACTVS_SUBSKEYS>
AAADceB7sYBAAAAAAAAAAAAAAAAAAWLAAAA8YIAAAAAAAAAB9AAAHwQIAAAADBTl2xa/lJcMFEiqAjt39ASS2Ct/QrAdyCG7LNiOLrKgvTmPOQjkzgOYqYeYyPCOQAAAAAAAAACAAAAAAAAAAAAAAAAAAA==

> <PUBCHEM_IUPAC_OPENEYE_NAME>
4-[3-[[4-methyl-5-(4-oxazol-2-ylphenyl)-1,2,4-triazol-3-yl]sulfanyl]propyl]-2-[4-(trifluoromethyl)phenyl]morpholine

> <PUBCHEM_IUPAC_CAS_NAME>
4-[3-[[4-methyl-5-[4-(2-oxazolyl)phenyl]-1,2,4-triazol-3-yl]thio]propyl]-2-[4-(trifluoromethyl)phenyl]morpholine

> <PUBCHEM_IUPAC_NAME_MARKUP>
4-[3-[[4-methyl-5-[4-(1,3-oxazol-2-yl)phenyl]-1,2,4-triazol-3-yl]sulfanyl]propyl]-2-[4-(trifluoromethyl)phenyl]morpholine

> <PUBCHEM_IUPAC_NAME>
4-[3-[[4-methyl-5-[4-(1,3-oxazol-2-yl)phenyl]-1,2,4-triazol-3-yl]sulfanyl]propyl]-2-[4-(trifluoromethyl)phenyl]morpholine

> <PUBCHEM_IUPAC_SYSTEMATIC_NAME>
4-[3-[[4-methyl-5-[4-(1,3-oxazol-2-yl)phenyl]-1,2,4-triazol-3-yl]sulfanyl]propyl]-2-[4-(trifluoromethyl)phenyl]morpholine

> <PUBCHEM_IUPAC_TRADITIONAL_NAME>
4-[3-[[4-methyl-5-(4-oxazol-2-ylphenyl)-1,2,4-triazol-3-yl]thio]propyl]-2-[4-(trifluoromethyl)phenyl]morpholine

> <PUBCHEM_IUPAC_INCHI>
InChI=1S/C26H26F3N5O2S/c1-33-23(19-3-5-20(6-4-19)24-30-11-14-36-24)31-32-25(33)37-16-2-12-34-13-15-35-22(17-34)18-7-9-21(10-8-18)26(27,28)29/h3-11,14,22H,2,12-13,15-17H2,1H3

> <PUBCHEM_IUPAC_INCHIKEY>
PMZOPKCHYGDQPO-UHFFFAOYSA-N

> <PUBCHEM_XLOGP3_AA>
4.4

> <PUBCHEM_EXACT_MASS>
529.17593075

> <PUBCHEM_MOLECULAR_FORMULA>
C26H26F3N5O2S

> <PUBCHEM_MOLECULAR_WEIGHT>
529.6

> <PUBCHEM_OPENEYE_CAN_SMILES>
CN1C(=NN=C1SCCCN2CCOC(C2)C3=CC=C(C=C3)C(F)(F)F)C4=CC=C(C=C4)C5=NC=CO5

> <PUBCHEM_OPENEYE_ISO_SMILES>
CN1C(=NN=C1SCCCN2CCOC(C2)C3=CC=C(C=C3)C(F)(F)F)C4=CC=C(C=C4)C5=NC=CO5

> <PUBCHEM_CACTVS_TPSA>
94.5

> <PUBCHEM_MONOISOTOPIC_WEIGHT>
529.17593075

> <PUBCHEM_TOTAL_CHARGE>
0

> <PUBCHEM_HEAVY_ATOM_COUNT>
37

> <PUBCHEM_ATOM_DEF_STEREO_COUNT>
0

> <PUBCHEM_ATOM_UDEF_STEREO_COUNT>
1

> <PUBCHEM_BOND_DEF_STEREO_COUNT>
0

> <PUBCHEM_BOND_UDEF_STEREO_COUNT>
0

> <PUBCHEM_ISOTOPIC_ATOM_COUNT>
0

> <PUBCHEM_COMPONENT_COUNT>
1

> <PUBCHEM_CACTVS_TAUTO_COUNT>
-1

> <PUBCHEM_COORDINATE_TYPE>
1
5
255

> <PUBCHEM_BONDANNOTATIONS>
10  27  8
11  35  8
11  37  8
13  17  3
17  20  8
17  21  8
20  22  8
21  23  8
22  24  8
23  24  8
28  30  8
28  31  8
30  33  8
31  34  8
32  33  8
32  34  8
36  37  8
6  35  8
6  36  8
8  25  8
8  27  8
9  10  8
9  25  8

$$$$
