19592101
  -OEChem-09292322202D

 67 70  0     1  0  0  0  0  0999 V2000
   15.8728   -1.7623    0.0000 O   0  0  0  0  0  0  0  0  0  0  0  0
    7.1962    2.2723    0.0000 O   0  0  0  0  0  0  0  0  0  0  0  0
   12.3923    1.2723    0.0000 N   0  0  3  0  0  0  0  0  0  0  0  0
    8.0622    0.7723    0.0000 N   0  0  0  0  0  0  0  0  0  0  0  0
   13.2583    0.7723    0.0000 C   0  0  3  0  0  0  0  0  0  0  0  0
   13.2583   -0.2277    0.0000 C   0  0  0  0  0  0  0  0  0  0  0  0
   14.1244    1.2723    0.0000 C   0  0  0  0  0  0  0  0  0  0  0  0
   14.1244   -0.7277    0.0000 C   0  0  0  0  0  0  0  0  0  0  0  0
   14.9904    0.7723    0.0000 C   0  0  0  0  0  0  0  0  0  0  0  0
   14.9904   -0.2277    0.0000 C   0  0  0  0  0  0  0  0  0  0  0  0
   11.5263    0.7723    0.0000 C   0  0  0  0  0  0  0  0  0  0  0  0
   10.6603    1.2723    0.0000 C   0  0  0  0  0  0  0  0  0  0  0  0
   12.3923    2.2723    0.0000 C   0  0  0  0  0  0  0  0  0  0  0  0
   15.8843   -0.7624    0.0000 C   0  0  0  0  0  0  0  0  0  0  0  0
   15.8843    1.3070    0.0000 C   0  0  0  0  0  0  0  0  0  0  0  0
    9.7942    0.7723    0.0000 C   0  0  0  0  0  0  0  0  0  0  0  0
   16.7904   -0.2485    0.0000 C   0  0  0  0  0  0  0  0  0  0  0  0
   16.7904    0.7931    0.0000 C   0  0  0  0  0  0  0  0  0  0  0  0
    8.9282    1.2723    0.0000 C   0  0  0  0  0  0  0  0  0  0  0  0
   16.7329   -2.2723    0.0000 C   0  0  0  0  0  0  0  0  0  0  0  0
    7.1962    1.2723    0.0000 C   0  0  0  0  0  0  0  0  0  0  0  0
    6.3301    0.7723    0.0000 C   0  0  0  0  0  0  0  0  0  0  0  0
    6.3301   -0.2277    0.0000 C   0  0  0  0  0  0  0  0  0  0  0  0
    5.4641    1.2723    0.0000 C   0  0  0  0  0  0  0  0  0  0  0  0
    4.5981   -0.2277    0.0000 C   0  0  0  0  0  0  0  0  0  0  0  0
    5.4641   -0.7277    0.0000 C   0  0  0  0  0  0  0  0  0  0  0  0
    4.5981    0.7723    0.0000 C   0  0  0  0  0  0  0  0  0  0  0  0
    3.7320   -0.7277    0.0000 C   0  0  0  0  0  0  0  0  0  0  0  0
    2.8660   -0.2277    0.0000 C   0  0  0  0  0  0  0  0  0  0  0  0
    3.7320   -1.7277    0.0000 C   0  0  0  0  0  0  0  0  0  0  0  0
    2.0000   -0.7277    0.0000 C   0  0  0  0  0  0  0  0  0  0  0  0
    2.8660   -2.2277    0.0000 C   0  0  0  0  0  0  0  0  0  0  0  0
    2.0000   -1.7277    0.0000 C   0  0  0  0  0  0  0  0  0  0  0  0
   13.2583    1.3923    0.0000 H   0  0  0  0  0  0  0  0  0  0  0  0
   12.6477   -0.1201    0.0000 H   0  0  0  0  0  0  0  0  0  0  0  0
   13.0463   -0.8103    0.0000 H   0  0  0  0  0  0  0  0  0  0  0  0
   14.5229    1.7472    0.0000 H   0  0  0  0  0  0  0  0  0  0  0  0
   13.7258    1.7472    0.0000 H   0  0  0  0  0  0  0  0  0  0  0  0
   13.7258   -1.2027    0.0000 H   0  0  0  0  0  0  0  0  0  0  0  0
   14.5229   -1.2027    0.0000 H   0  0  0  0  0  0  0  0  0  0  0  0
   11.1278    0.2973    0.0000 H   0  0  0  0  0  0  0  0  0  0  0  0
   11.9248    0.2973    0.0000 H   0  0  0  0  0  0  0  0  0  0  0  0
   11.0588    1.7472    0.0000 H   0  0  0  0  0  0  0  0  0  0  0  0
   10.2617    1.7472    0.0000 H   0  0  0  0  0  0  0  0  0  0  0  0
   13.0123    2.2723    0.0000 H   0  0  0  0  0  0  0  0  0  0  0  0
   12.3923    2.8923    0.0000 H   0  0  0  0  0  0  0  0  0  0  0  0
   11.7723    2.2723    0.0000 H   0  0  0  0  0  0  0  0  0  0  0  0
   15.8772    1.9269    0.0000 H   0  0  0  0  0  0  0  0  0  0  0  0
    9.3957    0.2973    0.0000 H   0  0  0  0  0  0  0  0  0  0  0  0
   10.1928    0.2973    0.0000 H   0  0  0  0  0  0  0  0  0  0  0  0
   17.3261   -0.5606    0.0000 H   0  0  0  0  0  0  0  0  0  0  0  0
   17.3261    1.1052    0.0000 H   0  0  0  0  0  0  0  0  0  0  0  0
    9.3267    1.7472    0.0000 H   0  0  0  0  0  0  0  0  0  0  0  0
    8.5297    1.7472    0.0000 H   0  0  0  0  0  0  0  0  0  0  0  0
    8.0622    0.1523    0.0000 H   0  0  0  0  0  0  0  0  0  0  0  0
   16.4168   -2.8056    0.0000 H   0  0  0  0  0  0  0  0  0  0  0  0
   17.2663   -2.5885    0.0000 H   0  0  0  0  0  0  0  0  0  0  0  0
   17.0491   -1.7390    0.0000 H   0  0  0  0  0  0  0  0  0  0  0  0
    6.8671   -0.5377    0.0000 H   0  0  0  0  0  0  0  0  0  0  0  0
    5.4641    1.8923    0.0000 H   0  0  0  0  0  0  0  0  0  0  0  0
    5.4641   -1.3477    0.0000 H   0  0  0  0  0  0  0  0  0  0  0  0
    4.0611    1.0823    0.0000 H   0  0  0  0  0  0  0  0  0  0  0  0
    2.8660    0.3923    0.0000 H   0  0  0  0  0  0  0  0  0  0  0  0
    4.2690   -2.0377    0.0000 H   0  0  0  0  0  0  0  0  0  0  0  0
    1.4631   -0.4177    0.0000 H   0  0  0  0  0  0  0  0  0  0  0  0
    2.8660   -2.8477    0.0000 H   0  0  0  0  0  0  0  0  0  0  0  0
    1.4631   -2.0377    0.0000 H   0  0  0  0  0  0  0  0  0  0  0  0
  1 14  1  0  0  0  0
  1 20  1  0  0  0  0
  2 21  2  0  0  0  0
  3  5  1  0  0  0  0
  3 11  1  0  0  0  0
  3 13  1  0  0  0  0
  4 19  1  0  0  0  0
  4 21  1  0  0  0  0
  4 55  1  0  0  0  0
  5  6  1  0  0  0  0
  5  7  1  0  0  0  0
  5 34  1  0  0  0  0
  6  8  1  0  0  0  0
  6 35  1  0  0  0  0
  6 36  1  0  0  0  0
  7  9  1  0  0  0  0
  7 37  1  0  0  0  0
  7 38  1  0  0  0  0
  8 10  1  0  0  0  0
  8 39  1  0  0  0  0
  8 40  1  0  0  0  0
  9 10  2  0  0  0  0
  9 15  1  0  0  0  0
 10 14  1  0  0  0  0
 11 12  1  0  0  0  0
 11 41  1  0  0  0  0
 11 42  1  0  0  0  0
 12 16  1  0  0  0  0
 12 43  1  0  0  0  0
 12 44  1  0  0  0  0
 13 45  1  0  0  0  0
 13 46  1  0  0  0  0
 13 47  1  0  0  0  0
 14 17  2  0  0  0  0
 15 18  2  0  0  0  0
 15 48  1  0  0  0  0
 16 19  1  0  0  0  0
 16 49  1  0  0  0  0
 16 50  1  0  0  0  0
 17 18  1  0  0  0  0
 17 51  1  0  0  0  0
 18 52  1  0  0  0  0
 19 53  1  0  0  0  0
 19 54  1  0  0  0  0
 20 56  1  0  0  0  0
 20 57  1  0  0  0  0
 20 58  1  0  0  0  0
 21 22  1  0  0  0  0
 22 23  2  0  0  0  0
 22 24  1  0  0  0  0
 23 26  1  0  0  0  0
 23 59  1  0  0  0  0
 24 27  2  0  0  0  0
 24 60  1  0  0  0  0
 25 26  2  0  0  0  0
 25 27  1  0  0  0  0
 25 28  1  0  0  0  0
 26 61  1  0  0  0  0
 27 62  1  0  0  0  0
 28 29  2  0  0  0  0
 28 30  1  0  0  0  0
 29 31  1  0  0  0  0
 29 63  1  0  0  0  0
 30 32  2  0  0  0  0
 30 64  1  0  0  0  0
 31 33  2  0  0  0  0
 31 65  1  0  0  0  0
 32 33  1  0  0  0  0
 32 66  1  0  0  0  0
 33 67  1  0  0  0  0
M  END
> <PUBCHEM_COMPOUND_CID>
19592101

> <PUBCHEM_COMPOUND_CANONICALIZED>
1

> <PUBCHEM_CACTVS_COMPLEXITY>
582

> <PUBCHEM_CACTVS_HBOND_ACCEPTOR>
3

> <PUBCHEM_CACTVS_HBOND_DONOR>
1

> <PUBCHEM_CACTVS_ROTATABLE_BOND>
9

> <PUBCHEM_CACTVS_SUBSKEYS>
AAADcfB7MAAAAAAAAAAAAAAAAAAAAAAAAAAwYMGAAAAAAADBUAAAHgAQAAAADCzBmAYyBoPABACIAiFSEACCCAAkIAAIiIEODMgMJjKEtRuEMShk1hGIqYeY2POOwAABAAAYAACQAAKAADAAAAAAAAAAAA==

> <PUBCHEM_IUPAC_OPENEYE_NAME>
N-[4-[(5-methoxytetralin-2-yl)-methyl-amino]butyl]-4-phenyl-benzamide

> <PUBCHEM_IUPAC_CAS_NAME>
N-[4-[(5-methoxy-1,2,3,4-tetrahydronaphthalen-2-yl)-methylamino]butyl]-4-phenylbenzamide

> <PUBCHEM_IUPAC_NAME_MARKUP>
<I>N</I>-[4-[(5-methoxy-1,2,3,4-tetrahydronaphthalen-2-yl)-methylamino]butyl]-4-phenylbenzamide

> <PUBCHEM_IUPAC_NAME>
N-[4-[(5-methoxy-1,2,3,4-tetrahydronaphthalen-2-yl)-methylamino]butyl]-4-phenylbenzamide

> <PUBCHEM_IUPAC_SYSTEMATIC_NAME>
N-[4-[(5-methoxy-1,2,3,4-tetrahydronaphthalen-2-yl)-methyl-amino]butyl]-4-phenyl-benzamide

> <PUBCHEM_IUPAC_TRADITIONAL_NAME>
N-[4-[(5-methoxytetralin-2-yl)-methyl-amino]butyl]-4-phenyl-benzamide

> <PUBCHEM_IUPAC_INCHI>
InChI=1S/C29H34N2O2/c1-31(26-17-18-27-25(21-26)11-8-12-28(27)33-2)20-7-6-19-30-29(32)24-15-13-23(14-16-24)22-9-4-3-5-10-22/h3-5,8-16,26H,6-7,17-21H2,1-2H3,(H,30,32)

> <PUBCHEM_IUPAC_INCHIKEY>
FOYUWODSNRINIS-UHFFFAOYSA-N

> <PUBCHEM_XLOGP3_AA>
6

> <PUBCHEM_EXACT_MASS>
442.262028332

> <PUBCHEM_MOLECULAR_FORMULA>
C29H34N2O2

> <PUBCHEM_MOLECULAR_WEIGHT>
442.6

> <PUBCHEM_OPENEYE_CAN_SMILES>
CN(CCCCNC(=O)C1=CC=C(C=C1)C2=CC=CC=C2)C3CCC4=C(C3)C=CC=C4OC

> <PUBCHEM_OPENEYE_ISO_SMILES>
CN(CCCCNC(=O)C1=CC=C(C=C1)C2=CC=CC=C2)C3CCC4=C(C3)C=CC=C4OC

> <PUBCHEM_CACTVS_TPSA>
41.6

> <PUBCHEM_MONOISOTOPIC_WEIGHT>
442.262028332

> <PUBCHEM_TOTAL_CHARGE>
0

> <PUBCHEM_HEAVY_ATOM_COUNT>
33

> <PUBCHEM_ATOM_DEF_STEREO_COUNT>
0

> <PUBCHEM_ATOM_UDEF_STEREO_COUNT>
1

> <PUBCHEM_BOND_DEF_STEREO_COUNT>
0

> <PUBCHEM_BOND_UDEF_STEREO_COUNT>
0

> <PUBCHEM_ISOTOPIC_ATOM_COUNT>
0

> <PUBCHEM_COMPONENT_COUNT>
1

> <PUBCHEM_CACTVS_TAUTO_COUNT>
-1

> <PUBCHEM_COORDINATE_TYPE>
1
5
255

> <PUBCHEM_BONDANNOTATIONS>
10  14  8
14  17  8
15  18  8
17  18  8
22  23  8
22  24  8
23  26  8
24  27  8
25  26  8
25  27  8
28  29  8
28  30  8
29  31  8
5  3  3
30  32  8
31  33  8
32  33  8
9  10  8
9  15  8

$$$$
