156020306
  -OEChem-09292322422D

 74 78  0     1  0  0  0  0  0999 V2000
    9.1206    3.6508    0.0000 S   0  0  0  0  0  0  0  0  0  0  0  0
    4.6783   -5.9752    0.0000 S   0  0  0  0  0  0  0  0  0  0  0  0
   12.6774    6.1705    0.0000 F   0  0  0  0  0  0  0  0  0  0  0  0
   13.3173    4.9093    0.0000 F   0  0  0  0  0  0  0  0  0  0  0  0
   11.4162    5.5307    0.0000 F   0  0  0  0  0  0  0  0  0  0  0  0
    9.8649    4.3187    0.0000 O   0  0  0  0  0  0  0  0  0  0  0  0
    8.3763    2.9830    0.0000 O   0  0  0  0  0  0  0  0  0  0  0  0
    5.6103   -1.5142    0.0000 N   0  0  0  0  0  0  0  0  0  0  0  0
    4.9889   -3.4153    0.0000 N   0  0  0  0  0  0  0  0  0  0  0  0
    9.7884    2.9065    0.0000 N   0  0  3  0  0  0  0  0  0  0  0  0
    5.2619   -5.1705    0.0000 N   0  0  0  0  0  0  0  0  0  0  0  0
    4.6318   -1.7204    0.0000 C   0  0  0  0  0  0  0  0  0  0  0  0
    6.2781   -2.2585    0.0000 C   0  0  0  0  0  0  0  0  0  0  0  0
    5.9209   -0.5637    0.0000 C   0  0  0  0  0  0  0  0  0  0  0  0
    4.3211   -2.6710    0.0000 C   0  0  0  0  0  0  0  0  0  0  0  0
    5.9674   -3.2090    0.0000 C   0  0  0  0  0  0  0  0  0  0  0  0
    6.8994   -0.3575    0.0000 C   0  0  0  0  0  0  0  0  0  0  0  0
    7.2101    0.5930    0.0000 C   0  0  0  0  0  0  0  0  0  0  0  0
    8.1886    0.7993    0.0000 C   0  0  0  0  0  0  0  0  0  0  0  0
    4.6783   -4.3658    0.0000 C   0  0  0  0  0  0  0  0  0  0  0  0
    8.4993    1.7498    0.0000 C   0  0  0  0  0  0  0  0  0  0  0  0
    9.4778    1.9560    0.0000 C   0  0  0  0  0  0  0  0  0  0  0  0
    3.7320   -4.6705    0.0000 C   0  0  0  0  0  0  0  0  0  0  0  0
    3.7320   -5.6705    0.0000 C   0  0  0  0  0  0  0  0  0  0  0  0
   10.7669    3.1127    0.0000 C   0  0  0  0  0  0  0  0  0  0  0  0
    2.8660   -4.1705    0.0000 C   0  0  0  0  0  0  0  0  0  0  0  0
    8.4527    4.3951    0.0000 C   0  0  0  0  0  0  0  0  0  0  0  0
    2.8660   -6.1705    0.0000 C   0  0  0  0  0  0  0  0  0  0  0  0
   11.0776    4.0633    0.0000 C   0  0  0  0  0  0  0  0  0  0  0  0
    2.0000   -4.6705    0.0000 C   0  0  0  0  0  0  0  0  0  0  0  0
   11.4348    2.3684    0.0000 C   0  0  0  0  0  0  0  0  0  0  0  0
    2.0000   -5.6705    0.0000 C   0  0  0  0  0  0  0  0  0  0  0  0
   12.0561    4.2695    0.0000 C   0  0  0  0  0  0  0  0  0  0  0  0
    8.7634    5.3456    0.0000 C   0  0  0  0  0  0  0  0  0  0  0  0
    7.4742    4.1889    0.0000 C   0  0  0  0  0  0  0  0  0  0  0  0
   12.4133    2.5746    0.0000 C   0  0  0  0  0  0  0  0  0  0  0  0
   12.7239    3.5252    0.0000 C   0  0  0  0  0  0  0  0  0  0  0  0
   12.3668    5.2200    0.0000 C   0  0  0  0  0  0  0  0  0  0  0  0
    8.0956    6.0899    0.0000 C   0  0  0  0  0  0  0  0  0  0  0  0
    6.8064    4.9332    0.0000 C   0  0  0  0  0  0  0  0  0  0  0  0
    7.1170    5.8837    0.0000 C   0  0  0  0  0  0  0  0  0  0  0  0
    4.6112   -1.1008    0.0000 H   0  0  0  0  0  0  0  0  0  0  0  0
    4.0179   -1.6331    0.0000 H   0  0  0  0  0  0  0  0  0  0  0  0
    6.8250   -2.5505    0.0000 H   0  0  0  0  0  0  0  0  0  0  0  0
    6.6607   -1.7706    0.0000 H   0  0  0  0  0  0  0  0  0  0  0  0
    5.9004    0.0560    0.0000 H   0  0  0  0  0  0  0  0  0  0  0  0
    5.3071   -0.4764    0.0000 H   0  0  0  0  0  0  0  0  0  0  0  0
    3.7742   -2.3789    0.0000 H   0  0  0  0  0  0  0  0  0  0  0  0
    3.9385   -3.1589    0.0000 H   0  0  0  0  0  0  0  0  0  0  0  0
    5.9880   -3.8287    0.0000 H   0  0  0  0  0  0  0  0  0  0  0  0
    6.5812   -3.2964    0.0000 H   0  0  0  0  0  0  0  0  0  0  0  0
    6.9200   -0.9771    0.0000 H   0  0  0  0  0  0  0  0  0  0  0  0
    7.5132   -0.4448    0.0000 H   0  0  0  0  0  0  0  0  0  0  0  0
    7.1895    1.2127    0.0000 H   0  0  0  0  0  0  0  0  0  0  0  0
    6.5963    0.6804    0.0000 H   0  0  0  0  0  0  0  0  0  0  0  0
    8.2092    0.1796    0.0000 H   0  0  0  0  0  0  0  0  0  0  0  0
    8.8024    0.7119    0.0000 H   0  0  0  0  0  0  0  0  0  0  0  0
    8.4787    2.3694    0.0000 H   0  0  0  0  0  0  0  0  0  0  0  0
    7.8854    1.8371    0.0000 H   0  0  0  0  0  0  0  0  0  0  0  0
    9.4983    1.3363    0.0000 H   0  0  0  0  0  0  0  0  0  0  0  0
   10.0916    1.8686    0.0000 H   0  0  0  0  0  0  0  0  0  0  0  0
    2.8660   -3.5505    0.0000 H   0  0  0  0  0  0  0  0  0  0  0  0
    2.8660   -6.7905    0.0000 H   0  0  0  0  0  0  0  0  0  0  0  0
   10.6635    4.5247    0.0000 H   0  0  0  0  0  0  0  0  0  0  0  0
   11.2422    1.7791    0.0000 H   0  0  0  0  0  0  0  0  0  0  0  0
    1.4631   -4.3605    0.0000 H   0  0  0  0  0  0  0  0  0  0  0  0
    1.4631   -5.9805    0.0000 H   0  0  0  0  0  0  0  0  0  0  0  0
    9.3701    5.4735    0.0000 H   0  0  0  0  0  0  0  0  0  0  0  0
    7.2816    3.5996    0.0000 H   0  0  0  0  0  0  0  0  0  0  0  0
   12.8273    2.1132    0.0000 H   0  0  0  0  0  0  0  0  0  0  0  0
   13.3306    3.6530    0.0000 H   0  0  0  0  0  0  0  0  0  0  0  0
    8.2882    6.6793    0.0000 H   0  0  0  0  0  0  0  0  0  0  0  0
    6.1997    4.8054    0.0000 H   0  0  0  0  0  0  0  0  0  0  0  0
    6.7030    6.3452    0.0000 H   0  0  0  0  0  0  0  0  0  0  0  0
  1  6  2  0  0  0  0
  1  7  2  0  0  0  0
  1 10  1  0  0  0  0
  1 27  1  0  0  0  0
  2 11  1  0  0  0  0
  2 24  1  0  0  0  0
  3 38  1  0  0  0  0
  4 38  1  0  0  0  0
  5 38  1  0  0  0  0
  8 12  1  0  0  0  0
  8 13  1  0  0  0  0
  8 14  1  0  0  0  0
  9 15  1  0  0  0  0
  9 16  1  0  0  0  0
  9 20  1  0  0  0  0
 10 22  1  0  0  0  0
 10 25  1  0  0  0  0
 11 20  2  0  0  0  0
 12 15  1  0  0  0  0
 12 42  1  0  0  0  0
 12 43  1  0  0  0  0
 13 16  1  0  0  0  0
 13 44  1  0  0  0  0
 13 45  1  0  0  0  0
 14 17  1  0  0  0  0
 14 46  1  0  0  0  0
 14 47  1  0  0  0  0
 15 48  1  0  0  0  0
 15 49  1  0  0  0  0
 16 50  1  0  0  0  0
 16 51  1  0  0  0  0
 17 18  1  0  0  0  0
 17 52  1  0  0  0  0
 17 53  1  0  0  0  0
 18 19  1  0  0  0  0
 18 54  1  0  0  0  0
 18 55  1  0  0  0  0
 19 21  1  0  0  0  0
 19 56  1  0  0  0  0
 19 57  1  0  0  0  0
 20 23  1  0  0  0  0
 21 22  1  0  0  0  0
 21 58  1  0  0  0  0
 21 59  1  0  0  0  0
 22 60  1  0  0  0  0
 22 61  1  0  0  0  0
 23 24  1  0  0  0  0
 23 26  2  0  0  0  0
 24 28  2  0  0  0  0
 25 29  1  0  0  0  0
 25 31  2  0  0  0  0
 26 30  1  0  0  0  0
 26 62  1  0  0  0  0
 27 34  2  0  0  0  0
 27 35  1  0  0  0  0
 28 32  1  0  0  0  0
 28 63  1  0  0  0  0
 29 33  2  0  0  0  0
 29 64  1  0  0  0  0
 30 32  2  0  0  0  0
 30 66  1  0  0  0  0
 31 36  1  0  0  0  0
 31 65  1  0  0  0  0
 32 67  1  0  0  0  0
 33 37  1  0  0  0  0
 33 38  1  0  0  0  0
 34 39  1  0  0  0  0
 34 68  1  0  0  0  0
 35 40  2  0  0  0  0
 35 69  1  0  0  0  0
 36 37  2  0  0  0  0
 36 70  1  0  0  0  0
 37 71  1  0  0  0  0
 39 41  2  0  0  0  0
 39 72  1  0  0  0  0
 40 41  1  0  0  0  0
 40 73  1  0  0  0  0
 41 74  1  0  0  0  0
M  END
> <PUBCHEM_COMPOUND_CID>
156020306

> <PUBCHEM_COMPOUND_CANONICALIZED>
1

> <PUBCHEM_CACTVS_COMPLEXITY>
904

> <PUBCHEM_CACTVS_HBOND_ACCEPTOR>
10

> <PUBCHEM_CACTVS_HBOND_DONOR>
0

> <PUBCHEM_CACTVS_ROTATABLE_BOND>
11

> <PUBCHEM_CACTVS_SUBSKEYS>
AAADcfB7sYBgAAAAAAAAAAAAAAAAAWAAAAA8YMEAAAAAAFgB9AAAHQQAQAAADAjBWhQx8dMAAAKkAiZiYHDDABAhAgBJmDgoZJiIYKLAmZGUIAxggALIyAcQgAAOAAAAQAAEAAAAAACAAAgAAAAAAAAAAA==

> <PUBCHEM_IUPAC_OPENEYE_NAME>
N-[6-[4-(1,2-benzothiazol-3-yl)piperazin-1-yl]hexyl]-N-[3-(trifluoromethyl)phenyl]benzenesulfonamide

> <PUBCHEM_IUPAC_CAS_NAME>
N-[6-[4-(1,2-benzothiazol-3-yl)-1-piperazinyl]hexyl]-N-[3-(trifluoromethyl)phenyl]benzenesulfonamide

> <PUBCHEM_IUPAC_NAME_MARKUP>
<I>N</I>-[6-[4-(1,2-benzothiazol-3-yl)piperazin-1-yl]hexyl]-<I>N</I>-[3-(trifluoromethyl)phenyl]benzenesulfonamide

> <PUBCHEM_IUPAC_NAME>
N-[6-[4-(1,2-benzothiazol-3-yl)piperazin-1-yl]hexyl]-N-[3-(trifluoromethyl)phenyl]benzenesulfonamide

> <PUBCHEM_IUPAC_SYSTEMATIC_NAME>
N-[6-[4-(1,2-benzothiazol-3-yl)piperazin-1-yl]hexyl]-N-[3-(trifluoromethyl)phenyl]benzenesulfonamide

> <PUBCHEM_IUPAC_TRADITIONAL_NAME>
N-[6-[4-(1,2-benzothiazol-3-yl)piperazino]hexyl]-N-[3-(trifluoromethyl)phenyl]benzenesulfonamide

> <PUBCHEM_IUPAC_INCHI>
InChI=1S/C30H33F3N4O2S2/c31-30(32,33)24-11-10-12-25(23-24)37(41(38,39)26-13-4-3-5-14-26)18-9-2-1-8-17-35-19-21-36(22-20-35)29-27-15-6-7-16-28(27)40-34-29/h3-7,10-16,23H,1-2,8-9,17-22H2

> <PUBCHEM_IUPAC_INCHIKEY>
XWSSWUGRNPRNER-UHFFFAOYSA-N

> <PUBCHEM_XLOGP3_AA>
7.3

> <PUBCHEM_EXACT_MASS>
602.19970314

> <PUBCHEM_MOLECULAR_FORMULA>
C30H33F3N4O2S2

> <PUBCHEM_MOLECULAR_WEIGHT>
602.7

> <PUBCHEM_OPENEYE_CAN_SMILES>
C1CN(CCN1CCCCCCN(C2=CC=CC(=C2)C(F)(F)F)S(=O)(=O)C3=CC=CC=C3)C4=NSC5=CC=CC=C54

> <PUBCHEM_OPENEYE_ISO_SMILES>
C1CN(CCN1CCCCCCN(C2=CC=CC(=C2)C(F)(F)F)S(=O)(=O)C3=CC=CC=C3)C4=NSC5=CC=CC=C54

> <PUBCHEM_CACTVS_TPSA>
93.4

> <PUBCHEM_MONOISOTOPIC_WEIGHT>
602.19970314

> <PUBCHEM_TOTAL_CHARGE>
0

> <PUBCHEM_HEAVY_ATOM_COUNT>
41

> <PUBCHEM_ATOM_DEF_STEREO_COUNT>
0

> <PUBCHEM_ATOM_UDEF_STEREO_COUNT>
0

> <PUBCHEM_BOND_DEF_STEREO_COUNT>
0

> <PUBCHEM_BOND_UDEF_STEREO_COUNT>
0

> <PUBCHEM_ISOTOPIC_ATOM_COUNT>
0

> <PUBCHEM_COMPONENT_COUNT>
1

> <PUBCHEM_CACTVS_TAUTO_COUNT>
-1

> <PUBCHEM_COORDINATE_TYPE>
1
5
255

> <PUBCHEM_BONDANNOTATIONS>
11  20  8
2  11  8
2  24  8
20  23  8
23  24  8
23  26  8
24  28  8
25  29  8
25  31  8
26  30  8
27  34  8
27  35  8
28  32  8
29  33  8
30  32  8
31  36  8
33  37  8
34  39  8
35  40  8
36  37  8
39  41  8
40  41  8

$$$$
