11504230
  -OEChem-09292322272D

 76 80  0     0  0  0  0  0  0999 V2000
    7.2232    3.5930    0.0000 O   0  0  0  0  0  0  0  0  0  0  0  0
    5.2081   -3.5089    0.0000 O   0  0  0  0  0  0  0  0  0  0  0  0
    4.2232    1.8609    0.0000 N   0  0  0  0  0  0  0  0  0  0  0  0
    5.2232    3.5930    0.0000 N   0  0  0  0  0  0  0  0  0  0  0  0
    3.7232   -2.4692    0.0000 N   0  0  0  0  0  0  0  0  0  0  0  0
    5.2232    1.8610    0.0000 C   0  0  0  0  0  0  0  0  0  0  0  0
    3.7232    2.7270    0.0000 C   0  0  0  0  0  0  0  0  0  0  0  0
    5.7232    2.7270    0.0000 C   0  0  0  0  0  0  0  0  0  0  0  0
    4.2232    3.5930    0.0000 C   0  0  0  0  0  0  0  0  0  0  0  0
    3.7232    0.9949    0.0000 C   0  0  0  0  0  0  0  0  0  0  0  0
    4.2232    0.1289    0.0000 C   0  0  0  0  0  0  0  0  0  0  0  0
    5.7232    4.4590    0.0000 C   0  0  0  0  0  0  0  0  0  0  0  0
    3.7232   -0.7371    0.0000 C   0  0  0  0  0  0  0  0  0  0  0  0
    4.2232   -1.6032    0.0000 C   0  0  0  0  0  0  0  0  0  0  0  0
    6.7232    4.4590    0.0000 C   0  0  0  0  0  0  0  0  0  0  0  0
    5.2232    5.3250    0.0000 C   0  0  0  0  0  0  0  0  0  0  0  0
    2.8616   -3.7038    0.0000 C   0  0  0  0  0  0  0  0  0  0  0  0
    3.7232   -4.2012    0.0000 C   0  0  0  0  0  0  0  0  0  0  0  0
    3.7232   -3.2063    0.0000 C   0  0  0  0  0  0  0  0  0  0  0  0
    7.2232    5.3250    0.0000 C   0  0  0  0  0  0  0  0  0  0  0  0
    2.8616   -5.6936    0.0000 C   0  0  0  0  0  0  0  0  0  0  0  0
    4.2232   -3.3352    0.0000 C   0  0  0  0  0  0  0  0  0  0  0  0
    4.7637   -3.1842    0.0000 C   0  0  0  0  0  0  0  0  0  0  0  0
    3.7232   -6.1911    0.0000 C   0  0  0  0  0  0  0  0  0  0  0  0
    5.7232    6.1911    0.0000 C   0  0  0  0  0  0  0  0  0  0  0  0
    4.7637   -6.1690    0.0000 C   0  0  0  0  0  0  0  0  0  0  0  0
    3.7232   -5.1962    0.0000 C   0  0  0  0  0  0  0  0  0  0  0  0
    5.6253   -3.6817    0.0000 C   0  0  0  0  0  0  0  0  0  0  0  0
    6.7232    6.1911    0.0000 C   0  0  0  0  0  0  0  0  0  0  0  0
    2.0000   -4.2012    0.0000 C   0  0  0  0  0  0  0  0  0  0  0  0
    5.6253   -5.6715    0.0000 C   0  0  0  0  0  0  0  0  0  0  0  0
    2.0000   -5.1962    0.0000 C   0  0  0  0  0  0  0  0  0  0  0  0
    6.4869   -4.1791    0.0000 C   0  0  0  0  0  0  0  0  0  0  0  0
    4.7637   -4.1791    0.0000 C   0  0  0  0  0  0  0  0  0  0  0  0
    6.4869   -5.1740    0.0000 C   0  0  0  0  0  0  0  0  0  0  0  0
    4.7637   -5.1740    0.0000 C   0  0  0  0  0  0  0  0  0  0  0  0
    8.2232    3.5930    0.0000 C   0  0  0  0  0  0  0  0  0  0  0  0
    5.1156    1.2504    0.0000 H   0  0  0  0  0  0  0  0  0  0  0  0
    5.8059    1.6489    0.0000 H   0  0  0  0  0  0  0  0  0  0  0  0
    3.2483    3.1255    0.0000 H   0  0  0  0  0  0  0  0  0  0  0  0
    3.2483    2.3284    0.0000 H   0  0  0  0  0  0  0  0  0  0  0  0
    6.1982    2.3284    0.0000 H   0  0  0  0  0  0  0  0  0  0  0  0
    6.1982    3.1255    0.0000 H   0  0  0  0  0  0  0  0  0  0  0  0
    4.3309    4.2036    0.0000 H   0  0  0  0  0  0  0  0  0  0  0  0
    3.6406    3.8050    0.0000 H   0  0  0  0  0  0  0  0  0  0  0  0
    3.2483    1.3934    0.0000 H   0  0  0  0  0  0  0  0  0  0  0  0
    3.2483    0.5964    0.0000 H   0  0  0  0  0  0  0  0  0  0  0  0
    4.6982   -0.2696    0.0000 H   0  0  0  0  0  0  0  0  0  0  0  0
    4.6982    0.5274    0.0000 H   0  0  0  0  0  0  0  0  0  0  0  0
    3.2483   -0.3386    0.0000 H   0  0  0  0  0  0  0  0  0  0  0  0
    3.2483   -1.1357    0.0000 H   0  0  0  0  0  0  0  0  0  0  0  0
    4.6982   -2.0017    0.0000 H   0  0  0  0  0  0  0  0  0  0  0  0
    4.6982   -1.2046    0.0000 H   0  0  0  0  0  0  0  0  0  0  0  0
    4.6032    5.3250    0.0000 H   0  0  0  0  0  0  0  0  0  0  0  0
    3.1032   -2.4692    0.0000 H   0  0  0  0  0  0  0  0  0  0  0  0
    3.9270   -2.6208    0.0000 H   0  0  0  0  0  0  0  0  0  0  0  0
    3.8901   -3.8034    0.0000 H   0  0  0  0  0  0  0  0  0  0  0  0
    5.2358   -2.7823    0.0000 H   0  0  0  0  0  0  0  0  0  0  0  0
    4.6096   -3.7848    0.0000 H   0  0  0  0  0  0  0  0  0  0  0  0
    3.2511   -6.5930    0.0000 H   0  0  0  0  0  0  0  0  0  0  0  0
    3.8774   -5.5905    0.0000 H   0  0  0  0  0  0  0  0  0  0  0  0
    7.8432    5.3250    0.0000 H   0  0  0  0  0  0  0  0  0  0  0  0
    5.4132    6.7280    0.0000 H   0  0  0  0  0  0  0  0  0  0  0  0
    4.5599   -6.7545    0.0000 H   0  0  0  0  0  0  0  0  0  0  0  0
    4.5968   -5.5718    0.0000 H   0  0  0  0  0  0  0  0  0  0  0  0
    4.2602   -5.5062    0.0000 H   0  0  0  0  0  0  0  0  0  0  0  0
    1.4631   -3.8912    0.0000 H   0  0  0  0  0  0  0  0  0  0  0  0
    7.0332    6.7280    0.0000 H   0  0  0  0  0  0  0  0  0  0  0  0
    1.4631   -5.5062    0.0000 H   0  0  0  0  0  0  0  0  0  0  0  0
    7.0238   -3.8691    0.0000 H   0  0  0  0  0  0  0  0  0  0  0  0
    4.2267   -3.8691    0.0000 H   0  0  0  0  0  0  0  0  0  0  0  0
    7.0238   -5.4840    0.0000 H   0  0  0  0  0  0  0  0  0  0  0  0
    4.2267   -5.4840    0.0000 H   0  0  0  0  0  0  0  0  0  0  0  0
    8.2232    2.9730    0.0000 H   0  0  0  0  0  0  0  0  0  0  0  0
    8.8432    3.5930    0.0000 H   0  0  0  0  0  0  0  0  0  0  0  0
    8.2232    4.2130    0.0000 H   0  0  0  0  0  0  0  0  0  0  0  0
  1 15  1  0  0  0  0
  1 37  1  0  0  0  0
  2 22  2  0  0  0  0
  3  6  1  0  0  0  0
  3  7  1  0  0  0  0
  3 10  1  0  0  0  0
  4  8  1  0  0  0  0
  4  9  1  0  0  0  0
  4 12  1  0  0  0  0
  5 14  1  0  0  0  0
  5 22  1  0  0  0  0
  5 55  1  0  0  0  0
  6  8  1  0  0  0  0
  6 38  1  0  0  0  0
  6 39  1  0  0  0  0
  7  9  1  0  0  0  0
  7 40  1  0  0  0  0
  7 41  1  0  0  0  0
  8 42  1  0  0  0  0
  8 43  1  0  0  0  0
  9 44  1  0  0  0  0
  9 45  1  0  0  0  0
 10 11  1  0  0  0  0
 10 46  1  0  0  0  0
 10 47  1  0  0  0  0
 11 13  1  0  0  0  0
 11 48  1  0  0  0  0
 11 49  1  0  0  0  0
 12 15  1  0  0  0  0
 12 16  2  0  0  0  0
 13 14  1  0  0  0  0
 13 50  1  0  0  0  0
 13 51  1  0  0  0  0
 14 52  1  0  0  0  0
 14 53  1  0  0  0  0
 15 20  2  0  0  0  0
 16 25  1  0  0  0  0
 16 54  1  0  0  0  0
 17 18  2  0  0  0  0
 17 19  1  0  0  0  0
 17 30  1  0  0  0  0
 18 22  1  0  0  0  0
 18 27  1  0  0  0  0
 19 23  1  0  0  0  0
 19 56  1  0  0  0  0
 19 57  1  0  0  0  0
 20 29  1  0  0  0  0
 20 62  1  0  0  0  0
 21 24  1  0  0  0  0
 21 27  2  0  0  0  0
 21 32  1  0  0  0  0
 23 28  1  0  0  0  0
 23 58  1  0  0  0  0
 23 59  1  0  0  0  0
 24 26  1  0  0  0  0
 24 60  1  0  0  0  0
 24 61  1  0  0  0  0
 25 29  2  0  0  0  0
 25 63  1  0  0  0  0
 26 31  1  0  0  0  0
 26 64  1  0  0  0  0
 26 65  1  0  0  0  0
 27 66  1  0  0  0  0
 28 33  2  0  0  0  0
 28 34  1  0  0  0  0
 29 68  1  0  0  0  0
 30 32  2  0  0  0  0
 30 67  1  0  0  0  0
 31 35  2  0  0  0  0
 31 36  1  0  0  0  0
 32 69  1  0  0  0  0
 33 35  1  0  0  0  0
 33 70  1  0  0  0  0
 34 36  2  0  0  0  0
 34 71  1  0  0  0  0
 35 72  1  0  0  0  0
 36 73  1  0  0  0  0
 37 74  1  0  0  0  0
 37 75  1  0  0  0  0
 37 76  1  0  0  0  0
M  END
> <PUBCHEM_COMPOUND_CID>
11504230

> <PUBCHEM_COMPOUND_CANONICALIZED>
1

> <PUBCHEM_CACTVS_COMPLEXITY>
686

> <PUBCHEM_CACTVS_HBOND_ACCEPTOR>
4

> <PUBCHEM_CACTVS_HBOND_DONOR>
1

> <PUBCHEM_CACTVS_ROTATABLE_BOND>
8

> <PUBCHEM_CACTVS_SUBSKEYS>
AAADcfB/MAAAAAAAAAAAAAAAAAAAAAAAAAA8YMEAAAAAAAABUAAAHgAQAAAADAzBmAYyxoPABACIAiVSUACCCAAlIgAIiIEPbMgOZjLEtZuVMShk1hHY6YeYyMCOwAACAAAQEACAAAQAACAgAAAAAAAAAA==

> <PUBCHEM_IUPAC_OPENEYE_NAME>
N-[4-[4-(2-methoxyphenyl)piperazin-1-yl]butyl]tricyclo[8.2.2.24,7]hexadeca-1(13),4,6,10(14),11,15-hexaene-5-carboxamide

> <PUBCHEM_IUPAC_CAS_NAME>
N-[4-[4-(2-methoxyphenyl)-1-piperazinyl]butyl]-5-tricyclo[8.2.2.24,7]hexadeca-1(13),4,6,10(14),11,15-hexaenecarboxamide

> <PUBCHEM_IUPAC_NAME_MARKUP>
<I>N</I>-[4-[4-(2-methoxyphenyl)piperazin-1-yl]butyl]tricyclo[8.2.2.2<SUP>4,7</SUP>]hexadeca-1(13),4,6,10(14),11,15-hexaene-5-carboxamide

> <PUBCHEM_IUPAC_NAME>
N-[4-[4-(2-methoxyphenyl)piperazin-1-yl]butyl]tricyclo[8.2.2.24,7]hexadeca-1(13),4,6,10(14),11,15-hexaene-5-carboxamide

> <PUBCHEM_IUPAC_SYSTEMATIC_NAME>
N-[4-[4-(2-methoxyphenyl)piperazin-1-yl]butyl]tricyclo[8.2.2.24,7]hexadeca-1(13),4,6,10(14),11,15-hexaene-5-carboxamide

> <PUBCHEM_IUPAC_TRADITIONAL_NAME>
N-[4-[4-(2-methoxyphenyl)piperazino]butyl]tricyclo[8.2.2.24,7]hexadeca-1(13),4,6,10(14),11,15-hexaene-5-carboxamide

> <PUBCHEM_IUPAC_INCHI>
InChI=1S/C32H39N3O2/c1-37-31-7-3-2-6-30(31)35-22-20-34(21-23-35)19-5-4-18-33-32(36)29-24-27-13-12-25-8-10-26(11-9-25)14-16-28(29)17-15-27/h2-3,6-11,15,17,24H,4-5,12-14,16,18-23H2,1H3,(H,33,36)

> <PUBCHEM_IUPAC_INCHIKEY>
ZKXPPFSIRYLWQE-UHFFFAOYSA-N

> <PUBCHEM_XLOGP3_AA>
6

> <PUBCHEM_EXACT_MASS>
497.30422750

> <PUBCHEM_MOLECULAR_FORMULA>
C32H39N3O2

> <PUBCHEM_MOLECULAR_WEIGHT>
497.7

> <PUBCHEM_OPENEYE_CAN_SMILES>
COC1=CC=CC=C1N2CCN(CC2)CCCCNC(=O)C3=C4CCC5=CC=C(CCC(=C3)C=C4)C=C5

> <PUBCHEM_OPENEYE_ISO_SMILES>
COC1=CC=CC=C1N2CCN(CC2)CCCCNC(=O)C3=C4CCC5=CC=C(CCC(=C3)C=C4)C=C5

> <PUBCHEM_CACTVS_TPSA>
44.8

> <PUBCHEM_MONOISOTOPIC_WEIGHT>
497.30422750

> <PUBCHEM_TOTAL_CHARGE>
0

> <PUBCHEM_HEAVY_ATOM_COUNT>
37

> <PUBCHEM_ATOM_DEF_STEREO_COUNT>
0

> <PUBCHEM_ATOM_UDEF_STEREO_COUNT>
0

> <PUBCHEM_BOND_DEF_STEREO_COUNT>
0

> <PUBCHEM_BOND_UDEF_STEREO_COUNT>
0

> <PUBCHEM_ISOTOPIC_ATOM_COUNT>
0

> <PUBCHEM_COMPONENT_COUNT>
1

> <PUBCHEM_CACTVS_TAUTO_COUNT>
-1

> <PUBCHEM_COORDINATE_TYPE>
1
5
255

> <PUBCHEM_BONDANNOTATIONS>
12  15  8
12  16  8
15  20  8
16  25  8
17  18  8
17  30  8
18  27  8
20  29  8
21  27  8
21  32  8
25  29  8
28  33  8
28  34  8
30  32  8
31  35  8
31  36  8
33  35  8
34  36  8

$$$$
