3277600
  -OEChem-09292322512D

 34 36  0     0  0  0  0  0  0999 V2000
    2.6691    0.9744    0.0000 S   0  0  0  0  0  0  0  0  0  0  0  0
    5.3147   -0.4324    0.0000 O   0  0  0  0  0  0  0  0  0  0  0  0
    9.7250   -0.7371    0.0000 N   0  0  0  0  0  0  0  0  0  0  0  0
    6.1808    1.0676    0.0000 N   0  0  0  0  0  0  0  0  0  0  0  0
    4.4487    1.0676    0.0000 N   0  0  0  0  0  0  0  0  0  0  0  0
    2.0000    0.2312    0.0000 N   0  0  0  0  0  0  0  0  0  0  0  0
    8.7788   -0.4324    0.0000 C   0  0  0  0  0  0  0  0  0  0  0  0
    8.7788    0.5676    0.0000 C   0  0  0  0  0  0  0  0  0  0  0  0
    7.9128    1.0676    0.0000 C   0  0  0  0  0  0  0  0  0  0  0  0
    9.7250    0.8724    0.0000 C   0  0  0  0  0  0  0  0  0  0  0  0
    7.0468    0.5676    0.0000 C   0  0  0  0  0  0  0  0  0  0  0  0
    7.9128   -0.9324    0.0000 C   0  0  0  0  0  0  0  0  0  0  0  0
   10.3087    0.0676    0.0000 C   0  0  0  0  0  0  0  0  0  0  0  0
    7.0468   -0.4324    0.0000 C   0  0  0  0  0  0  0  0  0  0  0  0
   10.0357   -1.6876    0.0000 C   0  0  0  0  0  0  0  0  0  0  0  0
    5.3147    0.5676    0.0000 C   0  0  0  0  0  0  0  0  0  0  0  0
    3.5827    0.5676    0.0000 C   0  0  0  0  0  0  0  0  0  0  0  0
    3.4782   -0.4269    0.0000 C   0  0  0  0  0  0  0  0  0  0  0  0
    2.5000   -0.6348    0.0000 C   0  0  0  0  0  0  0  0  0  0  0  0
    2.0933   -1.5483    0.0000 C   0  0  0  0  0  0  0  0  0  0  0  0
    7.9128    1.6876    0.0000 H   0  0  0  0  0  0  0  0  0  0  0  0
    9.9177    1.4617    0.0000 H   0  0  0  0  0  0  0  0  0  0  0  0
    7.9128   -1.5524    0.0000 H   0  0  0  0  0  0  0  0  0  0  0  0
   10.9287    0.0676    0.0000 H   0  0  0  0  0  0  0  0  0  0  0  0
    6.5098   -0.7424    0.0000 H   0  0  0  0  0  0  0  0  0  0  0  0
    9.4464   -1.8802    0.0000 H   0  0  0  0  0  0  0  0  0  0  0  0
   10.2283   -2.2769    0.0000 H   0  0  0  0  0  0  0  0  0  0  0  0
   10.6250   -1.4950    0.0000 H   0  0  0  0  0  0  0  0  0  0  0  0
    6.1808    1.6876    0.0000 H   0  0  0  0  0  0  0  0  0  0  0  0
    4.4487    1.6876    0.0000 H   0  0  0  0  0  0  0  0  0  0  0  0
    3.9389   -0.8418    0.0000 H   0  0  0  0  0  0  0  0  0  0  0  0
    1.5269   -1.2962    0.0000 H   0  0  0  0  0  0  0  0  0  0  0  0
    1.8411   -2.1148    0.0000 H   0  0  0  0  0  0  0  0  0  0  0  0
    2.6597   -1.8005    0.0000 H   0  0  0  0  0  0  0  0  0  0  0  0
  1  6  1  0  0  0  0
  1 17  1  0  0  0  0
  2 16  2  0  0  0  0
  3  7  1  0  0  0  0
  3 13  1  0  0  0  0
  3 15  1  0  0  0  0
  4 11  1  0  0  0  0
  4 16  1  0  0  0  0
  4 29  1  0  0  0  0
  5 16  1  0  0  0  0
  5 17  1  0  0  0  0
  5 30  1  0  0  0  0
  6 19  2  0  0  0  0
  7  8  2  0  0  0  0
  7 12  1  0  0  0  0
  8  9  1  0  0  0  0
  8 10  1  0  0  0  0
  9 11  2  0  0  0  0
  9 21  1  0  0  0  0
 10 13  2  0  0  0  0
 10 22  1  0  0  0  0
 11 14  1  0  0  0  0
 12 14  2  0  0  0  0
 12 23  1  0  0  0  0
 13 24  1  0  0  0  0
 14 25  1  0  0  0  0
 15 26  1  0  0  0  0
 15 27  1  0  0  0  0
 15 28  1  0  0  0  0
 17 18  2  0  0  0  0
 18 19  1  0  0  0  0
 18 31  1  0  0  0  0
 19 20  1  0  0  0  0
 20 32  1  0  0  0  0
 20 33  1  0  0  0  0
 20 34  1  0  0  0  0
M  END
> <PUBCHEM_COMPOUND_CID>
3277600

> <PUBCHEM_COMPOUND_CANONICALIZED>
1

> <PUBCHEM_CACTVS_COMPLEXITY>
367

> <PUBCHEM_CACTVS_HBOND_ACCEPTOR>
3

> <PUBCHEM_CACTVS_HBOND_DONOR>
2

> <PUBCHEM_CACTVS_ROTATABLE_BOND>
2

> <PUBCHEM_CACTVS_SUBSKEYS>
AAADccBzoABAAAAAAAAAAAAAAAAAAWLAAAAwAAAAAAAAAFgB/AAAHgQQQAAADAjBXgQ/wfPMEACsAzRnVACDgDAxAilI2Dg4ZJiIIOLA0dGEJAxolALIyCcQgIAOAACAQAACAAAAAQCAAAQAAAAAAAAAAA==

> <PUBCHEM_IUPAC_OPENEYE_NAME>
1-(1-methylindol-5-yl)-3-(3-methylisothiazol-5-yl)urea

> <PUBCHEM_IUPAC_CAS_NAME>
1-(1-methyl-5-indolyl)-3-(3-methyl-5-isothiazolyl)urea

> <PUBCHEM_IUPAC_NAME_MARKUP>
1-(1-methylindol-5-yl)-3-(3-methyl-1,2-thiazol-5-yl)urea

> <PUBCHEM_IUPAC_NAME>
1-(1-methylindol-5-yl)-3-(3-methyl-1,2-thiazol-5-yl)urea

> <PUBCHEM_IUPAC_SYSTEMATIC_NAME>
1-(1-methylindol-5-yl)-3-(3-methyl-1,2-thiazol-5-yl)urea

> <PUBCHEM_IUPAC_TRADITIONAL_NAME>
1-(1-methylindol-5-yl)-3-(3-methylisothiazol-5-yl)urea

> <PUBCHEM_IUPAC_INCHI>
InChI=1S/C14H14N4OS/c1-9-7-13(20-17-9)16-14(19)15-11-3-4-12-10(8-11)5-6-18(12)2/h3-8H,1-2H3,(H2,15,16,19)

> <PUBCHEM_IUPAC_INCHIKEY>
USFUFHFQWXDVMH-UHFFFAOYSA-N

> <PUBCHEM_XLOGP3_AA>
2.4

> <PUBCHEM_EXACT_MASS>
286.08883226

> <PUBCHEM_MOLECULAR_FORMULA>
C14H14N4OS

> <PUBCHEM_MOLECULAR_WEIGHT>
286.35

> <PUBCHEM_OPENEYE_CAN_SMILES>
CC1=NSC(=C1)NC(=O)NC2=CC3=C(C=C2)N(C=C3)C

> <PUBCHEM_OPENEYE_ISO_SMILES>
CC1=NSC(=C1)NC(=O)NC2=CC3=C(C=C2)N(C=C3)C

> <PUBCHEM_CACTVS_TPSA>
87.2

> <PUBCHEM_MONOISOTOPIC_WEIGHT>
286.08883226

> <PUBCHEM_TOTAL_CHARGE>
0

> <PUBCHEM_HEAVY_ATOM_COUNT>
20

> <PUBCHEM_ATOM_DEF_STEREO_COUNT>
0

> <PUBCHEM_ATOM_UDEF_STEREO_COUNT>
0

> <PUBCHEM_BOND_DEF_STEREO_COUNT>
0

> <PUBCHEM_BOND_UDEF_STEREO_COUNT>
0

> <PUBCHEM_ISOTOPIC_ATOM_COUNT>
0

> <PUBCHEM_COMPONENT_COUNT>
1

> <PUBCHEM_CACTVS_TAUTO_COUNT>
12

> <PUBCHEM_COORDINATE_TYPE>
1
5
255

> <PUBCHEM_BONDANNOTATIONS>
1  17  8
1  6  8
10  13  8
11  14  8
12  14  8
17  18  8
18  19  8
3  13  8
3  7  8
6  19  8
7  12  8
7  8  8
8  10  8
8  9  8
9  11  8

$$$$
