17756213
  -OEChem-09292322252D

 44 46  0     1  0  0  0  0  0999 V2000
    2.9059    2.9583    0.0000 O   0  0  0  0  0  0  0  0  0  0  0  0
    4.2841   -2.4770    0.0000 N   0  0  3  0  0  0  0  0  0  0  0  0
    6.1160   -2.2358    0.0000 C   0  0  0  0  0  0  0  0  0  0  0  0
    5.2500   -2.7358    0.0000 C   0  0  0  0  0  0  0  0  0  0  0  0
    3.7841   -1.6110    0.0000 C   0  0  0  0  0  0  0  0  0  0  0  0
    6.3821   -1.1110    0.0000 C   0  0  0  0  0  0  0  0  0  0  0  0
    2.9180   -1.1110    0.0000 C   0  0  0  0  0  0  0  0  0  0  0  0
    6.3821   -0.1110    0.0000 C   0  0  0  0  0  0  0  0  0  0  0  0
    2.9180   -0.1110    0.0000 C   0  0  0  0  0  0  0  0  0  0  0  0
    4.6501   -0.1110    0.0000 C   0  0  0  0  0  0  0  0  0  0  0  0
    3.7841    0.3890    0.0000 C   0  0  0  0  0  0  0  0  0  0  0  0
    5.5161    0.3890    0.0000 C   0  0  0  0  0  0  0  0  0  0  0  0
    3.6753   -3.2704    0.0000 C   0  0  0  0  0  0  0  0  0  0  0  0
    2.0080    0.3959    0.0000 C   0  0  0  0  0  0  0  0  0  0  0  0
    7.2921    0.3959    0.0000 C   0  0  0  0  0  0  0  0  0  0  0  0
    3.8001    1.4305    0.0000 C   0  0  0  0  0  0  0  0  0  0  0  0
    5.5000    1.4305    0.0000 C   0  0  0  0  0  0  0  0  0  0  0  0
    2.9021    1.9583    0.0000 C   0  0  0  0  0  0  0  0  0  0  0  0
    2.0000    1.4375    0.0000 C   0  0  0  0  0  0  0  0  0  0  0  0
    7.3002    1.4375    0.0000 C   0  0  0  0  0  0  0  0  0  0  0  0
    6.3981    1.9583    0.0000 C   0  0  0  0  0  0  0  0  0  0  0  0
    6.2824   -2.8331    0.0000 H   0  0  0  0  0  0  0  0  0  0  0  0
    6.7359   -2.2236    0.0000 H   0  0  0  0  0  0  0  0  0  0  0  0
    4.9400   -3.2728    0.0000 H   0  0  0  0  0  0  0  0  0  0  0  0
    5.6884   -3.1742    0.0000 H   0  0  0  0  0  0  0  0  0  0  0  0
    4.3946   -1.5033    0.0000 H   0  0  0  0  0  0  0  0  0  0  0  0
    3.3456   -2.0494    0.0000 H   0  0  0  0  0  0  0  0  0  0  0  0
    6.8648   -1.5001    0.0000 H   0  0  0  0  0  0  0  0  0  0  0  0
    5.7663   -1.0391    0.0000 H   0  0  0  0  0  0  0  0  0  0  0  0
    2.3074   -1.0033    0.0000 H   0  0  0  0  0  0  0  0  0  0  0  0
    2.7060   -1.6936    0.0000 H   0  0  0  0  0  0  0  0  0  0  0  0
    4.2516   -0.5859    0.0000 H   0  0  0  0  0  0  0  0  0  0  0  0
    5.0486   -0.5859    0.0000 H   0  0  0  0  0  0  0  0  0  0  0  0
    3.1834   -2.8929    0.0000 H   0  0  0  0  0  0  0  0  0  0  0  0
    3.2979   -3.7622    0.0000 H   0  0  0  0  0  0  0  0  0  0  0  0
    4.1672   -3.6478    0.0000 H   0  0  0  0  0  0  0  0  0  0  0  0
    1.4747    0.0797    0.0000 H   0  0  0  0  0  0  0  0  0  0  0  0
    7.8254    0.0797    0.0000 H   0  0  0  0  0  0  0  0  0  0  0  0
    4.3406    1.7343    0.0000 H   0  0  0  0  0  0  0  0  0  0  0  0
    4.9596    1.7343    0.0000 H   0  0  0  0  0  0  0  0  0  0  0  0
    1.4619    1.7454    0.0000 H   0  0  0  0  0  0  0  0  0  0  0  0
    7.8383    1.7454    0.0000 H   0  0  0  0  0  0  0  0  0  0  0  0
    6.3957    2.5783    0.0000 H   0  0  0  0  0  0  0  0  0  0  0  0
    2.3702    3.2704    0.0000 H   0  0  0  0  0  0  0  0  0  0  0  0
  1 18  1  0  0  0  0
  1 44  1  0  0  0  0
  2  4  1  0  0  0  0
  2  5  1  0  0  0  0
  2 13  1  0  0  0  0
  3  4  1  0  0  0  0
  3  6  1  0  0  0  0
  3 22  1  0  0  0  0
  3 23  1  0  0  0  0
  4 24  1  0  0  0  0
  4 25  1  0  0  0  0
  5  7  1  0  0  0  0
  5 26  1  0  0  0  0
  5 27  1  0  0  0  0
  6  8  1  0  0  0  0
  6 28  1  0  0  0  0
  6 29  1  0  0  0  0
  7  9  1  0  0  0  0
  7 30  1  0  0  0  0
  7 31  1  0  0  0  0
  8 12  1  0  0  0  0
  8 15  2  0  0  0  0
  9 11  2  0  0  0  0
  9 14  1  0  0  0  0
 10 11  1  0  0  0  0
 10 12  1  0  0  0  0
 10 32  1  0  0  0  0
 10 33  1  0  0  0  0
 11 16  1  0  0  0  0
 12 17  2  0  0  0  0
 13 34  1  0  0  0  0
 13 35  1  0  0  0  0
 13 36  1  0  0  0  0
 14 19  2  0  0  0  0
 14 37  1  0  0  0  0
 15 20  1  0  0  0  0
 15 38  1  0  0  0  0
 16 18  2  0  0  0  0
 16 39  1  0  0  0  0
 17 21  1  0  0  0  0
 17 40  1  0  0  0  0
 18 19  1  0  0  0  0
 19 41  1  0  0  0  0
 20 21  2  0  0  0  0
 20 42  1  0  0  0  0
 21 43  1  0  0  0  0
M  END
> <PUBCHEM_COMPOUND_CID>
17756213

> <PUBCHEM_COMPOUND_CANONICALIZED>
1

> <PUBCHEM_CACTVS_COMPLEXITY>
319

> <PUBCHEM_CACTVS_HBOND_ACCEPTOR>
2

> <PUBCHEM_CACTVS_HBOND_DONOR>
1

> <PUBCHEM_CACTVS_ROTATABLE_BOND>
0

> <PUBCHEM_CACTVS_SUBSKEYS>
AAADceB6IAAAAAAAAAAAAAAAAAAAAAAAAAAwYAAAAAAAAAABQAAAHgAACAAADATBmAQyBoMAAgCAAiBCAAACAAAgIAAIiAAOCIgIJiKCkROEcAAkwBGImAeQwPAOoAABAAAQAABAAAIAACAAAAAAAAAAAA==

> <PUBCHEM_IUPAC_OPENEYE_NAME>
11-methyl-11-azatricyclo[13.4.0.03,8]nonadeca-1(19),3(8),4,6,15,17-hexaen-5-ol

> <PUBCHEM_IUPAC_CAS_NAME>
11-methyl-11-azatricyclo[13.4.0.03,8]nonadeca-1(19),3(8),4,6,15,17-hexaen-5-ol

> <PUBCHEM_IUPAC_NAME_MARKUP>
11-methyl-11-azatricyclo[13.4.0.0<SUP>3,8</SUP>]nonadeca-1(19),3(8),4,6,15,17-hexaen-5-ol

> <PUBCHEM_IUPAC_NAME>
11-methyl-11-azatricyclo[13.4.0.03,8]nonadeca-1(19),3(8),4,6,15,17-hexaen-5-ol

> <PUBCHEM_IUPAC_SYSTEMATIC_NAME>
11-methyl-11-azatricyclo[13.4.0.03,8]nonadeca-1(19),3(8),4,6,15,17-hexaen-5-ol

> <PUBCHEM_IUPAC_TRADITIONAL_NAME>
11-methyl-11-azatricyclo[13.4.0.03,8]nonadeca-1(19),3(8),4,6,15,17-hexaen-5-ol

> <PUBCHEM_IUPAC_INCHI>
InChI=1S/C19H23NO/c1-20-11-4-7-15-5-2-3-6-17(15)13-18-14-19(21)9-8-16(18)10-12-20/h2-3,5-6,8-9,14,21H,4,7,10-13H2,1H3

> <PUBCHEM_IUPAC_INCHIKEY>
WHCKEFZLQQCXGO-UHFFFAOYSA-N

> <PUBCHEM_XLOGP3_AA>
4.2

> <PUBCHEM_EXACT_MASS>
281.177964357

> <PUBCHEM_MOLECULAR_FORMULA>
C19H23NO

> <PUBCHEM_MOLECULAR_WEIGHT>
281.4

> <PUBCHEM_OPENEYE_CAN_SMILES>
CN1CCCC2=CC=CC=C2CC3=C(CC1)C=CC(=C3)O

> <PUBCHEM_OPENEYE_ISO_SMILES>
CN1CCCC2=CC=CC=C2CC3=C(CC1)C=CC(=C3)O

> <PUBCHEM_CACTVS_TPSA>
23.5

> <PUBCHEM_MONOISOTOPIC_WEIGHT>
281.177964357

> <PUBCHEM_TOTAL_CHARGE>
0

> <PUBCHEM_HEAVY_ATOM_COUNT>
21

> <PUBCHEM_ATOM_DEF_STEREO_COUNT>
0

> <PUBCHEM_ATOM_UDEF_STEREO_COUNT>
0

> <PUBCHEM_BOND_DEF_STEREO_COUNT>
0

> <PUBCHEM_BOND_UDEF_STEREO_COUNT>
0

> <PUBCHEM_ISOTOPIC_ATOM_COUNT>
0

> <PUBCHEM_COMPONENT_COUNT>
1

> <PUBCHEM_CACTVS_TAUTO_COUNT>
-1

> <PUBCHEM_COORDINATE_TYPE>
1
5
255

> <PUBCHEM_BONDANNOTATIONS>
11  16  8
12  17  8
14  19  8
15  20  8
16  18  8
17  21  8
18  19  8
20  21  8
8  12  8
8  15  8
9  11  8
9  14  8

$$$$
