25139478
  -OEChem-09292322232D

 79 82  0     1  0  0  0  0  0999 V2000
    7.0172    8.1804    0.0000 Si  0  0  0  0  0  0  0  0  0  0  0  0
    4.5768    2.6991    0.0000 N   0  0  3  0  0  0  0  0  0  0  0  0
    5.5267   -1.5551    0.0000 N   0  0  0  0  0  0  0  0  0  0  0  0
    6.5267   -1.5551    0.0000 N   0  0  0  0  0  0  0  0  0  0  0  0
    6.8357   -2.5061    0.0000 N   0  0  0  0  0  0  0  0  0  0  0  0
    4.9836    3.6126    0.0000 C   0  0  3  0  0  0  0  0  0  0  0  0
    5.9781    3.7172    0.0000 C   0  0  0  0  0  0  0  0  0  0  0  0
    4.3958    4.4216    0.0000 C   0  0  0  0  0  0  0  0  0  0  0  0
    5.1646    1.8901    0.0000 C   0  0  0  0  0  0  0  0  0  0  0  0
    6.3848    4.6307    0.0000 C   0  0  0  0  0  0  0  0  0  0  0  0
    3.5823    2.5946    0.0000 C   0  0  0  0  0  0  0  0  0  0  0  0
    4.8025    5.3352    0.0000 C   0  0  0  0  0  0  0  0  0  0  0  0
    4.7579    0.9765    0.0000 C   0  0  0  0  0  0  0  0  0  0  0  0
    5.7970    5.4397    0.0000 C   0  0  0  0  0  0  0  0  0  0  0  0
    2.9945    3.4036    0.0000 C   0  0  0  0  0  0  0  0  0  0  0  0
    5.3457    0.1675    0.0000 C   0  0  0  0  0  0  0  0  0  0  0  0
    4.9389   -0.7460    0.0000 C   0  0  0  0  0  0  0  0  0  0  0  0
    2.0000    3.2990    0.0000 C   0  0  0  0  0  0  0  0  0  0  0  0
    6.2038    6.3533    0.0000 C   0  0  0  0  0  0  0  0  0  0  0  0
    6.6105    7.2668    0.0000 C   0  0  0  0  0  0  0  0  0  0  0  0
    5.2177   -2.5061    0.0000 C   0  0  0  0  0  0  0  0  0  0  0  0
    7.4240    9.0939    0.0000 C   0  0  0  0  0  0  0  0  0  0  0  0
    6.1037    8.5871    0.0000 C   0  0  0  0  0  0  0  0  0  0  0  0
    7.9308    7.7736    0.0000 C   0  0  0  0  0  0  0  0  0  0  0  0
    6.0267   -3.0939    0.0000 C   0  0  0  0  0  0  0  0  0  0  0  0
    6.0267   -4.0939    0.0000 C   0  0  0  0  0  0  0  0  0  0  0  0
    5.1607   -4.5939    0.0000 C   0  0  0  0  0  0  0  0  0  0  0  0
    6.8927   -4.5939    0.0000 C   0  0  0  0  0  0  0  0  0  0  0  0
    6.0267   -6.0939    0.0000 C   0  0  0  0  0  0  0  0  0  0  0  0
    5.1607   -5.5939    0.0000 C   0  0  0  0  0  0  0  0  0  0  0  0
    6.8927   -5.5939    0.0000 C   0  0  0  0  0  0  0  0  0  0  0  0
    6.0267   -7.0939    0.0000 C   0  0  0  0  0  0  0  0  0  0  0  0
    5.1607   -7.5939    0.0000 C   0  0  0  0  0  0  0  0  0  0  0  0
    6.8927   -7.5939    0.0000 C   0  0  0  0  0  0  0  0  0  0  0  0
    5.1607   -8.5939    0.0000 C   0  0  0  0  0  0  0  0  0  0  0  0
    6.8927   -8.5939    0.0000 C   0  0  0  0  0  0  0  0  0  0  0  0
    6.0267   -9.0939    0.0000 C   0  0  0  0  0  0  0  0  0  0  0  0
    5.3480    3.1110    0.0000 H   0  0  0  0  0  0  0  0  0  0  0  0
    5.9348    3.0987    0.0000 H   0  0  0  0  0  0  0  0  0  0  0  0
    6.5797    3.5672    0.0000 H   0  0  0  0  0  0  0  0  0  0  0  0
    3.8818    4.7683    0.0000 H   0  0  0  0  0  0  0  0  0  0  0  0
    3.9651    3.9756    0.0000 H   0  0  0  0  0  0  0  0  0  0  0  0
    5.6786    1.5434    0.0000 H   0  0  0  0  0  0  0  0  0  0  0  0
    5.5953    2.3361    0.0000 H   0  0  0  0  0  0  0  0  0  0  0  0
    6.8988    4.2840    0.0000 H   0  0  0  0  0  0  0  0  0  0  0  0
    6.8155    5.0767    0.0000 H   0  0  0  0  0  0  0  0  0  0  0  0
    3.0250    2.3228    0.0000 H   0  0  0  0  0  0  0  0  0  0  0  0
    3.7532    1.9986    0.0000 H   0  0  0  0  0  0  0  0  0  0  0  0
    4.4381    5.8368    0.0000 H   0  0  0  0  0  0  0  0  0  0  0  0
    4.2439    1.3232    0.0000 H   0  0  0  0  0  0  0  0  0  0  0  0
    4.3272    0.5305    0.0000 H   0  0  0  0  0  0  0  0  0  0  0  0
    3.5518    3.6754    0.0000 H   0  0  0  0  0  0  0  0  0  0  0  0
    2.8236    3.9996    0.0000 H   0  0  0  0  0  0  0  0  0  0  0  0
    5.8597   -0.1792    0.0000 H   0  0  0  0  0  0  0  0  0  0  0  0
    5.7764    0.6135    0.0000 H   0  0  0  0  0  0  0  0  0  0  0  0
    4.4249   -0.3993    0.0000 H   0  0  0  0  0  0  0  0  0  0  0  0
    4.5082   -1.1920    0.0000 H   0  0  0  0  0  0  0  0  0  0  0  0
    1.9352    3.9156    0.0000 H   0  0  0  0  0  0  0  0  0  0  0  0
    1.3834    3.2342    0.0000 H   0  0  0  0  0  0  0  0  0  0  0  0
    2.0648    2.6824    0.0000 H   0  0  0  0  0  0  0  0  0  0  0  0
    4.6280   -2.6977    0.0000 H   0  0  0  0  0  0  0  0  0  0  0  0
    7.9904    8.8417    0.0000 H   0  0  0  0  0  0  0  0  0  0  0  0
    7.6762    9.6603    0.0000 H   0  0  0  0  0  0  0  0  0  0  0  0
    6.8576    9.3461    0.0000 H   0  0  0  0  0  0  0  0  0  0  0  0
    6.3559    9.1535    0.0000 H   0  0  0  0  0  0  0  0  0  0  0  0
    5.5373    8.8393    0.0000 H   0  0  0  0  0  0  0  0  0  0  0  0
    5.8515    8.0207    0.0000 H   0  0  0  0  0  0  0  0  0  0  0  0
    7.6786    7.2072    0.0000 H   0  0  0  0  0  0  0  0  0  0  0  0
    8.4972    7.5214    0.0000 H   0  0  0  0  0  0  0  0  0  0  0  0
    8.1830    8.3400    0.0000 H   0  0  0  0  0  0  0  0  0  0  0  0
    4.6238   -4.2839    0.0000 H   0  0  0  0  0  0  0  0  0  0  0  0
    7.4297   -4.2839    0.0000 H   0  0  0  0  0  0  0  0  0  0  0  0
    4.6238   -5.9039    0.0000 H   0  0  0  0  0  0  0  0  0  0  0  0
    7.4297   -5.9039    0.0000 H   0  0  0  0  0  0  0  0  0  0  0  0
    4.6238   -7.2839    0.0000 H   0  0  0  0  0  0  0  0  0  0  0  0
    7.4297   -7.2839    0.0000 H   0  0  0  0  0  0  0  0  0  0  0  0
    4.6238   -8.9039    0.0000 H   0  0  0  0  0  0  0  0  0  0  0  0
    7.4297   -8.9039    0.0000 H   0  0  0  0  0  0  0  0  0  0  0  0
    6.0267   -9.7139    0.0000 H   0  0  0  0  0  0  0  0  0  0  0  0
  1 20  1  0  0  0  0
  1 22  1  0  0  0  0
  1 23  1  0  0  0  0
  1 24  1  0  0  0  0
  2  6  1  0  0  0  0
  2  9  1  0  0  0  0
  2 11  1  0  0  0  0
  3  4  1  0  0  0  0
  3 17  1  0  0  0  0
  3 21  1  0  0  0  0
  4  5  2  0  0  0  0
  5 25  1  0  0  0  0
  6  7  1  0  0  0  0
  6  8  1  0  0  0  0
  6 38  1  0  0  0  0
  7 10  1  0  0  0  0
  7 39  1  0  0  0  0
  7 40  1  0  0  0  0
  8 12  1  0  0  0  0
  8 41  1  0  0  0  0
  8 42  1  0  0  0  0
  9 13  1  0  0  0  0
  9 43  1  0  0  0  0
  9 44  1  0  0  0  0
 10 14  1  0  0  0  0
 10 45  1  0  0  0  0
 10 46  1  0  0  0  0
 11 15  1  0  0  0  0
 11 47  1  0  0  0  0
 11 48  1  0  0  0  0
 12 14  2  0  0  0  0
 12 49  1  0  0  0  0
 13 16  1  0  0  0  0
 13 50  1  0  0  0  0
 13 51  1  0  0  0  0
 14 19  1  0  0  0  0
 15 18  1  0  0  0  0
 15 52  1  0  0  0  0
 15 53  1  0  0  0  0
 16 17  1  0  0  0  0
 16 54  1  0  0  0  0
 16 55  1  0  0  0  0
 17 56  1  0  0  0  0
 17 57  1  0  0  0  0
 18 58  1  0  0  0  0
 18 59  1  0  0  0  0
 18 60  1  0  0  0  0
 19 20  3  0  0  0  0
 21 25  2  0  0  0  0
 21 61  1  0  0  0  0
 22 62  1  0  0  0  0
 22 63  1  0  0  0  0
 22 64  1  0  0  0  0
 23 65  1  0  0  0  0
 23 66  1  0  0  0  0
 23 67  1  0  0  0  0
 24 68  1  0  0  0  0
 24 69  1  0  0  0  0
 24 70  1  0  0  0  0
 25 26  1  0  0  0  0
 26 27  2  0  0  0  0
 26 28  1  0  0  0  0
 27 30  1  0  0  0  0
 27 71  1  0  0  0  0
 28 31  2  0  0  0  0
 28 72  1  0  0  0  0
 29 30  2  0  0  0  0
 29 31  1  0  0  0  0
 29 32  1  0  0  0  0
 30 73  1  0  0  0  0
 31 74  1  0  0  0  0
 32 33  2  0  0  0  0
 32 34  1  0  0  0  0
 33 35  1  0  0  0  0
 33 75  1  0  0  0  0
 34 36  2  0  0  0  0
 34 76  1  0  0  0  0
 35 37  2  0  0  0  0
 35 77  1  0  0  0  0
 36 37  1  0  0  0  0
 36 78  1  0  0  0  0
 37 79  1  0  0  0  0
M  END
> <PUBCHEM_COMPOUND_CID>
25139478

> <PUBCHEM_COMPOUND_CANONICALIZED>
1

> <PUBCHEM_CACTVS_COMPLEXITY>
776

> <PUBCHEM_CACTVS_HBOND_ACCEPTOR>
3

> <PUBCHEM_CACTVS_HBOND_DONOR>
0

> <PUBCHEM_CACTVS_ROTATABLE_BOND>
12

> <PUBCHEM_CACTVS_SUBSKEYS>
AAADcfB/gAgAAAAAAAAAAAAAAAAAAWAAAAAwYIAAAAAAAAAB0AAAHBAIAAAADCjBPgR+gJMIAAHiEzRnRAiCBAQxkgAY2CA4dJgIYKLAkRGUIABggADIyAcQgMAOwAAAAAAAAACAAAAAAAAAAAAAAAAAAA==

> <PUBCHEM_IUPAC_OPENEYE_NAME>
N-[4-[4-(4-phenylphenyl)triazol-1-yl]butyl]-N-propyl-4-(2-trimethylsilylethynyl)cyclohex-3-en-1-amine

> <PUBCHEM_IUPAC_CAS_NAME>
N-[4-[4-(4-phenylphenyl)-1-triazolyl]butyl]-N-propyl-4-(2-trimethylsilylethynyl)-1-cyclohex-3-enamine

> <PUBCHEM_IUPAC_NAME_MARKUP>
<I>N</I>-[4-[4-(4-phenylphenyl)triazol-1-yl]butyl]-<I>N</I>-propyl-4-(2-trimethylsilylethynyl)cyclohex-3-en-1-amine

> <PUBCHEM_IUPAC_NAME>
N-[4-[4-(4-phenylphenyl)triazol-1-yl]butyl]-N-propyl-4-(2-trimethylsilylethynyl)cyclohex-3-en-1-amine

> <PUBCHEM_IUPAC_SYSTEMATIC_NAME>
N-[4-[4-(4-phenylphenyl)-1,2,3-triazol-1-yl]butyl]-N-propyl-4-(2-trimethylsilylethynyl)cyclohex-3-en-1-amine

> <PUBCHEM_IUPAC_TRADITIONAL_NAME>
4-[4-(4-phenylphenyl)triazol-1-yl]butyl-propyl-[4-(2-trimethylsilylethynyl)cyclohex-3-en-1-yl]amine

> <PUBCHEM_IUPAC_INCHI>
InChI=1S/C32H42N4Si/c1-5-22-35(31-19-13-27(14-20-31)21-25-37(2,3)4)23-9-10-24-36-26-32(33-34-36)30-17-15-29(16-18-30)28-11-7-6-8-12-28/h6-8,11-13,15-18,26,31H,5,9-10,14,19-20,22-24H2,1-4H3

> <PUBCHEM_IUPAC_INCHIKEY>
ULYGZZPDPDMBCC-UHFFFAOYSA-N

> <PUBCHEM_EXACT_MASS>
510.31787389

> <PUBCHEM_MOLECULAR_FORMULA>
C32H42N4Si

> <PUBCHEM_MOLECULAR_WEIGHT>
510.8

> <PUBCHEM_OPENEYE_CAN_SMILES>
CCCN(CCCCN1C=C(N=N1)C2=CC=C(C=C2)C3=CC=CC=C3)C4CCC(=CC4)C#C[Si](C)(C)C

> <PUBCHEM_OPENEYE_ISO_SMILES>
CCCN(CCCCN1C=C(N=N1)C2=CC=C(C=C2)C3=CC=CC=C3)C4CCC(=CC4)C#C[Si](C)(C)C

> <PUBCHEM_CACTVS_TPSA>
34

> <PUBCHEM_MONOISOTOPIC_WEIGHT>
510.31787389

> <PUBCHEM_TOTAL_CHARGE>
0

> <PUBCHEM_HEAVY_ATOM_COUNT>
37

> <PUBCHEM_ATOM_DEF_STEREO_COUNT>
0

> <PUBCHEM_ATOM_UDEF_STEREO_COUNT>
1

> <PUBCHEM_BOND_DEF_STEREO_COUNT>
0

> <PUBCHEM_BOND_UDEF_STEREO_COUNT>
0

> <PUBCHEM_ISOTOPIC_ATOM_COUNT>
0

> <PUBCHEM_COMPONENT_COUNT>
1

> <PUBCHEM_CACTVS_TAUTO_COUNT>
-1

> <PUBCHEM_COORDINATE_TYPE>
1
5
255

> <PUBCHEM_BONDANNOTATIONS>
6  2  3
21  25  8
26  27  8
26  28  8
27  30  8
28  31  8
29  30  8
29  31  8
3  21  8
3  4  8
32  33  8
32  34  8
33  35  8
34  36  8
35  37  8
36  37  8
4  5  8
5  25  8

$$$$
