70693417
  -OEChem-09292322292D

 61 66  0     1  0  0  0  0  0999 V2000
    2.0000    0.4969    0.0000 F   0  0  0  0  0  0  0  0  0  0  0  0
   14.5861   -0.7651    0.0000 O   0  0  0  0  0  0  0  0  0  0  0  0
    9.3887   -0.0447    0.0000 N   0  0  0  0  0  0  0  0  0  0  0  0
   10.7212   -1.5362    0.0000 N   0  0  0  0  0  0  0  0  0  0  0  0
    4.8717    3.3574    0.0000 N   0  0  0  0  0  0  0  0  0  0  0  0
   13.9413   -2.4203    0.0000 N   0  0  0  0  0  0  0  0  0  0  0  0
    7.0772    1.2426    0.0000 C   0  0  3  0  0  0  0  0  0  0  0  0
    7.7435    0.4969    0.0000 C   0  0  0  0  0  0  0  0  0  0  0  0
    6.0567    1.0339    0.0000 C   0  0  0  0  0  0  0  0  0  0  0  0
    7.3991    2.2332    0.0000 C   0  0  0  0  0  0  0  0  0  0  0  0
    5.3717    1.8186    0.0000 C   0  0  0  0  0  0  0  0  0  0  0  0
    6.6962    3.0019    0.0000 C   0  0  0  0  0  0  0  0  0  0  0  0
    8.7224    0.7010    0.0000 C   0  0  0  0  0  0  0  0  0  0  0  0
    5.6808    2.7697    0.0000 C   0  0  0  0  0  0  0  0  0  0  0  0
    9.0760   -0.9946    0.0000 C   0  0  0  0  0  0  0  0  0  0  0  0
   10.3676    0.1594    0.0000 C   0  0  0  0  0  0  0  0  0  0  0  0
    4.3717    1.8186    0.0000 C   0  0  0  0  0  0  0  0  0  0  0  0
    9.7423   -1.7403    0.0000 C   0  0  0  0  0  0  0  0  0  0  0  0
   11.0339   -0.5863    0.0000 C   0  0  0  0  0  0  0  0  0  0  0  0
    4.0627    2.7697    0.0000 C   0  0  0  0  0  0  0  0  0  0  0  0
   11.3875   -2.2819    0.0000 C   0  0  0  0  0  0  0  0  0  0  0  0
    3.6868    1.0339    0.0000 C   0  0  0  0  0  0  0  0  0  0  0  0
   12.3664   -2.0777    0.0000 C   0  0  0  0  0  0  0  0  0  0  0  0
    3.0473    3.0019    0.0000 C   0  0  0  0  0  0  0  0  0  0  0  0
   11.0748   -3.2317    0.0000 C   0  0  0  0  0  0  0  0  0  0  0  0
   12.8690   -1.2201    0.0000 C   0  0  0  0  0  0  0  0  0  0  0  0
   13.0327   -2.8234    0.0000 C   0  0  0  0  0  0  0  0  0  0  0  0
    2.6663    1.2426    0.0000 C   0  0  0  0  0  0  0  0  0  0  0  0
    2.3444    2.2332    0.0000 C   0  0  0  0  0  0  0  0  0  0  0  0
   13.8404   -1.4313    0.0000 C   0  0  0  0  0  0  0  0  0  0  0  0
   11.7410   -3.9774    0.0000 C   0  0  0  0  0  0  0  0  0  0  0  0
   12.7200   -3.7733    0.0000 C   0  0  0  0  0  0  0  0  0  0  0  0
    6.8822    0.6540    0.0000 H   0  0  0  0  0  0  0  0  0  0  0  0
    7.2164    0.1703    0.0000 H   0  0  0  0  0  0  0  0  0  0  0  0
    7.9735   -0.0789    0.0000 H   0  0  0  0  0  0  0  0  0  0  0  0
    5.5267    0.7121    0.0000 H   0  0  0  0  0  0  0  0  0  0  0  0
    6.2830    0.4567    0.0000 H   0  0  0  0  0  0  0  0  0  0  0  0
    7.9473    1.9436    0.0000 H   0  0  0  0  0  0  0  0  0  0  0  0
    7.7783    2.7238    0.0000 H   0  0  0  0  0  0  0  0  0  0  0  0
    9.2495    1.0275    0.0000 H   0  0  0  0  0  0  0  0  0  0  0  0
    8.4924    1.2768    0.0000 H   0  0  0  0  0  0  0  0  0  0  0  0
    7.2186    3.3358    0.0000 H   0  0  0  0  0  0  0  0  0  0  0  0
    6.4565    3.5737    0.0000 H   0  0  0  0  0  0  0  0  0  0  0  0
    8.5297   -0.7014    0.0000 H   0  0  0  0  0  0  0  0  0  0  0  0
    8.6924   -1.4817    0.0000 H   0  0  0  0  0  0  0  0  0  0  0  0
   10.8947    0.4859    0.0000 H   0  0  0  0  0  0  0  0  0  0  0  0
   10.1376    0.7352    0.0000 H   0  0  0  0  0  0  0  0  0  0  0  0
    9.2152   -2.0668    0.0000 H   0  0  0  0  0  0  0  0  0  0  0  0
    9.9723   -2.3160    0.0000 H   0  0  0  0  0  0  0  0  0  0  0  0
   11.5802   -0.8795    0.0000 H   0  0  0  0  0  0  0  0  0  0  0  0
   11.4175   -0.0992    0.0000 H   0  0  0  0  0  0  0  0  0  0  0  0
    4.8717    3.9774    0.0000 H   0  0  0  0  0  0  0  0  0  0  0  0
    3.8852    0.4465    0.0000 H   0  0  0  0  0  0  0  0  0  0  0  0
    2.8626    3.5938    0.0000 H   0  0  0  0  0  0  0  0  0  0  0  0
   10.4678   -3.3583    0.0000 H   0  0  0  0  0  0  0  0  0  0  0  0
   13.0637   -0.6314    0.0000 H   0  0  0  0  0  0  0  0  0  0  0  0
   12.3041   -0.9646    0.0000 H   0  0  0  0  0  0  0  0  0  0  0  0
    1.7384    2.3645    0.0000 H   0  0  0  0  0  0  0  0  0  0  0  0
   14.4776   -2.7314    0.0000 H   0  0  0  0  0  0  0  0  0  0  0  0
   11.5472   -4.5664    0.0000 H   0  0  0  0  0  0  0  0  0  0  0  0
   13.1331   -4.2357    0.0000 H   0  0  0  0  0  0  0  0  0  0  0  0
  1 28  1  0  0  0  0
  2 30  2  0  0  0  0
  3 13  1  0  0  0  0
  3 15  1  0  0  0  0
  3 16  1  0  0  0  0
  4 18  1  0  0  0  0
  4 19  1  0  0  0  0
  4 21  1  0  0  0  0
  5 14  1  0  0  0  0
  5 20  1  0  0  0  0
  5 52  1  0  0  0  0
  6 27  1  0  0  0  0
  6 30  1  0  0  0  0
  6 59  1  0  0  0  0
  7  8  1  0  0  0  0
  7  9  1  0  0  0  0
  7 10  1  0  0  0  0
  7 33  1  0  0  0  0
  8 13  1  0  0  0  0
  8 34  1  0  0  0  0
  8 35  1  0  0  0  0
  9 11  1  0  0  0  0
  9 36  1  0  0  0  0
  9 37  1  0  0  0  0
 10 12  1  0  0  0  0
 10 38  1  0  0  0  0
 10 39  1  0  0  0  0
 11 14  2  0  0  0  0
 11 17  1  0  0  0  0
 12 14  1  0  0  0  0
 12 42  1  0  0  0  0
 12 43  1  0  0  0  0
 13 40  1  0  0  0  0
 13 41  1  0  0  0  0
 15 18  1  0  0  0  0
 15 44  1  0  0  0  0
 15 45  1  0  0  0  0
 16 19  1  0  0  0  0
 16 46  1  0  0  0  0
 16 47  1  0  0  0  0
 17 20  2  0  0  0  0
 17 22  1  0  0  0  0
 18 48  1  0  0  0  0
 18 49  1  0  0  0  0
 19 50  1  0  0  0  0
 19 51  1  0  0  0  0
 20 24  1  0  0  0  0
 21 23  1  0  0  0  0
 21 25  2  0  0  0  0
 22 28  2  0  0  0  0
 22 53  1  0  0  0  0
 23 26  1  0  0  0  0
 23 27  2  0  0  0  0
 24 29  2  0  0  0  0
 24 54  1  0  0  0  0
 25 31  1  0  0  0  0
 25 55  1  0  0  0  0
 26 30  1  0  0  0  0
 26 56  1  0  0  0  0
 26 57  1  0  0  0  0
 27 32  1  0  0  0  0
 28 29  1  0  0  0  0
 29 58  1  0  0  0  0
 31 32  2  0  0  0  0
 31 60  1  0  0  0  0
 32 61  1  0  0  0  0
M  END
> <PUBCHEM_COMPOUND_CID>
70693417

> <PUBCHEM_COMPOUND_CANONICALIZED>
1

> <PUBCHEM_CACTVS_COMPLEXITY>
683

> <PUBCHEM_CACTVS_HBOND_ACCEPTOR>
4

> <PUBCHEM_CACTVS_HBOND_DONOR>
2

> <PUBCHEM_CACTVS_ROTATABLE_BOND>
4

> <PUBCHEM_CACTVS_SUBSKEYS>
AAADceB7oQAAAAAAAAAAAAAAAAAAAWLAAAA8YMEAAAAAAFgB9AAAHwAQAAAADQjBngwwwPPJkACoAyVyVACCgCAhAiAImSE4ZJgIYPLA1dGUIAhglADIyAcciMCOgAAAAAQCAAAQAAQACAQAAAAAAAAAAA==

> <PUBCHEM_IUPAC_OPENEYE_NAME>
4-[4-[2-(6-fluoro-2,3,4,9-tetrahydro-1H-carbazol-3-yl)ethyl]piperazin-1-yl]indolin-2-one

> <PUBCHEM_IUPAC_CAS_NAME>
4-[4-[2-(6-fluoro-2,3,4,9-tetrahydro-1H-carbazol-3-yl)ethyl]-1-piperazinyl]-1,3-dihydroindol-2-one

> <PUBCHEM_IUPAC_NAME_MARKUP>
4-[4-[2-(6-fluoro-2,3,4,9-tetrahydro-1<I>H</I>-carbazol-3-yl)ethyl]piperazin-1-yl]-1,3-dihydroindol-2-one

> <PUBCHEM_IUPAC_NAME>
4-[4-[2-(6-fluoro-2,3,4,9-tetrahydro-1H-carbazol-3-yl)ethyl]piperazin-1-yl]-1,3-dihydroindol-2-one

> <PUBCHEM_IUPAC_SYSTEMATIC_NAME>
4-[4-[2-(6-fluoranyl-2,3,4,9-tetrahydro-1H-carbazol-3-yl)ethyl]piperazin-1-yl]-1,3-dihydroindol-2-one

> <PUBCHEM_IUPAC_TRADITIONAL_NAME>
4-[4-[2-(6-fluoro-2,3,4,9-tetrahydro-1H-carbazol-3-yl)ethyl]piperazino]oxindole

> <PUBCHEM_IUPAC_INCHI>
InChI=1S/C26H29FN4O/c27-18-5-7-24-20(15-18)19-14-17(4-6-23(19)28-24)8-9-30-10-12-31(13-11-30)25-3-1-2-22-21(25)16-26(32)29-22/h1-3,5,7,15,17,28H,4,6,8-14,16H2,(H,29,32)

> <PUBCHEM_IUPAC_INCHIKEY>
JKXXYZQCPDWCDR-UHFFFAOYSA-N

> <PUBCHEM_XLOGP3_AA>
3.9

> <PUBCHEM_EXACT_MASS>
432.23253972

> <PUBCHEM_MOLECULAR_FORMULA>
C26H29FN4O

> <PUBCHEM_MOLECULAR_WEIGHT>
432.5

> <PUBCHEM_OPENEYE_CAN_SMILES>
C1CC2=C(CC1CCN3CCN(CC3)C4=CC=CC5=C4CC(=O)N5)C6=C(N2)C=CC(=C6)F

> <PUBCHEM_OPENEYE_ISO_SMILES>
C1CC2=C(CC1CCN3CCN(CC3)C4=CC=CC5=C4CC(=O)N5)C6=C(N2)C=CC(=C6)F

> <PUBCHEM_CACTVS_TPSA>
51.4

> <PUBCHEM_MONOISOTOPIC_WEIGHT>
432.23253972

> <PUBCHEM_TOTAL_CHARGE>
0

> <PUBCHEM_HEAVY_ATOM_COUNT>
32

> <PUBCHEM_ATOM_DEF_STEREO_COUNT>
0

> <PUBCHEM_ATOM_UDEF_STEREO_COUNT>
1

> <PUBCHEM_BOND_DEF_STEREO_COUNT>
0

> <PUBCHEM_BOND_UDEF_STEREO_COUNT>
0

> <PUBCHEM_ISOTOPIC_ATOM_COUNT>
0

> <PUBCHEM_COMPONENT_COUNT>
1

> <PUBCHEM_CACTVS_TAUTO_COUNT>
-1

> <PUBCHEM_COORDINATE_TYPE>
1
5
255

> <PUBCHEM_BONDANNOTATIONS>
11  14  8
11  17  8
17  20  8
17  22  8
20  24  8
21  23  8
21  25  8
22  28  8
23  27  8
24  29  8
25  31  8
27  32  8
28  29  8
31  32  8
5  14  8
5  20  8
7  8  3

$$$$
