164623044
  -OEChem-09292322022D

 57 60  0     1  0  0  0  0  0999 V2000
    2.8680    1.2036    0.0000 O   0  0  0  0  0  0  0  0  0  0  0  0
   11.6679   -0.2625    0.0000 O   0  0  0  0  0  0  0  0  0  0  0  0
   16.9301   -0.2383    0.0000 O   0  0  0  0  0  0  0  0  0  0  0  0
    7.3359    0.2208    0.0000 N   0  0  0  0  0  0  0  0  0  0  0  0
   15.1980   -0.2383    0.0000 N   0  0  0  0  0  0  0  0  0  0  0  0
    5.6038    0.2142    0.0000 C   0  0  3  0  0  0  0  0  0  0  0  0
    4.6038    0.2103    0.0000 C   0  0  3  0  0  0  0  0  0  0  0  0
    5.1005    1.0783    0.0000 C   0  0  0  0  0  0  0  0  0  0  0  0
    6.4718   -0.2825    0.0000 C   0  0  0  0  0  0  0  0  0  0  0  0
    3.7398   -0.2930    0.0000 C   0  0  0  0  0  0  0  0  0  0  0  0
    2.8718    0.2036    0.0000 C   0  0  0  0  0  0  0  0  0  0  0  0
    3.7436   -1.2930    0.0000 C   0  0  0  0  0  0  0  0  0  0  0  0
    8.2038   -0.2758    0.0000 C   0  0  0  0  0  0  0  0  0  0  0  0
    2.0077   -0.2997    0.0000 C   0  0  0  0  0  0  0  0  0  0  0  0
    2.8795   -1.7964    0.0000 C   0  0  0  0  0  0  0  0  0  0  0  0
    9.0679    0.2275    0.0000 C   0  0  0  0  0  0  0  0  0  0  0  0
    2.0116   -1.2997    0.0000 C   0  0  0  0  0  0  0  0  0  0  0  0
    9.9358   -0.2691    0.0000 C   0  0  0  0  0  0  0  0  0  0  0  0
    2.0000    1.7003    0.0000 C   0  0  0  0  0  0  0  0  0  0  0  0
   10.7999    0.2342    0.0000 C   0  0  0  0  0  0  0  0  0  0  0  0
   12.5320    0.2409    0.0000 C   0  0  0  0  0  0  0  0  0  0  0  0
   13.4381   -0.2730    0.0000 C   0  0  0  0  0  0  0  0  0  0  0  0
   12.5320    1.2825    0.0000 C   0  0  0  0  0  0  0  0  0  0  0  0
   14.3320    0.2617    0.0000 C   0  0  0  0  0  0  0  0  0  0  0  0
   14.3320    1.2617    0.0000 C   0  0  0  0  0  0  0  0  0  0  0  0
   13.4381    1.7964    0.0000 C   0  0  0  0  0  0  0  0  0  0  0  0
   15.1980    1.7617    0.0000 C   0  0  0  0  0  0  0  0  0  0  0  0
   16.0640    0.2617    0.0000 C   0  0  0  0  0  0  0  0  0  0  0  0
   16.0640    1.2617    0.0000 C   0  0  0  0  0  0  0  0  0  0  0  0
    6.0405    0.6543    0.0000 H   0  0  0  0  0  0  0  0  0  0  0  0
    4.1638    0.6470    0.0000 H   0  0  0  0  0  0  0  0  0  0  0  0
    5.5739    1.4786    0.0000 H   0  0  0  0  0  0  0  0  0  0  0  0
    4.6240    1.4750    0.0000 H   0  0  0  0  0  0  0  0  0  0  0  0
    6.0751   -0.7590    0.0000 H   0  0  0  0  0  0  0  0  0  0  0  0
    6.8721   -0.7559    0.0000 H   0  0  0  0  0  0  0  0  0  0  0  0
    7.3335    0.8408    0.0000 H   0  0  0  0  0  0  0  0  0  0  0  0
    4.2817   -1.6009    0.0000 H   0  0  0  0  0  0  0  0  0  0  0  0
    7.8071   -0.7523    0.0000 H   0  0  0  0  0  0  0  0  0  0  0  0
    8.6042   -0.7492    0.0000 H   0  0  0  0  0  0  0  0  0  0  0  0
    1.4696    0.0082    0.0000 H   0  0  0  0  0  0  0  0  0  0  0  0
    2.8819   -2.4163    0.0000 H   0  0  0  0  0  0  0  0  0  0  0  0
    9.4646    0.7040    0.0000 H   0  0  0  0  0  0  0  0  0  0  0  0
    8.6676    0.7009    0.0000 H   0  0  0  0  0  0  0  0  0  0  0  0
    1.4758   -1.6118    0.0000 H   0  0  0  0  0  0  0  0  0  0  0  0
    9.5392   -0.7456    0.0000 H   0  0  0  0  0  0  0  0  0  0  0  0
   10.3362   -0.7425    0.0000 H   0  0  0  0  0  0  0  0  0  0  0  0
    2.3079    2.2384    0.0000 H   0  0  0  0  0  0  0  0  0  0  0  0
    1.4619    2.0082    0.0000 H   0  0  0  0  0  0  0  0  0  0  0  0
    1.6921    1.1622    0.0000 H   0  0  0  0  0  0  0  0  0  0  0  0
   11.1966    0.7107    0.0000 H   0  0  0  0  0  0  0  0  0  0  0  0
   10.3996    0.7076    0.0000 H   0  0  0  0  0  0  0  0  0  0  0  0
   13.4452   -0.8929    0.0000 H   0  0  0  0  0  0  0  0  0  0  0  0
   11.9962    1.5946    0.0000 H   0  0  0  0  0  0  0  0  0  0  0  0
   13.4452    2.4163    0.0000 H   0  0  0  0  0  0  0  0  0  0  0  0
   15.1980   -0.8583    0.0000 H   0  0  0  0  0  0  0  0  0  0  0  0
   15.1980    2.3817    0.0000 H   0  0  0  0  0  0  0  0  0  0  0  0
   16.6010    1.5717    0.0000 H   0  0  0  0  0  0  0  0  0  0  0  0
  1 11  1  0  0  0  0
  1 19  1  0  0  0  0
  2 20  1  0  0  0  0
  2 21  1  0  0  0  0
  3 28  2  0  0  0  0
  4  9  1  0  0  0  0
  4 13  1  0  0  0  0
  4 36  1  0  0  0  0
  5 24  1  0  0  0  0
  5 28  1  0  0  0  0
  5 55  1  0  0  0  0
  6  7  1  0  0  0  0
  6  8  1  0  0  0  0
  6  9  1  0  0  0  0
  6 30  1  0  0  0  0
  7  8  1  0  0  0  0
  7 10  1  0  0  0  0
  7 31  1  0  0  0  0
  8 32  1  0  0  0  0
  8 33  1  0  0  0  0
  9 34  1  0  0  0  0
  9 35  1  0  0  0  0
 10 11  1  0  0  0  0
 10 12  2  0  0  0  0
 11 14  2  0  0  0  0
 12 15  1  0  0  0  0
 12 37  1  0  0  0  0
 13 16  1  0  0  0  0
 13 38  1  0  0  0  0
 13 39  1  0  0  0  0
 14 17  1  0  0  0  0
 14 40  1  0  0  0  0
 15 17  2  0  0  0  0
 15 41  1  0  0  0  0
 16 18  1  0  0  0  0
 16 42  1  0  0  0  0
 16 43  1  0  0  0  0
 17 44  1  0  0  0  0
 18 20  1  0  0  0  0
 18 45  1  0  0  0  0
 18 46  1  0  0  0  0
 19 47  1  0  0  0  0
 19 48  1  0  0  0  0
 19 49  1  0  0  0  0
 20 50  1  0  0  0  0
 20 51  1  0  0  0  0
 21 22  2  0  0  0  0
 21 23  1  0  0  0  0
 22 24  1  0  0  0  0
 22 52  1  0  0  0  0
 23 26  2  0  0  0  0
 23 53  1  0  0  0  0
 24 25  2  0  0  0  0
 25 26  1  0  0  0  0
 25 27  1  0  0  0  0
 26 54  1  0  0  0  0
 27 29  2  0  0  0  0
 27 56  1  0  0  0  0
 28 29  1  0  0  0  0
 29 57  1  0  0  0  0
M  END
> <PUBCHEM_COMPOUND_CID>
164623044

> <PUBCHEM_COMPOUND_CANONICALIZED>
1

> <PUBCHEM_CACTVS_COMPLEXITY>
566

> <PUBCHEM_CACTVS_HBOND_ACCEPTOR>
4

> <PUBCHEM_CACTVS_HBOND_DONOR>
2

> <PUBCHEM_CACTVS_ROTATABLE_BOND>
10

> <PUBCHEM_CACTVS_SUBSKEYS>
AAADceB7MAAAAAAAAAAAAAAAGAAAAAAAAAAwYIAAAAAAAACBQAAAHgAQAAAADQzhmAYyxoLABACIAiVSUACCCAAhIgAIiIAObMgMJiLEsZuGOCjm1BnI6Yew0OMOoAAAAgAKAABAAAAEABQAAAAAAAAAAA==

> <PUBCHEM_IUPAC_OPENEYE_NAME>
7-[4-[[2-(2-methoxyphenyl)cyclopropyl]methylamino]butoxy]-1H-quinolin-2-one

> <PUBCHEM_IUPAC_CAS_NAME>
7-[4-[[2-(2-methoxyphenyl)cyclopropyl]methylamino]butoxy]-1H-quinolin-2-one

> <PUBCHEM_IUPAC_NAME_MARKUP>
7-[4-[[2-(2-methoxyphenyl)cyclopropyl]methylamino]butoxy]-1<I>H</I>-quinolin-2-one

> <PUBCHEM_IUPAC_NAME>
7-[4-[[2-(2-methoxyphenyl)cyclopropyl]methylamino]butoxy]-1H-quinolin-2-one

> <PUBCHEM_IUPAC_SYSTEMATIC_NAME>
7-[4-[[2-(2-methoxyphenyl)cyclopropyl]methylamino]butoxy]-1H-quinolin-2-one

> <PUBCHEM_IUPAC_TRADITIONAL_NAME>
7-[4-[[2-(2-methoxyphenyl)cyclopropyl]methylamino]butoxy]carbostyril

> <PUBCHEM_IUPAC_INCHI>
InChI=1S/C24H28N2O3/c1-28-23-7-3-2-6-20(23)21-14-18(21)16-25-12-4-5-13-29-19-10-8-17-9-11-24(27)26-22(17)15-19/h2-3,6-11,15,18,21,25H,4-5,12-14,16H2,1H3,(H,26,27)

> <PUBCHEM_IUPAC_INCHIKEY>
ORJVECFOFDNLOZ-UHFFFAOYSA-N

> <PUBCHEM_XLOGP3_AA>
3.7

> <PUBCHEM_EXACT_MASS>
392.20999276

> <PUBCHEM_MOLECULAR_FORMULA>
C24H28N2O3

> <PUBCHEM_MOLECULAR_WEIGHT>
392.5

> <PUBCHEM_OPENEYE_CAN_SMILES>
COC1=CC=CC=C1C2CC2CNCCCCOC3=CC4=C(C=C3)C=CC(=O)N4

> <PUBCHEM_OPENEYE_ISO_SMILES>
COC1=CC=CC=C1C2CC2CNCCCCOC3=CC4=C(C=C3)C=CC(=O)N4

> <PUBCHEM_CACTVS_TPSA>
59.6

> <PUBCHEM_MONOISOTOPIC_WEIGHT>
392.20999276

> <PUBCHEM_TOTAL_CHARGE>
0

> <PUBCHEM_HEAVY_ATOM_COUNT>
29

> <PUBCHEM_ATOM_DEF_STEREO_COUNT>
0

> <PUBCHEM_ATOM_UDEF_STEREO_COUNT>
2

> <PUBCHEM_BOND_DEF_STEREO_COUNT>
0

> <PUBCHEM_BOND_UDEF_STEREO_COUNT>
0

> <PUBCHEM_ISOTOPIC_ATOM_COUNT>
0

> <PUBCHEM_COMPONENT_COUNT>
1

> <PUBCHEM_CACTVS_TAUTO_COUNT>
-1

> <PUBCHEM_COORDINATE_TYPE>
1
5
255

> <PUBCHEM_BONDANNOTATIONS>
10  11  8
10  12  8
11  14  8
12  15  8
14  17  8
15  17  8
21  22  8
21  23  8
22  24  8
23  26  8
24  25  8
25  26  8
25  27  8
27  29  8
28  29  8
5  24  8
5  28  8
6  9  3
7  10  3

$$$$
