138671230
  -OEChem-09292322452D

 73 78  0     1  0  0  0  0  0999 V2000
   14.1413   -0.2094    0.0000 S   0  0  0  0  0  0  0  0  0  0  0  0
   17.9137   -3.3450    0.0000 F   0  0  0  0  0  0  0  0  0  0  0  0
   16.6925   -4.0582    0.0000 F   0  0  0  0  0  0  0  0  0  0  0  0
   15.7289   -1.0062    0.0000 O   0  0  0  0  0  0  0  0  0  0  0  0
    5.4956    1.5408    0.0000 O   0  0  0  0  0  0  0  0  0  0  0  0
   11.0085   -1.0298    0.0000 N   0  0  3  0  0  0  0  0  0  0  0  0
    5.5043   -0.1912    0.0000 N   0  0  0  0  0  0  0  0  0  0  0  0
   14.1494   -1.8189    0.0000 N   0  0  0  0  0  0  0  0  0  0  0  0
    2.9880    3.0582    0.0000 N   0  0  0  0  0  0  0  0  0  0  0  0
    2.1862    2.4706    0.0000 N   0  0  0  0  0  0  0  0  0  0  0  0
    8.5042   -0.1762    0.0000 C   0  0  0  0  0  0  0  0  0  0  0  0
    7.9999    0.6873    0.0000 C   0  0  0  0  0  0  0  0  0  0  0  0
    8.0086   -1.0447    0.0000 C   0  0  0  0  0  0  0  0  0  0  0  0
    6.5043   -0.1862    0.0000 C   0  0  0  0  0  0  0  0  0  0  0  0
    6.9999    0.6823    0.0000 C   0  0  0  0  0  0  0  0  0  0  0  0
    7.0086   -1.0497    0.0000 C   0  0  0  0  0  0  0  0  0  0  0  0
    9.5042   -0.1712    0.0000 C   0  0  0  0  0  0  0  0  0  0  0  0
   10.0085   -1.0348    0.0000 C   0  0  0  0  0  0  0  0  0  0  0  0
   11.4379   -0.1267    0.0000 C   0  0  0  0  0  0  0  0  0  0  0  0
   11.4469   -1.9286    0.0000 C   0  0  0  0  0  0  0  0  0  0  0  0
   16.2333   -1.8698    0.0000 C   0  0  0  0  0  0  0  0  0  0  0  0
   17.2005   -2.1238    0.0000 C   0  0  0  0  0  0  0  0  0  0  0  0
   15.9793   -2.8370    0.0000 C   0  0  0  0  0  0  0  0  0  0  0  0
   16.9465   -3.0910    0.0000 C   0  0  0  0  0  0  0  0  0  0  0  0
   12.4117    0.1007    0.0000 C   0  0  0  0  0  0  0  0  0  0  0  0
   12.4229   -2.1462    0.0000 C   0  0  0  0  0  0  0  0  0  0  0  0
   13.1966   -0.5189    0.0000 C   0  0  0  0  0  0  0  0  0  0  0  0
   13.2016   -1.5188    0.0000 C   0  0  0  0  0  0  0  0  0  0  0  0
    5.0000    0.6723    0.0000 C   0  0  0  0  0  0  0  0  0  0  0  0
   14.7290   -1.0112    0.0000 C   0  0  0  0  0  0  0  0  0  0  0  0
    4.0000    0.6673    0.0000 C   0  0  0  0  0  0  0  0  0  0  0  0
    3.4957    1.5309    0.0000 C   0  0  0  0  0  0  0  0  0  0  0  0
    3.5043   -0.2012    0.0000 C   0  0  0  0  0  0  0  0  0  0  0  0
    2.4957    1.5259    0.0000 C   0  0  0  0  0  0  0  0  0  0  0  0
    3.7957    2.4786    0.0000 C   0  0  0  0  0  0  0  0  0  0  0  0
    2.5043   -0.2062    0.0000 C   0  0  0  0  0  0  0  0  0  0  0  0
    2.0000    0.6574    0.0000 C   0  0  0  0  0  0  0  0  0  0  0  0
    2.9830    4.0582    0.0000 C   0  0  0  0  0  0  0  0  0  0  0  0
    8.8169   -0.7116    0.0000 H   0  0  0  0  0  0  0  0  0  0  0  0
    8.5815    0.9022    0.0000 H   0  0  0  0  0  0  0  0  0  0  0  0
    7.8892    1.2973    0.0000 H   0  0  0  0  0  0  0  0  0  0  0  0
    7.9040   -1.6558    0.0000 H   0  0  0  0  0  0  0  0  0  0  0  0
    8.5922   -1.2539    0.0000 H   0  0  0  0  0  0  0  0  0  0  0  0
    6.1916    0.3492    0.0000 H   0  0  0  0  0  0  0  0  0  0  0  0
    7.1046    1.2934    0.0000 H   0  0  0  0  0  0  0  0  0  0  0  0
    6.4163    0.8914    0.0000 H   0  0  0  0  0  0  0  0  0  0  0  0
    6.4270   -1.2647    0.0000 H   0  0  0  0  0  0  0  0  0  0  0  0
    7.1193   -1.6598    0.0000 H   0  0  0  0  0  0  0  0  0  0  0  0
   10.0858    0.0437    0.0000 H   0  0  0  0  0  0  0  0  0  0  0  0
    9.3935    0.4388    0.0000 H   0  0  0  0  0  0  0  0  0  0  0  0
    9.4270   -1.2497    0.0000 H   0  0  0  0  0  0  0  0  0  0  0  0
   10.1192   -1.6448    0.0000 H   0  0  0  0  0  0  0  0  0  0  0  0
    5.1970   -0.7297    0.0000 H   0  0  0  0  0  0  0  0  0  0  0  0
   11.4348    0.4933    0.0000 H   0  0  0  0  0  0  0  0  0  0  0  0
   10.8328    0.0083    0.0000 H   0  0  0  0  0  0  0  0  0  0  0  0
   10.8431   -2.0696    0.0000 H   0  0  0  0  0  0  0  0  0  0  0  0
   11.4500   -2.5486    0.0000 H   0  0  0  0  0  0  0  0  0  0  0  0
   16.6082   -1.3760    0.0000 H   0  0  0  0  0  0  0  0  0  0  0  0
   17.8001   -2.2812    0.0000 H   0  0  0  0  0  0  0  0  0  0  0  0
   17.3579   -1.5241    0.0000 H   0  0  0  0  0  0  0  0  0  0  0  0
   15.3796   -2.6795    0.0000 H   0  0  0  0  0  0  0  0  0  0  0  0
   15.8218   -3.4366    0.0000 H   0  0  0  0  0  0  0  0  0  0  0  0
   12.8945    0.4897    0.0000 H   0  0  0  0  0  0  0  0  0  0  0  0
   12.1399    0.6580    0.0000 H   0  0  0  0  0  0  0  0  0  0  0  0
   12.1567   -2.7062    0.0000 H   0  0  0  0  0  0  0  0  0  0  0  0
   12.9096   -2.5304    0.0000 H   0  0  0  0  0  0  0  0  0  0  0  0
    3.8170   -0.7365    0.0000 H   0  0  0  0  0  0  0  0  0  0  0  0
    4.3840    2.6741    0.0000 H   0  0  0  0  0  0  0  0  0  0  0  0
    2.1970   -0.7446    0.0000 H   0  0  0  0  0  0  0  0  0  0  0  0
    1.3800    0.6543    0.0000 H   0  0  0  0  0  0  0  0  0  0  0  0
    3.6030    4.0613    0.0000 H   0  0  0  0  0  0  0  0  0  0  0  0
    2.9800    4.6782    0.0000 H   0  0  0  0  0  0  0  0  0  0  0  0
    2.3631    4.0551    0.0000 H   0  0  0  0  0  0  0  0  0  0  0  0
  1 27  1  0  0  0  0
  1 30  1  0  0  0  0
  2 24  1  0  0  0  0
  3 24  1  0  0  0  0
  4 21  1  0  0  0  0
  4 30  1  0  0  0  0
  5 29  2  0  0  0  0
  6 18  1  0  0  0  0
  6 19  1  0  0  0  0
  6 20  1  0  0  0  0
  7 14  1  0  0  0  0
  7 29  1  0  0  0  0
  7 53  1  0  0  0  0
  8 28  1  0  0  0  0
  8 30  2  0  0  0  0
  9 10  1  0  0  0  0
  9 35  1  0  0  0  0
  9 38  1  0  0  0  0
 10 34  2  0  0  0  0
 11 12  1  0  0  0  0
 11 13  1  0  0  0  0
 11 17  1  0  0  0  0
 11 39  1  0  0  0  0
 12 15  1  0  0  0  0
 12 40  1  0  0  0  0
 12 41  1  0  0  0  0
 13 16  1  0  0  0  0
 13 42  1  0  0  0  0
 13 43  1  0  0  0  0
 14 15  1  0  0  0  0
 14 16  1  0  0  0  0
 14 44  1  0  0  0  0
 15 45  1  0  0  0  0
 15 46  1  0  0  0  0
 16 47  1  0  0  0  0
 16 48  1  0  0  0  0
 17 18  1  0  0  0  0
 17 49  1  0  0  0  0
 17 50  1  0  0  0  0
 18 51  1  0  0  0  0
 18 52  1  0  0  0  0
 19 25  1  0  0  0  0
 19 54  1  0  0  0  0
 19 55  1  0  0  0  0
 20 26  1  0  0  0  0
 20 56  1  0  0  0  0
 20 57  1  0  0  0  0
 21 22  1  0  0  0  0
 21 23  1  0  0  0  0
 21 58  1  0  0  0  0
 22 24  1  0  0  0  0
 22 59  1  0  0  0  0
 22 60  1  0  0  0  0
 23 24  1  0  0  0  0
 23 61  1  0  0  0  0
 23 62  1  0  0  0  0
 25 27  1  0  0  0  0
 25 63  1  0  0  0  0
 25 64  1  0  0  0  0
 26 28  1  0  0  0  0
 26 65  1  0  0  0  0
 26 66  1  0  0  0  0
 27 28  2  0  0  0  0
 29 31  1  0  0  0  0
 31 32  1  0  0  0  0
 31 33  2  0  0  0  0
 32 34  1  0  0  0  0
 32 35  2  0  0  0  0
 33 36  1  0  0  0  0
 33 67  1  0  0  0  0
 34 37  1  0  0  0  0
 35 68  1  0  0  0  0
 36 37  2  0  0  0  0
 36 69  1  0  0  0  0
 37 70  1  0  0  0  0
 38 71  1  0  0  0  0
 38 72  1  0  0  0  0
 38 73  1  0  0  0  0
M  END
> <PUBCHEM_COMPOUND_CID>
138671230

> <PUBCHEM_COMPOUND_CANONICALIZED>
1

> <PUBCHEM_CACTVS_COMPLEXITY>
823

> <PUBCHEM_CACTVS_HBOND_ACCEPTOR>
8

> <PUBCHEM_CACTVS_HBOND_DONOR>
1

> <PUBCHEM_CACTVS_ROTATABLE_BOND>
7

> <PUBCHEM_CACTVS_SUBSKEYS>
AAADcfB7sYBAAAAAAAAAAAAAAABgAWLAAAAwYAAABYAAAFix/AAAHwQYAAAADTzh3hY+wfPIFAiuAzV3VACS9KB1ijgY2LU4ZNgIILLg1dGMpQhkngDIyYcciICOgAAAQAASAAAQAACAACQAAAAAAAAAAA==

> <PUBCHEM_IUPAC_OPENEYE_NAME>
N-[4-[2-[2-(3,3-difluorocyclobutoxy)-4,5,7,8-tetrahydrothiazolo[4,5-d]azepin-6-yl]ethyl]cyclohexyl]-2-methyl-indazole-4-carboxamide

> <PUBCHEM_IUPAC_CAS_NAME>
N-[4-[2-[2-(3,3-difluorocyclobutyl)oxy-4,5,7,8-tetrahydrothiazolo[4,5-d]azepin-6-yl]ethyl]cyclohexyl]-2-methyl-4-indazolecarboxamide

> <PUBCHEM_IUPAC_NAME_MARKUP>
<I>N</I>-[4-[2-[2-(3,3-difluorocyclobutyl)oxy-4,5,7,8-tetrahydro-[1,3]thiazolo[4,5-d]azepin-6-yl]ethyl]cyclohexyl]-2-methylindazole-4-carboxamide

> <PUBCHEM_IUPAC_NAME>
N-[4-[2-[2-(3,3-difluorocyclobutyl)oxy-4,5,7,8-tetrahydro-[1,3]thiazolo[4,5-d]azepin-6-yl]ethyl]cyclohexyl]-2-methylindazole-4-carboxamide

> <PUBCHEM_IUPAC_SYSTEMATIC_NAME>
N-[4-[2-[2-[3,3-bis(fluoranyl)cyclobutyl]oxy-4,5,7,8-tetrahydro-[1,3]thiazolo[4,5-d]azepin-6-yl]ethyl]cyclohexyl]-2-methyl-indazole-4-carboxamide

> <PUBCHEM_IUPAC_TRADITIONAL_NAME>
N-[4-[2-[2-(3,3-difluorocyclobutoxy)-4,5,7,8-tetrahydrothiazol[4,5-d]azepin-6-yl]ethyl]cyclohexyl]-2-methyl-indazole-4-carboxamide

> <PUBCHEM_IUPAC_INCHI>
InChI=1S/C28H35F2N5O2S/c1-34-17-22-21(3-2-4-23(22)33-34)26(36)31-19-7-5-18(6-8-19)9-12-35-13-10-24-25(11-14-35)38-27(32-24)37-20-15-28(29,30)16-20/h2-4,17-20H,5-16H2,1H3,(H,31,36)

> <PUBCHEM_IUPAC_INCHIKEY>
XOUPKGAJLSOMOY-UHFFFAOYSA-N

> <PUBCHEM_XLOGP3_AA>
5.4

> <PUBCHEM_EXACT_MASS>
543.24795287

> <PUBCHEM_MOLECULAR_FORMULA>
C28H35F2N5O2S

> <PUBCHEM_MOLECULAR_WEIGHT>
543.7

> <PUBCHEM_OPENEYE_CAN_SMILES>
CN1C=C2C(=N1)C=CC=C2C(=O)NC3CCC(CC3)CCN4CCC5=C(CC4)SC(=N5)OC6CC(C6)(F)F

> <PUBCHEM_OPENEYE_ISO_SMILES>
CN1C=C2C(=N1)C=CC=C2C(=O)NC3CCC(CC3)CCN4CCC5=C(CC4)SC(=N5)OC6CC(C6)(F)F

> <PUBCHEM_CACTVS_TPSA>
101

> <PUBCHEM_MONOISOTOPIC_WEIGHT>
543.24795287

> <PUBCHEM_TOTAL_CHARGE>
0

> <PUBCHEM_HEAVY_ATOM_COUNT>
38

> <PUBCHEM_ATOM_DEF_STEREO_COUNT>
0

> <PUBCHEM_ATOM_UDEF_STEREO_COUNT>
0

> <PUBCHEM_BOND_DEF_STEREO_COUNT>
0

> <PUBCHEM_BOND_UDEF_STEREO_COUNT>
0

> <PUBCHEM_ISOTOPIC_ATOM_COUNT>
0

> <PUBCHEM_COMPONENT_COUNT>
1

> <PUBCHEM_CACTVS_TAUTO_COUNT>
-1

> <PUBCHEM_COORDINATE_TYPE>
1
5
255

> <PUBCHEM_BONDANNOTATIONS>
1  27  8
1  30  8
10  34  8
27  28  8
31  32  8
31  33  8
32  34  8
32  35  8
33  36  8
34  37  8
36  37  8
8  28  8
8  30  8
9  10  8
9  35  8

$$$$
