138670700
  -OEChem-09292322452D

 73 77  0     1  0  0  0  0  0999 V2000
    3.1215    1.1740    0.0000 S   0  0  0  0  0  0  0  0  0  0  0  0
    6.1160    1.0694    0.0000 O   0  0  0  0  0  0  0  0  0  0  0  0
   16.4707   -2.5528    0.0000 O   0  0  0  0  0  0  0  0  0  0  0  0
   18.4260   -0.8579    0.0000 O   0  0  0  0  0  0  0  0  0  0  0  0
   11.6160   -1.5286    0.0000 N   0  0  3  0  0  0  0  0  0  0  0  0
    6.1160   -0.6626    0.0000 N   0  0  0  0  0  0  0  0  0  0  0  0
   14.7006   -2.5633    0.0000 N   0  0  0  0  0  0  0  0  0  0  0  0
    3.7796    2.6521    0.0000 N   0  0  0  0  0  0  0  0  0  0  0  0
    9.1160   -0.6626    0.0000 C   0  0  0  0  0  0  0  0  0  0  0  0
    8.6160   -1.5286    0.0000 C   0  0  0  0  0  0  0  0  0  0  0  0
    8.6160    0.2034    0.0000 C   0  0  0  0  0  0  0  0  0  0  0  0
    7.1160   -0.6626    0.0000 C   0  0  0  0  0  0  0  0  0  0  0  0
    7.6160   -1.5286    0.0000 C   0  0  0  0  0  0  0  0  0  0  0  0
    7.6160    0.2034    0.0000 C   0  0  0  0  0  0  0  0  0  0  0  0
   10.1160   -0.6626    0.0000 C   0  0  0  0  0  0  0  0  0  0  0  0
   10.6160   -1.5286    0.0000 C   0  0  0  0  0  0  0  0  0  0  0  0
   12.0499   -0.6277    0.0000 C   0  0  0  0  0  0  0  0  0  0  0  0
   12.0499   -2.4296    0.0000 C   0  0  0  0  0  0  0  0  0  0  0  0
   13.0248   -0.4051    0.0000 C   0  0  0  0  0  0  0  0  0  0  0  0
   13.0248   -2.6521    0.0000 C   0  0  0  0  0  0  0  0  0  0  0  0
    5.6160    0.2034    0.0000 C   0  0  0  0  0  0  0  0  0  0  0  0
   13.8066   -1.0286    0.0000 C   0  0  0  0  0  0  0  0  0  0  0  0
   13.8066   -2.0286    0.0000 C   0  0  0  0  0  0  0  0  0  0  0  0
    4.6160    0.2034    0.0000 C   0  0  0  0  0  0  0  0  0  0  0  0
   14.7006   -0.4940    0.0000 C   0  0  0  0  0  0  0  0  0  0  0  0
   15.6066   -2.0495    0.0000 C   0  0  0  0  0  0  0  0  0  0  0  0
   17.3387   -2.0561    0.0000 C   0  0  3  0  0  0  0  0  0  0  0  0
   15.6066   -1.0078    0.0000 C   0  0  0  0  0  0  0  0  0  0  0  0
   18.2506   -2.4664    0.0000 C   0  0  0  0  0  0  0  0  0  0  0  0
    4.1160    1.0694    0.0000 C   0  0  0  0  0  0  0  0  0  0  0  0
   17.4470   -1.0620    0.0000 C   0  0  0  0  0  0  0  0  0  0  0  0
   18.9226   -1.7258    0.0000 C   0  0  0  0  0  0  0  0  0  0  0  0
    4.5227    1.9830    0.0000 C   0  0  0  0  0  0  0  0  0  0  0  0
    2.9136    2.1521    0.0000 C   0  0  0  0  0  0  0  0  0  0  0  0
    2.0000    2.5589    0.0000 C   0  0  0  0  0  0  0  0  0  0  0  0
    9.4260   -1.1995    0.0000 H   0  0  0  0  0  0  0  0  0  0  0  0
    8.5083   -2.1392    0.0000 H   0  0  0  0  0  0  0  0  0  0  0  0
    9.1986   -1.7407    0.0000 H   0  0  0  0  0  0  0  0  0  0  0  0
    9.1986    0.4155    0.0000 H   0  0  0  0  0  0  0  0  0  0  0  0
    8.5083    0.8140    0.0000 H   0  0  0  0  0  0  0  0  0  0  0  0
    6.8060   -1.1995    0.0000 H   0  0  0  0  0  0  0  0  0  0  0  0
    7.0334   -1.7407    0.0000 H   0  0  0  0  0  0  0  0  0  0  0  0
    7.7236   -2.1392    0.0000 H   0  0  0  0  0  0  0  0  0  0  0  0
    7.7236    0.8140    0.0000 H   0  0  0  0  0  0  0  0  0  0  0  0
    7.0334    0.4155    0.0000 H   0  0  0  0  0  0  0  0  0  0  0  0
   10.6986   -0.4506    0.0000 H   0  0  0  0  0  0  0  0  0  0  0  0
   10.0083   -0.0520    0.0000 H   0  0  0  0  0  0  0  0  0  0  0  0
   10.0334   -1.7407    0.0000 H   0  0  0  0  0  0  0  0  0  0  0  0
   10.7236   -2.1392    0.0000 H   0  0  0  0  0  0  0  0  0  0  0  0
    5.8060   -1.1995    0.0000 H   0  0  0  0  0  0  0  0  0  0  0  0
   12.0499   -0.0077    0.0000 H   0  0  0  0  0  0  0  0  0  0  0  0
   11.4454   -0.4897    0.0000 H   0  0  0  0  0  0  0  0  0  0  0  0
   11.4454   -2.5676    0.0000 H   0  0  0  0  0  0  0  0  0  0  0  0
   12.0499   -3.0496    0.0000 H   0  0  0  0  0  0  0  0  0  0  0  0
   13.5095   -0.0186    0.0000 H   0  0  0  0  0  0  0  0  0  0  0  0
   12.7558    0.1535    0.0000 H   0  0  0  0  0  0  0  0  0  0  0  0
   12.7558   -3.2107    0.0000 H   0  0  0  0  0  0  0  0  0  0  0  0
   13.5095   -3.0387    0.0000 H   0  0  0  0  0  0  0  0  0  0  0  0
    4.0334   -0.0086    0.0000 H   0  0  0  0  0  0  0  0  0  0  0  0
    4.7236   -0.4072    0.0000 H   0  0  0  0  0  0  0  0  0  0  0  0
   14.6934    0.1260    0.0000 H   0  0  0  0  0  0  0  0  0  0  0  0
   17.3687   -2.6754    0.0000 H   0  0  0  0  0  0  0  0  0  0  0  0
   16.1424   -0.6957    0.0000 H   0  0  0  0  0  0  0  0  0  0  0  0
   17.9386   -3.0021    0.0000 H   0  0  0  0  0  0  0  0  0  0  0  0
   18.7508   -2.8327    0.0000 H   0  0  0  0  0  0  0  0  0  0  0  0
   17.3846   -0.4452    0.0000 H   0  0  0  0  0  0  0  0  0  0  0  0
   16.8270   -1.0596    0.0000 H   0  0  0  0  0  0  0  0  0  0  0  0
   19.3357   -2.1882    0.0000 H   0  0  0  0  0  0  0  0  0  0  0  0
   19.4256   -1.3633    0.0000 H   0  0  0  0  0  0  0  0  0  0  0  0
    5.1292    2.1119    0.0000 H   0  0  0  0  0  0  0  0  0  0  0  0
    2.2522    3.1253    0.0000 H   0  0  0  0  0  0  0  0  0  0  0  0
    1.4336    2.8110    0.0000 H   0  0  0  0  0  0  0  0  0  0  0  0
    1.7478    1.9925    0.0000 H   0  0  0  0  0  0  0  0  0  0  0  0
  1 30  1  0  0  0  0
  1 34  1  0  0  0  0
  2 21  2  0  0  0  0
  3 26  1  0  0  0  0
  3 27  1  0  0  0  0
  4 31  1  0  0  0  0
  4 32  1  0  0  0  0
  5 16  1  0  0  0  0
  5 17  1  0  0  0  0
  5 18  1  0  0  0  0
  6 12  1  0  0  0  0
  6 21  1  0  0  0  0
  6 50  1  0  0  0  0
  7 23  1  0  0  0  0
  7 26  2  0  0  0  0
  8 33  1  0  0  0  0
  8 34  2  0  0  0  0
  9 10  1  0  0  0  0
  9 11  1  0  0  0  0
  9 15  1  0  0  0  0
  9 36  1  0  0  0  0
 10 13  1  0  0  0  0
 10 37  1  0  0  0  0
 10 38  1  0  0  0  0
 11 14  1  0  0  0  0
 11 39  1  0  0  0  0
 11 40  1  0  0  0  0
 12 13  1  0  0  0  0
 12 14  1  0  0  0  0
 12 41  1  0  0  0  0
 13 42  1  0  0  0  0
 13 43  1  0  0  0  0
 14 44  1  0  0  0  0
 14 45  1  0  0  0  0
 15 16  1  0  0  0  0
 15 46  1  0  0  0  0
 15 47  1  0  0  0  0
 16 48  1  0  0  0  0
 16 49  1  0  0  0  0
 17 19  1  0  0  0  0
 17 51  1  0  0  0  0
 17 52  1  0  0  0  0
 18 20  1  0  0  0  0
 18 53  1  0  0  0  0
 18 54  1  0  0  0  0
 19 22  1  0  0  0  0
 19 55  1  0  0  0  0
 19 56  1  0  0  0  0
 20 23  1  0  0  0  0
 20 57  1  0  0  0  0
 20 58  1  0  0  0  0
 21 24  1  0  0  0  0
 22 23  2  0  0  0  0
 22 25  1  0  0  0  0
 24 30  1  0  0  0  0
 24 59  1  0  0  0  0
 24 60  1  0  0  0  0
 25 28  2  0  0  0  0
 25 61  1  0  0  0  0
 26 28  1  0  0  0  0
 27 29  1  0  0  0  0
 27 31  1  0  0  0  0
 27 62  1  0  0  0  0
 28 63  1  0  0  0  0
 29 32  1  0  0  0  0
 29 64  1  0  0  0  0
 29 65  1  0  0  0  0
 30 33  2  0  0  0  0
 31 66  1  0  0  0  0
 31 67  1  0  0  0  0
 32 68  1  0  0  0  0
 32 69  1  0  0  0  0
 33 70  1  0  0  0  0
 34 35  1  0  0  0  0
 35 71  1  0  0  0  0
 35 72  1  0  0  0  0
 35 73  1  0  0  0  0
M  END
> <PUBCHEM_COMPOUND_CID>
138670700

> <PUBCHEM_COMPOUND_CANONICALIZED>
1

> <PUBCHEM_CACTVS_COMPLEXITY>
677

> <PUBCHEM_CACTVS_HBOND_ACCEPTOR>
7

> <PUBCHEM_CACTVS_HBOND_DONOR>
1

> <PUBCHEM_CACTVS_ROTATABLE_BOND>
8

> <PUBCHEM_CACTVS_SUBSKEYS>
AAADcfB7sABAAAAAAAAAAAAAAAAAAWJAAAA8QAAABYAAAAAB4AAAHgQQAAAADTzh3gY+hZPIFAisAzV3VACC+KBxKjhI2K0+bJgNJvLk9ZuOOCjl1hHq6AeU0KEOAAAAAAAAAAAQAAAAAAAAAAAAAAAAAA==

> <PUBCHEM_IUPAC_OPENEYE_NAME>
2-(2-methylthiazol-5-yl)-N-[4-[2-(2-tetrahydrofuran-3-yloxy-5,6,8,9-tetrahydropyrido[2,3-d]azepin-7-yl)ethyl]cyclohexyl]acetamide

> <PUBCHEM_IUPAC_CAS_NAME>
2-(2-methyl-5-thiazolyl)-N-[4-[2-[2-(3-oxolanyloxy)-5,6,8,9-tetrahydropyrido[2,3-d]azepin-7-yl]ethyl]cyclohexyl]acetamide

> <PUBCHEM_IUPAC_NAME_MARKUP>
2-(2-methyl-1,3-thiazol-5-yl)-<I>N</I>-[4-[2-[2-(oxolan-3-yloxy)-5,6,8,9-tetrahydropyrido[2,3-d]azepin-7-yl]ethyl]cyclohexyl]acetamide

> <PUBCHEM_IUPAC_NAME>
2-(2-methyl-1,3-thiazol-5-yl)-N-[4-[2-[2-(oxolan-3-yloxy)-5,6,8,9-tetrahydropyrido[2,3-d]azepin-7-yl]ethyl]cyclohexyl]acetamide

> <PUBCHEM_IUPAC_SYSTEMATIC_NAME>
2-(2-methyl-1,3-thiazol-5-yl)-N-[4-[2-[2-(oxolan-3-yloxy)-5,6,8,9-tetrahydropyrido[2,3-d]azepin-7-yl]ethyl]cyclohexyl]ethanamide

> <PUBCHEM_IUPAC_TRADITIONAL_NAME>
2-(2-methylthiazol-5-yl)-N-[4-[2-(2-tetrahydrofuran-3-yloxy-5,6,8,9-tetrahydropyrid[2,3-d]azepin-7-yl)ethyl]cyclohexyl]acetamide

> <PUBCHEM_IUPAC_INCHI>
InChI=1S/C27H38N4O3S/c1-19-28-17-24(35-19)16-26(32)29-22-5-2-20(3-6-22)8-12-31-13-9-21-4-7-27(30-25(21)10-14-31)34-23-11-15-33-18-23/h4,7,17,20,22-23H,2-3,5-6,8-16,18H2,1H3,(H,29,32)

> <PUBCHEM_IUPAC_INCHIKEY>
MIJHJWKBEULNEE-UHFFFAOYSA-N

> <PUBCHEM_XLOGP3_AA>
3.8

> <PUBCHEM_EXACT_MASS>
498.26646226

> <PUBCHEM_MOLECULAR_FORMULA>
C27H38N4O3S

> <PUBCHEM_MOLECULAR_WEIGHT>
498.7

> <PUBCHEM_OPENEYE_CAN_SMILES>
CC1=NC=C(S1)CC(=O)NC2CCC(CC2)CCN3CCC4=C(CC3)N=C(C=C4)OC5CCOC5

> <PUBCHEM_OPENEYE_ISO_SMILES>
CC1=NC=C(S1)CC(=O)NC2CCC(CC2)CCN3CCC4=C(CC3)N=C(C=C4)OC5CCOC5

> <PUBCHEM_CACTVS_TPSA>
105

> <PUBCHEM_MONOISOTOPIC_WEIGHT>
498.26646226

> <PUBCHEM_TOTAL_CHARGE>
0

> <PUBCHEM_HEAVY_ATOM_COUNT>
35

> <PUBCHEM_ATOM_DEF_STEREO_COUNT>
0

> <PUBCHEM_ATOM_UDEF_STEREO_COUNT>
1

> <PUBCHEM_BOND_DEF_STEREO_COUNT>
0

> <PUBCHEM_BOND_UDEF_STEREO_COUNT>
0

> <PUBCHEM_ISOTOPIC_ATOM_COUNT>
0

> <PUBCHEM_COMPONENT_COUNT>
1

> <PUBCHEM_CACTVS_TAUTO_COUNT>
-1

> <PUBCHEM_COORDINATE_TYPE>
1
5
255

> <PUBCHEM_BONDANNOTATIONS>
1  30  8
1  34  8
22  23  8
22  25  8
25  28  8
26  28  8
27  3  3
30  33  8
7  23  8
7  26  8
8  33  8
8  34  8

$$$$
