45264507
  -OEChem-09292322202D

 37 38  0     0  0  0  0  0  0999 V2000
    3.6284    0.0000    0.0000 Cl  0  0  0  0  0  0  0  0  0  0  0  0
    4.2078    4.9777    0.0000 O   0  0  0  0  0  0  0  0  0  0  0  0
    3.8988    7.5468    0.0000 O   0  0  0  0  0  0  0  0  0  0  0  0
    1.6200    5.7867    0.0000 N   0  0  0  0  0  0  0  0  0  0  0  0
    3.6200    5.7867    0.0000 C   0  0  0  0  0  0  0  0  0  0  0  0
    3.1200    6.6527    0.0000 C   0  0  0  0  0  0  0  0  0  0  0  0
    3.1200    4.9207    0.0000 C   0  0  0  0  0  0  0  0  0  0  0  0
    2.1200    6.6527    0.0000 C   0  0  0  0  0  0  0  0  0  0  0  0
    2.1200    4.9207    0.0000 C   0  0  0  0  0  0  0  0  0  0  0  0
    4.2078    6.5957    0.0000 C   0  0  0  0  0  0  0  0  0  0  0  0
    5.1588    5.2867    0.0000 C   0  0  0  0  0  0  0  0  0  0  0  0
    5.1588    6.2867    0.0000 C   0  0  0  0  0  0  0  0  0  0  0  0
    0.6200    5.7867    0.0000 C   0  0  0  0  0  0  0  0  0  0  0  0
    5.9679    4.6989    0.0000 C   0  0  0  0  0  0  0  0  0  0  0  0
    6.8814    5.1056    0.0000 C   0  0  0  0  0  0  0  0  0  0  0  0
    5.8633    3.7044    0.0000 C   0  0  0  0  0  0  0  0  0  0  0  0
    7.6904    4.5179    0.0000 C   0  0  0  0  0  0  0  0  0  0  0  0
    6.6724    3.1166    0.0000 C   0  0  0  0  0  0  0  0  0  0  0  0
    7.5859    3.5233    0.0000 C   0  0  0  0  0  0  0  0  0  0  0  0
    3.7026    6.8648    0.0000 H   0  0  0  0  0  0  0  0  0  0  0  0
    3.0123    7.2633    0.0000 H   0  0  0  0  0  0  0  0  0  0  0  0
    3.0123    4.3101    0.0000 H   0  0  0  0  0  0  0  0  0  0  0  0
    3.7026    4.7086    0.0000 H   0  0  0  0  0  0  0  0  0  0  0  0
    2.2277    7.2633    0.0000 H   0  0  0  0  0  0  0  0  0  0  0  0
    1.5374    6.8648    0.0000 H   0  0  0  0  0  0  0  0  0  0  0  0
    1.5374    4.7086    0.0000 H   0  0  0  0  0  0  0  0  0  0  0  0
    2.2277    4.3101    0.0000 H   0  0  0  0  0  0  0  0  0  0  0  0
    5.6604    6.6511    0.0000 H   0  0  0  0  0  0  0  0  0  0  0  0
    0.6200    6.4067    0.0000 H   0  0  0  0  0  0  0  0  0  0  0  0
    0.0000    5.7867    0.0000 H   0  0  0  0  0  0  0  0  0  0  0  0
    0.6200    5.1667    0.0000 H   0  0  0  0  0  0  0  0  0  0  0  0
    6.9462    5.7222    0.0000 H   0  0  0  0  0  0  0  0  0  0  0  0
    5.2969    3.4522    0.0000 H   0  0  0  0  0  0  0  0  0  0  0  0
    8.2568    4.7700    0.0000 H   0  0  0  0  0  0  0  0  0  0  0  0
    6.6075    2.5000    0.0000 H   0  0  0  0  0  0  0  0  0  0  0  0
    8.0875    3.1589    0.0000 H   0  0  0  0  0  0  0  0  0  0  0  0
    4.6284    0.0000    0.0000 H   0  0  0  0  0  0  0  0  0  0  0  0
  1 37  1  0  0  0  0
  2  5  1  0  0  0  0
  2 11  1  0  0  0  0
  3 10  2  0  0  0  0
  4  8  1  0  0  0  0
  4  9  1  0  0  0  0
  4 13  1  0  0  0  0
  5  6  1  0  0  0  0
  5  7  1  0  0  0  0
  5 10  1  0  0  0  0
  6  8  1  0  0  0  0
  6 20  1  0  0  0  0
  6 21  1  0  0  0  0
  7  9  1  0  0  0  0
  7 22  1  0  0  0  0
  7 23  1  0  0  0  0
  8 24  1  0  0  0  0
  8 25  1  0  0  0  0
  9 26  1  0  0  0  0
  9 27  1  0  0  0  0
 10 12  1  0  0  0  0
 11 12  2  0  0  0  0
 11 14  1  0  0  0  0
 12 28  1  0  0  0  0
 13 29  1  0  0  0  0
 13 30  1  0  0  0  0
 13 31  1  0  0  0  0
 14 15  2  0  0  0  0
 14 16  1  0  0  0  0
 15 17  1  0  0  0  0
 15 32  1  0  0  0  0
 16 18  2  0  0  0  0
 16 33  1  0  0  0  0
 17 19  2  0  0  0  0
 17 34  1  0  0  0  0
 18 19  1  0  0  0  0
 18 35  1  0  0  0  0
 19 36  1  0  0  0  0
M  END
> <PUBCHEM_COMPOUND_CID>
45264507

> <PUBCHEM_COMPOUND_CANONICALIZED>
1

> <PUBCHEM_CACTVS_COMPLEXITY>
361

> <PUBCHEM_CACTVS_HBOND_ACCEPTOR>
3

> <PUBCHEM_CACTVS_HBOND_DONOR>
1

> <PUBCHEM_CACTVS_ROTATABLE_BOND>
1

> <PUBCHEM_CACTVS_SUBSKEYS>
AAADceByMAAEAAAAAAAAAAAAAAAAAQAAAAA8QAAAAAAAAAABAAAAHgAAAAAADETBmAQyAIMABACIAqBSAAICCAAgIAAIiAFICMgIJjKAsRyGMAAmwAGIqQeUwCAOAAAAAAAAAAAAAAAAAAAAAAAAAAAAAA==

> <PUBCHEM_IUPAC_OPENEYE_NAME>
8-methyl-2-phenyl-1-oxa-8-azaspiro[4.5]dec-2-en-4-one;hydrochloride

> <PUBCHEM_IUPAC_CAS_NAME>
8-methyl-2-phenyl-1-oxa-8-azaspiro[4.5]dec-2-en-4-one;hydrochloride

> <PUBCHEM_IUPAC_NAME_MARKUP>
8-methyl-2-phenyl-1-oxa-8-azaspiro[4.5]dec-2-en-4-one;hydrochloride

> <PUBCHEM_IUPAC_NAME>
8-methyl-2-phenyl-1-oxa-8-azaspiro[4.5]dec-2-en-4-one;hydrochloride

> <PUBCHEM_IUPAC_SYSTEMATIC_NAME>
8-methyl-2-phenyl-1-oxa-8-azaspiro[4.5]dec-2-en-4-one;hydrochloride

> <PUBCHEM_IUPAC_TRADITIONAL_NAME>
8-methyl-2-phenyl-1-oxa-8-azaspiro[4.5]dec-2-en-4-one;hydrochloride

> <PUBCHEM_IUPAC_INCHI>
InChI=1S/C15H17NO2.ClH/c1-16-9-7-15(8-10-16)14(17)11-13(18-15)12-5-3-2-4-6-12;/h2-6,11H,7-10H2,1H3;1H

> <PUBCHEM_IUPAC_INCHIKEY>
OUKKAHIPUGDADZ-UHFFFAOYSA-N

> <PUBCHEM_EXACT_MASS>
279.1026065

> <PUBCHEM_MOLECULAR_FORMULA>
C15H18ClNO2

> <PUBCHEM_MOLECULAR_WEIGHT>
279.76

> <PUBCHEM_OPENEYE_CAN_SMILES>
CN1CCC2(CC1)C(=O)C=C(O2)C3=CC=CC=C3.Cl

> <PUBCHEM_OPENEYE_ISO_SMILES>
CN1CCC2(CC1)C(=O)C=C(O2)C3=CC=CC=C3.Cl

> <PUBCHEM_CACTVS_TPSA>
29.5

> <PUBCHEM_MONOISOTOPIC_WEIGHT>
279.1026065

> <PUBCHEM_TOTAL_CHARGE>
0

> <PUBCHEM_HEAVY_ATOM_COUNT>
19

> <PUBCHEM_ATOM_DEF_STEREO_COUNT>
0

> <PUBCHEM_ATOM_UDEF_STEREO_COUNT>
0

> <PUBCHEM_BOND_DEF_STEREO_COUNT>
0

> <PUBCHEM_BOND_UDEF_STEREO_COUNT>
0

> <PUBCHEM_ISOTOPIC_ATOM_COUNT>
0

> <PUBCHEM_COMPONENT_COUNT>
2

> <PUBCHEM_CACTVS_TAUTO_COUNT>
-1

> <PUBCHEM_COORDINATE_TYPE>
1
5
255

> <PUBCHEM_BONDANNOTATIONS>
14  15  8
14  16  8
15  17  8
16  18  8
17  19  8
18  19  8

$$$$
