3106
  -OEChem-09292321592D

 40 40  0     0  0  0  0  0  0999 V2000
    4.2690    3.3450    0.0000 O   0  0  0  0  0  0  0  0  0  0  0  0
    2.5369    2.3450    0.0000 O   0  0  0  0  0  0  0  0  0  0  0  0
    6.8671   -1.1550    0.0000 N   0  0  0  0  0  0  0  0  0  0  0  0
    6.0010   -0.6550    0.0000 C   0  0  0  0  0  0  0  0  0  0  0  0
    6.8671   -2.1550    0.0000 C   0  0  0  0  0  0  0  0  0  0  0  0
    7.7331   -0.6550    0.0000 C   0  0  0  0  0  0  0  0  0  0  0  0
    6.0010    0.3450    0.0000 C   0  0  0  0  0  0  0  0  0  0  0  0
    7.7331   -2.6550    0.0000 C   0  0  0  0  0  0  0  0  0  0  0  0
    8.5991   -1.1550    0.0000 C   0  0  0  0  0  0  0  0  0  0  0  0
    5.1350    0.8450    0.0000 C   0  0  0  0  0  0  0  0  0  0  0  0
    7.7331   -3.6550    0.0000 C   0  0  0  0  0  0  0  0  0  0  0  0
    9.4651   -0.6550    0.0000 C   0  0  0  0  0  0  0  0  0  0  0  0
    5.1350    1.8450    0.0000 C   0  0  0  0  0  0  0  0  0  0  0  0
    4.2690    0.3450    0.0000 C   0  0  0  0  0  0  0  0  0  0  0  0
    4.2690    2.3450    0.0000 C   0  0  0  0  0  0  0  0  0  0  0  0
    3.4030    0.8450    0.0000 C   0  0  0  0  0  0  0  0  0  0  0  0
    3.4030    1.8450    0.0000 C   0  0  0  0  0  0  0  0  0  0  0  0
    5.3905   -0.5473    0.0000 H   0  0  0  0  0  0  0  0  0  0  0  0
    5.7890   -1.2376    0.0000 H   0  0  0  0  0  0  0  0  0  0  0  0
    6.2565   -2.0473    0.0000 H   0  0  0  0  0  0  0  0  0  0  0  0
    6.6550   -2.7376    0.0000 H   0  0  0  0  0  0  0  0  0  0  0  0
    8.1316   -0.1801    0.0000 H   0  0  0  0  0  0  0  0  0  0  0  0
    7.3346   -0.1801    0.0000 H   0  0  0  0  0  0  0  0  0  0  0  0
    6.6116    0.2373    0.0000 H   0  0  0  0  0  0  0  0  0  0  0  0
    6.2131    0.9276    0.0000 H   0  0  0  0  0  0  0  0  0  0  0  0
    8.3437   -2.7627    0.0000 H   0  0  0  0  0  0  0  0  0  0  0  0
    7.9451   -2.0724    0.0000 H   0  0  0  0  0  0  0  0  0  0  0  0
    8.2006   -1.6300    0.0000 H   0  0  0  0  0  0  0  0  0  0  0  0
    8.9976   -1.6300    0.0000 H   0  0  0  0  0  0  0  0  0  0  0  0
    7.1131   -3.6550    0.0000 H   0  0  0  0  0  0  0  0  0  0  0  0
    7.7331   -4.2750    0.0000 H   0  0  0  0  0  0  0  0  0  0  0  0
    8.3531   -3.6550    0.0000 H   0  0  0  0  0  0  0  0  0  0  0  0
    9.7751   -1.1919    0.0000 H   0  0  0  0  0  0  0  0  0  0  0  0
   10.0021   -0.3450    0.0000 H   0  0  0  0  0  0  0  0  0  0  0  0
    9.1551   -0.1181    0.0000 H   0  0  0  0  0  0  0  0  0  0  0  0
    5.6720    2.1550    0.0000 H   0  0  0  0  0  0  0  0  0  0  0  0
    4.2690   -0.2750    0.0000 H   0  0  0  0  0  0  0  0  0  0  0  0
    2.8660    0.5350    0.0000 H   0  0  0  0  0  0  0  0  0  0  0  0
    4.8059    3.6550    0.0000 H   0  0  0  0  0  0  0  0  0  0  0  0
    2.0000    2.0350    0.0000 H   0  0  0  0  0  0  0  0  0  0  0  0
  1 15  1  0  0  0  0
  1 39  1  0  0  0  0
  2 17  1  0  0  0  0
  2 40  1  0  0  0  0
  3  4  1  0  0  0  0
  3  5  1  0  0  0  0
  3  6  1  0  0  0  0
  4  7  1  0  0  0  0
  4 18  1  0  0  0  0
  4 19  1  0  0  0  0
  5  8  1  0  0  0  0
  5 20  1  0  0  0  0
  5 21  1  0  0  0  0
  6  9  1  0  0  0  0
  6 22  1  0  0  0  0
  6 23  1  0  0  0  0
  7 10  1  0  0  0  0
  7 24  1  0  0  0  0
  7 25  1  0  0  0  0
  8 11  1  0  0  0  0
  8 26  1  0  0  0  0
  8 27  1  0  0  0  0
  9 12  1  0  0  0  0
  9 28  1  0  0  0  0
  9 29  1  0  0  0  0
 10 13  2  0  0  0  0
 10 14  1  0  0  0  0
 11 30  1  0  0  0  0
 11 31  1  0  0  0  0
 11 32  1  0  0  0  0
 12 33  1  0  0  0  0
 12 34  1  0  0  0  0
 12 35  1  0  0  0  0
 13 15  1  0  0  0  0
 13 36  1  0  0  0  0
 14 16  2  0  0  0  0
 14 37  1  0  0  0  0
 15 17  2  0  0  0  0
 16 17  1  0  0  0  0
 16 38  1  0  0  0  0
M  END
> <PUBCHEM_COMPOUND_CID>
3106

> <PUBCHEM_COMPOUND_CANONICALIZED>
1

> <PUBCHEM_CACTVS_COMPLEXITY>
193

> <PUBCHEM_CACTVS_HBOND_ACCEPTOR>
3

> <PUBCHEM_CACTVS_HBOND_DONOR>
2

> <PUBCHEM_CACTVS_ROTATABLE_BOND>
7

> <PUBCHEM_CACTVS_SUBSKEYS>
AAADceByMAAAAAAAAAAAAAAAAAAAAAAAAAAwAAAAAAAAAAABAAAAHgAACAAADATBmAQyBoMAAgCAAiBCAAACAAAgIAAIiAAOiIgJJiKCkROEcAEkwBGJmAeQ0LIOIAABAAAAQABAAAIAAACAAAAAAAAAAA==

> <PUBCHEM_IUPAC_OPENEYE_NAME>
4-[2-(dipropylamino)ethyl]benzene-1,2-diol

> <PUBCHEM_IUPAC_CAS_NAME>
4-[2-(dipropylamino)ethyl]benzene-1,2-diol

> <PUBCHEM_IUPAC_NAME_MARKUP>
4-[2-(dipropylamino)ethyl]benzene-1,2-diol

> <PUBCHEM_IUPAC_NAME>
4-[2-(dipropylamino)ethyl]benzene-1,2-diol

> <PUBCHEM_IUPAC_SYSTEMATIC_NAME>
4-[2-(dipropylamino)ethyl]benzene-1,2-diol

> <PUBCHEM_IUPAC_TRADITIONAL_NAME>
4-[2-(dipropylamino)ethyl]pyrocatechol

> <PUBCHEM_IUPAC_INCHI>
InChI=1S/C14H23NO2/c1-3-8-15(9-4-2)10-7-12-5-6-13(16)14(17)11-12/h5-6,11,16-17H,3-4,7-10H2,1-2H3

> <PUBCHEM_IUPAC_INCHIKEY>
LMYSNFBROWBKMB-UHFFFAOYSA-N

> <PUBCHEM_XLOGP3>
1.8

> <PUBCHEM_EXACT_MASS>
237.172878976

> <PUBCHEM_MOLECULAR_FORMULA>
C14H23NO2

> <PUBCHEM_MOLECULAR_WEIGHT>
237.34

> <PUBCHEM_OPENEYE_CAN_SMILES>
CCCN(CCC)CCC1=CC(=C(C=C1)O)O

> <PUBCHEM_OPENEYE_ISO_SMILES>
CCCN(CCC)CCC1=CC(=C(C=C1)O)O

> <PUBCHEM_CACTVS_TPSA>
43.7

> <PUBCHEM_MONOISOTOPIC_WEIGHT>
237.172878976

> <PUBCHEM_TOTAL_CHARGE>
0

> <PUBCHEM_HEAVY_ATOM_COUNT>
17

> <PUBCHEM_ATOM_DEF_STEREO_COUNT>
0

> <PUBCHEM_ATOM_UDEF_STEREO_COUNT>
0

> <PUBCHEM_BOND_DEF_STEREO_COUNT>
0

> <PUBCHEM_BOND_UDEF_STEREO_COUNT>
0

> <PUBCHEM_ISOTOPIC_ATOM_COUNT>
0

> <PUBCHEM_COMPONENT_COUNT>
1

> <PUBCHEM_CACTVS_TAUTO_COUNT>
-1

> <PUBCHEM_COORDINATE_TYPE>
1
5
255

> <PUBCHEM_BONDANNOTATIONS>
10  13  8
10  14  8
13  15  8
14  16  8
15  17  8
16  17  8

$$$$
