22403068
  -OEChem-09292322202D

 54 56  0     0  0  0  0  0  0999 V2000
    5.3457   -3.3078    0.0000 S   0  0  0  0  0  0  0  0  0  0  0  0
    2.9945   -0.0718    0.0000 O   0  0  0  0  0  0  0  0  0  0  0  0
    4.5366   -3.8956    0.0000 O   0  0  0  0  0  0  0  0  0  0  0  0
    6.1547   -2.7200    0.0000 O   0  0  0  0  0  0  0  0  0  0  0  0
    6.9323    2.8397    0.0000 N   0  0  0  0  0  0  0  0  0  0  0  0
    5.9617    0.3452    0.0000 N   0  0  0  0  0  0  0  0  0  0  0  0
    6.0313    3.2736    0.0000 C   0  0  0  0  0  0  0  0  0  0  0  0
    7.8332    3.2736    0.0000 C   0  0  0  0  0  0  0  0  0  0  0  0
    5.8088    4.2486    0.0000 C   0  0  0  0  0  0  0  0  0  0  0  0
    8.0558    4.2486    0.0000 C   0  0  0  0  0  0  0  0  0  0  0  0
    6.4323    5.0304    0.0000 C   0  0  0  0  0  0  0  0  0  0  0  0
    7.4323    5.0304    0.0000 C   0  0  0  0  0  0  0  0  0  0  0  0
    6.9323    1.8397    0.0000 C   0  0  0  0  0  0  0  0  0  0  0  0
    6.0662    1.3397    0.0000 C   0  0  0  0  0  0  0  0  0  0  0  0
    4.9836    0.1373    0.0000 C   0  0  0  0  0  0  0  0  0  0  0  0
    5.1527    1.7465    0.0000 C   0  0  0  0  0  0  0  0  0  0  0  0
    4.4836    1.0033    0.0000 C   0  0  0  0  0  0  0  0  0  0  0  0
    4.5768   -0.7762    0.0000 C   0  0  0  0  0  0  0  0  0  0  0  0
    5.1646   -1.5853    0.0000 C   0  0  0  0  0  0  0  0  0  0  0  0
    4.7579   -2.4988    0.0000 C   0  0  0  0  0  0  0  0  0  0  0  0
    3.5823   -0.8808    0.0000 C   0  0  0  0  0  0  0  0  0  0  0  0
    3.7634   -2.6033    0.0000 C   0  0  0  0  0  0  0  0  0  0  0  0
    3.1756   -1.7943    0.0000 C   0  0  0  0  0  0  0  0  0  0  0  0
    5.9334   -4.1168    0.0000 C   0  0  0  0  0  0  0  0  0  0  0  0
    5.5267   -5.0304    0.0000 C   0  0  0  0  0  0  0  0  0  0  0  0
    2.0000   -0.1763    0.0000 C   0  0  0  0  0  0  0  0  0  0  0  0
    5.4113    3.2736    0.0000 H   0  0  0  0  0  0  0  0  0  0  0  0
    5.8933    2.6692    0.0000 H   0  0  0  0  0  0  0  0  0  0  0  0
    7.9712    2.6692    0.0000 H   0  0  0  0  0  0  0  0  0  0  0  0
    8.4532    3.2736    0.0000 H   0  0  0  0  0  0  0  0  0  0  0  0
    5.4222    4.7333    0.0000 H   0  0  0  0  0  0  0  0  0  0  0  0
    5.2502    3.9795    0.0000 H   0  0  0  0  0  0  0  0  0  0  0  0
    8.6144    3.9795    0.0000 H   0  0  0  0  0  0  0  0  0  0  0  0
    8.4423    4.7333    0.0000 H   0  0  0  0  0  0  0  0  0  0  0  0
    6.5702    5.6348    0.0000 H   0  0  0  0  0  0  0  0  0  0  0  0
    5.8737    5.2994    0.0000 H   0  0  0  0  0  0  0  0  0  0  0  0
    7.9909    5.2994    0.0000 H   0  0  0  0  0  0  0  0  0  0  0  0
    7.2943    5.6348    0.0000 H   0  0  0  0  0  0  0  0  0  0  0  0
    7.1443    1.2571    0.0000 H   0  0  0  0  0  0  0  0  0  0  0  0
    7.5428    1.9474    0.0000 H   0  0  0  0  0  0  0  0  0  0  0  0
    6.4225   -0.0696    0.0000 H   0  0  0  0  0  0  0  0  0  0  0  0
    5.0238    2.3529    0.0000 H   0  0  0  0  0  0  0  0  0  0  0  0
    3.8670    1.0681    0.0000 H   0  0  0  0  0  0  0  0  0  0  0  0
    5.7812   -1.5204    0.0000 H   0  0  0  0  0  0  0  0  0  0  0  0
    3.5112   -3.1697    0.0000 H   0  0  0  0  0  0  0  0  0  0  0  0
    2.5590   -1.8591    0.0000 H   0  0  0  0  0  0  0  0  0  0  0  0
    6.4474   -4.4635    0.0000 H   0  0  0  0  0  0  0  0  0  0  0  0
    6.3641   -3.6708    0.0000 H   0  0  0  0  0  0  0  0  0  0  0  0
    4.9603   -4.7782    0.0000 H   0  0  0  0  0  0  0  0  0  0  0  0
    5.2745   -5.5968    0.0000 H   0  0  0  0  0  0  0  0  0  0  0  0
    6.0931   -5.2826    0.0000 H   0  0  0  0  0  0  0  0  0  0  0  0
    1.9352    0.4403    0.0000 H   0  0  0  0  0  0  0  0  0  0  0  0
    1.3834   -0.2411    0.0000 H   0  0  0  0  0  0  0  0  0  0  0  0
    2.0648   -0.7929    0.0000 H   0  0  0  0  0  0  0  0  0  0  0  0
  1  3  2  0  0  0  0
  1  4  2  0  0  0  0
  1 20  1  0  0  0  0
  1 24  1  0  0  0  0
  2 21  1  0  0  0  0
  2 26  1  0  0  0  0
  5  7  1  0  0  0  0
  5  8  1  0  0  0  0
  5 13  1  0  0  0  0
  6 14  1  0  0  0  0
  6 15  1  0  0  0  0
  6 41  1  0  0  0  0
  7  9  1  0  0  0  0
  7 27  1  0  0  0  0
  7 28  1  0  0  0  0
  8 10  1  0  0  0  0
  8 29  1  0  0  0  0
  8 30  1  0  0  0  0
  9 11  1  0  0  0  0
  9 31  1  0  0  0  0
  9 32  1  0  0  0  0
 10 12  1  0  0  0  0
 10 33  1  0  0  0  0
 10 34  1  0  0  0  0
 11 12  1  0  0  0  0
 11 35  1  0  0  0  0
 11 36  1  0  0  0  0
 12 37  1  0  0  0  0
 12 38  1  0  0  0  0
 13 14  1  0  0  0  0
 13 39  1  0  0  0  0
 13 40  1  0  0  0  0
 14 16  2  0  0  0  0
 15 17  2  0  0  0  0
 15 18  1  0  0  0  0
 16 17  1  0  0  0  0
 16 42  1  0  0  0  0
 17 43  1  0  0  0  0
 18 19  1  0  0  0  0
 18 21  2  0  0  0  0
 19 20  2  0  0  0  0
 19 44  1  0  0  0  0
 20 22  1  0  0  0  0
 21 23  1  0  0  0  0
 22 23  2  0  0  0  0
 22 45  1  0  0  0  0
 23 46  1  0  0  0  0
 24 25  1  0  0  0  0
 24 47  1  0  0  0  0
 24 48  1  0  0  0  0
 25 49  1  0  0  0  0
 25 50  1  0  0  0  0
 25 51  1  0  0  0  0
 26 52  1  0  0  0  0
 26 53  1  0  0  0  0
 26 54  1  0  0  0  0
M  END
> <PUBCHEM_COMPOUND_CID>
22403068

> <PUBCHEM_COMPOUND_CANONICALIZED>
1

> <PUBCHEM_CACTVS_COMPLEXITY>
526

> <PUBCHEM_CACTVS_HBOND_ACCEPTOR>
4

> <PUBCHEM_CACTVS_HBOND_DONOR>
1

> <PUBCHEM_CACTVS_ROTATABLE_BOND>
6

> <PUBCHEM_CACTVS_SUBSKEYS>
AAADceB7MABAAAAAAAAAAAAAAAAAAWAAAAAwAAAABYAAAAABwAAAHgQQAAAADAzF3gayh5PJlAqgAyRiRHDCiCAhKjAImTg+bJgMZuLksZuUMChm0BHo6AeQwOAOAIAAgAAIAAABAAEAABAAAAAAAAAAAA==

> <PUBCHEM_IUPAC_OPENEYE_NAME>
1-[[5-(5-ethylsulfonyl-2-methoxy-phenyl)-1H-pyrrol-2-yl]methyl]azepane

> <PUBCHEM_IUPAC_CAS_NAME>
1-[[5-(5-ethylsulfonyl-2-methoxyphenyl)-1H-pyrrol-2-yl]methyl]azepane

> <PUBCHEM_IUPAC_NAME_MARKUP>
1-[[5-(5-ethylsulfonyl-2-methoxyphenyl)-1<I>H</I>-pyrrol-2-yl]methyl]azepane

> <PUBCHEM_IUPAC_NAME>
1-[[5-(5-ethylsulfonyl-2-methoxyphenyl)-1H-pyrrol-2-yl]methyl]azepane

> <PUBCHEM_IUPAC_SYSTEMATIC_NAME>
1-[[5-(5-ethylsulfonyl-2-methoxy-phenyl)-1H-pyrrol-2-yl]methyl]azepane

> <PUBCHEM_IUPAC_TRADITIONAL_NAME>
1-[[5-(5-esyl-2-methoxy-phenyl)-1H-pyrrol-2-yl]methyl]azepane

> <PUBCHEM_IUPAC_INCHI>
InChI=1S/C20H28N2O3S/c1-3-26(23,24)17-9-11-20(25-2)18(14-17)19-10-8-16(21-19)15-22-12-6-4-5-7-13-22/h8-11,14,21H,3-7,12-13,15H2,1-2H3

> <PUBCHEM_IUPAC_INCHIKEY>
LXYDWPGIKXXMMG-UHFFFAOYSA-N

> <PUBCHEM_XLOGP3_AA>
3

> <PUBCHEM_EXACT_MASS>
376.18206393

> <PUBCHEM_MOLECULAR_FORMULA>
C20H28N2O3S

> <PUBCHEM_MOLECULAR_WEIGHT>
376.5

> <PUBCHEM_OPENEYE_CAN_SMILES>
CCS(=O)(=O)C1=CC(=C(C=C1)OC)C2=CC=C(N2)CN3CCCCCC3

> <PUBCHEM_OPENEYE_ISO_SMILES>
CCS(=O)(=O)C1=CC(=C(C=C1)OC)C2=CC=C(N2)CN3CCCCCC3

> <PUBCHEM_CACTVS_TPSA>
70.8

> <PUBCHEM_MONOISOTOPIC_WEIGHT>
376.18206393

> <PUBCHEM_TOTAL_CHARGE>
0

> <PUBCHEM_HEAVY_ATOM_COUNT>
26

> <PUBCHEM_ATOM_DEF_STEREO_COUNT>
0

> <PUBCHEM_ATOM_UDEF_STEREO_COUNT>
0

> <PUBCHEM_BOND_DEF_STEREO_COUNT>
0

> <PUBCHEM_BOND_UDEF_STEREO_COUNT>
0

> <PUBCHEM_ISOTOPIC_ATOM_COUNT>
0

> <PUBCHEM_COMPONENT_COUNT>
1

> <PUBCHEM_CACTVS_TAUTO_COUNT>
-1

> <PUBCHEM_COORDINATE_TYPE>
1
5
255

> <PUBCHEM_BONDANNOTATIONS>
14  16  8
15  17  8
16  17  8
18  19  8
18  21  8
19  20  8
20  22  8
21  23  8
22  23  8
6  14  8
6  15  8

$$$$
