129186534
  -OEChem-09292322062D

 57 61  0     1  0  0  0  0  0999 V2000
   13.1973   -0.8502    0.0000 S   0  0  0  0  0  0  0  0  0  0  0  0
    2.9176    3.0173    0.0000 F   0  0  0  0  0  0  0  0  0  0  0  0
    4.6660   -1.0173    0.0000 O   0  0  0  0  0  0  0  0  0  0  0  0
    8.1301   -0.0173    0.0000 N   0  0  0  0  0  0  0  0  0  0  0  0
    9.8622   -1.0173    0.0000 N   0  0  0  0  0  0  0  0  0  0  0  0
    3.8000    0.4827    0.0000 N   0  0  0  0  0  0  0  0  0  0  0  0
    4.6660    1.9827    0.0000 N   0  0  0  0  0  0  0  0  0  0  0  0
    8.1301   -1.0173    0.0000 C   0  0  0  0  0  0  0  0  0  0  0  0
    8.9962    0.4827    0.0000 C   0  0  0  0  0  0  0  0  0  0  0  0
    8.9962   -1.5173    0.0000 C   0  0  0  0  0  0  0  0  0  0  0  0
    9.8622   -0.0173    0.0000 C   0  0  0  0  0  0  0  0  0  0  0  0
    7.2641    0.4827    0.0000 C   0  0  0  0  0  0  0  0  0  0  0  0
    6.3981   -0.0173    0.0000 C   0  0  0  0  0  0  0  0  0  0  0  0
    5.5321    0.4827    0.0000 C   0  0  0  0  0  0  0  0  0  0  0  0
    2.9061   -0.0520    0.0000 C   0  0  0  0  0  0  0  0  0  0  0  0
    2.0000    0.4619    0.0000 C   0  0  0  0  0  0  0  0  0  0  0  0
    2.0000    1.5035    0.0000 C   0  0  0  0  0  0  0  0  0  0  0  0
    2.9061    2.0174    0.0000 C   0  0  3  0  0  0  0  0  0  0  0  0
    3.8000    1.4827    0.0000 C   0  0  0  0  0  0  0  0  0  0  0  0
   10.7282   -1.5173    0.0000 C   0  0  0  0  0  0  0  0  0  0  0  0
    4.6660   -0.0173    0.0000 C   0  0  0  0  0  0  0  0  0  0  0  0
    5.5321    1.4827    0.0000 C   0  0  0  0  0  0  0  0  0  0  0  0
   11.5942   -1.0173    0.0000 C   0  0  0  0  0  0  0  0  0  0  0  0
   10.7282   -2.5173    0.0000 C   0  0  0  0  0  0  0  0  0  0  0  0
    6.3981    1.9827    0.0000 C   0  0  0  0  0  0  0  0  0  0  0  0
   12.4603   -1.5173    0.0000 C   0  0  0  0  0  0  0  0  0  0  0  0
   11.8034   -0.0455    0.0000 C   0  0  0  0  0  0  0  0  0  0  0  0
   11.5942   -3.0173    0.0000 C   0  0  0  0  0  0  0  0  0  0  0  0
   12.4603   -2.5173    0.0000 C   0  0  0  0  0  0  0  0  0  0  0  0
   12.7922    0.0576    0.0000 C   0  0  0  0  0  0  0  0  0  0  0  0
    7.5196   -0.9096    0.0000 H   0  0  0  0  0  0  0  0  0  0  0  0
    7.9181   -1.5999    0.0000 H   0  0  0  0  0  0  0  0  0  0  0  0
    9.3947    0.9576    0.0000 H   0  0  0  0  0  0  0  0  0  0  0  0
    8.5976    0.9576    0.0000 H   0  0  0  0  0  0  0  0  0  0  0  0
    8.5976   -1.9922    0.0000 H   0  0  0  0  0  0  0  0  0  0  0  0
    9.3947   -1.9922    0.0000 H   0  0  0  0  0  0  0  0  0  0  0  0
   10.4728   -0.1250    0.0000 H   0  0  0  0  0  0  0  0  0  0  0  0
   10.0742    0.5653    0.0000 H   0  0  0  0  0  0  0  0  0  0  0  0
    7.6626    0.9576    0.0000 H   0  0  0  0  0  0  0  0  0  0  0  0
    6.8656    0.9576    0.0000 H   0  0  0  0  0  0  0  0  0  0  0  0
    5.9996   -0.4922    0.0000 H   0  0  0  0  0  0  0  0  0  0  0  0
    6.7966   -0.4922    0.0000 H   0  0  0  0  0  0  0  0  0  0  0  0
    2.5124   -0.5310    0.0000 H   0  0  0  0  0  0  0  0  0  0  0  0
    3.3107   -0.5217    0.0000 H   0  0  0  0  0  0  0  0  0  0  0  0
    1.3891    0.5680    0.0000 H   0  0  0  0  0  0  0  0  0  0  0  0
    1.7909   -0.1218    0.0000 H   0  0  0  0  0  0  0  0  0  0  0  0
    1.7909    2.0872    0.0000 H   0  0  0  0  0  0  0  0  0  0  0  0
    1.3891    1.3974    0.0000 H   0  0  0  0  0  0  0  0  0  0  0  0
    3.4471    2.3201    0.0000 H   0  0  0  0  0  0  0  0  0  0  0  0
   10.1913   -2.8273    0.0000 H   0  0  0  0  0  0  0  0  0  0  0  0
    6.7081    1.4458    0.0000 H   0  0  0  0  0  0  0  0  0  0  0  0
    6.9350    2.2927    0.0000 H   0  0  0  0  0  0  0  0  0  0  0  0
    6.0881    2.5196    0.0000 H   0  0  0  0  0  0  0  0  0  0  0  0
   11.3894    0.4160    0.0000 H   0  0  0  0  0  0  0  0  0  0  0  0
   11.5942   -3.6373    0.0000 H   0  0  0  0  0  0  0  0  0  0  0  0
   12.9972   -2.8273    0.0000 H   0  0  0  0  0  0  0  0  0  0  0  0
   13.1022    0.5945    0.0000 H   0  0  0  0  0  0  0  0  0  0  0  0
  1 26  1  0  0  0  0
  1 30  1  0  0  0  0
  2 18  1  0  0  0  0
  3 21  2  0  0  0  0
  4  8  1  0  0  0  0
  4  9  1  0  0  0  0
  4 12  1  0  0  0  0
  5 10  1  0  0  0  0
  5 11  1  0  0  0  0
  5 20  1  0  0  0  0
  6 15  1  0  0  0  0
  6 19  1  0  0  0  0
  6 21  1  0  0  0  0
  7 19  2  0  0  0  0
  7 22  1  0  0  0  0
  8 10  1  0  0  0  0
  8 31  1  0  0  0  0
  8 32  1  0  0  0  0
  9 11  1  0  0  0  0
  9 33  1  0  0  0  0
  9 34  1  0  0  0  0
 10 35  1  0  0  0  0
 10 36  1  0  0  0  0
 11 37  1  0  0  0  0
 11 38  1  0  0  0  0
 12 13  1  0  0  0  0
 12 39  1  0  0  0  0
 12 40  1  0  0  0  0
 13 14  1  0  0  0  0
 13 41  1  0  0  0  0
 13 42  1  0  0  0  0
 14 21  1  0  0  0  0
 14 22  2  0  0  0  0
 15 16  1  0  0  0  0
 15 43  1  0  0  0  0
 15 44  1  0  0  0  0
 16 17  1  0  0  0  0
 16 45  1  0  0  0  0
 16 46  1  0  0  0  0
 17 18  1  0  0  0  0
 17 47  1  0  0  0  0
 17 48  1  0  0  0  0
 18 19  1  0  0  0  0
 18 49  1  0  0  0  0
 20 23  2  0  0  0  0
 20 24  1  0  0  0  0
 22 25  1  0  0  0  0
 23 26  1  0  0  0  0
 23 27  1  0  0  0  0
 24 28  2  0  0  0  0
 24 50  1  0  0  0  0
 25 51  1  0  0  0  0
 25 52  1  0  0  0  0
 25 53  1  0  0  0  0
 26 29  2  0  0  0  0
 27 30  2  0  0  0  0
 27 54  1  0  0  0  0
 28 29  1  0  0  0  0
 28 55  1  0  0  0  0
 29 56  1  0  0  0  0
 30 57  1  0  0  0  0
M  END
> <PUBCHEM_COMPOUND_CID>
129186534

> <PUBCHEM_COMPOUND_CANONICALIZED>
1

> <PUBCHEM_CACTVS_COMPLEXITY>
733

> <PUBCHEM_CACTVS_HBOND_ACCEPTOR>
6

> <PUBCHEM_CACTVS_HBOND_DONOR>
0

> <PUBCHEM_CACTVS_ROTATABLE_BOND>
4

> <PUBCHEM_CACTVS_SUBSKEYS>
AAADceB7oQBAAAAAAAAAAAAAAAAAASAAAAA8WIEAAAAAAEiB8AAAHwQAAAAADAjF2ASzwcMAAAisAidydACDAIEhChBJiBk4ZMgIYDLgmZGUIAxghgDoyUcUgIAOAAAAACAGAAAAAAAAQAwAAAAAAAAAAA==

> <PUBCHEM_IUPAC_OPENEYE_NAME>
3-[2-[4-(benzothiophen-4-yl)piperazin-1-yl]ethyl]-9-fluoro-2-methyl-6,7,8,9-tetrahydropyrido[1,2-a]pyrimidin-4-one

> <PUBCHEM_IUPAC_CAS_NAME>
3-[2-[4-(1-benzothiophen-4-yl)-1-piperazinyl]ethyl]-9-fluoro-2-methyl-6,7,8,9-tetrahydropyrido[1,2-a]pyrimidin-4-one

> <PUBCHEM_IUPAC_NAME_MARKUP>
3-[2-[4-(1-benzothiophen-4-yl)piperazin-1-yl]ethyl]-9-fluoro-2-methyl-6,7,8,9-tetrahydropyrido[1,2-a]pyrimidin-4-one

> <PUBCHEM_IUPAC_NAME>
3-[2-[4-(1-benzothiophen-4-yl)piperazin-1-yl]ethyl]-9-fluoro-2-methyl-6,7,8,9-tetrahydropyrido[1,2-a]pyrimidin-4-one

> <PUBCHEM_IUPAC_SYSTEMATIC_NAME>
3-[2-[4-(1-benzothiophen-4-yl)piperazin-1-yl]ethyl]-9-fluoranyl-2-methyl-6,7,8,9-tetrahydropyrido[1,2-a]pyrimidin-4-one

> <PUBCHEM_IUPAC_TRADITIONAL_NAME>
3-[2-[4-(benzothiophen-4-yl)piperazino]ethyl]-9-fluoro-2-methyl-6,7,8,9-tetrahydropyrido[1,2-a]pyrimidin-4-one

> <PUBCHEM_IUPAC_INCHI>
InChI=1S/C23H27FN4OS/c1-16-17(23(29)28-9-3-4-19(24)22(28)25-16)7-10-26-11-13-27(14-12-26)20-5-2-6-21-18(20)8-15-30-21/h2,5-6,8,15,19H,3-4,7,9-14H2,1H3

> <PUBCHEM_IUPAC_INCHIKEY>
VKNIGNGTZIYLFI-UHFFFAOYSA-N

> <PUBCHEM_XLOGP3_AA>
3.6

> <PUBCHEM_EXACT_MASS>
426.18896083

> <PUBCHEM_MOLECULAR_FORMULA>
C23H27FN4OS

> <PUBCHEM_MOLECULAR_WEIGHT>
426.6

> <PUBCHEM_OPENEYE_CAN_SMILES>
CC1=C(C(=O)N2CCCC(C2=N1)F)CCN3CCN(CC3)C4=C5C=CSC5=CC=C4

> <PUBCHEM_OPENEYE_ISO_SMILES>
CC1=C(C(=O)N2CCCC(C2=N1)F)CCN3CCN(CC3)C4=C5C=CSC5=CC=C4

> <PUBCHEM_CACTVS_TPSA>
67.4

> <PUBCHEM_MONOISOTOPIC_WEIGHT>
426.18896083

> <PUBCHEM_TOTAL_CHARGE>
0

> <PUBCHEM_HEAVY_ATOM_COUNT>
30

> <PUBCHEM_ATOM_DEF_STEREO_COUNT>
0

> <PUBCHEM_ATOM_UDEF_STEREO_COUNT>
1

> <PUBCHEM_BOND_DEF_STEREO_COUNT>
0

> <PUBCHEM_BOND_UDEF_STEREO_COUNT>
0

> <PUBCHEM_ISOTOPIC_ATOM_COUNT>
0

> <PUBCHEM_COMPONENT_COUNT>
1

> <PUBCHEM_CACTVS_TAUTO_COUNT>
-1

> <PUBCHEM_COORDINATE_TYPE>
1
5
255

> <PUBCHEM_BONDANNOTATIONS>
1  26  8
1  30  8
14  21  8
14  22  8
18  2  3
20  23  8
20  24  8
23  26  8
23  27  8
24  28  8
26  29  8
27  30  8
28  29  8
6  19  8
6  21  8
7  19  8
7  22  8

$$$$
