155195441
  -OEChem-09292322402D

 63 67  0     1  0  0  0  0  0999 V2000
    2.9061   -1.7696    0.0000 O   0  0  0  0  0  0  0  0  0  0  0  0
    5.5321   -3.3043    0.0000 O   0  0  0  0  0  0  0  0  0  0  0  0
    5.5442    0.7650    0.0000 O   0  0  0  0  0  0  0  0  0  0  0  0
    7.4811    5.9290    0.0000 O   0  0  0  0  0  0  0  0  0  0  0  0
    9.2480    2.8956    0.0000 O   0  0  0  0  0  0  0  0  0  0  0  0
    2.9061   -3.8390    0.0000 N   0  0  3  0  0  0  0  0  0  0  0  0
    8.1287    4.2749    0.0000 N   0  0  0  0  0  0  0  0  0  0  0  0
    3.8000   -3.3043    0.0000 C   0  0  1  0  0  0  0  0  0  0  0  0
    3.8000   -2.3043    0.0000 C   0  0  1  0  0  0  0  0  0  0  0  0
    4.6660   -3.8043    0.0000 C   0  0  0  0  0  0  0  0  0  0  0  0
    2.0000   -3.3251    0.0000 C   0  0  0  0  0  0  0  0  0  0  0  0
    4.6660   -1.8043    0.0000 C   0  0  0  0  0  0  0  0  0  0  0  0
    2.0000   -2.2835    0.0000 C   0  0  0  0  0  0  0  0  0  0  0  0
    2.9176   -4.8389    0.0000 C   0  0  0  0  0  0  0  0  0  0  0  0
    5.5321   -2.3043    0.0000 C   0  0  0  0  0  0  0  0  0  0  0  0
    2.0574   -5.3489    0.0000 C   0  0  0  0  0  0  0  0  0  0  0  0
    4.6500   -0.7628    0.0000 C   0  0  0  0  0  0  0  0  0  0  0  0
    6.4421   -1.7974    0.0000 C   0  0  0  0  0  0  0  0  0  0  0  0
    5.5480   -0.2350    0.0000 C   0  0  0  0  0  0  0  0  0  0  0  0
    6.4501   -0.7559    0.0000 C   0  0  0  0  0  0  0  0  0  0  0  0
    2.0690   -6.3488    0.0000 C   0  0  0  0  0  0  0  0  0  0  0  0
    6.4082    1.2683    0.0000 C   0  0  0  0  0  0  0  0  0  0  0  0
    6.4044    2.2683    0.0000 C   0  0  0  0  0  0  0  0  0  0  0  0
    7.2685    2.7716    0.0000 C   0  0  0  0  0  0  0  0  0  0  0  0
    7.2646    3.7716    0.0000 C   0  0  0  0  0  0  0  0  0  0  0  0
    8.2280    5.2641    0.0000 C   0  0  0  0  0  0  0  0  0  0  0  0
    9.0381    3.8733    0.0000 C   0  0  0  0  0  0  0  0  0  0  0  0
    9.1990    5.4770    0.0000 C   0  0  0  0  0  0  0  0  0  0  0  0
    9.7023    4.6129    0.0000 C   0  0  0  0  0  0  0  0  0  0  0  0
    9.6956    6.3450    0.0000 C   0  0  0  0  0  0  0  0  0  0  0  0
   10.7023    4.6168    0.0000 C   0  0  0  0  0  0  0  0  0  0  0  0
   10.6956    6.3488    0.0000 C   0  0  0  0  0  0  0  0  0  0  0  0
   11.1990    5.4847    0.0000 C   0  0  0  0  0  0  0  0  0  0  0  0
    3.8066   -4.1543    0.0000 H   0  0  0  0  0  0  0  0  0  0  0  0
    3.8066   -1.4543    0.0000 H   0  0  0  0  0  0  0  0  0  0  0  0
    4.2675   -4.2792    0.0000 H   0  0  0  0  0  0  0  0  0  0  0  0
    5.0646   -4.2792    0.0000 H   0  0  0  0  0  0  0  0  0  0  0  0
    1.3891   -3.2190    0.0000 H   0  0  0  0  0  0  0  0  0  0  0  0
    1.7909   -3.9088    0.0000 H   0  0  0  0  0  0  0  0  0  0  0  0
    1.7909   -1.6998    0.0000 H   0  0  0  0  0  0  0  0  0  0  0  0
    1.3891   -2.3896    0.0000 H   0  0  0  0  0  0  0  0  0  0  0  0
    3.1364   -5.4190    0.0000 H   0  0  0  0  0  0  0  0  0  0  0  0
    3.5269   -4.7242    0.0000 H   0  0  0  0  0  0  0  0  0  0  0  0
    1.8387   -4.7688    0.0000 H   0  0  0  0  0  0  0  0  0  0  0  0
    1.4482   -5.4636    0.0000 H   0  0  0  0  0  0  0  0  0  0  0  0
    4.1095   -0.4590    0.0000 H   0  0  0  0  0  0  0  0  0  0  0  0
    6.9754   -2.1136    0.0000 H   0  0  0  0  0  0  0  0  0  0  0  0
    6.9882   -0.4479    0.0000 H   0  0  0  0  0  0  0  0  0  0  0  0
    1.4490   -6.3560    0.0000 H   0  0  0  0  0  0  0  0  0  0  0  0
    2.0762   -6.9688    0.0000 H   0  0  0  0  0  0  0  0  0  0  0  0
    2.6890   -6.3416    0.0000 H   0  0  0  0  0  0  0  0  0  0  0  0
    6.6226    0.6865    0.0000 H   0  0  0  0  0  0  0  0  0  0  0  0
    7.0184    1.3783    0.0000 H   0  0  0  0  0  0  0  0  0  0  0  0
    6.1901    2.8501    0.0000 H   0  0  0  0  0  0  0  0  0  0  0  0
    5.7942    2.1583    0.0000 H   0  0  0  0  0  0  0  0  0  0  0  0
    7.4828    2.1898    0.0000 H   0  0  0  0  0  0  0  0  0  0  0  0
    7.8786    2.8816    0.0000 H   0  0  0  0  0  0  0  0  0  0  0  0
    7.0503    4.3534    0.0000 H   0  0  0  0  0  0  0  0  0  0  0  0
    6.6545    3.6616    0.0000 H   0  0  0  0  0  0  0  0  0  0  0  0
    9.3836    6.8807    0.0000 H   0  0  0  0  0  0  0  0  0  0  0  0
   11.0144    4.0810    0.0000 H   0  0  0  0  0  0  0  0  0  0  0  0
   11.0035    6.8869    0.0000 H   0  0  0  0  0  0  0  0  0  0  0  0
   11.8189    5.4871    0.0000 H   0  0  0  0  0  0  0  0  0  0  0  0
  1  9  1  0  0  0  0
  1 13  1  0  0  0  0
  2 10  1  0  0  0  0
  2 15  1  0  0  0  0
  3 19  1  0  0  0  0
  3 22  1  0  0  0  0
  4 26  2  0  0  0  0
  5 27  2  0  0  0  0
  6  8  1  0  0  0  0
  6 11  1  0  0  0  0
  6 14  1  0  0  0  0
  7 25  1  0  0  0  0
  7 26  1  0  0  0  0
  7 27  1  0  0  0  0
  8  9  1  0  0  0  0
  8 10  1  0  0  0  0
  8 34  1  6  0  0  0
  9 12  1  0  0  0  0
  9 35  1  1  0  0  0
 10 36  1  0  0  0  0
 10 37  1  0  0  0  0
 11 13  1  0  0  0  0
 11 38  1  0  0  0  0
 11 39  1  0  0  0  0
 12 15  2  0  0  0  0
 12 17  1  0  0  0  0
 13 40  1  0  0  0  0
 13 41  1  0  0  0  0
 14 16  1  0  0  0  0
 14 42  1  0  0  0  0
 14 43  1  0  0  0  0
 15 18  1  0  0  0  0
 16 21  1  0  0  0  0
 16 44  1  0  0  0  0
 16 45  1  0  0  0  0
 17 19  2  0  0  0  0
 17 46  1  0  0  0  0
 18 20  2  0  0  0  0
 18 47  1  0  0  0  0
 19 20  1  0  0  0  0
 20 48  1  0  0  0  0
 21 49  1  0  0  0  0
 21 50  1  0  0  0  0
 21 51  1  0  0  0  0
 22 23  1  0  0  0  0
 22 52  1  0  0  0  0
 22 53  1  0  0  0  0
 23 24  1  0  0  0  0
 23 54  1  0  0  0  0
 23 55  1  0  0  0  0
 24 25  1  0  0  0  0
 24 56  1  0  0  0  0
 24 57  1  0  0  0  0
 25 58  1  0  0  0  0
 25 59  1  0  0  0  0
 26 28  1  0  0  0  0
 27 29  1  0  0  0  0
 28 29  1  0  0  0  0
 28 30  2  0  0  0  0
 29 31  2  0  0  0  0
 30 32  1  0  0  0  0
 30 60  1  0  0  0  0
 31 33  1  0  0  0  0
 31 61  1  0  0  0  0
 32 33  2  0  0  0  0
 32 62  1  0  0  0  0
 33 63  1  0  0  0  0
M  END
> <PUBCHEM_COMPOUND_CID>
155195441

> <PUBCHEM_COMPOUND_CANONICALIZED>
1

> <PUBCHEM_CACTVS_COMPLEXITY>
678

> <PUBCHEM_CACTVS_HBOND_ACCEPTOR>
6

> <PUBCHEM_CACTVS_HBOND_DONOR>
0

> <PUBCHEM_CACTVS_ROTATABLE_BOND>
8

> <PUBCHEM_CACTVS_SUBSKEYS>
AAADceB7OAAAAAAAAAAAAAAAAAAAAWAAAAA8aIEAAAAAAFixQAAAHgAAAAAADDzhmAYyBoMABACIAiFSEACCCAAkIAAIiAEODMgOJzKEtRuHOSjlxjGYqYf92LOOgQABAAAYAAACAAIAADAAAAAAAAAAAA==

> <PUBCHEM_IUPAC_OPENEYE_NAME>
2-[4-[[(4aR,10bR)-4-propyl-3,4a,5,10b-tetrahydro-2H-chromeno[4,3-b][1,4]oxazin-9-yl]oxy]butyl]isoindoline-1,3-dione

> <PUBCHEM_IUPAC_CAS_NAME>
2-[4-[[(4aR,10bR)-4-propyl-3,4a,5,10b-tetrahydro-2H-[1]benzopyrano[4,3-b][1,4]oxazin-9-yl]oxy]butyl]isoindole-1,3-dione

> <PUBCHEM_IUPAC_NAME_MARKUP>
2-[4-[[(4<I>a</I><I>R</I>,10<I>b</I><I>R</I>)-4-propyl-3,4<I>a</I>,5,10<I>b</I>-tetrahydro-2<I>H</I>-chromeno[4,3-b][1,4]oxazin-9-yl]oxy]butyl]isoindole-1,3-dione

> <PUBCHEM_IUPAC_NAME>
2-[4-[[(4aR,10bR)-4-propyl-3,4a,5,10b-tetrahydro-2H-chromeno[4,3-b][1,4]oxazin-9-yl]oxy]butyl]isoindole-1,3-dione

> <PUBCHEM_IUPAC_SYSTEMATIC_NAME>
2-[4-[[(4aR,10bR)-4-propyl-3,4a,5,10b-tetrahydro-2H-chromeno[4,3-b][1,4]oxazin-9-yl]oxy]butyl]isoindole-1,3-dione

> <PUBCHEM_IUPAC_TRADITIONAL_NAME>
2-[4-[[(4aR,10bR)-4-propyl-3,4a,5,10b-tetrahydro-2H-chromeno[4,3-b][1,4]oxazin-9-yl]oxy]butyl]isoindoline-1,3-quinone

> <PUBCHEM_IUPAC_INCHI>
InChI=1S/C26H30N2O5/c1-2-11-27-13-15-32-24-21-16-18(9-10-23(21)33-17-22(24)27)31-14-6-5-12-28-25(29)19-7-3-4-8-20(19)26(28)30/h3-4,7-10,16,22,24H,2,5-6,11-15,17H2,1H3/t22-,24-/m1/s1

> <PUBCHEM_IUPAC_INCHIKEY>
UPNHRBCDSZJKGL-ISKFKSNPSA-N

> <PUBCHEM_XLOGP3>
3.7

> <PUBCHEM_EXACT_MASS>
450.21547206

> <PUBCHEM_MOLECULAR_FORMULA>
C26H30N2O5

> <PUBCHEM_MOLECULAR_WEIGHT>
450.5

> <PUBCHEM_OPENEYE_CAN_SMILES>
CCCN1CCOC2C1COC3=C2C=C(C=C3)OCCCCN4C(=O)C5=CC=CC=C5C4=O

> <PUBCHEM_OPENEYE_ISO_SMILES>
CCCN1CCO[C@H]2[C@H]1COC3=C2C=C(C=C3)OCCCCN4C(=O)C5=CC=CC=C5C4=O

> <PUBCHEM_CACTVS_TPSA>
68.3

> <PUBCHEM_MONOISOTOPIC_WEIGHT>
450.21547206

> <PUBCHEM_TOTAL_CHARGE>
0

> <PUBCHEM_HEAVY_ATOM_COUNT>
33

> <PUBCHEM_ATOM_DEF_STEREO_COUNT>
2

> <PUBCHEM_ATOM_UDEF_STEREO_COUNT>
0

> <PUBCHEM_BOND_DEF_STEREO_COUNT>
0

> <PUBCHEM_BOND_UDEF_STEREO_COUNT>
0

> <PUBCHEM_ISOTOPIC_ATOM_COUNT>
0

> <PUBCHEM_COMPONENT_COUNT>
1

> <PUBCHEM_CACTVS_TAUTO_COUNT>
-1

> <PUBCHEM_COORDINATE_TYPE>
1
5
255

> <PUBCHEM_BONDANNOTATIONS>
12  15  8
12  17  8
15  18  8
17  19  8
18  20  8
19  20  8
28  29  8
28  30  8
29  31  8
30  32  8
31  33  8
32  33  8
8  34  6
9  35  5

$$$$
