44381424
  -OEChem-09292322192D

 51 54  0     1  0  0  0  0  0999 V2000
    4.7327    0.1943    0.0000 N   0  0  0  0  0  0  0  0  0  0  0  0
    3.8650    1.9963    0.0000 N   0  0  0  0  0  0  0  0  0  0  0  0
    5.6666   -2.8973    0.0000 N   0  0  0  0  0  0  0  0  0  0  0  0
    6.7901   -1.4884    0.0000 N   0  0  0  0  0  0  0  0  0  0  0  0
    5.1666   -0.7066    0.0000 C   0  0  2  0  0  0  0  0  0  0  0  0
    5.2961    1.0206    0.0000 C   0  0  0  0  0  0  0  0  0  0  0  0
    3.7355    0.2691    0.0000 C   0  0  0  0  0  0  0  0  0  0  0  0
    4.5431   -1.4884    0.0000 C   0  0  0  0  0  0  0  0  0  0  0  0
    4.8622    1.9216    0.0000 C   0  0  0  0  0  0  0  0  0  0  0  0
    3.3016    1.1700    0.0000 C   0  0  0  0  0  0  0  0  0  0  0  0
    6.1666   -0.7066    0.0000 C   0  0  0  0  0  0  0  0  0  0  0  0
    4.7656   -2.4634    0.0000 C   0  0  0  0  0  0  0  0  0  0  0  0
    3.4311    2.8972    0.0000 C   0  0  0  0  0  0  0  0  0  0  0  0
    6.5676   -2.4634    0.0000 C   0  0  0  0  0  0  0  0  0  0  0  0
    3.9944    3.7235    0.0000 C   0  0  0  0  0  0  0  0  0  0  0  0
    2.4339    2.9720    0.0000 C   0  0  0  0  0  0  0  0  0  0  0  0
    7.3494   -3.0869    0.0000 C   0  0  0  0  0  0  0  0  0  0  0  0
    3.5605    4.6245    0.0000 C   0  0  0  0  0  0  0  0  0  0  0  0
    2.0000    3.8730    0.0000 C   0  0  0  0  0  0  0  0  0  0  0  0
    2.5633    4.6992    0.0000 C   0  0  0  0  0  0  0  0  0  0  0  0
    7.2004   -4.0757    0.0000 C   0  0  0  0  0  0  0  0  0  0  0  0
    8.2803   -2.7215    0.0000 C   0  0  0  0  0  0  0  0  0  0  0  0
    7.9822   -4.6992    0.0000 C   0  0  0  0  0  0  0  0  0  0  0  0
    9.0621   -3.3450    0.0000 C   0  0  0  0  0  0  0  0  0  0  0  0
    8.9131   -4.3338    0.0000 C   0  0  0  0  0  0  0  0  0  0  0  0
    4.5505   -0.6372    0.0000 H   0  0  0  0  0  0  0  0  0  0  0  0
    5.7399    0.5877    0.0000 H   0  0  0  0  0  0  0  0  0  0  0  0
    5.7995    1.3825    0.0000 H   0  0  0  0  0  0  0  0  0  0  0  0
    3.1387    0.1012    0.0000 H   0  0  0  0  0  0  0  0  0  0  0  0
    3.7973   -0.3478    0.0000 H   0  0  0  0  0  0  0  0  0  0  0  0
    4.1566   -1.0037    0.0000 H   0  0  0  0  0  0  0  0  0  0  0  0
    3.9845   -1.7575    0.0000 H   0  0  0  0  0  0  0  0  0  0  0  0
    5.4590    2.0895    0.0000 H   0  0  0  0  0  0  0  0  0  0  0  0
    4.8004    2.5385    0.0000 H   0  0  0  0  0  0  0  0  0  0  0  0
    2.8578    1.6030    0.0000 H   0  0  0  0  0  0  0  0  0  0  0  0
    2.7982    0.8081    0.0000 H   0  0  0  0  0  0  0  0  0  0  0  0
    6.7252   -0.4376    0.0000 H   0  0  0  0  0  0  0  0  0  0  0  0
    6.0287   -0.1022    0.0000 H   0  0  0  0  0  0  0  0  0  0  0  0
    4.1456   -2.4634    0.0000 H   0  0  0  0  0  0  0  0  0  0  0  0
    4.6277   -3.0678    0.0000 H   0  0  0  0  0  0  0  0  0  0  0  0
    5.6666   -3.5173    0.0000 H   0  0  0  0  0  0  0  0  0  0  0  0
    4.6127    3.6772    0.0000 H   0  0  0  0  0  0  0  0  0  0  0  0
    2.0846    2.4597    0.0000 H   0  0  0  0  0  0  0  0  0  0  0  0
    3.9098    5.1367    0.0000 H   0  0  0  0  0  0  0  0  0  0  0  0
    1.3817    3.9193    0.0000 H   0  0  0  0  0  0  0  0  0  0  0  0
    2.2943    5.2578    0.0000 H   0  0  0  0  0  0  0  0  0  0  0  0
    6.6232   -4.3022    0.0000 H   0  0  0  0  0  0  0  0  0  0  0  0
    8.3727   -2.1084    0.0000 H   0  0  0  0  0  0  0  0  0  0  0  0
    7.8898   -5.3123    0.0000 H   0  0  0  0  0  0  0  0  0  0  0  0
    9.6393   -3.1185    0.0000 H   0  0  0  0  0  0  0  0  0  0  0  0
    9.3978   -4.7204    0.0000 H   0  0  0  0  0  0  0  0  0  0  0  0
  5  1  1  1  0  0  0
  1  6  1  0  0  0  0
  1  7  1  0  0  0  0
  2  9  1  0  0  0  0
  2 10  1  0  0  0  0
  2 13  1  0  0  0  0
  3 12  1  0  0  0  0
  3 14  1  0  0  0  0
  3 41  1  0  0  0  0
  4 11  1  0  0  0  0
  4 14  2  0  0  0  0
  5  8  1  0  0  0  0
  5 11  1  0  0  0  0
  5 26  1  0  0  0  0
  6  9  1  0  0  0  0
  6 27  1  0  0  0  0
  6 28  1  0  0  0  0
  7 10  1  0  0  0  0
  7 29  1  0  0  0  0
  7 30  1  0  0  0  0
  8 12  1  0  0  0  0
  8 31  1  0  0  0  0
  8 32  1  0  0  0  0
  9 33  1  0  0  0  0
  9 34  1  0  0  0  0
 10 35  1  0  0  0  0
 10 36  1  0  0  0  0
 11 37  1  0  0  0  0
 11 38  1  0  0  0  0
 12 39  1  0  0  0  0
 12 40  1  0  0  0  0
 13 15  2  0  0  0  0
 13 16  1  0  0  0  0
 14 17  1  0  0  0  0
 15 18  1  0  0  0  0
 15 42  1  0  0  0  0
 16 19  2  0  0  0  0
 16 43  1  0  0  0  0
 17 21  2  0  0  0  0
 17 22  1  0  0  0  0
 18 20  2  0  0  0  0
 18 44  1  0  0  0  0
 19 20  1  0  0  0  0
 19 45  1  0  0  0  0
 20 46  1  0  0  0  0
 21 23  1  0  0  0  0
 21 47  1  0  0  0  0
 22 24  2  0  0  0  0
 22 48  1  0  0  0  0
 23 25  2  0  0  0  0
 23 49  1  0  0  0  0
 24 25  1  0  0  0  0
 24 50  1  0  0  0  0
 25 51  1  0  0  0  0
M  END
> <PUBCHEM_COMPOUND_CID>
44381424

> <PUBCHEM_COMPOUND_CANONICALIZED>
1

> <PUBCHEM_CACTVS_COMPLEXITY>
429

> <PUBCHEM_CACTVS_HBOND_ACCEPTOR>
3

> <PUBCHEM_CACTVS_HBOND_DONOR>
1

> <PUBCHEM_CACTVS_ROTATABLE_BOND>
3

> <PUBCHEM_CACTVS_SUBSKEYS>
AAADceB7gAAAAAAAAAAAAAAAAAAAAAAAAAA8YIAABAAAAAABQAAAHAAQAAAADCjBGAQxwIPAAACgAiZiZACCAAEhAgAJiIAoZJgIYKLA2ZGUIAhgkADIyAcQgAAOAAAAAAAAAAAAAAAAAAAAAAAAAAAAAA==

> <PUBCHEM_IUPAC_OPENEYE_NAME>
(5R)-2-phenyl-5-(4-phenylpiperazin-1-yl)-4,5,6,7-tetrahydro-1H-1,3-diazepine

> <PUBCHEM_IUPAC_CAS_NAME>
(5R)-2-phenyl-5-(4-phenyl-1-piperazinyl)-4,5,6,7-tetrahydro-1H-1,3-diazepine

> <PUBCHEM_IUPAC_NAME_MARKUP>
(5<I>R</I>)-2-phenyl-5-(4-phenylpiperazin-1-yl)-4,5,6,7-tetrahydro-1<I>H</I>-1,3-diazepine

> <PUBCHEM_IUPAC_NAME>
(5R)-2-phenyl-5-(4-phenylpiperazin-1-yl)-4,5,6,7-tetrahydro-1H-1,3-diazepine

> <PUBCHEM_IUPAC_SYSTEMATIC_NAME>
(5R)-2-phenyl-5-(4-phenylpiperazin-1-yl)-4,5,6,7-tetrahydro-1H-1,3-diazepine

> <PUBCHEM_IUPAC_TRADITIONAL_NAME>
(5R)-2-phenyl-5-(4-phenylpiperazino)-4,5,6,7-tetrahydro-1H-1,3-diazepine

> <PUBCHEM_IUPAC_INCHI>
InChI=1S/C21H26N4/c1-3-7-18(8-4-1)21-22-12-11-20(17-23-21)25-15-13-24(14-16-25)19-9-5-2-6-10-19/h1-10,20H,11-17H2,(H,22,23)/t20-/m1/s1

> <PUBCHEM_IUPAC_INCHIKEY>
JCXPHDPIKCCHEL-HXUWFJFHSA-N

> <PUBCHEM_XLOGP3_AA>
2.9

> <PUBCHEM_EXACT_MASS>
334.21574685

> <PUBCHEM_MOLECULAR_FORMULA>
C21H26N4

> <PUBCHEM_MOLECULAR_WEIGHT>
334.5

> <PUBCHEM_OPENEYE_CAN_SMILES>
C1CNC(=NCC1N2CCN(CC2)C3=CC=CC=C3)C4=CC=CC=C4

> <PUBCHEM_OPENEYE_ISO_SMILES>
C1CNC(=NC[C@@H]1N2CCN(CC2)C3=CC=CC=C3)C4=CC=CC=C4

> <PUBCHEM_CACTVS_TPSA>
30.9

> <PUBCHEM_MONOISOTOPIC_WEIGHT>
334.21574685

> <PUBCHEM_TOTAL_CHARGE>
0

> <PUBCHEM_HEAVY_ATOM_COUNT>
25

> <PUBCHEM_ATOM_DEF_STEREO_COUNT>
1

> <PUBCHEM_ATOM_UDEF_STEREO_COUNT>
0

> <PUBCHEM_BOND_DEF_STEREO_COUNT>
0

> <PUBCHEM_BOND_UDEF_STEREO_COUNT>
0

> <PUBCHEM_ISOTOPIC_ATOM_COUNT>
0

> <PUBCHEM_COMPONENT_COUNT>
1

> <PUBCHEM_CACTVS_TAUTO_COUNT>
-1

> <PUBCHEM_COORDINATE_TYPE>
1
5
255

> <PUBCHEM_BONDANNOTATIONS>
5  1  5
13  15  8
13  16  8
15  18  8
16  19  8
17  21  8
17  22  8
18  20  8
19  20  8
21  23  8
22  24  8
23  25  8
24  25  8

$$$$
