44376918
  -OEChem-09292322212D

 49 52  0     1  0  0  0  0  0999 V2000
    4.5961   -0.5104    0.0000 O   0  0  0  0  0  0  0  0  0  0  0  0
    8.1282   -0.4829    0.0000 N   0  0  3  0  0  0  0  0  0  0  0  0
    9.8602    0.5171    0.0000 N   0  0  3  0  0  0  0  0  0  0  0  0
   10.7263    2.0171    0.0000 N   0  0  0  0  0  0  0  0  0  0  0  0
    8.1282    0.5171    0.0000 C   0  0  1  0  0  0  0  0  0  0  0  0
    6.3282   -0.5037    0.0000 C   0  0  1  0  0  0  0  0  0  0  0  0
    7.2342    1.0517    0.0000 C   0  0  0  0  0  0  0  0  0  0  0  0
    7.2342   -1.0176    0.0000 C   0  0  0  0  0  0  0  0  0  0  0  0
    6.3282    0.5379    0.0000 C   0  0  0  0  0  0  0  0  0  0  0  0
    8.9942    1.0171    0.0000 C   0  0  0  0  0  0  0  0  0  0  0  0
    8.9942   -0.9829    0.0000 C   0  0  0  0  0  0  0  0  0  0  0  0
    9.8602   -0.4829    0.0000 C   0  0  0  0  0  0  0  0  0  0  0  0
    5.4641   -1.0071    0.0000 C   0  0  0  0  0  0  0  0  0  0  0  0
   10.7263    1.0171    0.0000 C   0  0  0  0  0  0  0  0  0  0  0  0
   11.5923    0.5171    0.0000 C   0  0  0  0  0  0  0  0  0  0  0  0
    3.7320   -1.0138    0.0000 C   0  0  0  0  0  0  0  0  0  0  0  0
   12.4583    1.0171    0.0000 C   0  0  0  0  0  0  0  0  0  0  0  0
   11.5923    2.5171    0.0000 C   0  0  0  0  0  0  0  0  0  0  0  0
   12.4583    2.0171    0.0000 C   0  0  0  0  0  0  0  0  0  0  0  0
    3.7359   -2.0137    0.0000 C   0  0  0  0  0  0  0  0  0  0  0  0
    2.8641   -0.5171    0.0000 C   0  0  0  0  0  0  0  0  0  0  0  0
    2.8718   -2.5171    0.0000 C   0  0  0  0  0  0  0  0  0  0  0  0
    2.0000   -1.0204    0.0000 C   0  0  0  0  0  0  0  0  0  0  0  0
    2.0038   -2.0204    0.0000 C   0  0  0  0  0  0  0  0  0  0  0  0
    8.1347    1.3671    0.0000 H   0  0  0  0  0  0  0  0  0  0  0  0
    5.7906   -0.1948    0.0000 H   0  0  0  0  0  0  0  0  0  0  0  0
    7.6388    1.5215    0.0000 H   0  0  0  0  0  0  0  0  0  0  0  0
    6.8406    1.5308    0.0000 H   0  0  0  0  0  0  0  0  0  0  0  0
    6.8406   -1.4966    0.0000 H   0  0  0  0  0  0  0  0  0  0  0  0
    7.6388   -1.4874    0.0000 H   0  0  0  0  0  0  0  0  0  0  0  0
    6.1191    1.1216    0.0000 H   0  0  0  0  0  0  0  0  0  0  0  0
    5.7173    0.4318    0.0000 H   0  0  0  0  0  0  0  0  0  0  0  0
    9.3927    1.4920    0.0000 H   0  0  0  0  0  0  0  0  0  0  0  0
    8.5957    1.4920    0.0000 H   0  0  0  0  0  0  0  0  0  0  0  0
    8.5957   -1.4579    0.0000 H   0  0  0  0  0  0  0  0  0  0  0  0
    9.3927   -1.4579    0.0000 H   0  0  0  0  0  0  0  0  0  0  0  0
   10.0723   -1.0655    0.0000 H   0  0  0  0  0  0  0  0  0  0  0  0
   10.4708   -0.3753    0.0000 H   0  0  0  0  0  0  0  0  0  0  0  0
    5.0674   -1.4836    0.0000 H   0  0  0  0  0  0  0  0  0  0  0  0
    5.8644   -1.4805    0.0000 H   0  0  0  0  0  0  0  0  0  0  0  0
   11.5923   -0.1029    0.0000 H   0  0  0  0  0  0  0  0  0  0  0  0
   12.9952    0.7071    0.0000 H   0  0  0  0  0  0  0  0  0  0  0  0
   11.5923    3.1371    0.0000 H   0  0  0  0  0  0  0  0  0  0  0  0
   12.9952    2.3271    0.0000 H   0  0  0  0  0  0  0  0  0  0  0  0
    4.2740   -2.3217    0.0000 H   0  0  0  0  0  0  0  0  0  0  0  0
    2.8617    0.1029    0.0000 H   0  0  0  0  0  0  0  0  0  0  0  0
    2.8742   -3.1371    0.0000 H   0  0  0  0  0  0  0  0  0  0  0  0
    1.4619   -0.7125    0.0000 H   0  0  0  0  0  0  0  0  0  0  0  0
    1.4681   -2.3325    0.0000 H   0  0  0  0  0  0  0  0  0  0  0  0
  1 13  1  0  0  0  0
  1 16  1  0  0  0  0
  2  5  1  0  0  0  0
  2  8  1  0  0  0  0
  2 11  1  0  0  0  0
  3 10  1  0  0  0  0
  3 12  1  0  0  0  0
  3 14  1  0  0  0  0
  4 14  1  0  0  0  0
  4 18  2  0  0  0  0
  5  7  1  0  0  0  0
  5 10  1  0  0  0  0
  5 25  1  6  0  0  0
  6  8  1  0  0  0  0
  6  9  1  0  0  0  0
  6 13  1  6  0  0  0
  6 26  1  0  0  0  0
  7  9  1  0  0  0  0
  7 27  1  0  0  0  0
  7 28  1  0  0  0  0
  8 29  1  0  0  0  0
  8 30  1  0  0  0  0
  9 31  1  0  0  0  0
  9 32  1  0  0  0  0
 10 33  1  0  0  0  0
 10 34  1  0  0  0  0
 11 12  1  0  0  0  0
 11 35  1  0  0  0  0
 11 36  1  0  0  0  0
 12 37  1  0  0  0  0
 12 38  1  0  0  0  0
 13 39  1  0  0  0  0
 13 40  1  0  0  0  0
 14 15  2  0  0  0  0
 15 17  1  0  0  0  0
 15 41  1  0  0  0  0
 16 20  2  0  0  0  0
 16 21  1  0  0  0  0
 17 19  2  0  0  0  0
 17 42  1  0  0  0  0
 18 19  1  0  0  0  0
 18 43  1  0  0  0  0
 19 44  1  0  0  0  0
 20 22  1  0  0  0  0
 20 45  1  0  0  0  0
 21 23  2  0  0  0  0
 21 46  1  0  0  0  0
 22 24  2  0  0  0  0
 22 47  1  0  0  0  0
 23 24  1  0  0  0  0
 23 48  1  0  0  0  0
 24 49  1  0  0  0  0
M  END
> <PUBCHEM_COMPOUND_CID>
44376918

> <PUBCHEM_COMPOUND_CANONICALIZED>
1

> <PUBCHEM_CACTVS_COMPLEXITY>
385

> <PUBCHEM_CACTVS_HBOND_ACCEPTOR>
4

> <PUBCHEM_CACTVS_HBOND_DONOR>
0

> <PUBCHEM_CACTVS_ROTATABLE_BOND>
4

> <PUBCHEM_CACTVS_SUBSKEYS>
AAADceB7IAAAAAAAAAAAAAAAAAAAAAAAAAA8WLEAAAAAAACxwAAAHgAAAAAADSzhkgY9tpMIFACgADJnZACCiCkxIiAJ2CA+bJiMZuLEuZuWOCjuwBPI6CeQUAMMAAAAAAAAAAAAAAAAAAAAAAAAAAAAAA==

> <PUBCHEM_IUPAC_OPENEYE_NAME>
(7R,9aS)-7-(phenoxymethyl)-2-(2-pyridyl)-1,3,4,6,7,8,9,9a-octahydropyrido[1,2-a]pyrazine

> <PUBCHEM_IUPAC_CAS_NAME>
(7R,9aS)-7-(phenoxymethyl)-2-(2-pyridinyl)-1,3,4,6,7,8,9,9a-octahydropyrido[1,2-a]pyrazine

> <PUBCHEM_IUPAC_NAME_MARKUP>
(7<I>R</I>,9<I>a</I><I>S</I>)-7-(phenoxymethyl)-2-pyridin-2-yl-1,3,4,6,7,8,9,9<I>a</I>-octahydropyrido[1,2-a]pyrazine

> <PUBCHEM_IUPAC_NAME>
(7R,9aS)-7-(phenoxymethyl)-2-pyridin-2-yl-1,3,4,6,7,8,9,9a-octahydropyrido[1,2-a]pyrazine

> <PUBCHEM_IUPAC_SYSTEMATIC_NAME>
(7R,9aS)-7-(phenoxymethyl)-2-pyridin-2-yl-1,3,4,6,7,8,9,9a-octahydropyrido[1,2-a]pyrazine

> <PUBCHEM_IUPAC_TRADITIONAL_NAME>
(7R,9aS)-7-(phenoxymethyl)-2-(2-pyridyl)-1,3,4,6,7,8,9,9a-octahydropyrido[1,2-a]pyrazine

> <PUBCHEM_IUPAC_INCHI>
InChI=1S/C20H25N3O/c1-2-6-19(7-3-1)24-16-17-9-10-18-15-23(13-12-22(18)14-17)20-8-4-5-11-21-20/h1-8,11,17-18H,9-10,12-16H2/t17-,18+/m1/s1

> <PUBCHEM_IUPAC_INCHIKEY>
CFDPQJPZOGBUMP-MSOLQXFVSA-N

> <PUBCHEM_XLOGP3_AA>
3.6

> <PUBCHEM_EXACT_MASS>
323.199762429

> <PUBCHEM_MOLECULAR_FORMULA>
C20H25N3O

> <PUBCHEM_MOLECULAR_WEIGHT>
323.4

> <PUBCHEM_OPENEYE_CAN_SMILES>
C1CC2CN(CCN2CC1COC3=CC=CC=C3)C4=CC=CC=N4

> <PUBCHEM_OPENEYE_ISO_SMILES>
C1C[C@H]2CN(CCN2C[C@@H]1COC3=CC=CC=C3)C4=CC=CC=N4

> <PUBCHEM_CACTVS_TPSA>
28.6

> <PUBCHEM_MONOISOTOPIC_WEIGHT>
323.199762429

> <PUBCHEM_TOTAL_CHARGE>
0

> <PUBCHEM_HEAVY_ATOM_COUNT>
24

> <PUBCHEM_ATOM_DEF_STEREO_COUNT>
2

> <PUBCHEM_ATOM_UDEF_STEREO_COUNT>
0

> <PUBCHEM_BOND_DEF_STEREO_COUNT>
0

> <PUBCHEM_BOND_UDEF_STEREO_COUNT>
0

> <PUBCHEM_ISOTOPIC_ATOM_COUNT>
0

> <PUBCHEM_COMPONENT_COUNT>
1

> <PUBCHEM_CACTVS_TAUTO_COUNT>
-1

> <PUBCHEM_COORDINATE_TYPE>
1
5
255

> <PUBCHEM_BONDANNOTATIONS>
14  15  8
15  17  8
16  20  8
16  21  8
17  19  8
18  19  8
20  22  8
21  23  8
22  24  8
23  24  8
4  14  8
4  18  8
5  25  6
6  13  6

$$$$
