10472143
  -OEChem-09292322112D

 50 54  0     1  0  0  0  0  0999 V2000
    2.8496    0.9115    0.0000 O   0  0  0  0  0  0  0  0  0  0  0  0
    3.7098    2.4148    0.0000 N   0  0  0  0  0  0  0  0  0  0  0  0
    6.3817    0.9112    0.0000 N   0  0  3  0  0  0  0  0  0  0  0  0
    7.3698   -3.2789    0.0000 N   0  0  0  0  0  0  0  0  0  0  0  0
    3.0000    3.1192    0.0000 C   0  0  2  0  0  0  0  0  0  0  0  0
    4.4142    3.1246    0.0000 C   0  0  2  0  0  0  0  0  0  0  0  0
    3.7044    3.8290    0.0000 C   0  0  0  0  0  0  0  0  0  0  0  0
    4.5816    0.9182    0.0000 C   0  0  2  0  0  0  0  0  0  0  0  0
    6.3657   -0.1303    0.0000 C   0  0  3  0  0  0  0  0  0  0  0  0
    5.4837    1.4390    0.0000 C   0  0  0  0  0  0  0  0  0  0  0  0
    3.7137    1.4148    0.0000 C   0  0  0  0  0  0  0  0  0  0  0  0
    5.4996   -0.6303    0.0000 C   0  0  0  0  0  0  0  0  0  0  0  0
    7.2317   -0.6303    0.0000 C   0  0  0  0  0  0  0  0  0  0  0  0
    4.5896   -0.1234    0.0000 C   0  0  0  0  0  0  0  0  0  0  0  0
    2.0000    3.1153    0.0000 C   0  0  0  0  0  0  0  0  0  0  0  0
    5.4142    3.1285    0.0000 C   0  0  0  0  0  0  0  0  0  0  0  0
    5.4996   -1.6303    0.0000 C   0  0  0  0  0  0  0  0  0  0  0  0
    7.2317   -1.6303    0.0000 C   0  0  0  0  0  0  0  0  0  0  0  0
    6.3657   -2.1303    0.0000 C   0  0  0  0  0  0  0  0  0  0  0  0
    7.2535    1.4012    0.0000 C   0  0  0  0  0  0  0  0  0  0  0  0
    6.3817   -3.1718    0.0000 C   0  0  0  0  0  0  0  0  0  0  0  0
    7.8496   -2.4086    0.0000 C   0  0  0  0  0  0  0  0  0  0  0  0
    4.5896   -2.1371    0.0000 C   0  0  0  0  0  0  0  0  0  0  0  0
    5.4837   -3.6995    0.0000 C   0  0  0  0  0  0  0  0  0  0  0  0
    4.5816   -3.1787    0.0000 C   0  0  0  0  0  0  0  0  0  0  0  0
    2.7649    2.5455    0.0000 H   0  0  0  0  0  0  0  0  0  0  0  0
    4.6537    2.5528    0.0000 H   0  0  0  0  0  0  0  0  0  0  0  0
    4.1411    4.2691    0.0000 H   0  0  0  0  0  0  0  0  0  0  0  0
    3.2643    4.2657    0.0000 H   0  0  0  0  0  0  0  0  0  0  0  0
    4.5804    1.5382    0.0000 H   0  0  0  0  0  0  0  0  0  0  0  0
    6.9050    0.1756    0.0000 H   0  0  0  0  0  0  0  0  0  0  0  0
    5.8847    1.9119    0.0000 H   0  0  0  0  0  0  0  0  0  0  0  0
    5.0864    1.9150    0.0000 H   0  0  0  0  0  0  0  0  0  0  0  0
    7.8423   -0.7379    0.0000 H   0  0  0  0  0  0  0  0  0  0  0  0
    7.4438   -0.0477    0.0000 H   0  0  0  0  0  0  0  0  0  0  0  0
    4.0563   -0.4396    0.0000 H   0  0  0  0  0  0  0  0  0  0  0  0
    1.9976    3.7353    0.0000 H   0  0  0  0  0  0  0  0  0  0  0  0
    1.3800    3.1130    0.0000 H   0  0  0  0  0  0  0  0  0  0  0  0
    2.0024    2.4954    0.0000 H   0  0  0  0  0  0  0  0  0  0  0  0
    5.4166    2.5085    0.0000 H   0  0  0  0  0  0  0  0  0  0  0  0
    6.0342    3.1309    0.0000 H   0  0  0  0  0  0  0  0  0  0  0  0
    5.4118    3.7485    0.0000 H   0  0  0  0  0  0  0  0  0  0  0  0
    7.5573    0.8607    0.0000 H   0  0  0  0  0  0  0  0  0  0  0  0
    7.7940    1.7050    0.0000 H   0  0  0  0  0  0  0  0  0  0  0  0
    6.9497    1.9417    0.0000 H   0  0  0  0  0  0  0  0  0  0  0  0
    8.4675   -2.3569    0.0000 H   0  0  0  0  0  0  0  0  0  0  0  0
    4.0563   -1.8209    0.0000 H   0  0  0  0  0  0  0  0  0  0  0  0
    7.6558   -3.8290    0.0000 H   0  0  0  0  0  0  0  0  0  0  0  0
    5.4861   -4.3195    0.0000 H   0  0  0  0  0  0  0  0  0  0  0  0
    4.0435   -3.4866    0.0000 H   0  0  0  0  0  0  0  0  0  0  0  0
  1 11  2  0  0  0  0
  2  5  1  0  0  0  0
  2  6  1  0  0  0  0
  2 11  1  0  0  0  0
  3  9  1  0  0  0  0
  3 10  1  0  0  0  0
  3 20  1  0  0  0  0
  4 21  1  0  0  0  0
  4 22  1  0  0  0  0
  4 48  1  0  0  0  0
  5  7  1  0  0  0  0
  5 15  1  1  0  0  0
  5 26  1  0  0  0  0
  6  7  1  0  0  0  0
  6 16  1  6  0  0  0
  6 27  1  0  0  0  0
  7 28  1  0  0  0  0
  7 29  1  0  0  0  0
  8 10  1  0  0  0  0
  8 11  1  1  0  0  0
  8 14  1  0  0  0  0
  8 30  1  0  0  0  0
  9 12  1  0  0  0  0
  9 13  1  0  0  0  0
  9 31  1  0  0  0  0
 10 32  1  0  0  0  0
 10 33  1  0  0  0  0
 12 14  2  0  0  0  0
 12 17  1  0  0  0  0
 13 18  1  0  0  0  0
 13 34  1  0  0  0  0
 13 35  1  0  0  0  0
 14 36  1  0  0  0  0
 15 37  1  0  0  0  0
 15 38  1  0  0  0  0
 15 39  1  0  0  0  0
 16 40  1  0  0  0  0
 16 41  1  0  0  0  0
 16 42  1  0  0  0  0
 17 19  2  0  0  0  0
 17 23  1  0  0  0  0
 18 19  1  0  0  0  0
 18 22  2  0  0  0  0
 19 21  1  0  0  0  0
 20 43  1  0  0  0  0
 20 44  1  0  0  0  0
 20 45  1  0  0  0  0
 21 24  2  0  0  0  0
 22 46  1  0  0  0  0
 23 25  2  0  0  0  0
 23 47  1  0  0  0  0
 24 25  1  0  0  0  0
 24 49  1  0  0  0  0
 25 50  1  0  0  0  0
M  END
> <PUBCHEM_COMPOUND_CID>
10472143

> <PUBCHEM_COMPOUND_CANONICALIZED>
1

> <PUBCHEM_CACTVS_COMPLEXITY>
594

> <PUBCHEM_CACTVS_HBOND_ACCEPTOR>
2

> <PUBCHEM_CACTVS_HBOND_DONOR>
1

> <PUBCHEM_CACTVS_ROTATABLE_BOND>
1

> <PUBCHEM_CACTVS_SUBSKEYS>
AAADceB7IAAAAAAAAAAAAAAAAABYAWAAAAAwYIAAAAAAAFjB8AAAHgAQAAAADSjBngQ+wPPJkACoAzV3VACCgCAxAiAI2aE4ZJgIIOrA0ZGEIAhglgDIyAcQgMAOgAAAQAASAAAQAASAACQAAAAAAAAAAA==

> <PUBCHEM_IUPAC_OPENEYE_NAME>
[(2S,4S)-2,4-dimethylazetidin-1-yl]-[(9R)-7-methyl-6,6a,8,9-tetrahydro-4H-indolo[4,3-fg]quinolin-9-yl]methanone

> <PUBCHEM_IUPAC_CAS_NAME>
[(2S,4S)-2,4-dimethyl-1-azetidinyl]-[(9R)-7-methyl-6,6a,8,9-tetrahydro-4H-indolo[4,3-fg]quinolin-9-yl]methanone

> <PUBCHEM_IUPAC_NAME_MARKUP>
[(2<I>S</I>,4<I>S</I>)-2,4-dimethylazetidin-1-yl]-[(9<I>R</I>)-7-methyl-6,6<I>a</I>,8,9-tetrahydro-4<I>H</I>-indolo[4,3-fg]quinolin-9-yl]methanone

> <PUBCHEM_IUPAC_NAME>
[(2S,4S)-2,4-dimethylazetidin-1-yl]-[(9R)-7-methyl-6,6a,8,9-tetrahydro-4H-indolo[4,3-fg]quinolin-9-yl]methanone

> <PUBCHEM_IUPAC_SYSTEMATIC_NAME>
[(2S,4S)-2,4-dimethylazetidin-1-yl]-[(9R)-7-methyl-6,6a,8,9-tetrahydro-4H-indolo[4,3-fg]quinolin-9-yl]methanone

> <PUBCHEM_IUPAC_TRADITIONAL_NAME>
[(2S,4S)-2,4-dimethylazetidin-1-yl]-[(9R)-7-methyl-6,6a,8,9-tetrahydro-4H-indolo[4,3-fg]quinolin-9-yl]methanone

> <PUBCHEM_IUPAC_INCHI>
InChI=1S/C21H25N3O/c1-12-7-13(2)24(12)21(25)15-8-17-16-5-4-6-18-20(16)14(10-22-18)9-19(17)23(3)11-15/h4-6,8,10,12-13,15,19,22H,7,9,11H2,1-3H3/t12-,13-,15+,19?/m0/s1

> <PUBCHEM_IUPAC_INCHIKEY>
DUKNIHFTDAXJON-ORPLUIKVSA-N

> <PUBCHEM_XLOGP3>
3.2

> <PUBCHEM_EXACT_MASS>
335.199762429

> <PUBCHEM_MOLECULAR_FORMULA>
C21H25N3O

> <PUBCHEM_MOLECULAR_WEIGHT>
335.4

> <PUBCHEM_OPENEYE_CAN_SMILES>
CC1CC(N1C(=O)C2CN(C3CC4=CNC5=CC=CC(=C45)C3=C2)C)C

> <PUBCHEM_OPENEYE_ISO_SMILES>
C[C@H]1C[C@@H](N1C(=O)[C@H]2CN(C3CC4=CNC5=CC=CC(=C45)C3=C2)C)C

> <PUBCHEM_CACTVS_TPSA>
39.3

> <PUBCHEM_MONOISOTOPIC_WEIGHT>
335.199762429

> <PUBCHEM_TOTAL_CHARGE>
0

> <PUBCHEM_HEAVY_ATOM_COUNT>
25

> <PUBCHEM_ATOM_DEF_STEREO_COUNT>
3

> <PUBCHEM_ATOM_UDEF_STEREO_COUNT>
1

> <PUBCHEM_BOND_DEF_STEREO_COUNT>
0

> <PUBCHEM_BOND_UDEF_STEREO_COUNT>
0

> <PUBCHEM_ISOTOPIC_ATOM_COUNT>
0

> <PUBCHEM_COMPONENT_COUNT>
1

> <PUBCHEM_CACTVS_TAUTO_COUNT>
-1

> <PUBCHEM_COORDINATE_TYPE>
1
5
255

> <PUBCHEM_BONDANNOTATIONS>
17  19  8
17  23  8
18  19  8
18  22  8
19  21  8
21  24  8
23  25  8
24  25  8
4  21  8
4  22  8
5  15  5
6  16  6
8  11  5
9  13  3

$$$$
