45379373
  -OEChem-09292322482D

 36 40  0     1  0  0  0  0  0999 V2000
    5.8482    0.3137    0.0000 N   0  0  3  0  0  0  0  0  0  0  0  0
    2.6194    1.0185    0.0000 N   0  0  0  0  0  0  0  0  0  0  0  0
    4.9822   -0.1863    0.0000 C   0  0  3  0  0  0  0  0  0  0  0  0
    4.1162    0.3137    0.0000 C   0  0  0  0  0  0  0  0  0  0  0  0
    5.8482    1.3137    0.0000 C   0  0  0  0  0  0  0  0  0  0  0  0
    6.7582   -0.1931    0.0000 C   0  0  0  0  0  0  0  0  0  0  0  0
    4.9662   -1.2278    0.0000 C   0  0  0  0  0  0  0  0  0  0  0  0
    4.1162    1.3137    0.0000 C   0  0  0  0  0  0  0  0  0  0  0  0
    4.9822    1.8137    0.0000 C   0  0  0  0  0  0  0  0  0  0  0  0
    6.7663   -1.2347    0.0000 C   0  0  0  0  0  0  0  0  0  0  0  0
    5.8642   -1.7555    0.0000 C   0  0  0  0  0  0  0  0  0  0  0  0
    3.2062    1.8206    0.0000 C   0  0  0  0  0  0  0  0  0  0  0  0
    3.1332    0.1678    0.0000 C   0  0  0  0  0  0  0  0  0  0  0  0
    4.0142   -1.7484    0.0000 C   0  0  0  0  0  0  0  0  0  0  0  0
    4.9983    2.8552    0.0000 C   0  0  0  0  0  0  0  0  0  0  0  0
    5.8726   -2.8405    0.0000 C   0  0  0  0  0  0  0  0  0  0  0  0
    3.1982    2.8622    0.0000 C   0  0  0  0  0  0  0  0  0  0  0  0
    4.1002    3.3830    0.0000 C   0  0  0  0  0  0  0  0  0  0  0  0
    3.9975   -2.8333    0.0000 C   0  0  0  0  0  0  0  0  0  0  0  0
    4.9329   -3.3830    0.0000 C   0  0  0  0  0  0  0  0  0  0  0  0
    4.4429   -0.4921    0.0000 H   0  0  0  0  0  0  0  0  0  0  0  0
    6.4588    1.2061    0.0000 H   0  0  0  0  0  0  0  0  0  0  0  0
    6.0603    1.8963    0.0000 H   0  0  0  0  0  0  0  0  0  0  0  0
    7.3699   -0.2945    0.0000 H   0  0  0  0  0  0  0  0  0  0  0  0
    6.9628    0.3922    0.0000 H   0  0  0  0  0  0  0  0  0  0  0  0
    6.9798   -1.8168    0.0000 H   0  0  0  0  0  0  0  0  0  0  0  0
    7.3763   -1.1239    0.0000 H   0  0  0  0  0  0  0  0  0  0  0  0
    2.8690   -0.3932    0.0000 H   0  0  0  0  0  0  0  0  0  0  0  0
    2.0000    1.0459    0.0000 H   0  0  0  0  0  0  0  0  0  0  0  0
    3.4834   -1.4281    0.0000 H   0  0  0  0  0  0  0  0  0  0  0  0
    5.5388    3.1590    0.0000 H   0  0  0  0  0  0  0  0  0  0  0  0
    6.4107   -3.1484    0.0000 H   0  0  0  0  0  0  0  0  0  0  0  0
    2.6600    3.1701    0.0000 H   0  0  0  0  0  0  0  0  0  0  0  0
    4.1026    4.0030    0.0000 H   0  0  0  0  0  0  0  0  0  0  0  0
    3.4570   -3.1370    0.0000 H   0  0  0  0  0  0  0  0  0  0  0  0
    4.9305   -4.0030    0.0000 H   0  0  0  0  0  0  0  0  0  0  0  0
  1  3  1  0  0  0  0
  1  5  1  0  0  0  0
  1  6  1  0  0  0  0
  2 12  1  0  0  0  0
  2 13  1  0  0  0  0
  2 29  1  0  0  0  0
  3  4  1  0  0  0  0
  3  7  1  0  0  0  0
  3 21  1  0  0  0  0
  4  8  1  0  0  0  0
  4 13  2  0  0  0  0
  5  9  1  0  0  0  0
  5 22  1  0  0  0  0
  5 23  1  0  0  0  0
  6 10  1  0  0  0  0
  6 24  1  0  0  0  0
  6 25  1  0  0  0  0
  7 11  1  0  0  0  0
  7 14  2  0  0  0  0
  8  9  2  0  0  0  0
  8 12  1  0  0  0  0
  9 15  1  0  0  0  0
 10 11  1  0  0  0  0
 10 26  1  0  0  0  0
 10 27  1  0  0  0  0
 11 16  2  0  0  0  0
 12 17  2  0  0  0  0
 13 28  1  0  0  0  0
 14 19  1  0  0  0  0
 14 30  1  0  0  0  0
 15 18  2  0  0  0  0
 15 31  1  0  0  0  0
 16 20  1  0  0  0  0
 16 32  1  0  0  0  0
 17 18  1  0  0  0  0
 17 33  1  0  0  0  0
 18 34  1  0  0  0  0
 19 20  2  0  0  0  0
 19 35  1  0  0  0  0
 20 36  1  0  0  0  0
M  END
> <PUBCHEM_COMPOUND_CID>
45379373

> <PUBCHEM_COMPOUND_CANONICALIZED>
1

> <PUBCHEM_CACTVS_COMPLEXITY>
382

> <PUBCHEM_CACTVS_HBOND_ACCEPTOR>
1

> <PUBCHEM_CACTVS_HBOND_DONOR>
1

> <PUBCHEM_CACTVS_ROTATABLE_BOND>
0

> <PUBCHEM_CACTVS_SUBSKEYS>
AAADceB7AAAAAAAAAAAAAAAAAAAAAWAAAAA8eIEAAAAAAFix9AAAHAAQAAAADCjBHgQ8wPPJkACgAzRnRACCgCAxAiAI2aA4ZJgIIOLA0ZGEIAhgkADIyAcQgMAOgAAAQAASAAAAAACAACQAAAAAAAAAAA==

> <PUBCHEM_IUPAC_OPENEYE_NAME>
11,18-diazapentacyclo[11.6.1.02,11.03,8.017,20]icosa-1(19),3,5,7,13(20),14,16-heptaene

> <PUBCHEM_IUPAC_CAS_NAME>
11,18-diazapentacyclo[11.6.1.02,11.03,8.017,20]eicosa-1(19),3,5,7,13(20),14,16-heptaene

> <PUBCHEM_IUPAC_NAME_MARKUP>
11,18-diazapentacyclo[11.6.1.0<SUP>2,11</SUP>.0<SUP>3,8</SUP>.0<SUP>17,20</SUP>]icosa-1(19),3,5,7,13(20),14,16-heptaene

> <PUBCHEM_IUPAC_NAME>
11,18-diazapentacyclo[11.6.1.02,11.03,8.017,20]icosa-1(19),3,5,7,13(20),14,16-heptaene

> <PUBCHEM_IUPAC_SYSTEMATIC_NAME>
11,18-diazapentacyclo[11.6.1.02,11.03,8.017,20]icosa-1(19),3,5,7,13(20),14,16-heptaene

> <PUBCHEM_IUPAC_TRADITIONAL_NAME>
11,18-diazapentacyclo[11.6.1.02,11.03,8.017,20]eicosa-1(19),3,5,7,13(20),14,16-heptaene

> <PUBCHEM_IUPAC_INCHI>
InChI=1S/C18H16N2/c1-2-6-14-12(4-1)8-9-20-11-13-5-3-7-16-17(13)15(10-19-16)18(14)20/h1-7,10,18-19H,8-9,11H2

> <PUBCHEM_IUPAC_INCHIKEY>
VAGUGVHWYBXLRK-UHFFFAOYSA-N

> <PUBCHEM_XLOGP3_AA>
3.2

> <PUBCHEM_EXACT_MASS>
260.131348519

> <PUBCHEM_MOLECULAR_FORMULA>
C18H16N2

> <PUBCHEM_MOLECULAR_WEIGHT>
260.3

> <PUBCHEM_OPENEYE_CAN_SMILES>
C1CN2CC3=C4C(=CC=C3)NC=C4C2C5=CC=CC=C51

> <PUBCHEM_OPENEYE_ISO_SMILES>
C1CN2CC3=C4C(=CC=C3)NC=C4C2C5=CC=CC=C51

> <PUBCHEM_CACTVS_TPSA>
19

> <PUBCHEM_MONOISOTOPIC_WEIGHT>
260.131348519

> <PUBCHEM_TOTAL_CHARGE>
0

> <PUBCHEM_HEAVY_ATOM_COUNT>
20

> <PUBCHEM_ATOM_DEF_STEREO_COUNT>
0

> <PUBCHEM_ATOM_UDEF_STEREO_COUNT>
1

> <PUBCHEM_BOND_DEF_STEREO_COUNT>
0

> <PUBCHEM_BOND_UDEF_STEREO_COUNT>
0

> <PUBCHEM_ISOTOPIC_ATOM_COUNT>
0

> <PUBCHEM_COMPONENT_COUNT>
1

> <PUBCHEM_CACTVS_TAUTO_COUNT>
-1

> <PUBCHEM_COORDINATE_TYPE>
1
5
255

> <PUBCHEM_BONDANNOTATIONS>
11  16  8
12  17  8
14  19  8
15  18  8
16  20  8
17  18  8
19  20  8
2  12  8
2  13  8
3  7  3
4  13  8
4  8  8
7  11  8
7  14  8
8  12  8
8  9  8
9  15  8

$$$$
