44438210
  -OEChem-09292322262D

 55 59  0     0  0  0  0  0  0999 V2000
    8.8750   -0.5855    0.0000 O   0  0  0  0  0  0  0  0  0  0  0  0
    5.9674   -0.6873    0.0000 N   0  0  0  0  0  0  0  0  0  0  0  0
    4.6783   -3.4535    0.0000 N   0  0  0  0  0  0  0  0  0  0  0  0
    7.9244   -0.2749    0.0000 C   0  0  0  0  0  0  0  0  0  0  0  0
    7.6138   -1.2254    0.0000 C   0  0  0  0  0  0  0  0  0  0  0  0
    7.2566    0.4694    0.0000 C   0  0  0  0  0  0  0  0  0  0  0  0
    6.6353   -1.4316    0.0000 C   0  0  0  0  0  0  0  0  0  0  0  0
    6.2781    0.2632    0.0000 C   0  0  0  0  0  0  0  0  0  0  0  0
    8.6688    0.3930    0.0000 C   0  0  0  0  0  0  0  0  0  0  0  0
    4.9889   -0.8935    0.0000 C   0  0  0  0  0  0  0  0  0  0  0  0
    4.6783   -1.8441    0.0000 C   0  0  0  0  0  0  0  0  0  0  0  0
    8.4625    1.3715    0.0000 C   0  0  0  0  0  0  0  0  0  0  0  0
    9.6193    0.0823    0.0000 C   0  0  0  0  0  0  0  0  0  0  0  0
    3.7320   -2.1488    0.0000 C   0  0  0  0  0  0  0  0  0  0  0  0
    5.2619   -2.6488    0.0000 C   0  0  0  0  0  0  0  0  0  0  0  0
    9.2068    2.0393    0.0000 C   0  0  0  0  0  0  0  0  0  0  0  0
   10.3636    0.7501    0.0000 C   0  0  0  0  0  0  0  0  0  0  0  0
    3.7320   -3.1488    0.0000 C   0  0  0  0  0  0  0  0  0  0  0  0
   10.1574    1.7286    0.0000 C   0  0  0  0  0  0  0  0  0  0  0  0
    2.8660   -1.6488    0.0000 C   0  0  0  0  0  0  0  0  0  0  0  0
    2.8660   -3.6488    0.0000 C   0  0  0  0  0  0  0  0  0  0  0  0
   10.9017    2.3965    0.0000 C   0  0  0  0  0  0  0  0  0  0  0  0
    2.0000   -2.1488    0.0000 C   0  0  0  0  0  0  0  0  0  0  0  0
    2.0000   -3.1488    0.0000 C   0  0  0  0  0  0  0  0  0  0  0  0
   11.8522    2.0858    0.0000 C   0  0  0  0  0  0  0  0  0  0  0  0
   10.6954    3.3750    0.0000 C   0  0  0  0  0  0  0  0  0  0  0  0
   12.5965    2.7537    0.0000 C   0  0  0  0  0  0  0  0  0  0  0  0
   11.4397    4.0428    0.0000 C   0  0  0  0  0  0  0  0  0  0  0  0
   12.3903    3.7322    0.0000 C   0  0  0  0  0  0  0  0  0  0  0  0
    7.6344   -1.8451    0.0000 H   0  0  0  0  0  0  0  0  0  0  0  0
    8.2276   -1.3128    0.0000 H   0  0  0  0  0  0  0  0  0  0  0  0
    7.7830    0.7971    0.0000 H   0  0  0  0  0  0  0  0  0  0  0  0
    7.0254    1.0447    0.0000 H   0  0  0  0  0  0  0  0  0  0  0  0
    6.1089   -1.7593    0.0000 H   0  0  0  0  0  0  0  0  0  0  0  0
    6.8665   -2.0069    0.0000 H   0  0  0  0  0  0  0  0  0  0  0  0
    6.2575    0.8829    0.0000 H   0  0  0  0  0  0  0  0  0  0  0  0
    5.6643    0.3506    0.0000 H   0  0  0  0  0  0  0  0  0  0  0  0
    4.9684   -0.2739    0.0000 H   0  0  0  0  0  0  0  0  0  0  0  0
    4.3751   -0.8062    0.0000 H   0  0  0  0  0  0  0  0  0  0  0  0
    9.0028   -1.1922    0.0000 H   0  0  0  0  0  0  0  0  0  0  0  0
    7.8732    1.5641    0.0000 H   0  0  0  0  0  0  0  0  0  0  0  0
    9.7471   -0.5244    0.0000 H   0  0  0  0  0  0  0  0  0  0  0  0
    5.8819   -2.6488    0.0000 H   0  0  0  0  0  0  0  0  0  0  0  0
    9.0790    2.6460    0.0000 H   0  0  0  0  0  0  0  0  0  0  0  0
   10.9529    0.5575    0.0000 H   0  0  0  0  0  0  0  0  0  0  0  0
    4.8709   -4.0428    0.0000 H   0  0  0  0  0  0  0  0  0  0  0  0
    2.8660   -1.0288    0.0000 H   0  0  0  0  0  0  0  0  0  0  0  0
    2.8660   -4.2688    0.0000 H   0  0  0  0  0  0  0  0  0  0  0  0
    1.4631   -1.8388    0.0000 H   0  0  0  0  0  0  0  0  0  0  0  0
    1.4631   -3.4588    0.0000 H   0  0  0  0  0  0  0  0  0  0  0  0
   11.9800    1.4792    0.0000 H   0  0  0  0  0  0  0  0  0  0  0  0
   10.1061    3.5676    0.0000 H   0  0  0  0  0  0  0  0  0  0  0  0
   13.1858    2.5611    0.0000 H   0  0  0  0  0  0  0  0  0  0  0  0
   11.3119    4.6495    0.0000 H   0  0  0  0  0  0  0  0  0  0  0  0
   12.8517    4.1462    0.0000 H   0  0  0  0  0  0  0  0  0  0  0  0
  1  4  1  0  0  0  0
  1 40  1  0  0  0  0
  2  7  1  0  0  0  0
  2  8  1  0  0  0  0
  2 10  1  0  0  0  0
  3 15  1  0  0  0  0
  3 18  1  0  0  0  0
  3 46  1  0  0  0  0
  4  5  1  0  0  0  0
  4  6  1  0  0  0  0
  4  9  1  0  0  0  0
  5  7  1  0  0  0  0
  5 30  1  0  0  0  0
  5 31  1  0  0  0  0
  6  8  1  0  0  0  0
  6 32  1  0  0  0  0
  6 33  1  0  0  0  0
  7 34  1  0  0  0  0
  7 35  1  0  0  0  0
  8 36  1  0  0  0  0
  8 37  1  0  0  0  0
  9 12  2  0  0  0  0
  9 13  1  0  0  0  0
 10 11  1  0  0  0  0
 10 38  1  0  0  0  0
 10 39  1  0  0  0  0
 11 14  1  0  0  0  0
 11 15  2  0  0  0  0
 12 16  1  0  0  0  0
 12 41  1  0  0  0  0
 13 17  2  0  0  0  0
 13 42  1  0  0  0  0
 14 18  1  0  0  0  0
 14 20  2  0  0  0  0
 15 43  1  0  0  0  0
 16 19  2  0  0  0  0
 16 44  1  0  0  0  0
 17 19  1  0  0  0  0
 17 45  1  0  0  0  0
 18 21  2  0  0  0  0
 19 22  1  0  0  0  0
 20 23  1  0  0  0  0
 20 47  1  0  0  0  0
 21 24  1  0  0  0  0
 21 48  1  0  0  0  0
 22 25  2  0  0  0  0
 22 26  1  0  0  0  0
 23 24  2  0  0  0  0
 23 49  1  0  0  0  0
 24 50  1  0  0  0  0
 25 27  1  0  0  0  0
 25 51  1  0  0  0  0
 26 28  2  0  0  0  0
 26 52  1  0  0  0  0
 27 29  2  0  0  0  0
 27 53  1  0  0  0  0
 28 29  1  0  0  0  0
 28 54  1  0  0  0  0
 29 55  1  0  0  0  0
M  END
> <PUBCHEM_COMPOUND_CID>
44438210

> <PUBCHEM_COMPOUND_CANONICALIZED>
1

> <PUBCHEM_CACTVS_COMPLEXITY>
515

> <PUBCHEM_CACTVS_HBOND_ACCEPTOR>
2

> <PUBCHEM_CACTVS_HBOND_DONOR>
2

> <PUBCHEM_CACTVS_ROTATABLE_BOND>
4

> <PUBCHEM_CACTVS_SUBSKEYS>
AAADceB7IAAAAAAAAAAAAAAAAAAAAWAAAAA8YMEAAAAAAFgB9AAAHgAQCAAADEzBngQ8wPPJkgCgAzRnRACCgCAxAiAI2aA4bJgIJuLA0ZGEcAhm0AHI2AeQwPAOwAAAAAACAACAAAAAAAQAAAAAAAAAAA==

> <PUBCHEM_IUPAC_OPENEYE_NAME>
1-(1H-indol-3-ylmethyl)-4-(4-phenylphenyl)piperidin-4-ol

> <PUBCHEM_IUPAC_CAS_NAME>
1-(1H-indol-3-ylmethyl)-4-(4-phenylphenyl)-4-piperidinol

> <PUBCHEM_IUPAC_NAME_MARKUP>
1-(1<I>H</I>-indol-3-ylmethyl)-4-(4-phenylphenyl)piperidin-4-ol

> <PUBCHEM_IUPAC_NAME>
1-(1H-indol-3-ylmethyl)-4-(4-phenylphenyl)piperidin-4-ol

> <PUBCHEM_IUPAC_SYSTEMATIC_NAME>
1-(1H-indol-3-ylmethyl)-4-(4-phenylphenyl)piperidin-4-ol

> <PUBCHEM_IUPAC_TRADITIONAL_NAME>
1-(1H-indol-3-ylmethyl)-4-(4-phenylphenyl)piperidin-4-ol

> <PUBCHEM_IUPAC_INCHI>
InChI=1S/C26H26N2O/c29-26(23-12-10-21(11-13-23)20-6-2-1-3-7-20)14-16-28(17-15-26)19-22-18-27-25-9-5-4-8-24(22)25/h1-13,18,27,29H,14-17,19H2

> <PUBCHEM_IUPAC_INCHIKEY>
KEAJISWSTUQSFY-UHFFFAOYSA-N

> <PUBCHEM_XLOGP3_AA>
4.7

> <PUBCHEM_EXACT_MASS>
382.204513457

> <PUBCHEM_MOLECULAR_FORMULA>
C26H26N2O

> <PUBCHEM_MOLECULAR_WEIGHT>
382.5

> <PUBCHEM_OPENEYE_CAN_SMILES>
C1CN(CCC1(C2=CC=C(C=C2)C3=CC=CC=C3)O)CC4=CNC5=CC=CC=C54

> <PUBCHEM_OPENEYE_ISO_SMILES>
C1CN(CCC1(C2=CC=C(C=C2)C3=CC=CC=C3)O)CC4=CNC5=CC=CC=C54

> <PUBCHEM_CACTVS_TPSA>
39.3

> <PUBCHEM_MONOISOTOPIC_WEIGHT>
382.204513457

> <PUBCHEM_TOTAL_CHARGE>
0

> <PUBCHEM_HEAVY_ATOM_COUNT>
29

> <PUBCHEM_ATOM_DEF_STEREO_COUNT>
0

> <PUBCHEM_ATOM_UDEF_STEREO_COUNT>
0

> <PUBCHEM_BOND_DEF_STEREO_COUNT>
0

> <PUBCHEM_BOND_UDEF_STEREO_COUNT>
0

> <PUBCHEM_ISOTOPIC_ATOM_COUNT>
0

> <PUBCHEM_COMPONENT_COUNT>
1

> <PUBCHEM_CACTVS_TAUTO_COUNT>
-1

> <PUBCHEM_COORDINATE_TYPE>
1
5
255

> <PUBCHEM_BONDANNOTATIONS>
11  14  8
11  15  8
12  16  8
13  17  8
14  18  8
14  20  8
16  19  8
17  19  8
18  21  8
20  23  8
21  24  8
22  25  8
22  26  8
23  24  8
25  27  8
26  28  8
27  29  8
28  29  8
3  15  8
3  18  8
9  12  8
9  13  8

$$$$
