122177642
  -OEChem-09292322002D

 85 87  0     1  0  0  0  0  0999 V2000
    8.9282    8.8370    0.0000 O   0  0  0  0  0  0  0  0  0  0  0  0
    3.7320    2.8370    0.0000 O   0  0  0  0  0  0  0  0  0  0  0  0
    4.5981   -1.6630    0.0000 O   0  0  0  0  0  0  0  0  0  0  0  0
    2.8660   -0.6630    0.0000 O   0  0  0  0  0  0  0  0  0  0  0  0
    7.1962    6.8370    0.0000 N   0  0  3  0  0  0  0  0  0  0  0  0
    5.4641    2.8370    0.0000 N   0  0  0  0  0  0  0  0  0  0  0  0
    5.8301   -6.2019    0.0000 N   0  0  0  0  0  0  0  0  0  0  0  0
    7.1391   -5.2508    0.0000 N   0  0  0  0  0  0  0  0  0  0  0  0
    6.8301   -6.2019    0.0000 N   0  0  0  0  0  0  0  0  0  0  0  0
    8.0622    7.3370    0.0000 C   0  0  1  0  0  0  0  0  0  0  0  0
    7.1962    5.8370    0.0000 C   0  0  0  0  0  0  0  0  0  0  0  0
    8.9282    6.8370    0.0000 C   0  0  0  0  0  0  0  0  0  0  0  0
    6.3301    7.3370    0.0000 C   0  0  0  0  0  0  0  0  0  0  0  0
    8.0622    8.3370    0.0000 C   0  0  0  0  0  0  0  0  0  0  0  0
    6.3301    5.3370    0.0000 C   0  0  0  0  0  0  0  0  0  0  0  0
    6.3301    8.3370    0.0000 C   0  0  0  0  0  0  0  0  0  0  0  0
    6.3301    4.3370    0.0000 C   0  0  0  0  0  0  0  0  0  0  0  0
    9.7942    7.3370    0.0000 C   0  0  0  0  0  0  0  0  0  0  0  0
    9.7942    8.3370    0.0000 C   0  0  0  0  0  0  0  0  0  0  0  0
    5.4641    3.8370    0.0000 C   0  0  0  0  0  0  0  0  0  0  0  0
    5.4641    8.8370    0.0000 C   0  0  0  0  0  0  0  0  0  0  0  0
   10.6603    8.8370    0.0000 C   0  0  0  0  0  0  0  0  0  0  0  0
    4.5981    2.3370    0.0000 C   0  0  0  0  0  0  0  0  0  0  0  0
    4.5981    1.3370    0.0000 C   0  0  0  0  0  0  0  0  0  0  0  0
    6.3301   -3.6630    0.0000 C   0  0  0  0  0  0  0  0  0  0  0  0
    5.2423   -7.0109    0.0000 C   0  0  0  0  0  0  0  0  0  0  0  0
    5.4641   -3.1630    0.0000 C   0  0  0  0  0  0  0  0  0  0  0  0
    5.6491   -7.9244    0.0000 C   0  0  0  0  0  0  0  0  0  0  0  0
   11.5263    9.3370    0.0000 C   0  0  0  0  0  0  0  0  0  0  0  0
    3.7320    0.8370    0.0000 C   0  0  0  0  0  0  0  0  0  0  0  0
    6.3301   -4.6630    0.0000 C   0  0  0  0  0  0  0  0  0  0  0  0
    5.4641    0.8370    0.0000 C   0  0  0  0  0  0  0  0  0  0  0  0
    5.4641   -2.1630    0.0000 C   0  0  0  0  0  0  0  0  0  0  0  0
    5.0613   -8.7334    0.0000 C   0  0  0  0  0  0  0  0  0  0  0  0
    5.5211   -5.2508    0.0000 C   0  0  0  0  0  0  0  0  0  0  0  0
    4.5981   -0.6630    0.0000 C   0  0  0  0  0  0  0  0  0  0  0  0
    3.7320   -0.1630    0.0000 C   0  0  0  0  0  0  0  0  0  0  0  0
    5.4641   -0.1630    0.0000 C   0  0  0  0  0  0  0  0  0  0  0  0
    5.4680   -9.6470    0.0000 C   0  0  0  0  0  0  0  0  0  0  0  0
    2.0000   -0.1630    0.0000 C   0  0  0  0  0  0  0  0  0  0  0  0
    8.0622    6.7170    0.0000 H   0  0  0  0  0  0  0  0  0  0  0  0
    7.4082    5.2544    0.0000 H   0  0  0  0  0  0  0  0  0  0  0  0
    7.8067    5.9446    0.0000 H   0  0  0  0  0  0  0  0  0  0  0  0
    8.5297    6.3620    0.0000 H   0  0  0  0  0  0  0  0  0  0  0  0
    9.3267    6.3620    0.0000 H   0  0  0  0  0  0  0  0  0  0  0  0
    5.7196    7.4446    0.0000 H   0  0  0  0  0  0  0  0  0  0  0  0
    6.1181    6.7544    0.0000 H   0  0  0  0  0  0  0  0  0  0  0  0
    7.8501    8.9196    0.0000 H   0  0  0  0  0  0  0  0  0  0  0  0
    7.4516    8.2293    0.0000 H   0  0  0  0  0  0  0  0  0  0  0  0
    6.1181    5.9196    0.0000 H   0  0  0  0  0  0  0  0  0  0  0  0
    5.7196    5.2293    0.0000 H   0  0  0  0  0  0  0  0  0  0  0  0
    6.9407    8.2293    0.0000 H   0  0  0  0  0  0  0  0  0  0  0  0
    6.5422    8.9196    0.0000 H   0  0  0  0  0  0  0  0  0  0  0  0
    6.5422    3.7544    0.0000 H   0  0  0  0  0  0  0  0  0  0  0  0
    6.9407    4.4446    0.0000 H   0  0  0  0  0  0  0  0  0  0  0  0
   10.3312    7.0270    0.0000 H   0  0  0  0  0  0  0  0  0  0  0  0
    5.2520    4.4196    0.0000 H   0  0  0  0  0  0  0  0  0  0  0  0
    4.8535    3.7293    0.0000 H   0  0  0  0  0  0  0  0  0  0  0  0
    5.7741    9.3739    0.0000 H   0  0  0  0  0  0  0  0  0  0  0  0
    4.9272    9.1470    0.0000 H   0  0  0  0  0  0  0  0  0  0  0  0
    5.1541    8.3000    0.0000 H   0  0  0  0  0  0  0  0  0  0  0  0
    6.0010    2.5270    0.0000 H   0  0  0  0  0  0  0  0  0  0  0  0
    6.9407   -3.7707    0.0000 H   0  0  0  0  0  0  0  0  0  0  0  0
    6.5422   -3.0804    0.0000 H   0  0  0  0  0  0  0  0  0  0  0  0
    4.8116   -6.5649    0.0000 H   0  0  0  0  0  0  0  0  0  0  0  0
    4.7283   -7.3576    0.0000 H   0  0  0  0  0  0  0  0  0  0  0  0
    4.8535   -3.0553    0.0000 H   0  0  0  0  0  0  0  0  0  0  0  0
    5.2520   -3.7456    0.0000 H   0  0  0  0  0  0  0  0  0  0  0  0
    6.0798   -8.3704    0.0000 H   0  0  0  0  0  0  0  0  0  0  0  0
    6.1631   -7.5777    0.0000 H   0  0  0  0  0  0  0  0  0  0  0  0
   12.0632    9.6470    0.0000 H   0  0  0  0  0  0  0  0  0  0  0  0
    3.1951    1.1470    0.0000 H   0  0  0  0  0  0  0  0  0  0  0  0
    6.0010    1.1470    0.0000 H   0  0  0  0  0  0  0  0  0  0  0  0
    6.0747   -2.2707    0.0000 H   0  0  0  0  0  0  0  0  0  0  0  0
    5.6762   -1.5804    0.0000 H   0  0  0  0  0  0  0  0  0  0  0  0
    4.6306   -8.2874    0.0000 H   0  0  0  0  0  0  0  0  0  0  0  0
    4.5473   -9.0801    0.0000 H   0  0  0  0  0  0  0  0  0  0  0  0
    4.9315   -5.0592    0.0000 H   0  0  0  0  0  0  0  0  0  0  0  0
    6.0010   -0.4730    0.0000 H   0  0  0  0  0  0  0  0  0  0  0  0
    4.9016   -9.8992    0.0000 H   0  0  0  0  0  0  0  0  0  0  0  0
    5.7202  -10.2134    0.0000 H   0  0  0  0  0  0  0  0  0  0  0  0
    6.0344   -9.3948    0.0000 H   0  0  0  0  0  0  0  0  0  0  0  0
    2.3100    0.3739    0.0000 H   0  0  0  0  0  0  0  0  0  0  0  0
    1.4631    0.1470    0.0000 H   0  0  0  0  0  0  0  0  0  0  0  0
    1.6900   -0.7000    0.0000 H   0  0  0  0  0  0  0  0  0  0  0  0
  1 14  1  0  0  0  0
  1 19  1  0  0  0  0
  2 23  2  0  0  0  0
  3 33  1  0  0  0  0
  3 36  1  0  0  0  0
  4 37  1  0  0  0  0
  4 40  1  0  0  0  0
 10  5  1  6  0  0  0
  5 11  1  0  0  0  0
  5 13  1  0  0  0  0
  6 20  1  0  0  0  0
  6 23  1  0  0  0  0
  6 62  1  0  0  0  0
  7  9  1  0  0  0  0
  7 26  1  0  0  0  0
  7 35  1  0  0  0  0
  8  9  2  0  0  0  0
  8 31  1  0  0  0  0
 10 12  1  0  0  0  0
 10 14  1  0  0  0  0
 10 41  1  0  0  0  0
 11 15  1  0  0  0  0
 11 42  1  0  0  0  0
 11 43  1  0  0  0  0
 12 18  1  0  0  0  0
 12 44  1  0  0  0  0
 12 45  1  0  0  0  0
 13 16  1  0  0  0  0
 13 46  1  0  0  0  0
 13 47  1  0  0  0  0
 14 48  1  0  0  0  0
 14 49  1  0  0  0  0
 15 17  1  0  0  0  0
 15 50  1  0  0  0  0
 15 51  1  0  0  0  0
 16 21  1  0  0  0  0
 16 52  1  0  0  0  0
 16 53  1  0  0  0  0
 17 20  1  0  0  0  0
 17 54  1  0  0  0  0
 17 55  1  0  0  0  0
 18 19  2  0  0  0  0
 18 56  1  0  0  0  0
 19 22  1  0  0  0  0
 20 57  1  0  0  0  0
 20 58  1  0  0  0  0
 21 59  1  0  0  0  0
 21 60  1  0  0  0  0
 21 61  1  0  0  0  0
 22 29  3  0  0  0  0
 23 24  1  0  0  0  0
 24 30  2  0  0  0  0
 24 32  1  0  0  0  0
 25 27  1  0  0  0  0
 25 31  1  0  0  0  0
 25 63  1  0  0  0  0
 25 64  1  0  0  0  0
 26 28  1  0  0  0  0
 26 65  1  0  0  0  0
 26 66  1  0  0  0  0
 27 33  1  0  0  0  0
 27 67  1  0  0  0  0
 27 68  1  0  0  0  0
 28 34  1  0  0  0  0
 28 69  1  0  0  0  0
 28 70  1  0  0  0  0
 29 71  1  0  0  0  0
 30 37  1  0  0  0  0
 30 72  1  0  0  0  0
 31 35  2  0  0  0  0
 32 38  2  0  0  0  0
 32 73  1  0  0  0  0
 33 74  1  0  0  0  0
 33 75  1  0  0  0  0
 34 39  1  0  0  0  0
 34 76  1  0  0  0  0
 34 77  1  0  0  0  0
 35 78  1  0  0  0  0
 36 37  2  0  0  0  0
 36 38  1  0  0  0  0
 38 79  1  0  0  0  0
 39 80  1  0  0  0  0
 39 81  1  0  0  0  0
 39 82  1  0  0  0  0
 40 83  1  0  0  0  0
 40 84  1  0  0  0  0
 40 85  1  0  0  0  0
M  END
> <PUBCHEM_COMPOUND_CID>
122177642

> <PUBCHEM_COMPOUND_CANONICALIZED>
1

> <PUBCHEM_CACTVS_COMPLEXITY>
815

> <PUBCHEM_CACTVS_HBOND_ACCEPTOR>
7

> <PUBCHEM_CACTVS_HBOND_DONOR>
1

> <PUBCHEM_CACTVS_ROTATABLE_BOND>
19

> <PUBCHEM_CACTVS_SUBSKEYS>
AAADcfB7uAAAAAAAAAAAAAAAAAAAAWAAAAAwQAAAAAAAAAABwAAAHgAYAAAADCzhngY+hpPIBADqGzV3VACCDAQ1sgAY2IE+/MgPZjLEtRuXOSrk1hHa6Ye63BLOIAABAAAAQABAAAIAAACAAAAAAAAAAA==

> <PUBCHEM_IUPAC_OPENEYE_NAME>
4-[3-(1-butyltriazol-4-yl)propoxy]-N-[4-[[(3S)-6-ethynyl-3,4-dihydro-2H-pyran-3-yl]-propyl-amino]butyl]-3-methoxy-benzamide

> <PUBCHEM_IUPAC_CAS_NAME>
4-[3-(1-butyl-4-triazolyl)propoxy]-N-[4-[[(3S)-6-ethynyl-3,4-dihydro-2H-pyran-3-yl]-propylamino]butyl]-3-methoxybenzamide

> <PUBCHEM_IUPAC_NAME_MARKUP>
4-[3-(1-butyltriazol-4-yl)propoxy]-<I>N</I>-[4-[[(3<I>S</I>)-6-ethynyl-3,4-dihydro-2<I>H</I>-pyran-3-yl]-propylamino]butyl]-3-methoxybenzamide

> <PUBCHEM_IUPAC_NAME>
4-[3-(1-butyltriazol-4-yl)propoxy]-N-[4-[[(3S)-6-ethynyl-3,4-dihydro-2H-pyran-3-yl]-propylamino]butyl]-3-methoxybenzamide

> <PUBCHEM_IUPAC_SYSTEMATIC_NAME>
4-[3-(1-butyl-1,2,3-triazol-4-yl)propoxy]-N-[4-[[(3S)-6-ethynyl-3,4-dihydro-2H-pyran-3-yl]-propyl-amino]butyl]-3-methoxy-benzamide

> <PUBCHEM_IUPAC_TRADITIONAL_NAME>
4-[3-(1-butyltriazol-4-yl)propoxy]-N-[4-[[(3S)-6-ethynyl-3,4-dihydro-2H-pyran-3-yl]-propyl-amino]butyl]-3-methoxy-benzamide

> <PUBCHEM_IUPAC_INCHI>
InChI=1S/C31H45N5O4/c1-5-8-20-36-23-26(33-34-36)12-11-21-39-29-16-13-25(22-30(29)38-4)31(37)32-17-9-10-19-35(18-6-2)27-14-15-28(7-3)40-24-27/h3,13,15-16,22-23,27H,5-6,8-12,14,17-21,24H2,1-2,4H3,(H,32,37)/t27-/m0/s1

> <PUBCHEM_IUPAC_INCHIKEY>
XPMUUENUQYZASR-MHZLTWQESA-N

> <PUBCHEM_XLOGP3_AA>
5

> <PUBCHEM_EXACT_MASS>
551.34715493

> <PUBCHEM_MOLECULAR_FORMULA>
C31H45N5O4

> <PUBCHEM_MOLECULAR_WEIGHT>
551.7

> <PUBCHEM_OPENEYE_CAN_SMILES>
CCCCN1C=C(N=N1)CCCOC2=C(C=C(C=C2)C(=O)NCCCCN(CCC)C3CC=C(OC3)C#C)OC

> <PUBCHEM_OPENEYE_ISO_SMILES>
CCCCN1C=C(N=N1)CCCOC2=C(C=C(C=C2)C(=O)NCCCCN(CCC)[C@H]3CC=C(OC3)C#C)OC

> <PUBCHEM_CACTVS_TPSA>
90.7

> <PUBCHEM_MONOISOTOPIC_WEIGHT>
551.34715493

> <PUBCHEM_TOTAL_CHARGE>
0

> <PUBCHEM_HEAVY_ATOM_COUNT>
40

> <PUBCHEM_ATOM_DEF_STEREO_COUNT>
1

> <PUBCHEM_ATOM_UDEF_STEREO_COUNT>
0

> <PUBCHEM_BOND_DEF_STEREO_COUNT>
0

> <PUBCHEM_BOND_UDEF_STEREO_COUNT>
0

> <PUBCHEM_ISOTOPIC_ATOM_COUNT>
0

> <PUBCHEM_COMPONENT_COUNT>
1

> <PUBCHEM_CACTVS_TAUTO_COUNT>
-1

> <PUBCHEM_COORDINATE_TYPE>
1
5
255

> <PUBCHEM_BONDANNOTATIONS>
24  30  8
24  32  8
30  37  8
31  35  8
32  38  8
36  37  8
36  38  8
10  5  6
7  35  8
7  9  8
8  31  8
8  9  8

$$$$
