25156415
  -OEChem-09292322502D

 65 67  0     0  0  0  0  0  0999 V2000
    9.7942   -1.7500    0.0000 O   0  0  0  0  0  0  0  0  0  0  0  0
   14.1244    2.7500    0.0000 O   0  0  0  0  0  0  0  0  0  0  0  0
    4.5981   -1.7500    0.0000 N   0  0  0  0  0  0  0  0  0  0  0  0
    2.8660   -0.7500    0.0000 N   0  0  0  0  0  0  0  0  0  0  0  0
    4.5981   -0.7500    0.0000 C   0  0  0  0  0  0  0  0  0  0  0  0
    3.7320   -2.2500    0.0000 C   0  0  0  0  0  0  0  0  0  0  0  0
    3.7320   -0.2500    0.0000 C   0  0  0  0  0  0  0  0  0  0  0  0
    2.8660   -1.7500    0.0000 C   0  0  0  0  0  0  0  0  0  0  0  0
    5.4641   -2.2500    0.0000 C   0  0  0  0  0  0  0  0  0  0  0  0
    6.3301   -1.7500    0.0000 C   0  0  0  0  0  0  0  0  0  0  0  0
    7.1962   -2.2500    0.0000 C   0  0  0  0  0  0  0  0  0  0  0  0
    2.0000   -0.2500    0.0000 C   0  0  0  0  0  0  0  0  0  0  0  0
    8.0622   -1.7500    0.0000 C   0  0  0  0  0  0  0  0  0  0  0  0
    8.9282   -2.2500    0.0000 C   0  0  0  0  0  0  0  0  0  0  0  0
   10.6603   -2.2500    0.0000 C   0  0  0  0  0  0  0  0  0  0  0  0
   11.5263   -1.7500    0.0000 C   0  0  0  0  0  0  0  0  0  0  0  0
   11.5263   -0.7500    0.0000 C   0  0  0  0  0  0  0  0  0  0  0  0
   12.3923   -0.2500    0.0000 C   0  0  0  0  0  0  0  0  0  0  0  0
   10.6603   -3.2500    0.0000 C   0  0  0  0  0  0  0  0  0  0  0  0
   12.3923   -2.2500    0.0000 C   0  0  0  0  0  0  0  0  0  0  0  0
   12.3923    0.7500    0.0000 C   0  0  0  0  0  0  0  0  0  0  0  0
   11.5263   -3.7500    0.0000 C   0  0  0  0  0  0  0  0  0  0  0  0
   12.3923   -3.2500    0.0000 C   0  0  0  0  0  0  0  0  0  0  0  0
   13.2583    1.2500    0.0000 C   0  0  0  0  0  0  0  0  0  0  0  0
   11.5263    1.2500    0.0000 C   0  0  0  0  0  0  0  0  0  0  0  0
   13.2583    2.2500    0.0000 C   0  0  0  0  0  0  0  0  0  0  0  0
   11.5263    2.2500    0.0000 C   0  0  0  0  0  0  0  0  0  0  0  0
   12.3923    2.7500    0.0000 C   0  0  0  0  0  0  0  0  0  0  0  0
   14.1244    3.7500    0.0000 C   0  0  0  0  0  0  0  0  0  0  0  0
    5.2087   -0.8577    0.0000 H   0  0  0  0  0  0  0  0  0  0  0  0
    4.8101   -0.1674    0.0000 H   0  0  0  0  0  0  0  0  0  0  0  0
    3.3335   -2.7250    0.0000 H   0  0  0  0  0  0  0  0  0  0  0  0
    4.1306   -2.7250    0.0000 H   0  0  0  0  0  0  0  0  0  0  0  0
    4.1306    0.2249    0.0000 H   0  0  0  0  0  0  0  0  0  0  0  0
    3.3335    0.2249    0.0000 H   0  0  0  0  0  0  0  0  0  0  0  0
    2.2554   -1.6423    0.0000 H   0  0  0  0  0  0  0  0  0  0  0  0
    2.6540   -2.3326    0.0000 H   0  0  0  0  0  0  0  0  0  0  0  0
    5.0656   -2.7250    0.0000 H   0  0  0  0  0  0  0  0  0  0  0  0
    5.8626   -2.7250    0.0000 H   0  0  0  0  0  0  0  0  0  0  0  0
    6.7287   -1.2750    0.0000 H   0  0  0  0  0  0  0  0  0  0  0  0
    5.9316   -1.2750    0.0000 H   0  0  0  0  0  0  0  0  0  0  0  0
    6.7976   -2.7250    0.0000 H   0  0  0  0  0  0  0  0  0  0  0  0
    7.5947   -2.7250    0.0000 H   0  0  0  0  0  0  0  0  0  0  0  0
    2.3100    0.2869    0.0000 H   0  0  0  0  0  0  0  0  0  0  0  0
    1.4631    0.0600    0.0000 H   0  0  0  0  0  0  0  0  0  0  0  0
    1.6900   -0.7869    0.0000 H   0  0  0  0  0  0  0  0  0  0  0  0
    8.4607   -1.2750    0.0000 H   0  0  0  0  0  0  0  0  0  0  0  0
    7.6636   -1.2750    0.0000 H   0  0  0  0  0  0  0  0  0  0  0  0
    8.5297   -2.7250    0.0000 H   0  0  0  0  0  0  0  0  0  0  0  0
    9.3267   -2.7250    0.0000 H   0  0  0  0  0  0  0  0  0  0  0  0
   11.3142   -0.1674    0.0000 H   0  0  0  0  0  0  0  0  0  0  0  0
   10.9157   -0.8577    0.0000 H   0  0  0  0  0  0  0  0  0  0  0  0
   12.6044   -0.8326    0.0000 H   0  0  0  0  0  0  0  0  0  0  0  0
   13.0029   -0.1423    0.0000 H   0  0  0  0  0  0  0  0  0  0  0  0
   10.1233   -3.5600    0.0000 H   0  0  0  0  0  0  0  0  0  0  0  0
   12.9292   -1.9400    0.0000 H   0  0  0  0  0  0  0  0  0  0  0  0
   11.5263   -4.3700    0.0000 H   0  0  0  0  0  0  0  0  0  0  0  0
   12.9292   -3.5600    0.0000 H   0  0  0  0  0  0  0  0  0  0  0  0
   13.7953    0.9400    0.0000 H   0  0  0  0  0  0  0  0  0  0  0  0
   10.9893    0.9400    0.0000 H   0  0  0  0  0  0  0  0  0  0  0  0
   10.9893    2.5600    0.0000 H   0  0  0  0  0  0  0  0  0  0  0  0
   12.3923    3.3700    0.0000 H   0  0  0  0  0  0  0  0  0  0  0  0
   14.7444    3.7500    0.0000 H   0  0  0  0  0  0  0  0  0  0  0  0
   14.1244    4.3700    0.0000 H   0  0  0  0  0  0  0  0  0  0  0  0
   13.5044    3.7500    0.0000 H   0  0  0  0  0  0  0  0  0  0  0  0
  1 14  1  0  0  0  0
  1 15  1  0  0  0  0
  2 26  1  0  0  0  0
  2 29  1  0  0  0  0
  3  5  1  0  0  0  0
  3  6  1  0  0  0  0
  3  9  1  0  0  0  0
  4  7  1  0  0  0  0
  4  8  1  0  0  0  0
  4 12  1  0  0  0  0
  5  7  1  0  0  0  0
  5 30  1  0  0  0  0
  5 31  1  0  0  0  0
  6  8  1  0  0  0  0
  6 32  1  0  0  0  0
  6 33  1  0  0  0  0
  7 34  1  0  0  0  0
  7 35  1  0  0  0  0
  8 36  1  0  0  0  0
  8 37  1  0  0  0  0
  9 10  1  0  0  0  0
  9 38  1  0  0  0  0
  9 39  1  0  0  0  0
 10 11  1  0  0  0  0
 10 40  1  0  0  0  0
 10 41  1  0  0  0  0
 11 13  1  0  0  0  0
 11 42  1  0  0  0  0
 11 43  1  0  0  0  0
 12 44  1  0  0  0  0
 12 45  1  0  0  0  0
 12 46  1  0  0  0  0
 13 14  1  0  0  0  0
 13 47  1  0  0  0  0
 13 48  1  0  0  0  0
 14 49  1  0  0  0  0
 14 50  1  0  0  0  0
 15 16  1  0  0  0  0
 15 19  2  0  0  0  0
 16 17  1  0  0  0  0
 16 20  2  0  0  0  0
 17 18  1  0  0  0  0
 17 51  1  0  0  0  0
 17 52  1  0  0  0  0
 18 21  1  0  0  0  0
 18 53  1  0  0  0  0
 18 54  1  0  0  0  0
 19 22  1  0  0  0  0
 19 55  1  0  0  0  0
 20 23  1  0  0  0  0
 20 56  1  0  0  0  0
 21 24  2  0  0  0  0
 21 25  1  0  0  0  0
 22 23  2  0  0  0  0
 22 57  1  0  0  0  0
 23 58  1  0  0  0  0
 24 26  1  0  0  0  0
 24 59  1  0  0  0  0
 25 27  2  0  0  0  0
 25 60  1  0  0  0  0
 26 28  2  0  0  0  0
 27 28  1  0  0  0  0
 27 61  1  0  0  0  0
 28 62  1  0  0  0  0
 29 63  1  0  0  0  0
 29 64  1  0  0  0  0
 29 65  1  0  0  0  0
M  END
> <PUBCHEM_COMPOUND_CID>
25156415

> <PUBCHEM_COMPOUND_CANONICALIZED>
1

> <PUBCHEM_CACTVS_COMPLEXITY>
425

> <PUBCHEM_CACTVS_HBOND_ACCEPTOR>
4

> <PUBCHEM_CACTVS_HBOND_DONOR>
0

> <PUBCHEM_CACTVS_ROTATABLE_BOND>
11

> <PUBCHEM_CACTVS_SUBSKEYS>
AAADcfB7MAAAAAAAAAAAAAAAAAAAAAAAAAA8YIAAAAAAAAABQAAAHgAAAAAADAThmAYyBoMABACAAiBCAAACCAAgIAAIiAAOCIgMZiKEsRqWOCCkwBGIqAeQ0PIOAAABAAAIAAAAAAIAABAAAAAAAAAAAA==

> <PUBCHEM_IUPAC_OPENEYE_NAME>
1-[5-[2-[2-(3-methoxyphenyl)ethyl]phenoxy]pentyl]-4-methyl-piperazine

> <PUBCHEM_IUPAC_CAS_NAME>
1-[5-[2-[2-(3-methoxyphenyl)ethyl]phenoxy]pentyl]-4-methylpiperazine

> <PUBCHEM_IUPAC_NAME_MARKUP>
1-[5-[2-[2-(3-methoxyphenyl)ethyl]phenoxy]pentyl]-4-methylpiperazine

> <PUBCHEM_IUPAC_NAME>
1-[5-[2-[2-(3-methoxyphenyl)ethyl]phenoxy]pentyl]-4-methylpiperazine

> <PUBCHEM_IUPAC_SYSTEMATIC_NAME>
1-[5-[2-[2-(3-methoxyphenyl)ethyl]phenoxy]pentyl]-4-methyl-piperazine

> <PUBCHEM_IUPAC_TRADITIONAL_NAME>
1-[5-[2-[2-(3-methoxyphenyl)ethyl]phenoxy]pentyl]-4-methyl-piperazine

> <PUBCHEM_IUPAC_INCHI>
InChI=1S/C25H36N2O2/c1-26-16-18-27(19-17-26)15-6-3-7-20-29-25-12-5-4-10-23(25)14-13-22-9-8-11-24(21-22)28-2/h4-5,8-12,21H,3,6-7,13-20H2,1-2H3

> <PUBCHEM_IUPAC_INCHIKEY>
LLXLPZBGURLCLX-UHFFFAOYSA-N

> <PUBCHEM_XLOGP3_AA>
5

> <PUBCHEM_EXACT_MASS>
396.277678395

> <PUBCHEM_MOLECULAR_FORMULA>
C25H36N2O2

> <PUBCHEM_MOLECULAR_WEIGHT>
396.6

> <PUBCHEM_OPENEYE_CAN_SMILES>
CN1CCN(CC1)CCCCCOC2=CC=CC=C2CCC3=CC(=CC=C3)OC

> <PUBCHEM_OPENEYE_ISO_SMILES>
CN1CCN(CC1)CCCCCOC2=CC=CC=C2CCC3=CC(=CC=C3)OC

> <PUBCHEM_CACTVS_TPSA>
24.9

> <PUBCHEM_MONOISOTOPIC_WEIGHT>
396.277678395

> <PUBCHEM_TOTAL_CHARGE>
0

> <PUBCHEM_HEAVY_ATOM_COUNT>
29

> <PUBCHEM_ATOM_DEF_STEREO_COUNT>
0

> <PUBCHEM_ATOM_UDEF_STEREO_COUNT>
0

> <PUBCHEM_BOND_DEF_STEREO_COUNT>
0

> <PUBCHEM_BOND_UDEF_STEREO_COUNT>
0

> <PUBCHEM_ISOTOPIC_ATOM_COUNT>
0

> <PUBCHEM_COMPONENT_COUNT>
1

> <PUBCHEM_CACTVS_TAUTO_COUNT>
-1

> <PUBCHEM_COORDINATE_TYPE>
1
5
255

> <PUBCHEM_BONDANNOTATIONS>
15  16  8
15  19  8
16  20  8
19  22  8
20  23  8
21  24  8
21  25  8
22  23  8
24  26  8
25  27  8
26  28  8
27  28  8

$$$$
