138671541
  -OEChem-09292322452D

 72 76  0     1  0  0  0  0  0999 V2000
   14.1413   -0.8694    0.0000 S   0  0  0  0  0  0  0  0  0  0  0  0
   17.7376   -3.3882    0.0000 F   0  0  0  0  0  0  0  0  0  0  0  0
    5.4956    0.8809    0.0000 O   0  0  0  0  0  0  0  0  0  0  0  0
   15.7289   -1.6662    0.0000 O   0  0  0  0  0  0  0  0  0  0  0  0
   11.0085   -1.6897    0.0000 N   0  0  3  0  0  0  0  0  0  0  0  0
    5.5043   -0.8511    0.0000 N   0  0  0  0  0  0  0  0  0  0  0  0
   14.1494   -2.4788    0.0000 N   0  0  0  0  0  0  0  0  0  0  0  0
    2.9880    2.3982    0.0000 N   0  0  0  0  0  0  0  0  0  0  0  0
    2.1862    1.8106    0.0000 N   0  0  0  0  0  0  0  0  0  0  0  0
    8.5042   -0.8362    0.0000 C   0  0  0  0  0  0  0  0  0  0  0  0
    8.0086   -1.7047    0.0000 C   0  0  0  0  0  0  0  0  0  0  0  0
    7.9999    0.0273    0.0000 C   0  0  0  0  0  0  0  0  0  0  0  0
    6.5043   -0.8462    0.0000 C   0  0  0  0  0  0  0  0  0  0  0  0
    7.0086   -1.7097    0.0000 C   0  0  0  0  0  0  0  0  0  0  0  0
    6.9999    0.0224    0.0000 C   0  0  0  0  0  0  0  0  0  0  0  0
    9.5042   -0.8312    0.0000 C   0  0  0  0  0  0  0  0  0  0  0  0
   10.0085   -1.6947    0.0000 C   0  0  0  0  0  0  0  0  0  0  0  0
   11.4379   -0.7866    0.0000 C   0  0  0  0  0  0  0  0  0  0  0  0
   11.4469   -2.5885    0.0000 C   0  0  0  0  0  0  0  0  0  0  0  0
   12.4117   -0.5592    0.0000 C   0  0  0  0  0  0  0  0  0  0  0  0
   12.4229   -2.8062    0.0000 C   0  0  0  0  0  0  0  0  0  0  0  0
    5.0000    0.0124    0.0000 C   0  0  0  0  0  0  0  0  0  0  0  0
   13.1966   -1.1788    0.0000 C   0  0  0  0  0  0  0  0  0  0  0  0
   13.2016   -2.1788    0.0000 C   0  0  0  0  0  0  0  0  0  0  0  0
    4.0000    0.0074    0.0000 C   0  0  0  0  0  0  0  0  0  0  0  0
    3.4957    0.8709    0.0000 C   0  0  0  0  0  0  0  0  0  0  0  0
   14.7290   -1.6712    0.0000 C   0  0  0  0  0  0  0  0  0  0  0  0
    3.5043   -0.8611    0.0000 C   0  0  0  0  0  0  0  0  0  0  0  0
    2.4957    0.8659    0.0000 C   0  0  0  0  0  0  0  0  0  0  0  0
    3.7957    1.8186    0.0000 C   0  0  0  0  0  0  0  0  0  0  0  0
    2.5043   -0.8661    0.0000 C   0  0  0  0  0  0  0  0  0  0  0  0
    2.0000   -0.0026    0.0000 C   0  0  0  0  0  0  0  0  0  0  0  0
   16.2333   -2.5297    0.0000 C   0  0  3  0  0  0  0  0  0  0  0  0
    2.9830    3.3982    0.0000 C   0  0  0  0  0  0  0  0  0  0  0  0
   17.2332   -2.5247    0.0000 C   0  0  0  0  0  0  0  0  0  0  0  0
   15.7376   -3.3982    0.0000 C   0  0  0  0  0  0  0  0  0  0  0  0
    8.8169   -1.3716    0.0000 H   0  0  0  0  0  0  0  0  0  0  0  0
    7.9040   -2.3158    0.0000 H   0  0  0  0  0  0  0  0  0  0  0  0
    8.5922   -1.9138    0.0000 H   0  0  0  0  0  0  0  0  0  0  0  0
    8.5815    0.2423    0.0000 H   0  0  0  0  0  0  0  0  0  0  0  0
    7.8892    0.6374    0.0000 H   0  0  0  0  0  0  0  0  0  0  0  0
    6.1916   -0.3108    0.0000 H   0  0  0  0  0  0  0  0  0  0  0  0
    6.4270   -1.9246    0.0000 H   0  0  0  0  0  0  0  0  0  0  0  0
    7.1193   -2.3197    0.0000 H   0  0  0  0  0  0  0  0  0  0  0  0
    7.1046    0.6335    0.0000 H   0  0  0  0  0  0  0  0  0  0  0  0
    6.4163    0.2315    0.0000 H   0  0  0  0  0  0  0  0  0  0  0  0
   10.0858   -0.6162    0.0000 H   0  0  0  0  0  0  0  0  0  0  0  0
    9.3935   -0.2212    0.0000 H   0  0  0  0  0  0  0  0  0  0  0  0
    9.4270   -1.9097    0.0000 H   0  0  0  0  0  0  0  0  0  0  0  0
   10.1192   -2.3048    0.0000 H   0  0  0  0  0  0  0  0  0  0  0  0
    5.1970   -1.3896    0.0000 H   0  0  0  0  0  0  0  0  0  0  0  0
   11.4348   -0.1666    0.0000 H   0  0  0  0  0  0  0  0  0  0  0  0
   10.8328   -0.6517    0.0000 H   0  0  0  0  0  0  0  0  0  0  0  0
   10.8431   -2.7295    0.0000 H   0  0  0  0  0  0  0  0  0  0  0  0
   11.4500   -3.2085    0.0000 H   0  0  0  0  0  0  0  0  0  0  0  0
   12.8945   -0.1703    0.0000 H   0  0  0  0  0  0  0  0  0  0  0  0
   12.1399   -0.0020    0.0000 H   0  0  0  0  0  0  0  0  0  0  0  0
   12.1567   -3.3661    0.0000 H   0  0  0  0  0  0  0  0  0  0  0  0
   12.9096   -3.1903    0.0000 H   0  0  0  0  0  0  0  0  0  0  0  0
    3.8170   -1.3965    0.0000 H   0  0  0  0  0  0  0  0  0  0  0  0
    4.3840    2.0142    0.0000 H   0  0  0  0  0  0  0  0  0  0  0  0
    2.1970   -1.4046    0.0000 H   0  0  0  0  0  0  0  0  0  0  0  0
    1.3800   -0.0057    0.0000 H   0  0  0  0  0  0  0  0  0  0  0  0
   16.5406   -1.9912    0.0000 H   0  0  0  0  0  0  0  0  0  0  0  0
    3.6030    3.4013    0.0000 H   0  0  0  0  0  0  0  0  0  0  0  0
    2.9800    4.0182    0.0000 H   0  0  0  0  0  0  0  0  0  0  0  0
    2.3631    3.3951    0.0000 H   0  0  0  0  0  0  0  0  0  0  0  0
   17.8148   -2.3098    0.0000 H   0  0  0  0  0  0  0  0  0  0  0  0
   17.1225   -1.9147    0.0000 H   0  0  0  0  0  0  0  0  0  0  0  0
   15.1991   -3.0909    0.0000 H   0  0  0  0  0  0  0  0  0  0  0  0
   15.4303   -3.9367    0.0000 H   0  0  0  0  0  0  0  0  0  0  0  0
   16.2761   -3.7055    0.0000 H   0  0  0  0  0  0  0  0  0  0  0  0
  1 23  1  0  0  0  0
  1 27  1  0  0  0  0
  2 35  1  0  0  0  0
  3 22  2  0  0  0  0
  4 27  1  0  0  0  0
  4 33  1  0  0  0  0
  5 17  1  0  0  0  0
  5 18  1  0  0  0  0
  5 19  1  0  0  0  0
  6 13  1  0  0  0  0
  6 22  1  0  0  0  0
  6 51  1  0  0  0  0
  7 24  1  0  0  0  0
  7 27  2  0  0  0  0
  8  9  1  0  0  0  0
  8 30  1  0  0  0  0
  8 34  1  0  0  0  0
  9 29  2  0  0  0  0
 10 11  1  0  0  0  0
 10 12  1  0  0  0  0
 10 16  1  0  0  0  0
 10 37  1  0  0  0  0
 11 14  1  0  0  0  0
 11 38  1  0  0  0  0
 11 39  1  0  0  0  0
 12 15  1  0  0  0  0
 12 40  1  0  0  0  0
 12 41  1  0  0  0  0
 13 14  1  0  0  0  0
 13 15  1  0  0  0  0
 13 42  1  0  0  0  0
 14 43  1  0  0  0  0
 14 44  1  0  0  0  0
 15 45  1  0  0  0  0
 15 46  1  0  0  0  0
 16 17  1  0  0  0  0
 16 47  1  0  0  0  0
 16 48  1  0  0  0  0
 17 49  1  0  0  0  0
 17 50  1  0  0  0  0
 18 20  1  0  0  0  0
 18 52  1  0  0  0  0
 18 53  1  0  0  0  0
 19 21  1  0  0  0  0
 19 54  1  0  0  0  0
 19 55  1  0  0  0  0
 20 23  1  0  0  0  0
 20 56  1  0  0  0  0
 20 57  1  0  0  0  0
 21 24  1  0  0  0  0
 21 58  1  0  0  0  0
 21 59  1  0  0  0  0
 22 25  1  0  0  0  0
 23 24  2  0  0  0  0
 25 26  1  0  0  0  0
 25 28  2  0  0  0  0
 26 29  1  0  0  0  0
 26 30  2  0  0  0  0
 28 31  1  0  0  0  0
 28 60  1  0  0  0  0
 29 32  1  0  0  0  0
 30 61  1  0  0  0  0
 31 32  2  0  0  0  0
 31 62  1  0  0  0  0
 32 63  1  0  0  0  0
 33 35  1  0  0  0  0
 33 36  1  0  0  0  0
 33 64  1  0  0  0  0
 34 65  1  0  0  0  0
 34 66  1  0  0  0  0
 34 67  1  0  0  0  0
 35 68  1  0  0  0  0
 35 69  1  0  0  0  0
 36 70  1  0  0  0  0
 36 71  1  0  0  0  0
 36 72  1  0  0  0  0
M  END
> <PUBCHEM_COMPOUND_CID>
138671541

> <PUBCHEM_COMPOUND_CANONICALIZED>
1

> <PUBCHEM_CACTVS_COMPLEXITY>
726

> <PUBCHEM_CACTVS_HBOND_ACCEPTOR>
7

> <PUBCHEM_CACTVS_HBOND_DONOR>
1

> <PUBCHEM_CACTVS_ROTATABLE_BOND>
8

> <PUBCHEM_CACTVS_SUBSKEYS>
AAADcfB7sQBAAAAAAAAAAAAAAAAAAWLAAAAwYAAABYAAAFix/AAAHwQYAAAADTzh3gY+wfPIFAiuAzV3VACS9KB1ijgY2LU4ZNgIILLg1dGMpQhgngDIyYcciICOgAAAQAASAAAQAACAACQAAAAAAAAAAA==

> <PUBCHEM_IUPAC_OPENEYE_NAME>
N-[4-[2-[2-(2-fluoro-1-methyl-ethoxy)-4,5,7,8-tetrahydrothiazolo[4,5-d]azepin-6-yl]ethyl]cyclohexyl]-2-methyl-indazole-4-carboxamide

> <PUBCHEM_IUPAC_CAS_NAME>
N-[4-[2-[2-(1-fluoropropan-2-yloxy)-4,5,7,8-tetrahydrothiazolo[4,5-d]azepin-6-yl]ethyl]cyclohexyl]-2-methyl-4-indazolecarboxamide

> <PUBCHEM_IUPAC_NAME_MARKUP>
<I>N</I>-[4-[2-[2-(1-fluoropropan-2-yloxy)-4,5,7,8-tetrahydro-[1,3]thiazolo[4,5-d]azepin-6-yl]ethyl]cyclohexyl]-2-methylindazole-4-carboxamide

> <PUBCHEM_IUPAC_NAME>
N-[4-[2-[2-(1-fluoropropan-2-yloxy)-4,5,7,8-tetrahydro-[1,3]thiazolo[4,5-d]azepin-6-yl]ethyl]cyclohexyl]-2-methylindazole-4-carboxamide

> <PUBCHEM_IUPAC_SYSTEMATIC_NAME>
N-[4-[2-[2-(1-fluoranylpropan-2-yloxy)-4,5,7,8-tetrahydro-[1,3]thiazolo[4,5-d]azepin-6-yl]ethyl]cyclohexyl]-2-methyl-indazole-4-carboxamide

> <PUBCHEM_IUPAC_TRADITIONAL_NAME>
N-[4-[2-[2-(2-fluoro-1-methyl-ethoxy)-4,5,7,8-tetrahydrothiazol[4,5-d]azepin-6-yl]ethyl]cyclohexyl]-2-methyl-indazole-4-carboxamide

> <PUBCHEM_IUPAC_INCHI>
InChI=1S/C27H36FN5O2S/c1-18(16-28)35-27-30-24-11-14-33(15-12-25(24)36-27)13-10-19-6-8-20(9-7-19)29-26(34)21-4-3-5-23-22(21)17-32(2)31-23/h3-5,17-20H,6-16H2,1-2H3,(H,29,34)

> <PUBCHEM_IUPAC_INCHIKEY>
IJOUOSAAJUJMCV-UHFFFAOYSA-N

> <PUBCHEM_XLOGP3_AA>
4.9

> <PUBCHEM_EXACT_MASS>
513.25737474

> <PUBCHEM_MOLECULAR_FORMULA>
C27H36FN5O2S

> <PUBCHEM_MOLECULAR_WEIGHT>
513.7

> <PUBCHEM_OPENEYE_CAN_SMILES>
CC(CF)OC1=NC2=C(S1)CCN(CC2)CCC3CCC(CC3)NC(=O)C4=CC=CC5=NN(C=C54)C

> <PUBCHEM_OPENEYE_ISO_SMILES>
CC(CF)OC1=NC2=C(S1)CCN(CC2)CCC3CCC(CC3)NC(=O)C4=CC=CC5=NN(C=C54)C

> <PUBCHEM_CACTVS_TPSA>
101

> <PUBCHEM_MONOISOTOPIC_WEIGHT>
513.25737474

> <PUBCHEM_TOTAL_CHARGE>
0

> <PUBCHEM_HEAVY_ATOM_COUNT>
36

> <PUBCHEM_ATOM_DEF_STEREO_COUNT>
0

> <PUBCHEM_ATOM_UDEF_STEREO_COUNT>
1

> <PUBCHEM_BOND_DEF_STEREO_COUNT>
0

> <PUBCHEM_BOND_UDEF_STEREO_COUNT>
0

> <PUBCHEM_ISOTOPIC_ATOM_COUNT>
0

> <PUBCHEM_COMPONENT_COUNT>
1

> <PUBCHEM_CACTVS_TAUTO_COUNT>
-1

> <PUBCHEM_COORDINATE_TYPE>
1
5
255

> <PUBCHEM_BONDANNOTATIONS>
1  23  8
1  27  8
23  24  8
25  26  8
25  28  8
26  29  8
26  30  8
28  31  8
29  32  8
31  32  8
33  36  3
7  24  8
7  27  8
8  30  8
8  9  8
9  29  8

$$$$
