10736014
  -OEChem-09292322132D

 49 53  0     1  0  0  0  0  0999 V2000
    2.8602    1.0358    0.0000 O   0  0  0  0  0  0  0  0  0  0  0  0
    8.0648   -2.0157    0.0000 N   0  0  3  0  0  0  0  0  0  0  0  0
    7.2066   -1.5188    0.0000 C   0  0  1  0  0  0  0  0  0  0  0  0
    7.2066   -0.5188    0.0000 C   0  0  0  0  0  0  0  0  0  0  0  0
    6.3405   -2.0188    0.0000 C   0  0  0  0  0  0  0  0  0  0  0  0
    8.1166   -0.0119    0.0000 C   0  0  0  0  0  0  0  0  0  0  0  0
    8.9302   -1.5315    0.0000 C   0  0  0  0  0  0  0  0  0  0  0  0
    6.3405   -0.0188    0.0000 C   0  0  0  0  0  0  0  0  0  0  0  0
    8.9559   -0.5402    0.0000 C   0  0  0  0  0  0  0  0  0  0  0  0
    5.4745   -1.5188    0.0000 C   0  0  0  0  0  0  0  0  0  0  0  0
    5.4745   -0.5188    0.0000 C   0  0  0  0  0  0  0  0  0  0  0  0
    8.0574   -3.0157    0.0000 C   0  0  0  0  0  0  0  0  0  0  0  0
    8.1246    1.0297    0.0000 C   0  0  0  0  0  0  0  0  0  0  0  0
    6.3245    1.0227    0.0000 C   0  0  0  0  0  0  0  0  0  0  0  0
    4.5806    0.0159    0.0000 C   0  0  0  0  0  0  0  0  0  0  0  0
    4.5806   -2.0534    0.0000 C   0  0  0  0  0  0  0  0  0  0  0  0
    7.2225    1.5505    0.0000 C   0  0  0  0  0  0  0  0  0  0  0  0
    3.6745   -0.4980    0.0000 C   0  0  0  0  0  0  0  0  0  0  0  0
    3.6745   -1.5396    0.0000 C   0  0  0  0  0  0  0  0  0  0  0  0
    4.5921    1.0158    0.0000 C   0  0  0  0  0  0  0  0  0  0  0  0
    3.7319    1.5258    0.0000 C   0  0  0  0  0  0  0  0  0  0  0  0
    5.4639    1.5058    0.0000 C   0  0  0  0  0  0  0  0  0  0  0  0
    3.7435    2.5257    0.0000 C   0  0  0  0  0  0  0  0  0  0  0  0
    5.4754    2.5057    0.0000 C   0  0  0  0  0  0  0  0  0  0  0  0
    4.6152    3.0157    0.0000 C   0  0  0  0  0  0  0  0  0  0  0  0
    2.0000    1.5458    0.0000 C   0  0  0  0  0  0  0  0  0  0  0  0
    7.2060   -2.3688    0.0000 H   0  0  0  0  0  0  0  0  0  0  0  0
    5.9420   -2.4937    0.0000 H   0  0  0  0  0  0  0  0  0  0  0  0
    6.7390   -2.4937    0.0000 H   0  0  0  0  0  0  0  0  0  0  0  0
    9.1320   -2.1178    0.0000 H   0  0  0  0  0  0  0  0  0  0  0  0
    9.5430   -1.4372    0.0000 H   0  0  0  0  0  0  0  0  0  0  0  0
    9.5630   -0.6661    0.0000 H   0  0  0  0  0  0  0  0  0  0  0  0
    9.1876    0.0349    0.0000 H   0  0  0  0  0  0  0  0  0  0  0  0
    7.4374   -3.0111    0.0000 H   0  0  0  0  0  0  0  0  0  0  0  0
    8.0528   -3.6357    0.0000 H   0  0  0  0  0  0  0  0  0  0  0  0
    8.6774   -3.0203    0.0000 H   0  0  0  0  0  0  0  0  0  0  0  0
    8.6627    1.3376    0.0000 H   0  0  0  0  0  0  0  0  0  0  0  0
    5.7840    1.3265    0.0000 H   0  0  0  0  0  0  0  0  0  0  0  0
    4.5877   -2.6734    0.0000 H   0  0  0  0  0  0  0  0  0  0  0  0
    7.2201    2.1705    0.0000 H   0  0  0  0  0  0  0  0  0  0  0  0
    3.1388   -0.1859    0.0000 H   0  0  0  0  0  0  0  0  0  0  0  0
    3.1388   -1.8517    0.0000 H   0  0  0  0  0  0  0  0  0  0  0  0
    5.9972    1.1896    0.0000 H   0  0  0  0  0  0  0  0  0  0  0  0
    3.2102    2.8419    0.0000 H   0  0  0  0  0  0  0  0  0  0  0  0
    6.0159    2.8095    0.0000 H   0  0  0  0  0  0  0  0  0  0  0  0
    4.6224    3.6356    0.0000 H   0  0  0  0  0  0  0  0  0  0  0  0
    2.3162    2.0791    0.0000 H   0  0  0  0  0  0  0  0  0  0  0  0
    1.4667    1.8620    0.0000 H   0  0  0  0  0  0  0  0  0  0  0  0
    1.6838    1.0125    0.0000 H   0  0  0  0  0  0  0  0  0  0  0  0
  1 21  1  0  0  0  0
  1 26  1  0  0  0  0
  2  3  1  0  0  0  0
  2  7  1  0  0  0  0
  2 12  1  0  0  0  0
  3  4  1  0  0  0  0
  3  5  1  0  0  0  0
  3 27  1  1  0  0  0
  4  6  2  0  0  0  0
  4  8  1  0  0  0  0
  5 10  1  0  0  0  0
  5 28  1  0  0  0  0
  5 29  1  0  0  0  0
  6  9  1  0  0  0  0
  6 13  1  0  0  0  0
  7  9  1  0  0  0  0
  7 30  1  0  0  0  0
  7 31  1  0  0  0  0
  8 11  1  0  0  0  0
  8 14  2  0  0  0  0
  9 32  1  0  0  0  0
  9 33  1  0  0  0  0
 10 11  2  0  0  0  0
 10 16  1  0  0  0  0
 11 15  1  0  0  0  0
 12 34  1  0  0  0  0
 12 35  1  0  0  0  0
 12 36  1  0  0  0  0
 13 17  2  0  0  0  0
 13 37  1  0  0  0  0
 14 17  1  0  0  0  0
 14 38  1  0  0  0  0
 15 18  2  0  0  0  0
 15 20  1  0  0  0  0
 16 19  2  0  0  0  0
 16 39  1  0  0  0  0
 17 40  1  0  0  0  0
 18 19  1  0  0  0  0
 18 41  1  0  0  0  0
 19 42  1  0  0  0  0
 20 21  1  0  0  0  0
 20 22  2  0  0  0  0
 21 23  2  0  0  0  0
 22 24  1  0  0  0  0
 22 43  1  0  0  0  0
 23 25  1  0  0  0  0
 23 44  1  0  0  0  0
 24 25  2  0  0  0  0
 24 45  1  0  0  0  0
 25 46  1  0  0  0  0
 26 47  1  0  0  0  0
 26 48  1  0  0  0  0
 26 49  1  0  0  0  0
M  END
> <PUBCHEM_COMPOUND_CID>
10736014

> <PUBCHEM_COMPOUND_CANONICALIZED>
1

> <PUBCHEM_CACTVS_COMPLEXITY>
493

> <PUBCHEM_CACTVS_HBOND_ACCEPTOR>
2

> <PUBCHEM_CACTVS_HBOND_DONOR>
0

> <PUBCHEM_CACTVS_ROTATABLE_BOND>
2

> <PUBCHEM_CACTVS_SUBSKEYS>
AAADceB6IAAAAAAAAAAAAAAAAAAAAAAAAAA8YMGCAAAAAADxUAAAHgAAAAAADCzBmAYyBoMABACAAiBCAACCCAAgIAAIiAAODIgMJiKEsRuEMChkwBGIqAeQwPAOgAACAAAYAACQAASAADQAAAAAAAAAAA==

> <PUBCHEM_IUPAC_OPENEYE_NAME>
(6aR)-11-(2-methoxyphenyl)-6-methyl-5,6,6a,7-tetrahydro-4H-dibenzo[de,g]quinoline

> <PUBCHEM_IUPAC_CAS_NAME>
(6aR)-11-(2-methoxyphenyl)-6-methyl-5,6,6a,7-tetrahydro-4H-dibenzo[de,g]quinoline

> <PUBCHEM_IUPAC_NAME_MARKUP>
(6<I>a</I><I>R</I>)-11-(2-methoxyphenyl)-6-methyl-5,6,6<I>a</I>,7-tetrahydro-4<I>H</I>-dibenzo[de,g]quinoline

> <PUBCHEM_IUPAC_NAME>
(6aR)-11-(2-methoxyphenyl)-6-methyl-5,6,6a,7-tetrahydro-4H-dibenzo[de,g]quinoline

> <PUBCHEM_IUPAC_SYSTEMATIC_NAME>
(6aR)-11-(2-methoxyphenyl)-6-methyl-5,6,6a,7-tetrahydro-4H-dibenzo[de,g]quinoline

> <PUBCHEM_IUPAC_TRADITIONAL_NAME>
(6aR)-11-(2-methoxyphenyl)-6-methyl-5,6,6a,7-tetrahydro-4H-dibenzo[de,g]quinoline

> <PUBCHEM_IUPAC_INCHI>
InChI=1S/C24H23NO/c1-25-14-13-16-7-5-11-20-23-17(15-21(25)24(16)20)8-6-10-19(23)18-9-3-4-12-22(18)26-2/h3-12,21H,13-15H2,1-2H3/t21-/m1/s1

> <PUBCHEM_IUPAC_INCHIKEY>
LEQQCMUWPDWHHF-OAQYLSRUSA-N

> <PUBCHEM_XLOGP3_AA>
5.1

> <PUBCHEM_EXACT_MASS>
341.177964357

> <PUBCHEM_MOLECULAR_FORMULA>
C24H23NO

> <PUBCHEM_MOLECULAR_WEIGHT>
341.4

> <PUBCHEM_OPENEYE_CAN_SMILES>
CN1CCC2=C3C1CC4=C(C3=CC=C2)C(=CC=C4)C5=CC=CC=C5OC

> <PUBCHEM_OPENEYE_ISO_SMILES>
CN1CCC2=C3[C@H]1CC4=C(C3=CC=C2)C(=CC=C4)C5=CC=CC=C5OC

> <PUBCHEM_CACTVS_TPSA>
12.5

> <PUBCHEM_MONOISOTOPIC_WEIGHT>
341.177964357

> <PUBCHEM_TOTAL_CHARGE>
0

> <PUBCHEM_HEAVY_ATOM_COUNT>
26

> <PUBCHEM_ATOM_DEF_STEREO_COUNT>
1

> <PUBCHEM_ATOM_UDEF_STEREO_COUNT>
0

> <PUBCHEM_BOND_DEF_STEREO_COUNT>
0

> <PUBCHEM_BOND_UDEF_STEREO_COUNT>
0

> <PUBCHEM_ISOTOPIC_ATOM_COUNT>
0

> <PUBCHEM_COMPONENT_COUNT>
1

> <PUBCHEM_CACTVS_TAUTO_COUNT>
-1

> <PUBCHEM_COORDINATE_TYPE>
1
5
255

> <PUBCHEM_BONDANNOTATIONS>
10  11  8
10  16  8
11  15  8
13  17  8
14  17  8
15  18  8
16  19  8
18  19  8
20  21  8
20  22  8
21  23  8
22  24  8
23  25  8
24  25  8
3  27  5
4  6  8
4  8  8
6  13  8
8  14  8

$$$$
