9913988
  -OEChem-09292322312D

 68 73  0     0  0  0  0  0  0999 V2000
    9.2356   -6.0206    0.0000 F   0  0  0  0  0  0  0  0  0  0  0  0
   12.2844    4.0679    0.0000 O   0  0  0  0  0  0  0  0  0  0  0  0
    8.9250    2.2425    0.0000 N   0  0  0  0  0  0  0  0  0  0  0  0
    7.9930   -2.2186    0.0000 N   0  0  0  0  0  0  0  0  0  0  0  0
   10.5248    4.3497    0.0000 N   0  0  0  0  0  0  0  0  0  0  0  0
   11.4781    5.6571    0.0000 N   0  0  0  0  0  0  0  0  0  0  0  0
    3.4782   -1.9084    0.0000 N   0  0  0  0  0  0  0  0  0  0  0  0
    2.6691   -0.5071    0.0000 N   0  0  0  0  0  0  0  0  0  0  0  0
    2.5000   -2.1163    0.0000 N   0  0  0  0  0  0  0  0  0  0  0  0
    2.0000   -1.2502    0.0000 N   0  0  0  0  0  0  0  0  0  0  0  0
    8.3037    0.3414    0.0000 C   0  0  0  0  0  0  0  0  0  0  0  0
    7.6358    1.0857    0.0000 C   0  0  0  0  0  0  0  0  0  0  0  0
    9.2822    0.5476    0.0000 C   0  0  0  0  0  0  0  0  0  0  0  0
    7.9465    2.0362    0.0000 C   0  0  0  0  0  0  0  0  0  0  0  0
    9.5928    1.4982    0.0000 C   0  0  0  0  0  0  0  0  0  0  0  0
    7.9930   -0.6091    0.0000 C   0  0  0  0  0  0  0  0  0  0  0  0
    9.2356    3.1930    0.0000 C   0  0  0  0  0  0  0  0  0  0  0  0
    7.0468   -0.9138    0.0000 C   0  0  0  0  0  0  0  0  0  0  0  0
    8.5766   -1.4138    0.0000 C   0  0  0  0  0  0  0  0  0  0  0  0
   10.2142    3.3992    0.0000 C   0  0  0  0  0  0  0  0  0  0  0  0
    7.0468   -1.9138    0.0000 C   0  0  0  0  0  0  0  0  0  0  0  0
    6.1808   -0.4138    0.0000 C   0  0  0  0  0  0  0  0  0  0  0  0
    9.9384    5.1598    0.0000 C   0  0  0  0  0  0  0  0  0  0  0  0
    6.1808   -2.4138    0.0000 C   0  0  0  0  0  0  0  0  0  0  0  0
    5.3147   -0.9138    0.0000 C   0  0  0  0  0  0  0  0  0  0  0  0
    8.3037   -3.1691    0.0000 C   0  0  0  0  0  0  0  0  0  0  0  0
   10.5276    5.9678    0.0000 C   0  0  0  0  0  0  0  0  0  0  0  0
   11.4764    4.6571    0.0000 C   0  0  0  0  0  0  0  0  0  0  0  0
    5.3147   -1.9138    0.0000 C   0  0  0  0  0  0  0  0  0  0  0  0
    4.4487   -0.4138    0.0000 C   0  0  0  0  0  0  0  0  0  0  0  0
    9.2822   -3.3753    0.0000 C   0  0  0  0  0  0  0  0  0  0  0  0
    7.6358   -3.9134    0.0000 C   0  0  0  0  0  0  0  0  0  0  0  0
    3.5827   -0.9138    0.0000 C   0  0  0  0  0  0  0  0  0  0  0  0
    9.5928   -4.3258    0.0000 C   0  0  0  0  0  0  0  0  0  0  0  0
    7.9465   -4.8639    0.0000 C   0  0  0  0  0  0  0  0  0  0  0  0
    8.9250   -5.0701    0.0000 C   0  0  0  0  0  0  0  0  0  0  0  0
    2.0933   -3.0298    0.0000 C   0  0  0  0  0  0  0  0  0  0  0  0
    7.6970    0.2136    0.0000 H   0  0  0  0  0  0  0  0  0  0  0  0
    7.0889    1.3777    0.0000 H   0  0  0  0  0  0  0  0  0  0  0  0
    7.2533    0.5978    0.0000 H   0  0  0  0  0  0  0  0  0  0  0  0
    9.3027   -0.0720    0.0000 H   0  0  0  0  0  0  0  0  0  0  0  0
    9.8960    0.4603    0.0000 H   0  0  0  0  0  0  0  0  0  0  0  0
    7.9259    2.6559    0.0000 H   0  0  0  0  0  0  0  0  0  0  0  0
    7.3327    2.1236    0.0000 H   0  0  0  0  0  0  0  0  0  0  0  0
   10.1398    1.2061    0.0000 H   0  0  0  0  0  0  0  0  0  0  0  0
    9.9754    1.9861    0.0000 H   0  0  0  0  0  0  0  0  0  0  0  0
    9.2151    3.8126    0.0000 H   0  0  0  0  0  0  0  0  0  0  0  0
    8.6218    3.2803    0.0000 H   0  0  0  0  0  0  0  0  0  0  0  0
    9.1966   -1.4138    0.0000 H   0  0  0  0  0  0  0  0  0  0  0  0
   10.2347    2.7795    0.0000 H   0  0  0  0  0  0  0  0  0  0  0  0
   10.8280    3.3118    0.0000 H   0  0  0  0  0  0  0  0  0  0  0  0
    6.1808    0.2062    0.0000 H   0  0  0  0  0  0  0  0  0  0  0  0
    9.4784    5.5754    0.0000 H   0  0  0  0  0  0  0  0  0  0  0  0
    9.4770    4.7457    0.0000 H   0  0  0  0  0  0  0  0  0  0  0  0
    6.1808   -3.0338    0.0000 H   0  0  0  0  0  0  0  0  0  0  0  0
   10.7808    6.5337    0.0000 H   0  0  0  0  0  0  0  0  0  0  0  0
    9.9912    6.2787    0.0000 H   0  0  0  0  0  0  0  0  0  0  0  0
    4.7778   -2.2238    0.0000 H   0  0  0  0  0  0  0  0  0  0  0  0
   11.9804    6.0206    0.0000 H   0  0  0  0  0  0  0  0  0  0  0  0
    4.8472    0.0611    0.0000 H   0  0  0  0  0  0  0  0  0  0  0  0
    4.0502    0.0611    0.0000 H   0  0  0  0  0  0  0  0  0  0  0  0
    9.6962   -2.9138    0.0000 H   0  0  0  0  0  0  0  0  0  0  0  0
    7.0291   -3.7855    0.0000 H   0  0  0  0  0  0  0  0  0  0  0  0
   10.1995   -4.4537    0.0000 H   0  0  0  0  0  0  0  0  0  0  0  0
    7.5324   -5.3254    0.0000 H   0  0  0  0  0  0  0  0  0  0  0  0
    1.5269   -2.7776    0.0000 H   0  0  0  0  0  0  0  0  0  0  0  0
    1.8411   -3.5962    0.0000 H   0  0  0  0  0  0  0  0  0  0  0  0
    2.6597   -3.2820    0.0000 H   0  0  0  0  0  0  0  0  0  0  0  0
  1 36  1  0  0  0  0
  2 28  2  0  0  0  0
  3 14  1  0  0  0  0
  3 15  1  0  0  0  0
  3 17  1  0  0  0  0
  4 19  1  0  0  0  0
  4 21  1  0  0  0  0
  4 26  1  0  0  0  0
  5 20  1  0  0  0  0
  5 23  1  0  0  0  0
  5 28  1  0  0  0  0
  6 27  1  0  0  0  0
  6 28  1  0  0  0  0
  6 59  1  0  0  0  0
  7  9  1  0  0  0  0
  7 33  2  0  0  0  0
  8 10  2  0  0  0  0
  8 33  1  0  0  0  0
  9 10  1  0  0  0  0
  9 37  1  0  0  0  0
 11 12  1  0  0  0  0
 11 13  1  0  0  0  0
 11 16  1  0  0  0  0
 11 38  1  0  0  0  0
 12 14  1  0  0  0  0
 12 39  1  0  0  0  0
 12 40  1  0  0  0  0
 13 15  1  0  0  0  0
 13 41  1  0  0  0  0
 13 42  1  0  0  0  0
 14 43  1  0  0  0  0
 14 44  1  0  0  0  0
 15 45  1  0  0  0  0
 15 46  1  0  0  0  0
 16 18  1  0  0  0  0
 16 19  2  0  0  0  0
 17 20  1  0  0  0  0
 17 47  1  0  0  0  0
 17 48  1  0  0  0  0
 18 21  2  0  0  0  0
 18 22  1  0  0  0  0
 19 49  1  0  0  0  0
 20 50  1  0  0  0  0
 20 51  1  0  0  0  0
 21 24  1  0  0  0  0
 22 25  2  0  0  0  0
 22 52  1  0  0  0  0
 23 27  1  0  0  0  0
 23 53  1  0  0  0  0
 23 54  1  0  0  0  0
 24 29  2  0  0  0  0
 24 55  1  0  0  0  0
 25 29  1  0  0  0  0
 25 30  1  0  0  0  0
 26 31  2  0  0  0  0
 26 32  1  0  0  0  0
 27 56  1  0  0  0  0
 27 57  1  0  0  0  0
 29 58  1  0  0  0  0
 30 33  1  0  0  0  0
 30 60  1  0  0  0  0
 30 61  1  0  0  0  0
 31 34  1  0  0  0  0
 31 62  1  0  0  0  0
 32 35  2  0  0  0  0
 32 63  1  0  0  0  0
 34 36  2  0  0  0  0
 34 64  1  0  0  0  0
 35 36  1  0  0  0  0
 35 65  1  0  0  0  0
 37 66  1  0  0  0  0
 37 67  1  0  0  0  0
 37 68  1  0  0  0  0
M  END
> <PUBCHEM_COMPOUND_CID>
9913988

> <PUBCHEM_COMPOUND_CANONICALIZED>
1

> <PUBCHEM_CACTVS_COMPLEXITY>
774

> <PUBCHEM_CACTVS_HBOND_ACCEPTOR>
6

> <PUBCHEM_CACTVS_HBOND_DONOR>
1

> <PUBCHEM_CACTVS_ROTATABLE_BOND>
7

> <PUBCHEM_CACTVS_SUBSKEYS>
AAADceB74QAAAAAAAAAAAAAAAAAAAWLFgAA8YIAAAAAAAFgB/AAAHwAYAAAADQjBHww/0PfMEACqAzZndACSgCIxgiAc2KA4ZJiIYOLAkZGUIAhongLIyAcQgMAOiAACAAACAAAQAAQAAAQAAAAAAAAAAA==

> <PUBCHEM_IUPAC_OPENEYE_NAME>
1-[2-[4-[1-(4-fluorophenyl)-5-[(2-methyltetrazol-5-yl)methyl]indol-3-yl]-1-piperidyl]ethyl]imidazolidin-2-one

> <PUBCHEM_IUPAC_CAS_NAME>
1-[2-[4-[1-(4-fluorophenyl)-5-[(2-methyl-5-tetrazolyl)methyl]-3-indolyl]-1-piperidinyl]ethyl]-2-imidazolidinone

> <PUBCHEM_IUPAC_NAME_MARKUP>
1-[2-[4-[1-(4-fluorophenyl)-5-[(2-methyltetrazol-5-yl)methyl]indol-3-yl]piperidin-1-yl]ethyl]imidazolidin-2-one

> <PUBCHEM_IUPAC_NAME>
1-[2-[4-[1-(4-fluorophenyl)-5-[(2-methyltetrazol-5-yl)methyl]indol-3-yl]piperidin-1-yl]ethyl]imidazolidin-2-one

> <PUBCHEM_IUPAC_SYSTEMATIC_NAME>
1-[2-[4-[1-(4-fluorophenyl)-5-[(2-methyl-1,2,3,4-tetrazol-5-yl)methyl]indol-3-yl]piperidin-1-yl]ethyl]imidazolidin-2-one

> <PUBCHEM_IUPAC_TRADITIONAL_NAME>
1-[2-[4-[1-(4-fluorophenyl)-5-[(2-methyltetrazol-5-yl)methyl]indol-3-yl]piperidino]ethyl]-2-imidazolidinone

> <PUBCHEM_IUPAC_INCHI>
InChI=1S/C27H31FN8O/c1-33-31-26(30-32-33)17-19-2-7-25-23(16-19)24(18-36(25)22-5-3-21(28)4-6-22)20-8-11-34(12-9-20)14-15-35-13-10-29-27(35)37/h2-7,16,18,20H,8-15,17H2,1H3,(H,29,37)

> <PUBCHEM_IUPAC_INCHIKEY>
FGHKCRNDQSRICR-UHFFFAOYSA-N

> <PUBCHEM_XLOGP3_AA>
3.6

> <PUBCHEM_EXACT_MASS>
502.26048580

> <PUBCHEM_MOLECULAR_FORMULA>
C27H31FN8O

> <PUBCHEM_MOLECULAR_WEIGHT>
502.6

> <PUBCHEM_OPENEYE_CAN_SMILES>
CN1N=C(N=N1)CC2=CC3=C(C=C2)N(C=C3C4CCN(CC4)CCN5CCNC5=O)C6=CC=C(C=C6)F

> <PUBCHEM_OPENEYE_ISO_SMILES>
CN1N=C(N=N1)CC2=CC3=C(C=C2)N(C=C3C4CCN(CC4)CCN5CCNC5=O)C6=CC=C(C=C6)F

> <PUBCHEM_CACTVS_TPSA>
84.1

> <PUBCHEM_MONOISOTOPIC_WEIGHT>
502.26048580

> <PUBCHEM_TOTAL_CHARGE>
0

> <PUBCHEM_HEAVY_ATOM_COUNT>
37

> <PUBCHEM_ATOM_DEF_STEREO_COUNT>
0

> <PUBCHEM_ATOM_UDEF_STEREO_COUNT>
0

> <PUBCHEM_BOND_DEF_STEREO_COUNT>
0

> <PUBCHEM_BOND_UDEF_STEREO_COUNT>
0

> <PUBCHEM_ISOTOPIC_ATOM_COUNT>
0

> <PUBCHEM_COMPONENT_COUNT>
1

> <PUBCHEM_CACTVS_TAUTO_COUNT>
-1

> <PUBCHEM_COORDINATE_TYPE>
1
5
255

> <PUBCHEM_BONDANNOTATIONS>
16  18  8
16  19  8
18  21  8
18  22  8
21  24  8
22  25  8
24  29  8
25  29  8
26  31  8
26  32  8
31  34  8
32  35  8
34  36  8
35  36  8
4  19  8
4  21  8
7  33  8
7  9  8
8  10  8
8  33  8
9  10  8

$$$$
