44315535
  -OEChem-09292322502D

 48 50  0     0  0  0  0  0  0999 V2000
    4.7320    0.6830    0.0000 O   0  0  0  0  0  0  0  0  0  0  0  0
    3.8660   -2.8170    0.0000 N   0  0  0  0  0  0  0  0  0  0  0  0
    3.0000   -4.3170    0.0000 C   0  0  0  0  0  0  0  0  0  0  0  0
    2.5000   -5.1830    0.0000 C   0  0  0  0  0  0  0  0  0  0  0  0
    2.0000   -4.3170    0.0000 C   0  0  0  0  0  0  0  0  0  0  0  0
    3.8660   -3.8170    0.0000 C   0  0  0  0  0  0  0  0  0  0  0  0
    3.8660   -0.8170    0.0000 C   0  0  0  0  0  0  0  0  0  0  0  0
    3.0000   -2.3170    0.0000 C   0  0  0  0  0  0  0  0  0  0  0  0
    4.7320   -2.3170    0.0000 C   0  0  0  0  0  0  0  0  0  0  0  0
    3.0000   -1.3170    0.0000 C   0  0  0  0  0  0  0  0  0  0  0  0
    4.7320   -1.3170    0.0000 C   0  0  0  0  0  0  0  0  0  0  0  0
    3.8660    0.1830    0.0000 C   0  0  0  0  0  0  0  0  0  0  0  0
    4.7320    1.6830    0.0000 C   0  0  0  0  0  0  0  0  0  0  0  0
    5.5981    2.1830    0.0000 C   0  0  0  0  0  0  0  0  0  0  0  0
    5.5981    3.1830    0.0000 C   0  0  0  0  0  0  0  0  0  0  0  0
    6.4641    3.6830    0.0000 C   0  0  0  0  0  0  0  0  0  0  0  0
    6.4641    4.6830    0.0000 C   0  0  0  0  0  0  0  0  0  0  0  0
    7.3301    3.1830    0.0000 C   0  0  0  0  0  0  0  0  0  0  0  0
    7.3301    5.1830    0.0000 C   0  0  0  0  0  0  0  0  0  0  0  0
    8.1962    3.6830    0.0000 C   0  0  0  0  0  0  0  0  0  0  0  0
    8.1962    4.6830    0.0000 C   0  0  0  0  0  0  0  0  0  0  0  0
    3.4384   -4.7554    0.0000 H   0  0  0  0  0  0  0  0  0  0  0  0
    2.0250   -5.5815    0.0000 H   0  0  0  0  0  0  0  0  0  0  0  0
    2.9750   -5.5815    0.0000 H   0  0  0  0  0  0  0  0  0  0  0  0
    1.8923   -3.7064    0.0000 H   0  0  0  0  0  0  0  0  0  0  0  0
    1.4174   -4.5290    0.0000 H   0  0  0  0  0  0  0  0  0  0  0  0
    4.0781   -4.3996    0.0000 H   0  0  0  0  0  0  0  0  0  0  0  0
    4.4766   -3.7093    0.0000 H   0  0  0  0  0  0  0  0  0  0  0  0
    4.4030   -0.5070    0.0000 H   0  0  0  0  0  0  0  0  0  0  0  0
    2.3894   -2.2093    0.0000 H   0  0  0  0  0  0  0  0  0  0  0  0
    2.7880   -2.8996    0.0000 H   0  0  0  0  0  0  0  0  0  0  0  0
    4.9441   -2.8996    0.0000 H   0  0  0  0  0  0  0  0  0  0  0  0
    5.3426   -2.2093    0.0000 H   0  0  0  0  0  0  0  0  0  0  0  0
    2.7880   -0.7344    0.0000 H   0  0  0  0  0  0  0  0  0  0  0  0
    2.3894   -1.4246    0.0000 H   0  0  0  0  0  0  0  0  0  0  0  0
    5.3426   -1.4246    0.0000 H   0  0  0  0  0  0  0  0  0  0  0  0
    4.9441   -0.7344    0.0000 H   0  0  0  0  0  0  0  0  0  0  0  0
    3.6540    0.7656    0.0000 H   0  0  0  0  0  0  0  0  0  0  0  0
    3.2554    0.0754    0.0000 H   0  0  0  0  0  0  0  0  0  0  0  0
    4.5200    2.2656    0.0000 H   0  0  0  0  0  0  0  0  0  0  0  0
    4.1215    1.5754    0.0000 H   0  0  0  0  0  0  0  0  0  0  0  0
    6.1350    1.8730    0.0000 H   0  0  0  0  0  0  0  0  0  0  0  0
    5.0611    3.4930    0.0000 H   0  0  0  0  0  0  0  0  0  0  0  0
    5.9272    4.9930    0.0000 H   0  0  0  0  0  0  0  0  0  0  0  0
    7.3301    2.5630    0.0000 H   0  0  0  0  0  0  0  0  0  0  0  0
    7.3301    5.8030    0.0000 H   0  0  0  0  0  0  0  0  0  0  0  0
    8.7331    3.3730    0.0000 H   0  0  0  0  0  0  0  0  0  0  0  0
    8.7331    4.9930    0.0000 H   0  0  0  0  0  0  0  0  0  0  0  0
  1 12  1  0  0  0  0
  1 13  1  0  0  0  0
  2  6  1  0  0  0  0
  2  8  1  0  0  0  0
  2  9  1  0  0  0  0
  3  4  1  0  0  0  0
  3  5  1  0  0  0  0
  3  6  1  0  0  0  0
  3 22  1  0  0  0  0
  4  5  1  0  0  0  0
  4 23  1  0  0  0  0
  4 24  1  0  0  0  0
  5 25  1  0  0  0  0
  5 26  1  0  0  0  0
  6 27  1  0  0  0  0
  6 28  1  0  0  0  0
  7 10  1  0  0  0  0
  7 11  1  0  0  0  0
  7 12  1  0  0  0  0
  7 29  1  0  0  0  0
  8 10  1  0  0  0  0
  8 30  1  0  0  0  0
  8 31  1  0  0  0  0
  9 11  1  0  0  0  0
  9 32  1  0  0  0  0
  9 33  1  0  0  0  0
 10 34  1  0  0  0  0
 10 35  1  0  0  0  0
 11 36  1  0  0  0  0
 11 37  1  0  0  0  0
 12 38  1  0  0  0  0
 12 39  1  0  0  0  0
 13 14  1  0  0  0  0
 13 40  1  0  0  0  0
 13 41  1  0  0  0  0
 14 15  2  0  0  0  0
 14 42  1  0  0  0  0
 15 16  1  0  0  0  0
 15 43  1  0  0  0  0
 16 17  2  0  0  0  0
 16 18  1  0  0  0  0
 17 19  1  0  0  0  0
 17 44  1  0  0  0  0
 18 20  2  0  0  0  0
 18 45  1  0  0  0  0
 19 21  2  0  0  0  0
 19 46  1  0  0  0  0
 20 21  1  0  0  0  0
 20 47  1  0  0  0  0
 21 48  1  0  0  0  0
M  END
> <PUBCHEM_COMPOUND_CID>
44315535

> <PUBCHEM_COMPOUND_CANONICALIZED>
1

> <PUBCHEM_CACTVS_COMPLEXITY>
310

> <PUBCHEM_CACTVS_HBOND_ACCEPTOR>
2

> <PUBCHEM_CACTVS_HBOND_DONOR>
0

> <PUBCHEM_CACTVS_ROTATABLE_BOND>
7

> <PUBCHEM_CACTVS_SUBSKEYS>
AAADceB6IAAAAAAAAAAAAAAAGAAAAAAAAAA8QAAAAAAAAAABAAAAHgAAAAAADQDhmAYwAIMABACAAiBCAAACAAAgAAAIiAAIAIgIJCKAsRCGMAAkgACIqAcwgAAOAAAAAAAAAAAAAAAAAAAAAAAAAAAAAA==

> <PUBCHEM_IUPAC_OPENEYE_NAME>
4-[[(E)-cinnamyl]oxymethyl]-1-(cyclopropylmethyl)piperidine

> <PUBCHEM_IUPAC_CAS_NAME>
1-(cyclopropylmethyl)-4-[[(E)-3-phenylprop-2-enoxy]methyl]piperidine

> <PUBCHEM_IUPAC_NAME_MARKUP>
1-(cyclopropylmethyl)-4-[[(<I>E</I>)-3-phenylprop-2-enoxy]methyl]piperidine

> <PUBCHEM_IUPAC_NAME>
1-(cyclopropylmethyl)-4-[[(E)-3-phenylprop-2-enoxy]methyl]piperidine

> <PUBCHEM_IUPAC_SYSTEMATIC_NAME>
1-(cyclopropylmethyl)-4-[[(E)-3-phenylprop-2-enoxy]methyl]piperidine

> <PUBCHEM_IUPAC_TRADITIONAL_NAME>
4-[[(E)-cinnamyl]oxymethyl]-1-(cyclopropylmethyl)piperidine

> <PUBCHEM_IUPAC_INCHI>
InChI=1S/C19H27NO/c1-2-5-17(6-3-1)7-4-14-21-16-19-10-12-20(13-11-19)15-18-8-9-18/h1-7,18-19H,8-16H2/b7-4+

> <PUBCHEM_IUPAC_INCHIKEY>
DNANDHCZUHGSAX-QPJJXVBHSA-N

> <PUBCHEM_XLOGP3_AA>
3.7

> <PUBCHEM_EXACT_MASS>
285.209264485

> <PUBCHEM_MOLECULAR_FORMULA>
C19H27NO

> <PUBCHEM_MOLECULAR_WEIGHT>
285.4

> <PUBCHEM_OPENEYE_CAN_SMILES>
C1CC1CN2CCC(CC2)COCC=CC3=CC=CC=C3

> <PUBCHEM_OPENEYE_ISO_SMILES>
C1CC1CN2CCC(CC2)COC/C=C/C3=CC=CC=C3

> <PUBCHEM_CACTVS_TPSA>
12.5

> <PUBCHEM_MONOISOTOPIC_WEIGHT>
285.209264485

> <PUBCHEM_TOTAL_CHARGE>
0

> <PUBCHEM_HEAVY_ATOM_COUNT>
21

> <PUBCHEM_ATOM_DEF_STEREO_COUNT>
0

> <PUBCHEM_ATOM_UDEF_STEREO_COUNT>
0

> <PUBCHEM_BOND_DEF_STEREO_COUNT>
1

> <PUBCHEM_BOND_UDEF_STEREO_COUNT>
0

> <PUBCHEM_ISOTOPIC_ATOM_COUNT>
0

> <PUBCHEM_COMPONENT_COUNT>
1

> <PUBCHEM_CACTVS_TAUTO_COUNT>
-1

> <PUBCHEM_COORDINATE_TYPE>
1
5
255

> <PUBCHEM_BONDANNOTATIONS>
16  17  8
16  18  8
17  19  8
18  20  8
19  21  8
20  21  8

$$$$
