57394992
  -OEChem-09292322042D

 61 66  0     1  0  0  0  0  0999 V2000
    5.6998   -5.8374    0.0000 Cl  0  0  0  0  0  0  0  0  0  0  0  0
    7.0164    4.1149    0.0000 O   0  0  0  0  0  0  0  0  0  0  0  0
    4.5274    0.7851    0.0000 N   0  0  0  0  0  0  0  0  0  0  0  0
    5.6151    5.1330    0.0000 N   0  0  0  0  0  0  0  0  0  0  0  0
    7.9140   -2.4422    0.0000 N   0  0  0  0  0  0  0  0  0  0  0  0
    4.5274    2.7851    0.0000 C   0  0  0  0  0  0  0  0  0  0  0  0
    5.3364    3.3729    0.0000 C   0  0  0  0  0  0  0  0  0  0  0  0
    3.6613    2.2851    0.0000 C   0  0  0  0  0  0  0  0  0  0  0  0
    5.3934    2.2851    0.0000 C   0  0  0  0  0  0  0  0  0  0  0  0
    3.7183    3.3729    0.0000 C   0  0  0  0  0  0  0  0  0  0  0  0
    5.0274    4.3239    0.0000 C   0  0  2  0  0  0  0  0  0  0  0  0
    4.0274    4.3239    0.0000 C   0  0  0  0  0  0  0  0  0  0  0  0
    3.6613    1.2851    0.0000 C   0  0  0  0  0  0  0  0  0  0  0  0
    5.3934    1.2851    0.0000 C   0  0  0  0  0  0  0  0  0  0  0  0
    2.7029    3.1406    0.0000 C   0  0  0  0  0  0  0  0  0  0  0  0
    4.5274   -0.2149    0.0000 C   0  0  0  0  0  0  0  0  0  0  0  0
    3.3424    5.1087    0.0000 C   0  0  0  0  0  0  0  0  0  0  0  0
    2.0000    3.9093    0.0000 C   0  0  0  0  0  0  0  0  0  0  0  0
    2.3219    4.9000    0.0000 C   0  0  0  0  0  0  0  0  0  0  0  0
    5.3934   -0.7149    0.0000 C   0  0  0  0  0  0  0  0  0  0  0  0
    6.6097    5.0284    0.0000 C   0  0  0  0  0  0  0  0  0  0  0  0
    5.3974   -1.7565    0.0000 C   0  0  0  0  0  0  0  0  0  0  0  0
    6.2975   -0.1976    0.0000 C   0  0  0  0  0  0  0  0  0  0  0  0
    7.1974    5.8374    0.0000 C   0  0  0  0  0  0  0  0  0  0  0  0
    6.3054   -2.2669    0.0000 C   0  0  0  0  0  0  0  0  0  0  0  0
    7.1734   -1.7702    0.0000 C   0  0  0  0  0  0  0  0  0  0  0  0
    7.1935   -0.7288    0.0000 C   0  0  0  0  0  0  0  0  0  0  0  0
    6.5096   -3.2458    0.0000 C   0  0  0  0  0  0  0  0  0  0  0  0
    7.5037   -3.3542    0.0000 C   0  0  0  0  0  0  0  0  0  0  0  0
    5.8812   -4.0766    0.0000 C   0  0  0  0  0  0  0  0  0  0  0  0
    7.9383   -4.3008    0.0000 C   0  0  0  0  0  0  0  0  0  0  0  0
    6.2938   -5.0330    0.0000 C   0  0  0  0  0  0  0  0  0  0  0  0
    7.3293   -5.1458    0.0000 C   0  0  0  0  0  0  0  0  0  0  0  0
    5.6464    2.8359    0.0000 H   0  0  0  0  0  0  0  0  0  0  0  0
    5.9028    3.6250    0.0000 H   0  0  0  0  0  0  0  0  0  0  0  0
    3.4493    2.8677    0.0000 H   0  0  0  0  0  0  0  0  0  0  0  0
    3.0508    2.1774    0.0000 H   0  0  0  0  0  0  0  0  0  0  0  0
    6.0040    2.1774    0.0000 H   0  0  0  0  0  0  0  0  0  0  0  0
    5.6054    2.8677    0.0000 H   0  0  0  0  0  0  0  0  0  0  0  0
    5.6397    4.2269    0.0000 H   0  0  0  0  0  0  0  0  0  0  0  0
    3.0508    1.3928    0.0000 H   0  0  0  0  0  0  0  0  0  0  0  0
    3.4493    0.7025    0.0000 H   0  0  0  0  0  0  0  0  0  0  0  0
    5.6054    0.7025    0.0000 H   0  0  0  0  0  0  0  0  0  0  0  0
    6.0040    1.3928    0.0000 H   0  0  0  0  0  0  0  0  0  0  0  0
    2.5182    2.5488    0.0000 H   0  0  0  0  0  0  0  0  0  0  0  0
    5.3630    5.6994    0.0000 H   0  0  0  0  0  0  0  0  0  0  0  0
    3.9168   -0.1072    0.0000 H   0  0  0  0  0  0  0  0  0  0  0  0
    4.3153   -0.7975    0.0000 H   0  0  0  0  0  0  0  0  0  0  0  0
    3.5408    5.6961    0.0000 H   0  0  0  0  0  0  0  0  0  0  0  0
    1.3940    3.7781    0.0000 H   0  0  0  0  0  0  0  0  0  0  0  0
    1.9088    5.3623    0.0000 H   0  0  0  0  0  0  0  0  0  0  0  0
    4.8629   -2.0707    0.0000 H   0  0  0  0  0  0  0  0  0  0  0  0
    6.3022    0.4224    0.0000 H   0  0  0  0  0  0  0  0  0  0  0  0
    7.6990    5.4730    0.0000 H   0  0  0  0  0  0  0  0  0  0  0  0
    7.5619    6.3390    0.0000 H   0  0  0  0  0  0  0  0  0  0  0  0
    6.6959    6.2019    0.0000 H   0  0  0  0  0  0  0  0  0  0  0  0
    7.7351   -0.4271    0.0000 H   0  0  0  0  0  0  0  0  0  0  0  0
    8.5209   -2.3157    0.0000 H   0  0  0  0  0  0  0  0  0  0  0  0
    5.2657   -4.0023    0.0000 H   0  0  0  0  0  0  0  0  0  0  0  0
    8.5554   -4.3608    0.0000 H   0  0  0  0  0  0  0  0  0  0  0  0
    7.5815   -5.7122    0.0000 H   0  0  0  0  0  0  0  0  0  0  0  0
  1 32  1  0  0  0  0
  2 21  2  0  0  0  0
  3 13  1  0  0  0  0
  3 14  1  0  0  0  0
  3 16  1  0  0  0  0
 11  4  1  6  0  0  0
  4 21  1  0  0  0  0
  4 46  1  0  0  0  0
  5 26  1  0  0  0  0
  5 29  1  0  0  0  0
  5 58  1  0  0  0  0
  6  7  1  0  0  0  0
  6  8  1  0  0  0  0
  6  9  1  0  0  0  0
  6 10  1  0  0  0  0
  7 11  1  0  0  0  0
  7 34  1  0  0  0  0
  7 35  1  0  0  0  0
  8 13  1  0  0  0  0
  8 36  1  0  0  0  0
  8 37  1  0  0  0  0
  9 14  1  0  0  0  0
  9 38  1  0  0  0  0
  9 39  1  0  0  0  0
 10 12  1  0  0  0  0
 10 15  2  0  0  0  0
 11 12  1  0  0  0  0
 11 40  1  0  0  0  0
 12 17  2  0  0  0  0
 13 41  1  0  0  0  0
 13 42  1  0  0  0  0
 14 43  1  0  0  0  0
 14 44  1  0  0  0  0
 15 18  1  0  0  0  0
 15 45  1  0  0  0  0
 16 20  1  0  0  0  0
 16 47  1  0  0  0  0
 16 48  1  0  0  0  0
 17 19  1  0  0  0  0
 17 49  1  0  0  0  0
 18 19  2  0  0  0  0
 18 50  1  0  0  0  0
 19 51  1  0  0  0  0
 20 22  2  0  0  0  0
 20 23  1  0  0  0  0
 21 24  1  0  0  0  0
 22 25  1  0  0  0  0
 22 52  1  0  0  0  0
 23 27  2  0  0  0  0
 23 53  1  0  0  0  0
 24 54  1  0  0  0  0
 24 55  1  0  0  0  0
 24 56  1  0  0  0  0
 25 26  2  0  0  0  0
 25 28  1  0  0  0  0
 26 27  1  0  0  0  0
 27 57  1  0  0  0  0
 28 29  2  0  0  0  0
 28 30  1  0  0  0  0
 29 31  1  0  0  0  0
 30 32  2  0  0  0  0
 30 59  1  0  0  0  0
 31 33  2  0  0  0  0
 31 60  1  0  0  0  0
 32 33  1  0  0  0  0
 33 61  1  0  0  0  0
M  END
> <PUBCHEM_COMPOUND_CID>
57394992

> <PUBCHEM_COMPOUND_CANONICALIZED>
1

> <PUBCHEM_CACTVS_COMPLEXITY>
722

> <PUBCHEM_CACTVS_HBOND_ACCEPTOR>
2

> <PUBCHEM_CACTVS_HBOND_DONOR>
2

> <PUBCHEM_CACTVS_ROTATABLE_BOND>
3

> <PUBCHEM_CACTVS_SUBSKEYS>
AAADceB7IAAEAAAAAAAAAAAAAAAAAeIAAAA8YMEAAAAAAHgB/AAAHgIQAAAADirBniQywPPJkACoAyVyVACCgCAhByAImaA4ZpgIIOLBk5GEIAhglgDIyAcQgMAPiABCIAASAAAQAIRAACQAASAACQAAAA==

> <PUBCHEM_IUPAC_OPENEYE_NAME>
N-[(1R)-1'-[(6-chloro-9H-carbazol-3-yl)methyl]spiro[indane-3,4'-piperidine]-1-yl]acetamide

> <PUBCHEM_IUPAC_CAS_NAME>
N-[(1R)-1'-[(6-chloro-9H-carbazol-3-yl)methyl]-1-spiro[1,2-dihydroindene-3,4'-piperidine]yl]acetamide

> <PUBCHEM_IUPAC_NAME_MARKUP>
<I>N</I>-[(1<I>R</I>)-1&apos;-[(6-chloro-9<I>H</I>-carbazol-3-yl)methyl]spiro[1,2-dihydroindene-3,4&apos;-piperidine]-1-yl]acetamide

> <PUBCHEM_IUPAC_NAME>
N-[(1R)-1'-[(6-chloro-9H-carbazol-3-yl)methyl]spiro[1,2-dihydroindene-3,4'-piperidine]-1-yl]acetamide

> <PUBCHEM_IUPAC_SYSTEMATIC_NAME>
N-[(1R)-1'-[(6-chloranyl-9H-carbazol-3-yl)methyl]spiro[1,2-dihydroindene-3,4'-piperidine]-1-yl]ethanamide

> <PUBCHEM_IUPAC_TRADITIONAL_NAME>
N-[(1R)-1'-[(6-chloro-9H-carbazol-3-yl)methyl]spiro[indane-3,4'-piperidine]-1-yl]acetamide

> <PUBCHEM_IUPAC_INCHI>
InChI=1S/C28H28ClN3O/c1-18(33)30-27-16-28(24-5-3-2-4-21(24)27)10-12-32(13-11-28)17-19-6-8-25-22(14-19)23-15-20(29)7-9-26(23)31-25/h2-9,14-15,27,31H,10-13,16-17H2,1H3,(H,30,33)/t27-/m1/s1

> <PUBCHEM_IUPAC_INCHIKEY>
ABFFVPNTRSSMPE-HHHXNRCGSA-N

> <PUBCHEM_XLOGP3_AA>
5.4

> <PUBCHEM_EXACT_MASS>
457.1920902

> <PUBCHEM_MOLECULAR_FORMULA>
C28H28ClN3O

> <PUBCHEM_MOLECULAR_WEIGHT>
458.0

> <PUBCHEM_OPENEYE_CAN_SMILES>
CC(=O)NC1CC2(CCN(CC2)CC3=CC4=C(C=C3)NC5=C4C=C(C=C5)Cl)C6=CC=CC=C16

> <PUBCHEM_OPENEYE_ISO_SMILES>
CC(=O)N[C@@H]1CC2(CCN(CC2)CC3=CC4=C(C=C3)NC5=C4C=C(C=C5)Cl)C6=CC=CC=C16

> <PUBCHEM_CACTVS_TPSA>
48.1

> <PUBCHEM_MONOISOTOPIC_WEIGHT>
457.1920902

> <PUBCHEM_TOTAL_CHARGE>
0

> <PUBCHEM_HEAVY_ATOM_COUNT>
33

> <PUBCHEM_ATOM_DEF_STEREO_COUNT>
1

> <PUBCHEM_ATOM_UDEF_STEREO_COUNT>
0

> <PUBCHEM_BOND_DEF_STEREO_COUNT>
0

> <PUBCHEM_BOND_UDEF_STEREO_COUNT>
0

> <PUBCHEM_ISOTOPIC_ATOM_COUNT>
0

> <PUBCHEM_COMPONENT_COUNT>
1

> <PUBCHEM_CACTVS_TAUTO_COUNT>
-1

> <PUBCHEM_COORDINATE_TYPE>
1
5
255

> <PUBCHEM_BONDANNOTATIONS>
10  12  8
10  15  8
12  17  8
15  18  8
17  19  8
18  19  8
20  22  8
20  23  8
22  25  8
23  27  8
25  26  8
25  28  8
26  27  8
28  29  8
28  30  8
29  31  8
30  32  8
31  33  8
32  33  8
11  4  6
5  26  8
5  29  8

$$$$
