164624803
  -OEChem-09292322432D

 54 56  0     1  0  0  0  0  0999 V2000
    3.7320   -1.3450    0.0000 Cl  0  0  0  0  0  0  0  0  0  0  0  0
    2.0000   -0.3450    0.0000 Cl  0  0  0  0  0  0  0  0  0  0  0  0
    5.4641   -0.3450    0.0000 O   0  0  0  0  0  0  0  0  0  0  0  0
    9.7942    0.1550    0.0000 N   0  0  0  0  0  0  0  0  0  0  0  0
   11.5263    1.1550    0.0000 N   0  0  0  0  0  0  0  0  0  0  0  0
    8.0622    0.1550    0.0000 N   0  0  0  0  0  0  0  0  0  0  0  0
    8.9282   -1.3450    0.0000 N   0  0  0  0  0  0  0  0  0  0  0  0
    7.1962   -1.3450    0.0000 N   0  0  0  0  0  0  0  0  0  0  0  0
    8.0622   -2.8450    0.0000 N   0  0  0  0  0  0  0  0  0  0  0  0
    9.7942    1.1550    0.0000 C   0  0  0  0  0  0  0  0  0  0  0  0
   10.6603   -0.3450    0.0000 C   0  0  0  0  0  0  0  0  0  0  0  0
   10.6603    1.6550    0.0000 C   0  0  0  0  0  0  0  0  0  0  0  0
   11.5263    0.1550    0.0000 C   0  0  0  0  0  0  0  0  0  0  0  0
    8.9282   -0.3450    0.0000 C   0  0  0  0  0  0  0  0  0  0  0  0
   12.3923    1.6550    0.0000 C   0  0  0  0  0  0  0  0  0  0  0  0
    6.3301    0.1550    0.0000 C   0  0  3  0  0  0  0  0  0  0  0  0
    6.3301    1.1550    0.0000 C   0  0  0  0  0  0  0  0  0  0  0  0
    7.1962    1.6550    0.0000 C   0  0  0  0  0  0  0  0  0  0  0  0
    7.1962   -0.3450    0.0000 C   0  0  0  0  0  0  0  0  0  0  0  0
    7.1962    2.6550    0.0000 C   0  0  0  0  0  0  0  0  0  0  0  0
    8.0622   -1.8450    0.0000 C   0  0  0  0  0  0  0  0  0  0  0  0
    8.0622    3.1550    0.0000 C   0  0  0  0  0  0  0  0  0  0  0  0
    4.5981    0.1550    0.0000 C   0  0  0  0  0  0  0  0  0  0  0  0
    3.7320   -0.3450    0.0000 C   0  0  0  0  0  0  0  0  0  0  0  0
    4.5981    1.1550    0.0000 C   0  0  0  0  0  0  0  0  0  0  0  0
    2.8660    0.1550    0.0000 C   0  0  0  0  0  0  0  0  0  0  0  0
    3.7320    1.6550    0.0000 C   0  0  0  0  0  0  0  0  0  0  0  0
    2.8660    1.1550    0.0000 C   0  0  0  0  0  0  0  0  0  0  0  0
    9.5822    1.7376    0.0000 H   0  0  0  0  0  0  0  0  0  0  0  0
    9.1836    1.0473    0.0000 H   0  0  0  0  0  0  0  0  0  0  0  0
   10.2617   -0.8199    0.0000 H   0  0  0  0  0  0  0  0  0  0  0  0
   11.0588   -0.8199    0.0000 H   0  0  0  0  0  0  0  0  0  0  0  0
   11.0588    2.1300    0.0000 H   0  0  0  0  0  0  0  0  0  0  0  0
   10.2617    2.1300    0.0000 H   0  0  0  0  0  0  0  0  0  0  0  0
   11.7383   -0.4276    0.0000 H   0  0  0  0  0  0  0  0  0  0  0  0
   12.1369    0.2627    0.0000 H   0  0  0  0  0  0  0  0  0  0  0  0
   12.7023    1.1181    0.0000 H   0  0  0  0  0  0  0  0  0  0  0  0
   12.9292    1.9650    0.0000 H   0  0  0  0  0  0  0  0  0  0  0  0
   12.0823    2.1919    0.0000 H   0  0  0  0  0  0  0  0  0  0  0  0
    5.7932    0.4650    0.0000 H   0  0  0  0  0  0  0  0  0  0  0  0
    6.1181    1.7376    0.0000 H   0  0  0  0  0  0  0  0  0  0  0  0
    5.7196    1.0473    0.0000 H   0  0  0  0  0  0  0  0  0  0  0  0
    7.4082    1.0724    0.0000 H   0  0  0  0  0  0  0  0  0  0  0  0
    7.8067    1.7627    0.0000 H   0  0  0  0  0  0  0  0  0  0  0  0
    6.9841    3.2376    0.0000 H   0  0  0  0  0  0  0  0  0  0  0  0
    6.5856    2.5473    0.0000 H   0  0  0  0  0  0  0  0  0  0  0  0
    8.3722    2.6181    0.0000 H   0  0  0  0  0  0  0  0  0  0  0  0
    8.5991    3.4650    0.0000 H   0  0  0  0  0  0  0  0  0  0  0  0
    7.7522    3.6919    0.0000 H   0  0  0  0  0  0  0  0  0  0  0  0
    8.5991   -3.1550    0.0000 H   0  0  0  0  0  0  0  0  0  0  0  0
    7.5252   -3.1550    0.0000 H   0  0  0  0  0  0  0  0  0  0  0  0
    5.1350    1.4650    0.0000 H   0  0  0  0  0  0  0  0  0  0  0  0
    3.7320    2.2750    0.0000 H   0  0  0  0  0  0  0  0  0  0  0  0
    2.3291    1.4650    0.0000 H   0  0  0  0  0  0  0  0  0  0  0  0
  1 24  1  0  0  0  0
  2 26  1  0  0  0  0
  3 16  1  0  0  0  0
  3 23  1  0  0  0  0
  4 10  1  0  0  0  0
  4 11  1  0  0  0  0
  4 14  1  0  0  0  0
  5 12  1  0  0  0  0
  5 13  1  0  0  0  0
  5 15  1  0  0  0  0
  6 14  2  0  0  0  0
  6 19  1  0  0  0  0
  7 14  1  0  0  0  0
  7 21  2  0  0  0  0
  8 19  2  0  0  0  0
  8 21  1  0  0  0  0
  9 21  1  0  0  0  0
  9 50  1  0  0  0  0
  9 51  1  0  0  0  0
 10 12  1  0  0  0  0
 10 29  1  0  0  0  0
 10 30  1  0  0  0  0
 11 13  1  0  0  0  0
 11 31  1  0  0  0  0
 11 32  1  0  0  0  0
 12 33  1  0  0  0  0
 12 34  1  0  0  0  0
 13 35  1  0  0  0  0
 13 36  1  0  0  0  0
 15 37  1  0  0  0  0
 15 38  1  0  0  0  0
 15 39  1  0  0  0  0
 16 17  1  0  0  0  0
 16 19  1  0  0  0  0
 16 40  1  0  0  0  0
 17 18  1  0  0  0  0
 17 41  1  0  0  0  0
 17 42  1  0  0  0  0
 18 20  1  0  0  0  0
 18 43  1  0  0  0  0
 18 44  1  0  0  0  0
 20 22  1  0  0  0  0
 20 45  1  0  0  0  0
 20 46  1  0  0  0  0
 22 47  1  0  0  0  0
 22 48  1  0  0  0  0
 22 49  1  0  0  0  0
 23 24  2  0  0  0  0
 23 25  1  0  0  0  0
 24 26  1  0  0  0  0
 25 27  2  0  0  0  0
 25 52  1  0  0  0  0
 26 28  2  0  0  0  0
 27 28  1  0  0  0  0
 27 53  1  0  0  0  0
 28 54  1  0  0  0  0
M  END
> <PUBCHEM_COMPOUND_CID>
164624803

> <PUBCHEM_COMPOUND_CANONICALIZED>
1

> <PUBCHEM_CACTVS_COMPLEXITY>
468

> <PUBCHEM_CACTVS_HBOND_ACCEPTOR>
7

> <PUBCHEM_CACTVS_HBOND_DONOR>
1

> <PUBCHEM_CACTVS_ROTATABLE_BOND>
7

> <PUBCHEM_CACTVS_SUBSKEYS>
AAADceB7oAAGAAAAAAAAAAAAAAAAAAAAAAA8WIAAAAAAAAABwAAAHgIQAAAACBbhkyYzFodIFACgACJiJAQCiAkgJeAJikA+C4iObiOFuxqXOCCswBOYqAeQQAAAAAAAAQAACAQAAAACAAAQCAAAAAAAAA==

> <PUBCHEM_IUPAC_OPENEYE_NAME>
4-[1-(2,3-dichlorophenoxy)pentyl]-6-(4-methylpiperazin-1-yl)-1,3,5-triazin-2-amine

> <PUBCHEM_IUPAC_CAS_NAME>
4-[1-(2,3-dichlorophenoxy)pentyl]-6-(4-methyl-1-piperazinyl)-1,3,5-triazin-2-amine

> <PUBCHEM_IUPAC_NAME_MARKUP>
4-[1-(2,3-dichlorophenoxy)pentyl]-6-(4-methylpiperazin-1-yl)-1,3,5-triazin-2-amine

> <PUBCHEM_IUPAC_NAME>
4-[1-(2,3-dichlorophenoxy)pentyl]-6-(4-methylpiperazin-1-yl)-1,3,5-triazin-2-amine

> <PUBCHEM_IUPAC_SYSTEMATIC_NAME>
4-[1-[2,3-bis(chloranyl)phenoxy]pentyl]-6-(4-methylpiperazin-1-yl)-1,3,5-triazin-2-amine

> <PUBCHEM_IUPAC_TRADITIONAL_NAME>
[4-[1-(2,3-dichlorophenoxy)pentyl]-6-(4-methylpiperazino)-s-triazin-2-yl]amine

> <PUBCHEM_IUPAC_INCHI>
InChI=1S/C19H26Cl2N6O/c1-3-4-7-15(28-14-8-5-6-13(20)16(14)21)17-23-18(22)25-19(24-17)27-11-9-26(2)10-12-27/h5-6,8,15H,3-4,7,9-12H2,1-2H3,(H2,22,23,24,25)

> <PUBCHEM_IUPAC_INCHIKEY>
KPRWGLQDBYNALG-UHFFFAOYSA-N

> <PUBCHEM_XLOGP3_AA>
4.5

> <PUBCHEM_EXACT_MASS>
424.1545149

> <PUBCHEM_MOLECULAR_FORMULA>
C19H26Cl2N6O

> <PUBCHEM_MOLECULAR_WEIGHT>
425.4

> <PUBCHEM_OPENEYE_CAN_SMILES>
CCCCC(C1=NC(=NC(=N1)N2CCN(CC2)C)N)OC3=C(C(=CC=C3)Cl)Cl

> <PUBCHEM_OPENEYE_ISO_SMILES>
CCCCC(C1=NC(=NC(=N1)N2CCN(CC2)C)N)OC3=C(C(=CC=C3)Cl)Cl

> <PUBCHEM_CACTVS_TPSA>
80.4

> <PUBCHEM_MONOISOTOPIC_WEIGHT>
424.1545149

> <PUBCHEM_TOTAL_CHARGE>
0

> <PUBCHEM_HEAVY_ATOM_COUNT>
28

> <PUBCHEM_ATOM_DEF_STEREO_COUNT>
0

> <PUBCHEM_ATOM_UDEF_STEREO_COUNT>
1

> <PUBCHEM_BOND_DEF_STEREO_COUNT>
0

> <PUBCHEM_BOND_UDEF_STEREO_COUNT>
0

> <PUBCHEM_ISOTOPIC_ATOM_COUNT>
0

> <PUBCHEM_COMPONENT_COUNT>
1

> <PUBCHEM_CACTVS_TAUTO_COUNT>
-1

> <PUBCHEM_COORDINATE_TYPE>
1
5
255

> <PUBCHEM_BONDANNOTATIONS>
16  17  3
23  24  8
23  25  8
24  26  8
25  27  8
26  28  8
27  28  8
6  14  8
6  19  8
7  14  8
7  21  8
8  19  8
8  21  8

$$$$
