70687958
  -OEChem-09292322482D

 33 35  0     0  0  0  0  0  0999 V2000
    4.0000   -0.8948    0.0000 N   0  0  0  0  0  0  0  0  0  0  0  0
    4.0000    2.5693    0.0000 N   0  0  0  0  0  0  0  0  0  0  0  0
    4.7366   -1.8774    0.0000 C   0  0  0  0  0  0  0  0  0  0  0  0
    4.4778   -2.8433    0.0000 C   0  0  0  0  0  0  0  0  0  0  0  0
    5.8767   -3.3521    0.0000 C   0  0  0  0  0  0  0  0  0  0  0  0
    6.1356   -2.3862    0.0000 C   0  0  0  0  0  0  0  0  0  0  0  0
    3.1051   -3.4353    0.0000 C   0  0  0  0  0  0  0  0  0  0  0  0
    2.7631   -2.4956    0.0000 C   0  0  0  0  0  0  0  0  0  0  0  0
    3.5000   -0.0288    0.0000 C   0  0  0  0  0  0  0  0  0  0  0  0
    4.0000    0.8373    0.0000 C   0  0  0  0  0  0  0  0  0  0  0  0
    3.5000    1.7033    0.0000 C   0  0  0  0  0  0  0  0  0  0  0  0
    2.5000    1.7033    0.0000 C   0  0  0  0  0  0  0  0  0  0  0  0
    2.0000    2.5693    0.0000 C   0  0  0  0  0  0  0  0  0  0  0  0
    3.5000    3.4353    0.0000 C   0  0  0  0  0  0  0  0  0  0  0  0
    2.5000    3.4353    0.0000 C   0  0  0  0  0  0  0  0  0  0  0  0
    4.7226   -2.4972    0.0000 H   0  0  0  0  0  0  0  0  0  0  0  0
    4.4959   -3.4631    0.0000 H   0  0  0  0  0  0  0  0  0  0  0  0
    6.4707   -3.5299    0.0000 H   0  0  0  0  0  0  0  0  0  0  0  0
    5.6818   -3.9407    0.0000 H   0  0  0  0  0  0  0  0  0  0  0  0
    3.3396   -4.0093    0.0000 H   0  0  0  0  0  0  0  0  0  0  0  0
    2.5267   -3.6586    0.0000 H   0  0  0  0  0  0  0  0  0  0  0  0
    6.7295   -2.5640    0.0000 H   0  0  0  0  0  0  0  0  0  0  0  0
    6.3305   -1.7977    0.0000 H   0  0  0  0  0  0  0  0  0  0  0  0
    2.5688   -1.9069    0.0000 H   0  0  0  0  0  0  0  0  0  0  0  0
    2.1773   -2.6989    0.0000 H   0  0  0  0  0  0  0  0  0  0  0  0
    3.0250    0.3698    0.0000 H   0  0  0  0  0  0  0  0  0  0  0  0
    3.0250   -0.4273    0.0000 H   0  0  0  0  0  0  0  0  0  0  0  0
    4.4750    0.4387    0.0000 H   0  0  0  0  0  0  0  0  0  0  0  0
    4.4750    1.2358    0.0000 H   0  0  0  0  0  0  0  0  0  0  0  0
    2.1900    1.1664    0.0000 H   0  0  0  0  0  0  0  0  0  0  0  0
    1.3800    2.5693    0.0000 H   0  0  0  0  0  0  0  0  0  0  0  0
    3.8100    3.9723    0.0000 H   0  0  0  0  0  0  0  0  0  0  0  0
    2.1900    3.9723    0.0000 H   0  0  0  0  0  0  0  0  0  0  0  0
  1  3  1  0  0  0  0
  1  4  1  0  0  0  0
  1  9  1  0  0  0  0
  2 11  1  0  0  0  0
  2 14  2  0  0  0  0
  3  6  1  0  0  0  0
  3  8  1  0  0  0  0
  3 16  1  0  0  0  0
  4  5  1  0  0  0  0
  4  7  1  0  0  0  0
  4 17  1  0  0  0  0
  5  6  1  0  0  0  0
  5 18  1  0  0  0  0
  5 19  1  0  0  0  0
  6 22  1  0  0  0  0
  6 23  1  0  0  0  0
  7  8  1  0  0  0  0
  7 20  1  0  0  0  0
  7 21  1  0  0  0  0
  8 24  1  0  0  0  0
  8 25  1  0  0  0  0
  9 10  1  0  0  0  0
  9 26  1  0  0  0  0
  9 27  1  0  0  0  0
 10 11  1  0  0  0  0
 10 28  1  0  0  0  0
 10 29  1  0  0  0  0
 11 12  2  0  0  0  0
 12 13  1  0  0  0  0
 12 30  1  0  0  0  0
 13 15  2  0  0  0  0
 13 31  1  0  0  0  0
 14 15  1  0  0  0  0
 14 32  1  0  0  0  0
 15 33  1  0  0  0  0
M  END
> <PUBCHEM_COMPOUND_CID>
70687958

> <PUBCHEM_COMPOUND_CANONICALIZED>
1

> <PUBCHEM_CACTVS_COMPLEXITY>
197

> <PUBCHEM_CACTVS_HBOND_ACCEPTOR>
2

> <PUBCHEM_CACTVS_HBOND_DONOR>
0

> <PUBCHEM_CACTVS_ROTATABLE_BOND>
3

> <PUBCHEM_CACTVS_SUBSKEYS>
AAADceBzAAAAAAAAAAAAAAAAAAAAAWLAAAA8QAAAAAAAAAABgAAAHAAAAAAACCjBFgQ8gJMIEACgATRnRACCgCAxAiAI2CA4ZJgIIOLA0ZGEIAhggADIyAcQgAAAAAAAAAAAAAAAAAAAAAAAAAAAAAAAAA==

> <PUBCHEM_IUPAC_OPENEYE_NAME>
7-[2-(2-pyridyl)ethyl]-7-azabicyclo[2.2.1]heptane

> <PUBCHEM_IUPAC_CAS_NAME>
7-[2-(2-pyridinyl)ethyl]-7-azabicyclo[2.2.1]heptane

> <PUBCHEM_IUPAC_NAME_MARKUP>
7-(2-pyridin-2-ylethyl)-7-azabicyclo[2.2.1]heptane

> <PUBCHEM_IUPAC_NAME>
7-(2-pyridin-2-ylethyl)-7-azabicyclo[2.2.1]heptane

> <PUBCHEM_IUPAC_SYSTEMATIC_NAME>
7-(2-pyridin-2-ylethyl)-7-azabicyclo[2.2.1]heptane

> <PUBCHEM_IUPAC_TRADITIONAL_NAME>
7-[2-(2-pyridyl)ethyl]-7-azabicyclo[2.2.1]heptane

> <PUBCHEM_IUPAC_INCHI>
InChI=1S/C13H18N2/c1-2-9-14-11(3-1)8-10-15-12-4-5-13(15)7-6-12/h1-3,9,12-13H,4-8,10H2

> <PUBCHEM_IUPAC_INCHIKEY>
SRRZEMVAQOSBLB-UHFFFAOYSA-N

> <PUBCHEM_XLOGP3>
2

> <PUBCHEM_EXACT_MASS>
202.146998583

> <PUBCHEM_MOLECULAR_FORMULA>
C13H18N2

> <PUBCHEM_MOLECULAR_WEIGHT>
202.30

> <PUBCHEM_OPENEYE_CAN_SMILES>
C1CC2CCC1N2CCC3=CC=CC=N3

> <PUBCHEM_OPENEYE_ISO_SMILES>
C1CC2CCC1N2CCC3=CC=CC=N3

> <PUBCHEM_CACTVS_TPSA>
16.1

> <PUBCHEM_MONOISOTOPIC_WEIGHT>
202.146998583

> <PUBCHEM_TOTAL_CHARGE>
0

> <PUBCHEM_HEAVY_ATOM_COUNT>
15

> <PUBCHEM_ATOM_DEF_STEREO_COUNT>
0

> <PUBCHEM_ATOM_UDEF_STEREO_COUNT>
0

> <PUBCHEM_BOND_DEF_STEREO_COUNT>
0

> <PUBCHEM_BOND_UDEF_STEREO_COUNT>
0

> <PUBCHEM_ISOTOPIC_ATOM_COUNT>
0

> <PUBCHEM_COMPONENT_COUNT>
1

> <PUBCHEM_CACTVS_TAUTO_COUNT>
-1

> <PUBCHEM_COORDINATE_TYPE>
1
5
255

> <PUBCHEM_BONDANNOTATIONS>
11  12  8
12  13  8
13  15  8
14  15  8
2  11  8
2  14  8

$$$$
