44393173
  -OEChem-09292322092D

 49 52  0     0  0  0  0  0  0999 V2000
    3.3660   -0.1690    0.0000 F   0  0  0  0  0  0  0  0  0  0  0  0
    2.0000    0.1970    0.0000 F   0  0  0  0  0  0  0  0  0  0  0  0
    2.3660    1.5630    0.0000 F   0  0  0  0  0  0  0  0  0  0  0  0
   14.9221   -1.3030    0.0000 O   0  0  0  0  0  0  0  0  0  0  0  0
    8.0622   -0.3030    0.0000 N   0  0  0  0  0  0  0  0  0  0  0  0
    6.3301    0.6970    0.0000 N   0  0  0  0  0  0  0  0  0  0  0  0
   13.3385   -0.4982    0.0000 N   0  0  0  0  0  0  0  0  0  0  0  0
   13.3385   -2.1077    0.0000 N   0  0  0  0  0  0  0  0  0  0  0  0
    7.1962   -0.8030    0.0000 C   0  0  0  0  0  0  0  0  0  0  0  0
    8.0622    0.6970    0.0000 C   0  0  0  0  0  0  0  0  0  0  0  0
    6.3301   -0.3030    0.0000 C   0  0  0  0  0  0  0  0  0  0  0  0
    7.1962    1.1970    0.0000 C   0  0  0  0  0  0  0  0  0  0  0  0
    8.9282   -0.8030    0.0000 C   0  0  0  0  0  0  0  0  0  0  0  0
    9.7942   -0.3030    0.0000 C   0  0  0  0  0  0  0  0  0  0  0  0
    5.4641    1.1970    0.0000 C   0  0  0  0  0  0  0  0  0  0  0  0
   10.6603   -0.8030    0.0000 C   0  0  0  0  0  0  0  0  0  0  0  0
    4.5981    0.6970    0.0000 C   0  0  0  0  0  0  0  0  0  0  0  0
    5.4641    2.1970    0.0000 C   0  0  0  0  0  0  0  0  0  0  0  0
   11.5263   -0.3030    0.0000 C   0  0  0  0  0  0  0  0  0  0  0  0
   10.6603   -1.8030    0.0000 C   0  0  0  0  0  0  0  0  0  0  0  0
   12.3923   -0.8030    0.0000 C   0  0  0  0  0  0  0  0  0  0  0  0
    3.7320    1.1970    0.0000 C   0  0  0  0  0  0  0  0  0  0  0  0
   12.3923   -1.8030    0.0000 C   0  0  0  0  0  0  0  0  0  0  0  0
   11.5263   -2.3030    0.0000 C   0  0  0  0  0  0  0  0  0  0  0  0
    4.5981    2.6970    0.0000 C   0  0  0  0  0  0  0  0  0  0  0  0
    3.7320    2.1970    0.0000 C   0  0  0  0  0  0  0  0  0  0  0  0
    2.8660    0.6970    0.0000 C   0  0  0  0  0  0  0  0  0  0  0  0
   13.9221   -1.3030    0.0000 C   0  0  0  0  0  0  0  0  0  0  0  0
    6.7976   -1.2779    0.0000 H   0  0  0  0  0  0  0  0  0  0  0  0
    7.5947   -1.2779    0.0000 H   0  0  0  0  0  0  0  0  0  0  0  0
    8.6728    0.5894    0.0000 H   0  0  0  0  0  0  0  0  0  0  0  0
    8.2742    1.2796    0.0000 H   0  0  0  0  0  0  0  0  0  0  0  0
    5.7196   -0.1953    0.0000 H   0  0  0  0  0  0  0  0  0  0  0  0
    6.1181   -0.8856    0.0000 H   0  0  0  0  0  0  0  0  0  0  0  0
    7.5947    1.6720    0.0000 H   0  0  0  0  0  0  0  0  0  0  0  0
    6.7976    1.6720    0.0000 H   0  0  0  0  0  0  0  0  0  0  0  0
    8.5297   -1.2779    0.0000 H   0  0  0  0  0  0  0  0  0  0  0  0
    9.3267   -1.2779    0.0000 H   0  0  0  0  0  0  0  0  0  0  0  0
   10.1928    0.1720    0.0000 H   0  0  0  0  0  0  0  0  0  0  0  0
    9.3957    0.1720    0.0000 H   0  0  0  0  0  0  0  0  0  0  0  0
    4.5981    0.0770    0.0000 H   0  0  0  0  0  0  0  0  0  0  0  0
    6.0010    2.5070    0.0000 H   0  0  0  0  0  0  0  0  0  0  0  0
   11.5263    0.3170    0.0000 H   0  0  0  0  0  0  0  0  0  0  0  0
   10.1233   -2.1130    0.0000 H   0  0  0  0  0  0  0  0  0  0  0  0
   11.5263   -2.9230    0.0000 H   0  0  0  0  0  0  0  0  0  0  0  0
    4.5981    3.3170    0.0000 H   0  0  0  0  0  0  0  0  0  0  0  0
    3.1951    2.5070    0.0000 H   0  0  0  0  0  0  0  0  0  0  0  0
   13.5311    0.0911    0.0000 H   0  0  0  0  0  0  0  0  0  0  0  0
   13.5311   -2.6970    0.0000 H   0  0  0  0  0  0  0  0  0  0  0  0
  1 27  1  0  0  0  0
  2 27  1  0  0  0  0
  3 27  1  0  0  0  0
  4 28  2  0  0  0  0
  5  9  1  0  0  0  0
  5 10  1  0  0  0  0
  5 13  1  0  0  0  0
  6 11  1  0  0  0  0
  6 12  1  0  0  0  0
  6 15  1  0  0  0  0
  7 21  1  0  0  0  0
  7 28  1  0  0  0  0
  7 48  1  0  0  0  0
  8 23  1  0  0  0  0
  8 28  1  0  0  0  0
  8 49  1  0  0  0  0
  9 11  1  0  0  0  0
  9 29  1  0  0  0  0
  9 30  1  0  0  0  0
 10 12  1  0  0  0  0
 10 31  1  0  0  0  0
 10 32  1  0  0  0  0
 11 33  1  0  0  0  0
 11 34  1  0  0  0  0
 12 35  1  0  0  0  0
 12 36  1  0  0  0  0
 13 14  1  0  0  0  0
 13 37  1  0  0  0  0
 13 38  1  0  0  0  0
 14 16  1  0  0  0  0
 14 39  1  0  0  0  0
 14 40  1  0  0  0  0
 15 17  1  0  0  0  0
 15 18  2  0  0  0  0
 16 19  2  0  0  0  0
 16 20  1  0  0  0  0
 17 22  2  0  0  0  0
 17 41  1  0  0  0  0
 18 25  1  0  0  0  0
 18 42  1  0  0  0  0
 19 21  1  0  0  0  0
 19 43  1  0  0  0  0
 20 24  2  0  0  0  0
 20 44  1  0  0  0  0
 21 23  2  0  0  0  0
 22 26  1  0  0  0  0
 22 27  1  0  0  0  0
 23 24  1  0  0  0  0
 24 45  1  0  0  0  0
 25 26  2  0  0  0  0
 25 46  1  0  0  0  0
 26 47  1  0  0  0  0
M  END
> <PUBCHEM_COMPOUND_CID>
44393173

> <PUBCHEM_COMPOUND_CANONICALIZED>
1

> <PUBCHEM_CACTVS_COMPLEXITY>
550

> <PUBCHEM_CACTVS_HBOND_ACCEPTOR>
6

> <PUBCHEM_CACTVS_HBOND_DONOR>
2

> <PUBCHEM_CACTVS_ROTATABLE_BOND>
4

> <PUBCHEM_CACTVS_SUBSKEYS>
AAADceB7oYAAAAAAAAAAAAAAAAAAAWAAAAA8YIAAAAAAAFgBQAAAHwAQAAAADAjBGBQxwIPAAACIAiRCUACCAAAhAgAIiAAIdIiIYCLAkZGUIAholALIyCcQgIAOCAAAQAAAACAQAACAAAAAQAAAAAAAAA==

> <PUBCHEM_IUPAC_OPENEYE_NAME>
5-[2-[4-[3-(trifluoromethyl)phenyl]piperazin-1-yl]ethyl]-1,3-dihydrobenzimidazol-2-one

> <PUBCHEM_IUPAC_CAS_NAME>
5-[2-[4-[3-(trifluoromethyl)phenyl]-1-piperazinyl]ethyl]-1,3-dihydrobenzimidazol-2-one

> <PUBCHEM_IUPAC_NAME_MARKUP>
5-[2-[4-[3-(trifluoromethyl)phenyl]piperazin-1-yl]ethyl]-1,3-dihydrobenzimidazol-2-one

> <PUBCHEM_IUPAC_NAME>
5-[2-[4-[3-(trifluoromethyl)phenyl]piperazin-1-yl]ethyl]-1,3-dihydrobenzimidazol-2-one

> <PUBCHEM_IUPAC_SYSTEMATIC_NAME>
5-[2-[4-[3-(trifluoromethyl)phenyl]piperazin-1-yl]ethyl]-1,3-dihydrobenzimidazol-2-one

> <PUBCHEM_IUPAC_TRADITIONAL_NAME>
5-[2-[4-[3-(trifluoromethyl)phenyl]piperazino]ethyl]-1,3-dihydrobenzimidazol-2-one

> <PUBCHEM_IUPAC_INCHI>
InChI=1S/C20H21F3N4O/c21-20(22,23)15-2-1-3-16(13-15)27-10-8-26(9-11-27)7-6-14-4-5-17-18(12-14)25-19(28)24-17/h1-5,12-13H,6-11H2,(H2,24,25,28)

> <PUBCHEM_IUPAC_INCHIKEY>
RRVTXZNXVUUSMV-UHFFFAOYSA-N

> <PUBCHEM_XLOGP3_AA>
3.3

> <PUBCHEM_EXACT_MASS>
390.16674579

> <PUBCHEM_MOLECULAR_FORMULA>
C20H21F3N4O

> <PUBCHEM_MOLECULAR_WEIGHT>
390.4

> <PUBCHEM_OPENEYE_CAN_SMILES>
C1CN(CCN1CCC2=CC3=C(C=C2)NC(=O)N3)C4=CC=CC(=C4)C(F)(F)F

> <PUBCHEM_OPENEYE_ISO_SMILES>
C1CN(CCN1CCC2=CC3=C(C=C2)NC(=O)N3)C4=CC=CC(=C4)C(F)(F)F

> <PUBCHEM_CACTVS_TPSA>
47.6

> <PUBCHEM_MONOISOTOPIC_WEIGHT>
390.16674579

> <PUBCHEM_TOTAL_CHARGE>
0

> <PUBCHEM_HEAVY_ATOM_COUNT>
28

> <PUBCHEM_ATOM_DEF_STEREO_COUNT>
0

> <PUBCHEM_ATOM_UDEF_STEREO_COUNT>
0

> <PUBCHEM_BOND_DEF_STEREO_COUNT>
0

> <PUBCHEM_BOND_UDEF_STEREO_COUNT>
0

> <PUBCHEM_ISOTOPIC_ATOM_COUNT>
0

> <PUBCHEM_COMPONENT_COUNT>
1

> <PUBCHEM_CACTVS_TAUTO_COUNT>
-1

> <PUBCHEM_COORDINATE_TYPE>
1
5
255

> <PUBCHEM_BONDANNOTATIONS>
15  17  8
15  18  8
16  19  8
16  20  8
17  22  8
18  25  8
19  21  8
20  24  8
21  23  8
22  26  8
23  24  8
25  26  8
7  21  8
7  28  8
8  23  8
8  28  8

$$$$
