118709168
  -OEChem-09292322352D

142147  0     0  0  0  0  0  0999 V2000
    2.5981    0.8660    0.0000 Cl  0  0  0  0  0  0  0  0  0  0  0  0
   20.5981   -0.8660    0.0000 Cl  0  0  0  0  0  0  0  0  0  0  0  0
    2.8660   13.3301    0.0000 F   0  0  0  0  0  0  0  0  0  0  0  0
   16.8660  -13.3301    0.0000 F   0  0  0  0  0  0  0  0  0  0  0  0
    5.0981    3.4641    0.0000 O   0  0  0  0  0  0  0  0  0  0  0  0
   18.0981   -3.4641    0.0000 O   0  0  0  0  0  0  0  0  0  0  0  0
    6.5981    4.3301    0.0000 O   0  0  0  0  0  0  0  0  0  0  0  0
   16.5981   -4.3301    0.0000 O   0  0  0  0  0  0  0  0  0  0  0  0
    2.0000    8.8301    0.0000 O   0  0  0  0  0  0  0  0  0  0  0  0
   16.0000   -8.8301    0.0000 O   0  0  0  0  0  0  0  0  0  0  0  0
    4.5981    6.3301    0.0000 N   0  0  0  0  0  0  0  0  0  0  0  0
   18.5981   -6.3301    0.0000 N   0  0  0  0  0  0  0  0  0  0  0  0
    4.5981    4.3301    0.0000 C   0  0  0  0  0  0  0  0  0  0  0  0
   18.5981   -4.3301    0.0000 C   0  0  0  0  0  0  0  0  0  0  0  0
    5.4641    4.8301    0.0000 C   0  0  0  0  0  0  0  0  0  0  0  0
    3.7320    4.8301    0.0000 C   0  0  0  0  0  0  0  0  0  0  0  0
   19.4641   -4.8301    0.0000 C   0  0  0  0  0  0  0  0  0  0  0  0
   17.7320   -4.8301    0.0000 C   0  0  0  0  0  0  0  0  0  0  0  0
    5.4641    5.8301    0.0000 C   0  0  0  0  0  0  0  0  0  0  0  0
    3.7320    5.8301    0.0000 C   0  0  0  0  0  0  0  0  0  0  0  0
   19.4641   -5.8301    0.0000 C   0  0  0  0  0  0  0  0  0  0  0  0
   17.7320   -5.8301    0.0000 C   0  0  0  0  0  0  0  0  0  0  0  0
    4.0981    3.4641    0.0000 C   0  0  0  0  0  0  0  0  0  0  0  0
   19.0981   -3.4641    0.0000 C   0  0  0  0  0  0  0  0  0  0  0  0
    4.5981    7.3301    0.0000 C   0  0  0  0  0  0  0  0  0  0  0  0
   18.5981   -7.3301    0.0000 C   0  0  0  0  0  0  0  0  0  0  0  0
    3.7320    7.8301    0.0000 C   0  0  0  0  0  0  0  0  0  0  0  0
   17.7320   -7.8301    0.0000 C   0  0  0  0  0  0  0  0  0  0  0  0
    3.0981    3.4641    0.0000 C   0  0  0  0  0  0  0  0  0  0  0  0
   18.5981   -2.5981    0.0000 C   0  0  0  0  0  0  0  0  0  0  0  0
    4.5981    2.5981    0.0000 C   0  0  0  0  0  0  0  0  0  0  0  0
   20.0981   -3.4641    0.0000 C   0  0  0  0  0  0  0  0  0  0  0  0
    6.0981    3.4641    0.0000 C   0  0  0  0  0  0  0  0  0  0  0  0
   17.0981   -3.4641    0.0000 C   0  0  0  0  0  0  0  0  0  0  0  0
    3.7320    8.8301    0.0000 C   0  0  0  0  0  0  0  0  0  0  0  0
   17.7320   -8.8301    0.0000 C   0  0  0  0  0  0  0  0  0  0  0  0
    6.5981    2.5981    0.0000 C   0  0  0  0  0  0  0  0  0  0  0  0
   16.5981   -2.5981    0.0000 C   0  0  0  0  0  0  0  0  0  0  0  0
    2.5981    2.5981    0.0000 C   0  0  0  0  0  0  0  0  0  0  0  0
   19.0981   -1.7320    0.0000 C   0  0  0  0  0  0  0  0  0  0  0  0
    4.0981    1.7320    0.0000 C   0  0  0  0  0  0  0  0  0  0  0  0
   20.5981   -2.5981    0.0000 C   0  0  0  0  0  0  0  0  0  0  0  0
    7.5981    2.5981    0.0000 C   0  0  0  0  0  0  0  0  0  0  0  0
   15.5981   -2.5981    0.0000 C   0  0  0  0  0  0  0  0  0  0  0  0
    3.0981    1.7320    0.0000 C   0  0  0  0  0  0  0  0  0  0  0  0
   20.0981   -1.7320    0.0000 C   0  0  0  0  0  0  0  0  0  0  0  0
    8.0981    1.7320    0.0000 C   0  0  0  0  0  0  0  0  0  0  0  0
   15.0981   -1.7320    0.0000 C   0  0  0  0  0  0  0  0  0  0  0  0
    2.8660    9.3301    0.0000 C   0  0  0  0  0  0  0  0  0  0  0  0
   16.8660   -9.3301    0.0000 C   0  0  0  0  0  0  0  0  0  0  0  0
    9.0981    1.7320    0.0000 C   0  0  0  0  0  0  0  0  0  0  0  0
   14.0981   -1.7320    0.0000 C   0  0  0  0  0  0  0  0  0  0  0  0
    9.5981    0.8660    0.0000 C   0  0  0  0  0  0  0  0  0  0  0  0
   13.5981   -0.8660    0.0000 C   0  0  0  0  0  0  0  0  0  0  0  0
   10.5981    0.8660    0.0000 C   0  0  0  0  0  0  0  0  0  0  0  0
   12.5981   -0.8660    0.0000 C   0  0  0  0  0  0  0  0  0  0  0  0
   11.0981   -0.0000    0.0000 C   0  0  0  0  0  0  0  0  0  0  0  0
   12.0981   -0.0000    0.0000 C   0  0  0  0  0  0  0  0  0  0  0  0
    2.8660   10.3301    0.0000 C   0  0  0  0  0  0  0  0  0  0  0  0
   16.8660  -10.3301    0.0000 C   0  0  0  0  0  0  0  0  0  0  0  0
    2.0000   10.8301    0.0000 C   0  0  0  0  0  0  0  0  0  0  0  0
   16.0000  -10.8301    0.0000 C   0  0  0  0  0  0  0  0  0  0  0  0
    3.7320   10.8301    0.0000 C   0  0  0  0  0  0  0  0  0  0  0  0
   17.7320  -10.8301    0.0000 C   0  0  0  0  0  0  0  0  0  0  0  0
    2.0000   11.8301    0.0000 C   0  0  0  0  0  0  0  0  0  0  0  0
   16.0000  -11.8301    0.0000 C   0  0  0  0  0  0  0  0  0  0  0  0
    3.7320   11.8301    0.0000 C   0  0  0  0  0  0  0  0  0  0  0  0
   17.7320  -11.8301    0.0000 C   0  0  0  0  0  0  0  0  0  0  0  0
    2.8660   12.3301    0.0000 C   0  0  0  0  0  0  0  0  0  0  0  0
   16.8660  -12.3301    0.0000 C   0  0  0  0  0  0  0  0  0  0  0  0
    5.6762    4.2475    0.0000 H   0  0  0  0  0  0  0  0  0  0  0  0
    6.0747    4.9378    0.0000 H   0  0  0  0  0  0  0  0  0  0  0  0
    3.1215    4.9378    0.0000 H   0  0  0  0  0  0  0  0  0  0  0  0
    3.5200    4.2475    0.0000 H   0  0  0  0  0  0  0  0  0  0  0  0
   20.0747   -4.9378    0.0000 H   0  0  0  0  0  0  0  0  0  0  0  0
   19.6762   -4.2475    0.0000 H   0  0  0  0  0  0  0  0  0  0  0  0
   17.5200   -4.2475    0.0000 H   0  0  0  0  0  0  0  0  0  0  0  0
   17.1215   -4.9378    0.0000 H   0  0  0  0  0  0  0  0  0  0  0  0
    6.0747    5.7225    0.0000 H   0  0  0  0  0  0  0  0  0  0  0  0
    5.6762    6.4127    0.0000 H   0  0  0  0  0  0  0  0  0  0  0  0
    3.5200    6.4127    0.0000 H   0  0  0  0  0  0  0  0  0  0  0  0
    3.1215    5.7225    0.0000 H   0  0  0  0  0  0  0  0  0  0  0  0
   19.6762   -6.4127    0.0000 H   0  0  0  0  0  0  0  0  0  0  0  0
   20.0747   -5.7225    0.0000 H   0  0  0  0  0  0  0  0  0  0  0  0
   17.1215   -5.7225    0.0000 H   0  0  0  0  0  0  0  0  0  0  0  0
   17.5200   -6.4127    0.0000 H   0  0  0  0  0  0  0  0  0  0  0  0
    5.2087    7.2225    0.0000 H   0  0  0  0  0  0  0  0  0  0  0  0
    4.8101    7.9127    0.0000 H   0  0  0  0  0  0  0  0  0  0  0  0
   18.8101   -7.9127    0.0000 H   0  0  0  0  0  0  0  0  0  0  0  0
   19.2087   -7.2225    0.0000 H   0  0  0  0  0  0  0  0  0  0  0  0
    3.1215    7.9378    0.0000 H   0  0  0  0  0  0  0  0  0  0  0  0
    3.5200    7.2475    0.0000 H   0  0  0  0  0  0  0  0  0  0  0  0
   17.5200   -7.2475    0.0000 H   0  0  0  0  0  0  0  0  0  0  0  0
   17.1215   -7.9378    0.0000 H   0  0  0  0  0  0  0  0  0  0  0  0
    2.7881    4.0010    0.0000 H   0  0  0  0  0  0  0  0  0  0  0  0
   17.9781   -2.5981    0.0000 H   0  0  0  0  0  0  0  0  0  0  0  0
    5.2181    2.5981    0.0000 H   0  0  0  0  0  0  0  0  0  0  0  0
   20.4081   -4.0010    0.0000 H   0  0  0  0  0  0  0  0  0  0  0  0
    4.3426    8.7225    0.0000 H   0  0  0  0  0  0  0  0  0  0  0  0
    3.9441    9.4127    0.0000 H   0  0  0  0  0  0  0  0  0  0  0  0
   17.9441   -9.4127    0.0000 H   0  0  0  0  0  0  0  0  0  0  0  0
   18.3426   -8.7225    0.0000 H   0  0  0  0  0  0  0  0  0  0  0  0
    6.0155    2.3860    0.0000 H   0  0  0  0  0  0  0  0  0  0  0  0
    6.7057    1.9875    0.0000 H   0  0  0  0  0  0  0  0  0  0  0  0
   17.1807   -2.3860    0.0000 H   0  0  0  0  0  0  0  0  0  0  0  0
   16.4904   -1.9875    0.0000 H   0  0  0  0  0  0  0  0  0  0  0  0
    1.9781    2.5981    0.0000 H   0  0  0  0  0  0  0  0  0  0  0  0
   18.7881   -1.1951    0.0000 H   0  0  0  0  0  0  0  0  0  0  0  0
    4.4081    1.1951    0.0000 H   0  0  0  0  0  0  0  0  0  0  0  0
   21.2181   -2.5981    0.0000 H   0  0  0  0  0  0  0  0  0  0  0  0
    8.1807    2.8101    0.0000 H   0  0  0  0  0  0  0  0  0  0  0  0
    7.4904    3.2087    0.0000 H   0  0  0  0  0  0  0  0  0  0  0  0
   15.0155   -2.8101    0.0000 H   0  0  0  0  0  0  0  0  0  0  0  0
   15.7057   -3.2087    0.0000 H   0  0  0  0  0  0  0  0  0  0  0  0
    7.5155    1.5200    0.0000 H   0  0  0  0  0  0  0  0  0  0  0  0
    8.2057    1.1215    0.0000 H   0  0  0  0  0  0  0  0  0  0  0  0
   15.6807   -1.5200    0.0000 H   0  0  0  0  0  0  0  0  0  0  0  0
   14.9904   -1.1215    0.0000 H   0  0  0  0  0  0  0  0  0  0  0  0
    9.6807    1.9441    0.0000 H   0  0  0  0  0  0  0  0  0  0  0  0
    8.9904    2.3426    0.0000 H   0  0  0  0  0  0  0  0  0  0  0  0
   13.5155   -1.9441    0.0000 H   0  0  0  0  0  0  0  0  0  0  0  0
   14.2057   -2.3426    0.0000 H   0  0  0  0  0  0  0  0  0  0  0  0
    9.0155    0.6540    0.0000 H   0  0  0  0  0  0  0  0  0  0  0  0
    9.7057    0.2554    0.0000 H   0  0  0  0  0  0  0  0  0  0  0  0
   14.1807   -0.6540    0.0000 H   0  0  0  0  0  0  0  0  0  0  0  0
   13.4904   -0.2554    0.0000 H   0  0  0  0  0  0  0  0  0  0  0  0
   11.1807    1.0781    0.0000 H   0  0  0  0  0  0  0  0  0  0  0  0
   10.4904    1.4766    0.0000 H   0  0  0  0  0  0  0  0  0  0  0  0
   12.0155   -1.0781    0.0000 H   0  0  0  0  0  0  0  0  0  0  0  0
   12.7057   -1.4766    0.0000 H   0  0  0  0  0  0  0  0  0  0  0  0
   10.5155   -0.2121    0.0000 H   0  0  0  0  0  0  0  0  0  0  0  0
   11.2057   -0.6106    0.0000 H   0  0  0  0  0  0  0  0  0  0  0  0
   12.6807    0.2121    0.0000 H   0  0  0  0  0  0  0  0  0  0  0  0
   11.9904    0.6106    0.0000 H   0  0  0  0  0  0  0  0  0  0  0  0
    1.4631   10.5201    0.0000 H   0  0  0  0  0  0  0  0  0  0  0  0
   15.4631  -10.5201    0.0000 H   0  0  0  0  0  0  0  0  0  0  0  0
    4.2690   10.5201    0.0000 H   0  0  0  0  0  0  0  0  0  0  0  0
   18.2690  -10.5201    0.0000 H   0  0  0  0  0  0  0  0  0  0  0  0
    1.4631   12.1401    0.0000 H   0  0  0  0  0  0  0  0  0  0  0  0
   15.4631  -12.1401    0.0000 H   0  0  0  0  0  0  0  0  0  0  0  0
    4.2690   12.1401    0.0000 H   0  0  0  0  0  0  0  0  0  0  0  0
   18.2690  -12.1401    0.0000 H   0  0  0  0  0  0  0  0  0  0  0  0
  1 45  1  0  0  0  0
  2 46  1  0  0  0  0
  3 69  1  0  0  0  0
  4 70  1  0  0  0  0
  5 13  1  0  0  0  0
  5 33  1  0  0  0  0
  6 14  1  0  0  0  0
  6 34  1  0  0  0  0
  7 33  2  0  0  0  0
  8 34  2  0  0  0  0
  9 49  2  0  0  0  0
 10 50  2  0  0  0  0
 11 19  1  0  0  0  0
 11 20  1  0  0  0  0
 11 25  1  0  0  0  0
 12 21  1  0  0  0  0
 12 22  1  0  0  0  0
 12 26  1  0  0  0  0
 13 15  1  0  0  0  0
 13 16  1  0  0  0  0
 13 23  1  0  0  0  0
 14 17  1  0  0  0  0
 14 18  1  0  0  0  0
 14 24  1  0  0  0  0
 15 19  1  0  0  0  0
 15 71  1  0  0  0  0
 15 72  1  0  0  0  0
 16 20  1  0  0  0  0
 16 73  1  0  0  0  0
 16 74  1  0  0  0  0
 17 21  1  0  0  0  0
 17 75  1  0  0  0  0
 17 76  1  0  0  0  0
 18 22  1  0  0  0  0
 18 77  1  0  0  0  0
 18 78  1  0  0  0  0
 19 79  1  0  0  0  0
 19 80  1  0  0  0  0
 20 81  1  0  0  0  0
 20 82  1  0  0  0  0
 21 83  1  0  0  0  0
 21 84  1  0  0  0  0
 22 85  1  0  0  0  0
 22 86  1  0  0  0  0
 23 29  2  0  0  0  0
 23 31  1  0  0  0  0
 24 30  2  0  0  0  0
 24 32  1  0  0  0  0
 25 27  1  0  0  0  0
 25 87  1  0  0  0  0
 25 88  1  0  0  0  0
 26 28  1  0  0  0  0
 26 89  1  0  0  0  0
 26 90  1  0  0  0  0
 27 35  1  0  0  0  0
 27 91  1  0  0  0  0
 27 92  1  0  0  0  0
 28 36  1  0  0  0  0
 28 93  1  0  0  0  0
 28 94  1  0  0  0  0
 29 39  1  0  0  0  0
 29 95  1  0  0  0  0
 30 40  1  0  0  0  0
 30 96  1  0  0  0  0
 31 41  2  0  0  0  0
 31 97  1  0  0  0  0
 32 42  2  0  0  0  0
 32 98  1  0  0  0  0
 33 37  1  0  0  0  0
 34 38  1  0  0  0  0
 35 49  1  0  0  0  0
 35 99  1  0  0  0  0
 35100  1  0  0  0  0
 36 50  1  0  0  0  0
 36101  1  0  0  0  0
 36102  1  0  0  0  0
 37 43  1  0  0  0  0
 37103  1  0  0  0  0
 37104  1  0  0  0  0
 38 44  1  0  0  0  0
 38105  1  0  0  0  0
 38106  1  0  0  0  0
 39 45  2  0  0  0  0
 39107  1  0  0  0  0
 40 46  2  0  0  0  0
 40108  1  0  0  0  0
 41 45  1  0  0  0  0
 41109  1  0  0  0  0
 42 46  1  0  0  0  0
 42110  1  0  0  0  0
 43 47  1  0  0  0  0
 43111  1  0  0  0  0
 43112  1  0  0  0  0
 44 48  1  0  0  0  0
 44113  1  0  0  0  0
 44114  1  0  0  0  0
 47 51  1  0  0  0  0
 47115  1  0  0  0  0
 47116  1  0  0  0  0
 48 52  1  0  0  0  0
 48117  1  0  0  0  0
 48118  1  0  0  0  0
 49 59  1  0  0  0  0
 50 60  1  0  0  0  0
 51 53  1  0  0  0  0
 51119  1  0  0  0  0
 51120  1  0  0  0  0
 52 54  1  0  0  0  0
 52121  1  0  0  0  0
 52122  1  0  0  0  0
 53 55  1  0  0  0  0
 53123  1  0  0  0  0
 53124  1  0  0  0  0
 54 56  1  0  0  0  0
 54125  1  0  0  0  0
 54126  1  0  0  0  0
 55 57  1  0  0  0  0
 55127  1  0  0  0  0
 55128  1  0  0  0  0
 56 58  1  0  0  0  0
 56129  1  0  0  0  0
 56130  1  0  0  0  0
 57 58  1  0  0  0  0
 57131  1  0  0  0  0
 57132  1  0  0  0  0
 58133  1  0  0  0  0
 58134  1  0  0  0  0
 59 61  2  0  0  0  0
 59 63  1  0  0  0  0
 60 62  2  0  0  0  0
 60 64  1  0  0  0  0
 61 65  1  0  0  0  0
 61135  1  0  0  0  0
 62 66  1  0  0  0  0
 62136  1  0  0  0  0
 63 67  2  0  0  0  0
 63137  1  0  0  0  0
 64 68  2  0  0  0  0
 64138  1  0  0  0  0
 65 69  2  0  0  0  0
 65139  1  0  0  0  0
 66 70  2  0  0  0  0
 66140  1  0  0  0  0
 67 69  1  0  0  0  0
 67141  1  0  0  0  0
 68 70  1  0  0  0  0
 68142  1  0  0  0  0
M  END
> <PUBCHEM_COMPOUND_CID>
118709168

> <PUBCHEM_COMPOUND_CANONICALIZED>
1

> <PUBCHEM_CACTVS_COMPLEXITY>
1410

> <PUBCHEM_CACTVS_HBOND_ACCEPTOR>
10

> <PUBCHEM_CACTVS_HBOND_DONOR>
0

> <PUBCHEM_CACTVS_ROTATABLE_BOND>
31

> <PUBCHEM_CACTVS_SUBSKEYS>
AAADcfB/OYAGAAAAAAAAAAAAAAAAAAAAAAA8eMGCAAAAAAABVAAAHwIAAAAADEbBmCwwCIMABACIAqDSCAACAAAkBQAIiAEICsgIJjKBtxiGMQAmwAGIqYecyOCOhAAAAAAAAAAIAAAAAAAAAAAAAAAAAA==

> <PUBCHEM_IUPAC_OPENEYE_NAME>
bis[4-(4-chlorophenyl)-1-[4-(4-fluorophenyl)-4-oxo-butyl]-4-piperidyl] hexadecanedioate

> <PUBCHEM_IUPAC_CAS_NAME>
hexadecanedioic acid bis[4-(4-chlorophenyl)-1-[4-(4-fluorophenyl)-4-oxobutyl]-4-piperidinyl] ester

> <PUBCHEM_IUPAC_NAME_MARKUP>
bis[4-(4-chlorophenyl)-1-[4-(4-fluorophenyl)-4-oxobutyl]piperidin-4-yl] hexadecanedioate

> <PUBCHEM_IUPAC_NAME>
bis[4-(4-chlorophenyl)-1-[4-(4-fluorophenyl)-4-oxobutyl]piperidin-4-yl] hexadecanedioate

> <PUBCHEM_IUPAC_SYSTEMATIC_NAME>
bis[4-(4-chlorophenyl)-1-[4-(4-fluorophenyl)-4-oxidanylidene-butyl]piperidin-4-yl] hexadecanedioate

> <PUBCHEM_IUPAC_TRADITIONAL_NAME>
thapsic acid bis[4-(4-chlorophenyl)-1-[4-(4-fluorophenyl)-4-keto-butyl]-4-piperidyl] ester

> <PUBCHEM_IUPAC_INCHI>
InChI=1S/C58H72Cl2F2N2O6/c59-49-27-23-47(24-28-49)57(35-41-63(42-36-57)39-13-15-53(65)45-19-31-51(61)32-20-45)69-55(67)17-11-9-7-5-3-1-2-4-6-8-10-12-18-56(68)70-58(48-25-29-50(60)30-26-48)37-43-64(44-38-58)40-14-16-54(66)46-21-33-52(62)34-22-46/h19-34H,1-18,35-44H2

> <PUBCHEM_IUPAC_INCHIKEY>
APANCCIVVADHPY-UHFFFAOYSA-N

> <PUBCHEM_XLOGP3_AA>
14.6

> <PUBCHEM_EXACT_MASS>
1000.4735497

> <PUBCHEM_MOLECULAR_FORMULA>
C58H72Cl2F2N2O6

> <PUBCHEM_MOLECULAR_WEIGHT>
1002.1

> <PUBCHEM_OPENEYE_CAN_SMILES>
C1CN(CCC1(C2=CC=C(C=C2)Cl)OC(=O)CCCCCCCCCCCCCCC(=O)OC3(CCN(CC3)CCCC(=O)C4=CC=C(C=C4)F)C5=CC=C(C=C5)Cl)CCCC(=O)C6=CC=C(C=C6)F

> <PUBCHEM_OPENEYE_ISO_SMILES>
C1CN(CCC1(C2=CC=C(C=C2)Cl)OC(=O)CCCCCCCCCCCCCCC(=O)OC3(CCN(CC3)CCCC(=O)C4=CC=C(C=C4)F)C5=CC=C(C=C5)Cl)CCCC(=O)C6=CC=C(C=C6)F

> <PUBCHEM_CACTVS_TPSA>
93.2

> <PUBCHEM_MONOISOTOPIC_WEIGHT>
1000.4735497

> <PUBCHEM_TOTAL_CHARGE>
0

> <PUBCHEM_HEAVY_ATOM_COUNT>
70

> <PUBCHEM_ATOM_DEF_STEREO_COUNT>
0

> <PUBCHEM_ATOM_UDEF_STEREO_COUNT>
0

> <PUBCHEM_BOND_DEF_STEREO_COUNT>
0

> <PUBCHEM_BOND_UDEF_STEREO_COUNT>
0

> <PUBCHEM_ISOTOPIC_ATOM_COUNT>
0

> <PUBCHEM_COMPONENT_COUNT>
1

> <PUBCHEM_CACTVS_TAUTO_COUNT>
-1

> <PUBCHEM_COORDINATE_TYPE>
1
5
255

> <PUBCHEM_BONDANNOTATIONS>
23  29  8
23  31  8
24  30  8
24  32  8
29  39  8
30  40  8
31  41  8
32  42  8
39  45  8
40  46  8
41  45  8
42  46  8
59  61  8
59  63  8
60  62  8
60  64  8
61  65  8
62  66  8
63  67  8
64  68  8
65  69  8
66  70  8
67  69  8
68  70  8

$$$$
