134131970
  -OEChem-09292322382D

 64 68  0     1  0  0  0  0  0999 V2000
    3.5998    4.8312    0.0000 S   0  0  0  0  0  0  0  0  0  0  0  0
    2.6493    4.5205    0.0000 O   0  0  0  0  0  0  0  0  0  0  0  0
    4.5504    5.1418    0.0000 O   0  0  0  0  0  0  0  0  0  0  0  0
    7.7419   -6.4605    0.0000 O   0  0  0  0  0  0  0  0  0  0  0  0
    6.6681   -0.4733    0.0000 N   0  0  3  0  0  0  0  0  0  0  0  0
    3.9105    3.8807    0.0000 N   0  0  0  0  0  0  0  0  0  0  0  0
    6.0698   -6.0088    0.0000 N   0  0  0  0  0  0  0  0  0  0  0  0
    6.2233    1.2007    0.0000 C   0  0  3  0  0  0  0  0  0  0  0  0
    5.7227    2.0759    0.0000 C   0  0  0  0  0  0  0  0  0  0  0  0
    7.0965    1.7048    0.0000 C   0  0  0  0  0  0  0  0  0  0  0  0
    6.5888    2.5759    0.0000 C   0  0  0  0  0  0  0  0  0  0  0  0
    5.9625    0.2353    0.0000 C   0  0  0  0  0  0  0  0  0  0  0  0
    4.8567    2.5759    0.0000 C   0  0  0  0  0  0  0  0  0  0  0  0
    4.8567    3.5759    0.0000 C   0  0  0  0  0  0  0  0  0  0  0  0
    6.5888    3.5759    0.0000 C   0  0  0  0  0  0  0  0  0  0  0  0
    5.7227    4.0759    0.0000 C   0  0  0  0  0  0  0  0  0  0  0  0
    3.9105    2.2712    0.0000 C   0  0  0  0  0  0  0  0  0  0  0  0
    6.4073   -1.4387    0.0000 C   0  0  0  0  0  0  0  0  0  0  0  0
    3.3269    3.0759    0.0000 C   0  0  0  0  0  0  0  0  0  0  0  0
    7.6346   -0.2164    0.0000 C   0  0  0  0  0  0  0  0  0  0  0  0
    7.1130   -2.1472    0.0000 C   0  0  0  0  0  0  0  0  0  0  0  0
    3.2892    5.7817    0.0000 C   0  0  0  0  0  0  0  0  0  0  0  0
    6.8522   -3.1126    0.0000 C   0  0  0  0  0  0  0  0  0  0  0  0
    3.9570    6.5260    0.0000 C   0  0  0  0  0  0  0  0  0  0  0  0
    2.3107    5.9879    0.0000 C   0  0  0  0  0  0  0  0  0  0  0  0
    5.8857   -3.3695    0.0000 C   0  0  0  0  0  0  0  0  0  0  0  0
    7.5578   -3.8212    0.0000 C   0  0  0  0  0  0  0  0  0  0  0  0
    3.6464    7.4765    0.0000 C   0  0  0  0  0  0  0  0  0  0  0  0
    2.0000    6.9384    0.0000 C   0  0  0  0  0  0  0  0  0  0  0  0
    5.6249   -4.3348    0.0000 C   0  0  0  0  0  0  0  0  0  0  0  0
    7.2970   -4.7866    0.0000 C   0  0  0  0  0  0  0  0  0  0  0  0
    6.3306   -5.0434    0.0000 C   0  0  0  0  0  0  0  0  0  0  0  0
    2.6678    7.6828    0.0000 C   0  0  0  0  0  0  0  0  0  0  0  0
    6.7754   -6.7174    0.0000 C   0  0  0  0  0  0  0  0  0  0  0  0
    6.5146   -7.6828    0.0000 C   0  0  0  0  0  0  0  0  0  0  0  0
    5.6084    1.1216    0.0000 H   0  0  0  0  0  0  0  0  0  0  0  0
    7.4072    1.1683    0.0000 H   0  0  0  0  0  0  0  0  0  0  0  0
    7.6326    2.0163    0.0000 H   0  0  0  0  0  0  0  0  0  0  0  0
    5.4011    0.4985    0.0000 H   0  0  0  0  0  0  0  0  0  0  0  0
    5.6058   -0.2719    0.0000 H   0  0  0  0  0  0  0  0  0  0  0  0
    7.1257    3.8859    0.0000 H   0  0  0  0  0  0  0  0  0  0  0  0
    5.7227    4.6959    0.0000 H   0  0  0  0  0  0  0  0  0  0  0  0
    3.7179    1.6819    0.0000 H   0  0  0  0  0  0  0  0  0  0  0  0
    5.8460   -1.1755    0.0000 H   0  0  0  0  0  0  0  0  0  0  0  0
    6.0507   -1.9458    0.0000 H   0  0  0  0  0  0  0  0  0  0  0  0
    2.7069    3.0759    0.0000 H   0  0  0  0  0  0  0  0  0  0  0  0
    7.7938   -0.8157    0.0000 H   0  0  0  0  0  0  0  0  0  0  0  0
    8.2338   -0.0572    0.0000 H   0  0  0  0  0  0  0  0  0  0  0  0
    7.4754    0.3828    0.0000 H   0  0  0  0  0  0  0  0  0  0  0  0
    7.6744   -2.4104    0.0000 H   0  0  0  0  0  0  0  0  0  0  0  0
    7.4696   -1.6401    0.0000 H   0  0  0  0  0  0  0  0  0  0  0  0
    4.5637    6.3982    0.0000 H   0  0  0  0  0  0  0  0  0  0  0  0
    1.8966    5.5265    0.0000 H   0  0  0  0  0  0  0  0  0  0  0  0
    5.4482   -2.9301    0.0000 H   0  0  0  0  0  0  0  0  0  0  0  0
    8.1570   -3.6620    0.0000 H   0  0  0  0  0  0  0  0  0  0  0  0
    4.0604    7.9380    0.0000 H   0  0  0  0  0  0  0  0  0  0  0  0
    1.3933    7.0663    0.0000 H   0  0  0  0  0  0  0  0  0  0  0  0
    5.0257   -4.4941    0.0000 H   0  0  0  0  0  0  0  0  0  0  0  0
    7.7345   -5.2259    0.0000 H   0  0  0  0  0  0  0  0  0  0  0  0
    2.4752    8.2721    0.0000 H   0  0  0  0  0  0  0  0  0  0  0  0
    5.4706   -6.1680    0.0000 H   0  0  0  0  0  0  0  0  0  0  0  0
    5.9161   -7.5210    0.0000 H   0  0  0  0  0  0  0  0  0  0  0  0
    6.3529   -8.2813    0.0000 H   0  0  0  0  0  0  0  0  0  0  0  0
    7.1132   -7.8444    0.0000 H   0  0  0  0  0  0  0  0  0  0  0  0
  1  2  2  0  0  0  0
  1  3  2  0  0  0  0
  1  6  1  0  0  0  0
  1 22  1  0  0  0  0
  4 34  2  0  0  0  0
  5 12  1  0  0  0  0
  5 18  1  0  0  0  0
  5 20  1  0  0  0  0
  6 14  1  0  0  0  0
  6 19  1  0  0  0  0
  7 32  1  0  0  0  0
  7 34  1  0  0  0  0
  7 61  1  0  0  0  0
  8  9  1  0  0  0  0
  8 10  1  0  0  0  0
  8 12  1  0  0  0  0
  8 36  1  0  0  0  0
  9 11  2  0  0  0  0
  9 13  1  0  0  0  0
 10 11  1  0  0  0  0
 10 37  1  0  0  0  0
 10 38  1  0  0  0  0
 11 15  1  0  0  0  0
 12 39  1  0  0  0  0
 12 40  1  0  0  0  0
 13 14  2  0  0  0  0
 13 17  1  0  0  0  0
 14 16  1  0  0  0  0
 15 16  2  0  0  0  0
 15 41  1  0  0  0  0
 16 42  1  0  0  0  0
 17 19  2  0  0  0  0
 17 43  1  0  0  0  0
 18 21  1  0  0  0  0
 18 44  1  0  0  0  0
 18 45  1  0  0  0  0
 19 46  1  0  0  0  0
 20 47  1  0  0  0  0
 20 48  1  0  0  0  0
 20 49  1  0  0  0  0
 21 23  1  0  0  0  0
 21 50  1  0  0  0  0
 21 51  1  0  0  0  0
 22 24  2  0  0  0  0
 22 25  1  0  0  0  0
 23 26  2  0  0  0  0
 23 27  1  0  0  0  0
 24 28  1  0  0  0  0
 24 52  1  0  0  0  0
 25 29  2  0  0  0  0
 25 53  1  0  0  0  0
 26 30  1  0  0  0  0
 26 54  1  0  0  0  0
 27 31  2  0  0  0  0
 27 55  1  0  0  0  0
 28 33  2  0  0  0  0
 28 56  1  0  0  0  0
 29 33  1  0  0  0  0
 29 57  1  0  0  0  0
 30 32  2  0  0  0  0
 30 58  1  0  0  0  0
 31 32  1  0  0  0  0
 31 59  1  0  0  0  0
 33 60  1  0  0  0  0
 34 35  1  0  0  0  0
 35 62  1  0  0  0  0
 35 63  1  0  0  0  0
 35 64  1  0  0  0  0
M  END
> <PUBCHEM_COMPOUND_CID>
134131970

> <PUBCHEM_COMPOUND_CANONICALIZED>
1

> <PUBCHEM_CACTVS_COMPLEXITY>
829

> <PUBCHEM_CACTVS_HBOND_ACCEPTOR>
4

> <PUBCHEM_CACTVS_HBOND_DONOR>
1

> <PUBCHEM_CACTVS_ROTATABLE_BOND>
8

> <PUBCHEM_CACTVS_SUBSKEYS>
AAADceB7MABAAAAAAAAAAAAAAABgAWAAAAAwYMAAAAAYAFgB9AAAHgQQQAAADQjB3gQ+wfPIEAKoAzV3VHDCgDAxAiAI2Dg4ZJgIIOLAkZGEIAhglADIyAcQgMAOiAACQAASAAAQAASAACQAAAAAAAAAAA==

> <PUBCHEM_IUPAC_OPENEYE_NAME>
N-[4-[2-[[3-(benzenesulfonyl)-6,7-dihydrocyclobuta[e]indol-7-yl]methyl-methyl-amino]ethyl]phenyl]acetamide

> <PUBCHEM_IUPAC_CAS_NAME>
N-[4-[2-[[3-(benzenesulfonyl)-6,7-dihydrocyclobuta[e]indol-7-yl]methyl-methylamino]ethyl]phenyl]acetamide

> <PUBCHEM_IUPAC_NAME_MARKUP>
<I>N</I>-[4-[2-[[3-(benzenesulfonyl)-6,7-dihydrocyclobuta[e]indol-7-yl]methyl-methylamino]ethyl]phenyl]acetamide

> <PUBCHEM_IUPAC_NAME>
N-[4-[2-[[3-(benzenesulfonyl)-6,7-dihydrocyclobuta[e]indol-7-yl]methyl-methylamino]ethyl]phenyl]acetamide

> <PUBCHEM_IUPAC_SYSTEMATIC_NAME>
N-[4-[2-[methyl-[[3-(phenylsulfonyl)-6,7-dihydrocyclobuta[e]indol-7-yl]methyl]amino]ethyl]phenyl]ethanamide

> <PUBCHEM_IUPAC_TRADITIONAL_NAME>
N-[4-[2-[(3-besyl-6,7-dihydrocyclobut[e]indol-7-yl)methyl-methyl-amino]ethyl]phenyl]acetamide

> <PUBCHEM_IUPAC_INCHI>
InChI=1S/C28H29N3O3S/c1-20(32)29-24-11-8-21(9-12-24)14-16-30(2)19-23-18-22-10-13-27-26(28(22)23)15-17-31(27)35(33,34)25-6-4-3-5-7-25/h3-13,15,17,23H,14,16,18-19H2,1-2H3,(H,29,32)

> <PUBCHEM_IUPAC_INCHIKEY>
FVSOIPSTCDDDHQ-UHFFFAOYSA-N

> <PUBCHEM_XLOGP3_AA>
3.6

> <PUBCHEM_EXACT_MASS>
487.19296297

> <PUBCHEM_MOLECULAR_FORMULA>
C28H29N3O3S

> <PUBCHEM_MOLECULAR_WEIGHT>
487.6

> <PUBCHEM_OPENEYE_CAN_SMILES>
CC(=O)NC1=CC=C(C=C1)CCN(C)CC2CC3=C2C4=C(C=C3)N(C=C4)S(=O)(=O)C5=CC=CC=C5

> <PUBCHEM_OPENEYE_ISO_SMILES>
CC(=O)NC1=CC=C(C=C1)CCN(C)CC2CC3=C2C4=C(C=C3)N(C=C4)S(=O)(=O)C5=CC=CC=C5

> <PUBCHEM_CACTVS_TPSA>
79.8

> <PUBCHEM_MONOISOTOPIC_WEIGHT>
487.19296297

> <PUBCHEM_TOTAL_CHARGE>
0

> <PUBCHEM_HEAVY_ATOM_COUNT>
35

> <PUBCHEM_ATOM_DEF_STEREO_COUNT>
0

> <PUBCHEM_ATOM_UDEF_STEREO_COUNT>
1

> <PUBCHEM_BOND_DEF_STEREO_COUNT>
0

> <PUBCHEM_BOND_UDEF_STEREO_COUNT>
0

> <PUBCHEM_ISOTOPIC_ATOM_COUNT>
0

> <PUBCHEM_COMPONENT_COUNT>
1

> <PUBCHEM_CACTVS_TAUTO_COUNT>
-1

> <PUBCHEM_COORDINATE_TYPE>
1
5
255

> <PUBCHEM_BONDANNOTATIONS>
11  15  8
13  14  8
13  17  8
14  16  8
15  16  8
17  19  8
22  24  8
22  25  8
23  26  8
23  27  8
24  28  8
25  29  8
26  30  8
27  31  8
28  33  8
29  33  8
30  32  8
31  32  8
6  14  8
6  19  8
8  12  3
9  11  8
9  13  8

$$$$
