122180611
  -OEChem-09292322362D

 63 67  0     0  0  0  0  0  0999 V2000
    4.1701   -0.6029    0.0000 O   0  0  0  0  0  0  0  0  0  0  0  0
    6.9726    1.4332    0.0000 N   0  0  0  0  0  0  0  0  0  0  0  0
    4.9836    1.2242    0.0000 N   0  0  0  0  0  0  0  0  0  0  0  0
   11.1317    0.1288    0.0000 N   0  0  0  0  0  0  0  0  0  0  0  0
   11.6317    0.9948    0.0000 N   0  0  0  0  0  0  0  0  0  0  0  0
   12.6099    0.7869    0.0000 N   0  0  0  0  0  0  0  0  0  0  0  0
   16.2064   -2.2423    0.0000 N   0  0  0  0  0  0  0  0  0  0  0  0
    6.5659    0.5197    0.0000 C   0  0  0  0  0  0  0  0  0  0  0  0
    6.3848    2.2423    0.0000 C   0  0  0  0  0  0  0  0  0  0  0  0
    5.5714    0.4152    0.0000 C   0  0  0  0  0  0  0  0  0  0  0  0
    5.3903    2.1377    0.0000 C   0  0  0  0  0  0  0  0  0  0  0  0
    7.9671    1.5378    0.0000 C   0  0  0  0  0  0  0  0  0  0  0  0
    8.5549    0.7288    0.0000 C   0  0  0  0  0  0  0  0  0  0  0  0
    9.5494    0.8333    0.0000 C   0  0  0  0  0  0  0  0  0  0  0  0
    3.9890    1.1197    0.0000 C   0  0  0  0  0  0  0  0  0  0  0  0
   10.1372    0.0243    0.0000 C   0  0  0  0  0  0  0  0  0  0  0  0
    3.5823    0.2061    0.0000 C   0  0  0  0  0  0  0  0  0  0  0  0
    3.4013    1.9287    0.0000 C   0  0  0  0  0  0  0  0  0  0  0  0
    2.5878    0.1016    0.0000 C   0  0  0  0  0  0  0  0  0  0  0  0
    2.4067    1.8242    0.0000 C   0  0  0  0  0  0  0  0  0  0  0  0
    2.0000    0.9106    0.0000 C   0  0  0  0  0  0  0  0  0  0  0  0
   11.8009   -0.6143    0.0000 C   0  0  0  0  0  0  0  0  0  0  0  0
   12.7144   -0.2076    0.0000 C   0  0  0  0  0  0  0  0  0  0  0  0
   13.5804   -0.7076    0.0000 C   0  0  0  0  0  0  0  0  0  0  0  0
    3.7634   -1.5164    0.0000 C   0  0  0  0  0  0  0  0  0  0  0  0
   14.4465   -0.2076    0.0000 C   0  0  0  0  0  0  0  0  0  0  0  0
   13.5804   -1.7076    0.0000 C   0  0  0  0  0  0  0  0  0  0  0  0
   15.3125   -0.7076    0.0000 C   0  0  0  0  0  0  0  0  0  0  0  0
   15.3125   -1.7076    0.0000 C   0  0  0  0  0  0  0  0  0  0  0  0
   14.4465   -2.2076    0.0000 C   0  0  0  0  0  0  0  0  0  0  0  0
   16.2064   -0.1729    0.0000 C   0  0  0  0  0  0  0  0  0  0  0  0
   17.1125   -0.6868    0.0000 C   0  0  0  0  0  0  0  0  0  0  0  0
   17.1125   -1.7284    0.0000 C   0  0  0  0  0  0  0  0  0  0  0  0
    6.5226   -0.0988    0.0000 H   0  0  0  0  0  0  0  0  0  0  0  0
    7.1675    0.3697    0.0000 H   0  0  0  0  0  0  0  0  0  0  0  0
    6.9421    2.5141    0.0000 H   0  0  0  0  0  0  0  0  0  0  0  0
    6.2139    2.8382    0.0000 H   0  0  0  0  0  0  0  0  0  0  0  0
    5.0141    0.1434    0.0000 H   0  0  0  0  0  0  0  0  0  0  0  0
    5.7422   -0.1808    0.0000 H   0  0  0  0  0  0  0  0  0  0  0  0
    5.4336    2.7562    0.0000 H   0  0  0  0  0  0  0  0  0  0  0  0
    4.7887    2.2877    0.0000 H   0  0  0  0  0  0  0  0  0  0  0  0
    8.5244    1.8096    0.0000 H   0  0  0  0  0  0  0  0  0  0  0  0
    7.7962    2.1338    0.0000 H   0  0  0  0  0  0  0  0  0  0  0  0
    7.9977    0.4570    0.0000 H   0  0  0  0  0  0  0  0  0  0  0  0
    8.7258    0.1328    0.0000 H   0  0  0  0  0  0  0  0  0  0  0  0
   10.1067    1.1051    0.0000 H   0  0  0  0  0  0  0  0  0  0  0  0
    9.3785    1.4293    0.0000 H   0  0  0  0  0  0  0  0  0  0  0  0
    9.5800   -0.2475    0.0000 H   0  0  0  0  0  0  0  0  0  0  0  0
   10.3081   -0.5717    0.0000 H   0  0  0  0  0  0  0  0  0  0  0  0
    3.6534    2.4951    0.0000 H   0  0  0  0  0  0  0  0  0  0  0  0
    2.3356   -0.4648    0.0000 H   0  0  0  0  0  0  0  0  0  0  0  0
    2.0423    2.3257    0.0000 H   0  0  0  0  0  0  0  0  0  0  0  0
    1.3834    0.8458    0.0000 H   0  0  0  0  0  0  0  0  0  0  0  0
   11.6720   -1.2208    0.0000 H   0  0  0  0  0  0  0  0  0  0  0  0
    3.1970   -1.2643    0.0000 H   0  0  0  0  0  0  0  0  0  0  0  0
    3.5112   -2.0828    0.0000 H   0  0  0  0  0  0  0  0  0  0  0  0
    4.3298   -1.7686    0.0000 H   0  0  0  0  0  0  0  0  0  0  0  0
   14.4465    0.4124    0.0000 H   0  0  0  0  0  0  0  0  0  0  0  0
   13.0435   -2.0176    0.0000 H   0  0  0  0  0  0  0  0  0  0  0  0
   14.4465   -2.8276    0.0000 H   0  0  0  0  0  0  0  0  0  0  0  0
   16.1993    0.4470    0.0000 H   0  0  0  0  0  0  0  0  0  0  0  0
   17.6482   -0.3747    0.0000 H   0  0  0  0  0  0  0  0  0  0  0  0
   17.6482   -2.0405    0.0000 H   0  0  0  0  0  0  0  0  0  0  0  0
  1 17  1  0  0  0  0
  1 25  1  0  0  0  0
  2  8  1  0  0  0  0
  2  9  1  0  0  0  0
  2 12  1  0  0  0  0
  3 10  1  0  0  0  0
  3 11  1  0  0  0  0
  3 15  1  0  0  0  0
  4  5  1  0  0  0  0
  4 16  1  0  0  0  0
  4 22  1  0  0  0  0
  5  6  2  0  0  0  0
  6 23  1  0  0  0  0
  7 29  1  0  0  0  0
  7 33  2  0  0  0  0
  8 10  1  0  0  0  0
  8 34  1  0  0  0  0
  8 35  1  0  0  0  0
  9 11  1  0  0  0  0
  9 36  1  0  0  0  0
  9 37  1  0  0  0  0
 10 38  1  0  0  0  0
 10 39  1  0  0  0  0
 11 40  1  0  0  0  0
 11 41  1  0  0  0  0
 12 13  1  0  0  0  0
 12 42  1  0  0  0  0
 12 43  1  0  0  0  0
 13 14  1  0  0  0  0
 13 44  1  0  0  0  0
 13 45  1  0  0  0  0
 14 16  1  0  0  0  0
 14 46  1  0  0  0  0
 14 47  1  0  0  0  0
 15 17  1  0  0  0  0
 15 18  2  0  0  0  0
 16 48  1  0  0  0  0
 16 49  1  0  0  0  0
 17 19  2  0  0  0  0
 18 20  1  0  0  0  0
 18 50  1  0  0  0  0
 19 21  1  0  0  0  0
 19 51  1  0  0  0  0
 20 21  2  0  0  0  0
 20 52  1  0  0  0  0
 21 53  1  0  0  0  0
 22 23  2  0  0  0  0
 22 54  1  0  0  0  0
 23 24  1  0  0  0  0
 24 26  2  0  0  0  0
 24 27  1  0  0  0  0
 25 55  1  0  0  0  0
 25 56  1  0  0  0  0
 25 57  1  0  0  0  0
 26 28  1  0  0  0  0
 26 58  1  0  0  0  0
 27 30  2  0  0  0  0
 27 59  1  0  0  0  0
 28 29  2  0  0  0  0
 28 31  1  0  0  0  0
 29 30  1  0  0  0  0
 30 60  1  0  0  0  0
 31 32  2  0  0  0  0
 31 61  1  0  0  0  0
 32 33  1  0  0  0  0
 32 62  1  0  0  0  0
 33 63  1  0  0  0  0
M  END
> <PUBCHEM_COMPOUND_CID>
122180611

> <PUBCHEM_COMPOUND_CANONICALIZED>
1

> <PUBCHEM_CACTVS_COMPLEXITY>
585

> <PUBCHEM_CACTVS_HBOND_ACCEPTOR>
6

> <PUBCHEM_CACTVS_HBOND_DONOR>
0

> <PUBCHEM_CACTVS_ROTATABLE_BOND>
8

> <PUBCHEM_CACTVS_SUBSKEYS>
AAADceB7oAAAAAAAAAAAAAAAAAAAAWAAAAA8eIEAAAAAAACx/AAAHgAIAAAADAzBngY+xvMIFACiAzRnRACCjCQxsiAY2CA/fJgOZuLEsZuVMChkwBHY6AeQwMAOCAACAAACEAAQAAQAAAQgAAAAAAAAAA==

> <PUBCHEM_IUPAC_OPENEYE_NAME>
6-[1-[4-[4-(2-methoxyphenyl)piperazin-1-yl]butyl]triazol-4-yl]quinoline

> <PUBCHEM_IUPAC_CAS_NAME>
6-[1-[4-[4-(2-methoxyphenyl)-1-piperazinyl]butyl]-4-triazolyl]quinoline

> <PUBCHEM_IUPAC_NAME_MARKUP>
6-[1-[4-[4-(2-methoxyphenyl)piperazin-1-yl]butyl]triazol-4-yl]quinoline

> <PUBCHEM_IUPAC_NAME>
6-[1-[4-[4-(2-methoxyphenyl)piperazin-1-yl]butyl]triazol-4-yl]quinoline

> <PUBCHEM_IUPAC_SYSTEMATIC_NAME>
6-[1-[4-[4-(2-methoxyphenyl)piperazin-1-yl]butyl]-1,2,3-triazol-4-yl]quinoline

> <PUBCHEM_IUPAC_TRADITIONAL_NAME>
6-[1-[4-[4-(2-methoxyphenyl)piperazino]butyl]triazol-4-yl]quinoline

> <PUBCHEM_IUPAC_INCHI>
InChI=1S/C26H30N6O/c1-33-26-9-3-2-8-25(26)31-17-15-30(16-18-31)13-4-5-14-32-20-24(28-29-32)22-10-11-23-21(19-22)7-6-12-27-23/h2-3,6-12,19-20H,4-5,13-18H2,1H3

> <PUBCHEM_IUPAC_INCHIKEY>
DFHPWPGRLKWZOX-UHFFFAOYSA-N

> <PUBCHEM_XLOGP3_AA>
3.9

> <PUBCHEM_EXACT_MASS>
442.24810960

> <PUBCHEM_MOLECULAR_FORMULA>
C26H30N6O

> <PUBCHEM_MOLECULAR_WEIGHT>
442.6

> <PUBCHEM_OPENEYE_CAN_SMILES>
COC1=CC=CC=C1N2CCN(CC2)CCCCN3C=C(N=N3)C4=CC5=C(C=C4)N=CC=C5

> <PUBCHEM_OPENEYE_ISO_SMILES>
COC1=CC=CC=C1N2CCN(CC2)CCCCN3C=C(N=N3)C4=CC5=C(C=C4)N=CC=C5

> <PUBCHEM_CACTVS_TPSA>
59.3

> <PUBCHEM_MONOISOTOPIC_WEIGHT>
442.24810960

> <PUBCHEM_TOTAL_CHARGE>
0

> <PUBCHEM_HEAVY_ATOM_COUNT>
33

> <PUBCHEM_ATOM_DEF_STEREO_COUNT>
0

> <PUBCHEM_ATOM_UDEF_STEREO_COUNT>
0

> <PUBCHEM_BOND_DEF_STEREO_COUNT>
0

> <PUBCHEM_BOND_UDEF_STEREO_COUNT>
0

> <PUBCHEM_ISOTOPIC_ATOM_COUNT>
0

> <PUBCHEM_COMPONENT_COUNT>
1

> <PUBCHEM_CACTVS_TAUTO_COUNT>
-1

> <PUBCHEM_COORDINATE_TYPE>
1
5
255

> <PUBCHEM_BONDANNOTATIONS>
15  17  8
15  18  8
17  19  8
18  20  8
19  21  8
20  21  8
22  23  8
24  26  8
24  27  8
26  28  8
27  30  8
28  29  8
28  31  8
29  30  8
31  32  8
32  33  8
4  22  8
4  5  8
5  6  8
6  23  8
7  29  8
7  33  8

$$$$
