25129459
  -OEChem-09292322232D

 52 56  0     1  0  0  0  0  0999 V2000
    8.8914    4.7989    0.0000 Cl  0  0  0  0  0  0  0  0  0  0  0  0
    7.5409    1.4558    0.0000 O   0  0  0  0  0  0  0  0  0  0  0  0
    6.4103   -4.6036    0.0000 O   0  0  0  0  0  0  0  0  0  0  0  0
    2.8660   -2.7989    0.0000 O   0  0  0  0  0  0  0  0  0  0  0  0
    7.6995   -1.8374    0.0000 N   0  0  0  0  0  0  0  0  0  0  0  0
    9.4689   -0.8917    0.0000 C   0  0  2  0  0  0  0  0  0  0  0  0
    8.9228   -1.7295    0.0000 C   0  0  1  0  0  0  0  0  0  0  0  0
    8.3279    0.8388    0.0000 C   0  0  0  0  0  0  0  0  0  0  0  0
    9.2977    0.5952    0.0000 C   0  0  0  0  0  0  0  0  0  0  0  0
    7.7965   -0.0083    0.0000 C   0  0  0  0  0  0  0  0  0  0  0  0
   10.7819   -1.5932    0.0000 C   0  0  0  0  0  0  0  0  0  0  0  0
   10.2358   -2.4309    0.0000 C   0  0  0  0  0  0  0  0  0  0  0  0
    6.7210   -2.0436    0.0000 C   0  0  0  0  0  0  0  0  0  0  0  0
    8.4688    1.8288    0.0000 C   0  0  0  0  0  0  0  0  0  0  0  0
    6.4103   -2.9942    0.0000 C   0  0  0  0  0  0  0  0  0  0  0  0
    9.3966    2.2018    0.0000 C   0  0  0  0  0  0  0  0  0  0  0  0
    7.6818    2.4458    0.0000 C   0  0  0  0  0  0  0  0  0  0  0  0
    5.4641   -3.2989    0.0000 C   0  0  0  0  0  0  0  0  0  0  0  0
    6.9939   -3.7989    0.0000 C   0  0  0  0  0  0  0  0  0  0  0  0
    9.5375    3.1918    0.0000 C   0  0  0  0  0  0  0  0  0  0  0  0
    7.8227    3.4359    0.0000 C   0  0  0  0  0  0  0  0  0  0  0  0
    5.4641   -4.2989    0.0000 C   0  0  0  0  0  0  0  0  0  0  0  0
    8.7505    3.8089    0.0000 C   0  0  0  0  0  0  0  0  0  0  0  0
    4.5981   -2.7989    0.0000 C   0  0  0  0  0  0  0  0  0  0  0  0
    4.5981   -4.7989    0.0000 C   0  0  0  0  0  0  0  0  0  0  0  0
    3.7320   -3.2989    0.0000 C   0  0  0  0  0  0  0  0  0  0  0  0
    3.7320   -4.2989    0.0000 C   0  0  0  0  0  0  0  0  0  0  0  0
    2.0000   -3.2989    0.0000 C   0  0  0  0  0  0  0  0  0  0  0  0
    9.9331   -0.1797    0.0000 H   0  0  0  0  0  0  0  0  0  0  0  0
    8.4586   -2.4415    0.0000 H   0  0  0  0  0  0  0  0  0  0  0  0
    9.9177    0.5917    0.0000 H   0  0  0  0  0  0  0  0  0  0  0  0
    9.3756    1.2103    0.0000 H   0  0  0  0  0  0  0  0  0  0  0  0
    7.3239    0.3929    0.0000 H   0  0  0  0  0  0  0  0  0  0  0  0
    7.3317   -0.4186    0.0000 H   0  0  0  0  0  0  0  0  0  0  0  0
   11.3109   -1.9165    0.0000 H   0  0  0  0  0  0  0  0  0  0  0  0
   11.0898   -1.0550    0.0000 H   0  0  0  0  0  0  0  0  0  0  0  0
    9.9279   -2.9690    0.0000 H   0  0  0  0  0  0  0  0  0  0  0  0
   10.7648   -2.7542    0.0000 H   0  0  0  0  0  0  0  0  0  0  0  0
    6.7004   -1.4240    0.0000 H   0  0  0  0  0  0  0  0  0  0  0  0
    6.1072   -1.9563    0.0000 H   0  0  0  0  0  0  0  0  0  0  0  0
    6.9657    1.2246    0.0000 H   0  0  0  0  0  0  0  0  0  0  0  0
    9.8845    1.8193    0.0000 H   0  0  0  0  0  0  0  0  0  0  0  0
    7.1066    2.2146    0.0000 H   0  0  0  0  0  0  0  0  0  0  0  0
    7.6139   -3.7989    0.0000 H   0  0  0  0  0  0  0  0  0  0  0  0
   10.1127    3.4231    0.0000 H   0  0  0  0  0  0  0  0  0  0  0  0
    7.3348    3.8184    0.0000 H   0  0  0  0  0  0  0  0  0  0  0  0
    4.5981   -2.1789    0.0000 H   0  0  0  0  0  0  0  0  0  0  0  0
    4.5981   -5.4189    0.0000 H   0  0  0  0  0  0  0  0  0  0  0  0
    3.1951   -4.6089    0.0000 H   0  0  0  0  0  0  0  0  0  0  0  0
    1.6900   -2.7620    0.0000 H   0  0  0  0  0  0  0  0  0  0  0  0
    1.4631   -3.6089    0.0000 H   0  0  0  0  0  0  0  0  0  0  0  0
    2.3100   -3.8358    0.0000 H   0  0  0  0  0  0  0  0  0  0  0  0
  1 23  1  0  0  0  0
  2  8  1  0  0  0  0
  2 41  1  0  0  0  0
  3 19  1  0  0  0  0
  3 22  1  0  0  0  0
  4 26  1  0  0  0  0
  4 28  1  0  0  0  0
  5  6  1  0  0  0  0
  5  7  1  0  0  0  0
  5 13  1  0  0  0  0
  6  9  1  0  0  0  0
  6 11  1  0  0  0  0
  6 29  1  1  0  0  0
  7 10  1  0  0  0  0
  7 12  1  0  0  0  0
  7 30  1  6  0  0  0
  8  9  1  0  0  0  0
  8 10  1  0  0  0  0
  8 14  1  0  0  0  0
  9 31  1  0  0  0  0
  9 32  1  0  0  0  0
 10 33  1  0  0  0  0
 10 34  1  0  0  0  0
 11 12  1  0  0  0  0
 11 35  1  0  0  0  0
 11 36  1  0  0  0  0
 12 37  1  0  0  0  0
 12 38  1  0  0  0  0
 13 15  1  0  0  0  0
 13 39  1  0  0  0  0
 13 40  1  0  0  0  0
 14 16  2  0  0  0  0
 14 17  1  0  0  0  0
 15 18  1  0  0  0  0
 15 19  2  0  0  0  0
 16 20  1  0  0  0  0
 16 42  1  0  0  0  0
 17 21  2  0  0  0  0
 17 43  1  0  0  0  0
 18 22  2  0  0  0  0
 18 24  1  0  0  0  0
 19 44  1  0  0  0  0
 20 23  2  0  0  0  0
 20 45  1  0  0  0  0
 21 23  1  0  0  0  0
 21 46  1  0  0  0  0
 22 25  1  0  0  0  0
 24 26  2  0  0  0  0
 24 47  1  0  0  0  0
 25 27  2  0  0  0  0
 25 48  1  0  0  0  0
 26 27  1  0  0  0  0
 27 49  1  0  0  0  0
 28 50  1  0  0  0  0
 28 51  1  0  0  0  0
 28 52  1  0  0  0  0
M  END
> <PUBCHEM_COMPOUND_CID>
25129459

> <PUBCHEM_COMPOUND_CANONICALIZED>
1

> <PUBCHEM_CACTVS_COMPLEXITY>
538

> <PUBCHEM_CACTVS_HBOND_ACCEPTOR>
4

> <PUBCHEM_CACTVS_HBOND_DONOR>
1

> <PUBCHEM_CACTVS_ROTATABLE_BOND>
4

> <PUBCHEM_CACTVS_SUBSKEYS>
AAADceB6MAAEAAAAAAAAAAAAAAAAAWJAAAA8YIAABgAAAEgB9AAAHgIACAAADG7hmCYyBsMABkCIAqhSgACCCAAkJQAIiAEODsgMJjqFtxuGeSjmwBGIuYf+/P7OhQABAAAIAAAKAAIAABAAAAAAAAAAAA==

> <PUBCHEM_IUPAC_OPENEYE_NAME>
(1S,5R)-3-(4-chlorophenyl)-8-[(5-methoxybenzofuran-3-yl)methyl]-8-azabicyclo[3.2.1]octan-3-ol

> <PUBCHEM_IUPAC_CAS_NAME>
(1S,5R)-3-(4-chlorophenyl)-8-[(5-methoxy-3-benzofuranyl)methyl]-8-azabicyclo[3.2.1]octan-3-ol

> <PUBCHEM_IUPAC_NAME_MARKUP>
(1<I>S</I>,5<I>R</I>)-3-(4-chlorophenyl)-8-[(5-methoxy-1-benzofuran-3-yl)methyl]-8-azabicyclo[3.2.1]octan-3-ol

> <PUBCHEM_IUPAC_NAME>
(1S,5R)-3-(4-chlorophenyl)-8-[(5-methoxy-1-benzofuran-3-yl)methyl]-8-azabicyclo[3.2.1]octan-3-ol

> <PUBCHEM_IUPAC_SYSTEMATIC_NAME>
(1S,5R)-3-(4-chlorophenyl)-8-[(5-methoxy-1-benzofuran-3-yl)methyl]-8-azabicyclo[3.2.1]octan-3-ol

> <PUBCHEM_IUPAC_TRADITIONAL_NAME>
(1S,5R)-3-(4-chlorophenyl)-8-[(5-methoxybenzofuran-3-yl)methyl]-8-azabicyclo[3.2.1]octan-3-ol

> <PUBCHEM_IUPAC_INCHI>
InChI=1S/C23H24ClNO3/c1-27-20-8-9-22-21(10-20)15(14-28-22)13-25-18-6-7-19(25)12-23(26,11-18)16-2-4-17(24)5-3-16/h2-5,8-10,14,18-19,26H,6-7,11-13H2,1H3/t18-,19+,23?

> <PUBCHEM_IUPAC_INCHIKEY>
WKTBGKZXPNQGKA-LIMIJEPZSA-N

> <PUBCHEM_XLOGP3_AA>
4.5

> <PUBCHEM_EXACT_MASS>
397.1444713

> <PUBCHEM_MOLECULAR_FORMULA>
C23H24ClNO3

> <PUBCHEM_MOLECULAR_WEIGHT>
397.9

> <PUBCHEM_OPENEYE_CAN_SMILES>
COC1=CC2=C(C=C1)OC=C2CN3C4CCC3CC(C4)(C5=CC=C(C=C5)Cl)O

> <PUBCHEM_OPENEYE_ISO_SMILES>
COC1=CC2=C(C=C1)OC=C2CN3[C@@H]4CC[C@H]3CC(C4)(C5=CC=C(C=C5)Cl)O

> <PUBCHEM_CACTVS_TPSA>
45.8

> <PUBCHEM_MONOISOTOPIC_WEIGHT>
397.1444713

> <PUBCHEM_TOTAL_CHARGE>
0

> <PUBCHEM_HEAVY_ATOM_COUNT>
28

> <PUBCHEM_ATOM_DEF_STEREO_COUNT>
2

> <PUBCHEM_ATOM_UDEF_STEREO_COUNT>
0

> <PUBCHEM_BOND_DEF_STEREO_COUNT>
0

> <PUBCHEM_BOND_UDEF_STEREO_COUNT>
0

> <PUBCHEM_ISOTOPIC_ATOM_COUNT>
0

> <PUBCHEM_COMPONENT_COUNT>
1

> <PUBCHEM_CACTVS_TAUTO_COUNT>
-1

> <PUBCHEM_COORDINATE_TYPE>
1
5
255

> <PUBCHEM_BONDANNOTATIONS>
14  16  8
14  17  8
15  18  8
15  19  8
16  20  8
17  21  8
18  22  8
18  24  8
20  23  8
21  23  8
22  25  8
24  26  8
25  27  8
26  27  8
3  19  8
3  22  8
6  29  5
7  30  6

$$$$
