9817612
  -OEChem-09292322502D

 39 42  0     0  0  0  0  0  0999 V2000
    2.1245    1.3374    0.0000 S   0  0  0  0  0  0  0  0  0  0  0  0
    4.7642   -0.2283    0.0000 N   0  0  0  0  0  0  0  0  0  0  0  0
    5.7424   -0.4049    0.0000 N   0  0  0  0  0  0  0  0  0  0  0  0
    4.1282    2.9471    0.0000 C   0  0  0  0  0  0  0  0  0  0  0  0
    3.5047    2.1653    0.0000 C   0  0  0  0  0  0  0  0  0  0  0  0
    5.1282    2.9471    0.0000 C   0  0  0  0  0  0  0  0  0  0  0  0
    3.7272    1.1903    0.0000 C   0  0  0  0  0  0  0  0  0  0  0  0
    5.7517    2.1653    0.0000 C   0  0  0  0  0  0  0  0  0  0  0  0
    4.6282    0.7564    0.0000 C   0  0  0  0  0  0  0  0  0  0  0  0
    5.5291    1.1903    0.0000 C   0  0  0  0  0  0  0  0  0  0  0  0
    2.5144    2.2518    0.0000 C   0  0  0  0  0  0  0  0  0  0  0  0
    2.8725    0.6827    0.0000 C   0  0  0  0  0  0  0  0  0  0  0  0
    6.2142    0.4700    0.0000 C   0  0  0  0  0  0  0  0  0  0  0  0
    4.4854   -1.1886    0.0000 C   0  0  0  0  0  0  0  0  0  0  0  0
    2.0000    3.1094    0.0000 C   0  0  0  0  0  0  0  0  0  0  0  0
    2.2956   -0.1341    0.0000 C   0  0  0  0  0  0  0  0  0  0  0  0
    3.5143   -1.4273    0.0000 C   0  0  0  0  0  0  0  0  0  0  0  0
    5.1778   -1.9102    0.0000 C   0  0  0  0  0  0  0  0  0  0  0  0
    3.2355   -2.3877    0.0000 C   0  0  0  0  0  0  0  0  0  0  0  0
    4.8990   -2.8706    0.0000 C   0  0  0  0  0  0  0  0  0  0  0  0
    3.9279   -3.1094    0.0000 C   0  0  0  0  0  0  0  0  0  0  0  0
    4.2661    3.5516    0.0000 H   0  0  0  0  0  0  0  0  0  0  0  0
    3.5696    3.2161    0.0000 H   0  0  0  0  0  0  0  0  0  0  0  0
    5.6868    3.2161    0.0000 H   0  0  0  0  0  0  0  0  0  0  0  0
    4.9902    3.5516    0.0000 H   0  0  0  0  0  0  0  0  0  0  0  0
    6.3103    1.8962    0.0000 H   0  0  0  0  0  0  0  0  0  0  0  0
    6.1382    2.6500    0.0000 H   0  0  0  0  0  0  0  0  0  0  0  0
    6.8288    0.5522    0.0000 H   0  0  0  0  0  0  0  0  0  0  0  0
    2.5317    3.4283    0.0000 H   0  0  0  0  0  0  0  0  0  0  0  0
    1.6811    3.6410    0.0000 H   0  0  0  0  0  0  0  0  0  0  0  0
    1.4683    2.7904    0.0000 H   0  0  0  0  0  0  0  0  0  0  0  0
    1.7892    0.2236    0.0000 H   0  0  0  0  0  0  0  0  0  0  0  0
    1.9378   -0.6405    0.0000 H   0  0  0  0  0  0  0  0  0  0  0  0
    2.8020   -0.4918    0.0000 H   0  0  0  0  0  0  0  0  0  0  0  0
    3.0851   -0.9800    0.0000 H   0  0  0  0  0  0  0  0  0  0  0  0
    5.7798   -1.7622    0.0000 H   0  0  0  0  0  0  0  0  0  0  0  0
    2.6335   -2.5358    0.0000 H   0  0  0  0  0  0  0  0  0  0  0  0
    5.3282   -3.3180    0.0000 H   0  0  0  0  0  0  0  0  0  0  0  0
    3.7550   -3.7048    0.0000 H   0  0  0  0  0  0  0  0  0  0  0  0
  1 11  1  0  0  0  0
  1 12  1  0  0  0  0
  2  3  1  0  0  0  0
  2  9  1  0  0  0  0
  2 14  1  0  0  0  0
  3 13  2  0  0  0  0
  4  5  1  0  0  0  0
  4  6  1  0  0  0  0
  4 22  1  0  0  0  0
  4 23  1  0  0  0  0
  5  7  1  0  0  0  0
  5 11  2  0  0  0  0
  6  8  1  0  0  0  0
  6 24  1  0  0  0  0
  6 25  1  0  0  0  0
  7  9  1  0  0  0  0
  7 12  2  0  0  0  0
  8 10  1  0  0  0  0
  8 26  1  0  0  0  0
  8 27  1  0  0  0  0
  9 10  2  0  0  0  0
 10 13  1  0  0  0  0
 11 15  1  0  0  0  0
 12 16  1  0  0  0  0
 13 28  1  0  0  0  0
 14 17  2  0  0  0  0
 14 18  1  0  0  0  0
 15 29  1  0  0  0  0
 15 30  1  0  0  0  0
 15 31  1  0  0  0  0
 16 32  1  0  0  0  0
 16 33  1  0  0  0  0
 16 34  1  0  0  0  0
 17 19  1  0  0  0  0
 17 35  1  0  0  0  0
 18 20  2  0  0  0  0
 18 36  1  0  0  0  0
 19 21  2  0  0  0  0
 19 37  1  0  0  0  0
 20 21  1  0  0  0  0
 20 38  1  0  0  0  0
 21 39  1  0  0  0  0
M  END
> <PUBCHEM_COMPOUND_CID>
9817612

> <PUBCHEM_COMPOUND_CANONICALIZED>
1

> <PUBCHEM_CACTVS_COMPLEXITY>
368

> <PUBCHEM_CACTVS_HBOND_ACCEPTOR>
2

> <PUBCHEM_CACTVS_HBOND_DONOR>
0

> <PUBCHEM_CACTVS_ROTATABLE_BOND>
1

> <PUBCHEM_CACTVS_SUBSKEYS>
AAADceB7AABAAAAAAAAAAAAAAAAAAWJAAAAwAAAABgAAAACx8AAAHAQIAAAADAjBXgQ+wZIIAAimAzRnRACTBKAhihAYmDAgZJgIIOLg0dGEpAhgiADoyAcQgMAOgAAAAAAAAAAAAAAAAAAAAAAAAAAAAA==

> <PUBCHEM_IUPAC_OPENEYE_NAME>
11,13-dimethyl-3-phenyl-12-thia-3,4-diazatricyclo[8.3.0.02,6]trideca-1(13),2(6),4,10-tetraene

> <PUBCHEM_IUPAC_CAS_NAME>
11,13-dimethyl-3-phenyl-12-thia-3,4-diazatricyclo[8.3.0.02,6]trideca-1(13),2(6),4,10-tetraene

> <PUBCHEM_IUPAC_NAME_MARKUP>
11,13-dimethyl-3-phenyl-12-thia-3,4-diazatricyclo[8.3.0.0<SUP>2,6</SUP>]trideca-1(13),2(6),4,10-tetraene

> <PUBCHEM_IUPAC_NAME>
11,13-dimethyl-3-phenyl-12-thia-3,4-diazatricyclo[8.3.0.02,6]trideca-1(13),2(6),4,10-tetraene

> <PUBCHEM_IUPAC_SYSTEMATIC_NAME>
11,13-dimethyl-3-phenyl-12-thia-3,4-diazatricyclo[8.3.0.02,6]trideca-1(13),2(6),4,10-tetraene

> <PUBCHEM_IUPAC_TRADITIONAL_NAME>
11,13-dimethyl-3-phenyl-12-thia-3,4-diazatricyclo[8.3.0.02,6]trideca-1(13),2(6),4,10-tetraene

> <PUBCHEM_IUPAC_INCHI>
InChI=1S/C18H18N2S/c1-12-16-10-6-7-14-11-19-20(15-8-4-3-5-9-15)18(14)17(16)13(2)21-12/h3-5,8-9,11H,6-7,10H2,1-2H3

> <PUBCHEM_IUPAC_INCHIKEY>
DEBJKZVBXLWEAQ-UHFFFAOYSA-N

> <PUBCHEM_XLOGP3_AA>
4.9

> <PUBCHEM_EXACT_MASS>
294.11906976

> <PUBCHEM_MOLECULAR_FORMULA>
C18H18N2S

> <PUBCHEM_MOLECULAR_WEIGHT>
294.4

> <PUBCHEM_OPENEYE_CAN_SMILES>
CC1=C2CCCC3=C(C2=C(S1)C)N(N=C3)C4=CC=CC=C4

> <PUBCHEM_OPENEYE_ISO_SMILES>
CC1=C2CCCC3=C(C2=C(S1)C)N(N=C3)C4=CC=CC=C4

> <PUBCHEM_CACTVS_TPSA>
46.1

> <PUBCHEM_MONOISOTOPIC_WEIGHT>
294.11906976

> <PUBCHEM_TOTAL_CHARGE>
0

> <PUBCHEM_HEAVY_ATOM_COUNT>
21

> <PUBCHEM_ATOM_DEF_STEREO_COUNT>
0

> <PUBCHEM_ATOM_UDEF_STEREO_COUNT>
0

> <PUBCHEM_BOND_DEF_STEREO_COUNT>
0

> <PUBCHEM_BOND_UDEF_STEREO_COUNT>
0

> <PUBCHEM_ISOTOPIC_ATOM_COUNT>
0

> <PUBCHEM_COMPONENT_COUNT>
1

> <PUBCHEM_CACTVS_TAUTO_COUNT>
-1

> <PUBCHEM_COORDINATE_TYPE>
1
5
255

> <PUBCHEM_BONDANNOTATIONS>
1  11  8
1  12  8
10  13  8
14  17  8
14  18  8
17  19  8
18  20  8
19  21  8
2  3  8
2  9  8
20  21  8
3  13  8
5  11  8
5  7  8
7  12  8
9  10  8

$$$$
