11857794
  -OEChem-09292322242D

 69 72  0     0  0  0  0  0  0999 V2000
    7.1962   -3.7500    0.0000 S   0  0  0  0  0  0  0  0  0  0  0  0
   12.3923    3.2500    0.0000 F   0  0  0  0  0  0  0  0  0  0  0  0
   12.0263    4.6160    0.0000 F   0  0  0  0  0  0  0  0  0  0  0  0
   11.0263    2.8840    0.0000 F   0  0  0  0  0  0  0  0  0  0  0  0
    2.0000   -3.7500    0.0000 F   0  0  0  0  0  0  0  0  0  0  0  0
    2.8660   -5.2500    0.0000 F   0  0  0  0  0  0  0  0  0  0  0  0
    9.7942    3.7500    0.0000 O   0  0  0  0  0  0  0  0  0  0  0  0
    7.6962   -4.6160    0.0000 O   0  0  0  0  0  0  0  0  0  0  0  0
    6.6962   -2.8840    0.0000 O   0  0  0  0  0  0  0  0  0  0  0  0
    3.7320   -3.7500    0.0000 O   0  0  0  0  0  0  0  0  0  0  0  0
    8.0622    0.7500    0.0000 N   0  0  0  0  0  0  0  0  0  0  0  0
    8.0622   -3.2500    0.0000 N   0  0  0  0  0  0  0  0  0  0  0  0
    8.0622   -0.2500    0.0000 C   0  0  0  0  0  0  0  0  0  0  0  0
    8.9282   -0.7500    0.0000 C   0  0  0  0  0  0  0  0  0  0  0  0
    7.1962   -0.7500    0.0000 C   0  0  0  0  0  0  0  0  0  0  0  0
    8.0622   -2.2500    0.0000 C   0  0  0  0  0  0  0  0  0  0  0  0
    8.9282   -1.7500    0.0000 C   0  0  0  0  0  0  0  0  0  0  0  0
    7.1962   -1.7500    0.0000 C   0  0  0  0  0  0  0  0  0  0  0  0
    7.1962    1.2500    0.0000 C   0  0  0  0  0  0  0  0  0  0  0  0
    8.9282    1.2500    0.0000 C   0  0  0  0  0  0  0  0  0  0  0  0
    8.0622    2.7500    0.0000 C   0  0  0  0  0  0  0  0  0  0  0  0
    7.1962    2.2500    0.0000 C   0  0  0  0  0  0  0  0  0  0  0  0
    8.9282    2.2500    0.0000 C   0  0  0  0  0  0  0  0  0  0  0  0
    8.0622    3.7500    0.0000 C   0  0  0  0  0  0  0  0  0  0  0  0
    8.9282    4.2500    0.0000 C   0  0  0  0  0  0  0  0  0  0  0  0
    7.1962    4.2500    0.0000 C   0  0  0  0  0  0  0  0  0  0  0  0
    6.3301   -4.2500    0.0000 C   0  0  0  0  0  0  0  0  0  0  0  0
    8.9282    5.2500    0.0000 C   0  0  0  0  0  0  0  0  0  0  0  0
    7.1962    5.2500    0.0000 C   0  0  0  0  0  0  0  0  0  0  0  0
    8.0622    5.7500    0.0000 C   0  0  0  0  0  0  0  0  0  0  0  0
    5.4641   -3.7500    0.0000 C   0  0  0  0  0  0  0  0  0  0  0  0
    6.3301   -5.2500    0.0000 C   0  0  0  0  0  0  0  0  0  0  0  0
   10.6603    4.2500    0.0000 C   0  0  0  0  0  0  0  0  0  0  0  0
    4.5981   -4.2500    0.0000 C   0  0  0  0  0  0  0  0  0  0  0  0
    5.4641   -5.7500    0.0000 C   0  0  0  0  0  0  0  0  0  0  0  0
    4.5981   -5.2500    0.0000 C   0  0  0  0  0  0  0  0  0  0  0  0
   11.5263    3.7500    0.0000 C   0  0  0  0  0  0  0  0  0  0  0  0
    2.8660   -4.2500    0.0000 C   0  0  0  0  0  0  0  0  0  0  0  0
    7.5252    0.0600    0.0000 H   0  0  0  0  0  0  0  0  0  0  0  0
    9.5388   -0.8577    0.0000 H   0  0  0  0  0  0  0  0  0  0  0  0
    9.1403   -0.1674    0.0000 H   0  0  0  0  0  0  0  0  0  0  0  0
    6.9841   -0.1674    0.0000 H   0  0  0  0  0  0  0  0  0  0  0  0
    6.5856   -0.8577    0.0000 H   0  0  0  0  0  0  0  0  0  0  0  0
    7.5252   -2.5600    0.0000 H   0  0  0  0  0  0  0  0  0  0  0  0
    9.1403   -2.3326    0.0000 H   0  0  0  0  0  0  0  0  0  0  0  0
    9.5388   -1.6423    0.0000 H   0  0  0  0  0  0  0  0  0  0  0  0
    6.5856   -1.6423    0.0000 H   0  0  0  0  0  0  0  0  0  0  0  0
    6.9841   -2.3326    0.0000 H   0  0  0  0  0  0  0  0  0  0  0  0
    6.5856    1.3577    0.0000 H   0  0  0  0  0  0  0  0  0  0  0  0
    6.9841    0.6674    0.0000 H   0  0  0  0  0  0  0  0  0  0  0  0
    9.1403    0.6674    0.0000 H   0  0  0  0  0  0  0  0  0  0  0  0
    9.5388    1.3577    0.0000 H   0  0  0  0  0  0  0  0  0  0  0  0
    7.5252    3.0600    0.0000 H   0  0  0  0  0  0  0  0  0  0  0  0
    6.9841    2.8326    0.0000 H   0  0  0  0  0  0  0  0  0  0  0  0
    6.5856    2.1423    0.0000 H   0  0  0  0  0  0  0  0  0  0  0  0
    9.5388    2.1423    0.0000 H   0  0  0  0  0  0  0  0  0  0  0  0
    9.1403    2.8326    0.0000 H   0  0  0  0  0  0  0  0  0  0  0  0
    8.5991   -3.5600    0.0000 H   0  0  0  0  0  0  0  0  0  0  0  0
    6.6592    3.9400    0.0000 H   0  0  0  0  0  0  0  0  0  0  0  0
    9.4651    5.5600    0.0000 H   0  0  0  0  0  0  0  0  0  0  0  0
    6.6592    5.5600    0.0000 H   0  0  0  0  0  0  0  0  0  0  0  0
    8.0622    6.3700    0.0000 H   0  0  0  0  0  0  0  0  0  0  0  0
    5.4641   -3.1300    0.0000 H   0  0  0  0  0  0  0  0  0  0  0  0
    6.8671   -5.5600    0.0000 H   0  0  0  0  0  0  0  0  0  0  0  0
   11.0588    4.7250    0.0000 H   0  0  0  0  0  0  0  0  0  0  0  0
   10.2617    4.7250    0.0000 H   0  0  0  0  0  0  0  0  0  0  0  0
    5.4641   -6.3700    0.0000 H   0  0  0  0  0  0  0  0  0  0  0  0
    4.0611   -5.5600    0.0000 H   0  0  0  0  0  0  0  0  0  0  0  0
    2.8660   -3.6300    0.0000 H   0  0  0  0  0  0  0  0  0  0  0  0
  1  8  2  0  0  0  0
  1  9  2  0  0  0  0
  1 12  1  0  0  0  0
  1 27  1  0  0  0  0
  2 37  1  0  0  0  0
  3 37  1  0  0  0  0
  4 37  1  0  0  0  0
  5 38  1  0  0  0  0
  6 38  1  0  0  0  0
  7 25  1  0  0  0  0
  7 33  1  0  0  0  0
 10 34  1  0  0  0  0
 10 38  1  0  0  0  0
 11 13  1  0  0  0  0
 11 19  1  0  0  0  0
 11 20  1  0  0  0  0
 12 16  1  0  0  0  0
 12 58  1  0  0  0  0
 13 14  1  0  0  0  0
 13 15  1  0  0  0  0
 13 39  1  0  0  0  0
 14 17  1  0  0  0  0
 14 40  1  0  0  0  0
 14 41  1  0  0  0  0
 15 18  1  0  0  0  0
 15 42  1  0  0  0  0
 15 43  1  0  0  0  0
 16 17  1  0  0  0  0
 16 18  1  0  0  0  0
 16 44  1  0  0  0  0
 17 45  1  0  0  0  0
 17 46  1  0  0  0  0
 18 47  1  0  0  0  0
 18 48  1  0  0  0  0
 19 22  1  0  0  0  0
 19 49  1  0  0  0  0
 19 50  1  0  0  0  0
 20 23  1  0  0  0  0
 20 51  1  0  0  0  0
 20 52  1  0  0  0  0
 21 22  1  0  0  0  0
 21 23  1  0  0  0  0
 21 24  1  0  0  0  0
 21 53  1  0  0  0  0
 22 54  1  0  0  0  0
 22 55  1  0  0  0  0
 23 56  1  0  0  0  0
 23 57  1  0  0  0  0
 24 25  1  0  0  0  0
 24 26  2  0  0  0  0
 25 28  2  0  0  0  0
 26 29  1  0  0  0  0
 26 59  1  0  0  0  0
 27 31  1  0  0  0  0
 27 32  2  0  0  0  0
 28 30  1  0  0  0  0
 28 60  1  0  0  0  0
 29 30  2  0  0  0  0
 29 61  1  0  0  0  0
 30 62  1  0  0  0  0
 31 34  2  0  0  0  0
 31 63  1  0  0  0  0
 32 35  1  0  0  0  0
 32 64  1  0  0  0  0
 33 37  1  0  0  0  0
 33 65  1  0  0  0  0
 33 66  1  0  0  0  0
 34 36  1  0  0  0  0
 35 36  2  0  0  0  0
 35 67  1  0  0  0  0
 36 68  1  0  0  0  0
 38 69  1  0  0  0  0
M  END
> <PUBCHEM_COMPOUND_CID>
11857794

> <PUBCHEM_COMPOUND_CANONICALIZED>
1

> <PUBCHEM_CACTVS_COMPLEXITY>
825

> <PUBCHEM_CACTVS_HBOND_ACCEPTOR>
11

> <PUBCHEM_CACTVS_HBOND_DONOR>
1

> <PUBCHEM_CACTVS_ROTATABLE_BOND>
9

> <PUBCHEM_CACTVS_SUBSKEYS>
AAADceB7OcBAAAAAAAAAAAAAAAAAAAAAAAA8YMEAAAAAAAABQAAAHwQQQAAADSzh2BYwB4NABAKAAiBCAHBCCBAgIAAIiJgOCIgMJiKEsRqGOCCk0BGIqAeQ0OIOgAAABAAIAAAAAQAIABAAAAAAAAAAAA==

> <PUBCHEM_IUPAC_OPENEYE_NAME>
3-(difluoromethoxy)-N-[4-[4-[2-(2,2,2-trifluoroethoxy)phenyl]-1-piperidyl]cyclohexyl]benzenesulfonamide

> <PUBCHEM_IUPAC_CAS_NAME>
3-(difluoromethoxy)-N-[4-[4-[2-(2,2,2-trifluoroethoxy)phenyl]-1-piperidinyl]cyclohexyl]benzenesulfonamide

> <PUBCHEM_IUPAC_NAME_MARKUP>
3-(difluoromethoxy)-<I>N</I>-[4-[4-[2-(2,2,2-trifluoroethoxy)phenyl]piperidin-1-yl]cyclohexyl]benzenesulfonamide

> <PUBCHEM_IUPAC_NAME>
3-(difluoromethoxy)-N-[4-[4-[2-(2,2,2-trifluoroethoxy)phenyl]piperidin-1-yl]cyclohexyl]benzenesulfonamide

> <PUBCHEM_IUPAC_SYSTEMATIC_NAME>
3-[bis(fluoranyl)methoxy]-N-[4-[4-[2-[2,2,2-tris(fluoranyl)ethoxy]phenyl]piperidin-1-yl]cyclohexyl]benzenesulfonamide

> <PUBCHEM_IUPAC_TRADITIONAL_NAME>
3-(difluoromethoxy)-N-[4-[4-[2-(2,2,2-trifluoroethoxy)phenyl]piperidino]cyclohexyl]benzenesulfonamide

> <PUBCHEM_IUPAC_INCHI>
InChI=1S/C26H31F5N2O4S/c27-25(28)37-21-4-3-5-22(16-21)38(34,35)32-19-8-10-20(11-9-19)33-14-12-18(13-15-33)23-6-1-2-7-24(23)36-17-26(29,30)31/h1-7,16,18-20,25,32H,8-15,17H2

> <PUBCHEM_IUPAC_INCHIKEY>
RVPGPLCUKORXKA-UHFFFAOYSA-N

> <PUBCHEM_XLOGP3_AA>
6.5

> <PUBCHEM_EXACT_MASS>
562.19246946

> <PUBCHEM_MOLECULAR_FORMULA>
C26H31F5N2O4S

> <PUBCHEM_MOLECULAR_WEIGHT>
562.6

> <PUBCHEM_OPENEYE_CAN_SMILES>
C1CC(CCC1NS(=O)(=O)C2=CC=CC(=C2)OC(F)F)N3CCC(CC3)C4=CC=CC=C4OCC(F)(F)F

> <PUBCHEM_OPENEYE_ISO_SMILES>
C1CC(CCC1NS(=O)(=O)C2=CC=CC(=C2)OC(F)F)N3CCC(CC3)C4=CC=CC=C4OCC(F)(F)F

> <PUBCHEM_CACTVS_TPSA>
76.2

> <PUBCHEM_MONOISOTOPIC_WEIGHT>
562.19246946

> <PUBCHEM_TOTAL_CHARGE>
0

> <PUBCHEM_HEAVY_ATOM_COUNT>
38

> <PUBCHEM_ATOM_DEF_STEREO_COUNT>
0

> <PUBCHEM_ATOM_UDEF_STEREO_COUNT>
0

> <PUBCHEM_BOND_DEF_STEREO_COUNT>
0

> <PUBCHEM_BOND_UDEF_STEREO_COUNT>
0

> <PUBCHEM_ISOTOPIC_ATOM_COUNT>
0

> <PUBCHEM_COMPONENT_COUNT>
1

> <PUBCHEM_CACTVS_TAUTO_COUNT>
-1

> <PUBCHEM_COORDINATE_TYPE>
1
5
255

> <PUBCHEM_BONDANNOTATIONS>
24  25  8
24  26  8
25  28  8
26  29  8
27  31  8
27  32  8
28  30  8
29  30  8
31  34  8
32  35  8
34  36  8
35  36  8

$$$$
