16049158
  -OEChem-09292322042D

 65 67  0     1  0  0  0  0  0999 V2000
    5.4641   -0.5950    0.0000 S   0  0  0  0  0  0  0  0  0  0  0  0
    9.8744   -5.2903    0.0000 S   0  0  0  0  0  0  0  0  0  0  0  0
    8.9282   -3.5950    0.0000 O   0  0  0  0  0  0  0  0  0  0  0  0
    8.0622   -8.0950    0.0000 O   0  0  0  0  0  0  0  0  0  0  0  0
   11.4580   -6.0950    0.0000 O   0  0  0  0  0  0  0  0  0  0  0  0
    7.1962   -2.5950    0.0000 N   0  0  0  0  0  0  0  0  0  0  0  0
    3.7320    2.4050    0.0000 N   0  0  0  0  0  0  0  0  0  0  0  0
    9.8744   -6.8997    0.0000 N   0  0  0  0  0  0  0  0  0  0  0  0
    8.0622   -4.0950    0.0000 C   0  0  1  0  0  0  0  0  0  0  0  0
    7.1962   -3.5950    0.0000 C   0  0  0  0  0  0  0  0  0  0  0  0
    8.0622   -5.0950    0.0000 C   0  0  0  0  0  0  0  0  0  0  0  0
    8.9282   -5.5950    0.0000 C   0  0  0  0  0  0  0  0  0  0  0  0
    4.5981    0.9050    0.0000 C   0  0  0  0  0  0  0  0  0  0  0  0
    6.3301   -2.0950    0.0000 C   0  0  0  0  0  0  0  0  0  0  0  0
    4.5981    1.9050    0.0000 C   0  0  0  0  0  0  0  0  0  0  0  0
    3.7320    3.4050    0.0000 C   0  0  0  0  0  0  0  0  0  0  0  0
    2.8660    3.9050    0.0000 C   0  0  0  0  0  0  0  0  0  0  0  0
    8.9282   -6.5950    0.0000 C   0  0  0  0  0  0  0  0  0  0  0  0
    5.4641    0.4050    0.0000 C   0  0  0  0  0  0  0  0  0  0  0  0
    6.3301   -1.0950    0.0000 C   0  0  0  0  0  0  0  0  0  0  0  0
    7.1962   -5.5950    0.0000 C   0  0  0  0  0  0  0  0  0  0  0  0
    2.8660    4.9050    0.0000 C   0  0  0  0  0  0  0  0  0  0  0  0
    8.0622   -7.0950    0.0000 C   0  0  0  0  0  0  0  0  0  0  0  0
    7.1962   -6.5950    0.0000 C   0  0  0  0  0  0  0  0  0  0  0  0
    3.7320    5.4050    0.0000 C   0  0  0  0  0  0  0  0  0  0  0  0
    2.0000    5.4050    0.0000 C   0  0  0  0  0  0  0  0  0  0  0  0
    2.8660    6.9050    0.0000 C   0  0  0  0  0  0  0  0  0  0  0  0
   10.4580   -6.0950    0.0000 C   0  0  0  0  0  0  0  0  0  0  0  0
    3.7320    6.4050    0.0000 C   0  0  0  0  0  0  0  0  0  0  0  0
    2.0000    6.4050    0.0000 C   0  0  0  0  0  0  0  0  0  0  0  0
    2.8660    7.9050    0.0000 C   0  0  0  0  0  0  0  0  0  0  0  0
    2.0000    8.4050    0.0000 C   0  0  0  0  0  0  0  0  0  0  0  0
    8.0622   -3.4750    0.0000 H   0  0  0  0  0  0  0  0  0  0  0  0
    6.5856   -3.4873    0.0000 H   0  0  0  0  0  0  0  0  0  0  0  0
    6.9841   -4.1776    0.0000 H   0  0  0  0  0  0  0  0  0  0  0  0
    3.9875    1.0127    0.0000 H   0  0  0  0  0  0  0  0  0  0  0  0
    4.3860    0.3224    0.0000 H   0  0  0  0  0  0  0  0  0  0  0  0
    5.2087    1.7973    0.0000 H   0  0  0  0  0  0  0  0  0  0  0  0
    4.8101    2.4876    0.0000 H   0  0  0  0  0  0  0  0  0  0  0  0
    5.7196   -1.9873    0.0000 H   0  0  0  0  0  0  0  0  0  0  0  0
    6.1181   -2.6776    0.0000 H   0  0  0  0  0  0  0  0  0  0  0  0
    7.7331   -2.2850    0.0000 H   0  0  0  0  0  0  0  0  0  0  0  0
    4.3426    3.2973    0.0000 H   0  0  0  0  0  0  0  0  0  0  0  0
    3.9441    3.9876    0.0000 H   0  0  0  0  0  0  0  0  0  0  0  0
    2.2554    4.0127    0.0000 H   0  0  0  0  0  0  0  0  0  0  0  0
    2.6540    3.3224    0.0000 H   0  0  0  0  0  0  0  0  0  0  0  0
    6.0747    0.2973    0.0000 H   0  0  0  0  0  0  0  0  0  0  0  0
    5.6762    0.9876    0.0000 H   0  0  0  0  0  0  0  0  0  0  0  0
    6.9407   -1.2027    0.0000 H   0  0  0  0  0  0  0  0  0  0  0  0
    6.5422   -0.5124    0.0000 H   0  0  0  0  0  0  0  0  0  0  0  0
    3.1951    2.0950    0.0000 H   0  0  0  0  0  0  0  0  0  0  0  0
    6.6592   -5.2850    0.0000 H   0  0  0  0  0  0  0  0  0  0  0  0
    6.6592   -6.9050    0.0000 H   0  0  0  0  0  0  0  0  0  0  0  0
   10.0670   -7.4891    0.0000 H   0  0  0  0  0  0  0  0  0  0  0  0
    8.9282   -2.9750    0.0000 H   0  0  0  0  0  0  0  0  0  0  0  0
    4.2690    5.0950    0.0000 H   0  0  0  0  0  0  0  0  0  0  0  0
    1.4631    5.0950    0.0000 H   0  0  0  0  0  0  0  0  0  0  0  0
    4.2690    6.7150    0.0000 H   0  0  0  0  0  0  0  0  0  0  0  0
    1.4631    6.7150    0.0000 H   0  0  0  0  0  0  0  0  0  0  0  0
    3.4766    7.7973    0.0000 H   0  0  0  0  0  0  0  0  0  0  0  0
    3.0781    8.4876    0.0000 H   0  0  0  0  0  0  0  0  0  0  0  0
    7.5252   -8.4050    0.0000 H   0  0  0  0  0  0  0  0  0  0  0  0
    2.3100    8.9419    0.0000 H   0  0  0  0  0  0  0  0  0  0  0  0
    1.4631    8.7150    0.0000 H   0  0  0  0  0  0  0  0  0  0  0  0
    1.6900    7.8681    0.0000 H   0  0  0  0  0  0  0  0  0  0  0  0
  1 19  1  0  0  0  0
  1 20  1  0  0  0  0
  2 12  1  0  0  0  0
  2 28  1  0  0  0  0
  9  3  1  6  0  0  0
  3 55  1  0  0  0  0
  4 23  1  0  0  0  0
  4 62  1  0  0  0  0
  5 28  2  0  0  0  0
  6 10  1  0  0  0  0
  6 14  1  0  0  0  0
  6 42  1  0  0  0  0
  7 15  1  0  0  0  0
  7 16  1  0  0  0  0
  7 51  1  0  0  0  0
  8 18  1  0  0  0  0
  8 28  1  0  0  0  0
  8 54  1  0  0  0  0
  9 10  1  0  0  0  0
  9 11  1  0  0  0  0
  9 33  1  0  0  0  0
 10 34  1  0  0  0  0
 10 35  1  0  0  0  0
 11 12  2  0  0  0  0
 11 21  1  0  0  0  0
 12 18  1  0  0  0  0
 13 15  1  0  0  0  0
 13 19  1  0  0  0  0
 13 36  1  0  0  0  0
 13 37  1  0  0  0  0
 14 20  1  0  0  0  0
 14 40  1  0  0  0  0
 14 41  1  0  0  0  0
 15 38  1  0  0  0  0
 15 39  1  0  0  0  0
 16 17  1  0  0  0  0
 16 43  1  0  0  0  0
 16 44  1  0  0  0  0
 17 22  1  0  0  0  0
 17 45  1  0  0  0  0
 17 46  1  0  0  0  0
 18 23  2  0  0  0  0
 19 47  1  0  0  0  0
 19 48  1  0  0  0  0
 20 49  1  0  0  0  0
 20 50  1  0  0  0  0
 21 24  2  0  0  0  0
 21 52  1  0  0  0  0
 22 25  2  0  0  0  0
 22 26  1  0  0  0  0
 23 24  1  0  0  0  0
 24 53  1  0  0  0  0
 25 29  1  0  0  0  0
 25 56  1  0  0  0  0
 26 30  2  0  0  0  0
 26 57  1  0  0  0  0
 27 29  2  0  0  0  0
 27 30  1  0  0  0  0
 27 31  1  0  0  0  0
 29 58  1  0  0  0  0
 30 59  1  0  0  0  0
 31 32  1  0  0  0  0
 31 60  1  0  0  0  0
 31 61  1  0  0  0  0
 32 63  1  0  0  0  0
 32 64  1  0  0  0  0
 32 65  1  0  0  0  0
M  END
> <PUBCHEM_COMPOUND_CID>
16049158

> <PUBCHEM_COMPOUND_CANONICALIZED>
1

> <PUBCHEM_CACTVS_COMPLEXITY>
549

> <PUBCHEM_CACTVS_HBOND_ACCEPTOR>
7

> <PUBCHEM_CACTVS_HBOND_DONOR>
5

> <PUBCHEM_CACTVS_ROTATABLE_BOND>
14

> <PUBCHEM_CACTVS_SUBSKEYS>
AAADcfB7MABgAAAAAAAAAAAAAAAAAWAAAAAwYAAAAAAAAFgBQAAAHgQQCAAADBzl2Aayx4LAAgiIAiRCUACCAABhKBAIiJQPTIgKNiLykZOEcAhk1BH42Aew4OQOYAAARAAEEQDAAACIAAgiAAAAAAAAAA==

> <PUBCHEM_IUPAC_OPENEYE_NAME>
7-[(1R)-2-[2-[3-[2-(4-ethylphenyl)ethylamino]propylsulfanyl]ethylamino]-1-hydroxy-ethyl]-4-hydroxy-3H-1,3-benzothiazol-2-one

> <PUBCHEM_IUPAC_CAS_NAME>
7-[(1R)-2-[2-[3-[2-(4-ethylphenyl)ethylamino]propylthio]ethylamino]-1-hydroxyethyl]-4-hydroxy-3H-1,3-benzothiazol-2-one

> <PUBCHEM_IUPAC_NAME_MARKUP>
7-[(1<I>R</I>)-2-[2-[3-[2-(4-ethylphenyl)ethylamino]propylsulfanyl]ethylamino]-1-hydroxyethyl]-4-hydroxy-3<I>H</I>-1,3-benzothiazol-2-one

> <PUBCHEM_IUPAC_NAME>
7-[(1R)-2-[2-[3-[2-(4-ethylphenyl)ethylamino]propylsulfanyl]ethylamino]-1-hydroxyethyl]-4-hydroxy-3H-1,3-benzothiazol-2-one

> <PUBCHEM_IUPAC_SYSTEMATIC_NAME>
7-[(1R)-2-[2-[3-[2-(4-ethylphenyl)ethylamino]propylsulfanyl]ethylamino]-1-oxidanyl-ethyl]-4-oxidanyl-3H-1,3-benzothiazol-2-one

> <PUBCHEM_IUPAC_TRADITIONAL_NAME>
7-[(1R)-2-[2-[3-[2-(4-ethylphenyl)ethylamino]propylthio]ethylamino]-1-hydroxy-ethyl]-4-hydroxy-3H-1,3-benzothiazol-2-one

> <PUBCHEM_IUPAC_INCHI>
InChI=1S/C24H33N3O3S2/c1-2-17-4-6-18(7-5-17)10-12-25-11-3-14-31-15-13-26-16-21(29)19-8-9-20(28)22-23(19)32-24(30)27-22/h4-9,21,25-26,28-29H,2-3,10-16H2,1H3,(H,27,30)/t21-/m0/s1

> <PUBCHEM_IUPAC_INCHIKEY>
PMJJWQOFHOTBIY-NRFANRHFSA-N

> <PUBCHEM_XLOGP3_AA>
3.4

> <PUBCHEM_EXACT_MASS>
475.19633427

> <PUBCHEM_MOLECULAR_FORMULA>
C24H33N3O3S2

> <PUBCHEM_MOLECULAR_WEIGHT>
475.7

> <PUBCHEM_OPENEYE_CAN_SMILES>
CCC1=CC=C(C=C1)CCNCCCSCCNCC(C2=C3C(=C(C=C2)O)NC(=O)S3)O

> <PUBCHEM_OPENEYE_ISO_SMILES>
CCC1=CC=C(C=C1)CCNCCCSCCNC[C@@H](C2=C3C(=C(C=C2)O)NC(=O)S3)O

> <PUBCHEM_CACTVS_TPSA>
144

> <PUBCHEM_MONOISOTOPIC_WEIGHT>
475.19633427

> <PUBCHEM_TOTAL_CHARGE>
0

> <PUBCHEM_HEAVY_ATOM_COUNT>
32

> <PUBCHEM_ATOM_DEF_STEREO_COUNT>
1

> <PUBCHEM_ATOM_UDEF_STEREO_COUNT>
0

> <PUBCHEM_BOND_DEF_STEREO_COUNT>
0

> <PUBCHEM_BOND_UDEF_STEREO_COUNT>
0

> <PUBCHEM_ISOTOPIC_ATOM_COUNT>
0

> <PUBCHEM_COMPONENT_COUNT>
1

> <PUBCHEM_CACTVS_TAUTO_COUNT>
-1

> <PUBCHEM_COORDINATE_TYPE>
1
5
255

> <PUBCHEM_BONDANNOTATIONS>
11  12  8
11  21  8
12  18  8
18  23  8
2  12  8
2  28  8
21  24  8
22  25  8
22  26  8
23  24  8
25  29  8
26  30  8
27  29  8
27  30  8
9  3  6
8  18  8
8  28  8

$$$$
