62705505
  -OEChem-09292322322D

 58 62  0     0  0  0  0  0  0999 V2000
    2.9176    1.6430    0.0000 F   0  0  0  0  0  0  0  0  0  0  0  0
   10.1102   -0.4388    0.0000 O   0  0  0  0  0  0  0  0  0  0  0  0
    6.3981    2.6776    0.0000 O   0  0  0  0  0  0  0  0  0  0  0  0
    6.3981   -0.3224    0.0000 N   0  0  0  0  0  0  0  0  0  0  0  0
    8.9962   -1.8224    0.0000 N   0  0  0  0  0  0  0  0  0  0  0  0
    4.6660    2.6776    0.0000 N   0  0  0  0  0  0  0  0  0  0  0  0
   10.5710   -2.1544    0.0000 N   0  0  0  0  0  0  0  0  0  0  0  0
    8.1301   -1.3224    0.0000 C   0  0  0  0  0  0  0  0  0  0  0  0
    8.1301   -0.3224    0.0000 C   0  0  0  0  0  0  0  0  0  0  0  0
    7.2641   -1.8224    0.0000 C   0  0  0  0  0  0  0  0  0  0  0  0
    7.2641    0.1776    0.0000 C   0  0  0  0  0  0  0  0  0  0  0  0
    6.3981   -1.3224    0.0000 C   0  0  0  0  0  0  0  0  0  0  0  0
    5.5321    0.1776    0.0000 C   0  0  0  0  0  0  0  0  0  0  0  0
    5.5321    1.1776    0.0000 C   0  0  0  0  0  0  0  0  0  0  0  0
    9.0992   -2.8112    0.0000 C   0  0  0  0  0  0  0  0  0  0  0  0
    4.6660    1.6776    0.0000 C   0  0  0  0  0  0  0  0  0  0  0  0
    9.9040   -1.4173    0.0000 C   0  0  0  0  0  0  0  0  0  0  0  0
   10.0777   -3.0174    0.0000 C   0  0  0  0  0  0  0  0  0  0  0  0
    8.4314   -3.5555    0.0000 C   0  0  0  0  0  0  0  0  0  0  0  0
    3.8000    3.1776    0.0000 C   0  0  0  0  0  0  0  0  0  0  0  0
    5.5321    3.1776    0.0000 C   0  0  0  0  0  0  0  0  0  0  0  0
    5.5321    4.1776    0.0000 C   0  0  0  0  0  0  0  0  0  0  0  0
    3.8000    4.1776    0.0000 C   0  0  0  0  0  0  0  0  0  0  0  0
    4.6660    4.6776    0.0000 C   0  0  0  0  0  0  0  0  0  0  0  0
   10.3884   -3.9679    0.0000 C   0  0  0  0  0  0  0  0  0  0  0  0
    8.7420   -4.5060    0.0000 C   0  0  0  0  0  0  0  0  0  0  0  0
    9.7205   -4.7122    0.0000 C   0  0  0  0  0  0  0  0  0  0  0  0
    2.9061    2.6429    0.0000 C   0  0  0  0  0  0  0  0  0  0  0  0
    2.9061    4.7122    0.0000 C   0  0  0  0  0  0  0  0  0  0  0  0
    2.0000    3.1567    0.0000 C   0  0  0  0  0  0  0  0  0  0  0  0
    2.0000    4.1984    0.0000 C   0  0  0  0  0  0  0  0  0  0  0  0
    8.1301   -1.9424    0.0000 H   0  0  0  0  0  0  0  0  0  0  0  0
    8.7407   -0.4301    0.0000 H   0  0  0  0  0  0  0  0  0  0  0  0
    8.3422    0.2602    0.0000 H   0  0  0  0  0  0  0  0  0  0  0  0
    6.8656   -2.2974    0.0000 H   0  0  0  0  0  0  0  0  0  0  0  0
    7.6626   -2.2974    0.0000 H   0  0  0  0  0  0  0  0  0  0  0  0
    7.6626    0.6525    0.0000 H   0  0  0  0  0  0  0  0  0  0  0  0
    6.8656    0.6525    0.0000 H   0  0  0  0  0  0  0  0  0  0  0  0
    5.7875   -1.2148    0.0000 H   0  0  0  0  0  0  0  0  0  0  0  0
    6.1860   -1.9051    0.0000 H   0  0  0  0  0  0  0  0  0  0  0  0
    4.9215    0.2852    0.0000 H   0  0  0  0  0  0  0  0  0  0  0  0
    5.3200   -0.4051    0.0000 H   0  0  0  0  0  0  0  0  0  0  0  0
    6.1426    1.0699    0.0000 H   0  0  0  0  0  0  0  0  0  0  0  0
    5.7441    1.7602    0.0000 H   0  0  0  0  0  0  0  0  0  0  0  0
    4.0555    1.7852    0.0000 H   0  0  0  0  0  0  0  0  0  0  0  0
    4.4540    1.0949    0.0000 H   0  0  0  0  0  0  0  0  0  0  0  0
   11.1874   -2.0874    0.0000 H   0  0  0  0  0  0  0  0  0  0  0  0
    7.8247   -3.4276    0.0000 H   0  0  0  0  0  0  0  0  0  0  0  0
    6.1426    4.0699    0.0000 H   0  0  0  0  0  0  0  0  0  0  0  0
    5.7441    4.7602    0.0000 H   0  0  0  0  0  0  0  0  0  0  0  0
    5.0646    5.1525    0.0000 H   0  0  0  0  0  0  0  0  0  0  0  0
    4.2675    5.1525    0.0000 H   0  0  0  0  0  0  0  0  0  0  0  0
   10.9951   -4.0958    0.0000 H   0  0  0  0  0  0  0  0  0  0  0  0
    8.3280   -4.9675    0.0000 H   0  0  0  0  0  0  0  0  0  0  0  0
    9.9132   -5.3015    0.0000 H   0  0  0  0  0  0  0  0  0  0  0  0
    2.9132    5.3322    0.0000 H   0  0  0  0  0  0  0  0  0  0  0  0
    1.4643    2.8447    0.0000 H   0  0  0  0  0  0  0  0  0  0  0  0
    1.4643    4.5104    0.0000 H   0  0  0  0  0  0  0  0  0  0  0  0
  1 28  1  0  0  0  0
  2 17  2  0  0  0  0
  3 21  2  0  0  0  0
  4 11  1  0  0  0  0
  4 12  1  0  0  0  0
  4 13  1  0  0  0  0
  5  8  1  0  0  0  0
  5 15  1  0  0  0  0
  5 17  1  0  0  0  0
  6 16  1  0  0  0  0
  6 20  1  0  0  0  0
  6 21  1  0  0  0  0
  7 17  1  0  0  0  0
  7 18  1  0  0  0  0
  7 47  1  0  0  0  0
  8  9  1  0  0  0  0
  8 10  1  0  0  0  0
  8 32  1  0  0  0  0
  9 11  1  0  0  0  0
  9 33  1  0  0  0  0
  9 34  1  0  0  0  0
 10 12  1  0  0  0  0
 10 35  1  0  0  0  0
 10 36  1  0  0  0  0
 11 37  1  0  0  0  0
 11 38  1  0  0  0  0
 12 39  1  0  0  0  0
 12 40  1  0  0  0  0
 13 14  1  0  0  0  0
 13 41  1  0  0  0  0
 13 42  1  0  0  0  0
 14 16  1  0  0  0  0
 14 43  1  0  0  0  0
 14 44  1  0  0  0  0
 15 18  1  0  0  0  0
 15 19  2  0  0  0  0
 16 45  1  0  0  0  0
 16 46  1  0  0  0  0
 18 25  2  0  0  0  0
 19 26  1  0  0  0  0
 19 48  1  0  0  0  0
 20 23  2  0  0  0  0
 20 28  1  0  0  0  0
 21 22  1  0  0  0  0
 22 24  1  0  0  0  0
 22 49  1  0  0  0  0
 22 50  1  0  0  0  0
 23 24  1  0  0  0  0
 23 29  1  0  0  0  0
 24 51  1  0  0  0  0
 24 52  1  0  0  0  0
 25 27  1  0  0  0  0
 25 53  1  0  0  0  0
 26 27  2  0  0  0  0
 26 54  1  0  0  0  0
 27 55  1  0  0  0  0
 28 30  2  0  0  0  0
 29 31  2  0  0  0  0
 29 56  1  0  0  0  0
 30 31  1  0  0  0  0
 30 57  1  0  0  0  0
 31 58  1  0  0  0  0
M  END
> <PUBCHEM_COMPOUND_CID>
62705505

> <PUBCHEM_COMPOUND_CANONICALIZED>
1

> <PUBCHEM_CACTVS_COMPLEXITY>
668

> <PUBCHEM_CACTVS_HBOND_ACCEPTOR>
4

> <PUBCHEM_CACTVS_HBOND_DONOR>
1

> <PUBCHEM_CACTVS_ROTATABLE_BOND>
5

> <PUBCHEM_CACTVS_SUBSKEYS>
AAADceB7sQAAAAAAAAAAAAAAAAAAAWAAAAA8eIEAAAAAAFixQAAAHwAQAAAADCjBmAwxwIPAAACIAiVSUACCAAAhAgAIiAEIdIiIYDLA0ZGUIAholgLIyCcYiYCeAAAAAAACACAAAAAAAAQAQAAAAAAAAA==

> <PUBCHEM_IUPAC_OPENEYE_NAME>
8-fluoro-1-[3-[4-(2-oxo-3H-benzimidazol-1-yl)-1-piperidyl]propyl]-3,4-dihydroquinolin-2-one

> <PUBCHEM_IUPAC_CAS_NAME>
8-fluoro-1-[3-[4-(2-oxo-3H-benzimidazol-1-yl)-1-piperidinyl]propyl]-3,4-dihydroquinolin-2-one

> <PUBCHEM_IUPAC_NAME_MARKUP>
8-fluoro-1-[3-[4-(2-oxo-3<I>H</I>-benzimidazol-1-yl)piperidin-1-yl]propyl]-3,4-dihydroquinolin-2-one

> <PUBCHEM_IUPAC_NAME>
8-fluoro-1-[3-[4-(2-oxo-3H-benzimidazol-1-yl)piperidin-1-yl]propyl]-3,4-dihydroquinolin-2-one

> <PUBCHEM_IUPAC_SYSTEMATIC_NAME>
8-fluoranyl-1-[3-[4-(2-oxidanylidene-3H-benzimidazol-1-yl)piperidin-1-yl]propyl]-3,4-dihydroquinolin-2-one

> <PUBCHEM_IUPAC_TRADITIONAL_NAME>
8-fluoro-1-[3-[4-(2-keto-3H-benzimidazol-1-yl)piperidino]propyl]-3,4-dihydrocarbostyril

> <PUBCHEM_IUPAC_INCHI>
InChI=1S/C24H27FN4O2/c25-19-6-3-5-17-9-10-22(30)28(23(17)19)14-4-13-27-15-11-18(12-16-27)29-21-8-2-1-7-20(21)26-24(29)31/h1-3,5-8,18H,4,9-16H2,(H,26,31)

> <PUBCHEM_IUPAC_INCHIKEY>
XYOSGJOTBXWFCN-UHFFFAOYSA-N

> <PUBCHEM_XLOGP3_AA>
2.8

> <PUBCHEM_EXACT_MASS>
422.21180428

> <PUBCHEM_MOLECULAR_FORMULA>
C24H27FN4O2

> <PUBCHEM_MOLECULAR_WEIGHT>
422.5

> <PUBCHEM_OPENEYE_CAN_SMILES>
C1CN(CCC1N2C3=CC=CC=C3NC2=O)CCCN4C(=O)CCC5=C4C(=CC=C5)F

> <PUBCHEM_OPENEYE_ISO_SMILES>
C1CN(CCC1N2C3=CC=CC=C3NC2=O)CCCN4C(=O)CCC5=C4C(=CC=C5)F

> <PUBCHEM_CACTVS_TPSA>
55.9

> <PUBCHEM_MONOISOTOPIC_WEIGHT>
422.21180428

> <PUBCHEM_TOTAL_CHARGE>
0

> <PUBCHEM_HEAVY_ATOM_COUNT>
31

> <PUBCHEM_ATOM_DEF_STEREO_COUNT>
0

> <PUBCHEM_ATOM_UDEF_STEREO_COUNT>
0

> <PUBCHEM_BOND_DEF_STEREO_COUNT>
0

> <PUBCHEM_BOND_UDEF_STEREO_COUNT>
0

> <PUBCHEM_ISOTOPIC_ATOM_COUNT>
0

> <PUBCHEM_COMPONENT_COUNT>
1

> <PUBCHEM_CACTVS_TAUTO_COUNT>
-1

> <PUBCHEM_COORDINATE_TYPE>
1
5
255

> <PUBCHEM_BONDANNOTATIONS>
15  18  8
15  19  8
18  25  8
19  26  8
20  23  8
20  28  8
23  29  8
25  27  8
26  27  8
28  30  8
29  31  8
30  31  8
5  15  8
5  17  8
7  17  8
7  18  8

$$$$
