70696888
  -OEChem-09292322332D

 60 64  0     1  0  0  0  0  0999 V2000
    3.9329    2.7005    0.0000 O   0  0  0  0  0  0  0  0  0  0  0  0
    6.9249    0.5224    0.0000 N   0  0  3  0  0  0  0  0  0  0  0  0
    3.6721   -0.6903    0.0000 N   0  0  0  0  0  0  0  0  0  0  0  0
    5.3860    0.0224    0.0000 C   0  0  2  0  0  0  0  0  0  0  0  0
    5.3860    1.0224    0.0000 C   0  0  1  0  0  0  0  0  0  0  0  0
    4.3778    0.0182    0.0000 C   0  0  1  0  0  0  0  0  0  0  0  0
    4.3778    1.0265    0.0000 C   0  0  1  0  0  0  0  0  0  0  0  0
    6.3371   -0.2866    0.0000 C   0  0  1  0  0  0  0  0  0  0  0  0
    6.3371    1.3314    0.0000 C   0  0  0  0  0  0  0  0  0  0  0  0
    3.6721    1.7351    0.0000 C   0  0  0  0  0  0  0  0  0  0  0  0
    6.6461   -1.2377    0.0000 C   0  0  0  0  0  0  0  0  0  0  0  0
    2.7056   -0.4335    0.0000 C   0  0  0  0  0  0  0  0  0  0  0  0
    3.9329   -1.6557    0.0000 C   0  0  0  0  0  0  0  0  0  0  0  0
    7.9249    0.5224    0.0000 C   0  0  0  0  0  0  0  0  0  0  0  0
    2.0000   -1.1420    0.0000 C   0  0  0  0  0  0  0  0  0  0  0  0
    3.2273   -2.3643    0.0000 C   0  0  0  0  0  0  0  0  0  0  0  0
    2.2608   -2.1074    0.0000 C   0  0  0  0  0  0  0  0  0  0  0  0
    7.6243   -1.4456    0.0000 C   0  0  0  0  0  0  0  0  0  0  0  0
    5.9770   -1.9808    0.0000 C   0  0  0  0  0  0  0  0  0  0  0  0
    8.4249    1.3884    0.0000 C   0  0  0  0  0  0  0  0  0  0  0  0
    7.9333   -2.3966    0.0000 C   0  0  0  0  0  0  0  0  0  0  0  0
    6.2860   -2.9319    0.0000 C   0  0  0  0  0  0  0  0  0  0  0  0
    7.9249    2.2544    0.0000 C   0  0  0  0  0  0  0  0  0  0  0  0
    9.4249    1.3884    0.0000 C   0  0  0  0  0  0  0  0  0  0  0  0
    7.2642   -3.1398    0.0000 C   0  0  0  0  0  0  0  0  0  0  0  0
    8.4249    3.1205    0.0000 C   0  0  0  0  0  0  0  0  0  0  0  0
    9.9249    2.2544    0.0000 C   0  0  0  0  0  0  0  0  0  0  0  0
    9.4249    3.1205    0.0000 C   0  0  0  0  0  0  0  0  0  0  0  0
    5.2548   -0.8174    0.0000 H   0  0  0  0  0  0  0  0  0  0  0  0
    5.2548    1.8622    0.0000 H   0  0  0  0  0  0  0  0  0  0  0  0
    3.8047    0.2549    0.0000 H   0  0  0  0  0  0  0  0  0  0  0  0
    4.6168    1.5986    0.0000 H   0  0  0  0  0  0  0  0  0  0  0  0
    6.9495   -0.3836    0.0000 H   0  0  0  0  0  0  0  0  0  0  0  0
    6.8740    1.6414    0.0000 H   0  0  0  0  0  0  0  0  0  0  0  0
    6.0849    1.8978    0.0000 H   0  0  0  0  0  0  0  0  0  0  0  0
    3.1107    1.9983    0.0000 H   0  0  0  0  0  0  0  0  0  0  0  0
    3.3154    1.2280    0.0000 H   0  0  0  0  0  0  0  0  0  0  0  0
    2.9665    0.1290    0.0000 H   0  0  0  0  0  0  0  0  0  0  0  0
    2.1970   -0.0789    0.0000 H   0  0  0  0  0  0  0  0  0  0  0  0
    4.2896   -2.1628    0.0000 H   0  0  0  0  0  0  0  0  0  0  0  0
    4.4943   -1.3925    0.0000 H   0  0  0  0  0  0  0  0  0  0  0  0
    7.8172   -0.0882    0.0000 H   0  0  0  0  0  0  0  0  0  0  0  0
    8.5075    0.3103    0.0000 H   0  0  0  0  0  0  0  0  0  0  0  0
    1.6433   -0.6349    0.0000 H   0  0  0  0  0  0  0  0  0  0  0  0
    1.4386   -1.4052    0.0000 H   0  0  0  0  0  0  0  0  0  0  0  0
    2.9664   -2.9267    0.0000 H   0  0  0  0  0  0  0  0  0  0  0  0
    3.7359   -2.7188    0.0000 H   0  0  0  0  0  0  0  0  0  0  0  0
    1.6433   -2.1627    0.0000 H   0  0  0  0  0  0  0  0  0  0  0  0
    2.2080   -2.7252    0.0000 H   0  0  0  0  0  0  0  0  0  0  0  0
    3.4954    3.1398    0.0000 H   0  0  0  0  0  0  0  0  0  0  0  0
    8.0391   -0.9848    0.0000 H   0  0  0  0  0  0  0  0  0  0  0  0
    5.3705   -1.8519    0.0000 H   0  0  0  0  0  0  0  0  0  0  0  0
    8.5397   -2.5256    0.0000 H   0  0  0  0  0  0  0  0  0  0  0  0
    5.8711   -3.3926    0.0000 H   0  0  0  0  0  0  0  0  0  0  0  0
    7.3049    2.2544    0.0000 H   0  0  0  0  0  0  0  0  0  0  0  0
    9.7349    0.8515    0.0000 H   0  0  0  0  0  0  0  0  0  0  0  0
    7.4557   -3.7294    0.0000 H   0  0  0  0  0  0  0  0  0  0  0  0
    8.1149    3.6574    0.0000 H   0  0  0  0  0  0  0  0  0  0  0  0
   10.5449    2.2544    0.0000 H   0  0  0  0  0  0  0  0  0  0  0  0
    9.7349    3.6574    0.0000 H   0  0  0  0  0  0  0  0  0  0  0  0
  1 10  1  0  0  0  0
  1 50  1  0  0  0  0
  2  8  1  0  0  0  0
  2  9  1  0  0  0  0
  2 14  1  0  0  0  0
  6  3  1  6  0  0  0
  3 12  1  0  0  0  0
  3 13  1  0  0  0  0
  4  5  1  0  0  0  0
  4  6  1  0  0  0  0
  4  8  1  0  0  0  0
  4 29  1  6  0  0  0
  5  7  1  0  0  0  0
  5  9  1  0  0  0  0
  5 30  1  6  0  0  0
  6  7  1  0  0  0  0
  6 31  1  0  0  0  0
  7 10  1  1  0  0  0
  7 32  1  0  0  0  0
  8 11  1  6  0  0  0
  8 33  1  0  0  0  0
  9 34  1  0  0  0  0
  9 35  1  0  0  0  0
 10 36  1  0  0  0  0
 10 37  1  0  0  0  0
 11 18  2  0  0  0  0
 11 19  1  0  0  0  0
 12 15  1  0  0  0  0
 12 38  1  0  0  0  0
 12 39  1  0  0  0  0
 13 16  1  0  0  0  0
 13 40  1  0  0  0  0
 13 41  1  0  0  0  0
 14 20  1  0  0  0  0
 14 42  1  0  0  0  0
 14 43  1  0  0  0  0
 15 17  1  0  0  0  0
 15 44  1  0  0  0  0
 15 45  1  0  0  0  0
 16 17  1  0  0  0  0
 16 46  1  0  0  0  0
 16 47  1  0  0  0  0
 17 48  1  0  0  0  0
 17 49  1  0  0  0  0
 18 21  1  0  0  0  0
 18 51  1  0  0  0  0
 19 22  2  0  0  0  0
 19 52  1  0  0  0  0
 20 23  2  0  0  0  0
 20 24  1  0  0  0  0
 21 25  2  0  0  0  0
 21 53  1  0  0  0  0
 22 25  1  0  0  0  0
 22 54  1  0  0  0  0
 23 26  1  0  0  0  0
 23 55  1  0  0  0  0
 24 27  2  0  0  0  0
 24 56  1  0  0  0  0
 25 57  1  0  0  0  0
 26 28  2  0  0  0  0
 26 58  1  0  0  0  0
 27 28  1  0  0  0  0
 27 59  1  0  0  0  0
 28 60  1  0  0  0  0
M  END
> <PUBCHEM_COMPOUND_CID>
70696888

> <PUBCHEM_COMPOUND_CANONICALIZED>
1

> <PUBCHEM_CACTVS_COMPLEXITY>
493

> <PUBCHEM_CACTVS_HBOND_ACCEPTOR>
3

> <PUBCHEM_CACTVS_HBOND_DONOR>
1

> <PUBCHEM_CACTVS_ROTATABLE_BOND>
5

> <PUBCHEM_CACTVS_SUBSKEYS>
AAADcfB7IAAAAAAAAAAAAAAAAABgAWAAAAA8YIAABYAAAAABQAAAHgAACAAADSjhmAYwAIMAAgCAAiBCAACCAAAgAAAIiAAIBIgIMCKA0RGEYAhmgACIiAew0OMOgAAAAAAAAAAAAAAAAAAAAAAAAAAAAA==

> <PUBCHEM_IUPAC_OPENEYE_NAME>
[(1R,2S,5S,6S,7S)-3-benzyl-2-phenyl-7-(1-piperidyl)-3-azabicyclo[3.2.0]heptan-6-yl]methanol

> <PUBCHEM_IUPAC_CAS_NAME>
[(1R,2S,5S,6S,7S)-2-phenyl-3-(phenylmethyl)-7-(1-piperidinyl)-3-azabicyclo[3.2.0]heptan-6-yl]methanol

> <PUBCHEM_IUPAC_NAME_MARKUP>
[(1<I>R</I>,2<I>S</I>,5<I>S</I>,6<I>S</I>,7<I>S</I>)-3-benzyl-2-phenyl-7-piperidin-1-yl-3-azabicyclo[3.2.0]heptan-6-yl]methanol

> <PUBCHEM_IUPAC_NAME>
[(1R,2S,5S,6S,7S)-3-benzyl-2-phenyl-7-piperidin-1-yl-3-azabicyclo[3.2.0]heptan-6-yl]methanol

> <PUBCHEM_IUPAC_SYSTEMATIC_NAME>
[(1R,2S,5S,6S,7S)-2-phenyl-3-(phenylmethyl)-7-piperidin-1-yl-3-azabicyclo[3.2.0]heptan-6-yl]methanol

> <PUBCHEM_IUPAC_TRADITIONAL_NAME>
[(1R,2S,5S,6S,7S)-3-benzyl-2-phenyl-7-piperidino-3-azabicyclo[3.2.0]heptan-6-yl]methanol

> <PUBCHEM_IUPAC_INCHI>
InChI=1S/C25H32N2O/c28-18-22-21-17-27(16-19-10-4-1-5-11-19)24(20-12-6-2-7-13-20)23(21)25(22)26-14-8-3-9-15-26/h1-2,4-7,10-13,21-25,28H,3,8-9,14-18H2/t21-,22+,23+,24-,25-/m1/s1

> <PUBCHEM_IUPAC_INCHIKEY>
ZYXIICVCCTVXCC-ZLOLNMDISA-N

> <PUBCHEM_XLOGP3_AA>
3.9

> <PUBCHEM_EXACT_MASS>
376.251463648

> <PUBCHEM_MOLECULAR_FORMULA>
C25H32N2O

> <PUBCHEM_MOLECULAR_WEIGHT>
376.5

> <PUBCHEM_OPENEYE_CAN_SMILES>
C1CCN(CC1)C2C(C3C2C(N(C3)CC4=CC=CC=C4)C5=CC=CC=C5)CO

> <PUBCHEM_OPENEYE_ISO_SMILES>
C1CCN(CC1)[C@@H]2[C@H]([C@@H]3[C@H]2[C@H](N(C3)CC4=CC=CC=C4)C5=CC=CC=C5)CO

> <PUBCHEM_CACTVS_TPSA>
26.7

> <PUBCHEM_MONOISOTOPIC_WEIGHT>
376.251463648

> <PUBCHEM_TOTAL_CHARGE>
0

> <PUBCHEM_HEAVY_ATOM_COUNT>
28

> <PUBCHEM_ATOM_DEF_STEREO_COUNT>
5

> <PUBCHEM_ATOM_UDEF_STEREO_COUNT>
0

> <PUBCHEM_BOND_DEF_STEREO_COUNT>
0

> <PUBCHEM_BOND_UDEF_STEREO_COUNT>
0

> <PUBCHEM_ISOTOPIC_ATOM_COUNT>
0

> <PUBCHEM_COMPONENT_COUNT>
1

> <PUBCHEM_CACTVS_TAUTO_COUNT>
-1

> <PUBCHEM_COORDINATE_TYPE>
1
5
255

> <PUBCHEM_BONDANNOTATIONS>
11  18  8
11  19  8
18  21  8
19  22  8
20  23  8
20  24  8
21  25  8
22  25  8
23  26  8
24  27  8
26  28  8
27  28  8
6  3  6
4  29  6
5  30  6
7  10  5
8  11  6

$$$$
