24900811
  -OEChem-09292322042D

 63 66  0     1  0  0  0  0  0999 V2000
   10.7404   -3.7903    0.0000 S   0  0  0  0  0  0  0  0  0  0  0  0
    9.7942   -2.0950    0.0000 O   0  0  0  0  0  0  0  0  0  0  0  0
    8.9282   -6.5950    0.0000 O   0  0  0  0  0  0  0  0  0  0  0  0
   12.3241   -4.5950    0.0000 O   0  0  0  0  0  0  0  0  0  0  0  0
    4.5981    4.9050    0.0000 O   0  0  0  0  0  0  0  0  0  0  0  0
    8.0622   -1.0950    0.0000 N   0  0  0  0  0  0  0  0  0  0  0  0
   10.7404   -5.3997    0.0000 N   0  0  0  0  0  0  0  0  0  0  0  0
    3.7320    3.4050    0.0000 N   0  0  0  0  0  0  0  0  0  0  0  0
    8.9282   -2.5950    0.0000 C   0  0  1  0  0  0  0  0  0  0  0  0
    8.0622   -2.0950    0.0000 C   0  0  0  0  0  0  0  0  0  0  0  0
    8.9282   -3.5950    0.0000 C   0  0  0  0  0  0  0  0  0  0  0  0
    7.1962   -0.5950    0.0000 C   0  0  0  0  0  0  0  0  0  0  0  0
    7.1962    0.4050    0.0000 C   0  0  0  0  0  0  0  0  0  0  0  0
    9.7942   -4.0950    0.0000 C   0  0  0  0  0  0  0  0  0  0  0  0
    6.3301    0.9050    0.0000 C   0  0  0  0  0  0  0  0  0  0  0  0
    9.7942   -5.0950    0.0000 C   0  0  0  0  0  0  0  0  0  0  0  0
    8.0622   -4.0950    0.0000 C   0  0  0  0  0  0  0  0  0  0  0  0
    4.5981    1.9050    0.0000 C   0  0  0  0  0  0  0  0  0  0  0  0
    8.9282   -5.5950    0.0000 C   0  0  0  0  0  0  0  0  0  0  0  0
    5.4641    0.4050    0.0000 C   0  0  0  0  0  0  0  0  0  0  0  0
    6.3301    1.9050    0.0000 C   0  0  0  0  0  0  0  0  0  0  0  0
    3.7320    2.4050    0.0000 C   0  0  0  0  0  0  0  0  0  0  0  0
    8.0622   -5.0950    0.0000 C   0  0  0  0  0  0  0  0  0  0  0  0
    4.5981    0.9050    0.0000 C   0  0  0  0  0  0  0  0  0  0  0  0
    5.4641    2.4050    0.0000 C   0  0  0  0  0  0  0  0  0  0  0  0
    2.8660    3.9050    0.0000 C   0  0  0  0  0  0  0  0  0  0  0  0
   11.3241   -4.5950    0.0000 C   0  0  0  0  0  0  0  0  0  0  0  0
    2.8660    4.9050    0.0000 C   0  0  0  0  0  0  0  0  0  0  0  0
    3.7320    5.4050    0.0000 C   0  0  0  0  0  0  0  0  0  0  0  0
    2.0000    5.4050    0.0000 C   0  0  0  0  0  0  0  0  0  0  0  0
    3.7320    6.4050    0.0000 C   0  0  0  0  0  0  0  0  0  0  0  0
    2.0000    6.4050    0.0000 C   0  0  0  0  0  0  0  0  0  0  0  0
    2.8660    6.9050    0.0000 C   0  0  0  0  0  0  0  0  0  0  0  0
    5.4641    5.4050    0.0000 C   0  0  0  0  0  0  0  0  0  0  0  0
    9.4651   -2.9050    0.0000 H   0  0  0  0  0  0  0  0  0  0  0  0
    7.4516   -1.9873    0.0000 H   0  0  0  0  0  0  0  0  0  0  0  0
    7.8501   -2.6776    0.0000 H   0  0  0  0  0  0  0  0  0  0  0  0
    6.5856   -0.4873    0.0000 H   0  0  0  0  0  0  0  0  0  0  0  0
    6.9841   -1.1776    0.0000 H   0  0  0  0  0  0  0  0  0  0  0  0
    7.8067    0.2973    0.0000 H   0  0  0  0  0  0  0  0  0  0  0  0
    7.4082    0.9876    0.0000 H   0  0  0  0  0  0  0  0  0  0  0  0
    8.5991   -0.7850    0.0000 H   0  0  0  0  0  0  0  0  0  0  0  0
    7.5252   -3.7850    0.0000 H   0  0  0  0  0  0  0  0  0  0  0  0
    5.4641   -0.2150    0.0000 H   0  0  0  0  0  0  0  0  0  0  0  0
    6.8671    2.2150    0.0000 H   0  0  0  0  0  0  0  0  0  0  0  0
    3.1215    2.5127    0.0000 H   0  0  0  0  0  0  0  0  0  0  0  0
    3.5200    1.8224    0.0000 H   0  0  0  0  0  0  0  0  0  0  0  0
    7.5252   -5.4050    0.0000 H   0  0  0  0  0  0  0  0  0  0  0  0
    4.0611    0.5950    0.0000 H   0  0  0  0  0  0  0  0  0  0  0  0
    5.4641    3.0250    0.0000 H   0  0  0  0  0  0  0  0  0  0  0  0
   10.9331   -5.9891    0.0000 H   0  0  0  0  0  0  0  0  0  0  0  0
    9.7942   -1.4750    0.0000 H   0  0  0  0  0  0  0  0  0  0  0  0
    4.2690    3.7150    0.0000 H   0  0  0  0  0  0  0  0  0  0  0  0
    2.2554    4.0127    0.0000 H   0  0  0  0  0  0  0  0  0  0  0  0
    2.6540    3.3224    0.0000 H   0  0  0  0  0  0  0  0  0  0  0  0
    8.3913   -6.9050    0.0000 H   0  0  0  0  0  0  0  0  0  0  0  0
    1.4631    5.0950    0.0000 H   0  0  0  0  0  0  0  0  0  0  0  0
    4.2690    6.7150    0.0000 H   0  0  0  0  0  0  0  0  0  0  0  0
    1.4631    6.7150    0.0000 H   0  0  0  0  0  0  0  0  0  0  0  0
    2.8660    7.5250    0.0000 H   0  0  0  0  0  0  0  0  0  0  0  0
    5.7741    4.8681    0.0000 H   0  0  0  0  0  0  0  0  0  0  0  0
    6.0010    5.7150    0.0000 H   0  0  0  0  0  0  0  0  0  0  0  0
    5.1541    5.9419    0.0000 H   0  0  0  0  0  0  0  0  0  0  0  0
  1 14  1  0  0  0  0
  1 27  1  0  0  0  0
  9  2  1  6  0  0  0
  2 52  1  0  0  0  0
  3 19  1  0  0  0  0
  3 56  1  0  0  0  0
  4 27  2  0  0  0  0
  5 29  1  0  0  0  0
  5 34  1  0  0  0  0
  6 10  1  0  0  0  0
  6 12  1  0  0  0  0
  6 42  1  0  0  0  0
  7 16  1  0  0  0  0
  7 27  1  0  0  0  0
  7 51  1  0  0  0  0
  8 22  1  0  0  0  0
  8 26  1  0  0  0  0
  8 53  1  0  0  0  0
  9 10  1  0  0  0  0
  9 11  1  0  0  0  0
  9 35  1  0  0  0  0
 10 36  1  0  0  0  0
 10 37  1  0  0  0  0
 11 14  2  0  0  0  0
 11 17  1  0  0  0  0
 12 13  1  0  0  0  0
 12 38  1  0  0  0  0
 12 39  1  0  0  0  0
 13 15  1  0  0  0  0
 13 40  1  0  0  0  0
 13 41  1  0  0  0  0
 14 16  1  0  0  0  0
 15 20  2  0  0  0  0
 15 21  1  0  0  0  0
 16 19  2  0  0  0  0
 17 23  2  0  0  0  0
 17 43  1  0  0  0  0
 18 22  1  0  0  0  0
 18 24  2  0  0  0  0
 18 25  1  0  0  0  0
 19 23  1  0  0  0  0
 20 24  1  0  0  0  0
 20 44  1  0  0  0  0
 21 25  2  0  0  0  0
 21 45  1  0  0  0  0
 22 46  1  0  0  0  0
 22 47  1  0  0  0  0
 23 48  1  0  0  0  0
 24 49  1  0  0  0  0
 25 50  1  0  0  0  0
 26 28  1  0  0  0  0
 26 54  1  0  0  0  0
 26 55  1  0  0  0  0
 28 29  1  0  0  0  0
 28 30  2  0  0  0  0
 29 31  2  0  0  0  0
 30 32  1  0  0  0  0
 30 57  1  0  0  0  0
 31 33  1  0  0  0  0
 31 58  1  0  0  0  0
 32 33  2  0  0  0  0
 32 59  1  0  0  0  0
 33 60  1  0  0  0  0
 34 61  1  0  0  0  0
 34 62  1  0  0  0  0
 34 63  1  0  0  0  0
M  END
> <PUBCHEM_COMPOUND_CID>
24900811

> <PUBCHEM_COMPOUND_CANONICALIZED>
1

> <PUBCHEM_CACTVS_COMPLEXITY>
633

> <PUBCHEM_CACTVS_HBOND_ACCEPTOR>
7

> <PUBCHEM_CACTVS_HBOND_DONOR>
5

> <PUBCHEM_CACTVS_ROTATABLE_BOND>
11

> <PUBCHEM_CACTVS_SUBSKEYS>
AAADceB7OABAAAAAAAAAAAAAAAAAAWAAAAAwYMAAAAAAAFgBUAAAHgQQCAAADBzh2AYyx4LABgiIAiRCUACCCABhKBAIiJQPTIgONiL2sZuEcChm1BHY+Aew4OQOYAAARAAMEQDAAACIABgiAAAAAAAAAA==

> <PUBCHEM_IUPAC_OPENEYE_NAME>
4-hydroxy-7-[(1R)-1-hydroxy-2-[2-[4-[[(2-methoxyphenyl)methylamino]methyl]phenyl]ethylamino]ethyl]-3H-1,3-benzothiazol-2-one

> <PUBCHEM_IUPAC_CAS_NAME>
4-hydroxy-7-[(1R)-1-hydroxy-2-[2-[4-[[(2-methoxyphenyl)methylamino]methyl]phenyl]ethylamino]ethyl]-3H-1,3-benzothiazol-2-one

> <PUBCHEM_IUPAC_NAME_MARKUP>
4-hydroxy-7-[(1<I>R</I>)-1-hydroxy-2-[2-[4-[[(2-methoxyphenyl)methylamino]methyl]phenyl]ethylamino]ethyl]-3<I>H</I>-1,3-benzothiazol-2-one

> <PUBCHEM_IUPAC_NAME>
4-hydroxy-7-[(1R)-1-hydroxy-2-[2-[4-[[(2-methoxyphenyl)methylamino]methyl]phenyl]ethylamino]ethyl]-3H-1,3-benzothiazol-2-one

> <PUBCHEM_IUPAC_SYSTEMATIC_NAME>
7-[(1R)-2-[2-[4-[[(2-methoxyphenyl)methylamino]methyl]phenyl]ethylamino]-1-oxidanyl-ethyl]-4-oxidanyl-3H-1,3-benzothiazol-2-one

> <PUBCHEM_IUPAC_TRADITIONAL_NAME>
4-hydroxy-7-[(1R)-1-hydroxy-2-[2-[4-[(o-anisylamino)methyl]phenyl]ethylamino]ethyl]-3H-1,3-benzothiazol-2-one

> <PUBCHEM_IUPAC_INCHI>
InChI=1S/C26H29N3O4S/c1-33-23-5-3-2-4-19(23)15-28-14-18-8-6-17(7-9-18)12-13-27-16-22(31)20-10-11-21(30)24-25(20)34-26(32)29-24/h2-11,22,27-28,30-31H,12-16H2,1H3,(H,29,32)/t22-/m0/s1

> <PUBCHEM_IUPAC_INCHIKEY>
NYWJZLOBZHVZMI-QFIPXVFZSA-N

> <PUBCHEM_XLOGP3_AA>
2.8

> <PUBCHEM_EXACT_MASS>
479.18787759

> <PUBCHEM_MOLECULAR_FORMULA>
C26H29N3O4S

> <PUBCHEM_MOLECULAR_WEIGHT>
479.6

> <PUBCHEM_OPENEYE_CAN_SMILES>
COC1=CC=CC=C1CNCC2=CC=C(C=C2)CCNCC(C3=C4C(=C(C=C3)O)NC(=O)S4)O

> <PUBCHEM_OPENEYE_ISO_SMILES>
COC1=CC=CC=C1CNCC2=CC=C(C=C2)CCNC[C@@H](C3=C4C(=C(C=C3)O)NC(=O)S4)O

> <PUBCHEM_CACTVS_TPSA>
128

> <PUBCHEM_MONOISOTOPIC_WEIGHT>
479.18787759

> <PUBCHEM_TOTAL_CHARGE>
0

> <PUBCHEM_HEAVY_ATOM_COUNT>
34

> <PUBCHEM_ATOM_DEF_STEREO_COUNT>
1

> <PUBCHEM_ATOM_UDEF_STEREO_COUNT>
0

> <PUBCHEM_BOND_DEF_STEREO_COUNT>
0

> <PUBCHEM_BOND_UDEF_STEREO_COUNT>
0

> <PUBCHEM_ISOTOPIC_ATOM_COUNT>
0

> <PUBCHEM_COMPONENT_COUNT>
1

> <PUBCHEM_CACTVS_TAUTO_COUNT>
-1

> <PUBCHEM_COORDINATE_TYPE>
1
5
255

> <PUBCHEM_BONDANNOTATIONS>
1  14  8
1  27  8
11  14  8
11  17  8
14  16  8
15  20  8
15  21  8
16  19  8
17  23  8
18  24  8
18  25  8
19  23  8
9  2  6
20  24  8
21  25  8
28  29  8
28  30  8
29  31  8
30  32  8
31  33  8
32  33  8
7  16  8
7  27  8

$$$$
