135887932
  -OEChem-09292322212D

 68 70  0     0  0  0  0  0  0999 V2000
    3.2018   10.1310    0.0000 O   0  0  0  0  0  0  0  0  0  0  0  0
    9.6636    1.0000    0.0000 O   0  0  0  0  0  0  0  0  0  0  0  0
    5.3335    1.5000    0.0000 O   0  0  0  0  0  0  0  0  0  0  0  0
    8.7976    2.5000    0.0000 O   0  0  0  0  0  0  0  0  0  0  0  0
    6.1995    0.0000    0.0000 O   0  0  0  0  0  0  0  0  0  0  0  0
   10.1300    8.1310    0.0000 N   0  0  0  0  0  0  0  0  0  0  0  0
   11.8620    7.1310    0.0000 N   0  0  0  0  0  0  0  0  0  0  0  0
   12.7281    5.6310    0.0000 N   0  0  0  0  0  0  0  0  0  0  0  0
   13.5941    7.1310    0.0000 N   0  0  0  0  0  0  0  0  0  0  0  0
    4.9338    8.1310    0.0000 N   0  0  0  0  0  0  0  0  0  0  0  0
    3.2018    8.1310    0.0000 N   0  0  0  0  0  0  0  0  0  0  0  0
   10.1300    7.1310    0.0000 C   0  0  0  0  0  0  0  0  0  0  0  0
   10.9960    8.6310    0.0000 C   0  0  0  0  0  0  0  0  0  0  0  0
    9.2640    8.6310    0.0000 C   0  0  0  0  0  0  0  0  0  0  0  0
   10.9960    6.6310    0.0000 C   0  0  0  0  0  0  0  0  0  0  0  0
   11.8620    8.1310    0.0000 C   0  0  0  0  0  0  0  0  0  0  0  0
    8.3979    8.1310    0.0000 C   0  0  0  0  0  0  0  0  0  0  0  0
    7.5319    8.6310    0.0000 C   0  0  0  0  0  0  0  0  0  0  0  0
    6.6659    8.1310    0.0000 C   0  0  0  0  0  0  0  0  0  0  0  0
   12.7281    6.6310    0.0000 C   0  0  0  0  0  0  0  0  0  0  0  0
    5.7998    8.6310    0.0000 C   0  0  0  0  0  0  0  0  0  0  0  0
    4.0678    8.6310    0.0000 C   0  0  0  0  0  0  0  0  0  0  0  0
   13.5941    5.1310    0.0000 C   0  0  0  0  0  0  0  0  0  0  0  0
   14.4601    6.6310    0.0000 C   0  0  0  0  0  0  0  0  0  0  0  0
   14.4601    5.6310    0.0000 C   0  0  0  0  0  0  0  0  0  0  0  0
    4.0678    9.6310    0.0000 C   0  0  0  0  0  0  0  0  0  0  0  0
    2.3358    8.6310    0.0000 C   0  0  0  0  0  0  0  0  0  0  0  0
    2.3358    9.6310    0.0000 C   0  0  0  0  0  0  0  0  0  0  0  0
    1.4418    8.0963    0.0000 C   0  0  0  0  0  0  0  0  0  0  0  0
    1.4418   10.1656    0.0000 C   0  0  0  0  0  0  0  0  0  0  0  0
    0.5357    8.6101    0.0000 C   0  0  0  0  0  0  0  0  0  0  0  0
    0.5357    9.6518    0.0000 C   0  0  0  0  0  0  0  0  0  0  0  0
    7.9315    1.0000    0.0000 C   0  0  0  0  0  0  0  0  0  0  0  0
    7.0655    1.5000    0.0000 C   0  0  0  0  0  0  0  0  0  0  0  0
    8.7976    1.5000    0.0000 C   0  0  0  0  0  0  0  0  0  0  0  0
    6.1995    1.0000    0.0000 C   0  0  0  0  0  0  0  0  0  0  0  0
    9.5194    7.2386    0.0000 H   0  0  0  0  0  0  0  0  0  0  0  0
    9.9179    6.5484    0.0000 H   0  0  0  0  0  0  0  0  0  0  0  0
   11.3945    9.1059    0.0000 H   0  0  0  0  0  0  0  0  0  0  0  0
   10.5975    9.1059    0.0000 H   0  0  0  0  0  0  0  0  0  0  0  0
    9.6625    9.1059    0.0000 H   0  0  0  0  0  0  0  0  0  0  0  0
    8.8654    9.1059    0.0000 H   0  0  0  0  0  0  0  0  0  0  0  0
   10.5975    6.1560    0.0000 H   0  0  0  0  0  0  0  0  0  0  0  0
   11.3945    6.1560    0.0000 H   0  0  0  0  0  0  0  0  0  0  0  0
   12.4726    8.0233    0.0000 H   0  0  0  0  0  0  0  0  0  0  0  0
   12.0741    8.7136    0.0000 H   0  0  0  0  0  0  0  0  0  0  0  0
    7.9994    7.6560    0.0000 H   0  0  0  0  0  0  0  0  0  0  0  0
    8.7964    7.6560    0.0000 H   0  0  0  0  0  0  0  0  0  0  0  0
    7.9304    9.1059    0.0000 H   0  0  0  0  0  0  0  0  0  0  0  0
    7.1334    9.1059    0.0000 H   0  0  0  0  0  0  0  0  0  0  0  0
    6.2673    7.6560    0.0000 H   0  0  0  0  0  0  0  0  0  0  0  0
    7.0644    7.6560    0.0000 H   0  0  0  0  0  0  0  0  0  0  0  0
    6.1984    9.1059    0.0000 H   0  0  0  0  0  0  0  0  0  0  0  0
    5.4013    9.1059    0.0000 H   0  0  0  0  0  0  0  0  0  0  0  0
   13.5941    4.5110    0.0000 H   0  0  0  0  0  0  0  0  0  0  0  0
   14.9970    6.9410    0.0000 H   0  0  0  0  0  0  0  0  0  0  0  0
   14.9970    5.3210    0.0000 H   0  0  0  0  0  0  0  0  0  0  0  0
    4.6784    9.5233    0.0000 H   0  0  0  0  0  0  0  0  0  0  0  0
    4.2798   10.2136    0.0000 H   0  0  0  0  0  0  0  0  0  0  0  0
    3.2018    7.5110    0.0000 H   0  0  0  0  0  0  0  0  0  0  0  0
    1.4490    7.4763    0.0000 H   0  0  0  0  0  0  0  0  0  0  0  0
    1.4490   10.7856    0.0000 H   0  0  0  0  0  0  0  0  0  0  0  0
    0.0000    8.2981    0.0000 H   0  0  0  0  0  0  0  0  0  0  0  0
    0.0000    9.9638    0.0000 H   0  0  0  0  0  0  0  0  0  0  0  0
    7.9315    0.3800    0.0000 H   0  0  0  0  0  0  0  0  0  0  0  0
    7.0655    2.1200    0.0000 H   0  0  0  0  0  0  0  0  0  0  0  0
   10.2005    1.3100    0.0000 H   0  0  0  0  0  0  0  0  0  0  0  0
    4.7965    1.1900    0.0000 H   0  0  0  0  0  0  0  0  0  0  0  0
  1 26  1  0  0  0  0
  1 28  1  0  0  0  0
  2 35  1  0  0  0  0
  2 67  1  0  0  0  0
  3 36  1  0  0  0  0
  3 68  1  0  0  0  0
  4 35  2  0  0  0  0
  5 36  2  0  0  0  0
  6 12  1  0  0  0  0
  6 13  1  0  0  0  0
  6 14  1  0  0  0  0
  7 15  1  0  0  0  0
  7 16  1  0  0  0  0
  7 20  1  0  0  0  0
  8 20  2  0  0  0  0
  8 23  1  0  0  0  0
  9 20  1  0  0  0  0
  9 24  2  0  0  0  0
 10 21  1  0  0  0  0
 10 22  2  0  0  0  0
 11 22  1  0  0  0  0
 11 27  1  0  0  0  0
 11 60  1  0  0  0  0
 12 15  1  0  0  0  0
 12 37  1  0  0  0  0
 12 38  1  0  0  0  0
 13 16  1  0  0  0  0
 13 39  1  0  0  0  0
 13 40  1  0  0  0  0
 14 17  1  0  0  0  0
 14 41  1  0  0  0  0
 14 42  1  0  0  0  0
 15 43  1  0  0  0  0
 15 44  1  0  0  0  0
 16 45  1  0  0  0  0
 16 46  1  0  0  0  0
 17 18  1  0  0  0  0
 17 47  1  0  0  0  0
 17 48  1  0  0  0  0
 18 19  1  0  0  0  0
 18 49  1  0  0  0  0
 18 50  1  0  0  0  0
 19 21  1  0  0  0  0
 19 51  1  0  0  0  0
 19 52  1  0  0  0  0
 21 53  1  0  0  0  0
 21 54  1  0  0  0  0
 22 26  1  0  0  0  0
 23 25  2  0  0  0  0
 23 55  1  0  0  0  0
 24 25  1  0  0  0  0
 24 56  1  0  0  0  0
 25 57  1  0  0  0  0
 26 58  1  0  0  0  0
 26 59  1  0  0  0  0
 27 28  1  0  0  0  0
 27 29  2  0  0  0  0
 28 30  2  0  0  0  0
 29 31  1  0  0  0  0
 29 61  1  0  0  0  0
 30 32  1  0  0  0  0
 30 62  1  0  0  0  0
 31 32  2  0  0  0  0
 31 63  1  0  0  0  0
 32 64  1  0  0  0  0
 33 34  2  0  0  0  0
 33 35  1  0  0  0  0
 33 65  1  0  0  0  0
 34 36  1  0  0  0  0
 34 66  1  0  0  0  0
M  END
> <PUBCHEM_COMPOUND_CID>
135887932

> <PUBCHEM_COMPOUND_CANONICALIZED>
1

> <PUBCHEM_CACTVS_COMPLEXITY>
606

> <PUBCHEM_CACTVS_HBOND_ACCEPTOR>
10

> <PUBCHEM_CACTVS_HBOND_DONOR>
3

> <PUBCHEM_CACTVS_ROTATABLE_BOND>
9

> <PUBCHEM_CACTVS_SUBSKEYS>
AAADcfB7uAAAAAAAAAAAAAAAAAAAAAAAAAA8WLEAAAAAAACxwAAAHgAQCAAACAzhkgY93pfIFgCoADb3bASCiCkxIqAJ2CA/bNiObqLE+duXPCjs0BPY+aeQQAAAAAAAAAAAEAAAAAAAAAAgAAAAAAAAAA==

> <PUBCHEM_IUPAC_OPENEYE_NAME>
fumaric acid;N-[5-(4-pyrimidin-2-ylpiperazin-1-yl)pentyl]-4H-1,4-benzoxazin-3-imine

> <PUBCHEM_IUPAC_CAS_NAME>
(E)-2-butenedioic acid;N-[5-[4-(2-pyrimidinyl)-1-piperazinyl]pentyl]-4H-1,4-benzoxazin-3-imine

> <PUBCHEM_IUPAC_NAME_MARKUP>
(<I>E</I>)-but-2-enedioic acid;<I>N</I>-[5-(4-pyrimidin-2-ylpiperazin-1-yl)pentyl]-4<I>H</I>-1,4-benzoxazin-3-imine

> <PUBCHEM_IUPAC_NAME>
(E)-but-2-enedioic acid;N-[5-(4-pyrimidin-2-ylpiperazin-1-yl)pentyl]-4H-1,4-benzoxazin-3-imine

> <PUBCHEM_IUPAC_SYSTEMATIC_NAME>
(E)-but-2-enedioic acid;N-[5-(4-pyrimidin-2-ylpiperazin-1-yl)pentyl]-4H-1,4-benzoxazin-3-imine

> <PUBCHEM_IUPAC_TRADITIONAL_NAME>
4H-1,4-benzoxazin-3-ylidene-[5-[4-(2-pyrimidyl)piperazino]pentyl]amine;fumaric acid

> <PUBCHEM_IUPAC_INCHI>
InChI=1S/C21H28N6O.C4H4O4/c1(4-9-22-20-17-28-19-8-3-2-7-18(19)25-20)5-12-26-13-15-27(16-14-26)21-23-10-6-11-24-21;5-3(6)1-2-4(7)8/h2-3,6-8,10-11H,1,4-5,9,12-17H2,(H,22,25);1-2H,(H,5,6)(H,7,8)/b;2-1+

> <PUBCHEM_IUPAC_INCHIKEY>
PEFHSZRCGSBBHK-WLHGVMLRSA-N

> <PUBCHEM_EXACT_MASS>
496.24341814

> <PUBCHEM_MOLECULAR_FORMULA>
C25H32N6O5

> <PUBCHEM_MOLECULAR_WEIGHT>
496.6

> <PUBCHEM_OPENEYE_CAN_SMILES>
C1CN(CCN1CCCCCN=C2COC3=CC=CC=C3N2)C4=NC=CC=N4.C(=CC(=O)O)C(=O)O

> <PUBCHEM_OPENEYE_ISO_SMILES>
C1CN(CCN1CCCCCN=C2COC3=CC=CC=C3N2)C4=NC=CC=N4.C(=C/C(=O)O)\C(=O)O

> <PUBCHEM_CACTVS_TPSA>
141

> <PUBCHEM_MONOISOTOPIC_WEIGHT>
496.24341814

> <PUBCHEM_TOTAL_CHARGE>
0

> <PUBCHEM_HEAVY_ATOM_COUNT>
36

> <PUBCHEM_ATOM_DEF_STEREO_COUNT>
0

> <PUBCHEM_ATOM_UDEF_STEREO_COUNT>
0

> <PUBCHEM_BOND_DEF_STEREO_COUNT>
1

> <PUBCHEM_BOND_UDEF_STEREO_COUNT>
0

> <PUBCHEM_ISOTOPIC_ATOM_COUNT>
0

> <PUBCHEM_COMPONENT_COUNT>
2

> <PUBCHEM_CACTVS_TAUTO_COUNT>
-1

> <PUBCHEM_COORDINATE_TYPE>
1
5
255

> <PUBCHEM_BONDANNOTATIONS>
23  25  8
24  25  8
27  28  8
27  29  8
28  30  8
29  31  8
30  32  8
31  32  8
8  20  8
8  23  8
9  20  8
9  24  8

$$$$
