126720403
  -OEChem-09292322382D

 50 53  0     0  0  0  0  0  0999 V2000
    4.2746   -4.8825    0.0000 F   0  0  0  0  0  0  0  0  0  0  0  0
    2.8660    2.2624    0.0000 N   0  0  0  0  0  0  0  0  0  0  0  0
    4.6783   -0.5423    0.0000 N   0  0  0  0  0  0  0  0  0  0  0  0
    2.8660    4.2624    0.0000 N   0  0  0  0  0  0  0  0  0  0  0  0
    4.6783    1.0672    0.0000 N   0  0  0  0  0  0  0  0  0  0  0  0
    2.8660   -0.7376    0.0000 N   0  0  0  0  0  0  0  0  0  0  0  0
    3.7320    2.7624    0.0000 C   0  0  0  0  0  0  0  0  0  0  0  0
    2.0000    2.7624    0.0000 C   0  0  0  0  0  0  0  0  0  0  0  0
    2.8660    1.2624    0.0000 C   0  0  0  0  0  0  0  0  0  0  0  0
    3.7320    0.7624    0.0000 C   0  0  0  0  0  0  0  0  0  0  0  0
    3.7320    3.7624    0.0000 C   0  0  0  0  0  0  0  0  0  0  0  0
    2.0000    3.7624    0.0000 C   0  0  0  0  0  0  0  0  0  0  0  0
    5.2619    0.2624    0.0000 C   0  0  0  0  0  0  0  0  0  0  0  0
    3.7320   -0.2376    0.0000 C   0  0  0  0  0  0  0  0  0  0  0  0
    6.2619    0.2624    0.0000 C   0  0  0  0  0  0  0  0  0  0  0  0
    4.9889   -1.4928    0.0000 C   0  0  0  0  0  0  0  0  0  0  0  0
    2.0000    0.7624    0.0000 C   0  0  0  0  0  0  0  0  0  0  0  0
    6.7619    1.1285    0.0000 C   0  0  0  0  0  0  0  0  0  0  0  0
    6.7619   -0.6036    0.0000 C   0  0  0  0  0  0  0  0  0  0  0  0
    2.0000   -0.2376    0.0000 C   0  0  0  0  0  0  0  0  0  0  0  0
    4.3211   -2.2371    0.0000 C   0  0  0  0  0  0  0  0  0  0  0  0
    4.6318   -3.1876    0.0000 C   0  0  0  0  0  0  0  0  0  0  0  0
    3.3426   -2.0309    0.0000 C   0  0  0  0  0  0  0  0  0  0  0  0
    3.9639   -3.9319    0.0000 C   0  0  0  0  0  0  0  0  0  0  0  0
    2.6747   -2.7752    0.0000 C   0  0  0  0  0  0  0  0  0  0  0  0
    2.9854   -3.7257    0.0000 C   0  0  0  0  0  0  0  0  0  0  0  0
    3.9441    2.1798    0.0000 H   0  0  0  0  0  0  0  0  0  0  0  0
    4.3426    2.8701    0.0000 H   0  0  0  0  0  0  0  0  0  0  0  0
    1.3894    2.8701    0.0000 H   0  0  0  0  0  0  0  0  0  0  0  0
    1.7880    2.1798    0.0000 H   0  0  0  0  0  0  0  0  0  0  0  0
    4.3426    3.6548    0.0000 H   0  0  0  0  0  0  0  0  0  0  0  0
    3.9441    4.3451    0.0000 H   0  0  0  0  0  0  0  0  0  0  0  0
    1.7880    4.3451    0.0000 H   0  0  0  0  0  0  0  0  0  0  0  0
    1.3894    3.6548    0.0000 H   0  0  0  0  0  0  0  0  0  0  0  0
    6.8819    0.2624    0.0000 H   0  0  0  0  0  0  0  0  0  0  0  0
    2.8660    4.8825    0.0000 H   0  0  0  0  0  0  0  0  0  0  0  0
    5.3715   -1.9807    0.0000 H   0  0  0  0  0  0  0  0  0  0  0  0
    5.5359   -1.2008    0.0000 H   0  0  0  0  0  0  0  0  0  0  0  0
    1.4631    1.0724    0.0000 H   0  0  0  0  0  0  0  0  0  0  0  0
    7.2988    0.8185    0.0000 H   0  0  0  0  0  0  0  0  0  0  0  0
    7.0719    1.6654    0.0000 H   0  0  0  0  0  0  0  0  0  0  0  0
    6.2249    1.4385    0.0000 H   0  0  0  0  0  0  0  0  0  0  0  0
    6.2249   -0.9136    0.0000 H   0  0  0  0  0  0  0  0  0  0  0  0
    7.0719   -1.1405    0.0000 H   0  0  0  0  0  0  0  0  0  0  0  0
    7.2988   -0.2936    0.0000 H   0  0  0  0  0  0  0  0  0  0  0  0
    1.4631   -0.5476    0.0000 H   0  0  0  0  0  0  0  0  0  0  0  0
    5.2384   -3.3155    0.0000 H   0  0  0  0  0  0  0  0  0  0  0  0
    3.1500   -1.4416    0.0000 H   0  0  0  0  0  0  0  0  0  0  0  0
    2.0681   -2.6473    0.0000 H   0  0  0  0  0  0  0  0  0  0  0  0
    2.5713   -4.1872    0.0000 H   0  0  0  0  0  0  0  0  0  0  0  0
  1 24  1  0  0  0  0
  2  7  1  0  0  0  0
  2  8  1  0  0  0  0
  2  9  1  0  0  0  0
  3 13  1  0  0  0  0
  3 14  1  0  0  0  0
  3 16  1  0  0  0  0
  4 11  1  0  0  0  0
  4 12  1  0  0  0  0
  4 36  1  0  0  0  0
  5 10  1  0  0  0  0
  5 13  2  0  0  0  0
  6 14  2  0  0  0  0
  6 20  1  0  0  0  0
  7 11  1  0  0  0  0
  7 27  1  0  0  0  0
  7 28  1  0  0  0  0
  8 12  1  0  0  0  0
  8 29  1  0  0  0  0
  8 30  1  0  0  0  0
  9 10  2  0  0  0  0
  9 17  1  0  0  0  0
 10 14  1  0  0  0  0
 11 31  1  0  0  0  0
 11 32  1  0  0  0  0
 12 33  1  0  0  0  0
 12 34  1  0  0  0  0
 13 15  1  0  0  0  0
 15 18  1  0  0  0  0
 15 19  1  0  0  0  0
 15 35  1  0  0  0  0
 16 21  1  0  0  0  0
 16 37  1  0  0  0  0
 16 38  1  0  0  0  0
 17 20  2  0  0  0  0
 17 39  1  0  0  0  0
 18 40  1  0  0  0  0
 18 41  1  0  0  0  0
 18 42  1  0  0  0  0
 19 43  1  0  0  0  0
 19 44  1  0  0  0  0
 19 45  1  0  0  0  0
 20 46  1  0  0  0  0
 21 22  2  0  0  0  0
 21 23  1  0  0  0  0
 22 24  1  0  0  0  0
 22 47  1  0  0  0  0
 23 25  2  0  0  0  0
 23 48  1  0  0  0  0
 24 26  2  0  0  0  0
 25 26  1  0  0  0  0
 25 49  1  0  0  0  0
 26 50  1  0  0  0  0
M  END
> <PUBCHEM_COMPOUND_CID>
126720403

> <PUBCHEM_COMPOUND_CANONICALIZED>
1

> <PUBCHEM_CACTVS_COMPLEXITY>
456

> <PUBCHEM_CACTVS_HBOND_ACCEPTOR>
5

> <PUBCHEM_CACTVS_HBOND_DONOR>
1

> <PUBCHEM_CACTVS_ROTATABLE_BOND>
4

> <PUBCHEM_CACTVS_SUBSKEYS>
AAADceB7gQAAAAAAAAAAAAAAAAAAAWAAAAA8WIAAAAAAAFgB/AAAHQAQAAAADQjBHww/8L/MEACgAzZnZACCgC0xEqAJ2KA4dJiIaOLA2dGUJAhokALIyCcQgAAOAAAAAAAAAAAAAAAAAAAAAAAAAAAAAA==

> <PUBCHEM_IUPAC_OPENEYE_NAME>
3-[(3-fluorophenyl)methyl]-2-isopropyl-7-piperazin-1-yl-imidazo[4,5-b]pyridine

> <PUBCHEM_IUPAC_CAS_NAME>
3-[(3-fluorophenyl)methyl]-7-(1-piperazinyl)-2-propan-2-ylimidazo[4,5-b]pyridine

> <PUBCHEM_IUPAC_NAME_MARKUP>
3-[(3-fluorophenyl)methyl]-7-piperazin-1-yl-2-propan-2-ylimidazo[4,5-b]pyridine

> <PUBCHEM_IUPAC_NAME>
3-[(3-fluorophenyl)methyl]-7-piperazin-1-yl-2-propan-2-ylimidazo[4,5-b]pyridine

> <PUBCHEM_IUPAC_SYSTEMATIC_NAME>
3-[(3-fluorophenyl)methyl]-7-piperazin-1-yl-2-propan-2-yl-imidazo[4,5-b]pyridine

> <PUBCHEM_IUPAC_TRADITIONAL_NAME>
3-(3-fluorobenzyl)-2-isopropyl-7-piperazino-imidazo[4,5-b]pyridine

> <PUBCHEM_IUPAC_INCHI>
InChI=1S/C20H24FN5/c1-14(2)19-24-18-17(25-10-8-22-9-11-25)6-7-23-20(18)26(19)13-15-4-3-5-16(21)12-15/h3-7,12,14,22H,8-11,13H2,1-2H3

> <PUBCHEM_IUPAC_INCHIKEY>
PPGFYYASBMMZHO-UHFFFAOYSA-N

> <PUBCHEM_XLOGP3_AA>
3

> <PUBCHEM_EXACT_MASS>
353.20157395

> <PUBCHEM_MOLECULAR_FORMULA>
C20H24FN5

> <PUBCHEM_MOLECULAR_WEIGHT>
353.4

> <PUBCHEM_OPENEYE_CAN_SMILES>
CC(C)C1=NC2=C(C=CN=C2N1CC3=CC(=CC=C3)F)N4CCNCC4

> <PUBCHEM_OPENEYE_ISO_SMILES>
CC(C)C1=NC2=C(C=CN=C2N1CC3=CC(=CC=C3)F)N4CCNCC4

> <PUBCHEM_CACTVS_TPSA>
46

> <PUBCHEM_MONOISOTOPIC_WEIGHT>
353.20157395

> <PUBCHEM_TOTAL_CHARGE>
0

> <PUBCHEM_HEAVY_ATOM_COUNT>
26

> <PUBCHEM_ATOM_DEF_STEREO_COUNT>
0

> <PUBCHEM_ATOM_UDEF_STEREO_COUNT>
0

> <PUBCHEM_BOND_DEF_STEREO_COUNT>
0

> <PUBCHEM_BOND_UDEF_STEREO_COUNT>
0

> <PUBCHEM_ISOTOPIC_ATOM_COUNT>
0

> <PUBCHEM_COMPONENT_COUNT>
1

> <PUBCHEM_CACTVS_TAUTO_COUNT>
-1

> <PUBCHEM_COORDINATE_TYPE>
1
5
255

> <PUBCHEM_BONDANNOTATIONS>
10  14  8
17  20  8
21  22  8
21  23  8
22  24  8
23  25  8
24  26  8
25  26  8
3  13  8
3  14  8
5  10  8
5  13  8
6  14  8
6  20  8
9  10  8
9  17  8

$$$$
