126533872
  -OEChem-09292322372D

 61 65  0     1  0  0  0  0  0999 V2000
   11.3935    2.2926    0.0000 S   0  0  0  0  0  0  0  0  0  0  0  0
    2.0000   -1.0801    0.0000 F   0  0  0  0  0  0  0  0  0  0  0  0
    2.7702    0.1060    0.0000 F   0  0  0  0  0  0  0  0  0  0  0  0
    3.1861   -1.8503    0.0000 F   0  0  0  0  0  0  0  0  0  0  0  0
    3.9563   -0.6643    0.0000 O   0  0  0  0  0  0  0  0  0  0  0  0
    5.9126   -0.2485    0.0000 N   0  0  3  0  0  0  0  0  0  0  0  0
    8.3935    0.5606    0.0000 N   0  0  3  0  0  0  0  0  0  0  0  0
   12.9813    1.4836    0.0000 N   0  0  0  0  0  0  0  0  0  0  0  0
   12.9813    3.1016    0.0000 N   0  0  0  0  0  0  0  0  0  0  0  0
   13.9323    2.7926    0.0000 N   0  0  0  0  0  0  0  0  0  0  0  0
   15.6549    1.6116    0.0000 N   0  0  0  0  0  0  0  0  0  0  0  0
   15.4458   -0.3775    0.0000 N   0  0  0  0  0  0  0  0  0  0  0  0
    6.8636    1.0606    0.0000 C   0  0  3  0  0  0  0  0  0  0  0  0
    6.8636    0.0606    0.0000 C   0  0  3  0  0  0  0  0  0  0  0  0
    7.8099    1.3653    0.0000 C   0  0  0  0  0  0  0  0  0  0  0  0
    5.9126    1.3696    0.0000 C   0  0  0  0  0  0  0  0  0  0  0  0
    7.8099   -0.2442    0.0000 C   0  0  0  0  0  0  0  0  0  0  0  0
    5.3248    0.5606    0.0000 C   0  0  0  0  0  0  0  0  0  0  0  0
    9.3935    0.5606    0.0000 C   0  0  0  0  0  0  0  0  0  0  0  0
    5.6036   -1.1995    0.0000 C   0  0  0  0  0  0  0  0  0  0  0  0
    9.8935    1.4266    0.0000 C   0  0  0  0  0  0  0  0  0  0  0  0
    4.6254   -1.4074    0.0000 C   0  0  0  0  0  0  0  0  0  0  0  0
    6.2727   -1.9427    0.0000 C   0  0  0  0  0  0  0  0  0  0  0  0
   10.8935    1.4266    0.0000 C   0  0  0  0  0  0  0  0  0  0  0  0
    4.3164   -2.3585    0.0000 C   0  0  0  0  0  0  0  0  0  0  0  0
    5.9637   -2.8937    0.0000 C   0  0  0  0  0  0  0  0  0  0  0  0
    4.9855   -3.1016    0.0000 C   0  0  0  0  0  0  0  0  0  0  0  0
    2.9782   -0.8722    0.0000 C   0  0  0  0  0  0  0  0  0  0  0  0
   12.3935    2.2926    0.0000 C   0  0  0  0  0  0  0  0  0  0  0  0
   13.9323    1.7926    0.0000 C   0  0  0  0  0  0  0  0  0  0  0  0
   12.6722    0.5325    0.0000 C   0  0  0  0  0  0  0  0  0  0  0  0
   14.7413    1.2048    0.0000 C   0  0  0  0  0  0  0  0  0  0  0  0
   14.6368    0.2103    0.0000 C   0  0  0  0  0  0  0  0  0  0  0  0
   16.4639    1.0238    0.0000 C   0  0  0  0  0  0  0  0  0  0  0  0
   16.3594    0.0293    0.0000 C   0  0  0  0  0  0  0  0  0  0  0  0
    6.8644    1.6806    0.0000 H   0  0  0  0  0  0  0  0  0  0  0  0
    6.8644   -0.5594    0.0000 H   0  0  0  0  0  0  0  0  0  0  0  0
    8.3472    1.6745    0.0000 H   0  0  0  0  0  0  0  0  0  0  0  0
    7.5588    1.9322    0.0000 H   0  0  0  0  0  0  0  0  0  0  0  0
    6.1648    1.9360    0.0000 H   0  0  0  0  0  0  0  0  0  0  0  0
    5.3756    1.6796    0.0000 H   0  0  0  0  0  0  0  0  0  0  0  0
    7.5588   -0.8111    0.0000 H   0  0  0  0  0  0  0  0  0  0  0  0
    8.3472   -0.5534    0.0000 H   0  0  0  0  0  0  0  0  0  0  0  0
    4.8641    0.9754    0.0000 H   0  0  0  0  0  0  0  0  0  0  0  0
    4.8641    0.1457    0.0000 H   0  0  0  0  0  0  0  0  0  0  0  0
    9.2858   -0.0500    0.0000 H   0  0  0  0  0  0  0  0  0  0  0  0
    9.9761    0.3485    0.0000 H   0  0  0  0  0  0  0  0  0  0  0  0
   10.0011    2.0372    0.0000 H   0  0  0  0  0  0  0  0  0  0  0  0
    9.3109    1.6386    0.0000 H   0  0  0  0  0  0  0  0  0  0  0  0
    6.8792   -1.8138    0.0000 H   0  0  0  0  0  0  0  0  0  0  0  0
   10.7858    0.8160    0.0000 H   0  0  0  0  0  0  0  0  0  0  0  0
   11.4761    1.2145    0.0000 H   0  0  0  0  0  0  0  0  0  0  0  0
    3.7100   -2.4874    0.0000 H   0  0  0  0  0  0  0  0  0  0  0  0
    6.3786   -3.3545    0.0000 H   0  0  0  0  0  0  0  0  0  0  0  0
    4.7940   -3.6913    0.0000 H   0  0  0  0  0  0  0  0  0  0  0  0
   12.0826    0.7241    0.0000 H   0  0  0  0  0  0  0  0  0  0  0  0
   12.4807   -0.0571    0.0000 H   0  0  0  0  0  0  0  0  0  0  0  0
   13.2619    0.3409    0.0000 H   0  0  0  0  0  0  0  0  0  0  0  0
   14.0704   -0.0419    0.0000 H   0  0  0  0  0  0  0  0  0  0  0  0
   17.0303    1.2760    0.0000 H   0  0  0  0  0  0  0  0  0  0  0  0
   16.8610   -0.3352    0.0000 H   0  0  0  0  0  0  0  0  0  0  0  0
  1 24  1  0  0  0  0
  1 29  1  0  0  0  0
  2 28  1  0  0  0  0
  3 28  1  0  0  0  0
  4 28  1  0  0  0  0
  5 22  1  0  0  0  0
  5 28  1  0  0  0  0
  6 14  1  0  0  0  0
  6 18  1  0  0  0  0
  6 20  1  0  0  0  0
  7 15  1  0  0  0  0
  7 17  1  0  0  0  0
  7 19  1  0  0  0  0
  8 29  1  0  0  0  0
  8 30  1  0  0  0  0
  8 31  1  0  0  0  0
  9 10  1  0  0  0  0
  9 29  2  0  0  0  0
 10 30  2  0  0  0  0
 11 32  2  0  0  0  0
 11 34  1  0  0  0  0
 12 33  2  0  0  0  0
 12 35  1  0  0  0  0
 13 14  1  0  0  0  0
 13 15  1  0  0  0  0
 13 16  1  0  0  0  0
 13 36  1  0  0  0  0
 14 17  1  0  0  0  0
 14 37  1  0  0  0  0
 15 38  1  0  0  0  0
 15 39  1  0  0  0  0
 16 18  1  0  0  0  0
 16 40  1  0  0  0  0
 16 41  1  0  0  0  0
 17 42  1  0  0  0  0
 17 43  1  0  0  0  0
 18 44  1  0  0  0  0
 18 45  1  0  0  0  0
 19 21  1  0  0  0  0
 19 46  1  0  0  0  0
 19 47  1  0  0  0  0
 20 22  1  0  0  0  0
 20 23  2  0  0  0  0
 21 24  1  0  0  0  0
 21 48  1  0  0  0  0
 21 49  1  0  0  0  0
 22 25  2  0  0  0  0
 23 26  1  0  0  0  0
 23 50  1  0  0  0  0
 24 51  1  0  0  0  0
 24 52  1  0  0  0  0
 25 27  1  0  0  0  0
 25 53  1  0  0  0  0
 26 27  2  0  0  0  0
 26 54  1  0  0  0  0
 27 55  1  0  0  0  0
 30 32  1  0  0  0  0
 31 56  1  0  0  0  0
 31 57  1  0  0  0  0
 31 58  1  0  0  0  0
 32 33  1  0  0  0  0
 33 59  1  0  0  0  0
 34 35  2  0  0  0  0
 34 60  1  0  0  0  0
 35 61  1  0  0  0  0
M  END
> <PUBCHEM_COMPOUND_CID>
126533872

> <PUBCHEM_COMPOUND_CANONICALIZED>
1

> <PUBCHEM_CACTVS_COMPLEXITY>
692

> <PUBCHEM_CACTVS_HBOND_ACCEPTOR>
11

> <PUBCHEM_CACTVS_HBOND_DONOR>
0

> <PUBCHEM_CACTVS_ROTATABLE_BOND>
8

> <PUBCHEM_CACTVS_SUBSKEYS>
AAADceB7oYBAAAAAAAAAAAAAAAAAAWLFgAA8QAAAAAAWAAAB8AAAHwQIAAAADSzF1xS/1pcMFAiiATZnZACS2C9xMrAd2CA/fJiObuLk+ZuVMChkyBPY6AeQQAAKAAAAAAAAEAAAAAAAAAAgAAAAAAAAAA==

> <PUBCHEM_IUPAC_OPENEYE_NAME>
5-[3-[(4-methyl-5-pyrazin-2-yl-1,2,4-triazol-3-yl)sulfanyl]propyl]-1-[2-(trifluoromethoxy)phenyl]-2,3,3a,4,6,6a-hexahydropyrrolo[2,3-c]pyrrole

> <PUBCHEM_IUPAC_CAS_NAME>
5-[3-[[4-methyl-5-(2-pyrazinyl)-1,2,4-triazol-3-yl]thio]propyl]-1-[2-(trifluoromethoxy)phenyl]-2,3,3a,4,6,6a-hexahydropyrrolo[2,3-c]pyrrole

> <PUBCHEM_IUPAC_NAME_MARKUP>
5-[3-[(4-methyl-5-pyrazin-2-yl-1,2,4-triazol-3-yl)sulfanyl]propyl]-1-[2-(trifluoromethoxy)phenyl]-2,3,3<I>a</I>,4,6,6<I>a</I>-hexahydropyrrolo[2,3-c]pyrrole

> <PUBCHEM_IUPAC_NAME>
5-[3-[(4-methyl-5-pyrazin-2-yl-1,2,4-triazol-3-yl)sulfanyl]propyl]-1-[2-(trifluoromethoxy)phenyl]-2,3,3a,4,6,6a-hexahydropyrrolo[2,3-c]pyrrole

> <PUBCHEM_IUPAC_SYSTEMATIC_NAME>
5-[3-[(4-methyl-5-pyrazin-2-yl-1,2,4-triazol-3-yl)sulfanyl]propyl]-1-[2-(trifluoromethyloxy)phenyl]-2,3,3a,4,6,6a-hexahydropyrrolo[2,3-c]pyrrole

> <PUBCHEM_IUPAC_TRADITIONAL_NAME>
5-[3-[(4-methyl-5-pyrazin-2-yl-1,2,4-triazol-3-yl)thio]propyl]-1-[2-(trifluoromethoxy)phenyl]-2,3,3a,4,6,6a-hexahydropyrrolo[2,3-c]pyrrole

> <PUBCHEM_IUPAC_INCHI>
InChI=1S/C23H26F3N7OS/c1-31-21(17-13-27-8-9-28-17)29-30-22(31)35-12-4-10-32-14-16-7-11-33(19(16)15-32)18-5-2-3-6-20(18)34-23(24,25)26/h2-3,5-6,8-9,13,16,19H,4,7,10-12,14-15H2,1H3

> <PUBCHEM_IUPAC_INCHIKEY>
ZXYDGAXWWXINKE-UHFFFAOYSA-N

> <PUBCHEM_XLOGP3_AA>
3.5

> <PUBCHEM_EXACT_MASS>
505.18716414

> <PUBCHEM_MOLECULAR_FORMULA>
C23H26F3N7OS

> <PUBCHEM_MOLECULAR_WEIGHT>
505.6

> <PUBCHEM_OPENEYE_CAN_SMILES>
CN1C(=NN=C1SCCCN2CC3CCN(C3C2)C4=CC=CC=C4OC(F)(F)F)C5=NC=CN=C5

> <PUBCHEM_OPENEYE_ISO_SMILES>
CN1C(=NN=C1SCCCN2CC3CCN(C3C2)C4=CC=CC=C4OC(F)(F)F)C5=NC=CN=C5

> <PUBCHEM_CACTVS_TPSA>
97.5

> <PUBCHEM_MONOISOTOPIC_WEIGHT>
505.18716414

> <PUBCHEM_TOTAL_CHARGE>
0

> <PUBCHEM_HEAVY_ATOM_COUNT>
35

> <PUBCHEM_ATOM_DEF_STEREO_COUNT>
0

> <PUBCHEM_ATOM_UDEF_STEREO_COUNT>
2

> <PUBCHEM_BOND_DEF_STEREO_COUNT>
0

> <PUBCHEM_BOND_UDEF_STEREO_COUNT>
0

> <PUBCHEM_ISOTOPIC_ATOM_COUNT>
0

> <PUBCHEM_COMPONENT_COUNT>
1

> <PUBCHEM_CACTVS_TAUTO_COUNT>
-1

> <PUBCHEM_COORDINATE_TYPE>
1
5
255

> <PUBCHEM_BONDANNOTATIONS>
10  30  8
11  32  8
11  34  8
12  33  8
12  35  8
13  16  3
14  17  3
20  22  8
20  23  8
22  25  8
23  26  8
25  27  8
26  27  8
32  33  8
34  35  8
8  29  8
8  30  8
9  10  8
9  29  8

$$$$
