71450922
  -OEChem-09292322072D

 43 47  0     1  0  0  0  0  0999 V2000
    3.1847    1.2732    0.0000 O   0  0  0  0  0  0  0  0  0  0  0  0
    2.1882   -0.2042    0.0000 O   0  0  0  0  0  0  0  0  0  0  0  0
    4.5217   -4.0808    0.0000 O   0  0  0  0  0  0  0  0  0  0  0  0
    5.7979    3.0219    0.0000 N   0  0  0  0  0  0  0  0  0  0  0  0
    3.9692   -0.1420    0.0000 N   0  0  0  0  0  0  0  0  0  0  0  0
    4.1664    1.4640    0.0000 C   0  0  2  0  0  0  0  0  0  0  0  0
    5.5390    2.0560    0.0000 C   0  0  0  0  0  0  0  0  0  0  0  0
    3.8243    2.4037    0.0000 C   0  0  0  0  0  0  0  0  0  0  0  0
    4.5613    3.8706    0.0000 C   0  0  0  0  0  0  0  0  0  0  0  0
    6.9380    1.5472    0.0000 C   0  0  0  0  0  0  0  0  0  0  0  0
    5.4273    4.3706    0.0000 C   0  0  0  0  0  0  0  0  0  0  0  0
    7.1968    2.5131    0.0000 C   0  0  0  0  0  0  0  0  0  0  0  0
    4.6512    0.5894    0.0000 C   0  0  0  0  0  0  0  0  0  0  0  0
    3.0628    0.2806    0.0000 C   0  0  0  0  0  0  0  0  0  0  0  0
    4.1600   -1.1236    0.0000 C   0  0  0  0  0  0  0  0  0  0  0  0
    3.4053   -1.7797    0.0000 C   0  0  0  0  0  0  0  0  0  0  0  0
    5.1055   -1.4492    0.0000 C   0  0  0  0  0  0  0  0  0  0  0  0
    3.5961   -2.7613    0.0000 C   0  0  0  0  0  0  0  0  0  0  0  0
    5.2963   -2.4308    0.0000 C   0  0  0  0  0  0  0  0  0  0  0  0
    4.5416   -3.0869    0.0000 C   0  0  0  0  0  0  0  0  0  0  0  0
    2.9999   -3.5568    0.0000 C   0  0  0  0  0  0  0  0  0  0  0  0
    3.5708   -4.3706    0.0000 C   0  0  0  0  0  0  0  0  0  0  0  0
    2.0000   -3.5410    0.0000 C   0  0  0  0  0  0  0  0  0  0  0  0
    5.9444    2.5251    0.0000 H   0  0  0  0  0  0  0  0  0  0  0  0
    3.6300    2.9924    0.0000 H   0  0  0  0  0  0  0  0  0  0  0  0
    3.2386    2.2005    0.0000 H   0  0  0  0  0  0  0  0  0  0  0  0
    4.2565    4.4105    0.0000 H   0  0  0  0  0  0  0  0  0  0  0  0
    4.0184    3.5711    0.0000 H   0  0  0  0  0  0  0  0  0  0  0  0
    6.7431    0.9586    0.0000 H   0  0  0  0  0  0  0  0  0  0  0  0
    7.5320    1.3694    0.0000 H   0  0  0  0  0  0  0  0  0  0  0  0
    6.0090    4.5851    0.0000 H   0  0  0  0  0  0  0  0  0  0  0  0
    5.1641    4.9319    0.0000 H   0  0  0  0  0  0  0  0  0  0  0  0
    7.7908    2.3353    0.0000 H   0  0  0  0  0  0  0  0  0  0  0  0
    7.3917    3.1017    0.0000 H   0  0  0  0  0  0  0  0  0  0  0  0
    5.0579    0.1214    0.0000 H   0  0  0  0  0  0  0  0  0  0  0  0
    5.1590    0.9450    0.0000 H   0  0  0  0  0  0  0  0  0  0  0  0
    2.8190   -1.5778    0.0000 H   0  0  0  0  0  0  0  0  0  0  0  0
    5.5734   -1.0424    0.0000 H   0  0  0  0  0  0  0  0  0  0  0  0
    5.8825   -2.6327    0.0000 H   0  0  0  0  0  0  0  0  0  0  0  0
    3.3689   -4.9568    0.0000 H   0  0  0  0  0  0  0  0  0  0  0  0
    2.0098   -2.9211    0.0000 H   0  0  0  0  0  0  0  0  0  0  0  0
    1.3801   -3.5313    0.0000 H   0  0  0  0  0  0  0  0  0  0  0  0
    1.9902   -4.1610    0.0000 H   0  0  0  0  0  0  0  0  0  0  0  0
  6  1  1  1  0  0  0
  1 14  1  0  0  0  0
  2 14  2  0  0  0  0
  3 20  1  0  0  0  0
  3 22  1  0  0  0  0
  4  8  1  0  0  0  0
  4 11  1  0  0  0  0
  4 12  1  0  0  0  0
  5 13  1  0  0  0  0
  5 14  1  0  0  0  0
  5 15  1  0  0  0  0
  6  7  1  0  0  0  0
  6  8  1  0  0  0  0
  6 13  1  0  0  0  0
  7  9  1  0  0  0  0
  7 10  1  0  0  0  0
  7 24  1  0  0  0  0
  8 25  1  0  0  0  0
  8 26  1  0  0  0  0
  9 11  1  0  0  0  0
  9 27  1  0  0  0  0
  9 28  1  0  0  0  0
 10 12  1  0  0  0  0
 10 29  1  0  0  0  0
 10 30  1  0  0  0  0
 11 31  1  0  0  0  0
 11 32  1  0  0  0  0
 12 33  1  0  0  0  0
 12 34  1  0  0  0  0
 13 35  1  0  0  0  0
 13 36  1  0  0  0  0
 15 16  2  0  0  0  0
 15 17  1  0  0  0  0
 16 18  1  0  0  0  0
 16 37  1  0  0  0  0
 17 19  2  0  0  0  0
 17 38  1  0  0  0  0
 18 20  2  0  0  0  0
 18 21  1  0  0  0  0
 19 20  1  0  0  0  0
 19 39  1  0  0  0  0
 21 22  2  0  0  0  0
 21 23  1  0  0  0  0
 22 40  1  0  0  0  0
 23 41  1  0  0  0  0
 23 42  1  0  0  0  0
 23 43  1  0  0  0  0
M  END
> <PUBCHEM_COMPOUND_CID>
71450922

> <PUBCHEM_COMPOUND_CANONICALIZED>
1

> <PUBCHEM_CACTVS_COMPLEXITY>
505

> <PUBCHEM_CACTVS_HBOND_ACCEPTOR>
4

> <PUBCHEM_CACTVS_HBOND_DONOR>
0

> <PUBCHEM_CACTVS_ROTATABLE_BOND>
1

> <PUBCHEM_CACTVS_SUBSKEYS>
AAADceB7MAAAAAAAAAAAAAAAAAAAAWJAAAA8WLEAAAAAAEgB8AAAHgAAAAAADUzhmAYyzsMABECIAqxS2ACCCAAlIgAIiAEObMgOJjLE9ZuPOSjkxhHY6Ye82eOegEAAQAAIAAAAgACAABAAAAAAAAAAAA==

> <PUBCHEM_IUPAC_OPENEYE_NAME>
(5R)-3-(3-methylbenzofuran-5-yl)spiro[oxazolidine-5,3'-quinuclidine]-2-one

> <PUBCHEM_IUPAC_CAS_NAME>
(3R)-3'-(3-methyl-5-benzofuranyl)-2'-spiro[1-azabicyclo[2.2.2]octane-3,5'-oxazolidine]one

> <PUBCHEM_IUPAC_NAME_MARKUP>
(5<I>R</I>)-3-(3-methyl-1-benzofuran-5-yl)spiro[1,3-oxazolidine-5,3&apos;-1-azabicyclo[2.2.2]octane]-2-one

> <PUBCHEM_IUPAC_NAME>
(5R)-3-(3-methyl-1-benzofuran-5-yl)spiro[1,3-oxazolidine-5,3'-1-azabicyclo[2.2.2]octane]-2-one

> <PUBCHEM_IUPAC_SYSTEMATIC_NAME>
(5R)-3-(3-methyl-1-benzofuran-5-yl)spiro[1,3-oxazolidine-5,3'-1-azabicyclo[2.2.2]octane]-2-one

> <PUBCHEM_IUPAC_TRADITIONAL_NAME>
(5R)-3-(3-methylbenzofuran-5-yl)spiro[oxazolidine-5,3'-quinuclidine]-2-one

> <PUBCHEM_IUPAC_INCHI>
InChI=1S/C18H20N2O3/c1-12-9-22-16-3-2-14(8-15(12)16)20-11-18(23-17(20)21)10-19-6-4-13(18)5-7-19/h2-3,8-9,13H,4-7,10-11H2,1H3/t18-/m1/s1

> <PUBCHEM_IUPAC_INCHIKEY>
QENBLMVKRYFDIR-GOSISDBHSA-N

> <PUBCHEM_XLOGP3_AA>
2.7

> <PUBCHEM_EXACT_MASS>
312.14739250

> <PUBCHEM_MOLECULAR_FORMULA>
C18H20N2O3

> <PUBCHEM_MOLECULAR_WEIGHT>
312.4

> <PUBCHEM_OPENEYE_CAN_SMILES>
CC1=COC2=C1C=C(C=C2)N3CC4(CN5CCC4CC5)OC3=O

> <PUBCHEM_OPENEYE_ISO_SMILES>
CC1=COC2=C1C=C(C=C2)N3C[C@@]4(CN5CCC4CC5)OC3=O

> <PUBCHEM_CACTVS_TPSA>
45.9

> <PUBCHEM_MONOISOTOPIC_WEIGHT>
312.14739250

> <PUBCHEM_TOTAL_CHARGE>
0

> <PUBCHEM_HEAVY_ATOM_COUNT>
23

> <PUBCHEM_ATOM_DEF_STEREO_COUNT>
1

> <PUBCHEM_ATOM_UDEF_STEREO_COUNT>
0

> <PUBCHEM_BOND_DEF_STEREO_COUNT>
0

> <PUBCHEM_BOND_UDEF_STEREO_COUNT>
0

> <PUBCHEM_ISOTOPIC_ATOM_COUNT>
0

> <PUBCHEM_COMPONENT_COUNT>
1

> <PUBCHEM_CACTVS_TAUTO_COUNT>
-1

> <PUBCHEM_COORDINATE_TYPE>
1
5
255

> <PUBCHEM_BONDANNOTATIONS>
6  1  5
15  16  8
15  17  8
16  18  8
17  19  8
18  20  8
18  21  8
19  20  8
21  22  8
3  20  8
3  22  8

$$$$
