17866237
  -OEChem-09292322222D

 62 64  0     1  0  0  0  0  0999 V2000
    3.7320    1.0114    0.0000 S   0  0  0  0  0  0  0  0  0  0  0  0
    2.0000    2.0114    0.0000 F   0  0  0  0  0  0  0  0  0  0  0  0
    2.3660    0.6454    0.0000 F   0  0  0  0  0  0  0  0  0  0  0  0
    3.3660    2.3774    0.0000 F   0  0  0  0  0  0  0  0  0  0  0  0
    4.5981    0.5114    0.0000 O   0  0  0  0  0  0  0  0  0  0  0  0
    3.2320    0.1454    0.0000 O   0  0  0  0  0  0  0  0  0  0  0  0
    4.2320    1.8774    0.0000 O   0  0  0  0  0  0  0  0  0  0  0  0
   14.1961    1.9706    0.0000 O   0  0  0  0  0  0  0  0  0  0  0  0
   17.6448   -2.0428    0.0000 O   0  0  0  0  0  0  0  0  0  0  0  0
    8.9962    0.9906    0.0000 N   0  0  3  0  0  0  0  0  0  0  0  0
   13.3243    0.4739    0.0000 N   0  0  0  0  0  0  0  0  0  0  0  0
    8.9962    2.0322    0.0000 C   0  0  0  0  0  0  0  0  0  0  0  0
    8.0901    0.4768    0.0000 C   0  0  0  0  0  0  0  0  0  0  0  0
    8.0901    2.5461    0.0000 C   0  0  0  0  0  0  0  0  0  0  0  0
    9.8602    0.4873    0.0000 C   0  0  0  0  0  0  0  0  0  0  0  0
    7.1962    1.0114    0.0000 C   0  0  0  0  0  0  0  0  0  0  0  0
    7.1962    2.0114    0.0000 C   0  0  0  0  0  0  0  0  0  0  0  0
   10.7282    0.9839    0.0000 C   0  0  0  0  0  0  0  0  0  0  0  0
   11.5923    0.4806    0.0000 C   0  0  0  0  0  0  0  0  0  0  0  0
    6.3301    0.5114    0.0000 C   0  0  0  0  0  0  0  0  0  0  0  0
    6.3301    2.5114    0.0000 C   0  0  0  0  0  0  0  0  0  0  0  0
    5.4641    1.0114    0.0000 C   0  0  0  0  0  0  0  0  0  0  0  0
   12.4602    0.9773    0.0000 C   0  0  0  0  0  0  0  0  0  0  0  0
    5.4641    2.0114    0.0000 C   0  0  0  0  0  0  0  0  0  0  0  0
   14.1923    0.9706    0.0000 C   0  0  0  0  0  0  0  0  0  0  0  0
    2.8660    1.5114    0.0000 C   0  0  0  0  0  0  0  0  0  0  0  0
   15.0564    0.4672    0.0000 C   0  0  0  0  0  0  0  0  0  0  0  0
   15.9243    0.9639    0.0000 C   0  0  0  0  0  0  0  0  0  0  0  0
   16.7884    0.4606    0.0000 C   0  0  0  0  0  0  0  0  0  0  0  0
   16.7845   -0.5394    0.0000 C   0  0  0  0  0  0  0  0  0  0  0  0
   17.6564    0.9572    0.0000 C   0  0  0  0  0  0  0  0  0  0  0  0
   17.6486   -1.0428    0.0000 C   0  0  0  0  0  0  0  0  0  0  0  0
   18.5204    0.4539    0.0000 C   0  0  0  0  0  0  0  0  0  0  0  0
   18.5166   -0.5461    0.0000 C   0  0  0  0  0  0  0  0  0  0  0  0
   18.5089   -2.5461    0.0000 C   0  0  0  0  0  0  0  0  0  0  0  0
    9.6070    1.9262    0.0000 H   0  0  0  0  0  0  0  0  0  0  0  0
    9.2052    2.6159    0.0000 H   0  0  0  0  0  0  0  0  0  0  0  0
    7.6855    0.0070    0.0000 H   0  0  0  0  0  0  0  0  0  0  0  0
    8.4837   -0.0023    0.0000 H   0  0  0  0  0  0  0  0  0  0  0  0
    8.4837    3.0251    0.0000 H   0  0  0  0  0  0  0  0  0  0  0  0
    7.6855    3.0159    0.0000 H   0  0  0  0  0  0  0  0  0  0  0  0
    9.4599    0.0139    0.0000 H   0  0  0  0  0  0  0  0  0  0  0  0
   10.2569    0.0108    0.0000 H   0  0  0  0  0  0  0  0  0  0  0  0
   11.1286    1.4573    0.0000 H   0  0  0  0  0  0  0  0  0  0  0  0
   10.3315    1.4604    0.0000 H   0  0  0  0  0  0  0  0  0  0  0  0
   11.1919    0.0072    0.0000 H   0  0  0  0  0  0  0  0  0  0  0  0
   11.9890    0.0041    0.0000 H   0  0  0  0  0  0  0  0  0  0  0  0
    6.3301   -0.1086    0.0000 H   0  0  0  0  0  0  0  0  0  0  0  0
    6.3301    3.1314    0.0000 H   0  0  0  0  0  0  0  0  0  0  0  0
   12.8606    1.4507    0.0000 H   0  0  0  0  0  0  0  0  0  0  0  0
   12.0635    1.4537    0.0000 H   0  0  0  0  0  0  0  0  0  0  0  0
    4.9272    2.3214    0.0000 H   0  0  0  0  0  0  0  0  0  0  0  0
   13.3219   -0.1461    0.0000 H   0  0  0  0  0  0  0  0  0  0  0  0
   15.0540   -0.1528    0.0000 H   0  0  0  0  0  0  0  0  0  0  0  0
   15.9267    1.5839    0.0000 H   0  0  0  0  0  0  0  0  0  0  0  0
   16.2464   -0.8474    0.0000 H   0  0  0  0  0  0  0  0  0  0  0  0
   17.6587    1.5772    0.0000 H   0  0  0  0  0  0  0  0  0  0  0  0
   19.0586    0.7618    0.0000 H   0  0  0  0  0  0  0  0  0  0  0  0
   19.0523   -0.8582    0.0000 H   0  0  0  0  0  0  0  0  0  0  0  0
   18.1968   -3.0818    0.0000 H   0  0  0  0  0  0  0  0  0  0  0  0
   19.0446   -2.8582    0.0000 H   0  0  0  0  0  0  0  0  0  0  0  0
   18.8209   -2.0104    0.0000 H   0  0  0  0  0  0  0  0  0  0  0  0
  1  5  1  0  0  0  0
  1  6  2  0  0  0  0
  1  7  2  0  0  0  0
  1 26  1  0  0  0  0
  2 26  1  0  0  0  0
  3 26  1  0  0  0  0
  4 26  1  0  0  0  0
  5 22  1  0  0  0  0
  8 25  2  0  0  0  0
  9 32  1  0  0  0  0
  9 35  1  0  0  0  0
 10 12  1  0  0  0  0
 10 13  1  0  0  0  0
 10 15  1  0  0  0  0
 11 23  1  0  0  0  0
 11 25  1  0  0  0  0
 11 53  1  0  0  0  0
 12 14  1  0  0  0  0
 12 36  1  0  0  0  0
 12 37  1  0  0  0  0
 13 16  1  0  0  0  0
 13 38  1  0  0  0  0
 13 39  1  0  0  0  0
 14 17  1  0  0  0  0
 14 40  1  0  0  0  0
 14 41  1  0  0  0  0
 15 18  1  0  0  0  0
 15 42  1  0  0  0  0
 15 43  1  0  0  0  0
 16 17  2  0  0  0  0
 16 20  1  0  0  0  0
 17 21  1  0  0  0  0
 18 19  1  0  0  0  0
 18 44  1  0  0  0  0
 18 45  1  0  0  0  0
 19 23  1  0  0  0  0
 19 46  1  0  0  0  0
 19 47  1  0  0  0  0
 20 22  2  0  0  0  0
 20 48  1  0  0  0  0
 21 24  2  0  0  0  0
 21 49  1  0  0  0  0
 22 24  1  0  0  0  0
 23 50  1  0  0  0  0
 23 51  1  0  0  0  0
 24 52  1  0  0  0  0
 25 27  1  0  0  0  0
 27 28  2  0  0  0  0
 27 54  1  0  0  0  0
 28 29  1  0  0  0  0
 28 55  1  0  0  0  0
 29 30  2  0  0  0  0
 29 31  1  0  0  0  0
 30 32  1  0  0  0  0
 30 56  1  0  0  0  0
 31 33  2  0  0  0  0
 31 57  1  0  0  0  0
 32 34  2  0  0  0  0
 33 34  1  0  0  0  0
 33 58  1  0  0  0  0
 34 59  1  0  0  0  0
 35 60  1  0  0  0  0
 35 61  1  0  0  0  0
 35 62  1  0  0  0  0
M  END
> <PUBCHEM_COMPOUND_CID>
17866237

> <PUBCHEM_COMPOUND_CANONICALIZED>
1

> <PUBCHEM_CACTVS_COMPLEXITY>
815

> <PUBCHEM_CACTVS_HBOND_ACCEPTOR>
9

> <PUBCHEM_CACTVS_HBOND_DONOR>
1

> <PUBCHEM_CACTVS_ROTATABLE_BOND>
10

> <PUBCHEM_CACTVS_SUBSKEYS>
AAADceB7OYBAAAAAAAAAAAAAAAAAAAAAAAA8YIAAAAAAAACxQAAAHwQQAAAADATBmBYyBoPABAKIAiFSEHCCCAAgIAAIiIAODMgMJiKEsRuEMChk1hGIqYewwJAOoAABAAAQAABAAAIAACAAAAAAAAAAAA==

> <PUBCHEM_IUPAC_OPENEYE_NAME>
[2-[4-[[(E)-3-(3-methoxyphenyl)prop-2-enoyl]amino]butyl]-3,4-dihydro-1H-isoquinolin-7-yl] trifluoromethanesulfonate

> <PUBCHEM_IUPAC_CAS_NAME>
trifluoromethanesulfonic acid [2-[4-[[(E)-3-(3-methoxyphenyl)-1-oxoprop-2-enyl]amino]butyl]-3,4-dihydro-1H-isoquinolin-7-yl] ester

> <PUBCHEM_IUPAC_NAME_MARKUP>
[2-[4-[[(<I>E</I>)-3-(3-methoxyphenyl)prop-2-enoyl]amino]butyl]-3,4-dihydro-1<I>H</I>-isoquinolin-7-yl] trifluoromethanesulfonate

> <PUBCHEM_IUPAC_NAME>
[2-[4-[[(E)-3-(3-methoxyphenyl)prop-2-enoyl]amino]butyl]-3,4-dihydro-1H-isoquinolin-7-yl] trifluoromethanesulfonate

> <PUBCHEM_IUPAC_SYSTEMATIC_NAME>
[2-[4-[[(E)-3-(3-methoxyphenyl)prop-2-enoyl]amino]butyl]-3,4-dihydro-1H-isoquinolin-7-yl] tris(fluoranyl)methanesulfonate

> <PUBCHEM_IUPAC_TRADITIONAL_NAME>
trifluoromethanesulfonic acid [2-[4-[[(E)-3-(3-methoxyphenyl)acryloyl]amino]butyl]-3,4-dihydro-1H-isoquinolin-7-yl] ester

> <PUBCHEM_IUPAC_INCHI>
InChI=1S/C24H27F3N2O5S/c1-33-21-6-4-5-18(15-21)7-10-23(30)28-12-2-3-13-29-14-11-19-8-9-22(16-20(19)17-29)34-35(31,32)24(25,26)27/h4-10,15-16H,2-3,11-14,17H2,1H3,(H,28,30)/b10-7+

> <PUBCHEM_IUPAC_INCHIKEY>
IAMMMQJIUFFPMO-JXMROGBWSA-N

> <PUBCHEM_XLOGP3_AA>
4.6

> <PUBCHEM_EXACT_MASS>
512.15927763

> <PUBCHEM_MOLECULAR_FORMULA>
C24H27F3N2O5S

> <PUBCHEM_MOLECULAR_WEIGHT>
512.5

> <PUBCHEM_OPENEYE_CAN_SMILES>
COC1=CC=CC(=C1)C=CC(=O)NCCCCN2CCC3=C(C2)C=C(C=C3)OS(=O)(=O)C(F)(F)F

> <PUBCHEM_OPENEYE_ISO_SMILES>
COC1=CC=CC(=C1)/C=C/C(=O)NCCCCN2CCC3=C(C2)C=C(C=C3)OS(=O)(=O)C(F)(F)F

> <PUBCHEM_CACTVS_TPSA>
93.3

> <PUBCHEM_MONOISOTOPIC_WEIGHT>
512.15927763

> <PUBCHEM_TOTAL_CHARGE>
0

> <PUBCHEM_HEAVY_ATOM_COUNT>
35

> <PUBCHEM_ATOM_DEF_STEREO_COUNT>
0

> <PUBCHEM_ATOM_UDEF_STEREO_COUNT>
0

> <PUBCHEM_BOND_DEF_STEREO_COUNT>
1

> <PUBCHEM_BOND_UDEF_STEREO_COUNT>
0

> <PUBCHEM_ISOTOPIC_ATOM_COUNT>
0

> <PUBCHEM_COMPONENT_COUNT>
1

> <PUBCHEM_CACTVS_TAUTO_COUNT>
-1

> <PUBCHEM_COORDINATE_TYPE>
1
5
255

> <PUBCHEM_BONDANNOTATIONS>
16  17  8
16  20  8
17  21  8
20  22  8
21  24  8
22  24  8
29  30  8
29  31  8
30  32  8
31  33  8
32  34  8
33  34  8

$$$$
