44452007
  -OEChem-09292322032D

 78 82  0     0  0  0  0  0  0999 V2000
    2.0000   -1.4759    0.0000 F   0  0  0  0  0  0  0  0  0  0  0  0
   13.3244    3.0000    0.0000 O   0  0  0  0  0  0  0  0  0  0  0  0
    8.9942   -0.5000    0.0000 O   0  0  0  0  0  0  0  0  0  0  0  0
    5.5301   -4.5000    0.0000 O   0  0  0  0  0  0  0  0  0  0  0  0
    9.8602   -5.0000    0.0000 O   0  0  0  0  0  0  0  0  0  0  0  0
    9.8602    3.0000    0.0000 N   0  0  0  0  0  0  0  0  0  0  0  0
   11.5923    4.0000    0.0000 N   0  0  0  0  0  0  0  0  0  0  0  0
    7.2622   -0.5000    0.0000 N   0  0  0  0  0  0  0  0  0  0  0  0
    6.3961   -3.0000    0.0000 N   0  0  0  0  0  0  0  0  0  0  0  0
    5.5301   -1.5000    0.0000 N   0  0  0  0  0  0  0  0  0  0  0  0
   10.7263    2.5000    0.0000 C   0  0  0  0  0  0  0  0  0  0  0  0
    9.8602    4.0000    0.0000 C   0  0  0  0  0  0  0  0  0  0  0  0
   11.5923    3.0000    0.0000 C   0  0  0  0  0  0  0  0  0  0  0  0
   10.7263    4.5000    0.0000 C   0  0  0  0  0  0  0  0  0  0  0  0
    8.9942    2.5000    0.0000 C   0  0  0  0  0  0  0  0  0  0  0  0
    8.9942    1.5000    0.0000 C   0  0  0  0  0  0  0  0  0  0  0  0
   12.4583    4.5000    0.0000 C   0  0  0  0  0  0  0  0  0  0  0  0
    8.1282    1.0000    0.0000 C   0  0  0  0  0  0  0  0  0  0  0  0
   13.3244    4.0000    0.0000 C   0  0  0  0  0  0  0  0  0  0  0  0
   12.4583    5.5000    0.0000 C   0  0  0  0  0  0  0  0  0  0  0  0
    8.1282   -0.0000    0.0000 C   0  0  0  0  0  0  0  0  0  0  0  0
   14.1904    4.5000    0.0000 C   0  0  0  0  0  0  0  0  0  0  0  0
   13.3244    6.0000    0.0000 C   0  0  0  0  0  0  0  0  0  0  0  0
   14.1904    5.5000    0.0000 C   0  0  0  0  0  0  0  0  0  0  0  0
    7.2622   -1.5000    0.0000 C   0  0  0  0  0  0  0  0  0  0  0  0
    6.3961   -2.0000    0.0000 C   0  0  0  0  0  0  0  0  0  0  0  0
   14.1904    2.5000    0.0000 C   0  0  0  0  0  0  0  0  0  0  0  0
    5.5301   -3.5000    0.0000 C   0  0  0  0  0  0  0  0  0  0  0  0
    4.6641   -3.0000    0.0000 C   0  0  0  0  0  0  0  0  0  0  0  0
    7.2622   -3.5000    0.0000 C   0  0  0  0  0  0  0  0  0  0  0  0
    4.6641   -2.0000    0.0000 C   0  0  0  0  0  0  0  0  0  0  0  0
   14.1904    1.5000    0.0000 C   0  0  0  0  0  0  0  0  0  0  0  0
    3.7702   -3.5347    0.0000 C   0  0  0  0  0  0  0  0  0  0  0  0
    3.7702   -1.4653    0.0000 C   0  0  0  0  0  0  0  0  0  0  0  0
    7.2622   -4.5000    0.0000 C   0  0  0  0  0  0  0  0  0  0  0  0
    8.1282   -3.0000    0.0000 C   0  0  0  0  0  0  0  0  0  0  0  0
    2.8641   -3.0208    0.0000 C   0  0  0  0  0  0  0  0  0  0  0  0
    2.8641   -1.9792    0.0000 C   0  0  0  0  0  0  0  0  0  0  0  0
    8.1282   -5.0000    0.0000 C   0  0  0  0  0  0  0  0  0  0  0  0
    8.9942   -3.5000    0.0000 C   0  0  0  0  0  0  0  0  0  0  0  0
    8.9942   -4.5000    0.0000 C   0  0  0  0  0  0  0  0  0  0  0  0
    9.8602   -6.0000    0.0000 C   0  0  0  0  0  0  0  0  0  0  0  0
   10.3278    2.0250    0.0000 H   0  0  0  0  0  0  0  0  0  0  0  0
   11.1248    2.0250    0.0000 H   0  0  0  0  0  0  0  0  0  0  0  0
    9.6482    4.5826    0.0000 H   0  0  0  0  0  0  0  0  0  0  0  0
    9.2497    3.8923    0.0000 H   0  0  0  0  0  0  0  0  0  0  0  0
   11.8044    2.4174    0.0000 H   0  0  0  0  0  0  0  0  0  0  0  0
   12.2029    3.1077    0.0000 H   0  0  0  0  0  0  0  0  0  0  0  0
   11.1248    4.9750    0.0000 H   0  0  0  0  0  0  0  0  0  0  0  0
   10.3278    4.9750    0.0000 H   0  0  0  0  0  0  0  0  0  0  0  0
    8.7822    3.0826    0.0000 H   0  0  0  0  0  0  0  0  0  0  0  0
    8.3836    2.3923    0.0000 H   0  0  0  0  0  0  0  0  0  0  0  0
    9.2063    0.9174    0.0000 H   0  0  0  0  0  0  0  0  0  0  0  0
    9.6048    1.6077    0.0000 H   0  0  0  0  0  0  0  0  0  0  0  0
    7.9162    1.5826    0.0000 H   0  0  0  0  0  0  0  0  0  0  0  0
    7.5176    0.8923    0.0000 H   0  0  0  0  0  0  0  0  0  0  0  0
   11.9214    5.8100    0.0000 H   0  0  0  0  0  0  0  0  0  0  0  0
   14.7273    4.1900    0.0000 H   0  0  0  0  0  0  0  0  0  0  0  0
   13.3244    6.6200    0.0000 H   0  0  0  0  0  0  0  0  0  0  0  0
   14.7273    5.8100    0.0000 H   0  0  0  0  0  0  0  0  0  0  0  0
    6.7252   -0.1900    0.0000 H   0  0  0  0  0  0  0  0  0  0  0  0
    7.4742   -2.0826    0.0000 H   0  0  0  0  0  0  0  0  0  0  0  0
    7.8728   -1.3923    0.0000 H   0  0  0  0  0  0  0  0  0  0  0  0
   14.8010    2.3923    0.0000 H   0  0  0  0  0  0  0  0  0  0  0  0
   14.4024    3.0826    0.0000 H   0  0  0  0  0  0  0  0  0  0  0  0
   13.5704    1.5000    0.0000 H   0  0  0  0  0  0  0  0  0  0  0  0
   14.1904    0.8800    0.0000 H   0  0  0  0  0  0  0  0  0  0  0  0
   14.8104    1.5000    0.0000 H   0  0  0  0  0  0  0  0  0  0  0  0
    3.7773   -4.1546    0.0000 H   0  0  0  0  0  0  0  0  0  0  0  0
    3.7773   -0.8454    0.0000 H   0  0  0  0  0  0  0  0  0  0  0  0
    6.7252   -4.8100    0.0000 H   0  0  0  0  0  0  0  0  0  0  0  0
    8.1282   -2.3800    0.0000 H   0  0  0  0  0  0  0  0  0  0  0  0
    2.3284   -3.3329    0.0000 H   0  0  0  0  0  0  0  0  0  0  0  0
    8.1282   -5.6200    0.0000 H   0  0  0  0  0  0  0  0  0  0  0  0
    9.5312   -3.1900    0.0000 H   0  0  0  0  0  0  0  0  0  0  0  0
    9.2402   -6.0000    0.0000 H   0  0  0  0  0  0  0  0  0  0  0  0
    9.8602   -6.6200    0.0000 H   0  0  0  0  0  0  0  0  0  0  0  0
   10.4803   -6.0000    0.0000 H   0  0  0  0  0  0  0  0  0  0  0  0
  1 38  1  0  0  0  0
  2 19  1  0  0  0  0
  2 27  1  0  0  0  0
  3 21  2  0  0  0  0
  4 28  2  0  0  0  0
  5 41  1  0  0  0  0
  5 42  1  0  0  0  0
  6 11  1  0  0  0  0
  6 12  1  0  0  0  0
  6 15  1  0  0  0  0
  7 13  1  0  0  0  0
  7 14  1  0  0  0  0
  7 17  1  0  0  0  0
  8 21  1  0  0  0  0
  8 25  1  0  0  0  0
  8 61  1  0  0  0  0
  9 26  1  0  0  0  0
  9 28  1  0  0  0  0
  9 30  1  0  0  0  0
 10 26  2  0  0  0  0
 10 31  1  0  0  0  0
 11 13  1  0  0  0  0
 11 43  1  0  0  0  0
 11 44  1  0  0  0  0
 12 14  1  0  0  0  0
 12 45  1  0  0  0  0
 12 46  1  0  0  0  0
 13 47  1  0  0  0  0
 13 48  1  0  0  0  0
 14 49  1  0  0  0  0
 14 50  1  0  0  0  0
 15 16  1  0  0  0  0
 15 51  1  0  0  0  0
 15 52  1  0  0  0  0
 16 18  1  0  0  0  0
 16 53  1  0  0  0  0
 16 54  1  0  0  0  0
 17 19  1  0  0  0  0
 17 20  2  0  0  0  0
 18 21  1  0  0  0  0
 18 55  1  0  0  0  0
 18 56  1  0  0  0  0
 19 22  2  0  0  0  0
 20 23  1  0  0  0  0
 20 57  1  0  0  0  0
 22 24  1  0  0  0  0
 22 58  1  0  0  0  0
 23 24  2  0  0  0  0
 23 59  1  0  0  0  0
 24 60  1  0  0  0  0
 25 26  1  0  0  0  0
 25 62  1  0  0  0  0
 25 63  1  0  0  0  0
 27 32  1  0  0  0  0
 27 64  1  0  0  0  0
 27 65  1  0  0  0  0
 28 29  1  0  0  0  0
 29 31  2  0  0  0  0
 29 33  1  0  0  0  0
 30 35  2  0  0  0  0
 30 36  1  0  0  0  0
 31 34  1  0  0  0  0
 32 66  1  0  0  0  0
 32 67  1  0  0  0  0
 32 68  1  0  0  0  0
 33 37  2  0  0  0  0
 33 69  1  0  0  0  0
 34 38  2  0  0  0  0
 34 70  1  0  0  0  0
 35 39  1  0  0  0  0
 35 71  1  0  0  0  0
 36 40  2  0  0  0  0
 36 72  1  0  0  0  0
 37 38  1  0  0  0  0
 37 73  1  0  0  0  0
 39 41  2  0  0  0  0
 39 74  1  0  0  0  0
 40 41  1  0  0  0  0
 40 75  1  0  0  0  0
 42 76  1  0  0  0  0
 42 77  1  0  0  0  0
 42 78  1  0  0  0  0
M  END
> <PUBCHEM_COMPOUND_CID>
44452007

> <PUBCHEM_COMPOUND_CANONICALIZED>
1

> <PUBCHEM_CACTVS_COMPLEXITY>
921

> <PUBCHEM_CACTVS_HBOND_ACCEPTOR>
8

> <PUBCHEM_CACTVS_HBOND_DONOR>
1

> <PUBCHEM_CACTVS_ROTATABLE_BOND>
11

> <PUBCHEM_CACTVS_SUBSKEYS>
AAADcfB/uQAAAAAAAAAAAAAAAAAAAAAAAAA8YMECAAAAAACBUAAAHwAQAAAADAzhmA4zxoPABACoAidydACCCAElIgAJiIEfbMgOZjrE/ZuXOajk1hHY6ce8yACOAEAAAAACEAAAgAAAAAQgAAAAAAAAAA==

> <PUBCHEM_IUPAC_OPENEYE_NAME>
4-[4-(2-ethoxyphenyl)piperazin-1-yl]-N-[[7-fluoro-3-(4-methoxyphenyl)-4-oxo-quinazolin-2-yl]methyl]butanamide

> <PUBCHEM_IUPAC_CAS_NAME>
4-[4-(2-ethoxyphenyl)-1-piperazinyl]-N-[[7-fluoro-3-(4-methoxyphenyl)-4-oxo-2-quinazolinyl]methyl]butanamide

> <PUBCHEM_IUPAC_NAME_MARKUP>
4-[4-(2-ethoxyphenyl)piperazin-1-yl]-<I>N</I>-[[7-fluoro-3-(4-methoxyphenyl)-4-oxoquinazolin-2-yl]methyl]butanamide

> <PUBCHEM_IUPAC_NAME>
4-[4-(2-ethoxyphenyl)piperazin-1-yl]-N-[[7-fluoro-3-(4-methoxyphenyl)-4-oxoquinazolin-2-yl]methyl]butanamide

> <PUBCHEM_IUPAC_SYSTEMATIC_NAME>
4-[4-(2-ethoxyphenyl)piperazin-1-yl]-N-[[7-fluoranyl-3-(4-methoxyphenyl)-4-oxidanylidene-quinazolin-2-yl]methyl]butanamide

> <PUBCHEM_IUPAC_TRADITIONAL_NAME>
N-[[7-fluoro-4-keto-3-(4-methoxyphenyl)quinazolin-2-yl]methyl]-4-(4-o-phenetylpiperazino)butyramide

> <PUBCHEM_IUPAC_INCHI>
InChI=1S/C32H36FN5O4/c1-3-42-29-8-5-4-7-28(29)37-19-17-36(18-20-37)16-6-9-31(39)34-22-30-35-27-21-23(33)10-15-26(27)32(40)38(30)24-11-13-25(41-2)14-12-24/h4-5,7-8,10-15,21H,3,6,9,16-20,22H2,1-2H3,(H,34,39)

> <PUBCHEM_IUPAC_INCHIKEY>
OBUBLVFQIMPZAM-UHFFFAOYSA-N

> <PUBCHEM_XLOGP3_AA>
4.1

> <PUBCHEM_EXACT_MASS>
573.27513281

> <PUBCHEM_MOLECULAR_FORMULA>
C32H36FN5O4

> <PUBCHEM_MOLECULAR_WEIGHT>
573.7

> <PUBCHEM_OPENEYE_CAN_SMILES>
CCOC1=CC=CC=C1N2CCN(CC2)CCCC(=O)NCC3=NC4=C(C=CC(=C4)F)C(=O)N3C5=CC=C(C=C5)OC

> <PUBCHEM_OPENEYE_ISO_SMILES>
CCOC1=CC=CC=C1N2CCN(CC2)CCCC(=O)NCC3=NC4=C(C=CC(=C4)F)C(=O)N3C5=CC=C(C=C5)OC

> <PUBCHEM_CACTVS_TPSA>
86.7

> <PUBCHEM_MONOISOTOPIC_WEIGHT>
573.27513281

> <PUBCHEM_TOTAL_CHARGE>
0

> <PUBCHEM_HEAVY_ATOM_COUNT>
42

> <PUBCHEM_ATOM_DEF_STEREO_COUNT>
0

> <PUBCHEM_ATOM_UDEF_STEREO_COUNT>
0

> <PUBCHEM_BOND_DEF_STEREO_COUNT>
0

> <PUBCHEM_BOND_UDEF_STEREO_COUNT>
0

> <PUBCHEM_ISOTOPIC_ATOM_COUNT>
0

> <PUBCHEM_COMPONENT_COUNT>
1

> <PUBCHEM_CACTVS_TAUTO_COUNT>
-1

> <PUBCHEM_COORDINATE_TYPE>
1
5
255

> <PUBCHEM_BONDANNOTATIONS>
10  26  8
10  31  8
17  19  8
17  20  8
19  22  8
20  23  8
22  24  8
23  24  8
28  29  8
29  31  8
29  33  8
30  35  8
30  36  8
31  34  8
33  37  8
34  38  8
35  39  8
36  40  8
37  38  8
39  41  8
40  41  8
9  26  8
9  28  8

$$$$
