45260363
  -OEChem-09292322102D

 64 66  0     1  0  0  0  0  0999 V2000
    7.5947    0.0000    0.0000 Cl  0  0  0  0  0  0  0  0  0  0  0  0
   11.3224    6.1353    0.0000 O   0  0  0  0  0  0  0  0  0  0  0  0
    5.2602    6.6353    0.0000 N   0  0  3  0  0  0  0  0  0  0  0  0
   10.4564    4.6353    0.0000 N   0  0  0  0  0  0  0  0  0  0  0  0
    0.0000    8.6628    0.0000 N   0  0  0  0  0  0  0  0  0  0  0  0
    7.8583    6.1353    0.0000 C   0  0  0  0  0  0  0  0  0  0  0  0
    8.7243    6.6353    0.0000 C   0  0  0  0  0  0  0  0  0  0  0  0
    7.8583    5.1353    0.0000 C   0  0  0  0  0  0  0  0  0  0  0  0
    9.5904    5.1353    0.0000 C   0  0  0  0  0  0  0  0  0  0  0  0
    9.5904    6.1353    0.0000 C   0  0  0  0  0  0  0  0  0  0  0  0
    8.7243    4.6353    0.0000 C   0  0  0  0  0  0  0  0  0  0  0  0
    6.9923    6.6353    0.0000 C   0  0  0  0  0  0  0  0  0  0  0  0
    6.1263    6.1353    0.0000 C   0  0  0  0  0  0  0  0  0  0  0  0
    5.2602    7.6353    0.0000 C   0  0  0  0  0  0  0  0  0  0  0  0
    4.3942    6.1353    0.0000 C   0  0  0  0  0  0  0  0  0  0  0  0
    4.3942    8.1353    0.0000 C   0  0  0  0  0  0  0  0  0  0  0  0
    3.5282    6.6353    0.0000 C   0  0  0  0  0  0  0  0  0  0  0  0
    3.5282    7.6353    0.0000 C   0  0  0  0  0  0  0  0  0  0  0  0
   11.3224    5.1353    0.0000 C   0  0  0  0  0  0  0  0  0  0  0  0
    2.6343    6.1006    0.0000 C   0  0  0  0  0  0  0  0  0  0  0  0
    2.6343    8.1700    0.0000 C   0  0  0  0  0  0  0  0  0  0  0  0
    1.7282    6.6145    0.0000 C   0  0  0  0  0  0  0  0  0  0  0  0
    1.7282    7.6561    0.0000 C   0  0  0  0  0  0  0  0  0  0  0  0
   12.1884    4.6353    0.0000 C   0  0  0  0  0  0  0  0  0  0  0  0
   13.0545    5.1353    0.0000 C   0  0  0  0  0  0  0  0  0  0  0  0
    0.8641    8.1595    0.0000 C   0  0  0  0  0  0  0  0  0  0  0  0
   13.9205    4.6353    0.0000 C   0  0  0  0  0  0  0  0  0  0  0  0
   14.7865    5.1353    0.0000 C   0  0  0  0  0  0  0  0  0  0  0  0
   13.9205    3.6353    0.0000 C   0  0  0  0  0  0  0  0  0  0  0  0
   15.6525    4.6353    0.0000 C   0  0  0  0  0  0  0  0  0  0  0  0
   14.7865    3.1353    0.0000 C   0  0  0  0  0  0  0  0  0  0  0  0
   15.6525    3.6353    0.0000 C   0  0  0  0  0  0  0  0  0  0  0  0
    7.3214    5.8253    0.0000 H   0  0  0  0  0  0  0  0  0  0  0  0
    9.1229    7.1102    0.0000 H   0  0  0  0  0  0  0  0  0  0  0  0
    8.3258    7.1102    0.0000 H   0  0  0  0  0  0  0  0  0  0  0  0
    7.2477    5.2430    0.0000 H   0  0  0  0  0  0  0  0  0  0  0  0
    7.6463    4.5527    0.0000 H   0  0  0  0  0  0  0  0  0  0  0  0
   10.1273    5.4453    0.0000 H   0  0  0  0  0  0  0  0  0  0  0  0
   10.2010    6.0276    0.0000 H   0  0  0  0  0  0  0  0  0  0  0  0
    9.8024    6.7179    0.0000 H   0  0  0  0  0  0  0  0  0  0  0  0
    8.3258    4.1604    0.0000 H   0  0  0  0  0  0  0  0  0  0  0  0
    9.1229    4.1604    0.0000 H   0  0  0  0  0  0  0  0  0  0  0  0
    7.3908    7.1102    0.0000 H   0  0  0  0  0  0  0  0  0  0  0  0
    6.5938    7.1102    0.0000 H   0  0  0  0  0  0  0  0  0  0  0  0
    5.7277    5.6604    0.0000 H   0  0  0  0  0  0  0  0  0  0  0  0
    6.5248    5.6604    0.0000 H   0  0  0  0  0  0  0  0  0  0  0  0
   10.4564    4.0153    0.0000 H   0  0  0  0  0  0  0  0  0  0  0  0
    5.8708    7.5276    0.0000 H   0  0  0  0  0  0  0  0  0  0  0  0
    5.4723    8.2179    0.0000 H   0  0  0  0  0  0  0  0  0  0  0  0
    3.9957    5.6604    0.0000 H   0  0  0  0  0  0  0  0  0  0  0  0
    4.7928    5.6604    0.0000 H   0  0  0  0  0  0  0  0  0  0  0  0
    4.7928    8.6102    0.0000 H   0  0  0  0  0  0  0  0  0  0  0  0
    3.9957    8.6102    0.0000 H   0  0  0  0  0  0  0  0  0  0  0  0
    2.6414    5.4807    0.0000 H   0  0  0  0  0  0  0  0  0  0  0  0
    2.6414    8.7899    0.0000 H   0  0  0  0  0  0  0  0  0  0  0  0
    1.1924    6.3024    0.0000 H   0  0  0  0  0  0  0  0  0  0  0  0
   12.1884    4.0153    0.0000 H   0  0  0  0  0  0  0  0  0  0  0  0
   13.0545    5.7553    0.0000 H   0  0  0  0  0  0  0  0  0  0  0  0
   14.7865    5.7553    0.0000 H   0  0  0  0  0  0  0  0  0  0  0  0
   13.3836    3.3253    0.0000 H   0  0  0  0  0  0  0  0  0  0  0  0
   16.1895    4.9453    0.0000 H   0  0  0  0  0  0  0  0  0  0  0  0
   14.7865    2.5153    0.0000 H   0  0  0  0  0  0  0  0  0  0  0  0
   16.1895    3.3253    0.0000 H   0  0  0  0  0  0  0  0  0  0  0  0
    8.5947    0.0000    0.0000 H   0  0  0  0  0  0  0  0  0  0  0  0
  1 64  1  0  0  0  0
  2 19  2  0  0  0  0
  3 13  1  0  0  0  0
  3 14  1  0  0  0  0
  3 15  1  0  0  0  0
  4  9  1  0  0  0  0
  4 19  1  0  0  0  0
  4 47  1  0  0  0  0
  5 26  3  0  0  0  0
  6  7  1  0  0  0  0
  6  8  1  0  0  0  0
  6 12  1  0  0  0  0
  6 33  1  0  0  0  0
  7 10  1  0  0  0  0
  7 34  1  0  0  0  0
  7 35  1  0  0  0  0
  8 11  1  0  0  0  0
  8 36  1  0  0  0  0
  8 37  1  0  0  0  0
  9 10  1  0  0  0  0
  9 11  1  0  0  0  0
  9 38  1  0  0  0  0
 10 39  1  0  0  0  0
 10 40  1  0  0  0  0
 11 41  1  0  0  0  0
 11 42  1  0  0  0  0
 12 13  1  0  0  0  0
 12 43  1  0  0  0  0
 12 44  1  0  0  0  0
 13 45  1  0  0  0  0
 13 46  1  0  0  0  0
 14 16  1  0  0  0  0
 14 48  1  0  0  0  0
 14 49  1  0  0  0  0
 15 17  1  0  0  0  0
 15 50  1  0  0  0  0
 15 51  1  0  0  0  0
 16 18  1  0  0  0  0
 16 52  1  0  0  0  0
 16 53  1  0  0  0  0
 17 18  2  0  0  0  0
 17 20  1  0  0  0  0
 18 21  1  0  0  0  0
 19 24  1  0  0  0  0
 20 22  2  0  0  0  0
 20 54  1  0  0  0  0
 21 23  2  0  0  0  0
 21 55  1  0  0  0  0
 22 23  1  0  0  0  0
 22 56  1  0  0  0  0
 23 26  1  0  0  0  0
 24 25  2  0  0  0  0
 24 57  1  0  0  0  0
 25 27  1  0  0  0  0
 25 58  1  0  0  0  0
 27 28  2  0  0  0  0
 27 29  1  0  0  0  0
 28 30  1  0  0  0  0
 28 59  1  0  0  0  0
 29 31  2  0  0  0  0
 29 60  1  0  0  0  0
 30 32  2  0  0  0  0
 30 61  1  0  0  0  0
 31 32  1  0  0  0  0
 31 62  1  0  0  0  0
 32 63  1  0  0  0  0
M  END
> <PUBCHEM_COMPOUND_CID>
45260363

> <PUBCHEM_COMPOUND_CANONICALIZED>
1

> <PUBCHEM_CACTVS_COMPLEXITY>
651

> <PUBCHEM_CACTVS_HBOND_ACCEPTOR>
3

> <PUBCHEM_CACTVS_HBOND_DONOR>
2

> <PUBCHEM_CACTVS_ROTATABLE_BOND>
6

> <PUBCHEM_CACTVS_SUBSKEYS>
AAADcfB7IAAEAAAAAAAAAAAAAAAAAAAAAAA8YMEAAAAAAACxQAAAHgAQAAAADSjBmAQwAIPAAACYBiFSEACiAAAgAAAIiIAIBMgIoCKAkRGEIAhglgCIiY8QgMAOwAACAAAQAACQAAQAACAAAAAAAAAAAA==

> <PUBCHEM_IUPAC_OPENEYE_NAME>
(E)-N-[4-[2-(6-cyano-3,4-dihydro-1H-isoquinolin-2-yl)ethyl]cyclohexyl]-3-phenyl-prop-2-enamide;hydrochloride

> <PUBCHEM_IUPAC_CAS_NAME>
(E)-N-[4-[2-(6-cyano-3,4-dihydro-1H-isoquinolin-2-yl)ethyl]cyclohexyl]-3-phenyl-2-propenamide;hydrochloride

> <PUBCHEM_IUPAC_NAME_MARKUP>
(<I>E</I>)-<I>N</I>-[4-[2-(6-cyano-3,4-dihydro-1<I>H</I>-isoquinolin-2-yl)ethyl]cyclohexyl]-3-phenylprop-2-enamide;hydrochloride

> <PUBCHEM_IUPAC_NAME>
(E)-N-[4-[2-(6-cyano-3,4-dihydro-1H-isoquinolin-2-yl)ethyl]cyclohexyl]-3-phenylprop-2-enamide;hydrochloride

> <PUBCHEM_IUPAC_SYSTEMATIC_NAME>
(E)-N-[4-[2-(6-cyano-3,4-dihydro-1H-isoquinolin-2-yl)ethyl]cyclohexyl]-3-phenyl-prop-2-enamide;hydrochloride

> <PUBCHEM_IUPAC_TRADITIONAL_NAME>
(E)-N-[4-[2-(6-cyano-3,4-dihydro-1H-isoquinolin-2-yl)ethyl]cyclohexyl]-3-phenyl-acrylamide;hydrochloride

> <PUBCHEM_IUPAC_INCHI>
InChI=1S/C27H31N3O.ClH/c28-19-23-6-10-25-20-30(17-15-24(25)18-23)16-14-22-7-11-26(12-8-22)29-27(31)13-9-21-4-2-1-3-5-21;/h1-6,9-10,13,18,22,26H,7-8,11-12,14-17,20H2,(H,29,31);1H/b13-9+;

> <PUBCHEM_IUPAC_INCHIKEY>
BYLQYVSGOUWHOF-KJEVSKRMSA-N

> <PUBCHEM_EXACT_MASS>
449.2233903

> <PUBCHEM_MOLECULAR_FORMULA>
C27H32ClN3O

> <PUBCHEM_MOLECULAR_WEIGHT>
450.0

> <PUBCHEM_OPENEYE_CAN_SMILES>
C1CC(CCC1CCN2CCC3=C(C2)C=CC(=C3)C#N)NC(=O)C=CC4=CC=CC=C4.Cl

> <PUBCHEM_OPENEYE_ISO_SMILES>
C1CC(CCC1CCN2CCC3=C(C2)C=CC(=C3)C#N)NC(=O)/C=C/C4=CC=CC=C4.Cl

> <PUBCHEM_CACTVS_TPSA>
56.1

> <PUBCHEM_MONOISOTOPIC_WEIGHT>
449.2233903

> <PUBCHEM_TOTAL_CHARGE>
0

> <PUBCHEM_HEAVY_ATOM_COUNT>
32

> <PUBCHEM_ATOM_DEF_STEREO_COUNT>
0

> <PUBCHEM_ATOM_UDEF_STEREO_COUNT>
0

> <PUBCHEM_BOND_DEF_STEREO_COUNT>
1

> <PUBCHEM_BOND_UDEF_STEREO_COUNT>
0

> <PUBCHEM_ISOTOPIC_ATOM_COUNT>
0

> <PUBCHEM_COMPONENT_COUNT>
2

> <PUBCHEM_CACTVS_TAUTO_COUNT>
-1

> <PUBCHEM_COORDINATE_TYPE>
1
5
255

> <PUBCHEM_BONDANNOTATIONS>
17  18  8
17  20  8
18  21  8
20  22  8
21  23  8
22  23  8
27  28  8
27  29  8
28  30  8
29  31  8
30  32  8
31  32  8

$$$$
