44317384
  -OEChem-09292322212D

 63 66  0     0  0  0  0  0  0999 V2000
    6.2731    6.3184    0.0000 S   0  0  0  0  0  0  0  0  0  0  0  0
    6.3301    4.2306    0.0000 O   0  0  0  0  0  0  0  0  0  0  0  0
    2.0000   -6.2694    0.0000 O   0  0  0  0  0  0  0  0  0  0  0  0
    3.7320   -1.2694    0.0000 N   0  0  0  0  0  0  0  0  0  0  0  0
    4.5981    4.2306    0.0000 N   0  0  0  0  0  0  0  0  0  0  0  0
    3.7320   -3.2694    0.0000 N   0  0  0  0  0  0  0  0  0  0  0  0
    4.5981    1.2306    0.0000 C   0  0  0  0  0  0  0  0  0  0  0  0
    3.7320    1.7306    0.0000 C   0  0  0  0  0  0  0  0  0  0  0  0
    5.4641    1.7306    0.0000 C   0  0  0  0  0  0  0  0  0  0  0  0
    4.5981    3.2306    0.0000 C   0  0  0  0  0  0  0  0  0  0  0  0
    3.7320    2.7306    0.0000 C   0  0  0  0  0  0  0  0  0  0  0  0
    5.4641    2.7306    0.0000 C   0  0  0  0  0  0  0  0  0  0  0  0
    4.5981    0.2306    0.0000 C   0  0  0  0  0  0  0  0  0  0  0  0
    3.7320   -0.2694    0.0000 C   0  0  0  0  0  0  0  0  0  0  0  0
    4.5981   -1.7694    0.0000 C   0  0  0  0  0  0  0  0  0  0  0  0
    2.8660   -1.7694    0.0000 C   0  0  0  0  0  0  0  0  0  0  0  0
    4.5981   -2.7694    0.0000 C   0  0  0  0  0  0  0  0  0  0  0  0
    2.8660   -2.7694    0.0000 C   0  0  0  0  0  0  0  0  0  0  0  0
    5.4641    4.7306    0.0000 C   0  0  0  0  0  0  0  0  0  0  0  0
    3.7320   -4.2694    0.0000 C   0  0  0  0  0  0  0  0  0  0  0  0
    5.4641    5.7306    0.0000 C   0  0  0  0  0  0  0  0  0  0  0  0
    2.8660   -4.7694    0.0000 C   0  0  0  0  0  0  0  0  0  0  0  0
    4.5981   -4.7694    0.0000 C   0  0  0  0  0  0  0  0  0  0  0  0
    2.8660   -5.7694    0.0000 C   0  0  0  0  0  0  0  0  0  0  0  0
    4.5981   -5.7694    0.0000 C   0  0  0  0  0  0  0  0  0  0  0  0
    4.6551    6.3184    0.0000 C   0  0  0  0  0  0  0  0  0  0  0  0
    3.7320   -6.2694    0.0000 C   0  0  0  0  0  0  0  0  0  0  0  0
    4.9641    7.2694    0.0000 C   0  0  0  0  0  0  0  0  0  0  0  0
    5.9641    7.2694    0.0000 C   0  0  0  0  0  0  0  0  0  0  0  0
    2.0000   -7.2694    0.0000 C   0  0  0  0  0  0  0  0  0  0  0  0
    5.1350    0.9206    0.0000 H   0  0  0  0  0  0  0  0  0  0  0  0
    3.1215    1.8382    0.0000 H   0  0  0  0  0  0  0  0  0  0  0  0
    3.5200    1.1480    0.0000 H   0  0  0  0  0  0  0  0  0  0  0  0
    5.6762    1.1480    0.0000 H   0  0  0  0  0  0  0  0  0  0  0  0
    6.0747    1.8382    0.0000 H   0  0  0  0  0  0  0  0  0  0  0  0
    5.1350    3.5406    0.0000 H   0  0  0  0  0  0  0  0  0  0  0  0
    3.5200    3.3132    0.0000 H   0  0  0  0  0  0  0  0  0  0  0  0
    3.1215    2.6229    0.0000 H   0  0  0  0  0  0  0  0  0  0  0  0
    6.0747    2.6229    0.0000 H   0  0  0  0  0  0  0  0  0  0  0  0
    5.6762    3.3132    0.0000 H   0  0  0  0  0  0  0  0  0  0  0  0
    4.8101   -0.3520    0.0000 H   0  0  0  0  0  0  0  0  0  0  0  0
    5.2087    0.3382    0.0000 H   0  0  0  0  0  0  0  0  0  0  0  0
    3.5200    0.3132    0.0000 H   0  0  0  0  0  0  0  0  0  0  0  0
    3.1215   -0.3771    0.0000 H   0  0  0  0  0  0  0  0  0  0  0  0
    5.2087   -1.8771    0.0000 H   0  0  0  0  0  0  0  0  0  0  0  0
    4.8101   -1.1868    0.0000 H   0  0  0  0  0  0  0  0  0  0  0  0
    2.6540   -1.1868    0.0000 H   0  0  0  0  0  0  0  0  0  0  0  0
    2.2554   -1.8771    0.0000 H   0  0  0  0  0  0  0  0  0  0  0  0
    4.0611    4.5406    0.0000 H   0  0  0  0  0  0  0  0  0  0  0  0
    4.8101   -3.3520    0.0000 H   0  0  0  0  0  0  0  0  0  0  0  0
    5.2087   -2.6618    0.0000 H   0  0  0  0  0  0  0  0  0  0  0  0
    2.2554   -2.6618    0.0000 H   0  0  0  0  0  0  0  0  0  0  0  0
    2.6540   -3.3520    0.0000 H   0  0  0  0  0  0  0  0  0  0  0  0
    2.3291   -4.4594    0.0000 H   0  0  0  0  0  0  0  0  0  0  0  0
    5.1350   -4.4594    0.0000 H   0  0  0  0  0  0  0  0  0  0  0  0
    5.1350   -6.0794    0.0000 H   0  0  0  0  0  0  0  0  0  0  0  0
    4.0654    6.1268    0.0000 H   0  0  0  0  0  0  0  0  0  0  0  0
    3.7320   -6.8894    0.0000 H   0  0  0  0  0  0  0  0  0  0  0  0
    4.5997    7.7710    0.0000 H   0  0  0  0  0  0  0  0  0  0  0  0
    6.3285    7.7710    0.0000 H   0  0  0  0  0  0  0  0  0  0  0  0
    1.3800   -7.2694    0.0000 H   0  0  0  0  0  0  0  0  0  0  0  0
    2.0000   -7.8894    0.0000 H   0  0  0  0  0  0  0  0  0  0  0  0
    2.6200   -7.2694    0.0000 H   0  0  0  0  0  0  0  0  0  0  0  0
  1 21  1  0  0  0  0
  1 29  1  0  0  0  0
  2 19  2  0  0  0  0
  3 24  1  0  0  0  0
  3 30  1  0  0  0  0
  4 14  1  0  0  0  0
  4 15  1  0  0  0  0
  4 16  1  0  0  0  0
  5 10  1  0  0  0  0
  5 19  1  0  0  0  0
  5 49  1  0  0  0  0
  6 17  1  0  0  0  0
  6 18  1  0  0  0  0
  6 20  1  0  0  0  0
  7  8  1  0  0  0  0
  7  9  1  0  0  0  0
  7 13  1  0  0  0  0
  7 31  1  0  0  0  0
  8 11  1  0  0  0  0
  8 32  1  0  0  0  0
  8 33  1  0  0  0  0
  9 12  1  0  0  0  0
  9 34  1  0  0  0  0
  9 35  1  0  0  0  0
 10 11  1  0  0  0  0
 10 12  1  0  0  0  0
 10 36  1  0  0  0  0
 11 37  1  0  0  0  0
 11 38  1  0  0  0  0
 12 39  1  0  0  0  0
 12 40  1  0  0  0  0
 13 14  1  0  0  0  0
 13 41  1  0  0  0  0
 13 42  1  0  0  0  0
 14 43  1  0  0  0  0
 14 44  1  0  0  0  0
 15 17  1  0  0  0  0
 15 45  1  0  0  0  0
 15 46  1  0  0  0  0
 16 18  1  0  0  0  0
 16 47  1  0  0  0  0
 16 48  1  0  0  0  0
 17 50  1  0  0  0  0
 17 51  1  0  0  0  0
 18 52  1  0  0  0  0
 18 53  1  0  0  0  0
 19 21  1  0  0  0  0
 20 22  2  0  0  0  0
 20 23  1  0  0  0  0
 21 26  2  0  0  0  0
 22 24  1  0  0  0  0
 22 54  1  0  0  0  0
 23 25  2  0  0  0  0
 23 55  1  0  0  0  0
 24 27  2  0  0  0  0
 25 27  1  0  0  0  0
 25 56  1  0  0  0  0
 26 28  1  0  0  0  0
 26 57  1  0  0  0  0
 27 58  1  0  0  0  0
 28 29  2  0  0  0  0
 28 59  1  0  0  0  0
 29 60  1  0  0  0  0
 30 61  1  0  0  0  0
 30 62  1  0  0  0  0
 30 63  1  0  0  0  0
M  END
> <PUBCHEM_COMPOUND_CID>
44317384

> <PUBCHEM_COMPOUND_CANONICALIZED>
1

> <PUBCHEM_CACTVS_COMPLEXITY>
533

> <PUBCHEM_CACTVS_HBOND_ACCEPTOR>
5

> <PUBCHEM_CACTVS_HBOND_DONOR>
1

> <PUBCHEM_CACTVS_ROTATABLE_BOND>
7

> <PUBCHEM_CACTVS_SUBSKEYS>
AAADcfB7MABAAAAAAAAAAAAAAAAAASAAAAA8YIAAAAAAAAABwAAAHgQQAAAADSzF0Aayx4PABAiMACVSUACDCIAlKhBIiJkObMgMZjLktZuUMShm1hno6YeY0IMOAAAAAgAAAAAQAAAEAAAAAAAAAAAAAA==

> <PUBCHEM_IUPAC_OPENEYE_NAME>
N-[4-[2-[4-(3-methoxyphenyl)piperazin-1-yl]ethyl]cyclohexyl]thiophene-2-carboxamide

> <PUBCHEM_IUPAC_CAS_NAME>
N-[4-[2-[4-(3-methoxyphenyl)-1-piperazinyl]ethyl]cyclohexyl]-2-thiophenecarboxamide

> <PUBCHEM_IUPAC_NAME_MARKUP>
<I>N</I>-[4-[2-[4-(3-methoxyphenyl)piperazin-1-yl]ethyl]cyclohexyl]thiophene-2-carboxamide

> <PUBCHEM_IUPAC_NAME>
N-[4-[2-[4-(3-methoxyphenyl)piperazin-1-yl]ethyl]cyclohexyl]thiophene-2-carboxamide

> <PUBCHEM_IUPAC_SYSTEMATIC_NAME>
N-[4-[2-[4-(3-methoxyphenyl)piperazin-1-yl]ethyl]cyclohexyl]thiophene-2-carboxamide

> <PUBCHEM_IUPAC_TRADITIONAL_NAME>
N-[4-[2-[4-(3-methoxyphenyl)piperazino]ethyl]cyclohexyl]thiophene-2-carboxamide

> <PUBCHEM_IUPAC_INCHI>
InChI=1S/C24H33N3O2S/c1-29-22-5-2-4-21(18-22)27-15-13-26(14-16-27)12-11-19-7-9-20(10-8-19)25-24(28)23-6-3-17-30-23/h2-6,17-20H,7-16H2,1H3,(H,25,28)

> <PUBCHEM_IUPAC_INCHIKEY>
CNMSAIQUKYYMGN-UHFFFAOYSA-N

> <PUBCHEM_XLOGP3_AA>
4.7

> <PUBCHEM_EXACT_MASS>
427.22934848

> <PUBCHEM_MOLECULAR_FORMULA>
C24H33N3O2S

> <PUBCHEM_MOLECULAR_WEIGHT>
427.6

> <PUBCHEM_OPENEYE_CAN_SMILES>
COC1=CC=CC(=C1)N2CCN(CC2)CCC3CCC(CC3)NC(=O)C4=CC=CS4

> <PUBCHEM_OPENEYE_ISO_SMILES>
COC1=CC=CC(=C1)N2CCN(CC2)CCC3CCC(CC3)NC(=O)C4=CC=CS4

> <PUBCHEM_CACTVS_TPSA>
73

> <PUBCHEM_MONOISOTOPIC_WEIGHT>
427.22934848

> <PUBCHEM_TOTAL_CHARGE>
0

> <PUBCHEM_HEAVY_ATOM_COUNT>
30

> <PUBCHEM_ATOM_DEF_STEREO_COUNT>
0

> <PUBCHEM_ATOM_UDEF_STEREO_COUNT>
0

> <PUBCHEM_BOND_DEF_STEREO_COUNT>
0

> <PUBCHEM_BOND_UDEF_STEREO_COUNT>
0

> <PUBCHEM_ISOTOPIC_ATOM_COUNT>
0

> <PUBCHEM_COMPONENT_COUNT>
1

> <PUBCHEM_CACTVS_TAUTO_COUNT>
-1

> <PUBCHEM_COORDINATE_TYPE>
1
5
255

> <PUBCHEM_BONDANNOTATIONS>
1  21  8
1  29  8
20  22  8
20  23  8
21  26  8
22  24  8
23  25  8
24  27  8
25  27  8
26  28  8
28  29  8

$$$$
