138670679
  -OEChem-09292322452D

 71 77  0     1  0  0  0  0  0999 V2000
    4.6914    4.4771    0.0000 S   0  0  0  0  0  0  0  0  0  0  0  0
    7.4987   -3.9947    0.0000 O   0  0  0  0  0  0  0  0  0  0  0  0
    3.2027    5.4462    0.0000 N   0  0  0  0  0  0  0  0  0  0  0  0
    3.2976    3.6724    0.0000 N   0  0  0  0  0  0  0  0  0  0  0  0
    4.9006    1.5053    0.0000 N   0  0  3  0  0  0  0  0  0  0  0  0
    5.7666   -3.9947    0.0000 N   0  0  0  0  0  0  0  0  0  0  0  0
    8.3926   -7.5293    0.0000 N   0  0  0  0  0  0  0  0  0  0  0  0
    2.8663    7.0289    0.0000 C   0  0  3  0  0  0  0  0  0  0  0  0
    2.0003    6.5289    0.0000 C   0  0  3  0  0  0  0  0  0  0  0  0
    2.0000    7.5293    0.0000 C   0  0  0  0  0  0  0  0  0  0  0  0
    3.6094    6.3598    0.0000 C   0  0  0  0  0  0  0  0  0  0  0  0
    2.2082    5.5508    0.0000 C   0  0  0  0  0  0  0  0  0  0  0  0
    3.7027    4.5802    0.0000 C   0  0  0  0  0  0  0  0  0  0  0  0
    4.0346    3.0053    0.0000 C   0  0  0  0  0  0  0  0  0  0  0  0
    4.9006    3.5053    0.0000 C   0  0  0  0  0  0  0  0  0  0  0  0
    5.7666   -0.9947    0.0000 C   0  0  0  0  0  0  0  0  0  0  0  0
    4.9006   -1.4947    0.0000 C   0  0  0  0  0  0  0  0  0  0  0  0
    6.6327   -1.4947    0.0000 C   0  0  0  0  0  0  0  0  0  0  0  0
    4.0346    2.0053    0.0000 C   0  0  0  0  0  0  0  0  0  0  0  0
    5.7666    0.0053    0.0000 C   0  0  0  0  0  0  0  0  0  0  0  0
    5.7666    3.0053    0.0000 C   0  0  0  0  0  0  0  0  0  0  0  0
    5.7666   -2.9947    0.0000 C   0  0  0  0  0  0  0  0  0  0  0  0
    4.9006   -2.4947    0.0000 C   0  0  0  0  0  0  0  0  0  0  0  0
    6.6327   -2.4947    0.0000 C   0  0  0  0  0  0  0  0  0  0  0  0
    4.9006    0.5053    0.0000 C   0  0  0  0  0  0  0  0  0  0  0  0
    5.7666    2.0053    0.0000 C   0  0  0  0  0  0  0  0  0  0  0  0
    6.6327   -4.4947    0.0000 C   0  0  0  0  0  0  0  0  0  0  0  0
    6.6327   -5.4947    0.0000 C   0  0  0  0  0  0  0  0  0  0  0  0
    7.4987   -5.9947    0.0000 C   0  0  0  0  0  0  0  0  0  0  0  0
    5.7666   -5.9947    0.0000 C   0  0  0  0  0  0  0  0  0  0  0  0
    7.4987   -6.9947    0.0000 C   0  0  0  0  0  0  0  0  0  0  0  0
    5.7666   -6.9947    0.0000 C   0  0  0  0  0  0  0  0  0  0  0  0
    8.3926   -5.4600    0.0000 C   0  0  0  0  0  0  0  0  0  0  0  0
    6.6327   -7.4947    0.0000 C   0  0  0  0  0  0  0  0  0  0  0  0
    9.2987   -5.9739    0.0000 C   0  0  0  0  0  0  0  0  0  0  0  0
    9.2987   -7.0155    0.0000 C   0  0  0  0  0  0  0  0  0  0  0  0
    3.2308    7.5304    0.0000 H   0  0  0  0  0  0  0  0  0  0  0  0
    1.3837    6.4640    0.0000 H   0  0  0  0  0  0  0  0  0  0  0  0
    2.2121    8.1119    0.0000 H   0  0  0  0  0  0  0  0  0  0  0  0
    1.3894    7.6370    0.0000 H   0  0  0  0  0  0  0  0  0  0  0  0
    4.1464    6.0498    0.0000 H   0  0  0  0  0  0  0  0  0  0  0  0
    3.9738    6.8614    0.0000 H   0  0  0  0  0  0  0  0  0  0  0  0
    1.5916    5.4859    0.0000 H   0  0  0  0  0  0  0  0  0  0  0  0
    2.2082    4.9308    0.0000 H   0  0  0  0  0  0  0  0  0  0  0  0
    6.3036   -0.6847    0.0000 H   0  0  0  0  0  0  0  0  0  0  0  0
    4.6886   -0.9121    0.0000 H   0  0  0  0  0  0  0  0  0  0  0  0
    4.2900   -1.6023    0.0000 H   0  0  0  0  0  0  0  0  0  0  0  0
    7.2432   -1.6023    0.0000 H   0  0  0  0  0  0  0  0  0  0  0  0
    6.8447   -0.9121    0.0000 H   0  0  0  0  0  0  0  0  0  0  0  0
    6.3772   -0.1023    0.0000 H   0  0  0  0  0  0  0  0  0  0  0  0
    5.9787    0.5879    0.0000 H   0  0  0  0  0  0  0  0  0  0  0  0
    3.4240    2.1130    0.0000 H   0  0  0  0  0  0  0  0  0  0  0  0
    3.8225    1.4227    0.0000 H   0  0  0  0  0  0  0  0  0  0  0  0
    6.3036   -3.3047    0.0000 H   0  0  0  0  0  0  0  0  0  0  0  0
    6.3772    2.8977    0.0000 H   0  0  0  0  0  0  0  0  0  0  0  0
    5.9787    3.5879    0.0000 H   0  0  0  0  0  0  0  0  0  0  0  0
    4.2900   -2.3870    0.0000 H   0  0  0  0  0  0  0  0  0  0  0  0
    4.6886   -3.0773    0.0000 H   0  0  0  0  0  0  0  0  0  0  0  0
    6.8447   -3.0773    0.0000 H   0  0  0  0  0  0  0  0  0  0  0  0
    7.2432   -2.3870    0.0000 H   0  0  0  0  0  0  0  0  0  0  0  0
    4.2900    0.6130    0.0000 H   0  0  0  0  0  0  0  0  0  0  0  0
    4.6886   -0.0773    0.0000 H   0  0  0  0  0  0  0  0  0  0  0  0
    5.9787    1.4227    0.0000 H   0  0  0  0  0  0  0  0  0  0  0  0
    6.3772    2.1130    0.0000 H   0  0  0  0  0  0  0  0  0  0  0  0
    5.2297   -4.3047    0.0000 H   0  0  0  0  0  0  0  0  0  0  0  0
    5.2297   -5.6847    0.0000 H   0  0  0  0  0  0  0  0  0  0  0  0
    5.2297   -7.3047    0.0000 H   0  0  0  0  0  0  0  0  0  0  0  0
    8.3855   -4.8401    0.0000 H   0  0  0  0  0  0  0  0  0  0  0  0
    6.6327   -8.1147    0.0000 H   0  0  0  0  0  0  0  0  0  0  0  0
    9.8344   -5.6618    0.0000 H   0  0  0  0  0  0  0  0  0  0  0  0
    9.8344   -7.3276    0.0000 H   0  0  0  0  0  0  0  0  0  0  0  0
  1 13  1  0  0  0  0
  1 15  1  0  0  0  0
  2 27  2  0  0  0  0
  3 11  1  0  0  0  0
  3 12  1  0  0  0  0
  3 13  1  0  0  0  0
  4 13  2  0  0  0  0
  4 14  1  0  0  0  0
  5 19  1  0  0  0  0
  5 25  1  0  0  0  0
  5 26  1  0  0  0  0
  6 22  1  0  0  0  0
  6 27  1  0  0  0  0
  6 65  1  0  0  0  0
  7 31  1  0  0  0  0
  7 36  2  0  0  0  0
  8  9  1  0  0  0  0
  8 10  1  0  0  0  0
  8 11  1  0  0  0  0
  8 37  1  0  0  0  0
  9 10  1  0  0  0  0
  9 12  1  0  0  0  0
  9 38  1  0  0  0  0
 10 39  1  0  0  0  0
 10 40  1  0  0  0  0
 11 41  1  0  0  0  0
 11 42  1  0  0  0  0
 12 43  1  0  0  0  0
 12 44  1  0  0  0  0
 14 15  2  0  0  0  0
 14 19  1  0  0  0  0
 15 21  1  0  0  0  0
 16 17  1  0  0  0  0
 16 18  1  0  0  0  0
 16 20  1  0  0  0  0
 16 45  1  0  0  0  0
 17 23  1  0  0  0  0
 17 46  1  0  0  0  0
 17 47  1  0  0  0  0
 18 24  1  0  0  0  0
 18 48  1  0  0  0  0
 18 49  1  0  0  0  0
 19 52  1  0  0  0  0
 19 53  1  0  0  0  0
 20 25  1  0  0  0  0
 20 50  1  0  0  0  0
 20 51  1  0  0  0  0
 21 26  1  0  0  0  0
 21 55  1  0  0  0  0
 21 56  1  0  0  0  0
 22 23  1  0  0  0  0
 22 24  1  0  0  0  0
 22 54  1  0  0  0  0
 23 57  1  0  0  0  0
 23 58  1  0  0  0  0
 24 59  1  0  0  0  0
 24 60  1  0  0  0  0
 25 61  1  0  0  0  0
 25 62  1  0  0  0  0
 26 63  1  0  0  0  0
 26 64  1  0  0  0  0
 27 28  1  0  0  0  0
 28 29  2  0  0  0  0
 28 30  1  0  0  0  0
 29 31  1  0  0  0  0
 29 33  1  0  0  0  0
 30 32  2  0  0  0  0
 30 66  1  0  0  0  0
 31 34  2  0  0  0  0
 32 34  1  0  0  0  0
 32 67  1  0  0  0  0
 33 35  2  0  0  0  0
 33 68  1  0  0  0  0
 34 69  1  0  0  0  0
 35 36  1  0  0  0  0
 35 70  1  0  0  0  0
 36 71  1  0  0  0  0
M  END
> <PUBCHEM_COMPOUND_CID>
138670679

> <PUBCHEM_COMPOUND_CANONICALIZED>
1

> <PUBCHEM_CACTVS_COMPLEXITY>
780

> <PUBCHEM_CACTVS_HBOND_ACCEPTOR>
6

> <PUBCHEM_CACTVS_HBOND_DONOR>
1

> <PUBCHEM_CACTVS_ROTATABLE_BOND>
6

> <PUBCHEM_CACTVS_SUBSKEYS>
AAADcfB7oABAAAAAAAAAAAAAGAAAAWLAAAA8eLECAAAAAFix/AAAHgQQAAAADSjB3gQ90fPIEAisAzV3dACC8Kl1CjgJ2LU4ZNiIYPLgnZGUIQholgLIyacciICOgAAAQAASAAAQAACAACQAAAAAAAAAAA==

> <PUBCHEM_IUPAC_OPENEYE_NAME>
N-[4-[2-[2-(3-azabicyclo[3.1.0]hexan-3-yl)-6,7-dihydro-4H-thiazolo[4,5-c]pyridin-5-yl]ethyl]cyclohexyl]quinoline-5-carboxamide

> <PUBCHEM_IUPAC_CAS_NAME>
N-[4-[2-[2-(3-azabicyclo[3.1.0]hexan-3-yl)-6,7-dihydro-4H-thiazolo[4,5-c]pyridin-5-yl]ethyl]cyclohexyl]-5-quinolinecarboxamide

> <PUBCHEM_IUPAC_NAME_MARKUP>
<I>N</I>-[4-[2-[2-(3-azabicyclo[3.1.0]hexan-3-yl)-6,7-dihydro-4<I>H</I>-[1,3]thiazolo[4,5-c]pyridin-5-yl]ethyl]cyclohexyl]quinoline-5-carboxamide

> <PUBCHEM_IUPAC_NAME>
N-[4-[2-[2-(3-azabicyclo[3.1.0]hexan-3-yl)-6,7-dihydro-4H-[1,3]thiazolo[4,5-c]pyridin-5-yl]ethyl]cyclohexyl]quinoline-5-carboxamide

> <PUBCHEM_IUPAC_SYSTEMATIC_NAME>
N-[4-[2-[2-(3-azabicyclo[3.1.0]hexan-3-yl)-6,7-dihydro-4H-[1,3]thiazolo[4,5-c]pyridin-5-yl]ethyl]cyclohexyl]quinoline-5-carboxamide

> <PUBCHEM_IUPAC_TRADITIONAL_NAME>
N-[4-[2-[2-(3-azabicyclo[3.1.0]hexan-3-yl)-6,7-dihydro-4H-thiazolo[4,5-c]pyridin-5-yl]ethyl]cyclohexyl]quinoline-5-carboxamide

> <PUBCHEM_IUPAC_INCHI>
InChI=1S/C29H35N5OS/c35-28(24-3-1-5-25-23(24)4-2-12-30-25)31-22-8-6-19(7-9-22)10-13-33-14-11-27-26(18-33)32-29(36-27)34-16-20-15-21(20)17-34/h1-5,12,19-22H,6-11,13-18H2,(H,31,35)

> <PUBCHEM_IUPAC_INCHIKEY>
BLTQTSIKHDZFTP-UHFFFAOYSA-N

> <PUBCHEM_XLOGP3_AA>
4.9

> <PUBCHEM_EXACT_MASS>
501.25623193

> <PUBCHEM_MOLECULAR_FORMULA>
C29H35N5OS

> <PUBCHEM_MOLECULAR_WEIGHT>
501.7

> <PUBCHEM_OPENEYE_CAN_SMILES>
C1CC(CCC1CCN2CCC3=C(C2)N=C(S3)N4CC5CC5C4)NC(=O)C6=C7C=CC=NC7=CC=C6

> <PUBCHEM_OPENEYE_ISO_SMILES>
C1CC(CCC1CCN2CCC3=C(C2)N=C(S3)N4CC5CC5C4)NC(=O)C6=C7C=CC=NC7=CC=C6

> <PUBCHEM_CACTVS_TPSA>
89.6

> <PUBCHEM_MONOISOTOPIC_WEIGHT>
501.25623193

> <PUBCHEM_TOTAL_CHARGE>
0

> <PUBCHEM_HEAVY_ATOM_COUNT>
36

> <PUBCHEM_ATOM_DEF_STEREO_COUNT>
0

> <PUBCHEM_ATOM_UDEF_STEREO_COUNT>
2

> <PUBCHEM_BOND_DEF_STEREO_COUNT>
0

> <PUBCHEM_BOND_UDEF_STEREO_COUNT>
0

> <PUBCHEM_ISOTOPIC_ATOM_COUNT>
0

> <PUBCHEM_COMPONENT_COUNT>
1

> <PUBCHEM_CACTVS_TAUTO_COUNT>
-1

> <PUBCHEM_COORDINATE_TYPE>
1
5
255

> <PUBCHEM_BONDANNOTATIONS>
1  13  8
1  15  8
14  15  8
28  29  8
28  30  8
29  31  8
29  33  8
30  32  8
31  34  8
32  34  8
33  35  8
35  36  8
4  13  8
4  14  8
7  31  8
7  36  8
8  10  3
9  10  3

$$$$
