118736375
  -OEChem-09292322352D

 70 74  0     0  0  0  0  0  0999 V2000
    3.3823   -1.3581    0.0000 O   0  0  0  0  0  0  0  0  0  0  0  0
    2.6330    2.1015    0.0000 O   0  0  0  0  0  0  0  0  0  0  0  0
   11.4552   -1.1764    0.0000 N   0  0  0  0  0  0  0  0  0  0  0  0
   13.3583   -0.5617    0.0000 N   0  0  0  0  0  0  0  0  0  0  0  0
    7.1164   -0.7577    0.0000 N   0  0  0  0  0  0  0  0  0  0  0  0
    5.5047   -0.7591    0.0000 N   0  0  0  0  0  0  0  0  0  0  0  0
    6.0047    0.7797    0.0000 N   0  0  0  0  0  0  0  0  0  0  0  0
    4.3197    1.5645    0.0000 N   0  0  0  0  0  0  0  0  0  0  0  0
    2.9773    0.3651    0.0000 N   0  0  0  0  0  0  0  0  0  0  0  0
   12.1972   -1.8468    0.0000 C   0  0  0  0  0  0  0  0  0  0  0  0
   11.6648   -0.1986    0.0000 C   0  0  0  0  0  0  0  0  0  0  0  0
   10.5036   -1.4838    0.0000 C   0  0  0  0  0  0  0  0  0  0  0  0
   13.1487   -1.5395    0.0000 C   0  0  0  0  0  0  0  0  0  0  0  0
   12.6164    0.1087    0.0000 C   0  0  0  0  0  0  0  0  0  0  0  0
    9.7616   -0.8134    0.0000 C   0  0  0  0  0  0  0  0  0  0  0  0
    8.8100   -1.1208    0.0000 C   0  0  0  0  0  0  0  0  0  0  0  0
    8.0680   -0.4503    0.0000 C   0  0  0  0  0  0  0  0  0  0  0  0
   14.3099   -0.2543    0.0000 C   0  0  0  0  0  0  0  0  0  0  0  0
    6.3137   -0.1713    0.0000 C   0  0  0  0  0  0  0  0  0  0  0  0
    6.8084   -1.7029    0.0000 C   0  0  0  0  0  0  0  0  0  0  0  0
    4.6957   -0.1713    0.0000 C   0  0  0  0  0  0  0  0  0  0  0  0
    5.8143   -1.7037    0.0000 C   0  0  0  0  0  0  0  0  0  0  0  0
   15.0519   -0.9247    0.0000 C   0  0  0  0  0  0  0  0  0  0  0  0
    5.0047    0.7797    0.0000 C   0  0  0  0  0  0  0  0  0  0  0  0
   14.5195    0.7235    0.0000 C   0  0  0  0  0  0  0  0  0  0  0  0
    7.3962   -2.5119    0.0000 C   0  0  0  0  0  0  0  0  0  0  0  0
    3.6803   -0.4036    0.0000 C   0  0  0  0  0  0  0  0  0  0  0  0
   16.0035   -0.6174    0.0000 C   0  0  0  0  0  0  0  0  0  0  0  0
   14.8423   -1.9025    0.0000 C   0  0  0  0  0  0  0  0  0  0  0  0
   15.4711    1.0308    0.0000 C   0  0  0  0  0  0  0  0  0  0  0  0
    3.2992    1.3558    0.0000 C   0  0  0  0  0  0  0  0  0  0  0  0
   16.2131    0.3604    0.0000 C   0  0  0  0  0  0  0  0  0  0  0  0
    4.6397    2.5119    0.0000 C   0  0  0  0  0  0  0  0  0  0  0  0
   16.7455   -1.2878    0.0000 C   0  0  0  0  0  0  0  0  0  0  0  0
    2.0000    0.1534    0.0000 C   0  0  0  0  0  0  0  0  0  0  0  0
   11.7079   -2.2277    0.0000 H   0  0  0  0  0  0  0  0  0  0  0  0
   12.4873   -2.3948    0.0000 H   0  0  0  0  0  0  0  0  0  0  0  0
   11.5795    0.4155    0.0000 H   0  0  0  0  0  0  0  0  0  0  0  0
   11.0452   -0.1759    0.0000 H   0  0  0  0  0  0  0  0  0  0  0  0
   10.0143   -1.8647    0.0000 H   0  0  0  0  0  0  0  0  0  0  0  0
   10.7937   -2.0317    0.0000 H   0  0  0  0  0  0  0  0  0  0  0  0
   13.2340   -2.1536    0.0000 H   0  0  0  0  0  0  0  0  0  0  0  0
   13.7683   -1.5622    0.0000 H   0  0  0  0  0  0  0  0  0  0  0  0
   13.1056    0.4896    0.0000 H   0  0  0  0  0  0  0  0  0  0  0  0
   12.3262    0.6567    0.0000 H   0  0  0  0  0  0  0  0  0  0  0  0
   10.2508   -0.4325    0.0000 H   0  0  0  0  0  0  0  0  0  0  0  0
    9.4715   -0.2655    0.0000 H   0  0  0  0  0  0  0  0  0  0  0  0
    8.3208   -1.5016    0.0000 H   0  0  0  0  0  0  0  0  0  0  0  0
    9.1001   -1.6687    0.0000 H   0  0  0  0  0  0  0  0  0  0  0  0
    8.5572   -0.0695    0.0000 H   0  0  0  0  0  0  0  0  0  0  0  0
    7.7779    0.0976    0.0000 H   0  0  0  0  0  0  0  0  0  0  0  0
    5.4508   -2.2060    0.0000 H   0  0  0  0  0  0  0  0  0  0  0  0
   14.0595    1.1391    0.0000 H   0  0  0  0  0  0  0  0  0  0  0  0
    6.8946   -2.8763    0.0000 H   0  0  0  0  0  0  0  0  0  0  0  0
    7.7606   -3.0135    0.0000 H   0  0  0  0  0  0  0  0  0  0  0  0
    7.8978   -2.1475    0.0000 H   0  0  0  0  0  0  0  0  0  0  0  0
   14.2361   -1.7726    0.0000 H   0  0  0  0  0  0  0  0  0  0  0  0
   14.7124   -2.5088    0.0000 H   0  0  0  0  0  0  0  0  0  0  0  0
   15.4485   -2.0325    0.0000 H   0  0  0  0  0  0  0  0  0  0  0  0
   15.6011    1.6371    0.0000 H   0  0  0  0  0  0  0  0  0  0  0  0
   16.8031    0.5510    0.0000 H   0  0  0  0  0  0  0  0  0  0  0  0
    5.2271    2.3135    0.0000 H   0  0  0  0  0  0  0  0  0  0  0  0
    4.8381    3.0993    0.0000 H   0  0  0  0  0  0  0  0  0  0  0  0
    4.0523    2.7103    0.0000 H   0  0  0  0  0  0  0  0  0  0  0  0
   16.3298   -1.7478    0.0000 H   0  0  0  0  0  0  0  0  0  0  0  0
   17.2055   -1.7034    0.0000 H   0  0  0  0  0  0  0  0  0  0  0  0
   17.1612   -0.8277    0.0000 H   0  0  0  0  0  0  0  0  0  0  0  0
    1.8688    0.7594    0.0000 H   0  0  0  0  0  0  0  0  0  0  0  0
    1.3940    0.0222    0.0000 H   0  0  0  0  0  0  0  0  0  0  0  0
    2.1312   -0.4525    0.0000 H   0  0  0  0  0  0  0  0  0  0  0  0
  1 27  2  0  0  0  0
  2 31  2  0  0  0  0
  3 10  1  0  0  0  0
  3 11  1  0  0  0  0
  3 12  1  0  0  0  0
  4 13  1  0  0  0  0
  4 14  1  0  0  0  0
  4 18  1  0  0  0  0
  5 17  1  0  0  0  0
  5 19  1  0  0  0  0
  5 20  1  0  0  0  0
  6 19  1  0  0  0  0
  6 21  1  0  0  0  0
  6 22  1  0  0  0  0
  7 19  2  0  0  0  0
  7 24  1  0  0  0  0
  8 24  1  0  0  0  0
  8 31  1  0  0  0  0
  8 33  1  0  0  0  0
  9 27  1  0  0  0  0
  9 31  1  0  0  0  0
  9 35  1  0  0  0  0
 10 13  1  0  0  0  0
 10 36  1  0  0  0  0
 10 37  1  0  0  0  0
 11 14  1  0  0  0  0
 11 38  1  0  0  0  0
 11 39  1  0  0  0  0
 12 15  1  0  0  0  0
 12 40  1  0  0  0  0
 12 41  1  0  0  0  0
 13 42  1  0  0  0  0
 13 43  1  0  0  0  0
 14 44  1  0  0  0  0
 14 45  1  0  0  0  0
 15 16  1  0  0  0  0
 15 46  1  0  0  0  0
 15 47  1  0  0  0  0
 16 17  1  0  0  0  0
 16 48  1  0  0  0  0
 16 49  1  0  0  0  0
 17 50  1  0  0  0  0
 17 51  1  0  0  0  0
 18 23  1  0  0  0  0
 18 25  2  0  0  0  0
 20 22  2  0  0  0  0
 20 26  1  0  0  0  0
 21 24  2  0  0  0  0
 21 27  1  0  0  0  0
 22 52  1  0  0  0  0
 23 28  2  0  0  0  0
 23 29  1  0  0  0  0
 25 30  1  0  0  0  0
 25 53  1  0  0  0  0
 26 54  1  0  0  0  0
 26 55  1  0  0  0  0
 26 56  1  0  0  0  0
 28 32  1  0  0  0  0
 28 34  1  0  0  0  0
 29 57  1  0  0  0  0
 29 58  1  0  0  0  0
 29 59  1  0  0  0  0
 30 32  2  0  0  0  0
 30 60  1  0  0  0  0
 32 61  1  0  0  0  0
 33 62  1  0  0  0  0
 33 63  1  0  0  0  0
 33 64  1  0  0  0  0
 34 65  1  0  0  0  0
 34 66  1  0  0  0  0
 34 67  1  0  0  0  0
 35 68  1  0  0  0  0
 35 69  1  0  0  0  0
 35 70  1  0  0  0  0
M  END
> <PUBCHEM_COMPOUND_CID>
118736375

> <PUBCHEM_COMPOUND_CANONICALIZED>
1

> <PUBCHEM_CACTVS_COMPLEXITY>
788

> <PUBCHEM_CACTVS_HBOND_ACCEPTOR>
5

> <PUBCHEM_CACTVS_HBOND_DONOR>
0

> <PUBCHEM_CACTVS_ROTATABLE_BOND>
6

> <PUBCHEM_CACTVS_SUBSKEYS>
AAADcfB7sAAAAAAAAAAAAAAAAAAAAWLAAAA8WIAAAAAWAFgB8AAAHgAAAAAADAjBngQ/8JcMGACoAzd3dACCgC03EqAJ2AG4dMiIaGrA2bGUIIhohyLIyGcQgIAOgAAAQAASAAAAAACAACQAAAAAAAAAAA==

> <PUBCHEM_IUPAC_OPENEYE_NAME>
6-[4-[4-(2,3-dimethylphenyl)piperazin-1-yl]butyl]-2,4,7-trimethyl-purino[7,8-a]imidazole-1,3-dione

> <PUBCHEM_IUPAC_CAS_NAME>
6-[4-[4-(2,3-dimethylphenyl)-1-piperazinyl]butyl]-2,4,7-trimethylpurino[7,8-a]imidazole-1,3-dione

> <PUBCHEM_IUPAC_NAME_MARKUP>
6-[4-[4-(2,3-dimethylphenyl)piperazin-1-yl]butyl]-2,4,7-trimethylpurino[7,8-a]imidazole-1,3-dione

> <PUBCHEM_IUPAC_NAME>
6-[4-[4-(2,3-dimethylphenyl)piperazin-1-yl]butyl]-2,4,7-trimethylpurino[7,8-a]imidazole-1,3-dione

> <PUBCHEM_IUPAC_SYSTEMATIC_NAME>
6-[4-[4-(2,3-dimethylphenyl)piperazin-1-yl]butyl]-2,4,7-trimethyl-purino[7,8-a]imidazole-1,3-dione

> <PUBCHEM_IUPAC_TRADITIONAL_NAME>
6-[4-[4-(2,3-dimethylphenyl)piperazino]butyl]-2,4,7-trimethyl-purin[7,8-a]imidazole-1,3-quinone

> <PUBCHEM_IUPAC_INCHI>
InChI=1S/C26H35N7O2/c1-18-9-8-10-21(20(18)3)31-15-13-30(14-16-31)11-6-7-12-32-19(2)17-33-22-23(27-25(32)33)28(4)26(35)29(5)24(22)34/h8-10,17H,6-7,11-16H2,1-5H3

> <PUBCHEM_IUPAC_INCHIKEY>
BGCTWVTVIOEIPP-UHFFFAOYSA-N

> <PUBCHEM_XLOGP3_AA>
3.9

> <PUBCHEM_EXACT_MASS>
477.28522338

> <PUBCHEM_MOLECULAR_FORMULA>
C26H35N7O2

> <PUBCHEM_MOLECULAR_WEIGHT>
477.6

> <PUBCHEM_OPENEYE_CAN_SMILES>
CC1=C(C(=CC=C1)N2CCN(CC2)CCCCN3C(=CN4C3=NC5=C4C(=O)N(C(=O)N5C)C)C)C

> <PUBCHEM_OPENEYE_ISO_SMILES>
CC1=C(C(=CC=C1)N2CCN(CC2)CCCCN3C(=CN4C3=NC5=C4C(=O)N(C(=O)N5C)C)C)C

> <PUBCHEM_CACTVS_TPSA>
69.3

> <PUBCHEM_MONOISOTOPIC_WEIGHT>
477.28522338

> <PUBCHEM_TOTAL_CHARGE>
0

> <PUBCHEM_HEAVY_ATOM_COUNT>
35

> <PUBCHEM_ATOM_DEF_STEREO_COUNT>
0

> <PUBCHEM_ATOM_UDEF_STEREO_COUNT>
0

> <PUBCHEM_BOND_DEF_STEREO_COUNT>
0

> <PUBCHEM_BOND_UDEF_STEREO_COUNT>
0

> <PUBCHEM_ISOTOPIC_ATOM_COUNT>
0

> <PUBCHEM_COMPONENT_COUNT>
1

> <PUBCHEM_CACTVS_TAUTO_COUNT>
-1

> <PUBCHEM_COORDINATE_TYPE>
1
5
255

> <PUBCHEM_BONDANNOTATIONS>
18  23  8
18  25  8
20  22  8
21  24  8
21  27  8
23  28  8
25  30  8
28  32  8
30  32  8
5  19  8
5  20  8
6  19  8
6  21  8
6  22  8
7  19  8
7  24  8
8  24  8
8  31  8
9  27  8
9  31  8

$$$$
