49798854
  -OEChem-09292322302D

 61 64  0     1  0  0  0  0  0999 V2000
    7.2578    5.6036    0.0000 O   0  0  0  0  0  0  0  0  0  0  0  0
    3.1472    4.9228    0.0000 O   0  0  0  0  0  0  0  0  0  0  0  0
    6.2133    1.0000    0.0000 O   0  0  0  0  0  0  0  0  0  0  0  0
    3.6152    1.5000    0.0000 O   0  0  0  0  0  0  0  0  0  0  0  0
    5.3473    2.5000    0.0000 O   0  0  0  0  0  0  0  0  0  0  0  0
    4.4813    0.0000    0.0000 O   0  0  0  0  0  0  0  0  0  0  0  0
    7.5669    8.1727    0.0000 N   0  0  3  0  0  0  0  0  0  0  0  0
    4.9791    7.3636    0.0000 N   0  0  0  0  0  0  0  0  0  0  0  0
    8.5179    6.8636    0.0000 N   0  0  0  0  0  0  0  0  0  0  0  0
    6.9791    7.3636    0.0000 C   0  0  0  0  0  0  0  0  0  0  0  0
    6.4791    8.2297    0.0000 C   0  0  0  0  0  0  0  0  0  0  0  0
    6.4791    6.4976    0.0000 C   0  0  0  0  0  0  0  0  0  0  0  0
    5.4791    8.2297    0.0000 C   0  0  0  0  0  0  0  0  0  0  0  0
    5.4791    6.4976    0.0000 C   0  0  0  0  0  0  0  0  0  0  0  0
    7.5669    6.5546    0.0000 C   0  0  0  0  0  0  0  0  0  0  0  0
    8.5179    7.8636    0.0000 C   0  0  0  0  0  0  0  0  0  0  0  0
    7.2578    9.1237    0.0000 C   0  0  0  0  0  0  0  0  0  0  0  0
    3.9791    7.3636    0.0000 C   0  0  0  0  0  0  0  0  0  0  0  0
    9.3270    6.2759    0.0000 C   0  0  0  0  0  0  0  0  0  0  0  0
    3.4791    6.4976    0.0000 C   0  0  0  0  0  0  0  0  0  0  0  0
    7.9270    9.8669    0.0000 C   0  0  0  0  0  0  0  0  0  0  0  0
    6.2797    9.3316    0.0000 C   0  0  0  0  0  0  0  0  0  0  0  0
    2.4904    6.3946    0.0000 C   0  0  0  0  0  0  0  0  0  0  0  0
    3.8842    5.5898    0.0000 C   0  0  0  0  0  0  0  0  0  0  0  0
    7.6180   10.8179    0.0000 C   0  0  0  0  0  0  0  0  0  0  0  0
    5.9707   10.2827    0.0000 C   0  0  0  0  0  0  0  0  0  0  0  0
    2.2841    5.4161    0.0000 C   0  0  0  0  0  0  0  0  0  0  0  0
    6.6398   11.0258    0.0000 C   0  0  0  0  0  0  0  0  0  0  0  0
    1.7461    7.0624    0.0000 C   0  0  0  0  0  0  0  0  0  0  0  0
    1.3336    5.1054    0.0000 C   0  0  0  0  0  0  0  0  0  0  0  0
    0.7955    6.7517    0.0000 C   0  0  0  0  0  0  0  0  0  0  0  0
    0.5893    5.7732    0.0000 C   0  0  0  0  0  0  0  0  0  0  0  0
    5.3473    1.5000    0.0000 C   0  0  0  0  0  0  0  0  0  0  0  0
    4.4813    1.0000    0.0000 C   0  0  0  0  0  0  0  0  0  0  0  0
    7.0617    8.4417    0.0000 H   0  0  0  0  0  0  0  0  0  0  0  0
    6.3714    8.8402    0.0000 H   0  0  0  0  0  0  0  0  0  0  0  0
    6.3714    5.8870    0.0000 H   0  0  0  0  0  0  0  0  0  0  0  0
    7.0617    6.2856    0.0000 H   0  0  0  0  0  0  0  0  0  0  0  0
    5.5868    8.8402    0.0000 H   0  0  0  0  0  0  0  0  0  0  0  0
    4.8965    8.4417    0.0000 H   0  0  0  0  0  0  0  0  0  0  0  0
    4.8965    6.2856    0.0000 H   0  0  0  0  0  0  0  0  0  0  0  0
    5.5868    5.8870    0.0000 H   0  0  0  0  0  0  0  0  0  0  0  0
    9.1345    7.7988    0.0000 H   0  0  0  0  0  0  0  0  0  0  0  0
    8.6468    8.4701    0.0000 H   0  0  0  0  0  0  0  0  0  0  0  0
    4.0868    7.9742    0.0000 H   0  0  0  0  0  0  0  0  0  0  0  0
    3.3965    7.5757    0.0000 H   0  0  0  0  0  0  0  0  0  0  0  0
    8.9625    5.7743    0.0000 H   0  0  0  0  0  0  0  0  0  0  0  0
    9.8285    5.9114    0.0000 H   0  0  0  0  0  0  0  0  0  0  0  0
    9.6914    6.7774    0.0000 H   0  0  0  0  0  0  0  0  0  0  0  0
    8.5334    9.7380    0.0000 H   0  0  0  0  0  0  0  0  0  0  0  0
    5.8648    8.8709    0.0000 H   0  0  0  0  0  0  0  0  0  0  0  0
    4.4909    5.4620    0.0000 H   0  0  0  0  0  0  0  0  0  0  0  0
    8.0328   11.2787    0.0000 H   0  0  0  0  0  0  0  0  0  0  0  0
    5.3642   10.4116    0.0000 H   0  0  0  0  0  0  0  0  0  0  0  0
    6.4482   11.6155    0.0000 H   0  0  0  0  0  0  0  0  0  0  0  0
    1.8739    7.6691    0.0000 H   0  0  0  0  0  0  0  0  0  0  0  0
    1.2058    4.4987    0.0000 H   0  0  0  0  0  0  0  0  0  0  0  0
    0.3341    7.1658    0.0000 H   0  0  0  0  0  0  0  0  0  0  0  0
    0.0000    5.5806    0.0000 H   0  0  0  0  0  0  0  0  0  0  0  0
    6.7502    1.3100    0.0000 H   0  0  0  0  0  0  0  0  0  0  0  0
    3.0783    1.1900    0.0000 H   0  0  0  0  0  0  0  0  0  0  0  0
  1 15  2  0  0  0  0
  2 24  1  0  0  0  0
  2 27  1  0  0  0  0
  3 33  1  0  0  0  0
  3 60  1  0  0  0  0
  4 34  1  0  0  0  0
  4 61  1  0  0  0  0
  5 33  2  0  0  0  0
  6 34  2  0  0  0  0
  7 10  1  0  0  0  0
  7 16  1  0  0  0  0
  7 17  1  0  0  0  0
  8 13  1  0  0  0  0
  8 14  1  0  0  0  0
  8 18  1  0  0  0  0
  9 15  1  0  0  0  0
  9 16  1  0  0  0  0
  9 19  1  0  0  0  0
 10 11  1  0  0  0  0
 10 12  1  0  0  0  0
 10 15  1  0  0  0  0
 11 13  1  0  0  0  0
 11 35  1  0  0  0  0
 11 36  1  0  0  0  0
 12 14  1  0  0  0  0
 12 37  1  0  0  0  0
 12 38  1  0  0  0  0
 13 39  1  0  0  0  0
 13 40  1  0  0  0  0
 14 41  1  0  0  0  0
 14 42  1  0  0  0  0
 16 43  1  0  0  0  0
 16 44  1  0  0  0  0
 17 21  2  0  0  0  0
 17 22  1  0  0  0  0
 18 20  1  0  0  0  0
 18 45  1  0  0  0  0
 18 46  1  0  0  0  0
 19 47  1  0  0  0  0
 19 48  1  0  0  0  0
 19 49  1  0  0  0  0
 20 23  1  0  0  0  0
 20 24  2  0  0  0  0
 21 25  1  0  0  0  0
 21 50  1  0  0  0  0
 22 26  2  0  0  0  0
 22 51  1  0  0  0  0
 23 27  1  0  0  0  0
 23 29  2  0  0  0  0
 24 52  1  0  0  0  0
 25 28  2  0  0  0  0
 25 53  1  0  0  0  0
 26 28  1  0  0  0  0
 26 54  1  0  0  0  0
 27 30  2  0  0  0  0
 28 55  1  0  0  0  0
 29 31  1  0  0  0  0
 29 56  1  0  0  0  0
 30 32  1  0  0  0  0
 30 57  1  0  0  0  0
 31 32  2  0  0  0  0
 31 58  1  0  0  0  0
 32 59  1  0  0  0  0
 33 34  1  0  0  0  0
M  END
> <PUBCHEM_COMPOUND_CID>
49798854

> <PUBCHEM_COMPOUND_CANONICALIZED>
1

> <PUBCHEM_CACTVS_COMPLEXITY>
640

> <PUBCHEM_CACTVS_HBOND_ACCEPTOR>
8

> <PUBCHEM_CACTVS_HBOND_DONOR>
2

> <PUBCHEM_CACTVS_ROTATABLE_BOND>
4

> <PUBCHEM_CACTVS_SUBSKEYS>
AAADceB7OAAAAAAAAAAAAAAAAAAAAWJAAAA8YIAAAAAAAEgB9AAAHgAACAAADIzhmAYzzsMABkCIAq3S2AKCCAAlIgAIiAHObMiNZjrE9buWOSjuwxPJ6ae8yOCOgAAAAAAIAAAAAAAAABAAAAAAAAAAAA==

> <PUBCHEM_IUPAC_OPENEYE_NAME>
8-(benzofuran-3-ylmethyl)-3-methyl-1-phenyl-1,3,8-triazaspiro[4.5]decan-4-one;oxalic acid

> <PUBCHEM_IUPAC_CAS_NAME>
8-(3-benzofuranylmethyl)-3-methyl-1-phenyl-1,3,8-triazaspiro[4.5]decan-4-one;oxalic acid

> <PUBCHEM_IUPAC_NAME_MARKUP>
8-(1-benzofuran-3-ylmethyl)-3-methyl-1-phenyl-1,3,8-triazaspiro[4.5]decan-4-one;oxalic acid

> <PUBCHEM_IUPAC_NAME>
8-(1-benzofuran-3-ylmethyl)-3-methyl-1-phenyl-1,3,8-triazaspiro[4.5]decan-4-one;oxalic acid

> <PUBCHEM_IUPAC_SYSTEMATIC_NAME>
8-(1-benzofuran-3-ylmethyl)-3-methyl-1-phenyl-1,3,8-triazaspiro[4.5]decan-4-one;ethanedioic acid

> <PUBCHEM_IUPAC_TRADITIONAL_NAME>
8-(benzofuran-3-ylmethyl)-3-methyl-1-phenyl-1,3,8-triazaspiro[4.5]decan-4-one;oxalic acid

> <PUBCHEM_IUPAC_INCHI>
InChI=1S/C23H25N3O2.C2H2O4/c1-24-17-26(19-7-3-2-4-8-19)23(22(24)27)11-13-25(14-12-23)15-18-16-28-21-10-6-5-9-20(18)21;3-1(4)2(5)6/h2-10,16H,11-15,17H2,1H3;(H,3,4)(H,5,6)

> <PUBCHEM_IUPAC_INCHIKEY>
FOWVNXKPUJRXEJ-UHFFFAOYSA-N

> <PUBCHEM_EXACT_MASS>
465.18998559

> <PUBCHEM_MOLECULAR_FORMULA>
C25H27N3O6

> <PUBCHEM_MOLECULAR_WEIGHT>
465.5

> <PUBCHEM_OPENEYE_CAN_SMILES>
CN1CN(C2(C1=O)CCN(CC2)CC3=COC4=CC=CC=C43)C5=CC=CC=C5.C(=O)(C(=O)O)O

> <PUBCHEM_OPENEYE_ISO_SMILES>
CN1CN(C2(C1=O)CCN(CC2)CC3=COC4=CC=CC=C43)C5=CC=CC=C5.C(=O)(C(=O)O)O

> <PUBCHEM_CACTVS_TPSA>
115

> <PUBCHEM_MONOISOTOPIC_WEIGHT>
465.18998559

> <PUBCHEM_TOTAL_CHARGE>
0

> <PUBCHEM_HEAVY_ATOM_COUNT>
34

> <PUBCHEM_ATOM_DEF_STEREO_COUNT>
0

> <PUBCHEM_ATOM_UDEF_STEREO_COUNT>
0

> <PUBCHEM_BOND_DEF_STEREO_COUNT>
0

> <PUBCHEM_BOND_UDEF_STEREO_COUNT>
0

> <PUBCHEM_ISOTOPIC_ATOM_COUNT>
0

> <PUBCHEM_COMPONENT_COUNT>
2

> <PUBCHEM_CACTVS_TAUTO_COUNT>
-1

> <PUBCHEM_COORDINATE_TYPE>
1
5
255

> <PUBCHEM_BONDANNOTATIONS>
17  21  8
17  22  8
2  24  8
2  27  8
20  23  8
20  24  8
21  25  8
22  26  8
23  27  8
23  29  8
25  28  8
26  28  8
27  30  8
29  31  8
30  32  8
31  32  8

$$$$
