23631366
  -OEChem-09292322252D

 65 69  0     1  0  0  0  0  0999 V2000
    7.7749   -1.0134    0.0000 S   0  0  0  0  0  0  0  0  0  0  0  0
   17.2110    2.0853    0.0000 O   0  0  0  0  0  0  0  0  0  0  0  0
   10.7749    0.7187    0.0000 N   0  0  3  0  0  0  0  0  0  0  0  0
   16.5448    1.3396    0.0000 N   0  0  0  0  0  0  0  0  0  0  0  0
    6.1871   -1.8224    0.0000 N   0  0  0  0  0  0  0  0  0  0  0  0
    6.1871   -0.2044    0.0000 N   0  0  0  0  0  0  0  0  0  0  0  0
    5.2361   -0.5134    0.0000 N   0  0  0  0  0  0  0  0  0  0  0  0
   11.2088    1.6196    0.0000 C   0  0  0  0  0  0  0  0  0  0  0  0
   11.2088   -0.1823    0.0000 C   0  0  0  0  0  0  0  0  0  0  0  0
   12.1837    1.8422    0.0000 C   0  0  0  0  0  0  0  0  0  0  0  0
   12.1837   -0.4048    0.0000 C   0  0  0  0  0  0  0  0  0  0  0  0
   12.9656    1.2187    0.0000 C   0  0  0  0  0  0  0  0  0  0  0  0
   12.9656    0.2187    0.0000 C   0  0  0  0  0  0  0  0  0  0  0  0
    9.7749    0.7187    0.0000 C   0  0  0  0  0  0  0  0  0  0  0  0
    9.2749   -0.1474    0.0000 C   0  0  0  0  0  0  0  0  0  0  0  0
   13.8595    1.7533    0.0000 C   0  0  0  0  0  0  0  0  0  0  0  0
   13.8595   -0.3160    0.0000 C   0  0  0  0  0  0  0  0  0  0  0  0
   14.7656    1.2395    0.0000 C   0  0  0  0  0  0  0  0  0  0  0  0
    8.2749   -0.1474    0.0000 C   0  0  0  0  0  0  0  0  0  0  0  0
   14.7656    0.1979    0.0000 C   0  0  0  0  0  0  0  0  0  0  0  0
   15.6297    1.7428    0.0000 C   0  0  0  0  0  0  0  0  0  0  0  0
   15.7303    2.7377    0.0000 C   0  0  0  0  0  0  0  0  0  0  0  0
    6.7749   -1.0134    0.0000 C   0  0  0  0  0  0  0  0  0  0  0  0
   16.7077    2.9494    0.0000 C   0  0  0  0  0  0  0  0  0  0  0  0
    5.2361   -1.5134    0.0000 C   0  0  0  0  0  0  0  0  0  0  0  0
    4.4271   -2.1012    0.0000 C   0  0  0  0  0  0  0  0  0  0  0  0
    6.4961   -2.7735    0.0000 C   0  0  0  0  0  0  0  0  0  0  0  0
   17.1109    3.8645    0.0000 C   0  0  0  0  0  0  0  0  0  0  0  0
    3.5135   -1.6944    0.0000 C   0  0  0  0  0  0  0  0  0  0  0  0
    4.5316   -3.0957    0.0000 C   0  0  0  0  0  0  0  0  0  0  0  0
    2.8090   -3.2767    0.0000 C   0  0  0  0  0  0  0  0  0  0  0  0
    2.7045   -2.2822    0.0000 C   0  0  0  0  0  0  0  0  0  0  0  0
    3.7226   -3.6835    0.0000 C   0  0  0  0  0  0  0  0  0  0  0  0
    2.0000   -3.8645    0.0000 C   0  0  0  0  0  0  0  0  0  0  0  0
   11.2088    2.2396    0.0000 H   0  0  0  0  0  0  0  0  0  0  0  0
   10.6043    1.7576    0.0000 H   0  0  0  0  0  0  0  0  0  0  0  0
   10.6043   -0.3203    0.0000 H   0  0  0  0  0  0  0  0  0  0  0  0
   11.2088   -0.8023    0.0000 H   0  0  0  0  0  0  0  0  0  0  0  0
   12.6685    2.2287    0.0000 H   0  0  0  0  0  0  0  0  0  0  0  0
   11.9147    2.4008    0.0000 H   0  0  0  0  0  0  0  0  0  0  0  0
   11.9147   -0.9634    0.0000 H   0  0  0  0  0  0  0  0  0  0  0  0
   12.6685   -0.7914    0.0000 H   0  0  0  0  0  0  0  0  0  0  0  0
    9.8826    1.3292    0.0000 H   0  0  0  0  0  0  0  0  0  0  0  0
    9.1923    0.9307    0.0000 H   0  0  0  0  0  0  0  0  0  0  0  0
    9.1672   -0.7579    0.0000 H   0  0  0  0  0  0  0  0  0  0  0  0
    9.8575   -0.3594    0.0000 H   0  0  0  0  0  0  0  0  0  0  0  0
   13.8523    2.3733    0.0000 H   0  0  0  0  0  0  0  0  0  0  0  0
   13.8523   -0.9360    0.0000 H   0  0  0  0  0  0  0  0  0  0  0  0
    8.3826    0.4632    0.0000 H   0  0  0  0  0  0  0  0  0  0  0  0
    7.6923    0.0647    0.0000 H   0  0  0  0  0  0  0  0  0  0  0  0
   15.3013   -0.1142    0.0000 H   0  0  0  0  0  0  0  0  0  0  0  0
   15.2680    3.1508    0.0000 H   0  0  0  0  0  0  0  0  0  0  0  0
    5.9065   -2.9651    0.0000 H   0  0  0  0  0  0  0  0  0  0  0  0
    6.6877   -3.3631    0.0000 H   0  0  0  0  0  0  0  0  0  0  0  0
    7.0858   -2.5819    0.0000 H   0  0  0  0  0  0  0  0  0  0  0  0
   17.6783    3.6145    0.0000 H   0  0  0  0  0  0  0  0  0  0  0  0
   17.3609    4.4319    0.0000 H   0  0  0  0  0  0  0  0  0  0  0  0
   16.5435    4.1145    0.0000 H   0  0  0  0  0  0  0  0  0  0  0  0
    3.4487   -1.0778    0.0000 H   0  0  0  0  0  0  0  0  0  0  0  0
    5.0980   -3.3479    0.0000 H   0  0  0  0  0  0  0  0  0  0  0  0
    2.1381   -2.0300    0.0000 H   0  0  0  0  0  0  0  0  0  0  0  0
    3.7874   -4.3001    0.0000 H   0  0  0  0  0  0  0  0  0  0  0  0
    1.6356   -3.3629    0.0000 H   0  0  0  0  0  0  0  0  0  0  0  0
    1.4984   -4.2290    0.0000 H   0  0  0  0  0  0  0  0  0  0  0  0
    2.3644   -4.3661    0.0000 H   0  0  0  0  0  0  0  0  0  0  0  0
  1 19  1  0  0  0  0
  1 23  1  0  0  0  0
  2  4  1  0  0  0  0
  2 24  1  0  0  0  0
  3  8  1  0  0  0  0
  3  9  1  0  0  0  0
  3 14  1  0  0  0  0
  4 21  2  0  0  0  0
  5 23  1  0  0  0  0
  5 25  1  0  0  0  0
  5 27  1  0  0  0  0
  6  7  1  0  0  0  0
  6 23  2  0  0  0  0
  7 25  2  0  0  0  0
  8 10  1  0  0  0  0
  8 35  1  0  0  0  0
  8 36  1  0  0  0  0
  9 11  1  0  0  0  0
  9 37  1  0  0  0  0
  9 38  1  0  0  0  0
 10 12  1  0  0  0  0
 10 39  1  0  0  0  0
 10 40  1  0  0  0  0
 11 13  1  0  0  0  0
 11 41  1  0  0  0  0
 11 42  1  0  0  0  0
 12 13  2  0  0  0  0
 12 16  1  0  0  0  0
 13 17  1  0  0  0  0
 14 15  1  0  0  0  0
 14 43  1  0  0  0  0
 14 44  1  0  0  0  0
 15 19  1  0  0  0  0
 15 45  1  0  0  0  0
 15 46  1  0  0  0  0
 16 18  2  0  0  0  0
 16 47  1  0  0  0  0
 17 20  2  0  0  0  0
 17 48  1  0  0  0  0
 18 20  1  0  0  0  0
 18 21  1  0  0  0  0
 19 49  1  0  0  0  0
 19 50  1  0  0  0  0
 20 51  1  0  0  0  0
 21 22  1  0  0  0  0
 22 24  2  0  0  0  0
 22 52  1  0  0  0  0
 24 28  1  0  0  0  0
 25 26  1  0  0  0  0
 26 29  2  0  0  0  0
 26 30  1  0  0  0  0
 27 53  1  0  0  0  0
 27 54  1  0  0  0  0
 27 55  1  0  0  0  0
 28 56  1  0  0  0  0
 28 57  1  0  0  0  0
 28 58  1  0  0  0  0
 29 32  1  0  0  0  0
 29 59  1  0  0  0  0
 30 33  2  0  0  0  0
 30 60  1  0  0  0  0
 31 32  2  0  0  0  0
 31 33  1  0  0  0  0
 31 34  1  0  0  0  0
 32 61  1  0  0  0  0
 33 62  1  0  0  0  0
 34 63  1  0  0  0  0
 34 64  1  0  0  0  0
 34 65  1  0  0  0  0
M  END
> <PUBCHEM_COMPOUND_CID>
23631366

> <PUBCHEM_COMPOUND_CANONICALIZED>
1

> <PUBCHEM_CACTVS_COMPLEXITY>
632

> <PUBCHEM_CACTVS_HBOND_ACCEPTOR>
6

> <PUBCHEM_CACTVS_HBOND_DONOR>
0

> <PUBCHEM_CACTVS_ROTATABLE_BOND>
7

> <PUBCHEM_CACTVS_SUBSKEYS>
AAADceB7oABAAAAAAAAAAAAAAAAAAWLAAAAwYAAABYAAAAAB9AAAHgQMAAAADAzF3wSzlJccEAirA6ZyZgCS0AtkIrA92CE+bNqILrqgmZOEMYhmiBqIyUeYyOCOwAACAAAQAACAAAQAACAAAAAAAAAAAA==

> <PUBCHEM_IUPAC_OPENEYE_NAME>
5-methyl-3-[3-[3-[[4-methyl-5-(p-tolyl)-1,2,4-triazol-3-yl]sulfanyl]propyl]-1,2,4,5-tetrahydro-3-benzazepin-7-yl]isoxazole

> <PUBCHEM_IUPAC_CAS_NAME>
5-methyl-3-[3-[3-[[4-methyl-5-(4-methylphenyl)-1,2,4-triazol-3-yl]thio]propyl]-1,2,4,5-tetrahydro-3-benzazepin-7-yl]isoxazole

> <PUBCHEM_IUPAC_NAME_MARKUP>
5-methyl-3-[3-[3-[[4-methyl-5-(4-methylphenyl)-1,2,4-triazol-3-yl]sulfanyl]propyl]-1,2,4,5-tetrahydro-3-benzazepin-7-yl]-1,2-oxazole

> <PUBCHEM_IUPAC_NAME>
5-methyl-3-[3-[3-[[4-methyl-5-(4-methylphenyl)-1,2,4-triazol-3-yl]sulfanyl]propyl]-1,2,4,5-tetrahydro-3-benzazepin-7-yl]-1,2-oxazole

> <PUBCHEM_IUPAC_SYSTEMATIC_NAME>
5-methyl-3-[3-[3-[[4-methyl-5-(4-methylphenyl)-1,2,4-triazol-3-yl]sulfanyl]propyl]-1,2,4,5-tetrahydro-3-benzazepin-7-yl]-1,2-oxazole

> <PUBCHEM_IUPAC_TRADITIONAL_NAME>
5-methyl-3-[3-[3-[[4-methyl-5-(p-tolyl)-1,2,4-triazol-3-yl]thio]propyl]-1,2,4,5-tetrahydro-3-benzazepin-7-yl]isoxazole

> <PUBCHEM_IUPAC_INCHI>
InChI=1S/C27H31N5OS/c1-19-5-7-22(8-6-19)26-28-29-27(31(26)3)34-16-4-13-32-14-11-21-9-10-24(18-23(21)12-15-32)25-17-20(2)33-30-25/h5-10,17-18H,4,11-16H2,1-3H3

> <PUBCHEM_IUPAC_INCHIKEY>
YGDMWGYWZVBWDP-UHFFFAOYSA-N

> <PUBCHEM_XLOGP3_AA>
5.2

> <PUBCHEM_EXACT_MASS>
473.22493180

> <PUBCHEM_MOLECULAR_FORMULA>
C27H31N5OS

> <PUBCHEM_MOLECULAR_WEIGHT>
473.6

> <PUBCHEM_OPENEYE_CAN_SMILES>
CC1=CC=C(C=C1)C2=NN=C(N2C)SCCCN3CCC4=C(CC3)C=C(C=C4)C5=NOC(=C5)C

> <PUBCHEM_OPENEYE_ISO_SMILES>
CC1=CC=C(C=C1)C2=NN=C(N2C)SCCCN3CCC4=C(CC3)C=C(C=C4)C5=NOC(=C5)C

> <PUBCHEM_CACTVS_TPSA>
85.3

> <PUBCHEM_MONOISOTOPIC_WEIGHT>
473.22493180

> <PUBCHEM_TOTAL_CHARGE>
0

> <PUBCHEM_HEAVY_ATOM_COUNT>
34

> <PUBCHEM_ATOM_DEF_STEREO_COUNT>
0

> <PUBCHEM_ATOM_UDEF_STEREO_COUNT>
0

> <PUBCHEM_BOND_DEF_STEREO_COUNT>
0

> <PUBCHEM_BOND_UDEF_STEREO_COUNT>
0

> <PUBCHEM_ISOTOPIC_ATOM_COUNT>
0

> <PUBCHEM_COMPONENT_COUNT>
1

> <PUBCHEM_CACTVS_TAUTO_COUNT>
-1

> <PUBCHEM_COORDINATE_TYPE>
1
5
255

> <PUBCHEM_BONDANNOTATIONS>
12  13  8
12  16  8
13  17  8
16  18  8
17  20  8
18  20  8
2  24  8
2  4  8
21  22  8
22  24  8
26  29  8
26  30  8
29  32  8
30  33  8
31  32  8
31  33  8
4  21  8
5  23  8
5  25  8
6  23  8
6  7  8
7  25  8

$$$$
