49864336
  -OEChem-09292322302D

 63 66  0     0  0  0  0  0  0999 V2000
   11.5263   -1.4400    0.0000 S   0  0  0  0  0  0  0  0  0  0  0  0
    4.5981    1.5600    0.0000 O   0  0  0  0  0  0  0  0  0  0  0  0
   11.0263   -0.5740    0.0000 O   0  0  0  0  0  0  0  0  0  0  0  0
   12.0263   -2.3060    0.0000 O   0  0  0  0  0  0  0  0  0  0  0  0
    6.3301   -1.4400    0.0000 N   0  0  0  0  0  0  0  0  0  0  0  0
    4.5981   -0.4400    0.0000 N   0  0  0  0  0  0  0  0  0  0  0  0
   10.6603   -1.9400    0.0000 N   0  0  0  0  0  0  0  0  0  0  0  0
    6.3301   -0.4400    0.0000 C   0  0  0  0  0  0  0  0  0  0  0  0
    5.4641   -1.9400    0.0000 C   0  0  0  0  0  0  0  0  0  0  0  0
    5.4641    0.0600    0.0000 C   0  0  0  0  0  0  0  0  0  0  0  0
    4.5981   -1.4400    0.0000 C   0  0  0  0  0  0  0  0  0  0  0  0
    7.1962   -1.9400    0.0000 C   0  0  0  0  0  0  0  0  0  0  0  0
    8.0622   -1.4400    0.0000 C   0  0  0  0  0  0  0  0  0  0  0  0
    8.9282   -1.9400    0.0000 C   0  0  0  0  0  0  0  0  0  0  0  0
    3.7320    0.0600    0.0000 C   0  0  0  0  0  0  0  0  0  0  0  0
    9.7942   -1.4400    0.0000 C   0  0  0  0  0  0  0  0  0  0  0  0
    3.7320    1.0600    0.0000 C   0  0  0  0  0  0  0  0  0  0  0  0
    2.8660   -0.4400    0.0000 C   0  0  0  0  0  0  0  0  0  0  0  0
    2.8660    1.5600    0.0000 C   0  0  0  0  0  0  0  0  0  0  0  0
    2.0000    0.0600    0.0000 C   0  0  0  0  0  0  0  0  0  0  0  0
   12.3923   -0.9400    0.0000 C   0  0  0  0  0  0  0  0  0  0  0  0
    2.0000    1.0600    0.0000 C   0  0  0  0  0  0  0  0  0  0  0  0
   13.2583   -1.4400    0.0000 C   0  0  0  0  0  0  0  0  0  0  0  0
   12.3923    0.0600    0.0000 C   0  0  0  0  0  0  0  0  0  0  0  0
   14.1244   -0.9400    0.0000 C   0  0  0  0  0  0  0  0  0  0  0  0
   14.1244    0.0600    0.0000 C   0  0  0  0  0  0  0  0  0  0  0  0
   13.2583    0.5600    0.0000 C   0  0  0  0  0  0  0  0  0  0  0  0
    4.5981    2.5600    0.0000 C   0  0  0  0  0  0  0  0  0  0  0  0
   15.0183   -1.4747    0.0000 C   0  0  0  0  0  0  0  0  0  0  0  0
   15.0183    0.5947    0.0000 C   0  0  0  0  0  0  0  0  0  0  0  0
   15.9244   -0.9608    0.0000 C   0  0  0  0  0  0  0  0  0  0  0  0
   15.9244    0.0808    0.0000 C   0  0  0  0  0  0  0  0  0  0  0  0
    6.9407   -0.5477    0.0000 H   0  0  0  0  0  0  0  0  0  0  0  0
    6.5422    0.1426    0.0000 H   0  0  0  0  0  0  0  0  0  0  0  0
    5.0656   -2.4150    0.0000 H   0  0  0  0  0  0  0  0  0  0  0  0
    5.8626   -2.4150    0.0000 H   0  0  0  0  0  0  0  0  0  0  0  0
    5.8626    0.5349    0.0000 H   0  0  0  0  0  0  0  0  0  0  0  0
    5.0656    0.5349    0.0000 H   0  0  0  0  0  0  0  0  0  0  0  0
    3.9875   -1.3323    0.0000 H   0  0  0  0  0  0  0  0  0  0  0  0
    4.3860   -2.0226    0.0000 H   0  0  0  0  0  0  0  0  0  0  0  0
    6.7976   -2.4150    0.0000 H   0  0  0  0  0  0  0  0  0  0  0  0
    7.5947   -2.4150    0.0000 H   0  0  0  0  0  0  0  0  0  0  0  0
    8.4607   -0.9651    0.0000 H   0  0  0  0  0  0  0  0  0  0  0  0
    7.6636   -0.9651    0.0000 H   0  0  0  0  0  0  0  0  0  0  0  0
    8.5297   -2.4150    0.0000 H   0  0  0  0  0  0  0  0  0  0  0  0
    9.3267   -2.4150    0.0000 H   0  0  0  0  0  0  0  0  0  0  0  0
   10.1928   -0.9651    0.0000 H   0  0  0  0  0  0  0  0  0  0  0  0
    9.3957   -0.9651    0.0000 H   0  0  0  0  0  0  0  0  0  0  0  0
    2.8660   -1.0600    0.0000 H   0  0  0  0  0  0  0  0  0  0  0  0
   10.6603   -2.5600    0.0000 H   0  0  0  0  0  0  0  0  0  0  0  0
    2.8660    2.1800    0.0000 H   0  0  0  0  0  0  0  0  0  0  0  0
    1.4631   -0.2500    0.0000 H   0  0  0  0  0  0  0  0  0  0  0  0
    1.4631    1.3700    0.0000 H   0  0  0  0  0  0  0  0  0  0  0  0
   13.2583   -2.0600    0.0000 H   0  0  0  0  0  0  0  0  0  0  0  0
   11.8554    0.3700    0.0000 H   0  0  0  0  0  0  0  0  0  0  0  0
   13.2583    1.1800    0.0000 H   0  0  0  0  0  0  0  0  0  0  0  0
    5.2181    2.5600    0.0000 H   0  0  0  0  0  0  0  0  0  0  0  0
    4.5981    3.1800    0.0000 H   0  0  0  0  0  0  0  0  0  0  0  0
    3.9781    2.5600    0.0000 H   0  0  0  0  0  0  0  0  0  0  0  0
   15.0111   -2.0946    0.0000 H   0  0  0  0  0  0  0  0  0  0  0  0
   15.0111    1.2146    0.0000 H   0  0  0  0  0  0  0  0  0  0  0  0
   16.4601   -1.2729    0.0000 H   0  0  0  0  0  0  0  0  0  0  0  0
   16.4601    0.3929    0.0000 H   0  0  0  0  0  0  0  0  0  0  0  0
  1  3  2  0  0  0  0
  1  4  2  0  0  0  0
  1  7  1  0  0  0  0
  1 21  1  0  0  0  0
  2 17  1  0  0  0  0
  2 28  1  0  0  0  0
  5  8  1  0  0  0  0
  5  9  1  0  0  0  0
  5 12  1  0  0  0  0
  6 10  1  0  0  0  0
  6 11  1  0  0  0  0
  6 15  1  0  0  0  0
  7 16  1  0  0  0  0
  7 50  1  0  0  0  0
  8 10  1  0  0  0  0
  8 33  1  0  0  0  0
  8 34  1  0  0  0  0
  9 11  1  0  0  0  0
  9 35  1  0  0  0  0
  9 36  1  0  0  0  0
 10 37  1  0  0  0  0
 10 38  1  0  0  0  0
 11 39  1  0  0  0  0
 11 40  1  0  0  0  0
 12 13  1  0  0  0  0
 12 41  1  0  0  0  0
 12 42  1  0  0  0  0
 13 14  1  0  0  0  0
 13 43  1  0  0  0  0
 13 44  1  0  0  0  0
 14 16  1  0  0  0  0
 14 45  1  0  0  0  0
 14 46  1  0  0  0  0
 15 17  1  0  0  0  0
 15 18  2  0  0  0  0
 16 47  1  0  0  0  0
 16 48  1  0  0  0  0
 17 19  2  0  0  0  0
 18 20  1  0  0  0  0
 18 49  1  0  0  0  0
 19 22  1  0  0  0  0
 19 51  1  0  0  0  0
 20 22  2  0  0  0  0
 20 52  1  0  0  0  0
 21 23  2  0  0  0  0
 21 24  1  0  0  0  0
 22 53  1  0  0  0  0
 23 25  1  0  0  0  0
 23 54  1  0  0  0  0
 24 27  2  0  0  0  0
 24 55  1  0  0  0  0
 25 26  1  0  0  0  0
 25 29  2  0  0  0  0
 26 27  1  0  0  0  0
 26 30  2  0  0  0  0
 27 56  1  0  0  0  0
 28 57  1  0  0  0  0
 28 58  1  0  0  0  0
 28 59  1  0  0  0  0
 29 31  1  0  0  0  0
 29 60  1  0  0  0  0
 30 32  1  0  0  0  0
 30 61  1  0  0  0  0
 31 32  2  0  0  0  0
 31 62  1  0  0  0  0
 32 63  1  0  0  0  0
M  END
> <PUBCHEM_COMPOUND_CID>
49864336

> <PUBCHEM_COMPOUND_CANONICALIZED>
1

> <PUBCHEM_CACTVS_COMPLEXITY>
660

> <PUBCHEM_CACTVS_HBOND_ACCEPTOR>
6

> <PUBCHEM_CACTVS_HBOND_DONOR>
1

> <PUBCHEM_CACTVS_ROTATABLE_BOND>
9

> <PUBCHEM_CACTVS_SUBSKEYS>
AAADceB7MABAAAAAAAAAAAAAAAAAAAAAAAA8YMEAAAAAAADBVAAAHgQQQAAADAzB2AYyx8NABAKAAiRCQHDCCBAhIgAIiJgPbIgOZiLEsZuVMChk0BHY6AeQwIAOkAAAgAAQEAAgAAEAACAgAAAAAAAAAA==

> <PUBCHEM_IUPAC_OPENEYE_NAME>
N-[4-[4-(2-methoxyphenyl)piperazin-1-yl]butyl]naphthalene-2-sulfonamide

> <PUBCHEM_IUPAC_CAS_NAME>
N-[4-[4-(2-methoxyphenyl)-1-piperazinyl]butyl]-2-naphthalenesulfonamide

> <PUBCHEM_IUPAC_NAME_MARKUP>
<I>N</I>-[4-[4-(2-methoxyphenyl)piperazin-1-yl]butyl]naphthalene-2-sulfonamide

> <PUBCHEM_IUPAC_NAME>
N-[4-[4-(2-methoxyphenyl)piperazin-1-yl]butyl]naphthalene-2-sulfonamide

> <PUBCHEM_IUPAC_SYSTEMATIC_NAME>
N-[4-[4-(2-methoxyphenyl)piperazin-1-yl]butyl]naphthalene-2-sulfonamide

> <PUBCHEM_IUPAC_TRADITIONAL_NAME>
N-[4-[4-(2-methoxyphenyl)piperazino]butyl]naphthalene-2-sulfonamide

> <PUBCHEM_IUPAC_INCHI>
InChI=1S/C25H31N3O3S/c1-31-25-11-5-4-10-24(25)28-18-16-27(17-19-28)15-7-6-14-26-32(29,30)23-13-12-21-8-2-3-9-22(21)20-23/h2-5,8-13,20,26H,6-7,14-19H2,1H3

> <PUBCHEM_IUPAC_INCHIKEY>
AUMIZIKCBYPWJM-UHFFFAOYSA-N

> <PUBCHEM_XLOGP3_AA>
4.5

> <PUBCHEM_EXACT_MASS>
453.20861303

> <PUBCHEM_MOLECULAR_FORMULA>
C25H31N3O3S

> <PUBCHEM_MOLECULAR_WEIGHT>
453.6

> <PUBCHEM_OPENEYE_CAN_SMILES>
COC1=CC=CC=C1N2CCN(CC2)CCCCNS(=O)(=O)C3=CC4=CC=CC=C4C=C3

> <PUBCHEM_OPENEYE_ISO_SMILES>
COC1=CC=CC=C1N2CCN(CC2)CCCCNS(=O)(=O)C3=CC4=CC=CC=C4C=C3

> <PUBCHEM_CACTVS_TPSA>
70.3

> <PUBCHEM_MONOISOTOPIC_WEIGHT>
453.20861303

> <PUBCHEM_TOTAL_CHARGE>
0

> <PUBCHEM_HEAVY_ATOM_COUNT>
32

> <PUBCHEM_ATOM_DEF_STEREO_COUNT>
0

> <PUBCHEM_ATOM_UDEF_STEREO_COUNT>
0

> <PUBCHEM_BOND_DEF_STEREO_COUNT>
0

> <PUBCHEM_BOND_UDEF_STEREO_COUNT>
0

> <PUBCHEM_ISOTOPIC_ATOM_COUNT>
0

> <PUBCHEM_COMPONENT_COUNT>
1

> <PUBCHEM_CACTVS_TAUTO_COUNT>
-1

> <PUBCHEM_COORDINATE_TYPE>
1
5
255

> <PUBCHEM_BONDANNOTATIONS>
15  17  8
15  18  8
17  19  8
18  20  8
19  22  8
20  22  8
21  23  8
21  24  8
23  25  8
24  27  8
25  26  8
25  29  8
26  27  8
26  30  8
29  31  8
30  32  8
31  32  8

$$$$
