127035828
  -OEChem-09292322472D

 43 45  0     0  0  0  0  0  0999 V2000
    3.5228   -3.4344    0.0000 S   0  0  0  0  0  0  0  0  0  0  0  0
    2.8660    2.0374    0.0000 O   0  0  0  0  0  0  0  0  0  0  0  0
    2.0000    0.5374    0.0000 O   0  0  0  0  0  0  0  0  0  0  0  0
    3.7320    0.5374    0.0000 N   0  0  0  0  0  0  0  0  0  0  0  0
    4.5981    1.0374    0.0000 C   0  0  0  0  0  0  0  0  0  0  0  0
    3.7320   -0.4626    0.0000 C   0  0  0  0  0  0  0  0  0  0  0  0
    5.4641    0.5374    0.0000 C   0  0  0  0  0  0  0  0  0  0  0  0
    2.8660   -0.9626    0.0000 C   0  0  0  0  0  0  0  0  0  0  0  0
    5.4641   -0.4626    0.0000 C   0  0  0  0  0  0  0  0  0  0  0  0
    2.8660   -1.9626    0.0000 C   0  0  0  0  0  0  0  0  0  0  0  0
    4.5981   -1.9626    0.0000 C   0  0  0  0  0  0  0  0  0  0  0  0
    4.5981   -0.9626    0.0000 C   0  0  0  0  0  0  0  0  0  0  0  0
    3.7320   -2.4626    0.0000 C   0  0  0  0  0  0  0  0  0  0  0  0
    2.1290   -2.6296    0.0000 C   0  0  0  0  0  0  0  0  0  0  0  0
    6.8754   -1.0397    0.0000 C   0  0  0  0  0  0  0  0  0  0  0  0
    4.3922   -2.4734    0.0000 C   0  0  0  0  0  0  0  0  0  0  0  0
    2.8660    1.0374    0.0000 C   0  0  0  0  0  0  0  0  0  0  0  0
    2.5341   -3.5374    0.0000 C   0  0  0  0  0  0  0  0  0  0  0  0
    6.9786   -2.5610    0.0000 C   0  0  0  0  0  0  0  0  0  0  0  0
    5.6581   -3.3233    0.0000 C   0  0  0  0  0  0  0  0  0  0  0  0
    2.0000    2.5374    0.0000 C   0  0  0  0  0  0  0  0  0  0  0  0
    2.0000    3.5374    0.0000 C   0  0  0  0  0  0  0  0  0  0  0  0
    4.9966    1.5124    0.0000 H   0  0  0  0  0  0  0  0  0  0  0  0
    4.1996    1.5124    0.0000 H   0  0  0  0  0  0  0  0  0  0  0  0
    3.9441   -1.0452    0.0000 H   0  0  0  0  0  0  0  0  0  0  0  0
    4.3426   -0.3549    0.0000 H   0  0  0  0  0  0  0  0  0  0  0  0
    6.0747    0.4298    0.0000 H   0  0  0  0  0  0  0  0  0  0  0  0
    5.6762    1.1200    0.0000 H   0  0  0  0  0  0  0  0  0  0  0  0
    2.6540   -0.3800    0.0000 H   0  0  0  0  0  0  0  0  0  0  0  0
    2.2554   -1.0702    0.0000 H   0  0  0  0  0  0  0  0  0  0  0  0
    4.8101   -2.5452    0.0000 H   0  0  0  0  0  0  0  0  0  0  0  0
    5.2087   -1.8549    0.0000 H   0  0  0  0  0  0  0  0  0  0  0  0
    1.5223   -2.5018    0.0000 H   0  0  0  0  0  0  0  0  0  0  0  0
    7.3782   -0.6768    0.0000 H   0  0  0  0  0  0  0  0  0  0  0  0
    3.8266   -2.7273    0.0000 H   0  0  0  0  0  0  0  0  0  0  0  0
    2.2241   -4.0744    0.0000 H   0  0  0  0  0  0  0  0  0  0  0  0
    7.5257   -2.8526    0.0000 H   0  0  0  0  0  0  0  0  0  0  0  0
    5.6371   -3.9430    0.0000 H   0  0  0  0  0  0  0  0  0  0  0  0
    1.3894    2.6451    0.0000 H   0  0  0  0  0  0  0  0  0  0  0  0
    1.7880    1.9548    0.0000 H   0  0  0  0  0  0  0  0  0  0  0  0
    2.6200    3.5374    0.0000 H   0  0  0  0  0  0  0  0  0  0  0  0
    2.0000    4.1574    0.0000 H   0  0  0  0  0  0  0  0  0  0  0  0
    1.3800    3.5374    0.0000 H   0  0  0  0  0  0  0  0  0  0  0  0
  1 13  1  0  0  0  0
  1 18  1  0  0  0  0
  2 17  1  0  0  0  0
  2 21  1  0  0  0  0
  3 17  2  0  0  0  0
  4  5  1  0  0  0  0
  4  6  1  0  0  0  0
  4 17  1  0  0  0  0
  5  7  1  0  0  0  0
  5 23  1  0  0  0  0
  5 24  1  0  0  0  0
  6  8  1  0  0  0  0
  6 25  1  0  0  0  0
  6 26  1  0  0  0  0
  7  9  1  0  0  0  0
  7 27  1  0  0  0  0
  7 28  1  0  0  0  0
  8 10  1  0  0  0  0
  8 29  1  0  0  0  0
  8 30  1  0  0  0  0
  9 12  1  0  0  0  0
  9 15  2  0  0  0  0
 10 13  2  0  0  0  0
 10 14  1  0  0  0  0
 11 12  1  0  0  0  0
 11 13  1  0  0  0  0
 11 31  1  0  0  0  0
 11 32  1  0  0  0  0
 12 16  2  0  0  0  0
 14 18  2  0  0  0  0
 14 33  1  0  0  0  0
 15 19  1  0  0  0  0
 15 34  1  0  0  0  0
 16 20  1  0  0  0  0
 16 35  1  0  0  0  0
 18 36  1  0  0  0  0
 19 20  2  0  0  0  0
 19 37  1  0  0  0  0
 20 38  1  0  0  0  0
 21 22  1  0  0  0  0
 21 39  1  0  0  0  0
 21 40  1  0  0  0  0
 22 41  1  0  0  0  0
 22 42  1  0  0  0  0
 22 43  1  0  0  0  0
M  END
> <PUBCHEM_COMPOUND_CID>
127035828

> <PUBCHEM_COMPOUND_CANONICALIZED>
1

> <PUBCHEM_CACTVS_COMPLEXITY>
376

> <PUBCHEM_CACTVS_HBOND_ACCEPTOR>
3

> <PUBCHEM_CACTVS_HBOND_DONOR>
0

> <PUBCHEM_CACTVS_ROTATABLE_BOND>
2

> <PUBCHEM_CACTVS_SUBSKEYS>
AAADceB6MABAAAAAAAAAAAAAAAAAASAAAAAwAAAAAAAAAACxwAAAHgQAAAAADADl2AayCYMABAiMAiBCGAADAIAgCBBIiBgIAIgIICKgkRGMIAAghgCoiAcQgMAOgAAAAAAQAAAAAAAAACAAAAAAAAAAAA==

> <PUBCHEM_IUPAC_OPENEYE_NAME>
ethyl 4-thia-10-azatricyclo[11.4.0.03,7]heptadeca-1(17),3(7),5,13,15-pentaene-10-carboxylate

> <PUBCHEM_IUPAC_CAS_NAME>
4-thia-10-azatricyclo[11.4.0.03,7]heptadeca-1(17),3(7),5,13,15-pentaene-10-carboxylic acid ethyl ester

> <PUBCHEM_IUPAC_NAME_MARKUP>
ethyl 4-thia-10-azatricyclo[11.4.0.0<SUP>3,7</SUP>]heptadeca-1(17),3(7),5,13,15-pentaene-10-carboxylate

> <PUBCHEM_IUPAC_NAME>
ethyl 4-thia-10-azatricyclo[11.4.0.03,7]heptadeca-1(17),3(7),5,13,15-pentaene-10-carboxylate

> <PUBCHEM_IUPAC_SYSTEMATIC_NAME>
ethyl 4-thia-10-azatricyclo[11.4.0.03,7]heptadeca-1(17),3(7),5,13,15-pentaene-10-carboxylate

> <PUBCHEM_IUPAC_TRADITIONAL_NAME>
4-thia-10-azatricyclo[11.4.0.03,7]heptadeca-1(17),3(7),5,13,15-pentaene-10-carboxylic acid ethyl ester

> <PUBCHEM_IUPAC_INCHI>
InChI=1S/C18H21NO2S/c1-2-21-18(20)19-10-7-14-5-3-4-6-16(14)13-17-15(8-11-19)9-12-22-17/h3-6,9,12H,2,7-8,10-11,13H2,1H3

> <PUBCHEM_IUPAC_INCHIKEY>
QXENIDYJYZUXDA-UHFFFAOYSA-N

> <PUBCHEM_XLOGP3_AA>
4.1

> <PUBCHEM_EXACT_MASS>
315.12930009

> <PUBCHEM_MOLECULAR_FORMULA>
C18H21NO2S

> <PUBCHEM_MOLECULAR_WEIGHT>
315.4

> <PUBCHEM_OPENEYE_CAN_SMILES>
CCOC(=O)N1CCC2=C(CC3=CC=CC=C3CC1)SC=C2

> <PUBCHEM_OPENEYE_ISO_SMILES>
CCOC(=O)N1CCC2=C(CC3=CC=CC=C3CC1)SC=C2

> <PUBCHEM_CACTVS_TPSA>
57.8

> <PUBCHEM_MONOISOTOPIC_WEIGHT>
315.12930009

> <PUBCHEM_TOTAL_CHARGE>
0

> <PUBCHEM_HEAVY_ATOM_COUNT>
22

> <PUBCHEM_ATOM_DEF_STEREO_COUNT>
0

> <PUBCHEM_ATOM_UDEF_STEREO_COUNT>
0

> <PUBCHEM_BOND_DEF_STEREO_COUNT>
0

> <PUBCHEM_BOND_UDEF_STEREO_COUNT>
0

> <PUBCHEM_ISOTOPIC_ATOM_COUNT>
0

> <PUBCHEM_COMPONENT_COUNT>
1

> <PUBCHEM_CACTVS_TAUTO_COUNT>
-1

> <PUBCHEM_COORDINATE_TYPE>
1
5
255

> <PUBCHEM_BONDANNOTATIONS>
1  13  8
1  18  8
10  13  8
10  14  8
12  16  8
14  18  8
15  19  8
16  20  8
19  20  8
9  12  8
9  15  8

$$$$
