127049864
  -OEChem-09292322052D

 58 61  0     0  0  0  0  0  0999 V2000
    4.6783   -5.5000    0.0000 S   0  0  0  0  0  0  0  0  0  0  0  0
    8.4993    2.2250    0.0000 O   0  0  0  0  0  0  0  0  0  0  0  0
   10.4097    5.2828    0.0000 O   0  0  0  0  0  0  0  0  0  0  0  0
    5.6103   -1.0390    0.0000 N   0  0  0  0  0  0  0  0  0  0  0  0
    4.9889   -2.9400    0.0000 N   0  0  0  0  0  0  0  0  0  0  0  0
    5.2619   -4.6952    0.0000 N   0  0  0  0  0  0  0  0  0  0  0  0
   12.0561    4.7447    0.0000 N   0  0  0  0  0  0  0  0  0  0  0  0
    6.2781   -1.7833    0.0000 C   0  0  0  0  0  0  0  0  0  0  0  0
    4.6318   -1.2452    0.0000 C   0  0  0  0  0  0  0  0  0  0  0  0
    5.9674   -2.7338    0.0000 C   0  0  0  0  0  0  0  0  0  0  0  0
    4.3211   -2.1957    0.0000 C   0  0  0  0  0  0  0  0  0  0  0  0
    5.9209   -0.0884    0.0000 C   0  0  0  0  0  0  0  0  0  0  0  0
    6.8994    0.1178    0.0000 C   0  0  0  0  0  0  0  0  0  0  0  0
    4.6783   -3.8905    0.0000 C   0  0  0  0  0  0  0  0  0  0  0  0
    7.2101    1.0683    0.0000 C   0  0  0  0  0  0  0  0  0  0  0  0
    3.7320   -4.1952    0.0000 C   0  0  0  0  0  0  0  0  0  0  0  0
    8.1886    1.2745    0.0000 C   0  0  0  0  0  0  0  0  0  0  0  0
    3.7320   -5.1952    0.0000 C   0  0  0  0  0  0  0  0  0  0  0  0
    2.8660   -3.6952    0.0000 C   0  0  0  0  0  0  0  0  0  0  0  0
    2.8660   -5.6952    0.0000 C   0  0  0  0  0  0  0  0  0  0  0  0
    2.0000   -4.1952    0.0000 C   0  0  0  0  0  0  0  0  0  0  0  0
    2.0000   -5.1952    0.0000 C   0  0  0  0  0  0  0  0  0  0  0  0
    9.4778    2.4313    0.0000 C   0  0  0  0  0  0  0  0  0  0  0  0
    9.7884    3.3818    0.0000 C   0  0  0  0  0  0  0  0  0  0  0  0
   10.1456    1.6870    0.0000 C   0  0  0  0  0  0  0  0  0  0  0  0
   10.7669    3.5880    0.0000 C   0  0  0  0  0  0  0  0  0  0  0  0
   11.1241    1.8932    0.0000 C   0  0  0  0  0  0  0  0  0  0  0  0
   11.4348    2.8437    0.0000 C   0  0  0  0  0  0  0  0  0  0  0  0
   11.0776    4.5385    0.0000 C   0  0  0  0  0  0  0  0  0  0  0  0
   12.3668    5.6952    0.0000 C   0  0  0  0  0  0  0  0  0  0  0  0
    6.8250   -2.0753    0.0000 H   0  0  0  0  0  0  0  0  0  0  0  0
    6.6607   -1.2954    0.0000 H   0  0  0  0  0  0  0  0  0  0  0  0
    4.6112   -0.6255    0.0000 H   0  0  0  0  0  0  0  0  0  0  0  0
    4.0179   -1.1578    0.0000 H   0  0  0  0  0  0  0  0  0  0  0  0
    5.9880   -3.3534    0.0000 H   0  0  0  0  0  0  0  0  0  0  0  0
    6.5812   -2.8211    0.0000 H   0  0  0  0  0  0  0  0  0  0  0  0
    3.7742   -1.9037    0.0000 H   0  0  0  0  0  0  0  0  0  0  0  0
    3.9385   -2.6836    0.0000 H   0  0  0  0  0  0  0  0  0  0  0  0
    5.9004    0.5312    0.0000 H   0  0  0  0  0  0  0  0  0  0  0  0
    5.3071   -0.0011    0.0000 H   0  0  0  0  0  0  0  0  0  0  0  0
    6.9200   -0.5019    0.0000 H   0  0  0  0  0  0  0  0  0  0  0  0
    7.5132    0.0304    0.0000 H   0  0  0  0  0  0  0  0  0  0  0  0
    7.1895    1.6880    0.0000 H   0  0  0  0  0  0  0  0  0  0  0  0
    6.5963    1.1556    0.0000 H   0  0  0  0  0  0  0  0  0  0  0  0
    8.2092    0.6549    0.0000 H   0  0  0  0  0  0  0  0  0  0  0  0
    8.8024    1.1872    0.0000 H   0  0  0  0  0  0  0  0  0  0  0  0
    2.8660   -3.0752    0.0000 H   0  0  0  0  0  0  0  0  0  0  0  0
    2.8660   -6.3152    0.0000 H   0  0  0  0  0  0  0  0  0  0  0  0
    1.4631   -3.8852    0.0000 H   0  0  0  0  0  0  0  0  0  0  0  0
    1.4631   -5.5052    0.0000 H   0  0  0  0  0  0  0  0  0  0  0  0
    9.3744    3.8432    0.0000 H   0  0  0  0  0  0  0  0  0  0  0  0
    9.9530    1.0976    0.0000 H   0  0  0  0  0  0  0  0  0  0  0  0
   11.5382    1.4317    0.0000 H   0  0  0  0  0  0  0  0  0  0  0  0
   12.0414    2.9716    0.0000 H   0  0  0  0  0  0  0  0  0  0  0  0
   12.4702    4.2833    0.0000 H   0  0  0  0  0  0  0  0  0  0  0  0
   12.9561    5.5026    0.0000 H   0  0  0  0  0  0  0  0  0  0  0  0
   12.5594    6.2846    0.0000 H   0  0  0  0  0  0  0  0  0  0  0  0
   11.7774    5.8879    0.0000 H   0  0  0  0  0  0  0  0  0  0  0  0
  1  6  1  0  0  0  0
  1 18  1  0  0  0  0
  2 17  1  0  0  0  0
  2 23  1  0  0  0  0
  3 29  2  0  0  0  0
  4  8  1  0  0  0  0
  4  9  1  0  0  0  0
  4 12  1  0  0  0  0
  5 10  1  0  0  0  0
  5 11  1  0  0  0  0
  5 14  1  0  0  0  0
  6 14  2  0  0  0  0
  7 29  1  0  0  0  0
  7 30  1  0  0  0  0
  7 55  1  0  0  0  0
  8 10  1  0  0  0  0
  8 31  1  0  0  0  0
  8 32  1  0  0  0  0
  9 11  1  0  0  0  0
  9 33  1  0  0  0  0
  9 34  1  0  0  0  0
 10 35  1  0  0  0  0
 10 36  1  0  0  0  0
 11 37  1  0  0  0  0
 11 38  1  0  0  0  0
 12 13  1  0  0  0  0
 12 39  1  0  0  0  0
 12 40  1  0  0  0  0
 13 15  1  0  0  0  0
 13 41  1  0  0  0  0
 13 42  1  0  0  0  0
 14 16  1  0  0  0  0
 15 17  1  0  0  0  0
 15 43  1  0  0  0  0
 15 44  1  0  0  0  0
 16 18  1  0  0  0  0
 16 19  2  0  0  0  0
 17 45  1  0  0  0  0
 17 46  1  0  0  0  0
 18 20  2  0  0  0  0
 19 21  1  0  0  0  0
 19 47  1  0  0  0  0
 20 22  1  0  0  0  0
 20 48  1  0  0  0  0
 21 22  2  0  0  0  0
 21 49  1  0  0  0  0
 22 50  1  0  0  0  0
 23 24  1  0  0  0  0
 23 25  2  0  0  0  0
 24 26  2  0  0  0  0
 24 51  1  0  0  0  0
 25 27  1  0  0  0  0
 25 52  1  0  0  0  0
 26 28  1  0  0  0  0
 26 29  1  0  0  0  0
 27 28  2  0  0  0  0
 27 53  1  0  0  0  0
 28 54  1  0  0  0  0
 30 56  1  0  0  0  0
 30 57  1  0  0  0  0
 30 58  1  0  0  0  0
M  END
> <PUBCHEM_COMPOUND_CID>
127049864

> <PUBCHEM_COMPOUND_CANONICALIZED>
1

> <PUBCHEM_CACTVS_COMPLEXITY>
543

> <PUBCHEM_CACTVS_HBOND_ACCEPTOR>
6

> <PUBCHEM_CACTVS_HBOND_DONOR>
1

> <PUBCHEM_CACTVS_ROTATABLE_BOND>
8

> <PUBCHEM_CACTVS_SUBSKEYS>
AAADceB7sABAAAAAAAAAAAAAAAAAAWAAAAA8YIAAAAAAAFgB9AAAHgQQQAAADATh2gYzt9PABACsAiNycACDCBAlIABJmLkuTNiMZrLEvZuWOSzkwhPI6Ye6yBCOAAABAAAEAAAAAAIAAAgAAAAAAAAAAA==

> <PUBCHEM_IUPAC_OPENEYE_NAME>
3-[4-[4-(1,2-benzothiazol-3-yl)piperazin-1-yl]butoxy]-N-methyl-benzamide

> <PUBCHEM_IUPAC_CAS_NAME>
3-[4-[4-(1,2-benzothiazol-3-yl)-1-piperazinyl]butoxy]-N-methylbenzamide

> <PUBCHEM_IUPAC_NAME_MARKUP>
3-[4-[4-(1,2-benzothiazol-3-yl)piperazin-1-yl]butoxy]-<I>N</I>-methylbenzamide

> <PUBCHEM_IUPAC_NAME>
3-[4-[4-(1,2-benzothiazol-3-yl)piperazin-1-yl]butoxy]-N-methylbenzamide

> <PUBCHEM_IUPAC_SYSTEMATIC_NAME>
3-[4-[4-(1,2-benzothiazol-3-yl)piperazin-1-yl]butoxy]-N-methyl-benzamide

> <PUBCHEM_IUPAC_TRADITIONAL_NAME>
3-[4-[4-(1,2-benzothiazol-3-yl)piperazino]butoxy]-N-methyl-benzamide

> <PUBCHEM_IUPAC_INCHI>
InChI=1S/C23H28N4O2S/c1-24-23(28)18-7-6-8-19(17-18)29-16-5-4-11-26-12-14-27(15-13-26)22-20-9-2-3-10-21(20)30-25-22/h2-3,6-10,17H,4-5,11-16H2,1H3,(H,24,28)

> <PUBCHEM_IUPAC_INCHIKEY>
DGEARUMAQJGDTJ-UHFFFAOYSA-N

> <PUBCHEM_XLOGP3_AA>
4.2

> <PUBCHEM_EXACT_MASS>
424.19329732

> <PUBCHEM_MOLECULAR_FORMULA>
C23H28N4O2S

> <PUBCHEM_MOLECULAR_WEIGHT>
424.6

> <PUBCHEM_OPENEYE_CAN_SMILES>
CNC(=O)C1=CC(=CC=C1)OCCCCN2CCN(CC2)C3=NSC4=CC=CC=C43

> <PUBCHEM_OPENEYE_ISO_SMILES>
CNC(=O)C1=CC(=CC=C1)OCCCCN2CCN(CC2)C3=NSC4=CC=CC=C43

> <PUBCHEM_CACTVS_TPSA>
85.9

> <PUBCHEM_MONOISOTOPIC_WEIGHT>
424.19329732

> <PUBCHEM_TOTAL_CHARGE>
0

> <PUBCHEM_HEAVY_ATOM_COUNT>
30

> <PUBCHEM_ATOM_DEF_STEREO_COUNT>
0

> <PUBCHEM_ATOM_UDEF_STEREO_COUNT>
0

> <PUBCHEM_BOND_DEF_STEREO_COUNT>
0

> <PUBCHEM_BOND_UDEF_STEREO_COUNT>
0

> <PUBCHEM_ISOTOPIC_ATOM_COUNT>
0

> <PUBCHEM_COMPONENT_COUNT>
1

> <PUBCHEM_CACTVS_TAUTO_COUNT>
-1

> <PUBCHEM_COORDINATE_TYPE>
1
5
255

> <PUBCHEM_BONDANNOTATIONS>
1  18  8
1  6  8
14  16  8
16  18  8
16  19  8
18  20  8
19  21  8
20  22  8
21  22  8
23  24  8
23  25  8
24  26  8
25  27  8
26  28  8
27  28  8
6  14  8

$$$$
