127047640
  -OEChem-09292322022D

 57 60  0     0  0  0  0  0  0999 V2000
    3.7320    2.6970    0.0000 Cl  0  0  0  0  0  0  0  0  0  0  0  0
    2.0000    3.6970    0.0000 Cl  0  0  0  0  0  0  0  0  0  0  0  0
   10.6603   -2.3030    0.0000 O   0  0  0  0  0  0  0  0  0  0  0  0
    8.9282   -2.3030    0.0000 O   0  0  0  0  0  0  0  0  0  0  0  0
    7.1962    2.6970    0.0000 N   0  0  0  0  0  0  0  0  0  0  0  0
    5.4641    3.6970    0.0000 N   0  0  0  0  0  0  0  0  0  0  0  0
    9.7942   -0.8030    0.0000 N   0  0  0  0  0  0  0  0  0  0  0  0
   12.4725   -5.1077    0.0000 N   0  0  0  0  0  0  0  0  0  0  0  0
    7.1962    3.6970    0.0000 C   0  0  0  0  0  0  0  0  0  0  0  0
    6.3301    2.1970    0.0000 C   0  0  0  0  0  0  0  0  0  0  0  0
    6.3301    4.1970    0.0000 C   0  0  0  0  0  0  0  0  0  0  0  0
    5.4641    2.6970    0.0000 C   0  0  0  0  0  0  0  0  0  0  0  0
    8.0622    2.1970    0.0000 C   0  0  0  0  0  0  0  0  0  0  0  0
    8.0622    1.1970    0.0000 C   0  0  0  0  0  0  0  0  0  0  0  0
    4.5981    4.1970    0.0000 C   0  0  0  0  0  0  0  0  0  0  0  0
    8.9282    0.6970    0.0000 C   0  0  0  0  0  0  0  0  0  0  0  0
    8.9282   -0.3030    0.0000 C   0  0  0  0  0  0  0  0  0  0  0  0
    3.7320    3.6970    0.0000 C   0  0  0  0  0  0  0  0  0  0  0  0
    4.5981    5.1970    0.0000 C   0  0  0  0  0  0  0  0  0  0  0  0
    2.8660    4.1970    0.0000 C   0  0  0  0  0  0  0  0  0  0  0  0
    3.7320    5.6970    0.0000 C   0  0  0  0  0  0  0  0  0  0  0  0
    2.8660    5.1970    0.0000 C   0  0  0  0  0  0  0  0  0  0  0  0
    9.7942   -1.8030    0.0000 C   0  0  0  0  0  0  0  0  0  0  0  0
   11.5263   -3.8030    0.0000 C   0  0  0  0  0  0  0  0  0  0  0  0
   10.6603   -3.3030    0.0000 C   0  0  0  0  0  0  0  0  0  0  0  0
   11.5263   -4.8030    0.0000 C   0  0  0  0  0  0  0  0  0  0  0  0
   12.4725   -3.4982    0.0000 C   0  0  0  0  0  0  0  0  0  0  0  0
    9.7942   -3.8030    0.0000 C   0  0  0  0  0  0  0  0  0  0  0  0
   10.6603   -5.3030    0.0000 C   0  0  0  0  0  0  0  0  0  0  0  0
   13.0561   -4.3030    0.0000 C   0  0  0  0  0  0  0  0  0  0  0  0
    9.7942   -4.8030    0.0000 C   0  0  0  0  0  0  0  0  0  0  0  0
    7.8067    3.5894    0.0000 H   0  0  0  0  0  0  0  0  0  0  0  0
    7.4082    4.2796    0.0000 H   0  0  0  0  0  0  0  0  0  0  0  0
    5.9316    1.7221    0.0000 H   0  0  0  0  0  0  0  0  0  0  0  0
    6.7287    1.7221    0.0000 H   0  0  0  0  0  0  0  0  0  0  0  0
    6.7287    4.6720    0.0000 H   0  0  0  0  0  0  0  0  0  0  0  0
    5.9316    4.6720    0.0000 H   0  0  0  0  0  0  0  0  0  0  0  0
    4.8535    2.8047    0.0000 H   0  0  0  0  0  0  0  0  0  0  0  0
    5.2520    2.1144    0.0000 H   0  0  0  0  0  0  0  0  0  0  0  0
    8.6728    2.0894    0.0000 H   0  0  0  0  0  0  0  0  0  0  0  0
    8.2742    2.7796    0.0000 H   0  0  0  0  0  0  0  0  0  0  0  0
    7.4516    1.3047    0.0000 H   0  0  0  0  0  0  0  0  0  0  0  0
    7.8501    0.6144    0.0000 H   0  0  0  0  0  0  0  0  0  0  0  0
    9.5388    0.5894    0.0000 H   0  0  0  0  0  0  0  0  0  0  0  0
    9.1403    1.2796    0.0000 H   0  0  0  0  0  0  0  0  0  0  0  0
    8.3176   -0.1953    0.0000 H   0  0  0  0  0  0  0  0  0  0  0  0
    8.7162   -0.8856    0.0000 H   0  0  0  0  0  0  0  0  0  0  0  0
    5.1350    5.5070    0.0000 H   0  0  0  0  0  0  0  0  0  0  0  0
   10.3312   -0.4930    0.0000 H   0  0  0  0  0  0  0  0  0  0  0  0
    3.7320    6.3170    0.0000 H   0  0  0  0  0  0  0  0  0  0  0  0
    2.3291    5.5070    0.0000 H   0  0  0  0  0  0  0  0  0  0  0  0
   12.6651   -2.9089    0.0000 H   0  0  0  0  0  0  0  0  0  0  0  0
    9.2573   -3.4930    0.0000 H   0  0  0  0  0  0  0  0  0  0  0  0
   12.6651   -5.6970    0.0000 H   0  0  0  0  0  0  0  0  0  0  0  0
   10.6603   -5.9230    0.0000 H   0  0  0  0  0  0  0  0  0  0  0  0
   13.6761   -4.3030    0.0000 H   0  0  0  0  0  0  0  0  0  0  0  0
    9.2573   -5.1130    0.0000 H   0  0  0  0  0  0  0  0  0  0  0  0
  1 18  1  0  0  0  0
  2 20  1  0  0  0  0
  3 23  1  0  0  0  0
  3 25  1  0  0  0  0
  4 23  2  0  0  0  0
  5  9  1  0  0  0  0
  5 10  1  0  0  0  0
  5 13  1  0  0  0  0
  6 11  1  0  0  0  0
  6 12  1  0  0  0  0
  6 15  1  0  0  0  0
  7 17  1  0  0  0  0
  7 23  1  0  0  0  0
  7 49  1  0  0  0  0
  8 26  1  0  0  0  0
  8 30  1  0  0  0  0
  8 54  1  0  0  0  0
  9 11  1  0  0  0  0
  9 32  1  0  0  0  0
  9 33  1  0  0  0  0
 10 12  1  0  0  0  0
 10 34  1  0  0  0  0
 10 35  1  0  0  0  0
 11 36  1  0  0  0  0
 11 37  1  0  0  0  0
 12 38  1  0  0  0  0
 12 39  1  0  0  0  0
 13 14  1  0  0  0  0
 13 40  1  0  0  0  0
 13 41  1  0  0  0  0
 14 16  1  0  0  0  0
 14 42  1  0  0  0  0
 14 43  1  0  0  0  0
 15 18  2  0  0  0  0
 15 19  1  0  0  0  0
 16 17  1  0  0  0  0
 16 44  1  0  0  0  0
 16 45  1  0  0  0  0
 17 46  1  0  0  0  0
 17 47  1  0  0  0  0
 18 20  1  0  0  0  0
 19 21  2  0  0  0  0
 19 48  1  0  0  0  0
 20 22  2  0  0  0  0
 21 22  1  0  0  0  0
 21 50  1  0  0  0  0
 22 51  1  0  0  0  0
 24 25  1  0  0  0  0
 24 26  2  0  0  0  0
 24 27  1  0  0  0  0
 25 28  2  0  0  0  0
 26 29  1  0  0  0  0
 27 30  2  0  0  0  0
 27 52  1  0  0  0  0
 28 31  1  0  0  0  0
 28 53  1  0  0  0  0
 29 31  2  0  0  0  0
 29 55  1  0  0  0  0
 30 56  1  0  0  0  0
 31 57  1  0  0  0  0
M  END
> <PUBCHEM_COMPOUND_CID>
127047640

> <PUBCHEM_COMPOUND_CANONICALIZED>
1

> <PUBCHEM_CACTVS_COMPLEXITY>
576

> <PUBCHEM_CACTVS_HBOND_ACCEPTOR>
4

> <PUBCHEM_CACTVS_HBOND_DONOR>
2

> <PUBCHEM_CACTVS_ROTATABLE_BOND>
8

> <PUBCHEM_CACTVS_SUBSKEYS>
AAADceB7sAAGAAAAAAAAAAAAAAAAAWAAAAA8YIAAAAAAAFgB9AAAHgIQAAAADA7BniQ8zvPJlACoAzRnXACCiCAxJyAI2+A+bpkMZuLFs5vcMihm1hnI6Aew0KMOAAAAAgIKABQAAAAEBBQAKAAAAAAAAA==

> <PUBCHEM_IUPAC_OPENEYE_NAME>
1H-indol-4-yl N-[4-[4-(2,3-dichlorophenyl)piperazin-1-yl]butyl]carbamate

> <PUBCHEM_IUPAC_CAS_NAME>
N-[4-[4-(2,3-dichlorophenyl)-1-piperazinyl]butyl]carbamic acid 1H-indol-4-yl ester

> <PUBCHEM_IUPAC_NAME_MARKUP>
1<I>H</I>-indol-4-yl <I>N</I>-[4-[4-(2,3-dichlorophenyl)piperazin-1-yl]butyl]carbamate

> <PUBCHEM_IUPAC_NAME>
1H-indol-4-yl N-[4-[4-(2,3-dichlorophenyl)piperazin-1-yl]butyl]carbamate

> <PUBCHEM_IUPAC_SYSTEMATIC_NAME>
1H-indol-4-yl N-[4-[4-[2,3-bis(chloranyl)phenyl]piperazin-1-yl]butyl]carbamate

> <PUBCHEM_IUPAC_TRADITIONAL_NAME>
N-[4-[4-(2,3-dichlorophenyl)piperazino]butyl]carbamic acid 1H-indol-4-yl ester

> <PUBCHEM_IUPAC_INCHI>
InChI=1S/C23H26Cl2N4O2/c24-18-5-3-7-20(22(18)25)29-15-13-28(14-16-29)12-2-1-10-27-23(30)31-21-8-4-6-19-17(21)9-11-26-19/h3-9,11,26H,1-2,10,12-16H2,(H,27,30)

> <PUBCHEM_IUPAC_INCHIKEY>
QRRARQIWJKGPKE-UHFFFAOYSA-N

> <PUBCHEM_XLOGP3_AA>
5.2

> <PUBCHEM_EXACT_MASS>
460.1432815

> <PUBCHEM_MOLECULAR_FORMULA>
C23H26Cl2N4O2

> <PUBCHEM_MOLECULAR_WEIGHT>
461.4

> <PUBCHEM_OPENEYE_CAN_SMILES>
C1CN(CCN1CCCCNC(=O)OC2=CC=CC3=C2C=CN3)C4=C(C(=CC=C4)Cl)Cl

> <PUBCHEM_OPENEYE_ISO_SMILES>
C1CN(CCN1CCCCNC(=O)OC2=CC=CC3=C2C=CN3)C4=C(C(=CC=C4)Cl)Cl

> <PUBCHEM_CACTVS_TPSA>
60.6

> <PUBCHEM_MONOISOTOPIC_WEIGHT>
460.1432815

> <PUBCHEM_TOTAL_CHARGE>
0

> <PUBCHEM_HEAVY_ATOM_COUNT>
31

> <PUBCHEM_ATOM_DEF_STEREO_COUNT>
0

> <PUBCHEM_ATOM_UDEF_STEREO_COUNT>
0

> <PUBCHEM_BOND_DEF_STEREO_COUNT>
0

> <PUBCHEM_BOND_UDEF_STEREO_COUNT>
0

> <PUBCHEM_ISOTOPIC_ATOM_COUNT>
0

> <PUBCHEM_COMPONENT_COUNT>
1

> <PUBCHEM_CACTVS_TAUTO_COUNT>
-1

> <PUBCHEM_COORDINATE_TYPE>
1
5
255

> <PUBCHEM_BONDANNOTATIONS>
15  18  8
15  19  8
18  20  8
19  21  8
20  22  8
21  22  8
24  25  8
24  26  8
24  27  8
25  28  8
26  29  8
27  30  8
28  31  8
29  31  8
8  26  8
8  30  8

$$$$
