44438219
  -OEChem-09292322262D

 46 49  0     0  0  0  0  0  0999 V2000
    9.1671    3.7850    0.0000 Cl  0  0  0  0  0  0  0  0  0  0  0  0
    5.9674   -0.4295    0.0000 N   0  0  0  0  0  0  0  0  0  0  0  0
    8.8750   -0.3277    0.0000 N   0  0  0  0  0  0  0  0  0  0  0  0
    4.6783   -3.1957    0.0000 N   0  0  0  0  0  0  0  0  0  0  0  0
    7.9244   -0.0171    0.0000 C   0  0  0  0  0  0  0  0  0  0  0  0
    7.2566    0.7272    0.0000 C   0  0  0  0  0  0  0  0  0  0  0  0
    7.6138   -0.9676    0.0000 C   0  0  0  0  0  0  0  0  0  0  0  0
    6.2781    0.5210    0.0000 C   0  0  0  0  0  0  0  0  0  0  0  0
    6.6353   -1.1738    0.0000 C   0  0  0  0  0  0  0  0  0  0  0  0
    8.2351    0.9335    0.0000 C   0  0  0  0  0  0  0  0  0  0  0  0
    4.9889   -0.6357    0.0000 C   0  0  0  0  0  0  0  0  0  0  0  0
    4.6783   -1.5862    0.0000 C   0  0  0  0  0  0  0  0  0  0  0  0
    7.5673    1.6778    0.0000 C   0  0  0  0  0  0  0  0  0  0  0  0
    9.2136    1.1397    0.0000 C   0  0  0  0  0  0  0  0  0  0  0  0
    3.7320   -1.8910    0.0000 C   0  0  0  0  0  0  0  0  0  0  0  0
    5.2619   -2.3910    0.0000 C   0  0  0  0  0  0  0  0  0  0  0  0
    3.7320   -2.8910    0.0000 C   0  0  0  0  0  0  0  0  0  0  0  0
    7.8779    2.6283    0.0000 C   0  0  0  0  0  0  0  0  0  0  0  0
    9.5243    2.0902    0.0000 C   0  0  0  0  0  0  0  0  0  0  0  0
    8.8564    2.8345    0.0000 C   0  0  0  0  0  0  0  0  0  0  0  0
    2.8660   -1.3910    0.0000 C   0  0  0  0  0  0  0  0  0  0  0  0
    2.8660   -3.3910    0.0000 C   0  0  0  0  0  0  0  0  0  0  0  0
    2.0000   -1.8910    0.0000 C   0  0  0  0  0  0  0  0  0  0  0  0
    2.0000   -2.8910    0.0000 C   0  0  0  0  0  0  0  0  0  0  0  0
    7.7830    1.0549    0.0000 H   0  0  0  0  0  0  0  0  0  0  0  0
    7.0254    1.3025    0.0000 H   0  0  0  0  0  0  0  0  0  0  0  0
    7.6344   -1.5872    0.0000 H   0  0  0  0  0  0  0  0  0  0  0  0
    8.2276   -1.0549    0.0000 H   0  0  0  0  0  0  0  0  0  0  0  0
    6.2575    1.1407    0.0000 H   0  0  0  0  0  0  0  0  0  0  0  0
    5.6643    0.6084    0.0000 H   0  0  0  0  0  0  0  0  0  0  0  0
    6.1089   -1.5014    0.0000 H   0  0  0  0  0  0  0  0  0  0  0  0
    6.8665   -1.7490    0.0000 H   0  0  0  0  0  0  0  0  0  0  0  0
    4.9684   -0.0161    0.0000 H   0  0  0  0  0  0  0  0  0  0  0  0
    4.3751   -0.5484    0.0000 H   0  0  0  0  0  0  0  0  0  0  0  0
    9.0028   -0.9344    0.0000 H   0  0  0  0  0  0  0  0  0  0  0  0
    9.4816   -0.1999    0.0000 H   0  0  0  0  0  0  0  0  0  0  0  0
    6.9606    1.5499    0.0000 H   0  0  0  0  0  0  0  0  0  0  0  0
    9.6277    0.6782    0.0000 H   0  0  0  0  0  0  0  0  0  0  0  0
    5.8819   -2.3910    0.0000 H   0  0  0  0  0  0  0  0  0  0  0  0
    7.4639    3.0898    0.0000 H   0  0  0  0  0  0  0  0  0  0  0  0
   10.1310    2.2181    0.0000 H   0  0  0  0  0  0  0  0  0  0  0  0
    4.8709   -3.7850    0.0000 H   0  0  0  0  0  0  0  0  0  0  0  0
    2.8660   -0.7710    0.0000 H   0  0  0  0  0  0  0  0  0  0  0  0
    2.8660   -4.0110    0.0000 H   0  0  0  0  0  0  0  0  0  0  0  0
    1.4631   -1.5810    0.0000 H   0  0  0  0  0  0  0  0  0  0  0  0
    1.4631   -3.2010    0.0000 H   0  0  0  0  0  0  0  0  0  0  0  0
  1 20  1  0  0  0  0
  2  8  1  0  0  0  0
  2  9  1  0  0  0  0
  2 11  1  0  0  0  0
  3  5  1  0  0  0  0
  3 35  1  0  0  0  0
  3 36  1  0  0  0  0
  4 16  1  0  0  0  0
  4 17  1  0  0  0  0
  4 42  1  0  0  0  0
  5  6  1  0  0  0  0
  5  7  1  0  0  0  0
  5 10  1  0  0  0  0
  6  8  1  0  0  0  0
  6 25  1  0  0  0  0
  6 26  1  0  0  0  0
  7  9  1  0  0  0  0
  7 27  1  0  0  0  0
  7 28  1  0  0  0  0
  8 29  1  0  0  0  0
  8 30  1  0  0  0  0
  9 31  1  0  0  0  0
  9 32  1  0  0  0  0
 10 13  2  0  0  0  0
 10 14  1  0  0  0  0
 11 12  1  0  0  0  0
 11 33  1  0  0  0  0
 11 34  1  0  0  0  0
 12 15  1  0  0  0  0
 12 16  2  0  0  0  0
 13 18  1  0  0  0  0
 13 37  1  0  0  0  0
 14 19  2  0  0  0  0
 14 38  1  0  0  0  0
 15 17  1  0  0  0  0
 15 21  2  0  0  0  0
 16 39  1  0  0  0  0
 17 22  2  0  0  0  0
 18 20  2  0  0  0  0
 18 40  1  0  0  0  0
 19 20  1  0  0  0  0
 19 41  1  0  0  0  0
 21 23  1  0  0  0  0
 21 43  1  0  0  0  0
 22 24  1  0  0  0  0
 22 44  1  0  0  0  0
 23 24  2  0  0  0  0
 23 45  1  0  0  0  0
 24 46  1  0  0  0  0
M  END
> <PUBCHEM_COMPOUND_CID>
44438219

> <PUBCHEM_COMPOUND_CANONICALIZED>
1

> <PUBCHEM_CACTVS_COMPLEXITY>
413

> <PUBCHEM_CACTVS_HBOND_ACCEPTOR>
2

> <PUBCHEM_CACTVS_HBOND_DONOR>
2

> <PUBCHEM_CACTVS_ROTATABLE_BOND>
3

> <PUBCHEM_CACTVS_SUBSKEYS>
AAADceB7AAAEAAAAAAAAAAAAAAAAAWAAAAA8YIAAAAAAAFgB9AAAHAIQAAAADIrBHiQ8wPPJkACgAzRnRACCgCAxByAI2aA4ZpgIIOLB05GEIAhgkADIyAcQgMAOhAAAAAACAAAIAAAAAAQAAAAAAAAAAA==

> <PUBCHEM_IUPAC_OPENEYE_NAME>
4-(4-chlorophenyl)-1-(1H-indol-3-ylmethyl)piperidin-4-amine

> <PUBCHEM_IUPAC_CAS_NAME>
4-(4-chlorophenyl)-1-(1H-indol-3-ylmethyl)-4-piperidinamine

> <PUBCHEM_IUPAC_NAME_MARKUP>
4-(4-chlorophenyl)-1-(1<I>H</I>-indol-3-ylmethyl)piperidin-4-amine

> <PUBCHEM_IUPAC_NAME>
4-(4-chlorophenyl)-1-(1H-indol-3-ylmethyl)piperidin-4-amine

> <PUBCHEM_IUPAC_SYSTEMATIC_NAME>
4-(4-chlorophenyl)-1-(1H-indol-3-ylmethyl)piperidin-4-amine

> <PUBCHEM_IUPAC_TRADITIONAL_NAME>
[4-(4-chlorophenyl)-1-(1H-indol-3-ylmethyl)-4-piperidyl]amine

> <PUBCHEM_IUPAC_INCHI>
InChI=1S/C20H22ClN3/c21-17-7-5-16(6-8-17)20(22)9-11-24(12-10-20)14-15-13-23-19-4-2-1-3-18(15)19/h1-8,13,23H,9-12,14,22H2

> <PUBCHEM_IUPAC_INCHIKEY>
UHMCLVHQIYTYOA-UHFFFAOYSA-N

> <PUBCHEM_XLOGP3_AA>
3.4

> <PUBCHEM_EXACT_MASS>
339.1502254

> <PUBCHEM_MOLECULAR_FORMULA>
C20H22ClN3

> <PUBCHEM_MOLECULAR_WEIGHT>
339.9

> <PUBCHEM_OPENEYE_CAN_SMILES>
C1CN(CCC1(C2=CC=C(C=C2)Cl)N)CC3=CNC4=CC=CC=C43

> <PUBCHEM_OPENEYE_ISO_SMILES>
C1CN(CCC1(C2=CC=C(C=C2)Cl)N)CC3=CNC4=CC=CC=C43

> <PUBCHEM_CACTVS_TPSA>
45

> <PUBCHEM_MONOISOTOPIC_WEIGHT>
339.1502254

> <PUBCHEM_TOTAL_CHARGE>
0

> <PUBCHEM_HEAVY_ATOM_COUNT>
24

> <PUBCHEM_ATOM_DEF_STEREO_COUNT>
0

> <PUBCHEM_ATOM_UDEF_STEREO_COUNT>
0

> <PUBCHEM_BOND_DEF_STEREO_COUNT>
0

> <PUBCHEM_BOND_UDEF_STEREO_COUNT>
0

> <PUBCHEM_ISOTOPIC_ATOM_COUNT>
0

> <PUBCHEM_COMPONENT_COUNT>
1

> <PUBCHEM_CACTVS_TAUTO_COUNT>
-1

> <PUBCHEM_COORDINATE_TYPE>
1
5
255

> <PUBCHEM_BONDANNOTATIONS>
10  13  8
10  14  8
12  15  8
12  16  8
13  18  8
14  19  8
15  17  8
15  21  8
17  22  8
18  20  8
19  20  8
21  23  8
22  24  8
23  24  8
4  16  8
4  17  8

$$$$
