44454400
  -OEChem-09292322492D

 72 77  0     1  0  0  0  0  0999 V2000
    6.4431    1.7399    0.0000 S   0  0  0  0  0  0  0  0  0  0  0  0
    4.8934   -7.9188    0.0000 O   0  0  0  0  0  0  0  0  0  0  0  0
    5.9431   -2.5902    0.0000 N   0  0  3  0  0  0  0  0  0  0  0  0
    3.2368   -7.2776    0.0000 N   0  0  0  0  0  0  0  0  0  0  0  0
    4.9486    2.7105    0.0000 N   0  0  0  0  0  0  0  0  0  0  0  0
    6.3498    3.5195    0.0000 N   0  0  0  0  0  0  0  0  0  0  0  0
    5.6067    4.1886    0.0000 N   0  0  0  0  0  0  0  0  0  0  0  0
    2.6842    6.5307    0.0000 N   0  0  0  0  0  0  0  0  0  0  0  0
    4.9651   -2.5156    0.0000 C   0  0  0  0  0  0  0  0  0  0  0  0
    6.4967   -3.3998    0.0000 C   0  0  0  0  0  0  0  0  0  0  0  0
    4.4348   -4.2027    0.0000 C   0  0  0  0  0  0  0  0  0  0  0  0
    4.2951   -3.2319    0.0000 C   0  0  0  0  0  0  0  0  0  0  0  0
    5.3008   -4.7027    0.0000 C   0  0  0  0  0  0  0  0  0  0  0  0
    6.2114   -4.3382    0.0000 C   0  0  0  0  0  0  0  0  0  0  0  0
    6.4431   -1.7242    0.0000 C   0  0  0  0  0  0  0  0  0  0  0  0
    3.5687   -5.7027    0.0000 C   0  0  0  0  0  0  0  0  0  0  0  0
    4.4348   -6.2027    0.0000 C   0  0  0  0  0  0  0  0  0  0  0  0
    3.5687   -4.7027    0.0000 C   0  0  0  0  0  0  0  0  0  0  0  0
    5.3008   -5.7027    0.0000 C   0  0  0  0  0  0  0  0  0  0  0  0
    2.8317   -6.3698    0.0000 C   0  0  0  0  0  0  0  0  0  0  0  0
    5.9431   -0.8582    0.0000 C   0  0  0  0  0  0  0  0  0  0  0  0
    4.2256   -7.1745    0.0000 C   0  0  0  0  0  0  0  0  0  0  0  0
    6.4431    0.0079    0.0000 C   0  0  0  0  0  0  0  0  0  0  0  0
    2.7368   -8.1436    0.0000 C   0  0  0  0  0  0  0  0  0  0  0  0
    5.9431    0.8739    0.0000 C   0  0  0  0  0  0  0  0  0  0  0  0
    5.9431    2.6059    0.0000 C   0  0  0  0  0  0  0  0  0  0  0  0
    4.7406    3.6886    0.0000 C   0  0  0  0  0  0  0  0  0  0  0  0
    3.8271    4.0954    0.0000 C   0  0  0  0  0  0  0  0  0  0  0  0
    3.7226    5.0899    0.0000 C   0  0  0  0  0  0  0  0  0  0  0  0
    4.2794    1.9673    0.0000 C   0  0  0  0  0  0  0  0  0  0  0  0
    2.8090    5.4966    0.0000 C   0  0  0  0  0  0  0  0  0  0  0  0
    3.0181    3.5076    0.0000 C   0  0  0  0  0  0  0  0  0  0  0  0
    4.5746    5.6891    0.0000 C   0  0  0  0  0  0  0  0  0  0  0  0
    2.0000    4.9088    0.0000 C   0  0  0  0  0  0  0  0  0  0  0  0
    2.1045    3.9143    0.0000 C   0  0  0  0  0  0  0  0  0  0  0  0
    4.4737    6.7258    0.0000 C   0  0  0  0  0  0  0  0  0  0  0  0
    3.5221    7.1495    0.0000 C   0  0  0  0  0  0  0  0  0  0  0  0
    3.4138    8.1436    0.0000 C   0  0  0  0  0  0  0  0  0  0  0  0
    5.1492   -1.9236    0.0000 H   0  0  0  0  0  0  0  0  0  0  0  0
    4.4292   -2.2039    0.0000 H   0  0  0  0  0  0  0  0  0  0  0  0
    7.0346   -3.7082    0.0000 H   0  0  0  0  0  0  0  0  0  0  0  0
    6.9174   -2.9444    0.0000 H   0  0  0  0  0  0  0  0  0  0  0  0
    3.9484   -2.7179    0.0000 H   0  0  0  0  0  0  0  0  0  0  0  0
    3.7167   -3.4550    0.0000 H   0  0  0  0  0  0  0  0  0  0  0  0
    6.3073   -4.9508    0.0000 H   0  0  0  0  0  0  0  0  0  0  0  0
    6.8298   -4.3815    0.0000 H   0  0  0  0  0  0  0  0  0  0  0  0
    6.9180   -2.1227    0.0000 H   0  0  0  0  0  0  0  0  0  0  0  0
    6.9180   -1.3257    0.0000 H   0  0  0  0  0  0  0  0  0  0  0  0
    3.0318   -4.3927    0.0000 H   0  0  0  0  0  0  0  0  0  0  0  0
    5.8377   -6.0127    0.0000 H   0  0  0  0  0  0  0  0  0  0  0  0
    2.4663   -5.8689    0.0000 H   0  0  0  0  0  0  0  0  0  0  0  0
    2.2952   -6.6805    0.0000 H   0  0  0  0  0  0  0  0  0  0  0  0
    5.4681   -0.4596    0.0000 H   0  0  0  0  0  0  0  0  0  0  0  0
    5.4681   -1.2567    0.0000 H   0  0  0  0  0  0  0  0  0  0  0  0
    6.9180   -0.3907    0.0000 H   0  0  0  0  0  0  0  0  0  0  0  0
    6.9180    0.4064    0.0000 H   0  0  0  0  0  0  0  0  0  0  0  0
    2.1999   -7.8336    0.0000 H   0  0  0  0  0  0  0  0  0  0  0  0
    2.4268   -8.6805    0.0000 H   0  0  0  0  0  0  0  0  0  0  0  0
    3.2738   -8.4536    0.0000 H   0  0  0  0  0  0  0  0  0  0  0  0
    5.4681    1.2724    0.0000 H   0  0  0  0  0  0  0  0  0  0  0  0
    5.4681    0.4754    0.0000 H   0  0  0  0  0  0  0  0  0  0  0  0
    3.8187    2.3822    0.0000 H   0  0  0  0  0  0  0  0  0  0  0  0
    3.8646    1.5066    0.0000 H   0  0  0  0  0  0  0  0  0  0  0  0
    4.7402    1.5525    0.0000 H   0  0  0  0  0  0  0  0  0  0  0  0
    3.0829    2.8910    0.0000 H   0  0  0  0  0  0  0  0  0  0  0  0
    5.1380    5.4304    0.0000 H   0  0  0  0  0  0  0  0  0  0  0  0
    1.4336    5.1610    0.0000 H   0  0  0  0  0  0  0  0  0  0  0  0
    1.6029    3.5499    0.0000 H   0  0  0  0  0  0  0  0  0  0  0  0
    4.9767    7.0883    0.0000 H   0  0  0  0  0  0  0  0  0  0  0  0
    4.0301    8.2108    0.0000 H   0  0  0  0  0  0  0  0  0  0  0  0
    3.3466    8.7599    0.0000 H   0  0  0  0  0  0  0  0  0  0  0  0
    2.7974    8.0764    0.0000 H   0  0  0  0  0  0  0  0  0  0  0  0
  1 25  1  0  0  0  0
  1 26  1  0  0  0  0
  2 22  2  0  0  0  0
  3  9  1  0  0  0  0
  3 10  1  0  0  0  0
  3 15  1  0  0  0  0
  4 20  1  0  0  0  0
  4 22  1  0  0  0  0
  4 24  1  0  0  0  0
  5 26  1  0  0  0  0
  5 27  1  0  0  0  0
  5 30  1  0  0  0  0
  6  7  1  0  0  0  0
  6 26  2  0  0  0  0
  7 27  2  0  0  0  0
  8 31  1  0  0  0  0
  8 37  2  0  0  0  0
  9 12  1  0  0  0  0
  9 39  1  0  0  0  0
  9 40  1  0  0  0  0
 10 14  1  0  0  0  0
 10 41  1  0  0  0  0
 10 42  1  0  0  0  0
 11 12  1  0  0  0  0
 11 13  1  0  0  0  0
 11 18  2  0  0  0  0
 12 43  1  0  0  0  0
 12 44  1  0  0  0  0
 13 14  1  0  0  0  0
 13 19  2  0  0  0  0
 14 45  1  0  0  0  0
 14 46  1  0  0  0  0
 15 21  1  0  0  0  0
 15 47  1  0  0  0  0
 15 48  1  0  0  0  0
 16 17  2  0  0  0  0
 16 18  1  0  0  0  0
 16 20  1  0  0  0  0
 17 19  1  0  0  0  0
 17 22  1  0  0  0  0
 18 49  1  0  0  0  0
 19 50  1  0  0  0  0
 20 51  1  0  0  0  0
 20 52  1  0  0  0  0
 21 23  1  0  0  0  0
 21 53  1  0  0  0  0
 21 54  1  0  0  0  0
 23 25  1  0  0  0  0
 23 55  1  0  0  0  0
 23 56  1  0  0  0  0
 24 57  1  0  0  0  0
 24 58  1  0  0  0  0
 24 59  1  0  0  0  0
 25 60  1  0  0  0  0
 25 61  1  0  0  0  0
 27 28  1  0  0  0  0
 28 29  2  0  0  0  0
 28 32  1  0  0  0  0
 29 31  1  0  0  0  0
 29 33  1  0  0  0  0
 30 62  1  0  0  0  0
 30 63  1  0  0  0  0
 30 64  1  0  0  0  0
 31 34  2  0  0  0  0
 32 35  2  0  0  0  0
 32 65  1  0  0  0  0
 33 36  2  0  0  0  0
 33 66  1  0  0  0  0
 34 35  1  0  0  0  0
 34 67  1  0  0  0  0
 35 68  1  0  0  0  0
 36 37  1  0  0  0  0
 36 69  1  0  0  0  0
 37 38  1  0  0  0  0
 38 70  1  0  0  0  0
 38 71  1  0  0  0  0
 38 72  1  0  0  0  0
M  END
> <PUBCHEM_COMPOUND_CID>
44454400

> <PUBCHEM_COMPOUND_CANONICALIZED>
1

> <PUBCHEM_CACTVS_COMPLEXITY>
816

> <PUBCHEM_CACTVS_HBOND_ACCEPTOR>
6

> <PUBCHEM_CACTVS_HBOND_DONOR>
0

> <PUBCHEM_CACTVS_ROTATABLE_BOND>
7

> <PUBCHEM_CACTVS_SUBSKEYS>
AAADcfB7oABAAAAAAAAAAAAAAAAAAWLAAAA8YIAABYAAAFix/AAAHgQIAAAADAjF3wSz0PcMEAiqAydydACS0CtlArAd2CE4ZNiIKPLgnZGEIQhgjgLIyYcciMCOwAACQAASAACAAASAACQAAAAAAAAAAA==

> <PUBCHEM_IUPAC_OPENEYE_NAME>
2-methyl-7-[4-[[4-methyl-5-(2-methyl-5-quinolyl)-1,2,4-triazol-3-yl]sulfanyl]butyl]-5,6,8,9-tetrahydro-1H-pyrrolo[3,4-h][3]benzazepin-3-one

> <PUBCHEM_IUPAC_CAS_NAME>
2-methyl-7-[4-[[4-methyl-5-(2-methyl-5-quinolinyl)-1,2,4-triazol-3-yl]thio]butyl]-5,6,8,9-tetrahydro-1H-pyrrolo[3,4-h][3]benzazepin-3-one

> <PUBCHEM_IUPAC_NAME_MARKUP>
2-methyl-7-[4-[[4-methyl-5-(2-methylquinolin-5-yl)-1,2,4-triazol-3-yl]sulfanyl]butyl]-5,6,8,9-tetrahydro-1<I>H</I>-pyrrolo[3,4-h][3]benzazepin-3-one

> <PUBCHEM_IUPAC_NAME>
2-methyl-7-[4-[[4-methyl-5-(2-methylquinolin-5-yl)-1,2,4-triazol-3-yl]sulfanyl]butyl]-5,6,8,9-tetrahydro-1H-pyrrolo[3,4-h][3]benzazepin-3-one

> <PUBCHEM_IUPAC_SYSTEMATIC_NAME>
2-methyl-7-[4-[[4-methyl-5-(2-methylquinolin-5-yl)-1,2,4-triazol-3-yl]sulfanyl]butyl]-5,6,8,9-tetrahydro-1H-pyrrolo[3,4-h][3]benzazepin-3-one

> <PUBCHEM_IUPAC_TRADITIONAL_NAME>
2-methyl-7-[4-[[4-methyl-5-(2-methyl-5-quinolyl)-1,2,4-triazol-3-yl]thio]butyl]-5,6,8,9-tetrahydro-1H-pyrrolo[3,4-h][3]benzazepin-3-one

> <PUBCHEM_IUPAC_INCHI>
InChI=1S/C30H34N6OS/c1-20-9-10-24-25(7-6-8-27(24)31-20)28-32-33-30(35(28)3)38-16-5-4-13-36-14-11-21-17-23-19-34(2)29(37)26(23)18-22(21)12-15-36/h6-10,17-18H,4-5,11-16,19H2,1-3H3

> <PUBCHEM_IUPAC_INCHIKEY>
ABOWDNIHZHLENL-UHFFFAOYSA-N

> <PUBCHEM_XLOGP3_AA>
4.4

> <PUBCHEM_EXACT_MASS>
526.25148090

> <PUBCHEM_MOLECULAR_FORMULA>
C30H34N6OS

> <PUBCHEM_MOLECULAR_WEIGHT>
526.7

> <PUBCHEM_OPENEYE_CAN_SMILES>
CC1=NC2=CC=CC(=C2C=C1)C3=NN=C(N3C)SCCCCN4CCC5=CC6=C(C=C5CC4)C(=O)N(C6)C

> <PUBCHEM_OPENEYE_ISO_SMILES>
CC1=NC2=CC=CC(=C2C=C1)C3=NN=C(N3C)SCCCCN4CCC5=CC6=C(C=C5CC4)C(=O)N(C6)C

> <PUBCHEM_CACTVS_TPSA>
92.4

> <PUBCHEM_MONOISOTOPIC_WEIGHT>
526.25148090

> <PUBCHEM_TOTAL_CHARGE>
0

> <PUBCHEM_HEAVY_ATOM_COUNT>
38

> <PUBCHEM_ATOM_DEF_STEREO_COUNT>
0

> <PUBCHEM_ATOM_UDEF_STEREO_COUNT>
0

> <PUBCHEM_BOND_DEF_STEREO_COUNT>
0

> <PUBCHEM_BOND_UDEF_STEREO_COUNT>
0

> <PUBCHEM_ISOTOPIC_ATOM_COUNT>
0

> <PUBCHEM_COMPONENT_COUNT>
1

> <PUBCHEM_CACTVS_TAUTO_COUNT>
-1

> <PUBCHEM_COORDINATE_TYPE>
1
5
255

> <PUBCHEM_BONDANNOTATIONS>
11  13  8
11  18  8
13  19  8
16  17  8
16  18  8
17  19  8
28  29  8
28  32  8
29  31  8
29  33  8
31  34  8
32  35  8
33  36  8
34  35  8
36  37  8
5  26  8
5  27  8
6  26  8
6  7  8
7  27  8
8  31  8
8  37  8

$$$$
