77461254
  -OEChem-09292322022D

 69 73  0     1  0  0  0  0  0999 V2000
   15.0706    1.0547    0.0000 S   0  0  0  0  0  0  0  0  0  0  0  0
   11.5263    1.2500    0.0000 N   0  0  3  0  0  0  0  0  0  0  0  0
    8.9282    0.7500    0.0000 N   0  0  0  0  0  0  0  0  0  0  0  0
    7.1962   -0.2500    0.0000 N   0  0  0  0  0  0  0  0  0  0  0  0
   15.0706   -0.5547    0.0000 N   0  0  0  0  0  0  0  0  0  0  0  0
   16.6542    0.2500    0.0000 N   0  0  0  0  0  0  0  0  0  0  0  0
    4.5981   -0.7500    0.0000 N   0  0  0  0  0  0  0  0  0  0  0  0
    3.7320   -3.2500    0.0000 N   0  0  0  0  0  0  0  0  0  0  0  0
   12.3923    0.7500    0.0000 C   0  0  1  0  0  0  0  0  0  0  0  0
   12.3923   -0.2500    0.0000 C   0  0  0  0  0  0  0  0  0  0  0  0
   13.2583    1.2500    0.0000 C   0  0  0  0  0  0  0  0  0  0  0  0
   10.6603    0.7500    0.0000 C   0  0  0  0  0  0  0  0  0  0  0  0
    9.7942    1.2500    0.0000 C   0  0  0  0  0  0  0  0  0  0  0  0
   13.2583   -0.7500    0.0000 C   0  0  0  0  0  0  0  0  0  0  0  0
   11.5263    2.2500    0.0000 C   0  0  0  0  0  0  0  0  0  0  0  0
   14.1244    0.7500    0.0000 C   0  0  0  0  0  0  0  0  0  0  0  0
    8.0622    1.2500    0.0000 C   0  0  0  0  0  0  0  0  0  0  0  0
    8.9282   -0.2500    0.0000 C   0  0  0  0  0  0  0  0  0  0  0  0
   14.1244   -0.2500    0.0000 C   0  0  0  0  0  0  0  0  0  0  0  0
    7.1962    0.7500    0.0000 C   0  0  0  0  0  0  0  0  0  0  0  0
    8.0622   -0.7500    0.0000 C   0  0  0  0  0  0  0  0  0  0  0  0
   10.6603    2.7500    0.0000 C   0  0  0  0  0  0  0  0  0  0  0  0
    6.3301   -0.7500    0.0000 C   0  0  0  0  0  0  0  0  0  0  0  0
   15.6542    0.2500    0.0000 C   0  0  0  0  0  0  0  0  0  0  0  0
   10.6603    3.7500    0.0000 C   0  0  0  0  0  0  0  0  0  0  0  0
    6.3301   -1.7500    0.0000 C   0  0  0  0  0  0  0  0  0  0  0  0
    5.4641   -0.2500    0.0000 C   0  0  0  0  0  0  0  0  0  0  0  0
    5.4641   -2.2500    0.0000 C   0  0  0  0  0  0  0  0  0  0  0  0
    4.5981   -1.7500    0.0000 C   0  0  0  0  0  0  0  0  0  0  0  0
    3.7320   -2.2500    0.0000 C   0  0  0  0  0  0  0  0  0  0  0  0
    2.8660   -1.7500    0.0000 C   0  0  0  0  0  0  0  0  0  0  0  0
    2.0000   -2.2500    0.0000 C   0  0  0  0  0  0  0  0  0  0  0  0
    2.8660   -3.7500    0.0000 C   0  0  0  0  0  0  0  0  0  0  0  0
    2.0000   -3.2500    0.0000 C   0  0  0  0  0  0  0  0  0  0  0  0
   11.8554    0.4400    0.0000 H   0  0  0  0  0  0  0  0  0  0  0  0
   11.7817   -0.1423    0.0000 H   0  0  0  0  0  0  0  0  0  0  0  0
   12.1803   -0.8326    0.0000 H   0  0  0  0  0  0  0  0  0  0  0  0
   13.6569    1.7250    0.0000 H   0  0  0  0  0  0  0  0  0  0  0  0
   12.8598    1.7250    0.0000 H   0  0  0  0  0  0  0  0  0  0  0  0
   10.2617    0.2751    0.0000 H   0  0  0  0  0  0  0  0  0  0  0  0
   11.0588    0.2751    0.0000 H   0  0  0  0  0  0  0  0  0  0  0  0
   10.1928    1.7250    0.0000 H   0  0  0  0  0  0  0  0  0  0  0  0
    9.3957    1.7250    0.0000 H   0  0  0  0  0  0  0  0  0  0  0  0
   12.8598   -1.2250    0.0000 H   0  0  0  0  0  0  0  0  0  0  0  0
   13.6569   -1.2250    0.0000 H   0  0  0  0  0  0  0  0  0  0  0  0
   12.1369    2.1423    0.0000 H   0  0  0  0  0  0  0  0  0  0  0  0
   11.7383    2.8326    0.0000 H   0  0  0  0  0  0  0  0  0  0  0  0
    8.4607    1.7250    0.0000 H   0  0  0  0  0  0  0  0  0  0  0  0
    7.6636    1.7250    0.0000 H   0  0  0  0  0  0  0  0  0  0  0  0
    9.1403   -0.8326    0.0000 H   0  0  0  0  0  0  0  0  0  0  0  0
    9.5388   -0.1423    0.0000 H   0  0  0  0  0  0  0  0  0  0  0  0
    6.9841    1.3326    0.0000 H   0  0  0  0  0  0  0  0  0  0  0  0
    6.5856    0.6423    0.0000 H   0  0  0  0  0  0  0  0  0  0  0  0
    7.6636   -1.2250    0.0000 H   0  0  0  0  0  0  0  0  0  0  0  0
    8.4607   -1.2250    0.0000 H   0  0  0  0  0  0  0  0  0  0  0  0
   10.0497    2.8577    0.0000 H   0  0  0  0  0  0  0  0  0  0  0  0
   10.4482    2.1674    0.0000 H   0  0  0  0  0  0  0  0  0  0  0  0
   11.2803    3.7500    0.0000 H   0  0  0  0  0  0  0  0  0  0  0  0
   10.6603    4.3700    0.0000 H   0  0  0  0  0  0  0  0  0  0  0  0
   10.0403    3.7500    0.0000 H   0  0  0  0  0  0  0  0  0  0  0  0
    6.8671   -2.0600    0.0000 H   0  0  0  0  0  0  0  0  0  0  0  0
    5.4641    0.3700    0.0000 H   0  0  0  0  0  0  0  0  0  0  0  0
   16.9642   -0.2869    0.0000 H   0  0  0  0  0  0  0  0  0  0  0  0
   16.9642    0.7869    0.0000 H   0  0  0  0  0  0  0  0  0  0  0  0
    5.4641   -2.8700    0.0000 H   0  0  0  0  0  0  0  0  0  0  0  0
    2.8660   -1.1300    0.0000 H   0  0  0  0  0  0  0  0  0  0  0  0
    1.4631   -1.9400    0.0000 H   0  0  0  0  0  0  0  0  0  0  0  0
    2.8660   -4.3700    0.0000 H   0  0  0  0  0  0  0  0  0  0  0  0
    1.4631   -3.5600    0.0000 H   0  0  0  0  0  0  0  0  0  0  0  0
  1 16  1  0  0  0  0
  1 24  1  0  0  0  0
  9  2  1  6  0  0  0
  2 12  1  0  0  0  0
  2 15  1  0  0  0  0
  3 13  1  0  0  0  0
  3 17  1  0  0  0  0
  3 18  1  0  0  0  0
  4 20  1  0  0  0  0
  4 21  1  0  0  0  0
  4 23  1  0  0  0  0
  5 19  1  0  0  0  0
  5 24  2  0  0  0  0
  6 24  1  0  0  0  0
  6 63  1  0  0  0  0
  6 64  1  0  0  0  0
  7 27  1  0  0  0  0
  7 29  2  0  0  0  0
  8 30  1  0  0  0  0
  8 33  2  0  0  0  0
  9 10  1  0  0  0  0
  9 11  1  0  0  0  0
  9 35  1  0  0  0  0
 10 14  1  0  0  0  0
 10 36  1  0  0  0  0
 10 37  1  0  0  0  0
 11 16  1  0  0  0  0
 11 38  1  0  0  0  0
 11 39  1  0  0  0  0
 12 13  1  0  0  0  0
 12 40  1  0  0  0  0
 12 41  1  0  0  0  0
 13 42  1  0  0  0  0
 13 43  1  0  0  0  0
 14 19  1  0  0  0  0
 14 44  1  0  0  0  0
 14 45  1  0  0  0  0
 15 22  1  0  0  0  0
 15 46  1  0  0  0  0
 15 47  1  0  0  0  0
 16 19  2  0  0  0  0
 17 20  1  0  0  0  0
 17 48  1  0  0  0  0
 17 49  1  0  0  0  0
 18 21  1  0  0  0  0
 18 50  1  0  0  0  0
 18 51  1  0  0  0  0
 20 52  1  0  0  0  0
 20 53  1  0  0  0  0
 21 54  1  0  0  0  0
 21 55  1  0  0  0  0
 22 25  1  0  0  0  0
 22 56  1  0  0  0  0
 22 57  1  0  0  0  0
 23 26  1  0  0  0  0
 23 27  2  0  0  0  0
 25 58  1  0  0  0  0
 25 59  1  0  0  0  0
 25 60  1  0  0  0  0
 26 28  2  0  0  0  0
 26 61  1  0  0  0  0
 27 62  1  0  0  0  0
 28 29  1  0  0  0  0
 28 65  1  0  0  0  0
 29 30  1  0  0  0  0
 30 31  2  0  0  0  0
 31 32  1  0  0  0  0
 31 66  1  0  0  0  0
 32 34  2  0  0  0  0
 32 67  1  0  0  0  0
 33 34  1  0  0  0  0
 33 68  1  0  0  0  0
 34 69  1  0  0  0  0
M  END
> <PUBCHEM_COMPOUND_CID>
77461254

> <PUBCHEM_COMPOUND_CANONICALIZED>
1

> <PUBCHEM_CACTVS_COMPLEXITY>
616

> <PUBCHEM_CACTVS_HBOND_ACCEPTOR>
8

> <PUBCHEM_CACTVS_HBOND_DONOR>
1

> <PUBCHEM_CACTVS_ROTATABLE_BOND>
8

> <PUBCHEM_CACTVS_SUBSKEYS>
AAADcfB7gABAAAAAAAAAAAAAAAAAAWAAAAA8WLEAAAAAAFgB+AAAHAQQAAAACCjBVgQ/0ZNIEAikATRnZACC8KlxGjkI2DQ4dJiIYOLgkZGUIAhggALIyCcQgIAAAAAAAAAAAAAAAQAAQAACAAAAAAAAAA==

> <PUBCHEM_IUPAC_OPENEYE_NAME>
(6S)-N6-propyl-N6-[2-[4-[6-(2-pyridyl)-3-pyridyl]piperazin-1-yl]ethyl]-4,5,6,7-tetrahydro-1,3-benzothiazole-2,6-diamine

> <PUBCHEM_IUPAC_CAS_NAME>
(6S)-N6-propyl-N6-[2-[4-[6-(2-pyridinyl)-3-pyridinyl]-1-piperazinyl]ethyl]-4,5,6,7-tetrahydro-1,3-benzothiazole-2,6-diamine

> <PUBCHEM_IUPAC_NAME_MARKUP>
(6<I>S</I>)-6-<I>N</I>-propyl-6-<I>N</I>-[2-[4-(6-pyridin-2-ylpyridin-3-yl)piperazin-1-yl]ethyl]-4,5,6,7-tetrahydro-1,3-benzothiazole-2,6-diamine

> <PUBCHEM_IUPAC_NAME>
(6S)-6-N-propyl-6-N-[2-[4-(6-pyridin-2-ylpyridin-3-yl)piperazin-1-yl]ethyl]-4,5,6,7-tetrahydro-1,3-benzothiazole-2,6-diamine

> <PUBCHEM_IUPAC_SYSTEMATIC_NAME>
(6S)-N6-propyl-N6-[2-[4-(6-pyridin-2-ylpyridin-3-yl)piperazin-1-yl]ethyl]-4,5,6,7-tetrahydro-1,3-benzothiazole-2,6-diamine

> <PUBCHEM_IUPAC_TRADITIONAL_NAME>
[(6S)-2-amino-4,5,6,7-tetrahydro-1,3-benzothiazol-6-yl]-propyl-[2-[4-[6-(2-pyridyl)-3-pyridyl]piperazino]ethyl]amine

> <PUBCHEM_IUPAC_INCHI>
InChI=1S/C26H35N7S/c1-2-11-32(20-6-9-24-25(18-20)34-26(27)30-24)15-12-31-13-16-33(17-14-31)21-7-8-23(29-19-21)22-5-3-4-10-28-22/h3-5,7-8,10,19-20H,2,6,9,11-18H2,1H3,(H2,27,30)/t20-/m0/s1

> <PUBCHEM_IUPAC_INCHIKEY>
WQTLRHZZRMRHMI-FQEVSTJZSA-N

> <PUBCHEM_XLOGP3_AA>
3.5

> <PUBCHEM_EXACT_MASS>
477.26746532

> <PUBCHEM_MOLECULAR_FORMULA>
C26H35N7S

> <PUBCHEM_MOLECULAR_WEIGHT>
477.7

> <PUBCHEM_OPENEYE_CAN_SMILES>
CCCN(CCN1CCN(CC1)C2=CN=C(C=C2)C3=CC=CC=N3)C4CCC5=C(C4)SC(=N5)N

> <PUBCHEM_OPENEYE_ISO_SMILES>
CCCN(CCN1CCN(CC1)C2=CN=C(C=C2)C3=CC=CC=N3)[C@H]4CCC5=C(C4)SC(=N5)N

> <PUBCHEM_CACTVS_TPSA>
103

> <PUBCHEM_MONOISOTOPIC_WEIGHT>
477.26746532

> <PUBCHEM_TOTAL_CHARGE>
0

> <PUBCHEM_HEAVY_ATOM_COUNT>
34

> <PUBCHEM_ATOM_DEF_STEREO_COUNT>
1

> <PUBCHEM_ATOM_UDEF_STEREO_COUNT>
0

> <PUBCHEM_BOND_DEF_STEREO_COUNT>
0

> <PUBCHEM_BOND_UDEF_STEREO_COUNT>
0

> <PUBCHEM_ISOTOPIC_ATOM_COUNT>
0

> <PUBCHEM_COMPONENT_COUNT>
1

> <PUBCHEM_CACTVS_TAUTO_COUNT>
-1

> <PUBCHEM_COORDINATE_TYPE>
1
5
255

> <PUBCHEM_BONDANNOTATIONS>
1  16  8
1  24  8
16  19  8
9  2  6
23  26  8
23  27  8
26  28  8
28  29  8
30  31  8
31  32  8
32  34  8
33  34  8
5  19  8
5  24  8
7  27  8
7  29  8
8  30  8
8  33  8

$$$$
