121315481
  -OEChem-09292322442D

 59 63  0     1  0  0  0  0  0999 V2000
    6.4659    1.3640    0.0000 S   0  0  0  0  0  0  0  0  0  0  0  0
    2.8090    2.8453    0.0000 O   0  0  0  0  0  0  0  0  0  0  0  0
    6.8280   -2.0812    0.0000 N   0  0  3  0  0  0  0  0  0  0  0  0
    4.8781    2.1730    0.0000 N   0  0  0  0  0  0  0  0  0  0  0  0
    6.1871    3.1240    0.0000 N   0  0  0  0  0  0  0  0  0  0  0  0
    5.3781    3.7118    0.0000 N   0  0  0  0  0  0  0  0  0  0  0  0
    2.3090    4.3841    0.0000 N   0  0  0  0  0  0  0  0  0  0  0  0
    7.3280   -3.6200    0.0000 C   0  0  2  0  0  0  0  0  0  0  0  0
    8.0351   -4.3271    0.0000 C   0  0  1  0  0  0  0  0  0  0  0  0
    6.6209   -4.3271    0.0000 C   0  0  0  0  0  0  0  0  0  0  0  0
    7.3280   -5.0342    0.0000 C   0  0  0  0  0  0  0  0  0  0  0  0
    8.1370   -3.0322    0.0000 C   0  0  0  0  0  0  0  0  0  0  0  0
    6.5190   -3.0322    0.0000 C   0  0  0  0  0  0  0  0  0  0  0  0
    7.8280   -2.0812    0.0000 C   0  0  0  0  0  0  0  0  0  0  0  0
    9.0351   -4.3271    0.0000 C   0  0  0  0  0  0  0  0  0  0  0  0
    6.2402   -1.2721    0.0000 C   0  0  0  0  0  0  0  0  0  0  0  0
    9.5351   -3.4611    0.0000 C   0  0  0  0  0  0  0  0  0  0  0  0
    9.5351   -5.1931    0.0000 C   0  0  0  0  0  0  0  0  0  0  0  0
    6.6469   -0.3586    0.0000 C   0  0  0  0  0  0  0  0  0  0  0  0
   10.5351   -3.4611    0.0000 C   0  0  0  0  0  0  0  0  0  0  0  0
   10.5351   -5.1931    0.0000 C   0  0  0  0  0  0  0  0  0  0  0  0
    6.0592    0.4504    0.0000 C   0  0  0  0  0  0  0  0  0  0  0  0
   11.0351   -4.3271    0.0000 C   0  0  0  0  0  0  0  0  0  0  0  0
    5.8781    2.1730    0.0000 C   0  0  0  0  0  0  0  0  0  0  0  0
    4.5691    3.1240    0.0000 C   0  0  0  0  0  0  0  0  0  0  0  0
    4.2903    1.3640    0.0000 C   0  0  0  0  0  0  0  0  0  0  0  0
    3.6180    3.4331    0.0000 C   0  0  0  0  0  0  0  0  0  0  0  0
    3.3090    4.3841    0.0000 C   0  0  0  0  0  0  0  0  0  0  0  0
    3.8968    5.1931    0.0000 C   0  0  0  0  0  0  0  0  0  0  0  0
    2.0000    3.4331    0.0000 C   0  0  0  0  0  0  0  0  0  0  0  0
    8.2724   -4.8999    0.0000 H   0  0  0  0  0  0  0  0  0  0  0  0
    6.1825   -3.8887    0.0000 H   0  0  0  0  0  0  0  0  0  0  0  0
    6.1825   -4.7655    0.0000 H   0  0  0  0  0  0  0  0  0  0  0  0
    6.8896   -5.4726    0.0000 H   0  0  0  0  0  0  0  0  0  0  0  0
    7.7664   -5.4726    0.0000 H   0  0  0  0  0  0  0  0  0  0  0  0
    8.4470   -3.5692    0.0000 H   0  0  0  0  0  0  0  0  0  0  0  0
    8.7034   -2.7800    0.0000 H   0  0  0  0  0  0  0  0  0  0  0  0
    5.9526   -2.7800    0.0000 H   0  0  0  0  0  0  0  0  0  0  0  0
    6.2090   -3.5692    0.0000 H   0  0  0  0  0  0  0  0  0  0  0  0
    8.4344   -1.9522    0.0000 H   0  0  0  0  0  0  0  0  0  0  0  0
    7.7632   -1.4646    0.0000 H   0  0  0  0  0  0  0  0  0  0  0  0
    5.7262   -0.9254    0.0000 H   0  0  0  0  0  0  0  0  0  0  0  0
    5.8095   -1.7181    0.0000 H   0  0  0  0  0  0  0  0  0  0  0  0
    9.2251   -2.9241    0.0000 H   0  0  0  0  0  0  0  0  0  0  0  0
    9.2251   -5.7301    0.0000 H   0  0  0  0  0  0  0  0  0  0  0  0
    7.1609   -0.7053    0.0000 H   0  0  0  0  0  0  0  0  0  0  0  0
    7.0776    0.0874    0.0000 H   0  0  0  0  0  0  0  0  0  0  0  0
   10.8451   -2.9241    0.0000 H   0  0  0  0  0  0  0  0  0  0  0  0
   10.8451   -5.7301    0.0000 H   0  0  0  0  0  0  0  0  0  0  0  0
    5.5451    0.7971    0.0000 H   0  0  0  0  0  0  0  0  0  0  0  0
    5.6285    0.0044    0.0000 H   0  0  0  0  0  0  0  0  0  0  0  0
   11.6551   -4.3271    0.0000 H   0  0  0  0  0  0  0  0  0  0  0  0
    3.7887    1.7284    0.0000 H   0  0  0  0  0  0  0  0  0  0  0  0
    3.9259    0.8624    0.0000 H   0  0  0  0  0  0  0  0  0  0  0  0
    4.7919    0.9995    0.0000 H   0  0  0  0  0  0  0  0  0  0  0  0
    4.3984    4.8287    0.0000 H   0  0  0  0  0  0  0  0  0  0  0  0
    4.2612    5.6947    0.0000 H   0  0  0  0  0  0  0  0  0  0  0  0
    3.3952    5.5576    0.0000 H   0  0  0  0  0  0  0  0  0  0  0  0
    1.4103    3.2415    0.0000 H   0  0  0  0  0  0  0  0  0  0  0  0
  1 22  1  0  0  0  0
  1 24  1  0  0  0  0
  2 27  1  0  0  0  0
  2 30  1  0  0  0  0
  3 13  1  0  0  0  0
  3 14  1  0  0  0  0
  3 16  1  0  0  0  0
  4 24  1  0  0  0  0
  4 25  1  0  0  0  0
  4 26  1  0  0  0  0
  5  6  1  0  0  0  0
  5 24  2  0  0  0  0
  6 25  2  0  0  0  0
  7 28  1  0  0  0  0
  7 30  2  0  0  0  0
  8  9  1  0  0  0  0
  8 10  1  6  0  0  0
  8 12  1  0  0  0  0
  8 13  1  0  0  0  0
  9 11  1  0  0  0  0
  9 15  1  6  0  0  0
  9 31  1  0  0  0  0
 10 11  1  0  0  0  0
 10 32  1  0  0  0  0
 10 33  1  0  0  0  0
 11 34  1  0  0  0  0
 11 35  1  0  0  0  0
 12 14  1  0  0  0  0
 12 36  1  0  0  0  0
 12 37  1  0  0  0  0
 13 38  1  0  0  0  0
 13 39  1  0  0  0  0
 14 40  1  0  0  0  0
 14 41  1  0  0  0  0
 15 17  2  0  0  0  0
 15 18  1  0  0  0  0
 16 19  1  0  0  0  0
 16 42  1  0  0  0  0
 16 43  1  0  0  0  0
 17 20  1  0  0  0  0
 17 44  1  0  0  0  0
 18 21  2  0  0  0  0
 18 45  1  0  0  0  0
 19 22  1  0  0  0  0
 19 46  1  0  0  0  0
 19 47  1  0  0  0  0
 20 23  2  0  0  0  0
 20 48  1  0  0  0  0
 21 23  1  0  0  0  0
 21 49  1  0  0  0  0
 22 50  1  0  0  0  0
 22 51  1  0  0  0  0
 23 52  1  0  0  0  0
 25 27  1  0  0  0  0
 26 53  1  0  0  0  0
 26 54  1  0  0  0  0
 26 55  1  0  0  0  0
 27 28  2  0  0  0  0
 28 29  1  0  0  0  0
 29 56  1  0  0  0  0
 29 57  1  0  0  0  0
 29 58  1  0  0  0  0
 30 59  1  0  0  0  0
M  END
> <PUBCHEM_COMPOUND_CID>
121315481

> <PUBCHEM_COMPOUND_CANONICALIZED>
1

> <PUBCHEM_CACTVS_COMPLEXITY>
576

> <PUBCHEM_CACTVS_HBOND_ACCEPTOR>
6

> <PUBCHEM_CACTVS_HBOND_DONOR>
0

> <PUBCHEM_CACTVS_ROTATABLE_BOND>
7

> <PUBCHEM_CACTVS_SUBSKEYS>
AAADceB7oABAAAAAAAAAAAAAAABgAWLFgAAwAAAAAAAAAAAB8AAAHgQIAAAADwzF3wa3lJcMFEiqA6Zz9ASS2Ct7YLAd2CG9RJiOKCLk2TCNIChgjALYiAcQgMAPgAAAAAAAAAAAAAAAAAAAAAAAAAAAAA==

> <PUBCHEM_IUPAC_OPENEYE_NAME>
4-methyl-5-[4-methyl-5-[3-[(3S,4S)-3-phenyl-6-azaspiro[3.4]octan-6-yl]propylsulfanyl]-1,2,4-triazol-3-yl]oxazole

> <PUBCHEM_IUPAC_CAS_NAME>
4-methyl-5-[4-methyl-5-[3-[(3S,4S)-3-phenyl-6-azaspiro[3.4]octan-6-yl]propylthio]-1,2,4-triazol-3-yl]oxazole

> <PUBCHEM_IUPAC_NAME_MARKUP>
4-methyl-5-[4-methyl-5-[3-[(3<I>S</I>,4<I>S</I>)-3-phenyl-6-azaspiro[3.4]octan-6-yl]propylsulfanyl]-1,2,4-triazol-3-yl]-1,3-oxazole

> <PUBCHEM_IUPAC_NAME>
4-methyl-5-[4-methyl-5-[3-[(3S,4S)-3-phenyl-6-azaspiro[3.4]octan-6-yl]propylsulfanyl]-1,2,4-triazol-3-yl]-1,3-oxazole

> <PUBCHEM_IUPAC_SYSTEMATIC_NAME>
4-methyl-5-[4-methyl-5-[3-[(3S,4S)-3-phenyl-6-azaspiro[3.4]octan-6-yl]propylsulfanyl]-1,2,4-triazol-3-yl]-1,3-oxazole

> <PUBCHEM_IUPAC_TRADITIONAL_NAME>
4-methyl-5-[4-methyl-5-[3-[(3S,4S)-3-phenyl-6-azaspiro[3.4]octan-6-yl]propylthio]-1,2,4-triazol-3-yl]oxazole

> <PUBCHEM_IUPAC_INCHI>
InChI=1S/C23H29N5OS/c1-17-20(29-16-24-17)21-25-26-22(27(21)2)30-14-6-12-28-13-11-23(15-28)10-9-19(23)18-7-4-3-5-8-18/h3-5,7-8,16,19H,6,9-15H2,1-2H3/t19-,23+/m0/s1

> <PUBCHEM_IUPAC_INCHIKEY>
LXCQXRDWKLZRPW-WMZHIEFXSA-N

> <PUBCHEM_XLOGP3_AA>
3.8

> <PUBCHEM_EXACT_MASS>
423.20928174

> <PUBCHEM_MOLECULAR_FORMULA>
C23H29N5OS

> <PUBCHEM_MOLECULAR_WEIGHT>
423.6

> <PUBCHEM_OPENEYE_CAN_SMILES>
CC1=C(OC=N1)C2=NN=C(N2C)SCCCN3CCC4(C3)CCC4C5=CC=CC=C5

> <PUBCHEM_OPENEYE_ISO_SMILES>
CC1=C(OC=N1)C2=NN=C(N2C)SCCCN3CC[C@@]4(C3)CC[C@H]4C5=CC=CC=C5

> <PUBCHEM_CACTVS_TPSA>
85.3

> <PUBCHEM_MONOISOTOPIC_WEIGHT>
423.20928174

> <PUBCHEM_TOTAL_CHARGE>
0

> <PUBCHEM_HEAVY_ATOM_COUNT>
30

> <PUBCHEM_ATOM_DEF_STEREO_COUNT>
2

> <PUBCHEM_ATOM_UDEF_STEREO_COUNT>
0

> <PUBCHEM_BOND_DEF_STEREO_COUNT>
0

> <PUBCHEM_BOND_UDEF_STEREO_COUNT>
0

> <PUBCHEM_ISOTOPIC_ATOM_COUNT>
0

> <PUBCHEM_COMPONENT_COUNT>
1

> <PUBCHEM_CACTVS_TAUTO_COUNT>
-1

> <PUBCHEM_COORDINATE_TYPE>
1
5
255

> <PUBCHEM_BONDANNOTATIONS>
15  17  8
15  18  8
17  20  8
18  21  8
2  27  8
2  30  8
20  23  8
21  23  8
27  28  8
4  24  8
4  25  8
5  24  8
5  6  8
6  25  8
7  28  8
7  30  8
8  10  6
9  15  6

$$$$
