121304452
  -OEChem-09292322372D

 66 71  0     1  0  0  0  0  0999 V2000
    3.9538    0.4147    0.0000 S   0  0  0  0  0  0  0  0  0  0  0  0
    9.6460   -7.9353    0.0000 F   0  0  0  0  0  0  0  0  0  0  0  0
    8.2800   -8.3014    0.0000 F   0  0  0  0  0  0  0  0  0  0  0  0
    9.2800   -6.5693    0.0000 F   0  0  0  0  0  0  0  0  0  0  0  0
    3.6750    7.3503    0.0000 O   0  0  0  0  0  0  0  0  0  0  0  0
    4.3159   -3.0305    0.0000 N   0  0  3  0  0  0  0  0  0  0  0  0
    3.6750    2.1747    0.0000 N   0  0  0  0  0  0  0  0  0  0  0  0
    2.3660    1.2237    0.0000 N   0  0  0  0  0  0  0  0  0  0  0  0
    2.0570    2.1747    0.0000 N   0  0  0  0  0  0  0  0  0  0  0  0
    2.0570    7.3503    0.0000 N   0  0  0  0  0  0  0  0  0  0  0  0
    4.8159   -4.5693    0.0000 C   0  0  2  0  0  0  0  0  0  0  0  0
    5.3159   -5.4353    0.0000 C   0  0  2  0  0  0  0  0  0  0  0  0
    4.3159   -5.4353    0.0000 C   0  0  0  0  0  0  0  0  0  0  0  0
    5.6249   -3.9815    0.0000 C   0  0  0  0  0  0  0  0  0  0  0  0
    4.0069   -3.9815    0.0000 C   0  0  0  0  0  0  0  0  0  0  0  0
    5.3159   -3.0305    0.0000 C   0  0  0  0  0  0  0  0  0  0  0  0
    6.1819   -5.9353    0.0000 C   0  0  0  0  0  0  0  0  0  0  0  0
    3.7281   -2.2214    0.0000 C   0  0  0  0  0  0  0  0  0  0  0  0
    7.0480   -5.4353    0.0000 C   0  0  0  0  0  0  0  0  0  0  0  0
    6.1819   -6.9353    0.0000 C   0  0  0  0  0  0  0  0  0  0  0  0
    4.1349   -1.3079    0.0000 C   0  0  0  0  0  0  0  0  0  0  0  0
    7.9140   -5.9353    0.0000 C   0  0  0  0  0  0  0  0  0  0  0  0
    7.0480   -7.4353    0.0000 C   0  0  0  0  0  0  0  0  0  0  0  0
    7.9140   -6.9353    0.0000 C   0  0  0  0  0  0  0  0  0  0  0  0
    3.5471   -0.4989    0.0000 C   0  0  0  0  0  0  0  0  0  0  0  0
    8.7800   -7.4353    0.0000 C   0  0  0  0  0  0  0  0  0  0  0  0
    3.3660    1.2237    0.0000 C   0  0  0  0  0  0  0  0  0  0  0  0
    2.8660    2.7625    0.0000 C   0  0  0  0  0  0  0  0  0  0  0  0
    4.6261    2.4838    0.0000 C   0  0  0  0  0  0  0  0  0  0  0  0
    2.8660    3.7625    0.0000 C   0  0  0  0  0  0  0  0  0  0  0  0
    2.0000    4.2625    0.0000 C   0  0  0  0  0  0  0  0  0  0  0  0
    3.7320    4.2625    0.0000 C   0  0  0  0  0  0  0  0  0  0  0  0
    2.0000    5.2625    0.0000 C   0  0  0  0  0  0  0  0  0  0  0  0
    3.7320    5.2625    0.0000 C   0  0  0  0  0  0  0  0  0  0  0  0
    2.8660    5.7625    0.0000 C   0  0  0  0  0  0  0  0  0  0  0  0
    2.8660    6.7625    0.0000 C   0  0  0  0  0  0  0  0  0  0  0  0
    3.3660    8.3014    0.0000 C   0  0  0  0  0  0  0  0  0  0  0  0
    2.3660    8.3014    0.0000 C   0  0  0  0  0  0  0  0  0  0  0  0
    5.1554   -6.0342    0.0000 H   0  0  0  0  0  0  0  0  0  0  0  0
    3.7333   -5.2233    0.0000 H   0  0  0  0  0  0  0  0  0  0  0  0
    4.2082   -6.0459    0.0000 H   0  0  0  0  0  0  0  0  0  0  0  0
    5.9349   -4.5185    0.0000 H   0  0  0  0  0  0  0  0  0  0  0  0
    6.1913   -3.7294    0.0000 H   0  0  0  0  0  0  0  0  0  0  0  0
    3.4405   -3.7294    0.0000 H   0  0  0  0  0  0  0  0  0  0  0  0
    3.6969   -4.5185    0.0000 H   0  0  0  0  0  0  0  0  0  0  0  0
    5.9224   -2.9016    0.0000 H   0  0  0  0  0  0  0  0  0  0  0  0
    5.2511   -2.4139    0.0000 H   0  0  0  0  0  0  0  0  0  0  0  0
    3.2141   -1.8748    0.0000 H   0  0  0  0  0  0  0  0  0  0  0  0
    3.2974   -2.6674    0.0000 H   0  0  0  0  0  0  0  0  0  0  0  0
    7.0480   -4.8153    0.0000 H   0  0  0  0  0  0  0  0  0  0  0  0
    5.6450   -7.2453    0.0000 H   0  0  0  0  0  0  0  0  0  0  0  0
    4.6489   -1.6546    0.0000 H   0  0  0  0  0  0  0  0  0  0  0  0
    4.5656   -0.8619    0.0000 H   0  0  0  0  0  0  0  0  0  0  0  0
    8.4509   -5.6253    0.0000 H   0  0  0  0  0  0  0  0  0  0  0  0
    7.0480   -8.0553    0.0000 H   0  0  0  0  0  0  0  0  0  0  0  0
    3.0331   -0.1522    0.0000 H   0  0  0  0  0  0  0  0  0  0  0  0
    3.1164   -0.9449    0.0000 H   0  0  0  0  0  0  0  0  0  0  0  0
    4.8177    1.8941    0.0000 H   0  0  0  0  0  0  0  0  0  0  0  0
    5.2158    2.6753    0.0000 H   0  0  0  0  0  0  0  0  0  0  0  0
    4.4345    3.0734    0.0000 H   0  0  0  0  0  0  0  0  0  0  0  0
    1.4631    3.9525    0.0000 H   0  0  0  0  0  0  0  0  0  0  0  0
    4.2690    3.9525    0.0000 H   0  0  0  0  0  0  0  0  0  0  0  0
    1.4631    5.5725    0.0000 H   0  0  0  0  0  0  0  0  0  0  0  0
    4.2690    5.5725    0.0000 H   0  0  0  0  0  0  0  0  0  0  0  0
    3.7304    8.8029    0.0000 H   0  0  0  0  0  0  0  0  0  0  0  0
    2.0016    8.8029    0.0000 H   0  0  0  0  0  0  0  0  0  0  0  0
  1 25  1  0  0  0  0
  1 27  1  0  0  0  0
  2 26  1  0  0  0  0
  3 26  1  0  0  0  0
  4 26  1  0  0  0  0
  5 36  1  0  0  0  0
  5 37  1  0  0  0  0
  6 15  1  0  0  0  0
  6 16  1  0  0  0  0
  6 18  1  0  0  0  0
  7 27  1  0  0  0  0
  7 28  1  0  0  0  0
  7 29  1  0  0  0  0
  8  9  1  0  0  0  0
  8 27  2  0  0  0  0
  9 28  2  0  0  0  0
 10 36  2  0  0  0  0
 10 38  1  0  0  0  0
 11 12  1  0  0  0  0
 11 13  1  6  0  0  0
 11 14  1  0  0  0  0
 11 15  1  0  0  0  0
 12 13  1  0  0  0  0
 12 17  1  1  0  0  0
 12 39  1  0  0  0  0
 13 40  1  0  0  0  0
 13 41  1  0  0  0  0
 14 16  1  0  0  0  0
 14 42  1  0  0  0  0
 14 43  1  0  0  0  0
 15 44  1  0  0  0  0
 15 45  1  0  0  0  0
 16 46  1  0  0  0  0
 16 47  1  0  0  0  0
 17 19  2  0  0  0  0
 17 20  1  0  0  0  0
 18 21  1  0  0  0  0
 18 48  1  0  0  0  0
 18 49  1  0  0  0  0
 19 22  1  0  0  0  0
 19 50  1  0  0  0  0
 20 23  2  0  0  0  0
 20 51  1  0  0  0  0
 21 25  1  0  0  0  0
 21 52  1  0  0  0  0
 21 53  1  0  0  0  0
 22 24  2  0  0  0  0
 22 54  1  0  0  0  0
 23 24  1  0  0  0  0
 23 55  1  0  0  0  0
 24 26  1  0  0  0  0
 25 56  1  0  0  0  0
 25 57  1  0  0  0  0
 28 30  1  0  0  0  0
 29 58  1  0  0  0  0
 29 59  1  0  0  0  0
 29 60  1  0  0  0  0
 30 31  2  0  0  0  0
 30 32  1  0  0  0  0
 31 33  1  0  0  0  0
 31 61  1  0  0  0  0
 32 34  2  0  0  0  0
 32 62  1  0  0  0  0
 33 35  2  0  0  0  0
 33 63  1  0  0  0  0
 34 35  1  0  0  0  0
 34 64  1  0  0  0  0
 35 36  1  0  0  0  0
 37 38  2  0  0  0  0
 37 65  1  0  0  0  0
 38 66  1  0  0  0  0
M  END
> <PUBCHEM_COMPOUND_CID>
121304452

> <PUBCHEM_COMPOUND_CANONICALIZED>
1

> <PUBCHEM_CACTVS_COMPLEXITY>
791

> <PUBCHEM_CACTVS_HBOND_ACCEPTOR>
9

> <PUBCHEM_CACTVS_HBOND_DONOR>
0

> <PUBCHEM_CACTVS_ROTATABLE_BOND>
8

> <PUBCHEM_CACTVS_SUBSKEYS>
AAADceB7oYBAAAAAAAAAAAAAGAAAAWLFgAAwYAAAAAAAAAAB9AAAHwQIAAAADwDl2xa/lJcMFEiqAjt39ASS2Ct/QrAdyCG7LNiOLrKgvTmPOQjkzgOYqYeYyPCPwAAAAAAAAACAAAAAAAAAAAAAAAAAAA==

> <PUBCHEM_IUPAC_OPENEYE_NAME>
2-[4-[4-methyl-5-[3-[(2R,3S)-2-[4-(trifluoromethyl)phenyl]-5-azaspiro[2.4]heptan-5-yl]propylsulfanyl]-1,2,4-triazol-3-yl]phenyl]oxazole

> <PUBCHEM_IUPAC_CAS_NAME>
2-[4-[4-methyl-5-[3-[(2R,3S)-2-[4-(trifluoromethyl)phenyl]-5-azaspiro[2.4]heptan-5-yl]propylthio]-1,2,4-triazol-3-yl]phenyl]oxazole

> <PUBCHEM_IUPAC_NAME_MARKUP>
2-[4-[4-methyl-5-[3-[(2<I>R</I>,3<I>S</I>)-2-[4-(trifluoromethyl)phenyl]-5-azaspiro[2.4]heptan-5-yl]propylsulfanyl]-1,2,4-triazol-3-yl]phenyl]-1,3-oxazole

> <PUBCHEM_IUPAC_NAME>
2-[4-[4-methyl-5-[3-[(2R,3S)-2-[4-(trifluoromethyl)phenyl]-5-azaspiro[2.4]heptan-5-yl]propylsulfanyl]-1,2,4-triazol-3-yl]phenyl]-1,3-oxazole

> <PUBCHEM_IUPAC_SYSTEMATIC_NAME>
2-[4-[4-methyl-5-[3-[(2R,3S)-2-[4-(trifluoromethyl)phenyl]-5-azaspiro[2.4]heptan-5-yl]propylsulfanyl]-1,2,4-triazol-3-yl]phenyl]-1,3-oxazole

> <PUBCHEM_IUPAC_TRADITIONAL_NAME>
2-[4-[4-methyl-5-[3-[(2R,3S)-2-[4-(trifluoromethyl)phenyl]-5-azaspiro[2.4]heptan-5-yl]propylthio]-1,2,4-triazol-3-yl]phenyl]oxazole

> <PUBCHEM_IUPAC_INCHI>
InChI=1S/C28H28F3N5OS/c1-35-24(20-3-5-21(6-4-20)25-32-12-15-37-25)33-34-26(35)38-16-2-13-36-14-11-27(18-36)17-23(27)19-7-9-22(10-8-19)28(29,30)31/h3-10,12,15,23H,2,11,13-14,16-18H2,1H3/t23-,27+/m1/s1

> <PUBCHEM_IUPAC_INCHIKEY>
NIFGQHGFOUMQJN-KCWPFWIISA-N

> <PUBCHEM_XLOGP3_AA>
5.4

> <PUBCHEM_EXACT_MASS>
539.19666619

> <PUBCHEM_MOLECULAR_FORMULA>
C28H28F3N5OS

> <PUBCHEM_MOLECULAR_WEIGHT>
539.6

> <PUBCHEM_OPENEYE_CAN_SMILES>
CN1C(=NN=C1SCCCN2CCC3(C2)CC3C4=CC=C(C=C4)C(F)(F)F)C5=CC=C(C=C5)C6=NC=CO6

> <PUBCHEM_OPENEYE_ISO_SMILES>
CN1C(=NN=C1SCCCN2CC[C@@]3(C2)C[C@@H]3C4=CC=C(C=C4)C(F)(F)F)C5=CC=C(C=C5)C6=NC=CO6

> <PUBCHEM_CACTVS_TPSA>
85.3

> <PUBCHEM_MONOISOTOPIC_WEIGHT>
539.19666619

> <PUBCHEM_TOTAL_CHARGE>
0

> <PUBCHEM_HEAVY_ATOM_COUNT>
38

> <PUBCHEM_ATOM_DEF_STEREO_COUNT>
2

> <PUBCHEM_ATOM_UDEF_STEREO_COUNT>
0

> <PUBCHEM_BOND_DEF_STEREO_COUNT>
0

> <PUBCHEM_BOND_UDEF_STEREO_COUNT>
0

> <PUBCHEM_ISOTOPIC_ATOM_COUNT>
0

> <PUBCHEM_COMPONENT_COUNT>
1

> <PUBCHEM_CACTVS_TAUTO_COUNT>
-1

> <PUBCHEM_COORDINATE_TYPE>
1
5
255

> <PUBCHEM_BONDANNOTATIONS>
10  36  8
10  38  8
11  13  6
12  17  5
17  19  8
17  20  8
19  22  8
20  23  8
22  24  8
23  24  8
30  31  8
30  32  8
31  33  8
32  34  8
33  35  8
34  35  8
37  38  8
5  36  8
5  37  8
7  27  8
7  28  8
8  27  8
8  9  8
9  28  8

$$$$
