122180625
  -OEChem-09292322472D

 65 69  0     1  0  0  0  0  0999 V2000
    4.9836    6.8100    0.0000 Cl  0  0  0  0  0  0  0  0  0  0  0  0
    3.8080    8.4281    0.0000 Cl  0  0  0  0  0  0  0  0  0  0  0  0
    4.5322    1.5378    0.0000 O   0  0  0  0  0  0  0  0  0  0  0  0
    5.3457    3.3649    0.0000 N   0  0  0  0  0  0  0  0  0  0  0  0
    4.1701    4.9830    0.0000 N   0  0  0  0  0  0  0  0  0  0  0  0
    6.2956   -0.8892    0.0000 N   0  0  0  0  0  0  0  0  0  0  0  0
    7.2956   -0.8892    0.0000 N   0  0  0  0  0  0  0  0  0  0  0  0
    7.6046   -1.8403    0.0000 N   0  0  0  0  0  0  0  0  0  0  0  0
    4.3511    3.2604    0.0000 C   0  0  0  0  0  0  0  0  0  0  0  0
    5.7524    4.2785    0.0000 C   0  0  0  0  0  0  0  0  0  0  0  0
    3.7634    4.0694    0.0000 C   0  0  0  0  0  0  0  0  0  0  0  0
    5.1646    5.0875    0.0000 C   0  0  0  0  0  0  0  0  0  0  0  0
    5.9334    2.5559    0.0000 C   0  0  0  0  0  0  0  0  0  0  0  0
    5.5267    1.6424    0.0000 C   0  0  3  0  0  0  0  0  0  0  0  0
    6.1145    0.8333    0.0000 C   0  0  0  0  0  0  0  0  0  0  0  0
    3.5823    5.7920    0.0000 C   0  0  0  0  0  0  0  0  0  0  0  0
    5.7078   -0.0802    0.0000 C   0  0  0  0  0  0  0  0  0  0  0  0
    3.9890    6.7055    0.0000 C   0  0  0  0  0  0  0  0  0  0  0  0
    2.5878    5.6874    0.0000 C   0  0  0  0  0  0  0  0  0  0  0  0
    3.4013    7.5145    0.0000 C   0  0  0  0  0  0  0  0  0  0  0  0
    2.0000    6.4964    0.0000 C   0  0  0  0  0  0  0  0  0  0  0  0
    5.9865   -1.8403    0.0000 C   0  0  0  0  0  0  0  0  0  0  0  0
    2.4067    7.4100    0.0000 C   0  0  0  0  0  0  0  0  0  0  0  0
    6.7956   -2.4281    0.0000 C   0  0  0  0  0  0  0  0  0  0  0  0
    6.7956   -3.4281    0.0000 C   0  0  0  0  0  0  0  0  0  0  0  0
    5.9295   -3.9281    0.0000 C   0  0  0  0  0  0  0  0  0  0  0  0
    7.6616   -3.9281    0.0000 C   0  0  0  0  0  0  0  0  0  0  0  0
    6.7956   -5.4281    0.0000 C   0  0  0  0  0  0  0  0  0  0  0  0
    5.9295   -4.9281    0.0000 C   0  0  0  0  0  0  0  0  0  0  0  0
    7.6616   -4.9281    0.0000 C   0  0  0  0  0  0  0  0  0  0  0  0
    6.7956   -6.4281    0.0000 C   0  0  0  0  0  0  0  0  0  0  0  0
    5.9295   -6.9281    0.0000 C   0  0  0  0  0  0  0  0  0  0  0  0
    7.6616   -6.9281    0.0000 C   0  0  0  0  0  0  0  0  0  0  0  0
    5.9295   -7.9281    0.0000 C   0  0  0  0  0  0  0  0  0  0  0  0
    7.6616   -7.9281    0.0000 C   0  0  0  0  0  0  0  0  0  0  0  0
    6.7956   -8.4281    0.0000 C   0  0  0  0  0  0  0  0  0  0  0  0
    3.7939    2.9886    0.0000 H   0  0  0  0  0  0  0  0  0  0  0  0
    4.5220    2.6644    0.0000 H   0  0  0  0  0  0  0  0  0  0  0  0
    6.2664    3.9318    0.0000 H   0  0  0  0  0  0  0  0  0  0  0  0
    6.1831    4.7244    0.0000 H   0  0  0  0  0  0  0  0  0  0  0  0
    3.2494    4.4161    0.0000 H   0  0  0  0  0  0  0  0  0  0  0  0
    3.3327    3.6234    0.0000 H   0  0  0  0  0  0  0  0  0  0  0  0
    5.7219    5.3593    0.0000 H   0  0  0  0  0  0  0  0  0  0  0  0
    4.9937    5.6835    0.0000 H   0  0  0  0  0  0  0  0  0  0  0  0
    6.4474    2.2092    0.0000 H   0  0  0  0  0  0  0  0  0  0  0  0
    6.3641    3.0019    0.0000 H   0  0  0  0  0  0  0  0  0  0  0  0
    5.1623    2.1439    0.0000 H   0  0  0  0  0  0  0  0  0  0  0  0
    6.6285    0.4866    0.0000 H   0  0  0  0  0  0  0  0  0  0  0  0
    6.5452    1.2793    0.0000 H   0  0  0  0  0  0  0  0  0  0  0  0
    5.1938    0.2665    0.0000 H   0  0  0  0  0  0  0  0  0  0  0  0
    5.2771   -0.5262    0.0000 H   0  0  0  0  0  0  0  0  0  0  0  0
    4.2800    0.9714    0.0000 H   0  0  0  0  0  0  0  0  0  0  0  0
    2.3356    5.1210    0.0000 H   0  0  0  0  0  0  0  0  0  0  0  0
    1.3834    6.4316    0.0000 H   0  0  0  0  0  0  0  0  0  0  0  0
    5.3969   -2.0319    0.0000 H   0  0  0  0  0  0  0  0  0  0  0  0
    2.0423    7.9116    0.0000 H   0  0  0  0  0  0  0  0  0  0  0  0
    5.3926   -3.6181    0.0000 H   0  0  0  0  0  0  0  0  0  0  0  0
    8.1985   -3.6181    0.0000 H   0  0  0  0  0  0  0  0  0  0  0  0
    5.3926   -5.2381    0.0000 H   0  0  0  0  0  0  0  0  0  0  0  0
    8.1985   -5.2381    0.0000 H   0  0  0  0  0  0  0  0  0  0  0  0
    5.3926   -6.6181    0.0000 H   0  0  0  0  0  0  0  0  0  0  0  0
    8.1985   -6.6181    0.0000 H   0  0  0  0  0  0  0  0  0  0  0  0
    5.3926   -8.2381    0.0000 H   0  0  0  0  0  0  0  0  0  0  0  0
    8.1985   -8.2381    0.0000 H   0  0  0  0  0  0  0  0  0  0  0  0
    6.7956   -9.0481    0.0000 H   0  0  0  0  0  0  0  0  0  0  0  0
  1 18  1  0  0  0  0
  2 20  1  0  0  0  0
  3 14  1  0  0  0  0
  3 52  1  0  0  0  0
  4  9  1  0  0  0  0
  4 10  1  0  0  0  0
  4 13  1  0  0  0  0
  5 11  1  0  0  0  0
  5 12  1  0  0  0  0
  5 16  1  0  0  0  0
  6  7  1  0  0  0  0
  6 17  1  0  0  0  0
  6 22  1  0  0  0  0
  7  8  2  0  0  0  0
  8 24  1  0  0  0  0
  9 11  1  0  0  0  0
  9 37  1  0  0  0  0
  9 38  1  0  0  0  0
 10 12  1  0  0  0  0
 10 39  1  0  0  0  0
 10 40  1  0  0  0  0
 11 41  1  0  0  0  0
 11 42  1  0  0  0  0
 12 43  1  0  0  0  0
 12 44  1  0  0  0  0
 13 14  1  0  0  0  0
 13 45  1  0  0  0  0
 13 46  1  0  0  0  0
 14 15  1  0  0  0  0
 14 47  1  0  0  0  0
 15 17  1  0  0  0  0
 15 48  1  0  0  0  0
 15 49  1  0  0  0  0
 16 18  2  0  0  0  0
 16 19  1  0  0  0  0
 17 50  1  0  0  0  0
 17 51  1  0  0  0  0
 18 20  1  0  0  0  0
 19 21  2  0  0  0  0
 19 53  1  0  0  0  0
 20 23  2  0  0  0  0
 21 23  1  0  0  0  0
 21 54  1  0  0  0  0
 22 24  2  0  0  0  0
 22 55  1  0  0  0  0
 23 56  1  0  0  0  0
 24 25  1  0  0  0  0
 25 26  2  0  0  0  0
 25 27  1  0  0  0  0
 26 29  1  0  0  0  0
 26 57  1  0  0  0  0
 27 30  2  0  0  0  0
 27 58  1  0  0  0  0
 28 29  2  0  0  0  0
 28 30  1  0  0  0  0
 28 31  1  0  0  0  0
 29 59  1  0  0  0  0
 30 60  1  0  0  0  0
 31 32  2  0  0  0  0
 31 33  1  0  0  0  0
 32 34  1  0  0  0  0
 32 61  1  0  0  0  0
 33 35  2  0  0  0  0
 33 62  1  0  0  0  0
 34 36  2  0  0  0  0
 34 63  1  0  0  0  0
 35 36  1  0  0  0  0
 35 64  1  0  0  0  0
 36 65  1  0  0  0  0
M  END
> <PUBCHEM_COMPOUND_CID>
122180625

> <PUBCHEM_COMPOUND_CANONICALIZED>
1

> <PUBCHEM_CACTVS_COMPLEXITY>
652

> <PUBCHEM_CACTVS_HBOND_ACCEPTOR>
5

> <PUBCHEM_CACTVS_HBOND_DONOR>
1

> <PUBCHEM_CACTVS_ROTATABLE_BOND>
8

> <PUBCHEM_CACTVS_SUBSKEYS>
AAADceB7oAAGAAAAAAAAAAAAAAAAAWAAAAA8YMEAAAAAAAAB1AAAHgIICAAADB7hniY8wJMIAgCiAzRnRACCBAQxlwAY2mA4dpgKcKLBk5HUYAhigADYyAcQgMAOwAAAAAIAABSAAAAABAAAKAAAAAAAAA==

> <PUBCHEM_IUPAC_OPENEYE_NAME>
1-[4-(2,3-dichlorophenyl)piperazin-1-yl]-4-[4-(4-phenylphenyl)triazol-1-yl]butan-2-ol

> <PUBCHEM_IUPAC_CAS_NAME>
1-[4-(2,3-dichlorophenyl)-1-piperazinyl]-4-[4-(4-phenylphenyl)-1-triazolyl]-2-butanol

> <PUBCHEM_IUPAC_NAME_MARKUP>
1-[4-(2,3-dichlorophenyl)piperazin-1-yl]-4-[4-(4-phenylphenyl)triazol-1-yl]butan-2-ol

> <PUBCHEM_IUPAC_NAME>
1-[4-(2,3-dichlorophenyl)piperazin-1-yl]-4-[4-(4-phenylphenyl)triazol-1-yl]butan-2-ol

> <PUBCHEM_IUPAC_SYSTEMATIC_NAME>
1-[4-[2,3-bis(chloranyl)phenyl]piperazin-1-yl]-4-[4-(4-phenylphenyl)-1,2,3-triazol-1-yl]butan-2-ol

> <PUBCHEM_IUPAC_TRADITIONAL_NAME>
1-[4-(2,3-dichlorophenyl)piperazino]-4-[4-(4-phenylphenyl)triazol-1-yl]butan-2-ol

> <PUBCHEM_IUPAC_INCHI>
InChI=1S/C28H29Cl2N5O/c29-25-7-4-8-27(28(25)30)34-17-15-33(16-18-34)19-24(36)13-14-35-20-26(31-32-35)23-11-9-22(10-12-23)21-5-2-1-3-6-21/h1-12,20,24,36H,13-19H2

> <PUBCHEM_IUPAC_INCHIKEY>
RRBRCSSGXLKDPR-UHFFFAOYSA-N

> <PUBCHEM_XLOGP3_AA>
5.5

> <PUBCHEM_EXACT_MASS>
521.1749160

> <PUBCHEM_MOLECULAR_FORMULA>
C28H29Cl2N5O

> <PUBCHEM_MOLECULAR_WEIGHT>
522.5

> <PUBCHEM_OPENEYE_CAN_SMILES>
C1CN(CCN1CC(CCN2C=C(N=N2)C3=CC=C(C=C3)C4=CC=CC=C4)O)C5=C(C(=CC=C5)Cl)Cl

> <PUBCHEM_OPENEYE_ISO_SMILES>
C1CN(CCN1CC(CCN2C=C(N=N2)C3=CC=C(C=C3)C4=CC=CC=C4)O)C5=C(C(=CC=C5)Cl)Cl

> <PUBCHEM_CACTVS_TPSA>
57.4

> <PUBCHEM_MONOISOTOPIC_WEIGHT>
521.1749160

> <PUBCHEM_TOTAL_CHARGE>
0

> <PUBCHEM_HEAVY_ATOM_COUNT>
36

> <PUBCHEM_ATOM_DEF_STEREO_COUNT>
0

> <PUBCHEM_ATOM_UDEF_STEREO_COUNT>
1

> <PUBCHEM_BOND_DEF_STEREO_COUNT>
0

> <PUBCHEM_BOND_UDEF_STEREO_COUNT>
0

> <PUBCHEM_ISOTOPIC_ATOM_COUNT>
0

> <PUBCHEM_COMPONENT_COUNT>
1

> <PUBCHEM_CACTVS_TAUTO_COUNT>
-1

> <PUBCHEM_COORDINATE_TYPE>
1
5
255

> <PUBCHEM_BONDANNOTATIONS>
16  18  8
16  19  8
18  20  8
19  21  8
20  23  8
21  23  8
22  24  8
25  26  8
25  27  8
26  29  8
27  30  8
28  29  8
28  30  8
14  3  3
31  32  8
31  33  8
32  34  8
33  35  8
34  36  8
35  36  8
6  22  8
6  7  8
7  8  8
8  24  8

$$$$
