137632035
  -OEChem-09292322392D

 64 68  0     1  0  0  0  0  0999 V2000
    6.5069   -1.0029    0.0000 O   0  0  0  0  0  0  0  0  0  0  0  0
    5.7124    3.4306    0.0000 O   0  0  0  0  0  0  0  0  0  0  0  0
    6.3015   -2.7485    0.0000 N   0  0  0  0  0  0  0  0  0  0  0  0
    4.9428   -1.8046    0.0000 N   0  0  0  0  0  0  0  0  0  0  0  0
    8.0336   -4.7485    0.0000 N   0  0  0  0  0  0  0  0  0  0  0  0
    4.2521    2.4992    0.0000 N   0  0  0  0  0  0  0  0  0  0  0  0
    4.5403    5.1543    0.0000 N   0  0  0  0  0  0  0  0  0  0  0  0
    7.1675   -4.2485    0.0000 C   0  0  1  0  0  0  0  0  0  0  0  0
    7.1675   -3.2485    0.0000 C   0  0  0  0  0  0  0  0  0  0  0  0
    5.4355   -3.2485    0.0000 C   0  0  0  0  0  0  0  0  0  0  0  0
    6.3015   -4.7485    0.0000 C   0  0  0  0  0  0  0  0  0  0  0  0
    5.4355   -4.2485    0.0000 C   0  0  0  0  0  0  0  0  0  0  0  0
    4.5415   -2.7139    0.0000 C   0  0  0  0  0  0  0  0  0  0  0  0
    5.9364   -1.8242    0.0000 C   0  0  0  0  0  0  0  0  0  0  0  0
    4.4050   -0.9615    0.0000 C   0  0  0  0  0  0  0  0  0  0  0  0
    4.5415   -4.7832    0.0000 C   0  0  0  0  0  0  0  0  0  0  0  0
    3.6355   -3.2277    0.0000 C   0  0  0  0  0  0  0  0  0  0  0  0
    4.8663   -0.0743    0.0000 C   0  0  0  0  0  0  0  0  0  0  0  0
    8.0336   -5.7485    0.0000 C   0  0  0  0  0  0  0  0  0  0  0  0
    3.6355   -4.2694    0.0000 C   0  0  0  0  0  0  0  0  0  0  0  0
    4.3286    0.7688    0.0000 C   0  0  0  0  0  0  0  0  0  0  0  0
    8.8996   -6.2485    0.0000 C   0  0  0  0  0  0  0  0  0  0  0  0
    4.7898    1.6561    0.0000 C   0  0  0  0  0  0  0  0  0  0  0  0
    8.8996   -7.2485    0.0000 C   0  0  0  0  0  0  0  0  0  0  0  0
    4.7134    3.3864    0.0000 C   0  0  0  0  0  0  0  0  0  0  0  0
    4.1756    4.2296    0.0000 C   0  0  0  0  0  0  0  0  0  0  0  0
    3.1833    4.2888    0.0000 C   0  0  0  0  0  0  0  0  0  0  0  0
    3.7745    5.7882    0.0000 C   0  0  0  0  0  0  0  0  0  0  0  0
    2.9314    5.2505    0.0000 C   0  0  0  0  0  0  0  0  0  0  0  0
    3.7304    6.7872    0.0000 C   0  0  0  0  0  0  0  0  0  0  0  0
    2.0442    5.7118    0.0000 C   0  0  0  0  0  0  0  0  0  0  0  0
    2.8431    7.2485    0.0000 C   0  0  0  0  0  0  0  0  0  0  0  0
    2.0000    6.7108    0.0000 C   0  0  0  0  0  0  0  0  0  0  0  0
    7.1675   -4.8685    0.0000 H   0  0  0  0  0  0  0  0  0  0  0  0
    7.7781   -3.3562    0.0000 H   0  0  0  0  0  0  0  0  0  0  0  0
    7.3796   -2.6659    0.0000 H   0  0  0  0  0  0  0  0  0  0  0  0
    5.9030   -5.2235    0.0000 H   0  0  0  0  0  0  0  0  0  0  0  0
    6.7000   -5.2235    0.0000 H   0  0  0  0  0  0  0  0  0  0  0  0
    8.5705   -4.4385    0.0000 H   0  0  0  0  0  0  0  0  0  0  0  0
    3.9129   -0.5844    0.0000 H   0  0  0  0  0  0  0  0  0  0  0  0
    3.9481   -1.3806    0.0000 H   0  0  0  0  0  0  0  0  0  0  0  0
    4.5487   -5.4032    0.0000 H   0  0  0  0  0  0  0  0  0  0  0  0
    3.0997   -2.9156    0.0000 H   0  0  0  0  0  0  0  0  0  0  0  0
    5.3584   -0.4515    0.0000 H   0  0  0  0  0  0  0  0  0  0  0  0
    5.3232    0.3448    0.0000 H   0  0  0  0  0  0  0  0  0  0  0  0
    7.4230   -5.6409    0.0000 H   0  0  0  0  0  0  0  0  0  0  0  0
    7.8215   -6.3311    0.0000 H   0  0  0  0  0  0  0  0  0  0  0  0
    3.0997   -4.5814    0.0000 H   0  0  0  0  0  0  0  0  0  0  0  0
    3.8365    1.1460    0.0000 H   0  0  0  0  0  0  0  0  0  0  0  0
    3.8717    0.3497    0.0000 H   0  0  0  0  0  0  0  0  0  0  0  0
    9.5102   -6.3562    0.0000 H   0  0  0  0  0  0  0  0  0  0  0  0
    9.1116   -5.6659    0.0000 H   0  0  0  0  0  0  0  0  0  0  0  0
    5.2819    1.2789    0.0000 H   0  0  0  0  0  0  0  0  0  0  0  0
    5.2467    2.0752    0.0000 H   0  0  0  0  0  0  0  0  0  0  0  0
    8.2796   -7.2485    0.0000 H   0  0  0  0  0  0  0  0  0  0  0  0
    8.8996   -7.8685    0.0000 H   0  0  0  0  0  0  0  0  0  0  0  0
    9.5196   -7.2485    0.0000 H   0  0  0  0  0  0  0  0  0  0  0  0
    3.6327    2.4718    0.0000 H   0  0  0  0  0  0  0  0  0  0  0  0
    5.1407    5.3088    0.0000 H   0  0  0  0  0  0  0  0  0  0  0  0
    2.7900    3.8096    0.0000 H   0  0  0  0  0  0  0  0  0  0  0  0
    4.2531    7.1207    0.0000 H   0  0  0  0  0  0  0  0  0  0  0  0
    1.5214    5.3784    0.0000 H   0  0  0  0  0  0  0  0  0  0  0  0
    2.8157    7.8679    0.0000 H   0  0  0  0  0  0  0  0  0  0  0  0
    1.4499    6.9968    0.0000 H   0  0  0  0  0  0  0  0  0  0  0  0
  1 14  2  0  0  0  0
  2 25  2  0  0  0  0
  3  9  1  0  0  0  0
  3 10  1  0  0  0  0
  3 14  1  0  0  0  0
  4 13  1  0  0  0  0
  4 14  1  0  0  0  0
  4 15  1  0  0  0  0
  8  5  1  6  0  0  0
  5 19  1  0  0  0  0
  5 39  1  0  0  0  0
  6 23  1  0  0  0  0
  6 25  1  0  0  0  0
  6 58  1  0  0  0  0
  7 26  1  0  0  0  0
  7 28  1  0  0  0  0
  7 59  1  0  0  0  0
  8  9  1  0  0  0  0
  8 11  1  0  0  0  0
  8 34  1  0  0  0  0
  9 35  1  0  0  0  0
  9 36  1  0  0  0  0
 10 12  2  0  0  0  0
 10 13  1  0  0  0  0
 11 12  1  0  0  0  0
 11 37  1  0  0  0  0
 11 38  1  0  0  0  0
 12 16  1  0  0  0  0
 13 17  2  0  0  0  0
 15 18  1  0  0  0  0
 15 40  1  0  0  0  0
 15 41  1  0  0  0  0
 16 20  2  0  0  0  0
 16 42  1  0  0  0  0
 17 20  1  0  0  0  0
 17 43  1  0  0  0  0
 18 21  1  0  0  0  0
 18 44  1  0  0  0  0
 18 45  1  0  0  0  0
 19 22  1  0  0  0  0
 19 46  1  0  0  0  0
 19 47  1  0  0  0  0
 20 48  1  0  0  0  0
 21 23  1  0  0  0  0
 21 49  1  0  0  0  0
 21 50  1  0  0  0  0
 22 24  1  0  0  0  0
 22 51  1  0  0  0  0
 22 52  1  0  0  0  0
 23 53  1  0  0  0  0
 23 54  1  0  0  0  0
 24 55  1  0  0  0  0
 24 56  1  0  0  0  0
 24 57  1  0  0  0  0
 25 26  1  0  0  0  0
 26 27  2  0  0  0  0
 27 29  1  0  0  0  0
 27 60  1  0  0  0  0
 28 29  1  0  0  0  0
 28 30  2  0  0  0  0
 29 31  2  0  0  0  0
 30 32  1  0  0  0  0
 30 61  1  0  0  0  0
 31 33  1  0  0  0  0
 31 62  1  0  0  0  0
 32 33  2  0  0  0  0
 32 63  1  0  0  0  0
 33 64  1  0  0  0  0
M  END
> <PUBCHEM_COMPOUND_CID>
137632035

> <PUBCHEM_COMPOUND_CANONICALIZED>
1

> <PUBCHEM_CACTVS_COMPLEXITY>
702

> <PUBCHEM_CACTVS_HBOND_ACCEPTOR>
3

> <PUBCHEM_CACTVS_HBOND_DONOR>
3

> <PUBCHEM_CACTVS_ROTATABLE_BOND>
9

> <PUBCHEM_CACTVS_SUBSKEYS>
AAADceB7sAAAAAAAAAAAAAAAAAAAAWLAAAA8YIAAAAAAAFix9AAAHgAQAAAADCjBngQzwPPJkACoAyVyVACCgCAnAiAImaG4dNiIYPLAlbGUIQholgLIyacYiYCeAAAAQAACACAAAACAAAQAQAAAAAAAAA==

> <PUBCHEM_IUPAC_OPENEYE_NAME>
N-[4-[(10R)-2-oxo-10-(propylamino)-1,3-diazatricyclo[6.3.1.04,12]dodeca-4,6,8(12)-trien-3-yl]butyl]-1H-indole-2-carboxamide

> <PUBCHEM_IUPAC_CAS_NAME>
N-[4-[(10R)-2-oxo-10-(propylamino)-1,3-diazatricyclo[6.3.1.04,12]dodeca-4,6,8(12)-trien-3-yl]butyl]-1H-indole-2-carboxamide

> <PUBCHEM_IUPAC_NAME_MARKUP>
<I>N</I>-[4-[(10<I>R</I>)-2-oxo-10-(propylamino)-1,3-diazatricyclo[6.3.1.0<SUP>4,12</SUP>]dodeca-4,6,8(12)-trien-3-yl]butyl]-1<I>H</I>-indole-2-carboxamide

> <PUBCHEM_IUPAC_NAME>
N-[4-[(10R)-2-oxo-10-(propylamino)-1,3-diazatricyclo[6.3.1.04,12]dodeca-4,6,8(12)-trien-3-yl]butyl]-1H-indole-2-carboxamide

> <PUBCHEM_IUPAC_SYSTEMATIC_NAME>
N-[4-[(10R)-2-oxidanylidene-10-(propylamino)-1,3-diazatricyclo[6.3.1.04,12]dodeca-4,6,8(12)-trien-3-yl]butyl]-1H-indole-2-carboxamide

> <PUBCHEM_IUPAC_TRADITIONAL_NAME>
N-[4-[(10R)-2-keto-10-(propylamino)-1,3-diazatricyclo[6.3.1.04,12]dodeca-4,6,8(12)-trien-3-yl]butyl]-1H-indole-2-carboxamide

> <PUBCHEM_IUPAC_INCHI>
InChI=1S/C26H31N5O2/c1-2-12-27-20-15-19-9-7-11-23-24(19)31(17-20)26(33)30(23)14-6-5-13-28-25(32)22-16-18-8-3-4-10-21(18)29-22/h3-4,7-11,16,20,27,29H,2,5-6,12-15,17H2,1H3,(H,28,32)/t20-/m1/s1

> <PUBCHEM_IUPAC_INCHIKEY>
YDESBRPNQFQEGA-HXUWFJFHSA-N

> <PUBCHEM_XLOGP3_AA>
3.6

> <PUBCHEM_EXACT_MASS>
445.24777525

> <PUBCHEM_MOLECULAR_FORMULA>
C26H31N5O2

> <PUBCHEM_MOLECULAR_WEIGHT>
445.6

> <PUBCHEM_OPENEYE_CAN_SMILES>
CCCNC1CC2=C3C(=CC=C2)N(C(=O)N3C1)CCCCNC(=O)C4=CC5=CC=CC=C5N4

> <PUBCHEM_OPENEYE_ISO_SMILES>
CCCN[C@@H]1CC2=C3C(=CC=C2)N(C(=O)N3C1)CCCCNC(=O)C4=CC5=CC=CC=C5N4

> <PUBCHEM_CACTVS_TPSA>
80.5

> <PUBCHEM_MONOISOTOPIC_WEIGHT>
445.24777525

> <PUBCHEM_TOTAL_CHARGE>
0

> <PUBCHEM_HEAVY_ATOM_COUNT>
33

> <PUBCHEM_ATOM_DEF_STEREO_COUNT>
1

> <PUBCHEM_ATOM_UDEF_STEREO_COUNT>
0

> <PUBCHEM_BOND_DEF_STEREO_COUNT>
0

> <PUBCHEM_BOND_UDEF_STEREO_COUNT>
0

> <PUBCHEM_ISOTOPIC_ATOM_COUNT>
0

> <PUBCHEM_COMPONENT_COUNT>
1

> <PUBCHEM_CACTVS_TAUTO_COUNT>
-1

> <PUBCHEM_COORDINATE_TYPE>
1
5
255

> <PUBCHEM_BONDANNOTATIONS>
10  12  8
10  13  8
12  16  8
13  17  8
16  20  8
17  20  8
26  27  8
27  29  8
28  29  8
28  30  8
29  31  8
3  10  8
3  14  8
30  32  8
31  33  8
32  33  8
4  13  8
4  14  8
8  5  6
7  26  8
7  28  8

$$$$
