71724974
  -OEChem-09292322012D

 42 44  0     0  0  0  0  0  0999 V2000
    5.3147    2.7047    0.0000 O   0  0  0  0  0  0  0  0  0  0  0  0
    5.3147   -3.2953    0.0000 O   0  0  0  0  0  0  0  0  0  0  0  0
    4.4487    0.2047    0.0000 N   0  0  0  0  0  0  0  0  0  0  0  0
    4.4487   -1.7953    0.0000 N   0  0  0  0  0  0  0  0  0  0  0  0
    3.4782   -4.2898    0.0000 N   0  0  0  0  0  0  0  0  0  0  0  0
    7.0468    4.7047    0.0000 N   0  0  0  0  0  0  0  0  0  0  0  0
    5.3147   -0.2953    0.0000 C   0  0  0  0  0  0  0  0  0  0  0  0
    3.5827   -0.2953    0.0000 C   0  0  0  0  0  0  0  0  0  0  0  0
    5.3147   -1.2953    0.0000 C   0  0  0  0  0  0  0  0  0  0  0  0
    3.5827   -1.2953    0.0000 C   0  0  0  0  0  0  0  0  0  0  0  0
    4.4487    1.2047    0.0000 C   0  0  0  0  0  0  0  0  0  0  0  0
    4.4487   -2.7953    0.0000 C   0  0  0  0  0  0  0  0  0  0  0  0
    5.3147    1.7047    0.0000 C   0  0  0  0  0  0  0  0  0  0  0  0
    3.5827   -3.2953    0.0000 C   0  0  0  0  0  0  0  0  0  0  0  0
    2.6691   -2.8886    0.0000 C   0  0  0  0  0  0  0  0  0  0  0  0
    2.5000   -4.4977    0.0000 C   0  0  0  0  0  0  0  0  0  0  0  0
    2.0000   -3.6317    0.0000 C   0  0  0  0  0  0  0  0  0  0  0  0
    6.1808    3.2047    0.0000 C   0  0  0  0  0  0  0  0  0  0  0  0
    7.0468    2.7047    0.0000 C   0  0  0  0  0  0  0  0  0  0  0  0
    6.1808    4.2047    0.0000 C   0  0  0  0  0  0  0  0  0  0  0  0
    7.9128    3.2047    0.0000 C   0  0  0  0  0  0  0  0  0  0  0  0
    7.9128    4.2047    0.0000 C   0  0  0  0  0  0  0  0  0  0  0  0
    5.9253   -0.4030    0.0000 H   0  0  0  0  0  0  0  0  0  0  0  0
    5.5268    0.2873    0.0000 H   0  0  0  0  0  0  0  0  0  0  0  0
    3.3706    0.2873    0.0000 H   0  0  0  0  0  0  0  0  0  0  0  0
    2.9721   -0.4030    0.0000 H   0  0  0  0  0  0  0  0  0  0  0  0
    5.5268   -1.8779    0.0000 H   0  0  0  0  0  0  0  0  0  0  0  0
    5.9253   -1.1877    0.0000 H   0  0  0  0  0  0  0  0  0  0  0  0
    2.9721   -1.1877    0.0000 H   0  0  0  0  0  0  0  0  0  0  0  0
    3.3706   -1.8779    0.0000 H   0  0  0  0  0  0  0  0  0  0  0  0
    4.2366    1.7873    0.0000 H   0  0  0  0  0  0  0  0  0  0  0  0
    3.8381    1.0970    0.0000 H   0  0  0  0  0  0  0  0  0  0  0  0
    5.5268    1.1221    0.0000 H   0  0  0  0  0  0  0  0  0  0  0  0
    5.9253    1.8124    0.0000 H   0  0  0  0  0  0  0  0  0  0  0  0
    3.9389   -4.7047    0.0000 H   0  0  0  0  0  0  0  0  0  0  0  0
    2.5402   -2.2821    0.0000 H   0  0  0  0  0  0  0  0  0  0  0  0
    2.2478   -5.0641    0.0000 H   0  0  0  0  0  0  0  0  0  0  0  0
    1.3834   -3.5669    0.0000 H   0  0  0  0  0  0  0  0  0  0  0  0
    7.0468    2.0847    0.0000 H   0  0  0  0  0  0  0  0  0  0  0  0
    5.6438    4.5147    0.0000 H   0  0  0  0  0  0  0  0  0  0  0  0
    8.4497    2.8947    0.0000 H   0  0  0  0  0  0  0  0  0  0  0  0
    8.4497    4.5147    0.0000 H   0  0  0  0  0  0  0  0  0  0  0  0
  1 13  1  0  0  0  0
  1 18  1  0  0  0  0
  2 12  2  0  0  0  0
  3  7  1  0  0  0  0
  3  8  1  0  0  0  0
  3 11  1  0  0  0  0
  4  9  1  0  0  0  0
  4 10  1  0  0  0  0
  4 12  1  0  0  0  0
  5 14  1  0  0  0  0
  5 16  1  0  0  0  0
  5 35  1  0  0  0  0
  6 20  1  0  0  0  0
  6 22  2  0  0  0  0
  7  9  1  0  0  0  0
  7 23  1  0  0  0  0
  7 24  1  0  0  0  0
  8 10  1  0  0  0  0
  8 25  1  0  0  0  0
  8 26  1  0  0  0  0
  9 27  1  0  0  0  0
  9 28  1  0  0  0  0
 10 29  1  0  0  0  0
 10 30  1  0  0  0  0
 11 13  1  0  0  0  0
 11 31  1  0  0  0  0
 11 32  1  0  0  0  0
 12 14  1  0  0  0  0
 13 33  1  0  0  0  0
 13 34  1  0  0  0  0
 14 15  2  0  0  0  0
 15 17  1  0  0  0  0
 15 36  1  0  0  0  0
 16 17  2  0  0  0  0
 16 37  1  0  0  0  0
 17 38  1  0  0  0  0
 18 19  1  0  0  0  0
 18 20  2  0  0  0  0
 19 21  2  0  0  0  0
 19 39  1  0  0  0  0
 20 40  1  0  0  0  0
 21 22  1  0  0  0  0
 21 41  1  0  0  0  0
 22 42  1  0  0  0  0
M  END
> <PUBCHEM_COMPOUND_CID>
71724974

> <PUBCHEM_COMPOUND_CANONICALIZED>
1

> <PUBCHEM_CACTVS_COMPLEXITY>
358

> <PUBCHEM_CACTVS_HBOND_ACCEPTOR>
4

> <PUBCHEM_CACTVS_HBOND_DONOR>
1

> <PUBCHEM_CACTVS_ROTATABLE_BOND>
5

> <PUBCHEM_CACTVS_SUBSKEYS>
AAADceB7sAAAAAAAAAAAAAAAAAAAAWAAAAAsWAAAAAAAAAAB4AAAHgAQAAAACAzhlgY8hpPJlACoATV3VASCiCA3YiAI2aG/bNgOZvLEtbuXOSjk1hHY6YY4AQAAAAAAAAAAAAAAAAAAAAAAAAAAAAAAAA==

> <PUBCHEM_IUPAC_OPENEYE_NAME>
[4-[2-(3-pyridyloxy)ethyl]piperazin-1-yl]-(1H-pyrrol-2-yl)methanone

> <PUBCHEM_IUPAC_CAS_NAME>
[4-[2-(3-pyridinyloxy)ethyl]-1-piperazinyl]-(1H-pyrrol-2-yl)methanone

> <PUBCHEM_IUPAC_NAME_MARKUP>
[4-(2-pyridin-3-yloxyethyl)piperazin-1-yl]-(1<I>H</I>-pyrrol-2-yl)methanone

> <PUBCHEM_IUPAC_NAME>
[4-(2-pyridin-3-yloxyethyl)piperazin-1-yl]-(1H-pyrrol-2-yl)methanone

> <PUBCHEM_IUPAC_SYSTEMATIC_NAME>
[4-(2-pyridin-3-yloxyethyl)piperazin-1-yl]-(1H-pyrrol-2-yl)methanone

> <PUBCHEM_IUPAC_TRADITIONAL_NAME>
[4-[2-(3-pyridyloxy)ethyl]piperazino]-(1H-pyrrol-2-yl)methanone

> <PUBCHEM_IUPAC_INCHI>
InChI=1S/C16H20N4O2/c21-16(15-4-2-6-18-15)20-9-7-19(8-10-20)11-12-22-14-3-1-5-17-13-14/h1-6,13,18H,7-12H2

> <PUBCHEM_IUPAC_INCHIKEY>
IOPOIQNKSCJDRU-UHFFFAOYSA-N

> <PUBCHEM_XLOGP3_AA>
0.9

> <PUBCHEM_EXACT_MASS>
300.15862589

> <PUBCHEM_MOLECULAR_FORMULA>
C16H20N4O2

> <PUBCHEM_MOLECULAR_WEIGHT>
300.36

> <PUBCHEM_OPENEYE_CAN_SMILES>
C1CN(CCN1CCOC2=CN=CC=C2)C(=O)C3=CC=CN3

> <PUBCHEM_OPENEYE_ISO_SMILES>
C1CN(CCN1CCOC2=CN=CC=C2)C(=O)C3=CC=CN3

> <PUBCHEM_CACTVS_TPSA>
61.5

> <PUBCHEM_MONOISOTOPIC_WEIGHT>
300.15862589

> <PUBCHEM_TOTAL_CHARGE>
0

> <PUBCHEM_HEAVY_ATOM_COUNT>
22

> <PUBCHEM_ATOM_DEF_STEREO_COUNT>
0

> <PUBCHEM_ATOM_UDEF_STEREO_COUNT>
0

> <PUBCHEM_BOND_DEF_STEREO_COUNT>
0

> <PUBCHEM_BOND_UDEF_STEREO_COUNT>
0

> <PUBCHEM_ISOTOPIC_ATOM_COUNT>
0

> <PUBCHEM_COMPONENT_COUNT>
1

> <PUBCHEM_CACTVS_TAUTO_COUNT>
-1

> <PUBCHEM_COORDINATE_TYPE>
1
5
255

> <PUBCHEM_BONDANNOTATIONS>
14  15  8
15  17  8
16  17  8
18  19  8
18  20  8
19  21  8
21  22  8
5  14  8
5  16  8
6  20  8
6  22  8

$$$$
