127041332
  -OEChem-09292322472D

 62 65  0     1  0  0  0  0  0999 V2000
    4.0878   -1.2451    0.0000 S   0  0  0  0  0  0  0  0  0  0  0  0
    3.0000    5.1028    0.0000 S   0  0  0  0  0  0  0  0  0  0  0  0
   11.0048   -4.8721    0.0000 F   0  0  0  0  0  0  0  0  0  0  0  0
   10.1148   -5.9711    0.0000 F   0  0  0  0  0  0  0  0  0  0  0  0
    9.9058   -3.9821    0.0000 F   0  0  0  0  0  0  0  0  0  0  0  0
    5.6254   -6.3082    0.0000 O   0  0  0  0  0  0  0  0  0  0  0  0
    4.0000    5.1028    0.0000 O   0  0  0  0  0  0  0  0  0  0  0  0
    2.0000    5.1028    0.0000 O   0  0  0  0  0  0  0  0  0  0  0  0
    4.4499   -4.6902    0.0000 N   0  0  3  0  0  0  0  0  0  0  0  0
    3.8090    0.5150    0.0000 N   0  0  0  0  0  0  0  0  0  0  0  0
    2.5000   -0.4361    0.0000 N   0  0  0  0  0  0  0  0  0  0  0  0
    2.1910    0.5150    0.0000 N   0  0  0  0  0  0  0  0  0  0  0  0
    3.0000    6.1028    0.0000 N   0  0  0  0  0  0  0  0  0  0  0  0
    5.4444   -4.5857    0.0000 C   0  0  0  0  0  0  0  0  0  0  0  0
    6.0322   -5.3947    0.0000 C   0  0  3  0  0  0  0  0  0  0  0  0
    4.0432   -5.6038    0.0000 C   0  0  0  0  0  0  0  0  0  0  0  0
    3.8621   -3.8812    0.0000 C   0  0  0  0  0  0  0  0  0  0  0  0
    4.6309   -6.4128    0.0000 C   0  0  0  0  0  0  0  0  0  0  0  0
    7.0267   -5.2902    0.0000 C   0  0  0  0  0  0  0  0  0  0  0  0
    4.2688   -2.9676    0.0000 C   0  0  0  0  0  0  0  0  0  0  0  0
    3.6810   -2.1586    0.0000 C   0  0  0  0  0  0  0  0  0  0  0  0
    7.4334   -4.3766    0.0000 C   0  0  0  0  0  0  0  0  0  0  0  0
    7.6145   -6.0992    0.0000 C   0  0  0  0  0  0  0  0  0  0  0  0
    8.4280   -4.2721    0.0000 C   0  0  0  0  0  0  0  0  0  0  0  0
    8.6090   -5.9947    0.0000 C   0  0  0  0  0  0  0  0  0  0  0  0
    9.0158   -5.0811    0.0000 C   0  0  0  0  0  0  0  0  0  0  0  0
    3.5000   -0.4361    0.0000 C   0  0  0  0  0  0  0  0  0  0  0  0
   10.0103   -4.9766    0.0000 C   0  0  0  0  0  0  0  0  0  0  0  0
    3.0000    1.1028    0.0000 C   0  0  0  0  0  0  0  0  0  0  0  0
    3.0000    2.1028    0.0000 C   0  0  0  0  0  0  0  0  0  0  0  0
    4.7601    0.8240    0.0000 C   0  0  0  0  0  0  0  0  0  0  0  0
    2.1340    2.6028    0.0000 C   0  0  0  0  0  0  0  0  0  0  0  0
    3.8660    2.6028    0.0000 C   0  0  0  0  0  0  0  0  0  0  0  0
    3.0000    4.1028    0.0000 C   0  0  0  0  0  0  0  0  0  0  0  0
    2.1340    3.6028    0.0000 C   0  0  0  0  0  0  0  0  0  0  0  0
    3.8660    3.6028    0.0000 C   0  0  0  0  0  0  0  0  0  0  0  0
    6.0017   -4.3139    0.0000 H   0  0  0  0  0  0  0  0  0  0  0  0
    5.2735   -3.9897    0.0000 H   0  0  0  0  0  0  0  0  0  0  0  0
    6.3966   -5.8963    0.0000 H   0  0  0  0  0  0  0  0  0  0  0  0
    3.5291   -5.2571    0.0000 H   0  0  0  0  0  0  0  0  0  0  0  0
    3.6125   -6.0498    0.0000 H   0  0  0  0  0  0  0  0  0  0  0  0
    3.3481   -3.5345    0.0000 H   0  0  0  0  0  0  0  0  0  0  0  0
    3.4314   -4.3272    0.0000 H   0  0  0  0  0  0  0  0  0  0  0  0
    4.0737   -6.6846    0.0000 H   0  0  0  0  0  0  0  0  0  0  0  0
    4.8018   -7.0088    0.0000 H   0  0  0  0  0  0  0  0  0  0  0  0
    4.7828   -3.3144    0.0000 H   0  0  0  0  0  0  0  0  0  0  0  0
    4.6995   -2.5217    0.0000 H   0  0  0  0  0  0  0  0  0  0  0  0
    3.1670   -1.8119    0.0000 H   0  0  0  0  0  0  0  0  0  0  0  0
    3.2504   -2.6046    0.0000 H   0  0  0  0  0  0  0  0  0  0  0  0
    7.0690   -3.8750    0.0000 H   0  0  0  0  0  0  0  0  0  0  0  0
    7.3623   -6.6656    0.0000 H   0  0  0  0  0  0  0  0  0  0  0  0
    8.6802   -3.7057    0.0000 H   0  0  0  0  0  0  0  0  0  0  0  0
    8.9734   -6.4962    0.0000 H   0  0  0  0  0  0  0  0  0  0  0  0
    4.9517    0.2344    0.0000 H   0  0  0  0  0  0  0  0  0  0  0  0
    5.3497    1.0156    0.0000 H   0  0  0  0  0  0  0  0  0  0  0  0
    4.5685    1.4137    0.0000 H   0  0  0  0  0  0  0  0  0  0  0  0
    1.5970    2.2928    0.0000 H   0  0  0  0  0  0  0  0  0  0  0  0
    4.4030    2.2928    0.0000 H   0  0  0  0  0  0  0  0  0  0  0  0
    1.5970    3.9128    0.0000 H   0  0  0  0  0  0  0  0  0  0  0  0
    4.4030    3.9128    0.0000 H   0  0  0  0  0  0  0  0  0  0  0  0
    2.4631    6.4128    0.0000 H   0  0  0  0  0  0  0  0  0  0  0  0
    3.5369    6.4128    0.0000 H   0  0  0  0  0  0  0  0  0  0  0  0
  1 21  1  0  0  0  0
  1 27  1  0  0  0  0
  2  7  2  0  0  0  0
  2  8  2  0  0  0  0
  2 13  1  0  0  0  0
  2 34  1  0  0  0  0
  3 28  1  0  0  0  0
  4 28  1  0  0  0  0
  5 28  1  0  0  0  0
  6 15  1  0  0  0  0
  6 18  1  0  0  0  0
  9 14  1  0  0  0  0
  9 16  1  0  0  0  0
  9 17  1  0  0  0  0
 10 27  1  0  0  0  0
 10 29  1  0  0  0  0
 10 31  1  0  0  0  0
 11 12  1  0  0  0  0
 11 27  2  0  0  0  0
 12 29  2  0  0  0  0
 13 61  1  0  0  0  0
 13 62  1  0  0  0  0
 14 15  1  0  0  0  0
 14 37  1  0  0  0  0
 14 38  1  0  0  0  0
 15 19  1  0  0  0  0
 15 39  1  0  0  0  0
 16 18  1  0  0  0  0
 16 40  1  0  0  0  0
 16 41  1  0  0  0  0
 17 20  1  0  0  0  0
 17 42  1  0  0  0  0
 17 43  1  0  0  0  0
 18 44  1  0  0  0  0
 18 45  1  0  0  0  0
 19 22  2  0  0  0  0
 19 23  1  0  0  0  0
 20 21  1  0  0  0  0
 20 46  1  0  0  0  0
 20 47  1  0  0  0  0
 21 48  1  0  0  0  0
 21 49  1  0  0  0  0
 22 24  1  0  0  0  0
 22 50  1  0  0  0  0
 23 25  2  0  0  0  0
 23 51  1  0  0  0  0
 24 26  2  0  0  0  0
 24 52  1  0  0  0  0
 25 26  1  0  0  0  0
 25 53  1  0  0  0  0
 26 28  1  0  0  0  0
 29 30  1  0  0  0  0
 30 32  2  0  0  0  0
 30 33  1  0  0  0  0
 31 54  1  0  0  0  0
 31 55  1  0  0  0  0
 31 56  1  0  0  0  0
 32 35  1  0  0  0  0
 32 57  1  0  0  0  0
 33 36  2  0  0  0  0
 33 58  1  0  0  0  0
 34 35  2  0  0  0  0
 34 36  1  0  0  0  0
 35 59  1  0  0  0  0
 36 60  1  0  0  0  0
M  END
> <PUBCHEM_COMPOUND_CID>
127041332

> <PUBCHEM_COMPOUND_CANONICALIZED>
1

> <PUBCHEM_CACTVS_COMPLEXITY>
800

> <PUBCHEM_CACTVS_HBOND_ACCEPTOR>
11

> <PUBCHEM_CACTVS_HBOND_DONOR>
1

> <PUBCHEM_CACTVS_ROTATABLE_BOND>
8

> <PUBCHEM_CACTVS_SUBSKEYS>
AAADceB7sYBgAAAAAAAAAAAAAAAAAWAAAAA8YIAAAAAAAAAB0AAAHwQYQAAADBTl2xazEYcMFAqiAiJiJHDS0BtgALAdyDgoDJiKLqKguRmHMAhkyAOYqAeQwPAOUAAAAAAAAACgAAAAAAAAAAAAAAAAAA==

> <PUBCHEM_IUPAC_OPENEYE_NAME>
4-[4-methyl-5-[3-[2-[4-(trifluoromethyl)phenyl]morpholin-4-yl]propylsulfanyl]-1,2,4-triazol-3-yl]benzenesulfonamide

> <PUBCHEM_IUPAC_CAS_NAME>
4-[4-methyl-5-[3-[2-[4-(trifluoromethyl)phenyl]-4-morpholinyl]propylthio]-1,2,4-triazol-3-yl]benzenesulfonamide

> <PUBCHEM_IUPAC_NAME_MARKUP>
4-[4-methyl-5-[3-[2-[4-(trifluoromethyl)phenyl]morpholin-4-yl]propylsulfanyl]-1,2,4-triazol-3-yl]benzenesulfonamide

> <PUBCHEM_IUPAC_NAME>
4-[4-methyl-5-[3-[2-[4-(trifluoromethyl)phenyl]morpholin-4-yl]propylsulfanyl]-1,2,4-triazol-3-yl]benzenesulfonamide

> <PUBCHEM_IUPAC_SYSTEMATIC_NAME>
4-[4-methyl-5-[3-[2-[4-(trifluoromethyl)phenyl]morpholin-4-yl]propylsulfanyl]-1,2,4-triazol-3-yl]benzenesulfonamide

> <PUBCHEM_IUPAC_TRADITIONAL_NAME>
4-[4-methyl-5-[3-[2-[4-(trifluoromethyl)phenyl]morpholino]propylthio]-1,2,4-triazol-3-yl]benzenesulfonamide

> <PUBCHEM_IUPAC_INCHI>
InChI=1S/C23H26F3N5O3S2/c1-30-21(17-5-9-19(10-6-17)36(27,32)33)28-29-22(30)35-14-2-11-31-12-13-34-20(15-31)16-3-7-18(8-4-16)23(24,25)26/h3-10,20H,2,11-15H2,1H3,(H2,27,32,33)

> <PUBCHEM_IUPAC_INCHIKEY>
UOTFFOLRZJNLDZ-UHFFFAOYSA-N

> <PUBCHEM_XLOGP3_AA>
2.9

> <PUBCHEM_EXACT_MASS>
541.14291654

> <PUBCHEM_MOLECULAR_FORMULA>
C23H26F3N5O3S2

> <PUBCHEM_MOLECULAR_WEIGHT>
541.6

> <PUBCHEM_OPENEYE_CAN_SMILES>
CN1C(=NN=C1SCCCN2CCOC(C2)C3=CC=C(C=C3)C(F)(F)F)C4=CC=C(C=C4)S(=O)(=O)N

> <PUBCHEM_OPENEYE_ISO_SMILES>
CN1C(=NN=C1SCCCN2CCOC(C2)C3=CC=C(C=C3)C(F)(F)F)C4=CC=C(C=C4)S(=O)(=O)N

> <PUBCHEM_CACTVS_TPSA>
137

> <PUBCHEM_MONOISOTOPIC_WEIGHT>
541.14291654

> <PUBCHEM_TOTAL_CHARGE>
0

> <PUBCHEM_HEAVY_ATOM_COUNT>
36

> <PUBCHEM_ATOM_DEF_STEREO_COUNT>
0

> <PUBCHEM_ATOM_UDEF_STEREO_COUNT>
1

> <PUBCHEM_BOND_DEF_STEREO_COUNT>
0

> <PUBCHEM_BOND_UDEF_STEREO_COUNT>
0

> <PUBCHEM_ISOTOPIC_ATOM_COUNT>
0

> <PUBCHEM_COMPONENT_COUNT>
1

> <PUBCHEM_CACTVS_TAUTO_COUNT>
-1

> <PUBCHEM_COORDINATE_TYPE>
1
5
255

> <PUBCHEM_BONDANNOTATIONS>
10  27  8
10  29  8
11  12  8
11  27  8
12  29  8
15  19  3
19  22  8
19  23  8
22  24  8
23  25  8
24  26  8
25  26  8
30  32  8
30  33  8
32  35  8
33  36  8
34  35  8
34  36  8

$$$$
