76325155
  -OEChem-09292321592D

 52 52  0     1  0  0  0  0  0999 V2000
    4.0682    5.1713    0.0000 O   0  0  0  0  0  0  0  0  0  0  0  0
    0.5381    5.1471    0.0000 O   0  0  0  0  0  0  0  0  0  0  0  0
    7.4988    1.0000    0.0000 O   0  0  0  0  0  0  0  0  0  0  0  0
    4.9007    1.5000    0.0000 O   0  0  0  0  0  0  0  0  0  0  0  0
    6.6327    2.5000    0.0000 O   0  0  0  0  0  0  0  0  0  0  0  0
    5.7667    0.0000    0.0000 O   0  0  0  0  0  0  0  0  0  0  0  0
    6.6663    5.6713    0.0000 N   0  0  0  0  0  0  0  0  0  0  0  0
    4.9343    5.6713    0.0000 C   0  0  2  0  0  0  0  0  0  0  0  0
    4.9343    6.6713    0.0000 C   0  0  0  0  0  0  0  0  0  0  0  0
    5.8003    5.1713    0.0000 C   0  0  0  0  0  0  0  0  0  0  0  0
    4.0682    7.1713    0.0000 C   0  0  0  0  0  0  0  0  0  0  0  0
    3.2022    6.6713    0.0000 C   0  0  0  0  0  0  0  0  0  0  0  0
    3.2022    5.6713    0.0000 C   0  0  0  0  0  0  0  0  0  0  0  0
    7.5324    5.1713    0.0000 C   0  0  0  0  0  0  0  0  0  0  0  0
    8.3984    5.6713    0.0000 C   0  0  0  0  0  0  0  0  0  0  0  0
    9.2644    5.1713    0.0000 C   0  0  0  0  0  0  0  0  0  0  0  0
   10.1304    5.6713    0.0000 C   0  0  0  0  0  0  0  0  0  0  0  0
    2.3083    7.2059    0.0000 C   0  0  0  0  0  0  0  0  0  0  0  0
    2.3083    5.1366    0.0000 C   0  0  0  0  0  0  0  0  0  0  0  0
   10.9965    5.1713    0.0000 C   0  0  0  0  0  0  0  0  0  0  0  0
    1.4022    6.6921    0.0000 C   0  0  0  0  0  0  0  0  0  0  0  0
    1.4022    5.6505    0.0000 C   0  0  0  0  0  0  0  0  0  0  0  0
   11.8625    5.6713    0.0000 C   0  0  0  0  0  0  0  0  0  0  0  0
    6.6327    1.5000    0.0000 C   0  0  0  0  0  0  0  0  0  0  0  0
    5.7667    1.0000    0.0000 C   0  0  0  0  0  0  0  0  0  0  0  0
    4.9343    5.0513    0.0000 H   0  0  0  0  0  0  0  0  0  0  0  0
    5.5449    6.5636    0.0000 H   0  0  0  0  0  0  0  0  0  0  0  0
    5.1463    7.2539    0.0000 H   0  0  0  0  0  0  0  0  0  0  0  0
    5.4018    4.6963    0.0000 H   0  0  0  0  0  0  0  0  0  0  0  0
    6.1988    4.6963    0.0000 H   0  0  0  0  0  0  0  0  0  0  0  0
    4.4668    7.6462    0.0000 H   0  0  0  0  0  0  0  0  0  0  0  0
    3.6697    7.6462    0.0000 H   0  0  0  0  0  0  0  0  0  0  0  0
    7.1338    4.6963    0.0000 H   0  0  0  0  0  0  0  0  0  0  0  0
    7.9309    4.6963    0.0000 H   0  0  0  0  0  0  0  0  0  0  0  0
    6.6663    6.2913    0.0000 H   0  0  0  0  0  0  0  0  0  0  0  0
    8.7969    6.1462    0.0000 H   0  0  0  0  0  0  0  0  0  0  0  0
    7.9998    6.1462    0.0000 H   0  0  0  0  0  0  0  0  0  0  0  0
    8.8659    4.6963    0.0000 H   0  0  0  0  0  0  0  0  0  0  0  0
    9.6629    4.6963    0.0000 H   0  0  0  0  0  0  0  0  0  0  0  0
   10.5290    6.1462    0.0000 H   0  0  0  0  0  0  0  0  0  0  0  0
    9.7319    6.1462    0.0000 H   0  0  0  0  0  0  0  0  0  0  0  0
    2.3154    7.8259    0.0000 H   0  0  0  0  0  0  0  0  0  0  0  0
    2.3154    4.5166    0.0000 H   0  0  0  0  0  0  0  0  0  0  0  0
   10.5979    4.6963    0.0000 H   0  0  0  0  0  0  0  0  0  0  0  0
   11.3950    4.6963    0.0000 H   0  0  0  0  0  0  0  0  0  0  0  0
    0.8665    7.0042    0.0000 H   0  0  0  0  0  0  0  0  0  0  0  0
   12.1725    5.1343    0.0000 H   0  0  0  0  0  0  0  0  0  0  0  0
   12.3994    5.9813    0.0000 H   0  0  0  0  0  0  0  0  0  0  0  0
   11.5525    6.2082    0.0000 H   0  0  0  0  0  0  0  0  0  0  0  0
    0.0000    5.4550    0.0000 H   0  0  0  0  0  0  0  0  0  0  0  0
    8.0357    1.3100    0.0000 H   0  0  0  0  0  0  0  0  0  0  0  0
    4.3637    1.1900    0.0000 H   0  0  0  0  0  0  0  0  0  0  0  0
  1  8  1  0  0  0  0
  1 13  1  0  0  0  0
  2 22  1  0  0  0  0
  2 50  1  0  0  0  0
  3 24  1  0  0  0  0
  3 51  1  0  0  0  0
  4 25  1  0  0  0  0
  4 52  1  0  0  0  0
  5 24  2  0  0  0  0
  6 25  2  0  0  0  0
  7 10  1  0  0  0  0
  7 14  1  0  0  0  0
  7 35  1  0  0  0  0
  8  9  1  0  0  0  0
  8 10  1  6  0  0  0
  8 26  1  0  0  0  0
  9 11  1  0  0  0  0
  9 27  1  0  0  0  0
  9 28  1  0  0  0  0
 10 29  1  0  0  0  0
 10 30  1  0  0  0  0
 11 12  1  0  0  0  0
 11 31  1  0  0  0  0
 11 32  1  0  0  0  0
 12 13  2  0  0  0  0
 12 18  1  0  0  0  0
 13 19  1  0  0  0  0
 14 15  1  0  0  0  0
 14 33  1  0  0  0  0
 14 34  1  0  0  0  0
 15 16  1  0  0  0  0
 15 36  1  0  0  0  0
 15 37  1  0  0  0  0
 16 17  1  0  0  0  0
 16 38  1  0  0  0  0
 16 39  1  0  0  0  0
 17 20  1  0  0  0  0
 17 40  1  0  0  0  0
 17 41  1  0  0  0  0
 18 21  2  0  0  0  0
 18 42  1  0  0  0  0
 19 22  2  0  0  0  0
 19 43  1  0  0  0  0
 20 23  1  0  0  0  0
 20 44  1  0  0  0  0
 20 45  1  0  0  0  0
 21 22  1  0  0  0  0
 21 46  1  0  0  0  0
 23 47  1  0  0  0  0
 23 48  1  0  0  0  0
 23 49  1  0  0  0  0
 24 25  1  0  0  0  0
M  END
> <PUBCHEM_COMPOUND_CID>
76325155

> <PUBCHEM_COMPOUND_CANONICALIZED>
1

> <PUBCHEM_CACTVS_COMPLEXITY>
319

> <PUBCHEM_CACTVS_HBOND_ACCEPTOR>
7

> <PUBCHEM_CACTVS_HBOND_DONOR>
4

> <PUBCHEM_CACTVS_ROTATABLE_BOND>
8

> <PUBCHEM_CACTVS_SUBSKEYS>
AAADceB6OAAAAAAAAAAAAAAAAAAAAAAAAAA0QAAAAAAAAACRAAAAHgAQCAAADBThmAYyDoLABgCIAiDSCAICCAAgIAAIiIBOCIgPJyKGsRqHeCCl0BWZuAeQ4KwOIAAACAAIAABAAAAQABAAAAAAAAAAAA==

> <PUBCHEM_IUPAC_OPENEYE_NAME>
(2R)-2-[(hexylamino)methyl]chroman-7-ol;oxalic acid

> <PUBCHEM_IUPAC_CAS_NAME>
(2R)-2-[(hexylamino)methyl]-3,4-dihydro-2H-1-benzopyran-7-ol;oxalic acid

> <PUBCHEM_IUPAC_NAME_MARKUP>
(2<I>R</I>)-2-[(hexylamino)methyl]-3,4-dihydro-2<I>H</I>-chromen-7-ol;oxalic acid

> <PUBCHEM_IUPAC_NAME>
(2R)-2-[(hexylamino)methyl]-3,4-dihydro-2H-chromen-7-ol;oxalic acid

> <PUBCHEM_IUPAC_SYSTEMATIC_NAME>
ethanedioic acid;(2R)-2-[(hexylamino)methyl]-3,4-dihydro-2H-chromen-7-ol

> <PUBCHEM_IUPAC_TRADITIONAL_NAME>
(2R)-2-[(hexylamino)methyl]chroman-7-ol;oxalic acid

> <PUBCHEM_IUPAC_INCHI>
InChI=1S/C16H25NO2.C2H2O4/c1-2-3-4-5-10-17-12-15-9-7-13-6-8-14(18)11-16(13)19-15;3-1(4)2(5)6/h6,8,11,15,17-18H,2-5,7,9-10,12H2,1H3;(H,3,4)(H,5,6)/t15-;/m1./s1

> <PUBCHEM_IUPAC_INCHIKEY>
GCAJXYRTVDUMNQ-XFULWGLBSA-N

> <PUBCHEM_EXACT_MASS>
353.18383758

> <PUBCHEM_MOLECULAR_FORMULA>
C18H27NO6

> <PUBCHEM_MOLECULAR_WEIGHT>
353.4

> <PUBCHEM_OPENEYE_CAN_SMILES>
CCCCCCNCC1CCC2=C(O1)C=C(C=C2)O.C(=O)(C(=O)O)O

> <PUBCHEM_OPENEYE_ISO_SMILES>
CCCCCCNC[C@H]1CCC2=C(O1)C=C(C=C2)O.C(=O)(C(=O)O)O

> <PUBCHEM_CACTVS_TPSA>
116

> <PUBCHEM_MONOISOTOPIC_WEIGHT>
353.18383758

> <PUBCHEM_TOTAL_CHARGE>
0

> <PUBCHEM_HEAVY_ATOM_COUNT>
25

> <PUBCHEM_ATOM_DEF_STEREO_COUNT>
1

> <PUBCHEM_ATOM_UDEF_STEREO_COUNT>
0

> <PUBCHEM_BOND_DEF_STEREO_COUNT>
0

> <PUBCHEM_BOND_UDEF_STEREO_COUNT>
0

> <PUBCHEM_ISOTOPIC_ATOM_COUNT>
0

> <PUBCHEM_COMPONENT_COUNT>
2

> <PUBCHEM_CACTVS_TAUTO_COUNT>
-1

> <PUBCHEM_COORDINATE_TYPE>
1
5
255

> <PUBCHEM_BONDANNOTATIONS>
12  13  8
12  18  8
13  19  8
18  21  8
19  22  8
21  22  8
8  10  6

$$$$
