10827592
  -OEChem-09292322132D

 45 48  0     1  0  0  0  0  0999 V2000
    2.9176    2.0016    0.0000 O   0  0  0  0  0  0  0  0  0  0  0  0
    6.3903   -1.0299    0.0000 N   0  0  3  0  0  0  0  0  0  0  0  0
    5.5321   -0.5330    0.0000 C   0  0  1  0  0  0  0  0  0  0  0  0
    5.5321    0.4670    0.0000 C   0  0  0  0  0  0  0  0  0  0  0  0
    4.6660   -1.0330    0.0000 C   0  0  0  0  0  0  0  0  0  0  0  0
    7.2558   -0.5457    0.0000 C   0  0  0  0  0  0  0  0  0  0  0  0
    6.4421    0.9739    0.0000 C   0  0  0  0  0  0  0  0  0  0  0  0
    7.2814    0.4456    0.0000 C   0  0  0  0  0  0  0  0  0  0  0  0
    6.3829   -2.0299    0.0000 C   0  0  0  0  0  0  0  0  0  0  0  0
    4.6660    0.9670    0.0000 C   0  0  0  0  0  0  0  0  0  0  0  0
    3.8000   -0.5330    0.0000 C   0  0  0  0  0  0  0  0  0  0  0  0
    3.8000    0.4670    0.0000 C   0  0  0  0  0  0  0  0  0  0  0  0
    6.4501    2.0155    0.0000 C   0  0  0  0  0  0  0  0  0  0  0  0
    4.6500    2.0085    0.0000 C   0  0  0  0  0  0  0  0  0  0  0  0
    7.2452   -2.5363    0.0000 C   0  0  0  0  0  0  0  0  0  0  0  0
    5.5132   -2.5235    0.0000 C   0  0  0  0  0  0  0  0  0  0  0  0
    2.9061   -1.0676    0.0000 C   0  0  0  0  0  0  0  0  0  0  0  0
    2.9061    1.0017    0.0000 C   0  0  0  0  0  0  0  0  0  0  0  0
    5.5480    2.5363    0.0000 C   0  0  0  0  0  0  0  0  0  0  0  0
    2.0000   -0.5538    0.0000 C   0  0  0  0  0  0  0  0  0  0  0  0
    2.0000    0.4878    0.0000 C   0  0  0  0  0  0  0  0  0  0  0  0
    2.0574    2.5116    0.0000 C   0  0  0  0  0  0  0  0  0  0  0  0
    5.5315   -1.3830    0.0000 H   0  0  0  0  0  0  0  0  0  0  0  0
    4.2675   -1.5079    0.0000 H   0  0  0  0  0  0  0  0  0  0  0  0
    5.0646   -1.5079    0.0000 H   0  0  0  0  0  0  0  0  0  0  0  0
    7.4575   -1.1320    0.0000 H   0  0  0  0  0  0  0  0  0  0  0  0
    7.8685   -0.4514    0.0000 H   0  0  0  0  0  0  0  0  0  0  0  0
    7.8885    0.3197    0.0000 H   0  0  0  0  0  0  0  0  0  0  0  0
    7.5131    1.0207    0.0000 H   0  0  0  0  0  0  0  0  0  0  0  0
    5.8482   -1.7159    0.0000 H   0  0  0  0  0  0  0  0  0  0  0  0
    6.9882    2.3234    0.0000 H   0  0  0  0  0  0  0  0  0  0  0  0
    4.1095    2.3123    0.0000 H   0  0  0  0  0  0  0  0  0  0  0  0
    6.9312   -3.0709    0.0000 H   0  0  0  0  0  0  0  0  0  0  0  0
    7.7798   -2.8502    0.0000 H   0  0  0  0  0  0  0  0  0  0  0  0
    7.5591   -2.0016    0.0000 H   0  0  0  0  0  0  0  0  0  0  0  0
    5.2072   -1.9842    0.0000 H   0  0  0  0  0  0  0  0  0  0  0  0
    4.9740   -2.8295    0.0000 H   0  0  0  0  0  0  0  0  0  0  0  0
    5.8192   -3.0627    0.0000 H   0  0  0  0  0  0  0  0  0  0  0  0
    2.9132   -1.6876    0.0000 H   0  0  0  0  0  0  0  0  0  0  0  0
    5.5456    3.1563    0.0000 H   0  0  0  0  0  0  0  0  0  0  0  0
    1.4643   -0.8659    0.0000 H   0  0  0  0  0  0  0  0  0  0  0  0
    1.4643    0.7999    0.0000 H   0  0  0  0  0  0  0  0  0  0  0  0
    2.3736    3.0449    0.0000 H   0  0  0  0  0  0  0  0  0  0  0  0
    1.5241    2.8278    0.0000 H   0  0  0  0  0  0  0  0  0  0  0  0
    1.7413    1.9783    0.0000 H   0  0  0  0  0  0  0  0  0  0  0  0
  1 18  1  0  0  0  0
  1 22  1  0  0  0  0
  2  3  1  0  0  0  0
  2  6  1  0  0  0  0
  2  9  1  0  0  0  0
  3  4  1  0  0  0  0
  3  5  1  0  0  0  0
  3 23  1  1  0  0  0
  4  7  2  0  0  0  0
  4 10  1  0  0  0  0
  5 11  1  0  0  0  0
  5 24  1  0  0  0  0
  5 25  1  0  0  0  0
  6  8  1  0  0  0  0
  6 26  1  0  0  0  0
  6 27  1  0  0  0  0
  7  8  1  0  0  0  0
  7 13  1  0  0  0  0
  8 28  1  0  0  0  0
  8 29  1  0  0  0  0
  9 15  1  0  0  0  0
  9 16  1  0  0  0  0
  9 30  1  0  0  0  0
 10 12  1  0  0  0  0
 10 14  2  0  0  0  0
 11 12  2  0  0  0  0
 11 17  1  0  0  0  0
 12 18  1  0  0  0  0
 13 19  2  0  0  0  0
 13 31  1  0  0  0  0
 14 19  1  0  0  0  0
 14 32  1  0  0  0  0
 15 33  1  0  0  0  0
 15 34  1  0  0  0  0
 15 35  1  0  0  0  0
 16 36  1  0  0  0  0
 16 37  1  0  0  0  0
 16 38  1  0  0  0  0
 17 20  2  0  0  0  0
 17 39  1  0  0  0  0
 18 21  2  0  0  0  0
 19 40  1  0  0  0  0
 20 21  1  0  0  0  0
 20 41  1  0  0  0  0
 21 42  1  0  0  0  0
 22 43  1  0  0  0  0
 22 44  1  0  0  0  0
 22 45  1  0  0  0  0
M  END
> <PUBCHEM_COMPOUND_CID>
10827592

> <PUBCHEM_COMPOUND_CANONICALIZED>
1

> <PUBCHEM_CACTVS_COMPLEXITY>
395

> <PUBCHEM_CACTVS_HBOND_ACCEPTOR>
2

> <PUBCHEM_CACTVS_HBOND_DONOR>
0

> <PUBCHEM_CACTVS_ROTATABLE_BOND>
2

> <PUBCHEM_CACTVS_SUBSKEYS>
AAADceB6IAAAAAAAAAAAAAAAAAAAAAAAAAA8YMEAAAAAAADxQAAAHgAAAAAADCzBmAYyBoMABACAAiBCAACCCAAgIAAIiAAODIgMJiKEsRuEMChkwBGIqAeQ0PMOgAADAAAYAACQAAaAADQAAAAAAAAAAA==

> <PUBCHEM_IUPAC_OPENEYE_NAME>
(6aR)-6-isopropyl-11-methoxy-5,6,6a,7-tetrahydro-4H-dibenzo[de,g]quinoline

> <PUBCHEM_IUPAC_CAS_NAME>
(6aR)-11-methoxy-6-propan-2-yl-5,6,6a,7-tetrahydro-4H-dibenzo[de,g]quinoline

> <PUBCHEM_IUPAC_NAME_MARKUP>
(6<I>a</I><I>R</I>)-11-methoxy-6-propan-2-yl-5,6,6<I>a</I>,7-tetrahydro-4<I>H</I>-dibenzo[de,g]quinoline

> <PUBCHEM_IUPAC_NAME>
(6aR)-11-methoxy-6-propan-2-yl-5,6,6a,7-tetrahydro-4H-dibenzo[de,g]quinoline

> <PUBCHEM_IUPAC_SYSTEMATIC_NAME>
(6aR)-11-methoxy-6-propan-2-yl-5,6,6a,7-tetrahydro-4H-dibenzo[de,g]quinoline

> <PUBCHEM_IUPAC_TRADITIONAL_NAME>
(6aR)-6-isopropyl-11-methoxy-5,6,6a,7-tetrahydro-4H-dibenzo[de,g]quinoline

> <PUBCHEM_IUPAC_INCHI>
InChI=1S/C20H23NO/c1-13(2)21-11-10-14-6-4-8-16-19(14)17(21)12-15-7-5-9-18(22-3)20(15)16/h4-9,13,17H,10-12H2,1-3H3/t17-/m1/s1

> <PUBCHEM_IUPAC_INCHIKEY>
SWVCTRVZUDUHBL-QGZVFWFLSA-N

> <PUBCHEM_XLOGP3_AA>
4.3

> <PUBCHEM_EXACT_MASS>
293.177964357

> <PUBCHEM_MOLECULAR_FORMULA>
C20H23NO

> <PUBCHEM_MOLECULAR_WEIGHT>
293.4

> <PUBCHEM_OPENEYE_CAN_SMILES>
CC(C)N1CCC2=C3C1CC4=C(C3=CC=C2)C(=CC=C4)OC

> <PUBCHEM_OPENEYE_ISO_SMILES>
CC(C)N1CCC2=C3[C@H]1CC4=C(C3=CC=C2)C(=CC=C4)OC

> <PUBCHEM_CACTVS_TPSA>
12.5

> <PUBCHEM_MONOISOTOPIC_WEIGHT>
293.177964357

> <PUBCHEM_TOTAL_CHARGE>
0

> <PUBCHEM_HEAVY_ATOM_COUNT>
22

> <PUBCHEM_ATOM_DEF_STEREO_COUNT>
1

> <PUBCHEM_ATOM_UDEF_STEREO_COUNT>
0

> <PUBCHEM_BOND_DEF_STEREO_COUNT>
0

> <PUBCHEM_BOND_UDEF_STEREO_COUNT>
0

> <PUBCHEM_ISOTOPIC_ATOM_COUNT>
0

> <PUBCHEM_COMPONENT_COUNT>
1

> <PUBCHEM_CACTVS_TAUTO_COUNT>
-1

> <PUBCHEM_COORDINATE_TYPE>
1
5
255

> <PUBCHEM_BONDANNOTATIONS>
10  14  8
11  12  8
11  17  8
12  18  8
13  19  8
14  19  8
17  20  8
18  21  8
20  21  8
3  23  5
4  10  8
4  7  8
7  13  8

$$$$
