11575479
  -OEChem-09292322492D

 46 49  0     1  0  0  0  0  0999 V2000
    3.7817    2.9324    0.0000 Cl  0  0  0  0  0  0  0  0  0  0  0  0
    2.0000   -0.1264    0.0000 Cl  0  0  0  0  0  0  0  0  0  0  0  0
    5.5301    2.8978    0.0000 O   0  0  0  0  0  0  0  0  0  0  0  0
    7.2622   -0.1022    0.0000 O   0  0  0  0  0  0  0  0  0  0  0  0
    9.3962   -0.3343    0.0000 O   0  0  0  0  0  0  0  0  0  0  0  0
    5.5301   -0.1022    0.0000 N   0  0  0  0  0  0  0  0  0  0  0  0
    6.3961    1.3978    0.0000 C   0  0  3  0  0  0  0  0  0  0  0  0
    7.3962    1.3978    0.0000 C   0  0  0  0  0  0  0  0  0  0  0  0
    5.5301    1.8978    0.0000 C   0  0  0  0  0  0  0  0  0  0  0  0
    6.3961    0.3978    0.0000 C   0  0  0  0  0  0  0  0  0  0  0  0
    6.8962    2.2638    0.0000 C   0  0  0  0  0  0  0  0  0  0  0  0
    4.6641    1.3978    0.0000 C   0  0  0  0  0  0  0  0  0  0  0  0
    4.6641    0.3978    0.0000 C   0  0  0  0  0  0  0  0  0  0  0  0
    7.8962    0.5317    0.0000 C   0  0  0  0  0  0  0  0  0  0  0  0
    7.8962    2.2638    0.0000 C   0  0  0  0  0  0  0  0  0  0  0  0
    3.7702    1.9324    0.0000 C   0  0  0  0  0  0  0  0  0  0  0  0
    3.7702   -0.1369    0.0000 C   0  0  0  0  0  0  0  0  0  0  0  0
    8.8962    0.5317    0.0000 C   0  0  0  0  0  0  0  0  0  0  0  0
    8.8962    2.2638    0.0000 C   0  0  0  0  0  0  0  0  0  0  0  0
    9.3962    1.3978    0.0000 C   0  0  0  0  0  0  0  0  0  0  0  0
    2.8641    1.4186    0.0000 C   0  0  0  0  0  0  0  0  0  0  0  0
    2.8641    0.3770    0.0000 C   0  0  0  0  0  0  0  0  0  0  0  0
   10.3962   -0.3343    0.0000 C   0  0  0  0  0  0  0  0  0  0  0  0
   10.8962   -1.2003    0.0000 C   0  0  0  0  0  0  0  0  0  0  0  0
   11.8962   -1.2003    0.0000 C   0  0  0  0  0  0  0  0  0  0  0  0
   10.3962   -2.0663    0.0000 C   0  0  0  0  0  0  0  0  0  0  0  0
   12.3962   -2.0663    0.0000 C   0  0  0  0  0  0  0  0  0  0  0  0
   10.8962   -2.9324    0.0000 C   0  0  0  0  0  0  0  0  0  0  0  0
   11.8962   -2.9324    0.0000 C   0  0  0  0  0  0  0  0  0  0  0  0
    7.4331    1.9538    0.0000 H   0  0  0  0  0  0  0  0  0  0  0  0
    7.2062    2.8007    0.0000 H   0  0  0  0  0  0  0  0  0  0  0  0
    6.3592    2.5738    0.0000 H   0  0  0  0  0  0  0  0  0  0  0  0
    5.5301   -0.7222    0.0000 H   0  0  0  0  0  0  0  0  0  0  0  0
    7.5862   -0.0052    0.0000 H   0  0  0  0  0  0  0  0  0  0  0  0
    7.5862    2.8007    0.0000 H   0  0  0  0  0  0  0  0  0  0  0  0
    3.7773   -0.7569    0.0000 H   0  0  0  0  0  0  0  0  0  0  0  0
    9.2061    2.8007    0.0000 H   0  0  0  0  0  0  0  0  0  0  0  0
   10.0162    1.3978    0.0000 H   0  0  0  0  0  0  0  0  0  0  0  0
    2.3284    1.7306    0.0000 H   0  0  0  0  0  0  0  0  0  0  0  0
   10.9788   -0.1222    0.0000 H   0  0  0  0  0  0  0  0  0  0  0  0
   10.2885    0.2763    0.0000 H   0  0  0  0  0  0  0  0  0  0  0  0
   12.2062   -0.6634    0.0000 H   0  0  0  0  0  0  0  0  0  0  0  0
    9.7762   -2.0663    0.0000 H   0  0  0  0  0  0  0  0  0  0  0  0
   13.0162   -2.0663    0.0000 H   0  0  0  0  0  0  0  0  0  0  0  0
   10.5862   -3.4693    0.0000 H   0  0  0  0  0  0  0  0  0  0  0  0
   12.2062   -3.4693    0.0000 H   0  0  0  0  0  0  0  0  0  0  0  0
  1 16  1  0  0  0  0
  2 22  1  0  0  0  0
  3  9  2  0  0  0  0
  4 10  2  0  0  0  0
  5 18  1  0  0  0  0
  5 23  1  0  0  0  0
  6 10  1  0  0  0  0
  6 13  1  0  0  0  0
  6 33  1  0  0  0  0
  7  8  1  0  0  0  0
  7  9  1  0  0  0  0
  7 10  1  0  0  0  0
  7 11  1  0  0  0  0
  8 14  2  0  0  0  0
  8 15  1  0  0  0  0
  9 12  1  0  0  0  0
 11 30  1  0  0  0  0
 11 31  1  0  0  0  0
 11 32  1  0  0  0  0
 12 13  2  0  0  0  0
 12 16  1  0  0  0  0
 13 17  1  0  0  0  0
 14 18  1  0  0  0  0
 14 34  1  0  0  0  0
 15 19  2  0  0  0  0
 15 35  1  0  0  0  0
 16 21  2  0  0  0  0
 17 22  2  0  0  0  0
 17 36  1  0  0  0  0
 18 20  2  0  0  0  0
 19 20  1  0  0  0  0
 19 37  1  0  0  0  0
 20 38  1  0  0  0  0
 21 22  1  0  0  0  0
 21 39  1  0  0  0  0
 23 24  1  0  0  0  0
 23 40  1  0  0  0  0
 23 41  1  0  0  0  0
 24 25  2  0  0  0  0
 24 26  1  0  0  0  0
 25 27  1  0  0  0  0
 25 42  1  0  0  0  0
 26 28  2  0  0  0  0
 26 43  1  0  0  0  0
 27 29  2  0  0  0  0
 27 44  1  0  0  0  0
 28 29  1  0  0  0  0
 28 45  1  0  0  0  0
 29 46  1  0  0  0  0
M  END
> <PUBCHEM_COMPOUND_CID>
11575479

> <PUBCHEM_COMPOUND_CANONICALIZED>
1

> <PUBCHEM_CACTVS_COMPLEXITY>
623

> <PUBCHEM_CACTVS_HBOND_ACCEPTOR>
3

> <PUBCHEM_CACTVS_HBOND_DONOR>
1

> <PUBCHEM_CACTVS_ROTATABLE_BOND>
4

> <PUBCHEM_CACTVS_SUBSKEYS>
AAADceB6MAAGAAAAAAAAAAAAAAAAAAAAAAA8YMEAAAAAAACxUAAAHgIQAAAADg6hmCIyxoLABACIAqVSUACCCAAlJwAIiAEGbsgMJjrNt5uGOajk1BHI7UeY3fLfhAABAAKDAAAIAAIABQYAAAAAAAAAAA==

> <PUBCHEM_IUPAC_OPENEYE_NAME>
3-(3-benzyloxyphenyl)-5,7-dichloro-3-methyl-1H-quinoline-2,4-dione

> <PUBCHEM_IUPAC_CAS_NAME>
5,7-dichloro-3-methyl-3-(3-phenylmethoxyphenyl)-1H-quinoline-2,4-dione

> <PUBCHEM_IUPAC_NAME_MARKUP>
5,7-dichloro-3-methyl-3-(3-phenylmethoxyphenyl)-1<I>H</I>-quinoline-2,4-dione

> <PUBCHEM_IUPAC_NAME>
5,7-dichloro-3-methyl-3-(3-phenylmethoxyphenyl)-1H-quinoline-2,4-dione

> <PUBCHEM_IUPAC_SYSTEMATIC_NAME>
5,7-bis(chloranyl)-3-methyl-3-(3-phenylmethoxyphenyl)-1H-quinoline-2,4-dione

> <PUBCHEM_IUPAC_TRADITIONAL_NAME>
3-(3-benzoxyphenyl)-5,7-dichloro-3-methyl-1H-quinoline-2,4-quinone

> <PUBCHEM_IUPAC_INCHI>
InChI=1S/C23H17Cl2NO3/c1-23(21(27)20-18(25)11-16(24)12-19(20)26-22(23)28)15-8-5-9-17(10-15)29-13-14-6-3-2-4-7-14/h2-12H,13H2,1H3,(H,26,28)

> <PUBCHEM_IUPAC_INCHIKEY>
QASCBWTWFDWZJI-UHFFFAOYSA-N

> <PUBCHEM_XLOGP3_AA>
5.6

> <PUBCHEM_EXACT_MASS>
425.0585488

> <PUBCHEM_MOLECULAR_FORMULA>
C23H17Cl2NO3

> <PUBCHEM_MOLECULAR_WEIGHT>
426.3

> <PUBCHEM_OPENEYE_CAN_SMILES>
CC1(C(=O)C2=C(C=C(C=C2Cl)Cl)NC1=O)C3=CC(=CC=C3)OCC4=CC=CC=C4

> <PUBCHEM_OPENEYE_ISO_SMILES>
CC1(C(=O)C2=C(C=C(C=C2Cl)Cl)NC1=O)C3=CC(=CC=C3)OCC4=CC=CC=C4

> <PUBCHEM_CACTVS_TPSA>
55.4

> <PUBCHEM_MONOISOTOPIC_WEIGHT>
425.0585488

> <PUBCHEM_TOTAL_CHARGE>
0

> <PUBCHEM_HEAVY_ATOM_COUNT>
29

> <PUBCHEM_ATOM_DEF_STEREO_COUNT>
0

> <PUBCHEM_ATOM_UDEF_STEREO_COUNT>
1

> <PUBCHEM_BOND_DEF_STEREO_COUNT>
0

> <PUBCHEM_BOND_UDEF_STEREO_COUNT>
0

> <PUBCHEM_ISOTOPIC_ATOM_COUNT>
0

> <PUBCHEM_COMPONENT_COUNT>
1

> <PUBCHEM_CACTVS_TAUTO_COUNT>
-1

> <PUBCHEM_COORDINATE_TYPE>
1
5
255

> <PUBCHEM_BONDANNOTATIONS>
12  13  8
12  16  8
13  17  8
14  18  8
15  19  8
16  21  8
17  22  8
18  20  8
19  20  8
21  22  8
24  25  8
24  26  8
25  27  8
26  28  8
27  29  8
28  29  8
7  11  3
8  14  8
8  15  8

$$$$
