138691321
  -OEChem-09292322412D

 29 31  0     0  0  0  0  0  0999 V2000
    2.0000    0.2830    0.0000 I   0  0  0  0  0  0  0  0  0  0  0  0
    3.7320   -2.7170    0.0000 F   0  0  0  0  0  0  0  0  0  0  0  0
    5.2686    1.8483    0.0000 N   0  0  0  0  0  0  0  0  0  0  0  0
    5.5443   -1.5217    0.0000 N   0  0  0  0  0  0  0  0  0  0  0  0
    6.8083    2.3457    0.0000 N   0  0  0  0  0  0  0  0  0  0  0  0
    5.5443    0.0878    0.0000 C   0  0  0  0  0  0  0  0  0  0  0  0
    4.5981   -0.2170    0.0000 C   0  0  0  0  0  0  0  0  0  0  0  0
    5.8550    1.0383    0.0000 C   0  0  0  0  0  0  0  0  0  0  0  0
    4.5981   -1.2170    0.0000 C   0  0  0  0  0  0  0  0  0  0  0  0
    6.1279   -0.7170    0.0000 C   0  0  0  0  0  0  0  0  0  0  0  0
    4.2686    1.8501    0.0000 C   0  0  0  0  0  0  0  0  0  0  0  0
    3.7320    0.2830    0.0000 C   0  0  0  0  0  0  0  0  0  0  0  0
    6.8066    1.3457    0.0000 C   0  0  0  0  0  0  0  0  0  0  0  0
    3.7320   -1.7170    0.0000 C   0  0  0  0  0  0  0  0  0  0  0  0
    5.8578    2.6563    0.0000 C   0  0  0  0  0  0  0  0  0  0  0  0
    2.8660   -0.2170    0.0000 C   0  0  0  0  0  0  0  0  0  0  0  0
    3.7701    2.7170    0.0000 C   0  0  0  0  0  0  0  0  0  0  0  0
    2.8660   -1.2170    0.0000 C   0  0  0  0  0  0  0  0  0  0  0  0
    6.7479   -0.7170    0.0000 H   0  0  0  0  0  0  0  0  0  0  0  0
    3.6856    1.6390    0.0000 H   0  0  0  0  0  0  0  0  0  0  0  0
    4.3752    1.2393    0.0000 H   0  0  0  0  0  0  0  0  0  0  0  0
    5.7369   -2.1110    0.0000 H   0  0  0  0  0  0  0  0  0  0  0  0
    3.7320    0.9030    0.0000 H   0  0  0  0  0  0  0  0  0  0  0  0
    7.3075    0.9804    0.0000 H   0  0  0  0  0  0  0  0  0  0  0  0
    5.6672    3.2463    0.0000 H   0  0  0  0  0  0  0  0  0  0  0  0
    4.3076    3.0260    0.0000 H   0  0  0  0  0  0  0  0  0  0  0  0
    3.4610    3.2544    0.0000 H   0  0  0  0  0  0  0  0  0  0  0  0
    3.2326    2.4079    0.0000 H   0  0  0  0  0  0  0  0  0  0  0  0
    2.3291   -1.5270    0.0000 H   0  0  0  0  0  0  0  0  0  0  0  0
  1 16  1  0  0  0  0
  2 14  1  0  0  0  0
  3  8  1  0  0  0  0
  3 11  1  0  0  0  0
  3 15  1  0  0  0  0
  4  9  1  0  0  0  0
  4 10  1  0  0  0  0
  4 22  1  0  0  0  0
  5 13  1  0  0  0  0
  5 15  2  0  0  0  0
  6  7  1  0  0  0  0
  6  8  1  0  0  0  0
  6 10  2  0  0  0  0
  7  9  2  0  0  0  0
  7 12  1  0  0  0  0
  8 13  2  0  0  0  0
  9 14  1  0  0  0  0
 10 19  1  0  0  0  0
 11 17  1  0  0  0  0
 11 20  1  0  0  0  0
 11 21  1  0  0  0  0
 12 16  2  0  0  0  0
 12 23  1  0  0  0  0
 13 24  1  0  0  0  0
 14 18  2  0  0  0  0
 15 25  1  0  0  0  0
 16 18  1  0  0  0  0
 17 26  1  0  0  0  0
 17 27  1  0  0  0  0
 17 28  1  0  0  0  0
 18 29  1  0  0  0  0
M  END
> <PUBCHEM_COMPOUND_CID>
138691321

> <PUBCHEM_COMPOUND_CANONICALIZED>
1

> <PUBCHEM_CACTVS_COMPLEXITY>
304

> <PUBCHEM_CACTVS_HBOND_ACCEPTOR>
2

> <PUBCHEM_CACTVS_HBOND_DONOR>
1

> <PUBCHEM_CACTVS_ROTATABLE_BOND>
2

> <PUBCHEM_CACTVS_SUBSKEYS>
AAADccBzAQAAAgAAAAAAAAAAAAAAAWLAAAAwAAAAAAAAAFgB/AAAHQAwAAAADAjDHgw/0PfNkACgAzRnZACCgC0xEqAB2aA4dJiIaOLA2ZGUIAhogALIyCcQgMAOgAAAAAACAAAAAAAAAAQAAAAAAAAAAA==

> <PUBCHEM_IUPAC_OPENEYE_NAME>
3-(3-ethylimidazol-4-yl)-7-fluoro-5-iodo-1H-indole

> <PUBCHEM_IUPAC_CAS_NAME>
3-(3-ethyl-4-imidazolyl)-7-fluoro-5-iodo-1H-indole

> <PUBCHEM_IUPAC_NAME_MARKUP>
3-(3-ethylimidazol-4-yl)-7-fluoro-5-iodo-1<I>H</I>-indole

> <PUBCHEM_IUPAC_NAME>
3-(3-ethylimidazol-4-yl)-7-fluoro-5-iodo-1H-indole

> <PUBCHEM_IUPAC_SYSTEMATIC_NAME>
3-(3-ethylimidazol-4-yl)-7-fluoranyl-5-iodanyl-1H-indole

> <PUBCHEM_IUPAC_TRADITIONAL_NAME>
3-(3-ethylimidazol-4-yl)-7-fluoro-5-iodo-1H-indole

> <PUBCHEM_IUPAC_INCHI>
InChI=1S/C13H11FIN3/c1-2-18-7-16-6-12(18)10-5-17-13-9(10)3-8(15)4-11(13)14/h3-7,17H,2H2,1H3

> <PUBCHEM_IUPAC_INCHIKEY>
HAULDNLFSXGWJR-UHFFFAOYSA-N

> <PUBCHEM_XLOGP3_AA>
2.9

> <PUBCHEM_EXACT_MASS>
354.99817

> <PUBCHEM_MOLECULAR_FORMULA>
C13H11FIN3

> <PUBCHEM_MOLECULAR_WEIGHT>
355.15

> <PUBCHEM_OPENEYE_CAN_SMILES>
CCN1C=NC=C1C2=CNC3=C2C=C(C=C3F)I

> <PUBCHEM_OPENEYE_ISO_SMILES>
CCN1C=NC=C1C2=CNC3=C2C=C(C=C3F)I

> <PUBCHEM_CACTVS_TPSA>
33.6

> <PUBCHEM_MONOISOTOPIC_WEIGHT>
354.99817

> <PUBCHEM_TOTAL_CHARGE>
0

> <PUBCHEM_HEAVY_ATOM_COUNT>
18

> <PUBCHEM_ATOM_DEF_STEREO_COUNT>
0

> <PUBCHEM_ATOM_UDEF_STEREO_COUNT>
0

> <PUBCHEM_BOND_DEF_STEREO_COUNT>
0

> <PUBCHEM_BOND_UDEF_STEREO_COUNT>
0

> <PUBCHEM_ISOTOPIC_ATOM_COUNT>
0

> <PUBCHEM_COMPONENT_COUNT>
1

> <PUBCHEM_CACTVS_TAUTO_COUNT>
-1

> <PUBCHEM_COORDINATE_TYPE>
1
5
255

> <PUBCHEM_BONDANNOTATIONS>
12  16  8
14  18  8
16  18  8
3  15  8
3  8  8
4  10  8
4  9  8
5  13  8
5  15  8
6  10  8
6  7  8
7  12  8
7  9  8
8  13  8
9  14  8

$$$$
