11271099
  -OEChem-09292322202D

 68 71  0     0  0  0  0  0  0999 V2000
    2.8660   -6.4050    0.0000 O   0  0  0  0  0  0  0  0  0  0  0  0
    8.0622    0.5950    0.0000 O   0  0  0  0  0  0  0  0  0  0  0  0
    4.5981   -3.4050    0.0000 N   0  0  0  0  0  0  0  0  0  0  0  0
    4.5981   -5.4050    0.0000 N   0  0  0  0  0  0  0  0  0  0  0  0
    6.3301    0.5950    0.0000 N   0  0  0  0  0  0  0  0  0  0  0  0
    7.1962    8.0950    0.0000 N   0  0  0  0  0  0  0  0  0  0  0  0
    5.4641   -3.9050    0.0000 C   0  0  0  0  0  0  0  0  0  0  0  0
    3.7320   -3.9050    0.0000 C   0  0  0  0  0  0  0  0  0  0  0  0
    5.4641   -4.9050    0.0000 C   0  0  0  0  0  0  0  0  0  0  0  0
    3.7320   -4.9050    0.0000 C   0  0  0  0  0  0  0  0  0  0  0  0
    4.5981   -2.4050    0.0000 C   0  0  0  0  0  0  0  0  0  0  0  0
    5.4641   -1.9050    0.0000 C   0  0  0  0  0  0  0  0  0  0  0  0
    4.5981   -6.4050    0.0000 C   0  0  0  0  0  0  0  0  0  0  0  0
    5.4641   -0.9050    0.0000 C   0  0  0  0  0  0  0  0  0  0  0  0
    6.3301   -0.4050    0.0000 C   0  0  0  0  0  0  0  0  0  0  0  0
    3.7320   -6.9050    0.0000 C   0  0  0  0  0  0  0  0  0  0  0  0
    5.4641   -6.9050    0.0000 C   0  0  0  0  0  0  0  0  0  0  0  0
    3.7320   -7.9050    0.0000 C   0  0  0  0  0  0  0  0  0  0  0  0
    5.4641   -7.9050    0.0000 C   0  0  0  0  0  0  0  0  0  0  0  0
    4.5981   -8.4050    0.0000 C   0  0  0  0  0  0  0  0  0  0  0  0
    7.1962    1.0950    0.0000 C   0  0  0  0  0  0  0  0  0  0  0  0
    2.0000   -6.9050    0.0000 C   0  0  0  0  0  0  0  0  0  0  0  0
    7.1962    2.0950    0.0000 C   0  0  0  0  0  0  0  0  0  0  0  0
    6.3301    2.5950    0.0000 C   0  0  0  0  0  0  0  0  0  0  0  0
    8.0622    2.5950    0.0000 C   0  0  0  0  0  0  0  0  0  0  0  0
    7.1962    4.0950    0.0000 C   0  0  0  0  0  0  0  0  0  0  0  0
    6.3301    3.5950    0.0000 C   0  0  0  0  0  0  0  0  0  0  0  0
    8.0622    3.5950    0.0000 C   0  0  0  0  0  0  0  0  0  0  0  0
    7.1962    5.0950    0.0000 C   0  0  0  0  0  0  0  0  0  0  0  0
    6.3301    5.5950    0.0000 C   0  0  0  0  0  0  0  0  0  0  0  0
    8.0622    5.5950    0.0000 C   0  0  0  0  0  0  0  0  0  0  0  0
    6.3301    6.5950    0.0000 C   0  0  0  0  0  0  0  0  0  0  0  0
    8.0622    6.5950    0.0000 C   0  0  0  0  0  0  0  0  0  0  0  0
    7.1962    7.0950    0.0000 C   0  0  0  0  0  0  0  0  0  0  0  0
    6.0747   -4.0127    0.0000 H   0  0  0  0  0  0  0  0  0  0  0  0
    5.6762   -3.3224    0.0000 H   0  0  0  0  0  0  0  0  0  0  0  0
    3.5200   -3.3224    0.0000 H   0  0  0  0  0  0  0  0  0  0  0  0
    3.1215   -4.0127    0.0000 H   0  0  0  0  0  0  0  0  0  0  0  0
    5.6762   -5.4876    0.0000 H   0  0  0  0  0  0  0  0  0  0  0  0
    6.0747   -4.7973    0.0000 H   0  0  0  0  0  0  0  0  0  0  0  0
    3.1215   -4.7973    0.0000 H   0  0  0  0  0  0  0  0  0  0  0  0
    3.5200   -5.4876    0.0000 H   0  0  0  0  0  0  0  0  0  0  0  0
    4.3860   -1.8224    0.0000 H   0  0  0  0  0  0  0  0  0  0  0  0
    3.9875   -2.5127    0.0000 H   0  0  0  0  0  0  0  0  0  0  0  0
    5.6762   -2.4876    0.0000 H   0  0  0  0  0  0  0  0  0  0  0  0
    6.0747   -1.7973    0.0000 H   0  0  0  0  0  0  0  0  0  0  0  0
    5.2520   -0.3224    0.0000 H   0  0  0  0  0  0  0  0  0  0  0  0
    4.8535   -1.0127    0.0000 H   0  0  0  0  0  0  0  0  0  0  0  0
    6.5422   -0.9876    0.0000 H   0  0  0  0  0  0  0  0  0  0  0  0
    6.9407   -0.2973    0.0000 H   0  0  0  0  0  0  0  0  0  0  0  0
    6.0010   -6.5950    0.0000 H   0  0  0  0  0  0  0  0  0  0  0  0
    3.1951   -8.2150    0.0000 H   0  0  0  0  0  0  0  0  0  0  0  0
    6.0010   -8.2150    0.0000 H   0  0  0  0  0  0  0  0  0  0  0  0
    5.7932    0.9050    0.0000 H   0  0  0  0  0  0  0  0  0  0  0  0
    4.5981   -9.0250    0.0000 H   0  0  0  0  0  0  0  0  0  0  0  0
    1.6900   -6.3681    0.0000 H   0  0  0  0  0  0  0  0  0  0  0  0
    1.4631   -7.2150    0.0000 H   0  0  0  0  0  0  0  0  0  0  0  0
    2.3100   -7.4419    0.0000 H   0  0  0  0  0  0  0  0  0  0  0  0
    5.7932    2.2850    0.0000 H   0  0  0  0  0  0  0  0  0  0  0  0
    8.5991    2.2850    0.0000 H   0  0  0  0  0  0  0  0  0  0  0  0
    5.7932    3.9050    0.0000 H   0  0  0  0  0  0  0  0  0  0  0  0
    8.5991    3.9050    0.0000 H   0  0  0  0  0  0  0  0  0  0  0  0
    5.7932    5.2850    0.0000 H   0  0  0  0  0  0  0  0  0  0  0  0
    8.5991    5.2850    0.0000 H   0  0  0  0  0  0  0  0  0  0  0  0
    5.7932    6.9050    0.0000 H   0  0  0  0  0  0  0  0  0  0  0  0
    8.5991    6.9050    0.0000 H   0  0  0  0  0  0  0  0  0  0  0  0
    7.7331    8.4050    0.0000 H   0  0  0  0  0  0  0  0  0  0  0  0
    6.6592    8.4050    0.0000 H   0  0  0  0  0  0  0  0  0  0  0  0
  1 16  1  0  0  0  0
  1 22  1  0  0  0  0
  2 21  2  0  0  0  0
  3  7  1  0  0  0  0
  3  8  1  0  0  0  0
  3 11  1  0  0  0  0
  4  9  1  0  0  0  0
  4 10  1  0  0  0  0
  4 13  1  0  0  0  0
  5 15  1  0  0  0  0
  5 21  1  0  0  0  0
  5 54  1  0  0  0  0
  6 34  1  0  0  0  0
  6 67  1  0  0  0  0
  6 68  1  0  0  0  0
  7  9  1  0  0  0  0
  7 35  1  0  0  0  0
  7 36  1  0  0  0  0
  8 10  1  0  0  0  0
  8 37  1  0  0  0  0
  8 38  1  0  0  0  0
  9 39  1  0  0  0  0
  9 40  1  0  0  0  0
 10 41  1  0  0  0  0
 10 42  1  0  0  0  0
 11 12  1  0  0  0  0
 11 43  1  0  0  0  0
 11 44  1  0  0  0  0
 12 14  1  0  0  0  0
 12 45  1  0  0  0  0
 12 46  1  0  0  0  0
 13 16  1  0  0  0  0
 13 17  2  0  0  0  0
 14 15  1  0  0  0  0
 14 47  1  0  0  0  0
 14 48  1  0  0  0  0
 15 49  1  0  0  0  0
 15 50  1  0  0  0  0
 16 18  2  0  0  0  0
 17 19  1  0  0  0  0
 17 51  1  0  0  0  0
 18 20  1  0  0  0  0
 18 52  1  0  0  0  0
 19 20  2  0  0  0  0
 19 53  1  0  0  0  0
 20 55  1  0  0  0  0
 21 23  1  0  0  0  0
 22 56  1  0  0  0  0
 22 57  1  0  0  0  0
 22 58  1  0  0  0  0
 23 24  2  0  0  0  0
 23 25  1  0  0  0  0
 24 27  1  0  0  0  0
 24 59  1  0  0  0  0
 25 28  2  0  0  0  0
 25 60  1  0  0  0  0
 26 27  2  0  0  0  0
 26 28  1  0  0  0  0
 26 29  1  0  0  0  0
 27 61  1  0  0  0  0
 28 62  1  0  0  0  0
 29 30  2  0  0  0  0
 29 31  1  0  0  0  0
 30 32  1  0  0  0  0
 30 63  1  0  0  0  0
 31 33  2  0  0  0  0
 31 64  1  0  0  0  0
 32 34  2  0  0  0  0
 32 65  1  0  0  0  0
 33 34  1  0  0  0  0
 33 66  1  0  0  0  0
M  END
> <PUBCHEM_COMPOUND_CID>
11271099

> <PUBCHEM_COMPOUND_CANONICALIZED>
1

> <PUBCHEM_CACTVS_COMPLEXITY>
593

> <PUBCHEM_CACTVS_HBOND_ACCEPTOR>
5

> <PUBCHEM_CACTVS_HBOND_DONOR>
2

> <PUBCHEM_CACTVS_ROTATABLE_BOND>
9

> <PUBCHEM_CACTVS_SUBSKEYS>
AAADcfB7sAAAAAAAAAAAAAAAAAAAAAAAAAA8YMEAAAAAAAABUAAAHgAQAAAADAzBmAYyxoPABACIAiVSUACCCAAlIgAIiIEPbMgOZjLEtZuVMShk1hHY6YeYyMCOyAAAAAAAEACQAAAAAAAgAAAAAAAAAA==

> <PUBCHEM_IUPAC_OPENEYE_NAME>
4-(4-aminophenyl)-N-[4-[4-(2-methoxyphenyl)piperazin-1-yl]butyl]benzamide

> <PUBCHEM_IUPAC_CAS_NAME>
4-(4-aminophenyl)-N-[4-[4-(2-methoxyphenyl)-1-piperazinyl]butyl]benzamide

> <PUBCHEM_IUPAC_NAME_MARKUP>
4-(4-aminophenyl)-<I>N</I>-[4-[4-(2-methoxyphenyl)piperazin-1-yl]butyl]benzamide

> <PUBCHEM_IUPAC_NAME>
4-(4-aminophenyl)-N-[4-[4-(2-methoxyphenyl)piperazin-1-yl]butyl]benzamide

> <PUBCHEM_IUPAC_SYSTEMATIC_NAME>
4-(4-aminophenyl)-N-[4-[4-(2-methoxyphenyl)piperazin-1-yl]butyl]benzamide

> <PUBCHEM_IUPAC_TRADITIONAL_NAME>
4-(4-aminophenyl)-N-[4-[4-(2-methoxyphenyl)piperazino]butyl]benzamide

> <PUBCHEM_IUPAC_INCHI>
InChI=1S/C28H34N4O2/c1-34-27-7-3-2-6-26(27)32-20-18-31(19-21-32)17-5-4-16-30-28(33)24-10-8-22(9-11-24)23-12-14-25(29)15-13-23/h2-3,6-15H,4-5,16-21,29H2,1H3,(H,30,33)

> <PUBCHEM_IUPAC_INCHIKEY>
YECOTWMMKZQQAE-UHFFFAOYSA-N

> <PUBCHEM_XLOGP3_AA>
4.5

> <PUBCHEM_EXACT_MASS>
458.26817634

> <PUBCHEM_MOLECULAR_FORMULA>
C28H34N4O2

> <PUBCHEM_MOLECULAR_WEIGHT>
458.6

> <PUBCHEM_OPENEYE_CAN_SMILES>
COC1=CC=CC=C1N2CCN(CC2)CCCCNC(=O)C3=CC=C(C=C3)C4=CC=C(C=C4)N

> <PUBCHEM_OPENEYE_ISO_SMILES>
COC1=CC=CC=C1N2CCN(CC2)CCCCNC(=O)C3=CC=C(C=C3)C4=CC=C(C=C4)N

> <PUBCHEM_CACTVS_TPSA>
70.8

> <PUBCHEM_MONOISOTOPIC_WEIGHT>
458.26817634

> <PUBCHEM_TOTAL_CHARGE>
0

> <PUBCHEM_HEAVY_ATOM_COUNT>
34

> <PUBCHEM_ATOM_DEF_STEREO_COUNT>
0

> <PUBCHEM_ATOM_UDEF_STEREO_COUNT>
0

> <PUBCHEM_BOND_DEF_STEREO_COUNT>
0

> <PUBCHEM_BOND_UDEF_STEREO_COUNT>
0

> <PUBCHEM_ISOTOPIC_ATOM_COUNT>
0

> <PUBCHEM_COMPONENT_COUNT>
1

> <PUBCHEM_CACTVS_TAUTO_COUNT>
-1

> <PUBCHEM_COORDINATE_TYPE>
1
5
255

> <PUBCHEM_BONDANNOTATIONS>
13  16  8
13  17  8
16  18  8
17  19  8
18  20  8
19  20  8
23  24  8
23  25  8
24  27  8
25  28  8
26  27  8
26  28  8
29  30  8
29  31  8
30  32  8
31  33  8
32  34  8
33  34  8

$$$$
