51355423
  -OEChem-09292322312D

 72 74  0     0  0  0  0  0  0999 V2000
   12.1002   15.6588    0.0000 S   0  0  0  0  0  0  0  0  0  0  0  0
    5.6720    2.1200    0.0000 F   0  0  0  0  0  0  0  0  0  0  0  0
    8.2700    2.6200    0.0000 O   0  0  0  0  0  0  0  0  0  0  0  0
   13.4662    9.6200    0.0000 O   0  0  0  0  0  0  0  0  0  0  0  0
    0.5369    8.3302    0.0000 O   0  0  0  0  0  0  0  0  0  0  0  0
    3.1350    7.8302    0.0000 O   0  0  0  0  0  0  0  0  0  0  0  0
    1.4030    6.8302    0.0000 O   0  0  0  0  0  0  0  0  0  0  0  0
    2.2690    9.3302    0.0000 O   0  0  0  0  0  0  0  0  0  0  0  0
   10.0021    5.6200    0.0000 N   0  0  0  0  0  0  0  0  0  0  0  0
   10.0021    3.6200    0.0000 N   0  0  0  0  0  0  0  0  0  0  0  0
   11.7341    9.6200    0.0000 N   0  0  0  0  0  0  0  0  0  0  0  0
    9.1360    5.1200    0.0000 C   0  0  0  0  0  0  0  0  0  0  0  0
   10.8681    5.1200    0.0000 C   0  0  0  0  0  0  0  0  0  0  0  0
    9.1360    4.1200    0.0000 C   0  0  0  0  0  0  0  0  0  0  0  0
   10.8681    4.1200    0.0000 C   0  0  0  0  0  0  0  0  0  0  0  0
   10.0021    6.6200    0.0000 C   0  0  0  0  0  0  0  0  0  0  0  0
   10.0021    2.6200    0.0000 C   0  0  0  0  0  0  0  0  0  0  0  0
    9.1360    2.1200    0.0000 C   0  0  0  0  0  0  0  0  0  0  0  0
   10.8681    7.1200    0.0000 C   0  0  0  0  0  0  0  0  0  0  0  0
   10.8681    2.1200    0.0000 C   0  0  0  0  0  0  0  0  0  0  0  0
    9.1360    1.1200    0.0000 C   0  0  0  0  0  0  0  0  0  0  0  0
   10.8681    1.1200    0.0000 C   0  0  0  0  0  0  0  0  0  0  0  0
   10.8681    8.1200    0.0000 C   0  0  0  0  0  0  0  0  0  0  0  0
   10.0021    0.6200    0.0000 C   0  0  0  0  0  0  0  0  0  0  0  0
   11.7341    8.6200    0.0000 C   0  0  0  0  0  0  0  0  0  0  0  0
    7.4040    2.1200    0.0000 C   0  0  0  0  0  0  0  0  0  0  0  0
    6.5380    2.6200    0.0000 C   0  0  0  0  0  0  0  0  0  0  0  0
   12.6002   10.1200    0.0000 C   0  0  0  0  0  0  0  0  0  0  0  0
   12.6002   11.1200    0.0000 C   0  0  0  0  0  0  0  0  0  0  0  0
   11.7341   11.6200    0.0000 C   0  0  0  0  0  0  0  0  0  0  0  0
   13.4662   11.6200    0.0000 C   0  0  0  0  0  0  0  0  0  0  0  0
   12.6002   13.1200    0.0000 C   0  0  0  0  0  0  0  0  0  0  0  0
   11.7341   12.6200    0.0000 C   0  0  0  0  0  0  0  0  0  0  0  0
   13.4662   12.6200    0.0000 C   0  0  0  0  0  0  0  0  0  0  0  0
   12.6002   14.1200    0.0000 C   0  0  0  0  0  0  0  0  0  0  0  0
   13.4092   14.7078    0.0000 C   0  0  0  0  0  0  0  0  0  0  0  0
   11.7911   14.7078    0.0000 C   0  0  0  0  0  0  0  0  0  0  0  0
   13.1002   15.6588    0.0000 C   0  0  0  0  0  0  0  0  0  0  0  0
    1.4030    7.8302    0.0000 C   0  0  0  0  0  0  0  0  0  0  0  0
    2.2690    8.3302    0.0000 C   0  0  0  0  0  0  0  0  0  0  0  0
    8.9240    5.7026    0.0000 H   0  0  0  0  0  0  0  0  0  0  0  0
    8.5255    5.0123    0.0000 H   0  0  0  0  0  0  0  0  0  0  0  0
   11.4787    5.0123    0.0000 H   0  0  0  0  0  0  0  0  0  0  0  0
   11.0802    5.7026    0.0000 H   0  0  0  0  0  0  0  0  0  0  0  0
    8.5255    4.2277    0.0000 H   0  0  0  0  0  0  0  0  0  0  0  0
    8.9240    3.5374    0.0000 H   0  0  0  0  0  0  0  0  0  0  0  0
   11.0802    3.5374    0.0000 H   0  0  0  0  0  0  0  0  0  0  0  0
   11.4787    4.2277    0.0000 H   0  0  0  0  0  0  0  0  0  0  0  0
    9.7900    7.2026    0.0000 H   0  0  0  0  0  0  0  0  0  0  0  0
    9.3915    6.5123    0.0000 H   0  0  0  0  0  0  0  0  0  0  0  0
   11.4050    6.8100    0.0000 H   0  0  0  0  0  0  0  0  0  0  0  0
   11.4050    2.4300    0.0000 H   0  0  0  0  0  0  0  0  0  0  0  0
    8.5991    0.8100    0.0000 H   0  0  0  0  0  0  0  0  0  0  0  0
   11.4050    0.8100    0.0000 H   0  0  0  0  0  0  0  0  0  0  0  0
   10.3312    8.4300    0.0000 H   0  0  0  0  0  0  0  0  0  0  0  0
   10.0021    0.0000    0.0000 H   0  0  0  0  0  0  0  0  0  0  0  0
   11.9462    8.0374    0.0000 H   0  0  0  0  0  0  0  0  0  0  0  0
   12.3447    8.7277    0.0000 H   0  0  0  0  0  0  0  0  0  0  0  0
    7.0055    1.6450    0.0000 H   0  0  0  0  0  0  0  0  0  0  0  0
    7.8025    1.6450    0.0000 H   0  0  0  0  0  0  0  0  0  0  0  0
   11.1972    9.9300    0.0000 H   0  0  0  0  0  0  0  0  0  0  0  0
    6.9365    3.0950    0.0000 H   0  0  0  0  0  0  0  0  0  0  0  0
    6.1394    3.0950    0.0000 H   0  0  0  0  0  0  0  0  0  0  0  0
   11.1972   11.3100    0.0000 H   0  0  0  0  0  0  0  0  0  0  0  0
   14.0031   11.3100    0.0000 H   0  0  0  0  0  0  0  0  0  0  0  0
   11.1972   12.9300    0.0000 H   0  0  0  0  0  0  0  0  0  0  0  0
   14.0031   12.9300    0.0000 H   0  0  0  0  0  0  0  0  0  0  0  0
   13.9988   14.5162    0.0000 H   0  0  0  0  0  0  0  0  0  0  0  0
   11.2015   14.5162    0.0000 H   0  0  0  0  0  0  0  0  0  0  0  0
   13.4646   16.1604    0.0000 H   0  0  0  0  0  0  0  0  0  0  0  0
    0.0000    8.0202    0.0000 H   0  0  0  0  0  0  0  0  0  0  0  0
    3.6720    8.1402    0.0000 H   0  0  0  0  0  0  0  0  0  0  0  0
  1 37  1  0  0  0  0
  1 38  1  0  0  0  0
  2 27  1  0  0  0  0
  3 18  1  0  0  0  0
  3 26  1  0  0  0  0
  4 28  2  0  0  0  0
  5 39  1  0  0  0  0
  5 71  1  0  0  0  0
  6 40  1  0  0  0  0
  6 72  1  0  0  0  0
  7 39  2  0  0  0  0
  8 40  2  0  0  0  0
  9 12  1  0  0  0  0
  9 13  1  0  0  0  0
  9 16  1  0  0  0  0
 10 14  1  0  0  0  0
 10 15  1  0  0  0  0
 10 17  1  0  0  0  0
 11 25  1  0  0  0  0
 11 28  1  0  0  0  0
 11 61  1  0  0  0  0
 12 14  1  0  0  0  0
 12 41  1  0  0  0  0
 12 42  1  0  0  0  0
 13 15  1  0  0  0  0
 13 43  1  0  0  0  0
 13 44  1  0  0  0  0
 14 45  1  0  0  0  0
 14 46  1  0  0  0  0
 15 47  1  0  0  0  0
 15 48  1  0  0  0  0
 16 19  1  0  0  0  0
 16 49  1  0  0  0  0
 16 50  1  0  0  0  0
 17 18  1  0  0  0  0
 17 20  2  0  0  0  0
 18 21  2  0  0  0  0
 19 23  2  0  0  0  0
 19 51  1  0  0  0  0
 20 22  1  0  0  0  0
 20 52  1  0  0  0  0
 21 24  1  0  0  0  0
 21 53  1  0  0  0  0
 22 24  2  0  0  0  0
 22 54  1  0  0  0  0
 23 25  1  0  0  0  0
 23 55  1  0  0  0  0
 24 56  1  0  0  0  0
 25 57  1  0  0  0  0
 25 58  1  0  0  0  0
 26 27  1  0  0  0  0
 26 59  1  0  0  0  0
 26 60  1  0  0  0  0
 27 62  1  0  0  0  0
 27 63  1  0  0  0  0
 28 29  1  0  0  0  0
 29 30  2  0  0  0  0
 29 31  1  0  0  0  0
 30 33  1  0  0  0  0
 30 64  1  0  0  0  0
 31 34  2  0  0  0  0
 31 65  1  0  0  0  0
 32 33  2  0  0  0  0
 32 34  1  0  0  0  0
 32 35  1  0  0  0  0
 33 66  1  0  0  0  0
 34 67  1  0  0  0  0
 35 36  1  0  0  0  0
 35 37  2  0  0  0  0
 36 38  2  0  0  0  0
 36 68  1  0  0  0  0
 37 69  1  0  0  0  0
 38 70  1  0  0  0  0
 39 40  1  0  0  0  0
M  END
> <PUBCHEM_COMPOUND_CID>
51355423

> <PUBCHEM_COMPOUND_CANONICALIZED>
1

> <PUBCHEM_CACTVS_COMPLEXITY>
707

> <PUBCHEM_CACTVS_HBOND_ACCEPTOR>
10

> <PUBCHEM_CACTVS_HBOND_DONOR>
3

> <PUBCHEM_CACTVS_ROTATABLE_BOND>
11

> <PUBCHEM_CACTVS_SUBSKEYS>
AAADcfB7OQBAAAAAAAAAAAAAAAAAASAAAAA8YIAAAAAAAAAB0AAAHwQQCAAADAzl2Aawz4PABgiMAiXSWAKDCIAlKhBIiJlPbMgPZjLktZuXOSjk1hH56YeYyMCOwAAAAAAAEACAAAAAAAAgAAAAAAAAAA==

> <PUBCHEM_IUPAC_OPENEYE_NAME>
N-[(E)-4-[4-[2-(2-fluoroethoxy)phenyl]piperazin-1-yl]but-2-enyl]-4-(3-thienyl)benzamide;oxalic acid

> <PUBCHEM_IUPAC_CAS_NAME>
N-[(E)-4-[4-[2-(2-fluoroethoxy)phenyl]-1-piperazinyl]but-2-enyl]-4-(3-thiophenyl)benzamide;oxalic acid

> <PUBCHEM_IUPAC_NAME_MARKUP>
<I>N</I>-[(<I>E</I>)-4-[4-[2-(2-fluoroethoxy)phenyl]piperazin-1-yl]but-2-enyl]-4-thiophen-3-ylbenzamide;oxalic acid

> <PUBCHEM_IUPAC_NAME>
N-[(E)-4-[4-[2-(2-fluoroethoxy)phenyl]piperazin-1-yl]but-2-enyl]-4-thiophen-3-ylbenzamide;oxalic acid

> <PUBCHEM_IUPAC_SYSTEMATIC_NAME>
ethanedioic acid;N-[(E)-4-[4-[2-(2-fluoranylethoxy)phenyl]piperazin-1-yl]but-2-enyl]-4-thiophen-3-yl-benzamide

> <PUBCHEM_IUPAC_TRADITIONAL_NAME>
N-[(E)-4-[4-[2-(2-fluoroethoxy)phenyl]piperazino]but-2-enyl]-4-(3-thienyl)benzamide;oxalic acid

> <PUBCHEM_IUPAC_INCHI>
InChI=1S/C27H30FN3O2S.C2H2O4/c28-12-19-33-26-6-2-1-5-25(26)31-17-15-30(16-18-31)14-4-3-13-29-27(32)23-9-7-22(8-10-23)24-11-20-34-21-24;3-1(4)2(5)6/h1-11,20-21H,12-19H2,(H,29,32);(H,3,4)(H,5,6)/b4-3+;

> <PUBCHEM_IUPAC_INCHIKEY>
RYGVCNZOLPYZLZ-BJILWQEISA-N

> <PUBCHEM_EXACT_MASS>
569.19958508

> <PUBCHEM_MOLECULAR_FORMULA>
C29H32FN3O6S

> <PUBCHEM_MOLECULAR_WEIGHT>
569.6

> <PUBCHEM_OPENEYE_CAN_SMILES>
C1CN(CCN1CC=CCNC(=O)C2=CC=C(C=C2)C3=CSC=C3)C4=CC=CC=C4OCCF.C(=O)(C(=O)O)O

> <PUBCHEM_OPENEYE_ISO_SMILES>
C1CN(CCN1C/C=C/CNC(=O)C2=CC=C(C=C2)C3=CSC=C3)C4=CC=CC=C4OCCF.C(=O)(C(=O)O)O

> <PUBCHEM_CACTVS_TPSA>
148

> <PUBCHEM_MONOISOTOPIC_WEIGHT>
569.19958508

> <PUBCHEM_TOTAL_CHARGE>
0

> <PUBCHEM_HEAVY_ATOM_COUNT>
40

> <PUBCHEM_ATOM_DEF_STEREO_COUNT>
0

> <PUBCHEM_ATOM_UDEF_STEREO_COUNT>
0

> <PUBCHEM_BOND_DEF_STEREO_COUNT>
1

> <PUBCHEM_BOND_UDEF_STEREO_COUNT>
0

> <PUBCHEM_ISOTOPIC_ATOM_COUNT>
0

> <PUBCHEM_COMPONENT_COUNT>
2

> <PUBCHEM_CACTVS_TAUTO_COUNT>
-1

> <PUBCHEM_COORDINATE_TYPE>
1
5
255

> <PUBCHEM_BONDANNOTATIONS>
1  37  8
1  38  8
17  18  8
17  20  8
18  21  8
20  22  8
21  24  8
22  24  8
29  30  8
29  31  8
30  33  8
31  34  8
32  33  8
32  34  8
35  36  8
35  37  8
36  38  8

$$$$
