162676953
  -OEChem-09292322432D

 51 55  0     0  0  0  0  0  0999 V2000
    7.5673    4.0753    0.0000 Cl  0  0  0  0  0  0  0  0  0  0  0  0
    4.9889    1.7618    0.0000 S   0  0  0  0  0  0  0  0  0  0  0  0
    4.0384    2.0725    0.0000 O   0  0  0  0  0  0  0  0  0  0  0  0
    5.9394    1.4512    0.0000 O   0  0  0  0  0  0  0  0  0  0  0  0
    2.8660   -1.9934    0.0000 N   0  0  0  0  0  0  0  0  0  0  0  0
    4.6783    0.8113    0.0000 N   0  0  0  0  0  0  0  0  0  0  0  0
    2.8660   -3.9934    0.0000 N   0  0  0  0  0  0  0  0  0  0  0  0
    4.6783   -0.7981    0.0000 N   0  0  0  0  0  0  0  0  0  0  0  0
    2.0000   -0.4934    0.0000 N   0  0  0  0  0  0  0  0  0  0  0  0
    3.7320   -2.4934    0.0000 C   0  0  0  0  0  0  0  0  0  0  0  0
    2.0000   -2.4934    0.0000 C   0  0  0  0  0  0  0  0  0  0  0  0
    3.7320   -3.4934    0.0000 C   0  0  0  0  0  0  0  0  0  0  0  0
    2.0000   -3.4934    0.0000 C   0  0  0  0  0  0  0  0  0  0  0  0
    2.8660   -0.9934    0.0000 C   0  0  0  0  0  0  0  0  0  0  0  0
    3.7320   -0.4934    0.0000 C   0  0  0  0  0  0  0  0  0  0  0  0
    3.7320    0.5066    0.0000 C   0  0  0  0  0  0  0  0  0  0  0  0
    5.2619    0.0066    0.0000 C   0  0  0  0  0  0  0  0  0  0  0  0
    2.8660    1.0066    0.0000 C   0  0  0  0  0  0  0  0  0  0  0  0
    6.2619    0.0066    0.0000 C   0  0  0  0  0  0  0  0  0  0  0  0
    5.2996    2.7124    0.0000 C   0  0  0  0  0  0  0  0  0  0  0  0
    2.0000    0.5066    0.0000 C   0  0  0  0  0  0  0  0  0  0  0  0
    6.7619   -0.8594    0.0000 C   0  0  0  0  0  0  0  0  0  0  0  0
    6.7619    0.8726    0.0000 C   0  0  0  0  0  0  0  0  0  0  0  0
    6.2781    2.9186    0.0000 C   0  0  0  0  0  0  0  0  0  0  0  0
    4.6318    3.4567    0.0000 C   0  0  0  0  0  0  0  0  0  0  0  0
    7.7619   -0.8594    0.0000 C   0  0  0  0  0  0  0  0  0  0  0  0
    7.7619    0.8726    0.0000 C   0  0  0  0  0  0  0  0  0  0  0  0
    6.5888    3.8691    0.0000 C   0  0  0  0  0  0  0  0  0  0  0  0
    4.9424    4.4072    0.0000 C   0  0  0  0  0  0  0  0  0  0  0  0
    8.2619    0.0066    0.0000 C   0  0  0  0  0  0  0  0  0  0  0  0
    5.9209    4.6134    0.0000 C   0  0  0  0  0  0  0  0  0  0  0  0
    4.3426   -2.6011    0.0000 H   0  0  0  0  0  0  0  0  0  0  0  0
    3.9441   -1.9108    0.0000 H   0  0  0  0  0  0  0  0  0  0  0  0
    1.7880   -1.9108    0.0000 H   0  0  0  0  0  0  0  0  0  0  0  0
    1.3894   -2.6011    0.0000 H   0  0  0  0  0  0  0  0  0  0  0  0
    3.9441   -4.0760    0.0000 H   0  0  0  0  0  0  0  0  0  0  0  0
    4.3426   -3.3857    0.0000 H   0  0  0  0  0  0  0  0  0  0  0  0
    1.3894   -3.3857    0.0000 H   0  0  0  0  0  0  0  0  0  0  0  0
    1.7880   -4.0760    0.0000 H   0  0  0  0  0  0  0  0  0  0  0  0
    2.8660   -4.6134    0.0000 H   0  0  0  0  0  0  0  0  0  0  0  0
    2.8660    1.6266    0.0000 H   0  0  0  0  0  0  0  0  0  0  0  0
    1.4631    0.8166    0.0000 H   0  0  0  0  0  0  0  0  0  0  0  0
    6.4519   -1.3964    0.0000 H   0  0  0  0  0  0  0  0  0  0  0  0
    6.4519    1.4096    0.0000 H   0  0  0  0  0  0  0  0  0  0  0  0
    6.6922    2.4571    0.0000 H   0  0  0  0  0  0  0  0  0  0  0  0
    4.0251    3.3288    0.0000 H   0  0  0  0  0  0  0  0  0  0  0  0
    8.0719   -1.3964    0.0000 H   0  0  0  0  0  0  0  0  0  0  0  0
    8.0719    1.4096    0.0000 H   0  0  0  0  0  0  0  0  0  0  0  0
    4.5284    4.8686    0.0000 H   0  0  0  0  0  0  0  0  0  0  0  0
    8.8819    0.0066    0.0000 H   0  0  0  0  0  0  0  0  0  0  0  0
    6.1135    5.2027    0.0000 H   0  0  0  0  0  0  0  0  0  0  0  0
  1 28  1  0  0  0  0
  2  3  2  0  0  0  0
  2  4  2  0  0  0  0
  2  6  1  0  0  0  0
  2 20  1  0  0  0  0
  5 10  1  0  0  0  0
  5 11  1  0  0  0  0
  5 14  1  0  0  0  0
  6 16  1  0  0  0  0
  6 17  1  0  0  0  0
  7 12  1  0  0  0  0
  7 13  1  0  0  0  0
  7 40  1  0  0  0  0
  8 15  1  0  0  0  0
  8 17  2  0  0  0  0
  9 14  2  0  0  0  0
  9 21  1  0  0  0  0
 10 12  1  0  0  0  0
 10 32  1  0  0  0  0
 10 33  1  0  0  0  0
 11 13  1  0  0  0  0
 11 34  1  0  0  0  0
 11 35  1  0  0  0  0
 12 36  1  0  0  0  0
 12 37  1  0  0  0  0
 13 38  1  0  0  0  0
 13 39  1  0  0  0  0
 14 15  1  0  0  0  0
 15 16  2  0  0  0  0
 16 18  1  0  0  0  0
 17 19  1  0  0  0  0
 18 21  2  0  0  0  0
 18 41  1  0  0  0  0
 19 22  2  0  0  0  0
 19 23  1  0  0  0  0
 20 24  2  0  0  0  0
 20 25  1  0  0  0  0
 21 42  1  0  0  0  0
 22 26  1  0  0  0  0
 22 43  1  0  0  0  0
 23 27  2  0  0  0  0
 23 44  1  0  0  0  0
 24 28  1  0  0  0  0
 24 45  1  0  0  0  0
 25 29  2  0  0  0  0
 25 46  1  0  0  0  0
 26 30  2  0  0  0  0
 26 47  1  0  0  0  0
 27 30  1  0  0  0  0
 27 48  1  0  0  0  0
 28 31  2  0  0  0  0
 29 31  1  0  0  0  0
 29 49  1  0  0  0  0
 30 50  1  0  0  0  0
 31 51  1  0  0  0  0
M  END
> <PUBCHEM_COMPOUND_CID>
162676953

> <PUBCHEM_COMPOUND_CANONICALIZED>
1

> <PUBCHEM_CACTVS_COMPLEXITY>
707

> <PUBCHEM_CACTVS_HBOND_ACCEPTOR>
6

> <PUBCHEM_CACTVS_HBOND_DONOR>
1

> <PUBCHEM_CACTVS_ROTATABLE_BOND>
4

> <PUBCHEM_CACTVS_SUBSKEYS>
AAADceB7sABEAAAAAAAAAAAAAAAAAWAAAAA8eIEAAAAAAFgB/AAAHAYQQAAADArBXyQ98bfIEAKgAzZnZHDCgD0xF6AJ2Lg4dpiIaOLB29GUJAhokALIyCcQgAAOAAAAABAAAAAAAAAAIAAAAAAAAAAAAA==

> <PUBCHEM_IUPAC_OPENEYE_NAME>
1-(3-chlorophenyl)sulfonyl-2-phenyl-4-piperazin-1-yl-imidazo[4,5-c]pyridine

> <PUBCHEM_IUPAC_CAS_NAME>
1-(3-chlorophenyl)sulfonyl-2-phenyl-4-(1-piperazinyl)imidazo[4,5-c]pyridine

> <PUBCHEM_IUPAC_NAME_MARKUP>
1-(3-chlorophenyl)sulfonyl-2-phenyl-4-piperazin-1-ylimidazo[4,5-c]pyridine

> <PUBCHEM_IUPAC_NAME>
1-(3-chlorophenyl)sulfonyl-2-phenyl-4-piperazin-1-ylimidazo[4,5-c]pyridine

> <PUBCHEM_IUPAC_SYSTEMATIC_NAME>
1-(3-chlorophenyl)sulfonyl-2-phenyl-4-piperazin-1-yl-imidazo[4,5-c]pyridine

> <PUBCHEM_IUPAC_TRADITIONAL_NAME>
1-(3-chlorophenyl)sulfonyl-2-phenyl-4-piperazino-imidazo[4,5-c]pyridine

> <PUBCHEM_IUPAC_INCHI>
InChI=1S/C22H20ClN5O2S/c23-17-7-4-8-18(15-17)31(29,30)28-19-9-10-25-22(27-13-11-24-12-14-27)20(19)26-21(28)16-5-2-1-3-6-16/h1-10,15,24H,11-14H2

> <PUBCHEM_IUPAC_INCHIKEY>
JHVGQSBTPJECOW-UHFFFAOYSA-N

> <PUBCHEM_XLOGP3_AA>
3.7

> <PUBCHEM_EXACT_MASS>
453.1026238

> <PUBCHEM_MOLECULAR_FORMULA>
C22H20ClN5O2S

> <PUBCHEM_MOLECULAR_WEIGHT>
453.9

> <PUBCHEM_OPENEYE_CAN_SMILES>
C1CN(CCN1)C2=NC=CC3=C2N=C(N3S(=O)(=O)C4=CC(=CC=C4)Cl)C5=CC=CC=C5

> <PUBCHEM_OPENEYE_ISO_SMILES>
C1CN(CCN1)C2=NC=CC3=C2N=C(N3S(=O)(=O)C4=CC(=CC=C4)Cl)C5=CC=CC=C5

> <PUBCHEM_CACTVS_TPSA>
88.5

> <PUBCHEM_MONOISOTOPIC_WEIGHT>
453.1026238

> <PUBCHEM_TOTAL_CHARGE>
0

> <PUBCHEM_HEAVY_ATOM_COUNT>
31

> <PUBCHEM_ATOM_DEF_STEREO_COUNT>
0

> <PUBCHEM_ATOM_UDEF_STEREO_COUNT>
0

> <PUBCHEM_BOND_DEF_STEREO_COUNT>
0

> <PUBCHEM_BOND_UDEF_STEREO_COUNT>
0

> <PUBCHEM_ISOTOPIC_ATOM_COUNT>
0

> <PUBCHEM_COMPONENT_COUNT>
1

> <PUBCHEM_CACTVS_TAUTO_COUNT>
-1

> <PUBCHEM_COORDINATE_TYPE>
1
5
255

> <PUBCHEM_BONDANNOTATIONS>
14  15  8
15  16  8
16  18  8
18  21  8
19  22  8
19  23  8
20  24  8
20  25  8
22  26  8
23  27  8
24  28  8
25  29  8
26  30  8
27  30  8
28  31  8
29  31  8
6  16  8
6  17  8
8  15  8
8  17  8
9  14  8
9  21  8

$$$$
