127051844
  -OEChem-09292322372D

 46 48  0     1  0  0  0  0  0999 V2000
    8.9962    1.7327    0.0000 O   0  0  0  0  0  0  0  0  0  0  0  0
   12.4603   -2.2673    0.0000 O   0  0  0  0  0  0  0  0  0  0  0  0
    5.5321    0.7327    0.0000 N   0  0  3  0  0  0  0  0  0  0  0  0
   13.3263   -0.7673    0.0000 N   0  0  0  0  0  0  0  0  0  0  0  0
    5.5321    1.7327    0.0000 C   0  0  0  0  0  0  0  0  0  0  0  0
    4.6660    0.2327    0.0000 C   0  0  0  0  0  0  0  0  0  0  0  0
    4.6660    2.2327    0.0000 C   0  0  0  0  0  0  0  0  0  0  0  0
    6.3981    0.2327    0.0000 C   0  0  0  0  0  0  0  0  0  0  0  0
    3.8000    0.7327    0.0000 C   0  0  0  0  0  0  0  0  0  0  0  0
    3.8000    1.7327    0.0000 C   0  0  0  0  0  0  0  0  0  0  0  0
    7.2641    0.7327    0.0000 C   0  0  0  0  0  0  0  0  0  0  0  0
    8.1301    0.2327    0.0000 C   0  0  0  0  0  0  0  0  0  0  0  0
    2.9061    0.1980    0.0000 C   0  0  0  0  0  0  0  0  0  0  0  0
    2.9061    2.2673    0.0000 C   0  0  0  0  0  0  0  0  0  0  0  0
    2.0000    0.7119    0.0000 C   0  0  0  0  0  0  0  0  0  0  0  0
    2.0000    1.7535    0.0000 C   0  0  0  0  0  0  0  0  0  0  0  0
    8.9962    0.7327    0.0000 C   0  0  0  0  0  0  0  0  0  0  0  0
    9.8622    0.2327    0.0000 C   0  0  0  0  0  0  0  0  0  0  0  0
    9.8622   -0.7673    0.0000 C   0  0  0  0  0  0  0  0  0  0  0  0
   10.7282    0.7327    0.0000 C   0  0  0  0  0  0  0  0  0  0  0  0
   10.7282   -1.2673    0.0000 C   0  0  0  0  0  0  0  0  0  0  0  0
   11.5942    0.2327    0.0000 C   0  0  0  0  0  0  0  0  0  0  0  0
   11.5942   -0.7673    0.0000 C   0  0  0  0  0  0  0  0  0  0  0  0
   12.4603   -1.2673    0.0000 C   0  0  0  0  0  0  0  0  0  0  0  0
    6.1426    1.6250    0.0000 H   0  0  0  0  0  0  0  0  0  0  0  0
    5.7441    2.3153    0.0000 H   0  0  0  0  0  0  0  0  0  0  0  0
    4.2675   -0.2423    0.0000 H   0  0  0  0  0  0  0  0  0  0  0  0
    5.0646   -0.2423    0.0000 H   0  0  0  0  0  0  0  0  0  0  0  0
    5.0646    2.7076    0.0000 H   0  0  0  0  0  0  0  0  0  0  0  0
    4.2675    2.7076    0.0000 H   0  0  0  0  0  0  0  0  0  0  0  0
    5.9996   -0.2423    0.0000 H   0  0  0  0  0  0  0  0  0  0  0  0
    6.7966   -0.2423    0.0000 H   0  0  0  0  0  0  0  0  0  0  0  0
    7.6626    1.2076    0.0000 H   0  0  0  0  0  0  0  0  0  0  0  0
    6.8656    1.2076    0.0000 H   0  0  0  0  0  0  0  0  0  0  0  0
    7.7316   -0.2423    0.0000 H   0  0  0  0  0  0  0  0  0  0  0  0
    8.5287   -0.2423    0.0000 H   0  0  0  0  0  0  0  0  0  0  0  0
    2.9132   -0.4220    0.0000 H   0  0  0  0  0  0  0  0  0  0  0  0
    2.9132    2.8873    0.0000 H   0  0  0  0  0  0  0  0  0  0  0  0
    1.4643    0.3998    0.0000 H   0  0  0  0  0  0  0  0  0  0  0  0
    1.4643    2.0656    0.0000 H   0  0  0  0  0  0  0  0  0  0  0  0
    9.3252   -1.0773    0.0000 H   0  0  0  0  0  0  0  0  0  0  0  0
   10.7282    1.3527    0.0000 H   0  0  0  0  0  0  0  0  0  0  0  0
   10.7282   -1.8873    0.0000 H   0  0  0  0  0  0  0  0  0  0  0  0
   12.1312    0.5427    0.0000 H   0  0  0  0  0  0  0  0  0  0  0  0
   13.8632   -1.0773    0.0000 H   0  0  0  0  0  0  0  0  0  0  0  0
   13.3263   -0.1473    0.0000 H   0  0  0  0  0  0  0  0  0  0  0  0
  1 17  2  0  0  0  0
  2 24  2  0  0  0  0
  3  5  1  0  0  0  0
  3  6  1  0  0  0  0
  3  8  1  0  0  0  0
  4 24  1  0  0  0  0
  4 45  1  0  0  0  0
  4 46  1  0  0  0  0
  5  7  1  0  0  0  0
  5 25  1  0  0  0  0
  5 26  1  0  0  0  0
  6  9  1  0  0  0  0
  6 27  1  0  0  0  0
  6 28  1  0  0  0  0
  7 10  1  0  0  0  0
  7 29  1  0  0  0  0
  7 30  1  0  0  0  0
  8 11  1  0  0  0  0
  8 31  1  0  0  0  0
  8 32  1  0  0  0  0
  9 10  1  0  0  0  0
  9 13  2  0  0  0  0
 10 14  2  0  0  0  0
 11 12  1  0  0  0  0
 11 33  1  0  0  0  0
 11 34  1  0  0  0  0
 12 17  1  0  0  0  0
 12 35  1  0  0  0  0
 12 36  1  0  0  0  0
 13 15  1  0  0  0  0
 13 37  1  0  0  0  0
 14 16  1  0  0  0  0
 14 38  1  0  0  0  0
 15 16  2  0  0  0  0
 15 39  1  0  0  0  0
 16 40  1  0  0  0  0
 17 18  1  0  0  0  0
 18 19  2  0  0  0  0
 18 20  1  0  0  0  0
 19 21  1  0  0  0  0
 19 41  1  0  0  0  0
 20 22  2  0  0  0  0
 20 42  1  0  0  0  0
 21 23  2  0  0  0  0
 21 43  1  0  0  0  0
 22 23  1  0  0  0  0
 22 44  1  0  0  0  0
 23 24  1  0  0  0  0
M  END
> <PUBCHEM_COMPOUND_CID>
127051844

> <PUBCHEM_COMPOUND_CANONICALIZED>
1

> <PUBCHEM_CACTVS_COMPLEXITY>
443

> <PUBCHEM_CACTVS_HBOND_ACCEPTOR>
3

> <PUBCHEM_CACTVS_HBOND_DONOR>
1

> <PUBCHEM_CACTVS_ROTATABLE_BOND>
6

> <PUBCHEM_CACTVS_SUBSKEYS>
AAADceB7MAAAAAAAAAAAAAAAAAAAAAAAAAA8YIAAAAAAAACxQAAAHgAQAAAADATBmAQwAINAAACIAqFSEACCAAAkAAAIiAEIBMgIIDKAlRGEIQhggACIiYcciMCOwAAAAAAQAACAAAAAACAAAAAAAAAAAA==

> <PUBCHEM_IUPAC_OPENEYE_NAME>
4-[4-(3,4-dihydro-1H-isoquinolin-2-yl)butanoyl]benzamide

> <PUBCHEM_IUPAC_CAS_NAME>
4-[4-(3,4-dihydro-1H-isoquinolin-2-yl)-1-oxobutyl]benzamide

> <PUBCHEM_IUPAC_NAME_MARKUP>
4-[4-(3,4-dihydro-1<I>H</I>-isoquinolin-2-yl)butanoyl]benzamide

> <PUBCHEM_IUPAC_NAME>
4-[4-(3,4-dihydro-1H-isoquinolin-2-yl)butanoyl]benzamide

> <PUBCHEM_IUPAC_SYSTEMATIC_NAME>
4-[4-(3,4-dihydro-1H-isoquinolin-2-yl)butanoyl]benzamide

> <PUBCHEM_IUPAC_TRADITIONAL_NAME>
4-[4-(3,4-dihydro-1H-isoquinolin-2-yl)butanoyl]benzamide

> <PUBCHEM_IUPAC_INCHI>
InChI=1S/C20H22N2O2/c21-20(24)17-9-7-16(8-10-17)19(23)6-3-12-22-13-11-15-4-1-2-5-18(15)14-22/h1-2,4-5,7-10H,3,6,11-14H2,(H2,21,24)

> <PUBCHEM_IUPAC_INCHIKEY>
HNPAUMYBQXZAJH-UHFFFAOYSA-N

> <PUBCHEM_XLOGP3_AA>
2.3

> <PUBCHEM_EXACT_MASS>
322.168127949

> <PUBCHEM_MOLECULAR_FORMULA>
C20H22N2O2

> <PUBCHEM_MOLECULAR_WEIGHT>
322.4

> <PUBCHEM_OPENEYE_CAN_SMILES>
C1CN(CC2=CC=CC=C21)CCCC(=O)C3=CC=C(C=C3)C(=O)N

> <PUBCHEM_OPENEYE_ISO_SMILES>
C1CN(CC2=CC=CC=C21)CCCC(=O)C3=CC=C(C=C3)C(=O)N

> <PUBCHEM_CACTVS_TPSA>
63.4

> <PUBCHEM_MONOISOTOPIC_WEIGHT>
322.168127949

> <PUBCHEM_TOTAL_CHARGE>
0

> <PUBCHEM_HEAVY_ATOM_COUNT>
24

> <PUBCHEM_ATOM_DEF_STEREO_COUNT>
0

> <PUBCHEM_ATOM_UDEF_STEREO_COUNT>
0

> <PUBCHEM_BOND_DEF_STEREO_COUNT>
0

> <PUBCHEM_BOND_UDEF_STEREO_COUNT>
0

> <PUBCHEM_ISOTOPIC_ATOM_COUNT>
0

> <PUBCHEM_COMPONENT_COUNT>
1

> <PUBCHEM_CACTVS_TAUTO_COUNT>
-1

> <PUBCHEM_COORDINATE_TYPE>
1
5
255

> <PUBCHEM_BONDANNOTATIONS>
10  14  8
13  15  8
14  16  8
15  16  8
18  19  8
18  20  8
19  21  8
20  22  8
21  23  8
22  23  8
9  10  8
9  13  8

$$$$
