44339794
  -OEChem-09292322082D

 36 38  0     1  0  0  0  0  0999 V2000
    7.7991    0.1538    0.0000 O   0  0  0  0  0  0  0  0  0  0  0  0
    7.7991    2.2021    0.0000 O   0  0  0  0  0  0  0  0  0  0  0  0
    2.5369    0.1779    0.0000 N   0  0  0  0  0  0  0  0  0  0  0  0
    4.2690    0.1779    0.0000 C   0  0  1  0  0  0  0  0  0  0  0  0
    3.4030    0.6779    0.0000 C   0  0  3  0  0  0  0  0  0  0  0  0
    3.4030    1.6779    0.0000 C   0  0  0  0  0  0  0  0  0  0  0  0
    5.1350    0.6779    0.0000 C   0  0  0  0  0  0  0  0  0  0  0  0
    4.2690    2.1779    0.0000 C   0  0  0  0  0  0  0  0  0  0  0  0
    5.1350    1.6779    0.0000 C   0  0  0  0  0  0  0  0  0  0  0  0
    4.2690   -0.8221    0.0000 C   0  0  0  0  0  0  0  0  0  0  0  0
    6.0290    0.1433    0.0000 C   0  0  0  0  0  0  0  0  0  0  0  0
    6.0290    2.2126    0.0000 C   0  0  0  0  0  0  0  0  0  0  0  0
    3.4030   -1.3221    0.0000 C   0  0  0  0  0  0  0  0  0  0  0  0
    5.1350   -1.3221    0.0000 C   0  0  0  0  0  0  0  0  0  0  0  0
    6.9350    0.6571    0.0000 C   0  0  0  0  0  0  0  0  0  0  0  0
    6.9350    1.6987    0.0000 C   0  0  0  0  0  0  0  0  0  0  0  0
    3.4030   -2.3221    0.0000 C   0  0  0  0  0  0  0  0  0  0  0  0
    5.1350   -2.3221    0.0000 C   0  0  0  0  0  0  0  0  0  0  0  0
    4.2690   -2.8221    0.0000 C   0  0  0  0  0  0  0  0  0  0  0  0
    4.8059   -0.1321    0.0000 H   0  0  0  0  0  0  0  0  0  0  0  0
    3.4030    0.0579    0.0000 H   0  0  0  0  0  0  0  0  0  0  0  0
    3.1909    2.2605    0.0000 H   0  0  0  0  0  0  0  0  0  0  0  0
    2.7924    1.5703    0.0000 H   0  0  0  0  0  0  0  0  0  0  0  0
    4.6675    2.6529    0.0000 H   0  0  0  0  0  0  0  0  0  0  0  0
    3.8705    2.6529    0.0000 H   0  0  0  0  0  0  0  0  0  0  0  0
    6.0218   -0.4767    0.0000 H   0  0  0  0  0  0  0  0  0  0  0  0
    2.0000    0.4879    0.0000 H   0  0  0  0  0  0  0  0  0  0  0  0
    2.5369   -0.4421    0.0000 H   0  0  0  0  0  0  0  0  0  0  0  0
    6.0218    2.8326    0.0000 H   0  0  0  0  0  0  0  0  0  0  0  0
    2.8660   -1.0121    0.0000 H   0  0  0  0  0  0  0  0  0  0  0  0
    5.6720   -1.0121    0.0000 H   0  0  0  0  0  0  0  0  0  0  0  0
    2.8660   -2.6321    0.0000 H   0  0  0  0  0  0  0  0  0  0  0  0
    5.6720   -2.6321    0.0000 H   0  0  0  0  0  0  0  0  0  0  0  0
    4.2690   -3.4421    0.0000 H   0  0  0  0  0  0  0  0  0  0  0  0
    8.3372    0.4617    0.0000 H   0  0  0  0  0  0  0  0  0  0  0  0
    7.7967    2.8221    0.0000 H   0  0  0  0  0  0  0  0  0  0  0  0
  1 15  1  0  0  0  0
  1 35  1  0  0  0  0
  2 16  1  0  0  0  0
  2 36  1  0  0  0  0
  3  5  1  0  0  0  0
  3 27  1  0  0  0  0
  3 28  1  0  0  0  0
  4  5  1  0  0  0  0
  4  7  1  0  0  0  0
  4 10  1  1  0  0  0
  4 20  1  0  0  0  0
  5  6  1  0  0  0  0
  5 21  1  0  0  0  0
  6  8  1  0  0  0  0
  6 22  1  0  0  0  0
  6 23  1  0  0  0  0
  7  9  1  0  0  0  0
  7 11  2  0  0  0  0
  8  9  1  0  0  0  0
  8 24  1  0  0  0  0
  8 25  1  0  0  0  0
  9 12  2  0  0  0  0
 10 13  2  0  0  0  0
 10 14  1  0  0  0  0
 11 15  1  0  0  0  0
 11 26  1  0  0  0  0
 12 16  1  0  0  0  0
 12 29  1  0  0  0  0
 13 17  1  0  0  0  0
 13 30  1  0  0  0  0
 14 18  2  0  0  0  0
 14 31  1  0  0  0  0
 15 16  2  0  0  0  0
 17 19  2  0  0  0  0
 17 32  1  0  0  0  0
 18 19  1  0  0  0  0
 18 33  1  0  0  0  0
 19 34  1  0  0  0  0
M  END
> <PUBCHEM_COMPOUND_CID>
44339794

> <PUBCHEM_COMPOUND_CANONICALIZED>
1

> <PUBCHEM_CACTVS_COMPLEXITY>
303

> <PUBCHEM_CACTVS_HBOND_ACCEPTOR>
3

> <PUBCHEM_CACTVS_HBOND_DONOR>
3

> <PUBCHEM_CACTVS_ROTATABLE_BOND>
1

> <PUBCHEM_CACTVS_SUBSKEYS>
AAADceB6MAAAAAAAAAAAAAAAAAAAAAAAAAAwYMAAAAAAAADBQAAAHgAQCAAADSzBmAQwBoBAAgCAAiBCAAACAAAgIAAIiIAGiIgJJiKCkROAcAEk0BEJmAeQ0PEOoAABAAAQQABQAAaAACSAAAAAAAAAAA==

> <PUBCHEM_IUPAC_OPENEYE_NAME>
(1R)-2-amino-1-phenyl-tetralin-6,7-diol

> <PUBCHEM_IUPAC_CAS_NAME>
(5R)-6-amino-5-phenyl-5,6,7,8-tetrahydronaphthalene-2,3-diol

> <PUBCHEM_IUPAC_NAME_MARKUP>
(5<I>R</I>)-6-amino-5-phenyl-5,6,7,8-tetrahydronaphthalene-2,3-diol

> <PUBCHEM_IUPAC_NAME>
(5R)-6-amino-5-phenyl-5,6,7,8-tetrahydronaphthalene-2,3-diol

> <PUBCHEM_IUPAC_SYSTEMATIC_NAME>
(5R)-6-azanyl-5-phenyl-5,6,7,8-tetrahydronaphthalene-2,3-diol

> <PUBCHEM_IUPAC_TRADITIONAL_NAME>
(1R)-2-amino-1-phenyl-tetralin-6,7-diol

> <PUBCHEM_IUPAC_INCHI>
InChI=1S/C16H17NO2/c17-13-7-6-11-8-14(18)15(19)9-12(11)16(13)10-4-2-1-3-5-10/h1-5,8-9,13,16,18-19H,6-7,17H2/t13?,16-/m1/s1

> <PUBCHEM_IUPAC_INCHIKEY>
RMBSJLJLHHNREK-FQNRMIAFSA-N

> <PUBCHEM_XLOGP3_AA>
2.4

> <PUBCHEM_EXACT_MASS>
255.125928785

> <PUBCHEM_MOLECULAR_FORMULA>
C16H17NO2

> <PUBCHEM_MOLECULAR_WEIGHT>
255.31

> <PUBCHEM_OPENEYE_CAN_SMILES>
C1CC2=CC(=C(C=C2C(C1N)C3=CC=CC=C3)O)O

> <PUBCHEM_OPENEYE_ISO_SMILES>
C1CC2=CC(=C(C=C2[C@H](C1N)C3=CC=CC=C3)O)O

> <PUBCHEM_CACTVS_TPSA>
66.5

> <PUBCHEM_MONOISOTOPIC_WEIGHT>
255.125928785

> <PUBCHEM_TOTAL_CHARGE>
0

> <PUBCHEM_HEAVY_ATOM_COUNT>
19

> <PUBCHEM_ATOM_DEF_STEREO_COUNT>
1

> <PUBCHEM_ATOM_UDEF_STEREO_COUNT>
1

> <PUBCHEM_BOND_DEF_STEREO_COUNT>
0

> <PUBCHEM_BOND_UDEF_STEREO_COUNT>
0

> <PUBCHEM_ISOTOPIC_ATOM_COUNT>
0

> <PUBCHEM_COMPONENT_COUNT>
1

> <PUBCHEM_CACTVS_TAUTO_COUNT>
-1

> <PUBCHEM_COORDINATE_TYPE>
1
5
255

> <PUBCHEM_BONDANNOTATIONS>
10  13  8
10  14  8
11  15  8
12  16  8
13  17  8
14  18  8
15  16  8
17  19  8
18  19  8
5  3  3
4  10  5
7  11  8
7  9  8
9  12  8

$$$$
