3519055
  -OEChem-09292322402D

 48 50  0     0  0  0  0  0  0999 V2000
    6.3981   -2.0000    0.0000 O   0  0  0  0  0  0  0  0  0  0  0  0
    4.6660    2.0000    0.0000 O   0  0  0  0  0  0  0  0  0  0  0  0
   10.7282   -0.5000    0.0000 N   0  0  0  0  0  0  0  0  0  0  0  0
   12.4603    0.5000    0.0000 N   0  0  0  0  0  0  0  0  0  0  0  0
    7.2641   -0.5000    0.0000 N   0  0  0  0  0  0  0  0  0  0  0  0
    4.6660   -1.0000    0.0000 N   0  0  0  0  0  0  0  0  0  0  0  0
   11.5942   -1.0000    0.0000 C   0  0  0  0  0  0  0  0  0  0  0  0
   10.7282    0.5000    0.0000 C   0  0  0  0  0  0  0  0  0  0  0  0
   12.4603   -0.5000    0.0000 C   0  0  0  0  0  0  0  0  0  0  0  0
   11.5942    1.0000    0.0000 C   0  0  0  0  0  0  0  0  0  0  0  0
    9.8622   -1.0000    0.0000 C   0  0  0  0  0  0  0  0  0  0  0  0
    8.9962   -0.5000    0.0000 C   0  0  0  0  0  0  0  0  0  0  0  0
   13.3263    1.0000    0.0000 C   0  0  0  0  0  0  0  0  0  0  0  0
    8.1301   -1.0000    0.0000 C   0  0  0  0  0  0  0  0  0  0  0  0
    6.3981   -1.0000    0.0000 C   0  0  0  0  0  0  0  0  0  0  0  0
    5.5321   -0.5000    0.0000 C   0  0  0  0  0  0  0  0  0  0  0  0
    3.8000   -0.5000    0.0000 C   0  0  0  0  0  0  0  0  0  0  0  0
    3.8000    0.5000    0.0000 C   0  0  0  0  0  0  0  0  0  0  0  0
    5.5321    0.5000    0.0000 C   0  0  0  0  0  0  0  0  0  0  0  0
    4.6660    1.0000    0.0000 C   0  0  0  0  0  0  0  0  0  0  0  0
    2.9061   -1.0347    0.0000 C   0  0  0  0  0  0  0  0  0  0  0  0
    2.9061    1.0347    0.0000 C   0  0  0  0  0  0  0  0  0  0  0  0
    2.0000   -0.5208    0.0000 C   0  0  0  0  0  0  0  0  0  0  0  0
    2.0000    0.5208    0.0000 C   0  0  0  0  0  0  0  0  0  0  0  0
   11.1957   -1.4750    0.0000 H   0  0  0  0  0  0  0  0  0  0  0  0
   11.9928   -1.4750    0.0000 H   0  0  0  0  0  0  0  0  0  0  0  0
   10.5162    1.0826    0.0000 H   0  0  0  0  0  0  0  0  0  0  0  0
   10.1176    0.3923    0.0000 H   0  0  0  0  0  0  0  0  0  0  0  0
   12.6723   -1.0826    0.0000 H   0  0  0  0  0  0  0  0  0  0  0  0
   13.0708   -0.3923    0.0000 H   0  0  0  0  0  0  0  0  0  0  0  0
   11.9928    1.4750    0.0000 H   0  0  0  0  0  0  0  0  0  0  0  0
   11.1957    1.4750    0.0000 H   0  0  0  0  0  0  0  0  0  0  0  0
    9.4637   -1.4750    0.0000 H   0  0  0  0  0  0  0  0  0  0  0  0
   10.2607   -1.4750    0.0000 H   0  0  0  0  0  0  0  0  0  0  0  0
    9.3947   -0.0251    0.0000 H   0  0  0  0  0  0  0  0  0  0  0  0
    8.5976   -0.0251    0.0000 H   0  0  0  0  0  0  0  0  0  0  0  0
   13.6363    0.4631    0.0000 H   0  0  0  0  0  0  0  0  0  0  0  0
   13.8632    1.3100    0.0000 H   0  0  0  0  0  0  0  0  0  0  0  0
   13.0163    1.5369    0.0000 H   0  0  0  0  0  0  0  0  0  0  0  0
    7.7316   -1.4750    0.0000 H   0  0  0  0  0  0  0  0  0  0  0  0
    8.5287   -1.4750    0.0000 H   0  0  0  0  0  0  0  0  0  0  0  0
    7.2641    0.1200    0.0000 H   0  0  0  0  0  0  0  0  0  0  0  0
    4.6660   -1.6200    0.0000 H   0  0  0  0  0  0  0  0  0  0  0  0
    6.0690    0.8100    0.0000 H   0  0  0  0  0  0  0  0  0  0  0  0
    2.9132   -1.6546    0.0000 H   0  0  0  0  0  0  0  0  0  0  0  0
    2.9132    1.6546    0.0000 H   0  0  0  0  0  0  0  0  0  0  0  0
    1.4643   -0.8329    0.0000 H   0  0  0  0  0  0  0  0  0  0  0  0
    1.4643    0.8329    0.0000 H   0  0  0  0  0  0  0  0  0  0  0  0
  1 15  2  0  0  0  0
  2 20  2  0  0  0  0
  3  7  1  0  0  0  0
  3  8  1  0  0  0  0
  3 11  1  0  0  0  0
  4  9  1  0  0  0  0
  4 10  1  0  0  0  0
  4 13  1  0  0  0  0
  5 14  1  0  0  0  0
  5 15  1  0  0  0  0
  5 42  1  0  0  0  0
  6 16  1  0  0  0  0
  6 17  1  0  0  0  0
  6 43  1  0  0  0  0
  7  9  1  0  0  0  0
  7 25  1  0  0  0  0
  7 26  1  0  0  0  0
  8 10  1  0  0  0  0
  8 27  1  0  0  0  0
  8 28  1  0  0  0  0
  9 29  1  0  0  0  0
  9 30  1  0  0  0  0
 10 31  1  0  0  0  0
 10 32  1  0  0  0  0
 11 12  1  0  0  0  0
 11 33  1  0  0  0  0
 11 34  1  0  0  0  0
 12 14  1  0  0  0  0
 12 35  1  0  0  0  0
 12 36  1  0  0  0  0
 13 37  1  0  0  0  0
 13 38  1  0  0  0  0
 13 39  1  0  0  0  0
 14 40  1  0  0  0  0
 14 41  1  0  0  0  0
 15 16  1  0  0  0  0
 16 19  2  0  0  0  0
 17 18  1  0  0  0  0
 17 21  2  0  0  0  0
 18 20  1  0  0  0  0
 18 22  2  0  0  0  0
 19 20  1  0  0  0  0
 19 44  1  0  0  0  0
 21 23  1  0  0  0  0
 21 45  1  0  0  0  0
 22 24  1  0  0  0  0
 22 46  1  0  0  0  0
 23 24  2  0  0  0  0
 23 47  1  0  0  0  0
 24 48  1  0  0  0  0
M  END
> <PUBCHEM_COMPOUND_CID>
3519055

> <PUBCHEM_COMPOUND_CANONICALIZED>
1

> <PUBCHEM_CACTVS_COMPLEXITY>
497

> <PUBCHEM_CACTVS_HBOND_ACCEPTOR>
5

> <PUBCHEM_CACTVS_HBOND_DONOR>
2

> <PUBCHEM_CACTVS_ROTATABLE_BOND>
5

> <PUBCHEM_CACTVS_SUBSKEYS>
AAADceB7sAAAAAAAAAAAAAAAAAAAAAAAAAA8QIAAAAAAAACBAAAAHgAQAAAADAzBmAQywIPAAACIAqVSUACCAAAlAgAIiIGIZMgIYDrA1bGUIYhglgDIyccYiICOAAAAAAACAAAAAAAAAAQAAAAAAAAAAA==

> <PUBCHEM_IUPAC_OPENEYE_NAME>
N-[3-(4-methylpiperazin-1-yl)propyl]-4-oxo-1H-quinoline-2-carboxamide

> <PUBCHEM_IUPAC_CAS_NAME>
N-[3-(4-methyl-1-piperazinyl)propyl]-4-oxo-1H-quinoline-2-carboxamide

> <PUBCHEM_IUPAC_NAME_MARKUP>
<I>N</I>-[3-(4-methylpiperazin-1-yl)propyl]-4-oxo-1<I>H</I>-quinoline-2-carboxamide

> <PUBCHEM_IUPAC_NAME>
N-[3-(4-methylpiperazin-1-yl)propyl]-4-oxo-1H-quinoline-2-carboxamide

> <PUBCHEM_IUPAC_SYSTEMATIC_NAME>
N-[3-(4-methylpiperazin-1-yl)propyl]-4-oxidanylidene-1H-quinoline-2-carboxamide

> <PUBCHEM_IUPAC_TRADITIONAL_NAME>
4-keto-N-[3-(4-methylpiperazino)propyl]-1H-quinoline-2-carboxamide

> <PUBCHEM_IUPAC_INCHI>
InChI=1S/C18H24N4O2/c1-21-9-11-22(12-10-21)8-4-7-19-18(24)16-13-17(23)14-5-2-3-6-15(14)20-16/h2-3,5-6,13H,4,7-12H2,1H3,(H,19,24)(H,20,23)

> <PUBCHEM_IUPAC_INCHIKEY>
UYIBJXVYMYAZGV-UHFFFAOYSA-N

> <PUBCHEM_XLOGP3_AA>
1.3

> <PUBCHEM_EXACT_MASS>
328.18992602

> <PUBCHEM_MOLECULAR_FORMULA>
C18H24N4O2

> <PUBCHEM_MOLECULAR_WEIGHT>
328.4

> <PUBCHEM_OPENEYE_CAN_SMILES>
CN1CCN(CC1)CCCNC(=O)C2=CC(=O)C3=CC=CC=C3N2

> <PUBCHEM_OPENEYE_ISO_SMILES>
CN1CCN(CC1)CCCNC(=O)C2=CC(=O)C3=CC=CC=C3N2

> <PUBCHEM_CACTVS_TPSA>
64.7

> <PUBCHEM_MONOISOTOPIC_WEIGHT>
328.18992602

> <PUBCHEM_TOTAL_CHARGE>
0

> <PUBCHEM_HEAVY_ATOM_COUNT>
24

> <PUBCHEM_ATOM_DEF_STEREO_COUNT>
0

> <PUBCHEM_ATOM_UDEF_STEREO_COUNT>
0

> <PUBCHEM_BOND_DEF_STEREO_COUNT>
0

> <PUBCHEM_BOND_UDEF_STEREO_COUNT>
0

> <PUBCHEM_ISOTOPIC_ATOM_COUNT>
0

> <PUBCHEM_COMPONENT_COUNT>
1

> <PUBCHEM_CACTVS_TAUTO_COUNT>
-1

> <PUBCHEM_COORDINATE_TYPE>
1
5
255

> <PUBCHEM_BONDANNOTATIONS>
16  19  8
17  18  8
17  21  8
18  20  8
18  22  8
19  20  8
21  23  8
22  24  8
23  24  8
6  16  8
6  17  8

$$$$
