145992305
  -OEChem-09292322392D

 52 54  0     1  0  0  0  0  0999 V2000
    6.3301    0.9097    0.0000 O   0  0  0  0  0  0  0  0  0  0  0  0
    5.6915    4.5734    0.0000 O   0  0  0  0  0  0  0  0  0  0  0  0
    7.4516    1.5248    0.0000 O   0  0  0  0  0  0  0  0  0  0  0  0
    4.5981   -0.0903    0.0000 N   0  0  0  0  0  0  0  0  0  0  0  0
    4.5981   -2.0903    0.0000 N   0  0  0  0  0  0  0  0  0  0  0  0
    6.3301    2.9097    0.0000 N   0  0  0  0  0  0  0  0  0  0  0  0
    7.9128    3.2461    0.0000 N   0  0  0  0  0  0  0  0  0  0  0  0
    2.0000   -2.5903    0.0000 N   0  0  0  0  0  0  0  0  0  0  0  0
    4.5981    0.9097    0.0000 C   0  0  0  0  0  0  0  0  0  0  0  0
    5.4641   -0.5903    0.0000 C   0  0  0  0  0  0  0  0  0  0  0  0
    3.7320   -0.5903    0.0000 C   0  0  0  0  0  0  0  0  0  0  0  0
    5.4641    1.4097    0.0000 C   0  0  3  0  0  0  0  0  0  0  0  0
    5.4641   -1.5903    0.0000 C   0  0  0  0  0  0  0  0  0  0  0  0
    3.7320   -1.5903    0.0000 C   0  0  0  0  0  0  0  0  0  0  0  0
    5.4641    2.4097    0.0000 C   0  0  0  0  0  0  0  0  0  0  0  0
    7.4128    4.1121    0.0000 C   0  0  0  0  0  0  0  0  0  0  0  0
    6.4347    3.9042    0.0000 C   0  0  0  0  0  0  0  0  0  0  0  0
    7.2437    2.5030    0.0000 C   0  0  0  0  0  0  0  0  0  0  0  0
    4.5981   -3.0903    0.0000 C   0  0  0  0  0  0  0  0  0  0  0  0
    8.2788    4.6121    0.0000 C   0  0  0  0  0  0  0  0  0  0  0  0
    7.2049    5.0903    0.0000 C   0  0  0  0  0  0  0  0  0  0  0  0
    3.7320   -3.5903    0.0000 C   0  0  0  0  0  0  0  0  0  0  0  0
    5.4641   -3.5903    0.0000 C   0  0  0  0  0  0  0  0  0  0  0  0
    3.7320   -4.5903    0.0000 C   0  0  0  0  0  0  0  0  0  0  0  0
    5.4641   -4.5903    0.0000 C   0  0  0  0  0  0  0  0  0  0  0  0
    4.5981   -5.0903    0.0000 C   0  0  0  0  0  0  0  0  0  0  0  0
    2.8660   -3.0903    0.0000 C   0  0  0  0  0  0  0  0  0  0  0  0
    4.3860    1.4923    0.0000 H   0  0  0  0  0  0  0  0  0  0  0  0
    3.9875    0.8020    0.0000 H   0  0  0  0  0  0  0  0  0  0  0  0
    6.0747   -0.6980    0.0000 H   0  0  0  0  0  0  0  0  0  0  0  0
    5.6762   -0.0077    0.0000 H   0  0  0  0  0  0  0  0  0  0  0  0
    3.5200   -0.0077    0.0000 H   0  0  0  0  0  0  0  0  0  0  0  0
    3.1215   -0.6980    0.0000 H   0  0  0  0  0  0  0  0  0  0  0  0
    6.0010    1.7197    0.0000 H   0  0  0  0  0  0  0  0  0  0  0  0
    5.6762   -2.1729    0.0000 H   0  0  0  0  0  0  0  0  0  0  0  0
    6.0747   -1.4826    0.0000 H   0  0  0  0  0  0  0  0  0  0  0  0
    3.1215   -1.4826    0.0000 H   0  0  0  0  0  0  0  0  0  0  0  0
    3.5200   -2.1729    0.0000 H   0  0  0  0  0  0  0  0  0  0  0  0
    5.2520    2.9923    0.0000 H   0  0  0  0  0  0  0  0  0  0  0  0
    4.8535    2.3020    0.0000 H   0  0  0  0  0  0  0  0  0  0  0  0
    8.5294    3.1813    0.0000 H   0  0  0  0  0  0  0  0  0  0  0  0
    8.5888    4.0752    0.0000 H   0  0  0  0  0  0  0  0  0  0  0  0
    8.8158    4.9221    0.0000 H   0  0  0  0  0  0  0  0  0  0  0  0
    7.9688    5.1491    0.0000 H   0  0  0  0  0  0  0  0  0  0  0  0
    7.8113    5.2192    0.0000 H   0  0  0  0  0  0  0  0  0  0  0  0
    7.0760    5.6967    0.0000 H   0  0  0  0  0  0  0  0  0  0  0  0
    6.5984    4.9614    0.0000 H   0  0  0  0  0  0  0  0  0  0  0  0
    6.8671    1.2197    0.0000 H   0  0  0  0  0  0  0  0  0  0  0  0
    6.0010   -3.2803    0.0000 H   0  0  0  0  0  0  0  0  0  0  0  0
    3.1951   -4.9003    0.0000 H   0  0  0  0  0  0  0  0  0  0  0  0
    6.0010   -4.9003    0.0000 H   0  0  0  0  0  0  0  0  0  0  0  0
    4.5981   -5.7103    0.0000 H   0  0  0  0  0  0  0  0  0  0  0  0
  1 12  1  0  0  0  0
  1 48  1  0  0  0  0
  2 17  2  0  0  0  0
  3 18  2  0  0  0  0
  4  9  1  0  0  0  0
  4 10  1  0  0  0  0
  4 11  1  0  0  0  0
  5 13  1  0  0  0  0
  5 14  1  0  0  0  0
  5 19  1  0  0  0  0
  6 15  1  0  0  0  0
  6 17  1  0  0  0  0
  6 18  1  0  0  0  0
  7 16  1  0  0  0  0
  7 18  1  0  0  0  0
  7 41  1  0  0  0  0
  8 27  3  0  0  0  0
  9 12  1  0  0  0  0
  9 28  1  0  0  0  0
  9 29  1  0  0  0  0
 10 13  1  0  0  0  0
 10 30  1  0  0  0  0
 10 31  1  0  0  0  0
 11 14  1  0  0  0  0
 11 32  1  0  0  0  0
 11 33  1  0  0  0  0
 12 15  1  0  0  0  0
 12 34  1  0  0  0  0
 13 35  1  0  0  0  0
 13 36  1  0  0  0  0
 14 37  1  0  0  0  0
 14 38  1  0  0  0  0
 15 39  1  0  0  0  0
 15 40  1  0  0  0  0
 16 17  1  0  0  0  0
 16 20  1  0  0  0  0
 16 21  1  0  0  0  0
 19 22  1  0  0  0  0
 19 23  2  0  0  0  0
 20 42  1  0  0  0  0
 20 43  1  0  0  0  0
 20 44  1  0  0  0  0
 21 45  1  0  0  0  0
 21 46  1  0  0  0  0
 21 47  1  0  0  0  0
 22 24  2  0  0  0  0
 22 27  1  0  0  0  0
 23 25  1  0  0  0  0
 23 49  1  0  0  0  0
 24 26  1  0  0  0  0
 24 50  1  0  0  0  0
 25 26  2  0  0  0  0
 25 51  1  0  0  0  0
 26 52  1  0  0  0  0
M  END
> <PUBCHEM_COMPOUND_CID>
145992305

> <PUBCHEM_COMPOUND_CANONICALIZED>
1

> <PUBCHEM_CACTVS_COMPLEXITY>
620

> <PUBCHEM_CACTVS_HBOND_ACCEPTOR>
6

> <PUBCHEM_CACTVS_HBOND_DONOR>
2

> <PUBCHEM_CACTVS_ROTATABLE_BOND>
5

> <PUBCHEM_CACTVS_SUBSKEYS>
AAADceB7sAAAAAAAAAAAAAAAAAAAAWAAAAA8QAAAAAAAAAABAAAAHgAQCAAADJzhmAYzwIPAAgCYBiVSUACiAAAhAgAIiAGIZIiK8CLA0bGUIAholyLYyA8QgAAOAAAAAAACAAAAAAAAAAQAAAAAAAAAAA==

> <PUBCHEM_IUPAC_OPENEYE_NAME>
2-[4-[3-(4,4-dimethyl-2,5-dioxo-imidazolidin-1-yl)-2-hydroxy-propyl]piperazin-1-yl]benzonitrile

> <PUBCHEM_IUPAC_CAS_NAME>
2-[4-[3-(4,4-dimethyl-2,5-dioxo-1-imidazolidinyl)-2-hydroxypropyl]-1-piperazinyl]benzonitrile

> <PUBCHEM_IUPAC_NAME_MARKUP>
2-[4-[3-(4,4-dimethyl-2,5-dioxoimidazolidin-1-yl)-2-hydroxypropyl]piperazin-1-yl]benzonitrile

> <PUBCHEM_IUPAC_NAME>
2-[4-[3-(4,4-dimethyl-2,5-dioxoimidazolidin-1-yl)-2-hydroxypropyl]piperazin-1-yl]benzonitrile

> <PUBCHEM_IUPAC_SYSTEMATIC_NAME>
2-[4-[3-[4,4-dimethyl-2,5-bis(oxidanylidene)imidazolidin-1-yl]-2-oxidanyl-propyl]piperazin-1-yl]benzenecarbonitrile

> <PUBCHEM_IUPAC_TRADITIONAL_NAME>
2-[4-[3-(2,5-diketo-4,4-dimethyl-imidazolidin-1-yl)-2-hydroxy-propyl]piperazino]benzonitrile

> <PUBCHEM_IUPAC_INCHI>
InChI=1S/C19H25N5O3/c1-19(2)17(26)24(18(27)21-19)13-15(25)12-22-7-9-23(10-8-22)16-6-4-3-5-14(16)11-20/h3-6,15,25H,7-10,12-13H2,1-2H3,(H,21,27)

> <PUBCHEM_IUPAC_INCHIKEY>
CROZWIWOTLHYEL-UHFFFAOYSA-N

> <PUBCHEM_XLOGP3_AA>
0.5

> <PUBCHEM_EXACT_MASS>
371.19573968

> <PUBCHEM_MOLECULAR_FORMULA>
C19H25N5O3

> <PUBCHEM_MOLECULAR_WEIGHT>
371.4

> <PUBCHEM_OPENEYE_CAN_SMILES>
CC1(C(=O)N(C(=O)N1)CC(CN2CCN(CC2)C3=CC=CC=C3C#N)O)C

> <PUBCHEM_OPENEYE_ISO_SMILES>
CC1(C(=O)N(C(=O)N1)CC(CN2CCN(CC2)C3=CC=CC=C3C#N)O)C

> <PUBCHEM_CACTVS_TPSA>
99.9

> <PUBCHEM_MONOISOTOPIC_WEIGHT>
371.19573968

> <PUBCHEM_TOTAL_CHARGE>
0

> <PUBCHEM_HEAVY_ATOM_COUNT>
27

> <PUBCHEM_ATOM_DEF_STEREO_COUNT>
0

> <PUBCHEM_ATOM_UDEF_STEREO_COUNT>
1

> <PUBCHEM_BOND_DEF_STEREO_COUNT>
0

> <PUBCHEM_BOND_UDEF_STEREO_COUNT>
0

> <PUBCHEM_ISOTOPIC_ATOM_COUNT>
0

> <PUBCHEM_COMPONENT_COUNT>
1

> <PUBCHEM_CACTVS_TAUTO_COUNT>
-1

> <PUBCHEM_COORDINATE_TYPE>
1
5
255

> <PUBCHEM_BONDANNOTATIONS>
12  1  3
19  22  8
19  23  8
22  24  8
23  25  8
24  26  8
25  26  8

$$$$
