162651961
  -OEChem-09292322062D

 60 64  0     0  0  0  0  0  0999 V2000
    9.9424   -5.3221    0.0000 S   0  0  0  0  0  0  0  0  0  0  0  0
    8.1301    3.4827    0.0000 O   0  0  0  0  0  0  0  0  0  0  0  0
    2.8680    3.4585    0.0000 O   0  0  0  0  0  0  0  0  0  0  0  0
    8.1301   -0.5173    0.0000 N   0  0  0  0  0  0  0  0  0  0  0  0
    8.1301   -2.5173    0.0000 N   0  0  0  0  0  0  0  0  0  0  0  0
    6.3981    3.4827    0.0000 N   0  0  0  0  0  0  0  0  0  0  0  0
    6.3981    5.4827    0.0000 N   0  0  0  0  0  0  0  0  0  0  0  0
    8.9962   -1.0173    0.0000 C   0  0  0  0  0  0  0  0  0  0  0  0
    7.2641   -1.0173    0.0000 C   0  0  0  0  0  0  0  0  0  0  0  0
    8.9962   -2.0173    0.0000 C   0  0  0  0  0  0  0  0  0  0  0  0
    7.2641   -2.0173    0.0000 C   0  0  0  0  0  0  0  0  0  0  0  0
    8.1301    0.4827    0.0000 C   0  0  0  0  0  0  0  0  0  0  0  0
    7.2641    0.9827    0.0000 C   0  0  0  0  0  0  0  0  0  0  0  0
    8.1301   -3.5173    0.0000 C   0  0  0  0  0  0  0  0  0  0  0  0
    7.2641    1.9827    0.0000 C   0  0  0  0  0  0  0  0  0  0  0  0
    6.3981    2.4827    0.0000 C   0  0  0  0  0  0  0  0  0  0  0  0
    8.9962   -4.0173    0.0000 C   0  0  0  0  0  0  0  0  0  0  0  0
    7.2641   -4.0173    0.0000 C   0  0  0  0  0  0  0  0  0  0  0  0
    8.9962   -5.0173    0.0000 C   0  0  0  0  0  0  0  0  0  0  0  0
    9.9424   -3.7126    0.0000 C   0  0  0  0  0  0  0  0  0  0  0  0
    7.2641   -5.0173    0.0000 C   0  0  0  0  0  0  0  0  0  0  0  0
    5.5320    3.9827    0.0000 C   0  0  0  0  0  0  0  0  0  0  0  0
    8.1301   -5.5173    0.0000 C   0  0  0  0  0  0  0  0  0  0  0  0
    7.2641    3.9827    0.0000 C   0  0  0  0  0  0  0  0  0  0  0  0
   10.5260   -4.5173    0.0000 C   0  0  0  0  0  0  0  0  0  0  0  0
    5.5320    4.9827    0.0000 C   0  0  0  0  0  0  0  0  0  0  0  0
    4.6381    3.4480    0.0000 C   0  0  0  0  0  0  0  0  0  0  0  0
    7.2641    4.9827    0.0000 C   0  0  0  0  0  0  0  0  0  0  0  0
    4.6381    5.5173    0.0000 C   0  0  0  0  0  0  0  0  0  0  0  0
    3.7320    3.9618    0.0000 C   0  0  0  0  0  0  0  0  0  0  0  0
    3.7320    5.0035    0.0000 C   0  0  0  0  0  0  0  0  0  0  0  0
    2.0000    3.9552    0.0000 C   0  0  0  0  0  0  0  0  0  0  0  0
    9.6067   -1.1250    0.0000 H   0  0  0  0  0  0  0  0  0  0  0  0
    9.2082   -0.4347    0.0000 H   0  0  0  0  0  0  0  0  0  0  0  0
    7.0520   -0.4347    0.0000 H   0  0  0  0  0  0  0  0  0  0  0  0
    6.6535   -1.1250    0.0000 H   0  0  0  0  0  0  0  0  0  0  0  0
    9.2082   -2.5999    0.0000 H   0  0  0  0  0  0  0  0  0  0  0  0
    9.6067   -1.9097    0.0000 H   0  0  0  0  0  0  0  0  0  0  0  0
    6.6535   -1.9097    0.0000 H   0  0  0  0  0  0  0  0  0  0  0  0
    7.0520   -2.5999    0.0000 H   0  0  0  0  0  0  0  0  0  0  0  0
    8.7407    0.3750    0.0000 H   0  0  0  0  0  0  0  0  0  0  0  0
    8.3422    1.0653    0.0000 H   0  0  0  0  0  0  0  0  0  0  0  0
    6.6535    1.0903    0.0000 H   0  0  0  0  0  0  0  0  0  0  0  0
    7.0520    0.4001    0.0000 H   0  0  0  0  0  0  0  0  0  0  0  0
    7.8747    1.8750    0.0000 H   0  0  0  0  0  0  0  0  0  0  0  0
    7.4762    2.5653    0.0000 H   0  0  0  0  0  0  0  0  0  0  0  0
    5.7875    2.5903    0.0000 H   0  0  0  0  0  0  0  0  0  0  0  0
    6.1860    1.9001    0.0000 H   0  0  0  0  0  0  0  0  0  0  0  0
    6.7272   -3.7073    0.0000 H   0  0  0  0  0  0  0  0  0  0  0  0
   10.1350   -3.1233    0.0000 H   0  0  0  0  0  0  0  0  0  0  0  0
    6.7272   -5.3273    0.0000 H   0  0  0  0  0  0  0  0  0  0  0  0
    8.1301   -6.1373    0.0000 H   0  0  0  0  0  0  0  0  0  0  0  0
   11.1460   -4.5173    0.0000 H   0  0  0  0  0  0  0  0  0  0  0  0
    4.6453    2.8280    0.0000 H   0  0  0  0  0  0  0  0  0  0  0  0
    7.8010    5.2927    0.0000 H   0  0  0  0  0  0  0  0  0  0  0  0
    4.6453    6.1373    0.0000 H   0  0  0  0  0  0  0  0  0  0  0  0
    3.1963    5.3156    0.0000 H   0  0  0  0  0  0  0  0  0  0  0  0
    2.3079    4.4933    0.0000 H   0  0  0  0  0  0  0  0  0  0  0  0
    1.4619    4.2631    0.0000 H   0  0  0  0  0  0  0  0  0  0  0  0
    1.6921    3.4170    0.0000 H   0  0  0  0  0  0  0  0  0  0  0  0
  1 19  1  0  0  0  0
  1 25  1  0  0  0  0
  2 24  2  0  0  0  0
  3 30  1  0  0  0  0
  3 32  1  0  0  0  0
  4  8  1  0  0  0  0
  4  9  1  0  0  0  0
  4 12  1  0  0  0  0
  5 10  1  0  0  0  0
  5 11  1  0  0  0  0
  5 14  1  0  0  0  0
  6 16  1  0  0  0  0
  6 22  1  0  0  0  0
  6 24  1  0  0  0  0
  7 26  1  0  0  0  0
  7 28  2  0  0  0  0
  8 10  1  0  0  0  0
  8 33  1  0  0  0  0
  8 34  1  0  0  0  0
  9 11  1  0  0  0  0
  9 35  1  0  0  0  0
  9 36  1  0  0  0  0
 10 37  1  0  0  0  0
 10 38  1  0  0  0  0
 11 39  1  0  0  0  0
 11 40  1  0  0  0  0
 12 13  1  0  0  0  0
 12 41  1  0  0  0  0
 12 42  1  0  0  0  0
 13 15  1  0  0  0  0
 13 43  1  0  0  0  0
 13 44  1  0  0  0  0
 14 17  2  0  0  0  0
 14 18  1  0  0  0  0
 15 16  1  0  0  0  0
 15 45  1  0  0  0  0
 15 46  1  0  0  0  0
 16 47  1  0  0  0  0
 16 48  1  0  0  0  0
 17 19  1  0  0  0  0
 17 20  1  0  0  0  0
 18 21  2  0  0  0  0
 18 49  1  0  0  0  0
 19 23  2  0  0  0  0
 20 25  2  0  0  0  0
 20 50  1  0  0  0  0
 21 23  1  0  0  0  0
 21 51  1  0  0  0  0
 22 26  2  0  0  0  0
 22 27  1  0  0  0  0
 23 52  1  0  0  0  0
 24 28  1  0  0  0  0
 25 53  1  0  0  0  0
 26 29  1  0  0  0  0
 27 30  2  0  0  0  0
 27 54  1  0  0  0  0
 28 55  1  0  0  0  0
 29 31  2  0  0  0  0
 29 56  1  0  0  0  0
 30 31  1  0  0  0  0
 31 57  1  0  0  0  0
 32 58  1  0  0  0  0
 32 59  1  0  0  0  0
 32 60  1  0  0  0  0
M  END
> <PUBCHEM_COMPOUND_CID>
162651961

> <PUBCHEM_COMPOUND_CANONICALIZED>
1

> <PUBCHEM_CACTVS_COMPLEXITY>
668

> <PUBCHEM_CACTVS_HBOND_ACCEPTOR>
6

> <PUBCHEM_CACTVS_HBOND_DONOR>
0

> <PUBCHEM_CACTVS_ROTATABLE_BOND>
7

> <PUBCHEM_CACTVS_SUBSKEYS>
AAADceB7sABAAAAAAAAAAAAAAAAAASAAAAA8YIEAAAAAAEiB9AAAHgQAAAAADAzF2Aayx8MABAisAjVzVACDCIAhKhBIiBgOfIgMZiLksZuUMCxmxhno6Aew0IMOAEAAAiAGACAAgAAEQAwAQAAAAAAAAA==

> <PUBCHEM_IUPAC_OPENEYE_NAME>
1-[4-[4-(benzothiophen-4-yl)piperazin-1-yl]butyl]-7-methoxy-quinoxalin-2-one

> <PUBCHEM_IUPAC_CAS_NAME>
1-[4-[4-(1-benzothiophen-4-yl)-1-piperazinyl]butyl]-7-methoxy-2-quinoxalinone

> <PUBCHEM_IUPAC_NAME_MARKUP>
1-[4-[4-(1-benzothiophen-4-yl)piperazin-1-yl]butyl]-7-methoxyquinoxalin-2-one

> <PUBCHEM_IUPAC_NAME>
1-[4-[4-(1-benzothiophen-4-yl)piperazin-1-yl]butyl]-7-methoxyquinoxalin-2-one

> <PUBCHEM_IUPAC_SYSTEMATIC_NAME>
1-[4-[4-(1-benzothiophen-4-yl)piperazin-1-yl]butyl]-7-methoxy-quinoxalin-2-one

> <PUBCHEM_IUPAC_TRADITIONAL_NAME>
1-[4-[4-(benzothiophen-4-yl)piperazino]butyl]-7-methoxy-quinoxalin-2-one

> <PUBCHEM_IUPAC_INCHI>
InChI=1S/C25H28N4O2S/c1-31-19-7-8-21-23(17-19)29(25(30)18-26-21)11-3-2-10-27-12-14-28(15-13-27)22-5-4-6-24-20(22)9-16-32-24/h4-9,16-18H,2-3,10-15H2,1H3

> <PUBCHEM_IUPAC_INCHIKEY>
SGBPCRMSBHXSHV-UHFFFAOYSA-N

> <PUBCHEM_XLOGP3_AA>
4.2

> <PUBCHEM_EXACT_MASS>
448.19329732

> <PUBCHEM_MOLECULAR_FORMULA>
C25H28N4O2S

> <PUBCHEM_MOLECULAR_WEIGHT>
448.6

> <PUBCHEM_OPENEYE_CAN_SMILES>
COC1=CC2=C(C=C1)N=CC(=O)N2CCCCN3CCN(CC3)C4=C5C=CSC5=CC=C4

> <PUBCHEM_OPENEYE_ISO_SMILES>
COC1=CC2=C(C=C1)N=CC(=O)N2CCCCN3CCN(CC3)C4=C5C=CSC5=CC=C4

> <PUBCHEM_CACTVS_TPSA>
76.6

> <PUBCHEM_MONOISOTOPIC_WEIGHT>
448.19329732

> <PUBCHEM_TOTAL_CHARGE>
0

> <PUBCHEM_HEAVY_ATOM_COUNT>
32

> <PUBCHEM_ATOM_DEF_STEREO_COUNT>
0

> <PUBCHEM_ATOM_UDEF_STEREO_COUNT>
0

> <PUBCHEM_BOND_DEF_STEREO_COUNT>
0

> <PUBCHEM_BOND_UDEF_STEREO_COUNT>
0

> <PUBCHEM_ISOTOPIC_ATOM_COUNT>
0

> <PUBCHEM_COMPONENT_COUNT>
1

> <PUBCHEM_CACTVS_TAUTO_COUNT>
-1

> <PUBCHEM_COORDINATE_TYPE>
1
5
255

> <PUBCHEM_BONDANNOTATIONS>
1  19  8
1  25  8
14  17  8
14  18  8
17  19  8
17  20  8
18  21  8
19  23  8
20  25  8
21  23  8
22  26  8
22  27  8
24  28  8
26  29  8
27  30  8
29  31  8
30  31  8
6  22  8
6  24  8
7  26  8
7  28  8

$$$$
