44340364
  -OEChem-09292322212D

 57 59  0     1  0  0  0  0  0999 V2000
    2.1537    4.5329    0.0000 Cl  0  0  0  0  0  0  0  0  0  0  0  0
    6.3301   -4.1555    0.0000 S   0  0  0  0  0  0  0  0  0  0  0  0
    2.8660   -2.1555    0.0000 O   0  0  0  0  0  0  0  0  0  0  0  0
    5.8301   -5.0216    0.0000 O   0  0  0  0  0  0  0  0  0  0  0  0
    6.8301   -3.2895    0.0000 O   0  0  0  0  0  0  0  0  0  0  0  0
    3.9170    2.1059    0.0000 N   0  0  3  0  0  0  0  0  0  0  0  0
    3.7891   -0.5677    0.0000 N   0  0  0  0  0  0  0  0  0  0  0  0
    3.5103    1.1923    0.0000 C   0  0  0  0  0  0  0  0  0  0  0  0
    4.0981    0.3833    0.0000 C   0  0  0  0  0  0  0  0  0  0  0  0
    3.3292    2.9149    0.0000 C   0  0  0  0  0  0  0  0  0  0  0  0
    4.5981   -1.1555    0.0000 C   0  0  0  0  0  0  0  0  0  0  0  0
    4.9116    2.2104    0.0000 C   0  0  0  0  0  0  0  0  0  0  0  0
    4.5981   -2.1555    0.0000 C   0  0  0  0  0  0  0  0  0  0  0  0
    5.0981    0.3833    0.0000 C   0  0  0  0  0  0  0  0  0  0  0  0
    5.4071   -0.5677    0.0000 C   0  0  0  0  0  0  0  0  0  0  0  0
    5.4641   -3.6555    0.0000 C   0  0  0  0  0  0  0  0  0  0  0  0
    5.4641   -2.6555    0.0000 C   0  0  0  0  0  0  0  0  0  0  0  0
    3.7360    3.8284    0.0000 C   0  0  0  0  0  0  0  0  0  0  0  0
    3.7320   -2.6555    0.0000 C   0  0  0  0  0  0  0  0  0  0  0  0
    5.3183    3.1239    0.0000 C   0  0  0  0  0  0  0  0  0  0  0  0
    7.1962   -4.6555    0.0000 C   0  0  0  0  0  0  0  0  0  0  0  0
    4.5981   -4.1555    0.0000 C   0  0  0  0  0  0  0  0  0  0  0  0
    3.7320   -3.6555    0.0000 C   0  0  0  0  0  0  0  0  0  0  0  0
    3.1482    4.6374    0.0000 C   0  0  0  0  0  0  0  0  0  0  0  0
    4.7305    3.9330    0.0000 C   0  0  0  0  0  0  0  0  0  0  0  0
    7.1962   -5.6555    0.0000 C   0  0  0  0  0  0  0  0  0  0  0  0
    3.5549    5.5510    0.0000 C   0  0  0  0  0  0  0  0  0  0  0  0
    5.1372    4.8465    0.0000 C   0  0  0  0  0  0  0  0  0  0  0  0
    4.5494    5.6555    0.0000 C   0  0  0  0  0  0  0  0  0  0  0  0
    2.0000   -2.6555    0.0000 C   0  0  0  0  0  0  0  0  0  0  0  0
    2.9963    1.5390    0.0000 H   0  0  0  0  0  0  0  0  0  0  0  0
    3.0796    0.7463    0.0000 H   0  0  0  0  0  0  0  0  0  0  0  0
    2.8152    3.2616    0.0000 H   0  0  0  0  0  0  0  0  0  0  0  0
    2.8986    2.4689    0.0000 H   0  0  0  0  0  0  0  0  0  0  0  0
    4.8683    1.5919    0.0000 H   0  0  0  0  0  0  0  0  0  0  0  0
    5.5131    2.0604    0.0000 H   0  0  0  0  0  0  0  0  0  0  0  0
    3.1994   -0.7593    0.0000 H   0  0  0  0  0  0  0  0  0  0  0  0
    5.4625    0.8849    0.0000 H   0  0  0  0  0  0  0  0  0  0  0  0
    5.9967   -0.7593    0.0000 H   0  0  0  0  0  0  0  0  0  0  0  0
    6.0010   -2.3455    0.0000 H   0  0  0  0  0  0  0  0  0  0  0  0
    5.8847    2.8718    0.0000 H   0  0  0  0  0  0  0  0  0  0  0  0
    5.5705    3.6904    0.0000 H   0  0  0  0  0  0  0  0  0  0  0  0
    4.7519    3.3761    0.0000 H   0  0  0  0  0  0  0  0  0  0  0  0
    7.8067   -4.7632    0.0000 H   0  0  0  0  0  0  0  0  0  0  0  0
    7.4082   -4.0729    0.0000 H   0  0  0  0  0  0  0  0  0  0  0  0
    4.5981   -4.7755    0.0000 H   0  0  0  0  0  0  0  0  0  0  0  0
    3.1951   -3.9655    0.0000 H   0  0  0  0  0  0  0  0  0  0  0  0
    5.0949    3.4314    0.0000 H   0  0  0  0  0  0  0  0  0  0  0  0
    6.5762   -5.6555    0.0000 H   0  0  0  0  0  0  0  0  0  0  0  0
    7.1962   -6.2755    0.0000 H   0  0  0  0  0  0  0  0  0  0  0  0
    7.8162   -5.6555    0.0000 H   0  0  0  0  0  0  0  0  0  0  0  0
    3.1905    6.0526    0.0000 H   0  0  0  0  0  0  0  0  0  0  0  0
    5.7538    4.9113    0.0000 H   0  0  0  0  0  0  0  0  0  0  0  0
    4.8016    6.2219    0.0000 H   0  0  0  0  0  0  0  0  0  0  0  0
    1.6900   -2.1186    0.0000 H   0  0  0  0  0  0  0  0  0  0  0  0
    1.4631   -2.9655    0.0000 H   0  0  0  0  0  0  0  0  0  0  0  0
    2.3100   -3.1925    0.0000 H   0  0  0  0  0  0  0  0  0  0  0  0
  1 24  1  0  0  0  0
  2  4  2  0  0  0  0
  2  5  2  0  0  0  0
  2 16  1  0  0  0  0
  2 21  1  0  0  0  0
  3 19  1  0  0  0  0
  3 30  1  0  0  0  0
  6  8  1  0  0  0  0
  6 10  1  0  0  0  0
  6 12  1  0  0  0  0
  7  9  1  0  0  0  0
  7 11  1  0  0  0  0
  7 37  1  0  0  0  0
  8  9  1  0  0  0  0
  8 31  1  0  0  0  0
  8 32  1  0  0  0  0
  9 14  2  0  0  0  0
 10 18  1  0  0  0  0
 10 33  1  0  0  0  0
 10 34  1  0  0  0  0
 11 13  1  0  0  0  0
 11 15  2  0  0  0  0
 12 20  1  0  0  0  0
 12 35  1  0  0  0  0
 12 36  1  0  0  0  0
 13 17  1  0  0  0  0
 13 19  2  0  0  0  0
 14 15  1  0  0  0  0
 14 38  1  0  0  0  0
 15 39  1  0  0  0  0
 16 17  2  0  0  0  0
 16 22  1  0  0  0  0
 17 40  1  0  0  0  0
 18 24  1  0  0  0  0
 18 25  2  0  0  0  0
 19 23  1  0  0  0  0
 20 41  1  0  0  0  0
 20 42  1  0  0  0  0
 20 43  1  0  0  0  0
 21 26  1  0  0  0  0
 21 44  1  0  0  0  0
 21 45  1  0  0  0  0
 22 23  2  0  0  0  0
 22 46  1  0  0  0  0
 23 47  1  0  0  0  0
 24 27  2  0  0  0  0
 25 28  1  0  0  0  0
 25 48  1  0  0  0  0
 26 49  1  0  0  0  0
 26 50  1  0  0  0  0
 26 51  1  0  0  0  0
 27 29  1  0  0  0  0
 27 52  1  0  0  0  0
 28 29  2  0  0  0  0
 28 53  1  0  0  0  0
 29 54  1  0  0  0  0
 30 55  1  0  0  0  0
 30 56  1  0  0  0  0
 30 57  1  0  0  0  0
M  END
> <PUBCHEM_COMPOUND_CID>
44340364

> <PUBCHEM_COMPOUND_CANONICALIZED>
1

> <PUBCHEM_CACTVS_COMPLEXITY>
626

> <PUBCHEM_CACTVS_HBOND_ACCEPTOR>
4

> <PUBCHEM_CACTVS_HBOND_DONOR>
1

> <PUBCHEM_CACTVS_ROTATABLE_BOND>
9

> <PUBCHEM_CACTVS_SUBSKEYS>
AAADceB7MABEAAAAAAAAAAAAAAAAAWAAAAAwYAAAAAAAAAAB0AAAHgYQAAAADA7F3iayh5PJlAqgAyRiRHDCiCAhLzAImTg+bpgMZuLls5uUMChm0BHo6AeQwOAOAIAAgAAJAAABAAEAABIAAAAAAAAAAA==

> <PUBCHEM_IUPAC_OPENEYE_NAME>
N-[(2-chlorophenyl)methyl]-N-[[5-(5-ethylsulfonyl-2-methoxy-phenyl)-1H-pyrrol-2-yl]methyl]ethanamine

> <PUBCHEM_IUPAC_CAS_NAME>
N-[(2-chlorophenyl)methyl]-N-[[5-(5-ethylsulfonyl-2-methoxyphenyl)-1H-pyrrol-2-yl]methyl]ethanamine

> <PUBCHEM_IUPAC_NAME_MARKUP>
<I>N</I>-[(2-chlorophenyl)methyl]-<I>N</I>-[[5-(5-ethylsulfonyl-2-methoxyphenyl)-1<I>H</I>-pyrrol-2-yl]methyl]ethanamine

> <PUBCHEM_IUPAC_NAME>
N-[(2-chlorophenyl)methyl]-N-[[5-(5-ethylsulfonyl-2-methoxyphenyl)-1H-pyrrol-2-yl]methyl]ethanamine

> <PUBCHEM_IUPAC_SYSTEMATIC_NAME>
N-[(2-chlorophenyl)methyl]-N-[[5-(5-ethylsulfonyl-2-methoxy-phenyl)-1H-pyrrol-2-yl]methyl]ethanamine

> <PUBCHEM_IUPAC_TRADITIONAL_NAME>
(2-chlorobenzyl)-[[5-(5-esyl-2-methoxy-phenyl)-1H-pyrrol-2-yl]methyl]-ethyl-amine

> <PUBCHEM_IUPAC_INCHI>
InChI=1S/C23H27ClN2O3S/c1-4-26(15-17-8-6-7-9-21(17)24)16-18-10-12-22(25-18)20-14-19(30(27,28)5-2)11-13-23(20)29-3/h6-14,25H,4-5,15-16H2,1-3H3

> <PUBCHEM_IUPAC_INCHIKEY>
PJYLRRSJBZGONV-UHFFFAOYSA-N

> <PUBCHEM_XLOGP3_AA>
4.3

> <PUBCHEM_EXACT_MASS>
446.1430916

> <PUBCHEM_MOLECULAR_FORMULA>
C23H27ClN2O3S

> <PUBCHEM_MOLECULAR_WEIGHT>
447.0

> <PUBCHEM_OPENEYE_CAN_SMILES>
CCN(CC1=CC=CC=C1Cl)CC2=CC=C(N2)C3=C(C=CC(=C3)S(=O)(=O)CC)OC

> <PUBCHEM_OPENEYE_ISO_SMILES>
CCN(CC1=CC=CC=C1Cl)CC2=CC=C(N2)C3=C(C=CC(=C3)S(=O)(=O)CC)OC

> <PUBCHEM_CACTVS_TPSA>
70.8

> <PUBCHEM_MONOISOTOPIC_WEIGHT>
446.1430916

> <PUBCHEM_TOTAL_CHARGE>
0

> <PUBCHEM_HEAVY_ATOM_COUNT>
30

> <PUBCHEM_ATOM_DEF_STEREO_COUNT>
0

> <PUBCHEM_ATOM_UDEF_STEREO_COUNT>
0

> <PUBCHEM_BOND_DEF_STEREO_COUNT>
0

> <PUBCHEM_BOND_UDEF_STEREO_COUNT>
0

> <PUBCHEM_ISOTOPIC_ATOM_COUNT>
0

> <PUBCHEM_COMPONENT_COUNT>
1

> <PUBCHEM_CACTVS_TAUTO_COUNT>
-1

> <PUBCHEM_COORDINATE_TYPE>
1
5
255

> <PUBCHEM_BONDANNOTATIONS>
11  15  8
13  17  8
13  19  8
14  15  8
16  17  8
16  22  8
18  24  8
18  25  8
19  23  8
22  23  8
24  27  8
25  28  8
27  29  8
28  29  8
7  11  8
7  9  8
9  14  8

$$$$
