134133064
  -OEChem-09292322382D

 49 51  0     0  0  0  0  0  0999 V2000
    9.2619   -2.2320    0.0000 O   0  0  0  0  0  0  0  0  0  0  0  0
    9.2619    1.2320    0.0000 O   0  0  0  0  0  0  0  0  0  0  0  0
    9.2619   -0.5000    0.0000 N   0  0  0  0  0  0  0  0  0  0  0  0
    5.2619    1.2320    0.0000 N   0  0  0  0  0  0  0  0  0  0  0  0
   11.2619   -0.5000    0.0000 C   0  0  0  0  0  0  0  0  0  0  0  0
   10.7619   -1.3660    0.0000 C   0  0  0  0  0  0  0  0  0  0  0  0
   10.7619    0.3660    0.0000 C   0  0  0  0  0  0  0  0  0  0  0  0
    8.2619   -0.5000    0.0000 C   0  0  0  0  0  0  0  0  0  0  0  0
    9.7619   -1.3660    0.0000 C   0  0  0  0  0  0  0  0  0  0  0  0
    9.7619    0.3660    0.0000 C   0  0  0  0  0  0  0  0  0  0  0  0
   12.1279   -1.0000    0.0000 C   0  0  0  0  0  0  0  0  0  0  0  0
   12.1279   -0.0000    0.0000 C   0  0  0  0  0  0  0  0  0  0  0  0
    7.7619    0.3660    0.0000 C   0  0  0  0  0  0  0  0  0  0  0  0
    6.2619    1.2320    0.0000 C   0  0  0  0  0  0  0  0  0  0  0  0
    6.7619    0.3660    0.0000 C   0  0  0  0  0  0  0  0  0  0  0  0
    4.6783    2.0368    0.0000 C   0  0  0  0  0  0  0  0  0  0  0  0
    4.6783    0.4273    0.0000 C   0  0  0  0  0  0  0  0  0  0  0  0
    3.7320    1.7320    0.0000 C   0  0  0  0  0  0  0  0  0  0  0  0
    3.7320    0.7321    0.0000 C   0  0  0  0  0  0  0  0  0  0  0  0
    2.8660    2.2320    0.0000 C   0  0  0  0  0  0  0  0  0  0  0  0
    2.8660    0.2321    0.0000 C   0  0  0  0  0  0  0  0  0  0  0  0
    2.0000    1.7320    0.0000 C   0  0  0  0  0  0  0  0  0  0  0  0
    2.0000    0.7321    0.0000 C   0  0  0  0  0  0  0  0  0  0  0  0
   10.6542   -1.9766    0.0000 H   0  0  0  0  0  0  0  0  0  0  0  0
   11.3445   -1.5781    0.0000 H   0  0  0  0  0  0  0  0  0  0  0  0
   11.3445    0.5781    0.0000 H   0  0  0  0  0  0  0  0  0  0  0  0
   10.6542    0.9766    0.0000 H   0  0  0  0  0  0  0  0  0  0  0  0
    7.6793   -0.7121    0.0000 H   0  0  0  0  0  0  0  0  0  0  0  0
    8.3695   -1.1106    0.0000 H   0  0  0  0  0  0  0  0  0  0  0  0
   11.8179   -1.5369    0.0000 H   0  0  0  0  0  0  0  0  0  0  0  0
   12.6648   -1.3100    0.0000 H   0  0  0  0  0  0  0  0  0  0  0  0
   12.4379   -0.4631    0.0000 H   0  0  0  0  0  0  0  0  0  0  0  0
   12.4379   -0.5369    0.0000 H   0  0  0  0  0  0  0  0  0  0  0  0
   12.6648    0.3100    0.0000 H   0  0  0  0  0  0  0  0  0  0  0  0
   11.8179    0.5369    0.0000 H   0  0  0  0  0  0  0  0  0  0  0  0
    8.3445    0.5781    0.0000 H   0  0  0  0  0  0  0  0  0  0  0  0
    7.6542    0.9766    0.0000 H   0  0  0  0  0  0  0  0  0  0  0  0
    6.8445    1.4441    0.0000 H   0  0  0  0  0  0  0  0  0  0  0  0
    6.1542    1.8426    0.0000 H   0  0  0  0  0  0  0  0  0  0  0  0
    6.1793    0.1540    0.0000 H   0  0  0  0  0  0  0  0  0  0  0  0
    6.8695   -0.2446    0.0000 H   0  0  0  0  0  0  0  0  0  0  0  0
    5.2156    2.3460    0.0000 H   0  0  0  0  0  0  0  0  0  0  0  0
    4.4272    2.6037    0.0000 H   0  0  0  0  0  0  0  0  0  0  0  0
    4.4272   -0.1396    0.0000 H   0  0  0  0  0  0  0  0  0  0  0  0
    5.2156    0.1181    0.0000 H   0  0  0  0  0  0  0  0  0  0  0  0
    2.8660    2.8521    0.0000 H   0  0  0  0  0  0  0  0  0  0  0  0
    2.8660   -0.3879    0.0000 H   0  0  0  0  0  0  0  0  0  0  0  0
    1.4631    2.0420    0.0000 H   0  0  0  0  0  0  0  0  0  0  0  0
    1.4631    0.4221    0.0000 H   0  0  0  0  0  0  0  0  0  0  0  0
  1  9  2  0  0  0  0
  2 10  2  0  0  0  0
  3  8  1  0  0  0  0
  3  9  1  0  0  0  0
  3 10  1  0  0  0  0
  4 14  1  0  0  0  0
  4 16  1  0  0  0  0
  4 17  1  0  0  0  0
  5  6  1  0  0  0  0
  5  7  1  0  0  0  0
  5 11  1  0  0  0  0
  5 12  1  0  0  0  0
  6  9  1  0  0  0  0
  6 24  1  0  0  0  0
  6 25  1  0  0  0  0
  7 10  1  0  0  0  0
  7 26  1  0  0  0  0
  7 27  1  0  0  0  0
  8 13  1  0  0  0  0
  8 28  1  0  0  0  0
  8 29  1  0  0  0  0
 11 30  1  0  0  0  0
 11 31  1  0  0  0  0
 11 32  1  0  0  0  0
 12 33  1  0  0  0  0
 12 34  1  0  0  0  0
 12 35  1  0  0  0  0
 13 15  1  0  0  0  0
 13 36  1  0  0  0  0
 13 37  1  0  0  0  0
 14 15  1  0  0  0  0
 14 38  1  0  0  0  0
 14 39  1  0  0  0  0
 15 40  1  0  0  0  0
 15 41  1  0  0  0  0
 16 18  1  0  0  0  0
 16 42  1  0  0  0  0
 16 43  1  0  0  0  0
 17 19  1  0  0  0  0
 17 44  1  0  0  0  0
 17 45  1  0  0  0  0
 18 19  1  0  0  0  0
 18 20  2  0  0  0  0
 19 21  2  0  0  0  0
 20 22  1  0  0  0  0
 20 46  1  0  0  0  0
 21 23  1  0  0  0  0
 21 47  1  0  0  0  0
 22 23  2  0  0  0  0
 22 48  1  0  0  0  0
 23 49  1  0  0  0  0
M  END
> <PUBCHEM_COMPOUND_CID>
134133064

> <PUBCHEM_COMPOUND_CANONICALIZED>
1

> <PUBCHEM_CACTVS_COMPLEXITY>
426

> <PUBCHEM_CACTVS_HBOND_ACCEPTOR>
3

> <PUBCHEM_CACTVS_HBOND_DONOR>
0

> <PUBCHEM_CACTVS_ROTATABLE_BOND>
5

> <PUBCHEM_CACTVS_SUBSKEYS>
AAADceB7MAAAAAAAAAAAAAAAAAAAAWAAAAA8QAAAAAAAAFgBAAAAHgAAAAAADgDBmAQyAIMAAACIAiFSEACCAAAgAAAIiAEIBIgIIDKAkRGEIAhghiCIiAcYg4APgAAAAAAQAAAAAAAAACAAAAAAAAAAAA==

> <PUBCHEM_IUPAC_OPENEYE_NAME>
1-(4-isoindolin-2-ylbutyl)-4,4-dimethyl-piperidine-2,6-dione

> <PUBCHEM_IUPAC_CAS_NAME>
1-[4-(1,3-dihydroisoindol-2-yl)butyl]-4,4-dimethylpiperidine-2,6-dione

> <PUBCHEM_IUPAC_NAME_MARKUP>
1-[4-(1,3-dihydroisoindol-2-yl)butyl]-4,4-dimethylpiperidine-2,6-dione

> <PUBCHEM_IUPAC_NAME>
1-[4-(1,3-dihydroisoindol-2-yl)butyl]-4,4-dimethylpiperidine-2,6-dione

> <PUBCHEM_IUPAC_SYSTEMATIC_NAME>
1-[4-(1,3-dihydroisoindol-2-yl)butyl]-4,4-dimethyl-piperidine-2,6-dione

> <PUBCHEM_IUPAC_TRADITIONAL_NAME>
1-(4-isoindolin-2-ylbutyl)-4,4-dimethyl-piperidine-2,6-quinone

> <PUBCHEM_IUPAC_INCHI>
InChI=1S/C19H26N2O2/c1-19(2)11-17(22)21(18(23)12-19)10-6-5-9-20-13-15-7-3-4-8-16(15)14-20/h3-4,7-8H,5-6,9-14H2,1-2H3

> <PUBCHEM_IUPAC_INCHIKEY>
HWHPJDOZGZLVJB-UHFFFAOYSA-N

> <PUBCHEM_XLOGP3_AA>
2.2

> <PUBCHEM_EXACT_MASS>
314.199428076

> <PUBCHEM_MOLECULAR_FORMULA>
C19H26N2O2

> <PUBCHEM_MOLECULAR_WEIGHT>
314.4

> <PUBCHEM_OPENEYE_CAN_SMILES>
CC1(CC(=O)N(C(=O)C1)CCCCN2CC3=CC=CC=C3C2)C

> <PUBCHEM_OPENEYE_ISO_SMILES>
CC1(CC(=O)N(C(=O)C1)CCCCN2CC3=CC=CC=C3C2)C

> <PUBCHEM_CACTVS_TPSA>
40.6

> <PUBCHEM_MONOISOTOPIC_WEIGHT>
314.199428076

> <PUBCHEM_TOTAL_CHARGE>
0

> <PUBCHEM_HEAVY_ATOM_COUNT>
23

> <PUBCHEM_ATOM_DEF_STEREO_COUNT>
0

> <PUBCHEM_ATOM_UDEF_STEREO_COUNT>
0

> <PUBCHEM_BOND_DEF_STEREO_COUNT>
0

> <PUBCHEM_BOND_UDEF_STEREO_COUNT>
0

> <PUBCHEM_ISOTOPIC_ATOM_COUNT>
0

> <PUBCHEM_COMPONENT_COUNT>
1

> <PUBCHEM_CACTVS_TAUTO_COUNT>
-1

> <PUBCHEM_COORDINATE_TYPE>
1
5
255

> <PUBCHEM_BONDANNOTATIONS>
18  19  8
18  20  8
19  21  8
20  22  8
21  23  8
22  23  8

$$$$
