155551411
  -OEChem-09292322082D

 84 88  0     1  0  0  0  0  0999 V2000
    2.0000   -1.3687    0.0000 F   0  0  0  0  0  0  0  0  0  0  0  0
   11.2788   -1.3968    0.0000 O   0  0  0  0  0  0  0  0  0  0  0  0
    6.5000   -2.2348    0.0000 O   0  0  0  0  0  0  0  0  0  0  0  0
   18.5155   -1.2676    0.0000 O   0  0  0  0  0  0  0  0  0  0  0  0
   21.8561   -2.6242    0.0000 O   0  0  0  0  0  0  0  0  0  0  0  0
   20.8381   -4.0255    0.0000 O   0  0  0  0  0  0  0  0  0  0  0  0
   11.5878    1.1723    0.0000 N   0  0  3  0  0  0  0  0  0  0  0  0
    9.0000    0.3633    0.0000 N   0  0  0  0  0  0  0  0  0  0  0  0
   12.5388   -0.1367    0.0000 N   0  0  0  0  0  0  0  0  0  0  0  0
   17.4975   -2.6689    0.0000 N   0  0  0  0  0  0  0  0  0  0  0  0
   11.0000    0.3633    0.0000 C   0  0  0  0  0  0  0  0  0  0  0  0
   10.5000    1.2293    0.0000 C   0  0  0  0  0  0  0  0  0  0  0  0
   10.5000   -0.5027    0.0000 C   0  0  0  0  0  0  0  0  0  0  0  0
    9.5000    1.2293    0.0000 C   0  0  0  0  0  0  0  0  0  0  0  0
    9.5000   -0.5027    0.0000 C   0  0  0  0  0  0  0  0  0  0  0  0
   11.5878   -0.4457    0.0000 C   0  0  0  0  0  0  0  0  0  0  0  0
   12.5388    0.8633    0.0000 C   0  0  0  0  0  0  0  0  0  0  0  0
    8.0000    0.3633    0.0000 C   0  0  0  0  0  0  0  0  0  0  0  0
   11.2788    2.1234    0.0000 C   0  0  0  0  0  0  0  0  0  0  0  0
   13.3479   -0.7245    0.0000 C   0  0  0  0  0  0  0  0  0  0  0  0
    7.5000   -0.5027    0.0000 C   0  0  0  0  0  0  0  0  0  0  0  0
   14.2614   -0.3177    0.0000 C   0  0  0  0  0  0  0  0  0  0  0  0
   10.3006    2.3313    0.0000 C   0  0  0  0  0  0  0  0  0  0  0  0
   11.9479    2.8665    0.0000 C   0  0  0  0  0  0  0  0  0  0  0  0
    6.5000   -0.5027    0.0000 C   0  0  0  0  0  0  0  0  0  0  0  0
   15.0704   -0.9055    0.0000 C   0  0  0  0  0  0  0  0  0  0  0  0
    9.9916    3.2824    0.0000 C   0  0  0  0  0  0  0  0  0  0  0  0
   11.6389    3.8176    0.0000 C   0  0  0  0  0  0  0  0  0  0  0  0
   10.6607    4.0255    0.0000 C   0  0  0  0  0  0  0  0  0  0  0  0
    6.0000   -1.3687    0.0000 C   0  0  0  0  0  0  0  0  0  0  0  0
   14.9659   -1.9000    0.0000 C   0  0  0  0  0  0  0  0  0  0  0  0
   15.9840   -0.4988    0.0000 C   0  0  0  0  0  0  0  0  0  0  0  0
    5.0000   -1.3687    0.0000 C   0  0  0  0  0  0  0  0  0  0  0  0
   15.7749   -2.4878    0.0000 C   0  0  0  0  0  0  0  0  0  0  0  0
   16.7930   -1.0866    0.0000 C   0  0  0  0  0  0  0  0  0  0  0  0
   16.6885   -2.0811    0.0000 C   0  0  0  0  0  0  0  0  0  0  0  0
    4.5000   -0.5027    0.0000 C   0  0  0  0  0  0  0  0  0  0  0  0
    4.5000   -2.2348    0.0000 C   0  0  0  0  0  0  0  0  0  0  0  0
    3.5000   -0.5027    0.0000 C   0  0  0  0  0  0  0  0  0  0  0  0
    3.5000   -2.2348    0.0000 C   0  0  0  0  0  0  0  0  0  0  0  0
    3.0000   -1.3687    0.0000 C   0  0  0  0  0  0  0  0  0  0  0  0
   18.4110   -2.2621    0.0000 C   0  0  0  0  0  0  0  0  0  0  0  0
   19.2200   -2.8499    0.0000 C   0  0  0  0  0  0  0  0  0  0  0  0
   20.1336   -2.4432    0.0000 C   0  0  0  0  0  0  0  0  0  0  0  0
   20.9426   -3.0310    0.0000 C   0  0  0  0  0  0  0  0  0  0  0  0
   11.0826    1.4414    0.0000 H   0  0  0  0  0  0  0  0  0  0  0  0
   10.3923    1.8399    0.0000 H   0  0  0  0  0  0  0  0  0  0  0  0
   10.3923   -1.1133    0.0000 H   0  0  0  0  0  0  0  0  0  0  0  0
   11.0826   -0.7148    0.0000 H   0  0  0  0  0  0  0  0  0  0  0  0
    9.6077    1.8399    0.0000 H   0  0  0  0  0  0  0  0  0  0  0  0
    8.9174    1.4414    0.0000 H   0  0  0  0  0  0  0  0  0  0  0  0
    8.9174   -0.7148    0.0000 H   0  0  0  0  0  0  0  0  0  0  0  0
    9.6077   -1.1133    0.0000 H   0  0  0  0  0  0  0  0  0  0  0  0
   13.1554    0.7985    0.0000 H   0  0  0  0  0  0  0  0  0  0  0  0
   12.6677    1.4698    0.0000 H   0  0  0  0  0  0  0  0  0  0  0  0
    8.1077    0.9739    0.0000 H   0  0  0  0  0  0  0  0  0  0  0  0
    7.4174    0.5754    0.0000 H   0  0  0  0  0  0  0  0  0  0  0  0
   12.9019   -1.1552    0.0000 H   0  0  0  0  0  0  0  0  0  0  0  0
   13.6946   -1.2385    0.0000 H   0  0  0  0  0  0  0  0  0  0  0  0
    7.3923   -1.1133    0.0000 H   0  0  0  0  0  0  0  0  0  0  0  0
    8.0826   -0.7148    0.0000 H   0  0  0  0  0  0  0  0  0  0  0  0
   14.7074    0.1130    0.0000 H   0  0  0  0  0  0  0  0  0  0  0  0
   13.9147    0.1963    0.0000 H   0  0  0  0  0  0  0  0  0  0  0  0
    9.8858    1.8706    0.0000 H   0  0  0  0  0  0  0  0  0  0  0  0
   12.5544    2.7376    0.0000 H   0  0  0  0  0  0  0  0  0  0  0  0
    6.6077    0.1079    0.0000 H   0  0  0  0  0  0  0  0  0  0  0  0
    5.9174   -0.2907    0.0000 H   0  0  0  0  0  0  0  0  0  0  0  0
    9.3852    3.4113    0.0000 H   0  0  0  0  0  0  0  0  0  0  0  0
   12.0537    4.2783    0.0000 H   0  0  0  0  0  0  0  0  0  0  0  0
   10.4691    4.6152    0.0000 H   0  0  0  0  0  0  0  0  0  0  0  0
   14.3995   -2.1522    0.0000 H   0  0  0  0  0  0  0  0  0  0  0  0
   16.0488    0.1178    0.0000 H   0  0  0  0  0  0  0  0  0  0  0  0
   15.7101   -3.1044    0.0000 H   0  0  0  0  0  0  0  0  0  0  0  0
   17.3594   -0.8344    0.0000 H   0  0  0  0  0  0  0  0  0  0  0  0
    4.8100    0.0342    0.0000 H   0  0  0  0  0  0  0  0  0  0  0  0
    4.8100   -2.7717    0.0000 H   0  0  0  0  0  0  0  0  0  0  0  0
   17.4327   -3.2855    0.0000 H   0  0  0  0  0  0  0  0  0  0  0  0
    3.1900    0.0342    0.0000 H   0  0  0  0  0  0  0  0  0  0  0  0
    3.1900   -2.7717    0.0000 H   0  0  0  0  0  0  0  0  0  0  0  0
   18.7740   -3.2806    0.0000 H   0  0  0  0  0  0  0  0  0  0  0  0
   19.5667   -3.3639    0.0000 H   0  0  0  0  0  0  0  0  0  0  0  0
   20.5796   -2.0125    0.0000 H   0  0  0  0  0  0  0  0  0  0  0  0
   19.7869   -1.9292    0.0000 H   0  0  0  0  0  0  0  0  0  0  0  0
   22.3577   -2.9887    0.0000 H   0  0  0  0  0  0  0  0  0  0  0  0
  1 41  1  0  0  0  0
  2 16  2  0  0  0  0
  3 30  2  0  0  0  0
  4 42  2  0  0  0  0
  5 45  1  0  0  0  0
  5 84  1  0  0  0  0
  6 45  2  0  0  0  0
  7 11  1  0  0  0  0
  7 17  1  0  0  0  0
  7 19  1  0  0  0  0
  8 14  1  0  0  0  0
  8 15  1  0  0  0  0
  8 18  1  0  0  0  0
  9 16  1  0  0  0  0
  9 17  1  0  0  0  0
  9 20  1  0  0  0  0
 10 36  1  0  0  0  0
 10 42  1  0  0  0  0
 10 77  1  0  0  0  0
 11 12  1  0  0  0  0
 11 13  1  0  0  0  0
 11 16  1  0  0  0  0
 12 14  1  0  0  0  0
 12 46  1  0  0  0  0
 12 47  1  0  0  0  0
 13 15  1  0  0  0  0
 13 48  1  0  0  0  0
 13 49  1  0  0  0  0
 14 50  1  0  0  0  0
 14 51  1  0  0  0  0
 15 52  1  0  0  0  0
 15 53  1  0  0  0  0
 17 54  1  0  0  0  0
 17 55  1  0  0  0  0
 18 21  1  0  0  0  0
 18 56  1  0  0  0  0
 18 57  1  0  0  0  0
 19 23  2  0  0  0  0
 19 24  1  0  0  0  0
 20 22  1  0  0  0  0
 20 58  1  0  0  0  0
 20 59  1  0  0  0  0
 21 25  1  0  0  0  0
 21 60  1  0  0  0  0
 21 61  1  0  0  0  0
 22 26  1  0  0  0  0
 22 62  1  0  0  0  0
 22 63  1  0  0  0  0
 23 27  1  0  0  0  0
 23 64  1  0  0  0  0
 24 28  2  0  0  0  0
 24 65  1  0  0  0  0
 25 30  1  0  0  0  0
 25 66  1  0  0  0  0
 25 67  1  0  0  0  0
 26 31  2  0  0  0  0
 26 32  1  0  0  0  0
 27 29  2  0  0  0  0
 27 68  1  0  0  0  0
 28 29  1  0  0  0  0
 28 69  1  0  0  0  0
 29 70  1  0  0  0  0
 30 33  1  0  0  0  0
 31 34  1  0  0  0  0
 31 71  1  0  0  0  0
 32 35  2  0  0  0  0
 32 72  1  0  0  0  0
 33 37  2  0  0  0  0
 33 38  1  0  0  0  0
 34 36  2  0  0  0  0
 34 73  1  0  0  0  0
 35 36  1  0  0  0  0
 35 74  1  0  0  0  0
 37 39  1  0  0  0  0
 37 75  1  0  0  0  0
 38 40  2  0  0  0  0
 38 76  1  0  0  0  0
 39 41  2  0  0  0  0
 39 78  1  0  0  0  0
 40 41  1  0  0  0  0
 40 79  1  0  0  0  0
 42 43  1  0  0  0  0
 43 44  1  0  0  0  0
 43 80  1  0  0  0  0
 43 81  1  0  0  0  0
 44 45  1  0  0  0  0
 44 82  1  0  0  0  0
 44 83  1  0  0  0  0
M  END
> <PUBCHEM_COMPOUND_CID>
155551411

> <PUBCHEM_COMPOUND_CANONICALIZED>
1

> <PUBCHEM_CACTVS_COMPLEXITY>
1010

> <PUBCHEM_CACTVS_HBOND_ACCEPTOR>
8

> <PUBCHEM_CACTVS_HBOND_DONOR>
2

> <PUBCHEM_CACTVS_ROTATABLE_BOND>
13

> <PUBCHEM_CACTVS_SUBSKEYS>
AAADcfB/uQAAAAAAAAAAAAAAAAAAAWAAAAA8YMEAAAAAAAABUAAAHwAQCAAADIzBmAwxyIPAAgCIAqXSWACCAAAlAgAIiAGIZMiIYDLA1bGUYQhslwLIyac/iICOCAAAAAAAAAAQAAAAAAAAAAAAAAAAAA==

> <PUBCHEM_IUPAC_OPENEYE_NAME>
4-[4-[2-[8-[4-(4-fluorophenyl)-4-oxo-butyl]-4-oxo-1-phenyl-1,3,8-triazaspiro[4.5]decan-3-yl]ethyl]anilino]-4-oxo-butanoic acid

> <PUBCHEM_IUPAC_CAS_NAME>
4-[4-[2-[8-[4-(4-fluorophenyl)-4-oxobutyl]-4-oxo-1-phenyl-1,3,8-triazaspiro[4.5]decan-3-yl]ethyl]anilino]-4-oxobutanoic acid

> <PUBCHEM_IUPAC_NAME_MARKUP>
4-[4-[2-[8-[4-(4-fluorophenyl)-4-oxobutyl]-4-oxo-1-phenyl-1,3,8-triazaspiro[4.5]decan-3-yl]ethyl]anilino]-4-oxobutanoic acid

> <PUBCHEM_IUPAC_NAME>
4-[4-[2-[8-[4-(4-fluorophenyl)-4-oxobutyl]-4-oxo-1-phenyl-1,3,8-triazaspiro[4.5]decan-3-yl]ethyl]anilino]-4-oxobutanoic acid

> <PUBCHEM_IUPAC_SYSTEMATIC_NAME>
4-[[4-[2-[8-[4-(4-fluorophenyl)-4-oxidanylidene-butyl]-4-oxidanylidene-1-phenyl-1,3,8-triazaspiro[4.5]decan-3-yl]ethyl]phenyl]amino]-4-oxidanylidene-butanoic acid

> <PUBCHEM_IUPAC_TRADITIONAL_NAME>
4-[4-[2-[8-[4-(4-fluorophenyl)-4-keto-butyl]-4-keto-1-phenyl-1,3,8-triazaspiro[4.5]decan-3-yl]ethyl]anilino]-4-keto-butyric acid

> <PUBCHEM_IUPAC_INCHI>
InChI=1S/C35H39FN4O5/c36-28-12-10-27(11-13-28)31(41)7-4-21-38-23-19-35(20-24-38)34(45)39(25-40(35)30-5-2-1-3-6-30)22-18-26-8-14-29(15-9-26)37-32(42)16-17-33(43)44/h1-3,5-6,8-15H,4,7,16-25H2,(H,37,42)(H,43,44)

> <PUBCHEM_IUPAC_INCHIKEY>
DETPRQDJJUZUQI-UHFFFAOYSA-N

> <PUBCHEM_XLOGP3_AA>
1.9

> <PUBCHEM_EXACT_MASS>
614.29044852

> <PUBCHEM_MOLECULAR_FORMULA>
C35H39FN4O5

> <PUBCHEM_MOLECULAR_WEIGHT>
614.7

> <PUBCHEM_OPENEYE_CAN_SMILES>
C1CN(CCC12C(=O)N(CN2C3=CC=CC=C3)CCC4=CC=C(C=C4)NC(=O)CCC(=O)O)CCCC(=O)C5=CC=C(C=C5)F

> <PUBCHEM_OPENEYE_ISO_SMILES>
C1CN(CCC12C(=O)N(CN2C3=CC=CC=C3)CCC4=CC=C(C=C4)NC(=O)CCC(=O)O)CCCC(=O)C5=CC=C(C=C5)F

> <PUBCHEM_CACTVS_TPSA>
110

> <PUBCHEM_MONOISOTOPIC_WEIGHT>
614.29044852

> <PUBCHEM_TOTAL_CHARGE>
0

> <PUBCHEM_HEAVY_ATOM_COUNT>
45

> <PUBCHEM_ATOM_DEF_STEREO_COUNT>
0

> <PUBCHEM_ATOM_UDEF_STEREO_COUNT>
0

> <PUBCHEM_BOND_DEF_STEREO_COUNT>
0

> <PUBCHEM_BOND_UDEF_STEREO_COUNT>
0

> <PUBCHEM_ISOTOPIC_ATOM_COUNT>
0

> <PUBCHEM_COMPONENT_COUNT>
1

> <PUBCHEM_CACTVS_TAUTO_COUNT>
-1

> <PUBCHEM_COORDINATE_TYPE>
1
5
255

> <PUBCHEM_BONDANNOTATIONS>
19  23  8
19  24  8
23  27  8
24  28  8
26  31  8
26  32  8
27  29  8
28  29  8
31  34  8
32  35  8
33  37  8
33  38  8
34  36  8
35  36  8
37  39  8
38  40  8
39  41  8
40  41  8

$$$$
