11631892
  -OEChem-09292322272D

 50 53  0     0  0  0  0  0  0999 V2000
   10.6279    1.5000    0.0000 O   0  0  0  0  0  0  0  0  0  0  0  0
    7.6279   -0.2321    0.0000 N   0  0  0  0  0  0  0  0  0  0  0  0
    8.6279    1.5000    0.0000 N   0  0  0  0  0  0  0  0  0  0  0  0
    4.5981   -0.5981    0.0000 N   0  0  0  0  0  0  0  0  0  0  0  0
    5.5443   -1.9028    0.0000 N   0  0  0  0  0  0  0  0  0  0  0  0
    3.7320   -4.0981    0.0000 N   0  0  0  0  0  0  0  0  0  0  0  0
    7.1279    0.6340    0.0000 C   0  0  0  0  0  0  0  0  0  0  0  0
    8.6279   -0.2321    0.0000 C   0  0  0  0  0  0  0  0  0  0  0  0
    7.6279    1.5000    0.0000 C   0  0  0  0  0  0  0  0  0  0  0  0
    9.1279    0.6340    0.0000 C   0  0  0  0  0  0  0  0  0  0  0  0
    7.1279   -1.0981    0.0000 C   0  0  0  0  0  0  0  0  0  0  0  0
    9.1279    2.3660    0.0000 C   0  0  0  0  0  0  0  0  0  0  0  0
    6.1279   -1.0981    0.0000 C   0  0  0  0  0  0  0  0  0  0  0  0
    5.5443   -0.2933    0.0000 C   0  0  0  0  0  0  0  0  0  0  0  0
   10.1279    2.3660    0.0000 C   0  0  0  0  0  0  0  0  0  0  0  0
    8.6279    3.2320    0.0000 C   0  0  0  0  0  0  0  0  0  0  0  0
    4.5981   -1.5981    0.0000 C   0  0  0  0  0  0  0  0  0  0  0  0
   10.6279    3.2320    0.0000 C   0  0  0  0  0  0  0  0  0  0  0  0
    3.7320   -0.0981    0.0000 C   0  0  0  0  0  0  0  0  0  0  0  0
    9.1279    4.0981    0.0000 C   0  0  0  0  0  0  0  0  0  0  0  0
    3.7320   -2.0981    0.0000 C   0  0  0  0  0  0  0  0  0  0  0  0
    2.8660   -0.5981    0.0000 C   0  0  0  0  0  0  0  0  0  0  0  0
   10.1279    4.0981    0.0000 C   0  0  0  0  0  0  0  0  0  0  0  0
    2.8660   -1.5981    0.0000 C   0  0  0  0  0  0  0  0  0  0  0  0
    2.0000   -0.0981    0.0000 C   0  0  0  0  0  0  0  0  0  0  0  0
   11.6279    1.5000    0.0000 C   0  0  0  0  0  0  0  0  0  0  0  0
    3.7320   -3.0981    0.0000 C   0  0  0  0  0  0  0  0  0  0  0  0
    6.6530    1.0325    0.0000 H   0  0  0  0  0  0  0  0  0  0  0  0
    6.6530    0.2354    0.0000 H   0  0  0  0  0  0  0  0  0  0  0  0
    8.5202   -0.8426    0.0000 H   0  0  0  0  0  0  0  0  0  0  0  0
    9.2105   -0.4441    0.0000 H   0  0  0  0  0  0  0  0  0  0  0  0
    7.7356    2.1106    0.0000 H   0  0  0  0  0  0  0  0  0  0  0  0
    7.0453    1.7120    0.0000 H   0  0  0  0  0  0  0  0  0  0  0  0
    9.6028    0.2354    0.0000 H   0  0  0  0  0  0  0  0  0  0  0  0
    9.6028    1.0325    0.0000 H   0  0  0  0  0  0  0  0  0  0  0  0
    7.0202   -1.7087    0.0000 H   0  0  0  0  0  0  0  0  0  0  0  0
    7.7105   -1.3101    0.0000 H   0  0  0  0  0  0  0  0  0  0  0  0
    5.7369    0.2960    0.0000 H   0  0  0  0  0  0  0  0  0  0  0  0
    8.0079    3.2320    0.0000 H   0  0  0  0  0  0  0  0  0  0  0  0
    3.7320    0.5219    0.0000 H   0  0  0  0  0  0  0  0  0  0  0  0
   11.2479    3.2320    0.0000 H   0  0  0  0  0  0  0  0  0  0  0  0
    8.8179    4.6350    0.0000 H   0  0  0  0  0  0  0  0  0  0  0  0
   10.4379    4.6350    0.0000 H   0  0  0  0  0  0  0  0  0  0  0  0
    2.3291   -1.9081    0.0000 H   0  0  0  0  0  0  0  0  0  0  0  0
    2.3100    0.4389    0.0000 H   0  0  0  0  0  0  0  0  0  0  0  0
    1.4631    0.2119    0.0000 H   0  0  0  0  0  0  0  0  0  0  0  0
    1.6900   -0.6350    0.0000 H   0  0  0  0  0  0  0  0  0  0  0  0
   11.6279    0.8800    0.0000 H   0  0  0  0  0  0  0  0  0  0  0  0
   12.2479    1.5000    0.0000 H   0  0  0  0  0  0  0  0  0  0  0  0
   11.6279    2.1200    0.0000 H   0  0  0  0  0  0  0  0  0  0  0  0
  1 15  1  0  0  0  0
  1 26  1  0  0  0  0
  2  7  1  0  0  0  0
  2  8  1  0  0  0  0
  2 11  1  0  0  0  0
  3  9  1  0  0  0  0
  3 10  1  0  0  0  0
  3 12  1  0  0  0  0
  4 14  1  0  0  0  0
  4 17  1  0  0  0  0
  4 19  1  0  0  0  0
  5 13  1  0  0  0  0
  5 17  2  0  0  0  0
  6 27  3  0  0  0  0
  7  9  1  0  0  0  0
  7 28  1  0  0  0  0
  7 29  1  0  0  0  0
  8 10  1  0  0  0  0
  8 30  1  0  0  0  0
  8 31  1  0  0  0  0
  9 32  1  0  0  0  0
  9 33  1  0  0  0  0
 10 34  1  0  0  0  0
 10 35  1  0  0  0  0
 11 13  1  0  0  0  0
 11 36  1  0  0  0  0
 11 37  1  0  0  0  0
 12 15  1  0  0  0  0
 12 16  2  0  0  0  0
 13 14  2  0  0  0  0
 14 38  1  0  0  0  0
 15 18  2  0  0  0  0
 16 20  1  0  0  0  0
 16 39  1  0  0  0  0
 17 21  1  0  0  0  0
 18 23  1  0  0  0  0
 18 41  1  0  0  0  0
 19 22  2  0  0  0  0
 19 40  1  0  0  0  0
 20 23  2  0  0  0  0
 20 42  1  0  0  0  0
 21 24  2  0  0  0  0
 21 27  1  0  0  0  0
 22 24  1  0  0  0  0
 22 25  1  0  0  0  0
 23 43  1  0  0  0  0
 24 44  1  0  0  0  0
 25 45  1  0  0  0  0
 25 46  1  0  0  0  0
 25 47  1  0  0  0  0
 26 48  1  0  0  0  0
 26 49  1  0  0  0  0
 26 50  1  0  0  0  0
M  END
> <PUBCHEM_COMPOUND_CID>
11631892

> <PUBCHEM_COMPOUND_CANONICALIZED>
1

> <PUBCHEM_CACTVS_COMPLEXITY>
540

> <PUBCHEM_CACTVS_HBOND_ACCEPTOR>
5

> <PUBCHEM_CACTVS_HBOND_DONOR>
0

> <PUBCHEM_CACTVS_ROTATABLE_BOND>
4

> <PUBCHEM_CACTVS_SUBSKEYS>
AAADceB7oAAAAAAAAAAAAAAAAAAAAWAAAAA8WIAAAAAAAFgB8AAAHgAAAAAADAzBnwY/9p8MHACwBzZnZACiiC0xMqAJ2CA/fJiO7uLE+ZuVMChswBPY6C+QQAAMAAAAAAAAEAAAAAAAAAAgAAAAAAAAAA==

> <PUBCHEM_IUPAC_OPENEYE_NAME>
2-[[4-(2-methoxyphenyl)piperazin-1-yl]methyl]-6-methyl-imidazo[1,2-a]pyridine-8-carbonitrile

> <PUBCHEM_IUPAC_CAS_NAME>
2-[[4-(2-methoxyphenyl)-1-piperazinyl]methyl]-6-methyl-8-imidazo[1,2-a]pyridinecarbonitrile

> <PUBCHEM_IUPAC_NAME_MARKUP>
2-[[4-(2-methoxyphenyl)piperazin-1-yl]methyl]-6-methylimidazo[1,2-a]pyridine-8-carbonitrile

> <PUBCHEM_IUPAC_NAME>
2-[[4-(2-methoxyphenyl)piperazin-1-yl]methyl]-6-methylimidazo[1,2-a]pyridine-8-carbonitrile

> <PUBCHEM_IUPAC_SYSTEMATIC_NAME>
2-[[4-(2-methoxyphenyl)piperazin-1-yl]methyl]-6-methyl-imidazo[1,2-a]pyridine-8-carbonitrile

> <PUBCHEM_IUPAC_TRADITIONAL_NAME>
2-[[4-(2-methoxyphenyl)piperazino]methyl]-6-methyl-imidazo[1,2-a]pyridine-8-carbonitrile

> <PUBCHEM_IUPAC_INCHI>
InChI=1S/C21H23N5O/c1-16-11-17(12-22)21-23-18(15-26(21)13-16)14-24-7-9-25(10-8-24)19-5-3-4-6-20(19)27-2/h3-6,11,13,15H,7-10,14H2,1-2H3

> <PUBCHEM_IUPAC_INCHIKEY>
VXHLHYPOHKQMNB-UHFFFAOYSA-N

> <PUBCHEM_XLOGP3_AA>
3.3

> <PUBCHEM_EXACT_MASS>
361.19026037

> <PUBCHEM_MOLECULAR_FORMULA>
C21H23N5O

> <PUBCHEM_MOLECULAR_WEIGHT>
361.4

> <PUBCHEM_OPENEYE_CAN_SMILES>
CC1=CN2C=C(N=C2C(=C1)C#N)CN3CCN(CC3)C4=CC=CC=C4OC

> <PUBCHEM_OPENEYE_ISO_SMILES>
CC1=CN2C=C(N=C2C(=C1)C#N)CN3CCN(CC3)C4=CC=CC=C4OC

> <PUBCHEM_CACTVS_TPSA>
56.8

> <PUBCHEM_MONOISOTOPIC_WEIGHT>
361.19026037

> <PUBCHEM_TOTAL_CHARGE>
0

> <PUBCHEM_HEAVY_ATOM_COUNT>
27

> <PUBCHEM_ATOM_DEF_STEREO_COUNT>
0

> <PUBCHEM_ATOM_UDEF_STEREO_COUNT>
0

> <PUBCHEM_BOND_DEF_STEREO_COUNT>
0

> <PUBCHEM_BOND_UDEF_STEREO_COUNT>
0

> <PUBCHEM_ISOTOPIC_ATOM_COUNT>
0

> <PUBCHEM_COMPONENT_COUNT>
1

> <PUBCHEM_CACTVS_TAUTO_COUNT>
-1

> <PUBCHEM_COORDINATE_TYPE>
1
5
255

> <PUBCHEM_BONDANNOTATIONS>
12  15  8
12  16  8
13  14  8
15  18  8
16  20  8
17  21  8
18  23  8
19  22  8
20  23  8
21  24  8
22  24  8
4  14  8
4  17  8
4  19  8
5  13  8
5  17  8

$$$$
