135409492
  -OEChem-09292322202D

 43 46  0     0  0  0  0  0  0999 V2000
    3.7230   -2.7091    0.0000 S   0  0  0  0  0  0  0  0  0  0  0  0
    3.7518    3.2554    0.0000 O   0  5  0  0  0  0  0  0  0  0  0  0
    3.6770    2.2582    0.0000 N   0  3  0  0  0  0  0  0  0  0  0  0
    4.5448    0.4562    0.0000 N   0  0  0  0  0  0  0  0  0  0  0  0
    5.9786   -0.4447    0.0000 N   0  0  0  0  0  0  0  0  0  0  0  0
    5.4786   -2.6354    0.0000 N   0  0  0  0  0  0  0  0  0  0  0  0
    4.6742    2.1834    0.0000 C   0  0  0  0  0  0  0  0  0  0  0  0
    3.1137    1.4320    0.0000 C   0  0  0  0  0  0  0  0  0  0  0  0
    5.1081    1.2825    0.0000 C   0  0  0  0  0  0  0  0  0  0  0  0
    3.5476    0.5310    0.0000 C   0  0  0  0  0  0  0  0  0  0  0  0
    2.8508    2.8215    0.0000 C   0  0  0  0  0  0  0  0  0  0  0  0
    4.9786   -0.4447    0.0000 C   0  0  0  0  0  0  0  0  0  0  0  0
    4.3552   -1.2266    0.0000 C   0  0  0  0  0  0  0  0  0  0  0  0
    4.5777   -2.2015    0.0000 C   0  0  0  0  0  0  0  0  0  0  0  0
    3.3648   -1.1400    0.0000 C   0  0  0  0  0  0  0  0  0  0  0  0
    6.6021   -1.2266    0.0000 C   0  0  0  0  0  0  0  0  0  0  0  0
    6.3796   -2.2015    0.0000 C   0  0  0  0  0  0  0  0  0  0  0  0
    2.9749   -2.0544    0.0000 C   0  0  0  0  0  0  0  0  0  0  0  0
    7.5926   -0.9043    0.0000 C   0  0  0  0  0  0  0  0  0  0  0  0
    7.1322   -2.9217    0.0000 C   0  0  0  0  0  0  0  0  0  0  0  0
    2.0000   -2.2769    0.0000 C   0  0  0  0  0  0  0  0  0  0  0  0
    8.3616   -1.6068    0.0000 C   0  0  0  0  0  0  0  0  0  0  0  0
    8.1298   -2.6224    0.0000 C   0  0  0  0  0  0  0  0  0  0  0  0
    5.2710    2.3514    0.0000 H   0  0  0  0  0  0  0  0  0  0  0  0
    4.6125    2.8004    0.0000 H   0  0  0  0  0  0  0  0  0  0  0  0
    2.6698    1.8649    0.0000 H   0  0  0  0  0  0  0  0  0  0  0  0
    2.6103    1.0700    0.0000 H   0  0  0  0  0  0  0  0  0  0  0  0
    5.5519    0.8496    0.0000 H   0  0  0  0  0  0  0  0  0  0  0  0
    5.6115    1.6444    0.0000 H   0  0  0  0  0  0  0  0  0  0  0  0
    2.9507    0.3631    0.0000 H   0  0  0  0  0  0  0  0  0  0  0  0
    3.6093   -0.0859    0.0000 H   0  0  0  0  0  0  0  0  0  0  0  0
    3.2000    3.3338    0.0000 H   0  0  0  0  0  0  0  0  0  0  0  0
    2.3385    3.1708    0.0000 H   0  0  0  0  0  0  0  0  0  0  0  0
    2.5015    2.3092    0.0000 H   0  0  0  0  0  0  0  0  0  0  0  0
    3.0459   -0.6083    0.0000 H   0  0  0  0  0  0  0  0  0  0  0  0
    5.4786   -3.2554    0.0000 H   0  0  0  0  0  0  0  0  0  0  0  0
    7.7236   -0.2982    0.0000 H   0  0  0  0  0  0  0  0  0  0  0  0
    6.9872   -3.5245    0.0000 H   0  0  0  0  0  0  0  0  0  0  0  0
    1.8620   -1.6725    0.0000 H   0  0  0  0  0  0  0  0  0  0  0  0
    1.3955   -2.4149    0.0000 H   0  0  0  0  0  0  0  0  0  0  0  0
    2.1380   -2.8814    0.0000 H   0  0  0  0  0  0  0  0  0  0  0  0
    8.9534   -1.4218    0.0000 H   0  0  0  0  0  0  0  0  0  0  0  0
    8.5827   -3.0458    0.0000 H   0  0  0  0  0  0  0  0  0  0  0  0
  1 14  1  0  0  0  0
  1 18  1  0  0  0  0
  2  3  1  0  0  0  0
  3  7  1  0  0  0  0
  3  8  1  0  0  0  0
  3 11  1  0  0  0  0
  4  9  1  0  0  0  0
  4 10  1  0  0  0  0
  4 12  1  0  0  0  0
  5 12  2  0  0  0  0
  5 16  1  0  0  0  0
  6 14  1  0  0  0  0
  6 17  1  0  0  0  0
  6 36  1  0  0  0  0
  7  9  1  0  0  0  0
  7 24  1  0  0  0  0
  7 25  1  0  0  0  0
  8 10  1  0  0  0  0
  8 26  1  0  0  0  0
  8 27  1  0  0  0  0
  9 28  1  0  0  0  0
  9 29  1  0  0  0  0
 10 30  1  0  0  0  0
 10 31  1  0  0  0  0
 11 32  1  0  0  0  0
 11 33  1  0  0  0  0
 11 34  1  0  0  0  0
 12 13  1  0  0  0  0
 13 14  2  0  0  0  0
 13 15  1  0  0  0  0
 15 18  2  0  0  0  0
 15 35  1  0  0  0  0
 16 17  1  0  0  0  0
 16 19  2  0  0  0  0
 17 20  2  0  0  0  0
 18 21  1  0  0  0  0
 19 22  1  0  0  0  0
 19 37  1  0  0  0  0
 20 23  1  0  0  0  0
 20 38  1  0  0  0  0
 21 39  1  0  0  0  0
 21 40  1  0  0  0  0
 21 41  1  0  0  0  0
 22 23  2  0  0  0  0
 22 42  1  0  0  0  0
 23 43  1  0  0  0  0
M  CHG  2   2  -1   3   1
M  END
> <PUBCHEM_COMPOUND_CID>
135409492

> <PUBCHEM_COMPOUND_CANONICALIZED>
1

> <PUBCHEM_CACTVS_COMPLEXITY>
477

> <PUBCHEM_CACTVS_HBOND_ACCEPTOR>
4

> <PUBCHEM_CACTVS_HBOND_DONOR>
1

> <PUBCHEM_CACTVS_ROTATABLE_BOND>
1

> <PUBCHEM_CACTVS_SUBSKEYS>
AAADceB7oABAAAAAAAAAAAAAAAAAASAAAAA8QAAABAAAAACBwAAAHAQUAAAADAjBWAQzwYPQAAikAiZiZACDAIFhChlpiBgodJgIYOLg2ZGUIAhgkADoyAcQAAAMAAAAAAAAACAAAAAAAAAAQAAAAAAAAA==

> <PUBCHEM_IUPAC_OPENEYE_NAME>
2-methyl-4-(4-methyl-4-oxido-piperazin-4-ium-1-yl)-10H-thieno[2,3-b][1,5]benzodiazepine

> <PUBCHEM_IUPAC_CAS_NAME>
2-methyl-4-(4-methyl-4-oxido-1-piperazin-4-iumyl)-10H-thieno[2,3-b][1,5]benzodiazepine

> <PUBCHEM_IUPAC_NAME_MARKUP>
2-methyl-4-(4-methyl-4-oxidopiperazin-4-ium-1-yl)-10<I>H</I>-thieno[2,3-b][1,5]benzodiazepine

> <PUBCHEM_IUPAC_NAME>
2-methyl-4-(4-methyl-4-oxidopiperazin-4-ium-1-yl)-10H-thieno[2,3-b][1,5]benzodiazepine

> <PUBCHEM_IUPAC_SYSTEMATIC_NAME>
2-methyl-4-(4-methyl-4-oxidanidyl-piperazin-4-ium-1-yl)-10H-thieno[2,3-b][1,5]benzodiazepine

> <PUBCHEM_IUPAC_TRADITIONAL_NAME>
2-methyl-4-(4-methyl-4-oxido-piperazin-4-ium-1-yl)-10H-thieno[2,3-b][1,5]benzodiazepine

> <PUBCHEM_IUPAC_INCHI>
InChI=1S/C17H20N4OS/c1-12-11-13-16(20-7-9-21(2,22)10-8-20)18-14-5-3-4-6-15(14)19-17(13)23-12/h3-6,11,19H,7-10H2,1-2H3

> <PUBCHEM_IUPAC_INCHIKEY>
LJVNYCDXBXGQIK-UHFFFAOYSA-N

> <PUBCHEM_XLOGP3_AA>
2.3

> <PUBCHEM_EXACT_MASS>
328.13578245

> <PUBCHEM_MOLECULAR_FORMULA>
C17H20N4OS

> <PUBCHEM_MOLECULAR_WEIGHT>
328.4

> <PUBCHEM_OPENEYE_CAN_SMILES>
CC1=CC2=C(S1)NC3=CC=CC=C3N=C2N4CC[N+](CC4)(C)[O-]

> <PUBCHEM_OPENEYE_ISO_SMILES>
CC1=CC2=C(S1)NC3=CC=CC=C3N=C2N4CC[N+](CC4)(C)[O-]

> <PUBCHEM_CACTVS_TPSA>
73.9

> <PUBCHEM_MONOISOTOPIC_WEIGHT>
328.13578245

> <PUBCHEM_TOTAL_CHARGE>
0

> <PUBCHEM_HEAVY_ATOM_COUNT>
23

> <PUBCHEM_ATOM_DEF_STEREO_COUNT>
0

> <PUBCHEM_ATOM_UDEF_STEREO_COUNT>
0

> <PUBCHEM_BOND_DEF_STEREO_COUNT>
0

> <PUBCHEM_BOND_UDEF_STEREO_COUNT>
0

> <PUBCHEM_ISOTOPIC_ATOM_COUNT>
0

> <PUBCHEM_COMPONENT_COUNT>
1

> <PUBCHEM_CACTVS_TAUTO_COUNT>
-1

> <PUBCHEM_COORDINATE_TYPE>
1
5
255

> <PUBCHEM_BONDANNOTATIONS>
1  14  8
1  18  8
13  14  8
13  15  8
15  18  8
16  17  8
16  19  8
17  20  8
19  22  8
20  23  8
22  23  8

$$$$
