44310017
  -OEChem-09292322192D

 52 53  0     1  0  0  0  0  0999 V2000
    4.2078    5.7317    0.0000 O   0  0  0  0  0  0  0  0  0  0  0  0
    3.8988    8.3008    0.0000 O   0  0  0  0  0  0  0  0  0  0  0  0
    2.2244    1.5000    0.0000 O   0  0  0  0  0  0  0  0  0  0  0  0
    6.5545    1.0000    0.0000 O   0  0  0  0  0  0  0  0  0  0  0  0
    3.0904    0.0000    0.0000 O   0  0  0  0  0  0  0  0  0  0  0  0
    5.6885    2.5000    0.0000 O   0  0  0  0  0  0  0  0  0  0  0  0
    1.6200    6.5407    0.0000 N   0  0  0  0  0  0  0  0  0  0  0  0
    3.6200    6.5407    0.0000 C   0  0  0  0  0  0  0  0  0  0  0  0
    5.1588    6.0407    0.0000 C   0  0  3  0  0  0  0  0  0  0  0  0
    3.1200    7.4067    0.0000 C   0  0  0  0  0  0  0  0  0  0  0  0
    3.1200    5.6747    0.0000 C   0  0  0  0  0  0  0  0  0  0  0  0
    5.1588    7.0407    0.0000 C   0  0  0  0  0  0  0  0  0  0  0  0
    4.2078    7.3497    0.0000 C   0  0  0  0  0  0  0  0  0  0  0  0
    2.1200    7.4067    0.0000 C   0  0  0  0  0  0  0  0  0  0  0  0
    2.1200    5.6747    0.0000 C   0  0  0  0  0  0  0  0  0  0  0  0
    6.1588    6.0407    0.0000 C   0  0  0  0  0  0  0  0  0  0  0  0
    5.4679    5.0896    0.0000 C   0  0  0  0  0  0  0  0  0  0  0  0
    0.6200    6.5407    0.0000 C   0  0  0  0  0  0  0  0  0  0  0  0
    6.6588    6.9067    0.0000 C   0  0  0  0  0  0  0  0  0  0  0  0
    6.6588    5.1747    0.0000 C   0  0  0  0  0  0  0  0  0  0  0  0
    7.6588    6.9067    0.0000 C   0  0  0  0  0  0  0  0  0  0  0  0
    7.6588    5.1747    0.0000 C   0  0  0  0  0  0  0  0  0  0  0  0
    8.1588    6.0407    0.0000 C   0  0  0  0  0  0  0  0  0  0  0  0
    3.9564    1.5000    0.0000 C   0  0  0  0  0  0  0  0  0  0  0  0
    4.8224    1.0000    0.0000 C   0  0  0  0  0  0  0  0  0  0  0  0
    3.0904    1.0000    0.0000 C   0  0  0  0  0  0  0  0  0  0  0  0
    5.6885    1.5000    0.0000 C   0  0  0  0  0  0  0  0  0  0  0  0
    3.7026    7.6188    0.0000 H   0  0  0  0  0  0  0  0  0  0  0  0
    3.0123    8.0173    0.0000 H   0  0  0  0  0  0  0  0  0  0  0  0
    3.0123    5.0641    0.0000 H   0  0  0  0  0  0  0  0  0  0  0  0
    3.7026    5.4626    0.0000 H   0  0  0  0  0  0  0  0  0  0  0  0
    5.7754    6.9759    0.0000 H   0  0  0  0  0  0  0  0  0  0  0  0
    5.2878    7.6472    0.0000 H   0  0  0  0  0  0  0  0  0  0  0  0
    2.2277    8.0173    0.0000 H   0  0  0  0  0  0  0  0  0  0  0  0
    1.5374    7.6188    0.0000 H   0  0  0  0  0  0  0  0  0  0  0  0
    1.5374    5.4626    0.0000 H   0  0  0  0  0  0  0  0  0  0  0  0
    2.2277    5.0641    0.0000 H   0  0  0  0  0  0  0  0  0  0  0  0
    4.8782    4.8981    0.0000 H   0  0  0  0  0  0  0  0  0  0  0  0
    5.6594    4.5000    0.0000 H   0  0  0  0  0  0  0  0  0  0  0  0
    6.0575    5.2812    0.0000 H   0  0  0  0  0  0  0  0  0  0  0  0
    0.6200    7.1607    0.0000 H   0  0  0  0  0  0  0  0  0  0  0  0
    0.0000    6.5407    0.0000 H   0  0  0  0  0  0  0  0  0  0  0  0
    0.6200    5.9207    0.0000 H   0  0  0  0  0  0  0  0  0  0  0  0
    6.3488    7.4437    0.0000 H   0  0  0  0  0  0  0  0  0  0  0  0
    6.3488    4.6377    0.0000 H   0  0  0  0  0  0  0  0  0  0  0  0
    7.9688    7.4437    0.0000 H   0  0  0  0  0  0  0  0  0  0  0  0
    7.9688    4.6377    0.0000 H   0  0  0  0  0  0  0  0  0  0  0  0
    8.7788    6.0407    0.0000 H   0  0  0  0  0  0  0  0  0  0  0  0
    3.9564    2.1200    0.0000 H   0  0  0  0  0  0  0  0  0  0  0  0
    4.8224    0.3800    0.0000 H   0  0  0  0  0  0  0  0  0  0  0  0
    1.6874    1.1900    0.0000 H   0  0  0  0  0  0  0  0  0  0  0  0
    7.0914    1.3100    0.0000 H   0  0  0  0  0  0  0  0  0  0  0  0
  1  8  1  0  0  0  0
  1  9  1  0  0  0  0
  2 13  2  0  0  0  0
  3 26  1  0  0  0  0
  3 51  1  0  0  0  0
  4 27  1  0  0  0  0
  4 52  1  0  0  0  0
  5 26  2  0  0  0  0
  6 27  2  0  0  0  0
  7 14  1  0  0  0  0
  7 15  1  0  0  0  0
  7 18  1  0  0  0  0
  8 10  1  0  0  0  0
  8 11  1  0  0  0  0
  8 13  1  0  0  0  0
  9 12  1  0  0  0  0
  9 16  1  0  0  0  0
  9 17  1  0  0  0  0
 10 14  1  0  0  0  0
 10 28  1  0  0  0  0
 10 29  1  0  0  0  0
 11 15  1  0  0  0  0
 11 30  1  0  0  0  0
 11 31  1  0  0  0  0
 12 13  1  0  0  0  0
 12 32  1  0  0  0  0
 12 33  1  0  0  0  0
 14 34  1  0  0  0  0
 14 35  1  0  0  0  0
 15 36  1  0  0  0  0
 15 37  1  0  0  0  0
 16 19  2  0  0  0  0
 16 20  1  0  0  0  0
 17 38  1  0  0  0  0
 17 39  1  0  0  0  0
 17 40  1  0  0  0  0
 18 41  1  0  0  0  0
 18 42  1  0  0  0  0
 18 43  1  0  0  0  0
 19 21  1  0  0  0  0
 19 44  1  0  0  0  0
 20 22  2  0  0  0  0
 20 45  1  0  0  0  0
 21 23  2  0  0  0  0
 21 46  1  0  0  0  0
 22 23  1  0  0  0  0
 22 47  1  0  0  0  0
 23 48  1  0  0  0  0
 24 25  2  0  0  0  0
 24 26  1  0  0  0  0
 24 49  1  0  0  0  0
 25 27  1  0  0  0  0
 25 50  1  0  0  0  0
M  END
> <PUBCHEM_COMPOUND_CID>
44310017

> <PUBCHEM_COMPOUND_CANONICALIZED>
1

> <PUBCHEM_CACTVS_COMPLEXITY>
473

> <PUBCHEM_CACTVS_HBOND_ACCEPTOR>
7

> <PUBCHEM_CACTVS_HBOND_DONOR>
2

> <PUBCHEM_CACTVS_ROTATABLE_BOND>
3

> <PUBCHEM_CACTVS_SUBSKEYS>
AAADceB6OAAAAAAAAAAAAAAAAAAAASAAAAA8QAAAAAAAAAABAAAAHgAACAAADETBmAQyCIMABgCIAqDSCAICAAAgAAAIiAFICMgIJjaAsRyGMAAm4AGIuYecyPCOgAAAAAAAAAAAAAAAAAAAAAAAAAAAAA==

> <PUBCHEM_IUPAC_OPENEYE_NAME>
2,8-dimethyl-2-phenyl-1-oxa-8-azaspiro[4.5]decan-4-one;fumaric acid

> <PUBCHEM_IUPAC_CAS_NAME>
(E)-2-butenedioic acid;2,8-dimethyl-2-phenyl-1-oxa-8-azaspiro[4.5]decan-4-one

> <PUBCHEM_IUPAC_NAME_MARKUP>
(<I>E</I>)-but-2-enedioic acid;2,8-dimethyl-2-phenyl-1-oxa-8-azaspiro[4.5]decan-4-one

> <PUBCHEM_IUPAC_NAME>
(E)-but-2-enedioic acid;2,8-dimethyl-2-phenyl-1-oxa-8-azaspiro[4.5]decan-4-one

> <PUBCHEM_IUPAC_SYSTEMATIC_NAME>
(E)-but-2-enedioic acid;2,8-dimethyl-2-phenyl-1-oxa-8-azaspiro[4.5]decan-4-one

> <PUBCHEM_IUPAC_TRADITIONAL_NAME>
2,8-dimethyl-2-phenyl-1-oxa-8-azaspiro[4.5]decan-4-one;fumaric acid

> <PUBCHEM_IUPAC_INCHI>
InChI=1S/C16H21NO2.C4H4O4/c1-15(13-6-4-3-5-7-13)12-14(18)16(19-15)8-10-17(2)11-9-16;5-3(6)1-2-4(7)8/h3-7H,8-12H2,1-2H3;1-2H,(H,5,6)(H,7,8)/b;2-1+

> <PUBCHEM_IUPAC_INCHIKEY>
VIBYZCAGMPNSPR-WLHGVMLRSA-N

> <PUBCHEM_EXACT_MASS>
375.16818752

> <PUBCHEM_MOLECULAR_FORMULA>
C20H25NO6

> <PUBCHEM_MOLECULAR_WEIGHT>
375.4

> <PUBCHEM_OPENEYE_CAN_SMILES>
CC1(CC(=O)C2(O1)CCN(CC2)C)C3=CC=CC=C3.C(=CC(=O)O)C(=O)O

> <PUBCHEM_OPENEYE_ISO_SMILES>
CC1(CC(=O)C2(O1)CCN(CC2)C)C3=CC=CC=C3.C(=C/C(=O)O)\C(=O)O

> <PUBCHEM_CACTVS_TPSA>
104

> <PUBCHEM_MONOISOTOPIC_WEIGHT>
375.16818752

> <PUBCHEM_TOTAL_CHARGE>
0

> <PUBCHEM_HEAVY_ATOM_COUNT>
27

> <PUBCHEM_ATOM_DEF_STEREO_COUNT>
0

> <PUBCHEM_ATOM_UDEF_STEREO_COUNT>
1

> <PUBCHEM_BOND_DEF_STEREO_COUNT>
1

> <PUBCHEM_BOND_UDEF_STEREO_COUNT>
0

> <PUBCHEM_ISOTOPIC_ATOM_COUNT>
0

> <PUBCHEM_COMPONENT_COUNT>
2

> <PUBCHEM_CACTVS_TAUTO_COUNT>
-1

> <PUBCHEM_COORDINATE_TYPE>
1
5
255

> <PUBCHEM_BONDANNOTATIONS>
16  19  8
16  20  8
19  21  8
20  22  8
21  23  8
22  23  8
9  17  3

$$$$
