44324765
  -OEChem-09292322102D

 64 68  0     1  0  0  0  0  0999 V2000
    8.5301    1.2613    0.0000 O   0  0  0  0  0  0  0  0  0  0  0  0
   11.7920    0.7613    0.0000 O   0  0  0  0  0  0  0  0  0  0  0  0
   11.8041    4.8305    0.0000 O   0  0  0  0  0  0  0  0  0  0  0  0
   13.5779    3.8064    0.0000 O   0  0  0  0  0  0  0  0  0  0  0  0
    7.8245   -0.7002    0.0000 N   0  0  0  0  0  0  0  0  0  0  0  0
    5.8675   -1.1126    0.0000 N   0  0  0  0  0  0  0  0  0  0  0  0
    9.1137    2.0660    0.0000 N   0  0  0  0  0  0  0  0  0  0  0  0
    9.1137    0.4565    0.0000 C   0  0  2  0  0  0  0  0  0  0  0  0
   10.0599    0.7613    0.0000 C   0  0  1  0  0  0  0  0  0  0  0  0
    8.8030   -0.4940    0.0000 C   0  0  0  0  0  0  0  0  0  0  0  0
    7.1567    0.0441    0.0000 C   0  0  0  0  0  0  0  0  0  0  0  0
    7.5138   -1.6507    0.0000 C   0  0  0  0  0  0  0  0  0  0  0  0
   10.0599    1.7613    0.0000 C   0  0  0  0  0  0  0  0  0  0  0  0
    6.1782   -0.1621    0.0000 C   0  0  0  0  0  0  0  0  0  0  0  0
    6.5354   -1.8570    0.0000 C   0  0  0  0  0  0  0  0  0  0  0  0
   10.9259    0.2613    0.0000 C   0  0  0  0  0  0  0  0  0  0  0  0
   10.9259    2.2613    0.0000 C   0  0  0  0  0  0  0  0  0  0  0  0
    4.8890   -1.3189    0.0000 C   0  0  0  0  0  0  0  0  0  0  0  0
   11.7920    1.7613    0.0000 C   0  0  0  0  0  0  0  0  0  0  0  0
   10.9099    3.3028    0.0000 C   0  0  0  0  0  0  0  0  0  0  0  0
   12.7020    2.2681    0.0000 C   0  0  0  0  0  0  0  0  0  0  0  0
    4.5783   -2.2694    0.0000 C   0  0  0  0  0  0  0  0  0  0  0  0
   11.8079    3.8305    0.0000 C   0  0  0  0  0  0  0  0  0  0  0  0
   12.7100    3.3097    0.0000 C   0  0  0  0  0  0  0  0  0  0  0  0
    3.5998   -2.4756    0.0000 C   0  0  0  0  0  0  0  0  0  0  0  0
    3.2892   -3.4261    0.0000 C   0  0  0  0  0  0  0  0  0  0  0  0
   10.9361    5.3272    0.0000 C   0  0  0  0  0  0  0  0  0  0  0  0
   14.4420    3.3030    0.0000 C   0  0  0  0  0  0  0  0  0  0  0  0
    2.3107   -3.6324    0.0000 C   0  0  0  0  0  0  0  0  0  0  0  0
    3.9570   -4.1704    0.0000 C   0  0  0  0  0  0  0  0  0  0  0  0
    2.0000   -4.5829    0.0000 C   0  0  0  0  0  0  0  0  0  0  0  0
    3.6464   -5.1210    0.0000 C   0  0  0  0  0  0  0  0  0  0  0  0
    2.6678   -5.3272    0.0000 C   0  0  0  0  0  0  0  0  0  0  0  0
    8.5012    0.3603    0.0000 H   0  0  0  0  0  0  0  0  0  0  0  0
    9.9700   -0.0840    0.0000 H   0  0  0  0  0  0  0  0  0  0  0  0
    8.8236   -1.1136    0.0000 H   0  0  0  0  0  0  0  0  0  0  0  0
    9.4168   -0.5813    0.0000 H   0  0  0  0  0  0  0  0  0  0  0  0
    7.6830    0.3717    0.0000 H   0  0  0  0  0  0  0  0  0  0  0  0
    6.9254    0.6193    0.0000 H   0  0  0  0  0  0  0  0  0  0  0  0
    7.5344   -2.2704    0.0000 H   0  0  0  0  0  0  0  0  0  0  0  0
    8.1277   -1.7381    0.0000 H   0  0  0  0  0  0  0  0  0  0  0  0
    6.1576    0.4575    0.0000 H   0  0  0  0  0  0  0  0  0  0  0  0
    5.5644   -0.0748    0.0000 H   0  0  0  0  0  0  0  0  0  0  0  0
    6.0090   -2.1846    0.0000 H   0  0  0  0  0  0  0  0  0  0  0  0
    6.7666   -2.4322    0.0000 H   0  0  0  0  0  0  0  0  0  0  0  0
   10.5274   -0.2137    0.0000 H   0  0  0  0  0  0  0  0  0  0  0  0
   11.3245   -0.2137    0.0000 H   0  0  0  0  0  0  0  0  0  0  0  0
    4.8684   -0.6992    0.0000 H   0  0  0  0  0  0  0  0  0  0  0  0
    4.2752   -1.2315    0.0000 H   0  0  0  0  0  0  0  0  0  0  0  0
   10.3694    3.6065    0.0000 H   0  0  0  0  0  0  0  0  0  0  0  0
   13.2353    1.9519    0.0000 H   0  0  0  0  0  0  0  0  0  0  0  0
    4.9924   -2.7309    0.0000 H   0  0  0  0  0  0  0  0  0  0  0  0
    3.1858   -2.0141    0.0000 H   0  0  0  0  0  0  0  0  0  0  0  0
   11.2440    5.8653    0.0000 H   0  0  0  0  0  0  0  0  0  0  0  0
   10.3980    5.6351    0.0000 H   0  0  0  0  0  0  0  0  0  0  0  0
   10.6282    4.7890    0.0000 H   0  0  0  0  0  0  0  0  0  0  0  0
   14.1300    2.7673    0.0000 H   0  0  0  0  0  0  0  0  0  0  0  0
   14.9778    2.9910    0.0000 H   0  0  0  0  0  0  0  0  0  0  0  0
   14.7541    3.8388    0.0000 H   0  0  0  0  0  0  0  0  0  0  0  0
    1.8966   -3.1709    0.0000 H   0  0  0  0  0  0  0  0  0  0  0  0
    4.5637   -4.0426    0.0000 H   0  0  0  0  0  0  0  0  0  0  0  0
    1.3933   -4.7107    0.0000 H   0  0  0  0  0  0  0  0  0  0  0  0
    4.0604   -5.5824    0.0000 H   0  0  0  0  0  0  0  0  0  0  0  0
    2.4752   -5.9165    0.0000 H   0  0  0  0  0  0  0  0  0  0  0  0
  1  7  1  0  0  0  0
  1  8  1  0  0  0  0
  2 16  1  0  0  0  0
  2 19  1  0  0  0  0
  3 23  1  0  0  0  0
  3 27  1  0  0  0  0
  4 24  1  0  0  0  0
  4 28  1  0  0  0  0
  5 10  1  0  0  0  0
  5 11  1  0  0  0  0
  5 12  1  0  0  0  0
  6 14  1  0  0  0  0
  6 15  1  0  0  0  0
  6 18  1  0  0  0  0
  7 13  2  0  0  0  0
  8  9  1  0  0  0  0
  8 10  1  6  0  0  0
  8 34  1  0  0  0  0
  9 13  1  0  0  0  0
  9 16  1  0  0  0  0
  9 35  1  6  0  0  0
 10 36  1  0  0  0  0
 10 37  1  0  0  0  0
 11 14  1  0  0  0  0
 11 38  1  0  0  0  0
 11 39  1  0  0  0  0
 12 15  1  0  0  0  0
 12 40  1  0  0  0  0
 12 41  1  0  0  0  0
 13 17  1  0  0  0  0
 14 42  1  0  0  0  0
 14 43  1  0  0  0  0
 15 44  1  0  0  0  0
 15 45  1  0  0  0  0
 16 46  1  0  0  0  0
 16 47  1  0  0  0  0
 17 19  1  0  0  0  0
 17 20  2  0  0  0  0
 18 22  1  0  0  0  0
 18 48  1  0  0  0  0
 18 49  1  0  0  0  0
 19 21  2  0  0  0  0
 20 23  1  0  0  0  0
 20 50  1  0  0  0  0
 21 24  1  0  0  0  0
 21 51  1  0  0  0  0
 22 25  2  0  0  0  0
 22 52  1  0  0  0  0
 23 24  2  0  0  0  0
 25 26  1  0  0  0  0
 25 53  1  0  0  0  0
 26 29  2  0  0  0  0
 26 30  1  0  0  0  0
 27 54  1  0  0  0  0
 27 55  1  0  0  0  0
 27 56  1  0  0  0  0
 28 57  1  0  0  0  0
 28 58  1  0  0  0  0
 28 59  1  0  0  0  0
 29 31  1  0  0  0  0
 29 60  1  0  0  0  0
 30 32  2  0  0  0  0
 30 61  1  0  0  0  0
 31 33  2  0  0  0  0
 31 62  1  0  0  0  0
 32 33  1  0  0  0  0
 32 63  1  0  0  0  0
 33 64  1  0  0  0  0
M  END
> <PUBCHEM_COMPOUND_CID>
44324765

> <PUBCHEM_COMPOUND_CANONICALIZED>
1

> <PUBCHEM_CACTVS_COMPLEXITY>
687

> <PUBCHEM_CACTVS_HBOND_ACCEPTOR>
7

> <PUBCHEM_CACTVS_HBOND_DONOR>
0

> <PUBCHEM_CACTVS_ROTATABLE_BOND>
7

> <PUBCHEM_CACTVS_SUBSKEYS>
AAADceB7OAAAAAAAAAAAAAAAAAAAAQAAAAA8aIEAAAAAAECRQAAAHgAEAAAADRzhmAYyBoMQBACgAyBiAACCCAAgIAAIiAA+iJgPZ6KEsRqWOCKlwBWaqAfw4PwOIQABCAAIQABCAAIQABCAAAAAAAAAAA==

> <PUBCHEM_IUPAC_OPENEYE_NAME>
(3R,3aS)-3-[[4-[(E)-cinnamyl]piperazin-1-yl]methyl]-7,8-dimethoxy-3a,4-dihydro-3H-chromeno[4,3-c]isoxazole

> <PUBCHEM_IUPAC_CAS_NAME>
(3R,3aS)-7,8-dimethoxy-3-[[4-[(E)-3-phenylprop-2-enyl]-1-piperazinyl]methyl]-3a,4-dihydro-3H-[1]benzopyrano[4,3-c]isoxazole

> <PUBCHEM_IUPAC_NAME_MARKUP>
(3<I>R</I>,3<I>a</I><I>S</I>)-7,8-dimethoxy-3-[[4-[(<I>E</I>)-3-phenylprop-2-enyl]piperazin-1-yl]methyl]-3<I>a</I>,4-dihydro-3<I>H</I>-chromeno[4,3-c][1,2]oxazole

> <PUBCHEM_IUPAC_NAME>
(3R,3aS)-7,8-dimethoxy-3-[[4-[(E)-3-phenylprop-2-enyl]piperazin-1-yl]methyl]-3a,4-dihydro-3H-chromeno[4,3-c][1,2]oxazole

> <PUBCHEM_IUPAC_SYSTEMATIC_NAME>
(3R,3aS)-7,8-dimethoxy-3-[[4-[(E)-3-phenylprop-2-enyl]piperazin-1-yl]methyl]-3a,4-dihydro-3H-chromeno[4,3-c][1,2]oxazole

> <PUBCHEM_IUPAC_TRADITIONAL_NAME>
(3R,3aS)-3-[[4-[(E)-cinnamyl]piperazino]methyl]-7,8-dimethoxy-3a,4-dihydro-3H-chromen[4,3-c]isoxazole

> <PUBCHEM_IUPAC_INCHI>
InChI=1S/C26H31N3O4/c1-30-23-15-20-22(16-24(23)31-2)32-18-21-25(33-27-26(20)21)17-29-13-11-28(12-14-29)10-6-9-19-7-4-3-5-8-19/h3-9,15-16,21,25H,10-14,17-18H2,1-2H3/b9-6+/t21-,25-/m0/s1

> <PUBCHEM_IUPAC_INCHIKEY>
WZOMJNATDSYQHS-ZPWQMVEJSA-N

> <PUBCHEM_XLOGP3_AA>
3.6

> <PUBCHEM_EXACT_MASS>
449.23145648

> <PUBCHEM_MOLECULAR_FORMULA>
C26H31N3O4

> <PUBCHEM_MOLECULAR_WEIGHT>
449.5

> <PUBCHEM_OPENEYE_CAN_SMILES>
COC1=C(C=C2C(=C1)C3=NOC(C3CO2)CN4CCN(CC4)CC=CC5=CC=CC=C5)OC

> <PUBCHEM_OPENEYE_ISO_SMILES>
COC1=C(C=C2C(=C1)C3=NO[C@H]([C@@H]3CO2)CN4CCN(CC4)C/C=C/C5=CC=CC=C5)OC

> <PUBCHEM_CACTVS_TPSA>
55.8

> <PUBCHEM_MONOISOTOPIC_WEIGHT>
449.23145648

> <PUBCHEM_TOTAL_CHARGE>
0

> <PUBCHEM_HEAVY_ATOM_COUNT>
33

> <PUBCHEM_ATOM_DEF_STEREO_COUNT>
2

> <PUBCHEM_ATOM_UDEF_STEREO_COUNT>
0

> <PUBCHEM_BOND_DEF_STEREO_COUNT>
1

> <PUBCHEM_BOND_UDEF_STEREO_COUNT>
0

> <PUBCHEM_ISOTOPIC_ATOM_COUNT>
0

> <PUBCHEM_COMPONENT_COUNT>
1

> <PUBCHEM_CACTVS_TAUTO_COUNT>
-1

> <PUBCHEM_COORDINATE_TYPE>
1
5
255

> <PUBCHEM_BONDANNOTATIONS>
17  19  8
17  20  8
19  21  8
20  23  8
21  24  8
23  24  8
26  29  8
26  30  8
29  31  8
30  32  8
31  33  8
32  33  8
8  10  6
9  35  6

$$$$
