11676174
  -OEChem-09292322272D

 60 63  0     0  0  0  0  0  0999 V2000
    3.4030    4.0097    0.0000 O   0  0  0  0  0  0  0  0  0  0  0  0
    6.8140   -3.0245    0.0000 O   0  0  0  0  0  0  0  0  0  0  0  0
    8.5113   -6.0443    0.0000 O   0  0  0  0  0  0  0  0  0  0  0  0
    6.8603    0.9752    0.0000 N   0  0  0  0  0  0  0  0  0  0  0  0
    6.8834    2.9751    0.0000 N   0  0  0  0  0  0  0  0  0  0  0  0
    8.5460   -3.0445    0.0000 N   0  0  0  0  0  0  0  0  0  0  0  0
    9.4062   -3.5545    0.0000 N   0  0  0  0  0  0  0  0  0  0  0  0
    7.6627   -4.5344    0.0000 N   0  0  0  0  0  0  0  0  0  0  0  0
    7.7320    1.4652    0.0000 C   0  0  0  0  0  0  0  0  0  0  0  0
    6.0001    1.4852    0.0000 C   0  0  0  0  0  0  0  0  0  0  0  0
    7.7436    2.4651    0.0000 C   0  0  0  0  0  0  0  0  0  0  0  0
    6.0117    2.4851    0.0000 C   0  0  0  0  0  0  0  0  0  0  0  0
    6.8487   -0.0247    0.0000 C   0  0  0  0  0  0  0  0  0  0  0  0
    7.7089   -0.5347    0.0000 C   0  0  0  0  0  0  0  0  0  0  0  0
    6.8950    3.9750    0.0000 C   0  0  0  0  0  0  0  0  0  0  0  0
    7.6974   -1.5346    0.0000 C   0  0  0  0  0  0  0  0  0  0  0  0
    6.0010    4.5097    0.0000 C   0  0  0  0  0  0  0  0  0  0  0  0
    8.5575   -2.0446    0.0000 C   0  0  0  0  0  0  0  0  0  0  0  0
    7.8010    4.4889    0.0000 C   0  0  0  0  0  0  0  0  0  0  0  0
    6.0010    5.5097    0.0000 C   0  0  0  0  0  0  0  0  0  0  0  0
    5.1350    4.0097    0.0000 C   0  0  0  0  0  0  0  0  0  0  0  0
    7.8010    5.5305    0.0000 C   0  0  0  0  0  0  0  0  0  0  0  0
    6.8950    6.0443    0.0000 C   0  0  0  0  0  0  0  0  0  0  0  0
    5.1350    6.0097    0.0000 C   0  0  0  0  0  0  0  0  0  0  0  0
    4.2690    4.5097    0.0000 C   0  0  0  0  0  0  0  0  0  0  0  0
    4.2690    5.5097    0.0000 C   0  0  0  0  0  0  0  0  0  0  0  0
    7.6742   -3.5345    0.0000 C   0  0  0  0  0  0  0  0  0  0  0  0
    9.3946   -4.5545    0.0000 C   0  0  0  0  0  0  0  0  0  0  0  0
    8.5228   -5.0444    0.0000 C   0  0  0  0  0  0  0  0  0  0  0  0
    6.7909   -5.0244    0.0000 C   0  0  0  0  0  0  0  0  0  0  0  0
    2.5369    4.5097    0.0000 C  -1  0  0  0  0  0  0  0  0  0  0  0
    7.9373    0.8801    0.0000 H   0  0  0  0  0  0  0  0  0  0  0  0
    8.3438    1.5658    0.0000 H   0  0  0  0  0  0  0  0  0  0  0  0
    5.3908    1.5999    0.0000 H   0  0  0  0  0  0  0  0  0  0  0  0
    5.7813    0.9051    0.0000 H   0  0  0  0  0  0  0  0  0  0  0  0
    8.3529    2.3504    0.0000 H   0  0  0  0  0  0  0  0  0  0  0  0
    7.9624    3.0452    0.0000 H   0  0  0  0  0  0  0  0  0  0  0  0
    5.8064    3.0702    0.0000 H   0  0  0  0  0  0  0  0  0  0  0  0
    5.3999    2.3845    0.0000 H   0  0  0  0  0  0  0  0  0  0  0  0
    6.2394    0.0900    0.0000 H   0  0  0  0  0  0  0  0  0  0  0  0
    6.6300   -0.6048    0.0000 H   0  0  0  0  0  0  0  0  0  0  0  0
    8.3182   -0.6494    0.0000 H   0  0  0  0  0  0  0  0  0  0  0  0
    7.9277    0.0454    0.0000 H   0  0  0  0  0  0  0  0  0  0  0  0
    7.0880   -1.4199    0.0000 H   0  0  0  0  0  0  0  0  0  0  0  0
    7.4786   -2.1148    0.0000 H   0  0  0  0  0  0  0  0  0  0  0  0
    9.1668   -2.1593    0.0000 H   0  0  0  0  0  0  0  0  0  0  0  0
    8.7763   -1.4645    0.0000 H   0  0  0  0  0  0  0  0  0  0  0  0
    8.3368    4.1768    0.0000 H   0  0  0  0  0  0  0  0  0  0  0  0
    5.1350    3.3897    0.0000 H   0  0  0  0  0  0  0  0  0  0  0  0
    8.3368    5.8426    0.0000 H   0  0  0  0  0  0  0  0  0  0  0  0
    6.8878    6.6643    0.0000 H   0  0  0  0  0  0  0  0  0  0  0  0
    5.1350    6.6297    0.0000 H   0  0  0  0  0  0  0  0  0  0  0  0
    3.7320    5.8197    0.0000 H   0  0  0  0  0  0  0  0  0  0  0  0
    9.9279   -4.8706    0.0000 H   0  0  0  0  0  0  0  0  0  0  0  0
    6.4871   -4.4839    0.0000 H   0  0  0  0  0  0  0  0  0  0  0  0
    6.2504   -5.3282    0.0000 H   0  0  0  0  0  0  0  0  0  0  0  0
    7.0947   -5.5649    0.0000 H   0  0  0  0  0  0  0  0  0  0  0  0
    2.0000    4.8197    0.0000 H   0  0  0  0  0  0  0  0  0  0  0  0
    2.2269    3.9727    0.0000 H   0  0  0  0  0  0  0  0  0  0  0  0
    2.8469    5.0466    0.0000 H   0  0  0  0  0  0  0  0  0  0  0  0
  1 25  1  0  0  0  0
  1 31  1  0  0  0  0
  2 27  2  0  0  0  0
  3 29  2  0  0  0  0
  4  9  1  0  0  0  0
  4 10  1  0  0  0  0
  4 13  1  0  0  0  0
  5 11  1  0  0  0  0
  5 12  1  0  0  0  0
  5 15  1  0  0  0  0
  6  7  1  0  0  0  0
  6 18  1  0  0  0  0
  6 27  1  0  0  0  0
  7 28  2  0  0  0  0
  8 27  1  0  0  0  0
  8 29  1  0  0  0  0
  8 30  1  0  0  0  0
  9 11  1  0  0  0  0
  9 32  1  0  0  0  0
  9 33  1  0  0  0  0
 10 12  1  0  0  0  0
 10 34  1  0  0  0  0
 10 35  1  0  0  0  0
 11 36  1  0  0  0  0
 11 37  1  0  0  0  0
 12 38  1  0  0  0  0
 12 39  1  0  0  0  0
 13 14  1  0  0  0  0
 13 40  1  0  0  0  0
 13 41  1  0  0  0  0
 14 16  1  0  0  0  0
 14 42  1  0  0  0  0
 14 43  1  0  0  0  0
 15 17  1  0  0  0  0
 15 19  2  0  0  0  0
 16 18  1  0  0  0  0
 16 44  1  0  0  0  0
 16 45  1  0  0  0  0
 17 20  2  0  0  0  0
 17 21  1  0  0  0  0
 18 46  1  0  0  0  0
 18 47  1  0  0  0  0
 19 22  1  0  0  0  0
 19 48  1  0  0  0  0
 20 23  1  0  0  0  0
 20 24  1  0  0  0  0
 21 25  2  0  0  0  0
 21 49  1  0  0  0  0
 22 23  2  0  0  0  0
 22 50  1  0  0  0  0
 23 51  1  0  0  0  0
 24 26  2  0  0  0  0
 24 52  1  0  0  0  0
 25 26  1  0  0  0  0
 26 53  1  0  0  0  0
 28 29  1  0  0  0  0
 28 54  1  0  0  0  0
 30 55  1  0  0  0  0
 30 56  1  0  0  0  0
 30 57  1  0  0  0  0
 31 58  1  0  0  0  0
 31 59  1  0  0  0  0
 31 60  1  0  0  0  0
M  ISO  1  31  11
M  END
> <PUBCHEM_COMPOUND_CID>
11676174

> <PUBCHEM_COMPOUND_CANONICALIZED>
1

> <PUBCHEM_CACTVS_COMPLEXITY>
664

> <PUBCHEM_CACTVS_HBOND_ACCEPTOR>
6

> <PUBCHEM_CACTVS_HBOND_DONOR>
0

> <PUBCHEM_CACTVS_ROTATABLE_BOND>
7

> <PUBCHEM_CACTVS_SUBSKEYS>
AAADceB7sAAAAAAAAAAAAAAAAAAAAAAAAAA8YIEAAAAAAADBUAAAHgAIAAAADAzBmAYzxsMABACoAjVzUACSCAAhIgAeiAAObIiMZiLEsZuUMChszzPI6AewwLAOoAABQAASAABAAAKAACQAAAAAAAAAAA==

> <PUBCHEM_IUPAC_OPENEYE_NAME>
2-[4-[4-(7-(111C)methoxy-1-naphthyl)piperazin-1-yl]butyl]-4-methyl-1,2,4-triazine-3,5-dione

> <PUBCHEM_IUPAC_CAS_NAME>
2-[4-[4-(7-(111C)methoxy-1-naphthalenyl)-1-piperazinyl]butyl]-4-methyl-1,2,4-triazine-3,5-dione

> <PUBCHEM_IUPAC_NAME_MARKUP>
2-[4-[4-(7-(1<SUP>11</SUP>C)methoxynaphthalen-1-yl)piperazin-1-yl]butyl]-4-methyl-1,2,4-triazine-3,5-dione

> <PUBCHEM_IUPAC_NAME>
2-[4-[4-(7-(111C)methoxynaphthalen-1-yl)piperazin-1-yl]butyl]-4-methyl-1,2,4-triazine-3,5-dione

> <PUBCHEM_IUPAC_SYSTEMATIC_NAME>
2-[4-[4-(7-(111C)methoxynaphthalen-1-yl)piperazin-1-yl]butyl]-4-methyl-1,2,4-triazine-3,5-dione

> <PUBCHEM_IUPAC_TRADITIONAL_NAME>
2-[4-[4-(7-(111C)methoxy-1-naphthyl)piperazino]butyl]-4-methyl-1,2,4-triazine-3,5-quinone

> <PUBCHEM_IUPAC_INCHI>
InChI=1S/C23H29N5O3/c1-25-22(29)17-24-28(23(25)30)11-4-3-10-26-12-14-27(15-13-26)21-7-5-6-18-8-9-19(31-2)16-20(18)21/h5-9,16-17H,3-4,10-15H2,1-2H3/i2-1

> <PUBCHEM_IUPAC_INCHIKEY>
GKTQBPYMIGXPKG-JVVVGQRLSA-N

> <PUBCHEM_XLOGP3_AA>
3

> <PUBCHEM_EXACT_MASS>
422.2384724

> <PUBCHEM_MOLECULAR_FORMULA>
C23H29N5O3

> <PUBCHEM_MOLECULAR_WEIGHT>
422.5

> <PUBCHEM_OPENEYE_CAN_SMILES>
CN1C(=O)C=NN(C1=O)CCCCN2CCN(CC2)C3=CC=CC4=C3C=C(C=C4)OC

> <PUBCHEM_OPENEYE_ISO_SMILES>
CN1C(=O)C=NN(C1=O)CCCCN2CCN(CC2)C3=CC=CC4=C3C=C(C=C4)O[11CH3]

> <PUBCHEM_CACTVS_TPSA>
68.7

> <PUBCHEM_MONOISOTOPIC_WEIGHT>
422.2384724

> <PUBCHEM_TOTAL_CHARGE>
0

> <PUBCHEM_HEAVY_ATOM_COUNT>
31

> <PUBCHEM_ATOM_DEF_STEREO_COUNT>
0

> <PUBCHEM_ATOM_UDEF_STEREO_COUNT>
0

> <PUBCHEM_BOND_DEF_STEREO_COUNT>
0

> <PUBCHEM_BOND_UDEF_STEREO_COUNT>
0

> <PUBCHEM_ISOTOPIC_ATOM_COUNT>
1

> <PUBCHEM_COMPONENT_COUNT>
1

> <PUBCHEM_CACTVS_TAUTO_COUNT>
-1

> <PUBCHEM_COORDINATE_TYPE>
1
5
255

> <PUBCHEM_BONDANNOTATIONS>
15  17  8
15  19  8
17  20  8
17  21  8
19  22  8
20  23  8
20  24  8
21  25  8
22  23  8
24  26  8
25  26  8
28  29  8
6  27  8
6  7  8
7  28  8
8  27  8
8  29  8

$$$$
