71450549
  -OEChem-09292322332D

 45 51  0     1  0  0  0  0  0999 V2000
    4.9947    1.6594    0.0000 O   0  0  0  0  0  0  0  0  0  0  0  0
    5.2236    0.3450    0.0000 N   0  0  3  0  0  0  0  0  0  0  0  0
    3.1124   -0.2453    0.0000 C   0  0  3  0  0  0  0  0  0  0  0  0
    3.1124   -1.1533    0.0000 C   0  0  3  0  0  0  0  0  0  0  0  0
    4.1339   -0.2453    0.0000 C   0  0  3  0  0  0  0  0  0  0  0  0
    4.1226   -1.1647    0.0000 C   0  0  3  0  0  0  0  0  0  0  0  0
    3.6118    1.4289    0.0000 C   0  0  3  0  0  0  0  0  0  0  0  0
    3.6118    0.4073    0.0000 C   0  0  3  0  0  0  0  0  0  0  0  0
    2.7853    0.8284    0.0000 C   0  0  3  0  0  0  0  0  0  0  0  0
    2.7853   -0.1931    0.0000 C   0  0  3  0  0  0  0  0  0  0  0  0
    4.4383    0.8284    0.0000 C   0  0  3  0  0  0  0  0  0  0  0  0
    4.4383   -0.1931    0.0000 C   0  0  3  0  0  0  0  0  0  0  0  0
    2.0000    0.4358    0.0000 C   0  0  0  0  0  0  0  0  0  0  0  0
    6.2233    0.3694    0.0000 C   0  0  0  0  0  0  0  0  0  0  0  0
    6.7443   -0.4842    0.0000 C   0  0  0  0  0  0  0  0  0  0  0  0
    6.2656   -1.3621    0.0000 C   0  0  0  0  0  0  0  0  0  0  0  0
    7.7440   -0.4597    0.0000 C   0  0  0  0  0  0  0  0  0  0  0  0
    6.7866   -2.2157    0.0000 C   0  0  0  0  0  0  0  0  0  0  0  0
    8.2650   -1.3133    0.0000 C   0  0  0  0  0  0  0  0  0  0  0  0
    7.7863   -2.1913    0.0000 C   0  0  0  0  0  0  0  0  0  0  0  0
    2.4991   -0.3366    0.0000 H   0  0  0  0  0  0  0  0  0  0  0  0
    2.7487   -1.6554    0.0000 H   0  0  0  0  0  0  0  0  0  0  0  0
    4.7475   -0.3344    0.0000 H   0  0  0  0  0  0  0  0  0  0  0  0
    4.4842   -1.6683    0.0000 H   0  0  0  0  0  0  0  0  0  0  0  0
    3.6118    2.0489    0.0000 H   0  0  0  0  0  0  0  0  0  0  0  0
    4.1642    0.6888    0.0000 H   0  0  0  0  0  0  0  0  0  0  0  0
    2.4634    1.3583    0.0000 H   0  0  0  0  0  0  0  0  0  0  0  0
    2.2778   -0.5493    0.0000 H   0  0  0  0  0  0  0  0  0  0  0  0
    4.9348   -0.5644    0.0000 H   0  0  0  0  0  0  0  0  0  0  0  0
    1.6460    0.9448    0.0000 H   0  0  0  0  0  0  0  0  0  0  0  0
    1.5470    0.0124    0.0000 H   0  0  0  0  0  0  0  0  0  0  0  0
    6.8006    0.5956    0.0000 H   0  0  0  0  0  0  0  0  0  0  0  0
    6.1008    0.9772    0.0000 H   0  0  0  0  0  0  0  0  0  0  0  0
    4.7210    2.2157    0.0000 H   0  0  0  0  0  0  0  0  0  0  0  0
    7.0411    0.0602    0.0000 H   0  0  0  0  0  0  0  0  0  0  0  0
    5.7811   -0.9753    0.0000 H   0  0  0  0  0  0  0  0  0  0  0  0
    5.8006   -1.7722    0.0000 H   0  0  0  0  0  0  0  0  0  0  0  0
    8.3213   -0.2335    0.0000 H   0  0  0  0  0  0  0  0  0  0  0  0
    7.6215    0.1480    0.0000 H   0  0  0  0  0  0  0  0  0  0  0  0
    6.2094   -2.4419    0.0000 H   0  0  0  0  0  0  0  0  0  0  0  0
    6.9092   -2.8235    0.0000 H   0  0  0  0  0  0  0  0  0  0  0  0
    8.7496   -1.7001    0.0000 H   0  0  0  0  0  0  0  0  0  0  0  0
    8.7301   -0.9033    0.0000 H   0  0  0  0  0  0  0  0  0  0  0  0
    7.6936   -2.8043    0.0000 H   0  0  0  0  0  0  0  0  0  0  0  0
    8.3739   -2.3890    0.0000 H   0  0  0  0  0  0  0  0  0  0  0  0
  1 11  1  0  0  0  0
  1 34  1  0  0  0  0
  2 11  1  0  0  0  0
  2 12  1  0  0  0  0
  2 14  1  0  0  0  0
  3  4  1  0  0  0  0
  3  5  1  0  0  0  0
  3  9  1  0  0  0  0
  3 21  1  0  0  0  0
  4  6  1  0  0  0  0
  4 10  1  0  0  0  0
  4 22  1  0  0  0  0
  5  6  1  0  0  0  0
  5 11  1  0  0  0  0
  5 23  1  0  0  0  0
  6 12  1  0  0  0  0
  6 24  1  0  0  0  0
  7  8  1  0  0  0  0
  7  9  1  0  0  0  0
  7 11  1  0  0  0  0
  7 25  1  0  0  0  0
  8 10  1  0  0  0  0
  8 12  1  0  0  0  0
  8 26  1  0  0  0  0
  9 13  1  0  0  0  0
  9 27  1  0  0  0  0
 10 13  1  0  0  0  0
 10 28  1  0  0  0  0
 12 29  1  0  0  0  0
 13 30  1  0  0  0  0
 13 31  1  0  0  0  0
 14 15  1  0  0  0  0
 14 32  1  0  0  0  0
 14 33  1  0  0  0  0
 15 16  1  0  0  0  0
 15 17  1  0  0  0  0
 15 35  1  0  0  0  0
 16 18  1  0  0  0  0
 16 36  1  0  0  0  0
 16 37  1  0  0  0  0
 17 19  1  0  0  0  0
 17 38  1  0  0  0  0
 17 39  1  0  0  0  0
 18 20  1  0  0  0  0
 18 40  1  0  0  0  0
 18 41  1  0  0  0  0
 19 20  1  0  0  0  0
 19 42  1  0  0  0  0
 19 43  1  0  0  0  0
 20 44  1  0  0  0  0
 20 45  1  0  0  0  0
M  END
> <PUBCHEM_COMPOUND_CID>
71450549

> <PUBCHEM_COMPOUND_CANONICALIZED>
1

> <PUBCHEM_CACTVS_COMPLEXITY>
514

> <PUBCHEM_CACTVS_HBOND_ACCEPTOR>
2

> <PUBCHEM_CACTVS_HBOND_DONOR>
1

> <PUBCHEM_CACTVS_ROTATABLE_BOND>
2

> <PUBCHEM_CACTVS_SUBSKEYS>
AAADceB6IAAAAAAAAAAAAAAAAABgAePGDBAwAAAAAAAAAAAAAAAAHgAACAAADSzBgAQAAAMAAgAAAAAAAAAAAAAAAAAAAAAIAAAAAAIAgAAEQAAEAACAAAGwwPAOgAAAAAAAAACAgAaAADQAAaAADQAAAA==

> <PUBCHEM_IUPAC_OPENEYE_NAME>
5-(cyclohexylmethyl)-5-azahexacyclo[5.4.1.02,6.03,10.04,8.09,12]dodecan-4-ol

> <PUBCHEM_IUPAC_CAS_NAME>
5-(cyclohexylmethyl)-5-azahexacyclo[5.4.1.02,6.03,10.04,8.09,12]dodecan-4-ol

> <PUBCHEM_IUPAC_NAME_MARKUP>
5-(cyclohexylmethyl)-5-azahexacyclo[5.4.1.0<SUP>2,6</SUP>.0<SUP>3,10</SUP>.0<SUP>4,8</SUP>.0<SUP>9,12</SUP>]dodecan-4-ol

> <PUBCHEM_IUPAC_NAME>
5-(cyclohexylmethyl)-5-azahexacyclo[5.4.1.02,6.03,10.04,8.09,12]dodecan-4-ol

> <PUBCHEM_IUPAC_SYSTEMATIC_NAME>
5-(cyclohexylmethyl)-5-azahexacyclo[5.4.1.02,6.03,10.04,8.09,12]dodecan-4-ol

> <PUBCHEM_IUPAC_TRADITIONAL_NAME>
5-(cyclohexylmethyl)-5-azahexacyclo[5.4.1.02,6.03,10.04,8.09,12]dodecan-4-ol

> <PUBCHEM_IUPAC_INCHI>
InChI=1S/C18H25NO/c20-18-15-10-6-9-11-12(10)16(18)14(11)17(13(9)15)19(18)7-8-4-2-1-3-5-8/h8-17,20H,1-7H2

> <PUBCHEM_IUPAC_INCHIKEY>
RRBNCHNWWUXYEM-UHFFFAOYSA-N

> <PUBCHEM_XLOGP3_AA>
3.2

> <PUBCHEM_EXACT_MASS>
271.193614421

> <PUBCHEM_MOLECULAR_FORMULA>
C18H25NO

> <PUBCHEM_MOLECULAR_WEIGHT>
271.4

> <PUBCHEM_OPENEYE_CAN_SMILES>
C1CCC(CC1)CN2C3C4C5CC6C4C2(C7C6C5C73)O

> <PUBCHEM_OPENEYE_ISO_SMILES>
C1CCC(CC1)CN2C3C4C5CC6C4C2(C7C6C5C73)O

> <PUBCHEM_CACTVS_TPSA>
23.5

> <PUBCHEM_MONOISOTOPIC_WEIGHT>
271.193614421

> <PUBCHEM_TOTAL_CHARGE>
0

> <PUBCHEM_HEAVY_ATOM_COUNT>
20

> <PUBCHEM_ATOM_DEF_STEREO_COUNT>
0

> <PUBCHEM_ATOM_UDEF_STEREO_COUNT>
10

> <PUBCHEM_BOND_DEF_STEREO_COUNT>
0

> <PUBCHEM_BOND_UDEF_STEREO_COUNT>
0

> <PUBCHEM_ISOTOPIC_ATOM_COUNT>
0

> <PUBCHEM_COMPONENT_COUNT>
1

> <PUBCHEM_CACTVS_TAUTO_COUNT>
-1

> <PUBCHEM_COORDINATE_TYPE>
1
5
255

> <PUBCHEM_BONDANNOTATIONS>
11  1  3
10  13  3
12  2  3
5  3  3
3  9  3
4  10  3
6  4  3
7  9  3
8  10  3
9  13  3

$$$$
