14925759
  -OEChem-09292322402D

 53 56  0     0  0  0  0  0  0999 V2000
    6.3981    1.9827    0.0000 O   0  0  0  0  0  0  0  0  0  0  0  0
    6.3981   -1.0173    0.0000 N   0  0  0  0  0  0  0  0  0  0  0  0
    8.1301   -2.0173    0.0000 N   0  0  0  0  0  0  0  0  0  0  0  0
    4.6660    1.9827    0.0000 N   0  0  0  0  0  0  0  0  0  0  0  0
    6.3981   -2.0173    0.0000 C   0  0  0  0  0  0  0  0  0  0  0  0
    7.2641   -0.5173    0.0000 C   0  0  0  0  0  0  0  0  0  0  0  0
    5.5321   -0.5173    0.0000 C   0  0  0  0  0  0  0  0  0  0  0  0
    7.2641   -2.5173    0.0000 C   0  0  0  0  0  0  0  0  0  0  0  0
    8.1301   -1.0173    0.0000 C   0  0  0  0  0  0  0  0  0  0  0  0
    5.5321    0.4827    0.0000 C   0  0  0  0  0  0  0  0  0  0  0  0
    4.6660    0.9827    0.0000 C   0  0  0  0  0  0  0  0  0  0  0  0
    8.9962   -2.5173    0.0000 C   0  0  0  0  0  0  0  0  0  0  0  0
    3.8000    2.4827    0.0000 C   0  0  0  0  0  0  0  0  0  0  0  0
    4.6660    3.9827    0.0000 C   0  0  0  0  0  0  0  0  0  0  0  0
    3.8000    3.4827    0.0000 C   0  0  0  0  0  0  0  0  0  0  0  0
    5.5321    3.4827    0.0000 C   0  0  0  0  0  0  0  0  0  0  0  0
    5.5321    2.4827    0.0000 C   0  0  0  0  0  0  0  0  0  0  0  0
    2.9061    1.9480    0.0000 C   0  0  0  0  0  0  0  0  0  0  0  0
    8.9962   -3.5173    0.0000 C   0  0  0  0  0  0  0  0  0  0  0  0
    9.8622   -2.0173    0.0000 C   0  0  0  0  0  0  0  0  0  0  0  0
    2.9061    4.0173    0.0000 C   0  0  0  0  0  0  0  0  0  0  0  0
    2.0000    2.4618    0.0000 C   0  0  0  0  0  0  0  0  0  0  0  0
    2.0000    3.5035    0.0000 C   0  0  0  0  0  0  0  0  0  0  0  0
    9.8622   -4.0173    0.0000 C   0  0  0  0  0  0  0  0  0  0  0  0
   10.7282   -2.5173    0.0000 C   0  0  0  0  0  0  0  0  0  0  0  0
   10.7282   -3.5173    0.0000 C   0  0  0  0  0  0  0  0  0  0  0  0
    5.7875   -1.9097    0.0000 H   0  0  0  0  0  0  0  0  0  0  0  0
    6.1860   -2.5999    0.0000 H   0  0  0  0  0  0  0  0  0  0  0  0
    7.6626   -0.0424    0.0000 H   0  0  0  0  0  0  0  0  0  0  0  0
    6.8656   -0.0424    0.0000 H   0  0  0  0  0  0  0  0  0  0  0  0
    4.9215   -0.4097    0.0000 H   0  0  0  0  0  0  0  0  0  0  0  0
    5.3200   -1.0999    0.0000 H   0  0  0  0  0  0  0  0  0  0  0  0
    6.8656   -2.9923    0.0000 H   0  0  0  0  0  0  0  0  0  0  0  0
    7.6626   -2.9923    0.0000 H   0  0  0  0  0  0  0  0  0  0  0  0
    8.7407   -1.1250    0.0000 H   0  0  0  0  0  0  0  0  0  0  0  0
    8.3422   -0.4347    0.0000 H   0  0  0  0  0  0  0  0  0  0  0  0
    6.1426    0.3750    0.0000 H   0  0  0  0  0  0  0  0  0  0  0  0
    5.7441    1.0653    0.0000 H   0  0  0  0  0  0  0  0  0  0  0  0
    4.0555    1.0903    0.0000 H   0  0  0  0  0  0  0  0  0  0  0  0
    4.4540    0.4001    0.0000 H   0  0  0  0  0  0  0  0  0  0  0  0
    5.0646    4.4576    0.0000 H   0  0  0  0  0  0  0  0  0  0  0  0
    4.2675    4.4576    0.0000 H   0  0  0  0  0  0  0  0  0  0  0  0
    6.1426    3.3750    0.0000 H   0  0  0  0  0  0  0  0  0  0  0  0
    5.7441    4.0653    0.0000 H   0  0  0  0  0  0  0  0  0  0  0  0
    2.9132    1.3280    0.0000 H   0  0  0  0  0  0  0  0  0  0  0  0
    8.4592   -3.8273    0.0000 H   0  0  0  0  0  0  0  0  0  0  0  0
    9.8622   -1.3973    0.0000 H   0  0  0  0  0  0  0  0  0  0  0  0
    2.9132    4.6373    0.0000 H   0  0  0  0  0  0  0  0  0  0  0  0
    1.4643    2.1498    0.0000 H   0  0  0  0  0  0  0  0  0  0  0  0
    1.4643    3.8156    0.0000 H   0  0  0  0  0  0  0  0  0  0  0  0
    9.8622   -4.6373    0.0000 H   0  0  0  0  0  0  0  0  0  0  0  0
   11.2651   -2.2073    0.0000 H   0  0  0  0  0  0  0  0  0  0  0  0
   11.2651   -3.8273    0.0000 H   0  0  0  0  0  0  0  0  0  0  0  0
  1 17  2  0  0  0  0
  2  5  1  0  0  0  0
  2  6  1  0  0  0  0
  2  7  1  0  0  0  0
  3  8  1  0  0  0  0
  3  9  1  0  0  0  0
  3 12  1  0  0  0  0
  4 11  1  0  0  0  0
  4 13  1  0  0  0  0
  4 17  1  0  0  0  0
  5  8  1  0  0  0  0
  5 27  1  0  0  0  0
  5 28  1  0  0  0  0
  6  9  1  0  0  0  0
  6 29  1  0  0  0  0
  6 30  1  0  0  0  0
  7 10  1  0  0  0  0
  7 31  1  0  0  0  0
  7 32  1  0  0  0  0
  8 33  1  0  0  0  0
  8 34  1  0  0  0  0
  9 35  1  0  0  0  0
  9 36  1  0  0  0  0
 10 11  1  0  0  0  0
 10 37  1  0  0  0  0
 10 38  1  0  0  0  0
 11 39  1  0  0  0  0
 11 40  1  0  0  0  0
 12 19  2  0  0  0  0
 12 20  1  0  0  0  0
 13 15  1  0  0  0  0
 13 18  2  0  0  0  0
 14 15  1  0  0  0  0
 14 16  1  0  0  0  0
 14 41  1  0  0  0  0
 14 42  1  0  0  0  0
 15 21  2  0  0  0  0
 16 17  1  0  0  0  0
 16 43  1  0  0  0  0
 16 44  1  0  0  0  0
 18 22  1  0  0  0  0
 18 45  1  0  0  0  0
 19 24  1  0  0  0  0
 19 46  1  0  0  0  0
 20 25  2  0  0  0  0
 20 47  1  0  0  0  0
 21 23  1  0  0  0  0
 21 48  1  0  0  0  0
 22 23  2  0  0  0  0
 22 49  1  0  0  0  0
 23 50  1  0  0  0  0
 24 26  2  0  0  0  0
 24 51  1  0  0  0  0
 25 26  1  0  0  0  0
 25 52  1  0  0  0  0
 26 53  1  0  0  0  0
M  END
> <PUBCHEM_COMPOUND_CID>
14925759

> <PUBCHEM_COMPOUND_CANONICALIZED>
1

> <PUBCHEM_CACTVS_COMPLEXITY>
454

> <PUBCHEM_CACTVS_HBOND_ACCEPTOR>
3

> <PUBCHEM_CACTVS_HBOND_DONOR>
0

> <PUBCHEM_CACTVS_ROTATABLE_BOND>
5

> <PUBCHEM_CACTVS_SUBSKEYS>
AAADceB7IAAAAAAAAAAAAAAAAAAAAAAAAAA8eIEAAAAAAACxQAAAHgAAAAAADAjBmAQwwIMAAACIAiVSUACCAAAhAgAIiAEIZIgIYDLA0ZGUIAhghgDIyAcYiYCeAAAAAAACAAAAAAAAAAQAAAAAAAAAAA==

> <PUBCHEM_IUPAC_OPENEYE_NAME>
1-[3-(4-phenylpiperazin-1-yl)propyl]-3,4-dihydroquinolin-2-one

> <PUBCHEM_IUPAC_CAS_NAME>
1-[3-(4-phenyl-1-piperazinyl)propyl]-3,4-dihydroquinolin-2-one

> <PUBCHEM_IUPAC_NAME_MARKUP>
1-[3-(4-phenylpiperazin-1-yl)propyl]-3,4-dihydroquinolin-2-one

> <PUBCHEM_IUPAC_NAME>
1-[3-(4-phenylpiperazin-1-yl)propyl]-3,4-dihydroquinolin-2-one

> <PUBCHEM_IUPAC_SYSTEMATIC_NAME>
1-[3-(4-phenylpiperazin-1-yl)propyl]-3,4-dihydroquinolin-2-one

> <PUBCHEM_IUPAC_TRADITIONAL_NAME>
1-[3-(4-phenylpiperazino)propyl]-3,4-dihydrocarbostyril

> <PUBCHEM_IUPAC_INCHI>
InChI=1S/C22H27N3O/c26-22-12-11-19-7-4-5-10-21(19)25(22)14-6-13-23-15-17-24(18-16-23)20-8-2-1-3-9-20/h1-5,7-10H,6,11-18H2

> <PUBCHEM_IUPAC_INCHIKEY>
ABOBMBIQQPJTMJ-UHFFFAOYSA-N

> <PUBCHEM_XLOGP3_AA>
3.2

> <PUBCHEM_EXACT_MASS>
349.215412493

> <PUBCHEM_MOLECULAR_FORMULA>
C22H27N3O

> <PUBCHEM_MOLECULAR_WEIGHT>
349.5

> <PUBCHEM_OPENEYE_CAN_SMILES>
C1CC(=O)N(C2=CC=CC=C21)CCCN3CCN(CC3)C4=CC=CC=C4

> <PUBCHEM_OPENEYE_ISO_SMILES>
C1CC(=O)N(C2=CC=CC=C21)CCCN3CCN(CC3)C4=CC=CC=C4

> <PUBCHEM_CACTVS_TPSA>
26.8

> <PUBCHEM_MONOISOTOPIC_WEIGHT>
349.215412493

> <PUBCHEM_TOTAL_CHARGE>
0

> <PUBCHEM_HEAVY_ATOM_COUNT>
26

> <PUBCHEM_ATOM_DEF_STEREO_COUNT>
0

> <PUBCHEM_ATOM_UDEF_STEREO_COUNT>
0

> <PUBCHEM_BOND_DEF_STEREO_COUNT>
0

> <PUBCHEM_BOND_UDEF_STEREO_COUNT>
0

> <PUBCHEM_ISOTOPIC_ATOM_COUNT>
0

> <PUBCHEM_COMPONENT_COUNT>
1

> <PUBCHEM_CACTVS_TAUTO_COUNT>
-1

> <PUBCHEM_COORDINATE_TYPE>
1
5
255

> <PUBCHEM_BONDANNOTATIONS>
12  19  8
12  20  8
13  15  8
13  18  8
15  21  8
18  22  8
19  24  8
20  25  8
21  23  8
22  23  8
24  26  8
25  26  8

$$$$
