25069125
  -OEChem-09292322302D

 59 63  0     0  0  0  0  0  0999 V2000
    2.0000    0.0395    0.0000 O   0  0  0  0  0  0  0  0  0  0  0  0
   11.3973    1.3724    0.0000 O   0  0  0  0  0  0  0  0  0  0  0  0
   15.2522    2.1276    0.0000 O   0  0  0  0  0  0  0  0  0  0  0  0
    7.0671    0.8724    0.0000 N   0  0  0  0  0  0  0  0  0  0  0  0
    5.3351   -0.1276    0.0000 N   0  0  0  0  0  0  0  0  0  0  0  0
   15.5252    0.3724    0.0000 N   0  0  0  0  0  0  0  0  0  0  0  0
    7.0671   -0.1276    0.0000 C   0  0  0  0  0  0  0  0  0  0  0  0
    6.2011    1.3724    0.0000 C   0  0  0  0  0  0  0  0  0  0  0  0
    6.2011   -0.6276    0.0000 C   0  0  0  0  0  0  0  0  0  0  0  0
    5.3351    0.8724    0.0000 C   0  0  0  0  0  0  0  0  0  0  0  0
    7.9332    1.3724    0.0000 C   0  0  0  0  0  0  0  0  0  0  0  0
    4.4691   -0.6276    0.0000 C   0  0  0  0  0  0  0  0  0  0  0  0
    8.7992    0.8724    0.0000 C   0  0  0  0  0  0  0  0  0  0  0  0
    3.6030   -0.1276    0.0000 C   0  0  0  0  0  0  0  0  0  0  0  0
    3.3938    0.8442    0.0000 C   0  0  0  0  0  0  0  0  0  0  0  0
    9.6652    1.3724    0.0000 C   0  0  0  0  0  0  0  0  0  0  0  0
    2.7370   -0.6276    0.0000 C   0  0  0  0  0  0  0  0  0  0  0  0
    4.4691   -1.6276    0.0000 C   0  0  0  0  0  0  0  0  0  0  0  0
    2.4051    0.9472    0.0000 C   0  0  0  0  0  0  0  0  0  0  0  0
    2.7370   -1.6276    0.0000 C   0  0  0  0  0  0  0  0  0  0  0  0
   10.5312    0.8724    0.0000 C   0  0  0  0  0  0  0  0  0  0  0  0
    3.6030   -2.1276    0.0000 C   0  0  0  0  0  0  0  0  0  0  0  0
   12.2633    0.8724    0.0000 C   0  0  0  0  0  0  0  0  0  0  0  0
   13.9953   -0.1276    0.0000 C   0  0  0  0  0  0  0  0  0  0  0  0
   13.9953    0.8724    0.0000 C   0  0  0  0  0  0  0  0  0  0  0  0
   14.9416   -0.4324    0.0000 C   0  0  0  0  0  0  0  0  0  0  0  0
   13.1293    1.3724    0.0000 C   0  0  0  0  0  0  0  0  0  0  0  0
   12.2633   -0.1276    0.0000 C   0  0  0  0  0  0  0  0  0  0  0  0
   13.1293   -0.6276    0.0000 C   0  0  0  0  0  0  0  0  0  0  0  0
   14.9416    1.1771    0.0000 C   0  0  0  0  0  0  0  0  0  0  0  0
    7.2792   -0.7102    0.0000 H   0  0  0  0  0  0  0  0  0  0  0  0
    7.6777   -0.0200    0.0000 H   0  0  0  0  0  0  0  0  0  0  0  0
    6.5996    1.8473    0.0000 H   0  0  0  0  0  0  0  0  0  0  0  0
    5.8026    1.8473    0.0000 H   0  0  0  0  0  0  0  0  0  0  0  0
    5.8026   -1.1026    0.0000 H   0  0  0  0  0  0  0  0  0  0  0  0
    6.5996   -1.1026    0.0000 H   0  0  0  0  0  0  0  0  0  0  0  0
    5.1230    1.4550    0.0000 H   0  0  0  0  0  0  0  0  0  0  0  0
    4.7245    0.7647    0.0000 H   0  0  0  0  0  0  0  0  0  0  0  0
    8.3317    1.8473    0.0000 H   0  0  0  0  0  0  0  0  0  0  0  0
    7.5346    1.8473    0.0000 H   0  0  0  0  0  0  0  0  0  0  0  0
    8.4007    0.3974    0.0000 H   0  0  0  0  0  0  0  0  0  0  0  0
    9.1977    0.3974    0.0000 H   0  0  0  0  0  0  0  0  0  0  0  0
    4.0103    0.9102    0.0000 H   0  0  0  0  0  0  0  0  0  0  0  0
    3.3929    1.4642    0.0000 H   0  0  0  0  0  0  0  0  0  0  0  0
   10.0637    1.8473    0.0000 H   0  0  0  0  0  0  0  0  0  0  0  0
    9.2667    1.8473    0.0000 H   0  0  0  0  0  0  0  0  0  0  0  0
    5.0060   -1.9376    0.0000 H   0  0  0  0  0  0  0  0  0  0  0  0
    2.5338    1.5537    0.0000 H   0  0  0  0  0  0  0  0  0  0  0  0
    1.8155    1.1390    0.0000 H   0  0  0  0  0  0  0  0  0  0  0  0
    2.2001   -1.9376    0.0000 H   0  0  0  0  0  0  0  0  0  0  0  0
   10.1327    0.3974    0.0000 H   0  0  0  0  0  0  0  0  0  0  0  0
   10.9298    0.3974    0.0000 H   0  0  0  0  0  0  0  0  0  0  0  0
    3.6030   -2.7476    0.0000 H   0  0  0  0  0  0  0  0  0  0  0  0
   14.6905   -0.9993    0.0000 H   0  0  0  0  0  0  0  0  0  0  0  0
   15.4789   -0.7416    0.0000 H   0  0  0  0  0  0  0  0  0  0  0  0
   13.1293    1.9924    0.0000 H   0  0  0  0  0  0  0  0  0  0  0  0
   11.7264   -0.4376    0.0000 H   0  0  0  0  0  0  0  0  0  0  0  0
   13.1293   -1.2476    0.0000 H   0  0  0  0  0  0  0  0  0  0  0  0
   16.1452    0.3724    0.0000 H   0  0  0  0  0  0  0  0  0  0  0  0
  1 17  1  0  0  0  0
  1 19  1  0  0  0  0
  2 21  1  0  0  0  0
  2 23  1  0  0  0  0
  3 30  2  0  0  0  0
  4  7  1  0  0  0  0
  4  8  1  0  0  0  0
  4 11  1  0  0  0  0
  5  9  1  0  0  0  0
  5 10  1  0  0  0  0
  5 12  1  0  0  0  0
  6 26  1  0  0  0  0
  6 30  1  0  0  0  0
  6 59  1  0  0  0  0
  7  9  1  0  0  0  0
  7 31  1  0  0  0  0
  7 32  1  0  0  0  0
  8 10  1  0  0  0  0
  8 33  1  0  0  0  0
  8 34  1  0  0  0  0
  9 35  1  0  0  0  0
  9 36  1  0  0  0  0
 10 37  1  0  0  0  0
 10 38  1  0  0  0  0
 11 13  1  0  0  0  0
 11 39  1  0  0  0  0
 11 40  1  0  0  0  0
 12 14  2  0  0  0  0
 12 18  1  0  0  0  0
 13 16  1  0  0  0  0
 13 41  1  0  0  0  0
 13 42  1  0  0  0  0
 14 15  1  0  0  0  0
 14 17  1  0  0  0  0
 15 19  1  0  0  0  0
 15 43  1  0  0  0  0
 15 44  1  0  0  0  0
 16 21  1  0  0  0  0
 16 45  1  0  0  0  0
 16 46  1  0  0  0  0
 17 20  2  0  0  0  0
 18 22  2  0  0  0  0
 18 47  1  0  0  0  0
 19 48  1  0  0  0  0
 19 49  1  0  0  0  0
 20 22  1  0  0  0  0
 20 50  1  0  0  0  0
 21 51  1  0  0  0  0
 21 52  1  0  0  0  0
 22 53  1  0  0  0  0
 23 27  2  0  0  0  0
 23 28  1  0  0  0  0
 24 25  2  0  0  0  0
 24 26  1  0  0  0  0
 24 29  1  0  0  0  0
 25 27  1  0  0  0  0
 25 30  1  0  0  0  0
 26 54  1  0  0  0  0
 26 55  1  0  0  0  0
 27 56  1  0  0  0  0
 28 29  2  0  0  0  0
 28 57  1  0  0  0  0
 29 58  1  0  0  0  0
M  END
> <PUBCHEM_COMPOUND_CID>
25069125

> <PUBCHEM_COMPOUND_CANONICALIZED>
1

> <PUBCHEM_CACTVS_COMPLEXITY>
580

> <PUBCHEM_CACTVS_HBOND_ACCEPTOR>
5

> <PUBCHEM_CACTVS_HBOND_DONOR>
1

> <PUBCHEM_CACTVS_ROTATABLE_BOND>
7

> <PUBCHEM_CACTVS_SUBSKEYS>
AAADceB7MAAAAAAAAAAAAAAAAAAAAWJAAAA8YIAAAAAAAFgBQAAAHgAQAAAADAzhmAYwxoPABACIAiVSUACCCAAlIgAIiIEObMgMZjLEtZuWOSjmxhnI6Ye+2LOOoAABAgAaAABAAAIEADQAAAAAAAAAAA==

> <PUBCHEM_IUPAC_OPENEYE_NAME>
6-[4-[4-(2,3-dihydrobenzofuran-4-yl)piperazin-1-yl]butoxy]isoindolin-1-one

> <PUBCHEM_IUPAC_CAS_NAME>
6-[4-[4-(2,3-dihydrobenzofuran-4-yl)-1-piperazinyl]butoxy]-2,3-dihydroisoindol-1-one

> <PUBCHEM_IUPAC_NAME_MARKUP>
6-[4-[4-(2,3-dihydro-1-benzofuran-4-yl)piperazin-1-yl]butoxy]-2,3-dihydroisoindol-1-one

> <PUBCHEM_IUPAC_NAME>
6-[4-[4-(2,3-dihydro-1-benzofuran-4-yl)piperazin-1-yl]butoxy]-2,3-dihydroisoindol-1-one

> <PUBCHEM_IUPAC_SYSTEMATIC_NAME>
6-[4-[4-(2,3-dihydro-1-benzofuran-4-yl)piperazin-1-yl]butoxy]-2,3-dihydroisoindol-1-one

> <PUBCHEM_IUPAC_TRADITIONAL_NAME>
6-[4-(4-coumaran-4-ylpiperazino)butoxy]isoindolin-1-one

> <PUBCHEM_IUPAC_INCHI>
InChI=1S/C24H29N3O3/c28-24-21-16-19(7-6-18(21)17-25-24)29-14-2-1-9-26-10-12-27(13-11-26)22-4-3-5-23-20(22)8-15-30-23/h3-7,16H,1-2,8-15,17H2,(H,25,28)

> <PUBCHEM_IUPAC_INCHIKEY>
XPWBSOPMONLBNW-UHFFFAOYSA-N

> <PUBCHEM_XLOGP3_AA>
3.1

> <PUBCHEM_EXACT_MASS>
407.22089180

> <PUBCHEM_MOLECULAR_FORMULA>
C24H29N3O3

> <PUBCHEM_MOLECULAR_WEIGHT>
407.5

> <PUBCHEM_OPENEYE_CAN_SMILES>
C1COC2=CC=CC(=C21)N3CCN(CC3)CCCCOC4=CC5=C(CNC5=O)C=C4

> <PUBCHEM_OPENEYE_ISO_SMILES>
C1COC2=CC=CC(=C21)N3CCN(CC3)CCCCOC4=CC5=C(CNC5=O)C=C4

> <PUBCHEM_CACTVS_TPSA>
54

> <PUBCHEM_MONOISOTOPIC_WEIGHT>
407.22089180

> <PUBCHEM_TOTAL_CHARGE>
0

> <PUBCHEM_HEAVY_ATOM_COUNT>
30

> <PUBCHEM_ATOM_DEF_STEREO_COUNT>
0

> <PUBCHEM_ATOM_UDEF_STEREO_COUNT>
0

> <PUBCHEM_BOND_DEF_STEREO_COUNT>
0

> <PUBCHEM_BOND_UDEF_STEREO_COUNT>
0

> <PUBCHEM_ISOTOPIC_ATOM_COUNT>
0

> <PUBCHEM_COMPONENT_COUNT>
1

> <PUBCHEM_CACTVS_TAUTO_COUNT>
-1

> <PUBCHEM_COORDINATE_TYPE>
1
5
255

> <PUBCHEM_BONDANNOTATIONS>
12  14  8
12  18  8
14  17  8
17  20  8
18  22  8
20  22  8
23  27  8
23  28  8
24  25  8
24  29  8
25  27  8
28  29  8

$$$$
