23630796
  -OEChem-09292322492D

 70 75  0     1  0  0  0  0  0999 V2000
    9.0604   -0.6464    0.0000 S   0  0  0  0  0  0  0  0  0  0  0  0
   17.8302    1.7066    0.0000 O   0  0  0  0  0  0  0  0  0  0  0  0
   12.0604    1.0857    0.0000 N   0  0  3  0  0  0  0  0  0  0  0  0
    7.4726   -1.4554    0.0000 N   0  0  0  0  0  0  0  0  0  0  0  0
   17.0158    3.1048    0.0000 N   0  0  0  0  0  0  0  0  0  0  0  0
    7.4726    0.1627    0.0000 N   0  0  0  0  0  0  0  0  0  0  0  0
    6.5215   -0.1464    0.0000 N   0  0  0  0  0  0  0  0  0  0  0  0
    3.0320   -1.5062    0.0000 N   0  0  0  0  0  0  0  0  0  0  0  0
   12.4943    1.9867    0.0000 C   0  0  0  0  0  0  0  0  0  0  0  0
   12.4943    0.1847    0.0000 C   0  0  0  0  0  0  0  0  0  0  0  0
   13.4692    2.2092    0.0000 C   0  0  0  0  0  0  0  0  0  0  0  0
   13.4692   -0.0378    0.0000 C   0  0  0  0  0  0  0  0  0  0  0  0
   14.2510    1.5857    0.0000 C   0  0  0  0  0  0  0  0  0  0  0  0
   14.2510    0.5857    0.0000 C   0  0  0  0  0  0  0  0  0  0  0  0
   11.0604    1.0857    0.0000 C   0  0  0  0  0  0  0  0  0  0  0  0
   10.5604    0.2197    0.0000 C   0  0  0  0  0  0  0  0  0  0  0  0
   15.1450    2.1204    0.0000 C   0  0  0  0  0  0  0  0  0  0  0  0
   15.1450    0.0510    0.0000 C   0  0  0  0  0  0  0  0  0  0  0  0
   16.0510    1.6065    0.0000 C   0  0  0  0  0  0  0  0  0  0  0  0
    9.5604    0.2197    0.0000 C   0  0  0  0  0  0  0  0  0  0  0  0
   16.0510    0.5649    0.0000 C   0  0  0  0  0  0  0  0  0  0  0  0
   16.9151    2.1098    0.0000 C   0  0  0  0  0  0  0  0  0  0  0  0
    8.0604   -0.6464    0.0000 C   0  0  0  0  0  0  0  0  0  0  0  0
    6.5215   -1.1464    0.0000 C   0  0  0  0  0  0  0  0  0  0  0  0
    5.7125   -1.7341    0.0000 C   0  0  0  0  0  0  0  0  0  0  0  0
   18.4965    2.4524    0.0000 C   0  0  0  0  0  0  0  0  0  0  0  0
    4.7990   -1.3274    0.0000 C   0  0  0  0  0  0  0  0  0  0  0  0
   17.9932    3.3164    0.0000 C   0  0  0  0  0  0  0  0  0  0  0  0
    7.7816   -2.4064    0.0000 C   0  0  0  0  0  0  0  0  0  0  0  0
    3.9900   -1.9152    0.0000 C   0  0  0  0  0  0  0  0  0  0  0  0
    5.8171   -2.7287    0.0000 C   0  0  0  0  0  0  0  0  0  0  0  0
    4.7061   -0.2899    0.0000 C   0  0  0  0  0  0  0  0  0  0  0  0
   19.4914    2.3517    0.0000 C   0  0  0  0  0  0  0  0  0  0  0  0
    4.0945   -2.9097    0.0000 C   0  0  0  0  0  0  0  0  0  0  0  0
    5.0080   -3.3164    0.0000 C   0  0  0  0  0  0  0  0  0  0  0  0
    3.7578    0.1411    0.0000 C   0  0  0  0  0  0  0  0  0  0  0  0
    2.9151   -0.4712    0.0000 C   0  0  0  0  0  0  0  0  0  0  0  0
    2.0000   -0.0680    0.0000 C   0  0  0  0  0  0  0  0  0  0  0  0
   12.4943    2.6067    0.0000 H   0  0  0  0  0  0  0  0  0  0  0  0
   11.8898    2.1246    0.0000 H   0  0  0  0  0  0  0  0  0  0  0  0
   11.8898    0.0468    0.0000 H   0  0  0  0  0  0  0  0  0  0  0  0
   12.4943   -0.4353    0.0000 H   0  0  0  0  0  0  0  0  0  0  0  0
   13.9539    2.5957    0.0000 H   0  0  0  0  0  0  0  0  0  0  0  0
   13.2002    2.7678    0.0000 H   0  0  0  0  0  0  0  0  0  0  0  0
   13.2002   -0.5964    0.0000 H   0  0  0  0  0  0  0  0  0  0  0  0
   13.9539   -0.4244    0.0000 H   0  0  0  0  0  0  0  0  0  0  0  0
   11.1680    1.6963    0.0000 H   0  0  0  0  0  0  0  0  0  0  0  0
   10.4778    1.2978    0.0000 H   0  0  0  0  0  0  0  0  0  0  0  0
   10.4527   -0.3909    0.0000 H   0  0  0  0  0  0  0  0  0  0  0  0
   11.1430    0.0076    0.0000 H   0  0  0  0  0  0  0  0  0  0  0  0
   15.1378    2.7403    0.0000 H   0  0  0  0  0  0  0  0  0  0  0  0
   15.1378   -0.5689    0.0000 H   0  0  0  0  0  0  0  0  0  0  0  0
    9.6680    0.8303    0.0000 H   0  0  0  0  0  0  0  0  0  0  0  0
    8.9778    0.4317    0.0000 H   0  0  0  0  0  0  0  0  0  0  0  0
   16.5868    0.2528    0.0000 H   0  0  0  0  0  0  0  0  0  0  0  0
   18.2432    3.8838    0.0000 H   0  0  0  0  0  0  0  0  0  0  0  0
    7.1920   -2.5980    0.0000 H   0  0  0  0  0  0  0  0  0  0  0  0
    7.9732   -2.9961    0.0000 H   0  0  0  0  0  0  0  0  0  0  0  0
    8.3713   -2.2148    0.0000 H   0  0  0  0  0  0  0  0  0  0  0  0
    6.3834   -2.9808    0.0000 H   0  0  0  0  0  0  0  0  0  0  0  0
    5.2119    0.0687    0.0000 H   0  0  0  0  0  0  0  0  0  0  0  0
    3.5929   -3.2741    0.0000 H   0  0  0  0  0  0  0  0  0  0  0  0
    5.0728   -3.9330    0.0000 H   0  0  0  0  0  0  0  0  0  0  0  0
   19.4290    1.7348    0.0000 H   0  0  0  0  0  0  0  0  0  0  0  0
   20.1083    2.2892    0.0000 H   0  0  0  0  0  0  0  0  0  0  0  0
   19.5538    2.9685    0.0000 H   0  0  0  0  0  0  0  0  0  0  0  0
    3.6954    0.7579    0.0000 H   0  0  0  0  0  0  0  0  0  0  0  0
    2.2500    0.4994    0.0000 H   0  0  0  0  0  0  0  0  0  0  0  0
    1.4326    0.1820    0.0000 H   0  0  0  0  0  0  0  0  0  0  0  0
    1.7500   -0.6353    0.0000 H   0  0  0  0  0  0  0  0  0  0  0  0
  1 20  1  0  0  0  0
  1 23  1  0  0  0  0
  2 22  1  0  0  0  0
  2 26  1  0  0  0  0
  3  9  1  0  0  0  0
  3 10  1  0  0  0  0
  3 15  1  0  0  0  0
  4 23  1  0  0  0  0
  4 24  1  0  0  0  0
  4 29  1  0  0  0  0
  5 22  2  0  0  0  0
  5 28  1  0  0  0  0
  6  7  1  0  0  0  0
  6 23  2  0  0  0  0
  7 24  2  0  0  0  0
  8 30  1  0  0  0  0
  8 37  2  0  0  0  0
  9 11  1  0  0  0  0
  9 39  1  0  0  0  0
  9 40  1  0  0  0  0
 10 12  1  0  0  0  0
 10 41  1  0  0  0  0
 10 42  1  0  0  0  0
 11 13  1  0  0  0  0
 11 43  1  0  0  0  0
 11 44  1  0  0  0  0
 12 14  1  0  0  0  0
 12 45  1  0  0  0  0
 12 46  1  0  0  0  0
 13 14  2  0  0  0  0
 13 17  1  0  0  0  0
 14 18  1  0  0  0  0
 15 16  1  0  0  0  0
 15 47  1  0  0  0  0
 15 48  1  0  0  0  0
 16 20  1  0  0  0  0
 16 49  1  0  0  0  0
 16 50  1  0  0  0  0
 17 19  2  0  0  0  0
 17 51  1  0  0  0  0
 18 21  2  0  0  0  0
 18 52  1  0  0  0  0
 19 21  1  0  0  0  0
 19 22  1  0  0  0  0
 20 53  1  0  0  0  0
 20 54  1  0  0  0  0
 21 55  1  0  0  0  0
 24 25  1  0  0  0  0
 25 27  2  0  0  0  0
 25 31  1  0  0  0  0
 26 28  2  0  0  0  0
 26 33  1  0  0  0  0
 27 30  1  0  0  0  0
 27 32  1  0  0  0  0
 28 56  1  0  0  0  0
 29 57  1  0  0  0  0
 29 58  1  0  0  0  0
 29 59  1  0  0  0  0
 30 34  2  0  0  0  0
 31 35  2  0  0  0  0
 31 60  1  0  0  0  0
 32 36  2  0  0  0  0
 32 61  1  0  0  0  0
 33 64  1  0  0  0  0
 33 65  1  0  0  0  0
 33 66  1  0  0  0  0
 34 35  1  0  0  0  0
 34 62  1  0  0  0  0
 35 63  1  0  0  0  0
 36 37  1  0  0  0  0
 36 67  1  0  0  0  0
 37 38  1  0  0  0  0
 38 68  1  0  0  0  0
 38 69  1  0  0  0  0
 38 70  1  0  0  0  0
M  END
> <PUBCHEM_COMPOUND_CID>
23630796

> <PUBCHEM_COMPOUND_CANONICALIZED>
1

> <PUBCHEM_CACTVS_COMPLEXITY>
760

> <PUBCHEM_CACTVS_HBOND_ACCEPTOR>
7

> <PUBCHEM_CACTVS_HBOND_DONOR>
0

> <PUBCHEM_CACTVS_ROTATABLE_BOND>
7

> <PUBCHEM_CACTVS_SUBSKEYS>
AAADcfB7oABAAAAAAAAAAAAAAAAAAWLAAAA8YIAABYAAAACx/gAAHgQIAAAADAzF3wS/1PcMFEiqA7d3dASS2Ct/QrAd2CG7bNiOLvLgvbmPOQjkzgPY6YeYyPCOwAACQAASAACAAASAACQAAAAAAAAAAA==

> <PUBCHEM_IUPAC_OPENEYE_NAME>
5-methyl-2-[3-[3-[[4-methyl-5-(2-methyl-5-quinolyl)-1,2,4-triazol-3-yl]sulfanyl]propyl]-1,2,4,5-tetrahydro-3-benzazepin-7-yl]oxazole

> <PUBCHEM_IUPAC_CAS_NAME>
5-methyl-2-[3-[3-[[4-methyl-5-(2-methyl-5-quinolinyl)-1,2,4-triazol-3-yl]thio]propyl]-1,2,4,5-tetrahydro-3-benzazepin-7-yl]oxazole

> <PUBCHEM_IUPAC_NAME_MARKUP>
5-methyl-2-[3-[3-[[4-methyl-5-(2-methylquinolin-5-yl)-1,2,4-triazol-3-yl]sulfanyl]propyl]-1,2,4,5-tetrahydro-3-benzazepin-7-yl]-1,3-oxazole

> <PUBCHEM_IUPAC_NAME>
5-methyl-2-[3-[3-[[4-methyl-5-(2-methylquinolin-5-yl)-1,2,4-triazol-3-yl]sulfanyl]propyl]-1,2,4,5-tetrahydro-3-benzazepin-7-yl]-1,3-oxazole

> <PUBCHEM_IUPAC_SYSTEMATIC_NAME>
5-methyl-2-[3-[3-[[4-methyl-5-(2-methylquinolin-5-yl)-1,2,4-triazol-3-yl]sulfanyl]propyl]-1,2,4,5-tetrahydro-3-benzazepin-7-yl]-1,3-oxazole

> <PUBCHEM_IUPAC_TRADITIONAL_NAME>
5-methyl-2-[3-[3-[[4-methyl-5-(2-methyl-5-quinolyl)-1,2,4-triazol-3-yl]thio]propyl]-1,2,4,5-tetrahydro-3-benzazepin-7-yl]oxazole

> <PUBCHEM_IUPAC_INCHI>
InChI=1S/C30H32N6OS/c1-20-8-11-25-26(6-4-7-27(25)32-20)28-33-34-30(35(28)3)38-17-5-14-36-15-12-22-9-10-24(18-23(22)13-16-36)29-31-19-21(2)37-29/h4,6-11,18-19H,5,12-17H2,1-3H3

> <PUBCHEM_IUPAC_INCHIKEY>
PXLGTQTYMBVHFH-UHFFFAOYSA-N

> <PUBCHEM_XLOGP3_AA>
5.5

> <PUBCHEM_EXACT_MASS>
524.23583084

> <PUBCHEM_MOLECULAR_FORMULA>
C30H32N6OS

> <PUBCHEM_MOLECULAR_WEIGHT>
524.7

> <PUBCHEM_OPENEYE_CAN_SMILES>
CC1=NC2=CC=CC(=C2C=C1)C3=NN=C(N3C)SCCCN4CCC5=C(CC4)C=C(C=C5)C6=NC=C(O6)C

> <PUBCHEM_OPENEYE_ISO_SMILES>
CC1=NC2=CC=CC(=C2C=C1)C3=NN=C(N3C)SCCCN4CCC5=C(CC4)C=C(C=C5)C6=NC=C(O6)C

> <PUBCHEM_CACTVS_TPSA>
98.2

> <PUBCHEM_MONOISOTOPIC_WEIGHT>
524.23583084

> <PUBCHEM_TOTAL_CHARGE>
0

> <PUBCHEM_HEAVY_ATOM_COUNT>
38

> <PUBCHEM_ATOM_DEF_STEREO_COUNT>
0

> <PUBCHEM_ATOM_UDEF_STEREO_COUNT>
0

> <PUBCHEM_BOND_DEF_STEREO_COUNT>
0

> <PUBCHEM_BOND_UDEF_STEREO_COUNT>
0

> <PUBCHEM_ISOTOPIC_ATOM_COUNT>
0

> <PUBCHEM_COMPONENT_COUNT>
1

> <PUBCHEM_CACTVS_TAUTO_COUNT>
-1

> <PUBCHEM_COORDINATE_TYPE>
1
5
255

> <PUBCHEM_BONDANNOTATIONS>
13  14  8
13  17  8
14  18  8
17  19  8
18  21  8
19  21  8
2  22  8
2  26  8
25  27  8
25  31  8
26  28  8
27  30  8
27  32  8
30  34  8
31  35  8
32  36  8
34  35  8
36  37  8
4  23  8
4  24  8
5  22  8
5  28  8
6  23  8
6  7  8
7  24  8
8  30  8
8  37  8

$$$$
