164609172
  -OEChem-09292322462D

 54 57  0     0  0  0  0  0  0999 V2000
    9.7942    0.8273    0.0000 O   0  0  0  0  0  0  0  0  0  0  0  0
   15.0564   -2.1968    0.0000 O   0  0  0  0  0  0  0  0  0  0  0  0
    6.3301   -0.1727    0.0000 N   0  0  0  0  0  0  0  0  0  0  0  0
    4.5981    0.8273    0.0000 N   0  0  0  0  0  0  0  0  0  0  0  0
    3.7320    2.3273    0.0000 N   0  0  0  0  0  0  0  0  0  0  0  0
   13.2862   -2.2074    0.0000 N   0  0  0  0  0  0  0  0  0  0  0  0
    6.3301    0.8273    0.0000 C   0  0  0  0  0  0  0  0  0  0  0  0
    5.4641   -0.6727    0.0000 C   0  0  0  0  0  0  0  0  0  0  0  0
    5.4641    1.3273    0.0000 C   0  0  0  0  0  0  0  0  0  0  0  0
    4.5981   -0.1727    0.0000 C   0  0  0  0  0  0  0  0  0  0  0  0
    7.1962   -0.6727    0.0000 C   0  0  0  0  0  0  0  0  0  0  0  0
    8.0622   -0.1727    0.0000 C   0  0  0  0  0  0  0  0  0  0  0  0
    8.9282   -0.6727    0.0000 C   0  0  0  0  0  0  0  0  0  0  0  0
    3.7320    1.3273    0.0000 C   0  0  0  0  0  0  0  0  0  0  0  0
    9.7942   -0.1727    0.0000 C   0  0  0  0  0  0  0  0  0  0  0  0
   10.6603   -0.6727    0.0000 C   0  0  0  0  0  0  0  0  0  0  0  0
   12.3923   -0.6727    0.0000 C   0  0  0  0  0  0  0  0  0  0  0  0
   13.2862   -0.1380    0.0000 C   0  0  0  0  0  0  0  0  0  0  0  0
    2.8660    0.8273    0.0000 C   0  0  0  0  0  0  0  0  0  0  0  0
   12.3923   -1.6727    0.0000 C   0  0  0  0  0  0  0  0  0  0  0  0
   11.5263   -0.1727    0.0000 C   0  0  0  0  0  0  0  0  0  0  0  0
   14.1923   -0.6519    0.0000 C   0  0  0  0  0  0  0  0  0  0  0  0
   10.6603   -1.6727    0.0000 C   0  0  0  0  0  0  0  0  0  0  0  0
   11.5263   -2.1727    0.0000 C   0  0  0  0  0  0  0  0  0  0  0  0
   14.1923   -1.6935    0.0000 C   0  0  0  0  0  0  0  0  0  0  0  0
    2.0000    1.3273    0.0000 C   0  0  0  0  0  0  0  0  0  0  0  0
    2.8660    2.8273    0.0000 C   0  0  0  0  0  0  0  0  0  0  0  0
    2.0000    2.3273    0.0000 C   0  0  0  0  0  0  0  0  0  0  0  0
    6.9407    0.7196    0.0000 H   0  0  0  0  0  0  0  0  0  0  0  0
    6.5422    1.4099    0.0000 H   0  0  0  0  0  0  0  0  0  0  0  0
    5.0656   -1.1476    0.0000 H   0  0  0  0  0  0  0  0  0  0  0  0
    5.8626   -1.1476    0.0000 H   0  0  0  0  0  0  0  0  0  0  0  0
    5.8626    1.8023    0.0000 H   0  0  0  0  0  0  0  0  0  0  0  0
    5.0656    1.8023    0.0000 H   0  0  0  0  0  0  0  0  0  0  0  0
    3.9875   -0.0650    0.0000 H   0  0  0  0  0  0  0  0  0  0  0  0
    4.3860   -0.7553    0.0000 H   0  0  0  0  0  0  0  0  0  0  0  0
    6.7976   -1.1476    0.0000 H   0  0  0  0  0  0  0  0  0  0  0  0
    7.5947   -1.1476    0.0000 H   0  0  0  0  0  0  0  0  0  0  0  0
    8.4607    0.3023    0.0000 H   0  0  0  0  0  0  0  0  0  0  0  0
    7.6636    0.3023    0.0000 H   0  0  0  0  0  0  0  0  0  0  0  0
    8.5297   -1.1476    0.0000 H   0  0  0  0  0  0  0  0  0  0  0  0
    9.3267   -1.1476    0.0000 H   0  0  0  0  0  0  0  0  0  0  0  0
   13.6799    0.3410    0.0000 H   0  0  0  0  0  0  0  0  0  0  0  0
   12.8816    0.3318    0.0000 H   0  0  0  0  0  0  0  0  0  0  0  0
    2.8660    0.2073    0.0000 H   0  0  0  0  0  0  0  0  0  0  0  0
   11.5263    0.4473    0.0000 H   0  0  0  0  0  0  0  0  0  0  0  0
   14.8032   -0.7580    0.0000 H   0  0  0  0  0  0  0  0  0  0  0  0
   14.4014   -0.0682    0.0000 H   0  0  0  0  0  0  0  0  0  0  0  0
   10.1233   -1.9827    0.0000 H   0  0  0  0  0  0  0  0  0  0  0  0
   11.5263   -2.7927    0.0000 H   0  0  0  0  0  0  0  0  0  0  0  0
   13.2791   -2.8273    0.0000 H   0  0  0  0  0  0  0  0  0  0  0  0
    1.4631    1.0173    0.0000 H   0  0  0  0  0  0  0  0  0  0  0  0
    2.8660    3.4473    0.0000 H   0  0  0  0  0  0  0  0  0  0  0  0
    1.4631    2.6373    0.0000 H   0  0  0  0  0  0  0  0  0  0  0  0
  1 15  2  0  0  0  0
  2 25  2  0  0  0  0
  3  7  1  0  0  0  0
  3  8  1  0  0  0  0
  3 11  1  0  0  0  0
  4  9  1  0  0  0  0
  4 10  1  0  0  0  0
  4 14  1  0  0  0  0
  5 14  1  0  0  0  0
  5 27  2  0  0  0  0
  6 20  1  0  0  0  0
  6 25  1  0  0  0  0
  6 51  1  0  0  0  0
  7  9  1  0  0  0  0
  7 29  1  0  0  0  0
  7 30  1  0  0  0  0
  8 10  1  0  0  0  0
  8 31  1  0  0  0  0
  8 32  1  0  0  0  0
  9 33  1  0  0  0  0
  9 34  1  0  0  0  0
 10 35  1  0  0  0  0
 10 36  1  0  0  0  0
 11 12  1  0  0  0  0
 11 37  1  0  0  0  0
 11 38  1  0  0  0  0
 12 13  1  0  0  0  0
 12 39  1  0  0  0  0
 12 40  1  0  0  0  0
 13 15  1  0  0  0  0
 13 41  1  0  0  0  0
 13 42  1  0  0  0  0
 14 19  2  0  0  0  0
 15 16  1  0  0  0  0
 16 21  2  0  0  0  0
 16 23  1  0  0  0  0
 17 18  1  0  0  0  0
 17 20  2  0  0  0  0
 17 21  1  0  0  0  0
 18 22  1  0  0  0  0
 18 43  1  0  0  0  0
 18 44  1  0  0  0  0
 19 26  1  0  0  0  0
 19 45  1  0  0  0  0
 20 24  1  0  0  0  0
 21 46  1  0  0  0  0
 22 25  1  0  0  0  0
 22 47  1  0  0  0  0
 22 48  1  0  0  0  0
 23 24  2  0  0  0  0
 23 49  1  0  0  0  0
 24 50  1  0  0  0  0
 26 28  2  0  0  0  0
 26 52  1  0  0  0  0
 27 28  1  0  0  0  0
 27 53  1  0  0  0  0
 28 54  1  0  0  0  0
M  END
> <PUBCHEM_COMPOUND_CID>
164609172

> <PUBCHEM_COMPOUND_CANONICALIZED>
1

> <PUBCHEM_CACTVS_COMPLEXITY>
547

> <PUBCHEM_CACTVS_HBOND_ACCEPTOR>
5

> <PUBCHEM_CACTVS_HBOND_DONOR>
1

> <PUBCHEM_CACTVS_ROTATABLE_BOND>
6

> <PUBCHEM_CACTVS_SUBSKEYS>
AAADceB7sAAAAAAAAAAAAAAAAAAAAAAAAAA8WLEAAAAAAACxwAAAHgAQAAAADAzBmgQ98JPIEACoArd3dACCgCk1AiAJ2CE4ZNiIYPLAnZGUIQholALIyaccicCeCAACAAACAAAQAAQAAAQAAAAAAAAAAA==

> <PUBCHEM_IUPAC_OPENEYE_NAME>
6-[4-[4-(2-pyridyl)piperazin-1-yl]butanoyl]-3,4-dihydro-1H-quinolin-2-one

> <PUBCHEM_IUPAC_CAS_NAME>
6-[1-oxo-4-[4-(2-pyridinyl)-1-piperazinyl]butyl]-3,4-dihydro-1H-quinolin-2-one

> <PUBCHEM_IUPAC_NAME_MARKUP>
6-[4-(4-pyridin-2-ylpiperazin-1-yl)butanoyl]-3,4-dihydro-1<I>H</I>-quinolin-2-one

> <PUBCHEM_IUPAC_NAME>
6-[4-(4-pyridin-2-ylpiperazin-1-yl)butanoyl]-3,4-dihydro-1H-quinolin-2-one

> <PUBCHEM_IUPAC_SYSTEMATIC_NAME>
6-[4-(4-pyridin-2-ylpiperazin-1-yl)butanoyl]-3,4-dihydro-1H-quinolin-2-one

> <PUBCHEM_IUPAC_TRADITIONAL_NAME>
6-[4-[4-(2-pyridyl)piperazino]butanoyl]-3,4-dihydrocarbostyril

> <PUBCHEM_IUPAC_INCHI>
InChI=1S/C22H26N4O2/c27-20(18-6-8-19-17(16-18)7-9-22(28)24-19)4-3-11-25-12-14-26(15-13-25)21-5-1-2-10-23-21/h1-2,5-6,8,10,16H,3-4,7,9,11-15H2,(H,24,28)

> <PUBCHEM_IUPAC_INCHIKEY>
NFCAJYXEMNIWPF-UHFFFAOYSA-N

> <PUBCHEM_XLOGP3>
2.3

> <PUBCHEM_EXACT_MASS>
378.20557608

> <PUBCHEM_MOLECULAR_FORMULA>
C22H26N4O2

> <PUBCHEM_MOLECULAR_WEIGHT>
378.5

> <PUBCHEM_OPENEYE_CAN_SMILES>
C1CC(=O)NC2=C1C=C(C=C2)C(=O)CCCN3CCN(CC3)C4=CC=CC=N4

> <PUBCHEM_OPENEYE_ISO_SMILES>
C1CC(=O)NC2=C1C=C(C=C2)C(=O)CCCN3CCN(CC3)C4=CC=CC=N4

> <PUBCHEM_CACTVS_TPSA>
65.5

> <PUBCHEM_MONOISOTOPIC_WEIGHT>
378.20557608

> <PUBCHEM_TOTAL_CHARGE>
0

> <PUBCHEM_HEAVY_ATOM_COUNT>
28

> <PUBCHEM_ATOM_DEF_STEREO_COUNT>
0

> <PUBCHEM_ATOM_UDEF_STEREO_COUNT>
0

> <PUBCHEM_BOND_DEF_STEREO_COUNT>
0

> <PUBCHEM_BOND_UDEF_STEREO_COUNT>
0

> <PUBCHEM_ISOTOPIC_ATOM_COUNT>
0

> <PUBCHEM_COMPONENT_COUNT>
1

> <PUBCHEM_CACTVS_TAUTO_COUNT>
-1

> <PUBCHEM_COORDINATE_TYPE>
1
5
255

> <PUBCHEM_BONDANNOTATIONS>
14  19  8
16  21  8
16  23  8
17  20  8
17  21  8
19  26  8
20  24  8
23  24  8
26  28  8
27  28  8
5  14  8
5  27  8

$$$$
