24758828
  -OEChem-09292322302D

 59 63  0     1  0  0  0  0  0999 V2000
    2.0000    5.4134    0.0000 Br  0  0  0  0  0  0  0  0  0  0  0  0
    6.3922   -1.5947    0.0000 S   0  0  0  0  0  0  0  0  0  0  0  0
   10.0491   -3.0760    0.0000 O   0  0  0  0  0  0  0  0  0  0  0  0
    6.0301    1.8504    0.0000 N   0  0  3  0  0  0  0  0  0  0  0  0
    7.9800   -2.4038    0.0000 N   0  0  0  0  0  0  0  0  0  0  0  0
    6.6710   -3.3548    0.0000 N   0  0  0  0  0  0  0  0  0  0  0  0
    7.4800   -3.9426    0.0000 N   0  0  0  0  0  0  0  0  0  0  0  0
   10.5491   -4.6149    0.0000 N   0  0  0  0  0  0  0  0  0  0  0  0
    5.5301    3.3892    0.0000 C   0  0  3  0  0  0  0  0  0  0  0  0
    4.7211    2.8014    0.0000 C   0  0  0  0  0  0  0  0  0  0  0  0
    6.3391    2.8014    0.0000 C   0  0  0  0  0  0  0  0  0  0  0  0
    6.3961    3.8892    0.0000 C   0  0  0  0  0  0  0  0  0  0  0  0
    5.0301    1.8504    0.0000 C   0  0  0  0  0  0  0  0  0  0  0  0
    4.6641    3.8892    0.0000 C   0  0  0  0  0  0  0  0  0  0  0  0
    6.3961    4.8892    0.0000 C   0  0  0  0  0  0  0  0  0  0  0  0
    4.6641    4.8892    0.0000 C   0  0  0  0  0  0  0  0  0  0  0  0
    5.5301    5.3892    0.0000 C   0  0  0  0  0  0  0  0  0  0  0  0
    6.6179    1.0414    0.0000 C   0  0  0  0  0  0  0  0  0  0  0  0
    3.7702    3.3546    0.0000 C   0  0  0  0  0  0  0  0  0  0  0  0
    3.7702    5.4239    0.0000 C   0  0  0  0  0  0  0  0  0  0  0  0
    6.2112    0.1278    0.0000 C   0  0  0  0  0  0  0  0  0  0  0  0
    2.8641    3.8684    0.0000 C   0  0  0  0  0  0  0  0  0  0  0  0
    2.8641    4.9100    0.0000 C   0  0  0  0  0  0  0  0  0  0  0  0
    6.7990   -0.6812    0.0000 C   0  0  0  0  0  0  0  0  0  0  0  0
    6.9800   -2.4038    0.0000 C   0  0  0  0  0  0  0  0  0  0  0  0
    8.2890   -3.3548    0.0000 C   0  0  0  0  0  0  0  0  0  0  0  0
    8.5678   -1.5947    0.0000 C   0  0  0  0  0  0  0  0  0  0  0  0
    9.2401   -3.6638    0.0000 C   0  0  0  0  0  0  0  0  0  0  0  0
    9.5491   -4.6149    0.0000 C   0  0  0  0  0  0  0  0  0  0  0  0
    8.9613   -5.4239    0.0000 C   0  0  0  0  0  0  0  0  0  0  0  0
   10.8581   -3.6638    0.0000 C   0  0  0  0  0  0  0  0  0  0  0  0
    4.4111    3.3384    0.0000 H   0  0  0  0  0  0  0  0  0  0  0  0
    4.1547    2.5493    0.0000 H   0  0  0  0  0  0  0  0  0  0  0  0
    6.9055    2.5493    0.0000 H   0  0  0  0  0  0  0  0  0  0  0  0
    6.6491    3.3384    0.0000 H   0  0  0  0  0  0  0  0  0  0  0  0
    6.6082    3.3066    0.0000 H   0  0  0  0  0  0  0  0  0  0  0  0
    7.0067    3.9969    0.0000 H   0  0  0  0  0  0  0  0  0  0  0  0
    4.4237    1.7215    0.0000 H   0  0  0  0  0  0  0  0  0  0  0  0
    5.0949    1.2338    0.0000 H   0  0  0  0  0  0  0  0  0  0  0  0
    7.0067    4.7816    0.0000 H   0  0  0  0  0  0  0  0  0  0  0  0
    6.6082    5.4718    0.0000 H   0  0  0  0  0  0  0  0  0  0  0  0
    5.9286    5.8642    0.0000 H   0  0  0  0  0  0  0  0  0  0  0  0
    5.1316    5.8642    0.0000 H   0  0  0  0  0  0  0  0  0  0  0  0
    7.1319    0.6947    0.0000 H   0  0  0  0  0  0  0  0  0  0  0  0
    7.0486    1.4874    0.0000 H   0  0  0  0  0  0  0  0  0  0  0  0
    3.7773    2.7346    0.0000 H   0  0  0  0  0  0  0  0  0  0  0  0
    3.7773    6.0438    0.0000 H   0  0  0  0  0  0  0  0  0  0  0  0
    5.6972    0.4745    0.0000 H   0  0  0  0  0  0  0  0  0  0  0  0
    5.7805   -0.3182    0.0000 H   0  0  0  0  0  0  0  0  0  0  0  0
    2.3284    3.5564    0.0000 H   0  0  0  0  0  0  0  0  0  0  0  0
    7.3130   -1.0279    0.0000 H   0  0  0  0  0  0  0  0  0  0  0  0
    7.2296   -0.2352    0.0000 H   0  0  0  0  0  0  0  0  0  0  0  0
    9.0694   -1.9592    0.0000 H   0  0  0  0  0  0  0  0  0  0  0  0
    8.9322   -1.0931    0.0000 H   0  0  0  0  0  0  0  0  0  0  0  0
    8.0662   -1.2303    0.0000 H   0  0  0  0  0  0  0  0  0  0  0  0
    8.4597   -5.0595    0.0000 H   0  0  0  0  0  0  0  0  0  0  0  0
    8.5969   -5.9255    0.0000 H   0  0  0  0  0  0  0  0  0  0  0  0
    9.4629   -5.7883    0.0000 H   0  0  0  0  0  0  0  0  0  0  0  0
   11.4478   -3.4722    0.0000 H   0  0  0  0  0  0  0  0  0  0  0  0
  1 23  1  0  0  0  0
  2 24  1  0  0  0  0
  2 25  1  0  0  0  0
  3 28  1  0  0  0  0
  3 31  1  0  0  0  0
  4 11  1  0  0  0  0
  4 13  1  0  0  0  0
  4 18  1  0  0  0  0
  5 25  1  0  0  0  0
  5 26  1  0  0  0  0
  5 27  1  0  0  0  0
  6  7  1  0  0  0  0
  6 25  2  0  0  0  0
  7 26  2  0  0  0  0
  8 29  1  0  0  0  0
  8 31  2  0  0  0  0
  9 10  1  0  0  0  0
  9 11  1  0  0  0  0
  9 12  1  0  0  0  0
  9 14  1  0  0  0  0
 10 13  1  0  0  0  0
 10 32  1  0  0  0  0
 10 33  1  0  0  0  0
 11 34  1  0  0  0  0
 11 35  1  0  0  0  0
 12 15  1  0  0  0  0
 12 36  1  0  0  0  0
 12 37  1  0  0  0  0
 13 38  1  0  0  0  0
 13 39  1  0  0  0  0
 14 16  2  0  0  0  0
 14 19  1  0  0  0  0
 15 17  1  0  0  0  0
 15 40  1  0  0  0  0
 15 41  1  0  0  0  0
 16 17  1  0  0  0  0
 16 20  1  0  0  0  0
 17 42  1  0  0  0  0
 17 43  1  0  0  0  0
 18 21  1  0  0  0  0
 18 44  1  0  0  0  0
 18 45  1  0  0  0  0
 19 22  2  0  0  0  0
 19 46  1  0  0  0  0
 20 23  2  0  0  0  0
 20 47  1  0  0  0  0
 21 24  1  0  0  0  0
 21 48  1  0  0  0  0
 21 49  1  0  0  0  0
 22 23  1  0  0  0  0
 22 50  1  0  0  0  0
 24 51  1  0  0  0  0
 24 52  1  0  0  0  0
 26 28  1  0  0  0  0
 27 53  1  0  0  0  0
 27 54  1  0  0  0  0
 27 55  1  0  0  0  0
 28 29  2  0  0  0  0
 29 30  1  0  0  0  0
 30 56  1  0  0  0  0
 30 57  1  0  0  0  0
 30 58  1  0  0  0  0
 31 59  1  0  0  0  0
M  END
> <PUBCHEM_COMPOUND_CID>
24758828

> <PUBCHEM_COMPOUND_CANONICALIZED>
1

> <PUBCHEM_CACTVS_COMPLEXITY>
617

> <PUBCHEM_CACTVS_HBOND_ACCEPTOR>
6

> <PUBCHEM_CACTVS_HBOND_DONOR>
0

> <PUBCHEM_CACTVS_ROTATABLE_BOND>
6

> <PUBCHEM_CACTVS_SUBSKEYS>
AAADceB7oABAEAAAAAAAAAAAAAAAAWLFgAAwYAAAAAAAAADB8AAAHgRIAAABrgzF3wa3lJcMFEiqA6Zz9ASS2Ct7YLQd2CG9RLiOKCLk2TGNIChgjALYihcQgMAPggAAEAAQAAAEAAQgACAAAAAAAAAAAA==

> <PUBCHEM_IUPAC_OPENEYE_NAME>
5-[5-[3-(6'-bromospiro[pyrrolidine-3,1'-tetralin]-1-yl)propylsulfanyl]-4-methyl-1,2,4-triazol-3-yl]-4-methyl-oxazole

> <PUBCHEM_IUPAC_CAS_NAME>
5-[5-[3-(7-bromo-1'-spiro[2,3-dihydro-1H-naphthalene-4,3'-pyrrolidine]yl)propylthio]-4-methyl-1,2,4-triazol-3-yl]-4-methyloxazole

> <PUBCHEM_IUPAC_NAME_MARKUP>
5-[5-[3-(7-bromospiro[2,3-dihydro-1<I>H</I>-naphthalene-4,3&apos;-pyrrolidine]-1&apos;-yl)propylsulfanyl]-4-methyl-1,2,4-triazol-3-yl]-4-methyl-1,3-oxazole

> <PUBCHEM_IUPAC_NAME>
5-[5-[3-(7-bromospiro[2,3-dihydro-1H-naphthalene-4,3'-pyrrolidine]-1'-yl)propylsulfanyl]-4-methyl-1,2,4-triazol-3-yl]-4-methyl-1,3-oxazole

> <PUBCHEM_IUPAC_SYSTEMATIC_NAME>
5-[5-[3-(7-bromanylspiro[2,3-dihydro-1H-naphthalene-4,3'-pyrrolidine]-1'-yl)propylsulfanyl]-4-methyl-1,2,4-triazol-3-yl]-4-methyl-1,3-oxazole

> <PUBCHEM_IUPAC_TRADITIONAL_NAME>
5-[5-[3-(6'-bromospiro[pyrrolidine-3,1'-tetralin]-1-yl)propylthio]-4-methyl-1,2,4-triazol-3-yl]-4-methyl-oxazole

> <PUBCHEM_IUPAC_INCHI>
InChI=1S/C23H28BrN5OS/c1-16-20(30-15-25-16)21-26-27-22(28(21)2)31-12-4-10-29-11-9-23(14-29)8-3-5-17-13-18(24)6-7-19(17)23/h6-7,13,15H,3-5,8-12,14H2,1-2H3

> <PUBCHEM_IUPAC_INCHIKEY>
LJOIJDZCFSDRBE-UHFFFAOYSA-N

> <PUBCHEM_XLOGP3_AA>
4.7

> <PUBCHEM_EXACT_MASS>
501.11979

> <PUBCHEM_MOLECULAR_FORMULA>
C23H28BrN5OS

> <PUBCHEM_MOLECULAR_WEIGHT>
502.5

> <PUBCHEM_OPENEYE_CAN_SMILES>
CC1=C(OC=N1)C2=NN=C(N2C)SCCCN3CCC4(C3)CCCC5=C4C=CC(=C5)Br

> <PUBCHEM_OPENEYE_ISO_SMILES>
CC1=C(OC=N1)C2=NN=C(N2C)SCCCN3CCC4(C3)CCCC5=C4C=CC(=C5)Br

> <PUBCHEM_CACTVS_TPSA>
85.3

> <PUBCHEM_MONOISOTOPIC_WEIGHT>
501.11979

> <PUBCHEM_TOTAL_CHARGE>
0

> <PUBCHEM_HEAVY_ATOM_COUNT>
31

> <PUBCHEM_ATOM_DEF_STEREO_COUNT>
0

> <PUBCHEM_ATOM_UDEF_STEREO_COUNT>
1

> <PUBCHEM_BOND_DEF_STEREO_COUNT>
0

> <PUBCHEM_BOND_UDEF_STEREO_COUNT>
0

> <PUBCHEM_ISOTOPIC_ATOM_COUNT>
0

> <PUBCHEM_COMPONENT_COUNT>
1

> <PUBCHEM_CACTVS_TAUTO_COUNT>
-1

> <PUBCHEM_COORDINATE_TYPE>
1
5
255

> <PUBCHEM_BONDANNOTATIONS>
14  16  8
14  19  8
16  20  8
19  22  8
20  23  8
22  23  8
28  29  8
3  28  8
3  31  8
5  25  8
5  26  8
6  25  8
6  7  8
7  26  8
8  29  8
8  31  8
9  12  3

$$$$
