46231709
  -OEChem-09292322292D

 58 62  0     1  0  0  0  0  0999 V2000
    2.1374    4.1688    0.0000 Cl  0  0  0  0  0  0  0  0  0  0  0  0
    8.1589   -2.0418    0.0000 Cl  0  0  0  0  0  0  0  0  0  0  0  0
    6.1965   -4.8964    0.0000 Cl  0  0  0  0  0  0  0  0  0  0  0  0
    2.5932    2.1719    0.0000 O   0  0  0  0  0  0  0  0  0  0  0  0
    7.3349   -1.4753    0.0000 O   0  0  0  0  0  0  0  0  0  0  0  0
    7.0983    4.2506    0.0000 N   0  0  3  0  0  0  0  0  0  0  0  0
    5.6082   -1.3392    0.0000 N   0  0  0  0  0  0  0  0  0  0  0  0
    6.3537   -2.9026    0.0000 N   0  0  0  0  0  0  0  0  0  0  0  0
    6.8758    3.2757    0.0000 C   0  0  2  0  0  0  0  0  0  0  0  0
    5.9748    2.8418    0.0000 C   0  0  2  0  0  0  0  0  0  0  0  0
    7.7453    2.7023    0.0000 C   0  0  0  0  0  0  0  0  0  0  0  0
    5.8810    1.8044    0.0000 C   0  0  0  0  0  0  0  0  0  0  0  0
    7.6755    1.6630    0.0000 C   0  0  0  0  0  0  0  0  0  0  0  0
    5.0738    3.2757    0.0000 C   0  0  0  0  0  0  0  0  0  0  0  0
    6.7370    1.2111    0.0000 C   0  0  0  0  0  0  0  0  0  0  0  0
    6.4748    5.0325    0.0000 C   0  0  0  0  0  0  0  0  0  0  0  0
    4.8513    4.2506    0.0000 C   0  0  0  0  0  0  0  0  0  0  0  0
    5.4748    5.0325    0.0000 C   0  0  0  0  0  0  0  0  0  0  0  0
    8.0732    4.4732    0.0000 C   0  0  0  0  0  0  0  0  0  0  0  0
    4.8928    1.3564    0.0000 C   0  0  0  0  0  0  0  0  0  0  0  0
    4.3213    2.5556    0.0000 C   0  0  0  0  0  0  0  0  0  0  0  0
    6.6643    0.1285    0.0000 C   0  0  0  0  0  0  0  0  0  0  0  0
    3.8608    4.5730    0.0000 C   0  0  0  0  0  0  0  0  0  0  0  0
    5.6868   -0.3423    0.0000 C   0  0  0  0  0  0  0  0  0  0  0  0
    4.7950    0.2758    0.0000 C   0  0  0  0  0  0  0  0  0  0  0  0
    3.3236    2.8549    0.0000 C   0  0  0  0  0  0  0  0  0  0  0  0
    3.0918    3.8704    0.0000 C   0  0  0  0  0  0  0  0  0  0  0  0
    6.4322   -1.9057    0.0000 C   0  0  0  0  0  0  0  0  0  0  0  0
    7.1777   -3.4691    0.0000 C   0  0  0  0  0  0  0  0  0  0  0  0
    8.0804   -3.0387    0.0000 C   0  0  0  0  0  0  0  0  0  0  0  0
    7.0992   -4.4660    0.0000 C   0  0  0  0  0  0  0  0  0  0  0  0
    8.9044   -3.6052    0.0000 C   0  0  0  0  0  0  0  0  0  0  0  0
    7.9232   -5.0325    0.0000 C   0  0  0  0  0  0  0  0  0  0  0  0
    8.8259   -4.6021    0.0000 C   0  0  0  0  0  0  0  0  0  0  0  0
    7.6646    3.5924    0.0000 H   0  0  0  0  0  0  0  0  0  0  0  0
    5.2354    2.4225    0.0000 H   0  0  0  0  0  0  0  0  0  0  0  0
    8.3477    2.5555    0.0000 H   0  0  0  0  0  0  0  0  0  0  0  0
    7.9931    3.2707    0.0000 H   0  0  0  0  0  0  0  0  0  0  0  0
    7.8450    1.0666    0.0000 H   0  0  0  0  0  0  0  0  0  0  0  0
    8.2921    1.7279    0.0000 H   0  0  0  0  0  0  0  0  0  0  0  0
    7.0334    5.3015    0.0000 H   0  0  0  0  0  0  0  0  0  0  0  0
    6.3368    5.6369    0.0000 H   0  0  0  0  0  0  0  0  0  0  0  0
    5.6128    5.6369    0.0000 H   0  0  0  0  0  0  0  0  0  0  0  0
    4.9162    5.3015    0.0000 H   0  0  0  0  0  0  0  0  0  0  0  0
    8.2112    3.8687    0.0000 H   0  0  0  0  0  0  0  0  0  0  0  0
    8.6777    4.6111    0.0000 H   0  0  0  0  0  0  0  0  0  0  0  0
    7.9352    5.0776    0.0000 H   0  0  0  0  0  0  0  0  0  0  0  0
    4.3873    1.7155    0.0000 H   0  0  0  0  0  0  0  0  0  0  0  0
    4.4662    1.9527    0.0000 H   0  0  0  0  0  0  0  0  0  0  0  0
    7.1779   -0.2188    0.0000 H   0  0  0  0  0  0  0  0  0  0  0  0
    3.7298    5.1790    0.0000 H   0  0  0  0  0  0  0  0  0  0  0  0
    4.2334    0.0133    0.0000 H   0  0  0  0  0  0  0  0  0  0  0  0
    5.0485   -1.6060    0.0000 H   0  0  0  0  0  0  0  0  0  0  0  0
    2.0000    2.3524    0.0000 H   0  0  0  0  0  0  0  0  0  0  0  0
    5.7940   -3.1694    0.0000 H   0  0  0  0  0  0  0  0  0  0  0  0
    9.4641   -3.3383    0.0000 H   0  0  0  0  0  0  0  0  0  0  0  0
    7.8745   -5.6506    0.0000 H   0  0  0  0  0  0  0  0  0  0  0  0
    9.3368   -4.9533    0.0000 H   0  0  0  0  0  0  0  0  0  0  0  0
  1 27  1  0  0  0  0
  2 30  1  0  0  0  0
  3 31  1  0  0  0  0
  4 26  1  0  0  0  0
  4 54  1  0  0  0  0
  5 28  2  0  0  0  0
  6  9  1  0  0  0  0
  6 16  1  0  0  0  0
  6 19  1  0  0  0  0
  7 24  1  0  0  0  0
  7 28  1  0  0  0  0
  7 53  1  0  0  0  0
  8 28  1  0  0  0  0
  8 29  1  0  0  0  0
  8 55  1  0  0  0  0
  9 10  1  0  0  0  0
  9 11  1  0  0  0  0
  9 35  1  6  0  0  0
 10 12  1  0  0  0  0
 10 14  1  0  0  0  0
 10 36  1  1  0  0  0
 11 13  1  0  0  0  0
 11 37  1  0  0  0  0
 11 38  1  0  0  0  0
 12 15  2  0  0  0  0
 12 20  1  0  0  0  0
 13 15  1  0  0  0  0
 13 39  1  0  0  0  0
 13 40  1  0  0  0  0
 14 17  1  0  0  0  0
 14 21  2  0  0  0  0
 15 22  1  0  0  0  0
 16 18  1  0  0  0  0
 16 41  1  0  0  0  0
 16 42  1  0  0  0  0
 17 18  1  0  0  0  0
 17 23  2  0  0  0  0
 18 43  1  0  0  0  0
 18 44  1  0  0  0  0
 19 45  1  0  0  0  0
 19 46  1  0  0  0  0
 19 47  1  0  0  0  0
 20 25  2  0  0  0  0
 20 48  1  0  0  0  0
 21 26  1  0  0  0  0
 21 49  1  0  0  0  0
 22 24  2  0  0  0  0
 22 50  1  0  0  0  0
 23 27  1  0  0  0  0
 23 51  1  0  0  0  0
 24 25  1  0  0  0  0
 25 52  1  0  0  0  0
 26 27  2  0  0  0  0
 29 30  2  0  0  0  0
 29 31  1  0  0  0  0
 30 32  1  0  0  0  0
 31 33  2  0  0  0  0
 32 34  2  0  0  0  0
 32 56  1  0  0  0  0
 33 34  1  0  0  0  0
 33 57  1  0  0  0  0
 34 58  1  0  0  0  0
M  END
> <PUBCHEM_COMPOUND_CID>
46231709

> <PUBCHEM_COMPOUND_CANONICALIZED>
1

> <PUBCHEM_CACTVS_COMPLEXITY>
719

> <PUBCHEM_CACTVS_HBOND_ACCEPTOR>
3

> <PUBCHEM_CACTVS_HBOND_DONOR>
3

> <PUBCHEM_CACTVS_ROTATABLE_BOND>
2

> <PUBCHEM_CACTVS_SUBSKEYS>
AAADceB7MAAGAAAAAAAAAAAAAAAAAAAAAAAwYMGABYAAAADBUAAAHgIQCAAADS7BmCQzxoPAAgCIAiRCUACCAAAhJ0AIiAAOb4iIJiLDk5PEcAhs1BPI2CeQ0PMOrAABYACQCBBYAAbAASQQIAAAAAAAAA==

> <PUBCHEM_IUPAC_OPENEYE_NAME>
1-[(6aS,13bR)-11-chloro-12-hydroxy-7-methyl-5,6,6a,8,9,13b-hexahydronaphtho[1,2-a][3]benzazepin-3-yl]-3-(2,6-dichlorophenyl)urea

> <PUBCHEM_IUPAC_CAS_NAME>
1-[(6aS,13bR)-11-chloro-12-hydroxy-7-methyl-5,6,6a,8,9,13b-hexahydronaphtho[1,2-a][3]benzazepin-3-yl]-3-(2,6-dichlorophenyl)urea

> <PUBCHEM_IUPAC_NAME_MARKUP>
1-[(6<I>a</I><I>S</I>,13<I>b</I><I>R</I>)-11-chloro-12-hydroxy-7-methyl-5,6,6<I>a</I>,8,9,13<I>b</I>-hexahydronaphtho[1,2-a][3]benzazepin-3-yl]-3-(2,6-dichlorophenyl)urea

> <PUBCHEM_IUPAC_NAME>
1-[(6aS,13bR)-11-chloro-12-hydroxy-7-methyl-5,6,6a,8,9,13b-hexahydronaphtho[1,2-a][3]benzazepin-3-yl]-3-(2,6-dichlorophenyl)urea

> <PUBCHEM_IUPAC_SYSTEMATIC_NAME>
1-[(6aS,13bR)-11-chloranyl-7-methyl-12-oxidanyl-5,6,6a,8,9,13b-hexahydronaphtho[1,2-a][3]benzazepin-3-yl]-3-[2,6-bis(chloranyl)phenyl]urea

> <PUBCHEM_IUPAC_TRADITIONAL_NAME>
1-[(6aS,13bR)-11-chloro-12-hydroxy-7-methyl-5,6,6a,8,9,13b-hexahydronaphtho[1,2-a][3]benzazepin-3-yl]-3-(2,6-dichlorophenyl)urea

> <PUBCHEM_IUPAC_INCHI>
InChI=1S/C26H24Cl3N3O2/c1-32-10-9-15-12-21(29)23(33)13-18(15)24-17-7-6-16(11-14(17)5-8-22(24)32)30-26(34)31-25-19(27)3-2-4-20(25)28/h2-4,6-7,11-13,22,24,33H,5,8-10H2,1H3,(H2,30,31,34)/t22-,24+/m0/s1

> <PUBCHEM_IUPAC_INCHIKEY>
DBFSWXFALPMOGP-LADGPHEKSA-N

> <PUBCHEM_XLOGP3_AA>
6.3

> <PUBCHEM_EXACT_MASS>
515.093410

> <PUBCHEM_MOLECULAR_FORMULA>
C26H24Cl3N3O2

> <PUBCHEM_MOLECULAR_WEIGHT>
516.8

> <PUBCHEM_OPENEYE_CAN_SMILES>
CN1CCC2=CC(=C(C=C2C3C1CCC4=C3C=CC(=C4)NC(=O)NC5=C(C=CC=C5Cl)Cl)O)Cl

> <PUBCHEM_OPENEYE_ISO_SMILES>
CN1CCC2=CC(=C(C=C2[C@@H]3[C@@H]1CCC4=C3C=CC(=C4)NC(=O)NC5=C(C=CC=C5Cl)Cl)O)Cl

> <PUBCHEM_CACTVS_TPSA>
64.6

> <PUBCHEM_MONOISOTOPIC_WEIGHT>
515.093410

> <PUBCHEM_TOTAL_CHARGE>
0

> <PUBCHEM_HEAVY_ATOM_COUNT>
34

> <PUBCHEM_ATOM_DEF_STEREO_COUNT>
2

> <PUBCHEM_ATOM_UDEF_STEREO_COUNT>
0

> <PUBCHEM_BOND_DEF_STEREO_COUNT>
0

> <PUBCHEM_BOND_UDEF_STEREO_COUNT>
0

> <PUBCHEM_ISOTOPIC_ATOM_COUNT>
0

> <PUBCHEM_COMPONENT_COUNT>
1

> <PUBCHEM_CACTVS_TAUTO_COUNT>
-1

> <PUBCHEM_COORDINATE_TYPE>
1
5
255

> <PUBCHEM_BONDANNOTATIONS>
10  36  5
12  15  8
12  20  8
14  17  8
14  21  8
15  22  8
17  23  8
20  25  8
21  26  8
22  24  8
23  27  8
24  25  8
26  27  8
29  30  8
29  31  8
30  32  8
31  33  8
32  34  8
33  34  8
9  35  6

$$$$
