9951233
  -OEChem-09292322152D

 50 53  0     1  0  0  0  0  0999 V2000
    8.9962    4.2500    0.0000 Cl  0  0  0  0  0  0  0  0  0  0  0  0
    6.3981   -3.2500    0.0000 O   0  0  0  0  0  0  0  0  0  0  0  0
    6.3981   -1.2500    0.0000 N   0  0  0  0  0  0  0  0  0  0  0  0
    8.1301   -0.2500    0.0000 N   0  0  0  0  0  0  0  0  0  0  0  0
    4.6660   -3.2500    0.0000 N   0  0  0  0  0  0  0  0  0  0  0  0
    5.5321   -1.7500    0.0000 C   0  0  3  0  0  0  0  0  0  0  0  0
    6.3981   -0.2500    0.0000 C   0  0  0  0  0  0  0  0  0  0  0  0
    7.2641   -1.7500    0.0000 C   0  0  0  0  0  0  0  0  0  0  0  0
    7.2641    0.2500    0.0000 C   0  0  0  0  0  0  0  0  0  0  0  0
    8.1301   -1.2500    0.0000 C   0  0  0  0  0  0  0  0  0  0  0  0
    4.6660   -1.2500    0.0000 C   0  0  0  0  0  0  0  0  0  0  0  0
    5.5321   -2.7500    0.0000 C   0  0  0  0  0  0  0  0  0  0  0  0
    3.8000   -1.7500    0.0000 C   0  0  0  0  0  0  0  0  0  0  0  0
    8.9962    0.2500    0.0000 C   0  0  0  0  0  0  0  0  0  0  0  0
    3.8000   -2.7500    0.0000 C   0  0  0  0  0  0  0  0  0  0  0  0
    2.9061   -1.2153    0.0000 C   0  0  0  0  0  0  0  0  0  0  0  0
    8.9962    1.2500    0.0000 C   0  0  0  0  0  0  0  0  0  0  0  0
    4.6660   -4.2500    0.0000 C   0  0  0  0  0  0  0  0  0  0  0  0
    2.9061   -3.2847    0.0000 C   0  0  0  0  0  0  0  0  0  0  0  0
    2.0000   -1.7292    0.0000 C   0  0  0  0  0  0  0  0  0  0  0  0
    2.0000   -2.7708    0.0000 C   0  0  0  0  0  0  0  0  0  0  0  0
    8.1301    1.7500    0.0000 C   0  0  0  0  0  0  0  0  0  0  0  0
    9.8622    1.7500    0.0000 C   0  0  0  0  0  0  0  0  0  0  0  0
    8.1301    2.7500    0.0000 C   0  0  0  0  0  0  0  0  0  0  0  0
    9.8622    2.7500    0.0000 C   0  0  0  0  0  0  0  0  0  0  0  0
    8.9962    3.2500    0.0000 C   0  0  0  0  0  0  0  0  0  0  0  0
    5.5321   -1.1300    0.0000 H   0  0  0  0  0  0  0  0  0  0  0  0
    6.1860    0.3326    0.0000 H   0  0  0  0  0  0  0  0  0  0  0  0
    5.7875   -0.3577    0.0000 H   0  0  0  0  0  0  0  0  0  0  0  0
    6.8656   -2.2250    0.0000 H   0  0  0  0  0  0  0  0  0  0  0  0
    7.6626   -2.2250    0.0000 H   0  0  0  0  0  0  0  0  0  0  0  0
    7.6626    0.7249    0.0000 H   0  0  0  0  0  0  0  0  0  0  0  0
    6.8656    0.7249    0.0000 H   0  0  0  0  0  0  0  0  0  0  0  0
    8.3422   -1.8326    0.0000 H   0  0  0  0  0  0  0  0  0  0  0  0
    8.7407   -1.1423    0.0000 H   0  0  0  0  0  0  0  0  0  0  0  0
    5.0646   -0.7751    0.0000 H   0  0  0  0  0  0  0  0  0  0  0  0
    4.2675   -0.7751    0.0000 H   0  0  0  0  0  0  0  0  0  0  0  0
    9.2082   -0.3326    0.0000 H   0  0  0  0  0  0  0  0  0  0  0  0
    9.6067    0.3577    0.0000 H   0  0  0  0  0  0  0  0  0  0  0  0
    2.9132   -0.5954    0.0000 H   0  0  0  0  0  0  0  0  0  0  0  0
    4.0460   -4.2500    0.0000 H   0  0  0  0  0  0  0  0  0  0  0  0
    4.6660   -4.8700    0.0000 H   0  0  0  0  0  0  0  0  0  0  0  0
    5.2860   -4.2500    0.0000 H   0  0  0  0  0  0  0  0  0  0  0  0
    2.9132   -3.9046    0.0000 H   0  0  0  0  0  0  0  0  0  0  0  0
    1.4643   -1.4171    0.0000 H   0  0  0  0  0  0  0  0  0  0  0  0
    1.4643   -3.0829    0.0000 H   0  0  0  0  0  0  0  0  0  0  0  0
    7.5932    1.4400    0.0000 H   0  0  0  0  0  0  0  0  0  0  0  0
   10.3991    1.4400    0.0000 H   0  0  0  0  0  0  0  0  0  0  0  0
    7.5932    3.0600    0.0000 H   0  0  0  0  0  0  0  0  0  0  0  0
   10.3991    3.0600    0.0000 H   0  0  0  0  0  0  0  0  0  0  0  0
  1 26  1  0  0  0  0
  2 12  2  0  0  0  0
  3  6  1  0  0  0  0
  3  7  1  0  0  0  0
  3  8  1  0  0  0  0
  4  9  1  0  0  0  0
  4 10  1  0  0  0  0
  4 14  1  0  0  0  0
  5 12  1  0  0  0  0
  5 15  1  0  0  0  0
  5 18  1  0  0  0  0
  6 11  1  0  0  0  0
  6 12  1  0  0  0  0
  6 27  1  0  0  0  0
  7  9  1  0  0  0  0
  7 28  1  0  0  0  0
  7 29  1  0  0  0  0
  8 10  1  0  0  0  0
  8 30  1  0  0  0  0
  8 31  1  0  0  0  0
  9 32  1  0  0  0  0
  9 33  1  0  0  0  0
 10 34  1  0  0  0  0
 10 35  1  0  0  0  0
 11 13  1  0  0  0  0
 11 36  1  0  0  0  0
 11 37  1  0  0  0  0
 13 15  1  0  0  0  0
 13 16  2  0  0  0  0
 14 17  1  0  0  0  0
 14 38  1  0  0  0  0
 14 39  1  0  0  0  0
 15 19  2  0  0  0  0
 16 20  1  0  0  0  0
 16 40  1  0  0  0  0
 17 22  2  0  0  0  0
 17 23  1  0  0  0  0
 18 41  1  0  0  0  0
 18 42  1  0  0  0  0
 18 43  1  0  0  0  0
 19 21  1  0  0  0  0
 19 44  1  0  0  0  0
 20 21  2  0  0  0  0
 20 45  1  0  0  0  0
 21 46  1  0  0  0  0
 22 24  1  0  0  0  0
 22 47  1  0  0  0  0
 23 25  2  0  0  0  0
 23 48  1  0  0  0  0
 24 26  2  0  0  0  0
 24 49  1  0  0  0  0
 25 26  1  0  0  0  0
 25 50  1  0  0  0  0
M  END
> <PUBCHEM_COMPOUND_CID>
9951233

> <PUBCHEM_COMPOUND_CANONICALIZED>
1

> <PUBCHEM_CACTVS_COMPLEXITY>
486

> <PUBCHEM_CACTVS_HBOND_ACCEPTOR>
3

> <PUBCHEM_CACTVS_HBOND_DONOR>
0

> <PUBCHEM_CACTVS_ROTATABLE_BOND>
3

> <PUBCHEM_CACTVS_SUBSKEYS>
AAADceB7IAAEAAAAAAAAAAAAAAAAAAAAAAA8eIEAAAAAAACxQAAAHgIAAAAADCrBmCQywIMAAACIAiVSUACCAAAhBwAIiAGIZogIYDLBk7GUIAhghgDIyAcYiYCeBAAAAAACAAAIAAAAAAQAAAAAAAAAAA==

> <PUBCHEM_IUPAC_OPENEYE_NAME>
3-[4-[(4-chlorophenyl)methyl]piperazin-1-yl]-1-methyl-3,4-dihydroquinolin-2-one

> <PUBCHEM_IUPAC_CAS_NAME>
3-[4-[(4-chlorophenyl)methyl]-1-piperazinyl]-1-methyl-3,4-dihydroquinolin-2-one

> <PUBCHEM_IUPAC_NAME_MARKUP>
3-[4-[(4-chlorophenyl)methyl]piperazin-1-yl]-1-methyl-3,4-dihydroquinolin-2-one

> <PUBCHEM_IUPAC_NAME>
3-[4-[(4-chlorophenyl)methyl]piperazin-1-yl]-1-methyl-3,4-dihydroquinolin-2-one

> <PUBCHEM_IUPAC_SYSTEMATIC_NAME>
3-[4-[(4-chlorophenyl)methyl]piperazin-1-yl]-1-methyl-3,4-dihydroquinolin-2-one

> <PUBCHEM_IUPAC_TRADITIONAL_NAME>
3-[4-(4-chlorobenzyl)piperazino]-1-methyl-3,4-dihydrocarbostyril

> <PUBCHEM_IUPAC_INCHI>
InChI=1S/C21H24ClN3O/c1-23-19-5-3-2-4-17(19)14-20(21(23)26)25-12-10-24(11-13-25)15-16-6-8-18(22)9-7-16/h2-9,20H,10-15H2,1H3

> <PUBCHEM_IUPAC_INCHIKEY>
UFFVYLYYQFBQCZ-UHFFFAOYSA-N

> <PUBCHEM_XLOGP3_AA>
3.4

> <PUBCHEM_EXACT_MASS>
369.1607901

> <PUBCHEM_MOLECULAR_FORMULA>
C21H24ClN3O

> <PUBCHEM_MOLECULAR_WEIGHT>
369.9

> <PUBCHEM_OPENEYE_CAN_SMILES>
CN1C2=CC=CC=C2CC(C1=O)N3CCN(CC3)CC4=CC=C(C=C4)Cl

> <PUBCHEM_OPENEYE_ISO_SMILES>
CN1C2=CC=CC=C2CC(C1=O)N3CCN(CC3)CC4=CC=C(C=C4)Cl

> <PUBCHEM_CACTVS_TPSA>
26.8

> <PUBCHEM_MONOISOTOPIC_WEIGHT>
369.1607901

> <PUBCHEM_TOTAL_CHARGE>
0

> <PUBCHEM_HEAVY_ATOM_COUNT>
26

> <PUBCHEM_ATOM_DEF_STEREO_COUNT>
0

> <PUBCHEM_ATOM_UDEF_STEREO_COUNT>
1

> <PUBCHEM_BOND_DEF_STEREO_COUNT>
0

> <PUBCHEM_BOND_UDEF_STEREO_COUNT>
0

> <PUBCHEM_ISOTOPIC_ATOM_COUNT>
0

> <PUBCHEM_COMPONENT_COUNT>
1

> <PUBCHEM_CACTVS_TAUTO_COUNT>
-1

> <PUBCHEM_COORDINATE_TYPE>
1
5
255

> <PUBCHEM_BONDANNOTATIONS>
13  15  8
13  16  8
15  19  8
16  20  8
17  22  8
17  23  8
19  21  8
20  21  8
22  24  8
23  25  8
24  26  8
25  26  8
6  3  3

$$$$
