166633881
  -OEChem-09292322442D

 59 63  0     1  0  0  0  0  0999 V2000
   17.0905    2.6205    0.0000 Cl  0  0  0  0  0  0  0  0  0  0  0  0
   11.8283    0.5963    0.0000 S   0  0  0  0  0  0  0  0  0  0  0  0
    2.0000   -2.5342    0.0000 F   0  0  0  0  0  0  0  0  0  0  0  0
   11.3283    1.4623    0.0000 O   0  0  0  0  0  0  0  0  0  0  0  0
   12.3283   -0.2697    0.0000 O   0  0  0  0  0  0  0  0  0  0  0  0
    5.5456   -2.7044    0.0000 O   0  0  0  0  0  0  0  0  0  0  0  0
    8.5136    0.9327    0.0000 N   0  0  3  0  0  0  0  0  0  0  0  0
   10.9623    0.0963    0.0000 N   0  0  0  0  0  0  0  0  0  0  0  0
    6.2088   -1.9639    0.0000 N   0  0  0  0  0  0  0  0  0  0  0  0
    9.0136    1.7987    0.0000 C   0  0  2  0  0  0  0  0  0  0  0  0
   10.0962    0.5963    0.0000 C   0  0  1  0  0  0  0  0  0  0  0  0
    9.9917    1.5908    0.0000 C   0  0  0  0  0  0  0  0  0  0  0  0
    9.1827    0.1896    0.0000 C   0  0  0  0  0  0  0  0  0  0  0  0
    7.5190    0.8282    0.0000 C   0  0  0  0  0  0  0  0  0  0  0  0
    8.6068    2.7123    0.0000 C   0  0  0  0  0  0  0  0  0  0  0  0
    7.1123   -0.0854    0.0000 C   0  0  0  0  0  0  0  0  0  0  0  0
    6.1178   -0.1899    0.0000 C   0  0  0  0  0  0  0  0  0  0  0  0
   12.6943    1.0963    0.0000 C   0  0  0  0  0  0  0  0  0  0  0  0
    5.7111   -1.1034    0.0000 C   0  0  0  0  0  0  0  0  0  0  0  0
   13.5604    0.5963    0.0000 C   0  0  0  0  0  0  0  0  0  0  0  0
   12.6943    2.0963    0.0000 C   0  0  0  0  0  0  0  0  0  0  0  0
    4.7385   -1.3093    0.0000 C   0  0  0  0  0  0  0  0  0  0  0  0
   14.4264    1.0963    0.0000 C   0  0  0  0  0  0  0  0  0  0  0  0
   13.5604    2.5963    0.0000 C   0  0  0  0  0  0  0  0  0  0  0  0
   14.4264    2.0963    0.0000 C   0  0  0  0  0  0  0  0  0  0  0  0
    4.6357   -2.3040    0.0000 C   0  0  0  0  0  0  0  0  0  0  0  0
    3.9285   -0.7229    0.0000 C   0  0  0  0  0  0  0  0  0  0  0  0
   15.3203    0.5616    0.0000 C   0  0  0  0  0  0  0  0  0  0  0  0
   15.3203    2.6310    0.0000 C   0  0  0  0  0  0  0  0  0  0  0  0
    3.7229   -2.7123    0.0000 C   0  0  0  0  0  0  0  0  0  0  0  0
    3.0156   -1.1312    0.0000 C   0  0  0  0  0  0  0  0  0  0  0  0
   16.2264    1.0755    0.0000 C   0  0  0  0  0  0  0  0  0  0  0  0
    2.9128   -2.1259    0.0000 C   0  0  0  0  0  0  0  0  0  0  0  0
   16.2264    2.1171    0.0000 C   0  0  0  0  0  0  0  0  0  0  0  0
    8.3944    1.8312    0.0000 H   0  0  0  0  0  0  0  0  0  0  0  0
   10.6162    0.9340    0.0000 H   0  0  0  0  0  0  0  0  0  0  0  0
   10.6117    1.5908    0.0000 H   0  0  0  0  0  0  0  0  0  0  0  0
   10.0565    2.2074    0.0000 H   0  0  0  0  0  0  0  0  0  0  0  0
    8.6811   -0.1749    0.0000 H   0  0  0  0  0  0  0  0  0  0  0  0
    9.4927   -0.3474    0.0000 H   0  0  0  0  0  0  0  0  0  0  0  0
    7.5623    1.4467    0.0000 H   0  0  0  0  0  0  0  0  0  0  0  0
    6.9175    0.9782    0.0000 H   0  0  0  0  0  0  0  0  0  0  0  0
    9.1732    2.9645    0.0000 H   0  0  0  0  0  0  0  0  0  0  0  0
    8.3547    3.2787    0.0000 H   0  0  0  0  0  0  0  0  0  0  0  0
    8.0404    2.4601    0.0000 H   0  0  0  0  0  0  0  0  0  0  0  0
   10.9623   -0.5237    0.0000 H   0  0  0  0  0  0  0  0  0  0  0  0
    7.0691   -0.7038    0.0000 H   0  0  0  0  0  0  0  0  0  0  0  0
    7.7139   -0.2353    0.0000 H   0  0  0  0  0  0  0  0  0  0  0  0
    6.1610    0.4286    0.0000 H   0  0  0  0  0  0  0  0  0  0  0  0
    5.5162   -0.0399    0.0000 H   0  0  0  0  0  0  0  0  0  0  0  0
   13.5604   -0.0237    0.0000 H   0  0  0  0  0  0  0  0  0  0  0  0
   12.1574    2.4063    0.0000 H   0  0  0  0  0  0  0  0  0  0  0  0
   13.5604    3.2163    0.0000 H   0  0  0  0  0  0  0  0  0  0  0  0
    3.9922   -0.1062    0.0000 H   0  0  0  0  0  0  0  0  0  0  0  0
   15.3131   -0.0583    0.0000 H   0  0  0  0  0  0  0  0  0  0  0  0
   15.3131    3.2509    0.0000 H   0  0  0  0  0  0  0  0  0  0  0  0
    3.6591   -3.3290    0.0000 H   0  0  0  0  0  0  0  0  0  0  0  0
    2.5134   -0.7676    0.0000 H   0  0  0  0  0  0  0  0  0  0  0  0
   16.7621    0.7634    0.0000 H   0  0  0  0  0  0  0  0  0  0  0  0
  1 34  1  0  0  0  0
  2  4  2  0  0  0  0
  2  5  2  0  0  0  0
  2  8  1  0  0  0  0
  2 18  1  0  0  0  0
  3 33  1  0  0  0  0
  6  9  1  0  0  0  0
  6 26  1  0  0  0  0
  7 10  1  0  0  0  0
  7 13  1  0  0  0  0
  7 14  1  0  0  0  0
 11  8  1  6  0  0  0
  8 46  1  0  0  0  0
  9 19  2  0  0  0  0
 10 12  1  0  0  0  0
 10 15  1  1  0  0  0
 10 35  1  0  0  0  0
 11 12  1  0  0  0  0
 11 13  1  0  0  0  0
 11 36  1  0  0  0  0
 12 37  1  0  0  0  0
 12 38  1  0  0  0  0
 13 39  1  0  0  0  0
 13 40  1  0  0  0  0
 14 16  1  0  0  0  0
 14 41  1  0  0  0  0
 14 42  1  0  0  0  0
 15 43  1  0  0  0  0
 15 44  1  0  0  0  0
 15 45  1  0  0  0  0
 16 17  1  0  0  0  0
 16 47  1  0  0  0  0
 16 48  1  0  0  0  0
 17 19  1  0  0  0  0
 17 49  1  0  0  0  0
 17 50  1  0  0  0  0
 18 20  2  0  0  0  0
 18 21  1  0  0  0  0
 19 22  1  0  0  0  0
 20 23  1  0  0  0  0
 20 51  1  0  0  0  0
 21 24  2  0  0  0  0
 21 52  1  0  0  0  0
 22 26  2  0  0  0  0
 22 27  1  0  0  0  0
 23 25  2  0  0  0  0
 23 28  1  0  0  0  0
 24 25  1  0  0  0  0
 24 53  1  0  0  0  0
 25 29  1  0  0  0  0
 26 30  1  0  0  0  0
 27 31  2  0  0  0  0
 27 54  1  0  0  0  0
 28 32  2  0  0  0  0
 28 55  1  0  0  0  0
 29 34  2  0  0  0  0
 29 56  1  0  0  0  0
 30 33  2  0  0  0  0
 30 57  1  0  0  0  0
 31 33  1  0  0  0  0
 31 58  1  0  0  0  0
 32 34  1  0  0  0  0
 32 59  1  0  0  0  0
M  END
> <PUBCHEM_COMPOUND_CID>
166633881

> <PUBCHEM_COMPOUND_CANONICALIZED>
1

> <PUBCHEM_CACTVS_COMPLEXITY>
799

> <PUBCHEM_CACTVS_HBOND_ACCEPTOR>
7

> <PUBCHEM_CACTVS_HBOND_DONOR>
1

> <PUBCHEM_CACTVS_ROTATABLE_BOND>
7

> <PUBCHEM_CACTVS_SUBSKEYS>
AAADceB7MQBEAAAAAAAAAAAAAAAAAWLAAAAwYMAAAAAAAFjB9AAAHwYUQAAADC7B3iwyh9NQAAKpA6RyQnDCABAkJQAomLk+TtoIZrqB15OUMYBm0BmIyceYyKCOlAAAoAAYAAAoAAFAADAAAAAAAAAAAA==

> <PUBCHEM_IUPAC_OPENEYE_NAME>
6-chloro-N-[(3S,5S)-1-[3-(6-fluoro-1,2-benzoxazol-3-yl)propyl]-5-methyl-pyrrolidin-3-yl]naphthalene-2-sulfonamide

> <PUBCHEM_IUPAC_CAS_NAME>
6-chloro-N-[(3S,5S)-1-[3-(6-fluoro-1,2-benzoxazol-3-yl)propyl]-5-methyl-3-pyrrolidinyl]-2-naphthalenesulfonamide

> <PUBCHEM_IUPAC_NAME_MARKUP>
6-chloro-<I>N</I>-[(3<I>S</I>,5<I>S</I>)-1-[3-(6-fluoro-1,2-benzoxazol-3-yl)propyl]-5-methylpyrrolidin-3-yl]naphthalene-2-sulfonamide

> <PUBCHEM_IUPAC_NAME>
6-chloro-N-[(3S,5S)-1-[3-(6-fluoro-1,2-benzoxazol-3-yl)propyl]-5-methylpyrrolidin-3-yl]naphthalene-2-sulfonamide

> <PUBCHEM_IUPAC_SYSTEMATIC_NAME>
6-chloranyl-N-[(3S,5S)-1-[3-(6-fluoranyl-1,2-benzoxazol-3-yl)propyl]-5-methyl-pyrrolidin-3-yl]naphthalene-2-sulfonamide

> <PUBCHEM_IUPAC_TRADITIONAL_NAME>
6-chloro-N-[(3S,5S)-1-[3-(6-fluoroindoxazen-3-yl)propyl]-5-methyl-pyrrolidin-3-yl]naphthalene-2-sulfonamide

> <PUBCHEM_IUPAC_INCHI>
InChI=1S/C25H25ClFN3O3S/c1-16-11-21(29-34(31,32)22-8-5-17-12-19(26)6-4-18(17)13-22)15-30(16)10-2-3-24-23-9-7-20(27)14-25(23)33-28-24/h4-9,12-14,16,21,29H,2-3,10-11,15H2,1H3/t16-,21-/m0/s1

> <PUBCHEM_IUPAC_INCHIKEY>
JMQUTFMPAXQIBI-KKSFZXQISA-N

> <PUBCHEM_XLOGP3_AA>
5.7

> <PUBCHEM_EXACT_MASS>
501.1289187

> <PUBCHEM_MOLECULAR_FORMULA>
C25H25ClFN3O3S

> <PUBCHEM_MOLECULAR_WEIGHT>
502.0

> <PUBCHEM_OPENEYE_CAN_SMILES>
CC1CC(CN1CCCC2=NOC3=C2C=CC(=C3)F)NS(=O)(=O)C4=CC5=C(C=C4)C=C(C=C5)Cl

> <PUBCHEM_OPENEYE_ISO_SMILES>
C[C@H]1C[C@@H](CN1CCCC2=NOC3=C2C=CC(=C3)F)NS(=O)(=O)C4=CC5=C(C=C4)C=C(C=C5)Cl

> <PUBCHEM_CACTVS_TPSA>
83.8

> <PUBCHEM_MONOISOTOPIC_WEIGHT>
501.1289187

> <PUBCHEM_TOTAL_CHARGE>
0

> <PUBCHEM_HEAVY_ATOM_COUNT>
34

> <PUBCHEM_ATOM_DEF_STEREO_COUNT>
2

> <PUBCHEM_ATOM_UDEF_STEREO_COUNT>
0

> <PUBCHEM_BOND_DEF_STEREO_COUNT>
0

> <PUBCHEM_BOND_UDEF_STEREO_COUNT>
0

> <PUBCHEM_ISOTOPIC_ATOM_COUNT>
0

> <PUBCHEM_COMPONENT_COUNT>
1

> <PUBCHEM_CACTVS_TAUTO_COUNT>
-1

> <PUBCHEM_COORDINATE_TYPE>
1
5
255

> <PUBCHEM_BONDANNOTATIONS>
10  15  5
18  20  8
18  21  8
19  22  8
20  23  8
21  24  8
22  26  8
22  27  8
23  25  8
23  28  8
24  25  8
25  29  8
26  30  8
27  31  8
28  32  8
29  34  8
30  33  8
31  33  8
32  34  8
6  26  8
6  9  8
11  8  6
9  19  8

$$$$
