66801028
  -OEChem-09292322342D

 57 60  0     0  0  0  0  0  0999 V2000
    9.3653    1.4667    0.0000 S   0  0  0  0  0  0  0  0  0  0  0  0
    2.0000   -6.4536    0.0000 F   0  0  0  0  0  0  0  0  0  0  0  0
   12.5649    5.6813    0.0000 F   0  0  0  0  0  0  0  0  0  0  0  0
   11.3802    6.4536    0.0000 F   0  0  0  0  0  0  0  0  0  0  0  0
   11.7927    4.4965    0.0000 F   0  0  0  0  0  0  0  0  0  0  0  0
    5.5443   -6.2583    0.0000 O   0  0  0  0  0  0  0  0  0  0  0  0
   10.3158    1.1561    0.0000 O   0  0  0  0  0  0  0  0  0  0  0  0
    8.4148    1.7774    0.0000 O   0  0  0  0  0  0  0  0  0  0  0  0
   10.6079    5.2688    0.0000 O   0  0  0  0  0  0  0  0  0  0  0  0
    6.4763   -1.7973    0.0000 N   0  0  0  0  0  0  0  0  0  0  0  0
    6.1279   -5.4536    0.0000 N   0  0  0  0  0  0  0  0  0  0  0  0
    9.0546    0.5162    0.0000 N   0  0  0  0  0  0  0  0  0  0  0  0
    5.8550   -3.6983    0.0000 C   0  0  0  0  0  0  0  0  0  0  0  0
    5.1871   -2.9540    0.0000 C   0  0  0  0  0  0  0  0  0  0  0  0
    6.8335   -3.4921    0.0000 C   0  0  0  0  0  0  0  0  0  0  0  0
    5.4978   -2.0035    0.0000 C   0  0  0  0  0  0  0  0  0  0  0  0
    7.1441   -2.5416    0.0000 C   0  0  0  0  0  0  0  0  0  0  0  0
    6.7870   -0.8467    0.0000 C   0  0  0  0  0  0  0  0  0  0  0  0
    5.5443   -4.6488    0.0000 C   0  0  0  0  0  0  0  0  0  0  0  0
    7.7654   -0.6405    0.0000 C   0  0  0  0  0  0  0  0  0  0  0  0
    4.5981   -4.9536    0.0000 C   0  0  0  0  0  0  0  0  0  0  0  0
    8.0761    0.3100    0.0000 C   0  0  0  0  0  0  0  0  0  0  0  0
    4.5981   -5.9536    0.0000 C   0  0  0  0  0  0  0  0  0  0  0  0
    3.7320   -4.4536    0.0000 C   0  0  0  0  0  0  0  0  0  0  0  0
    3.7320   -6.4536    0.0000 C   0  0  0  0  0  0  0  0  0  0  0  0
    2.8660   -4.9536    0.0000 C   0  0  0  0  0  0  0  0  0  0  0  0
    2.8660   -5.9536    0.0000 C   0  0  0  0  0  0  0  0  0  0  0  0
    9.6759    2.4173    0.0000 C   0  0  0  0  0  0  0  0  0  0  0  0
   10.6545    2.6235    0.0000 C   0  0  0  0  0  0  0  0  0  0  0  0
    9.0081    3.1616    0.0000 C   0  0  0  0  0  0  0  0  0  0  0  0
   10.9651    3.5740    0.0000 C   0  0  0  0  0  0  0  0  0  0  0  0
    9.3188    4.1121    0.0000 C   0  0  0  0  0  0  0  0  0  0  0  0
   10.2973    4.3183    0.0000 C   0  0  0  0  0  0  0  0  0  0  0  0
   11.5864    5.4750    0.0000 C   0  0  0  0  0  0  0  0  0  0  0  0
    6.2690   -4.1598    0.0000 H   0  0  0  0  0  0  0  0  0  0  0  0
    4.6402   -2.6620    0.0000 H   0  0  0  0  0  0  0  0  0  0  0  0
    4.8046   -3.4419    0.0000 H   0  0  0  0  0  0  0  0  0  0  0  0
    6.8540   -4.1117    0.0000 H   0  0  0  0  0  0  0  0  0  0  0  0
    7.4473   -3.5794    0.0000 H   0  0  0  0  0  0  0  0  0  0  0  0
    5.4772   -1.3838    0.0000 H   0  0  0  0  0  0  0  0  0  0  0  0
    4.8840   -1.9161    0.0000 H   0  0  0  0  0  0  0  0  0  0  0  0
    7.6910   -2.8336    0.0000 H   0  0  0  0  0  0  0  0  0  0  0  0
    7.5267   -2.0537    0.0000 H   0  0  0  0  0  0  0  0  0  0  0  0
    6.7664   -0.2271    0.0000 H   0  0  0  0  0  0  0  0  0  0  0  0
    6.1731   -0.7594    0.0000 H   0  0  0  0  0  0  0  0  0  0  0  0
    7.7860   -1.2602    0.0000 H   0  0  0  0  0  0  0  0  0  0  0  0
    8.3793   -0.7279    0.0000 H   0  0  0  0  0  0  0  0  0  0  0  0
    8.0556    0.9297    0.0000 H   0  0  0  0  0  0  0  0  0  0  0  0
    7.4623    0.3974    0.0000 H   0  0  0  0  0  0  0  0  0  0  0  0
    3.7320   -3.8336    0.0000 H   0  0  0  0  0  0  0  0  0  0  0  0
    9.4687    0.0548    0.0000 H   0  0  0  0  0  0  0  0  0  0  0  0
    3.7320   -7.0736    0.0000 H   0  0  0  0  0  0  0  0  0  0  0  0
    2.3291   -4.6436    0.0000 H   0  0  0  0  0  0  0  0  0  0  0  0
   11.0685    2.1620    0.0000 H   0  0  0  0  0  0  0  0  0  0  0  0
    8.4014    3.0337    0.0000 H   0  0  0  0  0  0  0  0  0  0  0  0
   11.5718    3.7019    0.0000 H   0  0  0  0  0  0  0  0  0  0  0  0
    8.9047    4.5736    0.0000 H   0  0  0  0  0  0  0  0  0  0  0  0
  1  7  2  0  0  0  0
  1  8  2  0  0  0  0
  1 12  1  0  0  0  0
  1 28  1  0  0  0  0
  2 27  1  0  0  0  0
  3 34  1  0  0  0  0
  4 34  1  0  0  0  0
  5 34  1  0  0  0  0
  6 11  1  0  0  0  0
  6 23  1  0  0  0  0
  9 33  1  0  0  0  0
  9 34  1  0  0  0  0
 10 16  1  0  0  0  0
 10 17  1  0  0  0  0
 10 18  1  0  0  0  0
 11 19  2  0  0  0  0
 12 22  1  0  0  0  0
 12 51  1  0  0  0  0
 13 14  1  0  0  0  0
 13 15  1  0  0  0  0
 13 19  1  0  0  0  0
 13 35  1  0  0  0  0
 14 16  1  0  0  0  0
 14 36  1  0  0  0  0
 14 37  1  0  0  0  0
 15 17  1  0  0  0  0
 15 38  1  0  0  0  0
 15 39  1  0  0  0  0
 16 40  1  0  0  0  0
 16 41  1  0  0  0  0
 17 42  1  0  0  0  0
 17 43  1  0  0  0  0
 18 20  1  0  0  0  0
 18 44  1  0  0  0  0
 18 45  1  0  0  0  0
 19 21  1  0  0  0  0
 20 22  1  0  0  0  0
 20 46  1  0  0  0  0
 20 47  1  0  0  0  0
 21 23  2  0  0  0  0
 21 24  1  0  0  0  0
 22 48  1  0  0  0  0
 22 49  1  0  0  0  0
 23 25  1  0  0  0  0
 24 26  2  0  0  0  0
 24 50  1  0  0  0  0
 25 27  2  0  0  0  0
 25 52  1  0  0  0  0
 26 27  1  0  0  0  0
 26 53  1  0  0  0  0
 28 29  2  0  0  0  0
 28 30  1  0  0  0  0
 29 31  1  0  0  0  0
 29 54  1  0  0  0  0
 30 32  2  0  0  0  0
 30 55  1  0  0  0  0
 31 33  2  0  0  0  0
 31 56  1  0  0  0  0
 32 33  1  0  0  0  0
 32 57  1  0  0  0  0
M  END
> <PUBCHEM_COMPOUND_CID>
66801028

> <PUBCHEM_COMPOUND_CANONICALIZED>
1

> <PUBCHEM_CACTVS_COMPLEXITY>
750

> <PUBCHEM_CACTVS_HBOND_ACCEPTOR>
11

> <PUBCHEM_CACTVS_HBOND_DONOR>
1

> <PUBCHEM_CACTVS_ROTATABLE_BOND>
8

> <PUBCHEM_CACTVS_SUBSKEYS>
AAADceB7OcBAAAAAAAAAAAAAAAAAAWAAAAA8YIAAAAAAAFgB9AAAHwQUQAAADQzB3hwwh9NQBAKpA6RyQnDCCBAkIAAomLk+TNoMJrqE9ZuEMaBm0BmI6ceYyOCOAIAAAAAIAAABAAAAABAAAAAAAAAAAA==

> <PUBCHEM_IUPAC_OPENEYE_NAME>
N-[3-[4-(6-fluoro-1,2-benzoxazol-3-yl)-1-piperidyl]propyl]-4-(trifluoromethoxy)benzenesulfonamide

> <PUBCHEM_IUPAC_CAS_NAME>
N-[3-[4-(6-fluoro-1,2-benzoxazol-3-yl)-1-piperidinyl]propyl]-4-(trifluoromethoxy)benzenesulfonamide

> <PUBCHEM_IUPAC_NAME_MARKUP>
<I>N</I>-[3-[4-(6-fluoro-1,2-benzoxazol-3-yl)piperidin-1-yl]propyl]-4-(trifluoromethoxy)benzenesulfonamide

> <PUBCHEM_IUPAC_NAME>
N-[3-[4-(6-fluoro-1,2-benzoxazol-3-yl)piperidin-1-yl]propyl]-4-(trifluoromethoxy)benzenesulfonamide

> <PUBCHEM_IUPAC_SYSTEMATIC_NAME>
N-[3-[4-(6-fluoranyl-1,2-benzoxazol-3-yl)piperidin-1-yl]propyl]-4-(trifluoromethyloxy)benzenesulfonamide

> <PUBCHEM_IUPAC_TRADITIONAL_NAME>
N-[3-[4-(6-fluoroindoxazen-3-yl)piperidino]propyl]-4-(trifluoromethoxy)benzenesulfonamide

> <PUBCHEM_IUPAC_INCHI>
InChI=1S/C22H23F4N3O4S/c23-16-2-7-19-20(14-16)33-28-21(19)15-8-12-29(13-9-15)11-1-10-27-34(30,31)18-5-3-17(4-6-18)32-22(24,25)26/h2-7,14-15,27H,1,8-13H2

> <PUBCHEM_IUPAC_INCHIKEY>
XRUQWQMSCMPGRN-UHFFFAOYSA-N

> <PUBCHEM_XLOGP3_AA>
4.6

> <PUBCHEM_EXACT_MASS>
501.13454005

> <PUBCHEM_MOLECULAR_FORMULA>
C22H23F4N3O4S

> <PUBCHEM_MOLECULAR_WEIGHT>
501.5

> <PUBCHEM_OPENEYE_CAN_SMILES>
C1CN(CCC1C2=NOC3=C2C=CC(=C3)F)CCCNS(=O)(=O)C4=CC=C(C=C4)OC(F)(F)F

> <PUBCHEM_OPENEYE_ISO_SMILES>
C1CN(CCC1C2=NOC3=C2C=CC(=C3)F)CCCNS(=O)(=O)C4=CC=C(C=C4)OC(F)(F)F

> <PUBCHEM_CACTVS_TPSA>
93

> <PUBCHEM_MONOISOTOPIC_WEIGHT>
501.13454005

> <PUBCHEM_TOTAL_CHARGE>
0

> <PUBCHEM_HEAVY_ATOM_COUNT>
34

> <PUBCHEM_ATOM_DEF_STEREO_COUNT>
0

> <PUBCHEM_ATOM_UDEF_STEREO_COUNT>
0

> <PUBCHEM_BOND_DEF_STEREO_COUNT>
0

> <PUBCHEM_BOND_UDEF_STEREO_COUNT>
0

> <PUBCHEM_ISOTOPIC_ATOM_COUNT>
0

> <PUBCHEM_COMPONENT_COUNT>
1

> <PUBCHEM_CACTVS_TAUTO_COUNT>
-1

> <PUBCHEM_COORDINATE_TYPE>
1
5
255

> <PUBCHEM_BONDANNOTATIONS>
11  19  8
19  21  8
21  23  8
21  24  8
23  25  8
24  26  8
25  27  8
26  27  8
28  29  8
28  30  8
29  31  8
30  32  8
31  33  8
32  33  8
6  11  8
6  23  8

$$$$
