10692886
  -OEChem-09292321592D

 61 64  0     0  0  0  0  0  0999 V2000
   10.6718   -1.9404    0.0000 O   0  0  0  0  0  0  0  0  0  0  0  0
    4.5961    1.5362    0.0000 O   0  0  0  0  0  0  0  0  0  0  0  0
   15.9339   -1.9162    0.0000 O   0  0  0  0  0  0  0  0  0  0  0  0
    6.3397   -1.4571    0.0000 N   0  0  0  0  0  0  0  0  0  0  0  0
    4.6038   -0.4638    0.0000 N   0  0  0  0  0  0  0  0  0  0  0  0
   14.2019   -1.9162    0.0000 N   0  0  0  0  0  0  0  0  0  0  0  0
    6.3359   -0.4571    0.0000 C   0  0  0  0  0  0  0  0  0  0  0  0
    5.4756   -1.9604    0.0000 C   0  0  0  0  0  0  0  0  0  0  0  0
    5.4679    0.0396    0.0000 C   0  0  0  0  0  0  0  0  0  0  0  0
    4.6077   -1.4638    0.0000 C   0  0  0  0  0  0  0  0  0  0  0  0
    7.2077   -1.9537    0.0000 C   0  0  0  0  0  0  0  0  0  0  0  0
    8.0718   -1.4504    0.0000 C   0  0  0  0  0  0  0  0  0  0  0  0
    3.7359    0.0329    0.0000 C   0  0  0  0  0  0  0  0  0  0  0  0
    8.9397   -1.9470    0.0000 C   0  0  0  0  0  0  0  0  0  0  0  0
    9.8038   -1.4437    0.0000 C   0  0  0  0  0  0  0  0  0  0  0  0
    3.7320    1.0329    0.0000 C   0  0  0  0  0  0  0  0  0  0  0  0
    2.8718   -0.4704    0.0000 C   0  0  0  0  0  0  0  0  0  0  0  0
    2.8641    1.5296    0.0000 C   0  0  0  0  0  0  0  0  0  0  0  0
    2.0038    0.0262    0.0000 C   0  0  0  0  0  0  0  0  0  0  0  0
   13.3359   -0.4162    0.0000 C   0  0  0  0  0  0  0  0  0  0  0  0
   14.2019    0.0838    0.0000 C   0  0  0  0  0  0  0  0  0  0  0  0
   13.3359   -1.4162    0.0000 C   0  0  0  0  0  0  0  0  0  0  0  0
   11.5358   -1.4370    0.0000 C   0  0  0  0  0  0  0  0  0  0  0  0
    2.0000    1.0262    0.0000 C   0  0  0  0  0  0  0  0  0  0  0  0
   15.0679   -0.4162    0.0000 C   0  0  0  0  0  0  0  0  0  0  0  0
   12.4419   -1.9509    0.0000 C   0  0  0  0  0  0  0  0  0  0  0  0
   12.4419    0.1184    0.0000 C   0  0  0  0  0  0  0  0  0  0  0  0
   11.5358   -0.3954    0.0000 C   0  0  0  0  0  0  0  0  0  0  0  0
   15.0679   -1.4162    0.0000 C   0  0  0  0  0  0  0  0  0  0  0  0
    4.5923    2.5362    0.0000 C   0  0  0  0  0  0  0  0  0  0  0  0
    6.9469   -0.5624    0.0000 H   0  0  0  0  0  0  0  0  0  0  0  0
    6.5457    0.1263    0.0000 H   0  0  0  0  0  0  0  0  0  0  0  0
    5.0789   -2.4369    0.0000 H   0  0  0  0  0  0  0  0  0  0  0  0
    5.8760   -2.4338    0.0000 H   0  0  0  0  0  0  0  0  0  0  0  0
    5.8646    0.5161    0.0000 H   0  0  0  0  0  0  0  0  0  0  0  0
    5.0676    0.5130    0.0000 H   0  0  0  0  0  0  0  0  0  0  0  0
    3.9967   -1.3584    0.0000 H   0  0  0  0  0  0  0  0  0  0  0  0
    4.3979   -2.0472    0.0000 H   0  0  0  0  0  0  0  0  0  0  0  0
    6.8110   -2.4302    0.0000 H   0  0  0  0  0  0  0  0  0  0  0  0
    7.6080   -2.4271    0.0000 H   0  0  0  0  0  0  0  0  0  0  0  0
    8.4685   -0.9739    0.0000 H   0  0  0  0  0  0  0  0  0  0  0  0
    7.6714   -0.9770    0.0000 H   0  0  0  0  0  0  0  0  0  0  0  0
    8.5430   -2.4235    0.0000 H   0  0  0  0  0  0  0  0  0  0  0  0
    9.3401   -2.4205    0.0000 H   0  0  0  0  0  0  0  0  0  0  0  0
   10.2005   -0.9672    0.0000 H   0  0  0  0  0  0  0  0  0  0  0  0
    9.4034   -0.9703    0.0000 H   0  0  0  0  0  0  0  0  0  0  0  0
    2.8742   -1.0904    0.0000 H   0  0  0  0  0  0  0  0  0  0  0  0
    2.8617    2.1496    0.0000 H   0  0  0  0  0  0  0  0  0  0  0  0
    1.4681   -0.2858    0.0000 H   0  0  0  0  0  0  0  0  0  0  0  0
   14.6004    0.5587    0.0000 H   0  0  0  0  0  0  0  0  0  0  0  0
   13.8034    0.5587    0.0000 H   0  0  0  0  0  0  0  0  0  0  0  0
   15.6785   -0.5239    0.0000 H   0  0  0  0  0  0  0  0  0  0  0  0
   15.2800    0.1664    0.0000 H   0  0  0  0  0  0  0  0  0  0  0  0
    1.4619    1.3342    0.0000 H   0  0  0  0  0  0  0  0  0  0  0  0
   12.4491   -2.5708    0.0000 H   0  0  0  0  0  0  0  0  0  0  0  0
   12.4491    0.7384    0.0000 H   0  0  0  0  0  0  0  0  0  0  0  0
   11.0001   -0.0833    0.0000 H   0  0  0  0  0  0  0  0  0  0  0  0
   14.2019   -2.5362    0.0000 H   0  0  0  0  0  0  0  0  0  0  0  0
    5.2123    2.5386    0.0000 H   0  0  0  0  0  0  0  0  0  0  0  0
    4.5899    3.1562    0.0000 H   0  0  0  0  0  0  0  0  0  0  0  0
    3.9723    2.5338    0.0000 H   0  0  0  0  0  0  0  0  0  0  0  0
  1 15  1  0  0  0  0
  1 23  1  0  0  0  0
  2 16  1  0  0  0  0
  2 30  1  0  0  0  0
  3 29  2  0  0  0  0
  4  7  1  0  0  0  0
  4  8  1  0  0  0  0
  4 11  1  0  0  0  0
  5  9  1  0  0  0  0
  5 10  1  0  0  0  0
  5 13  1  0  0  0  0
  6 22  1  0  0  0  0
  6 29  1  0  0  0  0
  6 58  1  0  0  0  0
  7  9  1  0  0  0  0
  7 31  1  0  0  0  0
  7 32  1  0  0  0  0
  8 10  1  0  0  0  0
  8 33  1  0  0  0  0
  8 34  1  0  0  0  0
  9 35  1  0  0  0  0
  9 36  1  0  0  0  0
 10 37  1  0  0  0  0
 10 38  1  0  0  0  0
 11 12  1  0  0  0  0
 11 39  1  0  0  0  0
 11 40  1  0  0  0  0
 12 14  1  0  0  0  0
 12 41  1  0  0  0  0
 12 42  1  0  0  0  0
 13 16  1  0  0  0  0
 13 17  2  0  0  0  0
 14 15  1  0  0  0  0
 14 43  1  0  0  0  0
 14 44  1  0  0  0  0
 15 45  1  0  0  0  0
 15 46  1  0  0  0  0
 16 18  2  0  0  0  0
 17 19  1  0  0  0  0
 17 47  1  0  0  0  0
 18 24  1  0  0  0  0
 18 48  1  0  0  0  0
 19 24  2  0  0  0  0
 19 49  1  0  0  0  0
 20 21  1  0  0  0  0
 20 22  2  0  0  0  0
 20 27  1  0  0  0  0
 21 25  1  0  0  0  0
 21 50  1  0  0  0  0
 21 51  1  0  0  0  0
 22 26  1  0  0  0  0
 23 26  2  0  0  0  0
 23 28  1  0  0  0  0
 24 54  1  0  0  0  0
 25 29  1  0  0  0  0
 25 52  1  0  0  0  0
 25 53  1  0  0  0  0
 26 55  1  0  0  0  0
 27 28  2  0  0  0  0
 27 56  1  0  0  0  0
 28 57  1  0  0  0  0
 30 59  1  0  0  0  0
 30 60  1  0  0  0  0
 30 61  1  0  0  0  0
M  END
> <PUBCHEM_COMPOUND_CID>
10692886

> <PUBCHEM_COMPOUND_CANONICALIZED>
1

> <PUBCHEM_CACTVS_COMPLEXITY>
538

> <PUBCHEM_CACTVS_HBOND_ACCEPTOR>
5

> <PUBCHEM_CACTVS_HBOND_DONOR>
1

> <PUBCHEM_CACTVS_ROTATABLE_BOND>
8

> <PUBCHEM_CACTVS_SUBSKEYS>
AAADceB7MAAAAAAAAAAAAAAAAAAAAAAAAAA8eIEAAAAAAACxQAAAHgAQAAAADAzhmAYyxoPABACIAiVSUACCCAAhIgAIiAEPbIgOZjLEsZuXOCjm1BnY6Ae42aOeIAAAAgACEABAAAAEAAQgAAAAAAAAAA==

> <PUBCHEM_IUPAC_OPENEYE_NAME>
7-[4-[4-(2-methoxyphenyl)piperazin-1-yl]butoxy]-3,4-dihydro-1H-quinolin-2-one

> <PUBCHEM_IUPAC_CAS_NAME>
7-[4-[4-(2-methoxyphenyl)-1-piperazinyl]butoxy]-3,4-dihydro-1H-quinolin-2-one

> <PUBCHEM_IUPAC_NAME_MARKUP>
7-[4-[4-(2-methoxyphenyl)piperazin-1-yl]butoxy]-3,4-dihydro-1<I>H</I>-quinolin-2-one

> <PUBCHEM_IUPAC_NAME>
7-[4-[4-(2-methoxyphenyl)piperazin-1-yl]butoxy]-3,4-dihydro-1H-quinolin-2-one

> <PUBCHEM_IUPAC_SYSTEMATIC_NAME>
7-[4-[4-(2-methoxyphenyl)piperazin-1-yl]butoxy]-3,4-dihydro-1H-quinolin-2-one

> <PUBCHEM_IUPAC_TRADITIONAL_NAME>
7-[4-[4-(2-methoxyphenyl)piperazino]butoxy]-3,4-dihydrocarbostyril

> <PUBCHEM_IUPAC_INCHI>
InChI=1S/C24H31N3O3/c1-29-23-7-3-2-6-22(23)27-15-13-26(14-16-27)12-4-5-17-30-20-10-8-19-9-11-24(28)25-21(19)18-20/h2-3,6-8,10,18H,4-5,9,11-17H2,1H3,(H,25,28)

> <PUBCHEM_IUPAC_INCHIKEY>
HVSUPPZVIPTMEM-UHFFFAOYSA-N

> <PUBCHEM_XLOGP3_AA>
3.4

> <PUBCHEM_EXACT_MASS>
409.23654186

> <PUBCHEM_MOLECULAR_FORMULA>
C24H31N3O3

> <PUBCHEM_MOLECULAR_WEIGHT>
409.5

> <PUBCHEM_OPENEYE_CAN_SMILES>
COC1=CC=CC=C1N2CCN(CC2)CCCCOC3=CC4=C(CCC(=O)N4)C=C3

> <PUBCHEM_OPENEYE_ISO_SMILES>
COC1=CC=CC=C1N2CCN(CC2)CCCCOC3=CC4=C(CCC(=O)N4)C=C3

> <PUBCHEM_CACTVS_TPSA>
54

> <PUBCHEM_MONOISOTOPIC_WEIGHT>
409.23654186

> <PUBCHEM_TOTAL_CHARGE>
0

> <PUBCHEM_HEAVY_ATOM_COUNT>
30

> <PUBCHEM_ATOM_DEF_STEREO_COUNT>
0

> <PUBCHEM_ATOM_UDEF_STEREO_COUNT>
0

> <PUBCHEM_BOND_DEF_STEREO_COUNT>
0

> <PUBCHEM_BOND_UDEF_STEREO_COUNT>
0

> <PUBCHEM_ISOTOPIC_ATOM_COUNT>
0

> <PUBCHEM_COMPONENT_COUNT>
1

> <PUBCHEM_CACTVS_TAUTO_COUNT>
-1

> <PUBCHEM_COORDINATE_TYPE>
1
5
255

> <PUBCHEM_BONDANNOTATIONS>
13  16  8
13  17  8
16  18  8
17  19  8
18  24  8
19  24  8
20  22  8
20  27  8
22  26  8
23  26  8
23  28  8
27  28  8

$$$$
