11630058
  -OEChem-09292322492D

 36 37  0     1  0  0  0  0  0999 V2000
    9.4315    1.0055    0.0000 O   0  0  0  0  0  0  0  0  0  0  0  0
    7.7852    1.5436    0.0000 O   0  0  0  0  0  0  0  0  0  0  0  0
    7.1962   -1.4560    0.0000 N   0  0  0  0  0  0  0  0  0  0  0  0
    4.5981    0.0440    0.0000 N   0  0  0  0  0  0  0  0  0  0  0  0
    8.1424   -1.7607    0.0000 N   0  0  0  0  0  0  0  0  0  0  0  0
    5.4641   -0.4560    0.0000 C   0  0  3  0  0  0  0  0  0  0  0  0
    5.4641   -1.4560    0.0000 C   0  0  0  0  0  0  0  0  0  0  0  0
    6.3301    0.0440    0.0000 C   0  0  0  0  0  0  0  0  0  0  0  0
    6.3301   -1.9560    0.0000 C   0  0  0  0  0  0  0  0  0  0  0  0
    7.1962   -0.4560    0.0000 C   0  0  0  0  0  0  0  0  0  0  0  0
    8.1424   -0.1513    0.0000 C   0  0  0  0  0  0  0  0  0  0  0  0
    3.7320   -0.4560    0.0000 C   0  0  0  0  0  0  0  0  0  0  0  0
    8.7260   -0.9560    0.0000 C   0  0  0  0  0  0  0  0  0  0  0  0
    2.8660    0.0440    0.0000 C   0  0  0  0  0  0  0  0  0  0  0  0
    8.4530    0.7993    0.0000 C   0  0  0  0  0  0  0  0  0  0  0  0
    2.0000   -0.4560    0.0000 C   0  0  0  0  0  0  0  0  0  0  0  0
    9.7422    1.9560    0.0000 C   0  0  0  0  0  0  0  0  0  0  0  0
    5.4641    0.1640    0.0000 H   0  0  0  0  0  0  0  0  0  0  0  0
    4.8535   -1.3483    0.0000 H   0  0  0  0  0  0  0  0  0  0  0  0
    5.2520   -2.0386    0.0000 H   0  0  0  0  0  0  0  0  0  0  0  0
    6.7287    0.5190    0.0000 H   0  0  0  0  0  0  0  0  0  0  0  0
    5.9316    0.5190    0.0000 H   0  0  0  0  0  0  0  0  0  0  0  0
    5.9316   -2.4309    0.0000 H   0  0  0  0  0  0  0  0  0  0  0  0
    6.7287   -2.4309    0.0000 H   0  0  0  0  0  0  0  0  0  0  0  0
    4.5981    0.6640    0.0000 H   0  0  0  0  0  0  0  0  0  0  0  0
    3.3335   -0.9309    0.0000 H   0  0  0  0  0  0  0  0  0  0  0  0
    4.1306   -0.9309    0.0000 H   0  0  0  0  0  0  0  0  0  0  0  0
    9.3460   -0.9560    0.0000 H   0  0  0  0  0  0  0  0  0  0  0  0
    3.2646    0.5190    0.0000 H   0  0  0  0  0  0  0  0  0  0  0  0
    2.4675    0.5190    0.0000 H   0  0  0  0  0  0  0  0  0  0  0  0
    1.6900    0.0809    0.0000 H   0  0  0  0  0  0  0  0  0  0  0  0
    1.4631   -0.7660    0.0000 H   0  0  0  0  0  0  0  0  0  0  0  0
    2.3100   -0.9929    0.0000 H   0  0  0  0  0  0  0  0  0  0  0  0
   10.3315    1.7634    0.0000 H   0  0  0  0  0  0  0  0  0  0  0  0
    9.9348    2.5453    0.0000 H   0  0  0  0  0  0  0  0  0  0  0  0
    9.1529    2.1486    0.0000 H   0  0  0  0  0  0  0  0  0  0  0  0
  1 15  1  0  0  0  0
  1 17  1  0  0  0  0
  2 15  2  0  0  0  0
  3  5  1  0  0  0  0
  3  9  1  0  0  0  0
  3 10  1  0  0  0  0
  4  6  1  0  0  0  0
  4 12  1  0  0  0  0
  4 25  1  0  0  0  0
  5 13  2  0  0  0  0
  6  7  1  0  0  0  0
  6  8  1  0  0  0  0
  6 18  1  0  0  0  0
  7  9  1  0  0  0  0
  7 19  1  0  0  0  0
  7 20  1  0  0  0  0
  8 10  1  0  0  0  0
  8 21  1  0  0  0  0
  8 22  1  0  0  0  0
  9 23  1  0  0  0  0
  9 24  1  0  0  0  0
 10 11  2  0  0  0  0
 11 13  1  0  0  0  0
 11 15  1  0  0  0  0
 12 14  1  0  0  0  0
 12 26  1  0  0  0  0
 12 27  1  0  0  0  0
 13 28  1  0  0  0  0
 14 16  1  0  0  0  0
 14 29  1  0  0  0  0
 14 30  1  0  0  0  0
 16 31  1  0  0  0  0
 16 32  1  0  0  0  0
 16 33  1  0  0  0  0
 17 34  1  0  0  0  0
 17 35  1  0  0  0  0
 17 36  1  0  0  0  0
M  END
> <PUBCHEM_COMPOUND_CID>
11630058

> <PUBCHEM_COMPOUND_CANONICALIZED>
1

> <PUBCHEM_CACTVS_COMPLEXITY>
273

> <PUBCHEM_CACTVS_HBOND_ACCEPTOR>
4

> <PUBCHEM_CACTVS_HBOND_DONOR>
1

> <PUBCHEM_CACTVS_ROTATABLE_BOND>
5

> <PUBCHEM_CACTVS_SUBSKEYS>
AAADceBzMAAAAAAAAAAAAAAAAAAAAWAAAAAsAAAAAAAAAFgBgAAAHgAYAAAADCjBngYuiJLIBACqAxT3TACQBAAlgAAQWKE4TFgAJppA8MmElYhmmADIacOY2WOcAAAAAAAAAAAAAAAAAAAAAAAAAAAAAA==

> <PUBCHEM_IUPAC_OPENEYE_NAME>
methyl 5-(propylamino)-4,5,6,7-tetrahydropyrazolo[1,5-a]pyridine-3-carboxylate

> <PUBCHEM_IUPAC_CAS_NAME>
5-(propylamino)-4,5,6,7-tetrahydropyrazolo[1,5-a]pyridine-3-carboxylic acid methyl ester

> <PUBCHEM_IUPAC_NAME_MARKUP>
methyl 5-(propylamino)-4,5,6,7-tetrahydropyrazolo[1,5-a]pyridine-3-carboxylate

> <PUBCHEM_IUPAC_NAME>
methyl 5-(propylamino)-4,5,6,7-tetrahydropyrazolo[1,5-a]pyridine-3-carboxylate

> <PUBCHEM_IUPAC_SYSTEMATIC_NAME>
methyl 5-(propylamino)-4,5,6,7-tetrahydropyrazolo[1,5-a]pyridine-3-carboxylate

> <PUBCHEM_IUPAC_TRADITIONAL_NAME>
5-(propylamino)-4,5,6,7-tetrahydropyrazolo[1,5-a]pyridine-3-carboxylic acid methyl ester

> <PUBCHEM_IUPAC_INCHI>
InChI=1S/C12H19N3O2/c1-3-5-13-9-4-6-15-11(7-9)10(8-14-15)12(16)17-2/h8-9,13H,3-7H2,1-2H3

> <PUBCHEM_IUPAC_INCHIKEY>
YTVZWXSONDLPSZ-UHFFFAOYSA-N

> <PUBCHEM_XLOGP3_AA>
1

> <PUBCHEM_EXACT_MASS>
237.147726857

> <PUBCHEM_MOLECULAR_FORMULA>
C12H19N3O2

> <PUBCHEM_MOLECULAR_WEIGHT>
237.30

> <PUBCHEM_OPENEYE_CAN_SMILES>
CCCNC1CCN2C(=C(C=N2)C(=O)OC)C1

> <PUBCHEM_OPENEYE_ISO_SMILES>
CCCNC1CCN2C(=C(C=N2)C(=O)OC)C1

> <PUBCHEM_CACTVS_TPSA>
56.2

> <PUBCHEM_MONOISOTOPIC_WEIGHT>
237.147726857

> <PUBCHEM_TOTAL_CHARGE>
0

> <PUBCHEM_HEAVY_ATOM_COUNT>
17

> <PUBCHEM_ATOM_DEF_STEREO_COUNT>
0

> <PUBCHEM_ATOM_UDEF_STEREO_COUNT>
1

> <PUBCHEM_BOND_DEF_STEREO_COUNT>
0

> <PUBCHEM_BOND_UDEF_STEREO_COUNT>
0

> <PUBCHEM_ISOTOPIC_ATOM_COUNT>
0

> <PUBCHEM_COMPONENT_COUNT>
1

> <PUBCHEM_CACTVS_TAUTO_COUNT>
-1

> <PUBCHEM_COORDINATE_TYPE>
1
5
255

> <PUBCHEM_BONDANNOTATIONS>
10  11  8
11  13  8
3  10  8
3  5  8
6  4  3
5  13  8

$$$$
