162669562
  -OEChem-09292322422D

 50 53  0     1  0  0  0  0  0999 V2000
    2.0000   -5.1253    0.0000 Cl  0  0  0  0  0  0  0  0  0  0  0  0
    5.3310    5.4260    0.0000 F   0  0  0  0  0  0  0  0  0  0  0  0
    8.3310    1.9619    0.0000 O   0  0  0  0  0  0  0  0  0  0  0  0
    7.3310   -1.5022    0.0000 N   0  0  0  0  0  0  0  0  0  0  0  0
    5.7588   -3.7572    0.0000 N   0  0  0  0  0  0  0  0  0  0  0  0
    4.6454   -5.0840    0.0000 N   0  0  0  0  0  0  0  0  0  0  0  0
    8.0676   -2.4848    0.0000 C   0  0  3  0  0  0  0  0  0  0  0  0
    7.8088   -3.4507    0.0000 C   0  0  3  0  0  0  0  0  0  0  0  0
    9.4666   -2.9936    0.0000 C   0  0  0  0  0  0  0  0  0  0  0  0
    9.2078   -3.9595    0.0000 C   0  0  0  0  0  0  0  0  0  0  0  0
    6.0344   -2.7959    0.0000 C   0  0  0  0  0  0  0  0  0  0  0  0
    6.5878   -4.3164    0.0000 C   0  0  0  0  0  0  0  0  0  0  0  0
    6.8310   -0.6361    0.0000 C   0  0  0  0  0  0  0  0  0  0  0  0
    7.3310    0.2299    0.0000 C   0  0  0  0  0  0  0  0  0  0  0  0
    4.8191   -4.0992    0.0000 C   0  0  0  0  0  0  0  0  0  0  0  0
    6.8310    1.0959    0.0000 C   0  0  0  0  0  0  0  0  0  0  0  0
    4.0530   -3.4564    0.0000 C   0  0  0  0  0  0  0  0  0  0  0  0
    7.3310    1.9619    0.0000 C   0  0  0  0  0  0  0  0  0  0  0  0
    3.1133   -3.7984    0.0000 C   0  0  0  0  0  0  0  0  0  0  0  0
    3.7057   -5.4260    0.0000 C   0  0  0  0  0  0  0  0  0  0  0  0
    2.9397   -4.7832    0.0000 C   0  0  0  0  0  0  0  0  0  0  0  0
    6.8310    2.8280    0.0000 C   0  0  0  0  0  0  0  0  0  0  0  0
    5.8310    2.8280    0.0000 C   0  0  0  0  0  0  0  0  0  0  0  0
    7.3310    3.6940    0.0000 C   0  0  0  0  0  0  0  0  0  0  0  0
    5.3310    3.6940    0.0000 C   0  0  0  0  0  0  0  0  0  0  0  0
    6.8310    4.5600    0.0000 C   0  0  0  0  0  0  0  0  0  0  0  0
    5.8310    4.5600    0.0000 C   0  0  0  0  0  0  0  0  0  0  0  0
    8.4370   -1.9868    0.0000 H   0  0  0  0  0  0  0  0  0  0  0  0
    7.8916   -4.0652    0.0000 H   0  0  0  0  0  0  0  0  0  0  0  0
   10.0606   -3.1714    0.0000 H   0  0  0  0  0  0  0  0  0  0  0  0
    9.6615   -2.4050    0.0000 H   0  0  0  0  0  0  0  0  0  0  0  0
    9.0128   -4.5481    0.0000 H   0  0  0  0  0  0  0  0  0  0  0  0
    9.8017   -4.1373    0.0000 H   0  0  0  0  0  0  0  0  0  0  0  0
    6.0294   -2.1759    0.0000 H   0  0  0  0  0  0  0  0  0  0  0  0
    5.4201   -2.7121    0.0000 H   0  0  0  0  0  0  0  0  0  0  0  0
    6.1820   -4.7851    0.0000 H   0  0  0  0  0  0  0  0  0  0  0  0
    7.0045   -4.7755    0.0000 H   0  0  0  0  0  0  0  0  0  0  0  0
    6.3561   -0.2376    0.0000 H   0  0  0  0  0  0  0  0  0  0  0  0
    6.3561   -1.0347    0.0000 H   0  0  0  0  0  0  0  0  0  0  0  0
    7.8060   -0.1687    0.0000 H   0  0  0  0  0  0  0  0  0  0  0  0
    7.8060    0.6284    0.0000 H   0  0  0  0  0  0  0  0  0  0  0  0
    6.3561    1.4944    0.0000 H   0  0  0  0  0  0  0  0  0  0  0  0
    6.3561    0.6974    0.0000 H   0  0  0  0  0  0  0  0  0  0  0  0
    4.1607   -2.8458    0.0000 H   0  0  0  0  0  0  0  0  0  0  0  0
    2.6384   -3.3999    0.0000 H   0  0  0  0  0  0  0  0  0  0  0  0
    3.5981   -6.0366    0.0000 H   0  0  0  0  0  0  0  0  0  0  0  0
    5.5210    2.2910    0.0000 H   0  0  0  0  0  0  0  0  0  0  0  0
    7.9510    3.6940    0.0000 H   0  0  0  0  0  0  0  0  0  0  0  0
    4.7110    3.6940    0.0000 H   0  0  0  0  0  0  0  0  0  0  0  0
    7.1410    5.0969    0.0000 H   0  0  0  0  0  0  0  0  0  0  0  0
  1 21  1  0  0  0  0
  2 27  1  0  0  0  0
  3 18  2  0  0  0  0
  4  7  1  0  0  0  0
  4  8  1  0  0  0  0
  4 13  1  0  0  0  0
  5 11  1  0  0  0  0
  5 12  1  0  0  0  0
  5 15  1  0  0  0  0
  6 15  2  0  0  0  0
  6 20  1  0  0  0  0
  7  9  1  0  0  0  0
  7 11  1  0  0  0  0
  7 28  1  0  0  0  0
  8 10  1  0  0  0  0
  8 12  1  0  0  0  0
  8 29  1  0  0  0  0
  9 10  1  0  0  0  0
  9 30  1  0  0  0  0
  9 31  1  0  0  0  0
 10 32  1  0  0  0  0
 10 33  1  0  0  0  0
 11 34  1  0  0  0  0
 11 35  1  0  0  0  0
 12 36  1  0  0  0  0
 12 37  1  0  0  0  0
 13 14  1  0  0  0  0
 13 38  1  0  0  0  0
 13 39  1  0  0  0  0
 14 16  1  0  0  0  0
 14 40  1  0  0  0  0
 14 41  1  0  0  0  0
 15 17  1  0  0  0  0
 16 18  1  0  0  0  0
 16 42  1  0  0  0  0
 16 43  1  0  0  0  0
 17 19  2  0  0  0  0
 17 44  1  0  0  0  0
 18 22  1  0  0  0  0
 19 21  1  0  0  0  0
 19 45  1  0  0  0  0
 20 21  2  0  0  0  0
 20 46  1  0  0  0  0
 22 23  2  0  0  0  0
 22 24  1  0  0  0  0
 23 25  1  0  0  0  0
 23 47  1  0  0  0  0
 24 26  2  0  0  0  0
 24 48  1  0  0  0  0
 25 27  2  0  0  0  0
 25 49  1  0  0  0  0
 26 27  1  0  0  0  0
 26 50  1  0  0  0  0
M  END
> <PUBCHEM_COMPOUND_CID>
162669562

> <PUBCHEM_COMPOUND_CANONICALIZED>
1

> <PUBCHEM_CACTVS_COMPLEXITY>
500

> <PUBCHEM_CACTVS_HBOND_ACCEPTOR>
5

> <PUBCHEM_CACTVS_HBOND_DONOR>
0

> <PUBCHEM_CACTVS_ROTATABLE_BOND>
6

> <PUBCHEM_CACTVS_SUBSKEYS>
AAADceB7IQAEAAAAAAAAAAAAAAAAAWAAAAA8WIAABYAAAAABwAAAHwIAAAAADC7Bmiw9sJMIEACoArJ3ZACCgCk1ByAJ2CE4ZtiIYPLBn5HUIQhogALIyacciICOAAAAAAAAAAAAAAAAAAAAAAAAAAAAAA==

> <PUBCHEM_IUPAC_OPENEYE_NAME>
4-[3-(5-chloro-2-pyridyl)-3,8-diazabicyclo[3.2.1]octan-8-yl]-1-(4-fluorophenyl)butan-1-one

> <PUBCHEM_IUPAC_CAS_NAME>
4-[3-(5-chloro-2-pyridinyl)-3,8-diazabicyclo[3.2.1]octan-8-yl]-1-(4-fluorophenyl)-1-butanone

> <PUBCHEM_IUPAC_NAME_MARKUP>
4-[3-(5-chloropyridin-2-yl)-3,8-diazabicyclo[3.2.1]octan-8-yl]-1-(4-fluorophenyl)butan-1-one

> <PUBCHEM_IUPAC_NAME>
4-[3-(5-chloropyridin-2-yl)-3,8-diazabicyclo[3.2.1]octan-8-yl]-1-(4-fluorophenyl)butan-1-one

> <PUBCHEM_IUPAC_SYSTEMATIC_NAME>
4-[3-(5-chloranylpyridin-2-yl)-3,8-diazabicyclo[3.2.1]octan-8-yl]-1-(4-fluorophenyl)butan-1-one

> <PUBCHEM_IUPAC_TRADITIONAL_NAME>
4-[3-(5-chloro-2-pyridyl)-3,8-diazabicyclo[3.2.1]octan-8-yl]-1-(4-fluorophenyl)butan-1-one

> <PUBCHEM_IUPAC_INCHI>
InChI=1S/C21H23ClFN3O/c22-16-5-10-21(24-12-16)25-13-18-8-9-19(14-25)26(18)11-1-2-20(27)15-3-6-17(23)7-4-15/h3-7,10,12,18-19H,1-2,8-9,11,13-14H2

> <PUBCHEM_IUPAC_INCHIKEY>
UPBSKELQKAHWLX-UHFFFAOYSA-N

> <PUBCHEM_XLOGP3_AA>
4.1

> <PUBCHEM_EXACT_MASS>
387.1513682

> <PUBCHEM_MOLECULAR_FORMULA>
C21H23ClFN3O

> <PUBCHEM_MOLECULAR_WEIGHT>
387.9

> <PUBCHEM_OPENEYE_CAN_SMILES>
C1CC2CN(CC1N2CCCC(=O)C3=CC=C(C=C3)F)C4=NC=C(C=C4)Cl

> <PUBCHEM_OPENEYE_ISO_SMILES>
C1CC2CN(CC1N2CCCC(=O)C3=CC=C(C=C3)F)C4=NC=C(C=C4)Cl

> <PUBCHEM_CACTVS_TPSA>
36.4

> <PUBCHEM_MONOISOTOPIC_WEIGHT>
387.1513682

> <PUBCHEM_TOTAL_CHARGE>
0

> <PUBCHEM_HEAVY_ATOM_COUNT>
27

> <PUBCHEM_ATOM_DEF_STEREO_COUNT>
0

> <PUBCHEM_ATOM_UDEF_STEREO_COUNT>
2

> <PUBCHEM_BOND_DEF_STEREO_COUNT>
0

> <PUBCHEM_BOND_UDEF_STEREO_COUNT>
0

> <PUBCHEM_ISOTOPIC_ATOM_COUNT>
0

> <PUBCHEM_COMPONENT_COUNT>
1

> <PUBCHEM_CACTVS_TAUTO_COUNT>
-1

> <PUBCHEM_COORDINATE_TYPE>
1
5
255

> <PUBCHEM_BONDANNOTATIONS>
15  17  8
17  19  8
19  21  8
20  21  8
22  23  8
22  24  8
23  25  8
24  26  8
25  27  8
26  27  8
6  15  8
6  20  8
7  9  3
8  10  3

$$$$
