44405965
  -OEChem-09292322272D

 56 60  0     0  0  0  0  0  0999 V2000
    4.5981    2.8100    0.0000 Cl  0  0  0  0  0  0  0  0  0  0  0  0
    9.7942    0.8100    0.0000 O   0  0  0  0  0  0  0  0  0  0  0  0
    8.0622   -2.1900    0.0000 O   0  0  0  0  0  0  0  0  0  0  0  0
    6.3301   -0.1900    0.0000 N   0  0  0  0  0  0  0  0  0  0  0  0
    4.5981    0.8100    0.0000 N   0  0  0  0  0  0  0  0  0  0  0  0
    8.9282   -0.6900    0.0000 N   0  0  0  0  0  0  0  0  0  0  0  0
    9.7942   -2.1900    0.0000 N   0  0  0  0  0  0  0  0  0  0  0  0
   11.6065   -1.9947    0.0000 N   0  0  0  0  0  0  0  0  0  0  0  0
    5.4641   -0.6900    0.0000 C   0  0  0  0  0  0  0  0  0  0  0  0
    6.3301    0.8100    0.0000 C   0  0  0  0  0  0  0  0  0  0  0  0
    4.5981   -0.1900    0.0000 C   0  0  0  0  0  0  0  0  0  0  0  0
    5.4641    1.3100    0.0000 C   0  0  0  0  0  0  0  0  0  0  0  0
    7.1962   -0.6900    0.0000 C   0  0  0  0  0  0  0  0  0  0  0  0
    8.0622   -0.1900    0.0000 C   0  0  0  0  0  0  0  0  0  0  0  0
    3.7320    1.3100    0.0000 C   0  0  0  0  0  0  0  0  0  0  0  0
    9.7942   -0.1900    0.0000 C   0  0  0  0  0  0  0  0  0  0  0  0
   10.6603   -0.6900    0.0000 C   0  0  0  0  0  0  0  0  0  0  0  0
    8.9282   -1.6900    0.0000 C   0  0  0  0  0  0  0  0  0  0  0  0
   10.6603   -1.6900    0.0000 C   0  0  0  0  0  0  0  0  0  0  0  0
    3.7320    2.3100    0.0000 C   0  0  0  0  0  0  0  0  0  0  0  0
    2.8660    0.8100    0.0000 C   0  0  0  0  0  0  0  0  0  0  0  0
   11.6065   -0.3853    0.0000 C   0  0  0  0  0  0  0  0  0  0  0  0
   12.1901   -1.1900    0.0000 C   0  0  0  0  0  0  0  0  0  0  0  0
    2.8660    2.8100    0.0000 C   0  0  0  0  0  0  0  0  0  0  0  0
    2.0000    1.3100    0.0000 C   0  0  0  0  0  0  0  0  0  0  0  0
   13.1901   -1.1900    0.0000 C   0  0  0  0  0  0  0  0  0  0  0  0
    2.0000    2.3100    0.0000 C   0  0  0  0  0  0  0  0  0  0  0  0
   13.6901   -2.0560    0.0000 C   0  0  0  0  0  0  0  0  0  0  0  0
   13.6901   -0.3240    0.0000 C   0  0  0  0  0  0  0  0  0  0  0  0
   14.6901   -2.0560    0.0000 C   0  0  0  0  0  0  0  0  0  0  0  0
   14.6901   -0.3240    0.0000 C   0  0  0  0  0  0  0  0  0  0  0  0
   15.1901   -1.1900    0.0000 C   0  0  0  0  0  0  0  0  0  0  0  0
    5.0656   -1.1650    0.0000 H   0  0  0  0  0  0  0  0  0  0  0  0
    5.8626   -1.1650    0.0000 H   0  0  0  0  0  0  0  0  0  0  0  0
    6.9407    0.7023    0.0000 H   0  0  0  0  0  0  0  0  0  0  0  0
    6.5422    1.3926    0.0000 H   0  0  0  0  0  0  0  0  0  0  0  0
    3.9875   -0.0823    0.0000 H   0  0  0  0  0  0  0  0  0  0  0  0
    4.3860   -0.7726    0.0000 H   0  0  0  0  0  0  0  0  0  0  0  0
    5.8626    1.7850    0.0000 H   0  0  0  0  0  0  0  0  0  0  0  0
    5.0656    1.7850    0.0000 H   0  0  0  0  0  0  0  0  0  0  0  0
    6.7976   -1.1650    0.0000 H   0  0  0  0  0  0  0  0  0  0  0  0
    7.5947   -1.1650    0.0000 H   0  0  0  0  0  0  0  0  0  0  0  0
    8.4607    0.2849    0.0000 H   0  0  0  0  0  0  0  0  0  0  0  0
    7.6636    0.2849    0.0000 H   0  0  0  0  0  0  0  0  0  0  0  0
    2.8660    0.1900    0.0000 H   0  0  0  0  0  0  0  0  0  0  0  0
    9.7942   -2.8100    0.0000 H   0  0  0  0  0  0  0  0  0  0  0  0
   11.7991    0.2041    0.0000 H   0  0  0  0  0  0  0  0  0  0  0  0
   11.7991   -2.5840    0.0000 H   0  0  0  0  0  0  0  0  0  0  0  0
    2.8660    3.4300    0.0000 H   0  0  0  0  0  0  0  0  0  0  0  0
    1.4631    1.0000    0.0000 H   0  0  0  0  0  0  0  0  0  0  0  0
    1.4631    2.6200    0.0000 H   0  0  0  0  0  0  0  0  0  0  0  0
   13.3801   -2.5930    0.0000 H   0  0  0  0  0  0  0  0  0  0  0  0
   13.3801    0.2130    0.0000 H   0  0  0  0  0  0  0  0  0  0  0  0
   15.0001   -2.5930    0.0000 H   0  0  0  0  0  0  0  0  0  0  0  0
   15.0001    0.2130    0.0000 H   0  0  0  0  0  0  0  0  0  0  0  0
   15.8101   -1.1900    0.0000 H   0  0  0  0  0  0  0  0  0  0  0  0
  1 20  1  0  0  0  0
  2 16  2  0  0  0  0
  3 18  2  0  0  0  0
  4  9  1  0  0  0  0
  4 10  1  0  0  0  0
  4 13  1  0  0  0  0
  5 11  1  0  0  0  0
  5 12  1  0  0  0  0
  5 15  1  0  0  0  0
  6 14  1  0  0  0  0
  6 16  1  0  0  0  0
  6 18  1  0  0  0  0
  7 18  1  0  0  0  0
  7 19  1  0  0  0  0
  7 46  1  0  0  0  0
  8 19  1  0  0  0  0
  8 23  1  0  0  0  0
  8 48  1  0  0  0  0
  9 11  1  0  0  0  0
  9 33  1  0  0  0  0
  9 34  1  0  0  0  0
 10 12  1  0  0  0  0
 10 35  1  0  0  0  0
 10 36  1  0  0  0  0
 11 37  1  0  0  0  0
 11 38  1  0  0  0  0
 12 39  1  0  0  0  0
 12 40  1  0  0  0  0
 13 14  1  0  0  0  0
 13 41  1  0  0  0  0
 13 42  1  0  0  0  0
 14 43  1  0  0  0  0
 14 44  1  0  0  0  0
 15 20  1  0  0  0  0
 15 21  2  0  0  0  0
 16 17  1  0  0  0  0
 17 19  2  0  0  0  0
 17 22  1  0  0  0  0
 20 24  2  0  0  0  0
 21 25  1  0  0  0  0
 21 45  1  0  0  0  0
 22 23  2  0  0  0  0
 22 47  1  0  0  0  0
 23 26  1  0  0  0  0
 24 27  1  0  0  0  0
 24 49  1  0  0  0  0
 25 27  2  0  0  0  0
 25 50  1  0  0  0  0
 26 28  2  0  0  0  0
 26 29  1  0  0  0  0
 27 51  1  0  0  0  0
 28 30  1  0  0  0  0
 28 52  1  0  0  0  0
 29 31  2  0  0  0  0
 29 53  1  0  0  0  0
 30 32  2  0  0  0  0
 30 54  1  0  0  0  0
 31 32  1  0  0  0  0
 31 55  1  0  0  0  0
 32 56  1  0  0  0  0
M  END
> <PUBCHEM_COMPOUND_CID>
44405965

> <PUBCHEM_COMPOUND_CANONICALIZED>
1

> <PUBCHEM_CACTVS_COMPLEXITY>
679

> <PUBCHEM_CACTVS_HBOND_ACCEPTOR>
4

> <PUBCHEM_CACTVS_HBOND_DONOR>
2

> <PUBCHEM_CACTVS_ROTATABLE_BOND>
5

> <PUBCHEM_CACTVS_SUBSKEYS>
AAADceB7sAAEAAAAAAAAAAAAAAAAAWAAAAA8eIEAAAAAAFgB0AAAHgIQAAAADArBniQx8JPJkACoAydydACCgCmlByAJmSE4ZtiIYPrB15HUIYholyLIyecciMCOAAAAAAAAABAAAAAAAAAAIAAAAAAAAA==

> <PUBCHEM_IUPAC_OPENEYE_NAME>
3-[2-[4-(2-chlorophenyl)piperazin-1-yl]ethyl]-6-phenyl-1,7-dihydropyrrolo[2,3-d]pyrimidine-2,4-dione

> <PUBCHEM_IUPAC_CAS_NAME>
3-[2-[4-(2-chlorophenyl)-1-piperazinyl]ethyl]-6-phenyl-1,7-dihydropyrrolo[2,3-d]pyrimidine-2,4-dione

> <PUBCHEM_IUPAC_NAME_MARKUP>
3-[2-[4-(2-chlorophenyl)piperazin-1-yl]ethyl]-6-phenyl-1,7-dihydropyrrolo[2,3-d]pyrimidine-2,4-dione

> <PUBCHEM_IUPAC_NAME>
3-[2-[4-(2-chlorophenyl)piperazin-1-yl]ethyl]-6-phenyl-1,7-dihydropyrrolo[2,3-d]pyrimidine-2,4-dione

> <PUBCHEM_IUPAC_SYSTEMATIC_NAME>
3-[2-[4-(2-chlorophenyl)piperazin-1-yl]ethyl]-6-phenyl-1,7-dihydropyrrolo[2,3-d]pyrimidine-2,4-dione

> <PUBCHEM_IUPAC_TRADITIONAL_NAME>
3-[2-[4-(2-chlorophenyl)piperazino]ethyl]-6-phenyl-1,7-dihydropyrrolo[2,3-d]pyrimidine-2,4-quinone

> <PUBCHEM_IUPAC_INCHI>
InChI=1S/C24H24ClN5O2/c25-19-8-4-5-9-21(19)29-13-10-28(11-14-29)12-15-30-23(31)18-16-20(17-6-2-1-3-7-17)26-22(18)27-24(30)32/h1-9,16,26H,10-15H2,(H,27,32)

> <PUBCHEM_IUPAC_INCHIKEY>
RCUUBRFHZZUGFH-UHFFFAOYSA-N

> <PUBCHEM_XLOGP3_AA>
3.7

> <PUBCHEM_EXACT_MASS>
449.1618527

> <PUBCHEM_MOLECULAR_FORMULA>
C24H24ClN5O2

> <PUBCHEM_MOLECULAR_WEIGHT>
449.9

> <PUBCHEM_OPENEYE_CAN_SMILES>
C1CN(CCN1CCN2C(=O)C3=C(NC(=C3)C4=CC=CC=C4)NC2=O)C5=CC=CC=C5Cl

> <PUBCHEM_OPENEYE_ISO_SMILES>
C1CN(CCN1CCN2C(=O)C3=C(NC(=C3)C4=CC=CC=C4)NC2=O)C5=CC=CC=C5Cl

> <PUBCHEM_CACTVS_TPSA>
71.7

> <PUBCHEM_MONOISOTOPIC_WEIGHT>
449.1618527

> <PUBCHEM_TOTAL_CHARGE>
0

> <PUBCHEM_HEAVY_ATOM_COUNT>
32

> <PUBCHEM_ATOM_DEF_STEREO_COUNT>
0

> <PUBCHEM_ATOM_UDEF_STEREO_COUNT>
0

> <PUBCHEM_BOND_DEF_STEREO_COUNT>
0

> <PUBCHEM_BOND_UDEF_STEREO_COUNT>
0

> <PUBCHEM_ISOTOPIC_ATOM_COUNT>
0

> <PUBCHEM_COMPONENT_COUNT>
1

> <PUBCHEM_CACTVS_TAUTO_COUNT>
-1

> <PUBCHEM_COORDINATE_TYPE>
1
5
255

> <PUBCHEM_BONDANNOTATIONS>
15  20  8
15  21  8
16  17  8
17  19  8
17  22  8
20  24  8
21  25  8
22  23  8
24  27  8
25  27  8
26  28  8
26  29  8
28  30  8
29  31  8
30  32  8
31  32  8
6  16  8
6  18  8
7  18  8
7  19  8
8  19  8
8  23  8

$$$$
