117871500
  -OEChem-10012300302D

 53 57  0     1  0  0  0  0  0999 V2000
    2.8660    4.3952    0.0000 Cl  0  0  0  0  0  0  0  0  0  0  0  0
    4.1598   -4.5976    0.0000 Cl  0  0  0  0  0  0  0  0  0  0  0  0
    4.9764    1.3412    0.0000 O   0  0  0  0  0  0  0  0  0  0  0  0
    5.0828   -1.0098    0.0000 O   0  0  0  0  0  0  0  0  0  0  0  0
    5.6808    4.5976    0.0000 O   0  0  0  0  0  0  0  0  0  0  0  0
    6.6706    1.7013    0.0000 N   0  0  0  0  0  0  0  0  0  0  0  0
    6.7008   -1.0098    0.0000 N   0  0  0  0  0  0  0  0  0  0  0  0
    5.3918   -0.0588    0.0000 N   0  0  0  0  0  0  0  0  0  0  0  0
    4.7026    4.3897    0.0000 N   0  0  0  0  0  0  0  0  0  0  0  0
    6.9796    0.7502    0.0000 C   0  0  1  0  0  0  0  0  0  0  0  0
    7.9796    0.7502    0.0000 C   0  0  0  0  0  0  0  0  0  0  0  0
    8.2886    1.7013    0.0000 C   0  0  0  0  0  0  0  0  0  0  0  0
    7.4796    2.2891    0.0000 C   0  0  0  0  0  0  0  0  0  0  0  0
    6.3918   -0.0588    0.0000 C   0  0  0  0  0  0  0  0  0  0  0  0
    5.7195    2.0103    0.0000 C   0  0  0  0  0  0  0  0  0  0  0  0
    5.5116    2.9884    0.0000 C   0  0  0  0  0  0  0  0  0  0  0  0
    4.5981    3.3952    0.0000 C   0  0  0  0  0  0  0  0  0  0  0  0
    5.8918   -1.5976    0.0000 C   0  0  0  0  0  0  0  0  0  0  0  0
    6.1808    3.7316    0.0000 C   0  0  0  0  0  0  0  0  0  0  0  0
    5.8918   -2.5976    0.0000 C   0  0  0  0  0  0  0  0  0  0  0  0
    3.7320    2.8952    0.0000 C   0  0  0  0  0  0  0  0  0  0  0  0
    7.1753    3.6271    0.0000 C   0  0  0  0  0  0  0  0  0  0  0  0
    5.0258   -3.0976    0.0000 C   0  0  0  0  0  0  0  0  0  0  0  0
    6.7578   -3.0976    0.0000 C   0  0  0  0  0  0  0  0  0  0  0  0
    2.8660    3.3952    0.0000 C   0  0  0  0  0  0  0  0  0  0  0  0
    3.7320    1.8952    0.0000 C   0  0  0  0  0  0  0  0  0  0  0  0
    5.0258   -4.0976    0.0000 C   0  0  0  0  0  0  0  0  0  0  0  0
    4.1598   -2.5976    0.0000 C   0  0  0  0  0  0  0  0  0  0  0  0
    6.7578   -4.0976    0.0000 C   0  0  0  0  0  0  0  0  0  0  0  0
    2.0000    2.8952    0.0000 C   0  0  0  0  0  0  0  0  0  0  0  0
    2.8660    1.3952    0.0000 C   0  0  0  0  0  0  0  0  0  0  0  0
    5.8918   -4.5976    0.0000 C   0  0  0  0  0  0  0  0  0  0  0  0
    2.0000    1.8952    0.0000 C   0  0  0  0  0  0  0  0  0  0  0  0
    7.3655   -0.0071    0.0000 H   0  0  0  0  0  0  0  0  0  0  0  0
    7.9148    0.1336    0.0000 H   0  0  0  0  0  0  0  0  0  0  0  0
    8.5861    0.6213    0.0000 H   0  0  0  0  0  0  0  0  0  0  0  0
    8.8550    1.4491    0.0000 H   0  0  0  0  0  0  0  0  0  0  0  0
    8.5986    2.2382    0.0000 H   0  0  0  0  0  0  0  0  0  0  0  0
    7.8945    2.7498    0.0000 H   0  0  0  0  0  0  0  0  0  0  0  0
    7.0648    2.7498    0.0000 H   0  0  0  0  0  0  0  0  0  0  0  0
    7.1105    3.0105    0.0000 H   0  0  0  0  0  0  0  0  0  0  0  0
    7.7919    3.5623    0.0000 H   0  0  0  0  0  0  0  0  0  0  0  0
    7.2401    4.2437    0.0000 H   0  0  0  0  0  0  0  0  0  0  0  0
    7.2948   -2.7876    0.0000 H   0  0  0  0  0  0  0  0  0  0  0  0
    4.2690    1.5852    0.0000 H   0  0  0  0  0  0  0  0  0  0  0  0
    4.4698   -2.0607    0.0000 H   0  0  0  0  0  0  0  0  0  0  0  0
    3.6228   -2.2876    0.0000 H   0  0  0  0  0  0  0  0  0  0  0  0
    3.8498   -3.1346    0.0000 H   0  0  0  0  0  0  0  0  0  0  0  0
    7.2948   -4.4076    0.0000 H   0  0  0  0  0  0  0  0  0  0  0  0
    5.8918   -5.2176    0.0000 H   0  0  0  0  0  0  0  0  0  0  0  0
    1.4631    3.2052    0.0000 H   0  0  0  0  0  0  0  0  0  0  0  0
    2.8660    0.7752    0.0000 H   0  0  0  0  0  0  0  0  0  0  0  0
    1.4631    1.5852    0.0000 H   0  0  0  0  0  0  0  0  0  0  0  0
  1 25  1  0  0  0  0
  2 27  1  0  0  0  0
  3 15  2  0  0  0  0
  4  8  1  0  0  0  0
  4 18  1  0  0  0  0
  5  9  1  0  0  0  0
  5 19  1  0  0  0  0
  6 10  1  0  0  0  0
  6 13  1  0  0  0  0
  6 15  1  0  0  0  0
  7 14  1  0  0  0  0
  7 18  2  0  0  0  0
  8 14  2  0  0  0  0
  9 17  2  0  0  0  0
 10 11  1  0  0  0  0
 10 14  1  0  0  0  0
 10 34  1  6  0  0  0
 11 12  1  0  0  0  0
 11 35  1  0  0  0  0
 11 36  1  0  0  0  0
 12 13  1  0  0  0  0
 12 37  1  0  0  0  0
 12 38  1  0  0  0  0
 13 39  1  0  0  0  0
 13 40  1  0  0  0  0
 15 16  1  0  0  0  0
 16 17  1  0  0  0  0
 16 19  2  0  0  0  0
 17 21  1  0  0  0  0
 18 20  1  0  0  0  0
 19 22  1  0  0  0  0
 20 23  2  0  0  0  0
 20 24  1  0  0  0  0
 21 25  1  0  0  0  0
 21 26  2  0  0  0  0
 22 41  1  0  0  0  0
 22 42  1  0  0  0  0
 22 43  1  0  0  0  0
 23 27  1  0  0  0  0
 23 28  1  0  0  0  0
 24 29  2  0  0  0  0
 24 44  1  0  0  0  0
 25 30  2  0  0  0  0
 26 31  1  0  0  0  0
 26 45  1  0  0  0  0
 27 32  2  0  0  0  0
 28 46  1  0  0  0  0
 28 47  1  0  0  0  0
 28 48  1  0  0  0  0
 29 32  1  0  0  0  0
 29 49  1  0  0  0  0
 30 33  1  0  0  0  0
 30 51  1  0  0  0  0
 31 33  2  0  0  0  0
 31 52  1  0  0  0  0
 32 50  1  0  0  0  0
 33 53  1  0  0  0  0
M  END
> <PUBCHEM_COMPOUND_CID>
117871500

> <PUBCHEM_COMPOUND_CANONICALIZED>
1

> <PUBCHEM_CACTVS_COMPLEXITY>
703

> <PUBCHEM_CACTVS_HBOND_ACCEPTOR>
6

> <PUBCHEM_CACTVS_HBOND_DONOR>
0

> <PUBCHEM_CACTVS_ROTATABLE_BOND>
4

> <PUBCHEM_CACTVS_SUBSKEYS>
AAADceB7sAAGAAAAAAAAAAAAAAAAAWLFgAAwYAAAAAAAAAAB9AAAHgIEAAAADC7BnyQzlJcYEACpA6dydgCCgAkkJaApmCE8TtqIbr6J35OUMchm5xuIyceYyOCOgAAAIAARAAAAAABAACIAAAAAAAAAAA==

> <PUBCHEM_IUPAC_OPENEYE_NAME>
[(2S)-2-[5-(3-chloro-2-methyl-phenyl)-1,2,4-oxadiazol-3-yl]pyrrolidin-1-yl]-[3-(2-chlorophenyl)-5-methyl-isoxazol-4-yl]methanone

> <PUBCHEM_IUPAC_CAS_NAME>
[(2S)-2-[5-(3-chloro-2-methylphenyl)-1,2,4-oxadiazol-3-yl]-1-pyrrolidinyl]-[3-(2-chlorophenyl)-5-methyl-4-isoxazolyl]methanone

> <PUBCHEM_IUPAC_NAME_MARKUP>
[(2<I>S</I>)-2-[5-(3-chloro-2-methylphenyl)-1,2,4-oxadiazol-3-yl]pyrrolidin-1-yl]-[3-(2-chlorophenyl)-5-methyl-1,2-oxazol-4-yl]methanone

> <PUBCHEM_IUPAC_NAME>
[(2S)-2-[5-(3-chloro-2-methylphenyl)-1,2,4-oxadiazol-3-yl]pyrrolidin-1-yl]-[3-(2-chlorophenyl)-5-methyl-1,2-oxazol-4-yl]methanone

> <PUBCHEM_IUPAC_SYSTEMATIC_NAME>
[(2S)-2-[5-(3-chloranyl-2-methyl-phenyl)-1,2,4-oxadiazol-3-yl]pyrrolidin-1-yl]-[3-(2-chlorophenyl)-5-methyl-1,2-oxazol-4-yl]methanone

> <PUBCHEM_IUPAC_TRADITIONAL_NAME>
[(2S)-2-[5-(3-chloro-2-methyl-phenyl)-1,2,4-oxadiazol-3-yl]pyrrolidino]-[3-(2-chlorophenyl)-5-methyl-isoxazol-4-yl]methanone

> <PUBCHEM_IUPAC_INCHI>
InChI=1S/C24H20Cl2N4O3/c1-13-15(8-5-10-17(13)25)23-27-22(29-33-23)19-11-6-12-30(19)24(31)20-14(2)32-28-21(20)16-7-3-4-9-18(16)26/h3-5,7-10,19H,6,11-12H2,1-2H3/t19-/m0/s1

> <PUBCHEM_IUPAC_INCHIKEY>
SOENSRIUSZUAPD-IBGZPJMESA-N

> <PUBCHEM_XLOGP3_AA>
5.4

> <PUBCHEM_EXACT_MASS>
482.0912459

> <PUBCHEM_MOLECULAR_FORMULA>
C24H20Cl2N4O3

> <PUBCHEM_MOLECULAR_WEIGHT>
483.3

> <PUBCHEM_OPENEYE_CAN_SMILES>
CC1=C(C=CC=C1Cl)C2=NC(=NO2)C3CCCN3C(=O)C4=C(ON=C4C5=CC=CC=C5Cl)C

> <PUBCHEM_OPENEYE_ISO_SMILES>
CC1=C(C=CC=C1Cl)C2=NC(=NO2)[C@@H]3CCCN3C(=O)C4=C(ON=C4C5=CC=CC=C5Cl)C

> <PUBCHEM_CACTVS_TPSA>
85.3

> <PUBCHEM_MONOISOTOPIC_WEIGHT>
482.0912459

> <PUBCHEM_TOTAL_CHARGE>
0

> <PUBCHEM_HEAVY_ATOM_COUNT>
33

> <PUBCHEM_ATOM_DEF_STEREO_COUNT>
1

> <PUBCHEM_ATOM_UDEF_STEREO_COUNT>
0

> <PUBCHEM_BOND_DEF_STEREO_COUNT>
0

> <PUBCHEM_BOND_UDEF_STEREO_COUNT>
0

> <PUBCHEM_ISOTOPIC_ATOM_COUNT>
0

> <PUBCHEM_COMPONENT_COUNT>
1

> <PUBCHEM_CACTVS_TAUTO_COUNT>
-1

> <PUBCHEM_COORDINATE_TYPE>
1
5
255

> <PUBCHEM_BONDANNOTATIONS>
10  34  6
16  17  8
16  19  8
20  23  8
20  24  8
21  25  8
21  26  8
23  27  8
24  29  8
25  30  8
26  31  8
27  32  8
29  32  8
30  33  8
31  33  8
4  18  8
4  8  8
5  19  8
5  9  8
7  14  8
7  18  8
8  14  8
9  17  8

$$$$
