44335923
  -OEChem-09292322162D

 59 62  0     1  0  0  0  0  0999 V2000
    4.3211    0.7699    0.0000 O   0  0  0  0  0  0  0  0  0  0  0  0
    6.2781    0.3575    0.0000 N   0  0  0  0  0  0  0  0  0  0  0  0
    4.6783    2.4647    0.0000 N   0  0  0  0  0  0  0  0  0  0  0  0
    6.8994   -1.5436    0.0000 N   0  0  0  0  0  0  0  0  0  0  0  0
    5.2619    3.2695    0.0000 C   0  0  3  0  0  0  0  0  0  0  0  0
    5.6103   -0.3868    0.0000 C   0  0  0  0  0  0  0  0  0  0  0  0
    7.2566    0.1513    0.0000 C   0  0  0  0  0  0  0  0  0  0  0  0
    5.9209   -1.3373    0.0000 C   0  0  0  0  0  0  0  0  0  0  0  0
    7.5673   -0.7993    0.0000 C   0  0  0  0  0  0  0  0  0  0  0  0
    4.6783    4.0742    0.0000 C   0  0  0  0  0  0  0  0  0  0  0  0
    5.9674    1.3080    0.0000 C   0  0  0  0  0  0  0  0  0  0  0  0
    3.7320    2.7695    0.0000 C   0  0  0  0  0  0  0  0  0  0  0  0
    3.7320    3.7695    0.0000 C   0  0  0  0  0  0  0  0  0  0  0  0
    4.9889    1.5142    0.0000 C   0  0  0  0  0  0  0  0  0  0  0  0
    7.2101   -2.4941    0.0000 C   0  0  0  0  0  0  0  0  0  0  0  0
    6.2619    3.2695    0.0000 C   0  0  0  0  0  0  0  0  0  0  0  0
    2.8660    2.2695    0.0000 C   0  0  0  0  0  0  0  0  0  0  0  0
    2.8660    4.2695    0.0000 C   0  0  0  0  0  0  0  0  0  0  0  0
    8.1886   -2.7003    0.0000 C   0  0  0  0  0  0  0  0  0  0  0  0
    2.0000    2.7695    0.0000 C   0  0  0  0  0  0  0  0  0  0  0  0
    2.0000    3.7695    0.0000 C   0  0  0  0  0  0  0  0  0  0  0  0
    8.4993   -3.6508    0.0000 C   0  0  0  0  0  0  0  0  0  0  0  0
    8.8564   -1.9560    0.0000 C   0  0  0  0  0  0  0  0  0  0  0  0
   10.1456   -3.1127    0.0000 C   0  0  0  0  0  0  0  0  0  0  0  0
    9.4778   -3.8570    0.0000 C   0  0  0  0  0  0  0  0  0  0  0  0
    9.8349   -2.1622    0.0000 C   0  0  0  0  0  0  0  0  0  0  0  0
   11.1241   -3.3190    0.0000 C   0  0  0  0  0  0  0  0  0  0  0  0
   11.4348   -4.2695    0.0000 C   0  0  0  0  0  0  0  0  0  0  0  0
    5.5436    2.7172    0.0000 H   0  0  0  0  0  0  0  0  0  0  0  0
    5.2277    0.1011    0.0000 H   0  0  0  0  0  0  0  0  0  0  0  0
    5.0633   -0.6788    0.0000 H   0  0  0  0  0  0  0  0  0  0  0  0
    7.8704    0.2386    0.0000 H   0  0  0  0  0  0  0  0  0  0  0  0
    7.2772    0.7709    0.0000 H   0  0  0  0  0  0  0  0  0  0  0  0
    5.3071   -1.4247    0.0000 H   0  0  0  0  0  0  0  0  0  0  0  0
    5.9004   -1.9570    0.0000 H   0  0  0  0  0  0  0  0  0  0  0  0
    7.9498   -1.2872    0.0000 H   0  0  0  0  0  0  0  0  0  0  0  0
    8.1142   -0.5072    0.0000 H   0  0  0  0  0  0  0  0  0  0  0  0
    5.2156    4.3834    0.0000 H   0  0  0  0  0  0  0  0  0  0  0  0
    4.4272    4.6411    0.0000 H   0  0  0  0  0  0  0  0  0  0  0  0
    6.5812    1.3954    0.0000 H   0  0  0  0  0  0  0  0  0  0  0  0
    5.9880    1.9277    0.0000 H   0  0  0  0  0  0  0  0  0  0  0  0
    6.5963   -2.5814    0.0000 H   0  0  0  0  0  0  0  0  0  0  0  0
    7.1895   -3.1137    0.0000 H   0  0  0  0  0  0  0  0  0  0  0  0
    6.2619    2.6495    0.0000 H   0  0  0  0  0  0  0  0  0  0  0  0
    6.8819    3.2695    0.0000 H   0  0  0  0  0  0  0  0  0  0  0  0
    6.2619    3.8895    0.0000 H   0  0  0  0  0  0  0  0  0  0  0  0
    2.8660    1.6495    0.0000 H   0  0  0  0  0  0  0  0  0  0  0  0
    2.8660    4.8895    0.0000 H   0  0  0  0  0  0  0  0  0  0  0  0
    1.4631    2.4595    0.0000 H   0  0  0  0  0  0  0  0  0  0  0  0
    1.4631    4.0795    0.0000 H   0  0  0  0  0  0  0  0  0  0  0  0
    8.0852   -4.1123    0.0000 H   0  0  0  0  0  0  0  0  0  0  0  0
    8.6638   -1.3667    0.0000 H   0  0  0  0  0  0  0  0  0  0  0  0
    9.6704   -4.4464    0.0000 H   0  0  0  0  0  0  0  0  0  0  0  0
   10.2490   -1.7008    0.0000 H   0  0  0  0  0  0  0  0  0  0  0  0
   11.7379   -3.2316    0.0000 H   0  0  0  0  0  0  0  0  0  0  0  0
   11.1447   -2.6993    0.0000 H   0  0  0  0  0  0  0  0  0  0  0  0
   10.8455   -4.4621    0.0000 H   0  0  0  0  0  0  0  0  0  0  0  0
   11.6274   -4.8588    0.0000 H   0  0  0  0  0  0  0  0  0  0  0  0
   12.0241   -4.0769    0.0000 H   0  0  0  0  0  0  0  0  0  0  0  0
  1 14  2  0  0  0  0
  2  6  1  0  0  0  0
  2  7  1  0  0  0  0
  2 11  1  0  0  0  0
  3  5  1  0  0  0  0
  3 12  1  0  0  0  0
  3 14  1  0  0  0  0
  4  8  1  0  0  0  0
  4  9  1  0  0  0  0
  4 15  1  0  0  0  0
  5 10  1  0  0  0  0
  5 16  1  0  0  0  0
  5 29  1  0  0  0  0
  6  8  1  0  0  0  0
  6 30  1  0  0  0  0
  6 31  1  0  0  0  0
  7  9  1  0  0  0  0
  7 32  1  0  0  0  0
  7 33  1  0  0  0  0
  8 34  1  0  0  0  0
  8 35  1  0  0  0  0
  9 36  1  0  0  0  0
  9 37  1  0  0  0  0
 10 13  1  0  0  0  0
 10 38  1  0  0  0  0
 10 39  1  0  0  0  0
 11 14  1  0  0  0  0
 11 40  1  0  0  0  0
 11 41  1  0  0  0  0
 12 13  1  0  0  0  0
 12 17  2  0  0  0  0
 13 18  2  0  0  0  0
 15 19  1  0  0  0  0
 15 42  1  0  0  0  0
 15 43  1  0  0  0  0
 16 44  1  0  0  0  0
 16 45  1  0  0  0  0
 16 46  1  0  0  0  0
 17 20  1  0  0  0  0
 17 47  1  0  0  0  0
 18 21  1  0  0  0  0
 18 48  1  0  0  0  0
 19 22  2  0  0  0  0
 19 23  1  0  0  0  0
 20 21  2  0  0  0  0
 20 49  1  0  0  0  0
 21 50  1  0  0  0  0
 22 25  1  0  0  0  0
 22 51  1  0  0  0  0
 23 26  2  0  0  0  0
 23 52  1  0  0  0  0
 24 25  2  0  0  0  0
 24 26  1  0  0  0  0
 24 27  1  0  0  0  0
 25 53  1  0  0  0  0
 26 54  1  0  0  0  0
 27 28  1  0  0  0  0
 27 55  1  0  0  0  0
 27 56  1  0  0  0  0
 28 57  1  0  0  0  0
 28 58  1  0  0  0  0
 28 59  1  0  0  0  0
M  END
> <PUBCHEM_COMPOUND_CID>
44335923

> <PUBCHEM_COMPOUND_CANONICALIZED>
1

> <PUBCHEM_CACTVS_COMPLEXITY>
508

> <PUBCHEM_CACTVS_HBOND_ACCEPTOR>
3

> <PUBCHEM_CACTVS_HBOND_DONOR>
0

> <PUBCHEM_CACTVS_ROTATABLE_BOND>
5

> <PUBCHEM_CACTVS_SUBSKEYS>
AAADceB7IAAAAAAAAAAAAAAAAAAAAWAAAAA8YIAAAAAAAFgBQAAAHgAAAAAADCjBmAQywIMAAACIAiVSUACCAAAhAgAIiACIZIgIYCLAkbGUIAhghgDIyAcQgMAOQAAAAAACAACAAAAAAAQAAAAAAAAAAA==

> <PUBCHEM_IUPAC_OPENEYE_NAME>
2-[4-[(4-ethylphenyl)methyl]piperazin-1-yl]-1-(2-methylindolin-1-yl)ethanone

> <PUBCHEM_IUPAC_CAS_NAME>
2-[4-[(4-ethylphenyl)methyl]-1-piperazinyl]-1-(2-methyl-2,3-dihydroindol-1-yl)ethanone

> <PUBCHEM_IUPAC_NAME_MARKUP>
2-[4-[(4-ethylphenyl)methyl]piperazin-1-yl]-1-(2-methyl-2,3-dihydroindol-1-yl)ethanone

> <PUBCHEM_IUPAC_NAME>
2-[4-[(4-ethylphenyl)methyl]piperazin-1-yl]-1-(2-methyl-2,3-dihydroindol-1-yl)ethanone

> <PUBCHEM_IUPAC_SYSTEMATIC_NAME>
2-[4-[(4-ethylphenyl)methyl]piperazin-1-yl]-1-(2-methyl-2,3-dihydroindol-1-yl)ethanone

> <PUBCHEM_IUPAC_TRADITIONAL_NAME>
2-[4-(4-ethylbenzyl)piperazino]-1-(2-methylindolin-1-yl)ethanone

> <PUBCHEM_IUPAC_INCHI>
InChI=1S/C24H31N3O/c1-3-20-8-10-21(11-9-20)17-25-12-14-26(15-13-25)18-24(28)27-19(2)16-22-6-4-5-7-23(22)27/h4-11,19H,3,12-18H2,1-2H3

> <PUBCHEM_IUPAC_INCHIKEY>
YIILQFFSXRRLJQ-UHFFFAOYSA-N

> <PUBCHEM_XLOGP3_AA>
3.9

> <PUBCHEM_EXACT_MASS>
377.246712621

> <PUBCHEM_MOLECULAR_FORMULA>
C24H31N3O

> <PUBCHEM_MOLECULAR_WEIGHT>
377.5

> <PUBCHEM_OPENEYE_CAN_SMILES>
CCC1=CC=C(C=C1)CN2CCN(CC2)CC(=O)N3C(CC4=CC=CC=C43)C

> <PUBCHEM_OPENEYE_ISO_SMILES>
CCC1=CC=C(C=C1)CN2CCN(CC2)CC(=O)N3C(CC4=CC=CC=C43)C

> <PUBCHEM_CACTVS_TPSA>
26.8

> <PUBCHEM_MONOISOTOPIC_WEIGHT>
377.246712621

> <PUBCHEM_TOTAL_CHARGE>
0

> <PUBCHEM_HEAVY_ATOM_COUNT>
28

> <PUBCHEM_ATOM_DEF_STEREO_COUNT>
0

> <PUBCHEM_ATOM_UDEF_STEREO_COUNT>
1

> <PUBCHEM_BOND_DEF_STEREO_COUNT>
0

> <PUBCHEM_BOND_UDEF_STEREO_COUNT>
0

> <PUBCHEM_ISOTOPIC_ATOM_COUNT>
0

> <PUBCHEM_COMPONENT_COUNT>
1

> <PUBCHEM_CACTVS_TAUTO_COUNT>
-1

> <PUBCHEM_COORDINATE_TYPE>
1
5
255

> <PUBCHEM_BONDANNOTATIONS>
12  13  8
12  17  8
13  18  8
17  20  8
18  21  8
19  22  8
19  23  8
20  21  8
22  25  8
23  26  8
24  25  8
24  26  8
5  16  3

$$$$
