66801335
  -OEChem-09292322342D

 56 59  0     0  0  0  0  0  0999 V2000
    8.4993    1.4667    0.0000 S   0  0  0  0  0  0  0  0  0  0  0  0
    4.6783   -6.2583    0.0000 S   0  0  0  0  0  0  0  0  0  0  0  0
   11.6989    5.6813    0.0000 F   0  0  0  0  0  0  0  0  0  0  0  0
   10.5142    6.4536    0.0000 F   0  0  0  0  0  0  0  0  0  0  0  0
   10.9266    4.4965    0.0000 F   0  0  0  0  0  0  0  0  0  0  0  0
    9.4498    1.1561    0.0000 O   0  0  0  0  0  0  0  0  0  0  0  0
    7.5487    1.7774    0.0000 O   0  0  0  0  0  0  0  0  0  0  0  0
    9.7419    5.2688    0.0000 O   0  0  0  0  0  0  0  0  0  0  0  0
    5.6103   -1.7973    0.0000 N   0  0  0  0  0  0  0  0  0  0  0  0
    4.9889   -3.6983    0.0000 N   0  0  0  0  0  0  0  0  0  0  0  0
    8.1886    0.5162    0.0000 N   0  0  0  0  0  0  0  0  0  0  0  0
    5.2619   -5.4536    0.0000 N   0  0  0  0  0  0  0  0  0  0  0  0
    4.6318   -2.0035    0.0000 C   0  0  0  0  0  0  0  0  0  0  0  0
    6.2781   -2.5416    0.0000 C   0  0  0  0  0  0  0  0  0  0  0  0
    4.3211   -2.9540    0.0000 C   0  0  0  0  0  0  0  0  0  0  0  0
    5.9674   -3.4921    0.0000 C   0  0  0  0  0  0  0  0  0  0  0  0
    5.9209   -0.8467    0.0000 C   0  0  0  0  0  0  0  0  0  0  0  0
    6.8994   -0.6405    0.0000 C   0  0  0  0  0  0  0  0  0  0  0  0
    4.6783   -4.6488    0.0000 C   0  0  0  0  0  0  0  0  0  0  0  0
    7.2101    0.3100    0.0000 C   0  0  0  0  0  0  0  0  0  0  0  0
    3.7320   -4.9536    0.0000 C   0  0  0  0  0  0  0  0  0  0  0  0
    3.7320   -5.9536    0.0000 C   0  0  0  0  0  0  0  0  0  0  0  0
    2.8660   -4.4536    0.0000 C   0  0  0  0  0  0  0  0  0  0  0  0
    2.8660   -6.4536    0.0000 C   0  0  0  0  0  0  0  0  0  0  0  0
    8.8099    2.4173    0.0000 C   0  0  0  0  0  0  0  0  0  0  0  0
    2.0000   -4.9536    0.0000 C   0  0  0  0  0  0  0  0  0  0  0  0
    2.0000   -5.9536    0.0000 C   0  0  0  0  0  0  0  0  0  0  0  0
    9.7884    2.6235    0.0000 C   0  0  0  0  0  0  0  0  0  0  0  0
    8.1421    3.1616    0.0000 C   0  0  0  0  0  0  0  0  0  0  0  0
   10.0991    3.5740    0.0000 C   0  0  0  0  0  0  0  0  0  0  0  0
    8.4527    4.1121    0.0000 C   0  0  0  0  0  0  0  0  0  0  0  0
    9.4312    4.3183    0.0000 C   0  0  0  0  0  0  0  0  0  0  0  0
   10.7204    5.4750    0.0000 C   0  0  0  0  0  0  0  0  0  0  0  0
    4.6112   -1.3838    0.0000 H   0  0  0  0  0  0  0  0  0  0  0  0
    4.0179   -1.9161    0.0000 H   0  0  0  0  0  0  0  0  0  0  0  0
    6.8250   -2.8336    0.0000 H   0  0  0  0  0  0  0  0  0  0  0  0
    6.6607   -2.0537    0.0000 H   0  0  0  0  0  0  0  0  0  0  0  0
    3.7742   -2.6620    0.0000 H   0  0  0  0  0  0  0  0  0  0  0  0
    3.9385   -3.4419    0.0000 H   0  0  0  0  0  0  0  0  0  0  0  0
    5.9880   -4.1117    0.0000 H   0  0  0  0  0  0  0  0  0  0  0  0
    6.5812   -3.5794    0.0000 H   0  0  0  0  0  0  0  0  0  0  0  0
    5.9004   -0.2271    0.0000 H   0  0  0  0  0  0  0  0  0  0  0  0
    5.3071   -0.7594    0.0000 H   0  0  0  0  0  0  0  0  0  0  0  0
    6.9200   -1.2602    0.0000 H   0  0  0  0  0  0  0  0  0  0  0  0
    7.5132   -0.7279    0.0000 H   0  0  0  0  0  0  0  0  0  0  0  0
    7.1895    0.9297    0.0000 H   0  0  0  0  0  0  0  0  0  0  0  0
    6.5963    0.3974    0.0000 H   0  0  0  0  0  0  0  0  0  0  0  0
    8.6027    0.0548    0.0000 H   0  0  0  0  0  0  0  0  0  0  0  0
    2.8660   -3.8336    0.0000 H   0  0  0  0  0  0  0  0  0  0  0  0
    2.8660   -7.0736    0.0000 H   0  0  0  0  0  0  0  0  0  0  0  0
    1.4631   -4.6436    0.0000 H   0  0  0  0  0  0  0  0  0  0  0  0
    1.4631   -6.2636    0.0000 H   0  0  0  0  0  0  0  0  0  0  0  0
   10.2025    2.1620    0.0000 H   0  0  0  0  0  0  0  0  0  0  0  0
    7.5354    3.0337    0.0000 H   0  0  0  0  0  0  0  0  0  0  0  0
   10.7058    3.7019    0.0000 H   0  0  0  0  0  0  0  0  0  0  0  0
    8.0387    4.5736    0.0000 H   0  0  0  0  0  0  0  0  0  0  0  0
  1  6  2  0  0  0  0
  1  7  2  0  0  0  0
  1 11  1  0  0  0  0
  1 25  1  0  0  0  0
  2 12  1  0  0  0  0
  2 22  1  0  0  0  0
  3 33  1  0  0  0  0
  4 33  1  0  0  0  0
  5 33  1  0  0  0  0
  8 32  1  0  0  0  0
  8 33  1  0  0  0  0
  9 13  1  0  0  0  0
  9 14  1  0  0  0  0
  9 17  1  0  0  0  0
 10 15  1  0  0  0  0
 10 16  1  0  0  0  0
 10 19  1  0  0  0  0
 11 20  1  0  0  0  0
 11 48  1  0  0  0  0
 12 19  2  0  0  0  0
 13 15  1  0  0  0  0
 13 34  1  0  0  0  0
 13 35  1  0  0  0  0
 14 16  1  0  0  0  0
 14 36  1  0  0  0  0
 14 37  1  0  0  0  0
 15 38  1  0  0  0  0
 15 39  1  0  0  0  0
 16 40  1  0  0  0  0
 16 41  1  0  0  0  0
 17 18  1  0  0  0  0
 17 42  1  0  0  0  0
 17 43  1  0  0  0  0
 18 20  1  0  0  0  0
 18 44  1  0  0  0  0
 18 45  1  0  0  0  0
 19 21  1  0  0  0  0
 20 46  1  0  0  0  0
 20 47  1  0  0  0  0
 21 22  1  0  0  0  0
 21 23  2  0  0  0  0
 22 24  2  0  0  0  0
 23 26  1  0  0  0  0
 23 49  1  0  0  0  0
 24 27  1  0  0  0  0
 24 50  1  0  0  0  0
 25 28  2  0  0  0  0
 25 29  1  0  0  0  0
 26 27  2  0  0  0  0
 26 51  1  0  0  0  0
 27 52  1  0  0  0  0
 28 30  1  0  0  0  0
 28 53  1  0  0  0  0
 29 31  2  0  0  0  0
 29 54  1  0  0  0  0
 30 32  2  0  0  0  0
 30 55  1  0  0  0  0
 31 32  1  0  0  0  0
 31 56  1  0  0  0  0
M  END
> <PUBCHEM_COMPOUND_CID>
66801335

> <PUBCHEM_COMPOUND_CANONICALIZED>
1

> <PUBCHEM_CACTVS_COMPLEXITY>
721

> <PUBCHEM_CACTVS_HBOND_ACCEPTOR>
11

> <PUBCHEM_CACTVS_HBOND_DONOR>
1

> <PUBCHEM_CACTVS_ROTATABLE_BOND>
8

> <PUBCHEM_CACTVS_SUBSKEYS>
AAADceB7sYBgAAAAAAAAAAAAAAAAAWAAAAA8YIAAAAAAAFgB9AAAHwQQQAAADATB2hQxt9NABAKkAiJiYHDDCBAhIABJmLguTJiMZqLE+ZuUMCxk0BPI6AeQwAAOAIAAAAAEAAABAAAAAAgAAAAAAAAAAA==

> <PUBCHEM_IUPAC_OPENEYE_NAME>
N-[3-[4-(1,2-benzothiazol-3-yl)piperazin-1-yl]propyl]-4-(trifluoromethoxy)benzenesulfonamide

> <PUBCHEM_IUPAC_CAS_NAME>
N-[3-[4-(1,2-benzothiazol-3-yl)-1-piperazinyl]propyl]-4-(trifluoromethoxy)benzenesulfonamide

> <PUBCHEM_IUPAC_NAME_MARKUP>
<I>N</I>-[3-[4-(1,2-benzothiazol-3-yl)piperazin-1-yl]propyl]-4-(trifluoromethoxy)benzenesulfonamide

> <PUBCHEM_IUPAC_NAME>
N-[3-[4-(1,2-benzothiazol-3-yl)piperazin-1-yl]propyl]-4-(trifluoromethoxy)benzenesulfonamide

> <PUBCHEM_IUPAC_SYSTEMATIC_NAME>
N-[3-[4-(1,2-benzothiazol-3-yl)piperazin-1-yl]propyl]-4-(trifluoromethyloxy)benzenesulfonamide

> <PUBCHEM_IUPAC_TRADITIONAL_NAME>
N-[3-[4-(1,2-benzothiazol-3-yl)piperazino]propyl]-4-(trifluoromethoxy)benzenesulfonamide

> <PUBCHEM_IUPAC_INCHI>
InChI=1S/C21H23F3N4O3S2/c22-21(23,24)31-16-6-8-17(9-7-16)33(29,30)25-10-3-11-27-12-14-28(15-13-27)20-18-4-1-2-5-19(18)32-26-20/h1-2,4-9,25H,3,10-15H2

> <PUBCHEM_IUPAC_INCHIKEY>
CBJLKVBQMMAZQJ-UHFFFAOYSA-N

> <PUBCHEM_XLOGP3_AA>
4.8

> <PUBCHEM_EXACT_MASS>
500.11636744

> <PUBCHEM_MOLECULAR_FORMULA>
C21H23F3N4O3S2

> <PUBCHEM_MOLECULAR_WEIGHT>
500.6

> <PUBCHEM_OPENEYE_CAN_SMILES>
C1CN(CCN1CCCNS(=O)(=O)C2=CC=C(C=C2)OC(F)(F)F)C3=NSC4=CC=CC=C43

> <PUBCHEM_OPENEYE_ISO_SMILES>
C1CN(CCN1CCCNS(=O)(=O)C2=CC=C(C=C2)OC(F)(F)F)C3=NSC4=CC=CC=C43

> <PUBCHEM_CACTVS_TPSA>
111

> <PUBCHEM_MONOISOTOPIC_WEIGHT>
500.11636744

> <PUBCHEM_TOTAL_CHARGE>
0

> <PUBCHEM_HEAVY_ATOM_COUNT>
33

> <PUBCHEM_ATOM_DEF_STEREO_COUNT>
0

> <PUBCHEM_ATOM_UDEF_STEREO_COUNT>
0

> <PUBCHEM_BOND_DEF_STEREO_COUNT>
0

> <PUBCHEM_BOND_UDEF_STEREO_COUNT>
0

> <PUBCHEM_ISOTOPIC_ATOM_COUNT>
0

> <PUBCHEM_COMPONENT_COUNT>
1

> <PUBCHEM_CACTVS_TAUTO_COUNT>
-1

> <PUBCHEM_COORDINATE_TYPE>
1
5
255

> <PUBCHEM_BONDANNOTATIONS>
12  19  8
19  21  8
2  12  8
2  22  8
21  22  8
21  23  8
22  24  8
23  26  8
24  27  8
25  28  8
25  29  8
26  27  8
28  30  8
29  31  8
30  32  8
31  32  8

$$$$
