76332987
  -OEChem-09292322342D

 73 75  0     0  0  0  0  0  0999 V2000
    0.0000    2.1200    0.0000 F   0  0  0  0  0  0  0  0  0  0  0  0
   15.2260    2.4860    0.0000 O   0  0  0  0  0  0  0  0  0  0  0  0
    2.5981    2.6200    0.0000 O   0  0  0  0  0  0  0  0  0  0  0  0
    8.2260    0.7540    0.0000 O   0  0  0  0  0  0  0  0  0  0  0  0
   10.2220    8.6936    0.0000 O   0  0  0  0  0  0  0  0  0  0  0  0
    7.6240    9.1936    0.0000 O   0  0  0  0  0  0  0  0  0  0  0  0
    9.3560   10.1936    0.0000 O   0  0  0  0  0  0  0  0  0  0  0  0
    8.4900    7.6936    0.0000 O   0  0  0  0  0  0  0  0  0  0  0  0
   12.2260    4.2181    0.0000 N   0  0  0  0  0  0  0  0  0  0  0  0
   14.2260    4.2181    0.0000 N   0  0  0  0  0  0  0  0  0  0  0  0
    8.2260    2.4860    0.0000 N   0  0  0  0  0  0  0  0  0  0  0  0
    6.1424    0.8153    0.0000 N   0  0  0  0  0  0  0  0  0  0  0  0
   12.7260    3.3520    0.0000 C   0  0  0  0  0  0  0  0  0  0  0  0
   12.7260    5.0841    0.0000 C   0  0  0  0  0  0  0  0  0  0  0  0
   13.7260    3.3520    0.0000 C   0  0  0  0  0  0  0  0  0  0  0  0
   13.7260    5.0841    0.0000 C   0  0  0  0  0  0  0  0  0  0  0  0
   11.2260    4.2181    0.0000 C   0  0  0  0  0  0  0  0  0  0  0  0
   15.2260    4.2181    0.0000 C   0  0  0  0  0  0  0  0  0  0  0  0
   10.7260    3.3520    0.0000 C   0  0  0  0  0  0  0  0  0  0  0  0
   15.7260    3.3520    0.0000 C   0  0  0  0  0  0  0  0  0  0  0  0
   15.7260    5.0841    0.0000 C   0  0  0  0  0  0  0  0  0  0  0  0
   16.7260    3.3520    0.0000 C   0  0  0  0  0  0  0  0  0  0  0  0
    9.7260    3.3520    0.0000 C   0  0  0  0  0  0  0  0  0  0  0  0
   16.7260    5.0841    0.0000 C   0  0  0  0  0  0  0  0  0  0  0  0
   17.2260    4.2181    0.0000 C   0  0  0  0  0  0  0  0  0  0  0  0
    9.2260    2.4860    0.0000 C   0  0  0  0  0  0  0  0  0  0  0  0
    6.7260    1.6200    0.0000 C   0  0  0  0  0  0  0  0  0  0  0  0
   15.7260    1.6200    0.0000 C   0  0  0  0  0  0  0  0  0  0  0  0
    5.1962    2.1200    0.0000 C   0  0  0  0  0  0  0  0  0  0  0  0
    5.1962    1.1200    0.0000 C   0  0  0  0  0  0  0  0  0  0  0  0
    7.7260    1.6200    0.0000 C   0  0  0  0  0  0  0  0  0  0  0  0
    6.1424    2.4247    0.0000 C   0  0  0  0  0  0  0  0  0  0  0  0
    4.3301    2.6200    0.0000 C   0  0  0  0  0  0  0  0  0  0  0  0
    4.3301    0.6200    0.0000 C   0  0  0  0  0  0  0  0  0  0  0  0
    3.4641    2.1200    0.0000 C   0  0  0  0  0  0  0  0  0  0  0  0
    3.4641    1.1200    0.0000 C   0  0  0  0  0  0  0  0  0  0  0  0
    1.7320    2.1200    0.0000 C   0  0  0  0  0  0  0  0  0  0  0  0
    0.8660    2.6200    0.0000 C   0  0  0  0  0  0  0  0  0  0  0  0
    9.3560    9.1936    0.0000 C   0  0  0  0  0  0  0  0  0  0  0  0
    8.4900    8.6936    0.0000 C   0  0  0  0  0  0  0  0  0  0  0  0
   12.1434    3.1400    0.0000 H   0  0  0  0  0  0  0  0  0  0  0  0
   12.8336    2.7415    0.0000 H   0  0  0  0  0  0  0  0  0  0  0  0
   12.8336    5.6947    0.0000 H   0  0  0  0  0  0  0  0  0  0  0  0
   12.1434    5.2962    0.0000 H   0  0  0  0  0  0  0  0  0  0  0  0
   13.6183    2.7415    0.0000 H   0  0  0  0  0  0  0  0  0  0  0  0
   14.3086    3.1400    0.0000 H   0  0  0  0  0  0  0  0  0  0  0  0
   14.3086    5.2962    0.0000 H   0  0  0  0  0  0  0  0  0  0  0  0
   13.6183    5.6947    0.0000 H   0  0  0  0  0  0  0  0  0  0  0  0
   11.3336    4.8287    0.0000 H   0  0  0  0  0  0  0  0  0  0  0  0
   10.6434    4.4301    0.0000 H   0  0  0  0  0  0  0  0  0  0  0  0
   11.0360    2.8151    0.0000 H   0  0  0  0  0  0  0  0  0  0  0  0
   15.4160    5.6210    0.0000 H   0  0  0  0  0  0  0  0  0  0  0  0
   17.0360    2.8151    0.0000 H   0  0  0  0  0  0  0  0  0  0  0  0
    9.4160    3.8890    0.0000 H   0  0  0  0  0  0  0  0  0  0  0  0
   17.0360    5.6210    0.0000 H   0  0  0  0  0  0  0  0  0  0  0  0
   17.8460    4.2181    0.0000 H   0  0  0  0  0  0  0  0  0  0  0  0
    9.1183    1.8754    0.0000 H   0  0  0  0  0  0  0  0  0  0  0  0
    9.8086    2.2740    0.0000 H   0  0  0  0  0  0  0  0  0  0  0  0
    7.9160    3.0230    0.0000 H   0  0  0  0  0  0  0  0  0  0  0  0
   15.1890    1.3100    0.0000 H   0  0  0  0  0  0  0  0  0  0  0  0
   16.0360    1.0831    0.0000 H   0  0  0  0  0  0  0  0  0  0  0  0
   16.2629    1.9300    0.0000 H   0  0  0  0  0  0  0  0  0  0  0  0
    6.3350    3.0141    0.0000 H   0  0  0  0  0  0  0  0  0  0  0  0
    6.3350    0.2259    0.0000 H   0  0  0  0  0  0  0  0  0  0  0  0
    4.3301    3.2400    0.0000 H   0  0  0  0  0  0  0  0  0  0  0  0
    4.3301    0.0000    0.0000 H   0  0  0  0  0  0  0  0  0  0  0  0
    2.9272    0.8100    0.0000 H   0  0  0  0  0  0  0  0  0  0  0  0
    1.3335    1.6450    0.0000 H   0  0  0  0  0  0  0  0  0  0  0  0
    2.1306    1.6450    0.0000 H   0  0  0  0  0  0  0  0  0  0  0  0
    1.2646    3.0950    0.0000 H   0  0  0  0  0  0  0  0  0  0  0  0
    0.4675    3.0950    0.0000 H   0  0  0  0  0  0  0  0  0  0  0  0
   10.7590    9.0036    0.0000 H   0  0  0  0  0  0  0  0  0  0  0  0
    7.0870    8.8836    0.0000 H   0  0  0  0  0  0  0  0  0  0  0  0
  1 38  1  0  0  0  0
  2 20  1  0  0  0  0
  2 28  1  0  0  0  0
  3 35  1  0  0  0  0
  3 37  1  0  0  0  0
  4 31  2  0  0  0  0
  5 39  1  0  0  0  0
  5 72  1  0  0  0  0
  6 40  1  0  0  0  0
  6 73  1  0  0  0  0
  7 39  2  0  0  0  0
  8 40  2  0  0  0  0
  9 13  1  0  0  0  0
  9 14  1  0  0  0  0
  9 17  1  0  0  0  0
 10 15  1  0  0  0  0
 10 16  1  0  0  0  0
 10 18  1  0  0  0  0
 11 26  1  0  0  0  0
 11 31  1  0  0  0  0
 11 59  1  0  0  0  0
 12 27  1  0  0  0  0
 12 30  1  0  0  0  0
 12 64  1  0  0  0  0
 13 15  1  0  0  0  0
 13 41  1  0  0  0  0
 13 42  1  0  0  0  0
 14 16  1  0  0  0  0
 14 43  1  0  0  0  0
 14 44  1  0  0  0  0
 15 45  1  0  0  0  0
 15 46  1  0  0  0  0
 16 47  1  0  0  0  0
 16 48  1  0  0  0  0
 17 19  1  0  0  0  0
 17 49  1  0  0  0  0
 17 50  1  0  0  0  0
 18 20  1  0  0  0  0
 18 21  2  0  0  0  0
 19 23  2  0  0  0  0
 19 51  1  0  0  0  0
 20 22  2  0  0  0  0
 21 24  1  0  0  0  0
 21 52  1  0  0  0  0
 22 25  1  0  0  0  0
 22 53  1  0  0  0  0
 23 26  1  0  0  0  0
 23 54  1  0  0  0  0
 24 25  2  0  0  0  0
 24 55  1  0  0  0  0
 25 56  1  0  0  0  0
 26 57  1  0  0  0  0
 26 58  1  0  0  0  0
 27 31  1  0  0  0  0
 27 32  2  0  0  0  0
 28 60  1  0  0  0  0
 28 61  1  0  0  0  0
 28 62  1  0  0  0  0
 29 30  2  0  0  0  0
 29 32  1  0  0  0  0
 29 33  1  0  0  0  0
 30 34  1  0  0  0  0
 32 63  1  0  0  0  0
 33 35  2  0  0  0  0
 33 65  1  0  0  0  0
 34 36  2  0  0  0  0
 34 66  1  0  0  0  0
 35 36  1  0  0  0  0
 36 67  1  0  0  0  0
 37 38  1  0  0  0  0
 37 68  1  0  0  0  0
 37 69  1  0  0  0  0
 38 70  1  0  0  0  0
 38 71  1  0  0  0  0
 39 40  1  0  0  0  0
M  END
> <PUBCHEM_COMPOUND_CID>
76332987

> <PUBCHEM_COMPOUND_CANONICALIZED>
1

> <PUBCHEM_CACTVS_COMPLEXITY>
730

> <PUBCHEM_CACTVS_HBOND_ACCEPTOR>
10

> <PUBCHEM_CACTVS_HBOND_DONOR>
4

> <PUBCHEM_CACTVS_ROTATABLE_BOND>
11

> <PUBCHEM_CACTVS_SUBSKEYS>
AAADcfB7uQAAAAAAAAAAAAAAAAAAAWAAAAA8YIAAAAAAAFgB9AAAHwAQCAAADAzhngYyzvPJlgCoAyXyXAKCiCAnIiAImaH/bNgPZvLEtbuXOSjk1hHZ6Ye42bOeAEABAAACEAAAgAIAAAQgAAAAAAAAAA==

> <PUBCHEM_IUPAC_OPENEYE_NAME>
5-(2-fluoroethoxy)-N-[(E)-4-[4-(2-methoxyphenyl)piperazin-1-yl]but-2-enyl]-1H-indole-2-carboxamide;oxalic acid

> <PUBCHEM_IUPAC_CAS_NAME>
5-(2-fluoroethoxy)-N-[(E)-4-[4-(2-methoxyphenyl)-1-piperazinyl]but-2-enyl]-1H-indole-2-carboxamide;oxalic acid

> <PUBCHEM_IUPAC_NAME_MARKUP>
5-(2-fluoroethoxy)-<I>N</I>-[(<I>E</I>)-4-[4-(2-methoxyphenyl)piperazin-1-yl]but-2-enyl]-1<I>H</I>-indole-2-carboxamide;oxalic acid

> <PUBCHEM_IUPAC_NAME>
5-(2-fluoroethoxy)-N-[(E)-4-[4-(2-methoxyphenyl)piperazin-1-yl]but-2-enyl]-1H-indole-2-carboxamide;oxalic acid

> <PUBCHEM_IUPAC_SYSTEMATIC_NAME>
ethanedioic acid;5-(2-fluoranylethoxy)-N-[(E)-4-[4-(2-methoxyphenyl)piperazin-1-yl]but-2-enyl]-1H-indole-2-carboxamide

> <PUBCHEM_IUPAC_TRADITIONAL_NAME>
5-(2-fluoroethoxy)-N-[(E)-4-[4-(2-methoxyphenyl)piperazino]but-2-enyl]-1H-indole-2-carboxamide;oxalic acid

> <PUBCHEM_IUPAC_INCHI>
InChI=1S/C26H31FN4O3.C2H2O4/c1-33-25-7-3-2-6-24(25)31-15-13-30(14-16-31)12-5-4-11-28-26(32)23-19-20-18-21(34-17-10-27)8-9-22(20)29-23;3-1(4)2(5)6/h2-9,18-19,29H,10-17H2,1H3,(H,28,32);(H,3,4)(H,5,6)/b5-4+;

> <PUBCHEM_IUPAC_INCHIKEY>
DFCGGTVOQURBIT-FXRZFVDSSA-N

> <PUBCHEM_EXACT_MASS>
556.23332757

> <PUBCHEM_MOLECULAR_FORMULA>
C28H33FN4O7

> <PUBCHEM_MOLECULAR_WEIGHT>
556.6

> <PUBCHEM_OPENEYE_CAN_SMILES>
COC1=CC=CC=C1N2CCN(CC2)CC=CCNC(=O)C3=CC4=C(N3)C=CC(=C4)OCCF.C(=O)(C(=O)O)O

> <PUBCHEM_OPENEYE_ISO_SMILES>
COC1=CC=CC=C1N2CCN(CC2)C/C=C/CNC(=O)C3=CC4=C(N3)C=CC(=C4)OCCF.C(=O)(C(=O)O)O

> <PUBCHEM_CACTVS_TPSA>
144

> <PUBCHEM_MONOISOTOPIC_WEIGHT>
556.23332757

> <PUBCHEM_TOTAL_CHARGE>
0

> <PUBCHEM_HEAVY_ATOM_COUNT>
40

> <PUBCHEM_ATOM_DEF_STEREO_COUNT>
0

> <PUBCHEM_ATOM_UDEF_STEREO_COUNT>
0

> <PUBCHEM_BOND_DEF_STEREO_COUNT>
1

> <PUBCHEM_BOND_UDEF_STEREO_COUNT>
0

> <PUBCHEM_ISOTOPIC_ATOM_COUNT>
0

> <PUBCHEM_COMPONENT_COUNT>
2

> <PUBCHEM_CACTVS_TAUTO_COUNT>
-1

> <PUBCHEM_COORDINATE_TYPE>
1
5
255

> <PUBCHEM_BONDANNOTATIONS>
12  27  8
12  30  8
18  20  8
18  21  8
20  22  8
21  24  8
22  25  8
24  25  8
27  32  8
29  30  8
29  32  8
29  33  8
30  34  8
33  35  8
34  36  8
35  36  8

$$$$
