127040714
  -OEChem-09292322472D

 60 63  0     1  0  0  0  0  0999 V2000
    5.7567    1.4686    0.0000 S   0  0  0  0  0  0  0  0  0  0  0  0
    8.3548   -8.0314    0.0000 F   0  0  0  0  0  0  0  0  0  0  0  0
    7.3548   -7.0314    0.0000 F   0  0  0  0  0  0  0  0  0  0  0  0
    9.3548   -7.0314    0.0000 F   0  0  0  0  0  0  0  0  0  0  0  0
    9.2208   -2.5314    0.0000 O   0  0  0  0  0  0  0  0  0  0  0  0
    5.1646    6.5117    0.0000 O   0  0  0  0  0  0  0  0  0  0  0  0
    7.4888   -1.5314    0.0000 N   0  0  3  0  0  0  0  0  0  0  0  0
    4.7861    2.9632    0.0000 N   0  0  0  0  0  0  0  0  0  0  0  0
    3.9771    1.5619    0.0000 N   0  0  0  0  0  0  0  0  0  0  0  0
    3.3080    2.3051    0.0000 N   0  0  0  0  0  0  0  0  0  0  0  0
    2.0000    5.1027    0.0000 N   0  0  0  0  0  0  0  0  0  0  0  0
    3.7634    7.5298    0.0000 N   0  0  0  0  0  0  0  0  0  0  0  0
    7.4888   -2.5314    0.0000 C   0  0  0  0  0  0  0  0  0  0  0  0
    8.3548   -3.0314    0.0000 C   0  0  3  0  0  0  0  0  0  0  0  0
    8.3548   -1.0314    0.0000 C   0  0  0  0  0  0  0  0  0  0  0  0
    6.6227   -1.0314    0.0000 C   0  0  0  0  0  0  0  0  0  0  0  0
    9.2208   -1.5314    0.0000 C   0  0  0  0  0  0  0  0  0  0  0  0
    8.3548   -4.0314    0.0000 C   0  0  0  0  0  0  0  0  0  0  0  0
    6.6227   -0.0313    0.0000 C   0  0  0  0  0  0  0  0  0  0  0  0
    5.7567    0.4687    0.0000 C   0  0  0  0  0  0  0  0  0  0  0  0
    9.2208   -4.5314    0.0000 C   0  0  0  0  0  0  0  0  0  0  0  0
    7.4888   -4.5314    0.0000 C   0  0  0  0  0  0  0  0  0  0  0  0
    9.2208   -5.5314    0.0000 C   0  0  0  0  0  0  0  0  0  0  0  0
    7.4888   -5.5314    0.0000 C   0  0  0  0  0  0  0  0  0  0  0  0
    8.3548   -6.0314    0.0000 C   0  0  0  0  0  0  0  0  0  0  0  0
    4.8907    1.9686    0.0000 C   0  0  0  0  0  0  0  0  0  0  0  0
    8.3548   -7.0314    0.0000 C   0  0  0  0  0  0  0  0  0  0  0  0
    3.8080    3.1711    0.0000 C   0  0  0  0  0  0  0  0  0  0  0  0
    5.5293    3.6323    0.0000 C   0  0  0  0  0  0  0  0  0  0  0  0
    3.4013    4.0846    0.0000 C   0  0  0  0  0  0  0  0  0  0  0  0
    3.9890    4.8936    0.0000 C   0  0  0  0  0  0  0  0  0  0  0  0
    2.4067    4.1892    0.0000 C   0  0  0  0  0  0  0  0  0  0  0  0
    3.5823    5.8072    0.0000 C   0  0  0  0  0  0  0  0  0  0  0  0
    2.5878    5.9117    0.0000 C   0  0  0  0  0  0  0  0  0  0  0  0
    4.1701    6.6162    0.0000 C   0  0  0  0  0  0  0  0  0  0  0  0
    6.8782   -2.4237    0.0000 H   0  0  0  0  0  0  0  0  0  0  0  0
    7.2767   -3.1140    0.0000 H   0  0  0  0  0  0  0  0  0  0  0  0
    7.8178   -3.3414    0.0000 H   0  0  0  0  0  0  0  0  0  0  0  0
    8.7533   -0.5564    0.0000 H   0  0  0  0  0  0  0  0  0  0  0  0
    7.9562   -0.5564    0.0000 H   0  0  0  0  0  0  0  0  0  0  0  0
    6.0121   -0.9237    0.0000 H   0  0  0  0  0  0  0  0  0  0  0  0
    6.4107   -1.6140    0.0000 H   0  0  0  0  0  0  0  0  0  0  0  0
    9.8314   -1.6390    0.0000 H   0  0  0  0  0  0  0  0  0  0  0  0
    9.4328   -0.9487    0.0000 H   0  0  0  0  0  0  0  0  0  0  0  0
    7.2333   -0.1390    0.0000 H   0  0  0  0  0  0  0  0  0  0  0  0
    6.8348    0.5513    0.0000 H   0  0  0  0  0  0  0  0  0  0  0  0
    5.1461    0.5763    0.0000 H   0  0  0  0  0  0  0  0  0  0  0  0
    5.5446   -0.1140    0.0000 H   0  0  0  0  0  0  0  0  0  0  0  0
    9.7577   -4.2214    0.0000 H   0  0  0  0  0  0  0  0  0  0  0  0
    6.9518   -4.2214    0.0000 H   0  0  0  0  0  0  0  0  0  0  0  0
    9.7577   -5.8414    0.0000 H   0  0  0  0  0  0  0  0  0  0  0  0
    6.9518   -5.8414    0.0000 H   0  0  0  0  0  0  0  0  0  0  0  0
    5.9441    3.1716    0.0000 H   0  0  0  0  0  0  0  0  0  0  0  0
    5.9900    4.0472    0.0000 H   0  0  0  0  0  0  0  0  0  0  0  0
    5.1144    4.0930    0.0000 H   0  0  0  0  0  0  0  0  0  0  0  0
    4.6056    4.8288    0.0000 H   0  0  0  0  0  0  0  0  0  0  0  0
    2.0423    3.6876    0.0000 H   0  0  0  0  0  0  0  0  0  0  0  0
    2.3356    6.4781    0.0000 H   0  0  0  0  0  0  0  0  0  0  0  0
    4.1278    8.0314    0.0000 H   0  0  0  0  0  0  0  0  0  0  0  0
    3.1468    7.5946    0.0000 H   0  0  0  0  0  0  0  0  0  0  0  0
  1 20  1  0  0  0  0
  1 26  1  0  0  0  0
  2 27  1  0  0  0  0
  3 27  1  0  0  0  0
  4 27  1  0  0  0  0
  5 14  1  0  0  0  0
  5 17  1  0  0  0  0
  6 35  2  0  0  0  0
  7 13  1  0  0  0  0
  7 15  1  0  0  0  0
  7 16  1  0  0  0  0
  8 26  1  0  0  0  0
  8 28  1  0  0  0  0
  8 29  1  0  0  0  0
  9 10  1  0  0  0  0
  9 26  2  0  0  0  0
 10 28  2  0  0  0  0
 11 32  2  0  0  0  0
 11 34  1  0  0  0  0
 12 35  1  0  0  0  0
 12 59  1  0  0  0  0
 12 60  1  0  0  0  0
 13 14  1  0  0  0  0
 13 36  1  0  0  0  0
 13 37  1  0  0  0  0
 14 18  1  0  0  0  0
 14 38  1  0  0  0  0
 15 17  1  0  0  0  0
 15 39  1  0  0  0  0
 15 40  1  0  0  0  0
 16 19  1  0  0  0  0
 16 41  1  0  0  0  0
 16 42  1  0  0  0  0
 17 43  1  0  0  0  0
 17 44  1  0  0  0  0
 18 21  2  0  0  0  0
 18 22  1  0  0  0  0
 19 20  1  0  0  0  0
 19 45  1  0  0  0  0
 19 46  1  0  0  0  0
 20 47  1  0  0  0  0
 20 48  1  0  0  0  0
 21 23  1  0  0  0  0
 21 49  1  0  0  0  0
 22 24  2  0  0  0  0
 22 50  1  0  0  0  0
 23 25  2  0  0  0  0
 23 51  1  0  0  0  0
 24 25  1  0  0  0  0
 24 52  1  0  0  0  0
 25 27  1  0  0  0  0
 28 30  1  0  0  0  0
 29 53  1  0  0  0  0
 29 54  1  0  0  0  0
 29 55  1  0  0  0  0
 30 31  2  0  0  0  0
 30 32  1  0  0  0  0
 31 33  1  0  0  0  0
 31 56  1  0  0  0  0
 32 57  1  0  0  0  0
 33 34  2  0  0  0  0
 33 35  1  0  0  0  0
 34 58  1  0  0  0  0
M  END
> <PUBCHEM_COMPOUND_CID>
127040714

> <PUBCHEM_COMPOUND_CANONICALIZED>
1

> <PUBCHEM_CACTVS_COMPLEXITY>
697

> <PUBCHEM_CACTVS_HBOND_ACCEPTOR>
10

> <PUBCHEM_CACTVS_HBOND_DONOR>
1

> <PUBCHEM_CACTVS_ROTATABLE_BOND>
8

> <PUBCHEM_CACTVS_SUBSKEYS>
AAADceB7sYBAAAAAAAAAAAAAAAAAAWAAAAA8WIAAAAAAAAAB8AAAHwQYAAAADBTl2xa/kJdMFAiqAjN3dACS0Ct1ALAd2CEoTNiKLvrg/ZmHMYhkyAPY6ceYwfAOQAAAAAAAAACAAAAAAAAAAAAAAAAAAA==

> <PUBCHEM_IUPAC_OPENEYE_NAME>
5-[4-methyl-5-[3-[2-[4-(trifluoromethyl)phenyl]morpholin-4-yl]propylsulfanyl]-1,2,4-triazol-3-yl]pyridine-3-carboxamide

> <PUBCHEM_IUPAC_CAS_NAME>
5-[4-methyl-5-[3-[2-[4-(trifluoromethyl)phenyl]-4-morpholinyl]propylthio]-1,2,4-triazol-3-yl]-3-pyridinecarboxamide

> <PUBCHEM_IUPAC_NAME_MARKUP>
5-[4-methyl-5-[3-[2-[4-(trifluoromethyl)phenyl]morpholin-4-yl]propylsulfanyl]-1,2,4-triazol-3-yl]pyridine-3-carboxamide

> <PUBCHEM_IUPAC_NAME>
5-[4-methyl-5-[3-[2-[4-(trifluoromethyl)phenyl]morpholin-4-yl]propylsulfanyl]-1,2,4-triazol-3-yl]pyridine-3-carboxamide

> <PUBCHEM_IUPAC_SYSTEMATIC_NAME>
5-[4-methyl-5-[3-[2-[4-(trifluoromethyl)phenyl]morpholin-4-yl]propylsulfanyl]-1,2,4-triazol-3-yl]pyridine-3-carboxamide

> <PUBCHEM_IUPAC_TRADITIONAL_NAME>
5-[4-methyl-5-[3-[2-[4-(trifluoromethyl)phenyl]morpholino]propylthio]-1,2,4-triazol-3-yl]nicotinamide

> <PUBCHEM_IUPAC_INCHI>
InChI=1S/C23H25F3N6O2S/c1-31-21(17-11-16(20(27)33)12-28-13-17)29-30-22(31)35-10-2-7-32-8-9-34-19(14-32)15-3-5-18(6-4-15)23(24,25)26/h3-6,11-13,19H,2,7-10,14H2,1H3,(H2,27,33)

> <PUBCHEM_IUPAC_INCHIKEY>
ODUXFQKZMHFWKP-UHFFFAOYSA-N

> <PUBCHEM_XLOGP3_AA>
2.2

> <PUBCHEM_EXACT_MASS>
506.17117972

> <PUBCHEM_MOLECULAR_FORMULA>
C23H25F3N6O2S

> <PUBCHEM_MOLECULAR_WEIGHT>
506.5

> <PUBCHEM_OPENEYE_CAN_SMILES>
CN1C(=NN=C1SCCCN2CCOC(C2)C3=CC=C(C=C3)C(F)(F)F)C4=CC(=CN=C4)C(=O)N

> <PUBCHEM_OPENEYE_ISO_SMILES>
CN1C(=NN=C1SCCCN2CCOC(C2)C3=CC=C(C=C3)C(F)(F)F)C4=CC(=CN=C4)C(=O)N

> <PUBCHEM_CACTVS_TPSA>
125

> <PUBCHEM_MONOISOTOPIC_WEIGHT>
506.17117972

> <PUBCHEM_TOTAL_CHARGE>
0

> <PUBCHEM_HEAVY_ATOM_COUNT>
35

> <PUBCHEM_ATOM_DEF_STEREO_COUNT>
0

> <PUBCHEM_ATOM_UDEF_STEREO_COUNT>
1

> <PUBCHEM_BOND_DEF_STEREO_COUNT>
0

> <PUBCHEM_BOND_UDEF_STEREO_COUNT>
0

> <PUBCHEM_ISOTOPIC_ATOM_COUNT>
0

> <PUBCHEM_COMPONENT_COUNT>
1

> <PUBCHEM_CACTVS_TAUTO_COUNT>
-1

> <PUBCHEM_COORDINATE_TYPE>
1
5
255

> <PUBCHEM_BONDANNOTATIONS>
10  28  8
11  32  8
11  34  8
14  18  3
18  21  8
18  22  8
21  23  8
22  24  8
23  25  8
24  25  8
30  31  8
30  32  8
31  33  8
33  34  8
8  26  8
8  28  8
9  10  8
9  26  8

$$$$
