57325768
  -OEChem-09292322052D

120128  0     0  0  0  0  0  0999 V2000
   15.6485   -6.3271    0.0000 Cl  0  0  0  0  0  0  0  0  0  0  0  0
    8.7204    6.3270    0.0000 Cl  0  0  0  0  0  0  0  0  0  0  0  0
   10.9451   -0.5000    0.0000 O   0  0  0  0  0  0  0  0  0  0  0  0
    5.7490    0.5000    0.0000 O   0  0  0  0  0  0  0  0  0  0  0  0
   10.0791   -4.0000    0.0000 O   0  0  0  0  0  0  0  0  0  0  0  0
    6.6150    4.0000    0.0000 O   0  0  0  0  0  0  0  0  0  0  0  0
   10.8772   -8.0916    0.0000 N   0  0  0  0  0  0  0  0  0  0  0  0
    3.9491    8.0916    0.0000 N   0  0  0  0  0  0  0  0  0  0  0  0
   10.0094   -9.8936    0.0000 N   0  0  0  0  0  0  0  0  0  0  0  0
    3.0814    9.8936    0.0000 N   0  0  0  0  0  0  0  0  0  0  0  0
    9.2131   -0.5000    0.0000 N   0  0  0  0  0  0  0  0  0  0  0  0
    7.4810    0.5000    0.0000 N   0  0  0  0  0  0  0  0  0  0  0  0
   11.8111   -5.0000    0.0000 N   0  0  0  0  0  0  0  0  0  0  0  0
    4.8830    5.0000    0.0000 N   0  0  0  0  0  0  0  0  0  0  0  0
   12.3111   -7.1907    0.0000 N   0  0  0  0  0  0  0  0  0  0  0  0
    5.3830    7.1906    0.0000 N   0  0  0  0  0  0  0  0  0  0  0  0
   11.8111   -4.0000    0.0000 N   0  0  0  0  0  0  0  0  0  0  0  0
    4.8830    4.0000    0.0000 N   0  0  0  0  0  0  0  0  0  0  0  0
   11.4405   -8.9179    0.0000 C   0  0  0  0  0  0  0  0  0  0  0  0
    9.8800   -8.1664    0.0000 C   0  0  0  0  0  0  0  0  0  0  0  0
    2.9519    8.1664    0.0000 C   0  0  0  0  0  0  0  0  0  0  0  0
    4.5125    8.9179    0.0000 C   0  0  0  0  0  0  0  0  0  0  0  0
   11.0066   -9.8189    0.0000 C   0  0  0  0  0  0  0  0  0  0  0  0
    9.4461   -9.0673    0.0000 C   0  0  0  0  0  0  0  0  0  0  0  0
    2.5180    9.0673    0.0000 C   0  0  0  0  0  0  0  0  0  0  0  0
    4.0786    9.8188    0.0000 C   0  0  0  0  0  0  0  0  0  0  0  0
    7.4810   -0.5000    0.0000 C   0  0  0  0  0  0  0  0  0  0  0  0
    8.3470   -1.0000    0.0000 C   0  0  0  0  0  0  0  0  0  0  0  0
    8.3471    1.0000    0.0000 C   0  0  0  0  0  0  0  0  0  0  0  0
    9.2131    0.5000    0.0000 C   0  0  0  0  0  0  0  0  0  0  0  0
   11.3111   -7.1907    0.0000 C   0  0  0  0  0  0  0  0  0  0  0  0
    4.3830    7.1907    0.0000 C   0  0  0  0  0  0  0  0  0  0  0  0
   10.0791   -1.0000    0.0000 C   0  0  0  0  0  0  0  0  0  0  0  0
    6.6150    1.0000    0.0000 C   0  0  0  0  0  0  0  0  0  0  0  0
   10.6876   -6.4088    0.0000 C   0  0  0  0  0  0  0  0  0  0  0  0
    3.7595    6.4088    0.0000 C   0  0  0  0  0  0  0  0  0  0  0  0
    9.5755  -10.7945    0.0000 C   0  0  0  0  0  0  0  0  0  0  0  0
    2.6475   10.7945    0.0000 C   0  0  0  0  0  0  0  0  0  0  0  0
   10.0791   -2.0000    0.0000 C   0  0  0  0  0  0  0  0  0  0  0  0
    6.6150    2.0000    0.0000 C   0  0  0  0  0  0  0  0  0  0  0  0
   10.9101   -5.4339    0.0000 C   0  0  0  0  0  0  0  0  0  0  0  0
    3.9820    5.4339    0.0000 C   0  0  0  0  0  0  0  0  0  0  0  0
   10.9451   -2.5000    0.0000 C   0  0  0  0  0  0  0  0  0  0  0  0
    5.7490    2.5000    0.0000 C   0  0  0  0  0  0  0  0  0  0  0  0
   12.7121   -5.4339    0.0000 C   0  0  0  0  0  0  0  0  0  0  0  0
    5.7840    5.4339    0.0000 C   0  0  0  0  0  0  0  0  0  0  0  0
   12.9346   -6.4089    0.0000 C   0  0  0  0  0  0  0  0  0  0  0  0
    6.0065    6.4088    0.0000 C   0  0  0  0  0  0  0  0  0  0  0  0
    9.6971   -6.7312    0.0000 C   0  0  0  0  0  0  0  0  0  0  0  0
    2.7690    6.7312    0.0000 C   0  0  0  0  0  0  0  0  0  0  0  0
   10.9451   -3.5000    0.0000 C   0  0  0  0  0  0  0  0  0  0  0  0
    5.7490    3.5000    0.0000 C   0  0  0  0  0  0  0  0  0  0  0  0
   10.1576   -4.7137    0.0000 C   0  0  0  0  0  0  0  0  0  0  0  0
    3.2295    4.7137    0.0000 C   0  0  0  0  0  0  0  0  0  0  0  0
    8.9281   -6.0286    0.0000 C   0  0  0  0  0  0  0  0  0  0  0  0
    2.0000    6.0286    0.0000 C   0  0  0  0  0  0  0  0  0  0  0  0
   13.4646   -4.7138    0.0000 C   0  0  0  0  0  0  0  0  0  0  0  0
    6.5365    4.7137    0.0000 C   0  0  0  0  0  0  0  0  0  0  0  0
    9.1599   -5.0131    0.0000 C   0  0  0  0  0  0  0  0  0  0  0  0
    2.2318    5.0131    0.0000 C   0  0  0  0  0  0  0  0  0  0  0  0
   13.9251   -6.7312    0.0000 C   0  0  0  0  0  0  0  0  0  0  0  0
    6.9970    6.7311    0.0000 C   0  0  0  0  0  0  0  0  0  0  0  0
   14.4623   -5.0131    0.0000 C   0  0  0  0  0  0  0  0  0  0  0  0
    7.5342    5.0130    0.0000 C   0  0  0  0  0  0  0  0  0  0  0  0
   14.6941   -6.0286    0.0000 C   0  0  0  0  0  0  0  0  0  0  0  0
    7.7660    6.0286    0.0000 C   0  0  0  0  0  0  0  0  0  0  0  0
   11.9439   -9.2798    0.0000 H   0  0  0  0  0  0  0  0  0  0  0  0
   11.8844   -8.4850    0.0000 H   0  0  0  0  0  0  0  0  0  0  0  0
    9.9418   -7.5494    0.0000 H   0  0  0  0  0  0  0  0  0  0  0  0
    9.2832   -7.9984    0.0000 H   0  0  0  0  0  0  0  0  0  0  0  0
    2.3551    7.9984    0.0000 H   0  0  0  0  0  0  0  0  0  0  0  0
    3.0137    7.5494    0.0000 H   0  0  0  0  0  0  0  0  0  0  0  0
    4.9563    8.4850    0.0000 H   0  0  0  0  0  0  0  0  0  0  0  0
    5.0159    9.2798    0.0000 H   0  0  0  0  0  0  0  0  0  0  0  0
   10.9449  -10.4358    0.0000 H   0  0  0  0  0  0  0  0  0  0  0  0
   11.6035   -9.9868    0.0000 H   0  0  0  0  0  0  0  0  0  0  0  0
    8.9427   -8.7054    0.0000 H   0  0  0  0  0  0  0  0  0  0  0  0
    9.0023   -9.5002    0.0000 H   0  0  0  0  0  0  0  0  0  0  0  0
    2.0742    9.5002    0.0000 H   0  0  0  0  0  0  0  0  0  0  0  0
    2.0146    8.7054    0.0000 H   0  0  0  0  0  0  0  0  0  0  0  0
    4.6754    9.9868    0.0000 H   0  0  0  0  0  0  0  0  0  0  0  0
    4.0168   10.4358    0.0000 H   0  0  0  0  0  0  0  0  0  0  0  0
    7.2690   -1.0826    0.0000 H   0  0  0  0  0  0  0  0  0  0  0  0
    6.8704   -0.3923    0.0000 H   0  0  0  0  0  0  0  0  0  0  0  0
    7.9485    1.4749    0.0000 H   0  0  0  0  0  0  0  0  0  0  0  0
    8.7456    1.4749    0.0000 H   0  0  0  0  0  0  0  0  0  0  0  0
    7.9485   -1.4750    0.0000 H   0  0  0  0  0  0  0  0  0  0  0  0
    8.7456   -1.4750    0.0000 H   0  0  0  0  0  0  0  0  0  0  0  0
    9.8237    0.3923    0.0000 H   0  0  0  0  0  0  0  0  0  0  0  0
    9.4251    1.0826    0.0000 H   0  0  0  0  0  0  0  0  0  0  0  0
    9.0169  -10.5255    0.0000 H   0  0  0  0  0  0  0  0  0  0  0  0
    9.3065  -11.3531    0.0000 H   0  0  0  0  0  0  0  0  0  0  0  0
   10.1341  -11.0636    0.0000 H   0  0  0  0  0  0  0  0  0  0  0  0
    3.2061   11.0635    0.0000 H   0  0  0  0  0  0  0  0  0  0  0  0
    2.3785   11.3531    0.0000 H   0  0  0  0  0  0  0  0  0  0  0  0
    2.0889   10.5255    0.0000 H   0  0  0  0  0  0  0  0  0  0  0  0
    9.4685   -1.8924    0.0000 H   0  0  0  0  0  0  0  0  0  0  0  0
    9.8670   -2.5826    0.0000 H   0  0  0  0  0  0  0  0  0  0  0  0
    7.2256    1.8923    0.0000 H   0  0  0  0  0  0  0  0  0  0  0  0
    6.8271    2.5826    0.0000 H   0  0  0  0  0  0  0  0  0  0  0  0
   11.5557   -2.6077    0.0000 H   0  0  0  0  0  0  0  0  0  0  0  0
   11.1572   -1.9174    0.0000 H   0  0  0  0  0  0  0  0  0  0  0  0
    5.1384    2.6077    0.0000 H   0  0  0  0  0  0  0  0  0  0  0  0
    5.5369    1.9174    0.0000 H   0  0  0  0  0  0  0  0  0  0  0  0
    9.5662   -7.3372    0.0000 H   0  0  0  0  0  0  0  0  0  0  0  0
    2.6380    7.3372    0.0000 H   0  0  0  0  0  0  0  0  0  0  0  0
   12.3481   -3.6900    0.0000 H   0  0  0  0  0  0  0  0  0  0  0  0
    4.3460    3.6900    0.0000 H   0  0  0  0  0  0  0  0  0  0  0  0
   10.3025   -4.1109    0.0000 H   0  0  0  0  0  0  0  0  0  0  0  0
    3.3744    4.1109    0.0000 H   0  0  0  0  0  0  0  0  0  0  0  0
    8.3364   -6.2136    0.0000 H   0  0  0  0  0  0  0  0  0  0  0  0
    1.4083    6.2136    0.0000 H   0  0  0  0  0  0  0  0  0  0  0  0
   13.3197   -4.1109    0.0000 H   0  0  0  0  0  0  0  0  0  0  0  0
    6.3916    4.1109    0.0000 H   0  0  0  0  0  0  0  0  0  0  0  0
    8.7070   -4.5896    0.0000 H   0  0  0  0  0  0  0  0  0  0  0  0
    1.7789    4.5896    0.0000 H   0  0  0  0  0  0  0  0  0  0  0  0
   14.0561   -7.3372    0.0000 H   0  0  0  0  0  0  0  0  0  0  0  0
    7.1280    7.3372    0.0000 H   0  0  0  0  0  0  0  0  0  0  0  0
   14.9152   -4.5897    0.0000 H   0  0  0  0  0  0  0  0  0  0  0  0
    7.9871    4.5896    0.0000 H   0  0  0  0  0  0  0  0  0  0  0  0
  1 65  1  0  0  0  0
  2 66  1  0  0  0  0
  3 33  2  0  0  0  0
  4 34  2  0  0  0  0
  5 51  2  0  0  0  0
  6 52  2  0  0  0  0
  7 19  1  0  0  0  0
  7 20  1  0  0  0  0
  7 31  1  0  0  0  0
  8 21  1  0  0  0  0
  8 22  1  0  0  0  0
  8 32  1  0  0  0  0
  9 23  1  0  0  0  0
  9 24  1  0  0  0  0
  9 37  1  0  0  0  0
 10 25  1  0  0  0  0
 10 26  1  0  0  0  0
 10 38  1  0  0  0  0
 11 28  1  0  0  0  0
 11 30  1  0  0  0  0
 11 33  1  0  0  0  0
 12 27  1  0  0  0  0
 12 29  1  0  0  0  0
 12 34  1  0  0  0  0
 13 17  1  0  0  0  0
 13 41  1  0  0  0  0
 13 45  1  0  0  0  0
 14 18  1  0  0  0  0
 14 42  1  0  0  0  0
 14 46  1  0  0  0  0
 15 31  2  0  0  0  0
 15 47  1  0  0  0  0
 16 32  2  0  0  0  0
 16 48  1  0  0  0  0
 17 51  1  0  0  0  0
 17107  1  0  0  0  0
 18 52  1  0  0  0  0
 18108  1  0  0  0  0
 19 23  1  0  0  0  0
 19 67  1  0  0  0  0
 19 68  1  0  0  0  0
 20 24  1  0  0  0  0
 20 69  1  0  0  0  0
 20 70  1  0  0  0  0
 21 25  1  0  0  0  0
 21 71  1  0  0  0  0
 21 72  1  0  0  0  0
 22 26  1  0  0  0  0
 22 73  1  0  0  0  0
 22 74  1  0  0  0  0
 23 75  1  0  0  0  0
 23 76  1  0  0  0  0
 24 77  1  0  0  0  0
 24 78  1  0  0  0  0
 25 79  1  0  0  0  0
 25 80  1  0  0  0  0
 26 81  1  0  0  0  0
 26 82  1  0  0  0  0
 27 28  1  0  0  0  0
 27 83  1  0  0  0  0
 27 84  1  0  0  0  0
 28 87  1  0  0  0  0
 28 88  1  0  0  0  0
 29 30  1  0  0  0  0
 29 85  1  0  0  0  0
 29 86  1  0  0  0  0
 30 89  1  0  0  0  0
 30 90  1  0  0  0  0
 31 35  1  0  0  0  0
 32 36  1  0  0  0  0
 33 39  1  0  0  0  0
 34 40  1  0  0  0  0
 35 41  1  0  0  0  0
 35 49  2  0  0  0  0
 36 42  1  0  0  0  0
 36 50  2  0  0  0  0
 37 91  1  0  0  0  0
 37 92  1  0  0  0  0
 37 93  1  0  0  0  0
 38 94  1  0  0  0  0
 38 95  1  0  0  0  0
 38 96  1  0  0  0  0
 39 43  1  0  0  0  0
 39 97  1  0  0  0  0
 39 98  1  0  0  0  0
 40 44  1  0  0  0  0
 40 99  1  0  0  0  0
 40100  1  0  0  0  0
 41 53  2  0  0  0  0
 42 54  2  0  0  0  0
 43 51  1  0  0  0  0
 43101  1  0  0  0  0
 43102  1  0  0  0  0
 44 52  1  0  0  0  0
 44103  1  0  0  0  0
 44104  1  0  0  0  0
 45 47  2  0  0  0  0
 45 57  1  0  0  0  0
 46 48  2  0  0  0  0
 46 58  1  0  0  0  0
 47 61  1  0  0  0  0
 48 62  1  0  0  0  0
 49 55  1  0  0  0  0
 49105  1  0  0  0  0
 50 56  1  0  0  0  0
 50106  1  0  0  0  0
 53 59  1  0  0  0  0
 53109  1  0  0  0  0
 54 60  1  0  0  0  0
 54110  1  0  0  0  0
 55 59  2  0  0  0  0
 55111  1  0  0  0  0
 56 60  2  0  0  0  0
 56112  1  0  0  0  0
 57 63  2  0  0  0  0
 57113  1  0  0  0  0
 58 64  2  0  0  0  0
 58114  1  0  0  0  0
 59115  1  0  0  0  0
 60116  1  0  0  0  0
 61 65  2  0  0  0  0
 61117  1  0  0  0  0
 62 66  2  0  0  0  0
 62118  1  0  0  0  0
 63 65  1  0  0  0  0
 63119  1  0  0  0  0
 64 66  1  0  0  0  0
 64120  1  0  0  0  0
M  END
> <PUBCHEM_COMPOUND_CID>
57325768

> <PUBCHEM_COMPOUND_CANONICALIZED>
1

> <PUBCHEM_CACTVS_COMPLEXITY>
1660

> <PUBCHEM_CACTVS_HBOND_ACCEPTOR>
10

> <PUBCHEM_CACTVS_HBOND_DONOR>
2

> <PUBCHEM_CACTVS_ROTATABLE_BOND>
10

> <PUBCHEM_CACTVS_SUBSKEYS>
AAADcfB/+AAGAAAAAAAAAAAAAAAAAAAAAAA8ePGCBAgAAAABVAAAHgIYAAAADArBmCQzwINiAACoAidydACCBAEhBwAbqAEodpgIYPLB25GUIAhglgDIyAcVgAAOAABAAAICACAAAIAABAQAQAAAAAAAAA==

> <PUBCHEM_IUPAC_OPENEYE_NAME>
N-[3-chloro-6-(4-methylpiperazin-1-yl)benzo[b][1,4]benzodiazepin-11-yl]-4-[4-[4-[[3-chloro-6-(4-methylpiperazin-1-yl)benzo[b][1,4]benzodiazepin-11-yl]amino]-4-oxo-butanoyl]piperazin-1-yl]-4-oxo-butanamide

> <PUBCHEM_IUPAC_CAS_NAME>
N-[3-chloro-6-(4-methyl-1-piperazinyl)-11-benzo[b][1,4]benzodiazepinyl]-4-[4-[4-[[3-chloro-6-(4-methyl-1-piperazinyl)-11-benzo[b][1,4]benzodiazepinyl]amino]-1,4-dioxobutyl]-1-piperazinyl]-4-oxobutanamide

> <PUBCHEM_IUPAC_NAME_MARKUP>
<I>N</I>-[3-chloro-6-(4-methylpiperazin-1-yl)benzo[b][1,4]benzodiazepin-11-yl]-4-[4-[4-[[3-chloro-6-(4-methylpiperazin-1-yl)benzo[b][1,4]benzodiazepin-11-yl]amino]-4-oxobutanoyl]piperazin-1-yl]-4-oxobutanamide

> <PUBCHEM_IUPAC_NAME>
N-[3-chloro-6-(4-methylpiperazin-1-yl)benzo[b][1,4]benzodiazepin-11-yl]-4-[4-[4-[[3-chloro-6-(4-methylpiperazin-1-yl)benzo[b][1,4]benzodiazepin-11-yl]amino]-4-oxobutanoyl]piperazin-1-yl]-4-oxobutanamide

> <PUBCHEM_IUPAC_SYSTEMATIC_NAME>
N-[3-chloranyl-6-(4-methylpiperazin-1-yl)benzo[b][1,4]benzodiazepin-11-yl]-4-[4-[4-[[3-chloranyl-6-(4-methylpiperazin-1-yl)benzo[b][1,4]benzodiazepin-11-yl]amino]-4-oxidanylidene-butanoyl]piperazin-1-yl]-4-oxidanylidene-butanamide

> <PUBCHEM_IUPAC_TRADITIONAL_NAME>
N-[3-chloro-6-(4-methylpiperazino)benzo[b][1,4]benzodiazepin-11-yl]-4-[4-[4-[[3-chloro-6-(4-methylpiperazino)benzo[b][1,4]benzodiazepin-11-yl]amino]-4-keto-butanoyl]piperazino]-4-keto-butyramide

> <PUBCHEM_IUPAC_INCHI>
InChI=1S/C48H54Cl2N12O4/c1-55-19-23-59(24-20-55)47-35-7-3-5-9-39(35)61(41-13-11-33(49)31-37(41)51-47)53-43(63)15-17-45(65)57-27-29-58(30-28-57)46(66)18-16-44(64)54-62-40-10-6-4-8-36(40)48(60-25-21-56(2)22-26-60)52-38-32-34(50)12-14-42(38)62/h3-14,31-32H,15-30H2,1-2H3,(H,53,63)(H,54,64)

> <PUBCHEM_IUPAC_INCHIKEY>
YWAYCGMRQTZKTF-UHFFFAOYSA-N

> <PUBCHEM_XLOGP3_AA>
3.7

> <PUBCHEM_EXACT_MASS>
932.3768036

> <PUBCHEM_MOLECULAR_FORMULA>
C48H54Cl2N12O4

> <PUBCHEM_MOLECULAR_WEIGHT>
933.9

> <PUBCHEM_OPENEYE_CAN_SMILES>
CN1CCN(CC1)C2=NC3=C(C=CC(=C3)Cl)N(C4=CC=CC=C42)NC(=O)CCC(=O)N5CCN(CC5)C(=O)CCC(=O)NN6C7=C(C=C(C=C7)Cl)N=C(C8=CC=CC=C86)N9CCN(CC9)C

> <PUBCHEM_OPENEYE_ISO_SMILES>
CN1CCN(CC1)C2=NC3=C(C=CC(=C3)Cl)N(C4=CC=CC=C42)NC(=O)CCC(=O)N5CCN(CC5)C(=O)CCC(=O)NN6C7=C(C=C(C=C7)Cl)N=C(C8=CC=CC=C86)N9CCN(CC9)C

> <PUBCHEM_CACTVS_TPSA>
143

> <PUBCHEM_MONOISOTOPIC_WEIGHT>
932.3768036

> <PUBCHEM_TOTAL_CHARGE>
0

> <PUBCHEM_HEAVY_ATOM_COUNT>
66

> <PUBCHEM_ATOM_DEF_STEREO_COUNT>
0

> <PUBCHEM_ATOM_UDEF_STEREO_COUNT>
0

> <PUBCHEM_BOND_DEF_STEREO_COUNT>
0

> <PUBCHEM_BOND_UDEF_STEREO_COUNT>
0

> <PUBCHEM_ISOTOPIC_ATOM_COUNT>
0

> <PUBCHEM_COMPONENT_COUNT>
1

> <PUBCHEM_CACTVS_TAUTO_COUNT>
-1

> <PUBCHEM_COORDINATE_TYPE>
1
5
255

> <PUBCHEM_BONDANNOTATIONS>
35  41  8
35  49  8
36  42  8
36  50  8
41  53  8
42  54  8
45  47  8
45  57  8
46  48  8
46  58  8
47  61  8
48  62  8
49  55  8
50  56  8
53  59  8
54  60  8
55  59  8
56  60  8
57  63  8
58  64  8
61  65  8
62  66  8
63  65  8
64  66  8

$$$$
