137636298
  -OEChem-09292322392D

 33 35  0     0  0  0  0  0  0999 V2000
    2.8660   -3.1550    0.0000 O   0  0  0  0  0  0  0  0  0  0  0  0
    6.3961   -2.1792    0.0000 O   0  0  0  0  0  0  0  0  0  0  0  0
    2.8660    0.8450    0.0000 N   0  0  0  0  0  0  0  0  0  0  0  0
    2.8660    2.8450    0.0000 N   0  0  0  0  0  0  0  0  0  0  0  0
    4.6260   -2.1897    0.0000 N   0  0  0  0  0  0  0  0  0  0  0  0
    3.7320    1.3450    0.0000 C   0  0  0  0  0  0  0  0  0  0  0  0
    2.0000    1.3450    0.0000 C   0  0  0  0  0  0  0  0  0  0  0  0
    3.7320    2.3450    0.0000 C   0  0  0  0  0  0  0  0  0  0  0  0
    2.0000    2.3450    0.0000 C   0  0  0  0  0  0  0  0  0  0  0  0
    2.8660   -0.1550    0.0000 C   0  0  0  0  0  0  0  0  0  0  0  0
    3.7320   -0.6550    0.0000 C   0  0  0  0  0  0  0  0  0  0  0  0
    3.7320   -1.6550    0.0000 C   0  0  0  0  0  0  0  0  0  0  0  0
    2.0000   -0.6550    0.0000 C   0  0  0  0  0  0  0  0  0  0  0  0
    2.8660   -2.1550    0.0000 C   0  0  0  0  0  0  0  0  0  0  0  0
    4.6260   -0.1203    0.0000 C   0  0  0  0  0  0  0  0  0  0  0  0
    2.0000   -1.6550    0.0000 C   0  0  0  0  0  0  0  0  0  0  0  0
    5.5321   -0.6342    0.0000 C   0  0  0  0  0  0  0  0  0  0  0  0
    5.5321   -1.6758    0.0000 C   0  0  0  0  0  0  0  0  0  0  0  0
    3.9441    0.7624    0.0000 H   0  0  0  0  0  0  0  0  0  0  0  0
    4.3426    1.4527    0.0000 H   0  0  0  0  0  0  0  0  0  0  0  0
    1.3894    1.4527    0.0000 H   0  0  0  0  0  0  0  0  0  0  0  0
    1.7880    0.7624    0.0000 H   0  0  0  0  0  0  0  0  0  0  0  0
    4.3426    2.2373    0.0000 H   0  0  0  0  0  0  0  0  0  0  0  0
    3.9441    2.9276    0.0000 H   0  0  0  0  0  0  0  0  0  0  0  0
    1.7880    2.9276    0.0000 H   0  0  0  0  0  0  0  0  0  0  0  0
    1.3894    2.2373    0.0000 H   0  0  0  0  0  0  0  0  0  0  0  0
    2.8660    3.4650    0.0000 H   0  0  0  0  0  0  0  0  0  0  0  0
    1.4631   -0.3450    0.0000 H   0  0  0  0  0  0  0  0  0  0  0  0
    4.6188    0.4996    0.0000 H   0  0  0  0  0  0  0  0  0  0  0  0
    1.4631   -1.9650    0.0000 H   0  0  0  0  0  0  0  0  0  0  0  0
    4.6188   -2.8096    0.0000 H   0  0  0  0  0  0  0  0  0  0  0  0
    6.0678   -0.3221    0.0000 H   0  0  0  0  0  0  0  0  0  0  0  0
    2.3291   -3.4650    0.0000 H   0  0  0  0  0  0  0  0  0  0  0  0
  1 14  1  0  0  0  0
  1 33  1  0  0  0  0
  2 18  2  0  0  0  0
  3  6  1  0  0  0  0
  3  7  1  0  0  0  0
  3 10  1  0  0  0  0
  4  8  1  0  0  0  0
  4  9  1  0  0  0  0
  4 27  1  0  0  0  0
  5 12  1  0  0  0  0
  5 18  1  0  0  0  0
  5 31  1  0  0  0  0
  6  8  1  0  0  0  0
  6 19  1  0  0  0  0
  6 20  1  0  0  0  0
  7  9  1  0  0  0  0
  7 21  1  0  0  0  0
  7 22  1  0  0  0  0
  8 23  1  0  0  0  0
  8 24  1  0  0  0  0
  9 25  1  0  0  0  0
  9 26  1  0  0  0  0
 10 11  2  0  0  0  0
 10 13  1  0  0  0  0
 11 12  1  0  0  0  0
 11 15  1  0  0  0  0
 12 14  2  0  0  0  0
 13 16  2  0  0  0  0
 13 28  1  0  0  0  0
 14 16  1  0  0  0  0
 15 17  2  0  0  0  0
 15 29  1  0  0  0  0
 16 30  1  0  0  0  0
 17 18  1  0  0  0  0
 17 32  1  0  0  0  0
M  END
> <PUBCHEM_COMPOUND_CID>
137636298

> <PUBCHEM_COMPOUND_CANONICALIZED>
1

> <PUBCHEM_CACTVS_COMPLEXITY>
352

> <PUBCHEM_CACTVS_HBOND_ACCEPTOR>
4

> <PUBCHEM_CACTVS_HBOND_DONOR>
3

> <PUBCHEM_CACTVS_ROTATABLE_BOND>
1

> <PUBCHEM_CACTVS_SUBSKEYS>
AAADccBzMAAAAAAAAAAAAAAAAAAAAAAAAAA8QIAAAAAAAACBAAAAHgAQCAAADAzBmAQwxoPAAgCIAiVSUACCAAAhIgAIiIAPbMgKZiLS0NOUcAhk1BHY2YewwBAOAEABAAQCEAAAgAIACAQgAAAAAAAAAA==

> <PUBCHEM_IUPAC_OPENEYE_NAME>
8-hydroxy-5-piperazin-1-yl-1H-quinolin-2-one

> <PUBCHEM_IUPAC_CAS_NAME>
8-hydroxy-5-(1-piperazinyl)-1H-quinolin-2-one

> <PUBCHEM_IUPAC_NAME_MARKUP>
8-hydroxy-5-piperazin-1-yl-1<I>H</I>-quinolin-2-one

> <PUBCHEM_IUPAC_NAME>
8-hydroxy-5-piperazin-1-yl-1H-quinolin-2-one

> <PUBCHEM_IUPAC_SYSTEMATIC_NAME>
8-oxidanyl-5-piperazin-1-yl-1H-quinolin-2-one

> <PUBCHEM_IUPAC_TRADITIONAL_NAME>
8-hydroxy-5-piperazino-carbostyril

> <PUBCHEM_IUPAC_INCHI>
InChI=1S/C13H15N3O2/c17-11-3-2-10(16-7-5-14-6-8-16)9-1-4-12(18)15-13(9)11/h1-4,14,17H,5-8H2,(H,15,18)

> <PUBCHEM_IUPAC_INCHIKEY>
DFNHNBPKUMLYOZ-UHFFFAOYSA-N

> <PUBCHEM_XLOGP3_AA>
0.4

> <PUBCHEM_EXACT_MASS>
245.116426730

> <PUBCHEM_MOLECULAR_FORMULA>
C13H15N3O2

> <PUBCHEM_MOLECULAR_WEIGHT>
245.28

> <PUBCHEM_OPENEYE_CAN_SMILES>
C1CN(CCN1)C2=C3C=CC(=O)NC3=C(C=C2)O

> <PUBCHEM_OPENEYE_ISO_SMILES>
C1CN(CCN1)C2=C3C=CC(=O)NC3=C(C=C2)O

> <PUBCHEM_CACTVS_TPSA>
64.6

> <PUBCHEM_MONOISOTOPIC_WEIGHT>
245.116426730

> <PUBCHEM_TOTAL_CHARGE>
0

> <PUBCHEM_HEAVY_ATOM_COUNT>
18

> <PUBCHEM_ATOM_DEF_STEREO_COUNT>
0

> <PUBCHEM_ATOM_UDEF_STEREO_COUNT>
0

> <PUBCHEM_BOND_DEF_STEREO_COUNT>
0

> <PUBCHEM_BOND_UDEF_STEREO_COUNT>
0

> <PUBCHEM_ISOTOPIC_ATOM_COUNT>
0

> <PUBCHEM_COMPONENT_COUNT>
1

> <PUBCHEM_CACTVS_TAUTO_COUNT>
-1

> <PUBCHEM_COORDINATE_TYPE>
1
5
255

> <PUBCHEM_BONDANNOTATIONS>
10  11  8
10  13  8
11  12  8
11  15  8
12  14  8
13  16  8
14  16  8
15  17  8
17  18  8
5  12  8
5  18  8

$$$$
