168296523
  -OEChem-09292322022D

 58 57  0     0  0  0  0  0  0999 V2000
    2.0281    9.7133    0.0000 S   0  0  0  0  0  0  0  0  0  0  0  0
    8.9427    2.6612    0.0000 F   0  0  0  0  0  0  0  0  0  0  0  0
    9.3087    4.0272    0.0000 F   0  0  0  0  0  0  0  0  0  0  0  0
   10.3087    2.2952    0.0000 F   0  0  0  0  0  0  0  0  0  0  0  0
    9.3087    8.3933    0.0000 F   0  0  0  0  0  0  0  0  0  0  0  0
    8.9427    7.0272    0.0000 F   0  0  0  0  0  0  0  0  0  0  0  0
   10.3087    6.6612    0.0000 F   0  0  0  0  0  0  0  0  0  0  0  0
    3.8076    5.6200    0.0000 O   0  0  0  0  0  0  0  0  0  0  0  0
   11.5407    3.1612    0.0000 O   0  0  0  0  0  0  0  0  0  0  0  0
   11.5407    7.5272    0.0000 O   0  0  0  0  0  0  0  0  0  0  0  0
   10.6747    4.6612    0.0000 O   0  0  0  0  0  0  0  0  0  0  0  0
   10.6747    9.0272    0.0000 O   0  0  0  0  0  0  0  0  0  0  0  0
    4.6737    7.1200    0.0000 N   0  0  0  0  0  0  0  0  0  0  0  0
    4.6737    4.1200    0.0000 N   0  0  0  0  0  0  0  0  0  0  0  0
    5.5397    5.6200    0.0000 N   0  0  0  0  0  0  0  0  0  0  0  0
    2.8371   11.1145    0.0000 N   0  0  0  0  0  0  0  0  0  0  0  0
    1.8590   11.3224    0.0000 N   0  0  0  0  0  0  0  0  0  0  0  0
    6.4057    7.1200    0.0000 N   0  0  0  0  0  0  0  0  0  0  0  0
    0.3644   10.3519    0.0000 N   0  0  0  0  0  0  0  0  0  0  0  0
    3.8076    8.6200    0.0000 C   0  0  0  0  0  0  0  0  0  0  0  0
    3.8076    9.6200    0.0000 C   0  0  0  0  0  0  0  0  0  0  0  0
    4.6737    8.1200    0.0000 C   0  0  0  0  0  0  0  0  0  0  0  0
    2.9416   10.1200    0.0000 C   0  0  0  0  0  0  0  0  0  0  0  0
    3.8076    3.6200    0.0000 C   0  0  0  0  0  0  0  0  0  0  0  0
    3.8076    2.6200    0.0000 C   0  0  0  0  0  0  0  0  0  0  0  0
    5.5397    6.6200    0.0000 C   0  0  0  0  0  0  0  0  0  0  0  0
    4.6737    2.1200    0.0000 C   0  0  0  0  0  0  0  0  0  0  0  0
    2.9416    2.1200    0.0000 C   0  0  0  0  0  0  0  0  0  0  0  0
    4.6737    5.1200    0.0000 C   0  0  0  0  0  0  0  0  0  0  0  0
    1.3590   10.4564    0.0000 C   0  0  0  0  0  0  0  0  0  0  0  0
    4.6737    1.1200    0.0000 C   0  0  0  0  0  0  0  0  0  0  0  0
    2.9416    1.1200    0.0000 C   0  0  0  0  0  0  0  0  0  0  0  0
    3.8076    0.6200    0.0000 C   0  0  0  0  0  0  0  0  0  0  0  0
    9.8087    3.1612    0.0000 C   0  0  0  0  0  0  0  0  0  0  0  0
    9.8087    7.5272    0.0000 C   0  0  0  0  0  0  0  0  0  0  0  0
   10.6747    3.6612    0.0000 C   0  0  0  0  0  0  0  0  0  0  0  0
   10.6747    8.0272    0.0000 C   0  0  0  0  0  0  0  0  0  0  0  0
    3.1971    8.7277    0.0000 H   0  0  0  0  0  0  0  0  0  0  0  0
    3.5956    8.0374    0.0000 H   0  0  0  0  0  0  0  0  0  0  0  0
    4.4182    9.5123    0.0000 H   0  0  0  0  0  0  0  0  0  0  0  0
    4.0197   10.2026    0.0000 H   0  0  0  0  0  0  0  0  0  0  0  0
    5.2843    8.0123    0.0000 H   0  0  0  0  0  0  0  0  0  0  0  0
    4.8857    8.7026    0.0000 H   0  0  0  0  0  0  0  0  0  0  0  0
    3.5956    4.2026    0.0000 H   0  0  0  0  0  0  0  0  0  0  0  0
    3.1971    3.5123    0.0000 H   0  0  0  0  0  0  0  0  0  0  0  0
    5.2106    3.8100    0.0000 H   0  0  0  0  0  0  0  0  0  0  0  0
    5.2106    2.4300    0.0000 H   0  0  0  0  0  0  0  0  0  0  0  0
    2.4047    2.4300    0.0000 H   0  0  0  0  0  0  0  0  0  0  0  0
    6.0766    5.3100    0.0000 H   0  0  0  0  0  0  0  0  0  0  0  0
    5.2106    0.8100    0.0000 H   0  0  0  0  0  0  0  0  0  0  0  0
    2.4047    0.8100    0.0000 H   0  0  0  0  0  0  0  0  0  0  0  0
    3.8076    0.0000    0.0000 H   0  0  0  0  0  0  0  0  0  0  0  0
    6.4057    7.7400    0.0000 H   0  0  0  0  0  0  0  0  0  0  0  0
    6.9427    6.8100    0.0000 H   0  0  0  0  0  0  0  0  0  0  0  0
    0.0000   10.8535    0.0000 H   0  0  0  0  0  0  0  0  0  0  0  0
    0.1122    9.7855    0.0000 H   0  0  0  0  0  0  0  0  0  0  0  0
   12.0777    3.4712    0.0000 H   0  0  0  0  0  0  0  0  0  0  0  0
   12.0777    7.8372    0.0000 H   0  0  0  0  0  0  0  0  0  0  0  0
  1 23  1  0  0  0  0
  1 30  1  0  0  0  0
  2 34  1  0  0  0  0
  3 34  1  0  0  0  0
  4 34  1  0  0  0  0
  5 35  1  0  0  0  0
  6 35  1  0  0  0  0
  7 35  1  0  0  0  0
  8 29  2  0  0  0  0
  9 36  1  0  0  0  0
  9 57  1  0  0  0  0
 10 37  1  0  0  0  0
 10 58  1  0  0  0  0
 11 36  2  0  0  0  0
 12 37  2  0  0  0  0
 13 22  1  0  0  0  0
 13 26  2  0  0  0  0
 14 24  1  0  0  0  0
 14 29  1  0  0  0  0
 14 46  1  0  0  0  0
 15 26  1  0  0  0  0
 15 29  1  0  0  0  0
 15 49  1  0  0  0  0
 16 17  1  0  0  0  0
 16 23  2  0  0  0  0
 17 30  2  0  0  0  0
 18 26  1  0  0  0  0
 18 53  1  0  0  0  0
 18 54  1  0  0  0  0
 19 30  1  0  0  0  0
 19 55  1  0  0  0  0
 19 56  1  0  0  0  0
 20 21  1  0  0  0  0
 20 22  1  0  0  0  0
 20 38  1  0  0  0  0
 20 39  1  0  0  0  0
 21 23  1  0  0  0  0
 21 40  1  0  0  0  0
 21 41  1  0  0  0  0
 22 42  1  0  0  0  0
 22 43  1  0  0  0  0
 24 25  1  0  0  0  0
 24 44  1  0  0  0  0
 24 45  1  0  0  0  0
 25 27  2  0  0  0  0
 25 28  1  0  0  0  0
 27 31  1  0  0  0  0
 27 47  1  0  0  0  0
 28 32  2  0  0  0  0
 28 48  1  0  0  0  0
 31 33  2  0  0  0  0
 31 50  1  0  0  0  0
 32 33  1  0  0  0  0
 32 51  1  0  0  0  0
 33 52  1  0  0  0  0
 34 36  1  0  0  0  0
 35 37  1  0  0  0  0
M  END
> <PUBCHEM_COMPOUND_CID>
168296523

> <PUBCHEM_COMPOUND_CANONICALIZED>
1

> <PUBCHEM_CACTVS_COMPLEXITY>
484

> <PUBCHEM_CACTVS_HBOND_ACCEPTOR>
16

> <PUBCHEM_CACTVS_HBOND_DONOR>
6

> <PUBCHEM_CACTVS_ROTATABLE_BOND>
7

> <PUBCHEM_CACTVS_SUBSKEYS>
AAADceB7ucBAAAAAAAAAAAAAAAAAAWAAAAAwAAAAAAAAAAABwAAAHwQYCAAADADB2hQxGILAAgiuAiDyPACSAINgABEdiIA4BIiIICKgkRGEIAh4jwIIiAcQgAAOAAAAAAAAAAAAAAAAAAAAAAAAAAAAAA==

> <PUBCHEM_IUPAC_OPENEYE_NAME>
1-[N'-[3-(5-amino-1,3,4-thiadiazol-2-yl)propyl]carbamimidoyl]-3-benzyl-urea;2,2,2-trifluoroacetic acid

> <PUBCHEM_IUPAC_CAS_NAME>
1-[amino-[3-(5-amino-1,3,4-thiadiazol-2-yl)propylimino]methyl]-3-(phenylmethyl)urea;2,2,2-trifluoroacetic acid

> <PUBCHEM_IUPAC_NAME_MARKUP>
1-[<I>N</I>&apos;-[3-(5-amino-1,3,4-thiadiazol-2-yl)propyl]carbamimidoyl]-3-benzylurea;2,2,2-trifluoroacetic acid

> <PUBCHEM_IUPAC_NAME>
1-[N'-[3-(5-amino-1,3,4-thiadiazol-2-yl)propyl]carbamimidoyl]-3-benzylurea;2,2,2-trifluoroacetic acid

> <PUBCHEM_IUPAC_SYSTEMATIC_NAME>
1-[N'-[3-(5-azanyl-1,3,4-thiadiazol-2-yl)propyl]carbamimidoyl]-3-(phenylmethyl)urea;2,2,2-tris(fluoranyl)ethanoic acid

> <PUBCHEM_IUPAC_TRADITIONAL_NAME>
1-[N'-[3-(5-amino-1,3,4-thiadiazol-2-yl)propyl]amidino]-3-benzyl-urea;2,2,2-trifluoroacetic acid

> <PUBCHEM_IUPAC_INCHI>
InChI=1S/C14H19N7OS.2C2HF3O2/c15-12(17-8-4-7-11-20-21-13(16)23-11)19-14(22)18-9-10-5-2-1-3-6-10;2*3-2(4,5)1(6)7/h1-3,5-6H,4,7-9H2,(H2,16,21)(H4,15,17,18,19,22);2*(H,6,7)

> <PUBCHEM_IUPAC_INCHIKEY>
JQNCPAZRLLSTTQ-UHFFFAOYSA-N

> <PUBCHEM_EXACT_MASS>
561.12290694

> <PUBCHEM_MOLECULAR_FORMULA>
C18H21F6N7O5S

> <PUBCHEM_MOLECULAR_WEIGHT>
561.5

> <PUBCHEM_OPENEYE_CAN_SMILES>
C1=CC=C(C=C1)CNC(=O)NC(=NCCCC2=NN=C(S2)N)N.C(=O)(C(F)(F)F)O.C(=O)(C(F)(F)F)O

> <PUBCHEM_OPENEYE_ISO_SMILES>
C1=CC=C(C=C1)CNC(=O)NC(=NCCCC2=NN=C(S2)N)N.C(=O)(C(F)(F)F)O.C(=O)(C(F)(F)F)O

> <PUBCHEM_CACTVS_TPSA>
234

> <PUBCHEM_MONOISOTOPIC_WEIGHT>
561.12290694

> <PUBCHEM_TOTAL_CHARGE>
0

> <PUBCHEM_HEAVY_ATOM_COUNT>
37

> <PUBCHEM_ATOM_DEF_STEREO_COUNT>
0

> <PUBCHEM_ATOM_UDEF_STEREO_COUNT>
0

> <PUBCHEM_BOND_DEF_STEREO_COUNT>
0

> <PUBCHEM_BOND_UDEF_STEREO_COUNT>
0

> <PUBCHEM_ISOTOPIC_ATOM_COUNT>
0

> <PUBCHEM_COMPONENT_COUNT>
3

> <PUBCHEM_CACTVS_TAUTO_COUNT>
-1

> <PUBCHEM_COORDINATE_TYPE>
1
5
255

> <PUBCHEM_BONDANNOTATIONS>
1  23  8
1  30  8
16  17  8
16  23  8
17  30  8
25  27  8
25  28  8
27  31  8
28  32  8
31  33  8
32  33  8

$$$$
