71725031
  -OEChem-09292322012D

 57 60  0     0  0  0  0  0  0999 V2000
   11.4939    2.4291    0.0000 O   0  0  0  0  0  0  0  0  0  0  0  0
    8.4939   -2.7671    0.0000 O   0  0  0  0  0  0  0  0  0  0  0  0
    2.8660   -0.9010    0.0000 O   0  0  0  0  0  0  0  0  0  0  0  0
   14.4939    0.6970    0.0000 O   0  0  0  0  0  0  0  0  0  0  0  0
    9.4939    0.6970    0.0000 N   0  0  0  0  0  0  0  0  0  0  0  0
    8.4939   -1.0350    0.0000 N   0  0  0  0  0  0  0  0  0  0  0  0
    6.4103   -2.7058    0.0000 N   0  0  0  0  0  0  0  0  0  0  0  0
    8.4939    0.6970    0.0000 C   0  0  0  0  0  0  0  0  0  0  0  0
    9.9939   -0.1690    0.0000 C   0  0  0  0  0  0  0  0  0  0  0  0
    7.9939   -0.1690    0.0000 C   0  0  0  0  0  0  0  0  0  0  0  0
    9.4939   -1.0350    0.0000 C   0  0  0  0  0  0  0  0  0  0  0  0
    9.9939    1.5630    0.0000 C   0  0  0  0  0  0  0  0  0  0  0  0
    7.9939   -1.9010    0.0000 C   0  0  0  0  0  0  0  0  0  0  0  0
   10.9939    1.5630    0.0000 C   0  0  0  0  0  0  0  0  0  0  0  0
    6.9939   -1.9010    0.0000 C   0  0  0  0  0  0  0  0  0  0  0  0
    6.4103   -1.0963    0.0000 C   0  0  0  0  0  0  0  0  0  0  0  0
    5.4641   -1.4010    0.0000 C   0  0  0  0  0  0  0  0  0  0  0  0
    5.4641   -2.4010    0.0000 C   0  0  0  0  0  0  0  0  0  0  0  0
    4.5981   -0.9010    0.0000 C   0  0  0  0  0  0  0  0  0  0  0  0
    4.5981   -2.9010    0.0000 C   0  0  0  0  0  0  0  0  0  0  0  0
   12.4939    2.4291    0.0000 C   0  0  0  0  0  0  0  0  0  0  0  0
    3.7320   -1.4010    0.0000 C   0  0  0  0  0  0  0  0  0  0  0  0
    3.7320   -2.4010    0.0000 C   0  0  0  0  0  0  0  0  0  0  0  0
   12.9939    1.5630    0.0000 C   0  0  0  0  0  0  0  0  0  0  0  0
   12.9939    3.2951    0.0000 C   0  0  0  0  0  0  0  0  0  0  0  0
   13.9939    1.5630    0.0000 C   0  0  0  0  0  0  0  0  0  0  0  0
   13.9939    3.2951    0.0000 C   0  0  0  0  0  0  0  0  0  0  0  0
   14.4939    2.4291    0.0000 C   0  0  0  0  0  0  0  0  0  0  0  0
    2.0000   -1.4010    0.0000 C   0  0  0  0  0  0  0  0  0  0  0  0
   15.4939    0.6970    0.0000 C   0  0  0  0  0  0  0  0  0  0  0  0
    8.6016    1.3076    0.0000 H   0  0  0  0  0  0  0  0  0  0  0  0
    7.9113    0.9091    0.0000 H   0  0  0  0  0  0  0  0  0  0  0  0
   10.4689   -0.5675    0.0000 H   0  0  0  0  0  0  0  0  0  0  0  0
   10.4689    0.2295    0.0000 H   0  0  0  0  0  0  0  0  0  0  0  0
    7.5190    0.2295    0.0000 H   0  0  0  0  0  0  0  0  0  0  0  0
    7.5190   -0.5675    0.0000 H   0  0  0  0  0  0  0  0  0  0  0  0
    9.3863   -1.6456    0.0000 H   0  0  0  0  0  0  0  0  0  0  0  0
   10.0765   -1.2471    0.0000 H   0  0  0  0  0  0  0  0  0  0  0  0
   10.1016    2.1736    0.0000 H   0  0  0  0  0  0  0  0  0  0  0  0
    9.4113    1.7751    0.0000 H   0  0  0  0  0  0  0  0  0  0  0  0
   10.8863    0.9525    0.0000 H   0  0  0  0  0  0  0  0  0  0  0  0
   11.5765    1.3510    0.0000 H   0  0  0  0  0  0  0  0  0  0  0  0
    6.6029   -0.5070    0.0000 H   0  0  0  0  0  0  0  0  0  0  0  0
    6.6029   -3.2951    0.0000 H   0  0  0  0  0  0  0  0  0  0  0  0
    4.5981   -0.2810    0.0000 H   0  0  0  0  0  0  0  0  0  0  0  0
    4.5981   -3.5210    0.0000 H   0  0  0  0  0  0  0  0  0  0  0  0
    3.1951   -2.7110    0.0000 H   0  0  0  0  0  0  0  0  0  0  0  0
   12.6839    1.0261    0.0000 H   0  0  0  0  0  0  0  0  0  0  0  0
   12.6839    3.8320    0.0000 H   0  0  0  0  0  0  0  0  0  0  0  0
   14.3039    3.8320    0.0000 H   0  0  0  0  0  0  0  0  0  0  0  0
   15.1139    2.4291    0.0000 H   0  0  0  0  0  0  0  0  0  0  0  0
    1.6900   -0.8641    0.0000 H   0  0  0  0  0  0  0  0  0  0  0  0
    1.4631   -1.7110    0.0000 H   0  0  0  0  0  0  0  0  0  0  0  0
    2.3100   -1.9380    0.0000 H   0  0  0  0  0  0  0  0  0  0  0  0
   15.4939    0.0770    0.0000 H   0  0  0  0  0  0  0  0  0  0  0  0
   16.1139    0.6970    0.0000 H   0  0  0  0  0  0  0  0  0  0  0  0
   15.4939    1.3170    0.0000 H   0  0  0  0  0  0  0  0  0  0  0  0
  1 14  1  0  0  0  0
  1 21  1  0  0  0  0
  2 13  2  0  0  0  0
  3 22  1  0  0  0  0
  3 29  1  0  0  0  0
  4 26  1  0  0  0  0
  4 30  1  0  0  0  0
  5  8  1  0  0  0  0
  5  9  1  0  0  0  0
  5 12  1  0  0  0  0
  6 10  1  0  0  0  0
  6 11  1  0  0  0  0
  6 13  1  0  0  0  0
  7 15  1  0  0  0  0
  7 18  1  0  0  0  0
  7 44  1  0  0  0  0
  8 10  1  0  0  0  0
  8 31  1  0  0  0  0
  8 32  1  0  0  0  0
  9 11  1  0  0  0  0
  9 33  1  0  0  0  0
  9 34  1  0  0  0  0
 10 35  1  0  0  0  0
 10 36  1  0  0  0  0
 11 37  1  0  0  0  0
 11 38  1  0  0  0  0
 12 14  1  0  0  0  0
 12 39  1  0  0  0  0
 12 40  1  0  0  0  0
 13 15  1  0  0  0  0
 14 41  1  0  0  0  0
 14 42  1  0  0  0  0
 15 16  2  0  0  0  0
 16 17  1  0  0  0  0
 16 43  1  0  0  0  0
 17 18  2  0  0  0  0
 17 19  1  0  0  0  0
 18 20  1  0  0  0  0
 19 22  2  0  0  0  0
 19 45  1  0  0  0  0
 20 23  2  0  0  0  0
 20 46  1  0  0  0  0
 21 24  1  0  0  0  0
 21 25  2  0  0  0  0
 22 23  1  0  0  0  0
 23 47  1  0  0  0  0
 24 26  2  0  0  0  0
 24 48  1  0  0  0  0
 25 27  1  0  0  0  0
 25 49  1  0  0  0  0
 26 28  1  0  0  0  0
 27 28  2  0  0  0  0
 27 50  1  0  0  0  0
 28 51  1  0  0  0  0
 29 52  1  0  0  0  0
 29 53  1  0  0  0  0
 29 54  1  0  0  0  0
 30 55  1  0  0  0  0
 30 56  1  0  0  0  0
 30 57  1  0  0  0  0
M  END
> <PUBCHEM_COMPOUND_CID>
71725031

> <PUBCHEM_COMPOUND_CANONICALIZED>
1

> <PUBCHEM_CACTVS_COMPLEXITY>
555

> <PUBCHEM_CACTVS_HBOND_ACCEPTOR>
5

> <PUBCHEM_CACTVS_HBOND_DONOR>
1

> <PUBCHEM_CACTVS_ROTATABLE_BOND>
7

> <PUBCHEM_CACTVS_SUBSKEYS>
AAADceB7OAAAAAAAAAAAAAAAAAAAAWAAAAA8YIAAAAAAAFgB9AAAHgAQAAAADAzhngYyxvPJlACoAyVyVACCiCAnIiAImSG+bNgOZ/LEtbuXOSjl1hXY6Ye4+b+eAEABCAACAAAAgAIQAAQAAAAAAAAAAA==

> <PUBCHEM_IUPAC_OPENEYE_NAME>
(5-methoxy-1H-indol-2-yl)-[4-[2-(3-methoxyphenoxy)ethyl]piperazin-1-yl]methanone

> <PUBCHEM_IUPAC_CAS_NAME>
(5-methoxy-1H-indol-2-yl)-[4-[2-(3-methoxyphenoxy)ethyl]-1-piperazinyl]methanone

> <PUBCHEM_IUPAC_NAME_MARKUP>
(5-methoxy-1<I>H</I>-indol-2-yl)-[4-[2-(3-methoxyphenoxy)ethyl]piperazin-1-yl]methanone

> <PUBCHEM_IUPAC_NAME>
(5-methoxy-1H-indol-2-yl)-[4-[2-(3-methoxyphenoxy)ethyl]piperazin-1-yl]methanone

> <PUBCHEM_IUPAC_SYSTEMATIC_NAME>
(5-methoxy-1H-indol-2-yl)-[4-[2-(3-methoxyphenoxy)ethyl]piperazin-1-yl]methanone

> <PUBCHEM_IUPAC_TRADITIONAL_NAME>
(5-methoxy-1H-indol-2-yl)-[4-[2-(3-methoxyphenoxy)ethyl]piperazino]methanone

> <PUBCHEM_IUPAC_INCHI>
InChI=1S/C23H27N3O4/c1-28-18-4-3-5-20(16-18)30-13-12-25-8-10-26(11-9-25)23(27)22-15-17-14-19(29-2)6-7-21(17)24-22/h3-7,14-16,24H,8-13H2,1-2H3

> <PUBCHEM_IUPAC_INCHIKEY>
XDUZMCZHXHFPEP-UHFFFAOYSA-N

> <PUBCHEM_XLOGP3_AA>
3.3

> <PUBCHEM_EXACT_MASS>
409.20015635

> <PUBCHEM_MOLECULAR_FORMULA>
C23H27N3O4

> <PUBCHEM_MOLECULAR_WEIGHT>
409.5

> <PUBCHEM_OPENEYE_CAN_SMILES>
COC1=CC(=CC=C1)OCCN2CCN(CC2)C(=O)C3=CC4=C(N3)C=CC(=C4)OC

> <PUBCHEM_OPENEYE_ISO_SMILES>
COC1=CC(=CC=C1)OCCN2CCN(CC2)C(=O)C3=CC4=C(N3)C=CC(=C4)OC

> <PUBCHEM_CACTVS_TPSA>
67

> <PUBCHEM_MONOISOTOPIC_WEIGHT>
409.20015635

> <PUBCHEM_TOTAL_CHARGE>
0

> <PUBCHEM_HEAVY_ATOM_COUNT>
30

> <PUBCHEM_ATOM_DEF_STEREO_COUNT>
0

> <PUBCHEM_ATOM_UDEF_STEREO_COUNT>
0

> <PUBCHEM_BOND_DEF_STEREO_COUNT>
0

> <PUBCHEM_BOND_UDEF_STEREO_COUNT>
0

> <PUBCHEM_ISOTOPIC_ATOM_COUNT>
0

> <PUBCHEM_COMPONENT_COUNT>
1

> <PUBCHEM_CACTVS_TAUTO_COUNT>
-1

> <PUBCHEM_COORDINATE_TYPE>
1
5
255

> <PUBCHEM_BONDANNOTATIONS>
15  16  8
16  17  8
17  18  8
17  19  8
18  20  8
19  22  8
20  23  8
21  24  8
21  25  8
22  23  8
24  26  8
25  27  8
26  28  8
27  28  8
7  15  8
7  18  8

$$$$
