127046817
  -OEChem-09292322372D

 58 61  0     0  0  0  0  0  0999 V2000
    8.4530   -2.8240    0.0000 S   0  0  0  0  0  0  0  0  0  0  0  0
    9.4035   -2.5133    0.0000 O   0  0  0  0  0  0  0  0  0  0  0  0
    7.5025   -3.1347    0.0000 O   0  0  0  0  0  0  0  0  0  0  0  0
    4.5981   -2.0687    0.0000 N   0  0  0  0  0  0  0  0  0  0  0  0
    2.8660   -3.0687    0.0000 N   0  0  0  0  0  0  0  0  0  0  0  0
    8.1424   -1.8735    0.0000 N   0  0  0  0  0  0  0  0  0  0  0  0
    6.3301   -2.0687    0.0000 N   0  0  0  0  0  0  0  0  0  0  0  0
    6.3301    4.9313    0.0000 N   0  0  0  0  0  0  0  0  0  0  0  0
    3.7320   -1.5687    0.0000 C   0  0  0  0  0  0  0  0  0  0  0  0
    4.5981   -3.0687    0.0000 C   0  0  0  0  0  0  0  0  0  0  0  0
    2.8660   -2.0687    0.0000 C   0  0  0  0  0  0  0  0  0  0  0  0
    3.7320   -3.5687    0.0000 C   0  0  0  0  0  0  0  0  0  0  0  0
    5.4641   -1.5687    0.0000 C   0  0  0  0  0  0  0  0  0  0  0  0
    7.1962   -1.5687    0.0000 C   0  0  0  0  0  0  0  0  0  0  0  0
    7.1962   -0.5687    0.0000 C   0  0  0  0  0  0  0  0  0  0  0  0
    8.7637   -3.7745    0.0000 C   0  0  0  0  0  0  0  0  0  0  0  0
    6.3301   -0.0687    0.0000 C   0  0  0  0  0  0  0  0  0  0  0  0
    9.7422   -3.9807    0.0000 C   0  0  0  0  0  0  0  0  0  0  0  0
    5.4641   -0.5687    0.0000 C   0  0  0  0  0  0  0  0  0  0  0  0
    8.7260   -1.0687    0.0000 C   0  0  0  0  0  0  0  0  0  0  0  0
    2.0000   -3.5687    0.0000 C   0  0  0  0  0  0  0  0  0  0  0  0
    8.1424   -0.2640    0.0000 C   0  0  0  0  0  0  0  0  0  0  0  0
    6.3301    0.9313    0.0000 C   0  0  0  0  0  0  0  0  0  0  0  0
   10.0529   -4.9313    0.0000 C   0  0  0  0  0  0  0  0  0  0  0  0
   10.4100   -3.2364    0.0000 C   0  0  0  0  0  0  0  0  0  0  0  0
    5.4641    1.4313    0.0000 C   0  0  0  0  0  0  0  0  0  0  0  0
    7.1962    1.4313    0.0000 C   0  0  0  0  0  0  0  0  0  0  0  0
    5.4641    2.4313    0.0000 C   0  0  0  0  0  0  0  0  0  0  0  0
    7.1962    2.4313    0.0000 C   0  0  0  0  0  0  0  0  0  0  0  0
    6.3301    2.9313    0.0000 C   0  0  0  0  0  0  0  0  0  0  0  0
    6.3301    3.9313    0.0000 C   0  0  0  0  0  0  0  0  0  0  0  0
    4.1306   -1.0938    0.0000 H   0  0  0  0  0  0  0  0  0  0  0  0
    3.3335   -1.0938    0.0000 H   0  0  0  0  0  0  0  0  0  0  0  0
    4.8101   -3.6514    0.0000 H   0  0  0  0  0  0  0  0  0  0  0  0
    5.2087   -2.9611    0.0000 H   0  0  0  0  0  0  0  0  0  0  0  0
    2.6540   -1.4861    0.0000 H   0  0  0  0  0  0  0  0  0  0  0  0
    2.2554   -2.1764    0.0000 H   0  0  0  0  0  0  0  0  0  0  0  0
    3.3335   -4.0437    0.0000 H   0  0  0  0  0  0  0  0  0  0  0  0
    4.1306   -4.0437    0.0000 H   0  0  0  0  0  0  0  0  0  0  0  0
    8.1499   -3.8619    0.0000 H   0  0  0  0  0  0  0  0  0  0  0  0
    8.7431   -4.3942    0.0000 H   0  0  0  0  0  0  0  0  0  0  0  0
    9.5496   -3.3914    0.0000 H   0  0  0  0  0  0  0  0  0  0  0  0
    4.9272   -0.2587    0.0000 H   0  0  0  0  0  0  0  0  0  0  0  0
    9.3460   -1.0687    0.0000 H   0  0  0  0  0  0  0  0  0  0  0  0
    1.6900   -3.0318    0.0000 H   0  0  0  0  0  0  0  0  0  0  0  0
    1.4631   -3.8787    0.0000 H   0  0  0  0  0  0  0  0  0  0  0  0
    2.3100   -4.1057    0.0000 H   0  0  0  0  0  0  0  0  0  0  0  0
    8.3350    0.3253    0.0000 H   0  0  0  0  0  0  0  0  0  0  0  0
    9.4635   -5.1239    0.0000 H   0  0  0  0  0  0  0  0  0  0  0  0
   10.2455   -5.5206    0.0000 H   0  0  0  0  0  0  0  0  0  0  0  0
   10.6422   -4.7386    0.0000 H   0  0  0  0  0  0  0  0  0  0  0  0
   10.8715   -3.6505    0.0000 H   0  0  0  0  0  0  0  0  0  0  0  0
   10.8241   -2.7750    0.0000 H   0  0  0  0  0  0  0  0  0  0  0  0
    9.9486   -2.8224    0.0000 H   0  0  0  0  0  0  0  0  0  0  0  0
    4.9272    1.1213    0.0000 H   0  0  0  0  0  0  0  0  0  0  0  0
    7.7331    1.1213    0.0000 H   0  0  0  0  0  0  0  0  0  0  0  0
    4.9272    2.7413    0.0000 H   0  0  0  0  0  0  0  0  0  0  0  0
    7.7331    2.7413    0.0000 H   0  0  0  0  0  0  0  0  0  0  0  0
  1  2  2  0  0  0  0
  1  3  2  0  0  0  0
  1  6  1  0  0  0  0
  1 16  1  0  0  0  0
  4  9  1  0  0  0  0
  4 10  1  0  0  0  0
  4 13  1  0  0  0  0
  5 11  1  0  0  0  0
  5 12  1  0  0  0  0
  5 21  1  0  0  0  0
  6 14  1  0  0  0  0
  6 20  1  0  0  0  0
  7 13  2  0  0  0  0
  7 14  1  0  0  0  0
  8 31  3  0  0  0  0
  9 11  1  0  0  0  0
  9 32  1  0  0  0  0
  9 33  1  0  0  0  0
 10 12  1  0  0  0  0
 10 34  1  0  0  0  0
 10 35  1  0  0  0  0
 11 36  1  0  0  0  0
 11 37  1  0  0  0  0
 12 38  1  0  0  0  0
 12 39  1  0  0  0  0
 13 19  1  0  0  0  0
 14 15  2  0  0  0  0
 15 17  1  0  0  0  0
 15 22  1  0  0  0  0
 16 18  1  0  0  0  0
 16 40  1  0  0  0  0
 16 41  1  0  0  0  0
 17 19  2  0  0  0  0
 17 23  1  0  0  0  0
 18 24  1  0  0  0  0
 18 25  1  0  0  0  0
 18 42  1  0  0  0  0
 19 43  1  0  0  0  0
 20 22  2  0  0  0  0
 20 44  1  0  0  0  0
 21 45  1  0  0  0  0
 21 46  1  0  0  0  0
 21 47  1  0  0  0  0
 22 48  1  0  0  0  0
 23 26  2  0  0  0  0
 23 27  1  0  0  0  0
 24 49  1  0  0  0  0
 24 50  1  0  0  0  0
 24 51  1  0  0  0  0
 25 52  1  0  0  0  0
 25 53  1  0  0  0  0
 25 54  1  0  0  0  0
 26 28  1  0  0  0  0
 26 55  1  0  0  0  0
 27 29  2  0  0  0  0
 27 56  1  0  0  0  0
 28 30  2  0  0  0  0
 28 57  1  0  0  0  0
 29 30  1  0  0  0  0
 29 58  1  0  0  0  0
 30 31  1  0  0  0  0
M  END
> <PUBCHEM_COMPOUND_CID>
127046817

> <PUBCHEM_COMPOUND_CANONICALIZED>
1

> <PUBCHEM_CACTVS_COMPLEXITY>
757

> <PUBCHEM_CACTVS_HBOND_ACCEPTOR>
6

> <PUBCHEM_CACTVS_HBOND_DONOR>
0

> <PUBCHEM_CACTVS_ROTATABLE_BOND>
5

> <PUBCHEM_CACTVS_SUBSKEYS>
AAADceB7sABAAAAAAAAAAAAAAAAAAWAAAAA8WIAAAAAAAFgB/AAAHAQAQAAADQDFWwS/sN8IEAKwBjJnZHDigCkxAqAJ2CA4ZJiI6OLAmZGUIAhogALIyC8QgMAOwAAAAAAAAACAAAAAAAAAAAAAAAAAAA==

> <PUBCHEM_IUPAC_OPENEYE_NAME>
4-[1-isobutylsulfonyl-6-(4-methylpiperazin-1-yl)pyrrolo[2,3-b]pyridin-4-yl]benzonitrile

> <PUBCHEM_IUPAC_CAS_NAME>
4-[6-(4-methyl-1-piperazinyl)-1-(2-methylpropylsulfonyl)-4-pyrrolo[2,3-b]pyridinyl]benzonitrile

> <PUBCHEM_IUPAC_NAME_MARKUP>
4-[6-(4-methylpiperazin-1-yl)-1-(2-methylpropylsulfonyl)pyrrolo[2,3-b]pyridin-4-yl]benzonitrile

> <PUBCHEM_IUPAC_NAME>
4-[6-(4-methylpiperazin-1-yl)-1-(2-methylpropylsulfonyl)pyrrolo[2,3-b]pyridin-4-yl]benzonitrile

> <PUBCHEM_IUPAC_SYSTEMATIC_NAME>
4-[6-(4-methylpiperazin-1-yl)-1-(2-methylpropylsulfonyl)pyrrolo[2,3-b]pyridin-4-yl]benzenecarbonitrile

> <PUBCHEM_IUPAC_TRADITIONAL_NAME>
4-[1-isobutylsulfonyl-6-(4-methylpiperazino)pyrrolo[2,3-b]pyridin-4-yl]benzonitrile

> <PUBCHEM_IUPAC_INCHI>
InChI=1S/C23H27N5O2S/c1-17(2)16-31(29,30)28-9-8-20-21(19-6-4-18(15-24)5-7-19)14-22(25-23(20)28)27-12-10-26(3)11-13-27/h4-9,14,17H,10-13,16H2,1-3H3

> <PUBCHEM_IUPAC_INCHIKEY>
STZIWXJYZJCDMR-UHFFFAOYSA-N

> <PUBCHEM_XLOGP3_AA>
3.9

> <PUBCHEM_EXACT_MASS>
437.18854629

> <PUBCHEM_MOLECULAR_FORMULA>
C23H27N5O2S

> <PUBCHEM_MOLECULAR_WEIGHT>
437.6

> <PUBCHEM_OPENEYE_CAN_SMILES>
CC(C)CS(=O)(=O)N1C=CC2=C1N=C(C=C2C3=CC=C(C=C3)C#N)N4CCN(CC4)C

> <PUBCHEM_OPENEYE_ISO_SMILES>
CC(C)CS(=O)(=O)N1C=CC2=C1N=C(C=C2C3=CC=C(C=C3)C#N)N4CCN(CC4)C

> <PUBCHEM_CACTVS_TPSA>
90.6

> <PUBCHEM_MONOISOTOPIC_WEIGHT>
437.18854629

> <PUBCHEM_TOTAL_CHARGE>
0

> <PUBCHEM_HEAVY_ATOM_COUNT>
31

> <PUBCHEM_ATOM_DEF_STEREO_COUNT>
0

> <PUBCHEM_ATOM_UDEF_STEREO_COUNT>
0

> <PUBCHEM_BOND_DEF_STEREO_COUNT>
0

> <PUBCHEM_BOND_UDEF_STEREO_COUNT>
0

> <PUBCHEM_ISOTOPIC_ATOM_COUNT>
0

> <PUBCHEM_COMPONENT_COUNT>
1

> <PUBCHEM_CACTVS_TAUTO_COUNT>
-1

> <PUBCHEM_COORDINATE_TYPE>
1
5
255

> <PUBCHEM_BONDANNOTATIONS>
13  19  8
14  15  8
15  17  8
15  22  8
17  19  8
20  22  8
23  26  8
23  27  8
26  28  8
27  29  8
28  30  8
29  30  8
6  14  8
6  20  8
7  13  8
7  14  8

$$$$
