60167451
  -OEChem-09292322322D

 57 61  0     0  0  0  0  0  0999 V2000
    2.0000   -4.6025    0.0000 Cl  0  0  0  0  0  0  0  0  0  0  0  0
   10.7489    4.4318    0.0000 S   0  0  0  0  0  0  0  0  0  0  0  0
    7.1279   -3.6025    0.0000 O   0  0  0  0  0  0  0  0  0  0  0  0
    8.6974    4.0621    0.0000 O   0  0  0  0  0  0  0  0  0  0  0  0
    6.4763    0.0538    0.0000 N   0  0  0  0  0  0  0  0  0  0  0  0
    5.5443   -2.7978    0.0000 N   0  0  0  0  0  0  0  0  0  0  0  0
    5.5443   -4.4072    0.0000 N   0  0  0  0  0  0  0  0  0  0  0  0
   11.0808    2.8569    0.0000 N   0  0  0  0  0  0  0  0  0  0  0  0
    5.8550   -1.8473    0.0000 C   0  0  0  0  0  0  0  0  0  0  0  0
    6.8335   -1.6410    0.0000 C   0  0  0  0  0  0  0  0  0  0  0  0
    5.1871   -1.1030    0.0000 C   0  0  0  0  0  0  0  0  0  0  0  0
    7.1441   -0.6905    0.0000 C   0  0  0  0  0  0  0  0  0  0  0  0
    5.4978   -0.1524    0.0000 C   0  0  0  0  0  0  0  0  0  0  0  0
    6.7870    1.0043    0.0000 C   0  0  0  0  0  0  0  0  0  0  0  0
    4.5981   -3.1025    0.0000 C   0  0  0  0  0  0  0  0  0  0  0  0
    7.7654    1.2105    0.0000 C   0  0  0  0  0  0  0  0  0  0  0  0
    6.1279   -3.6025    0.0000 C   0  0  0  0  0  0  0  0  0  0  0  0
    4.5981   -4.1025    0.0000 C   0  0  0  0  0  0  0  0  0  0  0  0
    8.0761    2.1610    0.0000 C   0  0  0  0  0  0  0  0  0  0  0  0
    3.7320   -2.6025    0.0000 C   0  0  0  0  0  0  0  0  0  0  0  0
    9.0546    2.3673    0.0000 C   0  0  0  0  0  0  0  0  0  0  0  0
    3.7320   -4.6025    0.0000 C   0  0  0  0  0  0  0  0  0  0  0  0
    2.8660   -3.1025    0.0000 C   0  0  0  0  0  0  0  0  0  0  0  0
    2.8660   -4.1025    0.0000 C   0  0  0  0  0  0  0  0  0  0  0  0
    9.3653    3.3178    0.0000 C   0  0  0  0  0  0  0  0  0  0  0  0
   10.3438    3.5240    0.0000 C   0  0  0  0  0  0  0  0  0  0  0  0
   11.7376    4.3287    0.0000 C   0  0  0  0  0  0  0  0  0  0  0  0
   11.9438    3.3502    0.0000 C   0  0  0  0  0  0  0  0  0  0  0  0
   12.4819    4.9966    0.0000 C   0  0  0  0  0  0  0  0  0  0  0  0
   12.8944    3.0396    0.0000 C   0  0  0  0  0  0  0  0  0  0  0  0
   13.4324    4.6859    0.0000 C   0  0  0  0  0  0  0  0  0  0  0  0
   13.6387    3.7074    0.0000 C   0  0  0  0  0  0  0  0  0  0  0  0
    6.2690   -2.3087    0.0000 H   0  0  0  0  0  0  0  0  0  0  0  0
    6.8540   -2.2607    0.0000 H   0  0  0  0  0  0  0  0  0  0  0  0
    7.4473   -1.7284    0.0000 H   0  0  0  0  0  0  0  0  0  0  0  0
    4.6402   -0.8109    0.0000 H   0  0  0  0  0  0  0  0  0  0  0  0
    4.8046   -1.5909    0.0000 H   0  0  0  0  0  0  0  0  0  0  0  0
    7.6910   -0.9825    0.0000 H   0  0  0  0  0  0  0  0  0  0  0  0
    7.5267   -0.2026    0.0000 H   0  0  0  0  0  0  0  0  0  0  0  0
    5.4772    0.4672    0.0000 H   0  0  0  0  0  0  0  0  0  0  0  0
    4.8840   -0.0651    0.0000 H   0  0  0  0  0  0  0  0  0  0  0  0
    6.7664    1.6240    0.0000 H   0  0  0  0  0  0  0  0  0  0  0  0
    6.1731    1.0916    0.0000 H   0  0  0  0  0  0  0  0  0  0  0  0
    7.7860    0.5909    0.0000 H   0  0  0  0  0  0  0  0  0  0  0  0
    8.3793    1.1232    0.0000 H   0  0  0  0  0  0  0  0  0  0  0  0
    8.0556    2.7807    0.0000 H   0  0  0  0  0  0  0  0  0  0  0  0
    7.4623    2.2484    0.0000 H   0  0  0  0  0  0  0  0  0  0  0  0
    5.7369   -4.9966    0.0000 H   0  0  0  0  0  0  0  0  0  0  0  0
    3.7320   -1.9825    0.0000 H   0  0  0  0  0  0  0  0  0  0  0  0
    9.0752    1.7476    0.0000 H   0  0  0  0  0  0  0  0  0  0  0  0
    9.6684    2.2799    0.0000 H   0  0  0  0  0  0  0  0  0  0  0  0
    3.7320   -5.2225    0.0000 H   0  0  0  0  0  0  0  0  0  0  0  0
    2.3291   -2.7925    0.0000 H   0  0  0  0  0  0  0  0  0  0  0  0
   12.3541    5.6032    0.0000 H   0  0  0  0  0  0  0  0  0  0  0  0
   13.0222    2.4329    0.0000 H   0  0  0  0  0  0  0  0  0  0  0  0
   13.8939    5.1000    0.0000 H   0  0  0  0  0  0  0  0  0  0  0  0
   14.2280    3.5148    0.0000 H   0  0  0  0  0  0  0  0  0  0  0  0
  1 24  1  0  0  0  0
  2 26  1  0  0  0  0
  2 27  1  0  0  0  0
  3 17  2  0  0  0  0
  4 25  2  0  0  0  0
  5 12  1  0  0  0  0
  5 13  1  0  0  0  0
  5 14  1  0  0  0  0
  6  9  1  0  0  0  0
  6 15  1  0  0  0  0
  6 17  1  0  0  0  0
  7 17  1  0  0  0  0
  7 18  1  0  0  0  0
  7 48  1  0  0  0  0
  8 26  2  0  0  0  0
  8 28  1  0  0  0  0
  9 10  1  0  0  0  0
  9 11  1  0  0  0  0
  9 33  1  0  0  0  0
 10 12  1  0  0  0  0
 10 34  1  0  0  0  0
 10 35  1  0  0  0  0
 11 13  1  0  0  0  0
 11 36  1  0  0  0  0
 11 37  1  0  0  0  0
 12 38  1  0  0  0  0
 12 39  1  0  0  0  0
 13 40  1  0  0  0  0
 13 41  1  0  0  0  0
 14 16  1  0  0  0  0
 14 42  1  0  0  0  0
 14 43  1  0  0  0  0
 15 18  2  0  0  0  0
 15 20  1  0  0  0  0
 16 19  1  0  0  0  0
 16 44  1  0  0  0  0
 16 45  1  0  0  0  0
 18 22  1  0  0  0  0
 19 21  1  0  0  0  0
 19 46  1  0  0  0  0
 19 47  1  0  0  0  0
 20 23  2  0  0  0  0
 20 49  1  0  0  0  0
 21 25  1  0  0  0  0
 21 50  1  0  0  0  0
 21 51  1  0  0  0  0
 22 24  2  0  0  0  0
 22 52  1  0  0  0  0
 23 24  1  0  0  0  0
 23 53  1  0  0  0  0
 25 26  1  0  0  0  0
 27 28  1  0  0  0  0
 27 29  2  0  0  0  0
 28 30  2  0  0  0  0
 29 31  1  0  0  0  0
 29 54  1  0  0  0  0
 30 32  1  0  0  0  0
 30 55  1  0  0  0  0
 31 32  2  0  0  0  0
 31 56  1  0  0  0  0
 32 57  1  0  0  0  0
M  END
> <PUBCHEM_COMPOUND_CID>
60167451

> <PUBCHEM_COMPOUND_CANONICALIZED>
1

> <PUBCHEM_CACTVS_COMPLEXITY>
689

> <PUBCHEM_CACTVS_HBOND_ACCEPTOR>
5

> <PUBCHEM_CACTVS_HBOND_DONOR>
1

> <PUBCHEM_CACTVS_ROTATABLE_BOND>
7

> <PUBCHEM_CACTVS_SUBSKEYS>
AAADceB7sABEAAAAAAAAAAAAAAAAAWLAAAA8YIAAAAAAAFgB9AAAHgYQAAAACC7B1iQxwbPIEAisAaRyVACD8KBjDzhImD24dpiIYLLh07GUIAholgLoyCcYAQAAAABAAAIAASAAAIAABAACQAAAAAAAAA==

> <PUBCHEM_IUPAC_OPENEYE_NAME>
3-[1-[5-(1,3-benzothiazol-2-yl)-5-oxo-pentyl]-4-piperidyl]-6-chloro-1H-benzimidazol-2-one

> <PUBCHEM_IUPAC_CAS_NAME>
3-[1-[5-(1,3-benzothiazol-2-yl)-5-oxopentyl]-4-piperidinyl]-6-chloro-1H-benzimidazol-2-one

> <PUBCHEM_IUPAC_NAME_MARKUP>
3-[1-[5-(1,3-benzothiazol-2-yl)-5-oxopentyl]piperidin-4-yl]-6-chloro-1<I>H</I>-benzimidazol-2-one

> <PUBCHEM_IUPAC_NAME>
3-[1-[5-(1,3-benzothiazol-2-yl)-5-oxopentyl]piperidin-4-yl]-6-chloro-1H-benzimidazol-2-one

> <PUBCHEM_IUPAC_SYSTEMATIC_NAME>
3-[1-[5-(1,3-benzothiazol-2-yl)-5-oxidanylidene-pentyl]piperidin-4-yl]-6-chloranyl-1H-benzimidazol-2-one

> <PUBCHEM_IUPAC_TRADITIONAL_NAME>
3-[1-[5-(1,3-benzothiazol-2-yl)-5-keto-pentyl]-4-piperidyl]-6-chloro-1H-benzimidazol-2-one

> <PUBCHEM_IUPAC_INCHI>
InChI=1S/C24H25ClN4O2S/c25-16-8-9-20-19(15-16)27-24(31)29(20)17-10-13-28(14-11-17)12-4-3-6-21(30)23-26-18-5-1-2-7-22(18)32-23/h1-2,5,7-9,15,17H,3-4,6,10-14H2,(H,27,31)

> <PUBCHEM_IUPAC_INCHIKEY>
CWYDVWDIVIJIOS-UHFFFAOYSA-N

> <PUBCHEM_XLOGP3_AA>
4.8

> <PUBCHEM_EXACT_MASS>
468.1386749

> <PUBCHEM_MOLECULAR_FORMULA>
C24H25ClN4O2S

> <PUBCHEM_MOLECULAR_WEIGHT>
469.0

> <PUBCHEM_OPENEYE_CAN_SMILES>
C1CN(CCC1N2C3=C(C=C(C=C3)Cl)NC2=O)CCCCC(=O)C4=NC5=CC=CC=C5S4

> <PUBCHEM_OPENEYE_ISO_SMILES>
C1CN(CCC1N2C3=C(C=C(C=C3)Cl)NC2=O)CCCCC(=O)C4=NC5=CC=CC=C5S4

> <PUBCHEM_CACTVS_TPSA>
93.8

> <PUBCHEM_MONOISOTOPIC_WEIGHT>
468.1386749

> <PUBCHEM_TOTAL_CHARGE>
0

> <PUBCHEM_HEAVY_ATOM_COUNT>
32

> <PUBCHEM_ATOM_DEF_STEREO_COUNT>
0

> <PUBCHEM_ATOM_UDEF_STEREO_COUNT>
0

> <PUBCHEM_BOND_DEF_STEREO_COUNT>
0

> <PUBCHEM_BOND_UDEF_STEREO_COUNT>
0

> <PUBCHEM_ISOTOPIC_ATOM_COUNT>
0

> <PUBCHEM_COMPONENT_COUNT>
1

> <PUBCHEM_CACTVS_TAUTO_COUNT>
-1

> <PUBCHEM_COORDINATE_TYPE>
1
5
255

> <PUBCHEM_BONDANNOTATIONS>
15  18  8
15  20  8
18  22  8
2  26  8
2  27  8
20  23  8
22  24  8
23  24  8
27  28  8
27  29  8
28  30  8
29  31  8
30  32  8
31  32  8
6  15  8
6  17  8
7  17  8
7  18  8
8  26  8
8  28  8

$$$$
