11716438
  -OEChem-09292322272D

 41 43  0     1  0  0  0  0  0999 V2000
    2.9059   -2.8786    0.0000 O   0  0  0  0  0  0  0  0  0  0  0  0
    3.7841    2.6907    0.0000 N   0  0  3  0  0  0  0  0  0  0  0  0
    3.7841    1.6907    0.0000 C   0  0  0  0  0  0  0  0  0  0  0  0
    4.6501    3.1907    0.0000 C   0  0  0  0  0  0  0  0  0  0  0  0
    2.9180    1.1907    0.0000 C   0  0  0  0  0  0  0  0  0  0  0  0
    5.5161    2.6907    0.0000 C   0  0  0  0  0  0  0  0  0  0  0  0
    2.9180    0.1907    0.0000 C   0  0  0  0  0  0  0  0  0  0  0  0
    4.6501    0.1907    0.0000 C   0  0  0  0  0  0  0  0  0  0  0  0
    5.5161    1.6907    0.0000 C   0  0  0  0  0  0  0  0  0  0  0  0
    3.7841   -0.3093    0.0000 C   0  0  0  0  0  0  0  0  0  0  0  0
    4.6501    1.1907    0.0000 C   0  0  0  0  0  0  0  0  0  0  0  0
    2.9180    3.1907    0.0000 C   0  0  0  0  0  0  0  0  0  0  0  0
    2.0080   -0.3162    0.0000 C   0  0  0  0  0  0  0  0  0  0  0  0
    3.8001   -1.3509    0.0000 C   0  0  0  0  0  0  0  0  0  0  0  0
    6.9274    1.1135    0.0000 C   0  0  0  0  0  0  0  0  0  0  0  0
    4.4442   -0.3201    0.0000 C   0  0  0  0  0  0  0  0  0  0  0  0
    2.9021   -1.8786    0.0000 C   0  0  0  0  0  0  0  0  0  0  0  0
    2.0000   -1.3578    0.0000 C   0  0  0  0  0  0  0  0  0  0  0  0
    7.0306   -0.4077    0.0000 C   0  0  0  0  0  0  0  0  0  0  0  0
    5.7101   -1.1701    0.0000 C   0  0  0  0  0  0  0  0  0  0  0  0
    3.9961    1.1080    0.0000 H   0  0  0  0  0  0  0  0  0  0  0  0
    4.3946    1.7983    0.0000 H   0  0  0  0  0  0  0  0  0  0  0  0
    5.0486    3.6656    0.0000 H   0  0  0  0  0  0  0  0  0  0  0  0
    4.2516    3.6656    0.0000 H   0  0  0  0  0  0  0  0  0  0  0  0
    2.7060    1.7733    0.0000 H   0  0  0  0  0  0  0  0  0  0  0  0
    2.3074    1.0830    0.0000 H   0  0  0  0  0  0  0  0  0  0  0  0
    6.1267    2.5830    0.0000 H   0  0  0  0  0  0  0  0  0  0  0  0
    5.7282    3.2733    0.0000 H   0  0  0  0  0  0  0  0  0  0  0  0
    4.8621   -0.3919    0.0000 H   0  0  0  0  0  0  0  0  0  0  0  0
    5.2607    0.2983    0.0000 H   0  0  0  0  0  0  0  0  0  0  0  0
    3.2280    3.7276    0.0000 H   0  0  0  0  0  0  0  0  0  0  0  0
    2.3811    3.5007    0.0000 H   0  0  0  0  0  0  0  0  0  0  0  0
    2.6080    2.6537    0.0000 H   0  0  0  0  0  0  0  0  0  0  0  0
    1.4747    0.0000    0.0000 H   0  0  0  0  0  0  0  0  0  0  0  0
    4.3406   -1.6546    0.0000 H   0  0  0  0  0  0  0  0  0  0  0  0
    7.4302    1.4764    0.0000 H   0  0  0  0  0  0  0  0  0  0  0  0
    3.8786   -0.5741    0.0000 H   0  0  0  0  0  0  0  0  0  0  0  0
    1.4619   -1.6657    0.0000 H   0  0  0  0  0  0  0  0  0  0  0  0
    7.5777   -0.6994    0.0000 H   0  0  0  0  0  0  0  0  0  0  0  0
    5.6891   -1.7898    0.0000 H   0  0  0  0  0  0  0  0  0  0  0  0
    2.3702   -3.1907    0.0000 H   0  0  0  0  0  0  0  0  0  0  0  0
  1 17  1  0  0  0  0
  1 41  1  0  0  0  0
  2  3  1  0  0  0  0
  2  4  1  0  0  0  0
  2 12  1  0  0  0  0
  3  5  1  0  0  0  0
  3 21  1  0  0  0  0
  3 22  1  0  0  0  0
  4  6  1  0  0  0  0
  4 23  1  0  0  0  0
  4 24  1  0  0  0  0
  5  7  1  0  0  0  0
  5 25  1  0  0  0  0
  5 26  1  0  0  0  0
  6  9  1  0  0  0  0
  6 27  1  0  0  0  0
  6 28  1  0  0  0  0
  7 10  2  0  0  0  0
  7 13  1  0  0  0  0
  8 10  1  0  0  0  0
  8 11  1  0  0  0  0
  8 29  1  0  0  0  0
  8 30  1  0  0  0  0
  9 11  1  0  0  0  0
  9 15  2  0  0  0  0
 10 14  1  0  0  0  0
 11 16  2  0  0  0  0
 12 31  1  0  0  0  0
 12 32  1  0  0  0  0
 12 33  1  0  0  0  0
 13 18  2  0  0  0  0
 13 34  1  0  0  0  0
 14 17  2  0  0  0  0
 14 35  1  0  0  0  0
 15 19  1  0  0  0  0
 15 36  1  0  0  0  0
 16 20  1  0  0  0  0
 16 37  1  0  0  0  0
 17 18  1  0  0  0  0
 18 38  1  0  0  0  0
 19 20  2  0  0  0  0
 19 39  1  0  0  0  0
 20 40  1  0  0  0  0
M  END
> <PUBCHEM_COMPOUND_CID>
11716438

> <PUBCHEM_COMPOUND_CANONICALIZED>
1

> <PUBCHEM_CACTVS_COMPLEXITY>
306

> <PUBCHEM_CACTVS_HBOND_ACCEPTOR>
2

> <PUBCHEM_CACTVS_HBOND_DONOR>
1

> <PUBCHEM_CACTVS_ROTATABLE_BOND>
0

> <PUBCHEM_CACTVS_SUBSKEYS>
AAADceB6IAAAAAAAAAAAAAAAAAAAAAAAAAAwYAAAAAAAAACxQAAAHgAACAAADATBmAQyBoMAAgCAAiBCAAACAAAgIAAIiAAOCIgIJiKCkROEcAAkwBGImAeQwPAOoAABAAAQAABAAAIAACAAAAAAAAAAAA==

> <PUBCHEM_IUPAC_OPENEYE_NAME>
11-methyl-11-azatricyclo[12.4.0.03,8]octadeca-1(18),3(8),4,6,14,16-hexaen-5-ol

> <PUBCHEM_IUPAC_CAS_NAME>
11-methyl-11-azatricyclo[12.4.0.03,8]octadeca-1(18),3(8),4,6,14,16-hexaen-5-ol

> <PUBCHEM_IUPAC_NAME_MARKUP>
11-methyl-11-azatricyclo[12.4.0.0<SUP>3,8</SUP>]octadeca-1(18),3(8),4,6,14,16-hexaen-5-ol

> <PUBCHEM_IUPAC_NAME>
11-methyl-11-azatricyclo[12.4.0.03,8]octadeca-1(18),3(8),4,6,14,16-hexaen-5-ol

> <PUBCHEM_IUPAC_SYSTEMATIC_NAME>
11-methyl-11-azatricyclo[12.4.0.03,8]octadeca-1(18),3(8),4,6,14,16-hexaen-5-ol

> <PUBCHEM_IUPAC_TRADITIONAL_NAME>
11-methyl-11-azatricyclo[12.4.0.03,8]octadeca-1(18),3(8),4,6,14,16-hexaen-5-ol

> <PUBCHEM_IUPAC_INCHI>
InChI=1S/C18H21NO/c1-19-10-8-14-4-2-3-5-16(14)12-17-13-18(20)7-6-15(17)9-11-19/h2-7,13,20H,8-12H2,1H3

> <PUBCHEM_IUPAC_INCHIKEY>
PWYCTCPWHXJEDU-UHFFFAOYSA-N

> <PUBCHEM_XLOGP3_AA>
3.8

> <PUBCHEM_EXACT_MASS>
267.162314293

> <PUBCHEM_MOLECULAR_FORMULA>
C18H21NO

> <PUBCHEM_MOLECULAR_WEIGHT>
267.4

> <PUBCHEM_OPENEYE_CAN_SMILES>
CN1CCC2=C(CC3=CC=CC=C3CC1)C=C(C=C2)O

> <PUBCHEM_OPENEYE_ISO_SMILES>
CN1CCC2=C(CC3=CC=CC=C3CC1)C=C(C=C2)O

> <PUBCHEM_CACTVS_TPSA>
23.5

> <PUBCHEM_MONOISOTOPIC_WEIGHT>
267.162314293

> <PUBCHEM_TOTAL_CHARGE>
0

> <PUBCHEM_HEAVY_ATOM_COUNT>
20

> <PUBCHEM_ATOM_DEF_STEREO_COUNT>
0

> <PUBCHEM_ATOM_UDEF_STEREO_COUNT>
0

> <PUBCHEM_BOND_DEF_STEREO_COUNT>
0

> <PUBCHEM_BOND_UDEF_STEREO_COUNT>
0

> <PUBCHEM_ISOTOPIC_ATOM_COUNT>
0

> <PUBCHEM_COMPONENT_COUNT>
1

> <PUBCHEM_CACTVS_TAUTO_COUNT>
-1

> <PUBCHEM_COORDINATE_TYPE>
1
5
255

> <PUBCHEM_BONDANNOTATIONS>
10  14  8
11  16  8
13  18  8
14  17  8
15  19  8
16  20  8
17  18  8
19  20  8
7  10  8
7  13  8
9  11  8
9  15  8

$$$$
