76318474
  -OEChem-09292322342D

 71 73  0     0  0  0  0  0  0999 V2000
   12.5966    8.8271    0.0000 F   0  0  0  0  0  0  0  0  0  0  0  0
    9.9717    9.1590    0.0000 O   0  0  0  0  0  0  0  0  0  0  0  0
    2.8580    4.1196    0.0000 O   0  0  0  0  0  0  0  0  0  0  0  0
    7.5973   15.1862    0.0000 O   0  0  0  0  0  0  0  0  0  0  0  0
    4.9992   15.6862    0.0000 O   0  0  0  0  0  0  0  0  0  0  0  0
    6.7313   16.6862    0.0000 O   0  0  0  0  0  0  0  0  0  0  0  0
    5.8653   14.1862    0.0000 O   0  0  0  0  0  0  0  0  0  0  0  0
    7.3934    6.8455    0.0000 N   0  0  0  0  0  0  0  0  0  0  0  0
    8.0147    8.7465    0.0000 N   0  0  0  0  0  0  0  0  0  0  0  0
    4.5044    3.5815    0.0000 N   0  0  0  0  0  0  0  0  0  0  0  0
    3.2152    0.8153    0.0000 N   0  0  0  0  0  0  0  0  0  0  0  0
    6.7255    7.5898    0.0000 C   0  0  0  0  0  0  0  0  0  0  0  0
    8.3719    7.0517    0.0000 C   0  0  0  0  0  0  0  0  0  0  0  0
    7.0362    8.5403    0.0000 C   0  0  0  0  0  0  0  0  0  0  0  0
    8.6825    8.0022    0.0000 C   0  0  0  0  0  0  0  0  0  0  0  0
    7.0827    5.8950    0.0000 C   0  0  0  0  0  0  0  0  0  0  0  0
    6.1042    5.6887    0.0000 C   0  0  0  0  0  0  0  0  0  0  0  0
    8.3254    9.6970    0.0000 C   0  0  0  0  0  0  0  0  0  0  0  0
    5.7935    4.7382    0.0000 C   0  0  0  0  0  0  0  0  0  0  0  0
    4.8150    4.5320    0.0000 C   0  0  0  0  0  0  0  0  0  0  0  0
    9.3039    9.9032    0.0000 C   0  0  0  0  0  0  0  0  0  0  0  0
    7.6575   10.4413    0.0000 C   0  0  0  0  0  0  0  0  0  0  0  0
    9.6145   10.8538    0.0000 C   0  0  0  0  0  0  0  0  0  0  0  0
    7.9682   11.3919    0.0000 C   0  0  0  0  0  0  0  0  0  0  0  0
    8.9467   11.5981    0.0000 C   0  0  0  0  0  0  0  0  0  0  0  0
    3.5259    3.3752    0.0000 C   0  0  0  0  0  0  0  0  0  0  0  0
    3.2152    2.4247    0.0000 C   0  0  0  0  0  0  0  0  0  0  0  0
   10.9502    9.3652    0.0000 C   0  0  0  0  0  0  0  0  0  0  0  0
    2.2690    2.1200    0.0000 C   0  0  0  0  0  0  0  0  0  0  0  0
    2.2690    1.1200    0.0000 C   0  0  0  0  0  0  0  0  0  0  0  0
    3.7988    1.6200    0.0000 C   0  0  0  0  0  0  0  0  0  0  0  0
   11.6181    8.6209    0.0000 C   0  0  0  0  0  0  0  0  0  0  0  0
    1.4030    2.6200    0.0000 C   0  0  0  0  0  0  0  0  0  0  0  0
    1.4030    0.6200    0.0000 C   0  0  0  0  0  0  0  0  0  0  0  0
    0.5369    2.1200    0.0000 C   0  0  0  0  0  0  0  0  0  0  0  0
    0.5369    1.1200    0.0000 C   0  0  0  0  0  0  0  0  0  0  0  0
    6.7313   15.6862    0.0000 C   0  0  0  0  0  0  0  0  0  0  0  0
    5.8653   15.1862    0.0000 C   0  0  0  0  0  0  0  0  0  0  0  0
    6.1786    7.8818    0.0000 H   0  0  0  0  0  0  0  0  0  0  0  0
    6.3430    7.1019    0.0000 H   0  0  0  0  0  0  0  0  0  0  0  0
    8.3924    6.4320    0.0000 H   0  0  0  0  0  0  0  0  0  0  0  0
    8.9857    6.9643    0.0000 H   0  0  0  0  0  0  0  0  0  0  0  0
    7.0156    9.1600    0.0000 H   0  0  0  0  0  0  0  0  0  0  0  0
    6.4224    8.6276    0.0000 H   0  0  0  0  0  0  0  0  0  0  0  0
    9.2295    7.7102    0.0000 H   0  0  0  0  0  0  0  0  0  0  0  0
    9.0651    8.4901    0.0000 H   0  0  0  0  0  0  0  0  0  0  0  0
    7.1033    5.2753    0.0000 H   0  0  0  0  0  0  0  0  0  0  0  0
    7.6965    5.8076    0.0000 H   0  0  0  0  0  0  0  0  0  0  0  0
    6.0836    6.3084    0.0000 H   0  0  0  0  0  0  0  0  0  0  0  0
    5.4904    5.7761    0.0000 H   0  0  0  0  0  0  0  0  0  0  0  0
    5.8141    4.1186    0.0000 H   0  0  0  0  0  0  0  0  0  0  0  0
    6.4074    4.6509    0.0000 H   0  0  0  0  0  0  0  0  0  0  0  0
    4.7945    5.1516    0.0000 H   0  0  0  0  0  0  0  0  0  0  0  0
    4.2012    4.6193    0.0000 H   0  0  0  0  0  0  0  0  0  0  0  0
    7.0508   10.3135    0.0000 H   0  0  0  0  0  0  0  0  0  0  0  0
   10.2212   10.9816    0.0000 H   0  0  0  0  0  0  0  0  0  0  0  0
    4.9184    3.1200    0.0000 H   0  0  0  0  0  0  0  0  0  0  0  0
    7.5541   11.8533    0.0000 H   0  0  0  0  0  0  0  0  0  0  0  0
    9.1393   12.1874    0.0000 H   0  0  0  0  0  0  0  0  0  0  0  0
   11.4766    9.6928    0.0000 H   0  0  0  0  0  0  0  0  0  0  0  0
   10.7190    9.9404    0.0000 H   0  0  0  0  0  0  0  0  0  0  0  0
    4.4188    1.6200    0.0000 H   0  0  0  0  0  0  0  0  0  0  0  0
    3.4078    0.2259    0.0000 H   0  0  0  0  0  0  0  0  0  0  0  0
   11.0917    8.2932    0.0000 H   0  0  0  0  0  0  0  0  0  0  0  0
   11.8493    8.0456    0.0000 H   0  0  0  0  0  0  0  0  0  0  0  0
    1.4030    3.2400    0.0000 H   0  0  0  0  0  0  0  0  0  0  0  0
    1.4030    0.0000    0.0000 H   0  0  0  0  0  0  0  0  0  0  0  0
    0.0000    2.4300    0.0000 H   0  0  0  0  0  0  0  0  0  0  0  0
    0.0000    0.8100    0.0000 H   0  0  0  0  0  0  0  0  0  0  0  0
    8.1343   15.4962    0.0000 H   0  0  0  0  0  0  0  0  0  0  0  0
    4.4623   15.3762    0.0000 H   0  0  0  0  0  0  0  0  0  0  0  0
  1 32  1  0  0  0  0
  2 21  1  0  0  0  0
  2 28  1  0  0  0  0
  3 26  2  0  0  0  0
  4 37  1  0  0  0  0
  4 70  1  0  0  0  0
  5 38  1  0  0  0  0
  5 71  1  0  0  0  0
  6 37  2  0  0  0  0
  7 38  2  0  0  0  0
  8 12  1  0  0  0  0
  8 13  1  0  0  0  0
  8 16  1  0  0  0  0
  9 14  1  0  0  0  0
  9 15  1  0  0  0  0
  9 18  1  0  0  0  0
 10 20  1  0  0  0  0
 10 26  1  0  0  0  0
 10 57  1  0  0  0  0
 11 30  1  0  0  0  0
 11 31  1  0  0  0  0
 11 63  1  0  0  0  0
 12 14  1  0  0  0  0
 12 39  1  0  0  0  0
 12 40  1  0  0  0  0
 13 15  1  0  0  0  0
 13 41  1  0  0  0  0
 13 42  1  0  0  0  0
 14 43  1  0  0  0  0
 14 44  1  0  0  0  0
 15 45  1  0  0  0  0
 15 46  1  0  0  0  0
 16 17  1  0  0  0  0
 16 47  1  0  0  0  0
 16 48  1  0  0  0  0
 17 19  1  0  0  0  0
 17 49  1  0  0  0  0
 17 50  1  0  0  0  0
 18 21  1  0  0  0  0
 18 22  2  0  0  0  0
 19 20  1  0  0  0  0
 19 51  1  0  0  0  0
 19 52  1  0  0  0  0
 20 53  1  0  0  0  0
 20 54  1  0  0  0  0
 21 23  2  0  0  0  0
 22 24  1  0  0  0  0
 22 55  1  0  0  0  0
 23 25  1  0  0  0  0
 23 56  1  0  0  0  0
 24 25  2  0  0  0  0
 24 58  1  0  0  0  0
 25 59  1  0  0  0  0
 26 27  1  0  0  0  0
 27 29  1  0  0  0  0
 27 31  2  0  0  0  0
 28 32  1  0  0  0  0
 28 60  1  0  0  0  0
 28 61  1  0  0  0  0
 29 30  1  0  0  0  0
 29 33  2  0  0  0  0
 30 34  2  0  0  0  0
 31 62  1  0  0  0  0
 32 64  1  0  0  0  0
 32 65  1  0  0  0  0
 33 35  1  0  0  0  0
 33 66  1  0  0  0  0
 34 36  1  0  0  0  0
 34 67  1  0  0  0  0
 35 36  2  0  0  0  0
 35 68  1  0  0  0  0
 36 69  1  0  0  0  0
 37 38  1  0  0  0  0
M  END
> <PUBCHEM_COMPOUND_CID>
76318474

> <PUBCHEM_COMPOUND_CANONICALIZED>
1

> <PUBCHEM_CACTVS_COMPLEXITY>
644

> <PUBCHEM_CACTVS_HBOND_ACCEPTOR>
9

> <PUBCHEM_CACTVS_HBOND_DONOR>
4

> <PUBCHEM_CACTVS_ROTATABLE_BOND>
11

> <PUBCHEM_CACTVS_SUBSKEYS>
AAADcfB7uQAAAAAAAAAAAAAAAAAAAWAAAAA8YIAAAAAAAFgB9AAAHwAQCAAADAzhngY8zvPJlgCoAzX3XAKCiCA1IiAI2aF/bNgPZvrE9ZuXOajk1hHZ6cecyMCOgAAAAAACEAAAAAAAAAQgAAAAAAAAAA==

> <PUBCHEM_IUPAC_OPENEYE_NAME>
N-[4-[4-[2-(2-fluoroethoxy)phenyl]piperazin-1-yl]butyl]-1H-indole-3-carboxamide;oxalic acid

> <PUBCHEM_IUPAC_CAS_NAME>
N-[4-[4-[2-(2-fluoroethoxy)phenyl]-1-piperazinyl]butyl]-1H-indole-3-carboxamide;oxalic acid

> <PUBCHEM_IUPAC_NAME_MARKUP>
<I>N</I>-[4-[4-[2-(2-fluoroethoxy)phenyl]piperazin-1-yl]butyl]-1<I>H</I>-indole-3-carboxamide;oxalic acid

> <PUBCHEM_IUPAC_NAME>
N-[4-[4-[2-(2-fluoroethoxy)phenyl]piperazin-1-yl]butyl]-1H-indole-3-carboxamide;oxalic acid

> <PUBCHEM_IUPAC_SYSTEMATIC_NAME>
ethanedioic acid;N-[4-[4-[2-(2-fluoranylethoxy)phenyl]piperazin-1-yl]butyl]-1H-indole-3-carboxamide

> <PUBCHEM_IUPAC_TRADITIONAL_NAME>
N-[4-[4-[2-(2-fluoroethoxy)phenyl]piperazino]butyl]-1H-indole-3-carboxamide;oxalic acid

> <PUBCHEM_IUPAC_INCHI>
InChI=1S/C25H31FN4O2.C2H2O4/c26-11-18-32-24-10-4-3-9-23(24)30-16-14-29(15-17-30)13-6-5-12-27-25(31)21-19-28-22-8-2-1-7-20(21)22;3-1(4)2(5)6/h1-4,7-10,19,28H,5-6,11-18H2,(H,27,31);(H,3,4)(H,5,6)

> <PUBCHEM_IUPAC_INCHIKEY>
SQGZAVPMYDRVBL-UHFFFAOYSA-N

> <PUBCHEM_EXACT_MASS>
528.23841295

> <PUBCHEM_MOLECULAR_FORMULA>
C27H33FN4O6

> <PUBCHEM_MOLECULAR_WEIGHT>
528.6

> <PUBCHEM_OPENEYE_CAN_SMILES>
C1CN(CCN1CCCCNC(=O)C2=CNC3=CC=CC=C32)C4=CC=CC=C4OCCF.C(=O)(C(=O)O)O

> <PUBCHEM_OPENEYE_ISO_SMILES>
C1CN(CCN1CCCCNC(=O)C2=CNC3=CC=CC=C32)C4=CC=CC=C4OCCF.C(=O)(C(=O)O)O

> <PUBCHEM_CACTVS_TPSA>
135

> <PUBCHEM_MONOISOTOPIC_WEIGHT>
528.23841295

> <PUBCHEM_TOTAL_CHARGE>
0

> <PUBCHEM_HEAVY_ATOM_COUNT>
38

> <PUBCHEM_ATOM_DEF_STEREO_COUNT>
0

> <PUBCHEM_ATOM_UDEF_STEREO_COUNT>
0

> <PUBCHEM_BOND_DEF_STEREO_COUNT>
0

> <PUBCHEM_BOND_UDEF_STEREO_COUNT>
0

> <PUBCHEM_ISOTOPIC_ATOM_COUNT>
0

> <PUBCHEM_COMPONENT_COUNT>
2

> <PUBCHEM_CACTVS_TAUTO_COUNT>
-1

> <PUBCHEM_COORDINATE_TYPE>
1
5
255

> <PUBCHEM_BONDANNOTATIONS>
11  30  8
11  31  8
18  21  8
18  22  8
21  23  8
22  24  8
23  25  8
24  25  8
27  29  8
27  31  8
29  30  8
29  33  8
30  34  8
33  35  8
34  36  8
35  36  8

$$$$
