168273639
  -OEChem-09292322022D

106103  0     0  0  0  0  0  0999 V2000
   23.2469   11.1258    0.0000 S   0  0  0  0  0  0  0  0  0  0  0  0
    5.6584    2.2812    0.0000 S   0  0  0  0  0  0  0  0  0  0  0  0
   13.7338   13.8859    0.0000 F   0  0  0  0  0  0  0  0  0  0  0  0
   14.0999   15.2519    0.0000 F   0  0  0  0  0  0  0  0  0  0  0  0
   15.0999   13.5198    0.0000 F   0  0  0  0  0  0  0  0  0  0  0  0
   13.7338   18.2519    0.0000 F   0  0  0  0  0  0  0  0  0  0  0  0
   14.0999   19.6179    0.0000 F   0  0  0  0  0  0  0  0  0  0  0  0
   15.0999   17.8859    0.0000 F   0  0  0  0  0  0  0  0  0  0  0  0
    0.0000   11.4920    0.0000 F   0  0  0  0  0  0  0  0  0  0  0  0
    0.3660   12.8580    0.0000 F   0  0  0  0  0  0  0  0  0  0  0  0
    1.3660   11.1259    0.0000 F   0  0  0  0  0  0  0  0  0  0  0  0
   13.7338   22.6179    0.0000 F   0  0  0  0  0  0  0  0  0  0  0  0
   14.0999   23.9839    0.0000 F   0  0  0  0  0  0  0  0  0  0  0  0
   15.0999   22.2519    0.0000 F   0  0  0  0  0  0  0  0  0  0  0  0
   16.1963   10.7449    0.0000 O   0  0  0  0  0  0  0  0  0  0  0  0
    9.0922    6.6790    0.0000 O   0  0  0  0  0  0  0  0  0  0  0  0
   16.3319   14.3859    0.0000 O   0  0  0  0  0  0  0  0  0  0  0  0
   16.3319   18.7519    0.0000 O   0  0  0  0  0  0  0  0  0  0  0  0
    2.5981   11.9920    0.0000 O   0  0  0  0  0  0  0  0  0  0  0  0
   16.3319   23.1179    0.0000 O   0  0  0  0  0  0  0  0  0  0  0  0
   15.4659   15.8859    0.0000 O   0  0  0  0  0  0  0  0  0  0  0  0
   15.4659   20.2519    0.0000 O   0  0  0  0  0  0  0  0  0  0  0  0
    1.7320   13.4920    0.0000 O   0  0  0  0  0  0  0  0  0  0  0  0
   15.4659   24.6179    0.0000 O   0  0  0  0  0  0  0  0  0  0  0  0
   15.6610    9.0976    0.0000 N   0  0  0  0  0  0  0  0  0  0  0  0
    9.6274    8.3262    0.0000 N   0  0  0  0  0  0  0  0  0  0  0  0
   17.3552    9.4577    0.0000 N   0  0  0  0  0  0  0  0  0  0  0  0
    7.9332    7.9661    0.0000 N   0  0  0  0  0  0  0  0  0  0  0  0
   19.0494    9.8178    0.0000 N   0  0  0  0  0  0  0  0  0  0  0  0
    7.3980    6.3189    0.0000 N   0  0  0  0  0  0  0  0  0  0  0  0
   17.8905   11.1050    0.0000 N   0  0  0  0  0  0  0  0  0  0  0  0
    6.2390    7.6060    0.0000 N   0  0  0  0  0  0  0  0  0  0  0  0
   22.7469    9.5870    0.0000 N   0  0  0  0  0  0  0  0  0  0  0  0
    7.2410    2.6176    0.0000 N   0  0  0  0  0  0  0  0  0  0  0  0
   23.7469    9.5870    0.0000 N   0  0  0  0  0  0  0  0  0  0  0  0
    7.1365    1.6231    0.0000 N   0  0  0  0  0  0  0  0  0  0  0  0
   25.0069   10.8470    0.0000 N   0  0  0  0  0  0  0  0  0  0  0  0
    5.7516    0.5016    0.0000 N   0  0  0  0  0  0  0  0  0  0  0  0
   13.0158    9.0465    0.0000 C   0  0  0  0  0  0  0  0  0  0  0  0
   12.2726    8.3774    0.0000 C   0  0  0  0  0  0  0  0  0  0  0  0
   13.9668    8.7375    0.0000 C   0  0  0  0  0  0  0  0  0  0  0  0
   11.3216    8.6864    0.0000 C   0  0  0  0  0  0  0  0  0  0  0  0
   14.7100    9.4066    0.0000 C   0  0  0  0  0  0  0  0  0  0  0  0
   10.5784    8.0172    0.0000 C   0  0  0  0  0  0  0  0  0  0  0  0
   16.4042    9.7667    0.0000 C   0  0  0  0  0  0  0  0  0  0  0  0
    8.8842    7.6571    0.0000 C   0  0  0  0  0  0  0  0  0  0  0  0
   18.0984   10.1268    0.0000 C   0  0  0  0  0  0  0  0  0  0  0  0
    7.1900    7.2970    0.0000 C   0  0  0  0  0  0  0  0  0  0  0  0
   20.7436   10.1779    0.0000 C   0  0  0  0  0  0  0  0  0  0  0  0
    6.8627    4.6716    0.0000 C   0  0  0  0  0  0  0  0  0  0  0  0
   19.7926   10.4869    0.0000 C   0  0  0  0  0  0  0  0  0  0  0  0
    6.6548    5.6497    0.0000 C   0  0  0  0  0  0  0  0  0  0  0  0
   21.4868   10.8470    0.0000 C   0  0  0  0  0  0  0  0  0  0  0  0
    6.1196    4.0024    0.0000 C   0  0  0  0  0  0  0  0  0  0  0  0
   22.4378   10.5380    0.0000 C   0  0  0  0  0  0  0  0  0  0  0  0
    6.3275    3.0243    0.0000 C   0  0  0  0  0  0  0  0  0  0  0  0
   24.0559   10.5380    0.0000 C   0  0  0  0  0  0  0  0  0  0  0  0
    6.1584    1.4151    0.0000 C   0  0  0  0  0  0  0  0  0  0  0  0
   14.5999   14.3859    0.0000 C   0  0  0  0  0  0  0  0  0  0  0  0
   14.5999   18.7519    0.0000 C   0  0  0  0  0  0  0  0  0  0  0  0
    0.8660   11.9920    0.0000 C   0  0  0  0  0  0  0  0  0  0  0  0
   14.5999   23.1179    0.0000 C   0  0  0  0  0  0  0  0  0  0  0  0
   15.4659   14.8859    0.0000 C   0  0  0  0  0  0  0  0  0  0  0  0
   15.4659   19.2519    0.0000 C   0  0  0  0  0  0  0  0  0  0  0  0
    1.7320   12.4920    0.0000 C   0  0  0  0  0  0  0  0  0  0  0  0
   15.4659   23.6179    0.0000 C   0  0  0  0  0  0  0  0  0  0  0  0
   13.3069    9.5939    0.0000 H   0  0  0  0  0  0  0  0  0  0  0  0
   12.5272    9.4282    0.0000 H   0  0  0  0  0  0  0  0  0  0  0  0
   11.9816    7.8299    0.0000 H   0  0  0  0  0  0  0  0  0  0  0  0
   12.7612    7.9956    0.0000 H   0  0  0  0  0  0  0  0  0  0  0  0
   13.6758    8.1900    0.0000 H   0  0  0  0  0  0  0  0  0  0  0  0
   14.4554    8.3558    0.0000 H   0  0  0  0  0  0  0  0  0  0  0  0
   11.6127    9.2338    0.0000 H   0  0  0  0  0  0  0  0  0  0  0  0
   10.8330    9.0681    0.0000 H   0  0  0  0  0  0  0  0  0  0  0  0
   15.0011    9.9540    0.0000 H   0  0  0  0  0  0  0  0  0  0  0  0
   14.2214    9.7883    0.0000 H   0  0  0  0  0  0  0  0  0  0  0  0
   10.2874    7.4698    0.0000 H   0  0  0  0  0  0  0  0  0  0  0  0
   11.0670    7.6355    0.0000 H   0  0  0  0  0  0  0  0  0  0  0  0
   15.7899    8.4911    0.0000 H   0  0  0  0  0  0  0  0  0  0  0  0
    9.4985    8.9327    0.0000 H   0  0  0  0  0  0  0  0  0  0  0  0
   17.4841    8.8512    0.0000 H   0  0  0  0  0  0  0  0  0  0  0  0
    7.8043    8.5726    0.0000 H   0  0  0  0  0  0  0  0  0  0  0  0
   20.4526    9.6305    0.0000 H   0  0  0  0  0  0  0  0  0  0  0  0
   21.2322    9.7962    0.0000 H   0  0  0  0  0  0  0  0  0  0  0  0
    7.1913    4.1458    0.0000 H   0  0  0  0  0  0  0  0  0  0  0  0
    7.4376    4.9038    0.0000 H   0  0  0  0  0  0  0  0  0  0  0  0
   20.0837   11.0344    0.0000 H   0  0  0  0  0  0  0  0  0  0  0  0
   19.3040   10.8686    0.0000 H   0  0  0  0  0  0  0  0  0  0  0  0
    6.3262    6.1755    0.0000 H   0  0  0  0  0  0  0  0  0  0  0  0
    6.0800    5.4175    0.0000 H   0  0  0  0  0  0  0  0  0  0  0  0
   21.7779   11.3945    0.0000 H   0  0  0  0  0  0  0  0  0  0  0  0
   20.9982   11.2288    0.0000 H   0  0  0  0  0  0  0  0  0  0  0  0
    5.7910    4.5282    0.0000 H   0  0  0  0  0  0  0  0  0  0  0  0
    5.5447    3.7702    0.0000 H   0  0  0  0  0  0  0  0  0  0  0  0
   17.3008   11.2966    0.0000 H   0  0  0  0  0  0  0  0  0  0  0  0
   18.3512   11.5198    0.0000 H   0  0  0  0  0  0  0  0  0  0  0  0
    5.7782    7.1912    0.0000 H   0  0  0  0  0  0  0  0  0  0  0  0
    6.1101    8.2125    0.0000 H   0  0  0  0  0  0  0  0  0  0  0  0
   25.4677   10.4322    0.0000 H   0  0  0  0  0  0  0  0  0  0  0  0
   25.1358   11.4535    0.0000 H   0  0  0  0  0  0  0  0  0  0  0  0
    6.1160    0.0000    0.0000 H   0  0  0  0  0  0  0  0  0  0  0  0
    5.1350    0.4368    0.0000 H   0  0  0  0  0  0  0  0  0  0  0  0
   16.8689   14.6959    0.0000 H   0  0  0  0  0  0  0  0  0  0  0  0
   16.8689   19.0619    0.0000 H   0  0  0  0  0  0  0  0  0  0  0  0
    3.1350   12.3020    0.0000 H   0  0  0  0  0  0  0  0  0  0  0  0
   16.8689   23.4279    0.0000 H   0  0  0  0  0  0  0  0  0  0  0  0
  1 55  1  0  0  0  0
  1 57  1  0  0  0  0
  2 56  1  0  0  0  0
  2 58  1  0  0  0  0
  3 59  1  0  0  0  0
  4 59  1  0  0  0  0
  5 59  1  0  0  0  0
  6 60  1  0  0  0  0
  7 60  1  0  0  0  0
  8 60  1  0  0  0  0
  9 61  1  0  0  0  0
 10 61  1  0  0  0  0
 11 61  1  0  0  0  0
 12 62  1  0  0  0  0
 13 62  1  0  0  0  0
 14 62  1  0  0  0  0
 15 45  2  0  0  0  0
 16 46  2  0  0  0  0
 17 63  1  0  0  0  0
 17103  1  0  0  0  0
 18 64  1  0  0  0  0
 18104  1  0  0  0  0
 19 65  1  0  0  0  0
 19105  1  0  0  0  0
 20 66  1  0  0  0  0
 20106  1  0  0  0  0
 21 63  2  0  0  0  0
 22 64  2  0  0  0  0
 23 65  2  0  0  0  0
 24 66  2  0  0  0  0
 25 43  1  0  0  0  0
 25 45  1  0  0  0  0
 25 79  1  0  0  0  0
 26 44  1  0  0  0  0
 26 46  1  0  0  0  0
 26 80  1  0  0  0  0
 27 45  1  0  0  0  0
 27 47  1  0  0  0  0
 27 81  1  0  0  0  0
 28 46  1  0  0  0  0
 28 48  1  0  0  0  0
 28 82  1  0  0  0  0
 29 47  2  0  0  0  0
 29 51  1  0  0  0  0
 30 48  2  0  0  0  0
 30 52  1  0  0  0  0
 31 47  1  0  0  0  0
 31 95  1  0  0  0  0
 31 96  1  0  0  0  0
 32 48  1  0  0  0  0
 32 97  1  0  0  0  0
 32 98  1  0  0  0  0
 33 35  1  0  0  0  0
 33 55  2  0  0  0  0
 34 36  1  0  0  0  0
 34 56  2  0  0  0  0
 35 57  2  0  0  0  0
 36 58  2  0  0  0  0
 37 57  1  0  0  0  0
 37 99  1  0  0  0  0
 37100  1  0  0  0  0
 38 58  1  0  0  0  0
 38101  1  0  0  0  0
 38102  1  0  0  0  0
 39 40  1  0  0  0  0
 39 41  1  0  0  0  0
 39 67  1  0  0  0  0
 39 68  1  0  0  0  0
 40 42  1  0  0  0  0
 40 69  1  0  0  0  0
 40 70  1  0  0  0  0
 41 43  1  0  0  0  0
 41 71  1  0  0  0  0
 41 72  1  0  0  0  0
 42 44  1  0  0  0  0
 42 73  1  0  0  0  0
 42 74  1  0  0  0  0
 43 75  1  0  0  0  0
 43 76  1  0  0  0  0
 44 77  1  0  0  0  0
 44 78  1  0  0  0  0
 49 51  1  0  0  0  0
 49 53  1  0  0  0  0
 49 83  1  0  0  0  0
 49 84  1  0  0  0  0
 50 52  1  0  0  0  0
 50 54  1  0  0  0  0
 50 85  1  0  0  0  0
 50 86  1  0  0  0  0
 51 87  1  0  0  0  0
 51 88  1  0  0  0  0
 52 89  1  0  0  0  0
 52 90  1  0  0  0  0
 53 55  1  0  0  0  0
 53 91  1  0  0  0  0
 53 92  1  0  0  0  0
 54 56  1  0  0  0  0
 54 93  1  0  0  0  0
 54 94  1  0  0  0  0
 59 63  1  0  0  0  0
 60 64  1  0  0  0  0
 61 65  1  0  0  0  0
 62 66  1  0  0  0  0
M  END
> <PUBCHEM_COMPOUND_CID>
168273639

> <PUBCHEM_COMPOUND_CANONICALIZED>
1

> <PUBCHEM_CACTVS_COMPLEXITY>
795

> <PUBCHEM_CACTVS_HBOND_ACCEPTOR>
32

> <PUBCHEM_CACTVS_HBOND_DONOR>
12

> <PUBCHEM_CACTVS_ROTATABLE_BOND>
17

> <PUBCHEM_CACTVS_SUBSKEYS>
AAADcfB7/cBgAAAAAAAAAAAAAAAAAWLAAAAAAAAAAAAAAAAB4AAAHwQYCAAACADBwhQBGALAAgguAACwPAAQAINAABEVAIA4AACAAAIggAAEAAAYHwIAAAEQAAAAAAAAAAAAAAAAAAAAAAAAAAAAAAAAAA==

> <PUBCHEM_IUPAC_OPENEYE_NAME>
1-[N'-[3-(5-amino-1,3,4-thiadiazol-2-yl)propyl]carbamimidoyl]-3-[6-[[N'-[3-(5-amino-1,3,4-thiadiazol-2-yl)propyl]carbamimidoyl]carbamoylamino]hexyl]urea;2,2,2-trifluoroacetic acid

> <PUBCHEM_IUPAC_CAS_NAME>
1-[amino-[3-(5-amino-1,3,4-thiadiazol-2-yl)propylimino]methyl]-3-[6-[[[[amino-[3-(5-amino-1,3,4-thiadiazol-2-yl)propylimino]methyl]amino]-oxomethyl]amino]hexyl]urea;2,2,2-trifluoroacetic acid

> <PUBCHEM_IUPAC_NAME_MARKUP>
1-[<I>N</I>&apos;-[3-(5-amino-1,3,4-thiadiazol-2-yl)propyl]carbamimidoyl]-3-[6-[[<I>N</I>&apos;-[3-(5-amino-1,3,4-thiadiazol-2-yl)propyl]carbamimidoyl]carbamoylamino]hexyl]urea;2,2,2-trifluoroacetic acid

> <PUBCHEM_IUPAC_NAME>
1-[N'-[3-(5-amino-1,3,4-thiadiazol-2-yl)propyl]carbamimidoyl]-3-[6-[[N'-[3-(5-amino-1,3,4-thiadiazol-2-yl)propyl]carbamimidoyl]carbamoylamino]hexyl]urea;2,2,2-trifluoroacetic acid

> <PUBCHEM_IUPAC_SYSTEMATIC_NAME>
1-[N'-[3-(5-azanyl-1,3,4-thiadiazol-2-yl)propyl]carbamimidoyl]-3-[6-[[N'-[3-(5-azanyl-1,3,4-thiadiazol-2-yl)propyl]carbamimidoyl]carbamoylamino]hexyl]urea;2,2,2-tris(fluoranyl)ethanoic acid

> <PUBCHEM_IUPAC_TRADITIONAL_NAME>
1-[N'-[3-(5-amino-1,3,4-thiadiazol-2-yl)propyl]amidino]-3-[6-[[N'-[3-(5-amino-1,3,4-thiadiazol-2-yl)propyl]amidino]carbamoylamino]hexyl]urea;2,2,2-trifluoroacetic acid

> <PUBCHEM_IUPAC_INCHI>
InChI=1S/C20H36N14O2S2.4C2HF3O2/c21-15(25-11-5-7-13-31-33-17(23)37-13)29-19(35)27-9-3-1-2-4-10-28-20(36)30-16(22)26-12-6-8-14-32-34-18(24)38-14;4*3-2(4,5)1(6)7/h1-12H2,(H2,23,33)(H2,24,34)(H4,21,25,27,29,35)(H4,22,26,28,30,36);4*(H,6,7)

> <PUBCHEM_IUPAC_INCHIKEY>
LWJGSJNOFIWGGP-UHFFFAOYSA-N

> <PUBCHEM_EXACT_MASS>
1024.2301638

> <PUBCHEM_MOLECULAR_FORMULA>
C28H40F12N14O10S2

> <PUBCHEM_MOLECULAR_WEIGHT>
1024.8

> <PUBCHEM_OPENEYE_CAN_SMILES>
C(CCCNC(=O)NC(=NCCCC1=NN=C(S1)N)N)CCNC(=O)NC(=NCCCC2=NN=C(S2)N)N.C(=O)(C(F)(F)F)O.C(=O)(C(F)(F)F)O.C(=O)(C(F)(F)F)O.C(=O)(C(F)(F)F)O

> <PUBCHEM_OPENEYE_ISO_SMILES>
C(CCCNC(=O)NC(=NCCCC1=NN=C(S1)N)N)CCNC(=O)NC(=NCCCC2=NN=C(S2)N)N.C(=O)(C(F)(F)F)O.C(=O)(C(F)(F)F)O.C(=O)(C(F)(F)F)O.C(=O)(C(F)(F)F)O

> <PUBCHEM_CACTVS_TPSA>
468

> <PUBCHEM_MONOISOTOPIC_WEIGHT>
1024.2301638

> <PUBCHEM_TOTAL_CHARGE>
0

> <PUBCHEM_HEAVY_ATOM_COUNT>
66

> <PUBCHEM_ATOM_DEF_STEREO_COUNT>
0

> <PUBCHEM_ATOM_UDEF_STEREO_COUNT>
0

> <PUBCHEM_BOND_DEF_STEREO_COUNT>
0

> <PUBCHEM_BOND_UDEF_STEREO_COUNT>
0

> <PUBCHEM_ISOTOPIC_ATOM_COUNT>
0

> <PUBCHEM_COMPONENT_COUNT>
5

> <PUBCHEM_CACTVS_TAUTO_COUNT>
-1

> <PUBCHEM_COORDINATE_TYPE>
1
5
255

> <PUBCHEM_BONDANNOTATIONS>
1  55  8
1  57  8
2  56  8
2  58  8
33  35  8
33  55  8
34  36  8
34  56  8
35  57  8
36  58  8

$$$$
