166630851
  -OEChem-09292322442D

 56 60  0     1  0  0  0  0  0999 V2000
    4.9889    0.0250    0.0000 S   0  0  0  0  0  0  0  0  0  0  0  0
    4.6783   -2.5350    0.0000 S   0  0  0  0  0  0  0  0  0  0  0  0
   15.2609    0.7427    0.0000 F   0  0  0  0  0  0  0  0  0  0  0  0
    5.9394   -0.2857    0.0000 O   0  0  0  0  0  0  0  0  0  0  0  0
    4.0384    0.3356    0.0000 O   0  0  0  0  0  0  0  0  0  0  0  0
   12.2787    2.6680    0.0000 O   0  0  0  0  0  0  0  0  0  0  0  0
    7.8870    1.0098    0.0000 N   0  0  3  0  0  0  0  0  0  0  0  0
    5.2996    0.9755    0.0000 N   0  0  0  0  0  0  0  0  0  0  0  0
   11.3336    2.3600    0.0000 N   0  0  0  0  0  0  0  0  0  0  0  0
    7.6808    1.9883    0.0000 C   0  0  2  0  0  0  0  0  0  0  0  0
    6.2781    1.1817    0.0000 C   0  0  1  0  0  0  0  0  0  0  0  0
    6.6864    2.0946    0.0000 C   0  0  0  0  0  0  0  0  0  0  0  0
    7.0201    0.5113    0.0000 C   0  0  0  0  0  0  0  0  0  0  0  0
    8.7998    0.6015    0.0000 C   0  0  0  0  0  0  0  0  0  0  0  0
    8.3512    2.7303    0.0000 C   0  0  0  0  0  0  0  0  0  0  0  0
    9.6098    1.1879    0.0000 C   0  0  0  0  0  0  0  0  0  0  0  0
   10.5227    0.7795    0.0000 C   0  0  0  0  0  0  0  0  0  0  0  0
    4.6783   -0.9256    0.0000 C   0  0  0  0  0  0  0  0  0  0  0  0
   11.3327    1.3659    0.0000 C   0  0  0  0  0  0  0  0  0  0  0  0
    3.7320   -1.2303    0.0000 C   0  0  0  0  0  0  0  0  0  0  0  0
    5.2619   -1.7303    0.0000 C   0  0  0  0  0  0  0  0  0  0  0  0
   12.2773    1.0563    0.0000 C   0  0  0  0  0  0  0  0  0  0  0  0
    3.7320   -2.2303    0.0000 C   0  0  0  0  0  0  0  0  0  0  0  0
    2.8660   -0.7303    0.0000 C   0  0  0  0  0  0  0  0  0  0  0  0
   12.8651    1.8653    0.0000 C   0  0  0  0  0  0  0  0  0  0  0  0
   12.6841    0.1427    0.0000 C   0  0  0  0  0  0  0  0  0  0  0  0
    2.8660   -2.7303    0.0000 C   0  0  0  0  0  0  0  0  0  0  0  0
    2.0000   -1.2303    0.0000 C   0  0  0  0  0  0  0  0  0  0  0  0
    2.0000   -2.2303    0.0000 C   0  0  0  0  0  0  0  0  0  0  0  0
   13.8597    1.7608    0.0000 C   0  0  0  0  0  0  0  0  0  0  0  0
   13.6786    0.0382    0.0000 C   0  0  0  0  0  0  0  0  0  0  0  0
   14.2664    0.8472    0.0000 C   0  0  0  0  0  0  0  0  0  0  0  0
    8.2794    1.8268    0.0000 H   0  0  0  0  0  0  0  0  0  0  0  0
    5.8888    1.6642    0.0000 H   0  0  0  0  0  0  0  0  0  0  0  0
    6.8164    2.7008    0.0000 H   0  0  0  0  0  0  0  0  0  0  0  0
    6.0971    2.2872    0.0000 H   0  0  0  0  0  0  0  0  0  0  0  0
    6.5586    0.0972    0.0000 H   0  0  0  0  0  0  0  0  0  0  0  0
    7.3836    0.0091    0.0000 H   0  0  0  0  0  0  0  0  0  0  0  0
    8.4522    0.0881    0.0000 H   0  0  0  0  0  0  0  0  0  0  0  0
    9.2451    0.1700    0.0000 H   0  0  0  0  0  0  0  0  0  0  0  0
    8.8112    2.3146    0.0000 H   0  0  0  0  0  0  0  0  0  0  0  0
    8.7668    3.1903    0.0000 H   0  0  0  0  0  0  0  0  0  0  0  0
    7.8911    3.1459    0.0000 H   0  0  0  0  0  0  0  0  0  0  0  0
    4.8855    1.4370    0.0000 H   0  0  0  0  0  0  0  0  0  0  0  0
    9.9574    1.7013    0.0000 H   0  0  0  0  0  0  0  0  0  0  0  0
    9.1646    1.6193    0.0000 H   0  0  0  0  0  0  0  0  0  0  0  0
   10.1751    0.2661    0.0000 H   0  0  0  0  0  0  0  0  0  0  0  0
   10.9679    0.3481    0.0000 H   0  0  0  0  0  0  0  0  0  0  0  0
    5.8819   -1.7303    0.0000 H   0  0  0  0  0  0  0  0  0  0  0  0
    2.8660   -0.1103    0.0000 H   0  0  0  0  0  0  0  0  0  0  0  0
   12.3197   -0.3588    0.0000 H   0  0  0  0  0  0  0  0  0  0  0  0
    2.8660   -3.3503    0.0000 H   0  0  0  0  0  0  0  0  0  0  0  0
    1.4631   -0.9203    0.0000 H   0  0  0  0  0  0  0  0  0  0  0  0
    1.4631   -2.5403    0.0000 H   0  0  0  0  0  0  0  0  0  0  0  0
   14.2241    2.2624    0.0000 H   0  0  0  0  0  0  0  0  0  0  0  0
   13.9308   -0.5282    0.0000 H   0  0  0  0  0  0  0  0  0  0  0  0
  1  4  2  0  0  0  0
  1  5  2  0  0  0  0
  1  8  1  0  0  0  0
  1 18  1  0  0  0  0
  2 21  1  0  0  0  0
  2 23  1  0  0  0  0
  3 32  1  0  0  0  0
  6  9  1  0  0  0  0
  6 25  1  0  0  0  0
  7 10  1  0  0  0  0
  7 13  1  0  0  0  0
  7 14  1  0  0  0  0
 11  8  1  1  0  0  0
  8 44  1  0  0  0  0
  9 19  2  0  0  0  0
 10 12  1  0  0  0  0
 10 15  1  6  0  0  0
 10 33  1  0  0  0  0
 11 12  1  0  0  0  0
 11 13  1  0  0  0  0
 11 34  1  0  0  0  0
 12 35  1  0  0  0  0
 12 36  1  0  0  0  0
 13 37  1  0  0  0  0
 13 38  1  0  0  0  0
 14 16  1  0  0  0  0
 14 39  1  0  0  0  0
 14 40  1  0  0  0  0
 15 41  1  0  0  0  0
 15 42  1  0  0  0  0
 15 43  1  0  0  0  0
 16 17  1  0  0  0  0
 16 45  1  0  0  0  0
 16 46  1  0  0  0  0
 17 19  1  0  0  0  0
 17 47  1  0  0  0  0
 17 48  1  0  0  0  0
 18 20  1  0  0  0  0
 18 21  2  0  0  0  0
 19 22  1  0  0  0  0
 20 23  1  0  0  0  0
 20 24  2  0  0  0  0
 21 49  1  0  0  0  0
 22 25  2  0  0  0  0
 22 26  1  0  0  0  0
 23 27  2  0  0  0  0
 24 28  1  0  0  0  0
 24 50  1  0  0  0  0
 25 30  1  0  0  0  0
 26 31  2  0  0  0  0
 26 51  1  0  0  0  0
 27 29  1  0  0  0  0
 27 52  1  0  0  0  0
 28 29  2  0  0  0  0
 28 53  1  0  0  0  0
 29 54  1  0  0  0  0
 30 32  2  0  0  0  0
 30 55  1  0  0  0  0
 31 32  1  0  0  0  0
 31 56  1  0  0  0  0
M  END
> <PUBCHEM_COMPOUND_CID>
166630851

> <PUBCHEM_COMPOUND_CANONICALIZED>
1

> <PUBCHEM_CACTVS_COMPLEXITY>
751

> <PUBCHEM_CACTVS_HBOND_ACCEPTOR>
8

> <PUBCHEM_CACTVS_HBOND_DONOR>
1

> <PUBCHEM_CACTVS_ROTATABLE_BOND>
7

> <PUBCHEM_CACTVS_SUBSKEYS>
AAADceB7MQBgAAAAAAAAAAAAAAAAAWLEgAAwYAAAAAAAAFgB/gAAHwQUQAAADCzF3gyyh9NQAAqtA6RyQnDDAJAkKBBomLk+TNoIZrqg1ZOUMYBm0BmoyceYyKCOAAAAAAAMAAAAAAAAABgAAAAAAAAAAA==

> <PUBCHEM_IUPAC_OPENEYE_NAME>
N-[(3S,5S)-1-[3-(6-fluoro-1,2-benzoxazol-3-yl)propyl]-5-methyl-pyrrolidin-3-yl]benzothiophene-3-sulfonamide

> <PUBCHEM_IUPAC_CAS_NAME>
N-[(3S,5S)-1-[3-(6-fluoro-1,2-benzoxazol-3-yl)propyl]-5-methyl-3-pyrrolidinyl]-1-benzothiophene-3-sulfonamide

> <PUBCHEM_IUPAC_NAME_MARKUP>
<I>N</I>-[(3<I>S</I>,5<I>S</I>)-1-[3-(6-fluoro-1,2-benzoxazol-3-yl)propyl]-5-methylpyrrolidin-3-yl]-1-benzothiophene-3-sulfonamide

> <PUBCHEM_IUPAC_NAME>
N-[(3S,5S)-1-[3-(6-fluoro-1,2-benzoxazol-3-yl)propyl]-5-methylpyrrolidin-3-yl]-1-benzothiophene-3-sulfonamide

> <PUBCHEM_IUPAC_SYSTEMATIC_NAME>
N-[(3S,5S)-1-[3-(6-fluoranyl-1,2-benzoxazol-3-yl)propyl]-5-methyl-pyrrolidin-3-yl]-1-benzothiophene-3-sulfonamide

> <PUBCHEM_IUPAC_TRADITIONAL_NAME>
N-[(3S,5S)-1-[3-(6-fluoroindoxazen-3-yl)propyl]-5-methyl-pyrrolidin-3-yl]benzothiophene-3-sulfonamide

> <PUBCHEM_IUPAC_INCHI>
InChI=1S/C23H24FN3O3S2/c1-15-11-17(26-32(28,29)23-14-31-22-7-3-2-5-19(22)23)13-27(15)10-4-6-20-18-9-8-16(24)12-21(18)30-25-20/h2-3,5,7-9,12,14-15,17,26H,4,6,10-11,13H2,1H3/t15-,17-/m0/s1

> <PUBCHEM_IUPAC_INCHIKEY>
HDJYJCCQWSDIIV-RDJZCZTQSA-N

> <PUBCHEM_XLOGP3_AA>
4.8

> <PUBCHEM_EXACT_MASS>
473.12431215

> <PUBCHEM_MOLECULAR_FORMULA>
C23H24FN3O3S2

> <PUBCHEM_MOLECULAR_WEIGHT>
473.6

> <PUBCHEM_OPENEYE_CAN_SMILES>
CC1CC(CN1CCCC2=NOC3=C2C=CC(=C3)F)NS(=O)(=O)C4=CSC5=CC=CC=C54

> <PUBCHEM_OPENEYE_ISO_SMILES>
C[C@H]1C[C@@H](CN1CCCC2=NOC3=C2C=CC(=C3)F)NS(=O)(=O)C4=CSC5=CC=CC=C54

> <PUBCHEM_CACTVS_TPSA>
112

> <PUBCHEM_MONOISOTOPIC_WEIGHT>
473.12431215

> <PUBCHEM_TOTAL_CHARGE>
0

> <PUBCHEM_HEAVY_ATOM_COUNT>
32

> <PUBCHEM_ATOM_DEF_STEREO_COUNT>
2

> <PUBCHEM_ATOM_UDEF_STEREO_COUNT>
0

> <PUBCHEM_BOND_DEF_STEREO_COUNT>
0

> <PUBCHEM_BOND_UDEF_STEREO_COUNT>
0

> <PUBCHEM_ISOTOPIC_ATOM_COUNT>
0

> <PUBCHEM_COMPONENT_COUNT>
1

> <PUBCHEM_CACTVS_TAUTO_COUNT>
-1

> <PUBCHEM_COORDINATE_TYPE>
1
5
255

> <PUBCHEM_BONDANNOTATIONS>
10  15  6
18  20  8
18  21  8
19  22  8
2  21  8
2  23  8
20  23  8
20  24  8
22  25  8
22  26  8
23  27  8
24  28  8
25  30  8
26  31  8
27  29  8
28  29  8
30  32  8
31  32  8
6  25  8
6  9  8
11  8  5
9  19  8

$$$$
