44427826
  -OEChem-09292322042D

 65 69  0     0  0  0  0  0  0999 V2000
   16.2787   -1.4280    0.0000 O   0  0  0  0  0  0  0  0  0  0  0  0
    8.3374    2.1686    0.0000 O   0  0  0  0  0  0  0  0  0  0  0  0
   12.9800   -0.3703    0.0000 N   0  0  0  0  0  0  0  0  0  0  0  0
   14.9347    0.0531    0.0000 N   0  0  0  0  0  0  0  0  0  0  0  0
    8.7040    0.4758    0.0000 N   0  0  0  0  0  0  0  0  0  0  0  0
   13.2854    0.5820    0.0000 C   0  0  0  0  0  0  0  0  0  0  0  0
   13.6520   -1.1108    0.0000 C   0  0  0  0  0  0  0  0  0  0  0  0
   14.2627    0.7936    0.0000 C   0  0  0  0  0  0  0  0  0  0  0  0
   14.6294   -0.8992    0.0000 C   0  0  0  0  0  0  0  0  0  0  0  0
   12.0027   -0.5820    0.0000 C   0  0  0  0  0  0  0  0  0  0  0  0
   15.9121    0.2648    0.0000 C   0  0  0  0  0  0  0  0  0  0  0  0
    4.5274    2.1289    0.0000 C   0  0  0  0  0  0  0  0  0  0  0  0
    5.3364    1.5411    0.0000 C   0  0  0  0  0  0  0  0  0  0  0  0
   11.3307    0.1586    0.0000 C   0  0  0  0  0  0  0  0  0  0  0  0
    5.0274    0.5901    0.0000 C   0  0  0  0  0  0  0  0  0  0  0  0
    3.7183    1.5411    0.0000 C   0  0  0  0  0  0  0  0  0  0  0  0
    4.0274    0.5901    0.0000 C   0  0  0  0  0  0  0  0  0  0  0  0
   16.5841   -0.4758    0.0000 C   0  0  0  0  0  0  0  0  0  0  0  0
   16.2174    1.2170    0.0000 C   0  0  0  0  0  0  0  0  0  0  0  0
    6.3518    1.7734    0.0000 C   0  0  0  0  0  0  0  0  0  0  0  0
    5.7123   -0.1947    0.0000 C   0  0  0  0  0  0  0  0  0  0  0  0
   10.3534   -0.0531    0.0000 C   0  0  0  0  0  0  0  0  0  0  0  0
    7.0547    1.0047    0.0000 C   0  0  0  0  0  0  0  0  0  0  0  0
    2.7029    1.7734    0.0000 C   0  0  0  0  0  0  0  0  0  0  0  0
   17.5614   -0.2641    0.0000 C   0  0  0  0  0  0  0  0  0  0  0  0
    3.3424   -0.1947    0.0000 C   0  0  0  0  0  0  0  0  0  0  0  0
   17.1947    1.4287    0.0000 C   0  0  0  0  0  0  0  0  0  0  0  0
    6.7328    0.0140    0.0000 C   0  0  0  0  0  0  0  0  0  0  0  0
    9.6814    0.6875    0.0000 C   0  0  0  0  0  0  0  0  0  0  0  0
   17.8667    0.6881    0.0000 C   0  0  0  0  0  0  0  0  0  0  0  0
    8.0321    1.2164    0.0000 C   0  0  0  0  0  0  0  0  0  0  0  0
    2.0000    1.0047    0.0000 C   0  0  0  0  0  0  0  0  0  0  0  0
    2.3219    0.0140    0.0000 C   0  0  0  0  0  0  0  0  0  0  0  0
   16.9507   -2.1686    0.0000 C   0  0  0  0  0  0  0  0  0  0  0  0
   13.2614    1.2015    0.0000 H   0  0  0  0  0  0  0  0  0  0  0  0
   12.6711    0.6659    0.0000 H   0  0  0  0  0  0  0  0  0  0  0  0
   13.1275   -1.4414    0.0000 H   0  0  0  0  0  0  0  0  0  0  0  0
   13.8865   -1.6848    0.0000 H   0  0  0  0  0  0  0  0  0  0  0  0
   14.7873    1.1242    0.0000 H   0  0  0  0  0  0  0  0  0  0  0  0
   14.0283    1.3676    0.0000 H   0  0  0  0  0  0  0  0  0  0  0  0
   14.6534   -1.5187    0.0000 H   0  0  0  0  0  0  0  0  0  0  0  0
   15.2437   -0.9831    0.0000 H   0  0  0  0  0  0  0  0  0  0  0  0
   11.4782   -0.9125    0.0000 H   0  0  0  0  0  0  0  0  0  0  0  0
   12.2372   -1.1559    0.0000 H   0  0  0  0  0  0  0  0  0  0  0  0
    4.9422    2.5896    0.0000 H   0  0  0  0  0  0  0  0  0  0  0  0
    4.1125    2.5896    0.0000 H   0  0  0  0  0  0  0  0  0  0  0  0
   11.5200    0.7490    0.0000 H   0  0  0  0  0  0  0  0  0  0  0  0
   15.8008    1.6762    0.0000 H   0  0  0  0  0  0  0  0  0  0  0  0
    6.5365    2.3652    0.0000 H   0  0  0  0  0  0  0  0  0  0  0  0
    5.5139   -0.7821    0.0000 H   0  0  0  0  0  0  0  0  0  0  0  0
   10.1641   -0.6435    0.0000 H   0  0  0  0  0  0  0  0  0  0  0  0
    2.5182    2.3652    0.0000 H   0  0  0  0  0  0  0  0  0  0  0  0
    3.5408   -0.7821    0.0000 H   0  0  0  0  0  0  0  0  0  0  0  0
   17.9780   -0.7233    0.0000 H   0  0  0  0  0  0  0  0  0  0  0  0
   17.3841    2.0191    0.0000 H   0  0  0  0  0  0  0  0  0  0  0  0
    7.1459   -0.4483    0.0000 H   0  0  0  0  0  0  0  0  0  0  0  0
   10.2059    1.0180    0.0000 H   0  0  0  0  0  0  0  0  0  0  0  0
    9.4469    1.2614    0.0000 H   0  0  0  0  0  0  0  0  0  0  0  0
   18.4727    0.8194    0.0000 H   0  0  0  0  0  0  0  0  0  0  0  0
    1.3940    1.1359    0.0000 H   0  0  0  0  0  0  0  0  0  0  0  0
    1.9088   -0.4483    0.0000 H   0  0  0  0  0  0  0  0  0  0  0  0
    8.5147   -0.1146    0.0000 H   0  0  0  0  0  0  0  0  0  0  0  0
   16.4915   -2.5852    0.0000 H   0  0  0  0  0  0  0  0  0  0  0  0
   17.3673   -2.6277    0.0000 H   0  0  0  0  0  0  0  0  0  0  0  0
   17.4098   -1.7520    0.0000 H   0  0  0  0  0  0  0  0  0  0  0  0
  1 18  1  0  0  0  0
  1 34  1  0  0  0  0
  2 31  2  0  0  0  0
  3  6  1  0  0  0  0
  3  7  1  0  0  0  0
  3 10  1  0  0  0  0
  4  8  1  0  0  0  0
  4  9  1  0  0  0  0
  4 11  1  0  0  0  0
  5 29  1  0  0  0  0
  5 31  1  0  0  0  0
  5 62  1  0  0  0  0
  6  8  1  0  0  0  0
  6 35  1  0  0  0  0
  6 36  1  0  0  0  0
  7  9  1  0  0  0  0
  7 37  1  0  0  0  0
  7 38  1  0  0  0  0
  8 39  1  0  0  0  0
  8 40  1  0  0  0  0
  9 41  1  0  0  0  0
  9 42  1  0  0  0  0
 10 14  1  0  0  0  0
 10 43  1  0  0  0  0
 10 44  1  0  0  0  0
 11 18  1  0  0  0  0
 11 19  2  0  0  0  0
 12 13  1  0  0  0  0
 12 16  1  0  0  0  0
 12 45  1  0  0  0  0
 12 46  1  0  0  0  0
 13 15  2  0  0  0  0
 13 20  1  0  0  0  0
 14 22  2  0  0  0  0
 14 47  1  0  0  0  0
 15 17  1  0  0  0  0
 15 21  1  0  0  0  0
 16 17  1  0  0  0  0
 16 24  2  0  0  0  0
 17 26  2  0  0  0  0
 18 25  2  0  0  0  0
 19 27  1  0  0  0  0
 19 48  1  0  0  0  0
 20 23  2  0  0  0  0
 20 49  1  0  0  0  0
 21 28  2  0  0  0  0
 21 50  1  0  0  0  0
 22 29  1  0  0  0  0
 22 51  1  0  0  0  0
 23 28  1  0  0  0  0
 23 31  1  0  0  0  0
 24 32  1  0  0  0  0
 24 52  1  0  0  0  0
 25 30  1  0  0  0  0
 25 54  1  0  0  0  0
 26 33  1  0  0  0  0
 26 53  1  0  0  0  0
 27 30  2  0  0  0  0
 27 55  1  0  0  0  0
 28 56  1  0  0  0  0
 29 57  1  0  0  0  0
 29 58  1  0  0  0  0
 30 59  1  0  0  0  0
 32 33  2  0  0  0  0
 32 60  1  0  0  0  0
 33 61  1  0  0  0  0
 34 63  1  0  0  0  0
 34 64  1  0  0  0  0
 34 65  1  0  0  0  0
M  END
> <PUBCHEM_COMPOUND_CID>
44427826

> <PUBCHEM_COMPOUND_CANONICALIZED>
1

> <PUBCHEM_CACTVS_COMPLEXITY>
689

> <PUBCHEM_CACTVS_HBOND_ACCEPTOR>
4

> <PUBCHEM_CACTVS_HBOND_DONOR>
1

> <PUBCHEM_CACTVS_ROTATABLE_BOND>
7

> <PUBCHEM_CACTVS_SUBSKEYS>
AAADceB7MAAAAAAAAAAAAAAAAAAAAYAAAAA8YMEAAAAAAGABUAAAHgAQAAAADAzBmAYyxoPABACIAiVSUACCCAAlIgAIiIEPbMgOZjLEtZuVMShk1hHY6YeYyMCOwAACAAAQEACAAAQAACAgAQAACAAAAA==

> <PUBCHEM_IUPAC_OPENEYE_NAME>
N-[(E)-4-[4-(2-methoxyphenyl)piperazin-1-yl]but-2-enyl]-9H-fluorene-2-carboxamide

> <PUBCHEM_IUPAC_CAS_NAME>
N-[(E)-4-[4-(2-methoxyphenyl)-1-piperazinyl]but-2-enyl]-9H-fluorene-2-carboxamide

> <PUBCHEM_IUPAC_NAME_MARKUP>
<I>N</I>-[(<I>E</I>)-4-[4-(2-methoxyphenyl)piperazin-1-yl]but-2-enyl]-9<I>H</I>-fluorene-2-carboxamide

> <PUBCHEM_IUPAC_NAME>
N-[(E)-4-[4-(2-methoxyphenyl)piperazin-1-yl]but-2-enyl]-9H-fluorene-2-carboxamide

> <PUBCHEM_IUPAC_SYSTEMATIC_NAME>
N-[(E)-4-[4-(2-methoxyphenyl)piperazin-1-yl]but-2-enyl]-9H-fluorene-2-carboxamide

> <PUBCHEM_IUPAC_TRADITIONAL_NAME>
N-[(E)-4-[4-(2-methoxyphenyl)piperazino]but-2-enyl]-9H-fluorene-2-carboxamide

> <PUBCHEM_IUPAC_INCHI>
InChI=1S/C29H31N3O2/c1-34-28-11-5-4-10-27(28)32-18-16-31(17-19-32)15-7-6-14-30-29(33)23-12-13-26-24(21-23)20-22-8-2-3-9-25(22)26/h2-13,21H,14-20H2,1H3,(H,30,33)/b7-6+

> <PUBCHEM_IUPAC_INCHIKEY>
UUYDEYACQFNFMI-VOTSOKGWSA-N

> <PUBCHEM_XLOGP3_AA>
4.7

> <PUBCHEM_EXACT_MASS>
453.24162724

> <PUBCHEM_MOLECULAR_FORMULA>
C29H31N3O2

> <PUBCHEM_MOLECULAR_WEIGHT>
453.6

> <PUBCHEM_OPENEYE_CAN_SMILES>
COC1=CC=CC=C1N2CCN(CC2)CC=CCNC(=O)C3=CC4=C(C=C3)C5=CC=CC=C5C4

> <PUBCHEM_OPENEYE_ISO_SMILES>
COC1=CC=CC=C1N2CCN(CC2)C/C=C/CNC(=O)C3=CC4=C(C=C3)C5=CC=CC=C5C4

> <PUBCHEM_CACTVS_TPSA>
44.8

> <PUBCHEM_MONOISOTOPIC_WEIGHT>
453.24162724

> <PUBCHEM_TOTAL_CHARGE>
0

> <PUBCHEM_HEAVY_ATOM_COUNT>
34

> <PUBCHEM_ATOM_DEF_STEREO_COUNT>
0

> <PUBCHEM_ATOM_UDEF_STEREO_COUNT>
0

> <PUBCHEM_BOND_DEF_STEREO_COUNT>
1

> <PUBCHEM_BOND_UDEF_STEREO_COUNT>
0

> <PUBCHEM_ISOTOPIC_ATOM_COUNT>
0

> <PUBCHEM_COMPONENT_COUNT>
1

> <PUBCHEM_CACTVS_TAUTO_COUNT>
-1

> <PUBCHEM_COORDINATE_TYPE>
1
5
255

> <PUBCHEM_BONDANNOTATIONS>
11  18  8
11  19  8
13  15  8
13  20  8
15  21  8
16  17  8
16  24  8
17  26  8
18  25  8
19  27  8
20  23  8
21  28  8
23  28  8
24  32  8
25  30  8
26  33  8
27  30  8
32  33  8

$$$$
