132337
  -OEChem-09292322072D

 44 46  0     1  0  0  0  0  0999 V2000
    3.0329   -0.6330    0.0000 Cl  0  0  0  0  0  0  0  0  0  0  0  0
    6.9966    1.1806    0.0000 O   0  0  0  0  0  0  0  0  0  0  0  0
    5.7094    2.3396    0.0000 O   0  0  0  0  0  0  0  0  0  0  0  0
    8.8747   -2.9816    0.0000 N   0  0  3  0  0  0  0  0  0  0  0  0
    6.6365   -0.5136    0.0000 N   0  0  0  0  0  0  0  0  0  0  0  0
    2.4149    1.2691    0.0000 N   0  0  0  0  0  0  0  0  0  0  0  0
    8.8747   -1.9816    0.0000 C   0  0  2  0  0  0  0  0  0  0  0  0
    7.9236   -1.6726    0.0000 C   0  0  1  0  0  0  0  0  0  0  0  0
    9.8209   -1.6769    0.0000 C   0  0  0  0  0  0  0  0  0  0  0  0
    7.3358   -2.4816    0.0000 C   0  0  0  0  0  0  0  0  0  0  0  0
    7.9236   -3.2906    0.0000 C   0  0  0  0  0  0  0  0  0  0  0  0
    9.8209   -3.2863    0.0000 C   0  0  0  0  0  0  0  0  0  0  0  0
   10.4045   -2.4816    0.0000 C   0  0  0  0  0  0  0  0  0  0  0  0
    7.6146   -0.7215    0.0000 C   0  0  0  0  0  0  0  0  0  0  0  0
    6.3274    0.4374    0.0000 C   0  0  0  0  0  0  0  0  0  0  0  0
    5.3493    0.6454    0.0000 C   0  0  0  0  0  0  0  0  0  0  0  0
    5.0403    1.5964    0.0000 C   0  0  0  0  0  0  0  0  0  0  0  0
    4.6802   -0.0978    0.0000 C   0  0  0  0  0  0  0  0  0  0  0  0
    4.0621    1.8043    0.0000 C   0  0  0  0  0  0  0  0  0  0  0  0
    3.7020    0.1101    0.0000 C   0  0  0  0  0  0  0  0  0  0  0  0
    3.3930    1.0612    0.0000 C   0  0  0  0  0  0  0  0  0  0  0  0
    5.4004    3.2906    0.0000 C   0  0  0  0  0  0  0  0  0  0  0  0
    8.8758   -1.1316    0.0000 H   0  0  0  0  0  0  0  0  0  0  0  0
    8.3620   -1.2342    0.0000 H   0  0  0  0  0  0  0  0  0  0  0  0
   10.3583   -1.3676    0.0000 H   0  0  0  0  0  0  0  0  0  0  0  0
    9.5699   -1.1100    0.0000 H   0  0  0  0  0  0  0  0  0  0  0  0
    6.8751   -2.0667    0.0000 H   0  0  0  0  0  0  0  0  0  0  0  0
    6.8751   -2.8965    0.0000 H   0  0  0  0  0  0  0  0  0  0  0  0
    7.3867   -3.6006    0.0000 H   0  0  0  0  0  0  0  0  0  0  0  0
    8.1758   -3.8570    0.0000 H   0  0  0  0  0  0  0  0  0  0  0  0
    9.5699   -3.8532    0.0000 H   0  0  0  0  0  0  0  0  0  0  0  0
   10.3583   -3.5956    0.0000 H   0  0  0  0  0  0  0  0  0  0  0  0
   10.8654   -2.8963    0.0000 H   0  0  0  0  0  0  0  0  0  0  0  0
   10.8654   -2.0669    0.0000 H   0  0  0  0  0  0  0  0  0  0  0  0
    8.2286   -0.6352    0.0000 H   0  0  0  0  0  0  0  0  0  0  0  0
    7.6362   -0.1019    0.0000 H   0  0  0  0  0  0  0  0  0  0  0  0
    6.2216   -0.9744    0.0000 H   0  0  0  0  0  0  0  0  0  0  0  0
    4.8718   -0.6874    0.0000 H   0  0  0  0  0  0  0  0  0  0  0  0
    3.8706    2.3940    0.0000 H   0  0  0  0  0  0  0  0  0  0  0  0
    2.2233    1.8588    0.0000 H   0  0  0  0  0  0  0  0  0  0  0  0
    2.0000    0.8083    0.0000 H   0  0  0  0  0  0  0  0  0  0  0  0
    5.9901    3.4822    0.0000 H   0  0  0  0  0  0  0  0  0  0  0  0
    5.2088    3.8803    0.0000 H   0  0  0  0  0  0  0  0  0  0  0  0
    4.8108    3.0990    0.0000 H   0  0  0  0  0  0  0  0  0  0  0  0
  1 20  1  0  0  0  0
  2 15  2  0  0  0  0
  3 17  1  0  0  0  0
  3 22  1  0  0  0  0
  4  7  1  0  0  0  0
  4 11  1  0  0  0  0
  4 12  1  0  0  0  0
  5 14  1  0  0  0  0
  5 15  1  0  0  0  0
  5 37  1  0  0  0  0
  6 21  1  0  0  0  0
  6 40  1  0  0  0  0
  6 41  1  0  0  0  0
  7  8  1  0  0  0  0
  7  9  1  0  0  0  0
  7 23  1  1  0  0  0
  8 10  1  0  0  0  0
  8 14  1  1  0  0  0
  8 24  1  0  0  0  0
  9 13  1  0  0  0  0
  9 25  1  0  0  0  0
  9 26  1  0  0  0  0
 10 11  1  0  0  0  0
 10 27  1  0  0  0  0
 10 28  1  0  0  0  0
 11 29  1  0  0  0  0
 11 30  1  0  0  0  0
 12 13  1  0  0  0  0
 12 31  1  0  0  0  0
 12 32  1  0  0  0  0
 13 33  1  0  0  0  0
 13 34  1  0  0  0  0
 14 35  1  0  0  0  0
 14 36  1  0  0  0  0
 15 16  1  0  0  0  0
 16 17  1  0  0  0  0
 16 18  2  0  0  0  0
 17 19  2  0  0  0  0
 18 20  1  0  0  0  0
 18 38  1  0  0  0  0
 19 21  1  0  0  0  0
 19 39  1  0  0  0  0
 20 21  2  0  0  0  0
 22 42  1  0  0  0  0
 22 43  1  0  0  0  0
 22 44  1  0  0  0  0
M  END
> <PUBCHEM_COMPOUND_CID>
132337

> <PUBCHEM_COMPOUND_CANONICALIZED>
1

> <PUBCHEM_CACTVS_COMPLEXITY>
409

> <PUBCHEM_CACTVS_HBOND_ACCEPTOR>
4

> <PUBCHEM_CACTVS_HBOND_DONOR>
2

> <PUBCHEM_CACTVS_ROTATABLE_BOND>
4

> <PUBCHEM_CACTVS_SUBSKEYS>
AAADceB7MAAEAAAAAAAAAAAAAAAAAWLAAAAwAAAAAAAWAAABAAAAHgIQAAAADS7BmCYyxoPABACIAiVSUACCCAAkJwAAiIEObsgMJjaF9puEMWhm9hmI6YeY2SGeCCAAIgAIABAQQABEABAAIAAAAAAAAA==

> <PUBCHEM_IUPAC_OPENEYE_NAME>
4-amino-5-chloro-N-[[(1S,8S)-2,3,5,6,7,8-hexahydro-1H-pyrrolizin-1-yl]methyl]-2-methoxy-benzamide

> <PUBCHEM_IUPAC_CAS_NAME>
4-amino-5-chloro-N-[[(1S,8S)-2,3,5,6,7,8-hexahydro-1H-pyrrolizin-1-yl]methyl]-2-methoxybenzamide

> <PUBCHEM_IUPAC_NAME_MARKUP>
4-amino-5-chloro-<I>N</I>-[[(1<I>S</I>,8<I>S</I>)-2,3,5,6,7,8-hexahydro-1<I>H</I>-pyrrolizin-1-yl]methyl]-2-methoxybenzamide

> <PUBCHEM_IUPAC_NAME>
4-amino-5-chloro-N-[[(1S,8S)-2,3,5,6,7,8-hexahydro-1H-pyrrolizin-1-yl]methyl]-2-methoxybenzamide

> <PUBCHEM_IUPAC_SYSTEMATIC_NAME>
4-azanyl-5-chloranyl-N-[[(1S,8S)-2,3,5,6,7,8-hexahydro-1H-pyrrolizin-1-yl]methyl]-2-methoxy-benzamide

> <PUBCHEM_IUPAC_TRADITIONAL_NAME>
4-amino-5-chloro-2-methoxy-N-[[(1S,8S)-pyrrolizidin-1-yl]methyl]benzamide

> <PUBCHEM_IUPAC_INCHI>
InChI=1S/C16H22ClN3O2/c1-22-15-8-13(18)12(17)7-11(15)16(21)19-9-10-4-6-20-5-2-3-14(10)20/h7-8,10,14H,2-6,9,18H2,1H3,(H,19,21)/t10-,14-/m0/s1

> <PUBCHEM_IUPAC_INCHIKEY>
GAYSOZKZPOVDSB-HZMBPMFUSA-N

> <PUBCHEM_XLOGP3_AA>
2.1

> <PUBCHEM_EXACT_MASS>
323.1400546

> <PUBCHEM_MOLECULAR_FORMULA>
C16H22ClN3O2

> <PUBCHEM_MOLECULAR_WEIGHT>
323.82

> <PUBCHEM_OPENEYE_CAN_SMILES>
COC1=CC(=C(C=C1C(=O)NCC2CCN3C2CCC3)Cl)N

> <PUBCHEM_OPENEYE_ISO_SMILES>
COC1=CC(=C(C=C1C(=O)NC[C@@H]2CCN3[C@H]2CCC3)Cl)N

> <PUBCHEM_CACTVS_TPSA>
67.6

> <PUBCHEM_MONOISOTOPIC_WEIGHT>
323.1400546

> <PUBCHEM_TOTAL_CHARGE>
0

> <PUBCHEM_HEAVY_ATOM_COUNT>
22

> <PUBCHEM_ATOM_DEF_STEREO_COUNT>
2

> <PUBCHEM_ATOM_UDEF_STEREO_COUNT>
0

> <PUBCHEM_BOND_DEF_STEREO_COUNT>
0

> <PUBCHEM_BOND_UDEF_STEREO_COUNT>
0

> <PUBCHEM_ISOTOPIC_ATOM_COUNT>
0

> <PUBCHEM_COMPONENT_COUNT>
1

> <PUBCHEM_CACTVS_TAUTO_COUNT>
5

> <PUBCHEM_COORDINATE_TYPE>
1
5
255

> <PUBCHEM_BONDANNOTATIONS>
16  17  8
16  18  8
17  19  8
18  20  8
19  21  8
20  21  8
7  23  5
8  14  5

$$$$
