136043854
  -OEChem-09292322282D

 58 63  0     0  0  0  0  0  0999 V2000
    8.7204   -3.4353    0.0000 Cl  0  0  0  0  0  0  0  0  0  0  0  0
    2.8739    4.5171    0.0000 O   0  0  0  0  0  0  0  0  0  0  0  0
    4.9375    4.3625    0.0000 O   0  0  0  0  0  0  0  0  0  0  0  0
    3.0814    0.1313    0.0000 N   0  0  0  0  0  0  0  0  0  0  0  0
    3.9491   -1.6706    0.0000 N   0  0  0  0  0  0  0  0  0  0  0  0
    5.3830   -2.5716    0.0000 N   0  0  0  0  0  0  0  0  0  0  0  0
    4.8830   -4.7622    0.0000 N   0  0  0  0  0  0  0  0  0  0  0  0
    2.5180   -0.6949    0.0000 C   0  0  0  0  0  0  0  0  0  0  0  0
    4.0786    0.0566    0.0000 C   0  0  0  0  0  0  0  0  0  0  0  0
    2.9519   -1.5959    0.0000 C   0  0  0  0  0  0  0  0  0  0  0  0
    4.5125   -0.8444    0.0000 C   0  0  0  0  0  0  0  0  0  0  0  0
    2.6475    1.0323    0.0000 C   0  0  0  0  0  0  0  0  0  0  0  0
    4.3830   -2.5716    0.0000 C   0  0  0  0  0  0  0  0  0  0  0  0
    3.2108    1.8585    0.0000 C   0  0  0  0  0  0  0  0  0  0  0  0
    3.7595   -3.3534    0.0000 C   0  0  0  0  0  0  0  0  0  0  0  0
    3.9820   -4.3284    0.0000 C   0  0  0  0  0  0  0  0  0  0  0  0
    2.7769    2.7595    0.0000 C   0  0  0  0  0  0  0  0  0  0  0  0
    4.2080    1.7838    0.0000 C   0  0  0  0  0  0  0  0  0  0  0  0
    6.0065   -3.3534    0.0000 C   0  0  0  0  0  0  0  0  0  0  0  0
    2.7690   -3.0311    0.0000 C   0  0  0  0  0  0  0  0  0  0  0  0
    3.3403    3.5857    0.0000 C   0  0  0  0  0  0  0  0  0  0  0  0
    5.7840   -4.3284    0.0000 C   0  0  0  0  0  0  0  0  0  0  0  0
    4.3375    3.5110    0.0000 C   0  0  0  0  0  0  0  0  0  0  0  0
    4.7714    2.6100    0.0000 C   0  0  0  0  0  0  0  0  0  0  0  0
    3.2295   -5.0485    0.0000 C   0  0  0  0  0  0  0  0  0  0  0  0
    2.0000   -3.7337    0.0000 C   0  0  0  0  0  0  0  0  0  0  0  0
    2.2318   -4.7492    0.0000 C   0  0  0  0  0  0  0  0  0  0  0  0
    6.9970   -3.0311    0.0000 C   0  0  0  0  0  0  0  0  0  0  0  0
    3.4540    5.3822    0.0000 C   0  0  0  0  0  0  0  0  0  0  0  0
    6.5365   -5.0486    0.0000 C   0  0  0  0  0  0  0  0  0  0  0  0
    4.4928    5.3044    0.0000 C   0  0  0  0  0  0  0  0  0  0  0  0
    7.7660   -3.7337    0.0000 C   0  0  0  0  0  0  0  0  0  0  0  0
    7.5342   -4.7492    0.0000 C   0  0  0  0  0  0  0  0  0  0  0  0
    2.0742   -0.2620    0.0000 H   0  0  0  0  0  0  0  0  0  0  0  0
    2.0146   -1.0568    0.0000 H   0  0  0  0  0  0  0  0  0  0  0  0
    4.6754    0.2245    0.0000 H   0  0  0  0  0  0  0  0  0  0  0  0
    4.0168    0.6735    0.0000 H   0  0  0  0  0  0  0  0  0  0  0  0
    2.3551   -1.7638    0.0000 H   0  0  0  0  0  0  0  0  0  0  0  0
    3.0137   -2.2128    0.0000 H   0  0  0  0  0  0  0  0  0  0  0  0
    4.9563   -1.2773    0.0000 H   0  0  0  0  0  0  0  0  0  0  0  0
    5.0159   -0.4825    0.0000 H   0  0  0  0  0  0  0  0  0  0  0  0
    2.2037    1.4652    0.0000 H   0  0  0  0  0  0  0  0  0  0  0  0
    2.1441    0.6704    0.0000 H   0  0  0  0  0  0  0  0  0  0  0  0
    2.1587    2.8058    0.0000 H   0  0  0  0  0  0  0  0  0  0  0  0
    4.4770    1.2252    0.0000 H   0  0  0  0  0  0  0  0  0  0  0  0
    2.6380   -2.4251    0.0000 H   0  0  0  0  0  0  0  0  0  0  0  0
    4.8830   -5.3822    0.0000 H   0  0  0  0  0  0  0  0  0  0  0  0
    5.3896    2.5637    0.0000 H   0  0  0  0  0  0  0  0  0  0  0  0
    3.3744   -5.6514    0.0000 H   0  0  0  0  0  0  0  0  0  0  0  0
    1.4083   -3.5486    0.0000 H   0  0  0  0  0  0  0  0  0  0  0  0
    1.7789   -5.1726    0.0000 H   0  0  0  0  0  0  0  0  0  0  0  0
    7.1280   -2.4251    0.0000 H   0  0  0  0  0  0  0  0  0  0  0  0
    3.6055    5.9835    0.0000 H   0  0  0  0  0  0  0  0  0  0  0  0
    2.8876    5.6344    0.0000 H   0  0  0  0  0  0  0  0  0  0  0  0
    6.3916   -5.6514    0.0000 H   0  0  0  0  0  0  0  0  0  0  0  0
    5.0904    5.4692    0.0000 H   0  0  0  0  0  0  0  0  0  0  0  0
    4.4326    5.9215    0.0000 H   0  0  0  0  0  0  0  0  0  0  0  0
    7.9871   -5.1727    0.0000 H   0  0  0  0  0  0  0  0  0  0  0  0
  1 32  1  0  0  0  0
  2 21  1  0  0  0  0
  2 29  1  0  0  0  0
  3 23  1  0  0  0  0
  3 31  1  0  0  0  0
  4  8  1  0  0  0  0
  4  9  1  0  0  0  0
  4 12  1  0  0  0  0
  5 10  1  0  0  0  0
  5 11  1  0  0  0  0
  5 13  1  0  0  0  0
  6 13  2  0  0  0  0
  6 19  1  0  0  0  0
  7 16  1  0  0  0  0
  7 22  1  0  0  0  0
  7 47  1  0  0  0  0
  8 10  1  0  0  0  0
  8 34  1  0  0  0  0
  8 35  1  0  0  0  0
  9 11  1  0  0  0  0
  9 36  1  0  0  0  0
  9 37  1  0  0  0  0
 10 38  1  0  0  0  0
 10 39  1  0  0  0  0
 11 40  1  0  0  0  0
 11 41  1  0  0  0  0
 12 14  1  0  0  0  0
 12 42  1  0  0  0  0
 12 43  1  0  0  0  0
 13 15  1  0  0  0  0
 14 17  2  0  0  0  0
 14 18  1  0  0  0  0
 15 16  1  0  0  0  0
 15 20  2  0  0  0  0
 16 25  2  0  0  0  0
 17 21  1  0  0  0  0
 17 44  1  0  0  0  0
 18 24  2  0  0  0  0
 18 45  1  0  0  0  0
 19 22  2  0  0  0  0
 19 28  1  0  0  0  0
 20 26  1  0  0  0  0
 20 46  1  0  0  0  0
 21 23  2  0  0  0  0
 22 30  1  0  0  0  0
 23 24  1  0  0  0  0
 24 48  1  0  0  0  0
 25 27  1  0  0  0  0
 25 49  1  0  0  0  0
 26 27  2  0  0  0  0
 26 50  1  0  0  0  0
 27 51  1  0  0  0  0
 28 32  2  0  0  0  0
 28 52  1  0  0  0  0
 29 31  1  0  0  0  0
 29 53  1  0  0  0  0
 29 54  1  0  0  0  0
 30 33  2  0  0  0  0
 30 55  1  0  0  0  0
 31 56  1  0  0  0  0
 31 57  1  0  0  0  0
 32 33  1  0  0  0  0
 33 58  1  0  0  0  0
M  END
> <PUBCHEM_COMPOUND_CID>
136043854

> <PUBCHEM_COMPOUND_CANONICALIZED>
1

> <PUBCHEM_CACTVS_COMPLEXITY>
700

> <PUBCHEM_CACTVS_HBOND_ACCEPTOR>
5

> <PUBCHEM_CACTVS_HBOND_DONOR>
1

> <PUBCHEM_CACTVS_ROTATABLE_BOND>
3

> <PUBCHEM_CACTVS_SUBSKEYS>
AAADceB7sAAEAAAAAAAAAAAAAAAAAAAAAAA8aMECBAAAAACRUAAAHgIQAAAADA7hmCYxxoPABACgAiZiZACCCAEhJwAJiAAu/pgNZuLF+5uWOCrk0BHK6Aew0BIOIABBAAICQCBAAIIABASAQAAAAAAAAA==

> <PUBCHEM_IUPAC_OPENEYE_NAME>
3-chloro-6-[4-(2,3-dihydro-1,4-benzodioxin-6-ylmethyl)piperazin-1-yl]-11H-benzo[b][1,4]benzodiazepine

> <PUBCHEM_IUPAC_CAS_NAME>
3-chloro-6-[4-(2,3-dihydro-1,4-benzodioxin-6-ylmethyl)-1-piperazinyl]-11H-benzo[b][1,4]benzodiazepine

> <PUBCHEM_IUPAC_NAME_MARKUP>
3-chloro-6-[4-(2,3-dihydro-1,4-benzodioxin-6-ylmethyl)piperazin-1-yl]-11<I>H</I>-benzo[b][1,4]benzodiazepine

> <PUBCHEM_IUPAC_NAME>
3-chloro-6-[4-(2,3-dihydro-1,4-benzodioxin-6-ylmethyl)piperazin-1-yl]-11H-benzo[b][1,4]benzodiazepine

> <PUBCHEM_IUPAC_SYSTEMATIC_NAME>
3-chloranyl-6-[4-(2,3-dihydro-1,4-benzodioxin-6-ylmethyl)piperazin-1-yl]-11H-benzo[b][1,4]benzodiazepine

> <PUBCHEM_IUPAC_TRADITIONAL_NAME>
3-chloro-6-[4-(2,3-dihydro-1,4-benzodioxin-6-ylmethyl)piperazino]-11H-benzo[b][1,4]benzodiazepine

> <PUBCHEM_IUPAC_INCHI>
InChI=1S/C26H25ClN4O2/c27-19-6-7-22-23(16-19)29-26(20-3-1-2-4-21(20)28-22)31-11-9-30(10-12-31)17-18-5-8-24-25(15-18)33-14-13-32-24/h1-8,15-16,28H,9-14,17H2

> <PUBCHEM_IUPAC_INCHIKEY>
YNYGWSSJOCRJGL-UHFFFAOYSA-N

> <PUBCHEM_XLOGP3_AA>
4.3

> <PUBCHEM_EXACT_MASS>
460.1666037

> <PUBCHEM_MOLECULAR_FORMULA>
C26H25ClN4O2

> <PUBCHEM_MOLECULAR_WEIGHT>
461.0

> <PUBCHEM_OPENEYE_CAN_SMILES>
C1CN(CCN1CC2=CC3=C(C=C2)OCCO3)C4=NC5=C(C=CC(=C5)Cl)NC6=CC=CC=C64

> <PUBCHEM_OPENEYE_ISO_SMILES>
C1CN(CCN1CC2=CC3=C(C=C2)OCCO3)C4=NC5=C(C=CC(=C5)Cl)NC6=CC=CC=C64

> <PUBCHEM_CACTVS_TPSA>
49.3

> <PUBCHEM_MONOISOTOPIC_WEIGHT>
460.1666037

> <PUBCHEM_TOTAL_CHARGE>
0

> <PUBCHEM_HEAVY_ATOM_COUNT>
33

> <PUBCHEM_ATOM_DEF_STEREO_COUNT>
0

> <PUBCHEM_ATOM_UDEF_STEREO_COUNT>
0

> <PUBCHEM_BOND_DEF_STEREO_COUNT>
0

> <PUBCHEM_BOND_UDEF_STEREO_COUNT>
0

> <PUBCHEM_ISOTOPIC_ATOM_COUNT>
0

> <PUBCHEM_COMPONENT_COUNT>
1

> <PUBCHEM_CACTVS_TAUTO_COUNT>
-1

> <PUBCHEM_COORDINATE_TYPE>
1
5
255

> <PUBCHEM_BONDANNOTATIONS>
14  17  8
14  18  8
15  16  8
15  20  8
16  25  8
17  21  8
18  24  8
19  22  8
19  28  8
20  26  8
21  23  8
22  30  8
23  24  8
25  27  8
26  27  8
28  32  8
30  33  8
32  33  8

$$$$
