45265633
  -OEChem-09292322122D

 78 81  0     1  0  0  0  0  0999 V2000
    8.4488    0.0000    0.0000 Cl  0  0  0  0  0  0  0  0  0  0  0  0
   16.4915    9.6975    0.0000 S   0  0  0  0  0  0  0  0  0  0  0  0
    5.2688    6.5719    0.0000 O   0  0  0  0  0  0  0  0  0  0  0  0
   15.6236   10.1942    0.0000 O   0  0  0  0  0  0  0  0  0  0  0  0
    2.1756    4.7924    0.0000 O   0  0  0  0  0  0  0  0  0  0  0  0
   16.9882   10.5654    0.0000 O   0  0  0  0  0  0  0  0  0  0  0  0
   15.9949    8.8296    0.0000 O   0  0  0  0  0  0  0  0  0  0  0  0
   10.7688    9.1700    0.0000 N   0  0  3  0  0  0  0  0  0  0  0  0
    5.2688    8.3040    0.0000 N   0  0  0  0  0  0  0  0  0  0  0  0
    0.7743    5.6014    0.0000 N   0  0  0  0  0  0  0  0  0  0  0  0
    8.2688    8.3040    0.0000 C   0  0  0  0  0  0  0  0  0  0  0  0
    7.7688    7.4380    0.0000 C   0  0  0  0  0  0  0  0  0  0  0  0
    7.7688    9.1700    0.0000 C   0  0  0  0  0  0  0  0  0  0  0  0
    6.2688    8.3040    0.0000 C   0  0  0  0  0  0  0  0  0  0  0  0
    6.7688    7.4380    0.0000 C   0  0  0  0  0  0  0  0  0  0  0  0
    6.7688    9.1700    0.0000 C   0  0  0  0  0  0  0  0  0  0  0  0
    9.2688    8.3040    0.0000 C   0  0  0  0  0  0  0  0  0  0  0  0
    9.7688    9.1700    0.0000 C   0  0  0  0  0  0  0  0  0  0  0  0
   11.2027   10.0710    0.0000 C   0  0  0  0  0  0  0  0  0  0  0  0
   11.2027    8.2690    0.0000 C   0  0  0  0  0  0  0  0  0  0  0  0
   12.1776   10.2935    0.0000 C   0  0  0  0  0  0  0  0  0  0  0  0
   12.1776    8.0465    0.0000 C   0  0  0  0  0  0  0  0  0  0  0  0
   12.9595    9.6700    0.0000 C   0  0  0  0  0  0  0  0  0  0  0  0
   12.9595    8.6700    0.0000 C   0  0  0  0  0  0  0  0  0  0  0  0
    4.7688    7.4380    0.0000 C   0  0  0  0  0  0  0  0  0  0  0  0
   13.8534   10.2047    0.0000 C   0  0  0  0  0  0  0  0  0  0  0  0
   13.8534    8.1353    0.0000 C   0  0  0  0  0  0  0  0  0  0  0  0
    3.7688    7.4380    0.0000 C   0  0  0  0  0  0  0  0  0  0  0  0
   14.7595    9.6908    0.0000 C   0  0  0  0  0  0  0  0  0  0  0  0
   14.7595    8.6492    0.0000 C   0  0  0  0  0  0  0  0  0  0  0  0
    3.2688    6.5719    0.0000 C   0  0  0  0  0  0  0  0  0  0  0  0
    3.2688    8.3040    0.0000 C   0  0  0  0  0  0  0  0  0  0  0  0
    2.2688    6.5719    0.0000 C   0  0  0  0  0  0  0  0  0  0  0  0
    2.2688    8.3040    0.0000 C   0  0  0  0  0  0  0  0  0  0  0  0
    1.7688    7.4380    0.0000 C   0  0  0  0  0  0  0  0  0  0  0  0
    1.7688    5.7059    0.0000 C   0  0  0  0  0  0  0  0  0  0  0  0
   17.3595    9.2008    0.0000 C   0  0  0  0  0  0  0  0  0  0  0  0
    1.4324    4.1232    0.0000 C   0  0  0  0  0  0  0  0  0  0  0  0
    0.5664    4.6232    0.0000 C   0  0  0  0  0  0  0  0  0  0  0  0
    1.5370    3.1287    0.0000 C   0  0  0  0  0  0  0  0  0  0  0  0
    8.5788    8.8409    0.0000 H   0  0  0  0  0  0  0  0  0  0  0  0
    7.6612    6.8274    0.0000 H   0  0  0  0  0  0  0  0  0  0  0  0
    8.3514    7.2259    0.0000 H   0  0  0  0  0  0  0  0  0  0  0  0
    8.3514    9.3821    0.0000 H   0  0  0  0  0  0  0  0  0  0  0  0
    7.6612    9.7806    0.0000 H   0  0  0  0  0  0  0  0  0  0  0  0
    5.9588    8.8409    0.0000 H   0  0  0  0  0  0  0  0  0  0  0  0
    6.1862    7.2259    0.0000 H   0  0  0  0  0  0  0  0  0  0  0  0
    6.8765    6.8274    0.0000 H   0  0  0  0  0  0  0  0  0  0  0  0
    6.8765    9.7806    0.0000 H   0  0  0  0  0  0  0  0  0  0  0  0
    6.1862    9.3821    0.0000 H   0  0  0  0  0  0  0  0  0  0  0  0
    9.1612    7.6934    0.0000 H   0  0  0  0  0  0  0  0  0  0  0  0
    9.8514    8.0919    0.0000 H   0  0  0  0  0  0  0  0  0  0  0  0
    9.8765    9.7806    0.0000 H   0  0  0  0  0  0  0  0  0  0  0  0
    9.1862    9.3821    0.0000 H   0  0  0  0  0  0  0  0  0  0  0  0
    4.9588    8.8409    0.0000 H   0  0  0  0  0  0  0  0  0  0  0  0
   11.2027   10.6910    0.0000 H   0  0  0  0  0  0  0  0  0  0  0  0
   10.5983   10.2089    0.0000 H   0  0  0  0  0  0  0  0  0  0  0  0
   10.5983    8.1311    0.0000 H   0  0  0  0  0  0  0  0  0  0  0  0
   11.2027    7.6490    0.0000 H   0  0  0  0  0  0  0  0  0  0  0  0
   12.6624   10.6801    0.0000 H   0  0  0  0  0  0  0  0  0  0  0  0
   11.9086   10.8521    0.0000 H   0  0  0  0  0  0  0  0  0  0  0  0
   11.9086    7.4879    0.0000 H   0  0  0  0  0  0  0  0  0  0  0  0
   12.6624    7.6600    0.0000 H   0  0  0  0  0  0  0  0  0  0  0  0
   13.8462   10.8246    0.0000 H   0  0  0  0  0  0  0  0  0  0  0  0
   13.8462    7.5154    0.0000 H   0  0  0  0  0  0  0  0  0  0  0  0
   15.2952    8.3371    0.0000 H   0  0  0  0  0  0  0  0  0  0  0  0
    3.5788    6.0350    0.0000 H   0  0  0  0  0  0  0  0  0  0  0  0
    3.5788    8.8409    0.0000 H   0  0  0  0  0  0  0  0  0  0  0  0
    1.9588    8.8409    0.0000 H   0  0  0  0  0  0  0  0  0  0  0  0
    1.1488    7.4380    0.0000 H   0  0  0  0  0  0  0  0  0  0  0  0
   17.0515    8.6627    0.0000 H   0  0  0  0  0  0  0  0  0  0  0  0
   17.8976    8.8929    0.0000 H   0  0  0  0  0  0  0  0  0  0  0  0
   17.6674    9.7390    0.0000 H   0  0  0  0  0  0  0  0  0  0  0  0
    0.0000    4.3710    0.0000 H   0  0  0  0  0  0  0  0  0  0  0  0
    0.9203    3.0639    0.0000 H   0  0  0  0  0  0  0  0  0  0  0  0
    1.6018    2.5121    0.0000 H   0  0  0  0  0  0  0  0  0  0  0  0
    2.1536    3.1935    0.0000 H   0  0  0  0  0  0  0  0  0  0  0  0
    9.4488    0.0000    0.0000 H   0  0  0  0  0  0  0  0  0  0  0  0
  1 78  1  0  0  0  0
  2  4  1  0  0  0  0
  2  6  2  0  0  0  0
  2  7  2  0  0  0  0
  2 37  1  0  0  0  0
  3 25  2  0  0  0  0
  4 29  1  0  0  0  0
  5 36  1  0  0  0  0
  5 38  1  0  0  0  0
  8 18  1  0  0  0  0
  8 19  1  0  0  0  0
  8 20  1  0  0  0  0
  9 14  1  0  0  0  0
  9 25  1  0  0  0  0
  9 55  1  0  0  0  0
 10 36  2  0  0  0  0
 10 39  1  0  0  0  0
 11 12  1  0  0  0  0
 11 13  1  0  0  0  0
 11 17  1  0  0  0  0
 11 41  1  0  0  0  0
 12 15  1  0  0  0  0
 12 42  1  0  0  0  0
 12 43  1  0  0  0  0
 13 16  1  0  0  0  0
 13 44  1  0  0  0  0
 13 45  1  0  0  0  0
 14 15  1  0  0  0  0
 14 16  1  0  0  0  0
 14 46  1  0  0  0  0
 15 47  1  0  0  0  0
 15 48  1  0  0  0  0
 16 49  1  0  0  0  0
 16 50  1  0  0  0  0
 17 18  1  0  0  0  0
 17 51  1  0  0  0  0
 17 52  1  0  0  0  0
 18 53  1  0  0  0  0
 18 54  1  0  0  0  0
 19 21  1  0  0  0  0
 19 56  1  0  0  0  0
 19 57  1  0  0  0  0
 20 22  1  0  0  0  0
 20 58  1  0  0  0  0
 20 59  1  0  0  0  0
 21 23  1  0  0  0  0
 21 60  1  0  0  0  0
 21 61  1  0  0  0  0
 22 24  1  0  0  0  0
 22 62  1  0  0  0  0
 22 63  1  0  0  0  0
 23 24  2  0  0  0  0
 23 26  1  0  0  0  0
 24 27  1  0  0  0  0
 25 28  1  0  0  0  0
 26 29  2  0  0  0  0
 26 64  1  0  0  0  0
 27 30  2  0  0  0  0
 27 65  1  0  0  0  0
 28 31  1  0  0  0  0
 28 32  2  0  0  0  0
 29 30  1  0  0  0  0
 30 66  1  0  0  0  0
 31 33  2  0  0  0  0
 31 67  1  0  0  0  0
 32 34  1  0  0  0  0
 32 68  1  0  0  0  0
 33 35  1  0  0  0  0
 33 36  1  0  0  0  0
 34 35  2  0  0  0  0
 34 69  1  0  0  0  0
 35 70  1  0  0  0  0
 37 71  1  0  0  0  0
 37 72  1  0  0  0  0
 37 73  1  0  0  0  0
 38 39  2  0  0  0  0
 38 40  1  0  0  0  0
 39 74  1  0  0  0  0
 40 75  1  0  0  0  0
 40 76  1  0  0  0  0
 40 77  1  0  0  0  0
M  END
> <PUBCHEM_COMPOUND_CID>
45265633

> <PUBCHEM_COMPOUND_CANONICALIZED>
1

> <PUBCHEM_CACTVS_COMPLEXITY>
903

> <PUBCHEM_CACTVS_HBOND_ACCEPTOR>
7

> <PUBCHEM_CACTVS_HBOND_DONOR>
2

> <PUBCHEM_CACTVS_ROTATABLE_BOND>
8

> <PUBCHEM_CACTVS_SUBSKEYS>
AAADcfB7OABEAAAAAAAAAAAAAAAAAWAAAAAwYMAABYAAAAAB0AAAHgQQAAAADSzBmgS+hpPIFEKoArF3VHSCiCA/YCAI2KGvTNgOJrLAtTuPOQjk1hHYqYeY3/KOoAADAAAQAABQAAYAACAAAAAAAAAAAA==

> <PUBCHEM_IUPAC_OPENEYE_NAME>
[3-[2-[4-[[3-(5-methyloxazol-2-yl)benzoyl]amino]cyclohexyl]ethyl]-1,2,4,5-tetrahydro-3-benzazepin-7-yl] methanesulfonate;hydrochloride

> <PUBCHEM_IUPAC_CAS_NAME>
methanesulfonic acid [3-[2-[4-[[[3-(5-methyl-2-oxazolyl)phenyl]-oxomethyl]amino]cyclohexyl]ethyl]-1,2,4,5-tetrahydro-3-benzazepin-7-yl] ester;hydrochloride

> <PUBCHEM_IUPAC_NAME_MARKUP>
[3-[2-[4-[[3-(5-methyl-1,3-oxazol-2-yl)benzoyl]amino]cyclohexyl]ethyl]-1,2,4,5-tetrahydro-3-benzazepin-7-yl] methanesulfonate;hydrochloride

> <PUBCHEM_IUPAC_NAME>
[3-[2-[4-[[3-(5-methyl-1,3-oxazol-2-yl)benzoyl]amino]cyclohexyl]ethyl]-1,2,4,5-tetrahydro-3-benzazepin-7-yl] methanesulfonate;hydrochloride

> <PUBCHEM_IUPAC_SYSTEMATIC_NAME>
[3-[2-[4-[[3-(5-methyl-1,3-oxazol-2-yl)phenyl]carbonylamino]cyclohexyl]ethyl]-1,2,4,5-tetrahydro-3-benzazepin-7-yl] methanesulfonate;hydrochloride

> <PUBCHEM_IUPAC_TRADITIONAL_NAME>
methanesulfonic acid [3-[2-[4-[[3-(5-methyloxazol-2-yl)benzoyl]amino]cyclohexyl]ethyl]-1,2,4,5-tetrahydro-3-benzazepin-7-yl] ester;hydrochloride

> <PUBCHEM_IUPAC_INCHI>
InChI=1S/C30H37N3O5S.ClH/c1-21-20-31-30(37-21)26-5-3-4-25(18-26)29(34)32-27-9-6-22(7-10-27)12-15-33-16-13-23-8-11-28(38-39(2,35)36)19-24(23)14-17-33;/h3-5,8,11,18-20,22,27H,6-7,9-10,12-17H2,1-2H3,(H,32,34);1H

> <PUBCHEM_IUPAC_INCHIKEY>
QSTPCIKGMWQEMK-UHFFFAOYSA-N

> <PUBCHEM_EXACT_MASS>
587.2220702

> <PUBCHEM_MOLECULAR_FORMULA>
C30H38ClN3O5S

> <PUBCHEM_MOLECULAR_WEIGHT>
588.2

> <PUBCHEM_OPENEYE_CAN_SMILES>
CC1=CN=C(O1)C2=CC(=CC=C2)C(=O)NC3CCC(CC3)CCN4CCC5=C(CC4)C=C(C=C5)OS(=O)(=O)C.Cl

> <PUBCHEM_OPENEYE_ISO_SMILES>
CC1=CN=C(O1)C2=CC(=CC=C2)C(=O)NC3CCC(CC3)CCN4CCC5=C(CC4)C=C(C=C5)OS(=O)(=O)C.Cl

> <PUBCHEM_CACTVS_TPSA>
110

> <PUBCHEM_MONOISOTOPIC_WEIGHT>
587.2220702

> <PUBCHEM_TOTAL_CHARGE>
0

> <PUBCHEM_HEAVY_ATOM_COUNT>
40

> <PUBCHEM_ATOM_DEF_STEREO_COUNT>
0

> <PUBCHEM_ATOM_UDEF_STEREO_COUNT>
0

> <PUBCHEM_BOND_DEF_STEREO_COUNT>
0

> <PUBCHEM_BOND_UDEF_STEREO_COUNT>
0

> <PUBCHEM_ISOTOPIC_ATOM_COUNT>
0

> <PUBCHEM_COMPONENT_COUNT>
2

> <PUBCHEM_CACTVS_TAUTO_COUNT>
-1

> <PUBCHEM_COORDINATE_TYPE>
1
5
255

> <PUBCHEM_BONDANNOTATIONS>
10  36  8
10  39  8
23  24  8
23  26  8
24  27  8
26  29  8
27  30  8
28  31  8
28  32  8
29  30  8
31  33  8
32  34  8
33  35  8
34  35  8
38  39  8
5  36  8
5  38  8

$$$$
