145983390
  -OEChem-09292322392D

 70 75  0     1  0  0  0  0  0999 V2000
    4.6660   -0.0780    0.0000 S   0  0  0  0  0  0  0  0  0  0  0  0
   11.2914   -2.7410    0.0000 S   0  0  0  0  0  0  0  0  0  0  0  0
    5.6660   -0.0780    0.0000 O   0  0  0  0  0  0  0  0  0  0  0  0
    3.6660   -0.0780    0.0000 O   0  0  0  0  0  0  0  0  0  0  0  0
    4.6660    0.9220    0.0000 N   0  0  3  0  0  0  0  0  0  0  0  0
    8.0615    0.4743    0.0000 N   0  0  0  0  0  0  0  0  0  0  0  0
    9.6252   -0.7727    0.0000 N   0  0  0  0  0  0  0  0  0  0  0  0
   10.3616   -2.3892    0.0000 N   0  0  0  0  0  0  0  0  0  0  0  0
    4.6660   -3.0780    0.0000 N   0  0  0  0  0  0  0  0  0  0  0  0
    5.5670    1.3559    0.0000 C   0  0  1  0  0  0  0  0  0  0  0  0
    5.7895    2.3308    0.0000 C   0  0  0  0  0  0  0  0  0  0  0  0
    6.3488    0.7324    0.0000 C   0  0  0  0  0  0  0  0  0  0  0  0
    5.1660    3.1126    0.0000 C   0  0  0  0  0  0  0  0  0  0  0  0
    3.7651    1.3559    0.0000 C   0  0  0  0  0  0  0  0  0  0  0  0
    7.2797    1.0977    0.0000 C   0  0  0  0  0  0  0  0  0  0  0  0
    4.1660    3.1126    0.0000 C   0  0  0  0  0  0  0  0  0  0  0  0
    3.5425    2.3308    0.0000 C   0  0  0  0  0  0  0  0  0  0  0  0
    7.9125   -0.5146    0.0000 C   0  0  0  0  0  0  0  0  0  0  0  0
    8.9924    0.8396    0.0000 C   0  0  0  0  0  0  0  0  0  0  0  0
    8.6943   -1.1381    0.0000 C   0  0  0  0  0  0  0  0  0  0  0  0
    9.7742    0.2161    0.0000 C   0  0  0  0  0  0  0  0  0  0  0  0
    4.6660   -1.0780    0.0000 C   0  0  0  0  0  0  0  0  0  0  0  0
   10.4070   -1.3962    0.0000 C   0  0  0  0  0  0  0  0  0  0  0  0
    3.8000   -1.5780    0.0000 C   0  0  0  0  0  0  0  0  0  0  0  0
    5.5321   -1.5780    0.0000 C   0  0  0  0  0  0  0  0  0  0  0  0
   11.3651   -1.1309    0.0000 C   0  0  0  0  0  0  0  0  0  0  0  0
    3.8000   -2.5780    0.0000 C   0  0  0  0  0  0  0  0  0  0  0  0
    2.9061   -1.0433    0.0000 C   0  0  0  0  0  0  0  0  0  0  0  0
   11.9145   -1.9664    0.0000 C   0  0  0  0  0  0  0  0  0  0  0  0
    5.5321   -2.5780    0.0000 C   0  0  0  0  0  0  0  0  0  0  0  0
   11.8139   -0.2373    0.0000 C   0  0  0  0  0  0  0  0  0  0  0  0
    2.9061   -3.1126    0.0000 C   0  0  0  0  0  0  0  0  0  0  0  0
    2.0000   -1.5572    0.0000 C   0  0  0  0  0  0  0  0  0  0  0  0
   12.9128   -1.9084    0.0000 C   0  0  0  0  0  0  0  0  0  0  0  0
    2.0000   -2.5988    0.0000 C   0  0  0  0  0  0  0  0  0  0  0  0
   12.8122   -0.1792    0.0000 C   0  0  0  0  0  0  0  0  0  0  0  0
   13.3617   -1.0148    0.0000 C   0  0  0  0  0  0  0  0  0  0  0  0
    5.4976    0.7398    0.0000 H   0  0  0  0  0  0  0  0  0  0  0  0
    6.3481    2.0618    0.0000 H   0  0  0  0  0  0  0  0  0  0  0  0
    6.1761    2.8156    0.0000 H   0  0  0  0  0  0  0  0  0  0  0  0
    5.8840    0.3222    0.0000 H   0  0  0  0  0  0  0  0  0  0  0  0
    6.6721    0.2034    0.0000 H   0  0  0  0  0  0  0  0  0  0  0  0
    5.7246    3.3817    0.0000 H   0  0  0  0  0  0  0  0  0  0  0  0
    5.0281    3.7171    0.0000 H   0  0  0  0  0  0  0  0  0  0  0  0
    3.1451    1.3559    0.0000 H   0  0  0  0  0  0  0  0  0  0  0  0
    3.6271    0.7514    0.0000 H   0  0  0  0  0  0  0  0  0  0  0  0
    7.7446    1.5080    0.0000 H   0  0  0  0  0  0  0  0  0  0  0  0
    6.9564    1.6268    0.0000 H   0  0  0  0  0  0  0  0  0  0  0  0
    4.3040    3.7171    0.0000 H   0  0  0  0  0  0  0  0  0  0  0  0
    3.6074    3.3817    0.0000 H   0  0  0  0  0  0  0  0  0  0  0  0
    3.1560    2.8156    0.0000 H   0  0  0  0  0  0  0  0  0  0  0  0
    2.9839    2.0618    0.0000 H   0  0  0  0  0  0  0  0  0  0  0  0
    7.3248   -0.3171    0.0000 H   0  0  0  0  0  0  0  0  0  0  0  0
    7.6160   -1.0591    0.0000 H   0  0  0  0  0  0  0  0  0  0  0  0
    9.4573    1.2498    0.0000 H   0  0  0  0  0  0  0  0  0  0  0  0
    8.6691    1.3686    0.0000 H   0  0  0  0  0  0  0  0  0  0  0  0
    8.2295   -1.5483    0.0000 H   0  0  0  0  0  0  0  0  0  0  0  0
    9.0176   -1.6671    0.0000 H   0  0  0  0  0  0  0  0  0  0  0  0
   10.3620    0.0186    0.0000 H   0  0  0  0  0  0  0  0  0  0  0  0
   10.0708    0.7606    0.0000 H   0  0  0  0  0  0  0  0  0  0  0  0
    6.0690   -1.2680    0.0000 H   0  0  0  0  0  0  0  0  0  0  0  0
    2.9132   -0.4234    0.0000 H   0  0  0  0  0  0  0  0  0  0  0  0
    6.0690   -2.8880    0.0000 H   0  0  0  0  0  0  0  0  0  0  0  0
   11.4733    0.2807    0.0000 H   0  0  0  0  0  0  0  0  0  0  0  0
    2.9132   -3.7326    0.0000 H   0  0  0  0  0  0  0  0  0  0  0  0
    1.4643   -1.2451    0.0000 H   0  0  0  0  0  0  0  0  0  0  0  0
   13.2535   -2.4264    0.0000 H   0  0  0  0  0  0  0  0  0  0  0  0
    1.4643   -2.9109    0.0000 H   0  0  0  0  0  0  0  0  0  0  0  0
   13.0905    0.3748    0.0000 H   0  0  0  0  0  0  0  0  0  0  0  0
   13.9806   -0.9788    0.0000 H   0  0  0  0  0  0  0  0  0  0  0  0
  1  3  2  0  0  0  0
  1  4  2  0  0  0  0
  1  5  1  0  0  0  0
  1 22  1  0  0  0  0
  2  8  1  0  0  0  0
  2 29  1  0  0  0  0
  5 10  1  0  0  0  0
  5 14  1  0  0  0  0
  6 15  1  0  0  0  0
  6 18  1  0  0  0  0
  6 19  1  0  0  0  0
  7 20  1  0  0  0  0
  7 21  1  0  0  0  0
  7 23  1  0  0  0  0
  8 23  2  0  0  0  0
  9 27  1  0  0  0  0
  9 30  2  0  0  0  0
 10 11  1  0  0  0  0
 10 12  1  1  0  0  0
 10 38  1  0  0  0  0
 11 13  1  0  0  0  0
 11 39  1  0  0  0  0
 11 40  1  0  0  0  0
 12 15  1  0  0  0  0
 12 41  1  0  0  0  0
 12 42  1  0  0  0  0
 13 16  1  0  0  0  0
 13 43  1  0  0  0  0
 13 44  1  0  0  0  0
 14 17  1  0  0  0  0
 14 45  1  0  0  0  0
 14 46  1  0  0  0  0
 15 47  1  0  0  0  0
 15 48  1  0  0  0  0
 16 17  1  0  0  0  0
 16 49  1  0  0  0  0
 16 50  1  0  0  0  0
 17 51  1  0  0  0  0
 17 52  1  0  0  0  0
 18 20  1  0  0  0  0
 18 53  1  0  0  0  0
 18 54  1  0  0  0  0
 19 21  1  0  0  0  0
 19 55  1  0  0  0  0
 19 56  1  0  0  0  0
 20 57  1  0  0  0  0
 20 58  1  0  0  0  0
 21 59  1  0  0  0  0
 21 60  1  0  0  0  0
 22 24  1  0  0  0  0
 22 25  2  0  0  0  0
 23 26  1  0  0  0  0
 24 27  1  0  0  0  0
 24 28  2  0  0  0  0
 25 30  1  0  0  0  0
 25 61  1  0  0  0  0
 26 29  1  0  0  0  0
 26 31  2  0  0  0  0
 27 32  2  0  0  0  0
 28 33  1  0  0  0  0
 28 62  1  0  0  0  0
 29 34  2  0  0  0  0
 30 63  1  0  0  0  0
 31 36  1  0  0  0  0
 31 64  1  0  0  0  0
 32 35  1  0  0  0  0
 32 65  1  0  0  0  0
 33 35  2  0  0  0  0
 33 66  1  0  0  0  0
 34 37  1  0  0  0  0
 34 67  1  0  0  0  0
 35 68  1  0  0  0  0
 36 37  2  0  0  0  0
 36 69  1  0  0  0  0
 37 70  1  0  0  0  0
M  END
> <PUBCHEM_COMPOUND_CID>
145983390

> <PUBCHEM_COMPOUND_CANONICALIZED>
1

> <PUBCHEM_CACTVS_COMPLEXITY>
846

> <PUBCHEM_CACTVS_HBOND_ACCEPTOR>
8

> <PUBCHEM_CACTVS_HBOND_DONOR>
0

> <PUBCHEM_CACTVS_ROTATABLE_BOND>
6

> <PUBCHEM_CACTVS_SUBSKEYS>
AAADcfB7sABgAAAAAAAAAAAAAAAAAWAAAAA8eIEABYAAAFix/gAAHAQAQAAADCjBXgQ98fMIEAKkAzZnZHDDgDAxAiBJ2Dg4ZJiIYOLA2ZGUIAxggALIyAcQgIAOAAAAAAAGAAAAAAAAAAwAAAAAAAAAAA==

> <PUBCHEM_IUPAC_OPENEYE_NAME>
3-[4-[2-[(2S)-1-(4-quinolylsulfonyl)azepan-2-yl]ethyl]piperazin-1-yl]-1,2-benzothiazole

> <PUBCHEM_IUPAC_CAS_NAME>
3-[4-[2-[(2S)-1-(4-quinolinylsulfonyl)-2-azepanyl]ethyl]-1-piperazinyl]-1,2-benzothiazole

> <PUBCHEM_IUPAC_NAME_MARKUP>
3-[4-[2-[(2<I>S</I>)-1-quinolin-4-ylsulfonylazepan-2-yl]ethyl]piperazin-1-yl]-1,2-benzothiazole

> <PUBCHEM_IUPAC_NAME>
3-[4-[2-[(2S)-1-quinolin-4-ylsulfonylazepan-2-yl]ethyl]piperazin-1-yl]-1,2-benzothiazole

> <PUBCHEM_IUPAC_SYSTEMATIC_NAME>
3-[4-[2-[(2S)-1-quinolin-4-ylsulfonylazepan-2-yl]ethyl]piperazin-1-yl]-1,2-benzothiazole

> <PUBCHEM_IUPAC_TRADITIONAL_NAME>
3-[4-[2-[(2S)-1-(4-quinolylsulfonyl)azepan-2-yl]ethyl]piperazino]-1,2-benzothiazole

> <PUBCHEM_IUPAC_INCHI>
InChI=1S/C28H33N5O2S2/c34-37(35,27-13-15-29-25-11-5-3-9-23(25)27)33-16-7-1-2-8-22(33)14-17-31-18-20-32(21-19-31)28-24-10-4-6-12-26(24)36-30-28/h3-6,9-13,15,22H,1-2,7-8,14,16-21H2/t22-/m0/s1

> <PUBCHEM_IUPAC_INCHIKEY>
AOWBRNQOUCDADD-QFIPXVFZSA-N

> <PUBCHEM_XLOGP3_AA>
5.3

> <PUBCHEM_EXACT_MASS>
535.20756766

> <PUBCHEM_MOLECULAR_FORMULA>
C28H33N5O2S2

> <PUBCHEM_MOLECULAR_WEIGHT>
535.7

> <PUBCHEM_OPENEYE_CAN_SMILES>
C1CCC(N(CC1)S(=O)(=O)C2=CC=NC3=CC=CC=C32)CCN4CCN(CC4)C5=NSC6=CC=CC=C65

> <PUBCHEM_OPENEYE_ISO_SMILES>
C1CC[C@H](N(CC1)S(=O)(=O)C2=CC=NC3=CC=CC=C32)CCN4CCN(CC4)C5=NSC6=CC=CC=C65

> <PUBCHEM_CACTVS_TPSA>
106

> <PUBCHEM_MONOISOTOPIC_WEIGHT>
535.20756766

> <PUBCHEM_TOTAL_CHARGE>
0

> <PUBCHEM_HEAVY_ATOM_COUNT>
37

> <PUBCHEM_ATOM_DEF_STEREO_COUNT>
1

> <PUBCHEM_ATOM_UDEF_STEREO_COUNT>
0

> <PUBCHEM_BOND_DEF_STEREO_COUNT>
0

> <PUBCHEM_BOND_UDEF_STEREO_COUNT>
0

> <PUBCHEM_ISOTOPIC_ATOM_COUNT>
0

> <PUBCHEM_COMPONENT_COUNT>
1

> <PUBCHEM_CACTVS_TAUTO_COUNT>
-1

> <PUBCHEM_COORDINATE_TYPE>
1
5
255

> <PUBCHEM_BONDANNOTATIONS>
10  12  5
2  29  8
2  8  8
22  24  8
22  25  8
23  26  8
24  27  8
24  28  8
25  30  8
26  29  8
26  31  8
27  32  8
28  33  8
29  34  8
31  36  8
32  35  8
33  35  8
34  37  8
36  37  8
8  23  8
9  27  8
9  30  8

$$$$
