5249952
  -OEChem-09292322272D

 47 50  0     1  0  0  0  0  0999 V2000
    7.1302    1.5928    0.0000 N   0  0  3  0  0  0  0  0  0  0  0  0
    4.3144   -1.0430    0.0000 N   0  0  0  0  0  0  0  0  0  0  0  0
    4.5981    1.5928    0.0000 C   0  0  3  0  0  0  0  0  0  0  0  0
    4.4244    0.6080    0.0000 C   0  0  0  0  0  0  0  0  0  0  0  0
    5.3641    2.2356    0.0000 C   0  0  0  0  0  0  0  0  0  0  0  0
    4.9244   -0.2581    0.0000 C   0  0  0  0  0  0  0  0  0  0  0  0
    5.8641   -0.6001    0.0000 C   0  0  0  0  0  0  0  0  0  0  0  0
    6.3641    2.2356    0.0000 C   0  0  0  0  0  0  0  0  0  0  0  0
    6.8038   -0.2581    0.0000 C   0  0  0  0  0  0  0  0  0  0  0  0
    7.3038    0.6080    0.0000 C   0  0  0  0  0  0  0  0  0  0  0  0
    5.8268   -1.5934    0.0000 C   0  0  0  0  0  0  0  0  0  0  0  0
    3.7320    2.0928    0.0000 C   0  0  0  0  0  0  0  0  0  0  0  0
    4.8710   -1.8666    0.0000 C   0  0  0  0  0  0  0  0  0  0  0  0
    7.9962    2.0928    0.0000 C   0  0  0  0  0  0  0  0  0  0  0  0
    6.5821   -2.3018    0.0000 C   0  0  0  0  0  0  0  0  0  0  0  0
    2.8660    1.5928    0.0000 C   0  0  0  0  0  0  0  0  0  0  0  0
    3.7320    3.0928    0.0000 C   0  0  0  0  0  0  0  0  0  0  0  0
    4.6042   -2.8671    0.0000 C   0  0  0  0  0  0  0  0  0  0  0  0
    6.3385   -3.3082    0.0000 C   0  0  0  0  0  0  0  0  0  0  0  0
    5.3429   -3.5928    0.0000 C   0  0  0  0  0  0  0  0  0  0  0  0
    2.0000    2.0928    0.0000 C   0  0  0  0  0  0  0  0  0  0  0  0
    2.8660    3.5928    0.0000 C   0  0  0  0  0  0  0  0  0  0  0  0
    2.0000    3.0928    0.0000 C   0  0  0  0  0  0  0  0  0  0  0  0
    4.0362    1.3308    0.0000 H   0  0  0  0  0  0  0  0  0  0  0  0
    3.8704    0.8862    0.0000 H   0  0  0  0  0  0  0  0  0  0  0  0
    3.9990    0.1570    0.0000 H   0  0  0  0  0  0  0  0  0  0  0  0
    5.5419    2.8295    0.0000 H   0  0  0  0  0  0  0  0  0  0  0  0
    4.8461    2.5763    0.0000 H   0  0  0  0  0  0  0  0  0  0  0  0
    6.8821    2.5763    0.0000 H   0  0  0  0  0  0  0  0  0  0  0  0
    6.1863    2.8295    0.0000 H   0  0  0  0  0  0  0  0  0  0  0  0
    6.8399   -0.8770    0.0000 H   0  0  0  0  0  0  0  0  0  0  0  0
    7.4071   -0.4010    0.0000 H   0  0  0  0  0  0  0  0  0  0  0  0
    7.7293    0.1570    0.0000 H   0  0  0  0  0  0  0  0  0  0  0  0
    7.8579    0.8862    0.0000 H   0  0  0  0  0  0  0  0  0  0  0  0
    3.6948   -1.0224    0.0000 H   0  0  0  0  0  0  0  0  0  0  0  0
    8.3062    1.5558    0.0000 H   0  0  0  0  0  0  0  0  0  0  0  0
    8.5331    2.4028    0.0000 H   0  0  0  0  0  0  0  0  0  0  0  0
    7.6862    2.6297    0.0000 H   0  0  0  0  0  0  0  0  0  0  0  0
    7.1762   -2.1246    0.0000 H   0  0  0  0  0  0  0  0  0  0  0  0
    2.8660    0.9728    0.0000 H   0  0  0  0  0  0  0  0  0  0  0  0
    4.2690    3.4028    0.0000 H   0  0  0  0  0  0  0  0  0  0  0  0
    4.0062   -3.0306    0.0000 H   0  0  0  0  0  0  0  0  0  0  0  0
    6.7857   -3.7376    0.0000 H   0  0  0  0  0  0  0  0  0  0  0  0
    5.1900   -4.1936    0.0000 H   0  0  0  0  0  0  0  0  0  0  0  0
    1.4631    1.7828    0.0000 H   0  0  0  0  0  0  0  0  0  0  0  0
    2.8660    4.2128    0.0000 H   0  0  0  0  0  0  0  0  0  0  0  0
    1.4631    3.4028    0.0000 H   0  0  0  0  0  0  0  0  0  0  0  0
  1  8  1  0  0  0  0
  1 10  1  0  0  0  0
  1 14  1  0  0  0  0
  2  6  1  0  0  0  0
  2 13  1  0  0  0  0
  2 35  1  0  0  0  0
  3  4  1  0  0  0  0
  3  5  1  0  0  0  0
  3 12  1  0  0  0  0
  3 24  1  0  0  0  0
  4  6  1  0  0  0  0
  4 25  1  0  0  0  0
  4 26  1  0  0  0  0
  5  8  1  0  0  0  0
  5 27  1  0  0  0  0
  5 28  1  0  0  0  0
  6  7  2  0  0  0  0
  7  9  1  0  0  0  0
  7 11  1  0  0  0  0
  8 29  1  0  0  0  0
  8 30  1  0  0  0  0
  9 10  1  0  0  0  0
  9 31  1  0  0  0  0
  9 32  1  0  0  0  0
 10 33  1  0  0  0  0
 10 34  1  0  0  0  0
 11 13  1  0  0  0  0
 11 15  2  0  0  0  0
 12 16  2  0  0  0  0
 12 17  1  0  0  0  0
 13 18  2  0  0  0  0
 14 36  1  0  0  0  0
 14 37  1  0  0  0  0
 14 38  1  0  0  0  0
 15 19  1  0  0  0  0
 15 39  1  0  0  0  0
 16 21  1  0  0  0  0
 16 40  1  0  0  0  0
 17 22  2  0  0  0  0
 17 41  1  0  0  0  0
 18 20  1  0  0  0  0
 18 42  1  0  0  0  0
 19 20  2  0  0  0  0
 19 43  1  0  0  0  0
 20 44  1  0  0  0  0
 21 23  2  0  0  0  0
 21 45  1  0  0  0  0
 22 23  1  0  0  0  0
 22 46  1  0  0  0  0
 23 47  1  0  0  0  0
M  END
> <PUBCHEM_COMPOUND_CID>
5249952

> <PUBCHEM_COMPOUND_CANONICALIZED>
1

> <PUBCHEM_CACTVS_COMPLEXITY>
376

> <PUBCHEM_CACTVS_HBOND_ACCEPTOR>
1

> <PUBCHEM_CACTVS_HBOND_DONOR>
1

> <PUBCHEM_CACTVS_ROTATABLE_BOND>
1

> <PUBCHEM_CACTVS_SUBSKEYS>
AAADceB7AAAAAAAAAAAAAAAAAAAAAWAAAAAwYAAAAAAAAFgB9AAAHAAQAAAADQjBHgQywPPJkACgAyRiRACCgCAhAiAImSA4ZJgIIOLAkZGEIAhgkADIyAcQgMAOgAAAAAACAAAAAAAAAAQAAAAAAAAAAA==

> <PUBCHEM_IUPAC_OPENEYE_NAME>
3-methyl-6-phenyl-2,4,5,6,7,8-hexahydro-1H-azonino[5,4-b]indole

> <PUBCHEM_IUPAC_CAS_NAME>
3-methyl-6-phenyl-2,4,5,6,7,8-hexahydro-1H-azonino[5,4-b]indole

> <PUBCHEM_IUPAC_NAME_MARKUP>
3-methyl-6-phenyl-2,4,5,6,7,8-hexahydro-1<I>H</I>-azonino[5,4-b]indole

> <PUBCHEM_IUPAC_NAME>
3-methyl-6-phenyl-2,4,5,6,7,8-hexahydro-1H-azonino[5,4-b]indole

> <PUBCHEM_IUPAC_SYSTEMATIC_NAME>
3-methyl-6-phenyl-2,4,5,6,7,8-hexahydro-1H-azonino[5,4-b]indole

> <PUBCHEM_IUPAC_TRADITIONAL_NAME>
3-methyl-6-phenyl-2,4,5,6,7,8-hexahydro-1H-azonin[5,4-b]indole

> <PUBCHEM_IUPAC_INCHI>
InChI=1S/C21H24N2/c1-23-13-11-17(16-7-3-2-4-8-16)15-21-19(12-14-23)18-9-5-6-10-20(18)22-21/h2-10,17,22H,11-15H2,1H3

> <PUBCHEM_IUPAC_INCHIKEY>
MEHMCAALFDXXGP-UHFFFAOYSA-N

> <PUBCHEM_XLOGP3_AA>
4.5

> <PUBCHEM_EXACT_MASS>
304.193948774

> <PUBCHEM_MOLECULAR_FORMULA>
C21H24N2

> <PUBCHEM_MOLECULAR_WEIGHT>
304.4

> <PUBCHEM_OPENEYE_CAN_SMILES>
CN1CCC(CC2=C(CC1)C3=CC=CC=C3N2)C4=CC=CC=C4

> <PUBCHEM_OPENEYE_ISO_SMILES>
CN1CCC(CC2=C(CC1)C3=CC=CC=C3N2)C4=CC=CC=C4

> <PUBCHEM_CACTVS_TPSA>
19

> <PUBCHEM_MONOISOTOPIC_WEIGHT>
304.193948774

> <PUBCHEM_TOTAL_CHARGE>
0

> <PUBCHEM_HEAVY_ATOM_COUNT>
23

> <PUBCHEM_ATOM_DEF_STEREO_COUNT>
0

> <PUBCHEM_ATOM_UDEF_STEREO_COUNT>
1

> <PUBCHEM_BOND_DEF_STEREO_COUNT>
0

> <PUBCHEM_BOND_UDEF_STEREO_COUNT>
0

> <PUBCHEM_ISOTOPIC_ATOM_COUNT>
0

> <PUBCHEM_COMPONENT_COUNT>
1

> <PUBCHEM_CACTVS_TAUTO_COUNT>
-1

> <PUBCHEM_COORDINATE_TYPE>
1
5
255

> <PUBCHEM_BONDANNOTATIONS>
11  13  8
11  15  8
12  16  8
12  17  8
13  18  8
15  19  8
16  21  8
17  22  8
18  20  8
19  20  8
2  13  8
2  6  8
21  23  8
22  23  8
3  12  3
6  7  8
7  11  8

$$$$
