71451457
  -OEChem-09292322332D

 52 54  0     1  0  0  0  0  0999 V2000
    3.8968   -0.3465    0.0000 S   0  0  0  0  0  0  0  0  0  0  0  0
    3.6180   -2.1066    0.0000 S   0  0  0  0  0  0  0  0  0  0  0  0
    9.6599    1.1944    0.0000 O   0  0  0  0  0  0  0  0  0  0  0  0
    3.0878    0.2413    0.0000 O   0  0  0  0  0  0  0  0  0  0  0  0
    4.7058   -0.9343    0.0000 O   0  0  0  0  0  0  0  0  0  0  0  0
    7.0618    0.6944    0.0000 N   0  0  3  0  0  0  0  0  0  0  0  0
    4.4846    0.4625    0.0000 N   0  0  0  0  0  0  0  0  0  0  0  0
    5.4791    0.3580    0.0000 C   0  0  3  0  0  0  0  0  0  0  0  0
    6.1482    1.1011    0.0000 C   0  0  0  0  0  0  0  0  0  0  0  0
    5.9791   -0.5081    0.0000 C   0  0  0  0  0  0  0  0  0  0  0  0
    6.9573   -0.3001    0.0000 C   0  0  0  0  0  0  0  0  0  0  0  0
    7.9278    1.1944    0.0000 C   0  0  0  0  0  0  0  0  0  0  0  0
    8.7938    0.6944    0.0000 C   0  0  0  0  0  0  0  0  0  0  0  0
    3.3090   -1.1555    0.0000 C   0  0  0  0  0  0  0  0  0  0  0  0
   10.5259    0.6944    0.0000 C   0  0  0  0  0  0  0  0  0  0  0  0
   11.3919    1.1944    0.0000 C   0  0  0  0  0  0  0  0  0  0  0  0
   11.3919    2.1944    0.0000 C   0  0  0  0  0  0  0  0  0  0  0  0
    2.3090   -1.1555    0.0000 C   0  0  0  0  0  0  0  0  0  0  0  0
   10.5259   -0.3056    0.0000 C   0  0  0  0  0  0  0  0  0  0  0  0
   12.2579    0.6944    0.0000 C   0  0  0  0  0  0  0  0  0  0  0  0
   12.2579    2.6944    0.0000 C   0  0  0  0  0  0  0  0  0  0  0  0
   10.5259    2.6944    0.0000 C   0  0  0  0  0  0  0  0  0  0  0  0
    2.0000   -2.1066    0.0000 C   0  0  0  0  0  0  0  0  0  0  0  0
    2.8090   -2.6944    0.0000 C   0  0  0  0  0  0  0  0  0  0  0  0
   11.3919   -0.8056    0.0000 C   0  0  0  0  0  0  0  0  0  0  0  0
   12.2579   -0.3056    0.0000 C   0  0  0  0  0  0  0  0  0  0  0  0
    5.2569    0.9368    0.0000 H   0  0  0  0  0  0  0  0  0  0  0  0
    6.4582    1.6380    0.0000 H   0  0  0  0  0  0  0  0  0  0  0  0
    5.6466    1.4655    0.0000 H   0  0  0  0  0  0  0  0  0  0  0  0
    5.4127   -0.7602    0.0000 H   0  0  0  0  0  0  0  0  0  0  0  0
    6.1707   -1.0977    0.0000 H   0  0  0  0  0  0  0  0  0  0  0  0
    7.0221   -0.9167    0.0000 H   0  0  0  0  0  0  0  0  0  0  0  0
    7.5773   -0.3001    0.0000 H   0  0  0  0  0  0  0  0  0  0  0  0
    8.3263    1.6693    0.0000 H   0  0  0  0  0  0  0  0  0  0  0  0
    7.5293    1.6693    0.0000 H   0  0  0  0  0  0  0  0  0  0  0  0
    4.2324    1.0289    0.0000 H   0  0  0  0  0  0  0  0  0  0  0  0
    8.3953    0.2194    0.0000 H   0  0  0  0  0  0  0  0  0  0  0  0
    9.1924    0.2194    0.0000 H   0  0  0  0  0  0  0  0  0  0  0  0
   11.9288    1.8844    0.0000 H   0  0  0  0  0  0  0  0  0  0  0  0
    1.9446   -0.6539    0.0000 H   0  0  0  0  0  0  0  0  0  0  0  0
    9.9890   -0.6156    0.0000 H   0  0  0  0  0  0  0  0  0  0  0  0
   12.7949    1.0044    0.0000 H   0  0  0  0  0  0  0  0  0  0  0  0
   12.5679    2.1574    0.0000 H   0  0  0  0  0  0  0  0  0  0  0  0
   12.7949    3.0044    0.0000 H   0  0  0  0  0  0  0  0  0  0  0  0
   11.9479    3.2313    0.0000 H   0  0  0  0  0  0  0  0  0  0  0  0
   10.8359    3.2313    0.0000 H   0  0  0  0  0  0  0  0  0  0  0  0
    9.9890    3.0044    0.0000 H   0  0  0  0  0  0  0  0  0  0  0  0
   10.2159    2.1574    0.0000 H   0  0  0  0  0  0  0  0  0  0  0  0
    1.4103   -2.2982    0.0000 H   0  0  0  0  0  0  0  0  0  0  0  0
    2.8090   -3.3144    0.0000 H   0  0  0  0  0  0  0  0  0  0  0  0
   11.3919   -1.4256    0.0000 H   0  0  0  0  0  0  0  0  0  0  0  0
   12.7949   -0.6156    0.0000 H   0  0  0  0  0  0  0  0  0  0  0  0
  1  4  2  0  0  0  0
  1  5  2  0  0  0  0
  1  7  1  0  0  0  0
  1 14  1  0  0  0  0
  2 14  1  0  0  0  0
  2 24  1  0  0  0  0
  3 13  1  0  0  0  0
  3 15  1  0  0  0  0
  6  9  1  0  0  0  0
  6 11  1  0  0  0  0
  6 12  1  0  0  0  0
  7  8  1  0  0  0  0
  7 36  1  0  0  0  0
  8  9  1  0  0  0  0
  8 10  1  0  0  0  0
  8 27  1  0  0  0  0
  9 28  1  0  0  0  0
  9 29  1  0  0  0  0
 10 11  1  0  0  0  0
 10 30  1  0  0  0  0
 10 31  1  0  0  0  0
 11 32  1  0  0  0  0
 11 33  1  0  0  0  0
 12 13  1  0  0  0  0
 12 34  1  0  0  0  0
 12 35  1  0  0  0  0
 13 37  1  0  0  0  0
 13 38  1  0  0  0  0
 14 18  2  0  0  0  0
 15 16  1  0  0  0  0
 15 19  2  0  0  0  0
 16 17  1  0  0  0  0
 16 20  2  0  0  0  0
 17 21  1  0  0  0  0
 17 22  1  0  0  0  0
 17 39  1  0  0  0  0
 18 23  1  0  0  0  0
 18 40  1  0  0  0  0
 19 25  1  0  0  0  0
 19 41  1  0  0  0  0
 20 26  1  0  0  0  0
 20 42  1  0  0  0  0
 21 43  1  0  0  0  0
 21 44  1  0  0  0  0
 21 45  1  0  0  0  0
 22 46  1  0  0  0  0
 22 47  1  0  0  0  0
 22 48  1  0  0  0  0
 23 24  2  0  0  0  0
 23 49  1  0  0  0  0
 24 50  1  0  0  0  0
 25 26  2  0  0  0  0
 25 51  1  0  0  0  0
 26 52  1  0  0  0  0
M  END
> <PUBCHEM_COMPOUND_CID>
71451457

> <PUBCHEM_COMPOUND_CANONICALIZED>
1

> <PUBCHEM_CACTVS_COMPLEXITY>
535

> <PUBCHEM_CACTVS_HBOND_ACCEPTOR>
6

> <PUBCHEM_CACTVS_HBOND_DONOR>
1

> <PUBCHEM_CACTVS_ROTATABLE_BOND>
8

> <PUBCHEM_CACTVS_SUBSKEYS>
AAADceB7MABgAAAAAAAAAAAAAAAAAWJAAAAwAAAAAAAAAAABwAAAHgQQQAAADSzl2AayB4NABAqEAiBCAHBDCZAgKBBIiJgOCIgOZiKk8RqXOCCk0BG4qAeAwOAOgAAAAAAIAAAAAAAAABAAAAAAAAAAAA==

> <PUBCHEM_IUPAC_OPENEYE_NAME>
N-[1-[2-(2-isopropylphenoxy)ethyl]pyrrolidin-3-yl]thiophene-2-sulfonamide

> <PUBCHEM_IUPAC_CAS_NAME>
N-[1-[2-(2-propan-2-ylphenoxy)ethyl]-3-pyrrolidinyl]-2-thiophenesulfonamide

> <PUBCHEM_IUPAC_NAME_MARKUP>
<I>N</I>-[1-[2-(2-propan-2-ylphenoxy)ethyl]pyrrolidin-3-yl]thiophene-2-sulfonamide

> <PUBCHEM_IUPAC_NAME>
N-[1-[2-(2-propan-2-ylphenoxy)ethyl]pyrrolidin-3-yl]thiophene-2-sulfonamide

> <PUBCHEM_IUPAC_SYSTEMATIC_NAME>
N-[1-[2-(2-propan-2-ylphenoxy)ethyl]pyrrolidin-3-yl]thiophene-2-sulfonamide

> <PUBCHEM_IUPAC_TRADITIONAL_NAME>
N-[1-[2-(2-isopropylphenoxy)ethyl]pyrrolidin-3-yl]thiophene-2-sulfonamide

> <PUBCHEM_IUPAC_INCHI>
InChI=1S/C19H26N2O3S2/c1-15(2)17-6-3-4-7-18(17)24-12-11-21-10-9-16(14-21)20-26(22,23)19-8-5-13-25-19/h3-8,13,15-16,20H,9-12,14H2,1-2H3

> <PUBCHEM_IUPAC_INCHIKEY>
WPIIXBCOJALRHJ-UHFFFAOYSA-N

> <PUBCHEM_XLOGP3_AA>
3.9

> <PUBCHEM_EXACT_MASS>
394.13848504

> <PUBCHEM_MOLECULAR_FORMULA>
C19H26N2O3S2

> <PUBCHEM_MOLECULAR_WEIGHT>
394.6

> <PUBCHEM_OPENEYE_CAN_SMILES>
CC(C)C1=CC=CC=C1OCCN2CCC(C2)NS(=O)(=O)C3=CC=CS3

> <PUBCHEM_OPENEYE_ISO_SMILES>
CC(C)C1=CC=CC=C1OCCN2CCC(C2)NS(=O)(=O)C3=CC=CS3

> <PUBCHEM_CACTVS_TPSA>
95.3

> <PUBCHEM_MONOISOTOPIC_WEIGHT>
394.13848504

> <PUBCHEM_TOTAL_CHARGE>
0

> <PUBCHEM_HEAVY_ATOM_COUNT>
26

> <PUBCHEM_ATOM_DEF_STEREO_COUNT>
0

> <PUBCHEM_ATOM_UDEF_STEREO_COUNT>
1

> <PUBCHEM_BOND_DEF_STEREO_COUNT>
0

> <PUBCHEM_BOND_UDEF_STEREO_COUNT>
0

> <PUBCHEM_ISOTOPIC_ATOM_COUNT>
0

> <PUBCHEM_COMPONENT_COUNT>
1

> <PUBCHEM_CACTVS_TAUTO_COUNT>
-1

> <PUBCHEM_COORDINATE_TYPE>
1
5
255

> <PUBCHEM_BONDANNOTATIONS>
14  18  8
15  16  8
15  19  8
16  20  8
18  23  8
19  25  8
2  14  8
2  24  8
20  26  8
23  24  8
25  26  8
8  7  3

$$$$
