13994412
  -OEChem-09292322132D

 39 42  0     1  0  0  0  0  0999 V2000
    2.9176    1.7484    0.0000 O   0  0  0  0  0  0  0  0  0  0  0  0
    6.3903   -1.2831    0.0000 N   0  0  3  0  0  0  0  0  0  0  0  0
    5.5321   -0.7862    0.0000 C   0  0  1  0  0  0  0  0  0  0  0  0
    5.5321    0.2138    0.0000 C   0  0  0  0  0  0  0  0  0  0  0  0
    4.6660   -1.2862    0.0000 C   0  0  0  0  0  0  0  0  0  0  0  0
    6.4421    0.7207    0.0000 C   0  0  0  0  0  0  0  0  0  0  0  0
    7.2558   -0.7989    0.0000 C   0  0  0  0  0  0  0  0  0  0  0  0
    7.2814    0.1924    0.0000 C   0  0  0  0  0  0  0  0  0  0  0  0
    4.6660    0.7138    0.0000 C   0  0  0  0  0  0  0  0  0  0  0  0
    3.8000   -0.7862    0.0000 C   0  0  0  0  0  0  0  0  0  0  0  0
    3.8000    0.2138    0.0000 C   0  0  0  0  0  0  0  0  0  0  0  0
    6.3829   -2.2831    0.0000 C   0  0  0  0  0  0  0  0  0  0  0  0
    6.4501    1.7623    0.0000 C   0  0  0  0  0  0  0  0  0  0  0  0
    4.6500    1.7553    0.0000 C   0  0  0  0  0  0  0  0  0  0  0  0
    2.9061    0.7485    0.0000 C   0  0  0  0  0  0  0  0  0  0  0  0
    2.9061   -1.3208    0.0000 C   0  0  0  0  0  0  0  0  0  0  0  0
    5.5480    2.2831    0.0000 C   0  0  0  0  0  0  0  0  0  0  0  0
    2.0000    0.2346    0.0000 C   0  0  0  0  0  0  0  0  0  0  0  0
    2.0000   -0.8070    0.0000 C   0  0  0  0  0  0  0  0  0  0  0  0
    2.0574    2.2584    0.0000 C   0  0  0  0  0  0  0  0  0  0  0  0
    5.5315   -1.6362    0.0000 H   0  0  0  0  0  0  0  0  0  0  0  0
    4.2675   -1.7611    0.0000 H   0  0  0  0  0  0  0  0  0  0  0  0
    5.0646   -1.7611    0.0000 H   0  0  0  0  0  0  0  0  0  0  0  0
    7.4575   -1.3852    0.0000 H   0  0  0  0  0  0  0  0  0  0  0  0
    7.8685   -0.7046    0.0000 H   0  0  0  0  0  0  0  0  0  0  0  0
    7.8885    0.0665    0.0000 H   0  0  0  0  0  0  0  0  0  0  0  0
    7.5131    0.7675    0.0000 H   0  0  0  0  0  0  0  0  0  0  0  0
    5.7629   -2.2785    0.0000 H   0  0  0  0  0  0  0  0  0  0  0  0
    6.3783   -2.9031    0.0000 H   0  0  0  0  0  0  0  0  0  0  0  0
    7.0029   -2.2877    0.0000 H   0  0  0  0  0  0  0  0  0  0  0  0
    6.9882    2.0702    0.0000 H   0  0  0  0  0  0  0  0  0  0  0  0
    4.1095    2.0591    0.0000 H   0  0  0  0  0  0  0  0  0  0  0  0
    2.9132   -1.9408    0.0000 H   0  0  0  0  0  0  0  0  0  0  0  0
    5.5456    2.9031    0.0000 H   0  0  0  0  0  0  0  0  0  0  0  0
    1.4643    0.5467    0.0000 H   0  0  0  0  0  0  0  0  0  0  0  0
    1.4643   -1.1191    0.0000 H   0  0  0  0  0  0  0  0  0  0  0  0
    2.3736    2.7917    0.0000 H   0  0  0  0  0  0  0  0  0  0  0  0
    1.5241    2.5746    0.0000 H   0  0  0  0  0  0  0  0  0  0  0  0
    1.7413    1.7251    0.0000 H   0  0  0  0  0  0  0  0  0  0  0  0
  1 15  1  0  0  0  0
  1 20  1  0  0  0  0
  2  3  1  0  0  0  0
  2  7  1  0  0  0  0
  2 12  1  0  0  0  0
  3  4  1  0  0  0  0
  3  5  1  0  0  0  0
  3 21  1  1  0  0  0
  4  6  2  0  0  0  0
  4  9  1  0  0  0  0
  5 10  1  0  0  0  0
  5 22  1  0  0  0  0
  5 23  1  0  0  0  0
  6  8  1  0  0  0  0
  6 13  1  0  0  0  0
  7  8  1  0  0  0  0
  7 24  1  0  0  0  0
  7 25  1  0  0  0  0
  8 26  1  0  0  0  0
  8 27  1  0  0  0  0
  9 11  1  0  0  0  0
  9 14  2  0  0  0  0
 10 11  2  0  0  0  0
 10 16  1  0  0  0  0
 11 15  1  0  0  0  0
 12 28  1  0  0  0  0
 12 29  1  0  0  0  0
 12 30  1  0  0  0  0
 13 17  2  0  0  0  0
 13 31  1  0  0  0  0
 14 17  1  0  0  0  0
 14 32  1  0  0  0  0
 15 18  2  0  0  0  0
 16 19  2  0  0  0  0
 16 33  1  0  0  0  0
 17 34  1  0  0  0  0
 18 19  1  0  0  0  0
 18 35  1  0  0  0  0
 19 36  1  0  0  0  0
 20 37  1  0  0  0  0
 20 38  1  0  0  0  0
 20 39  1  0  0  0  0
M  END
> <PUBCHEM_COMPOUND_CID>
13994412

> <PUBCHEM_COMPOUND_CANONICALIZED>
1

> <PUBCHEM_CACTVS_COMPLEXITY>
357

> <PUBCHEM_CACTVS_HBOND_ACCEPTOR>
2

> <PUBCHEM_CACTVS_HBOND_DONOR>
0

> <PUBCHEM_CACTVS_ROTATABLE_BOND>
1

> <PUBCHEM_CACTVS_SUBSKEYS>
AAADceB6IAAAAAAAAAAAAAAAAAAAAAAAAAA8YMEAAAAAAADxQAAAHgAAAAAADCzBmAYyBoMABACAAiBCAACCCAAgIAAIiAAODIgMJiKEsRuEMChkwBGIqAeQ0PMOgAADAAAYAACQAAaAADQAAAAAAAAAAA==

> <PUBCHEM_IUPAC_OPENEYE_NAME>
(6aR)-11-methoxy-6-methyl-5,6,6a,7-tetrahydro-4H-dibenzo[de,g]quinoline

> <PUBCHEM_IUPAC_CAS_NAME>
(6aR)-11-methoxy-6-methyl-5,6,6a,7-tetrahydro-4H-dibenzo[de,g]quinoline

> <PUBCHEM_IUPAC_NAME_MARKUP>
(6<I>a</I><I>R</I>)-11-methoxy-6-methyl-5,6,6<I>a</I>,7-tetrahydro-4<I>H</I>-dibenzo[de,g]quinoline

> <PUBCHEM_IUPAC_NAME>
(6aR)-11-methoxy-6-methyl-5,6,6a,7-tetrahydro-4H-dibenzo[de,g]quinoline

> <PUBCHEM_IUPAC_SYSTEMATIC_NAME>
(6aR)-11-methoxy-6-methyl-5,6,6a,7-tetrahydro-4H-dibenzo[de,g]quinoline

> <PUBCHEM_IUPAC_TRADITIONAL_NAME>
(6aR)-11-methoxy-6-methyl-5,6,6a,7-tetrahydro-4H-dibenzo[de,g]quinoline

> <PUBCHEM_IUPAC_INCHI>
InChI=1S/C18H19NO/c1-19-10-9-12-5-3-7-14-17(12)15(19)11-13-6-4-8-16(20-2)18(13)14/h3-8,15H,9-11H2,1-2H3/t15-/m1/s1

> <PUBCHEM_IUPAC_INCHIKEY>
HJSGUUPPOBQDHU-OAHLLOKOSA-N

> <PUBCHEM_XLOGP3>
3

> <PUBCHEM_EXACT_MASS>
265.146664230

> <PUBCHEM_MOLECULAR_FORMULA>
C18H19NO

> <PUBCHEM_MOLECULAR_WEIGHT>
265.3

> <PUBCHEM_OPENEYE_CAN_SMILES>
CN1CCC2=C3C1CC4=C(C3=CC=C2)C(=CC=C4)OC

> <PUBCHEM_OPENEYE_ISO_SMILES>
CN1CCC2=C3[C@H]1CC4=C(C3=CC=C2)C(=CC=C4)OC

> <PUBCHEM_CACTVS_TPSA>
12.5

> <PUBCHEM_MONOISOTOPIC_WEIGHT>
265.146664230

> <PUBCHEM_TOTAL_CHARGE>
0

> <PUBCHEM_HEAVY_ATOM_COUNT>
20

> <PUBCHEM_ATOM_DEF_STEREO_COUNT>
1

> <PUBCHEM_ATOM_UDEF_STEREO_COUNT>
0

> <PUBCHEM_BOND_DEF_STEREO_COUNT>
0

> <PUBCHEM_BOND_UDEF_STEREO_COUNT>
0

> <PUBCHEM_ISOTOPIC_ATOM_COUNT>
0

> <PUBCHEM_COMPONENT_COUNT>
1

> <PUBCHEM_CACTVS_TAUTO_COUNT>
-1

> <PUBCHEM_COORDINATE_TYPE>
1
5
255

> <PUBCHEM_BONDANNOTATIONS>
10  11  8
10  16  8
11  15  8
13  17  8
14  17  8
15  18  8
16  19  8
18  19  8
3  21  5
4  6  8
4  9  8
6  13  8
9  14  8

$$$$
