164619127
  -OEChem-09292322012D

 59 62  0     1  0  0  0  0  0999 V2000
    2.8834   -2.2963    0.0000 Cl  0  0  0  0  0  0  0  0  0  0  0  0
    2.8680    1.7036    0.0000 O   0  0  0  0  0  0  0  0  0  0  0  0
   11.6679    0.2375    0.0000 O   0  0  0  0  0  0  0  0  0  0  0  0
   16.9301    0.2617    0.0000 O   0  0  0  0  0  0  0  0  0  0  0  0
    7.3359    0.7208    0.0000 N   0  0  0  0  0  0  0  0  0  0  0  0
   15.1980    0.2617    0.0000 N   0  0  0  0  0  0  0  0  0  0  0  0
    5.6038    0.7142    0.0000 C   0  0  2  0  0  0  0  0  0  0  0  0
    4.6038    0.7103    0.0000 C   0  0  2  0  0  0  0  0  0  0  0  0
    5.1005    1.5783    0.0000 C   0  0  0  0  0  0  0  0  0  0  0  0
    6.4718    0.2175    0.0000 C   0  0  0  0  0  0  0  0  0  0  0  0
    3.7398    0.2070    0.0000 C   0  0  0  0  0  0  0  0  0  0  0  0
    2.8718    0.7036    0.0000 C   0  0  0  0  0  0  0  0  0  0  0  0
    3.7436   -0.7930    0.0000 C   0  0  0  0  0  0  0  0  0  0  0  0
    8.2038    0.2242    0.0000 C   0  0  0  0  0  0  0  0  0  0  0  0
    2.0077    0.2003    0.0000 C   0  0  0  0  0  0  0  0  0  0  0  0
    2.8795   -1.2963    0.0000 C   0  0  0  0  0  0  0  0  0  0  0  0
    9.0679    0.7275    0.0000 C   0  0  0  0  0  0  0  0  0  0  0  0
    2.0116   -0.7997    0.0000 C   0  0  0  0  0  0  0  0  0  0  0  0
    9.9358    0.2309    0.0000 C   0  0  0  0  0  0  0  0  0  0  0  0
    2.0000    2.2003    0.0000 C   0  0  0  0  0  0  0  0  0  0  0  0
   10.7999    0.7342    0.0000 C   0  0  0  0  0  0  0  0  0  0  0  0
   12.5320    0.7409    0.0000 C   0  0  0  0  0  0  0  0  0  0  0  0
   14.3320    1.7617    0.0000 C   0  0  0  0  0  0  0  0  0  0  0  0
   15.1980    2.2617    0.0000 C   0  0  0  0  0  0  0  0  0  0  0  0
   14.3320    0.7617    0.0000 C   0  0  0  0  0  0  0  0  0  0  0  0
   16.0640    1.7617    0.0000 C   0  0  0  0  0  0  0  0  0  0  0  0
   13.4381    0.2270    0.0000 C   0  0  0  0  0  0  0  0  0  0  0  0
   13.4381    2.2963    0.0000 C   0  0  0  0  0  0  0  0  0  0  0  0
   12.5320    1.7825    0.0000 C   0  0  0  0  0  0  0  0  0  0  0  0
   16.0640    0.7617    0.0000 C   0  0  0  0  0  0  0  0  0  0  0  0
    6.0405    1.1543    0.0000 H   0  0  0  0  0  0  0  0  0  0  0  0
    4.0005    1.3090    0.0000 H   0  0  0  0  0  0  0  0  0  0  0  0
    5.5739    1.9786    0.0000 H   0  0  0  0  0  0  0  0  0  0  0  0
    4.6240    1.9750    0.0000 H   0  0  0  0  0  0  0  0  0  0  0  0
    6.0751   -0.2590    0.0000 H   0  0  0  0  0  0  0  0  0  0  0  0
    6.8721   -0.2559    0.0000 H   0  0  0  0  0  0  0  0  0  0  0  0
    7.3335    1.3408    0.0000 H   0  0  0  0  0  0  0  0  0  0  0  0
    4.2817   -1.1010    0.0000 H   0  0  0  0  0  0  0  0  0  0  0  0
    7.8071   -0.2523    0.0000 H   0  0  0  0  0  0  0  0  0  0  0  0
    8.6042   -0.2492    0.0000 H   0  0  0  0  0  0  0  0  0  0  0  0
    1.4696    0.5082    0.0000 H   0  0  0  0  0  0  0  0  0  0  0  0
    9.4646    1.2040    0.0000 H   0  0  0  0  0  0  0  0  0  0  0  0
    8.6676    1.2009    0.0000 H   0  0  0  0  0  0  0  0  0  0  0  0
    1.4758   -1.1118    0.0000 H   0  0  0  0  0  0  0  0  0  0  0  0
    9.5392   -0.2456    0.0000 H   0  0  0  0  0  0  0  0  0  0  0  0
   10.3362   -0.2426    0.0000 H   0  0  0  0  0  0  0  0  0  0  0  0
    2.3079    2.7384    0.0000 H   0  0  0  0  0  0  0  0  0  0  0  0
    1.4619    2.5082    0.0000 H   0  0  0  0  0  0  0  0  0  0  0  0
    1.6921    1.6622    0.0000 H   0  0  0  0  0  0  0  0  0  0  0  0
   11.1966    1.2107    0.0000 H   0  0  0  0  0  0  0  0  0  0  0  0
   10.3996    1.2076    0.0000 H   0  0  0  0  0  0  0  0  0  0  0  0
   15.5965    2.7366    0.0000 H   0  0  0  0  0  0  0  0  0  0  0  0
   14.7995    2.7366    0.0000 H   0  0  0  0  0  0  0  0  0  0  0  0
   16.6746    1.6540    0.0000 H   0  0  0  0  0  0  0  0  0  0  0  0
   16.2761    2.3443    0.0000 H   0  0  0  0  0  0  0  0  0  0  0  0
   13.4452   -0.3929    0.0000 H   0  0  0  0  0  0  0  0  0  0  0  0
   13.4452    2.9163    0.0000 H   0  0  0  0  0  0  0  0  0  0  0  0
   11.9962    2.0946    0.0000 H   0  0  0  0  0  0  0  0  0  0  0  0
   15.1980   -0.3583    0.0000 H   0  0  0  0  0  0  0  0  0  0  0  0
  1 16  1  0  0  0  0
  2 12  1  0  0  0  0
  2 20  1  0  0  0  0
  3 21  1  0  0  0  0
  3 22  1  0  0  0  0
  4 30  2  0  0  0  0
  5 10  1  0  0  0  0
  5 14  1  0  0  0  0
  5 37  1  0  0  0  0
  6 25  1  0  0  0  0
  6 30  1  0  0  0  0
  6 59  1  0  0  0  0
  7  8  1  0  0  0  0
  7  9  1  0  0  0  0
  7 10  1  6  0  0  0
  7 31  1  0  0  0  0
  8  9  1  0  0  0  0
  8 11  1  0  0  0  0
  8 32  1  6  0  0  0
  9 33  1  0  0  0  0
  9 34  1  0  0  0  0
 10 35  1  0  0  0  0
 10 36  1  0  0  0  0
 11 12  2  0  0  0  0
 11 13  1  0  0  0  0
 12 15  1  0  0  0  0
 13 16  2  0  0  0  0
 13 38  1  0  0  0  0
 14 17  1  0  0  0  0
 14 39  1  0  0  0  0
 14 40  1  0  0  0  0
 15 18  2  0  0  0  0
 15 41  1  0  0  0  0
 16 18  1  0  0  0  0
 17 19  1  0  0  0  0
 17 42  1  0  0  0  0
 17 43  1  0  0  0  0
 18 44  1  0  0  0  0
 19 21  1  0  0  0  0
 19 45  1  0  0  0  0
 19 46  1  0  0  0  0
 20 47  1  0  0  0  0
 20 48  1  0  0  0  0
 20 49  1  0  0  0  0
 21 50  1  0  0  0  0
 21 51  1  0  0  0  0
 22 27  2  0  0  0  0
 22 29  1  0  0  0  0
 23 24  1  0  0  0  0
 23 25  2  0  0  0  0
 23 28  1  0  0  0  0
 24 26  1  0  0  0  0
 24 52  1  0  0  0  0
 24 53  1  0  0  0  0
 25 27  1  0  0  0  0
 26 30  1  0  0  0  0
 26 54  1  0  0  0  0
 26 55  1  0  0  0  0
 27 56  1  0  0  0  0
 28 29  2  0  0  0  0
 28 57  1  0  0  0  0
 29 58  1  0  0  0  0
M  END
> <PUBCHEM_COMPOUND_CID>
164619127

> <PUBCHEM_COMPOUND_CANONICALIZED>
1

> <PUBCHEM_CACTVS_COMPLEXITY>
563

> <PUBCHEM_CACTVS_HBOND_ACCEPTOR>
4

> <PUBCHEM_CACTVS_HBOND_DONOR>
2

> <PUBCHEM_CACTVS_ROTATABLE_BOND>
10

> <PUBCHEM_CACTVS_SUBSKEYS>
AAADceB7MAAEAAAAAAAAAAAAGAAAAAAAAAA8YIAAAAAAAACxQAAAHgIQAAAADQ7hmCYyxoLABACIAiVSUACCCAAhJwAIiIEObogMJjLFs5uGOCjm1BnI6Ae42eOeoCAAIgAKAABAQABEABQAAAAAAAAAAA==

> <PUBCHEM_IUPAC_OPENEYE_NAME>
7-[4-[[(1S,2S)-2-(5-chloro-2-methoxy-phenyl)cyclopropyl]methylamino]butoxy]-3,4-dihydro-1H-quinolin-2-one

> <PUBCHEM_IUPAC_CAS_NAME>
7-[4-[[(1S,2S)-2-(5-chloro-2-methoxyphenyl)cyclopropyl]methylamino]butoxy]-3,4-dihydro-1H-quinolin-2-one

> <PUBCHEM_IUPAC_NAME_MARKUP>
7-[4-[[(1<I>S</I>,2<I>S</I>)-2-(5-chloro-2-methoxyphenyl)cyclopropyl]methylamino]butoxy]-3,4-dihydro-1<I>H</I>-quinolin-2-one

> <PUBCHEM_IUPAC_NAME>
7-[4-[[(1S,2S)-2-(5-chloro-2-methoxyphenyl)cyclopropyl]methylamino]butoxy]-3,4-dihydro-1H-quinolin-2-one

> <PUBCHEM_IUPAC_SYSTEMATIC_NAME>
7-[4-[[(1S,2S)-2-(5-chloranyl-2-methoxy-phenyl)cyclopropyl]methylamino]butoxy]-3,4-dihydro-1H-quinolin-2-one

> <PUBCHEM_IUPAC_TRADITIONAL_NAME>
7-[4-[[(1S,2S)-2-(5-chloro-2-methoxy-phenyl)cyclopropyl]methylamino]butoxy]-3,4-dihydrocarbostyril

> <PUBCHEM_IUPAC_INCHI>
InChI=1S/C24H29ClN2O3/c1-29-23-8-6-18(25)13-21(23)20-12-17(20)15-26-10-2-3-11-30-19-7-4-16-5-9-24(28)27-22(16)14-19/h4,6-8,13-14,17,20,26H,2-3,5,9-12,15H2,1H3,(H,27,28)/t17-,20+/m1/s1

> <PUBCHEM_IUPAC_INCHIKEY>
AODRELZHCYHJFT-XLIONFOSSA-N

> <PUBCHEM_XLOGP3_AA>
4.1

> <PUBCHEM_EXACT_MASS>
428.1866705

> <PUBCHEM_MOLECULAR_FORMULA>
C24H29ClN2O3

> <PUBCHEM_MOLECULAR_WEIGHT>
428.9

> <PUBCHEM_OPENEYE_CAN_SMILES>
COC1=C(C=C(C=C1)Cl)C2CC2CNCCCCOC3=CC4=C(CCC(=O)N4)C=C3

> <PUBCHEM_OPENEYE_ISO_SMILES>
COC1=C(C=C(C=C1)Cl)[C@H]2C[C@@H]2CNCCCCOC3=CC4=C(CCC(=O)N4)C=C3

> <PUBCHEM_CACTVS_TPSA>
59.6

> <PUBCHEM_MONOISOTOPIC_WEIGHT>
428.1866705

> <PUBCHEM_TOTAL_CHARGE>
0

> <PUBCHEM_HEAVY_ATOM_COUNT>
30

> <PUBCHEM_ATOM_DEF_STEREO_COUNT>
2

> <PUBCHEM_ATOM_UDEF_STEREO_COUNT>
0

> <PUBCHEM_BOND_DEF_STEREO_COUNT>
0

> <PUBCHEM_BOND_UDEF_STEREO_COUNT>
0

> <PUBCHEM_ISOTOPIC_ATOM_COUNT>
0

> <PUBCHEM_COMPONENT_COUNT>
1

> <PUBCHEM_CACTVS_TAUTO_COUNT>
-1

> <PUBCHEM_COORDINATE_TYPE>
1
5
255

> <PUBCHEM_BONDANNOTATIONS>
11  12  8
11  13  8
12  15  8
13  16  8
15  18  8
16  18  8
22  27  8
22  29  8
23  25  8
23  28  8
25  27  8
28  29  8
7  10  6
8  32  6

$$$$
