10597140
  -OEChem-09292322102D

 60 63  0     1  0  0  0  0  0999 V2000
    8.0622   -0.0173    0.0000 S   0  0  0  0  0  0  0  0  0  0  0  0
    7.0622   -0.0173    0.0000 O   0  0  0  0  0  0  0  0  0  0  0  0
    9.0622   -0.0173    0.0000 O   0  0  0  0  0  0  0  0  0  0  0  0
    8.0622   -1.0173    0.0000 N   0  0  3  0  0  0  0  0  0  0  0  0
    4.5981   -1.0173    0.0000 N   0  0  0  0  0  0  0  0  0  0  0  0
    7.1962   -1.5173    0.0000 C   0  0  1  0  0  0  0  0  0  0  0  0
    6.3301   -1.0173    0.0000 C   0  0  0  0  0  0  0  0  0  0  0  0
    7.1962   -2.5173    0.0000 C   0  0  0  0  0  0  0  0  0  0  0  0
    5.4641   -1.5173    0.0000 C   0  0  0  0  0  0  0  0  0  0  0  0
    8.0622   -3.0173    0.0000 C   0  0  0  0  0  0  0  0  0  0  0  0
    8.9282   -1.5173    0.0000 C   0  0  0  0  0  0  0  0  0  0  0  0
    8.9282   -2.5173    0.0000 C   0  0  0  0  0  0  0  0  0  0  0  0
    2.8660   -0.0173    0.0000 C   0  0  0  0  0  0  0  0  0  0  0  0
    4.5981   -0.0173    0.0000 C   0  0  0  0  0  0  0  0  0  0  0  0
    3.7320   -1.5173    0.0000 C   0  0  0  0  0  0  0  0  0  0  0  0
    3.7320    0.4827    0.0000 C   0  0  0  0  0  0  0  0  0  0  0  0
    2.8660   -1.0173    0.0000 C   0  0  0  0  0  0  0  0  0  0  0  0
    2.0000    0.4827    0.0000 C   0  0  0  0  0  0  0  0  0  0  0  0
    8.0622    0.9827    0.0000 C   0  0  0  0  0  0  0  0  0  0  0  0
    8.9282    1.4827    0.0000 C   0  0  0  0  0  0  0  0  0  0  0  0
    7.1962    1.4827    0.0000 C   0  0  0  0  0  0  0  0  0  0  0  0
    8.9282    2.4827    0.0000 C   0  0  0  0  0  0  0  0  0  0  0  0
    7.1962    2.4827    0.0000 C   0  0  0  0  0  0  0  0  0  0  0  0
    9.8222    0.9480    0.0000 C   0  0  0  0  0  0  0  0  0  0  0  0
    8.0622    2.9827    0.0000 C   0  0  0  0  0  0  0  0  0  0  0  0
    9.8222    3.0173    0.0000 C   0  0  0  0  0  0  0  0  0  0  0  0
   10.7282    1.4619    0.0000 C   0  0  0  0  0  0  0  0  0  0  0  0
   10.7282    2.5035    0.0000 C   0  0  0  0  0  0  0  0  0  0  0  0
    7.1962   -0.8973    0.0000 H   0  0  0  0  0  0  0  0  0  0  0  0
    6.7287   -0.5424    0.0000 H   0  0  0  0  0  0  0  0  0  0  0  0
    5.9316   -0.5424    0.0000 H   0  0  0  0  0  0  0  0  0  0  0  0
    6.5856   -2.4097    0.0000 H   0  0  0  0  0  0  0  0  0  0  0  0
    6.9841   -3.0999    0.0000 H   0  0  0  0  0  0  0  0  0  0  0  0
    5.0656   -1.9923    0.0000 H   0  0  0  0  0  0  0  0  0  0  0  0
    5.8626   -1.9923    0.0000 H   0  0  0  0  0  0  0  0  0  0  0  0
    7.6636   -3.4923    0.0000 H   0  0  0  0  0  0  0  0  0  0  0  0
    8.4607   -3.4923    0.0000 H   0  0  0  0  0  0  0  0  0  0  0  0
    9.5388   -1.6250    0.0000 H   0  0  0  0  0  0  0  0  0  0  0  0
    9.1403   -0.9347    0.0000 H   0  0  0  0  0  0  0  0  0  0  0  0
    9.1403   -3.0999    0.0000 H   0  0  0  0  0  0  0  0  0  0  0  0
    9.5388   -2.4097    0.0000 H   0  0  0  0  0  0  0  0  0  0  0  0
    2.8660    0.6027    0.0000 H   0  0  0  0  0  0  0  0  0  0  0  0
    5.2087   -0.1250    0.0000 H   0  0  0  0  0  0  0  0  0  0  0  0
    4.8101    0.5653    0.0000 H   0  0  0  0  0  0  0  0  0  0  0  0
    3.3335   -1.9923    0.0000 H   0  0  0  0  0  0  0  0  0  0  0  0
    4.1306   -1.9923    0.0000 H   0  0  0  0  0  0  0  0  0  0  0  0
    4.1306    0.9576    0.0000 H   0  0  0  0  0  0  0  0  0  0  0  0
    3.3335    0.9576    0.0000 H   0  0  0  0  0  0  0  0  0  0  0  0
    2.2554   -0.9097    0.0000 H   0  0  0  0  0  0  0  0  0  0  0  0
    2.6540   -1.5999    0.0000 H   0  0  0  0  0  0  0  0  0  0  0  0
    2.3100    1.0196    0.0000 H   0  0  0  0  0  0  0  0  0  0  0  0
    1.4631    0.7927    0.0000 H   0  0  0  0  0  0  0  0  0  0  0  0
    1.6900   -0.0543    0.0000 H   0  0  0  0  0  0  0  0  0  0  0  0
    6.6592    1.1727    0.0000 H   0  0  0  0  0  0  0  0  0  0  0  0
    6.6592    2.7927    0.0000 H   0  0  0  0  0  0  0  0  0  0  0  0
    9.8150    0.3280    0.0000 H   0  0  0  0  0  0  0  0  0  0  0  0
    8.0622    3.6027    0.0000 H   0  0  0  0  0  0  0  0  0  0  0  0
    9.8150    3.6373    0.0000 H   0  0  0  0  0  0  0  0  0  0  0  0
   11.2639    1.1498    0.0000 H   0  0  0  0  0  0  0  0  0  0  0  0
   11.2639    2.8156    0.0000 H   0  0  0  0  0  0  0  0  0  0  0  0
  1  2  2  0  0  0  0
  1  3  2  0  0  0  0
  1  4  1  0  0  0  0
  1 19  1  0  0  0  0
  4  6  1  0  0  0  0
  4 11  1  0  0  0  0
  5  9  1  0  0  0  0
  5 14  1  0  0  0  0
  5 15  1  0  0  0  0
  6  7  1  6  0  0  0
  6  8  1  0  0  0  0
  6 29  1  0  0  0  0
  7  9  1  0  0  0  0
  7 30  1  0  0  0  0
  7 31  1  0  0  0  0
  8 10  1  0  0  0  0
  8 32  1  0  0  0  0
  8 33  1  0  0  0  0
  9 34  1  0  0  0  0
  9 35  1  0  0  0  0
 10 12  1  0  0  0  0
 10 36  1  0  0  0  0
 10 37  1  0  0  0  0
 11 12  1  0  0  0  0
 11 38  1  0  0  0  0
 11 39  1  0  0  0  0
 12 40  1  0  0  0  0
 12 41  1  0  0  0  0
 13 16  1  0  0  0  0
 13 17  1  0  0  0  0
 13 18  1  0  0  0  0
 13 42  1  0  0  0  0
 14 16  1  0  0  0  0
 14 43  1  0  0  0  0
 14 44  1  0  0  0  0
 15 17  1  0  0  0  0
 15 45  1  0  0  0  0
 15 46  1  0  0  0  0
 16 47  1  0  0  0  0
 16 48  1  0  0  0  0
 17 49  1  0  0  0  0
 17 50  1  0  0  0  0
 18 51  1  0  0  0  0
 18 52  1  0  0  0  0
 18 53  1  0  0  0  0
 19 20  1  0  0  0  0
 19 21  2  0  0  0  0
 20 22  1  0  0  0  0
 20 24  2  0  0  0  0
 21 23  1  0  0  0  0
 21 54  1  0  0  0  0
 22 25  1  0  0  0  0
 22 26  2  0  0  0  0
 23 25  2  0  0  0  0
 23 55  1  0  0  0  0
 24 27  1  0  0  0  0
 24 56  1  0  0  0  0
 25 57  1  0  0  0  0
 26 28  1  0  0  0  0
 26 58  1  0  0  0  0
 27 28  2  0  0  0  0
 27 59  1  0  0  0  0
 28 60  1  0  0  0  0
M  END
> <PUBCHEM_COMPOUND_CID>
10597140

> <PUBCHEM_COMPOUND_CANONICALIZED>
1

> <PUBCHEM_CACTVS_COMPLEXITY>
594

> <PUBCHEM_CACTVS_HBOND_ACCEPTOR>
4

> <PUBCHEM_CACTVS_HBOND_DONOR>
0

> <PUBCHEM_CACTVS_ROTATABLE_BOND>
5

> <PUBCHEM_CACTVS_SUBSKEYS>
AAADcfB7MABAAAAAAAAAAAAAAAAAAAAAAAA8eIEAAAAAAADBUAAAHAQAQAAADSjBWAQyAcMAAAKAAiBCAHBCABAgAAAIiBgIAIgIICKA0RCEIAAggACIiAcQgIAOgAAAgAAUAAAAAAEAACgAAAAAAAAAAA==

> <PUBCHEM_IUPAC_OPENEYE_NAME>
(2R)-2-[2-(4-methyl-1-piperidyl)ethyl]-1-(1-naphthylsulfonyl)piperidine

> <PUBCHEM_IUPAC_CAS_NAME>
(2R)-2-[2-(4-methyl-1-piperidinyl)ethyl]-1-(1-naphthalenylsulfonyl)piperidine

> <PUBCHEM_IUPAC_NAME_MARKUP>
(2<I>R</I>)-2-[2-(4-methylpiperidin-1-yl)ethyl]-1-naphthalen-1-ylsulfonylpiperidine

> <PUBCHEM_IUPAC_NAME>
(2R)-2-[2-(4-methylpiperidin-1-yl)ethyl]-1-naphthalen-1-ylsulfonylpiperidine

> <PUBCHEM_IUPAC_SYSTEMATIC_NAME>
(2R)-2-[2-(4-methylpiperidin-1-yl)ethyl]-1-naphthalen-1-ylsulfonyl-piperidine

> <PUBCHEM_IUPAC_TRADITIONAL_NAME>
(2R)-2-[2-(4-methylpiperidino)ethyl]-1-(1-naphthylsulfonyl)piperidine

> <PUBCHEM_IUPAC_INCHI>
InChI=1S/C23H32N2O2S/c1-19-12-16-24(17-13-19)18-14-21-9-4-5-15-25(21)28(26,27)23-11-6-8-20-7-2-3-10-22(20)23/h2-3,6-8,10-11,19,21H,4-5,9,12-18H2,1H3/t21-/m1/s1

> <PUBCHEM_IUPAC_INCHIKEY>
BDPXTGHWVMUJCT-OAQYLSRUSA-N

> <PUBCHEM_XLOGP3_AA>
4.9

> <PUBCHEM_EXACT_MASS>
400.21844944

> <PUBCHEM_MOLECULAR_FORMULA>
C23H32N2O2S

> <PUBCHEM_MOLECULAR_WEIGHT>
400.6

> <PUBCHEM_OPENEYE_CAN_SMILES>
CC1CCN(CC1)CCC2CCCCN2S(=O)(=O)C3=CC=CC4=CC=CC=C43

> <PUBCHEM_OPENEYE_ISO_SMILES>
CC1CCN(CC1)CC[C@H]2CCCCN2S(=O)(=O)C3=CC=CC4=CC=CC=C43

> <PUBCHEM_CACTVS_TPSA>
49

> <PUBCHEM_MONOISOTOPIC_WEIGHT>
400.21844944

> <PUBCHEM_TOTAL_CHARGE>
0

> <PUBCHEM_HEAVY_ATOM_COUNT>
28

> <PUBCHEM_ATOM_DEF_STEREO_COUNT>
1

> <PUBCHEM_ATOM_UDEF_STEREO_COUNT>
0

> <PUBCHEM_BOND_DEF_STEREO_COUNT>
0

> <PUBCHEM_BOND_UDEF_STEREO_COUNT>
0

> <PUBCHEM_ISOTOPIC_ATOM_COUNT>
0

> <PUBCHEM_COMPONENT_COUNT>
1

> <PUBCHEM_CACTVS_TAUTO_COUNT>
-1

> <PUBCHEM_COORDINATE_TYPE>
1
5
255

> <PUBCHEM_BONDANNOTATIONS>
19  20  8
19  21  8
20  22  8
20  24  8
21  23  8
22  25  8
22  26  8
23  25  8
24  27  8
26  28  8
27  28  8
6  7  6

$$$$
