155554242
  -OEChem-09292322082D

 38 41  0     0  0  0  0  0  0999 V2000
    5.8367    1.8524    0.0000 S   0  0  0  0  0  0  0  0  0  0  0  0
    4.6138   -1.3023    0.0000 N   0  0  0  0  0  0  0  0  0  0  0  0
    6.3779   -1.1549    0.0000 N   0  0  0  0  0  0  0  0  0  0  0  0
    7.1037    0.4924    0.0000 N   0  0  0  0  0  0  0  0  0  0  0  0
    4.7069   -2.2979    0.0000 C   0  0  0  0  0  0  0  0  0  0  0  0
    4.2896   -3.2067    0.0000 C   0  0  0  0  0  0  0  0  0  0  0  0
    5.2852   -3.1137    0.0000 C   0  0  0  0  0  0  0  0  0  0  0  0
    4.5277    0.9014    0.0000 C   0  0  0  0  0  0  0  0  0  0  0  0
    5.3367    0.3136    0.0000 C   0  0  0  0  0  0  0  0  0  0  0  0
    5.4296   -0.7239    0.0000 C   0  0  0  0  0  0  0  0  0  0  0  0
    3.5618    0.3740    0.0000 C   0  0  0  0  0  0  0  0  0  0  0  0
    2.5089    0.6941    0.0000 C   0  0  0  0  0  0  0  0  0  0  0  0
    4.8367    1.8524    0.0000 C   0  0  0  0  0  0  0  0  0  0  0  0
    2.0000    1.6698    0.0000 C   0  0  0  0  0  0  0  0  0  0  0  0
    4.3653    2.8468    0.0000 C   0  0  0  0  0  0  0  0  0  0  0  0
    2.3401    2.7165    0.0000 C   0  0  0  0  0  0  0  0  0  0  0  0
    3.3253    3.2067    0.0000 C   0  0  0  0  0  0  0  0  0  0  0  0
    6.1457    0.9014    0.0000 C   0  0  0  0  0  0  0  0  0  0  0  0
    7.2206   -0.5426    0.0000 C   0  0  0  0  0  0  0  0  0  0  0  0
    4.0956   -2.1939    0.0000 H   0  0  0  0  0  0  0  0  0  0  0  0
    3.6898   -3.0498    0.0000 H   0  0  0  0  0  0  0  0  0  0  0  0
    4.2392   -3.8247    0.0000 H   0  0  0  0  0  0  0  0  0  0  0  0
    5.4492   -3.7116    0.0000 H   0  0  0  0  0  0  0  0  0  0  0  0
    5.8456   -2.8484    0.0000 H   0  0  0  0  0  0  0  0  0  0  0  0
    4.0504   -1.0436    0.0000 H   0  0  0  0  0  0  0  0  0  0  0  0
    3.2357   -0.1533    0.0000 H   0  0  0  0  0  0  0  0  0  0  0  0
    3.9882   -0.0761    0.0000 H   0  0  0  0  0  0  0  0  0  0  0  0
    1.9041    0.5575    0.0000 H   0  0  0  0  0  0  0  0  0  0  0  0
    2.4863    0.0745    0.0000 H   0  0  0  0  0  0  0  0  0  0  0  0
    1.4790    2.0059    0.0000 H   0  0  0  0  0  0  0  0  0  0  0  0
    1.5419    1.2521    0.0000 H   0  0  0  0  0  0  0  0  0  0  0  0
    4.9748    2.9603    0.0000 H   0  0  0  0  0  0  0  0  0  0  0  0
    4.4114    3.4651    0.0000 H   0  0  0  0  0  0  0  0  0  0  0  0
    2.2150    3.3237    0.0000 H   0  0  0  0  0  0  0  0  0  0  0  0
    1.7210    2.7509    0.0000 H   0  0  0  0  0  0  0  0  0  0  0  0
    3.6712    3.7213    0.0000 H   0  0  0  0  0  0  0  0  0  0  0  0
    2.9163    3.6727    0.0000 H   0  0  0  0  0  0  0  0  0  0  0  0
    7.7879   -0.7926    0.0000 H   0  0  0  0  0  0  0  0  0  0  0  0
  1 13  1  0  0  0  0
  1 18  1  0  0  0  0
  2  5  1  0  0  0  0
  2 10  1  0  0  0  0
  2 25  1  0  0  0  0
  3 10  1  0  0  0  0
  3 19  2  0  0  0  0
  4 18  2  0  0  0  0
  4 19  1  0  0  0  0
  5  6  1  0  0  0  0
  5  7  1  0  0  0  0
  5 20  1  0  0  0  0
  6  7  1  0  0  0  0
  6 21  1  0  0  0  0
  6 22  1  0  0  0  0
  7 23  1  0  0  0  0
  7 24  1  0  0  0  0
  8  9  1  0  0  0  0
  8 11  1  0  0  0  0
  8 13  2  0  0  0  0
  9 10  2  0  0  0  0
  9 18  1  0  0  0  0
 11 12  1  0  0  0  0
 11 26  1  0  0  0  0
 11 27  1  0  0  0  0
 12 14  1  0  0  0  0
 12 28  1  0  0  0  0
 12 29  1  0  0  0  0
 13 15  1  0  0  0  0
 14 16  1  0  0  0  0
 14 30  1  0  0  0  0
 14 31  1  0  0  0  0
 15 17  1  0  0  0  0
 15 32  1  0  0  0  0
 15 33  1  0  0  0  0
 16 17  1  0  0  0  0
 16 34  1  0  0  0  0
 16 35  1  0  0  0  0
 17 36  1  0  0  0  0
 17 37  1  0  0  0  0
 19 38  1  0  0  0  0
M  END
> <PUBCHEM_COMPOUND_CID>
155554242

> <PUBCHEM_COMPOUND_CANONICALIZED>
1

> <PUBCHEM_CACTVS_COMPLEXITY>
321

> <PUBCHEM_CACTVS_HBOND_ACCEPTOR>
4

> <PUBCHEM_CACTVS_HBOND_DONOR>
1

> <PUBCHEM_CACTVS_ROTATABLE_BOND>
2

> <PUBCHEM_CACTVS_SUBSKEYS>
AAADceBzAABAAAAAAAAAAAAAGAAAASAAAAAsAAAAAAAYAFgB+AAAHAQQAAAADCjBWgQFsdbIEAikAgJhZACD0KlxCLgB2LAoRJiIKCLg2NGEBAxokALoyCcQgMAOgAAAAAAAAAAAAAAAAAAAAAAAAAAAAA==

> <PUBCHEM_IUPAC_OPENEYE_NAME>
N-cyclopropyl-8-thia-4,6-diazatricyclo[7.6.0.02,7]pentadeca-1(9),2,4,6-tetraen-3-amine

> <PUBCHEM_IUPAC_CAS_NAME>
N-cyclopropyl-8-thia-4,6-diazatricyclo[7.6.0.02,7]pentadeca-1(9),2,4,6-tetraen-3-amine

> <PUBCHEM_IUPAC_NAME_MARKUP>
<I>N</I>-cyclopropyl-8-thia-4,6-diazatricyclo[7.6.0.0<SUP>2,7</SUP>]pentadeca-1(9),2,4,6-tetraen-3-amine

> <PUBCHEM_IUPAC_NAME>
N-cyclopropyl-8-thia-4,6-diazatricyclo[7.6.0.02,7]pentadeca-1(9),2,4,6-tetraen-3-amine

> <PUBCHEM_IUPAC_SYSTEMATIC_NAME>
N-cyclopropyl-8-thia-4,6-diazatricyclo[7.6.0.02,7]pentadeca-1(9),2,4,6-tetraen-3-amine

> <PUBCHEM_IUPAC_TRADITIONAL_NAME>
cyclopropyl(8-thia-4,6-diazatricyclo[7.6.0.02,7]pentadeca-1(9),2,4,6-tetraen-3-yl)amine

> <PUBCHEM_IUPAC_INCHI>
InChI=1S/C15H19N3S/c1-2-4-6-12-11(5-3-1)13-14(18-10-7-8-10)16-9-17-15(13)19-12/h9-10H,1-8H2,(H,16,17,18)

> <PUBCHEM_IUPAC_INCHIKEY>
ZHMMIONEEYIMDL-UHFFFAOYSA-N

> <PUBCHEM_XLOGP3_AA>
4.7

> <PUBCHEM_EXACT_MASS>
273.12996879

> <PUBCHEM_MOLECULAR_FORMULA>
C15H19N3S

> <PUBCHEM_MOLECULAR_WEIGHT>
273.4

> <PUBCHEM_OPENEYE_CAN_SMILES>
C1CCCC2=C(CC1)C3=C(N=CN=C3S2)NC4CC4

> <PUBCHEM_OPENEYE_ISO_SMILES>
C1CCCC2=C(CC1)C3=C(N=CN=C3S2)NC4CC4

> <PUBCHEM_CACTVS_TPSA>
66

> <PUBCHEM_MONOISOTOPIC_WEIGHT>
273.12996879

> <PUBCHEM_TOTAL_CHARGE>
0

> <PUBCHEM_HEAVY_ATOM_COUNT>
19

> <PUBCHEM_ATOM_DEF_STEREO_COUNT>
0

> <PUBCHEM_ATOM_UDEF_STEREO_COUNT>
0

> <PUBCHEM_BOND_DEF_STEREO_COUNT>
0

> <PUBCHEM_BOND_UDEF_STEREO_COUNT>
0

> <PUBCHEM_ISOTOPIC_ATOM_COUNT>
0

> <PUBCHEM_COMPONENT_COUNT>
1

> <PUBCHEM_CACTVS_TAUTO_COUNT>
-1

> <PUBCHEM_COORDINATE_TYPE>
1
5
255

> <PUBCHEM_BONDANNOTATIONS>
1  13  8
1  18  8
3  10  8
3  19  8
4  18  8
4  19  8
8  13  8
8  9  8
9  10  8
9  18  8

$$$$
