52947694
  -OEChem-09292322302D

 62 66  0     1  0  0  0  0  0999 V2000
    3.3646    2.0276    0.0000 S   0  0  0  0  0  0  0  0  0  0  0  0
    7.6283   -5.7869    0.0000 F   0  0  0  0  0  0  0  0  0  0  0  0
    6.2935   -6.2540    0.0000 F   0  0  0  0  0  0  0  0  0  0  0  0
    7.1612   -4.4520    0.0000 F   0  0  0  0  0  0  0  0  0  0  0  0
    6.6982    4.1381    0.0000 O   0  0  0  0  0  0  0  0  0  0  0  0
    3.6235   -1.4268    0.0000 N   0  0  3  0  0  0  0  0  0  0  0  0
    4.7824    3.1071    0.0000 N   0  0  0  0  0  0  0  0  0  0  0  0
    3.3246    3.8092    0.0000 N   0  0  0  0  0  0  0  0  0  0  0  0
    4.0157    4.5320    0.0000 N   0  0  0  0  0  0  0  0  0  0  0  0
    6.9154    5.7415    0.0000 N   0  0  0  0  0  0  0  0  0  0  0  0
    3.1235   -3.6175    0.0000 C   0  0  3  0  0  0  0  0  0  0  0  0
    2.2225   -3.1836    0.0000 C   0  0  3  0  0  0  0  0  0  0  0  0
    2.2970   -4.1812    0.0000 C   0  0  0  0  0  0  0  0  0  0  0  0
    4.0245   -3.1836    0.0000 C   0  0  0  0  0  0  0  0  0  0  0  0
    2.0000   -2.2086    0.0000 C   0  0  0  0  0  0  0  0  0  0  0  0
    4.0245   -4.0513    0.0000 C   0  0  0  0  0  0  0  0  0  0  0  0
    4.2470   -2.2086    0.0000 C   0  0  0  0  0  0  0  0  0  0  0  0
    2.6235   -1.4268    0.0000 C   0  0  0  0  0  0  0  0  0  0  0  0
    4.8507   -3.4880    0.0000 C   0  0  0  0  0  0  0  0  0  0  0  0
    4.0992   -5.0485    0.0000 C   0  0  0  0  0  0  0  0  0  0  0  0
    4.0574   -0.5258    0.0000 C   0  0  0  0  0  0  0  0  0  0  0  0
    5.7517   -3.9219    0.0000 C   0  0  0  0  0  0  0  0  0  0  0  0
    5.0002   -5.4824    0.0000 C   0  0  0  0  0  0  0  0  0  0  0  0
    3.4940    0.3004    0.0000 C   0  0  0  0  0  0  0  0  0  0  0  0
    5.8264   -4.9191    0.0000 C   0  0  0  0  0  0  0  0  0  0  0  0
    3.9279    1.2014    0.0000 C   0  0  0  0  0  0  0  0  0  0  0  0
    6.7274   -5.3530    0.0000 C   0  0  0  0  0  0  0  0  0  0  0  0
    3.7985    2.9286    0.0000 C   0  0  0  0  0  0  0  0  0  0  0  0
    4.9167    4.0981    0.0000 C   0  0  0  0  0  0  0  0  0  0  0  0
    5.5052    2.4161    0.0000 C   0  0  0  0  0  0  0  0  0  0  0  0
    5.7973    4.5720    0.0000 C   0  0  0  0  0  0  0  0  0  0  0  0
    5.9315    5.5629    0.0000 C   0  0  0  0  0  0  0  0  0  0  0  0
    5.2087    6.2540    0.0000 C   0  0  0  0  0  0  0  0  0  0  0  0
    7.3893    4.8609    0.0000 C   0  0  0  0  0  0  0  0  0  0  0  0
    1.6094   -3.2759    0.0000 H   0  0  0  0  0  0  0  0  0  0  0  0
    1.6962   -4.3342    0.0000 H   0  0  0  0  0  0  0  0  0  0  0  0
    2.5521   -4.7463    0.0000 H   0  0  0  0  0  0  0  0  0  0  0  0
    4.1624   -3.7880    0.0000 H   0  0  0  0  0  0  0  0  0  0  0  0
    4.6445   -3.1836    0.0000 H   0  0  0  0  0  0  0  0  0  0  0  0
    1.6134   -1.7239    0.0000 H   0  0  0  0  0  0  0  0  0  0  0  0
    1.4414   -2.4776    0.0000 H   0  0  0  0  0  0  0  0  0  0  0  0
    4.8056   -2.4776    0.0000 H   0  0  0  0  0  0  0  0  0  0  0  0
    4.6335   -1.7239    0.0000 H   0  0  0  0  0  0  0  0  0  0  0  0
    2.7614   -0.8224    0.0000 H   0  0  0  0  0  0  0  0  0  0  0  0
    2.0649   -1.1578    0.0000 H   0  0  0  0  0  0  0  0  0  0  0  0
    4.8044   -2.8697    0.0000 H   0  0  0  0  0  0  0  0  0  0  0  0
    3.5869   -5.3978    0.0000 H   0  0  0  0  0  0  0  0  0  0  0  0
    4.5608   -0.8878    0.0000 H   0  0  0  0  0  0  0  0  0  0  0  0
    4.5012   -0.0929    0.0000 H   0  0  0  0  0  0  0  0  0  0  0  0
    6.2639   -3.5726    0.0000 H   0  0  0  0  0  0  0  0  0  0  0  0
    5.0465   -6.1007    0.0000 H   0  0  0  0  0  0  0  0  0  0  0  0
    2.9906    0.6623    0.0000 H   0  0  0  0  0  0  0  0  0  0  0  0
    3.0502   -0.1325    0.0000 H   0  0  0  0  0  0  0  0  0  0  0  0
    4.4313    0.8394    0.0000 H   0  0  0  0  0  0  0  0  0  0  0  0
    4.3718    1.6343    0.0000 H   0  0  0  0  0  0  0  0  0  0  0  0
    5.0768    1.9679    0.0000 H   0  0  0  0  0  0  0  0  0  0  0  0
    5.9534    1.9876    0.0000 H   0  0  0  0  0  0  0  0  0  0  0  0
    5.9337    2.8642    0.0000 H   0  0  0  0  0  0  0  0  0  0  0  0
    5.6372    6.7021    0.0000 H   0  0  0  0  0  0  0  0  0  0  0  0
    4.7606    6.6824    0.0000 H   0  0  0  0  0  0  0  0  0  0  0  0
    4.7802    5.8058    0.0000 H   0  0  0  0  0  0  0  0  0  0  0  0
    8.0037    4.7776    0.0000 H   0  0  0  0  0  0  0  0  0  0  0  0
  1 26  1  0  0  0  0
  1 28  1  0  0  0  0
  2 27  1  0  0  0  0
  3 27  1  0  0  0  0
  4 27  1  0  0  0  0
  5 31  1  0  0  0  0
  5 34  1  0  0  0  0
  6 17  1  0  0  0  0
  6 18  1  0  0  0  0
  6 21  1  0  0  0  0
  7 28  1  0  0  0  0
  7 29  1  0  0  0  0
  7 30  1  0  0  0  0
  8  9  1  0  0  0  0
  8 28  2  0  0  0  0
  9 29  2  0  0  0  0
 10 32  1  0  0  0  0
 10 34  2  0  0  0  0
 11 12  1  0  0  0  0
 11 13  1  0  0  0  0
 11 14  1  0  0  0  0
 11 16  1  0  0  0  0
 12 13  1  0  0  0  0
 12 15  1  0  0  0  0
 12 35  1  0  0  0  0
 13 36  1  0  0  0  0
 13 37  1  0  0  0  0
 14 17  1  0  0  0  0
 14 38  1  0  0  0  0
 14 39  1  0  0  0  0
 15 18  1  0  0  0  0
 15 40  1  0  0  0  0
 15 41  1  0  0  0  0
 16 19  2  0  0  0  0
 16 20  1  0  0  0  0
 17 42  1  0  0  0  0
 17 43  1  0  0  0  0
 18 44  1  0  0  0  0
 18 45  1  0  0  0  0
 19 22  1  0  0  0  0
 19 46  1  0  0  0  0
 20 23  2  0  0  0  0
 20 47  1  0  0  0  0
 21 24  1  0  0  0  0
 21 48  1  0  0  0  0
 21 49  1  0  0  0  0
 22 25  2  0  0  0  0
 22 50  1  0  0  0  0
 23 25  1  0  0  0  0
 23 51  1  0  0  0  0
 24 26  1  0  0  0  0
 24 52  1  0  0  0  0
 24 53  1  0  0  0  0
 25 27  1  0  0  0  0
 26 54  1  0  0  0  0
 26 55  1  0  0  0  0
 29 31  1  0  0  0  0
 30 56  1  0  0  0  0
 30 57  1  0  0  0  0
 30 58  1  0  0  0  0
 31 32  2  0  0  0  0
 32 33  1  0  0  0  0
 33 59  1  0  0  0  0
 33 60  1  0  0  0  0
 33 61  1  0  0  0  0
 34 62  1  0  0  0  0
M  END
> <PUBCHEM_COMPOUND_CID>
52947694

> <PUBCHEM_COMPOUND_CANONICALIZED>
1

> <PUBCHEM_CACTVS_COMPLEXITY>
694

> <PUBCHEM_CACTVS_HBOND_ACCEPTOR>
9

> <PUBCHEM_CACTVS_HBOND_DONOR>
0

> <PUBCHEM_CACTVS_ROTATABLE_BOND>
7

> <PUBCHEM_CACTVS_SUBSKEYS>
AAADceB7oYBAAAAAAAAAAAAAGAAAAWLAAAAwAAAABYAWAAAB8AAAHwQIAAAADwzF3xa3lJcMFEiqA6Zz9ASS2Ct7YLAd2CG9RJiOKCLk2TCNIChgjALYiAcQgMAPwAAAAAAAAACAAAAAAAAAAAAAAAAAAA==

> <PUBCHEM_IUPAC_OPENEYE_NAME>
4-methyl-5-[4-methyl-5-[3-[1-[4-(trifluoromethyl)phenyl]-4-azabicyclo[5.1.0]octan-4-yl]propylsulfanyl]-1,2,4-triazol-3-yl]oxazole

> <PUBCHEM_IUPAC_CAS_NAME>
4-methyl-5-[4-methyl-5-[3-[1-[4-(trifluoromethyl)phenyl]-4-azabicyclo[5.1.0]octan-4-yl]propylthio]-1,2,4-triazol-3-yl]oxazole

> <PUBCHEM_IUPAC_NAME_MARKUP>
4-methyl-5-[4-methyl-5-[3-[1-[4-(trifluoromethyl)phenyl]-4-azabicyclo[5.1.0]octan-4-yl]propylsulfanyl]-1,2,4-triazol-3-yl]-1,3-oxazole

> <PUBCHEM_IUPAC_NAME>
4-methyl-5-[4-methyl-5-[3-[1-[4-(trifluoromethyl)phenyl]-4-azabicyclo[5.1.0]octan-4-yl]propylsulfanyl]-1,2,4-triazol-3-yl]-1,3-oxazole

> <PUBCHEM_IUPAC_SYSTEMATIC_NAME>
4-methyl-5-[4-methyl-5-[3-[1-[4-(trifluoromethyl)phenyl]-4-azabicyclo[5.1.0]octan-4-yl]propylsulfanyl]-1,2,4-triazol-3-yl]-1,3-oxazole

> <PUBCHEM_IUPAC_TRADITIONAL_NAME>
4-methyl-5-[4-methyl-5-[3-[1-[4-(trifluoromethyl)phenyl]-4-azabicyclo[5.1.0]octan-4-yl]propylthio]-1,2,4-triazol-3-yl]oxazole

> <PUBCHEM_IUPAC_INCHI>
InChI=1S/C24H28F3N5OS/c1-16-20(33-15-28-16)21-29-30-22(31(21)2)34-13-3-10-32-11-8-19-14-23(19,9-12-32)17-4-6-18(7-5-17)24(25,26)27/h4-7,15,19H,3,8-14H2,1-2H3

> <PUBCHEM_IUPAC_INCHIKEY>
FOUYNUWEFKTMDR-UHFFFAOYSA-N

> <PUBCHEM_XLOGP3_AA>
4.9

> <PUBCHEM_EXACT_MASS>
491.19666619

> <PUBCHEM_MOLECULAR_FORMULA>
C24H28F3N5OS

> <PUBCHEM_MOLECULAR_WEIGHT>
491.6

> <PUBCHEM_OPENEYE_CAN_SMILES>
CC1=C(OC=N1)C2=NN=C(N2C)SCCCN3CCC4CC4(CC3)C5=CC=C(C=C5)C(F)(F)F

> <PUBCHEM_OPENEYE_ISO_SMILES>
CC1=C(OC=N1)C2=NN=C(N2C)SCCCN3CCC4CC4(CC3)C5=CC=C(C=C5)C(F)(F)F

> <PUBCHEM_CACTVS_TPSA>
85.3

> <PUBCHEM_MONOISOTOPIC_WEIGHT>
491.19666619

> <PUBCHEM_TOTAL_CHARGE>
0

> <PUBCHEM_HEAVY_ATOM_COUNT>
34

> <PUBCHEM_ATOM_DEF_STEREO_COUNT>
0

> <PUBCHEM_ATOM_UDEF_STEREO_COUNT>
2

> <PUBCHEM_BOND_DEF_STEREO_COUNT>
0

> <PUBCHEM_BOND_UDEF_STEREO_COUNT>
0

> <PUBCHEM_ISOTOPIC_ATOM_COUNT>
0

> <PUBCHEM_COMPONENT_COUNT>
1

> <PUBCHEM_CACTVS_TAUTO_COUNT>
-1

> <PUBCHEM_COORDINATE_TYPE>
1
5
255

> <PUBCHEM_BONDANNOTATIONS>
10  32  8
10  34  8
11  16  3
12  15  3
16  19  8
16  20  8
19  22  8
20  23  8
22  25  8
23  25  8
31  32  8
5  31  8
5  34  8
7  28  8
7  29  8
8  28  8
8  9  8
9  29  8

$$$$
