16744004
  -OEChem-09292322242D

 74 78  0     1  0  0  0  0  0999 V2000
    2.0000    4.9124    0.0000 F   0  0  0  0  0  0  0  0  0  0  0  0
    8.3292    7.7303    0.0000 F   0  0  0  0  0  0  0  0  0  0  0  0
    5.8362   -1.6915    0.0000 O   0  0  0  0  0  0  0  0  0  0  0  0
    4.6042   -6.2303    0.0000 O   0  0  0  0  0  0  0  0  0  0  0  0
    6.3362   -7.2303    0.0000 O   0  0  0  0  0  0  0  0  0  0  0  0
    7.1983    1.7536    0.0000 N   0  0  0  0  0  0  0  0  0  0  0  0
    6.3848    3.5807    0.0000 N   0  0  0  0  0  0  0  0  0  0  0  0
    5.5272   -2.6426    0.0000 N   0  0  0  0  0  0  0  0  0  0  0  0
    6.2038    1.8582    0.0000 C   0  0  0  0  0  0  0  0  0  0  0  0
    7.7861    2.5626    0.0000 C   0  0  0  0  0  0  0  0  0  0  0  0
    5.7970    2.7717    0.0000 C   0  0  0  0  0  0  0  0  0  0  0  0
    7.3794    3.4762    0.0000 C   0  0  0  0  0  0  0  0  0  0  0  0
    7.6050    0.8401    0.0000 C   0  0  0  0  0  0  0  0  0  0  0  0
    5.9781    4.4943    0.0000 C   0  0  0  0  0  0  0  0  0  0  0  0
    7.0172    0.0311    0.0000 C   0  0  0  0  0  0  0  0  0  0  0  0
    7.4240   -0.8825    0.0000 C   0  0  0  0  0  0  0  0  0  0  0  0
    6.8362   -1.6915    0.0000 C   0  0  2  0  0  0  0  0  0  0  0  0
    4.9836    4.5988    0.0000 C   0  0  0  0  0  0  0  0  0  0  0  0
    6.5659    5.3033    0.0000 C   0  0  0  0  0  0  0  0  0  0  0  0
    7.1452   -2.6426    0.0000 C   0  0  0  0  0  0  0  0  0  0  0  0
    6.3362   -3.2303    0.0000 C   0  0  0  0  0  0  0  0  0  0  0  0
    4.5768    5.5123    0.0000 C   0  0  0  0  0  0  0  0  0  0  0  0
    6.1591    6.2168    0.0000 C   0  0  0  0  0  0  0  0  0  0  0  0
    4.3958    3.7898    0.0000 C   0  0  0  0  0  0  0  0  0  0  0  0
    7.5604    5.1988    0.0000 C   0  0  0  0  0  0  0  0  0  0  0  0
    6.3362   -4.2303    0.0000 C   0  0  0  0  0  0  0  0  0  0  0  0
    3.5823    5.6169    0.0000 C   0  0  0  0  0  0  0  0  0  0  0  0
    6.7469    7.0258    0.0000 C   0  0  0  0  0  0  0  0  0  0  0  0
    3.4013    3.8943    0.0000 C   0  0  0  0  0  0  0  0  0  0  0  0
    8.1482    6.0078    0.0000 C   0  0  0  0  0  0  0  0  0  0  0  0
    2.9945    4.8078    0.0000 C   0  0  0  0  0  0  0  0  0  0  0  0
    7.7414    6.9213    0.0000 C   0  0  0  0  0  0  0  0  0  0  0  0
    5.4702   -4.7303    0.0000 C   0  0  0  0  0  0  0  0  0  0  0  0
    7.2022   -4.7303    0.0000 C   0  0  0  0  0  0  0  0  0  0  0  0
    5.4702   -5.7303    0.0000 C   0  0  0  0  0  0  0  0  0  0  0  0
    7.2022   -5.7303    0.0000 C   0  0  0  0  0  0  0  0  0  0  0  0
    6.3362   -6.2303    0.0000 C   0  0  0  0  0  0  0  0  0  0  0  0
    3.7381   -5.7303    0.0000 C   0  0  0  0  0  0  0  0  0  0  0  0
    7.2022   -7.7303    0.0000 C   0  0  0  0  0  0  0  0  0  0  0  0
    5.6022    1.7082    0.0000 H   0  0  0  0  0  0  0  0  0  0  0  0
    6.2470    1.2397    0.0000 H   0  0  0  0  0  0  0  0  0  0  0  0
    8.2168    2.1167    0.0000 H   0  0  0  0  0  0  0  0  0  0  0  0
    8.3001    2.9094    0.0000 H   0  0  0  0  0  0  0  0  0  0  0  0
    5.3664    3.2177    0.0000 H   0  0  0  0  0  0  0  0  0  0  0  0
    5.2830    2.4250    0.0000 H   0  0  0  0  0  0  0  0  0  0  0  0
    7.9809    3.6262    0.0000 H   0  0  0  0  0  0  0  0  0  0  0  0
    7.3361    4.0947    0.0000 H   0  0  0  0  0  0  0  0  0  0  0  0
    8.0357    0.3941    0.0000 H   0  0  0  0  0  0  0  0  0  0  0  0
    8.1190    1.1868    0.0000 H   0  0  0  0  0  0  0  0  0  0  0  0
    5.6137    3.9927    0.0000 H   0  0  0  0  0  0  0  0  0  0  0  0
    6.5866    0.4771    0.0000 H   0  0  0  0  0  0  0  0  0  0  0  0
    6.5033   -0.3156    0.0000 H   0  0  0  0  0  0  0  0  0  0  0  0
    7.8547   -1.3285    0.0000 H   0  0  0  0  0  0  0  0  0  0  0  0
    7.9380   -0.5358    0.0000 H   0  0  0  0  0  0  0  0  0  0  0  0
    6.5547   -1.1391    0.0000 H   0  0  0  0  0  0  0  0  0  0  0  0
    7.4552   -3.1795    0.0000 H   0  0  0  0  0  0  0  0  0  0  0  0
    7.7116   -2.3904    0.0000 H   0  0  0  0  0  0  0  0  0  0  0  0
    4.9413    6.0139    0.0000 H   0  0  0  0  0  0  0  0  0  0  0  0
    5.5425    6.2816    0.0000 H   0  0  0  0  0  0  0  0  0  0  0  0
    4.6480    3.2234    0.0000 H   0  0  0  0  0  0  0  0  0  0  0  0
    7.8126    4.6324    0.0000 H   0  0  0  0  0  0  0  0  0  0  0  0
    3.3301    6.1833    0.0000 H   0  0  0  0  0  0  0  0  0  0  0  0
    6.4947    7.5922    0.0000 H   0  0  0  0  0  0  0  0  0  0  0  0
    3.0368    3.3927    0.0000 H   0  0  0  0  0  0  0  0  0  0  0  0
    8.7648    5.9430    0.0000 H   0  0  0  0  0  0  0  0  0  0  0  0
    4.9332   -4.4203    0.0000 H   0  0  0  0  0  0  0  0  0  0  0  0
    7.7392   -4.4203    0.0000 H   0  0  0  0  0  0  0  0  0  0  0  0
    7.7392   -6.0403    0.0000 H   0  0  0  0  0  0  0  0  0  0  0  0
    4.0481   -5.1934    0.0000 H   0  0  0  0  0  0  0  0  0  0  0  0
    3.2012   -5.4203    0.0000 H   0  0  0  0  0  0  0  0  0  0  0  0
    3.4281   -6.2673    0.0000 H   0  0  0  0  0  0  0  0  0  0  0  0
    6.8922   -8.2673    0.0000 H   0  0  0  0  0  0  0  0  0  0  0  0
    7.7392   -8.0403    0.0000 H   0  0  0  0  0  0  0  0  0  0  0  0
    7.5122   -7.1934    0.0000 H   0  0  0  0  0  0  0  0  0  0  0  0
  1 31  1  0  0  0  0
  2 32  1  0  0  0  0
  3  8  1  0  0  0  0
  3 17  1  0  0  0  0
  4 35  1  0  0  0  0
  4 38  1  0  0  0  0
  5 37  1  0  0  0  0
  5 39  1  0  0  0  0
  6  9  1  0  0  0  0
  6 10  1  0  0  0  0
  6 13  1  0  0  0  0
  7 11  1  0  0  0  0
  7 12  1  0  0  0  0
  7 14  1  0  0  0  0
  8 21  2  0  0  0  0
  9 11  1  0  0  0  0
  9 40  1  0  0  0  0
  9 41  1  0  0  0  0
 10 12  1  0  0  0  0
 10 42  1  0  0  0  0
 10 43  1  0  0  0  0
 11 44  1  0  0  0  0
 11 45  1  0  0  0  0
 12 46  1  0  0  0  0
 12 47  1  0  0  0  0
 13 15  1  0  0  0  0
 13 48  1  0  0  0  0
 13 49  1  0  0  0  0
 14 18  1  0  0  0  0
 14 19  1  0  0  0  0
 14 50  1  0  0  0  0
 15 16  1  0  0  0  0
 15 51  1  0  0  0  0
 15 52  1  0  0  0  0
 17 16  1  6  0  0  0
 16 53  1  0  0  0  0
 16 54  1  0  0  0  0
 17 20  1  0  0  0  0
 17 55  1  0  0  0  0
 18 22  2  0  0  0  0
 18 24  1  0  0  0  0
 19 23  2  0  0  0  0
 19 25  1  0  0  0  0
 20 21  1  0  0  0  0
 20 56  1  0  0  0  0
 20 57  1  0  0  0  0
 21 26  1  0  0  0  0
 22 27  1  0  0  0  0
 22 58  1  0  0  0  0
 23 28  1  0  0  0  0
 23 59  1  0  0  0  0
 24 29  2  0  0  0  0
 24 60  1  0  0  0  0
 25 30  2  0  0  0  0
 25 61  1  0  0  0  0
 26 33  2  0  0  0  0
 26 34  1  0  0  0  0
 27 31  2  0  0  0  0
 27 62  1  0  0  0  0
 28 32  2  0  0  0  0
 28 63  1  0  0  0  0
 29 31  1  0  0  0  0
 29 64  1  0  0  0  0
 30 32  1  0  0  0  0
 30 65  1  0  0  0  0
 33 35  1  0  0  0  0
 33 66  1  0  0  0  0
 34 36  2  0  0  0  0
 34 67  1  0  0  0  0
 35 37  2  0  0  0  0
 36 37  1  0  0  0  0
 36 68  1  0  0  0  0
 38 69  1  0  0  0  0
 38 70  1  0  0  0  0
 38 71  1  0  0  0  0
 39 72  1  0  0  0  0
 39 73  1  0  0  0  0
 39 74  1  0  0  0  0
M  END
> <PUBCHEM_COMPOUND_CID>
16744004

> <PUBCHEM_COMPOUND_CANONICALIZED>
1

> <PUBCHEM_CACTVS_COMPLEXITY>
742

> <PUBCHEM_CACTVS_HBOND_ACCEPTOR>
8

> <PUBCHEM_CACTVS_HBOND_DONOR>
0

> <PUBCHEM_CACTVS_ROTATABLE_BOND>
10

> <PUBCHEM_CACTVS_SUBSKEYS>
AAADcfB7MYAAAAAAAAAAAAAAAAAAAQAAAAA8YMEAAAAAAAABUAAAHwAEAAAADDzhmA4yBoMQBACgAyBiAACCCAAgIAAIiAA+jJgNZqKEsRuUMCpkwBGKqAewwPAOIAABAAAAQABAAAIAAACAAAAAAAAAAA==

> <PUBCHEM_IUPAC_OPENEYE_NAME>
(5R)-5-[3-[4-[bis(4-fluorophenyl)methyl]piperazin-1-yl]propyl]-3-(3,4-dimethoxyphenyl)-4,5-dihydroisoxazole

> <PUBCHEM_IUPAC_CAS_NAME>
(5R)-5-[3-[4-[bis(4-fluorophenyl)methyl]-1-piperazinyl]propyl]-3-(3,4-dimethoxyphenyl)-4,5-dihydroisoxazole

> <PUBCHEM_IUPAC_NAME_MARKUP>
(5<I>R</I>)-5-[3-[4-[bis(4-fluorophenyl)methyl]piperazin-1-yl]propyl]-3-(3,4-dimethoxyphenyl)-4,5-dihydro-1,2-oxazole

> <PUBCHEM_IUPAC_NAME>
(5R)-5-[3-[4-[bis(4-fluorophenyl)methyl]piperazin-1-yl]propyl]-3-(3,4-dimethoxyphenyl)-4,5-dihydro-1,2-oxazole

> <PUBCHEM_IUPAC_SYSTEMATIC_NAME>
(5R)-5-[3-[4-[bis(4-fluorophenyl)methyl]piperazin-1-yl]propyl]-3-(3,4-dimethoxyphenyl)-4,5-dihydro-1,2-oxazole

> <PUBCHEM_IUPAC_TRADITIONAL_NAME>
(5R)-5-[3-[4-[bis(4-fluorophenyl)methyl]piperazino]propyl]-3-(3,4-dimethoxyphenyl)-2-isoxazoline

> <PUBCHEM_IUPAC_INCHI>
InChI=1S/C31H35F2N3O3/c1-37-29-14-9-24(20-30(29)38-2)28-21-27(39-34-28)4-3-15-35-16-18-36(19-17-35)31(22-5-10-25(32)11-6-22)23-7-12-26(33)13-8-23/h5-14,20,27,31H,3-4,15-19,21H2,1-2H3/t27-/m1/s1

> <PUBCHEM_IUPAC_INCHIKEY>
PBLLZSMBTAPYBH-HHHXNRCGSA-N

> <PUBCHEM_XLOGP3_AA>
5.7

> <PUBCHEM_EXACT_MASS>
535.26464831

> <PUBCHEM_MOLECULAR_FORMULA>
C31H35F2N3O3

> <PUBCHEM_MOLECULAR_WEIGHT>
535.6

> <PUBCHEM_OPENEYE_CAN_SMILES>
COC1=C(C=C(C=C1)C2=NOC(C2)CCCN3CCN(CC3)C(C4=CC=C(C=C4)F)C5=CC=C(C=C5)F)OC

> <PUBCHEM_OPENEYE_ISO_SMILES>
COC1=C(C=C(C=C1)C2=NO[C@@H](C2)CCCN3CCN(CC3)C(C4=CC=C(C=C4)F)C5=CC=C(C=C5)F)OC

> <PUBCHEM_CACTVS_TPSA>
46.5

> <PUBCHEM_MONOISOTOPIC_WEIGHT>
535.26464831

> <PUBCHEM_TOTAL_CHARGE>
0

> <PUBCHEM_HEAVY_ATOM_COUNT>
39

> <PUBCHEM_ATOM_DEF_STEREO_COUNT>
1

> <PUBCHEM_ATOM_UDEF_STEREO_COUNT>
0

> <PUBCHEM_BOND_DEF_STEREO_COUNT>
0

> <PUBCHEM_BOND_UDEF_STEREO_COUNT>
0

> <PUBCHEM_ISOTOPIC_ATOM_COUNT>
0

> <PUBCHEM_COMPONENT_COUNT>
1

> <PUBCHEM_CACTVS_TAUTO_COUNT>
-1

> <PUBCHEM_COORDINATE_TYPE>
1
5
255

> <PUBCHEM_BONDANNOTATIONS>
17  16  6
18  22  8
18  24  8
19  23  8
19  25  8
22  27  8
23  28  8
24  29  8
25  30  8
26  33  8
26  34  8
27  31  8
28  32  8
29  31  8
30  32  8
33  35  8
34  36  8
35  37  8
36  37  8

$$$$
