155532666
  -OEChem-09292322412D

168173  0     1  0  0  0  0  0999 V2000
    7.3402    6.9423    0.0000 Cl  0  0  0  0  0  0  0  0  0  0  0  0
    2.0000   10.3875    0.0000 Cl  0  0  0  0  0  0  0  0  0  0  0  0
    7.7023   10.3875    0.0000 Cl  0  0  0  0  0  0  0  0  0  0  0  0
   29.9822   -8.9220    0.0000 O   0  0  0  0  0  0  0  0  0  0  0  0
   20.4396   -6.3874    0.0000 O   0  0  0  0  0  0  0  0  0  0  0  0
   10.0473   -1.3874    0.0000 O   0  0  0  0  0  0  0  0  0  0  0  0
   10.9133   -7.8874    0.0000 O   0  0  0  0  0  0  0  0  0  0  0  0
   17.8415   -8.8874    0.0000 O   0  0  0  0  0  0  0  0  0  0  0  0
    9.1813   -4.8874    0.0000 O   0  0  0  0  0  0  0  0  0  0  0  0
   10.9133   -8.8874    0.0000 O   0  0  0  0  0  0  0  0  0  0  0  0
    3.9851    4.1126    0.0000 O   0  0  0  0  0  0  0  0  0  0  0  0
   26.5018   -5.8874    0.0000 N   0  0  3  0  0  0  0  0  0  0  0  0
   21.3056   -7.8874    0.0000 N   0  0  0  0  0  0  0  0  0  0  0  0
   11.7793   -6.3874    0.0000 N   0  0  0  0  0  0  0  0  0  0  0  0
    8.3152   -1.3874    0.0000 N   0  0  0  0  0  0  0  0  0  0  0  0
    8.3152   -3.3874    0.0000 N   0  0  0  0  0  0  0  0  0  0  0  0
   16.9755   -7.3874    0.0000 N   0  0  0  0  0  0  0  0  0  0  0  0
   12.6454   -8.8874    0.0000 N   0  0  0  0  0  0  0  0  0  0  0  0
    5.7172    4.1126    0.0000 N   0  0  0  0  0  0  0  0  0  0  0  0
    5.3511    7.1514    0.0000 N   0  0  0  0  0  0  0  0  0  0  0  0
    5.6602    6.2003    0.0000 N   0  0  0  0  0  0  0  0  0  0  0  0
   27.3678   -6.3874    0.0000 C   0  0  3  0  0  0  0  0  0  0  0  0
   27.3678   -7.3874    0.0000 C   0  0  0  0  0  0  0  0  0  0  0  0
   28.2338   -5.8874    0.0000 C   0  0  0  0  0  0  0  0  0  0  0  0
   28.2338   -7.8874    0.0000 C   0  0  0  0  0  0  0  0  0  0  0  0
   29.0999   -6.3874    0.0000 C   0  0  0  0  0  0  0  0  0  0  0  0
   29.0999   -7.3874    0.0000 C   0  0  0  0  0  0  0  0  0  0  0  0
   25.6357   -6.3874    0.0000 C   0  0  0  0  0  0  0  0  0  0  0  0
   26.5018   -4.8874    0.0000 C   0  0  0  0  0  0  0  0  0  0  0  0
   24.7697   -5.8874    0.0000 C   0  0  0  0  0  0  0  0  0  0  0  0
   29.9938   -5.8528    0.0000 C   0  0  0  0  0  0  0  0  0  0  0  0
   29.9938   -7.9221    0.0000 C   0  0  0  0  0  0  0  0  0  0  0  0
   25.6357   -4.3874    0.0000 C   0  0  0  0  0  0  0  0  0  0  0  0
   30.8999   -6.3666    0.0000 C   0  0  0  0  0  0  0  0  0  0  0  0
   30.8999   -7.4083    0.0000 C   0  0  0  0  0  0  0  0  0  0  0  0
   23.9037   -6.3874    0.0000 C   0  0  0  0  0  0  0  0  0  0  0  0
   25.6357   -3.3874    0.0000 C   0  0  0  0  0  0  0  0  0  0  0  0
   23.9037   -7.3874    0.0000 C   0  0  0  0  0  0  0  0  0  0  0  0
   23.0377   -5.8874    0.0000 C   0  0  0  0  0  0  0  0  0  0  0  0
   23.0377   -7.8874    0.0000 C   0  0  0  0  0  0  0  0  0  0  0  0
   22.1716   -6.3874    0.0000 C   0  0  0  0  0  0  0  0  0  0  0  0
   22.1716   -7.3874    0.0000 C   0  0  0  0  0  0  0  0  0  0  0  0
   20.4396   -7.3874    0.0000 C   0  0  0  0  0  0  0  0  0  0  0  0
   19.5736   -7.8874    0.0000 C   0  0  0  0  0  0  0  0  0  0  0  0
   10.0473   -3.3874    0.0000 C   0  0  0  0  0  0  0  0  0  0  0  0
   10.0473   -4.3874    0.0000 C   0  0  0  0  0  0  0  0  0  0  0  0
    9.1813   -2.8874    0.0000 C   0  0  1  0  0  0  0  0  0  0  0  0
   10.9133   -4.8874    0.0000 C   0  0  0  0  0  0  0  0  0  0  0  0
   13.5114   -7.3874    0.0000 C   0  0  0  0  0  0  0  0  0  0  0  0
   12.6454   -7.8874    0.0000 C   0  0  1  0  0  0  0  0  0  0  0  0
   14.3774   -7.8874    0.0000 C   0  0  0  0  0  0  0  0  0  0  0  0
   18.7075   -7.3874    0.0000 C   0  0  0  0  0  0  0  0  0  0  0  0
   10.9133   -5.8874    0.0000 C   0  0  0  0  0  0  0  0  0  0  0  0
   15.2434   -7.3874    0.0000 C   0  0  0  0  0  0  0  0  0  0  0  0
    7.4492    0.1125    0.0000 C   0  0  0  0  0  0  0  0  0  0  0  0
    7.4492    1.1126    0.0000 C   0  0  0  0  0  0  0  0  0  0  0  0
    9.1813   -1.8874    0.0000 C   0  0  0  0  0  0  0  0  0  0  0  0
   16.1095   -7.8874    0.0000 C   0  0  0  0  0  0  0  0  0  0  0  0
   11.7793   -7.3874    0.0000 C   0  0  0  0  0  0  0  0  0  0  0  0
    8.3152   -0.3875    0.0000 C   0  0  0  0  0  0  0  0  0  0  0  0
    6.5832    1.6126    0.0000 C   0  0  0  0  0  0  0  0  0  0  0  0
   17.8415   -7.8874    0.0000 C   0  0  0  0  0  0  0  0  0  0  0  0
    6.5832    2.6126    0.0000 C   0  0  0  0  0  0  0  0  0  0  0  0
    5.7172    3.1126    0.0000 C   0  0  0  0  0  0  0  0  0  0  0  0
    8.3152   -4.3874    0.0000 C   0  0  0  0  0  0  0  0  0  0  0  0
   11.7793   -9.3874    0.0000 C   0  0  0  0  0  0  0  0  0  0  0  0
    7.4492   -4.8874    0.0000 C   0  0  0  0  0  0  0  0  0  0  0  0
   11.7793  -10.3875    0.0000 C   0  0  0  0  0  0  0  0  0  0  0  0
    4.8511    4.6126    0.0000 C   0  0  0  0  0  0  0  0  0  0  0  0
    4.8511    5.6126    0.0000 C   0  0  0  0  0  0  0  0  0  0  0  0
    4.0421    6.2003    0.0000 C   0  0  0  0  0  0  0  0  0  0  0  0
    4.3511    7.1514    0.0000 C   0  0  0  0  0  0  0  0  0  0  0  0
    3.7634    7.9604    0.0000 C   0  0  0  0  0  0  0  0  0  0  0  0
    3.0911    5.8913    0.0000 C   0  0  0  0  0  0  0  0  0  0  0  0
    5.9389    7.9604    0.0000 C   0  0  0  0  0  0  0  0  0  0  0  0
    4.1701    8.8740    0.0000 C   0  0  0  0  0  0  0  0  0  0  0  0
    2.7688    7.8559    0.0000 C   0  0  0  0  0  0  0  0  0  0  0  0
    6.9334    7.8559    0.0000 C   0  0  0  0  0  0  0  0  0  0  0  0
    5.5322    8.8740    0.0000 C   0  0  0  0  0  0  0  0  0  0  0  0
    3.5823    9.6830    0.0000 C   0  0  0  0  0  0  0  0  0  0  0  0
    2.1810    8.6649    0.0000 C   0  0  0  0  0  0  0  0  0  0  0  0
    7.5212    8.6649    0.0000 C   0  0  0  0  0  0  0  0  0  0  0  0
    6.1200    9.6830    0.0000 C   0  0  0  0  0  0  0  0  0  0  0  0
    2.5878    9.5784    0.0000 C   0  0  0  0  0  0  0  0  0  0  0  0
    7.1145    9.5784    0.0000 C   0  0  0  0  0  0  0  0  0  0  0  0
   27.3678   -5.7675    0.0000 H   0  0  0  0  0  0  0  0  0  0  0  0
   26.7572   -7.2798    0.0000 H   0  0  0  0  0  0  0  0  0  0  0  0
   27.1557   -7.9701    0.0000 H   0  0  0  0  0  0  0  0  0  0  0  0
   28.6324   -5.4125    0.0000 H   0  0  0  0  0  0  0  0  0  0  0  0
   27.8353   -5.4125    0.0000 H   0  0  0  0  0  0  0  0  0  0  0  0
   27.8353   -8.3624    0.0000 H   0  0  0  0  0  0  0  0  0  0  0  0
   28.6324   -8.3624    0.0000 H   0  0  0  0  0  0  0  0  0  0  0  0
   25.2372   -6.8624    0.0000 H   0  0  0  0  0  0  0  0  0  0  0  0
   26.0343   -6.8624    0.0000 H   0  0  0  0  0  0  0  0  0  0  0  0
   27.1124   -4.9951    0.0000 H   0  0  0  0  0  0  0  0  0  0  0  0
   26.7138   -4.3048    0.0000 H   0  0  0  0  0  0  0  0  0  0  0  0
   25.1683   -5.4125    0.0000 H   0  0  0  0  0  0  0  0  0  0  0  0
   24.3712   -5.4125    0.0000 H   0  0  0  0  0  0  0  0  0  0  0  0
   29.9866   -5.2328    0.0000 H   0  0  0  0  0  0  0  0  0  0  0  0
   25.0252   -4.2798    0.0000 H   0  0  0  0  0  0  0  0  0  0  0  0
   25.4237   -4.9701    0.0000 H   0  0  0  0  0  0  0  0  0  0  0  0
   31.4356   -6.0546    0.0000 H   0  0  0  0  0  0  0  0  0  0  0  0
   31.4356   -7.7203    0.0000 H   0  0  0  0  0  0  0  0  0  0  0  0
   26.2558   -3.3874    0.0000 H   0  0  0  0  0  0  0  0  0  0  0  0
   25.6357   -2.7675    0.0000 H   0  0  0  0  0  0  0  0  0  0  0  0
   25.0157   -3.3874    0.0000 H   0  0  0  0  0  0  0  0  0  0  0  0
   30.5155   -9.2382    0.0000 H   0  0  0  0  0  0  0  0  0  0  0  0
   24.4406   -7.6974    0.0000 H   0  0  0  0  0  0  0  0  0  0  0  0
   23.0377   -5.2675    0.0000 H   0  0  0  0  0  0  0  0  0  0  0  0
   23.0377   -8.5074    0.0000 H   0  0  0  0  0  0  0  0  0  0  0  0
   21.6347   -6.0775    0.0000 H   0  0  0  0  0  0  0  0  0  0  0  0
   21.3056   -8.5074    0.0000 H   0  0  0  0  0  0  0  0  0  0  0  0
   19.1750   -8.3624    0.0000 H   0  0  0  0  0  0  0  0  0  0  0  0
   19.9721   -8.3624    0.0000 H   0  0  0  0  0  0  0  0  0  0  0  0
   10.6579   -3.4951    0.0000 H   0  0  0  0  0  0  0  0  0  0  0  0
   10.2593   -2.8048    0.0000 H   0  0  0  0  0  0  0  0  0  0  0  0
    9.4367   -4.2798    0.0000 H   0  0  0  0  0  0  0  0  0  0  0  0
    9.8352   -4.9701    0.0000 H   0  0  0  0  0  0  0  0  0  0  0  0
    8.6443   -2.5775    0.0000 H   0  0  0  0  0  0  0  0  0  0  0  0
   11.5239   -4.9951    0.0000 H   0  0  0  0  0  0  0  0  0  0  0  0
   11.1254   -4.3048    0.0000 H   0  0  0  0  0  0  0  0  0  0  0  0
   13.9099   -6.9125    0.0000 H   0  0  0  0  0  0  0  0  0  0  0  0
   13.1129   -6.9125    0.0000 H   0  0  0  0  0  0  0  0  0  0  0  0
   12.1084   -8.1974    0.0000 H   0  0  0  0  0  0  0  0  0  0  0  0
   13.9789   -8.3624    0.0000 H   0  0  0  0  0  0  0  0  0  0  0  0
   14.7759   -8.3624    0.0000 H   0  0  0  0  0  0  0  0  0  0  0  0
   19.1061   -6.9125    0.0000 H   0  0  0  0  0  0  0  0  0  0  0  0
   18.3090   -6.9125    0.0000 H   0  0  0  0  0  0  0  0  0  0  0  0
   10.3027   -5.7798    0.0000 H   0  0  0  0  0  0  0  0  0  0  0  0
   10.7013   -6.4701    0.0000 H   0  0  0  0  0  0  0  0  0  0  0  0
   15.6420   -6.9125    0.0000 H   0  0  0  0  0  0  0  0  0  0  0  0
   14.8449   -6.9125    0.0000 H   0  0  0  0  0  0  0  0  0  0  0  0
    6.8386    0.2202    0.0000 H   0  0  0  0  0  0  0  0  0  0  0  0
    7.2372   -0.4701    0.0000 H   0  0  0  0  0  0  0  0  0  0  0  0
    8.0598    1.0049    0.0000 H   0  0  0  0  0  0  0  0  0  0  0  0
    7.6613    1.6952    0.0000 H   0  0  0  0  0  0  0  0  0  0  0  0
   15.7109   -8.3624    0.0000 H   0  0  0  0  0  0  0  0  0  0  0  0
   16.5080   -8.3624    0.0000 H   0  0  0  0  0  0  0  0  0  0  0  0
    8.9258   -0.4951    0.0000 H   0  0  0  0  0  0  0  0  0  0  0  0
    8.5273    0.1952    0.0000 H   0  0  0  0  0  0  0  0  0  0  0  0
   12.3163   -6.0775    0.0000 H   0  0  0  0  0  0  0  0  0  0  0  0
    5.9726    1.7202    0.0000 H   0  0  0  0  0  0  0  0  0  0  0  0
    6.3711    1.0299    0.0000 H   0  0  0  0  0  0  0  0  0  0  0  0
    7.7783   -1.6974    0.0000 H   0  0  0  0  0  0  0  0  0  0  0  0
    7.7783   -3.0774    0.0000 H   0  0  0  0  0  0  0  0  0  0  0  0
    7.1938    2.5049    0.0000 H   0  0  0  0  0  0  0  0  0  0  0  0
    6.7952    3.1952    0.0000 H   0  0  0  0  0  0  0  0  0  0  0  0
   16.9755   -6.7675    0.0000 H   0  0  0  0  0  0  0  0  0  0  0  0
   13.1823   -9.1974    0.0000 H   0  0  0  0  0  0  0  0  0  0  0  0
    5.1066    3.2202    0.0000 H   0  0  0  0  0  0  0  0  0  0  0  0
    5.5051    2.5299    0.0000 H   0  0  0  0  0  0  0  0  0  0  0  0
    6.2541    4.4225    0.0000 H   0  0  0  0  0  0  0  0  0  0  0  0
    7.1392   -4.3505    0.0000 H   0  0  0  0  0  0  0  0  0  0  0  0
    6.9123   -5.1974    0.0000 H   0  0  0  0  0  0  0  0  0  0  0  0
    7.7592   -5.4244    0.0000 H   0  0  0  0  0  0  0  0  0  0  0  0
   11.1593  -10.3875    0.0000 H   0  0  0  0  0  0  0  0  0  0  0  0
   11.7793  -11.0075    0.0000 H   0  0  0  0  0  0  0  0  0  0  0  0
   12.3993  -10.3875    0.0000 H   0  0  0  0  0  0  0  0  0  0  0  0
    2.8995    6.4810    0.0000 H   0  0  0  0  0  0  0  0  0  0  0  0
    2.5014    5.6997    0.0000 H   0  0  0  0  0  0  0  0  0  0  0  0
    3.2827    5.3017    0.0000 H   0  0  0  0  0  0  0  0  0  0  0  0
    4.7867    8.9388    0.0000 H   0  0  0  0  0  0  0  0  0  0  0  0
    2.5167    7.2895    0.0000 H   0  0  0  0  0  0  0  0  0  0  0  0
    4.9156    8.9388    0.0000 H   0  0  0  0  0  0  0  0  0  0  0  0
    3.8345   10.2494    0.0000 H   0  0  0  0  0  0  0  0  0  0  0  0
    1.5644    8.6001    0.0000 H   0  0  0  0  0  0  0  0  0  0  0  0
    8.1378    8.6001    0.0000 H   0  0  0  0  0  0  0  0  0  0  0  0
    5.8678   10.2494    0.0000 H   0  0  0  0  0  0  0  0  0  0  0  0
  1 78  1  0  0  0  0
  2 84  1  0  0  0  0
  3 85  1  0  0  0  0
  4 32  1  0  0  0  0
  4107  1  0  0  0  0
  5 43  2  0  0  0  0
  6 57  2  0  0  0  0
  7 59  2  0  0  0  0
  8 62  2  0  0  0  0
  9 65  2  0  0  0  0
 10 66  2  0  0  0  0
 11 69  2  0  0  0  0
 12 22  1  0  0  0  0
 12 28  1  0  0  0  0
 12 29  1  0  0  0  0
 13 42  1  0  0  0  0
 13 43  1  0  0  0  0
 13112  1  0  0  0  0
 14 53  1  0  0  0  0
 14 59  1  0  0  0  0
 14141  1  0  0  0  0
 15 57  1  0  0  0  0
 15 60  1  0  0  0  0
 15144  1  0  0  0  0
 47 16  1  6  0  0  0
 16 65  1  0  0  0  0
 16145  1  0  0  0  0
 17 58  1  0  0  0  0
 17 62  1  0  0  0  0
 17148  1  0  0  0  0
 50 18  1  6  0  0  0
 18 66  1  0  0  0  0
 18149  1  0  0  0  0
 19 64  1  0  0  0  0
 19 69  1  0  0  0  0
 19152  1  0  0  0  0
 20 21  1  0  0  0  0
 20 72  1  0  0  0  0
 20 75  1  0  0  0  0
 21 70  2  0  0  0  0
 22 23  1  0  0  0  0
 22 24  1  0  0  0  0
 22 86  1  0  0  0  0
 23 25  1  0  0  0  0
 23 87  1  0  0  0  0
 23 88  1  0  0  0  0
 24 26  1  0  0  0  0
 24 89  1  0  0  0  0
 24 90  1  0  0  0  0
 25 27  1  0  0  0  0
 25 91  1  0  0  0  0
 25 92  1  0  0  0  0
 26 27  2  0  0  0  0
 26 31  1  0  0  0  0
 27 32  1  0  0  0  0
 28 30  1  0  0  0  0
 28 93  1  0  0  0  0
 28 94  1  0  0  0  0
 29 33  1  0  0  0  0
 29 95  1  0  0  0  0
 29 96  1  0  0  0  0
 30 36  1  0  0  0  0
 30 97  1  0  0  0  0
 30 98  1  0  0  0  0
 31 34  2  0  0  0  0
 31 99  1  0  0  0  0
 32 35  2  0  0  0  0
 33 37  1  0  0  0  0
 33100  1  0  0  0  0
 33101  1  0  0  0  0
 34 35  1  0  0  0  0
 34102  1  0  0  0  0
 35103  1  0  0  0  0
 36 38  2  0  0  0  0
 36 39  1  0  0  0  0
 37104  1  0  0  0  0
 37105  1  0  0  0  0
 37106  1  0  0  0  0
 38 40  1  0  0  0  0
 38108  1  0  0  0  0
 39 41  2  0  0  0  0
 39109  1  0  0  0  0
 40 42  2  0  0  0  0
 40110  1  0  0  0  0
 41 42  1  0  0  0  0
 41111  1  0  0  0  0
 43 44  1  0  0  0  0
 44 52  1  0  0  0  0
 44113  1  0  0  0  0
 44114  1  0  0  0  0
 45 46  1  0  0  0  0
 45 47  1  0  0  0  0
 45115  1  0  0  0  0
 45116  1  0  0  0  0
 46 48  1  0  0  0  0
 46117  1  0  0  0  0
 46118  1  0  0  0  0
 47 57  1  0  0  0  0
 47119  1  0  0  0  0
 48 53  1  0  0  0  0
 48120  1  0  0  0  0
 48121  1  0  0  0  0
 49 50  1  0  0  0  0
 49 51  1  0  0  0  0
 49122  1  0  0  0  0
 49123  1  0  0  0  0
 50 59  1  0  0  0  0
 50124  1  0  0  0  0
 51 54  1  0  0  0  0
 51125  1  0  0  0  0
 51126  1  0  0  0  0
 52 62  1  0  0  0  0
 52127  1  0  0  0  0
 52128  1  0  0  0  0
 53129  1  0  0  0  0
 53130  1  0  0  0  0
 54 58  1  0  0  0  0
 54131  1  0  0  0  0
 54132  1  0  0  0  0
 55 56  1  0  0  0  0
 55 60  1  0  0  0  0
 55133  1  0  0  0  0
 55134  1  0  0  0  0
 56 61  1  0  0  0  0
 56135  1  0  0  0  0
 56136  1  0  0  0  0
 58137  1  0  0  0  0
 58138  1  0  0  0  0
 60139  1  0  0  0  0
 60140  1  0  0  0  0
 61 63  1  0  0  0  0
 61142  1  0  0  0  0
 61143  1  0  0  0  0
 63 64  1  0  0  0  0
 63146  1  0  0  0  0
 63147  1  0  0  0  0
 64150  1  0  0  0  0
 64151  1  0  0  0  0
 65 67  1  0  0  0  0
 66 68  1  0  0  0  0
 67153  1  0  0  0  0
 67154  1  0  0  0  0
 67155  1  0  0  0  0
 68156  1  0  0  0  0
 68157  1  0  0  0  0
 68158  1  0  0  0  0
 69 70  1  0  0  0  0
 70 71  1  0  0  0  0
 71 72  2  0  0  0  0
 71 74  1  0  0  0  0
 72 73  1  0  0  0  0
 73 76  2  0  0  0  0
 73 77  1  0  0  0  0
 74159  1  0  0  0  0
 74160  1  0  0  0  0
 74161  1  0  0  0  0
 75 78  2  0  0  0  0
 75 79  1  0  0  0  0
 76 80  1  0  0  0  0
 76162  1  0  0  0  0
 77 81  2  0  0  0  0
 77163  1  0  0  0  0
 78 82  1  0  0  0  0
 79 83  2  0  0  0  0
 79164  1  0  0  0  0
 80 84  2  0  0  0  0
 80165  1  0  0  0  0
 81 84  1  0  0  0  0
 81166  1  0  0  0  0
 82 85  2  0  0  0  0
 82167  1  0  0  0  0
 83 85  1  0  0  0  0
 83168  1  0  0  0  0
M  END
> <PUBCHEM_COMPOUND_CID>
155532666

> <PUBCHEM_COMPOUND_CANONICALIZED>
1

> <PUBCHEM_CACTVS_COMPLEXITY>
2070

> <PUBCHEM_CACTVS_HBOND_ACCEPTOR>
10

> <PUBCHEM_CACTVS_HBOND_DONOR>
8

> <PUBCHEM_CACTVS_ROTATABLE_BOND>
34

> <PUBCHEM_CACTVS_SUBSKEYS>
AAADcfB//AAGAAAAAAAAAAAAAAAAAWAAAAAwYMGDAAAAAADB1AAAHgIYCAAADC7BniQyxpPIAgCqAyVyVACSBCAnJwAYmKGubtgIZvLD1/PU9Qhk3hHI2Qed2POOjABBAACYABAYAIKAATAAIAAAAAAAAA==

> <PUBCHEM_IUPAC_OPENEYE_NAME>
N-[(5S)-5-acetamido-6-[[(5S)-5-acetamido-6-[6-[[5-(4-chlorophenyl)-1-(2,4-dichlorophenyl)-4-methyl-pyrazole-3-carbonyl]amino]hexylamino]-6-oxo-hexyl]amino]-6-oxo-hexyl]-N'-[4-[2-[(5-hydroxytetralin-2-yl)-propyl-amino]ethyl]phenyl]butanediamide

> <PUBCHEM_IUPAC_CAS_NAME>
N-[(5S)-5-acetamido-6-[[(5S)-5-acetamido-6-[6-[[[5-(4-chlorophenyl)-1-(2,4-dichlorophenyl)-4-methyl-3-pyrazolyl]-oxomethyl]amino]hexylamino]-6-oxohexyl]amino]-6-oxohexyl]-N'-[4-[2-[(5-hydroxy-1,2,3,4-tetrahydronaphthalen-2-yl)-propylamino]ethyl]phenyl]butanediamide

> <PUBCHEM_IUPAC_NAME_MARKUP>
<I>N</I>-[(5<I>S</I>)-5-acetamido-6-[[(5<I>S</I>)-5-acetamido-6-[6-[[5-(4-chlorophenyl)-1-(2,4-dichlorophenyl)-4-methylpyrazole-3-carbonyl]amino]hexylamino]-6-oxohexyl]amino]-6-oxohexyl]-<I>N</I>&apos;-[4-[2-[(5-hydroxy-1,2,3,4-tetrahydronaphthalen-2-yl)-propylamino]ethyl]phenyl]butanediamide

> <PUBCHEM_IUPAC_NAME>
N-[(5S)-5-acetamido-6-[[(5S)-5-acetamido-6-[6-[[5-(4-chlorophenyl)-1-(2,4-dichlorophenyl)-4-methylpyrazole-3-carbonyl]amino]hexylamino]-6-oxohexyl]amino]-6-oxohexyl]-N'-[4-[2-[(5-hydroxy-1,2,3,4-tetrahydronaphthalen-2-yl)-propylamino]ethyl]phenyl]butanediamide

> <PUBCHEM_IUPAC_SYSTEMATIC_NAME>
N-[(5S)-5-acetamido-6-[[(5S)-5-acetamido-6-[6-[[5-(4-chlorophenyl)-1-(2,4-dichlorophenyl)-4-methyl-pyrazol-3-yl]carbonylamino]hexylamino]-6-oxidanylidene-hexyl]amino]-6-oxidanylidene-hexyl]-N'-[4-[2-[(5-oxidanyl-1,2,3,4-tetrahydronaphthalen-2-yl)-propyl-amino]ethyl]phenyl]butanediamide

> <PUBCHEM_IUPAC_TRADITIONAL_NAME>
N-[(5S)-5-acetamido-6-[[(5S)-5-acetamido-6-[6-[[5-(4-chlorophenyl)-1-(2,4-dichlorophenyl)-4-methyl-pyrazole-3-carbonyl]amino]hexylamino]-6-keto-hexyl]amino]-6-keto-hexyl]-N'-[4-[2-[(5-hydroxytetralin-2-yl)-propyl-amino]ethyl]phenyl]succinamide

> <PUBCHEM_IUPAC_INCHI>
InChI=1S/C64H83Cl3N10O8/c1-5-38-76(51-28-29-52-47(40-51)15-14-18-57(52)80)39-33-45-19-26-50(27-20-45)74-59(82)32-31-58(81)68-34-12-8-16-54(72-43(3)78)63(84)70-37-13-9-17-55(73-44(4)79)62(83)69-35-10-6-7-11-36-71-64(85)60-42(2)61(46-21-23-48(65)24-22-46)77(75-60)56-30-25-49(66)41-53(56)67/h14-15,18-27,30,41,51,54-55,80H,5-13,16-17,28-29,31-40H2,1-4H3,(H,68,81)(H,69,83)(H,70,84)(H,71,85)(H,72,78)(H,73,79)(H,74,82)/t51?,54-,55-/m0/s1

> <PUBCHEM_IUPAC_INCHIKEY>
AIXGSHLFBFGRFX-SKQKWFJKSA-N

> <PUBCHEM_XLOGP3_AA>
9.7

> <PUBCHEM_EXACT_MASS>
1224.546093

> <PUBCHEM_MOLECULAR_FORMULA>
C64H83Cl3N10O8

> <PUBCHEM_MOLECULAR_WEIGHT>
1226.8

> <PUBCHEM_OPENEYE_CAN_SMILES>
CCCN(CCC1=CC=C(C=C1)NC(=O)CCC(=O)NCCCCC(C(=O)NCCCCC(C(=O)NCCCCCCNC(=O)C2=NN(C(=C2C)C3=CC=C(C=C3)Cl)C4=C(C=C(C=C4)Cl)Cl)NC(=O)C)NC(=O)C)C5CCC6=C(C5)C=CC=C6O

> <PUBCHEM_OPENEYE_ISO_SMILES>
CCCN(CCC1=CC=C(C=C1)NC(=O)CCC(=O)NCCCC[C@@H](C(=O)NCCCC[C@@H](C(=O)NCCCCCCNC(=O)C2=NN(C(=C2C)C3=CC=C(C=C3)Cl)C4=C(C=C(C=C4)Cl)Cl)NC(=O)C)NC(=O)C)C5CCC6=C(C5)C=CC=C6O

> <PUBCHEM_CACTVS_TPSA>
245

> <PUBCHEM_MONOISOTOPIC_WEIGHT>
1224.546093

> <PUBCHEM_TOTAL_CHARGE>
0

> <PUBCHEM_HEAVY_ATOM_COUNT>
85

> <PUBCHEM_ATOM_DEF_STEREO_COUNT>
2

> <PUBCHEM_ATOM_UDEF_STEREO_COUNT>
1

> <PUBCHEM_BOND_DEF_STEREO_COUNT>
0

> <PUBCHEM_BOND_UDEF_STEREO_COUNT>
0

> <PUBCHEM_ISOTOPIC_ATOM_COUNT>
0

> <PUBCHEM_COMPONENT_COUNT>
1

> <PUBCHEM_CACTVS_TAUTO_COUNT>
-1

> <PUBCHEM_COORDINATE_TYPE>
1
5
255

> <PUBCHEM_BONDANNOTATIONS>
22  12  3
47  16  6
50  18  6
20  21  8
20  72  8
21  70  8
26  27  8
26  31  8
27  32  8
31  34  8
32  35  8
34  35  8
36  38  8
36  39  8
38  40  8
39  41  8
40  42  8
41  42  8
70  71  8
71  72  8
73  76  8
73  77  8
75  78  8
75  79  8
76  80  8
77  81  8
78  82  8
79  83  8
80  84  8
81  84  8
82  85  8
83  85  8

$$$$
