10084845
  -OEChem-09292322522D

 44 45  0     1  0  0  0  0  0999 V2000
    5.1491   -2.2327    0.0000 O   0  0  0  0  0  0  0  0  0  0  0  0
    4.2724    1.2919    0.0000 O   0  0  0  0  0  0  0  0  0  0  0  0
    6.8811   -0.2327    0.0000 N   0  0  3  0  0  0  0  0  0  0  0  0
    2.5405    1.3119    0.0000 N   0  0  0  0  0  0  0  0  0  0  0  0
    6.0151   -0.7327    0.0000 C   0  0  2  0  0  0  0  0  0  0  0  0
    5.1491   -0.2327    0.0000 C   0  0  0  0  0  0  0  0  0  0  0  0
    7.7472   -0.7327    0.0000 C   0  0  0  0  0  0  0  0  0  0  0  0
    6.0151   -1.7327    0.0000 C   0  0  0  0  0  0  0  0  0  0  0  0
    6.8811    0.7673    0.0000 C   0  0  0  0  0  0  0  0  0  0  0  0
    4.2830   -0.7327    0.0000 C   0  0  0  0  0  0  0  0  0  0  0  0
    4.2830   -1.7327    0.0000 C   0  0  0  0  0  0  0  0  0  0  0  0
    7.7472    1.2673    0.0000 C   0  0  0  0  0  0  0  0  0  0  0  0
    8.6132   -0.2327    0.0000 C   0  0  0  0  0  0  0  0  0  0  0  0
    7.7472   -1.7327    0.0000 C   0  0  0  0  0  0  0  0  0  0  0  0
    3.3891   -0.1980    0.0000 C   0  0  0  0  0  0  0  0  0  0  0  0
    3.3891   -2.2673    0.0000 C   0  0  0  0  0  0  0  0  0  0  0  0
    7.7472    2.2673    0.0000 C   0  0  0  0  0  0  0  0  0  0  0  0
    2.4830   -0.7119    0.0000 C   0  0  0  0  0  0  0  0  0  0  0  0
    2.4830   -1.7535    0.0000 C   0  0  0  0  0  0  0  0  0  0  0  0
    3.4007    0.8019    0.0000 C   0  0  0  0  0  0  0  0  0  0  0  0
    6.5520   -1.0427    0.0000 H   0  0  0  0  0  0  0  0  0  0  0  0
    5.5476    0.2423    0.0000 H   0  0  0  0  0  0  0  0  0  0  0  0
    4.7505    0.2423    0.0000 H   0  0  0  0  0  0  0  0  0  0  0  0
    7.7472   -0.1127    0.0000 H   0  0  0  0  0  0  0  0  0  0  0  0
    6.2272   -2.3153    0.0000 H   0  0  0  0  0  0  0  0  0  0  0  0
    6.6257   -1.6250    0.0000 H   0  0  0  0  0  0  0  0  0  0  0  0
    6.6691    1.3499    0.0000 H   0  0  0  0  0  0  0  0  0  0  0  0
    6.2705    0.6597    0.0000 H   0  0  0  0  0  0  0  0  0  0  0  0
    7.9592    0.6847    0.0000 H   0  0  0  0  0  0  0  0  0  0  0  0
    8.3577    1.3750    0.0000 H   0  0  0  0  0  0  0  0  0  0  0  0
    8.9232   -0.7696    0.0000 H   0  0  0  0  0  0  0  0  0  0  0  0
    9.1501    0.0773    0.0000 H   0  0  0  0  0  0  0  0  0  0  0  0
    8.3032    0.3043    0.0000 H   0  0  0  0  0  0  0  0  0  0  0  0
    7.1272   -1.7327    0.0000 H   0  0  0  0  0  0  0  0  0  0  0  0
    7.7472   -2.3527    0.0000 H   0  0  0  0  0  0  0  0  0  0  0  0
    8.3672   -1.7327    0.0000 H   0  0  0  0  0  0  0  0  0  0  0  0
    3.3963   -2.8873    0.0000 H   0  0  0  0  0  0  0  0  0  0  0  0
    8.3672    2.2673    0.0000 H   0  0  0  0  0  0  0  0  0  0  0  0
    7.7472    2.8873    0.0000 H   0  0  0  0  0  0  0  0  0  0  0  0
    7.1272    2.2673    0.0000 H   0  0  0  0  0  0  0  0  0  0  0  0
    1.9473   -0.3998    0.0000 H   0  0  0  0  0  0  0  0  0  0  0  0
    1.9473   -2.0656    0.0000 H   0  0  0  0  0  0  0  0  0  0  0  0
    2.5476    1.9319    0.0000 H   0  0  0  0  0  0  0  0  0  0  0  0
    2.0000    1.0081    0.0000 H   0  0  0  0  0  0  0  0  0  0  0  0
  1  8  1  0  0  0  0
  1 11  1  0  0  0  0
  2 20  2  0  0  0  0
  5  3  1  1  0  0  0
  3  7  1  0  0  0  0
  3  9  1  0  0  0  0
  4 20  1  0  0  0  0
  4 43  1  0  0  0  0
  4 44  1  0  0  0  0
  5  6  1  0  0  0  0
  5  8  1  0  0  0  0
  5 21  1  0  0  0  0
  6 10  1  0  0  0  0
  6 22  1  0  0  0  0
  6 23  1  0  0  0  0
  7 13  1  0  0  0  0
  7 14  1  0  0  0  0
  7 24  1  0  0  0  0
  8 25  1  0  0  0  0
  8 26  1  0  0  0  0
  9 12  1  0  0  0  0
  9 27  1  0  0  0  0
  9 28  1  0  0  0  0
 10 11  1  0  0  0  0
 10 15  2  0  0  0  0
 11 16  2  0  0  0  0
 12 17  1  0  0  0  0
 12 29  1  0  0  0  0
 12 30  1  0  0  0  0
 13 31  1  0  0  0  0
 13 32  1  0  0  0  0
 13 33  1  0  0  0  0
 14 34  1  0  0  0  0
 14 35  1  0  0  0  0
 14 36  1  0  0  0  0
 15 18  1  0  0  0  0
 15 20  1  0  0  0  0
 16 19  1  0  0  0  0
 16 37  1  0  0  0  0
 17 38  1  0  0  0  0
 17 39  1  0  0  0  0
 17 40  1  0  0  0  0
 18 19  2  0  0  0  0
 18 41  1  0  0  0  0
 19 42  1  0  0  0  0
M  END
> <PUBCHEM_COMPOUND_CID>
10084845

> <PUBCHEM_COMPOUND_CANONICALIZED>
1

> <PUBCHEM_CACTVS_COMPLEXITY>
332

> <PUBCHEM_CACTVS_HBOND_ACCEPTOR>
3

> <PUBCHEM_CACTVS_HBOND_DONOR>
1

> <PUBCHEM_CACTVS_ROTATABLE_BOND>
5

> <PUBCHEM_CACTVS_SUBSKEYS>
AAADceB7MAAAAAAAAAAAAAAAAAAAAAAAAAA0QAAAAAAAAACRAAAAHgAQAAAADCzhmAYyBoNABACIAiFSEACCCAAkIAAIiAEODMgOJjKEtRuHOSDkwBGYqYe6ybCegAABAAAYAAAAAAIAADAAAAAAAAAAAA==

> <PUBCHEM_IUPAC_OPENEYE_NAME>
(3R)-3-[isopropyl(propyl)amino]chromane-5-carboxamide

> <PUBCHEM_IUPAC_CAS_NAME>
(3R)-3-[propan-2-yl(propyl)amino]-3,4-dihydro-2H-1-benzopyran-5-carboxamide

> <PUBCHEM_IUPAC_NAME_MARKUP>
(3<I>R</I>)-3-[propan-2-yl(propyl)amino]-3,4-dihydro-2<I>H</I>-chromene-5-carboxamide

> <PUBCHEM_IUPAC_NAME>
(3R)-3-[propan-2-yl(propyl)amino]-3,4-dihydro-2H-chromene-5-carboxamide

> <PUBCHEM_IUPAC_SYSTEMATIC_NAME>
(3R)-3-[propan-2-yl(propyl)amino]-3,4-dihydro-2H-chromene-5-carboxamide

> <PUBCHEM_IUPAC_TRADITIONAL_NAME>
(3R)-3-[isopropyl(propyl)amino]chroman-5-carboxamide

> <PUBCHEM_IUPAC_INCHI>
InChI=1S/C16H24N2O2/c1-4-8-18(11(2)3)12-9-14-13(16(17)19)6-5-7-15(14)20-10-12/h5-7,11-12H,4,8-10H2,1-3H3,(H2,17,19)/t12-/m1/s1

> <PUBCHEM_IUPAC_INCHIKEY>
HSIWCIOUGIRMGE-GFCCVEGCSA-N

> <PUBCHEM_XLOGP3_AA>
2.6

> <PUBCHEM_EXACT_MASS>
276.183778013

> <PUBCHEM_MOLECULAR_FORMULA>
C16H24N2O2

> <PUBCHEM_MOLECULAR_WEIGHT>
276.37

> <PUBCHEM_OPENEYE_CAN_SMILES>
CCCN(C1CC2=C(C=CC=C2OC1)C(=O)N)C(C)C

> <PUBCHEM_OPENEYE_ISO_SMILES>
CCCN([C@@H]1CC2=C(C=CC=C2OC1)C(=O)N)C(C)C

> <PUBCHEM_CACTVS_TPSA>
55.6

> <PUBCHEM_MONOISOTOPIC_WEIGHT>
276.183778013

> <PUBCHEM_TOTAL_CHARGE>
0

> <PUBCHEM_HEAVY_ATOM_COUNT>
20

> <PUBCHEM_ATOM_DEF_STEREO_COUNT>
1

> <PUBCHEM_ATOM_UDEF_STEREO_COUNT>
0

> <PUBCHEM_BOND_DEF_STEREO_COUNT>
0

> <PUBCHEM_BOND_UDEF_STEREO_COUNT>
0

> <PUBCHEM_ISOTOPIC_ATOM_COUNT>
0

> <PUBCHEM_COMPONENT_COUNT>
1

> <PUBCHEM_CACTVS_TAUTO_COUNT>
-1

> <PUBCHEM_COORDINATE_TYPE>
1
5
255

> <PUBCHEM_BONDANNOTATIONS>
10  11  8
10  15  8
11  16  8
15  18  8
16  19  8
18  19  8
5  3  5

$$$$
