137647150
  -OEChem-09292322402D

 58 61  0     1  0  0  0  0  0999 V2000
   15.0583   -0.4827    0.0000 Cl  0  0  0  0  0  0  0  0  0  0  0  0
   16.7904    0.5173    0.0000 Cl  0  0  0  0  0  0  0  0  0  0  0  0
    9.8622    0.5173    0.0000 O   0  0  0  0  0  0  0  0  0  0  0  0
    6.3981    0.5173    0.0000 O   0  0  0  0  0  0  0  0  0  0  0  0
   11.5942   -0.4827    0.0000 N   0  0  0  0  0  0  0  0  0  0  0  0
   13.3263    0.5173    0.0000 N   0  0  0  0  0  0  0  0  0  0  0  0
    7.2641   -0.9827    0.0000 N   0  0  0  0  0  0  0  0  0  0  0  0
    4.6660   -2.4827    0.0000 N   0  0  0  0  0  0  0  0  0  0  0  0
   11.5942    0.5173    0.0000 C   0  0  0  0  0  0  0  0  0  0  0  0
   12.4603   -0.9827    0.0000 C   0  0  0  0  0  0  0  0  0  0  0  0
   12.4603    1.0173    0.0000 C   0  0  0  0  0  0  0  0  0  0  0  0
   13.3263   -0.4827    0.0000 C   0  0  0  0  0  0  0  0  0  0  0  0
   10.7282   -0.9827    0.0000 C   0  0  0  0  0  0  0  0  0  0  0  0
    9.8622   -0.4827    0.0000 C   0  0  1  0  0  0  0  0  0  0  0  0
    8.9962   -0.9827    0.0000 C   0  0  0  0  0  0  0  0  0  0  0  0
   14.1923    1.0173    0.0000 C   0  0  0  0  0  0  0  0  0  0  0  0
    8.1301   -0.4827    0.0000 C   0  0  0  0  0  0  0  0  0  0  0  0
   15.0583    0.5173    0.0000 C   0  0  0  0  0  0  0  0  0  0  0  0
   14.1923    2.0173    0.0000 C   0  0  0  0  0  0  0  0  0  0  0  0
   15.9244    1.0173    0.0000 C   0  0  0  0  0  0  0  0  0  0  0  0
   15.0583    2.5173    0.0000 C   0  0  0  0  0  0  0  0  0  0  0  0
   15.9244    2.0173    0.0000 C   0  0  0  0  0  0  0  0  0  0  0  0
    6.3981   -0.4827    0.0000 C   0  0  0  0  0  0  0  0  0  0  0  0
    5.5321   -0.9827    0.0000 C   0  0  0  0  0  0  0  0  0  0  0  0
    4.6660   -0.4827    0.0000 C   0  0  0  0  0  0  0  0  0  0  0  0
    3.8000   -0.9827    0.0000 C   0  0  0  0  0  0  0  0  0  0  0  0
    5.5321   -1.9827    0.0000 C   0  0  0  0  0  0  0  0  0  0  0  0
    3.8000   -1.9827    0.0000 C   0  0  0  0  0  0  0  0  0  0  0  0
    2.9061   -0.4480    0.0000 C   0  0  0  0  0  0  0  0  0  0  0  0
    2.9061   -2.5173    0.0000 C   0  0  0  0  0  0  0  0  0  0  0  0
    2.0000   -0.9619    0.0000 C   0  0  0  0  0  0  0  0  0  0  0  0
    2.0000   -2.0035    0.0000 C   0  0  0  0  0  0  0  0  0  0  0  0
   11.3822    1.0999    0.0000 H   0  0  0  0  0  0  0  0  0  0  0  0
   10.9837    0.4097    0.0000 H   0  0  0  0  0  0  0  0  0  0  0  0
   12.0617   -1.4576    0.0000 H   0  0  0  0  0  0  0  0  0  0  0  0
   12.8588   -1.4576    0.0000 H   0  0  0  0  0  0  0  0  0  0  0  0
   12.8588    1.4923    0.0000 H   0  0  0  0  0  0  0  0  0  0  0  0
   12.0617    1.4923    0.0000 H   0  0  0  0  0  0  0  0  0  0  0  0
   13.5383   -1.0653    0.0000 H   0  0  0  0  0  0  0  0  0  0  0  0
   13.9369   -0.3750    0.0000 H   0  0  0  0  0  0  0  0  0  0  0  0
   10.3297   -1.4576    0.0000 H   0  0  0  0  0  0  0  0  0  0  0  0
   11.1267   -1.4576    0.0000 H   0  0  0  0  0  0  0  0  0  0  0  0
    9.3252   -0.1727    0.0000 H   0  0  0  0  0  0  0  0  0  0  0  0
    8.5976   -1.4576    0.0000 H   0  0  0  0  0  0  0  0  0  0  0  0
    9.3947   -1.4576    0.0000 H   0  0  0  0  0  0  0  0  0  0  0  0
    8.5287   -0.0077    0.0000 H   0  0  0  0  0  0  0  0  0  0  0  0
    7.7316   -0.0077    0.0000 H   0  0  0  0  0  0  0  0  0  0  0  0
    9.3252    0.8273    0.0000 H   0  0  0  0  0  0  0  0  0  0  0  0
   13.6554    2.3273    0.0000 H   0  0  0  0  0  0  0  0  0  0  0  0
    7.2641   -1.6027    0.0000 H   0  0  0  0  0  0  0  0  0  0  0  0
   15.0583    3.1373    0.0000 H   0  0  0  0  0  0  0  0  0  0  0  0
   16.4613    2.3273    0.0000 H   0  0  0  0  0  0  0  0  0  0  0  0
    4.6660    0.1373    0.0000 H   0  0  0  0  0  0  0  0  0  0  0  0
    6.0690   -2.2927    0.0000 H   0  0  0  0  0  0  0  0  0  0  0  0
    2.9132    0.1720    0.0000 H   0  0  0  0  0  0  0  0  0  0  0  0
    2.9132   -3.1373    0.0000 H   0  0  0  0  0  0  0  0  0  0  0  0
    1.4643   -0.6498    0.0000 H   0  0  0  0  0  0  0  0  0  0  0  0
    1.4643   -2.3156    0.0000 H   0  0  0  0  0  0  0  0  0  0  0  0
  1 18  1  0  0  0  0
  2 20  1  0  0  0  0
 14  3  1  1  0  0  0
  3 48  1  0  0  0  0
  4 23  2  0  0  0  0
  5  9  1  0  0  0  0
  5 10  1  0  0  0  0
  5 13  1  0  0  0  0
  6 11  1  0  0  0  0
  6 12  1  0  0  0  0
  6 16  1  0  0  0  0
  7 17  1  0  0  0  0
  7 23  1  0  0  0  0
  7 50  1  0  0  0  0
  8 27  2  0  0  0  0
  8 28  1  0  0  0  0
  9 11  1  0  0  0  0
  9 33  1  0  0  0  0
  9 34  1  0  0  0  0
 10 12  1  0  0  0  0
 10 35  1  0  0  0  0
 10 36  1  0  0  0  0
 11 37  1  0  0  0  0
 11 38  1  0  0  0  0
 12 39  1  0  0  0  0
 12 40  1  0  0  0  0
 13 14  1  0  0  0  0
 13 41  1  0  0  0  0
 13 42  1  0  0  0  0
 14 15  1  0  0  0  0
 14 43  1  0  0  0  0
 15 17  1  0  0  0  0
 15 44  1  0  0  0  0
 15 45  1  0  0  0  0
 16 18  2  0  0  0  0
 16 19  1  0  0  0  0
 17 46  1  0  0  0  0
 17 47  1  0  0  0  0
 18 20  1  0  0  0  0
 19 21  2  0  0  0  0
 19 49  1  0  0  0  0
 20 22  2  0  0  0  0
 21 22  1  0  0  0  0
 21 51  1  0  0  0  0
 22 52  1  0  0  0  0
 23 24  1  0  0  0  0
 24 25  2  0  0  0  0
 24 27  1  0  0  0  0
 25 26  1  0  0  0  0
 25 53  1  0  0  0  0
 26 28  1  0  0  0  0
 26 29  2  0  0  0  0
 27 54  1  0  0  0  0
 28 30  2  0  0  0  0
 29 31  1  0  0  0  0
 29 55  1  0  0  0  0
 30 32  1  0  0  0  0
 30 56  1  0  0  0  0
 31 32  2  0  0  0  0
 31 57  1  0  0  0  0
 32 58  1  0  0  0  0
M  END
> <PUBCHEM_COMPOUND_CID>
137647150

> <PUBCHEM_COMPOUND_CANONICALIZED>
1

> <PUBCHEM_CACTVS_COMPLEXITY>
605

> <PUBCHEM_CACTVS_HBOND_ACCEPTOR>
5

> <PUBCHEM_CACTVS_HBOND_DONOR>
2

> <PUBCHEM_CACTVS_ROTATABLE_BOND>
7

> <PUBCHEM_CACTVS_SUBSKEYS>
AAADceB7sAAGAAAAAAAAAAAAAAAAAAAAAAA8eIEAAAAAAACx9AAAHgIQCAAADB7hniY8wPPIEgCoAzV3VACCgCA1ByAI2uE4ZtgKcPrB15HUYYhilgDYyccYicCeAAAAAAICABQAAAAABAQAKAAAAAAAAA==

> <PUBCHEM_IUPAC_OPENEYE_NAME>
N-[(3R)-4-[4-(2,3-dichlorophenyl)piperazin-1-yl]-3-hydroxy-butyl]quinoline-3-carboxamide

> <PUBCHEM_IUPAC_CAS_NAME>
N-[(3R)-4-[4-(2,3-dichlorophenyl)-1-piperazinyl]-3-hydroxybutyl]-3-quinolinecarboxamide

> <PUBCHEM_IUPAC_NAME_MARKUP>
<I>N</I>-[(3<I>R</I>)-4-[4-(2,3-dichlorophenyl)piperazin-1-yl]-3-hydroxybutyl]quinoline-3-carboxamide

> <PUBCHEM_IUPAC_NAME>
N-[(3R)-4-[4-(2,3-dichlorophenyl)piperazin-1-yl]-3-hydroxybutyl]quinoline-3-carboxamide

> <PUBCHEM_IUPAC_SYSTEMATIC_NAME>
N-[(3R)-4-[4-[2,3-bis(chloranyl)phenyl]piperazin-1-yl]-3-oxidanyl-butyl]quinoline-3-carboxamide

> <PUBCHEM_IUPAC_TRADITIONAL_NAME>
N-[(3R)-4-[4-(2,3-dichlorophenyl)piperazino]-3-hydroxy-butyl]quinoline-3-carboxamide

> <PUBCHEM_IUPAC_INCHI>
InChI=1S/C24H26Cl2N4O2/c25-20-5-3-7-22(23(20)26)30-12-10-29(11-13-30)16-19(31)8-9-27-24(32)18-14-17-4-1-2-6-21(17)28-15-18/h1-7,14-15,19,31H,8-13,16H2,(H,27,32)/t19-/m1/s1

> <PUBCHEM_IUPAC_INCHIKEY>
DCPPWKFRGIUQDU-LJQANCHMSA-N

> <PUBCHEM_XLOGP3_AA>
4.1

> <PUBCHEM_EXACT_MASS>
472.1432815

> <PUBCHEM_MOLECULAR_FORMULA>
C24H26Cl2N4O2

> <PUBCHEM_MOLECULAR_WEIGHT>
473.4

> <PUBCHEM_OPENEYE_CAN_SMILES>
C1CN(CCN1CC(CCNC(=O)C2=CC3=CC=CC=C3N=C2)O)C4=C(C(=CC=C4)Cl)Cl

> <PUBCHEM_OPENEYE_ISO_SMILES>
C1CN(CCN1C[C@@H](CCNC(=O)C2=CC3=CC=CC=C3N=C2)O)C4=C(C(=CC=C4)Cl)Cl

> <PUBCHEM_CACTVS_TPSA>
68.7

> <PUBCHEM_MONOISOTOPIC_WEIGHT>
472.1432815

> <PUBCHEM_TOTAL_CHARGE>
0

> <PUBCHEM_HEAVY_ATOM_COUNT>
32

> <PUBCHEM_ATOM_DEF_STEREO_COUNT>
1

> <PUBCHEM_ATOM_UDEF_STEREO_COUNT>
0

> <PUBCHEM_BOND_DEF_STEREO_COUNT>
0

> <PUBCHEM_BOND_UDEF_STEREO_COUNT>
0

> <PUBCHEM_ISOTOPIC_ATOM_COUNT>
0

> <PUBCHEM_COMPONENT_COUNT>
1

> <PUBCHEM_CACTVS_TAUTO_COUNT>
-1

> <PUBCHEM_COORDINATE_TYPE>
1
5
255

> <PUBCHEM_BONDANNOTATIONS>
16  18  8
16  19  8
18  20  8
19  21  8
20  22  8
21  22  8
24  25  8
24  27  8
25  26  8
26  28  8
26  29  8
28  30  8
29  31  8
14  3  5
30  32  8
31  32  8
8  27  8
8  28  8

$$$$
