10873003
  -OEChem-09292322112D

 57 60  0     0  0  0  0  0  0999 V2000
    5.5161   -7.0363    0.0000 F   0  0  0  0  0  0  0  0  0  0  0  0
    2.9180    2.4637    0.0000 O   0  0  0  0  0  0  0  0  0  0  0  0
    2.9059    6.5330    0.0000 O   0  0  0  0  0  0  0  0  0  0  0  0
    6.3821   -2.5363    0.0000 O   0  0  0  0  0  0  0  0  0  0  0  0
    3.7841   -0.0363    0.0000 N   0  0  0  0  0  0  0  0  0  0  0  0
    3.7841    1.9637    0.0000 C   0  0  0  0  0  0  0  0  0  0  0  0
    2.9180    1.4637    0.0000 C   0  0  0  0  0  0  0  0  0  0  0  0
    4.6501    1.4637    0.0000 C   0  0  0  0  0  0  0  0  0  0  0  0
    4.6501    2.4637    0.0000 C   0  0  0  0  0  0  0  0  0  0  0  0
    2.9180    0.4637    0.0000 C   0  0  0  0  0  0  0  0  0  0  0  0
    4.6501    0.4637    0.0000 C   0  0  0  0  0  0  0  0  0  0  0  0
    4.6501    3.4637    0.0000 C   0  0  0  0  0  0  0  0  0  0  0  0
    3.7841   -1.0363    0.0000 C   0  0  0  0  0  0  0  0  0  0  0  0
    3.7841    3.9637    0.0000 C   0  0  0  0  0  0  0  0  0  0  0  0
    2.9180    3.4637    0.0000 C   0  0  0  0  0  0  0  0  0  0  0  0
    4.6501   -1.5363    0.0000 C   0  0  0  0  0  0  0  0  0  0  0  0
    3.8001    5.0052    0.0000 C   0  0  0  0  0  0  0  0  0  0  0  0
    2.0080    3.9706    0.0000 C   0  0  0  0  0  0  0  0  0  0  0  0
    4.6501   -2.5363    0.0000 C   0  0  0  0  0  0  0  0  0  0  0  0
    2.9021    5.5330    0.0000 C   0  0  0  0  0  0  0  0  0  0  0  0
    2.0000    5.0122    0.0000 C   0  0  0  0  0  0  0  0  0  0  0  0
    5.5161   -3.0363    0.0000 C   0  0  0  0  0  0  0  0  0  0  0  0
    5.5161   -4.0363    0.0000 C   0  0  0  0  0  0  0  0  0  0  0  0
    2.0418    7.0363    0.0000 C   0  0  0  0  0  0  0  0  0  0  0  0
    4.6501   -4.5363    0.0000 C   0  0  0  0  0  0  0  0  0  0  0  0
    6.3821   -4.5363    0.0000 C   0  0  0  0  0  0  0  0  0  0  0  0
    4.6501   -5.5363    0.0000 C   0  0  0  0  0  0  0  0  0  0  0  0
    6.3821   -5.5363    0.0000 C   0  0  0  0  0  0  0  0  0  0  0  0
    5.5161   -6.0363    0.0000 C   0  0  0  0  0  0  0  0  0  0  0  0
    2.7060    2.0463    0.0000 H   0  0  0  0  0  0  0  0  0  0  0  0
    2.3074    1.3560    0.0000 H   0  0  0  0  0  0  0  0  0  0  0  0
    5.2607    1.3560    0.0000 H   0  0  0  0  0  0  0  0  0  0  0  0
    4.8621    2.0463    0.0000 H   0  0  0  0  0  0  0  0  0  0  0  0
    4.8621    1.8811    0.0000 H   0  0  0  0  0  0  0  0  0  0  0  0
    5.2607    2.5714    0.0000 H   0  0  0  0  0  0  0  0  0  0  0  0
    2.3074    0.5714    0.0000 H   0  0  0  0  0  0  0  0  0  0  0  0
    2.7060   -0.1189    0.0000 H   0  0  0  0  0  0  0  0  0  0  0  0
    4.8621   -0.1189    0.0000 H   0  0  0  0  0  0  0  0  0  0  0  0
    5.2607    0.5714    0.0000 H   0  0  0  0  0  0  0  0  0  0  0  0
    5.2607    3.3560    0.0000 H   0  0  0  0  0  0  0  0  0  0  0  0
    4.8621    4.0463    0.0000 H   0  0  0  0  0  0  0  0  0  0  0  0
    3.1735   -0.9286    0.0000 H   0  0  0  0  0  0  0  0  0  0  0  0
    3.5720   -1.6189    0.0000 H   0  0  0  0  0  0  0  0  0  0  0  0
    5.2607   -1.6440    0.0000 H   0  0  0  0  0  0  0  0  0  0  0  0
    4.8621   -0.9537    0.0000 H   0  0  0  0  0  0  0  0  0  0  0  0
    4.3406    5.3090    0.0000 H   0  0  0  0  0  0  0  0  0  0  0  0
    1.4747    3.6544    0.0000 H   0  0  0  0  0  0  0  0  0  0  0  0
    4.0395   -2.4286    0.0000 H   0  0  0  0  0  0  0  0  0  0  0  0
    4.4380   -3.1189    0.0000 H   0  0  0  0  0  0  0  0  0  0  0  0
    1.4619    5.3201    0.0000 H   0  0  0  0  0  0  0  0  0  0  0  0
    2.3539    7.5720    0.0000 H   0  0  0  0  0  0  0  0  0  0  0  0
    1.5061    7.3484    0.0000 H   0  0  0  0  0  0  0  0  0  0  0  0
    1.7298    6.5006    0.0000 H   0  0  0  0  0  0  0  0  0  0  0  0
    4.1132   -4.2263    0.0000 H   0  0  0  0  0  0  0  0  0  0  0  0
    6.9191   -4.2263    0.0000 H   0  0  0  0  0  0  0  0  0  0  0  0
    4.1132   -5.8463    0.0000 H   0  0  0  0  0  0  0  0  0  0  0  0
    6.9191   -5.8463    0.0000 H   0  0  0  0  0  0  0  0  0  0  0  0
  1 29  1  0  0  0  0
  2  6  1  0  0  0  0
  2 15  1  0  0  0  0
  3 20  1  0  0  0  0
  3 24  1  0  0  0  0
  4 22  2  0  0  0  0
  5 10  1  0  0  0  0
  5 11  1  0  0  0  0
  5 13  1  0  0  0  0
  6  7  1  0  0  0  0
  6  8  1  0  0  0  0
  6  9  1  0  0  0  0
  7 10  1  0  0  0  0
  7 30  1  0  0  0  0
  7 31  1  0  0  0  0
  8 11  1  0  0  0  0
  8 32  1  0  0  0  0
  8 33  1  0  0  0  0
  9 12  1  0  0  0  0
  9 34  1  0  0  0  0
  9 35  1  0  0  0  0
 10 36  1  0  0  0  0
 10 37  1  0  0  0  0
 11 38  1  0  0  0  0
 11 39  1  0  0  0  0
 12 14  1  0  0  0  0
 12 40  1  0  0  0  0
 12 41  1  0  0  0  0
 13 16  1  0  0  0  0
 13 42  1  0  0  0  0
 13 43  1  0  0  0  0
 14 15  2  0  0  0  0
 14 17  1  0  0  0  0
 15 18  1  0  0  0  0
 16 19  1  0  0  0  0
 16 44  1  0  0  0  0
 16 45  1  0  0  0  0
 17 20  2  0  0  0  0
 17 46  1  0  0  0  0
 18 21  2  0  0  0  0
 18 47  1  0  0  0  0
 19 22  1  0  0  0  0
 19 48  1  0  0  0  0
 19 49  1  0  0  0  0
 20 21  1  0  0  0  0
 21 50  1  0  0  0  0
 22 23  1  0  0  0  0
 23 25  2  0  0  0  0
 23 26  1  0  0  0  0
 24 51  1  0  0  0  0
 24 52  1  0  0  0  0
 24 53  1  0  0  0  0
 25 27  1  0  0  0  0
 25 54  1  0  0  0  0
 26 28  2  0  0  0  0
 26 55  1  0  0  0  0
 27 29  2  0  0  0  0
 27 56  1  0  0  0  0
 28 29  1  0  0  0  0
 28 57  1  0  0  0  0
M  END
> <PUBCHEM_COMPOUND_CID>
10873003

> <PUBCHEM_COMPOUND_CANONICALIZED>
1

> <PUBCHEM_CACTVS_COMPLEXITY>
540

> <PUBCHEM_CACTVS_HBOND_ACCEPTOR>
5

> <PUBCHEM_CACTVS_HBOND_DONOR>
0

> <PUBCHEM_CACTVS_ROTATABLE_BOND>
6

> <PUBCHEM_CACTVS_SUBSKEYS>
AAADceB6MQAAAAAAAAAAAAAAAAAAAAAAAAA8aIEAAAAAAACRQAAAHwAAAAAADETBmA4yBoMABACIAqBSAAACCAAkIAAIiAEOCMgMJjKEtRqGOSCmwBGIqYfcyPCOAQABAAAIAAACAAIAABAAAAAAAAAAAA==

> <PUBCHEM_IUPAC_OPENEYE_NAME>
1-(4-fluorophenyl)-4-(6-methoxyspiro[chromane-2,4'-piperidine]-1'-yl)butan-1-one

> <PUBCHEM_IUPAC_CAS_NAME>
1-(4-fluorophenyl)-4-(6-methoxy-1'-spiro[3,4-dihydro-2H-1-benzopyran-2,4'-piperidine]yl)-1-butanone

> <PUBCHEM_IUPAC_NAME_MARKUP>
1-(4-fluorophenyl)-4-(6-methoxyspiro[3,4-dihydrochromene-2,4&apos;-piperidine]-1&apos;-yl)butan-1-one

> <PUBCHEM_IUPAC_NAME>
1-(4-fluorophenyl)-4-(6-methoxyspiro[3,4-dihydrochromene-2,4'-piperidine]-1'-yl)butan-1-one

> <PUBCHEM_IUPAC_SYSTEMATIC_NAME>
1-(4-fluorophenyl)-4-(6-methoxyspiro[3,4-dihydrochromene-2,4'-piperidine]-1'-yl)butan-1-one

> <PUBCHEM_IUPAC_TRADITIONAL_NAME>
1-(4-fluorophenyl)-4-(6-methoxyspiro[chroman-2,4'-piperidine]-1'-yl)butan-1-one

> <PUBCHEM_IUPAC_INCHI>
InChI=1S/C24H28FNO3/c1-28-21-8-9-23-19(17-21)10-11-24(29-23)12-15-26(16-13-24)14-2-3-22(27)18-4-6-20(25)7-5-18/h4-9,17H,2-3,10-16H2,1H3

> <PUBCHEM_IUPAC_INCHIKEY>
FPWBHZULGMGZGF-UHFFFAOYSA-N

> <PUBCHEM_XLOGP3_AA>
4.4

> <PUBCHEM_EXACT_MASS>
397.20532192

> <PUBCHEM_MOLECULAR_FORMULA>
C24H28FNO3

> <PUBCHEM_MOLECULAR_WEIGHT>
397.5

> <PUBCHEM_OPENEYE_CAN_SMILES>
COC1=CC2=C(C=C1)OC3(CC2)CCN(CC3)CCCC(=O)C4=CC=C(C=C4)F

> <PUBCHEM_OPENEYE_ISO_SMILES>
COC1=CC2=C(C=C1)OC3(CC2)CCN(CC3)CCCC(=O)C4=CC=C(C=C4)F

> <PUBCHEM_CACTVS_TPSA>
38.8

> <PUBCHEM_MONOISOTOPIC_WEIGHT>
397.20532192

> <PUBCHEM_TOTAL_CHARGE>
0

> <PUBCHEM_HEAVY_ATOM_COUNT>
29

> <PUBCHEM_ATOM_DEF_STEREO_COUNT>
0

> <PUBCHEM_ATOM_UDEF_STEREO_COUNT>
0

> <PUBCHEM_BOND_DEF_STEREO_COUNT>
0

> <PUBCHEM_BOND_UDEF_STEREO_COUNT>
0

> <PUBCHEM_ISOTOPIC_ATOM_COUNT>
0

> <PUBCHEM_COMPONENT_COUNT>
1

> <PUBCHEM_CACTVS_TAUTO_COUNT>
-1

> <PUBCHEM_COORDINATE_TYPE>
1
5
255

> <PUBCHEM_BONDANNOTATIONS>
14  15  8
14  17  8
15  18  8
17  20  8
18  21  8
20  21  8
23  25  8
23  26  8
25  27  8
26  28  8
27  29  8
28  29  8

$$$$
