11005852
  -OEChem-09292322112D

 65 69  0     0  0  0  0  0  0999 V2000
    7.7553   -6.0057    0.0000 Cl  0  0  0  0  0  0  0  0  0  0  0  0
    9.0763   -7.5074    0.0000 Cl  0  0  0  0  0  0  0  0  0  0  0  0
    4.4118    3.0398    0.0000 O   0  0  0  0  0  0  0  0  0  0  0  0
    4.5274    7.5074    0.0000 O   0  0  0  0  0  0  0  0  0  0  0  0
    7.0743   -2.6092    0.0000 N   0  0  0  0  0  0  0  0  0  0  0  0
    8.3953   -4.1109    0.0000 N   0  0  0  0  0  0  0  0  0  0  0  0
    6.0528    2.4856    0.0000 N   0  0  0  0  0  0  0  0  0  0  0  0
    8.0548   -2.4126    0.0000 C   0  0  0  0  0  0  0  0  0  0  0  0
    6.7543   -3.5566    0.0000 C   0  0  0  0  0  0  0  0  0  0  0  0
    8.7153   -3.1634    0.0000 C   0  0  0  0  0  0  0  0  0  0  0  0
    7.4148   -4.3075    0.0000 C   0  0  0  0  0  0  0  0  0  0  0  0
    6.4138   -1.8584    0.0000 C   0  0  0  0  0  0  0  0  0  0  0  0
    6.7338   -0.9110    0.0000 C   0  0  0  0  0  0  0  0  0  0  0  0
    6.0733   -0.1601    0.0000 C   0  0  0  0  0  0  0  0  0  0  0  0
    9.0558   -4.8617    0.0000 C   0  0  0  0  0  0  0  0  0  0  0  0
    6.3933    0.7873    0.0000 C   0  0  0  0  0  0  0  0  0  0  0  0
    5.7328    1.5381    0.0000 C   0  0  0  0  0  0  0  0  0  0  0  0
    8.7358   -5.8091    0.0000 C   0  0  0  0  0  0  0  0  0  0  0  0
   10.0363   -4.6651    0.0000 C   0  0  0  0  0  0  0  0  0  0  0  0
    5.0274    4.9685    0.0000 C   0  0  0  0  0  0  0  0  0  0  0  0
    5.7123    4.1838    0.0000 C   0  0  0  0  0  0  0  0  0  0  0  0
    4.0274    4.9685    0.0000 C   0  0  0  0  0  0  0  0  0  0  0  0
    9.3963   -6.5600    0.0000 C   0  0  0  0  0  0  0  0  0  0  0  0
   10.6968   -5.4159    0.0000 C   0  0  0  0  0  0  0  0  0  0  0  0
    5.3364    5.9196    0.0000 C   0  0  0  0  0  0  0  0  0  0  0  0
    5.3923    3.2364    0.0000 C   0  0  0  0  0  0  0  0  0  0  0  0
    3.7183    5.9196    0.0000 C   0  0  0  0  0  0  0  0  0  0  0  0
   10.3768   -6.3634    0.0000 C   0  0  0  0  0  0  0  0  0  0  0  0
    4.5274    6.5074    0.0000 C   0  0  0  0  0  0  0  0  0  0  0  0
    6.7328    4.3925    0.0000 C   0  0  0  0  0  0  0  0  0  0  0  0
    6.3518    6.1518    0.0000 C   0  0  0  0  0  0  0  0  0  0  0  0
    3.3424    4.1838    0.0000 C   0  0  0  0  0  0  0  0  0  0  0  0
    7.0547    5.3832    0.0000 C   0  0  0  0  0  0  0  0  0  0  0  0
    2.7029    6.1518    0.0000 C   0  0  0  0  0  0  0  0  0  0  0  0
    2.3219    4.3925    0.0000 C   0  0  0  0  0  0  0  0  0  0  0  0
    2.0000    5.3832    0.0000 C   0  0  0  0  0  0  0  0  0  0  0  0
    8.5844   -2.0902    0.0000 H   0  0  0  0  0  0  0  0  0  0  0  0
    7.8292   -1.8351    0.0000 H   0  0  0  0  0  0  0  0  0  0  0  0
    6.2103   -3.2593    0.0000 H   0  0  0  0  0  0  0  0  0  0  0  0
    6.3670   -4.0408    0.0000 H   0  0  0  0  0  0  0  0  0  0  0  0
    9.2593   -3.4608    0.0000 H   0  0  0  0  0  0  0  0  0  0  0  0
    9.1026   -2.6793    0.0000 H   0  0  0  0  0  0  0  0  0  0  0  0
    6.8853   -4.6299    0.0000 H   0  0  0  0  0  0  0  0  0  0  0  0
    7.6404   -4.8850    0.0000 H   0  0  0  0  0  0  0  0  0  0  0  0
    5.8698   -1.5610    0.0000 H   0  0  0  0  0  0  0  0  0  0  0  0
    6.0265   -2.3425    0.0000 H   0  0  0  0  0  0  0  0  0  0  0  0
    7.2778   -1.2083    0.0000 H   0  0  0  0  0  0  0  0  0  0  0  0
    7.1212   -0.4268    0.0000 H   0  0  0  0  0  0  0  0  0  0  0  0
    5.5293    0.1373    0.0000 H   0  0  0  0  0  0  0  0  0  0  0  0
    5.6860   -0.6442    0.0000 H   0  0  0  0  0  0  0  0  0  0  0  0
    6.9374    0.4899    0.0000 H   0  0  0  0  0  0  0  0  0  0  0  0
    6.7807    1.2714    0.0000 H   0  0  0  0  0  0  0  0  0  0  0  0
    5.1888    1.8355    0.0000 H   0  0  0  0  0  0  0  0  0  0  0  0
    5.3455    1.0540    0.0000 H   0  0  0  0  0  0  0  0  0  0  0  0
   10.2347   -4.0777    0.0000 H   0  0  0  0  0  0  0  0  0  0  0  0
    6.6607    2.6074    0.0000 H   0  0  0  0  0  0  0  0  0  0  0  0
   11.3047   -5.2941    0.0000 H   0  0  0  0  0  0  0  0  0  0  0  0
   10.7863   -6.8289    0.0000 H   0  0  0  0  0  0  0  0  0  0  0  0
    7.1459    3.9302    0.0000 H   0  0  0  0  0  0  0  0  0  0  0  0
    6.5365    6.7437    0.0000 H   0  0  0  0  0  0  0  0  0  0  0  0
    3.5408    3.5964    0.0000 H   0  0  0  0  0  0  0  0  0  0  0  0
    7.6607    5.5144    0.0000 H   0  0  0  0  0  0  0  0  0  0  0  0
    2.5182    6.7437    0.0000 H   0  0  0  0  0  0  0  0  0  0  0  0
    1.9088    3.9302    0.0000 H   0  0  0  0  0  0  0  0  0  0  0  0
    1.3940    5.5144    0.0000 H   0  0  0  0  0  0  0  0  0  0  0  0
  1 18  1  0  0  0  0
  2 23  1  0  0  0  0
  3 26  2  0  0  0  0
  4 29  2  0  0  0  0
  5  8  1  0  0  0  0
  5  9  1  0  0  0  0
  5 12  1  0  0  0  0
  6 10  1  0  0  0  0
  6 11  1  0  0  0  0
  6 15  1  0  0  0  0
  7 17  1  0  0  0  0
  7 26  1  0  0  0  0
  7 56  1  0  0  0  0
  8 10  1  0  0  0  0
  8 37  1  0  0  0  0
  8 38  1  0  0  0  0
  9 11  1  0  0  0  0
  9 39  1  0  0  0  0
  9 40  1  0  0  0  0
 10 41  1  0  0  0  0
 10 42  1  0  0  0  0
 11 43  1  0  0  0  0
 11 44  1  0  0  0  0
 12 13  1  0  0  0  0
 12 45  1  0  0  0  0
 12 46  1  0  0  0  0
 13 14  1  0  0  0  0
 13 47  1  0  0  0  0
 13 48  1  0  0  0  0
 14 16  1  0  0  0  0
 14 49  1  0  0  0  0
 14 50  1  0  0  0  0
 15 18  2  0  0  0  0
 15 19  1  0  0  0  0
 16 17  1  0  0  0  0
 16 51  1  0  0  0  0
 16 52  1  0  0  0  0
 17 53  1  0  0  0  0
 17 54  1  0  0  0  0
 18 23  1  0  0  0  0
 19 24  2  0  0  0  0
 19 55  1  0  0  0  0
 20 21  1  0  0  0  0
 20 22  1  0  0  0  0
 20 25  2  0  0  0  0
 21 26  1  0  0  0  0
 21 30  2  0  0  0  0
 22 27  1  0  0  0  0
 22 32  2  0  0  0  0
 23 28  2  0  0  0  0
 24 28  1  0  0  0  0
 24 57  1  0  0  0  0
 25 29  1  0  0  0  0
 25 31  1  0  0  0  0
 27 29  1  0  0  0  0
 27 34  2  0  0  0  0
 28 58  1  0  0  0  0
 30 33  1  0  0  0  0
 30 59  1  0  0  0  0
 31 33  2  0  0  0  0
 31 60  1  0  0  0  0
 32 35  1  0  0  0  0
 32 61  1  0  0  0  0
 33 62  1  0  0  0  0
 34 36  1  0  0  0  0
 34 63  1  0  0  0  0
 35 36  2  0  0  0  0
 35 64  1  0  0  0  0
 36 65  1  0  0  0  0
M  END
> <PUBCHEM_COMPOUND_CID>
11005852

> <PUBCHEM_COMPOUND_CANONICALIZED>
1

> <PUBCHEM_CACTVS_COMPLEXITY>
759

> <PUBCHEM_CACTVS_HBOND_ACCEPTOR>
4

> <PUBCHEM_CACTVS_HBOND_DONOR>
1

> <PUBCHEM_CACTVS_ROTATABLE_BOND>
8

> <PUBCHEM_CACTVS_SUBSKEYS>
AAADceB7MAAGAAAAAAAAAAAAAAAAAYAAAAA8YMEAAAAAAGABUAAAHgIQAAAADA7BmCQwwIPAAACIAqVSUACCAAAlBwAIisEIZsgIYDLBl5HUIQhglgDIyYcYi8CugAACAAIQABQAAAQABCAAKQAACAAAAA==

> <PUBCHEM_IUPAC_OPENEYE_NAME>
N-[5-[4-(2,3-dichlorophenyl)piperazin-1-yl]pentyl]-9-oxo-fluorene-4-carboxamide

> <PUBCHEM_IUPAC_CAS_NAME>
N-[5-[4-(2,3-dichlorophenyl)-1-piperazinyl]pentyl]-9-oxo-4-fluorenecarboxamide

> <PUBCHEM_IUPAC_NAME_MARKUP>
<I>N</I>-[5-[4-(2,3-dichlorophenyl)piperazin-1-yl]pentyl]-9-oxofluorene-4-carboxamide

> <PUBCHEM_IUPAC_NAME>
N-[5-[4-(2,3-dichlorophenyl)piperazin-1-yl]pentyl]-9-oxofluorene-4-carboxamide

> <PUBCHEM_IUPAC_SYSTEMATIC_NAME>
N-[5-[4-[2,3-bis(chloranyl)phenyl]piperazin-1-yl]pentyl]-9-oxidanylidene-fluorene-4-carboxamide

> <PUBCHEM_IUPAC_TRADITIONAL_NAME>
N-[5-[4-(2,3-dichlorophenyl)piperazino]pentyl]-9-keto-fluorene-4-carboxamide

> <PUBCHEM_IUPAC_INCHI>
InChI=1S/C29H29Cl2N3O2/c30-24-12-7-13-25(27(24)31)34-18-16-33(17-19-34)15-5-1-4-14-32-29(36)23-11-6-10-22-26(23)20-8-2-3-9-21(20)28(22)35/h2-3,6-13H,1,4-5,14-19H2,(H,32,36)

> <PUBCHEM_IUPAC_INCHIKEY>
HTQLYZCPYPEYGO-UHFFFAOYSA-N

> <PUBCHEM_XLOGP3_AA>
6.3

> <PUBCHEM_EXACT_MASS>
521.1636826

> <PUBCHEM_MOLECULAR_FORMULA>
C29H29Cl2N3O2

> <PUBCHEM_MOLECULAR_WEIGHT>
522.5

> <PUBCHEM_OPENEYE_CAN_SMILES>
C1CN(CCN1CCCCCNC(=O)C2=CC=CC3=C2C4=CC=CC=C4C3=O)C5=C(C(=CC=C5)Cl)Cl

> <PUBCHEM_OPENEYE_ISO_SMILES>
C1CN(CCN1CCCCCNC(=O)C2=CC=CC3=C2C4=CC=CC=C4C3=O)C5=C(C(=CC=C5)Cl)Cl

> <PUBCHEM_CACTVS_TPSA>
52.6

> <PUBCHEM_MONOISOTOPIC_WEIGHT>
521.1636826

> <PUBCHEM_TOTAL_CHARGE>
0

> <PUBCHEM_HEAVY_ATOM_COUNT>
36

> <PUBCHEM_ATOM_DEF_STEREO_COUNT>
0

> <PUBCHEM_ATOM_UDEF_STEREO_COUNT>
0

> <PUBCHEM_BOND_DEF_STEREO_COUNT>
0

> <PUBCHEM_BOND_UDEF_STEREO_COUNT>
0

> <PUBCHEM_ISOTOPIC_ATOM_COUNT>
0

> <PUBCHEM_COMPONENT_COUNT>
1

> <PUBCHEM_CACTVS_TAUTO_COUNT>
-1

> <PUBCHEM_COORDINATE_TYPE>
1
5
255

> <PUBCHEM_BONDANNOTATIONS>
15  18  8
15  19  8
18  23  8
19  24  8
20  21  8
20  25  8
21  30  8
22  27  8
22  32  8
23  28  8
24  28  8
25  31  8
27  34  8
30  33  8
31  33  8
32  35  8
34  36  8
35  36  8

$$$$
