54585810
  -OEChem-09292322312D

 70 74  0     0  0  0  0  0  0999 V2000
    4.6660   -1.5172    0.0000 O   0  0  0  0  0  0  0  0  0  0  0  0
   11.5942   -3.5172    0.0000 O   0  0  0  0  0  0  0  0  0  0  0  0
    9.8622   -0.5172    0.0000 N   0  0  0  0  0  0  0  0  0  0  0  0
   11.5942   -1.5172    0.0000 N   0  0  0  0  0  0  0  0  0  0  0  0
    5.5321   -0.0172    0.0000 N   0  0  0  0  0  0  0  0  0  0  0  0
   10.7282   -0.0172    0.0000 C   0  0  0  0  0  0  0  0  0  0  0  0
    9.8622   -1.5172    0.0000 C   0  0  0  0  0  0  0  0  0  0  0  0
    8.9962   -0.0172    0.0000 C   0  0  0  0  0  0  0  0  0  0  0  0
   11.5942   -0.5172    0.0000 C   0  0  0  0  0  0  0  0  0  0  0  0
   10.7282   -2.0172    0.0000 C   0  0  0  0  0  0  0  0  0  0  0  0
    8.1301   -0.5172    0.0000 C   0  0  0  0  0  0  0  0  0  0  0  0
    7.2641   -0.0172    0.0000 C   0  0  0  0  0  0  0  0  0  0  0  0
    6.3981   -0.5172    0.0000 C   0  0  0  0  0  0  0  0  0  0  0  0
    5.5321    0.9828    0.0000 C   0  0  0  0  0  0  0  0  0  0  0  0
    4.6660    1.4828    0.0000 C   0  0  0  0  0  0  0  0  0  0  0  0
   12.4603   -2.0172    0.0000 C   0  0  0  0  0  0  0  0  0  0  0  0
    3.8000    0.9828    0.0000 C   0  0  0  0  0  0  0  0  0  0  0  0
    4.6660   -0.5172    0.0000 C   0  0  0  0  0  0  0  0  0  0  0  0
    3.8000   -0.0172    0.0000 C   0  0  0  0  0  0  0  0  0  0  0  0
    2.9061    1.5174    0.0000 C   0  0  0  0  0  0  0  0  0  0  0  0
   12.4603   -3.0172    0.0000 C   0  0  0  0  0  0  0  0  0  0  0  0
   13.3263   -1.5172    0.0000 C   0  0  0  0  0  0  0  0  0  0  0  0
    2.9061   -0.5519    0.0000 C   0  0  0  0  0  0  0  0  0  0  0  0
    2.0000    1.0036    0.0000 C   0  0  0  0  0  0  0  0  0  0  0  0
    2.9176    2.5174    0.0000 C   0  0  0  0  0  0  0  0  0  0  0  0
    2.0000   -0.0380    0.0000 C   0  0  0  0  0  0  0  0  0  0  0  0
   13.3263   -3.5172    0.0000 C   0  0  0  0  0  0  0  0  0  0  0  0
   14.1923   -2.0172    0.0000 C   0  0  0  0  0  0  0  0  0  0  0  0
   14.1923   -3.0172    0.0000 C   0  0  0  0  0  0  0  0  0  0  0  0
    3.7894    3.0073    0.0000 C   0  0  0  0  0  0  0  0  0  0  0  0
    2.0574    3.0273    0.0000 C   0  0  0  0  0  0  0  0  0  0  0  0
   11.5942   -4.5172    0.0000 C   0  0  0  0  0  0  0  0  0  0  0  0
    3.8009    4.0072    0.0000 C   0  0  0  0  0  0  0  0  0  0  0  0
    2.0690    4.0273    0.0000 C   0  0  0  0  0  0  0  0  0  0  0  0
    2.9408    4.5172    0.0000 C   0  0  0  0  0  0  0  0  0  0  0  0
   11.1267    0.4577    0.0000 H   0  0  0  0  0  0  0  0  0  0  0  0
   10.3297    0.4577    0.0000 H   0  0  0  0  0  0  0  0  0  0  0  0
    9.2516   -1.4096    0.0000 H   0  0  0  0  0  0  0  0  0  0  0  0
    9.6501   -2.0998    0.0000 H   0  0  0  0  0  0  0  0  0  0  0  0
    9.3947    0.4577    0.0000 H   0  0  0  0  0  0  0  0  0  0  0  0
    8.5976    0.4577    0.0000 H   0  0  0  0  0  0  0  0  0  0  0  0
   12.2048   -0.6249    0.0000 H   0  0  0  0  0  0  0  0  0  0  0  0
   11.8063    0.0654    0.0000 H   0  0  0  0  0  0  0  0  0  0  0  0
   10.3297   -2.4922    0.0000 H   0  0  0  0  0  0  0  0  0  0  0  0
   11.1267   -2.4922    0.0000 H   0  0  0  0  0  0  0  0  0  0  0  0
    7.7316   -0.9922    0.0000 H   0  0  0  0  0  0  0  0  0  0  0  0
    8.5287   -0.9922    0.0000 H   0  0  0  0  0  0  0  0  0  0  0  0
    7.6626    0.4577    0.0000 H   0  0  0  0  0  0  0  0  0  0  0  0
    6.8656    0.4577    0.0000 H   0  0  0  0  0  0  0  0  0  0  0  0
    5.9996   -0.9922    0.0000 H   0  0  0  0  0  0  0  0  0  0  0  0
    6.7966   -0.9922    0.0000 H   0  0  0  0  0  0  0  0  0  0  0  0
    6.1426    0.8751    0.0000 H   0  0  0  0  0  0  0  0  0  0  0  0
    5.7441    1.5654    0.0000 H   0  0  0  0  0  0  0  0  0  0  0  0
    5.0646    1.9577    0.0000 H   0  0  0  0  0  0  0  0  0  0  0  0
    4.2675    1.9577    0.0000 H   0  0  0  0  0  0  0  0  0  0  0  0
   13.3263   -0.8972    0.0000 H   0  0  0  0  0  0  0  0  0  0  0  0
    2.9132   -1.1718    0.0000 H   0  0  0  0  0  0  0  0  0  0  0  0
    1.4643    1.3156    0.0000 H   0  0  0  0  0  0  0  0  0  0  0  0
    1.4643   -0.3501    0.0000 H   0  0  0  0  0  0  0  0  0  0  0  0
   13.3263   -4.1372    0.0000 H   0  0  0  0  0  0  0  0  0  0  0  0
   14.7292   -1.7072    0.0000 H   0  0  0  0  0  0  0  0  0  0  0  0
   14.7292   -3.3272    0.0000 H   0  0  0  0  0  0  0  0  0  0  0  0
    4.3227    2.6911    0.0000 H   0  0  0  0  0  0  0  0  0  0  0  0
    1.5170    2.7236    0.0000 H   0  0  0  0  0  0  0  0  0  0  0  0
   10.9742   -4.5172    0.0000 H   0  0  0  0  0  0  0  0  0  0  0  0
   11.5942   -5.1372    0.0000 H   0  0  0  0  0  0  0  0  0  0  0  0
   12.2142   -4.5172    0.0000 H   0  0  0  0  0  0  0  0  0  0  0  0
    4.3414    4.3110    0.0000 H   0  0  0  0  0  0  0  0  0  0  0  0
    1.5357    4.3435    0.0000 H   0  0  0  0  0  0  0  0  0  0  0  0
    2.9479    5.1372    0.0000 H   0  0  0  0  0  0  0  0  0  0  0  0
  1 18  2  0  0  0  0
  2 21  1  0  0  0  0
  2 32  1  0  0  0  0
  3  6  1  0  0  0  0
  3  7  1  0  0  0  0
  3  8  1  0  0  0  0
  4  9  1  0  0  0  0
  4 10  1  0  0  0  0
  4 16  1  0  0  0  0
  5 13  1  0  0  0  0
  5 14  1  0  0  0  0
  5 18  1  0  0  0  0
  6  9  1  0  0  0  0
  6 36  1  0  0  0  0
  6 37  1  0  0  0  0
  7 10  1  0  0  0  0
  7 38  1  0  0  0  0
  7 39  1  0  0  0  0
  8 11  1  0  0  0  0
  8 40  1  0  0  0  0
  8 41  1  0  0  0  0
  9 42  1  0  0  0  0
  9 43  1  0  0  0  0
 10 44  1  0  0  0  0
 10 45  1  0  0  0  0
 11 12  1  0  0  0  0
 11 46  1  0  0  0  0
 11 47  1  0  0  0  0
 12 13  1  0  0  0  0
 12 48  1  0  0  0  0
 12 49  1  0  0  0  0
 13 50  1  0  0  0  0
 13 51  1  0  0  0  0
 14 15  1  0  0  0  0
 14 52  1  0  0  0  0
 14 53  1  0  0  0  0
 15 17  1  0  0  0  0
 15 54  1  0  0  0  0
 15 55  1  0  0  0  0
 16 21  1  0  0  0  0
 16 22  2  0  0  0  0
 17 19  1  0  0  0  0
 17 20  2  0  0  0  0
 18 19  1  0  0  0  0
 19 23  2  0  0  0  0
 20 24  1  0  0  0  0
 20 25  1  0  0  0  0
 21 27  2  0  0  0  0
 22 28  1  0  0  0  0
 22 56  1  0  0  0  0
 23 26  1  0  0  0  0
 23 57  1  0  0  0  0
 24 26  2  0  0  0  0
 24 58  1  0  0  0  0
 25 30  2  0  0  0  0
 25 31  1  0  0  0  0
 26 59  1  0  0  0  0
 27 29  1  0  0  0  0
 27 60  1  0  0  0  0
 28 29  2  0  0  0  0
 28 61  1  0  0  0  0
 29 62  1  0  0  0  0
 30 33  1  0  0  0  0
 30 63  1  0  0  0  0
 31 34  2  0  0  0  0
 31 64  1  0  0  0  0
 32 65  1  0  0  0  0
 32 66  1  0  0  0  0
 32 67  1  0  0  0  0
 33 35  2  0  0  0  0
 33 68  1  0  0  0  0
 34 35  1  0  0  0  0
 34 69  1  0  0  0  0
 35 70  1  0  0  0  0
M  END
> <PUBCHEM_COMPOUND_CID>
54585810

> <PUBCHEM_COMPOUND_CANONICALIZED>
1

> <PUBCHEM_CACTVS_COMPLEXITY>
658

> <PUBCHEM_CACTVS_HBOND_ACCEPTOR>
4

> <PUBCHEM_CACTVS_HBOND_DONOR>
0

> <PUBCHEM_CACTVS_ROTATABLE_BOND>
8

> <PUBCHEM_CACTVS_SUBSKEYS>
AAADcfB7MAAAAAAAAAAAAAAAAAAAAAAAAAA8eMECAAAAAACxUAAAHgAAAAAADAzBmAYyxoMABACIAiVSUACCCAAlIgAIiAEPbMgOZjLEtZuVMShkxhHY6YeYycCOgAACAAAQEAAAAAQAACAgAAAAAAAAAA==

> <PUBCHEM_IUPAC_OPENEYE_NAME>
2-[4-[4-(2-methoxyphenyl)piperazin-1-yl]butyl]-5-phenyl-3,4-dihydroisoquinolin-1-one

> <PUBCHEM_IUPAC_CAS_NAME>
2-[4-[4-(2-methoxyphenyl)-1-piperazinyl]butyl]-5-phenyl-3,4-dihydroisoquinolin-1-one

> <PUBCHEM_IUPAC_NAME_MARKUP>
2-[4-[4-(2-methoxyphenyl)piperazin-1-yl]butyl]-5-phenyl-3,4-dihydroisoquinolin-1-one

> <PUBCHEM_IUPAC_NAME>
2-[4-[4-(2-methoxyphenyl)piperazin-1-yl]butyl]-5-phenyl-3,4-dihydroisoquinolin-1-one

> <PUBCHEM_IUPAC_SYSTEMATIC_NAME>
2-[4-[4-(2-methoxyphenyl)piperazin-1-yl]butyl]-5-phenyl-3,4-dihydroisoquinolin-1-one

> <PUBCHEM_IUPAC_TRADITIONAL_NAME>
2-[4-[4-(2-methoxyphenyl)piperazino]butyl]-5-phenyl-3,4-dihydroisocarbostyril

> <PUBCHEM_IUPAC_INCHI>
InChI=1S/C30H35N3O2/c1-35-29-15-6-5-14-28(29)32-22-20-31(21-23-32)17-7-8-18-33-19-16-26-25(24-10-3-2-4-11-24)12-9-13-27(26)30(33)34/h2-6,9-15H,7-8,16-23H2,1H3

> <PUBCHEM_IUPAC_INCHIKEY>
VRJXNVWZJIUSSO-UHFFFAOYSA-N

> <PUBCHEM_XLOGP3_AA>
5.4

> <PUBCHEM_EXACT_MASS>
469.27292737

> <PUBCHEM_MOLECULAR_FORMULA>
C30H35N3O2

> <PUBCHEM_MOLECULAR_WEIGHT>
469.6

> <PUBCHEM_OPENEYE_CAN_SMILES>
COC1=CC=CC=C1N2CCN(CC2)CCCCN3CCC4=C(C=CC=C4C3=O)C5=CC=CC=C5

> <PUBCHEM_OPENEYE_ISO_SMILES>
COC1=CC=CC=C1N2CCN(CC2)CCCCN3CCC4=C(C=CC=C4C3=O)C5=CC=CC=C5

> <PUBCHEM_CACTVS_TPSA>
36

> <PUBCHEM_MONOISOTOPIC_WEIGHT>
469.27292737

> <PUBCHEM_TOTAL_CHARGE>
0

> <PUBCHEM_HEAVY_ATOM_COUNT>
35

> <PUBCHEM_ATOM_DEF_STEREO_COUNT>
0

> <PUBCHEM_ATOM_UDEF_STEREO_COUNT>
0

> <PUBCHEM_BOND_DEF_STEREO_COUNT>
0

> <PUBCHEM_BOND_UDEF_STEREO_COUNT>
0

> <PUBCHEM_ISOTOPIC_ATOM_COUNT>
0

> <PUBCHEM_COMPONENT_COUNT>
1

> <PUBCHEM_CACTVS_TAUTO_COUNT>
-1

> <PUBCHEM_COORDINATE_TYPE>
1
5
255

> <PUBCHEM_BONDANNOTATIONS>
16  21  8
16  22  8
17  19  8
17  20  8
19  23  8
20  24  8
21  27  8
22  28  8
23  26  8
24  26  8
25  30  8
25  31  8
27  29  8
28  29  8
30  33  8
31  34  8
33  35  8
34  35  8

$$$$
