9950913
  -OEChem-09292322512D

 56 59  0     1  0  0  0  0  0999 V2000
    7.8104   -2.3656    0.0000 O   0  0  0  0  0  0  0  0  0  0  0  0
    7.0000   -0.6828    0.0000 N   0  0  0  0  0  0  0  0  0  0  0  0
    5.0000   -0.6828    0.0000 N   0  0  0  0  0  0  0  0  0  0  0  0
    9.4088   -1.8063    0.0000 N   0  0  0  0  0  0  0  0  0  0  0  0
    8.0000   -0.6828    0.0000 C   0  0  3  0  0  0  0  0  0  0  0  0
    6.5000    0.1832    0.0000 C   0  0  0  0  0  0  0  0  0  0  0  0
    6.5000   -1.5489    0.0000 C   0  0  0  0  0  0  0  0  0  0  0  0
    5.5000    0.1832    0.0000 C   0  0  0  0  0  0  0  0  0  0  0  0
    5.5000   -1.5489    0.0000 C   0  0  0  0  0  0  0  0  0  0  0  0
    8.4339    0.2181    0.0000 C   0  0  0  0  0  0  0  0  0  0  0  0
    9.4088    0.4406    0.0000 C   0  0  0  0  0  0  0  0  0  0  0  0
    8.4339   -1.5838    0.0000 C   0  0  0  0  0  0  0  0  0  0  0  0
    4.0000   -0.6828    0.0000 C   0  0  0  0  0  0  0  0  0  0  0  0
   10.1906   -0.1828    0.0000 C   0  0  0  0  0  0  0  0  0  0  0  0
   10.1906   -1.1828    0.0000 C   0  0  0  0  0  0  0  0  0  0  0  0
    3.5000    0.1832    0.0000 C   0  0  0  0  0  0  0  0  0  0  0  0
    9.6313   -2.7813    0.0000 C   0  0  0  0  0  0  0  0  0  0  0  0
   11.0846    0.3518    0.0000 C   0  0  0  0  0  0  0  0  0  0  0  0
   11.0846   -1.7175    0.0000 C   0  0  0  0  0  0  0  0  0  0  0  0
   11.9907   -0.1620    0.0000 C   0  0  0  0  0  0  0  0  0  0  0  0
    4.0000    1.0492    0.0000 C   0  0  0  0  0  0  0  0  0  0  0  0
    2.5000    0.1832    0.0000 C   0  0  0  0  0  0  0  0  0  0  0  0
   11.9907   -1.2037    0.0000 C   0  0  0  0  0  0  0  0  0  0  0  0
    3.5000    1.9152    0.0000 C   0  0  0  0  0  0  0  0  0  0  0  0
    2.0000    1.0492    0.0000 C   0  0  0  0  0  0  0  0  0  0  0  0
    2.5000    1.9152    0.0000 C   0  0  0  0  0  0  0  0  0  0  0  0
    2.0000    2.7813    0.0000 C   0  0  0  0  0  0  0  0  0  0  0  0
    7.6701   -1.2078    0.0000 H   0  0  0  0  0  0  0  0  0  0  0  0
    7.0826    0.3952    0.0000 H   0  0  0  0  0  0  0  0  0  0  0  0
    6.3923    0.7938    0.0000 H   0  0  0  0  0  0  0  0  0  0  0  0
    6.3923   -2.1594    0.0000 H   0  0  0  0  0  0  0  0  0  0  0  0
    7.0826   -1.7609    0.0000 H   0  0  0  0  0  0  0  0  0  0  0  0
    5.6077    0.7938    0.0000 H   0  0  0  0  0  0  0  0  0  0  0  0
    4.9174    0.3952    0.0000 H   0  0  0  0  0  0  0  0  0  0  0  0
    4.9174   -1.7609    0.0000 H   0  0  0  0  0  0  0  0  0  0  0  0
    5.6077   -2.1594    0.0000 H   0  0  0  0  0  0  0  0  0  0  0  0
    8.4339    0.8381    0.0000 H   0  0  0  0  0  0  0  0  0  0  0  0
    7.8294    0.3561    0.0000 H   0  0  0  0  0  0  0  0  0  0  0  0
    9.8936    0.8272    0.0000 H   0  0  0  0  0  0  0  0  0  0  0  0
    9.1398    0.9992    0.0000 H   0  0  0  0  0  0  0  0  0  0  0  0
    3.4174   -0.8949    0.0000 H   0  0  0  0  0  0  0  0  0  0  0  0
    4.1077   -1.2934    0.0000 H   0  0  0  0  0  0  0  0  0  0  0  0
    9.0269   -2.9192    0.0000 H   0  0  0  0  0  0  0  0  0  0  0  0
    9.7693   -3.3857    0.0000 H   0  0  0  0  0  0  0  0  0  0  0  0
   10.2358   -2.6433    0.0000 H   0  0  0  0  0  0  0  0  0  0  0  0
   11.0774    0.9718    0.0000 H   0  0  0  0  0  0  0  0  0  0  0  0
   11.0774   -2.3375    0.0000 H   0  0  0  0  0  0  0  0  0  0  0  0
   12.5264    0.1500    0.0000 H   0  0  0  0  0  0  0  0  0  0  0  0
    4.6200    1.0492    0.0000 H   0  0  0  0  0  0  0  0  0  0  0  0
    2.1900   -0.3538    0.0000 H   0  0  0  0  0  0  0  0  0  0  0  0
   12.5264   -1.5157    0.0000 H   0  0  0  0  0  0  0  0  0  0  0  0
    3.8100    2.4522    0.0000 H   0  0  0  0  0  0  0  0  0  0  0  0
    1.3800    1.0492    0.0000 H   0  0  0  0  0  0  0  0  0  0  0  0
    2.5369    3.0913    0.0000 H   0  0  0  0  0  0  0  0  0  0  0  0
    1.6900    3.3182    0.0000 H   0  0  0  0  0  0  0  0  0  0  0  0
    1.4631    2.4713    0.0000 H   0  0  0  0  0  0  0  0  0  0  0  0
  1 12  2  0  0  0  0
  2  5  1  0  0  0  0
  2  6  1  0  0  0  0
  2  7  1  0  0  0  0
  3  8  1  0  0  0  0
  3  9  1  0  0  0  0
  3 13  1  0  0  0  0
  4 12  1  0  0  0  0
  4 15  1  0  0  0  0
  4 17  1  0  0  0  0
  5 10  1  0  0  0  0
  5 12  1  0  0  0  0
  5 28  1  0  0  0  0
  6  8  1  0  0  0  0
  6 29  1  0  0  0  0
  6 30  1  0  0  0  0
  7  9  1  0  0  0  0
  7 31  1  0  0  0  0
  7 32  1  0  0  0  0
  8 33  1  0  0  0  0
  8 34  1  0  0  0  0
  9 35  1  0  0  0  0
  9 36  1  0  0  0  0
 10 11  1  0  0  0  0
 10 37  1  0  0  0  0
 10 38  1  0  0  0  0
 11 14  1  0  0  0  0
 11 39  1  0  0  0  0
 11 40  1  0  0  0  0
 13 16  1  0  0  0  0
 13 41  1  0  0  0  0
 13 42  1  0  0  0  0
 14 15  1  0  0  0  0
 14 18  2  0  0  0  0
 15 19  2  0  0  0  0
 16 21  2  0  0  0  0
 16 22  1  0  0  0  0
 17 43  1  0  0  0  0
 17 44  1  0  0  0  0
 17 45  1  0  0  0  0
 18 20  1  0  0  0  0
 18 46  1  0  0  0  0
 19 23  1  0  0  0  0
 19 47  1  0  0  0  0
 20 23  2  0  0  0  0
 20 48  1  0  0  0  0
 21 24  1  0  0  0  0
 21 49  1  0  0  0  0
 22 25  2  0  0  0  0
 22 50  1  0  0  0  0
 23 51  1  0  0  0  0
 24 26  2  0  0  0  0
 24 52  1  0  0  0  0
 25 26  1  0  0  0  0
 25 53  1  0  0  0  0
 26 27  1  0  0  0  0
 27 54  1  0  0  0  0
 27 55  1  0  0  0  0
 27 56  1  0  0  0  0
M  END
> <PUBCHEM_COMPOUND_CID>
9950913

> <PUBCHEM_COMPOUND_CANONICALIZED>
1

> <PUBCHEM_CACTVS_COMPLEXITY>
494

> <PUBCHEM_CACTVS_HBOND_ACCEPTOR>
3

> <PUBCHEM_CACTVS_HBOND_DONOR>
0

> <PUBCHEM_CACTVS_ROTATABLE_BOND>
3

> <PUBCHEM_CACTVS_SUBSKEYS>
AAADceB7IAAAAAAAAAAAAAAAAAAAAAAAAAA8YIAABYAAAAABQAAAHgAAAAAADCjBmAQywIMAAACIAiVSUACCAAAhAgAIiAGIZIgIYDLAkbGUIAhghgDIyAcYiICOQAAAAAACAACAAAAAAAQAAAAAAAAAAA==

> <PUBCHEM_IUPAC_OPENEYE_NAME>
1-methyl-3-[4-(p-tolylmethyl)piperazin-1-yl]-4,5-dihydro-3H-1-benzazepin-2-one

> <PUBCHEM_IUPAC_CAS_NAME>
1-methyl-3-[4-[(4-methylphenyl)methyl]-1-piperazinyl]-4,5-dihydro-3H-1-benzazepin-2-one

> <PUBCHEM_IUPAC_NAME_MARKUP>
1-methyl-3-[4-[(4-methylphenyl)methyl]piperazin-1-yl]-4,5-dihydro-3<I>H</I>-1-benzazepin-2-one

> <PUBCHEM_IUPAC_NAME>
1-methyl-3-[4-[(4-methylphenyl)methyl]piperazin-1-yl]-4,5-dihydro-3H-1-benzazepin-2-one

> <PUBCHEM_IUPAC_SYSTEMATIC_NAME>
1-methyl-3-[4-[(4-methylphenyl)methyl]piperazin-1-yl]-4,5-dihydro-3H-1-benzazepin-2-one

> <PUBCHEM_IUPAC_TRADITIONAL_NAME>
1-methyl-3-[4-(4-methylbenzyl)piperazino]-4,5-dihydro-3H-1-benzazepin-2-one

> <PUBCHEM_IUPAC_INCHI>
InChI=1S/C23H29N3O/c1-18-7-9-19(10-8-18)17-25-13-15-26(16-14-25)22-12-11-20-5-3-4-6-21(20)24(2)23(22)27/h3-10,22H,11-17H2,1-2H3

> <PUBCHEM_IUPAC_INCHIKEY>
OIUKKROQEBASAU-UHFFFAOYSA-N

> <PUBCHEM_XLOGP3_AA>
3.4

> <PUBCHEM_EXACT_MASS>
363.231062557

> <PUBCHEM_MOLECULAR_FORMULA>
C23H29N3O

> <PUBCHEM_MOLECULAR_WEIGHT>
363.5

> <PUBCHEM_OPENEYE_CAN_SMILES>
CC1=CC=C(C=C1)CN2CCN(CC2)C3CCC4=CC=CC=C4N(C3=O)C

> <PUBCHEM_OPENEYE_ISO_SMILES>
CC1=CC=C(C=C1)CN2CCN(CC2)C3CCC4=CC=CC=C4N(C3=O)C

> <PUBCHEM_CACTVS_TPSA>
26.8

> <PUBCHEM_MONOISOTOPIC_WEIGHT>
363.231062557

> <PUBCHEM_TOTAL_CHARGE>
0

> <PUBCHEM_HEAVY_ATOM_COUNT>
27

> <PUBCHEM_ATOM_DEF_STEREO_COUNT>
0

> <PUBCHEM_ATOM_UDEF_STEREO_COUNT>
1

> <PUBCHEM_BOND_DEF_STEREO_COUNT>
0

> <PUBCHEM_BOND_UDEF_STEREO_COUNT>
0

> <PUBCHEM_ISOTOPIC_ATOM_COUNT>
0

> <PUBCHEM_COMPONENT_COUNT>
1

> <PUBCHEM_CACTVS_TAUTO_COUNT>
-1

> <PUBCHEM_COORDINATE_TYPE>
1
5
255

> <PUBCHEM_BONDANNOTATIONS>
14  15  8
14  18  8
15  19  8
16  21  8
16  22  8
18  20  8
19  23  8
5  2  3
20  23  8
21  24  8
22  25  8
24  26  8
25  26  8

$$$$
