11079832
  -OEChem-09292322112D

 57 61  0     0  0  0  0  0  0999 V2000
    4.0358    0.5417    0.0000 N   0  0  0  0  0  0  0  0  0  0  0  0
    4.9036   -1.2602    0.0000 N   0  0  0  0  0  0  0  0  0  0  0  0
    6.3374   -2.1612    0.0000 N   0  0  0  0  0  0  0  0  0  0  0  0
    5.8374   -4.3518    0.0000 N   0  0  0  0  0  0  0  0  0  0  0  0
    7.4909   -4.6382    0.0000 N   0  0  0  0  0  0  0  0  0  0  0  0
    3.4725   -0.2845    0.0000 C   0  0  0  0  0  0  0  0  0  0  0  0
    5.0330    0.4670    0.0000 C   0  0  0  0  0  0  0  0  0  0  0  0
    3.9064   -1.1855    0.0000 C   0  0  0  0  0  0  0  0  0  0  0  0
    5.4669   -0.4340    0.0000 C   0  0  0  0  0  0  0  0  0  0  0  0
    3.6019    1.4427    0.0000 C   0  0  0  0  0  0  0  0  0  0  0  0
    5.3374   -2.1612    0.0000 C   0  0  0  0  0  0  0  0  0  0  0  0
    4.1652    2.2689    0.0000 C   0  0  0  0  0  0  0  0  0  0  0  0
    4.7139   -2.9430    0.0000 C   0  0  0  0  0  0  0  0  0  0  0  0
    3.7314    3.1699    0.0000 C   0  0  0  0  0  0  0  0  0  0  0  0
    4.9364   -3.9180    0.0000 C   0  0  0  0  0  0  0  0  0  0  0  0
    3.7234   -2.6207    0.0000 C   0  0  0  0  0  0  0  0  0  0  0  0
    6.9609   -2.9430    0.0000 C   0  0  0  0  0  0  0  0  0  0  0  0
    2.9544   -3.3233    0.0000 C   0  0  0  0  0  0  0  0  0  0  0  0
    4.1839   -4.6381    0.0000 C   0  0  0  0  0  0  0  0  0  0  0  0
    6.7384   -3.9180    0.0000 C   0  0  0  0  0  0  0  0  0  0  0  0
    2.7342    3.2446    0.0000 C   0  0  0  0  0  0  0  0  0  0  0  0
    4.2947    3.9961    0.0000 C   0  0  0  0  0  0  0  0  0  0  0  0
    3.1862   -4.3388    0.0000 C   0  0  0  0  0  0  0  0  0  0  0  0
    7.9514   -2.6207    0.0000 C   0  0  0  0  0  0  0  0  0  0  0  0
    2.0000   -3.0248    0.0000 C   0  0  0  0  0  0  0  0  0  0  0  0
    2.3003    4.1456    0.0000 C   0  0  0  0  0  0  0  0  0  0  0  0
    3.8608    4.8971    0.0000 C   0  0  0  0  0  0  0  0  0  0  0  0
    2.8636    4.9718    0.0000 C   0  0  0  0  0  0  0  0  0  0  0  0
    8.7204   -3.3233    0.0000 C   0  0  0  0  0  0  0  0  0  0  0  0
    8.4886   -4.3388    0.0000 C   0  0  0  0  0  0  0  0  0  0  0  0
    3.0286    0.1484    0.0000 H   0  0  0  0  0  0  0  0  0  0  0  0
    2.9691   -0.6464    0.0000 H   0  0  0  0  0  0  0  0  0  0  0  0
    5.6298    0.6349    0.0000 H   0  0  0  0  0  0  0  0  0  0  0  0
    4.9713    1.0839    0.0000 H   0  0  0  0  0  0  0  0  0  0  0  0
    3.3095   -1.3534    0.0000 H   0  0  0  0  0  0  0  0  0  0  0  0
    3.9681   -1.8024    0.0000 H   0  0  0  0  0  0  0  0  0  0  0  0
    5.9107   -0.8669    0.0000 H   0  0  0  0  0  0  0  0  0  0  0  0
    5.9703   -0.0721    0.0000 H   0  0  0  0  0  0  0  0  0  0  0  0
    3.1581    1.8756    0.0000 H   0  0  0  0  0  0  0  0  0  0  0  0
    3.0985    1.0808    0.0000 H   0  0  0  0  0  0  0  0  0  0  0  0
    4.6091    1.8360    0.0000 H   0  0  0  0  0  0  0  0  0  0  0  0
    4.6687    2.6308    0.0000 H   0  0  0  0  0  0  0  0  0  0  0  0
    3.5925   -2.0147    0.0000 H   0  0  0  0  0  0  0  0  0  0  0  0
    5.8374   -4.9718    0.0000 H   0  0  0  0  0  0  0  0  0  0  0  0
    4.3288   -5.2409    0.0000 H   0  0  0  0  0  0  0  0  0  0  0  0
    2.3849    2.7324    0.0000 H   0  0  0  0  0  0  0  0  0  0  0  0
    4.9130    3.9498    0.0000 H   0  0  0  0  0  0  0  0  0  0  0  0
    2.7333   -4.7622    0.0000 H   0  0  0  0  0  0  0  0  0  0  0  0
    8.0824   -2.0147    0.0000 H   0  0  0  0  0  0  0  0  0  0  0  0
    2.1850   -2.4331    0.0000 H   0  0  0  0  0  0  0  0  0  0  0  0
    1.4083   -2.8398    0.0000 H   0  0  0  0  0  0  0  0  0  0  0  0
    1.8150   -3.6166    0.0000 H   0  0  0  0  0  0  0  0  0  0  0  0
    1.6820    4.1920    0.0000 H   0  0  0  0  0  0  0  0  0  0  0  0
    4.2101    5.4094    0.0000 H   0  0  0  0  0  0  0  0  0  0  0  0
    2.5946    5.5304    0.0000 H   0  0  0  0  0  0  0  0  0  0  0  0
    9.3122   -3.1383    0.0000 H   0  0  0  0  0  0  0  0  0  0  0  0
    8.9415   -4.7623    0.0000 H   0  0  0  0  0  0  0  0  0  0  0  0
  1  6  1  0  0  0  0
  1  7  1  0  0  0  0
  1 10  1  0  0  0  0
  2  8  1  0  0  0  0
  2  9  1  0  0  0  0
  2 11  1  0  0  0  0
  3 11  2  0  0  0  0
  3 17  1  0  0  0  0
  4 15  1  0  0  0  0
  4 20  1  0  0  0  0
  4 44  1  0  0  0  0
  5 20  1  0  0  0  0
  5 30  2  0  0  0  0
  6  8  1  0  0  0  0
  6 31  1  0  0  0  0
  6 32  1  0  0  0  0
  7  9  1  0  0  0  0
  7 33  1  0  0  0  0
  7 34  1  0  0  0  0
  8 35  1  0  0  0  0
  8 36  1  0  0  0  0
  9 37  1  0  0  0  0
  9 38  1  0  0  0  0
 10 12  1  0  0  0  0
 10 39  1  0  0  0  0
 10 40  1  0  0  0  0
 11 13  1  0  0  0  0
 12 14  1  0  0  0  0
 12 41  1  0  0  0  0
 12 42  1  0  0  0  0
 13 15  2  0  0  0  0
 13 16  1  0  0  0  0
 14 21  2  0  0  0  0
 14 22  1  0  0  0  0
 15 19  1  0  0  0  0
 16 18  2  0  0  0  0
 16 43  1  0  0  0  0
 17 20  2  0  0  0  0
 17 24  1  0  0  0  0
 18 23  1  0  0  0  0
 18 25  1  0  0  0  0
 19 23  2  0  0  0  0
 19 45  1  0  0  0  0
 21 26  1  0  0  0  0
 21 46  1  0  0  0  0
 22 27  2  0  0  0  0
 22 47  1  0  0  0  0
 23 48  1  0  0  0  0
 24 29  2  0  0  0  0
 24 49  1  0  0  0  0
 25 50  1  0  0  0  0
 25 51  1  0  0  0  0
 25 52  1  0  0  0  0
 26 28  2  0  0  0  0
 26 53  1  0  0  0  0
 27 28  1  0  0  0  0
 27 54  1  0  0  0  0
 28 55  1  0  0  0  0
 29 30  1  0  0  0  0
 29 56  1  0  0  0  0
 30 57  1  0  0  0  0
M  END
> <PUBCHEM_COMPOUND_CID>
11079832

> <PUBCHEM_COMPOUND_CANONICALIZED>
1

> <PUBCHEM_CACTVS_COMPLEXITY>
578

> <PUBCHEM_CACTVS_HBOND_ACCEPTOR>
4

> <PUBCHEM_CACTVS_HBOND_DONOR>
1

> <PUBCHEM_CACTVS_ROTATABLE_BOND>
4

> <PUBCHEM_CACTVS_SUBSKEYS>
AAADceB7gAAAAAAAAAAAAAAAAAAAAAAAAAA8eIEABAAAAAAB0AAAHAAQAAAADAjBGgQ/8JPIEACgAjZnZACCgCkxEiAJ2CA4dJiIYOLA2ZGUIAhokALIyCcQgMAOCAACAAACAAAQAAQAAAQAAAAAAAAAAA==

> <PUBCHEM_IUPAC_OPENEYE_NAME>
8-methyl-6-[4-(2-phenylethyl)piperazin-1-yl]-11H-pyrido[2,3-b][1,4]benzodiazepine

> <PUBCHEM_IUPAC_CAS_NAME>
8-methyl-6-[4-(2-phenylethyl)-1-piperazinyl]-11H-pyrido[2,3-b][1,4]benzodiazepine

> <PUBCHEM_IUPAC_NAME_MARKUP>
8-methyl-6-[4-(2-phenylethyl)piperazin-1-yl]-11<I>H</I>-pyrido[2,3-b][1,4]benzodiazepine

> <PUBCHEM_IUPAC_NAME>
8-methyl-6-[4-(2-phenylethyl)piperazin-1-yl]-11H-pyrido[2,3-b][1,4]benzodiazepine

> <PUBCHEM_IUPAC_SYSTEMATIC_NAME>
8-methyl-6-[4-(2-phenylethyl)piperazin-1-yl]-11H-pyrido[2,3-b][1,4]benzodiazepine

> <PUBCHEM_IUPAC_TRADITIONAL_NAME>
8-methyl-6-(4-phenethylpiperazino)-11H-pyrido[2,3-b][1,4]benzodiazepine

> <PUBCHEM_IUPAC_INCHI>
InChI=1S/C25H27N5/c1-19-9-10-22-21(18-19)25(28-23-8-5-12-26-24(23)27-22)30-16-14-29(15-17-30)13-11-20-6-3-2-4-7-20/h2-10,12,18H,11,13-17H2,1H3,(H,26,27)

> <PUBCHEM_IUPAC_INCHIKEY>
OCMWTQCINJDJDB-UHFFFAOYSA-N

> <PUBCHEM_XLOGP3_AA>
4

> <PUBCHEM_EXACT_MASS>
397.22664588

> <PUBCHEM_MOLECULAR_FORMULA>
C25H27N5

> <PUBCHEM_MOLECULAR_WEIGHT>
397.5

> <PUBCHEM_OPENEYE_CAN_SMILES>
CC1=CC2=C(C=C1)NC3=C(C=CC=N3)N=C2N4CCN(CC4)CCC5=CC=CC=C5

> <PUBCHEM_OPENEYE_ISO_SMILES>
CC1=CC2=C(C=C1)NC3=C(C=CC=N3)N=C2N4CCN(CC4)CCC5=CC=CC=C5

> <PUBCHEM_CACTVS_TPSA>
43.8

> <PUBCHEM_MONOISOTOPIC_WEIGHT>
397.22664588

> <PUBCHEM_TOTAL_CHARGE>
0

> <PUBCHEM_HEAVY_ATOM_COUNT>
30

> <PUBCHEM_ATOM_DEF_STEREO_COUNT>
0

> <PUBCHEM_ATOM_UDEF_STEREO_COUNT>
0

> <PUBCHEM_BOND_DEF_STEREO_COUNT>
0

> <PUBCHEM_BOND_UDEF_STEREO_COUNT>
0

> <PUBCHEM_ISOTOPIC_ATOM_COUNT>
0

> <PUBCHEM_COMPONENT_COUNT>
1

> <PUBCHEM_CACTVS_TAUTO_COUNT>
-1

> <PUBCHEM_COORDINATE_TYPE>
1
5
255

> <PUBCHEM_BONDANNOTATIONS>
13  15  8
13  16  8
14  21  8
14  22  8
15  19  8
16  18  8
17  20  8
17  24  8
18  23  8
19  23  8
21  26  8
22  27  8
24  29  8
26  28  8
27  28  8
29  30  8
5  20  8
5  30  8

$$$$
