44436723
  -OEChem-09292322252D

 62 65  0     0  0  0  0  0  0999 V2000
    8.0052    5.0684    0.0000 S   0  0  0  0  0  0  0  0  0  0  0  0
    8.0622    2.9806    0.0000 O   0  0  0  0  0  0  0  0  0  0  0  0
    4.5981   -3.0194    0.0000 N   0  0  0  0  0  0  0  0  0  0  0  0
    4.5981   -1.0194    0.0000 N   0  0  0  0  0  0  0  0  0  0  0  0
    6.3301    2.9806    0.0000 N   0  0  0  0  0  0  0  0  0  0  0  0
    3.7320   -2.5194    0.0000 C   0  0  0  0  0  0  0  0  0  0  0  0
    5.4641   -2.5194    0.0000 C   0  0  0  0  0  0  0  0  0  0  0  0
    3.7320   -1.5194    0.0000 C   0  0  0  0  0  0  0  0  0  0  0  0
    5.4641   -1.5194    0.0000 C   0  0  0  0  0  0  0  0  0  0  0  0
    4.5981   -4.0194    0.0000 C   0  0  0  0  0  0  0  0  0  0  0  0
    4.5981   -0.0194    0.0000 C   0  0  0  0  0  0  0  0  0  0  0  0
    5.4641    0.4806    0.0000 C   0  0  0  0  0  0  0  0  0  0  0  0
    3.7320   -4.5194    0.0000 C   0  0  0  0  0  0  0  0  0  0  0  0
    5.4641   -4.5194    0.0000 C   0  0  0  0  0  0  0  0  0  0  0  0
    5.4641    1.4806    0.0000 C   0  0  0  0  0  0  0  0  0  0  0  0
    3.7320   -5.5194    0.0000 C   0  0  0  0  0  0  0  0  0  0  0  0
    6.3301   -4.0194    0.0000 C   0  0  0  0  0  0  0  0  0  0  0  0
    2.8660   -4.0194    0.0000 C   0  0  0  0  0  0  0  0  0  0  0  0
    5.4641   -5.5194    0.0000 C   0  0  0  0  0  0  0  0  0  0  0  0
    6.3301    1.9806    0.0000 C   0  0  0  0  0  0  0  0  0  0  0  0
    2.8660   -6.0194    0.0000 C   0  0  0  0  0  0  0  0  0  0  0  0
    7.1962   -4.5194    0.0000 C   0  0  0  0  0  0  0  0  0  0  0  0
    2.0000   -4.5194    0.0000 C   0  0  0  0  0  0  0  0  0  0  0  0
    6.3301   -6.0194    0.0000 C   0  0  0  0  0  0  0  0  0  0  0  0
    2.0000   -5.5194    0.0000 C   0  0  0  0  0  0  0  0  0  0  0  0
    7.1962   -5.5194    0.0000 C   0  0  0  0  0  0  0  0  0  0  0  0
    7.1962    3.4806    0.0000 C   0  0  0  0  0  0  0  0  0  0  0  0
    7.1962    4.4806    0.0000 C   0  0  0  0  0  0  0  0  0  0  0  0
    6.3871    5.0684    0.0000 C   0  0  0  0  0  0  0  0  0  0  0  0
    6.6962    6.0194    0.0000 C   0  0  0  0  0  0  0  0  0  0  0  0
    7.6962    6.0194    0.0000 C   0  0  0  0  0  0  0  0  0  0  0  0
    3.1215   -2.4118    0.0000 H   0  0  0  0  0  0  0  0  0  0  0  0
    3.5200   -3.1020    0.0000 H   0  0  0  0  0  0  0  0  0  0  0  0
    5.6762   -3.1020    0.0000 H   0  0  0  0  0  0  0  0  0  0  0  0
    6.0747   -2.4118    0.0000 H   0  0  0  0  0  0  0  0  0  0  0  0
    3.5200   -0.9368    0.0000 H   0  0  0  0  0  0  0  0  0  0  0  0
    3.1215   -1.6271    0.0000 H   0  0  0  0  0  0  0  0  0  0  0  0
    6.0747   -1.6271    0.0000 H   0  0  0  0  0  0  0  0  0  0  0  0
    5.6762   -0.9368    0.0000 H   0  0  0  0  0  0  0  0  0  0  0  0
    4.5981   -4.6394    0.0000 H   0  0  0  0  0  0  0  0  0  0  0  0
    4.3860    0.5632    0.0000 H   0  0  0  0  0  0  0  0  0  0  0  0
    3.9875   -0.1271    0.0000 H   0  0  0  0  0  0  0  0  0  0  0  0
    5.6762   -0.1020    0.0000 H   0  0  0  0  0  0  0  0  0  0  0  0
    6.0747    0.5882    0.0000 H   0  0  0  0  0  0  0  0  0  0  0  0
    5.2520    2.0632    0.0000 H   0  0  0  0  0  0  0  0  0  0  0  0
    4.8535    1.3729    0.0000 H   0  0  0  0  0  0  0  0  0  0  0  0
    4.2690   -5.8294    0.0000 H   0  0  0  0  0  0  0  0  0  0  0  0
    6.3301   -3.3994    0.0000 H   0  0  0  0  0  0  0  0  0  0  0  0
    2.8660   -3.3994    0.0000 H   0  0  0  0  0  0  0  0  0  0  0  0
    4.9272   -5.8294    0.0000 H   0  0  0  0  0  0  0  0  0  0  0  0
    6.5422    1.3980    0.0000 H   0  0  0  0  0  0  0  0  0  0  0  0
    6.9407    2.0882    0.0000 H   0  0  0  0  0  0  0  0  0  0  0  0
    2.8660   -6.6394    0.0000 H   0  0  0  0  0  0  0  0  0  0  0  0
    7.7331   -4.2094    0.0000 H   0  0  0  0  0  0  0  0  0  0  0  0
    1.4631   -4.2094    0.0000 H   0  0  0  0  0  0  0  0  0  0  0  0
    6.3301   -6.6394    0.0000 H   0  0  0  0  0  0  0  0  0  0  0  0
    5.7932    3.2906    0.0000 H   0  0  0  0  0  0  0  0  0  0  0  0
    1.4631   -5.8294    0.0000 H   0  0  0  0  0  0  0  0  0  0  0  0
    7.7331   -5.8294    0.0000 H   0  0  0  0  0  0  0  0  0  0  0  0
    5.7975    4.8768    0.0000 H   0  0  0  0  0  0  0  0  0  0  0  0
    6.3317    6.5210    0.0000 H   0  0  0  0  0  0  0  0  0  0  0  0
    8.0606    6.5210    0.0000 H   0  0  0  0  0  0  0  0  0  0  0  0
  1 28  1  0  0  0  0
  1 31  1  0  0  0  0
  2 27  2  0  0  0  0
  3  6  1  0  0  0  0
  3  7  1  0  0  0  0
  3 10  1  0  0  0  0
  4  8  1  0  0  0  0
  4  9  1  0  0  0  0
  4 11  1  0  0  0  0
  5 20  1  0  0  0  0
  5 27  1  0  0  0  0
  5 57  1  0  0  0  0
  6  8  1  0  0  0  0
  6 32  1  0  0  0  0
  6 33  1  0  0  0  0
  7  9  1  0  0  0  0
  7 34  1  0  0  0  0
  7 35  1  0  0  0  0
  8 36  1  0  0  0  0
  8 37  1  0  0  0  0
  9 38  1  0  0  0  0
  9 39  1  0  0  0  0
 10 13  1  0  0  0  0
 10 14  1  0  0  0  0
 10 40  1  0  0  0  0
 11 12  1  0  0  0  0
 11 41  1  0  0  0  0
 11 42  1  0  0  0  0
 12 15  1  0  0  0  0
 12 43  1  0  0  0  0
 12 44  1  0  0  0  0
 13 16  2  0  0  0  0
 13 18  1  0  0  0  0
 14 17  2  0  0  0  0
 14 19  1  0  0  0  0
 15 20  1  0  0  0  0
 15 45  1  0  0  0  0
 15 46  1  0  0  0  0
 16 21  1  0  0  0  0
 16 47  1  0  0  0  0
 17 22  1  0  0  0  0
 17 48  1  0  0  0  0
 18 23  2  0  0  0  0
 18 49  1  0  0  0  0
 19 24  2  0  0  0  0
 19 50  1  0  0  0  0
 20 51  1  0  0  0  0
 20 52  1  0  0  0  0
 21 25  2  0  0  0  0
 21 53  1  0  0  0  0
 22 26  2  0  0  0  0
 22 54  1  0  0  0  0
 23 25  1  0  0  0  0
 23 55  1  0  0  0  0
 24 26  1  0  0  0  0
 24 56  1  0  0  0  0
 25 58  1  0  0  0  0
 26 59  1  0  0  0  0
 27 28  1  0  0  0  0
 28 29  2  0  0  0  0
 29 30  1  0  0  0  0
 29 60  1  0  0  0  0
 30 31  2  0  0  0  0
 30 61  1  0  0  0  0
 31 62  1  0  0  0  0
M  END
> <PUBCHEM_COMPOUND_CID>
44436723

> <PUBCHEM_COMPOUND_CANONICALIZED>
1

> <PUBCHEM_CACTVS_COMPLEXITY>
507

> <PUBCHEM_CACTVS_HBOND_ACCEPTOR>
4

> <PUBCHEM_CACTVS_HBOND_DONOR>
1

> <PUBCHEM_CACTVS_ROTATABLE_BOND>
9

> <PUBCHEM_CACTVS_SUBSKEYS>
AAADceB7IABAAAAAAAAAAAAAAAAAASAAAAA8YIAAAAAAAAAB0AAAHgQQAAAADCjF2ASwAYPAAAiMAiFSEACDAIAkCBBIiJkIBMgIYDKglRGUIQhglgCoiYcYgMAOAAAAAAAAAAAAAAAAAAAAAAAAAAAAAA==

> <PUBCHEM_IUPAC_OPENEYE_NAME>
N-[4-(4-benzhydrylpiperazin-1-yl)butyl]thiophene-2-carboxamide

> <PUBCHEM_IUPAC_CAS_NAME>
N-[4-[4-(diphenylmethyl)-1-piperazinyl]butyl]-2-thiophenecarboxamide

> <PUBCHEM_IUPAC_NAME_MARKUP>
<I>N</I>-[4-(4-benzhydrylpiperazin-1-yl)butyl]thiophene-2-carboxamide

> <PUBCHEM_IUPAC_NAME>
N-[4-(4-benzhydrylpiperazin-1-yl)butyl]thiophene-2-carboxamide

> <PUBCHEM_IUPAC_SYSTEMATIC_NAME>
N-[4-[4-(diphenylmethyl)piperazin-1-yl]butyl]thiophene-2-carboxamide

> <PUBCHEM_IUPAC_TRADITIONAL_NAME>
N-[4-(4-benzhydrylpiperazino)butyl]thiophene-2-carboxamide

> <PUBCHEM_IUPAC_INCHI>
InChI=1S/C26H31N3OS/c30-26(24-14-9-21-31-24)27-15-7-8-16-28-17-19-29(20-18-28)25(22-10-3-1-4-11-22)23-12-5-2-6-13-23/h1-6,9-14,21,25H,7-8,15-20H2,(H,27,30)

> <PUBCHEM_IUPAC_INCHIKEY>
WQUZZFHQRGWHPE-UHFFFAOYSA-N

> <PUBCHEM_XLOGP3_AA>
5

> <PUBCHEM_EXACT_MASS>
433.21878379

> <PUBCHEM_MOLECULAR_FORMULA>
C26H31N3OS

> <PUBCHEM_MOLECULAR_WEIGHT>
433.6

> <PUBCHEM_OPENEYE_CAN_SMILES>
C1CN(CCN1CCCCNC(=O)C2=CC=CS2)C(C3=CC=CC=C3)C4=CC=CC=C4

> <PUBCHEM_OPENEYE_ISO_SMILES>
C1CN(CCN1CCCCNC(=O)C2=CC=CS2)C(C3=CC=CC=C3)C4=CC=CC=C4

> <PUBCHEM_CACTVS_TPSA>
63.8

> <PUBCHEM_MONOISOTOPIC_WEIGHT>
433.21878379

> <PUBCHEM_TOTAL_CHARGE>
0

> <PUBCHEM_HEAVY_ATOM_COUNT>
31

> <PUBCHEM_ATOM_DEF_STEREO_COUNT>
0

> <PUBCHEM_ATOM_UDEF_STEREO_COUNT>
0

> <PUBCHEM_BOND_DEF_STEREO_COUNT>
0

> <PUBCHEM_BOND_UDEF_STEREO_COUNT>
0

> <PUBCHEM_ISOTOPIC_ATOM_COUNT>
0

> <PUBCHEM_COMPONENT_COUNT>
1

> <PUBCHEM_CACTVS_TAUTO_COUNT>
-1

> <PUBCHEM_COORDINATE_TYPE>
1
5
255

> <PUBCHEM_BONDANNOTATIONS>
1  28  8
1  31  8
13  16  8
13  18  8
14  17  8
14  19  8
16  21  8
17  22  8
18  23  8
19  24  8
21  25  8
22  26  8
23  25  8
24  26  8
28  29  8
29  30  8
30  31  8

$$$$
