45266092
  -OEChem-09292322202D

 37 38  0     0  0  0  0  0  0999 V2000
    3.6974    0.0000    0.0000 Cl  0  0  0  0  0  0  0  0  0  0  0  0
    8.3949    6.8278    0.0000 F   0  0  0  0  0  0  0  0  0  0  0  0
    4.2078    3.1676    0.0000 O   0  0  0  0  0  0  0  0  0  0  0  0
    3.8988    5.7367    0.0000 O   0  0  0  0  0  0  0  0  0  0  0  0
    1.6200    3.9766    0.0000 N   0  0  0  0  0  0  0  0  0  0  0  0
    3.6200    3.9766    0.0000 C   0  0  0  0  0  0  0  0  0  0  0  0
    3.1200    4.8426    0.0000 C   0  0  0  0  0  0  0  0  0  0  0  0
    3.1200    3.1106    0.0000 C   0  0  0  0  0  0  0  0  0  0  0  0
    2.1200    4.8426    0.0000 C   0  0  0  0  0  0  0  0  0  0  0  0
    2.1200    3.1106    0.0000 C   0  0  0  0  0  0  0  0  0  0  0  0
    4.2078    4.7856    0.0000 C   0  0  0  0  0  0  0  0  0  0  0  0
    5.1588    4.4766    0.0000 C   0  0  0  0  0  0  0  0  0  0  0  0
    5.1588    3.4766    0.0000 C   0  0  0  0  0  0  0  0  0  0  0  0
    0.6200    3.9766    0.0000 C   0  0  0  0  0  0  0  0  0  0  0  0
    5.9679    5.0644    0.0000 C   0  0  0  0  0  0  0  0  0  0  0  0
    5.8633    6.0589    0.0000 C   0  0  0  0  0  0  0  0  0  0  0  0
    6.8814    4.6577    0.0000 C   0  0  0  0  0  0  0  0  0  0  0  0
    6.6724    6.6467    0.0000 C   0  0  0  0  0  0  0  0  0  0  0  0
    7.6904    5.2454    0.0000 C   0  0  0  0  0  0  0  0  0  0  0  0
    7.5859    6.2400    0.0000 C   0  0  0  0  0  0  0  0  0  0  0  0
    3.7026    5.0547    0.0000 H   0  0  0  0  0  0  0  0  0  0  0  0
    3.0123    5.4532    0.0000 H   0  0  0  0  0  0  0  0  0  0  0  0
    3.0123    2.5000    0.0000 H   0  0  0  0  0  0  0  0  0  0  0  0
    3.7026    2.8985    0.0000 H   0  0  0  0  0  0  0  0  0  0  0  0
    2.2277    5.4532    0.0000 H   0  0  0  0  0  0  0  0  0  0  0  0
    1.5374    5.0547    0.0000 H   0  0  0  0  0  0  0  0  0  0  0  0
    1.5374    2.8985    0.0000 H   0  0  0  0  0  0  0  0  0  0  0  0
    2.2277    2.5000    0.0000 H   0  0  0  0  0  0  0  0  0  0  0  0
    5.6604    3.1122    0.0000 H   0  0  0  0  0  0  0  0  0  0  0  0
    0.6200    4.5966    0.0000 H   0  0  0  0  0  0  0  0  0  0  0  0
    0.0000    3.9766    0.0000 H   0  0  0  0  0  0  0  0  0  0  0  0
    0.6200    3.3566    0.0000 H   0  0  0  0  0  0  0  0  0  0  0  0
    5.2969    6.3111    0.0000 H   0  0  0  0  0  0  0  0  0  0  0  0
    6.9462    4.0410    0.0000 H   0  0  0  0  0  0  0  0  0  0  0  0
    6.6075    7.2633    0.0000 H   0  0  0  0  0  0  0  0  0  0  0  0
    8.2568    4.9933    0.0000 H   0  0  0  0  0  0  0  0  0  0  0  0
    4.6974    0.0000    0.0000 H   0  0  0  0  0  0  0  0  0  0  0  0
  1 37  1  0  0  0  0
  2 20  1  0  0  0  0
  3  6  1  0  0  0  0
  3 13  1  0  0  0  0
  4 11  2  0  0  0  0
  5  9  1  0  0  0  0
  5 10  1  0  0  0  0
  5 14  1  0  0  0  0
  6  7  1  0  0  0  0
  6  8  1  0  0  0  0
  6 11  1  0  0  0  0
  7  9  1  0  0  0  0
  7 21  1  0  0  0  0
  7 22  1  0  0  0  0
  8 10  1  0  0  0  0
  8 23  1  0  0  0  0
  8 24  1  0  0  0  0
  9 25  1  0  0  0  0
  9 26  1  0  0  0  0
 10 27  1  0  0  0  0
 10 28  1  0  0  0  0
 11 12  1  0  0  0  0
 12 13  2  0  0  0  0
 12 15  1  0  0  0  0
 13 29  1  0  0  0  0
 14 30  1  0  0  0  0
 14 31  1  0  0  0  0
 14 32  1  0  0  0  0
 15 16  2  0  0  0  0
 15 17  1  0  0  0  0
 16 18  1  0  0  0  0
 16 33  1  0  0  0  0
 17 19  2  0  0  0  0
 17 34  1  0  0  0  0
 18 20  2  0  0  0  0
 18 35  1  0  0  0  0
 19 20  1  0  0  0  0
 19 36  1  0  0  0  0
M  END
> <PUBCHEM_COMPOUND_CID>
45266092

> <PUBCHEM_COMPOUND_CANONICALIZED>
1

> <PUBCHEM_CACTVS_COMPLEXITY>
391

> <PUBCHEM_CACTVS_HBOND_ACCEPTOR>
4

> <PUBCHEM_CACTVS_HBOND_DONOR>
1

> <PUBCHEM_CACTVS_ROTATABLE_BOND>
1

> <PUBCHEM_CACTVS_SUBSKEYS>
AAADceByMQAEAAAAAAAAAAAAAAAAAQAAAAA8QAAAAAAAAAABAAAAHwAAAAAADEThmA4yAIMABACIAqBSAAICCAAgIAAIiAFIAMgIIDKAlRSEIAAmwACIiIecyOCOAAAAAAAAAAAAAAAAAAAAAAAAAAAAAA==

> <PUBCHEM_IUPAC_OPENEYE_NAME>
3-(4-fluorophenyl)-8-methyl-1-oxa-8-azaspiro[4.5]dec-2-en-4-one;hydrochloride

> <PUBCHEM_IUPAC_CAS_NAME>
3-(4-fluorophenyl)-8-methyl-1-oxa-8-azaspiro[4.5]dec-2-en-4-one;hydrochloride

> <PUBCHEM_IUPAC_NAME_MARKUP>
3-(4-fluorophenyl)-8-methyl-1-oxa-8-azaspiro[4.5]dec-2-en-4-one;hydrochloride

> <PUBCHEM_IUPAC_NAME>
3-(4-fluorophenyl)-8-methyl-1-oxa-8-azaspiro[4.5]dec-2-en-4-one;hydrochloride

> <PUBCHEM_IUPAC_SYSTEMATIC_NAME>
3-(4-fluorophenyl)-8-methyl-1-oxa-8-azaspiro[4.5]dec-2-en-4-one;hydrochloride

> <PUBCHEM_IUPAC_TRADITIONAL_NAME>
3-(4-fluorophenyl)-8-methyl-1-oxa-8-azaspiro[4.5]dec-2-en-4-one;hydrochloride

> <PUBCHEM_IUPAC_INCHI>
InChI=1S/C15H16FNO2.ClH/c1-17-8-6-15(7-9-17)14(18)13(10-19-15)11-2-4-12(16)5-3-11;/h2-5,10H,6-9H2,1H3;1H

> <PUBCHEM_IUPAC_INCHIKEY>
BDPRXASSSQEJIA-UHFFFAOYSA-N

> <PUBCHEM_EXACT_MASS>
297.0931846

> <PUBCHEM_MOLECULAR_FORMULA>
C15H17ClFNO2

> <PUBCHEM_MOLECULAR_WEIGHT>
297.75

> <PUBCHEM_OPENEYE_CAN_SMILES>
CN1CCC2(CC1)C(=O)C(=CO2)C3=CC=C(C=C3)F.Cl

> <PUBCHEM_OPENEYE_ISO_SMILES>
CN1CCC2(CC1)C(=O)C(=CO2)C3=CC=C(C=C3)F.Cl

> <PUBCHEM_CACTVS_TPSA>
29.5

> <PUBCHEM_MONOISOTOPIC_WEIGHT>
297.0931846

> <PUBCHEM_TOTAL_CHARGE>
0

> <PUBCHEM_HEAVY_ATOM_COUNT>
20

> <PUBCHEM_ATOM_DEF_STEREO_COUNT>
0

> <PUBCHEM_ATOM_UDEF_STEREO_COUNT>
0

> <PUBCHEM_BOND_DEF_STEREO_COUNT>
0

> <PUBCHEM_BOND_UDEF_STEREO_COUNT>
0

> <PUBCHEM_ISOTOPIC_ATOM_COUNT>
0

> <PUBCHEM_COMPONENT_COUNT>
2

> <PUBCHEM_CACTVS_TAUTO_COUNT>
-1

> <PUBCHEM_COORDINATE_TYPE>
1
5
255

> <PUBCHEM_BONDANNOTATIONS>
15  16  8
15  17  8
16  18  8
17  19  8
18  20  8
19  20  8

$$$$
