121304417
  -OEChem-09292322372D

 68 73  0     1  0  0  0  0  0999 V2000
    4.6691    0.8114    0.0000 S   0  0  0  0  0  0  0  0  0  0  0  0
   10.3613   -7.5386    0.0000 F   0  0  0  0  0  0  0  0  0  0  0  0
    8.9952   -7.9046    0.0000 F   0  0  0  0  0  0  0  0  0  0  0  0
    9.9952   -6.1726    0.0000 F   0  0  0  0  0  0  0  0  0  0  0  0
    2.0000    6.4080    0.0000 O   0  0  0  0  0  0  0  0  0  0  0  0
    5.0312   -2.6337    0.0000 N   0  0  3  0  0  0  0  0  0  0  0  0
    4.3903    2.5715    0.0000 N   0  0  0  0  0  0  0  0  0  0  0  0
    2.7722    2.5715    0.0000 N   0  0  0  0  0  0  0  0  0  0  0  0
    3.0813    1.6204    0.0000 N   0  0  0  0  0  0  0  0  0  0  0  0
    5.5312   -4.1726    0.0000 C   0  0  2  0  0  0  0  0  0  0  0  0
    6.0312   -5.0386    0.0000 C   0  0  2  0  0  0  0  0  0  0  0  0
    5.0312   -5.0386    0.0000 C   0  0  0  0  0  0  0  0  0  0  0  0
    6.3402   -3.5848    0.0000 C   0  0  0  0  0  0  0  0  0  0  0  0
    4.7221   -3.5848    0.0000 C   0  0  0  0  0  0  0  0  0  0  0  0
    6.0312   -2.6337    0.0000 C   0  0  0  0  0  0  0  0  0  0  0  0
    6.8972   -5.5386    0.0000 C   0  0  0  0  0  0  0  0  0  0  0  0
    4.4434   -1.8247    0.0000 C   0  0  0  0  0  0  0  0  0  0  0  0
    7.7632   -5.0386    0.0000 C   0  0  0  0  0  0  0  0  0  0  0  0
    6.8972   -6.5386    0.0000 C   0  0  0  0  0  0  0  0  0  0  0  0
    4.8501   -0.9112    0.0000 C   0  0  0  0  0  0  0  0  0  0  0  0
    8.6292   -5.5386    0.0000 C   0  0  0  0  0  0  0  0  0  0  0  0
    7.7632   -7.0386    0.0000 C   0  0  0  0  0  0  0  0  0  0  0  0
    3.1753    6.7641    0.0000 C   0  0  3  0  0  0  0  0  0  0  0  0
    3.9944    6.1905    0.0000 C   0  0  3  0  0  0  0  0  0  0  0  0
    3.5813    4.1592    0.0000 C   0  0  0  0  0  0  0  0  0  0  0  0
    8.6292   -6.5386    0.0000 C   0  0  0  0  0  0  0  0  0  0  0  0
    2.7722    4.7470    0.0000 C   0  0  0  0  0  0  0  0  0  0  0  0
    4.3903    4.7470    0.0000 C   0  0  0  0  0  0  0  0  0  0  0  0
    4.2623   -0.1022    0.0000 C   0  0  0  0  0  0  0  0  0  0  0  0
    4.1319    7.9046    0.0000 C   0  0  0  0  0  0  0  0  0  0  0  0
    4.9510    7.3310    0.0000 C   0  0  0  0  0  0  0  0  0  0  0  0
    3.5813    3.1592    0.0000 C   0  0  0  0  0  0  0  0  0  0  0  0
    9.4952   -7.0386    0.0000 C   0  0  0  0  0  0  0  0  0  0  0  0
    4.0813    1.6204    0.0000 C   0  0  0  0  0  0  0  0  0  0  0  0
    5.3413    2.8805    0.0000 C   0  0  0  0  0  0  0  0  0  0  0  0
    5.8707   -5.6375    0.0000 H   0  0  0  0  0  0  0  0  0  0  0  0
    4.4485   -4.8265    0.0000 H   0  0  0  0  0  0  0  0  0  0  0  0
    4.9235   -5.6492    0.0000 H   0  0  0  0  0  0  0  0  0  0  0  0
    6.6502   -4.1217    0.0000 H   0  0  0  0  0  0  0  0  0  0  0  0
    6.9066   -3.3326    0.0000 H   0  0  0  0  0  0  0  0  0  0  0  0
    4.1557   -3.3326    0.0000 H   0  0  0  0  0  0  0  0  0  0  0  0
    4.4121   -4.1217    0.0000 H   0  0  0  0  0  0  0  0  0  0  0  0
    6.6376   -2.5048    0.0000 H   0  0  0  0  0  0  0  0  0  0  0  0
    5.9663   -2.0171    0.0000 H   0  0  0  0  0  0  0  0  0  0  0  0
    3.9294   -1.4780    0.0000 H   0  0  0  0  0  0  0  0  0  0  0  0
    4.0127   -2.2707    0.0000 H   0  0  0  0  0  0  0  0  0  0  0  0
    7.7632   -4.4186    0.0000 H   0  0  0  0  0  0  0  0  0  0  0  0
    6.3602   -6.8486    0.0000 H   0  0  0  0  0  0  0  0  0  0  0  0
    5.3641   -1.2579    0.0000 H   0  0  0  0  0  0  0  0  0  0  0  0
    5.2808   -0.4652    0.0000 H   0  0  0  0  0  0  0  0  0  0  0  0
    9.1662   -5.2286    0.0000 H   0  0  0  0  0  0  0  0  0  0  0  0
    7.7632   -7.6586    0.0000 H   0  0  0  0  0  0  0  0  0  0  0  0
    3.7342    6.4958    0.0000 H   0  0  0  0  0  0  0  0  0  0  0  0
    4.6002    6.0582    0.0000 H   0  0  0  0  0  0  0  0  0  0  0  0
    3.0288    3.8778    0.0000 H   0  0  0  0  0  0  0  0  0  0  0  0
    2.1879    4.9543    0.0000 H   0  0  0  0  0  0  0  0  0  0  0  0
    2.4834    4.1984    0.0000 H   0  0  0  0  0  0  0  0  0  0  0  0
    4.6919    4.2054    0.0000 H   0  0  0  0  0  0  0  0  0  0  0  0
    4.9642    4.9815    0.0000 H   0  0  0  0  0  0  0  0  0  0  0  0
    4.5021    8.4020    0.0000 H   0  0  0  0  0  0  0  0  0  0  0  0
    3.6455    8.2891    0.0000 H   0  0  0  0  0  0  0  0  0  0  0  0
    5.4374    6.9466    0.0000 H   0  0  0  0  0  0  0  0  0  0  0  0
    5.3212    7.8284    0.0000 H   0  0  0  0  0  0  0  0  0  0  0  0
    3.7483    0.2445    0.0000 H   0  0  0  0  0  0  0  0  0  0  0  0
    3.8316   -0.5481    0.0000 H   0  0  0  0  0  0  0  0  0  0  0  0
    5.5329    2.2908    0.0000 H   0  0  0  0  0  0  0  0  0  0  0  0
    5.9310    3.0721    0.0000 H   0  0  0  0  0  0  0  0  0  0  0  0
    5.1498    3.4701    0.0000 H   0  0  0  0  0  0  0  0  0  0  0  0
  1 29  1  0  0  0  0
  1 34  1  0  0  0  0
  2 33  1  0  0  0  0
  3 33  1  0  0  0  0
  4 33  1  0  0  0  0
  5 23  1  0  0  0  0
  5 24  1  0  0  0  0
  6 14  1  0  0  0  0
  6 15  1  0  0  0  0
  6 17  1  0  0  0  0
  7 32  1  0  0  0  0
  7 34  1  0  0  0  0
  7 35  1  0  0  0  0
  8  9  1  0  0  0  0
  8 32  2  0  0  0  0
  9 34  2  0  0  0  0
 10 11  1  0  0  0  0
 10 12  1  6  0  0  0
 10 13  1  0  0  0  0
 10 14  1  0  0  0  0
 11 12  1  0  0  0  0
 11 16  1  1  0  0  0
 11 36  1  0  0  0  0
 12 37  1  0  0  0  0
 12 38  1  0  0  0  0
 13 15  1  0  0  0  0
 13 39  1  0  0  0  0
 13 40  1  0  0  0  0
 14 41  1  0  0  0  0
 14 42  1  0  0  0  0
 15 43  1  0  0  0  0
 15 44  1  0  0  0  0
 16 18  2  0  0  0  0
 16 19  1  0  0  0  0
 17 20  1  0  0  0  0
 17 45  1  0  0  0  0
 17 46  1  0  0  0  0
 18 21  1  0  0  0  0
 18 47  1  0  0  0  0
 19 22  2  0  0  0  0
 19 48  1  0  0  0  0
 20 29  1  0  0  0  0
 20 49  1  0  0  0  0
 20 50  1  0  0  0  0
 21 26  2  0  0  0  0
 21 51  1  0  0  0  0
 22 26  1  0  0  0  0
 22 52  1  0  0  0  0
 23 27  1  0  0  0  0
 23 30  1  0  0  0  0
 23 53  1  0  0  0  0
 24 28  1  0  0  0  0
 24 31  1  0  0  0  0
 24 54  1  0  0  0  0
 25 27  1  0  0  0  0
 25 28  1  0  0  0  0
 25 32  1  0  0  0  0
 25 55  1  0  0  0  0
 26 33  1  0  0  0  0
 27 56  1  0  0  0  0
 27 57  1  0  0  0  0
 28 58  1  0  0  0  0
 28 59  1  0  0  0  0
 29 64  1  0  0  0  0
 29 65  1  0  0  0  0
 30 31  1  0  0  0  0
 30 60  1  0  0  0  0
 30 61  1  0  0  0  0
 31 62  1  0  0  0  0
 31 63  1  0  0  0  0
 35 66  1  0  0  0  0
 35 67  1  0  0  0  0
 35 68  1  0  0  0  0
M  END
> <PUBCHEM_COMPOUND_CID>
121304417

> <PUBCHEM_COMPOUND_CANONICALIZED>
1

> <PUBCHEM_CACTVS_COMPLEXITY>
739

> <PUBCHEM_CACTVS_HBOND_ACCEPTOR>
8

> <PUBCHEM_CACTVS_HBOND_DONOR>
0

> <PUBCHEM_CACTVS_ROTATABLE_BOND>
7

> <PUBCHEM_CACTVS_SUBSKEYS>
AAADcfB7oYBAAAAAAAAAAAAAGAAAAWLEgAA0QAAABgAAAAABwAAAHwQIAAAADxTl2xazEIcMFAiiAiJiJAAS0AtgALAdyAA4AIiIKCKgmRCGIAAkiAKIiAewwOAPwAAAAAAAAACAAAAAAAAAAAAAAAAAAA==

> <PUBCHEM_IUPAC_OPENEYE_NAME>
(2R,3S)-5-[3-[[4-methyl-5-(8-oxabicyclo[3.2.1]octan-3-yl)-1,2,4-triazol-3-yl]sulfanyl]propyl]-2-[4-(trifluoromethyl)phenyl]-5-azaspiro[2.4]heptane

> <PUBCHEM_IUPAC_CAS_NAME>
(2R,3S)-5-[3-[[4-methyl-5-(8-oxabicyclo[3.2.1]octan-3-yl)-1,2,4-triazol-3-yl]thio]propyl]-2-[4-(trifluoromethyl)phenyl]-5-azaspiro[2.4]heptane

> <PUBCHEM_IUPAC_NAME_MARKUP>
(2<I>R</I>,3<I>S</I>)-5-[3-[[4-methyl-5-(8-oxabicyclo[3.2.1]octan-3-yl)-1,2,4-triazol-3-yl]sulfanyl]propyl]-2-[4-(trifluoromethyl)phenyl]-5-azaspiro[2.4]heptane

> <PUBCHEM_IUPAC_NAME>
(2R,3S)-5-[3-[[4-methyl-5-(8-oxabicyclo[3.2.1]octan-3-yl)-1,2,4-triazol-3-yl]sulfanyl]propyl]-2-[4-(trifluoromethyl)phenyl]-5-azaspiro[2.4]heptane

> <PUBCHEM_IUPAC_SYSTEMATIC_NAME>
(2R,3S)-5-[3-[[4-methyl-5-(8-oxabicyclo[3.2.1]octan-3-yl)-1,2,4-triazol-3-yl]sulfanyl]propyl]-2-[4-(trifluoromethyl)phenyl]-5-azaspiro[2.4]heptane

> <PUBCHEM_IUPAC_TRADITIONAL_NAME>
(2R,3S)-5-[3-[[4-methyl-5-(8-oxabicyclo[3.2.1]octan-3-yl)-1,2,4-triazol-3-yl]thio]propyl]-2-[4-(trifluoromethyl)phenyl]-5-azaspiro[2.4]heptane

> <PUBCHEM_IUPAC_INCHI>
InChI=1S/C26H33F3N4OS/c1-32-23(18-13-20-7-8-21(14-18)34-20)30-31-24(32)35-12-2-10-33-11-9-25(16-33)15-22(25)17-3-5-19(6-4-17)26(27,28)29/h3-6,18,20-22H,2,7-16H2,1H3/t18?,20?,21?,22-,25+/m1/s1

> <PUBCHEM_IUPAC_INCHIKEY>
IQKUCRAAVAKXAF-CEJRHITASA-N

> <PUBCHEM_XLOGP3_AA>
4.7

> <PUBCHEM_EXACT_MASS>
506.23271735

> <PUBCHEM_MOLECULAR_FORMULA>
C26H33F3N4OS

> <PUBCHEM_MOLECULAR_WEIGHT>
506.6

> <PUBCHEM_OPENEYE_CAN_SMILES>
CN1C(=NN=C1SCCCN2CCC3(C2)CC3C4=CC=C(C=C4)C(F)(F)F)C5CC6CCC(C5)O6

> <PUBCHEM_OPENEYE_ISO_SMILES>
CN1C(=NN=C1SCCCN2CC[C@@]3(C2)C[C@@H]3C4=CC=C(C=C4)C(F)(F)F)C5CC6CCC(C5)O6

> <PUBCHEM_CACTVS_TPSA>
68.5

> <PUBCHEM_MONOISOTOPIC_WEIGHT>
506.23271735

> <PUBCHEM_TOTAL_CHARGE>
0

> <PUBCHEM_HEAVY_ATOM_COUNT>
35

> <PUBCHEM_ATOM_DEF_STEREO_COUNT>
2

> <PUBCHEM_ATOM_UDEF_STEREO_COUNT>
2

> <PUBCHEM_BOND_DEF_STEREO_COUNT>
0

> <PUBCHEM_BOND_UDEF_STEREO_COUNT>
0

> <PUBCHEM_ISOTOPIC_ATOM_COUNT>
0

> <PUBCHEM_COMPONENT_COUNT>
1

> <PUBCHEM_CACTVS_TAUTO_COUNT>
-1

> <PUBCHEM_COORDINATE_TYPE>
1
5
255

> <PUBCHEM_BONDANNOTATIONS>
10  12  6
11  16  5
16  18  8
16  19  8
18  21  8
19  22  8
21  26  8
22  26  8
23  30  3
24  31  3
7  32  8
7  34  8
8  32  8
8  9  8
9  34  8

$$$$
