46881467
  -OEChem-09292321592D

 39 41  0     1  0  0  0  0  0999 V2000
    5.4448   -1.4424    0.0000 O   0  0  0  0  0  0  0  0  0  0  0  0
    6.5662   -0.0576    0.0000 N   0  0  0  0  0  0  0  0  0  0  0  0
    9.1643   -0.5576    0.0000 N   0  0  0  0  0  0  0  0  0  0  0  0
    4.9836    0.2788    0.0000 N   0  0  0  0  0  0  0  0  0  0  0  0
    2.5878   -0.8438    0.0000 N   0  0  0  0  0  0  0  0  0  0  0  0
    8.2983   -0.0576    0.0000 C   0  0  3  0  0  0  0  0  0  0  0  0
    8.2983    0.9424    0.0000 C   0  0  0  0  0  0  0  0  0  0  0  0
    7.4323   -0.5576    0.0000 C   0  0  0  0  0  0  0  0  0  0  0  0
    9.1643    1.4424    0.0000 C   0  0  0  0  0  0  0  0  0  0  0  0
   10.0303    0.9424    0.0000 C   0  0  0  0  0  0  0  0  0  0  0  0
   10.0303   -0.0576    0.0000 C   0  0  0  0  0  0  0  0  0  0  0  0
    6.4617    0.9370    0.0000 C   0  0  0  0  0  0  0  0  0  0  0  0
    5.4836    1.1449    0.0000 C   0  0  0  0  0  0  0  0  0  0  0  0
    5.6527   -0.4643    0.0000 C   0  0  0  0  0  0  0  0  0  0  0  0
    3.9890    0.1743    0.0000 C   0  0  0  0  0  0  0  0  0  0  0  0
    3.4013    0.9833    0.0000 C   0  0  0  0  0  0  0  0  0  0  0  0
    3.5823   -0.7392    0.0000 C   0  0  0  0  0  0  0  0  0  0  0  0
    2.4067    0.8788    0.0000 C   0  0  0  0  0  0  0  0  0  0  0  0
    2.0000   -0.0347    0.0000 C   0  0  0  0  0  0  0  0  0  0  0  0
    8.2983   -0.6776    0.0000 H   0  0  0  0  0  0  0  0  0  0  0  0
    8.0862    1.5250    0.0000 H   0  0  0  0  0  0  0  0  0  0  0  0
    7.6877    0.8348    0.0000 H   0  0  0  0  0  0  0  0  0  0  0  0
    7.0337   -1.0325    0.0000 H   0  0  0  0  0  0  0  0  0  0  0  0
    7.8308   -1.0325    0.0000 H   0  0  0  0  0  0  0  0  0  0  0  0
    9.5628    1.9174    0.0000 H   0  0  0  0  0  0  0  0  0  0  0  0
    8.7658    1.9174    0.0000 H   0  0  0  0  0  0  0  0  0  0  0  0
   10.6409    0.8348    0.0000 H   0  0  0  0  0  0  0  0  0  0  0  0
   10.2424    1.5250    0.0000 H   0  0  0  0  0  0  0  0  0  0  0  0
    9.1643   -1.1776    0.0000 H   0  0  0  0  0  0  0  0  0  0  0  0
   10.2424   -0.6402    0.0000 H   0  0  0  0  0  0  0  0  0  0  0  0
   10.6409    0.0501    0.0000 H   0  0  0  0  0  0  0  0  0  0  0  0
    7.0817    0.9370    0.0000 H   0  0  0  0  0  0  0  0  0  0  0  0
    6.5265    1.5536    0.0000 H   0  0  0  0  0  0  0  0  0  0  0  0
    5.6752    1.7345    0.0000 H   0  0  0  0  0  0  0  0  0  0  0  0
    4.9172    1.3970    0.0000 H   0  0  0  0  0  0  0  0  0  0  0  0
    3.6534    1.5497    0.0000 H   0  0  0  0  0  0  0  0  0  0  0  0
    3.9467   -1.2408    0.0000 H   0  0  0  0  0  0  0  0  0  0  0  0
    2.0423    1.3804    0.0000 H   0  0  0  0  0  0  0  0  0  0  0  0
    1.3834   -0.0995    0.0000 H   0  0  0  0  0  0  0  0  0  0  0  0
  1 14  2  0  0  0  0
  2  8  1  0  0  0  0
  2 12  1  0  0  0  0
  2 14  1  0  0  0  0
  3  6  1  0  0  0  0
  3 11  1  0  0  0  0
  3 29  1  0  0  0  0
  4 13  1  0  0  0  0
  4 14  1  0  0  0  0
  4 15  1  0  0  0  0
  5 17  1  0  0  0  0
  5 19  2  0  0  0  0
  6  7  1  0  0  0  0
  6  8  1  0  0  0  0
  6 20  1  0  0  0  0
  7  9  1  0  0  0  0
  7 21  1  0  0  0  0
  7 22  1  0  0  0  0
  8 23  1  0  0  0  0
  8 24  1  0  0  0  0
  9 10  1  0  0  0  0
  9 25  1  0  0  0  0
  9 26  1  0  0  0  0
 10 11  1  0  0  0  0
 10 27  1  0  0  0  0
 10 28  1  0  0  0  0
 11 30  1  0  0  0  0
 11 31  1  0  0  0  0
 12 13  1  0  0  0  0
 12 32  1  0  0  0  0
 12 33  1  0  0  0  0
 13 34  1  0  0  0  0
 13 35  1  0  0  0  0
 15 16  1  0  0  0  0
 15 17  2  0  0  0  0
 16 18  2  0  0  0  0
 16 36  1  0  0  0  0
 17 37  1  0  0  0  0
 18 19  1  0  0  0  0
 18 38  1  0  0  0  0
 19 39  1  0  0  0  0
M  END
> <PUBCHEM_COMPOUND_CID>
46881467

> <PUBCHEM_COMPOUND_CANONICALIZED>
1

> <PUBCHEM_CACTVS_COMPLEXITY>
323

> <PUBCHEM_CACTVS_HBOND_ACCEPTOR>
3

> <PUBCHEM_CACTVS_HBOND_DONOR>
1

> <PUBCHEM_CACTVS_ROTATABLE_BOND>
3

> <PUBCHEM_CACTVS_SUBSKEYS>
AAADceBzoAAAAAAAAAAAAAAAAAAAAWAAAAAsWAAAAAAAAAABgAAAHgAQAAAACCjBEgQ9wJPIEACoADRnVACCgCAxEiAI2KA4dJiIYOLAkZGUIAholgLIyCcQAAAAAAAAAAAAAAAAAAAAAAAAAAAAAAAAAA==

> <PUBCHEM_IUPAC_OPENEYE_NAME>
1-(2-piperidylmethyl)-3-(3-pyridyl)imidazolidin-2-one

> <PUBCHEM_IUPAC_CAS_NAME>
1-(2-piperidinylmethyl)-3-(3-pyridinyl)-2-imidazolidinone

> <PUBCHEM_IUPAC_NAME_MARKUP>
1-(piperidin-2-ylmethyl)-3-pyridin-3-ylimidazolidin-2-one

> <PUBCHEM_IUPAC_NAME>
1-(piperidin-2-ylmethyl)-3-pyridin-3-ylimidazolidin-2-one

> <PUBCHEM_IUPAC_SYSTEMATIC_NAME>
1-(piperidin-2-ylmethyl)-3-pyridin-3-yl-imidazolidin-2-one

> <PUBCHEM_IUPAC_TRADITIONAL_NAME>
1-(2-piperidylmethyl)-3-(3-pyridyl)-2-imidazolidinone

> <PUBCHEM_IUPAC_INCHI>
InChI=1S/C14H20N4O/c19-14-17(11-12-4-1-2-7-16-12)8-9-18(14)13-5-3-6-15-10-13/h3,5-6,10,12,16H,1-2,4,7-9,11H2

> <PUBCHEM_IUPAC_INCHIKEY>
GDBWCGSXGHDTJU-UHFFFAOYSA-N

> <PUBCHEM_XLOGP3_AA>
0.5

> <PUBCHEM_EXACT_MASS>
260.16371127

> <PUBCHEM_MOLECULAR_FORMULA>
C14H20N4O

> <PUBCHEM_MOLECULAR_WEIGHT>
260.33

> <PUBCHEM_OPENEYE_CAN_SMILES>
C1CCNC(C1)CN2CCN(C2=O)C3=CN=CC=C3

> <PUBCHEM_OPENEYE_ISO_SMILES>
C1CCNC(C1)CN2CCN(C2=O)C3=CN=CC=C3

> <PUBCHEM_CACTVS_TPSA>
48.5

> <PUBCHEM_MONOISOTOPIC_WEIGHT>
260.16371127

> <PUBCHEM_TOTAL_CHARGE>
0

> <PUBCHEM_HEAVY_ATOM_COUNT>
19

> <PUBCHEM_ATOM_DEF_STEREO_COUNT>
0

> <PUBCHEM_ATOM_UDEF_STEREO_COUNT>
1

> <PUBCHEM_BOND_DEF_STEREO_COUNT>
0

> <PUBCHEM_BOND_UDEF_STEREO_COUNT>
0

> <PUBCHEM_ISOTOPIC_ATOM_COUNT>
0

> <PUBCHEM_COMPONENT_COUNT>
1

> <PUBCHEM_CACTVS_TAUTO_COUNT>
-1

> <PUBCHEM_COORDINATE_TYPE>
1
5
255

> <PUBCHEM_BONDANNOTATIONS>
15  16  8
15  17  8
16  18  8
18  19  8
5  17  8
5  19  8
6  8  3

$$$$
