72198011
  -OEChem-09292322332D

 71 76  0     1  0  0  0  0  0999 V2000
    8.6449    2.3692    0.0000 O   0  0  0  0  0  0  0  0  0  0  0  0
   11.9909    1.2756    0.0000 O   0  0  0  0  0  0  0  0  0  0  0  0
    2.8660   -4.3628    0.0000 O   0  0  0  0  0  0  0  0  0  0  0  0
    7.3423   -1.7065    0.0000 N   0  0  0  0  0  0  0  0  0  0  0  0
   10.2313    1.5575    0.0000 N   0  0  0  0  0  0  0  0  0  0  0  0
    6.4103   -6.1676    0.0000 N   0  0  0  0  0  0  0  0  0  0  0  0
    8.9807    5.4292    0.0000 N   0  0  0  0  0  0  0  0  0  0  0  0
    6.7210   -3.6076    0.0000 C   0  0  0  0  0  0  0  0  0  0  0  0
    6.0531   -2.8633    0.0000 C   0  0  0  0  0  0  0  0  0  0  0  0
    7.6995   -3.4014    0.0000 C   0  0  0  0  0  0  0  0  0  0  0  0
    6.3638   -1.9128    0.0000 C   0  0  0  0  0  0  0  0  0  0  0  0
    8.0102   -2.4508    0.0000 C   0  0  0  0  0  0  0  0  0  0  0  0
    7.6530   -0.7560    0.0000 C   0  0  0  0  0  0  0  0  0  0  0  0
    6.4103   -4.5581    0.0000 C   0  0  0  0  0  0  0  0  0  0  0  0
    8.6315   -0.5498    0.0000 C   0  0  0  0  0  0  0  0  0  0  0  0
    8.9421    0.4007    0.0000 C   0  0  0  0  0  0  0  0  0  0  0  0
    5.4641   -4.8628    0.0000 C   0  0  0  0  0  0  0  0  0  0  0  0
    9.9206    0.6069    0.0000 C   0  0  0  0  0  0  0  0  0  0  0  0
   10.2341    3.1755    0.0000 C   0  0  3  0  0  0  0  0  0  0  0  0
    6.9939   -5.3628    0.0000 C   0  0  0  0  0  0  0  0  0  0  0  0
    5.4641   -5.8628    0.0000 C   0  0  0  0  0  0  0  0  0  0  0  0
   11.1846    2.8648    0.0000 C   0  0  0  0  0  0  0  0  0  0  0  0
    9.6449    2.3675    0.0000 C   0  0  0  0  0  0  0  0  0  0  0  0
   11.1829    1.8648    0.0000 C   0  0  0  0  0  0  0  0  0  0  0  0
    9.9267    4.1271    0.0000 C   0  0  0  0  0  0  0  0  0  0  0  0
    4.5981   -4.3628    0.0000 C   0  0  0  0  0  0  0  0  0  0  0  0
   10.5131    4.9298    0.0000 C   0  0  0  0  0  0  0  0  0  0  0  0
    4.5981   -6.3628    0.0000 C   0  0  0  0  0  0  0  0  0  0  0  0
    8.9816    4.4351    0.0000 C   0  0  0  0  0  0  0  0  0  0  0  0
    3.7320   -4.8628    0.0000 C   0  0  0  0  0  0  0  0  0  0  0  0
    9.9253    5.7388    0.0000 C   0  0  0  0  0  0  0  0  0  0  0  0
    3.7320   -5.8628    0.0000 C   0  0  0  0  0  0  0  0  0  0  0  0
   11.5076    5.0343    0.0000 C   0  0  0  0  0  0  0  0  0  0  0  0
   10.3321    6.6524    0.0000 C   0  0  0  0  0  0  0  0  0  0  0  0
   11.9144    5.9479    0.0000 C   0  0  0  0  0  0  0  0  0  0  0  0
   11.3266    6.7569    0.0000 C   0  0  0  0  0  0  0  0  0  0  0  0
    2.0000   -4.8628    0.0000 C   0  0  0  0  0  0  0  0  0  0  0  0
    6.1143   -3.7354    0.0000 H   0  0  0  0  0  0  0  0  0  0  0  0
    5.5062   -2.5712    0.0000 H   0  0  0  0  0  0  0  0  0  0  0  0
    5.6706   -3.3512    0.0000 H   0  0  0  0  0  0  0  0  0  0  0  0
    7.7201   -4.0210    0.0000 H   0  0  0  0  0  0  0  0  0  0  0  0
    8.3133   -3.4887    0.0000 H   0  0  0  0  0  0  0  0  0  0  0  0
    6.3432   -1.2931    0.0000 H   0  0  0  0  0  0  0  0  0  0  0  0
    5.7500   -1.8254    0.0000 H   0  0  0  0  0  0  0  0  0  0  0  0
    8.5571   -2.7429    0.0000 H   0  0  0  0  0  0  0  0  0  0  0  0
    8.3927   -1.9629    0.0000 H   0  0  0  0  0  0  0  0  0  0  0  0
    7.6324   -0.1364    0.0000 H   0  0  0  0  0  0  0  0  0  0  0  0
    7.0392   -0.6687    0.0000 H   0  0  0  0  0  0  0  0  0  0  0  0
    8.6520   -1.1695    0.0000 H   0  0  0  0  0  0  0  0  0  0  0  0
    9.2453   -0.6371    0.0000 H   0  0  0  0  0  0  0  0  0  0  0  0
    8.9216    1.0204    0.0000 H   0  0  0  0  0  0  0  0  0  0  0  0
    8.3283    0.4881    0.0000 H   0  0  0  0  0  0  0  0  0  0  0  0
    9.9412   -0.0127    0.0000 H   0  0  0  0  0  0  0  0  0  0  0  0
   10.5345    0.5196    0.0000 H   0  0  0  0  0  0  0  0  0  0  0  0
   10.6733    3.6131    0.0000 H   0  0  0  0  0  0  0  0  0  0  0  0
    7.6139   -5.3628    0.0000 H   0  0  0  0  0  0  0  0  0  0  0  0
   11.8011    2.7990    0.0000 H   0  0  0  0  0  0  0  0  0  0  0  0
   11.3146    3.4711    0.0000 H   0  0  0  0  0  0  0  0  0  0  0  0
    6.6029   -6.7569    0.0000 H   0  0  0  0  0  0  0  0  0  0  0  0
    4.5981   -3.7428    0.0000 H   0  0  0  0  0  0  0  0  0  0  0  0
    4.5981   -6.9828    0.0000 H   0  0  0  0  0  0  0  0  0  0  0  0
    8.4800    4.0707    0.0000 H   0  0  0  0  0  0  0  0  0  0  0  0
    3.1951   -6.1728    0.0000 H   0  0  0  0  0  0  0  0  0  0  0  0
    8.4785    5.7927    0.0000 H   0  0  0  0  0  0  0  0  0  0  0  0
   11.8721    4.5327    0.0000 H   0  0  0  0  0  0  0  0  0  0  0  0
    9.9677    7.1540    0.0000 H   0  0  0  0  0  0  0  0  0  0  0  0
   12.5310    6.0127    0.0000 H   0  0  0  0  0  0  0  0  0  0  0  0
   11.5788    7.3233    0.0000 H   0  0  0  0  0  0  0  0  0  0  0  0
    1.6900   -4.3259    0.0000 H   0  0  0  0  0  0  0  0  0  0  0  0
    1.4631   -5.1728    0.0000 H   0  0  0  0  0  0  0  0  0  0  0  0
    2.3100   -5.3998    0.0000 H   0  0  0  0  0  0  0  0  0  0  0  0
  1 23  2  0  0  0  0
  2 24  2  0  0  0  0
  3 30  1  0  0  0  0
  3 37  1  0  0  0  0
  4 11  1  0  0  0  0
  4 12  1  0  0  0  0
  4 13  1  0  0  0  0
  5 18  1  0  0  0  0
  5 23  1  0  0  0  0
  5 24  1  0  0  0  0
  6 20  1  0  0  0  0
  6 21  1  0  0  0  0
  6 59  1  0  0  0  0
  7 29  1  0  0  0  0
  7 31  1  0  0  0  0
  7 64  1  0  0  0  0
  8  9  1  0  0  0  0
  8 10  1  0  0  0  0
  8 14  1  0  0  0  0
  8 38  1  0  0  0  0
  9 11  1  0  0  0  0
  9 39  1  0  0  0  0
  9 40  1  0  0  0  0
 10 12  1  0  0  0  0
 10 41  1  0  0  0  0
 10 42  1  0  0  0  0
 11 43  1  0  0  0  0
 11 44  1  0  0  0  0
 12 45  1  0  0  0  0
 12 46  1  0  0  0  0
 13 15  1  0  0  0  0
 13 47  1  0  0  0  0
 13 48  1  0  0  0  0
 14 17  1  0  0  0  0
 14 20  2  0  0  0  0
 15 16  1  0  0  0  0
 15 49  1  0  0  0  0
 15 50  1  0  0  0  0
 16 18  1  0  0  0  0
 16 51  1  0  0  0  0
 16 52  1  0  0  0  0
 17 21  2  0  0  0  0
 17 26  1  0  0  0  0
 18 53  1  0  0  0  0
 18 54  1  0  0  0  0
 19 22  1  0  0  0  0
 19 23  1  0  0  0  0
 19 25  1  0  0  0  0
 19 55  1  0  0  0  0
 20 56  1  0  0  0  0
 21 28  1  0  0  0  0
 22 24  1  0  0  0  0
 22 57  1  0  0  0  0
 22 58  1  0  0  0  0
 25 27  1  0  0  0  0
 25 29  2  0  0  0  0
 26 30  2  0  0  0  0
 26 60  1  0  0  0  0
 27 31  1  0  0  0  0
 27 33  2  0  0  0  0
 28 32  2  0  0  0  0
 28 61  1  0  0  0  0
 29 62  1  0  0  0  0
 30 32  1  0  0  0  0
 31 34  2  0  0  0  0
 32 63  1  0  0  0  0
 33 35  1  0  0  0  0
 33 65  1  0  0  0  0
 34 36  1  0  0  0  0
 34 66  1  0  0  0  0
 35 36  2  0  0  0  0
 35 67  1  0  0  0  0
 36 68  1  0  0  0  0
 37 69  1  0  0  0  0
 37 70  1  0  0  0  0
 37 71  1  0  0  0  0
M  END
> <PUBCHEM_COMPOUND_CID>
72198011

> <PUBCHEM_COMPOUND_CANONICALIZED>
1

> <PUBCHEM_CACTVS_COMPLEXITY>
815

> <PUBCHEM_CACTVS_HBOND_ACCEPTOR>
4

> <PUBCHEM_CACTVS_HBOND_DONOR>
2

> <PUBCHEM_CACTVS_ROTATABLE_BOND>
8

> <PUBCHEM_CACTVS_SUBSKEYS>
AAADcfB7sAAAAAAAAAAAAAAAAAAAAWLFgAA8YIAAAAAAAFgB/gAAHgAQAAAADQzBngY+xvPJlACoAzV3VACCiCAxIiAI2aE+bJgMJvLEtZuEMChk1jHI6Ae92fKegEABAAACAAAAgAIAAAQAAAAAAAAAAA==

> <PUBCHEM_IUPAC_OPENEYE_NAME>
3-(1H-indol-3-yl)-1-[4-[4-(5-methoxy-1H-indol-3-yl)-1-piperidyl]butyl]pyrrolidine-2,5-dione

> <PUBCHEM_IUPAC_CAS_NAME>
3-(1H-indol-3-yl)-1-[4-[4-(5-methoxy-1H-indol-3-yl)-1-piperidinyl]butyl]pyrrolidine-2,5-dione

> <PUBCHEM_IUPAC_NAME_MARKUP>
3-(1<I>H</I>-indol-3-yl)-1-[4-[4-(5-methoxy-1<I>H</I>-indol-3-yl)piperidin-1-yl]butyl]pyrrolidine-2,5-dione

> <PUBCHEM_IUPAC_NAME>
3-(1H-indol-3-yl)-1-[4-[4-(5-methoxy-1H-indol-3-yl)piperidin-1-yl]butyl]pyrrolidine-2,5-dione

> <PUBCHEM_IUPAC_SYSTEMATIC_NAME>
3-(1H-indol-3-yl)-1-[4-[4-(5-methoxy-1H-indol-3-yl)piperidin-1-yl]butyl]pyrrolidine-2,5-dione

> <PUBCHEM_IUPAC_TRADITIONAL_NAME>
3-(1H-indol-3-yl)-1-[4-[4-(5-methoxy-1H-indol-3-yl)piperidino]butyl]pyrrolidine-2,5-quinone

> <PUBCHEM_IUPAC_INCHI>
InChI=1S/C30H34N4O3/c1-37-21-8-9-28-23(16-21)25(18-31-28)20-10-14-33(15-11-20)12-4-5-13-34-29(35)17-24(30(34)36)26-19-32-27-7-3-2-6-22(26)27/h2-3,6-9,16,18-20,24,31-32H,4-5,10-15,17H2,1H3

> <PUBCHEM_IUPAC_INCHIKEY>
WWVWWIXBKONYMX-UHFFFAOYSA-N

> <PUBCHEM_XLOGP3_AA>
4.1

> <PUBCHEM_EXACT_MASS>
498.26309096

> <PUBCHEM_MOLECULAR_FORMULA>
C30H34N4O3

> <PUBCHEM_MOLECULAR_WEIGHT>
498.6

> <PUBCHEM_OPENEYE_CAN_SMILES>
COC1=CC2=C(C=C1)NC=C2C3CCN(CC3)CCCCN4C(=O)CC(C4=O)C5=CNC6=CC=CC=C65

> <PUBCHEM_OPENEYE_ISO_SMILES>
COC1=CC2=C(C=C1)NC=C2C3CCN(CC3)CCCCN4C(=O)CC(C4=O)C5=CNC6=CC=CC=C65

> <PUBCHEM_CACTVS_TPSA>
81.4

> <PUBCHEM_MONOISOTOPIC_WEIGHT>
498.26309096

> <PUBCHEM_TOTAL_CHARGE>
0

> <PUBCHEM_HEAVY_ATOM_COUNT>
37

> <PUBCHEM_ATOM_DEF_STEREO_COUNT>
0

> <PUBCHEM_ATOM_UDEF_STEREO_COUNT>
1

> <PUBCHEM_BOND_DEF_STEREO_COUNT>
0

> <PUBCHEM_BOND_UDEF_STEREO_COUNT>
0

> <PUBCHEM_ISOTOPIC_ATOM_COUNT>
0

> <PUBCHEM_COMPONENT_COUNT>
1

> <PUBCHEM_CACTVS_TAUTO_COUNT>
-1

> <PUBCHEM_COORDINATE_TYPE>
1
5
255

> <PUBCHEM_BONDANNOTATIONS>
14  17  8
14  20  8
17  21  8
17  26  8
19  25  3
21  28  8
25  27  8
25  29  8
26  30  8
27  31  8
27  33  8
28  32  8
30  32  8
31  34  8
33  35  8
34  36  8
35  36  8
6  20  8
6  21  8
7  29  8
7  31  8

$$$$
