45271753
  -OEChem-09292322282D

 57 59  0     1  0  0  0  0  0999 V2000
    8.9243   -6.2420    0.0000 Cl  0  0  0  0  0  0  0  0  0  0  0  0
    9.8222   -1.5368    0.0000 O   0  0  0  0  0  0  0  0  0  0  0  0
    4.5981    5.7420    0.0000 O   0  0  0  0  0  0  0  0  0  0  0  0
    2.8660    4.7420    0.0000 O   0  0  0  0  0  0  0  0  0  0  0  0
    8.0622   -1.2580    0.0000 N   0  0  0  0  0  0  0  0  0  0  0  0
    8.5622   -2.7969    0.0000 N   0  0  0  0  0  0  0  0  0  0  0  0
    7.1962    1.2420    0.0000 N   0  0  3  0  0  0  0  0  0  0  0  0
    7.2532   -1.8458    0.0000 C   0  0  0  0  0  0  0  0  0  0  0  0
    8.0622   -0.2580    0.0000 C   0  0  0  0  0  0  0  0  0  0  0  0
    7.5622   -2.7969    0.0000 C   0  0  0  0  0  0  0  0  0  0  0  0
    7.1962    0.2420    0.0000 C   0  0  0  0  0  0  0  0  0  0  0  0
    8.8712   -1.8458    0.0000 C   0  0  0  0  0  0  0  0  0  0  0  0
    6.3301    1.7420    0.0000 C   0  0  0  0  0  0  0  0  0  0  0  0
    9.1500   -3.6059    0.0000 C   0  0  0  0  0  0  0  0  0  0  0  0
    6.3301    2.7420    0.0000 C   0  0  0  0  0  0  0  0  0  0  0  0
    8.0622    1.7420    0.0000 C   0  0  0  0  0  0  0  0  0  0  0  0
    5.4641    3.2420    0.0000 C   0  0  0  0  0  0  0  0  0  0  0  0
    8.7432   -4.5194    0.0000 C   0  0  0  0  0  0  0  0  0  0  0  0
   10.1445   -3.5014    0.0000 C   0  0  0  0  0  0  0  0  0  0  0  0
    5.4641    4.2420    0.0000 C   0  0  0  0  0  0  0  0  0  0  0  0
    4.5981    2.7420    0.0000 C   0  0  0  0  0  0  0  0  0  0  0  0
    9.3310   -5.3284    0.0000 C   0  0  0  0  0  0  0  0  0  0  0  0
   10.7323   -4.3104    0.0000 C   0  0  0  0  0  0  0  0  0  0  0  0
   10.3255   -5.2239    0.0000 C   0  0  0  0  0  0  0  0  0  0  0  0
    4.5981    4.7420    0.0000 C   0  0  0  0  0  0  0  0  0  0  0  0
    3.7320    3.2420    0.0000 C   0  0  0  0  0  0  0  0  0  0  0  0
    3.7320    4.2420    0.0000 C   0  0  0  0  0  0  0  0  0  0  0  0
    5.4641    6.2420    0.0000 C   0  0  0  0  0  0  0  0  0  0  0  0
    2.0000    4.2420    0.0000 C   0  0  0  0  0  0  0  0  0  0  0  0
    6.9432   -1.3089    0.0000 H   0  0  0  0  0  0  0  0  0  0  0  0
    6.6868   -2.0980    0.0000 H   0  0  0  0  0  0  0  0  0  0  0  0
    8.6728   -0.3657    0.0000 H   0  0  0  0  0  0  0  0  0  0  0  0
    8.2742    0.3246    0.0000 H   0  0  0  0  0  0  0  0  0  0  0  0
    6.9557   -2.9258    0.0000 H   0  0  0  0  0  0  0  0  0  0  0  0
    7.6270   -3.4135    0.0000 H   0  0  0  0  0  0  0  0  0  0  0  0
    6.5856    0.3496    0.0000 H   0  0  0  0  0  0  0  0  0  0  0  0
    6.9841   -0.3406    0.0000 H   0  0  0  0  0  0  0  0  0  0  0  0
    5.7196    1.8496    0.0000 H   0  0  0  0  0  0  0  0  0  0  0  0
    6.1181    1.1594    0.0000 H   0  0  0  0  0  0  0  0  0  0  0  0
    6.9407    2.6343    0.0000 H   0  0  0  0  0  0  0  0  0  0  0  0
    6.5422    3.3246    0.0000 H   0  0  0  0  0  0  0  0  0  0  0  0
    8.3722    1.2050    0.0000 H   0  0  0  0  0  0  0  0  0  0  0  0
    8.5991    2.0520    0.0000 H   0  0  0  0  0  0  0  0  0  0  0  0
    7.7522    2.2789    0.0000 H   0  0  0  0  0  0  0  0  0  0  0  0
    8.1266   -4.5842    0.0000 H   0  0  0  0  0  0  0  0  0  0  0  0
   10.3967   -2.9350    0.0000 H   0  0  0  0  0  0  0  0  0  0  0  0
    6.0010    4.5520    0.0000 H   0  0  0  0  0  0  0  0  0  0  0  0
    4.5981    2.1220    0.0000 H   0  0  0  0  0  0  0  0  0  0  0  0
   11.3489   -4.2456    0.0000 H   0  0  0  0  0  0  0  0  0  0  0  0
   10.6900   -5.7255    0.0000 H   0  0  0  0  0  0  0  0  0  0  0  0
    3.1951    2.9320    0.0000 H   0  0  0  0  0  0  0  0  0  0  0  0
    5.7741    5.7050    0.0000 H   0  0  0  0  0  0  0  0  0  0  0  0
    6.0010    6.5520    0.0000 H   0  0  0  0  0  0  0  0  0  0  0  0
    5.1541    6.7789    0.0000 H   0  0  0  0  0  0  0  0  0  0  0  0
    1.6900    4.7789    0.0000 H   0  0  0  0  0  0  0  0  0  0  0  0
    1.4631    3.9320    0.0000 H   0  0  0  0  0  0  0  0  0  0  0  0
    2.3100    3.7050    0.0000 H   0  0  0  0  0  0  0  0  0  0  0  0
  1 22  1  0  0  0  0
  2 12  2  0  0  0  0
  3 25  1  0  0  0  0
  3 28  1  0  0  0  0
  4 27  1  0  0  0  0
  4 29  1  0  0  0  0
  5  8  1  0  0  0  0
  5  9  1  0  0  0  0
  5 12  1  0  0  0  0
  6 10  1  0  0  0  0
  6 12  1  0  0  0  0
  6 14  1  0  0  0  0
  7 11  1  0  0  0  0
  7 13  1  0  0  0  0
  7 16  1  0  0  0  0
  8 10  1  0  0  0  0
  8 30  1  0  0  0  0
  8 31  1  0  0  0  0
  9 11  1  0  0  0  0
  9 32  1  0  0  0  0
  9 33  1  0  0  0  0
 10 34  1  0  0  0  0
 10 35  1  0  0  0  0
 11 36  1  0  0  0  0
 11 37  1  0  0  0  0
 13 15  1  0  0  0  0
 13 38  1  0  0  0  0
 13 39  1  0  0  0  0
 14 18  2  0  0  0  0
 14 19  1  0  0  0  0
 15 17  1  0  0  0  0
 15 40  1  0  0  0  0
 15 41  1  0  0  0  0
 16 42  1  0  0  0  0
 16 43  1  0  0  0  0
 16 44  1  0  0  0  0
 17 20  2  0  0  0  0
 17 21  1  0  0  0  0
 18 22  1  0  0  0  0
 18 45  1  0  0  0  0
 19 23  2  0  0  0  0
 19 46  1  0  0  0  0
 20 25  1  0  0  0  0
 20 47  1  0  0  0  0
 21 26  2  0  0  0  0
 21 48  1  0  0  0  0
 22 24  2  0  0  0  0
 23 24  1  0  0  0  0
 23 49  1  0  0  0  0
 24 50  1  0  0  0  0
 25 27  2  0  0  0  0
 26 27  1  0  0  0  0
 26 51  1  0  0  0  0
 28 52  1  0  0  0  0
 28 53  1  0  0  0  0
 28 54  1  0  0  0  0
 29 55  1  0  0  0  0
 29 56  1  0  0  0  0
 29 57  1  0  0  0  0
M  END
> <PUBCHEM_COMPOUND_CID>
45271753

> <PUBCHEM_COMPOUND_CANONICALIZED>
1

> <PUBCHEM_CACTVS_COMPLEXITY>
524

> <PUBCHEM_CACTVS_HBOND_ACCEPTOR>
4

> <PUBCHEM_CACTVS_HBOND_DONOR>
0

> <PUBCHEM_CACTVS_ROTATABLE_BOND>
9

> <PUBCHEM_CACTVS_SUBSKEYS>
AAADceB7MAAEAAAAAAAAAAAAAAAAAWAAAAAwYAAAAAAAAAABQAAAHgIAAAAADA7BmCYzxoMABACIAiRCUACCCAAhJwAIiAAO7oiNZiLFs5uUMCpsxhPK6CeQ0LIOIAABAAIAQABAAAIABACAAAAAAAAAAA==

> <PUBCHEM_IUPAC_OPENEYE_NAME>
1-(3-chlorophenyl)-3-[2-[2-(3,4-dimethoxyphenyl)ethyl-methyl-amino]ethyl]imidazolidin-2-one

> <PUBCHEM_IUPAC_CAS_NAME>
1-(3-chlorophenyl)-3-[2-[2-(3,4-dimethoxyphenyl)ethyl-methylamino]ethyl]-2-imidazolidinone

> <PUBCHEM_IUPAC_NAME_MARKUP>
1-(3-chlorophenyl)-3-[2-[2-(3,4-dimethoxyphenyl)ethyl-methylamino]ethyl]imidazolidin-2-one

> <PUBCHEM_IUPAC_NAME>
1-(3-chlorophenyl)-3-[2-[2-(3,4-dimethoxyphenyl)ethyl-methylamino]ethyl]imidazolidin-2-one

> <PUBCHEM_IUPAC_SYSTEMATIC_NAME>
1-(3-chlorophenyl)-3-[2-[2-(3,4-dimethoxyphenyl)ethyl-methyl-amino]ethyl]imidazolidin-2-one

> <PUBCHEM_IUPAC_TRADITIONAL_NAME>
1-(3-chlorophenyl)-3-[2-[homoveratryl(methyl)amino]ethyl]-2-imidazolidinone

> <PUBCHEM_IUPAC_INCHI>
InChI=1S/C22H28ClN3O3/c1-24(10-9-17-7-8-20(28-2)21(15-17)29-3)11-12-25-13-14-26(22(25)27)19-6-4-5-18(23)16-19/h4-8,15-16H,9-14H2,1-3H3

> <PUBCHEM_IUPAC_INCHIKEY>
IAUZWUKARUVEJL-UHFFFAOYSA-N

> <PUBCHEM_XLOGP3_AA>
3.6

> <PUBCHEM_EXACT_MASS>
417.1819195

> <PUBCHEM_MOLECULAR_FORMULA>
C22H28ClN3O3

> <PUBCHEM_MOLECULAR_WEIGHT>
417.9

> <PUBCHEM_OPENEYE_CAN_SMILES>
CN(CCC1=CC(=C(C=C1)OC)OC)CCN2CCN(C2=O)C3=CC(=CC=C3)Cl

> <PUBCHEM_OPENEYE_ISO_SMILES>
CN(CCC1=CC(=C(C=C1)OC)OC)CCN2CCN(C2=O)C3=CC(=CC=C3)Cl

> <PUBCHEM_CACTVS_TPSA>
45.2

> <PUBCHEM_MONOISOTOPIC_WEIGHT>
417.1819195

> <PUBCHEM_TOTAL_CHARGE>
0

> <PUBCHEM_HEAVY_ATOM_COUNT>
29

> <PUBCHEM_ATOM_DEF_STEREO_COUNT>
0

> <PUBCHEM_ATOM_UDEF_STEREO_COUNT>
0

> <PUBCHEM_BOND_DEF_STEREO_COUNT>
0

> <PUBCHEM_BOND_UDEF_STEREO_COUNT>
0

> <PUBCHEM_ISOTOPIC_ATOM_COUNT>
0

> <PUBCHEM_COMPONENT_COUNT>
1

> <PUBCHEM_CACTVS_TAUTO_COUNT>
-1

> <PUBCHEM_COORDINATE_TYPE>
1
5
255

> <PUBCHEM_BONDANNOTATIONS>
14  18  8
14  19  8
17  20  8
17  21  8
18  22  8
19  23  8
20  25  8
21  26  8
22  24  8
23  24  8
25  27  8
26  27  8

$$$$
