44372198
  -OEChem-09292322512D

 52 56  0     0  0  0  0  0  0999 V2000
   11.8385    3.8304    0.0000 Cl  0  0  0  0  0  0  0  0  0  0  0  0
    2.8660   -4.3684    0.0000 F   0  0  0  0  0  0  0  0  0  0  0  0
    5.9674    2.5930    0.0000 N   0  0  0  0  0  0  0  0  0  0  0  0
    7.9244    3.0055    0.0000 N   0  0  0  0  0  0  0  0  0  0  0  0
    3.7320    0.1316    0.0000 N   0  0  0  0  0  0  0  0  0  0  0  0
    4.6783   -0.1732    0.0000 N   0  0  0  0  0  0  0  0  0  0  0  0
    6.2781    3.5436    0.0000 C   0  0  0  0  0  0  0  0  0  0  0  0
    6.6353    1.8487    0.0000 C   0  0  0  0  0  0  0  0  0  0  0  0
    7.2566    3.7498    0.0000 C   0  0  0  0  0  0  0  0  0  0  0  0
    7.6138    2.0550    0.0000 C   0  0  0  0  0  0  0  0  0  0  0  0
    4.9889    2.3868    0.0000 C   0  0  0  0  0  0  0  0  0  0  0  0
    4.6783    1.4363    0.0000 C   0  0  0  0  0  0  0  0  0  0  0  0
    8.9030    3.2117    0.0000 C   0  0  0  0  0  0  0  0  0  0  0  0
    3.7320    1.1316    0.0000 C   0  0  0  0  0  0  0  0  0  0  0  0
    5.2619    0.6316    0.0000 C   0  0  0  0  0  0  0  0  0  0  0  0
    9.5708    2.4674    0.0000 C   0  0  0  0  0  0  0  0  0  0  0  0
    9.2136    4.1622    0.0000 C   0  0  0  0  0  0  0  0  0  0  0  0
    2.8660   -0.3684    0.0000 C   0  0  0  0  0  0  0  0  0  0  0  0
    2.8660    1.6316    0.0000 C   0  0  0  0  0  0  0  0  0  0  0  0
    2.0000    0.1316    0.0000 C   0  0  0  0  0  0  0  0  0  0  0  0
    2.0000    1.1316    0.0000 C   0  0  0  0  0  0  0  0  0  0  0  0
    2.8660   -1.3684    0.0000 C   0  0  0  0  0  0  0  0  0  0  0  0
   10.5493    2.6736    0.0000 C   0  0  0  0  0  0  0  0  0  0  0  0
   10.1921    4.3684    0.0000 C   0  0  0  0  0  0  0  0  0  0  0  0
   10.8600    3.6241    0.0000 C   0  0  0  0  0  0  0  0  0  0  0  0
    3.7320   -1.8684    0.0000 C   0  0  0  0  0  0  0  0  0  0  0  0
    2.0000   -1.8684    0.0000 C   0  0  0  0  0  0  0  0  0  0  0  0
    3.7320   -2.8684    0.0000 C   0  0  0  0  0  0  0  0  0  0  0  0
    2.0000   -2.8684    0.0000 C   0  0  0  0  0  0  0  0  0  0  0  0
    2.8660   -3.3684    0.0000 C   0  0  0  0  0  0  0  0  0  0  0  0
    6.2575    4.1632    0.0000 H   0  0  0  0  0  0  0  0  0  0  0  0
    5.6643    3.6309    0.0000 H   0  0  0  0  0  0  0  0  0  0  0  0
    6.1089    1.5211    0.0000 H   0  0  0  0  0  0  0  0  0  0  0  0
    6.8665    1.2735    0.0000 H   0  0  0  0  0  0  0  0  0  0  0  0
    7.7830    4.0774    0.0000 H   0  0  0  0  0  0  0  0  0  0  0  0
    7.0254    4.3250    0.0000 H   0  0  0  0  0  0  0  0  0  0  0  0
    7.6344    1.4353    0.0000 H   0  0  0  0  0  0  0  0  0  0  0  0
    8.2276    1.9676    0.0000 H   0  0  0  0  0  0  0  0  0  0  0  0
    4.9684    3.0065    0.0000 H   0  0  0  0  0  0  0  0  0  0  0  0
    4.3751    2.4742    0.0000 H   0  0  0  0  0  0  0  0  0  0  0  0
    5.8819    0.6316    0.0000 H   0  0  0  0  0  0  0  0  0  0  0  0
    9.3782    1.8781    0.0000 H   0  0  0  0  0  0  0  0  0  0  0  0
    8.7996    4.6237    0.0000 H   0  0  0  0  0  0  0  0  0  0  0  0
    2.8660    2.2516    0.0000 H   0  0  0  0  0  0  0  0  0  0  0  0
    1.4631   -0.1784    0.0000 H   0  0  0  0  0  0  0  0  0  0  0  0
    1.4631    1.4416    0.0000 H   0  0  0  0  0  0  0  0  0  0  0  0
   10.9634    2.2121    0.0000 H   0  0  0  0  0  0  0  0  0  0  0  0
   10.3847    4.9578    0.0000 H   0  0  0  0  0  0  0  0  0  0  0  0
    4.2690   -1.5584    0.0000 H   0  0  0  0  0  0  0  0  0  0  0  0
    1.4631   -1.5584    0.0000 H   0  0  0  0  0  0  0  0  0  0  0  0
    4.2690   -3.1784    0.0000 H   0  0  0  0  0  0  0  0  0  0  0  0
    1.4631   -3.1784    0.0000 H   0  0  0  0  0  0  0  0  0  0  0  0
  1 25  1  0  0  0  0
  2 30  1  0  0  0  0
  3  7  1  0  0  0  0
  3  8  1  0  0  0  0
  3 11  1  0  0  0  0
  4  9  1  0  0  0  0
  4 10  1  0  0  0  0
  4 13  1  0  0  0  0
  5  6  1  0  0  0  0
  5 14  1  0  0  0  0
  5 18  1  0  0  0  0
  6 15  2  0  0  0  0
  7  9  1  0  0  0  0
  7 31  1  0  0  0  0
  7 32  1  0  0  0  0
  8 10  1  0  0  0  0
  8 33  1  0  0  0  0
  8 34  1  0  0  0  0
  9 35  1  0  0  0  0
  9 36  1  0  0  0  0
 10 37  1  0  0  0  0
 10 38  1  0  0  0  0
 11 12  1  0  0  0  0
 11 39  1  0  0  0  0
 11 40  1  0  0  0  0
 12 14  2  0  0  0  0
 12 15  1  0  0  0  0
 13 16  2  0  0  0  0
 13 17  1  0  0  0  0
 14 19  1  0  0  0  0
 15 41  1  0  0  0  0
 16 23  1  0  0  0  0
 16 42  1  0  0  0  0
 17 24  2  0  0  0  0
 17 43  1  0  0  0  0
 18 20  2  0  0  0  0
 18 22  1  0  0  0  0
 19 21  2  0  0  0  0
 19 44  1  0  0  0  0
 20 21  1  0  0  0  0
 20 45  1  0  0  0  0
 21 46  1  0  0  0  0
 22 26  2  0  0  0  0
 22 27  1  0  0  0  0
 23 25  2  0  0  0  0
 23 47  1  0  0  0  0
 24 25  1  0  0  0  0
 24 48  1  0  0  0  0
 26 28  1  0  0  0  0
 26 49  1  0  0  0  0
 27 29  2  0  0  0  0
 27 50  1  0  0  0  0
 28 30  2  0  0  0  0
 28 51  1  0  0  0  0
 29 30  1  0  0  0  0
 29 52  1  0  0  0  0
M  END
> <PUBCHEM_COMPOUND_CID>
44372198

> <PUBCHEM_COMPOUND_CANONICALIZED>
1

> <PUBCHEM_CACTVS_COMPLEXITY>
541

> <PUBCHEM_CACTVS_HBOND_ACCEPTOR>
4

> <PUBCHEM_CACTVS_HBOND_DONOR>
0

> <PUBCHEM_CACTVS_ROTATABLE_BOND>
4

> <PUBCHEM_CACTVS_SUBSKEYS>
AAADceB7gQAEAAAAAAAAAAAAAAAAAWAAAAA8eIEAAAAAAFgB9AAAHQIIAAAADArBHiw8wLMIEACiAzRnRACShCAhhyAYmCA4ZpgIYOLB09GUpAhgiADIyAcQgMAOAABAAAAAAAAAAIAAAAAAAAAAAAAAAA==

> <PUBCHEM_IUPAC_OPENEYE_NAME>
3-[[4-(4-chlorophenyl)piperazin-1-yl]methyl]-7-(4-fluorophenyl)pyrazolo[1,5-a]pyridine

> <PUBCHEM_IUPAC_CAS_NAME>
3-[[4-(4-chlorophenyl)-1-piperazinyl]methyl]-7-(4-fluorophenyl)pyrazolo[1,5-a]pyridine

> <PUBCHEM_IUPAC_NAME_MARKUP>
3-[[4-(4-chlorophenyl)piperazin-1-yl]methyl]-7-(4-fluorophenyl)pyrazolo[1,5-a]pyridine

> <PUBCHEM_IUPAC_NAME>
3-[[4-(4-chlorophenyl)piperazin-1-yl]methyl]-7-(4-fluorophenyl)pyrazolo[1,5-a]pyridine

> <PUBCHEM_IUPAC_SYSTEMATIC_NAME>
3-[[4-(4-chlorophenyl)piperazin-1-yl]methyl]-7-(4-fluorophenyl)pyrazolo[1,5-a]pyridine

> <PUBCHEM_IUPAC_TRADITIONAL_NAME>
3-[[4-(4-chlorophenyl)piperazino]methyl]-7-(4-fluorophenyl)pyrazolo[1,5-a]pyridine

> <PUBCHEM_IUPAC_INCHI>
InChI=1S/C24H22ClFN4/c25-20-6-10-22(11-7-20)29-14-12-28(13-15-29)17-19-16-27-30-23(2-1-3-24(19)30)18-4-8-21(26)9-5-18/h1-11,16H,12-15,17H2

> <PUBCHEM_IUPAC_INCHIKEY>
LAZCWDPLJFPPDI-UHFFFAOYSA-N

> <PUBCHEM_XLOGP3_AA>
4.9

> <PUBCHEM_EXACT_MASS>
420.1517026

> <PUBCHEM_MOLECULAR_FORMULA>
C24H22ClFN4

> <PUBCHEM_MOLECULAR_WEIGHT>
420.9

> <PUBCHEM_OPENEYE_CAN_SMILES>
C1CN(CCN1CC2=C3C=CC=C(N3N=C2)C4=CC=C(C=C4)F)C5=CC=C(C=C5)Cl

> <PUBCHEM_OPENEYE_ISO_SMILES>
C1CN(CCN1CC2=C3C=CC=C(N3N=C2)C4=CC=C(C=C4)F)C5=CC=C(C=C5)Cl

> <PUBCHEM_CACTVS_TPSA>
23.8

> <PUBCHEM_MONOISOTOPIC_WEIGHT>
420.1517026

> <PUBCHEM_TOTAL_CHARGE>
0

> <PUBCHEM_HEAVY_ATOM_COUNT>
30

> <PUBCHEM_ATOM_DEF_STEREO_COUNT>
0

> <PUBCHEM_ATOM_UDEF_STEREO_COUNT>
0

> <PUBCHEM_BOND_DEF_STEREO_COUNT>
0

> <PUBCHEM_BOND_UDEF_STEREO_COUNT>
0

> <PUBCHEM_ISOTOPIC_ATOM_COUNT>
0

> <PUBCHEM_COMPONENT_COUNT>
1

> <PUBCHEM_CACTVS_TAUTO_COUNT>
-1

> <PUBCHEM_COORDINATE_TYPE>
1
5
255

> <PUBCHEM_BONDANNOTATIONS>
12  14  8
12  15  8
13  16  8
13  17  8
14  19  8
16  23  8
17  24  8
18  20  8
19  21  8
20  21  8
22  26  8
22  27  8
23  25  8
24  25  8
26  28  8
27  29  8
28  30  8
29  30  8
5  14  8
5  18  8
5  6  8
6  15  8

$$$$
