45265240
  -OEChem-09292322122D

 77 80  0     1  0  0  0  0  0999 V2000
    8.9056    0.0000    0.0000 Cl  0  0  0  0  0  0  0  0  0  0  0  0
   17.4051    8.5595    0.0000 S   0  0  0  0  0  0  0  0  0  0  0  0
    6.1824    5.4339    0.0000 O   0  0  0  0  0  0  0  0  0  0  0  0
   16.5371    9.0562    0.0000 O   0  0  0  0  0  0  0  0  0  0  0  0
   17.9017    9.4274    0.0000 O   0  0  0  0  0  0  0  0  0  0  0  0
   16.9084    7.6916    0.0000 O   0  0  0  0  0  0  0  0  0  0  0  0
    2.3460    2.9852    0.0000 O   0  0  0  0  0  0  0  0  0  0  0  0
   11.6824    8.0320    0.0000 N   0  0  3  0  0  0  0  0  0  0  0  0
    6.1824    7.1660    0.0000 N   0  0  0  0  0  0  0  0  0  0  0  0
    1.6879    4.4634    0.0000 N   0  0  0  0  0  0  0  0  0  0  0  0
    3.0891    3.6544    0.0000 N   0  0  0  0  0  0  0  0  0  0  0  0
    9.1824    7.1660    0.0000 C   0  0  0  0  0  0  0  0  0  0  0  0
    8.6824    6.3000    0.0000 C   0  0  0  0  0  0  0  0  0  0  0  0
    8.6824    8.0320    0.0000 C   0  0  0  0  0  0  0  0  0  0  0  0
    7.1824    7.1660    0.0000 C   0  0  0  0  0  0  0  0  0  0  0  0
    7.6824    6.3000    0.0000 C   0  0  0  0  0  0  0  0  0  0  0  0
    7.6824    8.0320    0.0000 C   0  0  0  0  0  0  0  0  0  0  0  0
   10.1824    7.1660    0.0000 C   0  0  0  0  0  0  0  0  0  0  0  0
   10.6824    8.0320    0.0000 C   0  0  0  0  0  0  0  0  0  0  0  0
   12.1163    8.9330    0.0000 C   0  0  0  0  0  0  0  0  0  0  0  0
   12.1163    7.1310    0.0000 C   0  0  0  0  0  0  0  0  0  0  0  0
   13.0912    9.1555    0.0000 C   0  0  0  0  0  0  0  0  0  0  0  0
   13.0912    6.9085    0.0000 C   0  0  0  0  0  0  0  0  0  0  0  0
   13.8730    8.5320    0.0000 C   0  0  0  0  0  0  0  0  0  0  0  0
   13.8730    7.5320    0.0000 C   0  0  0  0  0  0  0  0  0  0  0  0
    5.6824    6.3000    0.0000 C   0  0  0  0  0  0  0  0  0  0  0  0
   14.7670    9.0667    0.0000 C   0  0  0  0  0  0  0  0  0  0  0  0
   14.7670    6.9974    0.0000 C   0  0  0  0  0  0  0  0  0  0  0  0
    4.6824    6.3000    0.0000 C   0  0  0  0  0  0  0  0  0  0  0  0
   15.6730    8.5528    0.0000 C   0  0  0  0  0  0  0  0  0  0  0  0
   15.6730    7.5112    0.0000 C   0  0  0  0  0  0  0  0  0  0  0  0
    4.1824    5.4339    0.0000 C   0  0  0  0  0  0  0  0  0  0  0  0
    4.1824    7.1660    0.0000 C   0  0  0  0  0  0  0  0  0  0  0  0
    3.1824    5.4339    0.0000 C   0  0  0  0  0  0  0  0  0  0  0  0
    3.1824    7.1660    0.0000 C   0  0  0  0  0  0  0  0  0  0  0  0
    2.6824    6.3000    0.0000 C   0  0  0  0  0  0  0  0  0  0  0  0
    2.6824    4.5679    0.0000 C   0  0  0  0  0  0  0  0  0  0  0  0
   18.2730    8.0628    0.0000 C   0  0  0  0  0  0  0  0  0  0  0  0
    1.4799    3.4852    0.0000 C   0  0  0  0  0  0  0  0  0  0  0  0
    0.5664    3.0785    0.0000 C   0  0  0  0  0  0  0  0  0  0  0  0
    9.4924    6.6290    0.0000 H   0  0  0  0  0  0  0  0  0  0  0  0
    8.5747    5.6894    0.0000 H   0  0  0  0  0  0  0  0  0  0  0  0
    9.2650    6.0879    0.0000 H   0  0  0  0  0  0  0  0  0  0  0  0
    9.2650    8.2441    0.0000 H   0  0  0  0  0  0  0  0  0  0  0  0
    8.5747    8.6426    0.0000 H   0  0  0  0  0  0  0  0  0  0  0  0
    6.8724    6.6290    0.0000 H   0  0  0  0  0  0  0  0  0  0  0  0
    7.0998    6.0879    0.0000 H   0  0  0  0  0  0  0  0  0  0  0  0
    7.7900    5.6894    0.0000 H   0  0  0  0  0  0  0  0  0  0  0  0
    7.7900    8.6426    0.0000 H   0  0  0  0  0  0  0  0  0  0  0  0
    7.0998    8.2441    0.0000 H   0  0  0  0  0  0  0  0  0  0  0  0
   10.0747    6.5554    0.0000 H   0  0  0  0  0  0  0  0  0  0  0  0
   10.7650    6.9539    0.0000 H   0  0  0  0  0  0  0  0  0  0  0  0
   10.7900    8.6426    0.0000 H   0  0  0  0  0  0  0  0  0  0  0  0
   10.0998    8.2441    0.0000 H   0  0  0  0  0  0  0  0  0  0  0  0
    5.8724    7.7029    0.0000 H   0  0  0  0  0  0  0  0  0  0  0  0
   12.1163    9.5530    0.0000 H   0  0  0  0  0  0  0  0  0  0  0  0
   11.5118    9.0710    0.0000 H   0  0  0  0  0  0  0  0  0  0  0  0
   11.5118    6.9931    0.0000 H   0  0  0  0  0  0  0  0  0  0  0  0
   12.1163    6.5110    0.0000 H   0  0  0  0  0  0  0  0  0  0  0  0
   13.5759    9.5421    0.0000 H   0  0  0  0  0  0  0  0  0  0  0  0
   12.8222    9.7141    0.0000 H   0  0  0  0  0  0  0  0  0  0  0  0
   12.8222    6.3499    0.0000 H   0  0  0  0  0  0  0  0  0  0  0  0
   13.5759    6.5220    0.0000 H   0  0  0  0  0  0  0  0  0  0  0  0
   14.7598    9.6866    0.0000 H   0  0  0  0  0  0  0  0  0  0  0  0
   14.7598    6.3774    0.0000 H   0  0  0  0  0  0  0  0  0  0  0  0
   16.2088    7.1991    0.0000 H   0  0  0  0  0  0  0  0  0  0  0  0
    4.4924    4.8970    0.0000 H   0  0  0  0  0  0  0  0  0  0  0  0
    4.4924    7.7029    0.0000 H   0  0  0  0  0  0  0  0  0  0  0  0
    2.8724    7.7029    0.0000 H   0  0  0  0  0  0  0  0  0  0  0  0
    2.0624    6.3000    0.0000 H   0  0  0  0  0  0  0  0  0  0  0  0
   17.9651    7.5247    0.0000 H   0  0  0  0  0  0  0  0  0  0  0  0
   18.8111    7.7549    0.0000 H   0  0  0  0  0  0  0  0  0  0  0  0
   18.5809    8.6010    0.0000 H   0  0  0  0  0  0  0  0  0  0  0  0
    0.3142    3.6449    0.0000 H   0  0  0  0  0  0  0  0  0  0  0  0
    0.0000    2.8263    0.0000 H   0  0  0  0  0  0  0  0  0  0  0  0
    0.8186    2.5121    0.0000 H   0  0  0  0  0  0  0  0  0  0  0  0
    9.9056    0.0000    0.0000 H   0  0  0  0  0  0  0  0  0  0  0  0
  1 77  1  0  0  0  0
  2  4  1  0  0  0  0
  2  5  2  0  0  0  0
  2  6  2  0  0  0  0
  2 38  1  0  0  0  0
  3 26  2  0  0  0  0
  4 30  1  0  0  0  0
  7 11  1  0  0  0  0
  7 39  1  0  0  0  0
  8 19  1  0  0  0  0
  8 20  1  0  0  0  0
  8 21  1  0  0  0  0
  9 15  1  0  0  0  0
  9 26  1  0  0  0  0
  9 55  1  0  0  0  0
 10 37  1  0  0  0  0
 10 39  2  0  0  0  0
 11 37  2  0  0  0  0
 12 13  1  0  0  0  0
 12 14  1  0  0  0  0
 12 18  1  0  0  0  0
 12 41  1  0  0  0  0
 13 16  1  0  0  0  0
 13 42  1  0  0  0  0
 13 43  1  0  0  0  0
 14 17  1  0  0  0  0
 14 44  1  0  0  0  0
 14 45  1  0  0  0  0
 15 16  1  0  0  0  0
 15 17  1  0  0  0  0
 15 46  1  0  0  0  0
 16 47  1  0  0  0  0
 16 48  1  0  0  0  0
 17 49  1  0  0  0  0
 17 50  1  0  0  0  0
 18 19  1  0  0  0  0
 18 51  1  0  0  0  0
 18 52  1  0  0  0  0
 19 53  1  0  0  0  0
 19 54  1  0  0  0  0
 20 22  1  0  0  0  0
 20 56  1  0  0  0  0
 20 57  1  0  0  0  0
 21 23  1  0  0  0  0
 21 58  1  0  0  0  0
 21 59  1  0  0  0  0
 22 24  1  0  0  0  0
 22 60  1  0  0  0  0
 22 61  1  0  0  0  0
 23 25  1  0  0  0  0
 23 62  1  0  0  0  0
 23 63  1  0  0  0  0
 24 25  2  0  0  0  0
 24 27  1  0  0  0  0
 25 28  1  0  0  0  0
 26 29  1  0  0  0  0
 27 30  2  0  0  0  0
 27 64  1  0  0  0  0
 28 31  2  0  0  0  0
 28 65  1  0  0  0  0
 29 32  1  0  0  0  0
 29 33  2  0  0  0  0
 30 31  1  0  0  0  0
 31 66  1  0  0  0  0
 32 34  2  0  0  0  0
 32 67  1  0  0  0  0
 33 35  1  0  0  0  0
 33 68  1  0  0  0  0
 34 36  1  0  0  0  0
 34 37  1  0  0  0  0
 35 36  2  0  0  0  0
 35 69  1  0  0  0  0
 36 70  1  0  0  0  0
 38 71  1  0  0  0  0
 38 72  1  0  0  0  0
 38 73  1  0  0  0  0
 39 40  1  0  0  0  0
 40 74  1  0  0  0  0
 40 75  1  0  0  0  0
 40 76  1  0  0  0  0
M  END
> <PUBCHEM_COMPOUND_CID>
45265240

> <PUBCHEM_COMPOUND_CANONICALIZED>
1

> <PUBCHEM_CACTVS_COMPLEXITY>
906

> <PUBCHEM_CACTVS_HBOND_ACCEPTOR>
8

> <PUBCHEM_CACTVS_HBOND_DONOR>
2

> <PUBCHEM_CACTVS_ROTATABLE_BOND>
8

> <PUBCHEM_CACTVS_SUBSKEYS>
AAADcfB7uABEAAAAAAAAAAAAAAAAAWAAAAAwYMAABYAAAAAB0AAAHgQUAAAADSzBmwSzFofYEAKpAiNyNnCCgAkkIKApiKE+DNiILrKAnROEMQhk1xOIiYeY2fKOoAADAAAQAABQAAYAACAAAAAAAAAAAA==

> <PUBCHEM_IUPAC_OPENEYE_NAME>
[3-[2-[4-[[3-(5-methyl-1,2,4-oxadiazol-3-yl)benzoyl]amino]cyclohexyl]ethyl]-1,2,4,5-tetrahydro-3-benzazepin-7-yl] methanesulfonate;hydrochloride

> <PUBCHEM_IUPAC_CAS_NAME>
methanesulfonic acid [3-[2-[4-[[[3-(5-methyl-1,2,4-oxadiazol-3-yl)phenyl]-oxomethyl]amino]cyclohexyl]ethyl]-1,2,4,5-tetrahydro-3-benzazepin-7-yl] ester;hydrochloride

> <PUBCHEM_IUPAC_NAME_MARKUP>
[3-[2-[4-[[3-(5-methyl-1,2,4-oxadiazol-3-yl)benzoyl]amino]cyclohexyl]ethyl]-1,2,4,5-tetrahydro-3-benzazepin-7-yl] methanesulfonate;hydrochloride

> <PUBCHEM_IUPAC_NAME>
[3-[2-[4-[[3-(5-methyl-1,2,4-oxadiazol-3-yl)benzoyl]amino]cyclohexyl]ethyl]-1,2,4,5-tetrahydro-3-benzazepin-7-yl] methanesulfonate;hydrochloride

> <PUBCHEM_IUPAC_SYSTEMATIC_NAME>
[3-[2-[4-[[3-(5-methyl-1,2,4-oxadiazol-3-yl)phenyl]carbonylamino]cyclohexyl]ethyl]-1,2,4,5-tetrahydro-3-benzazepin-7-yl] methanesulfonate;hydrochloride

> <PUBCHEM_IUPAC_TRADITIONAL_NAME>
methanesulfonic acid [3-[2-[4-[[3-(5-methyl-1,2,4-oxadiazol-3-yl)benzoyl]amino]cyclohexyl]ethyl]-1,2,4,5-tetrahydro-3-benzazepin-7-yl] ester;hydrochloride

> <PUBCHEM_IUPAC_INCHI>
InChI=1S/C29H36N4O5S.ClH/c1-20-30-28(32-37-20)24-4-3-5-25(18-24)29(34)31-26-9-6-21(7-10-26)12-15-33-16-13-22-8-11-27(38-39(2,35)36)19-23(22)14-17-33;/h3-5,8,11,18-19,21,26H,6-7,9-10,12-17H2,1-2H3,(H,31,34);1H

> <PUBCHEM_IUPAC_INCHIKEY>
MHCMGTNDJIOVQL-UHFFFAOYSA-N

> <PUBCHEM_EXACT_MASS>
588.2173192

> <PUBCHEM_MOLECULAR_FORMULA>
C29H37ClN4O5S

> <PUBCHEM_MOLECULAR_WEIGHT>
589.1

> <PUBCHEM_OPENEYE_CAN_SMILES>
CC1=NC(=NO1)C2=CC(=CC=C2)C(=O)NC3CCC(CC3)CCN4CCC5=C(CC4)C=C(C=C5)OS(=O)(=O)C.Cl

> <PUBCHEM_OPENEYE_ISO_SMILES>
CC1=NC(=NO1)C2=CC(=CC=C2)C(=O)NC3CCC(CC3)CCN4CCC5=C(CC4)C=C(C=C5)OS(=O)(=O)C.Cl

> <PUBCHEM_CACTVS_TPSA>
123

> <PUBCHEM_MONOISOTOPIC_WEIGHT>
588.2173192

> <PUBCHEM_TOTAL_CHARGE>
0

> <PUBCHEM_HEAVY_ATOM_COUNT>
40

> <PUBCHEM_ATOM_DEF_STEREO_COUNT>
0

> <PUBCHEM_ATOM_UDEF_STEREO_COUNT>
0

> <PUBCHEM_BOND_DEF_STEREO_COUNT>
0

> <PUBCHEM_BOND_UDEF_STEREO_COUNT>
0

> <PUBCHEM_ISOTOPIC_ATOM_COUNT>
0

> <PUBCHEM_COMPONENT_COUNT>
2

> <PUBCHEM_CACTVS_TAUTO_COUNT>
-1

> <PUBCHEM_COORDINATE_TYPE>
1
5
255

> <PUBCHEM_BONDANNOTATIONS>
10  37  8
10  39  8
11  37  8
24  25  8
24  27  8
25  28  8
27  30  8
28  31  8
29  32  8
29  33  8
30  31  8
32  34  8
33  35  8
34  36  8
35  36  8
7  11  8
7  39  8

$$$$
