57873491
  -OEChem-09292322472D

 64 67  0     1  0  0  0  0  0999 V2000
    6.3981   -0.0173    0.0000 O   0  0  0  0  0  0  0  0  0  0  0  0
   11.5942    0.9827    0.0000 N   0  0  0  0  0  0  0  0  0  0  0  0
   13.3263   -0.0173    0.0000 N   0  0  0  0  0  0  0  0  0  0  0  0
    4.6660    0.9827    0.0000 N   0  0  0  0  0  0  0  0  0  0  0  0
    7.2641    1.4827    0.0000 N   0  0  0  0  0  0  0  0  0  0  0  0
   11.5942   -0.0173    0.0000 C   0  0  0  0  0  0  0  0  0  0  0  0
   12.4603    1.4827    0.0000 C   0  0  0  0  0  0  0  0  0  0  0  0
   12.4603   -0.5173    0.0000 C   0  0  0  0  0  0  0  0  0  0  0  0
   13.3263    0.9827    0.0000 C   0  0  0  0  0  0  0  0  0  0  0  0
   10.7282    1.4827    0.0000 C   0  0  0  0  0  0  0  0  0  0  0  0
    9.8622    0.9827    0.0000 C   0  0  0  0  0  0  0  0  0  0  0  0
    8.9962    1.4827    0.0000 C   0  0  0  0  0  0  0  0  0  0  0  0
    5.5321    1.4827    0.0000 C   0  0  1  0  0  0  0  0  0  0  0  0
    5.5321    2.4827    0.0000 C   0  0  0  0  0  0  0  0  0  0  0  0
   14.1923   -0.5173    0.0000 C   0  0  0  0  0  0  0  0  0  0  0  0
    8.1301    0.9827    0.0000 C   0  0  0  0  0  0  0  0  0  0  0  0
    4.6660    2.9827    0.0000 C   0  0  0  0  0  0  0  0  0  0  0  0
    3.8000    2.4827    0.0000 C   0  0  0  0  0  0  0  0  0  0  0  0
    6.3981    0.9827    0.0000 C   0  0  0  0  0  0  0  0  0  0  0  0
    3.8000    1.4827    0.0000 C   0  0  0  0  0  0  0  0  0  0  0  0
   14.1923   -1.5173    0.0000 C   0  0  0  0  0  0  0  0  0  0  0  0
   15.0583   -0.0173    0.0000 C   0  0  0  0  0  0  0  0  0  0  0  0
    2.9061    3.0173    0.0000 C   0  0  0  0  0  0  0  0  0  0  0  0
    2.9061    0.9480    0.0000 C   0  0  0  0  0  0  0  0  0  0  0  0
   15.0583   -2.0173    0.0000 C   0  0  0  0  0  0  0  0  0  0  0  0
   15.9244   -0.5173    0.0000 C   0  0  0  0  0  0  0  0  0  0  0  0
    2.0000    2.5035    0.0000 C   0  0  0  0  0  0  0  0  0  0  0  0
   15.9244   -1.5173    0.0000 C   0  0  0  0  0  0  0  0  0  0  0  0
    2.0000    1.4619    0.0000 C   0  0  0  0  0  0  0  0  0  0  0  0
   15.0583   -3.0173    0.0000 C   0  0  0  0  0  0  0  0  0  0  0  0
   10.9837    0.0903    0.0000 H   0  0  0  0  0  0  0  0  0  0  0  0
   11.3822   -0.5999    0.0000 H   0  0  0  0  0  0  0  0  0  0  0  0
   12.8588    1.9576    0.0000 H   0  0  0  0  0  0  0  0  0  0  0  0
   12.0617    1.9576    0.0000 H   0  0  0  0  0  0  0  0  0  0  0  0
   12.0617   -0.9923    0.0000 H   0  0  0  0  0  0  0  0  0  0  0  0
   12.8588   -0.9923    0.0000 H   0  0  0  0  0  0  0  0  0  0  0  0
   13.9369    0.8750    0.0000 H   0  0  0  0  0  0  0  0  0  0  0  0
   13.5383    1.5653    0.0000 H   0  0  0  0  0  0  0  0  0  0  0  0
   11.1267    1.9576    0.0000 H   0  0  0  0  0  0  0  0  0  0  0  0
   10.3297    1.9576    0.0000 H   0  0  0  0  0  0  0  0  0  0  0  0
    9.4637    0.5077    0.0000 H   0  0  0  0  0  0  0  0  0  0  0  0
   10.2607    0.5077    0.0000 H   0  0  0  0  0  0  0  0  0  0  0  0
    9.3947    1.9576    0.0000 H   0  0  0  0  0  0  0  0  0  0  0  0
    8.5976    1.9576    0.0000 H   0  0  0  0  0  0  0  0  0  0  0  0
    5.5321    0.8627    0.0000 H   0  0  0  0  0  0  0  0  0  0  0  0
    6.1426    2.3750    0.0000 H   0  0  0  0  0  0  0  0  0  0  0  0
    5.7441    3.0653    0.0000 H   0  0  0  0  0  0  0  0  0  0  0  0
    7.7316    0.5077    0.0000 H   0  0  0  0  0  0  0  0  0  0  0  0
    8.5287    0.5077    0.0000 H   0  0  0  0  0  0  0  0  0  0  0  0
    5.0646    3.4576    0.0000 H   0  0  0  0  0  0  0  0  0  0  0  0
    4.2675    3.4576    0.0000 H   0  0  0  0  0  0  0  0  0  0  0  0
    4.6660    0.3627    0.0000 H   0  0  0  0  0  0  0  0  0  0  0  0
    7.2641    2.1027    0.0000 H   0  0  0  0  0  0  0  0  0  0  0  0
   13.6554   -1.8273    0.0000 H   0  0  0  0  0  0  0  0  0  0  0  0
   15.0583    0.6027    0.0000 H   0  0  0  0  0  0  0  0  0  0  0  0
    2.9132    3.6373    0.0000 H   0  0  0  0  0  0  0  0  0  0  0  0
    2.9132    0.3280    0.0000 H   0  0  0  0  0  0  0  0  0  0  0  0
   16.4613   -0.2073    0.0000 H   0  0  0  0  0  0  0  0  0  0  0  0
    1.4643    2.8156    0.0000 H   0  0  0  0  0  0  0  0  0  0  0  0
   16.4613   -1.8273    0.0000 H   0  0  0  0  0  0  0  0  0  0  0  0
    1.4643    1.1498    0.0000 H   0  0  0  0  0  0  0  0  0  0  0  0
   14.4383   -3.0173    0.0000 H   0  0  0  0  0  0  0  0  0  0  0  0
   15.0583   -3.6373    0.0000 H   0  0  0  0  0  0  0  0  0  0  0  0
   15.6783   -3.0173    0.0000 H   0  0  0  0  0  0  0  0  0  0  0  0
  1 19  2  0  0  0  0
  2  6  1  0  0  0  0
  2  7  1  0  0  0  0
  2 10  1  0  0  0  0
  3  8  1  0  0  0  0
  3  9  1  0  0  0  0
  3 15  1  0  0  0  0
  4 13  1  0  0  0  0
  4 20  1  0  0  0  0
  4 52  1  0  0  0  0
  5 16  1  0  0  0  0
  5 19  1  0  0  0  0
  5 53  1  0  0  0  0
  6  8  1  0  0  0  0
  6 31  1  0  0  0  0
  6 32  1  0  0  0  0
  7  9  1  0  0  0  0
  7 33  1  0  0  0  0
  7 34  1  0  0  0  0
  8 35  1  0  0  0  0
  8 36  1  0  0  0  0
  9 37  1  0  0  0  0
  9 38  1  0  0  0  0
 10 11  1  0  0  0  0
 10 39  1  0  0  0  0
 10 40  1  0  0  0  0
 11 12  1  0  0  0  0
 11 41  1  0  0  0  0
 11 42  1  0  0  0  0
 12 16  1  0  0  0  0
 12 43  1  0  0  0  0
 12 44  1  0  0  0  0
 13 14  1  0  0  0  0
 13 19  1  1  0  0  0
 13 45  1  0  0  0  0
 14 17  1  0  0  0  0
 14 46  1  0  0  0  0
 14 47  1  0  0  0  0
 15 21  1  0  0  0  0
 15 22  2  0  0  0  0
 16 48  1  0  0  0  0
 16 49  1  0  0  0  0
 17 18  1  0  0  0  0
 17 50  1  0  0  0  0
 17 51  1  0  0  0  0
 18 20  1  0  0  0  0
 18 23  2  0  0  0  0
 20 24  2  0  0  0  0
 21 25  2  0  0  0  0
 21 54  1  0  0  0  0
 22 26  1  0  0  0  0
 22 55  1  0  0  0  0
 23 27  1  0  0  0  0
 23 56  1  0  0  0  0
 24 29  1  0  0  0  0
 24 57  1  0  0  0  0
 25 28  1  0  0  0  0
 25 30  1  0  0  0  0
 26 28  2  0  0  0  0
 26 58  1  0  0  0  0
 27 29  2  0  0  0  0
 27 59  1  0  0  0  0
 28 60  1  0  0  0  0
 29 61  1  0  0  0  0
 30 62  1  0  0  0  0
 30 63  1  0  0  0  0
 30 64  1  0  0  0  0
M  END
> <PUBCHEM_COMPOUND_CID>
57873491

> <PUBCHEM_COMPOUND_CANONICALIZED>
1

> <PUBCHEM_CACTVS_COMPLEXITY>
533

> <PUBCHEM_CACTVS_HBOND_ACCEPTOR>
4

> <PUBCHEM_CACTVS_HBOND_DONOR>
2

> <PUBCHEM_CACTVS_ROTATABLE_BOND>
7

> <PUBCHEM_CACTVS_SUBSKEYS>
AAADcfB7oAAAAAAAAAAAAAAAAAAAAAAAAAA8eIEAAAAAAACxQAAAHgAQAAAADCjBmAQywIPAAACIAiVSUACCAAAhAgAIiIGIZIgIYDLAkbGUIAhglgDIyAcYiICOAAAAQAACAAAAAACAAAQAAAAAAAAAAA==

> <PUBCHEM_IUPAC_OPENEYE_NAME>
(2S)-N-[4-[4-(m-tolyl)piperazin-1-yl]butyl]-1,2,3,4-tetrahydroquinoline-2-carboxamide

> <PUBCHEM_IUPAC_CAS_NAME>
(2S)-N-[4-[4-(3-methylphenyl)-1-piperazinyl]butyl]-1,2,3,4-tetrahydroquinoline-2-carboxamide

> <PUBCHEM_IUPAC_NAME_MARKUP>
(2<I>S</I>)-<I>N</I>-[4-[4-(3-methylphenyl)piperazin-1-yl]butyl]-1,2,3,4-tetrahydroquinoline-2-carboxamide

> <PUBCHEM_IUPAC_NAME>
(2S)-N-[4-[4-(3-methylphenyl)piperazin-1-yl]butyl]-1,2,3,4-tetrahydroquinoline-2-carboxamide

> <PUBCHEM_IUPAC_SYSTEMATIC_NAME>
(2S)-N-[4-[4-(3-methylphenyl)piperazin-1-yl]butyl]-1,2,3,4-tetrahydroquinoline-2-carboxamide

> <PUBCHEM_IUPAC_TRADITIONAL_NAME>
(2S)-N-[4-[4-(m-tolyl)piperazino]butyl]-1,2,3,4-tetrahydroquinoline-2-carboxamide

> <PUBCHEM_IUPAC_INCHI>
InChI=1S/C25H34N4O/c1-20-7-6-9-22(19-20)29-17-15-28(16-18-29)14-5-4-13-26-25(30)24-12-11-21-8-2-3-10-23(21)27-24/h2-3,6-10,19,24,27H,4-5,11-18H2,1H3,(H,26,30)/t24-/m0/s1

> <PUBCHEM_IUPAC_INCHIKEY>
GTISUCALIQQFFX-DEOSSOPVSA-N

> <PUBCHEM_XLOGP3_AA>
4.4

> <PUBCHEM_EXACT_MASS>
406.27326172

> <PUBCHEM_MOLECULAR_FORMULA>
C25H34N4O

> <PUBCHEM_MOLECULAR_WEIGHT>
406.6

> <PUBCHEM_OPENEYE_CAN_SMILES>
CC1=CC(=CC=C1)N2CCN(CC2)CCCCNC(=O)C3CCC4=CC=CC=C4N3

> <PUBCHEM_OPENEYE_ISO_SMILES>
CC1=CC(=CC=C1)N2CCN(CC2)CCCCNC(=O)[C@@H]3CCC4=CC=CC=C4N3

> <PUBCHEM_CACTVS_TPSA>
47.6

> <PUBCHEM_MONOISOTOPIC_WEIGHT>
406.27326172

> <PUBCHEM_TOTAL_CHARGE>
0

> <PUBCHEM_HEAVY_ATOM_COUNT>
30

> <PUBCHEM_ATOM_DEF_STEREO_COUNT>
1

> <PUBCHEM_ATOM_UDEF_STEREO_COUNT>
0

> <PUBCHEM_BOND_DEF_STEREO_COUNT>
0

> <PUBCHEM_BOND_UDEF_STEREO_COUNT>
0

> <PUBCHEM_ISOTOPIC_ATOM_COUNT>
0

> <PUBCHEM_COMPONENT_COUNT>
1

> <PUBCHEM_CACTVS_TAUTO_COUNT>
-1

> <PUBCHEM_COORDINATE_TYPE>
1
5
255

> <PUBCHEM_BONDANNOTATIONS>
13  19  5
15  21  8
15  22  8
18  20  8
18  23  8
20  24  8
21  25  8
22  26  8
23  27  8
24  29  8
25  28  8
26  28  8
27  29  8

$$$$
