10315866
  -OEChem-09292322512D

 44 45  0     1  0  0  0  0  0999 V2000
    8.9282    1.8170    0.0000 S   0  0  0  0  0  0  0  0  0  0  0  0
   10.6603    2.8170    0.0000 F   0  0  0  0  0  0  0  0  0  0  0  0
    9.2942    3.1830    0.0000 F   0  0  0  0  0  0  0  0  0  0  0  0
   10.2942    1.4510    0.0000 F   0  0  0  0  0  0  0  0  0  0  0  0
    8.4282    2.6830    0.0000 O   0  0  0  0  0  0  0  0  0  0  0  0
    9.4282    0.9510    0.0000 O   0  0  0  0  0  0  0  0  0  0  0  0
    4.5981   -1.6830    0.0000 N   0  0  3  0  0  0  0  0  0  0  0  0
    8.0622    1.3170    0.0000 N   0  0  0  0  0  0  0  0  0  0  0  0
    6.3301   -1.6830    0.0000 C   0  0  1  0  0  0  0  0  0  0  0  0
    5.4641   -1.1830    0.0000 C   0  0  0  0  0  0  0  0  0  0  0  0
    6.3301   -2.6830    0.0000 C   0  0  0  0  0  0  0  0  0  0  0  0
    5.4641   -3.1830    0.0000 C   0  0  0  0  0  0  0  0  0  0  0  0
    4.5981   -2.6830    0.0000 C   0  0  0  0  0  0  0  0  0  0  0  0
    7.1962   -1.1830    0.0000 C   0  0  0  0  0  0  0  0  0  0  0  0
    3.7320   -1.1830    0.0000 C   0  0  0  0  0  0  0  0  0  0  0  0
    2.8660   -1.6830    0.0000 C   0  0  0  0  0  0  0  0  0  0  0  0
    7.1962   -0.1830    0.0000 C   0  0  0  0  0  0  0  0  0  0  0  0
    8.0622   -1.6830    0.0000 C   0  0  0  0  0  0  0  0  0  0  0  0
    8.0622    0.3170    0.0000 C   0  0  0  0  0  0  0  0  0  0  0  0
    2.0000   -1.1830    0.0000 C   0  0  0  0  0  0  0  0  0  0  0  0
    8.9282   -1.1830    0.0000 C   0  0  0  0  0  0  0  0  0  0  0  0
    8.9282   -0.1830    0.0000 C   0  0  0  0  0  0  0  0  0  0  0  0
    9.7942    2.3170    0.0000 C   0  0  0  0  0  0  0  0  0  0  0  0
    6.8671   -1.9930    0.0000 H   0  0  0  0  0  0  0  0  0  0  0  0
    5.8626   -0.7081    0.0000 H   0  0  0  0  0  0  0  0  0  0  0  0
    5.0656   -0.7081    0.0000 H   0  0  0  0  0  0  0  0  0  0  0  0
    6.5422   -3.2656    0.0000 H   0  0  0  0  0  0  0  0  0  0  0  0
    6.9407   -2.5753    0.0000 H   0  0  0  0  0  0  0  0  0  0  0  0
    5.0656   -3.6580    0.0000 H   0  0  0  0  0  0  0  0  0  0  0  0
    5.8626   -3.6580    0.0000 H   0  0  0  0  0  0  0  0  0  0  0  0
    3.9875   -2.5753    0.0000 H   0  0  0  0  0  0  0  0  0  0  0  0
    4.3860   -3.2656    0.0000 H   0  0  0  0  0  0  0  0  0  0  0  0
    4.1306   -0.7081    0.0000 H   0  0  0  0  0  0  0  0  0  0  0  0
    3.3335   -0.7081    0.0000 H   0  0  0  0  0  0  0  0  0  0  0  0
    2.4675   -2.1580    0.0000 H   0  0  0  0  0  0  0  0  0  0  0  0
    3.2646   -2.1580    0.0000 H   0  0  0  0  0  0  0  0  0  0  0  0
    6.6592    0.1270    0.0000 H   0  0  0  0  0  0  0  0  0  0  0  0
    8.0622   -2.3030    0.0000 H   0  0  0  0  0  0  0  0  0  0  0  0
    2.3100   -0.6461    0.0000 H   0  0  0  0  0  0  0  0  0  0  0  0
    1.4631   -0.8730    0.0000 H   0  0  0  0  0  0  0  0  0  0  0  0
    1.6900   -1.7200    0.0000 H   0  0  0  0  0  0  0  0  0  0  0  0
    9.4651   -1.4930    0.0000 H   0  0  0  0  0  0  0  0  0  0  0  0
    9.4651    0.1270    0.0000 H   0  0  0  0  0  0  0  0  0  0  0  0
    7.5252    1.6270    0.0000 H   0  0  0  0  0  0  0  0  0  0  0  0
  1  5  2  0  0  0  0
  1  6  2  0  0  0  0
  1  8  1  0  0  0  0
  1 23  1  0  0  0  0
  2 23  1  0  0  0  0
  3 23  1  0  0  0  0
  4 23  1  0  0  0  0
  7 10  1  0  0  0  0
  7 13  1  0  0  0  0
  7 15  1  0  0  0  0
  8 19  1  0  0  0  0
  8 44  1  0  0  0  0
  9 10  1  0  0  0  0
  9 11  1  0  0  0  0
  9 14  1  6  0  0  0
  9 24  1  0  0  0  0
 10 25  1  0  0  0  0
 10 26  1  0  0  0  0
 11 12  1  0  0  0  0
 11 27  1  0  0  0  0
 11 28  1  0  0  0  0
 12 13  1  0  0  0  0
 12 29  1  0  0  0  0
 12 30  1  0  0  0  0
 13 31  1  0  0  0  0
 13 32  1  0  0  0  0
 14 17  2  0  0  0  0
 14 18  1  0  0  0  0
 15 16  1  0  0  0  0
 15 33  1  0  0  0  0
 15 34  1  0  0  0  0
 16 20  1  0  0  0  0
 16 35  1  0  0  0  0
 16 36  1  0  0  0  0
 17 19  1  0  0  0  0
 17 37  1  0  0  0  0
 18 21  2  0  0  0  0
 18 38  1  0  0  0  0
 19 22  2  0  0  0  0
 20 39  1  0  0  0  0
 20 40  1  0  0  0  0
 20 41  1  0  0  0  0
 21 22  1  0  0  0  0
 21 42  1  0  0  0  0
 22 43  1  0  0  0  0
M  END
> <PUBCHEM_COMPOUND_CID>
10315866

> <PUBCHEM_COMPOUND_CANONICALIZED>
1

> <PUBCHEM_CACTVS_COMPLEXITY>
476

> <PUBCHEM_CACTVS_HBOND_ACCEPTOR>
7

> <PUBCHEM_CACTVS_HBOND_DONOR>
1

> <PUBCHEM_CACTVS_ROTATABLE_BOND>
5

> <PUBCHEM_CACTVS_SUBSKEYS>
AAADceBzMYBAAAAAAAAAAAAAAAAAAAAAAAA8QAAAAAAAAAABAAAAHQQQQAAADQjBGBQywINAAAKAAiRCQHCCAAAgAgAIiAAIZIgIICKAkZGEIABgkACIyAcQgMAOgAAAQAAAAAAAAACAAAAAAAAAAAAAAA==

> <PUBCHEM_IUPAC_OPENEYE_NAME>
1,1,1-trifluoro-N-[3-[(3S)-1-propyl-3-piperidyl]phenyl]methanesulfonamide

> <PUBCHEM_IUPAC_CAS_NAME>
1,1,1-trifluoro-N-[3-[(3S)-1-propyl-3-piperidinyl]phenyl]methanesulfonamide

> <PUBCHEM_IUPAC_NAME_MARKUP>
1,1,1-trifluoro-<I>N</I>-[3-[(3<I>S</I>)-1-propylpiperidin-3-yl]phenyl]methanesulfonamide

> <PUBCHEM_IUPAC_NAME>
1,1,1-trifluoro-N-[3-[(3S)-1-propylpiperidin-3-yl]phenyl]methanesulfonamide

> <PUBCHEM_IUPAC_SYSTEMATIC_NAME>
1,1,1-tris(fluoranyl)-N-[3-[(3S)-1-propylpiperidin-3-yl]phenyl]methanesulfonamide

> <PUBCHEM_IUPAC_TRADITIONAL_NAME>
1,1,1-trifluoro-N-[3-[(3S)-1-propyl-3-piperidyl]phenyl]methanesulfonamide

> <PUBCHEM_IUPAC_INCHI>
InChI=1S/C15H21F3N2O2S/c1-2-8-20-9-4-6-13(11-20)12-5-3-7-14(10-12)19-23(21,22)15(16,17)18/h3,5,7,10,13,19H,2,4,6,8-9,11H2,1H3/t13-/m1/s1

> <PUBCHEM_IUPAC_INCHIKEY>
SWFXFUUQMZDQAK-CYBMUJFWSA-N

> <PUBCHEM_XLOGP3_AA>
3.6

> <PUBCHEM_EXACT_MASS>
350.12758358

> <PUBCHEM_MOLECULAR_FORMULA>
C15H21F3N2O2S

> <PUBCHEM_MOLECULAR_WEIGHT>
350.4

> <PUBCHEM_OPENEYE_CAN_SMILES>
CCCN1CCCC(C1)C2=CC(=CC=C2)NS(=O)(=O)C(F)(F)F

> <PUBCHEM_OPENEYE_ISO_SMILES>
CCCN1CCC[C@H](C1)C2=CC(=CC=C2)NS(=O)(=O)C(F)(F)F

> <PUBCHEM_CACTVS_TPSA>
57.8

> <PUBCHEM_MONOISOTOPIC_WEIGHT>
350.12758358

> <PUBCHEM_TOTAL_CHARGE>
0

> <PUBCHEM_HEAVY_ATOM_COUNT>
23

> <PUBCHEM_ATOM_DEF_STEREO_COUNT>
1

> <PUBCHEM_ATOM_UDEF_STEREO_COUNT>
0

> <PUBCHEM_BOND_DEF_STEREO_COUNT>
0

> <PUBCHEM_BOND_UDEF_STEREO_COUNT>
0

> <PUBCHEM_ISOTOPIC_ATOM_COUNT>
0

> <PUBCHEM_COMPONENT_COUNT>
1

> <PUBCHEM_CACTVS_TAUTO_COUNT>
-1

> <PUBCHEM_COORDINATE_TYPE>
1
5
255

> <PUBCHEM_BONDANNOTATIONS>
14  17  8
14  18  8
17  19  8
18  21  8
19  22  8
21  22  8
9  14  6

$$$$
