121315304
  -OEChem-09292322372D

 59 63  0     1  0  0  0  0  0999 V2000
    6.4659    2.4434    0.0000 S   0  0  0  0  0  0  0  0  0  0  0  0
    6.9620   -5.9066    0.0000 F   0  0  0  0  0  0  0  0  0  0  0  0
    8.3280   -6.2726    0.0000 F   0  0  0  0  0  0  0  0  0  0  0  0
    7.3280   -4.5405    0.0000 F   0  0  0  0  0  0  0  0  0  0  0  0
    2.8090    3.9247    0.0000 O   0  0  0  0  0  0  0  0  0  0  0  0
    6.8280   -1.0017    0.0000 N   0  0  3  0  0  0  0  0  0  0  0  0
    4.8781    3.2524    0.0000 N   0  0  0  0  0  0  0  0  0  0  0  0
    6.1871    4.2035    0.0000 N   0  0  0  0  0  0  0  0  0  0  0  0
    5.3781    4.7913    0.0000 N   0  0  0  0  0  0  0  0  0  0  0  0
    2.3090    5.4636    0.0000 N   0  0  0  0  0  0  0  0  0  0  0  0
    7.3280   -2.5405    0.0000 C   0  0  2  0  0  0  0  0  0  0  0  0
    7.8280   -3.4066    0.0000 C   0  0  2  0  0  0  0  0  0  0  0  0
    6.8280   -3.4066    0.0000 C   0  0  0  0  0  0  0  0  0  0  0  0
    8.1370   -1.9528    0.0000 C   0  0  0  0  0  0  0  0  0  0  0  0
    6.5190   -1.9528    0.0000 C   0  0  0  0  0  0  0  0  0  0  0  0
    7.8280   -1.0017    0.0000 C   0  0  0  0  0  0  0  0  0  0  0  0
    8.6940   -3.9066    0.0000 C   0  0  0  0  0  0  0  0  0  0  0  0
    6.2402   -0.1927    0.0000 C   0  0  0  0  0  0  0  0  0  0  0  0
    8.6940   -4.9066    0.0000 C   0  0  0  0  0  0  0  0  0  0  0  0
    9.5600   -3.4066    0.0000 C   0  0  0  0  0  0  0  0  0  0  0  0
    6.6469    0.7209    0.0000 C   0  0  0  0  0  0  0  0  0  0  0  0
    9.5600   -5.4066    0.0000 C   0  0  0  0  0  0  0  0  0  0  0  0
    7.8280   -5.4066    0.0000 C   0  0  0  0  0  0  0  0  0  0  0  0
   10.4261   -3.9066    0.0000 C   0  0  0  0  0  0  0  0  0  0  0  0
   10.4261   -4.9066    0.0000 C   0  0  0  0  0  0  0  0  0  0  0  0
    6.0592    1.5299    0.0000 C   0  0  0  0  0  0  0  0  0  0  0  0
    5.8781    3.2524    0.0000 C   0  0  0  0  0  0  0  0  0  0  0  0
    4.5691    4.2035    0.0000 C   0  0  0  0  0  0  0  0  0  0  0  0
    4.2903    2.4434    0.0000 C   0  0  0  0  0  0  0  0  0  0  0  0
    3.6180    4.5125    0.0000 C   0  0  0  0  0  0  0  0  0  0  0  0
    3.3090    5.4636    0.0000 C   0  0  0  0  0  0  0  0  0  0  0  0
    3.8968    6.2726    0.0000 C   0  0  0  0  0  0  0  0  0  0  0  0
    2.0000    4.5125    0.0000 C   0  0  0  0  0  0  0  0  0  0  0  0
    7.6080   -4.2276    0.0000 H   0  0  0  0  0  0  0  0  0  0  0  0
    6.2454   -3.1945    0.0000 H   0  0  0  0  0  0  0  0  0  0  0  0
    6.7203   -4.0172    0.0000 H   0  0  0  0  0  0  0  0  0  0  0  0
    8.4470   -2.4897    0.0000 H   0  0  0  0  0  0  0  0  0  0  0  0
    8.7034   -1.7006    0.0000 H   0  0  0  0  0  0  0  0  0  0  0  0
    5.9526   -1.7006    0.0000 H   0  0  0  0  0  0  0  0  0  0  0  0
    6.2090   -2.4897    0.0000 H   0  0  0  0  0  0  0  0  0  0  0  0
    8.4344   -0.8728    0.0000 H   0  0  0  0  0  0  0  0  0  0  0  0
    7.7632   -0.3851    0.0000 H   0  0  0  0  0  0  0  0  0  0  0  0
    5.7262    0.1540    0.0000 H   0  0  0  0  0  0  0  0  0  0  0  0
    5.8095   -0.6387    0.0000 H   0  0  0  0  0  0  0  0  0  0  0  0
    9.5600   -2.7866    0.0000 H   0  0  0  0  0  0  0  0  0  0  0  0
    7.1609    0.3742    0.0000 H   0  0  0  0  0  0  0  0  0  0  0  0
    7.0776    1.1668    0.0000 H   0  0  0  0  0  0  0  0  0  0  0  0
    9.5600   -6.0266    0.0000 H   0  0  0  0  0  0  0  0  0  0  0  0
   10.9630   -3.5966    0.0000 H   0  0  0  0  0  0  0  0  0  0  0  0
   10.9630   -5.2166    0.0000 H   0  0  0  0  0  0  0  0  0  0  0  0
    5.5451    1.8766    0.0000 H   0  0  0  0  0  0  0  0  0  0  0  0
    5.6285    1.0839    0.0000 H   0  0  0  0  0  0  0  0  0  0  0  0
    3.7887    2.8078    0.0000 H   0  0  0  0  0  0  0  0  0  0  0  0
    3.9259    1.9418    0.0000 H   0  0  0  0  0  0  0  0  0  0  0  0
    4.7919    2.0790    0.0000 H   0  0  0  0  0  0  0  0  0  0  0  0
    4.3984    5.9082    0.0000 H   0  0  0  0  0  0  0  0  0  0  0  0
    4.2612    6.7742    0.0000 H   0  0  0  0  0  0  0  0  0  0  0  0
    3.3952    6.6370    0.0000 H   0  0  0  0  0  0  0  0  0  0  0  0
    1.4103    4.3209    0.0000 H   0  0  0  0  0  0  0  0  0  0  0  0
  1 26  1  0  0  0  0
  1 27  1  0  0  0  0
  2 23  1  0  0  0  0
  3 23  1  0  0  0  0
  4 23  1  0  0  0  0
  5 30  1  0  0  0  0
  5 33  1  0  0  0  0
  6 15  1  0  0  0  0
  6 16  1  0  0  0  0
  6 18  1  0  0  0  0
  7 27  1  0  0  0  0
  7 28  1  0  0  0  0
  7 29  1  0  0  0  0
  8  9  1  0  0  0  0
  8 27  2  0  0  0  0
  9 28  2  0  0  0  0
 10 31  1  0  0  0  0
 10 33  2  0  0  0  0
 11 12  1  0  0  0  0
 11 13  1  6  0  0  0
 11 14  1  0  0  0  0
 11 15  1  0  0  0  0
 12 13  1  0  0  0  0
 12 17  1  0  0  0  0
 12 34  1  6  0  0  0
 13 35  1  0  0  0  0
 13 36  1  0  0  0  0
 14 16  1  0  0  0  0
 14 37  1  0  0  0  0
 14 38  1  0  0  0  0
 15 39  1  0  0  0  0
 15 40  1  0  0  0  0
 16 41  1  0  0  0  0
 16 42  1  0  0  0  0
 17 19  1  0  0  0  0
 17 20  2  0  0  0  0
 18 21  1  0  0  0  0
 18 43  1  0  0  0  0
 18 44  1  0  0  0  0
 19 22  2  0  0  0  0
 19 23  1  0  0  0  0
 20 24  1  0  0  0  0
 20 45  1  0  0  0  0
 21 26  1  0  0  0  0
 21 46  1  0  0  0  0
 21 47  1  0  0  0  0
 22 25  1  0  0  0  0
 22 48  1  0  0  0  0
 24 25  2  0  0  0  0
 24 49  1  0  0  0  0
 25 50  1  0  0  0  0
 26 51  1  0  0  0  0
 26 52  1  0  0  0  0
 28 30  1  0  0  0  0
 29 53  1  0  0  0  0
 29 54  1  0  0  0  0
 29 55  1  0  0  0  0
 30 31  2  0  0  0  0
 31 32  1  0  0  0  0
 32 56  1  0  0  0  0
 32 57  1  0  0  0  0
 32 58  1  0  0  0  0
 33 59  1  0  0  0  0
M  END
> <PUBCHEM_COMPOUND_CID>
121315304

> <PUBCHEM_COMPOUND_CANONICALIZED>
1

> <PUBCHEM_CACTVS_COMPLEXITY>
687

> <PUBCHEM_CACTVS_HBOND_ACCEPTOR>
9

> <PUBCHEM_CACTVS_HBOND_DONOR>
0

> <PUBCHEM_CACTVS_ROTATABLE_BOND>
7

> <PUBCHEM_CACTVS_SUBSKEYS>
AAADceB7oYBAAAAAAAAAAAAAGAAAAWLFgAAwAAAAAAAAAAAB8AAAHwQIAAAADwzF3xa3lJcMFEiqA6Zz9ASS2Ct7YLAd2CG9RJiOKCLk2TCNIChgjALYiAcQgMAPgAAAAAAQAAAAAAAAACAAAAAAAAAAAA==

> <PUBCHEM_IUPAC_OPENEYE_NAME>
4-methyl-5-[4-methyl-5-[3-[(2R,3S)-2-[2-(trifluoromethyl)phenyl]-5-azaspiro[2.4]heptan-5-yl]propylsulfanyl]-1,2,4-triazol-3-yl]oxazole

> <PUBCHEM_IUPAC_CAS_NAME>
4-methyl-5-[4-methyl-5-[3-[(2R,3S)-2-[2-(trifluoromethyl)phenyl]-5-azaspiro[2.4]heptan-5-yl]propylthio]-1,2,4-triazol-3-yl]oxazole

> <PUBCHEM_IUPAC_NAME_MARKUP>
4-methyl-5-[4-methyl-5-[3-[(2<I>R</I>,3<I>S</I>)-2-[2-(trifluoromethyl)phenyl]-5-azaspiro[2.4]heptan-5-yl]propylsulfanyl]-1,2,4-triazol-3-yl]-1,3-oxazole

> <PUBCHEM_IUPAC_NAME>
4-methyl-5-[4-methyl-5-[3-[(2R,3S)-2-[2-(trifluoromethyl)phenyl]-5-azaspiro[2.4]heptan-5-yl]propylsulfanyl]-1,2,4-triazol-3-yl]-1,3-oxazole

> <PUBCHEM_IUPAC_SYSTEMATIC_NAME>
4-methyl-5-[4-methyl-5-[3-[(2R,3S)-2-[2-(trifluoromethyl)phenyl]-5-azaspiro[2.4]heptan-5-yl]propylsulfanyl]-1,2,4-triazol-3-yl]-1,3-oxazole

> <PUBCHEM_IUPAC_TRADITIONAL_NAME>
4-methyl-5-[4-methyl-5-[3-[(2R,3S)-2-[2-(trifluoromethyl)phenyl]-5-azaspiro[2.4]heptan-5-yl]propylthio]-1,2,4-triazol-3-yl]oxazole

> <PUBCHEM_IUPAC_INCHI>
InChI=1S/C23H26F3N5OS/c1-15-19(32-14-27-15)20-28-29-21(30(20)2)33-11-5-9-31-10-8-22(13-31)12-18(22)16-6-3-4-7-17(16)23(24,25)26/h3-4,6-7,14,18H,5,8-13H2,1-2H3/t18-,22+/m1/s1

> <PUBCHEM_IUPAC_INCHIKEY>
RRSUWPYFZSEELD-GCJKJVERSA-N

> <PUBCHEM_XLOGP3_AA>
4.2

> <PUBCHEM_EXACT_MASS>
477.18101613

> <PUBCHEM_MOLECULAR_FORMULA>
C23H26F3N5OS

> <PUBCHEM_MOLECULAR_WEIGHT>
477.5

> <PUBCHEM_OPENEYE_CAN_SMILES>
CC1=C(OC=N1)C2=NN=C(N2C)SCCCN3CCC4(C3)CC4C5=CC=CC=C5C(F)(F)F

> <PUBCHEM_OPENEYE_ISO_SMILES>
CC1=C(OC=N1)C2=NN=C(N2C)SCCCN3CC[C@@]4(C3)C[C@@H]4C5=CC=CC=C5C(F)(F)F

> <PUBCHEM_CACTVS_TPSA>
85.3

> <PUBCHEM_MONOISOTOPIC_WEIGHT>
477.18101613

> <PUBCHEM_TOTAL_CHARGE>
0

> <PUBCHEM_HEAVY_ATOM_COUNT>
33

> <PUBCHEM_ATOM_DEF_STEREO_COUNT>
2

> <PUBCHEM_ATOM_UDEF_STEREO_COUNT>
0

> <PUBCHEM_BOND_DEF_STEREO_COUNT>
0

> <PUBCHEM_BOND_UDEF_STEREO_COUNT>
0

> <PUBCHEM_ISOTOPIC_ATOM_COUNT>
0

> <PUBCHEM_COMPONENT_COUNT>
1

> <PUBCHEM_CACTVS_TAUTO_COUNT>
-1

> <PUBCHEM_COORDINATE_TYPE>
1
5
255

> <PUBCHEM_BONDANNOTATIONS>
10  31  8
10  33  8
11  13  6
12  34  6
17  19  8
17  20  8
19  22  8
20  24  8
22  25  8
24  25  8
30  31  8
5  30  8
5  33  8
7  27  8
7  28  8
8  27  8
8  9  8
9  28  8

$$$$
