155532477
  -OEChem-09292322462D

 65 67  0     1  0  0  0  0  0999 V2000
   13.4724    6.7478    0.0000 Cl  0  0  0  0  0  0  0  0  0  0  0  0
    7.0991    8.9860    0.0000 S   0  0  0  0  0  0  0  0  0  0  0  0
    5.7331    0.6200    0.0000 F   0  0  0  0  0  0  0  0  0  0  0  0
    2.2690    2.6200    0.0000 O   0  0  0  0  0  0  0  0  0  0  0  0
    5.3671    5.9860    0.0000 N   0  0  3  0  0  0  0  0  0  0  0  0
    8.0697   10.4805    0.0000 N   0  0  0  0  0  0  0  0  0  0  0  0
    8.8787    9.0793    0.0000 N   0  0  0  0  0  0  0  0  0  0  0  0
    9.5478    9.8224    0.0000 N   0  0  0  0  0  0  0  0  0  0  0  0
    4.5010    4.4860    0.0000 C   0  0  3  0  0  0  0  0  0  0  0  0
    4.0010    3.6200    0.0000 C   0  0  3  0  0  0  0  0  0  0  0  0
    3.5010    4.4860    0.0000 C   0  0  0  0  0  0  0  0  0  0  0  0
    5.3671    4.9860    0.0000 C   0  0  0  0  0  0  0  0  0  0  0  0
    4.0010    2.6200    0.0000 C   0  0  0  0  0  0  0  0  0  0  0  0
    3.1350    2.1200    0.0000 C   0  0  0  0  0  0  0  0  0  0  0  0
    4.8671    2.1200    0.0000 C   0  0  0  0  0  0  0  0  0  0  0  0
    6.2331    6.4860    0.0000 C   0  0  0  0  0  0  0  0  0  0  0  0
    4.5010    6.4860    0.0000 C   0  0  0  0  0  0  0  0  0  0  0  0
    3.1350    1.1200    0.0000 C   0  0  0  0  0  0  0  0  0  0  0  0
    4.8671    1.1200    0.0000 C   0  0  0  0  0  0  0  0  0  0  0  0
    6.2331    7.4860    0.0000 C   0  0  0  0  0  0  0  0  0  0  0  0
    4.0010    0.6200    0.0000 C   0  0  0  0  0  0  0  0  0  0  0  0
    7.0991    7.9860    0.0000 C   0  0  0  0  0  0  0  0  0  0  0  0
    1.4030    2.1200    0.0000 C   0  0  0  0  0  0  0  0  0  0  0  0
    0.5369    2.6200    0.0000 C   0  0  0  0  0  0  0  0  0  0  0  0
    7.9651    9.4860    0.0000 C   0  0  0  0  0  0  0  0  0  0  0  0
    9.0478   10.6885    0.0000 C   0  0  0  0  0  0  0  0  0  0  0  0
    7.3265   11.1497    0.0000 C   0  0  0  0  0  0  0  0  0  0  0  0
    9.4546   11.6020    0.0000 C   0  0  0  0  0  0  0  0  0  0  0  0
    8.8668   12.4110    0.0000 C   0  0  0  0  0  0  0  0  0  0  0  0
   10.4491   11.7065    0.0000 C   0  0  0  0  0  0  0  0  0  0  0  0
    9.2735   13.3246    0.0000 C   0  0  0  0  0  0  0  0  0  0  0  0
   10.8558   12.6201    0.0000 C   0  0  0  0  0  0  0  0  0  0  0  0
   10.2680   13.4291    0.0000 C   0  0  0  0  0  0  0  0  0  0  0  0
    4.9394    4.0476    0.0000 H   0  0  0  0  0  0  0  0  0  0  0  0
    4.5999    3.4595    0.0000 H   0  0  0  0  0  0  0  0  0  0  0  0
    3.3934    5.0966    0.0000 H   0  0  0  0  0  0  0  0  0  0  0  0
    2.9184    4.2740    0.0000 H   0  0  0  0  0  0  0  0  0  0  0  0
    5.5791    4.4034    0.0000 H   0  0  0  0  0  0  0  0  0  0  0  0
    5.9776    5.0937    0.0000 H   0  0  0  0  0  0  0  0  0  0  0  0
    5.4040    2.4300    0.0000 H   0  0  0  0  0  0  0  0  0  0  0  0
    6.4451    5.9034    0.0000 H   0  0  0  0  0  0  0  0  0  0  0  0
    6.8437    6.5937    0.0000 H   0  0  0  0  0  0  0  0  0  0  0  0
    4.8110    7.0230    0.0000 H   0  0  0  0  0  0  0  0  0  0  0  0
    3.9641    6.7960    0.0000 H   0  0  0  0  0  0  0  0  0  0  0  0
    4.1910    5.9491    0.0000 H   0  0  0  0  0  0  0  0  0  0  0  0
    2.5981    0.8100    0.0000 H   0  0  0  0  0  0  0  0  0  0  0  0
    6.0210    8.0686    0.0000 H   0  0  0  0  0  0  0  0  0  0  0  0
    5.6225    7.3784    0.0000 H   0  0  0  0  0  0  0  0  0  0  0  0
    4.0010    0.0000    0.0000 H   0  0  0  0  0  0  0  0  0  0  0  0
    7.3112    7.4034    0.0000 H   0  0  0  0  0  0  0  0  0  0  0  0
    7.7097    8.0937    0.0000 H   0  0  0  0  0  0  0  0  0  0  0  0
    1.0044    1.6450    0.0000 H   0  0  0  0  0  0  0  0  0  0  0  0
    1.8015    1.6450    0.0000 H   0  0  0  0  0  0  0  0  0  0  0  0
    0.8469    3.1569    0.0000 H   0  0  0  0  0  0  0  0  0  0  0  0
    0.0000    2.9300    0.0000 H   0  0  0  0  0  0  0  0  0  0  0  0
    0.2269    2.0831    0.0000 H   0  0  0  0  0  0  0  0  0  0  0  0
    7.7414   11.6104    0.0000 H   0  0  0  0  0  0  0  0  0  0  0  0
    6.8658   11.5645    0.0000 H   0  0  0  0  0  0  0  0  0  0  0  0
    6.9117   10.6889    0.0000 H   0  0  0  0  0  0  0  0  0  0  0  0
    8.2502   12.3462    0.0000 H   0  0  0  0  0  0  0  0  0  0  0  0
   10.8135   11.2049    0.0000 H   0  0  0  0  0  0  0  0  0  0  0  0
    8.9091   13.8262    0.0000 H   0  0  0  0  0  0  0  0  0  0  0  0
   11.4724   12.6849    0.0000 H   0  0  0  0  0  0  0  0  0  0  0  0
   10.5202   13.9955    0.0000 H   0  0  0  0  0  0  0  0  0  0  0  0
   14.4724    6.7478    0.0000 H   0  0  0  0  0  0  0  0  0  0  0  0
  1 65  1  0  0  0  0
  2 22  1  0  0  0  0
  2 25  1  0  0  0  0
  3 19  1  0  0  0  0
  4 14  1  0  0  0  0
  4 23  1  0  0  0  0
  5 12  1  0  0  0  0
  5 16  1  0  0  0  0
  5 17  1  0  0  0  0
  6 25  1  0  0  0  0
  6 26  1  0  0  0  0
  6 27  1  0  0  0  0
  7  8  1  0  0  0  0
  7 25  2  0  0  0  0
  8 26  2  0  0  0  0
  9 10  1  0  0  0  0
  9 11  1  0  0  0  0
  9 12  1  0  0  0  0
  9 34  1  0  0  0  0
 10 11  1  0  0  0  0
 10 13  1  0  0  0  0
 10 35  1  0  0  0  0
 11 36  1  0  0  0  0
 11 37  1  0  0  0  0
 12 38  1  0  0  0  0
 12 39  1  0  0  0  0
 13 14  2  0  0  0  0
 13 15  1  0  0  0  0
 14 18  1  0  0  0  0
 15 19  2  0  0  0  0
 15 40  1  0  0  0  0
 16 20  1  0  0  0  0
 16 41  1  0  0  0  0
 16 42  1  0  0  0  0
 17 43  1  0  0  0  0
 17 44  1  0  0  0  0
 17 45  1  0  0  0  0
 18 21  2  0  0  0  0
 18 46  1  0  0  0  0
 19 21  1  0  0  0  0
 20 22  1  0  0  0  0
 20 47  1  0  0  0  0
 20 48  1  0  0  0  0
 21 49  1  0  0  0  0
 22 50  1  0  0  0  0
 22 51  1  0  0  0  0
 23 24  1  0  0  0  0
 23 52  1  0  0  0  0
 23 53  1  0  0  0  0
 24 54  1  0  0  0  0
 24 55  1  0  0  0  0
 24 56  1  0  0  0  0
 26 28  1  0  0  0  0
 27 57  1  0  0  0  0
 27 58  1  0  0  0  0
 27 59  1  0  0  0  0
 28 29  2  0  0  0  0
 28 30  1  0  0  0  0
 29 31  1  0  0  0  0
 29 60  1  0  0  0  0
 30 32  2  0  0  0  0
 30 61  1  0  0  0  0
 31 33  2  0  0  0  0
 31 62  1  0  0  0  0
 32 33  1  0  0  0  0
 32 63  1  0  0  0  0
 33 64  1  0  0  0  0
M  END
> <PUBCHEM_COMPOUND_CID>
155532477

> <PUBCHEM_COMPOUND_CANONICALIZED>
1

> <PUBCHEM_CACTVS_COMPLEXITY>
566

> <PUBCHEM_CACTVS_HBOND_ACCEPTOR>
6

> <PUBCHEM_CACTVS_HBOND_DONOR>
1

> <PUBCHEM_CACTVS_ROTATABLE_BOND>
11

> <PUBCHEM_CACTVS_SUBSKEYS>
AAADcfB7oQBEAAAAAAAAAAAAGAAAAWAAAAAwYAAAAAAAAAAB0AAAHwQIAAAADQTl2w6zFocMFAiiAiJiJACS2AtgILAdyCAuDJiMLqKkuRuGOCjkyBOIqAeQ0OIOgAAAAAAIAAAAAAAAABAAAAAAAAAAAA==

> <PUBCHEM_IUPAC_OPENEYE_NAME>
N-[[2-(2-ethoxy-5-fluoro-phenyl)cyclopropyl]methyl]-N-methyl-3-[(4-methyl-5-phenyl-1,2,4-triazol-3-yl)sulfanyl]propan-1-amine;hydrochloride

> <PUBCHEM_IUPAC_CAS_NAME>
N-[[2-(2-ethoxy-5-fluorophenyl)cyclopropyl]methyl]-N-methyl-3-[(4-methyl-5-phenyl-1,2,4-triazol-3-yl)thio]-1-propanamine;hydrochloride

> <PUBCHEM_IUPAC_NAME_MARKUP>
<I>N</I>-[[2-(2-ethoxy-5-fluorophenyl)cyclopropyl]methyl]-<I>N</I>-methyl-3-[(4-methyl-5-phenyl-1,2,4-triazol-3-yl)sulfanyl]propan-1-amine;hydrochloride

> <PUBCHEM_IUPAC_NAME>
N-[[2-(2-ethoxy-5-fluorophenyl)cyclopropyl]methyl]-N-methyl-3-[(4-methyl-5-phenyl-1,2,4-triazol-3-yl)sulfanyl]propan-1-amine;hydrochloride

> <PUBCHEM_IUPAC_SYSTEMATIC_NAME>
N-[[2-(2-ethoxy-5-fluoranyl-phenyl)cyclopropyl]methyl]-N-methyl-3-[(4-methyl-5-phenyl-1,2,4-triazol-3-yl)sulfanyl]propan-1-amine;hydrochloride

> <PUBCHEM_IUPAC_TRADITIONAL_NAME>
[2-(2-ethoxy-5-fluoro-phenyl)cyclopropyl]methyl-methyl-[3-[(4-methyl-5-phenyl-1,2,4-triazol-3-yl)thio]propyl]amine;hydrochloride

> <PUBCHEM_IUPAC_INCHI>
InChI=1S/C25H31FN4OS.ClH/c1-4-31-23-12-11-20(26)16-22(23)21-15-19(21)17-29(2)13-8-14-32-25-28-27-24(30(25)3)18-9-6-5-7-10-18;/h5-7,9-12,16,19,21H,4,8,13-15,17H2,1-3H3;1H

> <PUBCHEM_IUPAC_INCHIKEY>
OHFDSJPIFZIHFX-UHFFFAOYSA-N

> <PUBCHEM_EXACT_MASS>
490.1969387

> <PUBCHEM_MOLECULAR_FORMULA>
C25H32ClFN4OS

> <PUBCHEM_MOLECULAR_WEIGHT>
491.1

> <PUBCHEM_OPENEYE_CAN_SMILES>
CCOC1=C(C=C(C=C1)F)C2CC2CN(C)CCCSC3=NN=C(N3C)C4=CC=CC=C4.Cl

> <PUBCHEM_OPENEYE_ISO_SMILES>
CCOC1=C(C=C(C=C1)F)C2CC2CN(C)CCCSC3=NN=C(N3C)C4=CC=CC=C4.Cl

> <PUBCHEM_CACTVS_TPSA>
68.5

> <PUBCHEM_MONOISOTOPIC_WEIGHT>
490.1969387

> <PUBCHEM_TOTAL_CHARGE>
0

> <PUBCHEM_HEAVY_ATOM_COUNT>
33

> <PUBCHEM_ATOM_DEF_STEREO_COUNT>
0

> <PUBCHEM_ATOM_UDEF_STEREO_COUNT>
2

> <PUBCHEM_BOND_DEF_STEREO_COUNT>
0

> <PUBCHEM_BOND_UDEF_STEREO_COUNT>
0

> <PUBCHEM_ISOTOPIC_ATOM_COUNT>
0

> <PUBCHEM_COMPONENT_COUNT>
2

> <PUBCHEM_CACTVS_TAUTO_COUNT>
-1

> <PUBCHEM_COORDINATE_TYPE>
1
5
255

> <PUBCHEM_BONDANNOTATIONS>
10  13  3
13  14  8
13  15  8
14  18  8
15  19  8
18  21  8
19  21  8
28  29  8
28  30  8
29  31  8
30  32  8
31  33  8
32  33  8
6  25  8
6  26  8
7  25  8
7  8  8
8  26  8
9  12  3

$$$$
