56943599
  -OEChem-09292322342D

 61 65  0     0  0  0  0  0  0999 V2000
   17.9212    1.2352    0.0000 Cl  0  0  0  0  0  0  0  0  0  0  0  0
   12.6590   -0.7890    0.0000 S   0  0  0  0  0  0  0  0  0  0  0  0
    3.7899    1.9090    0.0000 O   0  0  0  0  0  0  0  0  0  0  0  0
   12.1590    0.0771    0.0000 O   0  0  0  0  0  0  0  0  0  0  0  0
   13.1590   -1.6550    0.0000 O   0  0  0  0  0  0  0  0  0  0  0  0
    7.4629   -0.7890    0.0000 N   0  0  0  0  0  0  0  0  0  0  0  0
    5.7308    0.2110    0.0000 N   0  0  0  0  0  0  0  0  0  0  0  0
   11.7930   -1.2890    0.0000 N   0  0  0  0  0  0  0  0  0  0  0  0
    4.7617    1.6998    0.0000 N   0  0  0  0  0  0  0  0  0  0  0  0
    7.4629    0.2110    0.0000 C   0  0  0  0  0  0  0  0  0  0  0  0
    6.5968   -1.2890    0.0000 C   0  0  0  0  0  0  0  0  0  0  0  0
    6.5968    0.7110    0.0000 C   0  0  0  0  0  0  0  0  0  0  0  0
    5.7308   -0.7890    0.0000 C   0  0  0  0  0  0  0  0  0  0  0  0
    8.3289   -1.2890    0.0000 C   0  0  0  0  0  0  0  0  0  0  0  0
    9.1949   -0.7890    0.0000 C   0  0  0  0  0  0  0  0  0  0  0  0
   10.0610   -1.2890    0.0000 C   0  0  0  0  0  0  0  0  0  0  0  0
    4.8648    0.7110    0.0000 C   0  0  0  0  0  0  0  0  0  0  0  0
   10.9270   -0.7890    0.0000 C   0  0  0  0  0  0  0  0  0  0  0  0
    3.9570    0.3059    0.0000 C   0  0  0  0  0  0  0  0  0  0  0  0
    3.2892    1.0502    0.0000 C   0  0  0  0  0  0  0  0  0  0  0  0
    3.6464   -0.6446    0.0000 C   0  0  0  0  0  0  0  0  0  0  0  0
   13.5251   -0.2890    0.0000 C   0  0  0  0  0  0  0  0  0  0  0  0
    2.3107    0.8440    0.0000 C   0  0  0  0  0  0  0  0  0  0  0  0
    2.6678   -0.8508    0.0000 C   0  0  0  0  0  0  0  0  0  0  0  0
    2.0000   -0.1065    0.0000 C   0  0  0  0  0  0  0  0  0  0  0  0
   14.3911   -0.7890    0.0000 C   0  0  0  0  0  0  0  0  0  0  0  0
   13.5251    0.7110    0.0000 C   0  0  0  0  0  0  0  0  0  0  0  0
   15.2571   -0.2890    0.0000 C   0  0  0  0  0  0  0  0  0  0  0  0
   15.2571    0.7110    0.0000 C   0  0  0  0  0  0  0  0  0  0  0  0
   14.3911    1.2110    0.0000 C   0  0  0  0  0  0  0  0  0  0  0  0
   16.1510   -0.8236    0.0000 C   0  0  0  0  0  0  0  0  0  0  0  0
   16.1510    1.2457    0.0000 C   0  0  0  0  0  0  0  0  0  0  0  0
   17.0571   -0.3098    0.0000 C   0  0  0  0  0  0  0  0  0  0  0  0
   17.0571    0.7319    0.0000 C   0  0  0  0  0  0  0  0  0  0  0  0
    8.0734    0.1034    0.0000 H   0  0  0  0  0  0  0  0  0  0  0  0
    7.6749    0.7936    0.0000 H   0  0  0  0  0  0  0  0  0  0  0  0
    6.1983   -1.7639    0.0000 H   0  0  0  0  0  0  0  0  0  0  0  0
    6.9954   -1.7639    0.0000 H   0  0  0  0  0  0  0  0  0  0  0  0
    6.9954    1.1860    0.0000 H   0  0  0  0  0  0  0  0  0  0  0  0
    6.1983    1.1860    0.0000 H   0  0  0  0  0  0  0  0  0  0  0  0
    5.1202   -0.6813    0.0000 H   0  0  0  0  0  0  0  0  0  0  0  0
    5.5188   -1.3716    0.0000 H   0  0  0  0  0  0  0  0  0  0  0  0
    7.9304   -1.7639    0.0000 H   0  0  0  0  0  0  0  0  0  0  0  0
    8.7274   -1.7639    0.0000 H   0  0  0  0  0  0  0  0  0  0  0  0
    9.5934   -0.3140    0.0000 H   0  0  0  0  0  0  0  0  0  0  0  0
    8.7964   -0.3140    0.0000 H   0  0  0  0  0  0  0  0  0  0  0  0
    9.6624   -1.7639    0.0000 H   0  0  0  0  0  0  0  0  0  0  0  0
   10.4595   -1.7639    0.0000 H   0  0  0  0  0  0  0  0  0  0  0  0
   11.3255   -0.3140    0.0000 H   0  0  0  0  0  0  0  0  0  0  0  0
   10.5284   -0.3140    0.0000 H   0  0  0  0  0  0  0  0  0  0  0  0
   11.7930   -1.9090    0.0000 H   0  0  0  0  0  0  0  0  0  0  0  0
    4.0604   -1.1061    0.0000 H   0  0  0  0  0  0  0  0  0  0  0  0
    1.8966    1.3055    0.0000 H   0  0  0  0  0  0  0  0  0  0  0  0
    2.4752   -1.4401    0.0000 H   0  0  0  0  0  0  0  0  0  0  0  0
    1.3933   -0.2344    0.0000 H   0  0  0  0  0  0  0  0  0  0  0  0
   14.3911   -1.4090    0.0000 H   0  0  0  0  0  0  0  0  0  0  0  0
   12.9881    1.0210    0.0000 H   0  0  0  0  0  0  0  0  0  0  0  0
   14.3911    1.8310    0.0000 H   0  0  0  0  0  0  0  0  0  0  0  0
   16.1439   -1.4436    0.0000 H   0  0  0  0  0  0  0  0  0  0  0  0
   16.1439    1.8657    0.0000 H   0  0  0  0  0  0  0  0  0  0  0  0
   17.5928   -0.6218    0.0000 H   0  0  0  0  0  0  0  0  0  0  0  0
  1 34  1  0  0  0  0
  2  4  2  0  0  0  0
  2  5  2  0  0  0  0
  2  8  1  0  0  0  0
  2 22  1  0  0  0  0
  3  9  1  0  0  0  0
  3 20  1  0  0  0  0
  6 10  1  0  0  0  0
  6 11  1  0  0  0  0
  6 14  1  0  0  0  0
  7 12  1  0  0  0  0
  7 13  1  0  0  0  0
  7 17  1  0  0  0  0
  8 18  1  0  0  0  0
  8 51  1  0  0  0  0
  9 17  2  0  0  0  0
 10 12  1  0  0  0  0
 10 35  1  0  0  0  0
 10 36  1  0  0  0  0
 11 13  1  0  0  0  0
 11 37  1  0  0  0  0
 11 38  1  0  0  0  0
 12 39  1  0  0  0  0
 12 40  1  0  0  0  0
 13 41  1  0  0  0  0
 13 42  1  0  0  0  0
 14 15  1  0  0  0  0
 14 43  1  0  0  0  0
 14 44  1  0  0  0  0
 15 16  1  0  0  0  0
 15 45  1  0  0  0  0
 15 46  1  0  0  0  0
 16 18  1  0  0  0  0
 16 47  1  0  0  0  0
 16 48  1  0  0  0  0
 17 19  1  0  0  0  0
 18 49  1  0  0  0  0
 18 50  1  0  0  0  0
 19 20  1  0  0  0  0
 19 21  2  0  0  0  0
 20 23  2  0  0  0  0
 21 24  1  0  0  0  0
 21 52  1  0  0  0  0
 22 26  2  0  0  0  0
 22 27  1  0  0  0  0
 23 25  1  0  0  0  0
 23 53  1  0  0  0  0
 24 25  2  0  0  0  0
 24 54  1  0  0  0  0
 25 55  1  0  0  0  0
 26 28  1  0  0  0  0
 26 56  1  0  0  0  0
 27 30  2  0  0  0  0
 27 57  1  0  0  0  0
 28 29  2  0  0  0  0
 28 31  1  0  0  0  0
 29 30  1  0  0  0  0
 29 32  1  0  0  0  0
 30 58  1  0  0  0  0
 31 33  2  0  0  0  0
 31 59  1  0  0  0  0
 32 34  2  0  0  0  0
 32 60  1  0  0  0  0
 33 34  1  0  0  0  0
 33 61  1  0  0  0  0
M  END
> <PUBCHEM_COMPOUND_CID>
56943599

> <PUBCHEM_COMPOUND_CANONICALIZED>
1

> <PUBCHEM_CACTVS_COMPLEXITY>
758

> <PUBCHEM_CACTVS_HBOND_ACCEPTOR>
7

> <PUBCHEM_CACTVS_HBOND_DONOR>
1

> <PUBCHEM_CACTVS_ROTATABLE_BOND>
8

> <PUBCHEM_CACTVS_SUBSKEYS>
AAADceB7sABEAAAAAAAAAAAAAAAAAWAAAAA8YMEAAAAAAFjB9AAAHgYUQAAADAbB2iQxt9NQAAKpAqJyYnDCABAlJQApmLkuTtqIZrrBn5OUMYhm0BvIyceYyKCOlAAAoAAYAAAoAAFAADAAAAAAAAAAAA==

> <PUBCHEM_IUPAC_OPENEYE_NAME>
N-[4-[4-(1,2-benzoxazol-3-yl)piperazin-1-yl]butyl]-6-chloro-naphthalene-2-sulfonamide

> <PUBCHEM_IUPAC_CAS_NAME>
N-[4-[4-(1,2-benzoxazol-3-yl)-1-piperazinyl]butyl]-6-chloro-2-naphthalenesulfonamide

> <PUBCHEM_IUPAC_NAME_MARKUP>
<I>N</I>-[4-[4-(1,2-benzoxazol-3-yl)piperazin-1-yl]butyl]-6-chloronaphthalene-2-sulfonamide

> <PUBCHEM_IUPAC_NAME>
N-[4-[4-(1,2-benzoxazol-3-yl)piperazin-1-yl]butyl]-6-chloronaphthalene-2-sulfonamide

> <PUBCHEM_IUPAC_SYSTEMATIC_NAME>
N-[4-[4-(1,2-benzoxazol-3-yl)piperazin-1-yl]butyl]-6-chloranyl-naphthalene-2-sulfonamide

> <PUBCHEM_IUPAC_TRADITIONAL_NAME>
6-chloro-N-[4-(4-indoxazen-3-ylpiperazino)butyl]naphthalene-2-sulfonamide

> <PUBCHEM_IUPAC_INCHI>
InChI=1S/C25H27ClN4O3S/c26-21-9-7-20-18-22(10-8-19(20)17-21)34(31,32)27-11-3-4-12-29-13-15-30(16-14-29)25-23-5-1-2-6-24(23)33-28-25/h1-2,5-10,17-18,27H,3-4,11-16H2

> <PUBCHEM_IUPAC_INCHIKEY>
OYNMVCMJTOXTRN-UHFFFAOYSA-N

> <PUBCHEM_XLOGP3_AA>
5.2

> <PUBCHEM_EXACT_MASS>
498.1492396

> <PUBCHEM_MOLECULAR_FORMULA>
C25H27ClN4O3S

> <PUBCHEM_MOLECULAR_WEIGHT>
499.0

> <PUBCHEM_OPENEYE_CAN_SMILES>
C1CN(CCN1CCCCNS(=O)(=O)C2=CC3=C(C=C2)C=C(C=C3)Cl)C4=NOC5=CC=CC=C54

> <PUBCHEM_OPENEYE_ISO_SMILES>
C1CN(CCN1CCCCNS(=O)(=O)C2=CC3=C(C=C2)C=C(C=C3)Cl)C4=NOC5=CC=CC=C54

> <PUBCHEM_CACTVS_TPSA>
87.1

> <PUBCHEM_MONOISOTOPIC_WEIGHT>
498.1492396

> <PUBCHEM_TOTAL_CHARGE>
0

> <PUBCHEM_HEAVY_ATOM_COUNT>
34

> <PUBCHEM_ATOM_DEF_STEREO_COUNT>
0

> <PUBCHEM_ATOM_UDEF_STEREO_COUNT>
0

> <PUBCHEM_BOND_DEF_STEREO_COUNT>
0

> <PUBCHEM_BOND_UDEF_STEREO_COUNT>
0

> <PUBCHEM_ISOTOPIC_ATOM_COUNT>
0

> <PUBCHEM_COMPONENT_COUNT>
1

> <PUBCHEM_CACTVS_TAUTO_COUNT>
-1

> <PUBCHEM_COORDINATE_TYPE>
1
5
255

> <PUBCHEM_BONDANNOTATIONS>
17  19  8
19  20  8
19  21  8
20  23  8
21  24  8
22  26  8
22  27  8
23  25  8
24  25  8
26  28  8
27  30  8
28  29  8
28  31  8
29  30  8
29  32  8
3  20  8
3  9  8
31  33  8
32  34  8
33  34  8
9  17  8

$$$$
