11792373
  -OEChem-09292322102D

 49 52  0     0  0  0  0  0  0999 V2000
   12.4202    0.6120    0.0000 O   0  0  0  0  0  0  0  0  0  0  0  0
    2.8660    2.0773    0.0000 O   0  0  0  0  0  0  0  0  0  0  0  0
   14.1904   -1.4468    0.0000 O   0  0  0  0  0  0  0  0  0  0  0  0
    8.0622   -0.9227    0.0000 N   0  0  0  0  0  0  0  0  0  0  0  0
    6.3301    0.0773    0.0000 N   0  0  0  0  0  0  0  0  0  0  0  0
   12.4202   -1.4574    0.0000 N   0  0  0  0  0  0  0  0  0  0  0  0
    8.0622    0.0773    0.0000 C   0  0  0  0  0  0  0  0  0  0  0  0
    7.1962   -1.4227    0.0000 C   0  0  0  0  0  0  0  0  0  0  0  0
    7.1962    0.5773    0.0000 C   0  0  0  0  0  0  0  0  0  0  0  0
    6.3301   -0.9227    0.0000 C   0  0  0  0  0  0  0  0  0  0  0  0
    8.9282   -1.4227    0.0000 C   0  0  0  0  0  0  0  0  0  0  0  0
    5.4641    0.5773    0.0000 C   0  0  0  0  0  0  0  0  0  0  0  0
    9.7942   -0.9227    0.0000 C   0  0  0  0  0  0  0  0  0  0  0  0
   10.6603   -1.4227    0.0000 C   0  0  0  0  0  0  0  0  0  0  0  0
    9.7942    0.0773    0.0000 C   0  0  0  0  0  0  0  0  0  0  0  0
    5.4641    1.5773    0.0000 C   0  0  0  0  0  0  0  0  0  0  0  0
    4.5981    0.0773    0.0000 C   0  0  0  0  0  0  0  0  0  0  0  0
   11.5263   -0.9227    0.0000 C   0  0  0  0  0  0  0  0  0  0  0  0
   11.5263    0.0773    0.0000 C   0  0  0  0  0  0  0  0  0  0  0  0
   10.6603    0.5773    0.0000 C   0  0  0  0  0  0  0  0  0  0  0  0
    4.5981    2.0773    0.0000 C   0  0  0  0  0  0  0  0  0  0  0  0
    3.7320    0.5773    0.0000 C   0  0  0  0  0  0  0  0  0  0  0  0
    3.7320    1.5773    0.0000 C   0  0  0  0  0  0  0  0  0  0  0  0
   13.3263    0.0981    0.0000 C   0  0  0  0  0  0  0  0  0  0  0  0
   13.3263   -0.9435    0.0000 C   0  0  0  0  0  0  0  0  0  0  0  0
    2.0000    1.5773    0.0000 C   0  0  0  0  0  0  0  0  0  0  0  0
    8.6728   -0.0304    0.0000 H   0  0  0  0  0  0  0  0  0  0  0  0
    8.2742    0.6599    0.0000 H   0  0  0  0  0  0  0  0  0  0  0  0
    6.7976   -1.8976    0.0000 H   0  0  0  0  0  0  0  0  0  0  0  0
    7.5947   -1.8976    0.0000 H   0  0  0  0  0  0  0  0  0  0  0  0
    7.5947    1.0523    0.0000 H   0  0  0  0  0  0  0  0  0  0  0  0
    6.7976    1.0523    0.0000 H   0  0  0  0  0  0  0  0  0  0  0  0
    5.7196   -0.8150    0.0000 H   0  0  0  0  0  0  0  0  0  0  0  0
    6.1181   -1.5053    0.0000 H   0  0  0  0  0  0  0  0  0  0  0  0
    8.5297   -1.8976    0.0000 H   0  0  0  0  0  0  0  0  0  0  0  0
    9.3267   -1.8976    0.0000 H   0  0  0  0  0  0  0  0  0  0  0  0
   10.6603   -2.0427    0.0000 H   0  0  0  0  0  0  0  0  0  0  0  0
    9.2573    0.3873    0.0000 H   0  0  0  0  0  0  0  0  0  0  0  0
    6.0010    1.8873    0.0000 H   0  0  0  0  0  0  0  0  0  0  0  0
    4.5981   -0.5427    0.0000 H   0  0  0  0  0  0  0  0  0  0  0  0
   10.6603    1.1973    0.0000 H   0  0  0  0  0  0  0  0  0  0  0  0
    4.5981    2.6973    0.0000 H   0  0  0  0  0  0  0  0  0  0  0  0
    3.1951    0.2673    0.0000 H   0  0  0  0  0  0  0  0  0  0  0  0
   12.4131   -2.0773    0.0000 H   0  0  0  0  0  0  0  0  0  0  0  0
   13.9371   -0.0080    0.0000 H   0  0  0  0  0  0  0  0  0  0  0  0
   13.5353    0.6818    0.0000 H   0  0  0  0  0  0  0  0  0  0  0  0
    1.6900    2.1143    0.0000 H   0  0  0  0  0  0  0  0  0  0  0  0
    1.4631    1.2673    0.0000 H   0  0  0  0  0  0  0  0  0  0  0  0
    2.3100    1.0404    0.0000 H   0  0  0  0  0  0  0  0  0  0  0  0
  1 19  1  0  0  0  0
  1 24  1  0  0  0  0
  2 23  1  0  0  0  0
  2 26  1  0  0  0  0
  3 25  2  0  0  0  0
  4  7  1  0  0  0  0
  4  8  1  0  0  0  0
  4 11  1  0  0  0  0
  5  9  1  0  0  0  0
  5 10  1  0  0  0  0
  5 12  1  0  0  0  0
  6 18  1  0  0  0  0
  6 25  1  0  0  0  0
  6 44  1  0  0  0  0
  7  9  1  0  0  0  0
  7 27  1  0  0  0  0
  7 28  1  0  0  0  0
  8 10  1  0  0  0  0
  8 29  1  0  0  0  0
  8 30  1  0  0  0  0
  9 31  1  0  0  0  0
  9 32  1  0  0  0  0
 10 33  1  0  0  0  0
 10 34  1  0  0  0  0
 11 13  1  0  0  0  0
 11 35  1  0  0  0  0
 11 36  1  0  0  0  0
 12 16  2  0  0  0  0
 12 17  1  0  0  0  0
 13 14  2  0  0  0  0
 13 15  1  0  0  0  0
 14 18  1  0  0  0  0
 14 37  1  0  0  0  0
 15 20  2  0  0  0  0
 15 38  1  0  0  0  0
 16 21  1  0  0  0  0
 16 39  1  0  0  0  0
 17 22  2  0  0  0  0
 17 40  1  0  0  0  0
 18 19  2  0  0  0  0
 19 20  1  0  0  0  0
 20 41  1  0  0  0  0
 21 23  2  0  0  0  0
 21 42  1  0  0  0  0
 22 23  1  0  0  0  0
 22 43  1  0  0  0  0
 24 25  1  0  0  0  0
 24 45  1  0  0  0  0
 24 46  1  0  0  0  0
 26 47  1  0  0  0  0
 26 48  1  0  0  0  0
 26 49  1  0  0  0  0
M  END
> <PUBCHEM_COMPOUND_CID>
11792373

> <PUBCHEM_COMPOUND_CANONICALIZED>
1

> <PUBCHEM_CACTVS_COMPLEXITY>
473

> <PUBCHEM_CACTVS_HBOND_ACCEPTOR>
5

> <PUBCHEM_CACTVS_HBOND_DONOR>
1

> <PUBCHEM_CACTVS_ROTATABLE_BOND>
4

> <PUBCHEM_CACTVS_SUBSKEYS>
AAADceB7MAAAAAAAAAAAAAAAAAAAAAAAAAA8eIEAAAAAAACxQAAAHgAQAAAADAzhmAYyxoPABACIAiVSUAKCCAAhIgAIiABPbIgOZiLEsZ+XOCjk1BHY6Aew0AIOIEAAQAAAEABAgACAAAAgAAAAAAAAAA==

> <PUBCHEM_IUPAC_OPENEYE_NAME>
6-[[4-(4-methoxyphenyl)piperazin-1-yl]methyl]-4H-1,4-benzoxazin-3-one

> <PUBCHEM_IUPAC_CAS_NAME>
6-[[4-(4-methoxyphenyl)-1-piperazinyl]methyl]-4H-1,4-benzoxazin-3-one

> <PUBCHEM_IUPAC_NAME_MARKUP>
6-[[4-(4-methoxyphenyl)piperazin-1-yl]methyl]-4<I>H</I>-1,4-benzoxazin-3-one

> <PUBCHEM_IUPAC_NAME>
6-[[4-(4-methoxyphenyl)piperazin-1-yl]methyl]-4H-1,4-benzoxazin-3-one

> <PUBCHEM_IUPAC_SYSTEMATIC_NAME>
6-[[4-(4-methoxyphenyl)piperazin-1-yl]methyl]-4H-1,4-benzoxazin-3-one

> <PUBCHEM_IUPAC_TRADITIONAL_NAME>
6-[[4-(4-methoxyphenyl)piperazino]methyl]-4H-1,4-benzoxazin-3-one

> <PUBCHEM_IUPAC_INCHI>
InChI=1S/C20H23N3O3/c1-25-17-5-3-16(4-6-17)23-10-8-22(9-11-23)13-15-2-7-19-18(12-15)21-20(24)14-26-19/h2-7,12H,8-11,13-14H2,1H3,(H,21,24)

> <PUBCHEM_IUPAC_INCHIKEY>
MOWGNBXIJRPPMR-UHFFFAOYSA-N

> <PUBCHEM_XLOGP3_AA>
2.3

> <PUBCHEM_EXACT_MASS>
353.17394160

> <PUBCHEM_MOLECULAR_FORMULA>
C20H23N3O3

> <PUBCHEM_MOLECULAR_WEIGHT>
353.4

> <PUBCHEM_OPENEYE_CAN_SMILES>
COC1=CC=C(C=C1)N2CCN(CC2)CC3=CC4=C(C=C3)OCC(=O)N4

> <PUBCHEM_OPENEYE_ISO_SMILES>
COC1=CC=C(C=C1)N2CCN(CC2)CC3=CC4=C(C=C3)OCC(=O)N4

> <PUBCHEM_CACTVS_TPSA>
54

> <PUBCHEM_MONOISOTOPIC_WEIGHT>
353.17394160

> <PUBCHEM_TOTAL_CHARGE>
0

> <PUBCHEM_HEAVY_ATOM_COUNT>
26

> <PUBCHEM_ATOM_DEF_STEREO_COUNT>
0

> <PUBCHEM_ATOM_UDEF_STEREO_COUNT>
0

> <PUBCHEM_BOND_DEF_STEREO_COUNT>
0

> <PUBCHEM_BOND_UDEF_STEREO_COUNT>
0

> <PUBCHEM_ISOTOPIC_ATOM_COUNT>
0

> <PUBCHEM_COMPONENT_COUNT>
1

> <PUBCHEM_CACTVS_TAUTO_COUNT>
-1

> <PUBCHEM_COORDINATE_TYPE>
1
5
255

> <PUBCHEM_BONDANNOTATIONS>
12  16  8
12  17  8
13  14  8
13  15  8
14  18  8
15  20  8
16  21  8
17  22  8
18  19  8
19  20  8
21  23  8
22  23  8

$$$$
