122178767
  -OEChem-09292322082D

 70 74  0     0  0  0  0  0  0999 V2000
    6.7619   -1.4680    0.0000 O   0  0  0  0  0  0  0  0  0  0  0  0
   15.2619   -0.6020    0.0000 O   0  0  0  0  0  0  0  0  0  0  0  0
   12.2619    1.1300    0.0000 N   0  0  0  0  0  0  0  0  0  0  0  0
    6.7619    0.2640    0.0000 N   0  0  0  0  0  0  0  0  0  0  0  0
   14.2619    1.1300    0.0000 N   0  0  0  0  0  0  0  0  0  0  0  0
    4.6783   -1.4067    0.0000 N   0  0  0  0  0  0  0  0  0  0  0  0
    9.7619    0.2640    0.0000 C   0  0  0  0  0  0  0  0  0  0  0  0
    9.2619   -0.6020    0.0000 C   0  0  0  0  0  0  0  0  0  0  0  0
    9.2619    1.1300    0.0000 C   0  0  0  0  0  0  0  0  0  0  0  0
    7.7619    0.2640    0.0000 C   0  0  0  0  0  0  0  0  0  0  0  0
    8.2619   -0.6020    0.0000 C   0  0  0  0  0  0  0  0  0  0  0  0
    8.2619    1.1300    0.0000 C   0  0  0  0  0  0  0  0  0  0  0  0
   10.7619    0.2640    0.0000 C   0  0  0  0  0  0  0  0  0  0  0  0
   11.2619    1.1300    0.0000 C   0  0  0  0  0  0  0  0  0  0  0  0
   12.7619    0.2640    0.0000 C   0  0  0  0  0  0  0  0  0  0  0  0
   12.7619    1.9961    0.0000 C   0  0  0  0  0  0  0  0  0  0  0  0
   13.7619    0.2640    0.0000 C   0  0  0  0  0  0  0  0  0  0  0  0
   13.7619    1.9961    0.0000 C   0  0  0  0  0  0  0  0  0  0  0  0
    6.2619   -0.6020    0.0000 C   0  0  0  0  0  0  0  0  0  0  0  0
   15.2619    1.1300    0.0000 C   0  0  0  0  0  0  0  0  0  0  0  0
    5.2619   -0.6020    0.0000 C   0  0  0  0  0  0  0  0  0  0  0  0
   15.7619    0.2640    0.0000 C   0  0  0  0  0  0  0  0  0  0  0  0
   15.7619    1.9961    0.0000 C   0  0  0  0  0  0  0  0  0  0  0  0
    4.6783    0.2027    0.0000 C   0  0  0  0  0  0  0  0  0  0  0  0
    3.7320   -1.1020    0.0000 C   0  0  0  0  0  0  0  0  0  0  0  0
    3.7320   -0.1020    0.0000 C   0  0  0  0  0  0  0  0  0  0  0  0
   16.7619    0.2640    0.0000 C   0  0  0  0  0  0  0  0  0  0  0  0
   16.7619    1.9961    0.0000 C   0  0  0  0  0  0  0  0  0  0  0  0
   17.2619    1.1300    0.0000 C   0  0  0  0  0  0  0  0  0  0  0  0
    2.8660   -1.6020    0.0000 C   0  0  0  0  0  0  0  0  0  0  0  0
    2.8660    0.3980    0.0000 C   0  0  0  0  0  0  0  0  0  0  0  0
   15.7619   -1.4680    0.0000 C   0  0  0  0  0  0  0  0  0  0  0  0
    2.0000   -1.1020    0.0000 C   0  0  0  0  0  0  0  0  0  0  0  0
    2.0000   -0.1020    0.0000 C   0  0  0  0  0  0  0  0  0  0  0  0
   10.0719    0.8010    0.0000 H   0  0  0  0  0  0  0  0  0  0  0  0
    9.1542   -1.2126    0.0000 H   0  0  0  0  0  0  0  0  0  0  0  0
    9.8445   -0.8141    0.0000 H   0  0  0  0  0  0  0  0  0  0  0  0
    9.8445    1.3421    0.0000 H   0  0  0  0  0  0  0  0  0  0  0  0
    9.1542    1.7406    0.0000 H   0  0  0  0  0  0  0  0  0  0  0  0
    7.4519    0.8010    0.0000 H   0  0  0  0  0  0  0  0  0  0  0  0
    7.6793   -0.8141    0.0000 H   0  0  0  0  0  0  0  0  0  0  0  0
    8.3695   -1.2126    0.0000 H   0  0  0  0  0  0  0  0  0  0  0  0
    8.3695    1.7406    0.0000 H   0  0  0  0  0  0  0  0  0  0  0  0
    7.6793    1.3421    0.0000 H   0  0  0  0  0  0  0  0  0  0  0  0
   10.6542   -0.3466    0.0000 H   0  0  0  0  0  0  0  0  0  0  0  0
   11.3445    0.0520    0.0000 H   0  0  0  0  0  0  0  0  0  0  0  0
   11.3695    1.7406    0.0000 H   0  0  0  0  0  0  0  0  0  0  0  0
   10.6793    1.3421    0.0000 H   0  0  0  0  0  0  0  0  0  0  0  0
    6.4519    0.8010    0.0000 H   0  0  0  0  0  0  0  0  0  0  0  0
   12.1793    0.0520    0.0000 H   0  0  0  0  0  0  0  0  0  0  0  0
   12.8695   -0.3466    0.0000 H   0  0  0  0  0  0  0  0  0  0  0  0
   12.8695    2.6066    0.0000 H   0  0  0  0  0  0  0  0  0  0  0  0
   12.1793    2.2081    0.0000 H   0  0  0  0  0  0  0  0  0  0  0  0
   13.6542   -0.3466    0.0000 H   0  0  0  0  0  0  0  0  0  0  0  0
   14.3445    0.0520    0.0000 H   0  0  0  0  0  0  0  0  0  0  0  0
   14.3445    2.2081    0.0000 H   0  0  0  0  0  0  0  0  0  0  0  0
   13.6542    2.6066    0.0000 H   0  0  0  0  0  0  0  0  0  0  0  0
   15.4519    2.5330    0.0000 H   0  0  0  0  0  0  0  0  0  0  0  0
    4.8709   -1.9961    0.0000 H   0  0  0  0  0  0  0  0  0  0  0  0
    4.8709    0.7920    0.0000 H   0  0  0  0  0  0  0  0  0  0  0  0
   17.0719   -0.2729    0.0000 H   0  0  0  0  0  0  0  0  0  0  0  0
   17.0719    2.5330    0.0000 H   0  0  0  0  0  0  0  0  0  0  0  0
   17.8819    1.1300    0.0000 H   0  0  0  0  0  0  0  0  0  0  0  0
    2.8660   -2.2220    0.0000 H   0  0  0  0  0  0  0  0  0  0  0  0
    2.8660    1.0180    0.0000 H   0  0  0  0  0  0  0  0  0  0  0  0
   15.2249   -1.7780    0.0000 H   0  0  0  0  0  0  0  0  0  0  0  0
   16.0719   -2.0050    0.0000 H   0  0  0  0  0  0  0  0  0  0  0  0
   16.2988   -1.1580    0.0000 H   0  0  0  0  0  0  0  0  0  0  0  0
    1.4631   -1.4120    0.0000 H   0  0  0  0  0  0  0  0  0  0  0  0
    1.4631    0.2080    0.0000 H   0  0  0  0  0  0  0  0  0  0  0  0
  1 19  2  0  0  0  0
  2 22  1  0  0  0  0
  2 32  1  0  0  0  0
  3 14  1  0  0  0  0
  3 15  1  0  0  0  0
  3 16  1  0  0  0  0
  4 10  1  0  0  0  0
  4 19  1  0  0  0  0
  4 49  1  0  0  0  0
  5 17  1  0  0  0  0
  5 18  1  0  0  0  0
  5 20  1  0  0  0  0
  6 21  1  0  0  0  0
  6 25  1  0  0  0  0
  6 59  1  0  0  0  0
  7  8  1  0  0  0  0
  7  9  1  0  0  0  0
  7 13  1  0  0  0  0
  7 35  1  0  0  0  0
  8 11  1  0  0  0  0
  8 36  1  0  0  0  0
  8 37  1  0  0  0  0
  9 12  1  0  0  0  0
  9 38  1  0  0  0  0
  9 39  1  0  0  0  0
 10 11  1  0  0  0  0
 10 12  1  0  0  0  0
 10 40  1  0  0  0  0
 11 41  1  0  0  0  0
 11 42  1  0  0  0  0
 12 43  1  0  0  0  0
 12 44  1  0  0  0  0
 13 14  1  0  0  0  0
 13 45  1  0  0  0  0
 13 46  1  0  0  0  0
 14 47  1  0  0  0  0
 14 48  1  0  0  0  0
 15 17  1  0  0  0  0
 15 50  1  0  0  0  0
 15 51  1  0  0  0  0
 16 18  1  0  0  0  0
 16 52  1  0  0  0  0
 16 53  1  0  0  0  0
 17 54  1  0  0  0  0
 17 55  1  0  0  0  0
 18 56  1  0  0  0  0
 18 57  1  0  0  0  0
 19 21  1  0  0  0  0
 20 22  1  0  0  0  0
 20 23  2  0  0  0  0
 21 24  2  0  0  0  0
 22 27  2  0  0  0  0
 23 28  1  0  0  0  0
 23 58  1  0  0  0  0
 24 26  1  0  0  0  0
 24 60  1  0  0  0  0
 25 26  1  0  0  0  0
 25 30  2  0  0  0  0
 26 31  2  0  0  0  0
 27 29  1  0  0  0  0
 27 61  1  0  0  0  0
 28 29  2  0  0  0  0
 28 62  1  0  0  0  0
 29 63  1  0  0  0  0
 30 33  1  0  0  0  0
 30 64  1  0  0  0  0
 31 34  1  0  0  0  0
 31 65  1  0  0  0  0
 32 66  1  0  0  0  0
 32 67  1  0  0  0  0
 32 68  1  0  0  0  0
 33 34  2  0  0  0  0
 33 69  1  0  0  0  0
 34 70  1  0  0  0  0
M  END
> <PUBCHEM_COMPOUND_CID>
122178767

> <PUBCHEM_COMPOUND_CANONICALIZED>
1

> <PUBCHEM_CACTVS_COMPLEXITY>
644

> <PUBCHEM_CACTVS_HBOND_ACCEPTOR>
4

> <PUBCHEM_CACTVS_HBOND_DONOR>
2

> <PUBCHEM_CACTVS_ROTATABLE_BOND>
7

> <PUBCHEM_CACTVS_SUBSKEYS>
AAADcfB7sAAAAAAAAAAAAAAAAAAAAWAAAAA8YMEAAAAAAFgB9AAAHgAQAAAADSzBngYyxvPJlACoAyVyVACCiCAnIiAImaG/bNgOZvLEtbuVMShk1hHY6YeYyYCeAAAAAAACEAAQAAAAAAQgAAAAAAAAAA==

> <PUBCHEM_IUPAC_OPENEYE_NAME>
N-[4-[2-[4-(2-methoxyphenyl)piperazin-1-yl]ethyl]cyclohexyl]-1H-indole-2-carboxamide

> <PUBCHEM_IUPAC_CAS_NAME>
N-[4-[2-[4-(2-methoxyphenyl)-1-piperazinyl]ethyl]cyclohexyl]-1H-indole-2-carboxamide

> <PUBCHEM_IUPAC_NAME_MARKUP>
<I>N</I>-[4-[2-[4-(2-methoxyphenyl)piperazin-1-yl]ethyl]cyclohexyl]-1<I>H</I>-indole-2-carboxamide

> <PUBCHEM_IUPAC_NAME>
N-[4-[2-[4-(2-methoxyphenyl)piperazin-1-yl]ethyl]cyclohexyl]-1H-indole-2-carboxamide

> <PUBCHEM_IUPAC_SYSTEMATIC_NAME>
N-[4-[2-[4-(2-methoxyphenyl)piperazin-1-yl]ethyl]cyclohexyl]-1H-indole-2-carboxamide

> <PUBCHEM_IUPAC_TRADITIONAL_NAME>
N-[4-[2-[4-(2-methoxyphenyl)piperazino]ethyl]cyclohexyl]-1H-indole-2-carboxamide

> <PUBCHEM_IUPAC_INCHI>
InChI=1S/C28H36N4O2/c1-34-27-9-5-4-8-26(27)32-18-16-31(17-19-32)15-14-21-10-12-23(13-11-21)29-28(33)25-20-22-6-2-3-7-24(22)30-25/h2-9,20-21,23,30H,10-19H2,1H3,(H,29,33)

> <PUBCHEM_IUPAC_INCHIKEY>
WINCORQQCBUVCO-UHFFFAOYSA-N

> <PUBCHEM_XLOGP3_AA>
5.1

> <PUBCHEM_EXACT_MASS>
460.28382640

> <PUBCHEM_MOLECULAR_FORMULA>
C28H36N4O2

> <PUBCHEM_MOLECULAR_WEIGHT>
460.6

> <PUBCHEM_OPENEYE_CAN_SMILES>
COC1=CC=CC=C1N2CCN(CC2)CCC3CCC(CC3)NC(=O)C4=CC5=CC=CC=C5N4

> <PUBCHEM_OPENEYE_ISO_SMILES>
COC1=CC=CC=C1N2CCN(CC2)CCC3CCC(CC3)NC(=O)C4=CC5=CC=CC=C5N4

> <PUBCHEM_CACTVS_TPSA>
60.6

> <PUBCHEM_MONOISOTOPIC_WEIGHT>
460.28382640

> <PUBCHEM_TOTAL_CHARGE>
0

> <PUBCHEM_HEAVY_ATOM_COUNT>
34

> <PUBCHEM_ATOM_DEF_STEREO_COUNT>
0

> <PUBCHEM_ATOM_UDEF_STEREO_COUNT>
0

> <PUBCHEM_BOND_DEF_STEREO_COUNT>
0

> <PUBCHEM_BOND_UDEF_STEREO_COUNT>
0

> <PUBCHEM_ISOTOPIC_ATOM_COUNT>
0

> <PUBCHEM_COMPONENT_COUNT>
1

> <PUBCHEM_CACTVS_TAUTO_COUNT>
-1

> <PUBCHEM_COORDINATE_TYPE>
1
5
255

> <PUBCHEM_BONDANNOTATIONS>
20  22  8
20  23  8
21  24  8
22  27  8
23  28  8
24  26  8
25  26  8
25  30  8
26  31  8
27  29  8
28  29  8
30  33  8
31  34  8
33  34  8
6  21  8
6  25  8

$$$$
