54585306
  -OEChem-09292322312D

 55 58  0     0  0  0  0  0  0999 V2000
   11.4348    3.0499    0.0000 Cl  0  0  0  0  0  0  0  0  0  0  0  0
   12.0561    4.9510    0.0000 Cl  0  0  0  0  0  0  0  0  0  0  0  0
    4.6783   -5.2938    0.0000 S   0  0  0  0  0  0  0  0  0  0  0  0
    4.3211   -1.9895    0.0000 O   0  0  0  0  0  0  0  0  0  0  0  0
    8.8564    0.7364    0.0000 N   0  0  0  0  0  0  0  0  0  0  0  0
    9.4778    2.6375    0.0000 N   0  0  0  0  0  0  0  0  0  0  0  0
    5.9674   -2.5276    0.0000 N   0  0  0  0  0  0  0  0  0  0  0  0
    8.1886    1.4807    0.0000 C   0  0  0  0  0  0  0  0  0  0  0  0
    9.8349    0.9427    0.0000 C   0  0  0  0  0  0  0  0  0  0  0  0
    8.4993    2.4313    0.0000 C   0  0  0  0  0  0  0  0  0  0  0  0
   10.1456    1.8932    0.0000 C   0  0  0  0  0  0  0  0  0  0  0  0
    8.5458   -0.2141    0.0000 C   0  0  0  0  0  0  0  0  0  0  0  0
    7.5673   -0.4203    0.0000 C   0  0  0  0  0  0  0  0  0  0  0  0
    7.2566   -1.3708    0.0000 C   0  0  0  0  0  0  0  0  0  0  0  0
    9.7884    3.5880    0.0000 C   0  0  0  0  0  0  0  0  0  0  0  0
    6.2781   -1.5770    0.0000 C   0  0  0  0  0  0  0  0  0  0  0  0
   10.7669    3.7942    0.0000 C   0  0  0  0  0  0  0  0  0  0  0  0
    9.1206    4.3323    0.0000 C   0  0  0  0  0  0  0  0  0  0  0  0
   11.0776    4.7447    0.0000 C   0  0  0  0  0  0  0  0  0  0  0  0
    9.4312    5.2828    0.0000 C   0  0  0  0  0  0  0  0  0  0  0  0
   10.4097    5.4890    0.0000 C   0  0  0  0  0  0  0  0  0  0  0  0
    4.9889   -2.7338    0.0000 C   0  0  0  0  0  0  0  0  0  0  0  0
    4.6783   -3.6843    0.0000 C   0  0  0  0  0  0  0  0  0  0  0  0
    3.7320   -3.9890    0.0000 C   0  0  0  0  0  0  0  0  0  0  0  0
    3.7320   -4.9890    0.0000 C   0  0  0  0  0  0  0  0  0  0  0  0
    5.2619   -4.4890    0.0000 C   0  0  0  0  0  0  0  0  0  0  0  0
    2.8660   -3.4890    0.0000 C   0  0  0  0  0  0  0  0  0  0  0  0
    2.8660   -5.4890    0.0000 C   0  0  0  0  0  0  0  0  0  0  0  0
    2.0000   -3.9890    0.0000 C   0  0  0  0  0  0  0  0  0  0  0  0
    2.0000   -4.9890    0.0000 C   0  0  0  0  0  0  0  0  0  0  0  0
    7.6417    1.7728    0.0000 H   0  0  0  0  0  0  0  0  0  0  0  0
    7.8060    0.9928    0.0000 H   0  0  0  0  0  0  0  0  0  0  0  0
    9.8555    0.3230    0.0000 H   0  0  0  0  0  0  0  0  0  0  0  0
   10.4488    0.8553    0.0000 H   0  0  0  0  0  0  0  0  0  0  0  0
    8.4787    3.0509    0.0000 H   0  0  0  0  0  0  0  0  0  0  0  0
    7.8854    2.5186    0.0000 H   0  0  0  0  0  0  0  0  0  0  0  0
   10.6925    1.6012    0.0000 H   0  0  0  0  0  0  0  0  0  0  0  0
   10.5282    2.3811    0.0000 H   0  0  0  0  0  0  0  0  0  0  0  0
    8.5663   -0.8337    0.0000 H   0  0  0  0  0  0  0  0  0  0  0  0
    9.1596   -0.3014    0.0000 H   0  0  0  0  0  0  0  0  0  0  0  0
    7.5467    0.1994    0.0000 H   0  0  0  0  0  0  0  0  0  0  0  0
    6.9534   -0.3330    0.0000 H   0  0  0  0  0  0  0  0  0  0  0  0
    7.2772   -1.9905    0.0000 H   0  0  0  0  0  0  0  0  0  0  0  0
    7.8704   -1.4582    0.0000 H   0  0  0  0  0  0  0  0  0  0  0  0
    6.2575   -0.9574    0.0000 H   0  0  0  0  0  0  0  0  0  0  0  0
    5.6643   -1.4897    0.0000 H   0  0  0  0  0  0  0  0  0  0  0  0
    8.5139    4.2044    0.0000 H   0  0  0  0  0  0  0  0  0  0  0  0
    6.3815   -2.9890    0.0000 H   0  0  0  0  0  0  0  0  0  0  0  0
    9.0172    5.7443    0.0000 H   0  0  0  0  0  0  0  0  0  0  0  0
   10.6024    6.0784    0.0000 H   0  0  0  0  0  0  0  0  0  0  0  0
    5.8819   -4.4890    0.0000 H   0  0  0  0  0  0  0  0  0  0  0  0
    2.8660   -2.8690    0.0000 H   0  0  0  0  0  0  0  0  0  0  0  0
    2.8660   -6.1090    0.0000 H   0  0  0  0  0  0  0  0  0  0  0  0
    1.4631   -3.6790    0.0000 H   0  0  0  0  0  0  0  0  0  0  0  0
    1.4631   -5.2990    0.0000 H   0  0  0  0  0  0  0  0  0  0  0  0
  1 17  1  0  0  0  0
  2 19  1  0  0  0  0
  3 25  1  0  0  0  0
  3 26  1  0  0  0  0
  4 22  2  0  0  0  0
  5  8  1  0  0  0  0
  5  9  1  0  0  0  0
  5 12  1  0  0  0  0
  6 10  1  0  0  0  0
  6 11  1  0  0  0  0
  6 15  1  0  0  0  0
  7 16  1  0  0  0  0
  7 22  1  0  0  0  0
  7 48  1  0  0  0  0
  8 10  1  0  0  0  0
  8 31  1  0  0  0  0
  8 32  1  0  0  0  0
  9 11  1  0  0  0  0
  9 33  1  0  0  0  0
  9 34  1  0  0  0  0
 10 35  1  0  0  0  0
 10 36  1  0  0  0  0
 11 37  1  0  0  0  0
 11 38  1  0  0  0  0
 12 13  1  0  0  0  0
 12 39  1  0  0  0  0
 12 40  1  0  0  0  0
 13 14  1  0  0  0  0
 13 41  1  0  0  0  0
 13 42  1  0  0  0  0
 14 16  1  0  0  0  0
 14 43  1  0  0  0  0
 14 44  1  0  0  0  0
 15 17  2  0  0  0  0
 15 18  1  0  0  0  0
 16 45  1  0  0  0  0
 16 46  1  0  0  0  0
 17 19  1  0  0  0  0
 18 20  2  0  0  0  0
 18 47  1  0  0  0  0
 19 21  2  0  0  0  0
 20 21  1  0  0  0  0
 20 49  1  0  0  0  0
 21 50  1  0  0  0  0
 22 23  1  0  0  0  0
 23 24  1  0  0  0  0
 23 26  2  0  0  0  0
 24 25  1  0  0  0  0
 24 27  2  0  0  0  0
 25 28  2  0  0  0  0
 26 51  1  0  0  0  0
 27 29  1  0  0  0  0
 27 52  1  0  0  0  0
 28 30  1  0  0  0  0
 28 53  1  0  0  0  0
 29 30  2  0  0  0  0
 29 54  1  0  0  0  0
 30 55  1  0  0  0  0
M  END
> <PUBCHEM_COMPOUND_CID>
54585306

> <PUBCHEM_COMPOUND_CANONICALIZED>
1

> <PUBCHEM_CACTVS_COMPLEXITY>
561

> <PUBCHEM_CACTVS_HBOND_ACCEPTOR>
4

> <PUBCHEM_CACTVS_HBOND_DONOR>
1

> <PUBCHEM_CACTVS_ROTATABLE_BOND>
7

> <PUBCHEM_CACTVS_SUBSKEYS>
AAADceB7IABGAAAAAAAAAAAAAAAAASAAAAA8YIAAAAAAAEgB9AAAHgYQAAAADArF2CSwwcPAAAiMAiVSUACDAIAlDxBIitkIZsgIYDLhl5HUIQhglgDoyYcYiMCOgAAAAAIEABQAAAAABAgAKAAAAAAAAA==

> <PUBCHEM_IUPAC_OPENEYE_NAME>
N-[4-[4-(2,3-dichlorophenyl)piperazin-1-yl]butyl]benzothiophene-3-carboxamide

> <PUBCHEM_IUPAC_CAS_NAME>
N-[4-[4-(2,3-dichlorophenyl)-1-piperazinyl]butyl]-1-benzothiophene-3-carboxamide

> <PUBCHEM_IUPAC_NAME_MARKUP>
<I>N</I>-[4-[4-(2,3-dichlorophenyl)piperazin-1-yl]butyl]-1-benzothiophene-3-carboxamide

> <PUBCHEM_IUPAC_NAME>
N-[4-[4-(2,3-dichlorophenyl)piperazin-1-yl]butyl]-1-benzothiophene-3-carboxamide

> <PUBCHEM_IUPAC_SYSTEMATIC_NAME>
N-[4-[4-[2,3-bis(chloranyl)phenyl]piperazin-1-yl]butyl]-1-benzothiophene-3-carboxamide

> <PUBCHEM_IUPAC_TRADITIONAL_NAME>
N-[4-[4-(2,3-dichlorophenyl)piperazino]butyl]benzothiophene-3-carboxamide

> <PUBCHEM_IUPAC_INCHI>
InChI=1S/C23H25Cl2N3OS/c24-19-7-5-8-20(22(19)25)28-14-12-27(13-15-28)11-4-3-10-26-23(29)18-16-30-21-9-2-1-6-17(18)21/h1-2,5-9,16H,3-4,10-15H2,(H,26,29)

> <PUBCHEM_IUPAC_INCHIKEY>
DCFGDYDTTWPOBM-UHFFFAOYSA-N

> <PUBCHEM_XLOGP3_AA>
5.8

> <PUBCHEM_EXACT_MASS>
461.1095390

> <PUBCHEM_MOLECULAR_FORMULA>
C23H25Cl2N3OS

> <PUBCHEM_MOLECULAR_WEIGHT>
462.4

> <PUBCHEM_OPENEYE_CAN_SMILES>
C1CN(CCN1CCCCNC(=O)C2=CSC3=CC=CC=C32)C4=C(C(=CC=C4)Cl)Cl

> <PUBCHEM_OPENEYE_ISO_SMILES>
C1CN(CCN1CCCCNC(=O)C2=CSC3=CC=CC=C32)C4=C(C(=CC=C4)Cl)Cl

> <PUBCHEM_CACTVS_TPSA>
63.8

> <PUBCHEM_MONOISOTOPIC_WEIGHT>
461.1095390

> <PUBCHEM_TOTAL_CHARGE>
0

> <PUBCHEM_HEAVY_ATOM_COUNT>
30

> <PUBCHEM_ATOM_DEF_STEREO_COUNT>
0

> <PUBCHEM_ATOM_UDEF_STEREO_COUNT>
0

> <PUBCHEM_BOND_DEF_STEREO_COUNT>
0

> <PUBCHEM_BOND_UDEF_STEREO_COUNT>
0

> <PUBCHEM_ISOTOPIC_ATOM_COUNT>
0

> <PUBCHEM_COMPONENT_COUNT>
1

> <PUBCHEM_CACTVS_TAUTO_COUNT>
-1

> <PUBCHEM_COORDINATE_TYPE>
1
5
255

> <PUBCHEM_BONDANNOTATIONS>
15  17  8
15  18  8
17  19  8
18  20  8
19  21  8
20  21  8
23  24  8
23  26  8
24  25  8
24  27  8
25  28  8
27  29  8
28  30  8
29  30  8
3  25  8
3  26  8

$$$$
