155537034
  -OEChem-09292322412D

 30 32  0     0  0  0  0  0  0999 V2000
    3.4030    1.0104    0.0000 O   0  0  0  0  0  0  0  0  0  0  0  0
    6.9473   -1.7944    0.0000 N   0  0  0  0  0  0  0  0  0  0  0  0
    6.6715    1.5757    0.0000 N   0  0  0  0  0  0  0  0  0  0  0  0
    8.2112    2.0730    0.0000 N   0  0  0  0  0  0  0  0  0  0  0  0
    2.5369   -0.4896    0.0000 N   0  0  0  0  0  0  0  0  0  0  0  0
    6.9473   -0.1849    0.0000 C   0  0  0  0  0  0  0  0  0  0  0  0
    6.0010   -0.4896    0.0000 C   0  0  0  0  0  0  0  0  0  0  0  0
    6.0010   -1.4896    0.0000 C   0  0  0  0  0  0  0  0  0  0  0  0
    7.2579    0.7656    0.0000 C   0  0  0  0  0  0  0  0  0  0  0  0
    7.5309   -0.9896    0.0000 C   0  0  0  0  0  0  0  0  0  0  0  0
    5.1350    0.0104    0.0000 C   0  0  0  0  0  0  0  0  0  0  0  0
    5.1350   -1.9896    0.0000 C   0  0  0  0  0  0  0  0  0  0  0  0
    4.2690   -0.4896    0.0000 C   0  0  0  0  0  0  0  0  0  0  0  0
    4.2690   -1.4896    0.0000 C   0  0  0  0  0  0  0  0  0  0  0  0
    8.2095    1.0730    0.0000 C   0  0  0  0  0  0  0  0  0  0  0  0
    7.2607    2.3837    0.0000 C   0  0  0  0  0  0  0  0  0  0  0  0
    5.6715    1.5774    0.0000 C   0  0  0  0  0  0  0  0  0  0  0  0
    3.4030    0.0104    0.0000 C   0  0  0  0  0  0  0  0  0  0  0  0
    8.1509   -0.9896    0.0000 H   0  0  0  0  0  0  0  0  0  0  0  0
    7.1399   -2.3837    0.0000 H   0  0  0  0  0  0  0  0  0  0  0  0
    5.1350    0.6304    0.0000 H   0  0  0  0  0  0  0  0  0  0  0  0
    5.1350   -2.6096    0.0000 H   0  0  0  0  0  0  0  0  0  0  0  0
    3.7320   -1.7996    0.0000 H   0  0  0  0  0  0  0  0  0  0  0  0
    8.7105    0.7077    0.0000 H   0  0  0  0  0  0  0  0  0  0  0  0
    7.0702    2.9737    0.0000 H   0  0  0  0  0  0  0  0  0  0  0  0
    5.6726    2.1974    0.0000 H   0  0  0  0  0  0  0  0  0  0  0  0
    5.0515    1.5785    0.0000 H   0  0  0  0  0  0  0  0  0  0  0  0
    5.6705    0.9574    0.0000 H   0  0  0  0  0  0  0  0  0  0  0  0
    2.0000   -0.1796    0.0000 H   0  0  0  0  0  0  0  0  0  0  0  0
    2.5369   -1.1096    0.0000 H   0  0  0  0  0  0  0  0  0  0  0  0
  1 18  2  0  0  0  0
  2  8  1  0  0  0  0
  2 10  1  0  0  0  0
  2 20  1  0  0  0  0
  3  9  1  0  0  0  0
  3 16  1  0  0  0  0
  3 17  1  0  0  0  0
  4 15  1  0  0  0  0
  4 16  2  0  0  0  0
  5 18  1  0  0  0  0
  5 29  1  0  0  0  0
  5 30  1  0  0  0  0
  6  7  1  0  0  0  0
  6  9  1  0  0  0  0
  6 10  2  0  0  0  0
  7  8  2  0  0  0  0
  7 11  1  0  0  0  0
  8 12  1  0  0  0  0
  9 15  2  0  0  0  0
 10 19  1  0  0  0  0
 11 13  2  0  0  0  0
 11 21  1  0  0  0  0
 12 14  2  0  0  0  0
 12 22  1  0  0  0  0
 13 14  1  0  0  0  0
 13 18  1  0  0  0  0
 14 23  1  0  0  0  0
 15 24  1  0  0  0  0
 16 25  1  0  0  0  0
 17 26  1  0  0  0  0
 17 27  1  0  0  0  0
 17 28  1  0  0  0  0
M  END
> <PUBCHEM_COMPOUND_CID>
155537034

> <PUBCHEM_COMPOUND_CANONICALIZED>
1

> <PUBCHEM_CACTVS_COMPLEXITY>
335

> <PUBCHEM_CACTVS_HBOND_ACCEPTOR>
2

> <PUBCHEM_CACTVS_HBOND_DONOR>
2

> <PUBCHEM_CACTVS_ROTATABLE_BOND>
2

> <PUBCHEM_CACTVS_SUBSKEYS>
AAADccBzoAAAAAAAAAAAAAAAAAAAAWLAAAAwAAAAAAAAAFgB/AAAHgAQAAAADAjBngQ/0PfNkACoAzV3dACCgC01EqAJ2aE4dNiIaPLA3ZGUIQhokALIyacYicCeiAACAAACAAAQAAQAAAQAAAAAAAAAAA==

> <PUBCHEM_IUPAC_OPENEYE_NAME>
3-(3-methylimidazol-4-yl)-1H-indole-5-carboxamide

> <PUBCHEM_IUPAC_CAS_NAME>
3-(3-methyl-4-imidazolyl)-1H-indole-5-carboxamide

> <PUBCHEM_IUPAC_NAME_MARKUP>
3-(3-methylimidazol-4-yl)-1<I>H</I>-indole-5-carboxamide

> <PUBCHEM_IUPAC_NAME>
3-(3-methylimidazol-4-yl)-1H-indole-5-carboxamide

> <PUBCHEM_IUPAC_SYSTEMATIC_NAME>
3-(3-methylimidazol-4-yl)-1H-indole-5-carboxamide

> <PUBCHEM_IUPAC_TRADITIONAL_NAME>
3-(3-methylimidazol-4-yl)-1H-indole-5-carboxamide

> <PUBCHEM_IUPAC_INCHI>
InChI=1S/C13H12N4O/c1-17-7-15-6-12(17)10-5-16-11-3-2-8(13(14)18)4-9(10)11/h2-7,16H,1H3,(H2,14,18)

> <PUBCHEM_IUPAC_INCHIKEY>
ISYRNSLKFLBBNZ-UHFFFAOYSA-N

> <PUBCHEM_XLOGP3_AA>
0.7

> <PUBCHEM_EXACT_MASS>
240.10111102

> <PUBCHEM_MOLECULAR_FORMULA>
C13H12N4O

> <PUBCHEM_MOLECULAR_WEIGHT>
240.26

> <PUBCHEM_OPENEYE_CAN_SMILES>
CN1C=NC=C1C2=CNC3=C2C=C(C=C3)C(=O)N

> <PUBCHEM_OPENEYE_ISO_SMILES>
CN1C=NC=C1C2=CNC3=C2C=C(C=C3)C(=O)N

> <PUBCHEM_CACTVS_TPSA>
76.7

> <PUBCHEM_MONOISOTOPIC_WEIGHT>
240.10111102

> <PUBCHEM_TOTAL_CHARGE>
0

> <PUBCHEM_HEAVY_ATOM_COUNT>
18

> <PUBCHEM_ATOM_DEF_STEREO_COUNT>
0

> <PUBCHEM_ATOM_UDEF_STEREO_COUNT>
0

> <PUBCHEM_BOND_DEF_STEREO_COUNT>
0

> <PUBCHEM_BOND_UDEF_STEREO_COUNT>
0

> <PUBCHEM_ISOTOPIC_ATOM_COUNT>
0

> <PUBCHEM_COMPONENT_COUNT>
1

> <PUBCHEM_CACTVS_TAUTO_COUNT>
-1

> <PUBCHEM_COORDINATE_TYPE>
1
5
255

> <PUBCHEM_BONDANNOTATIONS>
11  13  8
12  14  8
13  14  8
2  10  8
2  8  8
3  16  8
3  9  8
4  15  8
4  16  8
6  10  8
6  7  8
7  11  8
7  8  8
8  12  8
9  15  8

$$$$
