44404449
  -OEChem-09292322262D

 58 62  0     1  0  0  0  0  0999 V2000
    4.9556   -4.6675    0.0000 S   0  0  0  0  0  0  0  0  0  0  0  0
    8.7323    2.4007    0.0000 O   0  0  0  0  0  0  0  0  0  0  0  0
    4.4033   -0.1438    0.0000 N   0  0  0  0  0  0  0  0  0  0  0  0
    4.4264   -2.1437    0.0000 N   0  0  0  0  0  0  0  0  0  0  0  0
    7.0003    2.4007    0.0000 N   0  0  0  0  0  0  0  0  0  0  0  0
    5.2494   -3.7179    0.0000 N   0  0  0  0  0  0  0  0  0  0  0  0
    5.2750   -0.6337    0.0000 C   0  0  0  0  0  0  0  0  0  0  0  0
    3.5431   -0.6538    0.0000 C   0  0  0  0  0  0  0  0  0  0  0  0
    4.3917    0.8561    0.0000 C   0  0  0  0  0  0  0  0  0  0  0  0
    5.2866   -1.6337    0.0000 C   0  0  0  0  0  0  0  0  0  0  0  0
    3.5546   -1.6537    0.0000 C   0  0  0  0  0  0  0  0  0  0  0  0
    5.2519    1.3661    0.0000 C   0  0  0  0  0  0  0  0  0  0  0  0
    7.0003    4.4007    0.0000 C   0  0  3  0  0  0  0  0  0  0  0  0
    6.1343    3.9007    0.0000 C   0  0  0  0  0  0  0  0  0  0  0  0
    5.2403    2.3660    0.0000 C   0  0  0  0  0  0  0  0  0  0  0  0
    6.1343    2.9007    0.0000 C   0  0  0  0  0  0  0  0  0  0  0  0
    7.8663    3.9007    0.0000 C   0  0  0  0  0  0  0  0  0  0  0  0
    5.2403    4.4354    0.0000 C   0  0  0  0  0  0  0  0  0  0  0  0
    4.4380   -3.1436    0.0000 C   0  0  0  0  0  0  0  0  0  0  0  0
    4.3342    2.8799    0.0000 C   0  0  0  0  0  0  0  0  0  0  0  0
    7.8663    2.9007    0.0000 C   0  0  0  0  0  0  0  0  0  0  0  0
    7.0003    5.4007    0.0000 C   0  0  0  0  0  0  0  0  0  0  0  0
    4.3342    3.9215    0.0000 C   0  0  0  0  0  0  0  0  0  0  0  0
    3.6400   -3.7365    0.0000 C   0  0  0  0  0  0  0  0  0  0  0  0
    5.2519    5.4353    0.0000 C   0  0  0  0  0  0  0  0  0  0  0  0
    3.9616   -4.6833    0.0000 C   0  0  0  0  0  0  0  0  0  0  0  0
    2.6592   -3.5416    0.0000 C   0  0  0  0  0  0  0  0  0  0  0  0
    3.3025   -5.4353    0.0000 C   0  0  0  0  0  0  0  0  0  0  0  0
    2.0000   -4.2936    0.0000 C   0  0  0  0  0  0  0  0  0  0  0  0
    2.3216   -5.2404    0.0000 C   0  0  0  0  0  0  0  0  0  0  0  0
    5.8868   -0.7343    0.0000 H   0  0  0  0  0  0  0  0  0  0  0  0
    5.4803   -0.0487    0.0000 H   0  0  0  0  0  0  0  0  0  0  0  0
    3.3243   -0.0737    0.0000 H   0  0  0  0  0  0  0  0  0  0  0  0
    2.9338   -0.7685    0.0000 H   0  0  0  0  0  0  0  0  0  0  0  0
    4.1729    1.4363    0.0000 H   0  0  0  0  0  0  0  0  0  0  0  0
    3.7824    0.7414    0.0000 H   0  0  0  0  0  0  0  0  0  0  0  0
    5.5054   -2.2138    0.0000 H   0  0  0  0  0  0  0  0  0  0  0  0
    5.8959   -1.5190    0.0000 H   0  0  0  0  0  0  0  0  0  0  0  0
    2.9428   -1.5531    0.0000 H   0  0  0  0  0  0  0  0  0  0  0  0
    3.3493   -2.2387    0.0000 H   0  0  0  0  0  0  0  0  0  0  0  0
    5.4707    0.7860    0.0000 H   0  0  0  0  0  0  0  0  0  0  0  0
    5.8612    1.4808    0.0000 H   0  0  0  0  0  0  0  0  0  0  0  0
    7.5372    4.7107    0.0000 H   0  0  0  0  0  0  0  0  0  0  0  0
    8.4769    3.7930    0.0000 H   0  0  0  0  0  0  0  0  0  0  0  0
    8.0784    4.4833    0.0000 H   0  0  0  0  0  0  0  0  0  0  0  0
    7.0003    1.7807    0.0000 H   0  0  0  0  0  0  0  0  0  0  0  0
    3.7985    2.5678    0.0000 H   0  0  0  0  0  0  0  0  0  0  0  0
    7.6203    5.4007    0.0000 H   0  0  0  0  0  0  0  0  0  0  0  0
    7.0003    6.0207    0.0000 H   0  0  0  0  0  0  0  0  0  0  0  0
    6.3803    5.4007    0.0000 H   0  0  0  0  0  0  0  0  0  0  0  0
    3.7985    4.2336    0.0000 H   0  0  0  0  0  0  0  0  0  0  0  0
    5.8718    5.4281    0.0000 H   0  0  0  0  0  0  0  0  0  0  0  0
    5.2590    6.0553    0.0000 H   0  0  0  0  0  0  0  0  0  0  0  0
    4.6319    5.4425    0.0000 H   0  0  0  0  0  0  0  0  0  0  0  0
    2.4598   -2.9545    0.0000 H   0  0  0  0  0  0  0  0  0  0  0  0
    3.5019   -6.0224    0.0000 H   0  0  0  0  0  0  0  0  0  0  0  0
    1.3919   -4.1727    0.0000 H   0  0  0  0  0  0  0  0  0  0  0  0
    1.9129   -5.7066    0.0000 H   0  0  0  0  0  0  0  0  0  0  0  0
  1  6  1  0  0  0  0
  1 26  1  0  0  0  0
  2 21  2  0  0  0  0
  3  7  1  0  0  0  0
  3  8  1  0  0  0  0
  3  9  1  0  0  0  0
  4 10  1  0  0  0  0
  4 11  1  0  0  0  0
  4 19  1  0  0  0  0
  5 16  1  0  0  0  0
  5 21  1  0  0  0  0
  5 46  1  0  0  0  0
  6 19  2  0  0  0  0
  7 10  1  0  0  0  0
  7 31  1  0  0  0  0
  7 32  1  0  0  0  0
  8 11  1  0  0  0  0
  8 33  1  0  0  0  0
  8 34  1  0  0  0  0
  9 12  1  0  0  0  0
  9 35  1  0  0  0  0
  9 36  1  0  0  0  0
 10 37  1  0  0  0  0
 10 38  1  0  0  0  0
 11 39  1  0  0  0  0
 11 40  1  0  0  0  0
 12 15  1  0  0  0  0
 12 41  1  0  0  0  0
 12 42  1  0  0  0  0
 13 14  1  0  0  0  0
 13 17  1  0  0  0  0
 13 22  1  0  0  0  0
 13 43  1  0  0  0  0
 14 16  1  0  0  0  0
 14 18  2  0  0  0  0
 15 16  2  0  0  0  0
 15 20  1  0  0  0  0
 17 21  1  0  0  0  0
 17 44  1  0  0  0  0
 17 45  1  0  0  0  0
 18 23  1  0  0  0  0
 18 25  1  0  0  0  0
 19 24  1  0  0  0  0
 20 23  2  0  0  0  0
 20 47  1  0  0  0  0
 22 48  1  0  0  0  0
 22 49  1  0  0  0  0
 22 50  1  0  0  0  0
 23 51  1  0  0  0  0
 24 26  1  0  0  0  0
 24 27  2  0  0  0  0
 25 52  1  0  0  0  0
 25 53  1  0  0  0  0
 25 54  1  0  0  0  0
 26 28  2  0  0  0  0
 27 29  1  0  0  0  0
 27 55  1  0  0  0  0
 28 30  1  0  0  0  0
 28 56  1  0  0  0  0
 29 30  2  0  0  0  0
 29 57  1  0  0  0  0
 30 58  1  0  0  0  0
M  END
> <PUBCHEM_COMPOUND_CID>
44404449

> <PUBCHEM_COMPOUND_CANONICALIZED>
1

> <PUBCHEM_CACTVS_COMPLEXITY>
610

> <PUBCHEM_CACTVS_HBOND_ACCEPTOR>
5

> <PUBCHEM_CACTVS_HBOND_DONOR>
1

> <PUBCHEM_CACTVS_ROTATABLE_BOND>
4

> <PUBCHEM_CACTVS_SUBSKEYS>
AAADceB7oABAAAAAAAAAAAAAAAAAAWAAAAA8eIEAAAAAAFix9AAAHgQQQAAADQjB2gQz8dPAAACsAidycACDABAhAABJmDkoRJiIYLLAmZGUIAxglALIyAcYicCewAACQAAWAACAAASAACwAAAAAAAAAAA==

> <PUBCHEM_IUPAC_OPENEYE_NAME>
8-[2-[4-(1,2-benzothiazol-3-yl)piperazin-1-yl]ethyl]-4,5-dimethyl-3,4-dihydro-1H-quinolin-2-one

> <PUBCHEM_IUPAC_CAS_NAME>
8-[2-[4-(1,2-benzothiazol-3-yl)-1-piperazinyl]ethyl]-4,5-dimethyl-3,4-dihydro-1H-quinolin-2-one

> <PUBCHEM_IUPAC_NAME_MARKUP>
8-[2-[4-(1,2-benzothiazol-3-yl)piperazin-1-yl]ethyl]-4,5-dimethyl-3,4-dihydro-1<I>H</I>-quinolin-2-one

> <PUBCHEM_IUPAC_NAME>
8-[2-[4-(1,2-benzothiazol-3-yl)piperazin-1-yl]ethyl]-4,5-dimethyl-3,4-dihydro-1H-quinolin-2-one

> <PUBCHEM_IUPAC_SYSTEMATIC_NAME>
8-[2-[4-(1,2-benzothiazol-3-yl)piperazin-1-yl]ethyl]-4,5-dimethyl-3,4-dihydro-1H-quinolin-2-one

> <PUBCHEM_IUPAC_TRADITIONAL_NAME>
8-[2-[4-(1,2-benzothiazol-3-yl)piperazino]ethyl]-4,5-dimethyl-3,4-dihydrocarbostyril

> <PUBCHEM_IUPAC_INCHI>
InChI=1S/C24H28N4OS/c1-16-7-8-18(23-22(16)17(2)15-21(29)25-23)9-10-27-11-13-28(14-12-27)24-19-5-3-4-6-20(19)30-26-24/h3-8,17H,9-15H2,1-2H3,(H,25,29)

> <PUBCHEM_IUPAC_INCHIKEY>
JFLGKAWVPPPTKB-UHFFFAOYSA-N

> <PUBCHEM_XLOGP3_AA>
4.4

> <PUBCHEM_EXACT_MASS>
420.19838270

> <PUBCHEM_MOLECULAR_FORMULA>
C24H28N4OS

> <PUBCHEM_MOLECULAR_WEIGHT>
420.6

> <PUBCHEM_OPENEYE_CAN_SMILES>
CC1CC(=O)NC2=C(C=CC(=C12)C)CCN3CCN(CC3)C4=NSC5=CC=CC=C54

> <PUBCHEM_OPENEYE_ISO_SMILES>
CC1CC(=O)NC2=C(C=CC(=C12)C)CCN3CCN(CC3)C4=NSC5=CC=CC=C54

> <PUBCHEM_CACTVS_TPSA>
76.7

> <PUBCHEM_MONOISOTOPIC_WEIGHT>
420.19838270

> <PUBCHEM_TOTAL_CHARGE>
0

> <PUBCHEM_HEAVY_ATOM_COUNT>
30

> <PUBCHEM_ATOM_DEF_STEREO_COUNT>
0

> <PUBCHEM_ATOM_UDEF_STEREO_COUNT>
1

> <PUBCHEM_BOND_DEF_STEREO_COUNT>
0

> <PUBCHEM_BOND_UDEF_STEREO_COUNT>
0

> <PUBCHEM_ISOTOPIC_ATOM_COUNT>
0

> <PUBCHEM_COMPONENT_COUNT>
1

> <PUBCHEM_CACTVS_TAUTO_COUNT>
-1

> <PUBCHEM_COORDINATE_TYPE>
1
5
255

> <PUBCHEM_BONDANNOTATIONS>
1  26  8
1  6  8
13  22  3
14  16  8
14  18  8
15  16  8
15  20  8
18  23  8
19  24  8
20  23  8
24  26  8
24  27  8
26  28  8
27  29  8
28  30  8
29  30  8
6  19  8

$$$$
