146395245
  -OEChem-09292322062D

 58 61  0     1  0  0  0  0  0999 V2000
    2.8660    3.1651    0.0000 F   0  0  0  0  0  0  0  0  0  0  0  0
    6.7619    0.2990    0.0000 O   0  0  0  0  0  0  0  0  0  0  0  0
   10.7619   -3.1651    0.0000 O   0  0  0  0  0  0  0  0  0  0  0  0
    9.7619    0.2990    0.0000 N   0  0  0  0  0  0  0  0  0  0  0  0
    6.7619    2.0311    0.0000 N   0  0  0  0  0  0  0  0  0  0  0  0
   10.7619   -1.4330    0.0000 N   0  0  0  0  0  0  0  0  0  0  0  0
    4.6783    0.3603    0.0000 N   0  0  0  0  0  0  0  0  0  0  0  0
    9.2619    1.1651    0.0000 C   0  0  2  0  0  0  0  0  0  0  0  0
    8.2619    1.1651    0.0000 C   0  0  0  0  0  0  0  0  0  0  0  0
    7.7619    2.0311    0.0000 C   0  0  1  0  0  0  0  0  0  0  0  0
    9.7619    2.0311    0.0000 C   0  0  0  0  0  0  0  0  0  0  0  0
    8.2619    2.8971    0.0000 C   0  0  0  0  0  0  0  0  0  0  0  0
    9.2619    2.8971    0.0000 C   0  0  0  0  0  0  0  0  0  0  0  0
    9.2619   -0.5670    0.0000 C   0  0  0  0  0  0  0  0  0  0  0  0
   10.7619    0.2990    0.0000 C   0  0  0  0  0  0  0  0  0  0  0  0
    9.7619   -1.4330    0.0000 C   0  0  0  0  0  0  0  0  0  0  0  0
   11.2619   -0.5670    0.0000 C   0  0  0  0  0  0  0  0  0  0  0  0
    6.2619    1.1651    0.0000 C   0  0  0  0  0  0  0  0  0  0  0  0
   11.2619   -2.2990    0.0000 C   0  0  0  0  0  0  0  0  0  0  0  0
    5.2619    1.1651    0.0000 C   0  0  0  0  0  0  0  0  0  0  0  0
   12.2619   -2.2990    0.0000 C   0  0  0  0  0  0  0  0  0  0  0  0
    4.6783    1.9698    0.0000 C   0  0  0  0  0  0  0  0  0  0  0  0
    3.7320    0.6651    0.0000 C   0  0  0  0  0  0  0  0  0  0  0  0
    3.7320    1.6651    0.0000 C   0  0  0  0  0  0  0  0  0  0  0  0
    2.8660    0.1651    0.0000 C   0  0  0  0  0  0  0  0  0  0  0  0
    2.8660    2.1651    0.0000 C   0  0  0  0  0  0  0  0  0  0  0  0
    2.0000    0.6651    0.0000 C   0  0  0  0  0  0  0  0  0  0  0  0
    2.0000    1.6651    0.0000 C   0  0  0  0  0  0  0  0  0  0  0  0
    2.8660   -0.8349    0.0000 C   0  0  0  0  0  0  0  0  0  0  0  0
    8.9519    0.6281    0.0000 H   0  0  0  0  0  0  0  0  0  0  0  0
    7.6793    0.9530    0.0000 H   0  0  0  0  0  0  0  0  0  0  0  0
    8.3695    0.5545    0.0000 H   0  0  0  0  0  0  0  0  0  0  0  0
    7.4519    1.4942    0.0000 H   0  0  0  0  0  0  0  0  0  0  0  0
   10.2368    1.6326    0.0000 H   0  0  0  0  0  0  0  0  0  0  0  0
   10.2368    2.4296    0.0000 H   0  0  0  0  0  0  0  0  0  0  0  0
    8.3695    3.5077    0.0000 H   0  0  0  0  0  0  0  0  0  0  0  0
    7.6793    3.1092    0.0000 H   0  0  0  0  0  0  0  0  0  0  0  0
    9.8445    3.1092    0.0000 H   0  0  0  0  0  0  0  0  0  0  0  0
    9.1542    3.5077    0.0000 H   0  0  0  0  0  0  0  0  0  0  0  0
    8.7869   -0.1685    0.0000 H   0  0  0  0  0  0  0  0  0  0  0  0
    8.7869   -0.9655    0.0000 H   0  0  0  0  0  0  0  0  0  0  0  0
   11.3445    0.5111    0.0000 H   0  0  0  0  0  0  0  0  0  0  0  0
   10.6542    0.9096    0.0000 H   0  0  0  0  0  0  0  0  0  0  0  0
    9.1793   -1.6451    0.0000 H   0  0  0  0  0  0  0  0  0  0  0  0
    9.8695   -2.0436    0.0000 H   0  0  0  0  0  0  0  0  0  0  0  0
   11.7368   -0.9655    0.0000 H   0  0  0  0  0  0  0  0  0  0  0  0
   11.7368   -0.1685    0.0000 H   0  0  0  0  0  0  0  0  0  0  0  0
    6.4519    2.5680    0.0000 H   0  0  0  0  0  0  0  0  0  0  0  0
   12.2619   -2.9190    0.0000 H   0  0  0  0  0  0  0  0  0  0  0  0
   12.8819   -2.2990    0.0000 H   0  0  0  0  0  0  0  0  0  0  0  0
   12.2619   -1.6790    0.0000 H   0  0  0  0  0  0  0  0  0  0  0  0
    4.8709   -0.2290    0.0000 H   0  0  0  0  0  0  0  0  0  0  0  0
    4.8709    2.5591    0.0000 H   0  0  0  0  0  0  0  0  0  0  0  0
    1.4631    0.3551    0.0000 H   0  0  0  0  0  0  0  0  0  0  0  0
    1.4631    1.9751    0.0000 H   0  0  0  0  0  0  0  0  0  0  0  0
    2.2460   -0.8349    0.0000 H   0  0  0  0  0  0  0  0  0  0  0  0
    2.8660   -1.4549    0.0000 H   0  0  0  0  0  0  0  0  0  0  0  0
    3.4860   -0.8349    0.0000 H   0  0  0  0  0  0  0  0  0  0  0  0
  1 26  1  0  0  0  0
  2 18  2  0  0  0  0
  3 19  2  0  0  0  0
  8  4  1  6  0  0  0
  4 14  1  0  0  0  0
  4 15  1  0  0  0  0
 10  5  1  6  0  0  0
  5 18  1  0  0  0  0
  5 48  1  0  0  0  0
  6 16  1  0  0  0  0
  6 17  1  0  0  0  0
  6 19  1  0  0  0  0
  7 20  1  0  0  0  0
  7 23  1  0  0  0  0
  7 52  1  0  0  0  0
  8  9  1  0  0  0  0
  8 11  1  0  0  0  0
  8 30  1  0  0  0  0
  9 10  1  0  0  0  0
  9 31  1  0  0  0  0
  9 32  1  0  0  0  0
 10 12  1  0  0  0  0
 10 33  1  0  0  0  0
 11 13  1  0  0  0  0
 11 34  1  0  0  0  0
 11 35  1  0  0  0  0
 12 13  1  0  0  0  0
 12 36  1  0  0  0  0
 12 37  1  0  0  0  0
 13 38  1  0  0  0  0
 13 39  1  0  0  0  0
 14 16  1  0  0  0  0
 14 40  1  0  0  0  0
 14 41  1  0  0  0  0
 15 17  1  0  0  0  0
 15 42  1  0  0  0  0
 15 43  1  0  0  0  0
 16 44  1  0  0  0  0
 16 45  1  0  0  0  0
 17 46  1  0  0  0  0
 17 47  1  0  0  0  0
 18 20  1  0  0  0  0
 19 21  1  0  0  0  0
 20 22  2  0  0  0  0
 21 49  1  0  0  0  0
 21 50  1  0  0  0  0
 21 51  1  0  0  0  0
 22 24  1  0  0  0  0
 22 53  1  0  0  0  0
 23 24  1  0  0  0  0
 23 25  2  0  0  0  0
 24 26  2  0  0  0  0
 25 27  1  0  0  0  0
 25 29  1  0  0  0  0
 26 28  1  0  0  0  0
 27 28  2  0  0  0  0
 27 54  1  0  0  0  0
 28 55  1  0  0  0  0
 29 56  1  0  0  0  0
 29 57  1  0  0  0  0
 29 58  1  0  0  0  0
M  END
> <PUBCHEM_COMPOUND_CID>
146395245

> <PUBCHEM_COMPOUND_CANONICALIZED>
1

> <PUBCHEM_CACTVS_COMPLEXITY>
610

> <PUBCHEM_CACTVS_HBOND_ACCEPTOR>
4

> <PUBCHEM_CACTVS_HBOND_DONOR>
2

> <PUBCHEM_CACTVS_ROTATABLE_BOND>
3

> <PUBCHEM_CACTVS_SUBSKEYS>
AAADceB7sQAAAAAAAAAAAAAAAAAAAWAAAAA8YIAAAAAAAFgB8AAAHwAQAAAADCjBngwywPPJkACoAyVyVACCgCAnAiAImaG4ZNgIYPLA1bGUIQhglgDIyYcYicCeAAACAAACAAAAAAQACAQAAAAAAAAAAA==

> <PUBCHEM_IUPAC_OPENEYE_NAME>
N-[(1R,3S)-3-(4-acetylpiperazin-1-yl)cyclohexyl]-4-fluoro-7-methyl-1H-indole-2-carboxamide

> <PUBCHEM_IUPAC_CAS_NAME>
N-[(1R,3S)-3-(4-acetyl-1-piperazinyl)cyclohexyl]-4-fluoro-7-methyl-1H-indole-2-carboxamide

> <PUBCHEM_IUPAC_NAME_MARKUP>
<I>N</I>-[(1<I>R</I>,3<I>S</I>)-3-(4-acetylpiperazin-1-yl)cyclohexyl]-4-fluoro-7-methyl-1<I>H</I>-indole-2-carboxamide

> <PUBCHEM_IUPAC_NAME>
N-[(1R,3S)-3-(4-acetylpiperazin-1-yl)cyclohexyl]-4-fluoro-7-methyl-1H-indole-2-carboxamide

> <PUBCHEM_IUPAC_SYSTEMATIC_NAME>
N-[(1R,3S)-3-(4-ethanoylpiperazin-1-yl)cyclohexyl]-4-fluoranyl-7-methyl-1H-indole-2-carboxamide

> <PUBCHEM_IUPAC_TRADITIONAL_NAME>
N-[(1R,3S)-3-(4-acetylpiperazino)cyclohexyl]-4-fluoro-7-methyl-1H-indole-2-carboxamide

> <PUBCHEM_IUPAC_INCHI>
InChI=1S/C22H29FN4O2/c1-14-6-7-19(23)18-13-20(25-21(14)18)22(29)24-16-4-3-5-17(12-16)27-10-8-26(9-11-27)15(2)28/h6-7,13,16-17,25H,3-5,8-12H2,1-2H3,(H,24,29)/t16-,17+/m1/s1

> <PUBCHEM_IUPAC_INCHIKEY>
PGNLXEBQMQHFNK-SJORKVTESA-N

> <PUBCHEM_XLOGP3_AA>
2.8

> <PUBCHEM_EXACT_MASS>
400.22745434

> <PUBCHEM_MOLECULAR_FORMULA>
C22H29FN4O2

> <PUBCHEM_MOLECULAR_WEIGHT>
400.5

> <PUBCHEM_OPENEYE_CAN_SMILES>
CC1=C2C(=C(C=C1)F)C=C(N2)C(=O)NC3CCCC(C3)N4CCN(CC4)C(=O)C

> <PUBCHEM_OPENEYE_ISO_SMILES>
CC1=C2C(=C(C=C1)F)C=C(N2)C(=O)N[C@@H]3CCC[C@@H](C3)N4CCN(CC4)C(=O)C

> <PUBCHEM_CACTVS_TPSA>
68.4

> <PUBCHEM_MONOISOTOPIC_WEIGHT>
400.22745434

> <PUBCHEM_TOTAL_CHARGE>
0

> <PUBCHEM_HEAVY_ATOM_COUNT>
29

> <PUBCHEM_ATOM_DEF_STEREO_COUNT>
2

> <PUBCHEM_ATOM_UDEF_STEREO_COUNT>
0

> <PUBCHEM_BOND_DEF_STEREO_COUNT>
0

> <PUBCHEM_BOND_UDEF_STEREO_COUNT>
0

> <PUBCHEM_ISOTOPIC_ATOM_COUNT>
0

> <PUBCHEM_COMPONENT_COUNT>
1

> <PUBCHEM_CACTVS_TAUTO_COUNT>
-1

> <PUBCHEM_COORDINATE_TYPE>
1
5
255

> <PUBCHEM_BONDANNOTATIONS>
20  22  8
22  24  8
23  24  8
23  25  8
24  26  8
25  27  8
26  28  8
27  28  8
8  4  6
10  5  6
7  20  8
7  23  8

$$$$
