55191
  -OEChem-09292322272D

 55 57  0     0  0  0  0  0  0999 V2000
    2.8660    3.0670    0.0000 O   0  0  0  0  0  0  0  0  0  0  0  0
    6.3301    3.0670    0.0000 O   0  0  0  0  0  0  0  0  0  0  0  0
    2.8660   -0.9330    0.0000 N   0  0  0  0  0  0  0  0  0  0  0  0
    4.5981    3.0670    0.0000 N   0  0  0  0  0  0  0  0  0  0  0  0
    2.8660   -2.9330    0.0000 N   0  0  0  0  0  0  0  0  0  0  0  0
    2.0000   -4.4330    0.0000 N   0  0  0  0  0  0  0  0  0  0  0  0
    3.7320   -4.4330    0.0000 N   0  0  0  0  0  0  0  0  0  0  0  0
    4.5981    5.0670    0.0000 C   0  0  0  0  0  0  0  0  0  0  0  0
    3.7320    4.5670    0.0000 C   0  0  0  0  0  0  0  0  0  0  0  0
    5.4641    4.5670    0.0000 C   0  0  0  0  0  0  0  0  0  0  0  0
    2.8660    0.0670    0.0000 C   0  0  0  0  0  0  0  0  0  0  0  0
    4.5981    2.0670    0.0000 C   0  0  0  0  0  0  0  0  0  0  0  0
    3.7320    0.5670    0.0000 C   0  0  0  0  0  0  0  0  0  0  0  0
    3.7320   -1.4330    0.0000 C   0  0  0  0  0  0  0  0  0  0  0  0
    2.0000   -1.4330    0.0000 C   0  0  0  0  0  0  0  0  0  0  0  0
    3.7320    1.5670    0.0000 C   0  0  0  0  0  0  0  0  0  0  0  0
    3.7320    3.5670    0.0000 C   0  0  0  0  0  0  0  0  0  0  0  0
    5.4641    3.5670    0.0000 C   0  0  0  0  0  0  0  0  0  0  0  0
    5.0981    5.9330    0.0000 C   0  0  0  0  0  0  0  0  0  0  0  0
    4.0981    5.9330    0.0000 C   0  0  0  0  0  0  0  0  0  0  0  0
    3.7320   -2.4330    0.0000 C   0  0  0  0  0  0  0  0  0  0  0  0
    2.0000   -2.4330    0.0000 C   0  0  0  0  0  0  0  0  0  0  0  0
    2.8660   -3.9330    0.0000 C   0  0  0  0  0  0  0  0  0  0  0  0
    2.0000   -5.4330    0.0000 C   0  0  0  0  0  0  0  0  0  0  0  0
    3.7320   -5.4330    0.0000 C   0  0  0  0  0  0  0  0  0  0  0  0
    2.8660   -5.9330    0.0000 C   0  0  0  0  0  0  0  0  0  0  0  0
    3.5200    5.1496    0.0000 H   0  0  0  0  0  0  0  0  0  0  0  0
    3.1215    4.4593    0.0000 H   0  0  0  0  0  0  0  0  0  0  0  0
    6.0747    4.4593    0.0000 H   0  0  0  0  0  0  0  0  0  0  0  0
    5.6762    5.1496    0.0000 H   0  0  0  0  0  0  0  0  0  0  0  0
    2.6540    0.6496    0.0000 H   0  0  0  0  0  0  0  0  0  0  0  0
    2.2554   -0.0407    0.0000 H   0  0  0  0  0  0  0  0  0  0  0  0
    4.8101    1.4844    0.0000 H   0  0  0  0  0  0  0  0  0  0  0  0
    5.2087    2.1747    0.0000 H   0  0  0  0  0  0  0  0  0  0  0  0
    3.9441   -0.0156    0.0000 H   0  0  0  0  0  0  0  0  0  0  0  0
    4.3426    0.6746    0.0000 H   0  0  0  0  0  0  0  0  0  0  0  0
    4.3426   -1.5407    0.0000 H   0  0  0  0  0  0  0  0  0  0  0  0
    3.9441   -0.8504    0.0000 H   0  0  0  0  0  0  0  0  0  0  0  0
    1.7880   -0.8504    0.0000 H   0  0  0  0  0  0  0  0  0  0  0  0
    1.3894   -1.5407    0.0000 H   0  0  0  0  0  0  0  0  0  0  0  0
    3.5200    2.1496    0.0000 H   0  0  0  0  0  0  0  0  0  0  0  0
    3.1215    1.4593    0.0000 H   0  0  0  0  0  0  0  0  0  0  0  0
    5.6350    5.6230    0.0000 H   0  0  0  0  0  0  0  0  0  0  0  0
    5.4081    6.4700    0.0000 H   0  0  0  0  0  0  0  0  0  0  0  0
    4.5611    6.2430    0.0000 H   0  0  0  0  0  0  0  0  0  0  0  0
    4.6350    6.2430    0.0000 H   0  0  0  0  0  0  0  0  0  0  0  0
    3.7881    6.4700    0.0000 H   0  0  0  0  0  0  0  0  0  0  0  0
    3.5611    5.6230    0.0000 H   0  0  0  0  0  0  0  0  0  0  0  0
    3.9441   -3.0156    0.0000 H   0  0  0  0  0  0  0  0  0  0  0  0
    4.3426   -2.3253    0.0000 H   0  0  0  0  0  0  0  0  0  0  0  0
    1.3894   -2.3253    0.0000 H   0  0  0  0  0  0  0  0  0  0  0  0
    1.7880   -3.0156    0.0000 H   0  0  0  0  0  0  0  0  0  0  0  0
    1.4631   -5.7430    0.0000 H   0  0  0  0  0  0  0  0  0  0  0  0
    4.2690   -5.7430    0.0000 H   0  0  0  0  0  0  0  0  0  0  0  0
    2.8660   -6.5530    0.0000 H   0  0  0  0  0  0  0  0  0  0  0  0
  1 17  2  0  0  0  0
  2 18  2  0  0  0  0
  3 11  1  0  0  0  0
  3 14  1  0  0  0  0
  3 15  1  0  0  0  0
  4 12  1  0  0  0  0
  4 17  1  0  0  0  0
  4 18  1  0  0  0  0
  5 21  1  0  0  0  0
  5 22  1  0  0  0  0
  5 23  1  0  0  0  0
  6 23  2  0  0  0  0
  6 24  1  0  0  0  0
  7 23  1  0  0  0  0
  7 25  2  0  0  0  0
  8  9  1  0  0  0  0
  8 10  1  0  0  0  0
  8 19  1  0  0  0  0
  8 20  1  0  0  0  0
  9 17  1  0  0  0  0
  9 27  1  0  0  0  0
  9 28  1  0  0  0  0
 10 18  1  0  0  0  0
 10 29  1  0  0  0  0
 10 30  1  0  0  0  0
 11 13  1  0  0  0  0
 11 31  1  0  0  0  0
 11 32  1  0  0  0  0
 12 16  1  0  0  0  0
 12 33  1  0  0  0  0
 12 34  1  0  0  0  0
 13 16  1  0  0  0  0
 13 35  1  0  0  0  0
 13 36  1  0  0  0  0
 14 21  1  0  0  0  0
 14 37  1  0  0  0  0
 14 38  1  0  0  0  0
 15 22  1  0  0  0  0
 15 39  1  0  0  0  0
 15 40  1  0  0  0  0
 16 41  1  0  0  0  0
 16 42  1  0  0  0  0
 19 43  1  0  0  0  0
 19 44  1  0  0  0  0
 19 45  1  0  0  0  0
 20 46  1  0  0  0  0
 20 47  1  0  0  0  0
 20 48  1  0  0  0  0
 21 49  1  0  0  0  0
 21 50  1  0  0  0  0
 22 51  1  0  0  0  0
 22 52  1  0  0  0  0
 24 26  2  0  0  0  0
 24 53  1  0  0  0  0
 25 26  1  0  0  0  0
 25 54  1  0  0  0  0
 26 55  1  0  0  0  0
M  END
> <PUBCHEM_COMPOUND_CID>
55191

> <PUBCHEM_COMPOUND_CANONICALIZED>
1

> <PUBCHEM_CACTVS_COMPLEXITY>
476

> <PUBCHEM_CACTVS_HBOND_ACCEPTOR>
6

> <PUBCHEM_CACTVS_HBOND_DONOR>
0

> <PUBCHEM_CACTVS_ROTATABLE_BOND>
6

> <PUBCHEM_CACTVS_SUBSKEYS>
AAADceB7sAAAAAAAAAAAAAAAAAAAAAAAAAAsWLAAAAAAAAABgAAAHgAAAAAADgDBkgQ/kJcIEACoADF3dACAgCkRAqAJUCE4ZBCASJJAyUAUBAgIBiLAACAYAwALAAAAAAAAAAAAAAAAAAAAAAAAAAAAAA==

> <PUBCHEM_IUPAC_OPENEYE_NAME>
4,4-dimethyl-1-[4-(4-pyrimidin-2-ylpiperazin-1-yl)butyl]piperidine-2,6-dione

> <PUBCHEM_IUPAC_CAS_NAME>
4,4-dimethyl-1-[4-[4-(2-pyrimidinyl)-1-piperazinyl]butyl]piperidine-2,6-dione

> <PUBCHEM_IUPAC_NAME_MARKUP>
4,4-dimethyl-1-[4-(4-pyrimidin-2-ylpiperazin-1-yl)butyl]piperidine-2,6-dione

> <PUBCHEM_IUPAC_NAME>
4,4-dimethyl-1-[4-(4-pyrimidin-2-ylpiperazin-1-yl)butyl]piperidine-2,6-dione

> <PUBCHEM_IUPAC_SYSTEMATIC_NAME>
4,4-dimethyl-1-[4-(4-pyrimidin-2-ylpiperazin-1-yl)butyl]piperidine-2,6-dione

> <PUBCHEM_IUPAC_TRADITIONAL_NAME>
4,4-dimethyl-1-[4-[4-(2-pyrimidyl)piperazino]butyl]piperidine-2,6-quinone

> <PUBCHEM_IUPAC_INCHI>
InChI=1S/C19H29N5O2/c1-19(2)14-16(25)24(17(26)15-19)9-4-3-8-22-10-12-23(13-11-22)18-20-6-5-7-21-18/h5-7H,3-4,8-15H2,1-2H3

> <PUBCHEM_IUPAC_INCHIKEY>
QOIGKGMMAGJZNZ-UHFFFAOYSA-N

> <PUBCHEM_XLOGP3>
1.8

> <PUBCHEM_EXACT_MASS>
359.23212518

> <PUBCHEM_MOLECULAR_FORMULA>
C19H29N5O2

> <PUBCHEM_MOLECULAR_WEIGHT>
359.5

> <PUBCHEM_OPENEYE_CAN_SMILES>
CC1(CC(=O)N(C(=O)C1)CCCCN2CCN(CC2)C3=NC=CC=N3)C

> <PUBCHEM_OPENEYE_ISO_SMILES>
CC1(CC(=O)N(C(=O)C1)CCCCN2CCN(CC2)C3=NC=CC=N3)C

> <PUBCHEM_CACTVS_TPSA>
69.6

> <PUBCHEM_MONOISOTOPIC_WEIGHT>
359.23212518

> <PUBCHEM_TOTAL_CHARGE>
0

> <PUBCHEM_HEAVY_ATOM_COUNT>
26

> <PUBCHEM_ATOM_DEF_STEREO_COUNT>
0

> <PUBCHEM_ATOM_UDEF_STEREO_COUNT>
0

> <PUBCHEM_BOND_DEF_STEREO_COUNT>
0

> <PUBCHEM_BOND_UDEF_STEREO_COUNT>
0

> <PUBCHEM_ISOTOPIC_ATOM_COUNT>
0

> <PUBCHEM_COMPONENT_COUNT>
1

> <PUBCHEM_CACTVS_TAUTO_COUNT>
-1

> <PUBCHEM_COORDINATE_TYPE>
1
5
255

> <PUBCHEM_BONDANNOTATIONS>
24  26  8
25  26  8
6  23  8
6  24  8
7  23  8
7  25  8

$$$$
