10173403
  -OEChem-09292322242D

 52 55  0     1  0  0  0  0  0999 V2000
   14.7983   -2.2933    0.0000 Cl  0  0  0  0  0  0  0  0  0  0  0  0
    8.7227    1.1833    0.0000 S   0  0  0  0  0  0  0  0  0  0  0  0
    9.2194    2.0513    0.0000 O   0  0  0  0  0  0  0  0  0  0  0  0
    8.2260    0.3154    0.0000 O   0  0  0  0  0  0  0  0  0  0  0  0
    3.0000    0.6558    0.0000 N   0  0  3  0  0  0  0  0  0  0  0  0
    7.8547    1.6800    0.0000 N   0  0  0  0  0  0  0  0  0  0  0  0
    4.4088    1.7793    0.0000 C   0  0  0  0  0  0  0  0  0  0  0  0
    4.4088   -0.4677    0.0000 C   0  0  0  0  0  0  0  0  0  0  0  0
    3.4339    1.5568    0.0000 C   0  0  0  0  0  0  0  0  0  0  0  0
    3.4339   -0.2451    0.0000 C   0  0  0  0  0  0  0  0  0  0  0  0
    5.1906    1.1558    0.0000 C   0  0  0  0  0  0  0  0  0  0  0  0
    5.1906    0.1558    0.0000 C   0  0  0  0  0  0  0  0  0  0  0  0
    6.0846    1.6905    0.0000 C   0  0  0  0  0  0  0  0  0  0  0  0
    6.0846   -0.3788    0.0000 C   0  0  0  0  0  0  0  0  0  0  0  0
    6.9906    1.1766    0.0000 C   0  0  0  0  0  0  0  0  0  0  0  0
    2.0000    0.6558    0.0000 C   0  0  0  0  0  0  0  0  0  0  0  0
    6.9906    0.1350    0.0000 C   0  0  0  0  0  0  0  0  0  0  0  0
    9.5906    0.6867    0.0000 C   0  0  0  0  0  0  0  0  0  0  0  0
   10.4547    1.1900    0.0000 C   0  0  0  0  0  0  0  0  0  0  0  0
    9.5945   -0.3133    0.0000 C   0  0  0  0  0  0  0  0  0  0  0  0
   11.3265   -0.3067    0.0000 C   0  0  0  0  0  0  0  0  0  0  0  0
   11.3227    0.6933    0.0000 C   0  0  0  0  0  0  0  0  0  0  0  0
   10.4624   -0.8100    0.0000 C   0  0  0  0  0  0  0  0  0  0  0  0
   12.1945   -0.8033    0.0000 C   0  0  0  0  0  0  0  0  0  0  0  0
   12.1983   -1.8033    0.0000 C   0  0  0  0  0  0  0  0  0  0  0  0
   13.0586   -0.3000    0.0000 C   0  0  0  0  0  0  0  0  0  0  0  0
   13.0663   -2.3000    0.0000 C   0  0  0  0  0  0  0  0  0  0  0  0
   13.9265   -0.7966    0.0000 C   0  0  0  0  0  0  0  0  0  0  0  0
   13.9304   -1.7966    0.0000 C   0  0  0  0  0  0  0  0  0  0  0  0
    4.8936    2.1659    0.0000 H   0  0  0  0  0  0  0  0  0  0  0  0
    4.1398    2.3379    0.0000 H   0  0  0  0  0  0  0  0  0  0  0  0
    4.1398   -1.0263    0.0000 H   0  0  0  0  0  0  0  0  0  0  0  0
    4.8936   -0.8542    0.0000 H   0  0  0  0  0  0  0  0  0  0  0  0
    3.4339    2.1768    0.0000 H   0  0  0  0  0  0  0  0  0  0  0  0
    2.8294    1.6948    0.0000 H   0  0  0  0  0  0  0  0  0  0  0  0
    2.8294   -0.3831    0.0000 H   0  0  0  0  0  0  0  0  0  0  0  0
    3.4339   -0.8651    0.0000 H   0  0  0  0  0  0  0  0  0  0  0  0
    6.0774    2.3104    0.0000 H   0  0  0  0  0  0  0  0  0  0  0  0
    6.0774   -0.9988    0.0000 H   0  0  0  0  0  0  0  0  0  0  0  0
    2.0000    1.2758    0.0000 H   0  0  0  0  0  0  0  0  0  0  0  0
    1.3800    0.6558    0.0000 H   0  0  0  0  0  0  0  0  0  0  0  0
    2.0000    0.0358    0.0000 H   0  0  0  0  0  0  0  0  0  0  0  0
    7.5264   -0.1771    0.0000 H   0  0  0  0  0  0  0  0  0  0  0  0
    7.8524    2.3000    0.0000 H   0  0  0  0  0  0  0  0  0  0  0  0
   10.4523    1.8100    0.0000 H   0  0  0  0  0  0  0  0  0  0  0  0
    9.0588   -0.6254    0.0000 H   0  0  0  0  0  0  0  0  0  0  0  0
   11.8584    1.0054    0.0000 H   0  0  0  0  0  0  0  0  0  0  0  0
   10.4648   -1.4300    0.0000 H   0  0  0  0  0  0  0  0  0  0  0  0
   11.6626   -2.1154    0.0000 H   0  0  0  0  0  0  0  0  0  0  0  0
   13.0562    0.3200    0.0000 H   0  0  0  0  0  0  0  0  0  0  0  0
   13.0687   -2.9200    0.0000 H   0  0  0  0  0  0  0  0  0  0  0  0
   14.4622   -0.4846    0.0000 H   0  0  0  0  0  0  0  0  0  0  0  0
  1 29  1  0  0  0  0
  2  3  2  0  0  0  0
  2  4  2  0  0  0  0
  2  6  1  0  0  0  0
  2 18  1  0  0  0  0
  5  9  1  0  0  0  0
  5 10  1  0  0  0  0
  5 16  1  0  0  0  0
  6 15  1  0  0  0  0
  6 44  1  0  0  0  0
  7  9  1  0  0  0  0
  7 11  1  0  0  0  0
  7 30  1  0  0  0  0
  7 31  1  0  0  0  0
  8 10  1  0  0  0  0
  8 12  1  0  0  0  0
  8 32  1  0  0  0  0
  8 33  1  0  0  0  0
  9 34  1  0  0  0  0
  9 35  1  0  0  0  0
 10 36  1  0  0  0  0
 10 37  1  0  0  0  0
 11 12  2  0  0  0  0
 11 13  1  0  0  0  0
 12 14  1  0  0  0  0
 13 15  2  0  0  0  0
 13 38  1  0  0  0  0
 14 17  2  0  0  0  0
 14 39  1  0  0  0  0
 15 17  1  0  0  0  0
 16 40  1  0  0  0  0
 16 41  1  0  0  0  0
 16 42  1  0  0  0  0
 17 43  1  0  0  0  0
 18 19  2  0  0  0  0
 18 20  1  0  0  0  0
 19 22  1  0  0  0  0
 19 45  1  0  0  0  0
 20 23  2  0  0  0  0
 20 46  1  0  0  0  0
 21 22  2  0  0  0  0
 21 23  1  0  0  0  0
 21 24  1  0  0  0  0
 22 47  1  0  0  0  0
 23 48  1  0  0  0  0
 24 25  2  0  0  0  0
 24 26  1  0  0  0  0
 25 27  1  0  0  0  0
 25 49  1  0  0  0  0
 26 28  2  0  0  0  0
 26 50  1  0  0  0  0
 27 29  2  0  0  0  0
 27 51  1  0  0  0  0
 28 29  1  0  0  0  0
 28 52  1  0  0  0  0
M  END
> <PUBCHEM_COMPOUND_CID>
10173403

> <PUBCHEM_COMPOUND_CANONICALIZED>
1

> <PUBCHEM_CACTVS_COMPLEXITY>
621

> <PUBCHEM_CACTVS_HBOND_ACCEPTOR>
4

> <PUBCHEM_CACTVS_HBOND_DONOR>
1

> <PUBCHEM_CACTVS_ROTATABLE_BOND>
4

> <PUBCHEM_CACTVS_SUBSKEYS>
AAADceB7MABEAAAAAAAAAAAAAAAAAAAAAAAwYMAABYAAAAABUAAAHAYQQAAADArBWCQywYNAAAKAAiRCQHDCABAgBwAIiBgIZogIICKBk5GEIABgkACIyAcQgMAOnAAAQAAQAAA4AACAACAAAAAAAAAAAA==

> <PUBCHEM_IUPAC_OPENEYE_NAME>
4-(4-chlorophenyl)-N-(3-methyl-1,2,4,5-tetrahydro-3-benzazepin-7-yl)benzenesulfonamide

> <PUBCHEM_IUPAC_CAS_NAME>
4-(4-chlorophenyl)-N-(3-methyl-1,2,4,5-tetrahydro-3-benzazepin-7-yl)benzenesulfonamide

> <PUBCHEM_IUPAC_NAME_MARKUP>
4-(4-chlorophenyl)-<I>N</I>-(3-methyl-1,2,4,5-tetrahydro-3-benzazepin-7-yl)benzenesulfonamide

> <PUBCHEM_IUPAC_NAME>
4-(4-chlorophenyl)-N-(3-methyl-1,2,4,5-tetrahydro-3-benzazepin-7-yl)benzenesulfonamide

> <PUBCHEM_IUPAC_SYSTEMATIC_NAME>
4-(4-chlorophenyl)-N-(3-methyl-1,2,4,5-tetrahydro-3-benzazepin-7-yl)benzenesulfonamide

> <PUBCHEM_IUPAC_TRADITIONAL_NAME>
4-(4-chlorophenyl)-N-(3-methyl-1,2,4,5-tetrahydro-3-benzazepin-7-yl)benzenesulfonamide

> <PUBCHEM_IUPAC_INCHI>
InChI=1S/C23H23ClN2O2S/c1-26-14-12-19-4-9-22(16-20(19)13-15-26)25-29(27,28)23-10-5-18(6-11-23)17-2-7-21(24)8-3-17/h2-11,16,25H,12-15H2,1H3

> <PUBCHEM_IUPAC_INCHIKEY>
FLVVAVLMHCUYGY-UHFFFAOYSA-N

> <PUBCHEM_XLOGP3_AA>
5

> <PUBCHEM_EXACT_MASS>
426.1168768

> <PUBCHEM_MOLECULAR_FORMULA>
C23H23ClN2O2S

> <PUBCHEM_MOLECULAR_WEIGHT>
427.0

> <PUBCHEM_OPENEYE_CAN_SMILES>
CN1CCC2=C(CC1)C=C(C=C2)NS(=O)(=O)C3=CC=C(C=C3)C4=CC=C(C=C4)Cl

> <PUBCHEM_OPENEYE_ISO_SMILES>
CN1CCC2=C(CC1)C=C(C=C2)NS(=O)(=O)C3=CC=C(C=C3)C4=CC=C(C=C4)Cl

> <PUBCHEM_CACTVS_TPSA>
57.8

> <PUBCHEM_MONOISOTOPIC_WEIGHT>
426.1168768

> <PUBCHEM_TOTAL_CHARGE>
0

> <PUBCHEM_HEAVY_ATOM_COUNT>
29

> <PUBCHEM_ATOM_DEF_STEREO_COUNT>
0

> <PUBCHEM_ATOM_UDEF_STEREO_COUNT>
0

> <PUBCHEM_BOND_DEF_STEREO_COUNT>
0

> <PUBCHEM_BOND_UDEF_STEREO_COUNT>
0

> <PUBCHEM_ISOTOPIC_ATOM_COUNT>
0

> <PUBCHEM_COMPONENT_COUNT>
1

> <PUBCHEM_CACTVS_TAUTO_COUNT>
-1

> <PUBCHEM_COORDINATE_TYPE>
1
5
255

> <PUBCHEM_BONDANNOTATIONS>
11  12  8
11  13  8
12  14  8
13  15  8
14  17  8
15  17  8
18  19  8
18  20  8
19  22  8
20  23  8
21  22  8
21  23  8
24  25  8
24  26  8
25  27  8
26  28  8
27  29  8
28  29  8

$$$$
