155536542
  -OEChem-09292322082D

 59 63  0     1  0  0  0  0  0999 V2000
   16.7429   -1.3432    0.0000 S   0  0  0  0  0  0  0  0  0  0  0  0
   13.3224    0.7024    0.0000 O   0  0  0  0  0  0  0  0  0  0  0  0
    7.2602    1.2024    0.0000 N   0  0  3  0  0  0  0  0  0  0  0  0
   12.4564   -0.7976    0.0000 N   0  0  0  0  0  0  0  0  0  0  0  0
   14.2930   -1.7921    0.0000 N   0  0  0  0  0  0  0  0  0  0  0  0
    2.0000    0.1749    0.0000 N   0  0  0  0  0  0  0  0  0  0  0  0
    9.8583    0.7024    0.0000 C   0  0  0  0  0  0  0  0  0  0  0  0
    9.8583   -0.2976    0.0000 C   0  0  0  0  0  0  0  0  0  0  0  0
   10.7243    1.2024    0.0000 C   0  0  0  0  0  0  0  0  0  0  0  0
   11.5904   -0.2976    0.0000 C   0  0  0  0  0  0  0  0  0  0  0  0
   10.7243   -0.7976    0.0000 C   0  0  0  0  0  0  0  0  0  0  0  0
   11.5904    0.7024    0.0000 C   0  0  0  0  0  0  0  0  0  0  0  0
    8.9923    1.2024    0.0000 C   0  0  0  0  0  0  0  0  0  0  0  0
    8.1263    0.7024    0.0000 C   0  0  0  0  0  0  0  0  0  0  0  0
    7.2602    2.2024    0.0000 C   0  0  0  0  0  0  0  0  0  0  0  0
    6.3942    0.7024    0.0000 C   0  0  0  0  0  0  0  0  0  0  0  0
    6.3942    2.7024    0.0000 C   0  0  0  0  0  0  0  0  0  0  0  0
    5.5282    1.2024    0.0000 C   0  0  0  0  0  0  0  0  0  0  0  0
    5.5282    2.2024    0.0000 C   0  0  0  0  0  0  0  0  0  0  0  0
   13.3224   -0.2976    0.0000 C   0  0  0  0  0  0  0  0  0  0  0  0
    4.6342    0.6677    0.0000 C   0  0  0  0  0  0  0  0  0  0  0  0
    4.6342    2.7371    0.0000 C   0  0  0  0  0  0  0  0  0  0  0  0
   14.1884   -0.7976    0.0000 C   0  0  0  0  0  0  0  0  0  0  0  0
    3.7282    1.1816    0.0000 C   0  0  0  0  0  0  0  0  0  0  0  0
    3.7282    2.2232    0.0000 C   0  0  0  0  0  0  0  0  0  0  0  0
   15.1020   -0.3909    0.0000 C   0  0  0  0  0  0  0  0  0  0  0  0
   15.2711   -2.0000    0.0000 C   0  0  0  0  0  0  0  0  0  0  0  0
   15.7711   -1.1340    0.0000 C   0  0  0  0  0  0  0  0  0  0  0  0
    2.8641    0.6782    0.0000 C   0  0  0  0  0  0  0  0  0  0  0  0
   15.9382   -2.7371    0.0000 C   0  0  0  0  0  0  0  0  0  0  0  0
   16.8460   -2.3319    0.0000 C   0  0  0  0  0  0  0  0  0  0  0  0
    9.3214    0.3924    0.0000 H   0  0  0  0  0  0  0  0  0  0  0  0
    9.2477   -0.1899    0.0000 H   0  0  0  0  0  0  0  0  0  0  0  0
    9.6463   -0.8802    0.0000 H   0  0  0  0  0  0  0  0  0  0  0  0
   11.1229    1.6773    0.0000 H   0  0  0  0  0  0  0  0  0  0  0  0
   10.3258    1.6773    0.0000 H   0  0  0  0  0  0  0  0  0  0  0  0
   12.1273    0.0124    0.0000 H   0  0  0  0  0  0  0  0  0  0  0  0
   10.3258   -1.2726    0.0000 H   0  0  0  0  0  0  0  0  0  0  0  0
   11.1229   -1.2726    0.0000 H   0  0  0  0  0  0  0  0  0  0  0  0
   12.2010    0.5947    0.0000 H   0  0  0  0  0  0  0  0  0  0  0  0
   11.8024    1.2850    0.0000 H   0  0  0  0  0  0  0  0  0  0  0  0
    9.3908    1.6773    0.0000 H   0  0  0  0  0  0  0  0  0  0  0  0
    8.5938    1.6773    0.0000 H   0  0  0  0  0  0  0  0  0  0  0  0
    7.7277    0.2274    0.0000 H   0  0  0  0  0  0  0  0  0  0  0  0
    8.5248    0.2274    0.0000 H   0  0  0  0  0  0  0  0  0  0  0  0
   12.4564   -1.4176    0.0000 H   0  0  0  0  0  0  0  0  0  0  0  0
    7.8708    2.0947    0.0000 H   0  0  0  0  0  0  0  0  0  0  0  0
    7.4723    2.7850    0.0000 H   0  0  0  0  0  0  0  0  0  0  0  0
    5.9957    0.2274    0.0000 H   0  0  0  0  0  0  0  0  0  0  0  0
    6.7928    0.2274    0.0000 H   0  0  0  0  0  0  0  0  0  0  0  0
    6.7928    3.1773    0.0000 H   0  0  0  0  0  0  0  0  0  0  0  0
    5.9957    3.1773    0.0000 H   0  0  0  0  0  0  0  0  0  0  0  0
    4.6414    0.0478    0.0000 H   0  0  0  0  0  0  0  0  0  0  0  0
    4.6414    3.3570    0.0000 H   0  0  0  0  0  0  0  0  0  0  0  0
    3.1924    2.5353    0.0000 H   0  0  0  0  0  0  0  0  0  0  0  0
   13.8322   -2.2070    0.0000 H   0  0  0  0  0  0  0  0  0  0  0  0
   15.2309    0.2156    0.0000 H   0  0  0  0  0  0  0  0  0  0  0  0
   15.8104   -3.3437    0.0000 H   0  0  0  0  0  0  0  0  0  0  0  0
   17.3829   -2.6419    0.0000 H   0  0  0  0  0  0  0  0  0  0  0  0
  1 28  1  0  0  0  0
  1 31  1  0  0  0  0
  2 20  2  0  0  0  0
  3 14  1  0  0  0  0
  3 15  1  0  0  0  0
  3 16  1  0  0  0  0
  4 10  1  0  0  0  0
  4 20  1  0  0  0  0
  4 46  1  0  0  0  0
  5 23  1  0  0  0  0
  5 27  1  0  0  0  0
  5 56  1  0  0  0  0
  6 29  3  0  0  0  0
  7  8  1  0  0  0  0
  7  9  1  0  0  0  0
  7 13  1  0  0  0  0
  7 32  1  0  0  0  0
  8 11  1  0  0  0  0
  8 33  1  0  0  0  0
  8 34  1  0  0  0  0
  9 12  1  0  0  0  0
  9 35  1  0  0  0  0
  9 36  1  0  0  0  0
 10 11  1  0  0  0  0
 10 12  1  0  0  0  0
 10 37  1  0  0  0  0
 11 38  1  0  0  0  0
 11 39  1  0  0  0  0
 12 40  1  0  0  0  0
 12 41  1  0  0  0  0
 13 14  1  0  0  0  0
 13 42  1  0  0  0  0
 13 43  1  0  0  0  0
 14 44  1  0  0  0  0
 14 45  1  0  0  0  0
 15 17  1  0  0  0  0
 15 47  1  0  0  0  0
 15 48  1  0  0  0  0
 16 18  1  0  0  0  0
 16 49  1  0  0  0  0
 16 50  1  0  0  0  0
 17 19  1  0  0  0  0
 17 51  1  0  0  0  0
 17 52  1  0  0  0  0
 18 19  2  0  0  0  0
 18 21  1  0  0  0  0
 19 22  1  0  0  0  0
 20 23  1  0  0  0  0
 21 24  2  0  0  0  0
 21 53  1  0  0  0  0
 22 25  2  0  0  0  0
 22 54  1  0  0  0  0
 23 26  2  0  0  0  0
 24 25  1  0  0  0  0
 24 29  1  0  0  0  0
 25 55  1  0  0  0  0
 26 28  1  0  0  0  0
 26 57  1  0  0  0  0
 27 28  2  0  0  0  0
 27 30  1  0  0  0  0
 30 31  2  0  0  0  0
 30 58  1  0  0  0  0
 31 59  1  0  0  0  0
M  END
> <PUBCHEM_COMPOUND_CID>
155536542

> <PUBCHEM_COMPOUND_CANONICALIZED>
1

> <PUBCHEM_CACTVS_COMPLEXITY>
684

> <PUBCHEM_CACTVS_HBOND_ACCEPTOR>
4

> <PUBCHEM_CACTVS_HBOND_DONOR>
2

> <PUBCHEM_CACTVS_ROTATABLE_BOND>
5

> <PUBCHEM_CACTVS_SUBSKEYS>
AAADceB7oABAAAAAAAAAAAAAAAAAAWJAAAA8YIAAAAAWAACx/AAAHgQQAAAADSjF3gSwwbPJkAi8ByVyVACjoKAnCjBImb24ZNgI4PLglbGUIQxglgDoyY8YicCewAACAAAQAACQAAQAACAAAAAAAAAAAA==

> <PUBCHEM_IUPAC_OPENEYE_NAME>
N-[4-[2-(7-cyano-3,4-dihydro-1H-isoquinolin-2-yl)ethyl]cyclohexyl]-4H-thieno[3,2-b]pyrrole-5-carboxamide

> <PUBCHEM_IUPAC_CAS_NAME>
N-[4-[2-(7-cyano-3,4-dihydro-1H-isoquinolin-2-yl)ethyl]cyclohexyl]-4H-thieno[3,2-b]pyrrole-5-carboxamide

> <PUBCHEM_IUPAC_NAME_MARKUP>
<I>N</I>-[4-[2-(7-cyano-3,4-dihydro-1<I>H</I>-isoquinolin-2-yl)ethyl]cyclohexyl]-4<I>H</I>-thieno[3,2-b]pyrrole-5-carboxamide

> <PUBCHEM_IUPAC_NAME>
N-[4-[2-(7-cyano-3,4-dihydro-1H-isoquinolin-2-yl)ethyl]cyclohexyl]-4H-thieno[3,2-b]pyrrole-5-carboxamide

> <PUBCHEM_IUPAC_SYSTEMATIC_NAME>
N-[4-[2-(7-cyano-3,4-dihydro-1H-isoquinolin-2-yl)ethyl]cyclohexyl]-4H-thieno[3,2-b]pyrrole-5-carboxamide

> <PUBCHEM_IUPAC_TRADITIONAL_NAME>
N-[4-[2-(7-cyano-3,4-dihydro-1H-isoquinolin-2-yl)ethyl]cyclohexyl]-4H-thieno[3,2-b]pyrrole-5-carboxamide

> <PUBCHEM_IUPAC_INCHI>
InChI=1S/C25H28N4OS/c26-15-18-1-4-19-8-11-29(16-20(19)13-18)10-7-17-2-5-21(6-3-17)27-25(30)23-14-24-22(28-23)9-12-31-24/h1,4,9,12-14,17,21,28H,2-3,5-8,10-11,16H2,(H,27,30)

> <PUBCHEM_IUPAC_INCHIKEY>
DSZRSBVETNUWBS-UHFFFAOYSA-N

> <PUBCHEM_XLOGP3_AA>
4.6

> <PUBCHEM_EXACT_MASS>
432.19838270

> <PUBCHEM_MOLECULAR_FORMULA>
C25H28N4OS

> <PUBCHEM_MOLECULAR_WEIGHT>
432.6

> <PUBCHEM_OPENEYE_CAN_SMILES>
C1CC(CCC1CCN2CCC3=C(C2)C=C(C=C3)C#N)NC(=O)C4=CC5=C(N4)C=CS5

> <PUBCHEM_OPENEYE_ISO_SMILES>
C1CC(CCC1CCN2CCC3=C(C2)C=C(C=C3)C#N)NC(=O)C4=CC5=C(N4)C=CS5

> <PUBCHEM_CACTVS_TPSA>
100

> <PUBCHEM_MONOISOTOPIC_WEIGHT>
432.19838270

> <PUBCHEM_TOTAL_CHARGE>
0

> <PUBCHEM_HEAVY_ATOM_COUNT>
31

> <PUBCHEM_ATOM_DEF_STEREO_COUNT>
0

> <PUBCHEM_ATOM_UDEF_STEREO_COUNT>
0

> <PUBCHEM_BOND_DEF_STEREO_COUNT>
0

> <PUBCHEM_BOND_UDEF_STEREO_COUNT>
0

> <PUBCHEM_ISOTOPIC_ATOM_COUNT>
0

> <PUBCHEM_COMPONENT_COUNT>
1

> <PUBCHEM_CACTVS_TAUTO_COUNT>
-1

> <PUBCHEM_COORDINATE_TYPE>
1
5
255

> <PUBCHEM_BONDANNOTATIONS>
1  28  8
1  31  8
18  19  8
18  21  8
19  22  8
21  24  8
22  25  8
23  26  8
24  25  8
26  28  8
27  28  8
27  30  8
30  31  8
5  23  8
5  27  8

$$$$
