126534182
  -OEChem-09292322372D

 68 72  0     1  0  0  0  0  0999 V2000
    9.6680    3.2437    0.0000 S   0  0  0  0  0  0  0  0  0  0  0  0
    2.6420   -4.0527    0.0000 F   0  0  0  0  0  0  0  0  0  0  0  0
    2.0000   -2.7926    0.0000 F   0  0  0  0  0  0  0  0  0  0  0  0
    3.9021   -3.4106    0.0000 F   0  0  0  0  0  0  0  0  0  0  0  0
    4.1871    0.7026    0.0000 N   0  0  3  0  0  0  0  0  0  0  0  0
    6.6680    1.5116    0.0000 N   0  0  3  0  0  0  0  0  0  0  0  0
   11.2558    2.4346    0.0000 N   0  0  0  0  0  0  0  0  0  0  0  0
   12.2069    3.7437    0.0000 N   0  0  0  0  0  0  0  0  0  0  0  0
   11.2558    4.0527    0.0000 N   0  0  0  0  0  0  0  0  0  0  0  0
    5.1382    2.0116    0.0000 C   0  0  3  0  0  0  0  0  0  0  0  0
    5.1382    1.0116    0.0000 C   0  0  3  0  0  0  0  0  0  0  0  0
    6.0844    2.3164    0.0000 C   0  0  0  0  0  0  0  0  0  0  0  0
    4.1871    2.3206    0.0000 C   0  0  0  0  0  0  0  0  0  0  0  0
    6.0844    0.7069    0.0000 C   0  0  0  0  0  0  0  0  0  0  0  0
    3.5993    1.5116    0.0000 C   0  0  0  0  0  0  0  0  0  0  0  0
    7.6680    1.5116    0.0000 C   0  0  0  0  0  0  0  0  0  0  0  0
    3.8781   -0.2485    0.0000 C   0  0  0  0  0  0  0  0  0  0  0  0
    8.1680    2.3776    0.0000 C   0  0  0  0  0  0  0  0  0  0  0  0
    2.9000   -0.4564    0.0000 C   0  0  0  0  0  0  0  0  0  0  0  0
    4.5472   -0.9916    0.0000 C   0  0  0  0  0  0  0  0  0  0  0  0
    9.1680    2.3776    0.0000 C   0  0  0  0  0  0  0  0  0  0  0  0
   13.0159    2.1559    0.0000 C   0  0  0  0  0  0  0  0  0  0  0  0
   12.9113    1.1614    0.0000 C   0  0  0  0  0  0  0  0  0  0  0  0
   13.9294    2.5626    0.0000 C   0  0  0  0  0  0  0  0  0  0  0  0
    2.5909   -1.4074    0.0000 C   0  0  0  0  0  0  0  0  0  0  0  0
    4.2382   -1.9427    0.0000 C   0  0  0  0  0  0  0  0  0  0  0  0
   13.7204    0.5736    0.0000 C   0  0  0  0  0  0  0  0  0  0  0  0
   14.7384    1.9748    0.0000 C   0  0  0  0  0  0  0  0  0  0  0  0
   14.6339    0.9803    0.0000 C   0  0  0  0  0  0  0  0  0  0  0  0
    3.2601   -2.1506    0.0000 C   0  0  0  0  0  0  0  0  0  0  0  0
   12.2069    2.7437    0.0000 C   0  0  0  0  0  0  0  0  0  0  0  0
   10.6680    3.2437    0.0000 C   0  0  0  0  0  0  0  0  0  0  0  0
    2.9511   -3.1016    0.0000 C   0  0  0  0  0  0  0  0  0  0  0  0
   10.9468    1.4836    0.0000 C   0  0  0  0  0  0  0  0  0  0  0  0
    5.1390    2.6316    0.0000 H   0  0  0  0  0  0  0  0  0  0  0  0
    5.1390    0.3916    0.0000 H   0  0  0  0  0  0  0  0  0  0  0  0
    6.6218    2.6256    0.0000 H   0  0  0  0  0  0  0  0  0  0  0  0
    5.8334    2.8832    0.0000 H   0  0  0  0  0  0  0  0  0  0  0  0
    4.4393    2.8870    0.0000 H   0  0  0  0  0  0  0  0  0  0  0  0
    3.6502    2.6306    0.0000 H   0  0  0  0  0  0  0  0  0  0  0  0
    5.8334    0.1400    0.0000 H   0  0  0  0  0  0  0  0  0  0  0  0
    6.6218    0.3977    0.0000 H   0  0  0  0  0  0  0  0  0  0  0  0
    3.1386    1.9265    0.0000 H   0  0  0  0  0  0  0  0  0  0  0  0
    3.1386    1.0967    0.0000 H   0  0  0  0  0  0  0  0  0  0  0  0
    7.5604    0.9010    0.0000 H   0  0  0  0  0  0  0  0  0  0  0  0
    8.2506    1.2996    0.0000 H   0  0  0  0  0  0  0  0  0  0  0  0
    8.2757    2.9882    0.0000 H   0  0  0  0  0  0  0  0  0  0  0  0
    7.5854    2.5897    0.0000 H   0  0  0  0  0  0  0  0  0  0  0  0
    2.4851    0.0044    0.0000 H   0  0  0  0  0  0  0  0  0  0  0  0
    5.1537   -0.8627    0.0000 H   0  0  0  0  0  0  0  0  0  0  0  0
    9.0604    1.7671    0.0000 H   0  0  0  0  0  0  0  0  0  0  0  0
    9.7506    2.1656    0.0000 H   0  0  0  0  0  0  0  0  0  0  0  0
   12.4495    1.9037    0.0000 H   0  0  0  0  0  0  0  0  0  0  0  0
   12.3154    1.3322    0.0000 H   0  0  0  0  0  0  0  0  0  0  0  0
   12.6395    0.6041    0.0000 H   0  0  0  0  0  0  0  0  0  0  0  0
   14.3754    2.9933    0.0000 H   0  0  0  0  0  0  0  0  0  0  0  0
   13.5827    3.0766    0.0000 H   0  0  0  0  0  0  0  0  0  0  0  0
   13.2744    0.1429    0.0000 H   0  0  0  0  0  0  0  0  0  0  0  0
   14.0671    0.0596    0.0000 H   0  0  0  0  0  0  0  0  0  0  0  0
   15.3344    1.8039    0.0000 H   0  0  0  0  0  0  0  0  0  0  0  0
   15.0102    2.5321    0.0000 H   0  0  0  0  0  0  0  0  0  0  0  0
    1.9845   -1.5363    0.0000 H   0  0  0  0  0  0  0  0  0  0  0  0
    4.6531   -2.4034    0.0000 H   0  0  0  0  0  0  0  0  0  0  0  0
   14.7839    0.3787    0.0000 H   0  0  0  0  0  0  0  0  0  0  0  0
   15.2524    1.0236    0.0000 H   0  0  0  0  0  0  0  0  0  0  0  0
   10.3571    1.6752    0.0000 H   0  0  0  0  0  0  0  0  0  0  0  0
   10.7552    0.8939    0.0000 H   0  0  0  0  0  0  0  0  0  0  0  0
   11.5364    1.2920    0.0000 H   0  0  0  0  0  0  0  0  0  0  0  0
  1 21  1  0  0  0  0
  1 32  1  0  0  0  0
  2 33  1  0  0  0  0
  3 33  1  0  0  0  0
  4 33  1  0  0  0  0
  5 11  1  0  0  0  0
  5 15  1  0  0  0  0
  5 17  1  0  0  0  0
  6 12  1  0  0  0  0
  6 14  1  0  0  0  0
  6 16  1  0  0  0  0
  7 31  1  0  0  0  0
  7 32  1  0  0  0  0
  7 34  1  0  0  0  0
  8  9  1  0  0  0  0
  8 31  2  0  0  0  0
  9 32  2  0  0  0  0
 10 11  1  0  0  0  0
 10 12  1  0  0  0  0
 10 13  1  0  0  0  0
 10 35  1  0  0  0  0
 11 14  1  0  0  0  0
 11 36  1  0  0  0  0
 12 37  1  0  0  0  0
 12 38  1  0  0  0  0
 13 15  1  0  0  0  0
 13 39  1  0  0  0  0
 13 40  1  0  0  0  0
 14 41  1  0  0  0  0
 14 42  1  0  0  0  0
 15 43  1  0  0  0  0
 15 44  1  0  0  0  0
 16 18  1  0  0  0  0
 16 45  1  0  0  0  0
 16 46  1  0  0  0  0
 17 19  2  0  0  0  0
 17 20  1  0  0  0  0
 18 21  1  0  0  0  0
 18 47  1  0  0  0  0
 18 48  1  0  0  0  0
 19 25  1  0  0  0  0
 19 49  1  0  0  0  0
 20 26  2  0  0  0  0
 20 50  1  0  0  0  0
 21 51  1  0  0  0  0
 21 52  1  0  0  0  0
 22 23  1  0  0  0  0
 22 24  1  0  0  0  0
 22 31  1  0  0  0  0
 22 53  1  0  0  0  0
 23 27  1  0  0  0  0
 23 54  1  0  0  0  0
 23 55  1  0  0  0  0
 24 28  1  0  0  0  0
 24 56  1  0  0  0  0
 24 57  1  0  0  0  0
 25 30  2  0  0  0  0
 25 62  1  0  0  0  0
 26 30  1  0  0  0  0
 26 63  1  0  0  0  0
 27 29  1  0  0  0  0
 27 58  1  0  0  0  0
 27 59  1  0  0  0  0
 28 29  1  0  0  0  0
 28 60  1  0  0  0  0
 28 61  1  0  0  0  0
 29 64  1  0  0  0  0
 29 65  1  0  0  0  0
 30 33  1  0  0  0  0
 34 66  1  0  0  0  0
 34 67  1  0  0  0  0
 34 68  1  0  0  0  0
M  END
> <PUBCHEM_COMPOUND_CID>
126534182

> <PUBCHEM_COMPOUND_CANONICALIZED>
1

> <PUBCHEM_CACTVS_COMPLEXITY>
653

> <PUBCHEM_CACTVS_HBOND_ACCEPTOR>
8

> <PUBCHEM_CACTVS_HBOND_DONOR>
0

> <PUBCHEM_CACTVS_ROTATABLE_BOND>
7

> <PUBCHEM_CACTVS_SUBSKEYS>
AAADcfB7gYBAAAAAAAAAAAAAAAAAAWLFgAAwYAAAAAAWAAABwAAAHQQIAAAADSjFWxSz0IcMEAiiAiZiZACS0AthArAdyAA4ZIiIaCLg2ZGUIAhgiALIyAcQgAAOCAAAAAAAAAAQAAAAAAAAAAAAAAAAAA==

> <PUBCHEM_IUPAC_OPENEYE_NAME>
5-[3-[(5-cyclohexyl-4-methyl-1,2,4-triazol-3-yl)sulfanyl]propyl]-1-[4-(trifluoromethyl)phenyl]-2,3,3a,4,6,6a-hexahydropyrrolo[2,3-c]pyrrole

> <PUBCHEM_IUPAC_CAS_NAME>
5-[3-[(5-cyclohexyl-4-methyl-1,2,4-triazol-3-yl)thio]propyl]-1-[4-(trifluoromethyl)phenyl]-2,3,3a,4,6,6a-hexahydropyrrolo[2,3-c]pyrrole

> <PUBCHEM_IUPAC_NAME_MARKUP>
5-[3-[(5-cyclohexyl-4-methyl-1,2,4-triazol-3-yl)sulfanyl]propyl]-1-[4-(trifluoromethyl)phenyl]-2,3,3<I>a</I>,4,6,6<I>a</I>-hexahydropyrrolo[2,3-c]pyrrole

> <PUBCHEM_IUPAC_NAME>
5-[3-[(5-cyclohexyl-4-methyl-1,2,4-triazol-3-yl)sulfanyl]propyl]-1-[4-(trifluoromethyl)phenyl]-2,3,3a,4,6,6a-hexahydropyrrolo[2,3-c]pyrrole

> <PUBCHEM_IUPAC_SYSTEMATIC_NAME>
5-[3-[(5-cyclohexyl-4-methyl-1,2,4-triazol-3-yl)sulfanyl]propyl]-1-[4-(trifluoromethyl)phenyl]-2,3,3a,4,6,6a-hexahydropyrrolo[2,3-c]pyrrole

> <PUBCHEM_IUPAC_TRADITIONAL_NAME>
5-[3-[(5-cyclohexyl-4-methyl-1,2,4-triazol-3-yl)thio]propyl]-1-[4-(trifluoromethyl)phenyl]-2,3,3a,4,6,6a-hexahydropyrrolo[2,3-c]pyrrole

> <PUBCHEM_IUPAC_INCHI>
InChI=1S/C25H34F3N5S/c1-31-23(18-6-3-2-4-7-18)29-30-24(31)34-15-5-13-32-16-19-12-14-33(22(19)17-32)21-10-8-20(9-11-21)25(26,27)28/h8-11,18-19,22H,2-7,12-17H2,1H3

> <PUBCHEM_IUPAC_INCHIKEY>
QRRCESJWXMIGPS-UHFFFAOYSA-N

> <PUBCHEM_XLOGP3_AA>
5.8

> <PUBCHEM_EXACT_MASS>
493.24870177

> <PUBCHEM_MOLECULAR_FORMULA>
C25H34F3N5S

> <PUBCHEM_MOLECULAR_WEIGHT>
493.6

> <PUBCHEM_OPENEYE_CAN_SMILES>
CN1C(=NN=C1SCCCN2CC3CCN(C3C2)C4=CC=C(C=C4)C(F)(F)F)C5CCCCC5

> <PUBCHEM_OPENEYE_ISO_SMILES>
CN1C(=NN=C1SCCCN2CC3CCN(C3C2)C4=CC=C(C=C4)C(F)(F)F)C5CCCCC5

> <PUBCHEM_CACTVS_TPSA>
62.5

> <PUBCHEM_MONOISOTOPIC_WEIGHT>
493.24870177

> <PUBCHEM_TOTAL_CHARGE>
0

> <PUBCHEM_HEAVY_ATOM_COUNT>
34

> <PUBCHEM_ATOM_DEF_STEREO_COUNT>
0

> <PUBCHEM_ATOM_UDEF_STEREO_COUNT>
2

> <PUBCHEM_BOND_DEF_STEREO_COUNT>
0

> <PUBCHEM_BOND_UDEF_STEREO_COUNT>
0

> <PUBCHEM_ISOTOPIC_ATOM_COUNT>
0

> <PUBCHEM_COMPONENT_COUNT>
1

> <PUBCHEM_CACTVS_TAUTO_COUNT>
-1

> <PUBCHEM_COORDINATE_TYPE>
1
5
255

> <PUBCHEM_BONDANNOTATIONS>
10  13  3
11  14  3
17  19  8
17  20  8
19  25  8
20  26  8
25  30  8
26  30  8
7  31  8
7  32  8
8  31  8
8  9  8
9  32  8

$$$$
