71502632
  -OEChem-09292322352D

 63 67  0     0  0  0  0  0  0999 V2000
    6.7210   -4.9518    0.0000 S   0  0  0  0  0  0  0  0  0  0  0  0
    2.8660    7.8034    0.0000 F   0  0  0  0  0  0  0  0  0  0  0  0
    2.8660    3.8034    0.0000 O   0  0  0  0  0  0  0  0  0  0  0  0
    7.6715   -4.6412    0.0000 O   0  0  0  0  0  0  0  0  0  0  0  0
    5.7705   -5.2625    0.0000 O   0  0  0  0  0  0  0  0  0  0  0  0
    4.5981    0.8034    0.0000 N   0  0  0  0  0  0  0  0  0  0  0  0
    4.5981   -1.1966    0.0000 N   0  0  0  0  0  0  0  0  0  0  0  0
    6.4103   -4.0013    0.0000 N   0  0  0  0  0  0  0  0  0  0  0  0
    3.7320    0.3034    0.0000 C   0  0  0  0  0  0  0  0  0  0  0  0
    5.4641    0.3034    0.0000 C   0  0  0  0  0  0  0  0  0  0  0  0
    3.7320   -0.6966    0.0000 C   0  0  0  0  0  0  0  0  0  0  0  0
    5.4641   -0.6966    0.0000 C   0  0  0  0  0  0  0  0  0  0  0  0
    4.5981    1.8034    0.0000 C   0  0  0  0  0  0  0  0  0  0  0  0
    4.5981   -2.1966    0.0000 C   0  0  0  0  0  0  0  0  0  0  0  0
    5.4641   -2.6966    0.0000 C   0  0  0  0  0  0  0  0  0  0  0  0
    3.7320    2.3034    0.0000 C   0  0  0  0  0  0  0  0  0  0  0  0
    5.4641   -3.6966    0.0000 C   0  0  0  0  0  0  0  0  0  0  0  0
    3.7320   -2.6966    0.0000 C   0  0  0  0  0  0  0  0  0  0  0  0
    6.4103   -2.3919    0.0000 C   0  0  0  0  0  0  0  0  0  0  0  0
    4.5981   -4.1966    0.0000 C   0  0  0  0  0  0  0  0  0  0  0  0
    3.7320    3.3034    0.0000 C   0  0  0  0  0  0  0  0  0  0  0  0
    6.9939   -3.1966    0.0000 C   0  0  0  0  0  0  0  0  0  0  0  0
    3.7320   -3.6966    0.0000 C   0  0  0  0  0  0  0  0  0  0  0  0
    7.0316   -5.9024    0.0000 C   0  0  0  0  0  0  0  0  0  0  0  0
    8.0102   -6.1086    0.0000 C   0  0  0  0  0  0  0  0  0  0  0  0
    6.3638   -6.6467    0.0000 C   0  0  0  0  0  0  0  0  0  0  0  0
    2.8660    4.8034    0.0000 C   0  0  0  0  0  0  0  0  0  0  0  0
    8.3208   -7.0591    0.0000 C   0  0  0  0  0  0  0  0  0  0  0  0
    6.6745   -7.5972    0.0000 C   0  0  0  0  0  0  0  0  0  0  0  0
    7.6530   -7.8034    0.0000 C   0  0  0  0  0  0  0  0  0  0  0  0
    3.7320    5.3034    0.0000 C   0  0  0  0  0  0  0  0  0  0  0  0
    2.0000    5.3034    0.0000 C   0  0  0  0  0  0  0  0  0  0  0  0
    3.7320    6.3034    0.0000 C   0  0  0  0  0  0  0  0  0  0  0  0
    2.0000    6.3034    0.0000 C   0  0  0  0  0  0  0  0  0  0  0  0
    2.8660    6.8034    0.0000 C   0  0  0  0  0  0  0  0  0  0  0  0
    3.5200    0.8860    0.0000 H   0  0  0  0  0  0  0  0  0  0  0  0
    3.1215    0.1957    0.0000 H   0  0  0  0  0  0  0  0  0  0  0  0
    6.0747    0.1957    0.0000 H   0  0  0  0  0  0  0  0  0  0  0  0
    5.6762    0.8860    0.0000 H   0  0  0  0  0  0  0  0  0  0  0  0
    3.1215   -0.5889    0.0000 H   0  0  0  0  0  0  0  0  0  0  0  0
    3.5200   -1.2792    0.0000 H   0  0  0  0  0  0  0  0  0  0  0  0
    5.6762   -1.2792    0.0000 H   0  0  0  0  0  0  0  0  0  0  0  0
    6.0747   -0.5889    0.0000 H   0  0  0  0  0  0  0  0  0  0  0  0
    5.2087    1.6957    0.0000 H   0  0  0  0  0  0  0  0  0  0  0  0
    4.8101    2.3860    0.0000 H   0  0  0  0  0  0  0  0  0  0  0  0
    3.1215    2.4111    0.0000 H   0  0  0  0  0  0  0  0  0  0  0  0
    3.5200    1.7208    0.0000 H   0  0  0  0  0  0  0  0  0  0  0  0
    3.1951   -2.3866    0.0000 H   0  0  0  0  0  0  0  0  0  0  0  0
    6.6029   -1.8025    0.0000 H   0  0  0  0  0  0  0  0  0  0  0  0
    4.5981   -4.8166    0.0000 H   0  0  0  0  0  0  0  0  0  0  0  0
    7.6139   -3.1966    0.0000 H   0  0  0  0  0  0  0  0  0  0  0  0
    4.3426    3.1957    0.0000 H   0  0  0  0  0  0  0  0  0  0  0  0
    3.9441    3.8860    0.0000 H   0  0  0  0  0  0  0  0  0  0  0  0
    3.1951   -4.0066    0.0000 H   0  0  0  0  0  0  0  0  0  0  0  0
    8.4242   -5.6471    0.0000 H   0  0  0  0  0  0  0  0  0  0  0  0
    5.7571   -6.5188    0.0000 H   0  0  0  0  0  0  0  0  0  0  0  0
    8.9275   -7.1870    0.0000 H   0  0  0  0  0  0  0  0  0  0  0  0
    6.2604   -8.0586    0.0000 H   0  0  0  0  0  0  0  0  0  0  0  0
    7.8456   -8.3927    0.0000 H   0  0  0  0  0  0  0  0  0  0  0  0
    4.2690    4.9934    0.0000 H   0  0  0  0  0  0  0  0  0  0  0  0
    1.4631    4.9934    0.0000 H   0  0  0  0  0  0  0  0  0  0  0  0
    4.2690    6.6134    0.0000 H   0  0  0  0  0  0  0  0  0  0  0  0
    1.4631    6.6134    0.0000 H   0  0  0  0  0  0  0  0  0  0  0  0
  1  4  2  0  0  0  0
  1  5  2  0  0  0  0
  1  8  1  0  0  0  0
  1 24  1  0  0  0  0
  2 35  1  0  0  0  0
  3 21  1  0  0  0  0
  3 27  1  0  0  0  0
  6  9  1  0  0  0  0
  6 10  1  0  0  0  0
  6 13  1  0  0  0  0
  7 11  1  0  0  0  0
  7 12  1  0  0  0  0
  7 14  1  0  0  0  0
  8 17  1  0  0  0  0
  8 22  1  0  0  0  0
  9 11  1  0  0  0  0
  9 36  1  0  0  0  0
  9 37  1  0  0  0  0
 10 12  1  0  0  0  0
 10 38  1  0  0  0  0
 10 39  1  0  0  0  0
 11 40  1  0  0  0  0
 11 41  1  0  0  0  0
 12 42  1  0  0  0  0
 12 43  1  0  0  0  0
 13 16  1  0  0  0  0
 13 44  1  0  0  0  0
 13 45  1  0  0  0  0
 14 15  1  0  0  0  0
 14 18  2  0  0  0  0
 15 17  2  0  0  0  0
 15 19  1  0  0  0  0
 16 21  1  0  0  0  0
 16 46  1  0  0  0  0
 16 47  1  0  0  0  0
 17 20  1  0  0  0  0
 18 23  1  0  0  0  0
 18 48  1  0  0  0  0
 19 22  2  0  0  0  0
 19 49  1  0  0  0  0
 20 23  2  0  0  0  0
 20 50  1  0  0  0  0
 21 52  1  0  0  0  0
 21 53  1  0  0  0  0
 22 51  1  0  0  0  0
 23 54  1  0  0  0  0
 24 25  2  0  0  0  0
 24 26  1  0  0  0  0
 25 28  1  0  0  0  0
 25 55  1  0  0  0  0
 26 29  2  0  0  0  0
 26 56  1  0  0  0  0
 27 31  2  0  0  0  0
 27 32  1  0  0  0  0
 28 30  2  0  0  0  0
 28 57  1  0  0  0  0
 29 30  1  0  0  0  0
 29 58  1  0  0  0  0
 30 59  1  0  0  0  0
 31 33  1  0  0  0  0
 31 60  1  0  0  0  0
 32 34  2  0  0  0  0
 32 61  1  0  0  0  0
 33 35  2  0  0  0  0
 33 62  1  0  0  0  0
 34 35  1  0  0  0  0
 34 63  1  0  0  0  0
M  END
> <PUBCHEM_COMPOUND_CID>
71502632

> <PUBCHEM_COMPOUND_CANONICALIZED>
1

> <PUBCHEM_CACTVS_COMPLEXITY>
756

> <PUBCHEM_CACTVS_HBOND_ACCEPTOR>
6

> <PUBCHEM_CACTVS_HBOND_DONOR>
0

> <PUBCHEM_CACTVS_ROTATABLE_BOND>
8

> <PUBCHEM_CACTVS_SUBSKEYS>
AAADceB7MQBAAAAAAAAAAAAAAAAAAWAAAAA8YMEAAAAAAFgB9AAAHwQAQAAADAzh3g48x/MIFAKgAzRnRHDCiDAxIiAI2Dg+bJgMZuLE8duWPCjmwBHI6AeQwIAOAAAAAAQCAAAAAAAACAQAAAAAAAAAAA==

> <PUBCHEM_IUPAC_OPENEYE_NAME>
1-(benzenesulfonyl)-4-[4-[3-(4-fluorophenoxy)propyl]piperazin-1-yl]indole

> <PUBCHEM_IUPAC_CAS_NAME>
1-(benzenesulfonyl)-4-[4-[3-(4-fluorophenoxy)propyl]-1-piperazinyl]indole

> <PUBCHEM_IUPAC_NAME_MARKUP>
1-(benzenesulfonyl)-4-[4-[3-(4-fluorophenoxy)propyl]piperazin-1-yl]indole

> <PUBCHEM_IUPAC_NAME>
1-(benzenesulfonyl)-4-[4-[3-(4-fluorophenoxy)propyl]piperazin-1-yl]indole

> <PUBCHEM_IUPAC_SYSTEMATIC_NAME>
4-[4-[3-(4-fluoranylphenoxy)propyl]piperazin-1-yl]-1-(phenylsulfonyl)indole

> <PUBCHEM_IUPAC_TRADITIONAL_NAME>
1-besyl-4-[4-[3-(4-fluorophenoxy)propyl]piperazino]indole

> <PUBCHEM_IUPAC_INCHI>
InChI=1S/C27H28FN3O3S/c28-22-10-12-23(13-11-22)34-21-5-15-29-17-19-30(20-18-29)26-8-4-9-27-25(26)14-16-31(27)35(32,33)24-6-2-1-3-7-24/h1-4,6-14,16H,5,15,17-21H2

> <PUBCHEM_IUPAC_INCHIKEY>
CCHZUMWJDOCSOK-UHFFFAOYSA-N

> <PUBCHEM_XLOGP3_AA>
5.3

> <PUBCHEM_EXACT_MASS>
493.18354110

> <PUBCHEM_MOLECULAR_FORMULA>
C27H28FN3O3S

> <PUBCHEM_MOLECULAR_WEIGHT>
493.6

> <PUBCHEM_OPENEYE_CAN_SMILES>
C1CN(CCN1CCCOC2=CC=C(C=C2)F)C3=CC=CC4=C3C=CN4S(=O)(=O)C5=CC=CC=C5

> <PUBCHEM_OPENEYE_ISO_SMILES>
C1CN(CCN1CCCOC2=CC=C(C=C2)F)C3=CC=CC4=C3C=CN4S(=O)(=O)C5=CC=CC=C5

> <PUBCHEM_CACTVS_TPSA>
63.2

> <PUBCHEM_MONOISOTOPIC_WEIGHT>
493.18354110

> <PUBCHEM_TOTAL_CHARGE>
0

> <PUBCHEM_HEAVY_ATOM_COUNT>
35

> <PUBCHEM_ATOM_DEF_STEREO_COUNT>
0

> <PUBCHEM_ATOM_UDEF_STEREO_COUNT>
0

> <PUBCHEM_BOND_DEF_STEREO_COUNT>
0

> <PUBCHEM_BOND_UDEF_STEREO_COUNT>
0

> <PUBCHEM_ISOTOPIC_ATOM_COUNT>
0

> <PUBCHEM_COMPONENT_COUNT>
1

> <PUBCHEM_CACTVS_TAUTO_COUNT>
-1

> <PUBCHEM_COORDINATE_TYPE>
1
5
255

> <PUBCHEM_BONDANNOTATIONS>
14  15  8
14  18  8
15  17  8
15  19  8
17  20  8
18  23  8
19  22  8
20  23  8
24  25  8
24  26  8
25  28  8
26  29  8
27  31  8
27  32  8
28  30  8
29  30  8
31  33  8
32  34  8
33  35  8
34  35  8
8  17  8
8  22  8

$$$$
