46881413
  -OEChem-09292322022D

 47 49  0     0  0  0  0  0  0999 V2000
    4.1701   -4.9191    0.0000 Cl  0  0  0  0  0  0  0  0  0  0  0  0
    5.5293   -1.9352    0.0000 O   0  0  0  0  0  0  0  0  0  0  0  0
    6.6227    2.7285    0.0000 N   0  0  0  0  0  0  0  0  0  0  0  0
    4.8907   -0.2715    0.0000 N   0  0  0  0  0  0  0  0  0  0  0  0
    3.8080   -1.4740    0.0000 N   0  0  0  0  0  0  0  0  0  0  0  0
    5.7218    3.1623    0.0000 C   0  0  0  0  0  0  0  0  0  0  0  0
    7.5237    3.1623    0.0000 C   0  0  0  0  0  0  0  0  0  0  0  0
    5.4992    4.1373    0.0000 C   0  0  0  0  0  0  0  0  0  0  0  0
    7.7462    4.1373    0.0000 C   0  0  0  0  0  0  0  0  0  0  0  0
    6.1227    4.9191    0.0000 C   0  0  0  0  0  0  0  0  0  0  0  0
    7.1227    4.9191    0.0000 C   0  0  0  0  0  0  0  0  0  0  0  0
    6.6227    1.7285    0.0000 C   0  0  0  0  0  0  0  0  0  0  0  0
    5.7567    1.2285    0.0000 C   0  0  0  0  0  0  0  0  0  0  0  0
    5.7567    0.2285    0.0000 C   0  0  0  0  0  0  0  0  0  0  0  0
    4.7861   -1.2661    0.0000 C   0  0  0  0  0  0  0  0  0  0  0  0
    3.9771    0.1352    0.0000 C   0  0  0  0  0  0  0  0  0  0  0  0
    3.3080   -0.6080    0.0000 C   0  0  0  0  0  0  0  0  0  0  0  0
    3.4013   -2.3875    0.0000 C   0  0  0  0  0  0  0  0  0  0  0  0
    3.9890   -3.1965    0.0000 C   0  0  0  0  0  0  0  0  0  0  0  0
    2.4067   -2.4920    0.0000 C   0  0  0  0  0  0  0  0  0  0  0  0
    3.5823   -4.1101    0.0000 C   0  0  0  0  0  0  0  0  0  0  0  0
    2.0000   -3.4056    0.0000 C   0  0  0  0  0  0  0  0  0  0  0  0
    2.5878   -4.2146    0.0000 C   0  0  0  0  0  0  0  0  0  0  0  0
    5.1018    3.1623    0.0000 H   0  0  0  0  0  0  0  0  0  0  0  0
    5.5838    2.5579    0.0000 H   0  0  0  0  0  0  0  0  0  0  0  0
    7.6616    2.5579    0.0000 H   0  0  0  0  0  0  0  0  0  0  0  0
    8.1437    3.1623    0.0000 H   0  0  0  0  0  0  0  0  0  0  0  0
    5.1127    4.6220    0.0000 H   0  0  0  0  0  0  0  0  0  0  0  0
    4.9406    3.8683    0.0000 H   0  0  0  0  0  0  0  0  0  0  0  0
    8.3048    3.8683    0.0000 H   0  0  0  0  0  0  0  0  0  0  0  0
    8.1328    4.6220    0.0000 H   0  0  0  0  0  0  0  0  0  0  0  0
    6.2607    5.5236    0.0000 H   0  0  0  0  0  0  0  0  0  0  0  0
    5.5641    5.1881    0.0000 H   0  0  0  0  0  0  0  0  0  0  0  0
    7.6813    5.1881    0.0000 H   0  0  0  0  0  0  0  0  0  0  0  0
    6.9848    5.5236    0.0000 H   0  0  0  0  0  0  0  0  0  0  0  0
    6.8348    1.1458    0.0000 H   0  0  0  0  0  0  0  0  0  0  0  0
    7.2333    1.8361    0.0000 H   0  0  0  0  0  0  0  0  0  0  0  0
    5.5446    1.8111    0.0000 H   0  0  0  0  0  0  0  0  0  0  0  0
    5.1461    1.1208    0.0000 H   0  0  0  0  0  0  0  0  0  0  0  0
    5.9688   -0.3542    0.0000 H   0  0  0  0  0  0  0  0  0  0  0  0
    6.3673    0.3361    0.0000 H   0  0  0  0  0  0  0  0  0  0  0  0
    3.8482    0.7416    0.0000 H   0  0  0  0  0  0  0  0  0  0  0  0
    2.6914   -0.5431    0.0000 H   0  0  0  0  0  0  0  0  0  0  0  0
    4.6056   -3.1317    0.0000 H   0  0  0  0  0  0  0  0  0  0  0  0
    2.0423   -1.9905    0.0000 H   0  0  0  0  0  0  0  0  0  0  0  0
    1.3834   -3.4704    0.0000 H   0  0  0  0  0  0  0  0  0  0  0  0
    2.3356   -4.7810    0.0000 H   0  0  0  0  0  0  0  0  0  0  0  0
  1 21  1  0  0  0  0
  2 15  2  0  0  0  0
  3  6  1  0  0  0  0
  3  7  1  0  0  0  0
  3 12  1  0  0  0  0
  4 14  1  0  0  0  0
  4 15  1  0  0  0  0
  4 16  1  0  0  0  0
  5 15  1  0  0  0  0
  5 17  1  0  0  0  0
  5 18  1  0  0  0  0
  6  8  1  0  0  0  0
  6 24  1  0  0  0  0
  6 25  1  0  0  0  0
  7  9  1  0  0  0  0
  7 26  1  0  0  0  0
  7 27  1  0  0  0  0
  8 10  1  0  0  0  0
  8 28  1  0  0  0  0
  8 29  1  0  0  0  0
  9 11  1  0  0  0  0
  9 30  1  0  0  0  0
  9 31  1  0  0  0  0
 10 11  1  0  0  0  0
 10 32  1  0  0  0  0
 10 33  1  0  0  0  0
 11 34  1  0  0  0  0
 11 35  1  0  0  0  0
 12 13  1  0  0  0  0
 12 36  1  0  0  0  0
 12 37  1  0  0  0  0
 13 14  1  0  0  0  0
 13 38  1  0  0  0  0
 13 39  1  0  0  0  0
 14 40  1  0  0  0  0
 14 41  1  0  0  0  0
 16 17  2  0  0  0  0
 16 42  1  0  0  0  0
 17 43  1  0  0  0  0
 18 19  2  0  0  0  0
 18 20  1  0  0  0  0
 19 21  1  0  0  0  0
 19 44  1  0  0  0  0
 20 22  2  0  0  0  0
 20 45  1  0  0  0  0
 21 23  2  0  0  0  0
 22 23  1  0  0  0  0
 22 46  1  0  0  0  0
 23 47  1  0  0  0  0
M  END
> <PUBCHEM_COMPOUND_CID>
46881413

> <PUBCHEM_COMPOUND_CANONICALIZED>
1

> <PUBCHEM_CACTVS_COMPLEXITY>
421

> <PUBCHEM_CACTVS_HBOND_ACCEPTOR>
2

> <PUBCHEM_CACTVS_HBOND_DONOR>
0

> <PUBCHEM_CACTVS_ROTATABLE_BOND>
5

> <PUBCHEM_CACTVS_SUBSKEYS>
AAADceB7IAAEAAAAAAAAAAAAAAAAAQAAAAAwAAAABYAAAAABAAAAHgIAAAAACArBECQxwIMAAACIACRGUACCAAAhBwAIiAAIZoiIICLB05GEIAhohgLIyCcQAAAAAAAAAAIAAAAAAAAABAAAAAAAAAAAAA==

> <PUBCHEM_IUPAC_OPENEYE_NAME>
1-[3-(azepan-1-yl)propyl]-3-(3-chlorophenyl)imidazol-2-one

> <PUBCHEM_IUPAC_CAS_NAME>
1-[3-(1-azepanyl)propyl]-3-(3-chlorophenyl)-2-imidazolone

> <PUBCHEM_IUPAC_NAME_MARKUP>
1-[3-(azepan-1-yl)propyl]-3-(3-chlorophenyl)imidazol-2-one

> <PUBCHEM_IUPAC_NAME>
1-[3-(azepan-1-yl)propyl]-3-(3-chlorophenyl)imidazol-2-one

> <PUBCHEM_IUPAC_SYSTEMATIC_NAME>
1-[3-(azepan-1-yl)propyl]-3-(3-chlorophenyl)imidazol-2-one

> <PUBCHEM_IUPAC_TRADITIONAL_NAME>
1-[3-(azepan-1-yl)propyl]-3-(3-chlorophenyl)-4-imidazolin-2-one

> <PUBCHEM_IUPAC_INCHI>
InChI=1S/C18H24ClN3O/c19-16-7-5-8-17(15-16)22-14-13-21(18(22)23)12-6-11-20-9-3-1-2-4-10-20/h5,7-8,13-15H,1-4,6,9-12H2

> <PUBCHEM_IUPAC_INCHIKEY>
RHSCKLKHJPKZNP-UHFFFAOYSA-N

> <PUBCHEM_XLOGP3_AA>
3.3

> <PUBCHEM_EXACT_MASS>
333.1607901

> <PUBCHEM_MOLECULAR_FORMULA>
C18H24ClN3O

> <PUBCHEM_MOLECULAR_WEIGHT>
333.9

> <PUBCHEM_OPENEYE_CAN_SMILES>
C1CCCN(CC1)CCCN2C=CN(C2=O)C3=CC(=CC=C3)Cl

> <PUBCHEM_OPENEYE_ISO_SMILES>
C1CCCN(CC1)CCCN2C=CN(C2=O)C3=CC(=CC=C3)Cl

> <PUBCHEM_CACTVS_TPSA>
26.8

> <PUBCHEM_MONOISOTOPIC_WEIGHT>
333.1607901

> <PUBCHEM_TOTAL_CHARGE>
0

> <PUBCHEM_HEAVY_ATOM_COUNT>
23

> <PUBCHEM_ATOM_DEF_STEREO_COUNT>
0

> <PUBCHEM_ATOM_UDEF_STEREO_COUNT>
0

> <PUBCHEM_BOND_DEF_STEREO_COUNT>
0

> <PUBCHEM_BOND_UDEF_STEREO_COUNT>
0

> <PUBCHEM_ISOTOPIC_ATOM_COUNT>
0

> <PUBCHEM_COMPONENT_COUNT>
1

> <PUBCHEM_CACTVS_TAUTO_COUNT>
-1

> <PUBCHEM_COORDINATE_TYPE>
1
5
255

> <PUBCHEM_BONDANNOTATIONS>
16  17  8
18  19  8
18  20  8
19  21  8
20  22  8
21  23  8
22  23  8
4  15  8
4  16  8
5  15  8
5  17  8

$$$$
