155534575
  -OEChem-09292322402D

 57 60  0     0  0  0  0  0  0999 V2000
    4.6783   -1.6586    0.0000 S   0  0  0  0  0  0  0  0  0  0  0  0
    5.4883   -2.2450    0.0000 O   0  0  0  0  0  0  0  0  0  0  0  0
    4.3709   -2.6102    0.0000 O   0  0  0  0  0  0  0  0  0  0  0  0
    4.9889    0.9014    0.0000 O   0  0  0  0  0  0  0  0  0  0  0  0
   10.7619    1.7442    0.0000 N   0  0  0  0  0  0  0  0  0  0  0  0
   12.7619    1.7442    0.0000 N   0  0  0  0  0  0  0  0  0  0  0  0
    5.2619   -0.8539    0.0000 N   0  0  0  0  0  0  0  0  0  0  0  0
   14.2619    2.6102    0.0000 N   0  0  0  0  0  0  0  0  0  0  0  0
   14.2619    0.8782    0.0000 N   0  0  0  0  0  0  0  0  0  0  0  0
    9.7619    1.7442    0.0000 C   0  0  0  0  0  0  0  0  0  0  0  0
   11.2619    2.6102    0.0000 C   0  0  0  0  0  0  0  0  0  0  0  0
   11.2619    0.8782    0.0000 C   0  0  0  0  0  0  0  0  0  0  0  0
    9.2619    0.8782    0.0000 C   0  0  0  0  0  0  0  0  0  0  0  0
   12.2619    2.6102    0.0000 C   0  0  0  0  0  0  0  0  0  0  0  0
   12.2619    0.8782    0.0000 C   0  0  0  0  0  0  0  0  0  0  0  0
    8.2619    0.8782    0.0000 C   0  0  0  0  0  0  0  0  0  0  0  0
    7.7619    0.0121    0.0000 C   0  0  0  0  0  0  0  0  0  0  0  0
    6.7619    0.0121    0.0000 C   0  0  0  0  0  0  0  0  0  0  0  0
    6.2619   -0.8539    0.0000 C   0  0  0  0  0  0  0  0  0  0  0  0
    3.7320   -1.3539    0.0000 C   0  0  0  0  0  0  0  0  0  0  0  0
   13.7619    1.7442    0.0000 C   0  0  0  0  0  0  0  0  0  0  0  0
    4.6783   -0.0492    0.0000 C   0  0  0  0  0  0  0  0  0  0  0  0
    3.7320   -0.3539    0.0000 C   0  0  0  0  0  0  0  0  0  0  0  0
    2.8660   -1.8539    0.0000 C   0  0  0  0  0  0  0  0  0  0  0  0
    2.8660    0.1461    0.0000 C   0  0  0  0  0  0  0  0  0  0  0  0
    2.0000   -1.3539    0.0000 C   0  0  0  0  0  0  0  0  0  0  0  0
    2.0000   -0.3539    0.0000 C   0  0  0  0  0  0  0  0  0  0  0  0
   15.2619    2.6102    0.0000 C   0  0  0  0  0  0  0  0  0  0  0  0
   15.2619    0.8782    0.0000 C   0  0  0  0  0  0  0  0  0  0  0  0
   15.7619    1.7442    0.0000 C   0  0  0  0  0  0  0  0  0  0  0  0
    9.8695    2.3548    0.0000 H   0  0  0  0  0  0  0  0  0  0  0  0
    9.1793    1.9562    0.0000 H   0  0  0  0  0  0  0  0  0  0  0  0
   11.3695    3.2208    0.0000 H   0  0  0  0  0  0  0  0  0  0  0  0
   10.6793    2.8223    0.0000 H   0  0  0  0  0  0  0  0  0  0  0  0
   10.6793    0.6661    0.0000 H   0  0  0  0  0  0  0  0  0  0  0  0
   11.3695    0.2676    0.0000 H   0  0  0  0  0  0  0  0  0  0  0  0
    9.1542    0.2676    0.0000 H   0  0  0  0  0  0  0  0  0  0  0  0
    9.8445    0.6661    0.0000 H   0  0  0  0  0  0  0  0  0  0  0  0
   12.8445    2.8223    0.0000 H   0  0  0  0  0  0  0  0  0  0  0  0
   12.1542    3.2208    0.0000 H   0  0  0  0  0  0  0  0  0  0  0  0
   12.1542    0.2676    0.0000 H   0  0  0  0  0  0  0  0  0  0  0  0
   12.8445    0.6661    0.0000 H   0  0  0  0  0  0  0  0  0  0  0  0
    8.3695    1.4887    0.0000 H   0  0  0  0  0  0  0  0  0  0  0  0
    7.6793    1.0902    0.0000 H   0  0  0  0  0  0  0  0  0  0  0  0
    7.6542   -0.5984    0.0000 H   0  0  0  0  0  0  0  0  0  0  0  0
    8.3445   -0.1999    0.0000 H   0  0  0  0  0  0  0  0  0  0  0  0
    6.8695    0.6227    0.0000 H   0  0  0  0  0  0  0  0  0  0  0  0
    6.1793    0.2242    0.0000 H   0  0  0  0  0  0  0  0  0  0  0  0
    6.1542   -1.4645    0.0000 H   0  0  0  0  0  0  0  0  0  0  0  0
    6.8445   -1.0659    0.0000 H   0  0  0  0  0  0  0  0  0  0  0  0
    2.8660   -2.4739    0.0000 H   0  0  0  0  0  0  0  0  0  0  0  0
    2.8660    0.7661    0.0000 H   0  0  0  0  0  0  0  0  0  0  0  0
    1.4631   -1.6639    0.0000 H   0  0  0  0  0  0  0  0  0  0  0  0
    1.4631   -0.0439    0.0000 H   0  0  0  0  0  0  0  0  0  0  0  0
   15.5719    3.1472    0.0000 H   0  0  0  0  0  0  0  0  0  0  0  0
   15.5719    0.3412    0.0000 H   0  0  0  0  0  0  0  0  0  0  0  0
   16.3819    1.7442    0.0000 H   0  0  0  0  0  0  0  0  0  0  0  0
  1  2  2  0  0  0  0
  1  3  2  0  0  0  0
  1  7  1  0  0  0  0
  1 20  1  0  0  0  0
  4 22  2  0  0  0  0
  5 10  1  0  0  0  0
  5 11  1  0  0  0  0
  5 12  1  0  0  0  0
  6 14  1  0  0  0  0
  6 15  1  0  0  0  0
  6 21  1  0  0  0  0
  7 19  1  0  0  0  0
  7 22  1  0  0  0  0
  8 21  2  0  0  0  0
  8 28  1  0  0  0  0
  9 21  1  0  0  0  0
  9 29  2  0  0  0  0
 10 13  1  0  0  0  0
 10 31  1  0  0  0  0
 10 32  1  0  0  0  0
 11 14  1  0  0  0  0
 11 33  1  0  0  0  0
 11 34  1  0  0  0  0
 12 15  1  0  0  0  0
 12 35  1  0  0  0  0
 12 36  1  0  0  0  0
 13 16  1  0  0  0  0
 13 37  1  0  0  0  0
 13 38  1  0  0  0  0
 14 39  1  0  0  0  0
 14 40  1  0  0  0  0
 15 41  1  0  0  0  0
 15 42  1  0  0  0  0
 16 17  1  0  0  0  0
 16 43  1  0  0  0  0
 16 44  1  0  0  0  0
 17 18  1  0  0  0  0
 17 45  1  0  0  0  0
 17 46  1  0  0  0  0
 18 19  1  0  0  0  0
 18 47  1  0  0  0  0
 18 48  1  0  0  0  0
 19 49  1  0  0  0  0
 19 50  1  0  0  0  0
 20 23  1  0  0  0  0
 20 24  2  0  0  0  0
 22 23  1  0  0  0  0
 23 25  2  0  0  0  0
 24 26  1  0  0  0  0
 24 51  1  0  0  0  0
 25 27  1  0  0  0  0
 25 52  1  0  0  0  0
 26 27  2  0  0  0  0
 26 53  1  0  0  0  0
 27 54  1  0  0  0  0
 28 30  2  0  0  0  0
 28 55  1  0  0  0  0
 29 30  1  0  0  0  0
 29 56  1  0  0  0  0
 30 57  1  0  0  0  0
M  END
> <PUBCHEM_COMPOUND_CID>
155534575

> <PUBCHEM_COMPOUND_CANONICALIZED>
1

> <PUBCHEM_CACTVS_COMPLEXITY>
669

> <PUBCHEM_CACTVS_HBOND_ACCEPTOR>
7

> <PUBCHEM_CACTVS_HBOND_DONOR>
0

> <PUBCHEM_CACTVS_ROTATABLE_BOND>
8

> <PUBCHEM_CACTVS_SUBSKEYS>
AAADceB7sABAAAAAAAAAAAAAAAAAAWAAAAA8WIAAAAAAAFgBwAAAHgQAQAAADADB2gQ9kZcIEAKoAjF3dHDCgDk1AqAJ2Dk4ZNiIaLLA3VGUJQhohgLIiacYiACOAAAAAAAEAAAAAAAAAAgAAAAAAAAAAA==

> <PUBCHEM_IUPAC_OPENEYE_NAME>
1,1-dioxo-2-[6-(4-pyrimidin-2-ylpiperazin-1-yl)hexyl]-1,2-benzothiazol-3-one

> <PUBCHEM_IUPAC_CAS_NAME>
1,1-dioxo-2-[6-[4-(2-pyrimidinyl)-1-piperazinyl]hexyl]-1,2-benzothiazol-3-one

> <PUBCHEM_IUPAC_NAME_MARKUP>
1,1-dioxo-2-[6-(4-pyrimidin-2-ylpiperazin-1-yl)hexyl]-1,2-benzothiazol-3-one

> <PUBCHEM_IUPAC_NAME>
1,1-dioxo-2-[6-(4-pyrimidin-2-ylpiperazin-1-yl)hexyl]-1,2-benzothiazol-3-one

> <PUBCHEM_IUPAC_SYSTEMATIC_NAME>
1,1-bis(oxidanylidene)-2-[6-(4-pyrimidin-2-ylpiperazin-1-yl)hexyl]-1,2-benzothiazol-3-one

> <PUBCHEM_IUPAC_TRADITIONAL_NAME>
1,1-diketo-2-[6-[4-(2-pyrimidyl)piperazino]hexyl]-1,2-benzothiazol-3-one

> <PUBCHEM_IUPAC_INCHI>
InChI=1S/C21H27N5O3S/c27-20-18-8-3-4-9-19(18)30(28,29)26(20)13-6-2-1-5-12-24-14-16-25(17-15-24)21-22-10-7-11-23-21/h3-4,7-11H,1-2,5-6,12-17H2

> <PUBCHEM_IUPAC_INCHIKEY>
OUHWYWVRNFHIJL-UHFFFAOYSA-N

> <PUBCHEM_XLOGP3_AA>
2.3

> <PUBCHEM_EXACT_MASS>
429.18346091

> <PUBCHEM_MOLECULAR_FORMULA>
C21H27N5O3S

> <PUBCHEM_MOLECULAR_WEIGHT>
429.5

> <PUBCHEM_OPENEYE_CAN_SMILES>
C1CN(CCN1CCCCCCN2C(=O)C3=CC=CC=C3S2(=O)=O)C4=NC=CC=N4

> <PUBCHEM_OPENEYE_ISO_SMILES>
C1CN(CCN1CCCCCCN2C(=O)C3=CC=CC=C3S2(=O)=O)C4=NC=CC=N4

> <PUBCHEM_CACTVS_TPSA>
95.1

> <PUBCHEM_MONOISOTOPIC_WEIGHT>
429.18346091

> <PUBCHEM_TOTAL_CHARGE>
0

> <PUBCHEM_HEAVY_ATOM_COUNT>
30

> <PUBCHEM_ATOM_DEF_STEREO_COUNT>
0

> <PUBCHEM_ATOM_UDEF_STEREO_COUNT>
0

> <PUBCHEM_BOND_DEF_STEREO_COUNT>
0

> <PUBCHEM_BOND_UDEF_STEREO_COUNT>
0

> <PUBCHEM_ISOTOPIC_ATOM_COUNT>
0

> <PUBCHEM_COMPONENT_COUNT>
1

> <PUBCHEM_CACTVS_TAUTO_COUNT>
-1

> <PUBCHEM_COORDINATE_TYPE>
1
5
255

> <PUBCHEM_BONDANNOTATIONS>
20  23  8
20  24  8
23  25  8
24  26  8
25  27  8
26  27  8
28  30  8
29  30  8
8  21  8
8  28  8
9  21  8
9  29  8

$$$$
