24900426
  -OEChem-09292322042D

 65 68  0     1  0  0  0  0  0999 V2000
   15.0706   -1.5403    0.0000 S   0  0  0  0  0  0  0  0  0  0  0  0
   14.1244    0.1550    0.0000 O   0  0  0  0  0  0  0  0  0  0  0  0
   13.2583   -4.3450    0.0000 O   0  0  0  0  0  0  0  0  0  0  0  0
   16.6542   -2.3450    0.0000 O   0  0  0  0  0  0  0  0  0  0  0  0
   12.3923    1.1550    0.0000 N   0  0  0  0  0  0  0  0  0  0  0  0
    7.1962    3.1550    0.0000 N   0  0  0  0  0  0  0  0  0  0  0  0
   15.0706   -3.1497    0.0000 N   0  0  0  0  0  0  0  0  0  0  0  0
   13.2583   -0.3450    0.0000 C   0  0  1  0  0  0  0  0  0  0  0  0
   12.3923    0.1550    0.0000 C   0  0  0  0  0  0  0  0  0  0  0  0
   11.5263    1.6550    0.0000 C   0  0  0  0  0  0  0  0  0  0  0  0
   13.2583   -1.3450    0.0000 C   0  0  0  0  0  0  0  0  0  0  0  0
   11.5263    2.6550    0.0000 C   0  0  0  0  0  0  0  0  0  0  0  0
   10.6603    3.1550    0.0000 C   0  0  0  0  0  0  0  0  0  0  0  0
   14.1244   -1.8450    0.0000 C   0  0  0  0  0  0  0  0  0  0  0  0
    8.9282    3.1550    0.0000 C   0  0  0  0  0  0  0  0  0  0  0  0
    8.0622    2.6550    0.0000 C   0  0  0  0  0  0  0  0  0  0  0  0
    5.4641    3.1550    0.0000 C   0  0  0  0  0  0  0  0  0  0  0  0
    6.3301    2.6550    0.0000 C   0  0  0  0  0  0  0  0  0  0  0  0
    9.7942    2.6550    0.0000 C   0  0  0  0  0  0  0  0  0  0  0  0
   14.1244   -2.8450    0.0000 C   0  0  0  0  0  0  0  0  0  0  0  0
   12.3923   -1.8450    0.0000 C   0  0  0  0  0  0  0  0  0  0  0  0
    4.5981    2.6550    0.0000 C   0  0  0  0  0  0  0  0  0  0  0  0
   10.6603    4.1550    0.0000 C   0  0  0  0  0  0  0  0  0  0  0  0
   13.2583   -3.3450    0.0000 C   0  0  0  0  0  0  0  0  0  0  0  0
    8.9282    4.1550    0.0000 C   0  0  0  0  0  0  0  0  0  0  0  0
   12.3923   -2.8450    0.0000 C   0  0  0  0  0  0  0  0  0  0  0  0
    9.7942    4.6550    0.0000 C   0  0  0  0  0  0  0  0  0  0  0  0
    3.7320    3.1550    0.0000 C   0  0  0  0  0  0  0  0  0  0  0  0
   15.6542   -2.3450    0.0000 C   0  0  0  0  0  0  0  0  0  0  0  0
    2.8660    2.6550    0.0000 C   0  0  0  0  0  0  0  0  0  0  0  0
    3.7320    4.1550    0.0000 C   0  0  0  0  0  0  0  0  0  0  0  0
    2.0000    3.1550    0.0000 C   0  0  0  0  0  0  0  0  0  0  0  0
    2.8660    4.6550    0.0000 C   0  0  0  0  0  0  0  0  0  0  0  0
    2.0000    4.1550    0.0000 C   0  0  0  0  0  0  0  0  0  0  0  0
   13.7953   -0.6550    0.0000 H   0  0  0  0  0  0  0  0  0  0  0  0
   11.7817    0.2627    0.0000 H   0  0  0  0  0  0  0  0  0  0  0  0
   12.1803   -0.4276    0.0000 H   0  0  0  0  0  0  0  0  0  0  0  0
   10.9157    1.7627    0.0000 H   0  0  0  0  0  0  0  0  0  0  0  0
   11.3142    1.0724    0.0000 H   0  0  0  0  0  0  0  0  0  0  0  0
   12.1369    2.5473    0.0000 H   0  0  0  0  0  0  0  0  0  0  0  0
   11.7383    3.2376    0.0000 H   0  0  0  0  0  0  0  0  0  0  0  0
   12.9292    1.4650    0.0000 H   0  0  0  0  0  0  0  0  0  0  0  0
    7.6636    2.1800    0.0000 H   0  0  0  0  0  0  0  0  0  0  0  0
    8.4607    2.1800    0.0000 H   0  0  0  0  0  0  0  0  0  0  0  0
    5.8626    3.6300    0.0000 H   0  0  0  0  0  0  0  0  0  0  0  0
    5.0656    3.6300    0.0000 H   0  0  0  0  0  0  0  0  0  0  0  0
    5.9316    2.1800    0.0000 H   0  0  0  0  0  0  0  0  0  0  0  0
    6.7287    2.1800    0.0000 H   0  0  0  0  0  0  0  0  0  0  0  0
    9.7942    2.0350    0.0000 H   0  0  0  0  0  0  0  0  0  0  0  0
    4.1996    2.1800    0.0000 H   0  0  0  0  0  0  0  0  0  0  0  0
    4.9966    2.1800    0.0000 H   0  0  0  0  0  0  0  0  0  0  0  0
   11.8554   -1.5350    0.0000 H   0  0  0  0  0  0  0  0  0  0  0  0
    7.1962    3.7750    0.0000 H   0  0  0  0  0  0  0  0  0  0  0  0
   11.1972    4.4650    0.0000 H   0  0  0  0  0  0  0  0  0  0  0  0
    8.3913    4.4650    0.0000 H   0  0  0  0  0  0  0  0  0  0  0  0
   11.8554   -3.1550    0.0000 H   0  0  0  0  0  0  0  0  0  0  0  0
    9.7942    5.2750    0.0000 H   0  0  0  0  0  0  0  0  0  0  0  0
   15.2632   -3.7390    0.0000 H   0  0  0  0  0  0  0  0  0  0  0  0
   14.1244    0.7750    0.0000 H   0  0  0  0  0  0  0  0  0  0  0  0
    2.8660    2.0350    0.0000 H   0  0  0  0  0  0  0  0  0  0  0  0
    4.2690    4.4650    0.0000 H   0  0  0  0  0  0  0  0  0  0  0  0
   12.7214   -4.6550    0.0000 H   0  0  0  0  0  0  0  0  0  0  0  0
    1.4631    2.8450    0.0000 H   0  0  0  0  0  0  0  0  0  0  0  0
    2.8660    5.2750    0.0000 H   0  0  0  0  0  0  0  0  0  0  0  0
    1.4631    4.4650    0.0000 H   0  0  0  0  0  0  0  0  0  0  0  0
  1 14  1  0  0  0  0
  1 29  1  0  0  0  0
  8  2  1  6  0  0  0
  2 59  1  0  0  0  0
  3 24  1  0  0  0  0
  3 62  1  0  0  0  0
  4 29  2  0  0  0  0
  5  9  1  0  0  0  0
  5 10  1  0  0  0  0
  5 42  1  0  0  0  0
  6 16  1  0  0  0  0
  6 18  1  0  0  0  0
  6 53  1  0  0  0  0
  7 20  1  0  0  0  0
  7 29  1  0  0  0  0
  7 58  1  0  0  0  0
  8  9  1  0  0  0  0
  8 11  1  0  0  0  0
  8 35  1  0  0  0  0
  9 36  1  0  0  0  0
  9 37  1  0  0  0  0
 10 12  1  0  0  0  0
 10 38  1  0  0  0  0
 10 39  1  0  0  0  0
 11 14  2  0  0  0  0
 11 21  1  0  0  0  0
 12 13  1  0  0  0  0
 12 40  1  0  0  0  0
 12 41  1  0  0  0  0
 13 19  2  0  0  0  0
 13 23  1  0  0  0  0
 14 20  1  0  0  0  0
 15 16  1  0  0  0  0
 15 19  1  0  0  0  0
 15 25  2  0  0  0  0
 16 43  1  0  0  0  0
 16 44  1  0  0  0  0
 17 18  1  0  0  0  0
 17 22  1  0  0  0  0
 17 45  1  0  0  0  0
 17 46  1  0  0  0  0
 18 47  1  0  0  0  0
 18 48  1  0  0  0  0
 19 49  1  0  0  0  0
 20 24  2  0  0  0  0
 21 26  2  0  0  0  0
 21 52  1  0  0  0  0
 22 28  1  0  0  0  0
 22 50  1  0  0  0  0
 22 51  1  0  0  0  0
 23 27  2  0  0  0  0
 23 54  1  0  0  0  0
 24 26  1  0  0  0  0
 25 27  1  0  0  0  0
 25 55  1  0  0  0  0
 26 56  1  0  0  0  0
 27 57  1  0  0  0  0
 28 30  2  0  0  0  0
 28 31  1  0  0  0  0
 30 32  1  0  0  0  0
 30 60  1  0  0  0  0
 31 33  2  0  0  0  0
 31 61  1  0  0  0  0
 32 34  2  0  0  0  0
 32 63  1  0  0  0  0
 33 34  1  0  0  0  0
 33 64  1  0  0  0  0
 34 65  1  0  0  0  0
M  END
> <PUBCHEM_COMPOUND_CID>
24900426

> <PUBCHEM_COMPOUND_CANONICALIZED>
1

> <PUBCHEM_CACTVS_COMPLEXITY>
618

> <PUBCHEM_CACTVS_HBOND_ACCEPTOR>
6

> <PUBCHEM_CACTVS_HBOND_DONOR>
5

> <PUBCHEM_CACTVS_ROTATABLE_BOND>
12

> <PUBCHEM_CACTVS_SUBSKEYS>
AAADceB7MABAAAAAAAAAAAAAAAAAAWAAAAAwYMAAAAAAAFgBUAAAHgQQCAAADBzh2AYwx4LAAgiIAiRCUACCAABhKBAIiJQPTIgKNiLykZOEcAhk1BHY2Aew4OQOIAACRAAEEQBAAASIAAgiAAAAAAAAAA==

> <PUBCHEM_IUPAC_OPENEYE_NAME>
4-hydroxy-7-[(1R)-1-hydroxy-2-[2-[3-[(3-phenylpropylamino)methyl]phenyl]ethylamino]ethyl]-3H-1,3-benzothiazol-2-one

> <PUBCHEM_IUPAC_CAS_NAME>
4-hydroxy-7-[(1R)-1-hydroxy-2-[2-[3-[(3-phenylpropylamino)methyl]phenyl]ethylamino]ethyl]-3H-1,3-benzothiazol-2-one

> <PUBCHEM_IUPAC_NAME_MARKUP>
4-hydroxy-7-[(1<I>R</I>)-1-hydroxy-2-[2-[3-[(3-phenylpropylamino)methyl]phenyl]ethylamino]ethyl]-3<I>H</I>-1,3-benzothiazol-2-one

> <PUBCHEM_IUPAC_NAME>
4-hydroxy-7-[(1R)-1-hydroxy-2-[2-[3-[(3-phenylpropylamino)methyl]phenyl]ethylamino]ethyl]-3H-1,3-benzothiazol-2-one

> <PUBCHEM_IUPAC_SYSTEMATIC_NAME>
4-oxidanyl-7-[(1R)-1-oxidanyl-2-[2-[3-[(3-phenylpropylamino)methyl]phenyl]ethylamino]ethyl]-3H-1,3-benzothiazol-2-one

> <PUBCHEM_IUPAC_TRADITIONAL_NAME>
4-hydroxy-7-[(1R)-1-hydroxy-2-[2-[3-[(3-phenylpropylamino)methyl]phenyl]ethylamino]ethyl]-3H-1,3-benzothiazol-2-one

> <PUBCHEM_IUPAC_INCHI>
InChI=1S/C27H31N3O3S/c31-23-12-11-22(26-25(23)30-27(33)34-26)24(32)18-29-15-13-20-8-4-9-21(16-20)17-28-14-5-10-19-6-2-1-3-7-19/h1-4,6-9,11-12,16,24,28-29,31-32H,5,10,13-15,17-18H2,(H,30,33)/t24-/m0/s1

> <PUBCHEM_IUPAC_INCHIKEY>
GVJALQHQZPOADA-DEOSSOPVSA-N

> <PUBCHEM_XLOGP3_AA>
3.7

> <PUBCHEM_EXACT_MASS>
477.20861303

> <PUBCHEM_MOLECULAR_FORMULA>
C27H31N3O3S

> <PUBCHEM_MOLECULAR_WEIGHT>
477.6

> <PUBCHEM_OPENEYE_CAN_SMILES>
C1=CC=C(C=C1)CCCNCC2=CC=CC(=C2)CCNCC(C3=C4C(=C(C=C3)O)NC(=O)S4)O

> <PUBCHEM_OPENEYE_ISO_SMILES>
C1=CC=C(C=C1)CCCNCC2=CC=CC(=C2)CCNC[C@@H](C3=C4C(=C(C=C3)O)NC(=O)S4)O

> <PUBCHEM_CACTVS_TPSA>
119

> <PUBCHEM_MONOISOTOPIC_WEIGHT>
477.20861303

> <PUBCHEM_TOTAL_CHARGE>
0

> <PUBCHEM_HEAVY_ATOM_COUNT>
34

> <PUBCHEM_ATOM_DEF_STEREO_COUNT>
1

> <PUBCHEM_ATOM_UDEF_STEREO_COUNT>
0

> <PUBCHEM_BOND_DEF_STEREO_COUNT>
0

> <PUBCHEM_BOND_UDEF_STEREO_COUNT>
0

> <PUBCHEM_ISOTOPIC_ATOM_COUNT>
0

> <PUBCHEM_COMPONENT_COUNT>
1

> <PUBCHEM_CACTVS_TAUTO_COUNT>
-1

> <PUBCHEM_COORDINATE_TYPE>
1
5
255

> <PUBCHEM_BONDANNOTATIONS>
1  14  8
1  29  8
11  14  8
11  21  8
13  19  8
13  23  8
14  20  8
15  19  8
15  25  8
8  2  6
20  24  8
21  26  8
23  27  8
24  26  8
25  27  8
28  30  8
28  31  8
30  32  8
31  33  8
32  34  8
33  34  8
7  20  8
7  29  8

$$$$
