42618197
  -OEChem-09292322082D

 50 52  0     0  0  0  0  0  0999 V2000
    8.3673    0.8107    0.0000 Cl  0  0  0  0  0  0  0  0  0  0  0  0
    5.6960    3.7879    0.0000 F   0  0  0  0  0  0  0  0  0  0  0  0
    7.6530    4.2003    0.0000 O   0  0  0  0  0  0  0  0  0  0  0  0
    4.5981   -2.4065    0.0000 N   0  0  0  0  0  0  0  0  0  0  0  0
    5.4641   -0.9065    0.0000 N   0  0  0  0  0  0  0  0  0  0  0  0
    6.4103   -1.2112    0.0000 N   0  0  0  0  0  0  0  0  0  0  0  0
    3.7320   -0.9065    0.0000 N   0  0  0  0  0  0  0  0  0  0  0  0
    4.5981    0.5935    0.0000 N   0  0  0  0  0  0  0  0  0  0  0  0
    3.7320   -2.9065    0.0000 C   0  0  0  0  0  0  0  0  0  0  0  0
    3.7320   -3.9065    0.0000 C   0  0  0  0  0  0  0  0  0  0  0  0
    2.8660   -2.4065    0.0000 C   0  0  0  0  0  0  0  0  0  0  0  0
    4.5981   -1.4065    0.0000 C   0  0  0  0  0  0  0  0  0  0  0  0
    5.4641    0.0935    0.0000 C   0  0  0  0  0  0  0  0  0  0  0  0
    6.4103    0.3982    0.0000 C   0  0  0  0  0  0  0  0  0  0  0  0
    2.8660   -4.4065    0.0000 C   0  0  0  0  0  0  0  0  0  0  0  0
    2.0000   -2.9065    0.0000 C   0  0  0  0  0  0  0  0  0  0  0  0
    6.9939   -0.4065    0.0000 C   0  0  0  0  0  0  0  0  0  0  0  0
    6.7210    1.3487    0.0000 C   0  0  0  0  0  0  0  0  0  0  0  0
    3.7320    0.0935    0.0000 C   0  0  0  0  0  0  0  0  0  0  0  0
    7.9939   -0.4065    0.0000 C   0  0  0  0  0  0  0  0  0  0  0  0
    7.6995    1.5550    0.0000 C   0  0  0  0  0  0  0  0  0  0  0  0
    6.0531    2.0930    0.0000 C   0  0  0  0  0  0  0  0  0  0  0  0
    2.8660    0.5935    0.0000 C   0  0  0  0  0  0  0  0  0  0  0  0
    8.0102    2.5055    0.0000 C   0  0  0  0  0  0  0  0  0  0  0  0
    6.3638    3.0436    0.0000 C   0  0  0  0  0  0  0  0  0  0  0  0
    7.3423    3.2498    0.0000 C   0  0  0  0  0  0  0  0  0  0  0  0
    8.6315    4.4065    0.0000 C   0  0  0  0  0  0  0  0  0  0  0  0
    3.7320   -2.2865    0.0000 H   0  0  0  0  0  0  0  0  0  0  0  0
    3.9441   -4.4891    0.0000 H   0  0  0  0  0  0  0  0  0  0  0  0
    4.3426   -3.7988    0.0000 H   0  0  0  0  0  0  0  0  0  0  0  0
    3.2646   -1.9316    0.0000 H   0  0  0  0  0  0  0  0  0  0  0  0
    2.4675   -1.9316    0.0000 H   0  0  0  0  0  0  0  0  0  0  0  0
    5.1350   -2.7165    0.0000 H   0  0  0  0  0  0  0  0  0  0  0  0
    2.5560   -3.8696    0.0000 H   0  0  0  0  0  0  0  0  0  0  0  0
    2.3291   -4.7165    0.0000 H   0  0  0  0  0  0  0  0  0  0  0  0
    3.1760   -4.9434    0.0000 H   0  0  0  0  0  0  0  0  0  0  0  0
    1.6900   -2.3696    0.0000 H   0  0  0  0  0  0  0  0  0  0  0  0
    1.4631   -3.2165    0.0000 H   0  0  0  0  0  0  0  0  0  0  0  0
    2.3100   -3.4434    0.0000 H   0  0  0  0  0  0  0  0  0  0  0  0
    7.9939   -1.0265    0.0000 H   0  0  0  0  0  0  0  0  0  0  0  0
    8.6139   -0.4065    0.0000 H   0  0  0  0  0  0  0  0  0  0  0  0
    7.9939    0.2135    0.0000 H   0  0  0  0  0  0  0  0  0  0  0  0
    5.4465    1.9652    0.0000 H   0  0  0  0  0  0  0  0  0  0  0  0
    3.1760    1.1304    0.0000 H   0  0  0  0  0  0  0  0  0  0  0  0
    2.3291    0.9035    0.0000 H   0  0  0  0  0  0  0  0  0  0  0  0
    2.5560    0.0565    0.0000 H   0  0  0  0  0  0  0  0  0  0  0  0
    8.6168    2.6333    0.0000 H   0  0  0  0  0  0  0  0  0  0  0  0
    8.7593    3.7998    0.0000 H   0  0  0  0  0  0  0  0  0  0  0  0
    9.2381    4.5344    0.0000 H   0  0  0  0  0  0  0  0  0  0  0  0
    8.5036    5.0132    0.0000 H   0  0  0  0  0  0  0  0  0  0  0  0
  1 21  1  0  0  0  0
  2 25  1  0  0  0  0
  3 26  1  0  0  0  0
  3 27  1  0  0  0  0
  4  9  1  0  0  0  0
  4 12  1  0  0  0  0
  4 33  1  0  0  0  0
  5  6  1  0  0  0  0
  5 12  1  0  0  0  0
  5 13  1  0  0  0  0
  6 17  2  0  0  0  0
  7 12  2  0  0  0  0
  7 19  1  0  0  0  0
  8 13  1  0  0  0  0
  8 19  2  0  0  0  0
  9 10  1  0  0  0  0
  9 11  1  0  0  0  0
  9 28  1  0  0  0  0
 10 15  1  0  0  0  0
 10 29  1  0  0  0  0
 10 30  1  0  0  0  0
 11 16  1  0  0  0  0
 11 31  1  0  0  0  0
 11 32  1  0  0  0  0
 13 14  2  0  0  0  0
 14 17  1  0  0  0  0
 14 18  1  0  0  0  0
 15 34  1  0  0  0  0
 15 35  1  0  0  0  0
 15 36  1  0  0  0  0
 16 37  1  0  0  0  0
 16 38  1  0  0  0  0
 16 39  1  0  0  0  0
 17 20  1  0  0  0  0
 18 21  1  0  0  0  0
 18 22  2  0  0  0  0
 19 23  1  0  0  0  0
 20 40  1  0  0  0  0
 20 41  1  0  0  0  0
 20 42  1  0  0  0  0
 21 24  2  0  0  0  0
 22 25  1  0  0  0  0
 22 43  1  0  0  0  0
 23 44  1  0  0  0  0
 23 45  1  0  0  0  0
 23 46  1  0  0  0  0
 24 26  1  0  0  0  0
 24 47  1  0  0  0  0
 25 26  2  0  0  0  0
 27 48  1  0  0  0  0
 27 49  1  0  0  0  0
 27 50  1  0  0  0  0
M  END
> <PUBCHEM_COMPOUND_CID>
42618197

> <PUBCHEM_COMPOUND_CANONICALIZED>
1

> <PUBCHEM_CACTVS_COMPLEXITY>
485

> <PUBCHEM_CACTVS_HBOND_ACCEPTOR>
6

> <PUBCHEM_CACTVS_HBOND_DONOR>
1

> <PUBCHEM_CACTVS_ROTATABLE_BOND>
6

> <PUBCHEM_CACTVS_SUBSKEYS>
AAADceB7oQAEAAAAAAAAAAAAAAAAAWAAAAA8QAAAAAAAAFgB8AAAHwIYAAAADC7Bny4ztp7IFACiAyZiZACSjCshJaAVmKA+TpiMLiLF+tuEtCh82BPI6CeQwPAOoAAAAQABAABAAAACAAIAAAAAAAAAAA==

> <PUBCHEM_IUPAC_OPENEYE_NAME>
8-(2-chloro-5-fluoro-4-methoxy-phenyl)-N-(1-ethylpropyl)-2,7-dimethyl-pyrazolo[1,5-a][1,3,5]triazin-4-amine

> <PUBCHEM_IUPAC_CAS_NAME>
8-(2-chloro-5-fluoro-4-methoxyphenyl)-2,7-dimethyl-N-pentan-3-yl-4-pyrazolo[1,5-a][1,3,5]triazinamine

> <PUBCHEM_IUPAC_NAME_MARKUP>
8-(2-chloro-5-fluoro-4-methoxyphenyl)-2,7-dimethyl-<I>N</I>-pentan-3-ylpyrazolo[1,5-a][1,3,5]triazin-4-amine

> <PUBCHEM_IUPAC_NAME>
8-(2-chloro-5-fluoro-4-methoxyphenyl)-2,7-dimethyl-N-pentan-3-ylpyrazolo[1,5-a][1,3,5]triazin-4-amine

> <PUBCHEM_IUPAC_SYSTEMATIC_NAME>
8-(2-chloranyl-5-fluoranyl-4-methoxy-phenyl)-2,7-dimethyl-N-pentan-3-yl-pyrazolo[1,5-a][1,3,5]triazin-4-amine

> <PUBCHEM_IUPAC_TRADITIONAL_NAME>
[8-(2-chloro-5-fluoro-4-methoxy-phenyl)-2,7-dimethyl-pyrazolo[1,5-a][1,3,5]triazin-4-yl]-(1-ethylpropyl)amine

> <PUBCHEM_IUPAC_INCHI>
InChI=1S/C19H23ClFN5O/c1-6-12(7-2)24-19-23-11(4)22-18-17(10(3)25-26(18)19)13-8-15(21)16(27-5)9-14(13)20/h8-9,12H,6-7H2,1-5H3,(H,22,23,24)

> <PUBCHEM_IUPAC_INCHIKEY>
MHRACNFYWWSGFM-UHFFFAOYSA-N

> <PUBCHEM_XLOGP3_AA>
5.4

> <PUBCHEM_EXACT_MASS>
391.1575162

> <PUBCHEM_MOLECULAR_FORMULA>
C19H23ClFN5O

> <PUBCHEM_MOLECULAR_WEIGHT>
391.9

> <PUBCHEM_OPENEYE_CAN_SMILES>
CCC(CC)NC1=NC(=NC2=C(C(=NN21)C)C3=CC(=C(C=C3Cl)OC)F)C

> <PUBCHEM_OPENEYE_ISO_SMILES>
CCC(CC)NC1=NC(=NC2=C(C(=NN21)C)C3=CC(=C(C=C3Cl)OC)F)C

> <PUBCHEM_CACTVS_TPSA>
64.3

> <PUBCHEM_MONOISOTOPIC_WEIGHT>
391.1575162

> <PUBCHEM_TOTAL_CHARGE>
0

> <PUBCHEM_HEAVY_ATOM_COUNT>
27

> <PUBCHEM_ATOM_DEF_STEREO_COUNT>
0

> <PUBCHEM_ATOM_UDEF_STEREO_COUNT>
0

> <PUBCHEM_BOND_DEF_STEREO_COUNT>
0

> <PUBCHEM_BOND_UDEF_STEREO_COUNT>
0

> <PUBCHEM_ISOTOPIC_ATOM_COUNT>
0

> <PUBCHEM_COMPONENT_COUNT>
1

> <PUBCHEM_CACTVS_TAUTO_COUNT>
-1

> <PUBCHEM_COORDINATE_TYPE>
1
5
255

> <PUBCHEM_BONDANNOTATIONS>
13  14  8
14  17  8
18  21  8
18  22  8
21  24  8
22  25  8
24  26  8
25  26  8
5  12  8
5  13  8
5  6  8
6  17  8
7  12  8
7  19  8
8  13  8
8  19  8

$$$$
