10617366
  -OEChem-09292322142D

 51 54  0     1  0  0  0  0  0999 V2000
    4.6701   -1.2852    0.0000 N   0  0  3  0  0  0  0  0  0  0  0  0
    5.4791    2.3026    0.0000 N   0  0  0  0  0  0  0  0  0  0  0  0
    5.1701    3.2536    0.0000 N   0  0  0  0  0  0  0  0  0  0  0  0
    3.8041   -0.7852    0.0000 C   0  0  0  0  0  0  0  0  0  0  0  0
    3.8041    0.2148    0.0000 C   0  0  0  0  0  0  0  0  0  0  0  0
    5.5361   -0.7852    0.0000 C   0  0  0  0  0  0  0  0  0  0  0  0
    4.6701    0.7148    0.0000 C   0  0  0  0  0  0  0  0  0  0  0  0
    4.6701   -2.2852    0.0000 C   0  0  0  0  0  0  0  0  0  0  0  0
    5.5361    0.2148    0.0000 C   0  0  0  0  0  0  0  0  0  0  0  0
    4.6701    1.7148    0.0000 C   0  0  0  0  0  0  0  0  0  0  0  0
    5.5361   -2.7852    0.0000 C   0  0  0  0  0  0  0  0  0  0  0  0
    3.8611    2.3026    0.0000 C   0  0  0  0  0  0  0  0  0  0  0  0
    5.5361   -3.7852    0.0000 C   0  0  0  0  0  0  0  0  0  0  0  0
    4.1701    3.2536    0.0000 C   0  0  0  0  0  0  0  0  0  0  0  0
    2.9100    1.9936    0.0000 C   0  0  0  0  0  0  0  0  0  0  0  0
    3.5823    4.0626    0.0000 C   0  0  0  0  0  0  0  0  0  0  0  0
    4.6701   -4.2852    0.0000 C   0  0  0  0  0  0  0  0  0  0  0  0
    6.4021   -4.2852    0.0000 C   0  0  0  0  0  0  0  0  0  0  0  0
    3.9890    4.9762    0.0000 C   0  0  0  0  0  0  0  0  0  0  0  0
    2.5878    3.9581    0.0000 C   0  0  0  0  0  0  0  0  0  0  0  0
    4.6701   -5.2852    0.0000 C   0  0  0  0  0  0  0  0  0  0  0  0
    6.4021   -5.2852    0.0000 C   0  0  0  0  0  0  0  0  0  0  0  0
    5.5361   -5.7852    0.0000 C   0  0  0  0  0  0  0  0  0  0  0  0
    3.4013    5.7852    0.0000 C   0  0  0  0  0  0  0  0  0  0  0  0
    2.0000    4.7671    0.0000 C   0  0  0  0  0  0  0  0  0  0  0  0
    2.4067    5.6807    0.0000 C   0  0  0  0  0  0  0  0  0  0  0  0
    3.1935   -0.6775    0.0000 H   0  0  0  0  0  0  0  0  0  0  0  0
    3.5920   -1.3678    0.0000 H   0  0  0  0  0  0  0  0  0  0  0  0
    3.5920    0.7974    0.0000 H   0  0  0  0  0  0  0  0  0  0  0  0
    3.1935    0.1071    0.0000 H   0  0  0  0  0  0  0  0  0  0  0  0
    5.7482   -1.3678    0.0000 H   0  0  0  0  0  0  0  0  0  0  0  0
    6.1467   -0.6775    0.0000 H   0  0  0  0  0  0  0  0  0  0  0  0
    4.0595   -2.1776    0.0000 H   0  0  0  0  0  0  0  0  0  0  0  0
    4.4580   -2.8678    0.0000 H   0  0  0  0  0  0  0  0  0  0  0  0
    6.0730    0.5248    0.0000 H   0  0  0  0  0  0  0  0  0  0  0  0
    6.1467   -2.8929    0.0000 H   0  0  0  0  0  0  0  0  0  0  0  0
    5.7482   -2.2026    0.0000 H   0  0  0  0  0  0  0  0  0  0  0  0
    6.0688    2.1110    0.0000 H   0  0  0  0  0  0  0  0  0  0  0  0
    2.7184    2.5832    0.0000 H   0  0  0  0  0  0  0  0  0  0  0  0
    2.3204    1.8020    0.0000 H   0  0  0  0  0  0  0  0  0  0  0  0
    3.1016    1.4039    0.0000 H   0  0  0  0  0  0  0  0  0  0  0  0
    4.1332   -3.9752    0.0000 H   0  0  0  0  0  0  0  0  0  0  0  0
    6.9391   -3.9752    0.0000 H   0  0  0  0  0  0  0  0  0  0  0  0
    4.6056    5.0410    0.0000 H   0  0  0  0  0  0  0  0  0  0  0  0
    2.3356    3.3917    0.0000 H   0  0  0  0  0  0  0  0  0  0  0  0
    4.1332   -5.5952    0.0000 H   0  0  0  0  0  0  0  0  0  0  0  0
    6.9391   -5.5952    0.0000 H   0  0  0  0  0  0  0  0  0  0  0  0
    5.5361   -6.4052    0.0000 H   0  0  0  0  0  0  0  0  0  0  0  0
    3.6534    6.3516    0.0000 H   0  0  0  0  0  0  0  0  0  0  0  0
    1.3834    4.7023    0.0000 H   0  0  0  0  0  0  0  0  0  0  0  0
    2.0423    6.1823    0.0000 H   0  0  0  0  0  0  0  0  0  0  0  0
  1  4  1  0  0  0  0
  1  6  1  0  0  0  0
  1  8  1  0  0  0  0
  2  3  1  0  0  0  0
  2 10  1  0  0  0  0
  2 38  1  0  0  0  0
  3 14  2  0  0  0  0
  4  5  1  0  0  0  0
  4 27  1  0  0  0  0
  4 28  1  0  0  0  0
  5  7  1  0  0  0  0
  5 29  1  0  0  0  0
  5 30  1  0  0  0  0
  6  9  1  0  0  0  0
  6 31  1  0  0  0  0
  6 32  1  0  0  0  0
  7  9  2  0  0  0  0
  7 10  1  0  0  0  0
  8 11  1  0  0  0  0
  8 33  1  0  0  0  0
  8 34  1  0  0  0  0
  9 35  1  0  0  0  0
 10 12  2  0  0  0  0
 11 13  1  0  0  0  0
 11 36  1  0  0  0  0
 11 37  1  0  0  0  0
 12 14  1  0  0  0  0
 12 15  1  0  0  0  0
 13 17  2  0  0  0  0
 13 18  1  0  0  0  0
 14 16  1  0  0  0  0
 15 39  1  0  0  0  0
 15 40  1  0  0  0  0
 15 41  1  0  0  0  0
 16 19  2  0  0  0  0
 16 20  1  0  0  0  0
 17 21  1  0  0  0  0
 17 42  1  0  0  0  0
 18 22  2  0  0  0  0
 18 43  1  0  0  0  0
 19 24  1  0  0  0  0
 19 44  1  0  0  0  0
 20 25  2  0  0  0  0
 20 45  1  0  0  0  0
 21 23  2  0  0  0  0
 21 46  1  0  0  0  0
 22 23  1  0  0  0  0
 22 47  1  0  0  0  0
 23 48  1  0  0  0  0
 24 26  2  0  0  0  0
 24 49  1  0  0  0  0
 25 26  1  0  0  0  0
 25 50  1  0  0  0  0
 26 51  1  0  0  0  0
M  END
> <PUBCHEM_COMPOUND_CID>
10617366

> <PUBCHEM_COMPOUND_CANONICALIZED>
1

> <PUBCHEM_CACTVS_COMPLEXITY>
462

> <PUBCHEM_CACTVS_HBOND_ACCEPTOR>
2

> <PUBCHEM_CACTVS_HBOND_DONOR>
1

> <PUBCHEM_CACTVS_ROTATABLE_BOND>
5

> <PUBCHEM_CACTVS_SUBSKEYS>
AAADceB7AAAAAAAAAAAAAAAAAAAAAWAAAAAwYIAAAAAAAAAB0AAAHAAYAAAADAjBHgQygJNjAACiAyRiQACSBAAgAAAYuSAoRJgIIKKA0dGEpABgiACIyAcQgMAOAAAAAAAAAAAAAAAAAAAAAAAAAAAAAA==

> <PUBCHEM_IUPAC_OPENEYE_NAME>
4-(4-methyl-3-phenyl-1H-pyrazol-5-yl)-1-(2-phenylethyl)-3,6-dihydro-2H-pyridine

> <PUBCHEM_IUPAC_CAS_NAME>
4-(4-methyl-3-phenyl-1H-pyrazol-5-yl)-1-(2-phenylethyl)-3,6-dihydro-2H-pyridine

> <PUBCHEM_IUPAC_NAME_MARKUP>
4-(4-methyl-3-phenyl-1<I>H</I>-pyrazol-5-yl)-1-(2-phenylethyl)-3,6-dihydro-2<I>H</I>-pyridine

> <PUBCHEM_IUPAC_NAME>
4-(4-methyl-3-phenyl-1H-pyrazol-5-yl)-1-(2-phenylethyl)-3,6-dihydro-2H-pyridine

> <PUBCHEM_IUPAC_SYSTEMATIC_NAME>
4-(4-methyl-3-phenyl-1H-pyrazol-5-yl)-1-(2-phenylethyl)-3,6-dihydro-2H-pyridine

> <PUBCHEM_IUPAC_TRADITIONAL_NAME>
4-(4-methyl-3-phenyl-1H-pyrazol-5-yl)-1-phenethyl-3,6-dihydro-2H-pyridine

> <PUBCHEM_IUPAC_INCHI>
InChI=1S/C23H25N3/c1-18-22(20-10-6-3-7-11-20)24-25-23(18)21-13-16-26(17-14-21)15-12-19-8-4-2-5-9-19/h2-11,13H,12,14-17H2,1H3,(H,24,25)

> <PUBCHEM_IUPAC_INCHIKEY>
YYWRRBMZAGSBNZ-UHFFFAOYSA-N

> <PUBCHEM_XLOGP3_AA>
4.4

> <PUBCHEM_EXACT_MASS>
343.204847810

> <PUBCHEM_MOLECULAR_FORMULA>
C23H25N3

> <PUBCHEM_MOLECULAR_WEIGHT>
343.5

> <PUBCHEM_OPENEYE_CAN_SMILES>
CC1=C(NN=C1C2=CC=CC=C2)C3=CCN(CC3)CCC4=CC=CC=C4

> <PUBCHEM_OPENEYE_ISO_SMILES>
CC1=C(NN=C1C2=CC=CC=C2)C3=CCN(CC3)CCC4=CC=CC=C4

> <PUBCHEM_CACTVS_TPSA>
31.9

> <PUBCHEM_MONOISOTOPIC_WEIGHT>
343.204847810

> <PUBCHEM_TOTAL_CHARGE>
0

> <PUBCHEM_HEAVY_ATOM_COUNT>
26

> <PUBCHEM_ATOM_DEF_STEREO_COUNT>
0

> <PUBCHEM_ATOM_UDEF_STEREO_COUNT>
0

> <PUBCHEM_BOND_DEF_STEREO_COUNT>
0

> <PUBCHEM_BOND_UDEF_STEREO_COUNT>
0

> <PUBCHEM_ISOTOPIC_ATOM_COUNT>
0

> <PUBCHEM_COMPONENT_COUNT>
1

> <PUBCHEM_CACTVS_TAUTO_COUNT>
-1

> <PUBCHEM_COORDINATE_TYPE>
1
5
255

> <PUBCHEM_BONDANNOTATIONS>
10  12  8
12  14  8
13  17  8
13  18  8
16  19  8
16  20  8
17  21  8
18  22  8
19  24  8
2  10  8
2  3  8
20  25  8
21  23  8
22  23  8
24  26  8
25  26  8
3  14  8

$$$$
