137655799
  -OEChem-09292322472D

 66 70  0     1  0  0  0  0  0999 V2000
    4.6701    1.6174    0.0000 S   0  0  0  0  0  0  0  0  0  0  0  0
    8.1092   -5.8218    0.0000 O   0  0  0  0  0  0  0  0  0  0  0  0
    7.1092   -4.0897    0.0000 N   0  0  3  0  0  0  0  0  0  0  0  0
    6.4021   -1.3826    0.0000 N   0  0  0  0  0  0  0  0  0  0  0  0
    3.8611    3.2052    0.0000 N   0  0  0  0  0  0  0  0  0  0  0  0
    5.4791    3.2052    0.0000 N   0  0  0  0  0  0  0  0  0  0  0  0
    5.1701    4.1562    0.0000 N   0  0  0  0  0  0  0  0  0  0  0  0
    6.4021   -3.3826    0.0000 C   0  0  0  0  0  0  0  0  0  0  0  0
    5.6950   -4.0897    0.0000 C   0  0  0  0  0  0  0  0  0  0  0  0
    7.2682   -2.8826    0.0000 C   0  0  0  0  0  0  0  0  0  0  0  0
    5.5361   -2.8826    0.0000 C   0  0  0  0  0  0  0  0  0  0  0  0
    6.4021   -4.7968    0.0000 C   0  0  0  0  0  0  0  0  0  0  0  0
    7.2682   -1.8826    0.0000 C   0  0  0  0  0  0  0  0  0  0  0  0
    5.5361   -1.8826    0.0000 C   0  0  0  0  0  0  0  0  0  0  0  0
    8.1092   -4.0897    0.0000 C   0  0  0  0  0  0  0  0  0  0  0  0
    6.4021   -0.3826    0.0000 C   0  0  0  0  0  0  0  0  0  0  0  0
    8.6092   -4.9558    0.0000 C   0  0  0  0  0  0  0  0  0  0  0  0
    8.6092   -3.2237    0.0000 C   0  0  0  0  0  0  0  0  0  0  0  0
    5.5361    0.1174    0.0000 C   0  0  0  0  0  0  0  0  0  0  0  0
    9.6092   -4.9558    0.0000 C   0  0  0  0  0  0  0  0  0  0  0  0
    9.6092   -3.2237    0.0000 C   0  0  0  0  0  0  0  0  0  0  0  0
    5.5361    1.1174    0.0000 C   0  0  0  0  0  0  0  0  0  0  0  0
   10.1093   -4.0897    0.0000 C   0  0  0  0  0  0  0  0  0  0  0  0
    8.6092   -6.6878    0.0000 C   0  0  0  0  0  0  0  0  0  0  0  0
    4.6701    2.6174    0.0000 C   0  0  0  0  0  0  0  0  0  0  0  0
    4.1701    4.1562    0.0000 C   0  0  0  0  0  0  0  0  0  0  0  0
    2.9100    2.8962    0.0000 C   0  0  0  0  0  0  0  0  0  0  0  0
    3.5823    4.9652    0.0000 C   0  0  0  0  0  0  0  0  0  0  0  0
    2.5878    4.8607    0.0000 C   0  0  0  0  0  0  0  0  0  0  0  0
    3.9890    5.8788    0.0000 C   0  0  0  0  0  0  0  0  0  0  0  0
    2.0000    5.6697    0.0000 C   0  0  0  0  0  0  0  0  0  0  0  0
    3.4013    6.6878    0.0000 C   0  0  0  0  0  0  0  0  0  0  0  0
    2.4067    6.5833    0.0000 C   0  0  0  0  0  0  0  0  0  0  0  0
    5.2566   -3.6513    0.0000 H   0  0  0  0  0  0  0  0  0  0  0  0
    5.2566   -4.5281    0.0000 H   0  0  0  0  0  0  0  0  0  0  0  0
    7.4802   -3.4652    0.0000 H   0  0  0  0  0  0  0  0  0  0  0  0
    7.8788   -2.7750    0.0000 H   0  0  0  0  0  0  0  0  0  0  0  0
    4.9255   -2.7750    0.0000 H   0  0  0  0  0  0  0  0  0  0  0  0
    5.3241   -3.4652    0.0000 H   0  0  0  0  0  0  0  0  0  0  0  0
    5.9637   -5.2352    0.0000 H   0  0  0  0  0  0  0  0  0  0  0  0
    6.8406   -5.2352    0.0000 H   0  0  0  0  0  0  0  0  0  0  0  0
    7.8788   -1.9903    0.0000 H   0  0  0  0  0  0  0  0  0  0  0  0
    7.4802   -1.3000    0.0000 H   0  0  0  0  0  0  0  0  0  0  0  0
    5.3241   -1.3000    0.0000 H   0  0  0  0  0  0  0  0  0  0  0  0
    4.9255   -1.9903    0.0000 H   0  0  0  0  0  0  0  0  0  0  0  0
    7.0127   -0.4903    0.0000 H   0  0  0  0  0  0  0  0  0  0  0  0
    6.6142    0.2000    0.0000 H   0  0  0  0  0  0  0  0  0  0  0  0
    8.2992   -2.6868    0.0000 H   0  0  0  0  0  0  0  0  0  0  0  0
    4.9255    0.2250    0.0000 H   0  0  0  0  0  0  0  0  0  0  0  0
    5.3241   -0.4652    0.0000 H   0  0  0  0  0  0  0  0  0  0  0  0
    9.9192   -5.4927    0.0000 H   0  0  0  0  0  0  0  0  0  0  0  0
    9.9192   -2.6868    0.0000 H   0  0  0  0  0  0  0  0  0  0  0  0
    6.1467    1.0097    0.0000 H   0  0  0  0  0  0  0  0  0  0  0  0
    5.7482    1.7000    0.0000 H   0  0  0  0  0  0  0  0  0  0  0  0
   10.7292   -4.0897    0.0000 H   0  0  0  0  0  0  0  0  0  0  0  0
    8.0723   -6.9978    0.0000 H   0  0  0  0  0  0  0  0  0  0  0  0
    8.9192   -7.2247    0.0000 H   0  0  0  0  0  0  0  0  0  0  0  0
    9.1462   -6.3778    0.0000 H   0  0  0  0  0  0  0  0  0  0  0  0
    2.7184    3.4858    0.0000 H   0  0  0  0  0  0  0  0  0  0  0  0
    2.3204    2.7046    0.0000 H   0  0  0  0  0  0  0  0  0  0  0  0
    3.1016    2.3065    0.0000 H   0  0  0  0  0  0  0  0  0  0  0  0
    2.3356    4.2943    0.0000 H   0  0  0  0  0  0  0  0  0  0  0  0
    4.6056    5.9436    0.0000 H   0  0  0  0  0  0  0  0  0  0  0  0
    1.3834    5.6049    0.0000 H   0  0  0  0  0  0  0  0  0  0  0  0
    3.6534    7.2542    0.0000 H   0  0  0  0  0  0  0  0  0  0  0  0
    2.0423    7.0849    0.0000 H   0  0  0  0  0  0  0  0  0  0  0  0
  1 22  1  0  0  0  0
  1 25  1  0  0  0  0
  2 17  1  0  0  0  0
  2 24  1  0  0  0  0
  3  8  1  0  0  0  0
  3 12  1  0  0  0  0
  3 15  1  0  0  0  0
  4 13  1  0  0  0  0
  4 14  1  0  0  0  0
  4 16  1  0  0  0  0
  5 25  1  0  0  0  0
  5 26  1  0  0  0  0
  5 27  1  0  0  0  0
  6  7  1  0  0  0  0
  6 25  2  0  0  0  0
  7 26  2  0  0  0  0
  8  9  1  0  0  0  0
  8 10  1  0  0  0  0
  8 11  1  0  0  0  0
  9 12  1  0  0  0  0
  9 34  1  0  0  0  0
  9 35  1  0  0  0  0
 10 13  1  0  0  0  0
 10 36  1  0  0  0  0
 10 37  1  0  0  0  0
 11 14  1  0  0  0  0
 11 38  1  0  0  0  0
 11 39  1  0  0  0  0
 12 40  1  0  0  0  0
 12 41  1  0  0  0  0
 13 42  1  0  0  0  0
 13 43  1  0  0  0  0
 14 44  1  0  0  0  0
 14 45  1  0  0  0  0
 15 17  1  0  0  0  0
 15 18  2  0  0  0  0
 16 19  1  0  0  0  0
 16 46  1  0  0  0  0
 16 47  1  0  0  0  0
 17 20  2  0  0  0  0
 18 21  1  0  0  0  0
 18 48  1  0  0  0  0
 19 22  1  0  0  0  0
 19 49  1  0  0  0  0
 19 50  1  0  0  0  0
 20 23  1  0  0  0  0
 20 51  1  0  0  0  0
 21 23  2  0  0  0  0
 21 52  1  0  0  0  0
 22 53  1  0  0  0  0
 22 54  1  0  0  0  0
 23 55  1  0  0  0  0
 24 56  1  0  0  0  0
 24 57  1  0  0  0  0
 24 58  1  0  0  0  0
 26 28  1  0  0  0  0
 27 59  1  0  0  0  0
 27 60  1  0  0  0  0
 27 61  1  0  0  0  0
 28 29  2  0  0  0  0
 28 30  1  0  0  0  0
 29 31  1  0  0  0  0
 29 62  1  0  0  0  0
 30 32  2  0  0  0  0
 30 63  1  0  0  0  0
 31 33  2  0  0  0  0
 31 64  1  0  0  0  0
 32 33  1  0  0  0  0
 32 65  1  0  0  0  0
 33 66  1  0  0  0  0
M  END
> <PUBCHEM_COMPOUND_CID>
137655799

> <PUBCHEM_COMPOUND_CANONICALIZED>
1

> <PUBCHEM_CACTVS_COMPLEXITY>
610

> <PUBCHEM_CACTVS_HBOND_ACCEPTOR>
6

> <PUBCHEM_CACTVS_HBOND_DONOR>
0

> <PUBCHEM_CACTVS_ROTATABLE_BOND>
8

> <PUBCHEM_CACTVS_SUBSKEYS>
AAADcfB7oABAAAAAAAAAAAAAAABYAWAAAAA8YIAAAAAAAAAB0AAAHgQIAAAADIzF2waz1ocMFAiiAiZiZACS2AthIrAdyCAvbJiOLqLk+ZuFMChkyBPY6AeQwAAOAAAAAAAAEAAAAAAAAAAgAAAAAAAAAA==

> <PUBCHEM_IUPAC_OPENEYE_NAME>
1-(2-methoxyphenyl)-7-[3-[(4-methyl-5-phenyl-1,2,4-triazol-3-yl)sulfanyl]propyl]-1,7-diazaspiro[3.5]nonane

> <PUBCHEM_IUPAC_CAS_NAME>
1-(2-methoxyphenyl)-7-[3-[(4-methyl-5-phenyl-1,2,4-triazol-3-yl)thio]propyl]-1,7-diazaspiro[3.5]nonane

> <PUBCHEM_IUPAC_NAME_MARKUP>
1-(2-methoxyphenyl)-7-[3-[(4-methyl-5-phenyl-1,2,4-triazol-3-yl)sulfanyl]propyl]-1,7-diazaspiro[3.5]nonane

> <PUBCHEM_IUPAC_NAME>
1-(2-methoxyphenyl)-7-[3-[(4-methyl-5-phenyl-1,2,4-triazol-3-yl)sulfanyl]propyl]-1,7-diazaspiro[3.5]nonane

> <PUBCHEM_IUPAC_SYSTEMATIC_NAME>
1-(2-methoxyphenyl)-7-[3-[(4-methyl-5-phenyl-1,2,4-triazol-3-yl)sulfanyl]propyl]-1,7-diazaspiro[3.5]nonane

> <PUBCHEM_IUPAC_TRADITIONAL_NAME>
1-(2-methoxyphenyl)-7-[3-[(4-methyl-5-phenyl-1,2,4-triazol-3-yl)thio]propyl]-1,7-diazaspiro[3.5]nonane

> <PUBCHEM_IUPAC_INCHI>
InChI=1S/C26H33N5OS/c1-29-24(21-9-4-3-5-10-21)27-28-25(29)33-20-8-16-30-17-13-26(14-18-30)15-19-31(26)22-11-6-7-12-23(22)32-2/h3-7,9-12H,8,13-20H2,1-2H3

> <PUBCHEM_IUPAC_INCHIKEY>
DEFGNQZVXMMHQJ-UHFFFAOYSA-N

> <PUBCHEM_XLOGP3_AA>
4.6

> <PUBCHEM_EXACT_MASS>
463.24058187

> <PUBCHEM_MOLECULAR_FORMULA>
C26H33N5OS

> <PUBCHEM_MOLECULAR_WEIGHT>
463.6

> <PUBCHEM_OPENEYE_CAN_SMILES>
CN1C(=NN=C1SCCCN2CCC3(CC2)CCN3C4=CC=CC=C4OC)C5=CC=CC=C5

> <PUBCHEM_OPENEYE_ISO_SMILES>
CN1C(=NN=C1SCCCN2CCC3(CC2)CCN3C4=CC=CC=C4OC)C5=CC=CC=C5

> <PUBCHEM_CACTVS_TPSA>
71.7

> <PUBCHEM_MONOISOTOPIC_WEIGHT>
463.24058187

> <PUBCHEM_TOTAL_CHARGE>
0

> <PUBCHEM_HEAVY_ATOM_COUNT>
33

> <PUBCHEM_ATOM_DEF_STEREO_COUNT>
0

> <PUBCHEM_ATOM_UDEF_STEREO_COUNT>
0

> <PUBCHEM_BOND_DEF_STEREO_COUNT>
0

> <PUBCHEM_BOND_UDEF_STEREO_COUNT>
0

> <PUBCHEM_ISOTOPIC_ATOM_COUNT>
0

> <PUBCHEM_COMPONENT_COUNT>
1

> <PUBCHEM_CACTVS_TAUTO_COUNT>
-1

> <PUBCHEM_COORDINATE_TYPE>
1
5
255

> <PUBCHEM_BONDANNOTATIONS>
15  17  8
15  18  8
17  20  8
18  21  8
20  23  8
21  23  8
28  29  8
28  30  8
29  31  8
30  32  8
31  33  8
32  33  8
5  25  8
5  26  8
6  25  8
6  7  8
7  26  8

$$$$
