145986176
  -OEChem-09292322002D

 62 64  0     1  0  0  0  0  0999 V2000
   15.5437   -2.6092    0.0000 O   0  0  0  0  0  0  0  0  0  0  0  0
    6.0010   -0.0746    0.0000 O   0  0  0  0  0  0  0  0  0  0  0  0
   12.0632    0.4254    0.0000 N   0  0  3  0  0  0  0  0  0  0  0  0
    6.8671   -1.5746    0.0000 N   0  0  0  0  0  0  0  0  0  0  0  0
   12.9292   -0.0746    0.0000 C   0  0  3  0  0  0  0  0  0  0  0  0
   12.9292   -1.0746    0.0000 C   0  0  0  0  0  0  0  0  0  0  0  0
   13.7953    0.4254    0.0000 C   0  0  0  0  0  0  0  0  0  0  0  0
   13.7953   -1.5746    0.0000 C   0  0  0  0  0  0  0  0  0  0  0  0
   14.6613   -0.0746    0.0000 C   0  0  0  0  0  0  0  0  0  0  0  0
   14.6613   -1.0746    0.0000 C   0  0  0  0  0  0  0  0  0  0  0  0
   11.1972   -0.0746    0.0000 C   0  0  0  0  0  0  0  0  0  0  0  0
   12.0632    1.4254    0.0000 C   0  0  0  0  0  0  0  0  0  0  0  0
   10.3312    0.4254    0.0000 C   0  0  0  0  0  0  0  0  0  0  0  0
   11.1972    1.9254    0.0000 C   0  0  0  0  0  0  0  0  0  0  0  0
   15.5552    0.4601    0.0000 C   0  0  0  0  0  0  0  0  0  0  0  0
   15.5552   -1.6093    0.0000 C   0  0  0  0  0  0  0  0  0  0  0  0
   16.4613   -0.0538    0.0000 C   0  0  0  0  0  0  0  0  0  0  0  0
   16.4613   -1.0954    0.0000 C   0  0  0  0  0  0  0  0  0  0  0  0
    9.4651   -0.0746    0.0000 C   0  0  0  0  0  0  0  0  0  0  0  0
   11.1972    2.9254    0.0000 C   0  0  0  0  0  0  0  0  0  0  0  0
    8.5991    0.4254    0.0000 C   0  0  0  0  0  0  0  0  0  0  0  0
    9.4651   -1.0746    0.0000 C   0  0  0  0  0  0  0  0  0  0  0  0
    7.7331   -0.0746    0.0000 C   0  0  0  0  0  0  0  0  0  0  0  0
    8.5991   -1.5746    0.0000 C   0  0  0  0  0  0  0  0  0  0  0  0
    7.7331   -1.0746    0.0000 C   0  0  0  0  0  0  0  0  0  0  0  0
    6.0010   -1.0746    0.0000 C   0  0  0  0  0  0  0  0  0  0  0  0
    5.1350   -1.5746    0.0000 C   0  0  0  0  0  0  0  0  0  0  0  0
    4.2690   -1.0746    0.0000 C   0  0  0  0  0  0  0  0  0  0  0  0
    3.4030   -1.5746    0.0000 C   0  0  0  0  0  0  0  0  0  0  0  0
    2.5369   -2.0746    0.0000 C   0  0  0  0  0  0  0  0  0  0  0  0
   12.3923   -0.3846    0.0000 H   0  0  0  0  0  0  0  0  0  0  0  0
   12.3187   -0.9669    0.0000 H   0  0  0  0  0  0  0  0  0  0  0  0
   12.7172   -1.6572    0.0000 H   0  0  0  0  0  0  0  0  0  0  0  0
   14.1938    0.9003    0.0000 H   0  0  0  0  0  0  0  0  0  0  0  0
   13.3967    0.9003    0.0000 H   0  0  0  0  0  0  0  0  0  0  0  0
   13.3967   -2.0496    0.0000 H   0  0  0  0  0  0  0  0  0  0  0  0
   14.1938   -2.0496    0.0000 H   0  0  0  0  0  0  0  0  0  0  0  0
   10.7987   -0.5496    0.0000 H   0  0  0  0  0  0  0  0  0  0  0  0
   11.5957   -0.5496    0.0000 H   0  0  0  0  0  0  0  0  0  0  0  0
   12.6738    1.3177    0.0000 H   0  0  0  0  0  0  0  0  0  0  0  0
   12.2753    2.0080    0.0000 H   0  0  0  0  0  0  0  0  0  0  0  0
   10.7297    0.9003    0.0000 H   0  0  0  0  0  0  0  0  0  0  0  0
    9.9326    0.9003    0.0000 H   0  0  0  0  0  0  0  0  0  0  0  0
   10.5866    2.0330    0.0000 H   0  0  0  0  0  0  0  0  0  0  0  0
   10.9851    1.3428    0.0000 H   0  0  0  0  0  0  0  0  0  0  0  0
   15.5481    1.0800    0.0000 H   0  0  0  0  0  0  0  0  0  0  0  0
   16.9970    0.2583    0.0000 H   0  0  0  0  0  0  0  0  0  0  0  0
   16.9970   -1.4075    0.0000 H   0  0  0  0  0  0  0  0  0  0  0  0
   11.8172    2.9254    0.0000 H   0  0  0  0  0  0  0  0  0  0  0  0
   11.1972    3.5454    0.0000 H   0  0  0  0  0  0  0  0  0  0  0  0
   10.5772    2.9254    0.0000 H   0  0  0  0  0  0  0  0  0  0  0  0
   16.0770   -2.9254    0.0000 H   0  0  0  0  0  0  0  0  0  0  0  0
    8.5991    1.0454    0.0000 H   0  0  0  0  0  0  0  0  0  0  0  0
   10.0021   -1.3846    0.0000 H   0  0  0  0  0  0  0  0  0  0  0  0
    7.1962    0.2354    0.0000 H   0  0  0  0  0  0  0  0  0  0  0  0
    8.5991   -2.1946    0.0000 H   0  0  0  0  0  0  0  0  0  0  0  0
    6.8671   -2.1946    0.0000 H   0  0  0  0  0  0  0  0  0  0  0  0
    4.7365   -2.0496    0.0000 H   0  0  0  0  0  0  0  0  0  0  0  0
    5.5335   -2.0496    0.0000 H   0  0  0  0  0  0  0  0  0  0  0  0
    4.6675   -0.5997    0.0000 H   0  0  0  0  0  0  0  0  0  0  0  0
    3.8705   -0.5997    0.0000 H   0  0  0  0  0  0  0  0  0  0  0  0
    2.0000   -2.3846    0.0000 H   0  0  0  0  0  0  0  0  0  0  0  0
  1 16  1  0  0  0  0
  1 52  1  0  0  0  0
  2 26  2  0  0  0  0
  3  5  1  0  0  0  0
  3 11  1  0  0  0  0
  3 12  1  0  0  0  0
  4 25  1  0  0  0  0
  4 26  1  0  0  0  0
  4 57  1  0  0  0  0
  5  6  1  0  0  0  0
  5  7  1  0  0  0  0
  5 31  1  0  0  0  0
  6  8  1  0  0  0  0
  6 32  1  0  0  0  0
  6 33  1  0  0  0  0
  7  9  1  0  0  0  0
  7 34  1  0  0  0  0
  7 35  1  0  0  0  0
  8 10  1  0  0  0  0
  8 36  1  0  0  0  0
  8 37  1  0  0  0  0
  9 10  2  0  0  0  0
  9 15  1  0  0  0  0
 10 16  1  0  0  0  0
 11 13  1  0  0  0  0
 11 38  1  0  0  0  0
 11 39  1  0  0  0  0
 12 14  1  0  0  0  0
 12 40  1  0  0  0  0
 12 41  1  0  0  0  0
 13 19  1  0  0  0  0
 13 42  1  0  0  0  0
 13 43  1  0  0  0  0
 14 20  1  0  0  0  0
 14 44  1  0  0  0  0
 14 45  1  0  0  0  0
 15 17  2  0  0  0  0
 15 46  1  0  0  0  0
 16 18  2  0  0  0  0
 17 18  1  0  0  0  0
 17 47  1  0  0  0  0
 18 48  1  0  0  0  0
 19 21  2  0  0  0  0
 19 22  1  0  0  0  0
 20 49  1  0  0  0  0
 20 50  1  0  0  0  0
 20 51  1  0  0  0  0
 21 23  1  0  0  0  0
 21 53  1  0  0  0  0
 22 24  2  0  0  0  0
 22 54  1  0  0  0  0
 23 25  2  0  0  0  0
 23 55  1  0  0  0  0
 24 25  1  0  0  0  0
 24 56  1  0  0  0  0
 26 27  1  0  0  0  0
 27 28  1  0  0  0  0
 27 58  1  0  0  0  0
 27 59  1  0  0  0  0
 28 29  1  0  0  0  0
 28 60  1  0  0  0  0
 28 61  1  0  0  0  0
 29 30  3  0  0  0  0
 30 62  1  0  0  0  0
M  END
> <PUBCHEM_COMPOUND_CID>
145986176

> <PUBCHEM_COMPOUND_CANONICALIZED>
1

> <PUBCHEM_CACTVS_COMPLEXITY>
575

> <PUBCHEM_CACTVS_HBOND_ACCEPTOR>
3

> <PUBCHEM_CACTVS_HBOND_DONOR>
2

> <PUBCHEM_CACTVS_ROTATABLE_BOND>
9

> <PUBCHEM_CACTVS_SUBSKEYS>
AAADcfB7MAAAAAAAAAAAAAAAAAAAAAAAAAAwYMAAAAAAAADBQAAAHgAQCAAADCzBmAQyxoPAAgDIGiVSUAiCAAAhIgAIiAEObIgIJjLCkZOEcAhk1BHI2AeQ0LMOiAABAAAYAAAQAAKAADAAAAAAAAAAAA==

> <PUBCHEM_IUPAC_OPENEYE_NAME>
N-[4-[2-[(5-hydroxytetralin-2-yl)-propyl-amino]ethyl]phenyl]pent-4-ynamide

> <PUBCHEM_IUPAC_CAS_NAME>
N-[4-[2-[(5-hydroxy-1,2,3,4-tetrahydronaphthalen-2-yl)-propylamino]ethyl]phenyl]-4-pentynamide

> <PUBCHEM_IUPAC_NAME_MARKUP>
<I>N</I>-[4-[2-[(5-hydroxy-1,2,3,4-tetrahydronaphthalen-2-yl)-propylamino]ethyl]phenyl]pent-4-ynamide

> <PUBCHEM_IUPAC_NAME>
N-[4-[2-[(5-hydroxy-1,2,3,4-tetrahydronaphthalen-2-yl)-propylamino]ethyl]phenyl]pent-4-ynamide

> <PUBCHEM_IUPAC_SYSTEMATIC_NAME>
N-[4-[2-[(5-oxidanyl-1,2,3,4-tetrahydronaphthalen-2-yl)-propyl-amino]ethyl]phenyl]pent-4-ynamide

> <PUBCHEM_IUPAC_TRADITIONAL_NAME>
N-[4-[2-[(5-hydroxytetralin-2-yl)-propyl-amino]ethyl]phenyl]pent-4-ynamide

> <PUBCHEM_IUPAC_INCHI>
InChI=1S/C26H32N2O2/c1-3-5-9-26(30)27-22-12-10-20(11-13-22)16-18-28(17-4-2)23-14-15-24-21(19-23)7-6-8-25(24)29/h1,6-8,10-13,23,29H,4-5,9,14-19H2,2H3,(H,27,30)

> <PUBCHEM_IUPAC_INCHIKEY>
QLIGLWCIUGCMOC-UHFFFAOYSA-N

> <PUBCHEM_XLOGP3_AA>
4.9

> <PUBCHEM_EXACT_MASS>
404.246378268

> <PUBCHEM_MOLECULAR_FORMULA>
C26H32N2O2

> <PUBCHEM_MOLECULAR_WEIGHT>
404.5

> <PUBCHEM_OPENEYE_CAN_SMILES>
CCCN(CCC1=CC=C(C=C1)NC(=O)CCC#C)C2CCC3=C(C2)C=CC=C3O

> <PUBCHEM_OPENEYE_ISO_SMILES>
CCCN(CCC1=CC=C(C=C1)NC(=O)CCC#C)C2CCC3=C(C2)C=CC=C3O

> <PUBCHEM_CACTVS_TPSA>
52.6

> <PUBCHEM_MONOISOTOPIC_WEIGHT>
404.246378268

> <PUBCHEM_TOTAL_CHARGE>
0

> <PUBCHEM_HEAVY_ATOM_COUNT>
30

> <PUBCHEM_ATOM_DEF_STEREO_COUNT>
0

> <PUBCHEM_ATOM_UDEF_STEREO_COUNT>
1

> <PUBCHEM_BOND_DEF_STEREO_COUNT>
0

> <PUBCHEM_BOND_UDEF_STEREO_COUNT>
0

> <PUBCHEM_ISOTOPIC_ATOM_COUNT>
0

> <PUBCHEM_COMPONENT_COUNT>
1

> <PUBCHEM_CACTVS_TAUTO_COUNT>
-1

> <PUBCHEM_COORDINATE_TYPE>
1
5
255

> <PUBCHEM_BONDANNOTATIONS>
10  16  8
15  17  8
16  18  8
17  18  8
19  21  8
19  22  8
21  23  8
22  24  8
23  25  8
24  25  8
5  3  3
9  10  8
9  15  8

$$$$
