164608815
  -OEChem-09292322012D

 58 59  0     1  0  0  0  0  0999 V2000
   10.7078    2.5017    0.0000 S   0  0  0  0  0  0  0  0  0  0  0  0
    5.4641    0.5950    0.0000 O   0  0  0  0  0  0  0  0  0  0  0  0
    3.7320    0.5950    0.0000 N   0  0  0  0  0  0  0  0  0  0  0  0
    4.5981    2.0950    0.0000 N   0  0  0  0  0  0  0  0  0  0  0  0
    6.3301    2.0950    0.0000 N   0  0  0  0  0  0  0  0  0  0  0  0
    5.4641    3.5950    0.0000 N   0  0  0  0  0  0  0  0  0  0  0  0
   10.8769    0.8926    0.0000 N   0  0  0  0  0  0  0  0  0  0  0  0
   12.3714    1.8631    0.0000 N   0  0  0  0  0  0  0  0  0  0  0  0
    2.8660   -1.9050    0.0000 C   0  0  0  0  0  0  0  0  0  0  0  0
    2.0000   -2.4050    0.0000 C   0  0  0  0  0  0  0  0  0  0  0  0
    3.7320   -2.4050    0.0000 C   0  0  0  0  0  0  0  0  0  0  0  0
    2.8660   -0.9050    0.0000 C   0  0  3  0  0  0  0  0  0  0  0  0
    2.0000   -3.4050    0.0000 C   0  0  0  0  0  0  0  0  0  0  0  0
    3.7320   -3.4050    0.0000 C   0  0  0  0  0  0  0  0  0  0  0  0
    2.8660   -3.9050    0.0000 C   0  0  0  0  0  0  0  0  0  0  0  0
    3.7320   -0.4050    0.0000 C   0  0  0  0  0  0  0  0  0  0  0  0
    2.0000   -0.4050    0.0000 C   0  0  0  0  0  0  0  0  0  0  0  0
    4.5981    1.0950    0.0000 C   0  0  0  0  0  0  0  0  0  0  0  0
    5.4641    2.5950    0.0000 C   0  0  0  0  0  0  0  0  0  0  0  0
    8.0622    2.0950    0.0000 C   0  0  0  0  0  0  0  0  0  0  0  0
    8.9282    2.5950    0.0000 C   0  0  0  0  0  0  0  0  0  0  0  0
    7.1962    2.5950    0.0000 C   0  0  0  0  0  0  0  0  0  0  0  0
    9.7942    2.0950    0.0000 C   0  0  0  0  0  0  0  0  0  0  0  0
    9.8988    1.1005    0.0000 C   0  0  0  0  0  0  0  0  0  0  0  0
    9.1556    0.4313    0.0000 C   0  0  0  0  0  0  0  0  0  0  0  0
   11.3769    1.7586    0.0000 C   0  0  0  0  0  0  0  0  0  0  0  0
    3.4030   -1.5950    0.0000 H   0  0  0  0  0  0  0  0  0  0  0  0
    1.7880   -1.8224    0.0000 H   0  0  0  0  0  0  0  0  0  0  0  0
    1.3894   -2.5127    0.0000 H   0  0  0  0  0  0  0  0  0  0  0  0
    4.3426   -2.5127    0.0000 H   0  0  0  0  0  0  0  0  0  0  0  0
    3.9441   -1.8224    0.0000 H   0  0  0  0  0  0  0  0  0  0  0  0
    2.8660   -0.2850    0.0000 H   0  0  0  0  0  0  0  0  0  0  0  0
    1.3894   -3.2973    0.0000 H   0  0  0  0  0  0  0  0  0  0  0  0
    1.7880   -3.9876    0.0000 H   0  0  0  0  0  0  0  0  0  0  0  0
    3.9441   -3.9876    0.0000 H   0  0  0  0  0  0  0  0  0  0  0  0
    4.3426   -3.2973    0.0000 H   0  0  0  0  0  0  0  0  0  0  0  0
    2.4675   -4.3800    0.0000 H   0  0  0  0  0  0  0  0  0  0  0  0
    3.2646   -4.3800    0.0000 H   0  0  0  0  0  0  0  0  0  0  0  0
    3.9441   -0.9876    0.0000 H   0  0  0  0  0  0  0  0  0  0  0  0
    4.3426   -0.2973    0.0000 H   0  0  0  0  0  0  0  0  0  0  0  0
    2.3100    0.1319    0.0000 H   0  0  0  0  0  0  0  0  0  0  0  0
    1.4631   -0.0950    0.0000 H   0  0  0  0  0  0  0  0  0  0  0  0
    1.6900   -0.9419    0.0000 H   0  0  0  0  0  0  0  0  0  0  0  0
    3.1951    0.9050    0.0000 H   0  0  0  0  0  0  0  0  0  0  0  0
    4.0611    2.4050    0.0000 H   0  0  0  0  0  0  0  0  0  0  0  0
    7.6636    1.6200    0.0000 H   0  0  0  0  0  0  0  0  0  0  0  0
    8.4607    1.6200    0.0000 H   0  0  0  0  0  0  0  0  0  0  0  0
    9.3267    3.0700    0.0000 H   0  0  0  0  0  0  0  0  0  0  0  0
    8.5297    3.0700    0.0000 H   0  0  0  0  0  0  0  0  0  0  0  0
    7.5947    3.0700    0.0000 H   0  0  0  0  0  0  0  0  0  0  0  0
    6.7976    3.0700    0.0000 H   0  0  0  0  0  0  0  0  0  0  0  0
    6.0010    3.9050    0.0000 H   0  0  0  0  0  0  0  0  0  0  0  0
    4.9272    3.9050    0.0000 H   0  0  0  0  0  0  0  0  0  0  0  0
    8.7408    0.8921    0.0000 H   0  0  0  0  0  0  0  0  0  0  0  0
    8.6949    0.0165    0.0000 H   0  0  0  0  0  0  0  0  0  0  0  0
    9.5705   -0.0294    0.0000 H   0  0  0  0  0  0  0  0  0  0  0  0
   12.7359    1.3615    0.0000 H   0  0  0  0  0  0  0  0  0  0  0  0
   12.6236    2.4295    0.0000 H   0  0  0  0  0  0  0  0  0  0  0  0
  1 23  1  0  0  0  0
  1 26  1  0  0  0  0
  2 18  2  0  0  0  0
  3 16  1  0  0  0  0
  3 18  1  0  0  0  0
  3 44  1  0  0  0  0
  4 18  1  0  0  0  0
  4 19  1  0  0  0  0
  4 45  1  0  0  0  0
  5 19  2  0  0  0  0
  5 22  1  0  0  0  0
  6 19  1  0  0  0  0
  6 52  1  0  0  0  0
  6 53  1  0  0  0  0
  7 24  1  0  0  0  0
  7 26  2  0  0  0  0
  8 26  1  0  0  0  0
  8 57  1  0  0  0  0
  8 58  1  0  0  0  0
  9 10  1  0  0  0  0
  9 11  1  0  0  0  0
  9 12  1  0  0  0  0
  9 27  1  0  0  0  0
 10 13  1  0  0  0  0
 10 28  1  0  0  0  0
 10 29  1  0  0  0  0
 11 14  1  0  0  0  0
 11 30  1  0  0  0  0
 11 31  1  0  0  0  0
 12 16  1  0  0  0  0
 12 17  1  0  0  0  0
 12 32  1  0  0  0  0
 13 15  1  0  0  0  0
 13 33  1  0  0  0  0
 13 34  1  0  0  0  0
 14 15  1  0  0  0  0
 14 35  1  0  0  0  0
 14 36  1  0  0  0  0
 15 37  1  0  0  0  0
 15 38  1  0  0  0  0
 16 39  1  0  0  0  0
 16 40  1  0  0  0  0
 17 41  1  0  0  0  0
 17 42  1  0  0  0  0
 17 43  1  0  0  0  0
 20 21  1  0  0  0  0
 20 22  1  0  0  0  0
 20 46  1  0  0  0  0
 20 47  1  0  0  0  0
 21 23  1  0  0  0  0
 21 48  1  0  0  0  0
 21 49  1  0  0  0  0
 22 50  1  0  0  0  0
 22 51  1  0  0  0  0
 23 24  2  0  0  0  0
 24 25  1  0  0  0  0
 25 54  1  0  0  0  0
 25 55  1  0  0  0  0
 25 56  1  0  0  0  0
M  END
> <PUBCHEM_COMPOUND_CID>
164608815

> <PUBCHEM_COMPOUND_CANONICALIZED>
1

> <PUBCHEM_CACTVS_COMPLEXITY>
469

> <PUBCHEM_CACTVS_HBOND_ACCEPTOR>
5

> <PUBCHEM_CACTVS_HBOND_DONOR>
4

> <PUBCHEM_CACTVS_ROTATABLE_BOND>
8

> <PUBCHEM_CACTVS_SUBSKEYS>
AAADcfB7oABAAAAAAAAAAAAAAAAAAWAAAAAwAAAAAAAAAAABgAAAHgQQAAAADQjBVgQDkRLIEAisAQRgdAAA8KlhCDkBGJQ4QAiAIAJgkACEAAAolwJISCMQgMAOgAAAAAAAAAAAAAAAAAAAAAAAAAAAAA==

> <PUBCHEM_IUPAC_OPENEYE_NAME>
1-[N'-[3-(2-amino-4-methyl-thiazol-5-yl)propyl]carbamimidoyl]-3-(2-cyclohexylpropyl)urea

> <PUBCHEM_IUPAC_CAS_NAME>
1-[amino-[3-(2-amino-4-methyl-5-thiazolyl)propylimino]methyl]-3-(2-cyclohexylpropyl)urea

> <PUBCHEM_IUPAC_NAME_MARKUP>
1-[<I>N</I>&apos;-[3-(2-amino-4-methyl-1,3-thiazol-5-yl)propyl]carbamimidoyl]-3-(2-cyclohexylpropyl)urea

> <PUBCHEM_IUPAC_NAME>
1-[N'-[3-(2-amino-4-methyl-1,3-thiazol-5-yl)propyl]carbamimidoyl]-3-(2-cyclohexylpropyl)urea

> <PUBCHEM_IUPAC_SYSTEMATIC_NAME>
1-[N'-[3-(2-azanyl-4-methyl-1,3-thiazol-5-yl)propyl]carbamimidoyl]-3-(2-cyclohexylpropyl)urea

> <PUBCHEM_IUPAC_TRADITIONAL_NAME>
1-[N'-[3-(2-amino-4-methyl-thiazol-5-yl)propyl]amidino]-3-(2-cyclohexylpropyl)urea

> <PUBCHEM_IUPAC_INCHI>
InChI=1S/C18H32N6OS/c1-12(14-7-4-3-5-8-14)11-22-18(25)24-16(19)21-10-6-9-15-13(2)23-17(20)26-15/h12,14H,3-11H2,1-2H3,(H2,20,23)(H4,19,21,22,24,25)

> <PUBCHEM_IUPAC_INCHIKEY>
PMBDKZARCOUAFU-UHFFFAOYSA-N

> <PUBCHEM_XLOGP3_AA>
4.2

> <PUBCHEM_EXACT_MASS>
380.23583084

> <PUBCHEM_MOLECULAR_FORMULA>
C18H32N6OS

> <PUBCHEM_MOLECULAR_WEIGHT>
380.6

> <PUBCHEM_OPENEYE_CAN_SMILES>
CC1=C(SC(=N1)N)CCCN=C(N)NC(=O)NCC(C)C2CCCCC2

> <PUBCHEM_OPENEYE_ISO_SMILES>
CC1=C(SC(=N1)N)CCCN=C(N)NC(=O)NCC(C)C2CCCCC2

> <PUBCHEM_CACTVS_TPSA>
147

> <PUBCHEM_MONOISOTOPIC_WEIGHT>
380.23583084

> <PUBCHEM_TOTAL_CHARGE>
0

> <PUBCHEM_HEAVY_ATOM_COUNT>
26

> <PUBCHEM_ATOM_DEF_STEREO_COUNT>
0

> <PUBCHEM_ATOM_UDEF_STEREO_COUNT>
1

> <PUBCHEM_BOND_DEF_STEREO_COUNT>
0

> <PUBCHEM_BOND_UDEF_STEREO_COUNT>
0

> <PUBCHEM_ISOTOPIC_ATOM_COUNT>
0

> <PUBCHEM_COMPONENT_COUNT>
1

> <PUBCHEM_CACTVS_TAUTO_COUNT>
-1

> <PUBCHEM_COORDINATE_TYPE>
1
5
255

> <PUBCHEM_BONDANNOTATIONS>
1  23  8
1  26  8
12  17  3
23  24  8
7  24  8
7  26  8

$$$$
