11057472
  -OEChem-09292322112D

 46 49  0     0  0  0  0  0  0999 V2000
    2.9059    6.0346    0.0000 F   0  0  0  0  0  0  0  0  0  0  0  0
    2.9180   -3.0346    0.0000 F   0  0  0  0  0  0  0  0  0  0  0  0
    4.6501   -6.0346    0.0000 F   0  0  0  0  0  0  0  0  0  0  0  0
    2.9180    1.9654    0.0000 O   0  0  0  0  0  0  0  0  0  0  0  0
    3.7841   -0.5346    0.0000 N   0  0  0  0  0  0  0  0  0  0  0  0
    3.7841    1.4654    0.0000 C   0  0  0  0  0  0  0  0  0  0  0  0
    2.9180    0.9654    0.0000 C   0  0  0  0  0  0  0  0  0  0  0  0
    4.6501    0.9654    0.0000 C   0  0  0  0  0  0  0  0  0  0  0  0
    2.9180   -0.0346    0.0000 C   0  0  0  0  0  0  0  0  0  0  0  0
    4.6501   -0.0346    0.0000 C   0  0  0  0  0  0  0  0  0  0  0  0
    4.6501    1.9654    0.0000 C   0  0  0  0  0  0  0  0  0  0  0  0
    3.7841   -1.5346    0.0000 C   0  0  0  0  0  0  0  0  0  0  0  0
    4.6501   -2.0346    0.0000 C   0  0  0  0  0  0  0  0  0  0  0  0
    2.9180    2.9654    0.0000 C   0  0  0  0  0  0  0  0  0  0  0  0
    4.6501    2.9654    0.0000 C   0  0  0  0  0  0  0  0  0  0  0  0
    3.7841    3.4654    0.0000 C   0  0  0  0  0  0  0  0  0  0  0  0
    4.6501   -3.0346    0.0000 C   0  0  0  0  0  0  0  0  0  0  0  0
    2.0080    3.4722    0.0000 C   0  0  0  0  0  0  0  0  0  0  0  0
    3.8001    4.5069    0.0000 C   0  0  0  0  0  0  0  0  0  0  0  0
    2.0000    4.5138    0.0000 C   0  0  0  0  0  0  0  0  0  0  0  0
    2.9021    5.0346    0.0000 C   0  0  0  0  0  0  0  0  0  0  0  0
    3.7841   -3.5346    0.0000 C   0  0  0  0  0  0  0  0  0  0  0  0
    5.5161   -3.5346    0.0000 C   0  0  0  0  0  0  0  0  0  0  0  0
    3.7841   -4.5346    0.0000 C   0  0  0  0  0  0  0  0  0  0  0  0
    5.5161   -4.5346    0.0000 C   0  0  0  0  0  0  0  0  0  0  0  0
    4.6501   -5.0346    0.0000 C   0  0  0  0  0  0  0  0  0  0  0  0
    2.7060    1.5480    0.0000 H   0  0  0  0  0  0  0  0  0  0  0  0
    2.3074    0.8577    0.0000 H   0  0  0  0  0  0  0  0  0  0  0  0
    5.2607    0.8577    0.0000 H   0  0  0  0  0  0  0  0  0  0  0  0
    4.8621    1.5480    0.0000 H   0  0  0  0  0  0  0  0  0  0  0  0
    2.3074    0.0730    0.0000 H   0  0  0  0  0  0  0  0  0  0  0  0
    2.7060   -0.6172    0.0000 H   0  0  0  0  0  0  0  0  0  0  0  0
    4.8621   -0.6172    0.0000 H   0  0  0  0  0  0  0  0  0  0  0  0
    5.2607    0.0730    0.0000 H   0  0  0  0  0  0  0  0  0  0  0  0
    5.1870    1.6554    0.0000 H   0  0  0  0  0  0  0  0  0  0  0  0
    3.1735   -1.4270    0.0000 H   0  0  0  0  0  0  0  0  0  0  0  0
    3.5720   -2.1172    0.0000 H   0  0  0  0  0  0  0  0  0  0  0  0
    5.2607   -2.1423    0.0000 H   0  0  0  0  0  0  0  0  0  0  0  0
    4.8621   -1.4520    0.0000 H   0  0  0  0  0  0  0  0  0  0  0  0
    5.1870    3.2754    0.0000 H   0  0  0  0  0  0  0  0  0  0  0  0
    1.4747    3.1560    0.0000 H   0  0  0  0  0  0  0  0  0  0  0  0
    4.3406    4.8106    0.0000 H   0  0  0  0  0  0  0  0  0  0  0  0
    1.4619    4.8218    0.0000 H   0  0  0  0  0  0  0  0  0  0  0  0
    6.0530   -3.2246    0.0000 H   0  0  0  0  0  0  0  0  0  0  0  0
    3.2471   -4.8446    0.0000 H   0  0  0  0  0  0  0  0  0  0  0  0
    6.0530   -4.8446    0.0000 H   0  0  0  0  0  0  0  0  0  0  0  0
  1 21  1  0  0  0  0
  2 22  1  0  0  0  0
  3 26  1  0  0  0  0
  4  6  1  0  0  0  0
  4 14  1  0  0  0  0
  5  9  1  0  0  0  0
  5 10  1  0  0  0  0
  5 12  1  0  0  0  0
  6  7  1  0  0  0  0
  6  8  1  0  0  0  0
  6 11  1  0  0  0  0
  7  9  1  0  0  0  0
  7 27  1  0  0  0  0
  7 28  1  0  0  0  0
  8 10  1  0  0  0  0
  8 29  1  0  0  0  0
  8 30  1  0  0  0  0
  9 31  1  0  0  0  0
  9 32  1  0  0  0  0
 10 33  1  0  0  0  0
 10 34  1  0  0  0  0
 11 15  2  0  0  0  0
 11 35  1  0  0  0  0
 12 13  1  0  0  0  0
 12 36  1  0  0  0  0
 12 37  1  0  0  0  0
 13 17  1  0  0  0  0
 13 38  1  0  0  0  0
 13 39  1  0  0  0  0
 14 16  2  0  0  0  0
 14 18  1  0  0  0  0
 15 16  1  0  0  0  0
 15 40  1  0  0  0  0
 16 19  1  0  0  0  0
 17 22  2  0  0  0  0
 17 23  1  0  0  0  0
 18 20  2  0  0  0  0
 18 41  1  0  0  0  0
 19 21  2  0  0  0  0
 19 42  1  0  0  0  0
 20 21  1  0  0  0  0
 20 43  1  0  0  0  0
 22 24  1  0  0  0  0
 23 25  2  0  0  0  0
 23 44  1  0  0  0  0
 24 26  2  0  0  0  0
 24 45  1  0  0  0  0
 25 26  1  0  0  0  0
 25 46  1  0  0  0  0
M  END
> <PUBCHEM_COMPOUND_CID>
11057472

> <PUBCHEM_COMPOUND_CANONICALIZED>
1

> <PUBCHEM_CACTVS_COMPLEXITY>
506

> <PUBCHEM_CACTVS_HBOND_ACCEPTOR>
5

> <PUBCHEM_CACTVS_HBOND_DONOR>
0

> <PUBCHEM_CACTVS_ROTATABLE_BOND>
3

> <PUBCHEM_CACTVS_SUBSKEYS>
AAADceB6IYAAAAAAAAAAAAAAAAAAAAAAAAA8YIEAAAAAAACBQAAAHwAAAAAADETBmAwwBoMABACAAiBCAAACCAAgIAAIiAAOCIgMJiKEsRuGOCCmwBGIqAeQwKAOAAAAAAAIAAAAAAAAABAAAAAAAAAAAA==

> <PUBCHEM_IUPAC_OPENEYE_NAME>
1'-[2-(2,4-difluorophenyl)ethyl]-6-fluoro-spiro[chromene-2,4'-piperidine]

> <PUBCHEM_IUPAC_CAS_NAME>
1'-[2-(2,4-difluorophenyl)ethyl]-6-fluorospiro[1-benzopyran-2,4'-piperidine]

> <PUBCHEM_IUPAC_NAME_MARKUP>
1&apos;-[2-(2,4-difluorophenyl)ethyl]-6-fluorospiro[chromene-2,4&apos;-piperidine]

> <PUBCHEM_IUPAC_NAME>
1'-[2-(2,4-difluorophenyl)ethyl]-6-fluorospiro[chromene-2,4'-piperidine]

> <PUBCHEM_IUPAC_SYSTEMATIC_NAME>
1'-[2-[2,4-bis(fluoranyl)phenyl]ethyl]-6-fluoranyl-spiro[chromene-2,4'-piperidine]

> <PUBCHEM_IUPAC_TRADITIONAL_NAME>
1'-[2-(2,4-difluorophenyl)ethyl]-6-fluoro-spiro[chromene-2,4'-piperidine]

> <PUBCHEM_IUPAC_INCHI>
InChI=1S/C21H20F3NO/c22-17-3-4-20-16(13-17)5-7-21(26-20)8-11-25(12-9-21)10-6-15-1-2-18(23)14-19(15)24/h1-5,7,13-14H,6,8-12H2

> <PUBCHEM_IUPAC_INCHIKEY>
HTKIFNUUHOERMF-UHFFFAOYSA-N

> <PUBCHEM_XLOGP3_AA>
4.9

> <PUBCHEM_EXACT_MASS>
359.14969875

> <PUBCHEM_MOLECULAR_FORMULA>
C21H20F3NO

> <PUBCHEM_MOLECULAR_WEIGHT>
359.4

> <PUBCHEM_OPENEYE_CAN_SMILES>
C1CN(CCC12C=CC3=C(O2)C=CC(=C3)F)CCC4=C(C=C(C=C4)F)F

> <PUBCHEM_OPENEYE_ISO_SMILES>
C1CN(CCC12C=CC3=C(O2)C=CC(=C3)F)CCC4=C(C=C(C=C4)F)F

> <PUBCHEM_CACTVS_TPSA>
12.5

> <PUBCHEM_MONOISOTOPIC_WEIGHT>
359.14969875

> <PUBCHEM_TOTAL_CHARGE>
0

> <PUBCHEM_HEAVY_ATOM_COUNT>
26

> <PUBCHEM_ATOM_DEF_STEREO_COUNT>
0

> <PUBCHEM_ATOM_UDEF_STEREO_COUNT>
0

> <PUBCHEM_BOND_DEF_STEREO_COUNT>
0

> <PUBCHEM_BOND_UDEF_STEREO_COUNT>
0

> <PUBCHEM_ISOTOPIC_ATOM_COUNT>
0

> <PUBCHEM_COMPONENT_COUNT>
1

> <PUBCHEM_CACTVS_TAUTO_COUNT>
-1

> <PUBCHEM_COORDINATE_TYPE>
1
5
255

> <PUBCHEM_BONDANNOTATIONS>
14  16  8
14  18  8
16  19  8
17  22  8
17  23  8
18  20  8
19  21  8
20  21  8
22  24  8
23  25  8
24  26  8
25  26  8

$$$$
