145989183
  -OEChem-09292322062D

 65 70  0     1  0  0  0  0  0999 V2000
    9.5084   -6.0742    0.0000 S   0  0  0  0  0  0  0  0  0  0  0  0
    4.4859    2.5752    0.0000 O   0  0  0  0  0  0  0  0  0  0  0  0
    7.7241    3.0093    0.0000 O   0  0  0  0  0  0  0  0  0  0  0  0
    5.9640    2.7305    0.0000 N   0  0  0  0  0  0  0  0  0  0  0  0
    7.6961   -1.2695    0.0000 N   0  0  0  0  0  0  0  0  0  0  0  0
    7.6961   -3.2695    0.0000 N   0  0  0  0  0  0  0  0  0  0  0  0
    5.4640    4.2694    0.0000 C   0  0  3  0  0  0  0  0  0  0  0  0
    6.4640    4.2694    0.0000 C   0  0  3  0  0  0  0  0  0  0  0  0
    5.9640    5.1359    0.0000 C   0  0  0  0  0  0  0  0  0  0  0  0
    5.1550    3.3183    0.0000 C   0  0  0  0  0  0  0  0  0  0  0  0
    6.7731    3.3183    0.0000 C   0  0  0  0  0  0  0  0  0  0  0  0
    4.5981    4.7695    0.0000 C   0  0  0  0  0  0  0  0  0  0  0  0
    5.9640    1.7305    0.0000 C   0  0  0  0  0  0  0  0  0  0  0  0
    3.7320    4.2694    0.0000 C   0  0  0  0  0  0  0  0  0  0  0  0
    4.5980    5.7694    0.0000 C   0  0  0  0  0  0  0  0  0  0  0  0
    6.8301    1.2305    0.0000 C   0  0  0  0  0  0  0  0  0  0  0  0
    2.8660    4.7694    0.0000 C   0  0  0  0  0  0  0  0  0  0  0  0
    3.7320    6.2694    0.0000 C   0  0  0  0  0  0  0  0  0  0  0  0
    6.8301    0.2305    0.0000 C   0  0  0  0  0  0  0  0  0  0  0  0
    2.8660    5.7695    0.0000 C   0  0  0  0  0  0  0  0  0  0  0  0
    7.6961   -0.2695    0.0000 C   0  0  0  0  0  0  0  0  0  0  0  0
    6.8301   -1.7695    0.0000 C   0  0  0  0  0  0  0  0  0  0  0  0
    8.5621   -1.7695    0.0000 C   0  0  0  0  0  0  0  0  0  0  0  0
    2.0000    6.2695    0.0000 C   0  0  0  0  0  0  0  0  0  0  0  0
    6.8301   -2.7695    0.0000 C   0  0  0  0  0  0  0  0  0  0  0  0
    8.5621   -2.7695    0.0000 C   0  0  0  0  0  0  0  0  0  0  0  0
    7.6961   -4.2695    0.0000 C   0  0  0  0  0  0  0  0  0  0  0  0
    8.5621   -4.7695    0.0000 C   0  0  0  0  0  0  0  0  0  0  0  0
    6.8301   -4.7695    0.0000 C   0  0  0  0  0  0  0  0  0  0  0  0
    8.5621   -5.7695    0.0000 C   0  0  0  0  0  0  0  0  0  0  0  0
    9.5084   -4.4647    0.0000 C   0  0  0  0  0  0  0  0  0  0  0  0
    6.8301   -5.7695    0.0000 C   0  0  0  0  0  0  0  0  0  0  0  0
    7.6961   -6.2695    0.0000 C   0  0  0  0  0  0  0  0  0  0  0  0
   10.0920   -5.2695    0.0000 C   0  0  0  0  0  0  0  0  0  0  0  0
    7.0305    4.5215    0.0000 H   0  0  0  0  0  0  0  0  0  0  0  0
    6.4390    5.5344    0.0000 H   0  0  0  0  0  0  0  0  0  0  0  0
    5.4891    5.5344    0.0000 H   0  0  0  0  0  0  0  0  0  0  0  0
    5.3535    1.8382    0.0000 H   0  0  0  0  0  0  0  0  0  0  0  0
    5.7520    1.1479    0.0000 H   0  0  0  0  0  0  0  0  0  0  0  0
    3.7320    3.6494    0.0000 H   0  0  0  0  0  0  0  0  0  0  0  0
    5.1350    6.0794    0.0000 H   0  0  0  0  0  0  0  0  0  0  0  0
    7.4407    1.1229    0.0000 H   0  0  0  0  0  0  0  0  0  0  0  0
    7.0421    1.8132    0.0000 H   0  0  0  0  0  0  0  0  0  0  0  0
    2.3290    4.4595    0.0000 H   0  0  0  0  0  0  0  0  0  0  0  0
    3.7320    6.8894    0.0000 H   0  0  0  0  0  0  0  0  0  0  0  0
    6.2195    0.3382    0.0000 H   0  0  0  0  0  0  0  0  0  0  0  0
    6.6180   -0.3521    0.0000 H   0  0  0  0  0  0  0  0  0  0  0  0
    8.3067   -0.3771    0.0000 H   0  0  0  0  0  0  0  0  0  0  0  0
    7.9082    0.3131    0.0000 H   0  0  0  0  0  0  0  0  0  0  0  0
    6.6180   -1.1868    0.0000 H   0  0  0  0  0  0  0  0  0  0  0  0
    6.2195   -1.8771    0.0000 H   0  0  0  0  0  0  0  0  0  0  0  0
    9.1727   -1.8771    0.0000 H   0  0  0  0  0  0  0  0  0  0  0  0
    8.7742   -1.1868    0.0000 H   0  0  0  0  0  0  0  0  0  0  0  0
    2.3100    6.8064    0.0000 H   0  0  0  0  0  0  0  0  0  0  0  0
    1.4631    6.5795    0.0000 H   0  0  0  0  0  0  0  0  0  0  0  0
    1.6900    5.7325    0.0000 H   0  0  0  0  0  0  0  0  0  0  0  0
    6.2195   -2.6618    0.0000 H   0  0  0  0  0  0  0  0  0  0  0  0
    6.6180   -3.3521    0.0000 H   0  0  0  0  0  0  0  0  0  0  0  0
    8.7742   -3.3521    0.0000 H   0  0  0  0  0  0  0  0  0  0  0  0
    9.1727   -2.6618    0.0000 H   0  0  0  0  0  0  0  0  0  0  0  0
    6.2931   -4.4595    0.0000 H   0  0  0  0  0  0  0  0  0  0  0  0
    9.7010   -3.8754    0.0000 H   0  0  0  0  0  0  0  0  0  0  0  0
    6.2931   -6.0795    0.0000 H   0  0  0  0  0  0  0  0  0  0  0  0
    7.6961   -6.8895    0.0000 H   0  0  0  0  0  0  0  0  0  0  0  0
   10.7120   -5.2695    0.0000 H   0  0  0  0  0  0  0  0  0  0  0  0
  1 30  1  0  0  0  0
  1 34  1  0  0  0  0
  2 10  2  0  0  0  0
  3 11  2  0  0  0  0
  4 10  1  0  0  0  0
  4 11  1  0  0  0  0
  4 13  1  0  0  0  0
  5 21  1  0  0  0  0
  5 22  1  0  0  0  0
  5 23  1  0  0  0  0
  6 25  1  0  0  0  0
  6 26  1  0  0  0  0
  6 27  1  0  0  0  0
  7  8  1  0  0  0  0
  7  9  1  0  0  0  0
  7 10  1  0  0  0  0
  7 12  1  0  0  0  0
  8  9  1  0  0  0  0
  8 11  1  0  0  0  0
  8 35  1  0  0  0  0
  9 36  1  0  0  0  0
  9 37  1  0  0  0  0
 12 14  2  0  0  0  0
 12 15  1  0  0  0  0
 13 16  1  0  0  0  0
 13 38  1  0  0  0  0
 13 39  1  0  0  0  0
 14 17  1  0  0  0  0
 14 40  1  0  0  0  0
 15 18  2  0  0  0  0
 15 41  1  0  0  0  0
 16 19  1  0  0  0  0
 16 42  1  0  0  0  0
 16 43  1  0  0  0  0
 17 20  2  0  0  0  0
 17 44  1  0  0  0  0
 18 20  1  0  0  0  0
 18 45  1  0  0  0  0
 19 21  1  0  0  0  0
 19 46  1  0  0  0  0
 19 47  1  0  0  0  0
 20 24  1  0  0  0  0
 21 48  1  0  0  0  0
 21 49  1  0  0  0  0
 22 25  1  0  0  0  0
 22 50  1  0  0  0  0
 22 51  1  0  0  0  0
 23 26  1  0  0  0  0
 23 52  1  0  0  0  0
 23 53  1  0  0  0  0
 24 54  1  0  0  0  0
 24 55  1  0  0  0  0
 24 56  1  0  0  0  0
 25 57  1  0  0  0  0
 25 58  1  0  0  0  0
 26 59  1  0  0  0  0
 26 60  1  0  0  0  0
 27 28  2  0  0  0  0
 27 29  1  0  0  0  0
 28 30  1  0  0  0  0
 28 31  1  0  0  0  0
 29 32  2  0  0  0  0
 29 61  1  0  0  0  0
 30 33  2  0  0  0  0
 31 34  2  0  0  0  0
 31 62  1  0  0  0  0
 32 33  1  0  0  0  0
 32 63  1  0  0  0  0
 33 64  1  0  0  0  0
 34 65  1  0  0  0  0
M  END
> <PUBCHEM_COMPOUND_CID>
145989183

> <PUBCHEM_COMPOUND_CANONICALIZED>
1

> <PUBCHEM_CACTVS_COMPLEXITY>
776

> <PUBCHEM_CACTVS_HBOND_ACCEPTOR>
5

> <PUBCHEM_CACTVS_HBOND_DONOR>
0

> <PUBCHEM_CACTVS_ROTATABLE_BOND>
7

> <PUBCHEM_CACTVS_SUBSKEYS>
AAADceB7MABAAAAAAAAAAAAAGAAAAWJAAAA8eIEAAAAAAEgB9AAAHgQAAAAADwjF2ASywcMAAAiMAiVSUACDAIAhChBIiBkIZIgIYDLglZGUIAxghiDoyAcdi8CPwAAAACAGAACAAAAAQAwAAAAAAAAAAA==

> <PUBCHEM_IUPAC_OPENEYE_NAME>
3-[4-[4-(benzothiophen-4-yl)piperazin-1-yl]butyl]-1-(p-tolyl)-3-azabicyclo[3.1.0]hexane-2,4-dione

> <PUBCHEM_IUPAC_CAS_NAME>
3-[4-[4-(1-benzothiophen-4-yl)-1-piperazinyl]butyl]-1-(4-methylphenyl)-3-azabicyclo[3.1.0]hexane-2,4-dione

> <PUBCHEM_IUPAC_NAME_MARKUP>
3-[4-[4-(1-benzothiophen-4-yl)piperazin-1-yl]butyl]-1-(4-methylphenyl)-3-azabicyclo[3.1.0]hexane-2,4-dione

> <PUBCHEM_IUPAC_NAME>
3-[4-[4-(1-benzothiophen-4-yl)piperazin-1-yl]butyl]-1-(4-methylphenyl)-3-azabicyclo[3.1.0]hexane-2,4-dione

> <PUBCHEM_IUPAC_SYSTEMATIC_NAME>
3-[4-[4-(1-benzothiophen-4-yl)piperazin-1-yl]butyl]-1-(4-methylphenyl)-3-azabicyclo[3.1.0]hexane-2,4-dione

> <PUBCHEM_IUPAC_TRADITIONAL_NAME>
3-[4-[4-(benzothiophen-4-yl)piperazino]butyl]-1-(p-tolyl)-3-azabicyclo[3.1.0]hexane-2,4-quinone

> <PUBCHEM_IUPAC_INCHI>
InChI=1S/C28H31N3O2S/c1-20-7-9-21(10-8-20)28-19-23(28)26(32)31(27(28)33)13-3-2-12-29-14-16-30(17-15-29)24-5-4-6-25-22(24)11-18-34-25/h4-11,18,23H,2-3,12-17,19H2,1H3

> <PUBCHEM_IUPAC_INCHIKEY>
DWQCLXJTFOLDNW-UHFFFAOYSA-N

> <PUBCHEM_XLOGP3_AA>
4.6

> <PUBCHEM_EXACT_MASS>
473.21369841

> <PUBCHEM_MOLECULAR_FORMULA>
C28H31N3O2S

> <PUBCHEM_MOLECULAR_WEIGHT>
473.6

> <PUBCHEM_OPENEYE_CAN_SMILES>
CC1=CC=C(C=C1)C23CC2C(=O)N(C3=O)CCCCN4CCN(CC4)C5=C6C=CSC6=CC=C5

> <PUBCHEM_OPENEYE_ISO_SMILES>
CC1=CC=C(C=C1)C23CC2C(=O)N(C3=O)CCCCN4CCN(CC4)C5=C6C=CSC6=CC=C5

> <PUBCHEM_CACTVS_TPSA>
72.1

> <PUBCHEM_MONOISOTOPIC_WEIGHT>
473.21369841

> <PUBCHEM_TOTAL_CHARGE>
0

> <PUBCHEM_HEAVY_ATOM_COUNT>
34

> <PUBCHEM_ATOM_DEF_STEREO_COUNT>
0

> <PUBCHEM_ATOM_UDEF_STEREO_COUNT>
2

> <PUBCHEM_BOND_DEF_STEREO_COUNT>
0

> <PUBCHEM_BOND_UDEF_STEREO_COUNT>
0

> <PUBCHEM_ISOTOPIC_ATOM_COUNT>
0

> <PUBCHEM_COMPONENT_COUNT>
1

> <PUBCHEM_CACTVS_TAUTO_COUNT>
-1

> <PUBCHEM_COORDINATE_TYPE>
1
5
255

> <PUBCHEM_BONDANNOTATIONS>
1  30  8
1  34  8
12  14  8
12  15  8
14  17  8
15  18  8
17  20  8
18  20  8
27  28  8
27  29  8
28  30  8
28  31  8
29  32  8
30  33  8
31  34  8
32  33  8
7  12  3
8  9  3

$$$$
