53318145
  -OEChem-09292322482D

 53 56  0     0  0  0  0  0  0999 V2000
    5.4248    0.0000    0.0000 Cl  0  0  0  0  0  0  0  0  0  0  0  0
    6.9158    4.4168    0.0000 S   0  0  0  0  0  0  0  0  0  0  0  0
    6.4158    5.2828    0.0000 O   0  0  0  0  0  0  0  0  0  0  0  0
    7.4158    3.5507    0.0000 O   0  0  0  0  0  0  0  0  0  0  0  0
    0.6067    7.0478    0.0000 N   0  0  0  0  0  0  0  0  0  0  0  0
    3.5422    6.4291    0.0000 N   0  0  0  0  0  0  0  0  0  0  0  0
    5.9468    2.9280    0.0000 N   0  0  0  0  0  0  0  0  0  0  0  0
    4.9749    2.7188    0.0000 N   0  0  0  0  0  0  0  0  0  0  0  0
    2.5637    6.6354    0.0000 C   0  0  0  0  0  0  0  0  0  0  0  0
    2.2530    7.5859    0.0000 C   0  0  0  0  0  0  0  0  0  0  0  0
    1.8958    5.8910    0.0000 C   0  0  0  0  0  0  0  0  0  0  0  0
    1.2745    7.7921    0.0000 C   0  0  0  0  0  0  0  0  0  0  0  0
    0.9173    6.0973    0.0000 C   0  0  0  0  0  0  0  0  0  0  0  0
    3.8528    5.4786    0.0000 C   0  0  0  0  0  0  0  0  0  0  0  0
    5.1420    4.3219    0.0000 C   0  0  0  0  0  0  0  0  0  0  0  0
    4.8314    5.2724    0.0000 C   0  0  0  0  0  0  0  0  0  0  0  0
    6.0498    3.9168    0.0000 C   0  0  0  0  0  0  0  0  0  0  0  0
    3.1850    4.7343    0.0000 C   0  0  0  0  0  0  0  0  0  0  0  0
    4.4742    3.5776    0.0000 C   0  0  0  0  0  0  0  0  0  0  0  0
    3.4957    3.7838    0.0000 C   0  0  0  0  0  0  0  0  0  0  0  0
    7.7819    4.9168    0.0000 C   0  0  0  0  0  0  0  0  0  0  0  0
    8.6479    4.4168    0.0000 C   0  0  0  0  0  0  0  0  0  0  0  0
    9.5139    4.9168    0.0000 C   0  0  0  0  0  0  0  0  0  0  0  0
    7.7819    5.9168    0.0000 C   0  0  0  0  0  0  0  0  0  0  0  0
    9.5139    5.9168    0.0000 C   0  0  0  0  0  0  0  0  0  0  0  0
    8.6479    6.4168    0.0000 C   0  0  0  0  0  0  0  0  0  0  0  0
   10.4079    4.3821    0.0000 C   0  0  0  0  0  0  0  0  0  0  0  0
   10.4079    6.4514    0.0000 C   0  0  0  0  0  0  0  0  0  0  0  0
   11.3139    4.8960    0.0000 C   0  0  0  0  0  0  0  0  0  0  0  0
   11.3139    5.9376    0.0000 C   0  0  0  0  0  0  0  0  0  0  0  0
    2.9778    7.0968    0.0000 H   0  0  0  0  0  0  0  0  0  0  0  0
    2.8668    7.6732    0.0000 H   0  0  0  0  0  0  0  0  0  0  0  0
    2.2736    8.2055    0.0000 H   0  0  0  0  0  0  0  0  0  0  0  0
    1.6646    5.3158    0.0000 H   0  0  0  0  0  0  0  0  0  0  0  0
    2.4222    5.5634    0.0000 H   0  0  0  0  0  0  0  0  0  0  0  0
    1.5058    8.3674    0.0000 H   0  0  0  0  0  0  0  0  0  0  0  0
    0.7482    8.1197    0.0000 H   0  0  0  0  0  0  0  0  0  0  0  0
    0.3035    6.0099    0.0000 H   0  0  0  0  0  0  0  0  0  0  0  0
    0.8968    5.4776    0.0000 H   0  0  0  0  0  0  0  0  0  0  0  0
    3.9562    6.8906    0.0000 H   0  0  0  0  0  0  0  0  0  0  0  0
    0.0000    7.1756    0.0000 H   0  0  0  0  0  0  0  0  0  0  0  0
    5.2454    5.7339    0.0000 H   0  0  0  0  0  0  0  0  0  0  0  0
    2.5783    4.8622    0.0000 H   0  0  0  0  0  0  0  0  0  0  0  0
    3.0816    3.3223    0.0000 H   0  0  0  0  0  0  0  0  0  0  0  0
    6.4082    2.5140    0.0000 H   0  0  0  0  0  0  0  0  0  0  0  0
    8.6479    3.7968    0.0000 H   0  0  0  0  0  0  0  0  0  0  0  0
    7.2449    6.2268    0.0000 H   0  0  0  0  0  0  0  0  0  0  0  0
    8.6479    7.0368    0.0000 H   0  0  0  0  0  0  0  0  0  0  0  0
   10.4007    3.7621    0.0000 H   0  0  0  0  0  0  0  0  0  0  0  0
   10.4007    7.0714    0.0000 H   0  0  0  0  0  0  0  0  0  0  0  0
   11.8497    4.5839    0.0000 H   0  0  0  0  0  0  0  0  0  0  0  0
   11.8497    6.2496    0.0000 H   0  0  0  0  0  0  0  0  0  0  0  0
    6.4248    0.0000    0.0000 H   0  0  0  0  0  0  0  0  0  0  0  0
  1 53  1  0  0  0  0
  2  3  2  0  0  0  0
  2  4  2  0  0  0  0
  2 17  1  0  0  0  0
  2 21  1  0  0  0  0
  5 12  1  0  0  0  0
  5 13  1  0  0  0  0
  5 41  1  0  0  0  0
  6  9  1  0  0  0  0
  6 14  1  0  0  0  0
  6 40  1  0  0  0  0
  7  8  1  0  0  0  0
  7 17  1  0  0  0  0
  7 45  1  0  0  0  0
  8 19  2  0  0  0  0
  9 10  1  0  0  0  0
  9 11  1  0  0  0  0
  9 31  1  0  0  0  0
 10 12  1  0  0  0  0
 10 32  1  0  0  0  0
 10 33  1  0  0  0  0
 11 13  1  0  0  0  0
 11 34  1  0  0  0  0
 11 35  1  0  0  0  0
 12 36  1  0  0  0  0
 12 37  1  0  0  0  0
 13 38  1  0  0  0  0
 13 39  1  0  0  0  0
 14 16  2  0  0  0  0
 14 18  1  0  0  0  0
 15 16  1  0  0  0  0
 15 17  2  0  0  0  0
 15 19  1  0  0  0  0
 16 42  1  0  0  0  0
 18 20  2  0  0  0  0
 18 43  1  0  0  0  0
 19 20  1  0  0  0  0
 20 44  1  0  0  0  0
 21 22  2  0  0  0  0
 21 24  1  0  0  0  0
 22 23  1  0  0  0  0
 22 46  1  0  0  0  0
 23 25  1  0  0  0  0
 23 27  2  0  0  0  0
 24 26  2  0  0  0  0
 24 47  1  0  0  0  0
 25 26  1  0  0  0  0
 25 28  2  0  0  0  0
 26 48  1  0  0  0  0
 27 29  1  0  0  0  0
 27 49  1  0  0  0  0
 28 30  1  0  0  0  0
 28 50  1  0  0  0  0
 29 30  2  0  0  0  0
 29 51  1  0  0  0  0
 30 52  1  0  0  0  0
M  END
> <PUBCHEM_COMPOUND_CID>
53318145

> <PUBCHEM_COMPOUND_CANONICALIZED>
1

> <PUBCHEM_CACTVS_COMPLEXITY>
660

> <PUBCHEM_CACTVS_HBOND_ACCEPTOR>
5

> <PUBCHEM_CACTVS_HBOND_DONOR>
4

> <PUBCHEM_CACTVS_ROTATABLE_BOND>
4

> <PUBCHEM_CACTVS_SUBSKEYS>
AAADceB7sABEAAAAAAAAAAAAAAAAAWAAAAA8YMEAAAAAAFjB9AAAHAQYAAAADCjBXgQwwfLjAAqiAyRiQHDaBgBhChAYubg4ZJgIIKLg0dGEpAxgmADoyAcQgIAOkACAwAASAAAgAQGAACQAAAAAAAAAAA==

> <PUBCHEM_IUPAC_OPENEYE_NAME>
3-(2-naphthylsulfonyl)-N-(4-piperidyl)-2H-indazol-5-amine;hydrochloride

> <PUBCHEM_IUPAC_CAS_NAME>
3-(2-naphthalenylsulfonyl)-N-(4-piperidinyl)-2H-indazol-5-amine;hydrochloride

> <PUBCHEM_IUPAC_NAME_MARKUP>
3-naphthalen-2-ylsulfonyl-<I>N</I>-piperidin-4-yl-2<I>H</I>-indazol-5-amine;hydrochloride

> <PUBCHEM_IUPAC_NAME>
3-naphthalen-2-ylsulfonyl-N-piperidin-4-yl-2H-indazol-5-amine;hydrochloride

> <PUBCHEM_IUPAC_SYSTEMATIC_NAME>
3-naphthalen-2-ylsulfonyl-N-piperidin-4-yl-2H-indazol-5-amine;hydrochloride

> <PUBCHEM_IUPAC_TRADITIONAL_NAME>
[3-(2-naphthylsulfonyl)-2H-indazol-5-yl]-(4-piperidyl)amine;hydrochloride

> <PUBCHEM_IUPAC_INCHI>
InChI=1S/C22H22N4O2S.ClH/c27-29(28,19-7-5-15-3-1-2-4-16(15)13-19)22-20-14-18(6-8-21(20)25-26-22)24-17-9-11-23-12-10-17;/h1-8,13-14,17,23-24H,9-12H2,(H,25,26);1H

> <PUBCHEM_IUPAC_INCHIKEY>
CBOBTUDJCUNBQD-UHFFFAOYSA-N

> <PUBCHEM_EXACT_MASS>
442.1230249

> <PUBCHEM_MOLECULAR_FORMULA>
C22H23ClN4O2S

> <PUBCHEM_MOLECULAR_WEIGHT>
443.0

> <PUBCHEM_OPENEYE_CAN_SMILES>
C1CNCCC1NC2=CC3=C(NN=C3C=C2)S(=O)(=O)C4=CC5=CC=CC=C5C=C4.Cl

> <PUBCHEM_OPENEYE_ISO_SMILES>
C1CNCCC1NC2=CC3=C(NN=C3C=C2)S(=O)(=O)C4=CC5=CC=CC=C5C=C4.Cl

> <PUBCHEM_CACTVS_TPSA>
95.3

> <PUBCHEM_MONOISOTOPIC_WEIGHT>
442.1230249

> <PUBCHEM_TOTAL_CHARGE>
0

> <PUBCHEM_HEAVY_ATOM_COUNT>
30

> <PUBCHEM_ATOM_DEF_STEREO_COUNT>
0

> <PUBCHEM_ATOM_UDEF_STEREO_COUNT>
0

> <PUBCHEM_BOND_DEF_STEREO_COUNT>
0

> <PUBCHEM_BOND_UDEF_STEREO_COUNT>
0

> <PUBCHEM_ISOTOPIC_ATOM_COUNT>
0

> <PUBCHEM_COMPONENT_COUNT>
2

> <PUBCHEM_CACTVS_TAUTO_COUNT>
-1

> <PUBCHEM_COORDINATE_TYPE>
1
5
255

> <PUBCHEM_BONDANNOTATIONS>
14  16  8
14  18  8
15  16  8
15  17  8
15  19  8
18  20  8
19  20  8
21  22  8
21  24  8
22  23  8
23  25  8
23  27  8
24  26  8
25  26  8
25  28  8
27  29  8
28  30  8
29  30  8
7  17  8
7  8  8
8  19  8

$$$$
