155531362
  -OEChem-09292322462D

 53 56  0     0  0  0  0  0  0999 V2000
    6.7210   -2.5630    0.0000 S   0  0  0  0  0  0  0  0  0  0  0  0
    6.0066   -5.9527    0.0000 F   0  0  0  0  0  0  0  0  0  0  0  0
    7.6715   -2.2524    0.0000 O   0  0  0  0  0  0  0  0  0  0  0  0
    5.7705   -2.8737    0.0000 O   0  0  0  0  0  0  0  0  0  0  0  0
    2.8660    0.1922    0.0000 O   0  0  0  0  0  0  0  0  0  0  0  0
    8.0646    4.0495    0.0000 O   0  0  0  0  0  0  0  0  0  0  0  0
    6.4103   -1.6125    0.0000 N   0  0  0  0  0  0  0  0  0  0  0  0
    7.6743    2.2548    0.0000 N   0  0  0  0  0  0  0  0  0  0  0  0
    6.1346    1.7575    0.0000 N   0  0  0  0  0  0  0  0  0  0  0  0
    6.4164    3.5171    0.0000 N   0  0  0  0  0  0  0  0  0  0  0  0
    5.4641   -1.3078    0.0000 C   0  0  0  0  0  0  0  0  0  0  0  0
    5.4641   -0.3078    0.0000 C   0  0  0  0  0  0  0  0  0  0  0  0
    6.4103   -0.0030    0.0000 C   0  0  0  0  0  0  0  0  0  0  0  0
    6.9939   -0.8078    0.0000 C   0  0  0  0  0  0  0  0  0  0  0  0
    6.7210    0.9475    0.0000 C   0  0  0  0  0  0  0  0  0  0  0  0
    4.5981    0.1922    0.0000 C   0  0  0  0  0  0  0  0  0  0  0  0
    4.5981   -1.8078    0.0000 C   0  0  0  0  0  0  0  0  0  0  0  0
    7.6726    1.2548    0.0000 C   0  0  0  0  0  0  0  0  0  0  0  0
    7.0316   -3.5135    0.0000 C   0  0  0  0  0  0  0  0  0  0  0  0
    3.7320   -0.3078    0.0000 C   0  0  0  0  0  0  0  0  0  0  0  0
    3.7320   -1.3078    0.0000 C   0  0  0  0  0  0  0  0  0  0  0  0
    6.7238    2.5655    0.0000 C   0  0  0  0  0  0  0  0  0  0  0  0
    8.4806    0.6657    0.0000 C   0  0  0  0  0  0  0  0  0  0  0  0
    6.3638   -4.2578    0.0000 C   0  0  0  0  0  0  0  0  0  0  0  0
    8.0102   -3.7198    0.0000 C   0  0  0  0  0  0  0  0  0  0  0  0
    6.6745   -5.2084    0.0000 C   0  0  0  0  0  0  0  0  0  0  0  0
    8.3208   -4.6703    0.0000 C   0  0  0  0  0  0  0  0  0  0  0  0
    7.6530   -5.4146    0.0000 C   0  0  0  0  0  0  0  0  0  0  0  0
    7.0868    4.2591    0.0000 C   0  0  0  0  0  0  0  0  0  0  0  0
    2.0000   -0.3078    0.0000 C   0  0  0  0  0  0  0  0  0  0  0  0
    6.7795    5.2107    0.0000 C   0  0  0  0  0  0  0  0  0  0  0  0
    7.4499    5.9527    0.0000 C   0  0  0  0  0  0  0  0  0  0  0  0
    7.6139   -0.8078    0.0000 H   0  0  0  0  0  0  0  0  0  0  0  0
    4.5981    0.8122    0.0000 H   0  0  0  0  0  0  0  0  0  0  0  0
    4.5981   -2.4278    0.0000 H   0  0  0  0  0  0  0  0  0  0  0  0
    3.1951   -1.6178    0.0000 H   0  0  0  0  0  0  0  0  0  0  0  0
    8.1765    2.6184    0.0000 H   0  0  0  0  0  0  0  0  0  0  0  0
    8.1153    0.1647    0.0000 H   0  0  0  0  0  0  0  0  0  0  0  0
    8.9815    0.3004    0.0000 H   0  0  0  0  0  0  0  0  0  0  0  0
    8.8459    1.1666    0.0000 H   0  0  0  0  0  0  0  0  0  0  0  0
    5.7571   -4.1300    0.0000 H   0  0  0  0  0  0  0  0  0  0  0  0
    8.4242   -3.2583    0.0000 H   0  0  0  0  0  0  0  0  0  0  0  0
    5.8102    3.6471    0.0000 H   0  0  0  0  0  0  0  0  0  0  0  0
    8.9275   -4.7981    0.0000 H   0  0  0  0  0  0  0  0  0  0  0  0
    7.8456   -6.0039    0.0000 H   0  0  0  0  0  0  0  0  0  0  0  0
    1.6900    0.2292    0.0000 H   0  0  0  0  0  0  0  0  0  0  0  0
    1.4631   -0.6178    0.0000 H   0  0  0  0  0  0  0  0  0  0  0  0
    2.3100   -0.8447    0.0000 H   0  0  0  0  0  0  0  0  0  0  0  0
    6.3986    5.6999    0.0000 H   0  0  0  0  0  0  0  0  0  0  0  0
    6.2315    4.9206    0.0000 H   0  0  0  0  0  0  0  0  0  0  0  0
    7.9099    5.5370    0.0000 H   0  0  0  0  0  0  0  0  0  0  0  0
    7.8655    6.4127    0.0000 H   0  0  0  0  0  0  0  0  0  0  0  0
    6.9898    6.3683    0.0000 H   0  0  0  0  0  0  0  0  0  0  0  0
  1  3  2  0  0  0  0
  1  4  2  0  0  0  0
  1  7  1  0  0  0  0
  1 19  1  0  0  0  0
  2 26  1  0  0  0  0
  5 20  1  0  0  0  0
  5 30  1  0  0  0  0
  6 29  2  0  0  0  0
  7 11  1  0  0  0  0
  7 14  1  0  0  0  0
  8 18  1  0  0  0  0
  8 22  1  0  0  0  0
  8 37  1  0  0  0  0
  9 15  1  0  0  0  0
  9 22  2  0  0  0  0
 10 22  1  0  0  0  0
 10 29  1  0  0  0  0
 10 43  1  0  0  0  0
 11 12  2  0  0  0  0
 11 17  1  0  0  0  0
 12 13  1  0  0  0  0
 12 16  1  0  0  0  0
 13 14  2  0  0  0  0
 13 15  1  0  0  0  0
 14 33  1  0  0  0  0
 15 18  2  0  0  0  0
 16 20  2  0  0  0  0
 16 34  1  0  0  0  0
 17 21  2  0  0  0  0
 17 35  1  0  0  0  0
 18 23  1  0  0  0  0
 19 24  1  0  0  0  0
 19 25  2  0  0  0  0
 20 21  1  0  0  0  0
 21 36  1  0  0  0  0
 23 38  1  0  0  0  0
 23 39  1  0  0  0  0
 23 40  1  0  0  0  0
 24 26  2  0  0  0  0
 24 41  1  0  0  0  0
 25 27  1  0  0  0  0
 25 42  1  0  0  0  0
 26 28  1  0  0  0  0
 27 28  2  0  0  0  0
 27 44  1  0  0  0  0
 28 45  1  0  0  0  0
 29 31  1  0  0  0  0
 30 46  1  0  0  0  0
 30 47  1  0  0  0  0
 30 48  1  0  0  0  0
 31 32  1  0  0  0  0
 31 49  1  0  0  0  0
 31 50  1  0  0  0  0
 32 51  1  0  0  0  0
 32 52  1  0  0  0  0
 32 53  1  0  0  0  0
M  END
> <PUBCHEM_COMPOUND_CID>
155531362

> <PUBCHEM_COMPOUND_CANONICALIZED>
1

> <PUBCHEM_CACTVS_COMPLEXITY>
778

> <PUBCHEM_CACTVS_HBOND_ACCEPTOR>
6

> <PUBCHEM_CACTVS_HBOND_DONOR>
2

> <PUBCHEM_CACTVS_ROTATABLE_BOND>
6

> <PUBCHEM_CACTVS_SUBSKEYS>
AAADceB7uQBAAAAAAAAAAAAAAAAAAWLAAAAwYAAAAAAAAFgB/AAAHwQQQAAADAzB3g4/1/bJlAKoAzV3dHDCiD2xMqAJ2Tk+fJiMbuLE+ZuUMChs0RPI6Cew0PMOgEABAAACAAAAgAIAAAQAAAAAAAAAAA==

> <PUBCHEM_IUPAC_OPENEYE_NAME>
N-[4-[1-(3-fluorophenyl)sulfonyl-5-methoxy-indol-3-yl]-5-methyl-1H-imidazol-2-yl]propanamide

> <PUBCHEM_IUPAC_CAS_NAME>
N-[4-[1-(3-fluorophenyl)sulfonyl-5-methoxy-3-indolyl]-5-methyl-1H-imidazol-2-yl]propanamide

> <PUBCHEM_IUPAC_NAME_MARKUP>
<I>N</I>-[4-[1-(3-fluorophenyl)sulfonyl-5-methoxyindol-3-yl]-5-methyl-1<I>H</I>-imidazol-2-yl]propanamide

> <PUBCHEM_IUPAC_NAME>
N-[4-[1-(3-fluorophenyl)sulfonyl-5-methoxyindol-3-yl]-5-methyl-1H-imidazol-2-yl]propanamide

> <PUBCHEM_IUPAC_SYSTEMATIC_NAME>
N-[4-[1-(3-fluorophenyl)sulfonyl-5-methoxy-indol-3-yl]-5-methyl-1H-imidazol-2-yl]propanamide

> <PUBCHEM_IUPAC_TRADITIONAL_NAME>
N-[4-[1-(3-fluorophenyl)sulfonyl-5-methoxy-indol-3-yl]-5-methyl-1H-imidazol-2-yl]propionamide

> <PUBCHEM_IUPAC_INCHI>
InChI=1S/C22H21FN4O4S/c1-4-20(28)25-22-24-13(2)21(26-22)18-12-27(19-9-8-15(31-3)11-17(18)19)32(29,30)16-7-5-6-14(23)10-16/h5-12H,4H2,1-3H3,(H2,24,25,26,28)

> <PUBCHEM_IUPAC_INCHIKEY>
JEEISHOETYAZSP-UHFFFAOYSA-N

> <PUBCHEM_XLOGP3_AA>
3.5

> <PUBCHEM_EXACT_MASS>
456.12675450

> <PUBCHEM_MOLECULAR_FORMULA>
C22H21FN4O4S

> <PUBCHEM_MOLECULAR_WEIGHT>
456.5

> <PUBCHEM_OPENEYE_CAN_SMILES>
CCC(=O)NC1=NC(=C(N1)C)C2=CN(C3=C2C=C(C=C3)OC)S(=O)(=O)C4=CC=CC(=C4)F

> <PUBCHEM_OPENEYE_ISO_SMILES>
CCC(=O)NC1=NC(=C(N1)C)C2=CN(C3=C2C=C(C=C3)OC)S(=O)(=O)C4=CC=CC(=C4)F

> <PUBCHEM_CACTVS_TPSA>
115

> <PUBCHEM_MONOISOTOPIC_WEIGHT>
456.12675450

> <PUBCHEM_TOTAL_CHARGE>
0

> <PUBCHEM_HEAVY_ATOM_COUNT>
32

> <PUBCHEM_ATOM_DEF_STEREO_COUNT>
0

> <PUBCHEM_ATOM_UDEF_STEREO_COUNT>
0

> <PUBCHEM_BOND_DEF_STEREO_COUNT>
0

> <PUBCHEM_BOND_UDEF_STEREO_COUNT>
0

> <PUBCHEM_ISOTOPIC_ATOM_COUNT>
0

> <PUBCHEM_COMPONENT_COUNT>
1

> <PUBCHEM_CACTVS_TAUTO_COUNT>
-1

> <PUBCHEM_COORDINATE_TYPE>
1
5
255

> <PUBCHEM_BONDANNOTATIONS>
11  12  8
11  17  8
12  13  8
12  16  8
13  14  8
15  18  8
16  20  8
17  21  8
19  24  8
19  25  8
20  21  8
24  26  8
25  27  8
26  28  8
27  28  8
7  11  8
7  14  8
8  18  8
8  22  8
9  15  8
9  22  8

$$$$
