23269
  -OEChem-09292322492D

 22 23  0     1  0  0  0  0  0999 V2000
    3.3660    2.2694    0.0000 O   0  0  0  0  0  0  0  0  0  0  0  0
    4.6261    1.0094    0.0000 O   0  0  0  0  0  0  0  0  0  0  0  0
    2.8660    0.7306    0.0000 C   0  0  3  0  0  0  0  0  0  0  0  0
    2.0570    1.3184    0.0000 C   0  0  0  0  0  0  0  0  0  0  0  0
    2.3660    2.2694    0.0000 C   0  0  0  0  0  0  0  0  0  0  0  0
    2.8660   -0.2694    0.0000 C   0  0  0  0  0  0  0  0  0  0  0  0
    3.6750    1.3184    0.0000 C   0  0  0  0  0  0  0  0  0  0  0  0
    2.0000   -0.7694    0.0000 C   0  0  0  0  0  0  0  0  0  0  0  0
    3.7320   -0.7694    0.0000 C   0  0  0  0  0  0  0  0  0  0  0  0
    2.0000   -1.7694    0.0000 C   0  0  0  0  0  0  0  0  0  0  0  0
    3.7320   -1.7694    0.0000 C   0  0  0  0  0  0  0  0  0  0  0  0
    2.8660   -2.2694    0.0000 C   0  0  0  0  0  0  0  0  0  0  0  0
    3.6234    0.3447    0.0000 H   0  0  0  0  0  0  0  0  0  0  0  0
    1.4906    1.5705    0.0000 H   0  0  0  0  0  0  0  0  0  0  0  0
    1.7470    0.7814    0.0000 H   0  0  0  0  0  0  0  0  0  0  0  0
    2.4308    2.8860    0.0000 H   0  0  0  0  0  0  0  0  0  0  0  0
    1.7596    2.3983    0.0000 H   0  0  0  0  0  0  0  0  0  0  0  0
    1.4631   -0.4594    0.0000 H   0  0  0  0  0  0  0  0  0  0  0  0
    4.2690   -0.4594    0.0000 H   0  0  0  0  0  0  0  0  0  0  0  0
    1.4631   -2.0794    0.0000 H   0  0  0  0  0  0  0  0  0  0  0  0
    4.2690   -2.0794    0.0000 H   0  0  0  0  0  0  0  0  0  0  0  0
    2.8660   -2.8894    0.0000 H   0  0  0  0  0  0  0  0  0  0  0  0
  1  5  1  0  0  0  0
  1  7  1  0  0  0  0
  2  7  2  0  0  0  0
  3  4  1  0  0  0  0
  3  6  1  0  0  0  0
  3  7  1  0  0  0  0
  3 13  1  0  0  0  0
  4  5  1  0  0  0  0
  4 14  1  0  0  0  0
  4 15  1  0  0  0  0
  5 16  1  0  0  0  0
  5 17  1  0  0  0  0
  6  8  2  0  0  0  0
  6  9  1  0  0  0  0
  8 10  1  0  0  0  0
  8 18  1  0  0  0  0
  9 11  2  0  0  0  0
  9 19  1  0  0  0  0
 10 12  2  0  0  0  0
 10 20  1  0  0  0  0
 11 12  1  0  0  0  0
 11 21  1  0  0  0  0
 12 22  1  0  0  0  0
M  END
> <PUBCHEM_COMPOUND_CID>
23269

> <PUBCHEM_COMPOUND_CANONICALIZED>
1

> <PUBCHEM_CACTVS_COMPLEXITY>
171

> <PUBCHEM_CACTVS_HBOND_ACCEPTOR>
2

> <PUBCHEM_CACTVS_HBOND_DONOR>
0

> <PUBCHEM_CACTVS_ROTATABLE_BOND>
1

> <PUBCHEM_CACTVS_SUBSKEYS>
AAADccBwMAAAAAAAAAAAAAAAAAAAASAAAAAwAAAAAAAAAAABAAAAGgAAAAAADQCgmAIwCIAABACIAiDSCAACAAAgAAAIiAEAAIgIIDKAFRCCIAAkwAEIiAeKyOCOgAAAAAAAAAAAAAAAAAAAAAAAAAAAAA==

> <PUBCHEM_IUPAC_OPENEYE_NAME>
3-phenyltetrahydrofuran-2-one

> <PUBCHEM_IUPAC_CAS_NAME>
3-phenyl-2-oxolanone

> <PUBCHEM_IUPAC_NAME_MARKUP>
3-phenyloxolan-2-one

> <PUBCHEM_IUPAC_NAME>
3-phenyloxolan-2-one

> <PUBCHEM_IUPAC_SYSTEMATIC_NAME>
3-phenyloxolan-2-one

> <PUBCHEM_IUPAC_TRADITIONAL_NAME>
3-phenyltetrahydrofuran-2-one

> <PUBCHEM_IUPAC_INCHI>
InChI=1S/C10H10O2/c11-10-9(6-7-12-10)8-4-2-1-3-5-8/h1-5,9H,6-7H2

> <PUBCHEM_IUPAC_INCHIKEY>
QGHNDAKWOGAJHS-UHFFFAOYSA-N

> <PUBCHEM_XLOGP3_AA>
1.9

> <PUBCHEM_EXACT_MASS>
162.068079557

> <PUBCHEM_MOLECULAR_FORMULA>
C10H10O2

> <PUBCHEM_MOLECULAR_WEIGHT>
162.18

> <PUBCHEM_OPENEYE_CAN_SMILES>
C1COC(=O)C1C2=CC=CC=C2

> <PUBCHEM_OPENEYE_ISO_SMILES>
C1COC(=O)C1C2=CC=CC=C2

> <PUBCHEM_CACTVS_TPSA>
26.3

> <PUBCHEM_MONOISOTOPIC_WEIGHT>
162.068079557

> <PUBCHEM_TOTAL_CHARGE>
0

> <PUBCHEM_HEAVY_ATOM_COUNT>
12

> <PUBCHEM_ATOM_DEF_STEREO_COUNT>
0

> <PUBCHEM_ATOM_UDEF_STEREO_COUNT>
1

> <PUBCHEM_BOND_DEF_STEREO_COUNT>
0

> <PUBCHEM_BOND_UDEF_STEREO_COUNT>
0

> <PUBCHEM_ISOTOPIC_ATOM_COUNT>
0

> <PUBCHEM_COMPONENT_COUNT>
1

> <PUBCHEM_CACTVS_TAUTO_COUNT>
2

> <PUBCHEM_COORDINATE_TYPE>
1
5
255

> <PUBCHEM_BONDANNOTATIONS>
10  12  8
11  12  8
3  13  3
6  8  8
6  9  8
8  10  8
9  11  8

$$$$
