118711271
  -OEChem-09292322472D

 40 43  0     1  0  0  0  0  0999 V2000
    2.0949   -1.4359    0.0000 O   0  0  0  0  0  0  0  0  0  0  0  0
    2.0000   -3.2097    0.0000 O   0  0  0  0  0  0  0  0  0  0  0  0
    5.2062    2.3437    0.0000 N   0  0  3  0  0  0  0  0  0  0  0  0
    3.4887   -2.2406    0.0000 N   0  0  0  0  0  0  0  0  0  0  0  0
    5.4745    0.5957    0.0000 C   0  0  3  0  0  0  0  0  0  0  0  0
    5.7598    1.5340    0.0000 C   0  0  0  0  0  0  0  0  0  0  0  0
    4.5640    0.2312    0.0000 C   0  0  0  0  0  0  0  0  0  0  0  0
    3.6979    0.7312    0.0000 C   0  0  0  0  0  0  0  0  0  0  0  0
    3.5583    1.7020    0.0000 C   0  0  0  0  0  0  0  0  0  0  0  0
    4.2283    2.4183    0.0000 C   0  0  0  0  0  0  0  0  0  0  0  0
    6.2112   -0.0806    0.0000 C   0  0  0  0  0  0  0  0  0  0  0  0
    4.5640   -0.7688    0.0000 C   0  0  0  0  0  0  0  0  0  0  0  0
    2.8319    0.2312    0.0000 C   0  0  0  0  0  0  0  0  0  0  0  0
    3.6979   -1.2688    0.0000 C   0  0  0  0  0  0  0  0  0  0  0  0
    2.8319   -0.7688    0.0000 C   0  0  0  0  0  0  0  0  0  0  0  0
    5.7062    3.2097    0.0000 C   0  0  0  0  0  0  0  0  0  0  0  0
    7.1652    0.2193    0.0000 C   0  0  0  0  0  0  0  0  0  0  0  0
    5.9940   -1.0567    0.0000 C   0  0  0  0  0  0  0  0  0  0  0  0
    7.9019   -0.4569    0.0000 C   0  0  0  0  0  0  0  0  0  0  0  0
    6.7306   -1.7329    0.0000 C   0  0  0  0  0  0  0  0  0  0  0  0
    2.5000   -2.3437    0.0000 C   0  0  0  0  0  0  0  0  0  0  0  0
    7.6846   -1.4330    0.0000 C   0  0  0  0  0  0  0  0  0  0  0  0
    6.0726    0.7589    0.0000 H   0  0  0  0  0  0  0  0  0  0  0  0
    6.2977    1.2257    0.0000 H   0  0  0  0  0  0  0  0  0  0  0  0
    6.1805    1.9895    0.0000 H   0  0  0  0  0  0  0  0  0  0  0  0
    3.2116    2.2160    0.0000 H   0  0  0  0  0  0  0  0  0  0  0  0
    2.9798    1.4789    0.0000 H   0  0  0  0  0  0  0  0  0  0  0  0
    4.4124    3.0103    0.0000 H   0  0  0  0  0  0  0  0  0  0  0  0
    3.6923    2.7300    0.0000 H   0  0  0  0  0  0  0  0  0  0  0  0
    5.1009   -1.0788    0.0000 H   0  0  0  0  0  0  0  0  0  0  0  0
    2.2950    0.5412    0.0000 H   0  0  0  0  0  0  0  0  0  0  0  0
    6.2432    2.8997    0.0000 H   0  0  0  0  0  0  0  0  0  0  0  0
    6.0162    3.7466    0.0000 H   0  0  0  0  0  0  0  0  0  0  0  0
    5.1693    3.5197    0.0000 H   0  0  0  0  0  0  0  0  0  0  0  0
    7.2999    0.8245    0.0000 H   0  0  0  0  0  0  0  0  0  0  0  0
    5.4025   -1.2426    0.0000 H   0  0  0  0  0  0  0  0  0  0  0  0
    3.9028   -2.7021    0.0000 H   0  0  0  0  0  0  0  0  0  0  0  0
    8.4934   -0.2709    0.0000 H   0  0  0  0  0  0  0  0  0  0  0  0
    6.5959   -2.3381    0.0000 H   0  0  0  0  0  0  0  0  0  0  0  0
    8.1414   -1.8522    0.0000 H   0  0  0  0  0  0  0  0  0  0  0  0
  1 15  1  0  0  0  0
  1 21  1  0  0  0  0
  2 21  2  0  0  0  0
  3  6  1  0  0  0  0
  3 10  1  0  0  0  0
  3 16  1  0  0  0  0
  4 14  1  0  0  0  0
  4 21  1  0  0  0  0
  4 37  1  0  0  0  0
  5  6  1  0  0  0  0
  5  7  1  0  0  0  0
  5 11  1  0  0  0  0
  5 23  1  0  0  0  0
  6 24  1  0  0  0  0
  6 25  1  0  0  0  0
  7  8  1  0  0  0  0
  7 12  2  0  0  0  0
  8  9  1  0  0  0  0
  8 13  2  0  0  0  0
  9 10  1  0  0  0  0
  9 26  1  0  0  0  0
  9 27  1  0  0  0  0
 10 28  1  0  0  0  0
 10 29  1  0  0  0  0
 11 17  2  0  0  0  0
 11 18  1  0  0  0  0
 12 14  1  0  0  0  0
 12 30  1  0  0  0  0
 13 15  1  0  0  0  0
 13 31  1  0  0  0  0
 14 15  2  0  0  0  0
 16 32  1  0  0  0  0
 16 33  1  0  0  0  0
 16 34  1  0  0  0  0
 17 19  1  0  0  0  0
 17 35  1  0  0  0  0
 18 20  2  0  0  0  0
 18 36  1  0  0  0  0
 19 22  2  0  0  0  0
 19 38  1  0  0  0  0
 20 22  1  0  0  0  0
 20 39  1  0  0  0  0
 22 40  1  0  0  0  0
M  END
> <PUBCHEM_COMPOUND_CID>
118711271

> <PUBCHEM_COMPOUND_CANONICALIZED>
1

> <PUBCHEM_CACTVS_COMPLEXITY>
421

> <PUBCHEM_CACTVS_HBOND_ACCEPTOR>
3

> <PUBCHEM_CACTVS_HBOND_DONOR>
1

> <PUBCHEM_CACTVS_ROTATABLE_BOND>
1

> <PUBCHEM_CACTVS_SUBSKEYS>
AAADceB7MAAAAAAAAAAAAAAAAAAAAWAAAAAwYAAABYAAAFgBQAAAHgAQAAAADQzBmAQyzoPABACIAiRCWACCCAAhIgAIiAAPbIkOJiLEsZuNMihk1BHY6AeQ0PIOqAABQAAQEABQAAKAACAgAAAAAAAAAA==

> <PUBCHEM_IUPAC_OPENEYE_NAME>
7-methyl-5-phenyl-5,6,8,9-tetrahydro-3H-oxazolo[5,4-h][3]benzazepin-2-one

> <PUBCHEM_IUPAC_CAS_NAME>
7-methyl-5-phenyl-5,6,8,9-tetrahydro-3H-oxazolo[5,4-h][3]benzazepin-2-one

> <PUBCHEM_IUPAC_NAME_MARKUP>
7-methyl-5-phenyl-5,6,8,9-tetrahydro-3<I>H</I>-[1,3]oxazolo[5,4-h][3]benzazepin-2-one

> <PUBCHEM_IUPAC_NAME>
7-methyl-5-phenyl-5,6,8,9-tetrahydro-3H-[1,3]oxazolo[5,4-h][3]benzazepin-2-one

> <PUBCHEM_IUPAC_SYSTEMATIC_NAME>
7-methyl-5-phenyl-5,6,8,9-tetrahydro-3H-[1,3]oxazolo[5,4-h][3]benzazepin-2-one

> <PUBCHEM_IUPAC_TRADITIONAL_NAME>
7-methyl-5-phenyl-5,6,8,9-tetrahydro-3H-oxazolo[5,4-h][3]benzazepin-2-one

> <PUBCHEM_IUPAC_INCHI>
InChI=1S/C18H18N2O2/c1-20-8-7-13-9-17-16(19-18(21)22-17)10-14(13)15(11-20)12-5-3-2-4-6-12/h2-6,9-10,15H,7-8,11H2,1H3,(H,19,21)

> <PUBCHEM_IUPAC_INCHIKEY>
USQVNDTUQKYGMB-UHFFFAOYSA-N

> <PUBCHEM_XLOGP3_AA>
2.9

> <PUBCHEM_EXACT_MASS>
294.136827821

> <PUBCHEM_MOLECULAR_FORMULA>
C18H18N2O2

> <PUBCHEM_MOLECULAR_WEIGHT>
294.3

> <PUBCHEM_OPENEYE_CAN_SMILES>
CN1CCC2=CC3=C(C=C2C(C1)C4=CC=CC=C4)NC(=O)O3

> <PUBCHEM_OPENEYE_ISO_SMILES>
CN1CCC2=CC3=C(C=C2C(C1)C4=CC=CC=C4)NC(=O)O3

> <PUBCHEM_CACTVS_TPSA>
41.6

> <PUBCHEM_MONOISOTOPIC_WEIGHT>
294.136827821

> <PUBCHEM_TOTAL_CHARGE>
0

> <PUBCHEM_HEAVY_ATOM_COUNT>
22

> <PUBCHEM_ATOM_DEF_STEREO_COUNT>
0

> <PUBCHEM_ATOM_UDEF_STEREO_COUNT>
1

> <PUBCHEM_BOND_DEF_STEREO_COUNT>
0

> <PUBCHEM_BOND_UDEF_STEREO_COUNT>
0

> <PUBCHEM_ISOTOPIC_ATOM_COUNT>
0

> <PUBCHEM_COMPONENT_COUNT>
1

> <PUBCHEM_CACTVS_TAUTO_COUNT>
-1

> <PUBCHEM_COORDINATE_TYPE>
1
5
255

> <PUBCHEM_BONDANNOTATIONS>
1  15  8
1  21  8
11  17  8
11  18  8
12  14  8
13  15  8
14  15  8
17  19  8
18  20  8
19  22  8
20  22  8
4  14  8
4  21  8
5  11  3
7  12  8
7  8  8
8  13  8

$$$$
