76321107
  -OEChem-09292322342D

 56 60  0     1  0  0  0  0  0999 V2000
    2.0000   -0.1446    0.0000 F   0  0  0  0  0  0  0  0  0  0  0  0
    4.7684   -2.3663    0.0000 O   0  0  0  0  0  0  0  0  0  0  0  0
   11.9055   -0.6684    0.0000 O   0  0  0  0  0  0  0  0  0  0  0  0
    8.4414    0.3316    0.0000 N   0  0  0  0  0  0  0  0  0  0  0  0
    5.7402   -2.1571    0.0000 N   0  0  0  0  0  0  0  0  0  0  0  0
   15.4356    0.3075    0.0000 N   0  0  0  0  0  0  0  0  0  0  0  0
    6.7093   -0.6684    0.0000 C   0  0  0  0  0  0  0  0  0  0  0  0
    7.5754   -1.1684    0.0000 C   0  0  0  0  0  0  0  0  0  0  0  0
    6.7093    0.3316    0.0000 C   0  0  0  0  0  0  0  0  0  0  0  0
    8.4414   -0.6684    0.0000 C   0  0  0  0  0  0  0  0  0  0  0  0
    7.5754    0.8316    0.0000 C   0  0  0  0  0  0  0  0  0  0  0  0
    9.3074    0.8316    0.0000 C   0  0  0  0  0  0  0  0  0  0  0  0
   11.0395    0.8316    0.0000 C   0  0  3  0  0  0  0  0  0  0  0  0
   10.1734    0.3316    0.0000 C   0  0  0  0  0  0  0  0  0  0  0  0
   11.0395    1.8316    0.0000 C   0  0  0  0  0  0  0  0  0  0  0  0
    5.8433   -1.1684    0.0000 C   0  0  0  0  0  0  0  0  0  0  0  0
   11.9055    2.3316    0.0000 C   0  0  0  0  0  0  0  0  0  0  0  0
   11.9055    0.3316    0.0000 C   0  0  0  0  0  0  0  0  0  0  0  0
   12.7715    1.8316    0.0000 C   0  0  0  0  0  0  0  0  0  0  0  0
   12.7715    0.8316    0.0000 C   0  0  0  0  0  0  0  0  0  0  0  0
    4.9355   -0.7633    0.0000 C   0  0  0  0  0  0  0  0  0  0  0  0
    4.2677   -1.5076    0.0000 C   0  0  0  0  0  0  0  0  0  0  0  0
   13.6654    0.2970    0.0000 C   0  0  0  0  0  0  0  0  0  0  0  0
   13.6654    2.3663    0.0000 C   0  0  0  0  0  0  0  0  0  0  0  0
    4.6249    0.1873    0.0000 C   0  0  0  0  0  0  0  0  0  0  0  0
   14.5715    0.8108    0.0000 C   0  0  0  0  0  0  0  0  0  0  0  0
   14.5715    1.8524    0.0000 C   0  0  0  0  0  0  0  0  0  0  0  0
    3.2892   -1.3013    0.0000 C   0  0  0  0  0  0  0  0  0  0  0  0
    3.6464    0.3935    0.0000 C   0  0  0  0  0  0  0  0  0  0  0  0
    2.9785   -0.3508    0.0000 C   0  0  0  0  0  0  0  0  0  0  0  0
    6.7093   -1.2884    0.0000 H   0  0  0  0  0  0  0  0  0  0  0  0
    7.1768   -1.6433    0.0000 H   0  0  0  0  0  0  0  0  0  0  0  0
    7.9739   -1.6433    0.0000 H   0  0  0  0  0  0  0  0  0  0  0  0
    6.4973    0.9142    0.0000 H   0  0  0  0  0  0  0  0  0  0  0  0
    6.0988    0.2240    0.0000 H   0  0  0  0  0  0  0  0  0  0  0  0
    8.6534   -1.2510    0.0000 H   0  0  0  0  0  0  0  0  0  0  0  0
    9.0520   -0.5607    0.0000 H   0  0  0  0  0  0  0  0  0  0  0  0
    7.9739    1.3066    0.0000 H   0  0  0  0  0  0  0  0  0  0  0  0
    7.1768    1.3066    0.0000 H   0  0  0  0  0  0  0  0  0  0  0  0
    9.7059    1.3066    0.0000 H   0  0  0  0  0  0  0  0  0  0  0  0
    8.9089    1.3066    0.0000 H   0  0  0  0  0  0  0  0  0  0  0  0
   10.5025    1.1416    0.0000 H   0  0  0  0  0  0  0  0  0  0  0  0
    9.7749   -0.1433    0.0000 H   0  0  0  0  0  0  0  0  0  0  0  0
   10.5720   -0.1433    0.0000 H   0  0  0  0  0  0  0  0  0  0  0  0
   10.8274    2.4142    0.0000 H   0  0  0  0  0  0  0  0  0  0  0  0
   10.4289    1.7240    0.0000 H   0  0  0  0  0  0  0  0  0  0  0  0
   12.3040    2.8066    0.0000 H   0  0  0  0  0  0  0  0  0  0  0  0
   11.5070    2.8066    0.0000 H   0  0  0  0  0  0  0  0  0  0  0  0
   13.6583   -0.3230    0.0000 H   0  0  0  0  0  0  0  0  0  0  0  0
   13.6583    2.9862    0.0000 H   0  0  0  0  0  0  0  0  0  0  0  0
    5.0389    0.6487    0.0000 H   0  0  0  0  0  0  0  0  0  0  0  0
   15.1073    2.1645    0.0000 H   0  0  0  0  0  0  0  0  0  0  0  0
    2.8751   -1.7628    0.0000 H   0  0  0  0  0  0  0  0  0  0  0  0
    3.4537    0.9828    0.0000 H   0  0  0  0  0  0  0  0  0  0  0  0
   15.9737    0.6154    0.0000 H   0  0  0  0  0  0  0  0  0  0  0  0
   15.4332   -0.3125    0.0000 H   0  0  0  0  0  0  0  0  0  0  0  0
  1 30  1  0  0  0  0
  2  5  1  0  0  0  0
  2 22  1  0  0  0  0
  3 18  2  0  0  0  0
  4 10  1  0  0  0  0
  4 11  1  0  0  0  0
  4 12  1  0  0  0  0
  5 16  2  0  0  0  0
  6 26  1  0  0  0  0
  6 55  1  0  0  0  0
  6 56  1  0  0  0  0
  7  8  1  0  0  0  0
  7  9  1  0  0  0  0
  7 16  1  0  0  0  0
  7 31  1  0  0  0  0
  8 10  1  0  0  0  0
  8 32  1  0  0  0  0
  8 33  1  0  0  0  0
  9 11  1  0  0  0  0
  9 34  1  0  0  0  0
  9 35  1  0  0  0  0
 10 36  1  0  0  0  0
 10 37  1  0  0  0  0
 11 38  1  0  0  0  0
 11 39  1  0  0  0  0
 12 14  1  0  0  0  0
 12 40  1  0  0  0  0
 12 41  1  0  0  0  0
 13 14  1  0  0  0  0
 13 15  1  0  0  0  0
 13 18  1  0  0  0  0
 13 42  1  0  0  0  0
 14 43  1  0  0  0  0
 14 44  1  0  0  0  0
 15 17  1  0  0  0  0
 15 45  1  0  0  0  0
 15 46  1  0  0  0  0
 16 21  1  0  0  0  0
 17 19  1  0  0  0  0
 17 47  1  0  0  0  0
 17 48  1  0  0  0  0
 18 20  1  0  0  0  0
 19 20  2  0  0  0  0
 19 24  1  0  0  0  0
 20 23  1  0  0  0  0
 21 22  2  0  0  0  0
 21 25  1  0  0  0  0
 22 28  1  0  0  0  0
 23 26  2  0  0  0  0
 23 49  1  0  0  0  0
 24 27  2  0  0  0  0
 24 50  1  0  0  0  0
 25 29  2  0  0  0  0
 25 51  1  0  0  0  0
 26 27  1  0  0  0  0
 27 52  1  0  0  0  0
 28 30  2  0  0  0  0
 28 53  1  0  0  0  0
 29 30  1  0  0  0  0
 29 54  1  0  0  0  0
M  END
> <PUBCHEM_COMPOUND_CID>
76321107

> <PUBCHEM_COMPOUND_CANONICALIZED>
1

> <PUBCHEM_CACTVS_COMPLEXITY>
611

> <PUBCHEM_CACTVS_HBOND_ACCEPTOR>
6

> <PUBCHEM_CACTVS_HBOND_DONOR>
1

> <PUBCHEM_CACTVS_ROTATABLE_BOND>
4

> <PUBCHEM_CACTVS_SUBSKEYS>
AAADceB7MQAAAAAAAAAAAAAAAAAAAWAAAAA8YMEAAAAAAFjB9AAAHwAUAAAADQzBngwwxtNQAACpA6RyQgCCAAAkIgAomCE+bNoIJrqAlZOEMYBm0BmIycecyOCOiAAAQAAYAACQAASAADAAAAAAAAAAAA==

> <PUBCHEM_IUPAC_OPENEYE_NAME>
7-amino-2-[2-[4-(6-fluoro-1,2-benzoxazol-3-yl)-1-piperidyl]ethyl]tetralin-1-one

> <PUBCHEM_IUPAC_CAS_NAME>
7-amino-2-[2-[4-(6-fluoro-1,2-benzoxazol-3-yl)-1-piperidinyl]ethyl]-3,4-dihydro-2H-naphthalen-1-one

> <PUBCHEM_IUPAC_NAME_MARKUP>
7-amino-2-[2-[4-(6-fluoro-1,2-benzoxazol-3-yl)piperidin-1-yl]ethyl]-3,4-dihydro-2<I>H</I>-naphthalen-1-one

> <PUBCHEM_IUPAC_NAME>
7-amino-2-[2-[4-(6-fluoro-1,2-benzoxazol-3-yl)piperidin-1-yl]ethyl]-3,4-dihydro-2H-naphthalen-1-one

> <PUBCHEM_IUPAC_SYSTEMATIC_NAME>
7-azanyl-2-[2-[4-(6-fluoranyl-1,2-benzoxazol-3-yl)piperidin-1-yl]ethyl]-3,4-dihydro-2H-naphthalen-1-one

> <PUBCHEM_IUPAC_TRADITIONAL_NAME>
7-amino-2-[2-[4-(6-fluoroindoxazen-3-yl)piperidino]ethyl]tetralin-1-one

> <PUBCHEM_IUPAC_INCHI>
InChI=1S/C24H26FN3O2/c25-18-4-6-20-22(13-18)30-27-23(20)16-7-10-28(11-8-16)12-9-17-2-1-15-3-5-19(26)14-21(15)24(17)29/h3-6,13-14,16-17H,1-2,7-12,26H2

> <PUBCHEM_IUPAC_INCHIKEY>
IIHJPCWUEQCUOZ-UHFFFAOYSA-N

> <PUBCHEM_XLOGP3_AA>
3.9

> <PUBCHEM_EXACT_MASS>
407.20090524

> <PUBCHEM_MOLECULAR_FORMULA>
C24H26FN3O2

> <PUBCHEM_MOLECULAR_WEIGHT>
407.5

> <PUBCHEM_OPENEYE_CAN_SMILES>
C1CC2=C(C=C(C=C2)N)C(=O)C1CCN3CCC(CC3)C4=NOC5=C4C=CC(=C5)F

> <PUBCHEM_OPENEYE_ISO_SMILES>
C1CC2=C(C=C(C=C2)N)C(=O)C1CCN3CCC(CC3)C4=NOC5=C4C=CC(=C5)F

> <PUBCHEM_CACTVS_TPSA>
72.4

> <PUBCHEM_MONOISOTOPIC_WEIGHT>
407.20090524

> <PUBCHEM_TOTAL_CHARGE>
0

> <PUBCHEM_HEAVY_ATOM_COUNT>
30

> <PUBCHEM_ATOM_DEF_STEREO_COUNT>
0

> <PUBCHEM_ATOM_UDEF_STEREO_COUNT>
1

> <PUBCHEM_BOND_DEF_STEREO_COUNT>
0

> <PUBCHEM_BOND_UDEF_STEREO_COUNT>
0

> <PUBCHEM_ISOTOPIC_ATOM_COUNT>
0

> <PUBCHEM_COMPONENT_COUNT>
1

> <PUBCHEM_CACTVS_TAUTO_COUNT>
-1

> <PUBCHEM_COORDINATE_TYPE>
1
5
255

> <PUBCHEM_BONDANNOTATIONS>
13  14  3
16  21  8
19  20  8
19  24  8
2  22  8
2  5  8
20  23  8
21  22  8
21  25  8
22  28  8
23  26  8
24  27  8
25  29  8
26  27  8
28  30  8
29  30  8
5  16  8

$$$$
