145988913
  -OEChem-09292322392D

 60 63  0     1  0  0  0  0  0999 V2000
   11.0060    5.6679    0.0000 Cl  0  0  0  0  0  0  0  0  0  0  0  0
    2.9511   -6.0280    0.0000 F   0  0  0  0  0  0  0  0  0  0  0  0
    7.2018    4.4318    0.0000 O   0  0  0  0  0  0  0  0  0  0  0  0
    4.6759    0.8793    0.0000 O   0  0  0  0  0  0  0  0  0  0  0  0
    4.5388   -2.8370    0.0000 O   0  0  0  0  0  0  0  0  0  0  0  0
    3.4511    0.5108    0.0000 O   0  0  0  0  0  0  0  0  0  0  0  0
    6.5780    1.4974    0.0000 N   0  0  0  0  0  0  0  0  0  0  0  0
    4.2601   -1.0770    0.0000 N   0  0  0  0  0  0  0  0  0  0  0  0
    2.6420   -1.0770    0.0000 N   0  0  0  0  0  0  0  0  0  0  0  0
    6.9938    3.4537    0.0000 C   0  0  0  0  0  0  0  0  0  0  0  0
    5.8349    2.1665    0.0000 C   0  0  0  0  0  0  0  0  0  0  0  0
    7.5291    1.8064    0.0000 C   0  0  0  0  0  0  0  0  0  0  0  0
    6.0428    3.1447    0.0000 C   0  0  0  0  0  0  0  0  0  0  0  0
    7.7370    2.7846    0.0000 C   0  0  0  0  0  0  0  0  0  0  0  0
    6.3701    0.5192    0.0000 C   0  0  0  0  0  0  0  0  0  0  0  0
    5.4190    0.2102    0.0000 C   0  0  3  0  0  0  0  0  0  0  0  0
    5.2111   -0.7679    0.0000 C   0  0  0  0  0  0  0  0  0  0  0  0
    2.9511   -2.0280    0.0000 C   0  0  3  0  0  0  0  0  0  0  0  0
    3.9511   -2.0280    0.0000 C   0  0  0  0  0  0  0  0  0  0  0  0
    3.4511   -0.4892    0.0000 C   0  0  0  0  0  0  0  0  0  0  0  0
    2.9511   -3.0280    0.0000 C   0  0  0  0  0  0  0  0  0  0  0  0
    2.0000   -2.3370    0.0000 C   0  0  0  0  0  0  0  0  0  0  0  0
    8.1528    4.7408    0.0000 C   0  0  0  0  0  0  0  0  0  0  0  0
    3.8171   -3.5280    0.0000 C   0  0  0  0  0  0  0  0  0  0  0  0
    2.0850   -3.5280    0.0000 C   0  0  0  0  0  0  0  0  0  0  0  0
    3.8171   -4.5280    0.0000 C   0  0  0  0  0  0  0  0  0  0  0  0
    2.0850   -4.5280    0.0000 C   0  0  0  0  0  0  0  0  0  0  0  0
    8.3607    5.7190    0.0000 C   0  0  0  0  0  0  0  0  0  0  0  0
    8.8959    4.0717    0.0000 C   0  0  0  0  0  0  0  0  0  0  0  0
    2.9511   -5.0280    0.0000 C   0  0  0  0  0  0  0  0  0  0  0  0
    9.3118    6.0280    0.0000 C   0  0  0  0  0  0  0  0  0  0  0  0
    9.8470    4.3807    0.0000 C   0  0  0  0  0  0  0  0  0  0  0  0
   10.0549    5.3589    0.0000 C   0  0  0  0  0  0  0  0  0  0  0  0
    7.5835    3.6453    0.0000 H   0  0  0  0  0  0  0  0  0  0  0  0
    5.2600    2.3988    0.0000 H   0  0  0  0  0  0  0  0  0  0  0  0
    5.5063    1.6407    0.0000 H   0  0  0  0  0  0  0  0  0  0  0  0
    7.6154    1.1924    0.0000 H   0  0  0  0  0  0  0  0  0  0  0  0
    8.1487    1.7848    0.0000 H   0  0  0  0  0  0  0  0  0  0  0  0
    5.9565    3.7586    0.0000 H   0  0  0  0  0  0  0  0  0  0  0  0
    5.4232    3.1663    0.0000 H   0  0  0  0  0  0  0  0  0  0  0  0
    8.3118    2.5523    0.0000 H   0  0  0  0  0  0  0  0  0  0  0  0
    8.0655    3.3103    0.0000 H   0  0  0  0  0  0  0  0  0  0  0  0
    6.4564   -0.0947    0.0000 H   0  0  0  0  0  0  0  0  0  0  0  0
    6.9897    0.4976    0.0000 H   0  0  0  0  0  0  0  0  0  0  0  0
    4.8294    0.0186    0.0000 H   0  0  0  0  0  0  0  0  0  0  0  0
    5.2974   -1.3819    0.0000 H   0  0  0  0  0  0  0  0  0  0  0  0
    5.8308   -0.7896    0.0000 H   0  0  0  0  0  0  0  0  0  0  0  0
    2.0524   -0.8854    0.0000 H   0  0  0  0  0  0  0  0  0  0  0  0
    1.8084   -1.7474    0.0000 H   0  0  0  0  0  0  0  0  0  0  0  0
    1.4103   -2.5286    0.0000 H   0  0  0  0  0  0  0  0  0  0  0  0
    2.1916   -2.9267    0.0000 H   0  0  0  0  0  0  0  0  0  0  0  0
    4.8048    1.4858    0.0000 H   0  0  0  0  0  0  0  0  0  0  0  0
    4.3540   -3.2180    0.0000 H   0  0  0  0  0  0  0  0  0  0  0  0
    1.5481   -3.2180    0.0000 H   0  0  0  0  0  0  0  0  0  0  0  0
    4.3540   -4.8380    0.0000 H   0  0  0  0  0  0  0  0  0  0  0  0
    1.5481   -4.8380    0.0000 H   0  0  0  0  0  0  0  0  0  0  0  0
    7.9000    6.1338    0.0000 H   0  0  0  0  0  0  0  0  0  0  0  0
    8.7670    3.4653    0.0000 H   0  0  0  0  0  0  0  0  0  0  0  0
    9.4407    6.6345    0.0000 H   0  0  0  0  0  0  0  0  0  0  0  0
   10.3078    3.9659    0.0000 H   0  0  0  0  0  0  0  0  0  0  0  0
  1 33  1  0  0  0  0
  2 30  1  0  0  0  0
  3 10  1  0  0  0  0
  3 23  1  0  0  0  0
  4 16  1  0  0  0  0
  4 52  1  0  0  0  0
  5 19  2  0  0  0  0
  6 20  2  0  0  0  0
  7 11  1  0  0  0  0
  7 12  1  0  0  0  0
  7 15  1  0  0  0  0
  8 17  1  0  0  0  0
  8 19  1  0  0  0  0
  8 20  1  0  0  0  0
  9 18  1  0  0  0  0
  9 20  1  0  0  0  0
  9 48  1  0  0  0  0
 10 13  1  0  0  0  0
 10 14  1  0  0  0  0
 10 34  1  0  0  0  0
 11 13  1  0  0  0  0
 11 35  1  0  0  0  0
 11 36  1  0  0  0  0
 12 14  1  0  0  0  0
 12 37  1  0  0  0  0
 12 38  1  0  0  0  0
 13 39  1  0  0  0  0
 13 40  1  0  0  0  0
 14 41  1  0  0  0  0
 14 42  1  0  0  0  0
 15 16  1  0  0  0  0
 15 43  1  0  0  0  0
 15 44  1  0  0  0  0
 16 17  1  0  0  0  0
 16 45  1  0  0  0  0
 17 46  1  0  0  0  0
 17 47  1  0  0  0  0
 18 19  1  0  0  0  0
 18 21  1  0  0  0  0
 18 22  1  0  0  0  0
 21 24  2  0  0  0  0
 21 25  1  0  0  0  0
 22 49  1  0  0  0  0
 22 50  1  0  0  0  0
 22 51  1  0  0  0  0
 23 28  2  0  0  0  0
 23 29  1  0  0  0  0
 24 26  1  0  0  0  0
 24 53  1  0  0  0  0
 25 27  2  0  0  0  0
 25 54  1  0  0  0  0
 26 30  2  0  0  0  0
 26 55  1  0  0  0  0
 27 30  1  0  0  0  0
 27 56  1  0  0  0  0
 28 31  1  0  0  0  0
 28 57  1  0  0  0  0
 29 32  2  0  0  0  0
 29 58  1  0  0  0  0
 31 33  2  0  0  0  0
 31 59  1  0  0  0  0
 32 33  1  0  0  0  0
 32 60  1  0  0  0  0
M  END
> <PUBCHEM_COMPOUND_CID>
145988913

> <PUBCHEM_COMPOUND_CANONICALIZED>
1

> <PUBCHEM_CACTVS_COMPLEXITY>
691

> <PUBCHEM_CACTVS_HBOND_ACCEPTOR>
6

> <PUBCHEM_CACTVS_HBOND_DONOR>
2

> <PUBCHEM_CACTVS_ROTATABLE_BOND>
7

> <PUBCHEM_CACTVS_SUBSKEYS>
AAADceB7OQAEAAAAAAAAAAAAAAAAAWAAAAA8YIAAAAAAAAABQAAAHwIQCAAADJ7hmC4zBoPABgCIAiFSEACCCAAgJQAIiAGODoiOdjKF9zuWOCju1zOYqAeYyMCOgCAAAAAAAAAAQAAAAAAAAAAAAAAAAA==

> <PUBCHEM_IUPAC_OPENEYE_NAME>
3-[3-[4-(4-chlorophenoxy)-1-piperidyl]-2-hydroxy-propyl]-5-(4-fluorophenyl)-5-methyl-imidazolidine-2,4-dione

> <PUBCHEM_IUPAC_CAS_NAME>
3-[3-[4-(4-chlorophenoxy)-1-piperidinyl]-2-hydroxypropyl]-5-(4-fluorophenyl)-5-methylimidazolidine-2,4-dione

> <PUBCHEM_IUPAC_NAME_MARKUP>
3-[3-[4-(4-chlorophenoxy)piperidin-1-yl]-2-hydroxypropyl]-5-(4-fluorophenyl)-5-methylimidazolidine-2,4-dione

> <PUBCHEM_IUPAC_NAME>
3-[3-[4-(4-chlorophenoxy)piperidin-1-yl]-2-hydroxypropyl]-5-(4-fluorophenyl)-5-methylimidazolidine-2,4-dione

> <PUBCHEM_IUPAC_SYSTEMATIC_NAME>
3-[3-[4-(4-chloranylphenoxy)piperidin-1-yl]-2-oxidanyl-propyl]-5-(4-fluorophenyl)-5-methyl-imidazolidine-2,4-dione

> <PUBCHEM_IUPAC_TRADITIONAL_NAME>
3-[3-[4-(4-chlorophenoxy)piperidino]-2-hydroxy-propyl]-5-(4-fluorophenyl)-5-methyl-hydantoin

> <PUBCHEM_IUPAC_INCHI>
InChI=1S/C24H27ClFN3O4/c1-24(16-2-6-18(26)7-3-16)22(31)29(23(32)27-24)15-19(30)14-28-12-10-21(11-13-28)33-20-8-4-17(25)5-9-20/h2-9,19,21,30H,10-15H2,1H3,(H,27,32)

> <PUBCHEM_IUPAC_INCHIKEY>
LIMXTEILSDCZAA-UHFFFAOYSA-N

> <PUBCHEM_XLOGP3_AA>
3.4

> <PUBCHEM_EXACT_MASS>
475.1674122

> <PUBCHEM_MOLECULAR_FORMULA>
C24H27ClFN3O4

> <PUBCHEM_MOLECULAR_WEIGHT>
475.9

> <PUBCHEM_OPENEYE_CAN_SMILES>
CC1(C(=O)N(C(=O)N1)CC(CN2CCC(CC2)OC3=CC=C(C=C3)Cl)O)C4=CC=C(C=C4)F

> <PUBCHEM_OPENEYE_ISO_SMILES>
CC1(C(=O)N(C(=O)N1)CC(CN2CCC(CC2)OC3=CC=C(C=C3)Cl)O)C4=CC=C(C=C4)F

> <PUBCHEM_CACTVS_TPSA>
82.1

> <PUBCHEM_MONOISOTOPIC_WEIGHT>
475.1674122

> <PUBCHEM_TOTAL_CHARGE>
0

> <PUBCHEM_HEAVY_ATOM_COUNT>
33

> <PUBCHEM_ATOM_DEF_STEREO_COUNT>
0

> <PUBCHEM_ATOM_UDEF_STEREO_COUNT>
2

> <PUBCHEM_BOND_DEF_STEREO_COUNT>
0

> <PUBCHEM_BOND_UDEF_STEREO_COUNT>
0

> <PUBCHEM_ISOTOPIC_ATOM_COUNT>
0

> <PUBCHEM_COMPONENT_COUNT>
1

> <PUBCHEM_CACTVS_TAUTO_COUNT>
-1

> <PUBCHEM_COORDINATE_TYPE>
1
5
255

> <PUBCHEM_BONDANNOTATIONS>
18  22  3
21  24  8
21  25  8
23  28  8
23  29  8
24  26  8
25  27  8
26  30  8
27  30  8
28  31  8
29  32  8
31  33  8
32  33  8
16  4  3

$$$$
