44441218
  -OEChem-09292322262D

 51 54  0     1  0  0  0  0  0999 V2000
    2.0000   -1.1224    0.0000 F   0  0  0  0  0  0  0  0  0  0  0  0
   10.6603    1.8776    0.0000 O   0  0  0  0  0  0  0  0  0  0  0  0
    5.4641    1.8776    0.0000 O   0  0  0  0  0  0  0  0  0  0  0  0
    8.0622   -0.6224    0.0000 N   0  0  0  0  0  0  0  0  0  0  0  0
   12.4725   -0.9271    0.0000 N   0  0  0  0  0  0  0  0  0  0  0  0
   13.0561   -0.1224    0.0000 N   0  0  0  0  0  0  0  0  0  0  0  0
    9.7942   -0.6224    0.0000 C   0  0  3  0  0  0  0  0  0  0  0  0
    8.9282   -1.1224    0.0000 C   0  0  0  0  0  0  0  0  0  0  0  0
    6.3301    0.3776    0.0000 C   0  0  0  0  0  0  0  0  0  0  0  0
    7.1962   -1.1224    0.0000 C   0  0  0  0  0  0  0  0  0  0  0  0
    8.0622    0.3776    0.0000 C   0  0  0  0  0  0  0  0  0  0  0  0
    6.3301   -0.6224    0.0000 C   0  0  0  0  0  0  0  0  0  0  0  0
    7.1962    0.8776    0.0000 C   0  0  0  0  0  0  0  0  0  0  0  0
   10.6603   -1.1224    0.0000 C   0  0  0  0  0  0  0  0  0  0  0  0
    9.7942    0.3776    0.0000 C   0  0  0  0  0  0  0  0  0  0  0  0
   11.5263   -0.6224    0.0000 C   0  0  0  0  0  0  0  0  0  0  0  0
   10.6603    0.8776    0.0000 C   0  0  0  0  0  0  0  0  0  0  0  0
   11.5263    0.3776    0.0000 C   0  0  0  0  0  0  0  0  0  0  0  0
    5.4641    0.8776    0.0000 C   0  0  0  0  0  0  0  0  0  0  0  0
   12.4725    0.6824    0.0000 C   0  0  0  0  0  0  0  0  0  0  0  0
    4.5981    0.3776    0.0000 C   0  0  0  0  0  0  0  0  0  0  0  0
   12.7832   -1.8776    0.0000 C   0  0  0  0  0  0  0  0  0  0  0  0
    4.5981   -0.6224    0.0000 C   0  0  0  0  0  0  0  0  0  0  0  0
    3.7320    0.8776    0.0000 C   0  0  0  0  0  0  0  0  0  0  0  0
    3.7320   -1.1224    0.0000 C   0  0  0  0  0  0  0  0  0  0  0  0
    2.8660    0.3776    0.0000 C   0  0  0  0  0  0  0  0  0  0  0  0
    2.8660   -0.6224    0.0000 C   0  0  0  0  0  0  0  0  0  0  0  0
    9.2573   -0.3124    0.0000 H   0  0  0  0  0  0  0  0  0  0  0  0
    8.5297   -1.5973    0.0000 H   0  0  0  0  0  0  0  0  0  0  0  0
    9.3267   -1.5973    0.0000 H   0  0  0  0  0  0  0  0  0  0  0  0
    5.7932    0.0676    0.0000 H   0  0  0  0  0  0  0  0  0  0  0  0
    6.7976   -1.5973    0.0000 H   0  0  0  0  0  0  0  0  0  0  0  0
    7.5947   -1.5973    0.0000 H   0  0  0  0  0  0  0  0  0  0  0  0
    8.6728    0.2700    0.0000 H   0  0  0  0  0  0  0  0  0  0  0  0
    8.2742    0.9602    0.0000 H   0  0  0  0  0  0  0  0  0  0  0  0
    5.7196   -0.5147    0.0000 H   0  0  0  0  0  0  0  0  0  0  0  0
    6.1181   -1.2050    0.0000 H   0  0  0  0  0  0  0  0  0  0  0  0
    7.5947    1.3526    0.0000 H   0  0  0  0  0  0  0  0  0  0  0  0
    6.7976    1.3526    0.0000 H   0  0  0  0  0  0  0  0  0  0  0  0
   10.2617   -1.5973    0.0000 H   0  0  0  0  0  0  0  0  0  0  0  0
   11.0588   -1.5973    0.0000 H   0  0  0  0  0  0  0  0  0  0  0  0
    9.5822    0.9602    0.0000 H   0  0  0  0  0  0  0  0  0  0  0  0
    9.1836    0.2700    0.0000 H   0  0  0  0  0  0  0  0  0  0  0  0
   12.6651    1.2717    0.0000 H   0  0  0  0  0  0  0  0  0  0  0  0
   12.1938   -2.0702    0.0000 H   0  0  0  0  0  0  0  0  0  0  0  0
   12.9758   -2.4670    0.0000 H   0  0  0  0  0  0  0  0  0  0  0  0
   13.3725   -1.6850    0.0000 H   0  0  0  0  0  0  0  0  0  0  0  0
    5.1350   -0.9324    0.0000 H   0  0  0  0  0  0  0  0  0  0  0  0
    3.7320    1.4976    0.0000 H   0  0  0  0  0  0  0  0  0  0  0  0
    3.7320   -1.7424    0.0000 H   0  0  0  0  0  0  0  0  0  0  0  0
    2.3291    0.6876    0.0000 H   0  0  0  0  0  0  0  0  0  0  0  0
  1 27  1  0  0  0  0
  2 17  2  0  0  0  0
  3 19  2  0  0  0  0
  4  8  1  0  0  0  0
  4 10  1  0  0  0  0
  4 11  1  0  0  0  0
  5  6  1  0  0  0  0
  5 16  1  0  0  0  0
  5 22  1  0  0  0  0
  6 20  2  0  0  0  0
  7  8  1  0  0  0  0
  7 14  1  0  0  0  0
  7 15  1  0  0  0  0
  7 28  1  0  0  0  0
  8 29  1  0  0  0  0
  8 30  1  0  0  0  0
  9 12  1  0  0  0  0
  9 13  1  0  0  0  0
  9 19  1  0  0  0  0
  9 31  1  0  0  0  0
 10 12  1  0  0  0  0
 10 32  1  0  0  0  0
 10 33  1  0  0  0  0
 11 13  1  0  0  0  0
 11 34  1  0  0  0  0
 11 35  1  0  0  0  0
 12 36  1  0  0  0  0
 12 37  1  0  0  0  0
 13 38  1  0  0  0  0
 13 39  1  0  0  0  0
 14 16  1  0  0  0  0
 14 40  1  0  0  0  0
 14 41  1  0  0  0  0
 15 17  1  0  0  0  0
 15 42  1  0  0  0  0
 15 43  1  0  0  0  0
 16 18  2  0  0  0  0
 17 18  1  0  0  0  0
 18 20  1  0  0  0  0
 19 21  1  0  0  0  0
 20 44  1  0  0  0  0
 21 23  2  0  0  0  0
 21 24  1  0  0  0  0
 22 45  1  0  0  0  0
 22 46  1  0  0  0  0
 22 47  1  0  0  0  0
 23 25  1  0  0  0  0
 23 48  1  0  0  0  0
 24 26  2  0  0  0  0
 24 49  1  0  0  0  0
 25 27  2  0  0  0  0
 25 50  1  0  0  0  0
 26 27  1  0  0  0  0
 26 51  1  0  0  0  0
M  END
> <PUBCHEM_COMPOUND_CID>
44441218

> <PUBCHEM_COMPOUND_CANONICALIZED>
1

> <PUBCHEM_CACTVS_COMPLEXITY>
556

> <PUBCHEM_CACTVS_HBOND_ACCEPTOR>
5

> <PUBCHEM_CACTVS_HBOND_DONOR>
0

> <PUBCHEM_CACTVS_ROTATABLE_BOND>
4

> <PUBCHEM_CACTVS_SUBSKEYS>
AAADceB7MQAAAAAAAAAAAAAAAAAAAWAAAAA8YIAAAAAAAFgBwAAAHwAIAAAADQzBngw+gJMIAACqA7R3RACSBAAlgAAY2CE4RNgIILrA1dCEpYhgiADIycccicCeAAAAAAAAAACAAACAAAQAAAAAAAAAAA==

> <PUBCHEM_IUPAC_OPENEYE_NAME>
6-[[4-(4-fluorobenzoyl)-1-piperidyl]methyl]-1-methyl-6,7-dihydro-5H-indazol-4-one

> <PUBCHEM_IUPAC_CAS_NAME>
6-[[4-[(4-fluorophenyl)-oxomethyl]-1-piperidinyl]methyl]-1-methyl-6,7-dihydro-5H-indazol-4-one

> <PUBCHEM_IUPAC_NAME_MARKUP>
6-[[4-(4-fluorobenzoyl)piperidin-1-yl]methyl]-1-methyl-6,7-dihydro-5<I>H</I>-indazol-4-one

> <PUBCHEM_IUPAC_NAME>
6-[[4-(4-fluorobenzoyl)piperidin-1-yl]methyl]-1-methyl-6,7-dihydro-5H-indazol-4-one

> <PUBCHEM_IUPAC_SYSTEMATIC_NAME>
6-[[4-(4-fluorophenyl)carbonylpiperidin-1-yl]methyl]-1-methyl-6,7-dihydro-5H-indazol-4-one

> <PUBCHEM_IUPAC_TRADITIONAL_NAME>
6-[[4-(4-fluorobenzoyl)piperidino]methyl]-1-methyl-6,7-dihydro-5H-indazol-4-one

> <PUBCHEM_IUPAC_INCHI>
InChI=1S/C21H24FN3O2/c1-24-19-10-14(11-20(26)18(19)12-23-24)13-25-8-6-16(7-9-25)21(27)15-2-4-17(22)5-3-15/h2-5,12,14,16H,6-11,13H2,1H3

> <PUBCHEM_IUPAC_INCHIKEY>
OJJQKWWWAKJKCJ-UHFFFAOYSA-N

> <PUBCHEM_XLOGP3_AA>
2.2

> <PUBCHEM_EXACT_MASS>
369.18525518

> <PUBCHEM_MOLECULAR_FORMULA>
C21H24FN3O2

> <PUBCHEM_MOLECULAR_WEIGHT>
369.4

> <PUBCHEM_OPENEYE_CAN_SMILES>
CN1C2=C(C=N1)C(=O)CC(C2)CN3CCC(CC3)C(=O)C4=CC=C(C=C4)F

> <PUBCHEM_OPENEYE_ISO_SMILES>
CN1C2=C(C=N1)C(=O)CC(C2)CN3CCC(CC3)C(=O)C4=CC=C(C=C4)F

> <PUBCHEM_CACTVS_TPSA>
55.2

> <PUBCHEM_MONOISOTOPIC_WEIGHT>
369.18525518

> <PUBCHEM_TOTAL_CHARGE>
0

> <PUBCHEM_HEAVY_ATOM_COUNT>
27

> <PUBCHEM_ATOM_DEF_STEREO_COUNT>
0

> <PUBCHEM_ATOM_UDEF_STEREO_COUNT>
1

> <PUBCHEM_BOND_DEF_STEREO_COUNT>
0

> <PUBCHEM_BOND_UDEF_STEREO_COUNT>
0

> <PUBCHEM_ISOTOPIC_ATOM_COUNT>
0

> <PUBCHEM_COMPONENT_COUNT>
1

> <PUBCHEM_CACTVS_TAUTO_COUNT>
-1

> <PUBCHEM_COORDINATE_TYPE>
1
5
255

> <PUBCHEM_BONDANNOTATIONS>
16  18  8
18  20  8
21  23  8
21  24  8
23  25  8
24  26  8
25  27  8
26  27  8
5  16  8
5  6  8
6  20  8
7  8  3

$$$$
