168279047
  -OEChem-09292322452D

 63 67  0     0  0  0  0  0  0999 V2000
    8.1133    4.8290    0.0000 O   0  0  0  0  0  0  0  0  0  0  0  0
    8.1133    6.8983    0.0000 O   0  0  0  0  0  0  0  0  0  0  0  0
    2.0000   -3.9093    0.0000 O   0  0  0  0  0  0  0  0  0  0  0  0
    6.3533    1.8636    0.0000 N   0  0  0  0  0  0  0  0  0  0  0  0
    6.3533    3.8636    0.0000 N   0  0  0  0  0  0  0  0  0  0  0  0
    3.7552   -3.6364    0.0000 N   0  0  0  0  0  0  0  0  0  0  0  0
    3.2553   -5.1662    0.0000 N   0  0  0  0  0  0  0  0  0  0  0  0
    4.5600   -4.2200    0.0000 N   0  0  0  0  0  0  0  0  0  0  0  0
    7.2194    2.3636    0.0000 C   0  0  0  0  0  0  0  0  0  0  0  0
    5.4873    2.3636    0.0000 C   0  0  0  0  0  0  0  0  0  0  0  0
    7.2194    3.3636    0.0000 C   0  0  0  0  0  0  0  0  0  0  0  0
    5.4873    3.3636    0.0000 C   0  0  0  0  0  0  0  0  0  0  0  0
    6.3533    0.8636    0.0000 C   0  0  0  0  0  0  0  0  0  0  0  0
    5.4873    0.3636    0.0000 C   0  0  0  0  0  0  0  0  0  0  0  0
    5.4873   -0.6364    0.0000 C   0  0  0  0  0  0  0  0  0  0  0  0
    6.3533    4.8636    0.0000 C   0  0  0  0  0  0  0  0  0  0  0  0
    4.6213   -1.1364    0.0000 C   0  0  0  0  0  0  0  0  0  0  0  0
    4.6213   -2.1364    0.0000 C   0  0  0  0  0  0  0  0  0  0  0  0
    7.2194    5.3636    0.0000 C   0  0  0  0  0  0  0  0  0  0  0  0
    5.4873    5.3636    0.0000 C   0  0  0  0  0  0  0  0  0  0  0  0
    3.7552   -2.6364    0.0000 C   0  0  0  0  0  0  0  0  0  0  0  0
    7.2194    6.3636    0.0000 C   0  0  0  0  0  0  0  0  0  0  0  0
    5.4873    6.3636    0.0000 C   0  0  0  0  0  0  0  0  0  0  0  0
    6.3533    6.8636    0.0000 C   0  0  0  0  0  0  0  0  0  0  0  0
    9.0194    5.3428    0.0000 C   0  0  0  0  0  0  0  0  0  0  0  0
    9.0194    6.3844    0.0000 C   0  0  0  0  0  0  0  0  0  0  0  0
    2.9505   -4.2200    0.0000 C   0  0  0  0  0  0  0  0  0  0  0  0
    4.2552   -5.1662    0.0000 C   0  0  0  0  0  0  0  0  0  0  0  0
    2.7553   -6.0322    0.0000 C   0  0  0  0  0  0  0  0  0  0  0  0
    4.7552   -6.0322    0.0000 C   0  0  0  0  0  0  0  0  0  0  0  0
    3.2553   -6.8983    0.0000 C   0  0  0  0  0  0  0  0  0  0  0  0
    4.2552   -6.8983    0.0000 C   0  0  0  0  0  0  0  0  0  0  0  0
    7.4314    1.7810    0.0000 H   0  0  0  0  0  0  0  0  0  0  0  0
    7.8299    2.4713    0.0000 H   0  0  0  0  0  0  0  0  0  0  0  0
    4.8767    2.4713    0.0000 H   0  0  0  0  0  0  0  0  0  0  0  0
    5.2752    1.7810    0.0000 H   0  0  0  0  0  0  0  0  0  0  0  0
    7.8299    3.2560    0.0000 H   0  0  0  0  0  0  0  0  0  0  0  0
    7.4314    3.9462    0.0000 H   0  0  0  0  0  0  0  0  0  0  0  0
    5.2752    3.9462    0.0000 H   0  0  0  0  0  0  0  0  0  0  0  0
    4.8767    3.2560    0.0000 H   0  0  0  0  0  0  0  0  0  0  0  0
    6.5654    0.2810    0.0000 H   0  0  0  0  0  0  0  0  0  0  0  0
    6.9639    0.9713    0.0000 H   0  0  0  0  0  0  0  0  0  0  0  0
    5.2752    0.9462    0.0000 H   0  0  0  0  0  0  0  0  0  0  0  0
    4.8767    0.2559    0.0000 H   0  0  0  0  0  0  0  0  0  0  0  0
    5.6994   -1.2190    0.0000 H   0  0  0  0  0  0  0  0  0  0  0  0
    6.0979   -0.5287    0.0000 H   0  0  0  0  0  0  0  0  0  0  0  0
    4.4092   -0.5538    0.0000 H   0  0  0  0  0  0  0  0  0  0  0  0
    4.0107   -1.2441    0.0000 H   0  0  0  0  0  0  0  0  0  0  0  0
    4.8333   -2.7190    0.0000 H   0  0  0  0  0  0  0  0  0  0  0  0
    5.2319   -2.0287    0.0000 H   0  0  0  0  0  0  0  0  0  0  0  0
    4.9504    5.0536    0.0000 H   0  0  0  0  0  0  0  0  0  0  0  0
    3.5432   -2.0538    0.0000 H   0  0  0  0  0  0  0  0  0  0  0  0
    3.1447   -2.7440    0.0000 H   0  0  0  0  0  0  0  0  0  0  0  0
    4.9504    6.6736    0.0000 H   0  0  0  0  0  0  0  0  0  0  0  0
    6.3533    7.4836    0.0000 H   0  0  0  0  0  0  0  0  0  0  0  0
    9.2284    4.7591    0.0000 H   0  0  0  0  0  0  0  0  0  0  0  0
    9.6302    5.4489    0.0000 H   0  0  0  0  0  0  0  0  0  0  0  0
    9.6302    6.2783    0.0000 H   0  0  0  0  0  0  0  0  0  0  0  0
    9.2284    6.9681    0.0000 H   0  0  0  0  0  0  0  0  0  0  0  0
    2.1352   -6.0322    0.0000 H   0  0  0  0  0  0  0  0  0  0  0  0
    5.3752   -6.0322    0.0000 H   0  0  0  0  0  0  0  0  0  0  0  0
    2.9452   -7.4352    0.0000 H   0  0  0  0  0  0  0  0  0  0  0  0
    4.5652   -7.4352    0.0000 H   0  0  0  0  0  0  0  0  0  0  0  0
  1 19  1  0  0  0  0
  1 25  1  0  0  0  0
  2 22  1  0  0  0  0
  2 26  1  0  0  0  0
  3 27  2  0  0  0  0
  4  9  1  0  0  0  0
  4 10  1  0  0  0  0
  4 13  1  0  0  0  0
  5 11  1  0  0  0  0
  5 12  1  0  0  0  0
  5 16  1  0  0  0  0
  6  8  1  0  0  0  0
  6 21  1  0  0  0  0
  6 27  1  0  0  0  0
  7 27  1  0  0  0  0
  7 28  1  0  0  0  0
  7 29  1  0  0  0  0
  8 28  2  0  0  0  0
  9 11  1  0  0  0  0
  9 33  1  0  0  0  0
  9 34  1  0  0  0  0
 10 12  1  0  0  0  0
 10 35  1  0  0  0  0
 10 36  1  0  0  0  0
 11 37  1  0  0  0  0
 11 38  1  0  0  0  0
 12 39  1  0  0  0  0
 12 40  1  0  0  0  0
 13 14  1  0  0  0  0
 13 41  1  0  0  0  0
 13 42  1  0  0  0  0
 14 15  1  0  0  0  0
 14 43  1  0  0  0  0
 14 44  1  0  0  0  0
 15 17  1  0  0  0  0
 15 45  1  0  0  0  0
 15 46  1  0  0  0  0
 16 19  2  0  0  0  0
 16 20  1  0  0  0  0
 17 18  1  0  0  0  0
 17 47  1  0  0  0  0
 17 48  1  0  0  0  0
 18 21  1  0  0  0  0
 18 49  1  0  0  0  0
 18 50  1  0  0  0  0
 19 22  1  0  0  0  0
 20 23  2  0  0  0  0
 20 51  1  0  0  0  0
 21 52  1  0  0  0  0
 21 53  1  0  0  0  0
 22 24  2  0  0  0  0
 23 24  1  0  0  0  0
 23 54  1  0  0  0  0
 24 55  1  0  0  0  0
 25 26  1  0  0  0  0
 25 56  1  0  0  0  0
 25 57  1  0  0  0  0
 26 58  1  0  0  0  0
 26 59  1  0  0  0  0
 28 30  1  0  0  0  0
 29 31  2  0  0  0  0
 29 60  1  0  0  0  0
 30 32  2  0  0  0  0
 30 61  1  0  0  0  0
 31 32  1  0  0  0  0
 31 62  1  0  0  0  0
 32 63  1  0  0  0  0
M  END
> <PUBCHEM_COMPOUND_CID>
168279047

> <PUBCHEM_COMPOUND_CANONICALIZED>
1

> <PUBCHEM_CACTVS_COMPLEXITY>
746

> <PUBCHEM_CACTVS_HBOND_ACCEPTOR>
6

> <PUBCHEM_CACTVS_HBOND_DONOR>
0

> <PUBCHEM_CACTVS_ROTATABLE_BOND>
8

> <PUBCHEM_CACTVS_SUBSKEYS>
AAADceB7sAAAAAAAAAAAAAAAAAAAAQAAAAA8SIEAAAAAAECRAAAAHgAIAAAACAzhkAYxxoMABACoACZmcACSCAAhIgAfiAAf7JiPZiLEsZuXOCruzhva6AeQUAMAAAAAAgAAUAAAAAAEAACgAAAAAAAAAA==

> <PUBCHEM_IUPAC_OPENEYE_NAME>
2-[6-[4-(2,3-dihydro-1,4-benzodioxin-5-yl)piperazin-1-yl]hexyl]-[1,2,4]triazolo[4,3-a]pyridin-3-one

> <PUBCHEM_IUPAC_CAS_NAME>
2-[6-[4-(2,3-dihydro-1,4-benzodioxin-5-yl)-1-piperazinyl]hexyl]-[1,2,4]triazolo[4,3-a]pyridin-3-one

> <PUBCHEM_IUPAC_NAME_MARKUP>
2-[6-[4-(2,3-dihydro-1,4-benzodioxin-5-yl)piperazin-1-yl]hexyl]-[1,2,4]triazolo[4,3-a]pyridin-3-one

> <PUBCHEM_IUPAC_NAME>
2-[6-[4-(2,3-dihydro-1,4-benzodioxin-5-yl)piperazin-1-yl]hexyl]-[1,2,4]triazolo[4,3-a]pyridin-3-one

> <PUBCHEM_IUPAC_SYSTEMATIC_NAME>
2-[6-[4-(2,3-dihydro-1,4-benzodioxin-5-yl)piperazin-1-yl]hexyl]-[1,2,4]triazolo[4,3-a]pyridin-3-one

> <PUBCHEM_IUPAC_TRADITIONAL_NAME>
2-[6-[4-(2,3-dihydro-1,4-benzodioxin-5-yl)piperazino]hexyl]-[1,2,4]triazolo[4,3-a]pyridin-3-one

> <PUBCHEM_IUPAC_INCHI>
InChI=1S/C24H31N5O3/c30-24-28-12-6-3-10-22(28)25-29(24)13-5-2-1-4-11-26-14-16-27(17-15-26)20-8-7-9-21-23(20)32-19-18-31-21/h3,6-10,12H,1-2,4-5,11,13-19H2

> <PUBCHEM_IUPAC_INCHIKEY>
MCEZEYQBZANHFL-UHFFFAOYSA-N

> <PUBCHEM_XLOGP3_AA>
3

> <PUBCHEM_EXACT_MASS>
437.24268987

> <PUBCHEM_MOLECULAR_FORMULA>
C24H31N5O3

> <PUBCHEM_MOLECULAR_WEIGHT>
437.5

> <PUBCHEM_OPENEYE_CAN_SMILES>
C1CN(CCN1CCCCCCN2C(=O)N3C=CC=CC3=N2)C4=C5C(=CC=C4)OCCO5

> <PUBCHEM_OPENEYE_ISO_SMILES>
C1CN(CCN1CCCCCCN2C(=O)N3C=CC=CC3=N2)C4=C5C(=CC=C4)OCCO5

> <PUBCHEM_CACTVS_TPSA>
60.8

> <PUBCHEM_MONOISOTOPIC_WEIGHT>
437.24268987

> <PUBCHEM_TOTAL_CHARGE>
0

> <PUBCHEM_HEAVY_ATOM_COUNT>
32

> <PUBCHEM_ATOM_DEF_STEREO_COUNT>
0

> <PUBCHEM_ATOM_UDEF_STEREO_COUNT>
0

> <PUBCHEM_BOND_DEF_STEREO_COUNT>
0

> <PUBCHEM_BOND_UDEF_STEREO_COUNT>
0

> <PUBCHEM_ISOTOPIC_ATOM_COUNT>
0

> <PUBCHEM_COMPONENT_COUNT>
1

> <PUBCHEM_CACTVS_TAUTO_COUNT>
-1

> <PUBCHEM_COORDINATE_TYPE>
1
5
255

> <PUBCHEM_BONDANNOTATIONS>
16  19  8
16  20  8
19  22  8
20  23  8
22  24  8
23  24  8
28  30  8
29  31  8
30  32  8
31  32  8
6  27  8
6  8  8
7  27  8
7  28  8
7  29  8
8  28  8

$$$$
