145988497
  -OEChem-09292322062D

 58 62  0     1  0  0  0  0  0999 V2000
    7.3044   -5.8391    0.0000 S   0  0  0  0  0  0  0  0  0  0  0  0
    5.5202    3.2444    0.0000 O   0  0  0  0  0  0  0  0  0  0  0  0
    2.0000    3.2444    0.0000 O   0  0  0  0  0  0  0  0  0  0  0  0
    3.7601    2.9657    0.0000 N   0  0  0  0  0  0  0  0  0  0  0  0
    5.4921   -1.0343    0.0000 N   0  0  0  0  0  0  0  0  0  0  0  0
    5.4921   -3.0343    0.0000 N   0  0  0  0  0  0  0  0  0  0  0  0
    4.2601    4.5045    0.0000 C   0  0  3  0  0  0  0  0  0  0  0  0
    3.2601    4.5045    0.0000 C   0  0  3  0  0  0  0  0  0  0  0  0
    4.5648    5.4507    0.0000 C   0  0  0  0  0  0  0  0  0  0  0  0
    2.9553    5.4507    0.0000 C   0  0  0  0  0  0  0  0  0  0  0  0
    3.7601    6.0343    0.0000 C   0  0  0  0  0  0  0  0  0  0  0  0
    4.5691    3.5534    0.0000 C   0  0  0  0  0  0  0  0  0  0  0  0
    2.9511    3.5534    0.0000 C   0  0  0  0  0  0  0  0  0  0  0  0
    3.7601    1.9657    0.0000 C   0  0  0  0  0  0  0  0  0  0  0  0
    4.6261    1.4657    0.0000 C   0  0  0  0  0  0  0  0  0  0  0  0
    4.6261    0.4657    0.0000 C   0  0  0  0  0  0  0  0  0  0  0  0
    5.4921   -0.0343    0.0000 C   0  0  0  0  0  0  0  0  0  0  0  0
    6.3582   -1.5343    0.0000 C   0  0  0  0  0  0  0  0  0  0  0  0
    4.6261   -1.5343    0.0000 C   0  0  0  0  0  0  0  0  0  0  0  0
    6.3582   -2.5343    0.0000 C   0  0  0  0  0  0  0  0  0  0  0  0
    4.6261   -2.5343    0.0000 C   0  0  0  0  0  0  0  0  0  0  0  0
    5.4921   -4.0343    0.0000 C   0  0  0  0  0  0  0  0  0  0  0  0
    6.3582   -4.5343    0.0000 C   0  0  0  0  0  0  0  0  0  0  0  0
    4.6261   -4.5343    0.0000 C   0  0  0  0  0  0  0  0  0  0  0  0
    6.3582   -5.5343    0.0000 C   0  0  0  0  0  0  0  0  0  0  0  0
    7.3044   -4.2296    0.0000 C   0  0  0  0  0  0  0  0  0  0  0  0
    4.6261   -5.5343    0.0000 C   0  0  0  0  0  0  0  0  0  0  0  0
    5.4921   -6.0343    0.0000 C   0  0  0  0  0  0  0  0  0  0  0  0
    7.8880   -5.0343    0.0000 C   0  0  0  0  0  0  0  0  0  0  0  0
    4.8801    4.5053    0.0000 H   0  0  0  0  0  0  0  0  0  0  0  0
    2.6401    4.5053    0.0000 H   0  0  0  0  0  0  0  0  0  0  0  0
    5.1317    5.1997    0.0000 H   0  0  0  0  0  0  0  0  0  0  0  0
    4.8740    5.9881    0.0000 H   0  0  0  0  0  0  0  0  0  0  0  0
    2.6461    5.9881    0.0000 H   0  0  0  0  0  0  0  0  0  0  0  0
    2.3884    5.1997    0.0000 H   0  0  0  0  0  0  0  0  0  0  0  0
    4.1748    6.4952    0.0000 H   0  0  0  0  0  0  0  0  0  0  0  0
    3.3454    6.4952    0.0000 H   0  0  0  0  0  0  0  0  0  0  0  0
    3.1495    2.0733    0.0000 H   0  0  0  0  0  0  0  0  0  0  0  0
    3.5480    1.3831    0.0000 H   0  0  0  0  0  0  0  0  0  0  0  0
    5.2367    1.3580    0.0000 H   0  0  0  0  0  0  0  0  0  0  0  0
    4.8382    2.0483    0.0000 H   0  0  0  0  0  0  0  0  0  0  0  0
    4.0155    0.5733    0.0000 H   0  0  0  0  0  0  0  0  0  0  0  0
    4.4140   -0.1169    0.0000 H   0  0  0  0  0  0  0  0  0  0  0  0
    6.1027   -0.1420    0.0000 H   0  0  0  0  0  0  0  0  0  0  0  0
    5.7042    0.5483    0.0000 H   0  0  0  0  0  0  0  0  0  0  0  0
    6.9687   -1.6420    0.0000 H   0  0  0  0  0  0  0  0  0  0  0  0
    6.5702   -0.9517    0.0000 H   0  0  0  0  0  0  0  0  0  0  0  0
    4.4140   -0.9517    0.0000 H   0  0  0  0  0  0  0  0  0  0  0  0
    4.0155   -1.6420    0.0000 H   0  0  0  0  0  0  0  0  0  0  0  0
    6.5702   -3.1169    0.0000 H   0  0  0  0  0  0  0  0  0  0  0  0
    6.9687   -2.4267    0.0000 H   0  0  0  0  0  0  0  0  0  0  0  0
    4.0155   -2.4267    0.0000 H   0  0  0  0  0  0  0  0  0  0  0  0
    4.4140   -3.1169    0.0000 H   0  0  0  0  0  0  0  0  0  0  0  0
    4.0892   -4.2243    0.0000 H   0  0  0  0  0  0  0  0  0  0  0  0
    7.4970   -3.6403    0.0000 H   0  0  0  0  0  0  0  0  0  0  0  0
    4.0892   -5.8443    0.0000 H   0  0  0  0  0  0  0  0  0  0  0  0
    5.4921   -6.6543    0.0000 H   0  0  0  0  0  0  0  0  0  0  0  0
    8.5080   -5.0343    0.0000 H   0  0  0  0  0  0  0  0  0  0  0  0
  1 25  1  0  0  0  0
  1 29  1  0  0  0  0
  2 12  2  0  0  0  0
  3 13  2  0  0  0  0
  4 12  1  0  0  0  0
  4 13  1  0  0  0  0
  4 14  1  0  0  0  0
  5 17  1  0  0  0  0
  5 18  1  0  0  0  0
  5 19  1  0  0  0  0
  6 20  1  0  0  0  0
  6 21  1  0  0  0  0
  6 22  1  0  0  0  0
  7  8  1  0  0  0  0
  7  9  1  0  0  0  0
  7 12  1  0  0  0  0
  7 30  1  0  0  0  0
  8 10  1  0  0  0  0
  8 13  1  0  0  0  0
  8 31  1  0  0  0  0
  9 11  1  0  0  0  0
  9 32  1  0  0  0  0
  9 33  1  0  0  0  0
 10 11  1  0  0  0  0
 10 34  1  0  0  0  0
 10 35  1  0  0  0  0
 11 36  1  0  0  0  0
 11 37  1  0  0  0  0
 14 15  1  0  0  0  0
 14 38  1  0  0  0  0
 14 39  1  0  0  0  0
 15 16  1  0  0  0  0
 15 40  1  0  0  0  0
 15 41  1  0  0  0  0
 16 17  1  0  0  0  0
 16 42  1  0  0  0  0
 16 43  1  0  0  0  0
 17 44  1  0  0  0  0
 17 45  1  0  0  0  0
 18 20  1  0  0  0  0
 18 46  1  0  0  0  0
 18 47  1  0  0  0  0
 19 21  1  0  0  0  0
 19 48  1  0  0  0  0
 19 49  1  0  0  0  0
 20 50  1  0  0  0  0
 20 51  1  0  0  0  0
 21 52  1  0  0  0  0
 21 53  1  0  0  0  0
 22 23  2  0  0  0  0
 22 24  1  0  0  0  0
 23 25  1  0  0  0  0
 23 26  1  0  0  0  0
 24 27  2  0  0  0  0
 24 54  1  0  0  0  0
 25 28  2  0  0  0  0
 26 29  2  0  0  0  0
 26 55  1  0  0  0  0
 27 28  1  0  0  0  0
 27 56  1  0  0  0  0
 28 57  1  0  0  0  0
 29 58  1  0  0  0  0
M  END
> <PUBCHEM_COMPOUND_CID>
145988497

> <PUBCHEM_COMPOUND_CANONICALIZED>
1

> <PUBCHEM_CACTVS_COMPLEXITY>
599

> <PUBCHEM_CACTVS_HBOND_ACCEPTOR>
5

> <PUBCHEM_CACTVS_HBOND_DONOR>
0

> <PUBCHEM_CACTVS_ROTATABLE_BOND>
6

> <PUBCHEM_CACTVS_SUBSKEYS>
AAADceB7MABAAAAAAAAAAAAAAAAAAeJEAAA8QAAAAAAWAEgB8AAAHgQAAAAADQjF2ASwwcMAAAiMAiVSUACDAIAhChBIiBkIZIgIYDLgkZGUIAxghiDoyAcdiICOgAAAACAGAAAAAAAAQAwAAAAACAAAAA==

> <PUBCHEM_IUPAC_OPENEYE_NAME>
2-[4-[4-(benzothiophen-4-yl)piperazin-1-yl]butyl]-4,5,6,6a-tetrahydro-3aH-cyclopenta[c]pyrrole-1,3-dione

> <PUBCHEM_IUPAC_CAS_NAME>
2-[4-[4-(1-benzothiophen-4-yl)-1-piperazinyl]butyl]-4,5,6,6a-tetrahydro-3aH-cyclopenta[c]pyrrole-1,3-dione

> <PUBCHEM_IUPAC_NAME_MARKUP>
2-[4-[4-(1-benzothiophen-4-yl)piperazin-1-yl]butyl]-4,5,6,6<I>a</I>-tetrahydro-3<I>a</I><I>H</I>-cyclopenta[c]pyrrole-1,3-dione

> <PUBCHEM_IUPAC_NAME>
2-[4-[4-(1-benzothiophen-4-yl)piperazin-1-yl]butyl]-4,5,6,6a-tetrahydro-3aH-cyclopenta[c]pyrrole-1,3-dione

> <PUBCHEM_IUPAC_SYSTEMATIC_NAME>
2-[4-[4-(1-benzothiophen-4-yl)piperazin-1-yl]butyl]-4,5,6,6a-tetrahydro-3aH-cyclopenta[c]pyrrole-1,3-dione

> <PUBCHEM_IUPAC_TRADITIONAL_NAME>
2-[4-[4-(benzothiophen-4-yl)piperazino]butyl]-4,5,6,6a-tetrahydro-3aH-cyclopenta[c]pyrrole-1,3-quinone

> <PUBCHEM_IUPAC_INCHI>
InChI=1S/C23H29N3O2S/c27-22-17-5-3-6-18(17)23(28)26(22)11-2-1-10-24-12-14-25(15-13-24)20-7-4-8-21-19(20)9-16-29-21/h4,7-9,16-18H,1-3,5-6,10-15H2

> <PUBCHEM_IUPAC_INCHIKEY>
ZSDLULFCEDZUGK-UHFFFAOYSA-N

> <PUBCHEM_XLOGP3_AA>
3.6

> <PUBCHEM_EXACT_MASS>
411.19804835

> <PUBCHEM_MOLECULAR_FORMULA>
C23H29N3O2S

> <PUBCHEM_MOLECULAR_WEIGHT>
411.6

> <PUBCHEM_OPENEYE_CAN_SMILES>
C1CC2C(C1)C(=O)N(C2=O)CCCCN3CCN(CC3)C4=C5C=CSC5=CC=C4

> <PUBCHEM_OPENEYE_ISO_SMILES>
C1CC2C(C1)C(=O)N(C2=O)CCCCN3CCN(CC3)C4=C5C=CSC5=CC=C4

> <PUBCHEM_CACTVS_TPSA>
72.1

> <PUBCHEM_MONOISOTOPIC_WEIGHT>
411.19804835

> <PUBCHEM_TOTAL_CHARGE>
0

> <PUBCHEM_HEAVY_ATOM_COUNT>
29

> <PUBCHEM_ATOM_DEF_STEREO_COUNT>
0

> <PUBCHEM_ATOM_UDEF_STEREO_COUNT>
2

> <PUBCHEM_BOND_DEF_STEREO_COUNT>
0

> <PUBCHEM_BOND_UDEF_STEREO_COUNT>
0

> <PUBCHEM_ISOTOPIC_ATOM_COUNT>
0

> <PUBCHEM_COMPONENT_COUNT>
1

> <PUBCHEM_CACTVS_TAUTO_COUNT>
-1

> <PUBCHEM_COORDINATE_TYPE>
1
5
255

> <PUBCHEM_BONDANNOTATIONS>
1  25  8
1  29  8
22  23  8
22  24  8
23  25  8
23  26  8
24  27  8
25  28  8
26  29  8
27  28  8
7  9  3
8  10  3

$$$$
