56837636
  -OEChem-09292322322D

133138  0     0  0  0  0  0  0999 V2000
    2.8660  -13.7500    0.0000 O   0  0  0  0  0  0  0  0  0  0  0  0
   19.3205   14.7500    0.0000 O   0  0  0  0  0  0  0  0  0  0  0  0
    5.4641   -6.2500    0.0000 O   0  0  0  0  0  0  0  0  0  0  0  0
   14.1244    8.7500    0.0000 O   0  0  0  0  0  0  0  0  0  0  0  0
    8.0622   -3.7500    0.0000 O   0  0  0  0  0  0  0  0  0  0  0  0
   13.2583    5.2500    0.0000 O   0  0  0  0  0  0  0  0  0  0  0  0
    9.7942   -1.7500    0.0000 O   0  0  0  0  0  0  0  0  0  0  0  0
   12.3923    2.7500    0.0000 O   0  0  0  0  0  0  0  0  0  0  0  0
   10.6603    0.7500    0.0000 O   0  0  0  0  0  0  0  0  0  0  0  0
    4.5981  -10.7500    0.0000 N   0  0  0  0  0  0  0  0  0  0  0  0
   17.5885   11.7500    0.0000 N   0  0  0  0  0  0  0  0  0  0  0  0
    4.5981  -12.7500    0.0000 N   0  0  0  0  0  0  0  0  0  0  0  0
   19.3205   12.7500    0.0000 N   0  0  0  0  0  0  0  0  0  0  0  0
    6.3301   -7.7500    0.0000 N   0  0  0  0  0  0  0  0  0  0  0  0
   15.8564    8.7500    0.0000 N   0  0  0  0  0  0  0  0  0  0  0  0
    3.7320  -11.2500    0.0000 C   0  0  0  0  0  0  0  0  0  0  0  0
    5.4641  -11.2500    0.0000 C   0  0  0  0  0  0  0  0  0  0  0  0
   18.4545   11.2500    0.0000 C   0  0  0  0  0  0  0  0  0  0  0  0
   17.5885   12.7500    0.0000 C   0  0  0  0  0  0  0  0  0  0  0  0
    3.7320  -12.2500    0.0000 C   0  0  0  0  0  0  0  0  0  0  0  0
    5.4641  -12.2500    0.0000 C   0  0  0  0  0  0  0  0  0  0  0  0
   19.3205   11.7500    0.0000 C   0  0  0  0  0  0  0  0  0  0  0  0
   18.4545   13.2500    0.0000 C   0  0  0  0  0  0  0  0  0  0  0  0
    4.5981   -9.7500    0.0000 C   0  0  0  0  0  0  0  0  0  0  0  0
   16.7224   11.2500    0.0000 C   0  0  0  0  0  0  0  0  0  0  0  0
    5.4641   -9.2500    0.0000 C   0  0  0  0  0  0  0  0  0  0  0  0
   16.7224   10.2500    0.0000 C   0  0  0  0  0  0  0  0  0  0  0  0
    4.5981  -13.7500    0.0000 C   0  0  0  0  0  0  0  0  0  0  0  0
   20.1865   13.2500    0.0000 C   0  0  0  0  0  0  0  0  0  0  0  0
    5.4641   -8.2500    0.0000 C   0  0  0  0  0  0  0  0  0  0  0  0
   15.8564    9.7500    0.0000 C   0  0  0  0  0  0  0  0  0  0  0  0
    3.7320  -14.2500    0.0000 C   0  0  0  0  0  0  0  0  0  0  0  0
   20.1865   14.2500    0.0000 C   0  0  0  0  0  0  0  0  0  0  0  0
    5.4641  -14.2500    0.0000 C   0  0  0  0  0  0  0  0  0  0  0  0
   21.0526   12.7500    0.0000 C   0  0  0  0  0  0  0  0  0  0  0  0
    3.7320  -15.2500    0.0000 C   0  0  0  0  0  0  0  0  0  0  0  0
   21.0526   14.7500    0.0000 C   0  0  0  0  0  0  0  0  0  0  0  0
    5.4641  -15.2500    0.0000 C   0  0  0  0  0  0  0  0  0  0  0  0
   21.9186   13.2500    0.0000 C   0  0  0  0  0  0  0  0  0  0  0  0
    4.5981  -15.7500    0.0000 C   0  0  0  0  0  0  0  0  0  0  0  0
   21.9186   14.2500    0.0000 C   0  0  0  0  0  0  0  0  0  0  0  0
    6.3301   -6.7500    0.0000 C   0  0  0  0  0  0  0  0  0  0  0  0
   14.9904    8.2500    0.0000 C   0  0  0  0  0  0  0  0  0  0  0  0
    2.0000  -14.2500    0.0000 C   0  0  0  0  0  0  0  0  0  0  0  0
   19.3205   15.7500    0.0000 C   0  0  0  0  0  0  0  0  0  0  0  0
    7.1962   -6.2500    0.0000 C   0  0  0  0  0  0  0  0  0  0  0  0
   14.9904    7.2500    0.0000 C   0  0  0  0  0  0  0  0  0  0  0  0
    7.1962   -5.2500    0.0000 C   0  0  0  0  0  0  0  0  0  0  0  0
   14.1244    6.7500    0.0000 C   0  0  0  0  0  0  0  0  0  0  0  0
    8.0622   -6.7500    0.0000 C   0  0  0  0  0  0  0  0  0  0  0  0
   15.8564    6.7500    0.0000 C   0  0  0  0  0  0  0  0  0  0  0  0
    8.0622   -4.7500    0.0000 C   0  0  0  0  0  0  0  0  0  0  0  0
   14.1244    5.7500    0.0000 C   0  0  0  0  0  0  0  0  0  0  0  0
    8.9282   -6.2500    0.0000 C   0  0  0  0  0  0  0  0  0  0  0  0
   15.8564    5.7500    0.0000 C   0  0  0  0  0  0  0  0  0  0  0  0
    8.9282   -5.2500    0.0000 C   0  0  0  0  0  0  0  0  0  0  0  0
   14.9904    5.2500    0.0000 C   0  0  0  0  0  0  0  0  0  0  0  0
    8.9282   -3.2500    0.0000 C   0  0  0  0  0  0  0  0  0  0  0  0
   13.2583    4.2500    0.0000 C   0  0  0  0  0  0  0  0  0  0  0  0
    8.9282   -2.2500    0.0000 C   0  0  0  0  0  0  0  0  0  0  0  0
   12.3923    3.7500    0.0000 C   0  0  0  0  0  0  0  0  0  0  0  0
    9.7942   -0.7500    0.0000 C   0  0  0  0  0  0  0  0  0  0  0  0
   11.5263    2.2500    0.0000 C   0  0  0  0  0  0  0  0  0  0  0  0
   10.6603   -0.2500    0.0000 C   0  0  0  0  0  0  0  0  0  0  0  0
   11.5263    1.2500    0.0000 C   0  0  0  0  0  0  0  0  0  0  0  0
    3.5200  -10.6674    0.0000 H   0  0  0  0  0  0  0  0  0  0  0  0
    3.1215  -11.3577    0.0000 H   0  0  0  0  0  0  0  0  0  0  0  0
    6.0747  -11.3577    0.0000 H   0  0  0  0  0  0  0  0  0  0  0  0
    5.6762  -10.6674    0.0000 H   0  0  0  0  0  0  0  0  0  0  0  0
   18.0560   10.7751    0.0000 H   0  0  0  0  0  0  0  0  0  0  0  0
   18.8530   10.7751    0.0000 H   0  0  0  0  0  0  0  0  0  0  0  0
   17.3764   13.3326    0.0000 H   0  0  0  0  0  0  0  0  0  0  0  0
   16.9779   12.6423    0.0000 H   0  0  0  0  0  0  0  0  0  0  0  0
    3.1215  -12.1423    0.0000 H   0  0  0  0  0  0  0  0  0  0  0  0
    3.5200  -12.8326    0.0000 H   0  0  0  0  0  0  0  0  0  0  0  0
    5.6762  -12.8326    0.0000 H   0  0  0  0  0  0  0  0  0  0  0  0
    6.0747  -12.1423    0.0000 H   0  0  0  0  0  0  0  0  0  0  0  0
   19.5326   11.1674    0.0000 H   0  0  0  0  0  0  0  0  0  0  0  0
   19.9311   11.8577    0.0000 H   0  0  0  0  0  0  0  0  0  0  0  0
   18.8530   13.7249    0.0000 H   0  0  0  0  0  0  0  0  0  0  0  0
   18.0560   13.7249    0.0000 H   0  0  0  0  0  0  0  0  0  0  0  0
    4.3860   -9.1674    0.0000 H   0  0  0  0  0  0  0  0  0  0  0  0
    3.9875   -9.8577    0.0000 H   0  0  0  0  0  0  0  0  0  0  0  0
   16.5104   11.8326    0.0000 H   0  0  0  0  0  0  0  0  0  0  0  0
   16.1119   11.1423    0.0000 H   0  0  0  0  0  0  0  0  0  0  0  0
    5.6762   -9.8326    0.0000 H   0  0  0  0  0  0  0  0  0  0  0  0
    6.0747   -9.1423    0.0000 H   0  0  0  0  0  0  0  0  0  0  0  0
   16.9345    9.6674    0.0000 H   0  0  0  0  0  0  0  0  0  0  0  0
   17.3330   10.3577    0.0000 H   0  0  0  0  0  0  0  0  0  0  0  0
    5.2520   -7.6674    0.0000 H   0  0  0  0  0  0  0  0  0  0  0  0
    4.8535   -8.3577    0.0000 H   0  0  0  0  0  0  0  0  0  0  0  0
   15.6444   10.3326    0.0000 H   0  0  0  0  0  0  0  0  0  0  0  0
   15.2458    9.6423    0.0000 H   0  0  0  0  0  0  0  0  0  0  0  0
    6.0010  -13.9400    0.0000 H   0  0  0  0  0  0  0  0  0  0  0  0
   21.0526   12.1300    0.0000 H   0  0  0  0  0  0  0  0  0  0  0  0
    6.8671   -8.0600    0.0000 H   0  0  0  0  0  0  0  0  0  0  0  0
   16.3933    8.4400    0.0000 H   0  0  0  0  0  0  0  0  0  0  0  0
    3.1951  -15.5600    0.0000 H   0  0  0  0  0  0  0  0  0  0  0  0
   21.0526   15.3700    0.0000 H   0  0  0  0  0  0  0  0  0  0  0  0
    6.0010  -15.5600    0.0000 H   0  0  0  0  0  0  0  0  0  0  0  0
   22.4555   12.9400    0.0000 H   0  0  0  0  0  0  0  0  0  0  0  0
    4.5981  -16.3700    0.0000 H   0  0  0  0  0  0  0  0  0  0  0  0
   22.4555   14.5600    0.0000 H   0  0  0  0  0  0  0  0  0  0  0  0
    1.6900  -13.7131    0.0000 H   0  0  0  0  0  0  0  0  0  0  0  0
    1.4631  -14.5600    0.0000 H   0  0  0  0  0  0  0  0  0  0  0  0
    2.3100  -14.7869    0.0000 H   0  0  0  0  0  0  0  0  0  0  0  0
   19.9405   15.7500    0.0000 H   0  0  0  0  0  0  0  0  0  0  0  0
   19.3205   16.3700    0.0000 H   0  0  0  0  0  0  0  0  0  0  0  0
   18.7005   15.7500    0.0000 H   0  0  0  0  0  0  0  0  0  0  0  0
    6.6592   -4.9400    0.0000 H   0  0  0  0  0  0  0  0  0  0  0  0
   13.5874    7.0600    0.0000 H   0  0  0  0  0  0  0  0  0  0  0  0
    8.0622   -7.3700    0.0000 H   0  0  0  0  0  0  0  0  0  0  0  0
   16.3933    7.0600    0.0000 H   0  0  0  0  0  0  0  0  0  0  0  0
    9.4651   -6.5600    0.0000 H   0  0  0  0  0  0  0  0  0  0  0  0
   16.3933    5.4400    0.0000 H   0  0  0  0  0  0  0  0  0  0  0  0
    9.4651   -4.9400    0.0000 H   0  0  0  0  0  0  0  0  0  0  0  0
   14.9904    4.6300    0.0000 H   0  0  0  0  0  0  0  0  0  0  0  0
    9.1403   -3.8326    0.0000 H   0  0  0  0  0  0  0  0  0  0  0  0
    9.5388   -3.1423    0.0000 H   0  0  0  0  0  0  0  0  0  0  0  0
   13.4704    3.6674    0.0000 H   0  0  0  0  0  0  0  0  0  0  0  0
   13.8689    4.3577    0.0000 H   0  0  0  0  0  0  0  0  0  0  0  0
    8.7162   -1.6674    0.0000 H   0  0  0  0  0  0  0  0  0  0  0  0
    8.3176   -2.3577    0.0000 H   0  0  0  0  0  0  0  0  0  0  0  0
   12.1803    4.3326    0.0000 H   0  0  0  0  0  0  0  0  0  0  0  0
   11.7817    3.6423    0.0000 H   0  0  0  0  0  0  0  0  0  0  0  0
    9.5822   -0.1674    0.0000 H   0  0  0  0  0  0  0  0  0  0  0  0
    9.1836   -0.8577    0.0000 H   0  0  0  0  0  0  0  0  0  0  0  0
   11.3142    2.8326    0.0000 H   0  0  0  0  0  0  0  0  0  0  0  0
   10.9157    2.1423    0.0000 H   0  0  0  0  0  0  0  0  0  0  0  0
   10.8723   -0.8326    0.0000 H   0  0  0  0  0  0  0  0  0  0  0  0
   11.2708   -0.1423    0.0000 H   0  0  0  0  0  0  0  0  0  0  0  0
   11.7383    0.6674    0.0000 H   0  0  0  0  0  0  0  0  0  0  0  0
   12.1369    1.3577    0.0000 H   0  0  0  0  0  0  0  0  0  0  0  0
  1 32  1  0  0  0  0
  1 44  1  0  0  0  0
  2 33  1  0  0  0  0
  2 45  1  0  0  0  0
  3 42  2  0  0  0  0
  4 43  2  0  0  0  0
  5 52  1  0  0  0  0
  5 58  1  0  0  0  0
  6 53  1  0  0  0  0
  6 59  1  0  0  0  0
  7 60  1  0  0  0  0
  7 62  1  0  0  0  0
  8 61  1  0  0  0  0
  8 63  1  0  0  0  0
  9 64  1  0  0  0  0
  9 65  1  0  0  0  0
 10 16  1  0  0  0  0
 10 17  1  0  0  0  0
 10 24  1  0  0  0  0
 11 18  1  0  0  0  0
 11 19  1  0  0  0  0
 11 25  1  0  0  0  0
 12 20  1  0  0  0  0
 12 21  1  0  0  0  0
 12 28  1  0  0  0  0
 13 22  1  0  0  0  0
 13 23  1  0  0  0  0
 13 29  1  0  0  0  0
 14 30  1  0  0  0  0
 14 42  1  0  0  0  0
 14 96  1  0  0  0  0
 15 31  1  0  0  0  0
 15 43  1  0  0  0  0
 15 97  1  0  0  0  0
 16 20  1  0  0  0  0
 16 66  1  0  0  0  0
 16 67  1  0  0  0  0
 17 21  1  0  0  0  0
 17 68  1  0  0  0  0
 17 69  1  0  0  0  0
 18 22  1  0  0  0  0
 18 70  1  0  0  0  0
 18 71  1  0  0  0  0
 19 23  1  0  0  0  0
 19 72  1  0  0  0  0
 19 73  1  0  0  0  0
 20 74  1  0  0  0  0
 20 75  1  0  0  0  0
 21 76  1  0  0  0  0
 21 77  1  0  0  0  0
 22 78  1  0  0  0  0
 22 79  1  0  0  0  0
 23 80  1  0  0  0  0
 23 81  1  0  0  0  0
 24 26  1  0  0  0  0
 24 82  1  0  0  0  0
 24 83  1  0  0  0  0
 25 27  1  0  0  0  0
 25 84  1  0  0  0  0
 25 85  1  0  0  0  0
 26 30  1  0  0  0  0
 26 86  1  0  0  0  0
 26 87  1  0  0  0  0
 27 31  1  0  0  0  0
 27 88  1  0  0  0  0
 27 89  1  0  0  0  0
 28 32  1  0  0  0  0
 28 34  2  0  0  0  0
 29 33  1  0  0  0  0
 29 35  2  0  0  0  0
 30 90  1  0  0  0  0
 30 91  1  0  0  0  0
 31 92  1  0  0  0  0
 31 93  1  0  0  0  0
 32 36  2  0  0  0  0
 33 37  2  0  0  0  0
 34 38  1  0  0  0  0
 34 94  1  0  0  0  0
 35 39  1  0  0  0  0
 35 95  1  0  0  0  0
 36 40  1  0  0  0  0
 36 98  1  0  0  0  0
 37 41  1  0  0  0  0
 37 99  1  0  0  0  0
 38 40  2  0  0  0  0
 38100  1  0  0  0  0
 39 41  2  0  0  0  0
 39101  1  0  0  0  0
 40102  1  0  0  0  0
 41103  1  0  0  0  0
 42 46  1  0  0  0  0
 43 47  1  0  0  0  0
 44104  1  0  0  0  0
 44105  1  0  0  0  0
 44106  1  0  0  0  0
 45107  1  0  0  0  0
 45108  1  0  0  0  0
 45109  1  0  0  0  0
 46 48  2  0  0  0  0
 46 50  1  0  0  0  0
 47 49  2  0  0  0  0
 47 51  1  0  0  0  0
 48 52  1  0  0  0  0
 48110  1  0  0  0  0
 49 53  1  0  0  0  0
 49111  1  0  0  0  0
 50 54  2  0  0  0  0
 50112  1  0  0  0  0
 51 55  2  0  0  0  0
 51113  1  0  0  0  0
 52 56  2  0  0  0  0
 53 57  2  0  0  0  0
 54 56  1  0  0  0  0
 54114  1  0  0  0  0
 55 57  1  0  0  0  0
 55115  1  0  0  0  0
 56116  1  0  0  0  0
 57117  1  0  0  0  0
 58 60  1  0  0  0  0
 58118  1  0  0  0  0
 58119  1  0  0  0  0
 59 61  1  0  0  0  0
 59120  1  0  0  0  0
 59121  1  0  0  0  0
 60122  1  0  0  0  0
 60123  1  0  0  0  0
 61124  1  0  0  0  0
 61125  1  0  0  0  0
 62 64  1  0  0  0  0
 62126  1  0  0  0  0
 62127  1  0  0  0  0
 63 65  1  0  0  0  0
 63128  1  0  0  0  0
 63129  1  0  0  0  0
 64130  1  0  0  0  0
 64131  1  0  0  0  0
 65132  1  0  0  0  0
 65133  1  0  0  0  0
M  END
> <PUBCHEM_COMPOUND_CID>
56837636

> <PUBCHEM_COMPOUND_CANONICALIZED>
1

> <PUBCHEM_CACTVS_COMPLEXITY>
1200

> <PUBCHEM_CACTVS_HBOND_ACCEPTOR>
13

> <PUBCHEM_CACTVS_HBOND_DONOR>
2

> <PUBCHEM_CACTVS_ROTATABLE_BOND>
28

> <PUBCHEM_CACTVS_SUBSKEYS>
AAADcfB/vAAAAAAAAAAAAAAAAAAAAAAAAAA8eMGCAAAAAAABVAAAHgAQAAAADAzhmAYyxoPABACIAiVSUACCCAAlIgAIiIEPbMgPZjLE9ZuXOSjk1hHa6Ye6yBCOAAABAAAAEAAAAAIAAAAgAAAAAAAAAA==

> <PUBCHEM_IUPAC_OPENEYE_NAME>
N-[3-[4-(2-methoxyphenyl)piperazin-1-yl]propyl]-3-[2-[2-[2-[2-[3-[3-[4-(2-methoxyphenyl)piperazin-1-yl]propylcarbamoyl]phenoxy]ethoxy]ethoxy]ethoxy]ethoxy]benzamide

> <PUBCHEM_IUPAC_CAS_NAME>
N-[3-[4-(2-methoxyphenyl)-1-piperazinyl]propyl]-3-[2-[2-[2-[2-[3-[[3-[4-(2-methoxyphenyl)-1-piperazinyl]propylamino]-oxomethyl]phenoxy]ethoxy]ethoxy]ethoxy]ethoxy]benzamide

> <PUBCHEM_IUPAC_NAME_MARKUP>
<I>N</I>-[3-[4-(2-methoxyphenyl)piperazin-1-yl]propyl]-3-[2-[2-[2-[2-[3-[3-[4-(2-methoxyphenyl)piperazin-1-yl]propylcarbamoyl]phenoxy]ethoxy]ethoxy]ethoxy]ethoxy]benzamide

> <PUBCHEM_IUPAC_NAME>
N-[3-[4-(2-methoxyphenyl)piperazin-1-yl]propyl]-3-[2-[2-[2-[2-[3-[3-[4-(2-methoxyphenyl)piperazin-1-yl]propylcarbamoyl]phenoxy]ethoxy]ethoxy]ethoxy]ethoxy]benzamide

> <PUBCHEM_IUPAC_SYSTEMATIC_NAME>
N-[3-[4-(2-methoxyphenyl)piperazin-1-yl]propyl]-3-[2-[2-[2-[2-[3-[3-[4-(2-methoxyphenyl)piperazin-1-yl]propylcarbamoyl]phenoxy]ethoxy]ethoxy]ethoxy]ethoxy]benzamide

> <PUBCHEM_IUPAC_TRADITIONAL_NAME>
N-[3-[4-(2-methoxyphenyl)piperazino]propyl]-3-[2-[2-[2-[2-[3-[3-[4-(2-methoxyphenyl)piperazino]propylcarbamoyl]phenoxy]ethoxy]ethoxy]ethoxy]ethoxy]benzamide

> <PUBCHEM_IUPAC_INCHI>
InChI=1S/C50H68N6O9/c1-59-47-17-5-3-15-45(47)55-27-23-53(24-28-55)21-9-19-51-49(57)41-11-7-13-43(39-41)64-37-35-62-33-31-61-32-34-63-36-38-65-44-14-8-12-42(40-44)50(58)52-20-10-22-54-25-29-56(30-26-54)46-16-4-6-18-48(46)60-2/h3-8,11-18,39-40H,9-10,19-38H2,1-2H3,(H,51,57)(H,52,58)

> <PUBCHEM_IUPAC_INCHIKEY>
HFOIDKHQFBQZMF-UHFFFAOYSA-N

> <PUBCHEM_XLOGP3_AA>
5.6

> <PUBCHEM_EXACT_MASS>
896.50477777

> <PUBCHEM_MOLECULAR_FORMULA>
C50H68N6O9

> <PUBCHEM_MOLECULAR_WEIGHT>
897.1

> <PUBCHEM_OPENEYE_CAN_SMILES>
COC1=CC=CC=C1N2CCN(CC2)CCCNC(=O)C3=CC(=CC=C3)OCCOCCOCCOCCOC4=CC=CC(=C4)C(=O)NCCCN5CCN(CC5)C6=CC=CC=C6OC

> <PUBCHEM_OPENEYE_ISO_SMILES>
COC1=CC=CC=C1N2CCN(CC2)CCCNC(=O)C3=CC(=CC=C3)OCCOCCOCCOCCOC4=CC=CC(=C4)C(=O)NCCCN5CCN(CC5)C6=CC=CC=C6OC

> <PUBCHEM_CACTVS_TPSA>
136

> <PUBCHEM_MONOISOTOPIC_WEIGHT>
896.50477777

> <PUBCHEM_TOTAL_CHARGE>
0

> <PUBCHEM_HEAVY_ATOM_COUNT>
65

> <PUBCHEM_ATOM_DEF_STEREO_COUNT>
0

> <PUBCHEM_ATOM_UDEF_STEREO_COUNT>
0

> <PUBCHEM_BOND_DEF_STEREO_COUNT>
0

> <PUBCHEM_BOND_UDEF_STEREO_COUNT>
0

> <PUBCHEM_ISOTOPIC_ATOM_COUNT>
0

> <PUBCHEM_COMPONENT_COUNT>
1

> <PUBCHEM_CACTVS_TAUTO_COUNT>
-1

> <PUBCHEM_COORDINATE_TYPE>
1
5
255

> <PUBCHEM_BONDANNOTATIONS>
28  32  8
28  34  8
29  33  8
29  35  8
32  36  8
33  37  8
34  38  8
35  39  8
36  40  8
37  41  8
38  40  8
39  41  8
46  48  8
46  50  8
47  49  8
47  51  8
48  52  8
49  53  8
50  54  8
51  55  8
52  56  8
53  57  8
54  56  8
55  57  8

$$$$
