138671641
  -OEChem-09292322452D

 63 66  0     1  0  0  0  0  0999 V2000
   15.0497    1.4317    0.0000 S   0  0  0  0  0  0  0  0  0  0  0  0
   19.1333    1.4930    0.0000 F   0  0  0  0  0  0  0  0  0  0  0  0
   18.1333    2.4930    0.0000 F   0  0  0  0  0  0  0  0  0  0  0  0
   18.1333    0.4930    0.0000 F   0  0  0  0  0  0  0  0  0  0  0  0
    6.3092   -0.3730    0.0000 O   0  0  0  0  0  0  0  0  0  0  0  0
   17.1333    1.4930    0.0000 O   0  0  0  0  0  0  0  0  0  0  0  0
   12.3714    0.1270    0.0000 N   0  0  3  0  0  0  0  0  0  0  0  0
    7.1753   -1.8730    0.0000 N   0  0  0  0  0  0  0  0  0  0  0  0
   15.0497   -0.1777    0.0000 N   0  0  0  0  0  0  0  0  0  0  0  0
    2.9945   -1.0366    0.0000 N   0  0  0  0  0  0  0  0  0  0  0  0
    3.4945   -0.1706    0.0000 N   0  0  0  0  0  0  0  0  0  0  0  0
    9.7734   -0.3730    0.0000 C   0  0  0  0  0  0  0  0  0  0  0  0
    9.7734   -1.3730    0.0000 C   0  0  0  0  0  0  0  0  0  0  0  0
    8.9073    0.1270    0.0000 C   0  0  0  0  0  0  0  0  0  0  0  0
    8.0413   -1.3730    0.0000 C   0  0  0  0  0  0  0  0  0  0  0  0
    8.9073   -1.8730    0.0000 C   0  0  0  0  0  0  0  0  0  0  0  0
    8.0413   -0.3730    0.0000 C   0  0  0  0  0  0  0  0  0  0  0  0
   10.6394    0.1270    0.0000 C   0  0  0  0  0  0  0  0  0  0  0  0
   11.5054   -0.3730    0.0000 C   0  0  0  0  0  0  0  0  0  0  0  0
   12.3714    1.1270    0.0000 C   0  0  0  0  0  0  0  0  0  0  0  0
   13.2375   -0.3730    0.0000 C   0  0  0  0  0  0  0  0  0  0  0  0
   13.2375    1.6270    0.0000 C   0  0  0  0  0  0  0  0  0  0  0  0
   14.1035    0.1270    0.0000 C   0  0  0  0  0  0  0  0  0  0  0  0
   14.1035    1.1270    0.0000 C   0  0  0  0  0  0  0  0  0  0  0  0
    6.3092   -1.3730    0.0000 C   0  0  0  0  0  0  0  0  0  0  0  0
    5.4432   -1.8730    0.0000 C   0  0  0  0  0  0  0  0  0  0  0  0
   15.6333    0.6270    0.0000 C   0  0  0  0  0  0  0  0  0  0  0  0
    4.5772   -1.3730    0.0000 C   0  0  0  0  0  0  0  0  0  0  0  0
   16.6333    0.6270    0.0000 C   0  0  0  0  0  0  0  0  0  0  0  0
    3.6636   -1.7798    0.0000 C   0  0  0  0  0  0  0  0  0  0  0  0
    4.4727   -0.3785    0.0000 C   0  0  0  0  0  0  0  0  0  0  0  0
    2.0000   -1.1411    0.0000 C   0  0  0  0  0  0  0  0  0  0  0  0
   18.1333    1.4930    0.0000 C   0  0  0  0  0  0  0  0  0  0  0  0
   10.3103   -0.6830    0.0000 H   0  0  0  0  0  0  0  0  0  0  0  0
    9.9854   -1.9556    0.0000 H   0  0  0  0  0  0  0  0  0  0  0  0
   10.3839   -1.2654    0.0000 H   0  0  0  0  0  0  0  0  0  0  0  0
    9.3058    0.6019    0.0000 H   0  0  0  0  0  0  0  0  0  0  0  0
    8.5088    0.6019    0.0000 H   0  0  0  0  0  0  0  0  0  0  0  0
    7.5044   -1.0630    0.0000 H   0  0  0  0  0  0  0  0  0  0  0  0
    8.5088   -2.3480    0.0000 H   0  0  0  0  0  0  0  0  0  0  0  0
    9.3058   -2.3480    0.0000 H   0  0  0  0  0  0  0  0  0  0  0  0
    7.8292    0.2096    0.0000 H   0  0  0  0  0  0  0  0  0  0  0  0
    7.4307   -0.4807    0.0000 H   0  0  0  0  0  0  0  0  0  0  0  0
   11.0379    0.6019    0.0000 H   0  0  0  0  0  0  0  0  0  0  0  0
   10.2408    0.6019    0.0000 H   0  0  0  0  0  0  0  0  0  0  0  0
   11.1069   -0.8480    0.0000 H   0  0  0  0  0  0  0  0  0  0  0  0
   11.9039   -0.8480    0.0000 H   0  0  0  0  0  0  0  0  0  0  0  0
    7.1753   -2.4930    0.0000 H   0  0  0  0  0  0  0  0  0  0  0  0
   12.1594    1.7096    0.0000 H   0  0  0  0  0  0  0  0  0  0  0  0
   11.7608    1.0193    0.0000 H   0  0  0  0  0  0  0  0  0  0  0  0
   12.8389   -0.8480    0.0000 H   0  0  0  0  0  0  0  0  0  0  0  0
   13.6360   -0.8480    0.0000 H   0  0  0  0  0  0  0  0  0  0  0  0
   13.6360    2.1019    0.0000 H   0  0  0  0  0  0  0  0  0  0  0  0
   12.8389    2.1019    0.0000 H   0  0  0  0  0  0  0  0  0  0  0  0
    5.0447   -2.3480    0.0000 H   0  0  0  0  0  0  0  0  0  0  0  0
    5.8418   -2.3480    0.0000 H   0  0  0  0  0  0  0  0  0  0  0  0
   16.5256    0.0164    0.0000 H   0  0  0  0  0  0  0  0  0  0  0  0
   17.2159    0.4149    0.0000 H   0  0  0  0  0  0  0  0  0  0  0  0
    3.5348   -2.3862    0.0000 H   0  0  0  0  0  0  0  0  0  0  0  0
    4.9334    0.0364    0.0000 H   0  0  0  0  0  0  0  0  0  0  0  0
    1.9352   -0.5245    0.0000 H   0  0  0  0  0  0  0  0  0  0  0  0
    1.3834   -1.2059    0.0000 H   0  0  0  0  0  0  0  0  0  0  0  0
    2.0648   -1.7577    0.0000 H   0  0  0  0  0  0  0  0  0  0  0  0
  1 24  1  0  0  0  0
  1 27  1  0  0  0  0
  2 33  1  0  0  0  0
  3 33  1  0  0  0  0
  4 33  1  0  0  0  0
  5 25  2  0  0  0  0
  6 29  1  0  0  0  0
  6 33  1  0  0  0  0
  7 19  1  0  0  0  0
  7 20  1  0  0  0  0
  7 21  1  0  0  0  0
  8 15  1  0  0  0  0
  8 25  1  0  0  0  0
  8 48  1  0  0  0  0
  9 23  1  0  0  0  0
  9 27  2  0  0  0  0
 10 11  1  0  0  0  0
 10 30  1  0  0  0  0
 10 32  1  0  0  0  0
 11 31  2  0  0  0  0
 12 13  1  0  0  0  0
 12 14  1  0  0  0  0
 12 18  1  0  0  0  0
 12 34  1  0  0  0  0
 13 16  1  0  0  0  0
 13 35  1  0  0  0  0
 13 36  1  0  0  0  0
 14 17  1  0  0  0  0
 14 37  1  0  0  0  0
 14 38  1  0  0  0  0
 15 16  1  0  0  0  0
 15 17  1  0  0  0  0
 15 39  1  0  0  0  0
 16 40  1  0  0  0  0
 16 41  1  0  0  0  0
 17 42  1  0  0  0  0
 17 43  1  0  0  0  0
 18 19  1  0  0  0  0
 18 44  1  0  0  0  0
 18 45  1  0  0  0  0
 19 46  1  0  0  0  0
 19 47  1  0  0  0  0
 20 22  1  0  0  0  0
 20 49  1  0  0  0  0
 20 50  1  0  0  0  0
 21 23  1  0  0  0  0
 21 51  1  0  0  0  0
 21 52  1  0  0  0  0
 22 24  1  0  0  0  0
 22 53  1  0  0  0  0
 22 54  1  0  0  0  0
 23 24  2  0  0  0  0
 25 26  1  0  0  0  0
 26 28  1  0  0  0  0
 26 55  1  0  0  0  0
 26 56  1  0  0  0  0
 27 29  1  0  0  0  0
 28 30  2  0  0  0  0
 28 31  1  0  0  0  0
 29 57  1  0  0  0  0
 29 58  1  0  0  0  0
 30 59  1  0  0  0  0
 31 60  1  0  0  0  0
 32 61  1  0  0  0  0
 32 62  1  0  0  0  0
 32 63  1  0  0  0  0
M  END
> <PUBCHEM_COMPOUND_CID>
138671641

> <PUBCHEM_COMPOUND_CANONICALIZED>
1

> <PUBCHEM_CACTVS_COMPLEXITY>
650

> <PUBCHEM_CACTVS_HBOND_ACCEPTOR>
9

> <PUBCHEM_CACTVS_HBOND_DONOR>
1

> <PUBCHEM_CACTVS_ROTATABLE_BOND>
8

> <PUBCHEM_CACTVS_SUBSKEYS>
AAADceB7sYBAAAAAAAAAAAAAAAAAAWLAAAA8QAAAAAAAAFgB4AAAHwQYAAAADSjh3hYugZPIFAiuAxV3VASQ9KBxiDgQWLU4RBgCYJJgxUEVhAhgHgD4SAMUgIAOAAAAAAAAAAAQAAAAAAAAAAAAAAAAAA==

> <PUBCHEM_IUPAC_OPENEYE_NAME>
2-(1-methylpyrazol-4-yl)-N-[4-[2-[2-(trifluoromethoxymethyl)-6,7-dihydro-4H-thiazolo[4,5-c]pyridin-5-yl]ethyl]cyclohexyl]acetamide

> <PUBCHEM_IUPAC_CAS_NAME>
2-(1-methyl-4-pyrazolyl)-N-[4-[2-[2-(trifluoromethoxymethyl)-6,7-dihydro-4H-thiazolo[4,5-c]pyridin-5-yl]ethyl]cyclohexyl]acetamide

> <PUBCHEM_IUPAC_NAME_MARKUP>
2-(1-methylpyrazol-4-yl)-<I>N</I>-[4-[2-[2-(trifluoromethoxymethyl)-6,7-dihydro-4<I>H</I>-[1,3]thiazolo[4,5-c]pyridin-5-yl]ethyl]cyclohexyl]acetamide

> <PUBCHEM_IUPAC_NAME>
2-(1-methylpyrazol-4-yl)-N-[4-[2-[2-(trifluoromethoxymethyl)-6,7-dihydro-4H-[1,3]thiazolo[4,5-c]pyridin-5-yl]ethyl]cyclohexyl]acetamide

> <PUBCHEM_IUPAC_SYSTEMATIC_NAME>
2-(1-methylpyrazol-4-yl)-N-[4-[2-[2-(trifluoromethyloxymethyl)-6,7-dihydro-4H-[1,3]thiazolo[4,5-c]pyridin-5-yl]ethyl]cyclohexyl]ethanamide

> <PUBCHEM_IUPAC_TRADITIONAL_NAME>
2-(1-methylpyrazol-4-yl)-N-[4-[2-[2-(trifluoromethoxymethyl)-6,7-dihydro-4H-thiazolo[4,5-c]pyridin-5-yl]ethyl]cyclohexyl]acetamide

> <PUBCHEM_IUPAC_INCHI>
InChI=1S/C22H30F3N5O2S/c1-29-12-16(11-26-29)10-20(31)27-17-4-2-15(3-5-17)6-8-30-9-7-19-18(13-30)28-21(33-19)14-32-22(23,24)25/h11-12,15,17H,2-10,13-14H2,1H3,(H,27,31)

> <PUBCHEM_IUPAC_INCHIKEY>
WGUSAYGXLQUQRB-UHFFFAOYSA-N

> <PUBCHEM_XLOGP3_AA>
2.9

> <PUBCHEM_EXACT_MASS>
485.20723088

> <PUBCHEM_MOLECULAR_FORMULA>
C22H30F3N5O2S

> <PUBCHEM_MOLECULAR_WEIGHT>
485.6

> <PUBCHEM_OPENEYE_CAN_SMILES>
CN1C=C(C=N1)CC(=O)NC2CCC(CC2)CCN3CCC4=C(C3)N=C(S4)COC(F)(F)F

> <PUBCHEM_OPENEYE_ISO_SMILES>
CN1C=C(C=N1)CC(=O)NC2CCC(CC2)CCN3CCC4=C(C3)N=C(S4)COC(F)(F)F

> <PUBCHEM_CACTVS_TPSA>
101

> <PUBCHEM_MONOISOTOPIC_WEIGHT>
485.20723088

> <PUBCHEM_TOTAL_CHARGE>
0

> <PUBCHEM_HEAVY_ATOM_COUNT>
33

> <PUBCHEM_ATOM_DEF_STEREO_COUNT>
0

> <PUBCHEM_ATOM_UDEF_STEREO_COUNT>
0

> <PUBCHEM_BOND_DEF_STEREO_COUNT>
0

> <PUBCHEM_BOND_UDEF_STEREO_COUNT>
0

> <PUBCHEM_ISOTOPIC_ATOM_COUNT>
0

> <PUBCHEM_COMPONENT_COUNT>
1

> <PUBCHEM_CACTVS_TAUTO_COUNT>
-1

> <PUBCHEM_COORDINATE_TYPE>
1
5
255

> <PUBCHEM_BONDANNOTATIONS>
1  24  8
1  27  8
10  11  8
10  30  8
11  31  8
23  24  8
28  30  8
28  31  8
9  23  8
9  27  8

$$$$
