127051038
  -OEChem-09292322052D

 53 55  0     0  0  0  0  0  0999 V2000
    2.0000   -4.5600    0.0000 Cl  0  0  0  0  0  0  0  0  0  0  0  0
    2.0000   -6.5600    0.0000 Cl  0  0  0  0  0  0  0  0  0  0  0  0
    5.4641    2.4400    0.0000 O   0  0  0  0  0  0  0  0  0  0  0  0
    6.3301    5.9400    0.0000 O   0  0  0  0  0  0  0  0  0  0  0  0
    3.7320   -1.5600    0.0000 N   0  0  0  0  0  0  0  0  0  0  0  0
    3.7320   -3.5600    0.0000 N   0  0  0  0  0  0  0  0  0  0  0  0
    8.0622    5.9400    0.0000 N   0  0  0  0  0  0  0  0  0  0  0  0
    4.5981   -2.0600    0.0000 C   0  0  0  0  0  0  0  0  0  0  0  0
    2.8660   -2.0600    0.0000 C   0  0  0  0  0  0  0  0  0  0  0  0
    4.5981   -3.0600    0.0000 C   0  0  0  0  0  0  0  0  0  0  0  0
    2.8660   -3.0600    0.0000 C   0  0  0  0  0  0  0  0  0  0  0  0
    3.7320   -0.5600    0.0000 C   0  0  0  0  0  0  0  0  0  0  0  0
    4.5981   -0.0600    0.0000 C   0  0  0  0  0  0  0  0  0  0  0  0
    3.7320   -4.5600    0.0000 C   0  0  0  0  0  0  0  0  0  0  0  0
    4.5981    0.9400    0.0000 C   0  0  0  0  0  0  0  0  0  0  0  0
    5.4641    1.4400    0.0000 C   0  0  0  0  0  0  0  0  0  0  0  0
    2.8660   -5.0600    0.0000 C   0  0  0  0  0  0  0  0  0  0  0  0
    4.5981   -5.0600    0.0000 C   0  0  0  0  0  0  0  0  0  0  0  0
    2.8660   -6.0600    0.0000 C   0  0  0  0  0  0  0  0  0  0  0  0
    4.5981   -6.0600    0.0000 C   0  0  0  0  0  0  0  0  0  0  0  0
    3.7320   -6.5600    0.0000 C   0  0  0  0  0  0  0  0  0  0  0  0
    6.3301    2.9400    0.0000 C   0  0  0  0  0  0  0  0  0  0  0  0
    6.3301    3.9400    0.0000 C   0  0  0  0  0  0  0  0  0  0  0  0
    7.1962    2.4400    0.0000 C   0  0  0  0  0  0  0  0  0  0  0  0
    7.1962    4.4400    0.0000 C   0  0  0  0  0  0  0  0  0  0  0  0
    8.0622    2.9400    0.0000 C   0  0  0  0  0  0  0  0  0  0  0  0
    8.0622    3.9400    0.0000 C   0  0  0  0  0  0  0  0  0  0  0  0
    7.1962    5.4400    0.0000 C   0  0  0  0  0  0  0  0  0  0  0  0
    5.2087   -2.1677    0.0000 H   0  0  0  0  0  0  0  0  0  0  0  0
    4.8101   -1.4774    0.0000 H   0  0  0  0  0  0  0  0  0  0  0  0
    2.6540   -1.4774    0.0000 H   0  0  0  0  0  0  0  0  0  0  0  0
    2.2554   -2.1677    0.0000 H   0  0  0  0  0  0  0  0  0  0  0  0
    4.8101   -3.6426    0.0000 H   0  0  0  0  0  0  0  0  0  0  0  0
    5.2087   -2.9523    0.0000 H   0  0  0  0  0  0  0  0  0  0  0  0
    2.2554   -2.9523    0.0000 H   0  0  0  0  0  0  0  0  0  0  0  0
    2.6540   -3.6426    0.0000 H   0  0  0  0  0  0  0  0  0  0  0  0
    3.5200    0.0226    0.0000 H   0  0  0  0  0  0  0  0  0  0  0  0
    3.1215   -0.6677    0.0000 H   0  0  0  0  0  0  0  0  0  0  0  0
    4.8101   -0.6426    0.0000 H   0  0  0  0  0  0  0  0  0  0  0  0
    5.2087    0.0477    0.0000 H   0  0  0  0  0  0  0  0  0  0  0  0
    4.3860    1.5226    0.0000 H   0  0  0  0  0  0  0  0  0  0  0  0
    3.9875    0.8323    0.0000 H   0  0  0  0  0  0  0  0  0  0  0  0
    5.6762    0.8574    0.0000 H   0  0  0  0  0  0  0  0  0  0  0  0
    6.0747    1.5477    0.0000 H   0  0  0  0  0  0  0  0  0  0  0  0
    5.1350   -4.7500    0.0000 H   0  0  0  0  0  0  0  0  0  0  0  0
    5.1350   -6.3700    0.0000 H   0  0  0  0  0  0  0  0  0  0  0  0
    3.7320   -7.1800    0.0000 H   0  0  0  0  0  0  0  0  0  0  0  0
    5.7932    4.2500    0.0000 H   0  0  0  0  0  0  0  0  0  0  0  0
    7.1962    1.8200    0.0000 H   0  0  0  0  0  0  0  0  0  0  0  0
    8.5991    2.6300    0.0000 H   0  0  0  0  0  0  0  0  0  0  0  0
    8.5991    4.2500    0.0000 H   0  0  0  0  0  0  0  0  0  0  0  0
    8.0622    6.5600    0.0000 H   0  0  0  0  0  0  0  0  0  0  0  0
    8.5991    5.6300    0.0000 H   0  0  0  0  0  0  0  0  0  0  0  0
  1 17  1  0  0  0  0
  2 19  1  0  0  0  0
  3 16  1  0  0  0  0
  3 22  1  0  0  0  0
  4 28  2  0  0  0  0
  5  8  1  0  0  0  0
  5  9  1  0  0  0  0
  5 12  1  0  0  0  0
  6 10  1  0  0  0  0
  6 11  1  0  0  0  0
  6 14  1  0  0  0  0
  7 28  1  0  0  0  0
  7 52  1  0  0  0  0
  7 53  1  0  0  0  0
  8 10  1  0  0  0  0
  8 29  1  0  0  0  0
  8 30  1  0  0  0  0
  9 11  1  0  0  0  0
  9 31  1  0  0  0  0
  9 32  1  0  0  0  0
 10 33  1  0  0  0  0
 10 34  1  0  0  0  0
 11 35  1  0  0  0  0
 11 36  1  0  0  0  0
 12 13  1  0  0  0  0
 12 37  1  0  0  0  0
 12 38  1  0  0  0  0
 13 15  1  0  0  0  0
 13 39  1  0  0  0  0
 13 40  1  0  0  0  0
 14 17  2  0  0  0  0
 14 18  1  0  0  0  0
 15 16  1  0  0  0  0
 15 41  1  0  0  0  0
 15 42  1  0  0  0  0
 16 43  1  0  0  0  0
 16 44  1  0  0  0  0
 17 19  1  0  0  0  0
 18 20  2  0  0  0  0
 18 45  1  0  0  0  0
 19 21  2  0  0  0  0
 20 21  1  0  0  0  0
 20 46  1  0  0  0  0
 21 47  1  0  0  0  0
 22 23  1  0  0  0  0
 22 24  2  0  0  0  0
 23 25  2  0  0  0  0
 23 48  1  0  0  0  0
 24 26  1  0  0  0  0
 24 49  1  0  0  0  0
 25 27  1  0  0  0  0
 25 28  1  0  0  0  0
 26 27  2  0  0  0  0
 26 50  1  0  0  0  0
 27 51  1  0  0  0  0
M  END
> <PUBCHEM_COMPOUND_CID>
127051038

> <PUBCHEM_COMPOUND_CANONICALIZED>
1

> <PUBCHEM_CACTVS_COMPLEXITY>
488

> <PUBCHEM_CACTVS_HBOND_ACCEPTOR>
4

> <PUBCHEM_CACTVS_HBOND_DONOR>
1

> <PUBCHEM_CACTVS_ROTATABLE_BOND>
8

> <PUBCHEM_CACTVS_SUBSKEYS>
AAADceB7MAAGAAAAAAAAAAAAAAAAAAAAAAA8YIAAAAAAAAABQAAAHgIQAAAADA7hmCYwxoNABACIAiVSUACCCAAlJwAIikEObsgMZjLFt5vWOSjkwBHI6Ye6yBCOAAABAAIAABQAAAIABAAAKAAAAAAAAA==

> <PUBCHEM_IUPAC_OPENEYE_NAME>
3-[4-[4-(2,3-dichlorophenyl)piperazin-1-yl]butoxy]benzamide

> <PUBCHEM_IUPAC_CAS_NAME>
3-[4-[4-(2,3-dichlorophenyl)-1-piperazinyl]butoxy]benzamide

> <PUBCHEM_IUPAC_NAME_MARKUP>
3-[4-[4-(2,3-dichlorophenyl)piperazin-1-yl]butoxy]benzamide

> <PUBCHEM_IUPAC_NAME>
3-[4-[4-(2,3-dichlorophenyl)piperazin-1-yl]butoxy]benzamide

> <PUBCHEM_IUPAC_SYSTEMATIC_NAME>
3-[4-[4-[2,3-bis(chloranyl)phenyl]piperazin-1-yl]butoxy]benzamide

> <PUBCHEM_IUPAC_TRADITIONAL_NAME>
3-[4-[4-(2,3-dichlorophenyl)piperazino]butoxy]benzamide

> <PUBCHEM_IUPAC_INCHI>
InChI=1S/C21H25Cl2N3O2/c22-18-7-4-8-19(20(18)23)26-12-10-25(11-13-26)9-1-2-14-28-17-6-3-5-16(15-17)21(24)27/h3-8,15H,1-2,9-14H2,(H2,24,27)

> <PUBCHEM_IUPAC_INCHIKEY>
SOZCVVWRGJYGHC-UHFFFAOYSA-N

> <PUBCHEM_XLOGP3_AA>
4.4

> <PUBCHEM_EXACT_MASS>
421.1323824

> <PUBCHEM_MOLECULAR_FORMULA>
C21H25Cl2N3O2

> <PUBCHEM_MOLECULAR_WEIGHT>
422.3

> <PUBCHEM_OPENEYE_CAN_SMILES>
C1CN(CCN1CCCCOC2=CC=CC(=C2)C(=O)N)C3=C(C(=CC=C3)Cl)Cl

> <PUBCHEM_OPENEYE_ISO_SMILES>
C1CN(CCN1CCCCOC2=CC=CC(=C2)C(=O)N)C3=C(C(=CC=C3)Cl)Cl

> <PUBCHEM_CACTVS_TPSA>
58.8

> <PUBCHEM_MONOISOTOPIC_WEIGHT>
421.1323824

> <PUBCHEM_TOTAL_CHARGE>
0

> <PUBCHEM_HEAVY_ATOM_COUNT>
28

> <PUBCHEM_ATOM_DEF_STEREO_COUNT>
0

> <PUBCHEM_ATOM_UDEF_STEREO_COUNT>
0

> <PUBCHEM_BOND_DEF_STEREO_COUNT>
0

> <PUBCHEM_BOND_UDEF_STEREO_COUNT>
0

> <PUBCHEM_ISOTOPIC_ATOM_COUNT>
0

> <PUBCHEM_COMPONENT_COUNT>
1

> <PUBCHEM_CACTVS_TAUTO_COUNT>
-1

> <PUBCHEM_COORDINATE_TYPE>
1
5
255

> <PUBCHEM_BONDANNOTATIONS>
14  17  8
14  18  8
17  19  8
18  20  8
19  21  8
20  21  8
22  23  8
22  24  8
23  25  8
24  26  8
25  27  8
26  27  8

$$$$
