10037311
  -OEChem-09292322122D

 38 40  0     1  0  0  0  0  0999 V2000
    5.4641   -1.5670    0.0000 N   0  0  3  0  0  0  0  0  0  0  0  0
    2.8660    3.9330    0.0000 N   0  0  0  0  0  0  0  0  0  0  0  0
    6.3301   -3.0670    0.0000 C   0  0  0  0  0  0  0  0  0  0  0  0
    7.3301   -3.0670    0.0000 C   0  0  0  0  0  0  0  0  0  0  0  0
    6.8301   -3.9330    0.0000 C   0  0  0  0  0  0  0  0  0  0  0  0
    5.4641   -2.5670    0.0000 C   0  0  0  0  0  0  0  0  0  0  0  0
    4.5981   -1.0670    0.0000 C   0  0  0  0  0  0  0  0  0  0  0  0
    4.5981   -0.0670    0.0000 C   0  0  1  0  0  0  0  0  0  0  0  0
    6.3301   -1.0670    0.0000 C   0  0  0  0  0  0  0  0  0  0  0  0
    5.4641    0.4330    0.0000 C   0  0  0  0  0  0  0  0  0  0  0  0
    6.3301   -0.0670    0.0000 C   0  0  0  0  0  0  0  0  0  0  0  0
    3.7320    0.4330    0.0000 C   0  0  0  0  0  0  0  0  0  0  0  0
    3.7320    1.4330    0.0000 C   0  0  0  0  0  0  0  0  0  0  0  0
    2.8660   -0.0670    0.0000 C   0  0  0  0  0  0  0  0  0  0  0  0
    2.8660    1.9330    0.0000 C   0  0  0  0  0  0  0  0  0  0  0  0
    2.0000    0.4330    0.0000 C   0  0  0  0  0  0  0  0  0  0  0  0
    2.0000    1.4330    0.0000 C   0  0  0  0  0  0  0  0  0  0  0  0
    2.8660    2.9330    0.0000 C   0  0  0  0  0  0  0  0  0  0  0  0
    6.4906   -2.4681    0.0000 H   0  0  0  0  0  0  0  0  0  0  0  0
    7.9127   -3.2790    0.0000 H   0  0  0  0  0  0  0  0  0  0  0  0
    7.4378   -2.4564    0.0000 H   0  0  0  0  0  0  0  0  0  0  0  0
    6.3552   -4.3315    0.0000 H   0  0  0  0  0  0  0  0  0  0  0  0
    7.3051   -4.3315    0.0000 H   0  0  0  0  0  0  0  0  0  0  0  0
    4.8535   -2.4593    0.0000 H   0  0  0  0  0  0  0  0  0  0  0  0
    5.2520   -3.1496    0.0000 H   0  0  0  0  0  0  0  0  0  0  0  0
    3.9875   -0.9593    0.0000 H   0  0  0  0  0  0  0  0  0  0  0  0
    4.3860   -1.6496    0.0000 H   0  0  0  0  0  0  0  0  0  0  0  0
    4.5981    0.5530    0.0000 H   0  0  0  0  0  0  0  0  0  0  0  0
    6.5422   -1.6496    0.0000 H   0  0  0  0  0  0  0  0  0  0  0  0
    6.9407   -0.9593    0.0000 H   0  0  0  0  0  0  0  0  0  0  0  0
    5.8626    0.9080    0.0000 H   0  0  0  0  0  0  0  0  0  0  0  0
    5.0656    0.9080    0.0000 H   0  0  0  0  0  0  0  0  0  0  0  0
    6.9407   -0.1746    0.0000 H   0  0  0  0  0  0  0  0  0  0  0  0
    6.5422    0.5156    0.0000 H   0  0  0  0  0  0  0  0  0  0  0  0
    4.2690    1.7430    0.0000 H   0  0  0  0  0  0  0  0  0  0  0  0
    2.8660   -0.6870    0.0000 H   0  0  0  0  0  0  0  0  0  0  0  0
    1.4631    0.1230    0.0000 H   0  0  0  0  0  0  0  0  0  0  0  0
    1.4631    1.7430    0.0000 H   0  0  0  0  0  0  0  0  0  0  0  0
  1  6  1  0  0  0  0
  1  7  1  0  0  0  0
  1  9  1  0  0  0  0
  2 18  3  0  0  0  0
  3  4  1  0  0  0  0
  3  5  1  0  0  0  0
  3  6  1  0  0  0  0
  3 19  1  0  0  0  0
  4  5  1  0  0  0  0
  4 20  1  0  0  0  0
  4 21  1  0  0  0  0
  5 22  1  0  0  0  0
  5 23  1  0  0  0  0
  6 24  1  0  0  0  0
  6 25  1  0  0  0  0
  7  8  1  0  0  0  0
  7 26  1  0  0  0  0
  7 27  1  0  0  0  0
  8 10  1  0  0  0  0
  8 12  1  6  0  0  0
  8 28  1  0  0  0  0
  9 11  1  0  0  0  0
  9 29  1  0  0  0  0
  9 30  1  0  0  0  0
 10 11  1  0  0  0  0
 10 31  1  0  0  0  0
 10 32  1  0  0  0  0
 11 33  1  0  0  0  0
 11 34  1  0  0  0  0
 12 13  1  0  0  0  0
 12 14  2  0  0  0  0
 13 15  2  0  0  0  0
 13 35  1  0  0  0  0
 14 16  1  0  0  0  0
 14 36  1  0  0  0  0
 15 17  1  0  0  0  0
 15 18  1  0  0  0  0
 16 17  2  0  0  0  0
 16 37  1  0  0  0  0
 17 38  1  0  0  0  0
M  END
> <PUBCHEM_COMPOUND_CID>
10037311

> <PUBCHEM_COMPOUND_CANONICALIZED>
1

> <PUBCHEM_CACTVS_COMPLEXITY>
325

> <PUBCHEM_CACTVS_HBOND_ACCEPTOR>
2

> <PUBCHEM_CACTVS_HBOND_DONOR>
0

> <PUBCHEM_CACTVS_ROTATABLE_BOND>
3

> <PUBCHEM_CACTVS_SUBSKEYS>
AAADceB7AAAAAAAAAAAAAAAAGAAAAAAAAAA8QAAAAAAAAAABAAAAHAAAAAAADQDBGAQwAIMAAACQBiBCAAAiAAAgAAAIiAAIAIgIoCKAkRGEIAAggACIiA8QgMAOgAACAAAAAAAAAAQAAAAAAAAAAAAAAA==

> <PUBCHEM_IUPAC_OPENEYE_NAME>
3-[(3S)-1-(cyclopropylmethyl)-3-piperidyl]benzonitrile

> <PUBCHEM_IUPAC_CAS_NAME>
3-[(3S)-1-(cyclopropylmethyl)-3-piperidinyl]benzonitrile

> <PUBCHEM_IUPAC_NAME_MARKUP>
3-[(3<I>S</I>)-1-(cyclopropylmethyl)piperidin-3-yl]benzonitrile

> <PUBCHEM_IUPAC_NAME>
3-[(3S)-1-(cyclopropylmethyl)piperidin-3-yl]benzonitrile

> <PUBCHEM_IUPAC_SYSTEMATIC_NAME>
3-[(3S)-1-(cyclopropylmethyl)piperidin-3-yl]benzenecarbonitrile

> <PUBCHEM_IUPAC_TRADITIONAL_NAME>
3-[(3S)-1-(cyclopropylmethyl)-3-piperidyl]benzonitrile

> <PUBCHEM_IUPAC_INCHI>
InChI=1S/C16H20N2/c17-10-14-3-1-4-15(9-14)16-5-2-8-18(12-16)11-13-6-7-13/h1,3-4,9,13,16H,2,5-8,11-12H2/t16-/m1/s1

> <PUBCHEM_IUPAC_INCHIKEY>
RWFSSGIYTQCWMB-MRXNPFEDSA-N

> <PUBCHEM_XLOGP3_AA>
3

> <PUBCHEM_EXACT_MASS>
240.162648646

> <PUBCHEM_MOLECULAR_FORMULA>
C16H20N2

> <PUBCHEM_MOLECULAR_WEIGHT>
240.34

> <PUBCHEM_OPENEYE_CAN_SMILES>
C1CC(CN(C1)CC2CC2)C3=CC=CC(=C3)C#N

> <PUBCHEM_OPENEYE_ISO_SMILES>
C1C[C@H](CN(C1)CC2CC2)C3=CC=CC(=C3)C#N

> <PUBCHEM_CACTVS_TPSA>
27

> <PUBCHEM_MONOISOTOPIC_WEIGHT>
240.162648646

> <PUBCHEM_TOTAL_CHARGE>
0

> <PUBCHEM_HEAVY_ATOM_COUNT>
18

> <PUBCHEM_ATOM_DEF_STEREO_COUNT>
1

> <PUBCHEM_ATOM_UDEF_STEREO_COUNT>
0

> <PUBCHEM_BOND_DEF_STEREO_COUNT>
0

> <PUBCHEM_BOND_UDEF_STEREO_COUNT>
0

> <PUBCHEM_ISOTOPIC_ATOM_COUNT>
0

> <PUBCHEM_COMPONENT_COUNT>
1

> <PUBCHEM_CACTVS_TAUTO_COUNT>
-1

> <PUBCHEM_COORDINATE_TYPE>
1
5
255

> <PUBCHEM_BONDANNOTATIONS>
12  13  8
12  14  8
13  15  8
14  16  8
15  17  8
16  17  8
8  12  6

$$$$
