53359025
  -OEChem-09292322322D

 47 53  0     1  0  0  0  0  0999 V2000
   12.2638   -1.2278    0.0000 F   0  0  0  0  0  0  0  0  0  0  0  0
    4.9947    1.6471    0.0000 O   0  0  0  0  0  0  0  0  0  0  0  0
    7.7863   -2.2035    0.0000 O   0  0  0  0  0  0  0  0  0  0  0  0
    5.2236    0.3328    0.0000 N   0  0  3  0  0  0  0  0  0  0  0  0
    3.1124   -0.2575    0.0000 C   0  0  3  0  0  0  0  0  0  0  0  0
    3.1124   -1.1655    0.0000 C   0  0  3  0  0  0  0  0  0  0  0  0
    4.1339   -0.2575    0.0000 C   0  0  3  0  0  0  0  0  0  0  0  0
    4.1226   -1.1769    0.0000 C   0  0  3  0  0  0  0  0  0  0  0  0
    3.6118    1.4167    0.0000 C   0  0  3  0  0  0  0  0  0  0  0  0
    3.6118    0.3951    0.0000 C   0  0  3  0  0  0  0  0  0  0  0  0
    2.7853    0.8162    0.0000 C   0  0  3  0  0  0  0  0  0  0  0  0
    2.7853   -0.2053    0.0000 C   0  0  3  0  0  0  0  0  0  0  0  0
    4.4383    0.8162    0.0000 C   0  0  3  0  0  0  0  0  0  0  0  0
    4.4383   -0.2053    0.0000 C   0  0  3  0  0  0  0  0  0  0  0  0
    2.0000    0.4236    0.0000 C   0  0  0  0  0  0  0  0  0  0  0  0
    6.2233    0.3572    0.0000 C   0  0  0  0  0  0  0  0  0  0  0  0
    6.7443   -0.4964    0.0000 C   0  0  0  0  0  0  0  0  0  0  0  0
    7.7440   -0.4719    0.0000 C   0  0  0  0  0  0  0  0  0  0  0  0
    8.2650   -1.3255    0.0000 C   0  0  0  0  0  0  0  0  0  0  0  0
    9.2647   -1.3011    0.0000 C   0  0  0  0  0  0  0  0  0  0  0  0
    9.7434   -0.4231    0.0000 C   0  0  0  0  0  0  0  0  0  0  0  0
    9.7857   -2.1546    0.0000 C   0  0  0  0  0  0  0  0  0  0  0  0
   10.7431   -0.3987    0.0000 C   0  0  0  0  0  0  0  0  0  0  0  0
   10.7854   -2.1302    0.0000 C   0  0  0  0  0  0  0  0  0  0  0  0
   11.2641   -1.2522    0.0000 C   0  0  0  0  0  0  0  0  0  0  0  0
    2.4991   -0.3488    0.0000 H   0  0  0  0  0  0  0  0  0  0  0  0
    2.7487   -1.6677    0.0000 H   0  0  0  0  0  0  0  0  0  0  0  0
    4.7475   -0.3466    0.0000 H   0  0  0  0  0  0  0  0  0  0  0  0
    4.4842   -1.6805    0.0000 H   0  0  0  0  0  0  0  0  0  0  0  0
    3.6118    2.0367    0.0000 H   0  0  0  0  0  0  0  0  0  0  0  0
    4.1642    0.6766    0.0000 H   0  0  0  0  0  0  0  0  0  0  0  0
    2.4634    1.3461    0.0000 H   0  0  0  0  0  0  0  0  0  0  0  0
    2.2778   -0.5615    0.0000 H   0  0  0  0  0  0  0  0  0  0  0  0
    4.9348   -0.5766    0.0000 H   0  0  0  0  0  0  0  0  0  0  0  0
    1.6460    0.9326    0.0000 H   0  0  0  0  0  0  0  0  0  0  0  0
    1.5470    0.0002    0.0000 H   0  0  0  0  0  0  0  0  0  0  0  0
    4.7210    2.2035    0.0000 H   0  0  0  0  0  0  0  0  0  0  0  0
    6.8006    0.5834    0.0000 H   0  0  0  0  0  0  0  0  0  0  0  0
    6.1008    0.9650    0.0000 H   0  0  0  0  0  0  0  0  0  0  0  0
    6.1671   -0.7226    0.0000 H   0  0  0  0  0  0  0  0  0  0  0  0
    6.8669   -1.1041    0.0000 H   0  0  0  0  0  0  0  0  0  0  0  0
    8.3213   -0.2457    0.0000 H   0  0  0  0  0  0  0  0  0  0  0  0
    7.6215    0.1358    0.0000 H   0  0  0  0  0  0  0  0  0  0  0  0
    9.4204    0.1061    0.0000 H   0  0  0  0  0  0  0  0  0  0  0  0
    9.4889   -2.6990    0.0000 H   0  0  0  0  0  0  0  0  0  0  0  0
   11.0399    0.1457    0.0000 H   0  0  0  0  0  0  0  0  0  0  0  0
   11.1085   -2.6594    0.0000 H   0  0  0  0  0  0  0  0  0  0  0  0
  1 25  1  0  0  0  0
  2 13  1  0  0  0  0
  2 37  1  0  0  0  0
  3 19  2  0  0  0  0
  4 13  1  0  0  0  0
  4 14  1  0  0  0  0
  4 16  1  0  0  0  0
  5  6  1  0  0  0  0
  5  7  1  0  0  0  0
  5 11  1  0  0  0  0
  5 26  1  0  0  0  0
  6  8  1  0  0  0  0
  6 12  1  0  0  0  0
  6 27  1  0  0  0  0
  7  8  1  0  0  0  0
  7 13  1  0  0  0  0
  7 28  1  0  0  0  0
  8 14  1  0  0  0  0
  8 29  1  0  0  0  0
  9 10  1  0  0  0  0
  9 11  1  0  0  0  0
  9 13  1  0  0  0  0
  9 30  1  0  0  0  0
 10 12  1  0  0  0  0
 10 14  1  0  0  0  0
 10 31  1  0  0  0  0
 11 15  1  0  0  0  0
 11 32  1  0  0  0  0
 12 15  1  0  0  0  0
 12 33  1  0  0  0  0
 14 34  1  0  0  0  0
 15 35  1  0  0  0  0
 15 36  1  0  0  0  0
 16 17  1  0  0  0  0
 16 38  1  0  0  0  0
 16 39  1  0  0  0  0
 17 18  1  0  0  0  0
 17 40  1  0  0  0  0
 17 41  1  0  0  0  0
 18 19  1  0  0  0  0
 18 42  1  0  0  0  0
 18 43  1  0  0  0  0
 19 20  1  0  0  0  0
 20 21  2  0  0  0  0
 20 22  1  0  0  0  0
 21 23  1  0  0  0  0
 21 44  1  0  0  0  0
 22 24  2  0  0  0  0
 22 45  1  0  0  0  0
 23 25  2  0  0  0  0
 23 46  1  0  0  0  0
 24 25  1  0  0  0  0
 24 47  1  0  0  0  0
M  END
> <PUBCHEM_COMPOUND_CID>
53359025

> <PUBCHEM_COMPOUND_CANONICALIZED>
1

> <PUBCHEM_CACTVS_COMPLEXITY>
660

> <PUBCHEM_CACTVS_HBOND_ACCEPTOR>
4

> <PUBCHEM_CACTVS_HBOND_DONOR>
1

> <PUBCHEM_CACTVS_ROTATABLE_BOND>
5

> <PUBCHEM_CACTVS_SUBSKEYS>
AAADceB6MQAAAAAAAAAAAAAAAABgAePGDBAwAAAAAAAAAAABAAAAHwAACAAADSzBmAwwAIMAAgCIAqBSAAACAAAkAAAIiAEIAMgIIDKAlRCEYQAkgACIiYe8yPCOgAAAAAAAAACAgAaAADQAAaAADQAAAA==

> <PUBCHEM_IUPAC_OPENEYE_NAME>
1-(4-fluorophenyl)-4-(4-hydroxy-5-azahexacyclo[5.4.1.02,6.03,10.04,8.09,12]dodecan-5-yl)butan-1-one

> <PUBCHEM_IUPAC_CAS_NAME>
1-(4-fluorophenyl)-4-(4-hydroxy-5-azahexacyclo[5.4.1.02,6.03,10.04,8.09,12]dodecan-5-yl)-1-butanone

> <PUBCHEM_IUPAC_NAME_MARKUP>
1-(4-fluorophenyl)-4-(4-hydroxy-5-azahexacyclo[5.4.1.0<SUP>2,6</SUP>.0<SUP>3,10</SUP>.0<SUP>4,8</SUP>.0<SUP>9,12</SUP>]dodecan-5-yl)butan-1-one

> <PUBCHEM_IUPAC_NAME>
1-(4-fluorophenyl)-4-(4-hydroxy-5-azahexacyclo[5.4.1.02,6.03,10.04,8.09,12]dodecan-5-yl)butan-1-one

> <PUBCHEM_IUPAC_SYSTEMATIC_NAME>
1-(4-fluorophenyl)-4-(4-oxidanyl-5-azahexacyclo[5.4.1.02,6.03,10.04,8.09,12]dodecan-5-yl)butan-1-one

> <PUBCHEM_IUPAC_TRADITIONAL_NAME>
1-(4-fluorophenyl)-4-(4-hydroxy-5-azahexacyclo[5.4.1.02,6.03,10.04,8.09,12]dodecan-5-yl)butan-1-one

> <PUBCHEM_IUPAC_INCHI>
InChI=1S/C21H22FNO2/c22-10-5-3-9(4-6-10)13(24)2-1-7-23-20-16-11-8-12-15-14(11)17(20)19(15)21(23,25)18(12)16/h3-6,11-12,14-20,25H,1-2,7-8H2

> <PUBCHEM_IUPAC_INCHIKEY>
HJKLOGARPBXZTP-UHFFFAOYSA-N

> <PUBCHEM_XLOGP3_AA>
2.6

> <PUBCHEM_EXACT_MASS>
339.16345711

> <PUBCHEM_MOLECULAR_FORMULA>
C21H22FNO2

> <PUBCHEM_MOLECULAR_WEIGHT>
339.4

> <PUBCHEM_OPENEYE_CAN_SMILES>
C1C2C3C4C1C5C2C6C3C4C5(N6CCCC(=O)C7=CC=C(C=C7)F)O

> <PUBCHEM_OPENEYE_ISO_SMILES>
C1C2C3C4C1C5C2C6C3C4C5(N6CCCC(=O)C7=CC=C(C=C7)F)O

> <PUBCHEM_CACTVS_TPSA>
40.5

> <PUBCHEM_MONOISOTOPIC_WEIGHT>
339.16345711

> <PUBCHEM_TOTAL_CHARGE>
0

> <PUBCHEM_HEAVY_ATOM_COUNT>
25

> <PUBCHEM_ATOM_DEF_STEREO_COUNT>
0

> <PUBCHEM_ATOM_UDEF_STEREO_COUNT>
10

> <PUBCHEM_BOND_DEF_STEREO_COUNT>
0

> <PUBCHEM_BOND_UDEF_STEREO_COUNT>
0

> <PUBCHEM_ISOTOPIC_ATOM_COUNT>
0

> <PUBCHEM_COMPONENT_COUNT>
1

> <PUBCHEM_CACTVS_TAUTO_COUNT>
-1

> <PUBCHEM_COORDINATE_TYPE>
1
5
255

> <PUBCHEM_BONDANNOTATIONS>
10  12  3
11  15  3
12  15  3
13  2  3
20  21  8
20  22  8
21  23  8
22  24  8
23  25  8
24  25  8
14  4  3
5  11  3
7  5  3
6  12  3
8  6  3
9  11  3

$$$$
