11397149
  -OEChem-09292322312D

 66 70  0     0  0  0  0  0  0999 V2000
    4.5981    4.0173    0.0000 O   0  0  0  0  0  0  0  0  0  0  0  0
    6.3301   -1.9827    0.0000 N   0  0  0  0  0  0  0  0  0  0  0  0
    6.3301   -3.9827    0.0000 N   0  0  0  0  0  0  0  0  0  0  0  0
    8.0901   -7.0173    0.0000 N   0  0  0  0  0  0  0  0  0  0  0  0
    3.7320    2.5173    0.0000 N   0  0  0  0  0  0  0  0  0  0  0  0
    2.8660    4.0173    0.0000 N   0  0  0  0  0  0  0  0  0  0  0  0
    5.4641   -2.4827    0.0000 C   0  0  0  0  0  0  0  0  0  0  0  0
    7.1962   -2.4827    0.0000 C   0  0  0  0  0  0  0  0  0  0  0  0
    5.4641   -3.4827    0.0000 C   0  0  0  0  0  0  0  0  0  0  0  0
    7.1962   -3.4827    0.0000 C   0  0  0  0  0  0  0  0  0  0  0  0
    6.3301   -0.9827    0.0000 C   0  0  0  0  0  0  0  0  0  0  0  0
    6.3301   -4.9827    0.0000 C   0  0  0  0  0  0  0  0  0  0  0  0
    5.4641   -0.4827    0.0000 C   0  0  0  0  0  0  0  0  0  0  0  0
    7.1962   -5.4827    0.0000 C   0  0  0  0  0  0  0  0  0  0  0  0
    5.4641    0.5173    0.0000 C   0  0  0  0  0  0  0  0  0  0  0  0
    5.4641   -5.4827    0.0000 C   0  0  0  0  0  0  0  0  0  0  0  0
    7.1962   -6.4827    0.0000 C   0  0  0  0  0  0  0  0  0  0  0  0
    8.0901   -4.9480    0.0000 C   0  0  0  0  0  0  0  0  0  0  0  0
    5.4641   -6.4827    0.0000 C   0  0  0  0  0  0  0  0  0  0  0  0
    6.3301   -6.9827    0.0000 C   0  0  0  0  0  0  0  0  0  0  0  0
    4.5981    1.0173    0.0000 C   0  0  0  0  0  0  0  0  0  0  0  0
    6.3301    1.0173    0.0000 C   0  0  0  0  0  0  0  0  0  0  0  0
    8.9962   -5.4618    0.0000 C   0  0  0  0  0  0  0  0  0  0  0  0
    4.5981    2.0173    0.0000 C   0  0  0  0  0  0  0  0  0  0  0  0
    8.9962   -6.5035    0.0000 C   0  0  0  0  0  0  0  0  0  0  0  0
    6.3301    2.0173    0.0000 C   0  0  0  0  0  0  0  0  0  0  0  0
    5.4641    2.5173    0.0000 C   0  0  0  0  0  0  0  0  0  0  0  0
    9.8602   -7.0068    0.0000 C   0  0  0  0  0  0  0  0  0  0  0  0
    3.7320    3.5173    0.0000 C   0  0  0  0  0  0  0  0  0  0  0  0
    2.8660    5.0173    0.0000 C   0  0  0  0  0  0  0  0  0  0  0  0
    3.7320    5.5173    0.0000 C   0  0  0  0  0  0  0  0  0  0  0  0
    2.0000    5.5173    0.0000 C   0  0  0  0  0  0  0  0  0  0  0  0
    3.7320    6.5173    0.0000 C   0  0  0  0  0  0  0  0  0  0  0  0
    2.0000    6.5173    0.0000 C   0  0  0  0  0  0  0  0  0  0  0  0
    2.8660    7.0173    0.0000 C   0  0  0  0  0  0  0  0  0  0  0  0
    5.2520   -1.9001    0.0000 H   0  0  0  0  0  0  0  0  0  0  0  0
    4.8535   -2.5903    0.0000 H   0  0  0  0  0  0  0  0  0  0  0  0
    7.8067   -2.5903    0.0000 H   0  0  0  0  0  0  0  0  0  0  0  0
    7.4082   -1.9001    0.0000 H   0  0  0  0  0  0  0  0  0  0  0  0
    4.8535   -3.3750    0.0000 H   0  0  0  0  0  0  0  0  0  0  0  0
    5.2520   -4.0653    0.0000 H   0  0  0  0  0  0  0  0  0  0  0  0
    7.4082   -4.0653    0.0000 H   0  0  0  0  0  0  0  0  0  0  0  0
    7.8067   -3.3750    0.0000 H   0  0  0  0  0  0  0  0  0  0  0  0
    6.9407   -1.0903    0.0000 H   0  0  0  0  0  0  0  0  0  0  0  0
    6.5422   -0.4001    0.0000 H   0  0  0  0  0  0  0  0  0  0  0  0
    4.8535   -0.3750    0.0000 H   0  0  0  0  0  0  0  0  0  0  0  0
    5.2520   -1.0653    0.0000 H   0  0  0  0  0  0  0  0  0  0  0  0
    4.9272   -5.1727    0.0000 H   0  0  0  0  0  0  0  0  0  0  0  0
    8.0829   -4.3280    0.0000 H   0  0  0  0  0  0  0  0  0  0  0  0
    4.9272   -6.7927    0.0000 H   0  0  0  0  0  0  0  0  0  0  0  0
    6.3301   -7.6027    0.0000 H   0  0  0  0  0  0  0  0  0  0  0  0
    4.0611    0.7073    0.0000 H   0  0  0  0  0  0  0  0  0  0  0  0
    6.8671    0.7073    0.0000 H   0  0  0  0  0  0  0  0  0  0  0  0
    9.5319   -5.1498    0.0000 H   0  0  0  0  0  0  0  0  0  0  0  0
    6.8671    2.3273    0.0000 H   0  0  0  0  0  0  0  0  0  0  0  0
    5.4641    3.1373    0.0000 H   0  0  0  0  0  0  0  0  0  0  0  0
    9.5482   -7.5426    0.0000 H   0  0  0  0  0  0  0  0  0  0  0  0
   10.3960   -7.3189    0.0000 H   0  0  0  0  0  0  0  0  0  0  0  0
   10.1723   -6.4711    0.0000 H   0  0  0  0  0  0  0  0  0  0  0  0
    3.1951    2.2073    0.0000 H   0  0  0  0  0  0  0  0  0  0  0  0
    2.3291    3.7073    0.0000 H   0  0  0  0  0  0  0  0  0  0  0  0
    4.2690    5.2073    0.0000 H   0  0  0  0  0  0  0  0  0  0  0  0
    1.4631    5.2073    0.0000 H   0  0  0  0  0  0  0  0  0  0  0  0
    4.2690    6.8273    0.0000 H   0  0  0  0  0  0  0  0  0  0  0  0
    1.4631    6.8273    0.0000 H   0  0  0  0  0  0  0  0  0  0  0  0
    2.8660    7.6373    0.0000 H   0  0  0  0  0  0  0  0  0  0  0  0
  1 29  2  0  0  0  0
  2  7  1  0  0  0  0
  2  8  1  0  0  0  0
  2 11  1  0  0  0  0
  3  9  1  0  0  0  0
  3 10  1  0  0  0  0
  3 12  1  0  0  0  0
  4 17  1  0  0  0  0
  4 25  2  0  0  0  0
  5 24  1  0  0  0  0
  5 29  1  0  0  0  0
  5 60  1  0  0  0  0
  6 29  1  0  0  0  0
  6 30  1  0  0  0  0
  6 61  1  0  0  0  0
  7  9  1  0  0  0  0
  7 36  1  0  0  0  0
  7 37  1  0  0  0  0
  8 10  1  0  0  0  0
  8 38  1  0  0  0  0
  8 39  1  0  0  0  0
  9 40  1  0  0  0  0
  9 41  1  0  0  0  0
 10 42  1  0  0  0  0
 10 43  1  0  0  0  0
 11 13  1  0  0  0  0
 11 44  1  0  0  0  0
 11 45  1  0  0  0  0
 12 14  1  0  0  0  0
 12 16  2  0  0  0  0
 13 15  1  0  0  0  0
 13 46  1  0  0  0  0
 13 47  1  0  0  0  0
 14 17  2  0  0  0  0
 14 18  1  0  0  0  0
 15 21  2  0  0  0  0
 15 22  1  0  0  0  0
 16 19  1  0  0  0  0
 16 48  1  0  0  0  0
 17 20  1  0  0  0  0
 18 23  2  0  0  0  0
 18 49  1  0  0  0  0
 19 20  2  0  0  0  0
 19 50  1  0  0  0  0
 20 51  1  0  0  0  0
 21 24  1  0  0  0  0
 21 52  1  0  0  0  0
 22 26  2  0  0  0  0
 22 53  1  0  0  0  0
 23 25  1  0  0  0  0
 23 54  1  0  0  0  0
 24 27  2  0  0  0  0
 25 28  1  0  0  0  0
 26 27  1  0  0  0  0
 26 55  1  0  0  0  0
 27 56  1  0  0  0  0
 28 57  1  0  0  0  0
 28 58  1  0  0  0  0
 28 59  1  0  0  0  0
 30 31  2  0  0  0  0
 30 32  1  0  0  0  0
 31 33  1  0  0  0  0
 31 62  1  0  0  0  0
 32 34  2  0  0  0  0
 32 63  1  0  0  0  0
 33 35  2  0  0  0  0
 33 64  1  0  0  0  0
 34 35  1  0  0  0  0
 34 65  1  0  0  0  0
 35 66  1  0  0  0  0
M  END
> <PUBCHEM_COMPOUND_CID>
11397149

> <PUBCHEM_COMPOUND_CANONICALIZED>
1

> <PUBCHEM_CACTVS_COMPLEXITY>
660

> <PUBCHEM_CACTVS_HBOND_ACCEPTOR>
4

> <PUBCHEM_CACTVS_HBOND_DONOR>
2

> <PUBCHEM_CACTVS_ROTATABLE_BOND>
6

> <PUBCHEM_CACTVS_SUBSKEYS>
AAADceB7oAAAAAAAAAAAAAAAAAAAAAAAAAA8eMECAAAAAACx9AAAHgAQAAAADAjBHgQzwPPIEACoAyRiVACCgCAhAiAImCA4ZJiIYOLA0dGUJAholALIyCcQgIAOAAAAQAQCAAAAAACACAQAAAAAAAAAAA==

> <PUBCHEM_IUPAC_OPENEYE_NAME>
1-[3-[2-[4-(2-methyl-5-quinolyl)piperazin-1-yl]ethyl]phenyl]-3-phenyl-urea

> <PUBCHEM_IUPAC_CAS_NAME>
1-[3-[2-[4-(2-methyl-5-quinolinyl)-1-piperazinyl]ethyl]phenyl]-3-phenylurea

> <PUBCHEM_IUPAC_NAME_MARKUP>
1-[3-[2-[4-(2-methylquinolin-5-yl)piperazin-1-yl]ethyl]phenyl]-3-phenylurea

> <PUBCHEM_IUPAC_NAME>
1-[3-[2-[4-(2-methylquinolin-5-yl)piperazin-1-yl]ethyl]phenyl]-3-phenylurea

> <PUBCHEM_IUPAC_SYSTEMATIC_NAME>
1-[3-[2-[4-(2-methylquinolin-5-yl)piperazin-1-yl]ethyl]phenyl]-3-phenyl-urea

> <PUBCHEM_IUPAC_TRADITIONAL_NAME>
1-[3-[2-[4-(2-methyl-5-quinolyl)piperazino]ethyl]phenyl]-3-phenyl-urea

> <PUBCHEM_IUPAC_INCHI>
InChI=1S/C29H31N5O/c1-22-13-14-26-27(30-22)11-6-12-28(26)34-19-17-33(18-20-34)16-15-23-7-5-10-25(21-23)32-29(35)31-24-8-3-2-4-9-24/h2-14,21H,15-20H2,1H3,(H2,31,32,35)

> <PUBCHEM_IUPAC_INCHIKEY>
SYOADIUGRJTHHU-UHFFFAOYSA-N

> <PUBCHEM_XLOGP3_AA>
5

> <PUBCHEM_EXACT_MASS>
465.25286063

> <PUBCHEM_MOLECULAR_FORMULA>
C29H31N5O

> <PUBCHEM_MOLECULAR_WEIGHT>
465.6

> <PUBCHEM_OPENEYE_CAN_SMILES>
CC1=NC2=C(C=C1)C(=CC=C2)N3CCN(CC3)CCC4=CC(=CC=C4)NC(=O)NC5=CC=CC=C5

> <PUBCHEM_OPENEYE_ISO_SMILES>
CC1=NC2=C(C=C1)C(=CC=C2)N3CCN(CC3)CCC4=CC(=CC=C4)NC(=O)NC5=CC=CC=C5

> <PUBCHEM_CACTVS_TPSA>
60.5

> <PUBCHEM_MONOISOTOPIC_WEIGHT>
465.25286063

> <PUBCHEM_TOTAL_CHARGE>
0

> <PUBCHEM_HEAVY_ATOM_COUNT>
35

> <PUBCHEM_ATOM_DEF_STEREO_COUNT>
0

> <PUBCHEM_ATOM_UDEF_STEREO_COUNT>
0

> <PUBCHEM_BOND_DEF_STEREO_COUNT>
0

> <PUBCHEM_BOND_UDEF_STEREO_COUNT>
0

> <PUBCHEM_ISOTOPIC_ATOM_COUNT>
0

> <PUBCHEM_COMPONENT_COUNT>
1

> <PUBCHEM_CACTVS_TAUTO_COUNT>
-1

> <PUBCHEM_COORDINATE_TYPE>
1
5
255

> <PUBCHEM_BONDANNOTATIONS>
12  14  8
12  16  8
14  17  8
14  18  8
15  21  8
15  22  8
16  19  8
17  20  8
18  23  8
19  20  8
21  24  8
22  26  8
23  25  8
24  27  8
26  27  8
30  31  8
30  32  8
31  33  8
32  34  8
33  35  8
34  35  8
4  17  8
4  25  8

$$$$
