45486325
  -OEChem-09292321592D

 66 70  0     1  0  0  0  0  0999 V2000
    7.4733    4.5002    0.0000 S   0  0  0  0  0  0  0  0  0  0  0  0
    5.5321    1.5284    0.0000 N   0  0  3  0  0  0  0  0  0  0  0  0
    4.6660   -0.9716    0.0000 N   0  0  0  0  0  0  0  0  0  0  0  0
    4.6660   -2.9716    0.0000 N   0  0  0  0  0  0  0  0  0  0  0  0
    8.8672    3.6955    0.0000 N   0  0  0  0  0  0  0  0  0  0  0  0
    8.9620    5.4693    0.0000 N   0  0  0  0  0  0  0  0  0  0  0  0
    4.6660   -5.9716    0.0000 N   0  0  0  0  0  0  0  0  0  0  0  0
    6.3981    2.0284    0.0000 C   0  0  1  0  0  0  0  0  0  0  0  0
    7.2641    1.5284    0.0000 C   0  0  0  0  0  0  0  0  0  0  0  0
    6.3981    3.0284    0.0000 C   0  0  0  0  0  0  0  0  0  0  0  0
    5.5321    0.5284    0.0000 C   0  0  0  0  0  0  0  0  0  0  0  0
    4.6660    0.0284    0.0000 C   0  0  0  0  0  0  0  0  0  0  0  0
    8.1301    2.0284    0.0000 C   0  0  0  0  0  0  0  0  0  0  0  0
    4.6660    2.0284    0.0000 C   0  0  0  0  0  0  0  0  0  0  0  0
    3.8000   -1.4716    0.0000 C   0  0  0  0  0  0  0  0  0  0  0  0
    5.5321   -1.4716    0.0000 C   0  0  0  0  0  0  0  0  0  0  0  0
    7.2641    3.5284    0.0000 C   0  0  0  0  0  0  0  0  0  0  0  0
    8.1301    3.0284    0.0000 C   0  0  0  0  0  0  0  0  0  0  0  0
    3.8000   -2.4716    0.0000 C   0  0  0  0  0  0  0  0  0  0  0  0
    5.5321   -2.4716    0.0000 C   0  0  0  0  0  0  0  0  0  0  0  0
    4.6660    3.0284    0.0000 C   0  0  0  0  0  0  0  0  0  0  0  0
    4.6660   -3.9716    0.0000 C   0  0  0  0  0  0  0  0  0  0  0  0
    8.4620    4.6033    0.0000 C   0  0  0  0  0  0  0  0  0  0  0  0
    3.8000    3.5284    0.0000 C   0  0  0  0  0  0  0  0  0  0  0  0
    3.8000   -4.4716    0.0000 C   0  0  0  0  0  0  0  0  0  0  0  0
    5.5321   -4.4716    0.0000 C   0  0  0  0  0  0  0  0  0  0  0  0
    3.8000   -5.4716    0.0000 C   0  0  0  0  0  0  0  0  0  0  0  0
    2.9061   -3.9369    0.0000 C   0  0  0  0  0  0  0  0  0  0  0  0
    5.5321   -5.4716    0.0000 C   0  0  0  0  0  0  0  0  0  0  0  0
    2.9061   -6.0062    0.0000 C   0  0  0  0  0  0  0  0  0  0  0  0
    2.0000   -4.4508    0.0000 C   0  0  0  0  0  0  0  0  0  0  0  0
    2.0000   -5.4924    0.0000 C   0  0  0  0  0  0  0  0  0  0  0  0
    6.3981    1.4084    0.0000 H   0  0  0  0  0  0  0  0  0  0  0  0
    6.8656    1.0535    0.0000 H   0  0  0  0  0  0  0  0  0  0  0  0
    7.6626    1.0535    0.0000 H   0  0  0  0  0  0  0  0  0  0  0  0
    6.1860    3.6110    0.0000 H   0  0  0  0  0  0  0  0  0  0  0  0
    5.7875    2.9208    0.0000 H   0  0  0  0  0  0  0  0  0  0  0  0
    5.7441   -0.0542    0.0000 H   0  0  0  0  0  0  0  0  0  0  0  0
    6.1426    0.6361    0.0000 H   0  0  0  0  0  0  0  0  0  0  0  0
    4.4540    0.6110    0.0000 H   0  0  0  0  0  0  0  0  0  0  0  0
    4.0555   -0.0792    0.0000 H   0  0  0  0  0  0  0  0  0  0  0  0
    8.3422    1.4458    0.0000 H   0  0  0  0  0  0  0  0  0  0  0  0
    8.7407    2.1361    0.0000 H   0  0  0  0  0  0  0  0  0  0  0  0
    4.0555    2.1361    0.0000 H   0  0  0  0  0  0  0  0  0  0  0  0
    4.4540    1.4458    0.0000 H   0  0  0  0  0  0  0  0  0  0  0  0
    3.5880   -0.8890    0.0000 H   0  0  0  0  0  0  0  0  0  0  0  0
    3.1894   -1.5792    0.0000 H   0  0  0  0  0  0  0  0  0  0  0  0
    6.1426   -1.5792    0.0000 H   0  0  0  0  0  0  0  0  0  0  0  0
    5.7441   -0.8890    0.0000 H   0  0  0  0  0  0  0  0  0  0  0  0
    3.1894   -2.3639    0.0000 H   0  0  0  0  0  0  0  0  0  0  0  0
    3.5880   -3.0542    0.0000 H   0  0  0  0  0  0  0  0  0  0  0  0
    5.7441   -3.0542    0.0000 H   0  0  0  0  0  0  0  0  0  0  0  0
    6.1426   -2.3639    0.0000 H   0  0  0  0  0  0  0  0  0  0  0  0
    5.2766    2.9208    0.0000 H   0  0  0  0  0  0  0  0  0  0  0  0
    4.8781    3.6110    0.0000 H   0  0  0  0  0  0  0  0  0  0  0  0
    4.1100    4.0653    0.0000 H   0  0  0  0  0  0  0  0  0  0  0  0
    3.2631    3.8384    0.0000 H   0  0  0  0  0  0  0  0  0  0  0  0
    3.4900    2.9915    0.0000 H   0  0  0  0  0  0  0  0  0  0  0  0
    6.0690   -4.1616    0.0000 H   0  0  0  0  0  0  0  0  0  0  0  0
    2.9132   -3.3170    0.0000 H   0  0  0  0  0  0  0  0  0  0  0  0
    9.5820    5.4693    0.0000 H   0  0  0  0  0  0  0  0  0  0  0  0
    8.6520    6.0062    0.0000 H   0  0  0  0  0  0  0  0  0  0  0  0
    6.0690   -5.7816    0.0000 H   0  0  0  0  0  0  0  0  0  0  0  0
    2.9132   -6.6262    0.0000 H   0  0  0  0  0  0  0  0  0  0  0  0
    1.4643   -4.1387    0.0000 H   0  0  0  0  0  0  0  0  0  0  0  0
    1.4643   -5.8045    0.0000 H   0  0  0  0  0  0  0  0  0  0  0  0
  1 17  1  0  0  0  0
  1 23  1  0  0  0  0
  8  2  1  6  0  0  0
  2 11  1  0  0  0  0
  2 14  1  0  0  0  0
  3 12  1  0  0  0  0
  3 15  1  0  0  0  0
  3 16  1  0  0  0  0
  4 19  1  0  0  0  0
  4 20  1  0  0  0  0
  4 22  1  0  0  0  0
  5 18  1  0  0  0  0
  5 23  2  0  0  0  0
  6 23  1  0  0  0  0
  6 61  1  0  0  0  0
  6 62  1  0  0  0  0
  7 27  1  0  0  0  0
  7 29  2  0  0  0  0
  8  9  1  0  0  0  0
  8 10  1  0  0  0  0
  8 33  1  0  0  0  0
  9 13  1  0  0  0  0
  9 34  1  0  0  0  0
  9 35  1  0  0  0  0
 10 17  1  0  0  0  0
 10 36  1  0  0  0  0
 10 37  1  0  0  0  0
 11 12  1  0  0  0  0
 11 38  1  0  0  0  0
 11 39  1  0  0  0  0
 12 40  1  0  0  0  0
 12 41  1  0  0  0  0
 13 18  1  0  0  0  0
 13 42  1  0  0  0  0
 13 43  1  0  0  0  0
 14 21  1  0  0  0  0
 14 44  1  0  0  0  0
 14 45  1  0  0  0  0
 15 19  1  0  0  0  0
 15 46  1  0  0  0  0
 15 47  1  0  0  0  0
 16 20  1  0  0  0  0
 16 48  1  0  0  0  0
 16 49  1  0  0  0  0
 17 18  2  0  0  0  0
 19 50  1  0  0  0  0
 19 51  1  0  0  0  0
 20 52  1  0  0  0  0
 20 53  1  0  0  0  0
 21 24  1  0  0  0  0
 21 54  1  0  0  0  0
 21 55  1  0  0  0  0
 22 25  1  0  0  0  0
 22 26  2  0  0  0  0
 24 56  1  0  0  0  0
 24 57  1  0  0  0  0
 24 58  1  0  0  0  0
 25 27  1  0  0  0  0
 25 28  2  0  0  0  0
 26 29  1  0  0  0  0
 26 59  1  0  0  0  0
 27 30  2  0  0  0  0
 28 31  1  0  0  0  0
 28 60  1  0  0  0  0
 29 63  1  0  0  0  0
 30 32  1  0  0  0  0
 30 64  1  0  0  0  0
 31 32  2  0  0  0  0
 31 65  1  0  0  0  0
 32 66  1  0  0  0  0
M  END
> <PUBCHEM_COMPOUND_CID>
45486325

> <PUBCHEM_COMPOUND_CANONICALIZED>
1

> <PUBCHEM_CACTVS_COMPLEXITY>
585

> <PUBCHEM_CACTVS_HBOND_ACCEPTOR>
7

> <PUBCHEM_CACTVS_HBOND_DONOR>
1

> <PUBCHEM_CACTVS_ROTATABLE_BOND>
7

> <PUBCHEM_CACTVS_SUBSKEYS>
AAADcfB7gABAAAAAAAAAAAAAAAAAAWAAAAA8eIEAAAAAAFix/AAAHAQQAAAADCjBXgQ/0fNIEAikAzRnZACC8KlxCjkI2DQ4ZJiIYOLg0dGUJAhggALIyCcQgIAOAAAAAAACAAAAAQAAQAQCAAAAAAAAAA==

> <PUBCHEM_IUPAC_OPENEYE_NAME>
(6S)-N6-propyl-N6-[2-[4-(4-quinolyl)piperazin-1-yl]ethyl]-4,5,6,7-tetrahydro-1,3-benzothiazole-2,6-diamine

> <PUBCHEM_IUPAC_CAS_NAME>
(6S)-N6-propyl-N6-[2-[4-(4-quinolinyl)-1-piperazinyl]ethyl]-4,5,6,7-tetrahydro-1,3-benzothiazole-2,6-diamine

> <PUBCHEM_IUPAC_NAME_MARKUP>
(6<I>S</I>)-6-<I>N</I>-propyl-6-<I>N</I>-[2-(4-quinolin-4-ylpiperazin-1-yl)ethyl]-4,5,6,7-tetrahydro-1,3-benzothiazole-2,6-diamine

> <PUBCHEM_IUPAC_NAME>
(6S)-6-N-propyl-6-N-[2-(4-quinolin-4-ylpiperazin-1-yl)ethyl]-4,5,6,7-tetrahydro-1,3-benzothiazole-2,6-diamine

> <PUBCHEM_IUPAC_SYSTEMATIC_NAME>
(6S)-N6-propyl-N6-[2-(4-quinolin-4-ylpiperazin-1-yl)ethyl]-4,5,6,7-tetrahydro-1,3-benzothiazole-2,6-diamine

> <PUBCHEM_IUPAC_TRADITIONAL_NAME>
[(6S)-2-amino-4,5,6,7-tetrahydro-1,3-benzothiazol-6-yl]-propyl-[2-[4-(4-quinolyl)piperazino]ethyl]amine

> <PUBCHEM_IUPAC_INCHI>
InChI=1S/C25H34N6S/c1-2-11-30(19-7-8-22-24(18-19)32-25(26)28-22)15-12-29-13-16-31(17-14-29)23-9-10-27-21-6-4-3-5-20(21)23/h3-6,9-10,19H,2,7-8,11-18H2,1H3,(H2,26,28)/t19-/m0/s1

> <PUBCHEM_IUPAC_INCHIKEY>
ZYOHPRMTOCMZRK-IBGZPJMESA-N

> <PUBCHEM_XLOGP3_AA>
4.2

> <PUBCHEM_EXACT_MASS>
450.25656628

> <PUBCHEM_MOLECULAR_FORMULA>
C25H34N6S

> <PUBCHEM_MOLECULAR_WEIGHT>
450.6

> <PUBCHEM_OPENEYE_CAN_SMILES>
CCCN(CCN1CCN(CC1)C2=CC=NC3=CC=CC=C32)C4CCC5=C(C4)SC(=N5)N

> <PUBCHEM_OPENEYE_ISO_SMILES>
CCCN(CCN1CCN(CC1)C2=CC=NC3=CC=CC=C32)[C@H]4CCC5=C(C4)SC(=N5)N

> <PUBCHEM_CACTVS_TPSA>
89.8

> <PUBCHEM_MONOISOTOPIC_WEIGHT>
450.25656628

> <PUBCHEM_TOTAL_CHARGE>
0

> <PUBCHEM_HEAVY_ATOM_COUNT>
32

> <PUBCHEM_ATOM_DEF_STEREO_COUNT>
1

> <PUBCHEM_ATOM_UDEF_STEREO_COUNT>
0

> <PUBCHEM_BOND_DEF_STEREO_COUNT>
0

> <PUBCHEM_BOND_UDEF_STEREO_COUNT>
0

> <PUBCHEM_ISOTOPIC_ATOM_COUNT>
0

> <PUBCHEM_COMPONENT_COUNT>
1

> <PUBCHEM_CACTVS_TAUTO_COUNT>
-1

> <PUBCHEM_COORDINATE_TYPE>
1
5
255

> <PUBCHEM_BONDANNOTATIONS>
1  17  8
1  23  8
17  18  8
8  2  6
22  25  8
22  26  8
25  27  8
25  28  8
26  29  8
27  30  8
28  31  8
30  32  8
31  32  8
5  18  8
5  23  8
7  27  8
7  29  8

$$$$
