44412191
  -OEChem-09292322242D

 49 52  0     0  0  0  0  0  0999 V2000
    2.8660   -0.2215    0.0000 N   0  0  0  0  0  0  0  0  0  0  0  0
    2.8660   -2.2215    0.0000 N   0  0  0  0  0  0  0  0  0  0  0  0
    4.8147    2.4809    0.0000 N   0  0  0  0  0  0  0  0  0  0  0  0
    5.3147    1.6149    0.0000 N   0  0  0  0  0  0  0  0  0  0  0  0
    3.7320   -0.7215    0.0000 C   0  0  0  0  0  0  0  0  0  0  0  0
    2.0000   -0.7215    0.0000 C   0  0  0  0  0  0  0  0  0  0  0  0
    3.7320   -1.7215    0.0000 C   0  0  0  0  0  0  0  0  0  0  0  0
    2.0000   -1.7215    0.0000 C   0  0  0  0  0  0  0  0  0  0  0  0
    2.8660    0.7785    0.0000 C   0  0  0  0  0  0  0  0  0  0  0  0
    3.7320    1.2785    0.0000 C   0  0  0  0  0  0  0  0  0  0  0  0
    2.8660   -3.2215    0.0000 C   0  0  0  0  0  0  0  0  0  0  0  0
    3.8366    2.2730    0.0000 C   0  0  0  0  0  0  0  0  0  0  0  0
    4.6456    0.8717    0.0000 C   0  0  0  0  0  0  0  0  0  0  0  0
    3.7320   -3.7215    0.0000 C   0  0  0  0  0  0  0  0  0  0  0  0
    2.0000   -3.7215    0.0000 C   0  0  0  0  0  0  0  0  0  0  0  0
    3.0934    2.9421    0.0000 C   0  0  0  0  0  0  0  0  0  0  0  0
    5.2215    3.3944    0.0000 C   0  0  0  0  0  0  0  0  0  0  0  0
    3.7320   -4.7215    0.0000 C   0  0  0  0  0  0  0  0  0  0  0  0
    2.0000   -4.7215    0.0000 C   0  0  0  0  0  0  0  0  0  0  0  0
    2.8660   -5.2215    0.0000 C   0  0  0  0  0  0  0  0  0  0  0  0
    6.2160    3.4990    0.0000 C   0  0  0  0  0  0  0  0  0  0  0  0
    4.6337    4.2035    0.0000 C   0  0  0  0  0  0  0  0  0  0  0  0
    6.6227    4.4125    0.0000 C   0  0  0  0  0  0  0  0  0  0  0  0
    5.0404    5.1170    0.0000 C   0  0  0  0  0  0  0  0  0  0  0  0
    6.0349    5.2215    0.0000 C   0  0  0  0  0  0  0  0  0  0  0  0
    4.3426   -0.8292    0.0000 H   0  0  0  0  0  0  0  0  0  0  0  0
    3.9441   -0.1389    0.0000 H   0  0  0  0  0  0  0  0  0  0  0  0
    1.7880   -0.1389    0.0000 H   0  0  0  0  0  0  0  0  0  0  0  0
    1.3894   -0.8292    0.0000 H   0  0  0  0  0  0  0  0  0  0  0  0
    3.9441   -2.3041    0.0000 H   0  0  0  0  0  0  0  0  0  0  0  0
    4.3426   -1.6139    0.0000 H   0  0  0  0  0  0  0  0  0  0  0  0
    1.3894   -1.6139    0.0000 H   0  0  0  0  0  0  0  0  0  0  0  0
    1.7880   -2.3041    0.0000 H   0  0  0  0  0  0  0  0  0  0  0  0
    2.6540    1.3611    0.0000 H   0  0  0  0  0  0  0  0  0  0  0  0
    2.2554    0.6708    0.0000 H   0  0  0  0  0  0  0  0  0  0  0  0
    4.7745    0.2653    0.0000 H   0  0  0  0  0  0  0  0  0  0  0  0
    4.2690   -3.4115    0.0000 H   0  0  0  0  0  0  0  0  0  0  0  0
    1.4631   -3.4115    0.0000 H   0  0  0  0  0  0  0  0  0  0  0  0
    3.5083    3.4029    0.0000 H   0  0  0  0  0  0  0  0  0  0  0  0
    2.6327    3.3570    0.0000 H   0  0  0  0  0  0  0  0  0  0  0  0
    2.6786    2.4814    0.0000 H   0  0  0  0  0  0  0  0  0  0  0  0
    4.2690   -5.0315    0.0000 H   0  0  0  0  0  0  0  0  0  0  0  0
    1.4631   -5.0315    0.0000 H   0  0  0  0  0  0  0  0  0  0  0  0
    2.8660   -5.8415    0.0000 H   0  0  0  0  0  0  0  0  0  0  0  0
    6.5804    2.9974    0.0000 H   0  0  0  0  0  0  0  0  0  0  0  0
    4.0171    4.1386    0.0000 H   0  0  0  0  0  0  0  0  0  0  0  0
    7.2393    4.4773    0.0000 H   0  0  0  0  0  0  0  0  0  0  0  0
    4.6760    5.6186    0.0000 H   0  0  0  0  0  0  0  0  0  0  0  0
    6.2871    5.7879    0.0000 H   0  0  0  0  0  0  0  0  0  0  0  0
  1  5  1  0  0  0  0
  1  6  1  0  0  0  0
  1  9  1  0  0  0  0
  2  7  1  0  0  0  0
  2  8  1  0  0  0  0
  2 11  1  0  0  0  0
  3  4  1  0  0  0  0
  3 12  1  0  0  0  0
  3 17  1  0  0  0  0
  4 13  2  0  0  0  0
  5  7  1  0  0  0  0
  5 26  1  0  0  0  0
  5 27  1  0  0  0  0
  6  8  1  0  0  0  0
  6 28  1  0  0  0  0
  6 29  1  0  0  0  0
  7 30  1  0  0  0  0
  7 31  1  0  0  0  0
  8 32  1  0  0  0  0
  8 33  1  0  0  0  0
  9 10  1  0  0  0  0
  9 34  1  0  0  0  0
  9 35  1  0  0  0  0
 10 12  2  0  0  0  0
 10 13  1  0  0  0  0
 11 14  2  0  0  0  0
 11 15  1  0  0  0  0
 12 16  1  0  0  0  0
 13 36  1  0  0  0  0
 14 18  1  0  0  0  0
 14 37  1  0  0  0  0
 15 19  2  0  0  0  0
 15 38  1  0  0  0  0
 16 39  1  0  0  0  0
 16 40  1  0  0  0  0
 16 41  1  0  0  0  0
 17 21  2  0  0  0  0
 17 22  1  0  0  0  0
 18 20  2  0  0  0  0
 18 42  1  0  0  0  0
 19 20  1  0  0  0  0
 19 43  1  0  0  0  0
 20 44  1  0  0  0  0
 21 23  1  0  0  0  0
 21 45  1  0  0  0  0
 22 24  2  0  0  0  0
 22 46  1  0  0  0  0
 23 25  2  0  0  0  0
 23 47  1  0  0  0  0
 24 25  1  0  0  0  0
 24 48  1  0  0  0  0
 25 49  1  0  0  0  0
M  END
> <PUBCHEM_COMPOUND_CID>
44412191

> <PUBCHEM_COMPOUND_CANONICALIZED>
1

> <PUBCHEM_CACTVS_COMPLEXITY>
395

> <PUBCHEM_CACTVS_HBOND_ACCEPTOR>
3

> <PUBCHEM_CACTVS_HBOND_DONOR>
0

> <PUBCHEM_CACTVS_ROTATABLE_BOND>
4

> <PUBCHEM_CACTVS_SUBSKEYS>
AAADceB7gAAAAAAAAAAAAAAAAAAAAWAAAAA8YIAAAAAAAAAB0AAAHAAIAAAADAjBHgQ+wJMIAACiAzRnRACSBCAhggAYmCA4ZJgIYOLA0dGUpAhgiADIyAcQAAAIAAAAAAAAAAAAAAAAAAAAAAAAAAAAAA==

> <PUBCHEM_IUPAC_OPENEYE_NAME>
1-[(5-methyl-1-phenyl-pyrazol-4-yl)methyl]-4-phenyl-piperazine

> <PUBCHEM_IUPAC_CAS_NAME>
1-[(5-methyl-1-phenyl-4-pyrazolyl)methyl]-4-phenylpiperazine

> <PUBCHEM_IUPAC_NAME_MARKUP>
1-[(5-methyl-1-phenylpyrazol-4-yl)methyl]-4-phenylpiperazine

> <PUBCHEM_IUPAC_NAME>
1-[(5-methyl-1-phenylpyrazol-4-yl)methyl]-4-phenylpiperazine

> <PUBCHEM_IUPAC_SYSTEMATIC_NAME>
1-[(5-methyl-1-phenyl-pyrazol-4-yl)methyl]-4-phenyl-piperazine

> <PUBCHEM_IUPAC_TRADITIONAL_NAME>
1-[(5-methyl-1-phenyl-pyrazol-4-yl)methyl]-4-phenyl-piperazine

> <PUBCHEM_IUPAC_INCHI>
InChI=1S/C21H24N4/c1-18-19(16-22-25(18)21-10-6-3-7-11-21)17-23-12-14-24(15-13-23)20-8-4-2-5-9-20/h2-11,16H,12-15,17H2,1H3

> <PUBCHEM_IUPAC_INCHIKEY>
VFZKZZYPGOBKJY-UHFFFAOYSA-N

> <PUBCHEM_XLOGP3_AA>
3.7

> <PUBCHEM_EXACT_MASS>
332.20009678

> <PUBCHEM_MOLECULAR_FORMULA>
C21H24N4

> <PUBCHEM_MOLECULAR_WEIGHT>
332.4

> <PUBCHEM_OPENEYE_CAN_SMILES>
CC1=C(C=NN1C2=CC=CC=C2)CN3CCN(CC3)C4=CC=CC=C4

> <PUBCHEM_OPENEYE_ISO_SMILES>
CC1=C(C=NN1C2=CC=CC=C2)CN3CCN(CC3)C4=CC=CC=C4

> <PUBCHEM_CACTVS_TPSA>
24.3

> <PUBCHEM_MONOISOTOPIC_WEIGHT>
332.20009678

> <PUBCHEM_TOTAL_CHARGE>
0

> <PUBCHEM_HEAVY_ATOM_COUNT>
25

> <PUBCHEM_ATOM_DEF_STEREO_COUNT>
0

> <PUBCHEM_ATOM_UDEF_STEREO_COUNT>
0

> <PUBCHEM_BOND_DEF_STEREO_COUNT>
0

> <PUBCHEM_BOND_UDEF_STEREO_COUNT>
0

> <PUBCHEM_ISOTOPIC_ATOM_COUNT>
0

> <PUBCHEM_COMPONENT_COUNT>
1

> <PUBCHEM_CACTVS_TAUTO_COUNT>
-1

> <PUBCHEM_COORDINATE_TYPE>
1
5
255

> <PUBCHEM_BONDANNOTATIONS>
10  12  8
10  13  8
11  14  8
11  15  8
14  18  8
15  19  8
17  21  8
17  22  8
18  20  8
19  20  8
21  23  8
22  24  8
23  25  8
24  25  8
3  12  8
3  4  8
4  13  8

$$$$
