57326689
  -OEChem-09292322052D

 73 76  0     0  0  0  0  0  0999 V2000
    8.7204    2.6797    0.0000 Cl  0  0  0  0  0  0  0  0  0  0  0  0
    6.6150    0.3527    0.0000 O   0  0  0  0  0  0  0  0  0  0  0  0
    3.9491    4.4444    0.0000 N   0  0  0  0  0  0  0  0  0  0  0  0
    3.0814    6.2463    0.0000 N   0  0  0  0  0  0  0  0  0  0  0  0
    4.8830    1.3527    0.0000 N   0  0  0  0  0  0  0  0  0  0  0  0
    5.3830    3.5434    0.0000 N   0  0  0  0  0  0  0  0  0  0  0  0
    4.8830    0.3527    0.0000 N   0  0  0  0  0  0  0  0  0  0  0  0
    2.9519    4.5191    0.0000 C   0  0  0  0  0  0  0  0  0  0  0  0
    4.5125    5.2706    0.0000 C   0  0  0  0  0  0  0  0  0  0  0  0
    2.5180    5.4201    0.0000 C   0  0  0  0  0  0  0  0  0  0  0  0
    4.0786    6.1716    0.0000 C   0  0  0  0  0  0  0  0  0  0  0  0
    4.3830    3.5434    0.0000 C   0  0  0  0  0  0  0  0  0  0  0  0
    3.7595    2.7616    0.0000 C   0  0  0  0  0  0  0  0  0  0  0  0
    2.6475    7.1473    0.0000 C   0  0  0  0  0  0  0  0  0  0  0  0
    7.4810   -3.1473    0.0000 C   0  0  0  0  0  0  0  0  0  0  0  0
    3.9820    1.7866    0.0000 C   0  0  0  0  0  0  0  0  0  0  0  0
    6.6150   -2.6473    0.0000 C   0  0  0  0  0  0  0  0  0  0  0  0
    7.4810   -4.1473    0.0000 C   0  0  0  0  0  0  0  0  0  0  0  0
    6.6150   -1.6473    0.0000 C   0  0  0  0  0  0  0  0  0  0  0  0
    8.3470   -4.6473    0.0000 C   0  0  0  0  0  0  0  0  0  0  0  0
    5.7840    1.7866    0.0000 C   0  0  0  0  0  0  0  0  0  0  0  0
    6.0065    2.7616    0.0000 C   0  0  0  0  0  0  0  0  0  0  0  0
    5.7490   -1.1473    0.0000 C   0  0  0  0  0  0  0  0  0  0  0  0
    8.3470   -5.6473    0.0000 C   0  0  0  0  0  0  0  0  0  0  0  0
    2.7690    3.0839    0.0000 C   0  0  0  0  0  0  0  0  0  0  0  0
    3.2295    1.0665    0.0000 C   0  0  0  0  0  0  0  0  0  0  0  0
    5.7490   -0.1473    0.0000 C   0  0  0  0  0  0  0  0  0  0  0  0
    9.2131   -6.1473    0.0000 C   0  0  0  0  0  0  0  0  0  0  0  0
    2.0000    2.3813    0.0000 C   0  0  0  0  0  0  0  0  0  0  0  0
    6.5365    1.0664    0.0000 C   0  0  0  0  0  0  0  0  0  0  0  0
    6.9970    3.0839    0.0000 C   0  0  0  0  0  0  0  0  0  0  0  0
    2.2318    1.3658    0.0000 C   0  0  0  0  0  0  0  0  0  0  0  0
    7.5342    1.3658    0.0000 C   0  0  0  0  0  0  0  0  0  0  0  0
    7.7660    2.3813    0.0000 C   0  0  0  0  0  0  0  0  0  0  0  0
    9.2131   -7.1473    0.0000 C   0  0  0  0  0  0  0  0  0  0  0  0
    2.3551    4.3512    0.0000 H   0  0  0  0  0  0  0  0  0  0  0  0
    3.0137    3.9022    0.0000 H   0  0  0  0  0  0  0  0  0  0  0  0
    4.9563    4.8377    0.0000 H   0  0  0  0  0  0  0  0  0  0  0  0
    5.0159    5.6325    0.0000 H   0  0  0  0  0  0  0  0  0  0  0  0
    2.0742    5.8530    0.0000 H   0  0  0  0  0  0  0  0  0  0  0  0
    2.0146    5.0582    0.0000 H   0  0  0  0  0  0  0  0  0  0  0  0
    4.6754    6.3395    0.0000 H   0  0  0  0  0  0  0  0  0  0  0  0
    4.0168    6.7885    0.0000 H   0  0  0  0  0  0  0  0  0  0  0  0
    3.2061    7.4163    0.0000 H   0  0  0  0  0  0  0  0  0  0  0  0
    2.3785    7.7059    0.0000 H   0  0  0  0  0  0  0  0  0  0  0  0
    2.0889    6.8783    0.0000 H   0  0  0  0  0  0  0  0  0  0  0  0
    8.0916   -3.2549    0.0000 H   0  0  0  0  0  0  0  0  0  0  0  0
    7.6931   -2.5647    0.0000 H   0  0  0  0  0  0  0  0  0  0  0  0
    6.0044   -2.5396    0.0000 H   0  0  0  0  0  0  0  0  0  0  0  0
    6.4030   -3.2299    0.0000 H   0  0  0  0  0  0  0  0  0  0  0  0
    6.8704   -4.0396    0.0000 H   0  0  0  0  0  0  0  0  0  0  0  0
    7.2690   -4.7299    0.0000 H   0  0  0  0  0  0  0  0  0  0  0  0
    7.2256   -1.7549    0.0000 H   0  0  0  0  0  0  0  0  0  0  0  0
    6.8271   -1.0647    0.0000 H   0  0  0  0  0  0  0  0  0  0  0  0
    8.9576   -4.7549    0.0000 H   0  0  0  0  0  0  0  0  0  0  0  0
    8.5591   -4.0647    0.0000 H   0  0  0  0  0  0  0  0  0  0  0  0
    5.1384   -1.0396    0.0000 H   0  0  0  0  0  0  0  0  0  0  0  0
    5.5369   -1.7299    0.0000 H   0  0  0  0  0  0  0  0  0  0  0  0
    7.7365   -5.5396    0.0000 H   0  0  0  0  0  0  0  0  0  0  0  0
    8.1350   -6.2299    0.0000 H   0  0  0  0  0  0  0  0  0  0  0  0
    2.6380    3.6899    0.0000 H   0  0  0  0  0  0  0  0  0  0  0  0
    4.3460    0.0428    0.0000 H   0  0  0  0  0  0  0  0  0  0  0  0
    3.3744    0.4636    0.0000 H   0  0  0  0  0  0  0  0  0  0  0  0
    9.8236   -6.2550    0.0000 H   0  0  0  0  0  0  0  0  0  0  0  0
    9.4251   -5.5647    0.0000 H   0  0  0  0  0  0  0  0  0  0  0  0
    1.4083    2.5664    0.0000 H   0  0  0  0  0  0  0  0  0  0  0  0
    6.3916    0.4636    0.0000 H   0  0  0  0  0  0  0  0  0  0  0  0
    7.1280    3.6899    0.0000 H   0  0  0  0  0  0  0  0  0  0  0  0
    1.7789    0.9424    0.0000 H   0  0  0  0  0  0  0  0  0  0  0  0
    7.9871    0.9423    0.0000 H   0  0  0  0  0  0  0  0  0  0  0  0
    8.5931   -7.1473    0.0000 H   0  0  0  0  0  0  0  0  0  0  0  0
    9.2131   -7.7673    0.0000 H   0  0  0  0  0  0  0  0  0  0  0  0
    9.8331   -7.1473    0.0000 H   0  0  0  0  0  0  0  0  0  0  0  0
  1 34  1  0  0  0  0
  2 27  2  0  0  0  0
  3  8  1  0  0  0  0
  3  9  1  0  0  0  0
  3 12  1  0  0  0  0
  4 10  1  0  0  0  0
  4 11  1  0  0  0  0
  4 14  1  0  0  0  0
  5  7  1  0  0  0  0
  5 16  1  0  0  0  0
  5 21  1  0  0  0  0
  6 12  2  0  0  0  0
  6 22  1  0  0  0  0
  7 27  1  0  0  0  0
  7 62  1  0  0  0  0
  8 10  1  0  0  0  0
  8 36  1  0  0  0  0
  8 37  1  0  0  0  0
  9 11  1  0  0  0  0
  9 38  1  0  0  0  0
  9 39  1  0  0  0  0
 10 40  1  0  0  0  0
 10 41  1  0  0  0  0
 11 42  1  0  0  0  0
 11 43  1  0  0  0  0
 12 13  1  0  0  0  0
 13 16  1  0  0  0  0
 13 25  2  0  0  0  0
 14 44  1  0  0  0  0
 14 45  1  0  0  0  0
 14 46  1  0  0  0  0
 15 17  1  0  0  0  0
 15 18  1  0  0  0  0
 15 47  1  0  0  0  0
 15 48  1  0  0  0  0
 16 26  2  0  0  0  0
 17 19  1  0  0  0  0
 17 49  1  0  0  0  0
 17 50  1  0  0  0  0
 18 20  1  0  0  0  0
 18 51  1  0  0  0  0
 18 52  1  0  0  0  0
 19 23  1  0  0  0  0
 19 53  1  0  0  0  0
 19 54  1  0  0  0  0
 20 24  1  0  0  0  0
 20 55  1  0  0  0  0
 20 56  1  0  0  0  0
 21 22  2  0  0  0  0
 21 30  1  0  0  0  0
 22 31  1  0  0  0  0
 23 27  1  0  0  0  0
 23 57  1  0  0  0  0
 23 58  1  0  0  0  0
 24 28  1  0  0  0  0
 24 59  1  0  0  0  0
 24 60  1  0  0  0  0
 25 29  1  0  0  0  0
 25 61  1  0  0  0  0
 26 32  1  0  0  0  0
 26 63  1  0  0  0  0
 28 35  1  0  0  0  0
 28 64  1  0  0  0  0
 28 65  1  0  0  0  0
 29 32  2  0  0  0  0
 29 66  1  0  0  0  0
 30 33  2  0  0  0  0
 30 67  1  0  0  0  0
 31 34  2  0  0  0  0
 31 68  1  0  0  0  0
 32 69  1  0  0  0  0
 33 34  1  0  0  0  0
 33 70  1  0  0  0  0
 35 71  1  0  0  0  0
 35 72  1  0  0  0  0
 35 73  1  0  0  0  0
M  END
> <PUBCHEM_COMPOUND_CID>
57326689

> <PUBCHEM_COMPOUND_CANONICALIZED>
1

> <PUBCHEM_CACTVS_COMPLEXITY>
695

> <PUBCHEM_CACTVS_HBOND_ACCEPTOR>
4

> <PUBCHEM_CACTVS_HBOND_DONOR>
1

> <PUBCHEM_CACTVS_ROTATABLE_BOND>
10

> <PUBCHEM_CACTVS_SUBSKEYS>
AAADcfB7oAAEAAAAAAAAAAAAAAAAAAAAAAA8YIAABAAAAAABQAAAHgIYAAAADArBmCQzwINiAACoAidydACCBAEhBwAbqAEodpgIYPLB25GUIAhgkADIyAcYiICOAABAAAICACAAAIAABAQAQAAAAAAAAA==

> <PUBCHEM_IUPAC_OPENEYE_NAME>
N-[3-chloro-6-(4-methylpiperazin-1-yl)benzo[b][1,4]benzodiazepin-11-yl]decanamide

> <PUBCHEM_IUPAC_CAS_NAME>
N-[3-chloro-6-(4-methyl-1-piperazinyl)-11-benzo[b][1,4]benzodiazepinyl]decanamide

> <PUBCHEM_IUPAC_NAME_MARKUP>
<I>N</I>-[3-chloro-6-(4-methylpiperazin-1-yl)benzo[b][1,4]benzodiazepin-11-yl]decanamide

> <PUBCHEM_IUPAC_NAME>
N-[3-chloro-6-(4-methylpiperazin-1-yl)benzo[b][1,4]benzodiazepin-11-yl]decanamide

> <PUBCHEM_IUPAC_SYSTEMATIC_NAME>
N-[3-chloranyl-6-(4-methylpiperazin-1-yl)benzo[b][1,4]benzodiazepin-11-yl]decanamide

> <PUBCHEM_IUPAC_TRADITIONAL_NAME>
N-[3-chloro-6-(4-methylpiperazino)benzo[b][1,4]benzodiazepin-11-yl]capramide

> <PUBCHEM_IUPAC_INCHI>
InChI=1S/C28H38ClN5O/c1-3-4-5-6-7-8-9-14-27(35)31-34-25-13-11-10-12-23(25)28(33-19-17-32(2)18-20-33)30-24-21-22(29)15-16-26(24)34/h10-13,15-16,21H,3-9,14,17-20H2,1-2H3,(H,31,35)

> <PUBCHEM_IUPAC_INCHIKEY>
BIWLNMBIJPTJCZ-UHFFFAOYSA-N

> <PUBCHEM_XLOGP3_AA>
6.8

> <PUBCHEM_EXACT_MASS>
495.2764885

> <PUBCHEM_MOLECULAR_FORMULA>
C28H38ClN5O

> <PUBCHEM_MOLECULAR_WEIGHT>
496.1

> <PUBCHEM_OPENEYE_CAN_SMILES>
CCCCCCCCCC(=O)NN1C2=C(C=C(C=C2)Cl)N=C(C3=CC=CC=C31)N4CCN(CC4)C

> <PUBCHEM_OPENEYE_ISO_SMILES>
CCCCCCCCCC(=O)NN1C2=C(C=C(C=C2)Cl)N=C(C3=CC=CC=C31)N4CCN(CC4)C

> <PUBCHEM_CACTVS_TPSA>
51.2

> <PUBCHEM_MONOISOTOPIC_WEIGHT>
495.2764885

> <PUBCHEM_TOTAL_CHARGE>
0

> <PUBCHEM_HEAVY_ATOM_COUNT>
35

> <PUBCHEM_ATOM_DEF_STEREO_COUNT>
0

> <PUBCHEM_ATOM_UDEF_STEREO_COUNT>
0

> <PUBCHEM_BOND_DEF_STEREO_COUNT>
0

> <PUBCHEM_BOND_UDEF_STEREO_COUNT>
0

> <PUBCHEM_ISOTOPIC_ATOM_COUNT>
0

> <PUBCHEM_COMPONENT_COUNT>
1

> <PUBCHEM_CACTVS_TAUTO_COUNT>
-1

> <PUBCHEM_COORDINATE_TYPE>
1
5
255

> <PUBCHEM_BONDANNOTATIONS>
13  16  8
13  25  8
16  26  8
21  22  8
21  30  8
22  31  8
25  29  8
26  32  8
29  32  8
30  33  8
31  34  8
33  34  8

$$$$
