44436745
  -OEChem-09292322252D

 69 74  0     1  0  0  0  0  0999 V2000
    6.2563   -3.1550    0.0000 O   0  0  0  0  0  0  0  0  0  0  0  0
    9.3303    3.1340    0.0000 N   0  0  3  0  0  0  0  0  0  0  0  0
    7.6296    1.9552    0.0000 N   0  0  3  0  0  0  0  0  0  0  0  0
    5.2861   -1.7202    0.0000 N   0  0  0  0  0  0  0  0  0  0  0  0
    8.4293    3.5679    0.0000 C   0  0  3  0  0  0  0  0  0  0  0  0
    7.5597    2.9945    0.0000 C   0  0  0  0  0  0  0  0  0  0  0  0
    9.4241    2.0966    0.0000 C   0  0  0  0  0  0  0  0  0  0  0  0
    8.5680    1.5032    0.0000 C   0  0  0  0  0  0  0  0  0  0  0  0
    8.2068    4.5428    0.0000 C   0  0  0  0  0  0  0  0  0  0  0  0
   10.2312    3.5679    0.0000 C   0  0  0  0  0  0  0  0  0  0  0  0
    6.8012    1.3951    0.0000 C   0  0  0  0  0  0  0  0  0  0  0  0
    8.8303    5.3247    0.0000 C   0  0  0  0  0  0  0  0  0  0  0  0
   10.4538    4.5428    0.0000 C   0  0  0  0  0  0  0  0  0  0  0  0
    9.8303    5.3247    0.0000 C   0  0  0  0  0  0  0  0  0  0  0  0
    6.8720    0.3976    0.0000 C   0  0  0  0  0  0  0  0  0  0  0  0
    7.1745    4.6822    0.0000 C   0  0  0  0  0  0  0  0  0  0  0  0
   10.9838    2.8477    0.0000 C   0  0  0  0  0  0  0  0  0  0  0  0
    8.4647    6.3000    0.0000 C   0  0  0  0  0  0  0  0  0  0  0  0
    6.0436   -0.1626    0.0000 C   0  0  0  0  0  0  0  0  0  0  0  0
   11.4443    4.8652    0.0000 C   0  0  0  0  0  0  0  0  0  0  0  0
    6.7865    5.6489    0.0000 C   0  0  0  0  0  0  0  0  0  0  0  0
    7.4359    6.4632    0.0000 C   0  0  0  0  0  0  0  0  0  0  0  0
   11.9815    3.1471    0.0000 C   0  0  0  0  0  0  0  0  0  0  0  0
   12.2133    4.1626    0.0000 C   0  0  0  0  0  0  0  0  0  0  0  0
    6.1145   -1.1600    0.0000 C   0  0  0  0  0  0  0  0  0  0  0  0
    5.3570   -2.7176    0.0000 C   0  0  0  0  0  0  0  0  0  0  0  0
    4.5286   -3.2778    0.0000 C   0  0  0  0  0  0  0  0  0  0  0  0
    4.5995   -4.2753    0.0000 C   0  0  0  0  0  0  0  0  0  0  0  0
    3.6293   -2.8404    0.0000 C   0  0  0  0  0  0  0  0  0  0  0  0
    3.7711   -4.8354    0.0000 C   0  0  0  0  0  0  0  0  0  0  0  0
    2.8718   -4.3980    0.0000 C   0  0  0  0  0  0  0  0  0  0  0  0
    2.8009   -3.4006    0.0000 C   0  0  0  0  0  0  0  0  0  0  0  0
    3.8609   -5.8732    0.0000 C   0  0  0  0  0  0  0  0  0  0  0  0
    2.0000   -4.9681    0.0000 C   0  0  0  0  0  0  0  0  0  0  0  0
    3.0026   -6.4632    0.0000 C   0  0  0  0  0  0  0  0  0  0  0  0
    2.0658   -6.0077    0.0000 C   0  0  0  0  0  0  0  0  0  0  0  0
    7.8539    3.7989    0.0000 H   0  0  0  0  0  0  0  0  0  0  0  0
    7.3120    3.5628    0.0000 H   0  0  0  0  0  0  0  0  0  0  0  0
    6.9574    2.8477    0.0000 H   0  0  0  0  0  0  0  0  0  0  0  0
    9.6849    1.5341    0.0000 H   0  0  0  0  0  0  0  0  0  0  0  0
   10.0229    2.2573    0.0000 H   0  0  0  0  0  0  0  0  0  0  0  0
    8.2074    0.9989    0.0000 H   0  0  0  0  0  0  0  0  0  0  0  0
    9.0032    1.0616    0.0000 H   0  0  0  0  0  0  0  0  0  0  0  0
    6.5483    1.9612    0.0000 H   0  0  0  0  0  0  0  0  0  0  0  0
    6.1997    1.2444    0.0000 H   0  0  0  0  0  0  0  0  0  0  0  0
   10.3889    5.5937    0.0000 H   0  0  0  0  0  0  0  0  0  0  0  0
    9.6923    5.9291    0.0000 H   0  0  0  0  0  0  0  0  0  0  0  0
    7.1248   -0.1685    0.0000 H   0  0  0  0  0  0  0  0  0  0  0  0
    7.4734    0.5482    0.0000 H   0  0  0  0  0  0  0  0  0  0  0  0
    6.7936    4.1930    0.0000 H   0  0  0  0  0  0  0  0  0  0  0  0
   10.8388    2.2449    0.0000 H   0  0  0  0  0  0  0  0  0  0  0  0
    8.8568    6.7803    0.0000 H   0  0  0  0  0  0  0  0  0  0  0  0
    5.7908    0.4036    0.0000 H   0  0  0  0  0  0  0  0  0  0  0  0
    5.4422   -0.3132    0.0000 H   0  0  0  0  0  0  0  0  0  0  0  0
   11.5752    5.4712    0.0000 H   0  0  0  0  0  0  0  0  0  0  0  0
    6.1731    5.7389    0.0000 H   0  0  0  0  0  0  0  0  0  0  0  0
    7.2117    7.0412    0.0000 H   0  0  0  0  0  0  0  0  0  0  0  0
   12.4343    2.7236    0.0000 H   0  0  0  0  0  0  0  0  0  0  0  0
   12.8050    4.3476    0.0000 H   0  0  0  0  0  0  0  0  0  0  0  0
    6.3673   -1.7262    0.0000 H   0  0  0  0  0  0  0  0  0  0  0  0
    6.7159   -1.0094    0.0000 H   0  0  0  0  0  0  0  0  0  0  0  0
    4.7286   -1.4490    0.0000 H   0  0  0  0  0  0  0  0  0  0  0  0
    5.1570   -4.5464    0.0000 H   0  0  0  0  0  0  0  0  0  0  0  0
    3.5854   -2.2220    0.0000 H   0  0  0  0  0  0  0  0  0  0  0  0
    2.2433   -3.1294    0.0000 H   0  0  0  0  0  0  0  0  0  0  0  0
    4.4216   -6.1378    0.0000 H   0  0  0  0  0  0  0  0  0  0  0  0
    1.4456   -4.6905    0.0000 H   0  0  0  0  0  0  0  0  0  0  0  0
    3.0489   -7.0815    0.0000 H   0  0  0  0  0  0  0  0  0  0  0  0
    1.5509   -6.3530    0.0000 H   0  0  0  0  0  0  0  0  0  0  0  0
  1 26  2  0  0  0  0
  2  5  1  0  0  0  0
  2  7  1  0  0  0  0
  2 10  1  0  0  0  0
  3  6  1  0  0  0  0
  3  8  1  0  0  0  0
  3 11  1  0  0  0  0
  4 25  1  0  0  0  0
  4 26  1  0  0  0  0
  4 62  1  0  0  0  0
  5  6  1  0  0  0  0
  5  9  1  0  0  0  0
  5 37  1  0  0  0  0
  6 38  1  0  0  0  0
  6 39  1  0  0  0  0
  7  8  1  0  0  0  0
  7 40  1  0  0  0  0
  7 41  1  0  0  0  0
  8 42  1  0  0  0  0
  8 43  1  0  0  0  0
  9 12  1  0  0  0  0
  9 16  2  0  0  0  0
 10 13  1  0  0  0  0
 10 17  2  0  0  0  0
 11 15  1  0  0  0  0
 11 44  1  0  0  0  0
 11 45  1  0  0  0  0
 12 14  1  0  0  0  0
 12 18  2  0  0  0  0
 13 14  1  0  0  0  0
 13 20  2  0  0  0  0
 14 46  1  0  0  0  0
 14 47  1  0  0  0  0
 15 19  1  0  0  0  0
 15 48  1  0  0  0  0
 15 49  1  0  0  0  0
 16 21  1  0  0  0  0
 16 50  1  0  0  0  0
 17 23  1  0  0  0  0
 17 51  1  0  0  0  0
 18 22  1  0  0  0  0
 18 52  1  0  0  0  0
 19 25  1  0  0  0  0
 19 53  1  0  0  0  0
 19 54  1  0  0  0  0
 20 24  1  0  0  0  0
 20 55  1  0  0  0  0
 21 22  2  0  0  0  0
 21 56  1  0  0  0  0
 22 57  1  0  0  0  0
 23 24  2  0  0  0  0
 23 58  1  0  0  0  0
 24 59  1  0  0  0  0
 25 60  1  0  0  0  0
 25 61  1  0  0  0  0
 26 27  1  0  0  0  0
 27 28  2  0  0  0  0
 27 29  1  0  0  0  0
 28 30  1  0  0  0  0
 28 63  1  0  0  0  0
 29 32  2  0  0  0  0
 29 64  1  0  0  0  0
 30 31  1  0  0  0  0
 30 33  2  0  0  0  0
 31 32  1  0  0  0  0
 31 34  2  0  0  0  0
 32 65  1  0  0  0  0
 33 35  1  0  0  0  0
 33 66  1  0  0  0  0
 34 36  1  0  0  0  0
 34 67  1  0  0  0  0
 35 36  2  0  0  0  0
 35 68  1  0  0  0  0
 36 69  1  0  0  0  0
M  END
> <PUBCHEM_COMPOUND_CID>
44436745

> <PUBCHEM_COMPOUND_CANONICALIZED>
1

> <PUBCHEM_CACTVS_COMPLEXITY>
726

> <PUBCHEM_CACTVS_HBOND_ACCEPTOR>
3

> <PUBCHEM_CACTVS_HBOND_DONOR>
1

> <PUBCHEM_CACTVS_ROTATABLE_BOND>
6

> <PUBCHEM_CACTVS_SUBSKEYS>
AAADcfB/IAAAAAAAAAAAAAAAAAAAAAAAAAA8YMGCBYAAAADBVAAAHgAQAAAADCjBmAQwwMPAAACIAiVSUACCAAAlAgAIiIEIZMgIYDLAlZGUIQhglgDIyYcYiMCOwAACAAASAACAAAQAACQAAAAAAAAAAA==

> <PUBCHEM_IUPAC_OPENEYE_NAME>
N-[4-(2,5-diazatetracyclo[13.4.0.02,7.08,13]nonadeca-1(19),8,10,12,15,17-hexaen-5-yl)butyl]naphthalene-2-carboxamide

> <PUBCHEM_IUPAC_CAS_NAME>
N-[4-(2,5-diazatetracyclo[13.4.0.02,7.08,13]nonadeca-1(19),8,10,12,15,17-hexaen-5-yl)butyl]-2-naphthalenecarboxamide

> <PUBCHEM_IUPAC_NAME_MARKUP>
<I>N</I>-[4-(2,5-diazatetracyclo[13.4.0.0<SUP>2,7</SUP>.0<SUP>8,13</SUP>]nonadeca-1(19),8,10,12,15,17-hexaen-5-yl)butyl]naphthalene-2-carboxamide

> <PUBCHEM_IUPAC_NAME>
N-[4-(2,5-diazatetracyclo[13.4.0.02,7.08,13]nonadeca-1(19),8,10,12,15,17-hexaen-5-yl)butyl]naphthalene-2-carboxamide

> <PUBCHEM_IUPAC_SYSTEMATIC_NAME>
N-[4-(2,5-diazatetracyclo[13.4.0.02,7.08,13]nonadeca-1(19),8,10,12,15,17-hexaen-5-yl)butyl]naphthalene-2-carboxamide

> <PUBCHEM_IUPAC_TRADITIONAL_NAME>
N-[4-(2,5-diazatetracyclo[13.4.0.02,7.08,13]nonadeca-1(19),8,10,12,15,17-hexaen-5-yl)butyl]-2-naphthamide

> <PUBCHEM_IUPAC_INCHI>
InChI=1S/C32H33N3O/c36-32(28-16-15-24-9-1-2-10-25(24)21-28)33-17-7-8-18-34-19-20-35-30-14-6-4-12-27(30)22-26-11-3-5-13-29(26)31(35)23-34/h1-6,9-16,21,31H,7-8,17-20,22-23H2,(H,33,36)

> <PUBCHEM_IUPAC_INCHIKEY>
RWDSDWDANDUVKH-UHFFFAOYSA-N

> <PUBCHEM_XLOGP3_AA>
6.3

> <PUBCHEM_EXACT_MASS>
475.262362685

> <PUBCHEM_MOLECULAR_FORMULA>
C32H33N3O

> <PUBCHEM_MOLECULAR_WEIGHT>
475.6

> <PUBCHEM_OPENEYE_CAN_SMILES>
C1CN2C(CN1CCCCNC(=O)C3=CC4=CC=CC=C4C=C3)C5=CC=CC=C5CC6=CC=CC=C62

> <PUBCHEM_OPENEYE_ISO_SMILES>
C1CN2C(CN1CCCCNC(=O)C3=CC4=CC=CC=C4C=C3)C5=CC=CC=C5CC6=CC=CC=C62

> <PUBCHEM_CACTVS_TPSA>
35.6

> <PUBCHEM_MONOISOTOPIC_WEIGHT>
475.262362685

> <PUBCHEM_TOTAL_CHARGE>
0

> <PUBCHEM_HEAVY_ATOM_COUNT>
36

> <PUBCHEM_ATOM_DEF_STEREO_COUNT>
0

> <PUBCHEM_ATOM_UDEF_STEREO_COUNT>
1

> <PUBCHEM_BOND_DEF_STEREO_COUNT>
0

> <PUBCHEM_BOND_UDEF_STEREO_COUNT>
0

> <PUBCHEM_ISOTOPIC_ATOM_COUNT>
0

> <PUBCHEM_COMPONENT_COUNT>
1

> <PUBCHEM_CACTVS_TAUTO_COUNT>
-1

> <PUBCHEM_COORDINATE_TYPE>
1
5
255

> <PUBCHEM_BONDANNOTATIONS>
10  13  8
10  17  8
12  18  8
13  20  8
16  21  8
17  23  8
18  22  8
20  24  8
21  22  8
23  24  8
27  28  8
27  29  8
28  30  8
29  32  8
30  31  8
30  33  8
31  32  8
31  34  8
33  35  8
34  36  8
35  36  8
5  6  3
9  12  8
9  16  8

$$$$
