72736198
  -OEChem-09292322342D

 51 53  0     1  0  0  0  0  0999 V2000
   13.3224    0.0427    0.0000 O   0  0  0  0  0  0  0  0  0  0  0  0
    7.2602    0.5427    0.0000 N   0  0  3  0  0  0  0  0  0  0  0  0
   12.4564   -1.4573    0.0000 N   0  0  0  0  0  0  0  0  0  0  0  0
    2.0000   -0.4848    0.0000 N   0  0  0  0  0  0  0  0  0  0  0  0
    9.8583    0.0427    0.0000 C   0  0  0  0  0  0  0  0  0  0  0  0
   10.7243    0.5427    0.0000 C   0  0  0  0  0  0  0  0  0  0  0  0
    9.8583   -0.9573    0.0000 C   0  0  0  0  0  0  0  0  0  0  0  0
   11.5904   -0.9573    0.0000 C   0  0  0  0  0  0  0  0  0  0  0  0
   11.5904    0.0427    0.0000 C   0  0  0  0  0  0  0  0  0  0  0  0
   10.7243   -1.4573    0.0000 C   0  0  0  0  0  0  0  0  0  0  0  0
    8.9923    0.5427    0.0000 C   0  0  0  0  0  0  0  0  0  0  0  0
    8.1263    0.0427    0.0000 C   0  0  0  0  0  0  0  0  0  0  0  0
    7.2602    1.5427    0.0000 C   0  0  0  0  0  0  0  0  0  0  0  0
    6.3942    0.0427    0.0000 C   0  0  0  0  0  0  0  0  0  0  0  0
    6.3942    2.0427    0.0000 C   0  0  0  0  0  0  0  0  0  0  0  0
    5.5282    0.5427    0.0000 C   0  0  0  0  0  0  0  0  0  0  0  0
    5.5282    1.5427    0.0000 C   0  0  0  0  0  0  0  0  0  0  0  0
   13.3224   -0.9573    0.0000 C   0  0  0  0  0  0  0  0  0  0  0  0
    4.6342    0.0080    0.0000 C   0  0  0  0  0  0  0  0  0  0  0  0
    4.6342    2.0773    0.0000 C   0  0  0  0  0  0  0  0  0  0  0  0
    3.7282    0.5219    0.0000 C   0  0  0  0  0  0  0  0  0  0  0  0
   14.1884   -1.4573    0.0000 C   0  0  0  0  0  0  0  0  0  0  0  0
    3.7282    1.5635    0.0000 C   0  0  0  0  0  0  0  0  0  0  0  0
    2.8641    0.0185    0.0000 C   0  0  0  0  0  0  0  0  0  0  0  0
    9.3214   -0.2673    0.0000 H   0  0  0  0  0  0  0  0  0  0  0  0
   11.1229    1.0176    0.0000 H   0  0  0  0  0  0  0  0  0  0  0  0
   10.3258    1.0176    0.0000 H   0  0  0  0  0  0  0  0  0  0  0  0
    9.2477   -0.8497    0.0000 H   0  0  0  0  0  0  0  0  0  0  0  0
    9.6463   -1.5399    0.0000 H   0  0  0  0  0  0  0  0  0  0  0  0
   12.1273   -0.6473    0.0000 H   0  0  0  0  0  0  0  0  0  0  0  0
   12.2010   -0.0650    0.0000 H   0  0  0  0  0  0  0  0  0  0  0  0
   11.8024    0.6253    0.0000 H   0  0  0  0  0  0  0  0  0  0  0  0
   10.3258   -1.9323    0.0000 H   0  0  0  0  0  0  0  0  0  0  0  0
   11.1229   -1.9323    0.0000 H   0  0  0  0  0  0  0  0  0  0  0  0
    9.3908    1.0176    0.0000 H   0  0  0  0  0  0  0  0  0  0  0  0
    8.5938    1.0176    0.0000 H   0  0  0  0  0  0  0  0  0  0  0  0
    7.7277   -0.4323    0.0000 H   0  0  0  0  0  0  0  0  0  0  0  0
    8.5248   -0.4323    0.0000 H   0  0  0  0  0  0  0  0  0  0  0  0
   12.4564   -2.0773    0.0000 H   0  0  0  0  0  0  0  0  0  0  0  0
    7.8708    1.4350    0.0000 H   0  0  0  0  0  0  0  0  0  0  0  0
    7.4723    2.1253    0.0000 H   0  0  0  0  0  0  0  0  0  0  0  0
    5.9957   -0.4323    0.0000 H   0  0  0  0  0  0  0  0  0  0  0  0
    6.7928   -0.4323    0.0000 H   0  0  0  0  0  0  0  0  0  0  0  0
    6.7928    2.5176    0.0000 H   0  0  0  0  0  0  0  0  0  0  0  0
    5.9957    2.5176    0.0000 H   0  0  0  0  0  0  0  0  0  0  0  0
    4.6414   -0.6120    0.0000 H   0  0  0  0  0  0  0  0  0  0  0  0
    4.6414    2.6973    0.0000 H   0  0  0  0  0  0  0  0  0  0  0  0
    3.1924    1.8756    0.0000 H   0  0  0  0  0  0  0  0  0  0  0  0
   13.8784   -1.9943    0.0000 H   0  0  0  0  0  0  0  0  0  0  0  0
   14.7254   -1.7673    0.0000 H   0  0  0  0  0  0  0  0  0  0  0  0
   14.4984   -0.9204    0.0000 H   0  0  0  0  0  0  0  0  0  0  0  0
  1 18  2  0  0  0  0
  2 12  1  0  0  0  0
  2 13  1  0  0  0  0
  2 14  1  0  0  0  0
  3  8  1  0  0  0  0
  3 18  1  0  0  0  0
  3 39  1  0  0  0  0
  4 24  3  0  0  0  0
  5  6  1  0  0  0  0
  5  7  1  0  0  0  0
  5 11  1  0  0  0  0
  5 25  1  0  0  0  0
  6  9  1  0  0  0  0
  6 26  1  0  0  0  0
  6 27  1  0  0  0  0
  7 10  1  0  0  0  0
  7 28  1  0  0  0  0
  7 29  1  0  0  0  0
  8  9  1  0  0  0  0
  8 10  1  0  0  0  0
  8 30  1  0  0  0  0
  9 31  1  0  0  0  0
  9 32  1  0  0  0  0
 10 33  1  0  0  0  0
 10 34  1  0  0  0  0
 11 12  1  0  0  0  0
 11 35  1  0  0  0  0
 11 36  1  0  0  0  0
 12 37  1  0  0  0  0
 12 38  1  0  0  0  0
 13 15  1  0  0  0  0
 13 40  1  0  0  0  0
 13 41  1  0  0  0  0
 14 16  1  0  0  0  0
 14 42  1  0  0  0  0
 14 43  1  0  0  0  0
 15 17  1  0  0  0  0
 15 44  1  0  0  0  0
 15 45  1  0  0  0  0
 16 17  2  0  0  0  0
 16 19  1  0  0  0  0
 17 20  1  0  0  0  0
 18 22  1  0  0  0  0
 19 21  2  0  0  0  0
 19 46  1  0  0  0  0
 20 23  2  0  0  0  0
 20 47  1  0  0  0  0
 21 23  1  0  0  0  0
 21 24  1  0  0  0  0
 22 49  1  0  0  0  0
 22 50  1  0  0  0  0
 22 51  1  0  0  0  0
 23 48  1  0  0  0  0
M  END
> <PUBCHEM_COMPOUND_CID>
72736198

> <PUBCHEM_COMPOUND_CANONICALIZED>
1

> <PUBCHEM_CACTVS_COMPLEXITY>
475

> <PUBCHEM_CACTVS_HBOND_ACCEPTOR>
3

> <PUBCHEM_CACTVS_HBOND_DONOR>
1

> <PUBCHEM_CACTVS_ROTATABLE_BOND>
4

> <PUBCHEM_CACTVS_SUBSKEYS>
AAADceB7IAAAAAAAAAAAAAAAAAAAAAAAAAA8YIAAAAAAAACxAAAAHgAQAAAADSjBmAQyAIPAAACYBiFSEACiAAAgAAAIiIAIBIgIoCKAkRGEIAhglgCIiA8QgMAOwAACAAAQAACQAAQAACAAAAAAAAAAAA==

> <PUBCHEM_IUPAC_OPENEYE_NAME>
N-[4-[2-(7-cyano-3,4-dihydro-1H-isoquinolin-2-yl)ethyl]cyclohexyl]acetamide

> <PUBCHEM_IUPAC_CAS_NAME>
N-[4-[2-(7-cyano-3,4-dihydro-1H-isoquinolin-2-yl)ethyl]cyclohexyl]acetamide

> <PUBCHEM_IUPAC_NAME_MARKUP>
<I>N</I>-[4-[2-(7-cyano-3,4-dihydro-1<I>H</I>-isoquinolin-2-yl)ethyl]cyclohexyl]acetamide

> <PUBCHEM_IUPAC_NAME>
N-[4-[2-(7-cyano-3,4-dihydro-1H-isoquinolin-2-yl)ethyl]cyclohexyl]acetamide

> <PUBCHEM_IUPAC_SYSTEMATIC_NAME>
N-[4-[2-(7-cyano-3,4-dihydro-1H-isoquinolin-2-yl)ethyl]cyclohexyl]ethanamide

> <PUBCHEM_IUPAC_TRADITIONAL_NAME>
N-[4-[2-(7-cyano-3,4-dihydro-1H-isoquinolin-2-yl)ethyl]cyclohexyl]acetamide

> <PUBCHEM_IUPAC_INCHI>
InChI=1S/C20H27N3O/c1-15(24)22-20-6-3-16(4-7-20)8-10-23-11-9-18-5-2-17(13-21)12-19(18)14-23/h2,5,12,16,20H,3-4,6-11,14H2,1H3,(H,22,24)

> <PUBCHEM_IUPAC_INCHIKEY>
MDNAENMGHFQWFO-UHFFFAOYSA-N

> <PUBCHEM_XLOGP3_AA>
2.7

> <PUBCHEM_EXACT_MASS>
325.215412493

> <PUBCHEM_MOLECULAR_FORMULA>
C20H27N3O

> <PUBCHEM_MOLECULAR_WEIGHT>
325.4

> <PUBCHEM_OPENEYE_CAN_SMILES>
CC(=O)NC1CCC(CC1)CCN2CCC3=C(C2)C=C(C=C3)C#N

> <PUBCHEM_OPENEYE_ISO_SMILES>
CC(=O)NC1CCC(CC1)CCN2CCC3=C(C2)C=C(C=C3)C#N

> <PUBCHEM_CACTVS_TPSA>
56.1

> <PUBCHEM_MONOISOTOPIC_WEIGHT>
325.215412493

> <PUBCHEM_TOTAL_CHARGE>
0

> <PUBCHEM_HEAVY_ATOM_COUNT>
24

> <PUBCHEM_ATOM_DEF_STEREO_COUNT>
0

> <PUBCHEM_ATOM_UDEF_STEREO_COUNT>
0

> <PUBCHEM_BOND_DEF_STEREO_COUNT>
0

> <PUBCHEM_BOND_UDEF_STEREO_COUNT>
0

> <PUBCHEM_ISOTOPIC_ATOM_COUNT>
0

> <PUBCHEM_COMPONENT_COUNT>
1

> <PUBCHEM_CACTVS_TAUTO_COUNT>
-1

> <PUBCHEM_COORDINATE_TYPE>
1
5
255

> <PUBCHEM_BONDANNOTATIONS>
16  17  8
16  19  8
17  20  8
19  21  8
20  23  8
21  23  8

$$$$
