134146194
  -OEChem-09292322382D

 53 55  0     1  0  0  0  0  0999 V2000
   12.5479    1.4030    0.0000 Cl  0  0  0  0  0  0  0  0  0  0  0  0
    5.7740    7.1282    0.0000 Cl  0  0  0  0  0  0  0  0  0  0  0  0
    8.5761    1.6122    0.0000 S   0  0  0  0  0  0  0  0  0  0  0  0
    4.1429    3.1009    0.0000 N   0  0  3  0  0  0  0  0  0  0  0  0
    9.3808    3.0060    0.0000 N   0  0  0  0  0  0  0  0  0  0  0  0
    2.4109    4.1009    0.0000 C   0  0  3  0  0  0  0  0  0  0  0  0
    2.4109    3.1009    0.0000 C   0  0  3  0  0  0  0  0  0  0  0  0
    1.5169    4.6356    0.0000 C   0  0  0  0  0  0  0  0  0  0  0  0
    1.5169    2.5662    0.0000 C   0  0  0  0  0  0  0  0  0  0  0  0
    3.2769    4.6009    0.0000 C   0  0  0  0  0  0  0  0  0  0  0  0
    3.2769    2.6009    0.0000 C   0  0  0  0  0  0  0  0  0  0  0  0
    0.6109    4.1217    0.0000 C   0  0  0  0  0  0  0  0  0  0  0  0
    0.6109    3.0801    0.0000 C   0  0  0  0  0  0  0  0  0  0  0  0
    4.1429    4.1009    0.0000 C   0  0  0  0  0  0  0  0  0  0  0  0
    5.0089    2.6009    0.0000 C   0  0  0  0  0  0  0  0  0  0  0  0
    5.8750    3.1009    0.0000 C   0  0  0  0  0  0  0  0  0  0  0  0
    6.7410    2.6009    0.0000 C   0  0  0  0  0  0  0  0  0  0  0  0
    7.6070    3.1009    0.0000 C   0  0  0  0  0  0  0  0  0  0  0  0
    8.4730    2.6009    0.0000 C   0  0  0  0  0  0  0  0  0  0  0  0
   10.0479    2.2690    0.0000 C   0  0  0  0  0  0  0  0  0  0  0  0
    9.5479    1.4030    0.0000 C   0  0  0  0  0  0  0  0  0  0  0  0
   11.0479    2.2690    0.0000 C   0  0  0  0  0  0  0  0  0  0  0  0
   10.0479    0.5369    0.0000 C   0  0  0  0  0  0  0  0  0  0  0  0
   11.5479    1.4030    0.0000 C   0  0  0  0  0  0  0  0  0  0  0  0
   11.0479    0.5369    0.0000 C   0  0  0  0  0  0  0  0  0  0  0  0
    2.4156    4.7209    0.0000 H   0  0  0  0  0  0  0  0  0  0  0  0
    2.4156    2.4809    0.0000 H   0  0  0  0  0  0  0  0  0  0  0  0
    1.9215    5.1053    0.0000 H   0  0  0  0  0  0  0  0  0  0  0  0
    1.1233    5.1146    0.0000 H   0  0  0  0  0  0  0  0  0  0  0  0
    1.1233    2.0872    0.0000 H   0  0  0  0  0  0  0  0  0  0  0  0
    1.9215    2.0964    0.0000 H   0  0  0  0  0  0  0  0  0  0  0  0
    3.6754    5.0758    0.0000 H   0  0  0  0  0  0  0  0  0  0  0  0
    2.8784    5.0758    0.0000 H   0  0  0  0  0  0  0  0  0  0  0  0
    2.8784    2.1259    0.0000 H   0  0  0  0  0  0  0  0  0  0  0  0
    3.6754    2.1259    0.0000 H   0  0  0  0  0  0  0  0  0  0  0  0
    0.4018    4.7054    0.0000 H   0  0  0  0  0  0  0  0  0  0  0  0
    0.0000    4.0156    0.0000 H   0  0  0  0  0  0  0  0  0  0  0  0
    0.0000    3.1862    0.0000 H   0  0  0  0  0  0  0  0  0  0  0  0
    0.4018    2.4964    0.0000 H   0  0  0  0  0  0  0  0  0  0  0  0
    4.7535    3.9932    0.0000 H   0  0  0  0  0  0  0  0  0  0  0  0
    4.3550    4.6835    0.0000 H   0  0  0  0  0  0  0  0  0  0  0  0
    4.6104    2.1259    0.0000 H   0  0  0  0  0  0  0  0  0  0  0  0
    5.4075    2.1259    0.0000 H   0  0  0  0  0  0  0  0  0  0  0  0
    6.2735    3.5758    0.0000 H   0  0  0  0  0  0  0  0  0  0  0  0
    5.4764    3.5758    0.0000 H   0  0  0  0  0  0  0  0  0  0  0  0
    6.3425    2.1259    0.0000 H   0  0  0  0  0  0  0  0  0  0  0  0
    7.1395    2.1259    0.0000 H   0  0  0  0  0  0  0  0  0  0  0  0
    8.0055    3.5758    0.0000 H   0  0  0  0  0  0  0  0  0  0  0  0
    7.2085    3.5758    0.0000 H   0  0  0  0  0  0  0  0  0  0  0  0
   11.3579    2.8059    0.0000 H   0  0  0  0  0  0  0  0  0  0  0  0
    9.7379    0.0000    0.0000 H   0  0  0  0  0  0  0  0  0  0  0  0
   11.3579    0.0000    0.0000 H   0  0  0  0  0  0  0  0  0  0  0  0
    6.7740    7.1282    0.0000 H   0  0  0  0  0  0  0  0  0  0  0  0
  1 24  1  0  0  0  0
  2 53  1  0  0  0  0
  3 19  1  0  0  0  0
  3 21  1  0  0  0  0
  4 11  1  0  0  0  0
  4 14  1  0  0  0  0
  4 15  1  0  0  0  0
  5 19  2  0  0  0  0
  5 20  1  0  0  0  0
  6  7  1  0  0  0  0
  6  8  1  0  0  0  0
  6 10  1  0  0  0  0
  6 26  1  0  0  0  0
  7  9  1  0  0  0  0
  7 11  1  0  0  0  0
  7 27  1  0  0  0  0
  8 12  1  0  0  0  0
  8 28  1  0  0  0  0
  8 29  1  0  0  0  0
  9 13  1  0  0  0  0
  9 30  1  0  0  0  0
  9 31  1  0  0  0  0
 10 14  1  0  0  0  0
 10 32  1  0  0  0  0
 10 33  1  0  0  0  0
 11 34  1  0  0  0  0
 11 35  1  0  0  0  0
 12 13  1  0  0  0  0
 12 36  1  0  0  0  0
 12 37  1  0  0  0  0
 13 38  1  0  0  0  0
 13 39  1  0  0  0  0
 14 40  1  0  0  0  0
 14 41  1  0  0  0  0
 15 16  1  0  0  0  0
 15 42  1  0  0  0  0
 15 43  1  0  0  0  0
 16 17  1  0  0  0  0
 16 44  1  0  0  0  0
 16 45  1  0  0  0  0
 17 18  1  0  0  0  0
 17 46  1  0  0  0  0
 17 47  1  0  0  0  0
 18 19  1  0  0  0  0
 18 48  1  0  0  0  0
 18 49  1  0  0  0  0
 20 21  2  0  0  0  0
 20 22  1  0  0  0  0
 21 23  1  0  0  0  0
 22 24  2  0  0  0  0
 22 50  1  0  0  0  0
 23 25  2  0  0  0  0
 23 51  1  0  0  0  0
 24 25  1  0  0  0  0
 25 52  1  0  0  0  0
M  END
> <PUBCHEM_COMPOUND_CID>
134146194

> <PUBCHEM_COMPOUND_CANONICALIZED>
1

> <PUBCHEM_CACTVS_COMPLEXITY>
407

> <PUBCHEM_CACTVS_HBOND_ACCEPTOR>
3

> <PUBCHEM_CACTVS_HBOND_DONOR>
1

> <PUBCHEM_CACTVS_ROTATABLE_BOND>
5

> <PUBCHEM_CACTVS_SUBSKEYS>
AAADceB7AABGAAAAAAAAAAAAAAAAAWAAAAA8YIAAAAAAAFix8AAAHAYAAAAADQrBViQwwbMIEAikASRiRACD8KBhDzhImDw4ZpgIIKLhk5GEIAhggADoyAcQgIAOgAIAAAIAAQAABAAABCACAAAAAAAAAA==

> <PUBCHEM_IUPAC_OPENEYE_NAME>
2-[4-(3,4,4a,5,6,7,8,8a-octahydro-1H-isoquinolin-2-yl)butyl]-5-chloro-1,3-benzothiazole;hydrochloride

> <PUBCHEM_IUPAC_CAS_NAME>
2-[4-(3,4,4a,5,6,7,8,8a-octahydro-1H-isoquinolin-2-yl)butyl]-5-chloro-1,3-benzothiazole;hydrochloride

> <PUBCHEM_IUPAC_NAME_MARKUP>
2-[4-(3,4,4<I>a</I>,5,6,7,8,8<I>a</I>-octahydro-1<I>H</I>-isoquinolin-2-yl)butyl]-5-chloro-1,3-benzothiazole;hydrochloride

> <PUBCHEM_IUPAC_NAME>
2-[4-(3,4,4a,5,6,7,8,8a-octahydro-1H-isoquinolin-2-yl)butyl]-5-chloro-1,3-benzothiazole;hydrochloride

> <PUBCHEM_IUPAC_SYSTEMATIC_NAME>
2-[4-(3,4,4a,5,6,7,8,8a-octahydro-1H-isoquinolin-2-yl)butyl]-5-chloranyl-1,3-benzothiazole;hydrochloride

> <PUBCHEM_IUPAC_TRADITIONAL_NAME>
2-[4-(3,4,4a,5,6,7,8,8a-octahydro-1H-isoquinolin-2-yl)butyl]-5-chloro-1,3-benzothiazole;hydrochloride

> <PUBCHEM_IUPAC_INCHI>
InChI=1S/C20H27ClN2S.ClH/c21-17-8-9-19-18(13-17)22-20(24-19)7-3-4-11-23-12-10-15-5-1-2-6-16(15)14-23;/h8-9,13,15-16H,1-7,10-12,14H2;1H

> <PUBCHEM_IUPAC_INCHIKEY>
LLHIQLAPTLWBMG-UHFFFAOYSA-N

> <PUBCHEM_EXACT_MASS>
398.1350255

> <PUBCHEM_MOLECULAR_FORMULA>
C20H28Cl2N2S

> <PUBCHEM_MOLECULAR_WEIGHT>
399.4

> <PUBCHEM_OPENEYE_CAN_SMILES>
C1CCC2CN(CCC2C1)CCCCC3=NC4=C(S3)C=CC(=C4)Cl.Cl

> <PUBCHEM_OPENEYE_ISO_SMILES>
C1CCC2CN(CCC2C1)CCCCC3=NC4=C(S3)C=CC(=C4)Cl.Cl

> <PUBCHEM_CACTVS_TPSA>
44.4

> <PUBCHEM_MONOISOTOPIC_WEIGHT>
398.1350255

> <PUBCHEM_TOTAL_CHARGE>
0

> <PUBCHEM_HEAVY_ATOM_COUNT>
25

> <PUBCHEM_ATOM_DEF_STEREO_COUNT>
0

> <PUBCHEM_ATOM_UDEF_STEREO_COUNT>
2

> <PUBCHEM_BOND_DEF_STEREO_COUNT>
0

> <PUBCHEM_BOND_UDEF_STEREO_COUNT>
0

> <PUBCHEM_ISOTOPIC_ATOM_COUNT>
0

> <PUBCHEM_COMPONENT_COUNT>
2

> <PUBCHEM_CACTVS_TAUTO_COUNT>
-1

> <PUBCHEM_COORDINATE_TYPE>
1
5
255

> <PUBCHEM_BONDANNOTATIONS>
20  21  8
20  22  8
21  23  8
22  24  8
23  25  8
24  25  8
3  19  8
3  21  8
5  19  8
5  20  8
6  8  3
7  9  3

$$$$
