45263205
  -OEChem-09292322092D

 47 49  0     1  0  0  0  0  0999 V2000
    3.5887    0.0000    0.0000 Cl  0  0  0  0  0  0  0  0  0  0  0  0
    0.0000    4.5398    0.0000 Cl  0  0  0  0  0  0  0  0  0  0  0  0
    9.2321    9.6493    0.0000 F   0  0  0  0  0  0  0  0  0  0  0  0
    5.1751    3.2378    0.0000 O   0  0  0  0  0  0  0  0  0  0  0  0
    7.7321    5.3192    0.0000 N   0  0  0  0  0  0  0  0  0  0  0  0
    8.4688    4.3366    0.0000 C   0  0  3  0  0  0  0  0  0  0  0  0
    8.2099    3.3706    0.0000 C   0  0  3  0  0  0  0  0  0  0  0  0
    6.1599    3.0642    0.0000 C   0  0  0  0  0  0  0  0  0  0  0  0
    6.4355    4.0254    0.0000 C   0  0  0  0  0  0  0  0  0  0  0  0
    6.9889    2.5050    0.0000 C   0  0  0  0  0  0  0  0  0  0  0  0
    9.8677    3.8278    0.0000 C   0  0  0  0  0  0  0  0  0  0  0  0
    9.6089    2.8618    0.0000 C   0  0  0  0  0  0  0  0  0  0  0  0
    7.2321    6.1852    0.0000 C   0  0  0  0  0  0  0  0  0  0  0  0
    5.5171    2.2981    0.0000 C   0  0  0  0  0  0  0  0  0  0  0  0
    7.7321    7.0512    0.0000 C   0  0  0  0  0  0  0  0  0  0  0  0
    4.5323    2.4718    0.0000 C   0  0  0  0  0  0  0  0  0  0  0  0
    5.8591    1.3584    0.0000 C   0  0  0  0  0  0  0  0  0  0  0  0
    7.2321    7.9173    0.0000 C   0  0  0  0  0  0  0  0  0  0  0  0
    8.7321    7.0512    0.0000 C   0  0  0  0  0  0  0  0  0  0  0  0
    3.8895    1.7057    0.0000 C   0  0  0  0  0  0  0  0  0  0  0  0
    5.2163    0.5924    0.0000 C   0  0  0  0  0  0  0  0  0  0  0  0
    4.2315    0.7660    0.0000 C   0  0  0  0  0  0  0  0  0  0  0  0
    7.7321    8.7833    0.0000 C   0  0  0  0  0  0  0  0  0  0  0  0
    9.2321    7.9173    0.0000 C   0  0  0  0  0  0  0  0  0  0  0  0
    8.7321    8.7833    0.0000 C   0  0  0  0  0  0  0  0  0  0  0  0
    8.8381    4.8345    0.0000 H   0  0  0  0  0  0  0  0  0  0  0  0
    8.2927    2.7562    0.0000 H   0  0  0  0  0  0  0  0  0  0  0  0
    6.4305    4.6454    0.0000 H   0  0  0  0  0  0  0  0  0  0  0  0
    5.8212    4.1092    0.0000 H   0  0  0  0  0  0  0  0  0  0  0  0
    6.5831    2.0363    0.0000 H   0  0  0  0  0  0  0  0  0  0  0  0
    7.4056    2.0459    0.0000 H   0  0  0  0  0  0  0  0  0  0  0  0
   10.4617    3.6500    0.0000 H   0  0  0  0  0  0  0  0  0  0  0  0
   10.0626    4.4163    0.0000 H   0  0  0  0  0  0  0  0  0  0  0  0
    9.4139    2.2733    0.0000 H   0  0  0  0  0  0  0  0  0  0  0  0
   10.2028    2.6840    0.0000 H   0  0  0  0  0  0  0  0  0  0  0  0
    6.7572    6.5837    0.0000 H   0  0  0  0  0  0  0  0  0  0  0  0
    6.7572    5.7867    0.0000 H   0  0  0  0  0  0  0  0  0  0  0  0
    4.9630    3.8204    0.0000 H   0  0  0  0  0  0  0  0  0  0  0  0
    4.3202    3.0544    0.0000 H   0  0  0  0  0  0  0  0  0  0  0  0
    6.4697    1.2508    0.0000 H   0  0  0  0  0  0  0  0  0  0  0  0
    6.6121    7.9173    0.0000 H   0  0  0  0  0  0  0  0  0  0  0  0
    9.0421    6.5143    0.0000 H   0  0  0  0  0  0  0  0  0  0  0  0
    3.2789    1.8134    0.0000 H   0  0  0  0  0  0  0  0  0  0  0  0
    5.4284    0.0098    0.0000 H   0  0  0  0  0  0  0  0  0  0  0  0
    7.4221    9.3202    0.0000 H   0  0  0  0  0  0  0  0  0  0  0  0
    9.8521    7.9173    0.0000 H   0  0  0  0  0  0  0  0  0  0  0  0
    1.0000    4.5398    0.0000 H   0  0  0  0  0  0  0  0  0  0  0  0
  1 22  1  0  0  0  0
  2 47  1  0  0  0  0
  3 25  1  0  0  0  0
  4  8  1  0  0  0  0
  4 38  1  0  0  0  0
  5  6  1  0  0  0  0
  5  7  1  0  0  0  0
  5 13  1  0  0  0  0
  6  9  1  0  0  0  0
  6 11  1  0  0  0  0
  6 26  1  0  0  0  0
  7 10  1  0  0  0  0
  7 12  1  0  0  0  0
  7 27  1  0  0  0  0
  8  9  1  0  0  0  0
  8 10  1  0  0  0  0
  8 14  1  0  0  0  0
  9 28  1  0  0  0  0
  9 29  1  0  0  0  0
 10 30  1  0  0  0  0
 10 31  1  0  0  0  0
 11 12  1  0  0  0  0
 11 32  1  0  0  0  0
 11 33  1  0  0  0  0
 12 34  1  0  0  0  0
 12 35  1  0  0  0  0
 13 15  1  0  0  0  0
 13 36  1  0  0  0  0
 13 37  1  0  0  0  0
 14 16  2  0  0  0  0
 14 17  1  0  0  0  0
 15 18  2  0  0  0  0
 15 19  1  0  0  0  0
 16 20  1  0  0  0  0
 16 39  1  0  0  0  0
 17 21  2  0  0  0  0
 17 40  1  0  0  0  0
 18 23  1  0  0  0  0
 18 41  1  0  0  0  0
 19 24  2  0  0  0  0
 19 42  1  0  0  0  0
 20 22  2  0  0  0  0
 20 43  1  0  0  0  0
 21 22  1  0  0  0  0
 21 44  1  0  0  0  0
 23 25  2  0  0  0  0
 23 45  1  0  0  0  0
 24 25  1  0  0  0  0
 24 46  1  0  0  0  0
M  END
> <PUBCHEM_COMPOUND_CID>
45263205

> <PUBCHEM_COMPOUND_CANONICALIZED>
1

> <PUBCHEM_CACTVS_COMPLEXITY>
417

> <PUBCHEM_CACTVS_HBOND_ACCEPTOR>
3

> <PUBCHEM_CACTVS_HBOND_DONOR>
2

> <PUBCHEM_CACTVS_ROTATABLE_BOND>
3

> <PUBCHEM_CACTVS_SUBSKEYS>
AAADceB6IQAGAAAAAAAAAAAAAAAAAWAAAAA8YIAABgAAAAABQAAAHwIACAAADG7BmCwwAIMAAgCAAiBCAACCAAAgBQAIiAAIDogIJiKBkxGEcAhmwAGImAeQwOAOhAAAAAAAAAAIAAAAAAAAAAAAAAAAAA==

> <PUBCHEM_IUPAC_OPENEYE_NAME>
3-(4-chlorophenyl)-8-[(4-fluorophenyl)methyl]-8-azabicyclo[3.2.1]octan-3-ol;hydrochloride

> <PUBCHEM_IUPAC_CAS_NAME>
3-(4-chlorophenyl)-8-[(4-fluorophenyl)methyl]-8-azabicyclo[3.2.1]octan-3-ol;hydrochloride

> <PUBCHEM_IUPAC_NAME_MARKUP>
3-(4-chlorophenyl)-8-[(4-fluorophenyl)methyl]-8-azabicyclo[3.2.1]octan-3-ol;hydrochloride

> <PUBCHEM_IUPAC_NAME>
3-(4-chlorophenyl)-8-[(4-fluorophenyl)methyl]-8-azabicyclo[3.2.1]octan-3-ol;hydrochloride

> <PUBCHEM_IUPAC_SYSTEMATIC_NAME>
3-(4-chlorophenyl)-8-[(4-fluorophenyl)methyl]-8-azabicyclo[3.2.1]octan-3-ol;hydrochloride

> <PUBCHEM_IUPAC_TRADITIONAL_NAME>
3-(4-chlorophenyl)-8-(4-fluorobenzyl)-8-azabicyclo[3.2.1]octan-3-ol;hydrochloride

> <PUBCHEM_IUPAC_INCHI>
InChI=1S/C20H21ClFNO.ClH/c21-16-5-3-15(4-6-16)20(24)11-18-9-10-19(12-20)23(18)13-14-1-7-17(22)8-2-14;/h1-8,18-19,24H,9-13H2;1H

> <PUBCHEM_IUPAC_INCHIKEY>
GPXAEWNZUAWATD-UHFFFAOYSA-N

> <PUBCHEM_EXACT_MASS>
381.1062479

> <PUBCHEM_MOLECULAR_FORMULA>
C20H22Cl2FNO

> <PUBCHEM_MOLECULAR_WEIGHT>
382.3

> <PUBCHEM_OPENEYE_CAN_SMILES>
C1CC2CC(CC1N2CC3=CC=C(C=C3)F)(C4=CC=C(C=C4)Cl)O.Cl

> <PUBCHEM_OPENEYE_ISO_SMILES>
C1CC2CC(CC1N2CC3=CC=C(C=C3)F)(C4=CC=C(C=C4)Cl)O.Cl

> <PUBCHEM_CACTVS_TPSA>
23.5

> <PUBCHEM_MONOISOTOPIC_WEIGHT>
381.1062479

> <PUBCHEM_TOTAL_CHARGE>
0

> <PUBCHEM_HEAVY_ATOM_COUNT>
25

> <PUBCHEM_ATOM_DEF_STEREO_COUNT>
0

> <PUBCHEM_ATOM_UDEF_STEREO_COUNT>
2

> <PUBCHEM_BOND_DEF_STEREO_COUNT>
0

> <PUBCHEM_BOND_UDEF_STEREO_COUNT>
0

> <PUBCHEM_ISOTOPIC_ATOM_COUNT>
0

> <PUBCHEM_COMPONENT_COUNT>
2

> <PUBCHEM_CACTVS_TAUTO_COUNT>
-1

> <PUBCHEM_COORDINATE_TYPE>
1
5
255

> <PUBCHEM_BONDANNOTATIONS>
14  16  8
14  17  8
15  18  8
15  19  8
16  20  8
17  21  8
18  23  8
19  24  8
20  22  8
21  22  8
23  25  8
24  25  8
6  11  3
7  12  3

$$$$
