156015516
  -OEChem-09292322062D

 54 58  0     0  0  0  0  0  0999 V2000
    2.8660   -0.8137    0.0000 Br  0  0  0  0  0  0  0  0  0  0  0  0
   14.0666   -2.3580    0.0000 S   0  0  0  0  0  0  0  0  0  0  0  0
    4.9889    2.9416    0.0000 O   0  0  0  0  0  0  0  0  0  0  0  0
    9.2619   -0.5457    0.0000 N   0  0  0  0  0  0  0  0  0  0  0  0
   11.2619   -0.5457    0.0000 N   0  0  0  0  0  0  0  0  0  0  0  0
    5.2619    1.1863    0.0000 N   0  0  0  0  0  0  0  0  0  0  0  0
    3.7320    1.6863    0.0000 N   0  0  0  0  0  0  0  0  0  0  0  0
    4.6783    0.3816    0.0000 N   0  0  0  0  0  0  0  0  0  0  0  0
    9.7619   -1.4118    0.0000 C   0  0  0  0  0  0  0  0  0  0  0  0
    9.7619    0.3203    0.0000 C   0  0  0  0  0  0  0  0  0  0  0  0
   10.7619   -1.4118    0.0000 C   0  0  0  0  0  0  0  0  0  0  0  0
   10.7619    0.3203    0.0000 C   0  0  0  0  0  0  0  0  0  0  0  0
    8.2619   -0.5457    0.0000 C   0  0  0  0  0  0  0  0  0  0  0  0
    7.7619    0.3203    0.0000 C   0  0  0  0  0  0  0  0  0  0  0  0
   12.2619   -0.5457    0.0000 C   0  0  0  0  0  0  0  0  0  0  0  0
    6.7619    0.3203    0.0000 C   0  0  0  0  0  0  0  0  0  0  0  0
    6.2619    1.1863    0.0000 C   0  0  0  0  0  0  0  0  0  0  0  0
   12.7619   -1.4118    0.0000 C   0  0  0  0  0  0  0  0  0  0  0  0
   12.7619    0.3203    0.0000 C   0  0  0  0  0  0  0  0  0  0  0  0
   13.7619   -1.4118    0.0000 C   0  0  0  0  0  0  0  0  0  0  0  0
   12.4571   -2.3580    0.0000 C   0  0  0  0  0  0  0  0  0  0  0  0
   13.7619    0.3203    0.0000 C   0  0  0  0  0  0  0  0  0  0  0  0
   14.2619   -0.5457    0.0000 C   0  0  0  0  0  0  0  0  0  0  0  0
    4.6783    1.9911    0.0000 C   0  0  0  0  0  0  0  0  0  0  0  0
    3.7320    0.6863    0.0000 C   0  0  0  0  0  0  0  0  0  0  0  0
   13.2619   -2.9416    0.0000 C   0  0  0  0  0  0  0  0  0  0  0  0
    2.8660    2.1863    0.0000 C   0  0  0  0  0  0  0  0  0  0  0  0
    2.8660    0.1863    0.0000 C   0  0  0  0  0  0  0  0  0  0  0  0
    2.0000    1.6863    0.0000 C   0  0  0  0  0  0  0  0  0  0  0  0
    2.0000    0.6863    0.0000 C   0  0  0  0  0  0  0  0  0  0  0  0
    9.1793   -1.6238    0.0000 H   0  0  0  0  0  0  0  0  0  0  0  0
    9.8695   -2.0223    0.0000 H   0  0  0  0  0  0  0  0  0  0  0  0
    9.8695    0.9309    0.0000 H   0  0  0  0  0  0  0  0  0  0  0  0
    9.1793    0.5324    0.0000 H   0  0  0  0  0  0  0  0  0  0  0  0
   10.6542   -2.0223    0.0000 H   0  0  0  0  0  0  0  0  0  0  0  0
   11.3445   -1.6238    0.0000 H   0  0  0  0  0  0  0  0  0  0  0  0
   11.3445    0.5324    0.0000 H   0  0  0  0  0  0  0  0  0  0  0  0
   10.6542    0.9309    0.0000 H   0  0  0  0  0  0  0  0  0  0  0  0
    7.6793   -0.7578    0.0000 H   0  0  0  0  0  0  0  0  0  0  0  0
    8.3695   -1.1563    0.0000 H   0  0  0  0  0  0  0  0  0  0  0  0
    8.3445    0.5324    0.0000 H   0  0  0  0  0  0  0  0  0  0  0  0
    7.6542    0.9309    0.0000 H   0  0  0  0  0  0  0  0  0  0  0  0
    6.1793    0.1082    0.0000 H   0  0  0  0  0  0  0  0  0  0  0  0
    6.8695   -0.2903    0.0000 H   0  0  0  0  0  0  0  0  0  0  0  0
    6.8445    1.3984    0.0000 H   0  0  0  0  0  0  0  0  0  0  0  0
    6.1542    1.7969    0.0000 H   0  0  0  0  0  0  0  0  0  0  0  0
   12.4519    0.8572    0.0000 H   0  0  0  0  0  0  0  0  0  0  0  0
   11.8678   -2.5506    0.0000 H   0  0  0  0  0  0  0  0  0  0  0  0
   14.0719    0.8572    0.0000 H   0  0  0  0  0  0  0  0  0  0  0  0
   14.8819   -0.5457    0.0000 H   0  0  0  0  0  0  0  0  0  0  0  0
   13.2619   -3.5616    0.0000 H   0  0  0  0  0  0  0  0  0  0  0  0
    2.8660    2.8063    0.0000 H   0  0  0  0  0  0  0  0  0  0  0  0
    1.4631    1.9963    0.0000 H   0  0  0  0  0  0  0  0  0  0  0  0
    1.4631    0.3763    0.0000 H   0  0  0  0  0  0  0  0  0  0  0  0
  1 28  1  0  0  0  0
  2 20  1  0  0  0  0
  2 26  1  0  0  0  0
  3 24  2  0  0  0  0
  4  9  1  0  0  0  0
  4 10  1  0  0  0  0
  4 13  1  0  0  0  0
  5 11  1  0  0  0  0
  5 12  1  0  0  0  0
  5 15  1  0  0  0  0
  6  8  1  0  0  0  0
  6 17  1  0  0  0  0
  6 24  1  0  0  0  0
  7 24  1  0  0  0  0
  7 25  1  0  0  0  0
  7 27  1  0  0  0  0
  8 25  2  0  0  0  0
  9 11  1  0  0  0  0
  9 31  1  0  0  0  0
  9 32  1  0  0  0  0
 10 12  1  0  0  0  0
 10 33  1  0  0  0  0
 10 34  1  0  0  0  0
 11 35  1  0  0  0  0
 11 36  1  0  0  0  0
 12 37  1  0  0  0  0
 12 38  1  0  0  0  0
 13 14  1  0  0  0  0
 13 39  1  0  0  0  0
 13 40  1  0  0  0  0
 14 16  1  0  0  0  0
 14 41  1  0  0  0  0
 14 42  1  0  0  0  0
 15 18  2  0  0  0  0
 15 19  1  0  0  0  0
 16 17  1  0  0  0  0
 16 43  1  0  0  0  0
 16 44  1  0  0  0  0
 17 45  1  0  0  0  0
 17 46  1  0  0  0  0
 18 20  1  0  0  0  0
 18 21  1  0  0  0  0
 19 22  2  0  0  0  0
 19 47  1  0  0  0  0
 20 23  2  0  0  0  0
 21 26  2  0  0  0  0
 21 48  1  0  0  0  0
 22 23  1  0  0  0  0
 22 49  1  0  0  0  0
 23 50  1  0  0  0  0
 25 28  1  0  0  0  0
 26 51  1  0  0  0  0
 27 29  2  0  0  0  0
 27 52  1  0  0  0  0
 28 30  2  0  0  0  0
 29 30  1  0  0  0  0
 29 53  1  0  0  0  0
 30 54  1  0  0  0  0
M  END
> <PUBCHEM_COMPOUND_CID>
156015516

> <PUBCHEM_COMPOUND_CANONICALIZED>
1

> <PUBCHEM_CACTVS_COMPLEXITY>
748

> <PUBCHEM_CACTVS_HBOND_ACCEPTOR>
5

> <PUBCHEM_CACTVS_HBOND_DONOR>
0

> <PUBCHEM_CACTVS_ROTATABLE_BOND>
6

> <PUBCHEM_CACTVS_SUBSKEYS>
AAADceB7oABAEAAAAAAAAAAAAAAAASIAAAA8QIAAAAAAAEgB8AAAHgRIAAABjAjFWASxwcMAAAisAiZmcACTAIAhChBfiBgIZJiIYCLgkZGUIAxojgLoyAcQgIAOAAAAACAGAAAAAAAAQAwAAAAAAAAAAA==

> <PUBCHEM_IUPAC_OPENEYE_NAME>
2-[4-[4-(benzothiophen-4-yl)piperazin-1-yl]butyl]-8-bromo-[1,2,4]triazolo[4,3-a]pyridin-3-one

> <PUBCHEM_IUPAC_CAS_NAME>
2-[4-[4-(1-benzothiophen-4-yl)-1-piperazinyl]butyl]-8-bromo-[1,2,4]triazolo[4,3-a]pyridin-3-one

> <PUBCHEM_IUPAC_NAME_MARKUP>
2-[4-[4-(1-benzothiophen-4-yl)piperazin-1-yl]butyl]-8-bromo-[1,2,4]triazolo[4,3-a]pyridin-3-one

> <PUBCHEM_IUPAC_NAME>
2-[4-[4-(1-benzothiophen-4-yl)piperazin-1-yl]butyl]-8-bromo-[1,2,4]triazolo[4,3-a]pyridin-3-one

> <PUBCHEM_IUPAC_SYSTEMATIC_NAME>
2-[4-[4-(1-benzothiophen-4-yl)piperazin-1-yl]butyl]-8-bromanyl-[1,2,4]triazolo[4,3-a]pyridin-3-one

> <PUBCHEM_IUPAC_TRADITIONAL_NAME>
2-[4-[4-(benzothiophen-4-yl)piperazino]butyl]-8-bromo-[1,2,4]triazolo[4,3-a]pyridin-3-one

> <PUBCHEM_IUPAC_INCHI>
InChI=1S/C22H24BrN5OS/c23-18-5-4-10-27-21(18)24-28(22(27)29)11-2-1-9-25-12-14-26(15-13-25)19-6-3-7-20-17(19)8-16-30-20/h3-8,10,16H,1-2,9,11-15H2

> <PUBCHEM_IUPAC_INCHIKEY>
SUPQFIADWRBCSZ-UHFFFAOYSA-N

> <PUBCHEM_XLOGP3_AA>
4.5

> <PUBCHEM_EXACT_MASS>
485.08849

> <PUBCHEM_MOLECULAR_FORMULA>
C22H24BrN5OS

> <PUBCHEM_MOLECULAR_WEIGHT>
486.4

> <PUBCHEM_OPENEYE_CAN_SMILES>
C1CN(CCN1CCCCN2C(=O)N3C=CC=C(C3=N2)Br)C4=C5C=CSC5=CC=C4

> <PUBCHEM_OPENEYE_ISO_SMILES>
C1CN(CCN1CCCCN2C(=O)N3C=CC=C(C3=N2)Br)C4=C5C=CSC5=CC=C4

> <PUBCHEM_CACTVS_TPSA>
70.6

> <PUBCHEM_MONOISOTOPIC_WEIGHT>
485.08849

> <PUBCHEM_TOTAL_CHARGE>
0

> <PUBCHEM_HEAVY_ATOM_COUNT>
30

> <PUBCHEM_ATOM_DEF_STEREO_COUNT>
0

> <PUBCHEM_ATOM_UDEF_STEREO_COUNT>
0

> <PUBCHEM_BOND_DEF_STEREO_COUNT>
0

> <PUBCHEM_BOND_UDEF_STEREO_COUNT>
0

> <PUBCHEM_ISOTOPIC_ATOM_COUNT>
0

> <PUBCHEM_COMPONENT_COUNT>
1

> <PUBCHEM_CACTVS_TAUTO_COUNT>
-1

> <PUBCHEM_COORDINATE_TYPE>
1
5
255

> <PUBCHEM_BONDANNOTATIONS>
15  18  8
15  19  8
18  20  8
18  21  8
19  22  8
2  20  8
2  26  8
20  23  8
21  26  8
22  23  8
25  28  8
27  29  8
28  30  8
29  30  8
6  24  8
6  8  8
7  24  8
7  25  8
7  27  8
8  25  8

$$$$
