9948670
  -OEChem-09292322102D

 41 44  0     1  0  0  0  0  0999 V2000
    2.0000   -2.1311    0.0000 F   0  0  0  0  0  0  0  0  0  0  0  0
   10.1279   -1.1311    0.0000 F   0  0  0  0  0  0  0  0  0  0  0  0
    7.1441    1.7809    0.0000 N   0  0  0  0  0  0  0  0  0  0  0  0
    5.5443   -1.9358    0.0000 N   0  0  0  0  0  0  0  0  0  0  0  0
    5.8550    0.6241    0.0000 C   0  0  3  0  0  0  0  0  0  0  0  0
    5.1871    1.3684    0.0000 C   0  0  0  0  0  0  0  0  0  0  0  0
    6.8335    0.8304    0.0000 C   0  0  0  0  0  0  0  0  0  0  0  0
    5.5443   -0.3264    0.0000 C   0  0  0  0  0  0  0  0  0  0  0  0
    5.4978    2.3190    0.0000 C   0  0  0  0  0  0  0  0  0  0  0  0
    6.4763    2.5252    0.0000 C   0  0  0  0  0  0  0  0  0  0  0  0
    4.5981   -0.6311    0.0000 C   0  0  0  0  0  0  0  0  0  0  0  0
    6.1279   -1.1311    0.0000 C   0  0  0  0  0  0  0  0  0  0  0  0
    4.5981   -1.6311    0.0000 C   0  0  0  0  0  0  0  0  0  0  0  0
    7.1279   -1.1311    0.0000 C   0  0  0  0  0  0  0  0  0  0  0  0
    3.7320   -0.1311    0.0000 C   0  0  0  0  0  0  0  0  0  0  0  0
    3.7320   -2.1311    0.0000 C   0  0  0  0  0  0  0  0  0  0  0  0
    2.8660   -0.6311    0.0000 C   0  0  0  0  0  0  0  0  0  0  0  0
    2.8660   -1.6311    0.0000 C   0  0  0  0  0  0  0  0  0  0  0  0
    7.6279   -1.9971    0.0000 C   0  0  0  0  0  0  0  0  0  0  0  0
    7.6279   -0.2651    0.0000 C   0  0  0  0  0  0  0  0  0  0  0  0
    8.6279   -1.9971    0.0000 C   0  0  0  0  0  0  0  0  0  0  0  0
    8.6279   -0.2651    0.0000 C   0  0  0  0  0  0  0  0  0  0  0  0
    9.1279   -1.1311    0.0000 C   0  0  0  0  0  0  0  0  0  0  0  0
    6.2690    0.1627    0.0000 H   0  0  0  0  0  0  0  0  0  0  0  0
    4.6402    1.6604    0.0000 H   0  0  0  0  0  0  0  0  0  0  0  0
    4.8046    0.8805    0.0000 H   0  0  0  0  0  0  0  0  0  0  0  0
    6.8540    0.2107    0.0000 H   0  0  0  0  0  0  0  0  0  0  0  0
    7.4473    0.7430    0.0000 H   0  0  0  0  0  0  0  0  0  0  0  0
    5.4772    2.9386    0.0000 H   0  0  0  0  0  0  0  0  0  0  0  0
    4.8840    2.4063    0.0000 H   0  0  0  0  0  0  0  0  0  0  0  0
    7.0026    2.8528    0.0000 H   0  0  0  0  0  0  0  0  0  0  0  0
    6.2450    3.1004    0.0000 H   0  0  0  0  0  0  0  0  0  0  0  0
    7.7508    1.9087    0.0000 H   0  0  0  0  0  0  0  0  0  0  0  0
    5.7369   -2.5252    0.0000 H   0  0  0  0  0  0  0  0  0  0  0  0
    3.7320    0.4889    0.0000 H   0  0  0  0  0  0  0  0  0  0  0  0
    3.7320   -2.7511    0.0000 H   0  0  0  0  0  0  0  0  0  0  0  0
    2.3291   -0.3211    0.0000 H   0  0  0  0  0  0  0  0  0  0  0  0
    7.3179   -2.5341    0.0000 H   0  0  0  0  0  0  0  0  0  0  0  0
    7.3179    0.2718    0.0000 H   0  0  0  0  0  0  0  0  0  0  0  0
    8.9379   -2.5341    0.0000 H   0  0  0  0  0  0  0  0  0  0  0  0
    8.9379    0.2718    0.0000 H   0  0  0  0  0  0  0  0  0  0  0  0
  1 18  1  0  0  0  0
  2 23  1  0  0  0  0
  3  7  1  0  0  0  0
  3 10  1  0  0  0  0
  3 33  1  0  0  0  0
  4 12  1  0  0  0  0
  4 13  1  0  0  0  0
  4 34  1  0  0  0  0
  5  6  1  0  0  0  0
  5  7  1  0  0  0  0
  5  8  1  0  0  0  0
  5 24  1  0  0  0  0
  6  9  1  0  0  0  0
  6 25  1  0  0  0  0
  6 26  1  0  0  0  0
  7 27  1  0  0  0  0
  7 28  1  0  0  0  0
  8 11  1  0  0  0  0
  8 12  2  0  0  0  0
  9 10  1  0  0  0  0
  9 29  1  0  0  0  0
  9 30  1  0  0  0  0
 10 31  1  0  0  0  0
 10 32  1  0  0  0  0
 11 13  2  0  0  0  0
 11 15  1  0  0  0  0
 12 14  1  0  0  0  0
 13 16  1  0  0  0  0
 14 19  2  0  0  0  0
 14 20  1  0  0  0  0
 15 17  2  0  0  0  0
 15 35  1  0  0  0  0
 16 18  2  0  0  0  0
 16 36  1  0  0  0  0
 17 18  1  0  0  0  0
 17 37  1  0  0  0  0
 19 21  1  0  0  0  0
 19 38  1  0  0  0  0
 20 22  2  0  0  0  0
 20 39  1  0  0  0  0
 21 23  2  0  0  0  0
 21 40  1  0  0  0  0
 22 23  1  0  0  0  0
 22 41  1  0  0  0  0
M  END
> <PUBCHEM_COMPOUND_CID>
9948670

> <PUBCHEM_COMPOUND_CANONICALIZED>
1

> <PUBCHEM_CACTVS_COMPLEXITY>
397

> <PUBCHEM_CACTVS_HBOND_ACCEPTOR>
3

> <PUBCHEM_CACTVS_HBOND_DONOR>
2

> <PUBCHEM_CACTVS_ROTATABLE_BOND>
2

> <PUBCHEM_CACTVS_SUBSKEYS>
AAADceB7AYAAAAAAAAAAAAAAAAAAAWAAAAA8YIAAAAAAAFgB9AAAHQAQAAAADQjBHgwwwPLJkACgAyRiRACCgCAhAiAImaA4ZJgIIOLAkZGEIAhgkADIyAcQgMAOgAAAAAACAAAAAAAAAAQAAAAAAAAAAA==

> <PUBCHEM_IUPAC_OPENEYE_NAME>
6-fluoro-2-(4-fluorophenyl)-3-(3-piperidyl)-1H-indole

> <PUBCHEM_IUPAC_CAS_NAME>
6-fluoro-2-(4-fluorophenyl)-3-(3-piperidinyl)-1H-indole

> <PUBCHEM_IUPAC_NAME_MARKUP>
6-fluoro-2-(4-fluorophenyl)-3-piperidin-3-yl-1<I>H</I>-indole

> <PUBCHEM_IUPAC_NAME>
6-fluoro-2-(4-fluorophenyl)-3-piperidin-3-yl-1H-indole

> <PUBCHEM_IUPAC_SYSTEMATIC_NAME>
6-fluoranyl-2-(4-fluorophenyl)-3-piperidin-3-yl-1H-indole

> <PUBCHEM_IUPAC_TRADITIONAL_NAME>
6-fluoro-2-(4-fluorophenyl)-3-(3-piperidyl)-1H-indole

> <PUBCHEM_IUPAC_INCHI>
InChI=1S/C19H18F2N2/c20-14-5-3-12(4-6-14)19-18(13-2-1-9-22-11-13)16-8-7-15(21)10-17(16)23-19/h3-8,10,13,22-23H,1-2,9,11H2

> <PUBCHEM_IUPAC_INCHIKEY>
VMCOPKACEUYYIT-UHFFFAOYSA-N

> <PUBCHEM_XLOGP3_AA>
4

> <PUBCHEM_EXACT_MASS>
312.14380491

> <PUBCHEM_MOLECULAR_FORMULA>
C19H18F2N2

> <PUBCHEM_MOLECULAR_WEIGHT>
312.4

> <PUBCHEM_OPENEYE_CAN_SMILES>
C1CC(CNC1)C2=C(NC3=C2C=CC(=C3)F)C4=CC=C(C=C4)F

> <PUBCHEM_OPENEYE_ISO_SMILES>
C1CC(CNC1)C2=C(NC3=C2C=CC(=C3)F)C4=CC=C(C=C4)F

> <PUBCHEM_CACTVS_TPSA>
27.8

> <PUBCHEM_MONOISOTOPIC_WEIGHT>
312.14380491

> <PUBCHEM_TOTAL_CHARGE>
0

> <PUBCHEM_HEAVY_ATOM_COUNT>
23

> <PUBCHEM_ATOM_DEF_STEREO_COUNT>
0

> <PUBCHEM_ATOM_UDEF_STEREO_COUNT>
1

> <PUBCHEM_BOND_DEF_STEREO_COUNT>
0

> <PUBCHEM_BOND_UDEF_STEREO_COUNT>
0

> <PUBCHEM_ISOTOPIC_ATOM_COUNT>
0

> <PUBCHEM_COMPONENT_COUNT>
1

> <PUBCHEM_CACTVS_TAUTO_COUNT>
-1

> <PUBCHEM_COORDINATE_TYPE>
1
5
255

> <PUBCHEM_BONDANNOTATIONS>
11  13  8
11  15  8
13  16  8
14  19  8
14  20  8
15  17  8
16  18  8
17  18  8
19  21  8
20  22  8
21  23  8
22  23  8
4  12  8
4  13  8
5  8  3
8  11  8
8  12  8

$$$$
