11633992
  -OEChem-09292322302D

 59 62  0     0  0  0  0  0  0999 V2000
    5.4791   -3.3026    0.0000 S   0  0  0  0  0  0  0  0  0  0  0  0
   10.7323    6.7852    0.0000 F   0  0  0  0  0  0  0  0  0  0  0  0
   11.7323    5.7852    0.0000 F   0  0  0  0  0  0  0  0  0  0  0  0
    9.7323    5.7852    0.0000 F   0  0  0  0  0  0  0  0  0  0  0  0
    7.2682    1.7852    0.0000 N   0  0  0  0  0  0  0  0  0  0  0  0
    9.0002    2.7852    0.0000 N   0  0  0  0  0  0  0  0  0  0  0  0
    4.6701   -1.7148    0.0000 N   0  0  0  0  0  0  0  0  0  0  0  0
    3.8611   -3.3026    0.0000 N   0  0  0  0  0  0  0  0  0  0  0  0
    8.1342    1.2852    0.0000 C   0  0  0  0  0  0  0  0  0  0  0  0
    7.2682    2.7852    0.0000 C   0  0  0  0  0  0  0  0  0  0  0  0
    9.0002    1.7852    0.0000 C   0  0  0  0  0  0  0  0  0  0  0  0
    8.1342    3.2852    0.0000 C   0  0  0  0  0  0  0  0  0  0  0  0
    6.4021    1.2852    0.0000 C   0  0  0  0  0  0  0  0  0  0  0  0
    6.4021    0.2852    0.0000 C   0  0  0  0  0  0  0  0  0  0  0  0
    9.8663    3.2852    0.0000 C   0  0  0  0  0  0  0  0  0  0  0  0
    5.5361   -0.2148    0.0000 C   0  0  0  0  0  0  0  0  0  0  0  0
    5.5361   -1.2148    0.0000 C   0  0  0  0  0  0  0  0  0  0  0  0
    9.8663    4.2852    0.0000 C   0  0  0  0  0  0  0  0  0  0  0  0
   10.7323    2.7852    0.0000 C   0  0  0  0  0  0  0  0  0  0  0  0
   10.7323    4.7852    0.0000 C   0  0  0  0  0  0  0  0  0  0  0  0
   11.5983    3.2852    0.0000 C   0  0  0  0  0  0  0  0  0  0  0  0
   11.5983    4.2852    0.0000 C   0  0  0  0  0  0  0  0  0  0  0  0
   10.7323    5.7852    0.0000 C   0  0  0  0  0  0  0  0  0  0  0  0
    4.6701   -2.7148    0.0000 C   0  0  0  0  0  0  0  0  0  0  0  0
    4.1701   -4.2536    0.0000 C   0  0  0  0  0  0  0  0  0  0  0  0
    5.1701   -4.2536    0.0000 C   0  0  0  0  0  0  0  0  0  0  0  0
    3.5823   -5.0626    0.0000 C   0  0  0  0  0  0  0  0  0  0  0  0
    2.5878   -4.9581    0.0000 C   0  0  0  0  0  0  0  0  0  0  0  0
    3.9890   -5.9762    0.0000 C   0  0  0  0  0  0  0  0  0  0  0  0
    2.0000   -5.7671    0.0000 C   0  0  0  0  0  0  0  0  0  0  0  0
    3.4013   -6.7852    0.0000 C   0  0  0  0  0  0  0  0  0  0  0  0
    2.4067   -6.6807    0.0000 C   0  0  0  0  0  0  0  0  0  0  0  0
    7.7357    0.8103    0.0000 H   0  0  0  0  0  0  0  0  0  0  0  0
    8.5327    0.8103    0.0000 H   0  0  0  0  0  0  0  0  0  0  0  0
    7.0561    3.3678    0.0000 H   0  0  0  0  0  0  0  0  0  0  0  0
    6.6576    2.6776    0.0000 H   0  0  0  0  0  0  0  0  0  0  0  0
    9.2123    1.2026    0.0000 H   0  0  0  0  0  0  0  0  0  0  0  0
    9.6108    1.8929    0.0000 H   0  0  0  0  0  0  0  0  0  0  0  0
    8.5327    3.7602    0.0000 H   0  0  0  0  0  0  0  0  0  0  0  0
    7.7357    3.7602    0.0000 H   0  0  0  0  0  0  0  0  0  0  0  0
    6.1901    1.8678    0.0000 H   0  0  0  0  0  0  0  0  0  0  0  0
    5.7916    1.1776    0.0000 H   0  0  0  0  0  0  0  0  0  0  0  0
    6.6142   -0.2974    0.0000 H   0  0  0  0  0  0  0  0  0  0  0  0
    7.0127    0.3929    0.0000 H   0  0  0  0  0  0  0  0  0  0  0  0
    5.3241    0.3678    0.0000 H   0  0  0  0  0  0  0  0  0  0  0  0
    4.9255   -0.3225    0.0000 H   0  0  0  0  0  0  0  0  0  0  0  0
    5.7482   -1.7974    0.0000 H   0  0  0  0  0  0  0  0  0  0  0  0
    6.1467   -1.1071    0.0000 H   0  0  0  0  0  0  0  0  0  0  0  0
    9.3293    4.5952    0.0000 H   0  0  0  0  0  0  0  0  0  0  0  0
   10.7323    2.1652    0.0000 H   0  0  0  0  0  0  0  0  0  0  0  0
   12.1352    2.9752    0.0000 H   0  0  0  0  0  0  0  0  0  0  0  0
    4.1332   -1.4048    0.0000 H   0  0  0  0  0  0  0  0  0  0  0  0
   12.1352    4.5952    0.0000 H   0  0  0  0  0  0  0  0  0  0  0  0
    5.5345   -4.7552    0.0000 H   0  0  0  0  0  0  0  0  0  0  0  0
    2.3356   -4.3917    0.0000 H   0  0  0  0  0  0  0  0  0  0  0  0
    4.6056   -6.0410    0.0000 H   0  0  0  0  0  0  0  0  0  0  0  0
    1.3834   -5.7023    0.0000 H   0  0  0  0  0  0  0  0  0  0  0  0
    3.6534   -7.3516    0.0000 H   0  0  0  0  0  0  0  0  0  0  0  0
    2.0423   -7.1823    0.0000 H   0  0  0  0  0  0  0  0  0  0  0  0
  1 24  1  0  0  0  0
  1 26  1  0  0  0  0
  2 23  1  0  0  0  0
  3 23  1  0  0  0  0
  4 23  1  0  0  0  0
  5  9  1  0  0  0  0
  5 10  1  0  0  0  0
  5 13  1  0  0  0  0
  6 11  1  0  0  0  0
  6 12  1  0  0  0  0
  6 15  1  0  0  0  0
  7 17  1  0  0  0  0
  7 24  1  0  0  0  0
  7 52  1  0  0  0  0
  8 24  2  0  0  0  0
  8 25  1  0  0  0  0
  9 11  1  0  0  0  0
  9 33  1  0  0  0  0
  9 34  1  0  0  0  0
 10 12  1  0  0  0  0
 10 35  1  0  0  0  0
 10 36  1  0  0  0  0
 11 37  1  0  0  0  0
 11 38  1  0  0  0  0
 12 39  1  0  0  0  0
 12 40  1  0  0  0  0
 13 14  1  0  0  0  0
 13 41  1  0  0  0  0
 13 42  1  0  0  0  0
 14 16  1  0  0  0  0
 14 43  1  0  0  0  0
 14 44  1  0  0  0  0
 15 18  1  0  0  0  0
 15 19  2  0  0  0  0
 16 17  1  0  0  0  0
 16 45  1  0  0  0  0
 16 46  1  0  0  0  0
 17 47  1  0  0  0  0
 17 48  1  0  0  0  0
 18 20  2  0  0  0  0
 18 49  1  0  0  0  0
 19 21  1  0  0  0  0
 19 50  1  0  0  0  0
 20 22  1  0  0  0  0
 20 23  1  0  0  0  0
 21 22  2  0  0  0  0
 21 51  1  0  0  0  0
 22 53  1  0  0  0  0
 25 26  2  0  0  0  0
 25 27  1  0  0  0  0
 26 54  1  0  0  0  0
 27 28  2  0  0  0  0
 27 29  1  0  0  0  0
 28 30  1  0  0  0  0
 28 55  1  0  0  0  0
 29 31  2  0  0  0  0
 29 56  1  0  0  0  0
 30 32  2  0  0  0  0
 30 57  1  0  0  0  0
 31 32  1  0  0  0  0
 31 58  1  0  0  0  0
 32 59  1  0  0  0  0
M  END
> <PUBCHEM_COMPOUND_CID>
11633992

> <PUBCHEM_COMPOUND_CANONICALIZED>
1

> <PUBCHEM_CACTVS_COMPLEXITY>
550

> <PUBCHEM_CACTVS_HBOND_ACCEPTOR>
8

> <PUBCHEM_CACTVS_HBOND_DONOR>
1

> <PUBCHEM_CACTVS_ROTATABLE_BOND>
8

> <PUBCHEM_CACTVS_SUBSKEYS>
AAADceB7gYBAAAAAAAAAAAAAAAAAAWAAAAA8YIAAAAAAAAAB0AAAHQQQAAAADAjFXhSx0ZPIEAikAyRiZACC8KlhCjkJiLQ4ZJiIYKLgmZGUIAhokALIyCcQgIAOAAAAQAAAAAAAAACAAAAAAAAAAAAAAA==

> <PUBCHEM_IUPAC_OPENEYE_NAME>
4-phenyl-N-[4-[4-[3-(trifluoromethyl)phenyl]piperazin-1-yl]butyl]thiazol-2-amine

> <PUBCHEM_IUPAC_CAS_NAME>
4-phenyl-N-[4-[4-[3-(trifluoromethyl)phenyl]-1-piperazinyl]butyl]-2-thiazolamine

> <PUBCHEM_IUPAC_NAME_MARKUP>
4-phenyl-<I>N</I>-[4-[4-[3-(trifluoromethyl)phenyl]piperazin-1-yl]butyl]-1,3-thiazol-2-amine

> <PUBCHEM_IUPAC_NAME>
4-phenyl-N-[4-[4-[3-(trifluoromethyl)phenyl]piperazin-1-yl]butyl]-1,3-thiazol-2-amine

> <PUBCHEM_IUPAC_SYSTEMATIC_NAME>
4-phenyl-N-[4-[4-[3-(trifluoromethyl)phenyl]piperazin-1-yl]butyl]-1,3-thiazol-2-amine

> <PUBCHEM_IUPAC_TRADITIONAL_NAME>
(4-phenylthiazol-2-yl)-[4-[4-[3-(trifluoromethyl)phenyl]piperazino]butyl]amine

> <PUBCHEM_IUPAC_INCHI>
InChI=1S/C24H27F3N4S/c25-24(26,27)20-9-6-10-21(17-20)31-15-13-30(14-16-31)12-5-4-11-28-23-29-22(18-32-23)19-7-2-1-3-8-19/h1-3,6-10,17-18H,4-5,11-16H2,(H,28,29)

> <PUBCHEM_IUPAC_INCHIKEY>
ZZWMQJQCXDWUTD-UHFFFAOYSA-N

> <PUBCHEM_XLOGP3_AA>
6.2

> <PUBCHEM_EXACT_MASS>
460.19085254

> <PUBCHEM_MOLECULAR_FORMULA>
C24H27F3N4S

> <PUBCHEM_MOLECULAR_WEIGHT>
460.6

> <PUBCHEM_OPENEYE_CAN_SMILES>
C1CN(CCN1CCCCNC2=NC(=CS2)C3=CC=CC=C3)C4=CC=CC(=C4)C(F)(F)F

> <PUBCHEM_OPENEYE_ISO_SMILES>
C1CN(CCN1CCCCNC2=NC(=CS2)C3=CC=CC=C3)C4=CC=CC(=C4)C(F)(F)F

> <PUBCHEM_CACTVS_TPSA>
59.6

> <PUBCHEM_MONOISOTOPIC_WEIGHT>
460.19085254

> <PUBCHEM_TOTAL_CHARGE>
0

> <PUBCHEM_HEAVY_ATOM_COUNT>
32

> <PUBCHEM_ATOM_DEF_STEREO_COUNT>
0

> <PUBCHEM_ATOM_UDEF_STEREO_COUNT>
0

> <PUBCHEM_BOND_DEF_STEREO_COUNT>
0

> <PUBCHEM_BOND_UDEF_STEREO_COUNT>
0

> <PUBCHEM_ISOTOPIC_ATOM_COUNT>
0

> <PUBCHEM_COMPONENT_COUNT>
1

> <PUBCHEM_CACTVS_TAUTO_COUNT>
-1

> <PUBCHEM_COORDINATE_TYPE>
1
5
255

> <PUBCHEM_BONDANNOTATIONS>
1  24  8
1  26  8
15  18  8
15  19  8
18  20  8
19  21  8
20  22  8
21  22  8
25  26  8
27  28  8
27  29  8
28  30  8
29  31  8
30  32  8
31  32  8
8  24  8
8  25  8

$$$$
