53370045
  -OEChem-09292322392D

 55 57  0     1  0  0  0  0  0999 V2000
    4.1993    0.9097    0.0000 O   0  0  0  0  0  0  0  0  0  0  0  0
    4.8379    4.5734    0.0000 O   0  0  0  0  0  0  0  0  0  0  0  0
    3.0778    1.5248    0.0000 O   0  0  0  0  0  0  0  0  0  0  0  0
    7.6634   -3.0903    0.0000 O   0  0  0  0  0  0  0  0  0  0  0  0
    5.9313   -0.0903    0.0000 N   0  0  0  0  0  0  0  0  0  0  0  0
    5.9313   -2.0903    0.0000 N   0  0  0  0  0  0  0  0  0  0  0  0
    4.1993    2.9097    0.0000 N   0  0  0  0  0  0  0  0  0  0  0  0
    2.6166    3.2461    0.0000 N   0  0  0  0  0  0  0  0  0  0  0  0
    5.9313    0.9097    0.0000 C   0  0  0  0  0  0  0  0  0  0  0  0
    6.7974   -0.5903    0.0000 C   0  0  0  0  0  0  0  0  0  0  0  0
    5.0653   -0.5903    0.0000 C   0  0  0  0  0  0  0  0  0  0  0  0
    5.0653    1.4097    0.0000 C   0  0  3  0  0  0  0  0  0  0  0  0
    6.7974   -1.5903    0.0000 C   0  0  0  0  0  0  0  0  0  0  0  0
    5.0653   -1.5903    0.0000 C   0  0  0  0  0  0  0  0  0  0  0  0
    5.0653    2.4097    0.0000 C   0  0  0  0  0  0  0  0  0  0  0  0
    3.1166    4.1121    0.0000 C   0  0  0  0  0  0  0  0  0  0  0  0
    4.0948    3.9042    0.0000 C   0  0  0  0  0  0  0  0  0  0  0  0
    5.9313   -3.0903    0.0000 C   0  0  0  0  0  0  0  0  0  0  0  0
    3.2857    2.5030    0.0000 C   0  0  0  0  0  0  0  0  0  0  0  0
    2.2506    4.6121    0.0000 C   0  0  0  0  0  0  0  0  0  0  0  0
    3.3245    5.0903    0.0000 C   0  0  0  0  0  0  0  0  0  0  0  0
    6.7974   -3.5903    0.0000 C   0  0  0  0  0  0  0  0  0  0  0  0
    5.0653   -3.5903    0.0000 C   0  0  0  0  0  0  0  0  0  0  0  0
    6.7974   -4.5903    0.0000 C   0  0  0  0  0  0  0  0  0  0  0  0
    5.0653   -4.5903    0.0000 C   0  0  0  0  0  0  0  0  0  0  0  0
    5.9313   -5.0903    0.0000 C   0  0  0  0  0  0  0  0  0  0  0  0
    8.5294   -3.5903    0.0000 C   0  0  0  0  0  0  0  0  0  0  0  0
    6.5419    0.8020    0.0000 H   0  0  0  0  0  0  0  0  0  0  0  0
    6.1434    1.4923    0.0000 H   0  0  0  0  0  0  0  0  0  0  0  0
    7.4079   -0.6980    0.0000 H   0  0  0  0  0  0  0  0  0  0  0  0
    7.0094   -0.0077    0.0000 H   0  0  0  0  0  0  0  0  0  0  0  0
    4.8532   -0.0077    0.0000 H   0  0  0  0  0  0  0  0  0  0  0  0
    4.4547   -0.6980    0.0000 H   0  0  0  0  0  0  0  0  0  0  0  0
    4.5284    1.7197    0.0000 H   0  0  0  0  0  0  0  0  0  0  0  0
    7.0094   -2.1729    0.0000 H   0  0  0  0  0  0  0  0  0  0  0  0
    7.4079   -1.4826    0.0000 H   0  0  0  0  0  0  0  0  0  0  0  0
    4.4547   -1.4826    0.0000 H   0  0  0  0  0  0  0  0  0  0  0  0
    4.8532   -2.1729    0.0000 H   0  0  0  0  0  0  0  0  0  0  0  0
    5.6759    2.3020    0.0000 H   0  0  0  0  0  0  0  0  0  0  0  0
    5.2774    2.9923    0.0000 H   0  0  0  0  0  0  0  0  0  0  0  0
    2.0000    3.1813    0.0000 H   0  0  0  0  0  0  0  0  0  0  0  0
    2.5606    5.1491    0.0000 H   0  0  0  0  0  0  0  0  0  0  0  0
    1.7136    4.9221    0.0000 H   0  0  0  0  0  0  0  0  0  0  0  0
    1.9406    4.0752    0.0000 H   0  0  0  0  0  0  0  0  0  0  0  0
    3.9310    4.9614    0.0000 H   0  0  0  0  0  0  0  0  0  0  0  0
    3.4534    5.6967    0.0000 H   0  0  0  0  0  0  0  0  0  0  0  0
    2.7181    5.2192    0.0000 H   0  0  0  0  0  0  0  0  0  0  0  0
    3.6623    1.2197    0.0000 H   0  0  0  0  0  0  0  0  0  0  0  0
    4.5284   -3.2803    0.0000 H   0  0  0  0  0  0  0  0  0  0  0  0
    7.3343   -4.9003    0.0000 H   0  0  0  0  0  0  0  0  0  0  0  0
    4.5284   -4.9003    0.0000 H   0  0  0  0  0  0  0  0  0  0  0  0
    5.9313   -5.7103    0.0000 H   0  0  0  0  0  0  0  0  0  0  0  0
    8.2194   -4.1272    0.0000 H   0  0  0  0  0  0  0  0  0  0  0  0
    9.0663   -3.9003    0.0000 H   0  0  0  0  0  0  0  0  0  0  0  0
    8.8394   -3.0534    0.0000 H   0  0  0  0  0  0  0  0  0  0  0  0
  1 12  1  0  0  0  0
  1 48  1  0  0  0  0
  2 17  2  0  0  0  0
  3 19  2  0  0  0  0
  4 22  1  0  0  0  0
  4 27  1  0  0  0  0
  5  9  1  0  0  0  0
  5 10  1  0  0  0  0
  5 11  1  0  0  0  0
  6 13  1  0  0  0  0
  6 14  1  0  0  0  0
  6 18  1  0  0  0  0
  7 15  1  0  0  0  0
  7 17  1  0  0  0  0
  7 19  1  0  0  0  0
  8 16  1  0  0  0  0
  8 19  1  0  0  0  0
  8 41  1  0  0  0  0
  9 12  1  0  0  0  0
  9 28  1  0  0  0  0
  9 29  1  0  0  0  0
 10 13  1  0  0  0  0
 10 30  1  0  0  0  0
 10 31  1  0  0  0  0
 11 14  1  0  0  0  0
 11 32  1  0  0  0  0
 11 33  1  0  0  0  0
 12 15  1  0  0  0  0
 12 34  1  0  0  0  0
 13 35  1  0  0  0  0
 13 36  1  0  0  0  0
 14 37  1  0  0  0  0
 14 38  1  0  0  0  0
 15 39  1  0  0  0  0
 15 40  1  0  0  0  0
 16 17  1  0  0  0  0
 16 20  1  0  0  0  0
 16 21  1  0  0  0  0
 18 22  1  0  0  0  0
 18 23  2  0  0  0  0
 20 42  1  0  0  0  0
 20 43  1  0  0  0  0
 20 44  1  0  0  0  0
 21 45  1  0  0  0  0
 21 46  1  0  0  0  0
 21 47  1  0  0  0  0
 22 24  2  0  0  0  0
 23 25  1  0  0  0  0
 23 49  1  0  0  0  0
 24 26  1  0  0  0  0
 24 50  1  0  0  0  0
 25 26  2  0  0  0  0
 25 51  1  0  0  0  0
 26 52  1  0  0  0  0
 27 53  1  0  0  0  0
 27 54  1  0  0  0  0
 27 55  1  0  0  0  0
M  END
> <PUBCHEM_COMPOUND_CID>
53370045

> <PUBCHEM_COMPOUND_CANONICALIZED>
1

> <PUBCHEM_CACTVS_COMPLEXITY>
548

> <PUBCHEM_CACTVS_HBOND_ACCEPTOR>
6

> <PUBCHEM_CACTVS_HBOND_DONOR>
2

> <PUBCHEM_CACTVS_ROTATABLE_BOND>
6

> <PUBCHEM_CACTVS_SUBSKEYS>
AAADceB7uAAAAAAAAAAAAAAAAAAAAWAAAAA8QAAAAAAAAAABAAAAHgAQCAAADJzhkAYzxoPABgCIACVSUACCCAAhIgAIiAGPbIiOdiLE8buVMChs1zPY6AeQQAAAAAAAAAAAEAAAAAAAAAAgAAAAAAAAAA==

> <PUBCHEM_IUPAC_OPENEYE_NAME>
3-[2-hydroxy-3-[4-(2-methoxyphenyl)piperazin-1-yl]propyl]-5,5-dimethyl-imidazolidine-2,4-dione

> <PUBCHEM_IUPAC_CAS_NAME>
3-[2-hydroxy-3-[4-(2-methoxyphenyl)-1-piperazinyl]propyl]-5,5-dimethylimidazolidine-2,4-dione

> <PUBCHEM_IUPAC_NAME_MARKUP>
3-[2-hydroxy-3-[4-(2-methoxyphenyl)piperazin-1-yl]propyl]-5,5-dimethylimidazolidine-2,4-dione

> <PUBCHEM_IUPAC_NAME>
3-[2-hydroxy-3-[4-(2-methoxyphenyl)piperazin-1-yl]propyl]-5,5-dimethylimidazolidine-2,4-dione

> <PUBCHEM_IUPAC_SYSTEMATIC_NAME>
3-[3-[4-(2-methoxyphenyl)piperazin-1-yl]-2-oxidanyl-propyl]-5,5-dimethyl-imidazolidine-2,4-dione

> <PUBCHEM_IUPAC_TRADITIONAL_NAME>
3-[2-hydroxy-3-[4-(2-methoxyphenyl)piperazino]propyl]-5,5-dimethyl-hydantoin

> <PUBCHEM_IUPAC_INCHI>
InChI=1S/C19H28N4O4/c1-19(2)17(25)23(18(26)20-19)13-14(24)12-21-8-10-22(11-9-21)15-6-4-5-7-16(15)27-3/h4-7,14,24H,8-13H2,1-3H3,(H,20,26)

> <PUBCHEM_IUPAC_INCHIKEY>
RFORDMJRDZVYAP-UHFFFAOYSA-N

> <PUBCHEM_XLOGP3_AA>
0.7

> <PUBCHEM_EXACT_MASS>
376.21105539

> <PUBCHEM_MOLECULAR_FORMULA>
C19H28N4O4

> <PUBCHEM_MOLECULAR_WEIGHT>
376.4

> <PUBCHEM_OPENEYE_CAN_SMILES>
CC1(C(=O)N(C(=O)N1)CC(CN2CCN(CC2)C3=CC=CC=C3OC)O)C

> <PUBCHEM_OPENEYE_ISO_SMILES>
CC1(C(=O)N(C(=O)N1)CC(CN2CCN(CC2)C3=CC=CC=C3OC)O)C

> <PUBCHEM_CACTVS_TPSA>
85.4

> <PUBCHEM_MONOISOTOPIC_WEIGHT>
376.21105539

> <PUBCHEM_TOTAL_CHARGE>
0

> <PUBCHEM_HEAVY_ATOM_COUNT>
27

> <PUBCHEM_ATOM_DEF_STEREO_COUNT>
0

> <PUBCHEM_ATOM_UDEF_STEREO_COUNT>
1

> <PUBCHEM_BOND_DEF_STEREO_COUNT>
0

> <PUBCHEM_BOND_UDEF_STEREO_COUNT>
0

> <PUBCHEM_ISOTOPIC_ATOM_COUNT>
0

> <PUBCHEM_COMPONENT_COUNT>
1

> <PUBCHEM_CACTVS_TAUTO_COUNT>
-1

> <PUBCHEM_COORDINATE_TYPE>
1
5
255

> <PUBCHEM_BONDANNOTATIONS>
12  1  3
18  22  8
18  23  8
22  24  8
23  25  8
24  26  8
25  26  8

$$$$
