155554326
  -OEChem-09292322402D

 63 66  0     0  0  0  0  0  0999 V2000
    4.6783   -1.6586    0.0000 S   0  0  0  0  0  0  0  0  0  0  0  0
    5.4883   -2.2450    0.0000 O   0  0  0  0  0  0  0  0  0  0  0  0
    4.3709   -2.6102    0.0000 O   0  0  0  0  0  0  0  0  0  0  0  0
   13.7619    0.0121    0.0000 O   0  0  0  0  0  0  0  0  0  0  0  0
    4.9889    0.9014    0.0000 O   0  0  0  0  0  0  0  0  0  0  0  0
   10.7619    1.7442    0.0000 N   0  0  0  0  0  0  0  0  0  0  0  0
   12.7619    1.7442    0.0000 N   0  0  0  0  0  0  0  0  0  0  0  0
    5.2619   -0.8539    0.0000 N   0  0  0  0  0  0  0  0  0  0  0  0
   11.2619    2.6102    0.0000 C   0  0  0  0  0  0  0  0  0  0  0  0
   11.2619    0.8782    0.0000 C   0  0  0  0  0  0  0  0  0  0  0  0
    9.7619    1.7442    0.0000 C   0  0  0  0  0  0  0  0  0  0  0  0
   12.2619    2.6102    0.0000 C   0  0  0  0  0  0  0  0  0  0  0  0
   12.2619    0.8782    0.0000 C   0  0  0  0  0  0  0  0  0  0  0  0
    9.2619    0.8782    0.0000 C   0  0  0  0  0  0  0  0  0  0  0  0
    8.2619    0.8782    0.0000 C   0  0  0  0  0  0  0  0  0  0  0  0
    7.7619    0.0121    0.0000 C   0  0  0  0  0  0  0  0  0  0  0  0
    6.7619    0.0121    0.0000 C   0  0  0  0  0  0  0  0  0  0  0  0
    6.2619   -0.8539    0.0000 C   0  0  0  0  0  0  0  0  0  0  0  0
   13.7619    1.7442    0.0000 C   0  0  0  0  0  0  0  0  0  0  0  0
    3.7320   -1.3539    0.0000 C   0  0  0  0  0  0  0  0  0  0  0  0
    4.6783   -0.0492    0.0000 C   0  0  0  0  0  0  0  0  0  0  0  0
    3.7320   -0.3539    0.0000 C   0  0  0  0  0  0  0  0  0  0  0  0
   14.2619    0.8782    0.0000 C   0  0  0  0  0  0  0  0  0  0  0  0
   14.2619    2.6102    0.0000 C   0  0  0  0  0  0  0  0  0  0  0  0
    2.8660   -1.8539    0.0000 C   0  0  0  0  0  0  0  0  0  0  0  0
    2.8660    0.1461    0.0000 C   0  0  0  0  0  0  0  0  0  0  0  0
   15.2619    0.8782    0.0000 C   0  0  0  0  0  0  0  0  0  0  0  0
   15.2619    2.6102    0.0000 C   0  0  0  0  0  0  0  0  0  0  0  0
    2.0000   -1.3539    0.0000 C   0  0  0  0  0  0  0  0  0  0  0  0
   15.7619    1.7442    0.0000 C   0  0  0  0  0  0  0  0  0  0  0  0
    2.0000   -0.3539    0.0000 C   0  0  0  0  0  0  0  0  0  0  0  0
   14.2619   -0.8539    0.0000 C   0  0  0  0  0  0  0  0  0  0  0  0
   11.3695    3.2208    0.0000 H   0  0  0  0  0  0  0  0  0  0  0  0
   10.6793    2.8223    0.0000 H   0  0  0  0  0  0  0  0  0  0  0  0
   10.6793    0.6661    0.0000 H   0  0  0  0  0  0  0  0  0  0  0  0
   11.3695    0.2676    0.0000 H   0  0  0  0  0  0  0  0  0  0  0  0
    9.8695    2.3548    0.0000 H   0  0  0  0  0  0  0  0  0  0  0  0
    9.1793    1.9562    0.0000 H   0  0  0  0  0  0  0  0  0  0  0  0
   12.8445    2.8223    0.0000 H   0  0  0  0  0  0  0  0  0  0  0  0
   12.1542    3.2208    0.0000 H   0  0  0  0  0  0  0  0  0  0  0  0
   12.1542    0.2676    0.0000 H   0  0  0  0  0  0  0  0  0  0  0  0
   12.8445    0.6661    0.0000 H   0  0  0  0  0  0  0  0  0  0  0  0
    9.1542    0.2676    0.0000 H   0  0  0  0  0  0  0  0  0  0  0  0
    9.8445    0.6661    0.0000 H   0  0  0  0  0  0  0  0  0  0  0  0
    8.3695    1.4887    0.0000 H   0  0  0  0  0  0  0  0  0  0  0  0
    7.6793    1.0902    0.0000 H   0  0  0  0  0  0  0  0  0  0  0  0
    7.6542   -0.5984    0.0000 H   0  0  0  0  0  0  0  0  0  0  0  0
    8.3445   -0.1999    0.0000 H   0  0  0  0  0  0  0  0  0  0  0  0
    6.8695    0.6227    0.0000 H   0  0  0  0  0  0  0  0  0  0  0  0
    6.1793    0.2242    0.0000 H   0  0  0  0  0  0  0  0  0  0  0  0
    6.1542   -1.4645    0.0000 H   0  0  0  0  0  0  0  0  0  0  0  0
    6.8445   -1.0659    0.0000 H   0  0  0  0  0  0  0  0  0  0  0  0
   13.9519    3.1472    0.0000 H   0  0  0  0  0  0  0  0  0  0  0  0
    2.8660   -2.4739    0.0000 H   0  0  0  0  0  0  0  0  0  0  0  0
    2.8660    0.7661    0.0000 H   0  0  0  0  0  0  0  0  0  0  0  0
   15.5719    0.3412    0.0000 H   0  0  0  0  0  0  0  0  0  0  0  0
   15.5719    3.1472    0.0000 H   0  0  0  0  0  0  0  0  0  0  0  0
    1.4631   -1.6639    0.0000 H   0  0  0  0  0  0  0  0  0  0  0  0
    1.4631   -0.0439    0.0000 H   0  0  0  0  0  0  0  0  0  0  0  0
   16.3819    1.7442    0.0000 H   0  0  0  0  0  0  0  0  0  0  0  0
   13.7249   -1.1639    0.0000 H   0  0  0  0  0  0  0  0  0  0  0  0
   14.5719   -1.3908    0.0000 H   0  0  0  0  0  0  0  0  0  0  0  0
   14.7988   -0.5439    0.0000 H   0  0  0  0  0  0  0  0  0  0  0  0
  1  2  2  0  0  0  0
  1  3  2  0  0  0  0
  1  8  1  0  0  0  0
  1 20  1  0  0  0  0
  4 23  1  0  0  0  0
  4 32  1  0  0  0  0
  5 21  2  0  0  0  0
  6  9  1  0  0  0  0
  6 10  1  0  0  0  0
  6 11  1  0  0  0  0
  7 12  1  0  0  0  0
  7 13  1  0  0  0  0
  7 19  1  0  0  0  0
  8 18  1  0  0  0  0
  8 21  1  0  0  0  0
  9 12  1  0  0  0  0
  9 33  1  0  0  0  0
  9 34  1  0  0  0  0
 10 13  1  0  0  0  0
 10 35  1  0  0  0  0
 10 36  1  0  0  0  0
 11 14  1  0  0  0  0
 11 37  1  0  0  0  0
 11 38  1  0  0  0  0
 12 39  1  0  0  0  0
 12 40  1  0  0  0  0
 13 41  1  0  0  0  0
 13 42  1  0  0  0  0
 14 15  1  0  0  0  0
 14 43  1  0  0  0  0
 14 44  1  0  0  0  0
 15 16  1  0  0  0  0
 15 45  1  0  0  0  0
 15 46  1  0  0  0  0
 16 17  1  0  0  0  0
 16 47  1  0  0  0  0
 16 48  1  0  0  0  0
 17 18  1  0  0  0  0
 17 49  1  0  0  0  0
 17 50  1  0  0  0  0
 18 51  1  0  0  0  0
 18 52  1  0  0  0  0
 19 23  1  0  0  0  0
 19 24  2  0  0  0  0
 20 22  1  0  0  0  0
 20 25  2  0  0  0  0
 21 22  1  0  0  0  0
 22 26  2  0  0  0  0
 23 27  2  0  0  0  0
 24 28  1  0  0  0  0
 24 53  1  0  0  0  0
 25 29  1  0  0  0  0
 25 54  1  0  0  0  0
 26 31  1  0  0  0  0
 26 55  1  0  0  0  0
 27 30  1  0  0  0  0
 27 56  1  0  0  0  0
 28 30  2  0  0  0  0
 28 57  1  0  0  0  0
 29 31  2  0  0  0  0
 29 58  1  0  0  0  0
 30 60  1  0  0  0  0
 31 59  1  0  0  0  0
 32 61  1  0  0  0  0
 32 62  1  0  0  0  0
 32 63  1  0  0  0  0
M  END
> <PUBCHEM_COMPOUND_CID>
155554326

> <PUBCHEM_COMPOUND_CANONICALIZED>
1

> <PUBCHEM_CACTVS_COMPLEXITY>
717

> <PUBCHEM_CACTVS_HBOND_ACCEPTOR>
6

> <PUBCHEM_CACTVS_HBOND_DONOR>
0

> <PUBCHEM_CACTVS_ROTATABLE_BOND>
9

> <PUBCHEM_CACTVS_SUBSKEYS>
AAADceB7OABAAAAAAAAAAAAAAAAAAWAAAAA8YIAAAAAAAFgBQAAAHgQAQAAADAzB2AYyx4MABAKIAiVSUHDCCBAlIgAIiBkPbMgOZjLEtZuVMShkxhHY6YeYyACOAAAAAAAEEAAAAAAAAAggAAAAAAAAAA==

> <PUBCHEM_IUPAC_OPENEYE_NAME>
2-[6-[4-(2-methoxyphenyl)piperazin-1-yl]hexyl]-1,1-dioxo-1,2-benzothiazol-3-one

> <PUBCHEM_IUPAC_CAS_NAME>
2-[6-[4-(2-methoxyphenyl)-1-piperazinyl]hexyl]-1,1-dioxo-1,2-benzothiazol-3-one

> <PUBCHEM_IUPAC_NAME_MARKUP>
2-[6-[4-(2-methoxyphenyl)piperazin-1-yl]hexyl]-1,1-dioxo-1,2-benzothiazol-3-one

> <PUBCHEM_IUPAC_NAME>
2-[6-[4-(2-methoxyphenyl)piperazin-1-yl]hexyl]-1,1-dioxo-1,2-benzothiazol-3-one

> <PUBCHEM_IUPAC_SYSTEMATIC_NAME>
2-[6-[4-(2-methoxyphenyl)piperazin-1-yl]hexyl]-1,1-bis(oxidanylidene)-1,2-benzothiazol-3-one

> <PUBCHEM_IUPAC_TRADITIONAL_NAME>
1,1-diketo-2-[6-[4-(2-methoxyphenyl)piperazino]hexyl]-1,2-benzothiazol-3-one

> <PUBCHEM_IUPAC_INCHI>
InChI=1S/C24H31N3O4S/c1-31-22-12-6-5-11-21(22)26-18-16-25(17-19-26)14-8-2-3-9-15-27-24(28)20-10-4-7-13-23(20)32(27,29)30/h4-7,10-13H,2-3,8-9,14-19H2,1H3

> <PUBCHEM_IUPAC_INCHIKEY>
JGZRPGFDKODUGU-UHFFFAOYSA-N

> <PUBCHEM_XLOGP3_AA>
3.6

> <PUBCHEM_EXACT_MASS>
457.20352765

> <PUBCHEM_MOLECULAR_FORMULA>
C24H31N3O4S

> <PUBCHEM_MOLECULAR_WEIGHT>
457.6

> <PUBCHEM_OPENEYE_CAN_SMILES>
COC1=CC=CC=C1N2CCN(CC2)CCCCCCN3C(=O)C4=CC=CC=C4S3(=O)=O

> <PUBCHEM_OPENEYE_ISO_SMILES>
COC1=CC=CC=C1N2CCN(CC2)CCCCCCN3C(=O)C4=CC=CC=C4S3(=O)=O

> <PUBCHEM_CACTVS_TPSA>
78.5

> <PUBCHEM_MONOISOTOPIC_WEIGHT>
457.20352765

> <PUBCHEM_TOTAL_CHARGE>
0

> <PUBCHEM_HEAVY_ATOM_COUNT>
32

> <PUBCHEM_ATOM_DEF_STEREO_COUNT>
0

> <PUBCHEM_ATOM_UDEF_STEREO_COUNT>
0

> <PUBCHEM_BOND_DEF_STEREO_COUNT>
0

> <PUBCHEM_BOND_UDEF_STEREO_COUNT>
0

> <PUBCHEM_ISOTOPIC_ATOM_COUNT>
0

> <PUBCHEM_COMPONENT_COUNT>
1

> <PUBCHEM_CACTVS_TAUTO_COUNT>
-1

> <PUBCHEM_COORDINATE_TYPE>
1
5
255

> <PUBCHEM_BONDANNOTATIONS>
19  23  8
19  24  8
20  22  8
20  25  8
22  26  8
23  27  8
24  28  8
25  29  8
26  31  8
27  30  8
28  30  8
29  31  8

$$$$
