9908904
  -OEChem-09292322082D

 58 60  0     0  0  0  0  0  0999 V2000
    2.0000   -4.1756    0.0000 O   0  0  0  0  0  0  0  0  0  0  0  0
    5.4641   -4.1756    0.0000 O   0  0  0  0  0  0  0  0  0  0  0  0
    6.7870    4.4313    0.0000 O   0  0  0  0  0  0  0  0  0  0  0  0
    3.7320   -2.1756    0.0000 N   0  0  0  0  0  0  0  0  0  0  0  0
    4.5981   -0.6756    0.0000 N   0  0  0  0  0  0  0  0  0  0  0  0
    5.5443   -0.9803    0.0000 N   0  0  0  0  0  0  0  0  0  0  0  0
    2.8660   -0.6756    0.0000 N   0  0  0  0  0  0  0  0  0  0  0  0
    3.7320    0.8244    0.0000 N   0  0  0  0  0  0  0  0  0  0  0  0
    3.7320   -1.1756    0.0000 C   0  0  0  0  0  0  0  0  0  0  0  0
    5.5443    0.6292    0.0000 C   0  0  0  0  0  0  0  0  0  0  0  0
    4.5981    0.3244    0.0000 C   0  0  0  0  0  0  0  0  0  0  0  0
    2.8660   -2.6756    0.0000 C   0  0  0  0  0  0  0  0  0  0  0  0
    4.5981   -2.6756    0.0000 C   0  0  0  0  0  0  0  0  0  0  0  0
    6.1279   -0.1756    0.0000 C   0  0  0  0  0  0  0  0  0  0  0  0
    5.8550    1.5797    0.0000 C   0  0  0  0  0  0  0  0  0  0  0  0
    6.8335    1.7859    0.0000 C   0  0  0  0  0  0  0  0  0  0  0  0
    2.8660   -3.6756    0.0000 C   0  0  0  0  0  0  0  0  0  0  0  0
    4.5981   -3.6756    0.0000 C   0  0  0  0  0  0  0  0  0  0  0  0
    2.8660    0.3244    0.0000 C   0  0  0  0  0  0  0  0  0  0  0  0
    7.1279   -0.1756    0.0000 C   0  0  0  0  0  0  0  0  0  0  0  0
    5.1871    2.3240    0.0000 C   0  0  0  0  0  0  0  0  0  0  0  0
    7.1441    2.7364    0.0000 C   0  0  0  0  0  0  0  0  0  0  0  0
    7.5013    1.0416    0.0000 C   0  0  0  0  0  0  0  0  0  0  0  0
    5.4978    3.2745    0.0000 C   0  0  0  0  0  0  0  0  0  0  0  0
    6.4763    3.4807    0.0000 C   0  0  0  0  0  0  0  0  0  0  0  0
    2.0000    0.8244    0.0000 C   0  0  0  0  0  0  0  0  0  0  0  0
    2.0000   -5.1756    0.0000 C   0  0  0  0  0  0  0  0  0  0  0  0
    5.4641   -5.1756    0.0000 C   0  0  0  0  0  0  0  0  0  0  0  0
    6.1191    5.1756    0.0000 C   0  0  0  0  0  0  0  0  0  0  0  0
    2.6540   -2.0930    0.0000 H   0  0  0  0  0  0  0  0  0  0  0  0
    2.2554   -2.7832    0.0000 H   0  0  0  0  0  0  0  0  0  0  0  0
    5.2087   -2.7832    0.0000 H   0  0  0  0  0  0  0  0  0  0  0  0
    4.8101   -2.0930    0.0000 H   0  0  0  0  0  0  0  0  0  0  0  0
    3.0781   -4.2582    0.0000 H   0  0  0  0  0  0  0  0  0  0  0  0
    3.4766   -3.5679    0.0000 H   0  0  0  0  0  0  0  0  0  0  0  0
    3.9875   -3.5679    0.0000 H   0  0  0  0  0  0  0  0  0  0  0  0
    4.3860   -4.2582    0.0000 H   0  0  0  0  0  0  0  0  0  0  0  0
    7.1279   -0.7956    0.0000 H   0  0  0  0  0  0  0  0  0  0  0  0
    7.7479   -0.1756    0.0000 H   0  0  0  0  0  0  0  0  0  0  0  0
    7.1279    0.4444    0.0000 H   0  0  0  0  0  0  0  0  0  0  0  0
    4.5804    2.1961    0.0000 H   0  0  0  0  0  0  0  0  0  0  0  0
    7.7508    2.8643    0.0000 H   0  0  0  0  0  0  0  0  0  0  0  0
    7.0398    0.6275    0.0000 H   0  0  0  0  0  0  0  0  0  0  0  0
    7.9154    0.5801    0.0000 H   0  0  0  0  0  0  0  0  0  0  0  0
    7.9628    1.4557    0.0000 H   0  0  0  0  0  0  0  0  0  0  0  0
    5.0837    3.7360    0.0000 H   0  0  0  0  0  0  0  0  0  0  0  0
    2.3100    1.3614    0.0000 H   0  0  0  0  0  0  0  0  0  0  0  0
    1.4631    1.1344    0.0000 H   0  0  0  0  0  0  0  0  0  0  0  0
    1.6900    0.2875    0.0000 H   0  0  0  0  0  0  0  0  0  0  0  0
    1.3800   -5.1756    0.0000 H   0  0  0  0  0  0  0  0  0  0  0  0
    2.0000   -5.7956    0.0000 H   0  0  0  0  0  0  0  0  0  0  0  0
    2.6200   -5.1756    0.0000 H   0  0  0  0  0  0  0  0  0  0  0  0
    4.8441   -5.1756    0.0000 H   0  0  0  0  0  0  0  0  0  0  0  0
    5.4641   -5.7956    0.0000 H   0  0  0  0  0  0  0  0  0  0  0  0
    6.0841   -5.1756    0.0000 H   0  0  0  0  0  0  0  0  0  0  0  0
    6.5806    5.5896    0.0000 H   0  0  0  0  0  0  0  0  0  0  0  0
    5.7050    5.6370    0.0000 H   0  0  0  0  0  0  0  0  0  0  0  0
    5.6576    4.7615    0.0000 H   0  0  0  0  0  0  0  0  0  0  0  0
  1 17  1  0  0  0  0
  1 27  1  0  0  0  0
  2 18  1  0  0  0  0
  2 28  1  0  0  0  0
  3 25  1  0  0  0  0
  3 29  1  0  0  0  0
  4  9  1  0  0  0  0
  4 12  1  0  0  0  0
  4 13  1  0  0  0  0
  5  6  1  0  0  0  0
  5  9  1  0  0  0  0
  5 11  1  0  0  0  0
  6 14  2  0  0  0  0
  7  9  2  0  0  0  0
  7 19  1  0  0  0  0
  8 11  1  0  0  0  0
  8 19  2  0  0  0  0
 10 11  2  0  0  0  0
 10 14  1  0  0  0  0
 10 15  1  0  0  0  0
 12 17  1  0  0  0  0
 12 30  1  0  0  0  0
 12 31  1  0  0  0  0
 13 18  1  0  0  0  0
 13 32  1  0  0  0  0
 13 33  1  0  0  0  0
 14 20  1  0  0  0  0
 15 16  2  0  0  0  0
 15 21  1  0  0  0  0
 16 22  1  0  0  0  0
 16 23  1  0  0  0  0
 17 34  1  0  0  0  0
 17 35  1  0  0  0  0
 18 36  1  0  0  0  0
 18 37  1  0  0  0  0
 19 26  1  0  0  0  0
 20 38  1  0  0  0  0
 20 39  1  0  0  0  0
 20 40  1  0  0  0  0
 21 24  2  0  0  0  0
 21 41  1  0  0  0  0
 22 25  2  0  0  0  0
 22 42  1  0  0  0  0
 23 43  1  0  0  0  0
 23 44  1  0  0  0  0
 23 45  1  0  0  0  0
 24 25  1  0  0  0  0
 24 46  1  0  0  0  0
 26 47  1  0  0  0  0
 26 48  1  0  0  0  0
 26 49  1  0  0  0  0
 27 50  1  0  0  0  0
 27 51  1  0  0  0  0
 27 52  1  0  0  0  0
 28 53  1  0  0  0  0
 28 54  1  0  0  0  0
 28 55  1  0  0  0  0
 29 56  1  0  0  0  0
 29 57  1  0  0  0  0
 29 58  1  0  0  0  0
M  END
> <PUBCHEM_COMPOUND_CID>
9908904

> <PUBCHEM_COMPOUND_CANONICALIZED>
1

> <PUBCHEM_CACTVS_COMPLEXITY>
491

> <PUBCHEM_CACTVS_HBOND_ACCEPTOR>
7

> <PUBCHEM_CACTVS_HBOND_DONOR>
0

> <PUBCHEM_CACTVS_ROTATABLE_BOND>
9

> <PUBCHEM_CACTVS_SUBSKEYS>
AAADceB7sAAAAAAAAAAAAAAAAAAAAWAAAAA8QAAAAAAAAFgB8AAAHgAIAAAADAzhnwYztp8IFACiAyZiZACSjCshIKAdmCA+TJiOLiLE+duFtChsyBPY6CeQwPAOoAABAAAQAABAAAIAACAAAAAAAAAAAA==

> <PUBCHEM_IUPAC_OPENEYE_NAME>
N,N-bis(2-methoxyethyl)-8-(4-methoxy-2-methyl-phenyl)-2,7-dimethyl-pyrazolo[1,5-a][1,3,5]triazin-4-amine

> <PUBCHEM_IUPAC_CAS_NAME>
N,N-bis(2-methoxyethyl)-8-(4-methoxy-2-methylphenyl)-2,7-dimethyl-4-pyrazolo[1,5-a][1,3,5]triazinamine

> <PUBCHEM_IUPAC_NAME_MARKUP>
<I>N</I>,<I>N</I>-bis(2-methoxyethyl)-8-(4-methoxy-2-methylphenyl)-2,7-dimethylpyrazolo[1,5-a][1,3,5]triazin-4-amine

> <PUBCHEM_IUPAC_NAME>
N,N-bis(2-methoxyethyl)-8-(4-methoxy-2-methylphenyl)-2,7-dimethylpyrazolo[1,5-a][1,3,5]triazin-4-amine

> <PUBCHEM_IUPAC_SYSTEMATIC_NAME>
N,N-bis(2-methoxyethyl)-8-(4-methoxy-2-methyl-phenyl)-2,7-dimethyl-pyrazolo[1,5-a][1,3,5]triazin-4-amine

> <PUBCHEM_IUPAC_TRADITIONAL_NAME>
bis(2-methoxyethyl)-[8-(4-methoxy-2-methyl-phenyl)-2,7-dimethyl-pyrazolo[1,5-a][1,3,5]triazin-4-yl]amine

> <PUBCHEM_IUPAC_INCHI>
InChI=1S/C21H29N5O3/c1-14-13-17(29-6)7-8-18(14)19-15(2)24-26-20(19)22-16(3)23-21(26)25(9-11-27-4)10-12-28-5/h7-8,13H,9-12H2,1-6H3

> <PUBCHEM_IUPAC_INCHIKEY>
DKAPUZDMFUBEBM-UHFFFAOYSA-N

> <PUBCHEM_XLOGP3_AA>
3

> <PUBCHEM_EXACT_MASS>
399.22703980

> <PUBCHEM_MOLECULAR_FORMULA>
C21H29N5O3

> <PUBCHEM_MOLECULAR_WEIGHT>
399.5

> <PUBCHEM_OPENEYE_CAN_SMILES>
CC1=C(C=CC(=C1)OC)C2=C3N=C(N=C(N3N=C2C)N(CCOC)CCOC)C

> <PUBCHEM_OPENEYE_ISO_SMILES>
CC1=C(C=CC(=C1)OC)C2=C3N=C(N=C(N3N=C2C)N(CCOC)CCOC)C

> <PUBCHEM_CACTVS_TPSA>
74

> <PUBCHEM_MONOISOTOPIC_WEIGHT>
399.22703980

> <PUBCHEM_TOTAL_CHARGE>
0

> <PUBCHEM_HEAVY_ATOM_COUNT>
29

> <PUBCHEM_ATOM_DEF_STEREO_COUNT>
0

> <PUBCHEM_ATOM_UDEF_STEREO_COUNT>
0

> <PUBCHEM_BOND_DEF_STEREO_COUNT>
0

> <PUBCHEM_BOND_UDEF_STEREO_COUNT>
0

> <PUBCHEM_ISOTOPIC_ATOM_COUNT>
0

> <PUBCHEM_COMPONENT_COUNT>
1

> <PUBCHEM_CACTVS_TAUTO_COUNT>
-1

> <PUBCHEM_COORDINATE_TYPE>
1
5
255

> <PUBCHEM_BONDANNOTATIONS>
10  11  8
10  14  8
15  16  8
15  21  8
16  22  8
21  24  8
22  25  8
24  25  8
5  11  8
5  6  8
5  9  8
6  14  8
7  19  8
7  9  8
8  11  8
8  19  8

$$$$
