10086123
  -OEChem-09292322122D

 44 47  0     1  0  0  0  0  0999 V2000
    3.0814    2.4963    0.0000 N   0  0  3  0  0  0  0  0  0  0  0  0
    2.9519    0.7691    0.0000 C   0  0  0  0  0  0  0  0  0  0  0  0
    3.9491    0.6944    0.0000 C   0  0  0  0  0  0  0  0  0  0  0  0
    2.5180    1.6701    0.0000 C   0  0  0  0  0  0  0  0  0  0  0  0
    4.3830   -0.2066    0.0000 C   0  0  0  0  0  0  0  0  0  0  0  0
    4.0786    2.4216    0.0000 C   0  0  0  0  0  0  0  0  0  0  0  0
    4.5125    1.5206    0.0000 C   0  0  0  0  0  0  0  0  0  0  0  0
    3.7595   -0.9884    0.0000 C   0  0  0  0  0  0  0  0  0  0  0  0
    3.9820   -1.9634    0.0000 C   0  0  0  0  0  0  0  0  0  0  0  0
    5.3830   -0.2066    0.0000 C   0  0  0  0  0  0  0  0  0  0  0  0
    6.0065   -0.9885    0.0000 C   0  0  0  0  0  0  0  0  0  0  0  0
    2.6475    3.3973    0.0000 C   0  0  0  0  0  0  0  0  0  0  0  0
    5.7840   -1.9634    0.0000 C   0  0  0  0  0  0  0  0  0  0  0  0
    4.8830   -2.3973    0.0000 C   0  0  0  0  0  0  0  0  0  0  0  0
    2.7690   -0.6661    0.0000 C   0  0  0  0  0  0  0  0  0  0  0  0
    3.2295   -2.6836    0.0000 C   0  0  0  0  0  0  0  0  0  0  0  0
    6.9970   -0.6661    0.0000 C   0  0  0  0  0  0  0  0  0  0  0  0
    6.5365   -2.6836    0.0000 C   0  0  0  0  0  0  0  0  0  0  0  0
    2.0000   -1.3687    0.0000 C   0  0  0  0  0  0  0  0  0  0  0  0
    2.2318   -2.3842    0.0000 C   0  0  0  0  0  0  0  0  0  0  0  0
    7.7660   -1.3687    0.0000 C   0  0  0  0  0  0  0  0  0  0  0  0
    4.8830   -3.3973    0.0000 C   0  0  0  0  0  0  0  0  0  0  0  0
    7.5342   -2.3842    0.0000 C   0  0  0  0  0  0  0  0  0  0  0  0
    2.3551    0.6012    0.0000 H   0  0  0  0  0  0  0  0  0  0  0  0
    3.0137    0.1522    0.0000 H   0  0  0  0  0  0  0  0  0  0  0  0
    2.0742    2.1030    0.0000 H   0  0  0  0  0  0  0  0  0  0  0  0
    2.0146    1.3081    0.0000 H   0  0  0  0  0  0  0  0  0  0  0  0
    4.6754    2.5895    0.0000 H   0  0  0  0  0  0  0  0  0  0  0  0
    4.0168    3.0385    0.0000 H   0  0  0  0  0  0  0  0  0  0  0  0
    5.1307    1.4742    0.0000 H   0  0  0  0  0  0  0  0  0  0  0  0
    5.6520    0.3520    0.0000 H   0  0  0  0  0  0  0  0  0  0  0  0
    3.2061    3.6663    0.0000 H   0  0  0  0  0  0  0  0  0  0  0  0
    2.3785    3.9559    0.0000 H   0  0  0  0  0  0  0  0  0  0  0  0
    2.0889    3.1283    0.0000 H   0  0  0  0  0  0  0  0  0  0  0  0
    2.6380   -0.0601    0.0000 H   0  0  0  0  0  0  0  0  0  0  0  0
    3.3744   -3.2864    0.0000 H   0  0  0  0  0  0  0  0  0  0  0  0
    7.1280   -0.0601    0.0000 H   0  0  0  0  0  0  0  0  0  0  0  0
    6.3916   -3.2864    0.0000 H   0  0  0  0  0  0  0  0  0  0  0  0
    1.4083   -1.1836    0.0000 H   0  0  0  0  0  0  0  0  0  0  0  0
    1.7789   -2.8077    0.0000 H   0  0  0  0  0  0  0  0  0  0  0  0
    8.3578   -1.1837    0.0000 H   0  0  0  0  0  0  0  0  0  0  0  0
    4.3460   -3.7073    0.0000 H   0  0  0  0  0  0  0  0  0  0  0  0
    5.4199   -3.7073    0.0000 H   0  0  0  0  0  0  0  0  0  0  0  0
    7.9871   -2.8077    0.0000 H   0  0  0  0  0  0  0  0  0  0  0  0
  1  4  1  0  0  0  0
  1  6  1  0  0  0  0
  1 12  1  0  0  0  0
  2  3  1  0  0  0  0
  2  4  1  0  0  0  0
  2 24  1  0  0  0  0
  2 25  1  0  0  0  0
  3  5  1  0  0  0  0
  3  7  2  0  0  0  0
  4 26  1  0  0  0  0
  4 27  1  0  0  0  0
  5  8  1  0  0  0  0
  5 10  2  0  0  0  0
  6  7  1  0  0  0  0
  6 28  1  0  0  0  0
  6 29  1  0  0  0  0
  7 30  1  0  0  0  0
  8  9  1  0  0  0  0
  8 15  2  0  0  0  0
  9 14  1  0  0  0  0
  9 16  2  0  0  0  0
 10 11  1  0  0  0  0
 10 31  1  0  0  0  0
 11 13  1  0  0  0  0
 11 17  2  0  0  0  0
 12 32  1  0  0  0  0
 12 33  1  0  0  0  0
 12 34  1  0  0  0  0
 13 14  1  0  0  0  0
 13 18  2  0  0  0  0
 14 22  2  0  0  0  0
 15 19  1  0  0  0  0
 15 35  1  0  0  0  0
 16 20  1  0  0  0  0
 16 36  1  0  0  0  0
 17 21  1  0  0  0  0
 17 37  1  0  0  0  0
 18 23  1  0  0  0  0
 18 38  1  0  0  0  0
 19 20  2  0  0  0  0
 19 39  1  0  0  0  0
 20 40  1  0  0  0  0
 21 23  2  0  0  0  0
 21 41  1  0  0  0  0
 22 42  1  0  0  0  0
 22 43  1  0  0  0  0
 23 44  1  0  0  0  0
M  END
> <PUBCHEM_COMPOUND_CID>
10086123

> <PUBCHEM_COMPOUND_CANONICALIZED>
1

> <PUBCHEM_CACTVS_COMPLEXITY>
526

> <PUBCHEM_CACTVS_HBOND_ACCEPTOR>
1

> <PUBCHEM_CACTVS_HBOND_DONOR>
0

> <PUBCHEM_CACTVS_ROTATABLE_BOND>
1

> <PUBCHEM_CACTVS_SUBSKEYS>
AAADceB6AAAAAAAAAAAAAAAAAAAAAAAAAAAwYIAABAAAAAABQAAAHAAAAAAADADBGAQyAIMAAACAAiBCAACCAAAgAAAIiAAIAIgIICKAkRCEIAAggACIiAcQgMAOgAAAAAAQAAAAAAAAACAAAAAAAAAAAA==

> <PUBCHEM_IUPAC_OPENEYE_NAME>
1-methyl-4-(2-methylene-9-tricyclo[9.4.0.03,8]pentadeca-1(15),3,5,7,9,11,13-heptaenyl)-3,6-dihydro-2H-pyridine

> <PUBCHEM_IUPAC_CAS_NAME>
1-methyl-4-(2-methylene-9-tricyclo[9.4.0.03,8]pentadeca-1(15),3,5,7,9,11,13-heptaenyl)-3,6-dihydro-2H-pyridine

> <PUBCHEM_IUPAC_NAME_MARKUP>
1-methyl-4-(2-methylidene-9-tricyclo[9.4.0.0<SUP>3,8</SUP>]pentadeca-1(15),3,5,7,9,11,13-heptaenyl)-3,6-dihydro-2<I>H</I>-pyridine

> <PUBCHEM_IUPAC_NAME>
1-methyl-4-(2-methylidene-9-tricyclo[9.4.0.03,8]pentadeca-1(15),3,5,7,9,11,13-heptaenyl)-3,6-dihydro-2H-pyridine

> <PUBCHEM_IUPAC_SYSTEMATIC_NAME>
1-methyl-4-(2-methylidene-9-tricyclo[9.4.0.03,8]pentadeca-1(15),3,5,7,9,11,13-heptaenyl)-3,6-dihydro-2H-pyridine

> <PUBCHEM_IUPAC_TRADITIONAL_NAME>
1-methyl-4-(2-methylene-9-tricyclo[9.4.0.03,8]pentadeca-1(15),3,5,7,9,11,13-heptaenyl)-3,6-dihydro-2H-pyridine

> <PUBCHEM_IUPAC_INCHI>
InChI=1S/C22H21N/c1-16-19-8-4-3-7-18(19)15-22(17-11-13-23(2)14-12-17)21-10-6-5-9-20(16)21/h3-11,15H,1,12-14H2,2H3

> <PUBCHEM_IUPAC_INCHIKEY>
KSKCVJKDKBWMJB-UHFFFAOYSA-N

> <PUBCHEM_XLOGP3_AA>
4.2

> <PUBCHEM_EXACT_MASS>
299.167399674

> <PUBCHEM_MOLECULAR_FORMULA>
C22H21N

> <PUBCHEM_MOLECULAR_WEIGHT>
299.4

> <PUBCHEM_OPENEYE_CAN_SMILES>
CN1CCC(=CC1)C2=CC3=CC=CC=C3C(=C)C4=CC=CC=C42

> <PUBCHEM_OPENEYE_ISO_SMILES>
CN1CCC(=CC1)C2=CC3=CC=CC=C3C(=C)C4=CC=CC=C42

> <PUBCHEM_CACTVS_TPSA>
3.2

> <PUBCHEM_MONOISOTOPIC_WEIGHT>
299.167399674

> <PUBCHEM_TOTAL_CHARGE>
0

> <PUBCHEM_HEAVY_ATOM_COUNT>
23

> <PUBCHEM_ATOM_DEF_STEREO_COUNT>
0

> <PUBCHEM_ATOM_UDEF_STEREO_COUNT>
0

> <PUBCHEM_BOND_DEF_STEREO_COUNT>
0

> <PUBCHEM_BOND_UDEF_STEREO_COUNT>
0

> <PUBCHEM_ISOTOPIC_ATOM_COUNT>
0

> <PUBCHEM_COMPONENT_COUNT>
1

> <PUBCHEM_CACTVS_TAUTO_COUNT>
-1

> <PUBCHEM_COORDINATE_TYPE>
1
5
255

> <PUBCHEM_BONDANNOTATIONS>
11  13  8
11  17  8
13  18  8
15  19  8
16  20  8
17  21  8
18  23  8
19  20  8
21  23  8
8  15  8
8  9  8
9  16  8

$$$$
