11568714
  -OEChem-09292322492D

 57 61  0     1  0  0  0  0  0999 V2000
    3.4887   -4.3927    0.0000 S   0  0  0  0  0  0  0  0  0  0  0  0
    8.2062    1.9236    0.0000 S   0  0  0  0  0  0  0  0  0  0  0  0
   11.0301    5.2572    0.0000 O   0  0  0  0  0  0  0  0  0  0  0  0
    5.2062    0.1916    0.0000 N   0  0  3  0  0  0  0  0  0  0  0  0
    2.0949   -3.5880    0.0000 N   0  0  0  0  0  0  0  0  0  0  0  0
    9.7008    2.8942    0.0000 N   0  0  0  0  0  0  0  0  0  0  0  0
    8.2995    3.7032    0.0000 N   0  0  0  0  0  0  0  0  0  0  0  0
    9.0426    4.3724    0.0000 N   0  0  0  0  0  0  0  0  0  0  0  0
   12.4314    4.4482    0.0000 N   0  0  0  0  0  0  0  0  0  0  0  0
    5.7598   -0.6180    0.0000 C   0  0  0  0  0  0  0  0  0  0  0  0
    4.2283    0.2662    0.0000 C   0  0  0  0  0  0  0  0  0  0  0  0
    5.4745   -1.5564    0.0000 C   0  0  0  0  0  0  0  0  0  0  0  0
    3.5583   -0.4501    0.0000 C   0  0  0  0  0  0  0  0  0  0  0  0
    4.5640   -1.9209    0.0000 C   0  0  0  0  0  0  0  0  0  0  0  0
    3.6979   -1.4209    0.0000 C   0  0  0  0  0  0  0  0  0  0  0  0
    5.7062    1.0576    0.0000 C   0  0  0  0  0  0  0  0  0  0  0  0
    6.7062    1.0576    0.0000 C   0  0  0  0  0  0  0  0  0  0  0  0
    4.5640   -2.9209    0.0000 C   0  0  0  0  0  0  0  0  0  0  0  0
    2.8319   -1.9209    0.0000 C   0  0  0  0  0  0  0  0  0  0  0  0
    3.6979   -3.4209    0.0000 C   0  0  0  0  0  0  0  0  0  0  0  0
    2.8319   -2.9209    0.0000 C   0  0  0  0  0  0  0  0  0  0  0  0
    7.2062    1.9236    0.0000 C   0  0  0  0  0  0  0  0  0  0  0  0
    2.5000   -4.4957    0.0000 C   0  0  0  0  0  0  0  0  0  0  0  0
    8.7062    2.7897    0.0000 C   0  0  0  0  0  0  0  0  0  0  0  0
    2.0000   -5.3618    0.0000 C   0  0  0  0  0  0  0  0  0  0  0  0
    9.9087    3.8724    0.0000 C   0  0  0  0  0  0  0  0  0  0  0  0
   10.3699    2.1511    0.0000 C   0  0  0  0  0  0  0  0  0  0  0  0
   10.8222    4.2791    0.0000 C   0  0  0  0  0  0  0  0  0  0  0  0
   11.6882    3.7791    0.0000 C   0  0  0  0  0  0  0  0  0  0  0  0
   11.7928    2.7846    0.0000 C   0  0  0  0  0  0  0  0  0  0  0  0
   12.0246    5.3618    0.0000 C   0  0  0  0  0  0  0  0  0  0  0  0
    6.2977   -0.9263    0.0000 H   0  0  0  0  0  0  0  0  0  0  0  0
    6.1805   -0.1626    0.0000 H   0  0  0  0  0  0  0  0  0  0  0  0
    4.4124    0.8583    0.0000 H   0  0  0  0  0  0  0  0  0  0  0  0
    3.6923    0.5779    0.0000 H   0  0  0  0  0  0  0  0  0  0  0  0
    5.5705   -2.1689    0.0000 H   0  0  0  0  0  0  0  0  0  0  0  0
    6.0930   -1.5997    0.0000 H   0  0  0  0  0  0  0  0  0  0  0  0
    3.2116    0.0639    0.0000 H   0  0  0  0  0  0  0  0  0  0  0  0
    2.9798   -0.6732    0.0000 H   0  0  0  0  0  0  0  0  0  0  0  0
    5.8139    1.6682    0.0000 H   0  0  0  0  0  0  0  0  0  0  0  0
    5.1236    1.2697    0.0000 H   0  0  0  0  0  0  0  0  0  0  0  0
    6.5986    0.4470    0.0000 H   0  0  0  0  0  0  0  0  0  0  0  0
    7.2888    0.8456    0.0000 H   0  0  0  0  0  0  0  0  0  0  0  0
    5.1009   -3.2309    0.0000 H   0  0  0  0  0  0  0  0  0  0  0  0
    2.2950   -1.6109    0.0000 H   0  0  0  0  0  0  0  0  0  0  0  0
    7.3139    2.5342    0.0000 H   0  0  0  0  0  0  0  0  0  0  0  0
    6.6236    2.1357    0.0000 H   0  0  0  0  0  0  0  0  0  0  0  0
    1.4631   -5.0518    0.0000 H   0  0  0  0  0  0  0  0  0  0  0  0
    1.6900   -5.8987    0.0000 H   0  0  0  0  0  0  0  0  0  0  0  0
    2.5369   -5.6718    0.0000 H   0  0  0  0  0  0  0  0  0  0  0  0
    9.9091    1.7362    0.0000 H   0  0  0  0  0  0  0  0  0  0  0  0
   10.7847    1.6903    0.0000 H   0  0  0  0  0  0  0  0  0  0  0  0
   10.8306    2.5659    0.0000 H   0  0  0  0  0  0  0  0  0  0  0  0
   11.1762    2.7198    0.0000 H   0  0  0  0  0  0  0  0  0  0  0  0
   11.8576    2.1680    0.0000 H   0  0  0  0  0  0  0  0  0  0  0  0
   12.4094    2.8494    0.0000 H   0  0  0  0  0  0  0  0  0  0  0  0
   12.3346    5.8987    0.0000 H   0  0  0  0  0  0  0  0  0  0  0  0
  1 20  1  0  0  0  0
  1 23  1  0  0  0  0
  2 22  1  0  0  0  0
  2 24  1  0  0  0  0
  3 28  1  0  0  0  0
  3 31  1  0  0  0  0
  4 10  1  0  0  0  0
  4 11  1  0  0  0  0
  4 16  1  0  0  0  0
  5 21  1  0  0  0  0
  5 23  2  0  0  0  0
  6 24  1  0  0  0  0
  6 26  1  0  0  0  0
  6 27  1  0  0  0  0
  7  8  1  0  0  0  0
  7 24  2  0  0  0  0
  8 26  2  0  0  0  0
  9 29  1  0  0  0  0
  9 31  2  0  0  0  0
 10 12  1  0  0  0  0
 10 32  1  0  0  0  0
 10 33  1  0  0  0  0
 11 13  1  0  0  0  0
 11 34  1  0  0  0  0
 11 35  1  0  0  0  0
 12 14  1  0  0  0  0
 12 36  1  0  0  0  0
 12 37  1  0  0  0  0
 13 15  1  0  0  0  0
 13 38  1  0  0  0  0
 13 39  1  0  0  0  0
 14 15  1  0  0  0  0
 14 18  2  0  0  0  0
 15 19  2  0  0  0  0
 16 17  1  0  0  0  0
 16 40  1  0  0  0  0
 16 41  1  0  0  0  0
 17 22  1  0  0  0  0
 17 42  1  0  0  0  0
 17 43  1  0  0  0  0
 18 20  1  0  0  0  0
 18 44  1  0  0  0  0
 19 21  1  0  0  0  0
 19 45  1  0  0  0  0
 20 21  2  0  0  0  0
 22 46  1  0  0  0  0
 22 47  1  0  0  0  0
 23 25  1  0  0  0  0
 25 48  1  0  0  0  0
 25 49  1  0  0  0  0
 25 50  1  0  0  0  0
 26 28  1  0  0  0  0
 27 51  1  0  0  0  0
 27 52  1  0  0  0  0
 27 53  1  0  0  0  0
 28 29  2  0  0  0  0
 29 30  1  0  0  0  0
 30 54  1  0  0  0  0
 30 55  1  0  0  0  0
 30 56  1  0  0  0  0
 31 57  1  0  0  0  0
M  END
> <PUBCHEM_COMPOUND_CID>
11568714

> <PUBCHEM_COMPOUND_CANONICALIZED>
1

> <PUBCHEM_CACTVS_COMPLEXITY>
602

> <PUBCHEM_CACTVS_HBOND_ACCEPTOR>
8

> <PUBCHEM_CACTVS_HBOND_DONOR>
0

> <PUBCHEM_CACTVS_ROTATABLE_BOND>
6

> <PUBCHEM_CACTVS_SUBSKEYS>
AAADceB7oABgAAAAAAAAAAAAAAAAAWLFgAAwAAAABYAAAFgB/gAAHgQIAAAADAzF3wa31bcMFEiuA6Zz9AST+Kt7arhV2D29ZJiOKKLk2bGNIChgjAL4yAcQgIAOmAAAwAAQAQAwAAGAACACAAAAAAAAAA==

> <PUBCHEM_IUPAC_OPENEYE_NAME>
4-methyl-5-[4-methyl-5-[3-(2-methyl-5,6,8,9-tetrahydrothiazolo[4,5-h][3]benzazepin-7-yl)propylsulfanyl]-1,2,4-triazol-3-yl]oxazole

> <PUBCHEM_IUPAC_CAS_NAME>
4-methyl-5-[4-methyl-5-[3-(2-methyl-5,6,8,9-tetrahydrothiazolo[4,5-h][3]benzazepin-7-yl)propylthio]-1,2,4-triazol-3-yl]oxazole

> <PUBCHEM_IUPAC_NAME_MARKUP>
4-methyl-5-[4-methyl-5-[3-(2-methyl-5,6,8,9-tetrahydro-[1,3]thiazolo[4,5-h][3]benzazepin-7-yl)propylsulfanyl]-1,2,4-triazol-3-yl]-1,3-oxazole

> <PUBCHEM_IUPAC_NAME>
4-methyl-5-[4-methyl-5-[3-(2-methyl-5,6,8,9-tetrahydro-[1,3]thiazolo[4,5-h][3]benzazepin-7-yl)propylsulfanyl]-1,2,4-triazol-3-yl]-1,3-oxazole

> <PUBCHEM_IUPAC_SYSTEMATIC_NAME>
4-methyl-5-[4-methyl-5-[3-(2-methyl-5,6,8,9-tetrahydro-[1,3]thiazolo[4,5-h][3]benzazepin-7-yl)propylsulfanyl]-1,2,4-triazol-3-yl]-1,3-oxazole

> <PUBCHEM_IUPAC_TRADITIONAL_NAME>
4-methyl-5-[4-methyl-5-[3-(2-methyl-5,6,8,9-tetrahydrothiazolo[4,5-h][3]benzazepin-7-yl)propylthio]-1,2,4-triazol-3-yl]oxazole

> <PUBCHEM_IUPAC_INCHI>
InChI=1S/C22H26N6OS2/c1-14-20(29-13-23-14)21-25-26-22(27(21)3)30-10-4-7-28-8-5-16-11-18-19(31-15(2)24-18)12-17(16)6-9-28/h11-13H,4-10H2,1-3H3

> <PUBCHEM_IUPAC_INCHIKEY>
GNAFTHDBPJUMAT-UHFFFAOYSA-N

> <PUBCHEM_XLOGP3_AA>
4

> <PUBCHEM_EXACT_MASS>
454.16095182

> <PUBCHEM_MOLECULAR_FORMULA>
C22H26N6OS2

> <PUBCHEM_MOLECULAR_WEIGHT>
454.6

> <PUBCHEM_OPENEYE_CAN_SMILES>
CC1=C(OC=N1)C2=NN=C(N2C)SCCCN3CCC4=CC5=C(C=C4CC3)SC(=N5)C

> <PUBCHEM_OPENEYE_ISO_SMILES>
CC1=C(OC=N1)C2=NN=C(N2C)SCCCN3CCC4=CC5=C(C=C4CC3)SC(=N5)C

> <PUBCHEM_CACTVS_TPSA>
126

> <PUBCHEM_MONOISOTOPIC_WEIGHT>
454.16095182

> <PUBCHEM_TOTAL_CHARGE>
0

> <PUBCHEM_HEAVY_ATOM_COUNT>
31

> <PUBCHEM_ATOM_DEF_STEREO_COUNT>
0

> <PUBCHEM_ATOM_UDEF_STEREO_COUNT>
0

> <PUBCHEM_BOND_DEF_STEREO_COUNT>
0

> <PUBCHEM_BOND_UDEF_STEREO_COUNT>
0

> <PUBCHEM_ISOTOPIC_ATOM_COUNT>
0

> <PUBCHEM_COMPONENT_COUNT>
1

> <PUBCHEM_CACTVS_TAUTO_COUNT>
-1

> <PUBCHEM_COORDINATE_TYPE>
1
5
255

> <PUBCHEM_BONDANNOTATIONS>
1  20  8
1  23  8
14  15  8
14  18  8
15  19  8
18  20  8
19  21  8
20  21  8
28  29  8
3  28  8
3  31  8
5  21  8
5  23  8
6  24  8
6  26  8
7  24  8
7  8  8
8  26  8
9  29  8
9  31  8

$$$$
