163941953
  -OEChem-09292322442D

 61 64  0     1  0  0  0  0  0999 V2000
    2.0000   -4.9904    0.0000 F   0  0  0  0  0  0  0  0  0  0  0  0
   10.0331    2.1856    0.0000 O   0  0  0  0  0  0  0  0  0  0  0  0
    9.7225    1.2351    0.0000 O   0  0  0  0  0  0  0  0  0  0  0  0
    5.5443   -4.7951    0.0000 O   0  0  0  0  0  0  0  0  0  0  0  0
    6.4763   -0.3341    0.0000 N   0  0  0  0  0  0  0  0  0  0  0  0
    8.0761    1.7732    0.0000 N   0  0  0  0  0  0  0  0  0  0  0  0
    9.9034    4.5763    0.0000 N   0  0  0  0  0  0  0  0  0  0  0  0
    6.1279   -3.9904    0.0000 N   0  0  0  0  0  0  0  0  0  0  0  0
    5.8550   -2.2351    0.0000 C   0  0  0  0  0  0  0  0  0  0  0  0
    5.1871   -1.4908    0.0000 C   0  0  0  0  0  0  0  0  0  0  0  0
    6.8335   -2.0289    0.0000 C   0  0  0  0  0  0  0  0  0  0  0  0
    5.4978   -0.5403    0.0000 C   0  0  0  0  0  0  0  0  0  0  0  0
    7.1441   -1.0784    0.0000 C   0  0  0  0  0  0  0  0  0  0  0  0
    9.3653    2.9299    0.0000 C   0  0  3  0  0  0  0  0  0  0  0  0
    6.7870    0.6165    0.0000 C   0  0  0  0  0  0  0  0  0  0  0  0
    8.4148    3.2406    0.0000 C   0  0  0  0  0  0  0  0  0  0  0  0
    7.7654    0.8227    0.0000 C   0  0  0  0  0  0  0  0  0  0  0  0
   10.1096    3.5978    0.0000 C   0  0  0  0  0  0  0  0  0  0  0  0
    5.5443   -3.1856    0.0000 C   0  0  0  0  0  0  0  0  0  0  0  0
    8.2085    4.2191    0.0000 C   0  0  0  0  0  0  0  0  0  0  0  0
    9.0546    1.9794    0.0000 C   0  0  0  0  0  0  0  0  0  0  0  0
    8.9528    4.8870    0.0000 C   0  0  0  0  0  0  0  0  0  0  0  0
    7.4083    2.5175    0.0000 C   0  0  0  0  0  0  0  0  0  0  0  0
    4.5981   -3.4904    0.0000 C   0  0  0  0  0  0  0  0  0  0  0  0
    4.5981   -4.4904    0.0000 C   0  0  0  0  0  0  0  0  0  0  0  0
    6.4298    2.3113    0.0000 C   0  0  0  0  0  0  0  0  0  0  0  0
    3.7320   -2.9904    0.0000 C   0  0  0  0  0  0  0  0  0  0  0  0
    3.7320   -4.9904    0.0000 C   0  0  0  0  0  0  0  0  0  0  0  0
    2.8660   -3.4904    0.0000 C   0  0  0  0  0  0  0  0  0  0  0  0
    2.8660   -4.4904    0.0000 C   0  0  0  0  0  0  0  0  0  0  0  0
    6.2690   -2.6966    0.0000 H   0  0  0  0  0  0  0  0  0  0  0  0
    4.6402   -1.1988    0.0000 H   0  0  0  0  0  0  0  0  0  0  0  0
    4.8046   -1.9787    0.0000 H   0  0  0  0  0  0  0  0  0  0  0  0
    6.8540   -2.6485    0.0000 H   0  0  0  0  0  0  0  0  0  0  0  0
    7.4473   -2.1162    0.0000 H   0  0  0  0  0  0  0  0  0  0  0  0
    5.4772    0.0794    0.0000 H   0  0  0  0  0  0  0  0  0  0  0  0
    4.8840   -0.4529    0.0000 H   0  0  0  0  0  0  0  0  0  0  0  0
    7.6910   -1.3704    0.0000 H   0  0  0  0  0  0  0  0  0  0  0  0
    7.5267   -0.5905    0.0000 H   0  0  0  0  0  0  0  0  0  0  0  0
    6.7664    1.2361    0.0000 H   0  0  0  0  0  0  0  0  0  0  0  0
    6.1731    0.7038    0.0000 H   0  0  0  0  0  0  0  0  0  0  0  0
    7.7951    3.2200    0.0000 H   0  0  0  0  0  0  0  0  0  0  0  0
    8.3274    2.6268    0.0000 H   0  0  0  0  0  0  0  0  0  0  0  0
    7.7860    0.2030    0.0000 H   0  0  0  0  0  0  0  0  0  0  0  0
    8.3793    0.7353    0.0000 H   0  0  0  0  0  0  0  0  0  0  0  0
   10.4372    3.0714    0.0000 H   0  0  0  0  0  0  0  0  0  0  0  0
   10.6848    3.8290    0.0000 H   0  0  0  0  0  0  0  0  0  0  0  0
    7.8809    4.7455    0.0000 H   0  0  0  0  0  0  0  0  0  0  0  0
    7.6333    3.9878    0.0000 H   0  0  0  0  0  0  0  0  0  0  0  0
    9.2449    5.4339    0.0000 H   0  0  0  0  0  0  0  0  0  0  0  0
    8.4649    5.2695    0.0000 H   0  0  0  0  0  0  0  0  0  0  0  0
   10.3648    4.9904    0.0000 H   0  0  0  0  0  0  0  0  0  0  0  0
    7.9346    2.8451    0.0000 H   0  0  0  0  0  0  0  0  0  0  0  0
    7.1770    3.0928    0.0000 H   0  0  0  0  0  0  0  0  0  0  0  0
   10.6398    2.3135    0.0000 H   0  0  0  0  0  0  0  0  0  0  0  0
    6.3019    2.9180    0.0000 H   0  0  0  0  0  0  0  0  0  0  0  0
    5.8231    2.1834    0.0000 H   0  0  0  0  0  0  0  0  0  0  0  0
    6.5576    1.7046    0.0000 H   0  0  0  0  0  0  0  0  0  0  0  0
    3.7320   -2.3704    0.0000 H   0  0  0  0  0  0  0  0  0  0  0  0
    3.7320   -5.6104    0.0000 H   0  0  0  0  0  0  0  0  0  0  0  0
    2.3291   -3.1803    0.0000 H   0  0  0  0  0  0  0  0  0  0  0  0
  1 30  1  0  0  0  0
  2 14  1  0  0  0  0
  2 55  1  0  0  0  0
  3 21  2  0  0  0  0
  4  8  1  0  0  0  0
  4 25  1  0  0  0  0
  5 12  1  0  0  0  0
  5 13  1  0  0  0  0
  5 15  1  0  0  0  0
  6 17  1  0  0  0  0
  6 21  1  0  0  0  0
  6 23  1  0  0  0  0
  7 18  1  0  0  0  0
  7 22  1  0  0  0  0
  7 52  1  0  0  0  0
  8 19  2  0  0  0  0
  9 10  1  0  0  0  0
  9 11  1  0  0  0  0
  9 19  1  0  0  0  0
  9 31  1  0  0  0  0
 10 12  1  0  0  0  0
 10 32  1  0  0  0  0
 10 33  1  0  0  0  0
 11 13  1  0  0  0  0
 11 34  1  0  0  0  0
 11 35  1  0  0  0  0
 12 36  1  0  0  0  0
 12 37  1  0  0  0  0
 13 38  1  0  0  0  0
 13 39  1  0  0  0  0
 14 16  1  0  0  0  0
 14 18  1  0  0  0  0
 14 21  1  0  0  0  0
 15 17  1  0  0  0  0
 15 40  1  0  0  0  0
 15 41  1  0  0  0  0
 16 20  1  0  0  0  0
 16 42  1  0  0  0  0
 16 43  1  0  0  0  0
 17 44  1  0  0  0  0
 17 45  1  0  0  0  0
 18 46  1  0  0  0  0
 18 47  1  0  0  0  0
 19 24  1  0  0  0  0
 20 22  1  0  0  0  0
 20 48  1  0  0  0  0
 20 49  1  0  0  0  0
 22 50  1  0  0  0  0
 22 51  1  0  0  0  0
 23 26  1  0  0  0  0
 23 53  1  0  0  0  0
 23 54  1  0  0  0  0
 24 25  2  0  0  0  0
 24 27  1  0  0  0  0
 25 28  1  0  0  0  0
 26 56  1  0  0  0  0
 26 57  1  0  0  0  0
 26 58  1  0  0  0  0
 27 29  2  0  0  0  0
 27 59  1  0  0  0  0
 28 30  2  0  0  0  0
 28 60  1  0  0  0  0
 29 30  1  0  0  0  0
 29 61  1  0  0  0  0
M  END
> <PUBCHEM_COMPOUND_CID>
163941953

> <PUBCHEM_COMPOUND_CANONICALIZED>
1

> <PUBCHEM_CACTVS_COMPLEXITY>
589

> <PUBCHEM_CACTVS_HBOND_ACCEPTOR>
7

> <PUBCHEM_CACTVS_HBOND_DONOR>
2

> <PUBCHEM_CACTVS_ROTATABLE_BOND>
6

> <PUBCHEM_CACTVS_SUBSKEYS>
AAADceB7sQAAAAAAAAAAAAAAAAAAAWAAAAA8WIAAAAAAAFgB8AAAHwAUCAAADUzBngwyhtPQAgCpA6VyUgKCAAAkIAAomKF+TNoKZrqA1ZOUcYBm1hmYyce4yeCOAAAAAAAIAAAAAAAAABAAAAAAAAAAAA==

> <PUBCHEM_IUPAC_OPENEYE_NAME>
N-ethyl-N-[2-[4-(6-fluoro-1,2-benzoxazol-3-yl)-1-piperidyl]ethyl]-3-hydroxy-piperidine-3-carboxamide

> <PUBCHEM_IUPAC_CAS_NAME>
N-ethyl-N-[2-[4-(6-fluoro-1,2-benzoxazol-3-yl)-1-piperidinyl]ethyl]-3-hydroxy-3-piperidinecarboxamide

> <PUBCHEM_IUPAC_NAME_MARKUP>
<I>N</I>-ethyl-<I>N</I>-[2-[4-(6-fluoro-1,2-benzoxazol-3-yl)piperidin-1-yl]ethyl]-3-hydroxypiperidine-3-carboxamide

> <PUBCHEM_IUPAC_NAME>
N-ethyl-N-[2-[4-(6-fluoro-1,2-benzoxazol-3-yl)piperidin-1-yl]ethyl]-3-hydroxypiperidine-3-carboxamide

> <PUBCHEM_IUPAC_SYSTEMATIC_NAME>
N-ethyl-N-[2-[4-(6-fluoranyl-1,2-benzoxazol-3-yl)piperidin-1-yl]ethyl]-3-oxidanyl-piperidine-3-carboxamide

> <PUBCHEM_IUPAC_TRADITIONAL_NAME>
N-ethyl-N-[2-[4-(6-fluoroindoxazen-3-yl)piperidino]ethyl]-3-hydroxy-nipecotamide

> <PUBCHEM_IUPAC_INCHI>
InChI=1S/C22H31FN4O3/c1-2-27(21(28)22(29)8-3-9-24-15-22)13-12-26-10-6-16(7-11-26)20-18-5-4-17(23)14-19(18)30-25-20/h4-5,14,16,24,29H,2-3,6-13,15H2,1H3

> <PUBCHEM_IUPAC_INCHIKEY>
RRTOYKUQJIMLKS-UHFFFAOYSA-N

> <PUBCHEM_XLOGP3_AA>
1.5

> <PUBCHEM_EXACT_MASS>
418.23801903

> <PUBCHEM_MOLECULAR_FORMULA>
C22H31FN4O3

> <PUBCHEM_MOLECULAR_WEIGHT>
418.5

> <PUBCHEM_OPENEYE_CAN_SMILES>
CCN(CCN1CCC(CC1)C2=NOC3=C2C=CC(=C3)F)C(=O)C4(CCCNC4)O

> <PUBCHEM_OPENEYE_ISO_SMILES>
CCN(CCN1CCC(CC1)C2=NOC3=C2C=CC(=C3)F)C(=O)C4(CCCNC4)O

> <PUBCHEM_CACTVS_TPSA>
81.8

> <PUBCHEM_MONOISOTOPIC_WEIGHT>
418.23801903

> <PUBCHEM_TOTAL_CHARGE>
0

> <PUBCHEM_HEAVY_ATOM_COUNT>
30

> <PUBCHEM_ATOM_DEF_STEREO_COUNT>
0

> <PUBCHEM_ATOM_UDEF_STEREO_COUNT>
1

> <PUBCHEM_BOND_DEF_STEREO_COUNT>
0

> <PUBCHEM_BOND_UDEF_STEREO_COUNT>
0

> <PUBCHEM_ISOTOPIC_ATOM_COUNT>
0

> <PUBCHEM_COMPONENT_COUNT>
1

> <PUBCHEM_CACTVS_TAUTO_COUNT>
-1

> <PUBCHEM_COORDINATE_TYPE>
1
5
255

> <PUBCHEM_BONDANNOTATIONS>
19  24  8
14  2  3
24  25  8
24  27  8
25  28  8
27  29  8
28  30  8
29  30  8
4  25  8
4  8  8
8  19  8

$$$$
