76335562
  -OEChem-09292322342D

 57 60  0     1  0  0  0  0  0999 V2000
    2.0000    0.8877    0.0000 F   0  0  0  0  0  0  0  0  0  0  0  0
   11.5263   -0.6123    0.0000 O   0  0  0  0  0  0  0  0  0  0  0  0
    5.4641   -2.1123    0.0000 O   0  0  0  0  0  0  0  0  0  0  0  0
    3.7320   -2.1123    0.0000 O   0  0  0  0  0  0  0  0  0  0  0  0
    8.0622    0.3877    0.0000 N   0  0  0  0  0  0  0  0  0  0  0  0
   15.0564    0.3635    0.0000 N   0  0  0  0  0  0  0  0  0  0  0  0
    6.3301   -0.6123    0.0000 C   0  0  0  0  0  0  0  0  0  0  0  0
    8.0622   -0.6123    0.0000 C   0  0  0  0  0  0  0  0  0  0  0  0
    7.1962    0.8877    0.0000 C   0  0  0  0  0  0  0  0  0  0  0  0
    7.1962   -1.1123    0.0000 C   0  0  0  0  0  0  0  0  0  0  0  0
    6.3301    0.3877    0.0000 C   0  0  0  0  0  0  0  0  0  0  0  0
    8.9282    0.8877    0.0000 C   0  0  0  0  0  0  0  0  0  0  0  0
   10.6603    0.8877    0.0000 C   0  0  3  0  0  0  0  0  0  0  0  0
    9.7942    0.3877    0.0000 C   0  0  0  0  0  0  0  0  0  0  0  0
   10.6603    1.8877    0.0000 C   0  0  0  0  0  0  0  0  0  0  0  0
   11.5263    2.3877    0.0000 C   0  0  0  0  0  0  0  0  0  0  0  0
   11.5263    0.3877    0.0000 C   0  0  0  0  0  0  0  0  0  0  0  0
    5.4641   -1.1123    0.0000 C   0  0  0  0  0  0  0  0  0  0  0  0
   12.3923    1.8877    0.0000 C   0  0  0  0  0  0  0  0  0  0  0  0
   12.3923    0.8877    0.0000 C   0  0  0  0  0  0  0  0  0  0  0  0
    4.5981   -0.6123    0.0000 C   0  0  0  0  0  0  0  0  0  0  0  0
   13.2862    0.3530    0.0000 C   0  0  0  0  0  0  0  0  0  0  0  0
   13.2862    2.4223    0.0000 C   0  0  0  0  0  0  0  0  0  0  0  0
   14.1923    0.8669    0.0000 C   0  0  0  0  0  0  0  0  0  0  0  0
   14.1923    1.9085    0.0000 C   0  0  0  0  0  0  0  0  0  0  0  0
    3.7320   -1.1123    0.0000 C   0  0  0  0  0  0  0  0  0  0  0  0
    4.5981    0.3877    0.0000 C   0  0  0  0  0  0  0  0  0  0  0  0
    2.8660   -0.6123    0.0000 C   0  0  0  0  0  0  0  0  0  0  0  0
    3.7320    0.8877    0.0000 C   0  0  0  0  0  0  0  0  0  0  0  0
    2.8660    0.3877    0.0000 C   0  0  0  0  0  0  0  0  0  0  0  0
    5.7932   -0.3023    0.0000 H   0  0  0  0  0  0  0  0  0  0  0  0
    8.2742   -1.1949    0.0000 H   0  0  0  0  0  0  0  0  0  0  0  0
    8.6728   -0.5047    0.0000 H   0  0  0  0  0  0  0  0  0  0  0  0
    7.5947    1.3626    0.0000 H   0  0  0  0  0  0  0  0  0  0  0  0
    6.7976    1.3626    0.0000 H   0  0  0  0  0  0  0  0  0  0  0  0
    6.7976   -1.5873    0.0000 H   0  0  0  0  0  0  0  0  0  0  0  0
    7.5947   -1.5873    0.0000 H   0  0  0  0  0  0  0  0  0  0  0  0
    6.1181    0.9703    0.0000 H   0  0  0  0  0  0  0  0  0  0  0  0
    5.7196    0.2800    0.0000 H   0  0  0  0  0  0  0  0  0  0  0  0
   10.6603    0.2677    0.0000 H   0  0  0  0  0  0  0  0  0  0  0  0
    9.3267    1.3626    0.0000 H   0  0  0  0  0  0  0  0  0  0  0  0
    8.5297    1.3626    0.0000 H   0  0  0  0  0  0  0  0  0  0  0  0
    9.3957   -0.0873    0.0000 H   0  0  0  0  0  0  0  0  0  0  0  0
   10.1928   -0.0873    0.0000 H   0  0  0  0  0  0  0  0  0  0  0  0
   10.4482    2.4703    0.0000 H   0  0  0  0  0  0  0  0  0  0  0  0
   10.0497    1.7800    0.0000 H   0  0  0  0  0  0  0  0  0  0  0  0
   11.9248    2.8626    0.0000 H   0  0  0  0  0  0  0  0  0  0  0  0
   11.1278    2.8626    0.0000 H   0  0  0  0  0  0  0  0  0  0  0  0
   13.2791   -0.2670    0.0000 H   0  0  0  0  0  0  0  0  0  0  0  0
   13.2791    3.0423    0.0000 H   0  0  0  0  0  0  0  0  0  0  0  0
   14.7281    2.2205    0.0000 H   0  0  0  0  0  0  0  0  0  0  0  0
    5.1350    0.6977    0.0000 H   0  0  0  0  0  0  0  0  0  0  0  0
    2.3291   -0.9223    0.0000 H   0  0  0  0  0  0  0  0  0  0  0  0
    3.7320    1.5077    0.0000 H   0  0  0  0  0  0  0  0  0  0  0  0
   15.5945    0.6714    0.0000 H   0  0  0  0  0  0  0  0  0  0  0  0
   15.0540   -0.2565    0.0000 H   0  0  0  0  0  0  0  0  0  0  0  0
    3.1951   -2.4223    0.0000 H   0  0  0  0  0  0  0  0  0  0  0  0
  1 30  1  0  0  0  0
  2 17  2  0  0  0  0
  3 18  2  0  0  0  0
  4 26  1  0  0  0  0
  4 57  1  0  0  0  0
  5  8  1  0  0  0  0
  5  9  1  0  0  0  0
  5 12  1  0  0  0  0
  6 24  1  0  0  0  0
  6 55  1  0  0  0  0
  6 56  1  0  0  0  0
  7 10  1  0  0  0  0
  7 11  1  0  0  0  0
  7 18  1  0  0  0  0
  7 31  1  0  0  0  0
  8 10  1  0  0  0  0
  8 32  1  0  0  0  0
  8 33  1  0  0  0  0
  9 11  1  0  0  0  0
  9 34  1  0  0  0  0
  9 35  1  0  0  0  0
 10 36  1  0  0  0  0
 10 37  1  0  0  0  0
 11 38  1  0  0  0  0
 11 39  1  0  0  0  0
 12 14  1  0  0  0  0
 12 41  1  0  0  0  0
 12 42  1  0  0  0  0
 13 14  1  0  0  0  0
 13 15  1  0  0  0  0
 13 17  1  0  0  0  0
 13 40  1  0  0  0  0
 14 43  1  0  0  0  0
 14 44  1  0  0  0  0
 15 16  1  0  0  0  0
 15 45  1  0  0  0  0
 15 46  1  0  0  0  0
 16 19  1  0  0  0  0
 16 47  1  0  0  0  0
 16 48  1  0  0  0  0
 17 20  1  0  0  0  0
 18 21  1  0  0  0  0
 19 20  2  0  0  0  0
 19 23  1  0  0  0  0
 20 22  1  0  0  0  0
 21 26  2  0  0  0  0
 21 27  1  0  0  0  0
 22 24  2  0  0  0  0
 22 49  1  0  0  0  0
 23 25  2  0  0  0  0
 23 50  1  0  0  0  0
 24 25  1  0  0  0  0
 25 51  1  0  0  0  0
 26 28  1  0  0  0  0
 27 29  2  0  0  0  0
 27 52  1  0  0  0  0
 28 30  2  0  0  0  0
 28 53  1  0  0  0  0
 29 30  1  0  0  0  0
 29 54  1  0  0  0  0
M  END
> <PUBCHEM_COMPOUND_CID>
76335562

> <PUBCHEM_COMPOUND_CANONICALIZED>
1

> <PUBCHEM_CACTVS_COMPLEXITY>
622

> <PUBCHEM_CACTVS_HBOND_ACCEPTOR>
6

> <PUBCHEM_CACTVS_HBOND_DONOR>
2

> <PUBCHEM_CACTVS_ROTATABLE_BOND>
5

> <PUBCHEM_CACTVS_SUBSKEYS>
AAADceB7MQAAAAAAAAAAAAAAAAAAAAAAAAA8YMEAAAAAAADBQAAAHwAQCAAADQzBmAwwxoNAAgCIAqRSQACCAAAkIgAIiAEObMgIJjaClZOEcUBk8BGI2YecyOCOiAAAQAAYAACQAASAADAAAAAAAAAAAA==

> <PUBCHEM_IUPAC_OPENEYE_NAME>
7-amino-2-[2-[4-(4-fluoro-2-hydroxy-benzoyl)-1-piperidyl]ethyl]tetralin-1-one

> <PUBCHEM_IUPAC_CAS_NAME>
7-amino-2-[2-[4-[(4-fluoro-2-hydroxyphenyl)-oxomethyl]-1-piperidinyl]ethyl]-3,4-dihydro-2H-naphthalen-1-one

> <PUBCHEM_IUPAC_NAME_MARKUP>
7-amino-2-[2-[4-(4-fluoro-2-hydroxybenzoyl)piperidin-1-yl]ethyl]-3,4-dihydro-2<I>H</I>-naphthalen-1-one

> <PUBCHEM_IUPAC_NAME>
7-amino-2-[2-[4-(4-fluoro-2-hydroxybenzoyl)piperidin-1-yl]ethyl]-3,4-dihydro-2H-naphthalen-1-one

> <PUBCHEM_IUPAC_SYSTEMATIC_NAME>
7-azanyl-2-[2-[4-(4-fluoranyl-2-oxidanyl-phenyl)carbonylpiperidin-1-yl]ethyl]-3,4-dihydro-2H-naphthalen-1-one

> <PUBCHEM_IUPAC_TRADITIONAL_NAME>
7-amino-2-[2-[4-(4-fluoro-2-hydroxy-benzoyl)piperidino]ethyl]tetralin-1-one

> <PUBCHEM_IUPAC_INCHI>
InChI=1S/C24H27FN2O3/c25-18-4-6-20(22(28)13-18)23(29)17-8-11-27(12-9-17)10-7-16-2-1-15-3-5-19(26)14-21(15)24(16)30/h3-6,13-14,16-17,28H,1-2,7-12,26H2

> <PUBCHEM_IUPAC_INCHIKEY>
QKQVYZVGWKRGIE-UHFFFAOYSA-N

> <PUBCHEM_XLOGP3_AA>
3.9

> <PUBCHEM_EXACT_MASS>
410.20057089

> <PUBCHEM_MOLECULAR_FORMULA>
C24H27FN2O3

> <PUBCHEM_MOLECULAR_WEIGHT>
410.5

> <PUBCHEM_OPENEYE_CAN_SMILES>
C1CC2=C(C=C(C=C2)N)C(=O)C1CCN3CCC(CC3)C(=O)C4=C(C=C(C=C4)F)O

> <PUBCHEM_OPENEYE_ISO_SMILES>
C1CC2=C(C=C(C=C2)N)C(=O)C1CCN3CCC(CC3)C(=O)C4=C(C=C(C=C4)F)O

> <PUBCHEM_CACTVS_TPSA>
83.6

> <PUBCHEM_MONOISOTOPIC_WEIGHT>
410.20057089

> <PUBCHEM_TOTAL_CHARGE>
0

> <PUBCHEM_HEAVY_ATOM_COUNT>
30

> <PUBCHEM_ATOM_DEF_STEREO_COUNT>
0

> <PUBCHEM_ATOM_UDEF_STEREO_COUNT>
1

> <PUBCHEM_BOND_DEF_STEREO_COUNT>
0

> <PUBCHEM_BOND_UDEF_STEREO_COUNT>
0

> <PUBCHEM_ISOTOPIC_ATOM_COUNT>
0

> <PUBCHEM_COMPONENT_COUNT>
1

> <PUBCHEM_CACTVS_TAUTO_COUNT>
-1

> <PUBCHEM_COORDINATE_TYPE>
1
5
255

> <PUBCHEM_BONDANNOTATIONS>
13  14  3
19  20  8
19  23  8
20  22  8
21  26  8
21  27  8
22  24  8
23  25  8
24  25  8
26  28  8
27  29  8
28  30  8
29  30  8

$$$$
