72699528
  -OEChem-09292322382D

 58 61  0     0  0  0  0  0  0999 V2000
    9.1206    4.4214    0.0000 S   0  0  0  0  0  0  0  0  0  0  0  0
    4.6783   -5.2046    0.0000 S   0  0  0  0  0  0  0  0  0  0  0  0
    8.9144    5.3999    0.0000 O   0  0  0  0  0  0  0  0  0  0  0  0
    9.3268    3.4429    0.0000 O   0  0  0  0  0  0  0  0  0  0  0  0
    5.6103   -0.7436    0.0000 N   0  0  0  0  0  0  0  0  0  0  0  0
    8.1421    4.2152    0.0000 N   0  0  0  0  0  0  0  0  0  0  0  0
    4.9889   -2.6447    0.0000 N   0  0  0  0  0  0  0  0  0  0  0  0
    5.2619   -4.3999    0.0000 N   0  0  0  0  0  0  0  0  0  0  0  0
    7.2101    1.3636    0.0000 C   0  0  0  0  0  0  0  0  0  0  0  0
    6.5422    2.1079    0.0000 C   0  0  0  0  0  0  0  0  0  0  0  0
    8.1886    1.5698    0.0000 C   0  0  0  0  0  0  0  0  0  0  0  0
    7.8314    3.2647    0.0000 C   0  0  0  0  0  0  0  0  0  0  0  0
    6.8529    3.0585    0.0000 C   0  0  0  0  0  0  0  0  0  0  0  0
    8.4993    2.5204    0.0000 C   0  0  0  0  0  0  0  0  0  0  0  0
    6.8994    0.4131    0.0000 C   0  0  0  0  0  0  0  0  0  0  0  0
    5.9209    0.2069    0.0000 C   0  0  0  0  0  0  0  0  0  0  0  0
    4.6318   -0.9498    0.0000 C   0  0  0  0  0  0  0  0  0  0  0  0
    6.2781   -1.4879    0.0000 C   0  0  0  0  0  0  0  0  0  0  0  0
    4.3211   -1.9004    0.0000 C   0  0  0  0  0  0  0  0  0  0  0  0
    5.9674   -2.4384    0.0000 C   0  0  0  0  0  0  0  0  0  0  0  0
    4.6783   -3.5952    0.0000 C   0  0  0  0  0  0  0  0  0  0  0  0
   10.0991    4.6276    0.0000 C   0  0  0  0  0  0  0  0  0  0  0  0
    3.7320   -3.8999    0.0000 C   0  0  0  0  0  0  0  0  0  0  0  0
    3.7320   -4.8999    0.0000 C   0  0  0  0  0  0  0  0  0  0  0  0
    2.8660   -3.3999    0.0000 C   0  0  0  0  0  0  0  0  0  0  0  0
    2.8660   -5.3999    0.0000 C   0  0  0  0  0  0  0  0  0  0  0  0
    2.0000   -3.8999    0.0000 C   0  0  0  0  0  0  0  0  0  0  0  0
    2.0000   -4.8999    0.0000 C   0  0  0  0  0  0  0  0  0  0  0  0
    7.6242    0.9022    0.0000 H   0  0  0  0  0  0  0  0  0  0  0  0
    5.9953    2.4000    0.0000 H   0  0  0  0  0  0  0  0  0  0  0  0
    6.1597    1.6200    0.0000 H   0  0  0  0  0  0  0  0  0  0  0  0
    8.2092    0.9502    0.0000 H   0  0  0  0  0  0  0  0  0  0  0  0
    8.8024    1.4825    0.0000 H   0  0  0  0  0  0  0  0  0  0  0  0
    8.4381    3.3925    0.0000 H   0  0  0  0  0  0  0  0  0  0  0  0
    6.8323    3.6781    0.0000 H   0  0  0  0  0  0  0  0  0  0  0  0
    6.2391    3.1458    0.0000 H   0  0  0  0  0  0  0  0  0  0  0  0
    9.0462    2.2284    0.0000 H   0  0  0  0  0  0  0  0  0  0  0  0
    8.8818    3.0083    0.0000 H   0  0  0  0  0  0  0  0  0  0  0  0
    6.9200   -0.2065    0.0000 H   0  0  0  0  0  0  0  0  0  0  0  0
    7.5132    0.3258    0.0000 H   0  0  0  0  0  0  0  0  0  0  0  0
    5.9004    0.8266    0.0000 H   0  0  0  0  0  0  0  0  0  0  0  0
    5.3071    0.2942    0.0000 H   0  0  0  0  0  0  0  0  0  0  0  0
    7.7280    4.6767    0.0000 H   0  0  0  0  0  0  0  0  0  0  0  0
    4.6112   -0.3302    0.0000 H   0  0  0  0  0  0  0  0  0  0  0  0
    4.0179   -0.8625    0.0000 H   0  0  0  0  0  0  0  0  0  0  0  0
    6.8250   -1.7800    0.0000 H   0  0  0  0  0  0  0  0  0  0  0  0
    6.6607   -1.0000    0.0000 H   0  0  0  0  0  0  0  0  0  0  0  0
    3.7742   -1.6084    0.0000 H   0  0  0  0  0  0  0  0  0  0  0  0
    3.9385   -2.3883    0.0000 H   0  0  0  0  0  0  0  0  0  0  0  0
    5.9880   -3.0581    0.0000 H   0  0  0  0  0  0  0  0  0  0  0  0
    6.5812   -2.5258    0.0000 H   0  0  0  0  0  0  0  0  0  0  0  0
   10.2269    4.0210    0.0000 H   0  0  0  0  0  0  0  0  0  0  0  0
   10.7058    4.7555    0.0000 H   0  0  0  0  0  0  0  0  0  0  0  0
    9.9712    5.2343    0.0000 H   0  0  0  0  0  0  0  0  0  0  0  0
    2.8660   -2.7799    0.0000 H   0  0  0  0  0  0  0  0  0  0  0  0
    2.8660   -6.0199    0.0000 H   0  0  0  0  0  0  0  0  0  0  0  0
    1.4631   -3.5899    0.0000 H   0  0  0  0  0  0  0  0  0  0  0  0
    1.4631   -5.2099    0.0000 H   0  0  0  0  0  0  0  0  0  0  0  0
  1  3  2  0  0  0  0
  1  4  2  0  0  0  0
  1  6  1  0  0  0  0
  1 22  1  0  0  0  0
  2  8  1  0  0  0  0
  2 24  1  0  0  0  0
  5 16  1  0  0  0  0
  5 17  1  0  0  0  0
  5 18  1  0  0  0  0
  6 12  1  0  0  0  0
  6 43  1  0  0  0  0
  7 19  1  0  0  0  0
  7 20  1  0  0  0  0
  7 21  1  0  0  0  0
  8 21  2  0  0  0  0
  9 10  1  0  0  0  0
  9 11  1  0  0  0  0
  9 15  1  0  0  0  0
  9 29  1  0  0  0  0
 10 13  1  0  0  0  0
 10 30  1  0  0  0  0
 10 31  1  0  0  0  0
 11 14  1  0  0  0  0
 11 32  1  0  0  0  0
 11 33  1  0  0  0  0
 12 13  1  0  0  0  0
 12 14  1  0  0  0  0
 12 34  1  0  0  0  0
 13 35  1  0  0  0  0
 13 36  1  0  0  0  0
 14 37  1  0  0  0  0
 14 38  1  0  0  0  0
 15 16  1  0  0  0  0
 15 39  1  0  0  0  0
 15 40  1  0  0  0  0
 16 41  1  0  0  0  0
 16 42  1  0  0  0  0
 17 19  1  0  0  0  0
 17 44  1  0  0  0  0
 17 45  1  0  0  0  0
 18 20  1  0  0  0  0
 18 46  1  0  0  0  0
 18 47  1  0  0  0  0
 19 48  1  0  0  0  0
 19 49  1  0  0  0  0
 20 50  1  0  0  0  0
 20 51  1  0  0  0  0
 21 23  1  0  0  0  0
 22 52  1  0  0  0  0
 22 53  1  0  0  0  0
 22 54  1  0  0  0  0
 23 24  1  0  0  0  0
 23 25  2  0  0  0  0
 24 26  2  0  0  0  0
 25 27  1  0  0  0  0
 25 55  1  0  0  0  0
 26 28  1  0  0  0  0
 26 56  1  0  0  0  0
 27 28  2  0  0  0  0
 27 57  1  0  0  0  0
 28 58  1  0  0  0  0
M  END
> <PUBCHEM_COMPOUND_CID>
72699528

> <PUBCHEM_COMPOUND_CANONICALIZED>
1

> <PUBCHEM_CACTVS_COMPLEXITY>
596

> <PUBCHEM_CACTVS_HBOND_ACCEPTOR>
7

> <PUBCHEM_CACTVS_HBOND_DONOR>
1

> <PUBCHEM_CACTVS_ROTATABLE_BOND>
6

> <PUBCHEM_CACTVS_SUBSKEYS>
AAADceB7sABgAAAAAAAAAAAAAAAAAWAAAAA8YIAAAAAAAFgB8AAAHAQQQAAADSjBWgSzsdNAAAKkAiJiYHCDABAhAABJmLgoRJiIYKLAmZGUIAxgkALIyAcQgIAOAAAAAAAEAAAQAAAAAAgAAAAAAAAAAA==

> <PUBCHEM_IUPAC_OPENEYE_NAME>
N-[4-[2-[4-(1,2-benzothiazol-3-yl)piperazin-1-yl]ethyl]cyclohexyl]methanesulfonamide

> <PUBCHEM_IUPAC_CAS_NAME>
N-[4-[2-[4-(1,2-benzothiazol-3-yl)-1-piperazinyl]ethyl]cyclohexyl]methanesulfonamide

> <PUBCHEM_IUPAC_NAME_MARKUP>
<I>N</I>-[4-[2-[4-(1,2-benzothiazol-3-yl)piperazin-1-yl]ethyl]cyclohexyl]methanesulfonamide

> <PUBCHEM_IUPAC_NAME>
N-[4-[2-[4-(1,2-benzothiazol-3-yl)piperazin-1-yl]ethyl]cyclohexyl]methanesulfonamide

> <PUBCHEM_IUPAC_SYSTEMATIC_NAME>
N-[4-[2-[4-(1,2-benzothiazol-3-yl)piperazin-1-yl]ethyl]cyclohexyl]methanesulfonamide

> <PUBCHEM_IUPAC_TRADITIONAL_NAME>
N-[4-[2-[4-(1,2-benzothiazol-3-yl)piperazino]ethyl]cyclohexyl]methanesulfonamide

> <PUBCHEM_IUPAC_INCHI>
InChI=1S/C20H30N4O2S2/c1-28(25,26)22-17-8-6-16(7-9-17)10-11-23-12-14-24(15-13-23)20-18-4-2-3-5-19(18)27-21-20/h2-5,16-17,22H,6-15H2,1H3

> <PUBCHEM_IUPAC_INCHIKEY>
PNDDOSJAKNIYIV-UHFFFAOYSA-N

> <PUBCHEM_XLOGP3_AA>
3.6

> <PUBCHEM_EXACT_MASS>
422.18101856

> <PUBCHEM_MOLECULAR_FORMULA>
C20H30N4O2S2

> <PUBCHEM_MOLECULAR_WEIGHT>
422.6

> <PUBCHEM_OPENEYE_CAN_SMILES>
CS(=O)(=O)NC1CCC(CC1)CCN2CCN(CC2)C3=NSC4=CC=CC=C43

> <PUBCHEM_OPENEYE_ISO_SMILES>
CS(=O)(=O)NC1CCC(CC1)CCN2CCN(CC2)C3=NSC4=CC=CC=C43

> <PUBCHEM_CACTVS_TPSA>
102

> <PUBCHEM_MONOISOTOPIC_WEIGHT>
422.18101856

> <PUBCHEM_TOTAL_CHARGE>
0

> <PUBCHEM_HEAVY_ATOM_COUNT>
28

> <PUBCHEM_ATOM_DEF_STEREO_COUNT>
0

> <PUBCHEM_ATOM_UDEF_STEREO_COUNT>
0

> <PUBCHEM_BOND_DEF_STEREO_COUNT>
0

> <PUBCHEM_BOND_UDEF_STEREO_COUNT>
0

> <PUBCHEM_ISOTOPIC_ATOM_COUNT>
0

> <PUBCHEM_COMPONENT_COUNT>
1

> <PUBCHEM_CACTVS_TAUTO_COUNT>
-1

> <PUBCHEM_COORDINATE_TYPE>
1
5
255

> <PUBCHEM_BONDANNOTATIONS>
2  24  8
2  8  8
21  23  8
23  24  8
23  25  8
24  26  8
25  27  8
26  28  8
27  28  8
8  21  8

$$$$
