24901351
  -OEChem-09292322042D

 66 69  0     1  0  0  0  0  0999 V2000
   12.4725   -4.2903    0.0000 S   0  0  0  0  0  0  0  0  0  0  0  0
   11.5263   -2.5950    0.0000 O   0  0  0  0  0  0  0  0  0  0  0  0
   10.6603   -7.0950    0.0000 O   0  0  0  0  0  0  0  0  0  0  0  0
    4.5981    6.4050    0.0000 O   0  0  0  0  0  0  0  0  0  0  0  0
   14.0561   -5.0950    0.0000 O   0  0  0  0  0  0  0  0  0  0  0  0
    9.7942   -1.5950    0.0000 N   0  0  0  0  0  0  0  0  0  0  0  0
    5.4641    2.9050    0.0000 N   0  0  0  0  0  0  0  0  0  0  0  0
   12.4725   -5.8997    0.0000 N   0  0  0  0  0  0  0  0  0  0  0  0
   10.6603   -3.0950    0.0000 C   0  0  1  0  0  0  0  0  0  0  0  0
    9.7942   -2.5950    0.0000 C   0  0  0  0  0  0  0  0  0  0  0  0
   10.6603   -4.0950    0.0000 C   0  0  0  0  0  0  0  0  0  0  0  0
    8.9282   -1.0950    0.0000 C   0  0  0  0  0  0  0  0  0  0  0  0
    8.9282   -0.0950    0.0000 C   0  0  0  0  0  0  0  0  0  0  0  0
   11.5263   -4.5950    0.0000 C   0  0  0  0  0  0  0  0  0  0  0  0
    8.0622    0.4050    0.0000 C   0  0  0  0  0  0  0  0  0  0  0  0
   11.5263   -5.5950    0.0000 C   0  0  0  0  0  0  0  0  0  0  0  0
    9.7942   -4.5950    0.0000 C   0  0  0  0  0  0  0  0  0  0  0  0
    6.3301    1.4050    0.0000 C   0  0  0  0  0  0  0  0  0  0  0  0
    5.4641    1.9050    0.0000 C   0  0  0  0  0  0  0  0  0  0  0  0
    4.5981    3.4050    0.0000 C   0  0  0  0  0  0  0  0  0  0  0  0
    7.1962   -0.0950    0.0000 C   0  0  0  0  0  0  0  0  0  0  0  0
    8.0622    1.4050    0.0000 C   0  0  0  0  0  0  0  0  0  0  0  0
   10.6603   -6.0950    0.0000 C   0  0  0  0  0  0  0  0  0  0  0  0
    4.5981    4.4050    0.0000 C   0  0  0  0  0  0  0  0  0  0  0  0
    6.3301    0.4050    0.0000 C   0  0  0  0  0  0  0  0  0  0  0  0
    7.1962    1.9050    0.0000 C   0  0  0  0  0  0  0  0  0  0  0  0
    9.7942   -5.5950    0.0000 C   0  0  0  0  0  0  0  0  0  0  0  0
    3.7320    4.9050    0.0000 C   0  0  0  0  0  0  0  0  0  0  0  0
   13.0561   -5.0950    0.0000 C   0  0  0  0  0  0  0  0  0  0  0  0
    3.7320    5.9050    0.0000 C   0  0  0  0  0  0  0  0  0  0  0  0
    2.8660    4.4050    0.0000 C   0  0  0  0  0  0  0  0  0  0  0  0
    2.8660    6.4050    0.0000 C   0  0  0  0  0  0  0  0  0  0  0  0
    2.0000    4.9050    0.0000 C   0  0  0  0  0  0  0  0  0  0  0  0
    2.0000    5.9050    0.0000 C   0  0  0  0  0  0  0  0  0  0  0  0
    4.5981    7.4050    0.0000 C   0  0  0  0  0  0  0  0  0  0  0  0
   11.1972   -3.4050    0.0000 H   0  0  0  0  0  0  0  0  0  0  0  0
    9.1836   -2.4873    0.0000 H   0  0  0  0  0  0  0  0  0  0  0  0
    9.5822   -3.1776    0.0000 H   0  0  0  0  0  0  0  0  0  0  0  0
    8.3176   -0.9873    0.0000 H   0  0  0  0  0  0  0  0  0  0  0  0
    8.7162   -1.6776    0.0000 H   0  0  0  0  0  0  0  0  0  0  0  0
    9.5388   -0.2027    0.0000 H   0  0  0  0  0  0  0  0  0  0  0  0
    9.1403    0.4876    0.0000 H   0  0  0  0  0  0  0  0  0  0  0  0
   10.3312   -1.2850    0.0000 H   0  0  0  0  0  0  0  0  0  0  0  0
    9.2573   -4.2850    0.0000 H   0  0  0  0  0  0  0  0  0  0  0  0
    4.8535    2.0127    0.0000 H   0  0  0  0  0  0  0  0  0  0  0  0
    5.2520    1.3224    0.0000 H   0  0  0  0  0  0  0  0  0  0  0  0
    3.9875    3.5127    0.0000 H   0  0  0  0  0  0  0  0  0  0  0  0
    4.3860    2.8224    0.0000 H   0  0  0  0  0  0  0  0  0  0  0  0
    7.1962   -0.7150    0.0000 H   0  0  0  0  0  0  0  0  0  0  0  0
    8.5991    1.7150    0.0000 H   0  0  0  0  0  0  0  0  0  0  0  0
    5.2087    4.2973    0.0000 H   0  0  0  0  0  0  0  0  0  0  0  0
    4.8101    4.9876    0.0000 H   0  0  0  0  0  0  0  0  0  0  0  0
    5.7932    0.0950    0.0000 H   0  0  0  0  0  0  0  0  0  0  0  0
    7.1962    2.5250    0.0000 H   0  0  0  0  0  0  0  0  0  0  0  0
    6.0010    3.2150    0.0000 H   0  0  0  0  0  0  0  0  0  0  0  0
    9.2573   -5.9050    0.0000 H   0  0  0  0  0  0  0  0  0  0  0  0
   12.6651   -6.4891    0.0000 H   0  0  0  0  0  0  0  0  0  0  0  0
   11.5263   -1.9750    0.0000 H   0  0  0  0  0  0  0  0  0  0  0  0
    2.8660    3.7850    0.0000 H   0  0  0  0  0  0  0  0  0  0  0  0
   10.1233   -7.4050    0.0000 H   0  0  0  0  0  0  0  0  0  0  0  0
    2.8660    7.0250    0.0000 H   0  0  0  0  0  0  0  0  0  0  0  0
    1.4631    4.5950    0.0000 H   0  0  0  0  0  0  0  0  0  0  0  0
    1.4631    6.2150    0.0000 H   0  0  0  0  0  0  0  0  0  0  0  0
    5.2181    7.4050    0.0000 H   0  0  0  0  0  0  0  0  0  0  0  0
    4.5981    8.0250    0.0000 H   0  0  0  0  0  0  0  0  0  0  0  0
    3.9781    7.4050    0.0000 H   0  0  0  0  0  0  0  0  0  0  0  0
  1 14  1  0  0  0  0
  1 29  1  0  0  0  0
  9  2  1  6  0  0  0
  2 58  1  0  0  0  0
  3 23  1  0  0  0  0
  3 60  1  0  0  0  0
  4 30  1  0  0  0  0
  4 35  1  0  0  0  0
  5 29  2  0  0  0  0
  6 10  1  0  0  0  0
  6 12  1  0  0  0  0
  6 43  1  0  0  0  0
  7 19  1  0  0  0  0
  7 20  1  0  0  0  0
  7 55  1  0  0  0  0
  8 16  1  0  0  0  0
  8 29  1  0  0  0  0
  8 57  1  0  0  0  0
  9 10  1  0  0  0  0
  9 11  1  0  0  0  0
  9 36  1  0  0  0  0
 10 37  1  0  0  0  0
 10 38  1  0  0  0  0
 11 14  2  0  0  0  0
 11 17  1  0  0  0  0
 12 13  1  0  0  0  0
 12 39  1  0  0  0  0
 12 40  1  0  0  0  0
 13 15  1  0  0  0  0
 13 41  1  0  0  0  0
 13 42  1  0  0  0  0
 14 16  1  0  0  0  0
 15 21  2  0  0  0  0
 15 22  1  0  0  0  0
 16 23  2  0  0  0  0
 17 27  2  0  0  0  0
 17 44  1  0  0  0  0
 18 19  1  0  0  0  0
 18 25  2  0  0  0  0
 18 26  1  0  0  0  0
 19 45  1  0  0  0  0
 19 46  1  0  0  0  0
 20 24  1  0  0  0  0
 20 47  1  0  0  0  0
 20 48  1  0  0  0  0
 21 25  1  0  0  0  0
 21 49  1  0  0  0  0
 22 26  2  0  0  0  0
 22 50  1  0  0  0  0
 23 27  1  0  0  0  0
 24 28  1  0  0  0  0
 24 51  1  0  0  0  0
 24 52  1  0  0  0  0
 25 53  1  0  0  0  0
 26 54  1  0  0  0  0
 27 56  1  0  0  0  0
 28 30  1  0  0  0  0
 28 31  2  0  0  0  0
 30 32  2  0  0  0  0
 31 33  1  0  0  0  0
 31 59  1  0  0  0  0
 32 34  1  0  0  0  0
 32 61  1  0  0  0  0
 33 34  2  0  0  0  0
 33 62  1  0  0  0  0
 34 63  1  0  0  0  0
 35 64  1  0  0  0  0
 35 65  1  0  0  0  0
 35 66  1  0  0  0  0
M  END
> <PUBCHEM_COMPOUND_CID>
24901351

> <PUBCHEM_COMPOUND_CANONICALIZED>
1

> <PUBCHEM_CACTVS_COMPLEXITY>
648

> <PUBCHEM_CACTVS_HBOND_ACCEPTOR>
7

> <PUBCHEM_CACTVS_HBOND_DONOR>
5

> <PUBCHEM_CACTVS_ROTATABLE_BOND>
12

> <PUBCHEM_CACTVS_SUBSKEYS>
AAADceB7OABAAAAAAAAAAAAAAAAAAWAAAAAwYMAAAAAAAFgBUAAAHgQQCAAADBzh2AYyx4LABgiIAiRCUACCCABhKBAIiJQPTIgONiL2sZuEcChk1BHY+Aew4OQOYAAARAAMEQDAAACIABgiAAAAAAAAAA==

> <PUBCHEM_IUPAC_OPENEYE_NAME>
4-hydroxy-7-[(1R)-1-hydroxy-2-[2-[4-[[2-(2-methoxyphenyl)ethylamino]methyl]phenyl]ethylamino]ethyl]-3H-1,3-benzothiazol-2-one

> <PUBCHEM_IUPAC_CAS_NAME>
4-hydroxy-7-[(1R)-1-hydroxy-2-[2-[4-[[2-(2-methoxyphenyl)ethylamino]methyl]phenyl]ethylamino]ethyl]-3H-1,3-benzothiazol-2-one

> <PUBCHEM_IUPAC_NAME_MARKUP>
4-hydroxy-7-[(1<I>R</I>)-1-hydroxy-2-[2-[4-[[2-(2-methoxyphenyl)ethylamino]methyl]phenyl]ethylamino]ethyl]-3<I>H</I>-1,3-benzothiazol-2-one

> <PUBCHEM_IUPAC_NAME>
4-hydroxy-7-[(1R)-1-hydroxy-2-[2-[4-[[2-(2-methoxyphenyl)ethylamino]methyl]phenyl]ethylamino]ethyl]-3H-1,3-benzothiazol-2-one

> <PUBCHEM_IUPAC_SYSTEMATIC_NAME>
7-[(1R)-2-[2-[4-[[2-(2-methoxyphenyl)ethylamino]methyl]phenyl]ethylamino]-1-oxidanyl-ethyl]-4-oxidanyl-3H-1,3-benzothiazol-2-one

> <PUBCHEM_IUPAC_TRADITIONAL_NAME>
4-hydroxy-7-[(1R)-1-hydroxy-2-[2-[4-[[2-(2-methoxyphenyl)ethylamino]methyl]phenyl]ethylamino]ethyl]-3H-1,3-benzothiazol-2-one

> <PUBCHEM_IUPAC_INCHI>
InChI=1S/C27H31N3O4S/c1-34-24-5-3-2-4-20(24)13-15-28-16-19-8-6-18(7-9-19)12-14-29-17-23(32)21-10-11-22(31)25-26(21)35-27(33)30-25/h2-11,23,28-29,31-32H,12-17H2,1H3,(H,30,33)/t23-/m0/s1

> <PUBCHEM_IUPAC_INCHIKEY>
YOCAICFOALLBEO-QHCPKHFHSA-N

> <PUBCHEM_XLOGP3_AA>
3.3

> <PUBCHEM_EXACT_MASS>
493.20352765

> <PUBCHEM_MOLECULAR_FORMULA>
C27H31N3O4S

> <PUBCHEM_MOLECULAR_WEIGHT>
493.6

> <PUBCHEM_OPENEYE_CAN_SMILES>
COC1=CC=CC=C1CCNCC2=CC=C(C=C2)CCNCC(C3=C4C(=C(C=C3)O)NC(=O)S4)O

> <PUBCHEM_OPENEYE_ISO_SMILES>
COC1=CC=CC=C1CCNCC2=CC=C(C=C2)CCNC[C@@H](C3=C4C(=C(C=C3)O)NC(=O)S4)O

> <PUBCHEM_CACTVS_TPSA>
128

> <PUBCHEM_MONOISOTOPIC_WEIGHT>
493.20352765

> <PUBCHEM_TOTAL_CHARGE>
0

> <PUBCHEM_HEAVY_ATOM_COUNT>
35

> <PUBCHEM_ATOM_DEF_STEREO_COUNT>
1

> <PUBCHEM_ATOM_UDEF_STEREO_COUNT>
0

> <PUBCHEM_BOND_DEF_STEREO_COUNT>
0

> <PUBCHEM_BOND_UDEF_STEREO_COUNT>
0

> <PUBCHEM_ISOTOPIC_ATOM_COUNT>
0

> <PUBCHEM_COMPONENT_COUNT>
1

> <PUBCHEM_CACTVS_TAUTO_COUNT>
-1

> <PUBCHEM_COORDINATE_TYPE>
1
5
255

> <PUBCHEM_BONDANNOTATIONS>
1  14  8
1  29  8
11  14  8
11  17  8
14  16  8
15  21  8
15  22  8
16  23  8
17  27  8
18  25  8
18  26  8
9  2  6
21  25  8
22  26  8
23  27  8
28  30  8
28  31  8
30  32  8
31  33  8
32  34  8
33  34  8
8  16  8
8  29  8

$$$$
