10617946
  -OEChem-09292322132D

 47 50  0     1  0  0  0  0  0999 V2000
    2.0000    1.7136    0.0000 Cl  0  0  0  0  0  0  0  0  0  0  0  0
    9.2928   -0.2047    0.0000 N   0  0  3  0  0  0  0  0  0  0  0  0
    7.4562    2.7898    0.0000 N   0  0  0  0  0  0  0  0  0  0  0  0
    6.4781    2.9977    0.0000 N   0  0  0  0  0  0  0  0  0  0  0  0
    8.4268    1.2953    0.0000 C   0  0  3  0  0  0  0  0  0  0  0  0
    9.2928    1.7953    0.0000 C   0  0  0  0  0  0  0  0  0  0  0  0
    8.4268    0.2953    0.0000 C   0  0  0  0  0  0  0  0  0  0  0  0
   10.1588    1.2953    0.0000 C   0  0  0  0  0  0  0  0  0  0  0  0
   10.1588    0.2953    0.0000 C   0  0  0  0  0  0  0  0  0  0  0  0
    7.5608    1.7953    0.0000 C   0  0  0  0  0  0  0  0  0  0  0  0
    9.2928   -1.2047    0.0000 C   0  0  0  0  0  0  0  0  0  0  0  0
    6.6472    1.3886    0.0000 C   0  0  0  0  0  0  0  0  0  0  0  0
   10.1588   -1.7047    0.0000 C   0  0  0  0  0  0  0  0  0  0  0  0
    5.9781    2.1317    0.0000 C   0  0  0  0  0  0  0  0  0  0  0  0
   10.1588   -2.7047    0.0000 C   0  0  0  0  0  0  0  0  0  0  0  0
   11.0249   -1.2047    0.0000 C   0  0  0  0  0  0  0  0  0  0  0  0
    4.9836    2.0272    0.0000 C   0  0  0  0  0  0  0  0  0  0  0  0
   11.0249   -3.2047    0.0000 C   0  0  0  0  0  0  0  0  0  0  0  0
   11.8909   -1.7047    0.0000 C   0  0  0  0  0  0  0  0  0  0  0  0
    4.5768    1.1136    0.0000 C   0  0  0  0  0  0  0  0  0  0  0  0
    4.3958    2.8362    0.0000 C   0  0  0  0  0  0  0  0  0  0  0  0
   11.8909   -2.7047    0.0000 C   0  0  0  0  0  0  0  0  0  0  0  0
    3.5823    1.0091    0.0000 C   0  0  0  0  0  0  0  0  0  0  0  0
    3.4013    2.7317    0.0000 C   0  0  0  0  0  0  0  0  0  0  0  0
    2.9945    1.8181    0.0000 C   0  0  0  0  0  0  0  0  0  0  0  0
    7.8898    0.9853    0.0000 H   0  0  0  0  0  0  0  0  0  0  0  0
    9.6913    2.2703    0.0000 H   0  0  0  0  0  0  0  0  0  0  0  0
    8.8943    2.2703    0.0000 H   0  0  0  0  0  0  0  0  0  0  0  0
    7.8162    0.4030    0.0000 H   0  0  0  0  0  0  0  0  0  0  0  0
    8.2147   -0.2873    0.0000 H   0  0  0  0  0  0  0  0  0  0  0  0
   10.7694    1.1877    0.0000 H   0  0  0  0  0  0  0  0  0  0  0  0
   10.3709    1.8779    0.0000 H   0  0  0  0  0  0  0  0  0  0  0  0
   10.3709   -0.2873    0.0000 H   0  0  0  0  0  0  0  0  0  0  0  0
   10.7694    0.4030    0.0000 H   0  0  0  0  0  0  0  0  0  0  0  0
    8.6822   -1.0970    0.0000 H   0  0  0  0  0  0  0  0  0  0  0  0
    9.0808   -1.7873    0.0000 H   0  0  0  0  0  0  0  0  0  0  0  0
    6.5183    0.7821    0.0000 H   0  0  0  0  0  0  0  0  0  0  0  0
    7.9170    3.2047    0.0000 H   0  0  0  0  0  0  0  0  0  0  0  0
    9.6219   -3.0147    0.0000 H   0  0  0  0  0  0  0  0  0  0  0  0
   11.0249   -0.5847    0.0000 H   0  0  0  0  0  0  0  0  0  0  0  0
   11.0249   -3.8247    0.0000 H   0  0  0  0  0  0  0  0  0  0  0  0
   12.4278   -1.3947    0.0000 H   0  0  0  0  0  0  0  0  0  0  0  0
    4.9413    0.6121    0.0000 H   0  0  0  0  0  0  0  0  0  0  0  0
    4.6480    3.4026    0.0000 H   0  0  0  0  0  0  0  0  0  0  0  0
   12.4278   -3.0147    0.0000 H   0  0  0  0  0  0  0  0  0  0  0  0
    3.3301    0.4427    0.0000 H   0  0  0  0  0  0  0  0  0  0  0  0
    3.0368    3.2333    0.0000 H   0  0  0  0  0  0  0  0  0  0  0  0
  1 25  1  0  0  0  0
  2  7  1  0  0  0  0
  2  9  1  0  0  0  0
  2 11  1  0  0  0  0
  3  4  1  0  0  0  0
  3 10  1  0  0  0  0
  3 38  1  0  0  0  0
  4 14  2  0  0  0  0
  5  6  1  0  0  0  0
  5  7  1  0  0  0  0
  5 10  1  0  0  0  0
  5 26  1  0  0  0  0
  6  8  1  0  0  0  0
  6 27  1  0  0  0  0
  6 28  1  0  0  0  0
  7 29  1  0  0  0  0
  7 30  1  0  0  0  0
  8  9  1  0  0  0  0
  8 31  1  0  0  0  0
  8 32  1  0  0  0  0
  9 33  1  0  0  0  0
  9 34  1  0  0  0  0
 10 12  2  0  0  0  0
 11 13  1  0  0  0  0
 11 35  1  0  0  0  0
 11 36  1  0  0  0  0
 12 14  1  0  0  0  0
 12 37  1  0  0  0  0
 13 15  2  0  0  0  0
 13 16  1  0  0  0  0
 14 17  1  0  0  0  0
 15 18  1  0  0  0  0
 15 39  1  0  0  0  0
 16 19  2  0  0  0  0
 16 40  1  0  0  0  0
 17 20  2  0  0  0  0
 17 21  1  0  0  0  0
 18 22  2  0  0  0  0
 18 41  1  0  0  0  0
 19 22  1  0  0  0  0
 19 42  1  0  0  0  0
 20 23  1  0  0  0  0
 20 43  1  0  0  0  0
 21 24  2  0  0  0  0
 21 44  1  0  0  0  0
 22 45  1  0  0  0  0
 23 25  2  0  0  0  0
 23 46  1  0  0  0  0
 24 25  1  0  0  0  0
 24 47  1  0  0  0  0
M  END
> <PUBCHEM_COMPOUND_CID>
10617946

> <PUBCHEM_COMPOUND_CANONICALIZED>
1

> <PUBCHEM_CACTVS_COMPLEXITY>
404

> <PUBCHEM_CACTVS_HBOND_ACCEPTOR>
2

> <PUBCHEM_CACTVS_HBOND_DONOR>
1

> <PUBCHEM_CACTVS_ROTATABLE_BOND>
4

> <PUBCHEM_CACTVS_SUBSKEYS>
AAADceB7AAAEAAAAAAAAAAAAAAAAAWAAAAA8YIAAAAAAAAAB0AAAHAIYAAAADQrBHiQwgJNjAACiAyRiQACSBAAgBwAYuSA4ZpgIIKKB09GEpAhgmACIyAcQgMAOBAAAAAAAAAAIAAAAAAAAAAAAAAAAAA==

> <PUBCHEM_IUPAC_OPENEYE_NAME>
1-benzyl-3-[3-(4-chlorophenyl)-1H-pyrazol-5-yl]piperidine

> <PUBCHEM_IUPAC_CAS_NAME>
3-[3-(4-chlorophenyl)-1H-pyrazol-5-yl]-1-(phenylmethyl)piperidine

> <PUBCHEM_IUPAC_NAME_MARKUP>
1-benzyl-3-[3-(4-chlorophenyl)-1<I>H</I>-pyrazol-5-yl]piperidine

> <PUBCHEM_IUPAC_NAME>
1-benzyl-3-[3-(4-chlorophenyl)-1H-pyrazol-5-yl]piperidine

> <PUBCHEM_IUPAC_SYSTEMATIC_NAME>
3-[3-(4-chlorophenyl)-1H-pyrazol-5-yl]-1-(phenylmethyl)piperidine

> <PUBCHEM_IUPAC_TRADITIONAL_NAME>
1-benzyl-3-[3-(4-chlorophenyl)-1H-pyrazol-5-yl]piperidine

> <PUBCHEM_IUPAC_INCHI>
InChI=1S/C21H22ClN3/c22-19-10-8-17(9-11-19)20-13-21(24-23-20)18-7-4-12-25(15-18)14-16-5-2-1-3-6-16/h1-3,5-6,8-11,13,18H,4,7,12,14-15H2,(H,23,24)

> <PUBCHEM_IUPAC_INCHIKEY>
RKWDQZZKDQAENU-UHFFFAOYSA-N

> <PUBCHEM_XLOGP3_AA>
4.6

> <PUBCHEM_EXACT_MASS>
351.1502254

> <PUBCHEM_MOLECULAR_FORMULA>
C21H22ClN3

> <PUBCHEM_MOLECULAR_WEIGHT>
351.9

> <PUBCHEM_OPENEYE_CAN_SMILES>
C1CC(CN(C1)CC2=CC=CC=C2)C3=CC(=NN3)C4=CC=C(C=C4)Cl

> <PUBCHEM_OPENEYE_ISO_SMILES>
C1CC(CN(C1)CC2=CC=CC=C2)C3=CC(=NN3)C4=CC=C(C=C4)Cl

> <PUBCHEM_CACTVS_TPSA>
31.9

> <PUBCHEM_MONOISOTOPIC_WEIGHT>
351.1502254

> <PUBCHEM_TOTAL_CHARGE>
0

> <PUBCHEM_HEAVY_ATOM_COUNT>
25

> <PUBCHEM_ATOM_DEF_STEREO_COUNT>
0

> <PUBCHEM_ATOM_UDEF_STEREO_COUNT>
1

> <PUBCHEM_BOND_DEF_STEREO_COUNT>
0

> <PUBCHEM_BOND_UDEF_STEREO_COUNT>
0

> <PUBCHEM_ISOTOPIC_ATOM_COUNT>
0

> <PUBCHEM_COMPONENT_COUNT>
1

> <PUBCHEM_CACTVS_TAUTO_COUNT>
-1

> <PUBCHEM_COORDINATE_TYPE>
1
5
255

> <PUBCHEM_BONDANNOTATIONS>
10  12  8
12  14  8
13  15  8
13  16  8
15  18  8
16  19  8
17  20  8
17  21  8
18  22  8
19  22  8
20  23  8
21  24  8
23  25  8
24  25  8
3  10  8
3  4  8
4  14  8
5  10  3

$$$$
