155551128
  -OEChem-09292322082D

 61 65  0     1  0  0  0  0  0999 V2000
   13.3224    0.6153    0.0000 O   0  0  0  0  0  0  0  0  0  0  0  0
    7.2602    1.1153    0.0000 N   0  0  3  0  0  0  0  0  0  0  0  0
   12.4564   -0.8847    0.0000 N   0  0  0  0  0  0  0  0  0  0  0  0
   15.2633   -2.0827    0.0000 N   0  0  0  0  0  0  0  0  0  0  0  0
   16.3854    0.6771    0.0000 N   0  0  0  0  0  0  0  0  0  0  0  0
    2.0000    0.0878    0.0000 N   0  0  0  0  0  0  0  0  0  0  0  0
    9.8583    0.6153    0.0000 C   0  0  0  0  0  0  0  0  0  0  0  0
    9.8583   -0.3847    0.0000 C   0  0  0  0  0  0  0  0  0  0  0  0
   10.7243    1.1153    0.0000 C   0  0  0  0  0  0  0  0  0  0  0  0
   11.5904   -0.3847    0.0000 C   0  0  0  0  0  0  0  0  0  0  0  0
   10.7243   -0.8847    0.0000 C   0  0  0  0  0  0  0  0  0  0  0  0
   11.5904    0.6153    0.0000 C   0  0  0  0  0  0  0  0  0  0  0  0
    8.9923    1.1153    0.0000 C   0  0  0  0  0  0  0  0  0  0  0  0
    8.1263    0.6153    0.0000 C   0  0  0  0  0  0  0  0  0  0  0  0
    7.2602    2.1153    0.0000 C   0  0  0  0  0  0  0  0  0  0  0  0
    6.3942    0.6153    0.0000 C   0  0  0  0  0  0  0  0  0  0  0  0
    6.3942    2.6153    0.0000 C   0  0  0  0  0  0  0  0  0  0  0  0
    5.5282    1.1153    0.0000 C   0  0  0  0  0  0  0  0  0  0  0  0
    5.5282    2.1153    0.0000 C   0  0  0  0  0  0  0  0  0  0  0  0
   13.3224   -0.3847    0.0000 C   0  0  0  0  0  0  0  0  0  0  0  0
    4.6342    0.5806    0.0000 C   0  0  0  0  0  0  0  0  0  0  0  0
    4.6342    2.6499    0.0000 C   0  0  0  0  0  0  0  0  0  0  0  0
   14.1884   -0.8847    0.0000 C   0  0  0  0  0  0  0  0  0  0  0  0
    3.7282    1.0944    0.0000 C   0  0  0  0  0  0  0  0  0  0  0  0
    3.7282    2.1361    0.0000 C   0  0  0  0  0  0  0  0  0  0  0  0
   15.0962   -0.4796    0.0000 C   0  0  0  0  0  0  0  0  0  0  0  0
   14.2915   -1.8735    0.0000 C   0  0  0  0  0  0  0  0  0  0  0  0
   15.7641   -1.2239    0.0000 C   0  0  0  0  0  0  0  0  0  0  0  0
   15.4069    0.4709    0.0000 C   0  0  0  0  0  0  0  0  0  0  0  0
    2.8641    0.5911    0.0000 C   0  0  0  0  0  0  0  0  0  0  0  0
   16.7426   -1.0177    0.0000 C   0  0  0  0  0  0  0  0  0  0  0  0
   17.0532   -0.0672    0.0000 C   0  0  0  0  0  0  0  0  0  0  0  0
    9.3214    0.3053    0.0000 H   0  0  0  0  0  0  0  0  0  0  0  0
    9.2477   -0.2771    0.0000 H   0  0  0  0  0  0  0  0  0  0  0  0
    9.6463   -0.9673    0.0000 H   0  0  0  0  0  0  0  0  0  0  0  0
   11.1229    1.5902    0.0000 H   0  0  0  0  0  0  0  0  0  0  0  0
   10.3258    1.5902    0.0000 H   0  0  0  0  0  0  0  0  0  0  0  0
   12.1273   -0.0747    0.0000 H   0  0  0  0  0  0  0  0  0  0  0  0
   10.3258   -1.3597    0.0000 H   0  0  0  0  0  0  0  0  0  0  0  0
   11.1229   -1.3597    0.0000 H   0  0  0  0  0  0  0  0  0  0  0  0
   12.2010    0.5076    0.0000 H   0  0  0  0  0  0  0  0  0  0  0  0
   11.8024    1.1979    0.0000 H   0  0  0  0  0  0  0  0  0  0  0  0
    9.3908    1.5902    0.0000 H   0  0  0  0  0  0  0  0  0  0  0  0
    8.5938    1.5902    0.0000 H   0  0  0  0  0  0  0  0  0  0  0  0
    7.7277    0.1403    0.0000 H   0  0  0  0  0  0  0  0  0  0  0  0
    8.5248    0.1403    0.0000 H   0  0  0  0  0  0  0  0  0  0  0  0
   12.4564   -1.5047    0.0000 H   0  0  0  0  0  0  0  0  0  0  0  0
    7.8708    2.0076    0.0000 H   0  0  0  0  0  0  0  0  0  0  0  0
    7.4723    2.6979    0.0000 H   0  0  0  0  0  0  0  0  0  0  0  0
    5.9957    0.1403    0.0000 H   0  0  0  0  0  0  0  0  0  0  0  0
    6.7928    0.1403    0.0000 H   0  0  0  0  0  0  0  0  0  0  0  0
    6.7928    3.0902    0.0000 H   0  0  0  0  0  0  0  0  0  0  0  0
    5.9957    3.0902    0.0000 H   0  0  0  0  0  0  0  0  0  0  0  0
    4.6414   -0.0394    0.0000 H   0  0  0  0  0  0  0  0  0  0  0  0
    4.6414    3.2699    0.0000 H   0  0  0  0  0  0  0  0  0  0  0  0
    3.1924    2.4482    0.0000 H   0  0  0  0  0  0  0  0  0  0  0  0
   13.8300   -2.2875    0.0000 H   0  0  0  0  0  0  0  0  0  0  0  0
   15.5135   -2.6499    0.0000 H   0  0  0  0  0  0  0  0  0  0  0  0
   14.9928    0.9324    0.0000 H   0  0  0  0  0  0  0  0  0  0  0  0
   17.1566   -1.4792    0.0000 H   0  0  0  0  0  0  0  0  0  0  0  0
   17.6599    0.0607    0.0000 H   0  0  0  0  0  0  0  0  0  0  0  0
  1 20  2  0  0  0  0
  2 14  1  0  0  0  0
  2 15  1  0  0  0  0
  2 16  1  0  0  0  0
  3 10  1  0  0  0  0
  3 20  1  0  0  0  0
  3 47  1  0  0  0  0
  4 27  1  0  0  0  0
  4 28  1  0  0  0  0
  4 58  1  0  0  0  0
  5 29  2  0  0  0  0
  5 32  1  0  0  0  0
  6 30  3  0  0  0  0
  7  8  1  0  0  0  0
  7  9  1  0  0  0  0
  7 13  1  0  0  0  0
  7 33  1  0  0  0  0
  8 11  1  0  0  0  0
  8 34  1  0  0  0  0
  8 35  1  0  0  0  0
  9 12  1  0  0  0  0
  9 36  1  0  0  0  0
  9 37  1  0  0  0  0
 10 11  1  0  0  0  0
 10 12  1  0  0  0  0
 10 38  1  0  0  0  0
 11 39  1  0  0  0  0
 11 40  1  0  0  0  0
 12 41  1  0  0  0  0
 12 42  1  0  0  0  0
 13 14  1  0  0  0  0
 13 43  1  0  0  0  0
 13 44  1  0  0  0  0
 14 45  1  0  0  0  0
 14 46  1  0  0  0  0
 15 17  1  0  0  0  0
 15 48  1  0  0  0  0
 15 49  1  0  0  0  0
 16 18  1  0  0  0  0
 16 50  1  0  0  0  0
 16 51  1  0  0  0  0
 17 19  1  0  0  0  0
 17 52  1  0  0  0  0
 17 53  1  0  0  0  0
 18 19  2  0  0  0  0
 18 21  1  0  0  0  0
 19 22  1  0  0  0  0
 20 23  1  0  0  0  0
 21 24  2  0  0  0  0
 21 54  1  0  0  0  0
 22 25  2  0  0  0  0
 22 55  1  0  0  0  0
 23 26  1  0  0  0  0
 23 27  2  0  0  0  0
 24 25  1  0  0  0  0
 24 30  1  0  0  0  0
 25 56  1  0  0  0  0
 26 28  2  0  0  0  0
 26 29  1  0  0  0  0
 27 57  1  0  0  0  0
 28 31  1  0  0  0  0
 29 59  1  0  0  0  0
 31 32  2  0  0  0  0
 31 60  1  0  0  0  0
 32 61  1  0  0  0  0
M  END
> <PUBCHEM_COMPOUND_CID>
155551128

> <PUBCHEM_COMPOUND_CANONICALIZED>
1

> <PUBCHEM_CACTVS_COMPLEXITY>
696

> <PUBCHEM_CACTVS_HBOND_ACCEPTOR>
4

> <PUBCHEM_CACTVS_HBOND_DONOR>
2

> <PUBCHEM_CACTVS_ROTATABLE_BOND>
5

> <PUBCHEM_CACTVS_SUBSKEYS>
AAADceB7oAAAAAAAAAAAAAAAAAAAAWAAAAA8eIEAAAAAAFix/AAAHgAQAAAADSjBngQ8wPPJkAC4BzV3VACigCA1AiAI2aE4ZNgIoPrA1dGEJYhglgDIyc8ciMAOwAACAAAQAACQAAQAACAAAAAAAAAAAA==

> <PUBCHEM_IUPAC_OPENEYE_NAME>
N-[4-[2-(7-cyano-3,4-dihydro-1H-isoquinolin-2-yl)ethyl]cyclohexyl]-1H-pyrrolo[3,2-c]pyridine-3-carboxamide

> <PUBCHEM_IUPAC_CAS_NAME>
N-[4-[2-(7-cyano-3,4-dihydro-1H-isoquinolin-2-yl)ethyl]cyclohexyl]-1H-pyrrolo[3,2-c]pyridine-3-carboxamide

> <PUBCHEM_IUPAC_NAME_MARKUP>
<I>N</I>-[4-[2-(7-cyano-3,4-dihydro-1<I>H</I>-isoquinolin-2-yl)ethyl]cyclohexyl]-1<I>H</I>-pyrrolo[3,2-c]pyridine-3-carboxamide

> <PUBCHEM_IUPAC_NAME>
N-[4-[2-(7-cyano-3,4-dihydro-1H-isoquinolin-2-yl)ethyl]cyclohexyl]-1H-pyrrolo[3,2-c]pyridine-3-carboxamide

> <PUBCHEM_IUPAC_SYSTEMATIC_NAME>
N-[4-[2-(7-cyano-3,4-dihydro-1H-isoquinolin-2-yl)ethyl]cyclohexyl]-1H-pyrrolo[3,2-c]pyridine-3-carboxamide

> <PUBCHEM_IUPAC_TRADITIONAL_NAME>
N-[4-[2-(7-cyano-3,4-dihydro-1H-isoquinolin-2-yl)ethyl]cyclohexyl]-1H-pyrrolo[3,2-c]pyridine-3-carboxamide

> <PUBCHEM_IUPAC_INCHI>
InChI=1S/C26H29N5O/c27-14-19-1-4-20-9-12-31(17-21(20)13-19)11-8-18-2-5-22(6-3-18)30-26(32)24-16-29-25-7-10-28-15-23(24)25/h1,4,7,10,13,15-16,18,22,29H,2-3,5-6,8-9,11-12,17H2,(H,30,32)

> <PUBCHEM_IUPAC_INCHIKEY>
GYJOSSJDPBLNCZ-UHFFFAOYSA-N

> <PUBCHEM_XLOGP3_AA>
3.4

> <PUBCHEM_EXACT_MASS>
427.23721057

> <PUBCHEM_MOLECULAR_FORMULA>
C26H29N5O

> <PUBCHEM_MOLECULAR_WEIGHT>
427.5

> <PUBCHEM_OPENEYE_CAN_SMILES>
C1CC(CCC1CCN2CCC3=C(C2)C=C(C=C3)C#N)NC(=O)C4=CNC5=C4C=NC=C5

> <PUBCHEM_OPENEYE_ISO_SMILES>
C1CC(CCC1CCN2CCC3=C(C2)C=C(C=C3)C#N)NC(=O)C4=CNC5=C4C=NC=C5

> <PUBCHEM_CACTVS_TPSA>
84.8

> <PUBCHEM_MONOISOTOPIC_WEIGHT>
427.23721057

> <PUBCHEM_TOTAL_CHARGE>
0

> <PUBCHEM_HEAVY_ATOM_COUNT>
32

> <PUBCHEM_ATOM_DEF_STEREO_COUNT>
0

> <PUBCHEM_ATOM_UDEF_STEREO_COUNT>
0

> <PUBCHEM_BOND_DEF_STEREO_COUNT>
0

> <PUBCHEM_BOND_UDEF_STEREO_COUNT>
0

> <PUBCHEM_ISOTOPIC_ATOM_COUNT>
0

> <PUBCHEM_COMPONENT_COUNT>
1

> <PUBCHEM_CACTVS_TAUTO_COUNT>
-1

> <PUBCHEM_COORDINATE_TYPE>
1
5
255

> <PUBCHEM_BONDANNOTATIONS>
18  19  8
18  21  8
19  22  8
21  24  8
22  25  8
23  26  8
23  27  8
24  25  8
26  28  8
26  29  8
28  31  8
31  32  8
4  27  8
4  28  8
5  29  8
5  32  8

$$$$
