135458464
  -OEChem-09292322282D

 56 60  0     0  0  0  0  0  0999 V2000
    8.7204   -2.8380    0.0000 Cl  0  0  0  0  0  0  0  0  0  0  0  0
    6.8952    4.7850    0.0000 F   0  0  0  0  0  0  0  0  0  0  0  0
    7.1581    3.3954    0.0000 F   0  0  0  0  0  0  0  0  0  0  0  0
    5.5056    4.5221    0.0000 F   0  0  0  0  0  0  0  0  0  0  0  0
    5.7686    3.1325    0.0000 O   0  0  0  0  0  0  0  0  0  0  0  0
    3.0814    0.7286    0.0000 N   0  0  0  0  0  0  0  0  0  0  0  0
    3.9491   -1.0734    0.0000 N   0  0  0  0  0  0  0  0  0  0  0  0
    5.3830   -1.9744    0.0000 N   0  0  0  0  0  0  0  0  0  0  0  0
    4.8830   -4.1650    0.0000 N   0  0  0  0  0  0  0  0  0  0  0  0
    4.0786    0.6538    0.0000 C   0  0  0  0  0  0  0  0  0  0  0  0
    2.5180   -0.0977    0.0000 C   0  0  0  0  0  0  0  0  0  0  0  0
    4.5125   -0.2471    0.0000 C   0  0  0  0  0  0  0  0  0  0  0  0
    2.9519   -0.9986    0.0000 C   0  0  0  0  0  0  0  0  0  0  0  0
    2.6475    1.6295    0.0000 C   0  0  0  0  0  0  0  0  0  0  0  0
    4.3830   -1.9744    0.0000 C   0  0  0  0  0  0  0  0  0  0  0  0
    3.7595   -2.7562    0.0000 C   0  0  0  0  0  0  0  0  0  0  0  0
    3.2108    2.4558    0.0000 C   0  0  0  0  0  0  0  0  0  0  0  0
    3.9820   -3.7311    0.0000 C   0  0  0  0  0  0  0  0  0  0  0  0
    6.0065   -2.7562    0.0000 C   0  0  0  0  0  0  0  0  0  0  0  0
    2.7690   -2.4338    0.0000 C   0  0  0  0  0  0  0  0  0  0  0  0
    4.2080    2.3810    0.0000 C   0  0  0  0  0  0  0  0  0  0  0  0
    2.7769    3.3567    0.0000 C   0  0  0  0  0  0  0  0  0  0  0  0
    5.7840   -3.7311    0.0000 C   0  0  0  0  0  0  0  0  0  0  0  0
    3.2295   -4.4513    0.0000 C   0  0  0  0  0  0  0  0  0  0  0  0
    2.0000   -3.1364    0.0000 C   0  0  0  0  0  0  0  0  0  0  0  0
    4.7714    3.2073    0.0000 C   0  0  0  0  0  0  0  0  0  0  0  0
    3.3403    4.1830    0.0000 C   0  0  0  0  0  0  0  0  0  0  0  0
    2.2318   -4.1519    0.0000 C   0  0  0  0  0  0  0  0  0  0  0  0
    6.9970   -2.4339    0.0000 C   0  0  0  0  0  0  0  0  0  0  0  0
    6.5365   -4.4513    0.0000 C   0  0  0  0  0  0  0  0  0  0  0  0
    4.3375    4.1082    0.0000 C   0  0  0  0  0  0  0  0  0  0  0  0
    7.7660   -3.1365    0.0000 C   0  0  0  0  0  0  0  0  0  0  0  0
    7.5342   -4.1520    0.0000 C   0  0  0  0  0  0  0  0  0  0  0  0
    6.3319    3.9588    0.0000 C   0  0  0  0  0  0  0  0  0  0  0  0
    4.6754    0.8217    0.0000 H   0  0  0  0  0  0  0  0  0  0  0  0
    4.0168    1.2708    0.0000 H   0  0  0  0  0  0  0  0  0  0  0  0
    2.0742    0.3352    0.0000 H   0  0  0  0  0  0  0  0  0  0  0  0
    2.0146   -0.4596    0.0000 H   0  0  0  0  0  0  0  0  0  0  0  0
    4.9563   -0.6801    0.0000 H   0  0  0  0  0  0  0  0  0  0  0  0
    5.0159    0.1148    0.0000 H   0  0  0  0  0  0  0  0  0  0  0  0
    2.3551   -1.1666    0.0000 H   0  0  0  0  0  0  0  0  0  0  0  0
    3.0137   -1.6156    0.0000 H   0  0  0  0  0  0  0  0  0  0  0  0
    2.2037    2.0624    0.0000 H   0  0  0  0  0  0  0  0  0  0  0  0
    2.1441    1.2676    0.0000 H   0  0  0  0  0  0  0  0  0  0  0  0
    2.6380   -1.8278    0.0000 H   0  0  0  0  0  0  0  0  0  0  0  0
    4.4770    1.8224    0.0000 H   0  0  0  0  0  0  0  0  0  0  0  0
    2.1587    3.4031    0.0000 H   0  0  0  0  0  0  0  0  0  0  0  0
    4.8830   -4.7850    0.0000 H   0  0  0  0  0  0  0  0  0  0  0  0
    3.3744   -5.0541    0.0000 H   0  0  0  0  0  0  0  0  0  0  0  0
    1.4083   -2.9514    0.0000 H   0  0  0  0  0  0  0  0  0  0  0  0
    3.0713    4.7416    0.0000 H   0  0  0  0  0  0  0  0  0  0  0  0
    1.7789   -4.5754    0.0000 H   0  0  0  0  0  0  0  0  0  0  0  0
    7.1280   -1.8279    0.0000 H   0  0  0  0  0  0  0  0  0  0  0  0
    6.3916   -5.0541    0.0000 H   0  0  0  0  0  0  0  0  0  0  0  0
    4.6867    4.6205    0.0000 H   0  0  0  0  0  0  0  0  0  0  0  0
    7.9871   -4.5754    0.0000 H   0  0  0  0  0  0  0  0  0  0  0  0
  1 32  1  0  0  0  0
  2 34  1  0  0  0  0
  3 34  1  0  0  0  0
  4 34  1  0  0  0  0
  5 26  1  0  0  0  0
  5 34  1  0  0  0  0
  6 10  1  0  0  0  0
  6 11  1  0  0  0  0
  6 14  1  0  0  0  0
  7 12  1  0  0  0  0
  7 13  1  0  0  0  0
  7 15  1  0  0  0  0
  8 15  2  0  0  0  0
  8 19  1  0  0  0  0
  9 18  1  0  0  0  0
  9 23  1  0  0  0  0
  9 48  1  0  0  0  0
 10 12  1  0  0  0  0
 10 35  1  0  0  0  0
 10 36  1  0  0  0  0
 11 13  1  0  0  0  0
 11 37  1  0  0  0  0
 11 38  1  0  0  0  0
 12 39  1  0  0  0  0
 12 40  1  0  0  0  0
 13 41  1  0  0  0  0
 13 42  1  0  0  0  0
 14 17  1  0  0  0  0
 14 43  1  0  0  0  0
 14 44  1  0  0  0  0
 15 16  1  0  0  0  0
 16 18  1  0  0  0  0
 16 20  2  0  0  0  0
 17 21  2  0  0  0  0
 17 22  1  0  0  0  0
 18 24  2  0  0  0  0
 19 23  2  0  0  0  0
 19 29  1  0  0  0  0
 20 25  1  0  0  0  0
 20 45  1  0  0  0  0
 21 26  1  0  0  0  0
 21 46  1  0  0  0  0
 22 27  2  0  0  0  0
 22 47  1  0  0  0  0
 23 30  1  0  0  0  0
 24 28  1  0  0  0  0
 24 49  1  0  0  0  0
 25 28  2  0  0  0  0
 25 50  1  0  0  0  0
 26 31  2  0  0  0  0
 27 31  1  0  0  0  0
 27 51  1  0  0  0  0
 28 52  1  0  0  0  0
 29 32  2  0  0  0  0
 29 53  1  0  0  0  0
 30 33  2  0  0  0  0
 30 54  1  0  0  0  0
 31 55  1  0  0  0  0
 32 33  1  0  0  0  0
 33 56  1  0  0  0  0
M  END
> <PUBCHEM_COMPOUND_CID>
135458464

> <PUBCHEM_COMPOUND_CANONICALIZED>
1

> <PUBCHEM_CACTVS_COMPLEXITY>
715

> <PUBCHEM_CACTVS_HBOND_ACCEPTOR>
7

> <PUBCHEM_CACTVS_HBOND_DONOR>
1

> <PUBCHEM_CACTVS_ROTATABLE_BOND>
4

> <PUBCHEM_CACTVS_SUBSKEYS>
AAADceB7oYAEAAAAAAAAAAAAAAAAAAAAAAA8YMEABAAAAAABUAAAHwIQAAAADA7BmDQxxoPABACgAiZiZACCCAEhJwAJiAAufpgMZuLF+5uUMChk0BHI6AewwBAOAABBAAICACAAAIIABAQAQAAAAAAAAA==

> <PUBCHEM_IUPAC_OPENEYE_NAME>
3-chloro-6-[4-[[3-(trifluoromethoxy)phenyl]methyl]piperazin-1-yl]-11H-benzo[b][1,4]benzodiazepine

> <PUBCHEM_IUPAC_CAS_NAME>
3-chloro-6-[4-[[3-(trifluoromethoxy)phenyl]methyl]-1-piperazinyl]-11H-benzo[b][1,4]benzodiazepine

> <PUBCHEM_IUPAC_NAME_MARKUP>
3-chloro-6-[4-[[3-(trifluoromethoxy)phenyl]methyl]piperazin-1-yl]-11<I>H</I>-benzo[b][1,4]benzodiazepine

> <PUBCHEM_IUPAC_NAME>
3-chloro-6-[4-[[3-(trifluoromethoxy)phenyl]methyl]piperazin-1-yl]-11H-benzo[b][1,4]benzodiazepine

> <PUBCHEM_IUPAC_SYSTEMATIC_NAME>
3-chloranyl-6-[4-[[3-(trifluoromethyloxy)phenyl]methyl]piperazin-1-yl]-11H-benzo[b][1,4]benzodiazepine

> <PUBCHEM_IUPAC_TRADITIONAL_NAME>
3-chloro-6-[4-[3-(trifluoromethoxy)benzyl]piperazino]-11H-benzo[b][1,4]benzodiazepine

> <PUBCHEM_IUPAC_INCHI>
InChI=1S/C25H22ClF3N4O/c26-18-8-9-22-23(15-18)31-24(20-6-1-2-7-21(20)30-22)33-12-10-32(11-13-33)16-17-4-3-5-19(14-17)34-25(27,28)29/h1-9,14-15,30H,10-13,16H2

> <PUBCHEM_IUPAC_INCHIKEY>
YUCDETMUXOUYBI-UHFFFAOYSA-N

> <PUBCHEM_XLOGP3_AA>
5.8

> <PUBCHEM_EXACT_MASS>
486.1434235

> <PUBCHEM_MOLECULAR_FORMULA>
C25H22ClF3N4O

> <PUBCHEM_MOLECULAR_WEIGHT>
486.9

> <PUBCHEM_OPENEYE_CAN_SMILES>
C1CN(CCN1CC2=CC(=CC=C2)OC(F)(F)F)C3=NC4=C(C=CC(=C4)Cl)NC5=CC=CC=C53

> <PUBCHEM_OPENEYE_ISO_SMILES>
C1CN(CCN1CC2=CC(=CC=C2)OC(F)(F)F)C3=NC4=C(C=CC(=C4)Cl)NC5=CC=CC=C53

> <PUBCHEM_CACTVS_TPSA>
40.1

> <PUBCHEM_MONOISOTOPIC_WEIGHT>
486.1434235

> <PUBCHEM_TOTAL_CHARGE>
0

> <PUBCHEM_HEAVY_ATOM_COUNT>
34

> <PUBCHEM_ATOM_DEF_STEREO_COUNT>
0

> <PUBCHEM_ATOM_UDEF_STEREO_COUNT>
0

> <PUBCHEM_BOND_DEF_STEREO_COUNT>
0

> <PUBCHEM_BOND_UDEF_STEREO_COUNT>
0

> <PUBCHEM_ISOTOPIC_ATOM_COUNT>
0

> <PUBCHEM_COMPONENT_COUNT>
1

> <PUBCHEM_CACTVS_TAUTO_COUNT>
-1

> <PUBCHEM_COORDINATE_TYPE>
1
5
255

> <PUBCHEM_BONDANNOTATIONS>
16  18  8
16  20  8
17  21  8
17  22  8
18  24  8
19  23  8
19  29  8
20  25  8
21  26  8
22  27  8
23  30  8
24  28  8
25  28  8
26  31  8
27  31  8
29  32  8
30  33  8
32  33  8

$$$$
