46882007
  -OEChem-09292322022D

 46 48  0     0  0  0  0  0  0999 V2000
    2.0000   -2.8012    0.0000 Cl  0  0  0  0  0  0  0  0  0  0  0  0
    4.8025   -4.8373    0.0000 Cl  0  0  0  0  0  0  0  0  0  0  0  0
    3.9045   -0.1321    0.0000 O   0  0  0  0  0  0  0  0  0  0  0  0
    6.5306    2.6467    0.0000 N   0  0  0  0  0  0  0  0  0  0  0  0
    5.6646    0.1467    0.0000 N   0  0  0  0  0  0  0  0  0  0  0  0
    5.1646   -1.3922    0.0000 N   0  0  0  0  0  0  0  0  0  0  0  0
    5.6297    3.0806    0.0000 C   0  0  0  0  0  0  0  0  0  0  0  0
    7.4316    3.0806    0.0000 C   0  0  0  0  0  0  0  0  0  0  0  0
    6.5306    1.6467    0.0000 C   0  0  0  0  0  0  0  0  0  0  0  0
    5.4072    4.0555    0.0000 C   0  0  0  0  0  0  0  0  0  0  0  0
    7.6541    4.0555    0.0000 C   0  0  0  0  0  0  0  0  0  0  0  0
    6.0306    4.8373    0.0000 C   0  0  0  0  0  0  0  0  0  0  0  0
    7.0306    4.8373    0.0000 C   0  0  0  0  0  0  0  0  0  0  0  0
    5.6646    1.1467    0.0000 C   0  0  0  0  0  0  0  0  0  0  0  0
    6.4736   -0.4411    0.0000 C   0  0  0  0  0  0  0  0  0  0  0  0
    6.1646   -1.3922    0.0000 C   0  0  0  0  0  0  0  0  0  0  0  0
    4.8556   -0.4411    0.0000 C   0  0  0  0  0  0  0  0  0  0  0  0
    4.5768   -2.2012    0.0000 C   0  0  0  0  0  0  0  0  0  0  0  0
    4.9836   -3.1147    0.0000 C   0  0  0  0  0  0  0  0  0  0  0  0
    3.5823   -2.0967    0.0000 C   0  0  0  0  0  0  0  0  0  0  0  0
    2.9945   -2.9057    0.0000 C   0  0  0  0  0  0  0  0  0  0  0  0
    4.3958   -3.9238    0.0000 C   0  0  0  0  0  0  0  0  0  0  0  0
    3.4013   -3.8192    0.0000 C   0  0  0  0  0  0  0  0  0  0  0  0
    5.0097    3.0806    0.0000 H   0  0  0  0  0  0  0  0  0  0  0  0
    5.4917    2.4761    0.0000 H   0  0  0  0  0  0  0  0  0  0  0  0
    7.5696    2.4761    0.0000 H   0  0  0  0  0  0  0  0  0  0  0  0
    8.0516    3.0806    0.0000 H   0  0  0  0  0  0  0  0  0  0  0  0
    6.7427    1.0640    0.0000 H   0  0  0  0  0  0  0  0  0  0  0  0
    7.1412    1.7543    0.0000 H   0  0  0  0  0  0  0  0  0  0  0  0
    5.0206    4.5402    0.0000 H   0  0  0  0  0  0  0  0  0  0  0  0
    4.8486    3.7865    0.0000 H   0  0  0  0  0  0  0  0  0  0  0  0
    8.2127    3.7865    0.0000 H   0  0  0  0  0  0  0  0  0  0  0  0
    8.0407    4.5402    0.0000 H   0  0  0  0  0  0  0  0  0  0  0  0
    6.1686    5.4418    0.0000 H   0  0  0  0  0  0  0  0  0  0  0  0
    5.4720    5.1063    0.0000 H   0  0  0  0  0  0  0  0  0  0  0  0
    7.5892    5.1063    0.0000 H   0  0  0  0  0  0  0  0  0  0  0  0
    6.8927    5.4418    0.0000 H   0  0  0  0  0  0  0  0  0  0  0  0
    5.4526    1.7293    0.0000 H   0  0  0  0  0  0  0  0  0  0  0  0
    5.0540    1.0390    0.0000 H   0  0  0  0  0  0  0  0  0  0  0  0
    7.0400   -0.6933    0.0000 H   0  0  0  0  0  0  0  0  0  0  0  0
    6.7836    0.0958    0.0000 H   0  0  0  0  0  0  0  0  0  0  0  0
    6.0998   -2.0088    0.0000 H   0  0  0  0  0  0  0  0  0  0  0  0
    6.7711   -1.5211    0.0000 H   0  0  0  0  0  0  0  0  0  0  0  0
    5.6002   -3.1796    0.0000 H   0  0  0  0  0  0  0  0  0  0  0  0
    3.3301   -1.5303    0.0000 H   0  0  0  0  0  0  0  0  0  0  0  0
    3.0368   -4.3208    0.0000 H   0  0  0  0  0  0  0  0  0  0  0  0
  1 21  1  0  0  0  0
  2 22  1  0  0  0  0
  3 17  2  0  0  0  0
  4  7  1  0  0  0  0
  4  8  1  0  0  0  0
  4  9  1  0  0  0  0
  5 14  1  0  0  0  0
  5 15  1  0  0  0  0
  5 17  1  0  0  0  0
  6 16  1  0  0  0  0
  6 17  1  0  0  0  0
  6 18  1  0  0  0  0
  7 10  1  0  0  0  0
  7 24  1  0  0  0  0
  7 25  1  0  0  0  0
  8 11  1  0  0  0  0
  8 26  1  0  0  0  0
  8 27  1  0  0  0  0
  9 14  1  0  0  0  0
  9 28  1  0  0  0  0
  9 29  1  0  0  0  0
 10 12  1  0  0  0  0
 10 30  1  0  0  0  0
 10 31  1  0  0  0  0
 11 13  1  0  0  0  0
 11 32  1  0  0  0  0
 11 33  1  0  0  0  0
 12 13  1  0  0  0  0
 12 34  1  0  0  0  0
 12 35  1  0  0  0  0
 13 36  1  0  0  0  0
 13 37  1  0  0  0  0
 14 38  1  0  0  0  0
 14 39  1  0  0  0  0
 15 16  1  0  0  0  0
 15 40  1  0  0  0  0
 15 41  1  0  0  0  0
 16 42  1  0  0  0  0
 16 43  1  0  0  0  0
 18 19  2  0  0  0  0
 18 20  1  0  0  0  0
 19 22  1  0  0  0  0
 19 44  1  0  0  0  0
 20 21  2  0  0  0  0
 20 45  1  0  0  0  0
 21 23  1  0  0  0  0
 22 23  2  0  0  0  0
 23 46  1  0  0  0  0
M  END
> <PUBCHEM_COMPOUND_CID>
46882007

> <PUBCHEM_COMPOUND_CANONICALIZED>
1

> <PUBCHEM_CACTVS_COMPLEXITY>
391

> <PUBCHEM_CACTVS_HBOND_ACCEPTOR>
2

> <PUBCHEM_CACTVS_HBOND_DONOR>
0

> <PUBCHEM_CACTVS_ROTATABLE_BOND>
4

> <PUBCHEM_CACTVS_SUBSKEYS>
AAADceB7IAAGAAAAAAAAAAAAAAAAAWAAAAAwAAAABYAAAAABAAAAHgIAAAAACArBECQxwIMAAACIACRCUACCAAAhBwAAiAAIZoiIYCLBk5GUIAhohgLIyCcQAAAAAAAAAAKAAAAAAAAABQAAAAAAAAAAAA==

> <PUBCHEM_IUPAC_OPENEYE_NAME>
1-[2-(azepan-1-yl)ethyl]-3-(3,5-dichlorophenyl)imidazolidin-2-one

> <PUBCHEM_IUPAC_CAS_NAME>
1-[2-(1-azepanyl)ethyl]-3-(3,5-dichlorophenyl)-2-imidazolidinone

> <PUBCHEM_IUPAC_NAME_MARKUP>
1-[2-(azepan-1-yl)ethyl]-3-(3,5-dichlorophenyl)imidazolidin-2-one

> <PUBCHEM_IUPAC_NAME>
1-[2-(azepan-1-yl)ethyl]-3-(3,5-dichlorophenyl)imidazolidin-2-one

> <PUBCHEM_IUPAC_SYSTEMATIC_NAME>
1-[2-(azepan-1-yl)ethyl]-3-[3,5-bis(chloranyl)phenyl]imidazolidin-2-one

> <PUBCHEM_IUPAC_TRADITIONAL_NAME>
1-[2-(azepan-1-yl)ethyl]-3-(3,5-dichlorophenyl)-2-imidazolidinone

> <PUBCHEM_IUPAC_INCHI>
InChI=1S/C17H23Cl2N3O/c18-14-11-15(19)13-16(12-14)22-10-9-21(17(22)23)8-7-20-5-3-1-2-4-6-20/h11-13H,1-10H2

> <PUBCHEM_IUPAC_INCHIKEY>
BVVYFGNETCYNNY-UHFFFAOYSA-N

> <PUBCHEM_XLOGP3_AA>
3.6

> <PUBCHEM_EXACT_MASS>
355.1218178

> <PUBCHEM_MOLECULAR_FORMULA>
C17H23Cl2N3O

> <PUBCHEM_MOLECULAR_WEIGHT>
356.3

> <PUBCHEM_OPENEYE_CAN_SMILES>
C1CCCN(CC1)CCN2CCN(C2=O)C3=CC(=CC(=C3)Cl)Cl

> <PUBCHEM_OPENEYE_ISO_SMILES>
C1CCCN(CC1)CCN2CCN(C2=O)C3=CC(=CC(=C3)Cl)Cl

> <PUBCHEM_CACTVS_TPSA>
26.8

> <PUBCHEM_MONOISOTOPIC_WEIGHT>
355.1218178

> <PUBCHEM_TOTAL_CHARGE>
0

> <PUBCHEM_HEAVY_ATOM_COUNT>
23

> <PUBCHEM_ATOM_DEF_STEREO_COUNT>
0

> <PUBCHEM_ATOM_UDEF_STEREO_COUNT>
0

> <PUBCHEM_BOND_DEF_STEREO_COUNT>
0

> <PUBCHEM_BOND_UDEF_STEREO_COUNT>
0

> <PUBCHEM_ISOTOPIC_ATOM_COUNT>
0

> <PUBCHEM_COMPONENT_COUNT>
1

> <PUBCHEM_CACTVS_TAUTO_COUNT>
-1

> <PUBCHEM_COORDINATE_TYPE>
1
5
255

> <PUBCHEM_BONDANNOTATIONS>
18  19  8
18  20  8
19  22  8
20  21  8
21  23  8
22  23  8

$$$$
