122183781
  -OEChem-09292322362D

 65 68  0     1  0  0  0  0  0999 V2000
   10.7263    0.5173    0.0000 O   0  0  0  0  0  0  0  0  0  0  0  0
   15.9224   -0.4827    0.0000 O   0  0  0  0  0  0  0  0  0  0  0  0
    7.2622    0.5173    0.0000 O   0  0  0  0  0  0  0  0  0  0  0  0
   12.4583   -0.4827    0.0000 N   0  0  0  0  0  0  0  0  0  0  0  0
   14.1904    0.5173    0.0000 N   0  0  0  0  0  0  0  0  0  0  0  0
    8.1282   -0.9827    0.0000 N   0  0  0  0  0  0  0  0  0  0  0  0
    5.5301   -2.4827    0.0000 N   0  0  0  0  0  0  0  0  0  0  0  0
   13.3244   -0.9827    0.0000 C   0  0  0  0  0  0  0  0  0  0  0  0
   12.4583    0.5173    0.0000 C   0  0  0  0  0  0  0  0  0  0  0  0
   14.1904   -0.4827    0.0000 C   0  0  0  0  0  0  0  0  0  0  0  0
   13.3244    1.0173    0.0000 C   0  0  0  0  0  0  0  0  0  0  0  0
   11.5923   -0.9827    0.0000 C   0  0  0  0  0  0  0  0  0  0  0  0
   10.7263   -0.4827    0.0000 C   0  0  3  0  0  0  0  0  0  0  0  0
    9.8602   -0.9827    0.0000 C   0  0  0  0  0  0  0  0  0  0  0  0
   15.0564    1.0173    0.0000 C   0  0  0  0  0  0  0  0  0  0  0  0
    8.9942   -0.4827    0.0000 C   0  0  0  0  0  0  0  0  0  0  0  0
   15.9224    0.5173    0.0000 C   0  0  0  0  0  0  0  0  0  0  0  0
   15.0564    2.0173    0.0000 C   0  0  0  0  0  0  0  0  0  0  0  0
   16.7885    1.0173    0.0000 C   0  0  0  0  0  0  0  0  0  0  0  0
   15.9224    2.5173    0.0000 C   0  0  0  0  0  0  0  0  0  0  0  0
   16.7885    2.0173    0.0000 C   0  0  0  0  0  0  0  0  0  0  0  0
    7.2622   -0.4827    0.0000 C   0  0  0  0  0  0  0  0  0  0  0  0
    6.3961   -0.9827    0.0000 C   0  0  0  0  0  0  0  0  0  0  0  0
   16.7885   -0.9827    0.0000 C   0  0  0  0  0  0  0  0  0  0  0  0
    5.5301   -0.4827    0.0000 C   0  0  0  0  0  0  0  0  0  0  0  0
    4.6641   -0.9827    0.0000 C   0  0  0  0  0  0  0  0  0  0  0  0
    6.3961   -1.9827    0.0000 C   0  0  0  0  0  0  0  0  0  0  0  0
    4.6641   -1.9827    0.0000 C   0  0  0  0  0  0  0  0  0  0  0  0
    3.7702   -0.4480    0.0000 C   0  0  0  0  0  0  0  0  0  0  0  0
    2.8641   -0.9619    0.0000 C   0  0  0  0  0  0  0  0  0  0  0  0
    3.7702   -2.5173    0.0000 C   0  0  0  0  0  0  0  0  0  0  0  0
    2.8641   -2.0035    0.0000 C   0  0  0  0  0  0  0  0  0  0  0  0
    2.0000   -0.4585    0.0000 C   0  0  0  0  0  0  0  0  0  0  0  0
   12.9258   -1.4576    0.0000 H   0  0  0  0  0  0  0  0  0  0  0  0
   13.7229   -1.4576    0.0000 H   0  0  0  0  0  0  0  0  0  0  0  0
   12.2463    1.0999    0.0000 H   0  0  0  0  0  0  0  0  0  0  0  0
   11.8477    0.4097    0.0000 H   0  0  0  0  0  0  0  0  0  0  0  0
   14.4024   -1.0653    0.0000 H   0  0  0  0  0  0  0  0  0  0  0  0
   14.8010   -0.3750    0.0000 H   0  0  0  0  0  0  0  0  0  0  0  0
   13.7229    1.4923    0.0000 H   0  0  0  0  0  0  0  0  0  0  0  0
   12.9258    1.4923    0.0000 H   0  0  0  0  0  0  0  0  0  0  0  0
   11.1938   -1.4576    0.0000 H   0  0  0  0  0  0  0  0  0  0  0  0
   11.9908   -1.4576    0.0000 H   0  0  0  0  0  0  0  0  0  0  0  0
   10.1893   -0.1727    0.0000 H   0  0  0  0  0  0  0  0  0  0  0  0
    9.4617   -1.4576    0.0000 H   0  0  0  0  0  0  0  0  0  0  0  0
   10.2588   -1.4576    0.0000 H   0  0  0  0  0  0  0  0  0  0  0  0
    9.3928   -0.0077    0.0000 H   0  0  0  0  0  0  0  0  0  0  0  0
    8.5957   -0.0077    0.0000 H   0  0  0  0  0  0  0  0  0  0  0  0
   14.5195    2.3273    0.0000 H   0  0  0  0  0  0  0  0  0  0  0  0
   10.1893    0.8273    0.0000 H   0  0  0  0  0  0  0  0  0  0  0  0
    8.1282   -1.6027    0.0000 H   0  0  0  0  0  0  0  0  0  0  0  0
   17.3254    0.7073    0.0000 H   0  0  0  0  0  0  0  0  0  0  0  0
   15.9224    3.1373    0.0000 H   0  0  0  0  0  0  0  0  0  0  0  0
   17.3254    2.3273    0.0000 H   0  0  0  0  0  0  0  0  0  0  0  0
   16.4785   -1.5196    0.0000 H   0  0  0  0  0  0  0  0  0  0  0  0
   17.3254   -1.2927    0.0000 H   0  0  0  0  0  0  0  0  0  0  0  0
   17.0985   -0.4457    0.0000 H   0  0  0  0  0  0  0  0  0  0  0  0
    5.5301    0.1373    0.0000 H   0  0  0  0  0  0  0  0  0  0  0  0
    6.9331   -2.2927    0.0000 H   0  0  0  0  0  0  0  0  0  0  0  0
    3.7773    0.1720    0.0000 H   0  0  0  0  0  0  0  0  0  0  0  0
    3.7773   -3.1373    0.0000 H   0  0  0  0  0  0  0  0  0  0  0  0
    2.3284   -2.3156    0.0000 H   0  0  0  0  0  0  0  0  0  0  0  0
    2.3121    0.0772    0.0000 H   0  0  0  0  0  0  0  0  0  0  0  0
    1.4643   -0.1465    0.0000 H   0  0  0  0  0  0  0  0  0  0  0  0
    1.6879   -0.9943    0.0000 H   0  0  0  0  0  0  0  0  0  0  0  0
  1 13  1  0  0  0  0
  1 50  1  0  0  0  0
  2 17  1  0  0  0  0
  2 24  1  0  0  0  0
  3 22  2  0  0  0  0
  4  8  1  0  0  0  0
  4  9  1  0  0  0  0
  4 12  1  0  0  0  0
  5 10  1  0  0  0  0
  5 11  1  0  0  0  0
  5 15  1  0  0  0  0
  6 16  1  0  0  0  0
  6 22  1  0  0  0  0
  6 51  1  0  0  0  0
  7 27  1  0  0  0  0
  7 28  2  0  0  0  0
  8 10  1  0  0  0  0
  8 34  1  0  0  0  0
  8 35  1  0  0  0  0
  9 11  1  0  0  0  0
  9 36  1  0  0  0  0
  9 37  1  0  0  0  0
 10 38  1  0  0  0  0
 10 39  1  0  0  0  0
 11 40  1  0  0  0  0
 11 41  1  0  0  0  0
 12 13  1  0  0  0  0
 12 42  1  0  0  0  0
 12 43  1  0  0  0  0
 13 14  1  0  0  0  0
 13 44  1  0  0  0  0
 14 16  1  0  0  0  0
 14 45  1  0  0  0  0
 14 46  1  0  0  0  0
 15 17  1  0  0  0  0
 15 18  2  0  0  0  0
 16 47  1  0  0  0  0
 16 48  1  0  0  0  0
 17 19  2  0  0  0  0
 18 20  1  0  0  0  0
 18 49  1  0  0  0  0
 19 21  1  0  0  0  0
 19 52  1  0  0  0  0
 20 21  2  0  0  0  0
 20 53  1  0  0  0  0
 21 54  1  0  0  0  0
 22 23  1  0  0  0  0
 23 25  1  0  0  0  0
 23 27  2  0  0  0  0
 24 55  1  0  0  0  0
 24 56  1  0  0  0  0
 24 57  1  0  0  0  0
 25 26  2  0  0  0  0
 25 58  1  0  0  0  0
 26 28  1  0  0  0  0
 26 29  1  0  0  0  0
 27 59  1  0  0  0  0
 28 31  1  0  0  0  0
 29 30  2  0  0  0  0
 29 60  1  0  0  0  0
 30 32  1  0  0  0  0
 30 33  1  0  0  0  0
 31 32  2  0  0  0  0
 31 61  1  0  0  0  0
 32 62  1  0  0  0  0
 33 63  1  0  0  0  0
 33 64  1  0  0  0  0
 33 65  1  0  0  0  0
M  END
> <PUBCHEM_COMPOUND_CID>
122183781

> <PUBCHEM_COMPOUND_CANONICALIZED>
1

> <PUBCHEM_CACTVS_COMPLEXITY>
612

> <PUBCHEM_CACTVS_HBOND_ACCEPTOR>
6

> <PUBCHEM_CACTVS_HBOND_DONOR>
2

> <PUBCHEM_CACTVS_ROTATABLE_BOND>
8

> <PUBCHEM_CACTVS_SUBSKEYS>
AAADcfB7sAAAAAAAAAAAAAAAAAAAAAAAAAA8eIEAAAAAAACx9AAAHgAQCAAADBzhngY+xvPIFgCoAzV3VACCiCA1IiAI2KE/bNgOdvrE9ZuVcahm1hHY6ceYycCeCAACAAACEAAQAAQAAAQgAAAAAAAAAA==

> <PUBCHEM_IUPAC_OPENEYE_NAME>
N-[3-hydroxy-4-[4-(2-methoxyphenyl)piperazin-1-yl]butyl]-6-methyl-quinoline-3-carboxamide

> <PUBCHEM_IUPAC_CAS_NAME>
N-[3-hydroxy-4-[4-(2-methoxyphenyl)-1-piperazinyl]butyl]-6-methyl-3-quinolinecarboxamide

> <PUBCHEM_IUPAC_NAME_MARKUP>
<I>N</I>-[3-hydroxy-4-[4-(2-methoxyphenyl)piperazin-1-yl]butyl]-6-methylquinoline-3-carboxamide

> <PUBCHEM_IUPAC_NAME>
N-[3-hydroxy-4-[4-(2-methoxyphenyl)piperazin-1-yl]butyl]-6-methylquinoline-3-carboxamide

> <PUBCHEM_IUPAC_SYSTEMATIC_NAME>
N-[4-[4-(2-methoxyphenyl)piperazin-1-yl]-3-oxidanyl-butyl]-6-methyl-quinoline-3-carboxamide

> <PUBCHEM_IUPAC_TRADITIONAL_NAME>
N-[3-hydroxy-4-[4-(2-methoxyphenyl)piperazino]butyl]-6-methyl-quinoline-3-carboxamide

> <PUBCHEM_IUPAC_INCHI>
InChI=1S/C26H32N4O3/c1-19-7-8-23-20(15-19)16-21(17-28-23)26(32)27-10-9-22(31)18-29-11-13-30(14-12-29)24-5-3-4-6-25(24)33-2/h3-8,15-17,22,31H,9-14,18H2,1-2H3,(H,27,32)

> <PUBCHEM_IUPAC_INCHIKEY>
VPXUAYLFOKMYIW-UHFFFAOYSA-N

> <PUBCHEM_XLOGP3_AA>
3.2

> <PUBCHEM_EXACT_MASS>
448.24744090

> <PUBCHEM_MOLECULAR_FORMULA>
C26H32N4O3

> <PUBCHEM_MOLECULAR_WEIGHT>
448.6

> <PUBCHEM_OPENEYE_CAN_SMILES>
CC1=CC2=CC(=CN=C2C=C1)C(=O)NCCC(CN3CCN(CC3)C4=CC=CC=C4OC)O

> <PUBCHEM_OPENEYE_ISO_SMILES>
CC1=CC2=CC(=CN=C2C=C1)C(=O)NCCC(CN3CCN(CC3)C4=CC=CC=C4OC)O

> <PUBCHEM_CACTVS_TPSA>
77.9

> <PUBCHEM_MONOISOTOPIC_WEIGHT>
448.24744090

> <PUBCHEM_TOTAL_CHARGE>
0

> <PUBCHEM_HEAVY_ATOM_COUNT>
33

> <PUBCHEM_ATOM_DEF_STEREO_COUNT>
0

> <PUBCHEM_ATOM_UDEF_STEREO_COUNT>
1

> <PUBCHEM_BOND_DEF_STEREO_COUNT>
0

> <PUBCHEM_BOND_UDEF_STEREO_COUNT>
0

> <PUBCHEM_ISOTOPIC_ATOM_COUNT>
0

> <PUBCHEM_COMPONENT_COUNT>
1

> <PUBCHEM_CACTVS_TAUTO_COUNT>
-1

> <PUBCHEM_COORDINATE_TYPE>
1
5
255

> <PUBCHEM_BONDANNOTATIONS>
13  1  3
15  17  8
15  18  8
17  19  8
18  20  8
19  21  8
20  21  8
23  25  8
23  27  8
25  26  8
26  28  8
26  29  8
28  31  8
29  30  8
30  32  8
31  32  8
7  27  8
7  28  8

$$$$
