10550893
  -OEChem-09292322062D

 59 64  0     1  0  0  0  0  0999 V2000
   14.1703   -2.1768    0.0000 S   0  0  0  0  0  0  0  0  0  0  0  0
    4.8767   -1.9732    0.0000 O   0  0  0  0  0  0  0  0  0  0  0  0
    6.0773    1.3256    0.0000 O   0  0  0  0  0  0  0  0  0  0  0  0
    5.7335   -0.4172    0.0000 N   0  0  0  0  0  0  0  0  0  0  0  0
   10.0846   -0.1576    0.0000 N   0  0  0  0  0  0  0  0  0  0  0  0
   11.9640   -0.8417    0.0000 N   0  0  0  0  0  0  0  0  0  0  0  0
   13.1769   -2.1395    0.0000 N   0  0  0  0  0  0  0  0  0  0  0  0
    4.1249   -0.3638    0.0000 C   0  0  2  0  0  0  0  0  0  0  0  0
    4.4669    0.5759    0.0000 C   0  0  1  0  0  0  0  0  0  0  0  0
    2.7522    0.2282    0.0000 C   0  0  1  0  0  0  0  0  0  0  0  0
    2.4934    1.1942    0.0000 C   0  0  2  0  0  0  0  0  0  0  0  0
    3.2300    2.1768    0.0000 C   0  0  0  0  0  0  0  0  0  0  0  0
    1.3532   -0.2806    0.0000 C   0  0  0  0  0  0  0  0  0  0  0  0
    1.0944    0.6854    0.0000 C   0  0  0  0  0  0  0  0  0  0  0  0
    4.9098   -0.9738    0.0000 C   0  0  0  0  0  0  0  0  0  0  0  0
    5.4603    0.5386    0.0000 C   0  0  0  0  0  0  0  0  0  0  0  0
    6.6732   -0.7592    0.0000 C   0  0  0  0  0  0  0  0  0  0  0  0
    7.4392   -0.1164    0.0000 C   0  0  0  0  0  0  0  0  0  0  0  0
    8.3789   -0.4584    0.0000 C   0  0  0  0  0  0  0  0  0  0  0  0
    9.1450    0.1844    0.0000 C   0  0  0  0  0  0  0  0  0  0  0  0
   10.8507    0.4851    0.0000 C   0  0  0  0  0  0  0  0  0  0  0  0
   10.2583   -1.1424    0.0000 C   0  0  0  0  0  0  0  0  0  0  0  0
   11.7904    0.1431    0.0000 C   0  0  0  0  0  0  0  0  0  0  0  0
   11.1980   -1.4845    0.0000 C   0  0  0  0  0  0  0  0  0  0  0  0
   12.9037   -1.1837    0.0000 C   0  0  0  0  0  0  0  0  0  0  0  0
   13.7274   -0.6271    0.0000 C   0  0  0  0  0  0  0  0  0  0  0  0
   14.5143   -1.2441    0.0000 C   0  0  0  0  0  0  0  0  0  0  0  0
   13.8683    0.3629    0.0000 C   0  0  0  0  0  0  0  0  0  0  0  0
   15.4421   -0.8711    0.0000 C   0  0  0  0  0  0  0  0  0  0  0  0
   14.7961    0.7359    0.0000 C   0  0  0  0  0  0  0  0  0  0  0  0
   15.5830    0.1189    0.0000 C   0  0  0  0  0  0  0  0  0  0  0  0
    3.8342   -1.1625    0.0000 H   0  0  0  0  0  0  0  0  0  0  0  0
    4.7576    1.3747    0.0000 H   0  0  0  0  0  0  0  0  0  0  0  0
    2.9722   -0.5928    0.0000 H   0  0  0  0  0  0  0  0  0  0  0  0
    2.2734    2.0152    0.0000 H   0  0  0  0  0  0  0  0  0  0  0  0
    2.9122    2.7091    0.0000 H   0  0  0  0  0  0  0  0  0  0  0  0
    3.8431    2.2687    0.0000 H   0  0  0  0  0  0  0  0  0  0  0  0
    1.0669   -0.8305    0.0000 H   0  0  0  0  0  0  0  0  0  0  0  0
    0.5445    0.9717    0.0000 H   0  0  0  0  0  0  0  0  0  0  0  0
    7.1481   -1.1577    0.0000 H   0  0  0  0  0  0  0  0  0  0  0  0
    6.3632   -1.2961    0.0000 H   0  0  0  0  0  0  0  0  0  0  0  0
    6.9643    0.2821    0.0000 H   0  0  0  0  0  0  0  0  0  0  0  0
    7.7492    0.4205    0.0000 H   0  0  0  0  0  0  0  0  0  0  0  0
    8.8538   -0.8569    0.0000 H   0  0  0  0  0  0  0  0  0  0  0  0
    8.0689   -0.9953    0.0000 H   0  0  0  0  0  0  0  0  0  0  0  0
    8.6700    0.5829    0.0000 H   0  0  0  0  0  0  0  0  0  0  0  0
    9.4550    0.7213    0.0000 H   0  0  0  0  0  0  0  0  0  0  0  0
   10.3757    0.8837    0.0000 H   0  0  0  0  0  0  0  0  0  0  0  0
   11.1607    1.0221    0.0000 H   0  0  0  0  0  0  0  0  0  0  0  0
   10.1506   -1.7530    0.0000 H   0  0  0  0  0  0  0  0  0  0  0  0
    9.6383   -1.1424    0.0000 H   0  0  0  0  0  0  0  0  0  0  0  0
   11.8980    0.7537    0.0000 H   0  0  0  0  0  0  0  0  0  0  0  0
   12.4104    0.1431    0.0000 H   0  0  0  0  0  0  0  0  0  0  0  0
   11.6729   -1.8830    0.0000 H   0  0  0  0  0  0  0  0  0  0  0  0
   10.8880   -2.0214    0.0000 H   0  0  0  0  0  0  0  0  0  0  0  0
   13.3803    0.7455    0.0000 H   0  0  0  0  0  0  0  0  0  0  0  0
   15.9300   -1.2537    0.0000 H   0  0  0  0  0  0  0  0  0  0  0  0
   14.8834    1.3497    0.0000 H   0  0  0  0  0  0  0  0  0  0  0  0
   16.1583    0.3502    0.0000 H   0  0  0  0  0  0  0  0  0  0  0  0
  1  7  1  0  0  0  0
  1 27  1  0  0  0  0
  2 15  2  0  0  0  0
  3 16  2  0  0  0  0
  4 15  1  0  0  0  0
  4 16  1  0  0  0  0
  4 17  1  0  0  0  0
  5 20  1  0  0  0  0
  5 21  1  0  0  0  0
  5 22  1  0  0  0  0
  6 23  1  0  0  0  0
  6 24  1  0  0  0  0
  6 25  1  0  0  0  0
  7 25  2  0  0  0  0
  8  9  1  0  0  0  0
  8 10  1  0  0  0  0
  8 15  1  0  0  0  0
  8 32  1  6  0  0  0
  9 11  1  0  0  0  0
  9 16  1  0  0  0  0
  9 33  1  6  0  0  0
 10 12  1  0  0  0  0
 10 13  1  0  0  0  0
 10 34  1  1  0  0  0
 11 12  1  0  0  0  0
 11 14  1  0  0  0  0
 11 35  1  6  0  0  0
 12 36  1  0  0  0  0
 12 37  1  0  0  0  0
 13 14  2  0  0  0  0
 13 38  1  0  0  0  0
 14 39  1  0  0  0  0
 17 18  1  0  0  0  0
 17 40  1  0  0  0  0
 17 41  1  0  0  0  0
 18 19  1  0  0  0  0
 18 42  1  0  0  0  0
 18 43  1  0  0  0  0
 19 20  1  0  0  0  0
 19 44  1  0  0  0  0
 19 45  1  0  0  0  0
 20 46  1  0  0  0  0
 20 47  1  0  0  0  0
 21 23  1  0  0  0  0
 21 48  1  0  0  0  0
 21 49  1  0  0  0  0
 22 24  1  0  0  0  0
 22 50  1  0  0  0  0
 22 51  1  0  0  0  0
 23 52  1  0  0  0  0
 23 53  1  0  0  0  0
 24 54  1  0  0  0  0
 24 55  1  0  0  0  0
 25 26  1  0  0  0  0
 26 27  1  0  0  0  0
 26 28  2  0  0  0  0
 27 29  2  0  0  0  0
 28 30  1  0  0  0  0
 28 56  1  0  0  0  0
 29 31  1  0  0  0  0
 29 57  1  0  0  0  0
 30 31  2  0  0  0  0
 30 58  1  0  0  0  0
 31 59  1  0  0  0  0
M  END
> <PUBCHEM_COMPOUND_CID>
10550893

> <PUBCHEM_COMPOUND_CANONICALIZED>
1

> <PUBCHEM_CACTVS_COMPLEXITY>
722

> <PUBCHEM_CACTVS_HBOND_ACCEPTOR>
6

> <PUBCHEM_CACTVS_HBOND_DONOR>
0

> <PUBCHEM_CACTVS_ROTATABLE_BOND>
6

> <PUBCHEM_CACTVS_SUBSKEYS>
AAADceB7sABAAAAAAAAAAAAAAAAAAeLECAA8QIAAAAAWAFgB8AAAHgQAQAAADQDB2gQxsdMAAACsAiNycACDABAhAABJmDkoRJiIYLLAmZGUIAxghiLIyAcdiACOgAAAAAAEAAAAAAAAAAgAAQAACAAAAA==

> <PUBCHEM_IUPAC_OPENEYE_NAME>
(1S,2S,6R,7R)-4-[4-[4-(1,2-benzothiazol-3-yl)piperazin-1-yl]butyl]-4-azatricyclo[5.2.1.02,6]dec-8-ene-3,5-dione

> <PUBCHEM_IUPAC_CAS_NAME>
(1S,2S,6R,7R)-4-[4-[4-(1,2-benzothiazol-3-yl)-1-piperazinyl]butyl]-4-azatricyclo[5.2.1.02,6]dec-8-ene-3,5-dione

> <PUBCHEM_IUPAC_NAME_MARKUP>
(1<I>S</I>,2<I>S</I>,6<I>R</I>,7<I>R</I>)-4-[4-[4-(1,2-benzothiazol-3-yl)piperazin-1-yl]butyl]-4-azatricyclo[5.2.1.0<SUP>2,6</SUP>]dec-8-ene-3,5-dione

> <PUBCHEM_IUPAC_NAME>
(1S,2S,6R,7R)-4-[4-[4-(1,2-benzothiazol-3-yl)piperazin-1-yl]butyl]-4-azatricyclo[5.2.1.02,6]dec-8-ene-3,5-dione

> <PUBCHEM_IUPAC_SYSTEMATIC_NAME>
(1S,2S,6R,7R)-4-[4-[4-(1,2-benzothiazol-3-yl)piperazin-1-yl]butyl]-4-azatricyclo[5.2.1.02,6]dec-8-ene-3,5-dione

> <PUBCHEM_IUPAC_TRADITIONAL_NAME>
(1S,2S,6R,7R)-4-[4-[4-(1,2-benzothiazol-3-yl)piperazino]butyl]-4-azatricyclo[5.2.1.02,6]dec-8-ene-3,5-quinone

> <PUBCHEM_IUPAC_INCHI>
InChI=1S/C24H28N4O2S/c29-23-20-16-7-8-17(15-16)21(20)24(30)28(23)10-4-3-9-26-11-13-27(14-12-26)22-18-5-1-2-6-19(18)31-25-22/h1-2,5-8,16-17,20-21H,3-4,9-15H2/t16-,17+,20+,21-

> <PUBCHEM_IUPAC_INCHIKEY>
BOOBARCNIUCOKI-BTYSMDAFSA-N

> <PUBCHEM_XLOGP3_AA>
3.3

> <PUBCHEM_EXACT_MASS>
436.19329732

> <PUBCHEM_MOLECULAR_FORMULA>
C24H28N4O2S

> <PUBCHEM_MOLECULAR_WEIGHT>
436.6

> <PUBCHEM_OPENEYE_CAN_SMILES>
C1CN(CCN1CCCCN2C(=O)C3C4CC(C3C2=O)C=C4)C5=NSC6=CC=CC=C65

> <PUBCHEM_OPENEYE_ISO_SMILES>
C1CN(CCN1CCCCN2C(=O)[C@@H]3[C@@H]4C[C@H]([C@@H]3C2=O)C=C4)C5=NSC6=CC=CC=C65

> <PUBCHEM_CACTVS_TPSA>
85

> <PUBCHEM_MONOISOTOPIC_WEIGHT>
436.19329732

> <PUBCHEM_TOTAL_CHARGE>
0

> <PUBCHEM_HEAVY_ATOM_COUNT>
31

> <PUBCHEM_ATOM_DEF_STEREO_COUNT>
4

> <PUBCHEM_ATOM_UDEF_STEREO_COUNT>
0

> <PUBCHEM_BOND_DEF_STEREO_COUNT>
0

> <PUBCHEM_BOND_UDEF_STEREO_COUNT>
0

> <PUBCHEM_ISOTOPIC_ATOM_COUNT>
0

> <PUBCHEM_COMPONENT_COUNT>
1

> <PUBCHEM_CACTVS_TAUTO_COUNT>
-1

> <PUBCHEM_COORDINATE_TYPE>
1
5
255

> <PUBCHEM_BONDANNOTATIONS>
1  27  8
1  7  8
10  34  5
11  35  6
25  26  8
26  27  8
26  28  8
27  29  8
28  30  8
29  31  8
30  31  8
7  25  8
8  32  6
9  33  6

$$$$
