66801271
  -OEChem-09292322342D

 50 53  0     0  0  0  0  0  0999 V2000
    9.3653    2.6759    0.0000 S   0  0  0  0  0  0  0  0  0  0  0  0
    9.0896    4.4364    0.0000 S   0  0  0  0  0  0  0  0  0  0  0  0
    2.0000   -5.2444    0.0000 F   0  0  0  0  0  0  0  0  0  0  0  0
    5.5443   -5.0492    0.0000 O   0  0  0  0  0  0  0  0  0  0  0  0
   10.3158    2.3652    0.0000 O   0  0  0  0  0  0  0  0  0  0  0  0
    8.4148    2.9865    0.0000 O   0  0  0  0  0  0  0  0  0  0  0  0
    6.4763   -0.5881    0.0000 N   0  0  0  0  0  0  0  0  0  0  0  0
    6.1279   -4.2444    0.0000 N   0  0  0  0  0  0  0  0  0  0  0  0
    9.0546    1.7254    0.0000 N   0  0  0  0  0  0  0  0  0  0  0  0
    5.8550   -2.4892    0.0000 C   0  0  0  0  0  0  0  0  0  0  0  0
    5.1871   -1.7449    0.0000 C   0  0  0  0  0  0  0  0  0  0  0  0
    6.8335   -2.2830    0.0000 C   0  0  0  0  0  0  0  0  0  0  0  0
    5.4978   -0.7943    0.0000 C   0  0  0  0  0  0  0  0  0  0  0  0
    7.1441   -1.3324    0.0000 C   0  0  0  0  0  0  0  0  0  0  0  0
    6.7870    0.3624    0.0000 C   0  0  0  0  0  0  0  0  0  0  0  0
    5.5443   -3.4397    0.0000 C   0  0  0  0  0  0  0  0  0  0  0  0
    7.7654    0.5686    0.0000 C   0  0  0  0  0  0  0  0  0  0  0  0
    4.5981   -3.7444    0.0000 C   0  0  0  0  0  0  0  0  0  0  0  0
    8.0761    1.5191    0.0000 C   0  0  0  0  0  0  0  0  0  0  0  0
    4.5981   -4.7444    0.0000 C   0  0  0  0  0  0  0  0  0  0  0  0
    3.7320   -3.2444    0.0000 C   0  0  0  0  0  0  0  0  0  0  0  0
    3.7320   -5.2444    0.0000 C   0  0  0  0  0  0  0  0  0  0  0  0
    2.8660   -3.7444    0.0000 C   0  0  0  0  0  0  0  0  0  0  0  0
    2.8660   -4.7444    0.0000 C   0  0  0  0  0  0  0  0  0  0  0  0
    9.6759    3.6264    0.0000 C   0  0  0  0  0  0  0  0  0  0  0  0
   10.6275    3.9338    0.0000 C   0  0  0  0  0  0  0  0  0  0  0  0
   10.6293    4.9338    0.0000 C   0  0  0  0  0  0  0  0  0  0  0  0
    9.6787    5.2444    0.0000 C   0  0  0  0  0  0  0  0  0  0  0  0
    6.2690   -2.9506    0.0000 H   0  0  0  0  0  0  0  0  0  0  0  0
    4.6402   -1.4528    0.0000 H   0  0  0  0  0  0  0  0  0  0  0  0
    4.8046   -2.2328    0.0000 H   0  0  0  0  0  0  0  0  0  0  0  0
    6.8540   -2.9026    0.0000 H   0  0  0  0  0  0  0  0  0  0  0  0
    7.4473   -2.3703    0.0000 H   0  0  0  0  0  0  0  0  0  0  0  0
    5.4772   -0.1747    0.0000 H   0  0  0  0  0  0  0  0  0  0  0  0
    4.8840   -0.7070    0.0000 H   0  0  0  0  0  0  0  0  0  0  0  0
    7.6910   -1.6244    0.0000 H   0  0  0  0  0  0  0  0  0  0  0  0
    7.5267   -0.8445    0.0000 H   0  0  0  0  0  0  0  0  0  0  0  0
    6.7664    0.9821    0.0000 H   0  0  0  0  0  0  0  0  0  0  0  0
    6.1731    0.4497    0.0000 H   0  0  0  0  0  0  0  0  0  0  0  0
    7.7860   -0.0510    0.0000 H   0  0  0  0  0  0  0  0  0  0  0  0
    8.3793    0.4813    0.0000 H   0  0  0  0  0  0  0  0  0  0  0  0
    8.0556    2.1388    0.0000 H   0  0  0  0  0  0  0  0  0  0  0  0
    7.4623    1.6065    0.0000 H   0  0  0  0  0  0  0  0  0  0  0  0
    3.7320   -2.6244    0.0000 H   0  0  0  0  0  0  0  0  0  0  0  0
    9.4687    1.2639    0.0000 H   0  0  0  0  0  0  0  0  0  0  0  0
    3.7320   -5.8644    0.0000 H   0  0  0  0  0  0  0  0  0  0  0  0
    2.3291   -3.4344    0.0000 H   0  0  0  0  0  0  0  0  0  0  0  0
   11.1285    3.5685    0.0000 H   0  0  0  0  0  0  0  0  0  0  0  0
   11.1315    5.2973    0.0000 H   0  0  0  0  0  0  0  0  0  0  0  0
    9.4882    5.8344    0.0000 H   0  0  0  0  0  0  0  0  0  0  0  0
  1  5  2  0  0  0  0
  1  6  2  0  0  0  0
  1  9  1  0  0  0  0
  1 25  1  0  0  0  0
  2 25  1  0  0  0  0
  2 28  1  0  0  0  0
  3 24  1  0  0  0  0
  4  8  1  0  0  0  0
  4 20  1  0  0  0  0
  7 13  1  0  0  0  0
  7 14  1  0  0  0  0
  7 15  1  0  0  0  0
  8 16  2  0  0  0  0
  9 19  1  0  0  0  0
  9 45  1  0  0  0  0
 10 11  1  0  0  0  0
 10 12  1  0  0  0  0
 10 16  1  0  0  0  0
 10 29  1  0  0  0  0
 11 13  1  0  0  0  0
 11 30  1  0  0  0  0
 11 31  1  0  0  0  0
 12 14  1  0  0  0  0
 12 32  1  0  0  0  0
 12 33  1  0  0  0  0
 13 34  1  0  0  0  0
 13 35  1  0  0  0  0
 14 36  1  0  0  0  0
 14 37  1  0  0  0  0
 15 17  1  0  0  0  0
 15 38  1  0  0  0  0
 15 39  1  0  0  0  0
 16 18  1  0  0  0  0
 17 19  1  0  0  0  0
 17 40  1  0  0  0  0
 17 41  1  0  0  0  0
 18 20  2  0  0  0  0
 18 21  1  0  0  0  0
 19 42  1  0  0  0  0
 19 43  1  0  0  0  0
 20 22  1  0  0  0  0
 21 23  2  0  0  0  0
 21 44  1  0  0  0  0
 22 24  2  0  0  0  0
 22 46  1  0  0  0  0
 23 24  1  0  0  0  0
 23 47  1  0  0  0  0
 25 26  2  0  0  0  0
 26 27  1  0  0  0  0
 26 48  1  0  0  0  0
 27 28  2  0  0  0  0
 27 49  1  0  0  0  0
 28 50  1  0  0  0  0
M  END
> <PUBCHEM_COMPOUND_CID>
66801271

> <PUBCHEM_COMPOUND_CANONICALIZED>
1

> <PUBCHEM_CACTVS_COMPLEXITY>
610

> <PUBCHEM_CACTVS_HBOND_ACCEPTOR>
8

> <PUBCHEM_CACTVS_HBOND_DONOR>
1

> <PUBCHEM_CACTVS_ROTATABLE_BOND>
7

> <PUBCHEM_CACTVS_SUBSKEYS>
AAADceB7MQBgAAAAAAAAAAAAAAAAAWJAAAA8QAAAAAAAAFgB/AAAHwQUQAAADQzF3gywh9NQAAqtA6RyQnDDAZAkKBBomLk+TNoIJrqg1ZOEMYBm0BmoyceYyOCOAAAAAAAIAAAAAAAAABAAAAAAAAAAAA==

> <PUBCHEM_IUPAC_OPENEYE_NAME>
N-[3-[4-(6-fluoro-1,2-benzoxazol-3-yl)-1-piperidyl]propyl]thiophene-2-sulfonamide

> <PUBCHEM_IUPAC_CAS_NAME>
N-[3-[4-(6-fluoro-1,2-benzoxazol-3-yl)-1-piperidinyl]propyl]-2-thiophenesulfonamide

> <PUBCHEM_IUPAC_NAME_MARKUP>
<I>N</I>-[3-[4-(6-fluoro-1,2-benzoxazol-3-yl)piperidin-1-yl]propyl]thiophene-2-sulfonamide

> <PUBCHEM_IUPAC_NAME>
N-[3-[4-(6-fluoro-1,2-benzoxazol-3-yl)piperidin-1-yl]propyl]thiophene-2-sulfonamide

> <PUBCHEM_IUPAC_SYSTEMATIC_NAME>
N-[3-[4-(6-fluoranyl-1,2-benzoxazol-3-yl)piperidin-1-yl]propyl]thiophene-2-sulfonamide

> <PUBCHEM_IUPAC_TRADITIONAL_NAME>
N-[3-[4-(6-fluoroindoxazen-3-yl)piperidino]propyl]thiophene-2-sulfonamide

> <PUBCHEM_IUPAC_INCHI>
InChI=1S/C19H22FN3O3S2/c20-15-4-5-16-17(13-15)26-22-19(16)14-6-10-23(11-7-14)9-2-8-21-28(24,25)18-3-1-12-27-18/h1,3-5,12-14,21H,2,6-11H2

> <PUBCHEM_IUPAC_INCHIKEY>
FKKQLJVJIIRDRI-UHFFFAOYSA-N

> <PUBCHEM_XLOGP3_AA>
3.5

> <PUBCHEM_EXACT_MASS>
423.10866208

> <PUBCHEM_MOLECULAR_FORMULA>
C19H22FN3O3S2

> <PUBCHEM_MOLECULAR_WEIGHT>
423.5

> <PUBCHEM_OPENEYE_CAN_SMILES>
C1CN(CCC1C2=NOC3=C2C=CC(=C3)F)CCCNS(=O)(=O)C4=CC=CS4

> <PUBCHEM_OPENEYE_ISO_SMILES>
C1CN(CCC1C2=NOC3=C2C=CC(=C3)F)CCCNS(=O)(=O)C4=CC=CS4

> <PUBCHEM_CACTVS_TPSA>
112

> <PUBCHEM_MONOISOTOPIC_WEIGHT>
423.10866208

> <PUBCHEM_TOTAL_CHARGE>
0

> <PUBCHEM_HEAVY_ATOM_COUNT>
28

> <PUBCHEM_ATOM_DEF_STEREO_COUNT>
0

> <PUBCHEM_ATOM_UDEF_STEREO_COUNT>
0

> <PUBCHEM_BOND_DEF_STEREO_COUNT>
0

> <PUBCHEM_BOND_UDEF_STEREO_COUNT>
0

> <PUBCHEM_ISOTOPIC_ATOM_COUNT>
0

> <PUBCHEM_COMPONENT_COUNT>
1

> <PUBCHEM_CACTVS_TAUTO_COUNT>
-1

> <PUBCHEM_COORDINATE_TYPE>
1
5
255

> <PUBCHEM_BONDANNOTATIONS>
16  18  8
18  20  8
18  21  8
2  25  8
2  28  8
20  22  8
21  23  8
22  24  8
23  24  8
25  26  8
26  27  8
27  28  8
4  20  8
4  8  8
8  16  8

$$$$
