57390116
  -OEChem-09292322322D

139144  0     0  0  0  0  0  0999 V2000
    4.5981   15.5000    0.0000 O   0  0  0  0  0  0  0  0  0  0  0  0
   13.2583  -14.5000    0.0000 O   0  0  0  0  0  0  0  0  0  0  0  0
    8.0622    7.5000    0.0000 O   0  0  0  0  0  0  0  0  0  0  0  0
   18.4545   -7.5000    0.0000 O   0  0  0  0  0  0  0  0  0  0  0  0
   10.6603    5.0000    0.0000 O   0  0  0  0  0  0  0  0  0  0  0  0
   15.8564   -4.0000    0.0000 O   0  0  0  0  0  0  0  0  0  0  0  0
   12.3923    3.0000    0.0000 O   0  0  0  0  0  0  0  0  0  0  0  0
   14.9904   -1.5000    0.0000 O   0  0  0  0  0  0  0  0  0  0  0  0
   13.2583    0.5000    0.0000 O   0  0  0  0  0  0  0  0  0  0  0  0
    6.3301   12.5000    0.0000 N   0  0  0  0  0  0  0  0  0  0  0  0
   14.9904  -11.5000    0.0000 N   0  0  0  0  0  0  0  0  0  0  0  0
    4.5981   13.5000    0.0000 N   0  0  0  0  0  0  0  0  0  0  0  0
   14.9904  -13.5000    0.0000 N   0  0  0  0  0  0  0  0  0  0  0  0
    8.9282    9.0000    0.0000 N   0  0  0  0  0  0  0  0  0  0  0  0
   16.7224   -7.5000    0.0000 N   0  0  0  0  0  0  0  0  0  0  0  0
    6.3301   13.5000    0.0000 C   0  0  0  0  0  0  0  0  0  0  0  0
    5.4641   12.0000    0.0000 C   0  0  0  0  0  0  0  0  0  0  0  0
   15.8564  -12.0000    0.0000 C   0  0  0  0  0  0  0  0  0  0  0  0
   14.1244  -12.0000    0.0000 C   0  0  0  0  0  0  0  0  0  0  0  0
    5.4641   14.0000    0.0000 C   0  0  0  0  0  0  0  0  0  0  0  0
    4.5981   12.5000    0.0000 C   0  0  0  0  0  0  0  0  0  0  0  0
   15.8564  -13.0000    0.0000 C   0  0  0  0  0  0  0  0  0  0  0  0
   14.1244  -13.0000    0.0000 C   0  0  0  0  0  0  0  0  0  0  0  0
    7.1962   12.0000    0.0000 C   0  0  0  0  0  0  0  0  0  0  0  0
   14.9904  -10.5000    0.0000 C   0  0  0  0  0  0  0  0  0  0  0  0
    7.1962   11.0000    0.0000 C   0  0  0  0  0  0  0  0  0  0  0  0
   15.8564  -10.0000    0.0000 C   0  0  0  0  0  0  0  0  0  0  0  0
    3.7320   14.0000    0.0000 C   0  0  0  0  0  0  0  0  0  0  0  0
   14.9904  -14.5000    0.0000 C   0  0  0  0  0  0  0  0  0  0  0  0
    8.0622   10.5000    0.0000 C   0  0  0  0  0  0  0  0  0  0  0  0
   15.8564   -9.0000    0.0000 C   0  0  0  0  0  0  0  0  0  0  0  0
    8.0622    9.5000    0.0000 C   0  0  0  0  0  0  0  0  0  0  0  0
   16.7224   -8.5000    0.0000 C   0  0  0  0  0  0  0  0  0  0  0  0
    3.7320   15.0000    0.0000 C   0  0  0  0  0  0  0  0  0  0  0  0
   14.1244  -15.0000    0.0000 C   0  0  0  0  0  0  0  0  0  0  0  0
    2.8660   13.5000    0.0000 C   0  0  0  0  0  0  0  0  0  0  0  0
   15.8564  -15.0000    0.0000 C   0  0  0  0  0  0  0  0  0  0  0  0
    2.8660   15.5000    0.0000 C   0  0  0  0  0  0  0  0  0  0  0  0
   14.1244  -16.0000    0.0000 C   0  0  0  0  0  0  0  0  0  0  0  0
    2.0000   14.0000    0.0000 C   0  0  0  0  0  0  0  0  0  0  0  0
   15.8564  -16.0000    0.0000 C   0  0  0  0  0  0  0  0  0  0  0  0
    2.0000   15.0000    0.0000 C   0  0  0  0  0  0  0  0  0  0  0  0
   14.9904  -16.5000    0.0000 C   0  0  0  0  0  0  0  0  0  0  0  0
    8.9282    8.0000    0.0000 C   0  0  0  0  0  0  0  0  0  0  0  0
   17.5885   -7.0000    0.0000 C   0  0  0  0  0  0  0  0  0  0  0  0
    4.5981   16.5000    0.0000 C   0  0  0  0  0  0  0  0  0  0  0  0
   12.3923  -15.0000    0.0000 C   0  0  0  0  0  0  0  0  0  0  0  0
    9.7942    7.5000    0.0000 C   0  0  0  0  0  0  0  0  0  0  0  0
   17.5885   -6.0000    0.0000 C   0  0  0  0  0  0  0  0  0  0  0  0
    9.7942    6.5000    0.0000 C   0  0  0  0  0  0  0  0  0  0  0  0
   16.7224   -5.5000    0.0000 C   0  0  0  0  0  0  0  0  0  0  0  0
   10.6603    8.0000    0.0000 C   0  0  0  0  0  0  0  0  0  0  0  0
   18.4545   -5.5000    0.0000 C   0  0  0  0  0  0  0  0  0  0  0  0
   10.6603    6.0000    0.0000 C   0  0  0  0  0  0  0  0  0  0  0  0
   16.7224   -4.5000    0.0000 C   0  0  0  0  0  0  0  0  0  0  0  0
   11.5263    7.5000    0.0000 C   0  0  0  0  0  0  0  0  0  0  0  0
   18.4545   -4.5000    0.0000 C   0  0  0  0  0  0  0  0  0  0  0  0
   11.5263    6.5000    0.0000 C   0  0  0  0  0  0  0  0  0  0  0  0
   17.5885   -4.0000    0.0000 C   0  0  0  0  0  0  0  0  0  0  0  0
   11.5263    4.5000    0.0000 C   0  0  0  0  0  0  0  0  0  0  0  0
   15.8564   -3.0000    0.0000 C   0  0  0  0  0  0  0  0  0  0  0  0
   11.5263    3.5000    0.0000 C   0  0  0  0  0  0  0  0  0  0  0  0
   14.9904   -2.5000    0.0000 C   0  0  0  0  0  0  0  0  0  0  0  0
   12.3923    2.0000    0.0000 C   0  0  0  0  0  0  0  0  0  0  0  0
   14.1244   -1.0000    0.0000 C   0  0  0  0  0  0  0  0  0  0  0  0
   13.2583    1.5000    0.0000 C   0  0  0  0  0  0  0  0  0  0  0  0
   14.1244    0.0000    0.0000 C   0  0  0  0  0  0  0  0  0  0  0  0
    6.9407   13.3923    0.0000 H   0  0  0  0  0  0  0  0  0  0  0  0
    6.5422   14.0826    0.0000 H   0  0  0  0  0  0  0  0  0  0  0  0
    5.0656   11.5251    0.0000 H   0  0  0  0  0  0  0  0  0  0  0  0
    5.8626   11.5251    0.0000 H   0  0  0  0  0  0  0  0  0  0  0  0
   16.4670  -12.1077    0.0000 H   0  0  0  0  0  0  0  0  0  0  0  0
   16.0685  -11.4174    0.0000 H   0  0  0  0  0  0  0  0  0  0  0  0
   13.9123  -11.4174    0.0000 H   0  0  0  0  0  0  0  0  0  0  0  0
   13.5138  -12.1077    0.0000 H   0  0  0  0  0  0  0  0  0  0  0  0
    5.8626   14.4749    0.0000 H   0  0  0  0  0  0  0  0  0  0  0  0
    5.0656   14.4749    0.0000 H   0  0  0  0  0  0  0  0  0  0  0  0
    3.9875   12.6077    0.0000 H   0  0  0  0  0  0  0  0  0  0  0  0
    4.3860   11.9174    0.0000 H   0  0  0  0  0  0  0  0  0  0  0  0
   16.0685  -13.5826    0.0000 H   0  0  0  0  0  0  0  0  0  0  0  0
   16.4670  -12.8923    0.0000 H   0  0  0  0  0  0  0  0  0  0  0  0
   13.5138  -12.8923    0.0000 H   0  0  0  0  0  0  0  0  0  0  0  0
   13.9123  -13.5826    0.0000 H   0  0  0  0  0  0  0  0  0  0  0  0
    7.8067   11.8923    0.0000 H   0  0  0  0  0  0  0  0  0  0  0  0
    7.4082   12.5826    0.0000 H   0  0  0  0  0  0  0  0  0  0  0  0
   14.7783   -9.9174    0.0000 H   0  0  0  0  0  0  0  0  0  0  0  0
   14.3798  -10.6077    0.0000 H   0  0  0  0  0  0  0  0  0  0  0  0
    6.5856   11.1077    0.0000 H   0  0  0  0  0  0  0  0  0  0  0  0
    6.9841   10.4174    0.0000 H   0  0  0  0  0  0  0  0  0  0  0  0
   16.0685  -10.5826    0.0000 H   0  0  0  0  0  0  0  0  0  0  0  0
   16.4670   -9.8923    0.0000 H   0  0  0  0  0  0  0  0  0  0  0  0
    8.6728   10.3923    0.0000 H   0  0  0  0  0  0  0  0  0  0  0  0
    8.2742   11.0826    0.0000 H   0  0  0  0  0  0  0  0  0  0  0  0
   15.6444   -8.4174    0.0000 H   0  0  0  0  0  0  0  0  0  0  0  0
   15.2458   -9.1077    0.0000 H   0  0  0  0  0  0  0  0  0  0  0  0
    7.4516    9.6077    0.0000 H   0  0  0  0  0  0  0  0  0  0  0  0
    7.8501    8.9174    0.0000 H   0  0  0  0  0  0  0  0  0  0  0  0
   16.9345   -9.0826    0.0000 H   0  0  0  0  0  0  0  0  0  0  0  0
   17.3330   -8.3923    0.0000 H   0  0  0  0  0  0  0  0  0  0  0  0
    2.8660   12.8800    0.0000 H   0  0  0  0  0  0  0  0  0  0  0  0
   16.3933  -14.6900    0.0000 H   0  0  0  0  0  0  0  0  0  0  0  0
    2.8660   16.1200    0.0000 H   0  0  0  0  0  0  0  0  0  0  0  0
   13.5874  -16.3100    0.0000 H   0  0  0  0  0  0  0  0  0  0  0  0
    1.4631   13.6900    0.0000 H   0  0  0  0  0  0  0  0  0  0  0  0
   16.3933  -16.3100    0.0000 H   0  0  0  0  0  0  0  0  0  0  0  0
    9.4651    9.3100    0.0000 H   0  0  0  0  0  0  0  0  0  0  0  0
   16.1855   -7.1900    0.0000 H   0  0  0  0  0  0  0  0  0  0  0  0
    1.4631   15.3100    0.0000 H   0  0  0  0  0  0  0  0  0  0  0  0
   14.9904  -17.1200    0.0000 H   0  0  0  0  0  0  0  0  0  0  0  0
    5.2181   16.5000    0.0000 H   0  0  0  0  0  0  0  0  0  0  0  0
    4.5981   17.1200    0.0000 H   0  0  0  0  0  0  0  0  0  0  0  0
    3.9781   16.5000    0.0000 H   0  0  0  0  0  0  0  0  0  0  0  0
   12.0823  -14.4631    0.0000 H   0  0  0  0  0  0  0  0  0  0  0  0
   11.8554  -15.3100    0.0000 H   0  0  0  0  0  0  0  0  0  0  0  0
   12.7023  -15.5369    0.0000 H   0  0  0  0  0  0  0  0  0  0  0  0
    9.2573    6.1900    0.0000 H   0  0  0  0  0  0  0  0  0  0  0  0
   16.1855   -5.8100    0.0000 H   0  0  0  0  0  0  0  0  0  0  0  0
   10.6603    8.6200    0.0000 H   0  0  0  0  0  0  0  0  0  0  0  0
   18.9914   -5.8100    0.0000 H   0  0  0  0  0  0  0  0  0  0  0  0
   12.0632    7.8100    0.0000 H   0  0  0  0  0  0  0  0  0  0  0  0
   18.9914   -4.1900    0.0000 H   0  0  0  0  0  0  0  0  0  0  0  0
   12.0632    6.1900    0.0000 H   0  0  0  0  0  0  0  0  0  0  0  0
   17.5885   -3.3800    0.0000 H   0  0  0  0  0  0  0  0  0  0  0  0
   12.1369    4.3923    0.0000 H   0  0  0  0  0  0  0  0  0  0  0  0
   11.7383    5.0826    0.0000 H   0  0  0  0  0  0  0  0  0  0  0  0
   16.4670   -3.1077    0.0000 H   0  0  0  0  0  0  0  0  0  0  0  0
   16.0685   -2.4174    0.0000 H   0  0  0  0  0  0  0  0  0  0  0  0
   10.9157    3.6077    0.0000 H   0  0  0  0  0  0  0  0  0  0  0  0
   11.3142    2.9174    0.0000 H   0  0  0  0  0  0  0  0  0  0  0  0
   14.3798   -2.3923    0.0000 H   0  0  0  0  0  0  0  0  0  0  0  0
   14.7783   -3.0826    0.0000 H   0  0  0  0  0  0  0  0  0  0  0  0
   11.7817    2.1077    0.0000 H   0  0  0  0  0  0  0  0  0  0  0  0
   12.1803    1.4174    0.0000 H   0  0  0  0  0  0  0  0  0  0  0  0
   13.5138   -0.8923    0.0000 H   0  0  0  0  0  0  0  0  0  0  0  0
   13.9123   -1.5826    0.0000 H   0  0  0  0  0  0  0  0  0  0  0  0
   13.8689    1.3923    0.0000 H   0  0  0  0  0  0  0  0  0  0  0  0
   13.4704    2.0826    0.0000 H   0  0  0  0  0  0  0  0  0  0  0  0
   14.7349   -0.1077    0.0000 H   0  0  0  0  0  0  0  0  0  0  0  0
   14.3364    0.5826    0.0000 H   0  0  0  0  0  0  0  0  0  0  0  0
  1 34  1  0  0  0  0
  1 46  1  0  0  0  0
  2 35  1  0  0  0  0
  2 47  1  0  0  0  0
  3 44  2  0  0  0  0
  4 45  2  0  0  0  0
  5 54  1  0  0  0  0
  5 60  1  0  0  0  0
  6 55  1  0  0  0  0
  6 61  1  0  0  0  0
  7 62  1  0  0  0  0
  7 64  1  0  0  0  0
  8 63  1  0  0  0  0
  8 65  1  0  0  0  0
  9 66  1  0  0  0  0
  9 67  1  0  0  0  0
 10 16  1  0  0  0  0
 10 17  1  0  0  0  0
 10 24  1  0  0  0  0
 11 18  1  0  0  0  0
 11 19  1  0  0  0  0
 11 25  1  0  0  0  0
 12 20  1  0  0  0  0
 12 21  1  0  0  0  0
 12 28  1  0  0  0  0
 13 22  1  0  0  0  0
 13 23  1  0  0  0  0
 13 29  1  0  0  0  0
 14 32  1  0  0  0  0
 14 44  1  0  0  0  0
 14106  1  0  0  0  0
 15 33  1  0  0  0  0
 15 45  1  0  0  0  0
 15107  1  0  0  0  0
 16 20  1  0  0  0  0
 16 68  1  0  0  0  0
 16 69  1  0  0  0  0
 17 21  1  0  0  0  0
 17 70  1  0  0  0  0
 17 71  1  0  0  0  0
 18 22  1  0  0  0  0
 18 72  1  0  0  0  0
 18 73  1  0  0  0  0
 19 23  1  0  0  0  0
 19 74  1  0  0  0  0
 19 75  1  0  0  0  0
 20 76  1  0  0  0  0
 20 77  1  0  0  0  0
 21 78  1  0  0  0  0
 21 79  1  0  0  0  0
 22 80  1  0  0  0  0
 22 81  1  0  0  0  0
 23 82  1  0  0  0  0
 23 83  1  0  0  0  0
 24 26  1  0  0  0  0
 24 84  1  0  0  0  0
 24 85  1  0  0  0  0
 25 27  1  0  0  0  0
 25 86  1  0  0  0  0
 25 87  1  0  0  0  0
 26 30  1  0  0  0  0
 26 88  1  0  0  0  0
 26 89  1  0  0  0  0
 27 31  1  0  0  0  0
 27 90  1  0  0  0  0
 27 91  1  0  0  0  0
 28 34  1  0  0  0  0
 28 36  2  0  0  0  0
 29 35  1  0  0  0  0
 29 37  2  0  0  0  0
 30 32  1  0  0  0  0
 30 92  1  0  0  0  0
 30 93  1  0  0  0  0
 31 33  1  0  0  0  0
 31 94  1  0  0  0  0
 31 95  1  0  0  0  0
 32 96  1  0  0  0  0
 32 97  1  0  0  0  0
 33 98  1  0  0  0  0
 33 99  1  0  0  0  0
 34 38  2  0  0  0  0
 35 39  2  0  0  0  0
 36 40  1  0  0  0  0
 36100  1  0  0  0  0
 37 41  1  0  0  0  0
 37101  1  0  0  0  0
 38 42  1  0  0  0  0
 38102  1  0  0  0  0
 39 43  1  0  0  0  0
 39103  1  0  0  0  0
 40 42  2  0  0  0  0
 40104  1  0  0  0  0
 41 43  2  0  0  0  0
 41105  1  0  0  0  0
 42108  1  0  0  0  0
 43109  1  0  0  0  0
 44 48  1  0  0  0  0
 45 49  1  0  0  0  0
 46110  1  0  0  0  0
 46111  1  0  0  0  0
 46112  1  0  0  0  0
 47113  1  0  0  0  0
 47114  1  0  0  0  0
 47115  1  0  0  0  0
 48 50  2  0  0  0  0
 48 52  1  0  0  0  0
 49 51  2  0  0  0  0
 49 53  1  0  0  0  0
 50 54  1  0  0  0  0
 50116  1  0  0  0  0
 51 55  1  0  0  0  0
 51117  1  0  0  0  0
 52 56  2  0  0  0  0
 52118  1  0  0  0  0
 53 57  2  0  0  0  0
 53119  1  0  0  0  0
 54 58  2  0  0  0  0
 55 59  2  0  0  0  0
 56 58  1  0  0  0  0
 56120  1  0  0  0  0
 57 59  1  0  0  0  0
 57121  1  0  0  0  0
 58122  1  0  0  0  0
 59123  1  0  0  0  0
 60 62  1  0  0  0  0
 60124  1  0  0  0  0
 60125  1  0  0  0  0
 61 63  1  0  0  0  0
 61126  1  0  0  0  0
 61127  1  0  0  0  0
 62128  1  0  0  0  0
 62129  1  0  0  0  0
 63130  1  0  0  0  0
 63131  1  0  0  0  0
 64 66  1  0  0  0  0
 64132  1  0  0  0  0
 64133  1  0  0  0  0
 65 67  1  0  0  0  0
 65134  1  0  0  0  0
 65135  1  0  0  0  0
 66136  1  0  0  0  0
 66137  1  0  0  0  0
 67138  1  0  0  0  0
 67139  1  0  0  0  0
M  END
> <PUBCHEM_COMPOUND_CID>
57390116

> <PUBCHEM_COMPOUND_CANONICALIZED>
1

> <PUBCHEM_CACTVS_COMPLEXITY>
1230

> <PUBCHEM_CACTVS_HBOND_ACCEPTOR>
13

> <PUBCHEM_CACTVS_HBOND_DONOR>
2

> <PUBCHEM_CACTVS_ROTATABLE_BOND>
30

> <PUBCHEM_CACTVS_SUBSKEYS>
AAADcfB/vAAAAAAAAAAAAAAAAAAAAAAAAAA8eMGCAAAAAAABVAAAHgAQAAAADAzhmAYyxoPABACIAiVSUACCCAAlIgAIiIEPbMgPZjLEtZuXOSjk1hHa6Ye6yBCOAAABAAAAEAAAAAIAAAAgAAAAAAAAAA==

> <PUBCHEM_IUPAC_OPENEYE_NAME>
N-[4-[4-(2-methoxyphenyl)piperazin-1-yl]butyl]-3-[2-[2-[2-[2-[3-[4-[4-(2-methoxyphenyl)piperazin-1-yl]butylcarbamoyl]phenoxy]ethoxy]ethoxy]ethoxy]ethoxy]benzamide

> <PUBCHEM_IUPAC_CAS_NAME>
N-[4-[4-(2-methoxyphenyl)-1-piperazinyl]butyl]-3-[2-[2-[2-[2-[3-[[4-[4-(2-methoxyphenyl)-1-piperazinyl]butylamino]-oxomethyl]phenoxy]ethoxy]ethoxy]ethoxy]ethoxy]benzamide

> <PUBCHEM_IUPAC_NAME_MARKUP>
<I>N</I>-[4-[4-(2-methoxyphenyl)piperazin-1-yl]butyl]-3-[2-[2-[2-[2-[3-[4-[4-(2-methoxyphenyl)piperazin-1-yl]butylcarbamoyl]phenoxy]ethoxy]ethoxy]ethoxy]ethoxy]benzamide

> <PUBCHEM_IUPAC_NAME>
N-[4-[4-(2-methoxyphenyl)piperazin-1-yl]butyl]-3-[2-[2-[2-[2-[3-[4-[4-(2-methoxyphenyl)piperazin-1-yl]butylcarbamoyl]phenoxy]ethoxy]ethoxy]ethoxy]ethoxy]benzamide

> <PUBCHEM_IUPAC_SYSTEMATIC_NAME>
N-[4-[4-(2-methoxyphenyl)piperazin-1-yl]butyl]-3-[2-[2-[2-[2-[3-[4-[4-(2-methoxyphenyl)piperazin-1-yl]butylcarbamoyl]phenoxy]ethoxy]ethoxy]ethoxy]ethoxy]benzamide

> <PUBCHEM_IUPAC_TRADITIONAL_NAME>
N-[4-[4-(2-methoxyphenyl)piperazino]butyl]-3-[2-[2-[2-[2-[3-[4-[4-(2-methoxyphenyl)piperazino]butylcarbamoyl]phenoxy]ethoxy]ethoxy]ethoxy]ethoxy]benzamide

> <PUBCHEM_IUPAC_INCHI>
InChI=1S/C52H72N6O9/c1-61-49-19-5-3-17-47(49)57-29-25-55(26-30-57)23-9-7-21-53-51(59)43-13-11-15-45(41-43)66-39-37-64-35-33-63-34-36-65-38-40-67-46-16-12-14-44(42-46)52(60)54-22-8-10-24-56-27-31-58(32-28-56)48-18-4-6-20-50(48)62-2/h3-6,11-20,41-42H,7-10,21-40H2,1-2H3,(H,53,59)(H,54,60)

> <PUBCHEM_IUPAC_INCHIKEY>
LEFBFLOSCAEZAG-UHFFFAOYSA-N

> <PUBCHEM_XLOGP3_AA>
6.3

> <PUBCHEM_EXACT_MASS>
924.53607790

> <PUBCHEM_MOLECULAR_FORMULA>
C52H72N6O9

> <PUBCHEM_MOLECULAR_WEIGHT>
925.2

> <PUBCHEM_OPENEYE_CAN_SMILES>
COC1=CC=CC=C1N2CCN(CC2)CCCCNC(=O)C3=CC(=CC=C3)OCCOCCOCCOCCOC4=CC=CC(=C4)C(=O)NCCCCN5CCN(CC5)C6=CC=CC=C6OC

> <PUBCHEM_OPENEYE_ISO_SMILES>
COC1=CC=CC=C1N2CCN(CC2)CCCCNC(=O)C3=CC(=CC=C3)OCCOCCOCCOCCOC4=CC=CC(=C4)C(=O)NCCCCN5CCN(CC5)C6=CC=CC=C6OC

> <PUBCHEM_CACTVS_TPSA>
136

> <PUBCHEM_MONOISOTOPIC_WEIGHT>
924.53607790

> <PUBCHEM_TOTAL_CHARGE>
0

> <PUBCHEM_HEAVY_ATOM_COUNT>
67

> <PUBCHEM_ATOM_DEF_STEREO_COUNT>
0

> <PUBCHEM_ATOM_UDEF_STEREO_COUNT>
0

> <PUBCHEM_BOND_DEF_STEREO_COUNT>
0

> <PUBCHEM_BOND_UDEF_STEREO_COUNT>
0

> <PUBCHEM_ISOTOPIC_ATOM_COUNT>
0

> <PUBCHEM_COMPONENT_COUNT>
1

> <PUBCHEM_CACTVS_TAUTO_COUNT>
-1

> <PUBCHEM_COORDINATE_TYPE>
1
5
255

> <PUBCHEM_BONDANNOTATIONS>
28  34  8
28  36  8
29  35  8
29  37  8
34  38  8
35  39  8
36  40  8
37  41  8
38  42  8
39  43  8
40  42  8
41  43  8
48  50  8
48  52  8
49  51  8
49  53  8
50  54  8
51  55  8
52  56  8
53  57  8
54  58  8
55  59  8
56  58  8
57  59  8

$$$$
