155529153
  -OEChem-09292322412D

 45 47  0     1  0  0  0  0  0999 V2000
    8.9282    0.4050    0.0000 Se  0  0  0  0  0  0  0  0  0  0  0  0
    4.5981    0.9050    0.0000 N   0  0  0  0  0  0  0  0  0  0  0  0
    2.8660    1.9050    0.0000 N   0  0  0  0  0  0  0  0  0  0  0  0
    6.3301    0.9050    0.0000 N   0  0  0  0  0  0  0  0  0  0  0  0
    5.4641   -0.5950    0.0000 N   0  0  0  0  0  0  0  0  0  0  0  0
    7.1962   -0.5950    0.0000 N   0  0  0  0  0  0  0  0  0  0  0  0
    6.3301   -2.0950    0.0000 N   0  0  0  0  0  0  0  0  0  0  0  0
    3.7320    0.4050    0.0000 C   0  0  0  0  0  0  0  0  0  0  0  0
    4.5981    1.9050    0.0000 C   0  0  0  0  0  0  0  0  0  0  0  0
    2.8660    0.9050    0.0000 C   0  0  0  0  0  0  0  0  0  0  0  0
    3.7320    2.4050    0.0000 C   0  0  0  0  0  0  0  0  0  0  0  0
    5.4641    0.4050    0.0000 C   0  0  0  0  0  0  0  0  0  0  0  0
    2.0000    2.4050    0.0000 C   0  0  0  0  0  0  0  0  0  0  0  0
    7.1962    0.4050    0.0000 C   0  0  0  0  0  0  0  0  0  0  0  0
    8.0622    0.9050    0.0000 C   0  0  3  0  0  0  0  0  0  0  0  0
    6.3301   -1.0950    0.0000 C   0  0  0  0  0  0  0  0  0  0  0  0
    8.0622    1.9050    0.0000 C   0  0  0  0  0  0  0  0  0  0  0  0
    9.7942    0.9050    0.0000 C   0  0  0  0  0  0  0  0  0  0  0  0
    9.7942    1.9050    0.0000 C   0  0  0  0  0  0  0  0  0  0  0  0
   10.6603    0.4050    0.0000 C   0  0  0  0  0  0  0  0  0  0  0  0
   10.6603    2.4050    0.0000 C   0  0  0  0  0  0  0  0  0  0  0  0
   11.5263    0.9050    0.0000 C   0  0  0  0  0  0  0  0  0  0  0  0
   11.5263    1.9050    0.0000 C   0  0  0  0  0  0  0  0  0  0  0  0
    3.3335   -0.0699    0.0000 H   0  0  0  0  0  0  0  0  0  0  0  0
    4.1306   -0.0699    0.0000 H   0  0  0  0  0  0  0  0  0  0  0  0
    5.2087    1.7973    0.0000 H   0  0  0  0  0  0  0  0  0  0  0  0
    4.8101    2.4876    0.0000 H   0  0  0  0  0  0  0  0  0  0  0  0
    2.2554    1.0127    0.0000 H   0  0  0  0  0  0  0  0  0  0  0  0
    2.6540    0.3224    0.0000 H   0  0  0  0  0  0  0  0  0  0  0  0
    4.1306    2.8800    0.0000 H   0  0  0  0  0  0  0  0  0  0  0  0
    3.3335    2.8800    0.0000 H   0  0  0  0  0  0  0  0  0  0  0  0
    2.3100    2.9419    0.0000 H   0  0  0  0  0  0  0  0  0  0  0  0
    1.4631    2.7150    0.0000 H   0  0  0  0  0  0  0  0  0  0  0  0
    1.6900    1.8681    0.0000 H   0  0  0  0  0  0  0  0  0  0  0  0
    8.5991    1.2150    0.0000 H   0  0  0  0  0  0  0  0  0  0  0  0
    8.6822    1.9050    0.0000 H   0  0  0  0  0  0  0  0  0  0  0  0
    8.0622    2.5250    0.0000 H   0  0  0  0  0  0  0  0  0  0  0  0
    7.4422    1.9050    0.0000 H   0  0  0  0  0  0  0  0  0  0  0  0
    6.8671   -2.4050    0.0000 H   0  0  0  0  0  0  0  0  0  0  0  0
    5.7932   -2.4050    0.0000 H   0  0  0  0  0  0  0  0  0  0  0  0
    9.2573    2.2150    0.0000 H   0  0  0  0  0  0  0  0  0  0  0  0
   10.6603   -0.2150    0.0000 H   0  0  0  0  0  0  0  0  0  0  0  0
   10.6603    3.0250    0.0000 H   0  0  0  0  0  0  0  0  0  0  0  0
   12.0632    0.5950    0.0000 H   0  0  0  0  0  0  0  0  0  0  0  0
   12.0632    2.2150    0.0000 H   0  0  0  0  0  0  0  0  0  0  0  0
  1 15  1  0  0  0  0
  1 18  1  0  0  0  0
  2  8  1  0  0  0  0
  2  9  1  0  0  0  0
  2 12  1  0  0  0  0
  3 10  1  0  0  0  0
  3 11  1  0  0  0  0
  3 13  1  0  0  0  0
  4 12  2  0  0  0  0
  4 14  1  0  0  0  0
  5 12  1  0  0  0  0
  5 16  2  0  0  0  0
  6 14  2  0  0  0  0
  6 16  1  0  0  0  0
  7 16  1  0  0  0  0
  7 39  1  0  0  0  0
  7 40  1  0  0  0  0
  8 10  1  0  0  0  0
  8 24  1  0  0  0  0
  8 25  1  0  0  0  0
  9 11  1  0  0  0  0
  9 26  1  0  0  0  0
  9 27  1  0  0  0  0
 10 28  1  0  0  0  0
 10 29  1  0  0  0  0
 11 30  1  0  0  0  0
 11 31  1  0  0  0  0
 13 32  1  0  0  0  0
 13 33  1  0  0  0  0
 13 34  1  0  0  0  0
 14 15  1  0  0  0  0
 15 17  1  0  0  0  0
 15 35  1  0  0  0  0
 17 36  1  0  0  0  0
 17 37  1  0  0  0  0
 17 38  1  0  0  0  0
 18 19  2  0  0  0  0
 18 20  1  0  0  0  0
 19 21  1  0  0  0  0
 19 41  1  0  0  0  0
 20 22  2  0  0  0  0
 20 42  1  0  0  0  0
 21 23  2  0  0  0  0
 21 43  1  0  0  0  0
 22 23  1  0  0  0  0
 22 44  1  0  0  0  0
 23 45  1  0  0  0  0
M  END
> <PUBCHEM_COMPOUND_CID>
155529153

> <PUBCHEM_COMPOUND_CANONICALIZED>
1

> <PUBCHEM_CACTVS_COMPLEXITY>
357

> <PUBCHEM_CACTVS_HBOND_ACCEPTOR>
6

> <PUBCHEM_CACTVS_HBOND_DONOR>
1

> <PUBCHEM_CACTVS_ROTATABLE_BOND>
4

> <PUBCHEM_CACTVS_SUBSKEYS>
AAADceB7gAAAAAAAIAAAAAAAAAAAAAAAAAA8WIAAAAAAAAABwAAAHACQAAAACADBEwQzEIdIEACgACJiJAACgAkgAKAJiAA4AIiIaCKAGRCUIAAogAKIiAcAAAAAAAAAAAAAAAAAAAAAAAAAAAAAAAAAAA==

> <PUBCHEM_IUPAC_OPENEYE_NAME>
4-(4-methylpiperazin-1-yl)-6-(1-phenylselanylethyl)-1,3,5-triazin-2-amine

> <PUBCHEM_IUPAC_CAS_NAME>
4-(4-methyl-1-piperazinyl)-6-[1-(phenylseleno)ethyl]-1,3,5-triazin-2-amine

> <PUBCHEM_IUPAC_NAME_MARKUP>
4-(4-methylpiperazin-1-yl)-6-(1-phenylselanylethyl)-1,3,5-triazin-2-amine

> <PUBCHEM_IUPAC_NAME>
4-(4-methylpiperazin-1-yl)-6-(1-phenylselanylethyl)-1,3,5-triazin-2-amine

> <PUBCHEM_IUPAC_SYSTEMATIC_NAME>
4-(4-methylpiperazin-1-yl)-6-(1-phenylselanylethyl)-1,3,5-triazin-2-amine

> <PUBCHEM_IUPAC_TRADITIONAL_NAME>
[4-(4-methylpiperazino)-6-[1-(phenylseleno)ethyl]-s-triazin-2-yl]amine

> <PUBCHEM_IUPAC_INCHI>
InChI=1S/C16H22N6Se/c1-12(23-13-6-4-3-5-7-13)14-18-15(17)20-16(19-14)22-10-8-21(2)9-11-22/h3-7,12H,8-11H2,1-2H3,(H2,17,18,19,20)

> <PUBCHEM_IUPAC_INCHIKEY>
AZROEFQJTPGYDS-UHFFFAOYSA-N

> <PUBCHEM_EXACT_MASS>
378.10712

> <PUBCHEM_MOLECULAR_FORMULA>
C16H22N6Se

> <PUBCHEM_MOLECULAR_WEIGHT>
377.4

> <PUBCHEM_OPENEYE_CAN_SMILES>
CC(C1=NC(=NC(=N1)N2CCN(CC2)C)N)[Se]C3=CC=CC=C3

> <PUBCHEM_OPENEYE_ISO_SMILES>
CC(C1=NC(=NC(=N1)N2CCN(CC2)C)N)[Se]C3=CC=CC=C3

> <PUBCHEM_CACTVS_TPSA>
71.2

> <PUBCHEM_MONOISOTOPIC_WEIGHT>
378.10712

> <PUBCHEM_TOTAL_CHARGE>
0

> <PUBCHEM_HEAVY_ATOM_COUNT>
23

> <PUBCHEM_ATOM_DEF_STEREO_COUNT>
0

> <PUBCHEM_ATOM_UDEF_STEREO_COUNT>
1

> <PUBCHEM_BOND_DEF_STEREO_COUNT>
0

> <PUBCHEM_BOND_UDEF_STEREO_COUNT>
0

> <PUBCHEM_ISOTOPIC_ATOM_COUNT>
0

> <PUBCHEM_COMPONENT_COUNT>
1

> <PUBCHEM_CACTVS_TAUTO_COUNT>
-1

> <PUBCHEM_COORDINATE_TYPE>
1
5
255

> <PUBCHEM_BONDANNOTATIONS>
15  17  3
18  19  8
18  20  8
19  21  8
20  22  8
21  23  8
22  23  8
4  12  8
4  14  8
5  12  8
5  16  8
6  14  8
6  16  8

$$$$
