44338297
  -OEChem-09292322192D

 47 50  0     0  0  0  0  0  0999 V2000
    8.9030    3.1861    0.0000 Cl  0  0  0  0  0  0  0  0  0  0  0  0
    9.2619   -2.8581    0.0000 O   0  0  0  0  0  0  0  0  0  0  0  0
    7.7619   -3.7242    0.0000 O   0  0  0  0  0  0  0  0  0  0  0  0
    4.6783    1.4107    0.0000 N   0  0  0  0  0  0  0  0  0  0  0  0
    4.6783   -0.1988    0.0000 N   0  0  0  0  0  0  0  0  0  0  0  0
    5.2619    0.6060    0.0000 C   0  0  0  0  0  0  0  0  0  0  0  0
    3.7320    1.1060    0.0000 C   0  0  0  0  0  0  0  0  0  0  0  0
    4.9889    2.3612    0.0000 C   0  0  0  0  0  0  0  0  0  0  0  0
    6.2619    0.6060    0.0000 C   0  0  0  0  0  0  0  0  0  0  0  0
    3.7320    0.1060    0.0000 C   0  0  0  0  0  0  0  0  0  0  0  0
    5.9674    2.5674    0.0000 C   0  0  0  0  0  0  0  0  0  0  0  0
    6.7619   -0.2601    0.0000 C   0  0  0  0  0  0  0  0  0  0  0  0
    2.8660    1.6060    0.0000 C   0  0  0  0  0  0  0  0  0  0  0  0
    2.8660   -0.3940    0.0000 C   0  0  0  0  0  0  0  0  0  0  0  0
    2.0000    1.1060    0.0000 C   0  0  0  0  0  0  0  0  0  0  0  0
    2.0000    0.1060    0.0000 C   0  0  0  0  0  0  0  0  0  0  0  0
    7.7619   -0.2601    0.0000 C   0  0  0  0  0  0  0  0  0  0  0  0
    6.2619   -1.1261    0.0000 C   0  0  0  0  0  0  0  0  0  0  0  0
    6.2781    3.5180    0.0000 C   0  0  0  0  0  0  0  0  0  0  0  0
    6.6353    1.8231    0.0000 C   0  0  0  0  0  0  0  0  0  0  0  0
    8.2619   -1.1261    0.0000 C   0  0  0  0  0  0  0  0  0  0  0  0
    6.7619   -1.9921    0.0000 C   0  0  0  0  0  0  0  0  0  0  0  0
    7.7619   -1.9921    0.0000 C   0  0  0  0  0  0  0  0  0  0  0  0
    7.2566    3.7242    0.0000 C   0  0  0  0  0  0  0  0  0  0  0  0
    7.6138    2.0294    0.0000 C   0  0  0  0  0  0  0  0  0  0  0  0
    7.9244    2.9799    0.0000 C   0  0  0  0  0  0  0  0  0  0  0  0
    8.2619   -2.8581    0.0000 C   0  0  0  0  0  0  0  0  0  0  0  0
    9.7619   -3.7242    0.0000 C   0  0  0  0  0  0  0  0  0  0  0  0
    4.9684    2.9809    0.0000 H   0  0  0  0  0  0  0  0  0  0  0  0
    4.3751    2.4486    0.0000 H   0  0  0  0  0  0  0  0  0  0  0  0
    6.8445    0.8180    0.0000 H   0  0  0  0  0  0  0  0  0  0  0  0
    6.1542    1.2165    0.0000 H   0  0  0  0  0  0  0  0  0  0  0  0
    2.8660    2.2260    0.0000 H   0  0  0  0  0  0  0  0  0  0  0  0
    2.8660   -1.0140    0.0000 H   0  0  0  0  0  0  0  0  0  0  0  0
    1.4631    1.4160    0.0000 H   0  0  0  0  0  0  0  0  0  0  0  0
    1.4631   -0.2040    0.0000 H   0  0  0  0  0  0  0  0  0  0  0  0
    8.0719    0.2769    0.0000 H   0  0  0  0  0  0  0  0  0  0  0  0
    5.6419   -1.1261    0.0000 H   0  0  0  0  0  0  0  0  0  0  0  0
    5.8640    3.9794    0.0000 H   0  0  0  0  0  0  0  0  0  0  0  0
    6.4427    1.2338    0.0000 H   0  0  0  0  0  0  0  0  0  0  0  0
    8.8819   -1.1261    0.0000 H   0  0  0  0  0  0  0  0  0  0  0  0
    6.4519   -2.5290    0.0000 H   0  0  0  0  0  0  0  0  0  0  0  0
    7.4492    4.3135    0.0000 H   0  0  0  0  0  0  0  0  0  0  0  0
    8.0279    1.5679    0.0000 H   0  0  0  0  0  0  0  0  0  0  0  0
    9.2249   -4.0342    0.0000 H   0  0  0  0  0  0  0  0  0  0  0  0
   10.0719   -4.2611    0.0000 H   0  0  0  0  0  0  0  0  0  0  0  0
   10.2988   -3.4142    0.0000 H   0  0  0  0  0  0  0  0  0  0  0  0
  1 26  1  0  0  0  0
  2 27  1  0  0  0  0
  2 28  1  0  0  0  0
  3 27  2  0  0  0  0
  4  6  1  0  0  0  0
  4  7  1  0  0  0  0
  4  8  1  0  0  0  0
  5  6  2  0  0  0  0
  5 10  1  0  0  0  0
  6  9  1  0  0  0  0
  7 10  1  0  0  0  0
  7 13  2  0  0  0  0
  8 11  1  0  0  0  0
  8 29  1  0  0  0  0
  8 30  1  0  0  0  0
  9 12  1  0  0  0  0
  9 31  1  0  0  0  0
  9 32  1  0  0  0  0
 10 14  2  0  0  0  0
 11 19  2  0  0  0  0
 11 20  1  0  0  0  0
 12 17  2  0  0  0  0
 12 18  1  0  0  0  0
 13 15  1  0  0  0  0
 13 33  1  0  0  0  0
 14 16  1  0  0  0  0
 14 34  1  0  0  0  0
 15 16  2  0  0  0  0
 15 35  1  0  0  0  0
 16 36  1  0  0  0  0
 17 21  1  0  0  0  0
 17 37  1  0  0  0  0
 18 22  2  0  0  0  0
 18 38  1  0  0  0  0
 19 24  1  0  0  0  0
 19 39  1  0  0  0  0
 20 25  2  0  0  0  0
 20 40  1  0  0  0  0
 21 23  2  0  0  0  0
 21 41  1  0  0  0  0
 22 23  1  0  0  0  0
 22 42  1  0  0  0  0
 23 27  1  0  0  0  0
 24 26  2  0  0  0  0
 24 43  1  0  0  0  0
 25 26  1  0  0  0  0
 25 44  1  0  0  0  0
 28 45  1  0  0  0  0
 28 46  1  0  0  0  0
 28 47  1  0  0  0  0
M  END
> <PUBCHEM_COMPOUND_CID>
44338297

> <PUBCHEM_COMPOUND_CANONICALIZED>
1

> <PUBCHEM_CACTVS_COMPLEXITY>
515

> <PUBCHEM_CACTVS_HBOND_ACCEPTOR>
3

> <PUBCHEM_CACTVS_HBOND_DONOR>
0

> <PUBCHEM_CACTVS_ROTATABLE_BOND>
6

> <PUBCHEM_CACTVS_SUBSKEYS>
AAADceB7MAAEAAAAAAAAAAAAAAAAAWAAAAAwYMAAAAAAAFgB9AAAHgIAAAAADArBnyYz2LcMFACoAybybACCgC0lF6AJ2CE4ftiIbrLBv5mUMQhswAPI6aeYyPCORAAAAAAAACCIAAAAAAAAQAAAAAAAAA==

> <PUBCHEM_IUPAC_OPENEYE_NAME>
methyl 4-[[1-[(4-chlorophenyl)methyl]benzimidazol-2-yl]methyl]benzoate

> <PUBCHEM_IUPAC_CAS_NAME>
4-[[1-[(4-chlorophenyl)methyl]-2-benzimidazolyl]methyl]benzoic acid methyl ester

> <PUBCHEM_IUPAC_NAME_MARKUP>
methyl 4-[[1-[(4-chlorophenyl)methyl]benzimidazol-2-yl]methyl]benzoate

> <PUBCHEM_IUPAC_NAME>
methyl 4-[[1-[(4-chlorophenyl)methyl]benzimidazol-2-yl]methyl]benzoate

> <PUBCHEM_IUPAC_SYSTEMATIC_NAME>
methyl 4-[[1-[(4-chlorophenyl)methyl]benzimidazol-2-yl]methyl]benzoate

> <PUBCHEM_IUPAC_TRADITIONAL_NAME>
4-[[1-(4-chlorobenzyl)benzimidazol-2-yl]methyl]benzoic acid methyl ester

> <PUBCHEM_IUPAC_INCHI>
InChI=1S/C23H19ClN2O2/c1-28-23(27)18-10-6-16(7-11-18)14-22-25-20-4-2-3-5-21(20)26(22)15-17-8-12-19(24)13-9-17/h2-13H,14-15H2,1H3

> <PUBCHEM_IUPAC_INCHIKEY>
KJIJBYGPXHPNJY-UHFFFAOYSA-N

> <PUBCHEM_XLOGP3_AA>
5.5

> <PUBCHEM_EXACT_MASS>
390.1135055

> <PUBCHEM_MOLECULAR_FORMULA>
C23H19ClN2O2

> <PUBCHEM_MOLECULAR_WEIGHT>
390.9

> <PUBCHEM_OPENEYE_CAN_SMILES>
COC(=O)C1=CC=C(C=C1)CC2=NC3=CC=CC=C3N2CC4=CC=C(C=C4)Cl

> <PUBCHEM_OPENEYE_ISO_SMILES>
COC(=O)C1=CC=C(C=C1)CC2=NC3=CC=CC=C3N2CC4=CC=C(C=C4)Cl

> <PUBCHEM_CACTVS_TPSA>
44.1

> <PUBCHEM_MONOISOTOPIC_WEIGHT>
390.1135055

> <PUBCHEM_TOTAL_CHARGE>
0

> <PUBCHEM_HEAVY_ATOM_COUNT>
28

> <PUBCHEM_ATOM_DEF_STEREO_COUNT>
0

> <PUBCHEM_ATOM_UDEF_STEREO_COUNT>
0

> <PUBCHEM_BOND_DEF_STEREO_COUNT>
0

> <PUBCHEM_BOND_UDEF_STEREO_COUNT>
0

> <PUBCHEM_ISOTOPIC_ATOM_COUNT>
0

> <PUBCHEM_COMPONENT_COUNT>
1

> <PUBCHEM_CACTVS_TAUTO_COUNT>
-1

> <PUBCHEM_COORDINATE_TYPE>
1
5
255

> <PUBCHEM_BONDANNOTATIONS>
10  14  8
11  19  8
11  20  8
12  17  8
12  18  8
13  15  8
14  16  8
15  16  8
17  21  8
18  22  8
19  24  8
20  25  8
21  23  8
22  23  8
24  26  8
25  26  8
4  6  8
4  7  8
5  10  8
5  6  8
7  10  8
7  13  8

$$$$
