44554818
  -OEChem-09292321592D

 48 51  0     1  0  0  0  0  0999 V2000
    6.4260   -1.6315    0.0000 O   0  0  0  0  0  0  0  0  0  0  0  0
    2.9176   -2.6315    0.0000 O   0  0  0  0  0  0  0  0  0  0  0  0
    6.4260    0.4378    0.0000 N   0  0  3  0  0  0  0  0  0  0  0  0
    9.0641   -1.1244    0.0000 N   0  0  0  0  0  0  0  0  0  0  0  0
    9.9761   -1.5346    0.0000 N   0  0  0  0  0  0  0  0  0  0  0  0
   10.1514    0.0739    0.0000 N   0  0  0  0  0  0  0  0  0  0  0  0
    5.5321   -0.0969    0.0000 C   0  0  1  0  0  0  0  0  0  0  0  0
    5.5321   -1.0969    0.0000 C   0  0  1  0  0  0  0  0  0  0  0  0
    4.6660    0.4031    0.0000 C   0  0  0  0  0  0  0  0  0  0  0  0
    7.3321   -0.0760    0.0000 C   0  0  0  0  0  0  0  0  0  0  0  0
    4.6660   -1.5969    0.0000 C   0  0  0  0  0  0  0  0  0  0  0  0
    7.3321   -1.1177    0.0000 C   0  0  2  0  0  0  0  0  0  0  0  0
    3.8000   -0.0969    0.0000 C   0  0  0  0  0  0  0  0  0  0  0  0
    3.8000   -1.0969    0.0000 C   0  0  0  0  0  0  0  0  0  0  0  0
    6.4144    1.4377    0.0000 C   0  0  0  0  0  0  0  0  0  0  0  0
    8.1962   -1.6210    0.0000 C   0  0  0  0  0  0  0  0  0  0  0  0
    7.2746    1.9477    0.0000 C   0  0  0  0  0  0  0  0  0  0  0  0
    2.9061   -1.6315    0.0000 C   0  0  0  0  0  0  0  0  0  0  0  0
    2.9061    0.4378    0.0000 C   0  0  0  0  0  0  0  0  0  0  0  0
    2.0000   -1.1177    0.0000 C   0  0  0  0  0  0  0  0  0  0  0  0
    2.0000   -0.0760    0.0000 C   0  0  0  0  0  0  0  0  0  0  0  0
    7.2631    2.9476    0.0000 C   0  0  0  0  0  0  0  0  0  0  0  0
    9.1725   -0.1302    0.0000 C   0  0  0  0  0  0  0  0  0  0  0  0
   10.6481   -0.7940    0.0000 C   0  0  0  0  0  0  0  0  0  0  0  0
    5.5255    0.7531    0.0000 H   0  0  0  0  0  0  0  0  0  0  0  0
    5.5255   -1.9468    0.0000 H   0  0  0  0  0  0  0  0  0  0  0  0
    5.0646    0.8781    0.0000 H   0  0  0  0  0  0  0  0  0  0  0  0
    4.2675    0.8781    0.0000 H   0  0  0  0  0  0  0  0  0  0  0  0
    7.9429   -0.1821    0.0000 H   0  0  0  0  0  0  0  0  0  0  0  0
    7.5411    0.5076    0.0000 H   0  0  0  0  0  0  0  0  0  0  0  0
    4.2675   -2.0718    0.0000 H   0  0  0  0  0  0  0  0  0  0  0  0
    5.0646   -2.0718    0.0000 H   0  0  0  0  0  0  0  0  0  0  0  0
    7.3285   -1.7377    0.0000 H   0  0  0  0  0  0  0  0  0  0  0  0
    6.1957    2.0178    0.0000 H   0  0  0  0  0  0  0  0  0  0  0  0
    5.8051    1.3230    0.0000 H   0  0  0  0  0  0  0  0  0  0  0  0
    7.7958   -2.0944    0.0000 H   0  0  0  0  0  0  0  0  0  0  0  0
    8.5929   -2.0975    0.0000 H   0  0  0  0  0  0  0  0  0  0  0  0
    7.4934    1.3676    0.0000 H   0  0  0  0  0  0  0  0  0  0  0  0
    7.8839    2.0624    0.0000 H   0  0  0  0  0  0  0  0  0  0  0  0
    2.9132    1.0578    0.0000 H   0  0  0  0  0  0  0  0  0  0  0  0
    1.4643   -1.4298    0.0000 H   0  0  0  0  0  0  0  0  0  0  0  0
    1.4643    0.2360    0.0000 H   0  0  0  0  0  0  0  0  0  0  0  0
    7.8830    2.9548    0.0000 H   0  0  0  0  0  0  0  0  0  0  0  0
    7.2559    3.5676    0.0000 H   0  0  0  0  0  0  0  0  0  0  0  0
    6.6431    2.9405    0.0000 H   0  0  0  0  0  0  0  0  0  0  0  0
    2.3843   -2.9476    0.0000 H   0  0  0  0  0  0  0  0  0  0  0  0
    8.7133    0.2864    0.0000 H   0  0  0  0  0  0  0  0  0  0  0  0
   11.2644   -0.8612    0.0000 H   0  0  0  0  0  0  0  0  0  0  0  0
  1  8  1  0  0  0  0
  1 12  1  0  0  0  0
  2 18  1  0  0  0  0
  2 46  1  0  0  0  0
  3  7  1  0  0  0  0
  3 10  1  0  0  0  0
  3 15  1  0  0  0  0
  4  5  1  0  0  0  0
  4 16  1  0  0  0  0
  4 23  1  0  0  0  0
  5 24  2  0  0  0  0
  6 23  2  0  0  0  0
  6 24  1  0  0  0  0
  7  8  1  0  0  0  0
  7  9  1  0  0  0  0
  7 25  1  6  0  0  0
  8 11  1  0  0  0  0
  8 26  1  1  0  0  0
  9 13  1  0  0  0  0
  9 27  1  0  0  0  0
  9 28  1  0  0  0  0
 10 12  1  0  0  0  0
 10 29  1  0  0  0  0
 10 30  1  0  0  0  0
 11 14  1  0  0  0  0
 11 31  1  0  0  0  0
 11 32  1  0  0  0  0
 12 16  1  6  0  0  0
 12 33  1  0  0  0  0
 13 14  2  0  0  0  0
 13 19  1  0  0  0  0
 14 18  1  0  0  0  0
 15 17  1  0  0  0  0
 15 34  1  0  0  0  0
 15 35  1  0  0  0  0
 16 36  1  0  0  0  0
 16 37  1  0  0  0  0
 17 22  1  0  0  0  0
 17 38  1  0  0  0  0
 17 39  1  0  0  0  0
 18 20  2  0  0  0  0
 19 21  2  0  0  0  0
 19 40  1  0  0  0  0
 20 21  1  0  0  0  0
 20 41  1  0  0  0  0
 21 42  1  0  0  0  0
 22 43  1  0  0  0  0
 22 44  1  0  0  0  0
 22 45  1  0  0  0  0
 23 47  1  0  0  0  0
 24 48  1  0  0  0  0
M  END
> <PUBCHEM_COMPOUND_CID>
44554818

> <PUBCHEM_COMPOUND_CANONICALIZED>
1

> <PUBCHEM_CACTVS_COMPLEXITY>
424

> <PUBCHEM_CACTVS_HBOND_ACCEPTOR>
5

> <PUBCHEM_CACTVS_HBOND_DONOR>
1

> <PUBCHEM_CACTVS_ROTATABLE_BOND>
4

> <PUBCHEM_CACTVS_SUBSKEYS>
AAADceB7sAAAAAAAAAAAAAAAAAAAAWAAAAA8YIAAAAAAAADxwAAAHgAICAAADDzhmAY3FocIFgCiAiBDJAASAAswoIAdyAAOCIiKLiKC2ROHcAAswBOYmAfQ0LMOgAABAAAYAABQAAKAADAgAAAAAAAAAA==

> <PUBCHEM_IUPAC_OPENEYE_NAME>
(2R,4aR,10aR)-4-propyl-2-(1,2,4-triazol-1-ylmethyl)-2,3,4a,5,10,10a-hexahydrobenzo[g][1,4]benzoxazin-9-ol

> <PUBCHEM_IUPAC_CAS_NAME>
(2R,4aR,10aR)-4-propyl-2-(1,2,4-triazol-1-ylmethyl)-2,3,4a,5,10,10a-hexahydrobenzo[g][1,4]benzoxazin-9-ol

> <PUBCHEM_IUPAC_NAME_MARKUP>
(2<I>R</I>,4<I>a</I><I>R</I>,10<I>a</I><I>R</I>)-4-propyl-2-(1,2,4-triazol-1-ylmethyl)-2,3,4<I>a</I>,5,10,10<I>a</I>-hexahydrobenzo[g][1,4]benzoxazin-9-ol

> <PUBCHEM_IUPAC_NAME>
(2R,4aR,10aR)-4-propyl-2-(1,2,4-triazol-1-ylmethyl)-2,3,4a,5,10,10a-hexahydrobenzo[g][1,4]benzoxazin-9-ol

> <PUBCHEM_IUPAC_SYSTEMATIC_NAME>
(2R,4aR,10aR)-4-propyl-2-(1,2,4-triazol-1-ylmethyl)-2,3,4a,5,10,10a-hexahydrobenzo[g][1,4]benzoxazin-9-ol

> <PUBCHEM_IUPAC_TRADITIONAL_NAME>
(2R,4aR,10aR)-4-propyl-2-(1,2,4-triazol-1-ylmethyl)-2,3,4a,5,10,10a-hexahydrobenzo[g][1,4]benzoxazin-9-ol

> <PUBCHEM_IUPAC_INCHI>
InChI=1S/C18H24N4O2/c1-2-6-21-9-14(10-22-12-19-11-20-22)24-18-8-15-13(7-16(18)21)4-3-5-17(15)23/h3-5,11-12,14,16,18,23H,2,6-10H2,1H3/t14-,16-,18-/m1/s1

> <PUBCHEM_IUPAC_INCHIKEY>
BZWLDSMYMFIKPT-QGPMSJSTSA-N

> <PUBCHEM_XLOGP3_AA>
2.3

> <PUBCHEM_EXACT_MASS>
328.18992602

> <PUBCHEM_MOLECULAR_FORMULA>
C18H24N4O2

> <PUBCHEM_MOLECULAR_WEIGHT>
328.4

> <PUBCHEM_OPENEYE_CAN_SMILES>
CCCN1CC(OC2C1CC3=C(C2)C(=CC=C3)O)CN4C=NC=N4

> <PUBCHEM_OPENEYE_ISO_SMILES>
CCCN1C[C@@H](O[C@H]2[C@H]1CC3=C(C2)C(=CC=C3)O)CN4C=NC=N4

> <PUBCHEM_CACTVS_TPSA>
63.4

> <PUBCHEM_MONOISOTOPIC_WEIGHT>
328.18992602

> <PUBCHEM_TOTAL_CHARGE>
0

> <PUBCHEM_HEAVY_ATOM_COUNT>
24

> <PUBCHEM_ATOM_DEF_STEREO_COUNT>
3

> <PUBCHEM_ATOM_UDEF_STEREO_COUNT>
0

> <PUBCHEM_BOND_DEF_STEREO_COUNT>
0

> <PUBCHEM_BOND_UDEF_STEREO_COUNT>
0

> <PUBCHEM_ISOTOPIC_ATOM_COUNT>
0

> <PUBCHEM_COMPONENT_COUNT>
1

> <PUBCHEM_CACTVS_TAUTO_COUNT>
-1

> <PUBCHEM_COORDINATE_TYPE>
1
5
255

> <PUBCHEM_BONDANNOTATIONS>
12  16  6
13  14  8
13  19  8
14  18  8
18  20  8
19  21  8
20  21  8
4  23  8
4  5  8
5  24  8
6  23  8
6  24  8
7  25  6
8  26  5

$$$$
