24865725
  -OEChem-09292322242D

 63 66  0     0  0  0  0  0  0999 V2000
    3.0000    4.7673    0.0000 S   0  0  0  0  0  0  0  0  0  0  0  0
    9.0622   -2.7327    0.0000 O   0  0  0  0  0  0  0  0  0  0  0  0
    2.0000    4.7673    0.0000 O   0  0  0  0  0  0  0  0  0  0  0  0
    4.0000    4.7673    0.0000 O   0  0  0  0  0  0  0  0  0  0  0  0
    7.3301   -0.7327    0.0000 N   0  0  0  0  0  0  0  0  0  0  0  0
    3.0000    3.7673    0.0000 N   0  0  0  0  0  0  0  0  0  0  0  0
   10.8221   -5.7673    0.0000 N   0  0  0  0  0  0  0  0  0  0  0  0
    5.5981    0.2673    0.0000 C   0  0  0  0  0  0  0  0  0  0  0  0
    6.4641    0.7673    0.0000 C   0  0  0  0  0  0  0  0  0  0  0  0
    5.5981   -0.7327    0.0000 C   0  0  0  0  0  0  0  0  0  0  0  0
    7.3301    0.2673    0.0000 C   0  0  0  0  0  0  0  0  0  0  0  0
    6.4641   -1.2327    0.0000 C   0  0  0  0  0  0  0  0  0  0  0  0
    4.7320    0.7673    0.0000 C   0  0  0  0  0  0  0  0  0  0  0  0
    8.1962   -1.2327    0.0000 C   0  0  0  0  0  0  0  0  0  0  0  0
    4.7320    1.7673    0.0000 C   0  0  0  0  0  0  0  0  0  0  0  0
    8.1962   -2.2327    0.0000 C   0  0  0  0  0  0  0  0  0  0  0  0
    3.8660    2.2673    0.0000 C   0  0  0  0  0  0  0  0  0  0  0  0
    5.5981    2.2673    0.0000 C   0  0  0  0  0  0  0  0  0  0  0  0
    3.8660    3.2673    0.0000 C   0  0  0  0  0  0  0  0  0  0  0  0
    5.5981    3.2673    0.0000 C   0  0  0  0  0  0  0  0  0  0  0  0
    4.7320    3.7673    0.0000 C   0  0  0  0  0  0  0  0  0  0  0  0
    9.0622   -3.7327    0.0000 C   0  0  0  0  0  0  0  0  0  0  0  0
    9.9282   -4.2327    0.0000 C   0  0  0  0  0  0  0  0  0  0  0  0
    8.1962   -4.2327    0.0000 C   0  0  0  0  0  0  0  0  0  0  0  0
    9.9282   -5.2327    0.0000 C   0  0  0  0  0  0  0  0  0  0  0  0
   10.8221   -3.6980    0.0000 C   0  0  0  0  0  0  0  0  0  0  0  0
    8.1962   -5.2327    0.0000 C   0  0  0  0  0  0  0  0  0  0  0  0
    9.0622   -5.7327    0.0000 C   0  0  0  0  0  0  0  0  0  0  0  0
    3.0000    5.7673    0.0000 C   0  0  0  0  0  0  0  0  0  0  0  0
   11.7282   -4.2118    0.0000 C   0  0  0  0  0  0  0  0  0  0  0  0
   11.7282   -5.2535    0.0000 C   0  0  0  0  0  0  0  0  0  0  0  0
   12.5923   -5.7568    0.0000 C   0  0  0  0  0  0  0  0  0  0  0  0
    5.5981    0.8873    0.0000 H   0  0  0  0  0  0  0  0  0  0  0  0
    6.8626    1.2423    0.0000 H   0  0  0  0  0  0  0  0  0  0  0  0
    6.0656    1.2423    0.0000 H   0  0  0  0  0  0  0  0  0  0  0  0
    4.9875   -0.6250    0.0000 H   0  0  0  0  0  0  0  0  0  0  0  0
    5.3860   -1.3153    0.0000 H   0  0  0  0  0  0  0  0  0  0  0  0
    7.9407    0.1597    0.0000 H   0  0  0  0  0  0  0  0  0  0  0  0
    7.5422    0.8499    0.0000 H   0  0  0  0  0  0  0  0  0  0  0  0
    6.0656   -1.7076    0.0000 H   0  0  0  0  0  0  0  0  0  0  0  0
    6.8626   -1.7076    0.0000 H   0  0  0  0  0  0  0  0  0  0  0  0
    4.1215    0.8750    0.0000 H   0  0  0  0  0  0  0  0  0  0  0  0
    4.5200    0.1847    0.0000 H   0  0  0  0  0  0  0  0  0  0  0  0
    8.8067   -1.3403    0.0000 H   0  0  0  0  0  0  0  0  0  0  0  0
    8.4082   -0.6501    0.0000 H   0  0  0  0  0  0  0  0  0  0  0  0
    7.5856   -2.1250    0.0000 H   0  0  0  0  0  0  0  0  0  0  0  0
    7.9841   -2.8153    0.0000 H   0  0  0  0  0  0  0  0  0  0  0  0
    3.3291    1.9573    0.0000 H   0  0  0  0  0  0  0  0  0  0  0  0
    6.1350    1.9573    0.0000 H   0  0  0  0  0  0  0  0  0  0  0  0
    6.1350    3.5773    0.0000 H   0  0  0  0  0  0  0  0  0  0  0  0
    4.7320    4.3873    0.0000 H   0  0  0  0  0  0  0  0  0  0  0  0
    2.4631    3.4573    0.0000 H   0  0  0  0  0  0  0  0  0  0  0  0
    7.6592   -3.9227    0.0000 H   0  0  0  0  0  0  0  0  0  0  0  0
   10.8150   -3.0780    0.0000 H   0  0  0  0  0  0  0  0  0  0  0  0
    7.6592   -5.5427    0.0000 H   0  0  0  0  0  0  0  0  0  0  0  0
    9.0622   -6.3527    0.0000 H   0  0  0  0  0  0  0  0  0  0  0  0
    3.6200    5.7673    0.0000 H   0  0  0  0  0  0  0  0  0  0  0  0
    3.0000    6.3873    0.0000 H   0  0  0  0  0  0  0  0  0  0  0  0
    2.3800    5.7673    0.0000 H   0  0  0  0  0  0  0  0  0  0  0  0
   12.2639   -3.8998    0.0000 H   0  0  0  0  0  0  0  0  0  0  0  0
   12.2802   -6.2926    0.0000 H   0  0  0  0  0  0  0  0  0  0  0  0
   13.1280   -6.0689    0.0000 H   0  0  0  0  0  0  0  0  0  0  0  0
   12.9044   -5.2211    0.0000 H   0  0  0  0  0  0  0  0  0  0  0  0
  1  3  2  0  0  0  0
  1  4  2  0  0  0  0
  1  6  1  0  0  0  0
  1 29  1  0  0  0  0
  2 16  1  0  0  0  0
  2 22  1  0  0  0  0
  5 11  1  0  0  0  0
  5 12  1  0  0  0  0
  5 14  1  0  0  0  0
  6 19  1  0  0  0  0
  6 52  1  0  0  0  0
  7 25  1  0  0  0  0
  7 31  2  0  0  0  0
  8  9  1  0  0  0  0
  8 10  1  0  0  0  0
  8 13  1  0  0  0  0
  8 33  1  0  0  0  0
  9 11  1  0  0  0  0
  9 34  1  0  0  0  0
  9 35  1  0  0  0  0
 10 12  1  0  0  0  0
 10 36  1  0  0  0  0
 10 37  1  0  0  0  0
 11 38  1  0  0  0  0
 11 39  1  0  0  0  0
 12 40  1  0  0  0  0
 12 41  1  0  0  0  0
 13 15  1  0  0  0  0
 13 42  1  0  0  0  0
 13 43  1  0  0  0  0
 14 16  1  0  0  0  0
 14 44  1  0  0  0  0
 14 45  1  0  0  0  0
 15 17  2  0  0  0  0
 15 18  1  0  0  0  0
 16 46  1  0  0  0  0
 16 47  1  0  0  0  0
 17 19  1  0  0  0  0
 17 48  1  0  0  0  0
 18 20  2  0  0  0  0
 18 49  1  0  0  0  0
 19 21  2  0  0  0  0
 20 21  1  0  0  0  0
 20 50  1  0  0  0  0
 21 51  1  0  0  0  0
 22 23  1  0  0  0  0
 22 24  2  0  0  0  0
 23 25  2  0  0  0  0
 23 26  1  0  0  0  0
 24 27  1  0  0  0  0
 24 53  1  0  0  0  0
 25 28  1  0  0  0  0
 26 30  2  0  0  0  0
 26 54  1  0  0  0  0
 27 28  2  0  0  0  0
 27 55  1  0  0  0  0
 28 56  1  0  0  0  0
 29 57  1  0  0  0  0
 29 58  1  0  0  0  0
 29 59  1  0  0  0  0
 30 31  1  0  0  0  0
 30 60  1  0  0  0  0
 31 32  1  0  0  0  0
 32 61  1  0  0  0  0
 32 62  1  0  0  0  0
 32 63  1  0  0  0  0
M  END
> <PUBCHEM_COMPOUND_CID>
24865725

> <PUBCHEM_COMPOUND_CANONICALIZED>
1

> <PUBCHEM_CACTVS_COMPLEXITY>
674

> <PUBCHEM_CACTVS_HBOND_ACCEPTOR>
6

> <PUBCHEM_CACTVS_HBOND_DONOR>
1

> <PUBCHEM_CACTVS_ROTATABLE_BOND>
8

> <PUBCHEM_CACTVS_SUBSKEYS>
AAADceB7MABAAAAAAAAAAAAAAAAAAAAAAAA8eIEAAAAAAACx9AAAHgQQQAAADQzhngayxvNIFAKgAyRiRHCCiCAhIiAImCA+bJgOJuLEsZuHOCjm0BnY6AeQ0OMOAAAAQgAKAAAAAACEABQAAAAAAAAAAA==

> <PUBCHEM_IUPAC_OPENEYE_NAME>
N-[3-[[1-[2-[(2-methyl-5-quinolyl)oxy]ethyl]-4-piperidyl]methyl]phenyl]methanesulfonamide

> <PUBCHEM_IUPAC_CAS_NAME>
N-[3-[[1-[2-[(2-methyl-5-quinolinyl)oxy]ethyl]-4-piperidinyl]methyl]phenyl]methanesulfonamide

> <PUBCHEM_IUPAC_NAME_MARKUP>
<I>N</I>-[3-[[1-[2-(2-methylquinolin-5-yl)oxyethyl]piperidin-4-yl]methyl]phenyl]methanesulfonamide

> <PUBCHEM_IUPAC_NAME>
N-[3-[[1-[2-(2-methylquinolin-5-yl)oxyethyl]piperidin-4-yl]methyl]phenyl]methanesulfonamide

> <PUBCHEM_IUPAC_SYSTEMATIC_NAME>
N-[3-[[1-[2-(2-methylquinolin-5-yl)oxyethyl]piperidin-4-yl]methyl]phenyl]methanesulfonamide

> <PUBCHEM_IUPAC_TRADITIONAL_NAME>
N-[3-[[1-[2-[(2-methyl-5-quinolyl)oxy]ethyl]-4-piperidyl]methyl]phenyl]methanesulfonamide

> <PUBCHEM_IUPAC_INCHI>
InChI=1S/C25H31N3O3S/c1-19-9-10-23-24(26-19)7-4-8-25(23)31-16-15-28-13-11-20(12-14-28)17-21-5-3-6-22(18-21)27-32(2,29)30/h3-10,18,20,27H,11-17H2,1-2H3

> <PUBCHEM_IUPAC_INCHIKEY>
UZLFJOXUSYBNKZ-UHFFFAOYSA-N

> <PUBCHEM_XLOGP3_AA>
4.3

> <PUBCHEM_EXACT_MASS>
453.20861303

> <PUBCHEM_MOLECULAR_FORMULA>
C25H31N3O3S

> <PUBCHEM_MOLECULAR_WEIGHT>
453.6

> <PUBCHEM_OPENEYE_CAN_SMILES>
CC1=NC2=C(C=C1)C(=CC=C2)OCCN3CCC(CC3)CC4=CC(=CC=C4)NS(=O)(=O)C

> <PUBCHEM_OPENEYE_ISO_SMILES>
CC1=NC2=C(C=C1)C(=CC=C2)OCCN3CCC(CC3)CC4=CC(=CC=C4)NS(=O)(=O)C

> <PUBCHEM_CACTVS_TPSA>
79.9

> <PUBCHEM_MONOISOTOPIC_WEIGHT>
453.20861303

> <PUBCHEM_TOTAL_CHARGE>
0

> <PUBCHEM_HEAVY_ATOM_COUNT>
32

> <PUBCHEM_ATOM_DEF_STEREO_COUNT>
0

> <PUBCHEM_ATOM_UDEF_STEREO_COUNT>
0

> <PUBCHEM_BOND_DEF_STEREO_COUNT>
0

> <PUBCHEM_BOND_UDEF_STEREO_COUNT>
0

> <PUBCHEM_ISOTOPIC_ATOM_COUNT>
0

> <PUBCHEM_COMPONENT_COUNT>
1

> <PUBCHEM_CACTVS_TAUTO_COUNT>
-1

> <PUBCHEM_COORDINATE_TYPE>
1
5
255

> <PUBCHEM_BONDANNOTATIONS>
15  17  8
15  18  8
17  19  8
18  20  8
19  21  8
20  21  8
22  23  8
22  24  8
23  25  8
23  26  8
24  27  8
25  28  8
26  30  8
27  28  8
30  31  8
7  25  8
7  31  8

$$$$
