46233135
  -OEChem-09292322292D

 70 74  0     1  0  0  0  0  0999 V2000
    2.5405    4.1172    0.0000 O   0  0  0  0  0  0  0  0  0  0  0  0
    7.7748   -5.8796    0.0000 O   0  0  0  0  0  0  0  0  0  0  0  0
    6.9088    2.6204    0.0000 N   0  0  3  0  0  0  0  0  0  0  0  0
    7.7748    0.1204    0.0000 N   0  0  0  0  0  0  0  0  0  0  0  0
    7.7748   -1.8796    0.0000 N   0  0  0  0  0  0  0  0  0  0  0  0
    9.5347   -4.9143    0.0000 N   0  0  0  0  0  0  0  0  0  0  0  0
    6.0427    3.1204    0.0000 C   0  0  3  0  0  0  0  0  0  0  0  0
    5.1767    2.6204    0.0000 C   0  0  0  0  0  0  0  0  0  0  0  0
    6.0427    4.1204    0.0000 C   0  0  0  0  0  0  0  0  0  0  0  0
    6.9088    1.6204    0.0000 C   0  0  0  0  0  0  0  0  0  0  0  0
    4.3107    3.1204    0.0000 C   0  0  0  0  0  0  0  0  0  0  0  0
    7.7748    1.1204    0.0000 C   0  0  0  0  0  0  0  0  0  0  0  0
    5.1767    4.6204    0.0000 C   0  0  0  0  0  0  0  0  0  0  0  0
    7.7748    3.1204    0.0000 C   0  0  0  0  0  0  0  0  0  0  0  0
    4.3107    4.1204    0.0000 C   0  0  0  0  0  0  0  0  0  0  0  0
    6.9088   -0.3796    0.0000 C   0  0  0  0  0  0  0  0  0  0  0  0
    8.6408   -0.3796    0.0000 C   0  0  0  0  0  0  0  0  0  0  0  0
    6.9088   -1.3796    0.0000 C   0  0  0  0  0  0  0  0  0  0  0  0
    8.6408   -1.3796    0.0000 C   0  0  0  0  0  0  0  0  0  0  0  0
    7.7748    4.1204    0.0000 C   0  0  0  0  0  0  0  0  0  0  0  0
    5.1928    5.6619    0.0000 C   0  0  0  0  0  0  0  0  0  0  0  0
    3.4007    4.6272    0.0000 C   0  0  0  0  0  0  0  0  0  0  0  0
    7.7748   -2.8796    0.0000 C   0  0  0  0  0  0  0  0  0  0  0  0
    4.2947    6.1896    0.0000 C   0  0  0  0  0  0  0  0  0  0  0  0
    3.3926    5.6688    0.0000 C   0  0  0  0  0  0  0  0  0  0  0  0
    8.6408    4.6204    0.0000 C   0  0  0  0  0  0  0  0  0  0  0  0
    8.6408   -3.3796    0.0000 C   0  0  0  0  0  0  0  0  0  0  0  0
    6.9088   -3.3796    0.0000 C   0  0  0  0  0  0  0  0  0  0  0  0
    8.6408   -4.3796    0.0000 C   0  0  0  0  0  0  0  0  0  0  0  0
    6.9088   -4.3796    0.0000 C   0  0  0  0  0  0  0  0  0  0  0  0
    9.5347   -2.8450    0.0000 C   0  0  0  0  0  0  0  0  0  0  0  0
    7.7748   -4.8796    0.0000 C   0  0  0  0  0  0  0  0  0  0  0  0
   10.4408   -3.3588    0.0000 C   0  0  0  0  0  0  0  0  0  0  0  0
   10.4408   -4.4004    0.0000 C   0  0  0  0  0  0  0  0  0  0  0  0
    6.0427    2.5004    0.0000 H   0  0  0  0  0  0  0  0  0  0  0  0
    4.7782    2.1454    0.0000 H   0  0  0  0  0  0  0  0  0  0  0  0
    5.5752    2.1454    0.0000 H   0  0  0  0  0  0  0  0  0  0  0  0
    6.6533    4.0127    0.0000 H   0  0  0  0  0  0  0  0  0  0  0  0
    6.2548    4.7030    0.0000 H   0  0  0  0  0  0  0  0  0  0  0  0
    6.2982    1.7280    0.0000 H   0  0  0  0  0  0  0  0  0  0  0  0
    6.6967    1.0378    0.0000 H   0  0  0  0  0  0  0  0  0  0  0  0
    3.7001    3.2280    0.0000 H   0  0  0  0  0  0  0  0  0  0  0  0
    4.0986    2.5378    0.0000 H   0  0  0  0  0  0  0  0  0  0  0  0
    8.3854    1.0127    0.0000 H   0  0  0  0  0  0  0  0  0  0  0  0
    7.9868    1.7030    0.0000 H   0  0  0  0  0  0  0  0  0  0  0  0
    7.9868    2.5378    0.0000 H   0  0  0  0  0  0  0  0  0  0  0  0
    8.3854    3.2280    0.0000 H   0  0  0  0  0  0  0  0  0  0  0  0
    6.6967    0.2030    0.0000 H   0  0  0  0  0  0  0  0  0  0  0  0
    6.2982   -0.4873    0.0000 H   0  0  0  0  0  0  0  0  0  0  0  0
    9.2514   -0.4873    0.0000 H   0  0  0  0  0  0  0  0  0  0  0  0
    8.8528    0.2030    0.0000 H   0  0  0  0  0  0  0  0  0  0  0  0
    6.2982   -1.2720    0.0000 H   0  0  0  0  0  0  0  0  0  0  0  0
    6.6967   -1.9622    0.0000 H   0  0  0  0  0  0  0  0  0  0  0  0
    8.8528   -1.9622    0.0000 H   0  0  0  0  0  0  0  0  0  0  0  0
    9.2514   -1.2720    0.0000 H   0  0  0  0  0  0  0  0  0  0  0  0
    7.5627    4.7030    0.0000 H   0  0  0  0  0  0  0  0  0  0  0  0
    7.1642    4.0127    0.0000 H   0  0  0  0  0  0  0  0  0  0  0  0
    5.7332    5.9656    0.0000 H   0  0  0  0  0  0  0  0  0  0  0  0
    4.2971    6.8096    0.0000 H   0  0  0  0  0  0  0  0  0  0  0  0
    2.8545    5.9767    0.0000 H   0  0  0  0  0  0  0  0  0  0  0  0
    8.9508    4.0834    0.0000 H   0  0  0  0  0  0  0  0  0  0  0  0
    9.1777    4.9304    0.0000 H   0  0  0  0  0  0  0  0  0  0  0  0
    8.3308    5.1573    0.0000 H   0  0  0  0  0  0  0  0  0  0  0  0
    6.3718   -3.0696    0.0000 H   0  0  0  0  0  0  0  0  0  0  0  0
    2.0000    4.4210    0.0000 H   0  0  0  0  0  0  0  0  0  0  0  0
    6.3718   -4.6896    0.0000 H   0  0  0  0  0  0  0  0  0  0  0  0
    9.5276   -2.2250    0.0000 H   0  0  0  0  0  0  0  0  0  0  0  0
   10.9765   -3.0468    0.0000 H   0  0  0  0  0  0  0  0  0  0  0  0
   10.9765   -4.7125    0.0000 H   0  0  0  0  0  0  0  0  0  0  0  0
    7.2378   -6.1896    0.0000 H   0  0  0  0  0  0  0  0  0  0  0  0
  1 22  1  0  0  0  0
  1 65  1  0  0  0  0
  2 32  1  0  0  0  0
  2 70  1  0  0  0  0
  3  7  1  0  0  0  0
  3 10  1  0  0  0  0
  3 14  1  0  0  0  0
  4 12  1  0  0  0  0
  4 16  1  0  0  0  0
  4 17  1  0  0  0  0
  5 18  1  0  0  0  0
  5 19  1  0  0  0  0
  5 23  1  0  0  0  0
  6 29  1  0  0  0  0
  6 34  2  0  0  0  0
  7  8  1  0  0  0  0
  7  9  1  0  0  0  0
  7 35  1  0  0  0  0
  8 11  1  0  0  0  0
  8 36  1  0  0  0  0
  8 37  1  0  0  0  0
  9 13  1  0  0  0  0
  9 38  1  0  0  0  0
  9 39  1  0  0  0  0
 10 12  1  0  0  0  0
 10 40  1  0  0  0  0
 10 41  1  0  0  0  0
 11 15  1  0  0  0  0
 11 42  1  0  0  0  0
 11 43  1  0  0  0  0
 12 44  1  0  0  0  0
 12 45  1  0  0  0  0
 13 15  2  0  0  0  0
 13 21  1  0  0  0  0
 14 20  1  0  0  0  0
 14 46  1  0  0  0  0
 14 47  1  0  0  0  0
 15 22  1  0  0  0  0
 16 18  1  0  0  0  0
 16 48  1  0  0  0  0
 16 49  1  0  0  0  0
 17 19  1  0  0  0  0
 17 50  1  0  0  0  0
 17 51  1  0  0  0  0
 18 52  1  0  0  0  0
 18 53  1  0  0  0  0
 19 54  1  0  0  0  0
 19 55  1  0  0  0  0
 20 26  1  0  0  0  0
 20 56  1  0  0  0  0
 20 57  1  0  0  0  0
 21 24  2  0  0  0  0
 21 58  1  0  0  0  0
 22 25  2  0  0  0  0
 23 27  2  0  0  0  0
 23 28  1  0  0  0  0
 24 25  1  0  0  0  0
 24 59  1  0  0  0  0
 25 60  1  0  0  0  0
 26 61  1  0  0  0  0
 26 62  1  0  0  0  0
 26 63  1  0  0  0  0
 27 29  1  0  0  0  0
 27 31  1  0  0  0  0
 28 30  2  0  0  0  0
 28 64  1  0  0  0  0
 29 32  2  0  0  0  0
 30 32  1  0  0  0  0
 30 66  1  0  0  0  0
 31 33  2  0  0  0  0
 31 67  1  0  0  0  0
 33 34  1  0  0  0  0
 33 68  1  0  0  0  0
 34 69  1  0  0  0  0
M  END
> <PUBCHEM_COMPOUND_CID>
46233135

> <PUBCHEM_COMPOUND_CANONICALIZED>
1

> <PUBCHEM_CACTVS_COMPLEXITY>
628

> <PUBCHEM_CACTVS_HBOND_ACCEPTOR>
6

> <PUBCHEM_CACTVS_HBOND_DONOR>
2

> <PUBCHEM_CACTVS_ROTATABLE_BOND>
7

> <PUBCHEM_CACTVS_SUBSKEYS>
AAADcfB7sAAAAAAAAAAAAAAAAAAAAAAAAAA8eMECAAAAAADx9AAAHgAACAAADCzBngQ+xvMIEgCgAzRnRASCgCAxYiAI2CA/bJgKZuLS0dOUdAhkwBHY2Aew0LMOgEABAAQaEAAQgAKACDQgAAAAAAAAAA==

> <PUBCHEM_IUPAC_OPENEYE_NAME>
5-[4-[2-[(5-hydroxytetralin-2-yl)-propyl-amino]ethyl]piperazin-1-yl]quinolin-8-ol

> <PUBCHEM_IUPAC_CAS_NAME>
5-[4-[2-[(5-hydroxy-1,2,3,4-tetrahydronaphthalen-2-yl)-propylamino]ethyl]-1-piperazinyl]-8-quinolinol

> <PUBCHEM_IUPAC_NAME_MARKUP>
5-[4-[2-[(5-hydroxy-1,2,3,4-tetrahydronaphthalen-2-yl)-propylamino]ethyl]piperazin-1-yl]quinolin-8-ol

> <PUBCHEM_IUPAC_NAME>
5-[4-[2-[(5-hydroxy-1,2,3,4-tetrahydronaphthalen-2-yl)-propylamino]ethyl]piperazin-1-yl]quinolin-8-ol

> <PUBCHEM_IUPAC_SYSTEMATIC_NAME>
5-[4-[2-[(5-oxidanyl-1,2,3,4-tetrahydronaphthalen-2-yl)-propyl-amino]ethyl]piperazin-1-yl]quinolin-8-ol

> <PUBCHEM_IUPAC_TRADITIONAL_NAME>
5-[4-[2-[(5-hydroxytetralin-2-yl)-propyl-amino]ethyl]piperazino]quinolin-8-ol

> <PUBCHEM_IUPAC_INCHI>
InChI=1S/C28H36N4O2/c1-2-13-31(22-8-9-23-21(20-22)5-3-7-26(23)33)17-14-30-15-18-32(19-16-30)25-10-11-27(34)28-24(25)6-4-12-29-28/h3-7,10-12,22,33-34H,2,8-9,13-20H2,1H3

> <PUBCHEM_IUPAC_INCHIKEY>
WUJBQGWQEZSHSL-UHFFFAOYSA-N

> <PUBCHEM_XLOGP3_AA>
4.8

> <PUBCHEM_EXACT_MASS>
460.28382640

> <PUBCHEM_MOLECULAR_FORMULA>
C28H36N4O2

> <PUBCHEM_MOLECULAR_WEIGHT>
460.6

> <PUBCHEM_OPENEYE_CAN_SMILES>
CCCN(CCN1CCN(CC1)C2=C3C=CC=NC3=C(C=C2)O)C4CCC5=C(C4)C=CC=C5O

> <PUBCHEM_OPENEYE_ISO_SMILES>
CCCN(CCN1CCN(CC1)C2=C3C=CC=NC3=C(C=C2)O)C4CCC5=C(C4)C=CC=C5O

> <PUBCHEM_CACTVS_TPSA>
63.1

> <PUBCHEM_MONOISOTOPIC_WEIGHT>
460.28382640

> <PUBCHEM_TOTAL_CHARGE>
0

> <PUBCHEM_HEAVY_ATOM_COUNT>
34

> <PUBCHEM_ATOM_DEF_STEREO_COUNT>
0

> <PUBCHEM_ATOM_UDEF_STEREO_COUNT>
1

> <PUBCHEM_BOND_DEF_STEREO_COUNT>
0

> <PUBCHEM_BOND_UDEF_STEREO_COUNT>
0

> <PUBCHEM_ISOTOPIC_ATOM_COUNT>
0

> <PUBCHEM_COMPONENT_COUNT>
1

> <PUBCHEM_CACTVS_TAUTO_COUNT>
-1

> <PUBCHEM_COORDINATE_TYPE>
1
5
255

> <PUBCHEM_BONDANNOTATIONS>
13  15  8
13  21  8
15  22  8
21  24  8
22  25  8
23  27  8
23  28  8
24  25  8
27  29  8
27  31  8
28  30  8
29  32  8
7  3  3
30  32  8
31  33  8
33  34  8
6  29  8
6  34  8

$$$$
