49782837
  -OEChem-09292322312D

 67 71  0     0  0  0  0  0  0999 V2000
    8.6815    5.4318    0.0000 Cl  0  0  0  0  0  0  0  0  0  0  0  0
    5.2081   -2.7496    0.0000 O   0  0  0  0  0  0  0  0  0  0  0  0
    4.8248    0.8355    0.0000 N   0  0  0  0  0  0  0  0  0  0  0  0
    6.1104    2.3676    0.0000 N   0  0  0  0  0  0  0  0  0  0  0  0
    5.8096    0.6619    0.0000 C   0  0  0  0  0  0  0  0  0  0  0  0
    4.4828    1.7752    0.0000 C   0  0  0  0  0  0  0  0  0  0  0  0
    6.4524    1.4279    0.0000 C   0  0  0  0  0  0  0  0  0  0  0  0
    5.1255    2.5413    0.0000 C   0  0  0  0  0  0  0  0  0  0  0  0
    4.1820    0.0695    0.0000 C   0  0  0  0  0  0  0  0  0  0  0  0
    4.5240   -0.8702    0.0000 C   0  0  0  0  0  0  0  0  0  0  0  0
    3.8812   -1.6362    0.0000 C   0  0  0  0  0  0  0  0  0  0  0  0
    6.7531    3.1337    0.0000 C   0  0  0  0  0  0  0  0  0  0  0  0
    4.2232   -2.5759    0.0000 C   0  0  0  0  0  0  0  0  0  0  0  0
    3.7232   -3.4420    0.0000 C   0  0  0  0  0  0  0  0  0  0  0  0
    2.8616   -2.9445    0.0000 C   0  0  0  0  0  0  0  0  0  0  0  0
    3.7232   -2.4470    0.0000 C   0  0  0  0  0  0  0  0  0  0  0  0
    2.8616   -4.9344    0.0000 C   0  0  0  0  0  0  0  0  0  0  0  0
    6.4111    4.0734    0.0000 C   0  0  0  0  0  0  0  0  0  0  0  0
    7.7380    2.9600    0.0000 C   0  0  0  0  0  0  0  0  0  0  0  0
    3.7232   -4.4369    0.0000 C   0  0  0  0  0  0  0  0  0  0  0  0
    4.7637   -2.4249    0.0000 C   0  0  0  0  0  0  0  0  0  0  0  0
    3.7232   -5.4318    0.0000 C   0  0  0  0  0  0  0  0  0  0  0  0
    4.7637   -5.4097    0.0000 C   0  0  0  0  0  0  0  0  0  0  0  0
    2.0000   -3.4420    0.0000 C   0  0  0  0  0  0  0  0  0  0  0  0
    2.0000   -4.4369    0.0000 C   0  0  0  0  0  0  0  0  0  0  0  0
    5.6253   -2.9224    0.0000 C   0  0  0  0  0  0  0  0  0  0  0  0
    5.6253   -4.9122    0.0000 C   0  0  0  0  0  0  0  0  0  0  0  0
    7.0539    4.8394    0.0000 C   0  0  0  0  0  0  0  0  0  0  0  0
    8.3807    3.7261    0.0000 C   0  0  0  0  0  0  0  0  0  0  0  0
    4.7637   -3.4199    0.0000 C   0  0  0  0  0  0  0  0  0  0  0  0
    6.4869   -3.4199    0.0000 C   0  0  0  0  0  0  0  0  0  0  0  0
    4.7637   -4.4148    0.0000 C   0  0  0  0  0  0  0  0  0  0  0  0
    6.4869   -4.4148    0.0000 C   0  0  0  0  0  0  0  0  0  0  0  0
    8.0387    4.6658    0.0000 C   0  0  0  0  0  0  0  0  0  0  0  0
    5.5975    0.0793    0.0000 H   0  0  0  0  0  0  0  0  0  0  0  0
    6.3465    0.3519    0.0000 H   0  0  0  0  0  0  0  0  0  0  0  0
    4.0842    2.2502    0.0000 H   0  0  0  0  0  0  0  0  0  0  0  0
    3.9458    1.4652    0.0000 H   0  0  0  0  0  0  0  0  0  0  0  0
    6.8509    0.9530    0.0000 H   0  0  0  0  0  0  0  0  0  0  0  0
    6.9893    1.7379    0.0000 H   0  0  0  0  0  0  0  0  0  0  0  0
    5.3376    3.1239    0.0000 H   0  0  0  0  0  0  0  0  0  0  0  0
    4.5886    2.8513    0.0000 H   0  0  0  0  0  0  0  0  0  0  0  0
    3.7835    0.5444    0.0000 H   0  0  0  0  0  0  0  0  0  0  0  0
    3.6451   -0.2405    0.0000 H   0  0  0  0  0  0  0  0  0  0  0  0
    4.9225   -1.3452    0.0000 H   0  0  0  0  0  0  0  0  0  0  0  0
    5.0610   -0.5602    0.0000 H   0  0  0  0  0  0  0  0  0  0  0  0
    3.4827   -1.1613    0.0000 H   0  0  0  0  0  0  0  0  0  0  0  0
    3.3443   -1.9462    0.0000 H   0  0  0  0  0  0  0  0  0  0  0  0
    3.9270   -1.8615    0.0000 H   0  0  0  0  0  0  0  0  0  0  0  0
    3.8901   -3.0442    0.0000 H   0  0  0  0  0  0  0  0  0  0  0  0
    4.2602   -4.7469    0.0000 H   0  0  0  0  0  0  0  0  0  0  0  0
    5.8005    4.1810    0.0000 H   0  0  0  0  0  0  0  0  0  0  0  0
    7.9500    2.3774    0.0000 H   0  0  0  0  0  0  0  0  0  0  0  0
    5.2358   -2.0230    0.0000 H   0  0  0  0  0  0  0  0  0  0  0  0
    4.6096   -3.0255    0.0000 H   0  0  0  0  0  0  0  0  0  0  0  0
    3.2511   -5.8337    0.0000 H   0  0  0  0  0  0  0  0  0  0  0  0
    3.8774   -4.8313    0.0000 H   0  0  0  0  0  0  0  0  0  0  0  0
    4.5599   -5.9953    0.0000 H   0  0  0  0  0  0  0  0  0  0  0  0
    4.5968   -4.8126    0.0000 H   0  0  0  0  0  0  0  0  0  0  0  0
    1.4631   -3.1320    0.0000 H   0  0  0  0  0  0  0  0  0  0  0  0
    1.4631   -4.7469    0.0000 H   0  0  0  0  0  0  0  0  0  0  0  0
    6.8418    5.4220    0.0000 H   0  0  0  0  0  0  0  0  0  0  0  0
    8.9913    3.6184    0.0000 H   0  0  0  0  0  0  0  0  0  0  0  0
    4.2267   -3.1099    0.0000 H   0  0  0  0  0  0  0  0  0  0  0  0
    7.0238   -3.1099    0.0000 H   0  0  0  0  0  0  0  0  0  0  0  0
    4.2267   -4.7248    0.0000 H   0  0  0  0  0  0  0  0  0  0  0  0
    7.0238   -4.7248    0.0000 H   0  0  0  0  0  0  0  0  0  0  0  0
  1 34  1  0  0  0  0
  2 13  2  0  0  0  0
  3  5  1  0  0  0  0
  3  6  1  0  0  0  0
  3  9  1  0  0  0  0
  4  7  1  0  0  0  0
  4  8  1  0  0  0  0
  4 12  1  0  0  0  0
  5  7  1  0  0  0  0
  5 35  1  0  0  0  0
  5 36  1  0  0  0  0
  6  8  1  0  0  0  0
  6 37  1  0  0  0  0
  6 38  1  0  0  0  0
  7 39  1  0  0  0  0
  7 40  1  0  0  0  0
  8 41  1  0  0  0  0
  8 42  1  0  0  0  0
  9 10  1  0  0  0  0
  9 43  1  0  0  0  0
  9 44  1  0  0  0  0
 10 11  1  0  0  0  0
 10 45  1  0  0  0  0
 10 46  1  0  0  0  0
 11 13  1  0  0  0  0
 11 47  1  0  0  0  0
 11 48  1  0  0  0  0
 12 18  2  0  0  0  0
 12 19  1  0  0  0  0
 13 14  1  0  0  0  0
 14 15  2  0  0  0  0
 14 20  1  0  0  0  0
 15 16  1  0  0  0  0
 15 24  1  0  0  0  0
 16 21  1  0  0  0  0
 16 49  1  0  0  0  0
 16 50  1  0  0  0  0
 17 20  2  0  0  0  0
 17 22  1  0  0  0  0
 17 25  1  0  0  0  0
 18 28  1  0  0  0  0
 18 52  1  0  0  0  0
 19 29  2  0  0  0  0
 19 53  1  0  0  0  0
 20 51  1  0  0  0  0
 21 26  1  0  0  0  0
 21 54  1  0  0  0  0
 21 55  1  0  0  0  0
 22 23  1  0  0  0  0
 22 56  1  0  0  0  0
 22 57  1  0  0  0  0
 23 27  1  0  0  0  0
 23 58  1  0  0  0  0
 23 59  1  0  0  0  0
 24 25  2  0  0  0  0
 24 60  1  0  0  0  0
 25 61  1  0  0  0  0
 26 30  2  0  0  0  0
 26 31  1  0  0  0  0
 27 32  2  0  0  0  0
 27 33  1  0  0  0  0
 28 34  2  0  0  0  0
 28 62  1  0  0  0  0
 29 34  1  0  0  0  0
 29 63  1  0  0  0  0
 30 32  1  0  0  0  0
 30 64  1  0  0  0  0
 31 33  2  0  0  0  0
 31 65  1  0  0  0  0
 32 66  1  0  0  0  0
 33 67  1  0  0  0  0
M  END
> <PUBCHEM_COMPOUND_CID>
49782837

> <PUBCHEM_COMPOUND_CANONICALIZED>
1

> <PUBCHEM_CACTVS_COMPLEXITY>
632

> <PUBCHEM_CACTVS_HBOND_ACCEPTOR>
3

> <PUBCHEM_CACTVS_HBOND_DONOR>
0

> <PUBCHEM_CACTVS_ROTATABLE_BOND>
6

> <PUBCHEM_CACTVS_SUBSKEYS>
AAADcfB7IAAEAAAAAAAAAAAAAAAAAAAAAAA8YMEAAAAAAAABUAAAHgIAAAAADA7BmCQwwIMAAACIAqRSQACCAAAlBwAIiAEIZsgIYDLBl5GUIQhggADIyYcciMCOwABCAAAQAACAAIQAACAAAAAAAAAAAA==

> <PUBCHEM_IUPAC_OPENEYE_NAME>
4-[4-(4-chlorophenyl)piperazin-1-yl]-1-(5-tricyclo[8.2.2.24,7]hexadeca-1(13),4,6,10(14),11,15-hexaenyl)butan-1-one

> <PUBCHEM_IUPAC_CAS_NAME>
4-[4-(4-chlorophenyl)-1-piperazinyl]-1-(5-tricyclo[8.2.2.24,7]hexadeca-1(13),4,6,10(14),11,15-hexaenyl)-1-butanone

> <PUBCHEM_IUPAC_NAME_MARKUP>
4-[4-(4-chlorophenyl)piperazin-1-yl]-1-(5-tricyclo[8.2.2.2<SUP>4,7</SUP>]hexadeca-1(13),4,6,10(14),11,15-hexaenyl)butan-1-one

> <PUBCHEM_IUPAC_NAME>
4-[4-(4-chlorophenyl)piperazin-1-yl]-1-(5-tricyclo[8.2.2.24,7]hexadeca-1(13),4,6,10(14),11,15-hexaenyl)butan-1-one

> <PUBCHEM_IUPAC_SYSTEMATIC_NAME>
4-[4-(4-chlorophenyl)piperazin-1-yl]-1-(5-tricyclo[8.2.2.24,7]hexadeca-1(13),4,6,10(14),11,15-hexaenyl)butan-1-one

> <PUBCHEM_IUPAC_TRADITIONAL_NAME>
4-[4-(4-chlorophenyl)piperazino]-1-(5-tricyclo[8.2.2.24,7]hexadeca-1(13),4,6,10(14),11,15-hexaenyl)butan-1-one

> <PUBCHEM_IUPAC_INCHI>
InChI=1S/C30H33ClN2O/c31-27-13-15-28(16-14-27)33-20-18-32(19-21-33)17-1-2-30(34)29-22-25-8-7-23-3-5-24(6-4-23)9-11-26(29)12-10-25/h3-6,10,12-16,22H,1-2,7-9,11,17-21H2

> <PUBCHEM_IUPAC_INCHIKEY>
LOOROOGJSWXTHW-UHFFFAOYSA-N

> <PUBCHEM_XLOGP3_AA>
6.7

> <PUBCHEM_EXACT_MASS>
472.2281414

> <PUBCHEM_MOLECULAR_FORMULA>
C30H33ClN2O

> <PUBCHEM_MOLECULAR_WEIGHT>
473.0

> <PUBCHEM_OPENEYE_CAN_SMILES>
C1CC2=CC(=C(CCC3=CC=C1C=C3)C=C2)C(=O)CCCN4CCN(CC4)C5=CC=C(C=C5)Cl

> <PUBCHEM_OPENEYE_ISO_SMILES>
C1CC2=CC(=C(CCC3=CC=C1C=C3)C=C2)C(=O)CCCN4CCN(CC4)C5=CC=C(C=C5)Cl

> <PUBCHEM_CACTVS_TPSA>
23.6

> <PUBCHEM_MONOISOTOPIC_WEIGHT>
472.2281414

> <PUBCHEM_TOTAL_CHARGE>
0

> <PUBCHEM_HEAVY_ATOM_COUNT>
34

> <PUBCHEM_ATOM_DEF_STEREO_COUNT>
0

> <PUBCHEM_ATOM_UDEF_STEREO_COUNT>
0

> <PUBCHEM_BOND_DEF_STEREO_COUNT>
0

> <PUBCHEM_BOND_UDEF_STEREO_COUNT>
0

> <PUBCHEM_ISOTOPIC_ATOM_COUNT>
0

> <PUBCHEM_COMPONENT_COUNT>
1

> <PUBCHEM_CACTVS_TAUTO_COUNT>
-1

> <PUBCHEM_COORDINATE_TYPE>
1
5
255

> <PUBCHEM_BONDANNOTATIONS>
12  18  8
12  19  8
14  15  8
14  20  8
15  24  8
17  20  8
17  25  8
18  28  8
19  29  8
24  25  8
26  30  8
26  31  8
27  32  8
27  33  8
28  34  8
29  34  8
30  32  8
31  33  8

$$$$
