155512662
  -OEChem-09292322402D

 60 63  0     0  0  0  0  0  0999 V2000
    6.6962    7.7694    0.0000 S   0  0  0  0  0  0  0  0  0  0  0  0
    8.0622    1.7306    0.0000 O   0  0  0  0  0  0  0  0  0  0  0  0
    4.5981   -2.2694    0.0000 N   0  0  0  0  0  0  0  0  0  0  0  0
    4.5981   -4.2694    0.0000 N   0  0  0  0  0  0  0  0  0  0  0  0
    6.3301    1.7306    0.0000 N   0  0  0  0  0  0  0  0  0  0  0  0
    2.0000   -7.7694    0.0000 N   0  0  0  0  0  0  0  0  0  0  0  0
    5.4641   -2.7694    0.0000 C   0  0  0  0  0  0  0  0  0  0  0  0
    3.7320   -2.7694    0.0000 C   0  0  0  0  0  0  0  0  0  0  0  0
    5.4641   -3.7694    0.0000 C   0  0  0  0  0  0  0  0  0  0  0  0
    3.7320   -3.7694    0.0000 C   0  0  0  0  0  0  0  0  0  0  0  0
    4.5981   -1.2694    0.0000 C   0  0  0  0  0  0  0  0  0  0  0  0
    5.4641   -0.7694    0.0000 C   0  0  0  0  0  0  0  0  0  0  0  0
    4.5981   -5.2694    0.0000 C   0  0  0  0  0  0  0  0  0  0  0  0
    5.4641    0.2306    0.0000 C   0  0  0  0  0  0  0  0  0  0  0  0
    6.3301    0.7306    0.0000 C   0  0  0  0  0  0  0  0  0  0  0  0
    3.7320   -5.7694    0.0000 C   0  0  0  0  0  0  0  0  0  0  0  0
    5.4641   -5.7694    0.0000 C   0  0  0  0  0  0  0  0  0  0  0  0
    3.7320   -6.7694    0.0000 C   0  0  0  0  0  0  0  0  0  0  0  0
    5.4641   -6.7694    0.0000 C   0  0  0  0  0  0  0  0  0  0  0  0
    4.5981   -7.2694    0.0000 C   0  0  0  0  0  0  0  0  0  0  0  0
    7.1962    2.2306    0.0000 C   0  0  0  0  0  0  0  0  0  0  0  0
    7.1962    3.2306    0.0000 C   0  0  0  0  0  0  0  0  0  0  0  0
    2.8660   -7.2694    0.0000 C   0  0  0  0  0  0  0  0  0  0  0  0
    8.0622    3.7306    0.0000 C   0  0  0  0  0  0  0  0  0  0  0  0
    6.3301    3.7306    0.0000 C   0  0  0  0  0  0  0  0  0  0  0  0
    7.1962    5.2306    0.0000 C   0  0  0  0  0  0  0  0  0  0  0  0
    8.0622    4.7306    0.0000 C   0  0  0  0  0  0  0  0  0  0  0  0
    6.3301    4.7306    0.0000 C   0  0  0  0  0  0  0  0  0  0  0  0
    7.1962    6.2306    0.0000 C   0  0  0  0  0  0  0  0  0  0  0  0
    8.0052    6.8184    0.0000 C   0  0  0  0  0  0  0  0  0  0  0  0
    6.3871    6.8184    0.0000 C   0  0  0  0  0  0  0  0  0  0  0  0
    7.6962    7.7694    0.0000 C   0  0  0  0  0  0  0  0  0  0  0  0
    6.0747   -2.8771    0.0000 H   0  0  0  0  0  0  0  0  0  0  0  0
    5.6762   -2.1868    0.0000 H   0  0  0  0  0  0  0  0  0  0  0  0
    3.5200   -2.1868    0.0000 H   0  0  0  0  0  0  0  0  0  0  0  0
    3.1215   -2.8771    0.0000 H   0  0  0  0  0  0  0  0  0  0  0  0
    5.6762   -4.3520    0.0000 H   0  0  0  0  0  0  0  0  0  0  0  0
    6.0747   -3.6618    0.0000 H   0  0  0  0  0  0  0  0  0  0  0  0
    3.1215   -3.6618    0.0000 H   0  0  0  0  0  0  0  0  0  0  0  0
    3.5200   -4.3520    0.0000 H   0  0  0  0  0  0  0  0  0  0  0  0
    4.3860   -0.6868    0.0000 H   0  0  0  0  0  0  0  0  0  0  0  0
    3.9875   -1.3771    0.0000 H   0  0  0  0  0  0  0  0  0  0  0  0
    5.6762   -1.3520    0.0000 H   0  0  0  0  0  0  0  0  0  0  0  0
    6.0747   -0.6618    0.0000 H   0  0  0  0  0  0  0  0  0  0  0  0
    5.2520    0.8132    0.0000 H   0  0  0  0  0  0  0  0  0  0  0  0
    4.8535    0.1229    0.0000 H   0  0  0  0  0  0  0  0  0  0  0  0
    6.5422    0.1480    0.0000 H   0  0  0  0  0  0  0  0  0  0  0  0
    6.9407    0.8382    0.0000 H   0  0  0  0  0  0  0  0  0  0  0  0
    3.1951   -5.4594    0.0000 H   0  0  0  0  0  0  0  0  0  0  0  0
    6.0010   -5.4594    0.0000 H   0  0  0  0  0  0  0  0  0  0  0  0
    5.7932    2.0406    0.0000 H   0  0  0  0  0  0  0  0  0  0  0  0
    6.0010   -7.0794    0.0000 H   0  0  0  0  0  0  0  0  0  0  0  0
    4.5981   -7.8894    0.0000 H   0  0  0  0  0  0  0  0  0  0  0  0
    8.5991    3.4206    0.0000 H   0  0  0  0  0  0  0  0  0  0  0  0
    5.7932    3.4206    0.0000 H   0  0  0  0  0  0  0  0  0  0  0  0
    8.5991    5.0406    0.0000 H   0  0  0  0  0  0  0  0  0  0  0  0
    5.7932    5.0406    0.0000 H   0  0  0  0  0  0  0  0  0  0  0  0
    8.5948    6.6268    0.0000 H   0  0  0  0  0  0  0  0  0  0  0  0
    5.7975    6.6268    0.0000 H   0  0  0  0  0  0  0  0  0  0  0  0
    8.0606    8.2710    0.0000 H   0  0  0  0  0  0  0  0  0  0  0  0
  1 31  1  0  0  0  0
  1 32  1  0  0  0  0
  2 21  2  0  0  0  0
  3  7  1  0  0  0  0
  3  8  1  0  0  0  0
  3 11  1  0  0  0  0
  4  9  1  0  0  0  0
  4 10  1  0  0  0  0
  4 13  1  0  0  0  0
  5 15  1  0  0  0  0
  5 21  1  0  0  0  0
  5 51  1  0  0  0  0
  6 23  3  0  0  0  0
  7  9  1  0  0  0  0
  7 33  1  0  0  0  0
  7 34  1  0  0  0  0
  8 10  1  0  0  0  0
  8 35  1  0  0  0  0
  8 36  1  0  0  0  0
  9 37  1  0  0  0  0
  9 38  1  0  0  0  0
 10 39  1  0  0  0  0
 10 40  1  0  0  0  0
 11 12  1  0  0  0  0
 11 41  1  0  0  0  0
 11 42  1  0  0  0  0
 12 14  1  0  0  0  0
 12 43  1  0  0  0  0
 12 44  1  0  0  0  0
 13 16  1  0  0  0  0
 13 17  2  0  0  0  0
 14 15  1  0  0  0  0
 14 45  1  0  0  0  0
 14 46  1  0  0  0  0
 15 47  1  0  0  0  0
 15 48  1  0  0  0  0
 16 18  2  0  0  0  0
 16 49  1  0  0  0  0
 17 19  1  0  0  0  0
 17 50  1  0  0  0  0
 18 20  1  0  0  0  0
 18 23  1  0  0  0  0
 19 20  2  0  0  0  0
 19 52  1  0  0  0  0
 20 53  1  0  0  0  0
 21 22  1  0  0  0  0
 22 24  2  0  0  0  0
 22 25  1  0  0  0  0
 24 27  1  0  0  0  0
 24 54  1  0  0  0  0
 25 28  2  0  0  0  0
 25 55  1  0  0  0  0
 26 27  2  0  0  0  0
 26 28  1  0  0  0  0
 26 29  1  0  0  0  0
 27 56  1  0  0  0  0
 28 57  1  0  0  0  0
 29 30  1  0  0  0  0
 29 31  2  0  0  0  0
 30 32  2  0  0  0  0
 30 58  1  0  0  0  0
 31 59  1  0  0  0  0
 32 60  1  0  0  0  0
M  END
> <PUBCHEM_COMPOUND_CID>
155512662

> <PUBCHEM_COMPOUND_CANONICALIZED>
1

> <PUBCHEM_CACTVS_COMPLEXITY>
633

> <PUBCHEM_CACTVS_HBOND_ACCEPTOR>
5

> <PUBCHEM_CACTVS_HBOND_DONOR>
1

> <PUBCHEM_CACTVS_ROTATABLE_BOND>
8

> <PUBCHEM_CACTVS_SUBSKEYS>
AAADceB7oABAAAAAAAAAAAAAAAAAASAAAAA8YIAAAAAAAAAB0AAAHgQQAAAADAjF2ASwwYPAAAicBiVSUACjAIAlChBIiJkIZMgI4DLglZGUIQhglgDoyY8YiMCOwAAAQAAAAACAAACAAAAAAAAAAAAAAA==

> <PUBCHEM_IUPAC_OPENEYE_NAME>
N-[4-[4-(3-cyanophenyl)piperazin-1-yl]butyl]-4-(3-thienyl)benzamide

> <PUBCHEM_IUPAC_CAS_NAME>
N-[4-[4-(3-cyanophenyl)-1-piperazinyl]butyl]-4-(3-thiophenyl)benzamide

> <PUBCHEM_IUPAC_NAME_MARKUP>
<I>N</I>-[4-[4-(3-cyanophenyl)piperazin-1-yl]butyl]-4-thiophen-3-ylbenzamide

> <PUBCHEM_IUPAC_NAME>
N-[4-[4-(3-cyanophenyl)piperazin-1-yl]butyl]-4-thiophen-3-ylbenzamide

> <PUBCHEM_IUPAC_SYSTEMATIC_NAME>
N-[4-[4-(3-cyanophenyl)piperazin-1-yl]butyl]-4-thiophen-3-yl-benzamide

> <PUBCHEM_IUPAC_TRADITIONAL_NAME>
N-[4-[4-(3-cyanophenyl)piperazino]butyl]-4-(3-thienyl)benzamide

> <PUBCHEM_IUPAC_INCHI>
InChI=1S/C26H28N4OS/c27-19-21-4-3-5-25(18-21)30-15-13-29(14-16-30)12-2-1-11-28-26(31)23-8-6-22(7-9-23)24-10-17-32-20-24/h3-10,17-18,20H,1-2,11-16H2,(H,28,31)

> <PUBCHEM_IUPAC_INCHIKEY>
AWLLDUFWUOASGN-UHFFFAOYSA-N

> <PUBCHEM_XLOGP3_AA>
4.6

> <PUBCHEM_EXACT_MASS>
444.19838270

> <PUBCHEM_MOLECULAR_FORMULA>
C26H28N4OS

> <PUBCHEM_MOLECULAR_WEIGHT>
444.6

> <PUBCHEM_OPENEYE_CAN_SMILES>
C1CN(CCN1CCCCNC(=O)C2=CC=C(C=C2)C3=CSC=C3)C4=CC=CC(=C4)C#N

> <PUBCHEM_OPENEYE_ISO_SMILES>
C1CN(CCN1CCCCNC(=O)C2=CC=C(C=C2)C3=CSC=C3)C4=CC=CC(=C4)C#N

> <PUBCHEM_CACTVS_TPSA>
87.6

> <PUBCHEM_MONOISOTOPIC_WEIGHT>
444.19838270

> <PUBCHEM_TOTAL_CHARGE>
0

> <PUBCHEM_HEAVY_ATOM_COUNT>
32

> <PUBCHEM_ATOM_DEF_STEREO_COUNT>
0

> <PUBCHEM_ATOM_UDEF_STEREO_COUNT>
0

> <PUBCHEM_BOND_DEF_STEREO_COUNT>
0

> <PUBCHEM_BOND_UDEF_STEREO_COUNT>
0

> <PUBCHEM_ISOTOPIC_ATOM_COUNT>
0

> <PUBCHEM_COMPONENT_COUNT>
1

> <PUBCHEM_CACTVS_TAUTO_COUNT>
-1

> <PUBCHEM_COORDINATE_TYPE>
1
5
255

> <PUBCHEM_BONDANNOTATIONS>
1  31  8
1  32  8
13  16  8
13  17  8
16  18  8
17  19  8
18  20  8
19  20  8
22  24  8
22  25  8
24  27  8
25  28  8
26  27  8
26  28  8
29  30  8
29  31  8
30  32  8

$$$$
