44403101
  -OEChem-09292322502D

 71 75  0     0  0  0  0  0  0999 V2000
    2.8660    2.0000    0.0000 O   0  0  0  0  0  0  0  0  0  0  0  0
    5.4641   -1.5000    0.0000 O   0  0  0  0  0  0  0  0  0  0  0  0
    4.5981    3.0000    0.0000 N   0  0  0  0  0  0  0  0  0  0  0  0
    4.5981    5.0000    0.0000 N   0  0  0  0  0  0  0  0  0  0  0  0
    8.9282   -2.5000    0.0000 N   0  0  0  0  0  0  0  0  0  0  0  0
    7.1962   -1.5000    0.0000 N   0  0  0  0  0  0  0  0  0  0  0  0
    6.3301    0.0000    0.0000 N   0  0  0  0  0  0  0  0  0  0  0  0
    5.4641    3.5000    0.0000 C   0  0  0  0  0  0  0  0  0  0  0  0
    3.7320    3.5000    0.0000 C   0  0  0  0  0  0  0  0  0  0  0  0
    5.4641    4.5000    0.0000 C   0  0  0  0  0  0  0  0  0  0  0  0
    3.7320    4.5000    0.0000 C   0  0  0  0  0  0  0  0  0  0  0  0
    8.0622   -3.0000    0.0000 C   0  0  0  0  0  0  0  0  0  0  0  0
    8.9282   -1.5000    0.0000 C   0  0  0  0  0  0  0  0  0  0  0  0
    7.1962   -2.5000    0.0000 C   0  0  0  0  0  0  0  0  0  0  0  0
    8.0622   -1.0000    0.0000 C   0  0  0  0  0  0  0  0  0  0  0  0
    4.5981    2.0000    0.0000 C   0  0  0  0  0  0  0  0  0  0  0  0
    9.7942   -3.0000    0.0000 C   0  0  0  0  0  0  0  0  0  0  0  0
    4.5981    6.0000    0.0000 C   0  0  0  0  0  0  0  0  0  0  0  0
    6.3301   -1.0000    0.0000 C   0  0  0  0  0  0  0  0  0  0  0  0
    5.4641    1.5000    0.0000 C   0  0  0  0  0  0  0  0  0  0  0  0
    3.7320    1.5000    0.0000 C   0  0  0  0  0  0  0  0  0  0  0  0
    5.4641    0.5000    0.0000 C   0  0  0  0  0  0  0  0  0  0  0  0
    9.7942   -4.0000    0.0000 C   0  0  0  0  0  0  0  0  0  0  0  0
   10.6603   -2.5000    0.0000 C   0  0  0  0  0  0  0  0  0  0  0  0
    3.7320    0.5000    0.0000 C   0  0  0  0  0  0  0  0  0  0  0  0
    4.5981    0.0000    0.0000 C   0  0  0  0  0  0  0  0  0  0  0  0
   10.6603   -4.5000    0.0000 C   0  0  0  0  0  0  0  0  0  0  0  0
   11.5263   -3.0000    0.0000 C   0  0  0  0  0  0  0  0  0  0  0  0
   11.5263   -4.0000    0.0000 C   0  0  0  0  0  0  0  0  0  0  0  0
   12.3923   -4.5000    0.0000 C   0  0  0  0  0  0  0  0  0  0  0  0
    2.0000    1.5000    0.0000 C   0  0  0  0  0  0  0  0  0  0  0  0
   13.2583   -4.0000    0.0000 C   0  0  0  0  0  0  0  0  0  0  0  0
   12.3923   -5.5000    0.0000 C   0  0  0  0  0  0  0  0  0  0  0  0
   14.1244   -4.5000    0.0000 C   0  0  0  0  0  0  0  0  0  0  0  0
   13.2583   -6.0000    0.0000 C   0  0  0  0  0  0  0  0  0  0  0  0
   14.1244   -5.5000    0.0000 C   0  0  0  0  0  0  0  0  0  0  0  0
    5.6762    2.9174    0.0000 H   0  0  0  0  0  0  0  0  0  0  0  0
    6.0747    3.6077    0.0000 H   0  0  0  0  0  0  0  0  0  0  0  0
    3.1215    3.6077    0.0000 H   0  0  0  0  0  0  0  0  0  0  0  0
    3.5200    2.9174    0.0000 H   0  0  0  0  0  0  0  0  0  0  0  0
    6.0747    4.3923    0.0000 H   0  0  0  0  0  0  0  0  0  0  0  0
    5.6762    5.0826    0.0000 H   0  0  0  0  0  0  0  0  0  0  0  0
    3.5200    5.0826    0.0000 H   0  0  0  0  0  0  0  0  0  0  0  0
    3.1215    4.3923    0.0000 H   0  0  0  0  0  0  0  0  0  0  0  0
    7.6636   -3.4750    0.0000 H   0  0  0  0  0  0  0  0  0  0  0  0
    8.4607   -3.4750    0.0000 H   0  0  0  0  0  0  0  0  0  0  0  0
    9.5388   -1.6077    0.0000 H   0  0  0  0  0  0  0  0  0  0  0  0
    9.1403   -0.9174    0.0000 H   0  0  0  0  0  0  0  0  0  0  0  0
    6.5856   -2.3923    0.0000 H   0  0  0  0  0  0  0  0  0  0  0  0
    6.9841   -3.0826    0.0000 H   0  0  0  0  0  0  0  0  0  0  0  0
    8.4607   -0.5251    0.0000 H   0  0  0  0  0  0  0  0  0  0  0  0
    7.6636   -0.5251    0.0000 H   0  0  0  0  0  0  0  0  0  0  0  0
    5.2181    6.0000    0.0000 H   0  0  0  0  0  0  0  0  0  0  0  0
    4.5981    6.6200    0.0000 H   0  0  0  0  0  0  0  0  0  0  0  0
    3.9781    6.0000    0.0000 H   0  0  0  0  0  0  0  0  0  0  0  0
    6.0010    1.8100    0.0000 H   0  0  0  0  0  0  0  0  0  0  0  0
    6.8671    0.3100    0.0000 H   0  0  0  0  0  0  0  0  0  0  0  0
    9.2573   -4.3100    0.0000 H   0  0  0  0  0  0  0  0  0  0  0  0
   10.6603   -1.8800    0.0000 H   0  0  0  0  0  0  0  0  0  0  0  0
    3.1951    0.1900    0.0000 H   0  0  0  0  0  0  0  0  0  0  0  0
    4.5981   -0.6200    0.0000 H   0  0  0  0  0  0  0  0  0  0  0  0
   10.6603   -5.1200    0.0000 H   0  0  0  0  0  0  0  0  0  0  0  0
   12.0632   -2.6900    0.0000 H   0  0  0  0  0  0  0  0  0  0  0  0
    1.6900    2.0369    0.0000 H   0  0  0  0  0  0  0  0  0  0  0  0
    1.4631    1.1900    0.0000 H   0  0  0  0  0  0  0  0  0  0  0  0
    2.3100    0.9631    0.0000 H   0  0  0  0  0  0  0  0  0  0  0  0
   13.2583   -3.3800    0.0000 H   0  0  0  0  0  0  0  0  0  0  0  0
   11.8554   -5.8100    0.0000 H   0  0  0  0  0  0  0  0  0  0  0  0
   14.6613   -4.1900    0.0000 H   0  0  0  0  0  0  0  0  0  0  0  0
   13.2583   -6.6200    0.0000 H   0  0  0  0  0  0  0  0  0  0  0  0
   14.6613   -5.8100    0.0000 H   0  0  0  0  0  0  0  0  0  0  0  0
  1 21  1  0  0  0  0
  1 31  1  0  0  0  0
  2 19  2  0  0  0  0
  3  8  1  0  0  0  0
  3  9  1  0  0  0  0
  3 16  1  0  0  0  0
  4 10  1  0  0  0  0
  4 11  1  0  0  0  0
  4 18  1  0  0  0  0
  5 12  1  0  0  0  0
  5 13  1  0  0  0  0
  5 17  1  0  0  0  0
  6 14  1  0  0  0  0
  6 15  1  0  0  0  0
  6 19  1  0  0  0  0
  7 19  1  0  0  0  0
  7 22  1  0  0  0  0
  7 57  1  0  0  0  0
  8 10  1  0  0  0  0
  8 37  1  0  0  0  0
  8 38  1  0  0  0  0
  9 11  1  0  0  0  0
  9 39  1  0  0  0  0
  9 40  1  0  0  0  0
 10 41  1  0  0  0  0
 10 42  1  0  0  0  0
 11 43  1  0  0  0  0
 11 44  1  0  0  0  0
 12 14  1  0  0  0  0
 12 45  1  0  0  0  0
 12 46  1  0  0  0  0
 13 15  1  0  0  0  0
 13 47  1  0  0  0  0
 13 48  1  0  0  0  0
 14 49  1  0  0  0  0
 14 50  1  0  0  0  0
 15 51  1  0  0  0  0
 15 52  1  0  0  0  0
 16 20  1  0  0  0  0
 16 21  2  0  0  0  0
 17 23  2  0  0  0  0
 17 24  1  0  0  0  0
 18 53  1  0  0  0  0
 18 54  1  0  0  0  0
 18 55  1  0  0  0  0
 20 22  2  0  0  0  0
 20 56  1  0  0  0  0
 21 25  1  0  0  0  0
 22 26  1  0  0  0  0
 23 27  1  0  0  0  0
 23 58  1  0  0  0  0
 24 28  2  0  0  0  0
 24 59  1  0  0  0  0
 25 26  2  0  0  0  0
 25 60  1  0  0  0  0
 26 61  1  0  0  0  0
 27 29  2  0  0  0  0
 27 62  1  0  0  0  0
 28 29  1  0  0  0  0
 28 63  1  0  0  0  0
 29 30  1  0  0  0  0
 30 32  2  0  0  0  0
 30 33  1  0  0  0  0
 31 64  1  0  0  0  0
 31 65  1  0  0  0  0
 31 66  1  0  0  0  0
 32 34  1  0  0  0  0
 32 67  1  0  0  0  0
 33 35  2  0  0  0  0
 33 68  1  0  0  0  0
 34 36  2  0  0  0  0
 34 69  1  0  0  0  0
 35 36  1  0  0  0  0
 35 70  1  0  0  0  0
 36 71  1  0  0  0  0
M  END
> <PUBCHEM_COMPOUND_CID>
44403101

> <PUBCHEM_COMPOUND_CANONICALIZED>
1

> <PUBCHEM_CACTVS_COMPLEXITY>
677

> <PUBCHEM_CACTVS_HBOND_ACCEPTOR>
5

> <PUBCHEM_CACTVS_HBOND_DONOR>
1

> <PUBCHEM_CACTVS_ROTATABLE_BOND>
5

> <PUBCHEM_CACTVS_SUBSKEYS>
AAADcfB7sAAAAAAAAAAAAAAAAAAAAAAAAAA8eMECAAAAAAABUAAAHgAQAAAADAzBmAYzxoPABACIAiRCUACCCAAhIgAIiAAPbIiOZiLE8duVMChs1hPY6CewwMAOiEAAAAQAEAAQgAAACAAgAAAAAAAAAA==

> <PUBCHEM_IUPAC_OPENEYE_NAME>
N-[4-methoxy-3-(4-methylpiperazin-1-yl)phenyl]-4-(4-phenylphenyl)piperazine-1-carboxamide

> <PUBCHEM_IUPAC_CAS_NAME>
N-[4-methoxy-3-(4-methyl-1-piperazinyl)phenyl]-4-(4-phenylphenyl)-1-piperazinecarboxamide

> <PUBCHEM_IUPAC_NAME_MARKUP>
<I>N</I>-[4-methoxy-3-(4-methylpiperazin-1-yl)phenyl]-4-(4-phenylphenyl)piperazine-1-carboxamide

> <PUBCHEM_IUPAC_NAME>
N-[4-methoxy-3-(4-methylpiperazin-1-yl)phenyl]-4-(4-phenylphenyl)piperazine-1-carboxamide

> <PUBCHEM_IUPAC_SYSTEMATIC_NAME>
N-[4-methoxy-3-(4-methylpiperazin-1-yl)phenyl]-4-(4-phenylphenyl)piperazine-1-carboxamide

> <PUBCHEM_IUPAC_TRADITIONAL_NAME>
N-[4-methoxy-3-(4-methylpiperazino)phenyl]-4-(4-phenylphenyl)piperazine-1-carboxamide

> <PUBCHEM_IUPAC_INCHI>
InChI=1S/C29H35N5O2/c1-31-14-16-33(17-15-31)27-22-25(10-13-28(27)36-2)30-29(35)34-20-18-32(19-21-34)26-11-8-24(9-12-26)23-6-4-3-5-7-23/h3-13,22H,14-21H2,1-2H3,(H,30,35)

> <PUBCHEM_IUPAC_INCHIKEY>
WJYDVXOBGXFRGI-UHFFFAOYSA-N

> <PUBCHEM_XLOGP3_AA>
4.2

> <PUBCHEM_EXACT_MASS>
485.27907538

> <PUBCHEM_MOLECULAR_FORMULA>
C29H35N5O2

> <PUBCHEM_MOLECULAR_WEIGHT>
485.6

> <PUBCHEM_OPENEYE_CAN_SMILES>
CN1CCN(CC1)C2=C(C=CC(=C2)NC(=O)N3CCN(CC3)C4=CC=C(C=C4)C5=CC=CC=C5)OC

> <PUBCHEM_OPENEYE_ISO_SMILES>
CN1CCN(CC1)C2=C(C=CC(=C2)NC(=O)N3CCN(CC3)C4=CC=C(C=C4)C5=CC=CC=C5)OC

> <PUBCHEM_CACTVS_TPSA>
51.3

> <PUBCHEM_MONOISOTOPIC_WEIGHT>
485.27907538

> <PUBCHEM_TOTAL_CHARGE>
0

> <PUBCHEM_HEAVY_ATOM_COUNT>
36

> <PUBCHEM_ATOM_DEF_STEREO_COUNT>
0

> <PUBCHEM_ATOM_UDEF_STEREO_COUNT>
0

> <PUBCHEM_BOND_DEF_STEREO_COUNT>
0

> <PUBCHEM_BOND_UDEF_STEREO_COUNT>
0

> <PUBCHEM_ISOTOPIC_ATOM_COUNT>
0

> <PUBCHEM_COMPONENT_COUNT>
1

> <PUBCHEM_CACTVS_TAUTO_COUNT>
-1

> <PUBCHEM_COORDINATE_TYPE>
1
5
255

> <PUBCHEM_BONDANNOTATIONS>
16  20  8
16  21  8
17  23  8
17  24  8
20  22  8
21  25  8
22  26  8
23  27  8
24  28  8
25  26  8
27  29  8
28  29  8
30  32  8
30  33  8
32  34  8
33  35  8
34  36  8
35  36  8

$$$$
