11522476
  -OEChem-09292322482D

 48 50  0     1  0  0  0  0  0999 V2000
    2.8641   -1.7588    0.0000 O   0  0  0  0  0  0  0  0  0  0  0  0
    4.6380   -2.7830    0.0000 O   0  0  0  0  0  0  0  0  0  0  0  0
    5.5161    2.7863    0.0000 N   0  0  3  0  0  0  0  0  0  0  0  0
    5.5161    1.7863    0.0000 C   0  0  0  0  0  0  0  0  0  0  0  0
    4.6501    1.2863    0.0000 C   0  0  0  0  0  0  0  0  0  0  0  0
    6.3821    3.2863    0.0000 C   0  0  0  0  0  0  0  0  0  0  0  0
    7.2482    2.7863    0.0000 C   0  0  0  0  0  0  0  0  0  0  0  0
    4.6501    0.2863    0.0000 C   0  0  0  0  0  0  0  0  0  0  0  0
    5.5161   -0.2137    0.0000 C   0  0  0  0  0  0  0  0  0  0  0  0
    6.3821    0.2863    0.0000 C   0  0  0  0  0  0  0  0  0  0  0  0
    7.2482    1.7863    0.0000 C   0  0  0  0  0  0  0  0  0  0  0  0
    6.3821    1.2863    0.0000 C   0  0  0  0  0  0  0  0  0  0  0  0
    3.7401   -0.2206    0.0000 C   0  0  0  0  0  0  0  0  0  0  0  0
    5.5322   -1.2552    0.0000 C   0  0  0  0  0  0  0  0  0  0  0  0
    4.6501    3.2863    0.0000 C   0  0  0  0  0  0  0  0  0  0  0  0
    8.6595    1.2092    0.0000 C   0  0  0  0  0  0  0  0  0  0  0  0
    6.1763   -0.2245    0.0000 C   0  0  0  0  0  0  0  0  0  0  0  0
    3.7320   -1.2622    0.0000 C   0  0  0  0  0  0  0  0  0  0  0  0
    4.6341   -1.7830    0.0000 C   0  0  0  0  0  0  0  0  0  0  0  0
    8.7626   -0.3121    0.0000 C   0  0  0  0  0  0  0  0  0  0  0  0
    7.4421   -1.0745    0.0000 C   0  0  0  0  0  0  0  0  0  0  0  0
    2.0000   -1.2555    0.0000 C   0  0  0  0  0  0  0  0  0  0  0  0
    3.7739   -3.2863    0.0000 C   0  0  0  0  0  0  0  0  0  0  0  0
    5.7282    1.2037    0.0000 H   0  0  0  0  0  0  0  0  0  0  0  0
    6.1267    1.8940    0.0000 H   0  0  0  0  0  0  0  0  0  0  0  0
    4.4380    1.8689    0.0000 H   0  0  0  0  0  0  0  0  0  0  0  0
    4.0395    1.1786    0.0000 H   0  0  0  0  0  0  0  0  0  0  0  0
    6.7806    3.7612    0.0000 H   0  0  0  0  0  0  0  0  0  0  0  0
    5.9836    3.7612    0.0000 H   0  0  0  0  0  0  0  0  0  0  0  0
    7.8587    2.6786    0.0000 H   0  0  0  0  0  0  0  0  0  0  0  0
    7.4602    3.3689    0.0000 H   0  0  0  0  0  0  0  0  0  0  0  0
    6.5942   -0.2963    0.0000 H   0  0  0  0  0  0  0  0  0  0  0  0
    6.9927    0.3940    0.0000 H   0  0  0  0  0  0  0  0  0  0  0  0
    3.2068    0.0956    0.0000 H   0  0  0  0  0  0  0  0  0  0  0  0
    6.0726   -1.5590    0.0000 H   0  0  0  0  0  0  0  0  0  0  0  0
    4.9601    3.8232    0.0000 H   0  0  0  0  0  0  0  0  0  0  0  0
    4.1131    3.5963    0.0000 H   0  0  0  0  0  0  0  0  0  0  0  0
    4.3401    2.7494    0.0000 H   0  0  0  0  0  0  0  0  0  0  0  0
    9.1622    1.5720    0.0000 H   0  0  0  0  0  0  0  0  0  0  0  0
    5.6107   -0.4785    0.0000 H   0  0  0  0  0  0  0  0  0  0  0  0
    9.3097   -0.6037    0.0000 H   0  0  0  0  0  0  0  0  0  0  0  0
    7.4212   -1.6941    0.0000 H   0  0  0  0  0  0  0  0  0  0  0  0
    2.3121   -0.7197    0.0000 H   0  0  0  0  0  0  0  0  0  0  0  0
    1.4643   -0.9434    0.0000 H   0  0  0  0  0  0  0  0  0  0  0  0
    1.6879   -1.7912    0.0000 H   0  0  0  0  0  0  0  0  0  0  0  0
    3.4618   -2.7506    0.0000 H   0  0  0  0  0  0  0  0  0  0  0  0
    3.2381   -3.5984    0.0000 H   0  0  0  0  0  0  0  0  0  0  0  0
    4.0860   -3.8220    0.0000 H   0  0  0  0  0  0  0  0  0  0  0  0
  1 18  1  0  0  0  0
  1 22  1  0  0  0  0
  2 19  1  0  0  0  0
  2 23  1  0  0  0  0
  3  4  1  0  0  0  0
  3  6  1  0  0  0  0
  3 15  1  0  0  0  0
  4  5  1  0  0  0  0
  4 24  1  0  0  0  0
  4 25  1  0  0  0  0
  5  8  1  0  0  0  0
  5 26  1  0  0  0  0
  5 27  1  0  0  0  0
  6  7  1  0  0  0  0
  6 28  1  0  0  0  0
  6 29  1  0  0  0  0
  7 11  1  0  0  0  0
  7 30  1  0  0  0  0
  7 31  1  0  0  0  0
  8  9  1  0  0  0  0
  8 13  2  0  0  0  0
  9 10  1  0  0  0  0
  9 14  2  0  0  0  0
 10 12  1  0  0  0  0
 10 32  1  0  0  0  0
 10 33  1  0  0  0  0
 11 12  1  0  0  0  0
 11 16  2  0  0  0  0
 12 17  2  0  0  0  0
 13 18  1  0  0  0  0
 13 34  1  0  0  0  0
 14 19  1  0  0  0  0
 14 35  1  0  0  0  0
 15 36  1  0  0  0  0
 15 37  1  0  0  0  0
 15 38  1  0  0  0  0
 16 20  1  0  0  0  0
 16 39  1  0  0  0  0
 17 21  1  0  0  0  0
 17 40  1  0  0  0  0
 18 19  2  0  0  0  0
 20 21  2  0  0  0  0
 20 41  1  0  0  0  0
 21 42  1  0  0  0  0
 22 43  1  0  0  0  0
 22 44  1  0  0  0  0
 22 45  1  0  0  0  0
 23 46  1  0  0  0  0
 23 47  1  0  0  0  0
 23 48  1  0  0  0  0
M  END
> <PUBCHEM_COMPOUND_CID>
11522476

> <PUBCHEM_COMPOUND_CANONICALIZED>
1

> <PUBCHEM_CACTVS_COMPLEXITY>
362

> <PUBCHEM_CACTVS_HBOND_ACCEPTOR>
3

> <PUBCHEM_CACTVS_HBOND_DONOR>
0

> <PUBCHEM_CACTVS_ROTATABLE_BOND>
2

> <PUBCHEM_CACTVS_SUBSKEYS>
AAADceB6MAAAAAAAAAAAAAAAAAAAAAAAAAAwYAAAAAAAAACxQAAAHgAAAAAADATBmAYyBoMABACAAiBCAAACCAAgIAAIiAAOiIgNJiKEsRuEMCIkwBGKqAeQ0PIOoAABAAAQQABAAAIAACCAAAAAAAAAAA==

> <PUBCHEM_IUPAC_OPENEYE_NAME>
5,6-dimethoxy-11-methyl-11-azatricyclo[12.4.0.03,8]octadeca-1(18),3,5,7,14,16-hexaene

> <PUBCHEM_IUPAC_CAS_NAME>
5,6-dimethoxy-11-methyl-11-azatricyclo[12.4.0.03,8]octadeca-1(18),3,5,7,14,16-hexaene

> <PUBCHEM_IUPAC_NAME_MARKUP>
5,6-dimethoxy-11-methyl-11-azatricyclo[12.4.0.0<SUP>3,8</SUP>]octadeca-1(18),3,5,7,14,16-hexaene

> <PUBCHEM_IUPAC_NAME>
5,6-dimethoxy-11-methyl-11-azatricyclo[12.4.0.03,8]octadeca-1(18),3,5,7,14,16-hexaene

> <PUBCHEM_IUPAC_SYSTEMATIC_NAME>
5,6-dimethoxy-11-methyl-11-azatricyclo[12.4.0.03,8]octadeca-1(18),3,5,7,14,16-hexaene

> <PUBCHEM_IUPAC_TRADITIONAL_NAME>
5,6-dimethoxy-11-methyl-11-azatricyclo[12.4.0.03,8]octadeca-1(18),3,5,7,14,16-hexaene

> <PUBCHEM_IUPAC_INCHI>
InChI=1S/C20H25NO2/c1-21-10-8-15-6-4-5-7-16(15)12-18-14-20(23-3)19(22-2)13-17(18)9-11-21/h4-7,13-14H,8-12H2,1-3H3

> <PUBCHEM_IUPAC_INCHIKEY>
PYYAOBHOXQTAKZ-UHFFFAOYSA-N

> <PUBCHEM_XLOGP3_AA>
4.1

> <PUBCHEM_EXACT_MASS>
311.188529040

> <PUBCHEM_MOLECULAR_FORMULA>
C20H25NO2

> <PUBCHEM_MOLECULAR_WEIGHT>
311.4

> <PUBCHEM_OPENEYE_CAN_SMILES>
CN1CCC2=CC=CC=C2CC3=CC(=C(C=C3CC1)OC)OC

> <PUBCHEM_OPENEYE_ISO_SMILES>
CN1CCC2=CC=CC=C2CC3=CC(=C(C=C3CC1)OC)OC

> <PUBCHEM_CACTVS_TPSA>
21.7

> <PUBCHEM_MONOISOTOPIC_WEIGHT>
311.188529040

> <PUBCHEM_TOTAL_CHARGE>
0

> <PUBCHEM_HEAVY_ATOM_COUNT>
23

> <PUBCHEM_ATOM_DEF_STEREO_COUNT>
0

> <PUBCHEM_ATOM_UDEF_STEREO_COUNT>
0

> <PUBCHEM_BOND_DEF_STEREO_COUNT>
0

> <PUBCHEM_BOND_UDEF_STEREO_COUNT>
0

> <PUBCHEM_ISOTOPIC_ATOM_COUNT>
0

> <PUBCHEM_COMPONENT_COUNT>
1

> <PUBCHEM_CACTVS_TAUTO_COUNT>
-1

> <PUBCHEM_COORDINATE_TYPE>
1
5
255

> <PUBCHEM_BONDANNOTATIONS>
11  12  8
11  16  8
12  17  8
13  18  8
14  19  8
16  20  8
17  21  8
18  19  8
20  21  8
8  13  8
8  9  8
9  14  8

$$$$
