10220053
  -OEChem-09292322522D

 31 33  0     1  0  0  0  0  0999 V2000
    2.0000    1.7244    0.0000 F   0  0  0  0  0  0  0  0  0  0  0  0
    8.6224   -0.2462    0.0000 N   0  0  0  0  0  0  0  0  0  0  0  0
    7.9643   -1.7244    0.0000 N   0  0  0  0  0  0  0  0  0  0  0  0
    6.1279    0.7244    0.0000 C   0  0  3  0  0  0  0  0  0  0  0  0
    7.1279    0.7244    0.0000 C   0  0  0  0  0  0  0  0  0  0  0  0
    5.5443    1.5291    0.0000 C   0  0  0  0  0  0  0  0  0  0  0  0
    5.5443   -0.0804    0.0000 C   0  0  0  0  0  0  0  0  0  0  0  0
    7.6279   -0.1417    0.0000 C   0  0  3  0  0  0  0  0  0  0  0  0
    4.5981    1.2244    0.0000 C   0  0  0  0  0  0  0  0  0  0  0  0
    4.5981    0.2244    0.0000 C   0  0  0  0  0  0  0  0  0  0  0  0
    7.2212   -1.0552    0.0000 C   0  0  0  0  0  0  0  0  0  0  0  0
    3.7320    1.7244    0.0000 C   0  0  0  0  0  0  0  0  0  0  0  0
    3.7320   -0.2756    0.0000 C   0  0  0  0  0  0  0  0  0  0  0  0
    8.8303   -1.2244    0.0000 C   0  0  0  0  0  0  0  0  0  0  0  0
    2.8660    1.2244    0.0000 C   0  0  0  0  0  0  0  0  0  0  0  0
    2.8660    0.2244    0.0000 C   0  0  0  0  0  0  0  0  0  0  0  0
    6.4096    1.2766    0.0000 H   0  0  0  0  0  0  0  0  0  0  0  0
    7.7105    0.9364    0.0000 H   0  0  0  0  0  0  0  0  0  0  0  0
    7.0202    1.3349    0.0000 H   0  0  0  0  0  0  0  0  0  0  0  0
    6.0817    1.8383    0.0000 H   0  0  0  0  0  0  0  0  0  0  0  0
    5.2933    2.0960    0.0000 H   0  0  0  0  0  0  0  0  0  0  0  0
    5.2933   -0.6473    0.0000 H   0  0  0  0  0  0  0  0  0  0  0  0
    6.0817   -0.3896    0.0000 H   0  0  0  0  0  0  0  0  0  0  0  0
    7.9656    0.3783    0.0000 H   0  0  0  0  0  0  0  0  0  0  0  0
    6.6842   -0.7452    0.0000 H   0  0  0  0  0  0  0  0  0  0  0  0
    6.8567   -1.5568    0.0000 H   0  0  0  0  0  0  0  0  0  0  0  0
    9.0373    0.2145    0.0000 H   0  0  0  0  0  0  0  0  0  0  0  0
    3.7320    2.3444    0.0000 H   0  0  0  0  0  0  0  0  0  0  0  0
    3.7320   -0.8956    0.0000 H   0  0  0  0  0  0  0  0  0  0  0  0
    9.3967   -1.4765    0.0000 H   0  0  0  0  0  0  0  0  0  0  0  0
    2.3291   -0.0856    0.0000 H   0  0  0  0  0  0  0  0  0  0  0  0
  1 15  1  0  0  0  0
  2  8  1  0  0  0  0
  2 14  1  0  0  0  0
  2 27  1  0  0  0  0
  3 11  1  0  0  0  0
  3 14  2  0  0  0  0
  4  5  1  0  0  0  0
  4  6  1  0  0  0  0
  4  7  1  0  0  0  0
  4 17  1  0  0  0  0
  5  8  1  0  0  0  0
  5 18  1  0  0  0  0
  5 19  1  0  0  0  0
  6  9  1  0  0  0  0
  6 20  1  0  0  0  0
  6 21  1  0  0  0  0
  7 10  1  0  0  0  0
  7 22  1  0  0  0  0
  7 23  1  0  0  0  0
  8 11  1  0  0  0  0
  8 24  1  0  0  0  0
  9 10  2  0  0  0  0
  9 12  1  0  0  0  0
 10 13  1  0  0  0  0
 11 25  1  0  0  0  0
 11 26  1  0  0  0  0
 12 15  2  0  0  0  0
 12 28  1  0  0  0  0
 13 16  2  0  0  0  0
 13 29  1  0  0  0  0
 14 30  1  0  0  0  0
 15 16  1  0  0  0  0
 16 31  1  0  0  0  0
M  END
> <PUBCHEM_COMPOUND_CID>
10220053

> <PUBCHEM_COMPOUND_CANONICALIZED>
1

> <PUBCHEM_CACTVS_COMPLEXITY>
279

> <PUBCHEM_CACTVS_HBOND_ACCEPTOR>
2

> <PUBCHEM_CACTVS_HBOND_DONOR>
1

> <PUBCHEM_CACTVS_ROTATABLE_BOND>
2

> <PUBCHEM_CACTVS_SUBSKEYS>
AAADccBzAQAAAAAAAAAAAAAAAAAAAYIAAAAwAAAAAAAAAGABAAAAHQAQAAAADSjBGAwxAILAAACgAiBDJAACAAEgAAAJiIAIAIgIYCKAmRCUIAAgkAAIiAcQgMAOgAAAAAAQAAAAAAAAACAAAQAACAAAAA==

> <PUBCHEM_IUPAC_OPENEYE_NAME>
5-[(5-fluoroindan-2-yl)methyl]-4,5-dihydro-1H-imidazole

> <PUBCHEM_IUPAC_CAS_NAME>
5-[(5-fluoro-2,3-dihydro-1H-inden-2-yl)methyl]-4,5-dihydro-1H-imidazole

> <PUBCHEM_IUPAC_NAME_MARKUP>
5-[(5-fluoro-2,3-dihydro-1<I>H</I>-inden-2-yl)methyl]-4,5-dihydro-1<I>H</I>-imidazole

> <PUBCHEM_IUPAC_NAME>
5-[(5-fluoro-2,3-dihydro-1H-inden-2-yl)methyl]-4,5-dihydro-1H-imidazole

> <PUBCHEM_IUPAC_SYSTEMATIC_NAME>
5-[(5-fluoranyl-2,3-dihydro-1H-inden-2-yl)methyl]-4,5-dihydro-1H-imidazole

> <PUBCHEM_IUPAC_TRADITIONAL_NAME>
4-[(5-fluoroindan-2-yl)methyl]-2-imidazoline

> <PUBCHEM_IUPAC_INCHI>
InChI=1S/C13H15FN2/c14-12-2-1-10-3-9(4-11(10)6-12)5-13-7-15-8-16-13/h1-2,6,8-9,13H,3-5,7H2,(H,15,16)

> <PUBCHEM_IUPAC_INCHIKEY>
HBMJQYDGBNSZMC-UHFFFAOYSA-N

> <PUBCHEM_XLOGP3_AA>
2

> <PUBCHEM_EXACT_MASS>
218.12192665

> <PUBCHEM_MOLECULAR_FORMULA>
C13H15FN2

> <PUBCHEM_MOLECULAR_WEIGHT>
218.27

> <PUBCHEM_OPENEYE_CAN_SMILES>
C1C(CC2=C1C=CC(=C2)F)CC3CN=CN3

> <PUBCHEM_OPENEYE_ISO_SMILES>
C1C(CC2=C1C=CC(=C2)F)CC3CN=CN3

> <PUBCHEM_CACTVS_TPSA>
24.4

> <PUBCHEM_MONOISOTOPIC_WEIGHT>
218.12192665

> <PUBCHEM_TOTAL_CHARGE>
0

> <PUBCHEM_HEAVY_ATOM_COUNT>
16

> <PUBCHEM_ATOM_DEF_STEREO_COUNT>
0

> <PUBCHEM_ATOM_UDEF_STEREO_COUNT>
2

> <PUBCHEM_BOND_DEF_STEREO_COUNT>
0

> <PUBCHEM_BOND_UDEF_STEREO_COUNT>
0

> <PUBCHEM_ISOTOPIC_ATOM_COUNT>
0

> <PUBCHEM_COMPONENT_COUNT>
1

> <PUBCHEM_CACTVS_TAUTO_COUNT>
-1

> <PUBCHEM_COORDINATE_TYPE>
1
5
255

> <PUBCHEM_BONDANNOTATIONS>
10  13  8
12  15  8
13  16  8
15  16  8
4  5  3
8  5  3
9  10  8
9  12  8

$$$$
