166628622
  -OEChem-09292322442D

 75 79  0     1  0  0  0  0  0999 V2000
    9.0463    3.6722    0.0000 O   0  0  0  0  0  0  0  0  0  0  0  0
   13.6246   -2.8360    0.0000 O   0  0  0  0  0  0  0  0  0  0  0  0
    8.9557    1.9425    0.0000 O   0  0  0  0  0  0  0  0  0  0  0  0
    6.7619   -4.0875    0.0000 O   0  0  0  0  0  0  0  0  0  0  0  0
   10.7619   -0.6234    0.0000 N   0  0  3  0  0  0  0  0  0  0  0  0
    6.7619   -2.3555    0.0000 N   0  0  0  0  0  0  0  0  0  0  0  0
    4.6783   -4.0262    0.0000 N   0  0  0  0  0  0  0  0  0  0  0  0
   12.3269    0.3759    0.0000 C   0  0  1  0  0  0  0  0  0  0  0  0
   11.3758    0.6849    0.0000 C   0  0  2  0  0  0  0  0  0  0  0  0
   10.9529    1.8379    0.0000 C   0  0  0  0  0  0  0  0  0  0  0  0
   13.7179    0.9285    0.0000 C   0  0  0  0  0  0  0  0  0  0  0  0
   12.3007   -1.1234    0.0000 C   0  0  0  0  0  0  0  0  0  0  0  0
   12.7442    2.2207    0.0000 C   0  0  0  0  0  0  0  0  0  0  0  0
   13.7005    1.9283    0.0000 C   0  0  0  0  0  0  0  0  0  0  0  0
   11.3497   -1.4324    0.0000 C   0  0  0  0  0  0  0  0  0  0  0  0
   13.1149   -0.2398    0.0000 C   0  0  0  0  0  0  0  0  0  0  0  0
    9.7619   -0.6234    0.0000 C   0  0  0  0  0  0  0  0  0  0  0  0
   10.4989    2.7289    0.0000 C   0  0  0  0  0  0  0  0  0  0  0  0
    9.2619   -1.4894    0.0000 C   0  0  0  0  0  0  0  0  0  0  0  0
   12.9757   -1.2300    0.0000 C   0  0  0  0  0  0  0  0  0  0  0  0
   14.0421    0.1348    0.0000 C   0  0  0  0  0  0  0  0  0  0  0  0
    8.2619   -1.4894    0.0000 C   0  0  0  0  0  0  0  0  0  0  0  0
    9.5003    2.7812    0.0000 C   0  0  0  0  0  0  0  0  0  0  0  0
   13.7637   -1.8457    0.0000 C   0  0  0  0  0  0  0  0  0  0  0  0
   14.8301   -0.4808    0.0000 C   0  0  0  0  0  0  0  0  0  0  0  0
   14.6909   -1.4711    0.0000 C   0  0  0  0  0  0  0  0  0  0  0  0
    7.7619   -2.3555    0.0000 C   0  0  0  0  0  0  0  0  0  0  0  0
    8.0477    3.7245    0.0000 C   0  0  0  0  0  0  0  0  0  0  0  0
    6.2619   -3.2215    0.0000 C   0  0  0  0  0  0  0  0  0  0  0  0
    7.5937    4.6156    0.0000 C   0  0  0  0  0  0  0  0  0  0  0  0
    5.2619   -3.2215    0.0000 C   0  0  0  0  0  0  0  0  0  0  0  0
    4.6783   -2.4168    0.0000 C   0  0  0  0  0  0  0  0  0  0  0  0
    3.7320   -3.7215    0.0000 C   0  0  0  0  0  0  0  0  0  0  0  0
    3.7320   -2.7215    0.0000 C   0  0  0  0  0  0  0  0  0  0  0  0
    2.8660   -4.2215    0.0000 C   0  0  0  0  0  0  0  0  0  0  0  0
    2.8660   -2.2215    0.0000 C   0  0  0  0  0  0  0  0  0  0  0  0
    2.0000   -3.7215    0.0000 C   0  0  0  0  0  0  0  0  0  0  0  0
    2.0000   -2.7215    0.0000 C   0  0  0  0  0  0  0  0  0  0  0  0
   10.5674    0.9476    0.0000 H   0  0  0  0  0  0  0  0  0  0  0  0
   13.8760    0.3290    0.0000 H   0  0  0  0  0  0  0  0  0  0  0  0
   14.3320    1.0136    0.0000 H   0  0  0  0  0  0  0  0  0  0  0  0
   12.4261   -1.7306    0.0000 H   0  0  0  0  0  0  0  0  0  0  0  0
   12.9180   -1.0658    0.0000 H   0  0  0  0  0  0  0  0  0  0  0  0
   13.0085    2.7815    0.0000 H   0  0  0  0  0  0  0  0  0  0  0  0
   12.2269    2.5626    0.0000 H   0  0  0  0  0  0  0  0  0  0  0  0
   14.3181    1.8743    0.0000 H   0  0  0  0  0  0  0  0  0  0  0  0
   13.8188    2.5369    0.0000 H   0  0  0  0  0  0  0  0  0  0  0  0
   10.8127   -1.7424    0.0000 H   0  0  0  0  0  0  0  0  0  0  0  0
   11.6018   -1.9988    0.0000 H   0  0  0  0  0  0  0  0  0  0  0  0
    9.8695   -0.0128    0.0000 H   0  0  0  0  0  0  0  0  0  0  0  0
    9.1793   -0.4114    0.0000 H   0  0  0  0  0  0  0  0  0  0  0  0
   10.8366    3.2488    0.0000 H   0  0  0  0  0  0  0  0  0  0  0  0
    9.1542   -2.1000    0.0000 H   0  0  0  0  0  0  0  0  0  0  0  0
    9.8445   -1.7015    0.0000 H   0  0  0  0  0  0  0  0  0  0  0  0
   12.4009   -1.4623    0.0000 H   0  0  0  0  0  0  0  0  0  0  0  0
   14.1284    0.7488    0.0000 H   0  0  0  0  0  0  0  0  0  0  0  0
    8.3695   -0.8789    0.0000 H   0  0  0  0  0  0  0  0  0  0  0  0
    7.6793   -1.2774    0.0000 H   0  0  0  0  0  0  0  0  0  0  0  0
   15.4049   -0.2486    0.0000 H   0  0  0  0  0  0  0  0  0  0  0  0
   15.1795   -1.8528    0.0000 H   0  0  0  0  0  0  0  0  0  0  0  0
    7.6542   -2.9660    0.0000 H   0  0  0  0  0  0  0  0  0  0  0  0
    8.3445   -2.5675    0.0000 H   0  0  0  0  0  0  0  0  0  0  0  0
   14.1131   -3.2177    0.0000 H   0  0  0  0  0  0  0  0  0  0  0  0
    6.4519   -1.8185    0.0000 H   0  0  0  0  0  0  0  0  0  0  0  0
    7.4548    3.5433    0.0000 H   0  0  0  0  0  0  0  0  0  0  0  0
    8.1232    3.1092    0.0000 H   0  0  0  0  0  0  0  0  0  0  0  0
    8.1461    4.8970    0.0000 H   0  0  0  0  0  0  0  0  0  0  0  0
    7.3122    5.1680    0.0000 H   0  0  0  0  0  0  0  0  0  0  0  0
    7.0413    4.3341    0.0000 H   0  0  0  0  0  0  0  0  0  0  0  0
    4.8709   -4.6156    0.0000 H   0  0  0  0  0  0  0  0  0  0  0  0
    4.8709   -1.8274    0.0000 H   0  0  0  0  0  0  0  0  0  0  0  0
    2.8660   -4.8415    0.0000 H   0  0  0  0  0  0  0  0  0  0  0  0
    2.8660   -1.6015    0.0000 H   0  0  0  0  0  0  0  0  0  0  0  0
    1.4631   -4.0315    0.0000 H   0  0  0  0  0  0  0  0  0  0  0  0
    1.4631   -2.4115    0.0000 H   0  0  0  0  0  0  0  0  0  0  0  0
  1 23  1  0  0  0  0
  1 28  1  0  0  0  0
  2 24  1  0  0  0  0
  2 63  1  0  0  0  0
  3 23  2  0  0  0  0
  4 29  2  0  0  0  0
  5  9  1  0  0  0  0
  5 15  1  0  0  0  0
  5 17  1  0  0  0  0
  6 27  1  0  0  0  0
  6 29  1  0  0  0  0
  6 64  1  0  0  0  0
  7 31  1  0  0  0  0
  7 33  1  0  0  0  0
  7 70  1  0  0  0  0
  8 10  1  0  0  0  0
  8 11  1  0  0  0  0
  8 12  1  0  0  0  0
  8 16  1  6  0  0  0
  9 10  1  0  0  0  0
  9 13  1  0  0  0  0
  9 39  1  1  0  0  0
 10 18  2  0  0  0  0
 11 14  1  0  0  0  0
 11 40  1  0  0  0  0
 11 41  1  0  0  0  0
 12 15  1  0  0  0  0
 12 42  1  0  0  0  0
 12 43  1  0  0  0  0
 13 14  1  0  0  0  0
 13 44  1  0  0  0  0
 13 45  1  0  0  0  0
 14 46  1  0  0  0  0
 14 47  1  0  0  0  0
 15 48  1  0  0  0  0
 15 49  1  0  0  0  0
 16 20  2  0  0  0  0
 16 21  1  0  0  0  0
 17 19  1  0  0  0  0
 17 50  1  0  0  0  0
 17 51  1  0  0  0  0
 18 23  1  0  0  0  0
 18 52  1  0  0  0  0
 19 22  1  0  0  0  0
 19 53  1  0  0  0  0
 19 54  1  0  0  0  0
 20 24  1  0  0  0  0
 20 55  1  0  0  0  0
 21 25  2  0  0  0  0
 21 56  1  0  0  0  0
 22 27  1  0  0  0  0
 22 57  1  0  0  0  0
 22 58  1  0  0  0  0
 24 26  2  0  0  0  0
 25 26  1  0  0  0  0
 25 59  1  0  0  0  0
 26 60  1  0  0  0  0
 27 61  1  0  0  0  0
 27 62  1  0  0  0  0
 28 30  1  0  0  0  0
 28 65  1  0  0  0  0
 28 66  1  0  0  0  0
 29 31  1  0  0  0  0
 30 67  1  0  0  0  0
 30 68  1  0  0  0  0
 30 69  1  0  0  0  0
 31 32  2  0  0  0  0
 32 34  1  0  0  0  0
 32 71  1  0  0  0  0
 33 34  1  0  0  0  0
 33 35  2  0  0  0  0
 34 36  2  0  0  0  0
 35 37  1  0  0  0  0
 35 72  1  0  0  0  0
 36 38  1  0  0  0  0
 36 73  1  0  0  0  0
 37 38  2  0  0  0  0
 37 74  1  0  0  0  0
 38 75  1  0  0  0  0
M  END
> <PUBCHEM_COMPOUND_CID>
166628622

> <PUBCHEM_COMPOUND_CANONICALIZED>
1

> <PUBCHEM_CACTVS_COMPLEXITY>
862

> <PUBCHEM_CACTVS_HBOND_ACCEPTOR>
5

> <PUBCHEM_CACTVS_HBOND_DONOR>
3

> <PUBCHEM_CACTVS_ROTATABLE_BOND>
10

> <PUBCHEM_CACTVS_SUBSKEYS>
AAADcfB7OAAAAAAAAAAAAAAAAAAAAWAAAAA8YMEAAAAWAFgB9AAAHgAQCAAADizhngYyzvPJlgCoAyXyXACCgCAnIiAImaG+bNgIZvLCtbOWcQhk1hHI+YeYyfCfgAABAAACAAAAAAKAAAQAAAAAAAAAAA==

> <PUBCHEM_IUPAC_OPENEYE_NAME>
ethyl (2Z)-2-[(1S,5S)-5-(3-hydroxyphenyl)-2-[4-(1H-indole-2-carbonylamino)butyl]-2-azabicyclo[3.3.1]nonan-9-ylidene]acetate

> <PUBCHEM_IUPAC_CAS_NAME>
(2Z)-2-[(1S,5S)-5-(3-hydroxyphenyl)-2-[4-[[1H-indol-2-yl(oxo)methyl]amino]butyl]-2-azabicyclo[3.3.1]nonan-9-ylidene]acetic acid ethyl ester

> <PUBCHEM_IUPAC_NAME_MARKUP>
ethyl (2<I>Z</I>)-2-[(1<I>S</I>,5<I>S</I>)-5-(3-hydroxyphenyl)-2-[4-(1<I>H</I>-indole-2-carbonylamino)butyl]-2-azabicyclo[3.3.1]nonan-9-ylidene]acetate

> <PUBCHEM_IUPAC_NAME>
ethyl (2Z)-2-[(1S,5S)-5-(3-hydroxyphenyl)-2-[4-(1H-indole-2-carbonylamino)butyl]-2-azabicyclo[3.3.1]nonan-9-ylidene]acetate

> <PUBCHEM_IUPAC_SYSTEMATIC_NAME>
ethyl (2Z)-2-[(1S,5S)-5-(3-hydroxyphenyl)-2-[4-(1H-indol-2-ylcarbonylamino)butyl]-2-azabicyclo[3.3.1]nonan-9-ylidene]ethanoate

> <PUBCHEM_IUPAC_TRADITIONAL_NAME>
(2Z)-2-[(1S,5S)-5-(3-hydroxyphenyl)-2-[4-(1H-indole-2-carbonylamino)butyl]-2-azabicyclo[3.3.1]nonan-9-ylidene]acetic acid ethyl ester

> <PUBCHEM_IUPAC_INCHI>
InChI=1S/C31H37N3O4/c1-2-38-29(36)21-25-28-13-8-14-31(25,23-10-7-11-24(35)20-23)15-18-34(28)17-6-5-16-32-30(37)27-19-22-9-3-4-12-26(22)33-27/h3-4,7,9-12,19-21,28,33,35H,2,5-6,8,13-18H2,1H3,(H,32,37)/b25-21+/t28-,31-/m0/s1

> <PUBCHEM_IUPAC_INCHIKEY>
PUTDAMBATXHKHN-RBQJHTGYSA-N

> <PUBCHEM_XLOGP3_AA>
5.1

> <PUBCHEM_EXACT_MASS>
515.27840667

> <PUBCHEM_MOLECULAR_FORMULA>
C31H37N3O4

> <PUBCHEM_MOLECULAR_WEIGHT>
515.6

> <PUBCHEM_OPENEYE_CAN_SMILES>
CCOC(=O)C=C1C2CCCC1(CCN2CCCCNC(=O)C3=CC4=CC=CC=C4N3)C5=CC(=CC=C5)O

> <PUBCHEM_OPENEYE_ISO_SMILES>
CCOC(=O)/C=C/1\[C@@H]2CCC[C@]1(CCN2CCCCNC(=O)C3=CC4=CC=CC=C4N3)C5=CC(=CC=C5)O

> <PUBCHEM_CACTVS_TPSA>
94.7

> <PUBCHEM_MONOISOTOPIC_WEIGHT>
515.27840667

> <PUBCHEM_TOTAL_CHARGE>
0

> <PUBCHEM_HEAVY_ATOM_COUNT>
38

> <PUBCHEM_ATOM_DEF_STEREO_COUNT>
2

> <PUBCHEM_ATOM_UDEF_STEREO_COUNT>
0

> <PUBCHEM_BOND_DEF_STEREO_COUNT>
1

> <PUBCHEM_BOND_UDEF_STEREO_COUNT>
0

> <PUBCHEM_ISOTOPIC_ATOM_COUNT>
0

> <PUBCHEM_COMPONENT_COUNT>
1

> <PUBCHEM_CACTVS_TAUTO_COUNT>
-1

> <PUBCHEM_COORDINATE_TYPE>
1
5
255

> <PUBCHEM_BONDANNOTATIONS>
16  20  8
16  21  8
20  24  8
21  25  8
24  26  8
25  26  8
31  32  8
32  34  8
33  34  8
33  35  8
34  36  8
35  37  8
36  38  8
37  38  8
7  31  8
7  33  8
8  16  6
9  39  5

$$$$
