11710817
  -OEChem-09292322262D

 57 61  0     0  0  0  0  0  0999 V2000
    9.3426   -5.1661    0.0000 O   0  0  0  0  0  0  0  0  0  0  0  0
    5.8853   -0.1317    0.0000 N   0  0  0  0  0  0  0  0  0  0  0  0
    5.8622   -2.1315    0.0000 N   0  0  0  0  0  0  0  0  0  0  0  0
    7.6106   -5.1661    0.0000 N   0  0  0  0  0  0  0  0  0  0  0  0
    2.6171    3.2383    0.0000 N   0  0  0  0  0  0  0  0  0  0  0  0
    5.0135   -0.6216    0.0000 C   0  0  0  0  0  0  0  0  0  0  0  0
    6.7455   -0.6416    0.0000 C   0  0  0  0  0  0  0  0  0  0  0  0
    5.0020   -1.6215    0.0000 C   0  0  0  0  0  0  0  0  0  0  0  0
    6.7339   -1.6416    0.0000 C   0  0  0  0  0  0  0  0  0  0  0  0
    5.8968    0.8683    0.0000 C   0  0  0  0  0  0  0  0  0  0  0  0
    5.8506   -3.1315    0.0000 C   0  0  0  0  0  0  0  0  0  0  0  0
    5.0367    1.3783    0.0000 C   0  0  0  0  0  0  0  0  0  0  0  0
    6.7445   -3.6661    0.0000 C   0  0  0  0  0  0  0  0  0  0  0  0
    5.0482    2.3782    0.0000 C   0  0  0  0  0  0  0  0  0  0  0  0
    7.6106   -3.1661    0.0000 C   0  0  0  0  0  0  0  0  0  0  0  0
    6.7445   -4.6661    0.0000 C   0  0  0  0  0  0  0  0  0  0  0  0
    4.9445   -3.6453    0.0000 C   0  0  0  0  0  0  0  0  0  0  0  0
    8.4766   -3.6661    0.0000 C   0  0  0  0  0  0  0  0  0  0  0  0
    4.1880    2.8882    0.0000 C   0  0  0  0  0  0  0  0  0  0  0  0
    5.8506   -5.2008    0.0000 C   0  0  0  0  0  0  0  0  0  0  0  0
    4.9445   -4.6869    0.0000 C   0  0  0  0  0  0  0  0  0  0  0  0
    4.0964    3.8780    0.0000 C   0  0  0  0  0  0  0  0  0  0  0  0
    8.4766   -4.6661    0.0000 C   0  0  0  0  0  0  0  0  0  0  0  0
    3.2756    2.4936    0.0000 C   0  0  0  0  0  0  0  0  0  0  0  0
    3.1204    4.0955    0.0000 C   0  0  0  0  0  0  0  0  0  0  0  0
    4.7728    4.6146    0.0000 C   0  0  0  0  0  0  0  0  0  0  0  0
    2.8207    5.0496    0.0000 C   0  0  0  0  0  0  0  0  0  0  0  0
    4.4732    5.5686    0.0000 C   0  0  0  0  0  0  0  0  0  0  0  0
    3.4971    5.7861    0.0000 C   0  0  0  0  0  0  0  0  0  0  0  0
    4.8082   -0.0366    0.0000 H   0  0  0  0  0  0  0  0  0  0  0  0
    4.4018   -0.7222    0.0000 H   0  0  0  0  0  0  0  0  0  0  0  0
    7.3548   -0.7564    0.0000 H   0  0  0  0  0  0  0  0  0  0  0  0
    6.9642   -0.0615    0.0000 H   0  0  0  0  0  0  0  0  0  0  0  0
    4.3927   -1.5068    0.0000 H   0  0  0  0  0  0  0  0  0  0  0  0
    4.7832   -2.2017    0.0000 H   0  0  0  0  0  0  0  0  0  0  0  0
    6.9392   -2.2266    0.0000 H   0  0  0  0  0  0  0  0  0  0  0  0
    7.3457   -1.5410    0.0000 H   0  0  0  0  0  0  0  0  0  0  0  0
    6.5061    0.7536    0.0000 H   0  0  0  0  0  0  0  0  0  0  0  0
    6.1156    1.4484    0.0000 H   0  0  0  0  0  0  0  0  0  0  0  0
    4.4274    1.4930    0.0000 H   0  0  0  0  0  0  0  0  0  0  0  0
    4.8179    0.7981    0.0000 H   0  0  0  0  0  0  0  0  0  0  0  0
    5.6575    2.2635    0.0000 H   0  0  0  0  0  0  0  0  0  0  0  0
    5.2670    2.9583    0.0000 H   0  0  0  0  0  0  0  0  0  0  0  0
    8.0091   -2.6912    0.0000 H   0  0  0  0  0  0  0  0  0  0  0  0
    7.2120   -2.6912    0.0000 H   0  0  0  0  0  0  0  0  0  0  0  0
    4.4088   -3.3332    0.0000 H   0  0  0  0  0  0  0  0  0  0  0  0
    9.0872   -3.7738    0.0000 H   0  0  0  0  0  0  0  0  0  0  0  0
    8.6886   -3.0835    0.0000 H   0  0  0  0  0  0  0  0  0  0  0  0
    5.8578   -5.8207    0.0000 H   0  0  0  0  0  0  0  0  0  0  0  0
    7.6106   -5.7861    0.0000 H   0  0  0  0  0  0  0  0  0  0  0  0
    4.4088   -4.9990    0.0000 H   0  0  0  0  0  0  0  0  0  0  0  0
    3.1408    1.8884    0.0000 H   0  0  0  0  0  0  0  0  0  0  0  0
    2.0000    3.1785    0.0000 H   0  0  0  0  0  0  0  0  0  0  0  0
    5.3780    4.4797    0.0000 H   0  0  0  0  0  0  0  0  0  0  0  0
    2.2156    5.1844    0.0000 H   0  0  0  0  0  0  0  0  0  0  0  0
    4.8926    6.0252    0.0000 H   0  0  0  0  0  0  0  0  0  0  0  0
    3.3113    6.3776    0.0000 H   0  0  0  0  0  0  0  0  0  0  0  0
  1 23  2  0  0  0  0
  2  6  1  0  0  0  0
  2  7  1  0  0  0  0
  2 10  1  0  0  0  0
  3  8  1  0  0  0  0
  3  9  1  0  0  0  0
  3 11  1  0  0  0  0
  4 16  1  0  0  0  0
  4 23  1  0  0  0  0
  4 50  1  0  0  0  0
  5 24  1  0  0  0  0
  5 25  1  0  0  0  0
  5 53  1  0  0  0  0
  6  8  1  0  0  0  0
  6 30  1  0  0  0  0
  6 31  1  0  0  0  0
  7  9  1  0  0  0  0
  7 32  1  0  0  0  0
  7 33  1  0  0  0  0
  8 34  1  0  0  0  0
  8 35  1  0  0  0  0
  9 36  1  0  0  0  0
  9 37  1  0  0  0  0
 10 12  1  0  0  0  0
 10 38  1  0  0  0  0
 10 39  1  0  0  0  0
 11 13  1  0  0  0  0
 11 17  2  0  0  0  0
 12 14  1  0  0  0  0
 12 40  1  0  0  0  0
 12 41  1  0  0  0  0
 13 15  1  0  0  0  0
 13 16  2  0  0  0  0
 14 19  1  0  0  0  0
 14 42  1  0  0  0  0
 14 43  1  0  0  0  0
 15 18  1  0  0  0  0
 15 44  1  0  0  0  0
 15 45  1  0  0  0  0
 16 20  1  0  0  0  0
 17 21  1  0  0  0  0
 17 46  1  0  0  0  0
 18 23  1  0  0  0  0
 18 47  1  0  0  0  0
 18 48  1  0  0  0  0
 19 22  1  0  0  0  0
 19 24  2  0  0  0  0
 20 21  2  0  0  0  0
 20 49  1  0  0  0  0
 21 51  1  0  0  0  0
 22 25  1  0  0  0  0
 22 26  2  0  0  0  0
 24 52  1  0  0  0  0
 25 27  2  0  0  0  0
 26 28  1  0  0  0  0
 26 54  1  0  0  0  0
 27 29  1  0  0  0  0
 27 55  1  0  0  0  0
 28 29  2  0  0  0  0
 28 56  1  0  0  0  0
 29 57  1  0  0  0  0
M  END
> <PUBCHEM_COMPOUND_CID>
11710817

> <PUBCHEM_COMPOUND_CANONICALIZED>
1

> <PUBCHEM_CACTVS_COMPLEXITY>
561

> <PUBCHEM_CACTVS_HBOND_ACCEPTOR>
3

> <PUBCHEM_CACTVS_HBOND_DONOR>
2

> <PUBCHEM_CACTVS_ROTATABLE_BOND>
5

> <PUBCHEM_CACTVS_SUBSKEYS>
AAADceB7oAAAAAAAAAAAAAAAAAAAAWAAAAA8eIEAAAAAAFix9AAAHgAQAAAADAjBngQ8wPPJkACoAzV3VACCgCAxAiAI2aE4ZJgIYPLA0dGUIAhglADIyAcYicCegAAAAAQCAAAAAAAACAQAAAAAAAAAAA==

> <PUBCHEM_IUPAC_OPENEYE_NAME>
5-[4-[3-(1H-indol-3-yl)propyl]piperazin-1-yl]-3,4-dihydro-1H-quinolin-2-one

> <PUBCHEM_IUPAC_CAS_NAME>
5-[4-[3-(1H-indol-3-yl)propyl]-1-piperazinyl]-3,4-dihydro-1H-quinolin-2-one

> <PUBCHEM_IUPAC_NAME_MARKUP>
5-[4-[3-(1<I>H</I>-indol-3-yl)propyl]piperazin-1-yl]-3,4-dihydro-1<I>H</I>-quinolin-2-one

> <PUBCHEM_IUPAC_NAME>
5-[4-[3-(1H-indol-3-yl)propyl]piperazin-1-yl]-3,4-dihydro-1H-quinolin-2-one

> <PUBCHEM_IUPAC_SYSTEMATIC_NAME>
5-[4-[3-(1H-indol-3-yl)propyl]piperazin-1-yl]-3,4-dihydro-1H-quinolin-2-one

> <PUBCHEM_IUPAC_TRADITIONAL_NAME>
5-[4-[3-(1H-indol-3-yl)propyl]piperazino]-3,4-dihydrocarbostyril

> <PUBCHEM_IUPAC_INCHI>
InChI=1S/C24H28N4O/c29-24-11-10-20-22(26-24)8-3-9-23(20)28-15-13-27(14-16-28)12-4-5-18-17-25-21-7-2-1-6-19(18)21/h1-3,6-9,17,25H,4-5,10-16H2,(H,26,29)

> <PUBCHEM_IUPAC_INCHIKEY>
GYEZZFVNEZKQSN-UHFFFAOYSA-N

> <PUBCHEM_XLOGP3_AA>
3.4

> <PUBCHEM_EXACT_MASS>
388.22631153

> <PUBCHEM_MOLECULAR_FORMULA>
C24H28N4O

> <PUBCHEM_MOLECULAR_WEIGHT>
388.5

> <PUBCHEM_OPENEYE_CAN_SMILES>
C1CC(=O)NC2=C1C(=CC=C2)N3CCN(CC3)CCCC4=CNC5=CC=CC=C54

> <PUBCHEM_OPENEYE_ISO_SMILES>
C1CC(=O)NC2=C1C(=CC=C2)N3CCN(CC3)CCCC4=CNC5=CC=CC=C54

> <PUBCHEM_CACTVS_TPSA>
51.4

> <PUBCHEM_MONOISOTOPIC_WEIGHT>
388.22631153

> <PUBCHEM_TOTAL_CHARGE>
0

> <PUBCHEM_HEAVY_ATOM_COUNT>
29

> <PUBCHEM_ATOM_DEF_STEREO_COUNT>
0

> <PUBCHEM_ATOM_UDEF_STEREO_COUNT>
0

> <PUBCHEM_BOND_DEF_STEREO_COUNT>
0

> <PUBCHEM_BOND_UDEF_STEREO_COUNT>
0

> <PUBCHEM_ISOTOPIC_ATOM_COUNT>
0

> <PUBCHEM_COMPONENT_COUNT>
1

> <PUBCHEM_CACTVS_TAUTO_COUNT>
-1

> <PUBCHEM_COORDINATE_TYPE>
1
5
255

> <PUBCHEM_BONDANNOTATIONS>
11  13  8
11  17  8
13  16  8
16  20  8
17  21  8
19  22  8
19  24  8
20  21  8
22  25  8
22  26  8
25  27  8
26  28  8
27  29  8
28  29  8
5  24  8
5  25  8

$$$$
