127040716
  -OEChem-09292322472D

 61 64  0     1  0  0  0  0  0999 V2000
    7.7746    2.1731    0.0000 S   0  0  0  0  0  0  0  0  0  0  0  0
   10.3726   -7.3269    0.0000 F   0  0  0  0  0  0  0  0  0  0  0  0
    9.3726   -6.3269    0.0000 F   0  0  0  0  0  0  0  0  0  0  0  0
   11.3726   -6.3269    0.0000 F   0  0  0  0  0  0  0  0  0  0  0  0
   11.2387   -1.8269    0.0000 O   0  0  0  0  0  0  0  0  0  0  0  0
    2.4356    5.1027    0.0000 O   0  0  0  0  0  0  0  0  0  0  0  0
    9.5066   -0.8269    0.0000 N   0  0  3  0  0  0  0  0  0  0  0  0
    6.8040    3.6677    0.0000 N   0  0  0  0  0  0  0  0  0  0  0  0
    5.9950    2.2664    0.0000 N   0  0  0  0  0  0  0  0  0  0  0  0
    5.3259    3.0096    0.0000 N   0  0  0  0  0  0  0  0  0  0  0  0
    2.6166    6.8253    0.0000 N   0  0  0  0  0  0  0  0  0  0  0  0
    9.5066   -1.8269    0.0000 C   0  0  0  0  0  0  0  0  0  0  0  0
   10.3726   -2.3269    0.0000 C   0  0  3  0  0  0  0  0  0  0  0  0
   10.3726   -0.3269    0.0000 C   0  0  0  0  0  0  0  0  0  0  0  0
    8.6406   -0.3269    0.0000 C   0  0  0  0  0  0  0  0  0  0  0  0
   11.2387   -0.8269    0.0000 C   0  0  0  0  0  0  0  0  0  0  0  0
   10.3726   -3.3269    0.0000 C   0  0  0  0  0  0  0  0  0  0  0  0
    8.6406    0.6731    0.0000 C   0  0  0  0  0  0  0  0  0  0  0  0
    7.7746    1.1731    0.0000 C   0  0  0  0  0  0  0  0  0  0  0  0
   11.2387   -3.8269    0.0000 C   0  0  0  0  0  0  0  0  0  0  0  0
    9.5066   -3.8269    0.0000 C   0  0  0  0  0  0  0  0  0  0  0  0
   11.2387   -4.8269    0.0000 C   0  0  0  0  0  0  0  0  0  0  0  0
    9.5066   -4.8269    0.0000 C   0  0  0  0  0  0  0  0  0  0  0  0
   10.3726   -5.3269    0.0000 C   0  0  0  0  0  0  0  0  0  0  0  0
    6.9085    2.6731    0.0000 C   0  0  0  0  0  0  0  0  0  0  0  0
   10.3726   -6.3269    0.0000 C   0  0  0  0  0  0  0  0  0  0  0  0
    5.8259    3.8756    0.0000 C   0  0  0  0  0  0  0  0  0  0  0  0
    5.4191    4.7891    0.0000 C   0  0  0  0  0  0  0  0  0  0  0  0
    7.5472    4.3368    0.0000 C   0  0  0  0  0  0  0  0  0  0  0  0
    4.4246    4.8936    0.0000 C   0  0  0  0  0  0  0  0  0  0  0  0
    6.0069    5.5981    0.0000 C   0  0  0  0  0  0  0  0  0  0  0  0
    4.0179    5.8072    0.0000 C   0  0  0  0  0  0  0  0  0  0  0  0
    5.6002    6.5117    0.0000 C   0  0  0  0  0  0  0  0  0  0  0  0
    4.6056    6.6162    0.0000 C   0  0  0  0  0  0  0  0  0  0  0  0
    3.0233    5.9117    0.0000 C   0  0  0  0  0  0  0  0  0  0  0  0
    8.8960   -1.7192    0.0000 H   0  0  0  0  0  0  0  0  0  0  0  0
    9.2946   -2.4095    0.0000 H   0  0  0  0  0  0  0  0  0  0  0  0
    9.8357   -2.6369    0.0000 H   0  0  0  0  0  0  0  0  0  0  0  0
   10.7712    0.1481    0.0000 H   0  0  0  0  0  0  0  0  0  0  0  0
    9.9741    0.1481    0.0000 H   0  0  0  0  0  0  0  0  0  0  0  0
    8.0300   -0.2192    0.0000 H   0  0  0  0  0  0  0  0  0  0  0  0
    8.4285   -0.9095    0.0000 H   0  0  0  0  0  0  0  0  0  0  0  0
   11.8492   -0.9345    0.0000 H   0  0  0  0  0  0  0  0  0  0  0  0
   11.4507   -0.2442    0.0000 H   0  0  0  0  0  0  0  0  0  0  0  0
    9.2512    0.5655    0.0000 H   0  0  0  0  0  0  0  0  0  0  0  0
    8.8526    1.2558    0.0000 H   0  0  0  0  0  0  0  0  0  0  0  0
    7.1640    1.2808    0.0000 H   0  0  0  0  0  0  0  0  0  0  0  0
    7.5625    0.5905    0.0000 H   0  0  0  0  0  0  0  0  0  0  0  0
   11.7756   -3.5169    0.0000 H   0  0  0  0  0  0  0  0  0  0  0  0
    8.9697   -3.5169    0.0000 H   0  0  0  0  0  0  0  0  0  0  0  0
   11.7756   -5.1369    0.0000 H   0  0  0  0  0  0  0  0  0  0  0  0
    8.9697   -5.1369    0.0000 H   0  0  0  0  0  0  0  0  0  0  0  0
    7.9620    3.8760    0.0000 H   0  0  0  0  0  0  0  0  0  0  0  0
    8.0079    4.7517    0.0000 H   0  0  0  0  0  0  0  0  0  0  0  0
    7.1323    4.7975    0.0000 H   0  0  0  0  0  0  0  0  0  0  0  0
    4.0602    4.3921    0.0000 H   0  0  0  0  0  0  0  0  0  0  0  0
    6.6235    5.5333    0.0000 H   0  0  0  0  0  0  0  0  0  0  0  0
    5.9646    7.0133    0.0000 H   0  0  0  0  0  0  0  0  0  0  0  0
    4.3535    7.1826    0.0000 H   0  0  0  0  0  0  0  0  0  0  0  0
    2.0000    6.8901    0.0000 H   0  0  0  0  0  0  0  0  0  0  0  0
    2.9810    7.3269    0.0000 H   0  0  0  0  0  0  0  0  0  0  0  0
  1 19  1  0  0  0  0
  1 25  1  0  0  0  0
  2 26  1  0  0  0  0
  3 26  1  0  0  0  0
  4 26  1  0  0  0  0
  5 13  1  0  0  0  0
  5 16  1  0  0  0  0
  6 35  2  0  0  0  0
  7 12  1  0  0  0  0
  7 14  1  0  0  0  0
  7 15  1  0  0  0  0
  8 25  1  0  0  0  0
  8 27  1  0  0  0  0
  8 29  1  0  0  0  0
  9 10  1  0  0  0  0
  9 25  2  0  0  0  0
 10 27  2  0  0  0  0
 11 35  1  0  0  0  0
 11 60  1  0  0  0  0
 11 61  1  0  0  0  0
 12 13  1  0  0  0  0
 12 36  1  0  0  0  0
 12 37  1  0  0  0  0
 13 17  1  0  0  0  0
 13 38  1  0  0  0  0
 14 16  1  0  0  0  0
 14 39  1  0  0  0  0
 14 40  1  0  0  0  0
 15 18  1  0  0  0  0
 15 41  1  0  0  0  0
 15 42  1  0  0  0  0
 16 43  1  0  0  0  0
 16 44  1  0  0  0  0
 17 20  2  0  0  0  0
 17 21  1  0  0  0  0
 18 19  1  0  0  0  0
 18 45  1  0  0  0  0
 18 46  1  0  0  0  0
 19 47  1  0  0  0  0
 19 48  1  0  0  0  0
 20 22  1  0  0  0  0
 20 49  1  0  0  0  0
 21 23  2  0  0  0  0
 21 50  1  0  0  0  0
 22 24  2  0  0  0  0
 22 51  1  0  0  0  0
 23 24  1  0  0  0  0
 23 52  1  0  0  0  0
 24 26  1  0  0  0  0
 27 28  1  0  0  0  0
 28 30  2  0  0  0  0
 28 31  1  0  0  0  0
 29 53  1  0  0  0  0
 29 54  1  0  0  0  0
 29 55  1  0  0  0  0
 30 32  1  0  0  0  0
 30 56  1  0  0  0  0
 31 33  2  0  0  0  0
 31 57  1  0  0  0  0
 32 34  2  0  0  0  0
 32 35  1  0  0  0  0
 33 34  1  0  0  0  0
 33 58  1  0  0  0  0
 34 59  1  0  0  0  0
M  END
> <PUBCHEM_COMPOUND_CID>
127040716

> <PUBCHEM_COMPOUND_CANONICALIZED>
1

> <PUBCHEM_CACTVS_COMPLEXITY>
695

> <PUBCHEM_CACTVS_HBOND_ACCEPTOR>
9

> <PUBCHEM_CACTVS_HBOND_DONOR>
1

> <PUBCHEM_CACTVS_ROTATABLE_BOND>
8

> <PUBCHEM_CACTVS_SUBSKEYS>
AAADceB7sYBAAAAAAAAAAAAAAAAAAWAAAAA8YIAAAAAAAAAB0AAAHwQYAAAADBTl2xazEIdMFAiqAiNyNACS0AtkALAdyCEoDNiKLrKgvRmHMQhkyAOYqYeYyfCOQAACAAAAAACAAAQAAAAAAAAAAAAAAA==

> <PUBCHEM_IUPAC_OPENEYE_NAME>
3-[4-methyl-5-[3-[2-[4-(trifluoromethyl)phenyl]morpholin-4-yl]propylsulfanyl]-1,2,4-triazol-3-yl]benzamide

> <PUBCHEM_IUPAC_CAS_NAME>
3-[4-methyl-5-[3-[2-[4-(trifluoromethyl)phenyl]-4-morpholinyl]propylthio]-1,2,4-triazol-3-yl]benzamide

> <PUBCHEM_IUPAC_NAME_MARKUP>
3-[4-methyl-5-[3-[2-[4-(trifluoromethyl)phenyl]morpholin-4-yl]propylsulfanyl]-1,2,4-triazol-3-yl]benzamide

> <PUBCHEM_IUPAC_NAME>
3-[4-methyl-5-[3-[2-[4-(trifluoromethyl)phenyl]morpholin-4-yl]propylsulfanyl]-1,2,4-triazol-3-yl]benzamide

> <PUBCHEM_IUPAC_SYSTEMATIC_NAME>
3-[4-methyl-5-[3-[2-[4-(trifluoromethyl)phenyl]morpholin-4-yl]propylsulfanyl]-1,2,4-triazol-3-yl]benzamide

> <PUBCHEM_IUPAC_TRADITIONAL_NAME>
3-[4-methyl-5-[3-[2-[4-(trifluoromethyl)phenyl]morpholino]propylthio]-1,2,4-triazol-3-yl]benzamide

> <PUBCHEM_IUPAC_INCHI>
InChI=1S/C24H26F3N5O2S/c1-31-22(18-5-2-4-17(14-18)21(28)33)29-30-23(31)35-13-3-10-32-11-12-34-20(15-32)16-6-8-19(9-7-16)24(25,26)27/h2,4-9,14,20H,3,10-13,15H2,1H3,(H2,28,33)

> <PUBCHEM_IUPAC_INCHIKEY>
ZBGYXTWHZHZMHW-UHFFFAOYSA-N

> <PUBCHEM_XLOGP3_AA>
3.2

> <PUBCHEM_EXACT_MASS>
505.17593075

> <PUBCHEM_MOLECULAR_FORMULA>
C24H26F3N5O2S

> <PUBCHEM_MOLECULAR_WEIGHT>
505.6

> <PUBCHEM_OPENEYE_CAN_SMILES>
CN1C(=NN=C1SCCCN2CCOC(C2)C3=CC=C(C=C3)C(F)(F)F)C4=CC(=CC=C4)C(=O)N

> <PUBCHEM_OPENEYE_ISO_SMILES>
CN1C(=NN=C1SCCCN2CCOC(C2)C3=CC=C(C=C3)C(F)(F)F)C4=CC(=CC=C4)C(=O)N

> <PUBCHEM_CACTVS_TPSA>
112

> <PUBCHEM_MONOISOTOPIC_WEIGHT>
505.17593075

> <PUBCHEM_TOTAL_CHARGE>
0

> <PUBCHEM_HEAVY_ATOM_COUNT>
35

> <PUBCHEM_ATOM_DEF_STEREO_COUNT>
0

> <PUBCHEM_ATOM_UDEF_STEREO_COUNT>
1

> <PUBCHEM_BOND_DEF_STEREO_COUNT>
0

> <PUBCHEM_BOND_UDEF_STEREO_COUNT>
0

> <PUBCHEM_ISOTOPIC_ATOM_COUNT>
0

> <PUBCHEM_COMPONENT_COUNT>
1

> <PUBCHEM_CACTVS_TAUTO_COUNT>
-1

> <PUBCHEM_COORDINATE_TYPE>
1
5
255

> <PUBCHEM_BONDANNOTATIONS>
10  27  8
13  17  3
17  20  8
17  21  8
20  22  8
21  23  8
22  24  8
23  24  8
28  30  8
28  31  8
30  32  8
31  33  8
32  34  8
33  34  8
8  25  8
8  27  8
9  10  8
9  25  8

$$$$
