44338286
  -OEChem-09292322192D

 52 55  0     0  0  0  0  0  0999 V2000
    8.9030    1.9540    0.0000 Cl  0  0  0  0  0  0  0  0  0  0  0  0
    6.2619   -0.6261    0.0000 S   0  0  0  0  0  0  0  0  0  0  0  0
   11.7619   -1.4921    0.0000 O   0  0  0  0  0  0  0  0  0  0  0  0
    4.6783    0.1786    0.0000 N   0  0  0  0  0  0  0  0  0  0  0  0
    4.6783   -1.4308    0.0000 N   0  0  0  0  0  0  0  0  0  0  0  0
   10.7619   -1.4921    0.0000 C   0  0  0  0  0  0  0  0  0  0  0  0
    9.7619   -1.4921    0.0000 C   0  0  0  0  0  0  0  0  0  0  0  0
    3.7320   -0.1261    0.0000 C   0  0  0  0  0  0  0  0  0  0  0  0
    4.9889    1.1292    0.0000 C   0  0  0  0  0  0  0  0  0  0  0  0
    5.2619   -0.6261    0.0000 C   0  0  0  0  0  0  0  0  0  0  0  0
    3.7320   -1.1261    0.0000 C   0  0  0  0  0  0  0  0  0  0  0  0
    7.7619   -1.4921    0.0000 C   0  0  0  0  0  0  0  0  0  0  0  0
    6.7619   -1.4921    0.0000 C   0  0  0  0  0  0  0  0  0  0  0  0
   10.7619   -2.4921    0.0000 C   0  0  0  0  0  0  0  0  0  0  0  0
   10.7619   -0.4921    0.0000 C   0  0  0  0  0  0  0  0  0  0  0  0
    9.2619   -0.6261    0.0000 C   0  0  0  0  0  0  0  0  0  0  0  0
    9.2619   -2.3581    0.0000 C   0  0  0  0  0  0  0  0  0  0  0  0
    5.9674    1.3354    0.0000 C   0  0  0  0  0  0  0  0  0  0  0  0
    8.2619   -0.6261    0.0000 C   0  0  0  0  0  0  0  0  0  0  0  0
    8.2619   -2.3581    0.0000 C   0  0  0  0  0  0  0  0  0  0  0  0
    2.8660    0.3739    0.0000 C   0  0  0  0  0  0  0  0  0  0  0  0
    2.8660   -1.6261    0.0000 C   0  0  0  0  0  0  0  0  0  0  0  0
    2.0000   -0.1261    0.0000 C   0  0  0  0  0  0  0  0  0  0  0  0
    2.0000   -1.1261    0.0000 C   0  0  0  0  0  0  0  0  0  0  0  0
    6.2781    2.2859    0.0000 C   0  0  0  0  0  0  0  0  0  0  0  0
    6.6353    0.5911    0.0000 C   0  0  0  0  0  0  0  0  0  0  0  0
    7.2566    2.4921    0.0000 C   0  0  0  0  0  0  0  0  0  0  0  0
    7.6138    0.7973    0.0000 C   0  0  0  0  0  0  0  0  0  0  0  0
    7.9244    1.7478    0.0000 C   0  0  0  0  0  0  0  0  0  0  0  0
    4.9684    1.7488    0.0000 H   0  0  0  0  0  0  0  0  0  0  0  0
    4.3751    1.2165    0.0000 H   0  0  0  0  0  0  0  0  0  0  0  0
    6.1793   -1.7042    0.0000 H   0  0  0  0  0  0  0  0  0  0  0  0
    6.8695   -2.1027    0.0000 H   0  0  0  0  0  0  0  0  0  0  0  0
   10.1419   -2.4921    0.0000 H   0  0  0  0  0  0  0  0  0  0  0  0
   10.7619   -3.1121    0.0000 H   0  0  0  0  0  0  0  0  0  0  0  0
   11.3819   -2.4921    0.0000 H   0  0  0  0  0  0  0  0  0  0  0  0
   11.3819   -0.4921    0.0000 H   0  0  0  0  0  0  0  0  0  0  0  0
   10.7619    0.1279    0.0000 H   0  0  0  0  0  0  0  0  0  0  0  0
   10.1419   -0.4921    0.0000 H   0  0  0  0  0  0  0  0  0  0  0  0
    9.5719   -0.0892    0.0000 H   0  0  0  0  0  0  0  0  0  0  0  0
    9.5719   -2.8951    0.0000 H   0  0  0  0  0  0  0  0  0  0  0  0
    7.9519   -0.0892    0.0000 H   0  0  0  0  0  0  0  0  0  0  0  0
    7.9519   -2.8951    0.0000 H   0  0  0  0  0  0  0  0  0  0  0  0
    2.8660    0.9939    0.0000 H   0  0  0  0  0  0  0  0  0  0  0  0
    2.8660   -2.2461    0.0000 H   0  0  0  0  0  0  0  0  0  0  0  0
   12.0719   -2.0290    0.0000 H   0  0  0  0  0  0  0  0  0  0  0  0
    1.4631    0.1839    0.0000 H   0  0  0  0  0  0  0  0  0  0  0  0
    5.8640    2.7474    0.0000 H   0  0  0  0  0  0  0  0  0  0  0  0
    6.4427    0.0018    0.0000 H   0  0  0  0  0  0  0  0  0  0  0  0
    1.4631   -1.4361    0.0000 H   0  0  0  0  0  0  0  0  0  0  0  0
    7.4492    3.0814    0.0000 H   0  0  0  0  0  0  0  0  0  0  0  0
    8.0279    0.3358    0.0000 H   0  0  0  0  0  0  0  0  0  0  0  0
  1 29  1  0  0  0  0
  2 10  1  0  0  0  0
  2 13  1  0  0  0  0
  3  6  1  0  0  0  0
  3 46  1  0  0  0  0
  4  8  1  0  0  0  0
  4  9  1  0  0  0  0
  4 10  1  0  0  0  0
  5 10  2  0  0  0  0
  5 11  1  0  0  0  0
  6  7  1  0  0  0  0
  6 14  1  0  0  0  0
  6 15  1  0  0  0  0
  7 16  2  0  0  0  0
  7 17  1  0  0  0  0
  8 11  1  0  0  0  0
  8 21  2  0  0  0  0
  9 18  1  0  0  0  0
  9 30  1  0  0  0  0
  9 31  1  0  0  0  0
 11 22  2  0  0  0  0
 12 13  1  0  0  0  0
 12 19  2  0  0  0  0
 12 20  1  0  0  0  0
 13 32  1  0  0  0  0
 13 33  1  0  0  0  0
 14 34  1  0  0  0  0
 14 35  1  0  0  0  0
 14 36  1  0  0  0  0
 15 37  1  0  0  0  0
 15 38  1  0  0  0  0
 15 39  1  0  0  0  0
 16 19  1  0  0  0  0
 16 40  1  0  0  0  0
 17 20  2  0  0  0  0
 17 41  1  0  0  0  0
 18 25  2  0  0  0  0
 18 26  1  0  0  0  0
 19 42  1  0  0  0  0
 20 43  1  0  0  0  0
 21 23  1  0  0  0  0
 21 44  1  0  0  0  0
 22 24  1  0  0  0  0
 22 45  1  0  0  0  0
 23 24  2  0  0  0  0
 23 47  1  0  0  0  0
 24 50  1  0  0  0  0
 25 27  1  0  0  0  0
 25 48  1  0  0  0  0
 26 28  2  0  0  0  0
 26 49  1  0  0  0  0
 27 29  2  0  0  0  0
 27 51  1  0  0  0  0
 28 29  1  0  0  0  0
 28 52  1  0  0  0  0
M  END
> <PUBCHEM_COMPOUND_CID>
44338286

> <PUBCHEM_COMPOUND_CANONICALIZED>
1

> <PUBCHEM_CACTVS_COMPLEXITY>
517

> <PUBCHEM_CACTVS_HBOND_ACCEPTOR>
3

> <PUBCHEM_CACTVS_HBOND_DONOR>
1

> <PUBCHEM_CACTVS_ROTATABLE_BOND>
6

> <PUBCHEM_CACTVS_SUBSKEYS>
AAADceB7IABEAAAAAAAAAAAAAAAAAWAAAAAwYMAAAAAAAFgB9AAAHgYACAAADE7F3iSz0LcMEgigAyRiZACC0C1hF7AJ2CA4fpiIbqLhm5GUcAhswAPI2CeQwPAOxAAAAAAAACCIAAAAAAAAQAAAAAAAAA==

> <PUBCHEM_IUPAC_OPENEYE_NAME>
2-[4-[[1-[(4-chlorophenyl)methyl]benzimidazol-2-yl]sulfanylmethyl]phenyl]propan-2-ol

> <PUBCHEM_IUPAC_CAS_NAME>
2-[4-[[[1-[(4-chlorophenyl)methyl]-2-benzimidazolyl]thio]methyl]phenyl]-2-propanol

> <PUBCHEM_IUPAC_NAME_MARKUP>
2-[4-[[1-[(4-chlorophenyl)methyl]benzimidazol-2-yl]sulfanylmethyl]phenyl]propan-2-ol

> <PUBCHEM_IUPAC_NAME>
2-[4-[[1-[(4-chlorophenyl)methyl]benzimidazol-2-yl]sulfanylmethyl]phenyl]propan-2-ol

> <PUBCHEM_IUPAC_SYSTEMATIC_NAME>
2-[4-[[1-[(4-chlorophenyl)methyl]benzimidazol-2-yl]sulfanylmethyl]phenyl]propan-2-ol

> <PUBCHEM_IUPAC_TRADITIONAL_NAME>
2-[4-[[[1-(4-chlorobenzyl)benzimidazol-2-yl]thio]methyl]phenyl]propan-2-ol

> <PUBCHEM_IUPAC_INCHI>
InChI=1S/C24H23ClN2OS/c1-24(2,28)19-11-7-18(8-12-19)16-29-23-26-21-5-3-4-6-22(21)27(23)15-17-9-13-20(25)14-10-17/h3-14,28H,15-16H2,1-2H3

> <PUBCHEM_IUPAC_INCHIKEY>
QWNXSXJQQRBDOH-UHFFFAOYSA-N

> <PUBCHEM_XLOGP3_AA>
5.7

> <PUBCHEM_EXACT_MASS>
422.1219622

> <PUBCHEM_MOLECULAR_FORMULA>
C24H23ClN2OS

> <PUBCHEM_MOLECULAR_WEIGHT>
423.0

> <PUBCHEM_OPENEYE_CAN_SMILES>
CC(C)(C1=CC=C(C=C1)CSC2=NC3=CC=CC=C3N2CC4=CC=C(C=C4)Cl)O

> <PUBCHEM_OPENEYE_ISO_SMILES>
CC(C)(C1=CC=C(C=C1)CSC2=NC3=CC=CC=C3N2CC4=CC=C(C=C4)Cl)O

> <PUBCHEM_CACTVS_TPSA>
63.4

> <PUBCHEM_MONOISOTOPIC_WEIGHT>
422.1219622

> <PUBCHEM_TOTAL_CHARGE>
0

> <PUBCHEM_HEAVY_ATOM_COUNT>
29

> <PUBCHEM_ATOM_DEF_STEREO_COUNT>
0

> <PUBCHEM_ATOM_UDEF_STEREO_COUNT>
0

> <PUBCHEM_BOND_DEF_STEREO_COUNT>
0

> <PUBCHEM_BOND_UDEF_STEREO_COUNT>
0

> <PUBCHEM_ISOTOPIC_ATOM_COUNT>
0

> <PUBCHEM_COMPONENT_COUNT>
1

> <PUBCHEM_CACTVS_TAUTO_COUNT>
-1

> <PUBCHEM_COORDINATE_TYPE>
1
5
255

> <PUBCHEM_BONDANNOTATIONS>
11  22  8
12  19  8
12  20  8
16  19  8
17  20  8
18  25  8
18  26  8
21  23  8
22  24  8
23  24  8
25  27  8
26  28  8
27  29  8
28  29  8
4  10  8
4  8  8
5  10  8
5  11  8
7  16  8
7  17  8
8  11  8
8  21  8

$$$$
