44374409
  -OEChem-09292322152D

 61 64  0     1  0  0  0  0  0999 V2000
    2.3660    0.9330    0.0000 F   0  0  0  0  0  0  0  0  0  0  0  0
    2.0000    2.2990    0.0000 F   0  0  0  0  0  0  0  0  0  0  0  0
    3.3660    2.6651    0.0000 F   0  0  0  0  0  0  0  0  0  0  0  0
   18.4939   -1.7990    0.0000 F   0  0  0  0  0  0  0  0  0  0  0  0
   12.4939   -1.7990    0.0000 O   0  0  0  0  0  0  0  0  0  0  0  0
    6.9939    0.7990    0.0000 N   0  0  3  0  0  0  0  0  0  0  0  0
   12.4939   -0.0670    0.0000 N   0  0  0  0  0  0  0  0  0  0  0  0
    9.4939   -0.0670    0.0000 C   0  0  0  0  0  0  0  0  0  0  0  0
    9.9939   -0.9330    0.0000 C   0  0  0  0  0  0  0  0  0  0  0  0
    9.9939    0.7990    0.0000 C   0  0  0  0  0  0  0  0  0  0  0  0
   11.4939   -0.0670    0.0000 C   0  0  0  0  0  0  0  0  0  0  0  0
   10.9939   -0.9330    0.0000 C   0  0  0  0  0  0  0  0  0  0  0  0
   10.9939    0.7990    0.0000 C   0  0  0  0  0  0  0  0  0  0  0  0
    8.4939   -0.0670    0.0000 C   0  0  0  0  0  0  0  0  0  0  0  0
    7.9939    0.7990    0.0000 C   0  0  0  0  0  0  0  0  0  0  0  0
    6.4103    1.6038    0.0000 C   0  0  0  0  0  0  0  0  0  0  0  0
    6.4103   -0.0057    0.0000 C   0  0  0  0  0  0  0  0  0  0  0  0
    5.4641    1.2990    0.0000 C   0  0  0  0  0  0  0  0  0  0  0  0
    5.4641    0.2990    0.0000 C   0  0  0  0  0  0  0  0  0  0  0  0
   12.9939   -0.9330    0.0000 C   0  0  0  0  0  0  0  0  0  0  0  0
    4.5981    1.7990    0.0000 C   0  0  0  0  0  0  0  0  0  0  0  0
    4.5981   -0.2010    0.0000 C   0  0  0  0  0  0  0  0  0  0  0  0
    3.7320    1.2990    0.0000 C   0  0  0  0  0  0  0  0  0  0  0  0
    3.7320    0.2990    0.0000 C   0  0  0  0  0  0  0  0  0  0  0  0
   13.9939   -0.9330    0.0000 C   0  0  0  0  0  0  0  0  0  0  0  0
    2.8660    1.7990    0.0000 C   0  0  0  0  0  0  0  0  0  0  0  0
   14.4939   -1.7990    0.0000 C   0  0  0  0  0  0  0  0  0  0  0  0
   15.4939   -1.7990    0.0000 C   0  0  0  0  0  0  0  0  0  0  0  0
   15.9939   -2.6651    0.0000 C   0  0  0  0  0  0  0  0  0  0  0  0
   15.9939   -0.9330    0.0000 C   0  0  0  0  0  0  0  0  0  0  0  0
   16.9939   -2.6651    0.0000 C   0  0  0  0  0  0  0  0  0  0  0  0
   16.9939   -0.9330    0.0000 C   0  0  0  0  0  0  0  0  0  0  0  0
   17.4939   -1.7990    0.0000 C   0  0  0  0  0  0  0  0  0  0  0  0
    9.1839    0.4699    0.0000 H   0  0  0  0  0  0  0  0  0  0  0  0
    9.4113   -1.1451    0.0000 H   0  0  0  0  0  0  0  0  0  0  0  0
   10.1016   -1.5436    0.0000 H   0  0  0  0  0  0  0  0  0  0  0  0
   10.1016    1.4096    0.0000 H   0  0  0  0  0  0  0  0  0  0  0  0
    9.4113    1.0111    0.0000 H   0  0  0  0  0  0  0  0  0  0  0  0
   11.8039    0.4699    0.0000 H   0  0  0  0  0  0  0  0  0  0  0  0
   10.8863   -1.5436    0.0000 H   0  0  0  0  0  0  0  0  0  0  0  0
   11.5765   -1.1451    0.0000 H   0  0  0  0  0  0  0  0  0  0  0  0
   11.5765    1.0111    0.0000 H   0  0  0  0  0  0  0  0  0  0  0  0
   10.8863    1.4096    0.0000 H   0  0  0  0  0  0  0  0  0  0  0  0
    7.9113   -0.2790    0.0000 H   0  0  0  0  0  0  0  0  0  0  0  0
    8.6016   -0.6776    0.0000 H   0  0  0  0  0  0  0  0  0  0  0  0
    8.5765    1.0111    0.0000 H   0  0  0  0  0  0  0  0  0  0  0  0
    7.8863    1.4096    0.0000 H   0  0  0  0  0  0  0  0  0  0  0  0
   12.8039    0.4699    0.0000 H   0  0  0  0  0  0  0  0  0  0  0  0
    6.9477    1.9130    0.0000 H   0  0  0  0  0  0  0  0  0  0  0  0
    6.1593    2.1707    0.0000 H   0  0  0  0  0  0  0  0  0  0  0  0
    6.1593   -0.5726    0.0000 H   0  0  0  0  0  0  0  0  0  0  0  0
    6.9477   -0.3149    0.0000 H   0  0  0  0  0  0  0  0  0  0  0  0
    4.5981    2.4190    0.0000 H   0  0  0  0  0  0  0  0  0  0  0  0
    4.5981   -0.8210    0.0000 H   0  0  0  0  0  0  0  0  0  0  0  0
    3.1951   -0.0110    0.0000 H   0  0  0  0  0  0  0  0  0  0  0  0
   14.3039   -0.3961    0.0000 H   0  0  0  0  0  0  0  0  0  0  0  0
   14.1839   -2.3360    0.0000 H   0  0  0  0  0  0  0  0  0  0  0  0
   15.6839   -3.2020    0.0000 H   0  0  0  0  0  0  0  0  0  0  0  0
   15.6839   -0.3961    0.0000 H   0  0  0  0  0  0  0  0  0  0  0  0
   17.3039   -3.2020    0.0000 H   0  0  0  0  0  0  0  0  0  0  0  0
   17.3039   -0.3961    0.0000 H   0  0  0  0  0  0  0  0  0  0  0  0
  1 26  1  0  0  0  0
  2 26  1  0  0  0  0
  3 26  1  0  0  0  0
  4 33  1  0  0  0  0
  5 20  2  0  0  0  0
  6 15  1  0  0  0  0
  6 16  1  0  0  0  0
  6 17  1  0  0  0  0
  7 11  1  0  0  0  0
  7 20  1  0  0  0  0
  7 48  1  0  0  0  0
  8  9  1  0  0  0  0
  8 10  1  0  0  0  0
  8 14  1  0  0  0  0
  8 34  1  0  0  0  0
  9 12  1  0  0  0  0
  9 35  1  0  0  0  0
  9 36  1  0  0  0  0
 10 13  1  0  0  0  0
 10 37  1  0  0  0  0
 10 38  1  0  0  0  0
 11 12  1  0  0  0  0
 11 13  1  0  0  0  0
 11 39  1  0  0  0  0
 12 40  1  0  0  0  0
 12 41  1  0  0  0  0
 13 42  1  0  0  0  0
 13 43  1  0  0  0  0
 14 15  1  0  0  0  0
 14 44  1  0  0  0  0
 14 45  1  0  0  0  0
 15 46  1  0  0  0  0
 15 47  1  0  0  0  0
 16 18  1  0  0  0  0
 16 49  1  0  0  0  0
 16 50  1  0  0  0  0
 17 19  1  0  0  0  0
 17 51  1  0  0  0  0
 17 52  1  0  0  0  0
 18 19  2  0  0  0  0
 18 21  1  0  0  0  0
 19 22  1  0  0  0  0
 20 25  1  0  0  0  0
 21 23  2  0  0  0  0
 21 53  1  0  0  0  0
 22 24  2  0  0  0  0
 22 54  1  0  0  0  0
 23 24  1  0  0  0  0
 23 26  1  0  0  0  0
 24 55  1  0  0  0  0
 25 27  2  0  0  0  0
 25 56  1  0  0  0  0
 27 28  1  0  0  0  0
 27 57  1  0  0  0  0
 28 29  2  0  0  0  0
 28 30  1  0  0  0  0
 29 31  1  0  0  0  0
 29 58  1  0  0  0  0
 30 32  2  0  0  0  0
 30 59  1  0  0  0  0
 31 33  2  0  0  0  0
 31 60  1  0  0  0  0
 32 33  1  0  0  0  0
 32 61  1  0  0  0  0
M  END
> <PUBCHEM_COMPOUND_CID>
44374409

> <PUBCHEM_COMPOUND_CANONICALIZED>
1

> <PUBCHEM_CACTVS_COMPLEXITY>
666

> <PUBCHEM_CACTVS_HBOND_ACCEPTOR>
6

> <PUBCHEM_CACTVS_HBOND_DONOR>
1

> <PUBCHEM_CACTVS_ROTATABLE_BOND>
6

> <PUBCHEM_CACTVS_SUBSKEYS>
AAADceB7IcAAAAAAAAAAAAAAAAAAAWAAAAAwYMAAAAAAAFgBQAAAHwAQAAAADSjBmBwwAIPAAACIAiFSEACCAAAgAAAIiIAIBMgIICKAkRGEIAhglgCIiYcQgMAOwAACAAAQAACQAAQAACAAAAAAAAAAAA==

> <PUBCHEM_IUPAC_OPENEYE_NAME>
(E)-3-(4-fluorophenyl)-N-[4-[2-[5-(trifluoromethyl)isoindolin-2-yl]ethyl]cyclohexyl]prop-2-enamide

> <PUBCHEM_IUPAC_CAS_NAME>
(E)-3-(4-fluorophenyl)-N-[4-[2-[5-(trifluoromethyl)-1,3-dihydroisoindol-2-yl]ethyl]cyclohexyl]-2-propenamide

> <PUBCHEM_IUPAC_NAME_MARKUP>
(<I>E</I>)-3-(4-fluorophenyl)-<I>N</I>-[4-[2-[5-(trifluoromethyl)-1,3-dihydroisoindol-2-yl]ethyl]cyclohexyl]prop-2-enamide

> <PUBCHEM_IUPAC_NAME>
(E)-3-(4-fluorophenyl)-N-[4-[2-[5-(trifluoromethyl)-1,3-dihydroisoindol-2-yl]ethyl]cyclohexyl]prop-2-enamide

> <PUBCHEM_IUPAC_SYSTEMATIC_NAME>
(E)-3-(4-fluorophenyl)-N-[4-[2-[5-(trifluoromethyl)-1,3-dihydroisoindol-2-yl]ethyl]cyclohexyl]prop-2-enamide

> <PUBCHEM_IUPAC_TRADITIONAL_NAME>
(E)-3-(4-fluorophenyl)-N-[4-[2-[5-(trifluoromethyl)isoindolin-2-yl]ethyl]cyclohexyl]acrylamide

> <PUBCHEM_IUPAC_INCHI>
InChI=1S/C26H28F4N2O/c27-23-8-1-18(2-9-23)5-12-25(33)31-24-10-3-19(4-11-24)13-14-32-16-20-6-7-22(26(28,29)30)15-21(20)17-32/h1-2,5-9,12,15,19,24H,3-4,10-11,13-14,16-17H2,(H,31,33)/b12-5+

> <PUBCHEM_IUPAC_INCHIKEY>
KUBCXXBTKZCFPE-LFYBBSHMSA-N

> <PUBCHEM_XLOGP3_AA>
5.6

> <PUBCHEM_EXACT_MASS>
460.21377617

> <PUBCHEM_MOLECULAR_FORMULA>
C26H28F4N2O

> <PUBCHEM_MOLECULAR_WEIGHT>
460.5

> <PUBCHEM_OPENEYE_CAN_SMILES>
C1CC(CCC1CCN2CC3=C(C2)C=C(C=C3)C(F)(F)F)NC(=O)C=CC4=CC=C(C=C4)F

> <PUBCHEM_OPENEYE_ISO_SMILES>
C1CC(CCC1CCN2CC3=C(C2)C=C(C=C3)C(F)(F)F)NC(=O)/C=C/C4=CC=C(C=C4)F

> <PUBCHEM_CACTVS_TPSA>
32.3

> <PUBCHEM_MONOISOTOPIC_WEIGHT>
460.21377617

> <PUBCHEM_TOTAL_CHARGE>
0

> <PUBCHEM_HEAVY_ATOM_COUNT>
33

> <PUBCHEM_ATOM_DEF_STEREO_COUNT>
0

> <PUBCHEM_ATOM_UDEF_STEREO_COUNT>
0

> <PUBCHEM_BOND_DEF_STEREO_COUNT>
1

> <PUBCHEM_BOND_UDEF_STEREO_COUNT>
0

> <PUBCHEM_ISOTOPIC_ATOM_COUNT>
0

> <PUBCHEM_COMPONENT_COUNT>
1

> <PUBCHEM_CACTVS_TAUTO_COUNT>
-1

> <PUBCHEM_COORDINATE_TYPE>
1
5
255

> <PUBCHEM_BONDANNOTATIONS>
18  19  8
18  21  8
19  22  8
21  23  8
22  24  8
23  24  8
28  29  8
28  30  8
29  31  8
30  32  8
31  33  8
32  33  8

$$$$
