10705905
  -OEChem-09292322512D

 36 39  0     1  0  0  0  0  0999 V2000
    2.9176    1.5584    0.0000 O   0  0  0  0  0  0  0  0  0  0  0  0
    6.3903   -1.4731    0.0000 N   0  0  0  0  0  0  0  0  0  0  0  0
    5.5321   -0.9762    0.0000 C   0  0  1  0  0  0  0  0  0  0  0  0
    5.5321    0.0238    0.0000 C   0  0  0  0  0  0  0  0  0  0  0  0
    4.6660   -1.4762    0.0000 C   0  0  0  0  0  0  0  0  0  0  0  0
    6.4421    0.5307    0.0000 C   0  0  0  0  0  0  0  0  0  0  0  0
    4.6660    0.5238    0.0000 C   0  0  0  0  0  0  0  0  0  0  0  0
    7.2814    0.0024    0.0000 C   0  0  0  0  0  0  0  0  0  0  0  0
    3.8000   -0.9762    0.0000 C   0  0  0  0  0  0  0  0  0  0  0  0
    7.2558   -0.9889    0.0000 C   0  0  0  0  0  0  0  0  0  0  0  0
    3.8000    0.0238    0.0000 C   0  0  0  0  0  0  0  0  0  0  0  0
    6.4501    1.5723    0.0000 C   0  0  0  0  0  0  0  0  0  0  0  0
    4.6500    1.5653    0.0000 C   0  0  0  0  0  0  0  0  0  0  0  0
    2.9061    0.5585    0.0000 C   0  0  0  0  0  0  0  0  0  0  0  0
    2.9061   -1.5108    0.0000 C   0  0  0  0  0  0  0  0  0  0  0  0
    5.5480    2.0931    0.0000 C   0  0  0  0  0  0  0  0  0  0  0  0
    2.0000    0.0446    0.0000 C   0  0  0  0  0  0  0  0  0  0  0  0
    2.0000   -0.9970    0.0000 C   0  0  0  0  0  0  0  0  0  0  0  0
    2.0574    2.0684    0.0000 C   0  0  0  0  0  0  0  0  0  0  0  0
    5.5315   -1.8262    0.0000 H   0  0  0  0  0  0  0  0  0  0  0  0
    4.2675   -1.9511    0.0000 H   0  0  0  0  0  0  0  0  0  0  0  0
    5.0646   -1.9511    0.0000 H   0  0  0  0  0  0  0  0  0  0  0  0
    6.3857   -2.0931    0.0000 H   0  0  0  0  0  0  0  0  0  0  0  0
    7.8885   -0.1234    0.0000 H   0  0  0  0  0  0  0  0  0  0  0  0
    7.5131    0.5775    0.0000 H   0  0  0  0  0  0  0  0  0  0  0  0
    7.4575   -1.5752    0.0000 H   0  0  0  0  0  0  0  0  0  0  0  0
    7.8685   -0.8946    0.0000 H   0  0  0  0  0  0  0  0  0  0  0  0
    6.9882    1.8802    0.0000 H   0  0  0  0  0  0  0  0  0  0  0  0
    4.1095    1.8691    0.0000 H   0  0  0  0  0  0  0  0  0  0  0  0
    2.9132   -2.1308    0.0000 H   0  0  0  0  0  0  0  0  0  0  0  0
    5.5456    2.7131    0.0000 H   0  0  0  0  0  0  0  0  0  0  0  0
    1.4643    0.3567    0.0000 H   0  0  0  0  0  0  0  0  0  0  0  0
    1.4643   -1.3091    0.0000 H   0  0  0  0  0  0  0  0  0  0  0  0
    2.3736    2.6017    0.0000 H   0  0  0  0  0  0  0  0  0  0  0  0
    1.5241    2.3846    0.0000 H   0  0  0  0  0  0  0  0  0  0  0  0
    1.7413    1.5351    0.0000 H   0  0  0  0  0  0  0  0  0  0  0  0
  1 14  1  0  0  0  0
  1 19  1  0  0  0  0
  2  3  1  0  0  0  0
  2 10  1  0  0  0  0
  2 23  1  0  0  0  0
  3  4  1  0  0  0  0
  3  5  1  0  0  0  0
  3 20  1  1  0  0  0
  4  6  2  0  0  0  0
  4  7  1  0  0  0  0
  5  9  1  0  0  0  0
  5 21  1  0  0  0  0
  5 22  1  0  0  0  0
  6  8  1  0  0  0  0
  6 12  1  0  0  0  0
  7 11  1  0  0  0  0
  7 13  2  0  0  0  0
  8 10  1  0  0  0  0
  8 24  1  0  0  0  0
  8 25  1  0  0  0  0
  9 11  2  0  0  0  0
  9 15  1  0  0  0  0
 10 26  1  0  0  0  0
 10 27  1  0  0  0  0
 11 14  1  0  0  0  0
 12 16  2  0  0  0  0
 12 28  1  0  0  0  0
 13 16  1  0  0  0  0
 13 29  1  0  0  0  0
 14 17  2  0  0  0  0
 15 18  2  0  0  0  0
 15 30  1  0  0  0  0
 16 31  1  0  0  0  0
 17 18  1  0  0  0  0
 17 32  1  0  0  0  0
 18 33  1  0  0  0  0
 19 34  1  0  0  0  0
 19 35  1  0  0  0  0
 19 36  1  0  0  0  0
M  END
> <PUBCHEM_COMPOUND_CID>
10705905

> <PUBCHEM_COMPOUND_CANONICALIZED>
1

> <PUBCHEM_CACTVS_COMPLEXITY>
331

> <PUBCHEM_CACTVS_HBOND_ACCEPTOR>
2

> <PUBCHEM_CACTVS_HBOND_DONOR>
1

> <PUBCHEM_CACTVS_ROTATABLE_BOND>
1

> <PUBCHEM_CACTVS_SUBSKEYS>
AAADceB6IAAAAAAAAAAAAAAAAAAAAAAAAAA8YMEAAAAAAADxQAAAHgAQAAAADCzBmAYyBoLABACAAiBCAACCCAAgIAAIiIAODIgMJiKEsRuEMChk0BGIqAeQ0PMOgAADAAAYAACQAAaAADQAAAAAAAAAAA==

> <PUBCHEM_IUPAC_OPENEYE_NAME>
(6aR)-11-methoxy-5,6,6a,7-tetrahydro-4H-dibenzo[de,g]quinoline

> <PUBCHEM_IUPAC_CAS_NAME>
(6aR)-11-methoxy-5,6,6a,7-tetrahydro-4H-dibenzo[de,g]quinoline

> <PUBCHEM_IUPAC_NAME_MARKUP>
(6<I>a</I><I>R</I>)-11-methoxy-5,6,6<I>a</I>,7-tetrahydro-4<I>H</I>-dibenzo[de,g]quinoline

> <PUBCHEM_IUPAC_NAME>
(6aR)-11-methoxy-5,6,6a,7-tetrahydro-4H-dibenzo[de,g]quinoline

> <PUBCHEM_IUPAC_SYSTEMATIC_NAME>
(6aR)-11-methoxy-5,6,6a,7-tetrahydro-4H-dibenzo[de,g]quinoline

> <PUBCHEM_IUPAC_TRADITIONAL_NAME>
(6aR)-11-methoxy-5,6,6a,7-tetrahydro-4H-dibenzo[de,g]quinoline

> <PUBCHEM_IUPAC_INCHI>
InChI=1S/C17H17NO/c1-19-15-7-3-5-12-10-14-16-11(8-9-18-14)4-2-6-13(16)17(12)15/h2-7,14,18H,8-10H2,1H3/t14-/m1/s1

> <PUBCHEM_IUPAC_INCHIKEY>
WJLQHAGLYICAJM-CQSZACIVSA-N

> <PUBCHEM_XLOGP3_AA>
3

> <PUBCHEM_EXACT_MASS>
251.131014166

> <PUBCHEM_MOLECULAR_FORMULA>
C17H17NO

> <PUBCHEM_MOLECULAR_WEIGHT>
251.32

> <PUBCHEM_OPENEYE_CAN_SMILES>
COC1=CC=CC2=C1C3=CC=CC4=C3C(C2)NCC4

> <PUBCHEM_OPENEYE_ISO_SMILES>
COC1=CC=CC2=C1C3=CC=CC4=C3[C@@H](C2)NCC4

> <PUBCHEM_CACTVS_TPSA>
21.3

> <PUBCHEM_MONOISOTOPIC_WEIGHT>
251.131014166

> <PUBCHEM_TOTAL_CHARGE>
0

> <PUBCHEM_HEAVY_ATOM_COUNT>
19

> <PUBCHEM_ATOM_DEF_STEREO_COUNT>
1

> <PUBCHEM_ATOM_UDEF_STEREO_COUNT>
0

> <PUBCHEM_BOND_DEF_STEREO_COUNT>
0

> <PUBCHEM_BOND_UDEF_STEREO_COUNT>
0

> <PUBCHEM_ISOTOPIC_ATOM_COUNT>
0

> <PUBCHEM_COMPONENT_COUNT>
1

> <PUBCHEM_CACTVS_TAUTO_COUNT>
-1

> <PUBCHEM_COORDINATE_TYPE>
1
5
255

> <PUBCHEM_BONDANNOTATIONS>
11  14  8
12  16  8
13  16  8
14  17  8
15  18  8
17  18  8
3  20  5
4  6  8
4  7  8
6  12  8
7  13  8
9  11  8
9  15  8

$$$$
