10108884
  -OEChem-09292322432D

 46 49  0     0  0  0  0  0  0999 V2000
    4.9889   -1.9518    0.0000 S   0  0  0  0  0  0  0  0  0  0  0  0
    5.9394   -1.6412    0.0000 O   0  0  0  0  0  0  0  0  0  0  0  0
    4.0384   -2.2625    0.0000 O   0  0  0  0  0  0  0  0  0  0  0  0
    2.8660    1.8034    0.0000 N   0  0  0  0  0  0  0  0  0  0  0  0
    2.8660    3.8034    0.0000 N   0  0  0  0  0  0  0  0  0  0  0  0
    4.6783   -1.0013    0.0000 N   0  0  0  0  0  0  0  0  0  0  0  0
    2.0000    2.3034    0.0000 C   0  0  0  0  0  0  0  0  0  0  0  0
    3.7320    2.3034    0.0000 C   0  0  0  0  0  0  0  0  0  0  0  0
    2.0000    3.3034    0.0000 C   0  0  0  0  0  0  0  0  0  0  0  0
    3.7320    3.3034    0.0000 C   0  0  0  0  0  0  0  0  0  0  0  0
    2.8660    0.8034    0.0000 C   0  0  0  0  0  0  0  0  0  0  0  0
    3.7320    0.3034    0.0000 C   0  0  0  0  0  0  0  0  0  0  0  0
    3.7320   -0.6966    0.0000 C   0  0  0  0  0  0  0  0  0  0  0  0
    2.0000    0.3034    0.0000 C   0  0  0  0  0  0  0  0  0  0  0  0
    2.8660    4.8034    0.0000 C   0  0  0  0  0  0  0  0  0  0  0  0
    4.6783    0.6081    0.0000 C   0  0  0  0  0  0  0  0  0  0  0  0
    5.2619   -0.1966    0.0000 C   0  0  0  0  0  0  0  0  0  0  0  0
    2.8660   -1.1966    0.0000 C   0  0  0  0  0  0  0  0  0  0  0  0
    2.0000   -0.6966    0.0000 C   0  0  0  0  0  0  0  0  0  0  0  0
    5.2996   -2.9024    0.0000 C   0  0  0  0  0  0  0  0  0  0  0  0
    6.2781   -3.1086    0.0000 C   0  0  0  0  0  0  0  0  0  0  0  0
    4.6318   -3.6467    0.0000 C   0  0  0  0  0  0  0  0  0  0  0  0
    6.5888   -4.0591    0.0000 C   0  0  0  0  0  0  0  0  0  0  0  0
    4.9424   -4.5972    0.0000 C   0  0  0  0  0  0  0  0  0  0  0  0
    5.9209   -4.8034    0.0000 C   0  0  0  0  0  0  0  0  0  0  0  0
    1.3894    2.4111    0.0000 H   0  0  0  0  0  0  0  0  0  0  0  0
    1.7880    1.7208    0.0000 H   0  0  0  0  0  0  0  0  0  0  0  0
    3.9441    1.7208    0.0000 H   0  0  0  0  0  0  0  0  0  0  0  0
    4.3426    2.4111    0.0000 H   0  0  0  0  0  0  0  0  0  0  0  0
    1.7880    3.8860    0.0000 H   0  0  0  0  0  0  0  0  0  0  0  0
    1.3894    3.1957    0.0000 H   0  0  0  0  0  0  0  0  0  0  0  0
    4.3426    3.1957    0.0000 H   0  0  0  0  0  0  0  0  0  0  0  0
    3.9441    3.8860    0.0000 H   0  0  0  0  0  0  0  0  0  0  0  0
    1.4631    0.6134    0.0000 H   0  0  0  0  0  0  0  0  0  0  0  0
    3.4860    4.8034    0.0000 H   0  0  0  0  0  0  0  0  0  0  0  0
    2.8660    5.4234    0.0000 H   0  0  0  0  0  0  0  0  0  0  0  0
    2.2460    4.8034    0.0000 H   0  0  0  0  0  0  0  0  0  0  0  0
    4.8709    1.1975    0.0000 H   0  0  0  0  0  0  0  0  0  0  0  0
    5.8819   -0.1966    0.0000 H   0  0  0  0  0  0  0  0  0  0  0  0
    2.8660   -1.8166    0.0000 H   0  0  0  0  0  0  0  0  0  0  0  0
    1.4631   -1.0066    0.0000 H   0  0  0  0  0  0  0  0  0  0  0  0
    6.6922   -2.6471    0.0000 H   0  0  0  0  0  0  0  0  0  0  0  0
    4.0251   -3.5188    0.0000 H   0  0  0  0  0  0  0  0  0  0  0  0
    7.1954   -4.1870    0.0000 H   0  0  0  0  0  0  0  0  0  0  0  0
    4.5284   -5.0586    0.0000 H   0  0  0  0  0  0  0  0  0  0  0  0
    6.1135   -5.3927    0.0000 H   0  0  0  0  0  0  0  0  0  0  0  0
  1  2  2  0  0  0  0
  1  3  2  0  0  0  0
  1  6  1  0  0  0  0
  1 20  1  0  0  0  0
  4  7  1  0  0  0  0
  4  8  1  0  0  0  0
  4 11  1  0  0  0  0
  5  9  1  0  0  0  0
  5 10  1  0  0  0  0
  5 15  1  0  0  0  0
  6 13  1  0  0  0  0
  6 17  1  0  0  0  0
  7  9  1  0  0  0  0
  7 26  1  0  0  0  0
  7 27  1  0  0  0  0
  8 10  1  0  0  0  0
  8 28  1  0  0  0  0
  8 29  1  0  0  0  0
  9 30  1  0  0  0  0
  9 31  1  0  0  0  0
 10 32  1  0  0  0  0
 10 33  1  0  0  0  0
 11 12  1  0  0  0  0
 11 14  2  0  0  0  0
 12 13  2  0  0  0  0
 12 16  1  0  0  0  0
 13 18  1  0  0  0  0
 14 19  1  0  0  0  0
 14 34  1  0  0  0  0
 15 35  1  0  0  0  0
 15 36  1  0  0  0  0
 15 37  1  0  0  0  0
 16 17  2  0  0  0  0
 16 38  1  0  0  0  0
 17 39  1  0  0  0  0
 18 19  2  0  0  0  0
 18 40  1  0  0  0  0
 19 41  1  0  0  0  0
 20 21  2  0  0  0  0
 20 22  1  0  0  0  0
 21 23  1  0  0  0  0
 21 42  1  0  0  0  0
 22 24  2  0  0  0  0
 22 43  1  0  0  0  0
 23 25  2  0  0  0  0
 23 44  1  0  0  0  0
 24 25  1  0  0  0  0
 24 45  1  0  0  0  0
 25 46  1  0  0  0  0
M  END
> <PUBCHEM_COMPOUND_CID>
10108884

> <PUBCHEM_COMPOUND_CANONICALIZED>
1

> <PUBCHEM_CACTVS_COMPLEXITY>
548

> <PUBCHEM_CACTVS_HBOND_ACCEPTOR>
4

> <PUBCHEM_CACTVS_HBOND_DONOR>
0

> <PUBCHEM_CACTVS_ROTATABLE_BOND>
3

> <PUBCHEM_CACTVS_SUBSKEYS>
AAADceB7MABAAAAAAAAAAAAAAAAAAWAAAAA8YIAAAAAAAFgB9AAAHAQAQAAADAjBXgQ+wfMIEAKgAzRnRHDCgDAxAiAI2Dg4ZJgIYOLA0dGUJAhggADIyAcQgIAOAAAAAAQCAAAAAAAACAQAAAAAAAAAAA==

> <PUBCHEM_IUPAC_OPENEYE_NAME>
1-(benzenesulfonyl)-4-(4-methylpiperazin-1-yl)indole

> <PUBCHEM_IUPAC_CAS_NAME>
1-(benzenesulfonyl)-4-(4-methyl-1-piperazinyl)indole

> <PUBCHEM_IUPAC_NAME_MARKUP>
1-(benzenesulfonyl)-4-(4-methylpiperazin-1-yl)indole

> <PUBCHEM_IUPAC_NAME>
1-(benzenesulfonyl)-4-(4-methylpiperazin-1-yl)indole

> <PUBCHEM_IUPAC_SYSTEMATIC_NAME>
4-(4-methylpiperazin-1-yl)-1-(phenylsulfonyl)indole

> <PUBCHEM_IUPAC_TRADITIONAL_NAME>
1-besyl-4-(4-methylpiperazino)indole

> <PUBCHEM_IUPAC_INCHI>
InChI=1S/C19H21N3O2S/c1-20-12-14-21(15-13-20)18-8-5-9-19-17(18)10-11-22(19)25(23,24)16-6-3-2-4-7-16/h2-11H,12-15H2,1H3

> <PUBCHEM_IUPAC_INCHIKEY>
BJISURBWZYFXNY-UHFFFAOYSA-N

> <PUBCHEM_XLOGP3_AA>
3.2

> <PUBCHEM_EXACT_MASS>
355.13544809

> <PUBCHEM_MOLECULAR_FORMULA>
C19H21N3O2S

> <PUBCHEM_MOLECULAR_WEIGHT>
355.5

> <PUBCHEM_OPENEYE_CAN_SMILES>
CN1CCN(CC1)C2=CC=CC3=C2C=CN3S(=O)(=O)C4=CC=CC=C4

> <PUBCHEM_OPENEYE_ISO_SMILES>
CN1CCN(CC1)C2=CC=CC3=C2C=CN3S(=O)(=O)C4=CC=CC=C4

> <PUBCHEM_CACTVS_TPSA>
53.9

> <PUBCHEM_MONOISOTOPIC_WEIGHT>
355.13544809

> <PUBCHEM_TOTAL_CHARGE>
0

> <PUBCHEM_HEAVY_ATOM_COUNT>
25

> <PUBCHEM_ATOM_DEF_STEREO_COUNT>
0

> <PUBCHEM_ATOM_UDEF_STEREO_COUNT>
0

> <PUBCHEM_BOND_DEF_STEREO_COUNT>
0

> <PUBCHEM_BOND_UDEF_STEREO_COUNT>
0

> <PUBCHEM_ISOTOPIC_ATOM_COUNT>
0

> <PUBCHEM_COMPONENT_COUNT>
1

> <PUBCHEM_CACTVS_TAUTO_COUNT>
-1

> <PUBCHEM_COORDINATE_TYPE>
1
5
255

> <PUBCHEM_BONDANNOTATIONS>
11  12  8
11  14  8
12  13  8
12  16  8
13  18  8
14  19  8
16  17  8
18  19  8
20  21  8
20  22  8
21  23  8
22  24  8
23  25  8
24  25  8
6  13  8
6  17  8

$$$$
