162661358
  -OEChem-09292322432D

 59 62  0     0  0  0  0  0  0999 V2000
    2.0000   -6.3364    0.0000 F   0  0  0  0  0  0  0  0  0  0  0  0
    5.5443   -6.1412    0.0000 O   0  0  0  0  0  0  0  0  0  0  0  0
    9.0546    0.6333    0.0000 O   0  0  0  0  0  0  0  0  0  0  0  0
   10.9186    6.3364    0.0000 O   0  0  0  0  0  0  0  0  0  0  0  0
    6.4763   -1.6802    0.0000 N   0  0  0  0  0  0  0  0  0  0  0  0
    6.1279   -5.3364    0.0000 N   0  0  0  0  0  0  0  0  0  0  0  0
   11.2758    4.6416    0.0000 N   0  0  0  0  0  0  0  0  0  0  0  0
    5.8550   -3.5812    0.0000 C   0  0  0  0  0  0  0  0  0  0  0  0
    5.1871   -2.8369    0.0000 C   0  0  0  0  0  0  0  0  0  0  0  0
    6.8335   -3.3750    0.0000 C   0  0  0  0  0  0  0  0  0  0  0  0
    5.4978   -1.8864    0.0000 C   0  0  0  0  0  0  0  0  0  0  0  0
    7.1441   -2.4245    0.0000 C   0  0  0  0  0  0  0  0  0  0  0  0
    6.7870   -0.7296    0.0000 C   0  0  0  0  0  0  0  0  0  0  0  0
    5.5443   -4.5317    0.0000 C   0  0  0  0  0  0  0  0  0  0  0  0
    7.7654   -0.5234    0.0000 C   0  0  0  0  0  0  0  0  0  0  0  0
    4.5981   -4.8364    0.0000 C   0  0  0  0  0  0  0  0  0  0  0  0
    4.5981   -5.8364    0.0000 C   0  0  0  0  0  0  0  0  0  0  0  0
    8.0761    0.4271    0.0000 C   0  0  0  0  0  0  0  0  0  0  0  0
    3.7320   -4.3364    0.0000 C   0  0  0  0  0  0  0  0  0  0  0  0
    3.7320   -6.3364    0.0000 C   0  0  0  0  0  0  0  0  0  0  0  0
    2.8660   -4.8364    0.0000 C   0  0  0  0  0  0  0  0  0  0  0  0
    2.8660   -5.8364    0.0000 C   0  0  0  0  0  0  0  0  0  0  0  0
    9.3653    1.5838    0.0000 C   0  0  0  0  0  0  0  0  0  0  0  0
    8.6974    2.3282    0.0000 C   0  0  0  0  0  0  0  0  0  0  0  0
   10.3438    1.7901    0.0000 C   0  0  0  0  0  0  0  0  0  0  0  0
    9.9866    3.4849    0.0000 C   0  0  0  0  0  0  0  0  0  0  0  0
    9.0081    3.2787    0.0000 C   0  0  0  0  0  0  0  0  0  0  0  0
   10.6545    2.7406    0.0000 C   0  0  0  0  0  0  0  0  0  0  0  0
   10.2973    4.4354    0.0000 C   0  0  0  0  0  0  0  0  0  0  0  0
   11.5864    5.5921    0.0000 C   0  0  0  0  0  0  0  0  0  0  0  0
   12.5649    5.7984    0.0000 C   0  0  0  0  0  0  0  0  0  0  0  0
    6.2690   -4.0427    0.0000 H   0  0  0  0  0  0  0  0  0  0  0  0
    4.6402   -2.5449    0.0000 H   0  0  0  0  0  0  0  0  0  0  0  0
    4.8046   -3.3248    0.0000 H   0  0  0  0  0  0  0  0  0  0  0  0
    6.8540   -3.9946    0.0000 H   0  0  0  0  0  0  0  0  0  0  0  0
    7.4473   -3.4623    0.0000 H   0  0  0  0  0  0  0  0  0  0  0  0
    5.4772   -1.2667    0.0000 H   0  0  0  0  0  0  0  0  0  0  0  0
    4.8840   -1.7990    0.0000 H   0  0  0  0  0  0  0  0  0  0  0  0
    7.6910   -2.7165    0.0000 H   0  0  0  0  0  0  0  0  0  0  0  0
    7.5267   -1.9366    0.0000 H   0  0  0  0  0  0  0  0  0  0  0  0
    6.7664   -0.1100    0.0000 H   0  0  0  0  0  0  0  0  0  0  0  0
    6.1731   -0.6423    0.0000 H   0  0  0  0  0  0  0  0  0  0  0  0
    7.7860   -1.1431    0.0000 H   0  0  0  0  0  0  0  0  0  0  0  0
    8.3793   -0.6108    0.0000 H   0  0  0  0  0  0  0  0  0  0  0  0
    8.0556    1.0468    0.0000 H   0  0  0  0  0  0  0  0  0  0  0  0
    7.4623    0.5145    0.0000 H   0  0  0  0  0  0  0  0  0  0  0  0
    3.7320   -3.7164    0.0000 H   0  0  0  0  0  0  0  0  0  0  0  0
    3.7320   -6.9564    0.0000 H   0  0  0  0  0  0  0  0  0  0  0  0
    2.3291   -4.5264    0.0000 H   0  0  0  0  0  0  0  0  0  0  0  0
    8.0908    2.2003    0.0000 H   0  0  0  0  0  0  0  0  0  0  0  0
   10.7578    1.3286    0.0000 H   0  0  0  0  0  0  0  0  0  0  0  0
    8.5940    3.7401    0.0000 H   0  0  0  0  0  0  0  0  0  0  0  0
   11.2611    2.8684    0.0000 H   0  0  0  0  0  0  0  0  0  0  0  0
   10.2767    5.0551    0.0000 H   0  0  0  0  0  0  0  0  0  0  0  0
    9.6834    4.5228    0.0000 H   0  0  0  0  0  0  0  0  0  0  0  0
   11.6898    4.1802    0.0000 H   0  0  0  0  0  0  0  0  0  0  0  0
   12.6928    5.1917    0.0000 H   0  0  0  0  0  0  0  0  0  0  0  0
   13.1716    5.9262    0.0000 H   0  0  0  0  0  0  0  0  0  0  0  0
   12.4371    6.4050    0.0000 H   0  0  0  0  0  0  0  0  0  0  0  0
  1 22  1  0  0  0  0
  2  6  1  0  0  0  0
  2 17  1  0  0  0  0
  3 18  1  0  0  0  0
  3 23  1  0  0  0  0
  4 30  2  0  0  0  0
  5 11  1  0  0  0  0
  5 12  1  0  0  0  0
  5 13  1  0  0  0  0
  6 14  2  0  0  0  0
  7 29  1  0  0  0  0
  7 30  1  0  0  0  0
  7 56  1  0  0  0  0
  8  9  1  0  0  0  0
  8 10  1  0  0  0  0
  8 14  1  0  0  0  0
  8 32  1  0  0  0  0
  9 11  1  0  0  0  0
  9 33  1  0  0  0  0
  9 34  1  0  0  0  0
 10 12  1  0  0  0  0
 10 35  1  0  0  0  0
 10 36  1  0  0  0  0
 11 37  1  0  0  0  0
 11 38  1  0  0  0  0
 12 39  1  0  0  0  0
 12 40  1  0  0  0  0
 13 15  1  0  0  0  0
 13 41  1  0  0  0  0
 13 42  1  0  0  0  0
 14 16  1  0  0  0  0
 15 18  1  0  0  0  0
 15 43  1  0  0  0  0
 15 44  1  0  0  0  0
 16 17  2  0  0  0  0
 16 19  1  0  0  0  0
 17 20  1  0  0  0  0
 18 45  1  0  0  0  0
 18 46  1  0  0  0  0
 19 21  2  0  0  0  0
 19 47  1  0  0  0  0
 20 22  2  0  0  0  0
 20 48  1  0  0  0  0
 21 22  1  0  0  0  0
 21 49  1  0  0  0  0
 23 24  2  0  0  0  0
 23 25  1  0  0  0  0
 24 27  1  0  0  0  0
 24 50  1  0  0  0  0
 25 28  2  0  0  0  0
 25 51  1  0  0  0  0
 26 27  2  0  0  0  0
 26 28  1  0  0  0  0
 26 29  1  0  0  0  0
 27 52  1  0  0  0  0
 28 53  1  0  0  0  0
 29 54  1  0  0  0  0
 29 55  1  0  0  0  0
 30 31  1  0  0  0  0
 31 57  1  0  0  0  0
 31 58  1  0  0  0  0
 31 59  1  0  0  0  0
M  END
> <PUBCHEM_COMPOUND_CID>
162661358

> <PUBCHEM_COMPOUND_CANONICALIZED>
1

> <PUBCHEM_CACTVS_COMPLEXITY>
564

> <PUBCHEM_CACTVS_HBOND_ACCEPTOR>
6

> <PUBCHEM_CACTVS_HBOND_DONOR>
1

> <PUBCHEM_CACTVS_ROTATABLE_BOND>
8

> <PUBCHEM_CACTVS_SUBSKEYS>
AAADceB7MQAAAAAAAAAAAAAAAAAAAWAAAAA8YIAAAAAAAFgB9AAAHwAUAAAADQzhng4yhtPQBACpA6VyUgCCCAAkIAAomKE+TNoMJrqEtZuGOajm1hmI6ceY2OKOIAAAAAAIAABAAAAAABAAAAAAAAAAAA==

> <PUBCHEM_IUPAC_OPENEYE_NAME>
N-[[4-[3-[4-(6-fluoro-1,2-benzoxazol-3-yl)-1-piperidyl]propoxy]phenyl]methyl]acetamide

> <PUBCHEM_IUPAC_CAS_NAME>
N-[[4-[3-[4-(6-fluoro-1,2-benzoxazol-3-yl)-1-piperidinyl]propoxy]phenyl]methyl]acetamide

> <PUBCHEM_IUPAC_NAME_MARKUP>
<I>N</I>-[[4-[3-[4-(6-fluoro-1,2-benzoxazol-3-yl)piperidin-1-yl]propoxy]phenyl]methyl]acetamide

> <PUBCHEM_IUPAC_NAME>
N-[[4-[3-[4-(6-fluoro-1,2-benzoxazol-3-yl)piperidin-1-yl]propoxy]phenyl]methyl]acetamide

> <PUBCHEM_IUPAC_SYSTEMATIC_NAME>
N-[[4-[3-[4-(6-fluoranyl-1,2-benzoxazol-3-yl)piperidin-1-yl]propoxy]phenyl]methyl]ethanamide

> <PUBCHEM_IUPAC_TRADITIONAL_NAME>
N-[4-[3-[4-(6-fluoroindoxazen-3-yl)piperidino]propoxy]benzyl]acetamide

> <PUBCHEM_IUPAC_INCHI>
InChI=1S/C24H28FN3O3/c1-17(29)26-16-18-3-6-21(7-4-18)30-14-2-11-28-12-9-19(10-13-28)24-22-8-5-20(25)15-23(22)31-27-24/h3-8,15,19H,2,9-14,16H2,1H3,(H,26,29)

> <PUBCHEM_IUPAC_INCHIKEY>
CKBZGVUMIUDAHE-UHFFFAOYSA-N

> <PUBCHEM_XLOGP3_AA>
3.6

> <PUBCHEM_EXACT_MASS>
425.21146993

> <PUBCHEM_MOLECULAR_FORMULA>
C24H28FN3O3

> <PUBCHEM_MOLECULAR_WEIGHT>
425.5

> <PUBCHEM_OPENEYE_CAN_SMILES>
CC(=O)NCC1=CC=C(C=C1)OCCCN2CCC(CC2)C3=NOC4=C3C=CC(=C4)F

> <PUBCHEM_OPENEYE_ISO_SMILES>
CC(=O)NCC1=CC=C(C=C1)OCCCN2CCC(CC2)C3=NOC4=C3C=CC(=C4)F

> <PUBCHEM_CACTVS_TPSA>
67.6

> <PUBCHEM_MONOISOTOPIC_WEIGHT>
425.21146993

> <PUBCHEM_TOTAL_CHARGE>
0

> <PUBCHEM_HEAVY_ATOM_COUNT>
31

> <PUBCHEM_ATOM_DEF_STEREO_COUNT>
0

> <PUBCHEM_ATOM_UDEF_STEREO_COUNT>
0

> <PUBCHEM_BOND_DEF_STEREO_COUNT>
0

> <PUBCHEM_BOND_UDEF_STEREO_COUNT>
0

> <PUBCHEM_ISOTOPIC_ATOM_COUNT>
0

> <PUBCHEM_COMPONENT_COUNT>
1

> <PUBCHEM_CACTVS_TAUTO_COUNT>
-1

> <PUBCHEM_COORDINATE_TYPE>
1
5
255

> <PUBCHEM_BONDANNOTATIONS>
14  16  8
16  17  8
16  19  8
17  20  8
19  21  8
2  17  8
2  6  8
20  22  8
21  22  8
23  24  8
23  25  8
24  27  8
25  28  8
26  27  8
26  28  8
6  14  8

$$$$
