168290385
  -OEChem-09292322442D

 55 57  0     0  0  0  0  0  0999 V2000
    3.2152    7.4038    0.0000 S   0  0  0  0  0  0  0  0  0  0  0  0
    3.9104   11.7176    0.0000 O   0  0  0  0  0  0  0  0  0  0  0  0
    6.5084   11.2176    0.0000 O   0  0  0  0  0  0  0  0  0  0  0  0
    4.7764   10.2176    0.0000 O   0  0  0  0  0  0  0  0  0  0  0  0
    5.6424   12.7176    0.0000 O   0  0  0  0  0  0  0  0  0  0  0  0
    6.7988    4.8671    0.0000 N   0  0  0  0  0  0  0  0  0  0  0  0
    7.7988    3.1350    0.0000 N   0  0  0  0  0  0  0  0  0  0  0  0
    3.2152    5.7944    0.0000 N   0  0  0  0  0  0  0  0  0  0  0  0
    6.2988    4.0010    0.0000 C   0  0  0  0  0  0  0  0  0  0  0  0
    7.7988    4.8671    0.0000 C   0  0  0  0  0  0  0  0  0  0  0  0
    6.7988    3.1350    0.0000 C   0  0  0  0  0  0  0  0  0  0  0  0
    8.2988    4.0010    0.0000 C   0  0  0  0  0  0  0  0  0  0  0  0
    6.2988    5.7331    0.0000 C   0  0  0  0  0  0  0  0  0  0  0  0
    5.2988    5.7331    0.0000 C   0  0  0  0  0  0  0  0  0  0  0  0
    8.2988    2.2690    0.0000 C   0  0  0  0  0  0  0  0  0  0  0  0
    4.7988    6.5991    0.0000 C   0  0  0  0  0  0  0  0  0  0  0  0
    7.7988    1.4030    0.0000 C   0  0  0  0  0  0  0  0  0  0  0  0
    9.2988    2.2690    0.0000 C   0  0  0  0  0  0  0  0  0  0  0  0
    3.7988    6.5991    0.0000 C   0  0  0  0  0  0  0  0  0  0  0  0
    8.2988    0.5369    0.0000 C   0  0  0  0  0  0  0  0  0  0  0  0
    9.7988    1.4030    0.0000 C   0  0  0  0  0  0  0  0  0  0  0  0
    9.2988    0.5369    0.0000 C   0  0  0  0  0  0  0  0  0  0  0  0
    2.2690    7.0991    0.0000 C   0  0  0  0  0  0  0  0  0  0  0  0
    2.2690    6.0991    0.0000 C   0  0  0  0  0  0  0  0  0  0  0  0
    1.4030    7.5991    0.0000 C   0  0  0  0  0  0  0  0  0  0  0  0
    1.4030    5.5991    0.0000 C   0  0  0  0  0  0  0  0  0  0  0  0
    0.5369    7.0991    0.0000 C   0  0  0  0  0  0  0  0  0  0  0  0
    0.5369    6.0991    0.0000 C   0  0  0  0  0  0  0  0  0  0  0  0
    4.7764   11.2176    0.0000 C   0  0  0  0  0  0  0  0  0  0  0  0
    5.6424   11.7176    0.0000 C   0  0  0  0  0  0  0  0  0  0  0  0
    5.8239    4.3996    0.0000 H   0  0  0  0  0  0  0  0  0  0  0  0
    5.8239    3.6025    0.0000 H   0  0  0  0  0  0  0  0  0  0  0  0
    8.3814    5.0791    0.0000 H   0  0  0  0  0  0  0  0  0  0  0  0
    7.6912    5.4776    0.0000 H   0  0  0  0  0  0  0  0  0  0  0  0
    6.2162    2.9230    0.0000 H   0  0  0  0  0  0  0  0  0  0  0  0
    6.9065    2.5244    0.0000 H   0  0  0  0  0  0  0  0  0  0  0  0
    8.7738    3.6025    0.0000 H   0  0  0  0  0  0  0  0  0  0  0  0
    8.7738    4.3996    0.0000 H   0  0  0  0  0  0  0  0  0  0  0  0
    6.8814    5.9451    0.0000 H   0  0  0  0  0  0  0  0  0  0  0  0
    6.1912    6.3437    0.0000 H   0  0  0  0  0  0  0  0  0  0  0  0
    4.7162    5.5210    0.0000 H   0  0  0  0  0  0  0  0  0  0  0  0
    5.4065    5.1225    0.0000 H   0  0  0  0  0  0  0  0  0  0  0  0
    5.3814    6.8112    0.0000 H   0  0  0  0  0  0  0  0  0  0  0  0
    4.6912    7.2097    0.0000 H   0  0  0  0  0  0  0  0  0  0  0  0
    7.1788    1.4030    0.0000 H   0  0  0  0  0  0  0  0  0  0  0  0
    9.6088    2.8059    0.0000 H   0  0  0  0  0  0  0  0  0  0  0  0
    7.9888    0.0000    0.0000 H   0  0  0  0  0  0  0  0  0  0  0  0
   10.4188    1.4030    0.0000 H   0  0  0  0  0  0  0  0  0  0  0  0
    9.6088    0.0000    0.0000 H   0  0  0  0  0  0  0  0  0  0  0  0
    1.4030    8.2191    0.0000 H   0  0  0  0  0  0  0  0  0  0  0  0
    1.4030    4.9791    0.0000 H   0  0  0  0  0  0  0  0  0  0  0  0
    0.0000    7.4091    0.0000 H   0  0  0  0  0  0  0  0  0  0  0  0
    0.0000    5.7891    0.0000 H   0  0  0  0  0  0  0  0  0  0  0  0
    3.3734   11.4076    0.0000 H   0  0  0  0  0  0  0  0  0  0  0  0
    7.0454   11.5276    0.0000 H   0  0  0  0  0  0  0  0  0  0  0  0
  1 19  1  0  0  0  0
  1 23  1  0  0  0  0
  2 29  1  0  0  0  0
  2 54  1  0  0  0  0
  3 30  1  0  0  0  0
  3 55  1  0  0  0  0
  4 29  2  0  0  0  0
  5 30  2  0  0  0  0
  6  9  1  0  0  0  0
  6 10  1  0  0  0  0
  6 13  1  0  0  0  0
  7 11  1  0  0  0  0
  7 12  1  0  0  0  0
  7 15  1  0  0  0  0
  8 19  2  0  0  0  0
  8 24  1  0  0  0  0
  9 11  1  0  0  0  0
  9 31  1  0  0  0  0
  9 32  1  0  0  0  0
 10 12  1  0  0  0  0
 10 33  1  0  0  0  0
 10 34  1  0  0  0  0
 11 35  1  0  0  0  0
 11 36  1  0  0  0  0
 12 37  1  0  0  0  0
 12 38  1  0  0  0  0
 13 14  1  0  0  0  0
 13 39  1  0  0  0  0
 13 40  1  0  0  0  0
 14 16  1  0  0  0  0
 14 41  1  0  0  0  0
 14 42  1  0  0  0  0
 15 17  2  0  0  0  0
 15 18  1  0  0  0  0
 16 19  1  0  0  0  0
 16 43  1  0  0  0  0
 16 44  1  0  0  0  0
 17 20  1  0  0  0  0
 17 45  1  0  0  0  0
 18 21  2  0  0  0  0
 18 46  1  0  0  0  0
 20 22  2  0  0  0  0
 20 47  1  0  0  0  0
 21 22  1  0  0  0  0
 21 48  1  0  0  0  0
 22 49  1  0  0  0  0
 23 24  1  0  0  0  0
 23 25  2  0  0  0  0
 24 26  2  0  0  0  0
 25 27  1  0  0  0  0
 25 50  1  0  0  0  0
 26 28  1  0  0  0  0
 26 51  1  0  0  0  0
 27 28  2  0  0  0  0
 27 52  1  0  0  0  0
 28 53  1  0  0  0  0
 29 30  1  0  0  0  0
M  END
> <PUBCHEM_COMPOUND_CID>
168290385

> <PUBCHEM_COMPOUND_CANONICALIZED>
1

> <PUBCHEM_CACTVS_COMPLEXITY>
449

> <PUBCHEM_CACTVS_HBOND_ACCEPTOR>
8

> <PUBCHEM_CACTVS_HBOND_DONOR>
2

> <PUBCHEM_CACTVS_ROTATABLE_BOND>
6

> <PUBCHEM_CACTVS_SUBSKEYS>
AAADceB7OABAAAAAAAAAAAAAAAAAAWAAAAA8YIAAAAAAAFgB9AAAHgQACAAACAjB1gQwybMIEgisASTyTAKD8KBhCjhImDx4ZJgJYKLgkZGUIAhggADpyAcQAAAAAAAAAAAAAQAAAAAAAAACAAAAAAAAAA==

> <PUBCHEM_IUPAC_OPENEYE_NAME>
oxalic acid;2-[3-(4-phenylpiperazin-1-yl)propyl]-1,3-benzothiazole

> <PUBCHEM_IUPAC_CAS_NAME>
oxalic acid;2-[3-(4-phenyl-1-piperazinyl)propyl]-1,3-benzothiazole

> <PUBCHEM_IUPAC_NAME_MARKUP>
oxalic acid;2-[3-(4-phenylpiperazin-1-yl)propyl]-1,3-benzothiazole

> <PUBCHEM_IUPAC_NAME>
oxalic acid;2-[3-(4-phenylpiperazin-1-yl)propyl]-1,3-benzothiazole

> <PUBCHEM_IUPAC_SYSTEMATIC_NAME>
ethanedioic acid;2-[3-(4-phenylpiperazin-1-yl)propyl]-1,3-benzothiazole

> <PUBCHEM_IUPAC_TRADITIONAL_NAME>
oxalic acid;2-[3-(4-phenylpiperazino)propyl]-1,3-benzothiazole

> <PUBCHEM_IUPAC_INCHI>
InChI=1S/C20H23N3S.C2H2O4/c1-2-7-17(8-3-1)23-15-13-22(14-16-23)12-6-11-20-21-18-9-4-5-10-19(18)24-20;3-1(4)2(5)6/h1-5,7-10H,6,11-16H2;(H,3,4)(H,5,6)

> <PUBCHEM_IUPAC_INCHIKEY>
OJNUHGQZODESIZ-UHFFFAOYSA-N

> <PUBCHEM_EXACT_MASS>
427.15657746

> <PUBCHEM_MOLECULAR_FORMULA>
C22H25N3O4S

> <PUBCHEM_MOLECULAR_WEIGHT>
427.5

> <PUBCHEM_OPENEYE_CAN_SMILES>
C1CN(CCN1CCCC2=NC3=CC=CC=C3S2)C4=CC=CC=C4.C(=O)(C(=O)O)O

> <PUBCHEM_OPENEYE_ISO_SMILES>
C1CN(CCN1CCCC2=NC3=CC=CC=C3S2)C4=CC=CC=C4.C(=O)(C(=O)O)O

> <PUBCHEM_CACTVS_TPSA>
122

> <PUBCHEM_MONOISOTOPIC_WEIGHT>
427.15657746

> <PUBCHEM_TOTAL_CHARGE>
0

> <PUBCHEM_HEAVY_ATOM_COUNT>
30

> <PUBCHEM_ATOM_DEF_STEREO_COUNT>
0

> <PUBCHEM_ATOM_UDEF_STEREO_COUNT>
0

> <PUBCHEM_BOND_DEF_STEREO_COUNT>
0

> <PUBCHEM_BOND_UDEF_STEREO_COUNT>
0

> <PUBCHEM_ISOTOPIC_ATOM_COUNT>
0

> <PUBCHEM_COMPONENT_COUNT>
2

> <PUBCHEM_CACTVS_TAUTO_COUNT>
-1

> <PUBCHEM_COORDINATE_TYPE>
1
5
255

> <PUBCHEM_BONDANNOTATIONS>
1  19  8
1  23  8
15  17  8
15  18  8
17  20  8
18  21  8
20  22  8
21  22  8
23  24  8
23  25  8
24  26  8
25  27  8
26  28  8
27  28  8
8  19  8
8  24  8

$$$$
