145983104
  -OEChem-09292322052D

129134  0     1  0  0  0  0  0999 V2000
    6.9730   16.9150    0.0000 S   0  0  0  0  0  0  0  0  0  0  0  0
    7.1962  -16.0083    0.0000 O   0  0  0  0  0  0  0  0  0  0  0  0
    4.5981   -8.5083    0.0000 O   0  0  0  0  0  0  0  0  0  0  0  0
    2.8660   -9.5083    0.0000 O   0  0  0  0  0  0  0  0  0  0  0  0
    6.4180    8.4156    0.0000 O   0  0  0  0  0  0  0  0  0  0  0  0
    7.5935   10.0336    0.0000 O   0  0  0  0  0  0  0  0  0  0  0  0
    5.4641  -13.0083    0.0000 N   0  0  0  0  0  0  0  0  0  0  0  0
    7.1962  -14.0083    0.0000 N   0  0  0  0  0  0  0  0  0  0  0  0
    7.2761    2.2298    0.0000 N   0  0  3  0  0  0  0  0  0  0  0  0
    5.9641   -5.4694    0.0000 N   0  0  0  0  0  0  0  0  0  0  0  0
    7.8192    7.3975    0.0000 N   0  0  0  0  0  0  0  0  0  0  0  0
    4.9641   -5.4694    0.0000 N   0  0  0  0  0  0  0  0  0  0  0  0
    4.6551   -6.4205    0.0000 N   0  0  0  0  0  0  0  0  0  0  0  0
    9.7636   11.5471    0.0000 N   0  0  0  0  0  0  0  0  0  0  0  0
    6.1640   15.5138    0.0000 N   0  0  0  0  0  0  0  0  0  0  0  0
    5.4641  -14.0083    0.0000 C   0  0  0  0  0  0  0  0  0  0  0  0
    6.3301  -12.5083    0.0000 C   0  0  0  0  0  0  0  0  0  0  0  0
    6.3301  -14.5083    0.0000 C   0  0  0  0  0  0  0  0  0  0  0  0
    7.1962  -13.0083    0.0000 C   0  0  0  0  0  0  0  0  0  0  0  0
    4.5981  -12.5083    0.0000 C   0  0  0  0  0  0  0  0  0  0  0  0
    8.0622  -14.5083    0.0000 C   0  0  0  0  0  0  0  0  0  0  0  0
    4.5981  -11.5083    0.0000 C   0  0  0  0  0  0  0  0  0  0  0  0
    6.5072   -0.3017    0.0000 C   0  0  0  0  0  0  0  0  0  0  0  0
    7.0950    0.5073    0.0000 C   0  0  0  0  0  0  0  0  0  0  0  0
    6.9140   -1.2153    0.0000 C   0  0  0  0  0  0  0  0  0  0  0  0
    6.6883    1.4208    0.0000 C   0  0  0  0  0  0  0  0  0  0  0  0
    6.3262   -2.0243    0.0000 C   0  0  0  0  0  0  0  0  0  0  0  0
    8.0622  -15.5083    0.0000 C   0  0  0  0  0  0  0  0  0  0  0  0
    6.7329   -2.9379    0.0000 C   0  0  0  0  0  0  0  0  0  0  0  0
    8.9282  -14.0083    0.0000 C   0  0  0  0  0  0  0  0  0  0  0  0
    6.8693    3.1434    0.0000 C   0  0  0  0  0  0  0  0  0  0  0  0
    7.4571    3.9524    0.0000 C   0  0  0  0  0  0  0  0  0  0  0  0
    6.1452   -3.7469    0.0000 C   0  0  0  0  0  0  0  0  0  0  0  0
    3.7320  -11.0083    0.0000 C   0  0  0  0  0  0  0  0  0  0  0  0
    5.4641  -11.0083    0.0000 C   0  0  0  0  0  0  0  0  0  0  0  0
    7.0504    4.8659    0.0000 C   0  0  0  0  0  0  0  0  0  0  0  0
    8.9282  -16.0083    0.0000 C   0  0  0  0  0  0  0  0  0  0  0  0
    6.5519   -4.6604    0.0000 C   0  0  0  0  0  0  0  0  0  0  0  0
    9.7942  -14.5083    0.0000 C   0  0  0  0  0  0  0  0  0  0  0  0
    3.7320  -10.0083    0.0000 C   0  0  0  0  0  0  0  0  0  0  0  0
    8.2706    2.1253    0.0000 C   0  0  0  0  0  0  0  0  0  0  0  0
    7.6382    5.6750    0.0000 C   0  0  0  0  0  0  0  0  0  0  0  0
    5.4641  -10.0083    0.0000 C   0  0  0  0  0  0  0  0  0  0  0  0
    4.5981   -9.5083    0.0000 C   0  0  0  0  0  0  0  0  0  0  0  0
    9.7942  -15.5083    0.0000 C   0  0  0  0  0  0  0  0  0  0  0  0
    7.2314    6.5885    0.0000 C   0  0  0  0  0  0  0  0  0  0  0  0
    6.2731   -6.4205    0.0000 C   0  0  0  0  0  0  0  0  0  0  0  0
    5.4641   -8.0083    0.0000 C   0  0  0  0  0  0  0  0  0  0  0  0
    5.4641   -7.0083    0.0000 C   0  0  0  0  0  0  0  0  0  0  0  0
    7.1962  -17.0083    0.0000 C   0  0  0  0  0  0  0  0  0  0  0  0
    2.0000  -10.0083    0.0000 C   0  0  0  0  0  0  0  0  0  0  0  0
    7.4125    8.3111    0.0000 C   0  0  0  0  0  0  0  0  0  0  0  0
    8.0003    9.1201    0.0000 C   0  0  0  0  0  0  0  0  0  0  0  0
    8.1813   10.8426    0.0000 C   0  0  0  0  0  0  0  0  0  0  0  0
    7.7746   11.7562    0.0000 C   0  0  0  0  0  0  0  0  0  0  0  0
    9.1758   10.7381    0.0000 C   0  0  0  0  0  0  0  0  0  0  0  0
    8.3624   12.5652    0.0000 C   0  0  0  0  0  0  0  0  0  0  0  0
    9.3569   12.4607    0.0000 C   0  0  0  0  0  0  0  0  0  0  0  0
    7.9556   13.4788    0.0000 C   0  0  0  0  0  0  0  0  0  0  0  0
    7.5489   14.3923    0.0000 C   0  0  0  0  0  0  0  0  0  0  0  0
    7.1422   15.3058    0.0000 C   0  0  0  0  0  0  0  0  0  0  0  0
    7.6422   16.1719    0.0000 C   0  0  0  0  0  0  0  0  0  0  0  0
    6.0595   16.5083    0.0000 C   0  0  0  0  0  0  0  0  0  0  0  0
    5.1935   17.0083    0.0000 C   0  0  0  0  0  0  0  0  0  0  0  0
    4.8535  -13.9006    0.0000 H   0  0  0  0  0  0  0  0  0  0  0  0
    5.2520  -14.5909    0.0000 H   0  0  0  0  0  0  0  0  0  0  0  0
    6.7287  -12.0333    0.0000 H   0  0  0  0  0  0  0  0  0  0  0  0
    5.9316  -12.0333    0.0000 H   0  0  0  0  0  0  0  0  0  0  0  0
    5.9316  -14.9832    0.0000 H   0  0  0  0  0  0  0  0  0  0  0  0
    6.7287  -14.9832    0.0000 H   0  0  0  0  0  0  0  0  0  0  0  0
    7.8067  -13.1159    0.0000 H   0  0  0  0  0  0  0  0  0  0  0  0
    7.4082  -12.4257    0.0000 H   0  0  0  0  0  0  0  0  0  0  0  0
    3.9875  -12.4006    0.0000 H   0  0  0  0  0  0  0  0  0  0  0  0
    4.3860  -13.0909    0.0000 H   0  0  0  0  0  0  0  0  0  0  0  0
    6.0766    0.1442    0.0000 H   0  0  0  0  0  0  0  0  0  0  0  0
    5.9932   -0.6484    0.0000 H   0  0  0  0  0  0  0  0  0  0  0  0
    7.5257    0.0613    0.0000 H   0  0  0  0  0  0  0  0  0  0  0  0
    7.6090    0.8540    0.0000 H   0  0  0  0  0  0  0  0  0  0  0  0
    7.3447   -1.6613    0.0000 H   0  0  0  0  0  0  0  0  0  0  0  0
    7.4280   -0.8686    0.0000 H   0  0  0  0  0  0  0  0  0  0  0  0
    6.2576    1.8668    0.0000 H   0  0  0  0  0  0  0  0  0  0  0  0
    6.1743    1.0741    0.0000 H   0  0  0  0  0  0  0  0  0  0  0  0
    5.8955   -1.5783    0.0000 H   0  0  0  0  0  0  0  0  0  0  0  0
    5.8122   -2.3710    0.0000 H   0  0  0  0  0  0  0  0  0  0  0  0
    7.1636   -3.3838    0.0000 H   0  0  0  0  0  0  0  0  0  0  0  0
    7.2469   -2.5912    0.0000 H   0  0  0  0  0  0  0  0  0  0  0  0
    8.9282  -13.3883    0.0000 H   0  0  0  0  0  0  0  0  0  0  0  0
    6.4387    3.5894    0.0000 H   0  0  0  0  0  0  0  0  0  0  0  0
    6.3553    2.7967    0.0000 H   0  0  0  0  0  0  0  0  0  0  0  0
    7.8878    3.5064    0.0000 H   0  0  0  0  0  0  0  0  0  0  0  0
    7.9711    4.2991    0.0000 H   0  0  0  0  0  0  0  0  0  0  0  0
    5.7145   -3.3009    0.0000 H   0  0  0  0  0  0  0  0  0  0  0  0
    5.6312   -4.0936    0.0000 H   0  0  0  0  0  0  0  0  0  0  0  0
    3.1951  -11.3183    0.0000 H   0  0  0  0  0  0  0  0  0  0  0  0
    6.0010  -11.3183    0.0000 H   0  0  0  0  0  0  0  0  0  0  0  0
    6.6197    5.3119    0.0000 H   0  0  0  0  0  0  0  0  0  0  0  0
    6.5364    4.5192    0.0000 H   0  0  0  0  0  0  0  0  0  0  0  0
    8.9282  -16.6283    0.0000 H   0  0  0  0  0  0  0  0  0  0  0  0
    6.9826   -5.1064    0.0000 H   0  0  0  0  0  0  0  0  0  0  0  0
    7.0659   -4.3137    0.0000 H   0  0  0  0  0  0  0  0  0  0  0  0
   10.3312  -14.1983    0.0000 H   0  0  0  0  0  0  0  0  0  0  0  0
    8.2058    1.5087    0.0000 H   0  0  0  0  0  0  0  0  0  0  0  0
    8.8872    2.0605    0.0000 H   0  0  0  0  0  0  0  0  0  0  0  0
    8.3354    2.7419    0.0000 H   0  0  0  0  0  0  0  0  0  0  0  0
    8.0689    5.2290    0.0000 H   0  0  0  0  0  0  0  0  0  0  0  0
    8.1522    6.0217    0.0000 H   0  0  0  0  0  0  0  0  0  0  0  0
    6.0010   -9.6983    0.0000 H   0  0  0  0  0  0  0  0  0  0  0  0
   10.3312  -15.8183    0.0000 H   0  0  0  0  0  0  0  0  0  0  0  0
    6.8008    7.0345    0.0000 H   0  0  0  0  0  0  0  0  0  0  0  0
    6.7174    6.2418    0.0000 H   0  0  0  0  0  0  0  0  0  0  0  0
    6.8628   -6.6121    0.0000 H   0  0  0  0  0  0  0  0  0  0  0  0
    5.6762   -8.5909    0.0000 H   0  0  0  0  0  0  0  0  0  0  0  0
    6.0747   -7.9006    0.0000 H   0  0  0  0  0  0  0  0  0  0  0  0
    6.5762  -17.0083    0.0000 H   0  0  0  0  0  0  0  0  0  0  0  0
    7.1962  -17.6283    0.0000 H   0  0  0  0  0  0  0  0  0  0  0  0
    7.8162  -17.0083    0.0000 H   0  0  0  0  0  0  0  0  0  0  0  0
    8.4358    7.3327    0.0000 H   0  0  0  0  0  0  0  0  0  0  0  0
    1.6900   -9.4713    0.0000 H   0  0  0  0  0  0  0  0  0  0  0  0
    1.4631  -10.3183    0.0000 H   0  0  0  0  0  0  0  0  0  0  0  0
    2.3100  -10.5452    0.0000 H   0  0  0  0  0  0  0  0  0  0  0  0
    8.4310    8.6741    0.0000 H   0  0  0  0  0  0  0  0  0  0  0  0
    8.5143    9.4668    0.0000 H   0  0  0  0  0  0  0  0  0  0  0  0
    7.1580   11.8210    0.0000 H   0  0  0  0  0  0  0  0  0  0  0  0
    9.4280   10.1717    0.0000 H   0  0  0  0  0  0  0  0  0  0  0  0
    9.7213   12.9623    0.0000 H   0  0  0  0  0  0  0  0  0  0  0  0
    8.2588   16.2367    0.0000 H   0  0  0  0  0  0  0  0  0  0  0  0
    5.5035   17.5452    0.0000 H   0  0  0  0  0  0  0  0  0  0  0  0
    4.6565   17.3183    0.0000 H   0  0  0  0  0  0  0  0  0  0  0  0
    4.8835   16.4713    0.0000 H   0  0  0  0  0  0  0  0  0  0  0  0
  1 62  1  0  0  0  0
  1 63  1  0  0  0  0
  2 28  1  0  0  0  0
  2 50  1  0  0  0  0
  3 44  1  0  0  0  0
  3 48  1  0  0  0  0
  4 40  1  0  0  0  0
  4 51  1  0  0  0  0
  5 52  2  0  0  0  0
  6 53  1  0  0  0  0
  6 54  1  0  0  0  0
  7 16  1  0  0  0  0
  7 17  1  0  0  0  0
  7 20  1  0  0  0  0
  8 18  1  0  0  0  0
  8 19  1  0  0  0  0
  8 21  1  0  0  0  0
  9 26  1  0  0  0  0
  9 31  1  0  0  0  0
  9 41  1  0  0  0  0
 10 12  1  0  0  0  0
 10 38  1  0  0  0  0
 10 47  1  0  0  0  0
 11 46  1  0  0  0  0
 11 52  1  0  0  0  0
 11117  1  0  0  0  0
 12 13  2  0  0  0  0
 13 49  1  0  0  0  0
 14 56  1  0  0  0  0
 14 58  2  0  0  0  0
 15 61  1  0  0  0  0
 15 63  2  0  0  0  0
 16 18  1  0  0  0  0
 16 65  1  0  0  0  0
 16 66  1  0  0  0  0
 17 19  1  0  0  0  0
 17 67  1  0  0  0  0
 17 68  1  0  0  0  0
 18 69  1  0  0  0  0
 18 70  1  0  0  0  0
 19 71  1  0  0  0  0
 19 72  1  0  0  0  0
 20 22  1  0  0  0  0
 20 73  1  0  0  0  0
 20 74  1  0  0  0  0
 21 28  1  0  0  0  0
 21 30  2  0  0  0  0
 22 34  2  0  0  0  0
 22 35  1  0  0  0  0
 23 24  1  0  0  0  0
 23 25  1  0  0  0  0
 23 75  1  0  0  0  0
 23 76  1  0  0  0  0
 24 26  1  0  0  0  0
 24 77  1  0  0  0  0
 24 78  1  0  0  0  0
 25 27  1  0  0  0  0
 25 79  1  0  0  0  0
 25 80  1  0  0  0  0
 26 81  1  0  0  0  0
 26 82  1  0  0  0  0
 27 29  1  0  0  0  0
 27 83  1  0  0  0  0
 27 84  1  0  0  0  0
 28 37  2  0  0  0  0
 29 33  1  0  0  0  0
 29 85  1  0  0  0  0
 29 86  1  0  0  0  0
 30 39  1  0  0  0  0
 30 87  1  0  0  0  0
 31 32  1  0  0  0  0
 31 88  1  0  0  0  0
 31 89  1  0  0  0  0
 32 36  1  0  0  0  0
 32 90  1  0  0  0  0
 32 91  1  0  0  0  0
 33 38  1  0  0  0  0
 33 92  1  0  0  0  0
 33 93  1  0  0  0  0
 34 40  1  0  0  0  0
 34 94  1  0  0  0  0
 35 43  2  0  0  0  0
 35 95  1  0  0  0  0
 36 42  1  0  0  0  0
 36 96  1  0  0  0  0
 36 97  1  0  0  0  0
 37 45  1  0  0  0  0
 37 98  1  0  0  0  0
 38 99  1  0  0  0  0
 38100  1  0  0  0  0
 39 45  2  0  0  0  0
 39101  1  0  0  0  0
 40 44  2  0  0  0  0
 41102  1  0  0  0  0
 41103  1  0  0  0  0
 41104  1  0  0  0  0
 42 46  1  0  0  0  0
 42105  1  0  0  0  0
 42106  1  0  0  0  0
 43 44  1  0  0  0  0
 43107  1  0  0  0  0
 45108  1  0  0  0  0
 46109  1  0  0  0  0
 46110  1  0  0  0  0
 47 49  2  0  0  0  0
 47111  1  0  0  0  0
 48 49  1  0  0  0  0
 48112  1  0  0  0  0
 48113  1  0  0  0  0
 50114  1  0  0  0  0
 50115  1  0  0  0  0
 50116  1  0  0  0  0
 51118  1  0  0  0  0
 51119  1  0  0  0  0
 51120  1  0  0  0  0
 52 53  1  0  0  0  0
 53121  1  0  0  0  0
 53122  1  0  0  0  0
 54 55  1  0  0  0  0
 54 56  2  0  0  0  0
 55 57  2  0  0  0  0
 55123  1  0  0  0  0
 56124  1  0  0  0  0
 57 58  1  0  0  0  0
 57 59  1  0  0  0  0
 58125  1  0  0  0  0
 59 60  3  0  0  0  0
 60 61  1  0  0  0  0
 61 62  2  0  0  0  0
 62126  1  0  0  0  0
 63 64  1  0  0  0  0
 64127  1  0  0  0  0
 64128  1  0  0  0  0
 64129  1  0  0  0  0
M  END
> <PUBCHEM_COMPOUND_CID>
145983104

> <PUBCHEM_COMPOUND_CANONICALIZED>
1

> <PUBCHEM_CACTVS_COMPLEXITY>
1370

> <PUBCHEM_CACTVS_HBOND_ACCEPTOR>
13

> <PUBCHEM_CACTVS_HBOND_DONOR>
1

> <PUBCHEM_CACTVS_ROTATABLE_BOND>
28

> <PUBCHEM_CACTVS_SUBSKEYS>
AAADcfB/+ABAAAAAAAAAAAAAAAAAAWLAAAA8eIEAAAAAAAAB/AAAHgQYAAAADAzl3ga+x5PIFAjuEzV3VA6C/KRx+jgY2LR//JgPZuLksZ+XOCrm1hH66Aew0JIOIAABAAAAUABAAAIAAACgAAAAAAAAAA==

> <PUBCHEM_IUPAC_OPENEYE_NAME>
N-[5-[8-[4-[[2-methoxy-4-[[4-(2-methoxyphenyl)piperazin-1-yl]methyl]phenoxy]methyl]triazol-1-yl]octyl-methyl-amino]pentyl]-2-[[5-[2-(2-methylthiazol-4-yl)ethynyl]-3-pyridyl]oxy]acetamide

> <PUBCHEM_IUPAC_CAS_NAME>
N-[5-[8-[4-[[2-methoxy-4-[[4-(2-methoxyphenyl)-1-piperazinyl]methyl]phenoxy]methyl]-1-triazolyl]octyl-methylamino]pentyl]-2-[[5-[2-(2-methyl-4-thiazolyl)ethynyl]-3-pyridinyl]oxy]acetamide

> <PUBCHEM_IUPAC_NAME_MARKUP>
<I>N</I>-[5-[8-[4-[[2-methoxy-4-[[4-(2-methoxyphenyl)piperazin-1-yl]methyl]phenoxy]methyl]triazol-1-yl]octyl-methylamino]pentyl]-2-[5-[2-(2-methyl-1,3-thiazol-4-yl)ethynyl]pyridin-3-yl]oxyacetamide

> <PUBCHEM_IUPAC_NAME>
N-[5-[8-[4-[[2-methoxy-4-[[4-(2-methoxyphenyl)piperazin-1-yl]methyl]phenoxy]methyl]triazol-1-yl]octyl-methylamino]pentyl]-2-[5-[2-(2-methyl-1,3-thiazol-4-yl)ethynyl]pyridin-3-yl]oxyacetamide

> <PUBCHEM_IUPAC_SYSTEMATIC_NAME>
N-[5-[8-[4-[[2-methoxy-4-[[4-(2-methoxyphenyl)piperazin-1-yl]methyl]phenoxy]methyl]-1,2,3-triazol-1-yl]octyl-methyl-amino]pentyl]-2-[5-[2-(2-methyl-1,3-thiazol-4-yl)ethynyl]pyridin-3-yl]oxy-ethanamide

> <PUBCHEM_IUPAC_TRADITIONAL_NAME>
N-[5-[8-[4-[[2-methoxy-4-[[4-(2-methoxyphenyl)piperazino]methyl]phenoxy]methyl]triazol-1-yl]octyl-methyl-amino]pentyl]-2-[[5-[2-(2-methylthiazol-4-yl)ethynyl]-3-pyridyl]oxy]acetamide

> <PUBCHEM_IUPAC_INCHI>
InChI=1S/C49H65N9O5S/c1-39-52-42(38-64-39)20-18-40-30-44(33-50-32-40)62-37-49(59)51-22-12-9-14-24-55(2)23-13-7-5-6-8-15-25-58-35-43(53-54-58)36-63-47-21-19-41(31-48(47)61-4)34-56-26-28-57(29-27-56)45-16-10-11-17-46(45)60-3/h10-11,16-17,19,21,30-33,35,38H,5-9,12-15,22-29,34,36-37H2,1-4H3,(H,51,59)

> <PUBCHEM_IUPAC_INCHIKEY>
CQZPSNRJVCQSPU-UHFFFAOYSA-N

> <PUBCHEM_XLOGP3_AA>
7.5

> <PUBCHEM_EXACT_MASS>
891.48293738

> <PUBCHEM_MOLECULAR_FORMULA>
C49H65N9O5S

> <PUBCHEM_MOLECULAR_WEIGHT>
892.2

> <PUBCHEM_OPENEYE_CAN_SMILES>
CC1=NC(=CS1)C#CC2=CC(=CN=C2)OCC(=O)NCCCCCN(C)CCCCCCCCN3C=C(N=N3)COC4=C(C=C(C=C4)CN5CCN(CC5)C6=CC=CC=C6OC)OC

> <PUBCHEM_OPENEYE_ISO_SMILES>
CC1=NC(=CS1)C#CC2=CC(=CN=C2)OCC(=O)NCCCCCN(C)CCCCCCCCN3C=C(N=N3)COC4=C(C=C(C=C4)CN5CCN(CC5)C6=CC=CC=C6OC)OC

> <PUBCHEM_CACTVS_TPSA>
161

> <PUBCHEM_MONOISOTOPIC_WEIGHT>
891.48293738

> <PUBCHEM_TOTAL_CHARGE>
0

> <PUBCHEM_HEAVY_ATOM_COUNT>
64

> <PUBCHEM_ATOM_DEF_STEREO_COUNT>
0

> <PUBCHEM_ATOM_UDEF_STEREO_COUNT>
0

> <PUBCHEM_BOND_DEF_STEREO_COUNT>
0

> <PUBCHEM_BOND_UDEF_STEREO_COUNT>
0

> <PUBCHEM_ISOTOPIC_ATOM_COUNT>
0

> <PUBCHEM_COMPONENT_COUNT>
1

> <PUBCHEM_CACTVS_TAUTO_COUNT>
-1

> <PUBCHEM_COORDINATE_TYPE>
1
5
255

> <PUBCHEM_BONDANNOTATIONS>
1  62  8
1  63  8
10  12  8
10  47  8
12  13  8
13  49  8
14  56  8
14  58  8
15  61  8
15  63  8
21  28  8
21  30  8
22  34  8
22  35  8
28  37  8
30  39  8
34  40  8
35  43  8
37  45  8
39  45  8
40  44  8
43  44  8
47  49  8
54  55  8
54  56  8
55  57  8
57  58  8
61  62  8

$$$$
