168282733
  -OEChem-09292322442D

 58 60  0     0  0  0  0  0  0999 V2000
    4.5981    4.9050    0.0000 O   0  0  0  0  0  0  0  0  0  0  0  0
    6.3301    1.9050    0.0000 N   0  0  0  0  0  0  0  0  0  0  0  0
    4.5981    2.9050    0.0000 N   0  0  0  0  0  0  0  0  0  0  0  0
    8.9282   -2.5950    0.0000 N   0  0  0  0  0  0  0  0  0  0  0  0
    9.7942   -4.0950    0.0000 N   0  0  0  0  0  0  0  0  0  0  0  0
   10.6603   -2.5950    0.0000 N   0  0  0  0  0  0  0  0  0  0  0  0
   11.5263   -4.0950    0.0000 N   0  0  0  0  0  0  0  0  0  0  0  0
   10.6603   -5.5950    0.0000 N   0  0  0  0  0  0  0  0  0  0  0  0
   12.3923   -2.5950    0.0000 N   0  0  0  0  0  0  0  0  0  0  0  0
    5.4641    1.4050    0.0000 C   0  0  0  0  0  0  0  0  0  0  0  0
    6.3301    2.9050    0.0000 C   0  0  0  0  0  0  0  0  0  0  0  0
    4.5981    1.9050    0.0000 C   0  0  0  0  0  0  0  0  0  0  0  0
    5.4641    3.4050    0.0000 C   0  0  0  0  0  0  0  0  0  0  0  0
    7.1962    1.4050    0.0000 C   0  0  0  0  0  0  0  0  0  0  0  0
    7.1962    0.4050    0.0000 C   0  0  0  0  0  0  0  0  0  0  0  0
    8.0622   -0.0950    0.0000 C   0  0  0  0  0  0  0  0  0  0  0  0
    3.7320    3.4050    0.0000 C   0  0  0  0  0  0  0  0  0  0  0  0
    8.0622   -1.0950    0.0000 C   0  0  0  0  0  0  0  0  0  0  0  0
    3.7320    4.4050    0.0000 C   0  0  0  0  0  0  0  0  0  0  0  0
    2.8660    2.9050    0.0000 C   0  0  0  0  0  0  0  0  0  0  0  0
    8.9282   -1.5950    0.0000 C   0  0  0  0  0  0  0  0  0  0  0  0
    2.8660    4.9050    0.0000 C   0  0  0  0  0  0  0  0  0  0  0  0
    2.0000    3.4050    0.0000 C   0  0  0  0  0  0  0  0  0  0  0  0
    2.0000    4.4050    0.0000 C   0  0  0  0  0  0  0  0  0  0  0  0
    9.7942   -3.0950    0.0000 C   0  0  0  0  0  0  0  0  0  0  0  0
    4.5981    5.9050    0.0000 C   0  0  0  0  0  0  0  0  0  0  0  0
   10.6603   -4.5950    0.0000 C   0  0  0  0  0  0  0  0  0  0  0  0
   11.5263   -3.0950    0.0000 C   0  0  0  0  0  0  0  0  0  0  0  0
    5.0656    0.9301    0.0000 H   0  0  0  0  0  0  0  0  0  0  0  0
    5.8626    0.9301    0.0000 H   0  0  0  0  0  0  0  0  0  0  0  0
    6.9407    2.7973    0.0000 H   0  0  0  0  0  0  0  0  0  0  0  0
    6.5422    3.4876    0.0000 H   0  0  0  0  0  0  0  0  0  0  0  0
    3.9875    2.0127    0.0000 H   0  0  0  0  0  0  0  0  0  0  0  0
    4.3860    1.3224    0.0000 H   0  0  0  0  0  0  0  0  0  0  0  0
    5.8626    3.8800    0.0000 H   0  0  0  0  0  0  0  0  0  0  0  0
    5.0656    3.8800    0.0000 H   0  0  0  0  0  0  0  0  0  0  0  0
    7.8067    1.2973    0.0000 H   0  0  0  0  0  0  0  0  0  0  0  0
    7.4082    1.9876    0.0000 H   0  0  0  0  0  0  0  0  0  0  0  0
    6.5856    0.5127    0.0000 H   0  0  0  0  0  0  0  0  0  0  0  0
    6.9841   -0.1776    0.0000 H   0  0  0  0  0  0  0  0  0  0  0  0
    8.6728   -0.2027    0.0000 H   0  0  0  0  0  0  0  0  0  0  0  0
    8.2742    0.4876    0.0000 H   0  0  0  0  0  0  0  0  0  0  0  0
    7.4516   -0.9873    0.0000 H   0  0  0  0  0  0  0  0  0  0  0  0
    7.8501   -1.6776    0.0000 H   0  0  0  0  0  0  0  0  0  0  0  0
    9.5388   -1.7027    0.0000 H   0  0  0  0  0  0  0  0  0  0  0  0
    9.1403   -1.0124    0.0000 H   0  0  0  0  0  0  0  0  0  0  0  0
    2.8660    2.2850    0.0000 H   0  0  0  0  0  0  0  0  0  0  0  0
    2.8660    5.5250    0.0000 H   0  0  0  0  0  0  0  0  0  0  0  0
    1.4631    3.0950    0.0000 H   0  0  0  0  0  0  0  0  0  0  0  0
    8.3913   -2.9050    0.0000 H   0  0  0  0  0  0  0  0  0  0  0  0
    1.4631    4.7150    0.0000 H   0  0  0  0  0  0  0  0  0  0  0  0
    5.2181    5.9050    0.0000 H   0  0  0  0  0  0  0  0  0  0  0  0
    4.5981    6.5250    0.0000 H   0  0  0  0  0  0  0  0  0  0  0  0
    3.9781    5.9050    0.0000 H   0  0  0  0  0  0  0  0  0  0  0  0
   11.1972   -5.9050    0.0000 H   0  0  0  0  0  0  0  0  0  0  0  0
   10.1233   -5.9050    0.0000 H   0  0  0  0  0  0  0  0  0  0  0  0
   12.9292   -2.9050    0.0000 H   0  0  0  0  0  0  0  0  0  0  0  0
   12.3923   -1.9750    0.0000 H   0  0  0  0  0  0  0  0  0  0  0  0
  1 19  1  0  0  0  0
  1 26  1  0  0  0  0
  2 10  1  0  0  0  0
  2 11  1  0  0  0  0
  2 14  1  0  0  0  0
  3 12  1  0  0  0  0
  3 13  1  0  0  0  0
  3 17  1  0  0  0  0
  4 21  1  0  0  0  0
  4 25  1  0  0  0  0
  4 50  1  0  0  0  0
  5 25  2  0  0  0  0
  5 27  1  0  0  0  0
  6 25  1  0  0  0  0
  6 28  2  0  0  0  0
  7 27  2  0  0  0  0
  7 28  1  0  0  0  0
  8 27  1  0  0  0  0
  8 55  1  0  0  0  0
  8 56  1  0  0  0  0
  9 28  1  0  0  0  0
  9 57  1  0  0  0  0
  9 58  1  0  0  0  0
 10 12  1  0  0  0  0
 10 29  1  0  0  0  0
 10 30  1  0  0  0  0
 11 13  1  0  0  0  0
 11 31  1  0  0  0  0
 11 32  1  0  0  0  0
 12 33  1  0  0  0  0
 12 34  1  0  0  0  0
 13 35  1  0  0  0  0
 13 36  1  0  0  0  0
 14 15  1  0  0  0  0
 14 37  1  0  0  0  0
 14 38  1  0  0  0  0
 15 16  1  0  0  0  0
 15 39  1  0  0  0  0
 15 40  1  0  0  0  0
 16 18  1  0  0  0  0
 16 41  1  0  0  0  0
 16 42  1  0  0  0  0
 17 19  1  0  0  0  0
 17 20  2  0  0  0  0
 18 21  1  0  0  0  0
 18 43  1  0  0  0  0
 18 44  1  0  0  0  0
 19 22  2  0  0  0  0
 20 23  1  0  0  0  0
 20 47  1  0  0  0  0
 21 45  1  0  0  0  0
 21 46  1  0  0  0  0
 22 24  1  0  0  0  0
 22 48  1  0  0  0  0
 23 24  2  0  0  0  0
 23 49  1  0  0  0  0
 24 51  1  0  0  0  0
 26 52  1  0  0  0  0
 26 53  1  0  0  0  0
 26 54  1  0  0  0  0
M  END
> <PUBCHEM_COMPOUND_CID>
168282733

> <PUBCHEM_COMPOUND_CANONICALIZED>
1

> <PUBCHEM_CACTVS_COMPLEXITY>
424

> <PUBCHEM_CACTVS_HBOND_ACCEPTOR>
9

> <PUBCHEM_CACTVS_HBOND_DONOR>
3

> <PUBCHEM_CACTVS_ROTATABLE_BOND>
9

> <PUBCHEM_CACTVS_SUBSKEYS>
AAADceB74AAAAAAAAAAAAAAAAAAAAAAAAAA8WIAAAAAAAAABwAAAHgAQAAAACAzBkAYz1ofIFACgACRCZACCCAkhIoAJiIAPbIiObiLEuZuVMChs0BPY6AeQQAAAAAAAAAAAEAAAAAAAAAAgAAAAAAAAAA==

> <PUBCHEM_IUPAC_OPENEYE_NAME>
N2-[5-[4-(2-methoxyphenyl)piperazin-1-yl]pentyl]-1,3,5-triazine-2,4,6-triamine

> <PUBCHEM_IUPAC_CAS_NAME>
N2-[5-[4-(2-methoxyphenyl)-1-piperazinyl]pentyl]-1,3,5-triazine-2,4,6-triamine

> <PUBCHEM_IUPAC_NAME_MARKUP>
2-<I>N</I>-[5-[4-(2-methoxyphenyl)piperazin-1-yl]pentyl]-1,3,5-triazine-2,4,6-triamine

> <PUBCHEM_IUPAC_NAME>
2-N-[5-[4-(2-methoxyphenyl)piperazin-1-yl]pentyl]-1,3,5-triazine-2,4,6-triamine

> <PUBCHEM_IUPAC_SYSTEMATIC_NAME>
N2-[5-[4-(2-methoxyphenyl)piperazin-1-yl]pentyl]-1,3,5-triazine-2,4,6-triamine

> <PUBCHEM_IUPAC_TRADITIONAL_NAME>
(4,6-diamino-s-triazin-2-yl)-[5-[4-(2-methoxyphenyl)piperazino]pentyl]amine

> <PUBCHEM_IUPAC_INCHI>
InChI=1S/C19H30N8O/c1-28-16-8-4-3-7-15(16)27-13-11-26(12-14-27)10-6-2-5-9-22-19-24-17(20)23-18(21)25-19/h3-4,7-8H,2,5-6,9-14H2,1H3,(H5,20,21,22,23,24,25)

> <PUBCHEM_IUPAC_INCHIKEY>
QWZAQKYTKIEATF-UHFFFAOYSA-N

> <PUBCHEM_XLOGP3_AA>
2.3

> <PUBCHEM_EXACT_MASS>
386.25425761

> <PUBCHEM_MOLECULAR_FORMULA>
C19H30N8O

> <PUBCHEM_MOLECULAR_WEIGHT>
386.5

> <PUBCHEM_OPENEYE_CAN_SMILES>
COC1=CC=CC=C1N2CCN(CC2)CCCCCNC3=NC(=NC(=N3)N)N

> <PUBCHEM_OPENEYE_ISO_SMILES>
COC1=CC=CC=C1N2CCN(CC2)CCCCCNC3=NC(=NC(=N3)N)N

> <PUBCHEM_CACTVS_TPSA>
118

> <PUBCHEM_MONOISOTOPIC_WEIGHT>
386.25425761

> <PUBCHEM_TOTAL_CHARGE>
0

> <PUBCHEM_HEAVY_ATOM_COUNT>
28

> <PUBCHEM_ATOM_DEF_STEREO_COUNT>
0

> <PUBCHEM_ATOM_UDEF_STEREO_COUNT>
0

> <PUBCHEM_BOND_DEF_STEREO_COUNT>
0

> <PUBCHEM_BOND_UDEF_STEREO_COUNT>
0

> <PUBCHEM_ISOTOPIC_ATOM_COUNT>
0

> <PUBCHEM_COMPONENT_COUNT>
1

> <PUBCHEM_CACTVS_TAUTO_COUNT>
-1

> <PUBCHEM_COORDINATE_TYPE>
1
5
255

> <PUBCHEM_BONDANNOTATIONS>
17  19  8
17  20  8
19  22  8
20  23  8
22  24  8
23  24  8
5  25  8
5  27  8
6  25  8
6  28  8
7  27  8
7  28  8

$$$$
