168296891
  -OEChem-09292322452D

 68 72  0     0  0  0  0  0  0999 V2000
    4.3211   -0.1233    0.0000 O   0  0  0  0  0  0  0  0  0  0  0  0
   12.7705    3.4275    0.0000 O   0  0  0  0  0  0  0  0  0  0  0  0
   10.1921    1.1141    0.0000 N   0  0  0  0  0  0  0  0  0  0  0  0
    7.9244   -0.2489    0.0000 N   0  0  0  0  0  0  0  0  0  0  0  0
   12.1491    1.5265    0.0000 N   0  0  0  0  0  0  0  0  0  0  0  0
    5.9674   -0.6613    0.0000 N   0  0  0  0  0  0  0  0  0  0  0  0
    5.2619   -2.6228    0.0000 N   0  0  0  0  0  0  0  0  0  0  0  0
    4.6783   -3.4275    0.0000 N   0  0  0  0  0  0  0  0  0  0  0  0
    9.2136    0.9078    0.0000 C   0  0  0  0  0  0  0  0  0  0  0  0
    8.9030   -0.0427    0.0000 C   0  0  0  0  0  0  0  0  0  0  0  0
   10.8600    0.3698    0.0000 C   0  0  0  0  0  0  0  0  0  0  0  0
   10.5028    2.0646    0.0000 C   0  0  0  0  0  0  0  0  0  0  0  0
    7.6138   -1.1994    0.0000 C   0  0  0  0  0  0  0  0  0  0  0  0
    7.2566    0.4954    0.0000 C   0  0  0  0  0  0  0  0  0  0  0  0
   11.8385    0.5760    0.0000 C   0  0  0  0  0  0  0  0  0  0  0  0
   11.4813    2.2708    0.0000 C   0  0  0  0  0  0  0  0  0  0  0  0
    6.6353   -1.4056    0.0000 C   0  0  0  0  0  0  0  0  0  0  0  0
    6.2781    0.2892    0.0000 C   0  0  0  0  0  0  0  0  0  0  0  0
   13.1276    1.7327    0.0000 C   0  0  0  0  0  0  0  0  0  0  0  0
    4.9889   -0.8676    0.0000 C   0  0  0  0  0  0  0  0  0  0  0  0
    4.6783   -1.8181    0.0000 C   0  0  0  0  0  0  0  0  0  0  0  0
   13.4383    2.6832    0.0000 C   0  0  0  0  0  0  0  0  0  0  0  0
   13.7955    0.9884    0.0000 C   0  0  0  0  0  0  0  0  0  0  0  0
    3.7320   -2.1228    0.0000 C   0  0  0  0  0  0  0  0  0  0  0  0
    3.7320   -3.1228    0.0000 C   0  0  0  0  0  0  0  0  0  0  0  0
   14.4168    2.8895    0.0000 C   0  0  0  0  0  0  0  0  0  0  0  0
   14.7740    1.1946    0.0000 C   0  0  0  0  0  0  0  0  0  0  0  0
   15.0847    2.1452    0.0000 C   0  0  0  0  0  0  0  0  0  0  0  0
    2.8660   -1.6228    0.0000 C   0  0  0  0  0  0  0  0  0  0  0  0
    2.8660   -3.6228    0.0000 C   0  0  0  0  0  0  0  0  0  0  0  0
    4.9889   -4.3781    0.0000 C   0  0  0  0  0  0  0  0  0  0  0  0
    2.0000   -2.1228    0.0000 C   0  0  0  0  0  0  0  0  0  0  0  0
    2.0000   -3.1228    0.0000 C   0  0  0  0  0  0  0  0  0  0  0  0
   13.0811    4.3781    0.0000 C   0  0  0  0  0  0  0  0  0  0  0  0
    9.1930    1.5275    0.0000 H   0  0  0  0  0  0  0  0  0  0  0  0
    8.5998    0.9952    0.0000 H   0  0  0  0  0  0  0  0  0  0  0  0
    8.9235   -0.6623    0.0000 H   0  0  0  0  0  0  0  0  0  0  0  0
    9.5168   -0.1300    0.0000 H   0  0  0  0  0  0  0  0  0  0  0  0
   10.3336    0.0421    0.0000 H   0  0  0  0  0  0  0  0  0  0  0  0
   11.0912   -0.2055    0.0000 H   0  0  0  0  0  0  0  0  0  0  0  0
   10.4822    2.6842    0.0000 H   0  0  0  0  0  0  0  0  0  0  0  0
    9.8890    2.1519    0.0000 H   0  0  0  0  0  0  0  0  0  0  0  0
    7.6344   -1.8191    0.0000 H   0  0  0  0  0  0  0  0  0  0  0  0
    8.2276   -1.2868    0.0000 H   0  0  0  0  0  0  0  0  0  0  0  0
    7.7830    0.8230    0.0000 H   0  0  0  0  0  0  0  0  0  0  0  0
    7.0254    1.0707    0.0000 H   0  0  0  0  0  0  0  0  0  0  0  0
   11.8590   -0.0437    0.0000 H   0  0  0  0  0  0  0  0  0  0  0  0
   12.4523    0.4886    0.0000 H   0  0  0  0  0  0  0  0  0  0  0  0
   12.0077    2.5984    0.0000 H   0  0  0  0  0  0  0  0  0  0  0  0
   11.2500    2.8460    0.0000 H   0  0  0  0  0  0  0  0  0  0  0  0
    6.1089   -1.7333    0.0000 H   0  0  0  0  0  0  0  0  0  0  0  0
    6.8665   -1.9809    0.0000 H   0  0  0  0  0  0  0  0  0  0  0  0
    6.2575    0.9088    0.0000 H   0  0  0  0  0  0  0  0  0  0  0  0
    5.6643    0.3765    0.0000 H   0  0  0  0  0  0  0  0  0  0  0  0
   13.6029    0.3991    0.0000 H   0  0  0  0  0  0  0  0  0  0  0  0
   14.6094    3.4788    0.0000 H   0  0  0  0  0  0  0  0  0  0  0  0
   15.1881    0.7332    0.0000 H   0  0  0  0  0  0  0  0  0  0  0  0
   15.6913    2.2730    0.0000 H   0  0  0  0  0  0  0  0  0  0  0  0
    2.8660   -1.0028    0.0000 H   0  0  0  0  0  0  0  0  0  0  0  0
    2.8660   -4.2428    0.0000 H   0  0  0  0  0  0  0  0  0  0  0  0
    4.3996   -4.5707    0.0000 H   0  0  0  0  0  0  0  0  0  0  0  0
    5.1815   -4.9674    0.0000 H   0  0  0  0  0  0  0  0  0  0  0  0
    5.5783   -4.1854    0.0000 H   0  0  0  0  0  0  0  0  0  0  0  0
    1.4631   -1.8128    0.0000 H   0  0  0  0  0  0  0  0  0  0  0  0
    1.4631   -3.4328    0.0000 H   0  0  0  0  0  0  0  0  0  0  0  0
   13.6704    4.1854    0.0000 H   0  0  0  0  0  0  0  0  0  0  0  0
   13.2737    4.9674    0.0000 H   0  0  0  0  0  0  0  0  0  0  0  0
   12.4918    4.5707    0.0000 H   0  0  0  0  0  0  0  0  0  0  0  0
  1 20  2  0  0  0  0
  2 22  1  0  0  0  0
  2 34  1  0  0  0  0
  3  9  1  0  0  0  0
  3 11  1  0  0  0  0
  3 12  1  0  0  0  0
  4 10  1  0  0  0  0
  4 13  1  0  0  0  0
  4 14  1  0  0  0  0
  5 15  1  0  0  0  0
  5 16  1  0  0  0  0
  5 19  1  0  0  0  0
  6 17  1  0  0  0  0
  6 18  1  0  0  0  0
  6 20  1  0  0  0  0
  7  8  1  0  0  0  0
  7 21  2  0  0  0  0
  8 25  1  0  0  0  0
  8 31  1  0  0  0  0
  9 10  1  0  0  0  0
  9 35  1  0  0  0  0
  9 36  1  0  0  0  0
 10 37  1  0  0  0  0
 10 38  1  0  0  0  0
 11 15  1  0  0  0  0
 11 39  1  0  0  0  0
 11 40  1  0  0  0  0
 12 16  1  0  0  0  0
 12 41  1  0  0  0  0
 12 42  1  0  0  0  0
 13 17  1  0  0  0  0
 13 43  1  0  0  0  0
 13 44  1  0  0  0  0
 14 18  1  0  0  0  0
 14 45  1  0  0  0  0
 14 46  1  0  0  0  0
 15 47  1  0  0  0  0
 15 48  1  0  0  0  0
 16 49  1  0  0  0  0
 16 50  1  0  0  0  0
 17 51  1  0  0  0  0
 17 52  1  0  0  0  0
 18 53  1  0  0  0  0
 18 54  1  0  0  0  0
 19 22  1  0  0  0  0
 19 23  2  0  0  0  0
 20 21  1  0  0  0  0
 21 24  1  0  0  0  0
 22 26  2  0  0  0  0
 23 27  1  0  0  0  0
 23 55  1  0  0  0  0
 24 25  1  0  0  0  0
 24 29  2  0  0  0  0
 25 30  2  0  0  0  0
 26 28  1  0  0  0  0
 26 56  1  0  0  0  0
 27 28  2  0  0  0  0
 27 57  1  0  0  0  0
 28 58  1  0  0  0  0
 29 32  1  0  0  0  0
 29 59  1  0  0  0  0
 30 33  1  0  0  0  0
 30 60  1  0  0  0  0
 31 61  1  0  0  0  0
 31 62  1  0  0  0  0
 31 63  1  0  0  0  0
 32 33  2  0  0  0  0
 32 64  1  0  0  0  0
 33 65  1  0  0  0  0
 34 66  1  0  0  0  0
 34 67  1  0  0  0  0
 34 68  1  0  0  0  0
M  END
> <PUBCHEM_COMPOUND_CID>
168296891

> <PUBCHEM_COMPOUND_CANONICALIZED>
1

> <PUBCHEM_CACTVS_COMPLEXITY>
664

> <PUBCHEM_CACTVS_HBOND_ACCEPTOR>
6

> <PUBCHEM_CACTVS_HBOND_DONOR>
0

> <PUBCHEM_CACTVS_ROTATABLE_BOND>
6

> <PUBCHEM_CACTVS_SUBSKEYS>
AAADcfB7sAAAAAAAAAAAAAAAAAAAAWAAAAA8eIEAAAAAAFgB9AAAHgAIAAAADAzBngYyxvMIBACqAyVyVACSDAAnogAY2CG/bNgOZrLE9duVtShkzhHY6QecyICOAAAAAAACEAAAAAAAAAQgAAAAAAAAAA==

> <PUBCHEM_IUPAC_OPENEYE_NAME>
[4-[2-[4-(2-methoxyphenyl)piperazin-1-yl]ethyl]piperazin-1-yl]-(1-methylindazol-3-yl)methanone

> <PUBCHEM_IUPAC_CAS_NAME>
[4-[2-[4-(2-methoxyphenyl)-1-piperazinyl]ethyl]-1-piperazinyl]-(1-methyl-3-indazolyl)methanone

> <PUBCHEM_IUPAC_NAME_MARKUP>
[4-[2-[4-(2-methoxyphenyl)piperazin-1-yl]ethyl]piperazin-1-yl]-(1-methylindazol-3-yl)methanone

> <PUBCHEM_IUPAC_NAME>
[4-[2-[4-(2-methoxyphenyl)piperazin-1-yl]ethyl]piperazin-1-yl]-(1-methylindazol-3-yl)methanone

> <PUBCHEM_IUPAC_SYSTEMATIC_NAME>
[4-[2-[4-(2-methoxyphenyl)piperazin-1-yl]ethyl]piperazin-1-yl]-(1-methylindazol-3-yl)methanone

> <PUBCHEM_IUPAC_TRADITIONAL_NAME>
[4-[2-[4-(2-methoxyphenyl)piperazino]ethyl]piperazino]-(1-methylindazol-3-yl)methanone

> <PUBCHEM_IUPAC_INCHI>
InChI=1S/C26H34N6O2/c1-28-22-8-4-3-7-21(22)25(27-28)26(33)32-19-15-30(16-20-32)12-11-29-13-17-31(18-14-29)23-9-5-6-10-24(23)34-2/h3-10H,11-20H2,1-2H3

> <PUBCHEM_IUPAC_INCHIKEY>
UDFSBKOWQSCWPJ-UHFFFAOYSA-N

> <PUBCHEM_XLOGP3_AA>
2.8

> <PUBCHEM_EXACT_MASS>
462.27432435

> <PUBCHEM_MOLECULAR_FORMULA>
C26H34N6O2

> <PUBCHEM_MOLECULAR_WEIGHT>
462.6

> <PUBCHEM_OPENEYE_CAN_SMILES>
CN1C2=CC=CC=C2C(=N1)C(=O)N3CCN(CC3)CCN4CCN(CC4)C5=CC=CC=C5OC

> <PUBCHEM_OPENEYE_ISO_SMILES>
CN1C2=CC=CC=C2C(=N1)C(=O)N3CCN(CC3)CCN4CCN(CC4)C5=CC=CC=C5OC

> <PUBCHEM_CACTVS_TPSA>
57.1

> <PUBCHEM_MONOISOTOPIC_WEIGHT>
462.27432435

> <PUBCHEM_TOTAL_CHARGE>
0

> <PUBCHEM_HEAVY_ATOM_COUNT>
34

> <PUBCHEM_ATOM_DEF_STEREO_COUNT>
0

> <PUBCHEM_ATOM_UDEF_STEREO_COUNT>
0

> <PUBCHEM_BOND_DEF_STEREO_COUNT>
0

> <PUBCHEM_BOND_UDEF_STEREO_COUNT>
0

> <PUBCHEM_ISOTOPIC_ATOM_COUNT>
0

> <PUBCHEM_COMPONENT_COUNT>
1

> <PUBCHEM_CACTVS_TAUTO_COUNT>
-1

> <PUBCHEM_COORDINATE_TYPE>
1
5
255

> <PUBCHEM_BONDANNOTATIONS>
19  22  8
19  23  8
21  24  8
22  26  8
23  27  8
24  25  8
24  29  8
25  30  8
26  28  8
27  28  8
29  32  8
30  33  8
32  33  8
7  21  8
7  8  8
8  25  8

$$$$
