156018383
  -OEChem-09292322422D

 65 69  0     1  0  0  0  0  0999 V2000
    3.2870    0.7611    0.0000 Cl  0  0  0  0  0  0  0  0  0  0  0  0
   13.6122   -1.9567    0.0000 O   0  0  0  0  0  0  0  0  0  0  0  0
   12.4115    1.3421    0.0000 O   0  0  0  0  0  0  0  0  0  0  0  0
   12.7554   -0.4007    0.0000 N   0  0  0  0  0  0  0  0  0  0  0  0
    6.6985    0.1596    0.0000 N   0  0  0  0  0  0  0  0  0  0  0  0
    4.8191   -0.5244    0.0000 N   0  0  0  0  0  0  0  0  0  0  0  0
   15.7367    0.2447    0.0000 C   0  0  2  0  0  0  0  0  0  0  0  0
   15.9955    1.2107    0.0000 C   0  0  1  0  0  0  0  0  0  0  0  0
   14.3639   -0.3473    0.0000 C   0  0  2  0  0  0  0  0  0  0  0  0
   14.0219    0.5924    0.0000 C   0  0  1  0  0  0  0  0  0  0  0  0
   15.2589    2.1933    0.0000 C   0  0  0  0  0  0  0  0  0  0  0  0
   17.1356   -0.2641    0.0000 C   0  0  0  0  0  0  0  0  0  0  0  0
   17.3944    0.7018    0.0000 C   0  0  0  0  0  0  0  0  0  0  0  0
   13.5790   -0.9573    0.0000 C   0  0  0  0  0  0  0  0  0  0  0  0
   13.0285    0.5551    0.0000 C   0  0  0  0  0  0  0  0  0  0  0  0
   11.8157   -0.7427    0.0000 C   0  0  0  0  0  0  0  0  0  0  0  0
   11.0496   -0.0999    0.0000 C   0  0  0  0  0  0  0  0  0  0  0  0
   10.1099   -0.4419    0.0000 C   0  0  0  0  0  0  0  0  0  0  0  0
    9.3439    0.2009    0.0000 C   0  0  0  0  0  0  0  0  0  0  0  0
    8.4042   -0.1412    0.0000 C   0  0  0  0  0  0  0  0  0  0  0  0
    7.6382    0.5016    0.0000 C   0  0  0  0  0  0  0  0  0  0  0  0
    5.9324    0.8024    0.0000 C   0  0  0  0  0  0  0  0  0  0  0  0
    6.5248   -0.8252    0.0000 C   0  0  0  0  0  0  0  0  0  0  0  0
    4.9927    0.4604    0.0000 C   0  0  0  0  0  0  0  0  0  0  0  0
    5.5851   -1.1672    0.0000 C   0  0  0  0  0  0  0  0  0  0  0  0
    3.8794   -0.8664    0.0000 C   0  0  0  0  0  0  0  0  0  0  0  0
    3.1133   -0.2237    0.0000 C   0  0  0  0  0  0  0  0  0  0  0  0
    3.7057   -1.8513    0.0000 C   0  0  0  0  0  0  0  0  0  0  0  0
    2.1736   -0.5657    0.0000 C   0  0  0  0  0  0  0  0  0  0  0  0
    2.7660   -2.1933    0.0000 C   0  0  0  0  0  0  0  0  0  0  0  0
    2.0000   -1.5505    0.0000 C   0  0  0  0  0  0  0  0  0  0  0  0
   15.5167   -0.5763    0.0000 H   0  0  0  0  0  0  0  0  0  0  0  0
   16.2155    2.0317    0.0000 H   0  0  0  0  0  0  0  0  0  0  0  0
   14.6547   -1.1460    0.0000 H   0  0  0  0  0  0  0  0  0  0  0  0
   13.7312    1.3912    0.0000 H   0  0  0  0  0  0  0  0  0  0  0  0
   15.5767    2.7256    0.0000 H   0  0  0  0  0  0  0  0  0  0  0  0
   14.6457    2.2852    0.0000 H   0  0  0  0  0  0  0  0  0  0  0  0
   16.9407   -0.8526    0.0000 H   0  0  0  0  0  0  0  0  0  0  0  0
   17.7296   -0.4419    0.0000 H   0  0  0  0  0  0  0  0  0  0  0  0
   17.9884    0.5241    0.0000 H   0  0  0  0  0  0  0  0  0  0  0  0
   17.5893    1.2904    0.0000 H   0  0  0  0  0  0  0  0  0  0  0  0
   11.3407   -1.1412    0.0000 H   0  0  0  0  0  0  0  0  0  0  0  0
   12.1257   -1.2796    0.0000 H   0  0  0  0  0  0  0  0  0  0  0  0
   11.5246    0.2986    0.0000 H   0  0  0  0  0  0  0  0  0  0  0  0
   10.7396    0.4370    0.0000 H   0  0  0  0  0  0  0  0  0  0  0  0
    9.6350   -0.8405    0.0000 H   0  0  0  0  0  0  0  0  0  0  0  0
   10.4199   -0.9789    0.0000 H   0  0  0  0  0  0  0  0  0  0  0  0
    9.8188    0.5994    0.0000 H   0  0  0  0  0  0  0  0  0  0  0  0
    9.0339    0.7378    0.0000 H   0  0  0  0  0  0  0  0  0  0  0  0
    7.9292   -0.5397    0.0000 H   0  0  0  0  0  0  0  0  0  0  0  0
    8.7142   -0.6781    0.0000 H   0  0  0  0  0  0  0  0  0  0  0  0
    8.1131    0.9002    0.0000 H   0  0  0  0  0  0  0  0  0  0  0  0
    7.3282    1.0386    0.0000 H   0  0  0  0  0  0  0  0  0  0  0  0
    6.4074    1.2009    0.0000 H   0  0  0  0  0  0  0  0  0  0  0  0
    5.6224    1.3393    0.0000 H   0  0  0  0  0  0  0  0  0  0  0  0
    6.6325   -1.4358    0.0000 H   0  0  0  0  0  0  0  0  0  0  0  0
    7.1448   -0.8252    0.0000 H   0  0  0  0  0  0  0  0  0  0  0  0
    4.8851    1.0710    0.0000 H   0  0  0  0  0  0  0  0  0  0  0  0
    4.3727    0.4604    0.0000 H   0  0  0  0  0  0  0  0  0  0  0  0
    5.1102   -1.5657    0.0000 H   0  0  0  0  0  0  0  0  0  0  0  0
    5.8951   -1.7042    0.0000 H   0  0  0  0  0  0  0  0  0  0  0  0
    4.1807   -2.2498    0.0000 H   0  0  0  0  0  0  0  0  0  0  0  0
    1.6987   -0.1672    0.0000 H   0  0  0  0  0  0  0  0  0  0  0  0
    2.6584   -2.8039    0.0000 H   0  0  0  0  0  0  0  0  0  0  0  0
    1.4174   -1.7625    0.0000 H   0  0  0  0  0  0  0  0  0  0  0  0
  1 27  1  0  0  0  0
  2 14  2  0  0  0  0
  3 15  2  0  0  0  0
  4 14  1  0  0  0  0
  4 15  1  0  0  0  0
  4 16  1  0  0  0  0
  5 21  1  0  0  0  0
  5 22  1  0  0  0  0
  5 23  1  0  0  0  0
  6 24  1  0  0  0  0
  6 25  1  0  0  0  0
  6 26  1  0  0  0  0
  7  9  1  0  0  0  0
  7 11  1  0  0  0  0
  7 12  1  0  0  0  0
  7 32  1  1  0  0  0
  8 10  1  0  0  0  0
  8 11  1  0  0  0  0
  8 13  1  0  0  0  0
  8 33  1  6  0  0  0
  9 10  1  0  0  0  0
  9 14  1  0  0  0  0
  9 34  1  6  0  0  0
 10 15  1  0  0  0  0
 10 35  1  6  0  0  0
 11 36  1  0  0  0  0
 11 37  1  0  0  0  0
 12 13  1  0  0  0  0
 12 38  1  0  0  0  0
 12 39  1  0  0  0  0
 13 40  1  0  0  0  0
 13 41  1  0  0  0  0
 16 17  1  0  0  0  0
 16 42  1  0  0  0  0
 16 43  1  0  0  0  0
 17 18  1  0  0  0  0
 17 44  1  0  0  0  0
 17 45  1  0  0  0  0
 18 19  1  0  0  0  0
 18 46  1  0  0  0  0
 18 47  1  0  0  0  0
 19 20  1  0  0  0  0
 19 48  1  0  0  0  0
 19 49  1  0  0  0  0
 20 21  1  0  0  0  0
 20 50  1  0  0  0  0
 20 51  1  0  0  0  0
 21 52  1  0  0  0  0
 21 53  1  0  0  0  0
 22 24  1  0  0  0  0
 22 54  1  0  0  0  0
 22 55  1  0  0  0  0
 23 25  1  0  0  0  0
 23 56  1  0  0  0  0
 23 57  1  0  0  0  0
 24 58  1  0  0  0  0
 24 59  1  0  0  0  0
 25 60  1  0  0  0  0
 25 61  1  0  0  0  0
 26 27  1  0  0  0  0
 26 28  2  0  0  0  0
 27 29  2  0  0  0  0
 28 30  1  0  0  0  0
 28 62  1  0  0  0  0
 29 31  1  0  0  0  0
 29 63  1  0  0  0  0
 30 31  2  0  0  0  0
 30 64  1  0  0  0  0
 31 65  1  0  0  0  0
M  END
> <PUBCHEM_COMPOUND_CID>
156018383

> <PUBCHEM_COMPOUND_CANONICALIZED>
1

> <PUBCHEM_CACTVS_COMPLEXITY>
637

> <PUBCHEM_CACTVS_HBOND_ACCEPTOR>
4

> <PUBCHEM_CACTVS_HBOND_DONOR>
0

> <PUBCHEM_CACTVS_ROTATABLE_BOND>
8

> <PUBCHEM_CACTVS_SUBSKEYS>
AAADcfB7MAAEAAAAAAAAAAAAAAAAAeMEAAA8YIAAAAAWAAABAAAAHgIAAAAADQrBkCQwwIMAAACIACVSUACCAAAhBwAIiAEIZogIYDLBk5HUIAhghiDIyAcdiMCOgAAAAAAAABAAAAQAACAAIQAACAAAAA==

> <PUBCHEM_IUPAC_OPENEYE_NAME>
(1S,2R,6S,7R)-4-[6-[4-(2-chlorophenyl)piperazin-1-yl]hexyl]-4-azatricyclo[5.2.1.02,6]decane-3,5-dione

> <PUBCHEM_IUPAC_CAS_NAME>
(1S,2R,6S,7R)-4-[6-[4-(2-chlorophenyl)-1-piperazinyl]hexyl]-4-azatricyclo[5.2.1.02,6]decane-3,5-dione

> <PUBCHEM_IUPAC_NAME_MARKUP>
(1<I>S</I>,2<I>R</I>,6<I>S</I>,7<I>R</I>)-4-[6-[4-(2-chlorophenyl)piperazin-1-yl]hexyl]-4-azatricyclo[5.2.1.0<SUP>2,6</SUP>]decane-3,5-dione

> <PUBCHEM_IUPAC_NAME>
(1S,2R,6S,7R)-4-[6-[4-(2-chlorophenyl)piperazin-1-yl]hexyl]-4-azatricyclo[5.2.1.02,6]decane-3,5-dione

> <PUBCHEM_IUPAC_SYSTEMATIC_NAME>
(1S,2R,6S,7R)-4-[6-[4-(2-chlorophenyl)piperazin-1-yl]hexyl]-4-azatricyclo[5.2.1.02,6]decane-3,5-dione

> <PUBCHEM_IUPAC_TRADITIONAL_NAME>
(1S,2R,6S,7R)-4-[6-[4-(2-chlorophenyl)piperazino]hexyl]-4-azatricyclo[5.2.1.02,6]decane-3,5-quinone

> <PUBCHEM_IUPAC_INCHI>
InChI=1S/C25H34ClN3O2/c26-20-7-3-4-8-21(20)28-15-13-27(14-16-28)11-5-1-2-6-12-29-24(30)22-18-9-10-19(17-18)23(22)25(29)31/h3-4,7-8,18-19,22-23H,1-2,5-6,9-17H2/t18-,19+,22+,23-

> <PUBCHEM_IUPAC_INCHIKEY>
LRGSUAGMMWSFMF-ZIIYYELXSA-N

> <PUBCHEM_XLOGP3_AA>
4.6

> <PUBCHEM_EXACT_MASS>
443.2339550

> <PUBCHEM_MOLECULAR_FORMULA>
C25H34ClN3O2

> <PUBCHEM_MOLECULAR_WEIGHT>
444.0

> <PUBCHEM_OPENEYE_CAN_SMILES>
C1CC2CC1C3C2C(=O)N(C3=O)CCCCCCN4CCN(CC4)C5=CC=CC=C5Cl

> <PUBCHEM_OPENEYE_ISO_SMILES>
C1C[C@H]2C[C@@H]1[C@H]3[C@@H]2C(=O)N(C3=O)CCCCCCN4CCN(CC4)C5=CC=CC=C5Cl

> <PUBCHEM_CACTVS_TPSA>
43.9

> <PUBCHEM_MONOISOTOPIC_WEIGHT>
443.2339550

> <PUBCHEM_TOTAL_CHARGE>
0

> <PUBCHEM_HEAVY_ATOM_COUNT>
31

> <PUBCHEM_ATOM_DEF_STEREO_COUNT>
4

> <PUBCHEM_ATOM_UDEF_STEREO_COUNT>
0

> <PUBCHEM_BOND_DEF_STEREO_COUNT>
0

> <PUBCHEM_BOND_UDEF_STEREO_COUNT>
0

> <PUBCHEM_ISOTOPIC_ATOM_COUNT>
0

> <PUBCHEM_COMPONENT_COUNT>
1

> <PUBCHEM_CACTVS_TAUTO_COUNT>
-1

> <PUBCHEM_COORDINATE_TYPE>
1
5
255

> <PUBCHEM_BONDANNOTATIONS>
10  35  6
26  27  8
26  28  8
27  29  8
28  30  8
29  31  8
30  31  8
7  32  5
8  33  6
9  34  6

$$$$
