155562681
  -OEChem-09292322402D

 63 66  0     0  0  0  0  0  0999 V2000
    5.8301    8.0194    0.0000 S   0  0  0  0  0  0  0  0  0  0  0  0
    2.0000   -7.0194    0.0000 O   0  0  0  0  0  0  0  0  0  0  0  0
    7.1962    1.9806    0.0000 O   0  0  0  0  0  0  0  0  0  0  0  0
    3.7320   -2.0194    0.0000 N   0  0  0  0  0  0  0  0  0  0  0  0
    3.7320   -4.0194    0.0000 N   0  0  0  0  0  0  0  0  0  0  0  0
    5.4641    1.9806    0.0000 N   0  0  0  0  0  0  0  0  0  0  0  0
    4.5981   -2.5194    0.0000 C   0  0  0  0  0  0  0  0  0  0  0  0
    2.8660   -2.5194    0.0000 C   0  0  0  0  0  0  0  0  0  0  0  0
    4.5981   -3.5194    0.0000 C   0  0  0  0  0  0  0  0  0  0  0  0
    2.8660   -3.5194    0.0000 C   0  0  0  0  0  0  0  0  0  0  0  0
    3.7320   -1.0194    0.0000 C   0  0  0  0  0  0  0  0  0  0  0  0
    4.5981   -0.5194    0.0000 C   0  0  0  0  0  0  0  0  0  0  0  0
    3.7320   -5.0194    0.0000 C   0  0  0  0  0  0  0  0  0  0  0  0
    4.5981    0.4806    0.0000 C   0  0  0  0  0  0  0  0  0  0  0  0
    5.4641    0.9806    0.0000 C   0  0  0  0  0  0  0  0  0  0  0  0
    2.8660   -5.5194    0.0000 C   0  0  0  0  0  0  0  0  0  0  0  0
    4.5981   -5.5194    0.0000 C   0  0  0  0  0  0  0  0  0  0  0  0
    2.8660   -6.5194    0.0000 C   0  0  0  0  0  0  0  0  0  0  0  0
    4.5981   -6.5194    0.0000 C   0  0  0  0  0  0  0  0  0  0  0  0
    3.7320   -7.0194    0.0000 C   0  0  0  0  0  0  0  0  0  0  0  0
    6.3301    2.4806    0.0000 C   0  0  0  0  0  0  0  0  0  0  0  0
    6.3301    3.4806    0.0000 C   0  0  0  0  0  0  0  0  0  0  0  0
    7.1962    3.9806    0.0000 C   0  0  0  0  0  0  0  0  0  0  0  0
    5.4641    3.9806    0.0000 C   0  0  0  0  0  0  0  0  0  0  0  0
    2.0000   -8.0194    0.0000 C   0  0  0  0  0  0  0  0  0  0  0  0
    6.3301    5.4806    0.0000 C   0  0  0  0  0  0  0  0  0  0  0  0
    7.1962    4.9806    0.0000 C   0  0  0  0  0  0  0  0  0  0  0  0
    5.4641    4.9806    0.0000 C   0  0  0  0  0  0  0  0  0  0  0  0
    6.3301    6.4806    0.0000 C   0  0  0  0  0  0  0  0  0  0  0  0
    7.1391    7.0684    0.0000 C   0  0  0  0  0  0  0  0  0  0  0  0
    5.5211    7.0684    0.0000 C   0  0  0  0  0  0  0  0  0  0  0  0
    6.8301    8.0194    0.0000 C   0  0  0  0  0  0  0  0  0  0  0  0
    5.2087   -2.6271    0.0000 H   0  0  0  0  0  0  0  0  0  0  0  0
    4.8101   -1.9368    0.0000 H   0  0  0  0  0  0  0  0  0  0  0  0
    2.6540   -1.9368    0.0000 H   0  0  0  0  0  0  0  0  0  0  0  0
    2.2554   -2.6271    0.0000 H   0  0  0  0  0  0  0  0  0  0  0  0
    4.8101   -4.1020    0.0000 H   0  0  0  0  0  0  0  0  0  0  0  0
    5.2087   -3.4118    0.0000 H   0  0  0  0  0  0  0  0  0  0  0  0
    2.2554   -3.4118    0.0000 H   0  0  0  0  0  0  0  0  0  0  0  0
    2.6540   -4.1020    0.0000 H   0  0  0  0  0  0  0  0  0  0  0  0
    3.5200   -0.4368    0.0000 H   0  0  0  0  0  0  0  0  0  0  0  0
    3.1215   -1.1271    0.0000 H   0  0  0  0  0  0  0  0  0  0  0  0
    4.8101   -1.1020    0.0000 H   0  0  0  0  0  0  0  0  0  0  0  0
    5.2087   -0.4118    0.0000 H   0  0  0  0  0  0  0  0  0  0  0  0
    4.3860    1.0632    0.0000 H   0  0  0  0  0  0  0  0  0  0  0  0
    3.9875    0.3729    0.0000 H   0  0  0  0  0  0  0  0  0  0  0  0
    5.6762    0.3980    0.0000 H   0  0  0  0  0  0  0  0  0  0  0  0
    6.0747    1.0882    0.0000 H   0  0  0  0  0  0  0  0  0  0  0  0
    2.3291   -5.2094    0.0000 H   0  0  0  0  0  0  0  0  0  0  0  0
    5.1350   -5.2094    0.0000 H   0  0  0  0  0  0  0  0  0  0  0  0
    4.9272    2.2906    0.0000 H   0  0  0  0  0  0  0  0  0  0  0  0
    5.1350   -6.8294    0.0000 H   0  0  0  0  0  0  0  0  0  0  0  0
    3.7320   -7.6394    0.0000 H   0  0  0  0  0  0  0  0  0  0  0  0
    7.7331    3.6706    0.0000 H   0  0  0  0  0  0  0  0  0  0  0  0
    4.9272    3.6706    0.0000 H   0  0  0  0  0  0  0  0  0  0  0  0
    1.3800   -8.0194    0.0000 H   0  0  0  0  0  0  0  0  0  0  0  0
    2.0000   -8.6394    0.0000 H   0  0  0  0  0  0  0  0  0  0  0  0
    2.6200   -8.0194    0.0000 H   0  0  0  0  0  0  0  0  0  0  0  0
    7.7331    5.2906    0.0000 H   0  0  0  0  0  0  0  0  0  0  0  0
    4.9272    5.2906    0.0000 H   0  0  0  0  0  0  0  0  0  0  0  0
    7.7288    6.8768    0.0000 H   0  0  0  0  0  0  0  0  0  0  0  0
    4.9315    6.8768    0.0000 H   0  0  0  0  0  0  0  0  0  0  0  0
    7.1946    8.5210    0.0000 H   0  0  0  0  0  0  0  0  0  0  0  0
  1 31  1  0  0  0  0
  1 32  1  0  0  0  0
  2 18  1  0  0  0  0
  2 25  1  0  0  0  0
  3 21  2  0  0  0  0
  4  7  1  0  0  0  0
  4  8  1  0  0  0  0
  4 11  1  0  0  0  0
  5  9  1  0  0  0  0
  5 10  1  0  0  0  0
  5 13  1  0  0  0  0
  6 15  1  0  0  0  0
  6 21  1  0  0  0  0
  6 51  1  0  0  0  0
  7  9  1  0  0  0  0
  7 33  1  0  0  0  0
  7 34  1  0  0  0  0
  8 10  1  0  0  0  0
  8 35  1  0  0  0  0
  8 36  1  0  0  0  0
  9 37  1  0  0  0  0
  9 38  1  0  0  0  0
 10 39  1  0  0  0  0
 10 40  1  0  0  0  0
 11 12  1  0  0  0  0
 11 41  1  0  0  0  0
 11 42  1  0  0  0  0
 12 14  1  0  0  0  0
 12 43  1  0  0  0  0
 12 44  1  0  0  0  0
 13 16  2  0  0  0  0
 13 17  1  0  0  0  0
 14 15  1  0  0  0  0
 14 45  1  0  0  0  0
 14 46  1  0  0  0  0
 15 47  1  0  0  0  0
 15 48  1  0  0  0  0
 16 18  1  0  0  0  0
 16 49  1  0  0  0  0
 17 19  2  0  0  0  0
 17 50  1  0  0  0  0
 18 20  2  0  0  0  0
 19 20  1  0  0  0  0
 19 52  1  0  0  0  0
 20 53  1  0  0  0  0
 21 22  1  0  0  0  0
 22 23  2  0  0  0  0
 22 24  1  0  0  0  0
 23 27  1  0  0  0  0
 23 54  1  0  0  0  0
 24 28  2  0  0  0  0
 24 55  1  0  0  0  0
 25 56  1  0  0  0  0
 25 57  1  0  0  0  0
 25 58  1  0  0  0  0
 26 27  2  0  0  0  0
 26 28  1  0  0  0  0
 26 29  1  0  0  0  0
 27 59  1  0  0  0  0
 28 60  1  0  0  0  0
 29 30  1  0  0  0  0
 29 31  2  0  0  0  0
 30 32  2  0  0  0  0
 30 61  1  0  0  0  0
 31 62  1  0  0  0  0
 32 63  1  0  0  0  0
M  END
> <PUBCHEM_COMPOUND_CID>
155562681

> <PUBCHEM_COMPOUND_CANONICALIZED>
1

> <PUBCHEM_CACTVS_COMPLEXITY>
561

> <PUBCHEM_CACTVS_HBOND_ACCEPTOR>
5

> <PUBCHEM_CACTVS_HBOND_DONOR>
1

> <PUBCHEM_CACTVS_ROTATABLE_BOND>
9

> <PUBCHEM_CACTVS_SUBSKEYS>
AAADceB7MABAAAAAAAAAAAAAAAAAASAAAAA8YIAAAAAAAAAB0AAAHgQQAAAADAzF2Aayx4PABAiMAiVSUACDCIAlKhBIiJkObMgMZjLktZuUMShm1hno6YeY2MOOwAAAAgAAAACAAAAEAAAAAAAAAAAAAA==

> <PUBCHEM_IUPAC_OPENEYE_NAME>
N-[4-[4-(3-methoxyphenyl)piperazin-1-yl]butyl]-4-(3-thienyl)benzamide

> <PUBCHEM_IUPAC_CAS_NAME>
N-[4-[4-(3-methoxyphenyl)-1-piperazinyl]butyl]-4-(3-thiophenyl)benzamide

> <PUBCHEM_IUPAC_NAME_MARKUP>
<I>N</I>-[4-[4-(3-methoxyphenyl)piperazin-1-yl]butyl]-4-thiophen-3-ylbenzamide

> <PUBCHEM_IUPAC_NAME>
N-[4-[4-(3-methoxyphenyl)piperazin-1-yl]butyl]-4-thiophen-3-ylbenzamide

> <PUBCHEM_IUPAC_SYSTEMATIC_NAME>
N-[4-[4-(3-methoxyphenyl)piperazin-1-yl]butyl]-4-thiophen-3-yl-benzamide

> <PUBCHEM_IUPAC_TRADITIONAL_NAME>
N-[4-[4-(3-methoxyphenyl)piperazino]butyl]-4-(3-thienyl)benzamide

> <PUBCHEM_IUPAC_INCHI>
InChI=1S/C26H31N3O2S/c1-31-25-6-4-5-24(19-25)29-16-14-28(15-17-29)13-3-2-12-27-26(30)22-9-7-21(8-10-22)23-11-18-32-20-23/h4-11,18-20H,2-3,12-17H2,1H3,(H,27,30)

> <PUBCHEM_IUPAC_INCHIKEY>
VMSBWTDRZMICFC-UHFFFAOYSA-N

> <PUBCHEM_XLOGP3_AA>
4.8

> <PUBCHEM_EXACT_MASS>
449.21369841

> <PUBCHEM_MOLECULAR_FORMULA>
C26H31N3O2S

> <PUBCHEM_MOLECULAR_WEIGHT>
449.6

> <PUBCHEM_OPENEYE_CAN_SMILES>
COC1=CC=CC(=C1)N2CCN(CC2)CCCCNC(=O)C3=CC=C(C=C3)C4=CSC=C4

> <PUBCHEM_OPENEYE_ISO_SMILES>
COC1=CC=CC(=C1)N2CCN(CC2)CCCCNC(=O)C3=CC=C(C=C3)C4=CSC=C4

> <PUBCHEM_CACTVS_TPSA>
73

> <PUBCHEM_MONOISOTOPIC_WEIGHT>
449.21369841

> <PUBCHEM_TOTAL_CHARGE>
0

> <PUBCHEM_HEAVY_ATOM_COUNT>
32

> <PUBCHEM_ATOM_DEF_STEREO_COUNT>
0

> <PUBCHEM_ATOM_UDEF_STEREO_COUNT>
0

> <PUBCHEM_BOND_DEF_STEREO_COUNT>
0

> <PUBCHEM_BOND_UDEF_STEREO_COUNT>
0

> <PUBCHEM_ISOTOPIC_ATOM_COUNT>
0

> <PUBCHEM_COMPONENT_COUNT>
1

> <PUBCHEM_CACTVS_TAUTO_COUNT>
-1

> <PUBCHEM_COORDINATE_TYPE>
1
5
255

> <PUBCHEM_BONDANNOTATIONS>
1  31  8
1  32  8
13  16  8
13  17  8
16  18  8
17  19  8
18  20  8
19  20  8
22  23  8
22  24  8
23  27  8
24  28  8
26  27  8
26  28  8
29  30  8
29  31  8
30  32  8

$$$$
