118736412
  -OEChem-09292322092D

113118  0     1  0  0  0  0  0999 V2000
   10.3894   -3.8083    0.0000 F   0  0  0  0  0  0  0  0  0  0  0  0
   11.3960   -5.5365    0.0000 F   0  0  0  0  0  0  0  0  0  0  0  0
    9.9622    6.8128    0.0000 O   0  0  0  0  0  0  0  0  0  0  0  0
   12.8172    0.9095    0.0000 O   0  0  0  0  0  0  0  0  0  0  0  0
   13.3760   -0.3327    0.0000 O   0  0  0  0  0  0  0  0  0  0  0  0
   14.3893   -3.7929    0.0000 O   0  0  0  0  0  0  0  0  0  0  0  0
   17.8860   -2.9134    0.0000 O   0  0  0  0  0  0  0  0  0  0  0  0
    6.9654    7.4602    0.0000 N   0  0  3  0  0  0  0  0  0  0  0  0
    4.5124    6.3428    0.0000 N   0  0  0  0  0  0  0  0  0  0  0  0
    9.6086    5.1172    0.0000 N   0  0  0  0  0  0  0  0  0  0  0  0
   14.4624    1.4511    0.0000 N   0  0  0  0  0  0  0  0  0  0  0  0
   14.8793   -1.1929    0.0000 N   0  0  0  0  0  0  0  0  0  0  0  0
   15.8860   -2.9211    0.0000 N   0  0  0  0  0  0  0  0  0  0  0  0
   17.8927   -4.6454    0.0000 N   0  0  0  0  0  0  0  0  0  0  0  0
   15.9060   -8.1172    0.0000 N   0  0  0  0  0  0  0  0  0  0  0  0
    6.2962    6.7171    0.0000 C   0  0  2  0  0  0  0  0  0  0  0  0
    6.6028    5.7216    0.0000 C   0  0  0  0  0  0  0  0  0  0  0  0
    8.3170    6.2712    0.0000 C   0  0  2  0  0  0  0  0  0  0  0  0
    7.9875    7.2594    0.0000 C   0  0  0  0  0  0  0  0  0  0  0  0
    7.6200    5.4972    0.0000 C   0  0  0  0  0  0  0  0  0  0  0  0
    5.3181    6.9250    0.0000 C   0  0  0  0  0  0  0  0  0  0  0  0
    6.6564    8.4113    0.0000 C   0  0  0  0  0  0  0  0  0  0  0  0
    5.0091    7.8760    0.0000 C   0  0  0  0  0  0  0  0  0  0  0  0
    5.6782    8.6192    0.0000 C   0  0  0  0  0  0  0  0  0  0  0  0
    4.0150    7.8734    0.0000 C   0  0  0  0  0  0  0  0  0  0  0  0
    9.2959    6.0671    0.0000 C   0  0  0  0  0  0  0  0  0  0  0  0
    3.7086    6.9278    0.0000 C   0  0  0  0  0  0  0  0  0  0  0  0
    3.3334    8.6530    0.0000 C   0  0  0  0  0  0  0  0  0  0  0  0
    2.6994    6.6960    0.0000 C   0  0  0  0  0  0  0  0  0  0  0  0
   10.5875    4.9131    0.0000 C   0  0  0  0  0  0  0  0  0  0  0  0
    2.3191    8.4446    0.0000 C   0  0  0  0  0  0  0  0  0  0  0  0
    2.0000    7.4595    0.0000 C   0  0  0  0  0  0  0  0  0  0  0  0
   10.9002    3.9632    0.0000 C   0  0  0  0  0  0  0  0  0  0  0  0
   14.8727    0.5391    0.0000 C   0  0  2  0  0  0  0  0  0  0  0  0
   15.8668    0.6475    0.0000 C   0  0  0  0  0  0  0  0  0  0  0  0
   16.0709    1.6264    0.0000 C   0  0  0  0  0  0  0  0  0  0  0  0
   15.2030    2.1231    0.0000 C   0  0  0  0  0  0  0  0  0  0  0  0
   11.8792    3.7591    0.0000 C   0  0  0  0  0  0  0  0  0  0  0  0
   12.1918    2.8092    0.0000 C   0  0  0  0  0  0  0  0  0  0  0  0
   13.1708    2.6051    0.0000 C   0  0  0  0  0  0  0  0  0  0  0  0
   13.4835    1.6552    0.0000 C   0  0  0  0  0  0  0  0  0  0  0  0
   14.3760   -0.3288    0.0000 C   0  0  0  0  0  0  0  0  0  0  0  0
   14.3827   -2.0609    0.0000 C   0  0  1  0  0  0  0  0  0  0  0  0
   13.3827   -2.0647    0.0000 C   0  0  0  0  0  0  0  0  0  0  0  0
   14.8860   -2.9250    0.0000 C   0  0  0  0  0  0  0  0  0  0  0  0
   12.8860   -2.9327    0.0000 C   0  0  0  0  0  0  0  0  0  0  0  0
   16.3893   -3.7852    0.0000 C   0  0  1  0  0  0  0  0  0  0  0  0
   15.8927   -4.6531    0.0000 C   0  0  0  0  0  0  0  0  0  0  0  0
   16.3960   -5.5172    0.0000 C   0  0  0  0  0  0  0  0  0  0  0  0
   11.8860   -2.9365    0.0000 C   0  0  0  0  0  0  0  0  0  0  0  0
   13.3894   -3.7968    0.0000 C   0  0  0  0  0  0  0  0  0  0  0  0
   17.3893   -3.7813    0.0000 C   0  0  0  0  0  0  0  0  0  0  0  0
   15.8993   -6.3852    0.0000 C   0  0  0  0  0  0  0  0  0  0  0  0
   11.3894   -3.8045    0.0000 C   0  0  0  0  0  0  0  0  0  0  0  0
   12.8927   -4.6647    0.0000 C   0  0  0  0  0  0  0  0  0  0  0  0
   16.4027   -7.2493    0.0000 C   0  0  0  0  0  0  0  0  0  0  0  0
   11.8927   -4.6686    0.0000 C   0  0  0  0  0  0  0  0  0  0  0  0
    5.7226    6.0898    0.0000 H   0  0  0  0  0  0  0  0  0  0  0  0
    5.9878    5.6432    0.0000 H   0  0  0  0  0  0  0  0  0  0  0  0
    6.5748    5.1022    0.0000 H   0  0  0  0  0  0  0  0  0  0  0  0
    8.5097    5.6819    0.0000 H   0  0  0  0  0  0  0  0  0  0  0  0
    8.6005    7.3520    0.0000 H   0  0  0  0  0  0  0  0  0  0  0  0
    8.0011    7.8792    0.0000 H   0  0  0  0  0  0  0  0  0  0  0  0
    7.3848    4.9235    0.0000 H   0  0  0  0  0  0  0  0  0  0  0  0
    8.1449    5.1672    0.0000 H   0  0  0  0  0  0  0  0  0  0  0  0
    7.2703    8.4976    0.0000 H   0  0  0  0  0  0  0  0  0  0  0  0
    6.6780    9.0309    0.0000 H   0  0  0  0  0  0  0  0  0  0  0  0
    5.9105    9.1940    0.0000 H   0  0  0  0  0  0  0  0  0  0  0  0
    5.1524    8.9477    0.0000 H   0  0  0  0  0  0  0  0  0  0  0  0
    4.5113    5.7227    0.0000 H   0  0  0  0  0  0  0  0  0  0  0  0
    3.5313    9.2405    0.0000 H   0  0  0  0  0  0  0  0  0  0  0  0
    9.1955    4.6549    0.0000 H   0  0  0  0  0  0  0  0  0  0  0  0
    2.5152    6.1040    0.0000 H   0  0  0  0  0  0  0  0  0  0  0  0
   11.2012    5.0017    0.0000 H   0  0  0  0  0  0  0  0  0  0  0  0
   10.6068    5.5328    0.0000 H   0  0  0  0  0  0  0  0  0  0  0  0
    1.9056    8.9066    0.0000 H   0  0  0  0  0  0  0  0  0  0  0  0
    1.3942    7.3278    0.0000 H   0  0  0  0  0  0  0  0  0  0  0  0
   14.2534    0.5692    0.0000 H   0  0  0  0  0  0  0  0  0  0  0  0
   10.2866    3.8746    0.0000 H   0  0  0  0  0  0  0  0  0  0  0  0
   10.8810    3.3435    0.0000 H   0  0  0  0  0  0  0  0  0  0  0  0
   15.8692    0.0275    0.0000 H   0  0  0  0  0  0  0  0  0  0  0  0
   16.4836    0.5851    0.0000 H   0  0  0  0  0  0  0  0  0  0  0  0
   16.6613    1.4371    0.0000 H   0  0  0  0  0  0  0  0  0  0  0  0
   16.3209    2.1938    0.0000 H   0  0  0  0  0  0  0  0  0  0  0  0
   15.5654    2.6261    0.0000 H   0  0  0  0  0  0  0  0  0  0  0  0
   14.7406    2.5362    0.0000 H   0  0  0  0  0  0  0  0  0  0  0  0
   12.4928    3.8478    0.0000 H   0  0  0  0  0  0  0  0  0  0  0  0
   11.8984    4.3788    0.0000 H   0  0  0  0  0  0  0  0  0  0  0  0
   11.5782    2.7206    0.0000 H   0  0  0  0  0  0  0  0  0  0  0  0
   12.1726    2.1895    0.0000 H   0  0  0  0  0  0  0  0  0  0  0  0
   13.7844    2.6938    0.0000 H   0  0  0  0  0  0  0  0  0  0  0  0
   13.1900    3.2248    0.0000 H   0  0  0  0  0  0  0  0  0  0  0  0
   15.4993   -1.1905    0.0000 H   0  0  0  0  0  0  0  0  0  0  0  0
   15.0027   -2.0585    0.0000 H   0  0  0  0  0  0  0  0  0  0  0  0
   13.4880   -1.4537    0.0000 H   0  0  0  0  0  0  0  0  0  0  0  0
   12.7993   -1.8549    0.0000 H   0  0  0  0  0  0  0  0  0  0  0  0
   15.7693   -3.7876    0.0000 H   0  0  0  0  0  0  0  0  0  0  0  0
   16.1939   -2.3830    0.0000 H   0  0  0  0  0  0  0  0  0  0  0  0
   15.4162   -4.2564    0.0000 H   0  0  0  0  0  0  0  0  0  0  0  0
   15.4193   -5.0535    0.0000 H   0  0  0  0  0  0  0  0  0  0  0  0
   16.8725   -5.9139    0.0000 H   0  0  0  0  0  0  0  0  0  0  0  0
   16.8694   -5.1169    0.0000 H   0  0  0  0  0  0  0  0  0  0  0  0
   11.5740   -2.4008    0.0000 H   0  0  0  0  0  0  0  0  0  0  0  0
   14.0093   -3.7944    0.0000 H   0  0  0  0  0  0  0  0  0  0  0  0
   15.4229   -5.9885    0.0000 H   0  0  0  0  0  0  0  0  0  0  0  0
   15.4259   -6.7855    0.0000 H   0  0  0  0  0  0  0  0  0  0  0  0
   13.2048   -5.2004    0.0000 H   0  0  0  0  0  0  0  0  0  0  0  0
   16.8792   -7.6460    0.0000 H   0  0  0  0  0  0  0  0  0  0  0  0
   16.8761   -6.8489    0.0000 H   0  0  0  0  0  0  0  0  0  0  0  0
   18.5127   -4.6430    0.0000 H   0  0  0  0  0  0  0  0  0  0  0  0
   17.5847   -5.1836    0.0000 H   0  0  0  0  0  0  0  0  0  0  0  0
   16.2181   -8.6530    0.0000 H   0  0  0  0  0  0  0  0  0  0  0  0
   15.2860   -8.1196    0.0000 H   0  0  0  0  0  0  0  0  0  0  0  0
  1 54  1  0  0  0  0
  2 57  1  0  0  0  0
  3 26  2  0  0  0  0
  4 41  2  0  0  0  0
  5 42  2  0  0  0  0
  6 45  2  0  0  0  0
  7 52  2  0  0  0  0
  8 16  1  0  0  0  0
  8 19  1  0  0  0  0
  8 22  1  0  0  0  0
  9 21  1  0  0  0  0
  9 27  1  0  0  0  0
  9 70  1  0  0  0  0
 10 26  1  0  0  0  0
 10 30  1  0  0  0  0
 10 72  1  0  0  0  0
 11 34  1  0  0  0  0
 11 37  1  0  0  0  0
 11 41  1  0  0  0  0
 12 42  1  0  0  0  0
 43 12  1  6  0  0  0
 12 93  1  0  0  0  0
 13 45  1  0  0  0  0
 47 13  1  6  0  0  0
 13 98  1  0  0  0  0
 14 52  1  0  0  0  0
 14110  1  0  0  0  0
 14111  1  0  0  0  0
 15 56  1  0  0  0  0
 15112  1  0  0  0  0
 15113  1  0  0  0  0
 16 17  1  0  0  0  0
 16 21  1  0  0  0  0
 16 58  1  1  0  0  0
 17 20  1  0  0  0  0
 17 59  1  0  0  0  0
 17 60  1  0  0  0  0
 18 19  1  0  0  0  0
 18 20  1  0  0  0  0
 18 26  1  1  0  0  0
 18 61  1  0  0  0  0
 19 62  1  0  0  0  0
 19 63  1  0  0  0  0
 20 64  1  0  0  0  0
 20 65  1  0  0  0  0
 21 23  2  0  0  0  0
 22 24  1  0  0  0  0
 22 66  1  0  0  0  0
 22 67  1  0  0  0  0
 23 24  1  0  0  0  0
 23 25  1  0  0  0  0
 24 68  1  0  0  0  0
 24 69  1  0  0  0  0
 25 27  1  0  0  0  0
 25 28  2  0  0  0  0
 27 29  2  0  0  0  0
 28 31  1  0  0  0  0
 28 71  1  0  0  0  0
 29 32  1  0  0  0  0
 29 73  1  0  0  0  0
 30 33  1  0  0  0  0
 30 74  1  0  0  0  0
 30 75  1  0  0  0  0
 31 32  2  0  0  0  0
 31 76  1  0  0  0  0
 32 77  1  0  0  0  0
 33 38  1  0  0  0  0
 33 79  1  0  0  0  0
 33 80  1  0  0  0  0
 34 35  1  0  0  0  0
 34 42  1  6  0  0  0
 34 78  1  0  0  0  0
 35 36  1  0  0  0  0
 35 81  1  0  0  0  0
 35 82  1  0  0  0  0
 36 37  1  0  0  0  0
 36 83  1  0  0  0  0
 36 84  1  0  0  0  0
 37 85  1  0  0  0  0
 37 86  1  0  0  0  0
 38 39  1  0  0  0  0
 38 87  1  0  0  0  0
 38 88  1  0  0  0  0
 39 40  1  0  0  0  0
 39 89  1  0  0  0  0
 39 90  1  0  0  0  0
 40 41  1  0  0  0  0
 40 91  1  0  0  0  0
 40 92  1  0  0  0  0
 43 44  1  0  0  0  0
 43 45  1  0  0  0  0
 43 94  1  0  0  0  0
 44 46  1  0  0  0  0
 44 95  1  0  0  0  0
 44 96  1  0  0  0  0
 46 50  2  0  0  0  0
 46 51  1  0  0  0  0
 47 48  1  0  0  0  0
 47 52  1  0  0  0  0
 47 97  1  0  0  0  0
 48 49  1  0  0  0  0
 48 99  1  0  0  0  0
 48100  1  0  0  0  0
 49 53  1  0  0  0  0
 49101  1  0  0  0  0
 49102  1  0  0  0  0
 50 54  1  0  0  0  0
 50103  1  0  0  0  0
 51 55  2  0  0  0  0
 51104  1  0  0  0  0
 53 56  1  0  0  0  0
 53105  1  0  0  0  0
 53106  1  0  0  0  0
 54 57  2  0  0  0  0
 55 57  1  0  0  0  0
 55107  1  0  0  0  0
 56108  1  0  0  0  0
 56109  1  0  0  0  0
M  END
> <PUBCHEM_COMPOUND_CID>
118736412

> <PUBCHEM_COMPOUND_CANONICALIZED>
1

> <PUBCHEM_CACTVS_COMPLEXITY>
1390

> <PUBCHEM_CACTVS_HBOND_ACCEPTOR>
9

> <PUBCHEM_CACTVS_HBOND_DONOR>
6

> <PUBCHEM_CACTVS_ROTATABLE_BOND>
18

> <PUBCHEM_CACTVS_SUBSKEYS>
AAADcfB/+YAAAAAAAAAAAAAAAAAAAWLAAAA8eIEAAAAAAFix9AAAHwAQAAAADSjBngwwwPPJkACoAyVyVACCgCAhAiAImaG4ZJgIYPrA0bGUIAhglgDIyAcYicCegAAAAAACAAAAAAAAAAQAAAAAAAAAAA==

> <PUBCHEM_IUPAC_OPENEYE_NAME>
(3S,12bR)-N-[6-[(2R)-2-[[(1S)-2-[[(1S)-5-amino-1-carbamoyl-pentyl]amino]-1-[(3,4-difluorophenyl)methyl]-2-oxo-ethyl]carbamoyl]pyrrolidin-1-yl]-6-oxo-hexyl]-1,2,3,4,6,7,12,12b-octahydroindolo[2,3-a]quinolizine-3-carboxamide

> <PUBCHEM_IUPAC_CAS_NAME>
(3S,12bR)-N-[6-[(2R)-2-[[[(2S)-1-[[(2S)-1,6-diamino-1-oxohexan-2-yl]amino]-3-(3,4-difluorophenyl)-1-oxopropan-2-yl]amino]-oxomethyl]-1-pyrrolidinyl]-6-oxohexyl]-1,2,3,4,6,7,12,12b-octahydroindolo[2,3-a]quinolizine-3-carboxamide

> <PUBCHEM_IUPAC_NAME_MARKUP>
(3<I>S</I>,12<I>b</I><I>R</I>)-<I>N</I>-[6-[(2<I>R</I>)-2-[[(2<I>S</I>)-1-[[(2<I>S</I>)-1,6-diamino-1-oxohexan-2-yl]amino]-3-(3,4-difluorophenyl)-1-oxopropan-2-yl]carbamoyl]pyrrolidin-1-yl]-6-oxohexyl]-1,2,3,4,6,7,12,12<I>b</I>-octahydroindolo[2,3-a]quinolizine-3-carboxamide

> <PUBCHEM_IUPAC_NAME>
(3S,12bR)-N-[6-[(2R)-2-[[(2S)-1-[[(2S)-1,6-diamino-1-oxohexan-2-yl]amino]-3-(3,4-difluorophenyl)-1-oxopropan-2-yl]carbamoyl]pyrrolidin-1-yl]-6-oxohexyl]-1,2,3,4,6,7,12,12b-octahydroindolo[2,3-a]quinolizine-3-carboxamide

> <PUBCHEM_IUPAC_SYSTEMATIC_NAME>
(3S,12bR)-N-[6-[(2R)-2-[[(2S)-1-[[(2S)-1,6-bis(azanyl)-1-oxidanylidene-hexan-2-yl]amino]-3-[3,4-bis(fluoranyl)phenyl]-1-oxidanylidene-propan-2-yl]carbamoyl]pyrrolidin-1-yl]-6-oxidanylidene-hexyl]-1,2,3,4,6,7,12,12b-octahydroindolo[2,3-a]quinolizine-3-carboxamide

> <PUBCHEM_IUPAC_TRADITIONAL_NAME>
(3S,12bR)-N-[6-[(2R)-2-[[(1S)-2-[[(1S)-5-amino-1-carbamoyl-pentyl]amino]-1-(3,4-difluorobenzyl)-2-keto-ethyl]carbamoyl]pyrrolidino]-6-keto-hexyl]-1,2,3,4,6,7,12,12b-octahydropyrido[2,1-a]beta-carboline-3-carboxamide

> <PUBCHEM_IUPAC_INCHI>
InChI=1S/C42H56F2N8O5/c43-30-16-14-26(23-31(30)44)24-34(41(56)49-33(39(46)54)11-5-6-19-45)50-42(57)36-12-8-21-52(36)37(53)13-2-1-7-20-47-40(55)27-15-17-35-38-29(18-22-51(35)25-27)28-9-3-4-10-32(28)48-38/h3-4,9-10,14,16,23,27,33-36,48H,1-2,5-8,11-13,15,17-22,24-25,45H2,(H2,46,54)(H,47,55)(H,49,56)(H,50,57)/t27-,33-,34-,35+,36+/m0/s1

> <PUBCHEM_IUPAC_INCHIKEY>
TXVUROLPUDSHNS-XHUJMWDFSA-N

> <PUBCHEM_XLOGP3_AA>
2.8

> <PUBCHEM_EXACT_MASS>
790.43417324

> <PUBCHEM_MOLECULAR_FORMULA>
C42H56F2N8O5

> <PUBCHEM_MOLECULAR_WEIGHT>
790.9

> <PUBCHEM_OPENEYE_CAN_SMILES>
C1CC(N(C1)C(=O)CCCCCNC(=O)C2CCC3C4=C(CCN3C2)C5=CC=CC=C5N4)C(=O)NC(CC6=CC(=C(C=C6)F)F)C(=O)NC(CCCCN)C(=O)N

> <PUBCHEM_OPENEYE_ISO_SMILES>
C1C[C@@H](N(C1)C(=O)CCCCCNC(=O)[C@H]2CC[C@@H]3C4=C(CCN3C2)C5=CC=CC=C5N4)C(=O)N[C@@H](CC6=CC(=C(C=C6)F)F)C(=O)N[C@@H](CCCCN)C(=O)N

> <PUBCHEM_CACTVS_TPSA>
196

> <PUBCHEM_MONOISOTOPIC_WEIGHT>
790.43417324

> <PUBCHEM_TOTAL_CHARGE>
0

> <PUBCHEM_HEAVY_ATOM_COUNT>
57

> <PUBCHEM_ATOM_DEF_STEREO_COUNT>
5

> <PUBCHEM_ATOM_UDEF_STEREO_COUNT>
0

> <PUBCHEM_BOND_DEF_STEREO_COUNT>
0

> <PUBCHEM_BOND_UDEF_STEREO_COUNT>
0

> <PUBCHEM_ISOTOPIC_ATOM_COUNT>
0

> <PUBCHEM_COMPONENT_COUNT>
1

> <PUBCHEM_CACTVS_TAUTO_COUNT>
-1

> <PUBCHEM_COORDINATE_TYPE>
1
5
255

> <PUBCHEM_BONDANNOTATIONS>
43  12  6
47  13  6
16  58  5
18  26  5
21  23  8
23  25  8
25  27  8
25  28  8
27  29  8
28  31  8
29  32  8
31  32  8
34  42  6
46  50  8
46  51  8
50  54  8
51  55  8
54  57  8
55  57  8
9  21  8
9  27  8

$$$$
