183812
  -OEChem-09292321592D

 59 61  0     0  0  0  0  0  0999 V2000
    7.1962   -0.6550    0.0000 S   0  0  0  0  0  0  0  0  0  0  0  0
   11.6065    4.0403    0.0000 S   0  0  0  0  0  0  0  0  0  0  0  0
    7.6962   -1.5210    0.0000 O   0  0  0  0  0  0  0  0  0  0  0  0
    6.6962    0.2110    0.0000 O   0  0  0  0  0  0  0  0  0  0  0  0
    5.4641   -3.6550    0.0000 O   0  0  0  0  0  0  0  0  0  0  0  0
    9.7942    6.8450    0.0000 O   0  0  0  0  0  0  0  0  0  0  0  0
   13.1901    4.8450    0.0000 O   0  0  0  0  0  0  0  0  0  0  0  0
    8.9282    1.3450    0.0000 N   0  0  0  0  0  0  0  0  0  0  0  0
   11.6065    5.6497    0.0000 N   0  0  0  0  0  0  0  0  0  0  0  0
    8.0622   -0.1550    0.0000 C   0  0  0  0  0  0  0  0  0  0  0  0
    6.3301   -1.1550    0.0000 C   0  0  0  0  0  0  0  0  0  0  0  0
    8.0622    0.8450    0.0000 C   0  0  0  0  0  0  0  0  0  0  0  0
    6.3301   -2.1550    0.0000 C   0  0  0  0  0  0  0  0  0  0  0  0
    8.9282    2.3450    0.0000 C   0  0  0  0  0  0  0  0  0  0  0  0
    9.7942    2.8450    0.0000 C   0  0  0  0  0  0  0  0  0  0  0  0
    5.4641   -2.6550    0.0000 C   0  0  0  0  0  0  0  0  0  0  0  0
    9.7942    3.8450    0.0000 C   0  0  0  0  0  0  0  0  0  0  0  0
   10.6603    4.3450    0.0000 C   0  0  0  0  0  0  0  0  0  0  0  0
   10.6603    5.3450    0.0000 C   0  0  0  0  0  0  0  0  0  0  0  0
    8.9282    4.3450    0.0000 C   0  0  0  0  0  0  0  0  0  0  0  0
    4.5981   -4.1550    0.0000 C   0  0  0  0  0  0  0  0  0  0  0  0
    9.7942    5.8450    0.0000 C   0  0  0  0  0  0  0  0  0  0  0  0
    4.5981   -5.1550    0.0000 C   0  0  0  0  0  0  0  0  0  0  0  0
    8.9282    5.3450    0.0000 C   0  0  0  0  0  0  0  0  0  0  0  0
   12.1901    4.8450    0.0000 C   0  0  0  0  0  0  0  0  0  0  0  0
    3.7320   -5.6550    0.0000 C   0  0  0  0  0  0  0  0  0  0  0  0
    2.8660   -5.1550    0.0000 C   0  0  0  0  0  0  0  0  0  0  0  0
    3.7320   -6.6550    0.0000 C   0  0  0  0  0  0  0  0  0  0  0  0
    2.0000   -5.6550    0.0000 C   0  0  0  0  0  0  0  0  0  0  0  0
    2.8660   -7.1550    0.0000 C   0  0  0  0  0  0  0  0  0  0  0  0
    2.0000   -6.6550    0.0000 C   0  0  0  0  0  0  0  0  0  0  0  0
    8.2742   -0.7376    0.0000 H   0  0  0  0  0  0  0  0  0  0  0  0
    8.6728   -0.0473    0.0000 H   0  0  0  0  0  0  0  0  0  0  0  0
    6.1181   -0.5724    0.0000 H   0  0  0  0  0  0  0  0  0  0  0  0
    5.7196   -1.2627    0.0000 H   0  0  0  0  0  0  0  0  0  0  0  0
    7.8501    1.4276    0.0000 H   0  0  0  0  0  0  0  0  0  0  0  0
    7.4516    0.7373    0.0000 H   0  0  0  0  0  0  0  0  0  0  0  0
    6.5422   -2.7376    0.0000 H   0  0  0  0  0  0  0  0  0  0  0  0
    6.9407   -2.0473    0.0000 H   0  0  0  0  0  0  0  0  0  0  0  0
    8.7162    2.9276    0.0000 H   0  0  0  0  0  0  0  0  0  0  0  0
    8.3176    2.2373    0.0000 H   0  0  0  0  0  0  0  0  0  0  0  0
    9.4651    1.0350    0.0000 H   0  0  0  0  0  0  0  0  0  0  0  0
   10.0063    2.2624    0.0000 H   0  0  0  0  0  0  0  0  0  0  0  0
   10.4048    2.9527    0.0000 H   0  0  0  0  0  0  0  0  0  0  0  0
    5.2520   -2.0724    0.0000 H   0  0  0  0  0  0  0  0  0  0  0  0
    4.8535   -2.7627    0.0000 H   0  0  0  0  0  0  0  0  0  0  0  0
    8.3913    4.0350    0.0000 H   0  0  0  0  0  0  0  0  0  0  0  0
    4.3860   -3.5724    0.0000 H   0  0  0  0  0  0  0  0  0  0  0  0
    3.9875   -4.2627    0.0000 H   0  0  0  0  0  0  0  0  0  0  0  0
    4.8101   -5.7376    0.0000 H   0  0  0  0  0  0  0  0  0  0  0  0
    5.2087   -5.0473    0.0000 H   0  0  0  0  0  0  0  0  0  0  0  0
    8.3913    5.6550    0.0000 H   0  0  0  0  0  0  0  0  0  0  0  0
   11.7991    6.2391    0.0000 H   0  0  0  0  0  0  0  0  0  0  0  0
    2.8660   -4.5350    0.0000 H   0  0  0  0  0  0  0  0  0  0  0  0
    4.2690   -6.9650    0.0000 H   0  0  0  0  0  0  0  0  0  0  0  0
    9.2573    7.1550    0.0000 H   0  0  0  0  0  0  0  0  0  0  0  0
    1.4631   -5.3450    0.0000 H   0  0  0  0  0  0  0  0  0  0  0  0
    2.8660   -7.7750    0.0000 H   0  0  0  0  0  0  0  0  0  0  0  0
    1.4631   -6.9650    0.0000 H   0  0  0  0  0  0  0  0  0  0  0  0
  1  3  2  0  0  0  0
  1  4  2  0  0  0  0
  1 10  1  0  0  0  0
  1 11  1  0  0  0  0
  2 18  1  0  0  0  0
  2 25  1  0  0  0  0
  5 16  1  0  0  0  0
  5 21  1  0  0  0  0
  6 22  1  0  0  0  0
  6 56  1  0  0  0  0
  7 25  2  0  0  0  0
  8 12  1  0  0  0  0
  8 14  1  0  0  0  0
  8 42  1  0  0  0  0
  9 19  1  0  0  0  0
  9 25  1  0  0  0  0
  9 53  1  0  0  0  0
 10 12  1  0  0  0  0
 10 32  1  0  0  0  0
 10 33  1  0  0  0  0
 11 13  1  0  0  0  0
 11 34  1  0  0  0  0
 11 35  1  0  0  0  0
 12 36  1  0  0  0  0
 12 37  1  0  0  0  0
 13 16  1  0  0  0  0
 13 38  1  0  0  0  0
 13 39  1  0  0  0  0
 14 15  1  0  0  0  0
 14 40  1  0  0  0  0
 14 41  1  0  0  0  0
 15 17  1  0  0  0  0
 15 43  1  0  0  0  0
 15 44  1  0  0  0  0
 16 45  1  0  0  0  0
 16 46  1  0  0  0  0
 17 18  2  0  0  0  0
 17 20  1  0  0  0  0
 18 19  1  0  0  0  0
 19 22  2  0  0  0  0
 20 24  2  0  0  0  0
 20 47  1  0  0  0  0
 21 23  1  0  0  0  0
 21 48  1  0  0  0  0
 21 49  1  0  0  0  0
 22 24  1  0  0  0  0
 23 26  1  0  0  0  0
 23 50  1  0  0  0  0
 23 51  1  0  0  0  0
 24 52  1  0  0  0  0
 26 27  2  0  0  0  0
 26 28  1  0  0  0  0
 27 29  1  0  0  0  0
 27 54  1  0  0  0  0
 28 30  2  0  0  0  0
 28 55  1  0  0  0  0
 29 31  2  0  0  0  0
 29 57  1  0  0  0  0
 30 31  1  0  0  0  0
 30 58  1  0  0  0  0
 31 59  1  0  0  0  0
M  END
> <PUBCHEM_COMPOUND_CID>
183812

> <PUBCHEM_COMPOUND_CANONICALIZED>
1

> <PUBCHEM_CACTVS_COMPLEXITY>
649

> <PUBCHEM_CACTVS_HBOND_ACCEPTOR>
7

> <PUBCHEM_CACTVS_HBOND_DONOR>
3

> <PUBCHEM_CACTVS_ROTATABLE_BOND>
13

> <PUBCHEM_CACTVS_SUBSKEYS>
AAADceB7OABgAAAAAAAAAAAAAAAAAWAAAAAwYAAAAAAAAFgBQAAAHgQQCAAADAzl2Aawx4LABgqIAiRCUHDCAABhKBAIiJQPTIgKJiLykZOGcAhk1BH42AeQwKAOIAAARAAEEQBAAACIAAgiAAAAAAAAAA==

> <PUBCHEM_IUPAC_OPENEYE_NAME>
4-hydroxy-7-[2-[2-[3-(2-phenylethoxy)propylsulfonyl]ethylamino]ethyl]-3H-1,3-benzothiazol-2-one

> <PUBCHEM_IUPAC_CAS_NAME>
4-hydroxy-7-[2-[2-[3-(2-phenylethoxy)propylsulfonyl]ethylamino]ethyl]-3H-1,3-benzothiazol-2-one

> <PUBCHEM_IUPAC_NAME_MARKUP>
4-hydroxy-7-[2-[2-[3-(2-phenylethoxy)propylsulfonyl]ethylamino]ethyl]-3<I>H</I>-1,3-benzothiazol-2-one

> <PUBCHEM_IUPAC_NAME>
4-hydroxy-7-[2-[2-[3-(2-phenylethoxy)propylsulfonyl]ethylamino]ethyl]-3H-1,3-benzothiazol-2-one

> <PUBCHEM_IUPAC_SYSTEMATIC_NAME>
4-oxidanyl-7-[2-[2-[3-(2-phenylethoxy)propylsulfonyl]ethylamino]ethyl]-3H-1,3-benzothiazol-2-one

> <PUBCHEM_IUPAC_TRADITIONAL_NAME>
4-hydroxy-7-[2-[2-(3-phenethoxypropylsulfonyl)ethylamino]ethyl]-3H-1,3-benzothiazol-2-one

> <PUBCHEM_IUPAC_INCHI>
InChI=1S/C22H28N2O5S2/c25-19-8-7-18(21-20(19)24-22(26)30-21)9-11-23-12-16-31(27,28)15-4-13-29-14-10-17-5-2-1-3-6-17/h1-3,5-8,23,25H,4,9-16H2,(H,24,26)

> <PUBCHEM_IUPAC_INCHIKEY>
DBCKRBGYGMVSTI-UHFFFAOYSA-N

> <PUBCHEM_XLOGP3_AA>
2.7

> <PUBCHEM_EXACT_MASS>
464.14396435

> <PUBCHEM_MOLECULAR_FORMULA>
C22H28N2O5S2

> <PUBCHEM_MOLECULAR_WEIGHT>
464.6

> <PUBCHEM_OPENEYE_CAN_SMILES>
C1=CC=C(C=C1)CCOCCCS(=O)(=O)CCNCCC2=C3C(=C(C=C2)O)NC(=O)S3

> <PUBCHEM_OPENEYE_ISO_SMILES>
C1=CC=C(C=C1)CCOCCCS(=O)(=O)CCNCCC2=C3C(=C(C=C2)O)NC(=O)S3

> <PUBCHEM_CACTVS_TPSA>
138

> <PUBCHEM_MONOISOTOPIC_WEIGHT>
464.14396435

> <PUBCHEM_TOTAL_CHARGE>
0

> <PUBCHEM_HEAVY_ATOM_COUNT>
31

> <PUBCHEM_ATOM_DEF_STEREO_COUNT>
0

> <PUBCHEM_ATOM_UDEF_STEREO_COUNT>
0

> <PUBCHEM_BOND_DEF_STEREO_COUNT>
0

> <PUBCHEM_BOND_UDEF_STEREO_COUNT>
0

> <PUBCHEM_ISOTOPIC_ATOM_COUNT>
0

> <PUBCHEM_COMPONENT_COUNT>
1

> <PUBCHEM_CACTVS_TAUTO_COUNT>
10

> <PUBCHEM_COORDINATE_TYPE>
1
5
255

> <PUBCHEM_BONDANNOTATIONS>
17  18  8
17  20  8
18  19  8
19  22  8
2  18  8
2  25  8
20  24  8
22  24  8
26  27  8
26  28  8
27  29  8
28  30  8
29  31  8
30  31  8
9  19  8
9  25  8

$$$$
