138671165
  -OEChem-09292322452D

 72 76  0     1  0  0  0  0  0999 V2000
   14.1413   -0.8061    0.0000 S   0  0  0  0  0  0  0  0  0  0  0  0
   18.2332   -2.4565    0.0000 F   0  0  0  0  0  0  0  0  0  0  0  0
   17.2382   -3.4615    0.0000 F   0  0  0  0  0  0  0  0  0  0  0  0
   17.2283   -1.4615    0.0000 F   0  0  0  0  0  0  0  0  0  0  0  0
    5.4956    0.9441    0.0000 O   0  0  0  0  0  0  0  0  0  0  0  0
   15.7289   -1.6029    0.0000 O   0  0  0  0  0  0  0  0  0  0  0  0
   11.0085   -1.6265    0.0000 N   0  0  3  0  0  0  0  0  0  0  0  0
    5.5043   -0.7879    0.0000 N   0  0  0  0  0  0  0  0  0  0  0  0
   14.1494   -2.4156    0.0000 N   0  0  0  0  0  0  0  0  0  0  0  0
    2.9880    2.4615    0.0000 N   0  0  0  0  0  0  0  0  0  0  0  0
    2.1862    1.8739    0.0000 N   0  0  0  0  0  0  0  0  0  0  0  0
    8.5042   -0.7729    0.0000 C   0  0  0  0  0  0  0  0  0  0  0  0
    8.0086   -1.6414    0.0000 C   0  0  0  0  0  0  0  0  0  0  0  0
    7.9999    0.0906    0.0000 C   0  0  0  0  0  0  0  0  0  0  0  0
    6.5043   -0.7829    0.0000 C   0  0  0  0  0  0  0  0  0  0  0  0
    7.0086   -1.6464    0.0000 C   0  0  0  0  0  0  0  0  0  0  0  0
    6.9999    0.0856    0.0000 C   0  0  0  0  0  0  0  0  0  0  0  0
    9.5042   -0.7679    0.0000 C   0  0  0  0  0  0  0  0  0  0  0  0
   10.0085   -1.6315    0.0000 C   0  0  0  0  0  0  0  0  0  0  0  0
   11.4379   -0.7234    0.0000 C   0  0  0  0  0  0  0  0  0  0  0  0
   11.4469   -2.5253    0.0000 C   0  0  0  0  0  0  0  0  0  0  0  0
   12.4117   -0.4960    0.0000 C   0  0  0  0  0  0  0  0  0  0  0  0
   12.4229   -2.7429    0.0000 C   0  0  0  0  0  0  0  0  0  0  0  0
    5.0000    0.0756    0.0000 C   0  0  0  0  0  0  0  0  0  0  0  0
   13.1966   -1.1156    0.0000 C   0  0  0  0  0  0  0  0  0  0  0  0
   13.2016   -2.1156    0.0000 C   0  0  0  0  0  0  0  0  0  0  0  0
    4.0000    0.0706    0.0000 C   0  0  0  0  0  0  0  0  0  0  0  0
    3.4957    0.9342    0.0000 C   0  0  0  0  0  0  0  0  0  0  0  0
   14.7290   -1.6079    0.0000 C   0  0  0  0  0  0  0  0  0  0  0  0
    3.5043   -0.7979    0.0000 C   0  0  0  0  0  0  0  0  0  0  0  0
    2.4957    0.9292    0.0000 C   0  0  0  0  0  0  0  0  0  0  0  0
    3.7957    1.8819    0.0000 C   0  0  0  0  0  0  0  0  0  0  0  0
    2.5043   -0.8029    0.0000 C   0  0  0  0  0  0  0  0  0  0  0  0
    2.0000    0.0607    0.0000 C   0  0  0  0  0  0  0  0  0  0  0  0
   16.2333   -2.4665    0.0000 C   0  0  3  0  0  0  0  0  0  0  0  0
    2.9830    3.4615    0.0000 C   0  0  0  0  0  0  0  0  0  0  0  0
   17.2332   -2.4615    0.0000 C   0  0  0  0  0  0  0  0  0  0  0  0
   15.7376   -3.3350    0.0000 C   0  0  0  0  0  0  0  0  0  0  0  0
    8.8169   -1.3083    0.0000 H   0  0  0  0  0  0  0  0  0  0  0  0
    7.9040   -2.2526    0.0000 H   0  0  0  0  0  0  0  0  0  0  0  0
    8.5922   -1.8506    0.0000 H   0  0  0  0  0  0  0  0  0  0  0  0
    8.5815    0.3055    0.0000 H   0  0  0  0  0  0  0  0  0  0  0  0
    7.8892    0.7006    0.0000 H   0  0  0  0  0  0  0  0  0  0  0  0
    6.1916   -0.2475    0.0000 H   0  0  0  0  0  0  0  0  0  0  0  0
    6.4270   -1.8614    0.0000 H   0  0  0  0  0  0  0  0  0  0  0  0
    7.1193   -2.2565    0.0000 H   0  0  0  0  0  0  0  0  0  0  0  0
    7.1046    0.6967    0.0000 H   0  0  0  0  0  0  0  0  0  0  0  0
    6.4163    0.2947    0.0000 H   0  0  0  0  0  0  0  0  0  0  0  0
   10.0858   -0.5530    0.0000 H   0  0  0  0  0  0  0  0  0  0  0  0
    9.3935   -0.1579    0.0000 H   0  0  0  0  0  0  0  0  0  0  0  0
    9.4270   -1.8464    0.0000 H   0  0  0  0  0  0  0  0  0  0  0  0
   10.1192   -2.2415    0.0000 H   0  0  0  0  0  0  0  0  0  0  0  0
    5.1970   -1.3264    0.0000 H   0  0  0  0  0  0  0  0  0  0  0  0
   11.4348   -0.1034    0.0000 H   0  0  0  0  0  0  0  0  0  0  0  0
   10.8328   -0.5884    0.0000 H   0  0  0  0  0  0  0  0  0  0  0  0
   10.8431   -2.6662    0.0000 H   0  0  0  0  0  0  0  0  0  0  0  0
   11.4500   -3.1453    0.0000 H   0  0  0  0  0  0  0  0  0  0  0  0
   12.8945   -0.1070    0.0000 H   0  0  0  0  0  0  0  0  0  0  0  0
   12.1399    0.0613    0.0000 H   0  0  0  0  0  0  0  0  0  0  0  0
   12.1567   -3.3029    0.0000 H   0  0  0  0  0  0  0  0  0  0  0  0
   12.9096   -3.1271    0.0000 H   0  0  0  0  0  0  0  0  0  0  0  0
    3.8170   -1.3332    0.0000 H   0  0  0  0  0  0  0  0  0  0  0  0
    4.3840    2.0774    0.0000 H   0  0  0  0  0  0  0  0  0  0  0  0
    2.1970   -1.3413    0.0000 H   0  0  0  0  0  0  0  0  0  0  0  0
    1.3800    0.0576    0.0000 H   0  0  0  0  0  0  0  0  0  0  0  0
   16.5406   -1.9280    0.0000 H   0  0  0  0  0  0  0  0  0  0  0  0
    3.6030    3.4646    0.0000 H   0  0  0  0  0  0  0  0  0  0  0  0
    2.9800    4.0815    0.0000 H   0  0  0  0  0  0  0  0  0  0  0  0
    2.3631    3.4584    0.0000 H   0  0  0  0  0  0  0  0  0  0  0  0
   15.1991   -3.0276    0.0000 H   0  0  0  0  0  0  0  0  0  0  0  0
   15.4303   -3.8734    0.0000 H   0  0  0  0  0  0  0  0  0  0  0  0
   16.2761   -3.6423    0.0000 H   0  0  0  0  0  0  0  0  0  0  0  0
  1 25  1  0  0  0  0
  1 29  1  0  0  0  0
  2 37  1  0  0  0  0
  3 37  1  0  0  0  0
  4 37  1  0  0  0  0
  5 24  2  0  0  0  0
  6 29  1  0  0  0  0
  6 35  1  0  0  0  0
  7 19  1  0  0  0  0
  7 20  1  0  0  0  0
  7 21  1  0  0  0  0
  8 15  1  0  0  0  0
  8 24  1  0  0  0  0
  8 53  1  0  0  0  0
  9 26  1  0  0  0  0
  9 29  2  0  0  0  0
 10 11  1  0  0  0  0
 10 32  1  0  0  0  0
 10 36  1  0  0  0  0
 11 31  2  0  0  0  0
 12 13  1  0  0  0  0
 12 14  1  0  0  0  0
 12 18  1  0  0  0  0
 12 39  1  0  0  0  0
 13 16  1  0  0  0  0
 13 40  1  0  0  0  0
 13 41  1  0  0  0  0
 14 17  1  0  0  0  0
 14 42  1  0  0  0  0
 14 43  1  0  0  0  0
 15 16  1  0  0  0  0
 15 17  1  0  0  0  0
 15 44  1  0  0  0  0
 16 45  1  0  0  0  0
 16 46  1  0  0  0  0
 17 47  1  0  0  0  0
 17 48  1  0  0  0  0
 18 19  1  0  0  0  0
 18 49  1  0  0  0  0
 18 50  1  0  0  0  0
 19 51  1  0  0  0  0
 19 52  1  0  0  0  0
 20 22  1  0  0  0  0
 20 54  1  0  0  0  0
 20 55  1  0  0  0  0
 21 23  1  0  0  0  0
 21 56  1  0  0  0  0
 21 57  1  0  0  0  0
 22 25  1  0  0  0  0
 22 58  1  0  0  0  0
 22 59  1  0  0  0  0
 23 26  1  0  0  0  0
 23 60  1  0  0  0  0
 23 61  1  0  0  0  0
 24 27  1  0  0  0  0
 25 26  2  0  0  0  0
 27 28  1  0  0  0  0
 27 30  2  0  0  0  0
 28 31  1  0  0  0  0
 28 32  2  0  0  0  0
 30 33  1  0  0  0  0
 30 62  1  0  0  0  0
 31 34  1  0  0  0  0
 32 63  1  0  0  0  0
 33 34  2  0  0  0  0
 33 64  1  0  0  0  0
 34 65  1  0  0  0  0
 35 37  1  0  0  0  0
 35 38  1  0  0  0  0
 35 66  1  0  0  0  0
 36 67  1  0  0  0  0
 36 68  1  0  0  0  0
 36 69  1  0  0  0  0
 38 70  1  0  0  0  0
 38 71  1  0  0  0  0
 38 72  1  0  0  0  0
M  END
> <PUBCHEM_COMPOUND_CID>
138671165

> <PUBCHEM_COMPOUND_CANONICALIZED>
1

> <PUBCHEM_CACTVS_COMPLEXITY>
799

> <PUBCHEM_CACTVS_HBOND_ACCEPTOR>
9

> <PUBCHEM_CACTVS_HBOND_DONOR>
1

> <PUBCHEM_CACTVS_ROTATABLE_BOND>
7

> <PUBCHEM_CACTVS_SUBSKEYS>
AAADcfB7sYBAAAAAAAAAAAAAAAAAAWLAAAAwYAAABYAAAFix/AAAHwQYAAAADTzh3hY+wfPIFAiuAzV3VACS9KB1ijgY2LU4ZNgIILLg1dGMpQhgngDIyYcciICOgAAAQAASAAAQAACAACQAAAAAAAAAAA==

> <PUBCHEM_IUPAC_OPENEYE_NAME>
2-methyl-N-[4-[2-[2-(2,2,2-trifluoro-1-methyl-ethoxy)-4,5,7,8-tetrahydrothiazolo[4,5-d]azepin-6-yl]ethyl]cyclohexyl]indazole-4-carboxamide

> <PUBCHEM_IUPAC_CAS_NAME>
2-methyl-N-[4-[2-[2-(1,1,1-trifluoropropan-2-yloxy)-4,5,7,8-tetrahydrothiazolo[4,5-d]azepin-6-yl]ethyl]cyclohexyl]-4-indazolecarboxamide

> <PUBCHEM_IUPAC_NAME_MARKUP>
2-methyl-<I>N</I>-[4-[2-[2-(1,1,1-trifluoropropan-2-yloxy)-4,5,7,8-tetrahydro-[1,3]thiazolo[4,5-d]azepin-6-yl]ethyl]cyclohexyl]indazole-4-carboxamide

> <PUBCHEM_IUPAC_NAME>
2-methyl-N-[4-[2-[2-(1,1,1-trifluoropropan-2-yloxy)-4,5,7,8-tetrahydro-[1,3]thiazolo[4,5-d]azepin-6-yl]ethyl]cyclohexyl]indazole-4-carboxamide

> <PUBCHEM_IUPAC_SYSTEMATIC_NAME>
2-methyl-N-[4-[2-[2-[1,1,1-tris(fluoranyl)propan-2-yloxy]-4,5,7,8-tetrahydro-[1,3]thiazolo[4,5-d]azepin-6-yl]ethyl]cyclohexyl]indazole-4-carboxamide

> <PUBCHEM_IUPAC_TRADITIONAL_NAME>
2-methyl-N-[4-[2-[2-(2,2,2-trifluoro-1-methyl-ethoxy)-4,5,7,8-tetrahydrothiazol[4,5-d]azepin-6-yl]ethyl]cyclohexyl]indazole-4-carboxamide

> <PUBCHEM_IUPAC_INCHI>
InChI=1S/C27H34F3N5O2S/c1-17(27(28,29)30)37-26-32-23-11-14-35(15-12-24(23)38-26)13-10-18-6-8-19(9-7-18)31-25(36)20-4-3-5-22-21(20)16-34(2)33-22/h3-5,16-19H,6-15H2,1-2H3,(H,31,36)

> <PUBCHEM_IUPAC_INCHIKEY>
QVWNZRUILCXOBY-UHFFFAOYSA-N

> <PUBCHEM_XLOGP3_AA>
5.7

> <PUBCHEM_EXACT_MASS>
549.23853100

> <PUBCHEM_MOLECULAR_FORMULA>
C27H34F3N5O2S

> <PUBCHEM_MOLECULAR_WEIGHT>
549.7

> <PUBCHEM_OPENEYE_CAN_SMILES>
CC(C(F)(F)F)OC1=NC2=C(S1)CCN(CC2)CCC3CCC(CC3)NC(=O)C4=CC=CC5=NN(C=C54)C

> <PUBCHEM_OPENEYE_ISO_SMILES>
CC(C(F)(F)F)OC1=NC2=C(S1)CCN(CC2)CCC3CCC(CC3)NC(=O)C4=CC=CC5=NN(C=C54)C

> <PUBCHEM_CACTVS_TPSA>
101

> <PUBCHEM_MONOISOTOPIC_WEIGHT>
549.23853100

> <PUBCHEM_TOTAL_CHARGE>
0

> <PUBCHEM_HEAVY_ATOM_COUNT>
38

> <PUBCHEM_ATOM_DEF_STEREO_COUNT>
0

> <PUBCHEM_ATOM_UDEF_STEREO_COUNT>
1

> <PUBCHEM_BOND_DEF_STEREO_COUNT>
0

> <PUBCHEM_BOND_UDEF_STEREO_COUNT>
0

> <PUBCHEM_ISOTOPIC_ATOM_COUNT>
0

> <PUBCHEM_COMPONENT_COUNT>
1

> <PUBCHEM_CACTVS_TAUTO_COUNT>
-1

> <PUBCHEM_COORDINATE_TYPE>
1
5
255

> <PUBCHEM_BONDANNOTATIONS>
1  25  8
1  29  8
10  11  8
10  32  8
11  31  8
25  26  8
27  28  8
27  30  8
28  31  8
28  32  8
30  33  8
31  34  8
33  34  8
35  38  3
9  26  8
9  29  8

$$$$
