75306277
  -OEChem-09292322352D

 42 46  0     1  0  0  0  0  0999 V2000
    4.2821    3.0282    0.0000 S   0  0  0  0  0  0  0  0  0  0  0  0
    4.7821    0.8375    0.0000 N   0  0  0  0  0  0  0  0  0  0  0  0
    3.9654   -2.0884    0.0000 N   0  0  3  0  0  0  0  0  0  0  0  0
    4.6461   -0.1472    0.0000 C   0  0  3  0  0  0  0  0  0  0  0  0
    3.6678   -0.3238    0.0000 C   0  0  3  0  0  0  0  0  0  0  0  0
    5.3270   -0.9273    0.0000 C   0  0  0  0  0  0  0  0  0  0  0  0
    3.3027   -1.2928    0.0000 C   0  0  0  0  0  0  0  0  0  0  0  0
    3.1960    0.5511    0.0000 C   0  0  0  0  0  0  0  0  0  0  0  0
    3.8811    1.2714    0.0000 C   0  0  0  0  0  0  0  0  0  0  0  0
    4.9844   -1.9044    0.0000 C   0  0  0  0  0  0  0  0  0  0  0  0
    5.6830    1.2714    0.0000 C   0  0  0  0  0  0  0  0  0  0  0  0
    3.6586    2.2464    0.0000 C   0  0  0  0  0  0  0  0  0  0  0  0
    2.2459    0.8293    0.0000 C   0  0  0  0  0  0  0  0  0  0  0  0
    3.6237   -3.0282    0.0000 C   0  0  0  0  0  0  0  0  0  0  0  0
    5.9056    2.2464    0.0000 C   0  0  0  0  0  0  0  0  0  0  0  0
    2.6989    2.4893    0.0000 C   0  0  0  0  0  0  0  0  0  0  0  0
    2.0000    1.7882    0.0000 C   0  0  0  0  0  0  0  0  0  0  0  0
    5.2821    3.0282    0.0000 C   0  0  0  0  0  0  0  0  0  0  0  0
    6.4356    0.5512    0.0000 C   0  0  0  0  0  0  0  0  0  0  0  0
    6.8961    2.5687    0.0000 C   0  0  0  0  0  0  0  0  0  0  0  0
    7.4333    0.8506    0.0000 C   0  0  0  0  0  0  0  0  0  0  0  0
    7.6651    1.8661    0.0000 C   0  0  0  0  0  0  0  0  0  0  0  0
    5.2402    0.0302    0.0000 H   0  0  0  0  0  0  0  0  0  0  0  0
    3.0492   -0.3654    0.0000 H   0  0  0  0  0  0  0  0  0  0  0  0
    5.8684   -1.2295    0.0000 H   0  0  0  0  0  0  0  0  0  0  0  0
    5.7175   -0.4456    0.0000 H   0  0  0  0  0  0  0  0  0  0  0  0
    2.7685   -0.9781    0.0000 H   0  0  0  0  0  0  0  0  0  0  0  0
    2.9013   -1.7653    0.0000 H   0  0  0  0  0  0  0  0  0  0  0  0
    4.9886   -2.5244    0.0000 H   0  0  0  0  0  0  0  0  0  0  0  0
    5.5960   -2.0064    0.0000 H   0  0  0  0  0  0  0  0  0  0  0  0
    1.8002    0.3983    0.0000 H   0  0  0  0  0  0  0  0  0  0  0  0
    3.0410   -2.8163    0.0000 H   0  0  0  0  0  0  0  0  0  0  0  0
    3.4118   -3.6108    0.0000 H   0  0  0  0  0  0  0  0  0  0  0  0
    4.2063   -3.2401    0.0000 H   0  0  0  0  0  0  0  0  0  0  0  0
    2.5338    3.0869    0.0000 H   0  0  0  0  0  0  0  0  0  0  0  0
    1.4019    1.9514    0.0000 H   0  0  0  0  0  0  0  0  0  0  0  0
    5.8407    3.2972    0.0000 H   0  0  0  0  0  0  0  0  0  0  0  0
    5.1441    3.6326    0.0000 H   0  0  0  0  0  0  0  0  0  0  0  0
    6.2907   -0.0516    0.0000 H   0  0  0  0  0  0  0  0  0  0  0  0
    7.0270    3.1747    0.0000 H   0  0  0  0  0  0  0  0  0  0  0  0
    7.8862    0.4271    0.0000 H   0  0  0  0  0  0  0  0  0  0  0  0
    8.2568    2.0511    0.0000 H   0  0  0  0  0  0  0  0  0  0  0  0
  1 12  1  0  0  0  0
  1 18  1  0  0  0  0
  2  4  1  0  0  0  0
  2  9  1  0  0  0  0
  2 11  1  0  0  0  0
  3  7  1  0  0  0  0
  3 10  1  0  0  0  0
  3 14  1  0  0  0  0
  4  5  1  0  0  0  0
  4  6  1  0  0  0  0
  4 23  1  0  0  0  0
  5  7  1  0  0  0  0
  5  8  1  0  0  0  0
  5 24  1  0  0  0  0
  6 10  1  0  0  0  0
  6 25  1  0  0  0  0
  6 26  1  0  0  0  0
  7 27  1  0  0  0  0
  7 28  1  0  0  0  0
  8  9  2  0  0  0  0
  8 13  1  0  0  0  0
  9 12  1  0  0  0  0
 10 29  1  0  0  0  0
 10 30  1  0  0  0  0
 11 15  1  0  0  0  0
 11 19  2  0  0  0  0
 12 16  2  0  0  0  0
 13 17  2  0  0  0  0
 13 31  1  0  0  0  0
 14 32  1  0  0  0  0
 14 33  1  0  0  0  0
 14 34  1  0  0  0  0
 15 18  1  0  0  0  0
 15 20  2  0  0  0  0
 16 17  1  0  0  0  0
 16 35  1  0  0  0  0
 17 36  1  0  0  0  0
 18 37  1  0  0  0  0
 18 38  1  0  0  0  0
 19 21  1  0  0  0  0
 19 39  1  0  0  0  0
 20 22  1  0  0  0  0
 20 40  1  0  0  0  0
 21 22  2  0  0  0  0
 21 41  1  0  0  0  0
 22 42  1  0  0  0  0
M  END
> <PUBCHEM_COMPOUND_CID>
75306277

> <PUBCHEM_COMPOUND_CANONICALIZED>
1

> <PUBCHEM_CACTVS_COMPLEXITY>
428

> <PUBCHEM_CACTVS_HBOND_ACCEPTOR>
3

> <PUBCHEM_CACTVS_HBOND_DONOR>
0

> <PUBCHEM_CACTVS_ROTATABLE_BOND>
0

> <PUBCHEM_CACTVS_SUBSKEYS>
AAADceB7AABAAAAAAAAAAAAAAAAAAWAAAAA8YIAABYAAAFixQAAAHAQAAAAADSjFWASywYMAAAiAAiRCQACCAAAhChAIiBwIZIgIIGLg0ZGEIAhggADoyAcQgMAOgAAAgAACAQAAAAEAAAQCAAAAAAAAAA==

> <PUBCHEM_IUPAC_OPENEYE_NAME>
5-methyl-13-thia-1,5-diazapentacyclo[10.8.1.02,7.08,21.015,20]henicosa-8(21),9,11,15,17,19-hexaene

> <PUBCHEM_IUPAC_CAS_NAME>
5-methyl-13-thia-1,5-diazapentacyclo[10.8.1.02,7.08,21.015,20]heneicosa-8(21),9,11,15,17,19-hexaene

> <PUBCHEM_IUPAC_NAME_MARKUP>
5-methyl-13-thia-1,5-diazapentacyclo[10.8.1.0<SUP>2,7</SUP>.0<SUP>8,21</SUP>.0<SUP>15,20</SUP>]henicosa-8(21),9,11,15,17,19-hexaene

> <PUBCHEM_IUPAC_NAME>
5-methyl-13-thia-1,5-diazapentacyclo[10.8.1.02,7.08,21.015,20]henicosa-8(21),9,11,15,17,19-hexaene

> <PUBCHEM_IUPAC_SYSTEMATIC_NAME>
5-methyl-13-thia-1,5-diazapentacyclo[10.8.1.02,7.08,21.015,20]henicosa-8(21),9,11,15,17,19-hexaene

> <PUBCHEM_IUPAC_TRADITIONAL_NAME>
5-methyl-13-thia-1,5-diazapentacyclo[10.8.1.02,7.08,21.015,20]heneicosa-8(21),9,11,15,17,19-hexaene

> <PUBCHEM_IUPAC_INCHI>
InChI=1S/C19H20N2S/c1-20-10-9-17-15(11-20)14-6-4-8-18-19(14)21(17)16-7-3-2-5-13(16)12-22-18/h2-8,15,17H,9-12H2,1H3

> <PUBCHEM_IUPAC_INCHIKEY>
YVENIGOVHPMTDH-UHFFFAOYSA-N

> <PUBCHEM_XLOGP3_AA>
3.7

> <PUBCHEM_EXACT_MASS>
308.13471982

> <PUBCHEM_MOLECULAR_FORMULA>
C19H20N2S

> <PUBCHEM_MOLECULAR_WEIGHT>
308.4

> <PUBCHEM_OPENEYE_CAN_SMILES>
CN1CCC2C(C1)C3=C4N2C5=CC=CC=C5CSC4=CC=C3

> <PUBCHEM_OPENEYE_ISO_SMILES>
CN1CCC2C(C1)C3=C4N2C5=CC=CC=C5CSC4=CC=C3

> <PUBCHEM_CACTVS_TPSA>
31.8

> <PUBCHEM_MONOISOTOPIC_WEIGHT>
308.13471982

> <PUBCHEM_TOTAL_CHARGE>
0

> <PUBCHEM_HEAVY_ATOM_COUNT>
22

> <PUBCHEM_ATOM_DEF_STEREO_COUNT>
0

> <PUBCHEM_ATOM_UDEF_STEREO_COUNT>
2

> <PUBCHEM_BOND_DEF_STEREO_COUNT>
0

> <PUBCHEM_BOND_UDEF_STEREO_COUNT>
0

> <PUBCHEM_ISOTOPIC_ATOM_COUNT>
0

> <PUBCHEM_COMPONENT_COUNT>
1

> <PUBCHEM_CACTVS_TAUTO_COUNT>
-1

> <PUBCHEM_COORDINATE_TYPE>
1
5
255

> <PUBCHEM_BONDANNOTATIONS>
11  15  8
11  19  8
12  16  8
13  17  8
15  20  8
16  17  8
19  21  8
20  22  8
21  22  8
4  6  3
5  7  3
8  13  8
8  9  8
9  12  8

$$$$
