46881408
  -OEChem-09292321592D

 46 48  0     0  0  0  0  0  0999 V2000
    2.0000   -2.9057    0.0000 Cl  0  0  0  0  0  0  0  0  0  0  0  0
    2.8135   -4.7328    0.0000 F   0  0  0  0  0  0  0  0  0  0  0  0
    3.9045   -0.2366    0.0000 O   0  0  0  0  0  0  0  0  0  0  0  0
    6.5306    2.5421    0.0000 N   0  0  0  0  0  0  0  0  0  0  0  0
    5.6646    0.0421    0.0000 N   0  0  0  0  0  0  0  0  0  0  0  0
    5.1646   -1.4967    0.0000 N   0  0  0  0  0  0  0  0  0  0  0  0
    5.6297    2.9760    0.0000 C   0  0  0  0  0  0  0  0  0  0  0  0
    7.4316    2.9760    0.0000 C   0  0  0  0  0  0  0  0  0  0  0  0
    6.5306    1.5421    0.0000 C   0  0  0  0  0  0  0  0  0  0  0  0
    5.4072    3.9509    0.0000 C   0  0  0  0  0  0  0  0  0  0  0  0
    7.6541    3.9509    0.0000 C   0  0  0  0  0  0  0  0  0  0  0  0
    6.0306    4.7328    0.0000 C   0  0  0  0  0  0  0  0  0  0  0  0
    7.0306    4.7328    0.0000 C   0  0  0  0  0  0  0  0  0  0  0  0
    5.6646    1.0421    0.0000 C   0  0  0  0  0  0  0  0  0  0  0  0
    6.4736   -0.5457    0.0000 C   0  0  0  0  0  0  0  0  0  0  0  0
    6.1646   -1.4967    0.0000 C   0  0  0  0  0  0  0  0  0  0  0  0
    4.8556   -0.5457    0.0000 C   0  0  0  0  0  0  0  0  0  0  0  0
    4.5768   -2.3057    0.0000 C   0  0  0  0  0  0  0  0  0  0  0  0
    3.5823   -2.2012    0.0000 C   0  0  0  0  0  0  0  0  0  0  0  0
    4.9836   -3.2193    0.0000 C   0  0  0  0  0  0  0  0  0  0  0  0
    2.9945   -3.0102    0.0000 C   0  0  0  0  0  0  0  0  0  0  0  0
    4.3958   -4.0283    0.0000 C   0  0  0  0  0  0  0  0  0  0  0  0
    3.4013   -3.9238    0.0000 C   0  0  0  0  0  0  0  0  0  0  0  0
    5.0097    2.9760    0.0000 H   0  0  0  0  0  0  0  0  0  0  0  0
    5.4917    2.3716    0.0000 H   0  0  0  0  0  0  0  0  0  0  0  0
    7.5696    2.3716    0.0000 H   0  0  0  0  0  0  0  0  0  0  0  0
    8.0516    2.9760    0.0000 H   0  0  0  0  0  0  0  0  0  0  0  0
    6.7427    0.9595    0.0000 H   0  0  0  0  0  0  0  0  0  0  0  0
    7.1412    1.6498    0.0000 H   0  0  0  0  0  0  0  0  0  0  0  0
    5.0206    4.4357    0.0000 H   0  0  0  0  0  0  0  0  0  0  0  0
    4.8486    3.6819    0.0000 H   0  0  0  0  0  0  0  0  0  0  0  0
    8.2127    3.6819    0.0000 H   0  0  0  0  0  0  0  0  0  0  0  0
    8.0407    4.4357    0.0000 H   0  0  0  0  0  0  0  0  0  0  0  0
    6.1686    5.3372    0.0000 H   0  0  0  0  0  0  0  0  0  0  0  0
    5.4720    5.0018    0.0000 H   0  0  0  0  0  0  0  0  0  0  0  0
    7.5892    5.0018    0.0000 H   0  0  0  0  0  0  0  0  0  0  0  0
    6.8927    5.3372    0.0000 H   0  0  0  0  0  0  0  0  0  0  0  0
    5.4526    1.6247    0.0000 H   0  0  0  0  0  0  0  0  0  0  0  0
    5.0540    0.9345    0.0000 H   0  0  0  0  0  0  0  0  0  0  0  0
    7.0400   -0.7978    0.0000 H   0  0  0  0  0  0  0  0  0  0  0  0
    6.7836   -0.0087    0.0000 H   0  0  0  0  0  0  0  0  0  0  0  0
    6.0998   -2.1133    0.0000 H   0  0  0  0  0  0  0  0  0  0  0  0
    6.7711   -1.6256    0.0000 H   0  0  0  0  0  0  0  0  0  0  0  0
    3.3301   -1.6348    0.0000 H   0  0  0  0  0  0  0  0  0  0  0  0
    5.6002   -3.2841    0.0000 H   0  0  0  0  0  0  0  0  0  0  0  0
    4.6480   -4.5947    0.0000 H   0  0  0  0  0  0  0  0  0  0  0  0
  1 21  1  0  0  0  0
  2 23  1  0  0  0  0
  3 17  2  0  0  0  0
  4  7  1  0  0  0  0
  4  8  1  0  0  0  0
  4  9  1  0  0  0  0
  5 14  1  0  0  0  0
  5 15  1  0  0  0  0
  5 17  1  0  0  0  0
  6 16  1  0  0  0  0
  6 17  1  0  0  0  0
  6 18  1  0  0  0  0
  7 10  1  0  0  0  0
  7 24  1  0  0  0  0
  7 25  1  0  0  0  0
  8 11  1  0  0  0  0
  8 26  1  0  0  0  0
  8 27  1  0  0  0  0
  9 14  1  0  0  0  0
  9 28  1  0  0  0  0
  9 29  1  0  0  0  0
 10 12  1  0  0  0  0
 10 30  1  0  0  0  0
 10 31  1  0  0  0  0
 11 13  1  0  0  0  0
 11 32  1  0  0  0  0
 11 33  1  0  0  0  0
 12 13  1  0  0  0  0
 12 34  1  0  0  0  0
 12 35  1  0  0  0  0
 13 36  1  0  0  0  0
 13 37  1  0  0  0  0
 14 38  1  0  0  0  0
 14 39  1  0  0  0  0
 15 16  1  0  0  0  0
 15 40  1  0  0  0  0
 15 41  1  0  0  0  0
 16 42  1  0  0  0  0
 16 43  1  0  0  0  0
 18 19  2  0  0  0  0
 18 20  1  0  0  0  0
 19 21  1  0  0  0  0
 19 44  1  0  0  0  0
 20 22  2  0  0  0  0
 20 45  1  0  0  0  0
 21 23  2  0  0  0  0
 22 23  1  0  0  0  0
 22 46  1  0  0  0  0
M  END
> <PUBCHEM_COMPOUND_CID>
46881408

> <PUBCHEM_COMPOUND_CANONICALIZED>
1

> <PUBCHEM_CACTVS_COMPLEXITY>
403

> <PUBCHEM_CACTVS_HBOND_ACCEPTOR>
3

> <PUBCHEM_CACTVS_HBOND_DONOR>
0

> <PUBCHEM_CACTVS_ROTATABLE_BOND>
4

> <PUBCHEM_CACTVS_SUBSKEYS>
AAADceB7IQAEAAAAAAAAAAAAAAAAAWAAAAAwAAAABYAAAAABAAAAHwIAAAAACArBECwxwIMAAACIACRCUACCAAAhBwAIiAAIZoiIYCLBk5GUIAhohgLIyCcQAAAAAAAAAAIAAAAAAAAABAAAAAAAAAAAAA==

> <PUBCHEM_IUPAC_OPENEYE_NAME>
1-[2-(azepan-1-yl)ethyl]-3-(3-chloro-4-fluoro-phenyl)imidazolidin-2-one

> <PUBCHEM_IUPAC_CAS_NAME>
1-[2-(1-azepanyl)ethyl]-3-(3-chloro-4-fluorophenyl)-2-imidazolidinone

> <PUBCHEM_IUPAC_NAME_MARKUP>
1-[2-(azepan-1-yl)ethyl]-3-(3-chloro-4-fluorophenyl)imidazolidin-2-one

> <PUBCHEM_IUPAC_NAME>
1-[2-(azepan-1-yl)ethyl]-3-(3-chloro-4-fluorophenyl)imidazolidin-2-one

> <PUBCHEM_IUPAC_SYSTEMATIC_NAME>
1-[2-(azepan-1-yl)ethyl]-3-(3-chloranyl-4-fluoranyl-phenyl)imidazolidin-2-one

> <PUBCHEM_IUPAC_TRADITIONAL_NAME>
1-[2-(azepan-1-yl)ethyl]-3-(3-chloro-4-fluoro-phenyl)-2-imidazolidinone

> <PUBCHEM_IUPAC_INCHI>
InChI=1S/C17H23ClFN3O/c18-15-13-14(5-6-16(15)19)22-12-11-21(17(22)23)10-9-20-7-3-1-2-4-8-20/h5-6,13H,1-4,7-12H2

> <PUBCHEM_IUPAC_INCHIKEY>
RITZJRAUYHPYLW-UHFFFAOYSA-N

> <PUBCHEM_XLOGP3_AA>
3

> <PUBCHEM_EXACT_MASS>
339.1513682

> <PUBCHEM_MOLECULAR_FORMULA>
C17H23ClFN3O

> <PUBCHEM_MOLECULAR_WEIGHT>
339.8

> <PUBCHEM_OPENEYE_CAN_SMILES>
C1CCCN(CC1)CCN2CCN(C2=O)C3=CC(=C(C=C3)F)Cl

> <PUBCHEM_OPENEYE_ISO_SMILES>
C1CCCN(CC1)CCN2CCN(C2=O)C3=CC(=C(C=C3)F)Cl

> <PUBCHEM_CACTVS_TPSA>
26.8

> <PUBCHEM_MONOISOTOPIC_WEIGHT>
339.1513682

> <PUBCHEM_TOTAL_CHARGE>
0

> <PUBCHEM_HEAVY_ATOM_COUNT>
23

> <PUBCHEM_ATOM_DEF_STEREO_COUNT>
0

> <PUBCHEM_ATOM_UDEF_STEREO_COUNT>
0

> <PUBCHEM_BOND_DEF_STEREO_COUNT>
0

> <PUBCHEM_BOND_UDEF_STEREO_COUNT>
0

> <PUBCHEM_ISOTOPIC_ATOM_COUNT>
0

> <PUBCHEM_COMPONENT_COUNT>
1

> <PUBCHEM_CACTVS_TAUTO_COUNT>
-1

> <PUBCHEM_COORDINATE_TYPE>
1
5
255

> <PUBCHEM_BONDANNOTATIONS>
18  19  8
18  20  8
19  21  8
20  22  8
21  23  8
22  23  8

$$$$
