162651292
  -OEChem-09292322422D

 57 61  0     1  0  0  0  0  0999 V2000
   10.5630   -0.5108    0.0000 S   0  0  0  0  0  0  0  0  0  0  0  0
    9.5630   -0.5108    0.0000 O   0  0  0  0  0  0  0  0  0  0  0  0
   11.5630   -0.5108    0.0000 O   0  0  0  0  0  0  0  0  0  0  0  0
    4.4550    4.2661    0.0000 O   0  0  0  0  0  0  0  0  0  0  0  0
    8.1143    1.3256    0.0000 N   0  0  3  0  0  0  0  0  0  0  0  0
   10.5630    0.4892    0.0000 N   0  0  0  0  0  0  0  0  0  0  0  0
   12.3752   -3.3156    0.0000 N   0  0  0  0  0  0  0  0  0  0  0  0
    5.2577    3.6797    0.0000 N   0  0  0  0  0  0  0  0  0  0  0  0
    9.6969    0.9892    0.0000 C   0  0  2  0  0  0  0  0  0  0  0  0
    8.7834    0.5824    0.0000 C   0  0  0  0  0  0  0  0  0  0  0  0
    9.5924    1.9837    0.0000 C   0  0  0  0  0  0  0  0  0  0  0  0
    8.6143    2.1916    0.0000 C   0  0  0  0  0  0  0  0  0  0  0  0
    7.1197    1.2210    0.0000 C   0  0  0  0  0  0  0  0  0  0  0  0
    6.5320    2.0301    0.0000 C   0  0  0  0  0  0  0  0  0  0  0  0
    5.5374    1.9255    0.0000 C   0  0  0  0  0  0  0  0  0  0  0  0
   10.5630   -1.5108    0.0000 C   0  0  0  0  0  0  0  0  0  0  0  0
   11.4290   -2.0108    0.0000 C   0  0  0  0  0  0  0  0  0  0  0  0
    4.9496    2.7345    0.0000 C   0  0  0  0  0  0  0  0  0  0  0  0
   11.4290   -3.0108    0.0000 C   0  0  0  0  0  0  0  0  0  0  0  0
    9.6969   -2.0108    0.0000 C   0  0  0  0  0  0  0  0  0  0  0  0
   12.3752   -1.7061    0.0000 C   0  0  0  0  0  0  0  0  0  0  0  0
    3.9556    2.7337    0.0000 C   0  0  0  0  0  0  0  0  0  0  0  0
   10.5630   -3.5108    0.0000 C   0  0  0  0  0  0  0  0  0  0  0  0
    9.6969   -3.0108    0.0000 C   0  0  0  0  0  0  0  0  0  0  0  0
   12.9588   -2.5108    0.0000 C   0  0  0  0  0  0  0  0  0  0  0  0
    3.6482    3.6853    0.0000 C   0  0  0  0  0  0  0  0  0  0  0  0
   12.6859   -4.2661    0.0000 C   0  0  0  0  0  0  0  0  0  0  0  0
    3.2852    1.9917    0.0000 C   0  0  0  0  0  0  0  0  0  0  0  0
    2.6704    3.8949    0.0000 C   0  0  0  0  0  0  0  0  0  0  0  0
    2.3074    2.2013    0.0000 C   0  0  0  0  0  0  0  0  0  0  0  0
    2.0000    3.1529    0.0000 C   0  0  0  0  0  0  0  0  0  0  0  0
   10.2169    1.3268    0.0000 H   0  0  0  0  0  0  0  0  0  0  0  0
    8.2818    0.2180    0.0000 H   0  0  0  0  0  0  0  0  0  0  0  0
    9.0934    0.0455    0.0000 H   0  0  0  0  0  0  0  0  0  0  0  0
   10.2124    1.9837    0.0000 H   0  0  0  0  0  0  0  0  0  0  0  0
    9.6572    2.6003    0.0000 H   0  0  0  0  0  0  0  0  0  0  0  0
    8.8059    2.7812    0.0000 H   0  0  0  0  0  0  0  0  0  0  0  0
    8.0479    2.4438    0.0000 H   0  0  0  0  0  0  0  0  0  0  0  0
    6.5625    0.9492    0.0000 H   0  0  0  0  0  0  0  0  0  0  0  0
    7.2906    0.6251    0.0000 H   0  0  0  0  0  0  0  0  0  0  0  0
   11.0999    0.7992    0.0000 H   0  0  0  0  0  0  0  0  0  0  0  0
    7.0892    2.3018    0.0000 H   0  0  0  0  0  0  0  0  0  0  0  0
    6.3611    2.6260    0.0000 H   0  0  0  0  0  0  0  0  0  0  0  0
    4.9802    1.6537    0.0000 H   0  0  0  0  0  0  0  0  0  0  0  0
    5.7083    1.3295    0.0000 H   0  0  0  0  0  0  0  0  0  0  0  0
    9.1600   -1.7008    0.0000 H   0  0  0  0  0  0  0  0  0  0  0  0
   12.5678   -1.1168    0.0000 H   0  0  0  0  0  0  0  0  0  0  0  0
   10.5630   -4.1308    0.0000 H   0  0  0  0  0  0  0  0  0  0  0  0
    9.1600   -3.3208    0.0000 H   0  0  0  0  0  0  0  0  0  0  0  0
   13.5788   -2.5108    0.0000 H   0  0  0  0  0  0  0  0  0  0  0  0
   12.0966   -4.4587    0.0000 H   0  0  0  0  0  0  0  0  0  0  0  0
   12.8785   -4.8554    0.0000 H   0  0  0  0  0  0  0  0  0  0  0  0
   13.2752   -4.0735    0.0000 H   0  0  0  0  0  0  0  0  0  0  0  0
    3.4757    1.4017    0.0000 H   0  0  0  0  0  0  0  0  0  0  0  0
    2.4798    4.4849    0.0000 H   0  0  0  0  0  0  0  0  0  0  0  0
    1.8917    1.7413    0.0000 H   0  0  0  0  0  0  0  0  0  0  0  0
    1.3938    3.2828    0.0000 H   0  0  0  0  0  0  0  0  0  0  0  0
  1  2  2  0  0  0  0
  1  3  2  0  0  0  0
  1  6  1  0  0  0  0
  1 16  1  0  0  0  0
  4  8  1  0  0  0  0
  4 26  1  0  0  0  0
  5 10  1  0  0  0  0
  5 12  1  0  0  0  0
  5 13  1  0  0  0  0
  9  6  1  6  0  0  0
  6 41  1  0  0  0  0
  7 19  1  0  0  0  0
  7 25  1  0  0  0  0
  7 27  1  0  0  0  0
  8 18  2  0  0  0  0
  9 10  1  0  0  0  0
  9 11  1  0  0  0  0
  9 32  1  0  0  0  0
 10 33  1  0  0  0  0
 10 34  1  0  0  0  0
 11 12  1  0  0  0  0
 11 35  1  0  0  0  0
 11 36  1  0  0  0  0
 12 37  1  0  0  0  0
 12 38  1  0  0  0  0
 13 14  1  0  0  0  0
 13 39  1  0  0  0  0
 13 40  1  0  0  0  0
 14 15  1  0  0  0  0
 14 42  1  0  0  0  0
 14 43  1  0  0  0  0
 15 18  1  0  0  0  0
 15 44  1  0  0  0  0
 15 45  1  0  0  0  0
 16 17  1  0  0  0  0
 16 20  2  0  0  0  0
 17 19  2  0  0  0  0
 17 21  1  0  0  0  0
 18 22  1  0  0  0  0
 19 23  1  0  0  0  0
 20 24  1  0  0  0  0
 20 46  1  0  0  0  0
 21 25  2  0  0  0  0
 21 47  1  0  0  0  0
 22 26  1  0  0  0  0
 22 28  2  0  0  0  0
 23 24  2  0  0  0  0
 23 48  1  0  0  0  0
 24 49  1  0  0  0  0
 25 50  1  0  0  0  0
 26 29  2  0  0  0  0
 27 51  1  0  0  0  0
 27 52  1  0  0  0  0
 27 53  1  0  0  0  0
 28 30  1  0  0  0  0
 28 54  1  0  0  0  0
 29 31  1  0  0  0  0
 29 55  1  0  0  0  0
 30 31  2  0  0  0  0
 30 56  1  0  0  0  0
 31 57  1  0  0  0  0
M  END
> <PUBCHEM_COMPOUND_CID>
162651292

> <PUBCHEM_COMPOUND_CANONICALIZED>
1

> <PUBCHEM_CACTVS_COMPLEXITY>
714

> <PUBCHEM_CACTVS_HBOND_ACCEPTOR>
6

> <PUBCHEM_CACTVS_HBOND_DONOR>
1

> <PUBCHEM_CACTVS_ROTATABLE_BOND>
7

> <PUBCHEM_CACTVS_SUBSKEYS>
AAADceB7sABAAAAAAAAAAAAAAAAAAWLFgAAwYAAAAAAAAFgB/gAAHgQUQAAADCzB3gQ+x/NcEAKpA7R3RnDCgDA1IiAo2Lk+bNoIZvrA1ZOUMYxm0BnIyceYyKCOAAAAACAOAAAAAAAAQBwAAAAAAAAAAA==

> <PUBCHEM_IUPAC_OPENEYE_NAME>
N-[(3S)-1-[3-(1,2-benzoxazol-3-yl)propyl]pyrrolidin-3-yl]-1-methyl-indole-4-sulfonamide

> <PUBCHEM_IUPAC_CAS_NAME>
N-[(3S)-1-[3-(1,2-benzoxazol-3-yl)propyl]-3-pyrrolidinyl]-1-methyl-4-indolesulfonamide

> <PUBCHEM_IUPAC_NAME_MARKUP>
<I>N</I>-[(3<I>S</I>)-1-[3-(1,2-benzoxazol-3-yl)propyl]pyrrolidin-3-yl]-1-methylindole-4-sulfonamide

> <PUBCHEM_IUPAC_NAME>
N-[(3S)-1-[3-(1,2-benzoxazol-3-yl)propyl]pyrrolidin-3-yl]-1-methylindole-4-sulfonamide

> <PUBCHEM_IUPAC_SYSTEMATIC_NAME>
N-[(3S)-1-[3-(1,2-benzoxazol-3-yl)propyl]pyrrolidin-3-yl]-1-methyl-indole-4-sulfonamide

> <PUBCHEM_IUPAC_TRADITIONAL_NAME>
N-[(3S)-1-(3-indoxazen-3-ylpropyl)pyrrolidin-3-yl]-1-methyl-indole-4-sulfonamide

> <PUBCHEM_IUPAC_INCHI>
InChI=1S/C23H26N4O3S/c1-26-14-12-19-21(26)8-4-10-23(19)31(28,29)25-17-11-15-27(16-17)13-5-7-20-18-6-2-3-9-22(18)30-24-20/h2-4,6,8-10,12,14,17,25H,5,7,11,13,15-16H2,1H3/t17-/m0/s1

> <PUBCHEM_IUPAC_INCHIKEY>
RDXPMJJNBGHREI-KRWDZBQOSA-N

> <PUBCHEM_XLOGP3_AA>
3.3

> <PUBCHEM_EXACT_MASS>
438.17256188

> <PUBCHEM_MOLECULAR_FORMULA>
C23H26N4O3S

> <PUBCHEM_MOLECULAR_WEIGHT>
438.5

> <PUBCHEM_OPENEYE_CAN_SMILES>
CN1C=CC2=C1C=CC=C2S(=O)(=O)NC3CCN(C3)CCCC4=NOC5=CC=CC=C54

> <PUBCHEM_OPENEYE_ISO_SMILES>
CN1C=CC2=C1C=CC=C2S(=O)(=O)N[C@H]3CCN(C3)CCCC4=NOC5=CC=CC=C54

> <PUBCHEM_CACTVS_TPSA>
88.8

> <PUBCHEM_MONOISOTOPIC_WEIGHT>
438.17256188

> <PUBCHEM_TOTAL_CHARGE>
0

> <PUBCHEM_HEAVY_ATOM_COUNT>
31

> <PUBCHEM_ATOM_DEF_STEREO_COUNT>
1

> <PUBCHEM_ATOM_UDEF_STEREO_COUNT>
0

> <PUBCHEM_BOND_DEF_STEREO_COUNT>
0

> <PUBCHEM_BOND_UDEF_STEREO_COUNT>
0

> <PUBCHEM_ISOTOPIC_ATOM_COUNT>
0

> <PUBCHEM_COMPONENT_COUNT>
1

> <PUBCHEM_CACTVS_TAUTO_COUNT>
-1

> <PUBCHEM_COORDINATE_TYPE>
1
5
255

> <PUBCHEM_BONDANNOTATIONS>
16  17  8
16  20  8
17  19  8
17  21  8
18  22  8
19  23  8
20  24  8
21  25  8
22  26  8
22  28  8
23  24  8
26  29  8
28  30  8
29  31  8
30  31  8
4  26  8
4  8  8
9  6  6
7  19  8
7  25  8
8  18  8

$$$$
