10826290
  -OEChem-09292322512D

 37 39  0     0  0  0  0  0  0999 V2000
    6.2498    4.3874    0.0000 Cl  0  0  0  0  0  0  0  0  0  0  0  0
    3.3987   -3.3874    0.0000 N   0  0  0  0  0  0  0  0  0  0  0  0
    2.5896    0.2003    0.0000 N   0  0  0  0  0  0  0  0  0  0  0  0
    2.8987    1.1514    0.0000 N   0  0  0  0  0  0  0  0  0  0  0  0
    3.3987   -1.3874    0.0000 C   0  0  0  0  0  0  0  0  0  0  0  0
    4.2647   -1.8874    0.0000 C   0  0  0  0  0  0  0  0  0  0  0  0
    2.5326   -1.8874    0.0000 C   0  0  0  0  0  0  0  0  0  0  0  0
    4.2647   -2.8874    0.0000 C   0  0  0  0  0  0  0  0  0  0  0  0
    2.5326   -2.8874    0.0000 C   0  0  0  0  0  0  0  0  0  0  0  0
    3.3987   -0.3875    0.0000 C   0  0  0  0  0  0  0  0  0  0  0  0
    3.3987   -4.3874    0.0000 C   0  0  0  0  0  0  0  0  0  0  0  0
    4.2077    0.2003    0.0000 C   0  0  0  0  0  0  0  0  0  0  0  0
    3.8987    1.1514    0.0000 C   0  0  0  0  0  0  0  0  0  0  0  0
    4.4865    1.9604    0.0000 C   0  0  0  0  0  0  0  0  0  0  0  0
    5.4810    1.8559    0.0000 C   0  0  0  0  0  0  0  0  0  0  0  0
    4.0797    2.8739    0.0000 C   0  0  0  0  0  0  0  0  0  0  0  0
    6.0688    2.6649    0.0000 C   0  0  0  0  0  0  0  0  0  0  0  0
    4.6675    3.6830    0.0000 C   0  0  0  0  0  0  0  0  0  0  0  0
    5.6620    3.5784    0.0000 C   0  0  0  0  0  0  0  0  0  0  0  0
    3.9356   -1.0774    0.0000 H   0  0  0  0  0  0  0  0  0  0  0  0
    4.8753   -1.9951    0.0000 H   0  0  0  0  0  0  0  0  0  0  0  0
    4.4768   -1.3048    0.0000 H   0  0  0  0  0  0  0  0  0  0  0  0
    2.3206   -1.3048    0.0000 H   0  0  0  0  0  0  0  0  0  0  0  0
    1.9221   -1.9951    0.0000 H   0  0  0  0  0  0  0  0  0  0  0  0
    4.4768   -3.4701    0.0000 H   0  0  0  0  0  0  0  0  0  0  0  0
    4.8753   -2.7798    0.0000 H   0  0  0  0  0  0  0  0  0  0  0  0
    1.9221   -2.7798    0.0000 H   0  0  0  0  0  0  0  0  0  0  0  0
    2.3206   -3.4701    0.0000 H   0  0  0  0  0  0  0  0  0  0  0  0
    2.7787   -4.3874    0.0000 H   0  0  0  0  0  0  0  0  0  0  0  0
    3.3987   -5.0075    0.0000 H   0  0  0  0  0  0  0  0  0  0  0  0
    4.0187   -4.3874    0.0000 H   0  0  0  0  0  0  0  0  0  0  0  0
    4.7973    0.0087    0.0000 H   0  0  0  0  0  0  0  0  0  0  0  0
    2.0000    0.0087    0.0000 H   0  0  0  0  0  0  0  0  0  0  0  0
    5.7332    1.2895    0.0000 H   0  0  0  0  0  0  0  0  0  0  0  0
    3.4631    2.9388    0.0000 H   0  0  0  0  0  0  0  0  0  0  0  0
    6.6854    2.6001    0.0000 H   0  0  0  0  0  0  0  0  0  0  0  0
    4.4153    4.2494    0.0000 H   0  0  0  0  0  0  0  0  0  0  0  0
  1 19  1  0  0  0  0
  2  8  1  0  0  0  0
  2  9  1  0  0  0  0
  2 11  1  0  0  0  0
  3  4  1  0  0  0  0
  3 10  1  0  0  0  0
  3 33  1  0  0  0  0
  4 13  2  0  0  0  0
  5  6  1  0  0  0  0
  5  7  1  0  0  0  0
  5 10  1  0  0  0  0
  5 20  1  0  0  0  0
  6  8  1  0  0  0  0
  6 21  1  0  0  0  0
  6 22  1  0  0  0  0
  7  9  1  0  0  0  0
  7 23  1  0  0  0  0
  7 24  1  0  0  0  0
  8 25  1  0  0  0  0
  8 26  1  0  0  0  0
  9 27  1  0  0  0  0
  9 28  1  0  0  0  0
 10 12  2  0  0  0  0
 11 29  1  0  0  0  0
 11 30  1  0  0  0  0
 11 31  1  0  0  0  0
 12 13  1  0  0  0  0
 12 32  1  0  0  0  0
 13 14  1  0  0  0  0
 14 15  2  0  0  0  0
 14 16  1  0  0  0  0
 15 17  1  0  0  0  0
 15 34  1  0  0  0  0
 16 18  2  0  0  0  0
 16 35  1  0  0  0  0
 17 19  2  0  0  0  0
 17 36  1  0  0  0  0
 18 19  1  0  0  0  0
 18 37  1  0  0  0  0
M  END
> <PUBCHEM_COMPOUND_CID>
10826290

> <PUBCHEM_COMPOUND_CANONICALIZED>
1

> <PUBCHEM_CACTVS_COMPLEXITY>
283

> <PUBCHEM_CACTVS_HBOND_ACCEPTOR>
2

> <PUBCHEM_CACTVS_HBOND_DONOR>
1

> <PUBCHEM_CACTVS_ROTATABLE_BOND>
2

> <PUBCHEM_CACTVS_SUBSKEYS>
AAADceBzAAAEAAAAAAAAAAAAAAAAAWAAAAA8QAAAAAAAAAABwAAAHAIYAAAADQrBHiQygJNjAACiAyRiQACSBAAgBwAYuSA4ZpgIIKKB09GEpABgmACIyAcQgMAOBAAAAAAAAAAIAAAAAAAAAAAAAAAAAA==

> <PUBCHEM_IUPAC_OPENEYE_NAME>
4-[3-(4-chlorophenyl)-1H-pyrazol-5-yl]-1-methyl-piperidine

> <PUBCHEM_IUPAC_CAS_NAME>
4-[3-(4-chlorophenyl)-1H-pyrazol-5-yl]-1-methylpiperidine

> <PUBCHEM_IUPAC_NAME_MARKUP>
4-[3-(4-chlorophenyl)-1<I>H</I>-pyrazol-5-yl]-1-methylpiperidine

> <PUBCHEM_IUPAC_NAME>
4-[3-(4-chlorophenyl)-1H-pyrazol-5-yl]-1-methylpiperidine

> <PUBCHEM_IUPAC_SYSTEMATIC_NAME>
4-[3-(4-chlorophenyl)-1H-pyrazol-5-yl]-1-methyl-piperidine

> <PUBCHEM_IUPAC_TRADITIONAL_NAME>
4-[3-(4-chlorophenyl)-1H-pyrazol-5-yl]-1-methyl-piperidine

> <PUBCHEM_IUPAC_INCHI>
InChI=1S/C15H18ClN3/c1-19-8-6-12(7-9-19)15-10-14(17-18-15)11-2-4-13(16)5-3-11/h2-5,10,12H,6-9H2,1H3,(H,17,18)

> <PUBCHEM_IUPAC_INCHIKEY>
HSWZTUYZQLIVNT-UHFFFAOYSA-N

> <PUBCHEM_XLOGP3_AA>
3.1

> <PUBCHEM_EXACT_MASS>
275.1189253

> <PUBCHEM_MOLECULAR_FORMULA>
C15H18ClN3

> <PUBCHEM_MOLECULAR_WEIGHT>
275.77

> <PUBCHEM_OPENEYE_CAN_SMILES>
CN1CCC(CC1)C2=CC(=NN2)C3=CC=C(C=C3)Cl

> <PUBCHEM_OPENEYE_ISO_SMILES>
CN1CCC(CC1)C2=CC(=NN2)C3=CC=C(C=C3)Cl

> <PUBCHEM_CACTVS_TPSA>
31.9

> <PUBCHEM_MONOISOTOPIC_WEIGHT>
275.1189253

> <PUBCHEM_TOTAL_CHARGE>
0

> <PUBCHEM_HEAVY_ATOM_COUNT>
19

> <PUBCHEM_ATOM_DEF_STEREO_COUNT>
0

> <PUBCHEM_ATOM_UDEF_STEREO_COUNT>
0

> <PUBCHEM_BOND_DEF_STEREO_COUNT>
0

> <PUBCHEM_BOND_UDEF_STEREO_COUNT>
0

> <PUBCHEM_ISOTOPIC_ATOM_COUNT>
0

> <PUBCHEM_COMPONENT_COUNT>
1

> <PUBCHEM_CACTVS_TAUTO_COUNT>
-1

> <PUBCHEM_COORDINATE_TYPE>
1
5
255

> <PUBCHEM_BONDANNOTATIONS>
10  12  8
12  13  8
14  15  8
14  16  8
15  17  8
16  18  8
17  19  8
18  19  8
3  10  8
3  4  8
4  13  8

$$$$
