4795178
  -OEChem-09292322082D

 35 38  0     0  0  0  0  0  0999 V2000
    5.1998    2.0802    0.0000 S   0  0  0  0  0  0  0  0  0  0  0  0
    3.9770   -1.0746    0.0000 N   0  0  0  0  0  0  0  0  0  0  0  0
    5.7410   -0.9272    0.0000 N   0  0  0  0  0  0  0  0  0  0  0  0
    6.4668    0.7201    0.0000 N   0  0  0  0  0  0  0  0  0  0  0  0
    4.0700   -2.0702    0.0000 C   0  0  0  0  0  0  0  0  0  0  0  0
    4.6484   -2.8860    0.0000 C   0  0  0  0  0  0  0  0  0  0  0  0
    3.6527   -2.9790    0.0000 C   0  0  0  0  0  0  0  0  0  0  0  0
    3.8908    1.1291    0.0000 C   0  0  0  0  0  0  0  0  0  0  0  0
    4.6998    0.5413    0.0000 C   0  0  0  0  0  0  0  0  0  0  0  0
    4.7927   -0.4962    0.0000 C   0  0  0  0  0  0  0  0  0  0  0  0
    2.9703    0.7907    0.0000 C   0  0  0  0  0  0  0  0  0  0  0  0
    2.1304    1.2971    0.0000 C   0  0  0  0  0  0  0  0  0  0  0  0
    4.1998    2.0802    0.0000 C   0  0  0  0  0  0  0  0  0  0  0  0
    2.0000    2.2692    0.0000 C   0  0  0  0  0  0  0  0  0  0  0  0
    3.6540    2.8950    0.0000 C   0  0  0  0  0  0  0  0  0  0  0  0
    2.6768    2.9790    0.0000 C   0  0  0  0  0  0  0  0  0  0  0  0
    5.5088    1.1291    0.0000 C   0  0  0  0  0  0  0  0  0  0  0  0
    6.5837   -0.3149    0.0000 C   0  0  0  0  0  0  0  0  0  0  0  0
    4.6514   -1.8548    0.0000 H   0  0  0  0  0  0  0  0  0  0  0  0
    4.8124   -3.4839    0.0000 H   0  0  0  0  0  0  0  0  0  0  0  0
    5.2088   -2.6207    0.0000 H   0  0  0  0  0  0  0  0  0  0  0  0
    3.0529   -2.8221    0.0000 H   0  0  0  0  0  0  0  0  0  0  0  0
    3.6023   -3.5970    0.0000 H   0  0  0  0  0  0  0  0  0  0  0  0
    3.4135   -0.8159    0.0000 H   0  0  0  0  0  0  0  0  0  0  0  0
    2.5396    0.3446    0.0000 H   0  0  0  0  0  0  0  0  0  0  0  0
    3.3088    0.2712    0.0000 H   0  0  0  0  0  0  0  0  0  0  0  0
    1.5130    1.3541    0.0000 H   0  0  0  0  0  0  0  0  0  0  0  0
    1.9369    0.7080    0.0000 H   0  0  0  0  0  0  0  0  0  0  0  0
    1.6582    2.7865    0.0000 H   0  0  0  0  0  0  0  0  0  0  0  0
    1.4194    2.0516    0.0000 H   0  0  0  0  0  0  0  0  0  0  0  0
    4.2332    3.1163    0.0000 H   0  0  0  0  0  0  0  0  0  0  0  0
    3.5678    3.5090    0.0000 H   0  0  0  0  0  0  0  0  0  0  0  0
    2.8666    3.5693    0.0000 H   0  0  0  0  0  0  0  0  0  0  0  0
    2.1439    3.2958    0.0000 H   0  0  0  0  0  0  0  0  0  0  0  0
    7.1511   -0.5649    0.0000 H   0  0  0  0  0  0  0  0  0  0  0  0
  1 13  1  0  0  0  0
  1 17  1  0  0  0  0
  2  5  1  0  0  0  0
  2 10  1  0  0  0  0
  2 24  1  0  0  0  0
  3 10  1  0  0  0  0
  3 18  2  0  0  0  0
  4 17  2  0  0  0  0
  4 18  1  0  0  0  0
  5  6  1  0  0  0  0
  5  7  1  0  0  0  0
  5 19  1  0  0  0  0
  6  7  1  0  0  0  0
  6 20  1  0  0  0  0
  6 21  1  0  0  0  0
  7 22  1  0  0  0  0
  7 23  1  0  0  0  0
  8  9  1  0  0  0  0
  8 11  1  0  0  0  0
  8 13  2  0  0  0  0
  9 10  2  0  0  0  0
  9 17  1  0  0  0  0
 11 12  1  0  0  0  0
 11 25  1  0  0  0  0
 11 26  1  0  0  0  0
 12 14  1  0  0  0  0
 12 27  1  0  0  0  0
 12 28  1  0  0  0  0
 13 15  1  0  0  0  0
 14 16  1  0  0  0  0
 14 29  1  0  0  0  0
 14 30  1  0  0  0  0
 15 16  1  0  0  0  0
 15 31  1  0  0  0  0
 15 32  1  0  0  0  0
 16 33  1  0  0  0  0
 16 34  1  0  0  0  0
 18 35  1  0  0  0  0
M  END
> <PUBCHEM_COMPOUND_CID>
4795178

> <PUBCHEM_COMPOUND_CANONICALIZED>
1

> <PUBCHEM_CACTVS_COMPLEXITY>
307

> <PUBCHEM_CACTVS_HBOND_ACCEPTOR>
4

> <PUBCHEM_CACTVS_HBOND_DONOR>
1

> <PUBCHEM_CACTVS_ROTATABLE_BOND>
2

> <PUBCHEM_CACTVS_SUBSKEYS>
AAADceBzAABAAAAAAAAAAAAAGAAAASAAAAAsAAAABgAAAFiR+AAAHAQQAAAADCjBWgQFsdbIEAikAgJhZACD0KlxCLgB2LAoRJiIKCLg2NGEBAxokALoyCcQgMAOgAAAAAAAAAAAAAAAAAAAAAAAAAAAAA==

> <PUBCHEM_IUPAC_OPENEYE_NAME>
N-cyclopropyl-8-thia-4,6-diazatricyclo[7.5.0.02,7]tetradeca-1(9),2,4,6-tetraen-3-amine

> <PUBCHEM_IUPAC_CAS_NAME>
N-cyclopropyl-8-thia-4,6-diazatricyclo[7.5.0.02,7]tetradeca-1(9),2,4,6-tetraen-3-amine

> <PUBCHEM_IUPAC_NAME_MARKUP>
<I>N</I>-cyclopropyl-8-thia-4,6-diazatricyclo[7.5.0.0<SUP>2,7</SUP>]tetradeca-1(9),2,4,6-tetraen-3-amine

> <PUBCHEM_IUPAC_NAME>
N-cyclopropyl-8-thia-4,6-diazatricyclo[7.5.0.02,7]tetradeca-1(9),2,4,6-tetraen-3-amine

> <PUBCHEM_IUPAC_SYSTEMATIC_NAME>
N-cyclopropyl-8-thia-4,6-diazatricyclo[7.5.0.02,7]tetradeca-1(9),2,4,6-tetraen-3-amine

> <PUBCHEM_IUPAC_TRADITIONAL_NAME>
cyclopropyl(8-thia-4,6-diazatricyclo[7.5.0.02,7]tetradeca-1(9),2,4,6-tetraen-3-yl)amine

> <PUBCHEM_IUPAC_INCHI>
InChI=1S/C14H17N3S/c1-2-4-10-11(5-3-1)18-14-12(10)13(15-8-16-14)17-9-6-7-9/h8-9H,1-7H2,(H,15,16,17)

> <PUBCHEM_IUPAC_INCHIKEY>
COFRBJRQPKBMSK-UHFFFAOYSA-N

> <PUBCHEM_XLOGP3_AA>
4.2

> <PUBCHEM_EXACT_MASS>
259.11431873

> <PUBCHEM_MOLECULAR_FORMULA>
C14H17N3S

> <PUBCHEM_MOLECULAR_WEIGHT>
259.37

> <PUBCHEM_OPENEYE_CAN_SMILES>
C1CCC2=C(CC1)SC3=NC=NC(=C23)NC4CC4

> <PUBCHEM_OPENEYE_ISO_SMILES>
C1CCC2=C(CC1)SC3=NC=NC(=C23)NC4CC4

> <PUBCHEM_CACTVS_TPSA>
66

> <PUBCHEM_MONOISOTOPIC_WEIGHT>
259.11431873

> <PUBCHEM_TOTAL_CHARGE>
0

> <PUBCHEM_HEAVY_ATOM_COUNT>
18

> <PUBCHEM_ATOM_DEF_STEREO_COUNT>
0

> <PUBCHEM_ATOM_UDEF_STEREO_COUNT>
0

> <PUBCHEM_BOND_DEF_STEREO_COUNT>
0

> <PUBCHEM_BOND_UDEF_STEREO_COUNT>
0

> <PUBCHEM_ISOTOPIC_ATOM_COUNT>
0

> <PUBCHEM_COMPONENT_COUNT>
1

> <PUBCHEM_CACTVS_TAUTO_COUNT>
4

> <PUBCHEM_COORDINATE_TYPE>
1
5
255

> <PUBCHEM_BONDANNOTATIONS>
1  13  8
1  17  8
3  10  8
3  18  8
4  17  8
4  18  8
8  13  8
8  9  8
9  10  8
9  17  8

$$$$
