45487513
  -OEChem-09292322292D

 58 61  0     1  0  0  0  0  0999 V2000
    5.9804   -2.2697    0.0000 O   0  0  0  0  0  0  0  0  0  0  0  0
    5.8138   -5.3518    0.0000 O   0  0  0  0  0  0  0  0  0  0  0  0
    4.8802   -5.7101    0.0000 O   0  0  0  0  0  0  0  0  0  0  0  0
    4.1630    1.0940    0.0000 N   0  0  3  0  0  0  0  0  0  0  0  0
    4.3525   -1.5449    0.0000 N   0  0  0  0  0  0  0  0  0  0  0  0
    4.4372   -3.1607    0.0000 N   0  0  0  0  0  0  0  0  0  0  0  0
    3.7147    2.7671    0.0000 C   0  0  0  0  0  0  0  0  0  0  0  0
    3.2369    4.7156    0.0000 C   0  0  0  0  0  0  0  0  0  0  0  0
    3.9735    3.7330    0.0000 C   0  0  0  0  0  0  0  0  0  0  0  0
    2.3420    2.1750    0.0000 C   0  0  0  0  0  0  0  0  0  0  0  0
    5.1137    2.2582    0.0000 C   0  0  0  0  0  0  0  0  0  0  0  0
    2.0000    3.1147    0.0000 C   0  0  0  0  0  0  0  0  0  0  0  0
    5.3725    3.2242    0.0000 C   0  0  0  0  0  0  0  0  0  0  0  0
    3.4559    1.8012    0.0000 C   0  0  0  0  0  0  0  0  0  0  0  0
    3.3415    5.7101    0.0000 C   0  0  0  0  0  0  0  0  0  0  0  0
    2.3234    5.1224    0.0000 C   0  0  0  0  0  0  0  0  0  0  0  0
    3.9042    0.1281    0.0000 C   0  0  0  0  0  0  0  0  0  0  0  0
    5.1289    1.3529    0.0000 C   0  0  0  0  0  0  0  0  0  0  0  0
    4.6113   -0.5790    0.0000 C   0  0  0  0  0  0  0  0  0  0  0  0
    3.4189   -1.9033    0.0000 C   0  0  0  0  0  0  0  0  0  0  0  0
    4.9818   -2.3221    0.0000 C   0  0  0  0  0  0  0  0  0  0  0  0
    3.4712   -2.9019    0.0000 C   0  0  0  0  0  0  0  0  0  0  0  0
    4.7955   -4.0943    0.0000 C   0  0  0  0  0  0  0  0  0  0  0  0
    5.7615   -4.3531    0.0000 C   0  0  0  0  0  0  0  0  0  0  0  0
    4.2509   -4.9330    0.0000 C   0  0  0  0  0  0  0  0  0  0  0  0
    3.9595    3.1132    0.0000 H   0  0  0  0  0  0  0  0  0  0  0  0
    1.7636    1.9518    0.0000 H   0  0  0  0  0  0  0  0  0  0  0  0
    2.5765    1.6011    0.0000 H   0  0  0  0  0  0  0  0  0  0  0  0
    4.9187    1.6697    0.0000 H   0  0  0  0  0  0  0  0  0  0  0  0
    5.7076    2.0805    0.0000 H   0  0  0  0  0  0  0  0  0  0  0  0
    1.8057    3.7035    0.0000 H   0  0  0  0  0  0  0  0  0  0  0  0
    1.4142    2.9116    0.0000 H   0  0  0  0  0  0  0  0  0  0  0  0
    5.9664    3.0464    0.0000 H   0  0  0  0  0  0  0  0  0  0  0  0
    5.5674    3.8127    0.0000 H   0  0  0  0  0  0  0  0  0  0  0  0
    2.8940    2.0632    0.0000 H   0  0  0  0  0  0  0  0  0  0  0  0
    3.1003    1.2933    0.0000 H   0  0  0  0  0  0  0  0  0  0  0  0
    3.9581    5.6453    0.0000 H   0  0  0  0  0  0  0  0  0  0  0  0
    3.4063    6.3267    0.0000 H   0  0  0  0  0  0  0  0  0  0  0  0
    2.7248    5.7749    0.0000 H   0  0  0  0  0  0  0  0  0  0  0  0
    2.5756    5.6888    0.0000 H   0  0  0  0  0  0  0  0  0  0  0  0
    1.7570    5.3745    0.0000 H   0  0  0  0  0  0  0  0  0  0  0  0
    2.0712    4.5560    0.0000 H   0  0  0  0  0  0  0  0  0  0  0  0
    3.3423    0.3901    0.0000 H   0  0  0  0  0  0  0  0  0  0  0  0
    3.5486   -0.3798    0.0000 H   0  0  0  0  0  0  0  0  0  0  0  0
    5.2894    0.7540    0.0000 H   0  0  0  0  0  0  0  0  0  0  0  0
    5.7278    1.5133    0.0000 H   0  0  0  0  0  0  0  0  0  0  0  0
    4.9685    1.9517    0.0000 H   0  0  0  0  0  0  0  0  0  0  0  0
    5.1732   -0.8410    0.0000 H   0  0  0  0  0  0  0  0  0  0  0  0
    4.9669   -0.0711    0.0000 H   0  0  0  0  0  0  0  0  0  0  0  0
    3.2584   -1.3044    0.0000 H   0  0  0  0  0  0  0  0  0  0  0  0
    2.8065   -2.0003    0.0000 H   0  0  0  0  0  0  0  0  0  0  0  0
    2.8521   -2.8695    0.0000 H   0  0  0  0  0  0  0  0  0  0  0  0
    3.3742   -3.5143    0.0000 H   0  0  0  0  0  0  0  0  0  0  0  0
    5.2104   -3.6336    0.0000 H   0  0  0  0  0  0  0  0  0  0  0  0
    6.3806   -4.3856    0.0000 H   0  0  0  0  0  0  0  0  0  0  0  0
    5.8585   -3.7408    0.0000 H   0  0  0  0  0  0  0  0  0  0  0  0
    3.7691   -4.5428    0.0000 H   0  0  0  0  0  0  0  0  0  0  0  0
    3.8125   -5.3714    0.0000 H   0  0  0  0  0  0  0  0  0  0  0  0
  1 21  2  0  0  0  0
  2  3  1  0  0  0  0
  2 24  1  0  0  0  0
  3 25  1  0  0  0  0
  4 14  1  0  0  0  0
  4 17  1  0  0  0  0
  4 18  1  0  0  0  0
  5 19  1  0  0  0  0
  5 20  1  0  0  0  0
  5 21  1  0  0  0  0
  6 21  1  0  0  0  0
  6 22  1  0  0  0  0
  6 23  1  0  0  0  0
  7  8  1  0  0  0  0
  7 10  1  0  0  0  0
  7 11  1  0  0  0  0
  7 14  1  0  0  0  0
  8  9  1  0  0  0  0
  8 15  1  0  0  0  0
  8 16  1  0  0  0  0
  9 12  1  0  0  0  0
  9 13  1  0  0  0  0
  9 26  1  0  0  0  0
 10 12  1  0  0  0  0
 10 27  1  0  0  0  0
 10 28  1  0  0  0  0
 11 13  1  0  0  0  0
 11 29  1  0  0  0  0
 11 30  1  0  0  0  0
 12 31  1  0  0  0  0
 12 32  1  0  0  0  0
 13 33  1  0  0  0  0
 13 34  1  0  0  0  0
 14 35  1  0  0  0  0
 14 36  1  0  0  0  0
 15 37  1  0  0  0  0
 15 38  1  0  0  0  0
 15 39  1  0  0  0  0
 16 40  1  0  0  0  0
 16 41  1  0  0  0  0
 16 42  1  0  0  0  0
 17 19  1  0  0  0  0
 17 43  1  0  0  0  0
 17 44  1  0  0  0  0
 18 45  1  0  0  0  0
 18 46  1  0  0  0  0
 18 47  1  0  0  0  0
 19 48  1  0  0  0  0
 19 49  1  0  0  0  0
 20 22  1  0  0  0  0
 20 50  1  0  0  0  0
 20 51  1  0  0  0  0
 22 52  1  0  0  0  0
 22 53  1  0  0  0  0
 23 24  1  0  0  0  0
 23 25  1  0  0  0  0
 23 54  1  0  0  0  0
 24 55  1  0  0  0  0
 24 56  1  0  0  0  0
 25 57  1  0  0  0  0
 25 58  1  0  0  0  0
M  END
> <PUBCHEM_COMPOUND_CID>
45487513

> <PUBCHEM_COMPOUND_CANONICALIZED>
1

> <PUBCHEM_CACTVS_COMPLEXITY>
510

> <PUBCHEM_CACTVS_HBOND_ACCEPTOR>
4

> <PUBCHEM_CACTVS_HBOND_DONOR>
0

> <PUBCHEM_CACTVS_ROTATABLE_BOND>
6

> <PUBCHEM_CACTVS_SUBSKEYS>
AAADcfB7MAAAAAAAAAAAAAAAAAAAAeNECAAwAAAAAAAAAAAAAAAAHgAABAAADyjhgAYDAAMAAAAIAAAAEAAAAAAAAAAAAAAIAACCQAIAgAAUAAAJBgKQAAEQgMAPgAAAAAAAAACAAAAAAAAAAQAACAAAAA==

> <PUBCHEM_IUPAC_OPENEYE_NAME>
1-[2-[(7,7-dimethylnorbornan-1-yl)methyl-methyl-amino]ethyl]-3-(dioxolan-4-yl)imidazolidin-2-one

> <PUBCHEM_IUPAC_CAS_NAME>
1-[2-[(7,7-dimethyl-1-bicyclo[2.2.1]heptanyl)methyl-methylamino]ethyl]-3-(4-dioxolanyl)-2-imidazolidinone

> <PUBCHEM_IUPAC_NAME_MARKUP>
1-[2-[(7,7-dimethyl-1-bicyclo[2.2.1]heptanyl)methyl-methylamino]ethyl]-3-(dioxolan-4-yl)imidazolidin-2-one

> <PUBCHEM_IUPAC_NAME>
1-[2-[(7,7-dimethyl-1-bicyclo[2.2.1]heptanyl)methyl-methylamino]ethyl]-3-(dioxolan-4-yl)imidazolidin-2-one

> <PUBCHEM_IUPAC_SYSTEMATIC_NAME>
1-[2-[(7,7-dimethyl-1-bicyclo[2.2.1]heptanyl)methyl-methyl-amino]ethyl]-3-(1,2-dioxolan-4-yl)imidazolidin-2-one

> <PUBCHEM_IUPAC_TRADITIONAL_NAME>
1-[2-[(7,7-dimethylnorbornan-1-yl)methyl-methyl-amino]ethyl]-3-(dioxolan-4-yl)-2-imidazolidinone

> <PUBCHEM_IUPAC_INCHI>
InChI=1S/C19H33N3O3/c1-18(2)15-4-6-19(18,7-5-15)14-20(3)8-9-21-10-11-22(17(21)23)16-12-24-25-13-16/h15-16H,4-14H2,1-3H3

> <PUBCHEM_IUPAC_INCHIKEY>
PFWZDYSBLPIXBI-UHFFFAOYSA-N

> <PUBCHEM_XLOGP3_AA>
2.2

> <PUBCHEM_EXACT_MASS>
351.25219192

> <PUBCHEM_MOLECULAR_FORMULA>
C19H33N3O3

> <PUBCHEM_MOLECULAR_WEIGHT>
351.5

> <PUBCHEM_OPENEYE_CAN_SMILES>
CC1(C2CCC1(CC2)CN(C)CCN3CCN(C3=O)C4COOC4)C

> <PUBCHEM_OPENEYE_ISO_SMILES>
CC1(C2CCC1(CC2)CN(C)CCN3CCN(C3=O)C4COOC4)C

> <PUBCHEM_CACTVS_TPSA>
45.2

> <PUBCHEM_MONOISOTOPIC_WEIGHT>
351.25219192

> <PUBCHEM_TOTAL_CHARGE>
0

> <PUBCHEM_HEAVY_ATOM_COUNT>
25

> <PUBCHEM_ATOM_DEF_STEREO_COUNT>
0

> <PUBCHEM_ATOM_UDEF_STEREO_COUNT>
0

> <PUBCHEM_BOND_DEF_STEREO_COUNT>
0

> <PUBCHEM_BOND_UDEF_STEREO_COUNT>
0

> <PUBCHEM_ISOTOPIC_ATOM_COUNT>
0

> <PUBCHEM_COMPONENT_COUNT>
1

> <PUBCHEM_CACTVS_TAUTO_COUNT>
-1

> <PUBCHEM_COORDINATE_TYPE>
1
5
255

$$$$
