5073
  -OEChem-09292322042D

 57 61  0     0  0  0  0  0  0999 V2000
   14.5715   -0.1446    0.0000 F   0  0  0  0  0  0  0  0  0  0  0  0
   11.8031   -2.3663    0.0000 O   0  0  0  0  0  0  0  0  0  0  0  0
    4.6660   -0.6684    0.0000 O   0  0  0  0  0  0  0  0  0  0  0  0
    8.1301    0.3316    0.0000 N   0  0  0  0  0  0  0  0  0  0  0  0
    3.8000    0.8316    0.0000 N   0  0  0  0  0  0  0  0  0  0  0  0
   10.8313   -2.1571    0.0000 N   0  0  0  0  0  0  0  0  0  0  0  0
    4.6660    2.3316    0.0000 N   0  0  0  0  0  0  0  0  0  0  0  0
    9.8622   -0.6684    0.0000 C   0  0  0  0  0  0  0  0  0  0  0  0
    9.8622    0.3316    0.0000 C   0  0  0  0  0  0  0  0  0  0  0  0
    8.9962   -1.1684    0.0000 C   0  0  0  0  0  0  0  0  0  0  0  0
    8.9962    0.8316    0.0000 C   0  0  0  0  0  0  0  0  0  0  0  0
    8.1301   -0.6684    0.0000 C   0  0  0  0  0  0  0  0  0  0  0  0
    7.2641    0.8316    0.0000 C   0  0  0  0  0  0  0  0  0  0  0  0
   10.7282   -1.1684    0.0000 C   0  0  0  0  0  0  0  0  0  0  0  0
    6.3981    0.3316    0.0000 C   0  0  0  0  0  0  0  0  0  0  0  0
    5.5321    0.8316    0.0000 C   0  0  0  0  0  0  0  0  0  0  0  0
   11.6360   -0.7633    0.0000 C   0  0  0  0  0  0  0  0  0  0  0  0
    2.9061    0.2970    0.0000 C   0  0  0  0  0  0  0  0  0  0  0  0
    2.0000    0.8108    0.0000 C   0  0  0  0  0  0  0  0  0  0  0  0
    3.8000    1.8316    0.0000 C   0  0  0  0  0  0  0  0  0  0  0  0
    2.0000    1.8524    0.0000 C   0  0  0  0  0  0  0  0  0  0  0  0
    2.9061    2.3663    0.0000 C   0  0  0  0  0  0  0  0  0  0  0  0
    4.6660    0.3316    0.0000 C   0  0  0  0  0  0  0  0  0  0  0  0
    5.5321    1.8316    0.0000 C   0  0  0  0  0  0  0  0  0  0  0  0
   12.3038   -1.5076    0.0000 C   0  0  0  0  0  0  0  0  0  0  0  0
   11.9467    0.1873    0.0000 C   0  0  0  0  0  0  0  0  0  0  0  0
    6.3981    2.3316    0.0000 C   0  0  0  0  0  0  0  0  0  0  0  0
   13.2823   -1.3013    0.0000 C   0  0  0  0  0  0  0  0  0  0  0  0
   12.9252    0.3935    0.0000 C   0  0  0  0  0  0  0  0  0  0  0  0
   13.5930   -0.3508    0.0000 C   0  0  0  0  0  0  0  0  0  0  0  0
    9.8622   -1.2884    0.0000 H   0  0  0  0  0  0  0  0  0  0  0  0
   10.4728    0.2240    0.0000 H   0  0  0  0  0  0  0  0  0  0  0  0
   10.0742    0.9142    0.0000 H   0  0  0  0  0  0  0  0  0  0  0  0
    8.5976   -1.6433    0.0000 H   0  0  0  0  0  0  0  0  0  0  0  0
    9.3947   -1.6433    0.0000 H   0  0  0  0  0  0  0  0  0  0  0  0
    9.3947    1.3066    0.0000 H   0  0  0  0  0  0  0  0  0  0  0  0
    8.5976    1.3066    0.0000 H   0  0  0  0  0  0  0  0  0  0  0  0
    7.5196   -0.5607    0.0000 H   0  0  0  0  0  0  0  0  0  0  0  0
    7.9181   -1.2510    0.0000 H   0  0  0  0  0  0  0  0  0  0  0  0
    7.6626    1.3066    0.0000 H   0  0  0  0  0  0  0  0  0  0  0  0
    6.8656    1.3066    0.0000 H   0  0  0  0  0  0  0  0  0  0  0  0
    5.9996   -0.1433    0.0000 H   0  0  0  0  0  0  0  0  0  0  0  0
    6.7966   -0.1433    0.0000 H   0  0  0  0  0  0  0  0  0  0  0  0
    2.5124   -0.1820    0.0000 H   0  0  0  0  0  0  0  0  0  0  0  0
    3.3107   -0.1728    0.0000 H   0  0  0  0  0  0  0  0  0  0  0  0
    1.3891    0.9169    0.0000 H   0  0  0  0  0  0  0  0  0  0  0  0
    1.7909    0.2271    0.0000 H   0  0  0  0  0  0  0  0  0  0  0  0
    1.7909    2.4361    0.0000 H   0  0  0  0  0  0  0  0  0  0  0  0
    1.3891    1.7464    0.0000 H   0  0  0  0  0  0  0  0  0  0  0  0
    3.3107    2.8361    0.0000 H   0  0  0  0  0  0  0  0  0  0  0  0
    2.5124    2.8453    0.0000 H   0  0  0  0  0  0  0  0  0  0  0  0
   11.5326    0.6487    0.0000 H   0  0  0  0  0  0  0  0  0  0  0  0
    6.7081    1.7947    0.0000 H   0  0  0  0  0  0  0  0  0  0  0  0
    6.9350    2.6416    0.0000 H   0  0  0  0  0  0  0  0  0  0  0  0
    6.0881    2.8686    0.0000 H   0  0  0  0  0  0  0  0  0  0  0  0
   13.6964   -1.7628    0.0000 H   0  0  0  0  0  0  0  0  0  0  0  0
   13.1178    0.9828    0.0000 H   0  0  0  0  0  0  0  0  0  0  0  0
  1 30  1  0  0  0  0
  2  6  1  0  0  0  0
  2 25  1  0  0  0  0
  3 23  2  0  0  0  0
  4 11  1  0  0  0  0
  4 12  1  0  0  0  0
  4 13  1  0  0  0  0
  5 18  1  0  0  0  0
  5 20  1  0  0  0  0
  5 23  1  0  0  0  0
  6 14  2  0  0  0  0
  7 20  2  0  0  0  0
  7 24  1  0  0  0  0
  8  9  1  0  0  0  0
  8 10  1  0  0  0  0
  8 14  1  0  0  0  0
  8 31  1  0  0  0  0
  9 11  1  0  0  0  0
  9 32  1  0  0  0  0
  9 33  1  0  0  0  0
 10 12  1  0  0  0  0
 10 34  1  0  0  0  0
 10 35  1  0  0  0  0
 11 36  1  0  0  0  0
 11 37  1  0  0  0  0
 12 38  1  0  0  0  0
 12 39  1  0  0  0  0
 13 15  1  0  0  0  0
 13 40  1  0  0  0  0
 13 41  1  0  0  0  0
 14 17  1  0  0  0  0
 15 16  1  0  0  0  0
 15 42  1  0  0  0  0
 15 43  1  0  0  0  0
 16 23  1  0  0  0  0
 16 24  2  0  0  0  0
 17 25  2  0  0  0  0
 17 26  1  0  0  0  0
 18 19  1  0  0  0  0
 18 44  1  0  0  0  0
 18 45  1  0  0  0  0
 19 21  1  0  0  0  0
 19 46  1  0  0  0  0
 19 47  1  0  0  0  0
 20 22  1  0  0  0  0
 21 22  1  0  0  0  0
 21 48  1  0  0  0  0
 21 49  1  0  0  0  0
 22 50  1  0  0  0  0
 22 51  1  0  0  0  0
 24 27  1  0  0  0  0
 25 28  1  0  0  0  0
 26 29  2  0  0  0  0
 26 52  1  0  0  0  0
 27 53  1  0  0  0  0
 27 54  1  0  0  0  0
 27 55  1  0  0  0  0
 28 30  2  0  0  0  0
 28 56  1  0  0  0  0
 29 30  1  0  0  0  0
 29 57  1  0  0  0  0
M  END
> <PUBCHEM_COMPOUND_CID>
5073

> <PUBCHEM_COMPOUND_CANONICALIZED>
1

> <PUBCHEM_CACTVS_COMPLEXITY>
731

> <PUBCHEM_CACTVS_HBOND_ACCEPTOR>
6

> <PUBCHEM_CACTVS_HBOND_DONOR>
0

> <PUBCHEM_CACTVS_ROTATABLE_BOND>
4

> <PUBCHEM_CACTVS_SUBSKEYS>
AAADceB7sQAAAAAAAAAAAAAAAAAAAWAAAAA8WIEAAAAAAFiB8AAAHwAEAAAADQzBngwzhtMQAACpA6dydgCCAAEkIAApmCE+TNoIJrqAnZOEMYBmxhmIycecyOCOAAAAAAAIAAAAAAAAABAAAAAAAAAAAA==

> <PUBCHEM_IUPAC_OPENEYE_NAME>
3-[2-[4-(6-fluoro-1,2-benzoxazol-3-yl)-1-piperidyl]ethyl]-2-methyl-6,7,8,9-tetrahydropyrido[1,2-a]pyrimidin-4-one

> <PUBCHEM_IUPAC_CAS_NAME>
3-[2-[4-(6-fluoro-1,2-benzoxazol-3-yl)-1-piperidinyl]ethyl]-2-methyl-6,7,8,9-tetrahydropyrido[1,2-a]pyrimidin-4-one

> <PUBCHEM_IUPAC_NAME_MARKUP>
3-[2-[4-(6-fluoro-1,2-benzoxazol-3-yl)piperidin-1-yl]ethyl]-2-methyl-6,7,8,9-tetrahydropyrido[1,2-a]pyrimidin-4-one

> <PUBCHEM_IUPAC_NAME>
3-[2-[4-(6-fluoro-1,2-benzoxazol-3-yl)piperidin-1-yl]ethyl]-2-methyl-6,7,8,9-tetrahydropyrido[1,2-a]pyrimidin-4-one

> <PUBCHEM_IUPAC_SYSTEMATIC_NAME>
3-[2-[4-(6-fluoranyl-1,2-benzoxazol-3-yl)piperidin-1-yl]ethyl]-2-methyl-6,7,8,9-tetrahydropyrido[1,2-a]pyrimidin-4-one

> <PUBCHEM_IUPAC_TRADITIONAL_NAME>
3-[2-[4-(6-fluoroindoxazen-3-yl)piperidino]ethyl]-2-methyl-6,7,8,9-tetrahydropyrido[1,2-a]pyrimidin-4-one

> <PUBCHEM_IUPAC_INCHI>
InChI=1S/C23H27FN4O2/c1-15-18(23(29)28-10-3-2-4-21(28)25-15)9-13-27-11-7-16(8-12-27)22-19-6-5-17(24)14-20(19)30-26-22/h5-6,14,16H,2-4,7-13H2,1H3

> <PUBCHEM_IUPAC_INCHIKEY>
RAPZEAPATHNIPO-UHFFFAOYSA-N

> <PUBCHEM_XLOGP3_AA>
2.7

> <PUBCHEM_EXACT_MASS>
410.21180428

> <PUBCHEM_MOLECULAR_FORMULA>
C23H27FN4O2

> <PUBCHEM_MOLECULAR_WEIGHT>
410.5

> <PUBCHEM_OPENEYE_CAN_SMILES>
CC1=C(C(=O)N2CCCCC2=N1)CCN3CCC(CC3)C4=NOC5=C4C=CC(=C5)F

> <PUBCHEM_OPENEYE_ISO_SMILES>
CC1=C(C(=O)N2CCCCC2=N1)CCN3CCC(CC3)C4=NOC5=C4C=CC(=C5)F

> <PUBCHEM_CACTVS_TPSA>
61.9

> <PUBCHEM_MONOISOTOPIC_WEIGHT>
410.21180428

> <PUBCHEM_TOTAL_CHARGE>
0

> <PUBCHEM_HEAVY_ATOM_COUNT>
30

> <PUBCHEM_ATOM_DEF_STEREO_COUNT>
0

> <PUBCHEM_ATOM_UDEF_STEREO_COUNT>
0

> <PUBCHEM_BOND_DEF_STEREO_COUNT>
0

> <PUBCHEM_BOND_UDEF_STEREO_COUNT>
0

> <PUBCHEM_ISOTOPIC_ATOM_COUNT>
0

> <PUBCHEM_COMPONENT_COUNT>
1

> <PUBCHEM_CACTVS_TAUTO_COUNT>
-1

> <PUBCHEM_COORDINATE_TYPE>
1
5
255

> <PUBCHEM_BONDANNOTATIONS>
14  17  8
16  23  8
16  24  8
17  25  8
17  26  8
2  25  8
2  6  8
25  28  8
26  29  8
28  30  8
29  30  8
5  20  8
5  23  8
6  14  8
7  20  8
7  24  8

$$$$
