118726011
  -OEChem-09292322002D

 73 77  0     1  0  0  0  0  0999 V2000
    2.5118   -1.5359    0.0000 O   0  0  0  0  0  0  0  0  0  0  0  0
   19.4517    0.7140    0.0000 O   0  0  0  0  0  0  0  0  0  0  0  0
    7.6738    0.4050    0.0000 N   0  0  3  0  0  0  0  0  0  0  0  0
    2.6067    0.2379    0.0000 N   0  0  0  0  0  0  0  0  0  0  0  0
   13.7360    0.9050    0.0000 N   0  0  0  0  0  0  0  0  0  0  0  0
   15.4680    0.9050    0.0000 N   0  0  0  0  0  0  0  0  0  0  0  0
   14.6020   -0.5950    0.0000 N   0  0  0  0  0  0  0  0  0  0  0  0
   16.3341   -0.5950    0.0000 N   0  0  0  0  0  0  0  0  0  0  0  0
   17.2803    0.7097    0.0000 N   0  0  0  0  0  0  0  0  0  0  0  0
   17.2803   -0.8997    0.0000 N   0  0  0  0  0  0  0  0  0  0  0  0
   15.4680   -2.0950    0.0000 N   0  0  0  0  0  0  0  0  0  0  0  0
    8.5398    0.9050    0.0000 C   0  0  0  0  0  0  0  0  0  0  0  0
    6.8078    0.9050    0.0000 C   0  0  0  0  0  0  0  0  0  0  0  0
    9.4059    0.4050    0.0000 C   0  0  0  0  0  0  0  0  0  0  0  0
    5.9418    0.4050    0.0000 C   0  0  0  0  0  0  0  0  0  0  0  0
   10.2719    0.9050    0.0000 C   0  0  0  0  0  0  0  0  0  0  0  0
    7.6738   -0.5950    0.0000 C   0  0  0  0  0  0  0  0  0  0  0  0
    5.0757    0.9050    0.0000 C   0  0  0  0  0  0  0  0  0  0  0  0
   11.1379    0.4050    0.0000 C   0  0  0  0  0  0  0  0  0  0  0  0
    4.2097    0.4050    0.0000 C   0  0  0  0  0  0  0  0  0  0  0  0
    6.8078   -1.0950    0.0000 C   0  0  0  0  0  0  0  0  0  0  0  0
   12.0039    0.9050    0.0000 C   0  0  0  0  0  0  0  0  0  0  0  0
    4.0005   -0.5668    0.0000 C   0  0  0  0  0  0  0  0  0  0  0  0
    3.3437    0.9050    0.0000 C   0  0  0  0  0  0  0  0  0  0  0  0
    5.0757    1.9050    0.0000 C   0  0  0  0  0  0  0  0  0  0  0  0
   12.8700    0.4050    0.0000 C   0  0  0  0  0  0  0  0  0  0  0  0
    3.0118   -0.6699    0.0000 C   0  0  0  0  0  0  0  0  0  0  0  0
    3.3437    1.9050    0.0000 C   0  0  0  0  0  0  0  0  0  0  0  0
    6.8078   -2.0950    0.0000 C   0  0  0  0  0  0  0  0  0  0  0  0
    4.2097    2.4050    0.0000 C   0  0  0  0  0  0  0  0  0  0  0  0
   14.6020    0.4050    0.0000 C   0  0  0  0  0  0  0  0  0  0  0  0
   16.3341    0.4050    0.0000 C   0  0  0  0  0  0  0  0  0  0  0  0
   15.4680   -1.0950    0.0000 C   0  0  0  0  0  0  0  0  0  0  0  0
   17.8639   -0.0950    0.0000 C   0  0  0  0  0  0  0  0  0  0  0  0
   18.8639   -0.0950    0.0000 C   0  0  0  0  0  0  0  0  0  0  0  0
   19.4517   -0.9040    0.0000 C   0  0  0  0  0  0  0  0  0  0  0  0
   20.4027   -0.5950    0.0000 C   0  0  0  0  0  0  0  0  0  0  0  0
   20.4027    0.4050    0.0000 C   0  0  0  0  0  0  0  0  0  0  0  0
    8.9384    1.3800    0.0000 H   0  0  0  0  0  0  0  0  0  0  0  0
    8.1413    1.3800    0.0000 H   0  0  0  0  0  0  0  0  0  0  0  0
    7.2063    1.3800    0.0000 H   0  0  0  0  0  0  0  0  0  0  0  0
    6.4093    1.3800    0.0000 H   0  0  0  0  0  0  0  0  0  0  0  0
    9.0073   -0.0699    0.0000 H   0  0  0  0  0  0  0  0  0  0  0  0
    9.8044   -0.0699    0.0000 H   0  0  0  0  0  0  0  0  0  0  0  0
    5.5432   -0.0699    0.0000 H   0  0  0  0  0  0  0  0  0  0  0  0
    6.3403   -0.0699    0.0000 H   0  0  0  0  0  0  0  0  0  0  0  0
   10.6704    1.3800    0.0000 H   0  0  0  0  0  0  0  0  0  0  0  0
    9.8734    1.3800    0.0000 H   0  0  0  0  0  0  0  0  0  0  0  0
    7.8859   -1.1776    0.0000 H   0  0  0  0  0  0  0  0  0  0  0  0
    8.2844   -0.4873    0.0000 H   0  0  0  0  0  0  0  0  0  0  0  0
   10.7394   -0.0699    0.0000 H   0  0  0  0  0  0  0  0  0  0  0  0
   11.5364   -0.0699    0.0000 H   0  0  0  0  0  0  0  0  0  0  0  0
    6.5957   -0.5124    0.0000 H   0  0  0  0  0  0  0  0  0  0  0  0
    6.1972   -1.2027    0.0000 H   0  0  0  0  0  0  0  0  0  0  0  0
   12.4025    1.3800    0.0000 H   0  0  0  0  0  0  0  0  0  0  0  0
   11.6054    1.3800    0.0000 H   0  0  0  0  0  0  0  0  0  0  0  0
    3.9996   -1.1868    0.0000 H   0  0  0  0  0  0  0  0  0  0  0  0
    4.6170   -0.6329    0.0000 H   0  0  0  0  0  0  0  0  0  0  0  0
    5.6127    2.2150    0.0000 H   0  0  0  0  0  0  0  0  0  0  0  0
   12.4714   -0.0699    0.0000 H   0  0  0  0  0  0  0  0  0  0  0  0
   13.2685   -0.0699    0.0000 H   0  0  0  0  0  0  0  0  0  0  0  0
    2.0000    0.3658    0.0000 H   0  0  0  0  0  0  0  0  0  0  0  0
    2.8068    2.2150    0.0000 H   0  0  0  0  0  0  0  0  0  0  0  0
    6.1878   -2.0950    0.0000 H   0  0  0  0  0  0  0  0  0  0  0  0
    6.8078   -2.7150    0.0000 H   0  0  0  0  0  0  0  0  0  0  0  0
    7.4278   -2.0950    0.0000 H   0  0  0  0  0  0  0  0  0  0  0  0
    4.2097    3.0250    0.0000 H   0  0  0  0  0  0  0  0  0  0  0  0
   13.7360    1.5250    0.0000 H   0  0  0  0  0  0  0  0  0  0  0  0
   14.9311   -2.4050    0.0000 H   0  0  0  0  0  0  0  0  0  0  0  0
   16.0050   -2.4050    0.0000 H   0  0  0  0  0  0  0  0  0  0  0  0
   19.2601   -1.4937    0.0000 H   0  0  0  0  0  0  0  0  0  0  0  0
   20.9043   -0.9594    0.0000 H   0  0  0  0  0  0  0  0  0  0  0  0
   20.9043    0.7694    0.0000 H   0  0  0  0  0  0  0  0  0  0  0  0
  1 27  2  0  0  0  0
  2 35  1  0  0  0  0
  2 38  1  0  0  0  0
  3 12  1  0  0  0  0
  3 13  1  0  0  0  0
  3 17  1  0  0  0  0
  4 24  1  0  0  0  0
  4 27  1  0  0  0  0
  4 62  1  0  0  0  0
  5 26  1  0  0  0  0
  5 31  1  0  0  0  0
  5 68  1  0  0  0  0
  6 31  2  0  0  0  0
  6 32  1  0  0  0  0
  7 31  1  0  0  0  0
  7 33  2  0  0  0  0
  8 10  1  0  0  0  0
  8 32  1  0  0  0  0
  8 33  1  0  0  0  0
  9 32  2  0  0  0  0
  9 34  1  0  0  0  0
 10 34  2  0  0  0  0
 11 33  1  0  0  0  0
 11 69  1  0  0  0  0
 11 70  1  0  0  0  0
 12 14  1  0  0  0  0
 12 39  1  0  0  0  0
 12 40  1  0  0  0  0
 13 15  1  0  0  0  0
 13 41  1  0  0  0  0
 13 42  1  0  0  0  0
 14 16  1  0  0  0  0
 14 43  1  0  0  0  0
 14 44  1  0  0  0  0
 15 18  1  0  0  0  0
 15 45  1  0  0  0  0
 15 46  1  0  0  0  0
 16 19  1  0  0  0  0
 16 47  1  0  0  0  0
 16 48  1  0  0  0  0
 17 21  1  0  0  0  0
 17 49  1  0  0  0  0
 17 50  1  0  0  0  0
 18 20  2  0  0  0  0
 18 25  1  0  0  0  0
 19 22  1  0  0  0  0
 19 51  1  0  0  0  0
 19 52  1  0  0  0  0
 20 23  1  0  0  0  0
 20 24  1  0  0  0  0
 21 29  1  0  0  0  0
 21 53  1  0  0  0  0
 21 54  1  0  0  0  0
 22 26  1  0  0  0  0
 22 55  1  0  0  0  0
 22 56  1  0  0  0  0
 23 27  1  0  0  0  0
 23 57  1  0  0  0  0
 23 58  1  0  0  0  0
 24 28  2  0  0  0  0
 25 30  2  0  0  0  0
 25 59  1  0  0  0  0
 26 60  1  0  0  0  0
 26 61  1  0  0  0  0
 28 30  1  0  0  0  0
 28 63  1  0  0  0  0
 29 64  1  0  0  0  0
 29 65  1  0  0  0  0
 29 66  1  0  0  0  0
 30 67  1  0  0  0  0
 34 35  1  0  0  0  0
 35 36  2  0  0  0  0
 36 37  1  0  0  0  0
 36 71  1  0  0  0  0
 37 38  2  0  0  0  0
 37 72  1  0  0  0  0
 38 73  1  0  0  0  0
M  END
> <PUBCHEM_COMPOUND_CID>
118726011

> <PUBCHEM_COMPOUND_CANONICALIZED>
1

> <PUBCHEM_CACTVS_COMPLEXITY>
745

> <PUBCHEM_CACTVS_HBOND_ACCEPTOR>
9

> <PUBCHEM_CACTVS_HBOND_DONOR>
3

> <PUBCHEM_CACTVS_ROTATABLE_BOND>
14

> <PUBCHEM_CACTVS_SUBSKEYS>
AAADcfB78AAAAAAAAAAAAAAAAAAAAWLEgAA8QAAAAAAAAFgB/AAAHgAYAAAADAzhmwYz1IfIFECqAq9y9ASSiAsnIqAdiKGubNiOLrLEvbuHOSj83BPY6YecmYKOgAAAQAASAAAAAACAACQAAAAAAAAAAA==

> <PUBCHEM_IUPAC_OPENEYE_NAME>
4-[2-[6-[[7-amino-2-(2-furyl)-[1,2,4]triazolo[1,5-a][1,3,5]triazin-5-yl]amino]hexyl-propyl-amino]ethyl]indolin-2-one

> <PUBCHEM_IUPAC_CAS_NAME>
4-[2-[6-[[7-amino-2-(2-furanyl)-[1,2,4]triazolo[1,5-a][1,3,5]triazin-5-yl]amino]hexyl-propylamino]ethyl]-1,3-dihydroindol-2-one

> <PUBCHEM_IUPAC_NAME_MARKUP>
4-[2-[6-[[7-amino-2-(furan-2-yl)-[1,2,4]triazolo[1,5-a][1,3,5]triazin-5-yl]amino]hexyl-propylamino]ethyl]-1,3-dihydroindol-2-one

> <PUBCHEM_IUPAC_NAME>
4-[2-[6-[[7-amino-2-(furan-2-yl)-[1,2,4]triazolo[1,5-a][1,3,5]triazin-5-yl]amino]hexyl-propylamino]ethyl]-1,3-dihydroindol-2-one

> <PUBCHEM_IUPAC_SYSTEMATIC_NAME>
4-[2-[6-[[7-azanyl-2-(furan-2-yl)-[1,2,4]triazolo[1,5-a][1,3,5]triazin-5-yl]amino]hexyl-propyl-amino]ethyl]-1,3-dihydroindol-2-one

> <PUBCHEM_IUPAC_TRADITIONAL_NAME>
4-[2-[6-[[7-amino-2-(2-furyl)-[1,2,4]triazolo[1,5-a][1,3,5]triazin-5-yl]amino]hexyl-propyl-amino]ethyl]oxindole

> <PUBCHEM_IUPAC_INCHI>
InChI=1S/C27H35N9O2/c1-2-14-35(16-12-19-9-7-10-21-20(19)18-23(37)30-21)15-6-4-3-5-13-29-26-32-25(28)36-27(33-26)31-24(34-36)22-11-8-17-38-22/h7-11,17H,2-6,12-16,18H2,1H3,(H,30,37)(H3,28,29,31,32,33,34)

> <PUBCHEM_IUPAC_INCHIKEY>
BICAEYYDSQRCOQ-UHFFFAOYSA-N

> <PUBCHEM_XLOGP3_AA>
3.8

> <PUBCHEM_EXACT_MASS>
517.29137139

> <PUBCHEM_MOLECULAR_FORMULA>
C27H35N9O2

> <PUBCHEM_MOLECULAR_WEIGHT>
517.6

> <PUBCHEM_OPENEYE_CAN_SMILES>
CCCN(CCCCCCNC1=NC2=NC(=NN2C(=N1)N)C3=CC=CO3)CCC4=C5CC(=O)NC5=CC=C4

> <PUBCHEM_OPENEYE_ISO_SMILES>
CCCN(CCCCCCNC1=NC2=NC(=NN2C(=N1)N)C3=CC=CO3)CCC4=C5CC(=O)NC5=CC=C4

> <PUBCHEM_CACTVS_TPSA>
140

> <PUBCHEM_MONOISOTOPIC_WEIGHT>
517.29137139

> <PUBCHEM_TOTAL_CHARGE>
0

> <PUBCHEM_HEAVY_ATOM_COUNT>
38

> <PUBCHEM_ATOM_DEF_STEREO_COUNT>
0

> <PUBCHEM_ATOM_UDEF_STEREO_COUNT>
0

> <PUBCHEM_BOND_DEF_STEREO_COUNT>
0

> <PUBCHEM_BOND_UDEF_STEREO_COUNT>
0

> <PUBCHEM_ISOTOPIC_ATOM_COUNT>
0

> <PUBCHEM_COMPONENT_COUNT>
1

> <PUBCHEM_CACTVS_TAUTO_COUNT>
-1

> <PUBCHEM_COORDINATE_TYPE>
1
5
255

> <PUBCHEM_BONDANNOTATIONS>
10  34  8
18  20  8
18  25  8
2  35  8
2  38  8
20  24  8
24  28  8
25  30  8
28  30  8
35  36  8
36  37  8
37  38  8
6  31  8
6  32  8
7  31  8
7  33  8
8  10  8
8  32  8
8  33  8
9  32  8
9  34  8

$$$$
