118736364
  -OEChem-09292322352D

 62 66  0     0  0  0  0  0  0999 V2000
   14.8423   -1.9994    0.0000 O   0  0  0  0  0  0  0  0  0  0  0  0
    3.3823   -1.4550    0.0000 O   0  0  0  0  0  0  0  0  0  0  0  0
    2.6330    2.0046    0.0000 O   0  0  0  0  0  0  0  0  0  0  0  0
   11.4552   -1.2733    0.0000 N   0  0  0  0  0  0  0  0  0  0  0  0
   13.3583   -0.6585    0.0000 N   0  0  0  0  0  0  0  0  0  0  0  0
    7.1164   -0.8546    0.0000 N   0  0  0  0  0  0  0  0  0  0  0  0
    5.5047   -0.8560    0.0000 N   0  0  0  0  0  0  0  0  0  0  0  0
    6.0047    0.6829    0.0000 N   0  0  0  0  0  0  0  0  0  0  0  0
    4.3197    1.4676    0.0000 N   0  0  0  0  0  0  0  0  0  0  0  0
    2.9773    0.2683    0.0000 N   0  0  0  0  0  0  0  0  0  0  0  0
   11.6648   -0.2955    0.0000 C   0  0  0  0  0  0  0  0  0  0  0  0
   12.1972   -1.9437    0.0000 C   0  0  0  0  0  0  0  0  0  0  0  0
   10.5036   -1.5807    0.0000 C   0  0  0  0  0  0  0  0  0  0  0  0
   12.6164    0.0119    0.0000 C   0  0  0  0  0  0  0  0  0  0  0  0
   13.1487   -1.6363    0.0000 C   0  0  0  0  0  0  0  0  0  0  0  0
    9.7616   -0.9102    0.0000 C   0  0  0  0  0  0  0  0  0  0  0  0
    8.8100   -1.2176    0.0000 C   0  0  0  0  0  0  0  0  0  0  0  0
    8.0680   -0.5472    0.0000 C   0  0  0  0  0  0  0  0  0  0  0  0
   14.3099   -0.3512    0.0000 C   0  0  0  0  0  0  0  0  0  0  0  0
    6.3137   -0.2682    0.0000 C   0  0  0  0  0  0  0  0  0  0  0  0
    4.6957   -0.2682    0.0000 C   0  0  0  0  0  0  0  0  0  0  0  0
    6.8084   -1.7997    0.0000 C   0  0  0  0  0  0  0  0  0  0  0  0
    5.0047    0.6829    0.0000 C   0  0  0  0  0  0  0  0  0  0  0  0
    5.8143   -1.8006    0.0000 C   0  0  0  0  0  0  0  0  0  0  0  0
   15.0519   -1.0216    0.0000 C   0  0  0  0  0  0  0  0  0  0  0  0
   14.5195    0.6266    0.0000 C   0  0  0  0  0  0  0  0  0  0  0  0
    3.6803   -0.5004    0.0000 C   0  0  0  0  0  0  0  0  0  0  0  0
    3.2992    1.2589    0.0000 C   0  0  0  0  0  0  0  0  0  0  0  0
   16.0035   -0.7142    0.0000 C   0  0  0  0  0  0  0  0  0  0  0  0
   15.4711    0.9340    0.0000 C   0  0  0  0  0  0  0  0  0  0  0  0
    4.6397    2.4150    0.0000 C   0  0  0  0  0  0  0  0  0  0  0  0
   16.2131    0.2636    0.0000 C   0  0  0  0  0  0  0  0  0  0  0  0
    2.0000    0.0566    0.0000 C   0  0  0  0  0  0  0  0  0  0  0  0
   11.5795    0.3186    0.0000 H   0  0  0  0  0  0  0  0  0  0  0  0
   11.0452   -0.2728    0.0000 H   0  0  0  0  0  0  0  0  0  0  0  0
   11.7079   -2.3246    0.0000 H   0  0  0  0  0  0  0  0  0  0  0  0
   12.4873   -2.4916    0.0000 H   0  0  0  0  0  0  0  0  0  0  0  0
   10.0143   -1.9615    0.0000 H   0  0  0  0  0  0  0  0  0  0  0  0
   10.7937   -2.1286    0.0000 H   0  0  0  0  0  0  0  0  0  0  0  0
   13.1056    0.3927    0.0000 H   0  0  0  0  0  0  0  0  0  0  0  0
   12.3262    0.5598    0.0000 H   0  0  0  0  0  0  0  0  0  0  0  0
   13.2340   -2.2504    0.0000 H   0  0  0  0  0  0  0  0  0  0  0  0
   13.7683   -1.6590    0.0000 H   0  0  0  0  0  0  0  0  0  0  0  0
   10.2508   -0.5294    0.0000 H   0  0  0  0  0  0  0  0  0  0  0  0
    9.4715   -0.3623    0.0000 H   0  0  0  0  0  0  0  0  0  0  0  0
    8.3208   -1.5985    0.0000 H   0  0  0  0  0  0  0  0  0  0  0  0
    9.1001   -1.7655    0.0000 H   0  0  0  0  0  0  0  0  0  0  0  0
    8.5572   -0.1663    0.0000 H   0  0  0  0  0  0  0  0  0  0  0  0
    7.7779    0.0007    0.0000 H   0  0  0  0  0  0  0  0  0  0  0  0
    7.1728   -2.3013    0.0000 H   0  0  0  0  0  0  0  0  0  0  0  0
    5.4508   -2.3028    0.0000 H   0  0  0  0  0  0  0  0  0  0  0  0
   14.0595    1.0423    0.0000 H   0  0  0  0  0  0  0  0  0  0  0  0
   16.4635   -1.1299    0.0000 H   0  0  0  0  0  0  0  0  0  0  0  0
   15.6011    1.5402    0.0000 H   0  0  0  0  0  0  0  0  0  0  0  0
    5.2271    2.2166    0.0000 H   0  0  0  0  0  0  0  0  0  0  0  0
    4.8381    3.0024    0.0000 H   0  0  0  0  0  0  0  0  0  0  0  0
    4.0523    2.6134    0.0000 H   0  0  0  0  0  0  0  0  0  0  0  0
   16.8031    0.4541    0.0000 H   0  0  0  0  0  0  0  0  0  0  0  0
    1.8688    0.6625    0.0000 H   0  0  0  0  0  0  0  0  0  0  0  0
    1.3940   -0.0747    0.0000 H   0  0  0  0  0  0  0  0  0  0  0  0
    2.1312   -0.5494    0.0000 H   0  0  0  0  0  0  0  0  0  0  0  0
   15.3023   -2.4150    0.0000 H   0  0  0  0  0  0  0  0  0  0  0  0
  1 25  1  0  0  0  0
  1 62  1  0  0  0  0
  2 27  2  0  0  0  0
  3 28  2  0  0  0  0
  4 11  1  0  0  0  0
  4 12  1  0  0  0  0
  4 13  1  0  0  0  0
  5 14  1  0  0  0  0
  5 15  1  0  0  0  0
  5 19  1  0  0  0  0
  6 18  1  0  0  0  0
  6 20  1  0  0  0  0
  6 22  1  0  0  0  0
  7 20  1  0  0  0  0
  7 21  1  0  0  0  0
  7 24  1  0  0  0  0
  8 20  2  0  0  0  0
  8 23  1  0  0  0  0
  9 23  1  0  0  0  0
  9 28  1  0  0  0  0
  9 31  1  0  0  0  0
 10 27  1  0  0  0  0
 10 28  1  0  0  0  0
 10 33  1  0  0  0  0
 11 14  1  0  0  0  0
 11 34  1  0  0  0  0
 11 35  1  0  0  0  0
 12 15  1  0  0  0  0
 12 36  1  0  0  0  0
 12 37  1  0  0  0  0
 13 16  1  0  0  0  0
 13 38  1  0  0  0  0
 13 39  1  0  0  0  0
 14 40  1  0  0  0  0
 14 41  1  0  0  0  0
 15 42  1  0  0  0  0
 15 43  1  0  0  0  0
 16 17  1  0  0  0  0
 16 44  1  0  0  0  0
 16 45  1  0  0  0  0
 17 18  1  0  0  0  0
 17 46  1  0  0  0  0
 17 47  1  0  0  0  0
 18 48  1  0  0  0  0
 18 49  1  0  0  0  0
 19 25  1  0  0  0  0
 19 26  2  0  0  0  0
 21 23  2  0  0  0  0
 21 27  1  0  0  0  0
 22 24  2  0  0  0  0
 22 50  1  0  0  0  0
 24 51  1  0  0  0  0
 25 29  2  0  0  0  0
 26 30  1  0  0  0  0
 26 52  1  0  0  0  0
 29 32  1  0  0  0  0
 29 53  1  0  0  0  0
 30 32  2  0  0  0  0
 30 54  1  0  0  0  0
 31 55  1  0  0  0  0
 31 56  1  0  0  0  0
 31 57  1  0  0  0  0
 32 58  1  0  0  0  0
 33 59  1  0  0  0  0
 33 60  1  0  0  0  0
 33 61  1  0  0  0  0
M  END
> <PUBCHEM_COMPOUND_CID>
118736364

> <PUBCHEM_COMPOUND_CANONICALIZED>
1

> <PUBCHEM_CACTVS_COMPLEXITY>
731

> <PUBCHEM_CACTVS_HBOND_ACCEPTOR>
6

> <PUBCHEM_CACTVS_HBOND_DONOR>
1

> <PUBCHEM_CACTVS_ROTATABLE_BOND>
6

> <PUBCHEM_CACTVS_SUBSKEYS>
AAADceB7sAAAAAAAAAAAAAAAAAAAAWLAAAA8WIAAAAAWAFgB8AAAHgAACAAACAzBlgQ/9pcMGgCoATd3dACCgC03MqAJ2AG/fMiKbmrS2bOUcIhsxzPY2GeQQAAAAAAAAAAAEAAAAAAAAAAgAAAAAAAAAA==

> <PUBCHEM_IUPAC_OPENEYE_NAME>
6-[4-[4-(2-hydroxyphenyl)piperazin-1-yl]butyl]-2,4-dimethyl-purino[7,8-a]imidazole-1,3-dione

> <PUBCHEM_IUPAC_CAS_NAME>
6-[4-[4-(2-hydroxyphenyl)-1-piperazinyl]butyl]-2,4-dimethylpurino[7,8-a]imidazole-1,3-dione

> <PUBCHEM_IUPAC_NAME_MARKUP>
6-[4-[4-(2-hydroxyphenyl)piperazin-1-yl]butyl]-2,4-dimethylpurino[7,8-a]imidazole-1,3-dione

> <PUBCHEM_IUPAC_NAME>
6-[4-[4-(2-hydroxyphenyl)piperazin-1-yl]butyl]-2,4-dimethylpurino[7,8-a]imidazole-1,3-dione

> <PUBCHEM_IUPAC_SYSTEMATIC_NAME>
6-[4-[4-(2-hydroxyphenyl)piperazin-1-yl]butyl]-2,4-dimethyl-purino[7,8-a]imidazole-1,3-dione

> <PUBCHEM_IUPAC_TRADITIONAL_NAME>
6-[4-[4-(2-hydroxyphenyl)piperazino]butyl]-2,4-dimethyl-purin[7,8-a]imidazole-1,3-quinone

> <PUBCHEM_IUPAC_INCHI>
InChI=1S/C23H29N7O3/c1-25-20-19(21(32)26(2)23(25)33)30-16-15-29(22(30)24-20)10-6-5-9-27-11-13-28(14-12-27)17-7-3-4-8-18(17)31/h3-4,7-8,15-16,31H,5-6,9-14H2,1-2H3

> <PUBCHEM_IUPAC_INCHIKEY>
OCILYBWYAOZBTC-UHFFFAOYSA-N

> <PUBCHEM_XLOGP3_AA>
2.4

> <PUBCHEM_EXACT_MASS>
451.23318781

> <PUBCHEM_MOLECULAR_FORMULA>
C23H29N7O3

> <PUBCHEM_MOLECULAR_WEIGHT>
451.5

> <PUBCHEM_OPENEYE_CAN_SMILES>
CN1C2=C(C(=O)N(C1=O)C)N3C=CN(C3=N2)CCCCN4CCN(CC4)C5=CC=CC=C5O

> <PUBCHEM_OPENEYE_ISO_SMILES>
CN1C2=C(C(=O)N(C1=O)C)N3C=CN(C3=N2)CCCCN4CCN(CC4)C5=CC=CC=C5O

> <PUBCHEM_CACTVS_TPSA>
89.6

> <PUBCHEM_MONOISOTOPIC_WEIGHT>
451.23318781

> <PUBCHEM_TOTAL_CHARGE>
0

> <PUBCHEM_HEAVY_ATOM_COUNT>
33

> <PUBCHEM_ATOM_DEF_STEREO_COUNT>
0

> <PUBCHEM_ATOM_UDEF_STEREO_COUNT>
0

> <PUBCHEM_BOND_DEF_STEREO_COUNT>
0

> <PUBCHEM_BOND_UDEF_STEREO_COUNT>
0

> <PUBCHEM_ISOTOPIC_ATOM_COUNT>
0

> <PUBCHEM_COMPONENT_COUNT>
1

> <PUBCHEM_CACTVS_TAUTO_COUNT>
-1

> <PUBCHEM_COORDINATE_TYPE>
1
5
255

> <PUBCHEM_BONDANNOTATIONS>
10  27  8
10  28  8
19  25  8
19  26  8
21  23  8
21  27  8
22  24  8
25  29  8
26  30  8
29  32  8
30  32  8
6  20  8
6  22  8
7  20  8
7  21  8
7  24  8
8  20  8
8  23  8
9  23  8
9  28  8

$$$$
