11304596
  -OEChem-09292322312D

 59 63  0     0  0  0  0  0  0999 V2000
    2.5000    5.1379    0.0000 O   0  0  0  0  0  0  0  0  0  0  0  0
    4.2213    5.5992    0.0000 O   0  0  0  0  0  0  0  0  0  0  0  0
    6.1808   -0.5645    0.0000 N   0  0  0  0  0  0  0  0  0  0  0  0
    6.1808   -2.5645    0.0000 N   0  0  0  0  0  0  0  0  0  0  0  0
    3.5827    3.9355    0.0000 N   0  0  0  0  0  0  0  0  0  0  0  0
    7.9407   -5.5992    0.0000 N   0  0  0  0  0  0  0  0  0  0  0  0
    5.3147   -1.0645    0.0000 C   0  0  0  0  0  0  0  0  0  0  0  0
    7.0468   -1.0645    0.0000 C   0  0  0  0  0  0  0  0  0  0  0  0
    5.3147   -2.0645    0.0000 C   0  0  0  0  0  0  0  0  0  0  0  0
    7.0468   -2.0645    0.0000 C   0  0  0  0  0  0  0  0  0  0  0  0
    6.1808    0.4355    0.0000 C   0  0  0  0  0  0  0  0  0  0  0  0
    6.1808   -3.5645    0.0000 C   0  0  0  0  0  0  0  0  0  0  0  0
    5.3147    0.9355    0.0000 C   0  0  0  0  0  0  0  0  0  0  0  0
    7.0468   -4.0645    0.0000 C   0  0  0  0  0  0  0  0  0  0  0  0
    5.3147    1.9355    0.0000 C   0  0  0  0  0  0  0  0  0  0  0  0
    5.3147   -4.0645    0.0000 C   0  0  0  0  0  0  0  0  0  0  0  0
    7.0468   -5.0645    0.0000 C   0  0  0  0  0  0  0  0  0  0  0  0
    4.4487    2.4355    0.0000 C   0  0  0  0  0  0  0  0  0  0  0  0
    4.4487    3.4355    0.0000 C   0  0  0  0  0  0  0  0  0  0  0  0
    6.1808    2.4355    0.0000 C   0  0  0  0  0  0  0  0  0  0  0  0
    7.9407   -3.5298    0.0000 C   0  0  0  0  0  0  0  0  0  0  0  0
    5.3147   -5.0645    0.0000 C   0  0  0  0  0  0  0  0  0  0  0  0
    6.1808   -5.5645    0.0000 C   0  0  0  0  0  0  0  0  0  0  0  0
    2.6691    3.5288    0.0000 C   0  0  0  0  0  0  0  0  0  0  0  0
    5.3147    3.9355    0.0000 C   0  0  0  0  0  0  0  0  0  0  0  0
    6.1808    3.4355    0.0000 C   0  0  0  0  0  0  0  0  0  0  0  0
    8.8468   -4.0437    0.0000 C   0  0  0  0  0  0  0  0  0  0  0  0
    2.0000    4.2719    0.0000 C   0  0  0  0  0  0  0  0  0  0  0  0
    8.8468   -5.0853    0.0000 C   0  0  0  0  0  0  0  0  0  0  0  0
    3.4782    4.9300    0.0000 C   0  0  0  0  0  0  0  0  0  0  0  0
    9.7109   -5.5886    0.0000 C   0  0  0  0  0  0  0  0  0  0  0  0
    5.1027   -0.4819    0.0000 H   0  0  0  0  0  0  0  0  0  0  0  0
    4.7042   -1.1722    0.0000 H   0  0  0  0  0  0  0  0  0  0  0  0
    7.6574   -1.1722    0.0000 H   0  0  0  0  0  0  0  0  0  0  0  0
    7.2588   -0.4819    0.0000 H   0  0  0  0  0  0  0  0  0  0  0  0
    4.7042   -1.9568    0.0000 H   0  0  0  0  0  0  0  0  0  0  0  0
    5.1027   -2.6471    0.0000 H   0  0  0  0  0  0  0  0  0  0  0  0
    7.2588   -2.6471    0.0000 H   0  0  0  0  0  0  0  0  0  0  0  0
    7.6574   -1.9568    0.0000 H   0  0  0  0  0  0  0  0  0  0  0  0
    6.7913    0.3278    0.0000 H   0  0  0  0  0  0  0  0  0  0  0  0
    6.3928    1.0181    0.0000 H   0  0  0  0  0  0  0  0  0  0  0  0
    4.7042    1.0432    0.0000 H   0  0  0  0  0  0  0  0  0  0  0  0
    5.1027    0.3529    0.0000 H   0  0  0  0  0  0  0  0  0  0  0  0
    4.7778   -3.7545    0.0000 H   0  0  0  0  0  0  0  0  0  0  0  0
    3.9118    2.1255    0.0000 H   0  0  0  0  0  0  0  0  0  0  0  0
    6.7177    2.1255    0.0000 H   0  0  0  0  0  0  0  0  0  0  0  0
    7.9336   -2.9099    0.0000 H   0  0  0  0  0  0  0  0  0  0  0  0
    4.7778   -5.3745    0.0000 H   0  0  0  0  0  0  0  0  0  0  0  0
    6.1808   -6.1845    0.0000 H   0  0  0  0  0  0  0  0  0  0  0  0
    2.1675    3.1643    0.0000 H   0  0  0  0  0  0  0  0  0  0  0  0
    2.9791    2.9918    0.0000 H   0  0  0  0  0  0  0  0  0  0  0  0
    5.3147    4.5555    0.0000 H   0  0  0  0  0  0  0  0  0  0  0  0
    6.7177    3.7455    0.0000 H   0  0  0  0  0  0  0  0  0  0  0  0
    9.3825   -3.7316    0.0000 H   0  0  0  0  0  0  0  0  0  0  0  0
    1.4984    4.6363    0.0000 H   0  0  0  0  0  0  0  0  0  0  0  0
    1.5851    3.8112    0.0000 H   0  0  0  0  0  0  0  0  0  0  0  0
    9.3988   -6.1244    0.0000 H   0  0  0  0  0  0  0  0  0  0  0  0
   10.2466   -5.9007    0.0000 H   0  0  0  0  0  0  0  0  0  0  0  0
   10.0229   -5.0529    0.0000 H   0  0  0  0  0  0  0  0  0  0  0  0
  1 28  1  0  0  0  0
  1 30  1  0  0  0  0
  2 30  2  0  0  0  0
  3  7  1  0  0  0  0
  3  8  1  0  0  0  0
  3 11  1  0  0  0  0
  4  9  1  0  0  0  0
  4 10  1  0  0  0  0
  4 12  1  0  0  0  0
  5 19  1  0  0  0  0
  5 24  1  0  0  0  0
  5 30  1  0  0  0  0
  6 17  1  0  0  0  0
  6 29  2  0  0  0  0
  7  9  1  0  0  0  0
  7 32  1  0  0  0  0
  7 33  1  0  0  0  0
  8 10  1  0  0  0  0
  8 34  1  0  0  0  0
  8 35  1  0  0  0  0
  9 36  1  0  0  0  0
  9 37  1  0  0  0  0
 10 38  1  0  0  0  0
 10 39  1  0  0  0  0
 11 13  1  0  0  0  0
 11 40  1  0  0  0  0
 11 41  1  0  0  0  0
 12 14  1  0  0  0  0
 12 16  2  0  0  0  0
 13 15  1  0  0  0  0
 13 42  1  0  0  0  0
 13 43  1  0  0  0  0
 14 17  2  0  0  0  0
 14 21  1  0  0  0  0
 15 18  2  0  0  0  0
 15 20  1  0  0  0  0
 16 22  1  0  0  0  0
 16 44  1  0  0  0  0
 17 23  1  0  0  0  0
 18 19  1  0  0  0  0
 18 45  1  0  0  0  0
 19 25  2  0  0  0  0
 20 26  2  0  0  0  0
 20 46  1  0  0  0  0
 21 27  2  0  0  0  0
 21 47  1  0  0  0  0
 22 23  2  0  0  0  0
 22 48  1  0  0  0  0
 23 49  1  0  0  0  0
 24 28  1  0  0  0  0
 24 50  1  0  0  0  0
 24 51  1  0  0  0  0
 25 26  1  0  0  0  0
 25 52  1  0  0  0  0
 26 53  1  0  0  0  0
 27 29  1  0  0  0  0
 27 54  1  0  0  0  0
 28 55  1  0  0  0  0
 28 56  1  0  0  0  0
 29 31  1  0  0  0  0
 31 57  1  0  0  0  0
 31 58  1  0  0  0  0
 31 59  1  0  0  0  0
M  END
> <PUBCHEM_COMPOUND_CID>
11304596

> <PUBCHEM_COMPOUND_CANONICALIZED>
1

> <PUBCHEM_CACTVS_COMPLEXITY>
608

> <PUBCHEM_CACTVS_HBOND_ACCEPTOR>
5

> <PUBCHEM_CACTVS_HBOND_DONOR>
0

> <PUBCHEM_CACTVS_ROTATABLE_BOND>
5

> <PUBCHEM_CACTVS_SUBSKEYS>
AAADceB7sAAAAAAAAAAAAAAAAAAAAWAAAAA8eIEAAAAAAACx9AAAHgAAAAAADAjhngYyyPMIFACoAyRiXACCgCAhAiAImCA4ZJgKYOLA0dGdJAhghgDYyAcQgIAOAAAAQAQCAAAAAACACAQAAAAAAAAAAA==

> <PUBCHEM_IUPAC_OPENEYE_NAME>
3-[3-[2-[4-(2-methyl-5-quinolyl)piperazin-1-yl]ethyl]phenyl]oxazolidin-2-one

> <PUBCHEM_IUPAC_CAS_NAME>
3-[3-[2-[4-(2-methyl-5-quinolinyl)-1-piperazinyl]ethyl]phenyl]-2-oxazolidinone

> <PUBCHEM_IUPAC_NAME_MARKUP>
3-[3-[2-[4-(2-methylquinolin-5-yl)piperazin-1-yl]ethyl]phenyl]-1,3-oxazolidin-2-one

> <PUBCHEM_IUPAC_NAME>
3-[3-[2-[4-(2-methylquinolin-5-yl)piperazin-1-yl]ethyl]phenyl]-1,3-oxazolidin-2-one

> <PUBCHEM_IUPAC_SYSTEMATIC_NAME>
3-[3-[2-[4-(2-methylquinolin-5-yl)piperazin-1-yl]ethyl]phenyl]-1,3-oxazolidin-2-one

> <PUBCHEM_IUPAC_TRADITIONAL_NAME>
3-[3-[2-[4-(2-methyl-5-quinolyl)piperazino]ethyl]phenyl]oxazolidin-2-one

> <PUBCHEM_IUPAC_INCHI>
InChI=1S/C25H28N4O2/c1-19-8-9-22-23(26-19)6-3-7-24(22)28-14-12-27(13-15-28)11-10-20-4-2-5-21(18-20)29-16-17-31-25(29)30/h2-9,18H,10-17H2,1H3

> <PUBCHEM_IUPAC_INCHIKEY>
ZGKITGMYHCRUFD-UHFFFAOYSA-N

> <PUBCHEM_XLOGP3_AA>
4

> <PUBCHEM_EXACT_MASS>
416.22122615

> <PUBCHEM_MOLECULAR_FORMULA>
C25H28N4O2

> <PUBCHEM_MOLECULAR_WEIGHT>
416.5

> <PUBCHEM_OPENEYE_CAN_SMILES>
CC1=NC2=C(C=C1)C(=CC=C2)N3CCN(CC3)CCC4=CC(=CC=C4)N5CCOC5=O

> <PUBCHEM_OPENEYE_ISO_SMILES>
CC1=NC2=C(C=C1)C(=CC=C2)N3CCN(CC3)CCC4=CC(=CC=C4)N5CCOC5=O

> <PUBCHEM_CACTVS_TPSA>
48.9

> <PUBCHEM_MONOISOTOPIC_WEIGHT>
416.22122615

> <PUBCHEM_TOTAL_CHARGE>
0

> <PUBCHEM_HEAVY_ATOM_COUNT>
31

> <PUBCHEM_ATOM_DEF_STEREO_COUNT>
0

> <PUBCHEM_ATOM_UDEF_STEREO_COUNT>
0

> <PUBCHEM_BOND_DEF_STEREO_COUNT>
0

> <PUBCHEM_BOND_UDEF_STEREO_COUNT>
0

> <PUBCHEM_ISOTOPIC_ATOM_COUNT>
0

> <PUBCHEM_COMPONENT_COUNT>
1

> <PUBCHEM_CACTVS_TAUTO_COUNT>
-1

> <PUBCHEM_COORDINATE_TYPE>
1
5
255

> <PUBCHEM_BONDANNOTATIONS>
12  14  8
12  16  8
14  17  8
14  21  8
15  18  8
15  20  8
16  22  8
17  23  8
18  19  8
19  25  8
20  26  8
21  27  8
22  23  8
25  26  8
27  29  8
6  17  8
6  29  8

$$$$
