44436727
  -OEChem-09292322252D

 68 72  0     1  0  0  0  0  0999 V2000
   15.7619   -3.5311    0.0000 Cl  0  0  0  0  0  0  0  0  0  0  0  0
    4.6783    1.7264    0.0000 S   0  0  0  0  0  0  0  0  0  0  0  0
    6.7619    3.3971    0.0000 O   0  0  0  0  0  0  0  0  0  0  0  0
   12.7619   -0.0670    0.0000 N   0  0  0  0  0  0  0  0  0  0  0  0
   10.7619   -0.0670    0.0000 N   0  0  0  0  0  0  0  0  0  0  0  0
    6.7619    1.6651    0.0000 N   0  0  0  0  0  0  0  0  0  0  0  0
   12.2619   -0.9330    0.0000 C   0  0  0  0  0  0  0  0  0  0  0  0
   12.2619    0.7990    0.0000 C   0  0  0  0  0  0  0  0  0  0  0  0
   11.2619   -0.9330    0.0000 C   0  0  0  0  0  0  0  0  0  0  0  0
   11.2619    0.7990    0.0000 C   0  0  0  0  0  0  0  0  0  0  0  0
   13.7619   -0.0670    0.0000 C   0  0  3  0  0  0  0  0  0  0  0  0
    9.7619   -0.0670    0.0000 C   0  0  0  0  0  0  0  0  0  0  0  0
    9.2619    0.7990    0.0000 C   0  0  0  0  0  0  0  0  0  0  0  0
   14.2619   -0.9330    0.0000 C   0  0  0  0  0  0  0  0  0  0  0  0
   14.2619    0.7990    0.0000 C   0  0  0  0  0  0  0  0  0  0  0  0
    8.2619    0.7990    0.0000 C   0  0  0  0  0  0  0  0  0  0  0  0
   15.2619   -0.9330    0.0000 C   0  0  0  0  0  0  0  0  0  0  0  0
   13.7619   -1.7990    0.0000 C   0  0  0  0  0  0  0  0  0  0  0  0
   13.7619    1.6651    0.0000 C   0  0  0  0  0  0  0  0  0  0  0  0
   15.2619    0.7990    0.0000 C   0  0  0  0  0  0  0  0  0  0  0  0
    7.7619    1.6651    0.0000 C   0  0  0  0  0  0  0  0  0  0  0  0
   15.7619   -1.7990    0.0000 C   0  0  0  0  0  0  0  0  0  0  0  0
   14.2619   -2.6651    0.0000 C   0  0  0  0  0  0  0  0  0  0  0  0
   14.2619    2.5311    0.0000 C   0  0  0  0  0  0  0  0  0  0  0  0
   15.7619    1.6651    0.0000 C   0  0  0  0  0  0  0  0  0  0  0  0
   15.2619   -2.6651    0.0000 C   0  0  0  0  0  0  0  0  0  0  0  0
   15.2619    2.5311    0.0000 C   0  0  0  0  0  0  0  0  0  0  0  0
    6.2619    2.5311    0.0000 C   0  0  0  0  0  0  0  0  0  0  0  0
    5.2619    2.5311    0.0000 C   0  0  0  0  0  0  0  0  0  0  0  0
    4.6783    3.3358    0.0000 C   0  0  0  0  0  0  0  0  0  0  0  0
    3.7320    3.0311    0.0000 C   0  0  0  0  0  0  0  0  0  0  0  0
    3.7320    2.0311    0.0000 C   0  0  0  0  0  0  0  0  0  0  0  0
    2.8660    3.5311    0.0000 C   0  0  0  0  0  0  0  0  0  0  0  0
    2.8660    1.5311    0.0000 C   0  0  0  0  0  0  0  0  0  0  0  0
    2.0000    3.0311    0.0000 C   0  0  0  0  0  0  0  0  0  0  0  0
    2.0000    2.0311    0.0000 C   0  0  0  0  0  0  0  0  0  0  0  0
   12.1542   -1.5436    0.0000 H   0  0  0  0  0  0  0  0  0  0  0  0
   12.8445   -1.1451    0.0000 H   0  0  0  0  0  0  0  0  0  0  0  0
   12.8445    1.0111    0.0000 H   0  0  0  0  0  0  0  0  0  0  0  0
   12.1542    1.4096    0.0000 H   0  0  0  0  0  0  0  0  0  0  0  0
   10.6793   -1.1451    0.0000 H   0  0  0  0  0  0  0  0  0  0  0  0
   11.3695   -1.5436    0.0000 H   0  0  0  0  0  0  0  0  0  0  0  0
   11.3695    1.4096    0.0000 H   0  0  0  0  0  0  0  0  0  0  0  0
   10.6793    1.0111    0.0000 H   0  0  0  0  0  0  0  0  0  0  0  0
   13.4519    0.4699    0.0000 H   0  0  0  0  0  0  0  0  0  0  0  0
    9.1793   -0.2790    0.0000 H   0  0  0  0  0  0  0  0  0  0  0  0
    9.8695   -0.6776    0.0000 H   0  0  0  0  0  0  0  0  0  0  0  0
    9.8445    1.0111    0.0000 H   0  0  0  0  0  0  0  0  0  0  0  0
    9.1542    1.4096    0.0000 H   0  0  0  0  0  0  0  0  0  0  0  0
    7.6793    0.5870    0.0000 H   0  0  0  0  0  0  0  0  0  0  0  0
    8.3695    0.1885    0.0000 H   0  0  0  0  0  0  0  0  0  0  0  0
   15.5719   -0.3961    0.0000 H   0  0  0  0  0  0  0  0  0  0  0  0
   13.1419   -1.7990    0.0000 H   0  0  0  0  0  0  0  0  0  0  0  0
   13.1419    1.6651    0.0000 H   0  0  0  0  0  0  0  0  0  0  0  0
   15.5719    0.2621    0.0000 H   0  0  0  0  0  0  0  0  0  0  0  0
    8.3445    1.8771    0.0000 H   0  0  0  0  0  0  0  0  0  0  0  0
    7.6542    2.2756    0.0000 H   0  0  0  0  0  0  0  0  0  0  0  0
   16.3819   -1.7990    0.0000 H   0  0  0  0  0  0  0  0  0  0  0  0
   13.9519   -3.2020    0.0000 H   0  0  0  0  0  0  0  0  0  0  0  0
   13.9519    3.0680    0.0000 H   0  0  0  0  0  0  0  0  0  0  0  0
   16.3819    1.6651    0.0000 H   0  0  0  0  0  0  0  0  0  0  0  0
    6.4519    1.1281    0.0000 H   0  0  0  0  0  0  0  0  0  0  0  0
   15.5719    3.0680    0.0000 H   0  0  0  0  0  0  0  0  0  0  0  0
    4.8709    3.9251    0.0000 H   0  0  0  0  0  0  0  0  0  0  0  0
    2.8660    4.1511    0.0000 H   0  0  0  0  0  0  0  0  0  0  0  0
    2.8660    0.9111    0.0000 H   0  0  0  0  0  0  0  0  0  0  0  0
    1.4631    3.3411    0.0000 H   0  0  0  0  0  0  0  0  0  0  0  0
    1.4631    1.7211    0.0000 H   0  0  0  0  0  0  0  0  0  0  0  0
  1 26  1  0  0  0  0
  2 29  1  0  0  0  0
  2 32  1  0  0  0  0
  3 28  2  0  0  0  0
  4  7  1  0  0  0  0
  4  8  1  0  0  0  0
  4 11  1  0  0  0  0
  5  9  1  0  0  0  0
  5 10  1  0  0  0  0
  5 12  1  0  0  0  0
  6 21  1  0  0  0  0
  6 28  1  0  0  0  0
  6 62  1  0  0  0  0
  7  9  1  0  0  0  0
  7 37  1  0  0  0  0
  7 38  1  0  0  0  0
  8 10  1  0  0  0  0
  8 39  1  0  0  0  0
  8 40  1  0  0  0  0
  9 41  1  0  0  0  0
  9 42  1  0  0  0  0
 10 43  1  0  0  0  0
 10 44  1  0  0  0  0
 11 14  1  0  0  0  0
 11 15  1  0  0  0  0
 11 45  1  0  0  0  0
 12 13  1  0  0  0  0
 12 46  1  0  0  0  0
 12 47  1  0  0  0  0
 13 16  1  0  0  0  0
 13 48  1  0  0  0  0
 13 49  1  0  0  0  0
 14 17  2  0  0  0  0
 14 18  1  0  0  0  0
 15 19  2  0  0  0  0
 15 20  1  0  0  0  0
 16 21  1  0  0  0  0
 16 50  1  0  0  0  0
 16 51  1  0  0  0  0
 17 22  1  0  0  0  0
 17 52  1  0  0  0  0
 18 23  2  0  0  0  0
 18 53  1  0  0  0  0
 19 24  1  0  0  0  0
 19 54  1  0  0  0  0
 20 25  2  0  0  0  0
 20 55  1  0  0  0  0
 21 56  1  0  0  0  0
 21 57  1  0  0  0  0
 22 26  2  0  0  0  0
 22 58  1  0  0  0  0
 23 26  1  0  0  0  0
 23 59  1  0  0  0  0
 24 27  2  0  0  0  0
 24 60  1  0  0  0  0
 25 27  1  0  0  0  0
 25 61  1  0  0  0  0
 27 63  1  0  0  0  0
 28 29  1  0  0  0  0
 29 30  2  0  0  0  0
 30 31  1  0  0  0  0
 30 64  1  0  0  0  0
 31 32  1  0  0  0  0
 31 33  2  0  0  0  0
 32 34  2  0  0  0  0
 33 35  1  0  0  0  0
 33 65  1  0  0  0  0
 34 36  1  0  0  0  0
 34 66  1  0  0  0  0
 35 36  2  0  0  0  0
 35 67  1  0  0  0  0
 36 68  1  0  0  0  0
M  END
> <PUBCHEM_COMPOUND_CID>
44436727

> <PUBCHEM_COMPOUND_CANONICALIZED>
1

> <PUBCHEM_CACTVS_COMPLEXITY>
673

> <PUBCHEM_CACTVS_HBOND_ACCEPTOR>
4

> <PUBCHEM_CACTVS_HBOND_DONOR>
1

> <PUBCHEM_CACTVS_ROTATABLE_BOND>
9

> <PUBCHEM_CACTVS_SUBSKEYS>
AAADcfB7IABEAAAAAAAAAAAAAAAAASAAAAA8YMEAAAAAAEgB9AAAHgYQAAAADCrB2CQwAcPAAAiMAiFSEACDAIAkDRBIiJkIBsgIYDKhlxGUIQhglgCoiYcYiMCOBAAAAAAEAAAIAAAAAAgAAAAAAAAAAA==

> <PUBCHEM_IUPAC_OPENEYE_NAME>
N-[4-[4-[(4-chlorophenyl)-phenyl-methyl]piperazin-1-yl]butyl]benzothiophene-2-carboxamide

> <PUBCHEM_IUPAC_CAS_NAME>
N-[4-[4-[(4-chlorophenyl)-phenylmethyl]-1-piperazinyl]butyl]-1-benzothiophene-2-carboxamide

> <PUBCHEM_IUPAC_NAME_MARKUP>
<I>N</I>-[4-[4-[(4-chlorophenyl)-phenylmethyl]piperazin-1-yl]butyl]-1-benzothiophene-2-carboxamide

> <PUBCHEM_IUPAC_NAME>
N-[4-[4-[(4-chlorophenyl)-phenylmethyl]piperazin-1-yl]butyl]-1-benzothiophene-2-carboxamide

> <PUBCHEM_IUPAC_SYSTEMATIC_NAME>
N-[4-[4-[(4-chlorophenyl)-phenyl-methyl]piperazin-1-yl]butyl]-1-benzothiophene-2-carboxamide

> <PUBCHEM_IUPAC_TRADITIONAL_NAME>
N-[4-[4-[(4-chlorophenyl)-phenyl-methyl]piperazino]butyl]benzothiophene-2-carboxamide

> <PUBCHEM_IUPAC_INCHI>
InChI=1S/C30H32ClN3OS/c31-26-14-12-24(13-15-26)29(23-8-2-1-3-9-23)34-20-18-33(19-21-34)17-7-6-16-32-30(35)28-22-25-10-4-5-11-27(25)36-28/h1-5,8-15,22,29H,6-7,16-21H2,(H,32,35)

> <PUBCHEM_IUPAC_INCHIKEY>
PKGJBHXJYDGBET-UHFFFAOYSA-N

> <PUBCHEM_XLOGP3_AA>
6.9

> <PUBCHEM_EXACT_MASS>
517.1954615

> <PUBCHEM_MOLECULAR_FORMULA>
C30H32ClN3OS

> <PUBCHEM_MOLECULAR_WEIGHT>
518.1

> <PUBCHEM_OPENEYE_CAN_SMILES>
C1CN(CCN1CCCCNC(=O)C2=CC3=CC=CC=C3S2)C(C4=CC=CC=C4)C5=CC=C(C=C5)Cl

> <PUBCHEM_OPENEYE_ISO_SMILES>
C1CN(CCN1CCCCNC(=O)C2=CC3=CC=CC=C3S2)C(C4=CC=CC=C4)C5=CC=C(C=C5)Cl

> <PUBCHEM_CACTVS_TPSA>
63.8

> <PUBCHEM_MONOISOTOPIC_WEIGHT>
517.1954615

> <PUBCHEM_TOTAL_CHARGE>
0

> <PUBCHEM_HEAVY_ATOM_COUNT>
36

> <PUBCHEM_ATOM_DEF_STEREO_COUNT>
0

> <PUBCHEM_ATOM_UDEF_STEREO_COUNT>
1

> <PUBCHEM_BOND_DEF_STEREO_COUNT>
0

> <PUBCHEM_BOND_UDEF_STEREO_COUNT>
0

> <PUBCHEM_ISOTOPIC_ATOM_COUNT>
0

> <PUBCHEM_COMPONENT_COUNT>
1

> <PUBCHEM_CACTVS_TAUTO_COUNT>
-1

> <PUBCHEM_COORDINATE_TYPE>
1
5
255

> <PUBCHEM_BONDANNOTATIONS>
11  15  3
14  17  8
14  18  8
15  19  8
15  20  8
17  22  8
18  23  8
19  24  8
2  29  8
2  32  8
20  25  8
22  26  8
23  26  8
24  27  8
25  27  8
29  30  8
30  31  8
31  32  8
31  33  8
32  34  8
33  35  8
34  36  8
35  36  8

$$$$
