49781894
  -OEChem-09292322312D

 63 66  0     1  0  0  0  0  0999 V2000
    8.9989   -2.6648    0.0000 S   0  0  0  0  0  0  0  0  0  0  0  0
    3.2526   -0.7409    0.0000 O   0  0  0  0  0  0  0  0  0  0  0  0
    8.0650    0.4268    0.0000 N   0  0  0  0  0  0  0  0  0  0  0  0
    7.1972    2.2287    0.0000 N   0  0  0  0  0  0  0  0  0  0  0  0
    4.4258   -2.0151    0.0000 N   0  0  0  0  0  0  0  0  0  0  0  0
    8.4989   -0.4742    0.0000 C   0  0  3  0  0  0  0  0  0  0  0  0
    7.0678    0.5015    0.0000 C   0  0  0  0  0  0  0  0  0  0  0  0
    8.6283    1.2530    0.0000 C   0  0  0  0  0  0  0  0  0  0  0  0
    6.6339    1.4025    0.0000 C   0  0  0  0  0  0  0  0  0  0  0  0
    8.1945    2.1540    0.0000 C   0  0  0  0  0  0  0  0  0  0  0  0
    9.4989   -0.4742    0.0000 C   0  0  0  0  0  0  0  0  0  0  0  0
    7.8754   -1.2560    0.0000 C   0  0  0  0  0  0  0  0  0  0  0  0
   10.1224   -1.2560    0.0000 C   0  0  0  0  0  0  0  0  0  0  0  0
    8.0979   -2.2309    0.0000 C   0  0  0  0  0  0  0  0  0  0  0  0
    6.8849   -0.9337    0.0000 C   0  0  0  0  0  0  0  0  0  0  0  0
    6.7634    3.1297    0.0000 C   0  0  0  0  0  0  0  0  0  0  0  0
    9.8998   -2.2310    0.0000 C   0  0  0  0  0  0  0  0  0  0  0  0
    6.1159   -1.6362    0.0000 C   0  0  0  0  0  0  0  0  0  0  0  0
    7.3453   -2.9511    0.0000 C   0  0  0  0  0  0  0  0  0  0  0  0
   11.1129   -0.9337    0.0000 C   0  0  0  0  0  0  0  0  0  0  0  0
    6.3476   -2.6518    0.0000 C   0  0  0  0  0  0  0  0  0  0  0  0
    5.1614   -1.3378    0.0000 C   0  0  0  0  0  0  0  0  0  0  0  0
   10.6524   -2.9511    0.0000 C   0  0  0  0  0  0  0  0  0  0  0  0
    2.7357   -2.3940    0.0000 C   0  0  0  0  0  0  0  0  0  0  0  0
   11.8819   -1.6363    0.0000 C   0  0  0  0  0  0  0  0  0  0  0  0
   11.6501   -2.6518    0.0000 C   0  0  0  0  0  0  0  0  0  0  0  0
    3.4714   -1.7167    0.0000 C   0  0  0  0  0  0  0  0  0  0  0  0
    2.0000   -3.0714    0.0000 C   0  0  0  0  0  0  0  0  0  0  0  0
    2.0583   -1.6584    0.0000 C   0  0  0  0  0  0  0  0  0  0  0  0
    3.4130   -3.1297    0.0000 C   0  0  0  0  0  0  0  0  0  0  0  0
    8.8288    0.0508    0.0000 H   0  0  0  0  0  0  0  0  0  0  0  0
    6.4710    0.3336    0.0000 H   0  0  0  0  0  0  0  0  0  0  0  0
    7.1295   -0.1154    0.0000 H   0  0  0  0  0  0  0  0  0  0  0  0
    9.0722    0.8201    0.0000 H   0  0  0  0  0  0  0  0  0  0  0  0
    9.1317    1.6149    0.0000 H   0  0  0  0  0  0  0  0  0  0  0  0
   10.0575   -0.2052    0.0000 H   0  0  0  0  0  0  0  0  0  0  0  0
    9.3609    0.1303    0.0000 H   0  0  0  0  0  0  0  0  0  0  0  0
    6.1901    1.8354    0.0000 H   0  0  0  0  0  0  0  0  0  0  0  0
    6.1305    1.0406    0.0000 H   0  0  0  0  0  0  0  0  0  0  0  0
    8.7913    2.3219    0.0000 H   0  0  0  0  0  0  0  0  0  0  0  0
    8.1327    2.7709    0.0000 H   0  0  0  0  0  0  0  0  0  0  0  0
    6.7539   -0.3277    0.0000 H   0  0  0  0  0  0  0  0  0  0  0  0
    7.3220    3.3987    0.0000 H   0  0  0  0  0  0  0  0  0  0  0  0
    6.4944    3.6883    0.0000 H   0  0  0  0  0  0  0  0  0  0  0  0
    6.2048    2.8607    0.0000 H   0  0  0  0  0  0  0  0  0  0  0  0
    7.4903   -3.5539    0.0000 H   0  0  0  0  0  0  0  0  0  0  0  0
   11.2438   -0.3277    0.0000 H   0  0  0  0  0  0  0  0  0  0  0  0
    5.8948   -3.0752    0.0000 H   0  0  0  0  0  0  0  0  0  0  0  0
    5.4464   -0.7872    0.0000 H   0  0  0  0  0  0  0  0  0  0  0  0
    4.6687   -0.9615    0.0000 H   0  0  0  0  0  0  0  0  0  0  0  0
   10.5074   -3.5540    0.0000 H   0  0  0  0  0  0  0  0  0  0  0  0
   12.4736   -1.4513    0.0000 H   0  0  0  0  0  0  0  0  0  0  0  0
    4.5614   -2.6201    0.0000 H   0  0  0  0  0  0  0  0  0  0  0  0
   12.1029   -3.0753    0.0000 H   0  0  0  0  0  0  0  0  0  0  0  0
    1.5800   -2.6152    0.0000 H   0  0  0  0  0  0  0  0  0  0  0  0
    1.5439   -3.4913    0.0000 H   0  0  0  0  0  0  0  0  0  0  0  0
    2.4200   -3.5275    0.0000 H   0  0  0  0  0  0  0  0  0  0  0  0
    2.5144   -1.2384    0.0000 H   0  0  0  0  0  0  0  0  0  0  0  0
    1.6384   -1.2022    0.0000 H   0  0  0  0  0  0  0  0  0  0  0  0
    1.6022   -2.0783    0.0000 H   0  0  0  0  0  0  0  0  0  0  0  0
    2.9569   -3.5496    0.0000 H   0  0  0  0  0  0  0  0  0  0  0  0
    3.8330   -3.5858    0.0000 H   0  0  0  0  0  0  0  0  0  0  0  0
    3.8691   -2.7098    0.0000 H   0  0  0  0  0  0  0  0  0  0  0  0
  1 14  1  0  0  0  0
  1 17  1  0  0  0  0
  2 27  2  0  0  0  0
  3  6  1  0  0  0  0
  3  7  1  0  0  0  0
  3  8  1  0  0  0  0
  4  9  1  0  0  0  0
  4 10  1  0  0  0  0
  4 16  1  0  0  0  0
  5 22  1  0  0  0  0
  5 27  1  0  0  0  0
  5 53  1  0  0  0  0
  6 11  1  0  0  0  0
  6 12  1  0  0  0  0
  6 31  1  0  0  0  0
  7  9  1  0  0  0  0
  7 32  1  0  0  0  0
  7 33  1  0  0  0  0
  8 10  1  0  0  0  0
  8 34  1  0  0  0  0
  8 35  1  0  0  0  0
  9 38  1  0  0  0  0
  9 39  1  0  0  0  0
 10 40  1  0  0  0  0
 10 41  1  0  0  0  0
 11 13  1  0  0  0  0
 11 36  1  0  0  0  0
 11 37  1  0  0  0  0
 12 14  2  0  0  0  0
 12 15  1  0  0  0  0
 13 17  1  0  0  0  0
 13 20  2  0  0  0  0
 14 19  1  0  0  0  0
 15 18  2  0  0  0  0
 15 42  1  0  0  0  0
 16 43  1  0  0  0  0
 16 44  1  0  0  0  0
 16 45  1  0  0  0  0
 17 23  2  0  0  0  0
 18 21  1  0  0  0  0
 18 22  1  0  0  0  0
 19 21  2  0  0  0  0
 19 46  1  0  0  0  0
 20 25  1  0  0  0  0
 20 47  1  0  0  0  0
 21 48  1  0  0  0  0
 22 49  1  0  0  0  0
 22 50  1  0  0  0  0
 23 26  1  0  0  0  0
 23 51  1  0  0  0  0
 24 27  1  0  0  0  0
 24 28  1  0  0  0  0
 24 29  1  0  0  0  0
 24 30  1  0  0  0  0
 25 26  2  0  0  0  0
 25 52  1  0  0  0  0
 26 54  1  0  0  0  0
 28 55  1  0  0  0  0
 28 56  1  0  0  0  0
 28 57  1  0  0  0  0
 29 58  1  0  0  0  0
 29 59  1  0  0  0  0
 29 60  1  0  0  0  0
 30 61  1  0  0  0  0
 30 62  1  0  0  0  0
 30 63  1  0  0  0  0
M  END
> <PUBCHEM_COMPOUND_CID>
49781894

> <PUBCHEM_COMPOUND_CANONICALIZED>
1

> <PUBCHEM_CACTVS_COMPLEXITY>
583

> <PUBCHEM_CACTVS_HBOND_ACCEPTOR>
4

> <PUBCHEM_CACTVS_HBOND_DONOR>
1

> <PUBCHEM_CACTVS_ROTATABLE_BOND>
4

> <PUBCHEM_CACTVS_SUBSKEYS>
AAADcfB7IABAAAAAAAAAAAAAAAAAAAAAAAA8YIAABIAAAAABQAAAHgQQAAAADijB2AQyAYPAAAiIAiFSEACCAAAgCBAIiJkIBIgIYCKgkRGUIAhghgCoiAcQgMAOEAACAAAEAAAgAAQAAAgAAAAAAAAAAA==

> <PUBCHEM_IUPAC_OPENEYE_NAME>
2,2-dimethyl-N-[[5-(4-methylpiperazin-1-yl)-5,6-dihydrobenzo[b][1]benzothiepin-3-yl]methyl]propanamide

> <PUBCHEM_IUPAC_CAS_NAME>
2,2-dimethyl-N-[[5-(4-methyl-1-piperazinyl)-5,6-dihydrobenzo[b][1]benzothiepin-3-yl]methyl]propanamide

> <PUBCHEM_IUPAC_NAME_MARKUP>
2,2-dimethyl-<I>N</I>-[[5-(4-methylpiperazin-1-yl)-5,6-dihydrobenzo[b][1]benzothiepin-3-yl]methyl]propanamide

> <PUBCHEM_IUPAC_NAME>
2,2-dimethyl-N-[[5-(4-methylpiperazin-1-yl)-5,6-dihydrobenzo[b][1]benzothiepin-3-yl]methyl]propanamide

> <PUBCHEM_IUPAC_SYSTEMATIC_NAME>
2,2-dimethyl-N-[[5-(4-methylpiperazin-1-yl)-5,6-dihydrobenzo[b][1]benzothiepin-3-yl]methyl]propanamide

> <PUBCHEM_IUPAC_TRADITIONAL_NAME>
2,2-dimethyl-N-[[5-(4-methylpiperazino)-5,6-dihydrobenzo[b][1]benzothiepin-3-yl]methyl]propionamide

> <PUBCHEM_IUPAC_INCHI>
InChI=1S/C25H33N3OS/c1-25(2,3)24(29)26-17-18-9-10-23-20(15-18)21(28-13-11-27(4)12-14-28)16-19-7-5-6-8-22(19)30-23/h5-10,15,21H,11-14,16-17H2,1-4H3,(H,26,29)

> <PUBCHEM_IUPAC_INCHIKEY>
CKLAPTDGXNWXQT-UHFFFAOYSA-N

> <PUBCHEM_XLOGP3_AA>
4.2

> <PUBCHEM_EXACT_MASS>
423.23443386

> <PUBCHEM_MOLECULAR_FORMULA>
C25H33N3OS

> <PUBCHEM_MOLECULAR_WEIGHT>
423.6

> <PUBCHEM_OPENEYE_CAN_SMILES>
CC(C)(C)C(=O)NCC1=CC2=C(C=C1)SC3=CC=CC=C3CC2N4CCN(CC4)C

> <PUBCHEM_OPENEYE_ISO_SMILES>
CC(C)(C)C(=O)NCC1=CC2=C(C=C1)SC3=CC=CC=C3CC2N4CCN(CC4)C

> <PUBCHEM_CACTVS_TPSA>
60.9

> <PUBCHEM_MONOISOTOPIC_WEIGHT>
423.23443386

> <PUBCHEM_TOTAL_CHARGE>
0

> <PUBCHEM_HEAVY_ATOM_COUNT>
30

> <PUBCHEM_ATOM_DEF_STEREO_COUNT>
0

> <PUBCHEM_ATOM_UDEF_STEREO_COUNT>
1

> <PUBCHEM_BOND_DEF_STEREO_COUNT>
0

> <PUBCHEM_BOND_UDEF_STEREO_COUNT>
0

> <PUBCHEM_ISOTOPIC_ATOM_COUNT>
0

> <PUBCHEM_COMPONENT_COUNT>
1

> <PUBCHEM_CACTVS_TAUTO_COUNT>
-1

> <PUBCHEM_COORDINATE_TYPE>
1
5
255

> <PUBCHEM_BONDANNOTATIONS>
12  14  8
12  15  8
13  17  8
13  20  8
14  19  8
15  18  8
17  23  8
18  21  8
19  21  8
20  25  8
23  26  8
25  26  8
6  3  3

$$$$
