44415560
  -OEChem-09292322282D

 67 72  0     0  0  0  0  0  0999 V2000
    9.3016    0.6797    0.0000 Cl  0  0  0  0  0  0  0  0  0  0  0  0
    7.1962   -1.6473    0.0000 O   0  0  0  0  0  0  0  0  0  0  0  0
    4.5981   -3.1473    0.0000 O   0  0  0  0  0  0  0  0  0  0  0  0
    4.5303    2.4444    0.0000 N   0  0  0  0  0  0  0  0  0  0  0  0
    3.6625    4.2463    0.0000 N   0  0  0  0  0  0  0  0  0  0  0  0
    5.4641   -0.6473    0.0000 N   0  0  0  0  0  0  0  0  0  0  0  0
    5.9642    1.5434    0.0000 N   0  0  0  0  0  0  0  0  0  0  0  0
    5.4641   -1.6473    0.0000 N   0  0  0  0  0  0  0  0  0  0  0  0
    3.5331    2.5191    0.0000 C   0  0  0  0  0  0  0  0  0  0  0  0
    5.0936    3.2706    0.0000 C   0  0  0  0  0  0  0  0  0  0  0  0
    3.0992    3.4201    0.0000 C   0  0  0  0  0  0  0  0  0  0  0  0
    4.6597    4.1716    0.0000 C   0  0  0  0  0  0  0  0  0  0  0  0
    4.9642    1.5434    0.0000 C   0  0  0  0  0  0  0  0  0  0  0  0
    4.3406    0.7616    0.0000 C   0  0  0  0  0  0  0  0  0  0  0  0
    3.2286    5.1473    0.0000 C   0  0  0  0  0  0  0  0  0  0  0  0
    4.5632   -0.2134    0.0000 C   0  0  0  0  0  0  0  0  0  0  0  0
    6.3651   -0.2134    0.0000 C   0  0  0  0  0  0  0  0  0  0  0  0
    6.5876    0.7615    0.0000 C   0  0  0  0  0  0  0  0  0  0  0  0
    3.3502    1.0839    0.0000 C   0  0  0  0  0  0  0  0  0  0  0  0
    3.8106   -0.9335    0.0000 C   0  0  0  0  0  0  0  0  0  0  0  0
    2.5811    0.3813    0.0000 C   0  0  0  0  0  0  0  0  0  0  0  0
    7.1176   -0.9336    0.0000 C   0  0  0  0  0  0  0  0  0  0  0  0
    7.5781    1.0839    0.0000 C   0  0  0  0  0  0  0  0  0  0  0  0
    2.8129   -0.6342    0.0000 C   0  0  0  0  0  0  0  0  0  0  0  0
    8.1154   -0.6342    0.0000 C   0  0  0  0  0  0  0  0  0  0  0  0
    8.3471    0.3813    0.0000 C   0  0  0  0  0  0  0  0  0  0  0  0
    6.3302   -2.1473    0.0000 C   0  0  0  0  0  0  0  0  0  0  0  0
    6.3301   -3.1473    0.0000 C   0  0  0  0  0  0  0  0  0  0  0  0
    5.4641   -3.6473    0.0000 C   0  0  0  0  0  0  0  0  0  0  0  0
    7.1962   -3.6473    0.0000 C   0  0  0  0  0  0  0  0  0  0  0  0
    5.4641   -4.6473    0.0000 C   0  0  0  0  0  0  0  0  0  0  0  0
    7.1962   -4.6473    0.0000 C   0  0  0  0  0  0  0  0  0  0  0  0
    6.3301   -5.1473    0.0000 C   0  0  0  0  0  0  0  0  0  0  0  0
    3.7321   -3.6472    0.0000 C   0  0  0  0  0  0  0  0  0  0  0  0
    2.8660   -3.1472    0.0000 C   0  0  0  0  0  0  0  0  0  0  0  0
    3.7320   -4.6472    0.0000 C   0  0  0  0  0  0  0  0  0  0  0  0
    2.0000   -3.6472    0.0000 C   0  0  0  0  0  0  0  0  0  0  0  0
    2.8660   -5.1472    0.0000 C   0  0  0  0  0  0  0  0  0  0  0  0
    2.0000   -4.6472    0.0000 C   0  0  0  0  0  0  0  0  0  0  0  0
    2.9362    2.3512    0.0000 H   0  0  0  0  0  0  0  0  0  0  0  0
    3.5948    1.9022    0.0000 H   0  0  0  0  0  0  0  0  0  0  0  0
    5.5374    2.8377    0.0000 H   0  0  0  0  0  0  0  0  0  0  0  0
    5.5970    3.6325    0.0000 H   0  0  0  0  0  0  0  0  0  0  0  0
    2.6554    3.8530    0.0000 H   0  0  0  0  0  0  0  0  0  0  0  0
    2.5958    3.0582    0.0000 H   0  0  0  0  0  0  0  0  0  0  0  0
    5.2566    4.3395    0.0000 H   0  0  0  0  0  0  0  0  0  0  0  0
    4.5980    4.7885    0.0000 H   0  0  0  0  0  0  0  0  0  0  0  0
    3.7872    5.4163    0.0000 H   0  0  0  0  0  0  0  0  0  0  0  0
    2.9596    5.7059    0.0000 H   0  0  0  0  0  0  0  0  0  0  0  0
    2.6700    4.8783    0.0000 H   0  0  0  0  0  0  0  0  0  0  0  0
    3.2192    1.6899    0.0000 H   0  0  0  0  0  0  0  0  0  0  0  0
    3.9555   -1.5364    0.0000 H   0  0  0  0  0  0  0  0  0  0  0  0
    1.9894    0.5664    0.0000 H   0  0  0  0  0  0  0  0  0  0  0  0
    4.9272   -1.9573    0.0000 H   0  0  0  0  0  0  0  0  0  0  0  0
    6.9727   -1.5364    0.0000 H   0  0  0  0  0  0  0  0  0  0  0  0
    7.7091    1.6899    0.0000 H   0  0  0  0  0  0  0  0  0  0  0  0
    2.3601   -1.0576    0.0000 H   0  0  0  0  0  0  0  0  0  0  0  0
    8.5682   -1.0577    0.0000 H   0  0  0  0  0  0  0  0  0  0  0  0
    7.7331   -3.3373    0.0000 H   0  0  0  0  0  0  0  0  0  0  0  0
    4.9272   -4.9573    0.0000 H   0  0  0  0  0  0  0  0  0  0  0  0
    7.7331   -4.9573    0.0000 H   0  0  0  0  0  0  0  0  0  0  0  0
    6.3301   -5.7673    0.0000 H   0  0  0  0  0  0  0  0  0  0  0  0
    2.8660   -2.5272    0.0000 H   0  0  0  0  0  0  0  0  0  0  0  0
    4.2690   -4.9573    0.0000 H   0  0  0  0  0  0  0  0  0  0  0  0
    1.4631   -3.3372    0.0000 H   0  0  0  0  0  0  0  0  0  0  0  0
    2.8660   -5.7672    0.0000 H   0  0  0  0  0  0  0  0  0  0  0  0
    1.4631   -4.9572    0.0000 H   0  0  0  0  0  0  0  0  0  0  0  0
  1 26  1  0  0  0  0
  2 27  2  0  0  0  0
  3 29  1  0  0  0  0
  3 34  1  0  0  0  0
  4  9  1  0  0  0  0
  4 10  1  0  0  0  0
  4 13  1  0  0  0  0
  5 11  1  0  0  0  0
  5 12  1  0  0  0  0
  5 15  1  0  0  0  0
  6  8  1  0  0  0  0
  6 16  1  0  0  0  0
  6 17  1  0  0  0  0
  7 13  2  0  0  0  0
  7 18  1  0  0  0  0
  8 27  1  0  0  0  0
  8 54  1  0  0  0  0
  9 11  1  0  0  0  0
  9 40  1  0  0  0  0
  9 41  1  0  0  0  0
 10 12  1  0  0  0  0
 10 42  1  0  0  0  0
 10 43  1  0  0  0  0
 11 44  1  0  0  0  0
 11 45  1  0  0  0  0
 12 46  1  0  0  0  0
 12 47  1  0  0  0  0
 13 14  1  0  0  0  0
 14 16  1  0  0  0  0
 14 19  2  0  0  0  0
 15 48  1  0  0  0  0
 15 49  1  0  0  0  0
 15 50  1  0  0  0  0
 16 20  2  0  0  0  0
 17 18  2  0  0  0  0
 17 22  1  0  0  0  0
 18 23  1  0  0  0  0
 19 21  1  0  0  0  0
 19 51  1  0  0  0  0
 20 24  1  0  0  0  0
 20 52  1  0  0  0  0
 21 24  2  0  0  0  0
 21 53  1  0  0  0  0
 22 25  2  0  0  0  0
 22 55  1  0  0  0  0
 23 26  2  0  0  0  0
 23 56  1  0  0  0  0
 24 57  1  0  0  0  0
 25 26  1  0  0  0  0
 25 58  1  0  0  0  0
 27 28  1  0  0  0  0
 28 29  1  0  0  0  0
 28 30  2  0  0  0  0
 29 31  2  0  0  0  0
 30 32  1  0  0  0  0
 30 59  1  0  0  0  0
 31 33  1  0  0  0  0
 31 60  1  0  0  0  0
 32 33  2  0  0  0  0
 32 61  1  0  0  0  0
 33 62  1  0  0  0  0
 34 35  2  0  0  0  0
 34 36  1  0  0  0  0
 35 37  1  0  0  0  0
 35 63  1  0  0  0  0
 36 38  2  0  0  0  0
 36 64  1  0  0  0  0
 37 39  2  0  0  0  0
 37 65  1  0  0  0  0
 38 39  1  0  0  0  0
 38 66  1  0  0  0  0
 39 67  1  0  0  0  0
M  END
> <PUBCHEM_COMPOUND_CID>
44415560

> <PUBCHEM_COMPOUND_CANONICALIZED>
1

> <PUBCHEM_CACTVS_COMPLEXITY>
858

> <PUBCHEM_CACTVS_HBOND_ACCEPTOR>
5

> <PUBCHEM_CACTVS_HBOND_DONOR>
1

> <PUBCHEM_CACTVS_ROTATABLE_BOND>
5

> <PUBCHEM_CACTVS_SUBSKEYS>
AAADceB7sAAEAAAAAAAAAAAAAAAAAAAAAAA8YMGCBAAAAAABVAAAHgIYAAAADA7BmCQzxoNiBACoAidydACCDAElJwAbqAEuftgMZvbF/5uWOWjm4BHI6YeYyCCOAABAAAIKACAAAIAABBQAQAAAAAAAAA==

> <PUBCHEM_IUPAC_OPENEYE_NAME>
N-[3-chloro-6-(4-methylpiperazin-1-yl)benzo[b][1,4]benzodiazepin-11-yl]-2-phenoxy-benzamide

> <PUBCHEM_IUPAC_CAS_NAME>
N-[3-chloro-6-(4-methyl-1-piperazinyl)-11-benzo[b][1,4]benzodiazepinyl]-2-phenoxybenzamide

> <PUBCHEM_IUPAC_NAME_MARKUP>
<I>N</I>-[3-chloro-6-(4-methylpiperazin-1-yl)benzo[b][1,4]benzodiazepin-11-yl]-2-phenoxybenzamide

> <PUBCHEM_IUPAC_NAME>
N-[3-chloro-6-(4-methylpiperazin-1-yl)benzo[b][1,4]benzodiazepin-11-yl]-2-phenoxybenzamide

> <PUBCHEM_IUPAC_SYSTEMATIC_NAME>
N-[3-chloranyl-6-(4-methylpiperazin-1-yl)benzo[b][1,4]benzodiazepin-11-yl]-2-phenoxy-benzamide

> <PUBCHEM_IUPAC_TRADITIONAL_NAME>
N-[3-chloro-6-(4-methylpiperazino)benzo[b][1,4]benzodiazepin-11-yl]-2-phenoxy-benzamide

> <PUBCHEM_IUPAC_INCHI>
InChI=1S/C31H28ClN5O2/c1-35-17-19-36(20-18-35)30-24-11-5-7-13-27(24)37(28-16-15-22(32)21-26(28)33-30)34-31(38)25-12-6-8-14-29(25)39-23-9-3-2-4-10-23/h2-16,21H,17-20H2,1H3,(H,34,38)

> <PUBCHEM_IUPAC_INCHIKEY>
IOOYLGJHCPSDIU-UHFFFAOYSA-N

> <PUBCHEM_XLOGP3_AA>
5.9

> <PUBCHEM_EXACT_MASS>
537.1931528

> <PUBCHEM_MOLECULAR_FORMULA>
C31H28ClN5O2

> <PUBCHEM_MOLECULAR_WEIGHT>
538.0

> <PUBCHEM_OPENEYE_CAN_SMILES>
CN1CCN(CC1)C2=NC3=C(C=CC(=C3)Cl)N(C4=CC=CC=C42)NC(=O)C5=CC=CC=C5OC6=CC=CC=C6

> <PUBCHEM_OPENEYE_ISO_SMILES>
CN1CCN(CC1)C2=NC3=C(C=CC(=C3)Cl)N(C4=CC=CC=C42)NC(=O)C5=CC=CC=C5OC6=CC=CC=C6

> <PUBCHEM_CACTVS_TPSA>
60.4

> <PUBCHEM_MONOISOTOPIC_WEIGHT>
537.1931528

> <PUBCHEM_TOTAL_CHARGE>
0

> <PUBCHEM_HEAVY_ATOM_COUNT>
39

> <PUBCHEM_ATOM_DEF_STEREO_COUNT>
0

> <PUBCHEM_ATOM_UDEF_STEREO_COUNT>
0

> <PUBCHEM_BOND_DEF_STEREO_COUNT>
0

> <PUBCHEM_BOND_UDEF_STEREO_COUNT>
0

> <PUBCHEM_ISOTOPIC_ATOM_COUNT>
0

> <PUBCHEM_COMPONENT_COUNT>
1

> <PUBCHEM_CACTVS_TAUTO_COUNT>
-1

> <PUBCHEM_COORDINATE_TYPE>
1
5
255

> <PUBCHEM_BONDANNOTATIONS>
14  16  8
14  19  8
16  20  8
17  18  8
17  22  8
18  23  8
19  21  8
20  24  8
21  24  8
22  25  8
23  26  8
25  26  8
28  29  8
28  30  8
29  31  8
30  32  8
31  33  8
32  33  8
34  35  8
34  36  8
35  37  8
36  38  8
37  39  8
38  39  8

$$$$
