23625386
  -OEChem-09292322252D

 65 69  0     0  0  0  0  0  0999 V2000
   15.7619    1.8660    0.0000 Cl  0  0  0  0  0  0  0  0  0  0  0  0
   16.7619    3.5981    0.0000 Cl  0  0  0  0  0  0  0  0  0  0  0  0
    9.2619   -2.4641    0.0000 O   0  0  0  0  0  0  0  0  0  0  0  0
   12.7619    0.1340    0.0000 N   0  0  0  0  0  0  0  0  0  0  0  0
   13.7619    1.8660    0.0000 N   0  0  0  0  0  0  0  0  0  0  0  0
    3.7320   -1.9641    0.0000 N   0  0  0  0  0  0  0  0  0  0  0  0
    4.6783   -3.2688    0.0000 N   0  0  0  0  0  0  0  0  0  0  0  0
   12.2619    1.0000    0.0000 C   0  0  0  0  0  0  0  0  0  0  0  0
   13.7619    0.1340    0.0000 C   0  0  0  0  0  0  0  0  0  0  0  0
   12.7619    1.8660    0.0000 C   0  0  0  0  0  0  0  0  0  0  0  0
   14.2619    1.0000    0.0000 C   0  0  0  0  0  0  0  0  0  0  0  0
   12.2619   -0.7321    0.0000 C   0  0  0  0  0  0  0  0  0  0  0  0
   11.2619   -0.7321    0.0000 C   0  0  0  0  0  0  0  0  0  0  0  0
   14.2619    2.7320    0.0000 C   0  0  0  0  0  0  0  0  0  0  0  0
   10.7619   -1.5981    0.0000 C   0  0  0  0  0  0  0  0  0  0  0  0
    9.7619   -1.5981    0.0000 C   0  0  0  0  0  0  0  0  0  0  0  0
   15.2619    2.7320    0.0000 C   0  0  0  0  0  0  0  0  0  0  0  0
   13.7619    3.5981    0.0000 C   0  0  0  0  0  0  0  0  0  0  0  0
   15.7619    3.5981    0.0000 C   0  0  0  0  0  0  0  0  0  0  0  0
   14.2619    4.4641    0.0000 C   0  0  0  0  0  0  0  0  0  0  0  0
   15.2619    4.4641    0.0000 C   0  0  0  0  0  0  0  0  0  0  0  0
    8.2619   -2.4641    0.0000 C   0  0  0  0  0  0  0  0  0  0  0  0
    6.2619   -2.4641    0.0000 C   0  0  0  0  0  0  0  0  0  0  0  0
    5.2619   -2.4641    0.0000 C   0  0  0  0  0  0  0  0  0  0  0  0
    7.7619   -3.3301    0.0000 C   0  0  0  0  0  0  0  0  0  0  0  0
    7.7619   -1.5981    0.0000 C   0  0  0  0  0  0  0  0  0  0  0  0
    3.7320   -2.9641    0.0000 C   0  0  0  0  0  0  0  0  0  0  0  0
    6.7619   -3.3301    0.0000 C   0  0  0  0  0  0  0  0  0  0  0  0
    6.7619   -1.5981    0.0000 C   0  0  0  0  0  0  0  0  0  0  0  0
    4.6783   -1.6594    0.0000 C   0  0  0  0  0  0  0  0  0  0  0  0
    2.8660   -3.4641    0.0000 C   0  0  0  0  0  0  0  0  0  0  0  0
    2.8660   -1.4641    0.0000 C   0  0  0  0  0  0  0  0  0  0  0  0
    2.0000   -2.9641    0.0000 C   0  0  0  0  0  0  0  0  0  0  0  0
    2.0000   -1.9641    0.0000 C   0  0  0  0  0  0  0  0  0  0  0  0
    2.8660   -4.4641    0.0000 C   0  0  0  0  0  0  0  0  0  0  0  0
   11.7869    1.3985    0.0000 H   0  0  0  0  0  0  0  0  0  0  0  0
   11.7869    0.6015    0.0000 H   0  0  0  0  0  0  0  0  0  0  0  0
   13.6542   -0.4766    0.0000 H   0  0  0  0  0  0  0  0  0  0  0  0
   14.3445   -0.0781    0.0000 H   0  0  0  0  0  0  0  0  0  0  0  0
   12.8695    2.4766    0.0000 H   0  0  0  0  0  0  0  0  0  0  0  0
   12.1793    2.0781    0.0000 H   0  0  0  0  0  0  0  0  0  0  0  0
   14.7368    0.6015    0.0000 H   0  0  0  0  0  0  0  0  0  0  0  0
   14.7368    1.3985    0.0000 H   0  0  0  0  0  0  0  0  0  0  0  0
   12.1542   -1.3426    0.0000 H   0  0  0  0  0  0  0  0  0  0  0  0
   12.8445   -0.9441    0.0000 H   0  0  0  0  0  0  0  0  0  0  0  0
   11.3695   -0.1215    0.0000 H   0  0  0  0  0  0  0  0  0  0  0  0
   10.6793   -0.5200    0.0000 H   0  0  0  0  0  0  0  0  0  0  0  0
   10.6542   -2.2087    0.0000 H   0  0  0  0  0  0  0  0  0  0  0  0
   11.3445   -1.8101    0.0000 H   0  0  0  0  0  0  0  0  0  0  0  0
    9.8695   -0.9875    0.0000 H   0  0  0  0  0  0  0  0  0  0  0  0
    9.1793   -1.3860    0.0000 H   0  0  0  0  0  0  0  0  0  0  0  0
   13.1419    3.5981    0.0000 H   0  0  0  0  0  0  0  0  0  0  0  0
   13.9519    5.0010    0.0000 H   0  0  0  0  0  0  0  0  0  0  0  0
   15.5719    5.0010    0.0000 H   0  0  0  0  0  0  0  0  0  0  0  0
    8.0719   -3.8671    0.0000 H   0  0  0  0  0  0  0  0  0  0  0  0
    8.0719   -1.0611    0.0000 H   0  0  0  0  0  0  0  0  0  0  0  0
    6.4519   -3.8671    0.0000 H   0  0  0  0  0  0  0  0  0  0  0  0
    6.4519   -1.0611    0.0000 H   0  0  0  0  0  0  0  0  0  0  0  0
    4.8709   -1.0700    0.0000 H   0  0  0  0  0  0  0  0  0  0  0  0
    2.8660   -0.8441    0.0000 H   0  0  0  0  0  0  0  0  0  0  0  0
    1.4631   -3.2741    0.0000 H   0  0  0  0  0  0  0  0  0  0  0  0
    1.4631   -1.6541    0.0000 H   0  0  0  0  0  0  0  0  0  0  0  0
    2.2460   -4.4641    0.0000 H   0  0  0  0  0  0  0  0  0  0  0  0
    2.8660   -5.0841    0.0000 H   0  0  0  0  0  0  0  0  0  0  0  0
    3.4860   -4.4641    0.0000 H   0  0  0  0  0  0  0  0  0  0  0  0
  1 17  1  0  0  0  0
  2 19  1  0  0  0  0
  3 16  1  0  0  0  0
  3 22  1  0  0  0  0
  4  8  1  0  0  0  0
  4  9  1  0  0  0  0
  4 12  1  0  0  0  0
  5 10  1  0  0  0  0
  5 11  1  0  0  0  0
  5 14  1  0  0  0  0
  6 27  1  0  0  0  0
  6 30  1  0  0  0  0
  6 32  1  0  0  0  0
  7 24  1  0  0  0  0
  7 27  2  0  0  0  0
  8 10  1  0  0  0  0
  8 36  1  0  0  0  0
  8 37  1  0  0  0  0
  9 11  1  0  0  0  0
  9 38  1  0  0  0  0
  9 39  1  0  0  0  0
 10 40  1  0  0  0  0
 10 41  1  0  0  0  0
 11 42  1  0  0  0  0
 11 43  1  0  0  0  0
 12 13  1  0  0  0  0
 12 44  1  0  0  0  0
 12 45  1  0  0  0  0
 13 15  1  0  0  0  0
 13 46  1  0  0  0  0
 13 47  1  0  0  0  0
 14 17  2  0  0  0  0
 14 18  1  0  0  0  0
 15 16  1  0  0  0  0
 15 48  1  0  0  0  0
 15 49  1  0  0  0  0
 16 50  1  0  0  0  0
 16 51  1  0  0  0  0
 17 19  1  0  0  0  0
 18 20  2  0  0  0  0
 18 52  1  0  0  0  0
 19 21  2  0  0  0  0
 20 21  1  0  0  0  0
 20 53  1  0  0  0  0
 21 54  1  0  0  0  0
 22 25  2  0  0  0  0
 22 26  1  0  0  0  0
 23 24  1  0  0  0  0
 23 28  2  0  0  0  0
 23 29  1  0  0  0  0
 24 30  2  0  0  0  0
 25 28  1  0  0  0  0
 25 55  1  0  0  0  0
 26 29  2  0  0  0  0
 26 56  1  0  0  0  0
 27 31  1  0  0  0  0
 28 57  1  0  0  0  0
 29 58  1  0  0  0  0
 30 59  1  0  0  0  0
 31 33  2  0  0  0  0
 31 35  1  0  0  0  0
 32 34  2  0  0  0  0
 32 60  1  0  0  0  0
 33 34  1  0  0  0  0
 33 61  1  0  0  0  0
 34 62  1  0  0  0  0
 35 63  1  0  0  0  0
 35 64  1  0  0  0  0
 35 65  1  0  0  0  0
M  END
> <PUBCHEM_COMPOUND_CID>
23625386

> <PUBCHEM_COMPOUND_CANONICALIZED>
1

> <PUBCHEM_CACTVS_COMPLEXITY>
640

> <PUBCHEM_CACTVS_HBOND_ACCEPTOR>
4

> <PUBCHEM_CACTVS_HBOND_DONOR>
0

> <PUBCHEM_CACTVS_ROTATABLE_BOND>
8

> <PUBCHEM_CACTVS_SUBSKEYS>
AAADceB7oAAGAAAAAAAAAAAAAAAAAWAAAAA8eIEAAAAAAFgB9AAAHgIAAAAADA7hnyY/9p8MHACgAzZnZACCiC0xN6AJ2mA+fpiMbuLFu5vWOCjswBPI6Cew0IMOIAAAAAIAABRAAAAABAAAKAAAAAAAAA==

> <PUBCHEM_IUPAC_OPENEYE_NAME>
2-[4-[4-[4-(2,3-dichlorophenyl)piperazin-1-yl]butoxy]phenyl]-8-methyl-imidazo[1,2-a]pyridine

> <PUBCHEM_IUPAC_CAS_NAME>
2-[4-[4-[4-(2,3-dichlorophenyl)-1-piperazinyl]butoxy]phenyl]-8-methylimidazo[1,2-a]pyridine

> <PUBCHEM_IUPAC_NAME_MARKUP>
2-[4-[4-[4-(2,3-dichlorophenyl)piperazin-1-yl]butoxy]phenyl]-8-methylimidazo[1,2-a]pyridine

> <PUBCHEM_IUPAC_NAME>
2-[4-[4-[4-(2,3-dichlorophenyl)piperazin-1-yl]butoxy]phenyl]-8-methylimidazo[1,2-a]pyridine

> <PUBCHEM_IUPAC_SYSTEMATIC_NAME>
2-[4-[4-[4-[2,3-bis(chloranyl)phenyl]piperazin-1-yl]butoxy]phenyl]-8-methyl-imidazo[1,2-a]pyridine

> <PUBCHEM_IUPAC_TRADITIONAL_NAME>
2-[4-[4-[4-(2,3-dichlorophenyl)piperazino]butoxy]phenyl]-8-methyl-imidazo[1,2-a]pyridine

> <PUBCHEM_IUPAC_INCHI>
InChI=1S/C28H30Cl2N4O/c1-21-6-5-14-34-20-25(31-28(21)34)22-9-11-23(12-10-22)35-19-3-2-13-32-15-17-33(18-16-32)26-8-4-7-24(29)27(26)30/h4-12,14,20H,2-3,13,15-19H2,1H3

> <PUBCHEM_IUPAC_INCHIKEY>
FBEPBNQZIQSTRT-UHFFFAOYSA-N

> <PUBCHEM_XLOGP3_AA>
7.4

> <PUBCHEM_EXACT_MASS>
508.1796670

> <PUBCHEM_MOLECULAR_FORMULA>
C28H30Cl2N4O

> <PUBCHEM_MOLECULAR_WEIGHT>
509.5

> <PUBCHEM_OPENEYE_CAN_SMILES>
CC1=CC=CN2C1=NC(=C2)C3=CC=C(C=C3)OCCCCN4CCN(CC4)C5=C(C(=CC=C5)Cl)Cl

> <PUBCHEM_OPENEYE_ISO_SMILES>
CC1=CC=CN2C1=NC(=C2)C3=CC=C(C=C3)OCCCCN4CCN(CC4)C5=C(C(=CC=C5)Cl)Cl

> <PUBCHEM_CACTVS_TPSA>
33

> <PUBCHEM_MONOISOTOPIC_WEIGHT>
508.1796670

> <PUBCHEM_TOTAL_CHARGE>
0

> <PUBCHEM_HEAVY_ATOM_COUNT>
35

> <PUBCHEM_ATOM_DEF_STEREO_COUNT>
0

> <PUBCHEM_ATOM_UDEF_STEREO_COUNT>
0

> <PUBCHEM_BOND_DEF_STEREO_COUNT>
0

> <PUBCHEM_BOND_UDEF_STEREO_COUNT>
0

> <PUBCHEM_ISOTOPIC_ATOM_COUNT>
0

> <PUBCHEM_COMPONENT_COUNT>
1

> <PUBCHEM_CACTVS_TAUTO_COUNT>
-1

> <PUBCHEM_COORDINATE_TYPE>
1
5
255

> <PUBCHEM_BONDANNOTATIONS>
14  17  8
14  18  8
17  19  8
18  20  8
19  21  8
20  21  8
22  25  8
22  26  8
23  28  8
23  29  8
24  30  8
25  28  8
26  29  8
27  31  8
31  33  8
32  34  8
33  34  8
6  27  8
6  30  8
6  32  8
7  24  8
7  27  8

$$$$
