10407367
  -OEChem-09292322042D

 48 51  0     0  0  0  0  0  0999 V2000
    4.4511    0.9581    0.0000 S   0  0  0  0  0  0  0  0  0  0  0  0
    3.4511    0.9581    0.0000 O   0  0  0  0  0  0  0  0  0  0  0  0
    5.4511    0.9581    0.0000 O   0  0  0  0  0  0  0  0  0  0  0  0
    4.9511   -1.5718    0.0000 N   0  0  0  0  0  0  0  0  0  0  0  0
    7.1264   -3.0778    0.0000 N   0  0  0  0  0  0  0  0  0  0  0  0
    3.2892   -2.3204    0.0000 N   0  0  0  0  0  0  0  0  0  0  0  0
    4.4511   -0.0419    0.0000 C   0  0  0  0  0  0  0  0  0  0  0  0
    3.6464   -0.6256    0.0000 C   0  0  0  0  0  0  0  0  0  0  0  0
    5.5417   -2.3788    0.0000 C   0  0  0  0  0  0  0  0  0  0  0  0
    3.9570   -1.5761    0.0000 C   0  0  0  0  0  0  0  0  0  0  0  0
    5.2558   -0.6256    0.0000 C   0  0  0  0  0  0  0  0  0  0  0  0
    4.4511    1.9580    0.0000 C   0  0  0  0  0  0  0  0  0  0  0  0
    6.5358   -2.2708    0.0000 C   0  0  0  0  0  0  0  0  0  0  0  0
    5.3171    2.4580    0.0000 C   0  0  0  0  0  0  0  0  0  0  0  0
    2.6678   -0.4193    0.0000 C   0  0  0  0  0  0  0  0  0  0  0  0
    5.3171    3.4580    0.0000 C   0  0  0  0  0  0  0  0  0  0  0  0
    3.5851    2.4580    0.0000 C   0  0  0  0  0  0  0  0  0  0  0  0
    2.0000   -1.1636    0.0000 C   0  0  0  0  0  0  0  0  0  0  0  0
    6.2110    1.9234    0.0000 C   0  0  0  0  0  0  0  0  0  0  0  0
    2.3107   -2.1142    0.0000 C   0  0  0  0  0  0  0  0  0  0  0  0
    4.4511    3.9580    0.0000 C   0  0  0  0  0  0  0  0  0  0  0  0
    3.5851    3.4580    0.0000 C   0  0  0  0  0  0  0  0  0  0  0  0
    8.1206   -2.9698    0.0000 C   0  0  0  0  0  0  0  0  0  0  0  0
    6.7228   -3.9927    0.0000 C   0  0  0  0  0  0  0  0  0  0  0  0
    6.2110    3.9927    0.0000 C   0  0  0  0  0  0  0  0  0  0  0  0
    7.1171    2.4372    0.0000 C   0  0  0  0  0  0  0  0  0  0  0  0
    7.1171    3.4789    0.0000 C   0  0  0  0  0  0  0  0  0  0  0  0
    4.9854   -2.6525    0.0000 H   0  0  0  0  0  0  0  0  0  0  0  0
    5.7146   -2.9741    0.0000 H   0  0  0  0  0  0  0  0  0  0  0  0
    5.8451   -0.4329    0.0000 H   0  0  0  0  0  0  0  0  0  0  0  0
    7.0921   -1.9971    0.0000 H   0  0  0  0  0  0  0  0  0  0  0  0
    6.3629   -1.6754    0.0000 H   0  0  0  0  0  0  0  0  0  0  0  0
    2.4752    0.1700    0.0000 H   0  0  0  0  0  0  0  0  0  0  0  0
    3.0481    2.1480    0.0000 H   0  0  0  0  0  0  0  0  0  0  0  0
    1.3933   -1.0358    0.0000 H   0  0  0  0  0  0  0  0  0  0  0  0
    6.2039    1.3034    0.0000 H   0  0  0  0  0  0  0  0  0  0  0  0
    1.8966   -2.5756    0.0000 H   0  0  0  0  0  0  0  0  0  0  0  0
    4.4511    4.5780    0.0000 H   0  0  0  0  0  0  0  0  0  0  0  0
    3.0481    3.7680    0.0000 H   0  0  0  0  0  0  0  0  0  0  0  0
    8.1875   -3.5862    0.0000 H   0  0  0  0  0  0  0  0  0  0  0  0
    8.7369   -2.9028    0.0000 H   0  0  0  0  0  0  0  0  0  0  0  0
    8.0536   -2.3534    0.0000 H   0  0  0  0  0  0  0  0  0  0  0  0
    6.1556   -3.7425    0.0000 H   0  0  0  0  0  0  0  0  0  0  0  0
    6.4726   -4.5600    0.0000 H   0  0  0  0  0  0  0  0  0  0  0  0
    7.2901   -4.2429    0.0000 H   0  0  0  0  0  0  0  0  0  0  0  0
    6.2039    4.6127    0.0000 H   0  0  0  0  0  0  0  0  0  0  0  0
    7.6528    2.1252    0.0000 H   0  0  0  0  0  0  0  0  0  0  0  0
    7.6528    3.7909    0.0000 H   0  0  0  0  0  0  0  0  0  0  0  0
  1  2  2  0  0  0  0
  1  3  2  0  0  0  0
  1  7  1  0  0  0  0
  1 12  1  0  0  0  0
  4  9  1  0  0  0  0
  4 10  1  0  0  0  0
  4 11  1  0  0  0  0
  5 13  1  0  0  0  0
  5 23  1  0  0  0  0
  5 24  1  0  0  0  0
  6 10  1  0  0  0  0
  6 20  2  0  0  0  0
  7  8  1  0  0  0  0
  7 11  2  0  0  0  0
  8 10  2  0  0  0  0
  8 15  1  0  0  0  0
  9 13  1  0  0  0  0
  9 28  1  0  0  0  0
  9 29  1  0  0  0  0
 11 30  1  0  0  0  0
 12 14  1  0  0  0  0
 12 17  2  0  0  0  0
 13 31  1  0  0  0  0
 13 32  1  0  0  0  0
 14 16  1  0  0  0  0
 14 19  2  0  0  0  0
 15 18  2  0  0  0  0
 15 33  1  0  0  0  0
 16 21  1  0  0  0  0
 16 25  2  0  0  0  0
 17 22  1  0  0  0  0
 17 34  1  0  0  0  0
 18 20  1  0  0  0  0
 18 35  1  0  0  0  0
 19 26  1  0  0  0  0
 19 36  1  0  0  0  0
 20 37  1  0  0  0  0
 21 22  2  0  0  0  0
 21 38  1  0  0  0  0
 22 39  1  0  0  0  0
 23 40  1  0  0  0  0
 23 41  1  0  0  0  0
 23 42  1  0  0  0  0
 24 43  1  0  0  0  0
 24 44  1  0  0  0  0
 24 45  1  0  0  0  0
 25 27  1  0  0  0  0
 25 46  1  0  0  0  0
 26 27  2  0  0  0  0
 26 47  1  0  0  0  0
 27 48  1  0  0  0  0
M  END
> <PUBCHEM_COMPOUND_CID>
10407367

> <PUBCHEM_COMPOUND_CANONICALIZED>
1

> <PUBCHEM_CACTVS_COMPLEXITY>
603

> <PUBCHEM_CACTVS_HBOND_ACCEPTOR>
4

> <PUBCHEM_CACTVS_HBOND_DONOR>
0

> <PUBCHEM_CACTVS_ROTATABLE_BOND>
5

> <PUBCHEM_CACTVS_SUBSKEYS>
AAADceB7MABAAAAAAAAAAAAAAAAAAWAAAAA8YIAAAAAAAFjB/AAAHAQAAAAADADBWwQ/sd8MEAqgAjJnZHDCgCkxCrAJ2Dw4ZJiIaOLgmZGUIAxogALoyCcQgIAOgAAAgAAUAAAAAAEAACgAAAAAAAAAAA==

> <PUBCHEM_IUPAC_OPENEYE_NAME>
N,N-dimethyl-2-[3-(1-naphthylsulfonyl)pyrrolo[2,3-b]pyridin-1-yl]ethanamine

> <PUBCHEM_IUPAC_CAS_NAME>
N,N-dimethyl-2-[3-(1-naphthalenylsulfonyl)-1-pyrrolo[2,3-b]pyridinyl]ethanamine

> <PUBCHEM_IUPAC_NAME_MARKUP>
<I>N</I>,<I>N</I>-dimethyl-2-(3-naphthalen-1-ylsulfonylpyrrolo[2,3-b]pyridin-1-yl)ethanamine

> <PUBCHEM_IUPAC_NAME>
N,N-dimethyl-2-(3-naphthalen-1-ylsulfonylpyrrolo[2,3-b]pyridin-1-yl)ethanamine

> <PUBCHEM_IUPAC_SYSTEMATIC_NAME>
N,N-dimethyl-2-(3-naphthalen-1-ylsulfonylpyrrolo[2,3-b]pyridin-1-yl)ethanamine

> <PUBCHEM_IUPAC_TRADITIONAL_NAME>
dimethyl-[2-[3-(1-naphthylsulfonyl)pyrrolo[2,3-b]pyridin-1-yl]ethyl]amine

> <PUBCHEM_IUPAC_INCHI>
InChI=1S/C21H21N3O2S/c1-23(2)13-14-24-15-20(18-10-6-12-22-21(18)24)27(25,26)19-11-5-8-16-7-3-4-9-17(16)19/h3-12,15H,13-14H2,1-2H3

> <PUBCHEM_IUPAC_INCHIKEY>
NSQFNGCVKOBFOP-UHFFFAOYSA-N

> <PUBCHEM_XLOGP3_AA>
3.3

> <PUBCHEM_EXACT_MASS>
379.13544809

> <PUBCHEM_MOLECULAR_FORMULA>
C21H21N3O2S

> <PUBCHEM_MOLECULAR_WEIGHT>
379.5

> <PUBCHEM_OPENEYE_CAN_SMILES>
CN(C)CCN1C=C(C2=C1N=CC=C2)S(=O)(=O)C3=CC=CC4=CC=CC=C43

> <PUBCHEM_OPENEYE_ISO_SMILES>
CN(C)CCN1C=C(C2=C1N=CC=C2)S(=O)(=O)C3=CC=CC4=CC=CC=C43

> <PUBCHEM_CACTVS_TPSA>
63.6

> <PUBCHEM_MONOISOTOPIC_WEIGHT>
379.13544809

> <PUBCHEM_TOTAL_CHARGE>
0

> <PUBCHEM_HEAVY_ATOM_COUNT>
27

> <PUBCHEM_ATOM_DEF_STEREO_COUNT>
0

> <PUBCHEM_ATOM_UDEF_STEREO_COUNT>
0

> <PUBCHEM_BOND_DEF_STEREO_COUNT>
0

> <PUBCHEM_BOND_UDEF_STEREO_COUNT>
0

> <PUBCHEM_ISOTOPIC_ATOM_COUNT>
0

> <PUBCHEM_COMPONENT_COUNT>
1

> <PUBCHEM_CACTVS_TAUTO_COUNT>
-1

> <PUBCHEM_COORDINATE_TYPE>
1
5
255

> <PUBCHEM_BONDANNOTATIONS>
12  14  8
12  17  8
14  16  8
14  19  8
15  18  8
16  21  8
16  25  8
17  22  8
18  20  8
19  26  8
21  22  8
25  27  8
26  27  8
4  10  8
4  11  8
6  10  8
6  20  8
7  11  8
7  8  8
8  10  8
8  15  8

$$$$
