51355142
  -OEChem-09292322312D

 69 70  0     0  0  0  0  0  0999 V2000
   11.7341    0.6200    0.0000 Br  0  0  0  0  0  0  0  0  0  0  0  0
    5.6720    2.1200    0.0000 F   0  0  0  0  0  0  0  0  0  0  0  0
   14.3322   11.1200    0.0000 O   0  0  0  0  0  0  0  0  0  0  0  0
    9.1360    4.1200    0.0000 O   0  0  0  0  0  0  0  0  0  0  0  0
    8.2700    2.6200    0.0000 O   0  0  0  0  0  0  0  0  0  0  0  0
    0.5369    7.1200    0.0000 O   0  0  0  0  0  0  0  0  0  0  0  0
    3.1350    6.6200    0.0000 O   0  0  0  0  0  0  0  0  0  0  0  0
    1.4030    5.6200    0.0000 O   0  0  0  0  0  0  0  0  0  0  0  0
    2.2690    8.1200    0.0000 O   0  0  0  0  0  0  0  0  0  0  0  0
   12.6002    8.1200    0.0000 N   0  0  0  0  0  0  0  0  0  0  0  0
   12.6002   10.1200    0.0000 N   0  0  0  0  0  0  0  0  0  0  0  0
   10.8681    4.1200    0.0000 N   0  0  0  0  0  0  0  0  0  0  0  0
   13.4662    8.6200    0.0000 C   0  0  0  0  0  0  0  0  0  0  0  0
   11.7341    8.6200    0.0000 C   0  0  0  0  0  0  0  0  0  0  0  0
   13.4662    9.6200    0.0000 C   0  0  0  0  0  0  0  0  0  0  0  0
   11.7341    9.6200    0.0000 C   0  0  0  0  0  0  0  0  0  0  0  0
   12.6002    7.1200    0.0000 C   0  0  0  0  0  0  0  0  0  0  0  0
   12.6002   11.1200    0.0000 C   0  0  0  0  0  0  0  0  0  0  0  0
   11.7341    6.6200    0.0000 C   0  0  0  0  0  0  0  0  0  0  0  0
   13.4662   11.6200    0.0000 C   0  0  0  0  0  0  0  0  0  0  0  0
   11.7341   11.6200    0.0000 C   0  0  0  0  0  0  0  0  0  0  0  0
   13.4662   12.6200    0.0000 C   0  0  0  0  0  0  0  0  0  0  0  0
   11.7341   12.6200    0.0000 C   0  0  0  0  0  0  0  0  0  0  0  0
   11.7341    5.6200    0.0000 C   0  0  0  0  0  0  0  0  0  0  0  0
   12.6002   13.1200    0.0000 C   0  0  0  0  0  0  0  0  0  0  0  0
   10.8681    5.1200    0.0000 C   0  0  0  0  0  0  0  0  0  0  0  0
   15.1982   11.6200    0.0000 C   0  0  0  0  0  0  0  0  0  0  0  0
   10.0021    3.6200    0.0000 C   0  0  0  0  0  0  0  0  0  0  0  0
   10.0021    2.6200    0.0000 C   0  0  0  0  0  0  0  0  0  0  0  0
    9.1360    2.1200    0.0000 C   0  0  0  0  0  0  0  0  0  0  0  0
   10.8681    2.1200    0.0000 C   0  0  0  0  0  0  0  0  0  0  0  0
    9.1360    1.1200    0.0000 C   0  0  0  0  0  0  0  0  0  0  0  0
   10.8681    1.1200    0.0000 C   0  0  0  0  0  0  0  0  0  0  0  0
   10.0021    0.6200    0.0000 C   0  0  0  0  0  0  0  0  0  0  0  0
    7.4040    2.1200    0.0000 C   0  0  0  0  0  0  0  0  0  0  0  0
    6.5380    2.6200    0.0000 C   0  0  0  0  0  0  0  0  0  0  0  0
    1.4030    6.6200    0.0000 C   0  0  0  0  0  0  0  0  0  0  0  0
    2.2690    7.1200    0.0000 C   0  0  0  0  0  0  0  0  0  0  0  0
   13.6782    8.0374    0.0000 H   0  0  0  0  0  0  0  0  0  0  0  0
   14.0768    8.7277    0.0000 H   0  0  0  0  0  0  0  0  0  0  0  0
   11.1235    8.7277    0.0000 H   0  0  0  0  0  0  0  0  0  0  0  0
   11.5221    8.0374    0.0000 H   0  0  0  0  0  0  0  0  0  0  0  0
   14.0768    9.5123    0.0000 H   0  0  0  0  0  0  0  0  0  0  0  0
   13.6782   10.2026    0.0000 H   0  0  0  0  0  0  0  0  0  0  0  0
   11.5221   10.2026    0.0000 H   0  0  0  0  0  0  0  0  0  0  0  0
   11.1235    9.5123    0.0000 H   0  0  0  0  0  0  0  0  0  0  0  0
   12.8122    6.5374    0.0000 H   0  0  0  0  0  0  0  0  0  0  0  0
   13.2107    7.2277    0.0000 H   0  0  0  0  0  0  0  0  0  0  0  0
   11.1972    6.9300    0.0000 H   0  0  0  0  0  0  0  0  0  0  0  0
   11.1972   11.3100    0.0000 H   0  0  0  0  0  0  0  0  0  0  0  0
   14.0031   12.9300    0.0000 H   0  0  0  0  0  0  0  0  0  0  0  0
   11.1972   12.9300    0.0000 H   0  0  0  0  0  0  0  0  0  0  0  0
   12.2711    5.3100    0.0000 H   0  0  0  0  0  0  0  0  0  0  0  0
   12.6002   13.7400    0.0000 H   0  0  0  0  0  0  0  0  0  0  0  0
   10.6560    5.7026    0.0000 H   0  0  0  0  0  0  0  0  0  0  0  0
   10.2575    5.0123    0.0000 H   0  0  0  0  0  0  0  0  0  0  0  0
   15.5082   11.0831    0.0000 H   0  0  0  0  0  0  0  0  0  0  0  0
   15.7352   11.9300    0.0000 H   0  0  0  0  0  0  0  0  0  0  0  0
   14.8882   12.1569    0.0000 H   0  0  0  0  0  0  0  0  0  0  0  0
   11.4050    3.8100    0.0000 H   0  0  0  0  0  0  0  0  0  0  0  0
   11.4050    2.4300    0.0000 H   0  0  0  0  0  0  0  0  0  0  0  0
    8.5991    0.8100    0.0000 H   0  0  0  0  0  0  0  0  0  0  0  0
   10.0021    0.0000    0.0000 H   0  0  0  0  0  0  0  0  0  0  0  0
    7.0055    1.6450    0.0000 H   0  0  0  0  0  0  0  0  0  0  0  0
    7.8025    1.6450    0.0000 H   0  0  0  0  0  0  0  0  0  0  0  0
    6.9365    3.0950    0.0000 H   0  0  0  0  0  0  0  0  0  0  0  0
    6.1394    3.0950    0.0000 H   0  0  0  0  0  0  0  0  0  0  0  0
    0.0000    6.8100    0.0000 H   0  0  0  0  0  0  0  0  0  0  0  0
    3.6720    6.9300    0.0000 H   0  0  0  0  0  0  0  0  0  0  0  0
  1 33  1  0  0  0  0
  2 36  1  0  0  0  0
  3 20  1  0  0  0  0
  3 27  1  0  0  0  0
  4 28  2  0  0  0  0
  5 30  1  0  0  0  0
  5 35  1  0  0  0  0
  6 37  1  0  0  0  0
  6 68  1  0  0  0  0
  7 38  1  0  0  0  0
  7 69  1  0  0  0  0
  8 37  2  0  0  0  0
  9 38  2  0  0  0  0
 10 13  1  0  0  0  0
 10 14  1  0  0  0  0
 10 17  1  0  0  0  0
 11 15  1  0  0  0  0
 11 16  1  0  0  0  0
 11 18  1  0  0  0  0
 12 26  1  0  0  0  0
 12 28  1  0  0  0  0
 12 60  1  0  0  0  0
 13 15  1  0  0  0  0
 13 39  1  0  0  0  0
 13 40  1  0  0  0  0
 14 16  1  0  0  0  0
 14 41  1  0  0  0  0
 14 42  1  0  0  0  0
 15 43  1  0  0  0  0
 15 44  1  0  0  0  0
 16 45  1  0  0  0  0
 16 46  1  0  0  0  0
 17 19  1  0  0  0  0
 17 47  1  0  0  0  0
 17 48  1  0  0  0  0
 18 20  1  0  0  0  0
 18 21  2  0  0  0  0
 19 24  2  0  0  0  0
 19 49  1  0  0  0  0
 20 22  2  0  0  0  0
 21 23  1  0  0  0  0
 21 50  1  0  0  0  0
 22 25  1  0  0  0  0
 22 51  1  0  0  0  0
 23 25  2  0  0  0  0
 23 52  1  0  0  0  0
 24 26  1  0  0  0  0
 24 53  1  0  0  0  0
 25 54  1  0  0  0  0
 26 55  1  0  0  0  0
 26 56  1  0  0  0  0
 27 57  1  0  0  0  0
 27 58  1  0  0  0  0
 27 59  1  0  0  0  0
 28 29  1  0  0  0  0
 29 30  2  0  0  0  0
 29 31  1  0  0  0  0
 30 32  1  0  0  0  0
 31 33  2  0  0  0  0
 31 61  1  0  0  0  0
 32 34  2  0  0  0  0
 32 62  1  0  0  0  0
 33 34  1  0  0  0  0
 34 63  1  0  0  0  0
 35 36  1  0  0  0  0
 35 64  1  0  0  0  0
 35 65  1  0  0  0  0
 36 66  1  0  0  0  0
 36 67  1  0  0  0  0
 37 38  1  0  0  0  0
M  END
> <PUBCHEM_COMPOUND_CID>
51355142

> <PUBCHEM_COMPOUND_CANONICALIZED>
1

> <PUBCHEM_CACTVS_COMPLEXITY>
660

> <PUBCHEM_CACTVS_HBOND_ACCEPTOR>
10

> <PUBCHEM_CACTVS_HBOND_DONOR>
3

> <PUBCHEM_CACTVS_ROTATABLE_BOND>
11

> <PUBCHEM_CACTVS_SUBSKEYS>
AAADceB7OQAAEAAAAAAAAAAAAAAAAAAAAAA8YIAAAAAAAAABQAAAHwBQCAABrAzhmAYyzoPABgCIAiXSWAKCCAAlIgQIiIFPbOgPZjbEtZuXOWjm9hHZ65eYyCCOABAAEAAIEAAAIAAgABAgAAAAAAAAAA==

> <PUBCHEM_IUPAC_OPENEYE_NAME>
5-bromo-2-(2-fluoroethoxy)-N-[(E)-4-[4-(2-methoxyphenyl)piperazin-1-yl]but-2-enyl]benzamide;oxalic acid

> <PUBCHEM_IUPAC_CAS_NAME>
5-bromo-2-(2-fluoroethoxy)-N-[(E)-4-[4-(2-methoxyphenyl)-1-piperazinyl]but-2-enyl]benzamide;oxalic acid

> <PUBCHEM_IUPAC_NAME_MARKUP>
5-bromo-2-(2-fluoroethoxy)-<I>N</I>-[(<I>E</I>)-4-[4-(2-methoxyphenyl)piperazin-1-yl]but-2-enyl]benzamide;oxalic acid

> <PUBCHEM_IUPAC_NAME>
5-bromo-2-(2-fluoroethoxy)-N-[(E)-4-[4-(2-methoxyphenyl)piperazin-1-yl]but-2-enyl]benzamide;oxalic acid

> <PUBCHEM_IUPAC_SYSTEMATIC_NAME>
5-bromanyl-2-(2-fluoranylethoxy)-N-[(E)-4-[4-(2-methoxyphenyl)piperazin-1-yl]but-2-enyl]benzamide;ethanedioic acid

> <PUBCHEM_IUPAC_TRADITIONAL_NAME>
5-bromo-2-(2-fluoroethoxy)-N-[(E)-4-[4-(2-methoxyphenyl)piperazino]but-2-enyl]benzamide;oxalic acid

> <PUBCHEM_IUPAC_INCHI>
InChI=1S/C24H29BrFN3O3.C2H2O4/c1-31-23-7-3-2-6-21(23)29-15-13-28(14-16-29)12-5-4-11-27-24(30)20-18-19(25)8-9-22(20)32-17-10-26;3-1(4)2(5)6/h2-9,18H,10-17H2,1H3,(H,27,30);(H,3,4)(H,5,6)/b5-4+;

> <PUBCHEM_IUPAC_INCHIKEY>
ISADQJUEOVPKML-FXRZFVDSSA-N

> <PUBCHEM_EXACT_MASS>
595.13294

> <PUBCHEM_MOLECULAR_FORMULA>
C26H31BrFN3O7

> <PUBCHEM_MOLECULAR_WEIGHT>
596.4

> <PUBCHEM_OPENEYE_CAN_SMILES>
COC1=CC=CC=C1N2CCN(CC2)CC=CCNC(=O)C3=C(C=CC(=C3)Br)OCCF.C(=O)(C(=O)O)O

> <PUBCHEM_OPENEYE_ISO_SMILES>
COC1=CC=CC=C1N2CCN(CC2)C/C=C/CNC(=O)C3=C(C=CC(=C3)Br)OCCF.C(=O)(C(=O)O)O

> <PUBCHEM_CACTVS_TPSA>
129

> <PUBCHEM_MONOISOTOPIC_WEIGHT>
595.13294

> <PUBCHEM_TOTAL_CHARGE>
0

> <PUBCHEM_HEAVY_ATOM_COUNT>
38

> <PUBCHEM_ATOM_DEF_STEREO_COUNT>
0

> <PUBCHEM_ATOM_UDEF_STEREO_COUNT>
0

> <PUBCHEM_BOND_DEF_STEREO_COUNT>
1

> <PUBCHEM_BOND_UDEF_STEREO_COUNT>
0

> <PUBCHEM_ISOTOPIC_ATOM_COUNT>
0

> <PUBCHEM_COMPONENT_COUNT>
2

> <PUBCHEM_CACTVS_TAUTO_COUNT>
-1

> <PUBCHEM_COORDINATE_TYPE>
1
5
255

> <PUBCHEM_BONDANNOTATIONS>
18  20  8
18  21  8
20  22  8
21  23  8
22  25  8
23  25  8
29  30  8
29  31  8
30  32  8
31  33  8
32  34  8
33  34  8

$$$$
