25895957
  -OEChem-09292322512D

 52 55  0     0  0  0  0  0  0999 V2000
   12.8562   -4.0252    0.0000 Cl  0  0  0  0  0  0  0  0  0  0  0  0
    6.0531    0.0637    0.0000 O   0  0  0  0  0  0  0  0  0  0  0  0
    2.0000    3.0633    0.0000 O   0  5  0  0  0  0  0  0  0  0  0  0
    2.8660    4.5633    0.0000 O   0  0  0  0  0  0  0  0  0  0  0  0
    8.0102   -0.3487    0.0000 N   0  0  0  0  0  0  0  0  0  0  0  0
    8.6315   -2.2498    0.0000 N   0  0  0  0  0  0  0  0  0  0  0  0
    6.4103    1.7585    0.0000 N   0  0  0  0  0  0  0  0  0  0  0  0
    2.8660    3.5633    0.0000 N   0  3  0  0  0  0  0  0  0  0  0  0
    8.9887   -0.5550    0.0000 C   0  0  0  0  0  0  0  0  0  0  0  0
    7.3423   -1.0930    0.0000 C   0  0  0  0  0  0  0  0  0  0  0  0
    9.2993   -1.5055    0.0000 C   0  0  0  0  0  0  0  0  0  0  0  0
    7.6530   -2.0436    0.0000 C   0  0  0  0  0  0  0  0  0  0  0  0
    7.6995    0.6018    0.0000 C   0  0  0  0  0  0  0  0  0  0  0  0
    8.9421   -3.2003    0.0000 C   0  0  0  0  0  0  0  0  0  0  0  0
    6.9939    2.5633    0.0000 C   0  0  0  0  0  0  0  0  0  0  0  0
    6.7210    0.8080    0.0000 C   0  0  0  0  0  0  0  0  0  0  0  0
    6.4103    3.3680    0.0000 C   0  0  0  0  0  0  0  0  0  0  0  0
    5.4641    2.0633    0.0000 C   0  0  0  0  0  0  0  0  0  0  0  0
    5.4641    3.0633    0.0000 C   0  0  0  0  0  0  0  0  0  0  0  0
    9.9206   -3.4065    0.0000 C   0  0  0  0  0  0  0  0  0  0  0  0
    4.5981    1.5633    0.0000 C   0  0  0  0  0  0  0  0  0  0  0  0
    4.5981    3.5633    0.0000 C   0  0  0  0  0  0  0  0  0  0  0  0
    3.7320    3.0633    0.0000 C   0  0  0  0  0  0  0  0  0  0  0  0
    3.7320    2.0633    0.0000 C   0  0  0  0  0  0  0  0  0  0  0  0
   10.5885   -2.6622    0.0000 C   0  0  0  0  0  0  0  0  0  0  0  0
   10.2313   -4.3570    0.0000 C   0  0  0  0  0  0  0  0  0  0  0  0
   11.5670   -2.8684    0.0000 C   0  0  0  0  0  0  0  0  0  0  0  0
   11.2098   -4.5633    0.0000 C   0  0  0  0  0  0  0  0  0  0  0  0
   11.8777   -3.8190    0.0000 C   0  0  0  0  0  0  0  0  0  0  0  0
    9.6025   -0.4676    0.0000 H   0  0  0  0  0  0  0  0  0  0  0  0
    9.0092    0.0647    0.0000 H   0  0  0  0  0  0  0  0  0  0  0  0
    6.9598   -0.6051    0.0000 H   0  0  0  0  0  0  0  0  0  0  0  0
    6.7954   -1.3851    0.0000 H   0  0  0  0  0  0  0  0  0  0  0  0
    9.6819   -1.9934    0.0000 H   0  0  0  0  0  0  0  0  0  0  0  0
    9.8462   -1.2135    0.0000 H   0  0  0  0  0  0  0  0  0  0  0  0
    7.0392   -2.1309    0.0000 H   0  0  0  0  0  0  0  0  0  0  0  0
    7.6324   -2.6632    0.0000 H   0  0  0  0  0  0  0  0  0  0  0  0
    8.3133    0.6891    0.0000 H   0  0  0  0  0  0  0  0  0  0  0  0
    7.7201    1.2214    0.0000 H   0  0  0  0  0  0  0  0  0  0  0  0
    8.3283   -3.2876    0.0000 H   0  0  0  0  0  0  0  0  0  0  0  0
    8.9216   -3.8200    0.0000 H   0  0  0  0  0  0  0  0  0  0  0  0
    7.4548    2.1485    0.0000 H   0  0  0  0  0  0  0  0  0  0  0  0
    7.4548    2.9780    0.0000 H   0  0  0  0  0  0  0  0  0  0  0  0
    6.9477    3.6772    0.0000 H   0  0  0  0  0  0  0  0  0  0  0  0
    6.1593    3.9349    0.0000 H   0  0  0  0  0  0  0  0  0  0  0  0
    4.5981    0.9433    0.0000 H   0  0  0  0  0  0  0  0  0  0  0  0
    4.5981    4.1833    0.0000 H   0  0  0  0  0  0  0  0  0  0  0  0
    3.1951    1.7533    0.0000 H   0  0  0  0  0  0  0  0  0  0  0  0
   10.3959   -2.0729    0.0000 H   0  0  0  0  0  0  0  0  0  0  0  0
    9.8172   -4.8185    0.0000 H   0  0  0  0  0  0  0  0  0  0  0  0
   11.9811   -2.4070    0.0000 H   0  0  0  0  0  0  0  0  0  0  0  0
   11.4024   -5.1526    0.0000 H   0  0  0  0  0  0  0  0  0  0  0  0
  1 29  1  0  0  0  0
  2 16  2  0  0  0  0
  3  8  1  0  0  0  0
  4  8  2  0  0  0  0
  5  9  1  0  0  0  0
  5 10  1  0  0  0  0
  5 13  1  0  0  0  0
  6 11  1  0  0  0  0
  6 12  1  0  0  0  0
  6 14  1  0  0  0  0
  7 15  1  0  0  0  0
  7 16  1  0  0  0  0
  7 18  1  0  0  0  0
  8 23  1  0  0  0  0
  9 11  1  0  0  0  0
  9 30  1  0  0  0  0
  9 31  1  0  0  0  0
 10 12  1  0  0  0  0
 10 32  1  0  0  0  0
 10 33  1  0  0  0  0
 11 34  1  0  0  0  0
 11 35  1  0  0  0  0
 12 36  1  0  0  0  0
 12 37  1  0  0  0  0
 13 16  1  0  0  0  0
 13 38  1  0  0  0  0
 13 39  1  0  0  0  0
 14 20  1  0  0  0  0
 14 40  1  0  0  0  0
 14 41  1  0  0  0  0
 15 17  1  0  0  0  0
 15 42  1  0  0  0  0
 15 43  1  0  0  0  0
 17 19  1  0  0  0  0
 17 44  1  0  0  0  0
 17 45  1  0  0  0  0
 18 19  2  0  0  0  0
 18 21  1  0  0  0  0
 19 22  1  0  0  0  0
 20 25  2  0  0  0  0
 20 26  1  0  0  0  0
 21 24  2  0  0  0  0
 21 46  1  0  0  0  0
 22 23  2  0  0  0  0
 22 47  1  0  0  0  0
 23 24  1  0  0  0  0
 24 48  1  0  0  0  0
 25 27  1  0  0  0  0
 25 49  1  0  0  0  0
 26 28  2  0  0  0  0
 26 50  1  0  0  0  0
 27 29  2  0  0  0  0
 27 51  1  0  0  0  0
 28 29  1  0  0  0  0
 28 52  1  0  0  0  0
M  CHG  2   3  -1   8   1
M  END
> <PUBCHEM_COMPOUND_CID>
25895957

> <PUBCHEM_COMPOUND_CANONICALIZED>
1

> <PUBCHEM_CACTVS_COMPLEXITY>
585

> <PUBCHEM_CACTVS_HBOND_ACCEPTOR>
5

> <PUBCHEM_CACTVS_HBOND_DONOR>
0

> <PUBCHEM_CACTVS_ROTATABLE_BOND>
4

> <PUBCHEM_CACTVS_SUBSKEYS>
AAADceB7sAAEAAAAAAAAAAAAAAAAAWAAAAA8YIAAAAAAAFgBQAAAHgIEAAAADArBmCQwwIMQQACJAiVSUwCCAAAhBwAoiACIZooIYCLBk7GUIAhghgDIyAcQgIAOBACAQAACAAAIAQCAAAQAAAAAAAAAAA==

> <PUBCHEM_IUPAC_OPENEYE_NAME>
2-[4-[(4-chlorophenyl)methyl]piperazin-1-yl]-1-(5-nitroindolin-1-yl)ethanone

> <PUBCHEM_IUPAC_CAS_NAME>
2-[4-[(4-chlorophenyl)methyl]-1-piperazinyl]-1-(5-nitro-2,3-dihydroindol-1-yl)ethanone

> <PUBCHEM_IUPAC_NAME_MARKUP>
2-[4-[(4-chlorophenyl)methyl]piperazin-1-yl]-1-(5-nitro-2,3-dihydroindol-1-yl)ethanone

> <PUBCHEM_IUPAC_NAME>
2-[4-[(4-chlorophenyl)methyl]piperazin-1-yl]-1-(5-nitro-2,3-dihydroindol-1-yl)ethanone

> <PUBCHEM_IUPAC_SYSTEMATIC_NAME>
2-[4-[(4-chlorophenyl)methyl]piperazin-1-yl]-1-(5-nitro-2,3-dihydroindol-1-yl)ethanone

> <PUBCHEM_IUPAC_TRADITIONAL_NAME>
2-[4-(4-chlorobenzyl)piperazino]-1-(5-nitroindolin-1-yl)ethanone

> <PUBCHEM_IUPAC_INCHI>
InChI=1S/C21H23ClN4O3/c22-18-3-1-16(2-4-18)14-23-9-11-24(12-10-23)15-21(27)25-8-7-17-13-19(26(28)29)5-6-20(17)25/h1-6,13H,7-12,14-15H2

> <PUBCHEM_IUPAC_INCHIKEY>
JJUKSUFNDXYVBQ-UHFFFAOYSA-N

> <PUBCHEM_XLOGP3_AA>
3.1

> <PUBCHEM_EXACT_MASS>
414.1458683

> <PUBCHEM_MOLECULAR_FORMULA>
C21H23ClN4O3

> <PUBCHEM_MOLECULAR_WEIGHT>
414.9

> <PUBCHEM_OPENEYE_CAN_SMILES>
C1CN(C2=C1C=C(C=C2)[N+](=O)[O-])C(=O)CN3CCN(CC3)CC4=CC=C(C=C4)Cl

> <PUBCHEM_OPENEYE_ISO_SMILES>
C1CN(C2=C1C=C(C=C2)[N+](=O)[O-])C(=O)CN3CCN(CC3)CC4=CC=C(C=C4)Cl

> <PUBCHEM_CACTVS_TPSA>
72.6

> <PUBCHEM_MONOISOTOPIC_WEIGHT>
414.1458683

> <PUBCHEM_TOTAL_CHARGE>
0

> <PUBCHEM_HEAVY_ATOM_COUNT>
29

> <PUBCHEM_ATOM_DEF_STEREO_COUNT>
0

> <PUBCHEM_ATOM_UDEF_STEREO_COUNT>
0

> <PUBCHEM_BOND_DEF_STEREO_COUNT>
0

> <PUBCHEM_BOND_UDEF_STEREO_COUNT>
0

> <PUBCHEM_ISOTOPIC_ATOM_COUNT>
0

> <PUBCHEM_COMPONENT_COUNT>
1

> <PUBCHEM_CACTVS_TAUTO_COUNT>
-1

> <PUBCHEM_COORDINATE_TYPE>
1
5
255

> <PUBCHEM_BONDANNOTATIONS>
18  19  8
18  21  8
19  22  8
20  25  8
20  26  8
21  24  8
22  23  8
23  24  8
25  27  8
26  28  8
27  29  8
28  29  8

$$$$
