23630797
  -OEChem-09292322252D

 59 63  0     1  0  0  0  0  0999 V2000
    6.8867   -0.7830    0.0000 S   0  0  0  0  0  0  0  0  0  0  0  0
    3.5388   -2.8708    0.0000 S   0  0  0  0  0  0  0  0  0  0  0  0
   15.6566    1.5700    0.0000 O   0  0  0  0  0  0  0  0  0  0  0  0
    9.8867    0.9491    0.0000 N   0  0  3  0  0  0  0  0  0  0  0  0
   14.8421    2.9681    0.0000 N   0  0  0  0  0  0  0  0  0  0  0  0
    5.2989   -1.5920    0.0000 N   0  0  0  0  0  0  0  0  0  0  0  0
    5.2989    0.0260    0.0000 N   0  0  0  0  0  0  0  0  0  0  0  0
    4.3479   -0.2830    0.0000 N   0  0  0  0  0  0  0  0  0  0  0  0
   10.3206    1.8500    0.0000 C   0  0  0  0  0  0  0  0  0  0  0  0
   10.3206    0.0481    0.0000 C   0  0  0  0  0  0  0  0  0  0  0  0
   11.2955    2.0725    0.0000 C   0  0  0  0  0  0  0  0  0  0  0  0
   11.2955   -0.1744    0.0000 C   0  0  0  0  0  0  0  0  0  0  0  0
   12.0773    1.4490    0.0000 C   0  0  0  0  0  0  0  0  0  0  0  0
   12.0773    0.4491    0.0000 C   0  0  0  0  0  0  0  0  0  0  0  0
    8.8867    0.9491    0.0000 C   0  0  0  0  0  0  0  0  0  0  0  0
    8.3867    0.0830    0.0000 C   0  0  0  0  0  0  0  0  0  0  0  0
   12.9713    1.9837    0.0000 C   0  0  0  0  0  0  0  0  0  0  0  0
   12.9713   -0.0856    0.0000 C   0  0  0  0  0  0  0  0  0  0  0  0
   13.8774    1.4699    0.0000 C   0  0  0  0  0  0  0  0  0  0  0  0
    7.3867    0.0830    0.0000 C   0  0  0  0  0  0  0  0  0  0  0  0
   13.8774    0.4282    0.0000 C   0  0  0  0  0  0  0  0  0  0  0  0
   14.7414    1.9732    0.0000 C   0  0  0  0  0  0  0  0  0  0  0  0
    5.8867   -0.7830    0.0000 C   0  0  0  0  0  0  0  0  0  0  0  0
   16.3228    2.3157    0.0000 C   0  0  0  0  0  0  0  0  0  0  0  0
   15.8195    3.1798    0.0000 C   0  0  0  0  0  0  0  0  0  0  0  0
    4.3479   -1.2830    0.0000 C   0  0  0  0  0  0  0  0  0  0  0  0
    5.6079   -2.5431    0.0000 C   0  0  0  0  0  0  0  0  0  0  0  0
    3.5388   -1.8708    0.0000 C   0  0  0  0  0  0  0  0  0  0  0  0
   17.3177    2.2150    0.0000 C   0  0  0  0  0  0  0  0  0  0  0  0
    2.5878   -1.5618    0.0000 C   0  0  0  0  0  0  0  0  0  0  0  0
    2.0000   -2.3708    0.0000 C   0  0  0  0  0  0  0  0  0  0  0  0
    2.5878   -3.1798    0.0000 C   0  0  0  0  0  0  0  0  0  0  0  0
   10.3206    2.4700    0.0000 H   0  0  0  0  0  0  0  0  0  0  0  0
    9.7161    1.9880    0.0000 H   0  0  0  0  0  0  0  0  0  0  0  0
    9.7161   -0.0899    0.0000 H   0  0  0  0  0  0  0  0  0  0  0  0
   10.3206   -0.5719    0.0000 H   0  0  0  0  0  0  0  0  0  0  0  0
   11.7802    2.4591    0.0000 H   0  0  0  0  0  0  0  0  0  0  0  0
   11.0265    2.6311    0.0000 H   0  0  0  0  0  0  0  0  0  0  0  0
   11.0265   -0.7330    0.0000 H   0  0  0  0  0  0  0  0  0  0  0  0
   11.7802   -0.5610    0.0000 H   0  0  0  0  0  0  0  0  0  0  0  0
    8.9944    1.5596    0.0000 H   0  0  0  0  0  0  0  0  0  0  0  0
    8.3041    1.1611    0.0000 H   0  0  0  0  0  0  0  0  0  0  0  0
    8.2790   -0.5276    0.0000 H   0  0  0  0  0  0  0  0  0  0  0  0
    8.9693   -0.1290    0.0000 H   0  0  0  0  0  0  0  0  0  0  0  0
   12.9641    2.6037    0.0000 H   0  0  0  0  0  0  0  0  0  0  0  0
   12.9641   -0.7056    0.0000 H   0  0  0  0  0  0  0  0  0  0  0  0
    7.4944    0.6936    0.0000 H   0  0  0  0  0  0  0  0  0  0  0  0
    6.8041    0.2951    0.0000 H   0  0  0  0  0  0  0  0  0  0  0  0
   14.4131    0.1162    0.0000 H   0  0  0  0  0  0  0  0  0  0  0  0
   16.0695    3.7472    0.0000 H   0  0  0  0  0  0  0  0  0  0  0  0
    5.0183   -2.7347    0.0000 H   0  0  0  0  0  0  0  0  0  0  0  0
    5.7995   -3.1327    0.0000 H   0  0  0  0  0  0  0  0  0  0  0  0
    6.1976   -2.3515    0.0000 H   0  0  0  0  0  0  0  0  0  0  0  0
   17.2553    1.5982    0.0000 H   0  0  0  0  0  0  0  0  0  0  0  0
   17.9346    2.1526    0.0000 H   0  0  0  0  0  0  0  0  0  0  0  0
   17.3802    2.8319    0.0000 H   0  0  0  0  0  0  0  0  0  0  0  0
    2.3962   -0.9721    0.0000 H   0  0  0  0  0  0  0  0  0  0  0  0
    1.3800   -2.3708    0.0000 H   0  0  0  0  0  0  0  0  0  0  0  0
    2.3962   -3.7695    0.0000 H   0  0  0  0  0  0  0  0  0  0  0  0
  1 20  1  0  0  0  0
  1 23  1  0  0  0  0
  2 28  1  0  0  0  0
  2 32  1  0  0  0  0
  3 22  1  0  0  0  0
  3 24  1  0  0  0  0
  4  9  1  0  0  0  0
  4 10  1  0  0  0  0
  4 15  1  0  0  0  0
  5 22  2  0  0  0  0
  5 25  1  0  0  0  0
  6 23  1  0  0  0  0
  6 26  1  0  0  0  0
  6 27  1  0  0  0  0
  7  8  1  0  0  0  0
  7 23  2  0  0  0  0
  8 26  2  0  0  0  0
  9 11  1  0  0  0  0
  9 33  1  0  0  0  0
  9 34  1  0  0  0  0
 10 12  1  0  0  0  0
 10 35  1  0  0  0  0
 10 36  1  0  0  0  0
 11 13  1  0  0  0  0
 11 37  1  0  0  0  0
 11 38  1  0  0  0  0
 12 14  1  0  0  0  0
 12 39  1  0  0  0  0
 12 40  1  0  0  0  0
 13 14  2  0  0  0  0
 13 17  1  0  0  0  0
 14 18  1  0  0  0  0
 15 16  1  0  0  0  0
 15 41  1  0  0  0  0
 15 42  1  0  0  0  0
 16 20  1  0  0  0  0
 16 43  1  0  0  0  0
 16 44  1  0  0  0  0
 17 19  2  0  0  0  0
 17 45  1  0  0  0  0
 18 21  2  0  0  0  0
 18 46  1  0  0  0  0
 19 21  1  0  0  0  0
 19 22  1  0  0  0  0
 20 47  1  0  0  0  0
 20 48  1  0  0  0  0
 21 49  1  0  0  0  0
 24 25  2  0  0  0  0
 24 29  1  0  0  0  0
 25 50  1  0  0  0  0
 26 28  1  0  0  0  0
 27 51  1  0  0  0  0
 27 52  1  0  0  0  0
 27 53  1  0  0  0  0
 28 30  2  0  0  0  0
 29 54  1  0  0  0  0
 29 55  1  0  0  0  0
 29 56  1  0  0  0  0
 30 31  1  0  0  0  0
 30 57  1  0  0  0  0
 31 32  2  0  0  0  0
 31 58  1  0  0  0  0
 32 59  1  0  0  0  0
M  END
> <PUBCHEM_COMPOUND_CID>
23630797

> <PUBCHEM_COMPOUND_CANONICALIZED>
1

> <PUBCHEM_CACTVS_COMPLEXITY>
601

> <PUBCHEM_CACTVS_HBOND_ACCEPTOR>
7

> <PUBCHEM_CACTVS_HBOND_DONOR>
0

> <PUBCHEM_CACTVS_ROTATABLE_BOND>
7

> <PUBCHEM_CACTVS_SUBSKEYS>
AAADceB7oABgAAAAAAAAAAAAAAAAAWLEgAAwAAAABYAAAAAB/AAAHgQIAAAADATF2wS/lZcMFEiuArN3dAST2Kt/SLBd2DmrTNiOLrLgvTmPOQjkzgP4qYeYyPCOwAACAAAQAACAAAQAACAAAAAAAAAAAA==

> <PUBCHEM_IUPAC_OPENEYE_NAME>
5-methyl-2-[3-[3-[[4-methyl-5-(2-thienyl)-1,2,4-triazol-3-yl]sulfanyl]propyl]-1,2,4,5-tetrahydro-3-benzazepin-7-yl]oxazole

> <PUBCHEM_IUPAC_CAS_NAME>
5-methyl-2-[3-[3-[(4-methyl-5-thiophen-2-yl-1,2,4-triazol-3-yl)thio]propyl]-1,2,4,5-tetrahydro-3-benzazepin-7-yl]oxazole

> <PUBCHEM_IUPAC_NAME_MARKUP>
5-methyl-2-[3-[3-[(4-methyl-5-thiophen-2-yl-1,2,4-triazol-3-yl)sulfanyl]propyl]-1,2,4,5-tetrahydro-3-benzazepin-7-yl]-1,3-oxazole

> <PUBCHEM_IUPAC_NAME>
5-methyl-2-[3-[3-[(4-methyl-5-thiophen-2-yl-1,2,4-triazol-3-yl)sulfanyl]propyl]-1,2,4,5-tetrahydro-3-benzazepin-7-yl]-1,3-oxazole

> <PUBCHEM_IUPAC_SYSTEMATIC_NAME>
5-methyl-2-[3-[3-[(4-methyl-5-thiophen-2-yl-1,2,4-triazol-3-yl)sulfanyl]propyl]-1,2,4,5-tetrahydro-3-benzazepin-7-yl]-1,3-oxazole

> <PUBCHEM_IUPAC_TRADITIONAL_NAME>
5-methyl-2-[3-[3-[[4-methyl-5-(2-thienyl)-1,2,4-triazol-3-yl]thio]propyl]-1,2,4,5-tetrahydro-3-benzazepin-7-yl]oxazole

> <PUBCHEM_IUPAC_INCHI>
InChI=1S/C24H27N5OS2/c1-17-16-25-23(30-17)20-7-6-18-8-11-29(12-9-19(18)15-20)10-4-14-32-24-27-26-22(28(24)2)21-5-3-13-31-21/h3,5-7,13,15-16H,4,8-12,14H2,1-2H3

> <PUBCHEM_IUPAC_INCHIKEY>
JYLNFWODPITKFP-UHFFFAOYSA-N

> <PUBCHEM_XLOGP3_AA>
4.5

> <PUBCHEM_EXACT_MASS>
465.16570285

> <PUBCHEM_MOLECULAR_FORMULA>
C24H27N5OS2

> <PUBCHEM_MOLECULAR_WEIGHT>
465.6

> <PUBCHEM_OPENEYE_CAN_SMILES>
CC1=CN=C(O1)C2=CC3=C(CCN(CC3)CCCSC4=NN=C(N4C)C5=CC=CS5)C=C2

> <PUBCHEM_OPENEYE_ISO_SMILES>
CC1=CN=C(O1)C2=CC3=C(CCN(CC3)CCCSC4=NN=C(N4C)C5=CC=CS5)C=C2

> <PUBCHEM_CACTVS_TPSA>
114

> <PUBCHEM_MONOISOTOPIC_WEIGHT>
465.16570285

> <PUBCHEM_TOTAL_CHARGE>
0

> <PUBCHEM_HEAVY_ATOM_COUNT>
32

> <PUBCHEM_ATOM_DEF_STEREO_COUNT>
0

> <PUBCHEM_ATOM_UDEF_STEREO_COUNT>
0

> <PUBCHEM_BOND_DEF_STEREO_COUNT>
0

> <PUBCHEM_BOND_UDEF_STEREO_COUNT>
0

> <PUBCHEM_ISOTOPIC_ATOM_COUNT>
0

> <PUBCHEM_COMPONENT_COUNT>
1

> <PUBCHEM_CACTVS_TAUTO_COUNT>
-1

> <PUBCHEM_COORDINATE_TYPE>
1
5
255

> <PUBCHEM_BONDANNOTATIONS>
13  14  8
13  17  8
14  18  8
17  19  8
18  21  8
19  21  8
2  28  8
2  32  8
24  25  8
28  30  8
3  22  8
3  24  8
30  31  8
31  32  8
5  22  8
5  25  8
6  23  8
6  26  8
7  23  8
7  8  8
8  26  8

$$$$
