46176231
  -OEChem-09292321592D

 65 69  0     1  0  0  0  0  0999 V2000
    3.6179    4.8399    0.0000 S   0  0  0  0  0  0  0  0  0  0  0  0
    3.3199    5.7945    0.0000 S   0  0  0  0  0  0  0  0  0  0  0  0
    5.3480   -0.2682    0.0000 O   0  0  0  0  0  0  0  0  0  0  0  0
    3.6161   -0.2482    0.0000 O   0  0  0  0  0  0  0  0  0  0  0  0
    8.8207   -3.2997    0.0000 N   0  0  3  0  0  0  0  0  0  0  0  0
    7.9625   -2.8028    0.0000 C   0  0  1  0  0  0  0  0  0  0  0  0
    7.9625   -1.8028    0.0000 C   0  0  0  0  0  0  0  0  0  0  0  0
    7.0964   -3.3028    0.0000 C   0  0  0  0  0  0  0  0  0  0  0  0
    9.6862   -2.8156    0.0000 C   0  0  0  0  0  0  0  0  0  0  0  0
    8.8725   -1.2960    0.0000 C   0  0  0  0  0  0  0  0  0  0  0  0
    9.7118   -1.8242    0.0000 C   0  0  0  0  0  0  0  0  0  0  0  0
    7.0964   -1.3028    0.0000 C   0  0  0  0  0  0  0  0  0  0  0  0
    6.2304   -2.8028    0.0000 C   0  0  0  0  0  0  0  0  0  0  0  0
    6.2304   -1.8028    0.0000 C   0  0  0  0  0  0  0  0  0  0  0  0
    8.8133   -4.2997    0.0000 C   0  0  0  0  0  0  0  0  0  0  0  0
    8.8805   -0.2543    0.0000 C   0  0  0  0  0  0  0  0  0  0  0  0
    7.0804   -0.2613    0.0000 C   0  0  0  0  0  0  0  0  0  0  0  0
    9.6756   -4.8061    0.0000 C   0  0  0  0  0  0  0  0  0  0  0  0
    5.3365   -1.2681    0.0000 C   0  0  0  0  0  0  0  0  0  0  0  0
    5.3365   -3.3374    0.0000 C   0  0  0  0  0  0  0  0  0  0  0  0
    7.9784    0.2665    0.0000 C   0  0  0  0  0  0  0  0  0  0  0  0
    4.4304   -1.7820    0.0000 C   0  0  0  0  0  0  0  0  0  0  0  0
    4.4304   -2.8236    0.0000 C   0  0  0  0  0  0  0  0  0  0  0  0
    9.6682   -5.8061    0.0000 C   0  0  0  0  0  0  0  0  0  0  0  0
    2.8022    4.2615    0.0000 C   0  0  3  0  0  0  0  0  0  0  0  0
    2.7906    3.2616    0.0000 C   0  0  0  0  0  0  0  0  0  0  0  0
    3.6508    2.7516    0.0000 C   0  0  0  0  0  0  0  0  0  0  0  0
    3.6392    1.7517    0.0000 C   0  0  0  0  0  0  0  0  0  0  0  0
    2.0000    4.8586    0.0000 C   0  0  0  0  0  0  0  0  0  0  0  0
    4.4994    1.2417    0.0000 C   0  0  0  0  0  0  0  0  0  0  0  0
    4.4878    0.2418    0.0000 C   0  0  0  0  0  0  0  0  0  0  0  0
    2.3200    5.8061    0.0000 C   0  0  0  0  0  0  0  0  0  0  0  0
    7.9619   -3.6528    0.0000 H   0  0  0  0  0  0  0  0  0  0  0  0
    6.6979   -3.7777    0.0000 H   0  0  0  0  0  0  0  0  0  0  0  0
    7.4950   -3.7777    0.0000 H   0  0  0  0  0  0  0  0  0  0  0  0
    9.8879   -3.4018    0.0000 H   0  0  0  0  0  0  0  0  0  0  0  0
   10.2989   -2.7212    0.0000 H   0  0  0  0  0  0  0  0  0  0  0  0
   10.3189   -1.9501    0.0000 H   0  0  0  0  0  0  0  0  0  0  0  0
    9.9435   -1.2491    0.0000 H   0  0  0  0  0  0  0  0  0  0  0  0
    8.2035   -4.1875    0.0000 H   0  0  0  0  0  0  0  0  0  0  0  0
    8.5969   -4.8807    0.0000 H   0  0  0  0  0  0  0  0  0  0  0  0
    9.4186    0.0536    0.0000 H   0  0  0  0  0  0  0  0  0  0  0  0
    6.5399    0.0425    0.0000 H   0  0  0  0  0  0  0  0  0  0  0  0
   10.2853   -4.9183    0.0000 H   0  0  0  0  0  0  0  0  0  0  0  0
    9.8919   -4.2251    0.0000 H   0  0  0  0  0  0  0  0  0  0  0  0
    5.3436   -3.9574    0.0000 H   0  0  0  0  0  0  0  0  0  0  0  0
    7.9760    0.8865    0.0000 H   0  0  0  0  0  0  0  0  0  0  0  0
    3.8947   -1.4699    0.0000 H   0  0  0  0  0  0  0  0  0  0  0  0
    3.8947   -3.1357    0.0000 H   0  0  0  0  0  0  0  0  0  0  0  0
    9.0482   -5.8015    0.0000 H   0  0  0  0  0  0  0  0  0  0  0  0
    9.6636   -6.4260    0.0000 H   0  0  0  0  0  0  0  0  0  0  0  0
   10.2882   -5.8106    0.0000 H   0  0  0  0  0  0  0  0  0  0  0  0
    3.3513    3.9737    0.0000 H   0  0  0  0  0  0  0  0  0  0  0  0
    2.1813    3.3763    0.0000 H   0  0  0  0  0  0  0  0  0  0  0  0
    2.5718    2.6815    0.0000 H   0  0  0  0  0  0  0  0  0  0  0  0
    4.2601    2.6369    0.0000 H   0  0  0  0  0  0  0  0  0  0  0  0
    3.8696    3.3318    0.0000 H   0  0  0  0  0  0  0  0  0  0  0  0
    3.0299    1.8664    0.0000 H   0  0  0  0  0  0  0  0  0  0  0  0
    3.4204    1.1716    0.0000 H   0  0  0  0  0  0  0  0  0  0  0  0
    1.4366    5.1174    0.0000 H   0  0  0  0  0  0  0  0  0  0  0  0
    1.6838    4.3253    0.0000 H   0  0  0  0  0  0  0  0  0  0  0  0
    5.1087    1.1270    0.0000 H   0  0  0  0  0  0  0  0  0  0  0  0
    4.7182    1.8218    0.0000 H   0  0  0  0  0  0  0  0  0  0  0  0
    2.3919    6.4219    0.0000 H   0  0  0  0  0  0  0  0  0  0  0  0
    1.7151    5.9420    0.0000 H   0  0  0  0  0  0  0  0  0  0  0  0
  1  2  1  0  0  0  0
  1 25  1  0  0  0  0
  2 32  1  0  0  0  0
  3 19  1  0  0  0  0
  3 31  1  0  0  0  0
  4 31  2  0  0  0  0
  5  6  1  0  0  0  0
  5  9  1  0  0  0  0
  5 15  1  0  0  0  0
  6  7  1  0  0  0  0
  6  8  1  0  0  0  0
  6 33  1  1  0  0  0
  7 10  2  0  0  0  0
  7 12  1  0  0  0  0
  8 13  1  0  0  0  0
  8 34  1  0  0  0  0
  8 35  1  0  0  0  0
  9 11  1  0  0  0  0
  9 36  1  0  0  0  0
  9 37  1  0  0  0  0
 10 11  1  0  0  0  0
 10 16  1  0  0  0  0
 11 38  1  0  0  0  0
 11 39  1  0  0  0  0
 12 14  1  0  0  0  0
 12 17  2  0  0  0  0
 13 14  2  0  0  0  0
 13 20  1  0  0  0  0
 14 19  1  0  0  0  0
 15 18  1  0  0  0  0
 15 40  1  0  0  0  0
 15 41  1  0  0  0  0
 16 21  2  0  0  0  0
 16 42  1  0  0  0  0
 17 21  1  0  0  0  0
 17 43  1  0  0  0  0
 18 24  1  0  0  0  0
 18 44  1  0  0  0  0
 18 45  1  0  0  0  0
 19 22  2  0  0  0  0
 20 23  2  0  0  0  0
 20 46  1  0  0  0  0
 21 47  1  0  0  0  0
 22 23  1  0  0  0  0
 22 48  1  0  0  0  0
 23 49  1  0  0  0  0
 24 50  1  0  0  0  0
 24 51  1  0  0  0  0
 24 52  1  0  0  0  0
 25 26  1  0  0  0  0
 25 29  1  0  0  0  0
 25 53  1  0  0  0  0
 26 27  1  0  0  0  0
 26 54  1  0  0  0  0
 26 55  1  0  0  0  0
 27 28  1  0  0  0  0
 27 56  1  0  0  0  0
 27 57  1  0  0  0  0
 28 30  1  0  0  0  0
 28 58  1  0  0  0  0
 28 59  1  0  0  0  0
 29 32  1  0  0  0  0
 29 60  1  0  0  0  0
 29 61  1  0  0  0  0
 30 31  1  0  0  0  0
 30 62  1  0  0  0  0
 30 63  1  0  0  0  0
 32 64  1  0  0  0  0
 32 65  1  0  0  0  0
M  END
> <PUBCHEM_COMPOUND_CID>
46176231

> <PUBCHEM_COMPOUND_CANONICALIZED>
1

> <PUBCHEM_CACTVS_COMPLEXITY>
631

> <PUBCHEM_CACTVS_HBOND_ACCEPTOR>
5

> <PUBCHEM_CACTVS_HBOND_DONOR>
0

> <PUBCHEM_CACTVS_ROTATABLE_BOND>
9

> <PUBCHEM_CACTVS_SUBSKEYS>
AAADcfB6MABgAAAAAAAAAAAAAAAAASAAAAA8YMEAAAAAAADxQAAAHgQAAAAADCzF2ASyDoMABACIAiDSCACCCAAgIAAIiAEODIgMJjKEsRuGOijkwBGIqAeY2POOgAADAAAYAACQAAaAADQAAAAAAAAAAA==

> <PUBCHEM_IUPAC_OPENEYE_NAME>
[(6aR)-6-propyl-5,6,6a,7-tetrahydro-4H-dibenzo[de,g]quinolin-11-yl] 5-(dithiolan-3-yl)pentanoate

> <PUBCHEM_IUPAC_CAS_NAME>
5-(3-dithiolanyl)pentanoic acid [(6aR)-6-propyl-5,6,6a,7-tetrahydro-4H-dibenzo[de,g]quinolin-11-yl] ester

> <PUBCHEM_IUPAC_NAME_MARKUP>
[(6<I>a</I><I>R</I>)-6-propyl-5,6,6<I>a</I>,7-tetrahydro-4<I>H</I>-dibenzo[de,g]quinolin-11-yl] 5-(dithiolan-3-yl)pentanoate

> <PUBCHEM_IUPAC_NAME>
[(6aR)-6-propyl-5,6,6a,7-tetrahydro-4H-dibenzo[de,g]quinolin-11-yl] 5-(dithiolan-3-yl)pentanoate

> <PUBCHEM_IUPAC_SYSTEMATIC_NAME>
[(6aR)-6-propyl-5,6,6a,7-tetrahydro-4H-dibenzo[de,g]quinolin-11-yl] 5-(1,2-dithiolan-3-yl)pentanoate

> <PUBCHEM_IUPAC_TRADITIONAL_NAME>
5-(dithiolan-3-yl)valeric acid [(6aR)-6-propyl-5,6,6a,7-tetrahydro-4H-dibenzo[de,g]quinolin-11-yl] ester

> <PUBCHEM_IUPAC_INCHI>
InChI=1S/C27H33NO2S2/c1-2-15-28-16-13-19-7-5-10-22-26(19)23(28)18-20-8-6-11-24(27(20)22)30-25(29)12-4-3-9-21-14-17-31-32-21/h5-8,10-11,21,23H,2-4,9,12-18H2,1H3/t21?,23-/m1/s1

> <PUBCHEM_IUPAC_INCHIKEY>
JCKSBFDVTFRZJP-JFGZAKSSSA-N

> <PUBCHEM_XLOGP3_AA>
6

> <PUBCHEM_EXACT_MASS>
467.19527164

> <PUBCHEM_MOLECULAR_FORMULA>
C27H33NO2S2

> <PUBCHEM_MOLECULAR_WEIGHT>
467.7

> <PUBCHEM_OPENEYE_CAN_SMILES>
CCCN1CCC2=C3C1CC4=C(C3=CC=C2)C(=CC=C4)OC(=O)CCCCC5CCSS5

> <PUBCHEM_OPENEYE_ISO_SMILES>
CCCN1CCC2=C3[C@H]1CC4=C(C3=CC=C2)C(=CC=C4)OC(=O)CCCCC5CCSS5

> <PUBCHEM_CACTVS_TPSA>
80.1

> <PUBCHEM_MONOISOTOPIC_WEIGHT>
467.19527164

> <PUBCHEM_TOTAL_CHARGE>
0

> <PUBCHEM_HEAVY_ATOM_COUNT>
32

> <PUBCHEM_ATOM_DEF_STEREO_COUNT>
1

> <PUBCHEM_ATOM_UDEF_STEREO_COUNT>
1

> <PUBCHEM_BOND_DEF_STEREO_COUNT>
0

> <PUBCHEM_BOND_UDEF_STEREO_COUNT>
0

> <PUBCHEM_ISOTOPIC_ATOM_COUNT>
0

> <PUBCHEM_COMPONENT_COUNT>
1

> <PUBCHEM_CACTVS_TAUTO_COUNT>
-1

> <PUBCHEM_COORDINATE_TYPE>
1
5
255

> <PUBCHEM_BONDANNOTATIONS>
10  16  8
12  17  8
13  14  8
13  20  8
14  19  8
16  21  8
17  21  8
19  22  8
20  23  8
22  23  8
25  26  3
6  33  5
7  10  8
7  12  8

$$$$
