155195454
  -OEChem-09292322412D

 65 69  0     1  0  0  0  0  0999 V2000
    9.0882    6.0157    0.0000 S   0  0  0  0  0  0  0  0  0  0  0  0
    2.9061   -2.5213    0.0000 O   0  0  0  0  0  0  0  0  0  0  0  0
    5.5321   -4.0560    0.0000 O   0  0  0  0  0  0  0  0  0  0  0  0
    5.5442    0.0133    0.0000 O   0  0  0  0  0  0  0  0  0  0  0  0
    7.2569    5.0199    0.0000 O   0  0  0  0  0  0  0  0  0  0  0  0
    2.9061   -4.5906    0.0000 N   0  0  3  0  0  0  0  0  0  0  0  0
    8.1287    3.5233    0.0000 N   0  0  0  0  0  0  0  0  0  0  0  0
    9.8983    4.6250    0.0000 N   0  0  0  0  0  0  0  0  0  0  0  0
    3.8000   -4.0560    0.0000 C   0  0  1  0  0  0  0  0  0  0  0  0
    3.8000   -3.0560    0.0000 C   0  0  1  0  0  0  0  0  0  0  0  0
    4.6660   -4.5560    0.0000 C   0  0  0  0  0  0  0  0  0  0  0  0
    2.0000   -4.0768    0.0000 C   0  0  0  0  0  0  0  0  0  0  0  0
    4.6660   -2.5560    0.0000 C   0  0  0  0  0  0  0  0  0  0  0  0
    2.9176   -5.5906    0.0000 C   0  0  0  0  0  0  0  0  0  0  0  0
    2.0000   -3.0351    0.0000 C   0  0  0  0  0  0  0  0  0  0  0  0
    5.5321   -3.0560    0.0000 C   0  0  0  0  0  0  0  0  0  0  0  0
    2.0574   -6.1005    0.0000 C   0  0  0  0  0  0  0  0  0  0  0  0
    4.6500   -1.5144    0.0000 C   0  0  0  0  0  0  0  0  0  0  0  0
    6.4421   -2.5491    0.0000 C   0  0  0  0  0  0  0  0  0  0  0  0
    5.5480   -0.9867    0.0000 C   0  0  0  0  0  0  0  0  0  0  0  0
    6.4501   -1.5075    0.0000 C   0  0  0  0  0  0  0  0  0  0  0  0
    2.0690   -7.1005    0.0000 C   0  0  0  0  0  0  0  0  0  0  0  0
    6.4082    0.5166    0.0000 C   0  0  0  0  0  0  0  0  0  0  0  0
    6.4044    1.5166    0.0000 C   0  0  0  0  0  0  0  0  0  0  0  0
    7.2685    2.0200    0.0000 C   0  0  0  0  0  0  0  0  0  0  0  0
    7.2646    3.0200    0.0000 C   0  0  0  0  0  0  0  0  0  0  0  0
    8.1249    4.5233    0.0000 C   0  0  0  0  0  0  0  0  0  0  0  0
    8.9890    5.0266    0.0000 C   0  0  0  0  0  0  0  0  0  0  0  0
   10.0592    6.2287    0.0000 C   0  0  0  0  0  0  0  0  0  0  0  0
   10.5625    5.3646    0.0000 C   0  0  0  0  0  0  0  0  0  0  0  0
   10.5559    7.0966    0.0000 C   0  0  0  0  0  0  0  0  0  0  0  0
   11.5625    5.3684    0.0000 C   0  0  0  0  0  0  0  0  0  0  0  0
   11.5559    7.1005    0.0000 C   0  0  0  0  0  0  0  0  0  0  0  0
   12.0592    6.2364    0.0000 C   0  0  0  0  0  0  0  0  0  0  0  0
    3.8066   -4.9059    0.0000 H   0  0  0  0  0  0  0  0  0  0  0  0
    3.8066   -2.2060    0.0000 H   0  0  0  0  0  0  0  0  0  0  0  0
    4.2675   -5.0309    0.0000 H   0  0  0  0  0  0  0  0  0  0  0  0
    5.0646   -5.0309    0.0000 H   0  0  0  0  0  0  0  0  0  0  0  0
    1.3891   -3.9707    0.0000 H   0  0  0  0  0  0  0  0  0  0  0  0
    1.7909   -4.6605    0.0000 H   0  0  0  0  0  0  0  0  0  0  0  0
    3.1364   -6.1707    0.0000 H   0  0  0  0  0  0  0  0  0  0  0  0
    3.5269   -5.4758    0.0000 H   0  0  0  0  0  0  0  0  0  0  0  0
    1.7909   -2.4514    0.0000 H   0  0  0  0  0  0  0  0  0  0  0  0
    1.3891   -3.1412    0.0000 H   0  0  0  0  0  0  0  0  0  0  0  0
    1.8387   -5.5204    0.0000 H   0  0  0  0  0  0  0  0  0  0  0  0
    1.4482   -6.2152    0.0000 H   0  0  0  0  0  0  0  0  0  0  0  0
    4.1095   -1.2107    0.0000 H   0  0  0  0  0  0  0  0  0  0  0  0
    6.9754   -2.8653    0.0000 H   0  0  0  0  0  0  0  0  0  0  0  0
    6.9882   -1.1996    0.0000 H   0  0  0  0  0  0  0  0  0  0  0  0
    1.4490   -7.1076    0.0000 H   0  0  0  0  0  0  0  0  0  0  0  0
    2.0762   -7.7204    0.0000 H   0  0  0  0  0  0  0  0  0  0  0  0
    2.6890   -7.0933    0.0000 H   0  0  0  0  0  0  0  0  0  0  0  0
    6.6226   -0.0652    0.0000 H   0  0  0  0  0  0  0  0  0  0  0  0
    7.0184    0.6266    0.0000 H   0  0  0  0  0  0  0  0  0  0  0  0
    6.1901    2.0984    0.0000 H   0  0  0  0  0  0  0  0  0  0  0  0
    5.7942    1.4066    0.0000 H   0  0  0  0  0  0  0  0  0  0  0  0
    7.4828    1.4382    0.0000 H   0  0  0  0  0  0  0  0  0  0  0  0
    7.8786    2.1300    0.0000 H   0  0  0  0  0  0  0  0  0  0  0  0
    7.0503    3.6017    0.0000 H   0  0  0  0  0  0  0  0  0  0  0  0
    6.6545    2.9099    0.0000 H   0  0  0  0  0  0  0  0  0  0  0  0
    8.6668    3.2154    0.0000 H   0  0  0  0  0  0  0  0  0  0  0  0
   10.2438    7.6324    0.0000 H   0  0  0  0  0  0  0  0  0  0  0  0
   11.8746    4.8327    0.0000 H   0  0  0  0  0  0  0  0  0  0  0  0
   11.8638    7.6386    0.0000 H   0  0  0  0  0  0  0  0  0  0  0  0
   12.6792    6.2388    0.0000 H   0  0  0  0  0  0  0  0  0  0  0  0
  1 28  1  0  0  0  0
  1 29  1  0  0  0  0
  2 10  1  0  0  0  0
  2 15  1  0  0  0  0
  3 11  1  0  0  0  0
  3 16  1  0  0  0  0
  4 20  1  0  0  0  0
  4 23  1  0  0  0  0
  5 27  2  0  0  0  0
  6  9  1  0  0  0  0
  6 12  1  0  0  0  0
  6 14  1  0  0  0  0
  7 26  1  0  0  0  0
  7 27  1  0  0  0  0
  7 61  1  0  0  0  0
  8 28  2  0  0  0  0
  8 30  1  0  0  0  0
  9 10  1  0  0  0  0
  9 11  1  0  0  0  0
  9 35  1  6  0  0  0
 10 13  1  0  0  0  0
 10 36  1  1  0  0  0
 11 37  1  0  0  0  0
 11 38  1  0  0  0  0
 12 15  1  0  0  0  0
 12 39  1  0  0  0  0
 12 40  1  0  0  0  0
 13 16  2  0  0  0  0
 13 18  1  0  0  0  0
 14 17  1  0  0  0  0
 14 41  1  0  0  0  0
 14 42  1  0  0  0  0
 15 43  1  0  0  0  0
 15 44  1  0  0  0  0
 16 19  1  0  0  0  0
 17 22  1  0  0  0  0
 17 45  1  0  0  0  0
 17 46  1  0  0  0  0
 18 20  2  0  0  0  0
 18 47  1  0  0  0  0
 19 21  2  0  0  0  0
 19 48  1  0  0  0  0
 20 21  1  0  0  0  0
 21 49  1  0  0  0  0
 22 50  1  0  0  0  0
 22 51  1  0  0  0  0
 22 52  1  0  0  0  0
 23 24  1  0  0  0  0
 23 53  1  0  0  0  0
 23 54  1  0  0  0  0
 24 25  1  0  0  0  0
 24 55  1  0  0  0  0
 24 56  1  0  0  0  0
 25 26  1  0  0  0  0
 25 57  1  0  0  0  0
 25 58  1  0  0  0  0
 26 59  1  0  0  0  0
 26 60  1  0  0  0  0
 27 28  1  0  0  0  0
 29 30  1  0  0  0  0
 29 31  2  0  0  0  0
 30 32  2  0  0  0  0
 31 33  1  0  0  0  0
 31 62  1  0  0  0  0
 32 34  1  0  0  0  0
 32 63  1  0  0  0  0
 33 34  2  0  0  0  0
 33 64  1  0  0  0  0
 34 65  1  0  0  0  0
M  END
> <PUBCHEM_COMPOUND_CID>
155195454

> <PUBCHEM_COMPOUND_CANONICALIZED>
1

> <PUBCHEM_CACTVS_COMPLEXITY>
670

> <PUBCHEM_CACTVS_HBOND_ACCEPTOR>
7

> <PUBCHEM_CACTVS_HBOND_DONOR>
1

> <PUBCHEM_CACTVS_ROTATABLE_BOND>
9

> <PUBCHEM_CACTVS_SUBSKEYS>
AAADceB7OABAAAAAAAAAAAAAAAAAAWAAAAA8aIEAAAAAAFix9AAAHgQQAAAADDzh3gYyx7PIFAisAyVyVACD+KBjKjhImLy+bJgOZ6LksbuXOCjl1hH46Afw0LMOAQABAAAIAQACAAIAABACAAAAAAAAAA==

> <PUBCHEM_IUPAC_OPENEYE_NAME>
N-[4-[[(4aR,10bR)-4-propyl-3,4a,5,10b-tetrahydro-2H-chromeno[4,3-b][1,4]oxazin-9-yl]oxy]butyl]-1,3-benzothiazole-2-carboxamide

> <PUBCHEM_IUPAC_CAS_NAME>
N-[4-[[(4aR,10bR)-4-propyl-3,4a,5,10b-tetrahydro-2H-[1]benzopyrano[4,3-b][1,4]oxazin-9-yl]oxy]butyl]-1,3-benzothiazole-2-carboxamide

> <PUBCHEM_IUPAC_NAME_MARKUP>
<I>N</I>-[4-[[(4<I>a</I><I>R</I>,10<I>b</I><I>R</I>)-4-propyl-3,4<I>a</I>,5,10<I>b</I>-tetrahydro-2<I>H</I>-chromeno[4,3-b][1,4]oxazin-9-yl]oxy]butyl]-1,3-benzothiazole-2-carboxamide

> <PUBCHEM_IUPAC_NAME>
N-[4-[[(4aR,10bR)-4-propyl-3,4a,5,10b-tetrahydro-2H-chromeno[4,3-b][1,4]oxazin-9-yl]oxy]butyl]-1,3-benzothiazole-2-carboxamide

> <PUBCHEM_IUPAC_SYSTEMATIC_NAME>
N-[4-[[(4aR,10bR)-4-propyl-3,4a,5,10b-tetrahydro-2H-chromeno[4,3-b][1,4]oxazin-9-yl]oxy]butyl]-1,3-benzothiazole-2-carboxamide

> <PUBCHEM_IUPAC_TRADITIONAL_NAME>
N-[4-[[(4aR,10bR)-4-propyl-3,4a,5,10b-tetrahydro-2H-chromeno[4,3-b][1,4]oxazin-9-yl]oxy]butyl]-1,3-benzothiazole-2-carboxamide

> <PUBCHEM_IUPAC_INCHI>
InChI=1S/C26H31N3O4S/c1-2-12-29-13-15-32-24-19-16-18(9-10-22(19)33-17-21(24)29)31-14-6-5-11-27-25(30)26-28-20-7-3-4-8-23(20)34-26/h3-4,7-10,16,21,24H,2,5-6,11-15,17H2,1H3,(H,27,30)/t21-,24-/m1/s1

> <PUBCHEM_IUPAC_INCHIKEY>
WYHZBLQNTZAKGM-ZJSXRUAMSA-N

> <PUBCHEM_XLOGP3>
4.8

> <PUBCHEM_EXACT_MASS>
481.20352765

> <PUBCHEM_MOLECULAR_FORMULA>
C26H31N3O4S

> <PUBCHEM_MOLECULAR_WEIGHT>
481.6

> <PUBCHEM_OPENEYE_CAN_SMILES>
CCCN1CCOC2C1COC3=C2C=C(C=C3)OCCCCNC(=O)C4=NC5=CC=CC=C5S4

> <PUBCHEM_OPENEYE_ISO_SMILES>
CCCN1CCO[C@H]2[C@H]1COC3=C2C=C(C=C3)OCCCCNC(=O)C4=NC5=CC=CC=C5S4

> <PUBCHEM_CACTVS_TPSA>
101

> <PUBCHEM_MONOISOTOPIC_WEIGHT>
481.20352765

> <PUBCHEM_TOTAL_CHARGE>
0

> <PUBCHEM_HEAVY_ATOM_COUNT>
34

> <PUBCHEM_ATOM_DEF_STEREO_COUNT>
2

> <PUBCHEM_ATOM_UDEF_STEREO_COUNT>
0

> <PUBCHEM_BOND_DEF_STEREO_COUNT>
0

> <PUBCHEM_BOND_UDEF_STEREO_COUNT>
0

> <PUBCHEM_ISOTOPIC_ATOM_COUNT>
0

> <PUBCHEM_COMPONENT_COUNT>
1

> <PUBCHEM_CACTVS_TAUTO_COUNT>
-1

> <PUBCHEM_COORDINATE_TYPE>
1
5
255

> <PUBCHEM_BONDANNOTATIONS>
1  28  8
1  29  8
10  36  5
13  16  8
13  18  8
16  19  8
18  20  8
19  21  8
20  21  8
29  30  8
29  31  8
30  32  8
31  33  8
32  34  8
33  34  8
8  28  8
8  30  8
9  35  6

$$$$
