24805674
  -OEChem-09292322302D

 59 62  0     0  0  0  0  0  0999 V2000
   12.4603    1.5600    0.0000 O   0  0  0  0  0  0  0  0  0  0  0  0
   10.7282   -1.4400    0.0000 N   0  0  0  0  0  0  0  0  0  0  0  0
   12.4603   -0.4400    0.0000 N   0  0  0  0  0  0  0  0  0  0  0  0
    6.3981   -1.9400    0.0000 N   0  0  0  0  0  0  0  0  0  0  0  0
    4.6660   -1.9400    0.0000 N   0  0  0  0  0  0  0  0  0  0  0  0
   11.5942   -1.9400    0.0000 C   0  0  0  0  0  0  0  0  0  0  0  0
   10.7282   -0.4400    0.0000 C   0  0  0  0  0  0  0  0  0  0  0  0
   12.4603   -1.4400    0.0000 C   0  0  0  0  0  0  0  0  0  0  0  0
   11.5942    0.0600    0.0000 C   0  0  0  0  0  0  0  0  0  0  0  0
    9.8622   -1.9400    0.0000 C   0  0  0  0  0  0  0  0  0  0  0  0
    8.9962   -1.4400    0.0000 C   0  0  0  0  0  0  0  0  0  0  0  0
   13.3263    0.0600    0.0000 C   0  0  0  0  0  0  0  0  0  0  0  0
    8.1301   -1.9400    0.0000 C   0  0  0  0  0  0  0  0  0  0  0  0
    7.2641   -1.4400    0.0000 C   0  0  0  0  0  0  0  0  0  0  0  0
   13.3263    1.0600    0.0000 C   0  0  0  0  0  0  0  0  0  0  0  0
   14.1923   -0.4400    0.0000 C   0  0  0  0  0  0  0  0  0  0  0  0
   14.1923    1.5600    0.0000 C   0  0  0  0  0  0  0  0  0  0  0  0
   15.0583    0.0600    0.0000 C   0  0  0  0  0  0  0  0  0  0  0  0
   15.0583    1.0600    0.0000 C   0  0  0  0  0  0  0  0  0  0  0  0
    5.5321   -1.4400    0.0000 C   0  0  0  0  0  0  0  0  0  0  0  0
    5.5321   -0.4400    0.0000 C   0  0  0  0  0  0  0  0  0  0  0  0
   12.4603    2.5600    0.0000 C   0  0  0  0  0  0  0  0  0  0  0  0
    3.8000   -1.4400    0.0000 C   0  0  0  0  0  0  0  0  0  0  0  0
    3.8000   -0.4400    0.0000 C   0  0  0  0  0  0  0  0  0  0  0  0
    4.6660    0.0600    0.0000 C   0  0  0  0  0  0  0  0  0  0  0  0
    2.9061   -1.9747    0.0000 C   0  0  0  0  0  0  0  0  0  0  0  0
    2.9061    0.0947    0.0000 C   0  0  0  0  0  0  0  0  0  0  0  0
    2.0000   -1.4608    0.0000 C   0  0  0  0  0  0  0  0  0  0  0  0
    2.0000   -0.4192    0.0000 C   0  0  0  0  0  0  0  0  0  0  0  0
   11.1957   -2.4150    0.0000 H   0  0  0  0  0  0  0  0  0  0  0  0
   11.9928   -2.4150    0.0000 H   0  0  0  0  0  0  0  0  0  0  0  0
   10.5162    0.1426    0.0000 H   0  0  0  0  0  0  0  0  0  0  0  0
   10.1176   -0.5477    0.0000 H   0  0  0  0  0  0  0  0  0  0  0  0
   12.6723   -2.0226    0.0000 H   0  0  0  0  0  0  0  0  0  0  0  0
   13.0708   -1.3323    0.0000 H   0  0  0  0  0  0  0  0  0  0  0  0
   11.9928    0.5349    0.0000 H   0  0  0  0  0  0  0  0  0  0  0  0
   11.1957    0.5349    0.0000 H   0  0  0  0  0  0  0  0  0  0  0  0
    9.4637   -2.4150    0.0000 H   0  0  0  0  0  0  0  0  0  0  0  0
   10.2607   -2.4150    0.0000 H   0  0  0  0  0  0  0  0  0  0  0  0
    9.3947   -0.9651    0.0000 H   0  0  0  0  0  0  0  0  0  0  0  0
    8.5976   -0.9651    0.0000 H   0  0  0  0  0  0  0  0  0  0  0  0
    7.7316   -2.4150    0.0000 H   0  0  0  0  0  0  0  0  0  0  0  0
    8.5287   -2.4150    0.0000 H   0  0  0  0  0  0  0  0  0  0  0  0
    7.6626   -0.9651    0.0000 H   0  0  0  0  0  0  0  0  0  0  0  0
    6.8656   -0.9651    0.0000 H   0  0  0  0  0  0  0  0  0  0  0  0
   14.1923   -1.0600    0.0000 H   0  0  0  0  0  0  0  0  0  0  0  0
    6.3981   -2.5600    0.0000 H   0  0  0  0  0  0  0  0  0  0  0  0
   14.1923    2.1800    0.0000 H   0  0  0  0  0  0  0  0  0  0  0  0
   15.5953   -0.2500    0.0000 H   0  0  0  0  0  0  0  0  0  0  0  0
   15.5953    1.3700    0.0000 H   0  0  0  0  0  0  0  0  0  0  0  0
    6.0690   -0.1300    0.0000 H   0  0  0  0  0  0  0  0  0  0  0  0
   13.0803    2.5600    0.0000 H   0  0  0  0  0  0  0  0  0  0  0  0
   12.4603    3.1800    0.0000 H   0  0  0  0  0  0  0  0  0  0  0  0
   11.8403    2.5600    0.0000 H   0  0  0  0  0  0  0  0  0  0  0  0
    4.6660    0.6800    0.0000 H   0  0  0  0  0  0  0  0  0  0  0  0
    2.9132   -2.5946    0.0000 H   0  0  0  0  0  0  0  0  0  0  0  0
    2.9132    0.7146    0.0000 H   0  0  0  0  0  0  0  0  0  0  0  0
    1.4643   -1.7729    0.0000 H   0  0  0  0  0  0  0  0  0  0  0  0
    1.4643   -0.1071    0.0000 H   0  0  0  0  0  0  0  0  0  0  0  0
  1 15  1  0  0  0  0
  1 22  1  0  0  0  0
  2  6  1  0  0  0  0
  2  7  1  0  0  0  0
  2 10  1  0  0  0  0
  3  8  1  0  0  0  0
  3  9  1  0  0  0  0
  3 12  1  0  0  0  0
  4 14  1  0  0  0  0
  4 20  1  0  0  0  0
  4 47  1  0  0  0  0
  5 20  2  0  0  0  0
  5 23  1  0  0  0  0
  6  8  1  0  0  0  0
  6 30  1  0  0  0  0
  6 31  1  0  0  0  0
  7  9  1  0  0  0  0
  7 32  1  0  0  0  0
  7 33  1  0  0  0  0
  8 34  1  0  0  0  0
  8 35  1  0  0  0  0
  9 36  1  0  0  0  0
  9 37  1  0  0  0  0
 10 11  1  0  0  0  0
 10 38  1  0  0  0  0
 10 39  1  0  0  0  0
 11 13  1  0  0  0  0
 11 40  1  0  0  0  0
 11 41  1  0  0  0  0
 12 15  1  0  0  0  0
 12 16  2  0  0  0  0
 13 14  1  0  0  0  0
 13 42  1  0  0  0  0
 13 43  1  0  0  0  0
 14 44  1  0  0  0  0
 14 45  1  0  0  0  0
 15 17  2  0  0  0  0
 16 18  1  0  0  0  0
 16 46  1  0  0  0  0
 17 19  1  0  0  0  0
 17 48  1  0  0  0  0
 18 19  2  0  0  0  0
 18 49  1  0  0  0  0
 19 50  1  0  0  0  0
 20 21  1  0  0  0  0
 21 25  2  0  0  0  0
 21 51  1  0  0  0  0
 22 52  1  0  0  0  0
 22 53  1  0  0  0  0
 22 54  1  0  0  0  0
 23 24  1  0  0  0  0
 23 26  2  0  0  0  0
 24 25  1  0  0  0  0
 24 27  2  0  0  0  0
 25 55  1  0  0  0  0
 26 28  1  0  0  0  0
 26 56  1  0  0  0  0
 27 29  1  0  0  0  0
 27 57  1  0  0  0  0
 28 29  2  0  0  0  0
 28 58  1  0  0  0  0
 29 59  1  0  0  0  0
M  END
> <PUBCHEM_COMPOUND_CID>
24805674

> <PUBCHEM_COMPOUND_CANONICALIZED>
1

> <PUBCHEM_CACTVS_COMPLEXITY>
468

> <PUBCHEM_CACTVS_HBOND_ACCEPTOR>
5

> <PUBCHEM_CACTVS_HBOND_DONOR>
1

> <PUBCHEM_CACTVS_ROTATABLE_BOND>
8

> <PUBCHEM_CACTVS_SUBSKEYS>
AAADceB7oAAAAAAAAAAAAAAAAAAAAAAAAAA8eIEAAAAAAACx9AAAHgAQAAAADAzBngYz9vPIFACgAyZiZACCiCkhIiAJmKA/bJiOZuLEuZuVMChs0BPY6CeQwIAOAAAAAAACEAAAAAAAAAQgAAAAAAAAAA==

> <PUBCHEM_IUPAC_OPENEYE_NAME>
N-[4-[4-(2-methoxyphenyl)piperazin-1-yl]butyl]quinolin-2-amine

> <PUBCHEM_IUPAC_CAS_NAME>
N-[4-[4-(2-methoxyphenyl)-1-piperazinyl]butyl]-2-quinolinamine

> <PUBCHEM_IUPAC_NAME_MARKUP>
<I>N</I>-[4-[4-(2-methoxyphenyl)piperazin-1-yl]butyl]quinolin-2-amine

> <PUBCHEM_IUPAC_NAME>
N-[4-[4-(2-methoxyphenyl)piperazin-1-yl]butyl]quinolin-2-amine

> <PUBCHEM_IUPAC_SYSTEMATIC_NAME>
N-[4-[4-(2-methoxyphenyl)piperazin-1-yl]butyl]quinolin-2-amine

> <PUBCHEM_IUPAC_TRADITIONAL_NAME>
4-[4-(2-methoxyphenyl)piperazino]butyl-(2-quinolyl)amine

> <PUBCHEM_IUPAC_INCHI>
InChI=1S/C24H30N4O/c1-29-23-11-5-4-10-22(23)28-18-16-27(17-19-28)15-7-6-14-25-24-13-12-20-8-2-3-9-21(20)26-24/h2-5,8-13H,6-7,14-19H2,1H3,(H,25,26)

> <PUBCHEM_IUPAC_INCHIKEY>
SVLOMAHKFFJJIC-UHFFFAOYSA-N

> <PUBCHEM_XLOGP3_AA>
4.8

> <PUBCHEM_EXACT_MASS>
390.24196159

> <PUBCHEM_MOLECULAR_FORMULA>
C24H30N4O

> <PUBCHEM_MOLECULAR_WEIGHT>
390.5

> <PUBCHEM_OPENEYE_CAN_SMILES>
COC1=CC=CC=C1N2CCN(CC2)CCCCNC3=NC4=CC=CC=C4C=C3

> <PUBCHEM_OPENEYE_ISO_SMILES>
COC1=CC=CC=C1N2CCN(CC2)CCCCNC3=NC4=CC=CC=C4C=C3

> <PUBCHEM_CACTVS_TPSA>
40.6

> <PUBCHEM_MONOISOTOPIC_WEIGHT>
390.24196159

> <PUBCHEM_TOTAL_CHARGE>
0

> <PUBCHEM_HEAVY_ATOM_COUNT>
29

> <PUBCHEM_ATOM_DEF_STEREO_COUNT>
0

> <PUBCHEM_ATOM_UDEF_STEREO_COUNT>
0

> <PUBCHEM_BOND_DEF_STEREO_COUNT>
0

> <PUBCHEM_BOND_UDEF_STEREO_COUNT>
0

> <PUBCHEM_ISOTOPIC_ATOM_COUNT>
0

> <PUBCHEM_COMPONENT_COUNT>
1

> <PUBCHEM_CACTVS_TAUTO_COUNT>
-1

> <PUBCHEM_COORDINATE_TYPE>
1
5
255

> <PUBCHEM_BONDANNOTATIONS>
12  15  8
12  16  8
15  17  8
16  18  8
17  19  8
18  19  8
20  21  8
21  25  8
23  24  8
23  26  8
24  25  8
24  27  8
26  28  8
27  29  8
28  29  8
5  20  8
5  23  8

$$$$
