44447018
  -OEChem-09292322262D

 68 73  0     1  0  0  0  0  0999 V2000
    3.7899    2.0604    0.0000 S   0  0  0  0  0  0  0  0  0  0  0  0
   14.6962   -0.4203    0.0000 O   0  0  0  0  0  0  0  0  0  0  0  0
    7.4629   -0.6375    0.0000 N   0  0  0  0  0  0  0  0  0  0  0  0
    5.7308    0.3625    0.0000 N   0  0  0  0  0  0  0  0  0  0  0  0
   13.0499    0.1178    0.0000 N   0  0  0  0  0  0  0  0  0  0  0  0
    4.7617    1.8512    0.0000 N   0  0  0  0  0  0  0  0  0  0  0  0
   12.7392   -0.8327    0.0000 C   0  0  3  0  0  0  0  0  0  0  0  0
   13.3228   -1.6375    0.0000 C   0  0  0  0  0  0  0  0  0  0  0  0
   11.7930   -1.1375    0.0000 C   0  0  0  0  0  0  0  0  0  0  0  0
   12.7392   -2.4422    0.0000 C   0  0  0  0  0  0  0  0  0  0  0  0
   11.7930   -2.1375    0.0000 C   0  0  0  0  0  0  0  0  0  0  0  0
    8.3289   -1.1375    0.0000 C   0  0  0  0  0  0  0  0  0  0  0  0
    6.5968   -1.1375    0.0000 C   0  0  0  0  0  0  0  0  0  0  0  0
    7.4629    0.3625    0.0000 C   0  0  0  0  0  0  0  0  0  0  0  0
    9.1949   -0.6375    0.0000 C   0  0  0  0  0  0  0  0  0  0  0  0
    5.7308   -0.6375    0.0000 C   0  0  0  0  0  0  0  0  0  0  0  0
    6.5968    0.8625    0.0000 C   0  0  0  0  0  0  0  0  0  0  0  0
   10.0610   -1.1375    0.0000 C   0  0  0  0  0  0  0  0  0  0  0  0
   10.9270   -0.6375    0.0000 C   0  0  0  0  0  0  0  0  0  0  0  0
   10.9270   -2.6375    0.0000 C   0  0  0  0  0  0  0  0  0  0  0  0
   10.0610   -2.1375    0.0000 C   0  0  0  0  0  0  0  0  0  0  0  0
    4.8648    0.8625    0.0000 C   0  0  0  0  0  0  0  0  0  0  0  0
   14.0284    0.3240    0.0000 C   0  0  0  0  0  0  0  0  0  0  0  0
    3.9570    0.4574    0.0000 C   0  0  0  0  0  0  0  0  0  0  0  0
   14.3391    1.2745    0.0000 C   0  0  0  0  0  0  0  0  0  0  0  0
    3.2892    1.2017    0.0000 C   0  0  0  0  0  0  0  0  0  0  0  0
    3.6464   -0.4931    0.0000 C   0  0  0  0  0  0  0  0  0  0  0  0
   15.3176    1.4807    0.0000 C   0  0  0  0  0  0  0  0  0  0  0  0
    2.3107    0.9955    0.0000 C   0  0  0  0  0  0  0  0  0  0  0  0
    2.6678   -0.6993    0.0000 C   0  0  0  0  0  0  0  0  0  0  0  0
    2.0000    0.0450    0.0000 C   0  0  0  0  0  0  0  0  0  0  0  0
   15.9854    0.7364    0.0000 C   0  0  0  0  0  0  0  0  0  0  0  0
   15.6282    2.4313    0.0000 C   0  0  0  0  0  0  0  0  0  0  0  0
   16.9639    0.9427    0.0000 C   0  0  0  0  0  0  0  0  0  0  0  0
   16.6067    2.6375    0.0000 C   0  0  0  0  0  0  0  0  0  0  0  0
   17.2746    1.8932    0.0000 C   0  0  0  0  0  0  0  0  0  0  0  0
   13.3517   -0.7365    0.0000 H   0  0  0  0  0  0  0  0  0  0  0  0
   13.7837   -2.0522    0.0000 H   0  0  0  0  0  0  0  0  0  0  0  0
   13.7837   -1.2228    0.0000 H   0  0  0  0  0  0  0  0  0  0  0  0
   12.4882   -3.0091    0.0000 H   0  0  0  0  0  0  0  0  0  0  0  0
   13.2766   -2.7514    0.0000 H   0  0  0  0  0  0  0  0  0  0  0  0
    7.9304   -1.6124    0.0000 H   0  0  0  0  0  0  0  0  0  0  0  0
    8.7274   -1.6124    0.0000 H   0  0  0  0  0  0  0  0  0  0  0  0
    6.1983   -1.6124    0.0000 H   0  0  0  0  0  0  0  0  0  0  0  0
    6.9954   -1.6124    0.0000 H   0  0  0  0  0  0  0  0  0  0  0  0
    8.0734    0.2549    0.0000 H   0  0  0  0  0  0  0  0  0  0  0  0
    7.6749    0.9451    0.0000 H   0  0  0  0  0  0  0  0  0  0  0  0
    9.5934   -0.1625    0.0000 H   0  0  0  0  0  0  0  0  0  0  0  0
    8.7964   -0.1625    0.0000 H   0  0  0  0  0  0  0  0  0  0  0  0
    5.1202   -0.5298    0.0000 H   0  0  0  0  0  0  0  0  0  0  0  0
    5.5188   -1.2201    0.0000 H   0  0  0  0  0  0  0  0  0  0  0  0
    6.9954    1.3375    0.0000 H   0  0  0  0  0  0  0  0  0  0  0  0
    6.1983    1.3375    0.0000 H   0  0  0  0  0  0  0  0  0  0  0  0
   10.9270   -0.0175    0.0000 H   0  0  0  0  0  0  0  0  0  0  0  0
   10.9270   -3.2575    0.0000 H   0  0  0  0  0  0  0  0  0  0  0  0
   12.6358    0.5792    0.0000 H   0  0  0  0  0  0  0  0  0  0  0  0
    9.5240   -2.4475    0.0000 H   0  0  0  0  0  0  0  0  0  0  0  0
   14.3185    1.8942    0.0000 H   0  0  0  0  0  0  0  0  0  0  0  0
   13.7252    1.3619    0.0000 H   0  0  0  0  0  0  0  0  0  0  0  0
    4.0604   -0.9546    0.0000 H   0  0  0  0  0  0  0  0  0  0  0  0
    1.8966    1.4570    0.0000 H   0  0  0  0  0  0  0  0  0  0  0  0
    2.4752   -1.2886    0.0000 H   0  0  0  0  0  0  0  0  0  0  0  0
    1.3933   -0.0829    0.0000 H   0  0  0  0  0  0  0  0  0  0  0  0
   15.7928    0.1471    0.0000 H   0  0  0  0  0  0  0  0  0  0  0  0
   15.2142    2.8927    0.0000 H   0  0  0  0  0  0  0  0  0  0  0  0
   17.3780    0.4812    0.0000 H   0  0  0  0  0  0  0  0  0  0  0  0
   16.7993    3.2268    0.0000 H   0  0  0  0  0  0  0  0  0  0  0  0
   17.8812    2.0210    0.0000 H   0  0  0  0  0  0  0  0  0  0  0  0
  1  6  1  0  0  0  0
  1 26  1  0  0  0  0
  2 23  2  0  0  0  0
  3 12  1  0  0  0  0
  3 13  1  0  0  0  0
  3 14  1  0  0  0  0
  4 16  1  0  0  0  0
  4 17  1  0  0  0  0
  4 22  1  0  0  0  0
  5  7  1  0  0  0  0
  5 23  1  0  0  0  0
  5 56  1  0  0  0  0
  6 22  2  0  0  0  0
  7  8  1  0  0  0  0
  7  9  1  0  0  0  0
  7 37  1  0  0  0  0
  8 10  1  0  0  0  0
  8 38  1  0  0  0  0
  8 39  1  0  0  0  0
  9 11  2  0  0  0  0
  9 19  1  0  0  0  0
 10 11  1  0  0  0  0
 10 40  1  0  0  0  0
 10 41  1  0  0  0  0
 11 20  1  0  0  0  0
 12 15  1  0  0  0  0
 12 42  1  0  0  0  0
 12 43  1  0  0  0  0
 13 16  1  0  0  0  0
 13 44  1  0  0  0  0
 13 45  1  0  0  0  0
 14 17  1  0  0  0  0
 14 46  1  0  0  0  0
 14 47  1  0  0  0  0
 15 18  1  0  0  0  0
 15 48  1  0  0  0  0
 15 49  1  0  0  0  0
 16 50  1  0  0  0  0
 16 51  1  0  0  0  0
 17 52  1  0  0  0  0
 17 53  1  0  0  0  0
 18 19  2  0  0  0  0
 18 21  1  0  0  0  0
 19 54  1  0  0  0  0
 20 21  2  0  0  0  0
 20 55  1  0  0  0  0
 21 57  1  0  0  0  0
 22 24  1  0  0  0  0
 23 25  1  0  0  0  0
 24 26  1  0  0  0  0
 24 27  2  0  0  0  0
 25 28  1  0  0  0  0
 25 58  1  0  0  0  0
 25 59  1  0  0  0  0
 26 29  2  0  0  0  0
 27 30  1  0  0  0  0
 27 60  1  0  0  0  0
 28 32  2  0  0  0  0
 28 33  1  0  0  0  0
 29 31  1  0  0  0  0
 29 61  1  0  0  0  0
 30 31  2  0  0  0  0
 30 62  1  0  0  0  0
 31 63  1  0  0  0  0
 32 34  1  0  0  0  0
 32 64  1  0  0  0  0
 33 35  2  0  0  0  0
 33 65  1  0  0  0  0
 34 36  2  0  0  0  0
 34 66  1  0  0  0  0
 35 36  1  0  0  0  0
 35 67  1  0  0  0  0
 36 68  1  0  0  0  0
M  END
> <PUBCHEM_COMPOUND_CID>
44447018

> <PUBCHEM_COMPOUND_CANONICALIZED>
1

> <PUBCHEM_CACTVS_COMPLEXITY>
722

> <PUBCHEM_CACTVS_HBOND_ACCEPTOR>
5

> <PUBCHEM_CACTVS_HBOND_DONOR>
1

> <PUBCHEM_CACTVS_ROTATABLE_BOND>
7

> <PUBCHEM_CACTVS_SUBSKEYS>
AAADcfB7oABAAAAAAAAAAAAAAAAAAeIAAAA8YMEAAAAAAHgB9AAAHgQQQAAADCjB2gQxsdPAAACsAiNycACDABAhAABJmLkoRJiIYLLAnZGUIAxglgLIyAcYiMCOwAACAAAUAACAAAQAACgAACAACQAAAA==

> <PUBCHEM_IUPAC_OPENEYE_NAME>
N-[6-[2-[4-(1,2-benzothiazol-3-yl)piperazin-1-yl]ethyl]indan-1-yl]-2-phenyl-acetamide

> <PUBCHEM_IUPAC_CAS_NAME>
N-[6-[2-[4-(1,2-benzothiazol-3-yl)-1-piperazinyl]ethyl]-2,3-dihydro-1H-inden-1-yl]-2-phenylacetamide

> <PUBCHEM_IUPAC_NAME_MARKUP>
<I>N</I>-[6-[2-[4-(1,2-benzothiazol-3-yl)piperazin-1-yl]ethyl]-2,3-dihydro-1<I>H</I>-inden-1-yl]-2-phenylacetamide

> <PUBCHEM_IUPAC_NAME>
N-[6-[2-[4-(1,2-benzothiazol-3-yl)piperazin-1-yl]ethyl]-2,3-dihydro-1H-inden-1-yl]-2-phenylacetamide

> <PUBCHEM_IUPAC_SYSTEMATIC_NAME>
N-[6-[2-[4-(1,2-benzothiazol-3-yl)piperazin-1-yl]ethyl]-2,3-dihydro-1H-inden-1-yl]-2-phenyl-ethanamide

> <PUBCHEM_IUPAC_TRADITIONAL_NAME>
N-[6-[2-[4-(1,2-benzothiazol-3-yl)piperazino]ethyl]indan-1-yl]-2-phenyl-acetamide

> <PUBCHEM_IUPAC_INCHI>
InChI=1S/C30H32N4OS/c35-29(21-22-6-2-1-3-7-22)31-27-13-12-24-11-10-23(20-26(24)27)14-15-33-16-18-34(19-17-33)30-25-8-4-5-9-28(25)36-32-30/h1-11,20,27H,12-19,21H2,(H,31,35)

> <PUBCHEM_IUPAC_INCHIKEY>
AKTHZRZKYPJJRC-UHFFFAOYSA-N

> <PUBCHEM_XLOGP3_AA>
5.7

> <PUBCHEM_EXACT_MASS>
496.22968283

> <PUBCHEM_MOLECULAR_FORMULA>
C30H32N4OS

> <PUBCHEM_MOLECULAR_WEIGHT>
496.7

> <PUBCHEM_OPENEYE_CAN_SMILES>
C1CC2=C(C1NC(=O)CC3=CC=CC=C3)C=C(C=C2)CCN4CCN(CC4)C5=NSC6=CC=CC=C65

> <PUBCHEM_OPENEYE_ISO_SMILES>
C1CC2=C(C1NC(=O)CC3=CC=CC=C3)C=C(C=C2)CCN4CCN(CC4)C5=NSC6=CC=CC=C65

> <PUBCHEM_CACTVS_TPSA>
76.7

> <PUBCHEM_MONOISOTOPIC_WEIGHT>
496.22968283

> <PUBCHEM_TOTAL_CHARGE>
0

> <PUBCHEM_HEAVY_ATOM_COUNT>
36

> <PUBCHEM_ATOM_DEF_STEREO_COUNT>
0

> <PUBCHEM_ATOM_UDEF_STEREO_COUNT>
1

> <PUBCHEM_BOND_DEF_STEREO_COUNT>
0

> <PUBCHEM_BOND_UDEF_STEREO_COUNT>
0

> <PUBCHEM_ISOTOPIC_ATOM_COUNT>
0

> <PUBCHEM_COMPONENT_COUNT>
1

> <PUBCHEM_CACTVS_TAUTO_COUNT>
-1

> <PUBCHEM_COORDINATE_TYPE>
1
5
255

> <PUBCHEM_BONDANNOTATIONS>
1  26  8
1  6  8
11  20  8
18  19  8
18  21  8
20  21  8
22  24  8
24  26  8
24  27  8
26  29  8
27  30  8
28  32  8
28  33  8
29  31  8
30  31  8
32  34  8
33  35  8
34  36  8
35  36  8
7  5  3
6  22  8
9  11  8
9  19  8

$$$$
