44425703
  -OEChem-09292322242D

 53 56  0     1  0  0  0  0  0999 V2000
    8.7227    1.4283    0.0000 S   0  0  0  0  0  0  0  0  0  0  0  0
    9.2194    2.2962    0.0000 O   0  0  0  0  0  0  0  0  0  0  0  0
    8.2260    0.5604    0.0000 O   0  0  0  0  0  0  0  0  0  0  0  0
    3.0000    0.9008    0.0000 N   0  0  3  0  0  0  0  0  0  0  0  0
    7.8547    1.9250    0.0000 N   0  0  0  0  0  0  0  0  0  0  0  0
   15.6663   -2.5450    0.0000 N   0  0  0  0  0  0  0  0  0  0  0  0
    4.4088    2.0243    0.0000 C   0  0  0  0  0  0  0  0  0  0  0  0
    4.4088   -0.2227    0.0000 C   0  0  0  0  0  0  0  0  0  0  0  0
    3.4339    1.8018    0.0000 C   0  0  0  0  0  0  0  0  0  0  0  0
    3.4339   -0.0002    0.0000 C   0  0  0  0  0  0  0  0  0  0  0  0
    5.1906    1.4008    0.0000 C   0  0  0  0  0  0  0  0  0  0  0  0
    5.1906    0.4008    0.0000 C   0  0  0  0  0  0  0  0  0  0  0  0
    6.0846    1.9355    0.0000 C   0  0  0  0  0  0  0  0  0  0  0  0
    6.0846   -0.1338    0.0000 C   0  0  0  0  0  0  0  0  0  0  0  0
    6.9906    1.4216    0.0000 C   0  0  0  0  0  0  0  0  0  0  0  0
    2.0000    0.9008    0.0000 C   0  0  0  0  0  0  0  0  0  0  0  0
    6.9906    0.3800    0.0000 C   0  0  0  0  0  0  0  0  0  0  0  0
    9.5906    0.9316    0.0000 C   0  0  0  0  0  0  0  0  0  0  0  0
   10.4547    1.4350    0.0000 C   0  0  0  0  0  0  0  0  0  0  0  0
    9.5945   -0.0683    0.0000 C   0  0  0  0  0  0  0  0  0  0  0  0
   11.3265   -0.0617    0.0000 C   0  0  0  0  0  0  0  0  0  0  0  0
   11.3227    0.9383    0.0000 C   0  0  0  0  0  0  0  0  0  0  0  0
   10.4624   -0.5650    0.0000 C   0  0  0  0  0  0  0  0  0  0  0  0
   12.1945   -0.5583    0.0000 C   0  0  0  0  0  0  0  0  0  0  0  0
   13.0586   -0.0550    0.0000 C   0  0  0  0  0  0  0  0  0  0  0  0
   12.1983   -1.5583    0.0000 C   0  0  0  0  0  0  0  0  0  0  0  0
   13.9265   -0.5517    0.0000 C   0  0  0  0  0  0  0  0  0  0  0  0
   13.0663   -2.0550    0.0000 C   0  0  0  0  0  0  0  0  0  0  0  0
   13.9304   -1.5516    0.0000 C   0  0  0  0  0  0  0  0  0  0  0  0
   14.7983   -2.0483    0.0000 C   0  0  0  0  0  0  0  0  0  0  0  0
    4.8936    2.4109    0.0000 H   0  0  0  0  0  0  0  0  0  0  0  0
    4.1398    2.5829    0.0000 H   0  0  0  0  0  0  0  0  0  0  0  0
    4.1398   -0.7813    0.0000 H   0  0  0  0  0  0  0  0  0  0  0  0
    4.8936   -0.6092    0.0000 H   0  0  0  0  0  0  0  0  0  0  0  0
    3.4339    2.4218    0.0000 H   0  0  0  0  0  0  0  0  0  0  0  0
    2.8294    1.9398    0.0000 H   0  0  0  0  0  0  0  0  0  0  0  0
    2.8294   -0.1381    0.0000 H   0  0  0  0  0  0  0  0  0  0  0  0
    3.4339   -0.6202    0.0000 H   0  0  0  0  0  0  0  0  0  0  0  0
    6.0774    2.5554    0.0000 H   0  0  0  0  0  0  0  0  0  0  0  0
    6.0774   -0.7538    0.0000 H   0  0  0  0  0  0  0  0  0  0  0  0
    2.0000    1.5208    0.0000 H   0  0  0  0  0  0  0  0  0  0  0  0
    1.3800    0.9008    0.0000 H   0  0  0  0  0  0  0  0  0  0  0  0
    2.0000    0.2808    0.0000 H   0  0  0  0  0  0  0  0  0  0  0  0
    7.5264    0.0679    0.0000 H   0  0  0  0  0  0  0  0  0  0  0  0
    7.8524    2.5450    0.0000 H   0  0  0  0  0  0  0  0  0  0  0  0
   10.4523    2.0550    0.0000 H   0  0  0  0  0  0  0  0  0  0  0  0
    9.0588   -0.3804    0.0000 H   0  0  0  0  0  0  0  0  0  0  0  0
   11.8584    1.2504    0.0000 H   0  0  0  0  0  0  0  0  0  0  0  0
   10.4648   -1.1850    0.0000 H   0  0  0  0  0  0  0  0  0  0  0  0
   13.0562    0.5650    0.0000 H   0  0  0  0  0  0  0  0  0  0  0  0
   11.6626   -1.8704    0.0000 H   0  0  0  0  0  0  0  0  0  0  0  0
   14.4622   -0.2396    0.0000 H   0  0  0  0  0  0  0  0  0  0  0  0
   13.0687   -2.6750    0.0000 H   0  0  0  0  0  0  0  0  0  0  0  0
  1  2  2  0  0  0  0
  1  3  2  0  0  0  0
  1  5  1  0  0  0  0
  1 18  1  0  0  0  0
  4  9  1  0  0  0  0
  4 10  1  0  0  0  0
  4 16  1  0  0  0  0
  5 15  1  0  0  0  0
  5 45  1  0  0  0  0
  6 30  3  0  0  0  0
  7  9  1  0  0  0  0
  7 11  1  0  0  0  0
  7 31  1  0  0  0  0
  7 32  1  0  0  0  0
  8 10  1  0  0  0  0
  8 12  1  0  0  0  0
  8 33  1  0  0  0  0
  8 34  1  0  0  0  0
  9 35  1  0  0  0  0
  9 36  1  0  0  0  0
 10 37  1  0  0  0  0
 10 38  1  0  0  0  0
 11 12  2  0  0  0  0
 11 13  1  0  0  0  0
 12 14  1  0  0  0  0
 13 15  2  0  0  0  0
 13 39  1  0  0  0  0
 14 17  2  0  0  0  0
 14 40  1  0  0  0  0
 15 17  1  0  0  0  0
 16 41  1  0  0  0  0
 16 42  1  0  0  0  0
 16 43  1  0  0  0  0
 17 44  1  0  0  0  0
 18 19  2  0  0  0  0
 18 20  1  0  0  0  0
 19 22  1  0  0  0  0
 19 46  1  0  0  0  0
 20 23  2  0  0  0  0
 20 47  1  0  0  0  0
 21 22  2  0  0  0  0
 21 23  1  0  0  0  0
 21 24  1  0  0  0  0
 22 48  1  0  0  0  0
 23 49  1  0  0  0  0
 24 25  2  0  0  0  0
 24 26  1  0  0  0  0
 25 27  1  0  0  0  0
 25 50  1  0  0  0  0
 26 28  2  0  0  0  0
 26 51  1  0  0  0  0
 27 29  2  0  0  0  0
 27 52  1  0  0  0  0
 28 29  1  0  0  0  0
 28 53  1  0  0  0  0
 29 30  1  0  0  0  0
M  END
> <PUBCHEM_COMPOUND_CID>
44425703

> <PUBCHEM_COMPOUND_CANONICALIZED>
1

> <PUBCHEM_CACTVS_COMPLEXITY>
709

> <PUBCHEM_CACTVS_HBOND_ACCEPTOR>
5

> <PUBCHEM_CACTVS_HBOND_DONOR>
1

> <PUBCHEM_CACTVS_ROTATABLE_BOND>
4

> <PUBCHEM_CACTVS_SUBSKEYS>
AAADceB7MABAAAAAAAAAAAAAAAAAAAAAAAAwYMAABYAAAAABUAAAHAQQQAAADAjBWAQywYNAAAKQBiRCQHDiABAgAgAIiBgIZIgIoCKAkZGEIABgkACIyA8QgMAO2AAAQAAQAACwAACAACAAAAAAAAAAAA==

> <PUBCHEM_IUPAC_OPENEYE_NAME>
4-(4-cyanophenyl)-N-(3-methyl-1,2,4,5-tetrahydro-3-benzazepin-7-yl)benzenesulfonamide

> <PUBCHEM_IUPAC_CAS_NAME>
4-(4-cyanophenyl)-N-(3-methyl-1,2,4,5-tetrahydro-3-benzazepin-7-yl)benzenesulfonamide

> <PUBCHEM_IUPAC_NAME_MARKUP>
4-(4-cyanophenyl)-<I>N</I>-(3-methyl-1,2,4,5-tetrahydro-3-benzazepin-7-yl)benzenesulfonamide

> <PUBCHEM_IUPAC_NAME>
4-(4-cyanophenyl)-N-(3-methyl-1,2,4,5-tetrahydro-3-benzazepin-7-yl)benzenesulfonamide

> <PUBCHEM_IUPAC_SYSTEMATIC_NAME>
4-(4-cyanophenyl)-N-(3-methyl-1,2,4,5-tetrahydro-3-benzazepin-7-yl)benzenesulfonamide

> <PUBCHEM_IUPAC_TRADITIONAL_NAME>
4-(4-cyanophenyl)-N-(3-methyl-1,2,4,5-tetrahydro-3-benzazepin-7-yl)benzenesulfonamide

> <PUBCHEM_IUPAC_INCHI>
InChI=1S/C24H23N3O2S/c1-27-14-12-21-6-9-23(16-22(21)13-15-27)26-30(28,29)24-10-7-20(8-11-24)19-4-2-18(17-25)3-5-19/h2-11,16,26H,12-15H2,1H3

> <PUBCHEM_IUPAC_INCHIKEY>
VFOQAVYBDYGMOW-UHFFFAOYSA-N

> <PUBCHEM_XLOGP3_AA>
4.1

> <PUBCHEM_EXACT_MASS>
417.15109816

> <PUBCHEM_MOLECULAR_FORMULA>
C24H23N3O2S

> <PUBCHEM_MOLECULAR_WEIGHT>
417.5

> <PUBCHEM_OPENEYE_CAN_SMILES>
CN1CCC2=C(CC1)C=C(C=C2)NS(=O)(=O)C3=CC=C(C=C3)C4=CC=C(C=C4)C#N

> <PUBCHEM_OPENEYE_ISO_SMILES>
CN1CCC2=C(CC1)C=C(C=C2)NS(=O)(=O)C3=CC=C(C=C3)C4=CC=C(C=C4)C#N

> <PUBCHEM_CACTVS_TPSA>
81.6

> <PUBCHEM_MONOISOTOPIC_WEIGHT>
417.15109816

> <PUBCHEM_TOTAL_CHARGE>
0

> <PUBCHEM_HEAVY_ATOM_COUNT>
30

> <PUBCHEM_ATOM_DEF_STEREO_COUNT>
0

> <PUBCHEM_ATOM_UDEF_STEREO_COUNT>
0

> <PUBCHEM_BOND_DEF_STEREO_COUNT>
0

> <PUBCHEM_BOND_UDEF_STEREO_COUNT>
0

> <PUBCHEM_ISOTOPIC_ATOM_COUNT>
0

> <PUBCHEM_COMPONENT_COUNT>
1

> <PUBCHEM_CACTVS_TAUTO_COUNT>
-1

> <PUBCHEM_COORDINATE_TYPE>
1
5
255

> <PUBCHEM_BONDANNOTATIONS>
11  12  8
11  13  8
12  14  8
13  15  8
14  17  8
15  17  8
18  19  8
18  20  8
19  22  8
20  23  8
21  22  8
21  23  8
24  25  8
24  26  8
25  27  8
26  28  8
27  29  8
28  29  8

$$$$
