2337418
  -OEChem-09292322082D

 34 36  0     0  0  0  0  0  0999 V2000
    5.8961    1.5215    0.0000 S   0  0  0  0  0  0  0  0  0  0  0  0
    3.2737   -0.6163    0.0000 N   0  0  0  0  0  0  0  0  0  0  0  0
    2.8687    1.1069    0.0000 N   0  0  0  0  0  0  0  0  0  0  0  0
    4.2111    2.3063    0.0000 N   0  0  0  0  0  0  0  0  0  0  0  0
    5.3961   -0.0173    0.0000 C   0  0  0  0  0  0  0  0  0  0  0  0
    5.7057   -0.9619    0.0000 C   0  0  0  0  0  0  0  0  0  0  0  0
    6.6998   -0.9611    0.0000 C   0  0  0  0  0  0  0  0  0  0  0  0
    7.0078   -0.0159    0.0000 C   0  0  0  0  0  0  0  0  0  0  0  0
    6.2051    0.5705    0.0000 C   0  0  0  0  0  0  0  0  0  0  0  0
    4.5871    0.5705    0.0000 C   0  0  0  0  0  0  0  0  0  0  0  0
    3.5717    0.3382    0.0000 C   0  0  0  0  0  0  0  0  0  0  0  0
    4.8961    1.5215    0.0000 C   0  0  0  0  0  0  0  0  0  0  0  0
    2.2980   -0.8356    0.0000 C   0  0  0  0  0  0  0  0  0  0  0  0
    3.9514   -1.3517    0.0000 C   0  0  0  0  0  0  0  0  0  0  0  0
    3.1906    2.0976    0.0000 C   0  0  0  0  0  0  0  0  0  0  0  0
    2.0000   -1.7901    0.0000 C   0  0  0  0  0  0  0  0  0  0  0  0
    3.6534   -2.3063    0.0000 C   0  0  0  0  0  0  0  0  0  0  0  0
    5.0996   -1.0921    0.0000 H   0  0  0  0  0  0  0  0  0  0  0  0
    5.7714   -1.5784    0.0000 H   0  0  0  0  0  0  0  0  0  0  0  0
    6.6352   -1.5777    0.0000 H   0  0  0  0  0  0  0  0  0  0  0  0
    7.3062   -1.0902    0.0000 H   0  0  0  0  0  0  0  0  0  0  0  0
    7.5739   -0.2689    0.0000 H   0  0  0  0  0  0  0  0  0  0  0  0
    7.3189    0.5204    0.0000 H   0  0  0  0  0  0  0  0  0  0  0  0
    2.2692   -0.2162    0.0000 H   0  0  0  0  0  0  0  0  0  0  0  0
    1.6831   -0.7564    0.0000 H   0  0  0  0  0  0  0  0  0  0  0  0
    4.5021   -1.6364    0.0000 H   0  0  0  0  0  0  0  0  0  0  0  0
    4.3274   -0.8588    0.0000 H   0  0  0  0  0  0  0  0  0  0  0  0
    2.7775    2.5599    0.0000 H   0  0  0  0  0  0  0  0  0  0  0  0
    1.4082   -1.6054    0.0000 H   0  0  0  0  0  0  0  0  0  0  0  0
    1.8152   -2.3819    0.0000 H   0  0  0  0  0  0  0  0  0  0  0  0
    2.5918   -1.9749    0.0000 H   0  0  0  0  0  0  0  0  0  0  0  0
    3.0615   -2.1215    0.0000 H   0  0  0  0  0  0  0  0  0  0  0  0
    3.4686   -2.8981    0.0000 H   0  0  0  0  0  0  0  0  0  0  0  0
    4.2452   -2.4910    0.0000 H   0  0  0  0  0  0  0  0  0  0  0  0
  1  9  1  0  0  0  0
  1 12  1  0  0  0  0
  2 11  1  0  0  0  0
  2 13  1  0  0  0  0
  2 14  1  0  0  0  0
  3 11  1  0  0  0  0
  3 15  2  0  0  0  0
  4 12  2  0  0  0  0
  4 15  1  0  0  0  0
  5  6  1  0  0  0  0
  5  9  2  0  0  0  0
  5 10  1  0  0  0  0
  6  7  1  0  0  0  0
  6 18  1  0  0  0  0
  6 19  1  0  0  0  0
  7  8  1  0  0  0  0
  7 20  1  0  0  0  0
  7 21  1  0  0  0  0
  8  9  1  0  0  0  0
  8 22  1  0  0  0  0
  8 23  1  0  0  0  0
 10 11  2  0  0  0  0
 10 12  1  0  0  0  0
 13 16  1  0  0  0  0
 13 24  1  0  0  0  0
 13 25  1  0  0  0  0
 14 17  1  0  0  0  0
 14 26  1  0  0  0  0
 14 27  1  0  0  0  0
 15 28  1  0  0  0  0
 16 29  1  0  0  0  0
 16 30  1  0  0  0  0
 16 31  1  0  0  0  0
 17 32  1  0  0  0  0
 17 33  1  0  0  0  0
 17 34  1  0  0  0  0
M  END
> <PUBCHEM_COMPOUND_CID>
2337418

> <PUBCHEM_COMPOUND_CANONICALIZED>
1

> <PUBCHEM_CACTVS_COMPLEXITY>
269

> <PUBCHEM_CACTVS_HBOND_ACCEPTOR>
4

> <PUBCHEM_CACTVS_HBOND_DONOR>
0

> <PUBCHEM_CACTVS_ROTATABLE_BOND>
3

> <PUBCHEM_CACTVS_SUBSKEYS>
AAADceBzAABAAAAAAAAAAAAAAAAAAaIAAAAsAAAAAAASAFgB+AAAHAQAAAAADADBWgQHsdcIEAikAgJhZACD0KlxCLgB2DAoRJiIKCLg2NGEBAxogALoyCcQgEAOgAAAAAAAAAAAAAAAAAAAAAAAAgAAAA==

> <PUBCHEM_IUPAC_OPENEYE_NAME>
N,N-diethyl-7-thia-9,11-diazatricyclo[6.4.0.02,6]dodeca-1(12),2(6),8,10-tetraen-12-amine

> <PUBCHEM_IUPAC_CAS_NAME>
N,N-diethyl-7-thia-9,11-diazatricyclo[6.4.0.02,6]dodeca-1(12),2(6),8,10-tetraen-12-amine

> <PUBCHEM_IUPAC_NAME_MARKUP>
<I>N</I>,<I>N</I>-diethyl-7-thia-9,11-diazatricyclo[6.4.0.0<SUP>2,6</SUP>]dodeca-1(12),2(6),8,10-tetraen-12-amine

> <PUBCHEM_IUPAC_NAME>
N,N-diethyl-7-thia-9,11-diazatricyclo[6.4.0.02,6]dodeca-1(12),2(6),8,10-tetraen-12-amine

> <PUBCHEM_IUPAC_SYSTEMATIC_NAME>
N,N-diethyl-7-thia-9,11-diazatricyclo[6.4.0.02,6]dodeca-1(12),2(6),8,10-tetraen-12-amine

> <PUBCHEM_IUPAC_TRADITIONAL_NAME>
diethyl(7-thia-9,11-diazatricyclo[6.4.0.02,6]dodeca-1(12),2(6),8,10-tetraen-12-yl)amine

> <PUBCHEM_IUPAC_INCHI>
InChI=1S/C13H17N3S/c1-3-16(4-2)12-11-9-6-5-7-10(9)17-13(11)15-8-14-12/h8H,3-7H2,1-2H3

> <PUBCHEM_IUPAC_INCHIKEY>
WSNGBQQVCAURDS-UHFFFAOYSA-N

> <PUBCHEM_XLOGP3_AA>
3.4

> <PUBCHEM_EXACT_MASS>
247.11431873

> <PUBCHEM_MOLECULAR_FORMULA>
C13H17N3S

> <PUBCHEM_MOLECULAR_WEIGHT>
247.36

> <PUBCHEM_OPENEYE_CAN_SMILES>
CCN(CC)C1=C2C3=C(CCC3)SC2=NC=N1

> <PUBCHEM_OPENEYE_ISO_SMILES>
CCN(CC)C1=C2C3=C(CCC3)SC2=NC=N1

> <PUBCHEM_CACTVS_TPSA>
57.3

> <PUBCHEM_MONOISOTOPIC_WEIGHT>
247.11431873

> <PUBCHEM_TOTAL_CHARGE>
0

> <PUBCHEM_HEAVY_ATOM_COUNT>
17

> <PUBCHEM_ATOM_DEF_STEREO_COUNT>
0

> <PUBCHEM_ATOM_UDEF_STEREO_COUNT>
0

> <PUBCHEM_BOND_DEF_STEREO_COUNT>
0

> <PUBCHEM_BOND_UDEF_STEREO_COUNT>
0

> <PUBCHEM_ISOTOPIC_ATOM_COUNT>
0

> <PUBCHEM_COMPONENT_COUNT>
1

> <PUBCHEM_CACTVS_TAUTO_COUNT>
-1

> <PUBCHEM_COORDINATE_TYPE>
1
5
255

> <PUBCHEM_BONDANNOTATIONS>
1  12  8
1  9  8
10  11  8
10  12  8
3  11  8
3  15  8
4  12  8
4  15  8
5  10  8
5  9  8

$$$$
