44350674
  -OEChem-09292322122D

 74 77  0     0  0  0  0  0  0999 V2000
    4.8671    7.0000    0.0000 O   0  0  0  0  0  0  0  0  0  0  0  0
    4.8671    0.0000    0.0000 O   0  0  0  0  0  0  0  0  0  0  0  0
    6.1995   12.6295    0.0000 O   0  0  0  0  0  0  0  0  0  0  0  0
    3.6014   13.1295    0.0000 O   0  0  0  0  0  0  0  0  0  0  0  0
    5.3335   14.1295    0.0000 O   0  0  0  0  0  0  0  0  0  0  0  0
    4.4674   11.6295    0.0000 O   0  0  0  0  0  0  0  0  0  0  0  0
    3.1350    4.0000    0.0000 N   0  0  0  0  0  0  0  0  0  0  0  0
    3.1350    6.0000    0.0000 N   0  0  0  0  0  0  0  0  0  0  0  0
    4.0010    1.5000    0.0000 N   0  0  0  0  0  0  0  0  0  0  0  0
    2.2690    4.5000    0.0000 C   0  0  0  0  0  0  0  0  0  0  0  0
    4.0010    4.5000    0.0000 C   0  0  0  0  0  0  0  0  0  0  0  0
    2.2690    5.5000    0.0000 C   0  0  0  0  0  0  0  0  0  0  0  0
    4.0010    5.5000    0.0000 C   0  0  0  0  0  0  0  0  0  0  0  0
    3.1350    3.0000    0.0000 C   0  0  0  0  0  0  0  0  0  0  0  0
    3.1350    7.0000    0.0000 C   0  0  0  0  0  0  0  0  0  0  0  0
    2.2690    2.5000    0.0000 C   0  0  0  0  0  0  0  0  0  0  0  0
    2.2690    1.5000    0.0000 C   0  0  0  0  0  0  0  0  0  0  0  0
    4.0010    7.5000    0.0000 C   0  0  0  0  0  0  0  0  0  0  0  0
    2.2690    7.5000    0.0000 C   0  0  0  0  0  0  0  0  0  0  0  0
    1.4030    3.0000    0.0000 C   0  0  0  0  0  0  0  0  0  0  0  0
    3.1350    1.0000    0.0000 C   0  0  0  0  0  0  0  0  0  0  0  0
    1.4030    1.0000    0.0000 C   0  0  0  0  0  0  0  0  0  0  0  0
    4.0010    8.5000    0.0000 C   0  0  0  0  0  0  0  0  0  0  0  0
    2.2690    8.5000    0.0000 C   0  0  0  0  0  0  0  0  0  0  0  0
    0.5369    2.5000    0.0000 C   0  0  0  0  0  0  0  0  0  0  0  0
    0.5369    1.5000    0.0000 C   0  0  0  0  0  0  0  0  0  0  0  0
    3.1350    9.0000    0.0000 C   0  0  0  0  0  0  0  0  0  0  0  0
    4.8671    1.0000    0.0000 C   0  0  0  0  0  0  0  0  0  0  0  0
    5.7331    7.5000    0.0000 C   0  0  0  0  0  0  0  0  0  0  0  0
    5.7331    1.5000    0.0000 C   0  0  0  0  0  0  0  0  0  0  0  0
    6.5991    1.0000    0.0000 C   0  0  0  0  0  0  0  0  0  0  0  0
    7.4651    1.5000    0.0000 C   0  0  0  0  0  0  0  0  0  0  0  0
    5.7331    2.5000    0.0000 C   0  0  0  0  0  0  0  0  0  0  0  0
    7.4651    2.5000    0.0000 C   0  0  0  0  0  0  0  0  0  0  0  0
    6.5991    3.0000    0.0000 C   0  0  0  0  0  0  0  0  0  0  0  0
    8.3591    0.9653    0.0000 C   0  0  0  0  0  0  0  0  0  0  0  0
    8.3591    3.0347    0.0000 C   0  0  0  0  0  0  0  0  0  0  0  0
    9.2652    1.4792    0.0000 C   0  0  0  0  0  0  0  0  0  0  0  0
    9.2652    2.5208    0.0000 C   0  0  0  0  0  0  0  0  0  0  0  0
    5.3335   13.1295    0.0000 C   0  0  0  0  0  0  0  0  0  0  0  0
    4.4674   12.6295    0.0000 C   0  0  0  0  0  0  0  0  0  0  0  0
    1.6584    4.6077    0.0000 H   0  0  0  0  0  0  0  0  0  0  0  0
    2.0569    3.9174    0.0000 H   0  0  0  0  0  0  0  0  0  0  0  0
    4.2131    3.9174    0.0000 H   0  0  0  0  0  0  0  0  0  0  0  0
    4.6116    4.6077    0.0000 H   0  0  0  0  0  0  0  0  0  0  0  0
    2.0569    6.0826    0.0000 H   0  0  0  0  0  0  0  0  0  0  0  0
    1.6584    5.3923    0.0000 H   0  0  0  0  0  0  0  0  0  0  0  0
    4.6116    5.3923    0.0000 H   0  0  0  0  0  0  0  0  0  0  0  0
    4.2131    6.0826    0.0000 H   0  0  0  0  0  0  0  0  0  0  0  0
    3.3471    2.4174    0.0000 H   0  0  0  0  0  0  0  0  0  0  0  0
    3.7456    3.1077    0.0000 H   0  0  0  0  0  0  0  0  0  0  0  0
    1.7320    7.1900    0.0000 H   0  0  0  0  0  0  0  0  0  0  0  0
    1.4030    3.6200    0.0000 H   0  0  0  0  0  0  0  0  0  0  0  0
    2.7365    0.5251    0.0000 H   0  0  0  0  0  0  0  0  0  0  0  0
    3.5335    0.5251    0.0000 H   0  0  0  0  0  0  0  0  0  0  0  0
    1.4030    0.3800    0.0000 H   0  0  0  0  0  0  0  0  0  0  0  0
    4.5380    8.8100    0.0000 H   0  0  0  0  0  0  0  0  0  0  0  0
    1.7320    8.8100    0.0000 H   0  0  0  0  0  0  0  0  0  0  0  0
    0.0000    2.8100    0.0000 H   0  0  0  0  0  0  0  0  0  0  0  0
    0.0000    1.1900    0.0000 H   0  0  0  0  0  0  0  0  0  0  0  0
    3.1350    9.6200    0.0000 H   0  0  0  0  0  0  0  0  0  0  0  0
    4.0010    2.1200    0.0000 H   0  0  0  0  0  0  0  0  0  0  0  0
    6.0431    6.9631    0.0000 H   0  0  0  0  0  0  0  0  0  0  0  0
    6.2700    7.8100    0.0000 H   0  0  0  0  0  0  0  0  0  0  0  0
    5.4231    8.0369    0.0000 H   0  0  0  0  0  0  0  0  0  0  0  0
    6.5991    0.3800    0.0000 H   0  0  0  0  0  0  0  0  0  0  0  0
    5.1962    2.8100    0.0000 H   0  0  0  0  0  0  0  0  0  0  0  0
    6.5991    3.6200    0.0000 H   0  0  0  0  0  0  0  0  0  0  0  0
    8.3519    0.3454    0.0000 H   0  0  0  0  0  0  0  0  0  0  0  0
    8.3519    3.6546    0.0000 H   0  0  0  0  0  0  0  0  0  0  0  0
    9.8009    1.1671    0.0000 H   0  0  0  0  0  0  0  0  0  0  0  0
    9.8009    2.8329    0.0000 H   0  0  0  0  0  0  0  0  0  0  0  0
    6.7364   12.9395    0.0000 H   0  0  0  0  0  0  0  0  0  0  0  0
    3.0645   12.8195    0.0000 H   0  0  0  0  0  0  0  0  0  0  0  0
  1 18  1  0  0  0  0
  1 29  1  0  0  0  0
  2 28  2  0  0  0  0
  3 40  1  0  0  0  0
  3 73  1  0  0  0  0
  4 41  1  0  0  0  0
  4 74  1  0  0  0  0
  5 40  2  0  0  0  0
  6 41  2  0  0  0  0
  7 10  1  0  0  0  0
  7 11  1  0  0  0  0
  7 14  1  0  0  0  0
  8 12  1  0  0  0  0
  8 13  1  0  0  0  0
  8 15  1  0  0  0  0
  9 21  1  0  0  0  0
  9 28  1  0  0  0  0
  9 62  1  0  0  0  0
 10 12  1  0  0  0  0
 10 42  1  0  0  0  0
 10 43  1  0  0  0  0
 11 13  1  0  0  0  0
 11 44  1  0  0  0  0
 11 45  1  0  0  0  0
 12 46  1  0  0  0  0
 12 47  1  0  0  0  0
 13 48  1  0  0  0  0
 13 49  1  0  0  0  0
 14 16  1  0  0  0  0
 14 50  1  0  0  0  0
 14 51  1  0  0  0  0
 15 18  1  0  0  0  0
 15 19  2  0  0  0  0
 16 17  1  0  0  0  0
 16 20  2  0  0  0  0
 17 21  1  0  0  0  0
 17 22  2  0  0  0  0
 18 23  2  0  0  0  0
 19 24  1  0  0  0  0
 19 52  1  0  0  0  0
 20 25  1  0  0  0  0
 20 53  1  0  0  0  0
 21 54  1  0  0  0  0
 21 55  1  0  0  0  0
 22 26  1  0  0  0  0
 22 56  1  0  0  0  0
 23 27  1  0  0  0  0
 23 57  1  0  0  0  0
 24 27  2  0  0  0  0
 24 58  1  0  0  0  0
 25 26  2  0  0  0  0
 25 59  1  0  0  0  0
 26 60  1  0  0  0  0
 27 61  1  0  0  0  0
 28 30  1  0  0  0  0
 29 63  1  0  0  0  0
 29 64  1  0  0  0  0
 29 65  1  0  0  0  0
 30 31  2  0  0  0  0
 30 33  1  0  0  0  0
 31 32  1  0  0  0  0
 31 66  1  0  0  0  0
 32 34  1  0  0  0  0
 32 36  2  0  0  0  0
 33 35  2  0  0  0  0
 33 67  1  0  0  0  0
 34 35  1  0  0  0  0
 34 37  2  0  0  0  0
 35 68  1  0  0  0  0
 36 38  1  0  0  0  0
 36 69  1  0  0  0  0
 37 39  1  0  0  0  0
 37 70  1  0  0  0  0
 38 39  2  0  0  0  0
 38 71  1  0  0  0  0
 39 72  1  0  0  0  0
 40 41  1  0  0  0  0
M  END
> <PUBCHEM_COMPOUND_CID>
44350674

> <PUBCHEM_COMPOUND_CANONICALIZED>
1

> <PUBCHEM_CACTVS_COMPLEXITY>
736

> <PUBCHEM_CACTVS_HBOND_ACCEPTOR>
8

> <PUBCHEM_CACTVS_HBOND_DONOR>
3

> <PUBCHEM_CACTVS_ROTATABLE_BOND>
8

> <PUBCHEM_CACTVS_SUBSKEYS>
AAADcfB/OAAAAAAAAAAAAAAAAAAAAAAAAAA8YMGCAAAAAADBVAAAHgAQCAAADAzBmAYyzsPABgCIAiXSWAKCCAAlIgAIiIFPbMgPZjLEtZuVMShkxhHZ6YeYyMCOwAACAAAQEACAAAQAACAgAAAAAAAAAA==

> <PUBCHEM_IUPAC_OPENEYE_NAME>
N-[[2-[[4-(2-methoxyphenyl)piperazin-1-yl]methyl]phenyl]methyl]naphthalene-2-carboxamide;oxalic acid

> <PUBCHEM_IUPAC_CAS_NAME>
N-[[2-[[4-(2-methoxyphenyl)-1-piperazinyl]methyl]phenyl]methyl]-2-naphthalenecarboxamide;oxalic acid

> <PUBCHEM_IUPAC_NAME_MARKUP>
<I>N</I>-[[2-[[4-(2-methoxyphenyl)piperazin-1-yl]methyl]phenyl]methyl]naphthalene-2-carboxamide;oxalic acid

> <PUBCHEM_IUPAC_NAME>
N-[[2-[[4-(2-methoxyphenyl)piperazin-1-yl]methyl]phenyl]methyl]naphthalene-2-carboxamide;oxalic acid

> <PUBCHEM_IUPAC_SYSTEMATIC_NAME>
ethanedioic acid;N-[[2-[[4-(2-methoxyphenyl)piperazin-1-yl]methyl]phenyl]methyl]naphthalene-2-carboxamide

> <PUBCHEM_IUPAC_TRADITIONAL_NAME>
N-[2-[[4-(2-methoxyphenyl)piperazino]methyl]benzyl]-2-naphthamide;oxalic acid

> <PUBCHEM_IUPAC_INCHI>
InChI=1S/C30H31N3O2.C2H2O4/c1-35-29-13-7-6-12-28(29)33-18-16-32(17-19-33)22-27-11-5-4-10-26(27)21-31-30(34)25-15-14-23-8-2-3-9-24(23)20-25;3-1(4)2(5)6/h2-15,20H,16-19,21-22H2,1H3,(H,31,34);(H,3,4)(H,5,6)

> <PUBCHEM_IUPAC_INCHIKEY>
KCOSUGXOVNKXMQ-UHFFFAOYSA-N

> <PUBCHEM_EXACT_MASS>
555.23693578

> <PUBCHEM_MOLECULAR_FORMULA>
C32H33N3O6

> <PUBCHEM_MOLECULAR_WEIGHT>
555.6

> <PUBCHEM_OPENEYE_CAN_SMILES>
COC1=CC=CC=C1N2CCN(CC2)CC3=CC=CC=C3CNC(=O)C4=CC5=CC=CC=C5C=C4.C(=O)(C(=O)O)O

> <PUBCHEM_OPENEYE_ISO_SMILES>
COC1=CC=CC=C1N2CCN(CC2)CC3=CC=CC=C3CNC(=O)C4=CC5=CC=CC=C5C=C4.C(=O)(C(=O)O)O

> <PUBCHEM_CACTVS_TPSA>
119

> <PUBCHEM_MONOISOTOPIC_WEIGHT>
555.23693578

> <PUBCHEM_TOTAL_CHARGE>
0

> <PUBCHEM_HEAVY_ATOM_COUNT>
41

> <PUBCHEM_ATOM_DEF_STEREO_COUNT>
0

> <PUBCHEM_ATOM_UDEF_STEREO_COUNT>
0

> <PUBCHEM_BOND_DEF_STEREO_COUNT>
0

> <PUBCHEM_BOND_UDEF_STEREO_COUNT>
0

> <PUBCHEM_ISOTOPIC_ATOM_COUNT>
0

> <PUBCHEM_COMPONENT_COUNT>
2

> <PUBCHEM_CACTVS_TAUTO_COUNT>
-1

> <PUBCHEM_COORDINATE_TYPE>
1
5
255

> <PUBCHEM_BONDANNOTATIONS>
15  18  8
15  19  8
16  17  8
16  20  8
17  22  8
18  23  8
19  24  8
20  25  8
22  26  8
23  27  8
24  27  8
25  26  8
30  31  8
30  33  8
31  32  8
32  34  8
32  36  8
33  35  8
34  35  8
34  37  8
36  38  8
37  39  8
38  39  8

$$$$
