44407433
  -OEChem-09292322272D

 68 71  0     0  0  0  0  0  0999 V2000
    3.8000   -6.0670    0.0000 F   0  0  0  0  0  0  0  0  0  0  0  0
    5.1660   -6.4330    0.0000 F   0  0  0  0  0  0  0  0  0  0  0  0
    4.1660   -4.7010    0.0000 F   0  0  0  0  0  0  0  0  0  0  0  0
    6.3981    3.4330    0.0000 O   0  0  0  0  0  0  0  0  0  0  0  0
    4.6660    6.4330    0.0000 O   0  0  0  0  0  0  0  0  0  0  0  0
    6.3981   -0.5670    0.0000 N   0  0  0  0  0  0  0  0  0  0  0  0
    6.3981   -2.5670    0.0000 N   0  0  0  0  0  0  0  0  0  0  0  0
    4.6660    3.4330    0.0000 N   0  0  0  0  0  0  0  0  0  0  0  0
    7.2641   -4.0670    0.0000 N   0  0  0  0  0  0  0  0  0  0  0  0
    6.3981   -5.5670    0.0000 N   0  0  0  0  0  0  0  0  0  0  0  0
    5.5321   -1.0670    0.0000 C   0  0  0  0  0  0  0  0  0  0  0  0
    7.2641   -1.0670    0.0000 C   0  0  0  0  0  0  0  0  0  0  0  0
    5.5321   -2.0670    0.0000 C   0  0  0  0  0  0  0  0  0  0  0  0
    7.2641   -2.0670    0.0000 C   0  0  0  0  0  0  0  0  0  0  0  0
    6.3981    0.4330    0.0000 C   0  0  0  0  0  0  0  0  0  0  0  0
    5.5321    0.9330    0.0000 C   0  0  0  0  0  0  0  0  0  0  0  0
    5.5321    1.9330    0.0000 C   0  0  0  0  0  0  0  0  0  0  0  0
    6.3981   -3.5670    0.0000 C   0  0  0  0  0  0  0  0  0  0  0  0
    4.6660    2.4330    0.0000 C   0  0  0  0  0  0  0  0  0  0  0  0
    8.1301   -5.5670    0.0000 C   0  0  0  0  0  0  0  0  0  0  0  0
    7.2641   -5.0670    0.0000 C   0  0  0  0  0  0  0  0  0  0  0  0
    5.5321   -4.0670    0.0000 C   0  0  0  0  0  0  0  0  0  0  0  0
    3.8000    3.9330    0.0000 C   0  0  0  0  0  0  0  0  0  0  0  0
    5.5321   -5.0670    0.0000 C   0  0  0  0  0  0  0  0  0  0  0  0
    5.5321    3.9330    0.0000 C   0  0  0  0  0  0  0  0  0  0  0  0
    8.9962   -6.0670    0.0000 C   0  0  0  0  0  0  0  0  0  0  0  0
    7.6301   -6.4330    0.0000 C   0  0  0  0  0  0  0  0  0  0  0  0
    8.6301   -4.7010    0.0000 C   0  0  0  0  0  0  0  0  0  0  0  0
    3.8000    4.9330    0.0000 C   0  0  0  0  0  0  0  0  0  0  0  0
    5.5321    4.9330    0.0000 C   0  0  0  0  0  0  0  0  0  0  0  0
    4.6660    5.4330    0.0000 C   0  0  0  0  0  0  0  0  0  0  0  0
    2.9061    3.3984    0.0000 C   0  0  0  0  0  0  0  0  0  0  0  0
    4.6660   -5.5670    0.0000 C   0  0  0  0  0  0  0  0  0  0  0  0
    2.9061    5.4677    0.0000 C   0  0  0  0  0  0  0  0  0  0  0  0
    2.0000    3.9122    0.0000 C   0  0  0  0  0  0  0  0  0  0  0  0
    2.0000    4.9538    0.0000 C   0  0  0  0  0  0  0  0  0  0  0  0
    5.3200   -0.4844    0.0000 H   0  0  0  0  0  0  0  0  0  0  0  0
    4.9215   -1.1746    0.0000 H   0  0  0  0  0  0  0  0  0  0  0  0
    7.8747   -1.1746    0.0000 H   0  0  0  0  0  0  0  0  0  0  0  0
    7.4762   -0.4844    0.0000 H   0  0  0  0  0  0  0  0  0  0  0  0
    4.9215   -1.9593    0.0000 H   0  0  0  0  0  0  0  0  0  0  0  0
    5.3200   -2.6496    0.0000 H   0  0  0  0  0  0  0  0  0  0  0  0
    7.4762   -2.6496    0.0000 H   0  0  0  0  0  0  0  0  0  0  0  0
    7.8747   -1.9593    0.0000 H   0  0  0  0  0  0  0  0  0  0  0  0
    7.0087    0.3254    0.0000 H   0  0  0  0  0  0  0  0  0  0  0  0
    6.6101    1.0156    0.0000 H   0  0  0  0  0  0  0  0  0  0  0  0
    4.9215    1.0407    0.0000 H   0  0  0  0  0  0  0  0  0  0  0  0
    5.3200    0.3504    0.0000 H   0  0  0  0  0  0  0  0  0  0  0  0
    6.1426    1.8254    0.0000 H   0  0  0  0  0  0  0  0  0  0  0  0
    5.7441    2.5156    0.0000 H   0  0  0  0  0  0  0  0  0  0  0  0
    4.0555    2.5407    0.0000 H   0  0  0  0  0  0  0  0  0  0  0  0
    4.4540    1.8504    0.0000 H   0  0  0  0  0  0  0  0  0  0  0  0
    4.9951   -3.7570    0.0000 H   0  0  0  0  0  0  0  0  0  0  0  0
    8.6862   -6.6039    0.0000 H   0  0  0  0  0  0  0  0  0  0  0  0
    9.5331   -6.3770    0.0000 H   0  0  0  0  0  0  0  0  0  0  0  0
    9.3062   -5.5300    0.0000 H   0  0  0  0  0  0  0  0  0  0  0  0
    7.0932   -6.1230    0.0000 H   0  0  0  0  0  0  0  0  0  0  0  0
    7.3201   -6.9700    0.0000 H   0  0  0  0  0  0  0  0  0  0  0  0
    8.1671   -6.7430    0.0000 H   0  0  0  0  0  0  0  0  0  0  0  0
    9.1671   -5.0110    0.0000 H   0  0  0  0  0  0  0  0  0  0  0  0
    8.9401   -4.1640    0.0000 H   0  0  0  0  0  0  0  0  0  0  0  0
    8.0932   -4.3910    0.0000 H   0  0  0  0  0  0  0  0  0  0  0  0
    6.1426    4.8254    0.0000 H   0  0  0  0  0  0  0  0  0  0  0  0
    5.7441    5.5156    0.0000 H   0  0  0  0  0  0  0  0  0  0  0  0
    2.9132    2.7784    0.0000 H   0  0  0  0  0  0  0  0  0  0  0  0
    2.9132    6.0876    0.0000 H   0  0  0  0  0  0  0  0  0  0  0  0
    1.4643    3.6001    0.0000 H   0  0  0  0  0  0  0  0  0  0  0  0
    1.4643    5.2659    0.0000 H   0  0  0  0  0  0  0  0  0  0  0  0
  1 33  1  0  0  0  0
  2 33  1  0  0  0  0
  3 33  1  0  0  0  0
  4 25  2  0  0  0  0
  5 31  2  0  0  0  0
  6 11  1  0  0  0  0
  6 12  1  0  0  0  0
  6 15  1  0  0  0  0
  7 13  1  0  0  0  0
  7 14  1  0  0  0  0
  7 18  1  0  0  0  0
  8 19  1  0  0  0  0
  8 23  1  0  0  0  0
  8 25  1  0  0  0  0
  9 18  2  0  0  0  0
  9 21  1  0  0  0  0
 10 21  2  0  0  0  0
 10 24  1  0  0  0  0
 11 13  1  0  0  0  0
 11 37  1  0  0  0  0
 11 38  1  0  0  0  0
 12 14  1  0  0  0  0
 12 39  1  0  0  0  0
 12 40  1  0  0  0  0
 13 41  1  0  0  0  0
 13 42  1  0  0  0  0
 14 43  1  0  0  0  0
 14 44  1  0  0  0  0
 15 16  1  0  0  0  0
 15 45  1  0  0  0  0
 15 46  1  0  0  0  0
 16 17  1  0  0  0  0
 16 47  1  0  0  0  0
 16 48  1  0  0  0  0
 17 19  1  0  0  0  0
 17 49  1  0  0  0  0
 17 50  1  0  0  0  0
 18 22  1  0  0  0  0
 19 51  1  0  0  0  0
 19 52  1  0  0  0  0
 20 21  1  0  0  0  0
 20 26  1  0  0  0  0
 20 27  1  0  0  0  0
 20 28  1  0  0  0  0
 22 24  2  0  0  0  0
 22 53  1  0  0  0  0
 23 29  1  0  0  0  0
 23 32  2  0  0  0  0
 24 33  1  0  0  0  0
 25 30  1  0  0  0  0
 26 54  1  0  0  0  0
 26 55  1  0  0  0  0
 26 56  1  0  0  0  0
 27 57  1  0  0  0  0
 27 58  1  0  0  0  0
 27 59  1  0  0  0  0
 28 60  1  0  0  0  0
 28 61  1  0  0  0  0
 28 62  1  0  0  0  0
 29 31  1  0  0  0  0
 29 34  2  0  0  0  0
 30 31  1  0  0  0  0
 30 63  1  0  0  0  0
 30 64  1  0  0  0  0
 32 35  1  0  0  0  0
 32 65  1  0  0  0  0
 34 36  1  0  0  0  0
 34 66  1  0  0  0  0
 35 36  2  0  0  0  0
 35 67  1  0  0  0  0
 36 68  1  0  0  0  0
M  END
> <PUBCHEM_COMPOUND_CID>
44407433

> <PUBCHEM_COMPOUND_CANONICALIZED>
1

> <PUBCHEM_CACTVS_COMPLEXITY>
779

> <PUBCHEM_CACTVS_HBOND_ACCEPTOR>
9

> <PUBCHEM_CACTVS_HBOND_DONOR>
0

> <PUBCHEM_CACTVS_ROTATABLE_BOND>
7

> <PUBCHEM_CACTVS_SUBSKEYS>
AAADcfB7sYAAAAAAAAAAAAAAAAAAAAAAAAA8WLEAAAAAAACxwAAAHwAAAAAADgzBnxQz8JcIEACoA6dydACCgCklAqAJmCE4ZNiIaDrI3dGUJYhohgLIyecYiYCeAAAAAAACAAAAAAAAAAQAAAAAAAAAAA==

> <PUBCHEM_IUPAC_OPENEYE_NAME>
1-[4-[4-[2-tert-butyl-6-(trifluoromethyl)pyrimidin-4-yl]piperazin-1-yl]butyl]quinoline-2,4-dione

> <PUBCHEM_IUPAC_CAS_NAME>
1-[4-[4-[2-tert-butyl-6-(trifluoromethyl)-4-pyrimidinyl]-1-piperazinyl]butyl]quinoline-2,4-dione

> <PUBCHEM_IUPAC_NAME_MARKUP>
1-[4-[4-[2-<I>tert</I>-butyl-6-(trifluoromethyl)pyrimidin-4-yl]piperazin-1-yl]butyl]quinoline-2,4-dione

> <PUBCHEM_IUPAC_NAME>
1-[4-[4-[2-tert-butyl-6-(trifluoromethyl)pyrimidin-4-yl]piperazin-1-yl]butyl]quinoline-2,4-dione

> <PUBCHEM_IUPAC_SYSTEMATIC_NAME>
1-[4-[4-[2-tert-butyl-6-(trifluoromethyl)pyrimidin-4-yl]piperazin-1-yl]butyl]quinoline-2,4-dione

> <PUBCHEM_IUPAC_TRADITIONAL_NAME>
1-[4-[4-[2-tert-butyl-6-(trifluoromethyl)pyrimidin-4-yl]piperazino]butyl]quinoline-2,4-quinone

> <PUBCHEM_IUPAC_INCHI>
InChI=1S/C26H32F3N5O2/c1-25(2,3)24-30-21(26(27,28)29)17-22(31-24)33-14-12-32(13-15-33)10-6-7-11-34-19-9-5-4-8-18(19)20(35)16-23(34)36/h4-5,8-9,17H,6-7,10-16H2,1-3H3

> <PUBCHEM_IUPAC_INCHIKEY>
ZRPHNBZAKYUMQJ-UHFFFAOYSA-N

> <PUBCHEM_XLOGP3_AA>
4.5

> <PUBCHEM_EXACT_MASS>
503.25080977

> <PUBCHEM_MOLECULAR_FORMULA>
C26H32F3N5O2

> <PUBCHEM_MOLECULAR_WEIGHT>
503.6

> <PUBCHEM_OPENEYE_CAN_SMILES>
CC(C)(C)C1=NC(=CC(=N1)N2CCN(CC2)CCCCN3C(=O)CC(=O)C4=CC=CC=C43)C(F)(F)F

> <PUBCHEM_OPENEYE_ISO_SMILES>
CC(C)(C)C1=NC(=CC(=N1)N2CCN(CC2)CCCCN3C(=O)CC(=O)C4=CC=CC=C43)C(F)(F)F

> <PUBCHEM_CACTVS_TPSA>
69.6

> <PUBCHEM_MONOISOTOPIC_WEIGHT>
503.25080977

> <PUBCHEM_TOTAL_CHARGE>
0

> <PUBCHEM_HEAVY_ATOM_COUNT>
36

> <PUBCHEM_ATOM_DEF_STEREO_COUNT>
0

> <PUBCHEM_ATOM_UDEF_STEREO_COUNT>
0

> <PUBCHEM_BOND_DEF_STEREO_COUNT>
0

> <PUBCHEM_BOND_UDEF_STEREO_COUNT>
0

> <PUBCHEM_ISOTOPIC_ATOM_COUNT>
0

> <PUBCHEM_COMPONENT_COUNT>
1

> <PUBCHEM_CACTVS_TAUTO_COUNT>
-1

> <PUBCHEM_COORDINATE_TYPE>
1
5
255

> <PUBCHEM_BONDANNOTATIONS>
10  21  8
10  24  8
18  22  8
22  24  8
23  29  8
23  32  8
29  34  8
32  35  8
34  36  8
35  36  8
9  18  8
9  21  8

$$$$
