19088519
  -OEChem-09292322452D

 50 52  0     0  0  0  0  0  0999 V2000
    6.5000   -0.2010    0.0000 N   0  0  0  0  0  0  0  0  0  0  0  0
    2.0000    0.6651    0.0000 N   0  0  0  0  0  0  0  0  0  0  0  0
    4.0000    0.6651    0.0000 C   0  0  0  0  0  0  0  0  0  0  0  0
    5.0000    0.6651    0.0000 C   0  0  0  0  0  0  0  0  0  0  0  0
    5.5000   -0.2010    0.0000 C   0  0  0  0  0  0  0  0  0  0  0  0
    4.0000   -0.3349    0.0000 C   0  0  0  0  0  0  0  0  0  0  0  0
    4.0000    1.6651    0.0000 C   0  0  0  0  0  0  0  0  0  0  0  0
    7.0000   -1.0670    0.0000 C   0  0  0  0  0  0  0  0  0  0  0  0
    3.0000    0.6651    0.0000 C   0  0  0  0  0  0  0  0  0  0  0  0
    3.1340   -0.8349    0.0000 C   0  0  0  0  0  0  0  0  0  0  0  0
    4.8660    2.1651    0.0000 C   0  0  0  0  0  0  0  0  0  0  0  0
    4.8660   -0.8349    0.0000 C   0  0  0  0  0  0  0  0  0  0  0  0
    3.1340    2.1651    0.0000 C   0  0  0  0  0  0  0  0  0  0  0  0
    8.0000   -1.0670    0.0000 C   0  0  0  0  0  0  0  0  0  0  0  0
    8.5000   -1.9330    0.0000 C   0  0  0  0  0  0  0  0  0  0  0  0
    3.1340   -1.8349    0.0000 C   0  0  0  0  0  0  0  0  0  0  0  0
    4.8660    3.1651    0.0000 C   0  0  0  0  0  0  0  0  0  0  0  0
    4.8660   -1.8349    0.0000 C   0  0  0  0  0  0  0  0  0  0  0  0
    3.1340    3.1651    0.0000 C   0  0  0  0  0  0  0  0  0  0  0  0
    4.0000   -2.3349    0.0000 C   0  0  0  0  0  0  0  0  0  0  0  0
    4.0000    3.6651    0.0000 C   0  0  0  0  0  0  0  0  0  0  0  0
    9.5000   -1.9330    0.0000 C   0  0  0  0  0  0  0  0  0  0  0  0
    8.0000   -2.7990    0.0000 C   0  0  0  0  0  0  0  0  0  0  0  0
   10.0000   -2.7990    0.0000 C   0  0  0  0  0  0  0  0  0  0  0  0
    8.5000   -3.6651    0.0000 C   0  0  0  0  0  0  0  0  0  0  0  0
    9.5000   -3.6651    0.0000 C   0  0  0  0  0  0  0  0  0  0  0  0
    5.5826    0.8771    0.0000 H   0  0  0  0  0  0  0  0  0  0  0  0
    4.8923    1.2756    0.0000 H   0  0  0  0  0  0  0  0  0  0  0  0
    4.9174   -0.4130    0.0000 H   0  0  0  0  0  0  0  0  0  0  0  0
    5.6077   -0.8115    0.0000 H   0  0  0  0  0  0  0  0  0  0  0  0
    6.8100    0.3360    0.0000 H   0  0  0  0  0  0  0  0  0  0  0  0
    6.4174   -1.2790    0.0000 H   0  0  0  0  0  0  0  0  0  0  0  0
    7.1077   -1.6776    0.0000 H   0  0  0  0  0  0  0  0  0  0  0  0
    2.5970   -0.5249    0.0000 H   0  0  0  0  0  0  0  0  0  0  0  0
    5.4030    1.8551    0.0000 H   0  0  0  0  0  0  0  0  0  0  0  0
    5.4030   -0.5249    0.0000 H   0  0  0  0  0  0  0  0  0  0  0  0
    2.5970    1.8551    0.0000 H   0  0  0  0  0  0  0  0  0  0  0  0
    8.5826   -0.8549    0.0000 H   0  0  0  0  0  0  0  0  0  0  0  0
    7.8923   -0.4564    0.0000 H   0  0  0  0  0  0  0  0  0  0  0  0
    2.5970   -2.1449    0.0000 H   0  0  0  0  0  0  0  0  0  0  0  0
    5.4030    3.4751    0.0000 H   0  0  0  0  0  0  0  0  0  0  0  0
    5.4030   -2.1449    0.0000 H   0  0  0  0  0  0  0  0  0  0  0  0
    2.5970    3.4751    0.0000 H   0  0  0  0  0  0  0  0  0  0  0  0
    4.0000   -2.9549    0.0000 H   0  0  0  0  0  0  0  0  0  0  0  0
    4.0000    4.2851    0.0000 H   0  0  0  0  0  0  0  0  0  0  0  0
    9.8100   -1.3961    0.0000 H   0  0  0  0  0  0  0  0  0  0  0  0
    7.3800   -2.7990    0.0000 H   0  0  0  0  0  0  0  0  0  0  0  0
   10.6200   -2.7990    0.0000 H   0  0  0  0  0  0  0  0  0  0  0  0
    8.1900   -4.2020    0.0000 H   0  0  0  0  0  0  0  0  0  0  0  0
    9.8100   -4.2020    0.0000 H   0  0  0  0  0  0  0  0  0  0  0  0
  1  5  1  0  0  0  0
  1  8  1  0  0  0  0
  1 31  1  0  0  0  0
  2  9  3  0  0  0  0
  3  4  1  0  0  0  0
  3  6  1  0  0  0  0
  3  7  1  0  0  0  0
  3  9  1  0  0  0  0
  4  5  1  0  0  0  0
  4 27  1  0  0  0  0
  4 28  1  0  0  0  0
  5 29  1  0  0  0  0
  5 30  1  0  0  0  0
  6 10  2  0  0  0  0
  6 12  1  0  0  0  0
  7 11  2  0  0  0  0
  7 13  1  0  0  0  0
  8 14  1  0  0  0  0
  8 32  1  0  0  0  0
  8 33  1  0  0  0  0
 10 16  1  0  0  0  0
 10 34  1  0  0  0  0
 11 17  1  0  0  0  0
 11 35  1  0  0  0  0
 12 18  2  0  0  0  0
 12 36  1  0  0  0  0
 13 19  2  0  0  0  0
 13 37  1  0  0  0  0
 14 15  1  0  0  0  0
 14 38  1  0  0  0  0
 14 39  1  0  0  0  0
 15 22  2  0  0  0  0
 15 23  1  0  0  0  0
 16 20  2  0  0  0  0
 16 40  1  0  0  0  0
 17 21  2  0  0  0  0
 17 41  1  0  0  0  0
 18 20  1  0  0  0  0
 18 42  1  0  0  0  0
 19 21  1  0  0  0  0
 19 43  1  0  0  0  0
 20 44  1  0  0  0  0
 21 45  1  0  0  0  0
 22 24  1  0  0  0  0
 22 46  1  0  0  0  0
 23 25  2  0  0  0  0
 23 47  1  0  0  0  0
 24 26  2  0  0  0  0
 24 48  1  0  0  0  0
 25 26  1  0  0  0  0
 25 49  1  0  0  0  0
 26 50  1  0  0  0  0
M  END
> <PUBCHEM_COMPOUND_CID>
19088519

> <PUBCHEM_COMPOUND_CANONICALIZED>
1

> <PUBCHEM_CACTVS_COMPLEXITY>
412

> <PUBCHEM_CACTVS_HBOND_ACCEPTOR>
2

> <PUBCHEM_CACTVS_HBOND_DONOR>
1

> <PUBCHEM_CACTVS_ROTATABLE_BOND>
8

> <PUBCHEM_CACTVS_SUBSKEYS>
AAADceB7AAAAAAAAAAAAAAAAAAAAAAAAAAAwYMAAAAAAAAABUAAAHAAQAAAADgDBGAQwAILAAACQBiBCAAACAAAgAAAIiIAIAIgIoCKAkRGEIAAgkACIiA8QgMAPgAAAAAAAAAAAAAAAAAAAAAAAAAAAAA==

> <PUBCHEM_IUPAC_OPENEYE_NAME>
2,2-diphenyl-4-(2-phenylethylamino)butanenitrile

> <PUBCHEM_IUPAC_CAS_NAME>
2,2-diphenyl-4-(2-phenylethylamino)butanenitrile

> <PUBCHEM_IUPAC_NAME_MARKUP>
2,2-diphenyl-4-(2-phenylethylamino)butanenitrile

> <PUBCHEM_IUPAC_NAME>
2,2-diphenyl-4-(2-phenylethylamino)butanenitrile

> <PUBCHEM_IUPAC_SYSTEMATIC_NAME>
2,2-diphenyl-4-(2-phenylethylamino)butanenitrile

> <PUBCHEM_IUPAC_TRADITIONAL_NAME>
4-(phenethylamino)-2,2-diphenyl-butyronitrile

> <PUBCHEM_IUPAC_INCHI>
InChI=1S/C24H24N2/c25-20-24(22-12-6-2-7-13-22,23-14-8-3-9-15-23)17-19-26-18-16-21-10-4-1-5-11-21/h1-15,26H,16-19H2

> <PUBCHEM_IUPAC_INCHIKEY>
FWUYSYBMZPOIDO-UHFFFAOYSA-N

> <PUBCHEM_XLOGP3_AA>
5

> <PUBCHEM_EXACT_MASS>
340.193948774

> <PUBCHEM_MOLECULAR_FORMULA>
C24H24N2

> <PUBCHEM_MOLECULAR_WEIGHT>
340.5

> <PUBCHEM_OPENEYE_CAN_SMILES>
C1=CC=C(C=C1)CCNCCC(C#N)(C2=CC=CC=C2)C3=CC=CC=C3

> <PUBCHEM_OPENEYE_ISO_SMILES>
C1=CC=C(C=C1)CCNCCC(C#N)(C2=CC=CC=C2)C3=CC=CC=C3

> <PUBCHEM_CACTVS_TPSA>
35.8

> <PUBCHEM_MONOISOTOPIC_WEIGHT>
340.193948774

> <PUBCHEM_TOTAL_CHARGE>
0

> <PUBCHEM_HEAVY_ATOM_COUNT>
26

> <PUBCHEM_ATOM_DEF_STEREO_COUNT>
0

> <PUBCHEM_ATOM_UDEF_STEREO_COUNT>
0

> <PUBCHEM_BOND_DEF_STEREO_COUNT>
0

> <PUBCHEM_BOND_UDEF_STEREO_COUNT>
0

> <PUBCHEM_ISOTOPIC_ATOM_COUNT>
0

> <PUBCHEM_COMPONENT_COUNT>
1

> <PUBCHEM_CACTVS_TAUTO_COUNT>
-1

> <PUBCHEM_COORDINATE_TYPE>
1
5
255

> <PUBCHEM_BONDANNOTATIONS>
10  16  8
11  17  8
12  18  8
13  19  8
15  22  8
15  23  8
16  20  8
17  21  8
18  20  8
19  21  8
22  24  8
23  25  8
24  26  8
25  26  8
6  10  8
6  12  8
7  11  8
7  13  8

$$$$
