162664339
  -OEChem-09292322422D

 53 57  0     1  0  0  0  0  0999 V2000
    4.9889   -1.2172    0.0000 S   0  0  0  0  0  0  0  0  0  0  0  0
    4.6783   -3.7772    0.0000 S   0  0  0  0  0  0  0  0  0  0  0  0
    5.9394   -1.5278    0.0000 O   0  0  0  0  0  0  0  0  0  0  0  0
    4.0384   -0.9065    0.0000 O   0  0  0  0  0  0  0  0  0  0  0  0
   12.3682    1.0014    0.0000 O   0  0  0  0  0  0  0  0  0  0  0  0
    7.6808    0.7461    0.0000 N   0  0  3  0  0  0  0  0  0  0  0  0
    5.2996   -0.2667    0.0000 N   0  0  0  0  0  0  0  0  0  0  0  0
   11.3791    0.9017    0.0000 N   0  0  0  0  0  0  0  0  0  0  0  0
    6.2781   -0.0604    0.0000 C   0  0  2  0  0  0  0  0  0  0  0  0
    6.6864    0.8524    0.0000 C   0  0  0  0  0  0  0  0  0  0  0  0
    7.0201   -0.7309    0.0000 C   0  0  0  0  0  0  0  0  0  0  0  0
    7.8870   -0.2324    0.0000 C   0  0  0  0  0  0  0  0  0  0  0  0
    8.3512    1.4881    0.0000 C   0  0  0  0  0  0  0  0  0  0  0  0
    9.3290    1.2785    0.0000 C   0  0  0  0  0  0  0  0  0  0  0  0
    9.9994    2.0205    0.0000 C   0  0  0  0  0  0  0  0  0  0  0  0
    4.6783   -2.1677    0.0000 C   0  0  0  0  0  0  0  0  0  0  0  0
   10.9772    1.8109    0.0000 C   0  0  0  0  0  0  0  0  0  0  0  0
    3.7320   -2.4724    0.0000 C   0  0  0  0  0  0  0  0  0  0  0  0
    5.2619   -2.9724    0.0000 C   0  0  0  0  0  0  0  0  0  0  0  0
   11.7165    2.4754    0.0000 C   0  0  0  0  0  0  0  0  0  0  0  0
    3.7320   -3.4724    0.0000 C   0  0  0  0  0  0  0  0  0  0  0  0
    2.8660   -1.9724    0.0000 C   0  0  0  0  0  0  0  0  0  0  0  0
   12.5808    1.9724    0.0000 C   0  0  0  0  0  0  0  0  0  0  0  0
    2.8660   -3.9724    0.0000 C   0  0  0  0  0  0  0  0  0  0  0  0
   11.7199    3.4754    0.0000 C   0  0  0  0  0  0  0  0  0  0  0  0
    2.0000   -2.4724    0.0000 C   0  0  0  0  0  0  0  0  0  0  0  0
    2.0000   -3.4724    0.0000 C   0  0  0  0  0  0  0  0  0  0  0  0
   13.4485    2.4694    0.0000 C   0  0  0  0  0  0  0  0  0  0  0  0
   12.5877    3.9724    0.0000 C   0  0  0  0  0  0  0  0  0  0  0  0
   13.4520    3.4694    0.0000 C   0  0  0  0  0  0  0  0  0  0  0  0
    5.8888    0.4221    0.0000 H   0  0  0  0  0  0  0  0  0  0  0  0
    6.8164    1.4586    0.0000 H   0  0  0  0  0  0  0  0  0  0  0  0
    6.0971    1.0450    0.0000 H   0  0  0  0  0  0  0  0  0  0  0  0
    6.5586   -1.1449    0.0000 H   0  0  0  0  0  0  0  0  0  0  0  0
    7.3836   -1.2331    0.0000 H   0  0  0  0  0  0  0  0  0  0  0  0
    8.1382   -0.7992    0.0000 H   0  0  0  0  0  0  0  0  0  0  0  0
    8.4770   -0.0418    0.0000 H   0  0  0  0  0  0  0  0  0  0  0  0
    8.5844    2.0626    0.0000 H   0  0  0  0  0  0  0  0  0  0  0  0
    7.8260    1.8176    0.0000 H   0  0  0  0  0  0  0  0  0  0  0  0
    4.8855    0.1948    0.0000 H   0  0  0  0  0  0  0  0  0  0  0  0
    9.0957    0.7041    0.0000 H   0  0  0  0  0  0  0  0  0  0  0  0
    9.8542    0.9491    0.0000 H   0  0  0  0  0  0  0  0  0  0  0  0
   10.2326    2.5950    0.0000 H   0  0  0  0  0  0  0  0  0  0  0  0
    9.4742    2.3500    0.0000 H   0  0  0  0  0  0  0  0  0  0  0  0
    5.8819   -2.9724    0.0000 H   0  0  0  0  0  0  0  0  0  0  0  0
    2.8660   -1.3524    0.0000 H   0  0  0  0  0  0  0  0  0  0  0  0
    2.8660   -4.5924    0.0000 H   0  0  0  0  0  0  0  0  0  0  0  0
   11.1841    3.7873    0.0000 H   0  0  0  0  0  0  0  0  0  0  0  0
    1.4631   -2.1624    0.0000 H   0  0  0  0  0  0  0  0  0  0  0  0
    1.4631   -3.7824    0.0000 H   0  0  0  0  0  0  0  0  0  0  0  0
   13.9844    2.1576    0.0000 H   0  0  0  0  0  0  0  0  0  0  0  0
   12.5898    4.5924    0.0000 H   0  0  0  0  0  0  0  0  0  0  0  0
   13.9900    3.7776    0.0000 H   0  0  0  0  0  0  0  0  0  0  0  0
  1  3  2  0  0  0  0
  1  4  2  0  0  0  0
  1  7  1  0  0  0  0
  1 16  1  0  0  0  0
  2 19  1  0  0  0  0
  2 21  1  0  0  0  0
  5  8  1  0  0  0  0
  5 23  1  0  0  0  0
  6 10  1  0  0  0  0
  6 12  1  0  0  0  0
  6 13  1  0  0  0  0
  9  7  1  6  0  0  0
  7 40  1  0  0  0  0
  8 17  2  0  0  0  0
  9 10  1  0  0  0  0
  9 11  1  0  0  0  0
  9 31  1  0  0  0  0
 10 32  1  0  0  0  0
 10 33  1  0  0  0  0
 11 12  1  0  0  0  0
 11 34  1  0  0  0  0
 11 35  1  0  0  0  0
 12 36  1  0  0  0  0
 12 37  1  0  0  0  0
 13 14  1  0  0  0  0
 13 38  1  0  0  0  0
 13 39  1  0  0  0  0
 14 15  1  0  0  0  0
 14 41  1  0  0  0  0
 14 42  1  0  0  0  0
 15 17  1  0  0  0  0
 15 43  1  0  0  0  0
 15 44  1  0  0  0  0
 16 18  1  0  0  0  0
 16 19  2  0  0  0  0
 17 20  1  0  0  0  0
 18 21  1  0  0  0  0
 18 22  2  0  0  0  0
 19 45  1  0  0  0  0
 20 23  1  0  0  0  0
 20 25  2  0  0  0  0
 21 24  2  0  0  0  0
 22 26  1  0  0  0  0
 22 46  1  0  0  0  0
 23 28  2  0  0  0  0
 24 27  1  0  0  0  0
 24 47  1  0  0  0  0
 25 29  1  0  0  0  0
 25 48  1  0  0  0  0
 26 27  2  0  0  0  0
 26 49  1  0  0  0  0
 27 50  1  0  0  0  0
 28 30  1  0  0  0  0
 28 51  1  0  0  0  0
 29 30  2  0  0  0  0
 29 52  1  0  0  0  0
 30 53  1  0  0  0  0
M  END
> <PUBCHEM_COMPOUND_CID>
162664339

> <PUBCHEM_COMPOUND_CANONICALIZED>
1

> <PUBCHEM_CACTVS_COMPLEXITY>
686

> <PUBCHEM_CACTVS_HBOND_ACCEPTOR>
7

> <PUBCHEM_CACTVS_HBOND_DONOR>
1

> <PUBCHEM_CACTVS_ROTATABLE_BOND>
7

> <PUBCHEM_CACTVS_SUBSKEYS>
AAADceB7MABgAAAAAAAAAAAAAAAAAWLEgAAwYAAAAAAAAFgB/gAAHgQUQAAADCzF3gSwh9NQAAqtA6RyQnDDAJAkKBBomLk+TNoIZrqg1ZOUMYBm0BmoyceYyKCOAAAAAAAMAAAAAAAAABgAAAAAAAAAAA==

> <PUBCHEM_IUPAC_OPENEYE_NAME>
N-[(3S)-1-[3-(1,2-benzoxazol-3-yl)propyl]pyrrolidin-3-yl]benzothiophene-3-sulfonamide

> <PUBCHEM_IUPAC_CAS_NAME>
N-[(3S)-1-[3-(1,2-benzoxazol-3-yl)propyl]-3-pyrrolidinyl]-1-benzothiophene-3-sulfonamide

> <PUBCHEM_IUPAC_NAME_MARKUP>
<I>N</I>-[(3<I>S</I>)-1-[3-(1,2-benzoxazol-3-yl)propyl]pyrrolidin-3-yl]-1-benzothiophene-3-sulfonamide

> <PUBCHEM_IUPAC_NAME>
N-[(3S)-1-[3-(1,2-benzoxazol-3-yl)propyl]pyrrolidin-3-yl]-1-benzothiophene-3-sulfonamide

> <PUBCHEM_IUPAC_SYSTEMATIC_NAME>
N-[(3S)-1-[3-(1,2-benzoxazol-3-yl)propyl]pyrrolidin-3-yl]-1-benzothiophene-3-sulfonamide

> <PUBCHEM_IUPAC_TRADITIONAL_NAME>
N-[(3S)-1-(3-indoxazen-3-ylpropyl)pyrrolidin-3-yl]benzothiophene-3-sulfonamide

> <PUBCHEM_IUPAC_INCHI>
InChI=1S/C22H23N3O3S2/c26-30(27,22-15-29-21-10-4-2-7-18(21)22)24-16-11-13-25(14-16)12-5-8-19-17-6-1-3-9-20(17)28-23-19/h1-4,6-7,9-10,15-16,24H,5,8,11-14H2/t16-/m0/s1

> <PUBCHEM_IUPAC_INCHIKEY>
VJVSHSVLEVBQER-INIZCTEOSA-N

> <PUBCHEM_XLOGP3_AA>
4.3

> <PUBCHEM_EXACT_MASS>
441.11808395

> <PUBCHEM_MOLECULAR_FORMULA>
C22H23N3O3S2

> <PUBCHEM_MOLECULAR_WEIGHT>
441.6

> <PUBCHEM_OPENEYE_CAN_SMILES>
C1CN(CC1NS(=O)(=O)C2=CSC3=CC=CC=C32)CCCC4=NOC5=CC=CC=C54

> <PUBCHEM_OPENEYE_ISO_SMILES>
C1CN(C[C@H]1NS(=O)(=O)C2=CSC3=CC=CC=C32)CCCC4=NOC5=CC=CC=C54

> <PUBCHEM_CACTVS_TPSA>
112

> <PUBCHEM_MONOISOTOPIC_WEIGHT>
441.11808395

> <PUBCHEM_TOTAL_CHARGE>
0

> <PUBCHEM_HEAVY_ATOM_COUNT>
30

> <PUBCHEM_ATOM_DEF_STEREO_COUNT>
1

> <PUBCHEM_ATOM_UDEF_STEREO_COUNT>
0

> <PUBCHEM_BOND_DEF_STEREO_COUNT>
0

> <PUBCHEM_BOND_UDEF_STEREO_COUNT>
0

> <PUBCHEM_ISOTOPIC_ATOM_COUNT>
0

> <PUBCHEM_COMPONENT_COUNT>
1

> <PUBCHEM_CACTVS_TAUTO_COUNT>
-1

> <PUBCHEM_COORDINATE_TYPE>
1
5
255

> <PUBCHEM_BONDANNOTATIONS>
16  18  8
16  19  8
17  20  8
18  21  8
18  22  8
2  19  8
2  21  8
20  23  8
20  25  8
21  24  8
22  26  8
23  28  8
24  27  8
25  29  8
26  27  8
28  30  8
29  30  8
5  23  8
5  8  8
9  7  6
8  17  8

$$$$
