10807035
  -OEChem-09292322142D

 42 45  0     1  0  0  0  0  0999 V2000
    2.0000    0.6779    0.0000 Cl  0  0  0  0  0  0  0  0  0  0  0  0
    9.8679   -0.7846    0.0000 O   0  0  0  0  0  0  0  0  0  0  0  0
    9.0019   -2.2846    0.0000 O   0  0  0  0  0  0  0  0  0  0  0  0
    6.3359   -0.8054    0.0000 N   0  0  3  0  0  0  0  0  0  0  0  0
    6.3359    0.2362    0.0000 C   0  0  0  0  0  0  0  0  0  0  0  0
    7.2419    0.7500    0.0000 C   0  0  0  0  0  0  0  0  0  0  0  0
    8.1359    0.2154    0.0000 C   0  0  0  0  0  0  0  0  0  0  0  0
    7.2419   -1.3193    0.0000 C   0  0  0  0  0  0  0  0  0  0  0  0
    8.1359   -0.7846    0.0000 C   0  0  0  0  0  0  0  0  0  0  0  0
    5.4718   -1.3088    0.0000 C   0  0  0  0  0  0  0  0  0  0  0  0
    9.0019    0.7154    0.0000 C   0  0  0  0  0  0  0  0  0  0  0  0
    9.0019   -1.2846    0.0000 C   0  0  0  0  0  0  0  0  0  0  0  0
    9.8679    0.2154    0.0000 C   0  0  0  0  0  0  0  0  0  0  0  0
    4.6038   -0.8121    0.0000 C   0  0  0  0  0  0  0  0  0  0  0  0
    8.9858    1.7569    0.0000 C   0  0  0  0  0  0  0  0  0  0  0  0
   10.7779    0.7222    0.0000 C   0  0  0  0  0  0  0  0  0  0  0  0
   10.7860    1.7638    0.0000 C   0  0  0  0  0  0  0  0  0  0  0  0
    9.8839    2.2846    0.0000 C   0  0  0  0  0  0  0  0  0  0  0  0
    4.6000    0.1879    0.0000 C   0  0  0  0  0  0  0  0  0  0  0  0
    3.7398   -1.3155    0.0000 C   0  0  0  0  0  0  0  0  0  0  0  0
   11.6539    2.2605    0.0000 C   0  0  0  0  0  0  0  0  0  0  0  0
    3.7320    0.6845    0.0000 C   0  0  0  0  0  0  0  0  0  0  0  0
    2.8718   -0.8188    0.0000 C   0  0  0  0  0  0  0  0  0  0  0  0
    2.8680    0.1812    0.0000 C   0  0  0  0  0  0  0  0  0  0  0  0
    6.1268    0.8199    0.0000 H   0  0  0  0  0  0  0  0  0  0  0  0
    5.7250    0.1301    0.0000 H   0  0  0  0  0  0  0  0  0  0  0  0
    7.6465    1.2198    0.0000 H   0  0  0  0  0  0  0  0  0  0  0  0
    6.8483    1.2290    0.0000 H   0  0  0  0  0  0  0  0  0  0  0  0
    6.8483   -1.7983    0.0000 H   0  0  0  0  0  0  0  0  0  0  0  0
    7.6465   -1.7891    0.0000 H   0  0  0  0  0  0  0  0  0  0  0  0
    5.0751   -1.7853    0.0000 H   0  0  0  0  0  0  0  0  0  0  0  0
    5.8721   -1.7822    0.0000 H   0  0  0  0  0  0  0  0  0  0  0  0
    8.4454    2.0606    0.0000 H   0  0  0  0  0  0  0  0  0  0  0  0
   11.3113    0.4060    0.0000 H   0  0  0  0  0  0  0  0  0  0  0  0
    9.8815    2.9046    0.0000 H   0  0  0  0  0  0  0  0  0  0  0  0
    5.1357    0.4999    0.0000 H   0  0  0  0  0  0  0  0  0  0  0  0
    3.7421   -1.9354    0.0000 H   0  0  0  0  0  0  0  0  0  0  0  0
   11.9618    1.7224    0.0000 H   0  0  0  0  0  0  0  0  0  0  0  0
   12.1920    2.5684    0.0000 H   0  0  0  0  0  0  0  0  0  0  0  0
   11.3460    2.7986    0.0000 H   0  0  0  0  0  0  0  0  0  0  0  0
    3.7296    1.3045    0.0000 H   0  0  0  0  0  0  0  0  0  0  0  0
    2.3361   -1.1309    0.0000 H   0  0  0  0  0  0  0  0  0  0  0  0
  1 24  1  0  0  0  0
  2 12  1  0  0  0  0
  2 13  1  0  0  0  0
  3 12  2  0  0  0  0
  4  5  1  0  0  0  0
  4  8  1  0  0  0  0
  4 10  1  0  0  0  0
  5  6  1  0  0  0  0
  5 25  1  0  0  0  0
  5 26  1  0  0  0  0
  6  7  1  0  0  0  0
  6 27  1  0  0  0  0
  6 28  1  0  0  0  0
  7  9  2  0  0  0  0
  7 11  1  0  0  0  0
  8  9  1  0  0  0  0
  8 29  1  0  0  0  0
  8 30  1  0  0  0  0
  9 12  1  0  0  0  0
 10 14  1  0  0  0  0
 10 31  1  0  0  0  0
 10 32  1  0  0  0  0
 11 13  2  0  0  0  0
 11 15  1  0  0  0  0
 13 16  1  0  0  0  0
 14 19  2  0  0  0  0
 14 20  1  0  0  0  0
 15 18  2  0  0  0  0
 15 33  1  0  0  0  0
 16 17  2  0  0  0  0
 16 34  1  0  0  0  0
 17 18  1  0  0  0  0
 17 21  1  0  0  0  0
 18 35  1  0  0  0  0
 19 22  1  0  0  0  0
 19 36  1  0  0  0  0
 20 23  2  0  0  0  0
 20 37  1  0  0  0  0
 21 38  1  0  0  0  0
 21 39  1  0  0  0  0
 21 40  1  0  0  0  0
 22 24  2  0  0  0  0
 22 41  1  0  0  0  0
 23 24  1  0  0  0  0
 23 42  1  0  0  0  0
M  END
> <PUBCHEM_COMPOUND_CID>
10807035

> <PUBCHEM_COMPOUND_CANONICALIZED>
1

> <PUBCHEM_CACTVS_COMPLEXITY>
524

> <PUBCHEM_CACTVS_HBOND_ACCEPTOR>
3

> <PUBCHEM_CACTVS_HBOND_DONOR>
0

> <PUBCHEM_CACTVS_ROTATABLE_BOND>
2

> <PUBCHEM_CACTVS_SUBSKEYS>
AAADceB6MAAEAAAAAAAAAAAAAAAAAAAAAAAwYIEAAAAAAACxQAAAHgIAAAAADAbBmCQyDoMABACIAiDSCACCCAAgJQAIiAEODsgMJiqFsxuGOijmwBGIqQeQ0PIORAABAAAIAACIAAIAABAAAAAAAAAAAA==

> <PUBCHEM_IUPAC_OPENEYE_NAME>
3-[(4-chlorophenyl)methyl]-8-methyl-2,4-dihydro-1H-chromeno[3,4-c]pyridin-5-one

> <PUBCHEM_IUPAC_CAS_NAME>
3-[(4-chlorophenyl)methyl]-8-methyl-2,4-dihydro-1H-[1]benzopyrano[3,4-c]pyridin-5-one

> <PUBCHEM_IUPAC_NAME_MARKUP>
3-[(4-chlorophenyl)methyl]-8-methyl-2,4-dihydro-1<I>H</I>-chromeno[3,4-c]pyridin-5-one

> <PUBCHEM_IUPAC_NAME>
3-[(4-chlorophenyl)methyl]-8-methyl-2,4-dihydro-1H-chromeno[3,4-c]pyridin-5-one

> <PUBCHEM_IUPAC_SYSTEMATIC_NAME>
3-[(4-chlorophenyl)methyl]-8-methyl-2,4-dihydro-1H-chromeno[3,4-c]pyridin-5-one

> <PUBCHEM_IUPAC_TRADITIONAL_NAME>
3-(4-chlorobenzyl)-8-methyl-2,4-dihydro-1H-chromeno[3,4-c]pyridin-5-one

> <PUBCHEM_IUPAC_INCHI>
InChI=1S/C20H18ClNO2/c1-13-2-7-17-16-8-9-22(11-14-3-5-15(21)6-4-14)12-18(16)20(23)24-19(17)10-13/h2-7,10H,8-9,11-12H2,1H3

> <PUBCHEM_IUPAC_INCHIKEY>
MCJPCWOSNLXXLG-UHFFFAOYSA-N

> <PUBCHEM_XLOGP3_AA>
3.8

> <PUBCHEM_EXACT_MASS>
339.1026065

> <PUBCHEM_MOLECULAR_FORMULA>
C20H18ClNO2

> <PUBCHEM_MOLECULAR_WEIGHT>
339.8

> <PUBCHEM_OPENEYE_CAN_SMILES>
CC1=CC2=C(C=C1)C3=C(CN(CC3)CC4=CC=C(C=C4)Cl)C(=O)O2

> <PUBCHEM_OPENEYE_ISO_SMILES>
CC1=CC2=C(C=C1)C3=C(CN(CC3)CC4=CC=C(C=C4)Cl)C(=O)O2

> <PUBCHEM_CACTVS_TPSA>
29.5

> <PUBCHEM_MONOISOTOPIC_WEIGHT>
339.1026065

> <PUBCHEM_TOTAL_CHARGE>
0

> <PUBCHEM_HEAVY_ATOM_COUNT>
24

> <PUBCHEM_ATOM_DEF_STEREO_COUNT>
0

> <PUBCHEM_ATOM_UDEF_STEREO_COUNT>
0

> <PUBCHEM_BOND_DEF_STEREO_COUNT>
0

> <PUBCHEM_BOND_UDEF_STEREO_COUNT>
0

> <PUBCHEM_ISOTOPIC_ATOM_COUNT>
0

> <PUBCHEM_COMPONENT_COUNT>
1

> <PUBCHEM_CACTVS_TAUTO_COUNT>
-1

> <PUBCHEM_COORDINATE_TYPE>
1
5
255

> <PUBCHEM_BONDANNOTATIONS>
11  13  8
11  15  8
13  16  8
14  19  8
14  20  8
15  18  8
16  17  8
17  18  8
19  22  8
2  12  8
2  13  8
20  23  8
22  24  8
23  24  8
7  11  8
7  9  8
9  12  8

$$$$
