137648359
  -OEChem-09292322392D

 84 84  0     0  0  0  0  0  0999 V2000
   11.1360   17.2741    0.0000 Cl  0  0  0  0  0  0  0  0  0  0  0  0
   10.0021    3.3100    0.0000 S   0  0  0  0  0  0  0  0  0  0  0  0
   10.8681    2.8100    0.0000 S   0  0  0  0  0  0  0  0  0  0  0  0
    0.0000    7.8201    0.0000 F   0  0  0  0  0  0  0  0  0  0  0  0
    0.3660    9.1861    0.0000 F   0  0  0  0  0  0  0  0  0  0  0  0
    1.3660    7.4540    0.0000 F   0  0  0  0  0  0  0  0  0  0  0  0
   14.3447    7.8201    0.0000 F   0  0  0  0  0  0  0  0  0  0  0  0
   14.7107    9.1861    0.0000 F   0  0  0  0  0  0  0  0  0  0  0  0
   15.7107    7.4540    0.0000 F   0  0  0  0  0  0  0  0  0  0  0  0
    8.6360   14.6760    0.0000 O   0  0  0  0  0  0  0  0  0  0  0  0
    6.5380    7.3100    0.0000 O   0  0  0  0  0  0  0  0  0  0  0  0
    8.2700    6.3100    0.0000 O   0  0  0  0  0  0  0  0  0  0  0  0
    2.5981    8.3201    0.0000 O   0  0  0  0  0  0  0  0  0  0  0  0
   16.9428    8.3201    0.0000 O   0  0  0  0  0  0  0  0  0  0  0  0
    1.7320    9.8201    0.0000 O   0  0  0  0  0  0  0  0  0  0  0  0
   16.0768    9.8201    0.0000 O   0  0  0  0  0  0  0  0  0  0  0  0
    9.1360   11.8100    0.0000 N   0  0  0  0  0  0  0  0  0  0  0  0
   11.7341    0.3100    0.0000 N   0  0  0  0  0  0  0  0  0  0  0  0
    9.1360   13.8100    0.0000 C   0  0  0  0  0  0  0  0  0  0  0  0
   10.0021   13.3100    0.0000 C   0  0  0  0  0  0  0  0  0  0  0  0
    8.2700   13.3100    0.0000 C   0  0  0  0  0  0  0  0  0  0  0  0
   10.0021   12.3100    0.0000 C   0  0  0  0  0  0  0  0  0  0  0  0
    8.2700   12.3100    0.0000 C   0  0  0  0  0  0  0  0  0  0  0  0
    9.6360   14.6760    0.0000 C   0  0  0  0  0  0  0  0  0  0  0  0
    9.1360   10.8100    0.0000 C   0  0  0  0  0  0  0  0  0  0  0  0
    8.2700   10.3100    0.0000 C   0  0  0  0  0  0  0  0  0  0  0  0
   10.6360   14.6760    0.0000 C   0  0  0  0  0  0  0  0  0  0  0  0
    9.1360   15.5421    0.0000 C   0  0  0  0  0  0  0  0  0  0  0  0
    8.2700    9.3100    0.0000 C   0  0  0  0  0  0  0  0  0  0  0  0
   11.1360   15.5421    0.0000 C   0  0  0  0  0  0  0  0  0  0  0  0
    9.6360   16.4081    0.0000 C   0  0  0  0  0  0  0  0  0  0  0  0
   10.6360   16.4081    0.0000 C   0  0  0  0  0  0  0  0  0  0  0  0
    7.4040    8.8100    0.0000 C   0  0  0  0  0  0  0  0  0  0  0  0
    9.1360    8.8100    0.0000 C   0  0  0  0  0  0  0  0  0  0  0  0
    7.4040    7.8100    0.0000 C   0  0  0  0  0  0  0  0  0  0  0  0
    9.1360    7.8100    0.0000 C   0  0  0  0  0  0  0  0  0  0  0  0
    8.2700    7.3100    0.0000 C   0  0  0  0  0  0  0  0  0  0  0  0
    9.1360    5.8100    0.0000 C   0  0  0  0  0  0  0  0  0  0  0  0
    5.6720    7.8100    0.0000 C   0  0  0  0  0  0  0  0  0  0  0  0
    9.1360    4.8100    0.0000 C   0  0  0  0  0  0  0  0  0  0  0  0
   10.0021    4.3100    0.0000 C   0  0  0  0  0  0  0  0  0  0  0  0
   10.8681    1.8100    0.0000 C   0  0  0  0  0  0  0  0  0  0  0  0
   11.7341    1.3100    0.0000 C   0  0  0  0  0  0  0  0  0  0  0  0
    0.8660    8.3201    0.0000 C   0  0  0  0  0  0  0  0  0  0  0  0
   15.2107    8.3201    0.0000 C   0  0  0  0  0  0  0  0  0  0  0  0
    1.7320    8.8201    0.0000 C   0  0  0  0  0  0  0  0  0  0  0  0
   16.0768    8.8201    0.0000 C   0  0  0  0  0  0  0  0  0  0  0  0
   10.6127   13.2023    0.0000 H   0  0  0  0  0  0  0  0  0  0  0  0
   10.2141   13.8926    0.0000 H   0  0  0  0  0  0  0  0  0  0  0  0
    8.0580   13.8926    0.0000 H   0  0  0  0  0  0  0  0  0  0  0  0
    7.6594   13.2023    0.0000 H   0  0  0  0  0  0  0  0  0  0  0  0
   10.2141   11.7274    0.0000 H   0  0  0  0  0  0  0  0  0  0  0  0
   10.6127   12.4177    0.0000 H   0  0  0  0  0  0  0  0  0  0  0  0
    7.6594   12.4177    0.0000 H   0  0  0  0  0  0  0  0  0  0  0  0
    8.0580   11.7274    0.0000 H   0  0  0  0  0  0  0  0  0  0  0  0
    9.3481   10.2274    0.0000 H   0  0  0  0  0  0  0  0  0  0  0  0
    9.7466   10.9177    0.0000 H   0  0  0  0  0  0  0  0  0  0  0  0
    8.0160   14.6760    0.0000 H   0  0  0  0  0  0  0  0  0  0  0  0
    8.0580   10.8926    0.0000 H   0  0  0  0  0  0  0  0  0  0  0  0
    7.6594   10.2023    0.0000 H   0  0  0  0  0  0  0  0  0  0  0  0
   10.9460   14.1391    0.0000 H   0  0  0  0  0  0  0  0  0  0  0  0
    8.5160   15.5421    0.0000 H   0  0  0  0  0  0  0  0  0  0  0  0
   11.7560   15.5421    0.0000 H   0  0  0  0  0  0  0  0  0  0  0  0
    9.3260   16.9450    0.0000 H   0  0  0  0  0  0  0  0  0  0  0  0
    6.8671    9.1200    0.0000 H   0  0  0  0  0  0  0  0  0  0  0  0
    9.6730    9.1200    0.0000 H   0  0  0  0  0  0  0  0  0  0  0  0
    9.6730    7.5000    0.0000 H   0  0  0  0  0  0  0  0  0  0  0  0
    9.7466    5.7023    0.0000 H   0  0  0  0  0  0  0  0  0  0  0  0
    9.3481    6.3926    0.0000 H   0  0  0  0  0  0  0  0  0  0  0  0
    5.9820    8.3469    0.0000 H   0  0  0  0  0  0  0  0  0  0  0  0
    5.1350    8.1200    0.0000 H   0  0  0  0  0  0  0  0  0  0  0  0
    5.3620    7.2731    0.0000 H   0  0  0  0  0  0  0  0  0  0  0  0
    8.5255    4.9177    0.0000 H   0  0  0  0  0  0  0  0  0  0  0  0
    8.9240    4.2274    0.0000 H   0  0  0  0  0  0  0  0  0  0  0  0
   10.6127    4.2023    0.0000 H   0  0  0  0  0  0  0  0  0  0  0  0
   10.2141    4.8926    0.0000 H   0  0  0  0  0  0  0  0  0  0  0  0
   10.2575    1.9177    0.0000 H   0  0  0  0  0  0  0  0  0  0  0  0
   10.6560    1.2274    0.0000 H   0  0  0  0  0  0  0  0  0  0  0  0
   12.3447    1.2023    0.0000 H   0  0  0  0  0  0  0  0  0  0  0  0
   11.9462    1.8926    0.0000 H   0  0  0  0  0  0  0  0  0  0  0  0
   12.2711    0.0000    0.0000 H   0  0  0  0  0  0  0  0  0  0  0  0
   11.1972    0.0000    0.0000 H   0  0  0  0  0  0  0  0  0  0  0  0
    3.1350    8.6301    0.0000 H   0  0  0  0  0  0  0  0  0  0  0  0
   17.4797    8.6301    0.0000 H   0  0  0  0  0  0  0  0  0  0  0  0
  1 32  1  0  0  0  0
  2  3  1  0  0  0  0
  2 41  1  0  0  0  0
  3 42  1  0  0  0  0
  4 44  1  0  0  0  0
  5 44  1  0  0  0  0
  6 44  1  0  0  0  0
  7 45  1  0  0  0  0
  8 45  1  0  0  0  0
  9 45  1  0  0  0  0
 10 19  1  0  0  0  0
 10 58  1  0  0  0  0
 11 35  1  0  0  0  0
 11 39  1  0  0  0  0
 12 37  1  0  0  0  0
 12 38  1  0  0  0  0
 13 46  1  0  0  0  0
 13 83  1  0  0  0  0
 14 47  1  0  0  0  0
 14 84  1  0  0  0  0
 15 46  2  0  0  0  0
 16 47  2  0  0  0  0
 17 22  1  0  0  0  0
 17 23  1  0  0  0  0
 17 25  1  0  0  0  0
 18 43  1  0  0  0  0
 18 81  1  0  0  0  0
 18 82  1  0  0  0  0
 19 20  1  0  0  0  0
 19 21  1  0  0  0  0
 19 24  1  0  0  0  0
 20 22  1  0  0  0  0
 20 48  1  0  0  0  0
 20 49  1  0  0  0  0
 21 23  1  0  0  0  0
 21 50  1  0  0  0  0
 21 51  1  0  0  0  0
 22 52  1  0  0  0  0
 22 53  1  0  0  0  0
 23 54  1  0  0  0  0
 23 55  1  0  0  0  0
 24 27  2  0  0  0  0
 24 28  1  0  0  0  0
 25 26  1  0  0  0  0
 25 56  1  0  0  0  0
 25 57  1  0  0  0  0
 26 29  1  0  0  0  0
 26 59  1  0  0  0  0
 26 60  1  0  0  0  0
 27 30  1  0  0  0  0
 27 61  1  0  0  0  0
 28 31  2  0  0  0  0
 28 62  1  0  0  0  0
 29 33  2  0  0  0  0
 29 34  1  0  0  0  0
 30 32  2  0  0  0  0
 30 63  1  0  0  0  0
 31 32  1  0  0  0  0
 31 64  1  0  0  0  0
 33 35  1  0  0  0  0
 33 65  1  0  0  0  0
 34 36  2  0  0  0  0
 34 66  1  0  0  0  0
 35 37  2  0  0  0  0
 36 37  1  0  0  0  0
 36 67  1  0  0  0  0
 38 40  1  0  0  0  0
 38 68  1  0  0  0  0
 38 69  1  0  0  0  0
 39 70  1  0  0  0  0
 39 71  1  0  0  0  0
 39 72  1  0  0  0  0
 40 41  1  0  0  0  0
 40 73  1  0  0  0  0
 40 74  1  0  0  0  0
 41 75  1  0  0  0  0
 41 76  1  0  0  0  0
 42 43  1  0  0  0  0
 42 77  1  0  0  0  0
 42 78  1  0  0  0  0
 43 79  1  0  0  0  0
 43 80  1  0  0  0  0
 44 46  1  0  0  0  0
 45 47  1  0  0  0  0
M  END
> <PUBCHEM_COMPOUND_CID>
137648359

> <PUBCHEM_COMPOUND_CANONICALIZED>
1

> <PUBCHEM_CACTVS_COMPLEXITY>
615

> <PUBCHEM_CACTVS_HBOND_ACCEPTOR>
17

> <PUBCHEM_CACTVS_HBOND_DONOR>
4

> <PUBCHEM_CACTVS_ROTATABLE_BOND>
13

> <PUBCHEM_CACTVS_SUBSKEYS>
AAADcfB7OcBkAAAAAAAAAAAAAAAAAAAAAAA8YIAAAAAAAAABQAAAHwYQCAAADEbl2DayDoNABgCIAiDSCAACCAAgJQAIiIAOiogNJiKFsxuGeCKm0BGKuAeQ0PIOpAABAAAAQABIAAIAAACAAAAAAAAAAA==

> <PUBCHEM_IUPAC_OPENEYE_NAME>
1-[2-[4-[3-(2-aminoethyldisulfanyl)propoxy]-3-methoxy-phenyl]ethyl]-4-(4-chlorophenyl)piperidin-4-ol;2,2,2-trifluoroacetic acid

> <PUBCHEM_IUPAC_CAS_NAME>
1-[2-[4-[3-(2-aminoethyldisulfanyl)propoxy]-3-methoxyphenyl]ethyl]-4-(4-chlorophenyl)-4-piperidinol;2,2,2-trifluoroacetic acid

> <PUBCHEM_IUPAC_NAME_MARKUP>
1-[2-[4-[3-(2-aminoethyldisulfanyl)propoxy]-3-methoxyphenyl]ethyl]-4-(4-chlorophenyl)piperidin-4-ol;2,2,2-trifluoroacetic acid

> <PUBCHEM_IUPAC_NAME>
1-[2-[4-[3-(2-aminoethyldisulfanyl)propoxy]-3-methoxyphenyl]ethyl]-4-(4-chlorophenyl)piperidin-4-ol;2,2,2-trifluoroacetic acid

> <PUBCHEM_IUPAC_SYSTEMATIC_NAME>
1-[2-[4-[3-(2-azanylethyldisulfanyl)propoxy]-3-methoxy-phenyl]ethyl]-4-(4-chlorophenyl)piperidin-4-ol;2,2,2-tris(fluoranyl)ethanoic acid

> <PUBCHEM_IUPAC_TRADITIONAL_NAME>
1-[2-[4-[3-(2-aminoethyldisulfanyl)propoxy]-3-methoxy-phenyl]ethyl]-4-(4-chlorophenyl)piperidin-4-ol;2,2,2-trifluoroacetic acid

> <PUBCHEM_IUPAC_INCHI>
InChI=1S/C25H35ClN2O3S2.2C2HF3O2/c1-30-24-19-20(3-8-23(24)31-16-2-17-32-33-18-12-27)9-13-28-14-10-25(29,11-15-28)21-4-6-22(26)7-5-21;2*3-2(4,5)1(6)7/h3-8,19,29H,2,9-18,27H2,1H3;2*(H,6,7)

> <PUBCHEM_IUPAC_INCHIKEY>
GGQVWQXOXKHXLB-UHFFFAOYSA-N

> <PUBCHEM_EXACT_MASS>
738.1634905

> <PUBCHEM_MOLECULAR_FORMULA>
C29H37ClF6N2O7S2

> <PUBCHEM_MOLECULAR_WEIGHT>
739.2

> <PUBCHEM_OPENEYE_CAN_SMILES>
COC1=C(C=CC(=C1)CCN2CCC(CC2)(C3=CC=C(C=C3)Cl)O)OCCCSSCCN.C(=O)(C(F)(F)F)O.C(=O)(C(F)(F)F)O

> <PUBCHEM_OPENEYE_ISO_SMILES>
COC1=C(C=CC(=C1)CCN2CCC(CC2)(C3=CC=C(C=C3)Cl)O)OCCCSSCCN.C(=O)(C(F)(F)F)O.C(=O)(C(F)(F)F)O

> <PUBCHEM_CACTVS_TPSA>
193

> <PUBCHEM_MONOISOTOPIC_WEIGHT>
738.1634905

> <PUBCHEM_TOTAL_CHARGE>
0

> <PUBCHEM_HEAVY_ATOM_COUNT>
47

> <PUBCHEM_ATOM_DEF_STEREO_COUNT>
0

> <PUBCHEM_ATOM_UDEF_STEREO_COUNT>
0

> <PUBCHEM_BOND_DEF_STEREO_COUNT>
0

> <PUBCHEM_BOND_UDEF_STEREO_COUNT>
0

> <PUBCHEM_ISOTOPIC_ATOM_COUNT>
0

> <PUBCHEM_COMPONENT_COUNT>
3

> <PUBCHEM_CACTVS_TAUTO_COUNT>
-1

> <PUBCHEM_COORDINATE_TYPE>
1
5
255

> <PUBCHEM_BONDANNOTATIONS>
24  27  8
24  28  8
27  30  8
28  31  8
29  33  8
29  34  8
30  32  8
31  32  8
33  35  8
34  36  8
35  37  8
36  37  8

$$$$
