44419060
  -OEChem-09292322242D

 60 63  0     0  0  0  0  0  0999 V2000
   15.4939   -2.4820    0.0000 O   0  0  0  0  0  0  0  0  0  0  0  0
    6.4103    1.0433    0.0000 O   0  0  0  0  0  0  0  0  0  0  0  0
    8.4939    2.7141    0.0000 O   0  0  0  0  0  0  0  0  0  0  0  0
   12.4939   -0.7500    0.0000 N   0  0  0  0  0  0  0  0  0  0  0  0
   14.4939   -0.7500    0.0000 N   0  0  0  0  0  0  0  0  0  0  0  0
    8.4939    0.9821    0.0000 N   0  0  0  0  0  0  0  0  0  0  0  0
    2.0000    3.3481    0.0000 N   0  0  0  0  0  0  0  0  0  0  0  0
   12.9939   -1.6160    0.0000 C   0  0  0  0  0  0  0  0  0  0  0  0
   12.9939    0.1160    0.0000 C   0  0  0  0  0  0  0  0  0  0  0  0
   13.9939   -1.6160    0.0000 C   0  0  0  0  0  0  0  0  0  0  0  0
   13.9939    0.1160    0.0000 C   0  0  0  0  0  0  0  0  0  0  0  0
   11.4939   -0.7500    0.0000 C   0  0  0  0  0  0  0  0  0  0  0  0
   10.9939    0.1160    0.0000 C   0  0  0  0  0  0  0  0  0  0  0  0
   15.4939   -0.7500    0.0000 C   0  0  0  0  0  0  0  0  0  0  0  0
    9.9939    0.1160    0.0000 C   0  0  0  0  0  0  0  0  0  0  0  0
    9.4939    0.9821    0.0000 C   0  0  0  0  0  0  0  0  0  0  0  0
   15.9939   -1.6160    0.0000 C   0  0  0  0  0  0  0  0  0  0  0  0
   15.9939    0.1160    0.0000 C   0  0  0  0  0  0  0  0  0  0  0  0
   16.9939   -1.6160    0.0000 C   0  0  0  0  0  0  0  0  0  0  0  0
   16.9939    0.1160    0.0000 C   0  0  0  0  0  0  0  0  0  0  0  0
   17.4939   -0.7500    0.0000 C   0  0  0  0  0  0  0  0  0  0  0  0
    7.9939    1.8481    0.0000 C   0  0  0  0  0  0  0  0  0  0  0  0
    6.9939    1.8481    0.0000 C   0  0  0  0  0  0  0  0  0  0  0  0
   15.9939   -3.3481    0.0000 C   0  0  0  0  0  0  0  0  0  0  0  0
    6.4103    2.6528    0.0000 C   0  0  0  0  0  0  0  0  0  0  0  0
    5.4641    2.3481    0.0000 C   0  0  0  0  0  0  0  0  0  0  0  0
    5.4641    1.3481    0.0000 C   0  0  0  0  0  0  0  0  0  0  0  0
    4.5981    2.8481    0.0000 C   0  0  0  0  0  0  0  0  0  0  0  0
    4.5981    0.8481    0.0000 C   0  0  0  0  0  0  0  0  0  0  0  0
    3.7320    2.3481    0.0000 C   0  0  0  0  0  0  0  0  0  0  0  0
    3.7320    1.3481    0.0000 C   0  0  0  0  0  0  0  0  0  0  0  0
    2.8660    2.8481    0.0000 C   0  0  0  0  0  0  0  0  0  0  0  0
   12.4113   -1.8281    0.0000 H   0  0  0  0  0  0  0  0  0  0  0  0
   13.1016   -2.2266    0.0000 H   0  0  0  0  0  0  0  0  0  0  0  0
   13.1016    0.7266    0.0000 H   0  0  0  0  0  0  0  0  0  0  0  0
   12.4113    0.3281    0.0000 H   0  0  0  0  0  0  0  0  0  0  0  0
   13.8863   -2.2266    0.0000 H   0  0  0  0  0  0  0  0  0  0  0  0
   14.5765   -1.8281    0.0000 H   0  0  0  0  0  0  0  0  0  0  0  0
   14.5765    0.3281    0.0000 H   0  0  0  0  0  0  0  0  0  0  0  0
   13.8863    0.7266    0.0000 H   0  0  0  0  0  0  0  0  0  0  0  0
   10.9113   -0.9621    0.0000 H   0  0  0  0  0  0  0  0  0  0  0  0
   11.6016   -1.3606    0.0000 H   0  0  0  0  0  0  0  0  0  0  0  0
   11.5765    0.3281    0.0000 H   0  0  0  0  0  0  0  0  0  0  0  0
   10.8863    0.7266    0.0000 H   0  0  0  0  0  0  0  0  0  0  0  0
    9.4113   -0.0960    0.0000 H   0  0  0  0  0  0  0  0  0  0  0  0
   10.1016   -0.4946    0.0000 H   0  0  0  0  0  0  0  0  0  0  0  0
   10.0765    1.1941    0.0000 H   0  0  0  0  0  0  0  0  0  0  0  0
    9.3863    1.5926    0.0000 H   0  0  0  0  0  0  0  0  0  0  0  0
   15.6839    0.6530    0.0000 H   0  0  0  0  0  0  0  0  0  0  0  0
   17.3039   -2.1530    0.0000 H   0  0  0  0  0  0  0  0  0  0  0  0
    8.1839    0.4451    0.0000 H   0  0  0  0  0  0  0  0  0  0  0  0
   17.3039    0.6530    0.0000 H   0  0  0  0  0  0  0  0  0  0  0  0
   18.1139   -0.7500    0.0000 H   0  0  0  0  0  0  0  0  0  0  0  0
   15.4570   -3.6581    0.0000 H   0  0  0  0  0  0  0  0  0  0  0  0
   16.3039   -3.8850    0.0000 H   0  0  0  0  0  0  0  0  0  0  0  0
   16.5309   -3.0381    0.0000 H   0  0  0  0  0  0  0  0  0  0  0  0
    6.6029    3.2421    0.0000 H   0  0  0  0  0  0  0  0  0  0  0  0
    4.5981    3.4681    0.0000 H   0  0  0  0  0  0  0  0  0  0  0  0
    4.5981    0.2281    0.0000 H   0  0  0  0  0  0  0  0  0  0  0  0
    3.1951    1.0381    0.0000 H   0  0  0  0  0  0  0  0  0  0  0  0
  1 17  1  0  0  0  0
  1 24  1  0  0  0  0
  2 23  1  0  0  0  0
  2 27  1  0  0  0  0
  3 22  2  0  0  0  0
  4  8  1  0  0  0  0
  4  9  1  0  0  0  0
  4 12  1  0  0  0  0
  5 10  1  0  0  0  0
  5 11  1  0  0  0  0
  5 14  1  0  0  0  0
  6 16  1  0  0  0  0
  6 22  1  0  0  0  0
  6 51  1  0  0  0  0
  7 32  3  0  0  0  0
  8 10  1  0  0  0  0
  8 33  1  0  0  0  0
  8 34  1  0  0  0  0
  9 11  1  0  0  0  0
  9 35  1  0  0  0  0
  9 36  1  0  0  0  0
 10 37  1  0  0  0  0
 10 38  1  0  0  0  0
 11 39  1  0  0  0  0
 11 40  1  0  0  0  0
 12 13  1  0  0  0  0
 12 41  1  0  0  0  0
 12 42  1  0  0  0  0
 13 15  1  0  0  0  0
 13 43  1  0  0  0  0
 13 44  1  0  0  0  0
 14 17  1  0  0  0  0
 14 18  2  0  0  0  0
 15 16  1  0  0  0  0
 15 45  1  0  0  0  0
 15 46  1  0  0  0  0
 16 47  1  0  0  0  0
 16 48  1  0  0  0  0
 17 19  2  0  0  0  0
 18 20  1  0  0  0  0
 18 49  1  0  0  0  0
 19 21  1  0  0  0  0
 19 50  1  0  0  0  0
 20 21  2  0  0  0  0
 20 52  1  0  0  0  0
 21 53  1  0  0  0  0
 22 23  1  0  0  0  0
 23 25  2  0  0  0  0
 24 54  1  0  0  0  0
 24 55  1  0  0  0  0
 24 56  1  0  0  0  0
 25 26  1  0  0  0  0
 25 57  1  0  0  0  0
 26 27  2  0  0  0  0
 26 28  1  0  0  0  0
 27 29  1  0  0  0  0
 28 30  2  0  0  0  0
 28 58  1  0  0  0  0
 29 31  2  0  0  0  0
 29 59  1  0  0  0  0
 30 31  1  0  0  0  0
 30 32  1  0  0  0  0
 31 60  1  0  0  0  0
M  END
> <PUBCHEM_COMPOUND_CID>
44419060

> <PUBCHEM_COMPOUND_CANONICALIZED>
1

> <PUBCHEM_CACTVS_COMPLEXITY>
657

> <PUBCHEM_CACTVS_HBOND_ACCEPTOR>
6

> <PUBCHEM_CACTVS_HBOND_DONOR>
1

> <PUBCHEM_CACTVS_ROTATABLE_BOND>
8

> <PUBCHEM_CACTVS_SUBSKEYS>
AAADceB7sAAAAAAAAAAAAAAAAAAAASAAAAA8YIAAAAAAAEgB9AAAHgAQAAAADAzBmAYyxsPABECYBqVSUAKiCAAlIgAIiIHPbMgO5jLEtb+XOSjk1hHY6Y+Y3/LuIAACAAAIEABAAAQAABAgAAAAAAAAAA==

> <PUBCHEM_IUPAC_OPENEYE_NAME>
5-cyano-N-[4-[4-(2-methoxyphenyl)piperazin-1-yl]butyl]benzofuran-2-carboxamide

> <PUBCHEM_IUPAC_CAS_NAME>
5-cyano-N-[4-[4-(2-methoxyphenyl)-1-piperazinyl]butyl]-2-benzofurancarboxamide

> <PUBCHEM_IUPAC_NAME_MARKUP>
5-cyano-<I>N</I>-[4-[4-(2-methoxyphenyl)piperazin-1-yl]butyl]-1-benzofuran-2-carboxamide

> <PUBCHEM_IUPAC_NAME>
5-cyano-N-[4-[4-(2-methoxyphenyl)piperazin-1-yl]butyl]-1-benzofuran-2-carboxamide

> <PUBCHEM_IUPAC_SYSTEMATIC_NAME>
5-cyano-N-[4-[4-(2-methoxyphenyl)piperazin-1-yl]butyl]-1-benzofuran-2-carboxamide

> <PUBCHEM_IUPAC_TRADITIONAL_NAME>
5-cyano-N-[4-[4-(2-methoxyphenyl)piperazino]butyl]coumarilamide

> <PUBCHEM_IUPAC_INCHI>
InChI=1S/C25H28N4O3/c1-31-23-7-3-2-6-21(23)29-14-12-28(13-15-29)11-5-4-10-27-25(30)24-17-20-16-19(18-26)8-9-22(20)32-24/h2-3,6-9,16-17H,4-5,10-15H2,1H3,(H,27,30)

> <PUBCHEM_IUPAC_INCHIKEY>
ZPMKYPOYZYLBSN-UHFFFAOYSA-N

> <PUBCHEM_XLOGP3_AA>
4

> <PUBCHEM_EXACT_MASS>
432.21614077

> <PUBCHEM_MOLECULAR_FORMULA>
C25H28N4O3

> <PUBCHEM_MOLECULAR_WEIGHT>
432.5

> <PUBCHEM_OPENEYE_CAN_SMILES>
COC1=CC=CC=C1N2CCN(CC2)CCCCNC(=O)C3=CC4=C(O3)C=CC(=C4)C#N

> <PUBCHEM_OPENEYE_ISO_SMILES>
COC1=CC=CC=C1N2CCN(CC2)CCCCNC(=O)C3=CC4=C(O3)C=CC(=C4)C#N

> <PUBCHEM_CACTVS_TPSA>
81.7

> <PUBCHEM_MONOISOTOPIC_WEIGHT>
432.21614077

> <PUBCHEM_TOTAL_CHARGE>
0

> <PUBCHEM_HEAVY_ATOM_COUNT>
32

> <PUBCHEM_ATOM_DEF_STEREO_COUNT>
0

> <PUBCHEM_ATOM_UDEF_STEREO_COUNT>
0

> <PUBCHEM_BOND_DEF_STEREO_COUNT>
0

> <PUBCHEM_BOND_UDEF_STEREO_COUNT>
0

> <PUBCHEM_ISOTOPIC_ATOM_COUNT>
0

> <PUBCHEM_COMPONENT_COUNT>
1

> <PUBCHEM_CACTVS_TAUTO_COUNT>
-1

> <PUBCHEM_COORDINATE_TYPE>
1
5
255

> <PUBCHEM_BONDANNOTATIONS>
14  17  8
14  18  8
17  19  8
18  20  8
19  21  8
2  23  8
2  27  8
20  21  8
23  25  8
25  26  8
26  27  8
26  28  8
27  29  8
28  30  8
29  31  8
30  31  8

$$$$
