127047227
  -OEChem-09292322002D

 40 42  0     1  0  0  0  0  0999 V2000
    4.8714    1.0433    0.0000 O   0  0  0  0  0  0  0  0  0  0  0  0
    4.6660   -0.7023    0.0000 N   0  0  0  0  0  0  0  0  0  0  0  0
    3.3073    0.2416    0.0000 N   0  0  0  0  0  0  0  0  0  0  0  0
    6.3981   -2.7023    0.0000 N   0  0  0  0  0  0  0  0  0  0  0  0
    5.5321   -2.2023    0.0000 C   0  0  1  0  0  0  0  0  0  0  0  0
    5.5321   -1.2023    0.0000 C   0  0  0  0  0  0  0  0  0  0  0  0
    3.8000   -1.2023    0.0000 C   0  0  0  0  0  0  0  0  0  0  0  0
    4.6660   -2.7023    0.0000 C   0  0  0  0  0  0  0  0  0  0  0  0
    3.8000   -2.2023    0.0000 C   0  0  0  0  0  0  0  0  0  0  0  0
    2.9061   -0.6676    0.0000 C   0  0  0  0  0  0  0  0  0  0  0  0
    4.3009    0.2220    0.0000 C   0  0  0  0  0  0  0  0  0  0  0  0
    2.7696    1.0847    0.0000 C   0  0  0  0  0  0  0  0  0  0  0  0
    2.9061   -2.7370    0.0000 C   0  0  0  0  0  0  0  0  0  0  0  0
    2.0000   -1.1815    0.0000 C   0  0  0  0  0  0  0  0  0  0  0  0
    3.2308    1.9719    0.0000 C   0  0  0  0  0  0  0  0  0  0  0  0
    2.0000   -2.2231    0.0000 C   0  0  0  0  0  0  0  0  0  0  0  0
    2.6931    2.8150    0.0000 C   0  0  0  0  0  0  0  0  0  0  0  0
    6.3981   -3.7023    0.0000 C   0  0  0  0  0  0  0  0  0  0  0  0
    3.1544    3.7023    0.0000 C   0  0  0  0  0  0  0  0  0  0  0  0
    5.5321   -2.8223    0.0000 H   0  0  0  0  0  0  0  0  0  0  0  0
    6.1426   -1.3100    0.0000 H   0  0  0  0  0  0  0  0  0  0  0  0
    5.7441   -0.6197    0.0000 H   0  0  0  0  0  0  0  0  0  0  0  0
    4.2675   -3.1772    0.0000 H   0  0  0  0  0  0  0  0  0  0  0  0
    5.0646   -3.1772    0.0000 H   0  0  0  0  0  0  0  0  0  0  0  0
    2.2775    1.4619    0.0000 H   0  0  0  0  0  0  0  0  0  0  0  0
    2.3127    0.6656    0.0000 H   0  0  0  0  0  0  0  0  0  0  0  0
    6.9350   -2.3923    0.0000 H   0  0  0  0  0  0  0  0  0  0  0  0
    2.9132   -3.3569    0.0000 H   0  0  0  0  0  0  0  0  0  0  0  0
    1.4643   -0.8694    0.0000 H   0  0  0  0  0  0  0  0  0  0  0  0
    3.7229    1.5948    0.0000 H   0  0  0  0  0  0  0  0  0  0  0  0
    3.6877    2.3910    0.0000 H   0  0  0  0  0  0  0  0  0  0  0  0
    1.4643   -2.5352    0.0000 H   0  0  0  0  0  0  0  0  0  0  0  0
    2.2010    3.1922    0.0000 H   0  0  0  0  0  0  0  0  0  0  0  0
    2.2362    2.3959    0.0000 H   0  0  0  0  0  0  0  0  0  0  0  0
    5.7781   -3.7023    0.0000 H   0  0  0  0  0  0  0  0  0  0  0  0
    6.3981   -4.3223    0.0000 H   0  0  0  0  0  0  0  0  0  0  0  0
    7.0181   -3.7023    0.0000 H   0  0  0  0  0  0  0  0  0  0  0  0
    3.7045    3.4163    0.0000 H   0  0  0  0  0  0  0  0  0  0  0  0
    3.4404    4.2524    0.0000 H   0  0  0  0  0  0  0  0  0  0  0  0
    2.6043    3.9883    0.0000 H   0  0  0  0  0  0  0  0  0  0  0  0
  1 11  2  0  0  0  0
  2  6  1  0  0  0  0
  2  7  1  0  0  0  0
  2 11  1  0  0  0  0
  3 10  1  0  0  0  0
  3 11  1  0  0  0  0
  3 12  1  0  0  0  0
  5  4  1  6  0  0  0
  4 18  1  0  0  0  0
  4 27  1  0  0  0  0
  5  6  1  0  0  0  0
  5  8  1  0  0  0  0
  5 20  1  0  0  0  0
  6 21  1  0  0  0  0
  6 22  1  0  0  0  0
  7  9  2  0  0  0  0
  7 10  1  0  0  0  0
  8  9  1  0  0  0  0
  8 23  1  0  0  0  0
  8 24  1  0  0  0  0
  9 13  1  0  0  0  0
 10 14  2  0  0  0  0
 12 15  1  0  0  0  0
 12 25  1  0  0  0  0
 12 26  1  0  0  0  0
 13 16  2  0  0  0  0
 13 28  1  0  0  0  0
 14 16  1  0  0  0  0
 14 29  1  0  0  0  0
 15 17  1  0  0  0  0
 15 30  1  0  0  0  0
 15 31  1  0  0  0  0
 16 32  1  0  0  0  0
 17 19  1  0  0  0  0
 17 33  1  0  0  0  0
 17 34  1  0  0  0  0
 18 35  1  0  0  0  0
 18 36  1  0  0  0  0
 18 37  1  0  0  0  0
 19 38  1  0  0  0  0
 19 39  1  0  0  0  0
 19 40  1  0  0  0  0
M  END
> <PUBCHEM_COMPOUND_CID>
127047227

> <PUBCHEM_COMPOUND_CANONICALIZED>
1

> <PUBCHEM_CACTVS_COMPLEXITY>
346

> <PUBCHEM_CACTVS_HBOND_ACCEPTOR>
2

> <PUBCHEM_CACTVS_HBOND_DONOR>
1

> <PUBCHEM_CACTVS_ROTATABLE_BOND>
4

> <PUBCHEM_CACTVS_SUBSKEYS>
AAADceBzIAAAAAAAAAAAAAAAAAAAAWAAAAA8QAAAAAAAAFixAAAAHgAQAAAADCjBGAQzwIPAAACIAiRCUACCAAAhAgAIiIAIdIiIYCLAkZGUIAholgLIyCcQgIAOAAAAQAACACAAAACAAAQAQAAAAAAAAA==

> <PUBCHEM_IUPAC_OPENEYE_NAME>
(10R)-3-butyl-10-(methylamino)-1,3-diazatricyclo[6.3.1.04,12]dodeca-4,6,8(12)-trien-2-one

> <PUBCHEM_IUPAC_CAS_NAME>
(10R)-3-butyl-10-(methylamino)-1,3-diazatricyclo[6.3.1.04,12]dodeca-4,6,8(12)-trien-2-one

> <PUBCHEM_IUPAC_NAME_MARKUP>
(10<I>R</I>)-3-butyl-10-(methylamino)-1,3-diazatricyclo[6.3.1.0<SUP>4,12</SUP>]dodeca-4,6,8(12)-trien-2-one

> <PUBCHEM_IUPAC_NAME>
(10R)-3-butyl-10-(methylamino)-1,3-diazatricyclo[6.3.1.04,12]dodeca-4,6,8(12)-trien-2-one

> <PUBCHEM_IUPAC_SYSTEMATIC_NAME>
(10R)-3-butyl-10-(methylamino)-1,3-diazatricyclo[6.3.1.04,12]dodeca-4,6,8(12)-trien-2-one

> <PUBCHEM_IUPAC_TRADITIONAL_NAME>
(10R)-3-butyl-10-(methylamino)-1,3-diazatricyclo[6.3.1.04,12]dodeca-4,6,8(12)-trien-2-one

> <PUBCHEM_IUPAC_INCHI>
InChI=1S/C15H21N3O/c1-3-4-8-17-13-7-5-6-11-9-12(16-2)10-18(14(11)13)15(17)19/h5-7,12,16H,3-4,8-10H2,1-2H3/t12-/m1/s1

> <PUBCHEM_IUPAC_INCHIKEY>
OCDNUTCRNXSKHR-GFCCVEGCSA-N

> <PUBCHEM_XLOGP3_AA>
1.9

> <PUBCHEM_EXACT_MASS>
259.168462302

> <PUBCHEM_MOLECULAR_FORMULA>
C15H21N3O

> <PUBCHEM_MOLECULAR_WEIGHT>
259.35

> <PUBCHEM_OPENEYE_CAN_SMILES>
CCCCN1C2=CC=CC3=C2N(C1=O)CC(C3)NC

> <PUBCHEM_OPENEYE_ISO_SMILES>
CCCCN1C2=CC=CC3=C2N(C1=O)C[C@@H](C3)NC

> <PUBCHEM_CACTVS_TPSA>
35.6

> <PUBCHEM_MONOISOTOPIC_WEIGHT>
259.168462302

> <PUBCHEM_TOTAL_CHARGE>
0

> <PUBCHEM_HEAVY_ATOM_COUNT>
19

> <PUBCHEM_ATOM_DEF_STEREO_COUNT>
1

> <PUBCHEM_ATOM_UDEF_STEREO_COUNT>
0

> <PUBCHEM_BOND_DEF_STEREO_COUNT>
0

> <PUBCHEM_BOND_UDEF_STEREO_COUNT>
0

> <PUBCHEM_ISOTOPIC_ATOM_COUNT>
0

> <PUBCHEM_COMPONENT_COUNT>
1

> <PUBCHEM_CACTVS_TAUTO_COUNT>
-1

> <PUBCHEM_COORDINATE_TYPE>
1
5
255

> <PUBCHEM_BONDANNOTATIONS>
10  14  8
13  16  8
14  16  8
2  11  8
2  7  8
3  10  8
3  11  8
5  4  6
7  10  8
7  9  8
9  13  8

$$$$
