46227242
  -OEChem-09292322292D

 41 43  0     1  0  0  0  0  0999 V2000
    2.5381    2.5068    0.0000 O   0  0  0  0  0  0  0  0  0  0  0  0
    6.9343    0.9827    0.0000 N   0  0  3  0  0  0  0  0  0  0  0  0
    6.0682    0.4827    0.0000 C   0  0  3  0  0  0  0  0  0  0  0  0
    5.2022    0.9827    0.0000 C   0  0  0  0  0  0  0  0  0  0  0  0
    6.9343    1.9827    0.0000 C   0  0  0  0  0  0  0  0  0  0  0  0
    6.0682   -0.5173    0.0000 C   0  0  0  0  0  0  0  0  0  0  0  0
    6.0682    2.4827    0.0000 C   0  0  0  0  0  0  0  0  0  0  0  0
    5.2022    1.9827    0.0000 C   0  0  0  0  0  0  0  0  0  0  0  0
    6.9343   -1.0173    0.0000 C   0  0  0  0  0  0  0  0  0  0  0  0
    7.8003    0.4827    0.0000 C   0  0  0  0  0  0  0  0  0  0  0  0
    4.3083    0.4480    0.0000 C   0  0  0  0  0  0  0  0  0  0  0  0
    4.3083    2.5173    0.0000 C   0  0  0  0  0  0  0  0  0  0  0  0
    3.4022    0.9619    0.0000 C   0  0  0  0  0  0  0  0  0  0  0  0
    6.9343   -2.0173    0.0000 C   0  0  0  0  0  0  0  0  0  0  0  0
    3.4022    2.0035    0.0000 C   0  0  0  0  0  0  0  0  0  0  0  0
    7.8003   -0.5173    0.0000 C   0  0  0  0  0  0  0  0  0  0  0  0
    7.8003   -2.5173    0.0000 C   0  0  0  0  0  0  0  0  0  0  0  0
    6.0682   -2.5173    0.0000 C   0  0  0  0  0  0  0  0  0  0  0  0
    8.6663   -1.0173    0.0000 C   0  0  0  0  0  0  0  0  0  0  0  0
    8.6663   -2.0173    0.0000 C   0  0  0  0  0  0  0  0  0  0  0  0
    6.6052    0.1727    0.0000 H   0  0  0  0  0  0  0  0  0  0  0  0
    7.5449    1.8750    0.0000 H   0  0  0  0  0  0  0  0  0  0  0  0
    7.1463    2.5653    0.0000 H   0  0  0  0  0  0  0  0  0  0  0  0
    5.4577   -0.4097    0.0000 H   0  0  0  0  0  0  0  0  0  0  0  0
    5.8562   -1.0999    0.0000 H   0  0  0  0  0  0  0  0  0  0  0  0
    6.4668    2.9576    0.0000 H   0  0  0  0  0  0  0  0  0  0  0  0
    5.6697    2.9576    0.0000 H   0  0  0  0  0  0  0  0  0  0  0  0
    7.4903   -0.0543    0.0000 H   0  0  0  0  0  0  0  0  0  0  0  0
    8.3372    0.1727    0.0000 H   0  0  0  0  0  0  0  0  0  0  0  0
    8.1103    1.0196    0.0000 H   0  0  0  0  0  0  0  0  0  0  0  0
    4.3154   -0.1720    0.0000 H   0  0  0  0  0  0  0  0  0  0  0  0
    4.3154    3.1373    0.0000 H   0  0  0  0  0  0  0  0  0  0  0  0
    2.8665    0.6498    0.0000 H   0  0  0  0  0  0  0  0  0  0  0  0
    7.8003    0.1027    0.0000 H   0  0  0  0  0  0  0  0  0  0  0  0
    7.8003   -3.1373    0.0000 H   0  0  0  0  0  0  0  0  0  0  0  0
    5.7582   -1.9804    0.0000 H   0  0  0  0  0  0  0  0  0  0  0  0
    5.5313   -2.8273    0.0000 H   0  0  0  0  0  0  0  0  0  0  0  0
    6.3783   -3.0543    0.0000 H   0  0  0  0  0  0  0  0  0  0  0  0
    9.2033   -0.7073    0.0000 H   0  0  0  0  0  0  0  0  0  0  0  0
    9.2033   -2.3273    0.0000 H   0  0  0  0  0  0  0  0  0  0  0  0
    2.0000    2.1989    0.0000 H   0  0  0  0  0  0  0  0  0  0  0  0
  1 15  1  0  0  0  0
  1 41  1  0  0  0  0
  2  3  1  0  0  0  0
  2  5  1  0  0  0  0
  2 10  1  0  0  0  0
  3  4  1  0  0  0  0
  3  6  1  0  0  0  0
  3 21  1  0  0  0  0
  4  8  2  0  0  0  0
  4 11  1  0  0  0  0
  5  7  1  0  0  0  0
  5 22  1  0  0  0  0
  5 23  1  0  0  0  0
  6  9  1  0  0  0  0
  6 24  1  0  0  0  0
  6 25  1  0  0  0  0
  7  8  1  0  0  0  0
  7 26  1  0  0  0  0
  7 27  1  0  0  0  0
  8 12  1  0  0  0  0
  9 14  1  0  0  0  0
  9 16  2  0  0  0  0
 10 28  1  0  0  0  0
 10 29  1  0  0  0  0
 10 30  1  0  0  0  0
 11 13  2  0  0  0  0
 11 31  1  0  0  0  0
 12 15  2  0  0  0  0
 12 32  1  0  0  0  0
 13 15  1  0  0  0  0
 13 33  1  0  0  0  0
 14 17  2  0  0  0  0
 14 18  1  0  0  0  0
 16 19  1  0  0  0  0
 16 34  1  0  0  0  0
 17 20  1  0  0  0  0
 17 35  1  0  0  0  0
 18 36  1  0  0  0  0
 18 37  1  0  0  0  0
 18 38  1  0  0  0  0
 19 20  2  0  0  0  0
 19 39  1  0  0  0  0
 20 40  1  0  0  0  0
M  END
> <PUBCHEM_COMPOUND_CID>
46227242

> <PUBCHEM_COMPOUND_CANONICALIZED>
1

> <PUBCHEM_CACTVS_COMPLEXITY>
319

> <PUBCHEM_CACTVS_HBOND_ACCEPTOR>
2

> <PUBCHEM_CACTVS_HBOND_DONOR>
1

> <PUBCHEM_CACTVS_ROTATABLE_BOND>
2

> <PUBCHEM_CACTVS_SUBSKEYS>
AAADceB6IAAAAAAAAAAAAAAAAAAAAAAAAAA8YIAAAAAAAACxQAAAHgAACAAADCzBmAQyBoMAAgCAAiBCAACCAAAgIAAIiAAODIgIJiKCkROEcAhkwBGImAeQ0PMOoAABAAAQAABAAAIAACAAAAAAAAAAAA==

> <PUBCHEM_IUPAC_OPENEYE_NAME>
2-methyl-1-(o-tolylmethyl)-3,4-dihydro-1H-isoquinolin-6-ol

> <PUBCHEM_IUPAC_CAS_NAME>
2-methyl-1-[(2-methylphenyl)methyl]-3,4-dihydro-1H-isoquinolin-6-ol

> <PUBCHEM_IUPAC_NAME_MARKUP>
2-methyl-1-[(2-methylphenyl)methyl]-3,4-dihydro-1<I>H</I>-isoquinolin-6-ol

> <PUBCHEM_IUPAC_NAME>
2-methyl-1-[(2-methylphenyl)methyl]-3,4-dihydro-1H-isoquinolin-6-ol

> <PUBCHEM_IUPAC_SYSTEMATIC_NAME>
2-methyl-1-[(2-methylphenyl)methyl]-3,4-dihydro-1H-isoquinolin-6-ol

> <PUBCHEM_IUPAC_TRADITIONAL_NAME>
2-methyl-1-(2-methylbenzyl)-3,4-dihydro-1H-isoquinolin-6-ol

> <PUBCHEM_IUPAC_INCHI>
InChI=1S/C18H21NO/c1-13-5-3-4-6-14(13)12-18-17-8-7-16(20)11-15(17)9-10-19(18)2/h3-8,11,18,20H,9-10,12H2,1-2H3

> <PUBCHEM_IUPAC_INCHIKEY>
HKYVEEPQWZMBJJ-UHFFFAOYSA-N

> <PUBCHEM_XLOGP3_AA>
3.8

> <PUBCHEM_EXACT_MASS>
267.162314293

> <PUBCHEM_MOLECULAR_FORMULA>
C18H21NO

> <PUBCHEM_MOLECULAR_WEIGHT>
267.4

> <PUBCHEM_OPENEYE_CAN_SMILES>
CC1=CC=CC=C1CC2C3=C(CCN2C)C=C(C=C3)O

> <PUBCHEM_OPENEYE_ISO_SMILES>
CC1=CC=CC=C1CC2C3=C(CCN2C)C=C(C=C3)O

> <PUBCHEM_CACTVS_TPSA>
23.5

> <PUBCHEM_MONOISOTOPIC_WEIGHT>
267.162314293

> <PUBCHEM_TOTAL_CHARGE>
0

> <PUBCHEM_HEAVY_ATOM_COUNT>
20

> <PUBCHEM_ATOM_DEF_STEREO_COUNT>
0

> <PUBCHEM_ATOM_UDEF_STEREO_COUNT>
1

> <PUBCHEM_BOND_DEF_STEREO_COUNT>
0

> <PUBCHEM_BOND_UDEF_STEREO_COUNT>
0

> <PUBCHEM_ISOTOPIC_ATOM_COUNT>
0

> <PUBCHEM_COMPONENT_COUNT>
1

> <PUBCHEM_CACTVS_TAUTO_COUNT>
-1

> <PUBCHEM_COORDINATE_TYPE>
1
5
255

> <PUBCHEM_BONDANNOTATIONS>
11  13  8
12  15  8
13  15  8
14  17  8
16  19  8
17  20  8
19  20  8
3  6  3
4  11  8
4  8  8
8  12  8
9  14  8
9  16  8

$$$$
