56781741
  -OEChem-09292322402D

 48 51  0     0  0  0  0  0  0999 V2000
    3.7688   -1.8496    0.0000 O   0  0  0  0  0  0  0  0  0  0  0  0
    2.4067    1.5956    0.0000 N   0  0  0  0  0  0  0  0  0  0  0  0
    3.3887    3.8011    0.0000 N   0  0  0  0  0  0  0  0  0  0  0  0
    2.8887    4.6671    0.0000 N   0  0  0  0  0  0  0  0  0  0  0  0
    2.4598   -2.8006    0.0000 N   0  0  0  0  0  0  0  0  0  0  0  0
    4.0778   -2.8006    0.0000 N   0  0  0  0  0  0  0  0  0  0  0  0
    2.9820    2.8875    0.0000 C   0  0  0  0  0  0  0  0  0  0  0  0
    3.3403    1.9540    0.0000 C   0  0  0  0  0  0  0  0  0  0  0  0
    2.0484    2.5292    0.0000 C   0  0  0  0  0  0  0  0  0  0  0  0
    2.0000    0.6820    0.0000 C   0  0  0  0  0  0  0  0  0  0  0  0
    2.5878   -0.1270    0.0000 C   0  0  0  0  0  0  0  0  0  0  0  0
    4.3668    4.0090    0.0000 C   0  0  0  0  0  0  0  0  0  0  0  0
    2.1810   -1.0405    0.0000 C   0  0  0  0  0  0  0  0  0  0  0  0
    4.4714    5.0035    0.0000 C   0  0  0  0  0  0  0  0  0  0  0  0
    3.5578    5.4102    0.0000 C   0  0  0  0  0  0  0  0  0  0  0  0
    5.1100    3.3398    0.0000 C   0  0  0  0  0  0  0  0  0  0  0  0
    2.7688   -1.8496    0.0000 C   0  0  0  0  0  0  0  0  0  0  0  0
    3.3499    6.3884    0.0000 C   0  0  0  0  0  0  0  0  0  0  0  0
    3.2688   -3.3884    0.0000 C   0  0  0  0  0  0  0  0  0  0  0  0
    3.2688   -4.3884    0.0000 C   0  0  0  0  0  0  0  0  0  0  0  0
    2.4028   -4.8884    0.0000 C   0  0  0  0  0  0  0  0  0  0  0  0
    4.1349   -4.8884    0.0000 C   0  0  0  0  0  0  0  0  0  0  0  0
    2.4028   -5.8884    0.0000 C   0  0  0  0  0  0  0  0  0  0  0  0
    4.1349   -5.8884    0.0000 C   0  0  0  0  0  0  0  0  0  0  0  0
    3.2688   -6.3884    0.0000 C   0  0  0  0  0  0  0  0  0  0  0  0
    3.6017    2.8713    0.0000 H   0  0  0  0  0  0  0  0  0  0  0  0
    3.5625    1.3751    0.0000 H   0  0  0  0  0  0  0  0  0  0  0  0
    3.9191    2.1761    0.0000 H   0  0  0  0  0  0  0  0  0  0  0  0
    1.8262    3.1080    0.0000 H   0  0  0  0  0  0  0  0  0  0  0  0
    1.4696    2.3070    0.0000 H   0  0  0  0  0  0  0  0  0  0  0  0
    1.4860    1.0287    0.0000 H   0  0  0  0  0  0  0  0  0  0  0  0
    1.5693    0.2360    0.0000 H   0  0  0  0  0  0  0  0  0  0  0  0
    3.1018   -0.4737    0.0000 H   0  0  0  0  0  0  0  0  0  0  0  0
    3.0185    0.3190    0.0000 H   0  0  0  0  0  0  0  0  0  0  0  0
    1.6670   -0.6938    0.0000 H   0  0  0  0  0  0  0  0  0  0  0  0
    1.7504   -1.4865    0.0000 H   0  0  0  0  0  0  0  0  0  0  0  0
    5.0083    5.3135    0.0000 H   0  0  0  0  0  0  0  0  0  0  0  0
    4.6951    2.8791    0.0000 H   0  0  0  0  0  0  0  0  0  0  0  0
    5.5707    2.9250    0.0000 H   0  0  0  0  0  0  0  0  0  0  0  0
    5.5248    3.8006    0.0000 H   0  0  0  0  0  0  0  0  0  0  0  0
    3.9564    6.5173    0.0000 H   0  0  0  0  0  0  0  0  0  0  0  0
    3.2210    6.9948    0.0000 H   0  0  0  0  0  0  0  0  0  0  0  0
    2.7434    6.2595    0.0000 H   0  0  0  0  0  0  0  0  0  0  0  0
    1.8659   -4.5784    0.0000 H   0  0  0  0  0  0  0  0  0  0  0  0
    4.6718   -4.5784    0.0000 H   0  0  0  0  0  0  0  0  0  0  0  0
    1.8659   -6.1984    0.0000 H   0  0  0  0  0  0  0  0  0  0  0  0
    4.6718   -6.1984    0.0000 H   0  0  0  0  0  0  0  0  0  0  0  0
    3.2688   -7.0084    0.0000 H   0  0  0  0  0  0  0  0  0  0  0  0
  1  6  1  0  0  0  0
  1 17  1  0  0  0  0
  2  8  1  0  0  0  0
  2  9  1  0  0  0  0
  2 10  1  0  0  0  0
  3  4  1  0  0  0  0
  3  7  1  0  0  0  0
  3 12  1  0  0  0  0
  4 15  2  0  0  0  0
  5 17  2  0  0  0  0
  5 19  1  0  0  0  0
  6 19  2  0  0  0  0
  7  8  1  0  0  0  0
  7  9  1  0  0  0  0
  7 26  1  0  0  0  0
  8 27  1  0  0  0  0
  8 28  1  0  0  0  0
  9 29  1  0  0  0  0
  9 30  1  0  0  0  0
 10 11  1  0  0  0  0
 10 31  1  0  0  0  0
 10 32  1  0  0  0  0
 11 13  1  0  0  0  0
 11 33  1  0  0  0  0
 11 34  1  0  0  0  0
 12 14  2  0  0  0  0
 12 16  1  0  0  0  0
 13 17  1  0  0  0  0
 13 35  1  0  0  0  0
 13 36  1  0  0  0  0
 14 15  1  0  0  0  0
 14 37  1  0  0  0  0
 15 18  1  0  0  0  0
 16 38  1  0  0  0  0
 16 39  1  0  0  0  0
 16 40  1  0  0  0  0
 18 41  1  0  0  0  0
 18 42  1  0  0  0  0
 18 43  1  0  0  0  0
 19 20  1  0  0  0  0
 20 21  2  0  0  0  0
 20 22  1  0  0  0  0
 21 23  1  0  0  0  0
 21 44  1  0  0  0  0
 22 24  2  0  0  0  0
 22 45  1  0  0  0  0
 23 25  2  0  0  0  0
 23 46  1  0  0  0  0
 24 25  1  0  0  0  0
 24 47  1  0  0  0  0
 25 48  1  0  0  0  0
M  END
> <PUBCHEM_COMPOUND_CID>
56781741

> <PUBCHEM_COMPOUND_CANONICALIZED>
1

> <PUBCHEM_CACTVS_COMPLEXITY>
424

> <PUBCHEM_CACTVS_HBOND_ACCEPTOR>
5

> <PUBCHEM_CACTVS_HBOND_DONOR>
0

> <PUBCHEM_CACTVS_ROTATABLE_BOND>
6

> <PUBCHEM_CACTVS_SUBSKEYS>
AAADceB7oAAAAAAAAAAAAAAAAABYAWLAAAAwAAAAAAAAAAAB8AAAHgAMAAAADCjBnwQzkJcYEACrAydydgCShAkhgqA52CE4ZJiIaLLA2dGUpAhkjQLIyAc0gAAOAAAAAAAAAAAAAAAAAAAAAAAAAAAAAA==

> <PUBCHEM_IUPAC_OPENEYE_NAME>
5-[3-[3-(3,5-dimethylpyrazol-1-yl)azetidin-1-yl]propyl]-3-phenyl-1,2,4-oxadiazole

> <PUBCHEM_IUPAC_CAS_NAME>
5-[3-[3-(3,5-dimethyl-1-pyrazolyl)-1-azetidinyl]propyl]-3-phenyl-1,2,4-oxadiazole

> <PUBCHEM_IUPAC_NAME_MARKUP>
5-[3-[3-(3,5-dimethylpyrazol-1-yl)azetidin-1-yl]propyl]-3-phenyl-1,2,4-oxadiazole

> <PUBCHEM_IUPAC_NAME>
5-[3-[3-(3,5-dimethylpyrazol-1-yl)azetidin-1-yl]propyl]-3-phenyl-1,2,4-oxadiazole

> <PUBCHEM_IUPAC_SYSTEMATIC_NAME>
5-[3-[3-(3,5-dimethylpyrazol-1-yl)azetidin-1-yl]propyl]-3-phenyl-1,2,4-oxadiazole

> <PUBCHEM_IUPAC_TRADITIONAL_NAME>
5-[3-[3-(3,5-dimethylpyrazol-1-yl)azetidin-1-yl]propyl]-3-phenyl-1,2,4-oxadiazole

> <PUBCHEM_IUPAC_INCHI>
InChI=1S/C19H23N5O/c1-14-11-15(2)24(21-14)17-12-23(13-17)10-6-9-18-20-19(22-25-18)16-7-4-3-5-8-16/h3-5,7-8,11,17H,6,9-10,12-13H2,1-2H3

> <PUBCHEM_IUPAC_INCHIKEY>
ZQOMSSAVWGLZSB-UHFFFAOYSA-N

> <PUBCHEM_XLOGP3_AA>
3

> <PUBCHEM_EXACT_MASS>
337.19026037

> <PUBCHEM_MOLECULAR_FORMULA>
C19H23N5O

> <PUBCHEM_MOLECULAR_WEIGHT>
337.4

> <PUBCHEM_OPENEYE_CAN_SMILES>
CC1=CC(=NN1C2CN(C2)CCCC3=NC(=NO3)C4=CC=CC=C4)C

> <PUBCHEM_OPENEYE_ISO_SMILES>
CC1=CC(=NN1C2CN(C2)CCCC3=NC(=NO3)C4=CC=CC=C4)C

> <PUBCHEM_CACTVS_TPSA>
60

> <PUBCHEM_MONOISOTOPIC_WEIGHT>
337.19026037

> <PUBCHEM_TOTAL_CHARGE>
0

> <PUBCHEM_HEAVY_ATOM_COUNT>
25

> <PUBCHEM_ATOM_DEF_STEREO_COUNT>
0

> <PUBCHEM_ATOM_UDEF_STEREO_COUNT>
0

> <PUBCHEM_BOND_DEF_STEREO_COUNT>
0

> <PUBCHEM_BOND_UDEF_STEREO_COUNT>
0

> <PUBCHEM_ISOTOPIC_ATOM_COUNT>
0

> <PUBCHEM_COMPONENT_COUNT>
1

> <PUBCHEM_CACTVS_TAUTO_COUNT>
-1

> <PUBCHEM_COORDINATE_TYPE>
1
5
255

> <PUBCHEM_BONDANNOTATIONS>
1  17  8
1  6  8
12  14  8
14  15  8
20  21  8
20  22  8
21  23  8
22  24  8
23  25  8
24  25  8
3  12  8
3  4  8
4  15  8
5  17  8
5  19  8
6  19  8

$$$$
