127045872
  -OEChem-09292322472D

 59 62  0     0  0  0  0  0  0999 V2000
    8.4530   -1.5934    0.0000 S   0  0  0  0  0  0  0  0  0  0  0  0
    9.4035   -1.2828    0.0000 O   0  0  0  0  0  0  0  0  0  0  0  0
    7.5025   -1.9041    0.0000 O   0  0  0  0  0  0  0  0  0  0  0  0
    6.8301    3.7007    0.0000 O   0  0  0  0  0  0  0  0  0  0  0  0
    4.5981   -0.8382    0.0000 N   0  0  0  0  0  0  0  0  0  0  0  0
    2.8660   -1.8382    0.0000 N   0  0  0  0  0  0  0  0  0  0  0  0
    8.1424   -0.6429    0.0000 N   0  0  0  0  0  0  0  0  0  0  0  0
    6.3301   -0.8382    0.0000 N   0  0  0  0  0  0  0  0  0  0  0  0
    5.8301    3.7007    0.0000 N   0  0  0  0  0  0  0  0  0  0  0  0
    4.5981   -1.8382    0.0000 C   0  0  0  0  0  0  0  0  0  0  0  0
    3.7320   -0.3382    0.0000 C   0  0  0  0  0  0  0  0  0  0  0  0
    3.7320   -2.3382    0.0000 C   0  0  0  0  0  0  0  0  0  0  0  0
    2.8660   -0.8382    0.0000 C   0  0  0  0  0  0  0  0  0  0  0  0
    5.4641   -0.3382    0.0000 C   0  0  0  0  0  0  0  0  0  0  0  0
    7.1962   -0.3382    0.0000 C   0  0  0  0  0  0  0  0  0  0  0  0
    7.1962    0.6618    0.0000 C   0  0  0  0  0  0  0  0  0  0  0  0
    8.7637   -2.5439    0.0000 C   0  0  0  0  0  0  0  0  0  0  0  0
    6.3301    1.1618    0.0000 C   0  0  0  0  0  0  0  0  0  0  0  0
    5.4641    0.6618    0.0000 C   0  0  0  0  0  0  0  0  0  0  0  0
    9.7422   -2.7502    0.0000 C   0  0  0  0  0  0  0  0  0  0  0  0
    8.7260    0.1618    0.0000 C   0  0  0  0  0  0  0  0  0  0  0  0
    8.1424    0.9666    0.0000 C   0  0  0  0  0  0  0  0  0  0  0  0
    2.0000   -2.3382    0.0000 C   0  0  0  0  0  0  0  0  0  0  0  0
    6.3301    2.1618    0.0000 C   0  0  0  0  0  0  0  0  0  0  0  0
   10.0529   -3.7007    0.0000 C   0  0  0  0  0  0  0  0  0  0  0  0
   10.4100   -2.0058    0.0000 C   0  0  0  0  0  0  0  0  0  0  0  0
    7.1391    2.7496    0.0000 C   0  0  0  0  0  0  0  0  0  0  0  0
    5.5211    2.7496    0.0000 C   0  0  0  0  0  0  0  0  0  0  0  0
    8.0902    2.4406    0.0000 C   0  0  0  0  0  0  0  0  0  0  0  0
    4.5700    2.4406    0.0000 C   0  0  0  0  0  0  0  0  0  0  0  0
    4.8101   -2.4208    0.0000 H   0  0  0  0  0  0  0  0  0  0  0  0
    5.2087   -1.7305    0.0000 H   0  0  0  0  0  0  0  0  0  0  0  0
    4.1306    0.1368    0.0000 H   0  0  0  0  0  0  0  0  0  0  0  0
    3.3335    0.1368    0.0000 H   0  0  0  0  0  0  0  0  0  0  0  0
    3.3335   -2.8131    0.0000 H   0  0  0  0  0  0  0  0  0  0  0  0
    4.1306   -2.8131    0.0000 H   0  0  0  0  0  0  0  0  0  0  0  0
    2.6540   -0.2556    0.0000 H   0  0  0  0  0  0  0  0  0  0  0  0
    2.2554   -0.9458    0.0000 H   0  0  0  0  0  0  0  0  0  0  0  0
    8.1499   -2.6313    0.0000 H   0  0  0  0  0  0  0  0  0  0  0  0
    8.7431   -3.1636    0.0000 H   0  0  0  0  0  0  0  0  0  0  0  0
    4.9272    0.9718    0.0000 H   0  0  0  0  0  0  0  0  0  0  0  0
    9.5496   -2.1608    0.0000 H   0  0  0  0  0  0  0  0  0  0  0  0
    9.3460    0.1618    0.0000 H   0  0  0  0  0  0  0  0  0  0  0  0
    8.3350    1.5559    0.0000 H   0  0  0  0  0  0  0  0  0  0  0  0
    1.6900   -1.8012    0.0000 H   0  0  0  0  0  0  0  0  0  0  0  0
    1.4631   -2.6482    0.0000 H   0  0  0  0  0  0  0  0  0  0  0  0
    2.3100   -2.8751    0.0000 H   0  0  0  0  0  0  0  0  0  0  0  0
    9.4635   -3.8933    0.0000 H   0  0  0  0  0  0  0  0  0  0  0  0
   10.2455   -4.2900    0.0000 H   0  0  0  0  0  0  0  0  0  0  0  0
   10.6422   -3.5081    0.0000 H   0  0  0  0  0  0  0  0  0  0  0  0
   10.8715   -2.4199    0.0000 H   0  0  0  0  0  0  0  0  0  0  0  0
   10.8241   -1.5444    0.0000 H   0  0  0  0  0  0  0  0  0  0  0  0
    9.9486   -1.5918    0.0000 H   0  0  0  0  0  0  0  0  0  0  0  0
    7.8986    1.8510    0.0000 H   0  0  0  0  0  0  0  0  0  0  0  0
    8.6799    2.2490    0.0000 H   0  0  0  0  0  0  0  0  0  0  0  0
    8.2818    3.0303    0.0000 H   0  0  0  0  0  0  0  0  0  0  0  0
    4.3785    3.0303    0.0000 H   0  0  0  0  0  0  0  0  0  0  0  0
    3.9804    2.2490    0.0000 H   0  0  0  0  0  0  0  0  0  0  0  0
    4.7616    1.8510    0.0000 H   0  0  0  0  0  0  0  0  0  0  0  0
  1  2  2  0  0  0  0
  1  3  2  0  0  0  0
  1  7  1  0  0  0  0
  1 17  1  0  0  0  0
  4  9  1  0  0  0  0
  4 27  1  0  0  0  0
  5 10  1  0  0  0  0
  5 11  1  0  0  0  0
  5 14  1  0  0  0  0
  6 12  1  0  0  0  0
  6 13  1  0  0  0  0
  6 23  1  0  0  0  0
  7 15  1  0  0  0  0
  7 21  1  0  0  0  0
  8 14  2  0  0  0  0
  8 15  1  0  0  0  0
  9 28  2  0  0  0  0
 10 12  1  0  0  0  0
 10 31  1  0  0  0  0
 10 32  1  0  0  0  0
 11 13  1  0  0  0  0
 11 33  1  0  0  0  0
 11 34  1  0  0  0  0
 12 35  1  0  0  0  0
 12 36  1  0  0  0  0
 13 37  1  0  0  0  0
 13 38  1  0  0  0  0
 14 19  1  0  0  0  0
 15 16  2  0  0  0  0
 16 18  1  0  0  0  0
 16 22  1  0  0  0  0
 17 20  1  0  0  0  0
 17 39  1  0  0  0  0
 17 40  1  0  0  0  0
 18 19  2  0  0  0  0
 18 24  1  0  0  0  0
 19 41  1  0  0  0  0
 20 25  1  0  0  0  0
 20 26  1  0  0  0  0
 20 42  1  0  0  0  0
 21 22  2  0  0  0  0
 21 43  1  0  0  0  0
 22 44  1  0  0  0  0
 23 45  1  0  0  0  0
 23 46  1  0  0  0  0
 23 47  1  0  0  0  0
 24 27  2  0  0  0  0
 24 28  1  0  0  0  0
 25 48  1  0  0  0  0
 25 49  1  0  0  0  0
 25 50  1  0  0  0  0
 26 51  1  0  0  0  0
 26 52  1  0  0  0  0
 26 53  1  0  0  0  0
 27 29  1  0  0  0  0
 28 30  1  0  0  0  0
 29 54  1  0  0  0  0
 29 55  1  0  0  0  0
 29 56  1  0  0  0  0
 30 57  1  0  0  0  0
 30 58  1  0  0  0  0
 30 59  1  0  0  0  0
M  END
> <PUBCHEM_COMPOUND_CID>
127045872

> <PUBCHEM_COMPOUND_CANONICALIZED>
1

> <PUBCHEM_CACTVS_COMPLEXITY>
691

> <PUBCHEM_CACTVS_HBOND_ACCEPTOR>
7

> <PUBCHEM_CACTVS_HBOND_DONOR>
0

> <PUBCHEM_CACTVS_ROTATABLE_BOND>
5

> <PUBCHEM_CACTVS_SUBSKEYS>
AAADceB7sABAAAAAAAAAAAAAAAAAAWLAAAAsWAAAAAAAAFgB/gAAHgQEQAAADQzF3wS/tN8YEAKpA7Z3ZnDCgCk1IqAp2CE8bNqIbvrAnJOUMYhuwBvIyWeY2QIOgAAAAAAAAAAAAAAAAAAAAAAAAAAAAA==

> <PUBCHEM_IUPAC_OPENEYE_NAME>
4-[1-isobutylsulfonyl-6-(4-methylpiperazin-1-yl)pyrrolo[2,3-b]pyridin-4-yl]-3,5-dimethyl-isoxazole

> <PUBCHEM_IUPAC_CAS_NAME>
3,5-dimethyl-4-[6-(4-methyl-1-piperazinyl)-1-(2-methylpropylsulfonyl)-4-pyrrolo[2,3-b]pyridinyl]isoxazole

> <PUBCHEM_IUPAC_NAME_MARKUP>
3,5-dimethyl-4-[6-(4-methylpiperazin-1-yl)-1-(2-methylpropylsulfonyl)pyrrolo[2,3-b]pyridin-4-yl]-1,2-oxazole

> <PUBCHEM_IUPAC_NAME>
3,5-dimethyl-4-[6-(4-methylpiperazin-1-yl)-1-(2-methylpropylsulfonyl)pyrrolo[2,3-b]pyridin-4-yl]-1,2-oxazole

> <PUBCHEM_IUPAC_SYSTEMATIC_NAME>
3,5-dimethyl-4-[6-(4-methylpiperazin-1-yl)-1-(2-methylpropylsulfonyl)pyrrolo[2,3-b]pyridin-4-yl]-1,2-oxazole

> <PUBCHEM_IUPAC_TRADITIONAL_NAME>
4-[1-isobutylsulfonyl-6-(4-methylpiperazino)pyrrolo[2,3-b]pyridin-4-yl]-3,5-dimethyl-isoxazole

> <PUBCHEM_IUPAC_INCHI>
InChI=1S/C21H29N5O3S/c1-14(2)13-30(27,28)26-7-6-17-18(20-15(3)23-29-16(20)4)12-19(22-21(17)26)25-10-8-24(5)9-11-25/h6-7,12,14H,8-11,13H2,1-5H3

> <PUBCHEM_IUPAC_INCHIKEY>
STYYKXJXEIVGHH-UHFFFAOYSA-N

> <PUBCHEM_XLOGP3_AA>
3.4

> <PUBCHEM_EXACT_MASS>
431.19911098

> <PUBCHEM_MOLECULAR_FORMULA>
C21H29N5O3S

> <PUBCHEM_MOLECULAR_WEIGHT>
431.6

> <PUBCHEM_OPENEYE_CAN_SMILES>
CC1=C(C(=NO1)C)C2=CC(=NC3=C2C=CN3S(=O)(=O)CC(C)C)N4CCN(CC4)C

> <PUBCHEM_OPENEYE_ISO_SMILES>
CC1=C(C(=NO1)C)C2=CC(=NC3=C2C=CN3S(=O)(=O)CC(C)C)N4CCN(CC4)C

> <PUBCHEM_CACTVS_TPSA>
92.8

> <PUBCHEM_MONOISOTOPIC_WEIGHT>
431.19911098

> <PUBCHEM_TOTAL_CHARGE>
0

> <PUBCHEM_HEAVY_ATOM_COUNT>
30

> <PUBCHEM_ATOM_DEF_STEREO_COUNT>
0

> <PUBCHEM_ATOM_UDEF_STEREO_COUNT>
0

> <PUBCHEM_BOND_DEF_STEREO_COUNT>
0

> <PUBCHEM_BOND_UDEF_STEREO_COUNT>
0

> <PUBCHEM_ISOTOPIC_ATOM_COUNT>
0

> <PUBCHEM_COMPONENT_COUNT>
1

> <PUBCHEM_CACTVS_TAUTO_COUNT>
-1

> <PUBCHEM_COORDINATE_TYPE>
1
5
255

> <PUBCHEM_BONDANNOTATIONS>
14  19  8
15  16  8
16  18  8
16  22  8
18  19  8
21  22  8
24  27  8
24  28  8
4  27  8
4  9  8
7  15  8
7  21  8
8  14  8
8  15  8
9  28  8

$$$$
