155541547
  -OEChem-09292322402D

 61 65  0     0  0  0  0  0  0999 V2000
    6.7210   -3.6788    0.0000 S   0  0  0  0  0  0  0  0  0  0  0  0
    7.6715   -3.3682    0.0000 O   0  0  0  0  0  0  0  0  0  0  0  0
    5.7705   -3.9895    0.0000 O   0  0  0  0  0  0  0  0  0  0  0  0
    2.8660   -0.9236    0.0000 O   0  0  0  0  0  0  0  0  0  0  0  0
    6.4103   -2.7283    0.0000 N   0  0  0  0  0  0  0  0  0  0  0  0
    7.6743    1.1390    0.0000 N   0  0  0  0  0  0  0  0  0  0  0  0
    6.1346    0.6417    0.0000 N   0  0  0  0  0  0  0  0  0  0  0  0
    6.4164    2.4013    0.0000 N   0  0  0  0  0  0  0  0  0  0  0  0
    6.4103   -1.1189    0.0000 C   0  0  0  0  0  0  0  0  0  0  0  0
    5.4641   -1.4236    0.0000 C   0  0  0  0  0  0  0  0  0  0  0  0
    5.4641   -2.4236    0.0000 C   0  0  0  0  0  0  0  0  0  0  0  0
    6.9939   -1.9236    0.0000 C   0  0  0  0  0  0  0  0  0  0  0  0
    6.7210   -0.1683    0.0000 C   0  0  0  0  0  0  0  0  0  0  0  0
    4.5981   -0.9236    0.0000 C   0  0  0  0  0  0  0  0  0  0  0  0
    7.6726    0.1390    0.0000 C   0  0  0  0  0  0  0  0  0  0  0  0
    4.5981   -2.9236    0.0000 C   0  0  0  0  0  0  0  0  0  0  0  0
    7.0316   -4.6294    0.0000 C   0  0  0  0  0  0  0  0  0  0  0  0
    6.7238    1.4497    0.0000 C   0  0  0  0  0  0  0  0  0  0  0  0
    3.7320   -1.4236    0.0000 C   0  0  0  0  0  0  0  0  0  0  0  0
    3.7320   -2.4236    0.0000 C   0  0  0  0  0  0  0  0  0  0  0  0
    8.4806   -0.4502    0.0000 C   0  0  0  0  0  0  0  0  0  0  0  0
    7.0868    3.1433    0.0000 C   0  0  0  0  0  0  0  0  0  0  0  0
    6.7795    4.0948    0.0000 C   0  0  0  0  0  0  0  0  0  0  0  0
    8.0102   -4.8356    0.0000 C   0  0  0  0  0  0  0  0  0  0  0  0
    6.3638   -5.3737    0.0000 C   0  0  0  0  0  0  0  0  0  0  0  0
    7.4499    4.8368    0.0000 C   0  0  0  0  0  0  0  0  0  0  0  0
    8.3208   -5.7861    0.0000 C   0  0  0  0  0  0  0  0  0  0  0  0
    6.6745   -6.3242    0.0000 C   0  0  0  0  0  0  0  0  0  0  0  0
    7.6530   -6.5304    0.0000 C   0  0  0  0  0  0  0  0  0  0  0  0
    7.1425    5.7884    0.0000 C   0  0  0  0  0  0  0  0  0  0  0  0
    8.4277    4.6272    0.0000 C   0  0  0  0  0  0  0  0  0  0  0  0
    2.0000   -1.4236    0.0000 C   0  0  0  0  0  0  0  0  0  0  0  0
    7.8129    6.5304    0.0000 C   0  0  0  0  0  0  0  0  0  0  0  0
    9.0981    5.3692    0.0000 C   0  0  0  0  0  0  0  0  0  0  0  0
    8.7907    6.3208    0.0000 C   0  0  0  0  0  0  0  0  0  0  0  0
    7.6139   -1.9236    0.0000 H   0  0  0  0  0  0  0  0  0  0  0  0
    4.5981   -0.3036    0.0000 H   0  0  0  0  0  0  0  0  0  0  0  0
    4.5981   -3.5436    0.0000 H   0  0  0  0  0  0  0  0  0  0  0  0
    8.1765    1.5026    0.0000 H   0  0  0  0  0  0  0  0  0  0  0  0
    3.1951   -2.7336    0.0000 H   0  0  0  0  0  0  0  0  0  0  0  0
    8.1153   -0.9511    0.0000 H   0  0  0  0  0  0  0  0  0  0  0  0
    8.9815   -0.8155    0.0000 H   0  0  0  0  0  0  0  0  0  0  0  0
    8.8459    0.0508    0.0000 H   0  0  0  0  0  0  0  0  0  0  0  0
    5.8102    2.5312    0.0000 H   0  0  0  0  0  0  0  0  0  0  0  0
    7.4677    2.6540    0.0000 H   0  0  0  0  0  0  0  0  0  0  0  0
    7.6348    3.4334    0.0000 H   0  0  0  0  0  0  0  0  0  0  0  0
    6.3986    4.5841    0.0000 H   0  0  0  0  0  0  0  0  0  0  0  0
    6.2315    3.8047    0.0000 H   0  0  0  0  0  0  0  0  0  0  0  0
    8.4242   -4.3741    0.0000 H   0  0  0  0  0  0  0  0  0  0  0  0
    5.7571   -5.2458    0.0000 H   0  0  0  0  0  0  0  0  0  0  0  0
    8.9275   -5.9140    0.0000 H   0  0  0  0  0  0  0  0  0  0  0  0
    6.2604   -6.7857    0.0000 H   0  0  0  0  0  0  0  0  0  0  0  0
    7.8456   -7.1197    0.0000 H   0  0  0  0  0  0  0  0  0  0  0  0
    6.5363    5.9184    0.0000 H   0  0  0  0  0  0  0  0  0  0  0  0
    8.6182    4.0372    0.0000 H   0  0  0  0  0  0  0  0  0  0  0  0
    1.6900   -0.8867    0.0000 H   0  0  0  0  0  0  0  0  0  0  0  0
    1.4631   -1.7336    0.0000 H   0  0  0  0  0  0  0  0  0  0  0  0
    2.3100   -1.9605    0.0000 H   0  0  0  0  0  0  0  0  0  0  0  0
    7.6224    7.1204    0.0000 H   0  0  0  0  0  0  0  0  0  0  0  0
    9.7043    5.2393    0.0000 H   0  0  0  0  0  0  0  0  0  0  0  0
    9.2064    6.7808    0.0000 H   0  0  0  0  0  0  0  0  0  0  0  0
  1  2  2  0  0  0  0
  1  3  2  0  0  0  0
  1  5  1  0  0  0  0
  1 17  1  0  0  0  0
  4 19  1  0  0  0  0
  4 32  1  0  0  0  0
  5 11  1  0  0  0  0
  5 12  1  0  0  0  0
  6 15  1  0  0  0  0
  6 18  1  0  0  0  0
  6 39  1  0  0  0  0
  7 13  1  0  0  0  0
  7 18  2  0  0  0  0
  8 18  1  0  0  0  0
  8 22  1  0  0  0  0
  8 44  1  0  0  0  0
  9 10  1  0  0  0  0
  9 12  2  0  0  0  0
  9 13  1  0  0  0  0
 10 11  2  0  0  0  0
 10 14  1  0  0  0  0
 11 16  1  0  0  0  0
 12 36  1  0  0  0  0
 13 15  2  0  0  0  0
 14 19  2  0  0  0  0
 14 37  1  0  0  0  0
 15 21  1  0  0  0  0
 16 20  2  0  0  0  0
 16 38  1  0  0  0  0
 17 24  2  0  0  0  0
 17 25  1  0  0  0  0
 19 20  1  0  0  0  0
 20 40  1  0  0  0  0
 21 41  1  0  0  0  0
 21 42  1  0  0  0  0
 21 43  1  0  0  0  0
 22 23  1  0  0  0  0
 22 45  1  0  0  0  0
 22 46  1  0  0  0  0
 23 26  1  0  0  0  0
 23 47  1  0  0  0  0
 23 48  1  0  0  0  0
 24 27  1  0  0  0  0
 24 49  1  0  0  0  0
 25 28  2  0  0  0  0
 25 50  1  0  0  0  0
 26 30  2  0  0  0  0
 26 31  1  0  0  0  0
 27 29  2  0  0  0  0
 27 51  1  0  0  0  0
 28 29  1  0  0  0  0
 28 52  1  0  0  0  0
 29 53  1  0  0  0  0
 30 33  1  0  0  0  0
 30 54  1  0  0  0  0
 31 34  2  0  0  0  0
 31 55  1  0  0  0  0
 32 56  1  0  0  0  0
 32 57  1  0  0  0  0
 32 58  1  0  0  0  0
 33 35  2  0  0  0  0
 33 59  1  0  0  0  0
 34 35  1  0  0  0  0
 34 60  1  0  0  0  0
 35 61  1  0  0  0  0
M  END
> <PUBCHEM_COMPOUND_CID>
155541547

> <PUBCHEM_COMPOUND_CANONICALIZED>
1

> <PUBCHEM_CACTVS_COMPLEXITY>
778

> <PUBCHEM_CACTVS_HBOND_ACCEPTOR>
5

> <PUBCHEM_CACTVS_HBOND_DONOR>
2

> <PUBCHEM_CACTVS_ROTATABLE_BOND>
8

> <PUBCHEM_CACTVS_SUBSKEYS>
AAADceB7sABAAAAAAAAAAAAAAAAAAWLAAAAwYMAAAAAAAFgB/AAAHgQQQAAADAzB3gY/1/bJlAKgAzRnZHDCiD2xMqAJ2bg+fJiMbuLE+ZuUMChs0BPI6Cew0PMOgEABAAACAAAAgAIAAAQAAAAAAAAAAA==

> <PUBCHEM_IUPAC_OPENEYE_NAME>
4-[1-(benzenesulfonyl)-5-methoxy-indol-3-yl]-5-methyl-N-(2-phenylethyl)-1H-imidazol-2-amine

> <PUBCHEM_IUPAC_CAS_NAME>
4-[1-(benzenesulfonyl)-5-methoxy-3-indolyl]-5-methyl-N-(2-phenylethyl)-1H-imidazol-2-amine

> <PUBCHEM_IUPAC_NAME_MARKUP>
4-[1-(benzenesulfonyl)-5-methoxyindol-3-yl]-5-methyl-<I>N</I>-(2-phenylethyl)-1<I>H</I>-imidazol-2-amine

> <PUBCHEM_IUPAC_NAME>
4-[1-(benzenesulfonyl)-5-methoxyindol-3-yl]-5-methyl-N-(2-phenylethyl)-1H-imidazol-2-amine

> <PUBCHEM_IUPAC_SYSTEMATIC_NAME>
4-[5-methoxy-1-(phenylsulfonyl)indol-3-yl]-5-methyl-N-(2-phenylethyl)-1H-imidazol-2-amine

> <PUBCHEM_IUPAC_TRADITIONAL_NAME>
[4-(1-besyl-5-methoxy-indol-3-yl)-5-methyl-1H-imidazol-2-yl]-phenethyl-amine

> <PUBCHEM_IUPAC_INCHI>
InChI=1S/C27H26N4O3S/c1-19-26(30-27(29-19)28-16-15-20-9-5-3-6-10-20)24-18-31(25-14-13-21(34-2)17-23(24)25)35(32,33)22-11-7-4-8-12-22/h3-14,17-18H,15-16H2,1-2H3,(H2,28,29,30)

> <PUBCHEM_IUPAC_INCHIKEY>
JJMRPVGTDRDQOU-UHFFFAOYSA-N

> <PUBCHEM_XLOGP3_AA>
5.7

> <PUBCHEM_EXACT_MASS>
486.17256188

> <PUBCHEM_MOLECULAR_FORMULA>
C27H26N4O3S

> <PUBCHEM_MOLECULAR_WEIGHT>
486.6

> <PUBCHEM_OPENEYE_CAN_SMILES>
CC1=C(N=C(N1)NCCC2=CC=CC=C2)C3=CN(C4=C3C=C(C=C4)OC)S(=O)(=O)C5=CC=CC=C5

> <PUBCHEM_OPENEYE_ISO_SMILES>
CC1=C(N=C(N1)NCCC2=CC=CC=C2)C3=CN(C4=C3C=C(C=C4)OC)S(=O)(=O)C5=CC=CC=C5

> <PUBCHEM_CACTVS_TPSA>
97.4

> <PUBCHEM_MONOISOTOPIC_WEIGHT>
486.17256188

> <PUBCHEM_TOTAL_CHARGE>
0

> <PUBCHEM_HEAVY_ATOM_COUNT>
35

> <PUBCHEM_ATOM_DEF_STEREO_COUNT>
0

> <PUBCHEM_ATOM_UDEF_STEREO_COUNT>
0

> <PUBCHEM_BOND_DEF_STEREO_COUNT>
0

> <PUBCHEM_BOND_UDEF_STEREO_COUNT>
0

> <PUBCHEM_ISOTOPIC_ATOM_COUNT>
0

> <PUBCHEM_COMPONENT_COUNT>
1

> <PUBCHEM_CACTVS_TAUTO_COUNT>
-1

> <PUBCHEM_COORDINATE_TYPE>
1
5
255

> <PUBCHEM_BONDANNOTATIONS>
10  11  8
10  14  8
11  16  8
13  15  8
14  19  8
16  20  8
17  24  8
17  25  8
19  20  8
24  27  8
25  28  8
26  30  8
26  31  8
27  29  8
28  29  8
30  33  8
31  34  8
33  35  8
34  35  8
5  11  8
5  12  8
6  15  8
6  18  8
7  13  8
7  18  8
9  10  8
9  12  8

$$$$
