49782604
  -OEChem-09292322312D

 61 63  0     0  0  0  0  0  0999 V2000
    4.9641    3.1340    0.0000 O   0  0  0  0  0  0  0  0  0  0  0  0
    2.8660   -2.2320    0.0000 O   0  0  0  0  0  0  0  0  0  0  0  0
    5.4641    0.2679    0.0000 N   0  0  0  0  0  0  0  0  0  0  0  0
    5.4641    2.2680    0.0000 C   0  0  0  0  0  0  0  0  0  0  0  0
    4.5981    1.7680    0.0000 C   0  0  0  0  0  0  0  0  0  0  0  0
    6.3301    1.7680    0.0000 C   0  0  0  0  0  0  0  0  0  0  0  0
    4.5981    0.7679    0.0000 C   0  0  0  0  0  0  0  0  0  0  0  0
    6.3301    0.7679    0.0000 C   0  0  0  0  0  0  0  0  0  0  0  0
    5.9641    3.1340    0.0000 C   0  0  0  0  0  0  0  0  0  0  0  0
    5.4641   -0.7321    0.0000 C   0  0  0  0  0  0  0  0  0  0  0  0
    4.5981   -1.2320    0.0000 C   0  0  0  0  0  0  0  0  0  0  0  0
    6.9641    3.1340    0.0000 C   0  0  0  0  0  0  0  0  0  0  0  0
    5.4641    4.0000    0.0000 C   0  0  0  0  0  0  0  0  0  0  0  0
    4.5981   -2.2320    0.0000 C   0  0  0  0  0  0  0  0  0  0  0  0
    5.9641    4.8660    0.0000 C   0  0  0  0  0  0  0  0  0  0  0  0
    7.4641    4.0000    0.0000 C   0  0  0  0  0  0  0  0  0  0  0  0
    7.4641    2.2680    0.0000 C   0  0  0  0  0  0  0  0  0  0  0  0
    6.9641    4.8660    0.0000 C   0  0  0  0  0  0  0  0  0  0  0  0
    3.7320   -2.7320    0.0000 C   0  0  0  0  0  0  0  0  0  0  0  0
    5.4641    5.7320    0.0000 C   0  0  0  0  0  0  0  0  0  0  0  0
    3.7320   -3.7320    0.0000 C   0  0  0  0  0  0  0  0  0  0  0  0
    4.5981   -4.2320    0.0000 C   0  0  0  0  0  0  0  0  0  0  0  0
    2.8660   -4.2320    0.0000 C   0  0  0  0  0  0  0  0  0  0  0  0
    2.8660   -5.2320    0.0000 C   0  0  0  0  0  0  0  0  0  0  0  0
    4.5981   -5.2320    0.0000 C   0  0  0  0  0  0  0  0  0  0  0  0
    5.4641   -3.7320    0.0000 C   0  0  0  0  0  0  0  0  0  0  0  0
    3.7320   -5.7320    0.0000 C   0  0  0  0  0  0  0  0  0  0  0  0
    2.0000   -5.7320    0.0000 C   0  0  0  0  0  0  0  0  0  0  0  0
    4.3860    2.3506    0.0000 H   0  0  0  0  0  0  0  0  0  0  0  0
    3.9875    1.6603    0.0000 H   0  0  0  0  0  0  0  0  0  0  0  0
    6.9407    1.6603    0.0000 H   0  0  0  0  0  0  0  0  0  0  0  0
    6.5422    2.3506    0.0000 H   0  0  0  0  0  0  0  0  0  0  0  0
    3.9875    0.8756    0.0000 H   0  0  0  0  0  0  0  0  0  0  0  0
    4.3860    0.1853    0.0000 H   0  0  0  0  0  0  0  0  0  0  0  0
    6.5422    0.1853    0.0000 H   0  0  0  0  0  0  0  0  0  0  0  0
    6.9407    0.8756    0.0000 H   0  0  0  0  0  0  0  0  0  0  0  0
    5.6762   -1.3147    0.0000 H   0  0  0  0  0  0  0  0  0  0  0  0
    6.0747   -0.6244    0.0000 H   0  0  0  0  0  0  0  0  0  0  0  0
    4.3860   -0.6494    0.0000 H   0  0  0  0  0  0  0  0  0  0  0  0
    3.9875   -1.3397    0.0000 H   0  0  0  0  0  0  0  0  0  0  0  0
    4.3441    3.1340    0.0000 H   0  0  0  0  0  0  0  0  0  0  0  0
    4.8441    4.0000    0.0000 H   0  0  0  0  0  0  0  0  0  0  0  0
    4.8101   -2.8147    0.0000 H   0  0  0  0  0  0  0  0  0  0  0  0
    5.2087   -2.1244    0.0000 H   0  0  0  0  0  0  0  0  0  0  0  0
    8.0841    4.0000    0.0000 H   0  0  0  0  0  0  0  0  0  0  0  0
    6.9272    1.9580    0.0000 H   0  0  0  0  0  0  0  0  0  0  0  0
    7.7741    1.7310    0.0000 H   0  0  0  0  0  0  0  0  0  0  0  0
    8.0010    2.5780    0.0000 H   0  0  0  0  0  0  0  0  0  0  0  0
    7.2741    5.4030    0.0000 H   0  0  0  0  0  0  0  0  0  0  0  0
    6.0010    6.0420    0.0000 H   0  0  0  0  0  0  0  0  0  0  0  0
    5.1541    6.2690    0.0000 H   0  0  0  0  0  0  0  0  0  0  0  0
    4.9272    5.4220    0.0000 H   0  0  0  0  0  0  0  0  0  0  0  0
    2.3291   -3.9220    0.0000 H   0  0  0  0  0  0  0  0  0  0  0  0
    5.1350   -5.5420    0.0000 H   0  0  0  0  0  0  0  0  0  0  0  0
    5.7741   -4.2690    0.0000 H   0  0  0  0  0  0  0  0  0  0  0  0
    6.0010   -3.4220    0.0000 H   0  0  0  0  0  0  0  0  0  0  0  0
    5.1541   -3.1951    0.0000 H   0  0  0  0  0  0  0  0  0  0  0  0
    3.7320   -6.3520    0.0000 H   0  0  0  0  0  0  0  0  0  0  0  0
    1.6900   -5.1951    0.0000 H   0  0  0  0  0  0  0  0  0  0  0  0
    1.4631   -6.0420    0.0000 H   0  0  0  0  0  0  0  0  0  0  0  0
    2.3100   -6.2690    0.0000 H   0  0  0  0  0  0  0  0  0  0  0  0
  1  4  1  0  0  0  0
  1 41  1  0  0  0  0
  2 19  2  0  0  0  0
  3  7  1  0  0  0  0
  3  8  1  0  0  0  0
  3 10  1  0  0  0  0
  4  5  1  0  0  0  0
  4  6  1  0  0  0  0
  4  9  1  0  0  0  0
  5  7  1  0  0  0  0
  5 29  1  0  0  0  0
  5 30  1  0  0  0  0
  6  8  1  0  0  0  0
  6 31  1  0  0  0  0
  6 32  1  0  0  0  0
  7 33  1  0  0  0  0
  7 34  1  0  0  0  0
  8 35  1  0  0  0  0
  8 36  1  0  0  0  0
  9 12  2  0  0  0  0
  9 13  1  0  0  0  0
 10 11  1  0  0  0  0
 10 37  1  0  0  0  0
 10 38  1  0  0  0  0
 11 14  1  0  0  0  0
 11 39  1  0  0  0  0
 11 40  1  0  0  0  0
 12 16  1  0  0  0  0
 12 17  1  0  0  0  0
 13 15  2  0  0  0  0
 13 42  1  0  0  0  0
 14 19  1  0  0  0  0
 14 43  1  0  0  0  0
 14 44  1  0  0  0  0
 15 18  1  0  0  0  0
 15 20  1  0  0  0  0
 16 18  2  0  0  0  0
 16 45  1  0  0  0  0
 17 46  1  0  0  0  0
 17 47  1  0  0  0  0
 17 48  1  0  0  0  0
 18 49  1  0  0  0  0
 19 21  1  0  0  0  0
 20 50  1  0  0  0  0
 20 51  1  0  0  0  0
 20 52  1  0  0  0  0
 21 22  2  0  0  0  0
 21 23  1  0  0  0  0
 22 25  1  0  0  0  0
 22 26  1  0  0  0  0
 23 24  2  0  0  0  0
 23 53  1  0  0  0  0
 24 27  1  0  0  0  0
 24 28  1  0  0  0  0
 25 27  2  0  0  0  0
 25 54  1  0  0  0  0
 26 55  1  0  0  0  0
 26 56  1  0  0  0  0
 26 57  1  0  0  0  0
 27 58  1  0  0  0  0
 28 59  1  0  0  0  0
 28 60  1  0  0  0  0
 28 61  1  0  0  0  0
M  END
> <PUBCHEM_COMPOUND_CID>
49782604

> <PUBCHEM_COMPOUND_CANONICALIZED>
1

> <PUBCHEM_CACTVS_COMPLEXITY>
511

> <PUBCHEM_CACTVS_HBOND_ACCEPTOR>
3

> <PUBCHEM_CACTVS_HBOND_DONOR>
1

> <PUBCHEM_CACTVS_ROTATABLE_BOND>
6

> <PUBCHEM_CACTVS_SUBSKEYS>
AAADcfB6MAAAAAAAAAAAAAAAAAAAAAAAAAA8YIAAAAAAAAABQAAAHgAACAAADETBmAQyAIMAAgCIAqBSAAACAAAkAAAIiAEICMgIJjKAlRCEcQAmwAGImYecyOCOwAACAAAQAACAAAQAACAAAAAAAAAAAA==

> <PUBCHEM_IUPAC_OPENEYE_NAME>
1-(2,5-dimethylphenyl)-4-[4-(2,5-dimethylphenyl)-4-hydroxy-1-piperidyl]butan-1-one

> <PUBCHEM_IUPAC_CAS_NAME>
1-(2,5-dimethylphenyl)-4-[4-(2,5-dimethylphenyl)-4-hydroxy-1-piperidinyl]-1-butanone

> <PUBCHEM_IUPAC_NAME_MARKUP>
1-(2,5-dimethylphenyl)-4-[4-(2,5-dimethylphenyl)-4-hydroxypiperidin-1-yl]butan-1-one

> <PUBCHEM_IUPAC_NAME>
1-(2,5-dimethylphenyl)-4-[4-(2,5-dimethylphenyl)-4-hydroxypiperidin-1-yl]butan-1-one

> <PUBCHEM_IUPAC_SYSTEMATIC_NAME>
1-(2,5-dimethylphenyl)-4-[4-(2,5-dimethylphenyl)-4-oxidanyl-piperidin-1-yl]butan-1-one

> <PUBCHEM_IUPAC_TRADITIONAL_NAME>
1-(2,5-dimethylphenyl)-4-[4-(2,5-dimethylphenyl)-4-hydroxy-piperidino]butan-1-one

> <PUBCHEM_IUPAC_INCHI>
InChI=1S/C25H33NO2/c1-18-7-9-20(3)22(16-18)24(27)6-5-13-26-14-11-25(28,12-15-26)23-17-19(2)8-10-21(23)4/h7-10,16-17,28H,5-6,11-15H2,1-4H3

> <PUBCHEM_IUPAC_INCHIKEY>
YHNXVNWEANWEHW-UHFFFAOYSA-N

> <PUBCHEM_XLOGP3_AA>
4.5

> <PUBCHEM_EXACT_MASS>
379.251129295

> <PUBCHEM_MOLECULAR_FORMULA>
C25H33NO2

> <PUBCHEM_MOLECULAR_WEIGHT>
379.5

> <PUBCHEM_OPENEYE_CAN_SMILES>
CC1=CC(=C(C=C1)C)C(=O)CCCN2CCC(CC2)(C3=C(C=CC(=C3)C)C)O

> <PUBCHEM_OPENEYE_ISO_SMILES>
CC1=CC(=C(C=C1)C)C(=O)CCCN2CCC(CC2)(C3=C(C=CC(=C3)C)C)O

> <PUBCHEM_CACTVS_TPSA>
40.5

> <PUBCHEM_MONOISOTOPIC_WEIGHT>
379.251129295

> <PUBCHEM_TOTAL_CHARGE>
0

> <PUBCHEM_HEAVY_ATOM_COUNT>
28

> <PUBCHEM_ATOM_DEF_STEREO_COUNT>
0

> <PUBCHEM_ATOM_UDEF_STEREO_COUNT>
0

> <PUBCHEM_BOND_DEF_STEREO_COUNT>
0

> <PUBCHEM_BOND_UDEF_STEREO_COUNT>
0

> <PUBCHEM_ISOTOPIC_ATOM_COUNT>
0

> <PUBCHEM_COMPONENT_COUNT>
1

> <PUBCHEM_CACTVS_TAUTO_COUNT>
-1

> <PUBCHEM_COORDINATE_TYPE>
1
5
255

> <PUBCHEM_BONDANNOTATIONS>
12  16  8
13  15  8
15  18  8
16  18  8
21  22  8
21  23  8
22  25  8
23  24  8
24  27  8
25  27  8
9  12  8
9  13  8

$$$$
