145985295
  -OEChem-09292322002D

144149  0     1  0  0  0  0  0999 V2000
    2.0000   -7.1358    0.0000 S   0  0  0  0  0  0  0  0  0  0  0  0
   37.1957    3.1890    0.0000 O   0  0  0  0  0  0  0  0  0  0  0  0
   27.6530    5.7236    0.0000 O   0  0  0  0  0  0  0  0  0  0  0  0
    9.6382   -3.3668    0.0000 O   0  0  0  0  0  0  0  0  0  0  0  0
    7.6492   -3.1577    0.0000 O   0  0  0  0  0  0  0  0  0  0  0  0
   33.7152    6.2236    0.0000 N   0  0  3  0  0  0  0  0  0  0  0  0
   14.5662    0.4693    0.0000 N   0  0  3  0  0  0  0  0  0  0  0  0
   28.5191    4.2236    0.0000 N   0  0  0  0  0  0  0  0  0  0  0  0
   23.4723    3.8872    0.0000 N   0  0  0  0  0  0  0  0  0  0  0  0
   23.9723    3.0211    0.0000 N   0  0  0  0  0  0  0  0  0  0  0  0
    9.8193   -1.6442    0.0000 N   0  0  0  0  0  0  0  0  0  0  0  0
   24.9504    3.2290    0.0000 N   0  0  0  0  0  0  0  0  0  0  0  0
    5.2534   -2.0351    0.0000 N   0  0  0  0  0  0  0  0  0  0  0  0
    3.6180   -7.1358    0.0000 N   0  0  0  0  0  0  0  0  0  0  0  0
   34.5812    5.7236    0.0000 C   0  0  3  0  0  0  0  0  0  0  0  0
   34.5812    4.7236    0.0000 C   0  0  0  0  0  0  0  0  0  0  0  0
   35.4473    6.2236    0.0000 C   0  0  0  0  0  0  0  0  0  0  0  0
   35.4473    4.2236    0.0000 C   0  0  0  0  0  0  0  0  0  0  0  0
   36.3133    5.7236    0.0000 C   0  0  0  0  0  0  0  0  0  0  0  0
   36.3133    4.7236    0.0000 C   0  0  0  0  0  0  0  0  0  0  0  0
   32.8492    5.7236    0.0000 C   0  0  0  0  0  0  0  0  0  0  0  0
   33.7152    7.2236    0.0000 C   0  0  0  0  0  0  0  0  0  0  0  0
   31.9832    6.2236    0.0000 C   0  0  0  0  0  0  0  0  0  0  0  0
   37.2072    6.2582    0.0000 C   0  0  0  0  0  0  0  0  0  0  0  0
   37.2072    4.1889    0.0000 C   0  0  0  0  0  0  0  0  0  0  0  0
   32.8492    7.7236    0.0000 C   0  0  0  0  0  0  0  0  0  0  0  0
   38.1133    5.7444    0.0000 C   0  0  0  0  0  0  0  0  0  0  0  0
   38.1133    4.7028    0.0000 C   0  0  0  0  0  0  0  0  0  0  0  0
   31.1171    5.7236    0.0000 C   0  0  0  0  0  0  0  0  0  0  0  0
   32.8492    8.7236    0.0000 C   0  0  0  0  0  0  0  0  0  0  0  0
   31.1171    4.7236    0.0000 C   0  0  0  0  0  0  0  0  0  0  0  0
   30.2511    6.2236    0.0000 C   0  0  0  0  0  0  0  0  0  0  0  0
   30.2511    4.2236    0.0000 C   0  0  0  0  0  0  0  0  0  0  0  0
   29.3851    5.7236    0.0000 C   0  0  0  0  0  0  0  0  0  0  0  0
   29.3851    4.7236    0.0000 C   0  0  0  0  0  0  0  0  0  0  0  0
   17.7308    1.8782    0.0000 C   0  0  0  0  0  0  0  0  0  0  0  0
   18.7254    1.7737    0.0000 C   0  0  0  0  0  0  0  0  0  0  0  0
   17.1430    1.0692    0.0000 C   0  0  0  0  0  0  0  0  0  0  0  0
   19.3131    2.5827    0.0000 C   0  0  0  0  0  0  0  0  0  0  0  0
   16.1485    1.1737    0.0000 C   0  0  0  0  0  0  0  0  0  0  0  0
   20.3077    2.4782    0.0000 C   0  0  0  0  0  0  0  0  0  0  0  0
   15.5607    0.3647    0.0000 C   0  0  0  0  0  0  0  0  0  0  0  0
   20.8954    3.2872    0.0000 C   0  0  0  0  0  0  0  0  0  0  0  0
   13.9784   -0.3398    0.0000 C   0  0  0  0  0  0  0  0  0  0  0  0
   21.8900    3.1827    0.0000 C   0  0  0  0  0  0  0  0  0  0  0  0
   12.9839   -0.2352    0.0000 C   0  0  0  0  0  0  0  0  0  0  0  0
   12.3961   -1.0442    0.0000 C   0  0  0  0  0  0  0  0  0  0  0  0
   22.4778    3.9917    0.0000 C   0  0  0  0  0  0  0  0  0  0  0  0
   14.1595    1.3828    0.0000 C   0  0  0  0  0  0  0  0  0  0  0  0
   11.4016   -0.9397    0.0000 C   0  0  0  0  0  0  0  0  0  0  0  0
   27.6530    4.7236    0.0000 C   0  0  0  0  0  0  0  0  0  0  0  0
   26.7870    4.2236    0.0000 C   0  0  0  0  0  0  0  0  0  0  0  0
   25.9210    4.7236    0.0000 C   0  0  0  0  0  0  0  0  0  0  0  0
   10.8138   -1.7487    0.0000 C   0  0  0  0  0  0  0  0  0  0  0  0
   25.0549    4.2236    0.0000 C   0  0  0  0  0  0  0  0  0  0  0  0
   24.1414    4.6303    0.0000 C   0  0  0  0  0  0  0  0  0  0  0  0
    9.2315   -2.4532    0.0000 C   0  0  0  0  0  0  0  0  0  0  0  0
    8.2370   -2.3487    0.0000 C   0  0  0  0  0  0  0  0  0  0  0  0
    6.6547   -3.0532    0.0000 C   0  0  0  0  0  0  0  0  0  0  0  0
    6.0669   -3.8622    0.0000 C   0  0  0  0  0  0  0  0  0  0  0  0
    6.2479   -2.1396    0.0000 C   0  0  0  0  0  0  0  0  0  0  0  0
    5.0724   -3.7577    0.0000 C   0  0  0  0  0  0  0  0  0  0  0  0
    4.6656   -2.8441    0.0000 C   0  0  0  0  0  0  0  0  0  0  0  0
    4.4846   -4.5667    0.0000 C   0  0  0  0  0  0  0  0  0  0  0  0
    3.8968   -5.3757    0.0000 C   0  0  0  0  0  0  0  0  0  0  0  0
    3.3090   -6.1847    0.0000 C   0  0  0  0  0  0  0  0  0  0  0  0
    2.3090   -6.1847    0.0000 C   0  0  0  0  0  0  0  0  0  0  0  0
    2.8090   -7.7236    0.0000 C   0  0  0  0  0  0  0  0  0  0  0  0
    2.8090   -8.7236    0.0000 C   0  0  0  0  0  0  0  0  0  0  0  0
   34.5812    6.3436    0.0000 H   0  0  0  0  0  0  0  0  0  0  0  0
   33.9706    4.8312    0.0000 H   0  0  0  0  0  0  0  0  0  0  0  0
   34.3692    4.1410    0.0000 H   0  0  0  0  0  0  0  0  0  0  0  0
   35.8458    6.6985    0.0000 H   0  0  0  0  0  0  0  0  0  0  0  0
   35.0487    6.6985    0.0000 H   0  0  0  0  0  0  0  0  0  0  0  0
   35.0487    3.7486    0.0000 H   0  0  0  0  0  0  0  0  0  0  0  0
   35.8458    3.7486    0.0000 H   0  0  0  0  0  0  0  0  0  0  0  0
   32.4506    5.2486    0.0000 H   0  0  0  0  0  0  0  0  0  0  0  0
   33.2477    5.2486    0.0000 H   0  0  0  0  0  0  0  0  0  0  0  0
   34.3258    7.1159    0.0000 H   0  0  0  0  0  0  0  0  0  0  0  0
   33.9273    7.8062    0.0000 H   0  0  0  0  0  0  0  0  0  0  0  0
   32.3817    6.6985    0.0000 H   0  0  0  0  0  0  0  0  0  0  0  0
   31.5846    6.6985    0.0000 H   0  0  0  0  0  0  0  0  0  0  0  0
   37.2001    6.8782    0.0000 H   0  0  0  0  0  0  0  0  0  0  0  0
   32.2386    7.8312    0.0000 H   0  0  0  0  0  0  0  0  0  0  0  0
   32.6371    7.1410    0.0000 H   0  0  0  0  0  0  0  0  0  0  0  0
   38.6490    6.0565    0.0000 H   0  0  0  0  0  0  0  0  0  0  0  0
   38.6490    4.3907    0.0000 H   0  0  0  0  0  0  0  0  0  0  0  0
   33.4692    8.7236    0.0000 H   0  0  0  0  0  0  0  0  0  0  0  0
   32.8492    9.3436    0.0000 H   0  0  0  0  0  0  0  0  0  0  0  0
   32.2292    8.7236    0.0000 H   0  0  0  0  0  0  0  0  0  0  0  0
   37.7290    2.8728    0.0000 H   0  0  0  0  0  0  0  0  0  0  0  0
   31.6541    4.4136    0.0000 H   0  0  0  0  0  0  0  0  0  0  0  0
   30.2511    6.8436    0.0000 H   0  0  0  0  0  0  0  0  0  0  0  0
   30.2511    3.6036    0.0000 H   0  0  0  0  0  0  0  0  0  0  0  0
   28.8481    6.0336    0.0000 H   0  0  0  0  0  0  0  0  0  0  0  0
   17.9017    2.4742    0.0000 H   0  0  0  0  0  0  0  0  0  0  0  0
   17.1736    2.1500    0.0000 H   0  0  0  0  0  0  0  0  0  0  0  0
   18.5545    1.1777    0.0000 H   0  0  0  0  0  0  0  0  0  0  0  0
   19.2826    1.5019    0.0000 H   0  0  0  0  0  0  0  0  0  0  0  0
   16.9722    0.4732    0.0000 H   0  0  0  0  0  0  0  0  0  0  0  0
   17.7003    0.7974    0.0000 H   0  0  0  0  0  0  0  0  0  0  0  0
   19.4840    3.1787    0.0000 H   0  0  0  0  0  0  0  0  0  0  0  0
   18.7559    2.8545    0.0000 H   0  0  0  0  0  0  0  0  0  0  0  0
   16.3194    1.7697    0.0000 H   0  0  0  0  0  0  0  0  0  0  0  0
   15.5913    1.4455    0.0000 H   0  0  0  0  0  0  0  0  0  0  0  0
   20.1368    1.8822    0.0000 H   0  0  0  0  0  0  0  0  0  0  0  0
   20.8649    2.2064    0.0000 H   0  0  0  0  0  0  0  0  0  0  0  0
   15.3898   -0.2313    0.0000 H   0  0  0  0  0  0  0  0  0  0  0  0
   16.1180    0.0929    0.0000 H   0  0  0  0  0  0  0  0  0  0  0  0
   21.0663    3.8832    0.0000 H   0  0  0  0  0  0  0  0  0  0  0  0
   20.3382    3.5590    0.0000 H   0  0  0  0  0  0  0  0  0  0  0  0
   13.8075   -0.9357    0.0000 H   0  0  0  0  0  0  0  0  0  0  0  0
   14.5357   -0.6116    0.0000 H   0  0  0  0  0  0  0  0  0  0  0  0
   21.7191    2.5867    0.0000 H   0  0  0  0  0  0  0  0  0  0  0  0
   22.4472    2.9109    0.0000 H   0  0  0  0  0  0  0  0  0  0  0  0
   28.5191    3.6036    0.0000 H   0  0  0  0  0  0  0  0  0  0  0  0
   13.1548    0.3607    0.0000 H   0  0  0  0  0  0  0  0  0  0  0  0
   12.4267    0.0366    0.0000 H   0  0  0  0  0  0  0  0  0  0  0  0
   12.2252   -1.6402    0.0000 H   0  0  0  0  0  0  0  0  0  0  0  0
   12.9534   -1.3160    0.0000 H   0  0  0  0  0  0  0  0  0  0  0  0
   22.6486    4.5877    0.0000 H   0  0  0  0  0  0  0  0  0  0  0  0
   21.9205    4.2635    0.0000 H   0  0  0  0  0  0  0  0  0  0  0  0
   14.7259    1.6350    0.0000 H   0  0  0  0  0  0  0  0  0  0  0  0
   13.9073    1.9492    0.0000 H   0  0  0  0  0  0  0  0  0  0  0  0
   13.5931    1.1306    0.0000 H   0  0  0  0  0  0  0  0  0  0  0  0
   11.5725   -0.3437    0.0000 H   0  0  0  0  0  0  0  0  0  0  0  0
   10.8443   -0.6679    0.0000 H   0  0  0  0  0  0  0  0  0  0  0  0
   26.3885    3.7486    0.0000 H   0  0  0  0  0  0  0  0  0  0  0  0
   27.1855    3.7486    0.0000 H   0  0  0  0  0  0  0  0  0  0  0  0
   26.3195    5.1985    0.0000 H   0  0  0  0  0  0  0  0  0  0  0  0
   25.5224    5.1985    0.0000 H   0  0  0  0  0  0  0  0  0  0  0  0
   10.6429   -2.3447    0.0000 H   0  0  0  0  0  0  0  0  0  0  0  0
   11.3711   -2.0205    0.0000 H   0  0  0  0  0  0  0  0  0  0  0  0
   24.0125    5.2368    0.0000 H   0  0  0  0  0  0  0  0  0  0  0  0
    9.5671   -1.0778    0.0000 H   0  0  0  0  0  0  0  0  0  0  0  0
    8.4079   -1.7527    0.0000 H   0  0  0  0  0  0  0  0  0  0  0  0
    7.6797   -2.0769    0.0000 H   0  0  0  0  0  0  0  0  0  0  0  0
    6.3191   -4.4286    0.0000 H   0  0  0  0  0  0  0  0  0  0  0  0
    6.6124   -1.6381    0.0000 H   0  0  0  0  0  0  0  0  0  0  0  0
    4.0490   -2.7793    0.0000 H   0  0  0  0  0  0  0  0  0  0  0  0
    1.9446   -5.6831    0.0000 H   0  0  0  0  0  0  0  0  0  0  0  0
    2.1890   -8.7236    0.0000 H   0  0  0  0  0  0  0  0  0  0  0  0
    2.8090   -9.3436    0.0000 H   0  0  0  0  0  0  0  0  0  0  0  0
    3.4290   -8.7236    0.0000 H   0  0  0  0  0  0  0  0  0  0  0  0
  1 67  1  0  0  0  0
  1 68  1  0  0  0  0
  2 25  1  0  0  0  0
  2 91  1  0  0  0  0
  3 51  2  0  0  0  0
  4 57  2  0  0  0  0
  5 58  1  0  0  0  0
  5 59  1  0  0  0  0
  6 15  1  0  0  0  0
  6 21  1  0  0  0  0
  6 22  1  0  0  0  0
  7 42  1  0  0  0  0
  7 44  1  0  0  0  0
  7 49  1  0  0  0  0
  8 35  1  0  0  0  0
  8 51  1  0  0  0  0
  8116  1  0  0  0  0
  9 10  1  0  0  0  0
  9 48  1  0  0  0  0
  9 56  1  0  0  0  0
 10 12  2  0  0  0  0
 11 54  1  0  0  0  0
 11 57  1  0  0  0  0
 11135  1  0  0  0  0
 12 55  1  0  0  0  0
 13 61  1  0  0  0  0
 13 63  2  0  0  0  0
 14 66  1  0  0  0  0
 14 68  2  0  0  0  0
 15 16  1  0  0  0  0
 15 17  1  0  0  0  0
 15 70  1  0  0  0  0
 16 18  1  0  0  0  0
 16 71  1  0  0  0  0
 16 72  1  0  0  0  0
 17 19  1  0  0  0  0
 17 73  1  0  0  0  0
 17 74  1  0  0  0  0
 18 20  1  0  0  0  0
 18 75  1  0  0  0  0
 18 76  1  0  0  0  0
 19 20  2  0  0  0  0
 19 24  1  0  0  0  0
 20 25  1  0  0  0  0
 21 23  1  0  0  0  0
 21 77  1  0  0  0  0
 21 78  1  0  0  0  0
 22 26  1  0  0  0  0
 22 79  1  0  0  0  0
 22 80  1  0  0  0  0
 23 29  1  0  0  0  0
 23 81  1  0  0  0  0
 23 82  1  0  0  0  0
 24 27  2  0  0  0  0
 24 83  1  0  0  0  0
 25 28  2  0  0  0  0
 26 30  1  0  0  0  0
 26 84  1  0  0  0  0
 26 85  1  0  0  0  0
 27 28  1  0  0  0  0
 27 86  1  0  0  0  0
 28 87  1  0  0  0  0
 29 31  2  0  0  0  0
 29 32  1  0  0  0  0
 30 88  1  0  0  0  0
 30 89  1  0  0  0  0
 30 90  1  0  0  0  0
 31 33  1  0  0  0  0
 31 92  1  0  0  0  0
 32 34  2  0  0  0  0
 32 93  1  0  0  0  0
 33 35  2  0  0  0  0
 33 94  1  0  0  0  0
 34 35  1  0  0  0  0
 34 95  1  0  0  0  0
 36 37  1  0  0  0  0
 36 38  1  0  0  0  0
 36 96  1  0  0  0  0
 36 97  1  0  0  0  0
 37 39  1  0  0  0  0
 37 98  1  0  0  0  0
 37 99  1  0  0  0  0
 38 40  1  0  0  0  0
 38100  1  0  0  0  0
 38101  1  0  0  0  0
 39 41  1  0  0  0  0
 39102  1  0  0  0  0
 39103  1  0  0  0  0
 40 42  1  0  0  0  0
 40104  1  0  0  0  0
 40105  1  0  0  0  0
 41 43  1  0  0  0  0
 41106  1  0  0  0  0
 41107  1  0  0  0  0
 42108  1  0  0  0  0
 42109  1  0  0  0  0
 43 45  1  0  0  0  0
 43110  1  0  0  0  0
 43111  1  0  0  0  0
 44 46  1  0  0  0  0
 44112  1  0  0  0  0
 44113  1  0  0  0  0
 45 48  1  0  0  0  0
 45114  1  0  0  0  0
 45115  1  0  0  0  0
 46 47  1  0  0  0  0
 46117  1  0  0  0  0
 46118  1  0  0  0  0
 47 50  1  0  0  0  0
 47119  1  0  0  0  0
 47120  1  0  0  0  0
 48121  1  0  0  0  0
 48122  1  0  0  0  0
 49123  1  0  0  0  0
 49124  1  0  0  0  0
 49125  1  0  0  0  0
 50 54  1  0  0  0  0
 50126  1  0  0  0  0
 50127  1  0  0  0  0
 51 52  1  0  0  0  0
 52 53  1  0  0  0  0
 52128  1  0  0  0  0
 52129  1  0  0  0  0
 53 55  1  0  0  0  0
 53130  1  0  0  0  0
 53131  1  0  0  0  0
 54132  1  0  0  0  0
 54133  1  0  0  0  0
 55 56  2  0  0  0  0
 56134  1  0  0  0  0
 57 58  1  0  0  0  0
 58136  1  0  0  0  0
 58137  1  0  0  0  0
 59 60  1  0  0  0  0
 59 61  2  0  0  0  0
 60 62  2  0  0  0  0
 60138  1  0  0  0  0
 61139  1  0  0  0  0
 62 63  1  0  0  0  0
 62 64  1  0  0  0  0
 63140  1  0  0  0  0
 64 65  3  0  0  0  0
 65 66  1  0  0  0  0
 66 67  2  0  0  0  0
 67141  1  0  0  0  0
 68 69  1  0  0  0  0
 69142  1  0  0  0  0
 69143  1  0  0  0  0
 69144  1  0  0  0  0
M  END
> <PUBCHEM_COMPOUND_CID>
145985295

> <PUBCHEM_COMPOUND_CANONICALIZED>
1

> <PUBCHEM_CACTVS_COMPLEXITY>
1510

> <PUBCHEM_CACTVS_HBOND_ACCEPTOR>
11

> <PUBCHEM_CACTVS_HBOND_DONOR>
3

> <PUBCHEM_CACTVS_ROTATABLE_BOND>
32

> <PUBCHEM_CACTVS_SUBSKEYS>
AAADcfB/+ABAAAAAAAAAAAAAAAAAAWLAAAA8YMEAAAAAAADB/AAAHgQYCAAADCzl3ga+x5PIFgjuEzV3VA6C/KRx+jgY2LV/fJgOZvLmsZ+XeCjk1hH4+Ae80bMOiAABAAAYAAAQAAKAADAAAAAAAAAAAA==

> <PUBCHEM_IUPAC_OPENEYE_NAME>
N-[4-[2-[(5-hydroxytetralin-2-yl)-propyl-amino]ethyl]phenyl]-3-[1-[10-[methyl-[5-[[2-[[5-[2-(2-methylthiazol-4-yl)ethynyl]-3-pyridyl]oxy]acetyl]amino]pentyl]amino]decyl]triazol-4-yl]propanamide

> <PUBCHEM_IUPAC_CAS_NAME>
N-[4-[2-[(5-hydroxy-1,2,3,4-tetrahydronaphthalen-2-yl)-propylamino]ethyl]phenyl]-3-[1-[10-[methyl-[5-[[2-[[5-[2-(2-methyl-4-thiazolyl)ethynyl]-3-pyridinyl]oxy]-1-oxoethyl]amino]pentyl]amino]decyl]-4-triazolyl]propanamide

> <PUBCHEM_IUPAC_NAME_MARKUP>
<I>N</I>-[4-[2-[(5-hydroxy-1,2,3,4-tetrahydronaphthalen-2-yl)-propylamino]ethyl]phenyl]-3-[1-[10-[methyl-[5-[[2-[5-[2-(2-methyl-1,3-thiazol-4-yl)ethynyl]pyridin-3-yl]oxyacetyl]amino]pentyl]amino]decyl]triazol-4-yl]propanamide

> <PUBCHEM_IUPAC_NAME>
N-[4-[2-[(5-hydroxy-1,2,3,4-tetrahydronaphthalen-2-yl)-propylamino]ethyl]phenyl]-3-[1-[10-[methyl-[5-[[2-[5-[2-(2-methyl-1,3-thiazol-4-yl)ethynyl]pyridin-3-yl]oxyacetyl]amino]pentyl]amino]decyl]triazol-4-yl]propanamide

> <PUBCHEM_IUPAC_SYSTEMATIC_NAME>
3-[1-[10-[methyl-[5-[2-[5-[2-(2-methyl-1,3-thiazol-4-yl)ethynyl]pyridin-3-yl]oxyethanoylamino]pentyl]amino]decyl]-1,2,3-triazol-4-yl]-N-[4-[2-[(5-oxidanyl-1,2,3,4-tetrahydronaphthalen-2-yl)-propyl-amino]ethyl]phenyl]propanamide

> <PUBCHEM_IUPAC_TRADITIONAL_NAME>
N-[4-[2-[(5-hydroxytetralin-2-yl)-propyl-amino]ethyl]phenyl]-3-[1-[10-[methyl-[5-[[2-[[5-[2-(2-methylthiazol-4-yl)ethynyl]-3-pyridyl]oxy]acetyl]amino]pentyl]amino]decyl]triazol-4-yl]propionamide

> <PUBCHEM_IUPAC_INCHI>
InChI=1S/C55H75N9O4S/c1-4-31-63(50-26-27-52-46(37-50)17-16-18-53(52)65)35-29-44-19-22-47(23-20-44)59-54(66)28-25-48-40-64(61-60-48)34-15-10-8-6-5-7-9-13-32-62(3)33-14-11-12-30-57-55(67)41-68-51-36-45(38-56-39-51)21-24-49-42-69-43(2)58-49/h16-20,22-23,36,38-40,42,50,65H,4-15,25-35,37,41H2,1-3H3,(H,57,67)(H,59,66)

> <PUBCHEM_IUPAC_INCHIKEY>
FOVUVYKDWJUHPC-UHFFFAOYSA-N

> <PUBCHEM_XLOGP3_AA>
10.1

> <PUBCHEM_EXACT_MASS>
957.56627308

> <PUBCHEM_MOLECULAR_FORMULA>
C55H75N9O4S

> <PUBCHEM_MOLECULAR_WEIGHT>
958.3

> <PUBCHEM_OPENEYE_CAN_SMILES>
CCCN(CCC1=CC=C(C=C1)NC(=O)CCC2=CN(N=N2)CCCCCCCCCCN(C)CCCCCNC(=O)COC3=CN=CC(=C3)C#CC4=CSC(=N4)C)C5CCC6=C(C5)C=CC=C6O

> <PUBCHEM_OPENEYE_ISO_SMILES>
CCCN(CCC1=CC=C(C=C1)NC(=O)CCC2=CN(N=N2)CCCCCCCCCCN(C)CCCCCNC(=O)COC3=CN=CC(=C3)C#CC4=CSC(=N4)C)C5CCC6=C(C5)C=CC=C6O

> <PUBCHEM_CACTVS_TPSA>
179

> <PUBCHEM_MONOISOTOPIC_WEIGHT>
957.56627308

> <PUBCHEM_TOTAL_CHARGE>
0

> <PUBCHEM_HEAVY_ATOM_COUNT>
69

> <PUBCHEM_ATOM_DEF_STEREO_COUNT>
0

> <PUBCHEM_ATOM_UDEF_STEREO_COUNT>
1

> <PUBCHEM_BOND_DEF_STEREO_COUNT>
0

> <PUBCHEM_BOND_UDEF_STEREO_COUNT>
0

> <PUBCHEM_ISOTOPIC_ATOM_COUNT>
0

> <PUBCHEM_COMPONENT_COUNT>
1

> <PUBCHEM_CACTVS_TAUTO_COUNT>
-1

> <PUBCHEM_COORDINATE_TYPE>
1
5
255

> <PUBCHEM_BONDANNOTATIONS>
1  67  8
1  68  8
10  12  8
12  55  8
13  61  8
13  63  8
14  66  8
14  68  8
19  20  8
19  24  8
20  25  8
24  27  8
25  28  8
27  28  8
29  31  8
29  32  8
31  33  8
32  34  8
33  35  8
34  35  8
55  56  8
59  60  8
59  61  8
15  6  3
60  62  8
62  63  8
66  67  8
9  10  8
9  56  8

$$$$
