44335972
  -OEChem-09292322182D

 56 59  0     1  0  0  0  0  0999 V2000
    9.4312   -5.3859    0.0000 Cl  0  0  0  0  0  0  0  0  0  0  0  0
    4.3211    1.8864    0.0000 O   0  0  0  0  0  0  0  0  0  0  0  0
    6.2781    1.4739    0.0000 N   0  0  0  0  0  0  0  0  0  0  0  0
    6.8994   -0.4271    0.0000 N   0  0  0  0  0  0  0  0  0  0  0  0
    4.6783    3.5812    0.0000 N   0  0  0  0  0  0  0  0  0  0  0  0
    5.2619    4.3859    0.0000 C   0  0  3  0  0  0  0  0  0  0  0  0
    7.2566    1.2677    0.0000 C   0  0  0  0  0  0  0  0  0  0  0  0
    5.6103    0.7296    0.0000 C   0  0  0  0  0  0  0  0  0  0  0  0
    7.5673    0.3172    0.0000 C   0  0  0  0  0  0  0  0  0  0  0  0
    5.9209   -0.2209    0.0000 C   0  0  0  0  0  0  0  0  0  0  0  0
    5.9674    2.4245    0.0000 C   0  0  0  0  0  0  0  0  0  0  0  0
    4.6783    5.1907    0.0000 C   0  0  0  0  0  0  0  0  0  0  0  0
    3.7320    3.8859    0.0000 C   0  0  0  0  0  0  0  0  0  0  0  0
    3.7320    4.8859    0.0000 C   0  0  0  0  0  0  0  0  0  0  0  0
    4.9889    2.6307    0.0000 C   0  0  0  0  0  0  0  0  0  0  0  0
    7.2101   -1.3776    0.0000 C   0  0  0  0  0  0  0  0  0  0  0  0
    6.2619    4.3859    0.0000 C   0  0  0  0  0  0  0  0  0  0  0  0
    8.1886   -1.5838    0.0000 C   0  0  0  0  0  0  0  0  0  0  0  0
    2.8660    3.3859    0.0000 C   0  0  0  0  0  0  0  0  0  0  0  0
    2.8660    5.3859    0.0000 C   0  0  0  0  0  0  0  0  0  0  0  0
    8.4993   -2.5344    0.0000 C   0  0  0  0  0  0  0  0  0  0  0  0
    2.0000    3.8859    0.0000 C   0  0  0  0  0  0  0  0  0  0  0  0
    2.0000    4.8859    0.0000 C   0  0  0  0  0  0  0  0  0  0  0  0
    7.8314   -3.2787    0.0000 C   0  0  0  0  0  0  0  0  0  0  0  0
    9.4778   -2.7406    0.0000 C   0  0  0  0  0  0  0  0  0  0  0  0
    8.1421   -4.2292    0.0000 C   0  0  0  0  0  0  0  0  0  0  0  0
    9.7884   -3.6911    0.0000 C   0  0  0  0  0  0  0  0  0  0  0  0
    9.1206   -4.4354    0.0000 C   0  0  0  0  0  0  0  0  0  0  0  0
    5.5436    3.8336    0.0000 H   0  0  0  0  0  0  0  0  0  0  0  0
    7.8704    1.3551    0.0000 H   0  0  0  0  0  0  0  0  0  0  0  0
    7.2772    1.8874    0.0000 H   0  0  0  0  0  0  0  0  0  0  0  0
    5.2277    1.2175    0.0000 H   0  0  0  0  0  0  0  0  0  0  0  0
    5.0633    0.4376    0.0000 H   0  0  0  0  0  0  0  0  0  0  0  0
    7.9498   -0.1707    0.0000 H   0  0  0  0  0  0  0  0  0  0  0  0
    8.1142    0.6092    0.0000 H   0  0  0  0  0  0  0  0  0  0  0  0
    5.3071   -0.3082    0.0000 H   0  0  0  0  0  0  0  0  0  0  0  0
    5.9004   -0.8405    0.0000 H   0  0  0  0  0  0  0  0  0  0  0  0
    6.5812    2.5118    0.0000 H   0  0  0  0  0  0  0  0  0  0  0  0
    5.9880    3.0441    0.0000 H   0  0  0  0  0  0  0  0  0  0  0  0
    5.2156    5.4999    0.0000 H   0  0  0  0  0  0  0  0  0  0  0  0
    4.4272    5.7576    0.0000 H   0  0  0  0  0  0  0  0  0  0  0  0
    6.5963   -1.4650    0.0000 H   0  0  0  0  0  0  0  0  0  0  0  0
    7.1895   -1.9973    0.0000 H   0  0  0  0  0  0  0  0  0  0  0  0
    6.2619    3.7659    0.0000 H   0  0  0  0  0  0  0  0  0  0  0  0
    6.8819    4.3859    0.0000 H   0  0  0  0  0  0  0  0  0  0  0  0
    6.2619    5.0059    0.0000 H   0  0  0  0  0  0  0  0  0  0  0  0
    8.8024   -1.4965    0.0000 H   0  0  0  0  0  0  0  0  0  0  0  0
    8.2092   -0.9642    0.0000 H   0  0  0  0  0  0  0  0  0  0  0  0
    2.8660    2.7659    0.0000 H   0  0  0  0  0  0  0  0  0  0  0  0
    2.8660    6.0059    0.0000 H   0  0  0  0  0  0  0  0  0  0  0  0
    1.4631    3.5759    0.0000 H   0  0  0  0  0  0  0  0  0  0  0  0
    1.4631    5.1959    0.0000 H   0  0  0  0  0  0  0  0  0  0  0  0
    7.2247   -3.1508    0.0000 H   0  0  0  0  0  0  0  0  0  0  0  0
    9.8918   -2.2791    0.0000 H   0  0  0  0  0  0  0  0  0  0  0  0
    7.7280   -4.6906    0.0000 H   0  0  0  0  0  0  0  0  0  0  0  0
   10.3951   -3.8190    0.0000 H   0  0  0  0  0  0  0  0  0  0  0  0
  1 28  1  0  0  0  0
  2 15  2  0  0  0  0
  3  7  1  0  0  0  0
  3  8  1  0  0  0  0
  3 11  1  0  0  0  0
  4  9  1  0  0  0  0
  4 10  1  0  0  0  0
  4 16  1  0  0  0  0
  5  6  1  0  0  0  0
  5 13  1  0  0  0  0
  5 15  1  0  0  0  0
  6 12  1  0  0  0  0
  6 17  1  0  0  0  0
  6 29  1  0  0  0  0
  7  9  1  0  0  0  0
  7 30  1  0  0  0  0
  7 31  1  0  0  0  0
  8 10  1  0  0  0  0
  8 32  1  0  0  0  0
  8 33  1  0  0  0  0
  9 34  1  0  0  0  0
  9 35  1  0  0  0  0
 10 36  1  0  0  0  0
 10 37  1  0  0  0  0
 11 15  1  0  0  0  0
 11 38  1  0  0  0  0
 11 39  1  0  0  0  0
 12 14  1  0  0  0  0
 12 40  1  0  0  0  0
 12 41  1  0  0  0  0
 13 14  1  0  0  0  0
 13 19  2  0  0  0  0
 14 20  2  0  0  0  0
 16 18  1  0  0  0  0
 16 42  1  0  0  0  0
 16 43  1  0  0  0  0
 17 44  1  0  0  0  0
 17 45  1  0  0  0  0
 17 46  1  0  0  0  0
 18 21  1  0  0  0  0
 18 47  1  0  0  0  0
 18 48  1  0  0  0  0
 19 22  1  0  0  0  0
 19 49  1  0  0  0  0
 20 23  1  0  0  0  0
 20 50  1  0  0  0  0
 21 24  2  0  0  0  0
 21 25  1  0  0  0  0
 22 23  2  0  0  0  0
 22 51  1  0  0  0  0
 23 52  1  0  0  0  0
 24 26  1  0  0  0  0
 24 53  1  0  0  0  0
 25 27  2  0  0  0  0
 25 54  1  0  0  0  0
 26 28  2  0  0  0  0
 26 55  1  0  0  0  0
 27 28  1  0  0  0  0
 27 56  1  0  0  0  0
M  END
> <PUBCHEM_COMPOUND_CID>
44335972

> <PUBCHEM_COMPOUND_CANONICALIZED>
1

> <PUBCHEM_CACTVS_COMPLEXITY>
514

> <PUBCHEM_CACTVS_HBOND_ACCEPTOR>
3

> <PUBCHEM_CACTVS_HBOND_DONOR>
0

> <PUBCHEM_CACTVS_ROTATABLE_BOND>
5

> <PUBCHEM_CACTVS_SUBSKEYS>
AAADceB7IAAEAAAAAAAAAAAAAAAAAWAAAAA8YIAAAAAAAFgBQAAAHgIAAAAADCrBmCQywIMAAACIAiVSUACCAAAhBwAIiACIZogIYCLBk7GUIAhghgDIyAcQgIAOBAAAAAACAAAIAAAAAAQAAAAAAAAAAA==

> <PUBCHEM_IUPAC_OPENEYE_NAME>
2-[4-[2-(4-chlorophenyl)ethyl]piperazin-1-yl]-1-(2-methylindolin-1-yl)ethanone

> <PUBCHEM_IUPAC_CAS_NAME>
2-[4-[2-(4-chlorophenyl)ethyl]-1-piperazinyl]-1-(2-methyl-2,3-dihydroindol-1-yl)ethanone

> <PUBCHEM_IUPAC_NAME_MARKUP>
2-[4-[2-(4-chlorophenyl)ethyl]piperazin-1-yl]-1-(2-methyl-2,3-dihydroindol-1-yl)ethanone

> <PUBCHEM_IUPAC_NAME>
2-[4-[2-(4-chlorophenyl)ethyl]piperazin-1-yl]-1-(2-methyl-2,3-dihydroindol-1-yl)ethanone

> <PUBCHEM_IUPAC_SYSTEMATIC_NAME>
2-[4-[2-(4-chlorophenyl)ethyl]piperazin-1-yl]-1-(2-methyl-2,3-dihydroindol-1-yl)ethanone

> <PUBCHEM_IUPAC_TRADITIONAL_NAME>
2-[4-[2-(4-chlorophenyl)ethyl]piperazino]-1-(2-methylindolin-1-yl)ethanone

> <PUBCHEM_IUPAC_INCHI>
InChI=1S/C23H28ClN3O/c1-18-16-20-4-2-3-5-22(20)27(18)23(28)17-26-14-12-25(13-15-26)11-10-19-6-8-21(24)9-7-19/h2-9,18H,10-17H2,1H3

> <PUBCHEM_IUPAC_INCHIKEY>
MKIYNFAWYNPOJY-UHFFFAOYSA-N

> <PUBCHEM_XLOGP3_AA>
4.2

> <PUBCHEM_EXACT_MASS>
397.1920902

> <PUBCHEM_MOLECULAR_FORMULA>
C23H28ClN3O

> <PUBCHEM_MOLECULAR_WEIGHT>
397.9

> <PUBCHEM_OPENEYE_CAN_SMILES>
CC1CC2=CC=CC=C2N1C(=O)CN3CCN(CC3)CCC4=CC=C(C=C4)Cl

> <PUBCHEM_OPENEYE_ISO_SMILES>
CC1CC2=CC=CC=C2N1C(=O)CN3CCN(CC3)CCC4=CC=C(C=C4)Cl

> <PUBCHEM_CACTVS_TPSA>
26.8

> <PUBCHEM_MONOISOTOPIC_WEIGHT>
397.1920902

> <PUBCHEM_TOTAL_CHARGE>
0

> <PUBCHEM_HEAVY_ATOM_COUNT>
28

> <PUBCHEM_ATOM_DEF_STEREO_COUNT>
0

> <PUBCHEM_ATOM_UDEF_STEREO_COUNT>
1

> <PUBCHEM_BOND_DEF_STEREO_COUNT>
0

> <PUBCHEM_BOND_UDEF_STEREO_COUNT>
0

> <PUBCHEM_ISOTOPIC_ATOM_COUNT>
0

> <PUBCHEM_COMPONENT_COUNT>
1

> <PUBCHEM_CACTVS_TAUTO_COUNT>
-1

> <PUBCHEM_COORDINATE_TYPE>
1
5
255

> <PUBCHEM_BONDANNOTATIONS>
13  14  8
13  19  8
14  20  8
19  22  8
20  23  8
21  24  8
21  25  8
22  23  8
24  26  8
25  27  8
26  28  8
27  28  8
6  17  3

$$$$
