25139477
  -OEChem-09292322232D

 77 79  0     1  0  0  0  0  0999 V2000
    2.8660   -6.3170    0.0000 Si  0  0  0  0  0  0  0  0  0  0  0  0
   11.5263    0.6830    0.0000 O   0  0  0  0  0  0  0  0  0  0  0  0
    8.0622   -3.3170    0.0000 N   0  0  3  0  0  0  0  0  0  0  0  0
    9.7942    0.6830    0.0000 N   0  0  0  0  0  0  0  0  0  0  0  0
    7.1962   -3.8170    0.0000 C   0  0  3  0  0  0  0  0  0  0  0  0
    6.3301   -3.3170    0.0000 C   0  0  0  0  0  0  0  0  0  0  0  0
    7.1962   -4.8170    0.0000 C   0  0  0  0  0  0  0  0  0  0  0  0
    8.0622   -2.3170    0.0000 C   0  0  0  0  0  0  0  0  0  0  0  0
    5.4641   -3.8170    0.0000 C   0  0  0  0  0  0  0  0  0  0  0  0
    8.9282   -3.8170    0.0000 C   0  0  0  0  0  0  0  0  0  0  0  0
    6.3301   -5.3170    0.0000 C   0  0  0  0  0  0  0  0  0  0  0  0
    5.4641   -4.8170    0.0000 C   0  0  0  0  0  0  0  0  0  0  0  0
    8.9282   -1.8170    0.0000 C   0  0  0  0  0  0  0  0  0  0  0  0
    8.9282   -4.8170    0.0000 C   0  0  0  0  0  0  0  0  0  0  0  0
    8.9282   -0.8170    0.0000 C   0  0  0  0  0  0  0  0  0  0  0  0
    9.7942   -0.3170    0.0000 C   0  0  0  0  0  0  0  0  0  0  0  0
    9.7942   -5.3170    0.0000 C   0  0  0  0  0  0  0  0  0  0  0  0
    4.5981   -5.3170    0.0000 C   0  0  0  0  0  0  0  0  0  0  0  0
    3.7320   -5.8170    0.0000 C   0  0  0  0  0  0  0  0  0  0  0  0
    2.0000   -6.8170    0.0000 C   0  0  0  0  0  0  0  0  0  0  0  0
    3.3660   -7.1830    0.0000 C   0  0  0  0  0  0  0  0  0  0  0  0
    2.3660   -5.4510    0.0000 C   0  0  0  0  0  0  0  0  0  0  0  0
   10.6603    1.1830    0.0000 C   0  0  0  0  0  0  0  0  0  0  0  0
   10.6603    2.1830    0.0000 C   0  0  0  0  0  0  0  0  0  0  0  0
   11.5263    2.6830    0.0000 C   0  0  0  0  0  0  0  0  0  0  0  0
    9.7942    2.6830    0.0000 C   0  0  0  0  0  0  0  0  0  0  0  0
   10.6603    4.1830    0.0000 C   0  0  0  0  0  0  0  0  0  0  0  0
   11.5263    3.6830    0.0000 C   0  0  0  0  0  0  0  0  0  0  0  0
    9.7942    3.6830    0.0000 C   0  0  0  0  0  0  0  0  0  0  0  0
   10.6603    5.1830    0.0000 C   0  0  0  0  0  0  0  0  0  0  0  0
   11.5263    5.6830    0.0000 C   0  0  0  0  0  0  0  0  0  0  0  0
    9.7942    5.6830    0.0000 C   0  0  0  0  0  0  0  0  0  0  0  0
   11.5263    6.6830    0.0000 C   0  0  0  0  0  0  0  0  0  0  0  0
    9.7942    6.6830    0.0000 C   0  0  0  0  0  0  0  0  0  0  0  0
   10.6603    7.1830    0.0000 C   0  0  0  0  0  0  0  0  0  0  0  0
    7.7331   -4.1270    0.0000 H   0  0  0  0  0  0  0  0  0  0  0  0
    6.7287   -2.8420    0.0000 H   0  0  0  0  0  0  0  0  0  0  0  0
    5.9316   -2.8420    0.0000 H   0  0  0  0  0  0  0  0  0  0  0  0
    7.4082   -5.3996    0.0000 H   0  0  0  0  0  0  0  0  0  0  0  0
    7.8067   -4.7093    0.0000 H   0  0  0  0  0  0  0  0  0  0  0  0
    7.8501   -1.7344    0.0000 H   0  0  0  0  0  0  0  0  0  0  0  0
    7.4516   -2.4247    0.0000 H   0  0  0  0  0  0  0  0  0  0  0  0
    5.2520   -3.2344    0.0000 H   0  0  0  0  0  0  0  0  0  0  0  0
    4.8535   -3.9246    0.0000 H   0  0  0  0  0  0  0  0  0  0  0  0
    9.5388   -3.9246    0.0000 H   0  0  0  0  0  0  0  0  0  0  0  0
    9.1403   -3.2344    0.0000 H   0  0  0  0  0  0  0  0  0  0  0  0
    6.3301   -5.9370    0.0000 H   0  0  0  0  0  0  0  0  0  0  0  0
    9.1403   -2.3996    0.0000 H   0  0  0  0  0  0  0  0  0  0  0  0
    9.5388   -1.7093    0.0000 H   0  0  0  0  0  0  0  0  0  0  0  0
    8.3176   -4.7093    0.0000 H   0  0  0  0  0  0  0  0  0  0  0  0
    8.7162   -5.3996    0.0000 H   0  0  0  0  0  0  0  0  0  0  0  0
    8.7162   -0.2344    0.0000 H   0  0  0  0  0  0  0  0  0  0  0  0
    8.3176   -0.9246    0.0000 H   0  0  0  0  0  0  0  0  0  0  0  0
   10.0063   -0.8996    0.0000 H   0  0  0  0  0  0  0  0  0  0  0  0
   10.4048   -0.2093    0.0000 H   0  0  0  0  0  0  0  0  0  0  0  0
    9.4842   -5.8539    0.0000 H   0  0  0  0  0  0  0  0  0  0  0  0
   10.3312   -5.6270    0.0000 H   0  0  0  0  0  0  0  0  0  0  0  0
   10.1042   -4.7800    0.0000 H   0  0  0  0  0  0  0  0  0  0  0  0
    9.2573    0.9930    0.0000 H   0  0  0  0  0  0  0  0  0  0  0  0
    1.6900   -6.2800    0.0000 H   0  0  0  0  0  0  0  0  0  0  0  0
    1.4631   -7.1270    0.0000 H   0  0  0  0  0  0  0  0  0  0  0  0
    2.3100   -7.3539    0.0000 H   0  0  0  0  0  0  0  0  0  0  0  0
    2.8291   -7.4930    0.0000 H   0  0  0  0  0  0  0  0  0  0  0  0
    3.6760   -7.7200    0.0000 H   0  0  0  0  0  0  0  0  0  0  0  0
    3.9030   -6.8730    0.0000 H   0  0  0  0  0  0  0  0  0  0  0  0
    2.9030   -5.1410    0.0000 H   0  0  0  0  0  0  0  0  0  0  0  0
    2.0560   -4.9140    0.0000 H   0  0  0  0  0  0  0  0  0  0  0  0
    1.8291   -5.7610    0.0000 H   0  0  0  0  0  0  0  0  0  0  0  0
   12.0632    2.3730    0.0000 H   0  0  0  0  0  0  0  0  0  0  0  0
    9.2573    2.3730    0.0000 H   0  0  0  0  0  0  0  0  0  0  0  0
   12.0632    3.9930    0.0000 H   0  0  0  0  0  0  0  0  0  0  0  0
    9.2573    3.9930    0.0000 H   0  0  0  0  0  0  0  0  0  0  0  0
   12.0632    5.3730    0.0000 H   0  0  0  0  0  0  0  0  0  0  0  0
    9.2573    5.3730    0.0000 H   0  0  0  0  0  0  0  0  0  0  0  0
   12.0632    6.9930    0.0000 H   0  0  0  0  0  0  0  0  0  0  0  0
    9.2573    6.9930    0.0000 H   0  0  0  0  0  0  0  0  0  0  0  0
   10.6603    7.8030    0.0000 H   0  0  0  0  0  0  0  0  0  0  0  0
  1 19  1  0  0  0  0
  1 20  1  0  0  0  0
  1 21  1  0  0  0  0
  1 22  1  0  0  0  0
  2 23  2  0  0  0  0
  3  5  1  0  0  0  0
  3  8  1  0  0  0  0
  3 10  1  0  0  0  0
  4 16  1  0  0  0  0
  4 23  1  0  0  0  0
  4 59  1  0  0  0  0
  5  6  1  0  0  0  0
  5  7  1  0  0  0  0
  5 36  1  0  0  0  0
  6  9  1  0  0  0  0
  6 37  1  0  0  0  0
  6 38  1  0  0  0  0
  7 11  1  0  0  0  0
  7 39  1  0  0  0  0
  7 40  1  0  0  0  0
  8 13  1  0  0  0  0
  8 41  1  0  0  0  0
  8 42  1  0  0  0  0
  9 12  1  0  0  0  0
  9 43  1  0  0  0  0
  9 44  1  0  0  0  0
 10 14  1  0  0  0  0
 10 45  1  0  0  0  0
 10 46  1  0  0  0  0
 11 12  2  0  0  0  0
 11 47  1  0  0  0  0
 12 18  1  0  0  0  0
 13 15  1  0  0  0  0
 13 48  1  0  0  0  0
 13 49  1  0  0  0  0
 14 17  1  0  0  0  0
 14 50  1  0  0  0  0
 14 51  1  0  0  0  0
 15 16  1  0  0  0  0
 15 52  1  0  0  0  0
 15 53  1  0  0  0  0
 16 54  1  0  0  0  0
 16 55  1  0  0  0  0
 17 56  1  0  0  0  0
 17 57  1  0  0  0  0
 17 58  1  0  0  0  0
 18 19  3  0  0  0  0
 20 60  1  0  0  0  0
 20 61  1  0  0  0  0
 20 62  1  0  0  0  0
 21 63  1  0  0  0  0
 21 64  1  0  0  0  0
 21 65  1  0  0  0  0
 22 66  1  0  0  0  0
 22 67  1  0  0  0  0
 22 68  1  0  0  0  0
 23 24  1  0  0  0  0
 24 25  2  0  0  0  0
 24 26  1  0  0  0  0
 25 28  1  0  0  0  0
 25 69  1  0  0  0  0
 26 29  2  0  0  0  0
 26 70  1  0  0  0  0
 27 28  2  0  0  0  0
 27 29  1  0  0  0  0
 27 30  1  0  0  0  0
 28 71  1  0  0  0  0
 29 72  1  0  0  0  0
 30 31  2  0  0  0  0
 30 32  1  0  0  0  0
 31 33  1  0  0  0  0
 31 73  1  0  0  0  0
 32 34  2  0  0  0  0
 32 74  1  0  0  0  0
 33 35  2  0  0  0  0
 33 75  1  0  0  0  0
 34 35  1  0  0  0  0
 34 76  1  0  0  0  0
 35 77  1  0  0  0  0
M  END
> <PUBCHEM_COMPOUND_CID>
25139477

> <PUBCHEM_COMPOUND_CANONICALIZED>
1

> <PUBCHEM_CACTVS_COMPLEXITY>
741

> <PUBCHEM_CACTVS_HBOND_ACCEPTOR>
2

> <PUBCHEM_CACTVS_HBOND_DONOR>
1

> <PUBCHEM_CACTVS_ROTATABLE_BOND>
12

> <PUBCHEM_CACTVS_SUBSKEYS>
AAADcfB7IAgAAAAAAAAAAAAAAAAAAAAAAAAwYIAAAAAAAAABQAAAHhAQAAAADCjBuARyAIPAAAHIEiFSEAiCAAAkAAAIiIEIBMgIIDKAlRGEIQhglgCIiYcYiMCOwAAAAAAAAACAAAAAAAAAAAAAAAAAAA==

> <PUBCHEM_IUPAC_OPENEYE_NAME>
4-phenyl-N-[4-[propyl-[4-(2-trimethylsilylethynyl)cyclohex-3-en-1-yl]amino]butyl]benzamide

> <PUBCHEM_IUPAC_CAS_NAME>
4-phenyl-N-[4-[propyl-[4-(2-trimethylsilylethynyl)-1-cyclohex-3-enyl]amino]butyl]benzamide

> <PUBCHEM_IUPAC_NAME_MARKUP>
4-phenyl-<I>N</I>-[4-[propyl-[4-(2-trimethylsilylethynyl)cyclohex-3-en-1-yl]amino]butyl]benzamide

> <PUBCHEM_IUPAC_NAME>
4-phenyl-N-[4-[propyl-[4-(2-trimethylsilylethynyl)cyclohex-3-en-1-yl]amino]butyl]benzamide

> <PUBCHEM_IUPAC_SYSTEMATIC_NAME>
4-phenyl-N-[4-[propyl-[4-(2-trimethylsilylethynyl)cyclohex-3-en-1-yl]amino]butyl]benzamide

> <PUBCHEM_IUPAC_TRADITIONAL_NAME>
4-phenyl-N-[4-[propyl-[4-(2-trimethylsilylethynyl)cyclohex-3-en-1-yl]amino]butyl]benzamide

> <PUBCHEM_IUPAC_INCHI>
InChI=1S/C31H42N2OSi/c1-5-23-33(30-19-13-26(14-20-30)21-25-35(2,3)4)24-10-9-22-32-31(34)29-17-15-28(16-18-29)27-11-7-6-8-12-27/h6-8,11-13,15-18,30H,5,9-10,14,19-20,22-24H2,1-4H3,(H,32,34)

> <PUBCHEM_IUPAC_INCHIKEY>
YVKJVUJRJJSJAZ-UHFFFAOYSA-N

> <PUBCHEM_EXACT_MASS>
486.306640502

> <PUBCHEM_MOLECULAR_FORMULA>
C31H42N2OSi

> <PUBCHEM_MOLECULAR_WEIGHT>
486.8

> <PUBCHEM_OPENEYE_CAN_SMILES>
CCCN(CCCCNC(=O)C1=CC=C(C=C1)C2=CC=CC=C2)C3CCC(=CC3)C#C[Si](C)(C)C

> <PUBCHEM_OPENEYE_ISO_SMILES>
CCCN(CCCCNC(=O)C1=CC=C(C=C1)C2=CC=CC=C2)C3CCC(=CC3)C#C[Si](C)(C)C

> <PUBCHEM_CACTVS_TPSA>
32.3

> <PUBCHEM_MONOISOTOPIC_WEIGHT>
486.306640502

> <PUBCHEM_TOTAL_CHARGE>
0

> <PUBCHEM_HEAVY_ATOM_COUNT>
35

> <PUBCHEM_ATOM_DEF_STEREO_COUNT>
0

> <PUBCHEM_ATOM_UDEF_STEREO_COUNT>
1

> <PUBCHEM_BOND_DEF_STEREO_COUNT>
0

> <PUBCHEM_BOND_UDEF_STEREO_COUNT>
0

> <PUBCHEM_ISOTOPIC_ATOM_COUNT>
0

> <PUBCHEM_COMPONENT_COUNT>
1

> <PUBCHEM_CACTVS_TAUTO_COUNT>
-1

> <PUBCHEM_COORDINATE_TYPE>
1
5
255

> <PUBCHEM_BONDANNOTATIONS>
24  25  8
24  26  8
25  28  8
26  29  8
27  28  8
27  29  8
5  3  3
30  31  8
30  32  8
31  33  8
32  34  8
33  35  8
34  35  8

$$$$
