53364226
  -OEChem-09292322322D

144151  0     0  0  0  0  0  0999 V2000
    7.1962  -15.8885    0.0000 O   0  0  0  0  0  0  0  0  0  0  0  0
    7.7761   15.8885    0.0000 O   0  0  0  0  0  0  0  0  0  0  0  0
    4.5981   -8.3885    0.0000 O   0  0  0  0  0  0  0  0  0  0  0  0
   10.3742    8.3885    0.0000 O   0  0  0  0  0  0  0  0  0  0  0  0
    2.8660   -9.3885    0.0000 O   0  0  0  0  0  0  0  0  0  0  0  0
   12.1062    9.3885    0.0000 O   0  0  0  0  0  0  0  0  0  0  0  0
    7.5990   -1.3180    0.0000 O   0  0  0  0  0  0  0  0  0  0  0  0
    7.3733    1.3180    0.0000 O   0  0  0  0  0  0  0  0  0  0  0  0
    5.4641  -12.8885    0.0000 N   0  0  0  0  0  0  0  0  0  0  0  0
    9.5081   12.8885    0.0000 N   0  0  0  0  0  0  0  0  0  0  0  0
    7.1962  -13.8885    0.0000 N   0  0  0  0  0  0  0  0  0  0  0  0
    7.7761   13.8885    0.0000 N   0  0  0  0  0  0  0  0  0  0  0  0
    6.8301   -3.8496    0.0000 N   0  0  0  0  0  0  0  0  0  0  0  0
    8.1421    3.8496    0.0000 N   0  0  0  0  0  0  0  0  0  0  0  0
    5.5211   -4.8007    0.0000 N   0  0  0  0  0  0  0  0  0  0  0  0
    9.4511    4.8007    0.0000 N   0  0  0  0  0  0  0  0  0  0  0  0
    5.8301   -3.8496    0.0000 N   0  0  0  0  0  0  0  0  0  0  0  0
    9.1421    3.8496    0.0000 N   0  0  0  0  0  0  0  0  0  0  0  0
    6.3301  -12.3885    0.0000 C   0  0  0  0  0  0  0  0  0  0  0  0
    5.4641  -13.8885    0.0000 C   0  0  0  0  0  0  0  0  0  0  0  0
    9.5081   13.8885    0.0000 C   0  0  0  0  0  0  0  0  0  0  0  0
    8.6421   12.3885    0.0000 C   0  0  0  0  0  0  0  0  0  0  0  0
    7.1962  -12.8885    0.0000 C   0  0  0  0  0  0  0  0  0  0  0  0
    6.3301  -14.3885    0.0000 C   0  0  0  0  0  0  0  0  0  0  0  0
    8.6421   14.3885    0.0000 C   0  0  0  0  0  0  0  0  0  0  0  0
    7.7761   12.8885    0.0000 C   0  0  0  0  0  0  0  0  0  0  0  0
    4.5981  -12.3885    0.0000 C   0  0  0  0  0  0  0  0  0  0  0  0
   10.3742   12.3885    0.0000 C   0  0  0  0  0  0  0  0  0  0  0  0
    8.0622  -14.3885    0.0000 C   0  0  0  0  0  0  0  0  0  0  0  0
    6.9101   14.3885    0.0000 C   0  0  0  0  0  0  0  0  0  0  0  0
    4.5981  -11.3885    0.0000 C   0  0  0  0  0  0  0  0  0  0  0  0
   10.3742   11.3885    0.0000 C   0  0  0  0  0  0  0  0  0  0  0  0
    8.0622  -15.3885    0.0000 C   0  0  0  0  0  0  0  0  0  0  0  0
    6.9101   15.3885    0.0000 C   0  0  0  0  0  0  0  0  0  0  0  0
    8.9282  -13.8885    0.0000 C   0  0  0  0  0  0  0  0  0  0  0  0
    6.0440   13.8885    0.0000 C   0  0  0  0  0  0  0  0  0  0  0  0
    3.7320  -10.8885    0.0000 C   0  0  0  0  0  0  0  0  0  0  0  0
   11.2402   10.8885    0.0000 C   0  0  0  0  0  0  0  0  0  0  0  0
    5.4641  -10.8885    0.0000 C   0  0  0  0  0  0  0  0  0  0  0  0
    9.5081   10.8885    0.0000 C   0  0  0  0  0  0  0  0  0  0  0  0
    8.9282  -15.8885    0.0000 C   0  0  0  0  0  0  0  0  0  0  0  0
    6.0440   15.8885    0.0000 C   0  0  0  0  0  0  0  0  0  0  0  0
    9.7942  -14.3885    0.0000 C   0  0  0  0  0  0  0  0  0  0  0  0
    5.1780   14.3885    0.0000 C   0  0  0  0  0  0  0  0  0  0  0  0
    3.7320   -9.8885    0.0000 C   0  0  0  0  0  0  0  0  0  0  0  0
   11.2402    9.8885    0.0000 C   0  0  0  0  0  0  0  0  0  0  0  0
    5.4641   -9.8885    0.0000 C   0  0  0  0  0  0  0  0  0  0  0  0
    9.5081    9.8885    0.0000 C   0  0  0  0  0  0  0  0  0  0  0  0
    9.7942  -15.3885    0.0000 C   0  0  0  0  0  0  0  0  0  0  0  0
    5.1780   15.3885    0.0000 C   0  0  0  0  0  0  0  0  0  0  0  0
    4.5981   -9.3885    0.0000 C   0  0  0  0  0  0  0  0  0  0  0  0
   10.3742    9.3885    0.0000 C   0  0  0  0  0  0  0  0  0  0  0  0
    7.1962  -16.8885    0.0000 C   0  0  0  0  0  0  0  0  0  0  0  0
    7.7761   16.8885    0.0000 C   0  0  0  0  0  0  0  0  0  0  0  0
    5.4641   -7.8885    0.0000 C   0  0  0  0  0  0  0  0  0  0  0  0
    9.5081    7.8885    0.0000 C   0  0  0  0  0  0  0  0  0  0  0  0
    5.4641   -6.8885    0.0000 C   0  0  0  0  0  0  0  0  0  0  0  0
    9.5081    6.8885    0.0000 C   0  0  0  0  0  0  0  0  0  0  0  0
    2.0000   -9.8885    0.0000 C   0  0  0  0  0  0  0  0  0  0  0  0
   12.9722    9.8885    0.0000 C   0  0  0  0  0  0  0  0  0  0  0  0
    6.3301   -6.3885    0.0000 C   0  0  0  0  0  0  0  0  0  0  0  0
    8.6421    6.3885    0.0000 C   0  0  0  0  0  0  0  0  0  0  0  0
    6.3301   -5.3885    0.0000 C   0  0  0  0  0  0  0  0  0  0  0  0
    8.6421    5.3885    0.0000 C   0  0  0  0  0  0  0  0  0  0  0  0
    7.1391   -4.8007    0.0000 C   0  0  0  0  0  0  0  0  0  0  0  0
    7.8331    4.8007    0.0000 C   0  0  0  0  0  0  0  0  0  0  0  0
    7.4179   -3.0406    0.0000 C   0  0  0  0  0  0  0  0  0  0  0  0
    7.5543    3.0406    0.0000 C   0  0  0  0  0  0  0  0  0  0  0  0
    7.0112   -2.1271    0.0000 C   0  0  0  0  0  0  0  0  0  0  0  0
    7.9611    2.1271    0.0000 C   0  0  0  0  0  0  0  0  0  0  0  0
    7.1922   -0.4045    0.0000 C   0  0  0  0  0  0  0  0  0  0  0  0
    7.7800    0.4045    0.0000 C   0  0  0  0  0  0  0  0  0  0  0  0
    6.7287  -11.9135    0.0000 H   0  0  0  0  0  0  0  0  0  0  0  0
    5.9316  -11.9135    0.0000 H   0  0  0  0  0  0  0  0  0  0  0  0
    4.8535  -13.7808    0.0000 H   0  0  0  0  0  0  0  0  0  0  0  0
    5.2520  -14.4711    0.0000 H   0  0  0  0  0  0  0  0  0  0  0  0
   10.1187   13.7808    0.0000 H   0  0  0  0  0  0  0  0  0  0  0  0
    9.7202   14.4711    0.0000 H   0  0  0  0  0  0  0  0  0  0  0  0
    8.2436   11.9135    0.0000 H   0  0  0  0  0  0  0  0  0  0  0  0
    9.0406   11.9135    0.0000 H   0  0  0  0  0  0  0  0  0  0  0  0
    7.8067  -12.9961    0.0000 H   0  0  0  0  0  0  0  0  0  0  0  0
    7.4082  -12.3059    0.0000 H   0  0  0  0  0  0  0  0  0  0  0  0
    5.9316  -14.8634    0.0000 H   0  0  0  0  0  0  0  0  0  0  0  0
    6.7287  -14.8634    0.0000 H   0  0  0  0  0  0  0  0  0  0  0  0
    9.0406   14.8634    0.0000 H   0  0  0  0  0  0  0  0  0  0  0  0
    8.2436   14.8634    0.0000 H   0  0  0  0  0  0  0  0  0  0  0  0
    7.1655   12.9961    0.0000 H   0  0  0  0  0  0  0  0  0  0  0  0
    7.5640   12.3059    0.0000 H   0  0  0  0  0  0  0  0  0  0  0  0
    3.9875  -12.2808    0.0000 H   0  0  0  0  0  0  0  0  0  0  0  0
    4.3860  -12.9711    0.0000 H   0  0  0  0  0  0  0  0  0  0  0  0
   10.9847   12.2808    0.0000 H   0  0  0  0  0  0  0  0  0  0  0  0
   10.5862   12.9711    0.0000 H   0  0  0  0  0  0  0  0  0  0  0  0
    8.9282  -13.2685    0.0000 H   0  0  0  0  0  0  0  0  0  0  0  0
    6.0440   13.2685    0.0000 H   0  0  0  0  0  0  0  0  0  0  0  0
    3.1951  -11.1985    0.0000 H   0  0  0  0  0  0  0  0  0  0  0  0
   11.7771   11.1985    0.0000 H   0  0  0  0  0  0  0  0  0  0  0  0
    6.0010  -11.1985    0.0000 H   0  0  0  0  0  0  0  0  0  0  0  0
    8.9712   11.1985    0.0000 H   0  0  0  0  0  0  0  0  0  0  0  0
    8.9282  -16.5085    0.0000 H   0  0  0  0  0  0  0  0  0  0  0  0
    6.0440   16.5085    0.0000 H   0  0  0  0  0  0  0  0  0  0  0  0
   10.3312  -14.0785    0.0000 H   0  0  0  0  0  0  0  0  0  0  0  0
    4.6411   14.0785    0.0000 H   0  0  0  0  0  0  0  0  0  0  0  0
    6.0010   -9.5785    0.0000 H   0  0  0  0  0  0  0  0  0  0  0  0
    8.9712    9.5785    0.0000 H   0  0  0  0  0  0  0  0  0  0  0  0
   10.3312  -15.6985    0.0000 H   0  0  0  0  0  0  0  0  0  0  0  0
    4.6411   15.6985    0.0000 H   0  0  0  0  0  0  0  0  0  0  0  0
    6.5762  -16.8885    0.0000 H   0  0  0  0  0  0  0  0  0  0  0  0
    7.1962  -17.5085    0.0000 H   0  0  0  0  0  0  0  0  0  0  0  0
    7.8162  -16.8885    0.0000 H   0  0  0  0  0  0  0  0  0  0  0  0
    8.3961   16.8885    0.0000 H   0  0  0  0  0  0  0  0  0  0  0  0
    7.7761   17.5085    0.0000 H   0  0  0  0  0  0  0  0  0  0  0  0
    7.1561   16.8885    0.0000 H   0  0  0  0  0  0  0  0  0  0  0  0
    5.6762   -8.4711    0.0000 H   0  0  0  0  0  0  0  0  0  0  0  0
    6.0747   -7.7808    0.0000 H   0  0  0  0  0  0  0  0  0  0  0  0
    9.2961    8.4711    0.0000 H   0  0  0  0  0  0  0  0  0  0  0  0
    8.8976    7.7808    0.0000 H   0  0  0  0  0  0  0  0  0  0  0  0
    5.2520   -6.3059    0.0000 H   0  0  0  0  0  0  0  0  0  0  0  0
    4.8535   -6.9961    0.0000 H   0  0  0  0  0  0  0  0  0  0  0  0
    9.7202    6.3059    0.0000 H   0  0  0  0  0  0  0  0  0  0  0  0
   10.1187    6.9961    0.0000 H   0  0  0  0  0  0  0  0  0  0  0  0
    1.6900   -9.3515    0.0000 H   0  0  0  0  0  0  0  0  0  0  0  0
    1.4631  -10.1985    0.0000 H   0  0  0  0  0  0  0  0  0  0  0  0
    2.3100  -10.4254    0.0000 H   0  0  0  0  0  0  0  0  0  0  0  0
   13.2822    9.3515    0.0000 H   0  0  0  0  0  0  0  0  0  0  0  0
   13.5092   10.1985    0.0000 H   0  0  0  0  0  0  0  0  0  0  0  0
   12.6622   10.4254    0.0000 H   0  0  0  0  0  0  0  0  0  0  0  0
    6.5422   -6.9711    0.0000 H   0  0  0  0  0  0  0  0  0  0  0  0
    6.9407   -6.2808    0.0000 H   0  0  0  0  0  0  0  0  0  0  0  0
    8.4300    6.9711    0.0000 H   0  0  0  0  0  0  0  0  0  0  0  0
    8.0315    6.2808    0.0000 H   0  0  0  0  0  0  0  0  0  0  0  0
    7.7288   -4.9923    0.0000 H   0  0  0  0  0  0  0  0  0  0  0  0
    7.2434    4.9923    0.0000 H   0  0  0  0  0  0  0  0  0  0  0  0
    7.8486   -3.4866    0.0000 H   0  0  0  0  0  0  0  0  0  0  0  0
    7.9319   -2.6939    0.0000 H   0  0  0  0  0  0  0  0  0  0  0  0
    7.1236    3.4866    0.0000 H   0  0  0  0  0  0  0  0  0  0  0  0
    7.0403    2.6939    0.0000 H   0  0  0  0  0  0  0  0  0  0  0  0
    6.5805   -1.6811    0.0000 H   0  0  0  0  0  0  0  0  0  0  0  0
    6.4972   -2.4738    0.0000 H   0  0  0  0  0  0  0  0  0  0  0  0
    8.3918    1.6811    0.0000 H   0  0  0  0  0  0  0  0  0  0  0  0
    8.4751    2.4738    0.0000 H   0  0  0  0  0  0  0  0  0  0  0  0
    6.7615    0.0415    0.0000 H   0  0  0  0  0  0  0  0  0  0  0  0
    6.6782   -0.7512    0.0000 H   0  0  0  0  0  0  0  0  0  0  0  0
    8.2107   -0.0415    0.0000 H   0  0  0  0  0  0  0  0  0  0  0  0
    8.2940    0.7512    0.0000 H   0  0  0  0  0  0  0  0  0  0  0  0
  1 33  1  0  0  0  0
  1 53  1  0  0  0  0
  2 34  1  0  0  0  0
  2 54  1  0  0  0  0
  3 51  1  0  0  0  0
  3 55  1  0  0  0  0
  4 52  1  0  0  0  0
  4 56  1  0  0  0  0
  5 45  1  0  0  0  0
  5 59  1  0  0  0  0
  6 46  1  0  0  0  0
  6 60  1  0  0  0  0
  7 69  1  0  0  0  0
  7 71  1  0  0  0  0
  8 70  1  0  0  0  0
  8 72  1  0  0  0  0
  9 19  1  0  0  0  0
  9 20  1  0  0  0  0
  9 27  1  0  0  0  0
 10 21  1  0  0  0  0
 10 22  1  0  0  0  0
 10 28  1  0  0  0  0
 11 23  1  0  0  0  0
 11 24  1  0  0  0  0
 11 29  1  0  0  0  0
 12 25  1  0  0  0  0
 12 26  1  0  0  0  0
 12 30  1  0  0  0  0
 13 17  1  0  0  0  0
 13 65  1  0  0  0  0
 13 67  1  0  0  0  0
 14 18  1  0  0  0  0
 14 66  1  0  0  0  0
 14 68  1  0  0  0  0
 15 17  2  0  0  0  0
 15 63  1  0  0  0  0
 16 18  2  0  0  0  0
 16 64  1  0  0  0  0
 19 23  1  0  0  0  0
 19 73  1  0  0  0  0
 19 74  1  0  0  0  0
 20 24  1  0  0  0  0
 20 75  1  0  0  0  0
 20 76  1  0  0  0  0
 21 25  1  0  0  0  0
 21 77  1  0  0  0  0
 21 78  1  0  0  0  0
 22 26  1  0  0  0  0
 22 79  1  0  0  0  0
 22 80  1  0  0  0  0
 23 81  1  0  0  0  0
 23 82  1  0  0  0  0
 24 83  1  0  0  0  0
 24 84  1  0  0  0  0
 25 85  1  0  0  0  0
 25 86  1  0  0  0  0
 26 87  1  0  0  0  0
 26 88  1  0  0  0  0
 27 31  1  0  0  0  0
 27 89  1  0  0  0  0
 27 90  1  0  0  0  0
 28 32  1  0  0  0  0
 28 91  1  0  0  0  0
 28 92  1  0  0  0  0
 29 33  1  0  0  0  0
 29 35  2  0  0  0  0
 30 34  1  0  0  0  0
 30 36  2  0  0  0  0
 31 37  2  0  0  0  0
 31 39  1  0  0  0  0
 32 38  2  0  0  0  0
 32 40  1  0  0  0  0
 33 41  2  0  0  0  0
 34 42  2  0  0  0  0
 35 43  1  0  0  0  0
 35 93  1  0  0  0  0
 36 44  1  0  0  0  0
 36 94  1  0  0  0  0
 37 45  1  0  0  0  0
 37 95  1  0  0  0  0
 38 46  1  0  0  0  0
 38 96  1  0  0  0  0
 39 47  2  0  0  0  0
 39 97  1  0  0  0  0
 40 48  2  0  0  0  0
 40 98  1  0  0  0  0
 41 49  1  0  0  0  0
 41 99  1  0  0  0  0
 42 50  1  0  0  0  0
 42100  1  0  0  0  0
 43 49  2  0  0  0  0
 43101  1  0  0  0  0
 44 50  2  0  0  0  0
 44102  1  0  0  0  0
 45 51  2  0  0  0  0
 46 52  2  0  0  0  0
 47 51  1  0  0  0  0
 47103  1  0  0  0  0
 48 52  1  0  0  0  0
 48104  1  0  0  0  0
 49105  1  0  0  0  0
 50106  1  0  0  0  0
 53107  1  0  0  0  0
 53108  1  0  0  0  0
 53109  1  0  0  0  0
 54110  1  0  0  0  0
 54111  1  0  0  0  0
 54112  1  0  0  0  0
 55 57  1  0  0  0  0
 55113  1  0  0  0  0
 55114  1  0  0  0  0
 56 58  1  0  0  0  0
 56115  1  0  0  0  0
 56116  1  0  0  0  0
 57 61  1  0  0  0  0
 57117  1  0  0  0  0
 57118  1  0  0  0  0
 58 62  1  0  0  0  0
 58119  1  0  0  0  0
 58120  1  0  0  0  0
 59121  1  0  0  0  0
 59122  1  0  0  0  0
 59123  1  0  0  0  0
 60124  1  0  0  0  0
 60125  1  0  0  0  0
 60126  1  0  0  0  0
 61 63  1  0  0  0  0
 61127  1  0  0  0  0
 61128  1  0  0  0  0
 62 64  1  0  0  0  0
 62129  1  0  0  0  0
 62130  1  0  0  0  0
 63 65  2  0  0  0  0
 64 66  2  0  0  0  0
 65131  1  0  0  0  0
 66132  1  0  0  0  0
 67 69  1  0  0  0  0
 67133  1  0  0  0  0
 67134  1  0  0  0  0
 68 70  1  0  0  0  0
 68135  1  0  0  0  0
 68136  1  0  0  0  0
 69137  1  0  0  0  0
 69138  1  0  0  0  0
 70139  1  0  0  0  0
 70140  1  0  0  0  0
 71 72  1  0  0  0  0
 71141  1  0  0  0  0
 71142  1  0  0  0  0
 72143  1  0  0  0  0
 72144  1  0  0  0  0
M  END
> <PUBCHEM_COMPOUND_CID>
53364226

> <PUBCHEM_COMPOUND_CANONICALIZED>
1

> <PUBCHEM_CACTVS_COMPLEXITY>
1350

> <PUBCHEM_CACTVS_HBOND_ACCEPTOR>
16

> <PUBCHEM_CACTVS_HBOND_DONOR>
0

> <PUBCHEM_CACTVS_ROTATABLE_BOND>
29

> <PUBCHEM_CACTVS_SUBSKEYS>
AAADcfB//AAAAAAAAAAAAAAAAAAAAWLAAAA8eMGCAAAAAAAB9AAAHgAIAAAADAzhngY+xpMIBACiAzRnRACCDAQxsgAY2AA//IgPZiLEsZuXOCrkwBHa6Aew0BIOIAABAAAAUABAAAIAAACgAAAAAAAAAA==

> <PUBCHEM_IUPAC_OPENEYE_NAME>
1-[[3-methoxy-4-[3-[1-[2-[2-[2-[4-[3-[2-methoxy-4-[[4-(2-methoxyphenyl)piperazin-1-yl]methyl]phenoxy]propyl]triazol-1-yl]ethoxy]ethoxy]ethyl]triazol-4-yl]propoxy]phenyl]methyl]-4-(2-methoxyphenyl)piperazine

> <PUBCHEM_IUPAC_CAS_NAME>
1-[[3-methoxy-4-[3-[1-[2-[2-[2-[4-[3-[2-methoxy-4-[[4-(2-methoxyphenyl)-1-piperazinyl]methyl]phenoxy]propyl]-1-triazolyl]ethoxy]ethoxy]ethyl]-4-triazolyl]propoxy]phenyl]methyl]-4-(2-methoxyphenyl)piperazine

> <PUBCHEM_IUPAC_NAME_MARKUP>
1-[[3-methoxy-4-[3-[1-[2-[2-[2-[4-[3-[2-methoxy-4-[[4-(2-methoxyphenyl)piperazin-1-yl]methyl]phenoxy]propyl]triazol-1-yl]ethoxy]ethoxy]ethyl]triazol-4-yl]propoxy]phenyl]methyl]-4-(2-methoxyphenyl)piperazine

> <PUBCHEM_IUPAC_NAME>
1-[[3-methoxy-4-[3-[1-[2-[2-[2-[4-[3-[2-methoxy-4-[[4-(2-methoxyphenyl)piperazin-1-yl]methyl]phenoxy]propyl]triazol-1-yl]ethoxy]ethoxy]ethyl]triazol-4-yl]propoxy]phenyl]methyl]-4-(2-methoxyphenyl)piperazine

> <PUBCHEM_IUPAC_SYSTEMATIC_NAME>
1-[[3-methoxy-4-[3-[1-[2-[2-[2-[4-[3-[2-methoxy-4-[[4-(2-methoxyphenyl)piperazin-1-yl]methyl]phenoxy]propyl]-1,2,3-triazol-1-yl]ethoxy]ethoxy]ethyl]-1,2,3-triazol-4-yl]propoxy]phenyl]methyl]-4-(2-methoxyphenyl)piperazine

> <PUBCHEM_IUPAC_TRADITIONAL_NAME>
1-[3-methoxy-4-[3-[1-[2-[2-[2-[4-[3-[2-methoxy-4-[[4-(2-methoxyphenyl)piperazino]methyl]phenoxy]propyl]triazol-1-yl]ethoxy]ethoxy]ethyl]triazol-4-yl]propoxy]benzyl]-4-(2-methoxyphenyl)piperazine

> <PUBCHEM_IUPAC_INCHI>
InChI=1S/C54H72N10O8/c1-65-49-15-7-5-13-47(49)61-25-21-59(22-26-61)39-43-17-19-51(53(37-43)67-3)71-31-9-11-45-41-63(57-55-45)29-33-69-35-36-70-34-30-64-42-46(56-58-64)12-10-32-72-52-20-18-44(38-54(52)68-4)40-60-23-27-62(28-24-60)48-14-6-8-16-50(48)66-2/h5-8,13-20,37-38,41-42H,9-12,21-36,39-40H2,1-4H3

> <PUBCHEM_IUPAC_INCHIKEY>
ZUGNJYHFOIGGOO-UHFFFAOYSA-N

> <PUBCHEM_XLOGP3_AA>
6.1

> <PUBCHEM_EXACT_MASS>
988.55345929

> <PUBCHEM_MOLECULAR_FORMULA>
C54H72N10O8

> <PUBCHEM_MOLECULAR_WEIGHT>
989.2

> <PUBCHEM_OPENEYE_CAN_SMILES>
COC1=CC=CC=C1N2CCN(CC2)CC3=CC(=C(C=C3)OCCCC4=CN(N=N4)CCOCCOCCN5C=C(N=N5)CCCOC6=C(C=C(C=C6)CN7CCN(CC7)C8=CC=CC=C8OC)OC)OC

> <PUBCHEM_OPENEYE_ISO_SMILES>
COC1=CC=CC=C1N2CCN(CC2)CC3=CC(=C(C=C3)OCCCC4=CN(N=N4)CCOCCOCCN5C=C(N=N5)CCCOC6=C(C=C(C=C6)CN7CCN(CC7)C8=CC=CC=C8OC)OC)OC

> <PUBCHEM_CACTVS_TPSA>
148

> <PUBCHEM_MONOISOTOPIC_WEIGHT>
988.55345929

> <PUBCHEM_TOTAL_CHARGE>
0

> <PUBCHEM_HEAVY_ATOM_COUNT>
72

> <PUBCHEM_ATOM_DEF_STEREO_COUNT>
0

> <PUBCHEM_ATOM_UDEF_STEREO_COUNT>
0

> <PUBCHEM_BOND_DEF_STEREO_COUNT>
0

> <PUBCHEM_BOND_UDEF_STEREO_COUNT>
0

> <PUBCHEM_ISOTOPIC_ATOM_COUNT>
0

> <PUBCHEM_COMPONENT_COUNT>
1

> <PUBCHEM_CACTVS_TAUTO_COUNT>
-1

> <PUBCHEM_COORDINATE_TYPE>
1
5
255

> <PUBCHEM_BONDANNOTATIONS>
13  17  8
13  65  8
14  18  8
14  66  8
15  17  8
15  63  8
16  18  8
16  64  8
29  33  8
29  35  8
30  34  8
30  36  8
31  37  8
31  39  8
32  38  8
32  40  8
33  41  8
34  42  8
35  43  8
36  44  8
37  45  8
38  46  8
39  47  8
40  48  8
41  49  8
42  50  8
43  49  8
44  50  8
45  51  8
46  52  8
47  51  8
48  52  8
63  65  8
64  66  8

$$$$
