155547849
  -OEChem-09292322082D

 51 55  0     0  0  0  0  0  0999 V2000
    4.5274    2.3617    0.0000 S   0  0  0  0  0  0  0  0  0  0  0  0
    6.0733   -4.3058    0.0000 F   0  0  0  0  0  0  0  0  0  0  0  0
    8.9481    4.3058    0.0000 O   0  0  0  0  0  0  0  0  0  0  0  0
    8.3374    2.4014    0.0000 N   0  0  0  0  0  0  0  0  0  0  0  0
    6.3518    2.0061    0.0000 N   0  0  0  0  0  0  0  0  0  0  0  0
    6.7328    0.2468    0.0000 N   0  0  0  0  0  0  0  0  0  0  0  0
    5.3923   -0.9093    0.0000 N   0  0  0  0  0  0  0  0  0  0  0  0
    4.0274    0.8228    0.0000 C   0  0  0  0  0  0  0  0  0  0  0  0
    3.3424    0.0381    0.0000 C   0  0  0  0  0  0  0  0  0  0  0  0
    2.3219    0.2468    0.0000 C   0  0  0  0  0  0  0  0  0  0  0  0
    2.0000    1.2374    0.0000 C   0  0  0  0  0  0  0  0  0  0  0  0
    2.7029    2.0061    0.0000 C   0  0  0  0  0  0  0  0  0  0  0  0
    3.7183    1.7739    0.0000 C   0  0  0  0  0  0  0  0  0  0  0  0
    5.0274    0.8228    0.0000 C   0  0  0  0  0  0  0  0  0  0  0  0
    5.3364    1.7739    0.0000 C   0  0  0  0  0  0  0  0  0  0  0  0
    8.0321    1.4491    0.0000 C   0  0  0  0  0  0  0  0  0  0  0  0
    5.7123    0.0381    0.0000 C   0  0  0  0  0  0  0  0  0  0  0  0
    7.6654    3.1419    0.0000 C   0  0  0  0  0  0  0  0  0  0  0  0
    9.3148    2.6130    0.0000 C   0  0  0  0  0  0  0  0  0  0  0  0
    7.0547    1.2374    0.0000 C   0  0  0  0  0  0  0  0  0  0  0  0
    7.9708    4.0942    0.0000 C   0  0  0  0  0  0  0  0  0  0  0  0
    9.6201    3.5653    0.0000 C   0  0  0  0  0  0  0  0  0  0  0  0
    6.0528   -1.6602    0.0000 C   0  0  0  0  0  0  0  0  0  0  0  0
    5.7328   -2.6076    0.0000 C   0  0  0  0  0  0  0  0  0  0  0  0
    7.0333   -1.4636    0.0000 C   0  0  0  0  0  0  0  0  0  0  0  0
    6.3933   -3.3584    0.0000 C   0  0  0  0  0  0  0  0  0  0  0  0
    7.6938   -2.2144    0.0000 C   0  0  0  0  0  0  0  0  0  0  0  0
    7.3738   -3.1618    0.0000 C   0  0  0  0  0  0  0  0  0  0  0  0
    3.1160   -0.5391    0.0000 H   0  0  0  0  0  0  0  0  0  0  0  0
    3.8724   -0.2837    0.0000 H   0  0  0  0  0  0  0  0  0  0  0  0
    1.7081    0.1589    0.0000 H   0  0  0  0  0  0  0  0  0  0  0  0
    2.3034   -0.3729    0.0000 H   0  0  0  0  0  0  0  0  0  0  0  0
    1.6208    1.7280    0.0000 H   0  0  0  0  0  0  0  0  0  0  0  0
    1.4518    0.9478    0.0000 H   0  0  0  0  0  0  0  0  0  0  0  0
    2.9426    2.5780    0.0000 H   0  0  0  0  0  0  0  0  0  0  0  0
    2.1806    2.3401    0.0000 H   0  0  0  0  0  0  0  0  0  0  0  0
    8.0561    0.8296    0.0000 H   0  0  0  0  0  0  0  0  0  0  0  0
    8.6464    1.3652    0.0000 H   0  0  0  0  0  0  0  0  0  0  0  0
    7.1169    3.4309    0.0000 H   0  0  0  0  0  0  0  0  0  0  0  0
    7.2856    2.6519    0.0000 H   0  0  0  0  0  0  0  0  0  0  0  0
    9.3388    1.9935    0.0000 H   0  0  0  0  0  0  0  0  0  0  0  0
    9.9290    2.5291    0.0000 H   0  0  0  0  0  0  0  0  0  0  0  0
    7.9467    4.7137    0.0000 H   0  0  0  0  0  0  0  0  0  0  0  0
    7.3565    4.1781    0.0000 H   0  0  0  0  0  0  0  0  0  0  0  0
   10.1686    3.2763    0.0000 H   0  0  0  0  0  0  0  0  0  0  0  0
    9.9999    4.0553    0.0000 H   0  0  0  0  0  0  0  0  0  0  0  0
    4.7844   -1.0312    0.0000 H   0  0  0  0  0  0  0  0  0  0  0  0
    5.1249   -2.7295    0.0000 H   0  0  0  0  0  0  0  0  0  0  0  0
    7.2317   -0.8762    0.0000 H   0  0  0  0  0  0  0  0  0  0  0  0
    8.3017   -2.0925    0.0000 H   0  0  0  0  0  0  0  0  0  0  0  0
    7.7833   -3.6274    0.0000 H   0  0  0  0  0  0  0  0  0  0  0  0
  1 13  1  0  0  0  0
  1 15  1  0  0  0  0
  2 26  1  0  0  0  0
  3 21  1  0  0  0  0
  3 22  1  0  0  0  0
  4 16  1  0  0  0  0
  4 18  1  0  0  0  0
  4 19  1  0  0  0  0
  5 15  2  0  0  0  0
  5 20  1  0  0  0  0
  6 17  1  0  0  0  0
  6 20  2  0  0  0  0
  7 17  1  0  0  0  0
  7 23  1  0  0  0  0
  7 47  1  0  0  0  0
  8  9  1  0  0  0  0
  8 13  2  0  0  0  0
  8 14  1  0  0  0  0
  9 10  1  0  0  0  0
  9 29  1  0  0  0  0
  9 30  1  0  0  0  0
 10 11  1  0  0  0  0
 10 31  1  0  0  0  0
 10 32  1  0  0  0  0
 11 12  1  0  0  0  0
 11 33  1  0  0  0  0
 11 34  1  0  0  0  0
 12 13  1  0  0  0  0
 12 35  1  0  0  0  0
 12 36  1  0  0  0  0
 14 15  1  0  0  0  0
 14 17  2  0  0  0  0
 16 20  1  0  0  0  0
 16 37  1  0  0  0  0
 16 38  1  0  0  0  0
 18 21  1  0  0  0  0
 18 39  1  0  0  0  0
 18 40  1  0  0  0  0
 19 22  1  0  0  0  0
 19 41  1  0  0  0  0
 19 42  1  0  0  0  0
 21 43  1  0  0  0  0
 21 44  1  0  0  0  0
 22 45  1  0  0  0  0
 22 46  1  0  0  0  0
 23 24  2  0  0  0  0
 23 25  1  0  0  0  0
 24 26  1  0  0  0  0
 24 48  1  0  0  0  0
 25 27  2  0  0  0  0
 25 49  1  0  0  0  0
 26 28  2  0  0  0  0
 27 28  1  0  0  0  0
 27 50  1  0  0  0  0
 28 51  1  0  0  0  0
M  END
> <PUBCHEM_COMPOUND_CID>
155547849

> <PUBCHEM_COMPOUND_CANONICALIZED>
1

> <PUBCHEM_CACTVS_COMPLEXITY>
523

> <PUBCHEM_CACTVS_HBOND_ACCEPTOR>
7

> <PUBCHEM_CACTVS_HBOND_DONOR>
1

> <PUBCHEM_CACTVS_ROTATABLE_BOND>
4

> <PUBCHEM_CACTVS_SUBSKEYS>
AAADceB7oQBAAAAAAAAAAAAAAAAAASAAAAA8eIEAAAAAAFgB/AAAHwQQAAAADAjh2w4x8dfIFAikAiZiZACD0KlhCrgJmDA4ZJiKaGLg2dGXJAxokAL4yCcQgMAOgAAAAAAAAAAAAAAAAAgAAAAAAAAAAA==

> <PUBCHEM_IUPAC_OPENEYE_NAME>
N-(3-fluorophenyl)-2-(morpholinomethyl)-5,6,7,8-tetrahydrobenzothiopheno[2,3-d]pyrimidin-4-amine

> <PUBCHEM_IUPAC_CAS_NAME>
N-(3-fluorophenyl)-2-(4-morpholinylmethyl)-5,6,7,8-tetrahydro-[1]benzothiolo[2,3-d]pyrimidin-4-amine

> <PUBCHEM_IUPAC_NAME_MARKUP>
<I>N</I>-(3-fluorophenyl)-2-(morpholin-4-ylmethyl)-5,6,7,8-tetrahydro-[1]benzothiolo[2,3-d]pyrimidin-4-amine

> <PUBCHEM_IUPAC_NAME>
N-(3-fluorophenyl)-2-(morpholin-4-ylmethyl)-5,6,7,8-tetrahydro-[1]benzothiolo[2,3-d]pyrimidin-4-amine

> <PUBCHEM_IUPAC_SYSTEMATIC_NAME>
N-(3-fluorophenyl)-2-(morpholin-4-ylmethyl)-5,6,7,8-tetrahydro-[1]benzothiolo[2,3-d]pyrimidin-4-amine

> <PUBCHEM_IUPAC_TRADITIONAL_NAME>
(3-fluorophenyl)-[2-(morpholinomethyl)-5,6,7,8-tetrahydrobenzothiopheno[2,3-d]pyrimidin-4-yl]amine

> <PUBCHEM_IUPAC_INCHI>
InChI=1S/C21H23FN4OS/c22-14-4-3-5-15(12-14)23-20-19-16-6-1-2-7-17(16)28-21(19)25-18(24-20)13-26-8-10-27-11-9-26/h3-5,12H,1-2,6-11,13H2,(H,23,24,25)

> <PUBCHEM_IUPAC_INCHIKEY>
MXWHUORWIGTFBA-UHFFFAOYSA-N

> <PUBCHEM_XLOGP3_AA>
4.3

> <PUBCHEM_EXACT_MASS>
398.15766071

> <PUBCHEM_MOLECULAR_FORMULA>
C21H23FN4OS

> <PUBCHEM_MOLECULAR_WEIGHT>
398.5

> <PUBCHEM_OPENEYE_CAN_SMILES>
C1CCC2=C(C1)C3=C(N=C(N=C3S2)CN4CCOCC4)NC5=CC(=CC=C5)F

> <PUBCHEM_OPENEYE_ISO_SMILES>
C1CCC2=C(C1)C3=C(N=C(N=C3S2)CN4CCOCC4)NC5=CC(=CC=C5)F

> <PUBCHEM_CACTVS_TPSA>
78.5

> <PUBCHEM_MONOISOTOPIC_WEIGHT>
398.15766071

> <PUBCHEM_TOTAL_CHARGE>
0

> <PUBCHEM_HEAVY_ATOM_COUNT>
28

> <PUBCHEM_ATOM_DEF_STEREO_COUNT>
0

> <PUBCHEM_ATOM_UDEF_STEREO_COUNT>
0

> <PUBCHEM_BOND_DEF_STEREO_COUNT>
0

> <PUBCHEM_BOND_UDEF_STEREO_COUNT>
0

> <PUBCHEM_ISOTOPIC_ATOM_COUNT>
0

> <PUBCHEM_COMPONENT_COUNT>
1

> <PUBCHEM_CACTVS_TAUTO_COUNT>
-1

> <PUBCHEM_COORDINATE_TYPE>
1
5
255

> <PUBCHEM_BONDANNOTATIONS>
1  13  8
1  15  8
14  15  8
14  17  8
23  24  8
23  25  8
24  26  8
25  27  8
26  28  8
27  28  8
5  15  8
5  20  8
6  17  8
6  20  8
8  13  8
8  14  8

$$$$
