10091430
  -OEChem-09292322032D

 60 63  0     1  0  0  0  0  0999 V2000
   11.0693    0.4070    0.0000 O   0  0  0  0  0  0  0  0  0  0  0  0
   11.0693   -3.0571    0.0000 O   0  0  0  0  0  0  0  0  0  0  0  0
    4.0693    0.4070    0.0000 O   0  0  0  0  0  0  0  0  0  0  0  0
   11.0693   -1.3250    0.0000 N   0  0  0  0  0  0  0  0  0  0  0  0
    7.0693    0.4070    0.0000 N   0  0  0  0  0  0  0  0  0  0  0  0
   13.0693   -1.3250    0.0000 C   0  0  0  0  0  0  0  0  0  0  0  0
   13.6570   -0.5160    0.0000 C   0  0  0  0  0  0  0  0  0  0  0  0
   13.6570   -2.1341    0.0000 C   0  0  0  0  0  0  0  0  0  0  0  0
   14.6081   -0.8250    0.0000 C   0  0  0  0  0  0  0  0  0  0  0  0
   14.6081   -1.8250    0.0000 C   0  0  0  0  0  0  0  0  0  0  0  0
   12.5693   -0.4590    0.0000 C   0  0  0  0  0  0  0  0  0  0  0  0
   12.5693   -2.1911    0.0000 C   0  0  0  0  0  0  0  0  0  0  0  0
   11.5693   -0.4590    0.0000 C   0  0  0  0  0  0  0  0  0  0  0  0
   11.5693   -2.1911    0.0000 C   0  0  0  0  0  0  0  0  0  0  0  0
   10.0693   -1.3250    0.0000 C   0  0  0  0  0  0  0  0  0  0  0  0
    9.5693   -0.4590    0.0000 C   0  0  0  0  0  0  0  0  0  0  0  0
    8.5693   -0.4590    0.0000 C   0  0  0  0  0  0  0  0  0  0  0  0
    5.5693    1.2730    0.0000 C   0  0  3  0  0  0  0  0  0  0  0  0
    8.0693    0.4070    0.0000 C   0  0  0  0  0  0  0  0  0  0  0  0
    6.5693    1.2730    0.0000 C   0  0  0  0  0  0  0  0  0  0  0  0
    5.0693    2.1391    0.0000 C   0  0  0  0  0  0  0  0  0  0  0  0
    5.0693    0.4070    0.0000 C   0  0  0  0  0  0  0  0  0  0  0  0
    4.0693    2.1391    0.0000 C   0  0  0  0  0  0  0  0  0  0  0  0
    3.5693    1.2730    0.0000 C   0  0  0  0  0  0  0  0  0  0  0  0
    3.5624    3.0491    0.0000 C   0  0  0  0  0  0  0  0  0  0  0  0
    2.5278    1.2570    0.0000 C   0  0  0  0  0  0  0  0  0  0  0  0
    2.5208    3.0571    0.0000 C   0  0  0  0  0  0  0  0  0  0  0  0
    2.0000    2.1550    0.0000 C   0  0  0  0  0  0  0  0  0  0  0  0
   13.9092    0.0504    0.0000 H   0  0  0  0  0  0  0  0  0  0  0  0
   13.1201   -0.2060    0.0000 H   0  0  0  0  0  0  0  0  0  0  0  0
   13.1201   -2.4441    0.0000 H   0  0  0  0  0  0  0  0  0  0  0  0
   13.9092   -2.7005    0.0000 H   0  0  0  0  0  0  0  0  0  0  0  0
   15.2247   -0.8898    0.0000 H   0  0  0  0  0  0  0  0  0  0  0  0
   14.7370   -0.2186    0.0000 H   0  0  0  0  0  0  0  0  0  0  0  0
   14.7370   -2.4315    0.0000 H   0  0  0  0  0  0  0  0  0  0  0  0
   15.2247   -1.7602    0.0000 H   0  0  0  0  0  0  0  0  0  0  0  0
   13.1519   -0.2470    0.0000 H   0  0  0  0  0  0  0  0  0  0  0  0
   12.4616    0.1516    0.0000 H   0  0  0  0  0  0  0  0  0  0  0  0
   12.4616   -2.8016    0.0000 H   0  0  0  0  0  0  0  0  0  0  0  0
   13.1519   -2.4031    0.0000 H   0  0  0  0  0  0  0  0  0  0  0  0
    9.4866   -1.5371    0.0000 H   0  0  0  0  0  0  0  0  0  0  0  0
   10.1769   -1.9356    0.0000 H   0  0  0  0  0  0  0  0  0  0  0  0
   10.1519   -0.2470    0.0000 H   0  0  0  0  0  0  0  0  0  0  0  0
    9.4616    0.1516    0.0000 H   0  0  0  0  0  0  0  0  0  0  0  0
    7.9866   -0.6711    0.0000 H   0  0  0  0  0  0  0  0  0  0  0  0
    8.6769   -1.0696    0.0000 H   0  0  0  0  0  0  0  0  0  0  0  0
    5.8793    1.8100    0.0000 H   0  0  0  0  0  0  0  0  0  0  0  0
    8.6519    0.6191    0.0000 H   0  0  0  0  0  0  0  0  0  0  0  0
    7.9616    1.0176    0.0000 H   0  0  0  0  0  0  0  0  0  0  0  0
    7.1519    1.4851    0.0000 H   0  0  0  0  0  0  0  0  0  0  0  0
    6.4616    1.8836    0.0000 H   0  0  0  0  0  0  0  0  0  0  0  0
    5.6519    2.3511    0.0000 H   0  0  0  0  0  0  0  0  0  0  0  0
    4.9616    2.7496    0.0000 H   0  0  0  0  0  0  0  0  0  0  0  0
    6.7593   -0.1299    0.0000 H   0  0  0  0  0  0  0  0  0  0  0  0
    4.9616   -0.2036    0.0000 H   0  0  0  0  0  0  0  0  0  0  0  0
    5.6519    0.1950    0.0000 H   0  0  0  0  0  0  0  0  0  0  0  0
    3.8786    3.5824    0.0000 H   0  0  0  0  0  0  0  0  0  0  0  0
    2.2240    0.7165    0.0000 H   0  0  0  0  0  0  0  0  0  0  0  0
    2.2129    3.5952    0.0000 H   0  0  0  0  0  0  0  0  0  0  0  0
    1.3800    2.1526    0.0000 H   0  0  0  0  0  0  0  0  0  0  0  0
  1 13  2  0  0  0  0
  2 14  2  0  0  0  0
  3 22  1  0  0  0  0
  3 24  1  0  0  0  0
  4 13  1  0  0  0  0
  4 14  1  0  0  0  0
  4 15  1  0  0  0  0
  5 19  1  0  0  0  0
  5 20  1  0  0  0  0
  5 54  1  0  0  0  0
  6  7  1  0  0  0  0
  6  8  1  0  0  0  0
  6 11  1  0  0  0  0
  6 12  1  0  0  0  0
  7  9  1  0  0  0  0
  7 29  1  0  0  0  0
  7 30  1  0  0  0  0
  8 10  1  0  0  0  0
  8 31  1  0  0  0  0
  8 32  1  0  0  0  0
  9 10  1  0  0  0  0
  9 33  1  0  0  0  0
  9 34  1  0  0  0  0
 10 35  1  0  0  0  0
 10 36  1  0  0  0  0
 11 13  1  0  0  0  0
 11 37  1  0  0  0  0
 11 38  1  0  0  0  0
 12 14  1  0  0  0  0
 12 39  1  0  0  0  0
 12 40  1  0  0  0  0
 15 16  1  0  0  0  0
 15 41  1  0  0  0  0
 15 42  1  0  0  0  0
 16 17  1  0  0  0  0
 16 43  1  0  0  0  0
 16 44  1  0  0  0  0
 17 19  1  0  0  0  0
 17 45  1  0  0  0  0
 17 46  1  0  0  0  0
 18 20  1  0  0  0  0
 18 21  1  0  0  0  0
 18 22  1  0  0  0  0
 18 47  1  0  0  0  0
 19 48  1  0  0  0  0
 19 49  1  0  0  0  0
 20 50  1  0  0  0  0
 20 51  1  0  0  0  0
 21 23  1  0  0  0  0
 21 52  1  0  0  0  0
 21 53  1  0  0  0  0
 22 55  1  0  0  0  0
 22 56  1  0  0  0  0
 23 24  1  0  0  0  0
 23 25  2  0  0  0  0
 24 26  2  0  0  0  0
 25 27  1  0  0  0  0
 25 57  1  0  0  0  0
 26 28  1  0  0  0  0
 26 58  1  0  0  0  0
 27 28  2  0  0  0  0
 27 59  1  0  0  0  0
 28 60  1  0  0  0  0
M  END
> <PUBCHEM_COMPOUND_CID>
10091430

> <PUBCHEM_COMPOUND_CANONICALIZED>
1

> <PUBCHEM_CACTVS_COMPLEXITY>
538

> <PUBCHEM_CACTVS_HBOND_ACCEPTOR>
4

> <PUBCHEM_CACTVS_HBOND_DONOR>
1

> <PUBCHEM_CACTVS_ROTATABLE_BOND>
7

> <PUBCHEM_CACTVS_SUBSKEYS>
AAADcfB7MAAAAAAAAAAAAAAAAAAAAYAAAAA8SIAAAAAAAACRAAAAHgAQAAAADwThmAYwBoPABACIAiFSEAACCAAgIAAIiIEOCIgMJjKEsRqGOCCm1jGIqAeY2+KPAAAAAAAIAAAAAAAAABAAAAAAAAAAAA==

> <PUBCHEM_IUPAC_OPENEYE_NAME>
8-[4-(chroman-3-ylmethylamino)butyl]-8-azaspiro[4.5]decane-7,9-dione

> <PUBCHEM_IUPAC_CAS_NAME>
8-[4-(3,4-dihydro-2H-1-benzopyran-3-ylmethylamino)butyl]-8-azaspiro[4.5]decane-7,9-dione

> <PUBCHEM_IUPAC_NAME_MARKUP>
8-[4-(3,4-dihydro-2<I>H</I>-chromen-3-ylmethylamino)butyl]-8-azaspiro[4.5]decane-7,9-dione

> <PUBCHEM_IUPAC_NAME>
8-[4-(3,4-dihydro-2H-chromen-3-ylmethylamino)butyl]-8-azaspiro[4.5]decane-7,9-dione

> <PUBCHEM_IUPAC_SYSTEMATIC_NAME>
8-[4-(3,4-dihydro-2H-chromen-3-ylmethylamino)butyl]-8-azaspiro[4.5]decane-7,9-dione

> <PUBCHEM_IUPAC_TRADITIONAL_NAME>
8-[4-(chroman-3-ylmethylamino)butyl]-8-azaspiro[4.5]decane-7,9-quinone

> <PUBCHEM_IUPAC_INCHI>
InChI=1S/C23H32N2O3/c26-21-14-23(9-3-4-10-23)15-22(27)25(21)12-6-5-11-24-16-18-13-19-7-1-2-8-20(19)28-17-18/h1-2,7-8,18,24H,3-6,9-17H2

> <PUBCHEM_IUPAC_INCHIKEY>
ZXXWEZYYAYQNEN-UHFFFAOYSA-N

> <PUBCHEM_XLOGP3_AA>
3.4

> <PUBCHEM_EXACT_MASS>
384.24129289

> <PUBCHEM_MOLECULAR_FORMULA>
C23H32N2O3

> <PUBCHEM_MOLECULAR_WEIGHT>
384.5

> <PUBCHEM_OPENEYE_CAN_SMILES>
C1CCC2(C1)CC(=O)N(C(=O)C2)CCCCNCC3CC4=CC=CC=C4OC3

> <PUBCHEM_OPENEYE_ISO_SMILES>
C1CCC2(C1)CC(=O)N(C(=O)C2)CCCCNCC3CC4=CC=CC=C4OC3

> <PUBCHEM_CACTVS_TPSA>
58.6

> <PUBCHEM_MONOISOTOPIC_WEIGHT>
384.24129289

> <PUBCHEM_TOTAL_CHARGE>
0

> <PUBCHEM_HEAVY_ATOM_COUNT>
28

> <PUBCHEM_ATOM_DEF_STEREO_COUNT>
0

> <PUBCHEM_ATOM_UDEF_STEREO_COUNT>
1

> <PUBCHEM_BOND_DEF_STEREO_COUNT>
0

> <PUBCHEM_BOND_UDEF_STEREO_COUNT>
0

> <PUBCHEM_ISOTOPIC_ATOM_COUNT>
0

> <PUBCHEM_COMPONENT_COUNT>
1

> <PUBCHEM_CACTVS_TAUTO_COUNT>
-1

> <PUBCHEM_COORDINATE_TYPE>
1
5
255

> <PUBCHEM_BONDANNOTATIONS>
18  20  3
23  24  8
23  25  8
24  26  8
25  27  8
26  28  8
27  28  8

$$$$
