138671175
  -OEChem-09292322452D

 69 72  0     1  0  0  0  0  0999 V2000
   11.1394    1.8135    0.0000 F   0  0  0  0  0  0  0  0  0  0  0  0
   20.5903   -1.4527    0.0000 F   0  0  0  0  0  0  0  0  0  0  0  0
   20.2295   -0.0853    0.0000 F   0  0  0  0  0  0  0  0  0  0  0  0
   19.2228   -1.8135    0.0000 F   0  0  0  0  0  0  0  0  0  0  0  0
    7.1753    0.9475    0.0000 O   0  0  0  0  0  0  0  0  0  0  0  0
    5.4432   -0.0525    0.0000 O   0  0  0  0  0  0  0  0  0  0  0  0
   17.9941   -0.9427    0.0000 O   0  0  0  0  0  0  0  0  0  0  0  0
    3.4945   -1.7550    0.0000 O   0  0  0  0  0  0  0  0  0  0  0  0
   13.1394    0.0814    0.0000 N   0  0  3  0  0  0  0  0  0  0  0  0
    8.0413   -0.5525    0.0000 N   0  0  0  0  0  0  0  0  0  0  0  0
   16.2240   -0.9532    0.0000 N   0  0  0  0  0  0  0  0  0  0  0  0
    4.4727   -1.5471    0.0000 N   0  0  0  0  0  0  0  0  0  0  0  0
   10.6394    0.9475    0.0000 C   0  0  0  0  0  0  0  0  0  0  0  0
    9.7734    1.4475    0.0000 C   0  0  0  0  0  0  0  0  0  0  0  0
   10.6394   -0.0525    0.0000 C   0  0  0  0  0  0  0  0  0  0  0  0
    8.9073   -0.0525    0.0000 C   0  0  0  0  0  0  0  0  0  0  0  0
    8.9073    0.9475    0.0000 C   0  0  0  0  0  0  0  0  0  0  0  0
    9.7734   -0.5525    0.0000 C   0  0  0  0  0  0  0  0  0  0  0  0
   11.6394    0.9475    0.0000 C   0  0  0  0  0  0  0  0  0  0  0  0
   12.1394    0.0814    0.0000 C   0  0  0  0  0  0  0  0  0  0  0  0
   13.5733    0.9824    0.0000 C   0  0  0  0  0  0  0  0  0  0  0  0
   13.5733   -0.8195    0.0000 C   0  0  0  0  0  0  0  0  0  0  0  0
   14.5482    1.2049    0.0000 C   0  0  0  0  0  0  0  0  0  0  0  0
   14.5482   -1.0421    0.0000 C   0  0  0  0  0  0  0  0  0  0  0  0
    7.1753   -0.0525    0.0000 C   0  0  0  0  0  0  0  0  0  0  0  0
   15.3300    0.5814    0.0000 C   0  0  0  0  0  0  0  0  0  0  0  0
   15.3300   -0.4186    0.0000 C   0  0  0  0  0  0  0  0  0  0  0  0
    6.3092   -0.5525    0.0000 C   0  0  0  0  0  0  0  0  0  0  0  0
   16.2240    1.1161    0.0000 C   0  0  0  0  0  0  0  0  0  0  0  0
   17.1300    0.6022    0.0000 C   0  0  0  0  0  0  0  0  0  0  0  0
   17.1300   -0.4394    0.0000 C   0  0  0  0  0  0  0  0  0  0  0  0
    4.5772   -0.5525    0.0000 C   0  0  0  0  0  0  0  0  0  0  0  0
   18.8621   -0.4461    0.0000 C   0  0  0  0  0  0  0  0  0  0  0  0
    3.6636   -0.1458    0.0000 C   0  0  0  0  0  0  0  0  0  0  0  0
   19.7262   -0.9494    0.0000 C   0  0  0  0  0  0  0  0  0  0  0  0
    2.9945   -0.8889    0.0000 C   0  0  0  0  0  0  0  0  0  0  0  0
    2.0000   -0.7844    0.0000 C   0  0  0  0  0  0  0  0  0  0  0  0
   10.1719    1.9224    0.0000 H   0  0  0  0  0  0  0  0  0  0  0  0
    9.3748    1.9224    0.0000 H   0  0  0  0  0  0  0  0  0  0  0  0
   10.8514   -0.6352    0.0000 H   0  0  0  0  0  0  0  0  0  0  0  0
   11.2500    0.0551    0.0000 H   0  0  0  0  0  0  0  0  0  0  0  0
    8.3704    0.2575    0.0000 H   0  0  0  0  0  0  0  0  0  0  0  0
    8.6953    1.5301    0.0000 H   0  0  0  0  0  0  0  0  0  0  0  0
    8.2967    0.8398    0.0000 H   0  0  0  0  0  0  0  0  0  0  0  0
    9.3748   -1.0275    0.0000 H   0  0  0  0  0  0  0  0  0  0  0  0
   10.1719   -1.0275    0.0000 H   0  0  0  0  0  0  0  0  0  0  0  0
   12.2220    1.1595    0.0000 H   0  0  0  0  0  0  0  0  0  0  0  0
   11.5317    1.5580    0.0000 H   0  0  0  0  0  0  0  0  0  0  0  0
   11.5568   -0.1306    0.0000 H   0  0  0  0  0  0  0  0  0  0  0  0
   12.2470   -0.5291    0.0000 H   0  0  0  0  0  0  0  0  0  0  0  0
    8.0413   -1.1725    0.0000 H   0  0  0  0  0  0  0  0  0  0  0  0
   13.5733    1.6024    0.0000 H   0  0  0  0  0  0  0  0  0  0  0  0
   12.9688    1.1204    0.0000 H   0  0  0  0  0  0  0  0  0  0  0  0
   12.9688   -0.9575    0.0000 H   0  0  0  0  0  0  0  0  0  0  0  0
   13.5733   -1.4395    0.0000 H   0  0  0  0  0  0  0  0  0  0  0  0
   15.0329    1.5915    0.0000 H   0  0  0  0  0  0  0  0  0  0  0  0
   14.2792    1.7635    0.0000 H   0  0  0  0  0  0  0  0  0  0  0  0
   14.2792   -1.6007    0.0000 H   0  0  0  0  0  0  0  0  0  0  0  0
   15.0329   -1.4286    0.0000 H   0  0  0  0  0  0  0  0  0  0  0  0
    5.9107   -1.0275    0.0000 H   0  0  0  0  0  0  0  0  0  0  0  0
    6.7078   -1.0275    0.0000 H   0  0  0  0  0  0  0  0  0  0  0  0
   16.2168    1.7360    0.0000 H   0  0  0  0  0  0  0  0  0  0  0  0
   17.6658    0.9143    0.0000 H   0  0  0  0  0  0  0  0  0  0  0  0
   19.2624    0.0273    0.0000 H   0  0  0  0  0  0  0  0  0  0  0  0
   18.4654    0.0304    0.0000 H   0  0  0  0  0  0  0  0  0  0  0  0
    3.5348    0.4606    0.0000 H   0  0  0  0  0  0  0  0  0  0  0  0
    2.0648   -0.1678    0.0000 H   0  0  0  0  0  0  0  0  0  0  0  0
    1.3834   -0.7196    0.0000 H   0  0  0  0  0  0  0  0  0  0  0  0
    1.9352   -1.4010    0.0000 H   0  0  0  0  0  0  0  0  0  0  0  0
  1 13  1  0  0  0  0
  2 35  1  0  0  0  0
  3 35  1  0  0  0  0
  4 35  1  0  0  0  0
  5 25  2  0  0  0  0
  6 28  1  0  0  0  0
  6 32  1  0  0  0  0
  7 31  1  0  0  0  0
  7 33  1  0  0  0  0
  8 12  1  0  0  0  0
  8 36  1  0  0  0  0
  9 20  1  0  0  0  0
  9 21  1  0  0  0  0
  9 22  1  0  0  0  0
 10 16  1  0  0  0  0
 10 25  1  0  0  0  0
 10 51  1  0  0  0  0
 11 27  1  0  0  0  0
 11 31  2  0  0  0  0
 12 32  2  0  0  0  0
 13 14  1  0  0  0  0
 13 15  1  0  0  0  0
 13 19  1  0  0  0  0
 14 17  1  0  0  0  0
 14 38  1  0  0  0  0
 14 39  1  0  0  0  0
 15 18  1  0  0  0  0
 15 40  1  0  0  0  0
 15 41  1  0  0  0  0
 16 17  1  0  0  0  0
 16 18  1  0  0  0  0
 16 42  1  0  0  0  0
 17 43  1  0  0  0  0
 17 44  1  0  0  0  0
 18 45  1  0  0  0  0
 18 46  1  0  0  0  0
 19 20  1  0  0  0  0
 19 47  1  0  0  0  0
 19 48  1  0  0  0  0
 20 49  1  0  0  0  0
 20 50  1  0  0  0  0
 21 23  1  0  0  0  0
 21 52  1  0  0  0  0
 21 53  1  0  0  0  0
 22 24  1  0  0  0  0
 22 54  1  0  0  0  0
 22 55  1  0  0  0  0
 23 26  1  0  0  0  0
 23 56  1  0  0  0  0
 23 57  1  0  0  0  0
 24 27  1  0  0  0  0
 24 58  1  0  0  0  0
 24 59  1  0  0  0  0
 25 28  1  0  0  0  0
 26 27  2  0  0  0  0
 26 29  1  0  0  0  0
 28 60  1  0  0  0  0
 28 61  1  0  0  0  0
 29 30  2  0  0  0  0
 29 62  1  0  0  0  0
 30 31  1  0  0  0  0
 30 63  1  0  0  0  0
 32 34  1  0  0  0  0
 33 35  1  0  0  0  0
 33 64  1  0  0  0  0
 33 65  1  0  0  0  0
 34 36  2  0  0  0  0
 34 66  1  0  0  0  0
 36 37  1  0  0  0  0
 37 67  1  0  0  0  0
 37 68  1  0  0  0  0
 37 69  1  0  0  0  0
M  END
> <PUBCHEM_COMPOUND_CID>
138671175

> <PUBCHEM_COMPOUND_CANONICALIZED>
1

> <PUBCHEM_CACTVS_COMPLEXITY>
738

> <PUBCHEM_CACTVS_HBOND_ACCEPTOR>
11

> <PUBCHEM_CACTVS_HBOND_DONOR>
1

> <PUBCHEM_CACTVS_ROTATABLE_BOND>
9

> <PUBCHEM_CACTVS_SUBSKEYS>
AAADcfB7ucAAAAAAAAAAAAAAAAAAAWAAAAA8QAAABYAAAAAB4AAAHwAUAAAADCzhnhYyhJPYFACpA6VyVgKCiCAlIiAomKF+bNoOJ+7E8Z+POOjn9h3Y6EeQ0KEOAAAAAAAAAAAQAAAAAAAAAAAAAAAAAA==

> <PUBCHEM_IUPAC_OPENEYE_NAME>
N-[4-fluoro-4-[2-[2-(2,2,2-trifluoroethoxy)-5,6,8,9-tetrahydropyrido[2,3-d]azepin-7-yl]ethyl]cyclohexyl]-2-(5-methylisoxazol-3-yl)oxy-acetamide

> <PUBCHEM_IUPAC_CAS_NAME>
N-[4-fluoro-4-[2-[2-(2,2,2-trifluoroethoxy)-5,6,8,9-tetrahydropyrido[2,3-d]azepin-7-yl]ethyl]cyclohexyl]-2-[(5-methyl-3-isoxazolyl)oxy]acetamide

> <PUBCHEM_IUPAC_NAME_MARKUP>
<I>N</I>-[4-fluoro-4-[2-[2-(2,2,2-trifluoroethoxy)-5,6,8,9-tetrahydropyrido[2,3-d]azepin-7-yl]ethyl]cyclohexyl]-2-[(5-methyl-1,2-oxazol-3-yl)oxy]acetamide

> <PUBCHEM_IUPAC_NAME>
N-[4-fluoro-4-[2-[2-(2,2,2-trifluoroethoxy)-5,6,8,9-tetrahydropyrido[2,3-d]azepin-7-yl]ethyl]cyclohexyl]-2-[(5-methyl-1,2-oxazol-3-yl)oxy]acetamide

> <PUBCHEM_IUPAC_SYSTEMATIC_NAME>
N-[4-fluoranyl-4-[2-[2-[2,2,2-tris(fluoranyl)ethoxy]-5,6,8,9-tetrahydropyrido[2,3-d]azepin-7-yl]ethyl]cyclohexyl]-2-[(5-methyl-1,2-oxazol-3-yl)oxy]ethanamide

> <PUBCHEM_IUPAC_TRADITIONAL_NAME>
N-[4-fluoro-4-[2-[2-(2,2,2-trifluoroethoxy)-5,6,8,9-tetrahydropyrid[2,3-d]azepin-7-yl]ethyl]cyclohexyl]-2-(5-methylisoxazol-3-yl)oxy-acetamide

> <PUBCHEM_IUPAC_INCHI>
InChI=1S/C25H32F4N4O4/c1-17-14-23(32-37-17)35-15-21(34)30-19-4-8-24(26,9-5-19)10-13-33-11-6-18-2-3-22(31-20(18)7-12-33)36-16-25(27,28)29/h2-3,14,19H,4-13,15-16H2,1H3,(H,30,34)

> <PUBCHEM_IUPAC_INCHIKEY>
YZSGGHPNKSRPFF-UHFFFAOYSA-N

> <PUBCHEM_XLOGP3_AA>
4.7

> <PUBCHEM_EXACT_MASS>
528.23596816

> <PUBCHEM_MOLECULAR_FORMULA>
C25H32F4N4O4

> <PUBCHEM_MOLECULAR_WEIGHT>
528.5

> <PUBCHEM_OPENEYE_CAN_SMILES>
CC1=CC(=NO1)OCC(=O)NC2CCC(CC2)(CCN3CCC4=C(CC3)N=C(C=C4)OCC(F)(F)F)F

> <PUBCHEM_OPENEYE_ISO_SMILES>
CC1=CC(=NO1)OCC(=O)NC2CCC(CC2)(CCN3CCC4=C(CC3)N=C(C=C4)OCC(F)(F)F)F

> <PUBCHEM_CACTVS_TPSA>
89.7

> <PUBCHEM_MONOISOTOPIC_WEIGHT>
528.23596816

> <PUBCHEM_TOTAL_CHARGE>
0

> <PUBCHEM_HEAVY_ATOM_COUNT>
37

> <PUBCHEM_ATOM_DEF_STEREO_COUNT>
0

> <PUBCHEM_ATOM_UDEF_STEREO_COUNT>
0

> <PUBCHEM_BOND_DEF_STEREO_COUNT>
0

> <PUBCHEM_BOND_UDEF_STEREO_COUNT>
0

> <PUBCHEM_ISOTOPIC_ATOM_COUNT>
0

> <PUBCHEM_COMPONENT_COUNT>
1

> <PUBCHEM_CACTVS_TAUTO_COUNT>
-1

> <PUBCHEM_COORDINATE_TYPE>
1
5
255

> <PUBCHEM_BONDANNOTATIONS>
11  27  8
11  31  8
12  32  8
26  27  8
26  29  8
29  30  8
30  31  8
32  34  8
34  36  8
8  12  8
8  36  8

$$$$
