44443915
  -OEChem-09292322032D

 36 37  0     1  0  0  0  0  0999 V2000
    3.4030    0.5600    0.0000 O   0  0  0  0  0  0  0  0  0  0  0  0
    5.1350    1.5600    0.0000 N   0  0  3  0  0  0  0  0  0  0  0  0
    2.5369   -2.9400    0.0000 N   0  0  0  0  0  0  0  0  0  0  0  0
    5.1350    0.5600    0.0000 C   0  0  0  0  0  0  0  0  0  0  0  0
    4.2690    0.0600    0.0000 C   0  0  3  0  0  0  0  0  0  0  0  0
    4.2690    2.0600    0.0000 C   0  0  0  0  0  0  0  0  0  0  0  0
    6.0010    2.0600    0.0000 C   0  0  0  0  0  0  0  0  0  0  0  0
    3.4030    1.5600    0.0000 C   0  0  0  0  0  0  0  0  0  0  0  0
    4.2690   -0.9400    0.0000 C   0  0  0  0  0  0  0  0  0  0  0  0
    6.0010    3.0600    0.0000 C   0  0  0  0  0  0  0  0  0  0  0  0
    3.4030   -1.4400    0.0000 C   0  0  0  0  0  0  0  0  0  0  0  0
    5.1350   -1.4400    0.0000 C   0  0  0  0  0  0  0  0  0  0  0  0
    6.8671    3.5600    0.0000 C   0  0  0  0  0  0  0  0  0  0  0  0
    3.4030   -2.4400    0.0000 C   0  0  0  0  0  0  0  0  0  0  0  0
    5.1350   -2.4400    0.0000 C   0  0  0  0  0  0  0  0  0  0  0  0
    4.2690   -2.9400    0.0000 C   0  0  0  0  0  0  0  0  0  0  0  0
    5.3471   -0.0226    0.0000 H   0  0  0  0  0  0  0  0  0  0  0  0
    5.7456    0.6677    0.0000 H   0  0  0  0  0  0  0  0  0  0  0  0
    4.8059   -0.2500    0.0000 H   0  0  0  0  0  0  0  0  0  0  0  0
    4.6675    2.5349    0.0000 H   0  0  0  0  0  0  0  0  0  0  0  0
    3.8705    2.5349    0.0000 H   0  0  0  0  0  0  0  0  0  0  0  0
    6.2131    1.4774    0.0000 H   0  0  0  0  0  0  0  0  0  0  0  0
    6.6116    2.1677    0.0000 H   0  0  0  0  0  0  0  0  0  0  0  0
    3.1909    2.1426    0.0000 H   0  0  0  0  0  0  0  0  0  0  0  0
    2.7924    1.4523    0.0000 H   0  0  0  0  0  0  0  0  0  0  0  0
    5.7890    3.6426    0.0000 H   0  0  0  0  0  0  0  0  0  0  0  0
    5.3905    2.9523    0.0000 H   0  0  0  0  0  0  0  0  0  0  0  0
    2.8660   -1.1300    0.0000 H   0  0  0  0  0  0  0  0  0  0  0  0
    5.6720   -1.1300    0.0000 H   0  0  0  0  0  0  0  0  0  0  0  0
    7.1771    3.0231    0.0000 H   0  0  0  0  0  0  0  0  0  0  0  0
    7.4040    3.8700    0.0000 H   0  0  0  0  0  0  0  0  0  0  0  0
    6.5571    4.0969    0.0000 H   0  0  0  0  0  0  0  0  0  0  0  0
    5.6720   -2.7500    0.0000 H   0  0  0  0  0  0  0  0  0  0  0  0
    4.2690   -3.5600    0.0000 H   0  0  0  0  0  0  0  0  0  0  0  0
    2.5369   -3.5600    0.0000 H   0  0  0  0  0  0  0  0  0  0  0  0
    2.0000   -2.6300    0.0000 H   0  0  0  0  0  0  0  0  0  0  0  0
  1  5  1  0  0  0  0
  1  8  1  0  0  0  0
  2  4  1  0  0  0  0
  2  6  1  0  0  0  0
  2  7  1  0  0  0  0
  3 14  1  0  0  0  0
  3 35  1  0  0  0  0
  3 36  1  0  0  0  0
  4  5  1  0  0  0  0
  4 17  1  0  0  0  0
  4 18  1  0  0  0  0
  5  9  1  0  0  0  0
  5 19  1  0  0  0  0
  6  8  1  0  0  0  0
  6 20  1  0  0  0  0
  6 21  1  0  0  0  0
  7 10  1  0  0  0  0
  7 22  1  0  0  0  0
  7 23  1  0  0  0  0
  8 24  1  0  0  0  0
  8 25  1  0  0  0  0
  9 11  2  0  0  0  0
  9 12  1  0  0  0  0
 10 13  1  0  0  0  0
 10 26  1  0  0  0  0
 10 27  1  0  0  0  0
 11 14  1  0  0  0  0
 11 28  1  0  0  0  0
 12 15  2  0  0  0  0
 12 29  1  0  0  0  0
 13 30  1  0  0  0  0
 13 31  1  0  0  0  0
 13 32  1  0  0  0  0
 14 16  2  0  0  0  0
 15 16  1  0  0  0  0
 15 33  1  0  0  0  0
 16 34  1  0  0  0  0
M  END
> <PUBCHEM_COMPOUND_CID>
44443915

> <PUBCHEM_COMPOUND_CANONICALIZED>
1

> <PUBCHEM_CACTVS_COMPLEXITY>
210

> <PUBCHEM_CACTVS_HBOND_ACCEPTOR>
3

> <PUBCHEM_CACTVS_HBOND_DONOR>
1

> <PUBCHEM_CACTVS_ROTATABLE_BOND>
3

> <PUBCHEM_CACTVS_SUBSKEYS>
AAADceBzIAAAAAAAAAAAAAAAAAAAAAAAAAA8QAAAAAAAAAABAAAAHgAQAAAADBzhmAYywINABACAAiRCQACCAAAgAgAIiAAIbIgKJiKAsZmHMABk0AGY6AewwKAOAAAAQAAAAAAAAACAAAAAAAAAAAAAAA==

> <PUBCHEM_IUPAC_OPENEYE_NAME>
3-(4-propylmorpholin-2-yl)aniline

> <PUBCHEM_IUPAC_CAS_NAME>
3-(4-propyl-2-morpholinyl)aniline

> <PUBCHEM_IUPAC_NAME_MARKUP>
3-(4-propylmorpholin-2-yl)aniline

> <PUBCHEM_IUPAC_NAME>
3-(4-propylmorpholin-2-yl)aniline

> <PUBCHEM_IUPAC_SYSTEMATIC_NAME>
3-(4-propylmorpholin-2-yl)aniline

> <PUBCHEM_IUPAC_TRADITIONAL_NAME>
[3-(4-propylmorpholin-2-yl)phenyl]amine

> <PUBCHEM_IUPAC_INCHI>
InChI=1S/C13H20N2O/c1-2-6-15-7-8-16-13(10-15)11-4-3-5-12(14)9-11/h3-5,9,13H,2,6-8,10,14H2,1H3

> <PUBCHEM_IUPAC_INCHIKEY>
UWWNEOYAHOEACI-UHFFFAOYSA-N

> <PUBCHEM_XLOGP3>
2.1

> <PUBCHEM_EXACT_MASS>
220.157563266

> <PUBCHEM_MOLECULAR_FORMULA>
C13H20N2O

> <PUBCHEM_MOLECULAR_WEIGHT>
220.31

> <PUBCHEM_OPENEYE_CAN_SMILES>
CCCN1CCOC(C1)C2=CC(=CC=C2)N

> <PUBCHEM_OPENEYE_ISO_SMILES>
CCCN1CCOC(C1)C2=CC(=CC=C2)N

> <PUBCHEM_CACTVS_TPSA>
38.5

> <PUBCHEM_MONOISOTOPIC_WEIGHT>
220.157563266

> <PUBCHEM_TOTAL_CHARGE>
0

> <PUBCHEM_HEAVY_ATOM_COUNT>
16

> <PUBCHEM_ATOM_DEF_STEREO_COUNT>
0

> <PUBCHEM_ATOM_UDEF_STEREO_COUNT>
1

> <PUBCHEM_BOND_DEF_STEREO_COUNT>
0

> <PUBCHEM_BOND_UDEF_STEREO_COUNT>
0

> <PUBCHEM_ISOTOPIC_ATOM_COUNT>
0

> <PUBCHEM_COMPONENT_COUNT>
1

> <PUBCHEM_CACTVS_TAUTO_COUNT>
-1

> <PUBCHEM_COORDINATE_TYPE>
1
5
255

> <PUBCHEM_BONDANNOTATIONS>
11  14  8
12  15  8
14  16  8
15  16  8
5  9  3
9  11  8
9  12  8

$$$$
