71541178
  -OEChem-09292322052D

 51 54  0     1  0  0  0  0  0999 V2000
    4.1087   -3.2712    0.0000 S   0  0  0  0  0  0  0  0  0  0  0  0
    8.8262    4.7772    0.0000 O   0  0  0  0  0  0  0  0  0  0  0  0
    5.8262    1.3131    0.0000 N   0  0  3  0  0  0  0  0  0  0  0  0
    2.7149   -2.4664    0.0000 N   0  0  0  0  0  0  0  0  0  0  0  0
   10.3262    3.9112    0.0000 N   0  0  0  0  0  0  0  0  0  0  0  0
    2.6200   -4.2403    0.0000 N   0  0  0  0  0  0  0  0  0  0  0  0
    6.3798    0.5035    0.0000 C   0  0  0  0  0  0  0  0  0  0  0  0
    4.8483    1.3877    0.0000 C   0  0  0  0  0  0  0  0  0  0  0  0
    6.0945   -0.4349    0.0000 C   0  0  0  0  0  0  0  0  0  0  0  0
    4.1783    0.6714    0.0000 C   0  0  0  0  0  0  0  0  0  0  0  0
    5.1840   -0.7994    0.0000 C   0  0  0  0  0  0  0  0  0  0  0  0
    4.3179   -0.2994    0.0000 C   0  0  0  0  0  0  0  0  0  0  0  0
    6.3262    2.1791    0.0000 C   0  0  0  0  0  0  0  0  0  0  0  0
    5.1840   -1.7994    0.0000 C   0  0  0  0  0  0  0  0  0  0  0  0
    3.4519   -0.7994    0.0000 C   0  0  0  0  0  0  0  0  0  0  0  0
    7.3262    2.1791    0.0000 C   0  0  0  0  0  0  0  0  0  0  0  0
    4.3179   -2.2994    0.0000 C   0  0  0  0  0  0  0  0  0  0  0  0
    3.4519   -1.7994    0.0000 C   0  0  0  0  0  0  0  0  0  0  0  0
    7.8262    3.0452    0.0000 C   0  0  0  0  0  0  0  0  0  0  0  0
    7.8262    1.3131    0.0000 C   0  0  0  0  0  0  0  0  0  0  0  0
    8.8262    3.0452    0.0000 C   0  0  0  0  0  0  0  0  0  0  0  0
    3.1200   -3.3742    0.0000 C   0  0  0  0  0  0  0  0  0  0  0  0
    8.8262    1.3131    0.0000 C   0  0  0  0  0  0  0  0  0  0  0  0
    9.3262    2.1791    0.0000 C   0  0  0  0  0  0  0  0  0  0  0  0
    9.3262    3.9112    0.0000 C   0  0  0  0  0  0  0  0  0  0  0  0
   10.8262    4.7772    0.0000 C   0  0  0  0  0  0  0  0  0  0  0  0
   10.8262    3.0452    0.0000 C   0  0  0  0  0  0  0  0  0  0  0  0
    6.9177    0.1952    0.0000 H   0  0  0  0  0  0  0  0  0  0  0  0
    6.8005    0.9589    0.0000 H   0  0  0  0  0  0  0  0  0  0  0  0
    5.0324    1.9798    0.0000 H   0  0  0  0  0  0  0  0  0  0  0  0
    4.3123    1.6994    0.0000 H   0  0  0  0  0  0  0  0  0  0  0  0
    6.1905   -1.0474    0.0000 H   0  0  0  0  0  0  0  0  0  0  0  0
    6.7130   -0.4782    0.0000 H   0  0  0  0  0  0  0  0  0  0  0  0
    3.8316    1.1854    0.0000 H   0  0  0  0  0  0  0  0  0  0  0  0
    3.5998    0.4483    0.0000 H   0  0  0  0  0  0  0  0  0  0  0  0
    6.4339    2.7897    0.0000 H   0  0  0  0  0  0  0  0  0  0  0  0
    5.7436    2.3912    0.0000 H   0  0  0  0  0  0  0  0  0  0  0  0
    5.7209   -2.1094    0.0000 H   0  0  0  0  0  0  0  0  0  0  0  0
    2.9150   -0.4894    0.0000 H   0  0  0  0  0  0  0  0  0  0  0  0
    7.5162    3.5821    0.0000 H   0  0  0  0  0  0  0  0  0  0  0  0
    7.5162    0.7762    0.0000 H   0  0  0  0  0  0  0  0  0  0  0  0
    9.1362    0.7762    0.0000 H   0  0  0  0  0  0  0  0  0  0  0  0
    9.9462    2.1791    0.0000 H   0  0  0  0  0  0  0  0  0  0  0  0
    2.0000   -4.2403    0.0000 H   0  0  0  0  0  0  0  0  0  0  0  0
    2.9300   -4.7772    0.0000 H   0  0  0  0  0  0  0  0  0  0  0  0
   11.3632    4.4672    0.0000 H   0  0  0  0  0  0  0  0  0  0  0  0
   11.1362    5.3141    0.0000 H   0  0  0  0  0  0  0  0  0  0  0  0
   10.2893    5.0872    0.0000 H   0  0  0  0  0  0  0  0  0  0  0  0
   10.2893    2.7352    0.0000 H   0  0  0  0  0  0  0  0  0  0  0  0
   11.1362    2.5082    0.0000 H   0  0  0  0  0  0  0  0  0  0  0  0
   11.3632    3.3552    0.0000 H   0  0  0  0  0  0  0  0  0  0  0  0
  1 17  1  0  0  0  0
  1 22  1  0  0  0  0
  2 25  2  0  0  0  0
  3  7  1  0  0  0  0
  3  8  1  0  0  0  0
  3 13  1  0  0  0  0
  4 18  1  0  0  0  0
  4 22  2  0  0  0  0
  5 25  1  0  0  0  0
  5 26  1  0  0  0  0
  5 27  1  0  0  0  0
  6 22  1  0  0  0  0
  6 44  1  0  0  0  0
  6 45  1  0  0  0  0
  7  9  1  0  0  0  0
  7 28  1  0  0  0  0
  7 29  1  0  0  0  0
  8 10  1  0  0  0  0
  8 30  1  0  0  0  0
  8 31  1  0  0  0  0
  9 11  1  0  0  0  0
  9 32  1  0  0  0  0
  9 33  1  0  0  0  0
 10 12  1  0  0  0  0
 10 34  1  0  0  0  0
 10 35  1  0  0  0  0
 11 12  1  0  0  0  0
 11 14  2  0  0  0  0
 12 15  2  0  0  0  0
 13 16  1  0  0  0  0
 13 36  1  0  0  0  0
 13 37  1  0  0  0  0
 14 17  1  0  0  0  0
 14 38  1  0  0  0  0
 15 18  1  0  0  0  0
 15 39  1  0  0  0  0
 16 19  2  0  0  0  0
 16 20  1  0  0  0  0
 17 18  2  0  0  0  0
 19 21  1  0  0  0  0
 19 40  1  0  0  0  0
 20 23  2  0  0  0  0
 20 41  1  0  0  0  0
 21 24  2  0  0  0  0
 21 25  1  0  0  0  0
 23 24  1  0  0  0  0
 23 42  1  0  0  0  0
 24 43  1  0  0  0  0
 26 46  1  0  0  0  0
 26 47  1  0  0  0  0
 26 48  1  0  0  0  0
 27 49  1  0  0  0  0
 27 50  1  0  0  0  0
 27 51  1  0  0  0  0
M  END
> <PUBCHEM_COMPOUND_CID>
71541178

> <PUBCHEM_COMPOUND_CANONICALIZED>
1

> <PUBCHEM_CACTVS_COMPLEXITY>
530

> <PUBCHEM_CACTVS_HBOND_ACCEPTOR>
5

> <PUBCHEM_CACTVS_HBOND_DONOR>
1

> <PUBCHEM_CACTVS_ROTATABLE_BOND>
3

> <PUBCHEM_CACTVS_SUBSKEYS>
AAADceB7oABAAAAAAAAAAAAAAAAAAWAAAAAwYAAABYAAAFgB9AAAHgQQAAAADAjB3gQz0bNIEAisAyVydACD8KllCjlImD04ZNiIILLglZGEIQhgggLIyacYicCOmAACwAAQAQAwAAWAACACAAAAAAAAAA==

> <PUBCHEM_IUPAC_OPENEYE_NAME>
3-[(2-amino-5,6,8,9-tetrahydrothiazolo[4,5-h][3]benzazepin-7-yl)methyl]-N,N-dimethyl-benzamide

> <PUBCHEM_IUPAC_CAS_NAME>
3-[(2-amino-5,6,8,9-tetrahydrothiazolo[4,5-h][3]benzazepin-7-yl)methyl]-N,N-dimethylbenzamide

> <PUBCHEM_IUPAC_NAME_MARKUP>
3-[(2-amino-5,6,8,9-tetrahydro-[1,3]thiazolo[4,5-h][3]benzazepin-7-yl)methyl]-<I>N</I>,<I>N</I>-dimethylbenzamide

> <PUBCHEM_IUPAC_NAME>
3-[(2-amino-5,6,8,9-tetrahydro-[1,3]thiazolo[4,5-h][3]benzazepin-7-yl)methyl]-N,N-dimethylbenzamide

> <PUBCHEM_IUPAC_SYSTEMATIC_NAME>
3-[(2-azanyl-5,6,8,9-tetrahydro-[1,3]thiazolo[4,5-h][3]benzazepin-7-yl)methyl]-N,N-dimethyl-benzamide

> <PUBCHEM_IUPAC_TRADITIONAL_NAME>
3-[(2-amino-5,6,8,9-tetrahydrothiazolo[4,5-h][3]benzazepin-7-yl)methyl]-N,N-dimethyl-benzamide

> <PUBCHEM_IUPAC_INCHI>
InChI=1S/C21H24N4OS/c1-24(2)20(26)17-5-3-4-14(10-17)13-25-8-6-15-11-18-19(27-21(22)23-18)12-16(15)7-9-25/h3-5,10-12H,6-9,13H2,1-2H3,(H2,22,23)

> <PUBCHEM_IUPAC_INCHIKEY>
QYXHDXVSRFUNRT-UHFFFAOYSA-N

> <PUBCHEM_XLOGP3_AA>
3.3

> <PUBCHEM_EXACT_MASS>
380.16708258

> <PUBCHEM_MOLECULAR_FORMULA>
C21H24N4OS

> <PUBCHEM_MOLECULAR_WEIGHT>
380.5

> <PUBCHEM_OPENEYE_CAN_SMILES>
CN(C)C(=O)C1=CC=CC(=C1)CN2CCC3=CC4=C(C=C3CC2)SC(=N4)N

> <PUBCHEM_OPENEYE_ISO_SMILES>
CN(C)C(=O)C1=CC=CC(=C1)CN2CCC3=CC4=C(C=C3CC2)SC(=N4)N

> <PUBCHEM_CACTVS_TPSA>
90.7

> <PUBCHEM_MONOISOTOPIC_WEIGHT>
380.16708258

> <PUBCHEM_TOTAL_CHARGE>
0

> <PUBCHEM_HEAVY_ATOM_COUNT>
27

> <PUBCHEM_ATOM_DEF_STEREO_COUNT>
0

> <PUBCHEM_ATOM_UDEF_STEREO_COUNT>
0

> <PUBCHEM_BOND_DEF_STEREO_COUNT>
0

> <PUBCHEM_BOND_UDEF_STEREO_COUNT>
0

> <PUBCHEM_ISOTOPIC_ATOM_COUNT>
0

> <PUBCHEM_COMPONENT_COUNT>
1

> <PUBCHEM_CACTVS_TAUTO_COUNT>
-1

> <PUBCHEM_COORDINATE_TYPE>
1
5
255

> <PUBCHEM_BONDANNOTATIONS>
1  17  8
1  22  8
11  12  8
11  14  8
12  15  8
14  17  8
15  18  8
16  19  8
16  20  8
17  18  8
19  21  8
20  23  8
21  24  8
23  24  8
4  18  8
4  22  8

$$$$
