11486421
  -OEChem-09292322292D

 53 56  0     1  0  0  0  0  0999 V2000
    2.1374    3.8856    0.0000 Cl  0  0  0  0  0  0  0  0  0  0  0  0
    2.5932    1.8886    0.0000 O   0  0  0  0  0  0  0  0  0  0  0  0
    6.3537   -3.1858    0.0000 O   0  0  0  0  0  0  0  0  0  0  0  0
    7.3349   -1.7585    0.0000 O   0  0  0  0  0  0  0  0  0  0  0  0
    7.0983    3.9674    0.0000 N   0  0  3  0  0  0  0  0  0  0  0  0
    5.6082   -1.6224    0.0000 N   0  0  0  0  0  0  0  0  0  0  0  0
    6.8758    2.9925    0.0000 C   0  0  2  0  0  0  0  0  0  0  0  0
    5.9748    2.5586    0.0000 C   0  0  2  0  0  0  0  0  0  0  0  0
    7.7453    2.4190    0.0000 C   0  0  0  0  0  0  0  0  0  0  0  0
    5.8810    1.5212    0.0000 C   0  0  0  0  0  0  0  0  0  0  0  0
    7.6755    1.3798    0.0000 C   0  0  0  0  0  0  0  0  0  0  0  0
    5.0738    2.9925    0.0000 C   0  0  0  0  0  0  0  0  0  0  0  0
    6.7370    0.9278    0.0000 C   0  0  0  0  0  0  0  0  0  0  0  0
    6.4748    4.7492    0.0000 C   0  0  0  0  0  0  0  0  0  0  0  0
    4.8513    3.9674    0.0000 C   0  0  0  0  0  0  0  0  0  0  0  0
    5.4748    4.7492    0.0000 C   0  0  0  0  0  0  0  0  0  0  0  0
    8.0732    4.1899    0.0000 C   0  0  0  0  0  0  0  0  0  0  0  0
    4.8928    1.0732    0.0000 C   0  0  0  0  0  0  0  0  0  0  0  0
    4.3213    2.2723    0.0000 C   0  0  0  0  0  0  0  0  0  0  0  0
    6.6643   -0.1547    0.0000 C   0  0  0  0  0  0  0  0  0  0  0  0
    3.8608    4.2897    0.0000 C   0  0  0  0  0  0  0  0  0  0  0  0
    5.6868   -0.6255    0.0000 C   0  0  0  0  0  0  0  0  0  0  0  0
    4.7950   -0.0074    0.0000 C   0  0  0  0  0  0  0  0  0  0  0  0
    3.3236    2.5716    0.0000 C   0  0  0  0  0  0  0  0  0  0  0  0
    3.0918    3.5872    0.0000 C   0  0  0  0  0  0  0  0  0  0  0  0
    6.4322   -2.1889    0.0000 C   0  0  0  0  0  0  0  0  0  0  0  0
    7.1777   -3.7523    0.0000 C   0  0  0  0  0  0  0  0  0  0  0  0
    7.0992   -4.7492    0.0000 C   0  0  0  0  0  0  0  0  0  0  0  0
    7.6646    3.3091    0.0000 H   0  0  0  0  0  0  0  0  0  0  0  0
    5.2354    2.1393    0.0000 H   0  0  0  0  0  0  0  0  0  0  0  0
    8.3477    2.2722    0.0000 H   0  0  0  0  0  0  0  0  0  0  0  0
    7.9931    2.9874    0.0000 H   0  0  0  0  0  0  0  0  0  0  0  0
    7.8450    0.7834    0.0000 H   0  0  0  0  0  0  0  0  0  0  0  0
    8.2921    1.4447    0.0000 H   0  0  0  0  0  0  0  0  0  0  0  0
    7.0334    5.0182    0.0000 H   0  0  0  0  0  0  0  0  0  0  0  0
    6.3368    5.3537    0.0000 H   0  0  0  0  0  0  0  0  0  0  0  0
    5.6128    5.3537    0.0000 H   0  0  0  0  0  0  0  0  0  0  0  0
    4.9162    5.0182    0.0000 H   0  0  0  0  0  0  0  0  0  0  0  0
    8.2112    3.5855    0.0000 H   0  0  0  0  0  0  0  0  0  0  0  0
    8.6777    4.3279    0.0000 H   0  0  0  0  0  0  0  0  0  0  0  0
    7.9352    4.7944    0.0000 H   0  0  0  0  0  0  0  0  0  0  0  0
    4.3873    1.4322    0.0000 H   0  0  0  0  0  0  0  0  0  0  0  0
    4.4662    1.6695    0.0000 H   0  0  0  0  0  0  0  0  0  0  0  0
    7.1779   -0.5020    0.0000 H   0  0  0  0  0  0  0  0  0  0  0  0
    3.7298    4.8957    0.0000 H   0  0  0  0  0  0  0  0  0  0  0  0
    4.2334   -0.2699    0.0000 H   0  0  0  0  0  0  0  0  0  0  0  0
    5.0485   -1.8893    0.0000 H   0  0  0  0  0  0  0  0  0  0  0  0
    2.0000    2.0691    0.0000 H   0  0  0  0  0  0  0  0  0  0  0  0
    7.7780   -3.9076    0.0000 H   0  0  0  0  0  0  0  0  0  0  0  0
    7.4349   -3.1882    0.0000 H   0  0  0  0  0  0  0  0  0  0  0  0
    6.4811   -4.7005    0.0000 H   0  0  0  0  0  0  0  0  0  0  0  0
    7.0504   -5.3673    0.0000 H   0  0  0  0  0  0  0  0  0  0  0  0
    7.7172   -4.7980    0.0000 H   0  0  0  0  0  0  0  0  0  0  0  0
  1 25  1  0  0  0  0
  2 24  1  0  0  0  0
  2 48  1  0  0  0  0
  3 26  1  0  0  0  0
  3 27  1  0  0  0  0
  4 26  2  0  0  0  0
  5  7  1  0  0  0  0
  5 14  1  0  0  0  0
  5 17  1  0  0  0  0
  6 22  1  0  0  0  0
  6 26  1  0  0  0  0
  6 47  1  0  0  0  0
  7  8  1  0  0  0  0
  7  9  1  0  0  0  0
  7 29  1  6  0  0  0
  8 10  1  0  0  0  0
  8 12  1  0  0  0  0
  8 30  1  1  0  0  0
  9 11  1  0  0  0  0
  9 31  1  0  0  0  0
  9 32  1  0  0  0  0
 10 13  2  0  0  0  0
 10 18  1  0  0  0  0
 11 13  1  0  0  0  0
 11 33  1  0  0  0  0
 11 34  1  0  0  0  0
 12 15  1  0  0  0  0
 12 19  2  0  0  0  0
 13 20  1  0  0  0  0
 14 16  1  0  0  0  0
 14 35  1  0  0  0  0
 14 36  1  0  0  0  0
 15 16  1  0  0  0  0
 15 21  2  0  0  0  0
 16 37  1  0  0  0  0
 16 38  1  0  0  0  0
 17 39  1  0  0  0  0
 17 40  1  0  0  0  0
 17 41  1  0  0  0  0
 18 23  2  0  0  0  0
 18 42  1  0  0  0  0
 19 24  1  0  0  0  0
 19 43  1  0  0  0  0
 20 22  2  0  0  0  0
 20 44  1  0  0  0  0
 21 25  1  0  0  0  0
 21 45  1  0  0  0  0
 22 23  1  0  0  0  0
 23 46  1  0  0  0  0
 24 25  2  0  0  0  0
 27 28  1  0  0  0  0
 27 49  1  0  0  0  0
 27 50  1  0  0  0  0
 28 51  1  0  0  0  0
 28 52  1  0  0  0  0
 28 53  1  0  0  0  0
M  END
> <PUBCHEM_COMPOUND_CID>
11486421

> <PUBCHEM_COMPOUND_CANONICALIZED>
1

> <PUBCHEM_CACTVS_COMPLEXITY>
562

> <PUBCHEM_CACTVS_HBOND_ACCEPTOR>
4

> <PUBCHEM_CACTVS_HBOND_DONOR>
2

> <PUBCHEM_CACTVS_ROTATABLE_BOND>
3

> <PUBCHEM_CACTVS_SUBSKEYS>
AAADceB7MAAEAAAAAAAAAAAAAAAAAAAAAAAwYMAABYAAAADBQAAAHgIQCAAADS7hmCYyzoPABgCIAiRCWACCAAAhJ0AIiAAOb4kIJiLDk5OMcAhk1BHI2AeQ0PMOrAABYAAQCABYAAbAACQQAAAAAAAAAA==

> <PUBCHEM_IUPAC_OPENEYE_NAME>
ethyl N-[(6aS,13bR)-11-chloro-12-hydroxy-7-methyl-5,6,6a,8,9,13b-hexahydronaphtho[1,2-a][3]benzazepin-3-yl]carbamate

> <PUBCHEM_IUPAC_CAS_NAME>
N-[(6aS,13bR)-11-chloro-12-hydroxy-7-methyl-5,6,6a,8,9,13b-hexahydronaphtho[1,2-a][3]benzazepin-3-yl]carbamic acid ethyl ester

> <PUBCHEM_IUPAC_NAME_MARKUP>
ethyl <I>N</I>-[(6<I>a</I><I>S</I>,13<I>b</I><I>R</I>)-11-chloro-12-hydroxy-7-methyl-5,6,6<I>a</I>,8,9,13<I>b</I>-hexahydronaphtho[1,2-a][3]benzazepin-3-yl]carbamate

> <PUBCHEM_IUPAC_NAME>
ethyl N-[(6aS,13bR)-11-chloro-12-hydroxy-7-methyl-5,6,6a,8,9,13b-hexahydronaphtho[1,2-a][3]benzazepin-3-yl]carbamate

> <PUBCHEM_IUPAC_SYSTEMATIC_NAME>
ethyl N-[(6aS,13bR)-11-chloranyl-7-methyl-12-oxidanyl-5,6,6a,8,9,13b-hexahydronaphtho[1,2-a][3]benzazepin-3-yl]carbamate

> <PUBCHEM_IUPAC_TRADITIONAL_NAME>
N-[(6aS,13bR)-11-chloro-12-hydroxy-7-methyl-5,6,6a,8,9,13b-hexahydronaphtho[1,2-a][3]benzazepin-3-yl]carbamic acid ethyl ester

> <PUBCHEM_IUPAC_INCHI>
InChI=1S/C22H25ClN2O3/c1-3-28-22(27)24-15-5-6-16-13(10-15)4-7-19-21(16)17-12-20(26)18(23)11-14(17)8-9-25(19)2/h5-6,10-12,19,21,26H,3-4,7-9H2,1-2H3,(H,24,27)/t19-,21+/m0/s1

> <PUBCHEM_IUPAC_INCHIKEY>
ONNVZWUGBZVDOD-PZJWPPBQSA-N

> <PUBCHEM_XLOGP3_AA>
4.4

> <PUBCHEM_EXACT_MASS>
400.1553704

> <PUBCHEM_MOLECULAR_FORMULA>
C22H25ClN2O3

> <PUBCHEM_MOLECULAR_WEIGHT>
400.9

> <PUBCHEM_OPENEYE_CAN_SMILES>
CCOC(=O)NC1=CC2=C(C=C1)C3C(CC2)N(CCC4=CC(=C(C=C34)O)Cl)C

> <PUBCHEM_OPENEYE_ISO_SMILES>
CCOC(=O)NC1=CC2=C(C=C1)[C@H]3[C@H](CC2)N(CCC4=CC(=C(C=C34)O)Cl)C

> <PUBCHEM_CACTVS_TPSA>
61.8

> <PUBCHEM_MONOISOTOPIC_WEIGHT>
400.1553704

> <PUBCHEM_TOTAL_CHARGE>
0

> <PUBCHEM_HEAVY_ATOM_COUNT>
28

> <PUBCHEM_ATOM_DEF_STEREO_COUNT>
2

> <PUBCHEM_ATOM_UDEF_STEREO_COUNT>
0

> <PUBCHEM_BOND_DEF_STEREO_COUNT>
0

> <PUBCHEM_BOND_UDEF_STEREO_COUNT>
0

> <PUBCHEM_ISOTOPIC_ATOM_COUNT>
0

> <PUBCHEM_COMPONENT_COUNT>
1

> <PUBCHEM_CACTVS_TAUTO_COUNT>
-1

> <PUBCHEM_COORDINATE_TYPE>
1
5
255

> <PUBCHEM_BONDANNOTATIONS>
10  13  8
10  18  8
12  15  8
12  19  8
13  20  8
15  21  8
18  23  8
19  24  8
20  22  8
21  25  8
22  23  8
24  25  8
7  29  6
8  30  5

$$$$
