14762912
  -OEChem-09292322042D

 41 42  0     1  0  0  0  0  0999 V2000
    6.3301   -3.8209    0.0000 Br  0  0  0  0  0  0  0  0  0  0  0  0
    3.7320   -0.3209    0.0000 O   0  0  0  0  0  0  0  0  0  0  0  0
    2.8660   -1.8209    0.0000 O   0  0  0  0  0  0  0  0  0  0  0  0
    6.4347    2.1736    0.0000 N   0  0  3  0  0  0  0  0  0  0  0  0
    5.4641   -0.3209    0.0000 N   0  0  0  0  0  0  0  0  0  0  0  0
    6.3301    1.1791    0.0000 C   0  0  1  0  0  0  0  0  0  0  0  0
    7.2437    0.7724    0.0000 C   0  0  0  0  0  0  0  0  0  0  0  0
    7.9128    1.5155    0.0000 C   0  0  0  0  0  0  0  0  0  0  0  0
    7.4128    2.3815    0.0000 C   0  0  0  0  0  0  0  0  0  0  0  0
    5.4641    0.6791    0.0000 C   0  0  0  0  0  0  0  0  0  0  0  0
    5.6915    2.8428    0.0000 C   0  0  0  0  0  0  0  0  0  0  0  0
    5.8994    3.8209    0.0000 C   0  0  0  0  0  0  0  0  0  0  0  0
    4.5981   -0.8209    0.0000 C   0  0  0  0  0  0  0  0  0  0  0  0
    4.5981   -1.8209    0.0000 C   0  0  0  0  0  0  0  0  0  0  0  0
    3.7320   -2.3209    0.0000 C   0  0  0  0  0  0  0  0  0  0  0  0
    5.4641   -2.3209    0.0000 C   0  0  0  0  0  0  0  0  0  0  0  0
    3.7320   -3.3209    0.0000 C   0  0  0  0  0  0  0  0  0  0  0  0
    5.4641   -3.3209    0.0000 C   0  0  0  0  0  0  0  0  0  0  0  0
    4.5981   -3.8209    0.0000 C   0  0  0  0  0  0  0  0  0  0  0  0
    2.0000   -2.3209    0.0000 C   0  0  0  0  0  0  0  0  0  0  0  0
    5.8102    1.5168    0.0000 H   0  0  0  0  0  0  0  0  0  0  0  0
    6.9337    0.2354    0.0000 H   0  0  0  0  0  0  0  0  0  0  0  0
    7.7453    0.4079    0.0000 H   0  0  0  0  0  0  0  0  0  0  0  0
    8.3277    1.0548    0.0000 H   0  0  0  0  0  0  0  0  0  0  0  0
    8.4144    1.8799    0.0000 H   0  0  0  0  0  0  0  0  0  0  0  0
    7.9792    2.6337    0.0000 H   0  0  0  0  0  0  0  0  0  0  0  0
    7.2212    2.9712    0.0000 H   0  0  0  0  0  0  0  0  0  0  0  0
    5.2520    1.2617    0.0000 H   0  0  0  0  0  0  0  0  0  0  0  0
    4.8535    0.5714    0.0000 H   0  0  0  0  0  0  0  0  0  0  0  0
    5.1167    3.0750    0.0000 H   0  0  0  0  0  0  0  0  0  0  0  0
    5.3630    2.3170    0.0000 H   0  0  0  0  0  0  0  0  0  0  0  0
    6.0010   -0.6309    0.0000 H   0  0  0  0  0  0  0  0  0  0  0  0
    6.5059    3.6920    0.0000 H   0  0  0  0  0  0  0  0  0  0  0  0
    6.0283    4.4274    0.0000 H   0  0  0  0  0  0  0  0  0  0  0  0
    5.2930    3.9498    0.0000 H   0  0  0  0  0  0  0  0  0  0  0  0
    6.0010   -2.0109    0.0000 H   0  0  0  0  0  0  0  0  0  0  0  0
    3.1951   -3.6309    0.0000 H   0  0  0  0  0  0  0  0  0  0  0  0
    4.5981   -4.4409    0.0000 H   0  0  0  0  0  0  0  0  0  0  0  0
    1.6900   -1.7840    0.0000 H   0  0  0  0  0  0  0  0  0  0  0  0
    1.4631   -2.6309    0.0000 H   0  0  0  0  0  0  0  0  0  0  0  0
    2.3100   -2.8578    0.0000 H   0  0  0  0  0  0  0  0  0  0  0  0
  1 18  1  0  0  0  0
  2 13  2  0  0  0  0
  3 15  1  0  0  0  0
  3 20  1  0  0  0  0
  4  6  1  0  0  0  0
  4  9  1  0  0  0  0
  4 11  1  0  0  0  0
  5 10  1  0  0  0  0
  5 13  1  0  0  0  0
  5 32  1  0  0  0  0
  6  7  1  0  0  0  0
  6 10  1  1  0  0  0
  6 21  1  0  0  0  0
  7  8  1  0  0  0  0
  7 22  1  0  0  0  0
  7 23  1  0  0  0  0
  8  9  1  0  0  0  0
  8 24  1  0  0  0  0
  8 25  1  0  0  0  0
  9 26  1  0  0  0  0
  9 27  1  0  0  0  0
 10 28  1  0  0  0  0
 10 29  1  0  0  0  0
 11 12  1  0  0  0  0
 11 30  1  0  0  0  0
 11 31  1  0  0  0  0
 12 33  1  0  0  0  0
 12 34  1  0  0  0  0
 12 35  1  0  0  0  0
 13 14  1  0  0  0  0
 14 15  2  0  0  0  0
 14 16  1  0  0  0  0
 15 17  1  0  0  0  0
 16 18  2  0  0  0  0
 16 36  1  0  0  0  0
 17 19  2  0  0  0  0
 17 37  1  0  0  0  0
 18 19  1  0  0  0  0
 19 38  1  0  0  0  0
 20 39  1  0  0  0  0
 20 40  1  0  0  0  0
 20 41  1  0  0  0  0
M  END
> <PUBCHEM_COMPOUND_CID>
14762912

> <PUBCHEM_COMPOUND_CANONICALIZED>
1

> <PUBCHEM_CACTVS_COMPLEXITY>
327

> <PUBCHEM_CACTVS_HBOND_ACCEPTOR>
3

> <PUBCHEM_CACTVS_HBOND_DONOR>
1

> <PUBCHEM_CACTVS_ROTATABLE_BOND>
5

> <PUBCHEM_CACTVS_SUBSKEYS>
AAADceBzMAAAEAAAAAAAAAAAAAAAAWAAAAAwAAAAAAAAAAABAAAAHgBQAAABrCzBmAYyBoPABACIAiFSEACCCAAkIAQIiIEODOgMZjaEtRuUMWhm9hGIq5eYyCCOABAAEAAIAAAAIAAgABAAAAAAAAAAAA==

> <PUBCHEM_IUPAC_OPENEYE_NAME>
5-bromo-N-[[(2S)-1-ethylpyrrolidin-2-yl]methyl]-2-methoxy-benzamide

> <PUBCHEM_IUPAC_CAS_NAME>
5-bromo-N-[[(2S)-1-ethyl-2-pyrrolidinyl]methyl]-2-methoxybenzamide

> <PUBCHEM_IUPAC_NAME_MARKUP>
5-bromo-<I>N</I>-[[(2<I>S</I>)-1-ethylpyrrolidin-2-yl]methyl]-2-methoxybenzamide

> <PUBCHEM_IUPAC_NAME>
5-bromo-N-[[(2S)-1-ethylpyrrolidin-2-yl]methyl]-2-methoxybenzamide

> <PUBCHEM_IUPAC_SYSTEMATIC_NAME>
5-bromanyl-N-[[(2S)-1-ethylpyrrolidin-2-yl]methyl]-2-methoxy-benzamide

> <PUBCHEM_IUPAC_TRADITIONAL_NAME>
5-bromo-N-[[(2S)-1-ethylpyrrolidin-2-yl]methyl]-2-methoxy-benzamide

> <PUBCHEM_IUPAC_INCHI>
InChI=1S/C15H21BrN2O2/c1-3-18-8-4-5-12(18)10-17-15(19)13-9-11(16)6-7-14(13)20-2/h6-7,9,12H,3-5,8,10H2,1-2H3,(H,17,19)/t12-/m0/s1

> <PUBCHEM_IUPAC_INCHIKEY>
QQORREJGDAZEMQ-LBPRGKRZSA-N

> <PUBCHEM_XLOGP3>
2.7

> <PUBCHEM_EXACT_MASS>
340.07864

> <PUBCHEM_MOLECULAR_FORMULA>
C15H21BrN2O2

> <PUBCHEM_MOLECULAR_WEIGHT>
341.24

> <PUBCHEM_OPENEYE_CAN_SMILES>
CCN1CCCC1CNC(=O)C2=C(C=CC(=C2)Br)OC

> <PUBCHEM_OPENEYE_ISO_SMILES>
CCN1CCC[C@H]1CNC(=O)C2=C(C=CC(=C2)Br)OC

> <PUBCHEM_CACTVS_TPSA>
41.6

> <PUBCHEM_MONOISOTOPIC_WEIGHT>
340.07864

> <PUBCHEM_TOTAL_CHARGE>
0

> <PUBCHEM_HEAVY_ATOM_COUNT>
20

> <PUBCHEM_ATOM_DEF_STEREO_COUNT>
1

> <PUBCHEM_ATOM_UDEF_STEREO_COUNT>
0

> <PUBCHEM_BOND_DEF_STEREO_COUNT>
0

> <PUBCHEM_BOND_UDEF_STEREO_COUNT>
0

> <PUBCHEM_ISOTOPIC_ATOM_COUNT>
0

> <PUBCHEM_COMPONENT_COUNT>
1

> <PUBCHEM_CACTVS_TAUTO_COUNT>
-1

> <PUBCHEM_COORDINATE_TYPE>
1
5
255

> <PUBCHEM_BONDANNOTATIONS>
14  15  8
14  16  8
15  17  8
16  18  8
17  19  8
18  19  8
6  10  5

$$$$
