12050200
  -OEChem-09292322512D

 51 54  0     0  0  0  0  0  0999 V2000
    4.9641    3.2536    0.0000 S   0  0  0  0  0  0  0  0  0  0  0  0
    4.5981   -2.7852    0.0000 N   0  0  0  0  0  0  0  0  0  0  0  0
    4.5981    0.2148    0.0000 N   0  0  0  0  0  0  0  0  0  0  0  0
    6.2731    2.3026    0.0000 N   0  0  0  0  0  0  0  0  0  0  0  0
    4.5981   -0.7852    0.0000 C   0  0  0  0  0  0  0  0  0  0  0  0
    3.7320   -1.2852    0.0000 C   0  0  0  0  0  0  0  0  0  0  0  0
    5.4641   -1.2852    0.0000 C   0  0  0  0  0  0  0  0  0  0  0  0
    3.7320   -2.2852    0.0000 C   0  0  0  0  0  0  0  0  0  0  0  0
    5.4641   -2.2852    0.0000 C   0  0  0  0  0  0  0  0  0  0  0  0
    4.5981   -3.7852    0.0000 C   0  0  0  0  0  0  0  0  0  0  0  0
    5.4641    0.7148    0.0000 C   0  0  0  0  0  0  0  0  0  0  0  0
    3.7320   -4.2852    0.0000 C   0  0  0  0  0  0  0  0  0  0  0  0
    5.4641    1.7148    0.0000 C   0  0  0  0  0  0  0  0  0  0  0  0
    3.7320   -5.2852    0.0000 C   0  0  0  0  0  0  0  0  0  0  0  0
    2.8660   -3.7852    0.0000 C   0  0  0  0  0  0  0  0  0  0  0  0
    4.6551    2.3026    0.0000 C   0  0  0  0  0  0  0  0  0  0  0  0
    2.8660   -5.7852    0.0000 C   0  0  0  0  0  0  0  0  0  0  0  0
    2.0000   -4.2852    0.0000 C   0  0  0  0  0  0  0  0  0  0  0  0
    5.9641    3.2536    0.0000 C   0  0  0  0  0  0  0  0  0  0  0  0
    2.0000   -5.2852    0.0000 C   0  0  0  0  0  0  0  0  0  0  0  0
    6.5519    4.0626    0.0000 C   0  0  0  0  0  0  0  0  0  0  0  0
    7.5464    3.9581    0.0000 C   0  0  0  0  0  0  0  0  0  0  0  0
    6.1452    4.9762    0.0000 C   0  0  0  0  0  0  0  0  0  0  0  0
    8.1342    4.7671    0.0000 C   0  0  0  0  0  0  0  0  0  0  0  0
    6.7329    5.7852    0.0000 C   0  0  0  0  0  0  0  0  0  0  0  0
    7.7275    5.6807    0.0000 C   0  0  0  0  0  0  0  0  0  0  0  0
    5.1350   -0.4752    0.0000 H   0  0  0  0  0  0  0  0  0  0  0  0
    3.5200   -0.7026    0.0000 H   0  0  0  0  0  0  0  0  0  0  0  0
    3.1215   -1.3929    0.0000 H   0  0  0  0  0  0  0  0  0  0  0  0
    6.0747   -1.3929    0.0000 H   0  0  0  0  0  0  0  0  0  0  0  0
    5.6762   -0.7026    0.0000 H   0  0  0  0  0  0  0  0  0  0  0  0
    3.1215   -2.1776    0.0000 H   0  0  0  0  0  0  0  0  0  0  0  0
    3.5200   -2.8678    0.0000 H   0  0  0  0  0  0  0  0  0  0  0  0
    5.6762   -2.8678    0.0000 H   0  0  0  0  0  0  0  0  0  0  0  0
    6.0747   -2.1776    0.0000 H   0  0  0  0  0  0  0  0  0  0  0  0
    4.0611    0.5248    0.0000 H   0  0  0  0  0  0  0  0  0  0  0  0
    4.8101   -4.3678    0.0000 H   0  0  0  0  0  0  0  0  0  0  0  0
    5.2087   -3.6776    0.0000 H   0  0  0  0  0  0  0  0  0  0  0  0
    5.6762    0.1322    0.0000 H   0  0  0  0  0  0  0  0  0  0  0  0
    6.0747    0.8225    0.0000 H   0  0  0  0  0  0  0  0  0  0  0  0
    4.2690   -5.5952    0.0000 H   0  0  0  0  0  0  0  0  0  0  0  0
    2.8660   -3.1652    0.0000 H   0  0  0  0  0  0  0  0  0  0  0  0
    4.0654    2.1110    0.0000 H   0  0  0  0  0  0  0  0  0  0  0  0
    2.8660   -6.4052    0.0000 H   0  0  0  0  0  0  0  0  0  0  0  0
    1.4631   -3.9752    0.0000 H   0  0  0  0  0  0  0  0  0  0  0  0
    1.4631   -5.5952    0.0000 H   0  0  0  0  0  0  0  0  0  0  0  0
    7.7986    3.3917    0.0000 H   0  0  0  0  0  0  0  0  0  0  0  0
    5.5286    5.0410    0.0000 H   0  0  0  0  0  0  0  0  0  0  0  0
    8.7508    4.7023    0.0000 H   0  0  0  0  0  0  0  0  0  0  0  0
    6.4808    6.3516    0.0000 H   0  0  0  0  0  0  0  0  0  0  0  0
    8.0919    6.1823    0.0000 H   0  0  0  0  0  0  0  0  0  0  0  0
  1 16  1  0  0  0  0
  1 19  1  0  0  0  0
  2  8  1  0  0  0  0
  2  9  1  0  0  0  0
  2 10  1  0  0  0  0
  3  5  1  0  0  0  0
  3 11  1  0  0  0  0
  3 36  1  0  0  0  0
  4 13  1  0  0  0  0
  4 19  2  0  0  0  0
  5  6  1  0  0  0  0
  5  7  1  0  0  0  0
  5 27  1  0  0  0  0
  6  8  1  0  0  0  0
  6 28  1  0  0  0  0
  6 29  1  0  0  0  0
  7  9  1  0  0  0  0
  7 30  1  0  0  0  0
  7 31  1  0  0  0  0
  8 32  1  0  0  0  0
  8 33  1  0  0  0  0
  9 34  1  0  0  0  0
  9 35  1  0  0  0  0
 10 12  1  0  0  0  0
 10 37  1  0  0  0  0
 10 38  1  0  0  0  0
 11 13  1  0  0  0  0
 11 39  1  0  0  0  0
 11 40  1  0  0  0  0
 12 14  2  0  0  0  0
 12 15  1  0  0  0  0
 13 16  2  0  0  0  0
 14 17  1  0  0  0  0
 14 41  1  0  0  0  0
 15 18  2  0  0  0  0
 15 42  1  0  0  0  0
 16 43  1  0  0  0  0
 17 20  2  0  0  0  0
 17 44  1  0  0  0  0
 18 20  1  0  0  0  0
 18 45  1  0  0  0  0
 19 21  1  0  0  0  0
 20 46  1  0  0  0  0
 21 22  2  0  0  0  0
 21 23  1  0  0  0  0
 22 24  1  0  0  0  0
 22 47  1  0  0  0  0
 23 25  2  0  0  0  0
 23 48  1  0  0  0  0
 24 26  2  0  0  0  0
 24 49  1  0  0  0  0
 25 26  1  0  0  0  0
 25 50  1  0  0  0  0
 26 51  1  0  0  0  0
M  END
> <PUBCHEM_COMPOUND_CID>
12050200

> <PUBCHEM_COMPOUND_CANONICALIZED>
1

> <PUBCHEM_CACTVS_COMPLEXITY>
398

> <PUBCHEM_CACTVS_HBOND_ACCEPTOR>
4

> <PUBCHEM_CACTVS_HBOND_DONOR>
1

> <PUBCHEM_CACTVS_ROTATABLE_BOND>
6

> <PUBCHEM_CACTVS_SUBSKEYS>
AAADceB7AABAAAAAAAAAAAAAAAAAAWAAAAA8YIAAAAAAAAAB0AAAHAQQAAAADCjFXgSwgZPIEAikAyRiRACC8KBhCjgIiLQ4JJgIYKKg0RGUIAhgkACoiAcQgAAOAAAAAAAAAAAAAAAAAAAAAAAAAAAAAA==

> <PUBCHEM_IUPAC_OPENEYE_NAME>
1-benzyl-N-[(2-phenylthiazol-4-yl)methyl]piperidin-4-amine

> <PUBCHEM_IUPAC_CAS_NAME>
1-(phenylmethyl)-N-[(2-phenyl-4-thiazolyl)methyl]-4-piperidinamine

> <PUBCHEM_IUPAC_NAME_MARKUP>
1-benzyl-<I>N</I>-[(2-phenyl-1,3-thiazol-4-yl)methyl]piperidin-4-amine

> <PUBCHEM_IUPAC_NAME>
1-benzyl-N-[(2-phenyl-1,3-thiazol-4-yl)methyl]piperidin-4-amine

> <PUBCHEM_IUPAC_SYSTEMATIC_NAME>
1-(phenylmethyl)-N-[(2-phenyl-1,3-thiazol-4-yl)methyl]piperidin-4-amine

> <PUBCHEM_IUPAC_TRADITIONAL_NAME>
(1-benzyl-4-piperidyl)-[(2-phenylthiazol-4-yl)methyl]amine

> <PUBCHEM_IUPAC_INCHI>
InChI=1S/C22H25N3S/c1-3-7-18(8-4-1)16-25-13-11-20(12-14-25)23-15-21-17-26-22(24-21)19-9-5-2-6-10-19/h1-10,17,20,23H,11-16H2

> <PUBCHEM_IUPAC_INCHIKEY>
LDOTVWGSWWUMAW-UHFFFAOYSA-N

> <PUBCHEM_XLOGP3_AA>
4.1

> <PUBCHEM_EXACT_MASS>
363.17691898

> <PUBCHEM_MOLECULAR_FORMULA>
C22H25N3S

> <PUBCHEM_MOLECULAR_WEIGHT>
363.5

> <PUBCHEM_OPENEYE_CAN_SMILES>
C1CN(CCC1NCC2=CSC(=N2)C3=CC=CC=C3)CC4=CC=CC=C4

> <PUBCHEM_OPENEYE_ISO_SMILES>
C1CN(CCC1NCC2=CSC(=N2)C3=CC=CC=C3)CC4=CC=CC=C4

> <PUBCHEM_CACTVS_TPSA>
56.4

> <PUBCHEM_MONOISOTOPIC_WEIGHT>
363.17691898

> <PUBCHEM_TOTAL_CHARGE>
0

> <PUBCHEM_HEAVY_ATOM_COUNT>
26

> <PUBCHEM_ATOM_DEF_STEREO_COUNT>
0

> <PUBCHEM_ATOM_UDEF_STEREO_COUNT>
0

> <PUBCHEM_BOND_DEF_STEREO_COUNT>
0

> <PUBCHEM_BOND_UDEF_STEREO_COUNT>
0

> <PUBCHEM_ISOTOPIC_ATOM_COUNT>
0

> <PUBCHEM_COMPONENT_COUNT>
1

> <PUBCHEM_CACTVS_TAUTO_COUNT>
-1

> <PUBCHEM_COORDINATE_TYPE>
1
5
255

> <PUBCHEM_BONDANNOTATIONS>
1  16  8
1  19  8
12  14  8
12  15  8
13  16  8
14  17  8
15  18  8
17  20  8
18  20  8
21  22  8
21  23  8
22  24  8
23  25  8
24  26  8
25  26  8
4  13  8
4  19  8

$$$$
