11243002
  -OEChem-09292322072D

 44 46  0     1  0  0  0  0  0999 V2000
    5.3147   -1.8988    0.0000 O   0  0  0  0  0  0  0  0  0  0  0  0
    3.5827   -0.8988    0.0000 N   0  0  0  0  0  0  0  0  0  0  0  0
    4.4487   -0.3988    0.0000 C   0  0  3  0  0  0  0  0  0  0  0  0
    2.6691   -0.4920    0.0000 C   0  0  0  0  0  0  0  0  0  0  0  0
    3.4782   -1.8933    0.0000 C   0  0  0  0  0  0  0  0  0  0  0  0
    2.0000   -1.2352    0.0000 C   0  0  0  0  0  0  0  0  0  0  0  0
    2.5000   -2.1012    0.0000 C   0  0  0  0  0  0  0  0  0  0  0  0
    4.4487    0.6012    0.0000 C   0  0  0  0  0  0  0  0  0  0  0  0
    5.3147   -0.8988    0.0000 C   0  0  0  0  0  0  0  0  0  0  0  0
    3.5827    1.1012    0.0000 C   0  0  0  0  0  0  0  0  0  0  0  0
    6.1808   -0.3988    0.0000 C   0  0  0  0  0  0  0  0  0  0  0  0
    3.5827    2.1012    0.0000 C   0  0  0  0  0  0  0  0  0  0  0  0
    7.0468   -0.8988    0.0000 C   0  0  0  0  0  0  0  0  0  0  0  0
    6.1808    0.6012    0.0000 C   0  0  0  0  0  0  0  0  0  0  0  0
    7.9128   -0.3988    0.0000 C   0  0  0  0  0  0  0  0  0  0  0  0
    7.9128    0.6012    0.0000 C   0  0  0  0  0  0  0  0  0  0  0  0
    7.0468    1.1012    0.0000 C   0  0  0  0  0  0  0  0  0  0  0  0
    8.8067   -0.9334    0.0000 C   0  0  0  0  0  0  0  0  0  0  0  0
    8.8067    1.1359    0.0000 C   0  0  0  0  0  0  0  0  0  0  0  0
    9.7128   -0.4196    0.0000 C   0  0  0  0  0  0  0  0  0  0  0  0
    9.7128    0.6220    0.0000 C   0  0  0  0  0  0  0  0  0  0  0  0
    3.9118   -0.0888    0.0000 H   0  0  0  0  0  0  0  0  0  0  0  0
    2.9791    0.0449    0.0000 H   0  0  0  0  0  0  0  0  0  0  0  0
    2.1675   -0.1276    0.0000 H   0  0  0  0  0  0  0  0  0  0  0  0
    3.5430   -2.5099    0.0000 H   0  0  0  0  0  0  0  0  0  0  0  0
    4.0982   -1.8933    0.0000 H   0  0  0  0  0  0  0  0  0  0  0  0
    1.5851   -0.7744    0.0000 H   0  0  0  0  0  0  0  0  0  0  0  0
    1.4984   -1.5996    0.0000 H   0  0  0  0  0  0  0  0  0  0  0  0
    1.9336   -2.3534    0.0000 H   0  0  0  0  0  0  0  0  0  0  0  0
    2.6916   -2.6909    0.0000 H   0  0  0  0  0  0  0  0  0  0  0  0
    5.0593    0.4936    0.0000 H   0  0  0  0  0  0  0  0  0  0  0  0
    4.6608    1.1838    0.0000 H   0  0  0  0  0  0  0  0  0  0  0  0
    2.9721    1.2089    0.0000 H   0  0  0  0  0  0  0  0  0  0  0  0
    3.3706    0.5186    0.0000 H   0  0  0  0  0  0  0  0  0  0  0  0
    4.2027    2.1012    0.0000 H   0  0  0  0  0  0  0  0  0  0  0  0
    3.5827    2.7212    0.0000 H   0  0  0  0  0  0  0  0  0  0  0  0
    2.9627    2.1012    0.0000 H   0  0  0  0  0  0  0  0  0  0  0  0
    7.0468   -1.5188    0.0000 H   0  0  0  0  0  0  0  0  0  0  0  0
    5.6438    0.9112    0.0000 H   0  0  0  0  0  0  0  0  0  0  0  0
    7.0468    1.7212    0.0000 H   0  0  0  0  0  0  0  0  0  0  0  0
    8.7996   -1.5534    0.0000 H   0  0  0  0  0  0  0  0  0  0  0  0
    8.7996    1.7558    0.0000 H   0  0  0  0  0  0  0  0  0  0  0  0
   10.2485   -0.7317    0.0000 H   0  0  0  0  0  0  0  0  0  0  0  0
   10.2485    0.9341    0.0000 H   0  0  0  0  0  0  0  0  0  0  0  0
  1  9  2  0  0  0  0
  2  3  1  0  0  0  0
  2  4  1  0  0  0  0
  2  5  1  0  0  0  0
  3  8  1  0  0  0  0
  3  9  1  0  0  0  0
  3 22  1  0  0  0  0
  4  6  1  0  0  0  0
  4 23  1  0  0  0  0
  4 24  1  0  0  0  0
  5  7  1  0  0  0  0
  5 25  1  0  0  0  0
  5 26  1  0  0  0  0
  6  7  1  0  0  0  0
  6 27  1  0  0  0  0
  6 28  1  0  0  0  0
  7 29  1  0  0  0  0
  7 30  1  0  0  0  0
  8 10  1  0  0  0  0
  8 31  1  0  0  0  0
  8 32  1  0  0  0  0
  9 11  1  0  0  0  0
 10 12  1  0  0  0  0
 10 33  1  0  0  0  0
 10 34  1  0  0  0  0
 11 13  2  0  0  0  0
 11 14  1  0  0  0  0
 12 35  1  0  0  0  0
 12 36  1  0  0  0  0
 12 37  1  0  0  0  0
 13 15  1  0  0  0  0
 13 38  1  0  0  0  0
 14 17  2  0  0  0  0
 14 39  1  0  0  0  0
 15 16  1  0  0  0  0
 15 18  2  0  0  0  0
 16 17  1  0  0  0  0
 16 19  2  0  0  0  0
 17 40  1  0  0  0  0
 18 20  1  0  0  0  0
 18 41  1  0  0  0  0
 19 21  1  0  0  0  0
 19 42  1  0  0  0  0
 20 21  2  0  0  0  0
 20 43  1  0  0  0  0
 21 44  1  0  0  0  0
M  END
> <PUBCHEM_COMPOUND_CID>
11243002

> <PUBCHEM_COMPOUND_CANONICALIZED>
1

> <PUBCHEM_CACTVS_COMPLEXITY>
348

> <PUBCHEM_CACTVS_HBOND_ACCEPTOR>
2

> <PUBCHEM_CACTVS_HBOND_DONOR>
0

> <PUBCHEM_CACTVS_ROTATABLE_BOND>
5

> <PUBCHEM_CACTVS_SUBSKEYS>
AAADceB6IAAAAAAAAAAAAAAAAAAAAWAAAAAwYAAAAAAAAADBUAAAHgAAAAAADCzBmAQyAMMAAACIAqBSAAACAAAkAAAIiAGIAMgIIDKAlTGEIQAggACIiYcYiMCOwAACAAAQAACAAAQAACAAAAAAAAAAAA==

> <PUBCHEM_IUPAC_OPENEYE_NAME>
1-(2-naphthyl)-2-pyrrolidin-1-yl-pentan-1-one

> <PUBCHEM_IUPAC_CAS_NAME>
1-(2-naphthalenyl)-2-(1-pyrrolidinyl)-1-pentanone

> <PUBCHEM_IUPAC_NAME_MARKUP>
1-naphthalen-2-yl-2-pyrrolidin-1-ylpentan-1-one

> <PUBCHEM_IUPAC_NAME>
1-naphthalen-2-yl-2-pyrrolidin-1-ylpentan-1-one

> <PUBCHEM_IUPAC_SYSTEMATIC_NAME>
1-naphthalen-2-yl-2-pyrrolidin-1-yl-pentan-1-one

> <PUBCHEM_IUPAC_TRADITIONAL_NAME>
1-(2-naphthyl)-2-pyrrolidino-pentan-1-one

> <PUBCHEM_IUPAC_INCHI>
InChI=1S/C19H23NO/c1-2-7-18(20-12-5-6-13-20)19(21)17-11-10-15-8-3-4-9-16(15)14-17/h3-4,8-11,14,18H,2,5-7,12-13H2,1H3

> <PUBCHEM_IUPAC_INCHIKEY>
DTNUPBSOODGRKW-UHFFFAOYSA-N

> <PUBCHEM_XLOGP3_AA>
4.7

> <PUBCHEM_EXACT_MASS>
281.177964357

> <PUBCHEM_MOLECULAR_FORMULA>
C19H23NO

> <PUBCHEM_MOLECULAR_WEIGHT>
281.4

> <PUBCHEM_OPENEYE_CAN_SMILES>
CCCC(C(=O)C1=CC2=CC=CC=C2C=C1)N3CCCC3

> <PUBCHEM_OPENEYE_ISO_SMILES>
CCCC(C(=O)C1=CC2=CC=CC=C2C=C1)N3CCCC3

> <PUBCHEM_CACTVS_TPSA>
20.3

> <PUBCHEM_MONOISOTOPIC_WEIGHT>
281.177964357

> <PUBCHEM_TOTAL_CHARGE>
0

> <PUBCHEM_HEAVY_ATOM_COUNT>
21

> <PUBCHEM_ATOM_DEF_STEREO_COUNT>
0

> <PUBCHEM_ATOM_UDEF_STEREO_COUNT>
1

> <PUBCHEM_BOND_DEF_STEREO_COUNT>
0

> <PUBCHEM_BOND_UDEF_STEREO_COUNT>
0

> <PUBCHEM_ISOTOPIC_ATOM_COUNT>
0

> <PUBCHEM_COMPONENT_COUNT>
1

> <PUBCHEM_CACTVS_TAUTO_COUNT>
2

> <PUBCHEM_COORDINATE_TYPE>
1
5
255

> <PUBCHEM_BONDANNOTATIONS>
11  13  8
11  14  8
13  15  8
14  17  8
15  16  8
15  18  8
16  17  8
16  19  8
18  20  8
19  21  8
20  21  8
3  8  3

$$$$
