156019543
  -OEChem-09292322422D

 67 71  0     0  0  0  0  0  0999 V2000
    3.7899    1.9090    0.0000 S   0  0  0  0  0  0  0  0  0  0  0  0
   14.3911   -0.7890    0.0000 S   0  0  0  0  0  0  0  0  0  0  0  0
   13.8911    0.0771    0.0000 O   0  0  0  0  0  0  0  0  0  0  0  0
   14.8911   -1.6550    0.0000 O   0  0  0  0  0  0  0  0  0  0  0  0
    7.4629   -0.7890    0.0000 N   0  0  0  0  0  0  0  0  0  0  0  0
    5.7308    0.2110    0.0000 N   0  0  0  0  0  0  0  0  0  0  0  0
    4.7617    1.6998    0.0000 N   0  0  0  0  0  0  0  0  0  0  0  0
   13.5251   -1.2890    0.0000 N   0  0  0  0  0  0  0  0  0  0  0  0
    7.4629    0.2110    0.0000 C   0  0  0  0  0  0  0  0  0  0  0  0
    6.5968   -1.2890    0.0000 C   0  0  0  0  0  0  0  0  0  0  0  0
    6.5968    0.7110    0.0000 C   0  0  0  0  0  0  0  0  0  0  0  0
    5.7308   -0.7890    0.0000 C   0  0  0  0  0  0  0  0  0  0  0  0
    8.3289   -1.2890    0.0000 C   0  0  0  0  0  0  0  0  0  0  0  0
    9.1949   -0.7890    0.0000 C   0  0  0  0  0  0  0  0  0  0  0  0
   10.0610   -1.2890    0.0000 C   0  0  0  0  0  0  0  0  0  0  0  0
   10.9270   -0.7890    0.0000 C   0  0  0  0  0  0  0  0  0  0  0  0
    4.8648    0.7110    0.0000 C   0  0  0  0  0  0  0  0  0  0  0  0
   11.7930   -1.2890    0.0000 C   0  0  0  0  0  0  0  0  0  0  0  0
    3.9570    0.3059    0.0000 C   0  0  0  0  0  0  0  0  0  0  0  0
   12.6590   -0.7890    0.0000 C   0  0  0  0  0  0  0  0  0  0  0  0
    3.2892    1.0502    0.0000 C   0  0  0  0  0  0  0  0  0  0  0  0
    3.6464   -0.6446    0.0000 C   0  0  0  0  0  0  0  0  0  0  0  0
    2.3107    0.8440    0.0000 C   0  0  0  0  0  0  0  0  0  0  0  0
    2.6678   -0.8508    0.0000 C   0  0  0  0  0  0  0  0  0  0  0  0
   15.2571   -0.2890    0.0000 C   0  0  0  0  0  0  0  0  0  0  0  0
    2.0000   -0.1065    0.0000 C   0  0  0  0  0  0  0  0  0  0  0  0
   16.1231   -0.7890    0.0000 C   0  0  0  0  0  0  0  0  0  0  0  0
   15.2571    0.7110    0.0000 C   0  0  0  0  0  0  0  0  0  0  0  0
   16.9892   -0.2890    0.0000 C   0  0  0  0  0  0  0  0  0  0  0  0
   16.9892    0.7110    0.0000 C   0  0  0  0  0  0  0  0  0  0  0  0
   16.1231    1.2110    0.0000 C   0  0  0  0  0  0  0  0  0  0  0  0
   17.8831   -0.8236    0.0000 C   0  0  0  0  0  0  0  0  0  0  0  0
   17.8831    1.2457    0.0000 C   0  0  0  0  0  0  0  0  0  0  0  0
   18.7892   -0.3098    0.0000 C   0  0  0  0  0  0  0  0  0  0  0  0
   18.7892    0.7319    0.0000 C   0  0  0  0  0  0  0  0  0  0  0  0
    8.0734    0.1034    0.0000 H   0  0  0  0  0  0  0  0  0  0  0  0
    7.6749    0.7936    0.0000 H   0  0  0  0  0  0  0  0  0  0  0  0
    6.1983   -1.7639    0.0000 H   0  0  0  0  0  0  0  0  0  0  0  0
    6.9954   -1.7639    0.0000 H   0  0  0  0  0  0  0  0  0  0  0  0
    6.9954    1.1860    0.0000 H   0  0  0  0  0  0  0  0  0  0  0  0
    6.1983    1.1860    0.0000 H   0  0  0  0  0  0  0  0  0  0  0  0
    5.1202   -0.6813    0.0000 H   0  0  0  0  0  0  0  0  0  0  0  0
    5.5188   -1.3716    0.0000 H   0  0  0  0  0  0  0  0  0  0  0  0
    7.9304   -1.7639    0.0000 H   0  0  0  0  0  0  0  0  0  0  0  0
    8.7274   -1.7639    0.0000 H   0  0  0  0  0  0  0  0  0  0  0  0
    9.5934   -0.3140    0.0000 H   0  0  0  0  0  0  0  0  0  0  0  0
    8.7964   -0.3140    0.0000 H   0  0  0  0  0  0  0  0  0  0  0  0
    9.6624   -1.7639    0.0000 H   0  0  0  0  0  0  0  0  0  0  0  0
   10.4595   -1.7639    0.0000 H   0  0  0  0  0  0  0  0  0  0  0  0
   11.3255   -0.3140    0.0000 H   0  0  0  0  0  0  0  0  0  0  0  0
   10.5284   -0.3140    0.0000 H   0  0  0  0  0  0  0  0  0  0  0  0
   11.3945   -1.7639    0.0000 H   0  0  0  0  0  0  0  0  0  0  0  0
   12.1915   -1.7639    0.0000 H   0  0  0  0  0  0  0  0  0  0  0  0
   13.0576   -0.3140    0.0000 H   0  0  0  0  0  0  0  0  0  0  0  0
   12.2605   -0.3140    0.0000 H   0  0  0  0  0  0  0  0  0  0  0  0
   13.5251   -1.9090    0.0000 H   0  0  0  0  0  0  0  0  0  0  0  0
    4.0604   -1.1061    0.0000 H   0  0  0  0  0  0  0  0  0  0  0  0
    1.8966    1.3055    0.0000 H   0  0  0  0  0  0  0  0  0  0  0  0
    2.4752   -1.4401    0.0000 H   0  0  0  0  0  0  0  0  0  0  0  0
    1.3933   -0.2344    0.0000 H   0  0  0  0  0  0  0  0  0  0  0  0
   16.1231   -1.4090    0.0000 H   0  0  0  0  0  0  0  0  0  0  0  0
   14.7202    1.0210    0.0000 H   0  0  0  0  0  0  0  0  0  0  0  0
   16.1231    1.8310    0.0000 H   0  0  0  0  0  0  0  0  0  0  0  0
   17.8759   -1.4436    0.0000 H   0  0  0  0  0  0  0  0  0  0  0  0
   17.8759    1.8657    0.0000 H   0  0  0  0  0  0  0  0  0  0  0  0
   19.3249   -0.6218    0.0000 H   0  0  0  0  0  0  0  0  0  0  0  0
   19.3249    1.0439    0.0000 H   0  0  0  0  0  0  0  0  0  0  0  0
  1  7  1  0  0  0  0
  1 21  1  0  0  0  0
  2  3  2  0  0  0  0
  2  4  2  0  0  0  0
  2  8  1  0  0  0  0
  2 25  1  0  0  0  0
  5  9  1  0  0  0  0
  5 10  1  0  0  0  0
  5 13  1  0  0  0  0
  6 11  1  0  0  0  0
  6 12  1  0  0  0  0
  6 17  1  0  0  0  0
  7 17  2  0  0  0  0
  8 20  1  0  0  0  0
  8 56  1  0  0  0  0
  9 11  1  0  0  0  0
  9 36  1  0  0  0  0
  9 37  1  0  0  0  0
 10 12  1  0  0  0  0
 10 38  1  0  0  0  0
 10 39  1  0  0  0  0
 11 40  1  0  0  0  0
 11 41  1  0  0  0  0
 12 42  1  0  0  0  0
 12 43  1  0  0  0  0
 13 14  1  0  0  0  0
 13 44  1  0  0  0  0
 13 45  1  0  0  0  0
 14 15  1  0  0  0  0
 14 46  1  0  0  0  0
 14 47  1  0  0  0  0
 15 16  1  0  0  0  0
 15 48  1  0  0  0  0
 15 49  1  0  0  0  0
 16 18  1  0  0  0  0
 16 50  1  0  0  0  0
 16 51  1  0  0  0  0
 17 19  1  0  0  0  0
 18 20  1  0  0  0  0
 18 52  1  0  0  0  0
 18 53  1  0  0  0  0
 19 21  1  0  0  0  0
 19 22  2  0  0  0  0
 20 54  1  0  0  0  0
 20 55  1  0  0  0  0
 21 23  2  0  0  0  0
 22 24  1  0  0  0  0
 22 57  1  0  0  0  0
 23 26  1  0  0  0  0
 23 58  1  0  0  0  0
 24 26  2  0  0  0  0
 24 59  1  0  0  0  0
 25 27  2  0  0  0  0
 25 28  1  0  0  0  0
 26 60  1  0  0  0  0
 27 29  1  0  0  0  0
 27 61  1  0  0  0  0
 28 31  2  0  0  0  0
 28 62  1  0  0  0  0
 29 30  1  0  0  0  0
 29 32  2  0  0  0  0
 30 31  1  0  0  0  0
 30 33  2  0  0  0  0
 31 63  1  0  0  0  0
 32 34  1  0  0  0  0
 32 64  1  0  0  0  0
 33 35  1  0  0  0  0
 33 65  1  0  0  0  0
 34 35  2  0  0  0  0
 34 66  1  0  0  0  0
 35 67  1  0  0  0  0
M  END
> <PUBCHEM_COMPOUND_CID>
156019543

> <PUBCHEM_COMPOUND_CANONICALIZED>
1

> <PUBCHEM_CACTVS_COMPLEXITY>
753

> <PUBCHEM_CACTVS_HBOND_ACCEPTOR>
7

> <PUBCHEM_CACTVS_HBOND_DONOR>
1

> <PUBCHEM_CACTVS_ROTATABLE_BOND>
10

> <PUBCHEM_CACTVS_SUBSKEYS>
AAADcfB7sABgAAAAAAAAAAAAAAAAAWAAAAA8YMEAAAAAAFjB9AAAHAQQQAAADADBWgQxsdNAAAKkAiJiYHDDABAhAABJmLgoRJiIYKLAmZGUIAxgkALIyAcQgIAOkAAAgAAUAAAgAAEAACgAAAAAAAAAAA==

> <PUBCHEM_IUPAC_OPENEYE_NAME>
N-[6-[4-(1,2-benzothiazol-3-yl)piperazin-1-yl]hexyl]naphthalene-2-sulfonamide

> <PUBCHEM_IUPAC_CAS_NAME>
N-[6-[4-(1,2-benzothiazol-3-yl)-1-piperazinyl]hexyl]-2-naphthalenesulfonamide

> <PUBCHEM_IUPAC_NAME_MARKUP>
<I>N</I>-[6-[4-(1,2-benzothiazol-3-yl)piperazin-1-yl]hexyl]naphthalene-2-sulfonamide

> <PUBCHEM_IUPAC_NAME>
N-[6-[4-(1,2-benzothiazol-3-yl)piperazin-1-yl]hexyl]naphthalene-2-sulfonamide

> <PUBCHEM_IUPAC_SYSTEMATIC_NAME>
N-[6-[4-(1,2-benzothiazol-3-yl)piperazin-1-yl]hexyl]naphthalene-2-sulfonamide

> <PUBCHEM_IUPAC_TRADITIONAL_NAME>
N-[6-[4-(1,2-benzothiazol-3-yl)piperazino]hexyl]naphthalene-2-sulfonamide

> <PUBCHEM_IUPAC_INCHI>
InChI=1S/C27H32N4O2S2/c32-35(33,24-14-13-22-9-3-4-10-23(22)21-24)28-15-7-1-2-8-16-30-17-19-31(20-18-30)27-25-11-5-6-12-26(25)34-29-27/h3-6,9-14,21,28H,1-2,7-8,15-20H2

> <PUBCHEM_IUPAC_INCHIKEY>
URZRGOOTISGVOW-UHFFFAOYSA-N

> <PUBCHEM_XLOGP3_AA>
5.9

> <PUBCHEM_EXACT_MASS>
508.19666862

> <PUBCHEM_MOLECULAR_FORMULA>
C27H32N4O2S2

> <PUBCHEM_MOLECULAR_WEIGHT>
508.7

> <PUBCHEM_OPENEYE_CAN_SMILES>
C1CN(CCN1CCCCCCNS(=O)(=O)C2=CC3=CC=CC=C3C=C2)C4=NSC5=CC=CC=C54

> <PUBCHEM_OPENEYE_ISO_SMILES>
C1CN(CCN1CCCCCCNS(=O)(=O)C2=CC3=CC=CC=C3C=C2)C4=NSC5=CC=CC=C54

> <PUBCHEM_CACTVS_TPSA>
102

> <PUBCHEM_MONOISOTOPIC_WEIGHT>
508.19666862

> <PUBCHEM_TOTAL_CHARGE>
0

> <PUBCHEM_HEAVY_ATOM_COUNT>
35

> <PUBCHEM_ATOM_DEF_STEREO_COUNT>
0

> <PUBCHEM_ATOM_UDEF_STEREO_COUNT>
0

> <PUBCHEM_BOND_DEF_STEREO_COUNT>
0

> <PUBCHEM_BOND_UDEF_STEREO_COUNT>
0

> <PUBCHEM_ISOTOPIC_ATOM_COUNT>
0

> <PUBCHEM_COMPONENT_COUNT>
1

> <PUBCHEM_CACTVS_TAUTO_COUNT>
-1

> <PUBCHEM_COORDINATE_TYPE>
1
5
255

> <PUBCHEM_BONDANNOTATIONS>
1  21  8
1  7  8
17  19  8
19  21  8
19  22  8
21  23  8
22  24  8
23  26  8
24  26  8
25  27  8
25  28  8
27  29  8
28  31  8
29  30  8
29  32  8
30  31  8
30  33  8
32  34  8
33  35  8
34  35  8
7  17  8

$$$$
