155538937
  -OEChem-09292322092D

 60 64  0     0  0  0  0  0  0999 V2000
    6.5443   -1.8047    0.0000 S   0  0  0  0  0  0  0  0  0  0  0  0
    3.0000    5.0000    0.0000 F   0  0  0  0  0  0  0  0  0  0  0  0
    2.0000    4.0000    0.0000 F   0  0  0  0  0  0  0  0  0  0  0  0
    4.0000    4.0000    0.0000 F   0  0  0  0  0  0  0  0  0  0  0  0
    3.0000   -5.0000    0.0000 O   0  0  0  0  0  0  0  0  0  0  0  0
    3.0000   -3.0000    0.0000 N   0  0  0  0  0  0  0  0  0  0  0  0
    4.7320   -2.0000    0.0000 N   0  0  0  0  0  0  0  0  0  0  0  0
    3.8660   -0.5000    0.0000 N   0  0  0  0  0  0  0  0  0  0  0  0
    4.7320    1.0000    0.0000 N   0  0  0  0  0  0  0  0  0  0  0  0
    6.8550    0.7553    0.0000 C   0  0  0  0  0  0  0  0  0  0  0  0
    7.8335    0.9615    0.0000 C   0  0  0  0  0  0  0  0  0  0  0  0
    6.1871    1.4996    0.0000 C   0  0  0  0  0  0  0  0  0  0  0  0
    8.1441    1.9120    0.0000 C   0  0  0  0  0  0  0  0  0  0  0  0
    6.4978    2.4501    0.0000 C   0  0  0  0  0  0  0  0  0  0  0  0
    7.4763    2.6563    0.0000 C   0  0  0  0  0  0  0  0  0  0  0  0
    6.5443   -0.1953    0.0000 C   0  0  0  0  0  0  0  0  0  0  0  0
    5.5981   -0.5000    0.0000 C   0  0  0  0  0  0  0  0  0  0  0  0
    7.1279   -1.0000    0.0000 C   0  0  0  0  0  0  0  0  0  0  0  0
    5.5981   -1.5000    0.0000 C   0  0  0  0  0  0  0  0  0  0  0  0
    4.7320    0.0000    0.0000 C   0  0  0  0  0  0  0  0  0  0  0  0
    3.0000   -2.0000    0.0000 C   0  0  0  0  0  0  0  0  0  0  0  0
    3.8660   -1.5000    0.0000 C   0  0  0  0  0  0  0  0  0  0  0  0
    3.8660   -3.5000    0.0000 C   0  0  0  0  0  0  0  0  0  0  0  0
    2.1340   -3.5000    0.0000 C   0  0  0  0  0  0  0  0  0  0  0  0
    3.8660   -4.5000    0.0000 C   0  0  0  0  0  0  0  0  0  0  0  0
    2.1340   -4.5000    0.0000 C   0  0  0  0  0  0  0  0  0  0  0  0
    3.8660    1.5000    0.0000 C   0  0  0  0  0  0  0  0  0  0  0  0
    3.8660    2.5000    0.0000 C   0  0  0  0  0  0  0  0  0  0  0  0
    3.0000    1.0000    0.0000 C   0  0  0  0  0  0  0  0  0  0  0  0
    3.0000    3.0000    0.0000 C   0  0  0  0  0  0  0  0  0  0  0  0
    2.1340    1.5000    0.0000 C   0  0  0  0  0  0  0  0  0  0  0  0
    2.1340    2.5000    0.0000 C   0  0  0  0  0  0  0  0  0  0  0  0
    3.0000    4.0000    0.0000 C   0  0  0  0  0  0  0  0  0  0  0  0
    7.2690    0.2938    0.0000 H   0  0  0  0  0  0  0  0  0  0  0  0
    7.8540    0.3418    0.0000 H   0  0  0  0  0  0  0  0  0  0  0  0
    8.4473    0.8741    0.0000 H   0  0  0  0  0  0  0  0  0  0  0  0
    5.6402    1.7916    0.0000 H   0  0  0  0  0  0  0  0  0  0  0  0
    5.8046    1.0116    0.0000 H   0  0  0  0  0  0  0  0  0  0  0  0
    8.6910    1.6200    0.0000 H   0  0  0  0  0  0  0  0  0  0  0  0
    8.5267    2.3999    0.0000 H   0  0  0  0  0  0  0  0  0  0  0  0
    6.4772    3.0697    0.0000 H   0  0  0  0  0  0  0  0  0  0  0  0
    5.8840    2.5374    0.0000 H   0  0  0  0  0  0  0  0  0  0  0  0
    8.0026    2.9839    0.0000 H   0  0  0  0  0  0  0  0  0  0  0  0
    7.2450    3.2316    0.0000 H   0  0  0  0  0  0  0  0  0  0  0  0
    7.7479   -1.0000    0.0000 H   0  0  0  0  0  0  0  0  0  0  0  0
    2.7880   -1.4174    0.0000 H   0  0  0  0  0  0  0  0  0  0  0  0
    2.3894   -2.1077    0.0000 H   0  0  0  0  0  0  0  0  0  0  0  0
    4.4766   -3.6077    0.0000 H   0  0  0  0  0  0  0  0  0  0  0  0
    4.0781   -2.9174    0.0000 H   0  0  0  0  0  0  0  0  0  0  0  0
    1.9219   -2.9174    0.0000 H   0  0  0  0  0  0  0  0  0  0  0  0
    1.5234   -3.6077    0.0000 H   0  0  0  0  0  0  0  0  0  0  0  0
    4.0781   -5.0826    0.0000 H   0  0  0  0  0  0  0  0  0  0  0  0
    4.4766   -4.3923    0.0000 H   0  0  0  0  0  0  0  0  0  0  0  0
    1.5234   -4.3923    0.0000 H   0  0  0  0  0  0  0  0  0  0  0  0
    1.9219   -5.0826    0.0000 H   0  0  0  0  0  0  0  0  0  0  0  0
    5.2690    1.3100    0.0000 H   0  0  0  0  0  0  0  0  0  0  0  0
    4.4030    2.8100    0.0000 H   0  0  0  0  0  0  0  0  0  0  0  0
    3.0000    0.3800    0.0000 H   0  0  0  0  0  0  0  0  0  0  0  0
    1.5970    1.1900    0.0000 H   0  0  0  0  0  0  0  0  0  0  0  0
    1.5970    2.8100    0.0000 H   0  0  0  0  0  0  0  0  0  0  0  0
  1 18  1  0  0  0  0
  1 19  1  0  0  0  0
  2 33  1  0  0  0  0
  3 33  1  0  0  0  0
  4 33  1  0  0  0  0
  5 25  1  0  0  0  0
  5 26  1  0  0  0  0
  6 21  1  0  0  0  0
  6 23  1  0  0  0  0
  6 24  1  0  0  0  0
  7 19  2  0  0  0  0
  7 22  1  0  0  0  0
  8 20  1  0  0  0  0
  8 22  2  0  0  0  0
  9 20  1  0  0  0  0
  9 27  1  0  0  0  0
  9 56  1  0  0  0  0
 10 11  1  0  0  0  0
 10 12  1  0  0  0  0
 10 16  1  0  0  0  0
 10 34  1  0  0  0  0
 11 13  1  0  0  0  0
 11 35  1  0  0  0  0
 11 36  1  0  0  0  0
 12 14  1  0  0  0  0
 12 37  1  0  0  0  0
 12 38  1  0  0  0  0
 13 15  1  0  0  0  0
 13 39  1  0  0  0  0
 13 40  1  0  0  0  0
 14 15  1  0  0  0  0
 14 41  1  0  0  0  0
 14 42  1  0  0  0  0
 15 43  1  0  0  0  0
 15 44  1  0  0  0  0
 16 17  1  0  0  0  0
 16 18  2  0  0  0  0
 17 19  1  0  0  0  0
 17 20  2  0  0  0  0
 18 45  1  0  0  0  0
 21 22  1  0  0  0  0
 21 46  1  0  0  0  0
 21 47  1  0  0  0  0
 23 25  1  0  0  0  0
 23 48  1  0  0  0  0
 23 49  1  0  0  0  0
 24 26  1  0  0  0  0
 24 50  1  0  0  0  0
 24 51  1  0  0  0  0
 25 52  1  0  0  0  0
 25 53  1  0  0  0  0
 26 54  1  0  0  0  0
 26 55  1  0  0  0  0
 27 28  1  0  0  0  0
 27 29  2  0  0  0  0
 28 30  2  0  0  0  0
 28 57  1  0  0  0  0
 29 31  1  0  0  0  0
 29 58  1  0  0  0  0
 30 32  1  0  0  0  0
 30 33  1  0  0  0  0
 31 32  2  0  0  0  0
 31 59  1  0  0  0  0
 32 60  1  0  0  0  0
M  END
> <PUBCHEM_COMPOUND_CID>
155538937

> <PUBCHEM_COMPOUND_CANONICALIZED>
1

> <PUBCHEM_CACTVS_COMPLEXITY>
629

> <PUBCHEM_CACTVS_HBOND_ACCEPTOR>
9

> <PUBCHEM_CACTVS_HBOND_DONOR>
1

> <PUBCHEM_CACTVS_ROTATABLE_BOND>
5

> <PUBCHEM_CACTVS_SUBSKEYS>
AAADceB7oYBAAAAAAAAAAAAAAAAAASAAAAA8eIEAAAAAAFgB/AAAHwQQAAAADQjl2xax8dfIFAikAiZiZACD0KlhCrgJmDA4ZJiKaGLg2dGXJAxokAL4yCcQgMAOgAAAQAAAAAAAAACAAAAAAAAAAAAAAA==

> <PUBCHEM_IUPAC_OPENEYE_NAME>
5-cyclohexyl-2-(morpholinomethyl)-N-[3-(trifluoromethyl)phenyl]thieno[2,3-d]pyrimidin-4-amine

> <PUBCHEM_IUPAC_CAS_NAME>
5-cyclohexyl-2-(4-morpholinylmethyl)-N-[3-(trifluoromethyl)phenyl]-4-thieno[2,3-d]pyrimidinamine

> <PUBCHEM_IUPAC_NAME_MARKUP>
5-cyclohexyl-2-(morpholin-4-ylmethyl)-<I>N</I>-[3-(trifluoromethyl)phenyl]thieno[2,3-d]pyrimidin-4-amine

> <PUBCHEM_IUPAC_NAME>
5-cyclohexyl-2-(morpholin-4-ylmethyl)-N-[3-(trifluoromethyl)phenyl]thieno[2,3-d]pyrimidin-4-amine

> <PUBCHEM_IUPAC_SYSTEMATIC_NAME>
5-cyclohexyl-2-(morpholin-4-ylmethyl)-N-[3-(trifluoromethyl)phenyl]thieno[2,3-d]pyrimidin-4-amine

> <PUBCHEM_IUPAC_TRADITIONAL_NAME>
[5-cyclohexyl-2-(morpholinomethyl)thieno[2,3-d]pyrimidin-4-yl]-[3-(trifluoromethyl)phenyl]amine

> <PUBCHEM_IUPAC_INCHI>
InChI=1S/C24H27F3N4OS/c25-24(26,27)17-7-4-8-18(13-17)28-22-21-19(16-5-2-1-3-6-16)15-33-23(21)30-20(29-22)14-31-9-11-32-12-10-31/h4,7-8,13,15-16H,1-3,5-6,9-12,14H2,(H,28,29,30)

> <PUBCHEM_IUPAC_INCHIKEY>
WVFNCIVHMSGAKC-UHFFFAOYSA-N

> <PUBCHEM_XLOGP3_AA>
6.3

> <PUBCHEM_EXACT_MASS>
476.18576716

> <PUBCHEM_MOLECULAR_FORMULA>
C24H27F3N4OS

> <PUBCHEM_MOLECULAR_WEIGHT>
476.6

> <PUBCHEM_OPENEYE_CAN_SMILES>
C1CCC(CC1)C2=CSC3=NC(=NC(=C23)NC4=CC=CC(=C4)C(F)(F)F)CN5CCOCC5

> <PUBCHEM_OPENEYE_ISO_SMILES>
C1CCC(CC1)C2=CSC3=NC(=NC(=C23)NC4=CC=CC(=C4)C(F)(F)F)CN5CCOCC5

> <PUBCHEM_CACTVS_TPSA>
78.5

> <PUBCHEM_MONOISOTOPIC_WEIGHT>
476.18576716

> <PUBCHEM_TOTAL_CHARGE>
0

> <PUBCHEM_HEAVY_ATOM_COUNT>
33

> <PUBCHEM_ATOM_DEF_STEREO_COUNT>
0

> <PUBCHEM_ATOM_UDEF_STEREO_COUNT>
0

> <PUBCHEM_BOND_DEF_STEREO_COUNT>
0

> <PUBCHEM_BOND_UDEF_STEREO_COUNT>
0

> <PUBCHEM_ISOTOPIC_ATOM_COUNT>
0

> <PUBCHEM_COMPONENT_COUNT>
1

> <PUBCHEM_CACTVS_TAUTO_COUNT>
-1

> <PUBCHEM_COORDINATE_TYPE>
1
5
255

> <PUBCHEM_BONDANNOTATIONS>
1  18  8
1  19  8
16  17  8
16  18  8
17  19  8
17  20  8
27  28  8
27  29  8
28  30  8
29  31  8
30  32  8
31  32  8
7  19  8
7  22  8
8  20  8
8  22  8

$$$$
