44443904
  -OEChem-09292322032D

 45 46  0     1  0  0  0  0  0999 V2000
    5.4641    2.3450    0.0000 O   0  0  0  0  0  0  0  0  0  0  0  0
    2.8660    4.8450    0.0000 O   0  0  0  0  0  0  0  0  0  0  0  0
    8.9282   -3.6550    0.0000 O   0  0  0  0  0  0  0  0  0  0  0  0
    5.4641    0.3450    0.0000 N   0  0  3  0  0  0  0  0  0  0  0  0
    7.1962   -3.6550    0.0000 N   0  0  0  0  0  0  0  0  0  0  0  0
    4.5981    0.8450    0.0000 C   0  0  0  0  0  0  0  0  0  0  0  0
    4.5981    1.8450    0.0000 C   0  0  3  0  0  0  0  0  0  0  0  0
    6.3301    0.8450    0.0000 C   0  0  0  0  0  0  0  0  0  0  0  0
    5.4641   -0.6550    0.0000 C   0  0  0  0  0  0  0  0  0  0  0  0
    6.3301    1.8450    0.0000 C   0  0  0  0  0  0  0  0  0  0  0  0
    6.3301   -1.1550    0.0000 C   0  0  0  0  0  0  0  0  0  0  0  0
    3.7320    2.3450    0.0000 C   0  0  0  0  0  0  0  0  0  0  0  0
    6.3301   -2.1550    0.0000 C   0  0  0  0  0  0  0  0  0  0  0  0
    7.1962   -2.6550    0.0000 C   0  0  0  0  0  0  0  0  0  0  0  0
    3.7320    3.3450    0.0000 C   0  0  0  0  0  0  0  0  0  0  0  0
    2.8660    1.8450    0.0000 C   0  0  0  0  0  0  0  0  0  0  0  0
    2.8660    3.8450    0.0000 C   0  0  0  0  0  0  0  0  0  0  0  0
    2.0000    2.3450    0.0000 C   0  0  0  0  0  0  0  0  0  0  0  0
    2.0000    3.3450    0.0000 C   0  0  0  0  0  0  0  0  0  0  0  0
    8.0622   -4.1550    0.0000 C   0  0  0  0  0  0  0  0  0  0  0  0
    8.0622   -5.1550    0.0000 C   0  0  0  0  0  0  0  0  0  0  0  0
    3.9875    0.9527    0.0000 H   0  0  0  0  0  0  0  0  0  0  0  0
    4.3860    0.2624    0.0000 H   0  0  0  0  0  0  0  0  0  0  0  0
    4.5981    2.4650    0.0000 H   0  0  0  0  0  0  0  0  0  0  0  0
    6.5422    0.2624    0.0000 H   0  0  0  0  0  0  0  0  0  0  0  0
    6.9407    0.9527    0.0000 H   0  0  0  0  0  0  0  0  0  0  0  0
    4.8535   -0.5473    0.0000 H   0  0  0  0  0  0  0  0  0  0  0  0
    5.2520   -1.2376    0.0000 H   0  0  0  0  0  0  0  0  0  0  0  0
    6.9407    1.7373    0.0000 H   0  0  0  0  0  0  0  0  0  0  0  0
    6.5422    2.4276    0.0000 H   0  0  0  0  0  0  0  0  0  0  0  0
    6.9407   -1.2627    0.0000 H   0  0  0  0  0  0  0  0  0  0  0  0
    6.5422   -0.5724    0.0000 H   0  0  0  0  0  0  0  0  0  0  0  0
    5.7196   -2.0473    0.0000 H   0  0  0  0  0  0  0  0  0  0  0  0
    6.1181   -2.7376    0.0000 H   0  0  0  0  0  0  0  0  0  0  0  0
    7.8067   -2.7627    0.0000 H   0  0  0  0  0  0  0  0  0  0  0  0
    7.4082   -2.0724    0.0000 H   0  0  0  0  0  0  0  0  0  0  0  0
    4.2690    3.6550    0.0000 H   0  0  0  0  0  0  0  0  0  0  0  0
    2.8660    1.2250    0.0000 H   0  0  0  0  0  0  0  0  0  0  0  0
    1.4631    2.0350    0.0000 H   0  0  0  0  0  0  0  0  0  0  0  0
    6.6592   -3.9650    0.0000 H   0  0  0  0  0  0  0  0  0  0  0  0
    1.4631    3.6550    0.0000 H   0  0  0  0  0  0  0  0  0  0  0  0
    2.3291    5.1550    0.0000 H   0  0  0  0  0  0  0  0  0  0  0  0
    7.4422   -5.1550    0.0000 H   0  0  0  0  0  0  0  0  0  0  0  0
    8.0622   -5.7750    0.0000 H   0  0  0  0  0  0  0  0  0  0  0  0
    8.6822   -5.1550    0.0000 H   0  0  0  0  0  0  0  0  0  0  0  0
  1  7  1  0  0  0  0
  1 10  1  0  0  0  0
  2 17  1  0  0  0  0
  2 42  1  0  0  0  0
  3 20  2  0  0  0  0
  4  6  1  0  0  0  0
  4  8  1  0  0  0  0
  4  9  1  0  0  0  0
  5 14  1  0  0  0  0
  5 20  1  0  0  0  0
  5 40  1  0  0  0  0
  6  7  1  0  0  0  0
  6 22  1  0  0  0  0
  6 23  1  0  0  0  0
  7 12  1  0  0  0  0
  7 24  1  0  0  0  0
  8 10  1  0  0  0  0
  8 25  1  0  0  0  0
  8 26  1  0  0  0  0
  9 11  1  0  0  0  0
  9 27  1  0  0  0  0
  9 28  1  0  0  0  0
 10 29  1  0  0  0  0
 10 30  1  0  0  0  0
 11 13  1  0  0  0  0
 11 31  1  0  0  0  0
 11 32  1  0  0  0  0
 12 15  2  0  0  0  0
 12 16  1  0  0  0  0
 13 14  1  0  0  0  0
 13 33  1  0  0  0  0
 13 34  1  0  0  0  0
 14 35  1  0  0  0  0
 14 36  1  0  0  0  0
 15 17  1  0  0  0  0
 15 37  1  0  0  0  0
 16 18  2  0  0  0  0
 16 38  1  0  0  0  0
 17 19  2  0  0  0  0
 18 19  1  0  0  0  0
 18 39  1  0  0  0  0
 19 41  1  0  0  0  0
 20 21  1  0  0  0  0
 21 43  1  0  0  0  0
 21 44  1  0  0  0  0
 21 45  1  0  0  0  0
M  END
> <PUBCHEM_COMPOUND_CID>
44443904

> <PUBCHEM_COMPOUND_CANONICALIZED>
1

> <PUBCHEM_CACTVS_COMPLEXITY>
325

> <PUBCHEM_CACTVS_HBOND_ACCEPTOR>
4

> <PUBCHEM_CACTVS_HBOND_DONOR>
2

> <PUBCHEM_CACTVS_ROTATABLE_BOND>
6

> <PUBCHEM_CACTVS_SUBSKEYS>
AAADceB7MAAAAAAAAAAAAAAAAAAAAAAAAAA8QAAAAAAAAAABAAAAHgAQCAAADBThmAYyBoPABgCIAiFSEAACAAAgIAAIiIAOCIgKJiKCsRuHcAAk1hGYuAfQ0LIOAAABAAAAAAAAAAIAAAAAAAAAAAAAAA==

> <PUBCHEM_IUPAC_OPENEYE_NAME>
N-[4-[2-(3-hydroxyphenyl)morpholin-4-yl]butyl]acetamide

> <PUBCHEM_IUPAC_CAS_NAME>
N-[4-[2-(3-hydroxyphenyl)-4-morpholinyl]butyl]acetamide

> <PUBCHEM_IUPAC_NAME_MARKUP>
<I>N</I>-[4-[2-(3-hydroxyphenyl)morpholin-4-yl]butyl]acetamide

> <PUBCHEM_IUPAC_NAME>
N-[4-[2-(3-hydroxyphenyl)morpholin-4-yl]butyl]acetamide

> <PUBCHEM_IUPAC_SYSTEMATIC_NAME>
N-[4-[2-(3-hydroxyphenyl)morpholin-4-yl]butyl]ethanamide

> <PUBCHEM_IUPAC_TRADITIONAL_NAME>
N-[4-[2-(3-hydroxyphenyl)morpholino]butyl]acetamide

> <PUBCHEM_IUPAC_INCHI>
InChI=1S/C16H24N2O3/c1-13(19)17-7-2-3-8-18-9-10-21-16(12-18)14-5-4-6-15(20)11-14/h4-6,11,16,20H,2-3,7-10,12H2,1H3,(H,17,19)

> <PUBCHEM_IUPAC_INCHIKEY>
LEKBVQSAVQSPEB-UHFFFAOYSA-N

> <PUBCHEM_XLOGP3>
1.5

> <PUBCHEM_EXACT_MASS>
292.17869263

> <PUBCHEM_MOLECULAR_FORMULA>
C16H24N2O3

> <PUBCHEM_MOLECULAR_WEIGHT>
292.37

> <PUBCHEM_OPENEYE_CAN_SMILES>
CC(=O)NCCCCN1CCOC(C1)C2=CC(=CC=C2)O

> <PUBCHEM_OPENEYE_ISO_SMILES>
CC(=O)NCCCCN1CCOC(C1)C2=CC(=CC=C2)O

> <PUBCHEM_CACTVS_TPSA>
61.8

> <PUBCHEM_MONOISOTOPIC_WEIGHT>
292.17869263

> <PUBCHEM_TOTAL_CHARGE>
0

> <PUBCHEM_HEAVY_ATOM_COUNT>
21

> <PUBCHEM_ATOM_DEF_STEREO_COUNT>
0

> <PUBCHEM_ATOM_UDEF_STEREO_COUNT>
1

> <PUBCHEM_BOND_DEF_STEREO_COUNT>
0

> <PUBCHEM_BOND_UDEF_STEREO_COUNT>
0

> <PUBCHEM_ISOTOPIC_ATOM_COUNT>
0

> <PUBCHEM_COMPONENT_COUNT>
1

> <PUBCHEM_CACTVS_TAUTO_COUNT>
-1

> <PUBCHEM_COORDINATE_TYPE>
1
5
255

> <PUBCHEM_BONDANNOTATIONS>
12  15  8
12  16  8
15  17  8
16  18  8
17  19  8
18  19  8
7  12  3

$$$$
