164608823
  -OEChem-09292322432D

 72 76  0     0  0  0  0  0  0999 V2000
    2.0000   -6.2736    0.0000 F   0  0  0  0  0  0  0  0  0  0  0  0
    5.5443   -6.0784    0.0000 O   0  0  0  0  0  0  0  0  0  0  0  0
    9.3653    1.6467    0.0000 O   0  0  0  0  0  0  0  0  0  0  0  0
    6.4763   -1.6173    0.0000 N   0  0  0  0  0  0  0  0  0  0  0  0
   13.5900    3.4221    0.0000 N   0  0  0  0  0  0  0  0  0  0  0  0
    6.1279   -5.2736    0.0000 N   0  0  0  0  0  0  0  0  0  0  0  0
   14.2113    5.3231    0.0000 N   0  0  0  0  0  0  0  0  0  0  0  0
    5.8550   -3.5184    0.0000 C   0  0  0  0  0  0  0  0  0  0  0  0
    6.8335   -3.3122    0.0000 C   0  0  0  0  0  0  0  0  0  0  0  0
    5.1871   -2.7741    0.0000 C   0  0  0  0  0  0  0  0  0  0  0  0
    7.1441   -2.3616    0.0000 C   0  0  0  0  0  0  0  0  0  0  0  0
    5.4978   -1.8236    0.0000 C   0  0  0  0  0  0  0  0  0  0  0  0
    6.7870   -0.6668    0.0000 C   0  0  0  0  0  0  0  0  0  0  0  0
    5.5443   -4.4689    0.0000 C   0  0  0  0  0  0  0  0  0  0  0  0
    7.7654   -0.4606    0.0000 C   0  0  0  0  0  0  0  0  0  0  0  0
    4.5981   -4.7736    0.0000 C   0  0  0  0  0  0  0  0  0  0  0  0
    8.0761    0.4899    0.0000 C   0  0  0  0  0  0  0  0  0  0  0  0
   14.5685    3.6283    0.0000 C   0  0  0  0  0  0  0  0  0  0  0  0
   12.9221    4.1664    0.0000 C   0  0  0  0  0  0  0  0  0  0  0  0
   14.8791    4.5788    0.0000 C   0  0  0  0  0  0  0  0  0  0  0  0
   13.2328    5.1169    0.0000 C   0  0  0  0  0  0  0  0  0  0  0  0
    4.5981   -5.7736    0.0000 C   0  0  0  0  0  0  0  0  0  0  0  0
   13.2793    2.4715    0.0000 C   0  0  0  0  0  0  0  0  0  0  0  0
    9.0546    0.6961    0.0000 C   0  0  0  0  0  0  0  0  0  0  0  0
    3.7320   -4.2736    0.0000 C   0  0  0  0  0  0  0  0  0  0  0  0
   12.3008    2.2653    0.0000 C   0  0  0  0  0  0  0  0  0  0  0  0
   14.5220    6.2736    0.0000 C   0  0  0  0  0  0  0  0  0  0  0  0
    3.7320   -6.2736    0.0000 C   0  0  0  0  0  0  0  0  0  0  0  0
    2.8660   -4.7736    0.0000 C   0  0  0  0  0  0  0  0  0  0  0  0
    2.8660   -5.7736    0.0000 C   0  0  0  0  0  0  0  0  0  0  0  0
   10.3438    1.8529    0.0000 C   0  0  0  0  0  0  0  0  0  0  0  0
   11.9901    1.3148    0.0000 C   0  0  0  0  0  0  0  0  0  0  0  0
   11.6330    3.0096    0.0000 C   0  0  0  0  0  0  0  0  0  0  0  0
   11.0116    1.1086    0.0000 C   0  0  0  0  0  0  0  0  0  0  0  0
   10.6545    2.8034    0.0000 C   0  0  0  0  0  0  0  0  0  0  0  0
    6.2690   -3.9798    0.0000 H   0  0  0  0  0  0  0  0  0  0  0  0
    6.8540   -3.9318    0.0000 H   0  0  0  0  0  0  0  0  0  0  0  0
    7.4473   -3.3995    0.0000 H   0  0  0  0  0  0  0  0  0  0  0  0
    4.6402   -2.4820    0.0000 H   0  0  0  0  0  0  0  0  0  0  0  0
    4.8046   -3.2620    0.0000 H   0  0  0  0  0  0  0  0  0  0  0  0
    7.6910   -2.6536    0.0000 H   0  0  0  0  0  0  0  0  0  0  0  0
    7.5267   -1.8737    0.0000 H   0  0  0  0  0  0  0  0  0  0  0  0
    5.4772   -1.2039    0.0000 H   0  0  0  0  0  0  0  0  0  0  0  0
    4.8840   -1.7362    0.0000 H   0  0  0  0  0  0  0  0  0  0  0  0
    6.7664   -0.0472    0.0000 H   0  0  0  0  0  0  0  0  0  0  0  0
    6.1731   -0.5795    0.0000 H   0  0  0  0  0  0  0  0  0  0  0  0
    7.7860   -1.0802    0.0000 H   0  0  0  0  0  0  0  0  0  0  0  0
    8.3793   -0.5479    0.0000 H   0  0  0  0  0  0  0  0  0  0  0  0
    8.0556    1.1096    0.0000 H   0  0  0  0  0  0  0  0  0  0  0  0
    7.4623    0.5773    0.0000 H   0  0  0  0  0  0  0  0  0  0  0  0
   14.5890    3.0086    0.0000 H   0  0  0  0  0  0  0  0  0  0  0  0
   15.1823    3.5409    0.0000 H   0  0  0  0  0  0  0  0  0  0  0  0
   12.3752    4.4584    0.0000 H   0  0  0  0  0  0  0  0  0  0  0  0
   12.5396    3.6785    0.0000 H   0  0  0  0  0  0  0  0  0  0  0  0
   15.4261    4.2868    0.0000 H   0  0  0  0  0  0  0  0  0  0  0  0
   15.2617    5.0667    0.0000 H   0  0  0  0  0  0  0  0  0  0  0  0
   13.2122    5.7365    0.0000 H   0  0  0  0  0  0  0  0  0  0  0  0
   12.6190    5.2042    0.0000 H   0  0  0  0  0  0  0  0  0  0  0  0
   13.2999    1.8519    0.0000 H   0  0  0  0  0  0  0  0  0  0  0  0
   13.8931    2.3842    0.0000 H   0  0  0  0  0  0  0  0  0  0  0  0
    9.0752    0.0765    0.0000 H   0  0  0  0  0  0  0  0  0  0  0  0
    9.6684    0.6088    0.0000 H   0  0  0  0  0  0  0  0  0  0  0  0
    3.7320   -3.6536    0.0000 H   0  0  0  0  0  0  0  0  0  0  0  0
   15.1113    6.0810    0.0000 H   0  0  0  0  0  0  0  0  0  0  0  0
   14.7146    6.8630    0.0000 H   0  0  0  0  0  0  0  0  0  0  0  0
   13.9326    6.4662    0.0000 H   0  0  0  0  0  0  0  0  0  0  0  0
    3.7320   -6.8936    0.0000 H   0  0  0  0  0  0  0  0  0  0  0  0
    2.3291   -4.4636    0.0000 H   0  0  0  0  0  0  0  0  0  0  0  0
   12.4042    0.8533    0.0000 H   0  0  0  0  0  0  0  0  0  0  0  0
   11.8256    3.5990    0.0000 H   0  0  0  0  0  0  0  0  0  0  0  0
   10.8190    0.5193    0.0000 H   0  0  0  0  0  0  0  0  0  0  0  0
   10.2404    3.2649    0.0000 H   0  0  0  0  0  0  0  0  0  0  0  0
  1 30  1  0  0  0  0
  2  6  1  0  0  0  0
  2 22  1  0  0  0  0
  3 24  1  0  0  0  0
  3 31  1  0  0  0  0
  4 11  1  0  0  0  0
  4 12  1  0  0  0  0
  4 13  1  0  0  0  0
  5 18  1  0  0  0  0
  5 19  1  0  0  0  0
  5 23  1  0  0  0  0
  6 14  2  0  0  0  0
  7 20  1  0  0  0  0
  7 21  1  0  0  0  0
  7 27  1  0  0  0  0
  8  9  1  0  0  0  0
  8 10  1  0  0  0  0
  8 14  1  0  0  0  0
  8 36  1  0  0  0  0
  9 11  1  0  0  0  0
  9 37  1  0  0  0  0
  9 38  1  0  0  0  0
 10 12  1  0  0  0  0
 10 39  1  0  0  0  0
 10 40  1  0  0  0  0
 11 41  1  0  0  0  0
 11 42  1  0  0  0  0
 12 43  1  0  0  0  0
 12 44  1  0  0  0  0
 13 15  1  0  0  0  0
 13 45  1  0  0  0  0
 13 46  1  0  0  0  0
 14 16  1  0  0  0  0
 15 17  1  0  0  0  0
 15 47  1  0  0  0  0
 15 48  1  0  0  0  0
 16 22  2  0  0  0  0
 16 25  1  0  0  0  0
 17 24  1  0  0  0  0
 17 49  1  0  0  0  0
 17 50  1  0  0  0  0
 18 20  1  0  0  0  0
 18 51  1  0  0  0  0
 18 52  1  0  0  0  0
 19 21  1  0  0  0  0
 19 53  1  0  0  0  0
 19 54  1  0  0  0  0
 20 55  1  0  0  0  0
 20 56  1  0  0  0  0
 21 57  1  0  0  0  0
 21 58  1  0  0  0  0
 22 28  1  0  0  0  0
 23 26  1  0  0  0  0
 23 59  1  0  0  0  0
 23 60  1  0  0  0  0
 24 61  1  0  0  0  0
 24 62  1  0  0  0  0
 25 29  2  0  0  0  0
 25 63  1  0  0  0  0
 26 32  2  0  0  0  0
 26 33  1  0  0  0  0
 27 64  1  0  0  0  0
 27 65  1  0  0  0  0
 27 66  1  0  0  0  0
 28 30  2  0  0  0  0
 28 67  1  0  0  0  0
 29 30  1  0  0  0  0
 29 68  1  0  0  0  0
 31 34  2  0  0  0  0
 31 35  1  0  0  0  0
 32 34  1  0  0  0  0
 32 69  1  0  0  0  0
 33 35  2  0  0  0  0
 33 70  1  0  0  0  0
 34 71  1  0  0  0  0
 35 72  1  0  0  0  0
M  END
> <PUBCHEM_COMPOUND_CID>
164608823

> <PUBCHEM_COMPOUND_CANONICALIZED>
1

> <PUBCHEM_CACTVS_COMPLEXITY>
618

> <PUBCHEM_CACTVS_HBOND_ACCEPTOR>
7

> <PUBCHEM_CACTVS_HBOND_DONOR>
0

> <PUBCHEM_CACTVS_ROTATABLE_BOND>
9

> <PUBCHEM_CACTVS_SUBSKEYS>
AAADcfB7sQAAAAAAAAAAAAAAAAAAAWAAAAA8eIEAAAAAAFgB9AAAHwAEAAAADQzhng4yhtMQBACpA6RyQgCCCAAkIAAomCE+TNoMZrqEtZuWOajmwBmI6ce42OKOIAAAAAAIAABAAAAAABAAAAAAAAAAAA==

> <PUBCHEM_IUPAC_OPENEYE_NAME>
6-fluoro-3-[1-[4-[4-[(4-methylpiperazin-1-yl)methyl]phenoxy]butyl]-4-piperidyl]-1,2-benzoxazole

> <PUBCHEM_IUPAC_CAS_NAME>
6-fluoro-3-[1-[4-[4-[(4-methyl-1-piperazinyl)methyl]phenoxy]butyl]-4-piperidinyl]-1,2-benzoxazole

> <PUBCHEM_IUPAC_NAME_MARKUP>
6-fluoro-3-[1-[4-[4-[(4-methylpiperazin-1-yl)methyl]phenoxy]butyl]piperidin-4-yl]-1,2-benzoxazole

> <PUBCHEM_IUPAC_NAME>
6-fluoro-3-[1-[4-[4-[(4-methylpiperazin-1-yl)methyl]phenoxy]butyl]piperidin-4-yl]-1,2-benzoxazole

> <PUBCHEM_IUPAC_SYSTEMATIC_NAME>
6-fluoranyl-3-[1-[4-[4-[(4-methylpiperazin-1-yl)methyl]phenoxy]butyl]piperidin-4-yl]-1,2-benzoxazole

> <PUBCHEM_IUPAC_TRADITIONAL_NAME>
6-fluoro-3-[1-[4-[4-[(4-methylpiperazino)methyl]phenoxy]butyl]-4-piperidyl]indoxazene

> <PUBCHEM_IUPAC_INCHI>
InChI=1S/C28H37FN4O2/c1-31-15-17-33(18-16-31)21-22-4-7-25(8-5-22)34-19-3-2-12-32-13-10-23(11-14-32)28-26-9-6-24(29)20-27(26)35-30-28/h4-9,20,23H,2-3,10-19,21H2,1H3

> <PUBCHEM_IUPAC_INCHIKEY>
NZDANPPRKVYGPL-UHFFFAOYSA-N

> <PUBCHEM_XLOGP3_AA>
4.4

> <PUBCHEM_EXACT_MASS>
480.29005460

> <PUBCHEM_MOLECULAR_FORMULA>
C28H37FN4O2

> <PUBCHEM_MOLECULAR_WEIGHT>
480.6

> <PUBCHEM_OPENEYE_CAN_SMILES>
CN1CCN(CC1)CC2=CC=C(C=C2)OCCCCN3CCC(CC3)C4=NOC5=C4C=CC(=C5)F

> <PUBCHEM_OPENEYE_ISO_SMILES>
CN1CCN(CC1)CC2=CC=C(C=C2)OCCCCN3CCC(CC3)C4=NOC5=C4C=CC(=C5)F

> <PUBCHEM_CACTVS_TPSA>
45

> <PUBCHEM_MONOISOTOPIC_WEIGHT>
480.29005460

> <PUBCHEM_TOTAL_CHARGE>
0

> <PUBCHEM_HEAVY_ATOM_COUNT>
35

> <PUBCHEM_ATOM_DEF_STEREO_COUNT>
0

> <PUBCHEM_ATOM_UDEF_STEREO_COUNT>
0

> <PUBCHEM_BOND_DEF_STEREO_COUNT>
0

> <PUBCHEM_BOND_UDEF_STEREO_COUNT>
0

> <PUBCHEM_ISOTOPIC_ATOM_COUNT>
0

> <PUBCHEM_COMPONENT_COUNT>
1

> <PUBCHEM_CACTVS_TAUTO_COUNT>
-1

> <PUBCHEM_COORDINATE_TYPE>
1
5
255

> <PUBCHEM_BONDANNOTATIONS>
14  16  8
16  22  8
16  25  8
2  22  8
2  6  8
22  28  8
25  29  8
26  32  8
26  33  8
28  30  8
29  30  8
31  34  8
31  35  8
32  34  8
33  35  8
6  14  8

$$$$
