155513265
  -OEChem-09292322462D

 60 63  0     0  0  0  0  0  0999 V2000
    4.9641    8.5194    0.0000 S   0  0  0  0  0  0  0  0  0  0  0  0
    6.3301    2.4806    0.0000 O   0  0  0  0  0  0  0  0  0  0  0  0
    2.8660   -1.5194    0.0000 N   0  0  0  0  0  0  0  0  0  0  0  0
    2.8660   -3.5194    0.0000 N   0  0  0  0  0  0  0  0  0  0  0  0
    4.5981    2.4806    0.0000 N   0  0  0  0  0  0  0  0  0  0  0  0
    2.8660   -8.5194    0.0000 N   0  0  0  0  0  0  0  0  0  0  0  0
    2.0000   -2.0194    0.0000 C   0  0  0  0  0  0  0  0  0  0  0  0
    3.7320   -2.0194    0.0000 C   0  0  0  0  0  0  0  0  0  0  0  0
    2.0000   -3.0194    0.0000 C   0  0  0  0  0  0  0  0  0  0  0  0
    3.7320   -3.0194    0.0000 C   0  0  0  0  0  0  0  0  0  0  0  0
    2.8660   -0.5194    0.0000 C   0  0  0  0  0  0  0  0  0  0  0  0
    3.7320   -0.0194    0.0000 C   0  0  0  0  0  0  0  0  0  0  0  0
    2.8660   -4.5194    0.0000 C   0  0  0  0  0  0  0  0  0  0  0  0
    3.7320    0.9806    0.0000 C   0  0  0  0  0  0  0  0  0  0  0  0
    4.5981    1.4806    0.0000 C   0  0  0  0  0  0  0  0  0  0  0  0
    3.7320   -5.0194    0.0000 C   0  0  0  0  0  0  0  0  0  0  0  0
    2.0000   -5.0194    0.0000 C   0  0  0  0  0  0  0  0  0  0  0  0
    3.7320   -6.0194    0.0000 C   0  0  0  0  0  0  0  0  0  0  0  0
    2.0000   -6.0194    0.0000 C   0  0  0  0  0  0  0  0  0  0  0  0
    2.8660   -6.5194    0.0000 C   0  0  0  0  0  0  0  0  0  0  0  0
    5.4641    2.9806    0.0000 C   0  0  0  0  0  0  0  0  0  0  0  0
    5.4641    3.9806    0.0000 C   0  0  0  0  0  0  0  0  0  0  0  0
    2.8660   -7.5194    0.0000 C   0  0  0  0  0  0  0  0  0  0  0  0
    6.3301    4.4806    0.0000 C   0  0  0  0  0  0  0  0  0  0  0  0
    4.5981    4.4806    0.0000 C   0  0  0  0  0  0  0  0  0  0  0  0
    5.4641    5.9806    0.0000 C   0  0  0  0  0  0  0  0  0  0  0  0
    6.3301    5.4806    0.0000 C   0  0  0  0  0  0  0  0  0  0  0  0
    4.5981    5.4806    0.0000 C   0  0  0  0  0  0  0  0  0  0  0  0
    5.4641    6.9806    0.0000 C   0  0  0  0  0  0  0  0  0  0  0  0
    6.2731    7.5684    0.0000 C   0  0  0  0  0  0  0  0  0  0  0  0
    4.6551    7.5684    0.0000 C   0  0  0  0  0  0  0  0  0  0  0  0
    5.9641    8.5194    0.0000 C   0  0  0  0  0  0  0  0  0  0  0  0
    1.7880   -1.4368    0.0000 H   0  0  0  0  0  0  0  0  0  0  0  0
    1.3894   -2.1271    0.0000 H   0  0  0  0  0  0  0  0  0  0  0  0
    4.3426   -2.1271    0.0000 H   0  0  0  0  0  0  0  0  0  0  0  0
    3.9441   -1.4368    0.0000 H   0  0  0  0  0  0  0  0  0  0  0  0
    1.3894   -2.9118    0.0000 H   0  0  0  0  0  0  0  0  0  0  0  0
    1.7880   -3.6020    0.0000 H   0  0  0  0  0  0  0  0  0  0  0  0
    3.9441   -3.6020    0.0000 H   0  0  0  0  0  0  0  0  0  0  0  0
    4.3426   -2.9118    0.0000 H   0  0  0  0  0  0  0  0  0  0  0  0
    2.6540    0.0632    0.0000 H   0  0  0  0  0  0  0  0  0  0  0  0
    2.2554   -0.6271    0.0000 H   0  0  0  0  0  0  0  0  0  0  0  0
    3.9441   -0.6020    0.0000 H   0  0  0  0  0  0  0  0  0  0  0  0
    4.3426    0.0882    0.0000 H   0  0  0  0  0  0  0  0  0  0  0  0
    3.5200    1.5632    0.0000 H   0  0  0  0  0  0  0  0  0  0  0  0
    3.1215    0.8729    0.0000 H   0  0  0  0  0  0  0  0  0  0  0  0
    4.8101    0.8980    0.0000 H   0  0  0  0  0  0  0  0  0  0  0  0
    5.2087    1.5882    0.0000 H   0  0  0  0  0  0  0  0  0  0  0  0
    4.2690   -4.7094    0.0000 H   0  0  0  0  0  0  0  0  0  0  0  0
    1.4631   -4.7094    0.0000 H   0  0  0  0  0  0  0  0  0  0  0  0
    4.0611    2.7906    0.0000 H   0  0  0  0  0  0  0  0  0  0  0  0
    4.2690   -6.3294    0.0000 H   0  0  0  0  0  0  0  0  0  0  0  0
    1.4631   -6.3294    0.0000 H   0  0  0  0  0  0  0  0  0  0  0  0
    6.8671    4.1706    0.0000 H   0  0  0  0  0  0  0  0  0  0  0  0
    4.0611    4.1706    0.0000 H   0  0  0  0  0  0  0  0  0  0  0  0
    6.8671    5.7906    0.0000 H   0  0  0  0  0  0  0  0  0  0  0  0
    4.0611    5.7906    0.0000 H   0  0  0  0  0  0  0  0  0  0  0  0
    6.8628    7.3768    0.0000 H   0  0  0  0  0  0  0  0  0  0  0  0
    4.0654    7.3768    0.0000 H   0  0  0  0  0  0  0  0  0  0  0  0
    6.3285    9.0210    0.0000 H   0  0  0  0  0  0  0  0  0  0  0  0
  1 31  1  0  0  0  0
  1 32  1  0  0  0  0
  2 21  2  0  0  0  0
  3  7  1  0  0  0  0
  3  8  1  0  0  0  0
  3 11  1  0  0  0  0
  4  9  1  0  0  0  0
  4 10  1  0  0  0  0
  4 13  1  0  0  0  0
  5 15  1  0  0  0  0
  5 21  1  0  0  0  0
  5 51  1  0  0  0  0
  6 23  3  0  0  0  0
  7  9  1  0  0  0  0
  7 33  1  0  0  0  0
  7 34  1  0  0  0  0
  8 10  1  0  0  0  0
  8 35  1  0  0  0  0
  8 36  1  0  0  0  0
  9 37  1  0  0  0  0
  9 38  1  0  0  0  0
 10 39  1  0  0  0  0
 10 40  1  0  0  0  0
 11 12  1  0  0  0  0
 11 41  1  0  0  0  0
 11 42  1  0  0  0  0
 12 14  1  0  0  0  0
 12 43  1  0  0  0  0
 12 44  1  0  0  0  0
 13 16  2  0  0  0  0
 13 17  1  0  0  0  0
 14 15  1  0  0  0  0
 14 45  1  0  0  0  0
 14 46  1  0  0  0  0
 15 47  1  0  0  0  0
 15 48  1  0  0  0  0
 16 18  1  0  0  0  0
 16 49  1  0  0  0  0
 17 19  2  0  0  0  0
 17 50  1  0  0  0  0
 18 20  2  0  0  0  0
 18 52  1  0  0  0  0
 19 20  1  0  0  0  0
 19 53  1  0  0  0  0
 20 23  1  0  0  0  0
 21 22  1  0  0  0  0
 22 24  2  0  0  0  0
 22 25  1  0  0  0  0
 24 27  1  0  0  0  0
 24 54  1  0  0  0  0
 25 28  2  0  0  0  0
 25 55  1  0  0  0  0
 26 27  2  0  0  0  0
 26 28  1  0  0  0  0
 26 29  1  0  0  0  0
 27 56  1  0  0  0  0
 28 57  1  0  0  0  0
 29 30  1  0  0  0  0
 29 31  2  0  0  0  0
 30 32  2  0  0  0  0
 30 58  1  0  0  0  0
 31 59  1  0  0  0  0
 32 60  1  0  0  0  0
M  END
> <PUBCHEM_COMPOUND_CID>
155513265

> <PUBCHEM_COMPOUND_CANONICALIZED>
1

> <PUBCHEM_CACTVS_COMPLEXITY>
625

> <PUBCHEM_CACTVS_HBOND_ACCEPTOR>
5

> <PUBCHEM_CACTVS_HBOND_DONOR>
1

> <PUBCHEM_CACTVS_ROTATABLE_BOND>
8

> <PUBCHEM_CACTVS_SUBSKEYS>
AAADceB7oABAAAAAAAAAAAAAAAAAASAAAAA8YIAAAAAAAAAB0AAAHgQQAAAADAjF2ASwwYPAAAicBiVSUACjAIAlChBIiJkIZMgI4DLglZGUIQhglgDoyY8YiMCOyAAAAAAAAACQAAAAAAAAAAAAAAAAAA==

> <PUBCHEM_IUPAC_OPENEYE_NAME>
N-[4-[4-(4-cyanophenyl)piperazin-1-yl]butyl]-4-(3-thienyl)benzamide

> <PUBCHEM_IUPAC_CAS_NAME>
N-[4-[4-(4-cyanophenyl)-1-piperazinyl]butyl]-4-(3-thiophenyl)benzamide

> <PUBCHEM_IUPAC_NAME_MARKUP>
<I>N</I>-[4-[4-(4-cyanophenyl)piperazin-1-yl]butyl]-4-thiophen-3-ylbenzamide

> <PUBCHEM_IUPAC_NAME>
N-[4-[4-(4-cyanophenyl)piperazin-1-yl]butyl]-4-thiophen-3-ylbenzamide

> <PUBCHEM_IUPAC_SYSTEMATIC_NAME>
N-[4-[4-(4-cyanophenyl)piperazin-1-yl]butyl]-4-thiophen-3-yl-benzamide

> <PUBCHEM_IUPAC_TRADITIONAL_NAME>
N-[4-[4-(4-cyanophenyl)piperazino]butyl]-4-(3-thienyl)benzamide

> <PUBCHEM_IUPAC_INCHI>
InChI=1S/C26H28N4OS/c27-19-21-3-9-25(10-4-21)30-16-14-29(15-17-30)13-2-1-12-28-26(31)23-7-5-22(6-8-23)24-11-18-32-20-24/h3-11,18,20H,1-2,12-17H2,(H,28,31)

> <PUBCHEM_IUPAC_INCHIKEY>
YVBCMZPFSJOCJN-UHFFFAOYSA-N

> <PUBCHEM_XLOGP3_AA>
4.6

> <PUBCHEM_EXACT_MASS>
444.19838270

> <PUBCHEM_MOLECULAR_FORMULA>
C26H28N4OS

> <PUBCHEM_MOLECULAR_WEIGHT>
444.6

> <PUBCHEM_OPENEYE_CAN_SMILES>
C1CN(CCN1CCCCNC(=O)C2=CC=C(C=C2)C3=CSC=C3)C4=CC=C(C=C4)C#N

> <PUBCHEM_OPENEYE_ISO_SMILES>
C1CN(CCN1CCCCNC(=O)C2=CC=C(C=C2)C3=CSC=C3)C4=CC=C(C=C4)C#N

> <PUBCHEM_CACTVS_TPSA>
87.6

> <PUBCHEM_MONOISOTOPIC_WEIGHT>
444.19838270

> <PUBCHEM_TOTAL_CHARGE>
0

> <PUBCHEM_HEAVY_ATOM_COUNT>
32

> <PUBCHEM_ATOM_DEF_STEREO_COUNT>
0

> <PUBCHEM_ATOM_UDEF_STEREO_COUNT>
0

> <PUBCHEM_BOND_DEF_STEREO_COUNT>
0

> <PUBCHEM_BOND_UDEF_STEREO_COUNT>
0

> <PUBCHEM_ISOTOPIC_ATOM_COUNT>
0

> <PUBCHEM_COMPONENT_COUNT>
1

> <PUBCHEM_CACTVS_TAUTO_COUNT>
-1

> <PUBCHEM_COORDINATE_TYPE>
1
5
255

> <PUBCHEM_BONDANNOTATIONS>
1  31  8
1  32  8
13  16  8
13  17  8
16  18  8
17  19  8
18  20  8
19  20  8
22  24  8
22  25  8
24  27  8
25  28  8
26  27  8
26  28  8
29  30  8
29  31  8
30  32  8

$$$$
