24863962
  -OEChem-09292322492D

 48 49  0     1  0  0  0  0  0999 V2000
    6.6962    5.1830    0.0000 F   0  0  0  0  0  0  0  0  0  0  0  0
    8.0622    4.8170    0.0000 F   0  0  0  0  0  0  0  0  0  0  0  0
    7.6962    3.4510    0.0000 F   0  0  0  0  0  0  0  0  0  0  0  0
    6.3301    3.8170    0.0000 O   0  0  0  0  0  0  0  0  0  0  0  0
    3.7320   -3.6830    0.0000 N   0  0  0  0  0  0  0  0  0  0  0  0
    5.4641   -1.6830    0.0000 N   0  0  3  0  0  0  0  0  0  0  0  0
    2.8660   -3.1830    0.0000 C   0  0  0  0  0  0  0  0  0  0  0  0
    3.7320   -4.6830    0.0000 C   0  0  0  0  0  0  0  0  0  0  0  0
    2.0000   -3.6830    0.0000 C   0  0  0  0  0  0  0  0  0  0  0  0
    2.8660   -5.1830    0.0000 C   0  0  0  0  0  0  0  0  0  0  0  0
    2.0000   -4.6830    0.0000 C   0  0  0  0  0  0  0  0  0  0  0  0
    4.5981   -3.1830    0.0000 C   0  0  0  0  0  0  0  0  0  0  0  0
    4.5981   -2.1830    0.0000 C   0  0  0  0  0  0  0  0  0  0  0  0
    5.4641   -0.6830    0.0000 C   0  0  0  0  0  0  0  0  0  0  0  0
    6.3301   -0.1830    0.0000 C   0  0  0  0  0  0  0  0  0  0  0  0
    6.3301   -2.1830    0.0000 C   0  0  0  0  0  0  0  0  0  0  0  0
    6.3301    0.8170    0.0000 C   0  0  0  0  0  0  0  0  0  0  0  0
    5.4641    1.3170    0.0000 C   0  0  0  0  0  0  0  0  0  0  0  0
    7.1962    1.3170    0.0000 C   0  0  0  0  0  0  0  0  0  0  0  0
    5.4641    2.3170    0.0000 C   0  0  0  0  0  0  0  0  0  0  0  0
    7.1962    2.3170    0.0000 C   0  0  0  0  0  0  0  0  0  0  0  0
    6.3301    2.8170    0.0000 C   0  0  0  0  0  0  0  0  0  0  0  0
    7.1962    4.3170    0.0000 C   0  0  0  0  0  0  0  0  0  0  0  0
    3.2646   -2.7081    0.0000 H   0  0  0  0  0  0  0  0  0  0  0  0
    2.4675   -2.7081    0.0000 H   0  0  0  0  0  0  0  0  0  0  0  0
    3.9441   -5.2656    0.0000 H   0  0  0  0  0  0  0  0  0  0  0  0
    4.3426   -4.5754    0.0000 H   0  0  0  0  0  0  0  0  0  0  0  0
    1.7880   -3.1004    0.0000 H   0  0  0  0  0  0  0  0  0  0  0  0
    1.3894   -3.7907    0.0000 H   0  0  0  0  0  0  0  0  0  0  0  0
    2.4675   -5.6580    0.0000 H   0  0  0  0  0  0  0  0  0  0  0  0
    3.2646   -5.6580    0.0000 H   0  0  0  0  0  0  0  0  0  0  0  0
    1.3894   -4.5754    0.0000 H   0  0  0  0  0  0  0  0  0  0  0  0
    1.7880   -5.2656    0.0000 H   0  0  0  0  0  0  0  0  0  0  0  0
    4.8101   -3.7656    0.0000 H   0  0  0  0  0  0  0  0  0  0  0  0
    5.2087   -3.0753    0.0000 H   0  0  0  0  0  0  0  0  0  0  0  0
    4.3860   -1.6004    0.0000 H   0  0  0  0  0  0  0  0  0  0  0  0
    3.9875   -2.2907    0.0000 H   0  0  0  0  0  0  0  0  0  0  0  0
    5.2520   -0.1004    0.0000 H   0  0  0  0  0  0  0  0  0  0  0  0
    4.8535   -0.7907    0.0000 H   0  0  0  0  0  0  0  0  0  0  0  0
    6.5422   -0.7656    0.0000 H   0  0  0  0  0  0  0  0  0  0  0  0
    6.9407   -0.0754    0.0000 H   0  0  0  0  0  0  0  0  0  0  0  0
    6.0201   -2.7200    0.0000 H   0  0  0  0  0  0  0  0  0  0  0  0
    6.8671   -2.4930    0.0000 H   0  0  0  0  0  0  0  0  0  0  0  0
    6.6401   -1.6461    0.0000 H   0  0  0  0  0  0  0  0  0  0  0  0
    4.9272    1.0070    0.0000 H   0  0  0  0  0  0  0  0  0  0  0  0
    7.7331    1.0070    0.0000 H   0  0  0  0  0  0  0  0  0  0  0  0
    4.9272    2.6270    0.0000 H   0  0  0  0  0  0  0  0  0  0  0  0
    7.7331    2.6270    0.0000 H   0  0  0  0  0  0  0  0  0  0  0  0
  1 23  1  0  0  0  0
  2 23  1  0  0  0  0
  3 23  1  0  0  0  0
  4 22  1  0  0  0  0
  4 23  1  0  0  0  0
  5  7  1  0  0  0  0
  5  8  1  0  0  0  0
  5 12  1  0  0  0  0
  6 13  1  0  0  0  0
  6 14  1  0  0  0  0
  6 16  1  0  0  0  0
  7  9  1  0  0  0  0
  7 24  1  0  0  0  0
  7 25  1  0  0  0  0
  8 10  1  0  0  0  0
  8 26  1  0  0  0  0
  8 27  1  0  0  0  0
  9 11  1  0  0  0  0
  9 28  1  0  0  0  0
  9 29  1  0  0  0  0
 10 11  1  0  0  0  0
 10 30  1  0  0  0  0
 10 31  1  0  0  0  0
 11 32  1  0  0  0  0
 11 33  1  0  0  0  0
 12 13  1  0  0  0  0
 12 34  1  0  0  0  0
 12 35  1  0  0  0  0
 13 36  1  0  0  0  0
 13 37  1  0  0  0  0
 14 15  1  0  0  0  0
 14 38  1  0  0  0  0
 14 39  1  0  0  0  0
 15 17  1  0  0  0  0
 15 40  1  0  0  0  0
 15 41  1  0  0  0  0
 16 42  1  0  0  0  0
 16 43  1  0  0  0  0
 16 44  1  0  0  0  0
 17 18  2  0  0  0  0
 17 19  1  0  0  0  0
 18 20  1  0  0  0  0
 18 45  1  0  0  0  0
 19 21  2  0  0  0  0
 19 46  1  0  0  0  0
 20 22  2  0  0  0  0
 20 47  1  0  0  0  0
 21 22  1  0  0  0  0
 21 48  1  0  0  0  0
M  END
> <PUBCHEM_COMPOUND_CID>
24863962

> <PUBCHEM_COMPOUND_CANONICALIZED>
1

> <PUBCHEM_CACTVS_COMPLEXITY>
324

> <PUBCHEM_CACTVS_HBOND_ACCEPTOR>
6

> <PUBCHEM_CACTVS_HBOND_DONOR>
0

> <PUBCHEM_CACTVS_ROTATABLE_BOND>
7

> <PUBCHEM_CACTVS_SUBSKEYS>
AAADceB7IYAAAAAAAAAAAAAAAAAAAAAAAAA8QAAAAAAAAAABAAAAHwAAAAAADATBmBQyBoMABACAAiBCAAACCAAgIAAIiAAOCIgMZiKEsRuUMCAkwBGIqAeQwIAOIAAAAAAAAABAAAAAAAAAAAAAAAAAAA==

> <PUBCHEM_IUPAC_OPENEYE_NAME>
N-methyl-N-[2-(1-piperidyl)ethyl]-2-[4-(trifluoromethoxy)phenyl]ethanamine

> <PUBCHEM_IUPAC_CAS_NAME>
N-methyl-N-[2-(1-piperidinyl)ethyl]-2-[4-(trifluoromethoxy)phenyl]ethanamine

> <PUBCHEM_IUPAC_NAME_MARKUP>
<I>N</I>-methyl-<I>N</I>-(2-piperidin-1-ylethyl)-2-[4-(trifluoromethoxy)phenyl]ethanamine

> <PUBCHEM_IUPAC_NAME>
N-methyl-N-(2-piperidin-1-ylethyl)-2-[4-(trifluoromethoxy)phenyl]ethanamine

> <PUBCHEM_IUPAC_SYSTEMATIC_NAME>
N-methyl-N-(2-piperidin-1-ylethyl)-2-[4-(trifluoromethyloxy)phenyl]ethanamine

> <PUBCHEM_IUPAC_TRADITIONAL_NAME>
methyl-(2-piperidinoethyl)-[2-[4-(trifluoromethoxy)phenyl]ethyl]amine

> <PUBCHEM_IUPAC_INCHI>
InChI=1S/C17H25F3N2O/c1-21(13-14-22-10-3-2-4-11-22)12-9-15-5-7-16(8-6-15)23-17(18,19)20/h5-8H,2-4,9-14H2,1H3

> <PUBCHEM_IUPAC_INCHIKEY>
QTWYMQIZRRTWFB-UHFFFAOYSA-N

> <PUBCHEM_XLOGP3_AA>
4.3

> <PUBCHEM_EXACT_MASS>
330.19189791

> <PUBCHEM_MOLECULAR_FORMULA>
C17H25F3N2O

> <PUBCHEM_MOLECULAR_WEIGHT>
330.4

> <PUBCHEM_OPENEYE_CAN_SMILES>
CN(CCC1=CC=C(C=C1)OC(F)(F)F)CCN2CCCCC2

> <PUBCHEM_OPENEYE_ISO_SMILES>
CN(CCC1=CC=C(C=C1)OC(F)(F)F)CCN2CCCCC2

> <PUBCHEM_CACTVS_TPSA>
15.7

> <PUBCHEM_MONOISOTOPIC_WEIGHT>
330.19189791

> <PUBCHEM_TOTAL_CHARGE>
0

> <PUBCHEM_HEAVY_ATOM_COUNT>
23

> <PUBCHEM_ATOM_DEF_STEREO_COUNT>
0

> <PUBCHEM_ATOM_UDEF_STEREO_COUNT>
0

> <PUBCHEM_BOND_DEF_STEREO_COUNT>
0

> <PUBCHEM_BOND_UDEF_STEREO_COUNT>
0

> <PUBCHEM_ISOTOPIC_ATOM_COUNT>
0

> <PUBCHEM_COMPONENT_COUNT>
1

> <PUBCHEM_CACTVS_TAUTO_COUNT>
-1

> <PUBCHEM_COORDINATE_TYPE>
1
5
255

> <PUBCHEM_BONDANNOTATIONS>
17  18  8
17  19  8
18  20  8
19  21  8
20  22  8
21  22  8

$$$$
