25235287
  -OEChem-09292322462D

 33 35  0     0  0  0  0  0  0999 V2000
    7.3180    2.2778    0.0000 Br  0  0  0  0  0  0  0  0  0  0  0  0
    5.5321   -0.7673    0.0000 N   0  0  0  0  0  0  0  0  0  0  0  0
    2.0000   -0.7881    0.0000 N   0  0  0  0  0  0  0  0  0  0  0  0
    4.6660   -1.2673    0.0000 C   0  0  0  0  0  0  0  0  0  0  0  0
    3.8000   -0.7673    0.0000 C   0  0  0  0  0  0  0  0  0  0  0  0
    3.8000    0.2327    0.0000 C   0  0  0  0  0  0  0  0  0  0  0  0
    5.5321    0.2327    0.0000 C   0  0  0  0  0  0  0  0  0  0  0  0
    5.1660   -2.1334    0.0000 C   0  0  0  0  0  0  0  0  0  0  0  0
    4.1660   -2.1334    0.0000 C   0  0  0  0  0  0  0  0  0  0  0  0
    4.6660    0.7327    0.0000 C   0  0  0  0  0  0  0  0  0  0  0  0
    2.9061   -1.3020    0.0000 C   0  0  0  0  0  0  0  0  0  0  0  0
    2.9061    0.7673    0.0000 C   0  0  0  0  0  0  0  0  0  0  0  0
    6.4421    0.7395    0.0000 C   0  0  0  0  0  0  0  0  0  0  0  0
    4.6500    1.7742    0.0000 C   0  0  0  0  0  0  0  0  0  0  0  0
    2.9176   -2.3019    0.0000 C   0  0  0  0  0  0  0  0  0  0  0  0
    2.0000    0.2535    0.0000 C   0  0  0  0  0  0  0  0  0  0  0  0
    6.4501    1.7811    0.0000 C   0  0  0  0  0  0  0  0  0  0  0  0
    5.5480    2.3019    0.0000 C   0  0  0  0  0  0  0  0  0  0  0  0
    6.0690   -1.0773    0.0000 H   0  0  0  0  0  0  0  0  0  0  0  0
    4.6291   -2.4434    0.0000 H   0  0  0  0  0  0  0  0  0  0  0  0
    5.4760   -2.6703    0.0000 H   0  0  0  0  0  0  0  0  0  0  0  0
    5.7030   -1.8234    0.0000 H   0  0  0  0  0  0  0  0  0  0  0  0
    3.6291   -1.8234    0.0000 H   0  0  0  0  0  0  0  0  0  0  0  0
    3.8560   -2.6703    0.0000 H   0  0  0  0  0  0  0  0  0  0  0  0
    4.7030   -2.4434    0.0000 H   0  0  0  0  0  0  0  0  0  0  0  0
    2.9132    1.3873    0.0000 H   0  0  0  0  0  0  0  0  0  0  0  0
    6.9754    0.4233    0.0000 H   0  0  0  0  0  0  0  0  0  0  0  0
    4.1095    2.0779    0.0000 H   0  0  0  0  0  0  0  0  0  0  0  0
    2.2977   -2.3091    0.0000 H   0  0  0  0  0  0  0  0  0  0  0  0
    2.9248   -2.9219    0.0000 H   0  0  0  0  0  0  0  0  0  0  0  0
    3.5376   -2.2948    0.0000 H   0  0  0  0  0  0  0  0  0  0  0  0
    1.4643    0.5655    0.0000 H   0  0  0  0  0  0  0  0  0  0  0  0
    5.5456    2.9219    0.0000 H   0  0  0  0  0  0  0  0  0  0  0  0
  1 17  1  0  0  0  0
  2  4  1  0  0  0  0
  2  7  1  0  0  0  0
  2 19  1  0  0  0  0
  3 11  2  0  0  0  0
  3 16  1  0  0  0  0
  4  5  1  0  0  0  0
  4  8  1  0  0  0  0
  4  9  1  0  0  0  0
  5  6  2  0  0  0  0
  5 11  1  0  0  0  0
  6 10  1  0  0  0  0
  6 12  1  0  0  0  0
  7 10  2  0  0  0  0
  7 13  1  0  0  0  0
  8 20  1  0  0  0  0
  8 21  1  0  0  0  0
  8 22  1  0  0  0  0
  9 23  1  0  0  0  0
  9 24  1  0  0  0  0
  9 25  1  0  0  0  0
 10 14  1  0  0  0  0
 11 15  1  0  0  0  0
 12 16  2  0  0  0  0
 12 26  1  0  0  0  0
 13 17  2  0  0  0  0
 13 27  1  0  0  0  0
 14 18  2  0  0  0  0
 14 28  1  0  0  0  0
 15 29  1  0  0  0  0
 15 30  1  0  0  0  0
 15 31  1  0  0  0  0
 16 32  1  0  0  0  0
 17 18  1  0  0  0  0
 18 33  1  0  0  0  0
M  END
> <PUBCHEM_COMPOUND_CID>
25235287

> <PUBCHEM_COMPOUND_CANONICALIZED>
1

> <PUBCHEM_CACTVS_COMPLEXITY>
318

> <PUBCHEM_CACTVS_HBOND_ACCEPTOR>
2

> <PUBCHEM_CACTVS_HBOND_DONOR>
1

> <PUBCHEM_CACTVS_ROTATABLE_BOND>
0

> <PUBCHEM_CACTVS_SUBSKEYS>
AAADccBzAAAAEAAAAAAAAAAAAAAAAAAAAAA8WIAAAAAAAACxwAAAHABQAAABrIjBHgQ+wJLIEACgAzRnRACCgCAxAiQI2CA4ZLgIIGLA0ZGEIAhgkADIyhcQgMAOggAAAAECAAAEAAAAAgQAAAAAAAAAAA==

> <PUBCHEM_IUPAC_OPENEYE_NAME>
8-bromo-4,5,5-trimethyl-6H-benzo[c][2,7]naphthyridine

> <PUBCHEM_IUPAC_CAS_NAME>
8-bromo-4,5,5-trimethyl-6H-benzo[c][2,7]naphthyridine

> <PUBCHEM_IUPAC_NAME_MARKUP>
8-bromo-4,5,5-trimethyl-6<I>H</I>-benzo[c][2,7]naphthyridine

> <PUBCHEM_IUPAC_NAME>
8-bromo-4,5,5-trimethyl-6H-benzo[c][2,7]naphthyridine

> <PUBCHEM_IUPAC_SYSTEMATIC_NAME>
8-bromanyl-4,5,5-trimethyl-6H-benzo[c][2,7]naphthyridine

> <PUBCHEM_IUPAC_TRADITIONAL_NAME>
8-bromo-4,5,5-trimethyl-6H-benzo[c][2,7]naphthyridine

> <PUBCHEM_IUPAC_INCHI>
InChI=1S/C15H15BrN2/c1-9-14-12(6-7-17-9)11-5-4-10(16)8-13(11)18-15(14,2)3/h4-8,18H,1-3H3

> <PUBCHEM_IUPAC_INCHIKEY>
YBGLIPYAJPOYAD-UHFFFAOYSA-N

> <PUBCHEM_XLOGP3_AA>
3.7

> <PUBCHEM_EXACT_MASS>
302.04186

> <PUBCHEM_MOLECULAR_FORMULA>
C15H15BrN2

> <PUBCHEM_MOLECULAR_WEIGHT>
303.20

> <PUBCHEM_OPENEYE_CAN_SMILES>
CC1=NC=CC2=C1C(NC3=C2C=CC(=C3)Br)(C)C

> <PUBCHEM_OPENEYE_ISO_SMILES>
CC1=NC=CC2=C1C(NC3=C2C=CC(=C3)Br)(C)C

> <PUBCHEM_CACTVS_TPSA>
24.9

> <PUBCHEM_MONOISOTOPIC_WEIGHT>
302.04186

> <PUBCHEM_TOTAL_CHARGE>
0

> <PUBCHEM_HEAVY_ATOM_COUNT>
18

> <PUBCHEM_ATOM_DEF_STEREO_COUNT>
0

> <PUBCHEM_ATOM_UDEF_STEREO_COUNT>
0

> <PUBCHEM_BOND_DEF_STEREO_COUNT>
0

> <PUBCHEM_BOND_UDEF_STEREO_COUNT>
0

> <PUBCHEM_ISOTOPIC_ATOM_COUNT>
0

> <PUBCHEM_COMPONENT_COUNT>
1

> <PUBCHEM_CACTVS_TAUTO_COUNT>
-1

> <PUBCHEM_COORDINATE_TYPE>
1
5
255

> <PUBCHEM_BONDANNOTATIONS>
10  14  8
12  16  8
13  17  8
14  18  8
17  18  8
3  11  8
3  16  8
5  11  8
5  6  8
6  12  8
7  10  8
7  13  8

$$$$
