72736379
  -OEChem-09292322342D

 57 59  0     1  0  0  0  0  0999 V2000
   11.5942    0.7073    0.0000 O   0  0  0  0  0  0  0  0  0  0  0  0
   10.7282   -0.7927    0.0000 O   0  0  0  0  0  0  0  0  0  0  0  0
    5.5321   -0.7927    0.0000 N   0  0  3  0  0  0  0  0  0  0  0  0
    9.8622    0.7073    0.0000 N   0  0  0  0  0  0  0  0  0  0  0  0
    7.2641   -0.7927    0.0000 C   0  0  0  0  0  0  0  0  0  0  0  0
    7.2641    0.2073    0.0000 C   0  0  0  0  0  0  0  0  0  0  0  0
    8.1301   -1.2927    0.0000 C   0  0  0  0  0  0  0  0  0  0  0  0
    8.9962    0.2073    0.0000 C   0  0  0  0  0  0  0  0  0  0  0  0
    8.1301    0.7073    0.0000 C   0  0  0  0  0  0  0  0  0  0  0  0
    8.9962   -0.7927    0.0000 C   0  0  0  0  0  0  0  0  0  0  0  0
    6.3981   -1.2927    0.0000 C   0  0  0  0  0  0  0  0  0  0  0  0
    5.5321    0.2073    0.0000 C   0  0  0  0  0  0  0  0  0  0  0  0
    4.6660   -1.2927    0.0000 C   0  0  0  0  0  0  0  0  0  0  0  0
    4.6660    0.7073    0.0000 C   0  0  0  0  0  0  0  0  0  0  0  0
    3.8000   -0.7927    0.0000 C   0  0  0  0  0  0  0  0  0  0  0  0
    3.8000    0.2073    0.0000 C   0  0  0  0  0  0  0  0  0  0  0  0
   10.7282    0.2073    0.0000 C   0  0  0  0  0  0  0  0  0  0  0  0
    2.9061   -1.3273    0.0000 C   0  0  0  0  0  0  0  0  0  0  0  0
    2.9061    0.7420    0.0000 C   0  0  0  0  0  0  0  0  0  0  0  0
    2.0000   -0.8135    0.0000 C   0  0  0  0  0  0  0  0  0  0  0  0
    2.0000    0.2281    0.0000 C   0  0  0  0  0  0  0  0  0  0  0  0
   12.4603    0.2073    0.0000 C   0  0  0  0  0  0  0  0  0  0  0  0
   13.3263   -0.2927    0.0000 C   0  0  0  0  0  0  0  0  0  0  0  0
   12.9603    1.0734    0.0000 C   0  0  0  0  0  0  0  0  0  0  0  0
   11.9603   -0.6587    0.0000 C   0  0  0  0  0  0  0  0  0  0  0  0
    6.7272   -0.4827    0.0000 H   0  0  0  0  0  0  0  0  0  0  0  0
    7.0521    0.7899    0.0000 H   0  0  0  0  0  0  0  0  0  0  0  0
    6.6535    0.0997    0.0000 H   0  0  0  0  0  0  0  0  0  0  0  0
    7.7316   -1.7676    0.0000 H   0  0  0  0  0  0  0  0  0  0  0  0
    8.5287   -1.7676    0.0000 H   0  0  0  0  0  0  0  0  0  0  0  0
    9.5331   -0.1027    0.0000 H   0  0  0  0  0  0  0  0  0  0  0  0
    8.5287    1.1823    0.0000 H   0  0  0  0  0  0  0  0  0  0  0  0
    7.7316    1.1823    0.0000 H   0  0  0  0  0  0  0  0  0  0  0  0
    9.2082   -1.3753    0.0000 H   0  0  0  0  0  0  0  0  0  0  0  0
    9.6067   -0.6850    0.0000 H   0  0  0  0  0  0  0  0  0  0  0  0
    5.9996   -1.7676    0.0000 H   0  0  0  0  0  0  0  0  0  0  0  0
    6.7966   -1.7676    0.0000 H   0  0  0  0  0  0  0  0  0  0  0  0
    6.1426    0.0997    0.0000 H   0  0  0  0  0  0  0  0  0  0  0  0
    5.7441    0.7899    0.0000 H   0  0  0  0  0  0  0  0  0  0  0  0
    4.2675   -1.7676    0.0000 H   0  0  0  0  0  0  0  0  0  0  0  0
    5.0646   -1.7676    0.0000 H   0  0  0  0  0  0  0  0  0  0  0  0
    9.8622    1.3273    0.0000 H   0  0  0  0  0  0  0  0  0  0  0  0
    5.0646    1.1823    0.0000 H   0  0  0  0  0  0  0  0  0  0  0  0
    4.2675    1.1823    0.0000 H   0  0  0  0  0  0  0  0  0  0  0  0
    2.9132   -1.9473    0.0000 H   0  0  0  0  0  0  0  0  0  0  0  0
    2.9132    1.3620    0.0000 H   0  0  0  0  0  0  0  0  0  0  0  0
    1.4643   -1.1256    0.0000 H   0  0  0  0  0  0  0  0  0  0  0  0
    1.4643    0.5402    0.0000 H   0  0  0  0  0  0  0  0  0  0  0  0
   13.0163   -0.8296    0.0000 H   0  0  0  0  0  0  0  0  0  0  0  0
   13.8632   -0.6027    0.0000 H   0  0  0  0  0  0  0  0  0  0  0  0
   13.6363    0.2443    0.0000 H   0  0  0  0  0  0  0  0  0  0  0  0
   13.4972    0.7634    0.0000 H   0  0  0  0  0  0  0  0  0  0  0  0
   13.2703    1.6103    0.0000 H   0  0  0  0  0  0  0  0  0  0  0  0
   12.4233    1.3834    0.0000 H   0  0  0  0  0  0  0  0  0  0  0  0
   11.4233   -0.3487    0.0000 H   0  0  0  0  0  0  0  0  0  0  0  0
   11.6503   -1.1956    0.0000 H   0  0  0  0  0  0  0  0  0  0  0  0
   12.4972   -0.9687    0.0000 H   0  0  0  0  0  0  0  0  0  0  0  0
  1 17  1  0  0  0  0
  1 22  1  0  0  0  0
  2 17  2  0  0  0  0
  3 11  1  0  0  0  0
  3 12  1  0  0  0  0
  3 13  1  0  0  0  0
  4  8  1  0  0  0  0
  4 17  1  0  0  0  0
  4 42  1  0  0  0  0
  5  6  1  0  0  0  0
  5  7  1  0  0  0  0
  5 11  1  0  0  0  0
  5 26  1  0  0  0  0
  6  9  1  0  0  0  0
  6 27  1  0  0  0  0
  6 28  1  0  0  0  0
  7 10  1  0  0  0  0
  7 29  1  0  0  0  0
  7 30  1  0  0  0  0
  8  9  1  0  0  0  0
  8 10  1  0  0  0  0
  8 31  1  0  0  0  0
  9 32  1  0  0  0  0
  9 33  1  0  0  0  0
 10 34  1  0  0  0  0
 10 35  1  0  0  0  0
 11 36  1  0  0  0  0
 11 37  1  0  0  0  0
 12 14  1  0  0  0  0
 12 38  1  0  0  0  0
 12 39  1  0  0  0  0
 13 15  1  0  0  0  0
 13 40  1  0  0  0  0
 13 41  1  0  0  0  0
 14 16  1  0  0  0  0
 14 43  1  0  0  0  0
 14 44  1  0  0  0  0
 15 16  1  0  0  0  0
 15 18  2  0  0  0  0
 16 19  2  0  0  0  0
 18 20  1  0  0  0  0
 18 45  1  0  0  0  0
 19 21  1  0  0  0  0
 19 46  1  0  0  0  0
 20 21  2  0  0  0  0
 20 47  1  0  0  0  0
 21 48  1  0  0  0  0
 22 23  1  0  0  0  0
 22 24  1  0  0  0  0
 22 25  1  0  0  0  0
 23 49  1  0  0  0  0
 23 50  1  0  0  0  0
 23 51  1  0  0  0  0
 24 52  1  0  0  0  0
 24 53  1  0  0  0  0
 24 54  1  0  0  0  0
 25 55  1  0  0  0  0
 25 56  1  0  0  0  0
 25 57  1  0  0  0  0
M  END
> <PUBCHEM_COMPOUND_CID>
72736379

> <PUBCHEM_COMPOUND_CANONICALIZED>
1

> <PUBCHEM_CACTVS_COMPLEXITY>
438

> <PUBCHEM_CACTVS_HBOND_ACCEPTOR>
3

> <PUBCHEM_CACTVS_HBOND_DONOR>
1

> <PUBCHEM_CACTVS_ROTATABLE_BOND>
5

> <PUBCHEM_CACTVS_SUBSKEYS>
AAADcfB7MAAAAAAAAAAAAAAAAAAAAAAAAAA8YIAAAAAAAACxAAAAHgAQAAAADWzBmAQyCIPABACIAiBCGACCAAAgAAAIiIAIBIkIICKAkRGMIAhglgCIiAcQgIAOgAAAAAAQAAAQAAAAACAAAAAAAAAAAA==

> <PUBCHEM_IUPAC_OPENEYE_NAME>
tert-butyl N-[4-(3,4-dihydro-1H-isoquinolin-2-ylmethyl)cyclohexyl]carbamate

> <PUBCHEM_IUPAC_CAS_NAME>
N-[4-(3,4-dihydro-1H-isoquinolin-2-ylmethyl)cyclohexyl]carbamic acid tert-butyl ester

> <PUBCHEM_IUPAC_NAME_MARKUP>
<I>tert</I>-butyl <I>N</I>-[4-(3,4-dihydro-1<I>H</I>-isoquinolin-2-ylmethyl)cyclohexyl]carbamate

> <PUBCHEM_IUPAC_NAME>
tert-butyl N-[4-(3,4-dihydro-1H-isoquinolin-2-ylmethyl)cyclohexyl]carbamate

> <PUBCHEM_IUPAC_SYSTEMATIC_NAME>
tert-butyl N-[4-(3,4-dihydro-1H-isoquinolin-2-ylmethyl)cyclohexyl]carbamate

> <PUBCHEM_IUPAC_TRADITIONAL_NAME>
N-[4-(3,4-dihydro-1H-isoquinolin-2-ylmethyl)cyclohexyl]carbamic acid tert-butyl ester

> <PUBCHEM_IUPAC_INCHI>
InChI=1S/C21H32N2O2/c1-21(2,3)25-20(24)22-19-10-8-16(9-11-19)14-23-13-12-17-6-4-5-7-18(17)15-23/h4-7,16,19H,8-15H2,1-3H3,(H,22,24)

> <PUBCHEM_IUPAC_INCHIKEY>
PFJXVYZMCGALGZ-UHFFFAOYSA-N

> <PUBCHEM_XLOGP3_AA>
4

> <PUBCHEM_EXACT_MASS>
344.246378268

> <PUBCHEM_MOLECULAR_FORMULA>
C21H32N2O2

> <PUBCHEM_MOLECULAR_WEIGHT>
344.5

> <PUBCHEM_OPENEYE_CAN_SMILES>
CC(C)(C)OC(=O)NC1CCC(CC1)CN2CCC3=CC=CC=C3C2

> <PUBCHEM_OPENEYE_ISO_SMILES>
CC(C)(C)OC(=O)NC1CCC(CC1)CN2CCC3=CC=CC=C3C2

> <PUBCHEM_CACTVS_TPSA>
41.6

> <PUBCHEM_MONOISOTOPIC_WEIGHT>
344.246378268

> <PUBCHEM_TOTAL_CHARGE>
0

> <PUBCHEM_HEAVY_ATOM_COUNT>
25

> <PUBCHEM_ATOM_DEF_STEREO_COUNT>
0

> <PUBCHEM_ATOM_UDEF_STEREO_COUNT>
0

> <PUBCHEM_BOND_DEF_STEREO_COUNT>
0

> <PUBCHEM_BOND_UDEF_STEREO_COUNT>
0

> <PUBCHEM_ISOTOPIC_ATOM_COUNT>
0

> <PUBCHEM_COMPONENT_COUNT>
1

> <PUBCHEM_CACTVS_TAUTO_COUNT>
-1

> <PUBCHEM_COORDINATE_TYPE>
1
5
255

> <PUBCHEM_BONDANNOTATIONS>
15  16  8
15  18  8
16  19  8
18  20  8
19  21  8
20  21  8

$$$$
