44304643
  -OEChem-09292322142D

 58 61  0     1  0  0  0  0  0999 V2000
    6.3301   -6.4438    0.0000 Br  0  0  0  0  0  0  0  0  0  0  0  0
    5.4071   -2.8561    0.0000 O   0  0  0  0  0  0  0  0  0  0  0  0
    2.8660   -4.4438    0.0000 O   0  0  0  0  0  0  0  0  0  0  0  0
    3.9051    3.1493    0.0000 N   0  0  3  0  0  0  0  0  0  0  0  0
    3.9170   -0.1824    0.0000 N   0  0  3  0  0  0  0  0  0  0  0  0
    3.7891   -2.8561    0.0000 N   0  0  0  0  0  0  0  0  0  0  0  0
    3.7360    1.5401    0.0000 C   0  0  2  0  0  0  0  0  0  0  0  0
    4.7141    1.7480    0.0000 C   0  0  0  0  0  0  0  0  0  0  0  0
    3.2360    2.4061    0.0000 C   0  0  0  0  0  0  0  0  0  0  0  0
    4.8187    2.7426    0.0000 C   0  0  0  0  0  0  0  0  0  0  0  0
    3.3292    0.6266    0.0000 C   0  0  0  0  0  0  0  0  0  0  0  0
    3.6972    4.1274    0.0000 C   0  0  0  0  0  0  0  0  0  0  0  0
    3.5103   -1.0960    0.0000 C   0  0  0  0  0  0  0  0  0  0  0  0
    4.4403    4.7966    0.0000 C   0  0  0  0  0  0  0  0  0  0  0  0
    4.9116   -0.0779    0.0000 C   0  0  0  0  0  0  0  0  0  0  0  0
    4.0981   -1.9050    0.0000 C   0  0  0  0  0  0  0  0  0  0  0  0
    5.3914    4.4876    0.0000 C   0  0  0  0  0  0  0  0  0  0  0  0
    4.2324    5.7747    0.0000 C   0  0  0  0  0  0  0  0  0  0  0  0
    6.1345    5.1567    0.0000 C   0  0  0  0  0  0  0  0  0  0  0  0
    4.9756    6.4438    0.0000 C   0  0  0  0  0  0  0  0  0  0  0  0
    5.0981   -1.9050    0.0000 C   0  0  0  0  0  0  0  0  0  0  0  0
    5.9266    6.1348    0.0000 C   0  0  0  0  0  0  0  0  0  0  0  0
    4.5981   -3.4438    0.0000 C   0  0  0  0  0  0  0  0  0  0  0  0
    4.5981   -4.4438    0.0000 C   0  0  0  0  0  0  0  0  0  0  0  0
    3.7320   -4.9438    0.0000 C   0  0  0  0  0  0  0  0  0  0  0  0
    5.4641   -4.9438    0.0000 C   0  0  0  0  0  0  0  0  0  0  0  0
    3.7320   -5.9438    0.0000 C   0  0  0  0  0  0  0  0  0  0  0  0
    5.4641   -5.9438    0.0000 C   0  0  0  0  0  0  0  0  0  0  0  0
    4.5981   -6.4438    0.0000 C   0  0  0  0  0  0  0  0  0  0  0  0
    2.0000   -4.9438    0.0000 C   0  0  0  0  0  0  0  0  0  0  0  0
    4.1262    1.0583    0.0000 H   0  0  0  0  0  0  0  0  0  0  0  0
    4.7789    1.1314    0.0000 H   0  0  0  0  0  0  0  0  0  0  0  0
    5.3341    1.7480    0.0000 H   0  0  0  0  0  0  0  0  0  0  0  0
    2.8211    2.8669    0.0000 H   0  0  0  0  0  0  0  0  0  0  0  0
    2.7344    2.0417    0.0000 H   0  0  0  0  0  0  0  0  0  0  0  0
    5.4251    2.6136    0.0000 H   0  0  0  0  0  0  0  0  0  0  0  0
    5.0102    3.3322    0.0000 H   0  0  0  0  0  0  0  0  0  0  0  0
    2.8152    0.9733    0.0000 H   0  0  0  0  0  0  0  0  0  0  0  0
    2.8986    0.1806    0.0000 H   0  0  0  0  0  0  0  0  0  0  0  0
    3.3686    4.6532    0.0000 H   0  0  0  0  0  0  0  0  0  0  0  0
    3.1223    3.8952    0.0000 H   0  0  0  0  0  0  0  0  0  0  0  0
    2.9963   -0.7493    0.0000 H   0  0  0  0  0  0  0  0  0  0  0  0
    3.0796   -1.5420    0.0000 H   0  0  0  0  0  0  0  0  0  0  0  0
    4.9764   -0.6945    0.0000 H   0  0  0  0  0  0  0  0  0  0  0  0
    5.5282   -0.0131    0.0000 H   0  0  0  0  0  0  0  0  0  0  0  0
    4.8467    0.5387    0.0000 H   0  0  0  0  0  0  0  0  0  0  0  0
    5.5203    3.8811    0.0000 H   0  0  0  0  0  0  0  0  0  0  0  0
    3.6428    5.9663    0.0000 H   0  0  0  0  0  0  0  0  0  0  0  0
    6.7242    4.9651    0.0000 H   0  0  0  0  0  0  0  0  0  0  0  0
    4.8467    7.0503    0.0000 H   0  0  0  0  0  0  0  0  0  0  0  0
    5.4625   -1.4034    0.0000 H   0  0  0  0  0  0  0  0  0  0  0  0
    6.3874    6.5497    0.0000 H   0  0  0  0  0  0  0  0  0  0  0  0
    6.0010   -4.6338    0.0000 H   0  0  0  0  0  0  0  0  0  0  0  0
    3.1951   -6.2538    0.0000 H   0  0  0  0  0  0  0  0  0  0  0  0
    4.5981   -7.0638    0.0000 H   0  0  0  0  0  0  0  0  0  0  0  0
    1.6900   -4.4069    0.0000 H   0  0  0  0  0  0  0  0  0  0  0  0
    1.4631   -5.2538    0.0000 H   0  0  0  0  0  0  0  0  0  0  0  0
    2.3100   -5.4808    0.0000 H   0  0  0  0  0  0  0  0  0  0  0  0
  1 28  1  0  0  0  0
  2 21  1  0  0  0  0
  2 23  1  0  0  0  0
  3 25  1  0  0  0  0
  3 30  1  0  0  0  0
  4  9  1  0  0  0  0
  4 10  1  0  0  0  0
  4 12  1  0  0  0  0
  5 11  1  0  0  0  0
  5 13  1  0  0  0  0
  5 15  1  0  0  0  0
  6 16  1  0  0  0  0
  6 23  2  0  0  0  0
  7  8  1  0  0  0  0
  7  9  1  0  0  0  0
  7 11  1  1  0  0  0
  7 31  1  0  0  0  0
  8 10  1  0  0  0  0
  8 32  1  0  0  0  0
  8 33  1  0  0  0  0
  9 34  1  0  0  0  0
  9 35  1  0  0  0  0
 10 36  1  0  0  0  0
 10 37  1  0  0  0  0
 11 38  1  0  0  0  0
 11 39  1  0  0  0  0
 12 14  1  0  0  0  0
 12 40  1  0  0  0  0
 12 41  1  0  0  0  0
 13 16  1  0  0  0  0
 13 42  1  0  0  0  0
 13 43  1  0  0  0  0
 14 17  2  0  0  0  0
 14 18  1  0  0  0  0
 15 44  1  0  0  0  0
 15 45  1  0  0  0  0
 15 46  1  0  0  0  0
 16 21  2  0  0  0  0
 17 19  1  0  0  0  0
 17 47  1  0  0  0  0
 18 20  2  0  0  0  0
 18 48  1  0  0  0  0
 19 22  2  0  0  0  0
 19 49  1  0  0  0  0
 20 22  1  0  0  0  0
 20 50  1  0  0  0  0
 21 51  1  0  0  0  0
 22 52  1  0  0  0  0
 23 24  1  0  0  0  0
 24 25  2  0  0  0  0
 24 26  1  0  0  0  0
 25 27  1  0  0  0  0
 26 28  2  0  0  0  0
 26 53  1  0  0  0  0
 27 29  2  0  0  0  0
 27 54  1  0  0  0  0
 28 29  1  0  0  0  0
 29 55  1  0  0  0  0
 30 56  1  0  0  0  0
 30 57  1  0  0  0  0
 30 58  1  0  0  0  0
M  END
> <PUBCHEM_COMPOUND_CID>
44304643

> <PUBCHEM_COMPOUND_CANONICALIZED>
1

> <PUBCHEM_CACTVS_COMPLEXITY>
519

> <PUBCHEM_CACTVS_HBOND_ACCEPTOR>
5

> <PUBCHEM_CACTVS_HBOND_DONOR>
0

> <PUBCHEM_CACTVS_ROTATABLE_BOND>
8

> <PUBCHEM_CACTVS_SUBSKEYS>
AAADceB7MAAAEAAAAAAAAAAAAAAAAWLAAAAwYAAAAAAAAAAB0AAAHgBAAAABrQzhngYyhpMIFECoAy1y1ASCiCAvYiQIiCG/LPgOZ76E9TufOWjn5BGYq5eYyCCOABAAEAAIAAAAIAAgABAAAAAAAAAAAA==

> <PUBCHEM_IUPAC_OPENEYE_NAME>
1-[(3S)-1-benzylpyrrolidin-3-yl]-N-[[2-(5-bromo-2-methoxy-phenyl)oxazol-4-yl]methyl]-N-methyl-methanamine

> <PUBCHEM_IUPAC_CAS_NAME>
N-[[2-(5-bromo-2-methoxyphenyl)-4-oxazolyl]methyl]-N-methyl-1-[(3S)-1-(phenylmethyl)-3-pyrrolidinyl]methanamine

> <PUBCHEM_IUPAC_NAME_MARKUP>
1-[(3<I>S</I>)-1-benzylpyrrolidin-3-yl]-<I>N</I>-[[2-(5-bromo-2-methoxyphenyl)-1,3-oxazol-4-yl]methyl]-<I>N</I>-methylmethanamine

> <PUBCHEM_IUPAC_NAME>
1-[(3S)-1-benzylpyrrolidin-3-yl]-N-[[2-(5-bromo-2-methoxyphenyl)-1,3-oxazol-4-yl]methyl]-N-methylmethanamine

> <PUBCHEM_IUPAC_SYSTEMATIC_NAME>
N-[[2-(5-bromanyl-2-methoxy-phenyl)-1,3-oxazol-4-yl]methyl]-N-methyl-1-[(3S)-1-(phenylmethyl)pyrrolidin-3-yl]methanamine

> <PUBCHEM_IUPAC_TRADITIONAL_NAME>
[(3S)-1-benzylpyrrolidin-3-yl]methyl-[[2-(5-bromo-2-methoxy-phenyl)oxazol-4-yl]methyl]-methyl-amine

> <PUBCHEM_IUPAC_INCHI>
InChI=1S/C24H28BrN3O2/c1-27(13-19-10-11-28(15-19)14-18-6-4-3-5-7-18)16-21-17-30-24(26-21)22-12-20(25)8-9-23(22)29-2/h3-9,12,17,19H,10-11,13-16H2,1-2H3/t19-/m0/s1

> <PUBCHEM_IUPAC_INCHIKEY>
LJXKPIFQYYNLTO-IBGZPJMESA-N

> <PUBCHEM_XLOGP3_AA>
4.5

> <PUBCHEM_EXACT_MASS>
469.13649

> <PUBCHEM_MOLECULAR_FORMULA>
C24H28BrN3O2

> <PUBCHEM_MOLECULAR_WEIGHT>
470.4

> <PUBCHEM_OPENEYE_CAN_SMILES>
CN(CC1CCN(C1)CC2=CC=CC=C2)CC3=COC(=N3)C4=C(C=CC(=C4)Br)OC

> <PUBCHEM_OPENEYE_ISO_SMILES>
CN(C[C@@H]1CCN(C1)CC2=CC=CC=C2)CC3=COC(=N3)C4=C(C=CC(=C4)Br)OC

> <PUBCHEM_CACTVS_TPSA>
41.7

> <PUBCHEM_MONOISOTOPIC_WEIGHT>
469.13649

> <PUBCHEM_TOTAL_CHARGE>
0

> <PUBCHEM_HEAVY_ATOM_COUNT>
30

> <PUBCHEM_ATOM_DEF_STEREO_COUNT>
1

> <PUBCHEM_ATOM_UDEF_STEREO_COUNT>
0

> <PUBCHEM_BOND_DEF_STEREO_COUNT>
0

> <PUBCHEM_BOND_UDEF_STEREO_COUNT>
0

> <PUBCHEM_ISOTOPIC_ATOM_COUNT>
0

> <PUBCHEM_COMPONENT_COUNT>
1

> <PUBCHEM_CACTVS_TAUTO_COUNT>
-1

> <PUBCHEM_COORDINATE_TYPE>
1
5
255

> <PUBCHEM_BONDANNOTATIONS>
14  17  8
14  18  8
16  21  8
17  19  8
18  20  8
19  22  8
2  21  8
2  23  8
20  22  8
24  25  8
24  26  8
25  27  8
26  28  8
27  29  8
28  29  8
6  16  8
6  23  8
7  11  5

$$$$
