11384146
  -OEChem-09292322522D

 49 52  0     1  0  0  0  0  0999 V2000
    2.0000   -0.6206    0.0000 Cl  0  0  0  0  0  0  0  0  0  0  0  0
    5.4641   -0.6206    0.0000 S   0  0  0  0  0  0  0  0  0  0  0  0
    4.9641    0.2454    0.0000 O   0  0  0  0  0  0  0  0  0  0  0  0
    5.9641   -1.4866    0.0000 O   0  0  0  0  0  0  0  0  0  0  0  0
   11.5719    1.7537    0.0000 N   0  0  3  0  0  0  0  0  0  0  0  0
    9.8744   -1.9253    0.0000 N   0  0  0  0  0  0  0  0  0  0  0  0
    6.3301   -0.1206    0.0000 N   0  0  0  0  0  0  0  0  0  0  0  0
   11.1636    0.8409    0.0000 C   0  0  2  0  0  0  0  0  0  0  0  0
   11.9056    0.1705    0.0000 C   0  0  0  0  0  0  0  0  0  0  0  0
   12.7725    0.6690    0.0000 C   0  0  0  0  0  0  0  0  0  0  0  0
   12.5662    1.6475    0.0000 C   0  0  0  0  0  0  0  0  0  0  0  0
   10.1851    0.6347    0.0000 C   0  0  0  0  0  0  0  0  0  0  0  0
    9.8744   -0.3159    0.0000 C   0  0  0  0  0  0  0  0  0  0  0  0
   11.0734    2.6206    0.0000 C   0  0  0  0  0  0  0  0  0  0  0  0
    8.9282   -0.6206    0.0000 C   0  0  0  0  0  0  0  0  0  0  0  0
   10.4580   -1.1206    0.0000 C   0  0  0  0  0  0  0  0  0  0  0  0
    8.9282   -1.6206    0.0000 C   0  0  0  0  0  0  0  0  0  0  0  0
    8.0622   -0.1206    0.0000 C   0  0  0  0  0  0  0  0  0  0  0  0
    8.0622   -2.1206    0.0000 C   0  0  0  0  0  0  0  0  0  0  0  0
    7.1962   -0.6206    0.0000 C   0  0  0  0  0  0  0  0  0  0  0  0
    7.1962   -1.6206    0.0000 C   0  0  0  0  0  0  0  0  0  0  0  0
    4.5981   -1.1206    0.0000 C   0  0  0  0  0  0  0  0  0  0  0  0
    3.7320   -0.6206    0.0000 C   0  0  0  0  0  0  0  0  0  0  0  0
    4.5981   -2.1206    0.0000 C   0  0  0  0  0  0  0  0  0  0  0  0
    2.8660   -1.1206    0.0000 C   0  0  0  0  0  0  0  0  0  0  0  0
    3.7320   -2.6206    0.0000 C   0  0  0  0  0  0  0  0  0  0  0  0
    2.8660   -2.1206    0.0000 C   0  0  0  0  0  0  0  0  0  0  0  0
   10.7742    1.3234    0.0000 H   0  0  0  0  0  0  0  0  0  0  0  0
   11.4441   -0.2436    0.0000 H   0  0  0  0  0  0  0  0  0  0  0  0
   12.2691   -0.3318    0.0000 H   0  0  0  0  0  0  0  0  0  0  0  0
   13.0237    0.1021    0.0000 H   0  0  0  0  0  0  0  0  0  0  0  0
   13.3625    0.8595    0.0000 H   0  0  0  0  0  0  0  0  0  0  0  0
   13.1830    1.7112    0.0000 H   0  0  0  0  0  0  0  0  0  0  0  0
   12.5673    2.2675    0.0000 H   0  0  0  0  0  0  0  0  0  0  0  0
   10.1645    1.2543    0.0000 H   0  0  0  0  0  0  0  0  0  0  0  0
    9.5713    0.7220    0.0000 H   0  0  0  0  0  0  0  0  0  0  0  0
   11.6109    2.9297    0.0000 H   0  0  0  0  0  0  0  0  0  0  0  0
   10.7643    3.1581    0.0000 H   0  0  0  0  0  0  0  0  0  0  0  0
   10.5359    2.3115    0.0000 H   0  0  0  0  0  0  0  0  0  0  0  0
   11.0780   -1.1206    0.0000 H   0  0  0  0  0  0  0  0  0  0  0  0
   10.0670   -2.5147    0.0000 H   0  0  0  0  0  0  0  0  0  0  0  0
    8.0622    0.4994    0.0000 H   0  0  0  0  0  0  0  0  0  0  0  0
    8.0622   -2.7406    0.0000 H   0  0  0  0  0  0  0  0  0  0  0  0
    6.6592   -1.9306    0.0000 H   0  0  0  0  0  0  0  0  0  0  0  0
    6.3301    0.4994    0.0000 H   0  0  0  0  0  0  0  0  0  0  0  0
    3.7320   -0.0006    0.0000 H   0  0  0  0  0  0  0  0  0  0  0  0
    5.1350   -2.4306    0.0000 H   0  0  0  0  0  0  0  0  0  0  0  0
    3.7320   -3.2406    0.0000 H   0  0  0  0  0  0  0  0  0  0  0  0
    2.3291   -2.4306    0.0000 H   0  0  0  0  0  0  0  0  0  0  0  0
  1 25  1  0  0  0  0
  2  3  2  0  0  0  0
  2  4  2  0  0  0  0
  2  7  1  0  0  0  0
  2 22  1  0  0  0  0
  5  8  1  0  0  0  0
  5 11  1  0  0  0  0
  5 14  1  0  0  0  0
  6 16  1  0  0  0  0
  6 17  1  0  0  0  0
  6 41  1  0  0  0  0
  7 20  1  0  0  0  0
  7 45  1  0  0  0  0
  8  9  1  0  0  0  0
  8 12  1  6  0  0  0
  8 28  1  0  0  0  0
  9 10  1  0  0  0  0
  9 29  1  0  0  0  0
  9 30  1  0  0  0  0
 10 11  1  0  0  0  0
 10 31  1  0  0  0  0
 10 32  1  0  0  0  0
 11 33  1  0  0  0  0
 11 34  1  0  0  0  0
 12 13  1  0  0  0  0
 12 35  1  0  0  0  0
 12 36  1  0  0  0  0
 13 15  1  0  0  0  0
 13 16  2  0  0  0  0
 14 37  1  0  0  0  0
 14 38  1  0  0  0  0
 14 39  1  0  0  0  0
 15 17  2  0  0  0  0
 15 18  1  0  0  0  0
 16 40  1  0  0  0  0
 17 19  1  0  0  0  0
 18 20  2  0  0  0  0
 18 42  1  0  0  0  0
 19 21  2  0  0  0  0
 19 43  1  0  0  0  0
 20 21  1  0  0  0  0
 21 44  1  0  0  0  0
 22 23  2  0  0  0  0
 22 24  1  0  0  0  0
 23 25  1  0  0  0  0
 23 46  1  0  0  0  0
 24 26  2  0  0  0  0
 24 47  1  0  0  0  0
 25 27  2  0  0  0  0
 26 27  1  0  0  0  0
 26 48  1  0  0  0  0
 27 49  1  0  0  0  0
M  END
> <PUBCHEM_COMPOUND_CID>
11384146

> <PUBCHEM_COMPOUND_CANONICALIZED>
1

> <PUBCHEM_CACTVS_COMPLEXITY>
611

> <PUBCHEM_CACTVS_HBOND_ACCEPTOR>
4

> <PUBCHEM_CACTVS_HBOND_DONOR>
2

> <PUBCHEM_CACTVS_ROTATABLE_BOND>
5

> <PUBCHEM_CACTVS_SUBSKEYS>
AAADceB7MABEAAAAAAAAAAAAAAAAAWLAAAAwYAAAAAAAAFgB9AAAHAYQQAAADCrBXiQ+wfPJkAKgAzRnRHDCgDAxByAI2bg4ZpgIIOLBk5GEIAhgkADIyAcQgMAOgACAQBACAAAAAQCAIAQAAAAAAAAAAA==

> <PUBCHEM_IUPAC_OPENEYE_NAME>
3-chloro-N-[3-[[(2R)-1-methylpyrrolidin-2-yl]methyl]-1H-indol-5-yl]benzenesulfonamide

> <PUBCHEM_IUPAC_CAS_NAME>
3-chloro-N-[3-[[(2R)-1-methyl-2-pyrrolidinyl]methyl]-1H-indol-5-yl]benzenesulfonamide

> <PUBCHEM_IUPAC_NAME_MARKUP>
3-chloro-<I>N</I>-[3-[[(2<I>R</I>)-1-methylpyrrolidin-2-yl]methyl]-1<I>H</I>-indol-5-yl]benzenesulfonamide

> <PUBCHEM_IUPAC_NAME>
3-chloro-N-[3-[[(2R)-1-methylpyrrolidin-2-yl]methyl]-1H-indol-5-yl]benzenesulfonamide

> <PUBCHEM_IUPAC_SYSTEMATIC_NAME>
3-chloranyl-N-[3-[[(2R)-1-methylpyrrolidin-2-yl]methyl]-1H-indol-5-yl]benzenesulfonamide

> <PUBCHEM_IUPAC_TRADITIONAL_NAME>
3-chloro-N-[3-[[(2R)-1-methylpyrrolidin-2-yl]methyl]-1H-indol-5-yl]benzenesulfonamide

> <PUBCHEM_IUPAC_INCHI>
InChI=1S/C20H22ClN3O2S/c1-24-9-3-5-17(24)10-14-13-22-20-8-7-16(12-19(14)20)23-27(25,26)18-6-2-4-15(21)11-18/h2,4,6-8,11-13,17,22-23H,3,5,9-10H2,1H3/t17-/m1/s1

> <PUBCHEM_IUPAC_INCHIKEY>
HJRBYTHOWGFPSH-QGZVFWFLSA-N

> <PUBCHEM_XLOGP3_AA>
4.1

> <PUBCHEM_EXACT_MASS>
403.1121258

> <PUBCHEM_MOLECULAR_FORMULA>
C20H22ClN3O2S

> <PUBCHEM_MOLECULAR_WEIGHT>
403.9

> <PUBCHEM_OPENEYE_CAN_SMILES>
CN1CCCC1CC2=CNC3=C2C=C(C=C3)NS(=O)(=O)C4=CC(=CC=C4)Cl

> <PUBCHEM_OPENEYE_ISO_SMILES>
CN1CCC[C@@H]1CC2=CNC3=C2C=C(C=C3)NS(=O)(=O)C4=CC(=CC=C4)Cl

> <PUBCHEM_CACTVS_TPSA>
73.6

> <PUBCHEM_MONOISOTOPIC_WEIGHT>
403.1121258

> <PUBCHEM_TOTAL_CHARGE>
0

> <PUBCHEM_HEAVY_ATOM_COUNT>
27

> <PUBCHEM_ATOM_DEF_STEREO_COUNT>
1

> <PUBCHEM_ATOM_UDEF_STEREO_COUNT>
0

> <PUBCHEM_BOND_DEF_STEREO_COUNT>
0

> <PUBCHEM_BOND_UDEF_STEREO_COUNT>
0

> <PUBCHEM_ISOTOPIC_ATOM_COUNT>
0

> <PUBCHEM_COMPONENT_COUNT>
1

> <PUBCHEM_CACTVS_TAUTO_COUNT>
-1

> <PUBCHEM_COORDINATE_TYPE>
1
5
255

> <PUBCHEM_BONDANNOTATIONS>
13  15  8
13  16  8
15  17  8
15  18  8
17  19  8
18  20  8
19  21  8
20  21  8
22  23  8
22  24  8
23  25  8
24  26  8
25  27  8
26  27  8
6  16  8
6  17  8
8  12  6

$$$$
