46227325
  -OEChem-09292322482D

 41 43  0     1  0  0  0  0  0999 V2000
    2.0024   -2.7125    0.0000 O   0  0  0  0  0  0  0  0  0  0  0  0
    5.5204    2.3326    0.0000 N   0  0  3  0  0  0  0  0  0  0  0  0
    4.6544    0.8326    0.0000 C   0  0  0  0  0  0  0  0  0  0  0  0
    4.6544    1.8326    0.0000 C   0  0  0  0  0  0  0  0  0  0  0  0
    3.7884    0.3326    0.0000 C   0  0  0  0  0  0  0  0  0  0  0  0
    6.3864    1.8326    0.0000 C   0  0  0  0  0  0  0  0  0  0  0  0
    3.7884   -0.6674    0.0000 C   0  0  0  0  0  0  0  0  0  0  0  0
    5.5204   -0.6674    0.0000 C   0  0  0  0  0  0  0  0  0  0  0  0
    4.6544   -1.1675    0.0000 C   0  0  0  0  0  0  0  0  0  0  0  0
    6.3864    0.8326    0.0000 C   0  0  0  0  0  0  0  0  0  0  0  0
    5.5204    0.3326    0.0000 C   0  0  0  0  0  0  0  0  0  0  0  0
    5.5204    3.3326    0.0000 C   0  0  0  0  0  0  0  0  0  0  0  0
    2.8784   -1.1743    0.0000 C   0  0  0  0  0  0  0  0  0  0  0  0
    4.6704   -2.2090    0.0000 C   0  0  0  0  0  0  0  0  0  0  0  0
    7.7978    0.2554    0.0000 C   0  0  0  0  0  0  0  0  0  0  0  0
    5.3146   -1.1782    0.0000 C   0  0  0  0  0  0  0  0  0  0  0  0
    2.8703   -2.2159    0.0000 C   0  0  0  0  0  0  0  0  0  0  0  0
    3.7724   -2.7367    0.0000 C   0  0  0  0  0  0  0  0  0  0  0  0
    7.9009   -1.2658    0.0000 C   0  0  0  0  0  0  0  0  0  0  0  0
    6.5804   -2.0282    0.0000 C   0  0  0  0  0  0  0  0  0  0  0  0
    4.8665    0.2499    0.0000 H   0  0  0  0  0  0  0  0  0  0  0  0
    5.2650    0.9402    0.0000 H   0  0  0  0  0  0  0  0  0  0  0  0
    4.4423    2.4152    0.0000 H   0  0  0  0  0  0  0  0  0  0  0  0
    4.0438    1.7249    0.0000 H   0  0  0  0  0  0  0  0  0  0  0  0
    3.5763    0.9152    0.0000 H   0  0  0  0  0  0  0  0  0  0  0  0
    3.1778    0.2249    0.0000 H   0  0  0  0  0  0  0  0  0  0  0  0
    6.9970    1.7249    0.0000 H   0  0  0  0  0  0  0  0  0  0  0  0
    6.5985    2.4152    0.0000 H   0  0  0  0  0  0  0  0  0  0  0  0
    5.7325   -1.2501    0.0000 H   0  0  0  0  0  0  0  0  0  0  0  0
    6.1310   -0.5598    0.0000 H   0  0  0  0  0  0  0  0  0  0  0  0
    6.1404    3.3326    0.0000 H   0  0  0  0  0  0  0  0  0  0  0  0
    5.5204    3.9526    0.0000 H   0  0  0  0  0  0  0  0  0  0  0  0
    4.9004    3.3326    0.0000 H   0  0  0  0  0  0  0  0  0  0  0  0
    2.3450   -0.8581    0.0000 H   0  0  0  0  0  0  0  0  0  0  0  0
    5.2109   -2.5127    0.0000 H   0  0  0  0  0  0  0  0  0  0  0  0
    8.3005    0.6183    0.0000 H   0  0  0  0  0  0  0  0  0  0  0  0
    4.7490   -1.4322    0.0000 H   0  0  0  0  0  0  0  0  0  0  0  0
    3.7748   -3.3567    0.0000 H   0  0  0  0  0  0  0  0  0  0  0  0
    8.4480   -1.5575    0.0000 H   0  0  0  0  0  0  0  0  0  0  0  0
    6.5594   -2.6479    0.0000 H   0  0  0  0  0  0  0  0  0  0  0  0
    2.0000   -3.3326    0.0000 H   0  0  0  0  0  0  0  0  0  0  0  0
  1 17  1  0  0  0  0
  1 41  1  0  0  0  0
  2  4  1  0  0  0  0
  2  6  1  0  0  0  0
  2 12  1  0  0  0  0
  3  4  1  0  0  0  0
  3  5  1  0  0  0  0
  3 21  1  0  0  0  0
  3 22  1  0  0  0  0
  4 23  1  0  0  0  0
  4 24  1  0  0  0  0
  5  7  1  0  0  0  0
  5 25  1  0  0  0  0
  5 26  1  0  0  0  0
  6 10  1  0  0  0  0
  6 27  1  0  0  0  0
  6 28  1  0  0  0  0
  7  9  2  0  0  0  0
  7 13  1  0  0  0  0
  8  9  1  0  0  0  0
  8 11  1  0  0  0  0
  8 29  1  0  0  0  0
  8 30  1  0  0  0  0
  9 14  1  0  0  0  0
 10 11  1  0  0  0  0
 10 15  2  0  0  0  0
 11 16  2  0  0  0  0
 12 31  1  0  0  0  0
 12 32  1  0  0  0  0
 12 33  1  0  0  0  0
 13 17  2  0  0  0  0
 13 34  1  0  0  0  0
 14 18  2  0  0  0  0
 14 35  1  0  0  0  0
 15 19  1  0  0  0  0
 15 36  1  0  0  0  0
 16 20  1  0  0  0  0
 16 37  1  0  0  0  0
 17 18  1  0  0  0  0
 18 38  1  0  0  0  0
 19 20  2  0  0  0  0
 19 39  1  0  0  0  0
 20 40  1  0  0  0  0
M  END
> <PUBCHEM_COMPOUND_CID>
46227325

> <PUBCHEM_COMPOUND_CANONICALIZED>
1

> <PUBCHEM_CACTVS_COMPLEXITY>
306

> <PUBCHEM_CACTVS_HBOND_ACCEPTOR>
2

> <PUBCHEM_CACTVS_HBOND_DONOR>
1

> <PUBCHEM_CACTVS_ROTATABLE_BOND>
0

> <PUBCHEM_CACTVS_SUBSKEYS>
AAADceB6IAAAAAAAAAAAAAAAAAAAAAAAAAAwYAAAAAAAAACxQAAAHgAACAAADATBmAQyBoMAAgCAAiBCAACCAAAgIAAIiAAODIgIJiKCkROEcAhkwBGImAeQwPAOoAABAAAQAABAAAIAACAAAAAAAAAAAA==

> <PUBCHEM_IUPAC_OPENEYE_NAME>
10-methyl-10-azatricyclo[12.4.0.03,8]octadeca-1(14),3,5,7,15,17-hexaen-16-ol

> <PUBCHEM_IUPAC_CAS_NAME>
10-methyl-10-azatricyclo[12.4.0.03,8]octadeca-1(14),3,5,7,15,17-hexaen-16-ol

> <PUBCHEM_IUPAC_NAME_MARKUP>
10-methyl-10-azatricyclo[12.4.0.0<SUP>3,8</SUP>]octadeca-1(14),3,5,7,15,17-hexaen-16-ol

> <PUBCHEM_IUPAC_NAME>
10-methyl-10-azatricyclo[12.4.0.03,8]octadeca-1(14),3,5,7,15,17-hexaen-16-ol

> <PUBCHEM_IUPAC_SYSTEMATIC_NAME>
10-methyl-10-azatricyclo[12.4.0.03,8]octadeca-1(14),3,5,7,15,17-hexaen-16-ol

> <PUBCHEM_IUPAC_TRADITIONAL_NAME>
10-methyl-10-azatricyclo[12.4.0.03,8]octadeca-1(14),3,5,7,15,17-hexaen-16-ol

> <PUBCHEM_IUPAC_INCHI>
InChI=1S/C18H21NO/c1-19-10-4-7-15-12-18(20)9-8-16(15)11-14-5-2-3-6-17(14)13-19/h2-3,5-6,8-9,12,20H,4,7,10-11,13H2,1H3

> <PUBCHEM_IUPAC_INCHIKEY>
CYPJQZCDRFFIJS-UHFFFAOYSA-N

> <PUBCHEM_XLOGP3_AA>
3.7

> <PUBCHEM_EXACT_MASS>
267.162314293

> <PUBCHEM_MOLECULAR_FORMULA>
C18H21NO

> <PUBCHEM_MOLECULAR_WEIGHT>
267.4

> <PUBCHEM_OPENEYE_CAN_SMILES>
CN1CCCC2=C(CC3=CC=CC=C3C1)C=CC(=C2)O

> <PUBCHEM_OPENEYE_ISO_SMILES>
CN1CCCC2=C(CC3=CC=CC=C3C1)C=CC(=C2)O

> <PUBCHEM_CACTVS_TPSA>
23.5

> <PUBCHEM_MONOISOTOPIC_WEIGHT>
267.162314293

> <PUBCHEM_TOTAL_CHARGE>
0

> <PUBCHEM_HEAVY_ATOM_COUNT>
20

> <PUBCHEM_ATOM_DEF_STEREO_COUNT>
0

> <PUBCHEM_ATOM_UDEF_STEREO_COUNT>
0

> <PUBCHEM_BOND_DEF_STEREO_COUNT>
0

> <PUBCHEM_BOND_UDEF_STEREO_COUNT>
0

> <PUBCHEM_ISOTOPIC_ATOM_COUNT>
0

> <PUBCHEM_COMPONENT_COUNT>
1

> <PUBCHEM_CACTVS_TAUTO_COUNT>
-1

> <PUBCHEM_COORDINATE_TYPE>
1
5
255

> <PUBCHEM_BONDANNOTATIONS>
10  11  8
10  15  8
11  16  8
13  17  8
14  18  8
15  19  8
16  20  8
17  18  8
19  20  8
7  13  8
7  9  8
9  14  8

$$$$
