44394675
  -OEChem-09292322092D

 53 56  0     1  0  0  0  0  0999 V2000
    2.0000    0.9558    0.0000 O   0  0  0  0  0  0  0  0  0  0  0  0
    2.0000   -7.0442    0.0000 O   0  0  0  0  0  0  0  0  0  0  0  0
    3.2320    3.4946    0.0000 N   0  0  3  0  0  0  0  0  0  0  0  0
    3.7320    0.9558    0.0000 N   0  0  0  0  0  0  0  0  0  0  0  0
    3.7320    1.9558    0.0000 C   0  0  3  0  0  0  0  0  0  0  0  0
    4.5411    2.5435    0.0000 C   0  0  0  0  0  0  0  0  0  0  0  0
    2.9230    2.5435    0.0000 C   0  0  0  0  0  0  0  0  0  0  0  0
    4.2320    3.4946    0.0000 C   0  0  0  0  0  0  0  0  0  0  0  0
    2.6443    4.3036    0.0000 C   0  0  0  0  0  0  0  0  0  0  0  0
    3.0510    5.2172    0.0000 C   0  0  0  0  0  0  0  0  0  0  0  0
    2.8660    0.4558    0.0000 C   0  0  0  0  0  0  0  0  0  0  0  0
    2.4632    6.0262    0.0000 C   0  0  0  0  0  0  0  0  0  0  0  0
    4.0455    5.3217    0.0000 C   0  0  0  0  0  0  0  0  0  0  0  0
    2.8660   -0.5442    0.0000 C   0  0  0  0  0  0  0  0  0  0  0  0
    2.8699    6.9397    0.0000 C   0  0  0  0  0  0  0  0  0  0  0  0
    4.4523    6.2352    0.0000 C   0  0  0  0  0  0  0  0  0  0  0  0
    2.0000   -1.0442    0.0000 C   0  0  0  0  0  0  0  0  0  0  0  0
    3.7320   -1.0442    0.0000 C   0  0  0  0  0  0  0  0  0  0  0  0
    3.8645    7.0442    0.0000 C   0  0  0  0  0  0  0  0  0  0  0  0
    2.8660   -2.5442    0.0000 C   0  0  0  0  0  0  0  0  0  0  0  0
    2.0000   -2.0442    0.0000 C   0  0  0  0  0  0  0  0  0  0  0  0
    3.7320   -2.0442    0.0000 C   0  0  0  0  0  0  0  0  0  0  0  0
    2.8660   -3.5442    0.0000 C   0  0  0  0  0  0  0  0  0  0  0  0
    3.7320   -4.0442    0.0000 C   0  0  0  0  0  0  0  0  0  0  0  0
    2.0000   -4.0442    0.0000 C   0  0  0  0  0  0  0  0  0  0  0  0
    3.7320   -5.0442    0.0000 C   0  0  0  0  0  0  0  0  0  0  0  0
    2.0000   -5.0442    0.0000 C   0  0  0  0  0  0  0  0  0  0  0  0
    2.8660   -5.5442    0.0000 C   0  0  0  0  0  0  0  0  0  0  0  0
    2.8660   -6.5442    0.0000 C   0  0  0  0  0  0  0  0  0  0  0  0
    4.2845    1.6743    0.0000 H   0  0  0  0  0  0  0  0  0  0  0  0
    4.8511    2.0066    0.0000 H   0  0  0  0  0  0  0  0  0  0  0  0
    5.1075    2.7957    0.0000 H   0  0  0  0  0  0  0  0  0  0  0  0
    2.3566    2.7957    0.0000 H   0  0  0  0  0  0  0  0  0  0  0  0
    2.6130    2.0066    0.0000 H   0  0  0  0  0  0  0  0  0  0  0  0
    4.8385    3.6235    0.0000 H   0  0  0  0  0  0  0  0  0  0  0  0
    4.1672    4.1112    0.0000 H   0  0  0  0  0  0  0  0  0  0  0  0
    2.1303    4.6503    0.0000 H   0  0  0  0  0  0  0  0  0  0  0  0
    2.2136    3.8576    0.0000 H   0  0  0  0  0  0  0  0  0  0  0  0
    4.2690    0.6458    0.0000 H   0  0  0  0  0  0  0  0  0  0  0  0
    1.8466    5.9614    0.0000 H   0  0  0  0  0  0  0  0  0  0  0  0
    4.4100    4.8201    0.0000 H   0  0  0  0  0  0  0  0  0  0  0  0
    2.5055    7.4413    0.0000 H   0  0  0  0  0  0  0  0  0  0  0  0
    5.0689    6.3000    0.0000 H   0  0  0  0  0  0  0  0  0  0  0  0
    1.4631   -0.7342    0.0000 H   0  0  0  0  0  0  0  0  0  0  0  0
    4.2690   -0.7342    0.0000 H   0  0  0  0  0  0  0  0  0  0  0  0
    4.1166    7.6106    0.0000 H   0  0  0  0  0  0  0  0  0  0  0  0
    1.4631   -2.3542    0.0000 H   0  0  0  0  0  0  0  0  0  0  0  0
    4.2690   -2.3542    0.0000 H   0  0  0  0  0  0  0  0  0  0  0  0
    4.2690   -3.7342    0.0000 H   0  0  0  0  0  0  0  0  0  0  0  0
    1.4631   -3.7342    0.0000 H   0  0  0  0  0  0  0  0  0  0  0  0
    4.2690   -5.3543    0.0000 H   0  0  0  0  0  0  0  0  0  0  0  0
    1.4631   -5.3543    0.0000 H   0  0  0  0  0  0  0  0  0  0  0  0
    3.4030   -6.8542    0.0000 H   0  0  0  0  0  0  0  0  0  0  0  0
  1 11  2  0  0  0  0
  2 29  2  0  0  0  0
  3  7  1  0  0  0  0
  3  8  1  0  0  0  0
  3  9  1  0  0  0  0
  4  5  1  0  0  0  0
  4 11  1  0  0  0  0
  4 39  1  0  0  0  0
  5  6  1  0  0  0  0
  5  7  1  0  0  0  0
  5 30  1  0  0  0  0
  6  8  1  0  0  0  0
  6 31  1  0  0  0  0
  6 32  1  0  0  0  0
  7 33  1  0  0  0  0
  7 34  1  0  0  0  0
  8 35  1  0  0  0  0
  8 36  1  0  0  0  0
  9 10  1  0  0  0  0
  9 37  1  0  0  0  0
  9 38  1  0  0  0  0
 10 12  2  0  0  0  0
 10 13  1  0  0  0  0
 11 14  1  0  0  0  0
 12 15  1  0  0  0  0
 12 40  1  0  0  0  0
 13 16  2  0  0  0  0
 13 41  1  0  0  0  0
 14 17  2  0  0  0  0
 14 18  1  0  0  0  0
 15 19  2  0  0  0  0
 15 42  1  0  0  0  0
 16 19  1  0  0  0  0
 16 43  1  0  0  0  0
 17 21  1  0  0  0  0
 17 44  1  0  0  0  0
 18 22  2  0  0  0  0
 18 45  1  0  0  0  0
 19 46  1  0  0  0  0
 20 21  2  0  0  0  0
 20 22  1  0  0  0  0
 20 23  1  0  0  0  0
 21 47  1  0  0  0  0
 22 48  1  0  0  0  0
 23 24  2  0  0  0  0
 23 25  1  0  0  0  0
 24 26  1  0  0  0  0
 24 49  1  0  0  0  0
 25 27  2  0  0  0  0
 25 50  1  0  0  0  0
 26 28  2  0  0  0  0
 26 51  1  0  0  0  0
 27 28  1  0  0  0  0
 27 52  1  0  0  0  0
 28 29  1  0  0  0  0
 29 53  1  0  0  0  0
M  END
> <PUBCHEM_COMPOUND_CID>
44394675

> <PUBCHEM_COMPOUND_CANONICALIZED>
1

> <PUBCHEM_CACTVS_COMPLEXITY>
529

> <PUBCHEM_CACTVS_HBOND_ACCEPTOR>
3

> <PUBCHEM_CACTVS_HBOND_DONOR>
1

> <PUBCHEM_CACTVS_ROTATABLE_BOND>
6

> <PUBCHEM_CACTVS_SUBSKEYS>
AAADceB7MAAAAAAAAAAAAAAAAAAAAWAAAAAwYMAAAAAAAAABUAAAHgAQAAAADCjhmAYwAIPAAACIAilSkACCAAAkAAAIiIEIBMgIYDKA1RGUIQhglgCIiYcYiMCOwAAAAAAAAACAAAAAAAAAAAAAAAAAAA==

> <PUBCHEM_IUPAC_OPENEYE_NAME>
N-(1-benzylpyrrolidin-3-yl)-4-(4-formylphenyl)benzamide

> <PUBCHEM_IUPAC_CAS_NAME>
4-(4-formylphenyl)-N-[1-(phenylmethyl)-3-pyrrolidinyl]benzamide

> <PUBCHEM_IUPAC_NAME_MARKUP>
<I>N</I>-(1-benzylpyrrolidin-3-yl)-4-(4-formylphenyl)benzamide

> <PUBCHEM_IUPAC_NAME>
N-(1-benzylpyrrolidin-3-yl)-4-(4-formylphenyl)benzamide

> <PUBCHEM_IUPAC_SYSTEMATIC_NAME>
4-(4-methanoylphenyl)-N-[1-(phenylmethyl)pyrrolidin-3-yl]benzamide

> <PUBCHEM_IUPAC_TRADITIONAL_NAME>
N-(1-benzylpyrrolidin-3-yl)-4-(4-formylphenyl)benzamide

> <PUBCHEM_IUPAC_INCHI>
InChI=1S/C25H24N2O2/c28-18-20-6-8-21(9-7-20)22-10-12-23(13-11-22)25(29)26-24-14-15-27(17-24)16-19-4-2-1-3-5-19/h1-13,18,24H,14-17H2,(H,26,29)

> <PUBCHEM_IUPAC_INCHIKEY>
BHDBAXKIQHUACJ-UHFFFAOYSA-N

> <PUBCHEM_XLOGP3_AA>
4

> <PUBCHEM_EXACT_MASS>
384.183778013

> <PUBCHEM_MOLECULAR_FORMULA>
C25H24N2O2

> <PUBCHEM_MOLECULAR_WEIGHT>
384.5

> <PUBCHEM_OPENEYE_CAN_SMILES>
C1CN(CC1NC(=O)C2=CC=C(C=C2)C3=CC=C(C=C3)C=O)CC4=CC=CC=C4

> <PUBCHEM_OPENEYE_ISO_SMILES>
C1CN(CC1NC(=O)C2=CC=C(C=C2)C3=CC=C(C=C3)C=O)CC4=CC=CC=C4

> <PUBCHEM_CACTVS_TPSA>
49.4

> <PUBCHEM_MONOISOTOPIC_WEIGHT>
384.183778013

> <PUBCHEM_TOTAL_CHARGE>
0

> <PUBCHEM_HEAVY_ATOM_COUNT>
29

> <PUBCHEM_ATOM_DEF_STEREO_COUNT>
0

> <PUBCHEM_ATOM_UDEF_STEREO_COUNT>
1

> <PUBCHEM_BOND_DEF_STEREO_COUNT>
0

> <PUBCHEM_BOND_UDEF_STEREO_COUNT>
0

> <PUBCHEM_ISOTOPIC_ATOM_COUNT>
0

> <PUBCHEM_COMPONENT_COUNT>
1

> <PUBCHEM_CACTVS_TAUTO_COUNT>
-1

> <PUBCHEM_COORDINATE_TYPE>
1
5
255

> <PUBCHEM_BONDANNOTATIONS>
10  12  8
10  13  8
12  15  8
13  16  8
14  17  8
14  18  8
15  19  8
16  19  8
17  21  8
18  22  8
20  21  8
20  22  8
23  24  8
23  25  8
24  26  8
25  27  8
26  28  8
27  28  8
5  4  3

$$$$
