155522663
  -OEChem-09292322412D

 68 70  0     1  0  0  0  0  0999 V2000
   12.0499    5.2967    0.0000 Cl  0  0  0  0  0  0  0  0  0  0  0  0
    6.0489    8.9860    0.0000 S   0  0  0  0  0  0  0  0  0  0  0  0
    8.1470    0.6200    0.0000 F   0  0  0  0  0  0  0  0  0  0  0  0
    4.6828    2.6200    0.0000 O   0  0  0  0  0  0  0  0  0  0  0  0
    7.7809    5.9860    0.0000 N   0  0  3  0  0  0  0  0  0  0  0  0
    4.2693    9.0793    0.0000 N   0  0  0  0  0  0  0  0  0  0  0  0
    5.0783   10.4805    0.0000 N   0  0  0  0  0  0  0  0  0  0  0  0
    4.1002   10.6885    0.0000 N   0  0  0  0  0  0  0  0  0  0  0  0
    6.9149    4.4860    0.0000 C   0  0  3  0  0  0  0  0  0  0  0  0
    6.4149    3.6200    0.0000 C   0  0  3  0  0  0  0  0  0  0  0  0
    5.9149    4.4860    0.0000 C   0  0  0  0  0  0  0  0  0  0  0  0
    7.7809    4.9860    0.0000 C   0  0  0  0  0  0  0  0  0  0  0  0
    6.4149    2.6200    0.0000 C   0  0  0  0  0  0  0  0  0  0  0  0
    8.6470    6.4860    0.0000 C   0  0  0  0  0  0  0  0  0  0  0  0
    6.9149    6.4860    0.0000 C   0  0  0  0  0  0  0  0  0  0  0  0
    5.5489    2.1200    0.0000 C   0  0  0  0  0  0  0  0  0  0  0  0
    7.2809    2.1200    0.0000 C   0  0  0  0  0  0  0  0  0  0  0  0
    6.9149    7.4860    0.0000 C   0  0  0  0  0  0  0  0  0  0  0  0
    8.6470    7.4860    0.0000 C   0  0  0  0  0  0  0  0  0  0  0  0
    9.5130    5.9860    0.0000 C   0  0  0  0  0  0  0  0  0  0  0  0
    5.5489    1.1200    0.0000 C   0  0  0  0  0  0  0  0  0  0  0  0
    7.2809    1.1200    0.0000 C   0  0  0  0  0  0  0  0  0  0  0  0
    6.4149    0.6200    0.0000 C   0  0  0  0  0  0  0  0  0  0  0  0
    6.0489    7.9860    0.0000 C   0  0  0  0  0  0  0  0  0  0  0  0
    3.8168    2.1200    0.0000 C   0  0  0  0  0  0  0  0  0  0  0  0
    5.1828    9.4860    0.0000 C   0  0  0  0  0  0  0  0  0  0  0  0
    3.6002    9.8224    0.0000 C   0  0  0  0  0  0  0  0  0  0  0  0
    4.0614    8.1011    0.0000 C   0  0  0  0  0  0  0  0  0  0  0  0
    2.6056    9.7179    0.0000 C   0  0  0  0  0  0  0  0  0  0  0  0
    2.1989    8.8044    0.0000 C   0  0  0  0  0  0  0  0  0  0  0  0
    2.0179   10.5269    0.0000 C   0  0  0  0  0  0  0  0  0  0  0  0
    1.2044    8.6998    0.0000 C   0  0  0  0  0  0  0  0  0  0  0  0
    1.0233   10.4224    0.0000 C   0  0  0  0  0  0  0  0  0  0  0  0
    0.6166    9.5088    0.0000 C   0  0  0  0  0  0  0  0  0  0  0  0
    6.7544    5.0849    0.0000 H   0  0  0  0  0  0  0  0  0  0  0  0
    7.0138    3.4595    0.0000 H   0  0  0  0  0  0  0  0  0  0  0  0
    5.8072    5.0966    0.0000 H   0  0  0  0  0  0  0  0  0  0  0  0
    5.3323    4.2740    0.0000 H   0  0  0  0  0  0  0  0  0  0  0  0
    7.9930    4.4034    0.0000 H   0  0  0  0  0  0  0  0  0  0  0  0
    8.3915    5.0937    0.0000 H   0  0  0  0  0  0  0  0  0  0  0  0
    8.1100    6.7960    0.0000 H   0  0  0  0  0  0  0  0  0  0  0  0
    6.3043    6.5937    0.0000 H   0  0  0  0  0  0  0  0  0  0  0  0
    6.7028    5.9034    0.0000 H   0  0  0  0  0  0  0  0  0  0  0  0
    7.8179    2.4300    0.0000 H   0  0  0  0  0  0  0  0  0  0  0  0
    7.5255    7.3784    0.0000 H   0  0  0  0  0  0  0  0  0  0  0  0
    7.1270    8.0686    0.0000 H   0  0  0  0  0  0  0  0  0  0  0  0
    9.2670    7.4860    0.0000 H   0  0  0  0  0  0  0  0  0  0  0  0
    8.6470    8.1060    0.0000 H   0  0  0  0  0  0  0  0  0  0  0  0
    8.0270    7.4860    0.0000 H   0  0  0  0  0  0  0  0  0  0  0  0
    9.2030    5.4491    0.0000 H   0  0  0  0  0  0  0  0  0  0  0  0
   10.0499    5.6760    0.0000 H   0  0  0  0  0  0  0  0  0  0  0  0
    9.8230    6.5230    0.0000 H   0  0  0  0  0  0  0  0  0  0  0  0
    5.0119    0.8100    0.0000 H   0  0  0  0  0  0  0  0  0  0  0  0
    6.4149    0.0000    0.0000 H   0  0  0  0  0  0  0  0  0  0  0  0
    5.4383    8.0937    0.0000 H   0  0  0  0  0  0  0  0  0  0  0  0
    5.8368    7.4034    0.0000 H   0  0  0  0  0  0  0  0  0  0  0  0
    3.5068    2.6569    0.0000 H   0  0  0  0  0  0  0  0  0  0  0  0
    3.2799    1.8100    0.0000 H   0  0  0  0  0  0  0  0  0  0  0  0
    4.1268    1.5831    0.0000 H   0  0  0  0  0  0  0  0  0  0  0  0
    3.4549    8.2300    0.0000 H   0  0  0  0  0  0  0  0  0  0  0  0
    3.9325    7.4947    0.0000 H   0  0  0  0  0  0  0  0  0  0  0  0
    4.6678    7.9722    0.0000 H   0  0  0  0  0  0  0  0  0  0  0  0
    2.5633    8.3028    0.0000 H   0  0  0  0  0  0  0  0  0  0  0  0
    2.2700   11.0933    0.0000 H   0  0  0  0  0  0  0  0  0  0  0  0
    0.9522    8.1334    0.0000 H   0  0  0  0  0  0  0  0  0  0  0  0
    0.6589   10.9240    0.0000 H   0  0  0  0  0  0  0  0  0  0  0  0
    0.0000    9.4440    0.0000 H   0  0  0  0  0  0  0  0  0  0  0  0
   13.0499    5.2967    0.0000 H   0  0  0  0  0  0  0  0  0  0  0  0
  1 68  1  0  0  0  0
  2 24  1  0  0  0  0
  2 26  1  0  0  0  0
  3 22  1  0  0  0  0
  4 16  1  0  0  0  0
  4 25  1  0  0  0  0
  5 12  1  0  0  0  0
  5 14  1  0  0  0  0
  5 15  1  0  0  0  0
  6 26  1  0  0  0  0
  6 27  1  0  0  0  0
  6 28  1  0  0  0  0
  7  8  1  0  0  0  0
  7 26  2  0  0  0  0
  8 27  2  0  0  0  0
  9 10  1  0  0  0  0
  9 11  1  0  0  0  0
  9 12  1  0  0  0  0
  9 35  1  0  0  0  0
 10 11  1  0  0  0  0
 10 13  1  0  0  0  0
 10 36  1  0  0  0  0
 11 37  1  0  0  0  0
 11 38  1  0  0  0  0
 12 39  1  0  0  0  0
 12 40  1  0  0  0  0
 13 16  2  0  0  0  0
 13 17  1  0  0  0  0
 14 19  1  0  0  0  0
 14 20  1  0  0  0  0
 14 41  1  0  0  0  0
 15 18  1  0  0  0  0
 15 42  1  0  0  0  0
 15 43  1  0  0  0  0
 16 21  1  0  0  0  0
 17 22  2  0  0  0  0
 17 44  1  0  0  0  0
 18 24  1  0  0  0  0
 18 45  1  0  0  0  0
 18 46  1  0  0  0  0
 19 47  1  0  0  0  0
 19 48  1  0  0  0  0
 19 49  1  0  0  0  0
 20 50  1  0  0  0  0
 20 51  1  0  0  0  0
 20 52  1  0  0  0  0
 21 23  2  0  0  0  0
 21 53  1  0  0  0  0
 22 23  1  0  0  0  0
 23 54  1  0  0  0  0
 24 55  1  0  0  0  0
 24 56  1  0  0  0  0
 25 57  1  0  0  0  0
 25 58  1  0  0  0  0
 25 59  1  0  0  0  0
 27 29  1  0  0  0  0
 28 60  1  0  0  0  0
 28 61  1  0  0  0  0
 28 62  1  0  0  0  0
 29 30  2  0  0  0  0
 29 31  1  0  0  0  0
 30 32  1  0  0  0  0
 30 63  1  0  0  0  0
 31 33  2  0  0  0  0
 31 64  1  0  0  0  0
 32 34  2  0  0  0  0
 32 65  1  0  0  0  0
 33 34  1  0  0  0  0
 33 66  1  0  0  0  0
 34 67  1  0  0  0  0
M  END
> <PUBCHEM_COMPOUND_CID>
155522663

> <PUBCHEM_COMPOUND_CANONICALIZED>
1

> <PUBCHEM_CACTVS_COMPLEXITY>
593

> <PUBCHEM_CACTVS_HBOND_ACCEPTOR>
6

> <PUBCHEM_CACTVS_HBOND_DONOR>
1

> <PUBCHEM_CACTVS_ROTATABLE_BOND>
11

> <PUBCHEM_CACTVS_SUBSKEYS>
AAADcfB7oQBEAAAAAAAAAAAAGAAAAWAAAAAwYAAAAAAAAAAB0AAAHwQIAAAADSzF2w6zFocMFAiiAiJiJACS2AtgILAdyCAuDJiMLqKkuRuEMChkyBOIqAeQ0OIOgAAAAAAIAAAAAAAAABAAAAAAAAAAAA==

> <PUBCHEM_IUPAC_OPENEYE_NAME>
N-[[2-(5-fluoro-2-methoxy-phenyl)cyclopropyl]methyl]-N-isopropyl-3-[(4-methyl-5-phenyl-1,2,4-triazol-3-yl)sulfanyl]propan-1-amine;hydrochloride

> <PUBCHEM_IUPAC_CAS_NAME>
N-[[2-(5-fluoro-2-methoxyphenyl)cyclopropyl]methyl]-3-[(4-methyl-5-phenyl-1,2,4-triazol-3-yl)thio]-N-propan-2-yl-1-propanamine;hydrochloride

> <PUBCHEM_IUPAC_NAME_MARKUP>
<I>N</I>-[[2-(5-fluoro-2-methoxyphenyl)cyclopropyl]methyl]-3-[(4-methyl-5-phenyl-1,2,4-triazol-3-yl)sulfanyl]-<I>N</I>-propan-2-ylpropan-1-amine;hydrochloride

> <PUBCHEM_IUPAC_NAME>
N-[[2-(5-fluoro-2-methoxyphenyl)cyclopropyl]methyl]-3-[(4-methyl-5-phenyl-1,2,4-triazol-3-yl)sulfanyl]-N-propan-2-ylpropan-1-amine;hydrochloride

> <PUBCHEM_IUPAC_SYSTEMATIC_NAME>
N-[[2-(5-fluoranyl-2-methoxy-phenyl)cyclopropyl]methyl]-3-[(4-methyl-5-phenyl-1,2,4-triazol-3-yl)sulfanyl]-N-propan-2-yl-propan-1-amine;hydrochloride

> <PUBCHEM_IUPAC_TRADITIONAL_NAME>
[2-(5-fluoro-2-methoxy-phenyl)cyclopropyl]methyl-isopropyl-[3-[(4-methyl-5-phenyl-1,2,4-triazol-3-yl)thio]propyl]amine;hydrochloride

> <PUBCHEM_IUPAC_INCHI>
InChI=1S/C26H33FN4OS.ClH/c1-18(2)31(17-20-15-22(20)23-16-21(27)11-12-24(23)32-4)13-8-14-33-26-29-28-25(30(26)3)19-9-6-5-7-10-19;/h5-7,9-12,16,18,20,22H,8,13-15,17H2,1-4H3;1H

> <PUBCHEM_IUPAC_INCHIKEY>
KPHXTURAAXKZCY-UHFFFAOYSA-N

> <PUBCHEM_EXACT_MASS>
504.2125888

> <PUBCHEM_MOLECULAR_FORMULA>
C26H34ClFN4OS

> <PUBCHEM_MOLECULAR_WEIGHT>
505.1

> <PUBCHEM_OPENEYE_CAN_SMILES>
CC(C)N(CCCSC1=NN=C(N1C)C2=CC=CC=C2)CC3CC3C4=C(C=CC(=C4)F)OC.Cl

> <PUBCHEM_OPENEYE_ISO_SMILES>
CC(C)N(CCCSC1=NN=C(N1C)C2=CC=CC=C2)CC3CC3C4=C(C=CC(=C4)F)OC.Cl

> <PUBCHEM_CACTVS_TPSA>
68.5

> <PUBCHEM_MONOISOTOPIC_WEIGHT>
504.2125888

> <PUBCHEM_TOTAL_CHARGE>
0

> <PUBCHEM_HEAVY_ATOM_COUNT>
34

> <PUBCHEM_ATOM_DEF_STEREO_COUNT>
0

> <PUBCHEM_ATOM_UDEF_STEREO_COUNT>
2

> <PUBCHEM_BOND_DEF_STEREO_COUNT>
0

> <PUBCHEM_BOND_UDEF_STEREO_COUNT>
0

> <PUBCHEM_ISOTOPIC_ATOM_COUNT>
0

> <PUBCHEM_COMPONENT_COUNT>
2

> <PUBCHEM_CACTVS_TAUTO_COUNT>
-1

> <PUBCHEM_COORDINATE_TYPE>
1
5
255

> <PUBCHEM_BONDANNOTATIONS>
10  13  3
13  16  8
13  17  8
16  21  8
17  22  8
21  23  8
22  23  8
29  30  8
29  31  8
30  32  8
31  33  8
32  34  8
33  34  8
6  26  8
6  27  8
7  26  8
7  8  8
8  27  8
9  12  3

$$$$
