6918601
  -OEChem-09292322512D

 48 51  0     1  0  0  0  0  0999 V2000
    4.1510    0.8623    0.0000 S   0  0  0  0  0  0  0  0  0  0  0  0
    6.0475   -3.9247    0.0000 O   0  0  0  0  0  0  0  0  0  0  0  0
    4.9941    1.4000    0.0000 O   0  0  0  0  0  0  0  0  0  0  0  0
    3.3079    0.3245    0.0000 O   0  0  0  0  0  0  0  0  0  0  0  0
    4.6887    0.0192    0.0000 N   0  0  0  0  0  0  0  0  0  0  0  0
    7.7795   -2.9247    0.0000 N   0  0  0  0  0  0  0  0  0  0  0  0
    6.9135   -2.4247    0.0000 C   0  0  2  0  0  0  0  0  0  0  0  0
    6.0475   -2.9247    0.0000 C   0  0  2  0  0  0  0  0  0  0  0  0
    6.9135   -1.4247    0.0000 C   0  0  0  0  0  0  0  0  0  0  0  0
    6.0475   -0.9247    0.0000 C   0  0  0  0  0  0  0  0  0  0  0  0
    5.1814   -1.4247    0.0000 C   0  0  0  0  0  0  0  0  0  0  0  0
    5.1814   -2.4247    0.0000 C   0  0  0  0  0  0  0  0  0  0  0  0
    4.2875   -0.8900    0.0000 C   0  0  0  0  0  0  0  0  0  0  0  0
    5.6824   -0.0004    0.0000 C   0  0  0  0  0  0  0  0  0  0  0  0
    4.2875   -2.9594    0.0000 C   0  0  0  0  0  0  0  0  0  0  0  0
    3.3814   -1.4039    0.0000 C   0  0  0  0  0  0  0  0  0  0  0  0
    3.3814   -2.4455    0.0000 C   0  0  0  0  0  0  0  0  0  0  0  0
    8.6456   -2.4247    0.0000 C   0  0  0  0  0  0  0  0  0  0  0  0
    7.7795   -3.9247    0.0000 C   0  0  0  0  0  0  0  0  0  0  0  0
    3.6132    1.7054    0.0000 C   0  0  0  0  0  0  0  0  0  0  0  0
    2.6142    1.6612    0.0000 C   0  0  0  0  0  0  0  0  0  0  0  0
    4.0745    2.5926    0.0000 C   0  0  0  0  0  0  0  0  0  0  0  0
    2.0765    2.5044    0.0000 C   0  0  0  0  0  0  0  0  0  0  0  0
    3.5368    3.4358    0.0000 C   0  0  0  0  0  0  0  0  0  0  0  0
    2.5378    3.3916    0.0000 C   0  0  0  0  0  0  0  0  0  0  0  0
    2.0000    4.2347    0.0000 C   0  0  0  0  0  0  0  0  0  0  0  0
    6.9135   -3.0447    0.0000 H   0  0  0  0  0  0  0  0  0  0  0  0
    5.5105   -3.2347    0.0000 H   0  0  0  0  0  0  0  0  0  0  0  0
    7.5241   -1.5324    0.0000 H   0  0  0  0  0  0  0  0  0  0  0  0
    7.1256   -0.8421    0.0000 H   0  0  0  0  0  0  0  0  0  0  0  0
    6.0361    0.5088    0.0000 H   0  0  0  0  0  0  0  0  0  0  0  0
    4.2947   -3.5793    0.0000 H   0  0  0  0  0  0  0  0  0  0  0  0
    2.8457   -1.0918    0.0000 H   0  0  0  0  0  0  0  0  0  0  0  0
    2.8457   -2.7576    0.0000 H   0  0  0  0  0  0  0  0  0  0  0  0
    5.5105   -4.2347    0.0000 H   0  0  0  0  0  0  0  0  0  0  0  0
    8.9556   -2.9616    0.0000 H   0  0  0  0  0  0  0  0  0  0  0  0
    9.1825   -2.1147    0.0000 H   0  0  0  0  0  0  0  0  0  0  0  0
    8.3356   -1.8878    0.0000 H   0  0  0  0  0  0  0  0  0  0  0  0
    7.1595   -3.9247    0.0000 H   0  0  0  0  0  0  0  0  0  0  0  0
    7.7795   -4.5447    0.0000 H   0  0  0  0  0  0  0  0  0  0  0  0
    8.3995   -3.9247    0.0000 H   0  0  0  0  0  0  0  0  0  0  0  0
    2.3282    1.1111    0.0000 H   0  0  0  0  0  0  0  0  0  0  0  0
    4.6939    2.6200    0.0000 H   0  0  0  0  0  0  0  0  0  0  0  0
    1.4571    2.4770    0.0000 H   0  0  0  0  0  0  0  0  0  0  0  0
    3.8228    3.9858    0.0000 H   0  0  0  0  0  0  0  0  0  0  0  0
    2.5227    4.5681    0.0000 H   0  0  0  0  0  0  0  0  0  0  0  0
    1.6666    4.7574    0.0000 H   0  0  0  0  0  0  0  0  0  0  0  0
    1.4773    3.9013    0.0000 H   0  0  0  0  0  0  0  0  0  0  0  0
  1  3  2  0  0  0  0
  1  4  2  0  0  0  0
  1  5  1  0  0  0  0
  1 20  1  0  0  0  0
  8  2  1  1  0  0  0
  2 35  1  0  0  0  0
  5 13  1  0  0  0  0
  5 14  1  0  0  0  0
  7  6  1  6  0  0  0
  6 18  1  0  0  0  0
  6 19  1  0  0  0  0
  7  8  1  0  0  0  0
  7  9  1  0  0  0  0
  7 27  1  0  0  0  0
  8 12  1  0  0  0  0
  8 28  1  0  0  0  0
  9 10  1  0  0  0  0
  9 29  1  0  0  0  0
  9 30  1  0  0  0  0
 10 11  1  0  0  0  0
 10 14  2  0  0  0  0
 11 12  2  0  0  0  0
 11 13  1  0  0  0  0
 12 15  1  0  0  0  0
 13 16  2  0  0  0  0
 14 31  1  0  0  0  0
 15 17  2  0  0  0  0
 15 32  1  0  0  0  0
 16 17  1  0  0  0  0
 16 33  1  0  0  0  0
 17 34  1  0  0  0  0
 18 36  1  0  0  0  0
 18 37  1  0  0  0  0
 18 38  1  0  0  0  0
 19 39  1  0  0  0  0
 19 40  1  0  0  0  0
 19 41  1  0  0  0  0
 20 21  2  0  0  0  0
 20 22  1  0  0  0  0
 21 23  1  0  0  0  0
 21 42  1  0  0  0  0
 22 24  2  0  0  0  0
 22 43  1  0  0  0  0
 23 25  2  0  0  0  0
 23 44  1  0  0  0  0
 24 25  1  0  0  0  0
 24 45  1  0  0  0  0
 25 26  1  0  0  0  0
 26 46  1  0  0  0  0
 26 47  1  0  0  0  0
 26 48  1  0  0  0  0
M  END
> <PUBCHEM_COMPOUND_CID>
6918601

> <PUBCHEM_COMPOUND_CANONICALIZED>
1

> <PUBCHEM_CACTVS_COMPLEXITY>
609

> <PUBCHEM_CACTVS_HBOND_ACCEPTOR>
4

> <PUBCHEM_CACTVS_HBOND_DONOR>
1

> <PUBCHEM_CACTVS_ROTATABLE_BOND>
3

> <PUBCHEM_CACTVS_SUBSKEYS>
AAADceB7MABAAAAAAAAAAAAAAAAAAWAAAAAwYMAAAAAAAFjB9AAAHgQASAAADDzh3gY+wfMIEgKgAzRnRHDCgDAxAiAI2Dg4bJgKNuLAkZGEcAhkwAHY2Aew0PIOkAAAQAASAABwAAaAADQgAAAAAAAAAA==

> <PUBCHEM_IUPAC_OPENEYE_NAME>
(4S,5S)-4-(dimethylamino)-1-(p-tolylsulfonyl)-4,5-dihydro-3H-benzo[cd]indol-5-ol

> <PUBCHEM_IUPAC_CAS_NAME>
(4S,5S)-4-(dimethylamino)-1-(4-methylphenyl)sulfonyl-4,5-dihydro-3H-benzo[cd]indol-5-ol

> <PUBCHEM_IUPAC_NAME_MARKUP>
(4<I>S</I>,5<I>S</I>)-4-(dimethylamino)-1-(4-methylphenyl)sulfonyl-4,5-dihydro-3<I>H</I>-benzo[cd]indol-5-ol

> <PUBCHEM_IUPAC_NAME>
(4S,5S)-4-(dimethylamino)-1-(4-methylphenyl)sulfonyl-4,5-dihydro-3H-benzo[cd]indol-5-ol

> <PUBCHEM_IUPAC_SYSTEMATIC_NAME>
(4S,5S)-4-(dimethylamino)-1-(4-methylphenyl)sulfonyl-4,5-dihydro-3H-benzo[cd]indol-5-ol

> <PUBCHEM_IUPAC_TRADITIONAL_NAME>
(4S,5S)-4-(dimethylamino)-1-tosyl-4,5-dihydro-3H-benzo[cd]indol-5-ol

> <PUBCHEM_IUPAC_INCHI>
InChI=1S/C20H22N2O3S/c1-13-7-9-15(10-8-13)26(24,25)22-12-14-11-18(21(2)3)20(23)16-5-4-6-17(22)19(14)16/h4-10,12,18,20,23H,11H2,1-3H3/t18-,20-/m0/s1

> <PUBCHEM_IUPAC_INCHIKEY>
OVDROBGSEQOKQB-ICSRJNTNSA-N

> <PUBCHEM_XLOGP3_AA>
2.9

> <PUBCHEM_EXACT_MASS>
370.13511374

> <PUBCHEM_MOLECULAR_FORMULA>
C20H22N2O3S

> <PUBCHEM_MOLECULAR_WEIGHT>
370.5

> <PUBCHEM_OPENEYE_CAN_SMILES>
CC1=CC=C(C=C1)S(=O)(=O)N2C=C3CC(C(C4=C3C2=CC=C4)O)N(C)C

> <PUBCHEM_OPENEYE_ISO_SMILES>
CC1=CC=C(C=C1)S(=O)(=O)N2C=C3C[C@@H]([C@H](C4=C3C2=CC=C4)O)N(C)C

> <PUBCHEM_CACTVS_TPSA>
70.9

> <PUBCHEM_MONOISOTOPIC_WEIGHT>
370.13511374

> <PUBCHEM_TOTAL_CHARGE>
0

> <PUBCHEM_HEAVY_ATOM_COUNT>
26

> <PUBCHEM_ATOM_DEF_STEREO_COUNT>
2

> <PUBCHEM_ATOM_UDEF_STEREO_COUNT>
0

> <PUBCHEM_BOND_DEF_STEREO_COUNT>
0

> <PUBCHEM_BOND_UDEF_STEREO_COUNT>
0

> <PUBCHEM_ISOTOPIC_ATOM_COUNT>
0

> <PUBCHEM_COMPONENT_COUNT>
1

> <PUBCHEM_CACTVS_TAUTO_COUNT>
-1

> <PUBCHEM_COORDINATE_TYPE>
1
5
255

> <PUBCHEM_BONDANNOTATIONS>
10  11  8
10  14  8
11  12  8
11  13  8
12  15  8
13  16  8
15  17  8
16  17  8
8  2  5
20  21  8
20  22  8
21  23  8
22  24  8
23  25  8
24  25  8
5  13  8
5  14  8
7  6  6

$$$$
