162646534
  -OEChem-09292322422D

 45 48  0     1  0  0  0  0  0999 V2000
   10.6293   -1.2603    0.0000 Cl  0  0  0  0  0  0  0  0  0  0  0  0
    4.9902    2.3063    0.0000 N   0  0  3  0  0  0  0  0  0  0  0  0
    7.2919   -0.3966    0.0000 N   0  0  0  0  0  0  0  0  0  0  0  0
    6.7918   -2.5873    0.0000 N   0  0  0  0  0  0  0  0  0  0  0  0
    2.0000   -0.9618    0.0000 N   0  0  0  0  0  0  0  0  0  0  0  0
    5.9874    2.2316    0.0000 C   0  0  2  0  0  0  0  0  0  0  0  0
    4.4269    1.4801    0.0000 C   0  0  0  0  0  0  0  0  0  0  0  0
    4.8608    0.5791    0.0000 C   0  0  0  0  0  0  0  0  0  0  0  0
    5.8580    0.5044    0.0000 C   0  0  0  0  0  0  0  0  0  0  0  0
    6.4213    1.3306    0.0000 C   0  0  0  0  0  0  0  0  0  0  0  0
    6.2919   -0.3966    0.0000 C   0  0  0  0  0  0  0  0  0  0  0  0
    6.5508    3.0578    0.0000 C   0  0  0  0  0  0  0  0  0  0  0  0
    4.5564    3.2073    0.0000 C   0  0  0  0  0  0  0  0  0  0  0  0
    5.6684   -1.1784    0.0000 C   0  0  0  0  0  0  0  0  0  0  0  0
    5.8909   -2.1534    0.0000 C   0  0  0  0  0  0  0  0  0  0  0  0
    7.9154   -1.1785    0.0000 C   0  0  0  0  0  0  0  0  0  0  0  0
    4.6779   -0.8561    0.0000 C   0  0  0  0  0  0  0  0  0  0  0  0
    7.6928   -2.1534    0.0000 C   0  0  0  0  0  0  0  0  0  0  0  0
    5.1383   -2.8736    0.0000 C   0  0  0  0  0  0  0  0  0  0  0  0
    3.9088   -1.5587    0.0000 C   0  0  0  0  0  0  0  0  0  0  0  0
    4.1406   -2.5742    0.0000 C   0  0  0  0  0  0  0  0  0  0  0  0
    8.9058   -0.8561    0.0000 C   0  0  0  0  0  0  0  0  0  0  0  0
    8.4454   -2.8736    0.0000 C   0  0  0  0  0  0  0  0  0  0  0  0
    9.6749   -1.5587    0.0000 C   0  0  0  0  0  0  0  0  0  0  0  0
    9.4431   -2.5742    0.0000 C   0  0  0  0  0  0  0  0  0  0  0  0
    2.9544   -1.2602    0.0000 C   0  0  0  0  0  0  0  0  0  0  0  0
    5.7184    2.7902    0.0000 H   0  0  0  0  0  0  0  0  0  0  0  0
    3.9831    1.9130    0.0000 H   0  0  0  0  0  0  0  0  0  0  0  0
    3.9235    1.1181    0.0000 H   0  0  0  0  0  0  0  0  0  0  0  0
    4.2640    0.4112    0.0000 H   0  0  0  0  0  0  0  0  0  0  0  0
    4.9225   -0.0378    0.0000 H   0  0  0  0  0  0  0  0  0  0  0  0
    7.0396    1.2842    0.0000 H   0  0  0  0  0  0  0  0  0  0  0  0
    7.0630    2.7085    0.0000 H   0  0  0  0  0  0  0  0  0  0  0  0
    6.9000    3.5701    0.0000 H   0  0  0  0  0  0  0  0  0  0  0  0
    6.0385    3.4070    0.0000 H   0  0  0  0  0  0  0  0  0  0  0  0
    5.1150    3.4763    0.0000 H   0  0  0  0  0  0  0  0  0  0  0  0
    4.2874    3.7659    0.0000 H   0  0  0  0  0  0  0  0  0  0  0  0
    3.9978    2.9383    0.0000 H   0  0  0  0  0  0  0  0  0  0  0  0
    4.5469   -0.2501    0.0000 H   0  0  0  0  0  0  0  0  0  0  0  0
    6.7918   -3.2073    0.0000 H   0  0  0  0  0  0  0  0  0  0  0  0
    5.2833   -3.4764    0.0000 H   0  0  0  0  0  0  0  0  0  0  0  0
    3.6878   -2.9976    0.0000 H   0  0  0  0  0  0  0  0  0  0  0  0
    9.0368   -0.2501    0.0000 H   0  0  0  0  0  0  0  0  0  0  0  0
    8.3004   -3.4764    0.0000 H   0  0  0  0  0  0  0  0  0  0  0  0
    9.8959   -2.9977    0.0000 H   0  0  0  0  0  0  0  0  0  0  0  0
  1 24  1  0  0  0  0
  2  6  1  0  0  0  0
  2  7  1  0  0  0  0
  2 13  1  0  0  0  0
  3 11  2  0  0  0  0
  3 16  1  0  0  0  0
  4 15  1  0  0  0  0
  4 18  1  0  0  0  0
  4 40  1  0  0  0  0
  5 26  3  0  0  0  0
  6 10  1  0  0  0  0
  6 12  1  1  0  0  0
  6 27  1  0  0  0  0
  7  8  1  0  0  0  0
  7 28  1  0  0  0  0
  7 29  1  0  0  0  0
  8  9  1  0  0  0  0
  8 30  1  0  0  0  0
  8 31  1  0  0  0  0
  9 10  2  0  0  0  0
  9 11  1  0  0  0  0
 10 32  1  0  0  0  0
 11 14  1  0  0  0  0
 12 33  1  0  0  0  0
 12 34  1  0  0  0  0
 12 35  1  0  0  0  0
 13 36  1  0  0  0  0
 13 37  1  0  0  0  0
 13 38  1  0  0  0  0
 14 15  2  0  0  0  0
 14 17  1  0  0  0  0
 15 19  1  0  0  0  0
 16 18  2  0  0  0  0
 16 22  1  0  0  0  0
 17 20  2  0  0  0  0
 17 39  1  0  0  0  0
 18 23  1  0  0  0  0
 19 21  2  0  0  0  0
 19 41  1  0  0  0  0
 20 21  1  0  0  0  0
 20 26  1  0  0  0  0
 21 42  1  0  0  0  0
 22 24  2  0  0  0  0
 22 43  1  0  0  0  0
 23 25  2  0  0  0  0
 23 44  1  0  0  0  0
 24 25  1  0  0  0  0
 25 45  1  0  0  0  0
M  END
> <PUBCHEM_COMPOUND_CID>
162646534

> <PUBCHEM_COMPOUND_CANONICALIZED>
1

> <PUBCHEM_CACTVS_COMPLEXITY>
648

> <PUBCHEM_CACTVS_HBOND_ACCEPTOR>
4

> <PUBCHEM_CACTVS_HBOND_DONOR>
1

> <PUBCHEM_CACTVS_ROTATABLE_BOND>
1

> <PUBCHEM_CACTVS_SUBSKEYS>
AAADceB7gAAEAAAAAAAAAAAAAAAAAAAAAAAwYIAABAAAAAABQAAAHAIQAAAADCrBGCQywIPAAACwByRiRACiAAAhBwAIiAAodpgI4OLBk5GUIAhgkADIyA8QgMAOCABCAAICACAQAIQABAQAQAAAAAAAAA==

> <PUBCHEM_IUPAC_OPENEYE_NAME>
3-chloro-6-[(6S)-1,6-dimethyl-3,6-dihydro-2H-pyridin-4-yl]-11H-benzo[b][1,4]benzodiazepine-8-carbonitrile

> <PUBCHEM_IUPAC_CAS_NAME>
3-chloro-6-[(6S)-1,6-dimethyl-3,6-dihydro-2H-pyridin-4-yl]-11H-benzo[b][1,4]benzodiazepine-8-carbonitrile

> <PUBCHEM_IUPAC_NAME_MARKUP>
3-chloro-6-[(6<I>S</I>)-1,6-dimethyl-3,6-dihydro-2<I>H</I>-pyridin-4-yl]-11<I>H</I>-benzo[b][1,4]benzodiazepine-8-carbonitrile

> <PUBCHEM_IUPAC_NAME>
3-chloro-6-[(6S)-1,6-dimethyl-3,6-dihydro-2H-pyridin-4-yl]-11H-benzo[b][1,4]benzodiazepine-8-carbonitrile

> <PUBCHEM_IUPAC_SYSTEMATIC_NAME>
3-chloranyl-6-[(6S)-1,6-dimethyl-3,6-dihydro-2H-pyridin-4-yl]-11H-benzo[b][1,4]benzodiazepine-8-carbonitrile

> <PUBCHEM_IUPAC_TRADITIONAL_NAME>
3-chloro-6-[(6S)-1,6-dimethyl-3,6-dihydro-2H-pyridin-4-yl]-11H-benzo[b][1,4]benzodiazepine-8-carbonitrile

> <PUBCHEM_IUPAC_INCHI>
InChI=1S/C21H19ClN4/c1-13-9-15(7-8-26(13)2)21-17-10-14(12-23)3-5-18(17)24-19-6-4-16(22)11-20(19)25-21/h3-6,9-11,13,24H,7-8H2,1-2H3/t13-/m0/s1

> <PUBCHEM_IUPAC_INCHIKEY>
LLPALJXSNNSHCW-ZDUSSCGKSA-N

> <PUBCHEM_XLOGP3_AA>
4.1

> <PUBCHEM_EXACT_MASS>
362.1298243

> <PUBCHEM_MOLECULAR_FORMULA>
C21H19ClN4

> <PUBCHEM_MOLECULAR_WEIGHT>
362.9

> <PUBCHEM_OPENEYE_CAN_SMILES>
CC1C=C(CCN1C)C2=NC3=C(C=CC(=C3)Cl)NC4=C2C=C(C=C4)C#N

> <PUBCHEM_OPENEYE_ISO_SMILES>
C[C@H]1C=C(CCN1C)C2=NC3=C(C=CC(=C3)Cl)NC4=C2C=C(C=C4)C#N

> <PUBCHEM_CACTVS_TPSA>
51.4

> <PUBCHEM_MONOISOTOPIC_WEIGHT>
362.1298243

> <PUBCHEM_TOTAL_CHARGE>
0

> <PUBCHEM_HEAVY_ATOM_COUNT>
26

> <PUBCHEM_ATOM_DEF_STEREO_COUNT>
1

> <PUBCHEM_ATOM_UDEF_STEREO_COUNT>
0

> <PUBCHEM_BOND_DEF_STEREO_COUNT>
0

> <PUBCHEM_BOND_UDEF_STEREO_COUNT>
0

> <PUBCHEM_ISOTOPIC_ATOM_COUNT>
0

> <PUBCHEM_COMPONENT_COUNT>
1

> <PUBCHEM_CACTVS_TAUTO_COUNT>
-1

> <PUBCHEM_COORDINATE_TYPE>
1
5
255

> <PUBCHEM_BONDANNOTATIONS>
14  15  8
14  17  8
15  19  8
16  18  8
16  22  8
17  20  8
18  23  8
19  21  8
20  21  8
22  24  8
23  25  8
24  25  8
6  12  5

$$$$
