71463207
  -OEChem-09292322332D

 50 53  0     0  0  0  0  0  0999 V2000
    9.7142    0.3773    0.0000 O   0  0  0  0  0  0  0  0  0  0  0  0
    6.4162    1.4370    0.0000 N   0  0  0  0  0  0  0  0  0  0  0  0
    8.3711    1.8592    0.0000 N   0  0  0  0  0  0  0  0  0  0  0  0
    5.7716   -3.2335    0.0000 N   0  0  0  0  0  0  0  0  0  0  0  0
    6.7221    2.3891    0.0000 C   0  0  0  0  0  0  0  0  0  0  0  0
    7.0877    0.6961    0.0000 C   0  0  0  0  0  0  0  0  0  0  0  0
    7.6996    2.6002    0.0000 C   0  0  0  0  0  0  0  0  0  0  0  0
    8.0652    0.9072    0.0000 C   0  0  0  0  0  0  0  0  0  0  0  0
    5.4387    1.2259    0.0000 C   0  0  0  0  0  0  0  0  0  0  0  0
    5.1328    0.2739    0.0000 C   0  0  0  0  0  0  0  0  0  0  0  0
    9.3486    2.0703    0.0000 C   0  0  0  0  0  0  0  0  0  0  0  0
    4.1881   -0.0356    0.0000 C   0  0  0  0  0  0  0  0  0  0  0  0
    5.7204   -0.5279    0.0000 C   0  0  0  0  0  0  0  0  0  0  0  0
    4.1931   -1.0356    0.0000 C   0  0  0  0  0  0  0  0  0  0  0  0
   10.0201    1.3294    0.0000 C   0  0  0  0  0  0  0  0  0  0  0  0
    5.1408   -1.3356    0.0000 C   0  0  0  0  0  0  0  0  0  0  0  0
    9.6545    3.0224    0.0000 C   0  0  0  0  0  0  0  0  0  0  0  0
    3.4032    0.5840    0.0000 C   0  0  0  0  0  0  0  0  0  0  0  0
   10.9976    1.5405    0.0000 C   0  0  0  0  0  0  0  0  0  0  0  0
    3.4144   -1.6629    0.0000 C   0  0  0  0  0  0  0  0  0  0  0  0
   10.6320    3.2335    0.0000 C   0  0  0  0  0  0  0  0  0  0  0  0
   11.3035    2.4925    0.0000 C   0  0  0  0  0  0  0  0  0  0  0  0
    2.4294    0.3566    0.0000 C   0  0  0  0  0  0  0  0  0  0  0  0
    2.4384   -1.4453    0.0000 C   0  0  0  0  0  0  0  0  0  0  0  0
    5.4562   -2.2845    0.0000 C   0  0  0  0  0  0  0  0  0  0  0  0
    2.0000   -0.5465    0.0000 C   0  0  0  0  0  0  0  0  0  0  0  0
   10.3858   -0.3637    0.0000 C   0  0  0  0  0  0  0  0  0  0  0  0
    6.6985    3.0086    0.0000 H   0  0  0  0  0  0  0  0  0  0  0  0
    6.1079    2.4734    0.0000 H   0  0  0  0  0  0  0  0  0  0  0  0
    6.5630    0.3658    0.0000 H   0  0  0  0  0  0  0  0  0  0  0  0
    7.3219    0.1220    0.0000 H   0  0  0  0  0  0  0  0  0  0  0  0
    8.2243    2.9304    0.0000 H   0  0  0  0  0  0  0  0  0  0  0  0
    7.4654    3.1743    0.0000 H   0  0  0  0  0  0  0  0  0  0  0  0
    8.0889    0.2876    0.0000 H   0  0  0  0  0  0  0  0  0  0  0  0
    8.6794    0.8229    0.0000 H   0  0  0  0  0  0  0  0  0  0  0  0
    5.4151    1.8455    0.0000 H   0  0  0  0  0  0  0  0  0  0  0  0
    4.8245    1.3102    0.0000 H   0  0  0  0  0  0  0  0  0  0  0  0
    6.3404   -0.5248    0.0000 H   0  0  0  0  0  0  0  0  0  0  0  0
    9.2381    3.4818    0.0000 H   0  0  0  0  0  0  0  0  0  0  0  0
    3.5381    1.1892    0.0000 H   0  0  0  0  0  0  0  0  0  0  0  0
   11.4140    1.0811    0.0000 H   0  0  0  0  0  0  0  0  0  0  0  0
    3.5554   -2.2667    0.0000 H   0  0  0  0  0  0  0  0  0  0  0  0
   10.8216    3.8238    0.0000 H   0  0  0  0  0  0  0  0  0  0  0  0
   11.9096    2.6234    0.0000 H   0  0  0  0  0  0  0  0  0  0  0  0
    2.0404    0.8394    0.0000 H   0  0  0  0  0  0  0  0  0  0  0  0
    2.0542   -1.9319    0.0000 H   0  0  0  0  0  0  0  0  0  0  0  0
    1.3800   -0.5496    0.0000 H   0  0  0  0  0  0  0  0  0  0  0  0
    9.9264   -0.7800    0.0000 H   0  0  0  0  0  0  0  0  0  0  0  0
   10.8021   -0.8231    0.0000 H   0  0  0  0  0  0  0  0  0  0  0  0
   10.8452    0.0527    0.0000 H   0  0  0  0  0  0  0  0  0  0  0  0
  1 15  1  0  0  0  0
  1 27  1  0  0  0  0
  2  5  1  0  0  0  0
  2  6  1  0  0  0  0
  2  9  1  0  0  0  0
  3  7  1  0  0  0  0
  3  8  1  0  0  0  0
  3 11  1  0  0  0  0
  4 25  3  0  0  0  0
  5  7  1  0  0  0  0
  5 28  1  0  0  0  0
  5 29  1  0  0  0  0
  6  8  1  0  0  0  0
  6 30  1  0  0  0  0
  6 31  1  0  0  0  0
  7 32  1  0  0  0  0
  7 33  1  0  0  0  0
  8 34  1  0  0  0  0
  8 35  1  0  0  0  0
  9 10  1  0  0  0  0
  9 36  1  0  0  0  0
  9 37  1  0  0  0  0
 10 12  1  0  0  0  0
 10 13  2  0  0  0  0
 11 15  1  0  0  0  0
 11 17  2  0  0  0  0
 12 14  1  0  0  0  0
 12 18  2  0  0  0  0
 13 16  1  0  0  0  0
 13 38  1  0  0  0  0
 14 16  2  0  0  0  0
 14 20  1  0  0  0  0
 15 19  2  0  0  0  0
 16 25  1  0  0  0  0
 17 21  1  0  0  0  0
 17 39  1  0  0  0  0
 18 23  1  0  0  0  0
 18 40  1  0  0  0  0
 19 22  1  0  0  0  0
 19 41  1  0  0  0  0
 20 24  2  0  0  0  0
 20 42  1  0  0  0  0
 21 22  2  0  0  0  0
 21 43  1  0  0  0  0
 22 44  1  0  0  0  0
 23 26  2  0  0  0  0
 23 45  1  0  0  0  0
 24 26  1  0  0  0  0
 24 46  1  0  0  0  0
 26 47  1  0  0  0  0
 27 48  1  0  0  0  0
 27 49  1  0  0  0  0
 27 50  1  0  0  0  0
M  END
> <PUBCHEM_COMPOUND_CID>
71463207

> <PUBCHEM_COMPOUND_CANONICALIZED>
1

> <PUBCHEM_CACTVS_COMPLEXITY>
521

> <PUBCHEM_CACTVS_HBOND_ACCEPTOR>
4

> <PUBCHEM_CACTVS_HBOND_DONOR>
0

> <PUBCHEM_CACTVS_ROTATABLE_BOND>
4

> <PUBCHEM_CACTVS_SUBSKEYS>
AAADceB7IAAAAAAAAAAAAAAAAAAAAYAAAAA8QAAABgAAAADBQAAAHgAAAAAADAzBmAYyxsMABACQBiRCQACiCAAhIgAIiAAPbIgO5iLEsZuVMChkwBHY6A+QwMAOgAAAAAAAEAAAAAAAAAAgAQAACAAAAA==

> <PUBCHEM_IUPAC_OPENEYE_NAME>
3-[[4-(2-methoxyphenyl)piperazin-1-yl]methyl]azulene-1-carbonitrile

> <PUBCHEM_IUPAC_CAS_NAME>
3-[[4-(2-methoxyphenyl)-1-piperazinyl]methyl]-1-azulenecarbonitrile

> <PUBCHEM_IUPAC_NAME_MARKUP>
3-[[4-(2-methoxyphenyl)piperazin-1-yl]methyl]azulene-1-carbonitrile

> <PUBCHEM_IUPAC_NAME>
3-[[4-(2-methoxyphenyl)piperazin-1-yl]methyl]azulene-1-carbonitrile

> <PUBCHEM_IUPAC_SYSTEMATIC_NAME>
3-[[4-(2-methoxyphenyl)piperazin-1-yl]methyl]azulene-1-carbonitrile

> <PUBCHEM_IUPAC_TRADITIONAL_NAME>
3-[[4-(2-methoxyphenyl)piperazino]methyl]azulene-1-carbonitrile

> <PUBCHEM_IUPAC_INCHI>
InChI=1S/C23H23N3O/c1-27-23-10-6-5-9-22(23)26-13-11-25(12-14-26)17-19-15-18(16-24)20-7-3-2-4-8-21(19)20/h2-10,15H,11-14,17H2,1H3

> <PUBCHEM_IUPAC_INCHIKEY>
LQGNDHYNCHVOGU-UHFFFAOYSA-N

> <PUBCHEM_XLOGP3_AA>
4

> <PUBCHEM_EXACT_MASS>
357.184112366

> <PUBCHEM_MOLECULAR_FORMULA>
C23H23N3O

> <PUBCHEM_MOLECULAR_WEIGHT>
357.4

> <PUBCHEM_OPENEYE_CAN_SMILES>
COC1=CC=CC=C1N2CCN(CC2)CC3=CC(=C4C3=CC=CC=C4)C#N

> <PUBCHEM_OPENEYE_ISO_SMILES>
COC1=CC=CC=C1N2CCN(CC2)CC3=CC(=C4C3=CC=CC=C4)C#N

> <PUBCHEM_CACTVS_TPSA>
39.5

> <PUBCHEM_MONOISOTOPIC_WEIGHT>
357.184112366

> <PUBCHEM_TOTAL_CHARGE>
0

> <PUBCHEM_HEAVY_ATOM_COUNT>
27

> <PUBCHEM_ATOM_DEF_STEREO_COUNT>
0

> <PUBCHEM_ATOM_UDEF_STEREO_COUNT>
0

> <PUBCHEM_BOND_DEF_STEREO_COUNT>
0

> <PUBCHEM_BOND_UDEF_STEREO_COUNT>
0

> <PUBCHEM_ISOTOPIC_ATOM_COUNT>
0

> <PUBCHEM_COMPONENT_COUNT>
1

> <PUBCHEM_CACTVS_TAUTO_COUNT>
-1

> <PUBCHEM_COORDINATE_TYPE>
1
5
255

> <PUBCHEM_BONDANNOTATIONS>
10  12  8
10  13  8
11  15  8
11  17  8
12  18  8
13  16  8
14  16  8
14  20  8
15  19  8
17  21  8
18  23  8
19  22  8
20  24  8
21  22  8
23  26  8
24  26  8

$$$$
