134148634
  -OEChem-09292322472D

 45 49  0     1  0  0  0  0  0999 V2000
    7.1611    1.9424    0.0000 S   0  0  0  0  0  0  0  0  0  0  0  0
    7.3673    2.9210    0.0000 O   0  0  0  0  0  0  0  0  0  0  0  0
    6.9549    0.9639    0.0000 O   0  0  0  0  0  0  0  0  0  0  0  0
    2.5582   -2.5195    0.0000 N   0  0  0  0  0  0  0  0  0  0  0  0
    6.1826    2.1487    0.0000 N   0  0  0  0  0  0  0  0  0  0  0  0
    4.0790   -0.8937    0.0000 C   0  0  1  0  0  0  0  0  0  0  0  0
    3.2058   -0.3895    0.0000 C   0  0  2  0  0  0  0  0  0  0  0  0
    4.5795   -0.0184    0.0000 C   0  0  0  0  0  0  0  0  0  0  0  0
    3.7135    0.4816    0.0000 C   0  0  0  0  0  0  0  0  0  0  0  0
    4.2198   -1.8725    0.0000 C   0  0  0  0  0  0  0  0  0  0  0  0
    2.2877   -0.7570    0.0000 C   0  0  0  0  0  0  0  0  0  0  0  0
    3.5442   -2.5947    0.0000 C   0  0  0  0  0  0  0  0  0  0  0  0
    2.0000   -1.7032    0.0000 C   0  0  0  0  0  0  0  0  0  0  0  0
    5.4456    0.4816    0.0000 C   0  0  0  0  0  0  0  0  0  0  0  0
    3.7135    1.4816    0.0000 C   0  0  0  0  0  0  0  0  0  0  0  0
    5.4456    1.4816    0.0000 C   0  0  0  0  0  0  0  0  0  0  0  0
    4.5795    1.9816    0.0000 C   0  0  0  0  0  0  0  0  0  0  0  0
    4.7887    2.9534    0.0000 C   0  0  0  0  0  0  0  0  0  0  0  0
    5.7775    3.0564    0.0000 C   0  0  0  0  0  0  0  0  0  0  0  0
    8.1396    1.7362    0.0000 C   0  0  0  0  0  0  0  0  0  0  0  0
    8.8074    2.4805    0.0000 C   0  0  0  0  0  0  0  0  0  0  0  0
    8.4502    0.7857    0.0000 C   0  0  0  0  0  0  0  0  0  0  0  0
    9.7859    2.2743    0.0000 C   0  0  0  0  0  0  0  0  0  0  0  0
    9.4288    0.5795    0.0000 C   0  0  0  0  0  0  0  0  0  0  0  0
   10.0966    1.3238    0.0000 C   0  0  0  0  0  0  0  0  0  0  0  0
    4.9140   -1.0528    0.0000 H   0  0  0  0  0  0  0  0  0  0  0  0
    2.6505    0.2540    0.0000 H   0  0  0  0  0  0  0  0  0  0  0  0
    4.5665   -2.3865    0.0000 H   0  0  0  0  0  0  0  0  0  0  0  0
    4.7982   -1.6494    0.0000 H   0  0  0  0  0  0  0  0  0  0  0  0
    2.1917   -0.1445    0.0000 H   0  0  0  0  0  0  0  0  0  0  0  0
    1.6692   -0.7137    0.0000 H   0  0  0  0  0  0  0  0  0  0  0  0
    3.3602   -3.1868    0.0000 H   0  0  0  0  0  0  0  0  0  0  0  0
    4.0802   -2.9064    0.0000 H   0  0  0  0  0  0  0  0  0  0  0  0
    1.4621   -1.3949    0.0000 H   0  0  0  0  0  0  0  0  0  0  0  0
    1.5793   -2.1586    0.0000 H   0  0  0  0  0  0  0  0  0  0  0  0
    5.9825    0.1716    0.0000 H   0  0  0  0  0  0  0  0  0  0  0  0
    3.1766    1.7916    0.0000 H   0  0  0  0  0  0  0  0  0  0  0  0
    2.2482   -3.0564    0.0000 H   0  0  0  0  0  0  0  0  0  0  0  0
    4.3747    3.4149    0.0000 H   0  0  0  0  0  0  0  0  0  0  0  0
    6.0875    3.5934    0.0000 H   0  0  0  0  0  0  0  0  0  0  0  0
    8.6148    3.0699    0.0000 H   0  0  0  0  0  0  0  0  0  0  0  0
    8.0362    0.3242    0.0000 H   0  0  0  0  0  0  0  0  0  0  0  0
   10.2000    2.7358    0.0000 H   0  0  0  0  0  0  0  0  0  0  0  0
    9.6214   -0.0098    0.0000 H   0  0  0  0  0  0  0  0  0  0  0  0
   10.7033    1.1959    0.0000 H   0  0  0  0  0  0  0  0  0  0  0  0
  1  2  2  0  0  0  0
  1  3  2  0  0  0  0
  1  5  1  0  0  0  0
  1 20  1  0  0  0  0
  4 12  1  0  0  0  0
  4 13  1  0  0  0  0
  4 38  1  0  0  0  0
  5 16  1  0  0  0  0
  5 19  1  0  0  0  0
  6  7  1  0  0  0  0
  6  8  1  0  0  0  0
  6 10  1  0  0  0  0
  6 26  1  6  0  0  0
  7  9  1  0  0  0  0
  7 11  1  0  0  0  0
  7 27  1  6  0  0  0
  8  9  2  0  0  0  0
  8 14  1  0  0  0  0
  9 15  1  0  0  0  0
 10 12  1  0  0  0  0
 10 28  1  0  0  0  0
 10 29  1  0  0  0  0
 11 13  1  0  0  0  0
 11 30  1  0  0  0  0
 11 31  1  0  0  0  0
 12 32  1  0  0  0  0
 12 33  1  0  0  0  0
 13 34  1  0  0  0  0
 13 35  1  0  0  0  0
 14 16  2  0  0  0  0
 14 36  1  0  0  0  0
 15 17  2  0  0  0  0
 15 37  1  0  0  0  0
 16 17  1  0  0  0  0
 17 18  1  0  0  0  0
 18 19  2  0  0  0  0
 18 39  1  0  0  0  0
 19 40  1  0  0  0  0
 20 21  2  0  0  0  0
 20 22  1  0  0  0  0
 21 23  1  0  0  0  0
 21 41  1  0  0  0  0
 22 24  2  0  0  0  0
 22 42  1  0  0  0  0
 23 25  2  0  0  0  0
 23 43  1  0  0  0  0
 24 25  1  0  0  0  0
 24 44  1  0  0  0  0
 25 45  1  0  0  0  0
M  END
> <PUBCHEM_COMPOUND_CID>
134148634

> <PUBCHEM_COMPOUND_CANONICALIZED>
1

> <PUBCHEM_CACTVS_COMPLEXITY>
595

> <PUBCHEM_CACTVS_HBOND_ACCEPTOR>
3

> <PUBCHEM_CACTVS_HBOND_DONOR>
1

> <PUBCHEM_CACTVS_ROTATABLE_BOND>
2

> <PUBCHEM_CACTVS_SUBSKEYS>
AAADceB7MABAAAAAAAAAAAAAAABgAWAAAAAwYAAABYAYAFgB9AAAHAQQQAAADQjBXgQ8wfLIEAKgAzRnRHDCgDAxAiAI2Lg4ZJgIIOLAkZGEIAhgkADIyAcQgMAOyAACQAASAACQAASAACQAAAAAAAAAAA==

> <PUBCHEM_IUPAC_OPENEYE_NAME>
(2R,8S)-12-(benzenesulfonyl)-5,12-diazatetracyclo[7.7.0.02,8.011,15]hexadeca-1(9),10,13,15-tetraene

> <PUBCHEM_IUPAC_CAS_NAME>
(2R,8S)-12-(benzenesulfonyl)-5,12-diazatetracyclo[7.7.0.02,8.011,15]hexadeca-1(9),10,13,15-tetraene

> <PUBCHEM_IUPAC_NAME_MARKUP>
(2<I>R</I>,8<I>S</I>)-12-(benzenesulfonyl)-5,12-diazatetracyclo[7.7.0.0<SUP>2,8</SUP>.0<SUP>11,15</SUP>]hexadeca-1(9),10,13,15-tetraene

> <PUBCHEM_IUPAC_NAME>
(2R,8S)-12-(benzenesulfonyl)-5,12-diazatetracyclo[7.7.0.02,8.011,15]hexadeca-1(9),10,13,15-tetraene

> <PUBCHEM_IUPAC_SYSTEMATIC_NAME>
(2R,8S)-12-(phenylsulfonyl)-5,12-diazatetracyclo[7.7.0.02,8.011,15]hexadeca-1(9),10,13,15-tetraene

> <PUBCHEM_IUPAC_TRADITIONAL_NAME>
(2R,8S)-12-besyl-5,12-diazatetracyclo[7.7.0.02,8.011,15]hexadeca-1(9),10,13,15-tetraene

> <PUBCHEM_IUPAC_INCHI>
InChI=1S/C20H20N2O2S/c23-25(24,15-4-2-1-3-5-15)22-11-8-14-12-18-16-6-9-21-10-7-17(16)19(18)13-20(14)22/h1-5,8,11-13,16-17,21H,6-7,9-10H2/t16-,17+/m1/s1

> <PUBCHEM_IUPAC_INCHIKEY>
JGHVVBYUGZXQJW-SJORKVTESA-N

> <PUBCHEM_XLOGP3_AA>
1.5

> <PUBCHEM_EXACT_MASS>
352.12454906

> <PUBCHEM_MOLECULAR_FORMULA>
C20H20N2O2S

> <PUBCHEM_MOLECULAR_WEIGHT>
352.5

> <PUBCHEM_OPENEYE_CAN_SMILES>
C1CNCCC2C1C3=C2C=C4C(=C3)C=CN4S(=O)(=O)C5=CC=CC=C5

> <PUBCHEM_OPENEYE_ISO_SMILES>
C1CNCC[C@H]2[C@@H]1C3=C2C=C4C(=C3)C=CN4S(=O)(=O)C5=CC=CC=C5

> <PUBCHEM_CACTVS_TPSA>
59.5

> <PUBCHEM_MONOISOTOPIC_WEIGHT>
352.12454906

> <PUBCHEM_TOTAL_CHARGE>
0

> <PUBCHEM_HEAVY_ATOM_COUNT>
25

> <PUBCHEM_ATOM_DEF_STEREO_COUNT>
2

> <PUBCHEM_ATOM_UDEF_STEREO_COUNT>
0

> <PUBCHEM_BOND_DEF_STEREO_COUNT>
0

> <PUBCHEM_BOND_UDEF_STEREO_COUNT>
0

> <PUBCHEM_ISOTOPIC_ATOM_COUNT>
0

> <PUBCHEM_COMPONENT_COUNT>
1

> <PUBCHEM_CACTVS_TAUTO_COUNT>
-1

> <PUBCHEM_COORDINATE_TYPE>
1
5
255

> <PUBCHEM_BONDANNOTATIONS>
14  16  8
15  17  8
16  17  8
17  18  8
18  19  8
20  21  8
20  22  8
21  23  8
22  24  8
23  25  8
24  25  8
5  16  8
5  19  8
6  26  6
7  27  6
8  14  8
8  9  8
9  15  8

$$$$
