56944383
  -OEChem-09292322082D

 59 63  0     0  0  0  0  0  0999 V2000
   10.3438    3.2239    0.0000 S   0  0  0  0  0  0  0  0  0  0  0  0
   12.0593    2.7630    0.0000 S   0  0  0  0  0  0  0  0  0  0  0  0
    2.0000   -4.9027    0.0000 F   0  0  0  0  0  0  0  0  0  0  0  0
    5.5443   -4.7074    0.0000 O   0  0  0  0  0  0  0  0  0  0  0  0
   10.1376    4.2024    0.0000 O   0  0  0  0  0  0  0  0  0  0  0  0
   10.5500    2.2454    0.0000 O   0  0  0  0  0  0  0  0  0  0  0  0
    6.4763   -0.2464    0.0000 N   0  0  0  0  0  0  0  0  0  0  0  0
    6.1279   -3.9026    0.0000 N   0  0  0  0  0  0  0  0  0  0  0  0
    9.3653    3.0176    0.0000 N   0  0  0  0  0  0  0  0  0  0  0  0
    5.8550   -2.1474    0.0000 C   0  0  0  0  0  0  0  0  0  0  0  0
    5.1871   -1.4031    0.0000 C   0  0  0  0  0  0  0  0  0  0  0  0
    6.8335   -1.9412    0.0000 C   0  0  0  0  0  0  0  0  0  0  0  0
    5.4978   -0.4526    0.0000 C   0  0  0  0  0  0  0  0  0  0  0  0
    7.1441   -0.9907    0.0000 C   0  0  0  0  0  0  0  0  0  0  0  0
    6.7870    0.7042    0.0000 C   0  0  0  0  0  0  0  0  0  0  0  0
    5.5443   -3.0979    0.0000 C   0  0  0  0  0  0  0  0  0  0  0  0
    7.7654    0.9104    0.0000 C   0  0  0  0  0  0  0  0  0  0  0  0
    4.5981   -3.4026    0.0000 C   0  0  0  0  0  0  0  0  0  0  0  0
    8.0761    1.8609    0.0000 C   0  0  0  0  0  0  0  0  0  0  0  0
    4.5981   -4.4027    0.0000 C   0  0  0  0  0  0  0  0  0  0  0  0
    9.0546    2.0671    0.0000 C   0  0  0  0  0  0  0  0  0  0  0  0
    3.7320   -2.9026    0.0000 C   0  0  0  0  0  0  0  0  0  0  0  0
    3.7320   -4.9027    0.0000 C   0  0  0  0  0  0  0  0  0  0  0  0
    2.8660   -3.4026    0.0000 C   0  0  0  0  0  0  0  0  0  0  0  0
    2.8660   -4.4027    0.0000 C   0  0  0  0  0  0  0  0  0  0  0  0
   11.3223    3.4301    0.0000 C   0  0  0  0  0  0  0  0  0  0  0  0
   11.7274    4.3379    0.0000 C   0  0  0  0  0  0  0  0  0  0  0  0
   12.7161    4.2348    0.0000 C   0  0  0  0  0  0  0  0  0  0  0  0
   12.9223    3.2563    0.0000 C   0  0  0  0  0  0  0  0  0  0  0  0
   13.4604    4.9027    0.0000 C   0  0  0  0  0  0  0  0  0  0  0  0
   13.8729    2.9456    0.0000 C   0  0  0  0  0  0  0  0  0  0  0  0
   14.4110    4.5920    0.0000 C   0  0  0  0  0  0  0  0  0  0  0  0
   14.6172    3.6135    0.0000 C   0  0  0  0  0  0  0  0  0  0  0  0
    6.2690   -2.6089    0.0000 H   0  0  0  0  0  0  0  0  0  0  0  0
    4.6402   -1.1111    0.0000 H   0  0  0  0  0  0  0  0  0  0  0  0
    4.8046   -1.8910    0.0000 H   0  0  0  0  0  0  0  0  0  0  0  0
    6.8540   -2.5608    0.0000 H   0  0  0  0  0  0  0  0  0  0  0  0
    7.4473   -2.0285    0.0000 H   0  0  0  0  0  0  0  0  0  0  0  0
    5.4772    0.1671    0.0000 H   0  0  0  0  0  0  0  0  0  0  0  0
    4.8840   -0.3652    0.0000 H   0  0  0  0  0  0  0  0  0  0  0  0
    7.6910   -1.2827    0.0000 H   0  0  0  0  0  0  0  0  0  0  0  0
    7.5267   -0.5028    0.0000 H   0  0  0  0  0  0  0  0  0  0  0  0
    6.7664    1.3238    0.0000 H   0  0  0  0  0  0  0  0  0  0  0  0
    6.1731    0.7915    0.0000 H   0  0  0  0  0  0  0  0  0  0  0  0
    7.7860    0.2907    0.0000 H   0  0  0  0  0  0  0  0  0  0  0  0
    8.3793    0.8230    0.0000 H   0  0  0  0  0  0  0  0  0  0  0  0
    8.0556    2.4806    0.0000 H   0  0  0  0  0  0  0  0  0  0  0  0
    7.4623    1.9482    0.0000 H   0  0  0  0  0  0  0  0  0  0  0  0
    9.0752    1.4475    0.0000 H   0  0  0  0  0  0  0  0  0  0  0  0
    9.6684    1.9798    0.0000 H   0  0  0  0  0  0  0  0  0  0  0  0
    3.7320   -2.2826    0.0000 H   0  0  0  0  0  0  0  0  0  0  0  0
    8.9512    3.4791    0.0000 H   0  0  0  0  0  0  0  0  0  0  0  0
    3.7320   -5.5226    0.0000 H   0  0  0  0  0  0  0  0  0  0  0  0
    2.3291   -3.0926    0.0000 H   0  0  0  0  0  0  0  0  0  0  0  0
   11.4174    4.8748    0.0000 H   0  0  0  0  0  0  0  0  0  0  0  0
   13.3326    5.5093    0.0000 H   0  0  0  0  0  0  0  0  0  0  0  0
   14.0007    2.3390    0.0000 H   0  0  0  0  0  0  0  0  0  0  0  0
   14.8724    5.0060    0.0000 H   0  0  0  0  0  0  0  0  0  0  0  0
   15.2065    3.4209    0.0000 H   0  0  0  0  0  0  0  0  0  0  0  0
  1  5  2  0  0  0  0
  1  6  2  0  0  0  0
  1  9  1  0  0  0  0
  1 26  1  0  0  0  0
  2 26  1  0  0  0  0
  2 29  1  0  0  0  0
  3 25  1  0  0  0  0
  4  8  1  0  0  0  0
  4 20  1  0  0  0  0
  7 13  1  0  0  0  0
  7 14  1  0  0  0  0
  7 15  1  0  0  0  0
  8 16  2  0  0  0  0
  9 21  1  0  0  0  0
  9 52  1  0  0  0  0
 10 11  1  0  0  0  0
 10 12  1  0  0  0  0
 10 16  1  0  0  0  0
 10 34  1  0  0  0  0
 11 13  1  0  0  0  0
 11 35  1  0  0  0  0
 11 36  1  0  0  0  0
 12 14  1  0  0  0  0
 12 37  1  0  0  0  0
 12 38  1  0  0  0  0
 13 39  1  0  0  0  0
 13 40  1  0  0  0  0
 14 41  1  0  0  0  0
 14 42  1  0  0  0  0
 15 17  1  0  0  0  0
 15 43  1  0  0  0  0
 15 44  1  0  0  0  0
 16 18  1  0  0  0  0
 17 19  1  0  0  0  0
 17 45  1  0  0  0  0
 17 46  1  0  0  0  0
 18 20  2  0  0  0  0
 18 22  1  0  0  0  0
 19 21  1  0  0  0  0
 19 47  1  0  0  0  0
 19 48  1  0  0  0  0
 20 23  1  0  0  0  0
 21 49  1  0  0  0  0
 21 50  1  0  0  0  0
 22 24  2  0  0  0  0
 22 51  1  0  0  0  0
 23 25  2  0  0  0  0
 23 53  1  0  0  0  0
 24 25  1  0  0  0  0
 24 54  1  0  0  0  0
 26 27  2  0  0  0  0
 27 28  1  0  0  0  0
 27 55  1  0  0  0  0
 28 29  1  0  0  0  0
 28 30  2  0  0  0  0
 29 31  2  0  0  0  0
 30 32  1  0  0  0  0
 30 56  1  0  0  0  0
 31 33  1  0  0  0  0
 31 57  1  0  0  0  0
 32 33  2  0  0  0  0
 32 58  1  0  0  0  0
 33 59  1  0  0  0  0
M  END
> <PUBCHEM_COMPOUND_CID>
56944383

> <PUBCHEM_COMPOUND_CANONICALIZED>
1

> <PUBCHEM_CACTVS_COMPLEXITY>
744

> <PUBCHEM_CACTVS_HBOND_ACCEPTOR>
8

> <PUBCHEM_CACTVS_HBOND_DONOR>
1

> <PUBCHEM_CACTVS_ROTATABLE_BOND>
8

> <PUBCHEM_CACTVS_SUBSKEYS>
AAADceB7MQBgAAAAAAAAAAAAAAAAAWJAAAA8YIAAAAAAAFgB/gAAHwQUQAAADQzB3gwwh9NQAAqtA6RyQnDDAZAkKBBomLk+TNoIJrqglZOEMYBm0BmoyceYyOCOAAAAAAAMAAAAAAAAABgAAAAAAAAAAA==

> <PUBCHEM_IUPAC_OPENEYE_NAME>
N-[4-[4-(6-fluoro-1,2-benzoxazol-3-yl)-1-piperidyl]butyl]benzothiophene-2-sulfonamide

> <PUBCHEM_IUPAC_CAS_NAME>
N-[4-[4-(6-fluoro-1,2-benzoxazol-3-yl)-1-piperidinyl]butyl]-1-benzothiophene-2-sulfonamide

> <PUBCHEM_IUPAC_NAME_MARKUP>
<I>N</I>-[4-[4-(6-fluoro-1,2-benzoxazol-3-yl)piperidin-1-yl]butyl]-1-benzothiophene-2-sulfonamide

> <PUBCHEM_IUPAC_NAME>
N-[4-[4-(6-fluoro-1,2-benzoxazol-3-yl)piperidin-1-yl]butyl]-1-benzothiophene-2-sulfonamide

> <PUBCHEM_IUPAC_SYSTEMATIC_NAME>
N-[4-[4-(6-fluoranyl-1,2-benzoxazol-3-yl)piperidin-1-yl]butyl]-1-benzothiophene-2-sulfonamide

> <PUBCHEM_IUPAC_TRADITIONAL_NAME>
N-[4-[4-(6-fluoroindoxazen-3-yl)piperidino]butyl]benzothiophene-2-sulfonamide

> <PUBCHEM_IUPAC_INCHI>
InChI=1S/C24H26FN3O3S2/c25-19-7-8-20-21(16-19)31-27-24(20)17-9-13-28(14-10-17)12-4-3-11-26-33(29,30)23-15-18-5-1-2-6-22(18)32-23/h1-2,5-8,15-17,26H,3-4,9-14H2

> <PUBCHEM_IUPAC_INCHIKEY>
GXZWKZAOGQRNTL-UHFFFAOYSA-N

> <PUBCHEM_XLOGP3_AA>
5.1

> <PUBCHEM_EXACT_MASS>
487.13996221

> <PUBCHEM_MOLECULAR_FORMULA>
C24H26FN3O3S2

> <PUBCHEM_MOLECULAR_WEIGHT>
487.6

> <PUBCHEM_OPENEYE_CAN_SMILES>
C1CN(CCC1C2=NOC3=C2C=CC(=C3)F)CCCCNS(=O)(=O)C4=CC5=CC=CC=C5S4

> <PUBCHEM_OPENEYE_ISO_SMILES>
C1CN(CCC1C2=NOC3=C2C=CC(=C3)F)CCCCNS(=O)(=O)C4=CC5=CC=CC=C5S4

> <PUBCHEM_CACTVS_TPSA>
112

> <PUBCHEM_MONOISOTOPIC_WEIGHT>
487.13996221

> <PUBCHEM_TOTAL_CHARGE>
0

> <PUBCHEM_HEAVY_ATOM_COUNT>
33

> <PUBCHEM_ATOM_DEF_STEREO_COUNT>
0

> <PUBCHEM_ATOM_UDEF_STEREO_COUNT>
0

> <PUBCHEM_BOND_DEF_STEREO_COUNT>
0

> <PUBCHEM_BOND_UDEF_STEREO_COUNT>
0

> <PUBCHEM_ISOTOPIC_ATOM_COUNT>
0

> <PUBCHEM_COMPONENT_COUNT>
1

> <PUBCHEM_CACTVS_TAUTO_COUNT>
-1

> <PUBCHEM_COORDINATE_TYPE>
1
5
255

> <PUBCHEM_BONDANNOTATIONS>
16  18  8
18  20  8
18  22  8
2  26  8
2  29  8
20  23  8
22  24  8
23  25  8
24  25  8
26  27  8
27  28  8
28  29  8
28  30  8
29  31  8
30  32  8
31  33  8
32  33  8
4  20  8
4  8  8
8  16  8

$$$$
