22849992
  -OEChem-09292322122D

 51 54  0     1  0  0  0  0  0999 V2000
    8.8722   -2.3004    0.0000 Cl  0  0  0  0  0  0  0  0  0  0  0  0
    4.6000    2.9430    0.0000 O   0  0  0  0  0  0  0  0  0  0  0  0
    6.4078    0.9360    0.0000 N   0  0  3  0  0  0  0  0  0  0  0  0
    3.7398    1.4396    0.0000 N   0  0  0  0  0  0  0  0  0  0  0  0
    7.3958   -3.2541    0.0000 N   0  0  0  0  0  0  0  0  0  0  0  0
    5.5257   -0.6055    0.0000 C   0  0  3  0  0  0  0  0  0  0  0  0
    6.3918   -0.1055    0.0000 C   0  0  1  0  0  0  0  0  0  0  0  0
    4.6157   -0.0986    0.0000 C   0  0  0  0  0  0  0  0  0  0  0  0
    4.6077    0.9430    0.0000 C   0  0  1  0  0  0  0  0  0  0  0  0
    7.2578   -0.6055    0.0000 C   0  0  0  0  0  0  0  0  0  0  0  0
    5.5098    1.4638    0.0000 C   0  0  0  0  0  0  0  0  0  0  0  0
    5.5257   -1.6055    0.0000 C   0  0  0  0  0  0  0  0  0  0  0  0
    6.3918   -2.1055    0.0000 C   0  0  0  0  0  0  0  0  0  0  0  0
    7.2578   -1.6055    0.0000 C   0  0  0  0  0  0  0  0  0  0  0  0
    7.2796    1.4260    0.0000 C   0  0  0  0  0  0  0  0  0  0  0  0
    6.4078   -3.1470    0.0000 C   0  0  0  0  0  0  0  0  0  0  0  0
    4.6157   -2.1123    0.0000 C   0  0  0  0  0  0  0  0  0  0  0  0
    7.8757   -2.3838    0.0000 C   0  0  0  0  0  0  0  0  0  0  0  0
    3.7359    2.4396    0.0000 C   0  0  0  0  0  0  0  0  0  0  0  0
    5.5098   -3.6747    0.0000 C   0  0  0  0  0  0  0  0  0  0  0  0
    4.6077   -3.1539    0.0000 C   0  0  0  0  0  0  0  0  0  0  0  0
    2.8680    2.9363    0.0000 C   0  0  0  0  0  0  0  0  0  0  0  0
    2.0000    3.4329    0.0000 C   0  0  0  0  0  0  0  0  0  0  0  0
    3.3646    3.8042    0.0000 C   0  0  0  0  0  0  0  0  0  0  0  0
    2.3713    2.0683    0.0000 C   0  0  0  0  0  0  0  0  0  0  0  0
    4.9912   -0.9196    0.0000 H   0  0  0  0  0  0  0  0  0  0  0  0
    7.1311    0.3138    0.0000 H   0  0  0  0  0  0  0  0  0  0  0  0
    4.0041    0.0027    0.0000 H   0  0  0  0  0  0  0  0  0  0  0  0
    4.4112   -0.6839    0.0000 H   0  0  0  0  0  0  0  0  0  0  0  0
    4.0726    0.6299    0.0000 H   0  0  0  0  0  0  0  0  0  0  0  0
    7.8684   -0.7131    0.0000 H   0  0  0  0  0  0  0  0  0  0  0  0
    7.4698   -0.0229    0.0000 H   0  0  0  0  0  0  0  0  0  0  0  0
    5.9107    1.9367    0.0000 H   0  0  0  0  0  0  0  0  0  0  0  0
    5.1125    1.9398    0.0000 H   0  0  0  0  0  0  0  0  0  0  0  0
    3.2040    1.1276    0.0000 H   0  0  0  0  0  0  0  0  0  0  0  0
    7.5833    0.8855    0.0000 H   0  0  0  0  0  0  0  0  0  0  0  0
    7.8200    1.7298    0.0000 H   0  0  0  0  0  0  0  0  0  0  0  0
    6.9758    1.9665    0.0000 H   0  0  0  0  0  0  0  0  0  0  0  0
    4.0824   -1.7961    0.0000 H   0  0  0  0  0  0  0  0  0  0  0  0
    7.6818   -3.8042    0.0000 H   0  0  0  0  0  0  0  0  0  0  0  0
    5.5122   -4.2947    0.0000 H   0  0  0  0  0  0  0  0  0  0  0  0
    4.0696   -3.4618    0.0000 H   0  0  0  0  0  0  0  0  0  0  0  0
    2.3079    3.9711    0.0000 H   0  0  0  0  0  0  0  0  0  0  0  0
    1.4619    3.7409    0.0000 H   0  0  0  0  0  0  0  0  0  0  0  0
    1.6921    2.8948    0.0000 H   0  0  0  0  0  0  0  0  0  0  0  0
    3.9027    3.4963    0.0000 H   0  0  0  0  0  0  0  0  0  0  0  0
    3.6725    4.3424    0.0000 H   0  0  0  0  0  0  0  0  0  0  0  0
    2.8265    4.1122    0.0000 H   0  0  0  0  0  0  0  0  0  0  0  0
    1.8332    2.3763    0.0000 H   0  0  0  0  0  0  0  0  0  0  0  0
    2.0634    1.5302    0.0000 H   0  0  0  0  0  0  0  0  0  0  0  0
    2.9094    1.7604    0.0000 H   0  0  0  0  0  0  0  0  0  0  0  0
  1 18  1  0  0  0  0
  2 19  2  0  0  0  0
  3  7  1  0  0  0  0
  3 11  1  0  0  0  0
  3 15  1  0  0  0  0
  9  4  1  6  0  0  0
  4 19  1  0  0  0  0
  4 35  1  0  0  0  0
  5 16  1  0  0  0  0
  5 18  1  0  0  0  0
  5 40  1  0  0  0  0
  6  7  1  0  0  0  0
  6  8  1  0  0  0  0
  6 12  1  0  0  0  0
  6 26  1  0  0  0  0
  7 10  1  0  0  0  0
  7 27  1  1  0  0  0
  8  9  1  0  0  0  0
  8 28  1  0  0  0  0
  8 29  1  0  0  0  0
  9 11  1  0  0  0  0
  9 30  1  0  0  0  0
 10 14  1  0  0  0  0
 10 31  1  0  0  0  0
 10 32  1  0  0  0  0
 11 33  1  0  0  0  0
 11 34  1  0  0  0  0
 12 13  2  0  0  0  0
 12 17  1  0  0  0  0
 13 14  1  0  0  0  0
 13 16  1  0  0  0  0
 14 18  2  0  0  0  0
 15 36  1  0  0  0  0
 15 37  1  0  0  0  0
 15 38  1  0  0  0  0
 16 20  2  0  0  0  0
 17 21  2  0  0  0  0
 17 39  1  0  0  0  0
 19 22  1  0  0  0  0
 20 21  1  0  0  0  0
 20 41  1  0  0  0  0
 21 42  1  0  0  0  0
 22 23  1  0  0  0  0
 22 24  1  0  0  0  0
 22 25  1  0  0  0  0
 23 43  1  0  0  0  0
 23 44  1  0  0  0  0
 23 45  1  0  0  0  0
 24 46  1  0  0  0  0
 24 47  1  0  0  0  0
 24 48  1  0  0  0  0
 25 49  1  0  0  0  0
 25 50  1  0  0  0  0
 25 51  1  0  0  0  0
M  END
> <PUBCHEM_COMPOUND_CID>
22849992

> <PUBCHEM_COMPOUND_CANONICALIZED>
1

> <PUBCHEM_CACTVS_COMPLEXITY>
534

> <PUBCHEM_CACTVS_HBOND_ACCEPTOR>
2

> <PUBCHEM_CACTVS_HBOND_DONOR>
2

> <PUBCHEM_CACTVS_ROTATABLE_BOND>
2

> <PUBCHEM_CACTVS_SUBSKEYS>
AAADceB7IAAEAAAAAAAAAAAAAAAAAWAAAAA8YIAAAAAAAFjx8AAAHgIQAAAADyrBniQywPPJkACoAyVyVACCgCAhBiAImaE4ZpgIYOLBk5GUIAhglgDIyAcQgMAOgAAAQAASAACQAASAACQAAAAAAAAAAA==

> <PUBCHEM_IUPAC_OPENEYE_NAME>
N-[(6aR,9S)-5-chloro-7-methyl-6,6a,8,9,10,10a-hexahydro-4H-indolo[4,3-fg]quinolin-9-yl]-2,2-dimethyl-propanamide

> <PUBCHEM_IUPAC_CAS_NAME>
N-[(6aR,9S)-5-chloro-7-methyl-6,6a,8,9,10,10a-hexahydro-4H-indolo[4,3-fg]quinolin-9-yl]-2,2-dimethylpropanamide

> <PUBCHEM_IUPAC_NAME_MARKUP>
<I>N</I>-[(6<I>a</I><I>R</I>,9<I>S</I>)-5-chloro-7-methyl-6,6<I>a</I>,8,9,10,10<I>a</I>-hexahydro-4<I>H</I>-indolo[4,3-fg]quinolin-9-yl]-2,2-dimethylpropanamide

> <PUBCHEM_IUPAC_NAME>
N-[(6aR,9S)-5-chloro-7-methyl-6,6a,8,9,10,10a-hexahydro-4H-indolo[4,3-fg]quinolin-9-yl]-2,2-dimethylpropanamide

> <PUBCHEM_IUPAC_SYSTEMATIC_NAME>
N-[(6aR,9S)-5-chloranyl-7-methyl-6,6a,8,9,10,10a-hexahydro-4H-indolo[4,3-fg]quinolin-9-yl]-2,2-dimethyl-propanamide

> <PUBCHEM_IUPAC_TRADITIONAL_NAME>
N-[(6aR,9S)-5-chloro-7-methyl-6,6a,8,9,10,10a-hexahydro-4H-indolo[4,3-fg]quinolin-9-yl]-2,2-dimethyl-propionamide

> <PUBCHEM_IUPAC_INCHI>
InChI=1S/C20H26ClN3O/c1-20(2,3)19(25)22-11-8-13-12-6-5-7-15-17(12)14(18(21)23-15)9-16(13)24(4)10-11/h5-7,11,13,16,23H,8-10H2,1-4H3,(H,22,25)/t11-,13?,16+/m0/s1

> <PUBCHEM_IUPAC_INCHIKEY>
QXOFQMUQMXGKGQ-VKCPWKDNSA-N

> <PUBCHEM_XLOGP3_AA>
4.1

> <PUBCHEM_EXACT_MASS>
359.1764402

> <PUBCHEM_MOLECULAR_FORMULA>
C20H26ClN3O

> <PUBCHEM_MOLECULAR_WEIGHT>
359.9

> <PUBCHEM_OPENEYE_CAN_SMILES>
CC(C)(C)C(=O)NC1CC2C(CC3=C(NC4=CC=CC2=C34)Cl)N(C1)C

> <PUBCHEM_OPENEYE_ISO_SMILES>
CC(C)(C)C(=O)N[C@H]1CC2[C@@H](CC3=C(NC4=CC=CC2=C34)Cl)N(C1)C

> <PUBCHEM_CACTVS_TPSA>
48.1

> <PUBCHEM_MONOISOTOPIC_WEIGHT>
359.1764402

> <PUBCHEM_TOTAL_CHARGE>
0

> <PUBCHEM_HEAVY_ATOM_COUNT>
25

> <PUBCHEM_ATOM_DEF_STEREO_COUNT>
2

> <PUBCHEM_ATOM_UDEF_STEREO_COUNT>
1

> <PUBCHEM_BOND_DEF_STEREO_COUNT>
0

> <PUBCHEM_BOND_UDEF_STEREO_COUNT>
0

> <PUBCHEM_ISOTOPIC_ATOM_COUNT>
0

> <PUBCHEM_COMPONENT_COUNT>
1

> <PUBCHEM_CACTVS_TAUTO_COUNT>
-1

> <PUBCHEM_COORDINATE_TYPE>
1
5
255

> <PUBCHEM_BONDANNOTATIONS>
12  13  8
12  17  8
13  14  8
13  16  8
14  18  8
16  20  8
17  21  8
20  21  8
9  4  6
5  16  8
5  18  8
6  8  3
7  27  5

$$$$
