23625706
  -OEChem-09292322252D

 69 73  0     0  0  0  0  0  0999 V2000
    9.2619   -2.4641    0.0000 O   0  0  0  0  0  0  0  0  0  0  0  0
   12.7619    3.5981    0.0000 O   0  0  0  0  0  0  0  0  0  0  0  0
   12.7619    0.1340    0.0000 N   0  0  0  0  0  0  0  0  0  0  0  0
   13.7619    1.8660    0.0000 N   0  0  0  0  0  0  0  0  0  0  0  0
    3.7320   -1.9641    0.0000 N   0  0  0  0  0  0  0  0  0  0  0  0
    4.6783   -3.2688    0.0000 N   0  0  0  0  0  0  0  0  0  0  0  0
   13.7619    0.1340    0.0000 C   0  0  0  0  0  0  0  0  0  0  0  0
   12.2619    1.0000    0.0000 C   0  0  0  0  0  0  0  0  0  0  0  0
   14.2619    1.0000    0.0000 C   0  0  0  0  0  0  0  0  0  0  0  0
   12.7619    1.8660    0.0000 C   0  0  0  0  0  0  0  0  0  0  0  0
   12.2619   -0.7321    0.0000 C   0  0  0  0  0  0  0  0  0  0  0  0
   11.2619   -0.7321    0.0000 C   0  0  0  0  0  0  0  0  0  0  0  0
   14.2619    2.7320    0.0000 C   0  0  0  0  0  0  0  0  0  0  0  0
   10.7619   -1.5981    0.0000 C   0  0  0  0  0  0  0  0  0  0  0  0
   13.7619    3.5981    0.0000 C   0  0  0  0  0  0  0  0  0  0  0  0
    9.7619   -1.5981    0.0000 C   0  0  0  0  0  0  0  0  0  0  0  0
   15.2619    2.7320    0.0000 C   0  0  0  0  0  0  0  0  0  0  0  0
   14.2619    4.4641    0.0000 C   0  0  0  0  0  0  0  0  0  0  0  0
   15.7619    3.5981    0.0000 C   0  0  0  0  0  0  0  0  0  0  0  0
   15.2619    4.4641    0.0000 C   0  0  0  0  0  0  0  0  0  0  0  0
    8.2619   -2.4641    0.0000 C   0  0  0  0  0  0  0  0  0  0  0  0
   12.2619    4.4641    0.0000 C   0  0  0  0  0  0  0  0  0  0  0  0
    6.2619   -2.4641    0.0000 C   0  0  0  0  0  0  0  0  0  0  0  0
    7.7619   -1.5981    0.0000 C   0  0  0  0  0  0  0  0  0  0  0  0
    7.7619   -3.3301    0.0000 C   0  0  0  0  0  0  0  0  0  0  0  0
    5.2619   -2.4641    0.0000 C   0  0  0  0  0  0  0  0  0  0  0  0
    3.7320   -2.9641    0.0000 C   0  0  0  0  0  0  0  0  0  0  0  0
    6.7619   -1.5981    0.0000 C   0  0  0  0  0  0  0  0  0  0  0  0
    6.7619   -3.3301    0.0000 C   0  0  0  0  0  0  0  0  0  0  0  0
    4.6783   -1.6594    0.0000 C   0  0  0  0  0  0  0  0  0  0  0  0
    2.8660   -3.4641    0.0000 C   0  0  0  0  0  0  0  0  0  0  0  0
    2.8660   -1.4641    0.0000 C   0  0  0  0  0  0  0  0  0  0  0  0
    2.0000   -2.9641    0.0000 C   0  0  0  0  0  0  0  0  0  0  0  0
    2.0000   -1.9641    0.0000 C   0  0  0  0  0  0  0  0  0  0  0  0
    2.8660   -4.4641    0.0000 C   0  0  0  0  0  0  0  0  0  0  0  0
   13.6542   -0.4766    0.0000 H   0  0  0  0  0  0  0  0  0  0  0  0
   14.3445   -0.0781    0.0000 H   0  0  0  0  0  0  0  0  0  0  0  0
   11.7869    1.3985    0.0000 H   0  0  0  0  0  0  0  0  0  0  0  0
   11.7869    0.6015    0.0000 H   0  0  0  0  0  0  0  0  0  0  0  0
   14.7368    0.6015    0.0000 H   0  0  0  0  0  0  0  0  0  0  0  0
   14.7368    1.3985    0.0000 H   0  0  0  0  0  0  0  0  0  0  0  0
   12.8695    2.4766    0.0000 H   0  0  0  0  0  0  0  0  0  0  0  0
   12.1793    2.0781    0.0000 H   0  0  0  0  0  0  0  0  0  0  0  0
   12.1542   -1.3426    0.0000 H   0  0  0  0  0  0  0  0  0  0  0  0
   12.8445   -0.9441    0.0000 H   0  0  0  0  0  0  0  0  0  0  0  0
   11.3695   -0.1215    0.0000 H   0  0  0  0  0  0  0  0  0  0  0  0
   10.6793   -0.5200    0.0000 H   0  0  0  0  0  0  0  0  0  0  0  0
   10.6542   -2.2087    0.0000 H   0  0  0  0  0  0  0  0  0  0  0  0
   11.3445   -1.8101    0.0000 H   0  0  0  0  0  0  0  0  0  0  0  0
    9.8695   -0.9875    0.0000 H   0  0  0  0  0  0  0  0  0  0  0  0
    9.1793   -1.3860    0.0000 H   0  0  0  0  0  0  0  0  0  0  0  0
   15.5719    2.1951    0.0000 H   0  0  0  0  0  0  0  0  0  0  0  0
   13.9519    5.0010    0.0000 H   0  0  0  0  0  0  0  0  0  0  0  0
   16.3819    3.5981    0.0000 H   0  0  0  0  0  0  0  0  0  0  0  0
   15.5719    5.0010    0.0000 H   0  0  0  0  0  0  0  0  0  0  0  0
   12.7988    4.7741    0.0000 H   0  0  0  0  0  0  0  0  0  0  0  0
   11.9519    5.0010    0.0000 H   0  0  0  0  0  0  0  0  0  0  0  0
   11.7249    4.1541    0.0000 H   0  0  0  0  0  0  0  0  0  0  0  0
    8.0719   -1.0611    0.0000 H   0  0  0  0  0  0  0  0  0  0  0  0
    8.0719   -3.8671    0.0000 H   0  0  0  0  0  0  0  0  0  0  0  0
    6.4519   -1.0611    0.0000 H   0  0  0  0  0  0  0  0  0  0  0  0
    6.4519   -3.8671    0.0000 H   0  0  0  0  0  0  0  0  0  0  0  0
    4.8709   -1.0700    0.0000 H   0  0  0  0  0  0  0  0  0  0  0  0
    2.8660   -0.8441    0.0000 H   0  0  0  0  0  0  0  0  0  0  0  0
    1.4631   -3.2741    0.0000 H   0  0  0  0  0  0  0  0  0  0  0  0
    1.4631   -1.6541    0.0000 H   0  0  0  0  0  0  0  0  0  0  0  0
    2.2460   -4.4641    0.0000 H   0  0  0  0  0  0  0  0  0  0  0  0
    2.8660   -5.0841    0.0000 H   0  0  0  0  0  0  0  0  0  0  0  0
    3.4860   -4.4641    0.0000 H   0  0  0  0  0  0  0  0  0  0  0  0
  1 16  1  0  0  0  0
  1 21  1  0  0  0  0
  2 15  1  0  0  0  0
  2 22  1  0  0  0  0
  3  7  1  0  0  0  0
  3  8  1  0  0  0  0
  3 11  1  0  0  0  0
  4  9  1  0  0  0  0
  4 10  1  0  0  0  0
  4 13  1  0  0  0  0
  5 27  1  0  0  0  0
  5 30  1  0  0  0  0
  5 32  1  0  0  0  0
  6 26  1  0  0  0  0
  6 27  2  0  0  0  0
  7  9  1  0  0  0  0
  7 36  1  0  0  0  0
  7 37  1  0  0  0  0
  8 10  1  0  0  0  0
  8 38  1  0  0  0  0
  8 39  1  0  0  0  0
  9 40  1  0  0  0  0
  9 41  1  0  0  0  0
 10 42  1  0  0  0  0
 10 43  1  0  0  0  0
 11 12  1  0  0  0  0
 11 44  1  0  0  0  0
 11 45  1  0  0  0  0
 12 14  1  0  0  0  0
 12 46  1  0  0  0  0
 12 47  1  0  0  0  0
 13 15  1  0  0  0  0
 13 17  2  0  0  0  0
 14 16  1  0  0  0  0
 14 48  1  0  0  0  0
 14 49  1  0  0  0  0
 15 18  2  0  0  0  0
 16 50  1  0  0  0  0
 16 51  1  0  0  0  0
 17 19  1  0  0  0  0
 17 52  1  0  0  0  0
 18 20  1  0  0  0  0
 18 53  1  0  0  0  0
 19 20  2  0  0  0  0
 19 54  1  0  0  0  0
 20 55  1  0  0  0  0
 21 24  2  0  0  0  0
 21 25  1  0  0  0  0
 22 56  1  0  0  0  0
 22 57  1  0  0  0  0
 22 58  1  0  0  0  0
 23 26  1  0  0  0  0
 23 28  2  0  0  0  0
 23 29  1  0  0  0  0
 24 28  1  0  0  0  0
 24 59  1  0  0  0  0
 25 29  2  0  0  0  0
 25 60  1  0  0  0  0
 26 30  2  0  0  0  0
 27 31  1  0  0  0  0
 28 61  1  0  0  0  0
 29 62  1  0  0  0  0
 30 63  1  0  0  0  0
 31 33  2  0  0  0  0
 31 35  1  0  0  0  0
 32 34  2  0  0  0  0
 32 64  1  0  0  0  0
 33 34  1  0  0  0  0
 33 65  1  0  0  0  0
 34 66  1  0  0  0  0
 35 67  1  0  0  0  0
 35 68  1  0  0  0  0
 35 69  1  0  0  0  0
M  END
> <PUBCHEM_COMPOUND_CID>
23625706

> <PUBCHEM_COMPOUND_CANONICALIZED>
1

> <PUBCHEM_CACTVS_COMPLEXITY>
620

> <PUBCHEM_CACTVS_HBOND_ACCEPTOR>
5

> <PUBCHEM_CACTVS_HBOND_DONOR>
0

> <PUBCHEM_CACTVS_ROTATABLE_BOND>
9

> <PUBCHEM_CACTVS_SUBSKEYS>
AAADcfB7sAAAAAAAAAAAAAAAAAAAAWAAAAA8eIEAAAAAAFgB9AAAHgAAAAAADAzhnwY/9p8MHACgAzZnZACCiC0xMqAJ2CA/fJiObuLEuZuXOCjswBPY6Cew0IMOIAAAAAAAEABAAAAAAAAgAAAAAAAAAA==

> <PUBCHEM_IUPAC_OPENEYE_NAME>
2-[4-[4-[4-(2-methoxyphenyl)piperazin-1-yl]butoxy]phenyl]-8-methyl-imidazo[1,2-a]pyridine

> <PUBCHEM_IUPAC_CAS_NAME>
2-[4-[4-[4-(2-methoxyphenyl)-1-piperazinyl]butoxy]phenyl]-8-methylimidazo[1,2-a]pyridine

> <PUBCHEM_IUPAC_NAME_MARKUP>
2-[4-[4-[4-(2-methoxyphenyl)piperazin-1-yl]butoxy]phenyl]-8-methylimidazo[1,2-a]pyridine

> <PUBCHEM_IUPAC_NAME>
2-[4-[4-[4-(2-methoxyphenyl)piperazin-1-yl]butoxy]phenyl]-8-methylimidazo[1,2-a]pyridine

> <PUBCHEM_IUPAC_SYSTEMATIC_NAME>
2-[4-[4-[4-(2-methoxyphenyl)piperazin-1-yl]butoxy]phenyl]-8-methyl-imidazo[1,2-a]pyridine

> <PUBCHEM_IUPAC_TRADITIONAL_NAME>
2-[4-[4-[4-(2-methoxyphenyl)piperazino]butoxy]phenyl]-8-methyl-imidazo[1,2-a]pyridine

> <PUBCHEM_IUPAC_INCHI>
InChI=1S/C29H34N4O2/c1-23-8-7-16-33-22-26(30-29(23)33)24-11-13-25(14-12-24)35-21-6-5-15-31-17-19-32(20-18-31)27-9-3-4-10-28(27)34-2/h3-4,7-14,16,22H,5-6,15,17-21H2,1-2H3

> <PUBCHEM_IUPAC_INCHIKEY>
DZWGDUHDXDFOQC-UHFFFAOYSA-N

> <PUBCHEM_XLOGP3_AA>
6.1

> <PUBCHEM_EXACT_MASS>
470.26817634

> <PUBCHEM_MOLECULAR_FORMULA>
C29H34N4O2

> <PUBCHEM_MOLECULAR_WEIGHT>
470.6

> <PUBCHEM_OPENEYE_CAN_SMILES>
CC1=CC=CN2C1=NC(=C2)C3=CC=C(C=C3)OCCCCN4CCN(CC4)C5=CC=CC=C5OC

> <PUBCHEM_OPENEYE_ISO_SMILES>
CC1=CC=CN2C1=NC(=C2)C3=CC=C(C=C3)OCCCCN4CCN(CC4)C5=CC=CC=C5OC

> <PUBCHEM_CACTVS_TPSA>
42.2

> <PUBCHEM_MONOISOTOPIC_WEIGHT>
470.26817634

> <PUBCHEM_TOTAL_CHARGE>
0

> <PUBCHEM_HEAVY_ATOM_COUNT>
35

> <PUBCHEM_ATOM_DEF_STEREO_COUNT>
0

> <PUBCHEM_ATOM_UDEF_STEREO_COUNT>
0

> <PUBCHEM_BOND_DEF_STEREO_COUNT>
0

> <PUBCHEM_BOND_UDEF_STEREO_COUNT>
0

> <PUBCHEM_ISOTOPIC_ATOM_COUNT>
0

> <PUBCHEM_COMPONENT_COUNT>
1

> <PUBCHEM_CACTVS_TAUTO_COUNT>
-1

> <PUBCHEM_COORDINATE_TYPE>
1
5
255

> <PUBCHEM_BONDANNOTATIONS>
13  15  8
13  17  8
15  18  8
17  19  8
18  20  8
19  20  8
21  24  8
21  25  8
23  28  8
23  29  8
24  28  8
25  29  8
26  30  8
27  31  8
31  33  8
32  34  8
33  34  8
5  27  8
5  30  8
5  32  8
6  26  8
6  27  8

$$$$
