51353989
  -OEChem-09292322402D

 66 69  0     0  0  0  0  0  0999 V2000
    8.4282    7.5194    0.0000 S   0  0  0  0  0  0  0  0  0  0  0  0
    2.0000   -6.0194    0.0000 F   0  0  0  0  0  0  0  0  0  0  0  0
    4.5981   -5.5194    0.0000 O   0  0  0  0  0  0  0  0  0  0  0  0
    9.7942    1.4806    0.0000 O   0  0  0  0  0  0  0  0  0  0  0  0
    6.3301   -2.5194    0.0000 N   0  0  0  0  0  0  0  0  0  0  0  0
    6.3301   -4.5194    0.0000 N   0  0  0  0  0  0  0  0  0  0  0  0
    8.0622    1.4806    0.0000 N   0  0  0  0  0  0  0  0  0  0  0  0
    7.1962   -3.0194    0.0000 C   0  0  0  0  0  0  0  0  0  0  0  0
    5.4641   -3.0194    0.0000 C   0  0  0  0  0  0  0  0  0  0  0  0
    7.1962   -4.0194    0.0000 C   0  0  0  0  0  0  0  0  0  0  0  0
    5.4641   -4.0194    0.0000 C   0  0  0  0  0  0  0  0  0  0  0  0
    6.3301   -1.5194    0.0000 C   0  0  0  0  0  0  0  0  0  0  0  0
    7.1962   -1.0194    0.0000 C   0  0  0  0  0  0  0  0  0  0  0  0
    6.3301   -5.5194    0.0000 C   0  0  0  0  0  0  0  0  0  0  0  0
    7.1962   -0.0194    0.0000 C   0  0  0  0  0  0  0  0  0  0  0  0
    8.0622    0.4806    0.0000 C   0  0  0  0  0  0  0  0  0  0  0  0
    5.4641   -6.0194    0.0000 C   0  0  0  0  0  0  0  0  0  0  0  0
    7.1962   -6.0194    0.0000 C   0  0  0  0  0  0  0  0  0  0  0  0
    5.4641   -7.0194    0.0000 C   0  0  0  0  0  0  0  0  0  0  0  0
    7.1962   -7.0194    0.0000 C   0  0  0  0  0  0  0  0  0  0  0  0
    6.3301   -7.5194    0.0000 C   0  0  0  0  0  0  0  0  0  0  0  0
    8.9282    1.9806    0.0000 C   0  0  0  0  0  0  0  0  0  0  0  0
    3.7320   -6.0194    0.0000 C   0  0  0  0  0  0  0  0  0  0  0  0
    8.9282    2.9806    0.0000 C   0  0  0  0  0  0  0  0  0  0  0  0
    2.8660   -5.5194    0.0000 C   0  0  0  0  0  0  0  0  0  0  0  0
    9.7942    3.4806    0.0000 C   0  0  0  0  0  0  0  0  0  0  0  0
    8.0622    3.4806    0.0000 C   0  0  0  0  0  0  0  0  0  0  0  0
    8.9282    4.9806    0.0000 C   0  0  0  0  0  0  0  0  0  0  0  0
    9.7942    4.4806    0.0000 C   0  0  0  0  0  0  0  0  0  0  0  0
    8.0622    4.4806    0.0000 C   0  0  0  0  0  0  0  0  0  0  0  0
    8.9282    5.9806    0.0000 C   0  0  0  0  0  0  0  0  0  0  0  0
    9.7372    6.5684    0.0000 C   0  0  0  0  0  0  0  0  0  0  0  0
    8.1192    6.5684    0.0000 C   0  0  0  0  0  0  0  0  0  0  0  0
    9.4282    7.5194    0.0000 C   0  0  0  0  0  0  0  0  0  0  0  0
    7.8067   -3.1271    0.0000 H   0  0  0  0  0  0  0  0  0  0  0  0
    7.4082   -2.4368    0.0000 H   0  0  0  0  0  0  0  0  0  0  0  0
    5.2520   -2.4368    0.0000 H   0  0  0  0  0  0  0  0  0  0  0  0
    4.8535   -3.1271    0.0000 H   0  0  0  0  0  0  0  0  0  0  0  0
    7.4082   -4.6020    0.0000 H   0  0  0  0  0  0  0  0  0  0  0  0
    7.8067   -3.9118    0.0000 H   0  0  0  0  0  0  0  0  0  0  0  0
    4.8535   -3.9118    0.0000 H   0  0  0  0  0  0  0  0  0  0  0  0
    5.2520   -4.6020    0.0000 H   0  0  0  0  0  0  0  0  0  0  0  0
    6.1181   -0.9368    0.0000 H   0  0  0  0  0  0  0  0  0  0  0  0
    5.7196   -1.6271    0.0000 H   0  0  0  0  0  0  0  0  0  0  0  0
    7.4082   -1.6020    0.0000 H   0  0  0  0  0  0  0  0  0  0  0  0
    7.8067   -0.9118    0.0000 H   0  0  0  0  0  0  0  0  0  0  0  0
    6.9841    0.5632    0.0000 H   0  0  0  0  0  0  0  0  0  0  0  0
    6.5856   -0.1271    0.0000 H   0  0  0  0  0  0  0  0  0  0  0  0
    8.2742   -0.1020    0.0000 H   0  0  0  0  0  0  0  0  0  0  0  0
    8.6728    0.5882    0.0000 H   0  0  0  0  0  0  0  0  0  0  0  0
    7.7331   -5.7094    0.0000 H   0  0  0  0  0  0  0  0  0  0  0  0
    4.9272   -7.3294    0.0000 H   0  0  0  0  0  0  0  0  0  0  0  0
    7.7331   -7.3294    0.0000 H   0  0  0  0  0  0  0  0  0  0  0  0
    7.5252    1.7906    0.0000 H   0  0  0  0  0  0  0  0  0  0  0  0
    6.3301   -8.1394    0.0000 H   0  0  0  0  0  0  0  0  0  0  0  0
    3.3335   -6.4944    0.0000 H   0  0  0  0  0  0  0  0  0  0  0  0
    4.1306   -6.4944    0.0000 H   0  0  0  0  0  0  0  0  0  0  0  0
    3.2646   -5.0445    0.0000 H   0  0  0  0  0  0  0  0  0  0  0  0
    2.4675   -5.0445    0.0000 H   0  0  0  0  0  0  0  0  0  0  0  0
   10.3312    3.1706    0.0000 H   0  0  0  0  0  0  0  0  0  0  0  0
    7.5252    3.1706    0.0000 H   0  0  0  0  0  0  0  0  0  0  0  0
   10.3312    4.7906    0.0000 H   0  0  0  0  0  0  0  0  0  0  0  0
    7.5252    4.7906    0.0000 H   0  0  0  0  0  0  0  0  0  0  0  0
   10.3269    6.3768    0.0000 H   0  0  0  0  0  0  0  0  0  0  0  0
    7.5295    6.3768    0.0000 H   0  0  0  0  0  0  0  0  0  0  0  0
    9.7926    8.0210    0.0000 H   0  0  0  0  0  0  0  0  0  0  0  0
  1 33  1  0  0  0  0
  1 34  1  0  0  0  0
  2 25  1  0  0  0  0
  3 17  1  0  0  0  0
  3 23  1  0  0  0  0
  4 22  2  0  0  0  0
  5  8  1  0  0  0  0
  5  9  1  0  0  0  0
  5 12  1  0  0  0  0
  6 10  1  0  0  0  0
  6 11  1  0  0  0  0
  6 14  1  0  0  0  0
  7 16  1  0  0  0  0
  7 22  1  0  0  0  0
  7 54  1  0  0  0  0
  8 10  1  0  0  0  0
  8 35  1  0  0  0  0
  8 36  1  0  0  0  0
  9 11  1  0  0  0  0
  9 37  1  0  0  0  0
  9 38  1  0  0  0  0
 10 39  1  0  0  0  0
 10 40  1  0  0  0  0
 11 41  1  0  0  0  0
 11 42  1  0  0  0  0
 12 13  1  0  0  0  0
 12 43  1  0  0  0  0
 12 44  1  0  0  0  0
 13 15  1  0  0  0  0
 13 45  1  0  0  0  0
 13 46  1  0  0  0  0
 14 17  1  0  0  0  0
 14 18  2  0  0  0  0
 15 16  1  0  0  0  0
 15 47  1  0  0  0  0
 15 48  1  0  0  0  0
 16 49  1  0  0  0  0
 16 50  1  0  0  0  0
 17 19  2  0  0  0  0
 18 20  1  0  0  0  0
 18 51  1  0  0  0  0
 19 21  1  0  0  0  0
 19 52  1  0  0  0  0
 20 21  2  0  0  0  0
 20 53  1  0  0  0  0
 21 55  1  0  0  0  0
 22 24  1  0  0  0  0
 23 25  1  0  0  0  0
 23 56  1  0  0  0  0
 23 57  1  0  0  0  0
 24 26  2  0  0  0  0
 24 27  1  0  0  0  0
 25 58  1  0  0  0  0
 25 59  1  0  0  0  0
 26 29  1  0  0  0  0
 26 60  1  0  0  0  0
 27 30  2  0  0  0  0
 27 61  1  0  0  0  0
 28 29  2  0  0  0  0
 28 30  1  0  0  0  0
 28 31  1  0  0  0  0
 29 62  1  0  0  0  0
 30 63  1  0  0  0  0
 31 32  1  0  0  0  0
 31 33  2  0  0  0  0
 32 34  2  0  0  0  0
 32 64  1  0  0  0  0
 33 65  1  0  0  0  0
 34 66  1  0  0  0  0
M  END
> <PUBCHEM_COMPOUND_CID>
51353989

> <PUBCHEM_COMPOUND_CANONICALIZED>
1

> <PUBCHEM_CACTVS_COMPLEXITY>
596

> <PUBCHEM_CACTVS_HBOND_ACCEPTOR>
6

> <PUBCHEM_CACTVS_HBOND_DONOR>
1

> <PUBCHEM_CACTVS_ROTATABLE_BOND>
11

> <PUBCHEM_CACTVS_SUBSKEYS>
AAADcfB7MQBAAAAAAAAAAAAAAAAAASAAAAA8YIAAAAAAAAAB0AAAHwQQAAAADAzl2Aawx4PABAiMAiVSUACDCIAlKhBIiJkPbMgOZjLktZuXOSjk1hH46YeYyMCOwAAAAAAAEACAAAAAAAAgAAAAAAAAAA==

> <PUBCHEM_IUPAC_OPENEYE_NAME>
N-[4-[4-[2-(2-fluoroethoxy)phenyl]piperazin-1-yl]butyl]-4-(3-thienyl)benzamide

> <PUBCHEM_IUPAC_CAS_NAME>
N-[4-[4-[2-(2-fluoroethoxy)phenyl]-1-piperazinyl]butyl]-4-(3-thiophenyl)benzamide

> <PUBCHEM_IUPAC_NAME_MARKUP>
<I>N</I>-[4-[4-[2-(2-fluoroethoxy)phenyl]piperazin-1-yl]butyl]-4-thiophen-3-ylbenzamide

> <PUBCHEM_IUPAC_NAME>
N-[4-[4-[2-(2-fluoroethoxy)phenyl]piperazin-1-yl]butyl]-4-thiophen-3-ylbenzamide

> <PUBCHEM_IUPAC_SYSTEMATIC_NAME>
N-[4-[4-[2-(2-fluoranylethoxy)phenyl]piperazin-1-yl]butyl]-4-thiophen-3-yl-benzamide

> <PUBCHEM_IUPAC_TRADITIONAL_NAME>
N-[4-[4-[2-(2-fluoroethoxy)phenyl]piperazino]butyl]-4-(3-thienyl)benzamide

> <PUBCHEM_IUPAC_INCHI>
InChI=1S/C27H32FN3O2S/c28-12-19-33-26-6-2-1-5-25(26)31-17-15-30(16-18-31)14-4-3-13-29-27(32)23-9-7-22(8-10-23)24-11-20-34-21-24/h1-2,5-11,20-21H,3-4,12-19H2,(H,29,32)

> <PUBCHEM_IUPAC_INCHIKEY>
TVWNOPFEOFGKFJ-UHFFFAOYSA-N

> <PUBCHEM_XLOGP3_AA>
5.2

> <PUBCHEM_EXACT_MASS>
481.21992661

> <PUBCHEM_MOLECULAR_FORMULA>
C27H32FN3O2S

> <PUBCHEM_MOLECULAR_WEIGHT>
481.6

> <PUBCHEM_OPENEYE_CAN_SMILES>
C1CN(CCN1CCCCNC(=O)C2=CC=C(C=C2)C3=CSC=C3)C4=CC=CC=C4OCCF

> <PUBCHEM_OPENEYE_ISO_SMILES>
C1CN(CCN1CCCCNC(=O)C2=CC=C(C=C2)C3=CSC=C3)C4=CC=CC=C4OCCF

> <PUBCHEM_CACTVS_TPSA>
73

> <PUBCHEM_MONOISOTOPIC_WEIGHT>
481.21992661

> <PUBCHEM_TOTAL_CHARGE>
0

> <PUBCHEM_HEAVY_ATOM_COUNT>
34

> <PUBCHEM_ATOM_DEF_STEREO_COUNT>
0

> <PUBCHEM_ATOM_UDEF_STEREO_COUNT>
0

> <PUBCHEM_BOND_DEF_STEREO_COUNT>
0

> <PUBCHEM_BOND_UDEF_STEREO_COUNT>
0

> <PUBCHEM_ISOTOPIC_ATOM_COUNT>
0

> <PUBCHEM_COMPONENT_COUNT>
1

> <PUBCHEM_CACTVS_TAUTO_COUNT>
-1

> <PUBCHEM_COORDINATE_TYPE>
1
5
255

> <PUBCHEM_BONDANNOTATIONS>
1  33  8
1  34  8
14  17  8
14  18  8
17  19  8
18  20  8
19  21  8
20  21  8
24  26  8
24  27  8
26  29  8
27  30  8
28  29  8
28  30  8
31  32  8
31  33  8
32  34  8

$$$$
