49836386
  -OEChem-09292322072D

 38 40  0     1  0  0  0  0  0999 V2000
    8.4843    2.0242    0.0000 N   0  0  0  0  0  0  0  0  0  0  0  0
    6.4103   -2.4296    0.0000 N   0  0  0  0  0  0  0  0  0  0  0  0
    2.0000   -0.1248    0.0000 N   0  0  0  0  0  0  0  0  0  0  0  0
    6.7210    0.1304    0.0000 C   0  0  2  0  0  0  0  0  0  0  0  0
    7.6743    1.4378    0.0000 C   0  0  1  0  0  0  0  0  0  0  0  0
    7.6726    0.4378    0.0000 C   0  0  0  0  0  0  0  0  0  0  0  0
    6.1346    0.9405    0.0000 C   0  0  0  0  0  0  0  0  0  0  0  0
    6.7238    1.7485    0.0000 C   0  0  0  0  0  0  0  0  0  0  0  0
    6.4103   -0.8201    0.0000 C   0  0  0  0  0  0  0  0  0  0  0  0
    5.4641   -1.1248    0.0000 C   0  0  0  0  0  0  0  0  0  0  0  0
    6.9939   -1.6248    0.0000 C   0  0  0  0  0  0  0  0  0  0  0  0
    8.3815    3.0189    0.0000 C   0  0  0  0  0  0  0  0  0  0  0  0
    9.3972    1.6159    0.0000 C   0  0  0  0  0  0  0  0  0  0  0  0
    5.4641   -2.1248    0.0000 C   0  0  0  0  0  0  0  0  0  0  0  0
    4.5981   -0.6248    0.0000 C   0  0  0  0  0  0  0  0  0  0  0  0
    4.5981   -2.6248    0.0000 C   0  0  0  0  0  0  0  0  0  0  0  0
    3.7320   -1.1248    0.0000 C   0  0  0  0  0  0  0  0  0  0  0  0
    3.7320   -2.1248    0.0000 C   0  0  0  0  0  0  0  0  0  0  0  0
    2.8660   -0.6248    0.0000 C   0  0  0  0  0  0  0  0  0  0  0  0
    5.8812   -0.0011    0.0000 H   0  0  0  0  0  0  0  0  0  0  0  0
    8.2262    1.1554    0.0000 H   0  0  0  0  0  0  0  0  0  0  0  0
    7.8004   -0.1689    0.0000 H   0  0  0  0  0  0  0  0  0  0  0  0
    8.2893    0.5015    0.0000 H   0  0  0  0  0  0  0  0  0  0  0  0
    5.6746    1.3561    0.0000 H   0  0  0  0  0  0  0  0  0  0  0  0
    5.6731    0.5264    0.0000 H   0  0  0  0  0  0  0  0  0  0  0  0
    6.9769    2.3144    0.0000 H   0  0  0  0  0  0  0  0  0  0  0  0
    6.1874    2.0594    0.0000 H   0  0  0  0  0  0  0  0  0  0  0  0
    7.6139   -1.6248    0.0000 H   0  0  0  0  0  0  0  0  0  0  0  0
    8.9982    3.0826    0.0000 H   0  0  0  0  0  0  0  0  0  0  0  0
    8.3178    3.6356    0.0000 H   0  0  0  0  0  0  0  0  0  0  0  0
    7.7648    2.9551    0.0000 H   0  0  0  0  0  0  0  0  0  0  0  0
    9.1440    1.0499    0.0000 H   0  0  0  0  0  0  0  0  0  0  0  0
    9.9631    1.3627    0.0000 H   0  0  0  0  0  0  0  0  0  0  0  0
    9.6503    2.1818    0.0000 H   0  0  0  0  0  0  0  0  0  0  0  0
    6.6029   -3.0189    0.0000 H   0  0  0  0  0  0  0  0  0  0  0  0
    4.5981   -0.0048    0.0000 H   0  0  0  0  0  0  0  0  0  0  0  0
    4.5981   -3.2448    0.0000 H   0  0  0  0  0  0  0  0  0  0  0  0
    3.1951   -2.4348    0.0000 H   0  0  0  0  0  0  0  0  0  0  0  0
  5  1  1  1  0  0  0
  1 12  1  0  0  0  0
  1 13  1  0  0  0  0
  2 11  1  0  0  0  0
  2 14  1  0  0  0  0
  2 35  1  0  0  0  0
  3 19  3  0  0  0  0
  4  6  1  0  0  0  0
  4  7  1  0  0  0  0
  4  9  1  0  0  0  0
  4 20  1  6  0  0  0
  5  6  1  0  0  0  0
  5  8  1  0  0  0  0
  5 21  1  0  0  0  0
  6 22  1  0  0  0  0
  6 23  1  0  0  0  0
  7  8  1  0  0  0  0
  7 24  1  0  0  0  0
  7 25  1  0  0  0  0
  8 26  1  0  0  0  0
  8 27  1  0  0  0  0
  9 10  1  0  0  0  0
  9 11  2  0  0  0  0
 10 14  2  0  0  0  0
 10 15  1  0  0  0  0
 11 28  1  0  0  0  0
 12 29  1  0  0  0  0
 12 30  1  0  0  0  0
 12 31  1  0  0  0  0
 13 32  1  0  0  0  0
 13 33  1  0  0  0  0
 13 34  1  0  0  0  0
 14 16  1  0  0  0  0
 15 17  2  0  0  0  0
 15 36  1  0  0  0  0
 16 18  2  0  0  0  0
 16 37  1  0  0  0  0
 17 18  1  0  0  0  0
 17 19  1  0  0  0  0
 18 38  1  0  0  0  0
M  END
> <PUBCHEM_COMPOUND_CID>
49836386

> <PUBCHEM_COMPOUND_CANONICALIZED>
1

> <PUBCHEM_CACTVS_COMPLEXITY>
369

> <PUBCHEM_CACTVS_HBOND_ACCEPTOR>
2

> <PUBCHEM_CACTVS_HBOND_DONOR>
1

> <PUBCHEM_CACTVS_ROTATABLE_BOND>
2

> <PUBCHEM_CACTVS_SUBSKEYS>
AAADceB7AAAAAAAAAAAAAAAAAAAAAeIAAAAwAAAAAAAAAFgB8AAAHAAQAAAADSjBHgQ+wPPJkACwBzRnRACigCAxAiAI2aA4ZJgIoOLAkZGEIAhgkADIyA8QgMAOiAACAAACAAAQAAQAAAQAACAAAAAAAA==

> <PUBCHEM_IUPAC_OPENEYE_NAME>
3-[(1S,3R)-3-(dimethylamino)cyclopentyl]-1H-indole-5-carbonitrile

> <PUBCHEM_IUPAC_CAS_NAME>
3-[(1S,3R)-3-(dimethylamino)cyclopentyl]-1H-indole-5-carbonitrile

> <PUBCHEM_IUPAC_NAME_MARKUP>
3-[(1<I>S</I>,3<I>R</I>)-3-(dimethylamino)cyclopentyl]-1<I>H</I>-indole-5-carbonitrile

> <PUBCHEM_IUPAC_NAME>
3-[(1S,3R)-3-(dimethylamino)cyclopentyl]-1H-indole-5-carbonitrile

> <PUBCHEM_IUPAC_SYSTEMATIC_NAME>
3-[(1S,3R)-3-(dimethylamino)cyclopentyl]-1H-indole-5-carbonitrile

> <PUBCHEM_IUPAC_TRADITIONAL_NAME>
3-[(1S,3R)-3-(dimethylamino)cyclopentyl]-1H-indole-5-carbonitrile

> <PUBCHEM_IUPAC_INCHI>
InChI=1S/C16H19N3/c1-19(2)13-5-4-12(8-13)15-10-18-16-6-3-11(9-17)7-14(15)16/h3,6-7,10,12-13,18H,4-5,8H2,1-2H3/t12-,13+/m0/s1

> <PUBCHEM_IUPAC_INCHIKEY>
CMJSIPQFDNXSOL-QWHCGFSZSA-N

> <PUBCHEM_XLOGP3_AA>
2.8

> <PUBCHEM_EXACT_MASS>
253.157897619

> <PUBCHEM_MOLECULAR_FORMULA>
C16H19N3

> <PUBCHEM_MOLECULAR_WEIGHT>
253.34

> <PUBCHEM_OPENEYE_CAN_SMILES>
CN(C)C1CCC(C1)C2=CNC3=C2C=C(C=C3)C#N

> <PUBCHEM_OPENEYE_ISO_SMILES>
CN(C)[C@@H]1CC[C@@H](C1)C2=CNC3=C2C=C(C=C3)C#N

> <PUBCHEM_CACTVS_TPSA>
42.8

> <PUBCHEM_MONOISOTOPIC_WEIGHT>
253.157897619

> <PUBCHEM_TOTAL_CHARGE>
0

> <PUBCHEM_HEAVY_ATOM_COUNT>
19

> <PUBCHEM_ATOM_DEF_STEREO_COUNT>
2

> <PUBCHEM_ATOM_UDEF_STEREO_COUNT>
0

> <PUBCHEM_BOND_DEF_STEREO_COUNT>
0

> <PUBCHEM_BOND_UDEF_STEREO_COUNT>
0

> <PUBCHEM_ISOTOPIC_ATOM_COUNT>
0

> <PUBCHEM_COMPONENT_COUNT>
1

> <PUBCHEM_CACTVS_TAUTO_COUNT>
-1

> <PUBCHEM_COORDINATE_TYPE>
1
5
255

> <PUBCHEM_BONDANNOTATIONS>
5  1  5
10  14  8
10  15  8
14  16  8
15  17  8
16  18  8
17  18  8
2  11  8
2  14  8
4  20  6
9  10  8
9  11  8

$$$$
