10130293
  -OEChem-09292322482D

 30 32  0     0  0  0  0  0  0999 V2000
    3.2369   -0.4618    0.0000 N   0  0  0  0  0  0  0  0  0  0  0  0
    3.2369    3.0023    0.0000 N   0  0  0  0  0  0  0  0  0  0  0  0
    3.9735   -1.4444    0.0000 C   0  0  0  0  0  0  0  0  0  0  0  0
    3.7147   -2.4103    0.0000 C   0  0  0  0  0  0  0  0  0  0  0  0
    5.1137   -2.9191    0.0000 C   0  0  0  0  0  0  0  0  0  0  0  0
    5.3725   -1.9532    0.0000 C   0  0  0  0  0  0  0  0  0  0  0  0
    2.3420   -3.0023    0.0000 C   0  0  0  0  0  0  0  0  0  0  0  0
    2.0000   -2.0626    0.0000 C   0  0  0  0  0  0  0  0  0  0  0  0
    2.7369    0.4043    0.0000 C   0  0  0  0  0  0  0  0  0  0  0  0
    3.2369    1.2703    0.0000 C   0  0  0  0  0  0  0  0  0  0  0  0
    4.2369    1.2703    0.0000 C   0  0  0  0  0  0  0  0  0  0  0  0
    2.7369    2.1363    0.0000 C   0  0  0  0  0  0  0  0  0  0  0  0
    4.7369    2.1363    0.0000 C   0  0  0  0  0  0  0  0  0  0  0  0
    4.2369    3.0023    0.0000 C   0  0  0  0  0  0  0  0  0  0  0  0
    3.9595   -2.0642    0.0000 H   0  0  0  0  0  0  0  0  0  0  0  0
    3.7328   -3.0300    0.0000 H   0  0  0  0  0  0  0  0  0  0  0  0
    5.7076   -3.0969    0.0000 H   0  0  0  0  0  0  0  0  0  0  0  0
    4.9187   -3.5077    0.0000 H   0  0  0  0  0  0  0  0  0  0  0  0
    2.5765   -3.5763    0.0000 H   0  0  0  0  0  0  0  0  0  0  0  0
    1.7636   -3.2256    0.0000 H   0  0  0  0  0  0  0  0  0  0  0  0
    5.9664   -2.1310    0.0000 H   0  0  0  0  0  0  0  0  0  0  0  0
    5.5674   -1.3646    0.0000 H   0  0  0  0  0  0  0  0  0  0  0  0
    1.8057   -1.4739    0.0000 H   0  0  0  0  0  0  0  0  0  0  0  0
    1.4142   -2.2658    0.0000 H   0  0  0  0  0  0  0  0  0  0  0  0
    2.2620    0.8028    0.0000 H   0  0  0  0  0  0  0  0  0  0  0  0
    2.2620    0.0057    0.0000 H   0  0  0  0  0  0  0  0  0  0  0  0
    4.5469    0.7333    0.0000 H   0  0  0  0  0  0  0  0  0  0  0  0
    2.1169    2.1363    0.0000 H   0  0  0  0  0  0  0  0  0  0  0  0
    5.3569    2.1363    0.0000 H   0  0  0  0  0  0  0  0  0  0  0  0
    4.5469    3.5393    0.0000 H   0  0  0  0  0  0  0  0  0  0  0  0
  1  3  1  0  0  0  0
  1  4  1  0  0  0  0
  1  9  1  0  0  0  0
  2 12  1  0  0  0  0
  2 14  2  0  0  0  0
  3  6  1  0  0  0  0
  3  8  1  0  0  0  0
  3 15  1  0  0  0  0
  4  5  1  0  0  0  0
  4  7  1  0  0  0  0
  4 16  1  0  0  0  0
  5  6  1  0  0  0  0
  5 17  1  0  0  0  0
  5 18  1  0  0  0  0
  6 21  1  0  0  0  0
  6 22  1  0  0  0  0
  7  8  1  0  0  0  0
  7 19  1  0  0  0  0
  7 20  1  0  0  0  0
  8 23  1  0  0  0  0
  8 24  1  0  0  0  0
  9 10  1  0  0  0  0
  9 25  1  0  0  0  0
  9 26  1  0  0  0  0
 10 11  1  0  0  0  0
 10 12  2  0  0  0  0
 11 13  2  0  0  0  0
 11 27  1  0  0  0  0
 12 28  1  0  0  0  0
 13 14  1  0  0  0  0
 13 29  1  0  0  0  0
 14 30  1  0  0  0  0
M  END
> <PUBCHEM_COMPOUND_CID>
10130293

> <PUBCHEM_COMPOUND_CANONICALIZED>
1

> <PUBCHEM_CACTVS_COMPLEXITY>
185

> <PUBCHEM_CACTVS_HBOND_ACCEPTOR>
2

> <PUBCHEM_CACTVS_HBOND_DONOR>
0

> <PUBCHEM_CACTVS_ROTATABLE_BOND>
2

> <PUBCHEM_CACTVS_SUBSKEYS>
AAADceBzAAAAAAAAAAAAAAAAAAAAAWLAAAA8QAAAAAAAAAABgAAAHAAAAAAADCjBGgQ8gJMIEACgAjBnRACCgCAxAiAI2CA4ZJgIIOLA0ZGEIAhggADIyAcQAAAMAAAAAAAAAAAAAAAAAAAAAAAAAAAAAA==

> <PUBCHEM_IUPAC_OPENEYE_NAME>
7-(3-pyridylmethyl)-7-azabicyclo[2.2.1]heptane

> <PUBCHEM_IUPAC_CAS_NAME>
7-(3-pyridinylmethyl)-7-azabicyclo[2.2.1]heptane

> <PUBCHEM_IUPAC_NAME_MARKUP>
7-(pyridin-3-ylmethyl)-7-azabicyclo[2.2.1]heptane

> <PUBCHEM_IUPAC_NAME>
7-(pyridin-3-ylmethyl)-7-azabicyclo[2.2.1]heptane

> <PUBCHEM_IUPAC_SYSTEMATIC_NAME>
7-(pyridin-3-ylmethyl)-7-azabicyclo[2.2.1]heptane

> <PUBCHEM_IUPAC_TRADITIONAL_NAME>
7-(3-pyridylmethyl)-7-azabicyclo[2.2.1]heptane

> <PUBCHEM_IUPAC_INCHI>
InChI=1S/C12H16N2/c1-2-10(8-13-7-1)9-14-11-3-4-12(14)6-5-11/h1-2,7-8,11-12H,3-6,9H2

> <PUBCHEM_IUPAC_INCHIKEY>
SCDKHPSUXHBJDJ-UHFFFAOYSA-N

> <PUBCHEM_XLOGP3_AA>
1.8

> <PUBCHEM_EXACT_MASS>
188.131348519

> <PUBCHEM_MOLECULAR_FORMULA>
C12H16N2

> <PUBCHEM_MOLECULAR_WEIGHT>
188.27

> <PUBCHEM_OPENEYE_CAN_SMILES>
C1CC2CCC1N2CC3=CN=CC=C3

> <PUBCHEM_OPENEYE_ISO_SMILES>
C1CC2CCC1N2CC3=CN=CC=C3

> <PUBCHEM_CACTVS_TPSA>
16.1

> <PUBCHEM_MONOISOTOPIC_WEIGHT>
188.131348519

> <PUBCHEM_TOTAL_CHARGE>
0

> <PUBCHEM_HEAVY_ATOM_COUNT>
14

> <PUBCHEM_ATOM_DEF_STEREO_COUNT>
0

> <PUBCHEM_ATOM_UDEF_STEREO_COUNT>
0

> <PUBCHEM_BOND_DEF_STEREO_COUNT>
0

> <PUBCHEM_BOND_UDEF_STEREO_COUNT>
0

> <PUBCHEM_ISOTOPIC_ATOM_COUNT>
0

> <PUBCHEM_COMPONENT_COUNT>
1

> <PUBCHEM_CACTVS_TAUTO_COUNT>
-1

> <PUBCHEM_COORDINATE_TYPE>
1
5
255

> <PUBCHEM_BONDANNOTATIONS>
10  11  8
10  12  8
11  13  8
13  14  8
2  12  8
2  14  8

$$$$
