14198601
  -OEChem-09292322142D

 41 43  0     1  0  0  0  0  0999 V2000
    2.5381    2.5068    0.0000 Cl  0  0  0  0  0  0  0  0  0  0  0  0
    2.5381    0.4585    0.0000 O   0  0  0  0  0  0  0  0  0  0  0  0
    6.9343    0.9827    0.0000 N   0  0  3  0  0  0  0  0  0  0  0  0
    6.0682    0.4827    0.0000 C   0  0  2  0  0  0  0  0  0  0  0  0
    6.9343    1.9827    0.0000 C   0  0  0  0  0  0  0  0  0  0  0  0
    5.2022    0.9827    0.0000 C   0  0  0  0  0  0  0  0  0  0  0  0
    6.0682    2.4827    0.0000 C   0  0  0  0  0  0  0  0  0  0  0  0
    5.2022    1.9827    0.0000 C   0  0  0  0  0  0  0  0  0  0  0  0
    7.8003    0.4827    0.0000 C   0  0  0  0  0  0  0  0  0  0  0  0
    6.0682   -0.5173    0.0000 C   0  0  0  0  0  0  0  0  0  0  0  0
    8.6663    0.9827    0.0000 C   0  0  0  0  0  0  0  0  0  0  0  0
    4.3083    0.4480    0.0000 C   0  0  0  0  0  0  0  0  0  0  0  0
    4.3083    2.5173    0.0000 C   0  0  0  0  0  0  0  0  0  0  0  0
    6.9343   -1.0173    0.0000 C   0  0  0  0  0  0  0  0  0  0  0  0
    5.2022   -1.0173    0.0000 C   0  0  0  0  0  0  0  0  0  0  0  0
    3.4022    0.9619    0.0000 C   0  0  0  0  0  0  0  0  0  0  0  0
    3.4022    2.0035    0.0000 C   0  0  0  0  0  0  0  0  0  0  0  0
    9.5323    0.4827    0.0000 C   0  0  0  0  0  0  0  0  0  0  0  0
    6.9343   -2.0173    0.0000 C   0  0  0  0  0  0  0  0  0  0  0  0
    5.2022   -2.0173    0.0000 C   0  0  0  0  0  0  0  0  0  0  0  0
    6.0682   -2.5173    0.0000 C   0  0  0  0  0  0  0  0  0  0  0  0
    6.6052    0.1727    0.0000 H   0  0  0  0  0  0  0  0  0  0  0  0
    7.5449    1.8750    0.0000 H   0  0  0  0  0  0  0  0  0  0  0  0
    7.1463    2.5653    0.0000 H   0  0  0  0  0  0  0  0  0  0  0  0
    6.4668    2.9576    0.0000 H   0  0  0  0  0  0  0  0  0  0  0  0
    5.6697    2.9576    0.0000 H   0  0  0  0  0  0  0  0  0  0  0  0
    7.4018    0.0077    0.0000 H   0  0  0  0  0  0  0  0  0  0  0  0
    8.1988    0.0077    0.0000 H   0  0  0  0  0  0  0  0  0  0  0  0
    9.0649    1.4576    0.0000 H   0  0  0  0  0  0  0  0  0  0  0  0
    8.2678    1.4576    0.0000 H   0  0  0  0  0  0  0  0  0  0  0  0
    4.3154   -0.1720    0.0000 H   0  0  0  0  0  0  0  0  0  0  0  0
    4.3154    3.1373    0.0000 H   0  0  0  0  0  0  0  0  0  0  0  0
    7.4712   -0.7073    0.0000 H   0  0  0  0  0  0  0  0  0  0  0  0
    4.6653   -0.7073    0.0000 H   0  0  0  0  0  0  0  0  0  0  0  0
    9.2224   -0.0543    0.0000 H   0  0  0  0  0  0  0  0  0  0  0  0
   10.0693    0.1727    0.0000 H   0  0  0  0  0  0  0  0  0  0  0  0
    9.8424    1.0196    0.0000 H   0  0  0  0  0  0  0  0  0  0  0  0
    7.4712   -2.3273    0.0000 H   0  0  0  0  0  0  0  0  0  0  0  0
    4.6653   -2.3273    0.0000 H   0  0  0  0  0  0  0  0  0  0  0  0
    6.0682   -3.1373    0.0000 H   0  0  0  0  0  0  0  0  0  0  0  0
    2.0000    0.7664    0.0000 H   0  0  0  0  0  0  0  0  0  0  0  0
  1 17  1  0  0  0  0
  2 16  1  0  0  0  0
  2 41  1  0  0  0  0
  3  4  1  0  0  0  0
  3  5  1  0  0  0  0
  3  9  1  0  0  0  0
  4  6  1  0  0  0  0
  4 10  1  1  0  0  0
  4 22  1  0  0  0  0
  5  7  1  0  0  0  0
  5 23  1  0  0  0  0
  5 24  1  0  0  0  0
  6  8  1  0  0  0  0
  6 12  2  0  0  0  0
  7  8  1  0  0  0  0
  7 25  1  0  0  0  0
  7 26  1  0  0  0  0
  8 13  2  0  0  0  0
  9 11  1  0  0  0  0
  9 27  1  0  0  0  0
  9 28  1  0  0  0  0
 10 14  2  0  0  0  0
 10 15  1  0  0  0  0
 11 18  1  0  0  0  0
 11 29  1  0  0  0  0
 11 30  1  0  0  0  0
 12 16  1  0  0  0  0
 12 31  1  0  0  0  0
 13 17  1  0  0  0  0
 13 32  1  0  0  0  0
 14 19  1  0  0  0  0
 14 33  1  0  0  0  0
 15 20  2  0  0  0  0
 15 34  1  0  0  0  0
 16 17  2  0  0  0  0
 18 35  1  0  0  0  0
 18 36  1  0  0  0  0
 18 37  1  0  0  0  0
 19 21  2  0  0  0  0
 19 38  1  0  0  0  0
 20 21  1  0  0  0  0
 20 39  1  0  0  0  0
 21 40  1  0  0  0  0
M  END
> <PUBCHEM_COMPOUND_CID>
14198601

> <PUBCHEM_COMPOUND_CANONICALIZED>
1

> <PUBCHEM_CACTVS_COMPLEXITY>
331

> <PUBCHEM_CACTVS_HBOND_ACCEPTOR>
2

> <PUBCHEM_CACTVS_HBOND_DONOR>
1

> <PUBCHEM_CACTVS_ROTATABLE_BOND>
3

> <PUBCHEM_CACTVS_SUBSKEYS>
AAADceB6IAAEAAAAAAAAAAAAAAAAAAAAAAA8YIAAAAAAAACxQAAAHgIACAAADC7BmCQyBoMAAgCAAiBCAACCAAAgJUAIiAAOD4gIJiKDkxOEcAhkwBGImAewwPAOpAABIAAQCABIAAJAACAQAAAAAAAAAA==

> <PUBCHEM_IUPAC_OPENEYE_NAME>
(1S)-6-chloro-1-phenyl-2-propyl-3,4-dihydro-1H-isoquinolin-7-ol

> <PUBCHEM_IUPAC_CAS_NAME>
(1S)-6-chloro-1-phenyl-2-propyl-3,4-dihydro-1H-isoquinolin-7-ol

> <PUBCHEM_IUPAC_NAME_MARKUP>
(1<I>S</I>)-6-chloro-1-phenyl-2-propyl-3,4-dihydro-1<I>H</I>-isoquinolin-7-ol

> <PUBCHEM_IUPAC_NAME>
(1S)-6-chloro-1-phenyl-2-propyl-3,4-dihydro-1H-isoquinolin-7-ol

> <PUBCHEM_IUPAC_SYSTEMATIC_NAME>
(1S)-6-chloranyl-1-phenyl-2-propyl-3,4-dihydro-1H-isoquinolin-7-ol

> <PUBCHEM_IUPAC_TRADITIONAL_NAME>
(1S)-6-chloro-1-phenyl-2-propyl-3,4-dihydro-1H-isoquinolin-7-ol

> <PUBCHEM_IUPAC_INCHI>
InChI=1S/C18H20ClNO/c1-2-9-20-10-8-14-11-16(19)17(21)12-15(14)18(20)13-6-4-3-5-7-13/h3-7,11-12,18,21H,2,8-10H2,1H3/t18-/m0/s1

> <PUBCHEM_IUPAC_INCHIKEY>
UCVFZVSEYSSSHP-SFHVURJKSA-N

> <PUBCHEM_XLOGP3_AA>
4.7

> <PUBCHEM_EXACT_MASS>
301.1233420

> <PUBCHEM_MOLECULAR_FORMULA>
C18H20ClNO

> <PUBCHEM_MOLECULAR_WEIGHT>
301.8

> <PUBCHEM_OPENEYE_CAN_SMILES>
CCCN1CCC2=CC(=C(C=C2C1C3=CC=CC=C3)O)Cl

> <PUBCHEM_OPENEYE_ISO_SMILES>
CCCN1CCC2=CC(=C(C=C2[C@@H]1C3=CC=CC=C3)O)Cl

> <PUBCHEM_CACTVS_TPSA>
23.5

> <PUBCHEM_MONOISOTOPIC_WEIGHT>
301.1233420

> <PUBCHEM_TOTAL_CHARGE>
0

> <PUBCHEM_HEAVY_ATOM_COUNT>
21

> <PUBCHEM_ATOM_DEF_STEREO_COUNT>
1

> <PUBCHEM_ATOM_UDEF_STEREO_COUNT>
0

> <PUBCHEM_BOND_DEF_STEREO_COUNT>
0

> <PUBCHEM_BOND_UDEF_STEREO_COUNT>
0

> <PUBCHEM_ISOTOPIC_ATOM_COUNT>
0

> <PUBCHEM_COMPONENT_COUNT>
1

> <PUBCHEM_CACTVS_TAUTO_COUNT>
-1

> <PUBCHEM_COORDINATE_TYPE>
1
5
255

> <PUBCHEM_BONDANNOTATIONS>
10  14  8
10  15  8
12  16  8
13  17  8
14  19  8
15  20  8
16  17  8
19  21  8
20  21  8
4  10  5
6  12  8
6  8  8
8  13  8

$$$$
