162647425
  -OEChem-09292322422D

 82 86  0     1  0  0  0  0  0999 V2000
    9.8560   -7.1068    0.0000 S   0  0  0  0  0  0  0  0  0  0  0  0
    5.1350    3.1484    0.0000 O   0  0  0  0  0  0  0  0  0  0  0  0
   10.8065   -6.7962    0.0000 O   0  0  0  0  0  0  0  0  0  0  0  0
    8.9055   -7.4175    0.0000 O   0  0  0  0  0  0  0  0  0  0  0  0
    7.7331   -1.3516    0.0000 N   0  0  0  0  0  0  0  0  0  0  0  0
    7.7331   -3.3516    0.0000 N   0  0  0  0  0  0  0  0  0  0  0  0
    9.5453   -6.1563    0.0000 N   0  0  0  0  0  0  0  0  0  0  0  0
    4.2690    7.6484    0.0000 N   0  0  3  0  0  0  0  0  0  0  0  0
    6.8671   -1.8516    0.0000 C   0  0  0  0  0  0  0  0  0  0  0  0
    8.5991   -1.8516    0.0000 C   0  0  0  0  0  0  0  0  0  0  0  0
    6.8671   -2.8516    0.0000 C   0  0  0  0  0  0  0  0  0  0  0  0
    8.5991   -2.8516    0.0000 C   0  0  0  0  0  0  0  0  0  0  0  0
    7.7331   -0.3516    0.0000 C   0  0  0  0  0  0  0  0  0  0  0  0
    7.7331   -4.3516    0.0000 C   0  0  0  0  0  0  0  0  0  0  0  0
    6.8671    0.1484    0.0000 C   0  0  0  0  0  0  0  0  0  0  0  0
    8.5991   -4.8516    0.0000 C   0  0  0  0  0  0  0  0  0  0  0  0
    6.8671    1.1484    0.0000 C   0  0  0  0  0  0  0  0  0  0  0  0
    8.5991   -5.8516    0.0000 C   0  0  0  0  0  0  0  0  0  0  0  0
    6.8671   -4.8516    0.0000 C   0  0  0  0  0  0  0  0  0  0  0  0
    6.0010    1.6484    0.0000 C   0  0  0  0  0  0  0  0  0  0  0  0
    9.5453   -4.5469    0.0000 C   0  0  0  0  0  0  0  0  0  0  0  0
    7.7331   -6.3516    0.0000 C   0  0  0  0  0  0  0  0  0  0  0  0
   10.1289   -5.3516    0.0000 C   0  0  0  0  0  0  0  0  0  0  0  0
    6.8671   -5.8516    0.0000 C   0  0  0  0  0  0  0  0  0  0  0  0
    6.0010    2.6484    0.0000 C   0  0  0  0  0  0  0  0  0  0  0  0
   10.1667   -8.0574    0.0000 C   0  0  0  0  0  0  0  0  0  0  0  0
   11.1452   -8.2636    0.0000 C   0  0  0  0  0  0  0  0  0  0  0  0
    9.4988   -8.8017    0.0000 C   0  0  0  0  0  0  0  0  0  0  0  0
    5.1350    4.1484    0.0000 C   0  0  0  0  0  0  0  0  0  0  0  0
   11.4558   -9.2141    0.0000 C   0  0  0  0  0  0  0  0  0  0  0  0
    9.8095   -9.7522    0.0000 C   0  0  0  0  0  0  0  0  0  0  0  0
   10.7880   -9.9584    0.0000 C   0  0  0  0  0  0  0  0  0  0  0  0
    6.0010    4.6484    0.0000 C   0  0  0  0  0  0  0  0  0  0  0  0
    4.2690    4.6484    0.0000 C   0  0  0  0  0  0  0  0  0  0  0  0
    5.1350    6.1484    0.0000 C   0  0  0  0  0  0  0  0  0  0  0  0
    6.0010    5.6484    0.0000 C   0  0  0  0  0  0  0  0  0  0  0  0
    4.2690    5.6484    0.0000 C   0  0  0  0  0  0  0  0  0  0  0  0
    5.1350    7.1484    0.0000 C   0  0  0  0  0  0  0  0  0  0  0  0
    4.2690    8.6484    0.0000 C   0  0  0  0  0  0  0  0  0  0  0  0
    3.4030    7.1484    0.0000 C   0  0  0  0  0  0  0  0  0  0  0  0
    3.4030    9.1484    0.0000 C   0  0  0  0  0  0  0  0  0  0  0  0
    2.5369    9.6484    0.0000 C   0  0  0  0  0  0  0  0  0  0  0  0
    6.6550   -1.2690    0.0000 H   0  0  0  0  0  0  0  0  0  0  0  0
    6.2565   -1.9592    0.0000 H   0  0  0  0  0  0  0  0  0  0  0  0
    9.2097   -1.9592    0.0000 H   0  0  0  0  0  0  0  0  0  0  0  0
    8.8112   -1.2690    0.0000 H   0  0  0  0  0  0  0  0  0  0  0  0
    6.2565   -2.7439    0.0000 H   0  0  0  0  0  0  0  0  0  0  0  0
    6.6550   -3.4342    0.0000 H   0  0  0  0  0  0  0  0  0  0  0  0
    8.8112   -3.4342    0.0000 H   0  0  0  0  0  0  0  0  0  0  0  0
    9.2097   -2.7439    0.0000 H   0  0  0  0  0  0  0  0  0  0  0  0
    8.3437   -0.4593    0.0000 H   0  0  0  0  0  0  0  0  0  0  0  0
    7.9451    0.2310    0.0000 H   0  0  0  0  0  0  0  0  0  0  0  0
    6.2565    0.2561    0.0000 H   0  0  0  0  0  0  0  0  0  0  0  0
    6.6550   -0.4342    0.0000 H   0  0  0  0  0  0  0  0  0  0  0  0
    7.4776    1.0407    0.0000 H   0  0  0  0  0  0  0  0  0  0  0  0
    7.0791    1.7310    0.0000 H   0  0  0  0  0  0  0  0  0  0  0  0
    6.3301   -4.5416    0.0000 H   0  0  0  0  0  0  0  0  0  0  0  0
    5.3905    1.7561    0.0000 H   0  0  0  0  0  0  0  0  0  0  0  0
    5.7890    1.0658    0.0000 H   0  0  0  0  0  0  0  0  0  0  0  0
    9.7379   -3.9575    0.0000 H   0  0  0  0  0  0  0  0  0  0  0  0
    7.7331   -6.9716    0.0000 H   0  0  0  0  0  0  0  0  0  0  0  0
   10.7489   -5.3516    0.0000 H   0  0  0  0  0  0  0  0  0  0  0  0
    6.3301   -6.1616    0.0000 H   0  0  0  0  0  0  0  0  0  0  0  0
    6.6116    2.5407    0.0000 H   0  0  0  0  0  0  0  0  0  0  0  0
    6.2131    3.2310    0.0000 H   0  0  0  0  0  0  0  0  0  0  0  0
   11.5592   -7.8021    0.0000 H   0  0  0  0  0  0  0  0  0  0  0  0
    8.8921   -8.6738    0.0000 H   0  0  0  0  0  0  0  0  0  0  0  0
   12.0625   -9.3420    0.0000 H   0  0  0  0  0  0  0  0  0  0  0  0
    9.3954  -10.2137    0.0000 H   0  0  0  0  0  0  0  0  0  0  0  0
   10.9806  -10.5477    0.0000 H   0  0  0  0  0  0  0  0  0  0  0  0
    6.5380    4.3384    0.0000 H   0  0  0  0  0  0  0  0  0  0  0  0
    3.7320    4.3384    0.0000 H   0  0  0  0  0  0  0  0  0  0  0  0
    6.5380    5.9584    0.0000 H   0  0  0  0  0  0  0  0  0  0  0  0
    3.7320    5.9584    0.0000 H   0  0  0  0  0  0  0  0  0  0  0  0
    5.7456    7.0408    0.0000 H   0  0  0  0  0  0  0  0  0  0  0  0
    5.3471    7.7310    0.0000 H   0  0  0  0  0  0  0  0  0  0  0  0
    4.8796    8.5407    0.0000 H   0  0  0  0  0  0  0  0  0  0  0  0
    4.4810    9.2310    0.0000 H   0  0  0  0  0  0  0  0  0  0  0  0
    3.0930    7.6853    0.0000 H   0  0  0  0  0  0  0  0  0  0  0  0
    2.8660    6.8384    0.0000 H   0  0  0  0  0  0  0  0  0  0  0  0
    3.7130    6.6115    0.0000 H   0  0  0  0  0  0  0  0  0  0  0  0
    2.0000    9.9584    0.0000 H   0  0  0  0  0  0  0  0  0  0  0  0
  1  3  2  0  0  0  0
  1  4  2  0  0  0  0
  1  7  1  0  0  0  0
  1 26  1  0  0  0  0
  2 25  1  0  0  0  0
  2 29  1  0  0  0  0
  5  9  1  0  0  0  0
  5 10  1  0  0  0  0
  5 13  1  0  0  0  0
  6 11  1  0  0  0  0
  6 12  1  0  0  0  0
  6 14  1  0  0  0  0
  7 18  1  0  0  0  0
  7 23  1  0  0  0  0
  8 38  1  0  0  0  0
  8 39  1  0  0  0  0
  8 40  1  0  0  0  0
  9 11  1  0  0  0  0
  9 43  1  0  0  0  0
  9 44  1  0  0  0  0
 10 12  1  0  0  0  0
 10 45  1  0  0  0  0
 10 46  1  0  0  0  0
 11 47  1  0  0  0  0
 11 48  1  0  0  0  0
 12 49  1  0  0  0  0
 12 50  1  0  0  0  0
 13 15  1  0  0  0  0
 13 51  1  0  0  0  0
 13 52  1  0  0  0  0
 14 16  1  0  0  0  0
 14 19  2  0  0  0  0
 15 17  1  0  0  0  0
 15 53  1  0  0  0  0
 15 54  1  0  0  0  0
 16 18  2  0  0  0  0
 16 21  1  0  0  0  0
 17 20  1  0  0  0  0
 17 55  1  0  0  0  0
 17 56  1  0  0  0  0
 18 22  1  0  0  0  0
 19 24  1  0  0  0  0
 19 57  1  0  0  0  0
 20 25  1  0  0  0  0
 20 58  1  0  0  0  0
 20 59  1  0  0  0  0
 21 23  2  0  0  0  0
 21 60  1  0  0  0  0
 22 24  2  0  0  0  0
 22 61  1  0  0  0  0
 23 62  1  0  0  0  0
 24 63  1  0  0  0  0
 25 64  1  0  0  0  0
 25 65  1  0  0  0  0
 26 27  2  0  0  0  0
 26 28  1  0  0  0  0
 27 30  1  0  0  0  0
 27 66  1  0  0  0  0
 28 31  2  0  0  0  0
 28 67  1  0  0  0  0
 29 33  2  0  0  0  0
 29 34  1  0  0  0  0
 30 32  2  0  0  0  0
 30 68  1  0  0  0  0
 31 32  1  0  0  0  0
 31 69  1  0  0  0  0
 32 70  1  0  0  0  0
 33 36  1  0  0  0  0
 33 71  1  0  0  0  0
 34 37  2  0  0  0  0
 34 72  1  0  0  0  0
 35 36  2  0  0  0  0
 35 37  1  0  0  0  0
 35 38  1  0  0  0  0
 36 73  1  0  0  0  0
 37 74  1  0  0  0  0
 38 75  1  0  0  0  0
 38 76  1  0  0  0  0
 39 41  1  0  0  0  0
 39 77  1  0  0  0  0
 39 78  1  0  0  0  0
 40 79  1  0  0  0  0
 40 80  1  0  0  0  0
 40 81  1  0  0  0  0
 41 42  3  0  0  0  0
 42 82  1  0  0  0  0
M  END
> <PUBCHEM_COMPOUND_CID>
162647425

> <PUBCHEM_COMPOUND_CANONICALIZED>
1

> <PUBCHEM_CACTVS_COMPLEXITY>
955

> <PUBCHEM_CACTVS_HBOND_ACCEPTOR>
6

> <PUBCHEM_CACTVS_HBOND_DONOR>
0

> <PUBCHEM_CACTVS_ROTATABLE_BOND>
13

> <PUBCHEM_CACTVS_SUBSKEYS>
AAADcfB/sABAAAAAAAAAAAAAAAAAAWAAAAA8YMEAAAAAAFgB9AAAHgQAQAAADAzh3gY+x/MIFALgGzRnRHDCiDAxIiAI2Dg+bJgMZuLE8duWPCjkwBHI6AeQ0IIOIAAAAAQCAABAAAAACAQAAAAAAAAAAA==

> <PUBCHEM_IUPAC_OPENEYE_NAME>
N-[[4-[5-[4-[1-(benzenesulfonyl)indol-4-yl]piperazin-1-yl]pentoxy]phenyl]methyl]-N-methyl-prop-2-yn-1-amine

> <PUBCHEM_IUPAC_CAS_NAME>
N-[[4-[5-[4-[1-(benzenesulfonyl)-4-indolyl]-1-piperazinyl]pentoxy]phenyl]methyl]-N-methyl-2-propyn-1-amine

> <PUBCHEM_IUPAC_NAME_MARKUP>
<I>N</I>-[[4-[5-[4-[1-(benzenesulfonyl)indol-4-yl]piperazin-1-yl]pentoxy]phenyl]methyl]-<I>N</I>-methylprop-2-yn-1-amine

> <PUBCHEM_IUPAC_NAME>
N-[[4-[5-[4-[1-(benzenesulfonyl)indol-4-yl]piperazin-1-yl]pentoxy]phenyl]methyl]-N-methylprop-2-yn-1-amine

> <PUBCHEM_IUPAC_SYSTEMATIC_NAME>
N-methyl-N-[[4-[5-[4-[1-(phenylsulfonyl)indol-4-yl]piperazin-1-yl]pentoxy]phenyl]methyl]prop-2-yn-1-amine

> <PUBCHEM_IUPAC_TRADITIONAL_NAME>
[4-[5-[4-(1-besylindol-4-yl)piperazino]pentoxy]benzyl]-methyl-propargyl-amine

> <PUBCHEM_IUPAC_INCHI>
InChI=1S/C34H40N4O3S/c1-3-20-35(2)28-29-15-17-30(18-16-29)41-27-9-5-8-21-36-23-25-37(26-24-36)33-13-10-14-34-32(33)19-22-38(34)42(39,40)31-11-6-4-7-12-31/h1,4,6-7,10-19,22H,5,8-9,20-21,23-28H2,2H3

> <PUBCHEM_IUPAC_INCHIKEY>
CUFJQHNVDRIQJL-UHFFFAOYSA-N

> <PUBCHEM_XLOGP3_AA>
5.9

> <PUBCHEM_EXACT_MASS>
584.28211232

> <PUBCHEM_MOLECULAR_FORMULA>
C34H40N4O3S

> <PUBCHEM_MOLECULAR_WEIGHT>
584.8

> <PUBCHEM_OPENEYE_CAN_SMILES>
CN(CC#C)CC1=CC=C(C=C1)OCCCCCN2CCN(CC2)C3=CC=CC4=C3C=CN4S(=O)(=O)C5=CC=CC=C5

> <PUBCHEM_OPENEYE_ISO_SMILES>
CN(CC#C)CC1=CC=C(C=C1)OCCCCCN2CCN(CC2)C3=CC=CC4=C3C=CN4S(=O)(=O)C5=CC=CC=C5

> <PUBCHEM_CACTVS_TPSA>
66.4

> <PUBCHEM_MONOISOTOPIC_WEIGHT>
584.28211232

> <PUBCHEM_TOTAL_CHARGE>
0

> <PUBCHEM_HEAVY_ATOM_COUNT>
42

> <PUBCHEM_ATOM_DEF_STEREO_COUNT>
0

> <PUBCHEM_ATOM_UDEF_STEREO_COUNT>
0

> <PUBCHEM_BOND_DEF_STEREO_COUNT>
0

> <PUBCHEM_BOND_UDEF_STEREO_COUNT>
0

> <PUBCHEM_ISOTOPIC_ATOM_COUNT>
0

> <PUBCHEM_COMPONENT_COUNT>
1

> <PUBCHEM_CACTVS_TAUTO_COUNT>
-1

> <PUBCHEM_COORDINATE_TYPE>
1
5
255

> <PUBCHEM_BONDANNOTATIONS>
14  16  8
14  19  8
16  18  8
16  21  8
18  22  8
19  24  8
21  23  8
22  24  8
26  27  8
26  28  8
27  30  8
28  31  8
29  33  8
29  34  8
30  32  8
31  32  8
33  36  8
34  37  8
35  36  8
35  37  8
7  18  8
7  23  8

$$$$
