127041349
  -OEChem-09292322362D

 63 67  0     1  0  0  0  0  0999 V2000
    3.9444   -0.9244    0.0000 S   0  0  0  0  0  0  0  0  0  0  0  0
    5.4349    8.8111    0.0000 F   0  0  0  0  0  0  0  0  0  0  0  0
    4.1147    8.3042    0.0000 F   0  0  0  0  0  0  0  0  0  0  0  0
    5.9418    7.4908    0.0000 F   0  0  0  0  0  0  0  0  0  0  0  0
    2.4067    4.1388    0.0000 O   0  0  0  0  0  0  0  0  0  0  0  0
    3.5823    2.5208    0.0000 N   0  0  3  0  0  0  0  0  0  0  0  0
    4.2232   -2.6844    0.0000 N   0  0  0  0  0  0  0  0  0  0  0  0
    5.5322   -1.7334    0.0000 N   0  0  0  0  0  0  0  0  0  0  0  0
    5.8412   -2.6844    0.0000 N   0  0  0  0  0  0  0  0  0  0  0  0
    5.0322   -7.2722    0.0000 N   0  0  0  0  0  0  0  0  0  0  0  0
    4.5322   -8.8111    0.0000 N   0  0  0  0  0  0  0  0  0  0  0  0
    5.5322   -8.8111    0.0000 N   0  0  0  0  0  0  0  0  0  0  0  0
    3.9890    3.4343    0.0000 C   0  0  0  0  0  0  0  0  0  0  0  0
    3.4013    4.2433    0.0000 C   0  0  3  0  0  0  0  0  0  0  0  0
    2.5878    2.4162    0.0000 C   0  0  0  0  0  0  0  0  0  0  0  0
    4.1701    1.7118    0.0000 C   0  0  0  0  0  0  0  0  0  0  0  0
    2.0000    3.2253    0.0000 C   0  0  0  0  0  0  0  0  0  0  0  0
    3.8080    5.1569    0.0000 C   0  0  0  0  0  0  0  0  0  0  0  0
    3.7634    0.7982    0.0000 C   0  0  0  0  0  0  0  0  0  0  0  0
    4.3511   -0.0108    0.0000 C   0  0  0  0  0  0  0  0  0  0  0  0
    3.2202    5.9659    0.0000 C   0  0  0  0  0  0  0  0  0  0  0  0
    4.8025    5.2614    0.0000 C   0  0  0  0  0  0  0  0  0  0  0  0
    3.6270    6.8794    0.0000 C   0  0  0  0  0  0  0  0  0  0  0  0
    5.2092    6.1750    0.0000 C   0  0  0  0  0  0  0  0  0  0  0  0
    4.6215    6.9840    0.0000 C   0  0  0  0  0  0  0  0  0  0  0  0
    4.5322   -1.7334    0.0000 C   0  0  0  0  0  0  0  0  0  0  0  0
    5.0282    7.8975    0.0000 C   0  0  0  0  0  0  0  0  0  0  0  0
    5.0322   -3.2722    0.0000 C   0  0  0  0  0  0  0  0  0  0  0  0
    5.0322   -4.2722    0.0000 C   0  0  0  0  0  0  0  0  0  0  0  0
    3.2721   -2.9934    0.0000 C   0  0  0  0  0  0  0  0  0  0  0  0
    5.8982   -4.7722    0.0000 C   0  0  0  0  0  0  0  0  0  0  0  0
    4.1662   -4.7722    0.0000 C   0  0  0  0  0  0  0  0  0  0  0  0
    5.0322   -6.2722    0.0000 C   0  0  0  0  0  0  0  0  0  0  0  0
    5.8982   -5.7722    0.0000 C   0  0  0  0  0  0  0  0  0  0  0  0
    4.1662   -5.7722    0.0000 C   0  0  0  0  0  0  0  0  0  0  0  0
    4.2232   -7.8600    0.0000 C   0  0  0  0  0  0  0  0  0  0  0  0
    5.8412   -7.8600    0.0000 C   0  0  0  0  0  0  0  0  0  0  0  0
    4.5030    3.0876    0.0000 H   0  0  0  0  0  0  0  0  0  0  0  0
    4.4197    3.8803    0.0000 H   0  0  0  0  0  0  0  0  0  0  0  0
    3.0368    4.7449    0.0000 H   0  0  0  0  0  0  0  0  0  0  0  0
    2.0305    2.1444    0.0000 H   0  0  0  0  0  0  0  0  0  0  0  0
    2.7587    1.8203    0.0000 H   0  0  0  0  0  0  0  0  0  0  0  0
    4.6841    1.3651    0.0000 H   0  0  0  0  0  0  0  0  0  0  0  0
    4.6008    2.1577    0.0000 H   0  0  0  0  0  0  0  0  0  0  0  0
    1.4860    3.5720    0.0000 H   0  0  0  0  0  0  0  0  0  0  0  0
    1.5693    2.7793    0.0000 H   0  0  0  0  0  0  0  0  0  0  0  0
    3.2494    1.1449    0.0000 H   0  0  0  0  0  0  0  0  0  0  0  0
    3.3327    0.3522    0.0000 H   0  0  0  0  0  0  0  0  0  0  0  0
    4.8651   -0.3575    0.0000 H   0  0  0  0  0  0  0  0  0  0  0  0
    4.7818    0.4352    0.0000 H   0  0  0  0  0  0  0  0  0  0  0  0
    2.6036    5.9011    0.0000 H   0  0  0  0  0  0  0  0  0  0  0  0
    5.1669    4.7598    0.0000 H   0  0  0  0  0  0  0  0  0  0  0  0
    3.2625    7.3810    0.0000 H   0  0  0  0  0  0  0  0  0  0  0  0
    5.8259    6.2398    0.0000 H   0  0  0  0  0  0  0  0  0  0  0  0
    3.0805   -2.4038    0.0000 H   0  0  0  0  0  0  0  0  0  0  0  0
    2.6825   -3.1850    0.0000 H   0  0  0  0  0  0  0  0  0  0  0  0
    3.4637   -3.5831    0.0000 H   0  0  0  0  0  0  0  0  0  0  0  0
    6.4352   -4.4622    0.0000 H   0  0  0  0  0  0  0  0  0  0  0  0
    3.6292   -4.4622    0.0000 H   0  0  0  0  0  0  0  0  0  0  0  0
    6.4352   -6.0822    0.0000 H   0  0  0  0  0  0  0  0  0  0  0  0
    3.6292   -6.0822    0.0000 H   0  0  0  0  0  0  0  0  0  0  0  0
    3.6335   -7.6684    0.0000 H   0  0  0  0  0  0  0  0  0  0  0  0
    6.4309   -7.6684    0.0000 H   0  0  0  0  0  0  0  0  0  0  0  0
  1 20  1  0  0  0  0
  1 26  1  0  0  0  0
  2 27  1  0  0  0  0
  3 27  1  0  0  0  0
  4 27  1  0  0  0  0
  5 14  1  0  0  0  0
  5 17  1  0  0  0  0
  6 13  1  0  0  0  0
  6 15  1  0  0  0  0
  6 16  1  0  0  0  0
  7 26  1  0  0  0  0
  7 28  1  0  0  0  0
  7 30  1  0  0  0  0
  8  9  1  0  0  0  0
  8 26  2  0  0  0  0
  9 28  2  0  0  0  0
 10 33  1  0  0  0  0
 10 36  1  0  0  0  0
 10 37  1  0  0  0  0
 11 12  1  0  0  0  0
 11 36  2  0  0  0  0
 12 37  2  0  0  0  0
 13 14  1  0  0  0  0
 13 38  1  0  0  0  0
 13 39  1  0  0  0  0
 14 18  1  0  0  0  0
 14 40  1  0  0  0  0
 15 17  1  0  0  0  0
 15 41  1  0  0  0  0
 15 42  1  0  0  0  0
 16 19  1  0  0  0  0
 16 43  1  0  0  0  0
 16 44  1  0  0  0  0
 17 45  1  0  0  0  0
 17 46  1  0  0  0  0
 18 21  2  0  0  0  0
 18 22  1  0  0  0  0
 19 20  1  0  0  0  0
 19 47  1  0  0  0  0
 19 48  1  0  0  0  0
 20 49  1  0  0  0  0
 20 50  1  0  0  0  0
 21 23  1  0  0  0  0
 21 51  1  0  0  0  0
 22 24  2  0  0  0  0
 22 52  1  0  0  0  0
 23 25  2  0  0  0  0
 23 53  1  0  0  0  0
 24 25  1  0  0  0  0
 24 54  1  0  0  0  0
 25 27  1  0  0  0  0
 28 29  1  0  0  0  0
 29 31  2  0  0  0  0
 29 32  1  0  0  0  0
 30 55  1  0  0  0  0
 30 56  1  0  0  0  0
 30 57  1  0  0  0  0
 31 34  1  0  0  0  0
 31 58  1  0  0  0  0
 32 35  2  0  0  0  0
 32 59  1  0  0  0  0
 33 34  2  0  0  0  0
 33 35  1  0  0  0  0
 34 60  1  0  0  0  0
 35 61  1  0  0  0  0
 36 62  1  0  0  0  0
 37 63  1  0  0  0  0
M  END
> <PUBCHEM_COMPOUND_CID>
127041349

> <PUBCHEM_COMPOUND_CANONICALIZED>
1

> <PUBCHEM_CACTVS_COMPLEXITY>
700

> <PUBCHEM_CACTVS_HBOND_ACCEPTOR>
10

> <PUBCHEM_CACTVS_HBOND_DONOR>
0

> <PUBCHEM_CACTVS_ROTATABLE_BOND>
8

> <PUBCHEM_CACTVS_SUBSKEYS>
AAADceB7oYBAAAAAAAAAAAAAAAAAAWLAAAA8YIAAAAAAAAAB9AAAHwQIAAAADBzl2xa30IcMFAiiAiZjZACS0CtxgrAdyCAobJiKLqLguZmHMAhkyAPY6CeQwPAOSAAAAAAAAACQAAAAAAAAAAAAAAAAAA==

> <PUBCHEM_IUPAC_OPENEYE_NAME>
4-[3-[[4-methyl-5-[4-(1,2,4-triazol-4-yl)phenyl]-1,2,4-triazol-3-yl]sulfanyl]propyl]-2-[4-(trifluoromethyl)phenyl]morpholine

> <PUBCHEM_IUPAC_CAS_NAME>
4-[3-[[4-methyl-5-[4-(1,2,4-triazol-4-yl)phenyl]-1,2,4-triazol-3-yl]thio]propyl]-2-[4-(trifluoromethyl)phenyl]morpholine

> <PUBCHEM_IUPAC_NAME_MARKUP>
4-[3-[[4-methyl-5-[4-(1,2,4-triazol-4-yl)phenyl]-1,2,4-triazol-3-yl]sulfanyl]propyl]-2-[4-(trifluoromethyl)phenyl]morpholine

> <PUBCHEM_IUPAC_NAME>
4-[3-[[4-methyl-5-[4-(1,2,4-triazol-4-yl)phenyl]-1,2,4-triazol-3-yl]sulfanyl]propyl]-2-[4-(trifluoromethyl)phenyl]morpholine

> <PUBCHEM_IUPAC_SYSTEMATIC_NAME>
4-[3-[[4-methyl-5-[4-(1,2,4-triazol-4-yl)phenyl]-1,2,4-triazol-3-yl]sulfanyl]propyl]-2-[4-(trifluoromethyl)phenyl]morpholine

> <PUBCHEM_IUPAC_TRADITIONAL_NAME>
4-[3-[[4-methyl-5-[4-(1,2,4-triazol-4-yl)phenyl]-1,2,4-triazol-3-yl]thio]propyl]-2-[4-(trifluoromethyl)phenyl]morpholine

> <PUBCHEM_IUPAC_INCHI>
InChI=1S/C25H26F3N7OS/c1-33-23(19-5-9-21(10-6-19)35-16-29-30-17-35)31-32-24(33)37-14-2-11-34-12-13-36-22(15-34)18-3-7-20(8-4-18)25(26,27)28/h3-10,16-17,22H,2,11-15H2,1H3

> <PUBCHEM_IUPAC_INCHIKEY>
IHKSAHBRVXUIPJ-UHFFFAOYSA-N

> <PUBCHEM_XLOGP3_AA>
3.5

> <PUBCHEM_EXACT_MASS>
529.18716414

> <PUBCHEM_MOLECULAR_FORMULA>
C25H26F3N7OS

> <PUBCHEM_MOLECULAR_WEIGHT>
529.6

> <PUBCHEM_OPENEYE_CAN_SMILES>
CN1C(=NN=C1SCCCN2CCOC(C2)C3=CC=C(C=C3)C(F)(F)F)C4=CC=C(C=C4)N5C=NN=C5

> <PUBCHEM_OPENEYE_ISO_SMILES>
CN1C(=NN=C1SCCCN2CCOC(C2)C3=CC=C(C=C3)C(F)(F)F)C4=CC=C(C=C4)N5C=NN=C5

> <PUBCHEM_CACTVS_TPSA>
99.2

> <PUBCHEM_MONOISOTOPIC_WEIGHT>
529.18716414

> <PUBCHEM_TOTAL_CHARGE>
0

> <PUBCHEM_HEAVY_ATOM_COUNT>
37

> <PUBCHEM_ATOM_DEF_STEREO_COUNT>
0

> <PUBCHEM_ATOM_UDEF_STEREO_COUNT>
1

> <PUBCHEM_BOND_DEF_STEREO_COUNT>
0

> <PUBCHEM_BOND_UDEF_STEREO_COUNT>
0

> <PUBCHEM_ISOTOPIC_ATOM_COUNT>
0

> <PUBCHEM_COMPONENT_COUNT>
1

> <PUBCHEM_CACTVS_TAUTO_COUNT>
-1

> <PUBCHEM_COORDINATE_TYPE>
1
5
255

> <PUBCHEM_BONDANNOTATIONS>
10  36  8
10  37  8
11  12  8
11  36  8
12  37  8
14  18  3
18  21  8
18  22  8
21  23  8
22  24  8
23  25  8
24  25  8
29  31  8
29  32  8
31  34  8
32  35  8
33  34  8
33  35  8
7  26  8
7  28  8
8  26  8
8  9  8
9  28  8

$$$$
