44591098
  -OEChem-09292322502D

 78 82  0     0  0  0  0  0  0999 V2000
    5.4641   -1.8453    0.0000 O   0  0  0  0  0  0  0  0  0  0  0  0
    9.7943   -0.3453    0.0000 O   0  0  0  0  0  0  0  0  0  0  0  0
    3.7321   -4.8453    0.0000 N   0  0  0  0  0  0  0  0  0  0  0  0
    8.9283    1.1547    0.0000 N   0  0  0  0  0  0  0  0  0  0  0  0
    2.8660   -4.3453    0.0000 C   0  0  0  0  0  0  0  0  0  0  0  0
    3.7320   -5.8453    0.0000 C   0  0  0  0  0  0  0  0  0  0  0  0
    2.0000   -4.8453    0.0000 C   0  0  0  0  0  0  0  0  0  0  0  0
    2.8660   -6.3453    0.0000 C   0  0  0  0  0  0  0  0  0  0  0  0
    2.0000   -5.8453    0.0000 C   0  0  0  0  0  0  0  0  0  0  0  0
    4.5981   -4.3453    0.0000 C   0  0  0  0  0  0  0  0  0  0  0  0
    4.5981   -3.3453    0.0000 C   0  0  0  0  0  0  0  0  0  0  0  0
    5.4641   -2.8453    0.0000 C   0  0  0  0  0  0  0  0  0  0  0  0
   10.1603    6.3453    0.0000 C   0  0  0  0  0  0  0  0  0  0  0  0
   11.1603    6.3453    0.0000 C   0  0  0  0  0  0  0  0  0  0  0  0
   10.6603    4.1546    0.0000 C   0  0  0  0  0  0  0  0  0  0  0  0
    9.5368    5.5635    0.0000 C   0  0  0  0  0  0  0  0  0  0  0  0
   11.7838    5.5634    0.0000 C   0  0  0  0  0  0  0  0  0  0  0  0
    9.7594    4.5885    0.0000 C   0  0  0  0  0  0  0  0  0  0  0  0
   11.5613    4.5885    0.0000 C   0  0  0  0  0  0  0  0  0  0  0  0
   10.6603    3.1546    0.0000 C   0  0  0  0  0  0  0  0  0  0  0  0
    9.7943    2.6546    0.0000 C   0  0  0  0  0  0  0  0  0  0  0  0
    8.5464    5.8858    0.0000 C   0  0  0  0  0  0  0  0  0  0  0  0
   12.7743    5.8858    0.0000 C   0  0  0  0  0  0  0  0  0  0  0  0
    9.0068    3.8684    0.0000 C   0  0  0  0  0  0  0  0  0  0  0  0
   12.3139    3.8683    0.0000 C   0  0  0  0  0  0  0  0  0  0  0  0
    9.7943    1.6546    0.0000 C   0  0  0  0  0  0  0  0  0  0  0  0
    6.3302   -1.3453    0.0000 C   0  0  0  0  0  0  0  0  0  0  0  0
    7.7773    5.1832    0.0000 C   0  0  0  0  0  0  0  0  0  0  0  0
   13.5433    5.1832    0.0000 C   0  0  0  0  0  0  0  0  0  0  0  0
    8.0091    4.1677    0.0000 C   0  0  0  0  0  0  0  0  0  0  0  0
   13.3115    4.1677    0.0000 C   0  0  0  0  0  0  0  0  0  0  0  0
    8.0622   -0.3453    0.0000 C   0  0  0  0  0  0  0  0  0  0  0  0
    8.9282    0.1547    0.0000 C   0  0  0  0  0  0  0  0  0  0  0  0
    6.3302   -0.3453    0.0000 C   0  0  0  0  0  0  0  0  0  0  0  0
    7.1962   -1.8453    0.0000 C   0  0  0  0  0  0  0  0  0  0  0  0
    7.1962    0.1547    0.0000 C   0  0  0  0  0  0  0  0  0  0  0  0
    8.0622   -1.3453    0.0000 C   0  0  0  0  0  0  0  0  0  0  0  0
    8.0622    1.6547    0.0000 C   0  0  0  0  0  0  0  0  0  0  0  0
    3.2646   -3.8704    0.0000 H   0  0  0  0  0  0  0  0  0  0  0  0
    2.4675   -3.8703    0.0000 H   0  0  0  0  0  0  0  0  0  0  0  0
    3.9441   -6.4279    0.0000 H   0  0  0  0  0  0  0  0  0  0  0  0
    4.3426   -5.7376    0.0000 H   0  0  0  0  0  0  0  0  0  0  0  0
    1.7880   -4.2627    0.0000 H   0  0  0  0  0  0  0  0  0  0  0  0
    1.3894   -4.9530    0.0000 H   0  0  0  0  0  0  0  0  0  0  0  0
    2.4675   -6.8202    0.0000 H   0  0  0  0  0  0  0  0  0  0  0  0
    3.2646   -6.8202    0.0000 H   0  0  0  0  0  0  0  0  0  0  0  0
    1.3894   -5.7376    0.0000 H   0  0  0  0  0  0  0  0  0  0  0  0
    1.7879   -6.4279    0.0000 H   0  0  0  0  0  0  0  0  0  0  0  0
    4.8101   -4.9279    0.0000 H   0  0  0  0  0  0  0  0  0  0  0  0
    5.2087   -4.2376    0.0000 H   0  0  0  0  0  0  0  0  0  0  0  0
    4.3860   -2.7627    0.0000 H   0  0  0  0  0  0  0  0  0  0  0  0
    3.9875   -3.4530    0.0000 H   0  0  0  0  0  0  0  0  0  0  0  0
    5.6762   -3.4279    0.0000 H   0  0  0  0  0  0  0  0  0  0  0  0
    6.0747   -2.7377    0.0000 H   0  0  0  0  0  0  0  0  0  0  0  0
   10.2983    6.9498    0.0000 H   0  0  0  0  0  0  0  0  0  0  0  0
    9.6017    6.6143    0.0000 H   0  0  0  0  0  0  0  0  0  0  0  0
   11.7189    6.6143    0.0000 H   0  0  0  0  0  0  0  0  0  0  0  0
   11.0224    6.9497    0.0000 H   0  0  0  0  0  0  0  0  0  0  0  0
   11.1973    2.8446    0.0000 H   0  0  0  0  0  0  0  0  0  0  0  0
    9.5822    3.2373    0.0000 H   0  0  0  0  0  0  0  0  0  0  0  0
    9.1837    2.5470    0.0000 H   0  0  0  0  0  0  0  0  0  0  0  0
    8.4154    6.4918    0.0000 H   0  0  0  0  0  0  0  0  0  0  0  0
   12.9053    6.4918    0.0000 H   0  0  0  0  0  0  0  0  0  0  0  0
    9.1517    3.2656    0.0000 H   0  0  0  0  0  0  0  0  0  0  0  0
   12.1689    3.2655    0.0000 H   0  0  0  0  0  0  0  0  0  0  0  0
   10.0063    1.0720    0.0000 H   0  0  0  0  0  0  0  0  0  0  0  0
   10.4049    1.7623    0.0000 H   0  0  0  0  0  0  0  0  0  0  0  0
    7.1856    5.3683    0.0000 H   0  0  0  0  0  0  0  0  0  0  0  0
   14.1351    5.3682    0.0000 H   0  0  0  0  0  0  0  0  0  0  0  0
    7.5562    3.7443    0.0000 H   0  0  0  0  0  0  0  0  0  0  0  0
   13.7644    3.7442    0.0000 H   0  0  0  0  0  0  0  0  0  0  0  0
    5.7932   -0.0353    0.0000 H   0  0  0  0  0  0  0  0  0  0  0  0
    7.1962   -2.4653    0.0000 H   0  0  0  0  0  0  0  0  0  0  0  0
    7.1962    0.7747    0.0000 H   0  0  0  0  0  0  0  0  0  0  0  0
    8.5991   -1.6553    0.0000 H   0  0  0  0  0  0  0  0  0  0  0  0
    8.3722    2.1916    0.0000 H   0  0  0  0  0  0  0  0  0  0  0  0
    7.5253    1.9647    0.0000 H   0  0  0  0  0  0  0  0  0  0  0  0
    7.7522    1.1177    0.0000 H   0  0  0  0  0  0  0  0  0  0  0  0
  1 12  1  0  0  0  0
  1 27  1  0  0  0  0
  2 33  2  0  0  0  0
  3  5  1  0  0  0  0
  3  6  1  0  0  0  0
  3 10  1  0  0  0  0
  4 26  1  0  0  0  0
  4 33  1  0  0  0  0
  4 38  1  0  0  0  0
  5  7  1  0  0  0  0
  5 39  1  0  0  0  0
  5 40  1  0  0  0  0
  6  8  1  0  0  0  0
  6 41  1  0  0  0  0
  6 42  1  0  0  0  0
  7  9  1  0  0  0  0
  7 43  1  0  0  0  0
  7 44  1  0  0  0  0
  8  9  1  0  0  0  0
  8 45  1  0  0  0  0
  8 46  1  0  0  0  0
  9 47  1  0  0  0  0
  9 48  1  0  0  0  0
 10 11  1  0  0  0  0
 10 49  1  0  0  0  0
 10 50  1  0  0  0  0
 11 12  1  0  0  0  0
 11 51  1  0  0  0  0
 11 52  1  0  0  0  0
 12 53  1  0  0  0  0
 12 54  1  0  0  0  0
 13 14  1  0  0  0  0
 13 16  1  0  0  0  0
 13 55  1  0  0  0  0
 13 56  1  0  0  0  0
 14 17  1  0  0  0  0
 14 57  1  0  0  0  0
 14 58  1  0  0  0  0
 15 18  1  0  0  0  0
 15 19  1  0  0  0  0
 15 20  2  0  0  0  0
 16 18  1  0  0  0  0
 16 22  2  0  0  0  0
 17 19  1  0  0  0  0
 17 23  2  0  0  0  0
 18 24  2  0  0  0  0
 19 25  2  0  0  0  0
 20 21  1  0  0  0  0
 20 59  1  0  0  0  0
 21 26  1  0  0  0  0
 21 60  1  0  0  0  0
 21 61  1  0  0  0  0
 22 28  1  0  0  0  0
 22 62  1  0  0  0  0
 23 29  1  0  0  0  0
 23 63  1  0  0  0  0
 24 30  1  0  0  0  0
 24 64  1  0  0  0  0
 25 31  1  0  0  0  0
 25 65  1  0  0  0  0
 26 66  1  0  0  0  0
 26 67  1  0  0  0  0
 27 34  2  0  0  0  0
 27 35  1  0  0  0  0
 28 30  2  0  0  0  0
 28 68  1  0  0  0  0
 29 31  2  0  0  0  0
 29 69  1  0  0  0  0
 30 70  1  0  0  0  0
 31 71  1  0  0  0  0
 32 33  1  0  0  0  0
 32 36  2  0  0  0  0
 32 37  1  0  0  0  0
 34 36  1  0  0  0  0
 34 72  1  0  0  0  0
 35 37  2  0  0  0  0
 35 73  1  0  0  0  0
 36 74  1  0  0  0  0
 37 75  1  0  0  0  0
 38 76  1  0  0  0  0
 38 77  1  0  0  0  0
 38 78  1  0  0  0  0
M  END
> <PUBCHEM_COMPOUND_CID>
44591098

> <PUBCHEM_COMPOUND_CANONICALIZED>
1

> <PUBCHEM_CACTVS_COMPLEXITY>
726

> <PUBCHEM_CACTVS_HBOND_ACCEPTOR>
3

> <PUBCHEM_CACTVS_HBOND_DONOR>
0

> <PUBCHEM_CACTVS_ROTATABLE_BOND>
9

> <PUBCHEM_CACTVS_SUBSKEYS>
AAADcfB/MAAAAAAAAAAAAAAAAAAAAAAAAAA8YMEABgAAAAABUAAAHgAAAAAADAThmAYyBoMABACIAiFSEACCCAAkIAAIiAEODMgMJjKEtRuGOSjmxhGIqYeY3MLOoAAAAAAQAABAAAAAACAAAAAAAAAAAA==

> <PUBCHEM_IUPAC_OPENEYE_NAME>
N-methyl-4-[3-(1-piperidyl)propoxy]-N-[3-(2-tricyclo[9.4.0.03,8]pentadeca-1(15),3,5,7,11,13-hexaenylidene)propyl]benzamide

> <PUBCHEM_IUPAC_CAS_NAME>
N-methyl-4-[3-(1-piperidinyl)propoxy]-N-[3-(2-tricyclo[9.4.0.03,8]pentadeca-1(15),3,5,7,11,13-hexaenylidene)propyl]benzamide

> <PUBCHEM_IUPAC_NAME_MARKUP>
<I>N</I>-methyl-4-(3-piperidin-1-ylpropoxy)-<I>N</I>-[3-(2-tricyclo[9.4.0.0<SUP>3,8</SUP>]pentadeca-1(15),3,5,7,11,13-hexaenylidene)propyl]benzamide

> <PUBCHEM_IUPAC_NAME>
N-methyl-4-(3-piperidin-1-ylpropoxy)-N-[3-(2-tricyclo[9.4.0.03,8]pentadeca-1(15),3,5,7,11,13-hexaenylidene)propyl]benzamide

> <PUBCHEM_IUPAC_SYSTEMATIC_NAME>
N-methyl-4-(3-piperidin-1-ylpropoxy)-N-[3-(2-tricyclo[9.4.0.03,8]pentadeca-1(15),3,5,7,11,13-hexaenylidene)propyl]benzamide

> <PUBCHEM_IUPAC_TRADITIONAL_NAME>
N-methyl-4-(3-piperidinopropoxy)-N-[3-(2-tricyclo[9.4.0.03,8]pentadeca-1(15),3,5,7,11,13-hexaenylidene)propyl]benzamide

> <PUBCHEM_IUPAC_INCHI>
InChI=1S/C34H40N2O2/c1-35(34(37)29-18-20-30(21-19-29)38-26-10-25-36-23-7-2-8-24-36)22-9-15-33-31-13-5-3-11-27(31)16-17-28-12-4-6-14-32(28)33/h3-6,11-15,18-21H,2,7-10,16-17,22-26H2,1H3

> <PUBCHEM_IUPAC_INCHIKEY>
DFBYKWKCUIKCPG-UHFFFAOYSA-N

> <PUBCHEM_XLOGP3_AA>
6.7

> <PUBCHEM_EXACT_MASS>
508.308978523

> <PUBCHEM_MOLECULAR_FORMULA>
C34H40N2O2

> <PUBCHEM_MOLECULAR_WEIGHT>
508.7

> <PUBCHEM_OPENEYE_CAN_SMILES>
CN(CCC=C1C2=CC=CC=C2CCC3=CC=CC=C31)C(=O)C4=CC=C(C=C4)OCCCN5CCCCC5

> <PUBCHEM_OPENEYE_ISO_SMILES>
CN(CCC=C1C2=CC=CC=C2CCC3=CC=CC=C31)C(=O)C4=CC=C(C=C4)OCCCN5CCCCC5

> <PUBCHEM_CACTVS_TPSA>
32.8

> <PUBCHEM_MONOISOTOPIC_WEIGHT>
508.308978523

> <PUBCHEM_TOTAL_CHARGE>
0

> <PUBCHEM_HEAVY_ATOM_COUNT>
38

> <PUBCHEM_ATOM_DEF_STEREO_COUNT>
0

> <PUBCHEM_ATOM_UDEF_STEREO_COUNT>
0

> <PUBCHEM_BOND_DEF_STEREO_COUNT>
0

> <PUBCHEM_BOND_UDEF_STEREO_COUNT>
0

> <PUBCHEM_ISOTOPIC_ATOM_COUNT>
0

> <PUBCHEM_COMPONENT_COUNT>
1

> <PUBCHEM_CACTVS_TAUTO_COUNT>
-1

> <PUBCHEM_COORDINATE_TYPE>
1
5
255

> <PUBCHEM_BONDANNOTATIONS>
16  18  8
16  22  8
17  19  8
17  23  8
18  24  8
19  25  8
22  28  8
23  29  8
24  30  8
25  31  8
27  34  8
27  35  8
28  30  8
29  31  8
32  36  8
32  37  8
34  36  8
35  37  8

$$$$
