127038069
  -OEChem-09292322362D

 55 58  0     0  0  0  0  0  0999 V2000
    2.0000   -2.8512    0.0000 Cl  0  0  0  0  0  0  0  0  0  0  0  0
    3.7320   -5.8512    0.0000 Cl  0  0  0  0  0  0  0  0  0  0  0  0
    7.4128    5.8512    0.0000 O   0  0  0  0  0  0  0  0  0  0  0  0
    3.7320    0.1488    0.0000 N   0  0  0  0  0  0  0  0  0  0  0  0
    3.7320   -1.8512    0.0000 N   0  0  0  0  0  0  0  0  0  0  0  0
    5.4641    4.1488    0.0000 N   0  0  0  0  0  0  0  0  0  0  0  0
    7.2437    4.2420    0.0000 N   0  0  0  0  0  0  0  0  0  0  0  0
    6.4347    5.6433    0.0000 N   0  0  0  0  0  0  0  0  0  0  0  0
    2.8660   -0.3512    0.0000 C   0  0  0  0  0  0  0  0  0  0  0  0
    4.5981   -0.3512    0.0000 C   0  0  0  0  0  0  0  0  0  0  0  0
    2.8660   -1.3512    0.0000 C   0  0  0  0  0  0  0  0  0  0  0  0
    4.5981   -1.3512    0.0000 C   0  0  0  0  0  0  0  0  0  0  0  0
    3.7320    1.1488    0.0000 C   0  0  0  0  0  0  0  0  0  0  0  0
    4.5981    1.6488    0.0000 C   0  0  0  0  0  0  0  0  0  0  0  0
    3.7320   -2.8512    0.0000 C   0  0  0  0  0  0  0  0  0  0  0  0
    4.5981    2.6488    0.0000 C   0  0  0  0  0  0  0  0  0  0  0  0
    5.4641    3.1488    0.0000 C   0  0  0  0  0  0  0  0  0  0  0  0
    2.8660   -3.3512    0.0000 C   0  0  0  0  0  0  0  0  0  0  0  0
    4.5981   -3.3512    0.0000 C   0  0  0  0  0  0  0  0  0  0  0  0
    2.8660   -4.3512    0.0000 C   0  0  0  0  0  0  0  0  0  0  0  0
    4.5981   -4.3512    0.0000 C   0  0  0  0  0  0  0  0  0  0  0  0
    3.7320   -4.8512    0.0000 C   0  0  0  0  0  0  0  0  0  0  0  0
    6.3301    4.6488    0.0000 C   0  0  0  0  0  0  0  0  0  0  0  0
    7.9128    4.9852    0.0000 C   0  0  0  0  0  0  0  0  0  0  0  0
    8.9073    4.8807    0.0000 C   0  0  0  0  0  0  0  0  0  0  0  0
    9.4951    5.6897    0.0000 C   0  0  0  0  0  0  0  0  0  0  0  0
    9.3141    3.9671    0.0000 C   0  0  0  0  0  0  0  0  0  0  0  0
   10.4896    5.5851    0.0000 C   0  0  0  0  0  0  0  0  0  0  0  0
   10.3086    3.8626    0.0000 C   0  0  0  0  0  0  0  0  0  0  0  0
   10.8964    4.6716    0.0000 C   0  0  0  0  0  0  0  0  0  0  0  0
    2.6540    0.2314    0.0000 H   0  0  0  0  0  0  0  0  0  0  0  0
    2.2554   -0.4589    0.0000 H   0  0  0  0  0  0  0  0  0  0  0  0
    5.2087   -0.4589    0.0000 H   0  0  0  0  0  0  0  0  0  0  0  0
    4.8101    0.2314    0.0000 H   0  0  0  0  0  0  0  0  0  0  0  0
    2.2554   -1.2436    0.0000 H   0  0  0  0  0  0  0  0  0  0  0  0
    2.6540   -1.9338    0.0000 H   0  0  0  0  0  0  0  0  0  0  0  0
    4.8101   -1.9338    0.0000 H   0  0  0  0  0  0  0  0  0  0  0  0
    5.2087   -1.2436    0.0000 H   0  0  0  0  0  0  0  0  0  0  0  0
    3.5200    1.7314    0.0000 H   0  0  0  0  0  0  0  0  0  0  0  0
    3.1215    1.0411    0.0000 H   0  0  0  0  0  0  0  0  0  0  0  0
    4.8101    1.0662    0.0000 H   0  0  0  0  0  0  0  0  0  0  0  0
    5.2087    1.7564    0.0000 H   0  0  0  0  0  0  0  0  0  0  0  0
    4.3860    3.2314    0.0000 H   0  0  0  0  0  0  0  0  0  0  0  0
    3.9875    2.5411    0.0000 H   0  0  0  0  0  0  0  0  0  0  0  0
    5.6762    2.5662    0.0000 H   0  0  0  0  0  0  0  0  0  0  0  0
    6.0747    3.2564    0.0000 H   0  0  0  0  0  0  0  0  0  0  0  0
    5.1350   -3.0412    0.0000 H   0  0  0  0  0  0  0  0  0  0  0  0
    4.9272    4.4588    0.0000 H   0  0  0  0  0  0  0  0  0  0  0  0
    2.3291   -4.6612    0.0000 H   0  0  0  0  0  0  0  0  0  0  0  0
    5.1350   -4.6612    0.0000 H   0  0  0  0  0  0  0  0  0  0  0  0
    9.2429    6.2561    0.0000 H   0  0  0  0  0  0  0  0  0  0  0  0
    8.9496    3.4655    0.0000 H   0  0  0  0  0  0  0  0  0  0  0  0
   10.8541    6.0867    0.0000 H   0  0  0  0  0  0  0  0  0  0  0  0
   10.5608    3.2962    0.0000 H   0  0  0  0  0  0  0  0  0  0  0  0
   11.5130    4.6068    0.0000 H   0  0  0  0  0  0  0  0  0  0  0  0
  1 18  1  0  0  0  0
  2 22  1  0  0  0  0
  3  8  1  0  0  0  0
  3 24  1  0  0  0  0
  4  9  1  0  0  0  0
  4 10  1  0  0  0  0
  4 13  1  0  0  0  0
  5 11  1  0  0  0  0
  5 12  1  0  0  0  0
  5 15  1  0  0  0  0
  6 17  1  0  0  0  0
  6 23  1  0  0  0  0
  6 48  1  0  0  0  0
  7 23  1  0  0  0  0
  7 24  2  0  0  0  0
  8 23  2  0  0  0  0
  9 11  1  0  0  0  0
  9 31  1  0  0  0  0
  9 32  1  0  0  0  0
 10 12  1  0  0  0  0
 10 33  1  0  0  0  0
 10 34  1  0  0  0  0
 11 35  1  0  0  0  0
 11 36  1  0  0  0  0
 12 37  1  0  0  0  0
 12 38  1  0  0  0  0
 13 14  1  0  0  0  0
 13 39  1  0  0  0  0
 13 40  1  0  0  0  0
 14 16  1  0  0  0  0
 14 41  1  0  0  0  0
 14 42  1  0  0  0  0
 15 18  2  0  0  0  0
 15 19  1  0  0  0  0
 16 17  1  0  0  0  0
 16 43  1  0  0  0  0
 16 44  1  0  0  0  0
 17 45  1  0  0  0  0
 17 46  1  0  0  0  0
 18 20  1  0  0  0  0
 19 21  2  0  0  0  0
 19 47  1  0  0  0  0
 20 22  2  0  0  0  0
 20 49  1  0  0  0  0
 21 22  1  0  0  0  0
 21 50  1  0  0  0  0
 24 25  1  0  0  0  0
 25 26  2  0  0  0  0
 25 27  1  0  0  0  0
 26 28  1  0  0  0  0
 26 51  1  0  0  0  0
 27 29  2  0  0  0  0
 27 52  1  0  0  0  0
 28 30  2  0  0  0  0
 28 53  1  0  0  0  0
 29 30  1  0  0  0  0
 29 54  1  0  0  0  0
 30 55  1  0  0  0  0
M  END
> <PUBCHEM_COMPOUND_CID>
127038069

> <PUBCHEM_COMPOUND_CANONICALIZED>
1

> <PUBCHEM_CACTVS_COMPLEXITY>
502

> <PUBCHEM_CACTVS_HBOND_ACCEPTOR>
6

> <PUBCHEM_CACTVS_HBOND_DONOR>
1

> <PUBCHEM_CACTVS_ROTATABLE_BOND>
8

> <PUBCHEM_CACTVS_SUBSKEYS>
AAADceB7oAAGAAAAAAAAAAAAAAAAAWAAAAA8YIAAAAAAAAAB0AAAHgIUAAAADArBmiQx0IfYEACpAiVydgCCgAklB6AJiKEobtiIbrLBn5HUMQhs0QPIyYeYyCCOAABAAACAABAAAIAAAQAAIAAAAAAAAA==

> <PUBCHEM_IUPAC_OPENEYE_NAME>
N-[4-[4-(2,4-dichlorophenyl)piperazin-1-yl]butyl]-5-phenyl-1,2,4-oxadiazol-3-amine

> <PUBCHEM_IUPAC_CAS_NAME>
N-[4-[4-(2,4-dichlorophenyl)-1-piperazinyl]butyl]-5-phenyl-1,2,4-oxadiazol-3-amine

> <PUBCHEM_IUPAC_NAME_MARKUP>
<I>N</I>-[4-[4-(2,4-dichlorophenyl)piperazin-1-yl]butyl]-5-phenyl-1,2,4-oxadiazol-3-amine

> <PUBCHEM_IUPAC_NAME>
N-[4-[4-(2,4-dichlorophenyl)piperazin-1-yl]butyl]-5-phenyl-1,2,4-oxadiazol-3-amine

> <PUBCHEM_IUPAC_SYSTEMATIC_NAME>
N-[4-[4-(2,4-dichlorophenyl)piperazin-1-yl]butyl]-5-phenyl-1,2,4-oxadiazol-3-amine

> <PUBCHEM_IUPAC_TRADITIONAL_NAME>
4-[4-(2,4-dichlorophenyl)piperazino]butyl-(5-phenyl-1,2,4-oxadiazol-3-yl)amine

> <PUBCHEM_IUPAC_INCHI>
InChI=1S/C22H25Cl2N5O/c23-18-8-9-20(19(24)16-18)29-14-12-28(13-15-29)11-5-4-10-25-22-26-21(30-27-22)17-6-2-1-3-7-17/h1-3,6-9,16H,4-5,10-15H2,(H,25,27)

> <PUBCHEM_IUPAC_INCHIKEY>
UFTCGRNKZUBROZ-UHFFFAOYSA-N

> <PUBCHEM_XLOGP3_AA>
5.7

> <PUBCHEM_EXACT_MASS>
445.1436158

> <PUBCHEM_MOLECULAR_FORMULA>
C22H25Cl2N5O

> <PUBCHEM_MOLECULAR_WEIGHT>
446.4

> <PUBCHEM_OPENEYE_CAN_SMILES>
C1CN(CCN1CCCCNC2=NOC(=N2)C3=CC=CC=C3)C4=C(C=C(C=C4)Cl)Cl

> <PUBCHEM_OPENEYE_ISO_SMILES>
C1CN(CCN1CCCCNC2=NOC(=N2)C3=CC=CC=C3)C4=C(C=C(C=C4)Cl)Cl

> <PUBCHEM_CACTVS_TPSA>
57.4

> <PUBCHEM_MONOISOTOPIC_WEIGHT>
445.1436158

> <PUBCHEM_TOTAL_CHARGE>
0

> <PUBCHEM_HEAVY_ATOM_COUNT>
30

> <PUBCHEM_ATOM_DEF_STEREO_COUNT>
0

> <PUBCHEM_ATOM_UDEF_STEREO_COUNT>
0

> <PUBCHEM_BOND_DEF_STEREO_COUNT>
0

> <PUBCHEM_BOND_UDEF_STEREO_COUNT>
0

> <PUBCHEM_ISOTOPIC_ATOM_COUNT>
0

> <PUBCHEM_COMPONENT_COUNT>
1

> <PUBCHEM_CACTVS_TAUTO_COUNT>
-1

> <PUBCHEM_COORDINATE_TYPE>
1
5
255

> <PUBCHEM_BONDANNOTATIONS>
15  18  8
15  19  8
18  20  8
19  21  8
20  22  8
21  22  8
25  26  8
25  27  8
26  28  8
27  29  8
28  30  8
29  30  8
3  24  8
3  8  8
7  23  8
7  24  8
8  23  8

$$$$
