44439405
  -OEChem-09292322492D

 58 62  0     1  0  0  0  0  0999 V2000
   13.4363   -0.2516    0.0000 S   0  0  0  0  0  0  0  0  0  0  0  0
   11.6442    0.7830    0.0000 S   0  0  0  0  0  0  0  0  0  0  0  0
    2.0000    1.2932    0.0000 O   0  0  0  0  0  0  0  0  0  0  0  0
    2.0000   -0.7068    0.0000 O   0  0  0  0  0  0  0  0  0  0  0  0
    6.3981   -0.2277    0.0000 N   0  0  0  0  0  0  0  0  0  0  0  0
    8.1301   -0.2343    0.0000 N   0  0  0  0  0  0  0  0  0  0  0  0
   12.5263   -0.7585    0.0000 C   0  0  3  0  0  0  0  0  0  0  0  0
   11.6602   -0.2585    0.0000 C   0  0  3  0  0  0  0  0  0  0  0  0
   12.5263   -1.7585    0.0000 C   0  0  0  0  0  0  0  0  0  0  0  0
   10.7942   -0.7585    0.0000 C   0  0  0  0  0  0  0  0  0  0  0  0
   11.6602   -2.2585    0.0000 C   0  0  0  0  0  0  0  0  0  0  0  0
   10.7942   -1.7585    0.0000 C   0  0  0  0  0  0  0  0  0  0  0  0
   13.4443    0.7900    0.0000 C   0  0  0  0  0  0  0  0  0  0  0  0
   12.5422    1.3108    0.0000 C   0  0  0  0  0  0  0  0  0  0  0  0
    9.9003   -0.2238    0.0000 C   0  0  0  0  0  0  0  0  0  0  0  0
    9.9003   -2.2931    0.0000 C   0  0  0  0  0  0  0  0  0  0  0  0
    8.9942   -0.7377    0.0000 C   0  0  0  0  0  0  0  0  0  0  0  0
    8.9942   -1.7793    0.0000 C   0  0  0  0  0  0  0  0  0  0  0  0
    6.3981    0.8140    0.0000 C   0  0  0  0  0  0  0  0  0  0  0  0
    5.4920    1.3278    0.0000 C   0  0  0  0  0  0  0  0  0  0  0  0
    5.4920   -0.7415    0.0000 C   0  0  0  0  0  0  0  0  0  0  0  0
    4.5981    0.7932    0.0000 C   0  0  0  0  0  0  0  0  0  0  0  0
    4.5981   -0.2068    0.0000 C   0  0  0  0  0  0  0  0  0  0  0  0
    7.2622   -0.7310    0.0000 C   0  0  0  0  0  0  0  0  0  0  0  0
    3.7320    1.2932    0.0000 C   0  0  0  0  0  0  0  0  0  0  0  0
    3.7320   -0.7068    0.0000 C   0  0  0  0  0  0  0  0  0  0  0  0
    2.8660    0.7932    0.0000 C   0  0  0  0  0  0  0  0  0  0  0  0
    2.8660   -0.2068    0.0000 C   0  0  0  0  0  0  0  0  0  0  0  0
    2.0000    2.2931    0.0000 C   0  0  0  0  0  0  0  0  0  0  0  0
    2.0000   -1.7068    0.0000 C   0  0  0  0  0  0  0  0  0  0  0  0
   13.0608   -1.0726    0.0000 H   0  0  0  0  0  0  0  0  0  0  0  0
   12.1948    0.0556    0.0000 H   0  0  0  0  0  0  0  0  0  0  0  0
   12.7383   -2.3411    0.0000 H   0  0  0  0  0  0  0  0  0  0  0  0
   13.1369   -1.6508    0.0000 H   0  0  0  0  0  0  0  0  0  0  0  0
   11.2617   -2.7334    0.0000 H   0  0  0  0  0  0  0  0  0  0  0  0
   12.0588   -2.7334    0.0000 H   0  0  0  0  0  0  0  0  0  0  0  0
   14.0543    0.6792    0.0000 H   0  0  0  0  0  0  0  0  0  0  0  0
   13.6579    1.3720    0.0000 H   0  0  0  0  0  0  0  0  0  0  0  0
   12.9395    1.7867    0.0000 H   0  0  0  0  0  0  0  0  0  0  0  0
   12.1413    1.7837    0.0000 H   0  0  0  0  0  0  0  0  0  0  0  0
    9.9075    0.3961    0.0000 H   0  0  0  0  0  0  0  0  0  0  0  0
    9.9075   -2.9131    0.0000 H   0  0  0  0  0  0  0  0  0  0  0  0
    8.4585   -2.0914    0.0000 H   0  0  0  0  0  0  0  0  0  0  0  0
    7.0089    0.7079    0.0000 H   0  0  0  0  0  0  0  0  0  0  0  0
    6.6071    1.3977    0.0000 H   0  0  0  0  0  0  0  0  0  0  0  0
    5.8856    1.8068    0.0000 H   0  0  0  0  0  0  0  0  0  0  0  0
    5.0874    1.7976    0.0000 H   0  0  0  0  0  0  0  0  0  0  0  0
    5.0874   -1.2113    0.0000 H   0  0  0  0  0  0  0  0  0  0  0  0
    5.8856   -1.2205    0.0000 H   0  0  0  0  0  0  0  0  0  0  0  0
    7.2598   -1.3510    0.0000 H   0  0  0  0  0  0  0  0  0  0  0  0
    3.7320    1.9132    0.0000 H   0  0  0  0  0  0  0  0  0  0  0  0
    3.7320   -1.3268    0.0000 H   0  0  0  0  0  0  0  0  0  0  0  0
    2.6200    2.2931    0.0000 H   0  0  0  0  0  0  0  0  0  0  0  0
    2.0000    2.9132    0.0000 H   0  0  0  0  0  0  0  0  0  0  0  0
    1.3800    2.2931    0.0000 H   0  0  0  0  0  0  0  0  0  0  0  0
    1.3800   -1.7068    0.0000 H   0  0  0  0  0  0  0  0  0  0  0  0
    2.0000   -2.3268    0.0000 H   0  0  0  0  0  0  0  0  0  0  0  0
    2.6200   -1.7068    0.0000 H   0  0  0  0  0  0  0  0  0  0  0  0
  1  7  1  0  0  0  0
  1 13  1  0  0  0  0
  2  8  1  0  0  0  0
  2 14  1  0  0  0  0
  3 27  1  0  0  0  0
  3 29  1  0  0  0  0
  4 28  1  0  0  0  0
  4 30  1  0  0  0  0
  5 19  1  0  0  0  0
  5 21  1  0  0  0  0
  5 24  1  0  0  0  0
  6 17  1  0  0  0  0
  6 24  2  0  0  0  0
  7  8  1  0  0  0  0
  7  9  1  0  0  0  0
  7 31  1  0  0  0  0
  8 10  1  0  0  0  0
  8 32  1  0  0  0  0
  9 11  1  0  0  0  0
  9 33  1  0  0  0  0
  9 34  1  0  0  0  0
 10 12  2  0  0  0  0
 10 15  1  0  0  0  0
 11 12  1  0  0  0  0
 11 35  1  0  0  0  0
 11 36  1  0  0  0  0
 12 16  1  0  0  0  0
 13 14  1  0  0  0  0
 13 37  1  0  0  0  0
 13 38  1  0  0  0  0
 14 39  1  0  0  0  0
 14 40  1  0  0  0  0
 15 17  2  0  0  0  0
 15 41  1  0  0  0  0
 16 18  2  0  0  0  0
 16 42  1  0  0  0  0
 17 18  1  0  0  0  0
 18 43  1  0  0  0  0
 19 20  1  0  0  0  0
 19 44  1  0  0  0  0
 19 45  1  0  0  0  0
 20 22  1  0  0  0  0
 20 46  1  0  0  0  0
 20 47  1  0  0  0  0
 21 23  1  0  0  0  0
 21 48  1  0  0  0  0
 21 49  1  0  0  0  0
 22 23  1  0  0  0  0
 22 25  2  0  0  0  0
 23 26  2  0  0  0  0
 24 50  1  0  0  0  0
 25 27  1  0  0  0  0
 25 51  1  0  0  0  0
 26 28  1  0  0  0  0
 26 52  1  0  0  0  0
 27 28  2  0  0  0  0
 29 53  1  0  0  0  0
 29 54  1  0  0  0  0
 29 55  1  0  0  0  0
 30 56  1  0  0  0  0
 30 57  1  0  0  0  0
 30 58  1  0  0  0  0
M  END
> <PUBCHEM_COMPOUND_CID>
44439405

> <PUBCHEM_COMPOUND_CANONICALIZED>
1

> <PUBCHEM_CACTVS_COMPLEXITY>
606

> <PUBCHEM_CACTVS_HBOND_ACCEPTOR>
5

> <PUBCHEM_CACTVS_HBOND_DONOR>
0

> <PUBCHEM_CACTVS_ROTATABLE_BOND>
4

> <PUBCHEM_CACTVS_SUBSKEYS>
AAADceB7MABgAAAAAAAAAAAAAAAAAAAAAAA8aMECAAAAAADxQAAAHgQAAAAADAzF2AazxoMABAigAiRDZACCCAEgIhAJiAAO7IgNJiKkuZuEMCpkwBGq6Aew0LIOqAABQAAQQABwAAOAACiEAAAAAAAAAA==

> <PUBCHEM_IUPAC_OPENEYE_NAME>
N-(2,3,4a,5,6,10b-hexahydrobenzo[f][1,4]benzodithiin-9-yl)-1-(6,7-dimethoxy-3,4-dihydro-1H-isoquinolin-2-yl)methanimine

> <PUBCHEM_IUPAC_CAS_NAME>
N-(2,3,4a,5,6,10b-hexahydrobenzo[f][1,4]benzodithiin-9-yl)-1-(6,7-dimethoxy-3,4-dihydro-1H-isoquinolin-2-yl)methanimine

> <PUBCHEM_IUPAC_NAME_MARKUP>
<I>N</I>-(2,3,4<I>a</I>,5,6,10<I>b</I>-hexahydrobenzo[f][1,4]benzodithiin-9-yl)-1-(6,7-dimethoxy-3,4-dihydro-1<I>H</I>-isoquinolin-2-yl)methanimine

> <PUBCHEM_IUPAC_NAME>
N-(2,3,4a,5,6,10b-hexahydrobenzo[f][1,4]benzodithiin-9-yl)-1-(6,7-dimethoxy-3,4-dihydro-1H-isoquinolin-2-yl)methanimine

> <PUBCHEM_IUPAC_SYSTEMATIC_NAME>
N-(2,3,4a,5,6,10b-hexahydrobenzo[f][1,4]benzodithiin-9-yl)-1-(6,7-dimethoxy-3,4-dihydro-1H-isoquinolin-2-yl)methanimine

> <PUBCHEM_IUPAC_TRADITIONAL_NAME>
2,3,4a,5,6,10b-hexahydrobenzo[f][1,4]benzodithiin-9-yl-[(6,7-dimethoxy-3,4-dihydro-1H-isoquinolin-2-yl)methylene]amine

> <PUBCHEM_IUPAC_INCHI>
InChI=1S/C24H28N2O2S2/c1-27-21-11-17-7-8-26(14-18(17)12-22(21)28-2)15-25-19-5-3-16-4-6-23-24(20(16)13-19)30-10-9-29-23/h3,5,11-13,15,23-24H,4,6-10,14H2,1-2H3

> <PUBCHEM_IUPAC_INCHIKEY>
DDGNZGCNNSGECT-UHFFFAOYSA-N

> <PUBCHEM_XLOGP3_AA>
4.4

> <PUBCHEM_EXACT_MASS>
440.15922049

> <PUBCHEM_MOLECULAR_FORMULA>
C24H28N2O2S2

> <PUBCHEM_MOLECULAR_WEIGHT>
440.6

> <PUBCHEM_OPENEYE_CAN_SMILES>
COC1=C(C=C2CN(CCC2=C1)C=NC3=CC4=C(CCC5C4SCCS5)C=C3)OC

> <PUBCHEM_OPENEYE_ISO_SMILES>
COC1=C(C=C2CN(CCC2=C1)C=NC3=CC4=C(CCC5C4SCCS5)C=C3)OC

> <PUBCHEM_CACTVS_TPSA>
84.7

> <PUBCHEM_MONOISOTOPIC_WEIGHT>
440.15922049

> <PUBCHEM_TOTAL_CHARGE>
0

> <PUBCHEM_HEAVY_ATOM_COUNT>
30

> <PUBCHEM_ATOM_DEF_STEREO_COUNT>
0

> <PUBCHEM_ATOM_UDEF_STEREO_COUNT>
2

> <PUBCHEM_BOND_DEF_STEREO_COUNT>
0

> <PUBCHEM_BOND_UDEF_STEREO_COUNT>
0

> <PUBCHEM_ISOTOPIC_ATOM_COUNT>
0

> <PUBCHEM_COMPONENT_COUNT>
1

> <PUBCHEM_CACTVS_TAUTO_COUNT>
-1

> <PUBCHEM_COORDINATE_TYPE>
1
5
255

> <PUBCHEM_BONDANNOTATIONS>
10  12  8
10  15  8
12  16  8
15  17  8
16  18  8
17  18  8
8  2  3
22  23  8
22  25  8
23  26  8
25  27  8
26  28  8
27  28  8
7  9  3

$$$$
