162652984
  -OEChem-09292322422D

 63 67  0     1  0  0  0  0  0999 V2000
   15.6166    1.2856    0.0000 Cl  0  0  0  0  0  0  0  0  0  0  0  0
    4.9889   -2.3598    0.0000 O   0  0  0  0  0  0  0  0  0  0  0  0
    4.9889    1.1507    0.0000 O   0  0  0  0  0  0  0  0  0  0  0  0
    5.2619   -0.6046    0.0000 N   0  0  0  0  0  0  0  0  0  0  0  0
   10.7619    0.2614    0.0000 N   0  0  3  0  0  0  0  0  0  0  0  0
    8.2619   -0.6046    0.0000 C   0  0  0  0  0  0  0  0  0  0  0  0
    6.2619   -0.6046    0.0000 C   0  0  0  0  0  0  0  0  0  0  0  0
    7.7619   -1.4706    0.0000 C   0  0  0  0  0  0  0  0  0  0  0  0
    7.7619    0.2614    0.0000 C   0  0  0  0  0  0  0  0  0  0  0  0
    6.7619   -1.4706    0.0000 C   0  0  0  0  0  0  0  0  0  0  0  0
    6.7619    0.2614    0.0000 C   0  0  0  0  0  0  0  0  0  0  0  0
    9.2619   -0.6046    0.0000 C   0  0  0  0  0  0  0  0  0  0  0  0
    9.7619    0.2614    0.0000 C   0  0  0  0  0  0  0  0  0  0  0  0
   11.1958    1.1624    0.0000 C   0  0  0  0  0  0  0  0  0  0  0  0
   11.1958   -0.6395    0.0000 C   0  0  0  0  0  0  0  0  0  0  0  0
   12.1707    1.3849    0.0000 C   0  0  1  0  0  0  0  0  0  0  0  0
   12.1707   -0.8621    0.0000 C   0  0  0  0  0  0  0  0  0  0  0  0
    4.6783   -1.4093    0.0000 C   0  0  0  0  0  0  0  0  0  0  0  0
    4.6783    0.2001    0.0000 C   0  0  0  0  0  0  0  0  0  0  0  0
   12.9525    0.7614    0.0000 C   0  0  0  0  0  0  0  0  0  0  0  0
   12.9525   -0.2386    0.0000 C   0  0  0  0  0  0  0  0  0  0  0  0
    3.7320   -1.1046    0.0000 C   0  0  0  0  0  0  0  0  0  0  0  0
    3.7320   -0.1046    0.0000 C   0  0  0  0  0  0  0  0  0  0  0  0
   12.3932    2.3598    0.0000 C   0  0  0  0  0  0  0  0  0  0  0  0
   13.8465    1.2961    0.0000 C   0  0  0  0  0  0  0  0  0  0  0  0
   13.8465   -0.7732    0.0000 C   0  0  0  0  0  0  0  0  0  0  0  0
    2.8660   -1.6046    0.0000 C   0  0  0  0  0  0  0  0  0  0  0  0
    2.8660    0.3954    0.0000 C   0  0  0  0  0  0  0  0  0  0  0  0
   14.7525    0.7822    0.0000 C   0  0  0  0  0  0  0  0  0  0  0  0
   14.7525   -0.2594    0.0000 C   0  0  0  0  0  0  0  0  0  0  0  0
    2.0000   -1.1046    0.0000 C   0  0  0  0  0  0  0  0  0  0  0  0
    2.0000   -0.1046    0.0000 C   0  0  0  0  0  0  0  0  0  0  0  0
    8.5719   -1.1415    0.0000 H   0  0  0  0  0  0  0  0  0  0  0  0
    5.9519   -1.1415    0.0000 H   0  0  0  0  0  0  0  0  0  0  0  0
    7.6542   -2.0812    0.0000 H   0  0  0  0  0  0  0  0  0  0  0  0
    8.3445   -1.6827    0.0000 H   0  0  0  0  0  0  0  0  0  0  0  0
    8.3445    0.4735    0.0000 H   0  0  0  0  0  0  0  0  0  0  0  0
    7.6542    0.8720    0.0000 H   0  0  0  0  0  0  0  0  0  0  0  0
    6.1793   -1.6827    0.0000 H   0  0  0  0  0  0  0  0  0  0  0  0
    6.8695   -2.0812    0.0000 H   0  0  0  0  0  0  0  0  0  0  0  0
    6.8695    0.8720    0.0000 H   0  0  0  0  0  0  0  0  0  0  0  0
    6.1793    0.4735    0.0000 H   0  0  0  0  0  0  0  0  0  0  0  0
    9.1542   -1.2152    0.0000 H   0  0  0  0  0  0  0  0  0  0  0  0
    9.8445   -0.8166    0.0000 H   0  0  0  0  0  0  0  0  0  0  0  0
    9.8695    0.8720    0.0000 H   0  0  0  0  0  0  0  0  0  0  0  0
    9.1793    0.4735    0.0000 H   0  0  0  0  0  0  0  0  0  0  0  0
   11.1958    1.7824    0.0000 H   0  0  0  0  0  0  0  0  0  0  0  0
   10.5913    1.3004    0.0000 H   0  0  0  0  0  0  0  0  0  0  0  0
   10.5913   -0.7775    0.0000 H   0  0  0  0  0  0  0  0  0  0  0  0
   11.1958   -1.2595    0.0000 H   0  0  0  0  0  0  0  0  0  0  0  0
   12.7559    1.5897    0.0000 H   0  0  0  0  0  0  0  0  0  0  0  0
   11.9017   -1.4207    0.0000 H   0  0  0  0  0  0  0  0  0  0  0  0
   12.6554   -1.2486    0.0000 H   0  0  0  0  0  0  0  0  0  0  0  0
   12.9977    2.2219    0.0000 H   0  0  0  0  0  0  0  0  0  0  0  0
   12.5312    2.9643    0.0000 H   0  0  0  0  0  0  0  0  0  0  0  0
   11.7888    2.4978    0.0000 H   0  0  0  0  0  0  0  0  0  0  0  0
   13.8393    1.9160    0.0000 H   0  0  0  0  0  0  0  0  0  0  0  0
   13.8393   -1.3932    0.0000 H   0  0  0  0  0  0  0  0  0  0  0  0
    2.8660   -2.2246    0.0000 H   0  0  0  0  0  0  0  0  0  0  0  0
    2.8660    1.0154    0.0000 H   0  0  0  0  0  0  0  0  0  0  0  0
   15.2883   -0.5715    0.0000 H   0  0  0  0  0  0  0  0  0  0  0  0
    1.4631   -1.4146    0.0000 H   0  0  0  0  0  0  0  0  0  0  0  0
    1.4631    0.2054    0.0000 H   0  0  0  0  0  0  0  0  0  0  0  0
  1 29  1  0  0  0  0
  2 18  2  0  0  0  0
  3 19  2  0  0  0  0
  4  7  1  0  0  0  0
  4 18  1  0  0  0  0
  4 19  1  0  0  0  0
  5 13  1  0  0  0  0
  5 14  1  0  0  0  0
  5 15  1  0  0  0  0
  6  8  1  0  0  0  0
  6  9  1  0  0  0  0
  6 12  1  0  0  0  0
  6 33  1  0  0  0  0
  7 10  1  0  0  0  0
  7 11  1  0  0  0  0
  7 34  1  0  0  0  0
  8 10  1  0  0  0  0
  8 35  1  0  0  0  0
  8 36  1  0  0  0  0
  9 11  1  0  0  0  0
  9 37  1  0  0  0  0
  9 38  1  0  0  0  0
 10 39  1  0  0  0  0
 10 40  1  0  0  0  0
 11 41  1  0  0  0  0
 11 42  1  0  0  0  0
 12 13  1  0  0  0  0
 12 43  1  0  0  0  0
 12 44  1  0  0  0  0
 13 45  1  0  0  0  0
 13 46  1  0  0  0  0
 14 16  1  0  0  0  0
 14 47  1  0  0  0  0
 14 48  1  0  0  0  0
 15 17  1  0  0  0  0
 15 49  1  0  0  0  0
 15 50  1  0  0  0  0
 16 20  1  0  0  0  0
 16 24  1  6  0  0  0
 16 51  1  0  0  0  0
 17 21  1  0  0  0  0
 17 52  1  0  0  0  0
 17 53  1  0  0  0  0
 18 22  1  0  0  0  0
 19 23  1  0  0  0  0
 20 21  2  0  0  0  0
 20 25  1  0  0  0  0
 21 26  1  0  0  0  0
 22 23  1  0  0  0  0
 22 27  2  0  0  0  0
 23 28  2  0  0  0  0
 24 54  1  0  0  0  0
 24 55  1  0  0  0  0
 24 56  1  0  0  0  0
 25 29  2  0  0  0  0
 25 57  1  0  0  0  0
 26 30  2  0  0  0  0
 26 58  1  0  0  0  0
 27 31  1  0  0  0  0
 27 59  1  0  0  0  0
 28 32  1  0  0  0  0
 28 60  1  0  0  0  0
 29 30  1  0  0  0  0
 30 61  1  0  0  0  0
 31 32  2  0  0  0  0
 31 62  1  0  0  0  0
 32 63  1  0  0  0  0
M  END
> <PUBCHEM_COMPOUND_CID>
162652984

> <PUBCHEM_COMPOUND_CANONICALIZED>
1

> <PUBCHEM_CACTVS_COMPLEXITY>
667

> <PUBCHEM_CACTVS_HBOND_ACCEPTOR>
3

> <PUBCHEM_CACTVS_HBOND_DONOR>
0

> <PUBCHEM_CACTVS_ROTATABLE_BOND>
4

> <PUBCHEM_CACTVS_SUBSKEYS>
AAADceB7MAAEAAAAAAAAAAAAAAAAAWAAAAAwYMAABYAAAFgBQAAAHgIAAAAADSrBmCQyAIMAAACIAiFSEACCAAAkBQAIiAEIBsgIIDKBlxGEIQhghiCIiYcdiMCOhAAAIAAQAAAYAABAACAAAAAAAAAAAA==

> <PUBCHEM_IUPAC_OPENEYE_NAME>
2-[4-[2-[(5R)-7-chloro-5-methyl-1,2,4,5-tetrahydro-3-benzazepin-3-yl]ethyl]cyclohexyl]isoindoline-1,3-dione

> <PUBCHEM_IUPAC_CAS_NAME>
2-[4-[2-[(5R)-7-chloro-5-methyl-1,2,4,5-tetrahydro-3-benzazepin-3-yl]ethyl]cyclohexyl]isoindole-1,3-dione

> <PUBCHEM_IUPAC_NAME_MARKUP>
2-[4-[2-[(5<I>R</I>)-7-chloro-5-methyl-1,2,4,5-tetrahydro-3-benzazepin-3-yl]ethyl]cyclohexyl]isoindole-1,3-dione

> <PUBCHEM_IUPAC_NAME>
2-[4-[2-[(5R)-7-chloro-5-methyl-1,2,4,5-tetrahydro-3-benzazepin-3-yl]ethyl]cyclohexyl]isoindole-1,3-dione

> <PUBCHEM_IUPAC_SYSTEMATIC_NAME>
2-[4-[2-[(5R)-7-chloranyl-5-methyl-1,2,4,5-tetrahydro-3-benzazepin-3-yl]ethyl]cyclohexyl]isoindole-1,3-dione

> <PUBCHEM_IUPAC_TRADITIONAL_NAME>
2-[4-[2-[(5R)-7-chloro-5-methyl-1,2,4,5-tetrahydro-3-benzazepin-3-yl]ethyl]cyclohexyl]isoindoline-1,3-quinone

> <PUBCHEM_IUPAC_INCHI>
InChI=1S/C27H31ClN2O2/c1-18-17-29(15-13-20-8-9-21(28)16-25(18)20)14-12-19-6-10-22(11-7-19)30-26(31)23-4-2-3-5-24(23)27(30)32/h2-5,8-9,16,18-19,22H,6-7,10-15,17H2,1H3/t18-,19?,22?/m0/s1

> <PUBCHEM_IUPAC_INCHIKEY>
ADVQAEICXAHZOY-PGFLUOATSA-N

> <PUBCHEM_XLOGP3_AA>
5.8

> <PUBCHEM_EXACT_MASS>
450.2074059

> <PUBCHEM_MOLECULAR_FORMULA>
C27H31ClN2O2

> <PUBCHEM_MOLECULAR_WEIGHT>
451.0

> <PUBCHEM_OPENEYE_CAN_SMILES>
CC1CN(CCC2=C1C=C(C=C2)Cl)CCC3CCC(CC3)N4C(=O)C5=CC=CC=C5C4=O

> <PUBCHEM_OPENEYE_ISO_SMILES>
C[C@H]1CN(CCC2=C1C=C(C=C2)Cl)CCC3CCC(CC3)N4C(=O)C5=CC=CC=C5C4=O

> <PUBCHEM_CACTVS_TPSA>
40.6

> <PUBCHEM_MONOISOTOPIC_WEIGHT>
450.2074059

> <PUBCHEM_TOTAL_CHARGE>
0

> <PUBCHEM_HEAVY_ATOM_COUNT>
32

> <PUBCHEM_ATOM_DEF_STEREO_COUNT>
1

> <PUBCHEM_ATOM_UDEF_STEREO_COUNT>
0

> <PUBCHEM_BOND_DEF_STEREO_COUNT>
0

> <PUBCHEM_BOND_UDEF_STEREO_COUNT>
0

> <PUBCHEM_ISOTOPIC_ATOM_COUNT>
0

> <PUBCHEM_COMPONENT_COUNT>
1

> <PUBCHEM_CACTVS_TAUTO_COUNT>
-1

> <PUBCHEM_COORDINATE_TYPE>
1
5
255

> <PUBCHEM_BONDANNOTATIONS>
16  24  6
20  21  8
20  25  8
21  26  8
22  23  8
22  27  8
23  28  8
25  29  8
26  30  8
27  31  8
28  32  8
29  30  8
31  32  8

$$$$
