164626955
  -OEChem-09292322432D

 66 69  0     1  0  0  0  0  0999 V2000
    8.4128   -3.7842    0.0000 O   0  0  0  0  0  0  0  0  0  0  0  0
    5.3147    4.5818    0.0000 O   0  0  0  0  0  0  0  0  0  0  0  0
    8.7788   -0.4182    0.0000 N   0  0  0  0  0  0  0  0  0  0  0  0
    4.4487    3.0818    0.0000 N   0  0  0  0  0  0  0  0  0  0  0  0
    3.5827    4.5818    0.0000 N   0  0  0  0  0  0  0  0  0  0  0  0
    9.6448   -1.9182    0.0000 C   0  0  3  0  0  0  0  0  0  0  0  0
   10.1449   -2.7842    0.0000 C   0  0  3  0  0  0  0  0  0  0  0  0
   10.6449   -1.9182    0.0000 C   0  0  0  0  0  0  0  0  0  0  0  0
    8.7788   -1.4182    0.0000 C   0  0  0  0  0  0  0  0  0  0  0  0
   10.1449   -3.7842    0.0000 C   0  0  0  0  0  0  0  0  0  0  0  0
    7.0468    1.5818    0.0000 C   0  0  0  0  0  0  0  0  0  0  0  0
    7.9128    1.0818    0.0000 C   0  0  0  0  0  0  0  0  0  0  0  0
    6.1808    1.0818    0.0000 C   0  0  0  0  0  0  0  0  0  0  0  0
    7.0468    2.5818    0.0000 C   0  0  0  0  0  0  0  0  0  0  0  0
    7.9128    0.0818    0.0000 C   0  0  0  0  0  0  0  0  0  0  0  0
    5.3147    2.5818    0.0000 C   0  0  0  0  0  0  0  0  0  0  0  0
    5.3147    1.5818    0.0000 C   0  0  0  0  0  0  0  0  0  0  0  0
    6.1808    3.0818    0.0000 C   0  0  0  0  0  0  0  0  0  0  0  0
    9.2788   -4.2842    0.0000 C   0  0  0  0  0  0  0  0  0  0  0  0
   11.0109   -4.2842    0.0000 C   0  0  0  0  0  0  0  0  0  0  0  0
    9.2788   -5.2842    0.0000 C   0  0  0  0  0  0  0  0  0  0  0  0
   11.0109   -5.2842    0.0000 C   0  0  0  0  0  0  0  0  0  0  0  0
    4.4487    4.0818    0.0000 C   0  0  0  0  0  0  0  0  0  0  0  0
   10.1449   -5.7842    0.0000 C   0  0  0  0  0  0  0  0  0  0  0  0
    3.4782    5.5763    0.0000 C   0  0  0  0  0  0  0  0  0  0  0  0
    2.6691    4.1751    0.0000 C   0  0  0  0  0  0  0  0  0  0  0  0
    2.5000    5.7842    0.0000 C   0  0  0  0  0  0  0  0  0  0  0  0
    2.0000    4.9182    0.0000 C   0  0  0  0  0  0  0  0  0  0  0  0
    7.5468   -4.2842    0.0000 C   0  0  0  0  0  0  0  0  0  0  0  0
    9.2064   -2.3566    0.0000 H   0  0  0  0  0  0  0  0  0  0  0  0
   10.7437   -2.9447    0.0000 H   0  0  0  0  0  0  0  0  0  0  0  0
   11.2275   -2.1303    0.0000 H   0  0  0  0  0  0  0  0  0  0  0  0
   10.7525   -1.3076    0.0000 H   0  0  0  0  0  0  0  0  0  0  0  0
    8.1682   -1.3105    0.0000 H   0  0  0  0  0  0  0  0  0  0  0  0
    8.5668   -2.0008    0.0000 H   0  0  0  0  0  0  0  0  0  0  0  0
    7.0468    0.9618    0.0000 H   0  0  0  0  0  0  0  0  0  0  0  0
    9.3158   -0.1082    0.0000 H   0  0  0  0  0  0  0  0  0  0  0  0
    8.5234    0.9741    0.0000 H   0  0  0  0  0  0  0  0  0  0  0  0
    8.1249    1.6644    0.0000 H   0  0  0  0  0  0  0  0  0  0  0  0
    5.7822    0.6068    0.0000 H   0  0  0  0  0  0  0  0  0  0  0  0
    6.5793    0.6068    0.0000 H   0  0  0  0  0  0  0  0  0  0  0  0
    7.6574    2.4741    0.0000 H   0  0  0  0  0  0  0  0  0  0  0  0
    7.2588    3.1644    0.0000 H   0  0  0  0  0  0  0  0  0  0  0  0
    5.3147    3.2018    0.0000 H   0  0  0  0  0  0  0  0  0  0  0  0
    7.3022    0.1895    0.0000 H   0  0  0  0  0  0  0  0  0  0  0  0
    7.7008   -0.5008    0.0000 H   0  0  0  0  0  0  0  0  0  0  0  0
    4.7042    1.6895    0.0000 H   0  0  0  0  0  0  0  0  0  0  0  0
    5.1027    0.9992    0.0000 H   0  0  0  0  0  0  0  0  0  0  0  0
    6.5793    3.5567    0.0000 H   0  0  0  0  0  0  0  0  0  0  0  0
    5.7822    3.5567    0.0000 H   0  0  0  0  0  0  0  0  0  0  0  0
   11.5478   -3.9742    0.0000 H   0  0  0  0  0  0  0  0  0  0  0  0
    3.9118    2.7718    0.0000 H   0  0  0  0  0  0  0  0  0  0  0  0
    8.7419   -5.5942    0.0000 H   0  0  0  0  0  0  0  0  0  0  0  0
   11.5478   -5.5942    0.0000 H   0  0  0  0  0  0  0  0  0  0  0  0
   10.1449   -6.4042    0.0000 H   0  0  0  0  0  0  0  0  0  0  0  0
    4.0982    5.5763    0.0000 H   0  0  0  0  0  0  0  0  0  0  0  0
    3.5430    6.1929    0.0000 H   0  0  0  0  0  0  0  0  0  0  0  0
    2.1675    3.8106    0.0000 H   0  0  0  0  0  0  0  0  0  0  0  0
    2.9791    3.6381    0.0000 H   0  0  0  0  0  0  0  0  0  0  0  0
    2.6916    6.3739    0.0000 H   0  0  0  0  0  0  0  0  0  0  0  0
    1.9336    6.0364    0.0000 H   0  0  0  0  0  0  0  0  0  0  0  0
    1.4984    5.2826    0.0000 H   0  0  0  0  0  0  0  0  0  0  0  0
    1.5851    4.4574    0.0000 H   0  0  0  0  0  0  0  0  0  0  0  0
    7.2368   -3.7473    0.0000 H   0  0  0  0  0  0  0  0  0  0  0  0
    7.0098   -4.5942    0.0000 H   0  0  0  0  0  0  0  0  0  0  0  0
    7.8568   -4.8212    0.0000 H   0  0  0  0  0  0  0  0  0  0  0  0
  1 19  1  0  0  0  0
  1 29  1  0  0  0  0
  2 23  2  0  0  0  0
  3  9  1  0  0  0  0
  3 15  1  0  0  0  0
  3 37  1  0  0  0  0
  4 16  1  0  0  0  0
  4 23  1  0  0  0  0
  4 52  1  0  0  0  0
  5 23  1  0  0  0  0
  5 25  1  0  0  0  0
  5 26  1  0  0  0  0
  6  7  1  0  0  0  0
  6  8  1  0  0  0  0
  6  9  1  0  0  0  0
  6 30  1  0  0  0  0
  7  8  1  0  0  0  0
  7 10  1  0  0  0  0
  7 31  1  0  0  0  0
  8 32  1  0  0  0  0
  8 33  1  0  0  0  0
  9 34  1  0  0  0  0
  9 35  1  0  0  0  0
 10 19  1  0  0  0  0
 10 20  2  0  0  0  0
 11 12  1  0  0  0  0
 11 13  1  0  0  0  0
 11 14  1  0  0  0  0
 11 36  1  0  0  0  0
 12 15  1  0  0  0  0
 12 38  1  0  0  0  0
 12 39  1  0  0  0  0
 13 17  1  0  0  0  0
 13 40  1  0  0  0  0
 13 41  1  0  0  0  0
 14 18  1  0  0  0  0
 14 42  1  0  0  0  0
 14 43  1  0  0  0  0
 15 45  1  0  0  0  0
 15 46  1  0  0  0  0
 16 17  1  0  0  0  0
 16 18  1  0  0  0  0
 16 44  1  0  0  0  0
 17 47  1  0  0  0  0
 17 48  1  0  0  0  0
 18 49  1  0  0  0  0
 18 50  1  0  0  0  0
 19 21  2  0  0  0  0
 20 22  1  0  0  0  0
 20 51  1  0  0  0  0
 21 24  1  0  0  0  0
 21 53  1  0  0  0  0
 22 24  2  0  0  0  0
 22 54  1  0  0  0  0
 24 55  1  0  0  0  0
 25 27  1  0  0  0  0
 25 56  1  0  0  0  0
 25 57  1  0  0  0  0
 26 28  1  0  0  0  0
 26 58  1  0  0  0  0
 26 59  1  0  0  0  0
 27 28  1  0  0  0  0
 27 60  1  0  0  0  0
 27 61  1  0  0  0  0
 28 62  1  0  0  0  0
 28 63  1  0  0  0  0
 29 64  1  0  0  0  0
 29 65  1  0  0  0  0
 29 66  1  0  0  0  0
M  END
> <PUBCHEM_COMPOUND_CID>
164626955

> <PUBCHEM_COMPOUND_CANONICALIZED>
1

> <PUBCHEM_CACTVS_COMPLEXITY>
514

> <PUBCHEM_CACTVS_HBOND_ACCEPTOR>
3

> <PUBCHEM_CACTVS_HBOND_DONOR>
2

> <PUBCHEM_CACTVS_ROTATABLE_BOND>
8

> <PUBCHEM_CACTVS_SUBSKEYS>
AAADcfB7MAAAAAAAAAAAAAAAGAAAAWAAAAAwYAAAAAAAAAABAAAAHgAQAAAADSzBmAYzBoPABACIAiBCEAACCAAgIAAIiIAOCIiMJiKEsRqEMCAs1hOIqAeQ0OIOgAAAAAAIAAAQAAAAABAAAAAAAAAAAA==

> <PUBCHEM_IUPAC_OPENEYE_NAME>
N-[4-[2-[[2-(2-methoxyphenyl)cyclopropyl]methylamino]ethyl]cyclohexyl]pyrrolidine-1-carboxamide

> <PUBCHEM_IUPAC_CAS_NAME>
N-[4-[2-[[2-(2-methoxyphenyl)cyclopropyl]methylamino]ethyl]cyclohexyl]-1-pyrrolidinecarboxamide

> <PUBCHEM_IUPAC_NAME_MARKUP>
<I>N</I>-[4-[2-[[2-(2-methoxyphenyl)cyclopropyl]methylamino]ethyl]cyclohexyl]pyrrolidine-1-carboxamide

> <PUBCHEM_IUPAC_NAME>
N-[4-[2-[[2-(2-methoxyphenyl)cyclopropyl]methylamino]ethyl]cyclohexyl]pyrrolidine-1-carboxamide

> <PUBCHEM_IUPAC_SYSTEMATIC_NAME>
N-[4-[2-[[2-(2-methoxyphenyl)cyclopropyl]methylamino]ethyl]cyclohexyl]pyrrolidine-1-carboxamide

> <PUBCHEM_IUPAC_TRADITIONAL_NAME>
N-[4-[2-[[2-(2-methoxyphenyl)cyclopropyl]methylamino]ethyl]cyclohexyl]pyrrolidine-1-carboxamide

> <PUBCHEM_IUPAC_INCHI>
InChI=1S/C24H37N3O2/c1-29-23-7-3-2-6-21(23)22-16-19(22)17-25-13-12-18-8-10-20(11-9-18)26-24(28)27-14-4-5-15-27/h2-3,6-7,18-20,22,25H,4-5,8-17H2,1H3,(H,26,28)

> <PUBCHEM_IUPAC_INCHIKEY>
LFZXCNYEMUTWJM-UHFFFAOYSA-N

> <PUBCHEM_XLOGP3_AA>
3.6

> <PUBCHEM_EXACT_MASS>
399.28857743

> <PUBCHEM_MOLECULAR_FORMULA>
C24H37N3O2

> <PUBCHEM_MOLECULAR_WEIGHT>
399.6

> <PUBCHEM_OPENEYE_CAN_SMILES>
COC1=CC=CC=C1C2CC2CNCCC3CCC(CC3)NC(=O)N4CCCC4

> <PUBCHEM_OPENEYE_ISO_SMILES>
COC1=CC=CC=C1C2CC2CNCCC3CCC(CC3)NC(=O)N4CCCC4

> <PUBCHEM_CACTVS_TPSA>
53.6

> <PUBCHEM_MONOISOTOPIC_WEIGHT>
399.28857743

> <PUBCHEM_TOTAL_CHARGE>
0

> <PUBCHEM_HEAVY_ATOM_COUNT>
29

> <PUBCHEM_ATOM_DEF_STEREO_COUNT>
0

> <PUBCHEM_ATOM_UDEF_STEREO_COUNT>
2

> <PUBCHEM_BOND_DEF_STEREO_COUNT>
0

> <PUBCHEM_BOND_UDEF_STEREO_COUNT>
0

> <PUBCHEM_ISOTOPIC_ATOM_COUNT>
0

> <PUBCHEM_COMPONENT_COUNT>
1

> <PUBCHEM_CACTVS_TAUTO_COUNT>
-1

> <PUBCHEM_COORDINATE_TYPE>
1
5
255

> <PUBCHEM_BONDANNOTATIONS>
10  19  8
10  20  8
19  21  8
20  22  8
21  24  8
22  24  8
6  9  3
7  10  3

$$$$
