71937057
  -OEChem-09292322402D

 52 54  0     0  0  0  0  0  0999 V2000
    4.5981    3.8656    0.0000 O   0  0  0  0  0  0  0  0  0  0  0  0
    3.7320   -0.6344    0.0000 N   0  0  0  0  0  0  0  0  0  0  0  0
    3.7320   -2.6344    0.0000 N   0  0  0  0  0  0  0  0  0  0  0  0
    5.4641    2.3656    0.0000 N   0  0  0  0  0  0  0  0  0  0  0  0
    7.4128    5.0680    0.0000 N   0  0  0  0  0  0  0  0  0  0  0  0
    7.9128    4.2020    0.0000 N   0  0  0  0  0  0  0  0  0  0  0  0
    4.5981   -1.1344    0.0000 C   0  0  0  0  0  0  0  0  0  0  0  0
    2.8660   -1.1344    0.0000 C   0  0  0  0  0  0  0  0  0  0  0  0
    4.5981   -2.1344    0.0000 C   0  0  0  0  0  0  0  0  0  0  0  0
    2.8660   -2.1344    0.0000 C   0  0  0  0  0  0  0  0  0  0  0  0
    3.7320    0.3656    0.0000 C   0  0  0  0  0  0  0  0  0  0  0  0
    4.5981    0.8656    0.0000 C   0  0  0  0  0  0  0  0  0  0  0  0
    3.7320   -3.6344    0.0000 C   0  0  0  0  0  0  0  0  0  0  0  0
    4.5981    1.8656    0.0000 C   0  0  0  0  0  0  0  0  0  0  0  0
    2.8660   -4.1344    0.0000 C   0  0  0  0  0  0  0  0  0  0  0  0
    4.5981   -4.1344    0.0000 C   0  0  0  0  0  0  0  0  0  0  0  0
    2.8660   -5.1344    0.0000 C   0  0  0  0  0  0  0  0  0  0  0  0
    4.5981   -5.1344    0.0000 C   0  0  0  0  0  0  0  0  0  0  0  0
    3.7320   -5.6344    0.0000 C   0  0  0  0  0  0  0  0  0  0  0  0
    5.4641    3.3656    0.0000 C   0  0  0  0  0  0  0  0  0  0  0  0
    2.0000   -5.6344    0.0000 C   0  0  0  0  0  0  0  0  0  0  0  0
    6.3301    3.8656    0.0000 C   0  0  0  0  0  0  0  0  0  0  0  0
    6.4347    4.8601    0.0000 C   0  0  0  0  0  0  0  0  0  0  0  0
    7.2437    3.4588    0.0000 C   0  0  0  0  0  0  0  0  0  0  0  0
    5.6915    5.5292    0.0000 C   0  0  0  0  0  0  0  0  0  0  0  0
    5.2087   -1.2421    0.0000 H   0  0  0  0  0  0  0  0  0  0  0  0
    4.8101   -0.5518    0.0000 H   0  0  0  0  0  0  0  0  0  0  0  0
    2.6540   -0.5518    0.0000 H   0  0  0  0  0  0  0  0  0  0  0  0
    2.2554   -1.2421    0.0000 H   0  0  0  0  0  0  0  0  0  0  0  0
    4.8101   -2.7170    0.0000 H   0  0  0  0  0  0  0  0  0  0  0  0
    5.2087   -2.0268    0.0000 H   0  0  0  0  0  0  0  0  0  0  0  0
    2.2554   -2.0268    0.0000 H   0  0  0  0  0  0  0  0  0  0  0  0
    2.6540   -2.7170    0.0000 H   0  0  0  0  0  0  0  0  0  0  0  0
    3.5200    0.9482    0.0000 H   0  0  0  0  0  0  0  0  0  0  0  0
    3.1215    0.2579    0.0000 H   0  0  0  0  0  0  0  0  0  0  0  0
    4.8101    0.2830    0.0000 H   0  0  0  0  0  0  0  0  0  0  0  0
    5.2087    0.9732    0.0000 H   0  0  0  0  0  0  0  0  0  0  0  0
    4.3860    2.4482    0.0000 H   0  0  0  0  0  0  0  0  0  0  0  0
    3.9875    1.7579    0.0000 H   0  0  0  0  0  0  0  0  0  0  0  0
    2.3291   -3.8244    0.0000 H   0  0  0  0  0  0  0  0  0  0  0  0
    5.1350   -3.8244    0.0000 H   0  0  0  0  0  0  0  0  0  0  0  0
    6.0010    2.0556    0.0000 H   0  0  0  0  0  0  0  0  0  0  0  0
    5.1350   -5.4444    0.0000 H   0  0  0  0  0  0  0  0  0  0  0  0
    3.7320   -6.2544    0.0000 H   0  0  0  0  0  0  0  0  0  0  0  0
    1.6900   -5.0975    0.0000 H   0  0  0  0  0  0  0  0  0  0  0  0
    1.4631   -5.9444    0.0000 H   0  0  0  0  0  0  0  0  0  0  0  0
    2.3100   -6.1714    0.0000 H   0  0  0  0  0  0  0  0  0  0  0  0
    7.3726    2.8524    0.0000 H   0  0  0  0  0  0  0  0  0  0  0  0
    7.6650    5.6344    0.0000 H   0  0  0  0  0  0  0  0  0  0  0  0
    6.1064    5.9900    0.0000 H   0  0  0  0  0  0  0  0  0  0  0  0
    5.2308    5.9441    0.0000 H   0  0  0  0  0  0  0  0  0  0  0  0
    5.2766    5.0685    0.0000 H   0  0  0  0  0  0  0  0  0  0  0  0
  1 20  2  0  0  0  0
  2  7  1  0  0  0  0
  2  8  1  0  0  0  0
  2 11  1  0  0  0  0
  3  9  1  0  0  0  0
  3 10  1  0  0  0  0
  3 13  1  0  0  0  0
  4 14  1  0  0  0  0
  4 20  1  0  0  0  0
  4 42  1  0  0  0  0
  5  6  1  0  0  0  0
  5 23  1  0  0  0  0
  5 49  1  0  0  0  0
  6 24  2  0  0  0  0
  7  9  1  0  0  0  0
  7 26  1  0  0  0  0
  7 27  1  0  0  0  0
  8 10  1  0  0  0  0
  8 28  1  0  0  0  0
  8 29  1  0  0  0  0
  9 30  1  0  0  0  0
  9 31  1  0  0  0  0
 10 32  1  0  0  0  0
 10 33  1  0  0  0  0
 11 12  1  0  0  0  0
 11 34  1  0  0  0  0
 11 35  1  0  0  0  0
 12 14  1  0  0  0  0
 12 36  1  0  0  0  0
 12 37  1  0  0  0  0
 13 15  1  0  0  0  0
 13 16  2  0  0  0  0
 14 38  1  0  0  0  0
 14 39  1  0  0  0  0
 15 17  2  0  0  0  0
 15 40  1  0  0  0  0
 16 18  1  0  0  0  0
 16 41  1  0  0  0  0
 17 19  1  0  0  0  0
 17 21  1  0  0  0  0
 18 19  2  0  0  0  0
 18 43  1  0  0  0  0
 19 44  1  0  0  0  0
 20 22  1  0  0  0  0
 21 45  1  0  0  0  0
 21 46  1  0  0  0  0
 21 47  1  0  0  0  0
 22 23  2  0  0  0  0
 22 24  1  0  0  0  0
 23 25  1  0  0  0  0
 24 48  1  0  0  0  0
 25 50  1  0  0  0  0
 25 51  1  0  0  0  0
 25 52  1  0  0  0  0
M  END
> <PUBCHEM_COMPOUND_CID>
71937057

> <PUBCHEM_COMPOUND_CANONICALIZED>
1

> <PUBCHEM_CACTVS_COMPLEXITY>
424

> <PUBCHEM_CACTVS_HBOND_ACCEPTOR>
4

> <PUBCHEM_CACTVS_HBOND_DONOR>
2

> <PUBCHEM_CACTVS_ROTATABLE_BOND>
6

> <PUBCHEM_CACTVS_SUBSKEYS>
AAADceB7oAAAAAAAAAAAAAAAAAAAAWAAAAA8QAAAAAAAAAABwAAAHgAYAAAADAjBngQ+wJPjAACqAzV3UACSBAAlggAYuaE4ZNgIYLrA0dGUpYhgngDIyccQgAAOAAAAQAAAAAAAAACAAAAAAAAAAAAAAA==

> <PUBCHEM_IUPAC_OPENEYE_NAME>
5-methyl-N-[3-[4-(m-tolyl)piperazin-1-yl]propyl]-1H-pyrazole-4-carboxamide

> <PUBCHEM_IUPAC_CAS_NAME>
5-methyl-N-[3-[4-(3-methylphenyl)-1-piperazinyl]propyl]-1H-pyrazole-4-carboxamide

> <PUBCHEM_IUPAC_NAME_MARKUP>
5-methyl-<I>N</I>-[3-[4-(3-methylphenyl)piperazin-1-yl]propyl]-1<I>H</I>-pyrazole-4-carboxamide

> <PUBCHEM_IUPAC_NAME>
5-methyl-N-[3-[4-(3-methylphenyl)piperazin-1-yl]propyl]-1H-pyrazole-4-carboxamide

> <PUBCHEM_IUPAC_SYSTEMATIC_NAME>
5-methyl-N-[3-[4-(3-methylphenyl)piperazin-1-yl]propyl]-1H-pyrazole-4-carboxamide

> <PUBCHEM_IUPAC_TRADITIONAL_NAME>
5-methyl-N-[3-[4-(m-tolyl)piperazino]propyl]-1H-pyrazole-4-carboxamide

> <PUBCHEM_IUPAC_INCHI>
InChI=1S/C19H27N5O/c1-15-5-3-6-17(13-15)24-11-9-23(10-12-24)8-4-7-20-19(25)18-14-21-22-16(18)2/h3,5-6,13-14H,4,7-12H2,1-2H3,(H,20,25)(H,21,22)

> <PUBCHEM_IUPAC_INCHIKEY>
MKLCNRHAJGACTJ-UHFFFAOYSA-N

> <PUBCHEM_XLOGP3_AA>
2.2

> <PUBCHEM_EXACT_MASS>
341.22156050

> <PUBCHEM_MOLECULAR_FORMULA>
C19H27N5O

> <PUBCHEM_MOLECULAR_WEIGHT>
341.5

> <PUBCHEM_OPENEYE_CAN_SMILES>
CC1=CC(=CC=C1)N2CCN(CC2)CCCNC(=O)C3=C(NN=C3)C

> <PUBCHEM_OPENEYE_ISO_SMILES>
CC1=CC(=CC=C1)N2CCN(CC2)CCCNC(=O)C3=C(NN=C3)C

> <PUBCHEM_CACTVS_TPSA>
64.3

> <PUBCHEM_MONOISOTOPIC_WEIGHT>
341.22156050

> <PUBCHEM_TOTAL_CHARGE>
0

> <PUBCHEM_HEAVY_ATOM_COUNT>
25

> <PUBCHEM_ATOM_DEF_STEREO_COUNT>
0

> <PUBCHEM_ATOM_UDEF_STEREO_COUNT>
0

> <PUBCHEM_BOND_DEF_STEREO_COUNT>
0

> <PUBCHEM_BOND_UDEF_STEREO_COUNT>
0

> <PUBCHEM_ISOTOPIC_ATOM_COUNT>
0

> <PUBCHEM_COMPONENT_COUNT>
1

> <PUBCHEM_CACTVS_TAUTO_COUNT>
-1

> <PUBCHEM_COORDINATE_TYPE>
1
5
255

> <PUBCHEM_BONDANNOTATIONS>
13  15  8
13  16  8
15  17  8
16  18  8
17  19  8
18  19  8
22  23  8
22  24  8
5  23  8
5  6  8
6  24  8

$$$$
