71658076
  -OEChem-09292322332D

 66 69  0     1  0  0  0  0  0999 V2000
    4.6698    4.2396    0.0000 S   0  0  0  0  0  0  0  0  0  0  0  0
    2.8660   -5.9142    0.0000 O   0  0  0  0  0  0  0  0  0  0  0  0
    3.7126    2.3833    0.0000 O   0  0  0  0  0  0  0  0  0  0  0  0
    5.0981   -2.7236    0.0000 N   0  0  3  0  0  0  0  0  0  0  0  0
    4.5981   -4.9142    0.0000 N   0  0  3  0  0  0  0  0  0  0  0  0
    5.2731    1.6318    0.0000 N   0  0  0  0  0  0  0  0  0  0  0  0
    4.0981   -2.7236    0.0000 C   0  0  0  0  0  0  0  0  0  0  0  0
    5.7216   -3.5054    0.0000 C   0  0  0  0  0  0  0  0  0  0  0  0
    3.4746   -3.5054    0.0000 C   0  0  0  0  0  0  0  0  0  0  0  0
    5.4990   -4.4803    0.0000 C   0  0  0  0  0  0  0  0  0  0  0  0
    3.6971   -4.4803    0.0000 C   0  0  0  0  0  0  0  0  0  0  0  0
    5.5320   -1.8226    0.0000 C   0  0  0  0  0  0  0  0  0  0  0  0
    4.9686   -0.9964    0.0000 C   0  0  0  0  0  0  0  0  0  0  0  0
    4.5981   -5.9142    0.0000 C   0  0  0  0  0  0  0  0  0  0  0  0
    5.4025   -0.0954    0.0000 C   0  0  0  0  0  0  0  0  0  0  0  0
    4.8392    0.7309    0.0000 C   0  0  0  0  0  0  0  0  0  0  0  0
    3.7320   -6.4142    0.0000 C   0  0  0  0  0  0  0  0  0  0  0  0
    5.4641   -6.4142    0.0000 C   0  0  0  0  0  0  0  0  0  0  0  0
    3.7320   -7.4142    0.0000 C   0  0  0  0  0  0  0  0  0  0  0  0
    5.4641   -7.4142    0.0000 C   0  0  0  0  0  0  0  0  0  0  0  0
    4.5981   -7.9142    0.0000 C   0  0  0  0  0  0  0  0  0  0  0  0
    4.7098    2.4581    0.0000 C   0  0  0  0  0  0  0  0  0  0  0  0
    2.0000   -6.4142    0.0000 C   0  0  0  0  0  0  0  0  0  0  0  0
    5.1436    3.3590    0.0000 C   0  0  0  0  0  0  0  0  0  0  0  0
    6.1276    3.5376    0.0000 C   0  0  0  0  0  0  0  0  0  0  0  0
    5.3608    4.9624    0.0000 C   0  0  0  0  0  0  0  0  0  0  0  0
    6.2618    4.5285    0.0000 C   0  0  0  0  0  0  0  0  0  0  0  0
    5.1823    5.9464    0.0000 C   0  0  0  0  0  0  0  0  0  0  0  0
    4.2409    6.2837    0.0000 C   0  0  0  0  0  0  0  0  0  0  0  0
    5.9451    6.5930    0.0000 C   0  0  0  0  0  0  0  0  0  0  0  0
    4.0623    7.2676    0.0000 C   0  0  0  0  0  0  0  0  0  0  0  0
    5.7666    7.5769    0.0000 C   0  0  0  0  0  0  0  0  0  0  0  0
    4.8252    7.9142    0.0000 C   0  0  0  0  0  0  0  0  0  0  0  0
    4.2360   -2.1191    0.0000 H   0  0  0  0  0  0  0  0  0  0  0  0
    3.5395   -2.4546    0.0000 H   0  0  0  0  0  0  0  0  0  0  0  0
    6.2802   -3.7744    0.0000 H   0  0  0  0  0  0  0  0  0  0  0  0
    6.1081   -3.0207    0.0000 H   0  0  0  0  0  0  0  0  0  0  0  0
    3.0880   -3.0207    0.0000 H   0  0  0  0  0  0  0  0  0  0  0  0
    2.9160   -3.7744    0.0000 H   0  0  0  0  0  0  0  0  0  0  0  0
    5.6370   -5.0848    0.0000 H   0  0  0  0  0  0  0  0  0  0  0  0
    6.1190   -4.4803    0.0000 H   0  0  0  0  0  0  0  0  0  0  0  0
    3.0771   -4.4803    0.0000 H   0  0  0  0  0  0  0  0  0  0  0  0
    3.5591   -5.0848    0.0000 H   0  0  0  0  0  0  0  0  0  0  0  0
    6.0354   -2.1845    0.0000 H   0  0  0  0  0  0  0  0  0  0  0  0
    5.9758   -1.3897    0.0000 H   0  0  0  0  0  0  0  0  0  0  0  0
    4.4652   -0.6344    0.0000 H   0  0  0  0  0  0  0  0  0  0  0  0
    4.5248   -1.4293    0.0000 H   0  0  0  0  0  0  0  0  0  0  0  0
    5.9059   -0.4573    0.0000 H   0  0  0  0  0  0  0  0  0  0  0  0
    5.8464    0.3375    0.0000 H   0  0  0  0  0  0  0  0  0  0  0  0
    4.3358    1.0928    0.0000 H   0  0  0  0  0  0  0  0  0  0  0  0
    4.3954    0.2979    0.0000 H   0  0  0  0  0  0  0  0  0  0  0  0
    6.0010   -6.1042    0.0000 H   0  0  0  0  0  0  0  0  0  0  0  0
    3.1951   -7.7242    0.0000 H   0  0  0  0  0  0  0  0  0  0  0  0
    6.0010   -7.7242    0.0000 H   0  0  0  0  0  0  0  0  0  0  0  0
    5.8914    1.6782    0.0000 H   0  0  0  0  0  0  0  0  0  0  0  0
    4.5981   -8.5342    0.0000 H   0  0  0  0  0  0  0  0  0  0  0  0
    1.6900   -5.8773    0.0000 H   0  0  0  0  0  0  0  0  0  0  0  0
    1.4631   -6.7242    0.0000 H   0  0  0  0  0  0  0  0  0  0  0  0
    2.3100   -6.9511    0.0000 H   0  0  0  0  0  0  0  0  0  0  0  0
    6.5757    3.1091    0.0000 H   0  0  0  0  0  0  0  0  0  0  0  0
    6.8078    4.8223    0.0000 H   0  0  0  0  0  0  0  0  0  0  0  0
    3.7680    5.8828    0.0000 H   0  0  0  0  0  0  0  0  0  0  0  0
    6.5288    6.3838    0.0000 H   0  0  0  0  0  0  0  0  0  0  0  0
    3.4787    7.4768    0.0000 H   0  0  0  0  0  0  0  0  0  0  0  0
    6.2395    7.9778    0.0000 H   0  0  0  0  0  0  0  0  0  0  0  0
    4.7145    8.5242    0.0000 H   0  0  0  0  0  0  0  0  0  0  0  0
  1 24  1  0  0  0  0
  1 26  1  0  0  0  0
  2 17  1  0  0  0  0
  2 23  1  0  0  0  0
  3 22  2  0  0  0  0
  4  7  1  0  0  0  0
  4  8  1  0  0  0  0
  4 12  1  0  0  0  0
  5 10  1  0  0  0  0
  5 11  1  0  0  0  0
  5 14  1  0  0  0  0
  6 16  1  0  0  0  0
  6 22  1  0  0  0  0
  6 55  1  0  0  0  0
  7  9  1  0  0  0  0
  7 34  1  0  0  0  0
  7 35  1  0  0  0  0
  8 10  1  0  0  0  0
  8 36  1  0  0  0  0
  8 37  1  0  0  0  0
  9 11  1  0  0  0  0
  9 38  1  0  0  0  0
  9 39  1  0  0  0  0
 10 40  1  0  0  0  0
 10 41  1  0  0  0  0
 11 42  1  0  0  0  0
 11 43  1  0  0  0  0
 12 13  1  0  0  0  0
 12 44  1  0  0  0  0
 12 45  1  0  0  0  0
 13 15  1  0  0  0  0
 13 46  1  0  0  0  0
 13 47  1  0  0  0  0
 14 17  1  0  0  0  0
 14 18  2  0  0  0  0
 15 16  1  0  0  0  0
 15 48  1  0  0  0  0
 15 49  1  0  0  0  0
 16 50  1  0  0  0  0
 16 51  1  0  0  0  0
 17 19  2  0  0  0  0
 18 20  1  0  0  0  0
 18 52  1  0  0  0  0
 19 21  1  0  0  0  0
 19 53  1  0  0  0  0
 20 21  2  0  0  0  0
 20 54  1  0  0  0  0
 21 56  1  0  0  0  0
 22 24  1  0  0  0  0
 23 57  1  0  0  0  0
 23 58  1  0  0  0  0
 23 59  1  0  0  0  0
 24 25  2  0  0  0  0
 25 27  1  0  0  0  0
 25 60  1  0  0  0  0
 26 27  2  0  0  0  0
 26 28  1  0  0  0  0
 27 61  1  0  0  0  0
 28 29  2  0  0  0  0
 28 30  1  0  0  0  0
 29 31  1  0  0  0  0
 29 62  1  0  0  0  0
 30 32  2  0  0  0  0
 30 63  1  0  0  0  0
 31 33  2  0  0  0  0
 31 64  1  0  0  0  0
 32 33  1  0  0  0  0
 32 65  1  0  0  0  0
 33 66  1  0  0  0  0
M  END
> <PUBCHEM_COMPOUND_CID>
71658076

> <PUBCHEM_COMPOUND_CANONICALIZED>
1

> <PUBCHEM_CACTVS_COMPLEXITY>
586

> <PUBCHEM_CACTVS_HBOND_ACCEPTOR>
5

> <PUBCHEM_CACTVS_HBOND_DONOR>
1

> <PUBCHEM_CACTVS_ROTATABLE_BOND>
9

> <PUBCHEM_CACTVS_SUBSKEYS>
AAADcfB7MABAAAAAAAAAAAAAAAAAASAAAAAwYAAABYAAAAAB0AAAHgQQAAAADAzB2AYyx4PABAiMAiVSUACDCIAlKhBIiJkPbMgOZjLk9ZuVMShk1hH46YeYyMCOAAAAAAAAEAAAAAAAAAAgAAAAAAAAAA==

> <PUBCHEM_IUPAC_OPENEYE_NAME>
N-[4-[4-(2-methoxyphenyl)-1,4-diazepan-1-yl]butyl]-5-phenyl-thiophene-2-carboxamide

> <PUBCHEM_IUPAC_CAS_NAME>
N-[4-[4-(2-methoxyphenyl)-1,4-diazepan-1-yl]butyl]-5-phenyl-2-thiophenecarboxamide

> <PUBCHEM_IUPAC_NAME_MARKUP>
<I>N</I>-[4-[4-(2-methoxyphenyl)-1,4-diazepan-1-yl]butyl]-5-phenylthiophene-2-carboxamide

> <PUBCHEM_IUPAC_NAME>
N-[4-[4-(2-methoxyphenyl)-1,4-diazepan-1-yl]butyl]-5-phenylthiophene-2-carboxamide

> <PUBCHEM_IUPAC_SYSTEMATIC_NAME>
N-[4-[4-(2-methoxyphenyl)-1,4-diazepan-1-yl]butyl]-5-phenyl-thiophene-2-carboxamide

> <PUBCHEM_IUPAC_TRADITIONAL_NAME>
N-[4-[4-(2-methoxyphenyl)-1,4-diazepan-1-yl]butyl]-5-phenyl-thiophene-2-carboxamide

> <PUBCHEM_IUPAC_INCHI>
InChI=1S/C27H33N3O2S/c1-32-24-13-6-5-12-23(24)30-19-9-18-29(20-21-30)17-8-7-16-28-27(31)26-15-14-25(33-26)22-10-3-2-4-11-22/h2-6,10-15H,7-9,16-21H2,1H3,(H,28,31)

> <PUBCHEM_IUPAC_INCHIKEY>
FHXDBZHSFZNQBN-UHFFFAOYSA-N

> <PUBCHEM_XLOGP3_AA>
5.5

> <PUBCHEM_EXACT_MASS>
463.22934848

> <PUBCHEM_MOLECULAR_FORMULA>
C27H33N3O2S

> <PUBCHEM_MOLECULAR_WEIGHT>
463.6

> <PUBCHEM_OPENEYE_CAN_SMILES>
COC1=CC=CC=C1N2CCCN(CC2)CCCCNC(=O)C3=CC=C(S3)C4=CC=CC=C4

> <PUBCHEM_OPENEYE_ISO_SMILES>
COC1=CC=CC=C1N2CCCN(CC2)CCCCNC(=O)C3=CC=C(S3)C4=CC=CC=C4

> <PUBCHEM_CACTVS_TPSA>
73

> <PUBCHEM_MONOISOTOPIC_WEIGHT>
463.22934848

> <PUBCHEM_TOTAL_CHARGE>
0

> <PUBCHEM_HEAVY_ATOM_COUNT>
33

> <PUBCHEM_ATOM_DEF_STEREO_COUNT>
0

> <PUBCHEM_ATOM_UDEF_STEREO_COUNT>
0

> <PUBCHEM_BOND_DEF_STEREO_COUNT>
0

> <PUBCHEM_BOND_UDEF_STEREO_COUNT>
0

> <PUBCHEM_ISOTOPIC_ATOM_COUNT>
0

> <PUBCHEM_COMPONENT_COUNT>
1

> <PUBCHEM_CACTVS_TAUTO_COUNT>
-1

> <PUBCHEM_COORDINATE_TYPE>
1
5
255

> <PUBCHEM_BONDANNOTATIONS>
1  24  8
1  26  8
14  17  8
14  18  8
17  19  8
18  20  8
19  21  8
20  21  8
24  25  8
25  27  8
26  27  8
28  29  8
28  30  8
29  31  8
30  32  8
31  33  8
32  33  8

$$$$
