9933550
  -OEChem-09292322152D

 67 71  0     1  0  0  0  0  0999 V2000
    7.0693   -1.6038    0.0000 O   0  0  0  0  0  0  0  0  0  0  0  0
   12.5693    0.9943    0.0000 N   0  0  3  0  0  0  0  0  0  0  0  0
    7.0693    0.1283    0.0000 N   0  0  0  0  0  0  0  0  0  0  0  0
   18.2881    2.5218    0.0000 N   0  0  0  0  0  0  0  0  0  0  0  0
   10.0693    0.1283    0.0000 C   0  0  0  0  0  0  0  0  0  0  0  0
    9.5693   -0.7377    0.0000 C   0  0  0  0  0  0  0  0  0  0  0  0
    9.5693    0.9943    0.0000 C   0  0  0  0  0  0  0  0  0  0  0  0
    8.0693    0.1283    0.0000 C   0  0  0  0  0  0  0  0  0  0  0  0
    8.5693   -0.7377    0.0000 C   0  0  0  0  0  0  0  0  0  0  0  0
    8.5693    0.9943    0.0000 C   0  0  0  0  0  0  0  0  0  0  0  0
   11.0693    0.1283    0.0000 C   0  0  0  0  0  0  0  0  0  0  0  0
   11.5693    0.9943    0.0000 C   0  0  0  0  0  0  0  0  0  0  0  0
   13.0031    1.8953    0.0000 C   0  0  0  0  0  0  0  0  0  0  0  0
   13.0031    0.0933    0.0000 C   0  0  0  0  0  0  0  0  0  0  0  0
   13.9781    2.1178    0.0000 C   0  0  0  0  0  0  0  0  0  0  0  0
   13.9781   -0.1292    0.0000 C   0  0  0  0  0  0  0  0  0  0  0  0
   14.7599    1.4943    0.0000 C   0  0  0  0  0  0  0  0  0  0  0  0
   14.7599    0.4943    0.0000 C   0  0  0  0  0  0  0  0  0  0  0  0
    6.5693   -0.7377    0.0000 C   0  0  0  0  0  0  0  0  0  0  0  0
   15.6538    2.0290    0.0000 C   0  0  0  0  0  0  0  0  0  0  0  0
   15.6538   -0.0403    0.0000 C   0  0  0  0  0  0  0  0  0  0  0  0
    5.5693   -0.7377    0.0000 C   0  0  0  0  0  0  0  0  0  0  0  0
   16.5599    1.5151    0.0000 C   0  0  0  0  0  0  0  0  0  0  0  0
   16.5599    0.4735    0.0000 C   0  0  0  0  0  0  0  0  0  0  0  0
    5.0693   -1.6038    0.0000 C   0  0  0  0  0  0  0  0  0  0  0  0
    5.0693    0.1283    0.0000 C   0  0  0  0  0  0  0  0  0  0  0  0
    4.0693   -1.6038    0.0000 C   0  0  0  0  0  0  0  0  0  0  0  0
    4.0693    0.1283    0.0000 C   0  0  0  0  0  0  0  0  0  0  0  0
    3.5693   -0.7377    0.0000 C   0  0  0  0  0  0  0  0  0  0  0  0
   17.4240    2.0185    0.0000 C   0  0  0  0  0  0  0  0  0  0  0  0
    3.5624   -2.5138    0.0000 C   0  0  0  0  0  0  0  0  0  0  0  0
    2.5278   -0.7217    0.0000 C   0  0  0  0  0  0  0  0  0  0  0  0
    2.5208   -2.5218    0.0000 C   0  0  0  0  0  0  0  0  0  0  0  0
    2.0000   -1.6197    0.0000 C   0  0  0  0  0  0  0  0  0  0  0  0
   10.3793    0.6652    0.0000 H   0  0  0  0  0  0  0  0  0  0  0  0
    9.4616   -1.3483    0.0000 H   0  0  0  0  0  0  0  0  0  0  0  0
   10.1519   -0.9498    0.0000 H   0  0  0  0  0  0  0  0  0  0  0  0
   10.1519    1.2064    0.0000 H   0  0  0  0  0  0  0  0  0  0  0  0
    9.4616    1.6049    0.0000 H   0  0  0  0  0  0  0  0  0  0  0  0
    7.7593    0.6652    0.0000 H   0  0  0  0  0  0  0  0  0  0  0  0
    7.9866   -0.9498    0.0000 H   0  0  0  0  0  0  0  0  0  0  0  0
    8.6769   -1.3483    0.0000 H   0  0  0  0  0  0  0  0  0  0  0  0
    8.6769    1.6049    0.0000 H   0  0  0  0  0  0  0  0  0  0  0  0
    7.9866    1.2064    0.0000 H   0  0  0  0  0  0  0  0  0  0  0  0
   10.9616   -0.4823    0.0000 H   0  0  0  0  0  0  0  0  0  0  0  0
   11.6519   -0.0838    0.0000 H   0  0  0  0  0  0  0  0  0  0  0  0
   11.6769    1.6049    0.0000 H   0  0  0  0  0  0  0  0  0  0  0  0
   10.9867    1.2064    0.0000 H   0  0  0  0  0  0  0  0  0  0  0  0
    6.7593    0.6652    0.0000 H   0  0  0  0  0  0  0  0  0  0  0  0
   13.0031    2.5153    0.0000 H   0  0  0  0  0  0  0  0  0  0  0  0
   12.3987    2.0332    0.0000 H   0  0  0  0  0  0  0  0  0  0  0  0
   12.3987   -0.0446    0.0000 H   0  0  0  0  0  0  0  0  0  0  0  0
   13.0031   -0.5267    0.0000 H   0  0  0  0  0  0  0  0  0  0  0  0
   14.4628    2.5044    0.0000 H   0  0  0  0  0  0  0  0  0  0  0  0
   13.7091    2.6764    0.0000 H   0  0  0  0  0  0  0  0  0  0  0  0
   13.7091   -0.6878    0.0000 H   0  0  0  0  0  0  0  0  0  0  0  0
   14.4628   -0.5157    0.0000 H   0  0  0  0  0  0  0  0  0  0  0  0
   15.6467    2.6489    0.0000 H   0  0  0  0  0  0  0  0  0  0  0  0
   15.6467   -0.6603    0.0000 H   0  0  0  0  0  0  0  0  0  0  0  0
   17.0956    0.1614    0.0000 H   0  0  0  0  0  0  0  0  0  0  0  0
    5.3793   -2.1407    0.0000 H   0  0  0  0  0  0  0  0  0  0  0  0
    5.3793    0.6652    0.0000 H   0  0  0  0  0  0  0  0  0  0  0  0
    3.7593    0.6652    0.0000 H   0  0  0  0  0  0  0  0  0  0  0  0
    3.8786   -3.0471    0.0000 H   0  0  0  0  0  0  0  0  0  0  0  0
    2.2240   -0.1812    0.0000 H   0  0  0  0  0  0  0  0  0  0  0  0
    2.2129   -3.0599    0.0000 H   0  0  0  0  0  0  0  0  0  0  0  0
    1.3800   -1.6173    0.0000 H   0  0  0  0  0  0  0  0  0  0  0  0
  1 19  2  0  0  0  0
  2 12  1  0  0  0  0
  2 13  1  0  0  0  0
  2 14  1  0  0  0  0
  3  8  1  0  0  0  0
  3 19  1  0  0  0  0
  3 49  1  0  0  0  0
  4 30  3  0  0  0  0
  5  6  1  0  0  0  0
  5  7  1  0  0  0  0
  5 11  1  0  0  0  0
  5 35  1  0  0  0  0
  6  9  1  0  0  0  0
  6 36  1  0  0  0  0
  6 37  1  0  0  0  0
  7 10  1  0  0  0  0
  7 38  1  0  0  0  0
  7 39  1  0  0  0  0
  8  9  1  0  0  0  0
  8 10  1  0  0  0  0
  8 40  1  0  0  0  0
  9 41  1  0  0  0  0
  9 42  1  0  0  0  0
 10 43  1  0  0  0  0
 10 44  1  0  0  0  0
 11 12  1  0  0  0  0
 11 45  1  0  0  0  0
 11 46  1  0  0  0  0
 12 47  1  0  0  0  0
 12 48  1  0  0  0  0
 13 15  1  0  0  0  0
 13 50  1  0  0  0  0
 13 51  1  0  0  0  0
 14 16  1  0  0  0  0
 14 52  1  0  0  0  0
 14 53  1  0  0  0  0
 15 17  1  0  0  0  0
 15 54  1  0  0  0  0
 15 55  1  0  0  0  0
 16 18  1  0  0  0  0
 16 56  1  0  0  0  0
 16 57  1  0  0  0  0
 17 18  2  0  0  0  0
 17 20  1  0  0  0  0
 18 21  1  0  0  0  0
 19 22  1  0  0  0  0
 20 23  2  0  0  0  0
 20 58  1  0  0  0  0
 21 24  2  0  0  0  0
 21 59  1  0  0  0  0
 22 25  2  0  0  0  0
 22 26  1  0  0  0  0
 23 24  1  0  0  0  0
 23 30  1  0  0  0  0
 24 60  1  0  0  0  0
 25 27  1  0  0  0  0
 25 61  1  0  0  0  0
 26 28  2  0  0  0  0
 26 62  1  0  0  0  0
 27 29  1  0  0  0  0
 27 31  2  0  0  0  0
 28 29  1  0  0  0  0
 28 63  1  0  0  0  0
 29 32  2  0  0  0  0
 31 33  1  0  0  0  0
 31 64  1  0  0  0  0
 32 34  1  0  0  0  0
 32 65  1  0  0  0  0
 33 34  2  0  0  0  0
 33 66  1  0  0  0  0
 34 67  1  0  0  0  0
M  END
> <PUBCHEM_COMPOUND_CID>
9933550

> <PUBCHEM_COMPOUND_CANONICALIZED>
1

> <PUBCHEM_CACTVS_COMPLEXITY>
720

> <PUBCHEM_CACTVS_HBOND_ACCEPTOR>
3

> <PUBCHEM_CACTVS_HBOND_DONOR>
1

> <PUBCHEM_CACTVS_ROTATABLE_BOND>
5

> <PUBCHEM_CACTVS_SUBSKEYS>
AAADcfB7IAAAAAAAAAAAAAAAAAAAAAAAAAAwYMGABYAAAADBVAAAHgAQAAAADSjBmAQwAMPAAACYBiFSEACiAAAkAAAIiIEIBMgIoDKAlRGEIQhglgCIiY8YiMCOwAACAAAQAACQAAQAACAAAAAAAAAAAA==

> <PUBCHEM_IUPAC_OPENEYE_NAME>
N-[4-[2-(7-cyano-1,2,4,5-tetrahydro-3-benzazepin-3-yl)ethyl]cyclohexyl]naphthalene-2-carboxamide

> <PUBCHEM_IUPAC_CAS_NAME>
N-[4-[2-(7-cyano-1,2,4,5-tetrahydro-3-benzazepin-3-yl)ethyl]cyclohexyl]-2-naphthalenecarboxamide

> <PUBCHEM_IUPAC_NAME_MARKUP>
<I>N</I>-[4-[2-(7-cyano-1,2,4,5-tetrahydro-3-benzazepin-3-yl)ethyl]cyclohexyl]naphthalene-2-carboxamide

> <PUBCHEM_IUPAC_NAME>
N-[4-[2-(7-cyano-1,2,4,5-tetrahydro-3-benzazepin-3-yl)ethyl]cyclohexyl]naphthalene-2-carboxamide

> <PUBCHEM_IUPAC_SYSTEMATIC_NAME>
N-[4-[2-(7-cyano-1,2,4,5-tetrahydro-3-benzazepin-3-yl)ethyl]cyclohexyl]naphthalene-2-carboxamide

> <PUBCHEM_IUPAC_TRADITIONAL_NAME>
N-[4-[2-(7-cyano-1,2,4,5-tetrahydro-3-benzazepin-3-yl)ethyl]cyclohexyl]-2-naphthamide

> <PUBCHEM_IUPAC_INCHI>
InChI=1S/C30H33N3O/c31-21-23-5-8-25-14-17-33(18-15-27(25)19-23)16-13-22-6-11-29(12-7-22)32-30(34)28-10-9-24-3-1-2-4-26(24)20-28/h1-5,8-10,19-20,22,29H,6-7,11-18H2,(H,32,34)

> <PUBCHEM_IUPAC_INCHIKEY>
AOMCGXSEEARDEI-UHFFFAOYSA-N

> <PUBCHEM_XLOGP3_AA>
6.1

> <PUBCHEM_EXACT_MASS>
451.262362685

> <PUBCHEM_MOLECULAR_FORMULA>
C30H33N3O

> <PUBCHEM_MOLECULAR_WEIGHT>
451.6

> <PUBCHEM_OPENEYE_CAN_SMILES>
C1CC(CCC1CCN2CCC3=C(CC2)C=C(C=C3)C#N)NC(=O)C4=CC5=CC=CC=C5C=C4

> <PUBCHEM_OPENEYE_ISO_SMILES>
C1CC(CCC1CCN2CCC3=C(CC2)C=C(C=C3)C#N)NC(=O)C4=CC5=CC=CC=C5C=C4

> <PUBCHEM_CACTVS_TPSA>
56.1

> <PUBCHEM_MONOISOTOPIC_WEIGHT>
451.262362685

> <PUBCHEM_TOTAL_CHARGE>
0

> <PUBCHEM_HEAVY_ATOM_COUNT>
34

> <PUBCHEM_ATOM_DEF_STEREO_COUNT>
0

> <PUBCHEM_ATOM_UDEF_STEREO_COUNT>
0

> <PUBCHEM_BOND_DEF_STEREO_COUNT>
0

> <PUBCHEM_BOND_UDEF_STEREO_COUNT>
0

> <PUBCHEM_ISOTOPIC_ATOM_COUNT>
0

> <PUBCHEM_COMPONENT_COUNT>
1

> <PUBCHEM_CACTVS_TAUTO_COUNT>
-1

> <PUBCHEM_COORDINATE_TYPE>
1
5
255

> <PUBCHEM_BONDANNOTATIONS>
17  18  8
17  20  8
18  21  8
20  23  8
21  24  8
22  25  8
22  26  8
23  24  8
25  27  8
26  28  8
27  29  8
27  31  8
28  29  8
29  32  8
31  33  8
32  34  8
33  34  8

$$$$
