129186558
  -OEChem-09292322062D

 57 61  0     1  0  0  0  0  0999 V2000
   13.1973   -1.0083    0.0000 S   0  0  0  0  0  0  0  0  0  0  0  0
    2.9176    2.8592    0.0000 O   0  0  0  0  0  0  0  0  0  0  0  0
    4.6660   -1.1754    0.0000 O   0  0  0  0  0  0  0  0  0  0  0  0
    8.1301   -0.1754    0.0000 N   0  0  0  0  0  0  0  0  0  0  0  0
    9.8622   -1.1754    0.0000 N   0  0  0  0  0  0  0  0  0  0  0  0
    3.8000    0.3246    0.0000 N   0  0  0  0  0  0  0  0  0  0  0  0
    4.6660    1.8246    0.0000 N   0  0  0  0  0  0  0  0  0  0  0  0
   11.5942   -3.1754    0.0000 N   0  0  0  0  0  0  0  0  0  0  0  0
    8.9962    0.3246    0.0000 C   0  0  0  0  0  0  0  0  0  0  0  0
    8.1301   -1.1754    0.0000 C   0  0  0  0  0  0  0  0  0  0  0  0
    7.2641    0.3246    0.0000 C   0  0  0  0  0  0  0  0  0  0  0  0
    9.8622   -0.1754    0.0000 C   0  0  0  0  0  0  0  0  0  0  0  0
    8.9962   -1.6754    0.0000 C   0  0  0  0  0  0  0  0  0  0  0  0
    6.3981   -0.1754    0.0000 C   0  0  0  0  0  0  0  0  0  0  0  0
    2.9061   -0.2101    0.0000 C   0  0  0  0  0  0  0  0  0  0  0  0
    2.9061    1.8593    0.0000 C   0  0  3  0  0  0  0  0  0  0  0  0
    2.0000    0.3038    0.0000 C   0  0  0  0  0  0  0  0  0  0  0  0
    2.0000    1.3454    0.0000 C   0  0  0  0  0  0  0  0  0  0  0  0
    5.5321    0.3246    0.0000 C   0  0  0  0  0  0  0  0  0  0  0  0
    3.8000    1.3246    0.0000 C   0  0  0  0  0  0  0  0  0  0  0  0
    4.6660   -0.1754    0.0000 C   0  0  0  0  0  0  0  0  0  0  0  0
   10.7282   -1.6754    0.0000 C   0  0  0  0  0  0  0  0  0  0  0  0
    5.5321    1.3246    0.0000 C   0  0  0  0  0  0  0  0  0  0  0  0
   11.5942   -1.1754    0.0000 C   0  0  0  0  0  0  0  0  0  0  0  0
    6.3981    1.8246    0.0000 C   0  0  0  0  0  0  0  0  0  0  0  0
   10.7282   -2.6754    0.0000 C   0  0  0  0  0  0  0  0  0  0  0  0
   12.4603   -1.6754    0.0000 C   0  0  0  0  0  0  0  0  0  0  0  0
   11.8034   -0.2036    0.0000 C   0  0  0  0  0  0  0  0  0  0  0  0
   12.4603   -2.6754    0.0000 C   0  0  0  0  0  0  0  0  0  0  0  0
   12.7922   -0.1005    0.0000 C   0  0  0  0  0  0  0  0  0  0  0  0
    9.3947    0.7996    0.0000 H   0  0  0  0  0  0  0  0  0  0  0  0
    8.5976    0.7996    0.0000 H   0  0  0  0  0  0  0  0  0  0  0  0
    7.5196   -1.0677    0.0000 H   0  0  0  0  0  0  0  0  0  0  0  0
    7.9181   -1.7580    0.0000 H   0  0  0  0  0  0  0  0  0  0  0  0
    7.6626    0.7996    0.0000 H   0  0  0  0  0  0  0  0  0  0  0  0
    6.8656    0.7996    0.0000 H   0  0  0  0  0  0  0  0  0  0  0  0
   10.4728   -0.2831    0.0000 H   0  0  0  0  0  0  0  0  0  0  0  0
   10.0742    0.4072    0.0000 H   0  0  0  0  0  0  0  0  0  0  0  0
    8.5976   -2.1503    0.0000 H   0  0  0  0  0  0  0  0  0  0  0  0
    9.3947   -2.1503    0.0000 H   0  0  0  0  0  0  0  0  0  0  0  0
    5.9996   -0.6503    0.0000 H   0  0  0  0  0  0  0  0  0  0  0  0
    6.7966   -0.6503    0.0000 H   0  0  0  0  0  0  0  0  0  0  0  0
    2.5124   -0.6891    0.0000 H   0  0  0  0  0  0  0  0  0  0  0  0
    3.3107   -0.6798    0.0000 H   0  0  0  0  0  0  0  0  0  0  0  0
    2.3721    2.1744    0.0000 H   0  0  0  0  0  0  0  0  0  0  0  0
    1.3891    0.4099    0.0000 H   0  0  0  0  0  0  0  0  0  0  0  0
    1.7909   -0.2799    0.0000 H   0  0  0  0  0  0  0  0  0  0  0  0
    1.7909    1.9291    0.0000 H   0  0  0  0  0  0  0  0  0  0  0  0
    1.3891    1.2393    0.0000 H   0  0  0  0  0  0  0  0  0  0  0  0
    6.7081    1.2877    0.0000 H   0  0  0  0  0  0  0  0  0  0  0  0
    6.9350    2.1346    0.0000 H   0  0  0  0  0  0  0  0  0  0  0  0
    6.0881    2.3615    0.0000 H   0  0  0  0  0  0  0  0  0  0  0  0
   10.1913   -2.9854    0.0000 H   0  0  0  0  0  0  0  0  0  0  0  0
    2.3843    3.1754    0.0000 H   0  0  0  0  0  0  0  0  0  0  0  0
   11.3894    0.2579    0.0000 H   0  0  0  0  0  0  0  0  0  0  0  0
   12.9972   -2.9854    0.0000 H   0  0  0  0  0  0  0  0  0  0  0  0
   13.1022    0.4364    0.0000 H   0  0  0  0  0  0  0  0  0  0  0  0
  1 27  1  0  0  0  0
  1 30  1  0  0  0  0
  2 16  1  0  0  0  0
  2 54  1  0  0  0  0
  3 21  2  0  0  0  0
  4  9  1  0  0  0  0
  4 10  1  0  0  0  0
  4 11  1  0  0  0  0
  5 12  1  0  0  0  0
  5 13  1  0  0  0  0
  5 22  1  0  0  0  0
  6 15  1  0  0  0  0
  6 20  1  0  0  0  0
  6 21  1  0  0  0  0
  7 20  2  0  0  0  0
  7 23  1  0  0  0  0
  8 26  1  0  0  0  0
  8 29  2  0  0  0  0
  9 12  1  0  0  0  0
  9 31  1  0  0  0  0
  9 32  1  0  0  0  0
 10 13  1  0  0  0  0
 10 33  1  0  0  0  0
 10 34  1  0  0  0  0
 11 14  1  0  0  0  0
 11 35  1  0  0  0  0
 11 36  1  0  0  0  0
 12 37  1  0  0  0  0
 12 38  1  0  0  0  0
 13 39  1  0  0  0  0
 13 40  1  0  0  0  0
 14 19  1  0  0  0  0
 14 41  1  0  0  0  0
 14 42  1  0  0  0  0
 15 17  1  0  0  0  0
 15 43  1  0  0  0  0
 15 44  1  0  0  0  0
 16 18  1  0  0  0  0
 16 20  1  0  0  0  0
 16 45  1  0  0  0  0
 17 18  1  0  0  0  0
 17 46  1  0  0  0  0
 17 47  1  0  0  0  0
 18 48  1  0  0  0  0
 18 49  1  0  0  0  0
 19 21  1  0  0  0  0
 19 23  2  0  0  0  0
 22 24  1  0  0  0  0
 22 26  2  0  0  0  0
 23 25  1  0  0  0  0
 24 27  2  0  0  0  0
 24 28  1  0  0  0  0
 25 50  1  0  0  0  0
 25 51  1  0  0  0  0
 25 52  1  0  0  0  0
 26 53  1  0  0  0  0
 27 29  1  0  0  0  0
 28 30  2  0  0  0  0
 28 55  1  0  0  0  0
 29 56  1  0  0  0  0
 30 57  1  0  0  0  0
M  END
> <PUBCHEM_COMPOUND_CID>
129186558

> <PUBCHEM_COMPOUND_CANONICALIZED>
1

> <PUBCHEM_CACTVS_COMPLEXITY>
733

> <PUBCHEM_CACTVS_HBOND_ACCEPTOR>
7

> <PUBCHEM_CACTVS_HBOND_DONOR>
1

> <PUBCHEM_CACTVS_ROTATABLE_BOND>
4

> <PUBCHEM_CACTVS_SUBSKEYS>
AAADceB7sABAAAAAAAAAAAAAAAAAASAAAAAsWLEAAAAAAFiB+AAAHgQACAAADBzl2ga/wdMIEgisAjd3dASDoKExGjBJ2D04dNgKcHLgmJGUYAxkhgD4yUY0AAAKAAAAAAAAAAAAAAAAAAAAAAAAAAAAAA==

> <PUBCHEM_IUPAC_OPENEYE_NAME>
9-hydroxy-2-methyl-3-[2-(4-thieno[2,3-c]pyridin-4-ylpiperazin-1-yl)ethyl]-6,7,8,9-tetrahydropyrido[1,2-a]pyrimidin-4-one

> <PUBCHEM_IUPAC_CAS_NAME>
9-hydroxy-2-methyl-3-[2-[4-(4-thieno[2,3-c]pyridinyl)-1-piperazinyl]ethyl]-6,7,8,9-tetrahydropyrido[1,2-a]pyrimidin-4-one

> <PUBCHEM_IUPAC_NAME_MARKUP>
9-hydroxy-2-methyl-3-[2-(4-thieno[2,3-c]pyridin-4-ylpiperazin-1-yl)ethyl]-6,7,8,9-tetrahydropyrido[1,2-a]pyrimidin-4-one

> <PUBCHEM_IUPAC_NAME>
9-hydroxy-2-methyl-3-[2-(4-thieno[2,3-c]pyridin-4-ylpiperazin-1-yl)ethyl]-6,7,8,9-tetrahydropyrido[1,2-a]pyrimidin-4-one

> <PUBCHEM_IUPAC_SYSTEMATIC_NAME>
2-methyl-9-oxidanyl-3-[2-(4-thieno[2,3-c]pyridin-4-ylpiperazin-1-yl)ethyl]-6,7,8,9-tetrahydropyrido[1,2-a]pyrimidin-4-one

> <PUBCHEM_IUPAC_TRADITIONAL_NAME>
9-hydroxy-2-methyl-3-[2-(4-thieno[2,3-c]pyridin-4-ylpiperazino)ethyl]-6,7,8,9-tetrahydropyrido[1,2-a]pyrimidin-4-one

> <PUBCHEM_IUPAC_INCHI>
InChI=1S/C22H27N5O2S/c1-15-16(22(29)27-6-2-3-19(28)21(27)24-15)4-7-25-8-10-26(11-9-25)18-13-23-14-20-17(18)5-12-30-20/h5,12-14,19,28H,2-4,6-11H2,1H3

> <PUBCHEM_IUPAC_INCHIKEY>
LSWAIDPZAGTFNI-UHFFFAOYSA-N

> <PUBCHEM_XLOGP3_AA>
1.5

> <PUBCHEM_EXACT_MASS>
425.18854629

> <PUBCHEM_MOLECULAR_FORMULA>
C22H27N5O2S

> <PUBCHEM_MOLECULAR_WEIGHT>
425.5

> <PUBCHEM_OPENEYE_CAN_SMILES>
CC1=C(C(=O)N2CCCC(C2=N1)O)CCN3CCN(CC3)C4=CN=CC5=C4C=CS5

> <PUBCHEM_OPENEYE_ISO_SMILES>
CC1=C(C(=O)N2CCCC(C2=N1)O)CCN3CCN(CC3)C4=CN=CC5=C4C=CS5

> <PUBCHEM_CACTVS_TPSA>
101

> <PUBCHEM_MONOISOTOPIC_WEIGHT>
425.18854629

> <PUBCHEM_TOTAL_CHARGE>
0

> <PUBCHEM_HEAVY_ATOM_COUNT>
30

> <PUBCHEM_ATOM_DEF_STEREO_COUNT>
0

> <PUBCHEM_ATOM_UDEF_STEREO_COUNT>
1

> <PUBCHEM_BOND_DEF_STEREO_COUNT>
0

> <PUBCHEM_BOND_UDEF_STEREO_COUNT>
0

> <PUBCHEM_ISOTOPIC_ATOM_COUNT>
0

> <PUBCHEM_COMPONENT_COUNT>
1

> <PUBCHEM_CACTVS_TAUTO_COUNT>
-1

> <PUBCHEM_COORDINATE_TYPE>
1
5
255

> <PUBCHEM_BONDANNOTATIONS>
1  27  8
1  30  8
19  21  8
19  23  8
16  2  3
22  24  8
22  26  8
24  27  8
24  28  8
27  29  8
28  30  8
6  20  8
6  21  8
7  20  8
7  23  8
8  26  8
8  29  8

$$$$
