76322160
  -OEChem-09292321592D

152159  0     1  0  0  0  0  0999 V2000
    6.3637   -1.2120    0.0000 O   0  0  0  0  0  0  0  0  0  0  0  0
   35.0437    1.2120    0.0000 O   0  0  0  0  0  0  0  0  0  0  0  0
    8.1455   -0.2016    0.0000 O   0  0  0  0  0  0  0  0  0  0  0  0
   33.2619    0.2016    0.0000 O   0  0  0  0  0  0  0  0  0  0  0  0
   12.4813    1.2817    0.0000 O   0  0  0  0  0  0  0  0  0  0  0  0
   28.9261   -1.2817    0.0000 O   0  0  0  0  0  0  0  0  0  0  0  0
    2.8911    1.8195    0.0000 N   0  0  3  0  0  0  0  0  0  0  0  0
   38.5163   -1.8195    0.0000 N   0  0  3  0  0  0  0  0  0  0  0  0
   11.6095   -0.2149    0.0000 N   0  0  0  0  0  0  0  0  0  0  0  0
   29.7979    0.2149    0.0000 N   0  0  0  0  0  0  0  0  0  0  0  0
    3.7493    1.3225    0.0000 C   0  0  1  0  0  0  0  0  0  0  0  0
   37.6581   -1.3225    0.0000 C   0  0  1  0  0  0  0  0  0  0  0  0
    3.7493    0.3226    0.0000 C   0  0  0  0  0  0  0  0  0  0  0  0
   37.6581   -0.3226    0.0000 C   0  0  0  0  0  0  0  0  0  0  0  0
    4.6153    1.8226    0.0000 C   0  0  0  0  0  0  0  0  0  0  0  0
   36.7921   -1.8226    0.0000 C   0  0  0  0  0  0  0  0  0  0  0  0
    2.8393   -0.1843    0.0000 C   0  0  0  0  0  0  0  0  0  0  0  0
   38.5681    0.1843    0.0000 C   0  0  0  0  0  0  0  0  0  0  0  0
    2.0256    1.3353    0.0000 C   0  0  0  0  0  0  0  0  0  0  0  0
   39.3818   -1.3353    0.0000 C   0  0  0  0  0  0  0  0  0  0  0  0
    2.0000    0.3439    0.0000 C   0  0  0  0  0  0  0  0  0  0  0  0
   39.4074   -0.3439    0.0000 C   0  0  0  0  0  0  0  0  0  0  0  0
    4.6153   -0.1774    0.0000 C   0  0  0  0  0  0  0  0  0  0  0  0
   36.7921    0.1774    0.0000 C   0  0  0  0  0  0  0  0  0  0  0  0
    5.4814    1.3225    0.0000 C   0  0  0  0  0  0  0  0  0  0  0  0
   35.9260   -1.3225    0.0000 C   0  0  0  0  0  0  0  0  0  0  0  0
    5.4814    0.3226    0.0000 C   0  0  0  0  0  0  0  0  0  0  0  0
   35.9260   -0.3226    0.0000 C   0  0  0  0  0  0  0  0  0  0  0  0
    2.8985    2.8195    0.0000 C   0  0  0  0  0  0  0  0  0  0  0  0
   38.5089   -2.8195    0.0000 C   0  0  0  0  0  0  0  0  0  0  0  0
    2.8313   -1.2259    0.0000 C   0  0  0  0  0  0  0  0  0  0  0  0
   38.5761    1.2259    0.0000 C   0  0  0  0  0  0  0  0  0  0  0  0
    4.6314   -1.2190    0.0000 C   0  0  0  0  0  0  0  0  0  0  0  0
   36.7760    1.2190    0.0000 C   0  0  0  0  0  0  0  0  0  0  0  0
    6.3753   -0.2121    0.0000 C   0  0  0  0  0  0  0  0  0  0  0  0
   35.0321    0.2121    0.0000 C   0  0  0  0  0  0  0  0  0  0  0  0
    6.3753    1.8572    0.0000 C   0  0  0  0  0  0  0  0  0  0  0  0
   35.0321   -1.8572    0.0000 C   0  0  0  0  0  0  0  0  0  0  0  0
    3.7334   -1.7467    0.0000 C   0  0  0  0  0  0  0  0  0  0  0  0
   37.6740    1.7467    0.0000 C   0  0  0  0  0  0  0  0  0  0  0  0
    7.2814    0.3017    0.0000 C   0  0  0  0  0  0  0  0  0  0  0  0
   34.1260   -0.3017    0.0000 C   0  0  0  0  0  0  0  0  0  0  0  0
    7.2814    1.3434    0.0000 C   0  0  0  0  0  0  0  0  0  0  0  0
   34.1260   -1.3434    0.0000 C   0  0  0  0  0  0  0  0  0  0  0  0
    9.0134    0.2951    0.0000 C   0  0  0  0  0  0  0  0  0  0  0  0
   32.3940   -0.2951    0.0000 C   0  0  0  0  0  0  0  0  0  0  0  0
    9.8775   -0.2083    0.0000 C   0  0  0  0  0  0  0  0  0  0  0  0
   31.5299    0.2083    0.0000 C   0  0  0  0  0  0  0  0  0  0  0  0
   20.2697   -0.2483    0.0000 C   0  0  0  0  0  0  0  0  0  0  0  0
   21.1377    0.2483    0.0000 C   0  0  0  0  0  0  0  0  0  0  0  0
   19.4056    0.2550    0.0000 C   0  0  0  0  0  0  0  0  0  0  0  0
   22.0018   -0.2550    0.0000 C   0  0  0  0  0  0  0  0  0  0  0  0
   18.5377   -0.2417    0.0000 C   0  0  0  0  0  0  0  0  0  0  0  0
   22.8697    0.2417    0.0000 C   0  0  0  0  0  0  0  0  0  0  0  0
   17.6736    0.2617    0.0000 C   0  0  0  0  0  0  0  0  0  0  0  0
   23.7338   -0.2617    0.0000 C   0  0  0  0  0  0  0  0  0  0  0  0
   10.7455    0.2884    0.0000 C   0  0  0  0  0  0  0  0  0  0  0  0
   30.6620   -0.2884    0.0000 C   0  0  0  0  0  0  0  0  0  0  0  0
   16.8057   -0.2350    0.0000 C   0  0  0  0  0  0  0  0  0  0  0  0
   24.6018    0.2350    0.0000 C   0  0  0  0  0  0  0  0  0  0  0  0
   15.9416    0.2684    0.0000 C   0  0  0  0  0  0  0  0  0  0  0  0
   25.4658   -0.2684    0.0000 C   0  0  0  0  0  0  0  0  0  0  0  0
   15.0736   -0.2283    0.0000 C   0  0  0  0  0  0  0  0  0  0  0  0
   26.3338    0.2283    0.0000 C   0  0  0  0  0  0  0  0  0  0  0  0
   14.2095    0.2750    0.0000 C   0  0  0  0  0  0  0  0  0  0  0  0
   27.1979   -0.2750    0.0000 C   0  0  0  0  0  0  0  0  0  0  0  0
   13.3416   -0.2216    0.0000 C   0  0  0  0  0  0  0  0  0  0  0  0
   28.0658    0.2216    0.0000 C   0  0  0  0  0  0  0  0  0  0  0  0
   12.4775    0.2817    0.0000 C   0  0  0  0  0  0  0  0  0  0  0  0
   28.9299   -0.2817    0.0000 C   0  0  0  0  0  0  0  0  0  0  0  0
    3.7498    2.1726    0.0000 H   0  0  0  0  0  0  0  0  0  0  0  0
   37.6576   -2.1726    0.0000 H   0  0  0  0  0  0  0  0  0  0  0  0
    5.0139    2.2975    0.0000 H   0  0  0  0  0  0  0  0  0  0  0  0
    4.2168    2.2975    0.0000 H   0  0  0  0  0  0  0  0  0  0  0  0
   36.3935   -2.2975    0.0000 H   0  0  0  0  0  0  0  0  0  0  0  0
   37.1906   -2.2975    0.0000 H   0  0  0  0  0  0  0  0  0  0  0  0
    1.8239    1.9216    0.0000 H   0  0  0  0  0  0  0  0  0  0  0  0
    1.4128    1.2410    0.0000 H   0  0  0  0  0  0  0  0  0  0  0  0
   39.5835   -1.9216    0.0000 H   0  0  0  0  0  0  0  0  0  0  0  0
   39.9946   -1.2410    0.0000 H   0  0  0  0  0  0  0  0  0  0  0  0
    1.3929    0.4698    0.0000 H   0  0  0  0  0  0  0  0  0  0  0  0
    1.7682   -0.2311    0.0000 H   0  0  0  0  0  0  0  0  0  0  0  0
   40.0145   -0.4698    0.0000 H   0  0  0  0  0  0  0  0  0  0  0  0
   39.6392    0.2311    0.0000 H   0  0  0  0  0  0  0  0  0  0  0  0
    3.5185    2.8149    0.0000 H   0  0  0  0  0  0  0  0  0  0  0  0
    2.9031    3.4394    0.0000 H   0  0  0  0  0  0  0  0  0  0  0  0
    2.2785    2.8240    0.0000 H   0  0  0  0  0  0  0  0  0  0  0  0
   37.8889   -2.8149    0.0000 H   0  0  0  0  0  0  0  0  0  0  0  0
   38.5043   -3.4394    0.0000 H   0  0  0  0  0  0  0  0  0  0  0  0
   39.1289   -2.8240    0.0000 H   0  0  0  0  0  0  0  0  0  0  0  0
    2.2932   -1.5338    0.0000 H   0  0  0  0  0  0  0  0  0  0  0  0
   39.1143    1.5338    0.0000 H   0  0  0  0  0  0  0  0  0  0  0  0
    5.1719   -1.5227    0.0000 H   0  0  0  0  0  0  0  0  0  0  0  0
   36.2355    1.5227    0.0000 H   0  0  0  0  0  0  0  0  0  0  0  0
    6.3681    2.4772    0.0000 H   0  0  0  0  0  0  0  0  0  0  0  0
   35.0393   -2.4772    0.0000 H   0  0  0  0  0  0  0  0  0  0  0  0
    3.7358   -2.3667    0.0000 H   0  0  0  0  0  0  0  0  0  0  0  0
   37.6717    2.3667    0.0000 H   0  0  0  0  0  0  0  0  0  0  0  0
    7.8171    1.6554    0.0000 H   0  0  0  0  0  0  0  0  0  0  0  0
   33.5903   -1.6554    0.0000 H   0  0  0  0  0  0  0  0  0  0  0  0
    6.8971   -1.5282    0.0000 H   0  0  0  0  0  0  0  0  0  0  0  0
   34.5104    1.5282    0.0000 H   0  0  0  0  0  0  0  0  0  0  0  0
    9.4138    0.7685    0.0000 H   0  0  0  0  0  0  0  0  0  0  0  0
    8.6167    0.7715    0.0000 H   0  0  0  0  0  0  0  0  0  0  0  0
   31.9936   -0.7685    0.0000 H   0  0  0  0  0  0  0  0  0  0  0  0
   32.7907   -0.7715    0.0000 H   0  0  0  0  0  0  0  0  0  0  0  0
    9.4772   -0.6817    0.0000 H   0  0  0  0  0  0  0  0  0  0  0  0
   10.2742   -0.6848    0.0000 H   0  0  0  0  0  0  0  0  0  0  0  0
   31.9303    0.6817    0.0000 H   0  0  0  0  0  0  0  0  0  0  0  0
   31.1332    0.6848    0.0000 H   0  0  0  0  0  0  0  0  0  0  0  0
   19.8694   -0.7217    0.0000 H   0  0  0  0  0  0  0  0  0  0  0  0
   20.6664   -0.7248    0.0000 H   0  0  0  0  0  0  0  0  0  0  0  0
   21.5380    0.7217    0.0000 H   0  0  0  0  0  0  0  0  0  0  0  0
   20.7410    0.7248    0.0000 H   0  0  0  0  0  0  0  0  0  0  0  0
   19.8060    0.7284    0.0000 H   0  0  0  0  0  0  0  0  0  0  0  0
   19.0089    0.7315    0.0000 H   0  0  0  0  0  0  0  0  0  0  0  0
   21.6014   -0.7284    0.0000 H   0  0  0  0  0  0  0  0  0  0  0  0
   22.3985   -0.7315    0.0000 H   0  0  0  0  0  0  0  0  0  0  0  0
   18.1373   -0.7151    0.0000 H   0  0  0  0  0  0  0  0  0  0  0  0
   18.9344   -0.7181    0.0000 H   0  0  0  0  0  0  0  0  0  0  0  0
   23.2701    0.7151    0.0000 H   0  0  0  0  0  0  0  0  0  0  0  0
   22.4730    0.7181    0.0000 H   0  0  0  0  0  0  0  0  0  0  0  0
   18.0740    0.7351    0.0000 H   0  0  0  0  0  0  0  0  0  0  0  0
   17.2769    0.7382    0.0000 H   0  0  0  0  0  0  0  0  0  0  0  0
   23.3335   -0.7351    0.0000 H   0  0  0  0  0  0  0  0  0  0  0  0
   24.1305   -0.7382    0.0000 H   0  0  0  0  0  0  0  0  0  0  0  0
   11.1458    0.7618    0.0000 H   0  0  0  0  0  0  0  0  0  0  0  0
   10.3488    0.7649    0.0000 H   0  0  0  0  0  0  0  0  0  0  0  0
   30.2616   -0.7618    0.0000 H   0  0  0  0  0  0  0  0  0  0  0  0
   31.0587   -0.7649    0.0000 H   0  0  0  0  0  0  0  0  0  0  0  0
   16.4053   -0.7084    0.0000 H   0  0  0  0  0  0  0  0  0  0  0  0
   17.2024   -0.7115    0.0000 H   0  0  0  0  0  0  0  0  0  0  0  0
   25.0021    0.7084    0.0000 H   0  0  0  0  0  0  0  0  0  0  0  0
   24.2051    0.7115    0.0000 H   0  0  0  0  0  0  0  0  0  0  0  0
   16.3419    0.7418    0.0000 H   0  0  0  0  0  0  0  0  0  0  0  0
   15.5449    0.7448    0.0000 H   0  0  0  0  0  0  0  0  0  0  0  0
   25.0655   -0.7418    0.0000 H   0  0  0  0  0  0  0  0  0  0  0  0
   25.8625   -0.7448    0.0000 H   0  0  0  0  0  0  0  0  0  0  0  0
   14.6733   -0.7017    0.0000 H   0  0  0  0  0  0  0  0  0  0  0  0
   15.4703   -0.7048    0.0000 H   0  0  0  0  0  0  0  0  0  0  0  0
   26.7341    0.7017    0.0000 H   0  0  0  0  0  0  0  0  0  0  0  0
   25.9371    0.7048    0.0000 H   0  0  0  0  0  0  0  0  0  0  0  0
   14.6099    0.7484    0.0000 H   0  0  0  0  0  0  0  0  0  0  0  0
   13.8128    0.7515    0.0000 H   0  0  0  0  0  0  0  0  0  0  0  0
   26.7975   -0.7484    0.0000 H   0  0  0  0  0  0  0  0  0  0  0  0
   27.5946   -0.7515    0.0000 H   0  0  0  0  0  0  0  0  0  0  0  0
   11.6072   -0.8349    0.0000 H   0  0  0  0  0  0  0  0  0  0  0  0
   29.8003    0.8349    0.0000 H   0  0  0  0  0  0  0  0  0  0  0  0
   12.9412   -0.6950    0.0000 H   0  0  0  0  0  0  0  0  0  0  0  0
   13.7383   -0.6981    0.0000 H   0  0  0  0  0  0  0  0  0  0  0  0
   28.4662    0.6950    0.0000 H   0  0  0  0  0  0  0  0  0  0  0  0
   27.6691    0.6981    0.0000 H   0  0  0  0  0  0  0  0  0  0  0  0
  1 35  1  0  0  0  0
  1101  1  0  0  0  0
  2 36  1  0  0  0  0
  2102  1  0  0  0  0
  3 41  1  0  0  0  0
  3 45  1  0  0  0  0
  4 42  1  0  0  0  0
  4 46  1  0  0  0  0
  5 69  2  0  0  0  0
  6 70  2  0  0  0  0
  7 11  1  0  0  0  0
  7 19  1  0  0  0  0
  7 29  1  0  0  0  0
  8 12  1  0  0  0  0
  8 20  1  0  0  0  0
  8 30  1  0  0  0  0
  9 57  1  0  0  0  0
  9 69  1  0  0  0  0
  9147  1  0  0  0  0
 10 58  1  0  0  0  0
 10 70  1  0  0  0  0
 10148  1  0  0  0  0
 11 13  1  0  0  0  0
 11 15  1  0  0  0  0
 11 71  1  1  0  0  0
 12 14  1  0  0  0  0
 12 16  1  0  0  0  0
 12 72  1  1  0  0  0
 13 17  2  0  0  0  0
 13 23  1  0  0  0  0
 14 18  2  0  0  0  0
 14 24  1  0  0  0  0
 15 25  1  0  0  0  0
 15 73  1  0  0  0  0
 15 74  1  0  0  0  0
 16 26  1  0  0  0  0
 16 75  1  0  0  0  0
 16 76  1  0  0  0  0
 17 21  1  0  0  0  0
 17 31  1  0  0  0  0
 18 22  1  0  0  0  0
 18 32  1  0  0  0  0
 19 21  1  0  0  0  0
 19 77  1  0  0  0  0
 19 78  1  0  0  0  0
 20 22  1  0  0  0  0
 20 79  1  0  0  0  0
 20 80  1  0  0  0  0
 21 81  1  0  0  0  0
 21 82  1  0  0  0  0
 22 83  1  0  0  0  0
 22 84  1  0  0  0  0
 23 27  1  0  0  0  0
 23 33  2  0  0  0  0
 24 28  1  0  0  0  0
 24 34  2  0  0  0  0
 25 27  2  0  0  0  0
 25 37  1  0  0  0  0
 26 28  2  0  0  0  0
 26 38  1  0  0  0  0
 27 35  1  0  0  0  0
 28 36  1  0  0  0  0
 29 85  1  0  0  0  0
 29 86  1  0  0  0  0
 29 87  1  0  0  0  0
 30 88  1  0  0  0  0
 30 89  1  0  0  0  0
 30 90  1  0  0  0  0
 31 39  2  0  0  0  0
 31 91  1  0  0  0  0
 32 40  2  0  0  0  0
 32 92  1  0  0  0  0
 33 39  1  0  0  0  0
 33 93  1  0  0  0  0
 34 40  1  0  0  0  0
 34 94  1  0  0  0  0
 35 41  2  0  0  0  0
 36 42  2  0  0  0  0
 37 43  2  0  0  0  0
 37 95  1  0  0  0  0
 38 44  2  0  0  0  0
 38 96  1  0  0  0  0
 39 97  1  0  0  0  0
 40 98  1  0  0  0  0
 41 43  1  0  0  0  0
 42 44  1  0  0  0  0
 43 99  1  0  0  0  0
 44100  1  0  0  0  0
 45 47  1  0  0  0  0
 45103  1  0  0  0  0
 45104  1  0  0  0  0
 46 48  1  0  0  0  0
 46105  1  0  0  0  0
 46106  1  0  0  0  0
 47 57  1  0  0  0  0
 47107  1  0  0  0  0
 47108  1  0  0  0  0
 48 58  1  0  0  0  0
 48109  1  0  0  0  0
 48110  1  0  0  0  0
 49 50  1  0  0  0  0
 49 51  1  0  0  0  0
 49111  1  0  0  0  0
 49112  1  0  0  0  0
 50 52  1  0  0  0  0
 50113  1  0  0  0  0
 50114  1  0  0  0  0
 51 53  1  0  0  0  0
 51115  1  0  0  0  0
 51116  1  0  0  0  0
 52 54  1  0  0  0  0
 52117  1  0  0  0  0
 52118  1  0  0  0  0
 53 55  1  0  0  0  0
 53119  1  0  0  0  0
 53120  1  0  0  0  0
 54 56  1  0  0  0  0
 54121  1  0  0  0  0
 54122  1  0  0  0  0
 55 59  1  0  0  0  0
 55123  1  0  0  0  0
 55124  1  0  0  0  0
 56 60  1  0  0  0  0
 56125  1  0  0  0  0
 56126  1  0  0  0  0
 57127  1  0  0  0  0
 57128  1  0  0  0  0
 58129  1  0  0  0  0
 58130  1  0  0  0  0
 59 61  1  0  0  0  0
 59131  1  0  0  0  0
 59132  1  0  0  0  0
 60 62  1  0  0  0  0
 60133  1  0  0  0  0
 60134  1  0  0  0  0
 61 63  1  0  0  0  0
 61135  1  0  0  0  0
 61136  1  0  0  0  0
 62 64  1  0  0  0  0
 62137  1  0  0  0  0
 62138  1  0  0  0  0
 63 65  1  0  0  0  0
 63139  1  0  0  0  0
 63140  1  0  0  0  0
 64 66  1  0  0  0  0
 64141  1  0  0  0  0
 64142  1  0  0  0  0
 65 67  1  0  0  0  0
 65143  1  0  0  0  0
 65144  1  0  0  0  0
 66 68  1  0  0  0  0
 66145  1  0  0  0  0
 66146  1  0  0  0  0
 67 69  1  0  0  0  0
 67149  1  0  0  0  0
 67150  1  0  0  0  0
 68 70  1  0  0  0  0
 68151  1  0  0  0  0
 68152  1  0  0  0  0
M  END
> <PUBCHEM_COMPOUND_CID>
76322160

> <PUBCHEM_COMPOUND_CANONICALIZED>
1

> <PUBCHEM_CACTVS_COMPLEXITY>
1430

> <PUBCHEM_CACTVS_HBOND_ACCEPTOR>
8

> <PUBCHEM_CACTVS_HBOND_DONOR>
4

> <PUBCHEM_CACTVS_ROTATABLE_BOND>
29

> <PUBCHEM_CACTVS_SUBSKEYS>
AAADcfB/uAAAAAAAAAAAAAAAAAAAAAAAAAA8eMGDAAAAAADxVAAAHgAQCAAADCzhmAYyBoPABgCIAiFSEACCCAAgIAAIiIEOjIgNJjKGsRuGeCvm1hGLuAeY2POOoAADAAAYQADQAAaAADSAAAAAAAAAAA==

> <PUBCHEM_IUPAC_OPENEYE_NAME>
N,N'-bis[3-[[(6aR)-11-hydroxy-6-methyl-5,6,6a,7-tetrahydro-4H-dibenzo[de,g]quinolin-10-yl]oxy]propyl]icosanediamide

> <PUBCHEM_IUPAC_CAS_NAME>
N,N'-bis[3-[[(6aR)-11-hydroxy-6-methyl-5,6,6a,7-tetrahydro-4H-dibenzo[de,g]quinolin-10-yl]oxy]propyl]eicosanediamide

> <PUBCHEM_IUPAC_NAME_MARKUP>
<I>N</I>,<I>N</I>&apos;-bis[3-[[(6<I>a</I><I>R</I>)-11-hydroxy-6-methyl-5,6,6<I>a</I>,7-tetrahydro-4<I>H</I>-dibenzo[de,g]quinolin-10-yl]oxy]propyl]icosanediamide

> <PUBCHEM_IUPAC_NAME>
N,N'-bis[3-[[(6aR)-11-hydroxy-6-methyl-5,6,6a,7-tetrahydro-4H-dibenzo[de,g]quinolin-10-yl]oxy]propyl]icosanediamide

> <PUBCHEM_IUPAC_SYSTEMATIC_NAME>
N,N'-bis[3-[[(6aR)-6-methyl-11-oxidanyl-5,6,6a,7-tetrahydro-4H-dibenzo[de,g]quinolin-10-yl]oxy]propyl]icosanediamide

> <PUBCHEM_IUPAC_TRADITIONAL_NAME>
N,N'-bis[3-[[(6aR)-11-hydroxy-6-methyl-5,6,6a,7-tetrahydro-4H-dibenzo[de,g]quinolin-10-yl]oxy]propyl]eicosanediamide

> <PUBCHEM_IUPAC_INCHI>
InChI=1S/C60H82N4O6/c1-63-37-33-43-23-19-25-47-55(43)49(63)41-45-29-31-51(59(67)57(45)47)69-39-21-35-61-53(65)27-17-15-13-11-9-7-5-3-4-6-8-10-12-14-16-18-28-54(66)62-36-22-40-70-52-32-30-46-42-50-56-44(34-38-64(50)2)24-20-26-48(56)58(46)60(52)68/h19-20,23-26,29-32,49-50,67-68H,3-18,21-22,27-28,33-42H2,1-2H3,(H,61,65)(H,62,66)/t49-,50-/m1/s1

> <PUBCHEM_IUPAC_INCHIKEY>
NECVYMDRWRRZKX-CDKYPKJRSA-N

> <PUBCHEM_XLOGP3_AA>
13.5

> <PUBCHEM_EXACT_MASS>
954.62343635

> <PUBCHEM_MOLECULAR_FORMULA>
C60H82N4O6

> <PUBCHEM_MOLECULAR_WEIGHT>
955.3

> <PUBCHEM_OPENEYE_CAN_SMILES>
CN1CCC2=C3C1CC4=C(C3=CC=C2)C(=C(C=C4)OCCCNC(=O)CCCCCCCCCCCCCCCCCCC(=O)NCCCOC5=C(C6=C(CC7C8=C(CCN7C)C=CC=C86)C=C5)O)O

> <PUBCHEM_OPENEYE_ISO_SMILES>
CN1CCC2=C3[C@H]1CC4=C(C3=CC=C2)C(=C(C=C4)OCCCNC(=O)CCCCCCCCCCCCCCCCCCC(=O)NCCCOC5=C(C6=C(C[C@@H]7C8=C(CCN7C)C=CC=C86)C=C5)O)O

> <PUBCHEM_CACTVS_TPSA>
124

> <PUBCHEM_MONOISOTOPIC_WEIGHT>
954.62343635

> <PUBCHEM_TOTAL_CHARGE>
0

> <PUBCHEM_HEAVY_ATOM_COUNT>
70

> <PUBCHEM_ATOM_DEF_STEREO_COUNT>
2

> <PUBCHEM_ATOM_UDEF_STEREO_COUNT>
0

> <PUBCHEM_BOND_DEF_STEREO_COUNT>
0

> <PUBCHEM_BOND_UDEF_STEREO_COUNT>
0

> <PUBCHEM_ISOTOPIC_ATOM_COUNT>
0

> <PUBCHEM_COMPONENT_COUNT>
1

> <PUBCHEM_CACTVS_TAUTO_COUNT>
-1

> <PUBCHEM_COORDINATE_TYPE>
1
5
255

> <PUBCHEM_BONDANNOTATIONS>
11  71  5
12  72  5
13  17  8
13  23  8
14  18  8
14  24  8
17  31  8
18  32  8
23  33  8
24  34  8
25  27  8
25  37  8
26  28  8
26  38  8
27  35  8
28  36  8
31  39  8
32  40  8
33  39  8
34  40  8
35  41  8
36  42  8
37  43  8
38  44  8
41  43  8
42  44  8

$$$$
