44405985
  -OEChem-09292322272D

 56 60  0     0  0  0  0  0  0999 V2000
    4.5981    2.8660    0.0000 Cl  0  0  0  0  0  0  0  0  0  0  0  0
   13.1901   -2.8660    0.0000 Cl  0  0  0  0  0  0  0  0  0  0  0  0
    9.7942    0.8660    0.0000 O   0  0  0  0  0  0  0  0  0  0  0  0
    8.0622   -2.1340    0.0000 O   0  0  0  0  0  0  0  0  0  0  0  0
    6.3301   -0.1340    0.0000 N   0  0  0  0  0  0  0  0  0  0  0  0
    4.5981    0.8660    0.0000 N   0  0  0  0  0  0  0  0  0  0  0  0
    8.9282   -0.6340    0.0000 N   0  0  0  0  0  0  0  0  0  0  0  0
    9.7942   -2.1340    0.0000 N   0  0  0  0  0  0  0  0  0  0  0  0
   11.6065   -1.9387    0.0000 N   0  0  0  0  0  0  0  0  0  0  0  0
    5.4641   -0.6340    0.0000 C   0  0  0  0  0  0  0  0  0  0  0  0
    6.3301    0.8660    0.0000 C   0  0  0  0  0  0  0  0  0  0  0  0
    4.5981   -0.1340    0.0000 C   0  0  0  0  0  0  0  0  0  0  0  0
    5.4641    1.3660    0.0000 C   0  0  0  0  0  0  0  0  0  0  0  0
    7.1962   -0.6340    0.0000 C   0  0  0  0  0  0  0  0  0  0  0  0
    8.0622   -0.1340    0.0000 C   0  0  0  0  0  0  0  0  0  0  0  0
    3.7320    1.3660    0.0000 C   0  0  0  0  0  0  0  0  0  0  0  0
    9.7942   -0.1340    0.0000 C   0  0  0  0  0  0  0  0  0  0  0  0
   10.6603   -0.6340    0.0000 C   0  0  0  0  0  0  0  0  0  0  0  0
    8.9282   -1.6340    0.0000 C   0  0  0  0  0  0  0  0  0  0  0  0
   10.6603   -1.6340    0.0000 C   0  0  0  0  0  0  0  0  0  0  0  0
    3.7320    2.3660    0.0000 C   0  0  0  0  0  0  0  0  0  0  0  0
    2.8660    0.8660    0.0000 C   0  0  0  0  0  0  0  0  0  0  0  0
   11.6065   -0.3292    0.0000 C   0  0  0  0  0  0  0  0  0  0  0  0
   12.1901   -1.1340    0.0000 C   0  0  0  0  0  0  0  0  0  0  0  0
    2.8660    2.8660    0.0000 C   0  0  0  0  0  0  0  0  0  0  0  0
    2.0000    1.3660    0.0000 C   0  0  0  0  0  0  0  0  0  0  0  0
   13.1901   -1.1340    0.0000 C   0  0  0  0  0  0  0  0  0  0  0  0
    2.0000    2.3660    0.0000 C   0  0  0  0  0  0  0  0  0  0  0  0
   13.6901   -2.0000    0.0000 C   0  0  0  0  0  0  0  0  0  0  0  0
   13.6901   -0.2679    0.0000 C   0  0  0  0  0  0  0  0  0  0  0  0
   14.6901   -2.0000    0.0000 C   0  0  0  0  0  0  0  0  0  0  0  0
   14.6901   -0.2679    0.0000 C   0  0  0  0  0  0  0  0  0  0  0  0
   15.1901   -1.1340    0.0000 C   0  0  0  0  0  0  0  0  0  0  0  0
    5.0656   -1.1089    0.0000 H   0  0  0  0  0  0  0  0  0  0  0  0
    5.8626   -1.1089    0.0000 H   0  0  0  0  0  0  0  0  0  0  0  0
    6.9407    0.7584    0.0000 H   0  0  0  0  0  0  0  0  0  0  0  0
    6.5422    1.4486    0.0000 H   0  0  0  0  0  0  0  0  0  0  0  0
    3.9875   -0.0263    0.0000 H   0  0  0  0  0  0  0  0  0  0  0  0
    4.3860   -0.7166    0.0000 H   0  0  0  0  0  0  0  0  0  0  0  0
    5.8626    1.8410    0.0000 H   0  0  0  0  0  0  0  0  0  0  0  0
    5.0656    1.8410    0.0000 H   0  0  0  0  0  0  0  0  0  0  0  0
    6.7976   -1.1089    0.0000 H   0  0  0  0  0  0  0  0  0  0  0  0
    7.5947   -1.1089    0.0000 H   0  0  0  0  0  0  0  0  0  0  0  0
    8.4607    0.3410    0.0000 H   0  0  0  0  0  0  0  0  0  0  0  0
    7.6636    0.3410    0.0000 H   0  0  0  0  0  0  0  0  0  0  0  0
    2.8660    0.2460    0.0000 H   0  0  0  0  0  0  0  0  0  0  0  0
    9.7942   -2.7540    0.0000 H   0  0  0  0  0  0  0  0  0  0  0  0
   11.7991    0.2601    0.0000 H   0  0  0  0  0  0  0  0  0  0  0  0
   11.7991   -2.5280    0.0000 H   0  0  0  0  0  0  0  0  0  0  0  0
    2.8660    3.4860    0.0000 H   0  0  0  0  0  0  0  0  0  0  0  0
    1.4631    1.0560    0.0000 H   0  0  0  0  0  0  0  0  0  0  0  0
    1.4631    2.6760    0.0000 H   0  0  0  0  0  0  0  0  0  0  0  0
   13.3801    0.2690    0.0000 H   0  0  0  0  0  0  0  0  0  0  0  0
   15.0001   -2.5369    0.0000 H   0  0  0  0  0  0  0  0  0  0  0  0
   15.0001    0.2690    0.0000 H   0  0  0  0  0  0  0  0  0  0  0  0
   15.8101   -1.1340    0.0000 H   0  0  0  0  0  0  0  0  0  0  0  0
  1 21  1  0  0  0  0
  2 29  1  0  0  0  0
  3 17  2  0  0  0  0
  4 19  2  0  0  0  0
  5 10  1  0  0  0  0
  5 11  1  0  0  0  0
  5 14  1  0  0  0  0
  6 12  1  0  0  0  0
  6 13  1  0  0  0  0
  6 16  1  0  0  0  0
  7 15  1  0  0  0  0
  7 17  1  0  0  0  0
  7 19  1  0  0  0  0
  8 19  1  0  0  0  0
  8 20  1  0  0  0  0
  8 47  1  0  0  0  0
  9 20  1  0  0  0  0
  9 24  1  0  0  0  0
  9 49  1  0  0  0  0
 10 12  1  0  0  0  0
 10 34  1  0  0  0  0
 10 35  1  0  0  0  0
 11 13  1  0  0  0  0
 11 36  1  0  0  0  0
 11 37  1  0  0  0  0
 12 38  1  0  0  0  0
 12 39  1  0  0  0  0
 13 40  1  0  0  0  0
 13 41  1  0  0  0  0
 14 15  1  0  0  0  0
 14 42  1  0  0  0  0
 14 43  1  0  0  0  0
 15 44  1  0  0  0  0
 15 45  1  0  0  0  0
 16 21  1  0  0  0  0
 16 22  2  0  0  0  0
 17 18  1  0  0  0  0
 18 20  2  0  0  0  0
 18 23  1  0  0  0  0
 21 25  2  0  0  0  0
 22 26  1  0  0  0  0
 22 46  1  0  0  0  0
 23 24  2  0  0  0  0
 23 48  1  0  0  0  0
 24 27  1  0  0  0  0
 25 28  1  0  0  0  0
 25 50  1  0  0  0  0
 26 28  2  0  0  0  0
 26 51  1  0  0  0  0
 27 29  1  0  0  0  0
 27 30  2  0  0  0  0
 28 52  1  0  0  0  0
 29 31  2  0  0  0  0
 30 32  1  0  0  0  0
 30 53  1  0  0  0  0
 31 33  1  0  0  0  0
 31 54  1  0  0  0  0
 32 33  2  0  0  0  0
 32 55  1  0  0  0  0
 33 56  1  0  0  0  0
M  END
> <PUBCHEM_COMPOUND_CID>
44405985

> <PUBCHEM_COMPOUND_CANONICALIZED>
1

> <PUBCHEM_CACTVS_COMPLEXITY>
719

> <PUBCHEM_CACTVS_HBOND_ACCEPTOR>
4

> <PUBCHEM_CACTVS_HBOND_DONOR>
2

> <PUBCHEM_CACTVS_ROTATABLE_BOND>
5

> <PUBCHEM_CACTVS_SUBSKEYS>
AAADceB7sAAGAAAAAAAAAAAAAAAAAWAAAAA8eIEAAAAAAFgB0AAAHgIQAAAADArBniQx8JPJkACoAydydACCgCmlByAJmSE4ZtiIYPrB15HUIYholyLIyecciMCOAAAAAAABABAAAAAAAAIAIAAAAAAAAA==

> <PUBCHEM_IUPAC_OPENEYE_NAME>
6-(2-chlorophenyl)-3-[2-[4-(2-chlorophenyl)piperazin-1-yl]ethyl]-1,7-dihydropyrrolo[2,3-d]pyrimidine-2,4-dione

> <PUBCHEM_IUPAC_CAS_NAME>
6-(2-chlorophenyl)-3-[2-[4-(2-chlorophenyl)-1-piperazinyl]ethyl]-1,7-dihydropyrrolo[2,3-d]pyrimidine-2,4-dione

> <PUBCHEM_IUPAC_NAME_MARKUP>
6-(2-chlorophenyl)-3-[2-[4-(2-chlorophenyl)piperazin-1-yl]ethyl]-1,7-dihydropyrrolo[2,3-d]pyrimidine-2,4-dione

> <PUBCHEM_IUPAC_NAME>
6-(2-chlorophenyl)-3-[2-[4-(2-chlorophenyl)piperazin-1-yl]ethyl]-1,7-dihydropyrrolo[2,3-d]pyrimidine-2,4-dione

> <PUBCHEM_IUPAC_SYSTEMATIC_NAME>
6-(2-chlorophenyl)-3-[2-[4-(2-chlorophenyl)piperazin-1-yl]ethyl]-1,7-dihydropyrrolo[2,3-d]pyrimidine-2,4-dione

> <PUBCHEM_IUPAC_TRADITIONAL_NAME>
6-(2-chlorophenyl)-3-[2-[4-(2-chlorophenyl)piperazino]ethyl]-1,7-dihydropyrrolo[2,3-d]pyrimidine-2,4-quinone

> <PUBCHEM_IUPAC_INCHI>
InChI=1S/C24H23Cl2N5O2/c25-18-6-2-1-5-16(18)20-15-17-22(27-20)28-24(33)31(23(17)32)14-11-29-9-12-30(13-10-29)21-8-4-3-7-19(21)26/h1-8,15,27H,9-14H2,(H,28,33)

> <PUBCHEM_IUPAC_INCHIKEY>
QMMPFJGZOGDNHT-UHFFFAOYSA-N

> <PUBCHEM_XLOGP3_AA>
4.3

> <PUBCHEM_EXACT_MASS>
483.1228804

> <PUBCHEM_MOLECULAR_FORMULA>
C24H23Cl2N5O2

> <PUBCHEM_MOLECULAR_WEIGHT>
484.4

> <PUBCHEM_OPENEYE_CAN_SMILES>
C1CN(CCN1CCN2C(=O)C3=C(NC(=C3)C4=CC=CC=C4Cl)NC2=O)C5=CC=CC=C5Cl

> <PUBCHEM_OPENEYE_ISO_SMILES>
C1CN(CCN1CCN2C(=O)C3=C(NC(=C3)C4=CC=CC=C4Cl)NC2=O)C5=CC=CC=C5Cl

> <PUBCHEM_CACTVS_TPSA>
71.7

> <PUBCHEM_MONOISOTOPIC_WEIGHT>
483.1228804

> <PUBCHEM_TOTAL_CHARGE>
0

> <PUBCHEM_HEAVY_ATOM_COUNT>
33

> <PUBCHEM_ATOM_DEF_STEREO_COUNT>
0

> <PUBCHEM_ATOM_UDEF_STEREO_COUNT>
0

> <PUBCHEM_BOND_DEF_STEREO_COUNT>
0

> <PUBCHEM_BOND_UDEF_STEREO_COUNT>
0

> <PUBCHEM_ISOTOPIC_ATOM_COUNT>
0

> <PUBCHEM_COMPONENT_COUNT>
1

> <PUBCHEM_CACTVS_TAUTO_COUNT>
-1

> <PUBCHEM_COORDINATE_TYPE>
1
5
255

> <PUBCHEM_BONDANNOTATIONS>
16  21  8
16  22  8
17  18  8
18  20  8
18  23  8
21  25  8
22  26  8
23  24  8
25  28  8
26  28  8
27  29  8
27  30  8
29  31  8
30  32  8
31  33  8
32  33  8
7  17  8
7  19  8
8  19  8
8  20  8
9  20  8
9  24  8

$$$$
