145983059
  -OEChem-09292322392D

 62 67  0     1  0  0  0  0  0999 V2000
    3.0000   -0.9672    0.0000 S   0  0  0  0  0  0  0  0  0  0  0  0
   11.0118    3.4182    0.0000 S   0  0  0  0  0  0  0  0  0  0  0  0
    2.0000   -0.9672    0.0000 O   0  0  0  0  0  0  0  0  0  0  0  0
    4.0000   -0.9672    0.0000 O   0  0  0  0  0  0  0  0  0  0  0  0
    3.0000    0.0328    0.0000 N   0  0  3  0  0  0  0  0  0  0  0  0
    6.2071    1.6060    0.0000 N   0  0  0  0  0  0  0  0  0  0  0  0
    8.2071    1.6060    0.0000 N   0  0  0  0  0  0  0  0  0  0  0  0
    4.7600   -4.0018    0.0000 N   0  0  0  0  0  0  0  0  0  0  0  0
    3.7071    0.7399    0.0000 C   0  0  2  0  0  0  0  0  0  0  0  0
    3.0000    1.4470    0.0000 C   0  0  0  0  0  0  0  0  0  0  0  0
    2.2929    0.7399    0.0000 C   0  0  0  0  0  0  0  0  0  0  0  0
    4.7071    0.7399    0.0000 C   0  0  0  0  0  0  0  0  0  0  0  0
    5.2071    1.6060    0.0000 C   0  0  0  0  0  0  0  0  0  0  0  0
    6.7071    0.7399    0.0000 C   0  0  0  0  0  0  0  0  0  0  0  0
    6.7071    2.4720    0.0000 C   0  0  0  0  0  0  0  0  0  0  0  0
    7.7071    0.7399    0.0000 C   0  0  0  0  0  0  0  0  0  0  0  0
    7.7071    2.4720    0.0000 C   0  0  0  0  0  0  0  0  0  0  0  0
    3.0000   -1.9672    0.0000 C   0  0  0  0  0  0  0  0  0  0  0  0
    9.2071    1.6060    0.0000 C   0  0  0  0  0  0  0  0  0  0  0  0
    3.8660   -2.4672    0.0000 C   0  0  0  0  0  0  0  0  0  0  0  0
    2.1340   -2.4672    0.0000 C   0  0  0  0  0  0  0  0  0  0  0  0
    9.7071    2.4720    0.0000 C   0  0  0  0  0  0  0  0  0  0  0  0
    3.8660   -3.4672    0.0000 C   0  0  0  0  0  0  0  0  0  0  0  0
    9.7071    0.7399    0.0000 C   0  0  0  0  0  0  0  0  0  0  0  0
    2.1340   -3.4672    0.0000 C   0  0  0  0  0  0  0  0  0  0  0  0
    4.7600   -1.9325    0.0000 C   0  0  0  0  0  0  0  0  0  0  0  0
    3.0000   -3.9672    0.0000 C   0  0  0  0  0  0  0  0  0  0  0  0
   10.7071    2.4720    0.0000 C   0  0  0  0  0  0  0  0  0  0  0  0
    9.4024    3.4182    0.0000 C   0  0  0  0  0  0  0  0  0  0  0  0
   10.7071    0.7399    0.0000 C   0  0  0  0  0  0  0  0  0  0  0  0
   11.2071    1.6060    0.0000 C   0  0  0  0  0  0  0  0  0  0  0  0
    5.6660   -2.4463    0.0000 C   0  0  0  0  0  0  0  0  0  0  0  0
   10.2071    4.0018    0.0000 C   0  0  0  0  0  0  0  0  0  0  0  0
    5.6660   -3.4880    0.0000 C   0  0  0  0  0  0  0  0  0  0  0  0
    3.9444    0.1671    0.0000 H   0  0  0  0  0  0  0  0  0  0  0  0
    3.4384    1.8855    0.0000 H   0  0  0  0  0  0  0  0  0  0  0  0
    2.5616    1.8855    0.0000 H   0  0  0  0  0  0  0  0  0  0  0  0
    1.8545    1.1784    0.0000 H   0  0  0  0  0  0  0  0  0  0  0  0
    1.8545    0.3015    0.0000 H   0  0  0  0  0  0  0  0  0  0  0  0
    4.5994    0.1294    0.0000 H   0  0  0  0  0  0  0  0  0  0  0  0
    5.2897    0.5279    0.0000 H   0  0  0  0  0  0  0  0  0  0  0  0
    5.3148    2.2165    0.0000 H   0  0  0  0  0  0  0  0  0  0  0  0
    4.6245    1.8180    0.0000 H   0  0  0  0  0  0  0  0  0  0  0  0
    6.1245    0.5279    0.0000 H   0  0  0  0  0  0  0  0  0  0  0  0
    6.8148    0.1294    0.0000 H   0  0  0  0  0  0  0  0  0  0  0  0
    6.8148    3.0826    0.0000 H   0  0  0  0  0  0  0  0  0  0  0  0
    6.1245    2.6840    0.0000 H   0  0  0  0  0  0  0  0  0  0  0  0
    7.5994    0.1294    0.0000 H   0  0  0  0  0  0  0  0  0  0  0  0
    8.2897    0.5279    0.0000 H   0  0  0  0  0  0  0  0  0  0  0  0
    8.2897    2.6840    0.0000 H   0  0  0  0  0  0  0  0  0  0  0  0
    7.5994    3.0826    0.0000 H   0  0  0  0  0  0  0  0  0  0  0  0
    1.5970   -2.1572    0.0000 H   0  0  0  0  0  0  0  0  0  0  0  0
    9.3971    0.2030    0.0000 H   0  0  0  0  0  0  0  0  0  0  0  0
    1.5970   -3.7772    0.0000 H   0  0  0  0  0  0  0  0  0  0  0  0
    4.7528   -1.3125    0.0000 H   0  0  0  0  0  0  0  0  0  0  0  0
    3.0000   -4.5872    0.0000 H   0  0  0  0  0  0  0  0  0  0  0  0
    8.8130    3.6108    0.0000 H   0  0  0  0  0  0  0  0  0  0  0  0
   11.0171    0.2030    0.0000 H   0  0  0  0  0  0  0  0  0  0  0  0
   11.8271    1.6060    0.0000 H   0  0  0  0  0  0  0  0  0  0  0  0
    6.2018   -2.1343    0.0000 H   0  0  0  0  0  0  0  0  0  0  0  0
   10.2071    4.6218    0.0000 H   0  0  0  0  0  0  0  0  0  0  0  0
    6.2018   -3.8000    0.0000 H   0  0  0  0  0  0  0  0  0  0  0  0
  1  3  2  0  0  0  0
  1  4  2  0  0  0  0
  1  5  1  0  0  0  0
  1 18  1  0  0  0  0
  2 28  1  0  0  0  0
  2 33  1  0  0  0  0
  5  9  1  0  0  0  0
  5 11  1  0  0  0  0
  6 13  1  0  0  0  0
  6 14  1  0  0  0  0
  6 15  1  0  0  0  0
  7 16  1  0  0  0  0
  7 17  1  0  0  0  0
  7 19  1  0  0  0  0
  8 23  1  0  0  0  0
  8 34  2  0  0  0  0
  9 10  1  0  0  0  0
  9 12  1  6  0  0  0
  9 35  1  0  0  0  0
 10 11  1  0  0  0  0
 10 36  1  0  0  0  0
 10 37  1  0  0  0  0
 11 38  1  0  0  0  0
 11 39  1  0  0  0  0
 12 13  1  0  0  0  0
 12 40  1  0  0  0  0
 12 41  1  0  0  0  0
 13 42  1  0  0  0  0
 13 43  1  0  0  0  0
 14 16  1  0  0  0  0
 14 44  1  0  0  0  0
 14 45  1  0  0  0  0
 15 17  1  0  0  0  0
 15 46  1  0  0  0  0
 15 47  1  0  0  0  0
 16 48  1  0  0  0  0
 16 49  1  0  0  0  0
 17 50  1  0  0  0  0
 17 51  1  0  0  0  0
 18 20  1  0  0  0  0
 18 21  2  0  0  0  0
 19 22  2  0  0  0  0
 19 24  1  0  0  0  0
 20 23  2  0  0  0  0
 20 26  1  0  0  0  0
 21 25  1  0  0  0  0
 21 52  1  0  0  0  0
 22 28  1  0  0  0  0
 22 29  1  0  0  0  0
 23 27  1  0  0  0  0
 24 30  2  0  0  0  0
 24 53  1  0  0  0  0
 25 27  2  0  0  0  0
 25 54  1  0  0  0  0
 26 32  2  0  0  0  0
 26 55  1  0  0  0  0
 27 56  1  0  0  0  0
 28 31  2  0  0  0  0
 29 33  2  0  0  0  0
 29 57  1  0  0  0  0
 30 31  1  0  0  0  0
 30 58  1  0  0  0  0
 31 59  1  0  0  0  0
 32 34  1  0  0  0  0
 32 60  1  0  0  0  0
 33 61  1  0  0  0  0
 34 62  1  0  0  0  0
M  END
> <PUBCHEM_COMPOUND_CID>
145983059

> <PUBCHEM_COMPOUND_CANONICALIZED>
1

> <PUBCHEM_CACTVS_COMPLEXITY>
797

> <PUBCHEM_CACTVS_HBOND_ACCEPTOR>
7

> <PUBCHEM_CACTVS_HBOND_DONOR>
0

> <PUBCHEM_CACTVS_ROTATABLE_BOND>
6

> <PUBCHEM_CACTVS_SUBSKEYS>
AAADceB7sABgAAAAAAAAAAAAAABYASAAAAA8eIEAAAAAAEix/gAAHAQAQAAADCjFXgS8wfMIEAqkAzRnRHDDgLAxCjBI2Dg4ZJgIYOLg0ZGUIAxggADoyAcQgIAOAAAAACAGAAAAAAAAQAwAAAAAAAAAAA==

> <PUBCHEM_IUPAC_OPENEYE_NAME>
5-[(2S)-2-[2-[4-(benzothiophen-4-yl)piperazin-1-yl]ethyl]azetidin-1-yl]sulfonylquinoline

> <PUBCHEM_IUPAC_CAS_NAME>
5-[[(2S)-2-[2-[4-(1-benzothiophen-4-yl)-1-piperazinyl]ethyl]-1-azetidinyl]sulfonyl]quinoline

> <PUBCHEM_IUPAC_NAME_MARKUP>
5-[(2<I>S</I>)-2-[2-[4-(1-benzothiophen-4-yl)piperazin-1-yl]ethyl]azetidin-1-yl]sulfonylquinoline

> <PUBCHEM_IUPAC_NAME>
5-[(2S)-2-[2-[4-(1-benzothiophen-4-yl)piperazin-1-yl]ethyl]azetidin-1-yl]sulfonylquinoline

> <PUBCHEM_IUPAC_SYSTEMATIC_NAME>
5-[(2S)-2-[2-[4-(1-benzothiophen-4-yl)piperazin-1-yl]ethyl]azetidin-1-yl]sulfonylquinoline

> <PUBCHEM_IUPAC_TRADITIONAL_NAME>
5-[(2S)-2-[2-[4-(benzothiophen-4-yl)piperazino]ethyl]azetidin-1-yl]sulfonylquinoline

> <PUBCHEM_IUPAC_INCHI>
InChI=1S/C26H28N4O2S2/c31-34(32,26-8-1-5-23-21(26)4-3-12-27-23)30-14-10-20(30)9-13-28-15-17-29(18-16-28)24-6-2-7-25-22(24)11-19-33-25/h1-8,11-12,19-20H,9-10,13-18H2/t20-/m0/s1

> <PUBCHEM_IUPAC_INCHIKEY>
XQSQCPKTXXORGA-FQEVSTJZSA-N

> <PUBCHEM_XLOGP3_AA>
4.5

> <PUBCHEM_EXACT_MASS>
492.16536850

> <PUBCHEM_MOLECULAR_FORMULA>
C26H28N4O2S2

> <PUBCHEM_MOLECULAR_WEIGHT>
492.7

> <PUBCHEM_OPENEYE_CAN_SMILES>
C1CN(C1CCN2CCN(CC2)C3=C4C=CSC4=CC=C3)S(=O)(=O)C5=CC=CC6=C5C=CC=N6

> <PUBCHEM_OPENEYE_ISO_SMILES>
C1CN([C@H]1CCN2CCN(CC2)C3=C4C=CSC4=CC=C3)S(=O)(=O)C5=CC=CC6=C5C=CC=N6

> <PUBCHEM_CACTVS_TPSA>
93.4

> <PUBCHEM_MONOISOTOPIC_WEIGHT>
492.16536850

> <PUBCHEM_TOTAL_CHARGE>
0

> <PUBCHEM_HEAVY_ATOM_COUNT>
34

> <PUBCHEM_ATOM_DEF_STEREO_COUNT>
1

> <PUBCHEM_ATOM_UDEF_STEREO_COUNT>
0

> <PUBCHEM_BOND_DEF_STEREO_COUNT>
0

> <PUBCHEM_BOND_UDEF_STEREO_COUNT>
0

> <PUBCHEM_ISOTOPIC_ATOM_COUNT>
0

> <PUBCHEM_COMPONENT_COUNT>
1

> <PUBCHEM_CACTVS_TAUTO_COUNT>
-1

> <PUBCHEM_COORDINATE_TYPE>
1
5
255

> <PUBCHEM_BONDANNOTATIONS>
18  20  8
18  21  8
19  22  8
19  24  8
2  28  8
2  33  8
20  23  8
20  26  8
21  25  8
22  28  8
22  29  8
23  27  8
24  30  8
25  27  8
26  32  8
28  31  8
29  33  8
30  31  8
32  34  8
8  23  8
8  34  8
9  12  6

$$$$
