11712044
  -OEChem-09292322492D

 60 64  0     1  0  0  0  0  0999 V2000
    9.2062    1.7644    0.0000 S   0  0  0  0  0  0  0  0  0  0  0  0
    4.4887   -4.5520    0.0000 O   0  0  0  0  0  0  0  0  0  0  0  0
    6.2062    0.0323    0.0000 N   0  0  3  0  0  0  0  0  0  0  0  0
    3.0949   -3.7472    0.0000 N   0  0  0  0  0  0  0  0  0  0  0  0
   10.7008    2.7349    0.0000 N   0  0  0  0  0  0  0  0  0  0  0  0
    9.2995    3.5439    0.0000 N   0  0  0  0  0  0  0  0  0  0  0  0
   10.0426    4.2131    0.0000 N   0  0  0  0  0  0  0  0  0  0  0  0
   13.5448    3.9388    0.0000 N   0  0  0  0  0  0  0  0  0  0  0  0
    6.7598   -0.7773    0.0000 C   0  0  0  0  0  0  0  0  0  0  0  0
    5.2283    0.1069    0.0000 C   0  0  0  0  0  0  0  0  0  0  0  0
    6.4745   -1.7157    0.0000 C   0  0  0  0  0  0  0  0  0  0  0  0
    4.5583   -0.6094    0.0000 C   0  0  0  0  0  0  0  0  0  0  0  0
    5.5640   -2.0802    0.0000 C   0  0  0  0  0  0  0  0  0  0  0  0
    4.6979   -1.5802    0.0000 C   0  0  0  0  0  0  0  0  0  0  0  0
    6.7062    0.8983    0.0000 C   0  0  0  0  0  0  0  0  0  0  0  0
    7.7062    0.8983    0.0000 C   0  0  0  0  0  0  0  0  0  0  0  0
    5.5640   -3.0802    0.0000 C   0  0  0  0  0  0  0  0  0  0  0  0
    3.8319   -2.0802    0.0000 C   0  0  0  0  0  0  0  0  0  0  0  0
    4.6979   -3.5802    0.0000 C   0  0  0  0  0  0  0  0  0  0  0  0
    3.8319   -3.0802    0.0000 C   0  0  0  0  0  0  0  0  0  0  0  0
    8.2062    1.7644    0.0000 C   0  0  0  0  0  0  0  0  0  0  0  0
    3.5000   -4.6550    0.0000 C   0  0  0  0  0  0  0  0  0  0  0  0
    3.0000   -5.5210    0.0000 C   0  0  0  0  0  0  0  0  0  0  0  0
    9.7062    2.6304    0.0000 C   0  0  0  0  0  0  0  0  0  0  0  0
    2.0000   -5.5210    0.0000 C   0  0  0  0  0  0  0  0  0  0  0  0
   10.9087    3.7131    0.0000 C   0  0  0  0  0  0  0  0  0  0  0  0
   11.3699    1.9918    0.0000 C   0  0  0  0  0  0  0  0  0  0  0  0
   11.8222    4.1198    0.0000 C   0  0  0  0  0  0  0  0  0  0  0  0
   11.9267    5.1143    0.0000 C   0  0  0  0  0  0  0  0  0  0  0  0
   12.6312    3.5320    0.0000 C   0  0  0  0  0  0  0  0  0  0  0  0
   12.8403    5.5210    0.0000 C   0  0  0  0  0  0  0  0  0  0  0  0
   13.6493    4.9333    0.0000 C   0  0  0  0  0  0  0  0  0  0  0  0
    7.2977   -1.0856    0.0000 H   0  0  0  0  0  0  0  0  0  0  0  0
    7.1805   -0.3219    0.0000 H   0  0  0  0  0  0  0  0  0  0  0  0
    5.4124    0.6990    0.0000 H   0  0  0  0  0  0  0  0  0  0  0  0
    4.6923    0.4186    0.0000 H   0  0  0  0  0  0  0  0  0  0  0  0
    6.5705   -2.3282    0.0000 H   0  0  0  0  0  0  0  0  0  0  0  0
    7.0930   -1.7590    0.0000 H   0  0  0  0  0  0  0  0  0  0  0  0
    4.2116   -0.0954    0.0000 H   0  0  0  0  0  0  0  0  0  0  0  0
    3.9798   -0.8325    0.0000 H   0  0  0  0  0  0  0  0  0  0  0  0
    6.8139    1.5089    0.0000 H   0  0  0  0  0  0  0  0  0  0  0  0
    6.1236    1.1104    0.0000 H   0  0  0  0  0  0  0  0  0  0  0  0
    7.5986    0.2878    0.0000 H   0  0  0  0  0  0  0  0  0  0  0  0
    8.2888    0.6863    0.0000 H   0  0  0  0  0  0  0  0  0  0  0  0
    6.1009   -3.3902    0.0000 H   0  0  0  0  0  0  0  0  0  0  0  0
    3.2950   -1.7702    0.0000 H   0  0  0  0  0  0  0  0  0  0  0  0
    8.3139    2.3749    0.0000 H   0  0  0  0  0  0  0  0  0  0  0  0
    7.6236    1.9764    0.0000 H   0  0  0  0  0  0  0  0  0  0  0  0
    2.8923   -6.1316    0.0000 H   0  0  0  0  0  0  0  0  0  0  0  0
    3.5826   -5.7331    0.0000 H   0  0  0  0  0  0  0  0  0  0  0  0
    2.0000   -4.9010    0.0000 H   0  0  0  0  0  0  0  0  0  0  0  0
    1.3800   -5.5210    0.0000 H   0  0  0  0  0  0  0  0  0  0  0  0
    2.0000   -6.1410    0.0000 H   0  0  0  0  0  0  0  0  0  0  0  0
   10.9091    1.5769    0.0000 H   0  0  0  0  0  0  0  0  0  0  0  0
   11.7847    1.5310    0.0000 H   0  0  0  0  0  0  0  0  0  0  0  0
   11.8306    2.4066    0.0000 H   0  0  0  0  0  0  0  0  0  0  0  0
   11.4251    5.4787    0.0000 H   0  0  0  0  0  0  0  0  0  0  0  0
   12.5664    2.9154    0.0000 H   0  0  0  0  0  0  0  0  0  0  0  0
   12.9051    6.1377    0.0000 H   0  0  0  0  0  0  0  0  0  0  0  0
   14.2157    5.1854    0.0000 H   0  0  0  0  0  0  0  0  0  0  0  0
  1 21  1  0  0  0  0
  1 24  1  0  0  0  0
  2 19  1  0  0  0  0
  2 22  1  0  0  0  0
  3  9  1  0  0  0  0
  3 10  1  0  0  0  0
  3 15  1  0  0  0  0
  4 20  1  0  0  0  0
  4 22  2  0  0  0  0
  5 24  1  0  0  0  0
  5 26  1  0  0  0  0
  5 27  1  0  0  0  0
  6  7  1  0  0  0  0
  6 24  2  0  0  0  0
  7 26  2  0  0  0  0
  8 30  1  0  0  0  0
  8 32  2  0  0  0  0
  9 11  1  0  0  0  0
  9 33  1  0  0  0  0
  9 34  1  0  0  0  0
 10 12  1  0  0  0  0
 10 35  1  0  0  0  0
 10 36  1  0  0  0  0
 11 13  1  0  0  0  0
 11 37  1  0  0  0  0
 11 38  1  0  0  0  0
 12 14  1  0  0  0  0
 12 39  1  0  0  0  0
 12 40  1  0  0  0  0
 13 14  1  0  0  0  0
 13 17  2  0  0  0  0
 14 18  2  0  0  0  0
 15 16  1  0  0  0  0
 15 41  1  0  0  0  0
 15 42  1  0  0  0  0
 16 21  1  0  0  0  0
 16 43  1  0  0  0  0
 16 44  1  0  0  0  0
 17 19  1  0  0  0  0
 17 45  1  0  0  0  0
 18 20  1  0  0  0  0
 18 46  1  0  0  0  0
 19 20  2  0  0  0  0
 21 47  1  0  0  0  0
 21 48  1  0  0  0  0
 22 23  1  0  0  0  0
 23 25  1  0  0  0  0
 23 49  1  0  0  0  0
 23 50  1  0  0  0  0
 25 51  1  0  0  0  0
 25 52  1  0  0  0  0
 25 53  1  0  0  0  0
 26 28  1  0  0  0  0
 27 54  1  0  0  0  0
 27 55  1  0  0  0  0
 27 56  1  0  0  0  0
 28 29  1  0  0  0  0
 28 30  2  0  0  0  0
 29 31  2  0  0  0  0
 29 57  1  0  0  0  0
 30 58  1  0  0  0  0
 31 32  1  0  0  0  0
 31 59  1  0  0  0  0
 32 60  1  0  0  0  0
M  END
> <PUBCHEM_COMPOUND_CID>
11712044

> <PUBCHEM_COMPOUND_CANONICALIZED>
1

> <PUBCHEM_CACTVS_COMPLEXITY>
599

> <PUBCHEM_CACTVS_HBOND_ACCEPTOR>
7

> <PUBCHEM_CACTVS_HBOND_DONOR>
0

> <PUBCHEM_CACTVS_ROTATABLE_BOND>
7

> <PUBCHEM_CACTVS_SUBSKEYS>
AAADceB7oABAAAAAAAAAAAAAAAAAAWLAAAA8QAAABYAAAFgB/gAAHgQIAAAADAzF3wS/1rcMFEiqA7d3dASS2Ct/YrAd2CG/bNiOLvLk/buPOSjkzBPY6YeY2bKOqAABQAAQEABQAAKAACAgAAAAAAAAAA==

> <PUBCHEM_IUPAC_OPENEYE_NAME>
2-ethyl-7-[3-[[4-methyl-5-(3-pyridyl)-1,2,4-triazol-3-yl]sulfanyl]propyl]-5,6,8,9-tetrahydrooxazolo[4,5-h][3]benzazepine

> <PUBCHEM_IUPAC_CAS_NAME>
2-ethyl-7-[3-[[4-methyl-5-(3-pyridinyl)-1,2,4-triazol-3-yl]thio]propyl]-5,6,8,9-tetrahydrooxazolo[4,5-h][3]benzazepine

> <PUBCHEM_IUPAC_NAME_MARKUP>
2-ethyl-7-[3-[(4-methyl-5-pyridin-3-yl-1,2,4-triazol-3-yl)sulfanyl]propyl]-5,6,8,9-tetrahydro-[1,3]oxazolo[4,5-h][3]benzazepine

> <PUBCHEM_IUPAC_NAME>
2-ethyl-7-[3-[(4-methyl-5-pyridin-3-yl-1,2,4-triazol-3-yl)sulfanyl]propyl]-5,6,8,9-tetrahydro-[1,3]oxazolo[4,5-h][3]benzazepine

> <PUBCHEM_IUPAC_SYSTEMATIC_NAME>
2-ethyl-7-[3-[(4-methyl-5-pyridin-3-yl-1,2,4-triazol-3-yl)sulfanyl]propyl]-5,6,8,9-tetrahydro-[1,3]oxazolo[4,5-h][3]benzazepine

> <PUBCHEM_IUPAC_TRADITIONAL_NAME>
2-ethyl-7-[3-[[4-methyl-5-(3-pyridyl)-1,2,4-triazol-3-yl]thio]propyl]-5,6,8,9-tetrahydrooxazolo[4,5-h][3]benzazepine

> <PUBCHEM_IUPAC_INCHI>
InChI=1S/C24H28N6OS/c1-3-22-26-20-14-17-7-11-30(12-8-18(17)15-21(20)31-22)10-5-13-32-24-28-27-23(29(24)2)19-6-4-9-25-16-19/h4,6,9,14-16H,3,5,7-8,10-13H2,1-2H3

> <PUBCHEM_IUPAC_INCHIKEY>
WSSKPYCMFWWDPQ-UHFFFAOYSA-N

> <PUBCHEM_XLOGP3_AA>
3.9

> <PUBCHEM_EXACT_MASS>
448.20453071

> <PUBCHEM_MOLECULAR_FORMULA>
C24H28N6OS

> <PUBCHEM_MOLECULAR_WEIGHT>
448.6

> <PUBCHEM_OPENEYE_CAN_SMILES>
CCC1=NC2=C(O1)C=C3CCN(CCC3=C2)CCCSC4=NN=C(N4C)C5=CN=CC=C5

> <PUBCHEM_OPENEYE_ISO_SMILES>
CCC1=NC2=C(O1)C=C3CCN(CCC3=C2)CCCSC4=NN=C(N4C)C5=CN=CC=C5

> <PUBCHEM_CACTVS_TPSA>
98.2

> <PUBCHEM_MONOISOTOPIC_WEIGHT>
448.20453071

> <PUBCHEM_TOTAL_CHARGE>
0

> <PUBCHEM_HEAVY_ATOM_COUNT>
32

> <PUBCHEM_ATOM_DEF_STEREO_COUNT>
0

> <PUBCHEM_ATOM_UDEF_STEREO_COUNT>
0

> <PUBCHEM_BOND_DEF_STEREO_COUNT>
0

> <PUBCHEM_BOND_UDEF_STEREO_COUNT>
0

> <PUBCHEM_ISOTOPIC_ATOM_COUNT>
0

> <PUBCHEM_COMPONENT_COUNT>
1

> <PUBCHEM_CACTVS_TAUTO_COUNT>
-1

> <PUBCHEM_COORDINATE_TYPE>
1
5
255

> <PUBCHEM_BONDANNOTATIONS>
13  14  8
13  17  8
14  18  8
17  19  8
18  20  8
19  20  8
2  19  8
2  22  8
28  29  8
28  30  8
29  31  8
31  32  8
4  20  8
4  22  8
5  24  8
5  26  8
6  24  8
6  7  8
7  26  8
8  30  8
8  32  8

$$$$
