11134444
  -OEChem-09292322252D

 56 59  0     0  0  0  0  0  0999 V2000
    4.6783   -2.0916    0.0000 S   0  0  0  0  0  0  0  0  0  0  0  0
   14.7619    3.0432    0.0000 F   0  0  0  0  0  0  0  0  0  0  0  0
   15.1279    1.6772    0.0000 F   0  0  0  0  0  0  0  0  0  0  0  0
   13.3959    2.6772    0.0000 F   0  0  0  0  0  0  0  0  0  0  0  0
    5.4883   -2.6780    0.0000 O   0  0  0  0  0  0  0  0  0  0  0  0
    4.3709   -3.0432    0.0000 O   0  0  0  0  0  0  0  0  0  0  0  0
    4.9889    0.4684    0.0000 O   0  0  0  0  0  0  0  0  0  0  0  0
    9.2619    0.4451    0.0000 N   0  0  0  0  0  0  0  0  0  0  0  0
   11.2619    0.4451    0.0000 N   0  0  0  0  0  0  0  0  0  0  0  0
    5.2619   -1.2869    0.0000 N   0  0  0  0  0  0  0  0  0  0  0  0
    9.7619   -0.4209    0.0000 C   0  0  0  0  0  0  0  0  0  0  0  0
    9.7619    1.3112    0.0000 C   0  0  0  0  0  0  0  0  0  0  0  0
    8.2619    0.4451    0.0000 C   0  0  0  0  0  0  0  0  0  0  0  0
   10.7619   -0.4209    0.0000 C   0  0  0  0  0  0  0  0  0  0  0  0
   10.7619    1.3112    0.0000 C   0  0  0  0  0  0  0  0  0  0  0  0
    7.7619   -0.4209    0.0000 C   0  0  0  0  0  0  0  0  0  0  0  0
    6.7619   -0.4209    0.0000 C   0  0  0  0  0  0  0  0  0  0  0  0
    6.2619   -1.2869    0.0000 C   0  0  0  0  0  0  0  0  0  0  0  0
   12.2619    0.4451    0.0000 C   0  0  0  0  0  0  0  0  0  0  0  0
    3.7320   -1.7869    0.0000 C   0  0  0  0  0  0  0  0  0  0  0  0
    4.6783   -0.4822    0.0000 C   0  0  0  0  0  0  0  0  0  0  0  0
    3.7320   -0.7869    0.0000 C   0  0  0  0  0  0  0  0  0  0  0  0
   12.7619    1.3112    0.0000 C   0  0  0  0  0  0  0  0  0  0  0  0
   12.7619   -0.4209    0.0000 C   0  0  0  0  0  0  0  0  0  0  0  0
    2.8660   -2.2869    0.0000 C   0  0  0  0  0  0  0  0  0  0  0  0
    2.8660   -0.2869    0.0000 C   0  0  0  0  0  0  0  0  0  0  0  0
   13.7619    1.3112    0.0000 C   0  0  0  0  0  0  0  0  0  0  0  0
   13.7619   -0.4209    0.0000 C   0  0  0  0  0  0  0  0  0  0  0  0
    2.0000   -1.7869    0.0000 C   0  0  0  0  0  0  0  0  0  0  0  0
   14.2619    0.4451    0.0000 C   0  0  0  0  0  0  0  0  0  0  0  0
    2.0000   -0.7869    0.0000 C   0  0  0  0  0  0  0  0  0  0  0  0
   14.2619    2.1772    0.0000 C   0  0  0  0  0  0  0  0  0  0  0  0
    9.1793   -0.6329    0.0000 H   0  0  0  0  0  0  0  0  0  0  0  0
    9.8695   -1.0315    0.0000 H   0  0  0  0  0  0  0  0  0  0  0  0
    9.8695    1.9218    0.0000 H   0  0  0  0  0  0  0  0  0  0  0  0
    9.1793    1.5232    0.0000 H   0  0  0  0  0  0  0  0  0  0  0  0
    8.3695    1.0557    0.0000 H   0  0  0  0  0  0  0  0  0  0  0  0
    7.6793    0.6572    0.0000 H   0  0  0  0  0  0  0  0  0  0  0  0
   10.6542   -1.0315    0.0000 H   0  0  0  0  0  0  0  0  0  0  0  0
   11.3445   -0.6329    0.0000 H   0  0  0  0  0  0  0  0  0  0  0  0
   11.3445    1.5232    0.0000 H   0  0  0  0  0  0  0  0  0  0  0  0
   10.6542    1.9218    0.0000 H   0  0  0  0  0  0  0  0  0  0  0  0
    7.6542   -1.0315    0.0000 H   0  0  0  0  0  0  0  0  0  0  0  0
    8.3445   -0.6329    0.0000 H   0  0  0  0  0  0  0  0  0  0  0  0
    6.8695    0.1897    0.0000 H   0  0  0  0  0  0  0  0  0  0  0  0
    6.1793   -0.2088    0.0000 H   0  0  0  0  0  0  0  0  0  0  0  0
    6.1542   -1.8975    0.0000 H   0  0  0  0  0  0  0  0  0  0  0  0
    6.8445   -1.4990    0.0000 H   0  0  0  0  0  0  0  0  0  0  0  0
   12.4519    1.8481    0.0000 H   0  0  0  0  0  0  0  0  0  0  0  0
   12.4519   -0.9578    0.0000 H   0  0  0  0  0  0  0  0  0  0  0  0
    2.8660   -2.9069    0.0000 H   0  0  0  0  0  0  0  0  0  0  0  0
    2.8660    0.3331    0.0000 H   0  0  0  0  0  0  0  0  0  0  0  0
   14.0719   -0.9578    0.0000 H   0  0  0  0  0  0  0  0  0  0  0  0
    1.4631   -2.0969    0.0000 H   0  0  0  0  0  0  0  0  0  0  0  0
   14.8819    0.4451    0.0000 H   0  0  0  0  0  0  0  0  0  0  0  0
    1.4631   -0.4769    0.0000 H   0  0  0  0  0  0  0  0  0  0  0  0
  1  5  2  0  0  0  0
  1  6  2  0  0  0  0
  1 10  1  0  0  0  0
  1 20  1  0  0  0  0
  2 32  1  0  0  0  0
  3 32  1  0  0  0  0
  4 32  1  0  0  0  0
  7 21  2  0  0  0  0
  8 11  1  0  0  0  0
  8 12  1  0  0  0  0
  8 13  1  0  0  0  0
  9 14  1  0  0  0  0
  9 15  1  0  0  0  0
  9 19  1  0  0  0  0
 10 18  1  0  0  0  0
 10 21  1  0  0  0  0
 11 14  1  0  0  0  0
 11 33  1  0  0  0  0
 11 34  1  0  0  0  0
 12 15  1  0  0  0  0
 12 35  1  0  0  0  0
 12 36  1  0  0  0  0
 13 16  1  0  0  0  0
 13 37  1  0  0  0  0
 13 38  1  0  0  0  0
 14 39  1  0  0  0  0
 14 40  1  0  0  0  0
 15 41  1  0  0  0  0
 15 42  1  0  0  0  0
 16 17  1  0  0  0  0
 16 43  1  0  0  0  0
 16 44  1  0  0  0  0
 17 18  1  0  0  0  0
 17 45  1  0  0  0  0
 17 46  1  0  0  0  0
 18 47  1  0  0  0  0
 18 48  1  0  0  0  0
 19 23  1  0  0  0  0
 19 24  2  0  0  0  0
 20 22  1  0  0  0  0
 20 25  2  0  0  0  0
 21 22  1  0  0  0  0
 22 26  2  0  0  0  0
 23 27  2  0  0  0  0
 23 49  1  0  0  0  0
 24 28  1  0  0  0  0
 24 50  1  0  0  0  0
 25 29  1  0  0  0  0
 25 51  1  0  0  0  0
 26 31  1  0  0  0  0
 26 52  1  0  0  0  0
 27 30  1  0  0  0  0
 27 32  1  0  0  0  0
 28 30  2  0  0  0  0
 28 53  1  0  0  0  0
 29 31  2  0  0  0  0
 29 54  1  0  0  0  0
 30 55  1  0  0  0  0
 31 56  1  0  0  0  0
M  END
> <PUBCHEM_COMPOUND_CID>
11134444

> <PUBCHEM_COMPOUND_CANONICALIZED>
1

> <PUBCHEM_CACTVS_COMPLEXITY>
763

> <PUBCHEM_CACTVS_HBOND_ACCEPTOR>
8

> <PUBCHEM_CACTVS_HBOND_DONOR>
0

> <PUBCHEM_CACTVS_ROTATABLE_BOND>
6

> <PUBCHEM_CACTVS_SUBSKEYS>
AAADceB7MYBAAAAAAAAAAAAAAAAAAWAAAAA8YIAAAAAAAFgBQAAAHwQAQAAADAjB2BQwwYMAAAKIAiVSUHDCABAlAgAIiBkIZMgIYDLAlZGUIQhghgDIyYcYiACOAAAAQAAEAAAAAACAAAgAAAAAAAAAAA==

> <PUBCHEM_IUPAC_OPENEYE_NAME>
1,1-dioxo-2-[4-[4-[3-(trifluoromethyl)phenyl]piperazin-1-yl]butyl]-1,2-benzothiazol-3-one

> <PUBCHEM_IUPAC_CAS_NAME>
1,1-dioxo-2-[4-[4-[3-(trifluoromethyl)phenyl]-1-piperazinyl]butyl]-1,2-benzothiazol-3-one

> <PUBCHEM_IUPAC_NAME_MARKUP>
1,1-dioxo-2-[4-[4-[3-(trifluoromethyl)phenyl]piperazin-1-yl]butyl]-1,2-benzothiazol-3-one

> <PUBCHEM_IUPAC_NAME>
1,1-dioxo-2-[4-[4-[3-(trifluoromethyl)phenyl]piperazin-1-yl]butyl]-1,2-benzothiazol-3-one

> <PUBCHEM_IUPAC_SYSTEMATIC_NAME>
1,1-bis(oxidanylidene)-2-[4-[4-[3-(trifluoromethyl)phenyl]piperazin-1-yl]butyl]-1,2-benzothiazol-3-one

> <PUBCHEM_IUPAC_TRADITIONAL_NAME>
1,1-diketo-2-[4-[4-[3-(trifluoromethyl)phenyl]piperazino]butyl]-1,2-benzothiazol-3-one

> <PUBCHEM_IUPAC_INCHI>
InChI=1S/C22H24F3N3O3S/c23-22(24,25)17-6-5-7-18(16-17)27-14-12-26(13-15-27)10-3-4-11-28-21(29)19-8-1-2-9-20(19)32(28,30)31/h1-2,5-9,16H,3-4,10-15H2

> <PUBCHEM_IUPAC_INCHIKEY>
BFNRVMJMTPNWFK-UHFFFAOYSA-N

> <PUBCHEM_XLOGP3_AA>
3.8

> <PUBCHEM_EXACT_MASS>
467.14904730

> <PUBCHEM_MOLECULAR_FORMULA>
C22H24F3N3O3S

> <PUBCHEM_MOLECULAR_WEIGHT>
467.5

> <PUBCHEM_OPENEYE_CAN_SMILES>
C1CN(CCN1CCCCN2C(=O)C3=CC=CC=C3S2(=O)=O)C4=CC=CC(=C4)C(F)(F)F

> <PUBCHEM_OPENEYE_ISO_SMILES>
C1CN(CCN1CCCCN2C(=O)C3=CC=CC=C3S2(=O)=O)C4=CC=CC(=C4)C(F)(F)F

> <PUBCHEM_CACTVS_TPSA>
69.3

> <PUBCHEM_MONOISOTOPIC_WEIGHT>
467.14904730

> <PUBCHEM_TOTAL_CHARGE>
0

> <PUBCHEM_HEAVY_ATOM_COUNT>
32

> <PUBCHEM_ATOM_DEF_STEREO_COUNT>
0

> <PUBCHEM_ATOM_UDEF_STEREO_COUNT>
0

> <PUBCHEM_BOND_DEF_STEREO_COUNT>
0

> <PUBCHEM_BOND_UDEF_STEREO_COUNT>
0

> <PUBCHEM_ISOTOPIC_ATOM_COUNT>
0

> <PUBCHEM_COMPONENT_COUNT>
1

> <PUBCHEM_CACTVS_TAUTO_COUNT>
-1

> <PUBCHEM_COORDINATE_TYPE>
1
5
255

> <PUBCHEM_BONDANNOTATIONS>
19  23  8
19  24  8
20  22  8
20  25  8
22  26  8
23  27  8
24  28  8
25  29  8
26  31  8
27  30  8
28  30  8
29  31  8

$$$$
