44297514
  -OEChem-09292322222D

 64 67  0     1  0  0  0  0  0999 V2000
    3.7359    0.5518    0.0000 S   0  0  0  0  0  0  0  0  0  0  0  0
    2.0000    1.5452    0.0000 F   0  0  0  0  0  0  0  0  0  0  0  0
    2.3713    0.1806    0.0000 F   0  0  0  0  0  0  0  0  0  0  0  0
    3.3646    1.9164    0.0000 F   0  0  0  0  0  0  0  0  0  0  0  0
    4.6038    0.0552    0.0000 O   0  0  0  0  0  0  0  0  0  0  0  0
    3.2392   -0.3161    0.0000 O   0  0  0  0  0  0  0  0  0  0  0  0
    4.2326    1.4198    0.0000 O   0  0  0  0  0  0  0  0  0  0  0  0
   14.1962    1.5513    0.0000 O   0  0  0  0  0  0  0  0  0  0  0  0
   21.1904   -1.4728    0.0000 O   0  0  0  0  0  0  0  0  0  0  0  0
    9.0000    0.5513    0.0000 N   0  0  3  0  0  0  0  0  0  0  0  0
   13.3302    0.0513    0.0000 N   0  0  0  0  0  0  0  0  0  0  0  0
   19.4203   -1.4833    0.0000 N   0  0  0  0  0  0  0  0  0  0  0  0
    8.9960    1.5930    0.0000 C   0  0  0  0  0  0  0  0  0  0  0  0
    8.0960    0.0340    0.0000 C   0  0  0  0  0  0  0  0  0  0  0  0
    8.0880    2.1033    0.0000 C   0  0  0  0  0  0  0  0  0  0  0  0
    9.8661    0.0513    0.0000 C   0  0  0  0  0  0  0  0  0  0  0  0
    7.2000    0.5652    0.0000 C   0  0  0  0  0  0  0  0  0  0  0  0
    7.1961    1.5652    0.0000 C   0  0  0  0  0  0  0  0  0  0  0  0
   10.7321    0.5513    0.0000 C   0  0  0  0  0  0  0  0  0  0  0  0
   11.5981    0.0513    0.0000 C   0  0  0  0  0  0  0  0  0  0  0  0
    6.3359    0.0619    0.0000 C   0  0  0  0  0  0  0  0  0  0  0  0
    6.3282    2.0619    0.0000 C   0  0  0  0  0  0  0  0  0  0  0  0
    5.4679    0.5585    0.0000 C   0  0  0  0  0  0  0  0  0  0  0  0
   12.4641    0.5513    0.0000 C   0  0  0  0  0  0  0  0  0  0  0  0
    5.4641    1.5585    0.0000 C   0  0  0  0  0  0  0  0  0  0  0  0
   14.1962    0.5513    0.0000 C   0  0  0  0  0  0  0  0  0  0  0  0
    2.8680    1.0485    0.0000 C   0  0  0  0  0  0  0  0  0  0  0  0
   15.0622    0.0513    0.0000 C   0  0  0  0  0  0  0  0  0  0  0  0
   16.7943    0.0513    0.0000 C   0  0  0  0  0  0  0  0  0  0  0  0
   15.9282    0.5513    0.0000 C   0  0  0  0  0  0  0  0  0  0  0  0
   18.5263    0.0513    0.0000 C   0  0  0  0  0  0  0  0  0  0  0  0
   18.5263   -0.9487    0.0000 C   0  0  0  0  0  0  0  0  0  0  0  0
   17.6603    0.5513    0.0000 C   0  0  0  0  0  0  0  0  0  0  0  0
   16.7943   -0.9487    0.0000 C   0  0  0  0  0  0  0  0  0  0  0  0
   17.6603   -1.4487    0.0000 C   0  0  0  0  0  0  0  0  0  0  0  0
   19.4203    0.5860    0.0000 C   0  0  0  0  0  0  0  0  0  0  0  0
   20.3263    0.0721    0.0000 C   0  0  0  0  0  0  0  0  0  0  0  0
   20.3263   -0.9695    0.0000 C   0  0  0  0  0  0  0  0  0  0  0  0
    9.6073    1.4892    0.0000 H   0  0  0  0  0  0  0  0  0  0  0  0
    9.2028    2.1774    0.0000 H   0  0  0  0  0  0  0  0  0  0  0  0
    7.6932   -0.4374    0.0000 H   0  0  0  0  0  0  0  0  0  0  0  0
    8.4914   -0.4435    0.0000 H   0  0  0  0  0  0  0  0  0  0  0  0
    8.4798    2.5838    0.0000 H   0  0  0  0  0  0  0  0  0  0  0  0
    7.6816    2.5715    0.0000 H   0  0  0  0  0  0  0  0  0  0  0  0
    9.4675   -0.4236    0.0000 H   0  0  0  0  0  0  0  0  0  0  0  0
   10.2646   -0.4236    0.0000 H   0  0  0  0  0  0  0  0  0  0  0  0
   11.1306    1.0263    0.0000 H   0  0  0  0  0  0  0  0  0  0  0  0
   10.3336    1.0263    0.0000 H   0  0  0  0  0  0  0  0  0  0  0  0
   11.1996   -0.4236    0.0000 H   0  0  0  0  0  0  0  0  0  0  0  0
   11.9966   -0.4236    0.0000 H   0  0  0  0  0  0  0  0  0  0  0  0
    6.3383   -0.5581    0.0000 H   0  0  0  0  0  0  0  0  0  0  0  0
    6.3258    2.6818    0.0000 H   0  0  0  0  0  0  0  0  0  0  0  0
   12.8627    1.0263    0.0000 H   0  0  0  0  0  0  0  0  0  0  0  0
   12.0656    1.0263    0.0000 H   0  0  0  0  0  0  0  0  0  0  0  0
    4.9260    1.8664    0.0000 H   0  0  0  0  0  0  0  0  0  0  0  0
   13.3302   -0.5687    0.0000 H   0  0  0  0  0  0  0  0  0  0  0  0
   15.0622   -0.5687    0.0000 H   0  0  0  0  0  0  0  0  0  0  0  0
   15.9282    1.1713    0.0000 H   0  0  0  0  0  0  0  0  0  0  0  0
   17.6603    1.1713    0.0000 H   0  0  0  0  0  0  0  0  0  0  0  0
   16.2573   -1.2587    0.0000 H   0  0  0  0  0  0  0  0  0  0  0  0
   17.6603   -2.0687    0.0000 H   0  0  0  0  0  0  0  0  0  0  0  0
   19.4131    1.2059    0.0000 H   0  0  0  0  0  0  0  0  0  0  0  0
   19.4131   -2.1033    0.0000 H   0  0  0  0  0  0  0  0  0  0  0  0
   20.8621    0.3842    0.0000 H   0  0  0  0  0  0  0  0  0  0  0  0
  1  5  1  0  0  0  0
  1  6  2  0  0  0  0
  1  7  2  0  0  0  0
  1 27  1  0  0  0  0
  2 27  1  0  0  0  0
  3 27  1  0  0  0  0
  4 27  1  0  0  0  0
  5 23  1  0  0  0  0
  8 26  2  0  0  0  0
  9 38  2  0  0  0  0
 10 13  1  0  0  0  0
 10 14  1  0  0  0  0
 10 16  1  0  0  0  0
 11 24  1  0  0  0  0
 11 26  1  0  0  0  0
 11 56  1  0  0  0  0
 12 32  1  0  0  0  0
 12 38  1  0  0  0  0
 12 63  1  0  0  0  0
 13 15  1  0  0  0  0
 13 39  1  0  0  0  0
 13 40  1  0  0  0  0
 14 17  1  0  0  0  0
 14 41  1  0  0  0  0
 14 42  1  0  0  0  0
 15 18  1  0  0  0  0
 15 43  1  0  0  0  0
 15 44  1  0  0  0  0
 16 19  1  0  0  0  0
 16 45  1  0  0  0  0
 16 46  1  0  0  0  0
 17 18  2  0  0  0  0
 17 21  1  0  0  0  0
 18 22  1  0  0  0  0
 19 20  1  0  0  0  0
 19 47  1  0  0  0  0
 19 48  1  0  0  0  0
 20 24  1  0  0  0  0
 20 49  1  0  0  0  0
 20 50  1  0  0  0  0
 21 23  2  0  0  0  0
 21 51  1  0  0  0  0
 22 25  2  0  0  0  0
 22 52  1  0  0  0  0
 23 25  1  0  0  0  0
 24 53  1  0  0  0  0
 24 54  1  0  0  0  0
 25 55  1  0  0  0  0
 26 28  1  0  0  0  0
 28 30  2  0  0  0  0
 28 57  1  0  0  0  0
 29 30  1  0  0  0  0
 29 33  2  0  0  0  0
 29 34  1  0  0  0  0
 30 58  1  0  0  0  0
 31 32  2  0  0  0  0
 31 33  1  0  0  0  0
 31 36  1  0  0  0  0
 32 35  1  0  0  0  0
 33 59  1  0  0  0  0
 34 35  2  0  0  0  0
 34 60  1  0  0  0  0
 35 61  1  0  0  0  0
 36 37  2  0  0  0  0
 36 62  1  0  0  0  0
 37 38  1  0  0  0  0
 37 64  1  0  0  0  0
M  END
> <PUBCHEM_COMPOUND_CID>
44297514

> <PUBCHEM_COMPOUND_CANONICALIZED>
1

> <PUBCHEM_CACTVS_COMPLEXITY>
1010

> <PUBCHEM_CACTVS_HBOND_ACCEPTOR>
9

> <PUBCHEM_CACTVS_HBOND_DONOR>
2

> <PUBCHEM_CACTVS_ROTATABLE_BOND>
9

> <PUBCHEM_CACTVS_SUBSKEYS>
AAADceB7OYBAAAAAAAAAAAAAAAAAAAAAAAA8YIEAAAAAAACxQAAAHwQQAAAADAzBmBQwxoPAAAKIAiVSUHCCAAAhIgAIiIAObMgIJiLAkZOEMAhk1hHIyYewwNAOqAADAAASAABQAAYAACQAAAAAAAAAAA==

> <PUBCHEM_IUPAC_OPENEYE_NAME>
[2-[4-[[(E)-3-(2-oxo-1H-quinolin-6-yl)prop-2-enoyl]amino]butyl]-3,4-dihydro-1H-isoquinolin-7-yl] trifluoromethanesulfonate

> <PUBCHEM_IUPAC_CAS_NAME>
trifluoromethanesulfonic acid [2-[4-[[(E)-1-oxo-3-(2-oxo-1H-quinolin-6-yl)prop-2-enyl]amino]butyl]-3,4-dihydro-1H-isoquinolin-7-yl] ester

> <PUBCHEM_IUPAC_NAME_MARKUP>
[2-[4-[[(<I>E</I>)-3-(2-oxo-1<I>H</I>-quinolin-6-yl)prop-2-enoyl]amino]butyl]-3,4-dihydro-1<I>H</I>-isoquinolin-7-yl] trifluoromethanesulfonate

> <PUBCHEM_IUPAC_NAME>
[2-[4-[[(E)-3-(2-oxo-1H-quinolin-6-yl)prop-2-enoyl]amino]butyl]-3,4-dihydro-1H-isoquinolin-7-yl] trifluoromethanesulfonate

> <PUBCHEM_IUPAC_SYSTEMATIC_NAME>
[2-[4-[[(E)-3-(2-oxidanylidene-1H-quinolin-6-yl)prop-2-enoyl]amino]butyl]-3,4-dihydro-1H-isoquinolin-7-yl] tris(fluoranyl)methanesulfonate

> <PUBCHEM_IUPAC_TRADITIONAL_NAME>
trifluoromethanesulfonic acid [2-[4-[[(E)-3-(2-keto-1H-quinolin-6-yl)acryloyl]amino]butyl]-3,4-dihydro-1H-isoquinolin-7-yl] ester

> <PUBCHEM_IUPAC_INCHI>
InChI=1S/C26H26F3N3O5S/c27-26(28,29)38(35,36)37-22-7-5-19-11-14-32(17-21(19)16-22)13-2-1-12-30-24(33)9-4-18-3-8-23-20(15-18)6-10-25(34)31-23/h3-10,15-16H,1-2,11-14,17H2,(H,30,33)(H,31,34)/b9-4+

> <PUBCHEM_IUPAC_INCHIKEY>
SJAPPPAALBAIBC-RUDMXATFSA-N

> <PUBCHEM_XLOGP3_AA>
4.1

> <PUBCHEM_EXACT_MASS>
549.15452660

> <PUBCHEM_MOLECULAR_FORMULA>
C26H26F3N3O5S

> <PUBCHEM_MOLECULAR_WEIGHT>
549.6

> <PUBCHEM_OPENEYE_CAN_SMILES>
C1CN(CC2=C1C=CC(=C2)OS(=O)(=O)C(F)(F)F)CCCCNC(=O)C=CC3=CC4=C(C=C3)NC(=O)C=C4

> <PUBCHEM_OPENEYE_ISO_SMILES>
C1CN(CC2=C1C=CC(=C2)OS(=O)(=O)C(F)(F)F)CCCCNC(=O)/C=C/C3=CC4=C(C=C3)NC(=O)C=C4

> <PUBCHEM_CACTVS_TPSA>
113

> <PUBCHEM_MONOISOTOPIC_WEIGHT>
549.15452660

> <PUBCHEM_TOTAL_CHARGE>
0

> <PUBCHEM_HEAVY_ATOM_COUNT>
38

> <PUBCHEM_ATOM_DEF_STEREO_COUNT>
0

> <PUBCHEM_ATOM_UDEF_STEREO_COUNT>
0

> <PUBCHEM_BOND_DEF_STEREO_COUNT>
1

> <PUBCHEM_BOND_UDEF_STEREO_COUNT>
0

> <PUBCHEM_ISOTOPIC_ATOM_COUNT>
0

> <PUBCHEM_COMPONENT_COUNT>
1

> <PUBCHEM_CACTVS_TAUTO_COUNT>
-1

> <PUBCHEM_COORDINATE_TYPE>
1
5
255

> <PUBCHEM_BONDANNOTATIONS>
12  32  8
12  38  8
17  18  8
17  21  8
18  22  8
21  23  8
22  25  8
23  25  8
29  33  8
29  34  8
31  32  8
31  33  8
31  36  8
32  35  8
34  35  8
36  37  8
37  38  8

$$$$
