45264515
  -OEChem-09292322502D

 39 40  0     0  0  0  0  0  0999 V2000
    3.9734    0.0000    0.0000 Cl  0  0  0  0  0  0  0  0  0  0  0  0
    4.8978    3.9600    0.0000 O   0  0  0  0  0  0  0  0  0  0  0  0
    4.5888    6.5291    0.0000 O   0  0  0  0  0  0  0  0  0  0  0  0
    2.3100    4.7690    0.0000 N   0  0  0  0  0  0  0  0  0  0  0  0
    4.3100    4.7690    0.0000 C   0  0  0  0  0  0  0  0  0  0  0  0
    3.8100    3.9030    0.0000 C   0  0  0  0  0  0  0  0  0  0  0  0
    3.8100    5.6350    0.0000 C   0  0  0  0  0  0  0  0  0  0  0  0
    2.8100    3.9030    0.0000 C   0  0  0  0  0  0  0  0  0  0  0  0
    2.8100    5.6350    0.0000 C   0  0  0  0  0  0  0  0  0  0  0  0
    4.8978    5.5780    0.0000 C   0  0  0  0  0  0  0  0  0  0  0  0
    5.8488    5.2690    0.0000 C   0  0  0  0  0  0  0  0  0  0  0  0
    1.3100    4.7690    0.0000 C   0  0  0  0  0  0  0  0  0  0  0  0
    5.8488    4.2690    0.0000 C   0  0  0  0  0  0  0  0  0  0  0  0
    6.6579    5.8568    0.0000 C   0  0  0  0  0  0  0  0  0  0  0  0
    0.8100    3.9030    0.0000 C   0  0  0  0  0  0  0  0  0  0  0  0
    6.5533    6.8513    0.0000 C   0  0  0  0  0  0  0  0  0  0  0  0
    7.5714    5.4500    0.0000 C   0  0  0  0  0  0  0  0  0  0  0  0
    7.3624    7.4391    0.0000 C   0  0  0  0  0  0  0  0  0  0  0  0
    8.3804    6.0378    0.0000 C   0  0  0  0  0  0  0  0  0  0  0  0
    8.2759    7.0323    0.0000 C   0  0  0  0  0  0  0  0  0  0  0  0
    0.3100    3.0369    0.0000 C   0  0  0  0  0  0  0  0  0  0  0  0
    3.7023    3.2924    0.0000 H   0  0  0  0  0  0  0  0  0  0  0  0
    4.3926    3.6909    0.0000 H   0  0  0  0  0  0  0  0  0  0  0  0
    4.3926    5.8471    0.0000 H   0  0  0  0  0  0  0  0  0  0  0  0
    3.7023    6.2456    0.0000 H   0  0  0  0  0  0  0  0  0  0  0  0
    2.2274    3.6909    0.0000 H   0  0  0  0  0  0  0  0  0  0  0  0
    2.9177    3.2924    0.0000 H   0  0  0  0  0  0  0  0  0  0  0  0
    2.9177    6.2456    0.0000 H   0  0  0  0  0  0  0  0  0  0  0  0
    2.2274    5.8471    0.0000 H   0  0  0  0  0  0  0  0  0  0  0  0
    1.4177    5.3796    0.0000 H   0  0  0  0  0  0  0  0  0  0  0  0
    0.7274    4.9810    0.0000 H   0  0  0  0  0  0  0  0  0  0  0  0
    6.3504    3.9046    0.0000 H   0  0  0  0  0  0  0  0  0  0  0  0
    5.9869    7.1035    0.0000 H   0  0  0  0  0  0  0  0  0  0  0  0
    7.6362    4.8334    0.0000 H   0  0  0  0  0  0  0  0  0  0  0  0
    7.2975    8.0557    0.0000 H   0  0  0  0  0  0  0  0  0  0  0  0
    8.9468    5.7856    0.0000 H   0  0  0  0  0  0  0  0  0  0  0  0
    8.7775    7.3968    0.0000 H   0  0  0  0  0  0  0  0  0  0  0  0
    0.0000    2.5000    0.0000 H   0  0  0  0  0  0  0  0  0  0  0  0
    4.9734    0.0000    0.0000 H   0  0  0  0  0  0  0  0  0  0  0  0
  1 39  1  0  0  0  0
  2  5  1  0  0  0  0
  2 13  1  0  0  0  0
  3 10  2  0  0  0  0
  4  8  1  0  0  0  0
  4  9  1  0  0  0  0
  4 12  1  0  0  0  0
  5  6  1  0  0  0  0
  5  7  1  0  0  0  0
  5 10  1  0  0  0  0
  6  8  1  0  0  0  0
  6 22  1  0  0  0  0
  6 23  1  0  0  0  0
  7  9  1  0  0  0  0
  7 24  1  0  0  0  0
  7 25  1  0  0  0  0
  8 26  1  0  0  0  0
  8 27  1  0  0  0  0
  9 28  1  0  0  0  0
  9 29  1  0  0  0  0
 10 11  1  0  0  0  0
 11 13  2  0  0  0  0
 11 14  1  0  0  0  0
 12 15  1  0  0  0  0
 12 30  1  0  0  0  0
 12 31  1  0  0  0  0
 13 32  1  0  0  0  0
 14 16  2  0  0  0  0
 14 17  1  0  0  0  0
 15 21  3  0  0  0  0
 16 18  1  0  0  0  0
 16 33  1  0  0  0  0
 17 19  2  0  0  0  0
 17 34  1  0  0  0  0
 18 20  2  0  0  0  0
 18 35  1  0  0  0  0
 19 20  1  0  0  0  0
 19 36  1  0  0  0  0
 20 37  1  0  0  0  0
 21 38  1  0  0  0  0
M  END
> <PUBCHEM_COMPOUND_CID>
45264515

> <PUBCHEM_COMPOUND_CANONICALIZED>
1

> <PUBCHEM_CACTVS_COMPLEXITY>
457

> <PUBCHEM_CACTVS_HBOND_ACCEPTOR>
3

> <PUBCHEM_CACTVS_HBOND_DONOR>
1

> <PUBCHEM_CACTVS_ROTATABLE_BOND>
2

> <PUBCHEM_CACTVS_SUBSKEYS>
AAADceB6MAAEAAAAAAAAAAAAAAAAAQAAAAA8QAAAAAAAAAABAAAAHgAAAAAADEThmAYwAIMABADIGqBSAAICCAAgIAAIiAFIAMgIIDKAlRSEIAAmwACIiIecyOCOAAAAAAAAAAAAAAAAAAAAAAAAAAAAAA==

> <PUBCHEM_IUPAC_OPENEYE_NAME>
3-phenyl-8-prop-2-ynyl-1-oxa-8-azaspiro[4.5]dec-2-en-4-one;hydrochloride

> <PUBCHEM_IUPAC_CAS_NAME>
3-phenyl-8-prop-2-ynyl-1-oxa-8-azaspiro[4.5]dec-2-en-4-one;hydrochloride

> <PUBCHEM_IUPAC_NAME_MARKUP>
3-phenyl-8-prop-2-ynyl-1-oxa-8-azaspiro[4.5]dec-2-en-4-one;hydrochloride

> <PUBCHEM_IUPAC_NAME>
3-phenyl-8-prop-2-ynyl-1-oxa-8-azaspiro[4.5]dec-2-en-4-one;hydrochloride

> <PUBCHEM_IUPAC_SYSTEMATIC_NAME>
3-phenyl-8-prop-2-ynyl-1-oxa-8-azaspiro[4.5]dec-2-en-4-one;hydrochloride

> <PUBCHEM_IUPAC_TRADITIONAL_NAME>
3-phenyl-8-propargyl-1-oxa-8-azaspiro[4.5]dec-2-en-4-one;hydrochloride

> <PUBCHEM_IUPAC_INCHI>
InChI=1S/C17H17NO2.ClH/c1-2-10-18-11-8-17(9-12-18)16(19)15(13-20-17)14-6-4-3-5-7-14;/h1,3-7,13H,8-12H2;1H

> <PUBCHEM_IUPAC_INCHIKEY>
LBFUPSRQZSOCIF-UHFFFAOYSA-N

> <PUBCHEM_EXACT_MASS>
303.1026065

> <PUBCHEM_MOLECULAR_FORMULA>
C17H18ClNO2

> <PUBCHEM_MOLECULAR_WEIGHT>
303.8

> <PUBCHEM_OPENEYE_CAN_SMILES>
C#CCN1CCC2(CC1)C(=O)C(=CO2)C3=CC=CC=C3.Cl

> <PUBCHEM_OPENEYE_ISO_SMILES>
C#CCN1CCC2(CC1)C(=O)C(=CO2)C3=CC=CC=C3.Cl

> <PUBCHEM_CACTVS_TPSA>
29.5

> <PUBCHEM_MONOISOTOPIC_WEIGHT>
303.1026065

> <PUBCHEM_TOTAL_CHARGE>
0

> <PUBCHEM_HEAVY_ATOM_COUNT>
21

> <PUBCHEM_ATOM_DEF_STEREO_COUNT>
0

> <PUBCHEM_ATOM_UDEF_STEREO_COUNT>
0

> <PUBCHEM_BOND_DEF_STEREO_COUNT>
0

> <PUBCHEM_BOND_UDEF_STEREO_COUNT>
0

> <PUBCHEM_ISOTOPIC_ATOM_COUNT>
0

> <PUBCHEM_COMPONENT_COUNT>
2

> <PUBCHEM_CACTVS_TAUTO_COUNT>
-1

> <PUBCHEM_COORDINATE_TYPE>
1
5
255

> <PUBCHEM_BONDANNOTATIONS>
14  16  8
14  17  8
16  18  8
17  19  8
18  20  8
19  20  8

$$$$
