118736403
  -OEChem-09292322092D

119123  0     1  0  0  0  0  0999 V2000
    9.9622    5.7880    0.0000 O   0  0  0  0  0  0  0  0  0  0  0  0
   12.8172   -0.1153    0.0000 O   0  0  0  0  0  0  0  0  0  0  0  0
   16.4203    0.0180    0.0000 O   0  0  0  0  0  0  0  0  0  0  0  0
   18.3373   -3.0357    0.0000 O   0  0  0  0  0  0  0  0  0  0  0  0
   15.3595   -5.0687    0.0000 O   0  0  0  0  0  0  0  0  0  0  0  0
   21.6277   -1.9525    0.0000 O   0  0  0  0  0  0  0  0  0  0  0  0
    6.9654    6.4354    0.0000 N   0  0  3  0  0  0  0  0  0  0  0  0
    4.5124    5.3180    0.0000 N   0  0  0  0  0  0  0  0  0  0  0  0
    9.6086    4.0925    0.0000 N   0  0  0  0  0  0  0  0  0  0  0  0
   14.4624    0.4263    0.0000 N   0  0  0  0  0  0  0  0  0  0  0  0
   16.0667   -1.6775    0.0000 N   0  0  0  0  0  0  0  0  0  0  0  0
   16.6921   -3.5773    0.0000 N   0  0  0  0  0  0  0  0  0  0  0  0
   16.6512   -6.2227    0.0000 N   0  0  0  0  0  0  0  0  0  0  0  0
   20.5669   -7.0392    0.0000 N   0  0  0  0  0  0  0  0  0  0  0  0
    6.2962    5.6923    0.0000 C   0  0  1  0  0  0  0  0  0  0  0  0
    6.6028    4.6968    0.0000 C   0  0  0  0  0  0  0  0  0  0  0  0
    8.3170    5.2464    0.0000 C   0  0  2  0  0  0  0  0  0  0  0  0
    7.9875    6.2346    0.0000 C   0  0  0  0  0  0  0  0  0  0  0  0
    7.6200    4.4724    0.0000 C   0  0  0  0  0  0  0  0  0  0  0  0
    5.3181    5.9002    0.0000 C   0  0  0  0  0  0  0  0  0  0  0  0
    6.6564    7.3865    0.0000 C   0  0  0  0  0  0  0  0  0  0  0  0
    5.0091    6.8512    0.0000 C   0  0  0  0  0  0  0  0  0  0  0  0
    5.6782    7.5944    0.0000 C   0  0  0  0  0  0  0  0  0  0  0  0
    4.0150    6.8487    0.0000 C   0  0  0  0  0  0  0  0  0  0  0  0
    9.2959    5.0423    0.0000 C   0  0  0  0  0  0  0  0  0  0  0  0
    3.7086    5.9030    0.0000 C   0  0  0  0  0  0  0  0  0  0  0  0
    3.3334    7.6282    0.0000 C   0  0  0  0  0  0  0  0  0  0  0  0
    2.6994    5.6712    0.0000 C   0  0  0  0  0  0  0  0  0  0  0  0
    2.3191    7.4198    0.0000 C   0  0  0  0  0  0  0  0  0  0  0  0
   10.5875    3.8883    0.0000 C   0  0  0  0  0  0  0  0  0  0  0  0
    2.0000    6.4348    0.0000 C   0  0  0  0  0  0  0  0  0  0  0  0
   10.9002    2.9384    0.0000 C   0  0  0  0  0  0  0  0  0  0  0  0
   11.8792    2.7343    0.0000 C   0  0  0  0  0  0  0  0  0  0  0  0
   12.1918    1.7844    0.0000 C   0  0  0  0  0  0  0  0  0  0  0  0
   13.1708    1.5803    0.0000 C   0  0  0  0  0  0  0  0  0  0  0  0
   13.4835    0.6305    0.0000 C   0  0  0  0  0  0  0  0  0  0  0  0
   14.7751   -0.5235    0.0000 C   0  0  1  0  0  0  0  0  0  0  0  0
   14.1088   -1.2693    0.0000 C   0  0  0  0  0  0  0  0  0  0  0  0
   15.7540   -0.7277    0.0000 C   0  0  0  0  0  0  0  0  0  0  0  0
   14.4215   -2.2191    0.0000 C   0  0  0  0  0  0  0  0  0  0  0  0
   17.0456   -1.8817    0.0000 C   0  0  1  0  0  0  0  0  0  0  0  0
   17.7119   -1.1360    0.0000 C   0  0  0  0  0  0  0  0  0  0  0  0
   17.0047   -4.5271    0.0000 C   0  0  1  0  0  0  0  0  0  0  0  0
   13.7552   -2.9648    0.0000 C   0  0  0  0  0  0  0  0  0  0  0  0
   17.9837   -4.7313    0.0000 C   0  0  0  0  0  0  0  0  0  0  0  0
   17.3583   -2.8315    0.0000 C   0  0  0  0  0  0  0  0  0  0  0  0
   18.2964   -5.6811    0.0000 C   0  0  0  0  0  0  0  0  0  0  0  0
   18.6908   -1.3401    0.0000 C   0  0  0  0  0  0  0  0  0  0  0  0
   19.2753   -5.8852    0.0000 C   0  0  0  0  0  0  0  0  0  0  0  0
   14.0679   -3.9147    0.0000 C   0  0  0  0  0  0  0  0  0  0  0  0
   16.3385   -5.2728    0.0000 C   0  0  0  0  0  0  0  0  0  0  0  0
   19.5880   -6.8351    0.0000 C   0  0  0  0  0  0  0  0  0  0  0  0
   19.3571   -0.5944    0.0000 C   0  0  0  0  0  0  0  0  0  0  0  0
   19.0035   -2.2900    0.0000 C   0  0  0  0  0  0  0  0  0  0  0  0
   20.3360   -0.7985    0.0000 C   0  0  0  0  0  0  0  0  0  0  0  0
   19.9825   -2.4941    0.0000 C   0  0  0  0  0  0  0  0  0  0  0  0
   20.6487   -1.7484    0.0000 C   0  0  0  0  0  0  0  0  0  0  0  0
    5.7226    5.0650    0.0000 H   0  0  0  0  0  0  0  0  0  0  0  0
    5.9878    4.6184    0.0000 H   0  0  0  0  0  0  0  0  0  0  0  0
    6.5748    4.0774    0.0000 H   0  0  0  0  0  0  0  0  0  0  0  0
    8.5097    4.6572    0.0000 H   0  0  0  0  0  0  0  0  0  0  0  0
    8.6005    6.3272    0.0000 H   0  0  0  0  0  0  0  0  0  0  0  0
    8.0011    6.8544    0.0000 H   0  0  0  0  0  0  0  0  0  0  0  0
    7.3848    3.8987    0.0000 H   0  0  0  0  0  0  0  0  0  0  0  0
    8.1449    4.1425    0.0000 H   0  0  0  0  0  0  0  0  0  0  0  0
    7.2703    7.4728    0.0000 H   0  0  0  0  0  0  0  0  0  0  0  0
    6.6780    8.0061    0.0000 H   0  0  0  0  0  0  0  0  0  0  0  0
    5.9105    8.1692    0.0000 H   0  0  0  0  0  0  0  0  0  0  0  0
    5.1524    7.9229    0.0000 H   0  0  0  0  0  0  0  0  0  0  0  0
    4.5113    4.6980    0.0000 H   0  0  0  0  0  0  0  0  0  0  0  0
    3.5313    8.2157    0.0000 H   0  0  0  0  0  0  0  0  0  0  0  0
    9.1955    3.6301    0.0000 H   0  0  0  0  0  0  0  0  0  0  0  0
    2.5152    5.0792    0.0000 H   0  0  0  0  0  0  0  0  0  0  0  0
    1.9056    7.8818    0.0000 H   0  0  0  0  0  0  0  0  0  0  0  0
   11.2012    3.9770    0.0000 H   0  0  0  0  0  0  0  0  0  0  0  0
   10.6068    4.5080    0.0000 H   0  0  0  0  0  0  0  0  0  0  0  0
    1.3942    6.3030    0.0000 H   0  0  0  0  0  0  0  0  0  0  0  0
   10.2866    2.8498    0.0000 H   0  0  0  0  0  0  0  0  0  0  0  0
   10.8810    2.3188    0.0000 H   0  0  0  0  0  0  0  0  0  0  0  0
   12.4928    2.8230    0.0000 H   0  0  0  0  0  0  0  0  0  0  0  0
   11.8984    3.3540    0.0000 H   0  0  0  0  0  0  0  0  0  0  0  0
   11.5782    1.6958    0.0000 H   0  0  0  0  0  0  0  0  0  0  0  0
   12.1726    1.1648    0.0000 H   0  0  0  0  0  0  0  0  0  0  0  0
   13.7844    1.6690    0.0000 H   0  0  0  0  0  0  0  0  0  0  0  0
   13.1900    2.2000    0.0000 H   0  0  0  0  0  0  0  0  0  0  0  0
   14.1681   -0.3970    0.0000 H   0  0  0  0  0  0  0  0  0  0  0  0
   14.8755    0.8887    0.0000 H   0  0  0  0  0  0  0  0  0  0  0  0
   13.7252   -0.7822    0.0000 H   0  0  0  0  0  0  0  0  0  0  0  0
   13.5625   -1.5624    0.0000 H   0  0  0  0  0  0  0  0  0  0  0  0
   14.8051   -2.7062    0.0000 H   0  0  0  0  0  0  0  0  0  0  0  0
   14.9678   -1.9259    0.0000 H   0  0  0  0  0  0  0  0  0  0  0  0
   16.8518   -1.2928    0.0000 H   0  0  0  0  0  0  0  0  0  0  0  0
   15.6536   -2.1399    0.0000 H   0  0  0  0  0  0  0  0  0  0  0  0
   17.9419   -0.5602    0.0000 H   0  0  0  0  0  0  0  0  0  0  0  0
   17.1849   -0.8094    0.0000 H   0  0  0  0  0  0  0  0  0  0  0  0
   16.3978   -4.4006    0.0000 H   0  0  0  0  0  0  0  0  0  0  0  0
   13.3716   -2.4778    0.0000 H   0  0  0  0  0  0  0  0  0  0  0  0
   13.2089   -3.2580    0.0000 H   0  0  0  0  0  0  0  0  0  0  0  0
   18.5973   -4.6426    0.0000 H   0  0  0  0  0  0  0  0  0  0  0  0
   18.0029   -4.1116    0.0000 H   0  0  0  0  0  0  0  0  0  0  0  0
   17.6827   -5.7698    0.0000 H   0  0  0  0  0  0  0  0  0  0  0  0
   18.2771   -6.3008    0.0000 H   0  0  0  0  0  0  0  0  0  0  0  0
   16.0851   -3.4507    0.0000 H   0  0  0  0  0  0  0  0  0  0  0  0
   19.8889   -5.7966    0.0000 H   0  0  0  0  0  0  0  0  0  0  0  0
   19.2946   -5.2656    0.0000 H   0  0  0  0  0  0  0  0  0  0  0  0
   13.4790   -4.1086    0.0000 H   0  0  0  0  0  0  0  0  0  0  0  0
   14.2618   -4.5036    0.0000 H   0  0  0  0  0  0  0  0  0  0  0  0
   14.6568   -3.7208    0.0000 H   0  0  0  0  0  0  0  0  0  0  0  0
   18.9744   -6.9238    0.0000 H   0  0  0  0  0  0  0  0  0  0  0  0
   19.5687   -7.4548    0.0000 H   0  0  0  0  0  0  0  0  0  0  0  0
   19.1632   -0.0055    0.0000 H   0  0  0  0  0  0  0  0  0  0  0  0
   18.5904   -2.7523    0.0000 H   0  0  0  0  0  0  0  0  0  0  0  0
   20.7491   -0.3362    0.0000 H   0  0  0  0  0  0  0  0  0  0  0  0
   20.1763   -3.0830    0.0000 H   0  0  0  0  0  0  0  0  0  0  0  0
   16.2381   -6.6850    0.0000 H   0  0  0  0  0  0  0  0  0  0  0  0
   17.2581   -6.3493    0.0000 H   0  0  0  0  0  0  0  0  0  0  0  0
   20.7608   -7.6282    0.0000 H   0  0  0  0  0  0  0  0  0  0  0  0
   20.9800   -6.5769    0.0000 H   0  0  0  0  0  0  0  0  0  0  0  0
   22.0408   -1.4902    0.0000 H   0  0  0  0  0  0  0  0  0  0  0  0
  1 25  2  0  0  0  0
  2 36  2  0  0  0  0
  3 39  2  0  0  0  0
  4 46  2  0  0  0  0
  5 51  2  0  0  0  0
  6 57  1  0  0  0  0
  6119  1  0  0  0  0
  7 15  1  0  0  0  0
  7 18  1  0  0  0  0
  7 21  1  0  0  0  0
  8 20  1  0  0  0  0
  8 26  1  0  0  0  0
  8 70  1  0  0  0  0
  9 25  1  0  0  0  0
  9 30  1  0  0  0  0
  9 72  1  0  0  0  0
 10 36  1  0  0  0  0
 37 10  1  6  0  0  0
 10 87  1  0  0  0  0
 11 39  1  0  0  0  0
 41 11  1  1  0  0  0
 11 93  1  0  0  0  0
 43 12  1  1  0  0  0
 12 46  1  0  0  0  0
 12103  1  0  0  0  0
 13 51  1  0  0  0  0
 13115  1  0  0  0  0
 13116  1  0  0  0  0
 14 52  1  0  0  0  0
 14117  1  0  0  0  0
 14118  1  0  0  0  0
 15 16  1  0  0  0  0
 15 20  1  0  0  0  0
 15 58  1  6  0  0  0
 16 19  1  0  0  0  0
 16 59  1  0  0  0  0
 16 60  1  0  0  0  0
 17 18  1  0  0  0  0
 17 19  1  0  0  0  0
 17 25  1  1  0  0  0
 17 61  1  0  0  0  0
 18 62  1  0  0  0  0
 18 63  1  0  0  0  0
 19 64  1  0  0  0  0
 19 65  1  0  0  0  0
 20 22  2  0  0  0  0
 21 23  1  0  0  0  0
 21 66  1  0  0  0  0
 21 67  1  0  0  0  0
 22 23  1  0  0  0  0
 22 24  1  0  0  0  0
 23 68  1  0  0  0  0
 23 69  1  0  0  0  0
 24 26  1  0  0  0  0
 24 27  2  0  0  0  0
 26 28  2  0  0  0  0
 27 29  1  0  0  0  0
 27 71  1  0  0  0  0
 28 31  1  0  0  0  0
 28 73  1  0  0  0  0
 29 31  2  0  0  0  0
 29 74  1  0  0  0  0
 30 32  1  0  0  0  0
 30 75  1  0  0  0  0
 30 76  1  0  0  0  0
 31 77  1  0  0  0  0
 32 33  1  0  0  0  0
 32 78  1  0  0  0  0
 32 79  1  0  0  0  0
 33 34  1  0  0  0  0
 33 80  1  0  0  0  0
 33 81  1  0  0  0  0
 34 35  1  0  0  0  0
 34 82  1  0  0  0  0
 34 83  1  0  0  0  0
 35 36  1  0  0  0  0
 35 84  1  0  0  0  0
 35 85  1  0  0  0  0
 37 38  1  0  0  0  0
 37 39  1  0  0  0  0
 37 86  1  0  0  0  0
 38 40  1  0  0  0  0
 38 88  1  0  0  0  0
 38 89  1  0  0  0  0
 40 44  1  0  0  0  0
 40 90  1  0  0  0  0
 40 91  1  0  0  0  0
 41 42  1  0  0  0  0
 41 46  1  0  0  0  0
 41 92  1  0  0  0  0
 42 48  1  0  0  0  0
 42 94  1  0  0  0  0
 42 95  1  0  0  0  0
 43 45  1  0  0  0  0
 43 51  1  0  0  0  0
 43 96  1  0  0  0  0
 44 50  1  0  0  0  0
 44 97  1  0  0  0  0
 44 98  1  0  0  0  0
 45 47  1  0  0  0  0
 45 99  1  0  0  0  0
 45100  1  0  0  0  0
 47 49  1  0  0  0  0
 47101  1  0  0  0  0
 47102  1  0  0  0  0
 48 53  2  0  0  0  0
 48 54  1  0  0  0  0
 49 52  1  0  0  0  0
 49104  1  0  0  0  0
 49105  1  0  0  0  0
 50106  1  0  0  0  0
 50107  1  0  0  0  0
 50108  1  0  0  0  0
 52109  1  0  0  0  0
 52110  1  0  0  0  0
 53 55  1  0  0  0  0
 53111  1  0  0  0  0
 54 56  2  0  0  0  0
 54112  1  0  0  0  0
 55 57  2  0  0  0  0
 55113  1  0  0  0  0
 56 57  1  0  0  0  0
 56114  1  0  0  0  0
M  END
> <PUBCHEM_COMPOUND_CID>
118736403

> <PUBCHEM_COMPOUND_CANONICALIZED>
1

> <PUBCHEM_CACTVS_COMPLEXITY>
1310

> <PUBCHEM_CACTVS_HBOND_ACCEPTOR>
8

> <PUBCHEM_CACTVS_HBOND_DONOR>
8

> <PUBCHEM_CACTVS_ROTATABLE_BOND>
22

> <PUBCHEM_CACTVS_SUBSKEYS>
AAADcfB/+AAAAAAAAAAAAAAAAAAAAWAAAAA8eIEAAAAAAFix9AAAHgAQCAAADSzBngQyxvPJkgCoAyVyVACCgCAhIiAImaG+bJgIZvrC0bOUcAhk1hHI2AeYyeCeoAAAAAACAABAAAAAAAQAAAAAAAAAAA==

> <PUBCHEM_IUPAC_OPENEYE_NAME>
(3S,12bS)-N-[6-[[(1S)-1-[[(1S)-2-[[(1S)-5-amino-1-carbamoyl-pentyl]amino]-1-[(4-hydroxyphenyl)methyl]-2-oxo-ethyl]carbamoyl]pentyl]amino]-6-oxo-hexyl]-1,2,3,4,6,7,12,12b-octahydroindolo[2,3-a]quinolizine-3-carboxamide

> <PUBCHEM_IUPAC_CAS_NAME>
(3S,12bS)-N-[6-[[(2S)-1-[[(2S)-1-[[(2S)-1,6-diamino-1-oxohexan-2-yl]amino]-3-(4-hydroxyphenyl)-1-oxopropan-2-yl]amino]-1-oxohexan-2-yl]amino]-6-oxohexyl]-1,2,3,4,6,7,12,12b-octahydroindolo[2,3-a]quinolizine-3-carboxamide

> <PUBCHEM_IUPAC_NAME_MARKUP>
(3<I>S</I>,12<I>b</I><I>S</I>)-<I>N</I>-[6-[[(2<I>S</I>)-1-[[(2<I>S</I>)-1-[[(2<I>S</I>)-1,6-diamino-1-oxohexan-2-yl]amino]-3-(4-hydroxyphenyl)-1-oxopropan-2-yl]amino]-1-oxohexan-2-yl]amino]-6-oxohexyl]-1,2,3,4,6,7,12,12<I>b</I>-octahydroindolo[2,3-a]quinolizine-3-carboxamide

> <PUBCHEM_IUPAC_NAME>
(3S,12bS)-N-[6-[[(2S)-1-[[(2S)-1-[[(2S)-1,6-diamino-1-oxohexan-2-yl]amino]-3-(4-hydroxyphenyl)-1-oxopropan-2-yl]amino]-1-oxohexan-2-yl]amino]-6-oxohexyl]-1,2,3,4,6,7,12,12b-octahydroindolo[2,3-a]quinolizine-3-carboxamide

> <PUBCHEM_IUPAC_SYSTEMATIC_NAME>
(3S,12bS)-N-[6-[[(2S)-1-[[(2S)-1-[[(2S)-1,6-bis(azanyl)-1-oxidanylidene-hexan-2-yl]amino]-3-(4-hydroxyphenyl)-1-oxidanylidene-propan-2-yl]amino]-1-oxidanylidene-hexan-2-yl]amino]-6-oxidanylidene-hexyl]-1,2,3,4,6,7,12,12b-octahydroindolo[2,3-a]quinolizine-3-carboxamide

> <PUBCHEM_IUPAC_TRADITIONAL_NAME>
(3S,12bS)-N-[6-[[(1S)-1-[[(1S)-2-[[(1S)-5-amino-1-carbamoyl-pentyl]amino]-1-(4-hydroxybenzyl)-2-keto-ethyl]carbamoyl]pentyl]amino]-6-keto-hexyl]-1,2,3,4,6,7,12,12b-octahydropyrido[2,1-a]beta-carboline-3-carboxamide

> <PUBCHEM_IUPAC_INCHI>
InChI=1S/C43H62N8O6/c1-2-3-12-35(42(56)50-36(26-28-16-19-30(52)20-17-28)43(57)49-34(40(45)54)14-8-9-23-44)47-38(53)15-5-4-10-24-46-41(55)29-18-21-37-39-32(22-25-51(37)27-29)31-11-6-7-13-33(31)48-39/h6-7,11,13,16-17,19-20,29,34-37,48,52H,2-5,8-10,12,14-15,18,21-27,44H2,1H3,(H2,45,54)(H,46,55)(H,47,53)(H,49,57)(H,50,56)/t29-,34-,35-,36-,37-/m0/s1

> <PUBCHEM_IUPAC_INCHIKEY>
PJNRWLKSWTWXBR-FETRQNOVSA-N

> <PUBCHEM_XLOGP3_AA>
3.3

> <PUBCHEM_EXACT_MASS>
786.47923173

> <PUBCHEM_MOLECULAR_FORMULA>
C43H62N8O6

> <PUBCHEM_MOLECULAR_WEIGHT>
787.0

> <PUBCHEM_OPENEYE_CAN_SMILES>
CCCCC(C(=O)NC(CC1=CC=C(C=C1)O)C(=O)NC(CCCCN)C(=O)N)NC(=O)CCCCCNC(=O)C2CCC3C4=C(CCN3C2)C5=CC=CC=C5N4

> <PUBCHEM_OPENEYE_ISO_SMILES>
CCCC[C@@H](C(=O)N[C@@H](CC1=CC=C(C=C1)O)C(=O)N[C@@H](CCCCN)C(=O)N)NC(=O)CCCCCNC(=O)[C@H]2CC[C@H]3C4=C(CCN3C2)C5=CC=CC=C5N4

> <PUBCHEM_CACTVS_TPSA>
225

> <PUBCHEM_MONOISOTOPIC_WEIGHT>
786.47923173

> <PUBCHEM_TOTAL_CHARGE>
0

> <PUBCHEM_HEAVY_ATOM_COUNT>
57

> <PUBCHEM_ATOM_DEF_STEREO_COUNT>
5

> <PUBCHEM_ATOM_UDEF_STEREO_COUNT>
0

> <PUBCHEM_BOND_DEF_STEREO_COUNT>
0

> <PUBCHEM_BOND_UDEF_STEREO_COUNT>
0

> <PUBCHEM_ISOTOPIC_ATOM_COUNT>
0

> <PUBCHEM_COMPONENT_COUNT>
1

> <PUBCHEM_CACTVS_TAUTO_COUNT>
-1

> <PUBCHEM_COORDINATE_TYPE>
1
5
255

> <PUBCHEM_BONDANNOTATIONS>
37  10  6
41  11  5
43  12  5
15  58  6
17  25  5
20  22  8
22  24  8
24  26  8
24  27  8
26  28  8
27  29  8
28  31  8
29  31  8
48  53  8
48  54  8
53  55  8
54  56  8
55  57  8
56  57  8
8  20  8
8  26  8

$$$$
