137652210
  -OEChem-09292322392D

 40 44  0     0  0  0  0  0  0999 V2000
    4.0745    0.6140    0.0000 S   0  0  0  0  0  0  0  0  0  0  0  0
    5.9710   -3.1730    0.0000 O   0  0  0  0  0  0  0  0  0  0  0  0
    4.9176    1.1518    0.0000 O   0  0  0  0  0  0  0  0  0  0  0  0
    3.2314    0.0763    0.0000 O   0  0  0  0  0  0  0  0  0  0  0  0
    7.7031   -4.1730    0.0000 O   0  0  0  0  0  0  0  0  0  0  0  0
    4.6123   -0.2291    0.0000 N   0  0  0  0  0  0  0  0  0  0  0  0
    4.2110   -1.1383    0.0000 C   0  0  0  0  0  0  0  0  0  0  0  0
    5.1050   -1.6730    0.0000 C   0  0  0  0  0  0  0  0  0  0  0  0
    5.9710   -1.1730    0.0000 C   0  0  0  0  0  0  0  0  0  0  0  0
    5.6059   -0.2487    0.0000 C   0  0  0  0  0  0  0  0  0  0  0  0
    3.5368    1.4571    0.0000 C   0  0  0  0  0  0  0  0  0  0  0  0
    5.1050   -2.6730    0.0000 C   0  0  0  0  0  0  0  0  0  0  0  0
    3.9980    2.3444    0.0000 C   0  0  0  0  0  0  0  0  0  0  0  0
    3.3050   -1.6522    0.0000 C   0  0  0  0  0  0  0  0  0  0  0  0
    6.8370   -1.6730    0.0000 C   0  0  0  0  0  0  0  0  0  0  0  0
    3.4603    3.1875    0.0000 C   0  0  0  0  0  0  0  0  0  0  0  0
    4.2110   -3.2076    0.0000 C   0  0  0  0  0  0  0  0  0  0  0  0
    2.5378    1.4130    0.0000 C   0  0  0  0  0  0  0  0  0  0  0  0
    3.3050   -2.6938    0.0000 C   0  0  0  0  0  0  0  0  0  0  0  0
    6.8370   -2.6730    0.0000 C   0  0  0  0  0  0  0  0  0  0  0  0
    5.0392    2.3743    0.0000 C   0  0  0  0  0  0  0  0  0  0  0  0
    2.4613    3.1433    0.0000 C   0  0  0  0  0  0  0  0  0  0  0  0
    2.0000    2.2561    0.0000 C   0  0  0  0  0  0  0  0  0  0  0  0
    3.9265    4.1190    0.0000 C   0  0  0  0  0  0  0  0  0  0  0  0
    5.5268    3.2948    0.0000 C   0  0  0  0  0  0  0  0  0  0  0  0
    4.9667    4.1730    0.0000 C   0  0  0  0  0  0  0  0  0  0  0  0
    7.7031   -3.1730    0.0000 C   0  0  0  0  0  0  0  0  0  0  0  0
    5.9596    0.2605    0.0000 H   0  0  0  0  0  0  0  0  0  0  0  0
    2.7692   -1.3401    0.0000 H   0  0  0  0  0  0  0  0  0  0  0  0
    7.3740   -1.3630    0.0000 H   0  0  0  0  0  0  0  0  0  0  0  0
    4.2182   -3.8276    0.0000 H   0  0  0  0  0  0  0  0  0  0  0  0
    2.2518    0.8629    0.0000 H   0  0  0  0  0  0  0  0  0  0  0  0
    2.7692   -3.0059    0.0000 H   0  0  0  0  0  0  0  0  0  0  0  0
    5.3666    1.8478    0.0000 H   0  0  0  0  0  0  0  0  0  0  0  0
    2.1279    3.6661    0.0000 H   0  0  0  0  0  0  0  0  0  0  0  0
    1.3806    2.2287    0.0000 H   0  0  0  0  0  0  0  0  0  0  0  0
    3.5871    4.6378    0.0000 H   0  0  0  0  0  0  0  0  0  0  0  0
    6.1463    3.3198    0.0000 H   0  0  0  0  0  0  0  0  0  0  0  0
    5.2506    4.7242    0.0000 H   0  0  0  0  0  0  0  0  0  0  0  0
    8.2400   -2.8630    0.0000 H   0  0  0  0  0  0  0  0  0  0  0  0
  1  3  2  0  0  0  0
  1  4  2  0  0  0  0
  1  6  1  0  0  0  0
  1 11  1  0  0  0  0
  2 12  1  0  0  0  0
  2 20  1  0  0  0  0
  5 27  2  0  0  0  0
  6  7  1  0  0  0  0
  6 10  1  0  0  0  0
  7  8  2  0  0  0  0
  7 14  1  0  0  0  0
  8  9  1  0  0  0  0
  8 12  1  0  0  0  0
  9 10  2  0  0  0  0
  9 15  1  0  0  0  0
 10 28  1  0  0  0  0
 11 13  1  0  0  0  0
 11 18  2  0  0  0  0
 12 17  2  0  0  0  0
 13 16  1  0  0  0  0
 13 21  2  0  0  0  0
 14 19  2  0  0  0  0
 14 29  1  0  0  0  0
 15 20  2  0  0  0  0
 15 30  1  0  0  0  0
 16 22  1  0  0  0  0
 16 24  2  0  0  0  0
 17 19  1  0  0  0  0
 17 31  1  0  0  0  0
 18 23  1  0  0  0  0
 18 32  1  0  0  0  0
 19 33  1  0  0  0  0
 20 27  1  0  0  0  0
 21 25  1  0  0  0  0
 21 34  1  0  0  0  0
 22 23  2  0  0  0  0
 22 35  1  0  0  0  0
 23 36  1  0  0  0  0
 24 26  1  0  0  0  0
 24 37  1  0  0  0  0
 25 26  2  0  0  0  0
 25 38  1  0  0  0  0
 26 39  1  0  0  0  0
 27 40  1  0  0  0  0
M  END
> <PUBCHEM_COMPOUND_CID>
137652210

> <PUBCHEM_COMPOUND_CANONICALIZED>
1

> <PUBCHEM_CACTVS_COMPLEXITY>
727

> <PUBCHEM_CACTVS_HBOND_ACCEPTOR>
4

> <PUBCHEM_CACTVS_HBOND_DONOR>
0

> <PUBCHEM_CACTVS_ROTATABLE_BOND>
3

> <PUBCHEM_CACTVS_SUBSKEYS>
AAADccB6OABAAAAAAAAAAAAAAAAAAWAAAAAwYMEAAAAAAFjB9AAAHgQAQAAADAzh3gY8x/IIFAKoAzx3xHLCiDAxIiAI2Dh+bNgMJuLEsZ+GOCjmwBnI6Yew0OMOgAAAggAeAAAAAAEEADwAAAAAAAAAAA==

> <PUBCHEM_IUPAC_OPENEYE_NAME>
2-(1-naphthylsulfonyl)-7-oxa-2-azatricyclo[6.3.1.04,12]dodeca-1(12),3,5,8,10-pentaene-6-carbaldehyde

> <PUBCHEM_IUPAC_CAS_NAME>
2-(1-naphthalenylsulfonyl)-7-oxa-2-azatricyclo[6.3.1.04,12]dodeca-1(12),3,5,8,10-pentaene-6-carboxaldehyde

> <PUBCHEM_IUPAC_NAME_MARKUP>
2-naphthalen-1-ylsulfonyl-7-oxa-2-azatricyclo[6.3.1.0<SUP>4,12</SUP>]dodeca-1(12),3,5,8,10-pentaene-6-carbaldehyde

> <PUBCHEM_IUPAC_NAME>
2-naphthalen-1-ylsulfonyl-7-oxa-2-azatricyclo[6.3.1.04,12]dodeca-1(12),3,5,8,10-pentaene-6-carbaldehyde

> <PUBCHEM_IUPAC_SYSTEMATIC_NAME>
2-naphthalen-1-ylsulfonyl-7-oxa-2-azatricyclo[6.3.1.04,12]dodeca-1(12),3,5,8,10-pentaene-6-carbaldehyde

> <PUBCHEM_IUPAC_TRADITIONAL_NAME>
2-(1-naphthylsulfonyl)-7-oxa-2-azatricyclo[6.3.1.04,12]dodeca-1(12),3,5,8,10-pentaene-6-carbaldehyde

> <PUBCHEM_IUPAC_INCHI>
InChI=1S/C21H13NO4S/c23-13-16-11-15-12-22(18-8-4-9-19(26-16)21(15)18)27(24,25)20-10-3-6-14-5-1-2-7-17(14)20/h1-13H

> <PUBCHEM_IUPAC_INCHIKEY>
AYZRIKBBHZCKTA-UHFFFAOYSA-N

> <PUBCHEM_XLOGP3_AA>
4.3

> <PUBCHEM_EXACT_MASS>
375.05652907

> <PUBCHEM_MOLECULAR_FORMULA>
C21H13NO4S

> <PUBCHEM_MOLECULAR_WEIGHT>
375.4

> <PUBCHEM_OPENEYE_CAN_SMILES>
C1=CC=C2C(=C1)C=CC=C2S(=O)(=O)N3C=C4C=C(OC5=CC=CC3=C54)C=O

> <PUBCHEM_OPENEYE_ISO_SMILES>
C1=CC=C2C(=C1)C=CC=C2S(=O)(=O)N3C=C4C=C(OC5=CC=CC3=C54)C=O

> <PUBCHEM_CACTVS_TPSA>
73.8

> <PUBCHEM_MONOISOTOPIC_WEIGHT>
375.05652907

> <PUBCHEM_TOTAL_CHARGE>
0

> <PUBCHEM_HEAVY_ATOM_COUNT>
27

> <PUBCHEM_ATOM_DEF_STEREO_COUNT>
0

> <PUBCHEM_ATOM_UDEF_STEREO_COUNT>
0

> <PUBCHEM_BOND_DEF_STEREO_COUNT>
0

> <PUBCHEM_BOND_UDEF_STEREO_COUNT>
0

> <PUBCHEM_ISOTOPIC_ATOM_COUNT>
0

> <PUBCHEM_COMPONENT_COUNT>
1

> <PUBCHEM_CACTVS_TAUTO_COUNT>
-1

> <PUBCHEM_COORDINATE_TYPE>
1
5
255

> <PUBCHEM_BONDANNOTATIONS>
11  13  8
11  18  8
12  17  8
13  16  8
13  21  8
14  19  8
16  22  8
16  24  8
17  19  8
18  23  8
21  25  8
22  23  8
24  26  8
25  26  8
6  10  8
6  7  8
7  14  8
7  8  8
8  12  8
8  9  8
9  10  8

$$$$
