118626140
  -OEChem-09292322392D

 65 70  0     1  0  0  0  0  0999 V2000
   12.9039    3.3627    0.0000 Cl  0  0  0  0  0  0  0  0  0  0  0  0
    4.6660   -0.3280    0.0000 S   0  0  0  0  0  0  0  0  0  0  0  0
    5.6660   -0.3280    0.0000 O   0  0  0  0  0  0  0  0  0  0  0  0
    3.6660   -0.3280    0.0000 O   0  0  0  0  0  0  0  0  0  0  0  0
    4.6660    0.6720    0.0000 N   0  0  3  0  0  0  0  0  0  0  0  0
    8.1203    1.3109    0.0000 N   0  0  3  0  0  0  0  0  0  0  0  0
    5.5321   -2.8280    0.0000 N   0  0  0  0  0  0  0  0  0  0  0  0
   12.2739   -0.5644    0.0000 N   0  0  0  0  0  0  0  0  0  0  0  0
    5.4751    1.2598    0.0000 C   0  0  1  0  0  0  0  0  0  0  0  0
    5.1660    2.2108    0.0000 C   0  0  0  0  0  0  0  0  0  0  0  0
    4.1660    2.2108    0.0000 C   0  0  0  0  0  0  0  0  0  0  0  0
    6.4261    0.9508    0.0000 C   0  0  0  0  0  0  0  0  0  0  0  0
    3.8570    1.2598    0.0000 C   0  0  0  0  0  0  0  0  0  0  0  0
    7.1692    1.6199    0.0000 C   0  0  0  0  0  0  0  0  0  0  0  0
    8.3282    0.3327    0.0000 C   0  0  0  0  0  0  0  0  0  0  0  0
    8.8634    1.9800    0.0000 C   0  0  0  0  0  0  0  0  0  0  0  0
    4.6660   -1.3280    0.0000 C   0  0  0  0  0  0  0  0  0  0  0  0
    9.2793    0.0237    0.0000 C   0  0  0  0  0  0  0  0  0  0  0  0
   10.0224    0.6928    0.0000 C   0  0  0  0  0  0  0  0  0  0  0  0
    9.8145    1.6710    0.0000 C   0  0  0  0  0  0  0  0  0  0  0  0
    3.8000   -1.8280    0.0000 C   0  0  0  0  0  0  0  0  0  0  0  0
   10.9735    0.3838    0.0000 C   0  0  0  0  0  0  0  0  0  0  0  0
    5.5321   -1.8280    0.0000 C   0  0  0  0  0  0  0  0  0  0  0  0
    3.8000   -2.8280    0.0000 C   0  0  0  0  0  0  0  0  0  0  0  0
   11.7772    0.9688    0.0000 C   0  0  0  0  0  0  0  0  0  0  0  0
   11.2798   -0.5619    0.0000 C   0  0  0  0  0  0  0  0  0  0  0  0
    2.9061   -1.2933    0.0000 C   0  0  0  0  0  0  0  0  0  0  0  0
   12.5852    0.3796    0.0000 C   0  0  0  0  0  0  0  0  0  0  0  0
    4.6660   -3.3280    0.0000 C   0  0  0  0  0  0  0  0  0  0  0  0
    2.9061   -3.3627    0.0000 C   0  0  0  0  0  0  0  0  0  0  0  0
   11.8834    1.9632    0.0000 C   0  0  0  0  0  0  0  0  0  0  0  0
    2.0000   -1.8072    0.0000 C   0  0  0  0  0  0  0  0  0  0  0  0
    2.0000   -2.8488    0.0000 C   0  0  0  0  0  0  0  0  0  0  0  0
   13.4994    0.7848    0.0000 C   0  0  0  0  0  0  0  0  0  0  0  0
   12.7977    2.3683    0.0000 C   0  0  0  0  0  0  0  0  0  0  0  0
   13.6057    1.7791    0.0000 C   0  0  0  0  0  0  0  0  0  0  0  0
    5.5720    0.6474    0.0000 H   0  0  0  0  0  0  0  0  0  0  0  0
    5.7725    2.3397    0.0000 H   0  0  0  0  0  0  0  0  0  0  0  0
    5.1012    2.8274    0.0000 H   0  0  0  0  0  0  0  0  0  0  0  0
    4.2308    2.8274    0.0000 H   0  0  0  0  0  0  0  0  0  0  0  0
    3.5596    2.3397    0.0000 H   0  0  0  0  0  0  0  0  0  0  0  0
    6.1350    0.4033    0.0000 H   0  0  0  0  0  0  0  0  0  0  0  0
    6.9147    0.5691    0.0000 H   0  0  0  0  0  0  0  0  0  0  0  0
    3.2906    1.5120    0.0000 H   0  0  0  0  0  0  0  0  0  0  0  0
    3.5470    0.7228    0.0000 H   0  0  0  0  0  0  0  0  0  0  0  0
    7.4603    2.1673    0.0000 H   0  0  0  0  0  0  0  0  0  0  0  0
    6.6807    2.0016    0.0000 H   0  0  0  0  0  0  0  0  0  0  0  0
    7.7086    0.3111    0.0000 H   0  0  0  0  0  0  0  0  0  0  0  0
    8.2419   -0.2812    0.0000 H   0  0  0  0  0  0  0  0  0  0  0  0
    9.1545    2.5274    0.0000 H   0  0  0  0  0  0  0  0  0  0  0  0
    8.3749    2.3617    0.0000 H   0  0  0  0  0  0  0  0  0  0  0  0
    8.9882   -0.5237    0.0000 H   0  0  0  0  0  0  0  0  0  0  0  0
    9.7678   -0.3580    0.0000 H   0  0  0  0  0  0  0  0  0  0  0  0
   10.2753    2.0859    0.0000 H   0  0  0  0  0  0  0  0  0  0  0  0
    6.0690   -1.5180    0.0000 H   0  0  0  0  0  0  0  0  0  0  0  0
   10.9146   -1.0628    0.0000 H   0  0  0  0  0  0  0  0  0  0  0  0
    2.9132   -0.6734    0.0000 H   0  0  0  0  0  0  0  0  0  0  0  0
    4.6660   -3.9480    0.0000 H   0  0  0  0  0  0  0  0  0  0  0  0
   12.6366   -1.0673    0.0000 H   0  0  0  0  0  0  0  0  0  0  0  0
    2.9132   -3.9826    0.0000 H   0  0  0  0  0  0  0  0  0  0  0  0
   11.3825    2.3285    0.0000 H   0  0  0  0  0  0  0  0  0  0  0  0
    1.4643   -1.4951    0.0000 H   0  0  0  0  0  0  0  0  0  0  0  0
   14.0004    0.4195    0.0000 H   0  0  0  0  0  0  0  0  0  0  0  0
    1.4643   -3.1609    0.0000 H   0  0  0  0  0  0  0  0  0  0  0  0
   14.1725    2.0303    0.0000 H   0  0  0  0  0  0  0  0  0  0  0  0
  1 35  1  0  0  0  0
  2  3  2  0  0  0  0
  2  4  2  0  0  0  0
  2  5  1  0  0  0  0
  2 17  1  0  0  0  0
  5  9  1  0  0  0  0
  5 13  1  0  0  0  0
  6 14  1  0  0  0  0
  6 15  1  0  0  0  0
  6 16  1  0  0  0  0
  7 23  1  0  0  0  0
  7 29  2  0  0  0  0
  8 26  1  0  0  0  0
  8 28  1  0  0  0  0
  8 59  1  0  0  0  0
  9 10  1  0  0  0  0
  9 12  1  1  0  0  0
  9 37  1  0  0  0  0
 10 11  1  0  0  0  0
 10 38  1  0  0  0  0
 10 39  1  0  0  0  0
 11 13  1  0  0  0  0
 11 40  1  0  0  0  0
 11 41  1  0  0  0  0
 12 14  1  0  0  0  0
 12 42  1  0  0  0  0
 12 43  1  0  0  0  0
 13 44  1  0  0  0  0
 13 45  1  0  0  0  0
 14 46  1  0  0  0  0
 14 47  1  0  0  0  0
 15 18  1  0  0  0  0
 15 48  1  0  0  0  0
 15 49  1  0  0  0  0
 16 20  1  0  0  0  0
 16 50  1  0  0  0  0
 16 51  1  0  0  0  0
 17 21  1  0  0  0  0
 17 23  2  0  0  0  0
 18 19  1  0  0  0  0
 18 52  1  0  0  0  0
 18 53  1  0  0  0  0
 19 20  2  0  0  0  0
 19 22  1  0  0  0  0
 20 54  1  0  0  0  0
 21 24  1  0  0  0  0
 21 27  2  0  0  0  0
 22 25  1  0  0  0  0
 22 26  2  0  0  0  0
 23 55  1  0  0  0  0
 24 29  1  0  0  0  0
 24 30  2  0  0  0  0
 25 28  2  0  0  0  0
 25 31  1  0  0  0  0
 26 56  1  0  0  0  0
 27 32  1  0  0  0  0
 27 57  1  0  0  0  0
 28 34  1  0  0  0  0
 29 58  1  0  0  0  0
 30 33  1  0  0  0  0
 30 60  1  0  0  0  0
 31 35  2  0  0  0  0
 31 61  1  0  0  0  0
 32 33  2  0  0  0  0
 32 62  1  0  0  0  0
 33 64  1  0  0  0  0
 34 36  2  0  0  0  0
 34 63  1  0  0  0  0
 35 36  1  0  0  0  0
 36 65  1  0  0  0  0
M  END
> <PUBCHEM_COMPOUND_CID>
118626140

> <PUBCHEM_COMPOUND_CANONICALIZED>
1

> <PUBCHEM_CACTVS_COMPLEXITY>
908

> <PUBCHEM_CACTVS_HBOND_ACCEPTOR>
5

> <PUBCHEM_CACTVS_HBOND_DONOR>
1

> <PUBCHEM_CACTVS_ROTATABLE_BOND>
6

> <PUBCHEM_CACTVS_SUBSKEYS>
AAADceB7sABEAAAAAAAAAAAAAAAAAWLAAAA8YIEAAAAAAFix/gAAHAYQQAAADCrBXiQ8wfPJkAKgAzRnRHDCgDAxByAI2bw4ZpgIIOLB05GEIAhgkADIyAcQgMAOgABAIAASAAAAAIBAACQAAAAAAAAAAA==

> <PUBCHEM_IUPAC_OPENEYE_NAME>
4-[(2S)-2-[2-[4-(5-chloro-1H-indol-3-yl)-3,6-dihydro-2H-pyridin-1-yl]ethyl]pyrrolidin-1-yl]sulfonylisoquinoline

> <PUBCHEM_IUPAC_CAS_NAME>
4-[[(2S)-2-[2-[4-(5-chloro-1H-indol-3-yl)-3,6-dihydro-2H-pyridin-1-yl]ethyl]-1-pyrrolidinyl]sulfonyl]isoquinoline

> <PUBCHEM_IUPAC_NAME_MARKUP>
4-[(2<I>S</I>)-2-[2-[4-(5-chloro-1<I>H</I>-indol-3-yl)-3,6-dihydro-2<I>H</I>-pyridin-1-yl]ethyl]pyrrolidin-1-yl]sulfonylisoquinoline

> <PUBCHEM_IUPAC_NAME>
4-[(2S)-2-[2-[4-(5-chloro-1H-indol-3-yl)-3,6-dihydro-2H-pyridin-1-yl]ethyl]pyrrolidin-1-yl]sulfonylisoquinoline

> <PUBCHEM_IUPAC_SYSTEMATIC_NAME>
4-[(2S)-2-[2-[4-(5-chloranyl-1H-indol-3-yl)-3,6-dihydro-2H-pyridin-1-yl]ethyl]pyrrolidin-1-yl]sulfonylisoquinoline

> <PUBCHEM_IUPAC_TRADITIONAL_NAME>
4-[(2S)-2-[2-[4-(5-chloro-1H-indol-3-yl)-3,6-dihydro-2H-pyridin-1-yl]ethyl]pyrrolidino]sulfonylisoquinoline

> <PUBCHEM_IUPAC_INCHI>
InChI=1S/C28H29ClN4O2S/c29-22-7-8-27-25(16-22)26(18-31-27)20-9-13-32(14-10-20)15-11-23-5-3-12-33(23)36(34,35)28-19-30-17-21-4-1-2-6-24(21)28/h1-2,4,6-9,16-19,23,31H,3,5,10-15H2/t23-/m0/s1

> <PUBCHEM_IUPAC_INCHIKEY>
CCNQTDBNOSLXEO-QHCPKHFHSA-N

> <PUBCHEM_XLOGP3_AA>
4.8

> <PUBCHEM_EXACT_MASS>
520.1699750

> <PUBCHEM_MOLECULAR_FORMULA>
C28H29ClN4O2S

> <PUBCHEM_MOLECULAR_WEIGHT>
521.1

> <PUBCHEM_OPENEYE_CAN_SMILES>
C1CC(N(C1)S(=O)(=O)C2=CN=CC3=CC=CC=C32)CCN4CCC(=CC4)C5=CNC6=C5C=C(C=C6)Cl

> <PUBCHEM_OPENEYE_ISO_SMILES>
C1C[C@H](N(C1)S(=O)(=O)C2=CN=CC3=CC=CC=C32)CCN4CCC(=CC4)C5=CNC6=C5C=C(C=C6)Cl

> <PUBCHEM_CACTVS_TPSA>
77.7

> <PUBCHEM_MONOISOTOPIC_WEIGHT>
520.1699750

> <PUBCHEM_TOTAL_CHARGE>
0

> <PUBCHEM_HEAVY_ATOM_COUNT>
36

> <PUBCHEM_ATOM_DEF_STEREO_COUNT>
1

> <PUBCHEM_ATOM_UDEF_STEREO_COUNT>
0

> <PUBCHEM_BOND_DEF_STEREO_COUNT>
0

> <PUBCHEM_BOND_UDEF_STEREO_COUNT>
0

> <PUBCHEM_ISOTOPIC_ATOM_COUNT>
0

> <PUBCHEM_COMPONENT_COUNT>
1

> <PUBCHEM_CACTVS_TAUTO_COUNT>
-1

> <PUBCHEM_COORDINATE_TYPE>
1
5
255

> <PUBCHEM_BONDANNOTATIONS>
17  21  8
17  23  8
21  24  8
21  27  8
22  25  8
22  26  8
24  29  8
24  30  8
25  28  8
25  31  8
27  32  8
28  34  8
30  33  8
31  35  8
32  33  8
34  36  8
35  36  8
7  23  8
7  29  8
8  26  8
8  28  8
9  12  5

$$$$
