9890119
  -OEChem-09292322152D

 52 56  0     0  0  0  0  0  0999 V2000
    2.9176   -3.5945    0.0000 Cl  0  0  0  0  0  0  0  0  0  0  0  0
    6.3981   -0.5599    0.0000 S   0  0  0  0  0  0  0  0  0  0  0  0
    5.8981    0.3061    0.0000 O   0  0  0  0  0  0  0  0  0  0  0  0
    6.8981   -1.4259    0.0000 O   0  0  0  0  0  0  0  0  0  0  0  0
   10.7446    0.9747    0.0000 N   0  0  0  0  0  0  0  0  0  0  0  0
   10.7214    2.9745    0.0000 N   0  0  0  0  0  0  0  0  0  0  0  0
    7.2641   -0.0599    0.0000 N   0  0  0  0  0  0  0  0  0  0  0  0
   10.7561   -2.0946    0.0000 N   0  0  0  0  0  0  0  0  0  0  0  0
   11.6048    1.4847    0.0000 C   0  0  0  0  0  0  0  0  0  0  0  0
    9.8728    1.4646    0.0000 C   0  0  0  0  0  0  0  0  0  0  0  0
   11.5932    2.4846    0.0000 C   0  0  0  0  0  0  0  0  0  0  0  0
    9.8612    2.4646    0.0000 C   0  0  0  0  0  0  0  0  0  0  0  0
   10.7561   -0.0253    0.0000 C   0  0  0  0  0  0  0  0  0  0  0  0
    9.8622   -0.5599    0.0000 C   0  0  0  0  0  0  0  0  0  0  0  0
    9.8622   -1.5599    0.0000 C   0  0  0  0  0  0  0  0  0  0  0  0
   11.6622   -0.5391    0.0000 C   0  0  0  0  0  0  0  0  0  0  0  0
    8.9962   -0.0599    0.0000 C   0  0  0  0  0  0  0  0  0  0  0  0
    8.1301   -0.5599    0.0000 C   0  0  0  0  0  0  0  0  0  0  0  0
    8.9962   -2.0599    0.0000 C   0  0  0  0  0  0  0  0  0  0  0  0
   11.6622   -1.5807    0.0000 C   0  0  0  0  0  0  0  0  0  0  0  0
    8.1301   -1.5599    0.0000 C   0  0  0  0  0  0  0  0  0  0  0  0
    5.5321   -1.0599    0.0000 C   0  0  0  0  0  0  0  0  0  0  0  0
    3.8000   -1.0599    0.0000 C   0  0  0  0  0  0  0  0  0  0  0  0
    4.6660   -0.5599    0.0000 C   0  0  0  0  0  0  0  0  0  0  0  0
    3.8000   -2.0599    0.0000 C   0  0  0  0  0  0  0  0  0  0  0  0
    5.5321   -2.0599    0.0000 C   0  0  0  0  0  0  0  0  0  0  0  0
    4.6660   -2.5599    0.0000 C   0  0  0  0  0  0  0  0  0  0  0  0
    2.9061   -0.5253    0.0000 C   0  0  0  0  0  0  0  0  0  0  0  0
    2.9061   -2.5946    0.0000 C   0  0  0  0  0  0  0  0  0  0  0  0
    2.0000   -1.0391    0.0000 C   0  0  0  0  0  0  0  0  0  0  0  0
    2.0000   -2.0807    0.0000 C   0  0  0  0  0  0  0  0  0  0  0  0
   11.8235    0.9045    0.0000 H   0  0  0  0  0  0  0  0  0  0  0  0
   12.2140    1.5994    0.0000 H   0  0  0  0  0  0  0  0  0  0  0  0
    9.2610    1.5652    0.0000 H   0  0  0  0  0  0  0  0  0  0  0  0
    9.6675    0.8796    0.0000 H   0  0  0  0  0  0  0  0  0  0  0  0
   12.2050    2.3840    0.0000 H   0  0  0  0  0  0  0  0  0  0  0  0
   11.7985    3.0696    0.0000 H   0  0  0  0  0  0  0  0  0  0  0  0
    9.6425    3.0447    0.0000 H   0  0  0  0  0  0  0  0  0  0  0  0
    9.2520    2.3498    0.0000 H   0  0  0  0  0  0  0  0  0  0  0  0
   10.7143    3.5945    0.0000 H   0  0  0  0  0  0  0  0  0  0  0  0
   12.1979   -0.2270    0.0000 H   0  0  0  0  0  0  0  0  0  0  0  0
    8.9962    0.5601    0.0000 H   0  0  0  0  0  0  0  0  0  0  0  0
    8.9962   -2.6799    0.0000 H   0  0  0  0  0  0  0  0  0  0  0  0
   12.1979   -1.8928    0.0000 H   0  0  0  0  0  0  0  0  0  0  0  0
    7.5932   -1.8699    0.0000 H   0  0  0  0  0  0  0  0  0  0  0  0
    7.2641    0.5601    0.0000 H   0  0  0  0  0  0  0  0  0  0  0  0
    4.6660    0.0601    0.0000 H   0  0  0  0  0  0  0  0  0  0  0  0
    6.0690   -2.3699    0.0000 H   0  0  0  0  0  0  0  0  0  0  0  0
    4.6660   -3.1799    0.0000 H   0  0  0  0  0  0  0  0  0  0  0  0
    2.9132    0.0947    0.0000 H   0  0  0  0  0  0  0  0  0  0  0  0
    1.4643   -0.7270    0.0000 H   0  0  0  0  0  0  0  0  0  0  0  0
    1.4643   -2.3928    0.0000 H   0  0  0  0  0  0  0  0  0  0  0  0
  1 29  1  0  0  0  0
  2  3  2  0  0  0  0
  2  4  2  0  0  0  0
  2  7  1  0  0  0  0
  2 22  1  0  0  0  0
  5  9  1  0  0  0  0
  5 10  1  0  0  0  0
  5 13  1  0  0  0  0
  6 11  1  0  0  0  0
  6 12  1  0  0  0  0
  6 40  1  0  0  0  0
  7 18  1  0  0  0  0
  7 46  1  0  0  0  0
  8 15  2  0  0  0  0
  8 20  1  0  0  0  0
  9 11  1  0  0  0  0
  9 32  1  0  0  0  0
  9 33  1  0  0  0  0
 10 12  1  0  0  0  0
 10 34  1  0  0  0  0
 10 35  1  0  0  0  0
 11 36  1  0  0  0  0
 11 37  1  0  0  0  0
 12 38  1  0  0  0  0
 12 39  1  0  0  0  0
 13 14  2  0  0  0  0
 13 16  1  0  0  0  0
 14 15  1  0  0  0  0
 14 17  1  0  0  0  0
 15 19  1  0  0  0  0
 16 20  2  0  0  0  0
 16 41  1  0  0  0  0
 17 18  2  0  0  0  0
 17 42  1  0  0  0  0
 18 21  1  0  0  0  0
 19 21  2  0  0  0  0
 19 43  1  0  0  0  0
 20 44  1  0  0  0  0
 21 45  1  0  0  0  0
 22 24  2  0  0  0  0
 22 26  1  0  0  0  0
 23 24  1  0  0  0  0
 23 25  2  0  0  0  0
 23 28  1  0  0  0  0
 24 47  1  0  0  0  0
 25 27  1  0  0  0  0
 25 29  1  0  0  0  0
 26 27  2  0  0  0  0
 26 48  1  0  0  0  0
 27 49  1  0  0  0  0
 28 30  2  0  0  0  0
 28 50  1  0  0  0  0
 29 31  2  0  0  0  0
 30 31  1  0  0  0  0
 30 51  1  0  0  0  0
 31 52  1  0  0  0  0
M  END
> <PUBCHEM_COMPOUND_CID>
9890119

> <PUBCHEM_COMPOUND_CANONICALIZED>
1

> <PUBCHEM_CACTVS_COMPLEXITY>
711

> <PUBCHEM_CACTVS_HBOND_ACCEPTOR>
6

> <PUBCHEM_CACTVS_HBOND_DONOR>
2

> <PUBCHEM_CACTVS_ROTATABLE_BOND>
4

> <PUBCHEM_CACTVS_SUBSKEYS>
AAADceB7sABEAAAAAAAAAAAAAAAAAAAAAAA8eMECAAAAAADx9AAAHAYQQAAADArBXiQ8wfPIEAKgAzRnRHDCgDAxByAI2Lg4ZpgIYOLB09GUJAhgkADIyAcQgIAOkACA4AATAAAgAQHAACYAAAAAAAAAAA==

> <PUBCHEM_IUPAC_OPENEYE_NAME>
5-chloro-N-(4-piperazin-1-yl-6-quinolyl)naphthalene-2-sulfonamide

> <PUBCHEM_IUPAC_CAS_NAME>
5-chloro-N-[4-(1-piperazinyl)-6-quinolinyl]-2-naphthalenesulfonamide

> <PUBCHEM_IUPAC_NAME_MARKUP>
5-chloro-<I>N</I>-(4-piperazin-1-ylquinolin-6-yl)naphthalene-2-sulfonamide

> <PUBCHEM_IUPAC_NAME>
5-chloro-N-(4-piperazin-1-ylquinolin-6-yl)naphthalene-2-sulfonamide

> <PUBCHEM_IUPAC_SYSTEMATIC_NAME>
5-chloranyl-N-(4-piperazin-1-ylquinolin-6-yl)naphthalene-2-sulfonamide

> <PUBCHEM_IUPAC_TRADITIONAL_NAME>
5-chloro-N-(4-piperazino-6-quinolyl)naphthalene-2-sulfonamide

> <PUBCHEM_IUPAC_INCHI>
InChI=1S/C23H21ClN4O2S/c24-21-3-1-2-16-14-18(5-6-19(16)21)31(29,30)27-17-4-7-22-20(15-17)23(8-9-26-22)28-12-10-25-11-13-28/h1-9,14-15,25,27H,10-13H2

> <PUBCHEM_IUPAC_INCHIKEY>
XOEZEACRWZTMQK-UHFFFAOYSA-N

> <PUBCHEM_XLOGP3_AA>
4.1

> <PUBCHEM_EXACT_MASS>
452.1073748

> <PUBCHEM_MOLECULAR_FORMULA>
C23H21ClN4O2S

> <PUBCHEM_MOLECULAR_WEIGHT>
453.0

> <PUBCHEM_OPENEYE_CAN_SMILES>
C1CN(CCN1)C2=C3C=C(C=CC3=NC=C2)NS(=O)(=O)C4=CC5=C(C=C4)C(=CC=C5)Cl

> <PUBCHEM_OPENEYE_ISO_SMILES>
C1CN(CCN1)C2=C3C=C(C=CC3=NC=C2)NS(=O)(=O)C4=CC5=C(C=C4)C(=CC=C5)Cl

> <PUBCHEM_CACTVS_TPSA>
82.7

> <PUBCHEM_MONOISOTOPIC_WEIGHT>
452.1073748

> <PUBCHEM_TOTAL_CHARGE>
0

> <PUBCHEM_HEAVY_ATOM_COUNT>
31

> <PUBCHEM_ATOM_DEF_STEREO_COUNT>
0

> <PUBCHEM_ATOM_UDEF_STEREO_COUNT>
0

> <PUBCHEM_BOND_DEF_STEREO_COUNT>
0

> <PUBCHEM_BOND_UDEF_STEREO_COUNT>
0

> <PUBCHEM_ISOTOPIC_ATOM_COUNT>
0

> <PUBCHEM_COMPONENT_COUNT>
1

> <PUBCHEM_CACTVS_TAUTO_COUNT>
1

> <PUBCHEM_COORDINATE_TYPE>
1
5
255

> <PUBCHEM_BONDANNOTATIONS>
13  14  8
13  16  8
14  15  8
14  17  8
15  19  8
16  20  8
17  18  8
18  21  8
19  21  8
22  24  8
22  26  8
23  24  8
23  25  8
23  28  8
25  27  8
25  29  8
26  27  8
28  30  8
29  31  8
30  31  8
8  15  8
8  20  8

$$$$
