101007561
  -OEChem-09292322082D

 55 58  0     0  0  0  0  0  0999 V2000
    4.6660    3.9827    0.0000 O   0  0  0  0  0  0  0  0  0  0  0  0
    9.8622   -1.0173    0.0000 O   0  0  0  0  0  0  0  0  0  0  0  0
    6.3981    1.9827    0.0000 O   0  0  0  0  0  0  0  0  0  0  0  0
    6.3981   -1.0173    0.0000 N   0  0  0  0  0  0  0  0  0  0  0  0
    8.1301   -2.0173    0.0000 N   0  0  0  0  0  0  0  0  0  0  0  0
    4.6660    1.9827    0.0000 N   0  0  0  0  0  0  0  0  0  0  0  0
    6.3981   -2.0173    0.0000 C   0  0  0  0  0  0  0  0  0  0  0  0
    7.2641   -0.5173    0.0000 C   0  0  0  0  0  0  0  0  0  0  0  0
    7.2641   -2.5173    0.0000 C   0  0  0  0  0  0  0  0  0  0  0  0
    8.1301   -1.0173    0.0000 C   0  0  0  0  0  0  0  0  0  0  0  0
    5.5321   -0.5173    0.0000 C   0  0  0  0  0  0  0  0  0  0  0  0
    5.5321    0.4827    0.0000 C   0  0  0  0  0  0  0  0  0  0  0  0
    4.6660    0.9827    0.0000 C   0  0  0  0  0  0  0  0  0  0  0  0
    8.9962   -2.5173    0.0000 C   0  0  0  0  0  0  0  0  0  0  0  0
    9.8622   -2.0173    0.0000 C   0  0  0  0  0  0  0  0  0  0  0  0
    3.8000    2.4827    0.0000 C   0  0  0  0  0  0  0  0  0  0  0  0
    8.9962   -3.5173    0.0000 C   0  0  0  0  0  0  0  0  0  0  0  0
    5.5321    2.4827    0.0000 C   0  0  0  0  0  0  0  0  0  0  0  0
    3.8000    3.4827    0.0000 C   0  0  0  0  0  0  0  0  0  0  0  0
    5.5321    3.4827    0.0000 C   0  0  0  0  0  0  0  0  0  0  0  0
   10.7282   -2.5173    0.0000 C   0  0  0  0  0  0  0  0  0  0  0  0
    9.8622   -4.0173    0.0000 C   0  0  0  0  0  0  0  0  0  0  0  0
    2.9061    1.9480    0.0000 C   0  0  0  0  0  0  0  0  0  0  0  0
   10.7282   -3.5173    0.0000 C   0  0  0  0  0  0  0  0  0  0  0  0
    2.9061    4.0173    0.0000 C   0  0  0  0  0  0  0  0  0  0  0  0
    2.0000    2.4618    0.0000 C   0  0  0  0  0  0  0  0  0  0  0  0
    2.0000    3.5035    0.0000 C   0  0  0  0  0  0  0  0  0  0  0  0
   10.7282   -0.5173    0.0000 C   0  0  0  0  0  0  0  0  0  0  0  0
    5.7875   -1.9097    0.0000 H   0  0  0  0  0  0  0  0  0  0  0  0
    6.1860   -2.5999    0.0000 H   0  0  0  0  0  0  0  0  0  0  0  0
    7.6626   -0.0424    0.0000 H   0  0  0  0  0  0  0  0  0  0  0  0
    6.8656   -0.0424    0.0000 H   0  0  0  0  0  0  0  0  0  0  0  0
    6.8656   -2.9923    0.0000 H   0  0  0  0  0  0  0  0  0  0  0  0
    7.6626   -2.9923    0.0000 H   0  0  0  0  0  0  0  0  0  0  0  0
    8.7407   -1.1250    0.0000 H   0  0  0  0  0  0  0  0  0  0  0  0
    8.3422   -0.4347    0.0000 H   0  0  0  0  0  0  0  0  0  0  0  0
    4.9215   -0.4097    0.0000 H   0  0  0  0  0  0  0  0  0  0  0  0
    5.3200   -1.0999    0.0000 H   0  0  0  0  0  0  0  0  0  0  0  0
    6.1426    0.3750    0.0000 H   0  0  0  0  0  0  0  0  0  0  0  0
    5.7441    1.0653    0.0000 H   0  0  0  0  0  0  0  0  0  0  0  0
    4.0555    1.0903    0.0000 H   0  0  0  0  0  0  0  0  0  0  0  0
    4.4540    0.4001    0.0000 H   0  0  0  0  0  0  0  0  0  0  0  0
    8.4592   -3.8273    0.0000 H   0  0  0  0  0  0  0  0  0  0  0  0
    6.1426    3.3750    0.0000 H   0  0  0  0  0  0  0  0  0  0  0  0
    5.7441    4.0653    0.0000 H   0  0  0  0  0  0  0  0  0  0  0  0
   11.2651   -2.2073    0.0000 H   0  0  0  0  0  0  0  0  0  0  0  0
    9.8622   -4.6373    0.0000 H   0  0  0  0  0  0  0  0  0  0  0  0
    2.9132    1.3280    0.0000 H   0  0  0  0  0  0  0  0  0  0  0  0
   11.2651   -3.8273    0.0000 H   0  0  0  0  0  0  0  0  0  0  0  0
    2.9132    4.6373    0.0000 H   0  0  0  0  0  0  0  0  0  0  0  0
    1.4643    2.1498    0.0000 H   0  0  0  0  0  0  0  0  0  0  0  0
    1.4643    3.8156    0.0000 H   0  0  0  0  0  0  0  0  0  0  0  0
   11.0382   -1.0543    0.0000 H   0  0  0  0  0  0  0  0  0  0  0  0
   11.2651   -0.2073    0.0000 H   0  0  0  0  0  0  0  0  0  0  0  0
   10.4182    0.0196    0.0000 H   0  0  0  0  0  0  0  0  0  0  0  0
  1 19  1  0  0  0  0
  1 20  1  0  0  0  0
  2 15  1  0  0  0  0
  2 28  1  0  0  0  0
  3 18  2  0  0  0  0
  4  7  1  0  0  0  0
  4  8  1  0  0  0  0
  4 11  1  0  0  0  0
  5  9  1  0  0  0  0
  5 10  1  0  0  0  0
  5 14  1  0  0  0  0
  6 13  1  0  0  0  0
  6 16  1  0  0  0  0
  6 18  1  0  0  0  0
  7  9  1  0  0  0  0
  7 29  1  0  0  0  0
  7 30  1  0  0  0  0
  8 10  1  0  0  0  0
  8 31  1  0  0  0  0
  8 32  1  0  0  0  0
  9 33  1  0  0  0  0
  9 34  1  0  0  0  0
 10 35  1  0  0  0  0
 10 36  1  0  0  0  0
 11 12  1  0  0  0  0
 11 37  1  0  0  0  0
 11 38  1  0  0  0  0
 12 13  1  0  0  0  0
 12 39  1  0  0  0  0
 12 40  1  0  0  0  0
 13 41  1  0  0  0  0
 13 42  1  0  0  0  0
 14 15  1  0  0  0  0
 14 17  2  0  0  0  0
 15 21  2  0  0  0  0
 16 19  1  0  0  0  0
 16 23  2  0  0  0  0
 17 22  1  0  0  0  0
 17 43  1  0  0  0  0
 18 20  1  0  0  0  0
 19 25  2  0  0  0  0
 20 44  1  0  0  0  0
 20 45  1  0  0  0  0
 21 24  1  0  0  0  0
 21 46  1  0  0  0  0
 22 24  2  0  0  0  0
 22 47  1  0  0  0  0
 23 26  1  0  0  0  0
 23 48  1  0  0  0  0
 24 49  1  0  0  0  0
 25 27  1  0  0  0  0
 25 50  1  0  0  0  0
 26 27  2  0  0  0  0
 26 51  1  0  0  0  0
 27 52  1  0  0  0  0
 28 53  1  0  0  0  0
 28 54  1  0  0  0  0
 28 55  1  0  0  0  0
M  END
> <PUBCHEM_COMPOUND_CID>
101007561

> <PUBCHEM_COMPOUND_CANONICALIZED>
1

> <PUBCHEM_CACTVS_COMPLEXITY>
509

> <PUBCHEM_CACTVS_HBOND_ACCEPTOR>
5

> <PUBCHEM_CACTVS_HBOND_DONOR>
0

> <PUBCHEM_CACTVS_ROTATABLE_BOND>
6

> <PUBCHEM_CACTVS_SUBSKEYS>
AAADceB7MAAAAAAAAAAAAAAAAAAAAAAAAAA8eIEAAAAAAACxQAAAHgAAAAAACAzhkAYyxoMABACIACVSUAKCCAAhIgAIiABPbIgOZiLE8Z+XOCjkxhHY6AeQQAAAAAAAAAAAEAAAAAAAAAAgAAAAAAAAAA==

> <PUBCHEM_IUPAC_OPENEYE_NAME>
4-[3-[4-(2-methoxyphenyl)piperazin-1-yl]propyl]-1,4-benzoxazin-3-one

> <PUBCHEM_IUPAC_CAS_NAME>
4-[3-[4-(2-methoxyphenyl)-1-piperazinyl]propyl]-1,4-benzoxazin-3-one

> <PUBCHEM_IUPAC_NAME_MARKUP>
4-[3-[4-(2-methoxyphenyl)piperazin-1-yl]propyl]-1,4-benzoxazin-3-one

> <PUBCHEM_IUPAC_NAME>
4-[3-[4-(2-methoxyphenyl)piperazin-1-yl]propyl]-1,4-benzoxazin-3-one

> <PUBCHEM_IUPAC_SYSTEMATIC_NAME>
4-[3-[4-(2-methoxyphenyl)piperazin-1-yl]propyl]-1,4-benzoxazin-3-one

> <PUBCHEM_IUPAC_TRADITIONAL_NAME>
4-[3-[4-(2-methoxyphenyl)piperazino]propyl]-1,4-benzoxazin-3-one

> <PUBCHEM_IUPAC_INCHI>
InChI=1S/C22H27N3O3/c1-27-20-9-4-2-7-18(20)24-15-13-23(14-16-24)11-6-12-25-19-8-3-5-10-21(19)28-17-22(25)26/h2-5,7-10H,6,11-17H2,1H3

> <PUBCHEM_IUPAC_INCHIKEY>
NYPHNXBBMJRKSX-UHFFFAOYSA-N

> <PUBCHEM_XLOGP3_AA>
3

> <PUBCHEM_EXACT_MASS>
381.20524173

> <PUBCHEM_MOLECULAR_FORMULA>
C22H27N3O3

> <PUBCHEM_MOLECULAR_WEIGHT>
381.5

> <PUBCHEM_OPENEYE_CAN_SMILES>
COC1=CC=CC=C1N2CCN(CC2)CCCN3C(=O)COC4=CC=CC=C43

> <PUBCHEM_OPENEYE_ISO_SMILES>
COC1=CC=CC=C1N2CCN(CC2)CCCN3C(=O)COC4=CC=CC=C43

> <PUBCHEM_CACTVS_TPSA>
45.2

> <PUBCHEM_MONOISOTOPIC_WEIGHT>
381.20524173

> <PUBCHEM_TOTAL_CHARGE>
0

> <PUBCHEM_HEAVY_ATOM_COUNT>
28

> <PUBCHEM_ATOM_DEF_STEREO_COUNT>
0

> <PUBCHEM_ATOM_UDEF_STEREO_COUNT>
0

> <PUBCHEM_BOND_DEF_STEREO_COUNT>
0

> <PUBCHEM_BOND_UDEF_STEREO_COUNT>
0

> <PUBCHEM_ISOTOPIC_ATOM_COUNT>
0

> <PUBCHEM_COMPONENT_COUNT>
1

> <PUBCHEM_CACTVS_TAUTO_COUNT>
-1

> <PUBCHEM_COORDINATE_TYPE>
1
5
255

> <PUBCHEM_BONDANNOTATIONS>
14  15  8
14  17  8
15  21  8
16  19  8
16  23  8
17  22  8
19  25  8
21  24  8
22  24  8
23  26  8
25  27  8
26  27  8

$$$$
