155537490
  -OEChem-09292322402D

 57 60  0     1  0  0  0  0  0999 V2000
   12.8747    0.0871    0.0000 S   0  0  0  0  0  0  0  0  0  0  0  0
    4.2428    0.9281    0.0000 O   0  0  0  0  0  0  0  0  0  0  0  0
    6.9404   -1.2452    0.0000 N   0  0  0  0  0  0  0  0  0  0  0  0
    4.9642   -0.9372    0.0000 N   0  0  0  0  0  0  0  0  0  0  0  0
   10.1713    0.0043    0.0000 N   0  0  3  0  0  0  0  0  0  0  0  0
   12.8827    1.6965    0.0000 N   0  0  0  0  0  0  0  0  0  0  0  0
    7.9284   -1.3991    0.0000 C   0  0  0  0  0  0  0  0  0  0  0  0
    6.5797   -0.3125    0.0000 C   0  0  0  0  0  0  0  0  0  0  0  0
    6.3130   -2.0239    0.0000 C   0  0  0  0  0  0  0  0  0  0  0  0
    8.5558   -0.6204    0.0000 C   0  0  0  0  0  0  0  0  0  0  0  0
    5.5916   -0.1585    0.0000 C   0  0  0  0  0  0  0  0  0  0  0  0
    5.3249   -1.8699    0.0000 C   0  0  0  0  0  0  0  0  0  0  0  0
    9.5439   -0.7744    0.0000 C   0  0  0  0  0  0  0  0  0  0  0  0
    9.7419    0.9074    0.0000 C   0  0  0  0  0  0  0  0  0  0  0  0
   11.1451   -0.2231    0.0000 C   0  0  0  0  0  0  0  0  0  0  0  0
   10.1803    1.8062    0.0000 C   0  0  0  0  0  0  0  0  0  0  0  0
   11.1563    2.0239    0.0000 C   0  0  0  0  0  0  0  0  0  0  0  0
    3.9762   -0.7833    0.0000 C   0  0  0  0  0  0  0  0  0  0  0  0
   11.9300    0.3965    0.0000 C   0  0  0  0  0  0  0  0  0  0  0  0
   11.9350    1.3965    0.0000 C   0  0  0  0  0  0  0  0  0  0  0  0
    3.6155    0.1494    0.0000 C   0  0  0  0  0  0  0  0  0  0  0  0
    3.3488   -1.5620    0.0000 C   0  0  0  0  0  0  0  0  0  0  0  0
   13.4623    0.8889    0.0000 C   0  0  0  0  0  0  0  0  0  0  0  0
    2.6274    0.3034    0.0000 C   0  0  0  0  0  0  0  0  0  0  0  0
    2.3607   -1.4080    0.0000 C   0  0  0  0  0  0  0  0  0  0  0  0
    2.0000   -0.4753    0.0000 C   0  0  0  0  0  0  0  0  0  0  0  0
    3.8821    1.8608    0.0000 C   0  0  0  0  0  0  0  0  0  0  0  0
    7.7281   -1.9859    0.0000 H   0  0  0  0  0  0  0  0  0  0  0  0
    8.4715   -1.6984    0.0000 H   0  0  0  0  0  0  0  0  0  0  0  0
    7.1880   -0.1927    0.0000 H   0  0  0  0  0  0  0  0  0  0  0  0
    6.5673    0.3074    0.0000 H   0  0  0  0  0  0  0  0  0  0  0  0
    6.1126   -2.6106    0.0000 H   0  0  0  0  0  0  0  0  0  0  0  0
    6.8560   -2.3231    0.0000 H   0  0  0  0  0  0  0  0  0  0  0  0
    8.7562   -0.0337    0.0000 H   0  0  0  0  0  0  0  0  0  0  0  0
    8.0128   -0.3212    0.0000 H   0  0  0  0  0  0  0  0  0  0  0  0
    5.7920    0.4282    0.0000 H   0  0  0  0  0  0  0  0  0  0  0  0
    5.0486    0.1407    0.0000 H   0  0  0  0  0  0  0  0  0  0  0  0
    4.7166   -1.9897    0.0000 H   0  0  0  0  0  0  0  0  0  0  0  0
    5.3373   -2.4898    0.0000 H   0  0  0  0  0  0  0  0  0  0  0  0
    9.3435   -1.3611    0.0000 H   0  0  0  0  0  0  0  0  0  0  0  0
   10.0869   -1.0736    0.0000 H   0  0  0  0  0  0  0  0  0  0  0  0
    9.2591    1.2964    0.0000 H   0  0  0  0  0  0  0  0  0  0  0  0
    9.2552    0.5233    0.0000 H   0  0  0  0  0  0  0  0  0  0  0  0
   10.8733   -0.7803    0.0000 H   0  0  0  0  0  0  0  0  0  0  0  0
   11.6279   -0.6120    0.0000 H   0  0  0  0  0  0  0  0  0  0  0  0
   10.1834    2.4262    0.0000 H   0  0  0  0  0  0  0  0  0  0  0  0
    9.5765    1.9472    0.0000 H   0  0  0  0  0  0  0  0  0  0  0  0
   11.6430    2.4080    0.0000 H   0  0  0  0  0  0  0  0  0  0  0  0
   10.8901    2.5838    0.0000 H   0  0  0  0  0  0  0  0  0  0  0  0
    3.5724   -2.1402    0.0000 H   0  0  0  0  0  0  0  0  0  0  0  0
   14.0823    0.8858    0.0000 H   0  0  0  0  0  0  0  0  0  0  0  0
    2.4038    0.8817    0.0000 H   0  0  0  0  0  0  0  0  0  0  0  0
    1.9717   -1.8908    0.0000 H   0  0  0  0  0  0  0  0  0  0  0  0
    1.3874   -0.3799    0.0000 H   0  0  0  0  0  0  0  0  0  0  0  0
    4.4604    2.0844    0.0000 H   0  0  0  0  0  0  0  0  0  0  0  0
    3.6585    2.4391    0.0000 H   0  0  0  0  0  0  0  0  0  0  0  0
    3.3039    1.6372    0.0000 H   0  0  0  0  0  0  0  0  0  0  0  0
  1 19  1  0  0  0  0
  1 23  1  0  0  0  0
  2 21  1  0  0  0  0
  2 27  1  0  0  0  0
  3  7  1  0  0  0  0
  3  8  1  0  0  0  0
  3  9  1  0  0  0  0
  4 11  1  0  0  0  0
  4 12  1  0  0  0  0
  4 18  1  0  0  0  0
  5 13  1  0  0  0  0
  5 14  1  0  0  0  0
  5 15  1  0  0  0  0
  6 20  1  0  0  0  0
  6 23  2  0  0  0  0
  7 10  1  0  0  0  0
  7 28  1  0  0  0  0
  7 29  1  0  0  0  0
  8 11  1  0  0  0  0
  8 30  1  0  0  0  0
  8 31  1  0  0  0  0
  9 12  1  0  0  0  0
  9 32  1  0  0  0  0
  9 33  1  0  0  0  0
 10 13  1  0  0  0  0
 10 34  1  0  0  0  0
 10 35  1  0  0  0  0
 11 36  1  0  0  0  0
 11 37  1  0  0  0  0
 12 38  1  0  0  0  0
 12 39  1  0  0  0  0
 13 40  1  0  0  0  0
 13 41  1  0  0  0  0
 14 16  1  0  0  0  0
 14 42  1  0  0  0  0
 14 43  1  0  0  0  0
 15 19  1  0  0  0  0
 15 44  1  0  0  0  0
 15 45  1  0  0  0  0
 16 17  1  0  0  0  0
 16 46  1  0  0  0  0
 16 47  1  0  0  0  0
 17 20  1  0  0  0  0
 17 48  1  0  0  0  0
 17 49  1  0  0  0  0
 18 21  1  0  0  0  0
 18 22  2  0  0  0  0
 19 20  2  0  0  0  0
 21 24  2  0  0  0  0
 22 25  1  0  0  0  0
 22 50  1  0  0  0  0
 23 51  1  0  0  0  0
 24 26  1  0  0  0  0
 24 52  1  0  0  0  0
 25 26  2  0  0  0  0
 25 53  1  0  0  0  0
 26 54  1  0  0  0  0
 27 55  1  0  0  0  0
 27 56  1  0  0  0  0
 27 57  1  0  0  0  0
M  END
> <PUBCHEM_COMPOUND_CID>
155537490

> <PUBCHEM_COMPOUND_CANONICALIZED>
1

> <PUBCHEM_CACTVS_COMPLEXITY>
446

> <PUBCHEM_CACTVS_HBOND_ACCEPTOR>
6

> <PUBCHEM_CACTVS_HBOND_DONOR>
0

> <PUBCHEM_CACTVS_ROTATABLE_BOND>
6

> <PUBCHEM_CACTVS_SUBSKEYS>
AAADceB7oABAAAAAAAAAAAAAAAAAAWAAAAA8QAAABYAAAACxwAAAHgQAAAAACAzB1ga2x5MIFAikASRjRACC+KBxKjgI2BQ/bIgOZiLk8ZuVMChkwBHY6AeQQAAAAAAAAAAAEAAAAAAAAAAgAAAAAAAAAA==

> <PUBCHEM_IUPAC_OPENEYE_NAME>
5-[3-[4-(2-methoxyphenyl)piperazin-1-yl]propyl]-4,6,7,8-tetrahydrothiazolo[5,4-c]azepine

> <PUBCHEM_IUPAC_CAS_NAME>
5-[3-[4-(2-methoxyphenyl)-1-piperazinyl]propyl]-4,6,7,8-tetrahydrothiazolo[5,4-c]azepine

> <PUBCHEM_IUPAC_NAME_MARKUP>
5-[3-[4-(2-methoxyphenyl)piperazin-1-yl]propyl]-4,6,7,8-tetrahydro-[1,3]thiazolo[5,4-c]azepine

> <PUBCHEM_IUPAC_NAME>
5-[3-[4-(2-methoxyphenyl)piperazin-1-yl]propyl]-4,6,7,8-tetrahydro-[1,3]thiazolo[5,4-c]azepine

> <PUBCHEM_IUPAC_SYSTEMATIC_NAME>
5-[3-[4-(2-methoxyphenyl)piperazin-1-yl]propyl]-4,6,7,8-tetrahydro-[1,3]thiazolo[5,4-c]azepine

> <PUBCHEM_IUPAC_TRADITIONAL_NAME>
5-[3-[4-(2-methoxyphenyl)piperazino]propyl]-4,6,7,8-tetrahydrothiazol[5,4-c]azepine

> <PUBCHEM_IUPAC_INCHI>
InChI=1S/C21H30N4OS/c1-26-20-8-3-2-7-19(20)25-14-12-23(13-15-25)10-5-11-24-9-4-6-18-21(16-24)27-17-22-18/h2-3,7-8,17H,4-6,9-16H2,1H3

> <PUBCHEM_IUPAC_INCHIKEY>
JTOJOXGQNGJXCT-UHFFFAOYSA-N

> <PUBCHEM_XLOGP3_AA>
3.2

> <PUBCHEM_EXACT_MASS>
386.21403277

> <PUBCHEM_MOLECULAR_FORMULA>
C21H30N4OS

> <PUBCHEM_MOLECULAR_WEIGHT>
386.6

> <PUBCHEM_OPENEYE_CAN_SMILES>
COC1=CC=CC=C1N2CCN(CC2)CCCN3CCCC4=C(C3)SC=N4

> <PUBCHEM_OPENEYE_ISO_SMILES>
COC1=CC=CC=C1N2CCN(CC2)CCCN3CCCC4=C(C3)SC=N4

> <PUBCHEM_CACTVS_TPSA>
60.1

> <PUBCHEM_MONOISOTOPIC_WEIGHT>
386.21403277

> <PUBCHEM_TOTAL_CHARGE>
0

> <PUBCHEM_HEAVY_ATOM_COUNT>
27

> <PUBCHEM_ATOM_DEF_STEREO_COUNT>
0

> <PUBCHEM_ATOM_UDEF_STEREO_COUNT>
0

> <PUBCHEM_BOND_DEF_STEREO_COUNT>
0

> <PUBCHEM_BOND_UDEF_STEREO_COUNT>
0

> <PUBCHEM_ISOTOPIC_ATOM_COUNT>
0

> <PUBCHEM_COMPONENT_COUNT>
1

> <PUBCHEM_CACTVS_TAUTO_COUNT>
-1

> <PUBCHEM_COORDINATE_TYPE>
1
5
255

> <PUBCHEM_BONDANNOTATIONS>
1  19  8
1  23  8
18  21  8
18  22  8
19  20  8
21  24  8
22  25  8
24  26  8
25  26  8
6  20  8
6  23  8

$$$$
