71722294
  -OEChem-09292321592D

 52 55  0     1  0  0  0  0  0999 V2000
    9.3154    4.1310    0.0000 Cl  0  0  0  0  0  0  0  0  0  0  0  0
    2.3199    4.6515    0.0000 O   0  0  0  0  0  0  0  0  0  0  0  0
    0.5381    3.6410    0.0000 O   0  0  0  0  0  0  0  0  0  0  0  0
    5.7925    1.6200    0.0000 N   0  0  3  0  0  0  0  0  0  0  0  0
    4.9343    2.1169    0.0000 C   0  0  1  0  0  0  0  0  0  0  0  0
    4.9343    3.1169    0.0000 C   0  0  0  0  0  0  0  0  0  0  0  0
    4.0682    1.6169    0.0000 C   0  0  0  0  0  0  0  0  0  0  0  0
    4.0682    3.6169    0.0000 C   0  0  0  0  0  0  0  0  0  0  0  0
    5.8443    3.6237    0.0000 C   0  0  0  0  0  0  0  0  0  0  0  0
    6.6580    2.1041    0.0000 C   0  0  0  0  0  0  0  0  0  0  0  0
    6.6836    3.0955    0.0000 C   0  0  0  0  0  0  0  0  0  0  0  0
    3.2022    2.1169    0.0000 C   0  0  0  0  0  0  0  0  0  0  0  0
    3.2022    3.1169    0.0000 C   0  0  0  0  0  0  0  0  0  0  0  0
    4.0522    4.6584    0.0000 C   0  0  0  0  0  0  0  0  0  0  0  0
    5.8523    4.6653    0.0000 C   0  0  0  0  0  0  0  0  0  0  0  0
    5.7851    0.6200    0.0000 C   0  0  0  0  0  0  0  0  0  0  0  0
    4.9502    5.1861    0.0000 C   0  0  0  0  0  0  0  0  0  0  0  0
    2.3083    3.6516    0.0000 C   0  0  0  0  0  0  0  0  0  0  0  0
    3.1804    5.1483    0.0000 C   0  0  0  0  0  0  0  0  0  0  0  0
    2.3083    1.5822    0.0000 C   0  0  0  0  0  0  0  0  0  0  0  0
    1.4022    3.1377    0.0000 C   0  0  0  0  0  0  0  0  0  0  0  0
    1.4022    2.0961    0.0000 C   0  0  0  0  0  0  0  0  0  0  0  0
    3.1689    6.1483    0.0000 C   0  0  0  0  0  0  0  0  0  0  0  0
    2.2971    6.6382    0.0000 C   0  0  0  0  0  0  0  0  0  0  0  0
    4.0291    6.6583    0.0000 C   0  0  0  0  0  0  0  0  0  0  0  0
    2.2856    7.6382    0.0000 C   0  0  0  0  0  0  0  0  0  0  0  0
    4.0175    7.6582    0.0000 C   0  0  0  0  0  0  0  0  0  0  0  0
    3.1458    8.1481    0.0000 C   0  0  0  0  0  0  0  0  0  0  0  0
    4.9337    1.2669    0.0000 H   0  0  0  0  0  0  0  0  0  0  0  0
    3.6697    1.1419    0.0000 H   0  0  0  0  0  0  0  0  0  0  0  0
    4.4668    1.1419    0.0000 H   0  0  0  0  0  0  0  0  0  0  0  0
    6.8597    1.5179    0.0000 H   0  0  0  0  0  0  0  0  0  0  0  0
    7.2708    2.1985    0.0000 H   0  0  0  0  0  0  0  0  0  0  0  0
    7.2907    2.9696    0.0000 H   0  0  0  0  0  0  0  0  0  0  0  0
    6.9154    3.6706    0.0000 H   0  0  0  0  0  0  0  0  0  0  0  0
    6.3904    4.9733    0.0000 H   0  0  0  0  0  0  0  0  0  0  0  0
    5.1651    0.6246    0.0000 H   0  0  0  0  0  0  0  0  0  0  0  0
    5.7805    0.0000    0.0000 H   0  0  0  0  0  0  0  0  0  0  0  0
    6.4051    0.6154    0.0000 H   0  0  0  0  0  0  0  0  0  0  0  0
    4.9478    5.8061    0.0000 H   0  0  0  0  0  0  0  0  0  0  0  0
    2.5687    5.2489    0.0000 H   0  0  0  0  0  0  0  0  0  0  0  0
    2.9751    4.5633    0.0000 H   0  0  0  0  0  0  0  0  0  0  0  0
    2.3154    0.9623    0.0000 H   0  0  0  0  0  0  0  0  0  0  0  0
    0.8665    1.7840    0.0000 H   0  0  0  0  0  0  0  0  0  0  0  0
    1.7865    4.9677    0.0000 H   0  0  0  0  0  0  0  0  0  0  0  0
    1.7638    6.3220    0.0000 H   0  0  0  0  0  0  0  0  0  0  0  0
    4.5695    6.3545    0.0000 H   0  0  0  0  0  0  0  0  0  0  0  0
    0.0000    3.3331    0.0000 H   0  0  0  0  0  0  0  0  0  0  0  0
    1.7451    7.9419    0.0000 H   0  0  0  0  0  0  0  0  0  0  0  0
    4.5508    7.9744    0.0000 H   0  0  0  0  0  0  0  0  0  0  0  0
    3.1386    8.7681    0.0000 H   0  0  0  0  0  0  0  0  0  0  0  0
   10.3154    4.1310    0.0000 H   0  0  0  0  0  0  0  0  0  0  0  0
  1 52  1  0  0  0  0
  2 18  1  0  0  0  0
  2 45  1  0  0  0  0
  3 21  1  0  0  0  0
  3 48  1  0  0  0  0
  4  5  1  0  0  0  0
  4 10  1  0  0  0  0
  4 16  1  0  0  0  0
  5  6  1  0  0  0  0
  5  7  1  0  0  0  0
  5 29  1  1  0  0  0
  6  8  1  0  0  0  0
  6  9  2  0  0  0  0
  7 12  1  0  0  0  0
  7 30  1  0  0  0  0
  7 31  1  0  0  0  0
  8 13  1  0  0  0  0
  8 14  2  0  0  0  0
  9 11  1  0  0  0  0
  9 15  1  0  0  0  0
 10 11  1  0  0  0  0
 10 32  1  0  0  0  0
 10 33  1  0  0  0  0
 11 34  1  0  0  0  0
 11 35  1  0  0  0  0
 12 13  2  0  0  0  0
 12 20  1  0  0  0  0
 13 18  1  0  0  0  0
 14 17  1  0  0  0  0
 14 19  1  0  0  0  0
 15 17  2  0  0  0  0
 15 36  1  0  0  0  0
 16 37  1  0  0  0  0
 16 38  1  0  0  0  0
 16 39  1  0  0  0  0
 17 40  1  0  0  0  0
 18 21  2  0  0  0  0
 19 23  1  0  0  0  0
 19 41  1  0  0  0  0
 19 42  1  0  0  0  0
 20 22  2  0  0  0  0
 20 43  1  0  0  0  0
 21 22  1  0  0  0  0
 22 44  1  0  0  0  0
 23 24  2  0  0  0  0
 23 25  1  0  0  0  0
 24 26  1  0  0  0  0
 24 46  1  0  0  0  0
 25 27  2  0  0  0  0
 25 47  1  0  0  0  0
 26 28  2  0  0  0  0
 26 49  1  0  0  0  0
 27 28  1  0  0  0  0
 27 50  1  0  0  0  0
 28 51  1  0  0  0  0
M  END
> <PUBCHEM_COMPOUND_CID>
71722294

> <PUBCHEM_COMPOUND_CANONICALIZED>
1

> <PUBCHEM_CACTVS_COMPLEXITY>
519

> <PUBCHEM_CACTVS_HBOND_ACCEPTOR>
3

> <PUBCHEM_CACTVS_HBOND_DONOR>
3

> <PUBCHEM_CACTVS_ROTATABLE_BOND>
2

> <PUBCHEM_CACTVS_SUBSKEYS>
AAADceB6MAAEAAAAAAAAAAAAAAAAAAAAAAA8YMGCAAAAAADxUAAAHgAACAAADCzBmAQyBoMAAgCAAiBCAACCAAAgIAAIiAAOjIgJJiKCkROEcAlkwBGJmAeQ0PMO4AADAAAYQADQAAaAADSAAAAAAAAAAA==

> <PUBCHEM_IUPAC_OPENEYE_NAME>
(6aR)-1-benzyl-6-methyl-5,6,6a,7-tetrahydro-4H-dibenzo[de,g]quinoline-10,11-diol;hydrochloride

> <PUBCHEM_IUPAC_CAS_NAME>
(6aR)-6-methyl-1-(phenylmethyl)-5,6,6a,7-tetrahydro-4H-dibenzo[de,g]quinoline-10,11-diol;hydrochloride

> <PUBCHEM_IUPAC_NAME_MARKUP>
(6<I>a</I><I>R</I>)-1-benzyl-6-methyl-5,6,6<I>a</I>,7-tetrahydro-4<I>H</I>-dibenzo[de,g]quinoline-10,11-diol;hydrochloride

> <PUBCHEM_IUPAC_NAME>
(6aR)-1-benzyl-6-methyl-5,6,6a,7-tetrahydro-4H-dibenzo[de,g]quinoline-10,11-diol;hydrochloride

> <PUBCHEM_IUPAC_SYSTEMATIC_NAME>
(6aR)-6-methyl-1-(phenylmethyl)-5,6,6a,7-tetrahydro-4H-dibenzo[de,g]quinoline-10,11-diol;hydrochloride

> <PUBCHEM_IUPAC_TRADITIONAL_NAME>
(6aR)-1-benzyl-6-methyl-5,6,6a,7-tetrahydro-4H-dibenzo[de,g]quinoline-10,11-diol;hydrochloride

> <PUBCHEM_IUPAC_INCHI>
InChI=1S/C24H23NO2.ClH/c1-25-12-11-16-7-8-17(13-15-5-3-2-4-6-15)22-21(16)19(25)14-18-9-10-20(26)24(27)23(18)22;/h2-10,19,26-27H,11-14H2,1H3;1H/t19-;/m1./s1

> <PUBCHEM_IUPAC_INCHIKEY>
BXLGENWYVONDKU-FSRHSHDFSA-N

> <PUBCHEM_EXACT_MASS>
393.1495567

> <PUBCHEM_MOLECULAR_FORMULA>
C24H24ClNO2

> <PUBCHEM_MOLECULAR_WEIGHT>
393.9

> <PUBCHEM_OPENEYE_CAN_SMILES>
CN1CCC2=C3C1CC4=C(C3=C(C=C2)CC5=CC=CC=C5)C(=C(C=C4)O)O.Cl

> <PUBCHEM_OPENEYE_ISO_SMILES>
CN1CCC2=C3[C@H]1CC4=C(C3=C(C=C2)CC5=CC=CC=C5)C(=C(C=C4)O)O.Cl

> <PUBCHEM_CACTVS_TPSA>
43.7

> <PUBCHEM_MONOISOTOPIC_WEIGHT>
393.1495567

> <PUBCHEM_TOTAL_CHARGE>
0

> <PUBCHEM_HEAVY_ATOM_COUNT>
28

> <PUBCHEM_ATOM_DEF_STEREO_COUNT>
1

> <PUBCHEM_ATOM_UDEF_STEREO_COUNT>
0

> <PUBCHEM_BOND_DEF_STEREO_COUNT>
0

> <PUBCHEM_BOND_UDEF_STEREO_COUNT>
0

> <PUBCHEM_ISOTOPIC_ATOM_COUNT>
0

> <PUBCHEM_COMPONENT_COUNT>
2

> <PUBCHEM_CACTVS_TAUTO_COUNT>
-1

> <PUBCHEM_COORDINATE_TYPE>
1
5
255

> <PUBCHEM_BONDANNOTATIONS>
12  13  8
12  20  8
13  18  8
14  17  8
15  17  8
18  21  8
20  22  8
21  22  8
23  24  8
23  25  8
24  26  8
25  27  8
26  28  8
27  28  8
5  29  5
6  8  8
6  9  8
8  14  8
9  15  8

$$$$
