44439375
  -OEChem-09292322492D

 38 40  0     0  0  0  0  0  0999 V2000
    3.7320    2.7500    0.0000 S   0  0  0  0  0  0  0  0  0  0  0  0
    5.4641    3.7500    0.0000 F   0  0  0  0  0  0  0  0  0  0  0  0
    2.8660   -5.7500    0.0000 F   0  0  0  0  0  0  0  0  0  0  0  0
    4.7320    2.7500    0.0000 O   0  0  0  0  0  0  0  0  0  0  0  0
    2.7320    2.7500    0.0000 O   0  0  0  0  0  0  0  0  0  0  0  0
    4.5981    0.2500    0.0000 N   0  0  0  0  0  0  0  0  0  0  0  0
    3.7320    1.7500    0.0000 C   0  0  0  0  0  0  0  0  0  0  0  0
    3.7320    3.7500    0.0000 C   0  0  0  0  0  0  0  0  0  0  0  0
    2.8660    1.2500    0.0000 C   0  0  0  0  0  0  0  0  0  0  0  0
    4.5981    1.2500    0.0000 C   0  0  0  0  0  0  0  0  0  0  0  0
    4.5981    4.2500    0.0000 C   0  0  0  0  0  0  0  0  0  0  0  0
    2.8660    4.2500    0.0000 C   0  0  0  0  0  0  0  0  0  0  0  0
    3.7320   -0.2500    0.0000 C   0  0  0  0  0  0  0  0  0  0  0  0
    2.8660    0.2500    0.0000 C   0  0  0  0  0  0  0  0  0  0  0  0
    4.5981    5.2500    0.0000 C   0  0  0  0  0  0  0  0  0  0  0  0
    2.8660    5.2500    0.0000 C   0  0  0  0  0  0  0  0  0  0  0  0
    3.7320   -1.2500    0.0000 C   0  0  0  0  0  0  0  0  0  0  0  0
    3.7320    5.7500    0.0000 C   0  0  0  0  0  0  0  0  0  0  0  0
    2.8660   -2.7500    0.0000 C   0  0  0  0  0  0  0  0  0  0  0  0
    2.8660   -1.7500    0.0000 C   0  0  0  0  0  0  0  0  0  0  0  0
    2.0000   -3.2500    0.0000 C   0  0  0  0  0  0  0  0  0  0  0  0
    3.7320   -3.2500    0.0000 C   0  0  0  0  0  0  0  0  0  0  0  0
    2.0000   -4.2500    0.0000 C   0  0  0  0  0  0  0  0  0  0  0  0
    3.7320   -4.2500    0.0000 C   0  0  0  0  0  0  0  0  0  0  0  0
    2.8660   -4.7500    0.0000 C   0  0  0  0  0  0  0  0  0  0  0  0
    2.3291    1.5600    0.0000 H   0  0  0  0  0  0  0  0  0  0  0  0
    5.1350    1.5600    0.0000 H   0  0  0  0  0  0  0  0  0  0  0  0
    2.3291    3.9400    0.0000 H   0  0  0  0  0  0  0  0  0  0  0  0
    2.3291   -0.0600    0.0000 H   0  0  0  0  0  0  0  0  0  0  0  0
    5.1350    5.5600    0.0000 H   0  0  0  0  0  0  0  0  0  0  0  0
    2.3291    5.5600    0.0000 H   0  0  0  0  0  0  0  0  0  0  0  0
    4.2690   -1.5600    0.0000 H   0  0  0  0  0  0  0  0  0  0  0  0
    3.7320    6.3700    0.0000 H   0  0  0  0  0  0  0  0  0  0  0  0
    2.3291   -1.4400    0.0000 H   0  0  0  0  0  0  0  0  0  0  0  0
    1.4631   -2.9400    0.0000 H   0  0  0  0  0  0  0  0  0  0  0  0
    4.2690   -2.9400    0.0000 H   0  0  0  0  0  0  0  0  0  0  0  0
    1.4631   -4.5600    0.0000 H   0  0  0  0  0  0  0  0  0  0  0  0
    4.2690   -4.5600    0.0000 H   0  0  0  0  0  0  0  0  0  0  0  0
  1  4  2  0  0  0  0
  1  5  2  0  0  0  0
  1  7  1  0  0  0  0
  1  8  1  0  0  0  0
  2 11  1  0  0  0  0
  3 25  1  0  0  0  0
  6 10  1  0  0  0  0
  6 13  2  0  0  0  0
  7  9  1  0  0  0  0
  7 10  2  0  0  0  0
  8 11  1  0  0  0  0
  8 12  2  0  0  0  0
  9 14  2  0  0  0  0
  9 26  1  0  0  0  0
 10 27  1  0  0  0  0
 11 15  2  0  0  0  0
 12 16  1  0  0  0  0
 12 28  1  0  0  0  0
 13 14  1  0  0  0  0
 13 17  1  0  0  0  0
 14 29  1  0  0  0  0
 15 18  1  0  0  0  0
 15 30  1  0  0  0  0
 16 18  2  0  0  0  0
 16 31  1  0  0  0  0
 17 20  2  0  0  0  0
 17 32  1  0  0  0  0
 18 33  1  0  0  0  0
 19 20  1  0  0  0  0
 19 21  2  0  0  0  0
 19 22  1  0  0  0  0
 20 34  1  0  0  0  0
 21 23  1  0  0  0  0
 21 35  1  0  0  0  0
 22 24  2  0  0  0  0
 22 36  1  0  0  0  0
 23 25  2  0  0  0  0
 23 37  1  0  0  0  0
 24 25  1  0  0  0  0
 24 38  1  0  0  0  0
M  END
> <PUBCHEM_COMPOUND_CID>
44439375

> <PUBCHEM_COMPOUND_CANONICALIZED>
1

> <PUBCHEM_CACTVS_COMPLEXITY>
552

> <PUBCHEM_CACTVS_HBOND_ACCEPTOR>
5

> <PUBCHEM_CACTVS_HBOND_DONOR>
0

> <PUBCHEM_CACTVS_ROTATABLE_BOND>
4

> <PUBCHEM_CACTVS_SUBSKEYS>
AAADccB6MYBAAAAAAAAAAAAAAAAAAAAAAAA8YIAAAAAAAAAB0AAAHQQAAAAADAjBXgw8gZIIEAqgAzRnRHDCgCAxCjAI2Dw4ZJgIIOLgkZGEIAhggADoyAcQgAAOAAAAAAAAAAAAAAAAAAAAAAAAAAAAAA==

> <PUBCHEM_IUPAC_OPENEYE_NAME>
5-(2-fluorophenyl)sulfonyl-2-[(E)-2-(4-fluorophenyl)vinyl]pyridine

> <PUBCHEM_IUPAC_CAS_NAME>
2-[(E)-2-(4-fluorophenyl)ethenyl]-5-(2-fluorophenyl)sulfonylpyridine

> <PUBCHEM_IUPAC_NAME_MARKUP>
2-[(<I>E</I>)-2-(4-fluorophenyl)ethenyl]-5-(2-fluorophenyl)sulfonylpyridine

> <PUBCHEM_IUPAC_NAME>
2-[(E)-2-(4-fluorophenyl)ethenyl]-5-(2-fluorophenyl)sulfonylpyridine

> <PUBCHEM_IUPAC_SYSTEMATIC_NAME>
2-[(E)-2-(4-fluorophenyl)ethenyl]-5-(2-fluorophenyl)sulfonyl-pyridine

> <PUBCHEM_IUPAC_TRADITIONAL_NAME>
5-(2-fluorophenyl)sulfonyl-2-[(E)-2-(4-fluorophenyl)vinyl]pyridine

> <PUBCHEM_IUPAC_INCHI>
InChI=1S/C19H13F2NO2S/c20-15-8-5-14(6-9-15)7-10-16-11-12-17(13-22-16)25(23,24)19-4-2-1-3-18(19)21/h1-13H/b10-7+

> <PUBCHEM_IUPAC_INCHIKEY>
HCQGGYRWBPHDIG-JXMROGBWSA-N

> <PUBCHEM_XLOGP3_AA>
4.2

> <PUBCHEM_EXACT_MASS>
357.06350616

> <PUBCHEM_MOLECULAR_FORMULA>
C19H13F2NO2S

> <PUBCHEM_MOLECULAR_WEIGHT>
357.4

> <PUBCHEM_OPENEYE_CAN_SMILES>
C1=CC=C(C(=C1)F)S(=O)(=O)C2=CN=C(C=C2)C=CC3=CC=C(C=C3)F

> <PUBCHEM_OPENEYE_ISO_SMILES>
C1=CC=C(C(=C1)F)S(=O)(=O)C2=CN=C(C=C2)/C=C/C3=CC=C(C=C3)F

> <PUBCHEM_CACTVS_TPSA>
55.4

> <PUBCHEM_MONOISOTOPIC_WEIGHT>
357.06350616

> <PUBCHEM_TOTAL_CHARGE>
0

> <PUBCHEM_HEAVY_ATOM_COUNT>
25

> <PUBCHEM_ATOM_DEF_STEREO_COUNT>
0

> <PUBCHEM_ATOM_UDEF_STEREO_COUNT>
0

> <PUBCHEM_BOND_DEF_STEREO_COUNT>
1

> <PUBCHEM_BOND_UDEF_STEREO_COUNT>
0

> <PUBCHEM_ISOTOPIC_ATOM_COUNT>
0

> <PUBCHEM_COMPONENT_COUNT>
1

> <PUBCHEM_CACTVS_TAUTO_COUNT>
-1

> <PUBCHEM_COORDINATE_TYPE>
1
5
255

> <PUBCHEM_BONDANNOTATIONS>
11  15  8
12  16  8
13  14  8
15  18  8
16  18  8
19  21  8
19  22  8
21  23  8
22  24  8
23  25  8
24  25  8
6  10  8
6  13  8
7  10  8
7  9  8
8  11  8
8  12  8
9  14  8

$$$$
