73352849
  -OEChem-09292322212D

 61 64  0     1  0  0  0  0  0999 V2000
    6.3301   -4.1934    0.0000 S   0  0  0  0  0  0  0  0  0  0  0  0
    2.8660   -2.1934    0.0000 O   0  0  0  0  0  0  0  0  0  0  0  0
    5.8301   -5.0594    0.0000 O   0  0  0  0  0  0  0  0  0  0  0  0
    6.8301   -3.3273    0.0000 O   0  0  0  0  0  0  0  0  0  0  0  0
    5.3768    2.1056    0.0000 N   0  0  3  0  0  0  0  0  0  0  0  0
    5.4071   -0.6056    0.0000 N   0  0  0  0  0  0  0  0  0  0  0  0
    5.6859    1.1545    0.0000 C   0  0  2  0  0  0  0  0  0  0  0  0
    6.1859    2.6934    0.0000 C   0  0  1  0  0  0  0  0  0  0  0  0
    6.6859    1.1545    0.0000 C   0  0  0  0  0  0  0  0  0  0  0  0
    6.9949    2.1056    0.0000 C   0  0  0  0  0  0  0  0  0  0  0  0
    5.0981    0.3455    0.0000 C   0  0  0  0  0  0  0  0  0  0  0  0
    4.4258    2.4146    0.0000 C   0  0  0  0  0  0  0  0  0  0  0  0
    6.1859    3.6934    0.0000 C   0  0  0  0  0  0  0  0  0  0  0  0
    4.0981    0.3455    0.0000 C   0  0  0  0  0  0  0  0  0  0  0  0
    4.2179    3.3927    0.0000 C   0  0  0  0  0  0  0  0  0  0  0  0
    5.3198    4.1934    0.0000 C   0  0  0  0  0  0  0  0  0  0  0  0
    7.0519    4.1934    0.0000 C   0  0  0  0  0  0  0  0  0  0  0  0
    4.5981   -1.1934    0.0000 C   0  0  0  0  0  0  0  0  0  0  0  0
    3.7891   -0.6056    0.0000 C   0  0  0  0  0  0  0  0  0  0  0  0
    4.5981   -2.1934    0.0000 C   0  0  0  0  0  0  0  0  0  0  0  0
    5.3198    5.1934    0.0000 C   0  0  0  0  0  0  0  0  0  0  0  0
    7.0519    5.1934    0.0000 C   0  0  0  0  0  0  0  0  0  0  0  0
    6.1859    5.6934    0.0000 C   0  0  0  0  0  0  0  0  0  0  0  0
    5.4641   -2.6934    0.0000 C   0  0  0  0  0  0  0  0  0  0  0  0
    3.7320   -2.6934    0.0000 C   0  0  0  0  0  0  0  0  0  0  0  0
    5.4641   -3.6934    0.0000 C   0  0  0  0  0  0  0  0  0  0  0  0
    3.7320   -3.6934    0.0000 C   0  0  0  0  0  0  0  0  0  0  0  0
    4.5981   -4.1934    0.0000 C   0  0  0  0  0  0  0  0  0  0  0  0
    7.1962   -4.6934    0.0000 C   0  0  0  0  0  0  0  0  0  0  0  0
    7.1962   -5.6934    0.0000 C   0  0  0  0  0  0  0  0  0  0  0  0
    2.0000   -2.6934    0.0000 C   0  0  0  0  0  0  0  0  0  0  0  0
    5.9673    0.6021    0.0000 H   0  0  0  0  0  0  0  0  0  0  0  0
    6.7383    2.9748    0.0000 H   0  0  0  0  0  0  0  0  0  0  0  0
    6.6210    0.5379    0.0000 H   0  0  0  0  0  0  0  0  0  0  0  0
    7.2923    1.0256    0.0000 H   0  0  0  0  0  0  0  0  0  0  0  0
    7.5613    1.8534    0.0000 H   0  0  0  0  0  0  0  0  0  0  0  0
    7.3049    2.6425    0.0000 H   0  0  0  0  0  0  0  0  0  0  0  0
    3.8062    2.3929    0.0000 H   0  0  0  0  0  0  0  0  0  0  0  0
    4.3395    1.8006    0.0000 H   0  0  0  0  0  0  0  0  0  0  0  0
    5.9967   -0.7972    0.0000 H   0  0  0  0  0  0  0  0  0  0  0  0
    3.7336    0.8471    0.0000 H   0  0  0  0  0  0  0  0  0  0  0  0
    4.8243    3.5216    0.0000 H   0  0  0  0  0  0  0  0  0  0  0  0
    4.0890    3.9992    0.0000 H   0  0  0  0  0  0  0  0  0  0  0  0
    3.6114    3.2638    0.0000 H   0  0  0  0  0  0  0  0  0  0  0  0
    4.7829    3.8834    0.0000 H   0  0  0  0  0  0  0  0  0  0  0  0
    7.5888    3.8834    0.0000 H   0  0  0  0  0  0  0  0  0  0  0  0
    3.1994   -0.7972    0.0000 H   0  0  0  0  0  0  0  0  0  0  0  0
    4.7829    5.5034    0.0000 H   0  0  0  0  0  0  0  0  0  0  0  0
    7.5888    5.5034    0.0000 H   0  0  0  0  0  0  0  0  0  0  0  0
    6.1859    6.3134    0.0000 H   0  0  0  0  0  0  0  0  0  0  0  0
    6.0010   -2.3834    0.0000 H   0  0  0  0  0  0  0  0  0  0  0  0
    3.1951   -4.0034    0.0000 H   0  0  0  0  0  0  0  0  0  0  0  0
    4.5981   -4.8134    0.0000 H   0  0  0  0  0  0  0  0  0  0  0  0
    7.8067   -4.8010    0.0000 H   0  0  0  0  0  0  0  0  0  0  0  0
    7.4082   -4.1107    0.0000 H   0  0  0  0  0  0  0  0  0  0  0  0
    6.5762   -5.6934    0.0000 H   0  0  0  0  0  0  0  0  0  0  0  0
    7.1962   -6.3134    0.0000 H   0  0  0  0  0  0  0  0  0  0  0  0
    7.8162   -5.6934    0.0000 H   0  0  0  0  0  0  0  0  0  0  0  0
    1.6900   -2.1564    0.0000 H   0  0  0  0  0  0  0  0  0  0  0  0
    1.4631   -3.0034    0.0000 H   0  0  0  0  0  0  0  0  0  0  0  0
    2.3100   -3.2303    0.0000 H   0  0  0  0  0  0  0  0  0  0  0  0
  1  3  2  0  0  0  0
  1  4  2  0  0  0  0
  1 26  1  0  0  0  0
  1 29  1  0  0  0  0
  2 25  1  0  0  0  0
  2 31  1  0  0  0  0
  5  7  1  0  0  0  0
  5  8  1  0  0  0  0
  5 12  1  0  0  0  0
  6 11  1  0  0  0  0
  6 18  1  0  0  0  0
  6 40  1  0  0  0  0
  7  9  1  0  0  0  0
  7 11  1  6  0  0  0
  7 32  1  0  0  0  0
  8 10  1  0  0  0  0
  8 13  1  6  0  0  0
  8 33  1  0  0  0  0
  9 10  1  0  0  0  0
  9 34  1  0  0  0  0
  9 35  1  0  0  0  0
 10 36  1  0  0  0  0
 10 37  1  0  0  0  0
 11 14  2  0  0  0  0
 12 15  1  0  0  0  0
 12 38  1  0  0  0  0
 12 39  1  0  0  0  0
 13 16  2  0  0  0  0
 13 17  1  0  0  0  0
 14 19  1  0  0  0  0
 14 41  1  0  0  0  0
 15 42  1  0  0  0  0
 15 43  1  0  0  0  0
 15 44  1  0  0  0  0
 16 21  1  0  0  0  0
 16 45  1  0  0  0  0
 17 22  2  0  0  0  0
 17 46  1  0  0  0  0
 18 19  2  0  0  0  0
 18 20  1  0  0  0  0
 19 47  1  0  0  0  0
 20 24  1  0  0  0  0
 20 25  2  0  0  0  0
 21 23  2  0  0  0  0
 21 48  1  0  0  0  0
 22 23  1  0  0  0  0
 22 49  1  0  0  0  0
 23 50  1  0  0  0  0
 24 26  2  0  0  0  0
 24 51  1  0  0  0  0
 25 27  1  0  0  0  0
 26 28  1  0  0  0  0
 27 28  2  0  0  0  0
 27 52  1  0  0  0  0
 28 53  1  0  0  0  0
 29 30  1  0  0  0  0
 29 54  1  0  0  0  0
 29 55  1  0  0  0  0
 30 56  1  0  0  0  0
 30 57  1  0  0  0  0
 30 58  1  0  0  0  0
 31 59  1  0  0  0  0
 31 60  1  0  0  0  0
 31 61  1  0  0  0  0
M  END
> <PUBCHEM_COMPOUND_CID>
73352849

> <PUBCHEM_COMPOUND_CANONICALIZED>
1

> <PUBCHEM_CACTVS_COMPLEXITY>
673

> <PUBCHEM_CACTVS_HBOND_ACCEPTOR>
4

> <PUBCHEM_CACTVS_HBOND_DONOR>
1

> <PUBCHEM_CACTVS_ROTATABLE_BOND>
7

> <PUBCHEM_CACTVS_SUBSKEYS>
AAADceB7MABAAAAAAAAAAAAAAAAAAWLAAAAwYAAAAAAAAAAB0AAAHgQQAAAADCzF3gayh5PJlAqgAyRiRHDCiCAhKjAImTg+bJgMZuLksZuUMChm0BHo6AeQwOAOAIAAgAAIAAABAAEAABAAAAAAAAAAAA==

> <PUBCHEM_IUPAC_OPENEYE_NAME>
2-[(2R,5S)-1-ethyl-5-phenyl-pyrrolidin-2-yl]-5-(5-ethylsulfonyl-2-methoxy-phenyl)-1H-pyrrole

> <PUBCHEM_IUPAC_CAS_NAME>
2-[(2R,5S)-1-ethyl-5-phenyl-2-pyrrolidinyl]-5-(5-ethylsulfonyl-2-methoxyphenyl)-1H-pyrrole

> <PUBCHEM_IUPAC_NAME_MARKUP>
2-[(2<I>R</I>,5<I>S</I>)-1-ethyl-5-phenylpyrrolidin-2-yl]-5-(5-ethylsulfonyl-2-methoxyphenyl)-1<I>H</I>-pyrrole

> <PUBCHEM_IUPAC_NAME>
2-[(2R,5S)-1-ethyl-5-phenylpyrrolidin-2-yl]-5-(5-ethylsulfonyl-2-methoxyphenyl)-1H-pyrrole

> <PUBCHEM_IUPAC_SYSTEMATIC_NAME>
2-[(2R,5S)-1-ethyl-5-phenyl-pyrrolidin-2-yl]-5-(5-ethylsulfonyl-2-methoxy-phenyl)-1H-pyrrole

> <PUBCHEM_IUPAC_TRADITIONAL_NAME>
2-(5-esyl-2-methoxy-phenyl)-5-[(2R,5S)-1-ethyl-5-phenyl-pyrrolidin-2-yl]-1H-pyrrole

> <PUBCHEM_IUPAC_INCHI>
InChI=1S/C25H30N2O3S/c1-4-27-23(18-9-7-6-8-10-18)14-15-24(27)22-13-12-21(26-22)20-17-19(31(28,29)5-2)11-16-25(20)30-3/h6-13,16-17,23-24,26H,4-5,14-15H2,1-3H3/t23-,24+/m0/s1

> <PUBCHEM_IUPAC_INCHIKEY>
OVLGSRKGTAEWQF-BJKOFHAPSA-N

> <PUBCHEM_XLOGP3_AA>
4.2

> <PUBCHEM_EXACT_MASS>
438.19771400

> <PUBCHEM_MOLECULAR_FORMULA>
C25H30N2O3S

> <PUBCHEM_MOLECULAR_WEIGHT>
438.6

> <PUBCHEM_OPENEYE_CAN_SMILES>
CCN1C(CCC1C2=CC=C(N2)C3=C(C=CC(=C3)S(=O)(=O)CC)OC)C4=CC=CC=C4

> <PUBCHEM_OPENEYE_ISO_SMILES>
CCN1[C@@H](CC[C@@H]1C2=CC=C(N2)C3=C(C=CC(=C3)S(=O)(=O)CC)OC)C4=CC=CC=C4

> <PUBCHEM_CACTVS_TPSA>
70.8

> <PUBCHEM_MONOISOTOPIC_WEIGHT>
438.19771400

> <PUBCHEM_TOTAL_CHARGE>
0

> <PUBCHEM_HEAVY_ATOM_COUNT>
31

> <PUBCHEM_ATOM_DEF_STEREO_COUNT>
2

> <PUBCHEM_ATOM_UDEF_STEREO_COUNT>
0

> <PUBCHEM_BOND_DEF_STEREO_COUNT>
0

> <PUBCHEM_BOND_UDEF_STEREO_COUNT>
0

> <PUBCHEM_ISOTOPIC_ATOM_COUNT>
0

> <PUBCHEM_COMPONENT_COUNT>
1

> <PUBCHEM_CACTVS_TAUTO_COUNT>
-1

> <PUBCHEM_COORDINATE_TYPE>
1
5
255

> <PUBCHEM_BONDANNOTATIONS>
11  14  8
13  16  8
13  17  8
14  19  8
16  21  8
17  22  8
18  19  8
20  24  8
20  25  8
21  23  8
22  23  8
24  26  8
25  27  8
26  28  8
27  28  8
6  11  8
6  18  8
7  11  6
8  13  6

$$$$
