44406881
  -OEChem-09292322482D

 50 53  0     1  0  0  0  0  0999 V2000
    3.8611   -0.4887    0.0000 N   0  0  0  0  0  0  0  0  0  0  0  0
    7.1962    1.6784    0.0000 N   0  0  3  0  0  0  0  0  0  0  0  0
    4.5981    1.1784    0.0000 C   0  0  3  0  0  0  0  0  0  0  0  0
    4.5981    0.1784    0.0000 C   0  0  0  0  0  0  0  0  0  0  0  0
    5.4641    1.6784    0.0000 C   0  0  0  0  0  0  0  0  0  0  0  0
    5.4641   -0.3216    0.0000 C   0  0  0  0  0  0  0  0  0  0  0  0
    5.4641    2.6784    0.0000 C   0  0  0  0  0  0  0  0  0  0  0  0
    6.3301    0.1784    0.0000 C   0  0  0  0  0  0  0  0  0  0  0  0
    6.3301    3.1784    0.0000 C   0  0  0  0  0  0  0  0  0  0  0  0
    6.3301    1.1784    0.0000 C   0  0  0  0  0  0  0  0  0  0  0  0
    5.2549   -1.2934    0.0000 C   0  0  0  0  0  0  0  0  0  0  0  0
    7.1962    2.6784    0.0000 C   0  0  0  0  0  0  0  0  0  0  0  0
    3.7320    1.6784    0.0000 C   0  0  0  0  0  0  0  0  0  0  0  0
    4.2662   -1.3965    0.0000 C   0  0  0  0  0  0  0  0  0  0  0  0
    5.8756   -2.1222    0.0000 C   0  0  0  0  0  0  0  0  0  0  0  0
    8.0622    1.1784    0.0000 C   0  0  0  0  0  0  0  0  0  0  0  0
    3.8297   -2.3355    0.0000 C   0  0  0  0  0  0  0  0  0  0  0  0
    2.8660    1.1784    0.0000 C   0  0  0  0  0  0  0  0  0  0  0  0
    3.7320    2.6784    0.0000 C   0  0  0  0  0  0  0  0  0  0  0  0
    5.4610   -3.0710    0.0000 C   0  0  0  0  0  0  0  0  0  0  0  0
    4.4311   -3.1784    0.0000 C   0  0  0  0  0  0  0  0  0  0  0  0
    2.0000    1.6784    0.0000 C   0  0  0  0  0  0  0  0  0  0  0  0
    2.8660    3.1784    0.0000 C   0  0  0  0  0  0  0  0  0  0  0  0
    2.0000    2.6784    0.0000 C   0  0  0  0  0  0  0  0  0  0  0  0
    4.5981    1.7984    0.0000 H   0  0  0  0  0  0  0  0  0  0  0  0
    5.6762    1.0958    0.0000 H   0  0  0  0  0  0  0  0  0  0  0  0
    6.0747    1.7860    0.0000 H   0  0  0  0  0  0  0  0  0  0  0  0
    5.2520    3.2610    0.0000 H   0  0  0  0  0  0  0  0  0  0  0  0
    4.8535    2.5707    0.0000 H   0  0  0  0  0  0  0  0  0  0  0  0
    6.5422   -0.4042    0.0000 H   0  0  0  0  0  0  0  0  0  0  0  0
    6.9407    0.2860    0.0000 H   0  0  0  0  0  0  0  0  0  0  0  0
    6.7287    3.6533    0.0000 H   0  0  0  0  0  0  0  0  0  0  0  0
    5.9316    3.6533    0.0000 H   0  0  0  0  0  0  0  0  0  0  0  0
    6.1181    1.7610    0.0000 H   0  0  0  0  0  0  0  0  0  0  0  0
    5.7196    1.0707    0.0000 H   0  0  0  0  0  0  0  0  0  0  0  0
    7.8067    2.5707    0.0000 H   0  0  0  0  0  0  0  0  0  0  0  0
    7.4082    3.2610    0.0000 H   0  0  0  0  0  0  0  0  0  0  0  0
    3.2544   -0.3609    0.0000 H   0  0  0  0  0  0  0  0  0  0  0  0
    6.4915   -2.0508    0.0000 H   0  0  0  0  0  0  0  0  0  0  0  0
    7.7522    0.6414    0.0000 H   0  0  0  0  0  0  0  0  0  0  0  0
    8.5991    0.8684    0.0000 H   0  0  0  0  0  0  0  0  0  0  0  0
    8.3722    1.7153    0.0000 H   0  0  0  0  0  0  0  0  0  0  0  0
    3.2123   -2.3926    0.0000 H   0  0  0  0  0  0  0  0  0  0  0  0
    2.8660    0.5584    0.0000 H   0  0  0  0  0  0  0  0  0  0  0  0
    4.2690    2.9884    0.0000 H   0  0  0  0  0  0  0  0  0  0  0  0
    5.8269   -3.5715    0.0000 H   0  0  0  0  0  0  0  0  0  0  0  0
    4.1762   -3.7436    0.0000 H   0  0  0  0  0  0  0  0  0  0  0  0
    1.4631    1.3684    0.0000 H   0  0  0  0  0  0  0  0  0  0  0  0
    2.8660    3.7984    0.0000 H   0  0  0  0  0  0  0  0  0  0  0  0
    1.4631    2.9884    0.0000 H   0  0  0  0  0  0  0  0  0  0  0  0
  1  4  1  0  0  0  0
  1 14  1  0  0  0  0
  1 38  1  0  0  0  0
  2 10  1  0  0  0  0
  2 12  1  0  0  0  0
  2 16  1  0  0  0  0
  3  4  1  0  0  0  0
  3  5  1  0  0  0  0
  3 13  1  0  0  0  0
  3 25  1  0  0  0  0
  4  6  2  0  0  0  0
  5  7  1  0  0  0  0
  5 26  1  0  0  0  0
  5 27  1  0  0  0  0
  6  8  1  0  0  0  0
  6 11  1  0  0  0  0
  7  9  1  0  0  0  0
  7 28  1  0  0  0  0
  7 29  1  0  0  0  0
  8 10  1  0  0  0  0
  8 30  1  0  0  0  0
  8 31  1  0  0  0  0
  9 12  1  0  0  0  0
  9 32  1  0  0  0  0
  9 33  1  0  0  0  0
 10 34  1  0  0  0  0
 10 35  1  0  0  0  0
 11 14  1  0  0  0  0
 11 15  2  0  0  0  0
 12 36  1  0  0  0  0
 12 37  1  0  0  0  0
 13 18  2  0  0  0  0
 13 19  1  0  0  0  0
 14 17  2  0  0  0  0
 15 20  1  0  0  0  0
 15 39  1  0  0  0  0
 16 40  1  0  0  0  0
 16 41  1  0  0  0  0
 16 42  1  0  0  0  0
 17 21  1  0  0  0  0
 17 43  1  0  0  0  0
 18 22  1  0  0  0  0
 18 44  1  0  0  0  0
 19 23  2  0  0  0  0
 19 45  1  0  0  0  0
 20 21  2  0  0  0  0
 20 46  1  0  0  0  0
 21 47  1  0  0  0  0
 22 24  2  0  0  0  0
 22 48  1  0  0  0  0
 23 24  1  0  0  0  0
 23 49  1  0  0  0  0
 24 50  1  0  0  0  0
M  END
> <PUBCHEM_COMPOUND_CID>
44406881

> <PUBCHEM_COMPOUND_CANONICALIZED>
1

> <PUBCHEM_CACTVS_COMPLEXITY>
389

> <PUBCHEM_CACTVS_HBOND_ACCEPTOR>
1

> <PUBCHEM_CACTVS_HBOND_DONOR>
1

> <PUBCHEM_CACTVS_ROTATABLE_BOND>
1

> <PUBCHEM_CACTVS_SUBSKEYS>
AAADceB7AAAAAAAAAAAAAAAAAAAAAWAAAAAwYAAAAAAAAFix9AAAHAAQAAAADQjBHgQywPPJkACgAyRiRACCgCAhAiAImSA4ZJgIIOLAkZGEIAhgkADIyAcQgMAOgAAAAAACAAAAAAAAAAQAAAAAAAAAAA==

> <PUBCHEM_IUPAC_OPENEYE_NAME>
7-methyl-2-phenyl-7,17-diazatricyclo[8.7.0.011,16]heptadeca-1(10),11,13,15-tetraene

> <PUBCHEM_IUPAC_CAS_NAME>
7-methyl-2-phenyl-7,17-diazatricyclo[8.7.0.011,16]heptadeca-1(10),11,13,15-tetraene

> <PUBCHEM_IUPAC_NAME_MARKUP>
7-methyl-2-phenyl-7,17-diazatricyclo[8.7.0.0<SUP>11,16</SUP>]heptadeca-1(10),11,13,15-tetraene

> <PUBCHEM_IUPAC_NAME>
7-methyl-2-phenyl-7,17-diazatricyclo[8.7.0.011,16]heptadeca-1(10),11,13,15-tetraene

> <PUBCHEM_IUPAC_SYSTEMATIC_NAME>
7-methyl-2-phenyl-7,17-diazatricyclo[8.7.0.011,16]heptadeca-1(10),11,13,15-tetraene

> <PUBCHEM_IUPAC_TRADITIONAL_NAME>
7-methyl-2-phenyl-7,17-diazatricyclo[8.7.0.011,16]heptadeca-1(10),11,13,15-tetraene

> <PUBCHEM_IUPAC_INCHI>
InChI=1S/C22H26N2/c1-24-15-8-7-11-18(17-9-3-2-4-10-17)22-20(14-16-24)19-12-5-6-13-21(19)23-22/h2-6,9-10,12-13,18,23H,7-8,11,14-16H2,1H3

> <PUBCHEM_IUPAC_INCHIKEY>
DVRFGSUDPKIMDT-UHFFFAOYSA-N

> <PUBCHEM_XLOGP3_AA>
4.9

> <PUBCHEM_EXACT_MASS>
318.209598838

> <PUBCHEM_MOLECULAR_FORMULA>
C22H26N2

> <PUBCHEM_MOLECULAR_WEIGHT>
318.5

> <PUBCHEM_OPENEYE_CAN_SMILES>
CN1CCCCC(C2=C(CC1)C3=CC=CC=C3N2)C4=CC=CC=C4

> <PUBCHEM_OPENEYE_ISO_SMILES>
CN1CCCCC(C2=C(CC1)C3=CC=CC=C3N2)C4=CC=CC=C4

> <PUBCHEM_CACTVS_TPSA>
19

> <PUBCHEM_MONOISOTOPIC_WEIGHT>
318.209598838

> <PUBCHEM_TOTAL_CHARGE>
0

> <PUBCHEM_HEAVY_ATOM_COUNT>
24

> <PUBCHEM_ATOM_DEF_STEREO_COUNT>
0

> <PUBCHEM_ATOM_UDEF_STEREO_COUNT>
1

> <PUBCHEM_BOND_DEF_STEREO_COUNT>
0

> <PUBCHEM_BOND_UDEF_STEREO_COUNT>
0

> <PUBCHEM_ISOTOPIC_ATOM_COUNT>
0

> <PUBCHEM_COMPONENT_COUNT>
1

> <PUBCHEM_CACTVS_TAUTO_COUNT>
-1

> <PUBCHEM_COORDINATE_TYPE>
1
5
255

> <PUBCHEM_BONDANNOTATIONS>
1  14  8
1  4  8
11  14  8
11  15  8
13  18  8
13  19  8
14  17  8
15  20  8
17  21  8
18  22  8
19  23  8
20  21  8
22  24  8
23  24  8
3  13  3
4  6  8
6  11  8

$$$$
