44329046
  -OEChem-09292322212D

 74 78  0     1  0  0  0  0  0999 V2000
    9.8334    7.0546    0.0000 S   0  0  0  0  0  0  0  0  0  0  0  0
    9.8296    6.0546    0.0000 O   0  0  0  0  0  0  0  0  0  0  0  0
   10.8334    7.0507    0.0000 O   0  0  0  0  0  0  0  0  0  0  0  0
    8.8334    7.0584    0.0000 O   0  0  0  0  0  0  0  0  0  0  0  0
    2.0000   -1.5650    0.0000 O   0  0  0  0  0  0  0  0  0  0  0  0
    5.4176    2.4748    0.0000 N   0  0  3  0  0  0  0  0  0  0  0  0
    3.7319   -1.5450    0.0000 N   0  0  0  0  0  0  0  0  0  0  0  0
    6.3116    3.0095    0.0000 C   0  0  2  0  0  0  0  0  0  0  0  0
    6.3116    4.0095    0.0000 C   0  0  1  0  0  0  0  0  0  0  0  0
    5.4176    4.5441    0.0000 C   0  0  0  0  0  0  0  0  0  0  0  0
    7.1776    2.5095    0.0000 C   0  0  0  0  0  0  0  0  0  0  0  0
    4.5116    2.9886    0.0000 C   0  0  0  0  0  0  0  0  0  0  0  0
    4.5116    4.0303    0.0000 C   0  0  0  0  0  0  0  0  0  0  0  0
    7.1776    4.5095    0.0000 C   0  0  0  0  0  0  0  0  0  0  0  0
    8.0436    3.0095    0.0000 C   0  0  0  0  0  0  0  0  0  0  0  0
    8.0436    4.0095    0.0000 C   0  0  0  0  0  0  0  0  0  0  0  0
    5.4292    1.4749    0.0000 C   0  0  0  0  0  0  0  0  0  0  0  0
    7.1615    5.5510    0.0000 C   0  0  0  0  0  0  0  0  0  0  0  0
    4.5690    0.9649    0.0000 C   0  0  0  0  0  0  0  0  0  0  0  0
    8.9536    4.5163    0.0000 C   0  0  0  0  0  0  0  0  0  0  0  0
    8.0596    6.0787    0.0000 C   0  0  0  0  0  0  0  0  0  0  0  0
    8.9616    5.5579    0.0000 C   0  0  0  0  0  0  0  0  0  0  0  0
    4.5806   -0.0351    0.0000 C   0  0  0  0  0  0  0  0  0  0  0  0
    3.7204   -0.5450    0.0000 C   0  0  0  0  0  0  0  0  0  0  0  0
    2.8718   -2.0550    0.0000 C   0  0  0  0  0  0  0  0  0  0  0  0
    9.8373    8.0546    0.0000 C   0  0  0  0  0  0  0  0  0  0  0  0
    2.8833   -3.0549    0.0000 C   0  0  0  0  0  0  0  0  0  0  0  0
    3.7551   -3.5448    0.0000 C   0  0  0  0  0  0  0  0  0  0  0  0
    2.0231   -3.5649    0.0000 C   0  0  0  0  0  0  0  0  0  0  0  0
    3.7666   -4.5448    0.0000 C   0  0  0  0  0  0  0  0  0  0  0  0
    2.0347   -4.5648    0.0000 C   0  0  0  0  0  0  0  0  0  0  0  0
    2.9064   -5.0548    0.0000 C   0  0  0  0  0  0  0  0  0  0  0  0
    2.9180   -6.0547    0.0000 C   0  0  0  0  0  0  0  0  0  0  0  0
    2.0578   -6.5647    0.0000 C   0  0  0  0  0  0  0  0  0  0  0  0
    3.7898   -6.5446    0.0000 C   0  0  0  0  0  0  0  0  0  0  0  0
    2.0694   -7.5646    0.0000 C   0  0  0  0  0  0  0  0  0  0  0  0
    3.8013   -7.5446    0.0000 C   0  0  0  0  0  0  0  0  0  0  0  0
    2.9411   -8.0546    0.0000 C   0  0  0  0  0  0  0  0  0  0  0  0
    6.3181    2.1595    0.0000 H   0  0  0  0  0  0  0  0  0  0  0  0
    6.3181    4.8594    0.0000 H   0  0  0  0  0  0  0  0  0  0  0  0
    5.8222    5.0139    0.0000 H   0  0  0  0  0  0  0  0  0  0  0  0
    5.0240    5.0231    0.0000 H   0  0  0  0  0  0  0  0  0  0  0  0
    6.7791    2.0345    0.0000 H   0  0  0  0  0  0  0  0  0  0  0  0
    7.5761    2.0345    0.0000 H   0  0  0  0  0  0  0  0  0  0  0  0
    3.9007    3.0947    0.0000 H   0  0  0  0  0  0  0  0  0  0  0  0
    4.3025    2.4050    0.0000 H   0  0  0  0  0  0  0  0  0  0  0  0
    4.3025    4.6140    0.0000 H   0  0  0  0  0  0  0  0  0  0  0  0
    3.9007    3.9242    0.0000 H   0  0  0  0  0  0  0  0  0  0  0  0
    8.2557    2.4268    0.0000 H   0  0  0  0  0  0  0  0  0  0  0  0
    8.6542    3.1171    0.0000 H   0  0  0  0  0  0  0  0  0  0  0  0
    5.6480    0.8947    0.0000 H   0  0  0  0  0  0  0  0  0  0  0  0
    6.0385    1.5896    0.0000 H   0  0  0  0  0  0  0  0  0  0  0  0
    6.6210    5.8547    0.0000 H   0  0  0  0  0  0  0  0  0  0  0  0
    4.3502    1.5450    0.0000 H   0  0  0  0  0  0  0  0  0  0  0  0
    3.9597    0.8502    0.0000 H   0  0  0  0  0  0  0  0  0  0  0  0
    9.4869    4.2001    0.0000 H   0  0  0  0  0  0  0  0  0  0  0  0
    8.0572    6.6987    0.0000 H   0  0  0  0  0  0  0  0  0  0  0  0
    4.7993   -0.6152    0.0000 H   0  0  0  0  0  0  0  0  0  0  0  0
    5.1898    0.0797    0.0000 H   0  0  0  0  0  0  0  0  0  0  0  0
    3.5016    0.0351    0.0000 H   0  0  0  0  0  0  0  0  0  0  0  0
    3.1111   -0.6597    0.0000 H   0  0  0  0  0  0  0  0  0  0  0  0
    4.2724   -1.8487    0.0000 H   0  0  0  0  0  0  0  0  0  0  0  0
   10.4573    8.0522    0.0000 H   0  0  0  0  0  0  0  0  0  0  0  0
    9.8397    8.6745    0.0000 H   0  0  0  0  0  0  0  0  0  0  0  0
    9.2173    8.0569    0.0000 H   0  0  0  0  0  0  0  0  0  0  0  0
    4.2884   -3.2286    0.0000 H   0  0  0  0  0  0  0  0  0  0  0  0
    1.4826   -3.2611    0.0000 H   0  0  0  0  0  0  0  0  0  0  0  0
    4.3071   -4.8485    0.0000 H   0  0  0  0  0  0  0  0  0  0  0  0
    1.5014   -4.8810    0.0000 H   0  0  0  0  0  0  0  0  0  0  0  0
    1.5173   -6.2609    0.0000 H   0  0  0  0  0  0  0  0  0  0  0  0
    4.3231   -6.2284    0.0000 H   0  0  0  0  0  0  0  0  0  0  0  0
    1.5361   -7.8808    0.0000 H   0  0  0  0  0  0  0  0  0  0  0  0
    4.3418   -7.8483    0.0000 H   0  0  0  0  0  0  0  0  0  0  0  0
    2.9483   -8.6745    0.0000 H   0  0  0  0  0  0  0  0  0  0  0  0
  1  2  1  0  0  0  0
  1  3  2  0  0  0  0
  1  4  2  0  0  0  0
  1 26  1  0  0  0  0
  2 22  1  0  0  0  0
  5 25  2  0  0  0  0
  6  8  1  0  0  0  0
  6 12  1  0  0  0  0
  6 17  1  0  0  0  0
  7 24  1  0  0  0  0
  7 25  1  0  0  0  0
  7 62  1  0  0  0  0
  8  9  1  0  0  0  0
  8 11  1  0  0  0  0
  8 39  1  1  0  0  0
  9 10  1  0  0  0  0
  9 14  1  0  0  0  0
  9 40  1  6  0  0  0
 10 13  1  0  0  0  0
 10 41  1  0  0  0  0
 10 42  1  0  0  0  0
 11 15  1  0  0  0  0
 11 43  1  0  0  0  0
 11 44  1  0  0  0  0
 12 13  1  0  0  0  0
 12 45  1  0  0  0  0
 12 46  1  0  0  0  0
 13 47  1  0  0  0  0
 13 48  1  0  0  0  0
 14 16  2  0  0  0  0
 14 18  1  0  0  0  0
 15 16  1  0  0  0  0
 15 49  1  0  0  0  0
 15 50  1  0  0  0  0
 16 20  1  0  0  0  0
 17 19  1  0  0  0  0
 17 51  1  0  0  0  0
 17 52  1  0  0  0  0
 18 21  2  0  0  0  0
 18 53  1  0  0  0  0
 19 23  1  0  0  0  0
 19 54  1  0  0  0  0
 19 55  1  0  0  0  0
 20 22  2  0  0  0  0
 20 56  1  0  0  0  0
 21 22  1  0  0  0  0
 21 57  1  0  0  0  0
 23 24  1  0  0  0  0
 23 58  1  0  0  0  0
 23 59  1  0  0  0  0
 24 60  1  0  0  0  0
 24 61  1  0  0  0  0
 25 27  1  0  0  0  0
 26 63  1  0  0  0  0
 26 64  1  0  0  0  0
 26 65  1  0  0  0  0
 27 28  2  0  0  0  0
 27 29  1  0  0  0  0
 28 30  1  0  0  0  0
 28 66  1  0  0  0  0
 29 31  2  0  0  0  0
 29 67  1  0  0  0  0
 30 32  2  0  0  0  0
 30 68  1  0  0  0  0
 31 32  1  0  0  0  0
 31 69  1  0  0  0  0
 32 33  1  0  0  0  0
 33 34  2  0  0  0  0
 33 35  1  0  0  0  0
 34 36  1  0  0  0  0
 34 70  1  0  0  0  0
 35 37  2  0  0  0  0
 35 71  1  0  0  0  0
 36 38  2  0  0  0  0
 36 72  1  0  0  0  0
 37 38  1  0  0  0  0
 37 73  1  0  0  0  0
 38 74  1  0  0  0  0
M  END
> <PUBCHEM_COMPOUND_CID>
44329046

> <PUBCHEM_COMPOUND_CANONICALIZED>
1

> <PUBCHEM_CACTVS_COMPLEXITY>
860

> <PUBCHEM_CACTVS_HBOND_ACCEPTOR>
5

> <PUBCHEM_CACTVS_HBOND_DONOR>
1

> <PUBCHEM_CACTVS_ROTATABLE_BOND>
9

> <PUBCHEM_CACTVS_SUBSKEYS>
AAADcfB7OABAAAAAAAAAAAAAAAAAAAAAAAA8YMGCAAAAAADxUAAAHgQQAAAADSzBmASyBoPAAAKIAiFSEHCCAAAkIAAIiIEODMgIJjKAlROEMQhk1hGIiYeYyPCO4AABAAAQAADQAAaAACQAAAAAAAAAAA==

> <PUBCHEM_IUPAC_OPENEYE_NAME>
[(4aS,10bS)-4-[4-[(4-phenylbenzoyl)amino]butyl]-2,3,4a,5,6,10b-hexahydro-1H-benzo[f]quinolin-8-yl] methanesulfonate

> <PUBCHEM_IUPAC_CAS_NAME>
methanesulfonic acid [(4aS,10bS)-4-[4-[[oxo-(4-phenylphenyl)methyl]amino]butyl]-2,3,4a,5,6,10b-hexahydro-1H-benzo[f]quinolin-8-yl] ester

> <PUBCHEM_IUPAC_NAME_MARKUP>
[(4<I>a</I><I>S</I>,10<I>b</I><I>S</I>)-4-[4-[(4-phenylbenzoyl)amino]butyl]-2,3,4<I>a</I>,5,6,10<I>b</I>-hexahydro-1<I>H</I>-benzo[f]quinolin-8-yl] methanesulfonate

> <PUBCHEM_IUPAC_NAME>
[(4aS,10bS)-4-[4-[(4-phenylbenzoyl)amino]butyl]-2,3,4a,5,6,10b-hexahydro-1H-benzo[f]quinolin-8-yl] methanesulfonate

> <PUBCHEM_IUPAC_SYSTEMATIC_NAME>
[(4aS,10bS)-4-[4-[(4-phenylphenyl)carbonylamino]butyl]-2,3,4a,5,6,10b-hexahydro-1H-benzo[f]quinolin-8-yl] methanesulfonate

> <PUBCHEM_IUPAC_TRADITIONAL_NAME>
methanesulfonic acid [(4aS,10bS)-4-[4-[(4-phenylbenzoyl)amino]butyl]-2,3,4a,5,6,10b-hexahydro-1H-benzo[f]quinolin-8-yl] ester

> <PUBCHEM_IUPAC_INCHI>
InChI=1S/C31H36N2O4S/c1-38(35,36)37-27-16-17-28-26(22-27)15-18-30-29(28)10-7-21-33(30)20-6-5-19-32-31(34)25-13-11-24(12-14-25)23-8-3-2-4-9-23/h2-4,8-9,11-14,16-17,22,29-30H,5-7,10,15,18-21H2,1H3,(H,32,34)/t29-,30-/m0/s1

> <PUBCHEM_IUPAC_INCHIKEY>
QCZONXSWEXKHJH-KYJUHHDHSA-N

> <PUBCHEM_XLOGP3_AA>
5.8

> <PUBCHEM_EXACT_MASS>
532.23957881

> <PUBCHEM_MOLECULAR_FORMULA>
C31H36N2O4S

> <PUBCHEM_MOLECULAR_WEIGHT>
532.7

> <PUBCHEM_OPENEYE_CAN_SMILES>
CS(=O)(=O)OC1=CC2=C(C=C1)C3CCCN(C3CC2)CCCCNC(=O)C4=CC=C(C=C4)C5=CC=CC=C5

> <PUBCHEM_OPENEYE_ISO_SMILES>
CS(=O)(=O)OC1=CC2=C(C=C1)[C@@H]3CCCN([C@H]3CC2)CCCCNC(=O)C4=CC=C(C=C4)C5=CC=CC=C5

> <PUBCHEM_CACTVS_TPSA>
84.1

> <PUBCHEM_MONOISOTOPIC_WEIGHT>
532.23957881

> <PUBCHEM_TOTAL_CHARGE>
0

> <PUBCHEM_HEAVY_ATOM_COUNT>
38

> <PUBCHEM_ATOM_DEF_STEREO_COUNT>
2

> <PUBCHEM_ATOM_UDEF_STEREO_COUNT>
0

> <PUBCHEM_BOND_DEF_STEREO_COUNT>
0

> <PUBCHEM_BOND_UDEF_STEREO_COUNT>
0

> <PUBCHEM_ISOTOPIC_ATOM_COUNT>
0

> <PUBCHEM_COMPONENT_COUNT>
1

> <PUBCHEM_CACTVS_TAUTO_COUNT>
-1

> <PUBCHEM_COORDINATE_TYPE>
1
5
255

> <PUBCHEM_BONDANNOTATIONS>
14  16  8
14  18  8
16  20  8
18  21  8
20  22  8
21  22  8
27  28  8
27  29  8
28  30  8
29  31  8
30  32  8
31  32  8
33  34  8
33  35  8
34  36  8
35  37  8
36  38  8
37  38  8
8  39  5
9  40  6

$$$$
