146025774
  -OEChem-09292322012D

 55 57  0     1  0  0  0  0  0999 V2000
    3.7320    2.7738    0.0000 Cl  0  0  0  0  0  0  0  0  0  0  0  0
    2.0000    1.7738    0.0000 Cl  0  0  0  0  0  0  0  0  0  0  0  0
   12.4583   -0.2704    0.0000 O   0  0  0  0  0  0  0  0  0  0  0  0
    6.3981    0.2529    0.0000 N   0  0  3  0  0  0  0  0  0  0  0  0
   11.5865   -1.7671    0.0000 N   0  0  0  0  0  0  0  0  0  0  0  0
   13.3185   -1.7738    0.0000 N   0  0  0  0  0  0  0  0  0  0  0  0
    8.9942   -0.2571    0.0000 C   0  0  0  0  0  0  0  0  0  0  0  0
    8.9904   -1.2571    0.0000 C   0  0  0  0  0  0  0  0  0  0  0  0
    9.8622    0.2396    0.0000 C   0  0  0  0  0  0  0  0  0  0  0  0
   10.7224   -1.2638    0.0000 C   0  0  0  0  0  0  0  0  0  0  0  0
    9.8544   -1.7604    0.0000 C   0  0  0  0  0  0  0  0  0  0  0  0
   10.7263   -0.2638    0.0000 C   0  0  0  0  0  0  0  0  0  0  0  0
    8.1301    0.2463    0.0000 C   0  0  0  0  0  0  0  0  0  0  0  0
    7.2622   -0.2504    0.0000 C   0  0  0  0  0  0  0  0  0  0  0  0
    6.3981    1.2946    0.0000 C   0  0  0  0  0  0  0  0  0  0  0  0
    5.4920   -0.2609    0.0000 C   0  0  0  0  0  0  0  0  0  0  0  0
    5.4920    1.8084    0.0000 C   0  0  0  0  0  0  0  0  0  0  0  0
    4.5981    0.2737    0.0000 C   0  0  0  0  0  0  0  0  0  0  0  0
    4.5981    1.2738    0.0000 C   0  0  0  0  0  0  0  0  0  0  0  0
   12.4544   -1.2704    0.0000 C   0  0  0  0  0  0  0  0  0  0  0  0
    3.7320   -0.2263    0.0000 C   0  0  0  0  0  0  0  0  0  0  0  0
    3.7320    1.7738    0.0000 C   0  0  0  0  0  0  0  0  0  0  0  0
    2.8660    0.2737    0.0000 C   0  0  0  0  0  0  0  0  0  0  0  0
    2.8660    1.2738    0.0000 C   0  0  0  0  0  0  0  0  0  0  0  0
   14.1865   -1.2771    0.0000 C   0  0  0  0  0  0  0  0  0  0  0  0
   13.3147   -2.7738    0.0000 C   0  0  0  0  0  0  0  0  0  0  0  0
    8.9966    0.3629    0.0000 H   0  0  0  0  0  0  0  0  0  0  0  0
    8.3802   -1.1470    0.0000 H   0  0  0  0  0  0  0  0  0  0  0  0
    8.7761   -1.8389    0.0000 H   0  0  0  0  0  0  0  0  0  0  0  0
   10.2625    0.7130    0.0000 H   0  0  0  0  0  0  0  0  0  0  0  0
    9.4655    0.7161    0.0000 H   0  0  0  0  0  0  0  0  0  0  0  0
   10.7200   -1.8837    0.0000 H   0  0  0  0  0  0  0  0  0  0  0  0
    9.4541   -2.2338    0.0000 H   0  0  0  0  0  0  0  0  0  0  0  0
   10.2511   -2.2369    0.0000 H   0  0  0  0  0  0  0  0  0  0  0  0
   11.3364   -0.3738    0.0000 H   0  0  0  0  0  0  0  0  0  0  0  0
   10.9405    0.3180    0.0000 H   0  0  0  0  0  0  0  0  0  0  0  0
    8.5305    0.7197    0.0000 H   0  0  0  0  0  0  0  0  0  0  0  0
    7.7334    0.7227    0.0000 H   0  0  0  0  0  0  0  0  0  0  0  0
    6.8618   -0.7238    0.0000 H   0  0  0  0  0  0  0  0  0  0  0  0
    7.6589   -0.7269    0.0000 H   0  0  0  0  0  0  0  0  0  0  0  0
   11.5841   -2.3871    0.0000 H   0  0  0  0  0  0  0  0  0  0  0  0
    7.0089    1.1885    0.0000 H   0  0  0  0  0  0  0  0  0  0  0  0
    6.6071    1.8783    0.0000 H   0  0  0  0  0  0  0  0  0  0  0  0
    5.0874   -0.7307    0.0000 H   0  0  0  0  0  0  0  0  0  0  0  0
    5.8856   -0.7399    0.0000 H   0  0  0  0  0  0  0  0  0  0  0  0
    5.8856    2.2874    0.0000 H   0  0  0  0  0  0  0  0  0  0  0  0
    5.0874    2.2782    0.0000 H   0  0  0  0  0  0  0  0  0  0  0  0
    3.7320   -0.8463    0.0000 H   0  0  0  0  0  0  0  0  0  0  0  0
    2.3291   -0.0363    0.0000 H   0  0  0  0  0  0  0  0  0  0  0  0
   14.4944   -1.8152    0.0000 H   0  0  0  0  0  0  0  0  0  0  0  0
   14.7246   -0.9692    0.0000 H   0  0  0  0  0  0  0  0  0  0  0  0
   13.8785   -0.7390    0.0000 H   0  0  0  0  0  0  0  0  0  0  0  0
   12.6947   -2.7714    0.0000 H   0  0  0  0  0  0  0  0  0  0  0  0
   13.3123   -3.3937    0.0000 H   0  0  0  0  0  0  0  0  0  0  0  0
   13.9347   -2.7761    0.0000 H   0  0  0  0  0  0  0  0  0  0  0  0
  1 22  1  0  0  0  0
  2 24  1  0  0  0  0
  3 20  2  0  0  0  0
  4 14  1  0  0  0  0
  4 15  1  0  0  0  0
  4 16  1  0  0  0  0
  5 10  1  0  0  0  0
  5 20  1  0  0  0  0
  5 41  1  0  0  0  0
  6 20  1  0  0  0  0
  6 25  1  0  0  0  0
  6 26  1  0  0  0  0
  7  8  1  0  0  0  0
  7  9  1  0  0  0  0
  7 13  1  0  0  0  0
  7 27  1  0  0  0  0
  8 11  1  0  0  0  0
  8 28  1  0  0  0  0
  8 29  1  0  0  0  0
  9 12  1  0  0  0  0
  9 30  1  0  0  0  0
  9 31  1  0  0  0  0
 10 11  1  0  0  0  0
 10 12  1  0  0  0  0
 10 32  1  0  0  0  0
 11 33  1  0  0  0  0
 11 34  1  0  0  0  0
 12 35  1  0  0  0  0
 12 36  1  0  0  0  0
 13 14  1  0  0  0  0
 13 37  1  0  0  0  0
 13 38  1  0  0  0  0
 14 39  1  0  0  0  0
 14 40  1  0  0  0  0
 15 17  1  0  0  0  0
 15 42  1  0  0  0  0
 15 43  1  0  0  0  0
 16 18  1  0  0  0  0
 16 44  1  0  0  0  0
 16 45  1  0  0  0  0
 17 19  1  0  0  0  0
 17 46  1  0  0  0  0
 17 47  1  0  0  0  0
 18 19  2  0  0  0  0
 18 21  1  0  0  0  0
 19 22  1  0  0  0  0
 21 23  2  0  0  0  0
 21 48  1  0  0  0  0
 22 24  2  0  0  0  0
 23 24  1  0  0  0  0
 23 49  1  0  0  0  0
 25 50  1  0  0  0  0
 25 51  1  0  0  0  0
 25 52  1  0  0  0  0
 26 53  1  0  0  0  0
 26 54  1  0  0  0  0
 26 55  1  0  0  0  0
M  END
> <PUBCHEM_COMPOUND_CID>
146025774

> <PUBCHEM_COMPOUND_CANONICALIZED>
1

> <PUBCHEM_CACTVS_COMPLEXITY>
468

> <PUBCHEM_CACTVS_HBOND_ACCEPTOR>
2

> <PUBCHEM_CACTVS_HBOND_DONOR>
1

> <PUBCHEM_CACTVS_ROTATABLE_BOND>
4

> <PUBCHEM_CACTVS_SUBSKEYS>
AAADceB7IAAGAAAAAAAAAAAAAAAAAAAAAAA8YIAAAAAAAACxAAAAHgIQAAAADSrBGCQzAIPAAACIAiBCEACCAAAgBQAIisAIBoiIICKBkxGEIAholgKIiAcQgIAOhAAAIAARAAQYAABAACIACAAAAAAAAA==

> <PUBCHEM_IUPAC_OPENEYE_NAME>
3-[4-[2-(5,6-dichloro-3,4-dihydro-1H-isoquinolin-2-yl)ethyl]cyclohexyl]-1,1-dimethyl-urea

> <PUBCHEM_IUPAC_CAS_NAME>
3-[4-[2-(5,6-dichloro-3,4-dihydro-1H-isoquinolin-2-yl)ethyl]cyclohexyl]-1,1-dimethylurea

> <PUBCHEM_IUPAC_NAME_MARKUP>
3-[4-[2-(5,6-dichloro-3,4-dihydro-1<I>H</I>-isoquinolin-2-yl)ethyl]cyclohexyl]-1,1-dimethylurea

> <PUBCHEM_IUPAC_NAME>
3-[4-[2-(5,6-dichloro-3,4-dihydro-1H-isoquinolin-2-yl)ethyl]cyclohexyl]-1,1-dimethylurea

> <PUBCHEM_IUPAC_SYSTEMATIC_NAME>
3-[4-[2-[5,6-bis(chloranyl)-3,4-dihydro-1H-isoquinolin-2-yl]ethyl]cyclohexyl]-1,1-dimethyl-urea

> <PUBCHEM_IUPAC_TRADITIONAL_NAME>
3-[4-[2-(5,6-dichloro-3,4-dihydro-1H-isoquinolin-2-yl)ethyl]cyclohexyl]-1,1-dimethyl-urea

> <PUBCHEM_IUPAC_INCHI>
InChI=1S/C20H29Cl2N3O/c1-24(2)20(26)23-16-6-3-14(4-7-16)9-11-25-12-10-17-15(13-25)5-8-18(21)19(17)22/h5,8,14,16H,3-4,6-7,9-13H2,1-2H3,(H,23,26)

> <PUBCHEM_IUPAC_INCHIKEY>
UADTYZMGZVMEQD-UHFFFAOYSA-N

> <PUBCHEM_XLOGP3_AA>
4.3

> <PUBCHEM_EXACT_MASS>
397.1687679

> <PUBCHEM_MOLECULAR_FORMULA>
C20H29Cl2N3O

> <PUBCHEM_MOLECULAR_WEIGHT>
398.4

> <PUBCHEM_OPENEYE_CAN_SMILES>
CN(C)C(=O)NC1CCC(CC1)CCN2CCC3=C(C2)C=CC(=C3Cl)Cl

> <PUBCHEM_OPENEYE_ISO_SMILES>
CN(C)C(=O)NC1CCC(CC1)CCN2CCC3=C(C2)C=CC(=C3Cl)Cl

> <PUBCHEM_CACTVS_TPSA>
35.6

> <PUBCHEM_MONOISOTOPIC_WEIGHT>
397.1687679

> <PUBCHEM_TOTAL_CHARGE>
0

> <PUBCHEM_HEAVY_ATOM_COUNT>
26

> <PUBCHEM_ATOM_DEF_STEREO_COUNT>
0

> <PUBCHEM_ATOM_UDEF_STEREO_COUNT>
0

> <PUBCHEM_BOND_DEF_STEREO_COUNT>
0

> <PUBCHEM_BOND_UDEF_STEREO_COUNT>
0

> <PUBCHEM_ISOTOPIC_ATOM_COUNT>
0

> <PUBCHEM_COMPONENT_COUNT>
1

> <PUBCHEM_CACTVS_TAUTO_COUNT>
-1

> <PUBCHEM_COORDINATE_TYPE>
1
5
255

> <PUBCHEM_BONDANNOTATIONS>
18  19  8
18  21  8
19  22  8
21  23  8
22  24  8
23  24  8

$$$$
