11526451
  -OEChem-09292322492D

 67 72  0     1  0  0  0  0  0999 V2000
    7.3222    2.7871    0.0000 S   0  0  0  0  0  0  0  0  0  0  0  0
    5.6047   -5.2613    0.0000 O   0  0  0  0  0  0  0  0  0  0  0  0
    7.1881    6.7303    0.0000 O   0  0  0  0  0  0  0  0  0  0  0  0
    7.3222   -0.6770    0.0000 N   0  0  3  0  0  0  0  0  0  0  0  0
    4.2109   -4.4565    0.0000 N   0  0  0  0  0  0  0  0  0  0  0  0
    4.5227   -7.1439    0.0000 N   0  0  0  0  0  0  0  0  0  0  0  0
    7.4155    4.5667    0.0000 N   0  0  0  0  0  0  0  0  0  0  0  0
    3.7796   -7.8130    0.0000 N   0  0  0  0  0  0  0  0  0  0  0  0
    8.8167    3.7577    0.0000 N   0  0  0  0  0  0  0  0  0  0  0  0
    9.0246    4.7358    0.0000 N   0  0  0  0  0  0  0  0  0  0  0  0
    8.3905    7.8130    0.0000 N   0  0  0  0  0  0  0  0  0  0  0  0
    7.8758   -1.4866    0.0000 C   0  0  0  0  0  0  0  0  0  0  0  0
    6.3443   -0.6024    0.0000 C   0  0  0  0  0  0  0  0  0  0  0  0
    7.5905   -2.4250    0.0000 C   0  0  0  0  0  0  0  0  0  0  0  0
    5.6743   -1.3187    0.0000 C   0  0  0  0  0  0  0  0  0  0  0  0
    6.6799   -2.7894    0.0000 C   0  0  0  0  0  0  0  0  0  0  0  0
    5.8139   -2.2894    0.0000 C   0  0  0  0  0  0  0  0  0  0  0  0
    7.8222    0.1890    0.0000 C   0  0  0  0  0  0  0  0  0  0  0  0
    7.3222    1.0551    0.0000 C   0  0  0  0  0  0  0  0  0  0  0  0
    6.6799   -3.7894    0.0000 C   0  0  0  0  0  0  0  0  0  0  0  0
    4.9479   -2.7894    0.0000 C   0  0  0  0  0  0  0  0  0  0  0  0
    5.8139   -4.2895    0.0000 C   0  0  0  0  0  0  0  0  0  0  0  0
    4.9479   -3.7894    0.0000 C   0  0  0  0  0  0  0  0  0  0  0  0
    7.8222    1.9211    0.0000 C   0  0  0  0  0  0  0  0  0  0  0  0
    4.6160   -5.3643    0.0000 C   0  0  0  0  0  0  0  0  0  0  0  0
    4.1160   -6.2303    0.0000 C   0  0  0  0  0  0  0  0  0  0  0  0
    7.8222    3.6531    0.0000 C   0  0  0  0  0  0  0  0  0  0  0  0
    3.1215   -6.3349    0.0000 C   0  0  0  0  0  0  0  0  0  0  0  0
    2.9136   -7.3130    0.0000 C   0  0  0  0  0  0  0  0  0  0  0  0
    5.5009   -7.3518    0.0000 C   0  0  0  0  0  0  0  0  0  0  0  0
    8.1586    5.2358    0.0000 C   0  0  0  0  0  0  0  0  0  0  0  0
    6.4373    4.7746    0.0000 C   0  0  0  0  0  0  0  0  0  0  0  0
    2.0000   -7.7198    0.0000 C   0  0  0  0  0  0  0  0  0  0  0  0
    8.0541    6.2303    0.0000 C   0  0  0  0  0  0  0  0  0  0  0  0
    8.7972    6.8995    0.0000 C   0  0  0  0  0  0  0  0  0  0  0  0
    9.7754    6.6916    0.0000 C   0  0  0  0  0  0  0  0  0  0  0  0
    7.3960    7.7085    0.0000 C   0  0  0  0  0  0  0  0  0  0  0  0
    8.4137   -1.7949    0.0000 H   0  0  0  0  0  0  0  0  0  0  0  0
    8.2965   -1.0312    0.0000 H   0  0  0  0  0  0  0  0  0  0  0  0
    6.5283   -0.0103    0.0000 H   0  0  0  0  0  0  0  0  0  0  0  0
    5.8083   -0.2907    0.0000 H   0  0  0  0  0  0  0  0  0  0  0  0
    7.6865   -3.0375    0.0000 H   0  0  0  0  0  0  0  0  0  0  0  0
    8.2090   -2.4683    0.0000 H   0  0  0  0  0  0  0  0  0  0  0  0
    5.3275   -0.8047    0.0000 H   0  0  0  0  0  0  0  0  0  0  0  0
    5.0958   -1.5418    0.0000 H   0  0  0  0  0  0  0  0  0  0  0  0
    8.2972   -0.2095    0.0000 H   0  0  0  0  0  0  0  0  0  0  0  0
    8.2972    0.5876    0.0000 H   0  0  0  0  0  0  0  0  0  0  0  0
    6.8473    1.4536    0.0000 H   0  0  0  0  0  0  0  0  0  0  0  0
    6.8473    0.6565    0.0000 H   0  0  0  0  0  0  0  0  0  0  0  0
    7.2169   -4.0994    0.0000 H   0  0  0  0  0  0  0  0  0  0  0  0
    4.4109   -2.4794    0.0000 H   0  0  0  0  0  0  0  0  0  0  0  0
    8.2972    1.5226    0.0000 H   0  0  0  0  0  0  0  0  0  0  0  0
    8.2972    2.3196    0.0000 H   0  0  0  0  0  0  0  0  0  0  0  0
    2.7066   -5.8741    0.0000 H   0  0  0  0  0  0  0  0  0  0  0  0
    5.3720   -7.9582    0.0000 H   0  0  0  0  0  0  0  0  0  0  0  0
    6.1073   -7.4807    0.0000 H   0  0  0  0  0  0  0  0  0  0  0  0
    5.6298   -6.7454    0.0000 H   0  0  0  0  0  0  0  0  0  0  0  0
    6.5662    5.3810    0.0000 H   0  0  0  0  0  0  0  0  0  0  0  0
    5.8309    4.9035    0.0000 H   0  0  0  0  0  0  0  0  0  0  0  0
    6.3084    4.1682    0.0000 H   0  0  0  0  0  0  0  0  0  0  0  0
    1.7478   -7.1534    0.0000 H   0  0  0  0  0  0  0  0  0  0  0  0
    1.4336   -7.9719    0.0000 H   0  0  0  0  0  0  0  0  0  0  0  0
    2.2522   -8.2861    0.0000 H   0  0  0  0  0  0  0  0  0  0  0  0
    9.6465    6.0851    0.0000 H   0  0  0  0  0  0  0  0  0  0  0  0
   10.3818    6.5627    0.0000 H   0  0  0  0  0  0  0  0  0  0  0  0
    9.9043    7.2980    0.0000 H   0  0  0  0  0  0  0  0  0  0  0  0
    6.9811    8.1692    0.0000 H   0  0  0  0  0  0  0  0  0  0  0  0
  1 24  1  0  0  0  0
  1 27  1  0  0  0  0
  2 22  1  0  0  0  0
  2 25  1  0  0  0  0
  3 34  1  0  0  0  0
  3 37  1  0  0  0  0
  4 12  1  0  0  0  0
  4 13  1  0  0  0  0
  4 18  1  0  0  0  0
  5 23  1  0  0  0  0
  5 25  2  0  0  0  0
  6  8  1  0  0  0  0
  6 26  1  0  0  0  0
  6 30  1  0  0  0  0
  7 27  1  0  0  0  0
  7 31  1  0  0  0  0
  7 32  1  0  0  0  0
  8 29  2  0  0  0  0
  9 10  1  0  0  0  0
  9 27  2  0  0  0  0
 10 31  2  0  0  0  0
 11 35  1  0  0  0  0
 11 37  2  0  0  0  0
 12 14  1  0  0  0  0
 12 38  1  0  0  0  0
 12 39  1  0  0  0  0
 13 15  1  0  0  0  0
 13 40  1  0  0  0  0
 13 41  1  0  0  0  0
 14 16  1  0  0  0  0
 14 42  1  0  0  0  0
 14 43  1  0  0  0  0
 15 17  1  0  0  0  0
 15 44  1  0  0  0  0
 15 45  1  0  0  0  0
 16 17  1  0  0  0  0
 16 20  2  0  0  0  0
 17 21  2  0  0  0  0
 18 19  1  0  0  0  0
 18 46  1  0  0  0  0
 18 47  1  0  0  0  0
 19 24  1  0  0  0  0
 19 48  1  0  0  0  0
 19 49  1  0  0  0  0
 20 22  1  0  0  0  0
 20 50  1  0  0  0  0
 21 23  1  0  0  0  0
 21 51  1  0  0  0  0
 22 23  2  0  0  0  0
 24 52  1  0  0  0  0
 24 53  1  0  0  0  0
 25 26  1  0  0  0  0
 26 28  2  0  0  0  0
 28 29  1  0  0  0  0
 28 54  1  0  0  0  0
 29 33  1  0  0  0  0
 30 55  1  0  0  0  0
 30 56  1  0  0  0  0
 30 57  1  0  0  0  0
 31 34  1  0  0  0  0
 32 58  1  0  0  0  0
 32 59  1  0  0  0  0
 32 60  1  0  0  0  0
 33 61  1  0  0  0  0
 33 62  1  0  0  0  0
 33 63  1  0  0  0  0
 34 35  2  0  0  0  0
 35 36  1  0  0  0  0
 36 64  1  0  0  0  0
 36 65  1  0  0  0  0
 36 66  1  0  0  0  0
 37 67  1  0  0  0  0
M  END
> <PUBCHEM_COMPOUND_CID>
11526451

> <PUBCHEM_COMPOUND_CANONICALIZED>
1

> <PUBCHEM_CACTVS_COMPLEXITY>
768

> <PUBCHEM_CACTVS_HBOND_ACCEPTOR>
9

> <PUBCHEM_CACTVS_HBOND_DONOR>
0

> <PUBCHEM_CACTVS_ROTATABLE_BOND>
7

> <PUBCHEM_CACTVS_SUBSKEYS>
AAADceB78ABAAAAAAAAAAAAAAAAAAWLFiwAwAAAABYAAAFgB/gAAHgQIAAAADAzF3wa31rcMFEiqA6dz9ASS3Ct/4rAV2CG/bNiObrLk/fufvSjkzBPY6Ye82bKOqAABQAAQEABQAAKAACAgAAAAAAAAAA==

> <PUBCHEM_IUPAC_OPENEYE_NAME>
2-(2,5-dimethylpyrazol-3-yl)-7-[3-[[4-methyl-5-(4-methyloxazol-5-yl)-1,2,4-triazol-3-yl]sulfanyl]propyl]-5,6,8,9-tetrahydrooxazolo[4,5-h][3]benzazepine

> <PUBCHEM_IUPAC_CAS_NAME>
2-(2,5-dimethyl-3-pyrazolyl)-7-[3-[[4-methyl-5-(4-methyl-5-oxazolyl)-1,2,4-triazol-3-yl]thio]propyl]-5,6,8,9-tetrahydrooxazolo[4,5-h][3]benzazepine

> <PUBCHEM_IUPAC_NAME_MARKUP>
2-(2,5-dimethylpyrazol-3-yl)-7-[3-[[4-methyl-5-(4-methyl-1,3-oxazol-5-yl)-1,2,4-triazol-3-yl]sulfanyl]propyl]-5,6,8,9-tetrahydro-[1,3]oxazolo[4,5-h][3]benzazepine

> <PUBCHEM_IUPAC_NAME>
2-(2,5-dimethylpyrazol-3-yl)-7-[3-[[4-methyl-5-(4-methyl-1,3-oxazol-5-yl)-1,2,4-triazol-3-yl]sulfanyl]propyl]-5,6,8,9-tetrahydro-[1,3]oxazolo[4,5-h][3]benzazepine

> <PUBCHEM_IUPAC_SYSTEMATIC_NAME>
2-(2,5-dimethylpyrazol-3-yl)-7-[3-[[4-methyl-5-(4-methyl-1,3-oxazol-5-yl)-1,2,4-triazol-3-yl]sulfanyl]propyl]-5,6,8,9-tetrahydro-[1,3]oxazolo[4,5-h][3]benzazepine

> <PUBCHEM_IUPAC_TRADITIONAL_NAME>
2-(2,5-dimethylpyrazol-3-yl)-7-[3-[[4-methyl-5-(4-methyloxazol-5-yl)-1,2,4-triazol-3-yl]thio]propyl]-5,6,8,9-tetrahydrooxazolo[4,5-h][3]benzazepine

> <PUBCHEM_IUPAC_INCHI>
InChI=1S/C26H30N8O2S/c1-16-12-21(33(4)31-16)25-28-20-13-18-6-9-34(10-7-19(18)14-22(20)36-25)8-5-11-37-26-30-29-24(32(26)3)23-17(2)27-15-35-23/h12-15H,5-11H2,1-4H3

> <PUBCHEM_IUPAC_INCHIKEY>
PXMXBPLOQSHMBE-UHFFFAOYSA-N

> <PUBCHEM_XLOGP3_AA>
3.4

> <PUBCHEM_EXACT_MASS>
518.22124340

> <PUBCHEM_MOLECULAR_FORMULA>
C26H30N8O2S

> <PUBCHEM_MOLECULAR_WEIGHT>
518.6

> <PUBCHEM_OPENEYE_CAN_SMILES>
CC1=NN(C(=C1)C2=NC3=C(O2)C=C4CCN(CCC4=C3)CCCSC5=NN=C(N5C)C6=C(N=CO6)C)C

> <PUBCHEM_OPENEYE_ISO_SMILES>
CC1=NN(C(=C1)C2=NC3=C(O2)C=C4CCN(CCC4=C3)CCCSC5=NN=C(N5C)C6=C(N=CO6)C)C

> <PUBCHEM_CACTVS_TPSA>
129

> <PUBCHEM_MONOISOTOPIC_WEIGHT>
518.22124340

> <PUBCHEM_TOTAL_CHARGE>
0

> <PUBCHEM_HEAVY_ATOM_COUNT>
37

> <PUBCHEM_ATOM_DEF_STEREO_COUNT>
0

> <PUBCHEM_ATOM_UDEF_STEREO_COUNT>
0

> <PUBCHEM_BOND_DEF_STEREO_COUNT>
0

> <PUBCHEM_BOND_UDEF_STEREO_COUNT>
0

> <PUBCHEM_ISOTOPIC_ATOM_COUNT>
0

> <PUBCHEM_COMPONENT_COUNT>
1

> <PUBCHEM_CACTVS_TAUTO_COUNT>
-1

> <PUBCHEM_COORDINATE_TYPE>
1
5
255

> <PUBCHEM_BONDANNOTATIONS>
10  31  8
11  35  8
11  37  8
16  17  8
16  20  8
17  21  8
2  22  8
2  25  8
20  22  8
21  23  8
22  23  8
26  28  8
28  29  8
3  34  8
3  37  8
34  35  8
5  23  8
5  25  8
6  26  8
6  8  8
7  27  8
7  31  8
8  29  8
9  10  8
9  27  8

$$$$
