142573371
  -OEChem-09292322412D

 79 84  0     0  0  0  0  0  0999 V2000
    6.1602   -1.3431    0.0000 S   0  0  0  0  0  0  0  0  0  0  0  0
    2.8090   -8.6569    0.0000 S   0  0  0  0  0  0  0  0  0  0  0  0
    9.6243    6.6569    0.0000 O   0  0  0  0  0  0  0  0  0  0  0  0
    7.8922    1.6569    0.0000 N   0  0  0  0  0  0  0  0  0  0  0  0
    7.8922    5.6569    0.0000 N   0  0  0  0  0  0  0  0  0  0  0  0
    5.3511   -2.9309    0.0000 N   0  0  0  0  0  0  0  0  0  0  0  0
    6.9692   -2.9309    0.0000 N   0  0  0  0  0  0  0  0  0  0  0  0
    6.6602   -3.8820    0.0000 N   0  0  0  0  0  0  0  0  0  0  0  0
    7.8922    3.6569    0.0000 C   0  0  0  0  0  0  0  0  0  0  0  0
    7.0262    3.1569    0.0000 C   0  0  0  0  0  0  0  0  0  0  0  0
    8.7582    3.1569    0.0000 C   0  0  0  0  0  0  0  0  0  0  0  0
    8.7582    4.1569    0.0000 C   0  0  0  0  0  0  0  0  0  0  0  0
    7.0262    4.1569    0.0000 C   0  0  0  0  0  0  0  0  0  0  0  0
    7.0262    2.1569    0.0000 C   0  0  0  0  0  0  0  0  0  0  0  0
    8.7582    2.1569    0.0000 C   0  0  0  0  0  0  0  0  0  0  0  0
    8.7582    5.1569    0.0000 C   0  0  0  0  0  0  0  0  0  0  0  0
    7.0262    5.1569    0.0000 C   0  0  0  0  0  0  0  0  0  0  0  0
    7.8922    0.6569    0.0000 C   0  0  0  0  0  0  0  0  0  0  0  0
    7.8922    6.6569    0.0000 C   0  0  0  0  0  0  0  0  0  0  0  0
    7.0262    0.1569    0.0000 C   0  0  0  0  0  0  0  0  0  0  0  0
    8.7582    7.1569    0.0000 C   0  0  0  0  0  0  0  0  0  0  0  0
    7.0262    7.1569    0.0000 C   0  0  0  0  0  0  0  0  0  0  0  0
    7.0262   -0.8431    0.0000 C   0  0  0  0  0  0  0  0  0  0  0  0
    8.7582    8.1569    0.0000 C   0  0  0  0  0  0  0  0  0  0  0  0
    7.0262    8.1569    0.0000 C   0  0  0  0  0  0  0  0  0  0  0  0
    7.8922    8.6569    0.0000 C   0  0  0  0  0  0  0  0  0  0  0  0
   10.4903    7.1569    0.0000 C   0  0  0  0  0  0  0  0  0  0  0  0
    6.1602   -2.3431    0.0000 C   0  0  0  0  0  0  0  0  0  0  0  0
    5.6602   -3.8820    0.0000 C   0  0  0  0  0  0  0  0  0  0  0  0
    4.4001   -2.6219    0.0000 C   0  0  0  0  0  0  0  0  0  0  0  0
    5.0724   -4.6910    0.0000 C   0  0  0  0  0  0  0  0  0  0  0  0
    5.4791   -5.6045    0.0000 C   0  0  0  0  0  0  0  0  0  0  0  0
    4.0778   -4.5864    0.0000 C   0  0  0  0  0  0  0  0  0  0  0  0
    4.8913   -6.4136    0.0000 C   0  0  0  0  0  0  0  0  0  0  0  0
    3.4901   -5.3955    0.0000 C   0  0  0  0  0  0  0  0  0  0  0  0
    3.8968   -6.3090    0.0000 C   0  0  0  0  0  0  0  0  0  0  0  0
    3.3090   -7.1180    0.0000 C   0  0  0  0  0  0  0  0  0  0  0  0
    2.3090   -7.1180    0.0000 C   0  0  0  0  0  0  0  0  0  0  0  0
    3.6180   -8.0691    0.0000 C   0  0  0  0  0  0  0  0  0  0  0  0
    2.0000   -8.0691    0.0000 C   0  0  0  0  0  0  0  0  0  0  0  0
    6.8141    3.7395    0.0000 H   0  0  0  0  0  0  0  0  0  0  0  0
    6.4156    3.0492    0.0000 H   0  0  0  0  0  0  0  0  0  0  0  0
    9.3688    3.0492    0.0000 H   0  0  0  0  0  0  0  0  0  0  0  0
    8.9703    3.7395    0.0000 H   0  0  0  0  0  0  0  0  0  0  0  0
    8.9703    3.5743    0.0000 H   0  0  0  0  0  0  0  0  0  0  0  0
    9.3688    4.2645    0.0000 H   0  0  0  0  0  0  0  0  0  0  0  0
    6.4156    4.2645    0.0000 H   0  0  0  0  0  0  0  0  0  0  0  0
    6.8141    3.5743    0.0000 H   0  0  0  0  0  0  0  0  0  0  0  0
    6.4156    2.2645    0.0000 H   0  0  0  0  0  0  0  0  0  0  0  0
    6.8141    1.5743    0.0000 H   0  0  0  0  0  0  0  0  0  0  0  0
    8.9703    1.5743    0.0000 H   0  0  0  0  0  0  0  0  0  0  0  0
    9.3688    2.2645    0.0000 H   0  0  0  0  0  0  0  0  0  0  0  0
    9.3688    5.0492    0.0000 H   0  0  0  0  0  0  0  0  0  0  0  0
    8.9703    5.7395    0.0000 H   0  0  0  0  0  0  0  0  0  0  0  0
    6.8141    5.7395    0.0000 H   0  0  0  0  0  0  0  0  0  0  0  0
    6.4156    5.0492    0.0000 H   0  0  0  0  0  0  0  0  0  0  0  0
    8.1043    0.0743    0.0000 H   0  0  0  0  0  0  0  0  0  0  0  0
    8.5028    0.7645    0.0000 H   0  0  0  0  0  0  0  0  0  0  0  0
    6.8141    0.7395    0.0000 H   0  0  0  0  0  0  0  0  0  0  0  0
    6.4156    0.0492    0.0000 H   0  0  0  0  0  0  0  0  0  0  0  0
    6.4892    6.8469    0.0000 H   0  0  0  0  0  0  0  0  0  0  0  0
    7.2382   -1.4257    0.0000 H   0  0  0  0  0  0  0  0  0  0  0  0
    7.6368   -0.7355    0.0000 H   0  0  0  0  0  0  0  0  0  0  0  0
    9.2952    8.4669    0.0000 H   0  0  0  0  0  0  0  0  0  0  0  0
    6.4892    8.4669    0.0000 H   0  0  0  0  0  0  0  0  0  0  0  0
    7.8922    9.2769    0.0000 H   0  0  0  0  0  0  0  0  0  0  0  0
   10.8003    6.6199    0.0000 H   0  0  0  0  0  0  0  0  0  0  0  0
   11.0272    7.4669    0.0000 H   0  0  0  0  0  0  0  0  0  0  0  0
   10.1803    7.6938    0.0000 H   0  0  0  0  0  0  0  0  0  0  0  0
    4.5917   -2.0322    0.0000 H   0  0  0  0  0  0  0  0  0  0  0  0
    3.8104   -2.4303    0.0000 H   0  0  0  0  0  0  0  0  0  0  0  0
    4.2085   -3.2116    0.0000 H   0  0  0  0  0  0  0  0  0  0  0  0
    6.0957   -5.6693    0.0000 H   0  0  0  0  0  0  0  0  0  0  0  0
    3.8257   -4.0201    0.0000 H   0  0  0  0  0  0  0  0  0  0  0  0
    5.1435   -6.9799    0.0000 H   0  0  0  0  0  0  0  0  0  0  0  0
    2.8735   -5.3307    0.0000 H   0  0  0  0  0  0  0  0  0  0  0  0
    1.9446   -6.6164    0.0000 H   0  0  0  0  0  0  0  0  0  0  0  0
    4.2077   -8.2607    0.0000 H   0  0  0  0  0  0  0  0  0  0  0  0
    1.4103   -8.2607    0.0000 H   0  0  0  0  0  0  0  0  0  0  0  0
  1 23  1  0  0  0  0
  1 28  1  0  0  0  0
  2 39  1  0  0  0  0
  2 40  1  0  0  0  0
  3 21  1  0  0  0  0
  3 27  1  0  0  0  0
  4 14  1  0  0  0  0
  4 15  1  0  0  0  0
  4 18  1  0  0  0  0
  5 16  1  0  0  0  0
  5 17  1  0  0  0  0
  5 19  1  0  0  0  0
  6 28  1  0  0  0  0
  6 29  1  0  0  0  0
  6 30  1  0  0  0  0
  7  8  1  0  0  0  0
  7 28  2  0  0  0  0
  8 29  2  0  0  0  0
  9 10  1  0  0  0  0
  9 11  1  0  0  0  0
  9 12  1  0  0  0  0
  9 13  1  0  0  0  0
 10 14  1  0  0  0  0
 10 41  1  0  0  0  0
 10 42  1  0  0  0  0
 11 15  1  0  0  0  0
 11 43  1  0  0  0  0
 11 44  1  0  0  0  0
 12 16  1  0  0  0  0
 12 45  1  0  0  0  0
 12 46  1  0  0  0  0
 13 17  1  0  0  0  0
 13 47  1  0  0  0  0
 13 48  1  0  0  0  0
 14 49  1  0  0  0  0
 14 50  1  0  0  0  0
 15 51  1  0  0  0  0
 15 52  1  0  0  0  0
 16 53  1  0  0  0  0
 16 54  1  0  0  0  0
 17 55  1  0  0  0  0
 17 56  1  0  0  0  0
 18 20  1  0  0  0  0
 18 57  1  0  0  0  0
 18 58  1  0  0  0  0
 19 21  1  0  0  0  0
 19 22  2  0  0  0  0
 20 23  1  0  0  0  0
 20 59  1  0  0  0  0
 20 60  1  0  0  0  0
 21 24  2  0  0  0  0
 22 25  1  0  0  0  0
 22 61  1  0  0  0  0
 23 62  1  0  0  0  0
 23 63  1  0  0  0  0
 24 26  1  0  0  0  0
 24 64  1  0  0  0  0
 25 26  2  0  0  0  0
 25 65  1  0  0  0  0
 26 66  1  0  0  0  0
 27 67  1  0  0  0  0
 27 68  1  0  0  0  0
 27 69  1  0  0  0  0
 29 31  1  0  0  0  0
 30 70  1  0  0  0  0
 30 71  1  0  0  0  0
 30 72  1  0  0  0  0
 31 32  2  0  0  0  0
 31 33  1  0  0  0  0
 32 34  1  0  0  0  0
 32 73  1  0  0  0  0
 33 35  2  0  0  0  0
 33 74  1  0  0  0  0
 34 36  2  0  0  0  0
 34 75  1  0  0  0  0
 35 36  1  0  0  0  0
 35 76  1  0  0  0  0
 36 37  1  0  0  0  0
 37 38  1  0  0  0  0
 37 39  2  0  0  0  0
 38 40  2  0  0  0  0
 38 77  1  0  0  0  0
 39 78  1  0  0  0  0
 40 79  1  0  0  0  0
M  END
> <PUBCHEM_COMPOUND_CID>
142573371

> <PUBCHEM_COMPOUND_CANONICALIZED>
1

> <PUBCHEM_CACTVS_COMPLEXITY>
764

> <PUBCHEM_CACTVS_HBOND_ACCEPTOR>
7

> <PUBCHEM_CACTVS_HBOND_DONOR>
0

> <PUBCHEM_CACTVS_ROTATABLE_BOND>
9

> <PUBCHEM_CACTVS_SUBSKEYS>
AAADcfB/oABgAAAAAAAAAAAAAAAAAWJAAAA8eIEAAAAAAAAB9AAAHgQIAAAADgzF2waz14cMFAimAiZiZACT2IthKrBdyDgvbJiOLqLkuZuFMChkyBP46AeQwMAPwAAAAAAAEACAAAAAAAAgAAAAAAAAAA==

> <PUBCHEM_IUPAC_OPENEYE_NAME>
3-(2-methoxyphenyl)-9-[3-[[4-methyl-5-[4-(3-thienyl)phenyl]-1,2,4-triazol-3-yl]sulfanyl]propyl]-3,9-diazaspiro[5.5]undecane

> <PUBCHEM_IUPAC_CAS_NAME>
3-(2-methoxyphenyl)-9-[3-[[4-methyl-5-[4-(3-thiophenyl)phenyl]-1,2,4-triazol-3-yl]thio]propyl]-3,9-diazaspiro[5.5]undecane

> <PUBCHEM_IUPAC_NAME_MARKUP>
3-(2-methoxyphenyl)-9-[3-[[4-methyl-5-(4-thiophen-3-ylphenyl)-1,2,4-triazol-3-yl]sulfanyl]propyl]-3,9-diazaspiro[5.5]undecane

> <PUBCHEM_IUPAC_NAME>
3-(2-methoxyphenyl)-9-[3-[[4-methyl-5-(4-thiophen-3-ylphenyl)-1,2,4-triazol-3-yl]sulfanyl]propyl]-3,9-diazaspiro[5.5]undecane

> <PUBCHEM_IUPAC_SYSTEMATIC_NAME>
3-(2-methoxyphenyl)-9-[3-[[4-methyl-5-(4-thiophen-3-ylphenyl)-1,2,4-triazol-3-yl]sulfanyl]propyl]-3,9-diazaspiro[5.5]undecane

> <PUBCHEM_IUPAC_TRADITIONAL_NAME>
3-(2-methoxyphenyl)-9-[3-[[4-methyl-5-[4-(3-thienyl)phenyl]-1,2,4-triazol-3-yl]thio]propyl]-3,9-diazaspiro[5.5]undecane

> <PUBCHEM_IUPAC_INCHI>
InChI=1S/C32H39N5OS2/c1-35-30(26-10-8-25(9-11-26)27-12-23-39-24-27)33-34-31(35)40-22-5-17-36-18-13-32(14-19-36)15-20-37(21-16-32)28-6-3-4-7-29(28)38-2/h3-4,6-12,23-24H,5,13-22H2,1-2H3

> <PUBCHEM_IUPAC_INCHIKEY>
RVQUGXAQXRVIGJ-UHFFFAOYSA-N

> <PUBCHEM_XLOGP3_AA>
6.5

> <PUBCHEM_EXACT_MASS>
573.25960323

> <PUBCHEM_MOLECULAR_FORMULA>
C32H39N5OS2

> <PUBCHEM_MOLECULAR_WEIGHT>
573.8

> <PUBCHEM_OPENEYE_CAN_SMILES>
CN1C(=NN=C1SCCCN2CCC3(CC2)CCN(CC3)C4=CC=CC=C4OC)C5=CC=C(C=C5)C6=CSC=C6

> <PUBCHEM_OPENEYE_ISO_SMILES>
CN1C(=NN=C1SCCCN2CCC3(CC2)CCN(CC3)C4=CC=CC=C4OC)C5=CC=C(C=C5)C6=CSC=C6

> <PUBCHEM_CACTVS_TPSA>
100

> <PUBCHEM_MONOISOTOPIC_WEIGHT>
573.25960323

> <PUBCHEM_TOTAL_CHARGE>
0

> <PUBCHEM_HEAVY_ATOM_COUNT>
40

> <PUBCHEM_ATOM_DEF_STEREO_COUNT>
0

> <PUBCHEM_ATOM_UDEF_STEREO_COUNT>
0

> <PUBCHEM_BOND_DEF_STEREO_COUNT>
0

> <PUBCHEM_BOND_UDEF_STEREO_COUNT>
0

> <PUBCHEM_ISOTOPIC_ATOM_COUNT>
0

> <PUBCHEM_COMPONENT_COUNT>
1

> <PUBCHEM_CACTVS_TAUTO_COUNT>
-1

> <PUBCHEM_COORDINATE_TYPE>
1
5
255

> <PUBCHEM_BONDANNOTATIONS>
19  21  8
19  22  8
2  39  8
2  40  8
21  24  8
22  25  8
24  26  8
25  26  8
31  32  8
31  33  8
32  34  8
33  35  8
34  36  8
35  36  8
37  38  8
37  39  8
38  40  8
6  28  8
6  29  8
7  28  8
7  8  8
8  29  8

$$$$
