155566665
  -OEChem-09292322462D

 60 64  0     0  0  0  0  0  0999 V2000
    6.7210   -3.6788    0.0000 S   0  0  0  0  0  0  0  0  0  0  0  0
    7.6715   -3.3682    0.0000 O   0  0  0  0  0  0  0  0  0  0  0  0
    5.7705   -3.9895    0.0000 O   0  0  0  0  0  0  0  0  0  0  0  0
    2.8660   -0.9236    0.0000 O   0  0  0  0  0  0  0  0  0  0  0  0
    8.0646    2.9337    0.0000 O   0  0  0  0  0  0  0  0  0  0  0  0
    6.4103   -2.7283    0.0000 N   0  0  0  0  0  0  0  0  0  0  0  0
    7.6743    1.1390    0.0000 N   0  0  0  0  0  0  0  0  0  0  0  0
    6.1346    0.6417    0.0000 N   0  0  0  0  0  0  0  0  0  0  0  0
    6.4164    2.4013    0.0000 N   0  0  0  0  0  0  0  0  0  0  0  0
    5.4641   -2.4236    0.0000 C   0  0  0  0  0  0  0  0  0  0  0  0
    5.4641   -1.4236    0.0000 C   0  0  0  0  0  0  0  0  0  0  0  0
    6.4103   -1.1189    0.0000 C   0  0  0  0  0  0  0  0  0  0  0  0
    6.9939   -1.9236    0.0000 C   0  0  0  0  0  0  0  0  0  0  0  0
    6.7210   -0.1683    0.0000 C   0  0  0  0  0  0  0  0  0  0  0  0
    4.5981   -0.9236    0.0000 C   0  0  0  0  0  0  0  0  0  0  0  0
    4.5981   -2.9236    0.0000 C   0  0  0  0  0  0  0  0  0  0  0  0
    7.6726    0.1390    0.0000 C   0  0  0  0  0  0  0  0  0  0  0  0
    7.0316   -4.6294    0.0000 C   0  0  0  0  0  0  0  0  0  0  0  0
    3.7320   -1.4236    0.0000 C   0  0  0  0  0  0  0  0  0  0  0  0
    3.7320   -2.4236    0.0000 C   0  0  0  0  0  0  0  0  0  0  0  0
    6.7238    1.4497    0.0000 C   0  0  0  0  0  0  0  0  0  0  0  0
    8.4806   -0.4502    0.0000 C   0  0  0  0  0  0  0  0  0  0  0  0
    8.0102   -4.8356    0.0000 C   0  0  0  0  0  0  0  0  0  0  0  0
    6.3638   -5.3737    0.0000 C   0  0  0  0  0  0  0  0  0  0  0  0
    8.3208   -5.7861    0.0000 C   0  0  0  0  0  0  0  0  0  0  0  0
    6.6745   -6.3242    0.0000 C   0  0  0  0  0  0  0  0  0  0  0  0
    7.0868    3.1433    0.0000 C   0  0  0  0  0  0  0  0  0  0  0  0
    7.6530   -6.5304    0.0000 C   0  0  0  0  0  0  0  0  0  0  0  0
    6.7795    4.0948    0.0000 C   0  0  0  0  0  0  0  0  0  0  0  0
    2.0000   -1.4236    0.0000 C   0  0  0  0  0  0  0  0  0  0  0  0
    7.4499    4.8368    0.0000 C   0  0  0  0  0  0  0  0  0  0  0  0
    7.1425    5.7884    0.0000 C   0  0  0  0  0  0  0  0  0  0  0  0
    8.4277    4.6272    0.0000 C   0  0  0  0  0  0  0  0  0  0  0  0
    7.8129    6.5304    0.0000 C   0  0  0  0  0  0  0  0  0  0  0  0
    9.0981    5.3692    0.0000 C   0  0  0  0  0  0  0  0  0  0  0  0
    8.7907    6.3208    0.0000 C   0  0  0  0  0  0  0  0  0  0  0  0
    7.6139   -1.9236    0.0000 H   0  0  0  0  0  0  0  0  0  0  0  0
    4.5981   -0.3036    0.0000 H   0  0  0  0  0  0  0  0  0  0  0  0
    4.5981   -3.5436    0.0000 H   0  0  0  0  0  0  0  0  0  0  0  0
    3.1951   -2.7336    0.0000 H   0  0  0  0  0  0  0  0  0  0  0  0
    8.1765    1.5026    0.0000 H   0  0  0  0  0  0  0  0  0  0  0  0
    8.1153   -0.9511    0.0000 H   0  0  0  0  0  0  0  0  0  0  0  0
    8.9815   -0.8155    0.0000 H   0  0  0  0  0  0  0  0  0  0  0  0
    8.8459    0.0508    0.0000 H   0  0  0  0  0  0  0  0  0  0  0  0
    8.4242   -4.3741    0.0000 H   0  0  0  0  0  0  0  0  0  0  0  0
    5.7571   -5.2458    0.0000 H   0  0  0  0  0  0  0  0  0  0  0  0
    5.8102    2.5312    0.0000 H   0  0  0  0  0  0  0  0  0  0  0  0
    8.9275   -5.9140    0.0000 H   0  0  0  0  0  0  0  0  0  0  0  0
    6.2604   -6.7857    0.0000 H   0  0  0  0  0  0  0  0  0  0  0  0
    7.8456   -7.1197    0.0000 H   0  0  0  0  0  0  0  0  0  0  0  0
    6.3986    4.5841    0.0000 H   0  0  0  0  0  0  0  0  0  0  0  0
    6.2315    3.8047    0.0000 H   0  0  0  0  0  0  0  0  0  0  0  0
    1.6900   -0.8867    0.0000 H   0  0  0  0  0  0  0  0  0  0  0  0
    1.4631   -1.7336    0.0000 H   0  0  0  0  0  0  0  0  0  0  0  0
    2.3100   -1.9605    0.0000 H   0  0  0  0  0  0  0  0  0  0  0  0
    6.5363    5.9184    0.0000 H   0  0  0  0  0  0  0  0  0  0  0  0
    8.6182    4.0372    0.0000 H   0  0  0  0  0  0  0  0  0  0  0  0
    7.6224    7.1204    0.0000 H   0  0  0  0  0  0  0  0  0  0  0  0
    9.7043    5.2393    0.0000 H   0  0  0  0  0  0  0  0  0  0  0  0
    9.2064    6.7808    0.0000 H   0  0  0  0  0  0  0  0  0  0  0  0
  1  2  2  0  0  0  0
  1  3  2  0  0  0  0
  1  6  1  0  0  0  0
  1 18  1  0  0  0  0
  4 19  1  0  0  0  0
  4 30  1  0  0  0  0
  5 27  2  0  0  0  0
  6 10  1  0  0  0  0
  6 13  1  0  0  0  0
  7 17  1  0  0  0  0
  7 21  1  0  0  0  0
  7 41  1  0  0  0  0
  8 14  1  0  0  0  0
  8 21  2  0  0  0  0
  9 21  1  0  0  0  0
  9 27  1  0  0  0  0
  9 47  1  0  0  0  0
 10 11  2  0  0  0  0
 10 16  1  0  0  0  0
 11 12  1  0  0  0  0
 11 15  1  0  0  0  0
 12 13  2  0  0  0  0
 12 14  1  0  0  0  0
 13 37  1  0  0  0  0
 14 17  2  0  0  0  0
 15 19  2  0  0  0  0
 15 38  1  0  0  0  0
 16 20  2  0  0  0  0
 16 39  1  0  0  0  0
 17 22  1  0  0  0  0
 18 23  2  0  0  0  0
 18 24  1  0  0  0  0
 19 20  1  0  0  0  0
 20 40  1  0  0  0  0
 22 42  1  0  0  0  0
 22 43  1  0  0  0  0
 22 44  1  0  0  0  0
 23 25  1  0  0  0  0
 23 45  1  0  0  0  0
 24 26  2  0  0  0  0
 24 46  1  0  0  0  0
 25 28  2  0  0  0  0
 25 48  1  0  0  0  0
 26 28  1  0  0  0  0
 26 49  1  0  0  0  0
 27 29  1  0  0  0  0
 28 50  1  0  0  0  0
 29 31  1  0  0  0  0
 29 51  1  0  0  0  0
 29 52  1  0  0  0  0
 30 53  1  0  0  0  0
 30 54  1  0  0  0  0
 30 55  1  0  0  0  0
 31 32  2  0  0  0  0
 31 33  1  0  0  0  0
 32 34  1  0  0  0  0
 32 56  1  0  0  0  0
 33 35  2  0  0  0  0
 33 57  1  0  0  0  0
 34 36  2  0  0  0  0
 34 58  1  0  0  0  0
 35 36  1  0  0  0  0
 35 59  1  0  0  0  0
 36 60  1  0  0  0  0
M  END
> <PUBCHEM_COMPOUND_CID>
155566665

> <PUBCHEM_COMPOUND_CANONICALIZED>
1

> <PUBCHEM_CACTVS_COMPLEXITY>
852

> <PUBCHEM_CACTVS_HBOND_ACCEPTOR>
5

> <PUBCHEM_CACTVS_HBOND_DONOR>
2

> <PUBCHEM_CACTVS_ROTATABLE_BOND>
7

> <PUBCHEM_CACTVS_SUBSKEYS>
AAADceB7uABAAAAAAAAAAAAAAAAAAWLAAAAwYMAAAAAAAFgB/AAAHgQQQAAADAzB3gY/1/bJlAKoAzV3dHDCiD2xMqAJ2Tk+fJiMbvLE/ZuUMChs0RPI6Ce42POOgEABAAACAAAAgAIAAAQAAAAAAAAAAA==

> <PUBCHEM_IUPAC_OPENEYE_NAME>
N-[4-[1-(benzenesulfonyl)-5-methoxy-indol-3-yl]-5-methyl-1H-imidazol-2-yl]-2-phenyl-acetamide

> <PUBCHEM_IUPAC_CAS_NAME>
N-[4-[1-(benzenesulfonyl)-5-methoxy-3-indolyl]-5-methyl-1H-imidazol-2-yl]-2-phenylacetamide

> <PUBCHEM_IUPAC_NAME_MARKUP>
<I>N</I>-[4-[1-(benzenesulfonyl)-5-methoxyindol-3-yl]-5-methyl-1<I>H</I>-imidazol-2-yl]-2-phenylacetamide

> <PUBCHEM_IUPAC_NAME>
N-[4-[1-(benzenesulfonyl)-5-methoxyindol-3-yl]-5-methyl-1H-imidazol-2-yl]-2-phenylacetamide

> <PUBCHEM_IUPAC_SYSTEMATIC_NAME>
N-[4-[5-methoxy-1-(phenylsulfonyl)indol-3-yl]-5-methyl-1H-imidazol-2-yl]-2-phenyl-ethanamide

> <PUBCHEM_IUPAC_TRADITIONAL_NAME>
N-[4-(1-besyl-5-methoxy-indol-3-yl)-5-methyl-1H-imidazol-2-yl]-2-phenyl-acetamide

> <PUBCHEM_IUPAC_INCHI>
InChI=1S/C27H24N4O4S/c1-18-26(30-27(28-18)29-25(32)15-19-9-5-3-6-10-19)23-17-31(24-14-13-20(35-2)16-22(23)24)36(33,34)21-11-7-4-8-12-21/h3-14,16-17H,15H2,1-2H3,(H2,28,29,30,32)

> <PUBCHEM_IUPAC_INCHIKEY>
RVATUCUFIHFGSE-UHFFFAOYSA-N

> <PUBCHEM_XLOGP3_AA>
4.5

> <PUBCHEM_EXACT_MASS>
500.15182643

> <PUBCHEM_MOLECULAR_FORMULA>
C27H24N4O4S

> <PUBCHEM_MOLECULAR_WEIGHT>
500.6

> <PUBCHEM_OPENEYE_CAN_SMILES>
CC1=C(N=C(N1)NC(=O)CC2=CC=CC=C2)C3=CN(C4=C3C=C(C=C4)OC)S(=O)(=O)C5=CC=CC=C5

> <PUBCHEM_OPENEYE_ISO_SMILES>
CC1=C(N=C(N1)NC(=O)CC2=CC=CC=C2)C3=CN(C4=C3C=C(C=C4)OC)S(=O)(=O)C5=CC=CC=C5

> <PUBCHEM_CACTVS_TPSA>
115

> <PUBCHEM_MONOISOTOPIC_WEIGHT>
500.15182643

> <PUBCHEM_TOTAL_CHARGE>
0

> <PUBCHEM_HEAVY_ATOM_COUNT>
36

> <PUBCHEM_ATOM_DEF_STEREO_COUNT>
0

> <PUBCHEM_ATOM_UDEF_STEREO_COUNT>
0

> <PUBCHEM_BOND_DEF_STEREO_COUNT>
0

> <PUBCHEM_BOND_UDEF_STEREO_COUNT>
0

> <PUBCHEM_ISOTOPIC_ATOM_COUNT>
0

> <PUBCHEM_COMPONENT_COUNT>
1

> <PUBCHEM_CACTVS_TAUTO_COUNT>
-1

> <PUBCHEM_COORDINATE_TYPE>
1
5
255

> <PUBCHEM_BONDANNOTATIONS>
10  11  8
10  16  8
11  12  8
11  15  8
12  13  8
14  17  8
15  19  8
16  20  8
18  23  8
18  24  8
19  20  8
23  25  8
24  26  8
25  28  8
26  28  8
31  32  8
31  33  8
32  34  8
33  35  8
34  36  8
35  36  8
6  10  8
6  13  8
7  17  8
7  21  8
8  14  8
8  21  8

$$$$
