44591099
  -OEChem-09292322232D

 79 83  0     1  0  0  0  0  0999 V2000
    5.4641   -1.8453    0.0000 O   0  0  0  0  0  0  0  0  0  0  0  0
    3.7321   -4.8453    0.0000 N   0  0  0  0  0  0  0  0  0  0  0  0
    8.9283    1.1547    0.0000 N   0  0  3  0  0  0  0  0  0  0  0  0
    2.8660   -4.3453    0.0000 C   0  0  0  0  0  0  0  0  0  0  0  0
    3.7320   -5.8453    0.0000 C   0  0  0  0  0  0  0  0  0  0  0  0
    2.0000   -4.8453    0.0000 C   0  0  0  0  0  0  0  0  0  0  0  0
    2.8660   -6.3453    0.0000 C   0  0  0  0  0  0  0  0  0  0  0  0
    2.0000   -5.8453    0.0000 C   0  0  0  0  0  0  0  0  0  0  0  0
    4.5981   -4.3453    0.0000 C   0  0  0  0  0  0  0  0  0  0  0  0
    4.5981   -3.3453    0.0000 C   0  0  0  0  0  0  0  0  0  0  0  0
    5.4641   -2.8453    0.0000 C   0  0  0  0  0  0  0  0  0  0  0  0
   10.1603    6.3453    0.0000 C   0  0  0  0  0  0  0  0  0  0  0  0
   11.1603    6.3453    0.0000 C   0  0  0  0  0  0  0  0  0  0  0  0
   10.6603    4.1546    0.0000 C   0  0  0  0  0  0  0  0  0  0  0  0
    9.5368    5.5635    0.0000 C   0  0  0  0  0  0  0  0  0  0  0  0
   11.7838    5.5634    0.0000 C   0  0  0  0  0  0  0  0  0  0  0  0
    9.7594    4.5885    0.0000 C   0  0  0  0  0  0  0  0  0  0  0  0
   11.5613    4.5885    0.0000 C   0  0  0  0  0  0  0  0  0  0  0  0
    9.7943    2.6546    0.0000 C   0  0  0  0  0  0  0  0  0  0  0  0
   10.6603    3.1546    0.0000 C   0  0  0  0  0  0  0  0  0  0  0  0
    9.7943    1.6546    0.0000 C   0  0  0  0  0  0  0  0  0  0  0  0
    8.9282    0.1547    0.0000 C   0  0  0  0  0  0  0  0  0  0  0  0
    8.5464    5.8858    0.0000 C   0  0  0  0  0  0  0  0  0  0  0  0
   12.7743    5.8858    0.0000 C   0  0  0  0  0  0  0  0  0  0  0  0
    9.0068    3.8684    0.0000 C   0  0  0  0  0  0  0  0  0  0  0  0
   12.3139    3.8683    0.0000 C   0  0  0  0  0  0  0  0  0  0  0  0
    6.3302   -1.3453    0.0000 C   0  0  0  0  0  0  0  0  0  0  0  0
    8.0622   -0.3453    0.0000 C   0  0  0  0  0  0  0  0  0  0  0  0
    7.7773    5.1832    0.0000 C   0  0  0  0  0  0  0  0  0  0  0  0
   13.5433    5.1832    0.0000 C   0  0  0  0  0  0  0  0  0  0  0  0
    8.0091    4.1677    0.0000 C   0  0  0  0  0  0  0  0  0  0  0  0
   13.3115    4.1677    0.0000 C   0  0  0  0  0  0  0  0  0  0  0  0
    8.0622    1.6547    0.0000 C   0  0  0  0  0  0  0  0  0  0  0  0
    7.1962   -1.8453    0.0000 C   0  0  0  0  0  0  0  0  0  0  0  0
    6.3302   -0.3453    0.0000 C   0  0  0  0  0  0  0  0  0  0  0  0
    8.0622   -1.3453    0.0000 C   0  0  0  0  0  0  0  0  0  0  0  0
    7.1962    0.1547    0.0000 C   0  0  0  0  0  0  0  0  0  0  0  0
    3.2646   -3.8704    0.0000 H   0  0  0  0  0  0  0  0  0  0  0  0
    2.4675   -3.8703    0.0000 H   0  0  0  0  0  0  0  0  0  0  0  0
    3.9441   -6.4279    0.0000 H   0  0  0  0  0  0  0  0  0  0  0  0
    4.3426   -5.7376    0.0000 H   0  0  0  0  0  0  0  0  0  0  0  0
    1.7880   -4.2627    0.0000 H   0  0  0  0  0  0  0  0  0  0  0  0
    1.3894   -4.9530    0.0000 H   0  0  0  0  0  0  0  0  0  0  0  0
    2.4675   -6.8202    0.0000 H   0  0  0  0  0  0  0  0  0  0  0  0
    3.2646   -6.8202    0.0000 H   0  0  0  0  0  0  0  0  0  0  0  0
    1.3894   -5.7376    0.0000 H   0  0  0  0  0  0  0  0  0  0  0  0
    1.7879   -6.4279    0.0000 H   0  0  0  0  0  0  0  0  0  0  0  0
    4.8101   -4.9279    0.0000 H   0  0  0  0  0  0  0  0  0  0  0  0
    5.2087   -4.2376    0.0000 H   0  0  0  0  0  0  0  0  0  0  0  0
    4.3860   -2.7627    0.0000 H   0  0  0  0  0  0  0  0  0  0  0  0
    3.9875   -3.4530    0.0000 H   0  0  0  0  0  0  0  0  0  0  0  0
    5.6762   -3.4279    0.0000 H   0  0  0  0  0  0  0  0  0  0  0  0
    6.0747   -2.7377    0.0000 H   0  0  0  0  0  0  0  0  0  0  0  0
   10.2983    6.9498    0.0000 H   0  0  0  0  0  0  0  0  0  0  0  0
    9.6017    6.6143    0.0000 H   0  0  0  0  0  0  0  0  0  0  0  0
   11.7189    6.6143    0.0000 H   0  0  0  0  0  0  0  0  0  0  0  0
   11.0224    6.9497    0.0000 H   0  0  0  0  0  0  0  0  0  0  0  0
    9.5822    3.2373    0.0000 H   0  0  0  0  0  0  0  0  0  0  0  0
    9.1837    2.5470    0.0000 H   0  0  0  0  0  0  0  0  0  0  0  0
   11.1973    2.8446    0.0000 H   0  0  0  0  0  0  0  0  0  0  0  0
   10.0063    1.0720    0.0000 H   0  0  0  0  0  0  0  0  0  0  0  0
   10.4049    1.7623    0.0000 H   0  0  0  0  0  0  0  0  0  0  0  0
    9.1403   -0.4280    0.0000 H   0  0  0  0  0  0  0  0  0  0  0  0
    9.5388    0.2623    0.0000 H   0  0  0  0  0  0  0  0  0  0  0  0
    8.4154    6.4918    0.0000 H   0  0  0  0  0  0  0  0  0  0  0  0
   12.9053    6.4918    0.0000 H   0  0  0  0  0  0  0  0  0  0  0  0
    9.1517    3.2656    0.0000 H   0  0  0  0  0  0  0  0  0  0  0  0
   12.1689    3.2655    0.0000 H   0  0  0  0  0  0  0  0  0  0  0  0
    7.1856    5.3683    0.0000 H   0  0  0  0  0  0  0  0  0  0  0  0
   14.1351    5.3682    0.0000 H   0  0  0  0  0  0  0  0  0  0  0  0
    7.5562    3.7443    0.0000 H   0  0  0  0  0  0  0  0  0  0  0  0
   13.7644    3.7442    0.0000 H   0  0  0  0  0  0  0  0  0  0  0  0
    8.3722    2.1916    0.0000 H   0  0  0  0  0  0  0  0  0  0  0  0
    7.5253    1.9647    0.0000 H   0  0  0  0  0  0  0  0  0  0  0  0
    7.7522    1.1177    0.0000 H   0  0  0  0  0  0  0  0  0  0  0  0
    7.1962   -2.4653    0.0000 H   0  0  0  0  0  0  0  0  0  0  0  0
    5.7932   -0.0353    0.0000 H   0  0  0  0  0  0  0  0  0  0  0  0
    8.5991   -1.6553    0.0000 H   0  0  0  0  0  0  0  0  0  0  0  0
    7.1962    0.7747    0.0000 H   0  0  0  0  0  0  0  0  0  0  0  0
  1 11  1  0  0  0  0
  1 27  1  0  0  0  0
  2  4  1  0  0  0  0
  2  5  1  0  0  0  0
  2  9  1  0  0  0  0
  3 21  1  0  0  0  0
  3 22  1  0  0  0  0
  3 33  1  0  0  0  0
  4  6  1  0  0  0  0
  4 38  1  0  0  0  0
  4 39  1  0  0  0  0
  5  7  1  0  0  0  0
  5 40  1  0  0  0  0
  5 41  1  0  0  0  0
  6  8  1  0  0  0  0
  6 42  1  0  0  0  0
  6 43  1  0  0  0  0
  7  8  1  0  0  0  0
  7 44  1  0  0  0  0
  7 45  1  0  0  0  0
  8 46  1  0  0  0  0
  8 47  1  0  0  0  0
  9 10  1  0  0  0  0
  9 48  1  0  0  0  0
  9 49  1  0  0  0  0
 10 11  1  0  0  0  0
 10 50  1  0  0  0  0
 10 51  1  0  0  0  0
 11 52  1  0  0  0  0
 11 53  1  0  0  0  0
 12 13  1  0  0  0  0
 12 15  1  0  0  0  0
 12 54  1  0  0  0  0
 12 55  1  0  0  0  0
 13 16  1  0  0  0  0
 13 56  1  0  0  0  0
 13 57  1  0  0  0  0
 14 17  1  0  0  0  0
 14 18  1  0  0  0  0
 14 20  2  0  0  0  0
 15 17  1  0  0  0  0
 15 23  2  0  0  0  0
 16 18  1  0  0  0  0
 16 24  2  0  0  0  0
 17 25  2  0  0  0  0
 18 26  2  0  0  0  0
 19 20  1  0  0  0  0
 19 21  1  0  0  0  0
 19 58  1  0  0  0  0
 19 59  1  0  0  0  0
 20 60  1  0  0  0  0
 21 61  1  0  0  0  0
 21 62  1  0  0  0  0
 22 28  1  0  0  0  0
 22 63  1  0  0  0  0
 22 64  1  0  0  0  0
 23 29  1  0  0  0  0
 23 65  1  0  0  0  0
 24 30  1  0  0  0  0
 24 66  1  0  0  0  0
 25 31  1  0  0  0  0
 25 67  1  0  0  0  0
 26 32  1  0  0  0  0
 26 68  1  0  0  0  0
 27 34  2  0  0  0  0
 27 35  1  0  0  0  0
 28 36  2  0  0  0  0
 28 37  1  0  0  0  0
 29 31  2  0  0  0  0
 29 69  1  0  0  0  0
 30 32  2  0  0  0  0
 30 70  1  0  0  0  0
 31 71  1  0  0  0  0
 32 72  1  0  0  0  0
 33 73  1  0  0  0  0
 33 74  1  0  0  0  0
 33 75  1  0  0  0  0
 34 36  1  0  0  0  0
 34 76  1  0  0  0  0
 35 37  2  0  0  0  0
 35 77  1  0  0  0  0
 36 78  1  0  0  0  0
 37 79  1  0  0  0  0
M  END
> <PUBCHEM_COMPOUND_CID>
44591099

> <PUBCHEM_COMPOUND_CANONICALIZED>
1

> <PUBCHEM_CACTVS_COMPLEXITY>
651

> <PUBCHEM_CACTVS_HBOND_ACCEPTOR>
3

> <PUBCHEM_CACTVS_HBOND_DONOR>
0

> <PUBCHEM_CACTVS_ROTATABLE_BOND>
10

> <PUBCHEM_CACTVS_SUBSKEYS>
AAADcfB/IAAAAAAAAAAAAAAAAAAAAAAAAAA8YMEABgAAAAABUAAAHgAAAAAADAThmAYyBoMABACAAiBCAACCCAAgIAAIiAAODIgMJiKEsRuGOCjmwBGIqAeQ0MIOoAAAAAAQAABAAAAAACAAAAAAAAAAAA==

> <PUBCHEM_IUPAC_OPENEYE_NAME>
N-methyl-N-[[4-[3-(1-piperidyl)propoxy]phenyl]methyl]-3-(2-tricyclo[9.4.0.03,8]pentadeca-1(15),3,5,7,11,13-hexaenylidene)propan-1-amine

> <PUBCHEM_IUPAC_CAS_NAME>
N-methyl-N-[[4-[3-(1-piperidinyl)propoxy]phenyl]methyl]-3-(2-tricyclo[9.4.0.03,8]pentadeca-1(15),3,5,7,11,13-hexaenylidene)-1-propanamine

> <PUBCHEM_IUPAC_NAME_MARKUP>
<I>N</I>-methyl-<I>N</I>-[[4-(3-piperidin-1-ylpropoxy)phenyl]methyl]-3-(2-tricyclo[9.4.0.0<SUP>3,8</SUP>]pentadeca-1(15),3,5,7,11,13-hexaenylidene)propan-1-amine

> <PUBCHEM_IUPAC_NAME>
N-methyl-N-[[4-(3-piperidin-1-ylpropoxy)phenyl]methyl]-3-(2-tricyclo[9.4.0.03,8]pentadeca-1(15),3,5,7,11,13-hexaenylidene)propan-1-amine

> <PUBCHEM_IUPAC_SYSTEMATIC_NAME>
N-methyl-N-[[4-(3-piperidin-1-ylpropoxy)phenyl]methyl]-3-(2-tricyclo[9.4.0.03,8]pentadeca-1(15),3,5,7,11,13-hexaenylidene)propan-1-amine

> <PUBCHEM_IUPAC_TRADITIONAL_NAME>
methyl-[4-(3-piperidinopropoxy)benzyl]-[3-(2-tricyclo[9.4.0.03,8]pentadeca-1(15),3,5,7,11,13-hexaenylidene)propyl]amine

> <PUBCHEM_IUPAC_INCHI>
InChI=1S/C34H42N2O/c1-35(27-28-16-20-31(21-17-28)37-26-10-25-36-23-7-2-8-24-36)22-9-15-34-32-13-5-3-11-29(32)18-19-30-12-4-6-14-33(30)34/h3-6,11-17,20-21H,2,7-10,18-19,22-27H2,1H3

> <PUBCHEM_IUPAC_INCHIKEY>
TZZKWSLLNPOOCC-UHFFFAOYSA-N

> <PUBCHEM_XLOGP3_AA>
7.1

> <PUBCHEM_EXACT_MASS>
494.329713967

> <PUBCHEM_MOLECULAR_FORMULA>
C34H42N2O

> <PUBCHEM_MOLECULAR_WEIGHT>
494.7

> <PUBCHEM_OPENEYE_CAN_SMILES>
CN(CCC=C1C2=CC=CC=C2CCC3=CC=CC=C31)CC4=CC=C(C=C4)OCCCN5CCCCC5

> <PUBCHEM_OPENEYE_ISO_SMILES>
CN(CCC=C1C2=CC=CC=C2CCC3=CC=CC=C31)CC4=CC=C(C=C4)OCCCN5CCCCC5

> <PUBCHEM_CACTVS_TPSA>
15.7

> <PUBCHEM_MONOISOTOPIC_WEIGHT>
494.329713967

> <PUBCHEM_TOTAL_CHARGE>
0

> <PUBCHEM_HEAVY_ATOM_COUNT>
37

> <PUBCHEM_ATOM_DEF_STEREO_COUNT>
0

> <PUBCHEM_ATOM_UDEF_STEREO_COUNT>
0

> <PUBCHEM_BOND_DEF_STEREO_COUNT>
0

> <PUBCHEM_BOND_UDEF_STEREO_COUNT>
0

> <PUBCHEM_ISOTOPIC_ATOM_COUNT>
0

> <PUBCHEM_COMPONENT_COUNT>
1

> <PUBCHEM_CACTVS_TAUTO_COUNT>
-1

> <PUBCHEM_COORDINATE_TYPE>
1
5
255

> <PUBCHEM_BONDANNOTATIONS>
15  17  8
15  23  8
16  18  8
16  24  8
17  25  8
18  26  8
23  29  8
24  30  8
25  31  8
26  32  8
27  34  8
27  35  8
28  36  8
28  37  8
29  31  8
30  32  8
34  36  8
35  37  8

$$$$
