15665517
  -OEChem-09292322142D

 61 66  0     1  0  0  0  0  0999 V2000
   11.1130    0.2029    0.0000 O   0  0  0  0  0  0  0  0  0  0  0  0
    6.4998   -1.4543    0.0000 O   0  0  0  0  0  0  0  0  0  0  0  0
    8.2919   -2.4890    0.0000 O   0  0  0  0  0  0  0  0  0  0  0  0
    2.6200   -2.6298    0.0000 O   0  0  0  0  0  0  0  0  0  0  0  0
   10.0869    2.5784    0.0000 N   0  0  3  0  0  0  0  0  0  0  0  0
    8.2581    0.5768    0.0000 N   0  0  0  0  0  0  0  0  0  0  0  0
   11.5676    1.9260    0.0000 N   0  0  0  0  0  0  0  0  0  0  0  0
    4.7036   -4.3005    0.0000 N   0  0  0  0  0  0  0  0  0  0  0  0
    9.9862    1.5835    0.0000 C   0  0  0  0  0  0  0  0  0  0  0  0
    9.9901    0.5835    0.0000 C   0  0  0  0  0  0  0  0  0  0  0  0
    9.1183    2.0801    0.0000 C   0  0  0  0  0  0  0  0  0  0  0  0
    9.1260    0.0801    0.0000 C   0  0  0  0  0  0  0  0  0  0  0  0
    8.2542    1.5768    0.0000 C   0  0  0  0  0  0  0  0  0  0  0  0
   10.9014    1.1802    0.0000 C   0  0  0  0  0  0  0  0  0  0  0  0
   11.0643    2.7901    0.0000 C   0  0  0  0  0  0  0  0  0  0  0  0
    7.3940    0.0735    0.0000 C   0  0  0  0  0  0  0  0  0  0  0  0
    9.3412    3.2446    0.0000 C   0  0  0  0  0  0  0  0  0  0  0  0
    7.3978   -0.9265    0.0000 C   0  0  3  0  0  0  0  0  0  0  0  0
    8.2999   -1.4474    0.0000 C   0  0  0  0  0  0  0  0  0  0  0  0
    9.5454    4.2236    0.0000 C   0  0  0  0  0  0  0  0  0  0  0  0
    8.3914    2.9320    0.0000 C   0  0  0  0  0  0  0  0  0  0  0  0
    6.5158   -2.4958    0.0000 C   0  0  0  0  0  0  0  0  0  0  0  0
    7.3819   -2.9958    0.0000 C   0  0  0  0  0  0  0  0  0  0  0  0
    8.7996    4.8898    0.0000 C   0  0  0  0  0  0  0  0  0  0  0  0
    7.6456    3.5982    0.0000 C   0  0  0  0  0  0  0  0  0  0  0  0
    5.6498   -2.9958    0.0000 C   0  0  0  0  0  0  0  0  0  0  0  0
    7.8498    4.5772    0.0000 C   0  0  0  0  0  0  0  0  0  0  0  0
    5.6498   -3.9958    0.0000 C   0  0  0  0  0  0  0  0  0  0  0  0
    7.3819   -3.9958    0.0000 C   0  0  0  0  0  0  0  0  0  0  0  0
    4.7036   -2.6911    0.0000 C   0  0  0  0  0  0  0  0  0  0  0  0
    6.5158   -4.4958    0.0000 C   0  0  0  0  0  0  0  0  0  0  0  0
    4.1200   -3.4958    0.0000 C   0  0  0  0  0  0  0  0  0  0  0  0
    3.1200   -3.4958    0.0000 C   0  0  0  0  0  0  0  0  0  0  0  0
   10.2044    0.0017    0.0000 H   0  0  0  0  0  0  0  0  0  0  0  0
   10.6003    0.6935    0.0000 H   0  0  0  0  0  0  0  0  0  0  0  0
    9.5150    2.5566    0.0000 H   0  0  0  0  0  0  0  0  0  0  0  0
    8.7180    2.5535    0.0000 H   0  0  0  0  0  0  0  0  0  0  0  0
    8.7293   -0.3963    0.0000 H   0  0  0  0  0  0  0  0  0  0  0  0
    9.5264   -0.3933    0.0000 H   0  0  0  0  0  0  0  0  0  0  0  0
    8.0399    2.1586    0.0000 H   0  0  0  0  0  0  0  0  0  0  0  0
    7.6440    1.4668    0.0000 H   0  0  0  0  0  0  0  0  0  0  0  0
   11.6297    3.0444    0.0000 H   0  0  0  0  0  0  0  0  0  0  0  0
   10.8704    3.3790    0.0000 H   0  0  0  0  0  0  0  0  0  0  0  0
    7.1797    0.6552    0.0000 H   0  0  0  0  0  0  0  0  0  0  0  0
    6.7838   -0.0366    0.0000 H   0  0  0  0  0  0  0  0  0  0  0  0
   12.1845    1.8635    0.0000 H   0  0  0  0  0  0  0  0  0  0  0  0
    6.8591   -0.6196    0.0000 H   0  0  0  0  0  0  0  0  0  0  0  0
    8.9099   -1.5581    0.0000 H   0  0  0  0  0  0  0  0  0  0  0  0
    8.5135   -0.8653    0.0000 H   0  0  0  0  0  0  0  0  0  0  0  0
   10.1343    4.4174    0.0000 H   0  0  0  0  0  0  0  0  0  0  0  0
    8.2648    2.3250    0.0000 H   0  0  0  0  0  0  0  0  0  0  0  0
    8.9262    5.4968    0.0000 H   0  0  0  0  0  0  0  0  0  0  0  0
    7.0567    3.4044    0.0000 H   0  0  0  0  0  0  0  0  0  0  0  0
    7.3874    4.9902    0.0000 H   0  0  0  0  0  0  0  0  0  0  0  0
    7.9188   -4.3058    0.0000 H   0  0  0  0  0  0  0  0  0  0  0  0
    4.5110   -2.1017    0.0000 H   0  0  0  0  0  0  0  0  0  0  0  0
    6.5158   -5.1158    0.0000 H   0  0  0  0  0  0  0  0  0  0  0  0
    4.5110   -4.8898    0.0000 H   0  0  0  0  0  0  0  0  0  0  0  0
    2.5374   -3.7078    0.0000 H   0  0  0  0  0  0  0  0  0  0  0  0
    3.2277   -4.1064    0.0000 H   0  0  0  0  0  0  0  0  0  0  0  0
    2.0000   -2.6298    0.0000 H   0  0  0  0  0  0  0  0  0  0  0  0
  1 14  2  0  0  0  0
  2 18  1  0  0  0  0
  2 22  1  0  0  0  0
  3 19  1  0  0  0  0
  3 23  1  0  0  0  0
  4 33  1  0  0  0  0
  4 61  1  0  0  0  0
  5  9  1  0  0  0  0
  5 15  1  0  0  0  0
  5 17  1  0  0  0  0
  6 12  1  0  0  0  0
  6 13  1  0  0  0  0
  6 16  1  0  0  0  0
  7 14  1  0  0  0  0
  7 15  1  0  0  0  0
  7 46  1  0  0  0  0
  8 28  1  0  0  0  0
  8 32  1  0  0  0  0
  8 58  1  0  0  0  0
  9 10  1  0  0  0  0
  9 11  1  0  0  0  0
  9 14  1  0  0  0  0
 10 12  1  0  0  0  0
 10 34  1  0  0  0  0
 10 35  1  0  0  0  0
 11 13  1  0  0  0  0
 11 36  1  0  0  0  0
 11 37  1  0  0  0  0
 12 38  1  0  0  0  0
 12 39  1  0  0  0  0
 13 40  1  0  0  0  0
 13 41  1  0  0  0  0
 15 42  1  0  0  0  0
 15 43  1  0  0  0  0
 16 18  1  0  0  0  0
 16 44  1  0  0  0  0
 16 45  1  0  0  0  0
 17 20  2  0  0  0  0
 17 21  1  0  0  0  0
 18 19  1  0  0  0  0
 18 47  1  0  0  0  0
 19 48  1  0  0  0  0
 19 49  1  0  0  0  0
 20 24  1  0  0  0  0
 20 50  1  0  0  0  0
 21 25  2  0  0  0  0
 21 51  1  0  0  0  0
 22 23  2  0  0  0  0
 22 26  1  0  0  0  0
 23 29  1  0  0  0  0
 24 27  2  0  0  0  0
 24 52  1  0  0  0  0
 25 27  1  0  0  0  0
 25 53  1  0  0  0  0
 26 28  2  0  0  0  0
 26 30  1  0  0  0  0
 27 54  1  0  0  0  0
 28 31  1  0  0  0  0
 29 31  2  0  0  0  0
 29 55  1  0  0  0  0
 30 32  2  0  0  0  0
 30 56  1  0  0  0  0
 31 57  1  0  0  0  0
 32 33  1  0  0  0  0
 33 59  1  0  0  0  0
 33 60  1  0  0  0  0
M  END
> <PUBCHEM_COMPOUND_CID>
15665517

> <PUBCHEM_COMPOUND_CANONICALIZED>
1

> <PUBCHEM_CACTVS_COMPLEXITY>
709

> <PUBCHEM_CACTVS_HBOND_ACCEPTOR>
6

> <PUBCHEM_CACTVS_HBOND_DONOR>
3

> <PUBCHEM_CACTVS_ROTATABLE_BOND>
4

> <PUBCHEM_CACTVS_SUBSKEYS>
AAADceB7uAAAAAAAAAAAAAAAAAAAAWLAAAA8aIEAAAAAAFiR9AAAHgAQCAAADJzhngYxxvPJlgCoAyVyVASCiCAhIiAImaG+7JiPdvLE8buXeCru0xva+Ce08L8OAEABAgAKQAAAgAIEABSAAAAAAAAAAA==

> <PUBCHEM_IUPAC_OPENEYE_NAME>
8-[[8-(hydroxymethyl)-3,7-dihydro-2H-[1,4]dioxino[2,3-e]indol-2-yl]methyl]-1-phenyl-1,3,8-triazaspiro[4.5]decan-4-one

> <PUBCHEM_IUPAC_CAS_NAME>
8-[[8-(hydroxymethyl)-3,7-dihydro-2H-[1,4]dioxino[2,3-e]indol-2-yl]methyl]-1-phenyl-1,3,8-triazaspiro[4.5]decan-4-one

> <PUBCHEM_IUPAC_NAME_MARKUP>
8-[[8-(hydroxymethyl)-3,7-dihydro-2<I>H</I>-[1,4]dioxino[2,3-e]indol-2-yl]methyl]-1-phenyl-1,3,8-triazaspiro[4.5]decan-4-one

> <PUBCHEM_IUPAC_NAME>
8-[[8-(hydroxymethyl)-3,7-dihydro-2H-[1,4]dioxino[2,3-e]indol-2-yl]methyl]-1-phenyl-1,3,8-triazaspiro[4.5]decan-4-one

> <PUBCHEM_IUPAC_SYSTEMATIC_NAME>
8-[[8-(hydroxymethyl)-3,7-dihydro-2H-[1,4]dioxino[2,3-e]indol-2-yl]methyl]-1-phenyl-1,3,8-triazaspiro[4.5]decan-4-one

> <PUBCHEM_IUPAC_TRADITIONAL_NAME>
8-[(8-methylol-3,7-dihydro-2H-[1,4]dioxin[2,3-e]indol-2-yl)methyl]-1-phenyl-1,3,8-triazaspiro[4.5]decan-4-one

> <PUBCHEM_IUPAC_INCHI>
InChI=1S/C25H28N4O4/c30-14-17-12-20-21(27-17)6-7-22-23(20)33-19(15-32-22)13-28-10-8-25(9-11-28)24(31)26-16-29(25)18-4-2-1-3-5-18/h1-7,12,19,27,30H,8-11,13-16H2,(H,26,31)

> <PUBCHEM_IUPAC_INCHIKEY>
UWNQTNJQOXIWHF-UHFFFAOYSA-N

> <PUBCHEM_XLOGP3_AA>
2.4

> <PUBCHEM_EXACT_MASS>
448.21105539

> <PUBCHEM_MOLECULAR_FORMULA>
C25H28N4O4

> <PUBCHEM_MOLECULAR_WEIGHT>
448.5

> <PUBCHEM_OPENEYE_CAN_SMILES>
C1CN(CCC12C(=O)NCN2C3=CC=CC=C3)CC4COC5=C(O4)C6=C(C=C5)NC(=C6)CO

> <PUBCHEM_OPENEYE_ISO_SMILES>
C1CN(CCC12C(=O)NCN2C3=CC=CC=C3)CC4COC5=C(O4)C6=C(C=C5)NC(=C6)CO

> <PUBCHEM_CACTVS_TPSA>
90.1

> <PUBCHEM_MONOISOTOPIC_WEIGHT>
448.21105539

> <PUBCHEM_TOTAL_CHARGE>
0

> <PUBCHEM_HEAVY_ATOM_COUNT>
33

> <PUBCHEM_ATOM_DEF_STEREO_COUNT>
0

> <PUBCHEM_ATOM_UDEF_STEREO_COUNT>
1

> <PUBCHEM_BOND_DEF_STEREO_COUNT>
0

> <PUBCHEM_BOND_UDEF_STEREO_COUNT>
0

> <PUBCHEM_ISOTOPIC_ATOM_COUNT>
0

> <PUBCHEM_COMPONENT_COUNT>
1

> <PUBCHEM_CACTVS_TAUTO_COUNT>
-1

> <PUBCHEM_COORDINATE_TYPE>
1
5
255

> <PUBCHEM_BONDANNOTATIONS>
18  16  3
17  20  8
17  21  8
20  24  8
21  25  8
22  23  8
22  26  8
23  29  8
24  27  8
25  27  8
26  28  8
26  30  8
28  31  8
29  31  8
30  32  8
8  28  8
8  32  8

$$$$
