11213136
  -OEChem-09292322302D

 65 69  0     1  0  0  0  0  0999 V2000
    6.8867   -3.2115    0.0000 S   0  0  0  0  0  0  0  0  0  0  0  0
    3.5388   -1.1237    0.0000 O   0  0  0  0  0  0  0  0  0  0  0  0
    9.8867   -1.4795    0.0000 N   0  0  3  0  0  0  0  0  0  0  0  0
    5.2989   -2.4025    0.0000 N   0  0  0  0  0  0  0  0  0  0  0  0
    5.2989   -4.0205    0.0000 N   0  0  0  0  0  0  0  0  0  0  0  0
    4.3479   -3.7115    0.0000 N   0  0  0  0  0  0  0  0  0  0  0  0
    2.0000   -1.6237    0.0000 N   0  0  0  0  0  0  0  0  0  0  0  0
   11.4255   -0.9795    0.0000 C   0  0  2  0  0  0  0  0  0  0  0  0
   11.4255   -1.9795    0.0000 C   0  0  1  0  0  0  0  0  0  0  0  0
   12.2921   -1.4795    0.0000 C   0  0  0  0  0  0  0  0  0  0  0  0
   10.4745   -0.6704    0.0000 C   0  0  0  0  0  0  0  0  0  0  0  0
   10.4745   -2.2885    0.0000 C   0  0  0  0  0  0  0  0  0  0  0  0
   11.4255    0.0205    0.0000 C   0  0  0  0  0  0  0  0  0  0  0  0
    8.8867   -1.4795    0.0000 C   0  0  0  0  0  0  0  0  0  0  0  0
   12.2916    0.5205    0.0000 C   0  0  0  0  0  0  0  0  0  0  0  0
   10.5595    0.5205    0.0000 C   0  0  0  0  0  0  0  0  0  0  0  0
    8.3867   -2.3455    0.0000 C   0  0  0  0  0  0  0  0  0  0  0  0
   12.2916    1.5205    0.0000 C   0  0  0  0  0  0  0  0  0  0  0  0
   10.5595    1.5205    0.0000 C   0  0  0  0  0  0  0  0  0  0  0  0
   11.4255    2.0205    0.0000 C   0  0  0  0  0  0  0  0  0  0  0  0
    7.3867   -2.3455    0.0000 C   0  0  0  0  0  0  0  0  0  0  0  0
   11.4255    3.0205    0.0000 C   0  0  0  0  0  0  0  0  0  0  0  0
   11.4255    4.0205    0.0000 C   0  0  0  0  0  0  0  0  0  0  0  0
   12.4255    3.0205    0.0000 C   0  0  0  0  0  0  0  0  0  0  0  0
   10.4255    3.0205    0.0000 C   0  0  0  0  0  0  0  0  0  0  0  0
    5.8867   -3.2115    0.0000 C   0  0  0  0  0  0  0  0  0  0  0  0
    4.3479   -2.7115    0.0000 C   0  0  0  0  0  0  0  0  0  0  0  0
    5.6079   -1.4514    0.0000 C   0  0  0  0  0  0  0  0  0  0  0  0
    3.5388   -2.1237    0.0000 C   0  0  0  0  0  0  0  0  0  0  0  0
    2.5878   -2.4328    0.0000 C   0  0  0  0  0  0  0  0  0  0  0  0
    2.2788   -3.3838    0.0000 C   0  0  0  0  0  0  0  0  0  0  0  0
    2.5878   -0.8147    0.0000 C   0  0  0  0  0  0  0  0  0  0  0  0
   11.7712   -2.7560    0.0000 H   0  0  0  0  0  0  0  0  0  0  0  0
   12.6906   -1.9544    0.0000 H   0  0  0  0  0  0  0  0  0  0  0  0
   12.6906   -1.0045    0.0000 H   0  0  0  0  0  0  0  0  0  0  0  0
   10.7267   -0.1041    0.0000 H   0  0  0  0  0  0  0  0  0  0  0  0
    9.9376   -0.3604    0.0000 H   0  0  0  0  0  0  0  0  0  0  0  0
    9.9376   -2.5985    0.0000 H   0  0  0  0  0  0  0  0  0  0  0  0
   10.7267   -2.8549    0.0000 H   0  0  0  0  0  0  0  0  0  0  0  0
    8.9944   -0.8689    0.0000 H   0  0  0  0  0  0  0  0  0  0  0  0
    8.3041   -1.2674    0.0000 H   0  0  0  0  0  0  0  0  0  0  0  0
   12.8285    0.2105    0.0000 H   0  0  0  0  0  0  0  0  0  0  0  0
   10.0226    0.2105    0.0000 H   0  0  0  0  0  0  0  0  0  0  0  0
    8.2790   -2.9561    0.0000 H   0  0  0  0  0  0  0  0  0  0  0  0
    8.9693   -2.5575    0.0000 H   0  0  0  0  0  0  0  0  0  0  0  0
   12.8285    1.8305    0.0000 H   0  0  0  0  0  0  0  0  0  0  0  0
   10.0226    1.8305    0.0000 H   0  0  0  0  0  0  0  0  0  0  0  0
    7.4944   -1.7349    0.0000 H   0  0  0  0  0  0  0  0  0  0  0  0
    6.8041   -2.1334    0.0000 H   0  0  0  0  0  0  0  0  0  0  0  0
   12.0455    4.0205    0.0000 H   0  0  0  0  0  0  0  0  0  0  0  0
   11.4255    4.6405    0.0000 H   0  0  0  0  0  0  0  0  0  0  0  0
   10.8055    4.0205    0.0000 H   0  0  0  0  0  0  0  0  0  0  0  0
   12.4255    2.4005    0.0000 H   0  0  0  0  0  0  0  0  0  0  0  0
   13.0455    3.0205    0.0000 H   0  0  0  0  0  0  0  0  0  0  0  0
   12.4255    3.6405    0.0000 H   0  0  0  0  0  0  0  0  0  0  0  0
   10.4255    3.6405    0.0000 H   0  0  0  0  0  0  0  0  0  0  0  0
    9.8055    3.0205    0.0000 H   0  0  0  0  0  0  0  0  0  0  0  0
   10.4255    2.4005    0.0000 H   0  0  0  0  0  0  0  0  0  0  0  0
    6.1976   -1.6430    0.0000 H   0  0  0  0  0  0  0  0  0  0  0  0
    5.7995   -0.8618    0.0000 H   0  0  0  0  0  0  0  0  0  0  0  0
    5.0183   -1.2598    0.0000 H   0  0  0  0  0  0  0  0  0  0  0  0
    1.6891   -3.1922    0.0000 H   0  0  0  0  0  0  0  0  0  0  0  0
    2.0872   -3.9735    0.0000 H   0  0  0  0  0  0  0  0  0  0  0  0
    2.8684   -3.5754    0.0000 H   0  0  0  0  0  0  0  0  0  0  0  0
    2.3962   -0.2251    0.0000 H   0  0  0  0  0  0  0  0  0  0  0  0
  1 21  1  0  0  0  0
  1 26  1  0  0  0  0
  2 29  1  0  0  0  0
  2 32  1  0  0  0  0
  3 11  1  0  0  0  0
  3 12  1  0  0  0  0
  3 14  1  0  0  0  0
  4 26  1  0  0  0  0
  4 27  1  0  0  0  0
  4 28  1  0  0  0  0
  5  6  1  0  0  0  0
  5 26  2  0  0  0  0
  6 27  2  0  0  0  0
  7 30  1  0  0  0  0
  7 32  2  0  0  0  0
  8  9  1  0  0  0  0
  8 10  1  0  0  0  0
  8 11  1  0  0  0  0
  8 13  1  6  0  0  0
  9 10  1  0  0  0  0
  9 12  1  0  0  0  0
  9 33  1  6  0  0  0
 10 34  1  0  0  0  0
 10 35  1  0  0  0  0
 11 36  1  0  0  0  0
 11 37  1  0  0  0  0
 12 38  1  0  0  0  0
 12 39  1  0  0  0  0
 13 15  2  0  0  0  0
 13 16  1  0  0  0  0
 14 17  1  0  0  0  0
 14 40  1  0  0  0  0
 14 41  1  0  0  0  0
 15 18  1  0  0  0  0
 15 42  1  0  0  0  0
 16 19  2  0  0  0  0
 16 43  1  0  0  0  0
 17 21  1  0  0  0  0
 17 44  1  0  0  0  0
 17 45  1  0  0  0  0
 18 20  2  0  0  0  0
 18 46  1  0  0  0  0
 19 20  1  0  0  0  0
 19 47  1  0  0  0  0
 20 22  1  0  0  0  0
 21 48  1  0  0  0  0
 21 49  1  0  0  0  0
 22 23  1  0  0  0  0
 22 24  1  0  0  0  0
 22 25  1  0  0  0  0
 23 50  1  0  0  0  0
 23 51  1  0  0  0  0
 23 52  1  0  0  0  0
 24 53  1  0  0  0  0
 24 54  1  0  0  0  0
 24 55  1  0  0  0  0
 25 56  1  0  0  0  0
 25 57  1  0  0  0  0
 25 58  1  0  0  0  0
 27 29  1  0  0  0  0
 28 59  1  0  0  0  0
 28 60  1  0  0  0  0
 28 61  1  0  0  0  0
 29 30  2  0  0  0  0
 30 31  1  0  0  0  0
 31 62  1  0  0  0  0
 31 63  1  0  0  0  0
 31 64  1  0  0  0  0
 32 65  1  0  0  0  0
M  END
> <PUBCHEM_COMPOUND_CID>
11213136

> <PUBCHEM_COMPOUND_CANONICALIZED>
1

> <PUBCHEM_CACTVS_COMPLEXITY>
651

> <PUBCHEM_CACTVS_HBOND_ACCEPTOR>
6

> <PUBCHEM_CACTVS_HBOND_DONOR>
0

> <PUBCHEM_CACTVS_ROTATABLE_BOND>
8

> <PUBCHEM_CACTVS_SUBSKEYS>
AAADcfB7oABAAAAAAAAAAAAAGAAAAWLFgAA8QAAAAAAAAAAB8AAAHgQIAAAADwzF3wa3lJcMFEiqA6Zz9ASS2Ct7YLAd2CG9RJiOKCLk2TGNIChgjALYiAcQgMAPwAAAAAAAAACAAAAAAAAAAAAAAAAAAA==

> <PUBCHEM_IUPAC_OPENEYE_NAME>
5-[5-[3-[(1S,5R)-1-(4-tert-butylphenyl)-3-azabicyclo[3.1.0]hexan-3-yl]propylsulfanyl]-4-methyl-1,2,4-triazol-3-yl]-4-methyl-oxazole

> <PUBCHEM_IUPAC_CAS_NAME>
5-[5-[3-[(1S,5R)-1-(4-tert-butylphenyl)-3-azabicyclo[3.1.0]hexan-3-yl]propylthio]-4-methyl-1,2,4-triazol-3-yl]-4-methyloxazole

> <PUBCHEM_IUPAC_NAME_MARKUP>
5-[5-[3-[(1<I>S</I>,5<I>R</I>)-1-(4-<I>tert</I>-butylphenyl)-3-azabicyclo[3.1.0]hexan-3-yl]propylsulfanyl]-4-methyl-1,2,4-triazol-3-yl]-4-methyl-1,3-oxazole

> <PUBCHEM_IUPAC_NAME>
5-[5-[3-[(1S,5R)-1-(4-tert-butylphenyl)-3-azabicyclo[3.1.0]hexan-3-yl]propylsulfanyl]-4-methyl-1,2,4-triazol-3-yl]-4-methyl-1,3-oxazole

> <PUBCHEM_IUPAC_SYSTEMATIC_NAME>
5-[5-[3-[(1S,5R)-1-(4-tert-butylphenyl)-3-azabicyclo[3.1.0]hexan-3-yl]propylsulfanyl]-4-methyl-1,2,4-triazol-3-yl]-4-methyl-1,3-oxazole

> <PUBCHEM_IUPAC_TRADITIONAL_NAME>
5-[5-[3-[(1S,5R)-1-(4-tert-butylphenyl)-3-azabicyclo[3.1.0]hexan-3-yl]propylthio]-4-methyl-1,2,4-triazol-3-yl]-4-methyl-oxazole

> <PUBCHEM_IUPAC_INCHI>
InChI=1S/C25H33N5OS/c1-17-21(31-16-26-17)22-27-28-23(29(22)5)32-12-6-11-30-14-20-13-25(20,15-30)19-9-7-18(8-10-19)24(2,3)4/h7-10,16,20H,6,11-15H2,1-5H3/t20-,25+/m0/s1

> <PUBCHEM_IUPAC_INCHIKEY>
KBYDKOYJEQUBOE-NBGIEHNGSA-N

> <PUBCHEM_XLOGP3_AA>
4.8

> <PUBCHEM_EXACT_MASS>
451.24058187

> <PUBCHEM_MOLECULAR_FORMULA>
C25H33N5OS

> <PUBCHEM_MOLECULAR_WEIGHT>
451.6

> <PUBCHEM_OPENEYE_CAN_SMILES>
CC1=C(OC=N1)C2=NN=C(N2C)SCCCN3CC4CC4(C3)C5=CC=C(C=C5)C(C)(C)C

> <PUBCHEM_OPENEYE_ISO_SMILES>
CC1=C(OC=N1)C2=NN=C(N2C)SCCCN3C[C@@H]4C[C@@]4(C3)C5=CC=C(C=C5)C(C)(C)C

> <PUBCHEM_CACTVS_TPSA>
85.3

> <PUBCHEM_MONOISOTOPIC_WEIGHT>
451.24058187

> <PUBCHEM_TOTAL_CHARGE>
0

> <PUBCHEM_HEAVY_ATOM_COUNT>
32

> <PUBCHEM_ATOM_DEF_STEREO_COUNT>
2

> <PUBCHEM_ATOM_UDEF_STEREO_COUNT>
0

> <PUBCHEM_BOND_DEF_STEREO_COUNT>
0

> <PUBCHEM_BOND_UDEF_STEREO_COUNT>
0

> <PUBCHEM_ISOTOPIC_ATOM_COUNT>
0

> <PUBCHEM_COMPONENT_COUNT>
1

> <PUBCHEM_CACTVS_TAUTO_COUNT>
-1

> <PUBCHEM_COORDINATE_TYPE>
1
5
255

> <PUBCHEM_BONDANNOTATIONS>
13  15  8
13  16  8
15  18  8
16  19  8
18  20  8
19  20  8
2  29  8
2  32  8
29  30  8
4  26  8
4  27  8
5  26  8
5  6  8
6  27  8
7  30  8
7  32  8
8  13  6
9  33  6

$$$$
