11691676
  -OEChem-09292322482D

 66 70  0     0  0  0  0  0  0999 V2000
    6.4103   -6.3024    0.0000 O   0  0  0  0  0  0  0  0  0  0  0  0
    2.8660   -4.4977    0.0000 O   0  0  0  0  0  0  0  0  0  0  0  0
   11.8777    0.8845    0.0000 O   0  0  0  0  0  0  0  0  0  0  0  0
    9.8399    6.4977    0.0000 O   0  0  0  0  0  0  0  0  0  0  0  0
    7.3423   -1.8414    0.0000 N   0  0  0  0  0  0  0  0  0  0  0  0
    6.7210   -3.7425    0.0000 N   0  0  0  0  0  0  0  0  0  0  0  0
    6.9939   -5.4977    0.0000 N   0  0  0  0  0  0  0  0  0  0  0  0
   10.2313    1.4226    0.0000 N   0  0  0  0  0  0  0  0  0  0  0  0
    9.5008    4.9156    0.0000 N   0  0  0  0  0  0  0  0  0  0  0  0
   10.7051    5.9962    0.0000 N   0  0  0  0  0  0  0  0  0  0  0  0
    6.3638   -2.0476    0.0000 C   0  0  0  0  0  0  0  0  0  0  0  0
    8.0102   -2.5857    0.0000 C   0  0  0  0  0  0  0  0  0  0  0  0
    6.0531   -2.9982    0.0000 C   0  0  0  0  0  0  0  0  0  0  0  0
    7.6995   -3.5362    0.0000 C   0  0  0  0  0  0  0  0  0  0  0  0
    7.6530   -0.8909    0.0000 C   0  0  0  0  0  0  0  0  0  0  0  0
    8.6315   -0.6847    0.0000 C   0  0  0  0  0  0  0  0  0  0  0  0
    6.4103   -4.6930    0.0000 C   0  0  0  0  0  0  0  0  0  0  0  0
    8.9421    0.2658    0.0000 C   0  0  0  0  0  0  0  0  0  0  0  0
    5.4641   -4.9977    0.0000 C   0  0  0  0  0  0  0  0  0  0  0  0
    9.9206    0.4721    0.0000 C   0  0  0  0  0  0  0  0  0  0  0  0
    5.4641   -5.9977    0.0000 C   0  0  0  0  0  0  0  0  0  0  0  0
    4.5981   -4.4977    0.0000 C   0  0  0  0  0  0  0  0  0  0  0  0
    4.5981   -6.4977    0.0000 C   0  0  0  0  0  0  0  0  0  0  0  0
    3.7320   -4.9977    0.0000 C   0  0  0  0  0  0  0  0  0  0  0  0
    3.7320   -5.9977    0.0000 C   0  0  0  0  0  0  0  0  0  0  0  0
   11.2098    1.6288    0.0000 C   0  0  0  0  0  0  0  0  0  0  0  0
   11.5205    2.5793    0.0000 C   0  0  0  0  0  0  0  0  0  0  0  0
   10.8526    3.3236    0.0000 C   0  0  0  0  0  0  0  0  0  0  0  0
   12.4990    2.7855    0.0000 C   0  0  0  0  0  0  0  0  0  0  0  0
    2.0000   -4.9977    0.0000 C   0  0  0  0  0  0  0  0  0  0  0  0
   11.1633    4.2741    0.0000 C   0  0  0  0  0  0  0  0  0  0  0  0
   12.8096    3.7360    0.0000 C   0  0  0  0  0  0  0  0  0  0  0  0
   12.1418    4.4803    0.0000 C   0  0  0  0  0  0  0  0  0  0  0  0
   10.4955    5.0184    0.0000 C   0  0  0  0  0  0  0  0  0  0  0  0
    9.0956    5.8299    0.0000 C   0  0  0  0  0  0  0  0  0  0  0  0
    8.1178    6.0395    0.0000 C   0  0  0  0  0  0  0  0  0  0  0  0
    6.3432   -1.4280    0.0000 H   0  0  0  0  0  0  0  0  0  0  0  0
    5.7500   -1.9603    0.0000 H   0  0  0  0  0  0  0  0  0  0  0  0
    8.5571   -2.8777    0.0000 H   0  0  0  0  0  0  0  0  0  0  0  0
    8.3927   -2.0978    0.0000 H   0  0  0  0  0  0  0  0  0  0  0  0
    5.5062   -2.7062    0.0000 H   0  0  0  0  0  0  0  0  0  0  0  0
    5.6706   -3.4861    0.0000 H   0  0  0  0  0  0  0  0  0  0  0  0
    7.7201   -4.1559    0.0000 H   0  0  0  0  0  0  0  0  0  0  0  0
    8.3133   -3.6236    0.0000 H   0  0  0  0  0  0  0  0  0  0  0  0
    7.6324   -0.2712    0.0000 H   0  0  0  0  0  0  0  0  0  0  0  0
    7.0392   -0.8036    0.0000 H   0  0  0  0  0  0  0  0  0  0  0  0
    8.6520   -1.3043    0.0000 H   0  0  0  0  0  0  0  0  0  0  0  0
    9.2453   -0.7720    0.0000 H   0  0  0  0  0  0  0  0  0  0  0  0
    8.9216    0.8855    0.0000 H   0  0  0  0  0  0  0  0  0  0  0  0
    8.3283    0.3532    0.0000 H   0  0  0  0  0  0  0  0  0  0  0  0
    9.9412   -0.1476    0.0000 H   0  0  0  0  0  0  0  0  0  0  0  0
   10.5345    0.3847    0.0000 H   0  0  0  0  0  0  0  0  0  0  0  0
    4.5981   -3.8777    0.0000 H   0  0  0  0  0  0  0  0  0  0  0  0
    9.8172    1.8840    0.0000 H   0  0  0  0  0  0  0  0  0  0  0  0
    4.5981   -7.1177    0.0000 H   0  0  0  0  0  0  0  0  0  0  0  0
    3.1951   -6.3077    0.0000 H   0  0  0  0  0  0  0  0  0  0  0  0
   10.2460    3.1958    0.0000 H   0  0  0  0  0  0  0  0  0  0  0  0
   12.9130    2.3241    0.0000 H   0  0  0  0  0  0  0  0  0  0  0  0
    1.6900   -4.4608    0.0000 H   0  0  0  0  0  0  0  0  0  0  0  0
    1.4631   -5.3077    0.0000 H   0  0  0  0  0  0  0  0  0  0  0  0
    2.3100   -5.5347    0.0000 H   0  0  0  0  0  0  0  0  0  0  0  0
   13.4163    3.8639    0.0000 H   0  0  0  0  0  0  0  0  0  0  0  0
   12.3344    5.0697    0.0000 H   0  0  0  0  0  0  0  0  0  0  0  0
    8.2478    6.6457    0.0000 H   0  0  0  0  0  0  0  0  0  0  0  0
    7.5116    6.1694    0.0000 H   0  0  0  0  0  0  0  0  0  0  0  0
    7.9878    5.4332    0.0000 H   0  0  0  0  0  0  0  0  0  0  0  0
  1  7  1  0  0  0  0
  1 21  1  0  0  0  0
  2 24  1  0  0  0  0
  2 30  1  0  0  0  0
  3 26  2  0  0  0  0
  4 10  1  0  0  0  0
  4 35  1  0  0  0  0
  5 11  1  0  0  0  0
  5 12  1  0  0  0  0
  5 15  1  0  0  0  0
  6 13  1  0  0  0  0
  6 14  1  0  0  0  0
  6 17  1  0  0  0  0
  7 17  2  0  0  0  0
  8 20  1  0  0  0  0
  8 26  1  0  0  0  0
  8 54  1  0  0  0  0
  9 34  1  0  0  0  0
  9 35  2  0  0  0  0
 10 34  2  0  0  0  0
 11 13  1  0  0  0  0
 11 37  1  0  0  0  0
 11 38  1  0  0  0  0
 12 14  1  0  0  0  0
 12 39  1  0  0  0  0
 12 40  1  0  0  0  0
 13 41  1  0  0  0  0
 13 42  1  0  0  0  0
 14 43  1  0  0  0  0
 14 44  1  0  0  0  0
 15 16  1  0  0  0  0
 15 45  1  0  0  0  0
 15 46  1  0  0  0  0
 16 18  1  0  0  0  0
 16 47  1  0  0  0  0
 16 48  1  0  0  0  0
 17 19  1  0  0  0  0
 18 20  1  0  0  0  0
 18 49  1  0  0  0  0
 18 50  1  0  0  0  0
 19 21  2  0  0  0  0
 19 22  1  0  0  0  0
 20 51  1  0  0  0  0
 20 52  1  0  0  0  0
 21 23  1  0  0  0  0
 22 24  2  0  0  0  0
 22 53  1  0  0  0  0
 23 25  2  0  0  0  0
 23 55  1  0  0  0  0
 24 25  1  0  0  0  0
 25 56  1  0  0  0  0
 26 27  1  0  0  0  0
 27 28  1  0  0  0  0
 27 29  2  0  0  0  0
 28 31  2  0  0  0  0
 28 57  1  0  0  0  0
 29 32  1  0  0  0  0
 29 58  1  0  0  0  0
 30 59  1  0  0  0  0
 30 60  1  0  0  0  0
 30 61  1  0  0  0  0
 31 33  1  0  0  0  0
 31 34  1  0  0  0  0
 32 33  2  0  0  0  0
 32 62  1  0  0  0  0
 33 63  1  0  0  0  0
 35 36  1  0  0  0  0
 36 64  1  0  0  0  0
 36 65  1  0  0  0  0
 36 66  1  0  0  0  0
M  END
> <PUBCHEM_COMPOUND_CID>
11691676

> <PUBCHEM_COMPOUND_CANONICALIZED>
1

> <PUBCHEM_CACTVS_COMPLEXITY>
708

> <PUBCHEM_CACTVS_HBOND_ACCEPTOR>
9

> <PUBCHEM_CACTVS_HBOND_DONOR>
1

> <PUBCHEM_CACTVS_ROTATABLE_BOND>
9

> <PUBCHEM_CACTVS_SUBSKEYS>
AAADceB7uAAAAAAAAAAAAAAAAAAAAWLAAAA8YIAAAAAAAFgB/AAAHgAUAAAADATBmwYzttfYFACpAqNydgCCiAklIKApmKE+TNqMbrrEvZuUMahm1xvI6cf6yXCOAQADAAAIAAACAAYAABAAAAAAAAAAAA==

> <PUBCHEM_IUPAC_OPENEYE_NAME>
N-[4-[4-(5-methoxy-1,2-benzoxazol-3-yl)piperazin-1-yl]butyl]-3-(5-methyl-1,2,4-oxadiazol-3-yl)benzamide

> <PUBCHEM_IUPAC_CAS_NAME>
N-[4-[4-(5-methoxy-1,2-benzoxazol-3-yl)-1-piperazinyl]butyl]-3-(5-methyl-1,2,4-oxadiazol-3-yl)benzamide

> <PUBCHEM_IUPAC_NAME_MARKUP>
<I>N</I>-[4-[4-(5-methoxy-1,2-benzoxazol-3-yl)piperazin-1-yl]butyl]-3-(5-methyl-1,2,4-oxadiazol-3-yl)benzamide

> <PUBCHEM_IUPAC_NAME>
N-[4-[4-(5-methoxy-1,2-benzoxazol-3-yl)piperazin-1-yl]butyl]-3-(5-methyl-1,2,4-oxadiazol-3-yl)benzamide

> <PUBCHEM_IUPAC_SYSTEMATIC_NAME>
N-[4-[4-(5-methoxy-1,2-benzoxazol-3-yl)piperazin-1-yl]butyl]-3-(5-methyl-1,2,4-oxadiazol-3-yl)benzamide

> <PUBCHEM_IUPAC_TRADITIONAL_NAME>
N-[4-[4-(5-methoxyindoxazen-3-yl)piperazino]butyl]-3-(5-methyl-1,2,4-oxadiazol-3-yl)benzamide

> <PUBCHEM_IUPAC_INCHI>
InChI=1S/C26H30N6O4/c1-18-28-24(29-35-18)19-6-5-7-20(16-19)26(33)27-10-3-4-11-31-12-14-32(15-13-31)25-22-17-21(34-2)8-9-23(22)36-30-25/h5-9,16-17H,3-4,10-15H2,1-2H3,(H,27,33)

> <PUBCHEM_IUPAC_INCHIKEY>
ZPVPYUKSPMCCQN-UHFFFAOYSA-N

> <PUBCHEM_XLOGP3_AA>
3.9

> <PUBCHEM_EXACT_MASS>
490.23285346

> <PUBCHEM_MOLECULAR_FORMULA>
C26H30N6O4

> <PUBCHEM_MOLECULAR_WEIGHT>
490.6

> <PUBCHEM_OPENEYE_CAN_SMILES>
CC1=NC(=NO1)C2=CC(=CC=C2)C(=O)NCCCCN3CCN(CC3)C4=NOC5=C4C=C(C=C5)OC

> <PUBCHEM_OPENEYE_ISO_SMILES>
CC1=NC(=NO1)C2=CC(=CC=C2)C(=O)NCCCCN3CCN(CC3)C4=NOC5=C4C=C(C=C5)OC

> <PUBCHEM_CACTVS_TPSA>
110

> <PUBCHEM_MONOISOTOPIC_WEIGHT>
490.23285346

> <PUBCHEM_TOTAL_CHARGE>
0

> <PUBCHEM_HEAVY_ATOM_COUNT>
36

> <PUBCHEM_ATOM_DEF_STEREO_COUNT>
0

> <PUBCHEM_ATOM_UDEF_STEREO_COUNT>
0

> <PUBCHEM_BOND_DEF_STEREO_COUNT>
0

> <PUBCHEM_BOND_UDEF_STEREO_COUNT>
0

> <PUBCHEM_ISOTOPIC_ATOM_COUNT>
0

> <PUBCHEM_COMPONENT_COUNT>
1

> <PUBCHEM_CACTVS_TAUTO_COUNT>
-1

> <PUBCHEM_COORDINATE_TYPE>
1
5
255

> <PUBCHEM_BONDANNOTATIONS>
1  21  8
1  7  8
10  34  8
17  19  8
19  21  8
19  22  8
21  23  8
22  24  8
23  25  8
24  25  8
27  28  8
27  29  8
28  31  8
29  32  8
31  33  8
32  33  8
4  10  8
4  35  8
7  17  8
9  34  8
9  35  8

$$$$
