44407436
  -OEChem-09292322272D

 72 75  0     0  0  0  0  0  0999 V2000
    6.4051   -3.8032    0.0000 F   0  0  0  0  0  0  0  0  0  0  0  0
    7.0659   -5.0535    0.0000 F   0  0  0  0  0  0  0  0  0  0  0  0
    5.8156   -5.7143    0.0000 F   0  0  0  0  0  0  0  0  0  0  0  0
    2.5092    3.4563    0.0000 O   0  0  0  0  0  0  0  0  0  0  0  0
    3.3091   -0.2695    0.0000 N   0  0  0  0  0  0  0  0  0  0  0  0
    3.7541   -2.2194    0.0000 N   0  0  0  0  0  0  0  0  0  0  0  0
    4.1076    4.0156    0.0000 N   0  0  0  0  0  0  0  0  0  0  0  0
    3.2436   -3.8745    0.0000 N   0  0  0  0  0  0  0  0  0  0  0  0
    4.4217   -5.1441    0.0000 N   0  0  0  0  0  0  0  0  0  0  0  0
    4.2646   -0.5643    0.0000 C   0  0  0  0  0  0  0  0  0  0  0  0
    2.5760   -0.9497    0.0000 C   0  0  0  0  0  0  0  0  0  0  0  0
    4.4872   -1.5392    0.0000 C   0  0  0  0  0  0  0  0  0  0  0  0
    2.7985   -1.9246    0.0000 C   0  0  0  0  0  0  0  0  0  0  0  0
    3.0866    0.7054    0.0000 C   0  0  0  0  0  0  0  0  0  0  0  0
    3.8196    1.3856    0.0000 C   0  0  0  0  0  0  0  0  0  0  0  0
    3.5971    2.3605    0.0000 C   0  0  0  0  0  0  0  0  0  0  0  0
    4.3301    3.0407    0.0000 C   0  0  0  0  0  0  0  0  0  0  0  0
    3.9766   -3.1943    0.0000 C   0  0  0  0  0  0  0  0  0  0  0  0
    4.8894    4.6391    0.0000 C   0  0  0  0  0  0  0  0  0  0  0  0
    2.7330   -5.5296    0.0000 C   0  0  0  0  0  0  0  0  0  0  0  0
    4.1076    6.2626    0.0000 C   0  0  0  0  0  0  0  0  0  0  0  0
    3.1327    6.0401    0.0000 C   0  0  0  0  0  0  0  0  0  0  0  0
    4.8894    5.6391    0.0000 C   0  0  0  0  0  0  0  0  0  0  0  0
    2.6988    5.1391    0.0000 C   0  0  0  0  0  0  0  0  0  0  0  0
    3.1327    4.2382    0.0000 C   0  0  0  0  0  0  0  0  0  0  0  0
    3.4661   -4.8494    0.0000 C   0  0  0  0  0  0  0  0  0  0  0  0
    4.9322   -3.4890    0.0000 C   0  0  0  0  0  0  0  0  0  0  0  0
    5.1547   -4.4640    0.0000 C   0  0  0  0  0  0  0  0  0  0  0  0
    2.0000   -6.2097    0.0000 C   0  0  0  0  0  0  0  0  0  0  0  0
    3.4132   -6.2626    0.0000 C   0  0  0  0  0  0  0  0  0  0  0  0
    2.0529   -4.7965    0.0000 C   0  0  0  0  0  0  0  0  0  0  0  0
    5.7834    4.1045    0.0000 C   0  0  0  0  0  0  0  0  0  0  0  0
    5.7834    6.1738    0.0000 C   0  0  0  0  0  0  0  0  0  0  0  0
    6.6894    4.6183    0.0000 C   0  0  0  0  0  0  0  0  0  0  0  0
    6.6894    5.6599    0.0000 C   0  0  0  0  0  0  0  0  0  0  0  0
    6.1103   -4.7587    0.0000 C   0  0  0  0  0  0  0  0  0  0  0  0
    4.8839   -0.5334    0.0000 H   0  0  0  0  0  0  0  0  0  0  0  0
    4.3417    0.0509    0.0000 H   0  0  0  0  0  0  0  0  0  0  0  0
    2.2396   -0.4289    0.0000 H   0  0  0  0  0  0  0  0  0  0  0  0
    2.0047   -1.1905    0.0000 H   0  0  0  0  0  0  0  0  0  0  0  0
    4.8235   -2.0600    0.0000 H   0  0  0  0  0  0  0  0  0  0  0  0
    5.0585   -1.2983    0.0000 H   0  0  0  0  0  0  0  0  0  0  0  0
    2.1793   -1.9555    0.0000 H   0  0  0  0  0  0  0  0  0  0  0  0
    2.7214   -2.5398    0.0000 H   0  0  0  0  0  0  0  0  0  0  0  0
    2.7502    1.2262    0.0000 H   0  0  0  0  0  0  0  0  0  0  0  0
    2.5152    0.4646    0.0000 H   0  0  0  0  0  0  0  0  0  0  0  0
    4.1560    0.8648    0.0000 H   0  0  0  0  0  0  0  0  0  0  0  0
    4.3909    1.6264    0.0000 H   0  0  0  0  0  0  0  0  0  0  0  0
    3.2607    2.8813    0.0000 H   0  0  0  0  0  0  0  0  0  0  0  0
    3.0258    2.1197    0.0000 H   0  0  0  0  0  0  0  0  0  0  0  0
    4.6665    2.5199    0.0000 H   0  0  0  0  0  0  0  0  0  0  0  0
    4.9014    3.2815    0.0000 H   0  0  0  0  0  0  0  0  0  0  0  0
    4.5924    6.6492    0.0000 H   0  0  0  0  0  0  0  0  0  0  0  0
    3.8386    6.8212    0.0000 H   0  0  0  0  0  0  0  0  0  0  0  0
    3.1327    6.6601    0.0000 H   0  0  0  0  0  0  0  0  0  0  0  0
    2.5282    6.1780    0.0000 H   0  0  0  0  0  0  0  0  0  0  0  0
    2.2141    5.5257    0.0000 H   0  0  0  0  0  0  0  0  0  0  0  0
    2.2141    4.7526    0.0000 H   0  0  0  0  0  0  0  0  0  0  0  0
    5.3867   -3.0673    0.0000 H   0  0  0  0  0  0  0  0  0  0  0  0
    1.5783   -5.7552    0.0000 H   0  0  0  0  0  0  0  0  0  0  0  0
    1.5455   -6.6314    0.0000 H   0  0  0  0  0  0  0  0  0  0  0  0
    2.4217   -6.6642    0.0000 H   0  0  0  0  0  0  0  0  0  0  0  0
    2.9587   -6.6843    0.0000 H   0  0  0  0  0  0  0  0  0  0  0  0
    3.8349   -6.7171    0.0000 H   0  0  0  0  0  0  0  0  0  0  0  0
    3.8677   -5.8409    0.0000 H   0  0  0  0  0  0  0  0  0  0  0  0
    2.5074   -4.3748    0.0000 H   0  0  0  0  0  0  0  0  0  0  0  0
    1.6312   -4.3420    0.0000 H   0  0  0  0  0  0  0  0  0  0  0  0
    1.5984   -5.2182    0.0000 H   0  0  0  0  0  0  0  0  0  0  0  0
    5.7762    3.4845    0.0000 H   0  0  0  0  0  0  0  0  0  0  0  0
    5.7762    6.7937    0.0000 H   0  0  0  0  0  0  0  0  0  0  0  0
    7.2252    4.3062    0.0000 H   0  0  0  0  0  0  0  0  0  0  0  0
    7.2252    5.9720    0.0000 H   0  0  0  0  0  0  0  0  0  0  0  0
  1 36  1  0  0  0  0
  2 36  1  0  0  0  0
  3 36  1  0  0  0  0
  4 25  2  0  0  0  0
  5 10  1  0  0  0  0
  5 11  1  0  0  0  0
  5 14  1  0  0  0  0
  6 12  1  0  0  0  0
  6 13  1  0  0  0  0
  6 18  1  0  0  0  0
  7 17  1  0  0  0  0
  7 19  1  0  0  0  0
  7 25  1  0  0  0  0
  8 18  2  0  0  0  0
  8 26  1  0  0  0  0
  9 26  2  0  0  0  0
  9 28  1  0  0  0  0
 10 12  1  0  0  0  0
 10 37  1  0  0  0  0
 10 38  1  0  0  0  0
 11 13  1  0  0  0  0
 11 39  1  0  0  0  0
 11 40  1  0  0  0  0
 12 41  1  0  0  0  0
 12 42  1  0  0  0  0
 13 43  1  0  0  0  0
 13 44  1  0  0  0  0
 14 15  1  0  0  0  0
 14 45  1  0  0  0  0
 14 46  1  0  0  0  0
 15 16  1  0  0  0  0
 15 47  1  0  0  0  0
 15 48  1  0  0  0  0
 16 17  1  0  0  0  0
 16 49  1  0  0  0  0
 16 50  1  0  0  0  0
 17 51  1  0  0  0  0
 17 52  1  0  0  0  0
 18 27  1  0  0  0  0
 19 23  1  0  0  0  0
 19 32  2  0  0  0  0
 20 26  1  0  0  0  0
 20 29  1  0  0  0  0
 20 30  1  0  0  0  0
 20 31  1  0  0  0  0
 21 22  1  0  0  0  0
 21 23  1  0  0  0  0
 21 53  1  0  0  0  0
 21 54  1  0  0  0  0
 22 24  1  0  0  0  0
 22 55  1  0  0  0  0
 22 56  1  0  0  0  0
 23 33  2  0  0  0  0
 24 25  1  0  0  0  0
 24 57  1  0  0  0  0
 24 58  1  0  0  0  0
 27 28  2  0  0  0  0
 27 59  1  0  0  0  0
 28 36  1  0  0  0  0
 29 60  1  0  0  0  0
 29 61  1  0  0  0  0
 29 62  1  0  0  0  0
 30 63  1  0  0  0  0
 30 64  1  0  0  0  0
 30 65  1  0  0  0  0
 31 66  1  0  0  0  0
 31 67  1  0  0  0  0
 31 68  1  0  0  0  0
 32 34  1  0  0  0  0
 32 69  1  0  0  0  0
 33 35  1  0  0  0  0
 33 70  1  0  0  0  0
 34 35  2  0  0  0  0
 34 71  1  0  0  0  0
 35 72  1  0  0  0  0
M  END
> <PUBCHEM_COMPOUND_CID>
44407436

> <PUBCHEM_COMPOUND_CANONICALIZED>
1

> <PUBCHEM_CACTVS_COMPLEXITY>
719

> <PUBCHEM_CACTVS_HBOND_ACCEPTOR>
8

> <PUBCHEM_CACTVS_HBOND_DONOR>
0

> <PUBCHEM_CACTVS_ROTATABLE_BOND>
7

> <PUBCHEM_CACTVS_SUBSKEYS>
AAADcfB7oYAAAAAAAAAAAAAAAAAAAAAAAAA8WIAABYAAAAABwAAAHwAAAAAADgjBnxQz8JcIEACoAydydACCgCkhAqAJmCE4ZJiIaDLA2dGUJAhohgLIyCcYiICOAAAAAAACAAAAAAAAAAQAAAAAAAAAAA==

> <PUBCHEM_IUPAC_OPENEYE_NAME>
1-[4-[4-[2-tert-butyl-6-(trifluoromethyl)pyrimidin-4-yl]piperazin-1-yl]butyl]-4,5-dihydro-3H-1-benzazepin-2-one

> <PUBCHEM_IUPAC_CAS_NAME>
1-[4-[4-[2-tert-butyl-6-(trifluoromethyl)-4-pyrimidinyl]-1-piperazinyl]butyl]-4,5-dihydro-3H-1-benzazepin-2-one

> <PUBCHEM_IUPAC_NAME_MARKUP>
1-[4-[4-[2-<I>tert</I>-butyl-6-(trifluoromethyl)pyrimidin-4-yl]piperazin-1-yl]butyl]-4,5-dihydro-3<I>H</I>-1-benzazepin-2-one

> <PUBCHEM_IUPAC_NAME>
1-[4-[4-[2-tert-butyl-6-(trifluoromethyl)pyrimidin-4-yl]piperazin-1-yl]butyl]-4,5-dihydro-3H-1-benzazepin-2-one

> <PUBCHEM_IUPAC_SYSTEMATIC_NAME>
1-[4-[4-[2-tert-butyl-6-(trifluoromethyl)pyrimidin-4-yl]piperazin-1-yl]butyl]-4,5-dihydro-3H-1-benzazepin-2-one

> <PUBCHEM_IUPAC_TRADITIONAL_NAME>
1-[4-[4-[2-tert-butyl-6-(trifluoromethyl)pyrimidin-4-yl]piperazino]butyl]-4,5-dihydro-3H-1-benzazepin-2-one

> <PUBCHEM_IUPAC_INCHI>
InChI=1S/C27H36F3N5O/c1-26(2,3)25-31-22(27(28,29)30)19-23(32-25)34-17-15-33(16-18-34)13-6-7-14-35-21-11-5-4-9-20(21)10-8-12-24(35)36/h4-5,9,11,19H,6-8,10,12-18H2,1-3H3

> <PUBCHEM_IUPAC_INCHIKEY>
GTZSQZPMHIHCCP-UHFFFAOYSA-N

> <PUBCHEM_XLOGP3_AA>
5.2

> <PUBCHEM_EXACT_MASS>
503.28719528

> <PUBCHEM_MOLECULAR_FORMULA>
C27H36F3N5O

> <PUBCHEM_MOLECULAR_WEIGHT>
503.6

> <PUBCHEM_OPENEYE_CAN_SMILES>
CC(C)(C)C1=NC(=CC(=N1)N2CCN(CC2)CCCCN3C(=O)CCCC4=CC=CC=C43)C(F)(F)F

> <PUBCHEM_OPENEYE_ISO_SMILES>
CC(C)(C)C1=NC(=CC(=N1)N2CCN(CC2)CCCCN3C(=O)CCCC4=CC=CC=C43)C(F)(F)F

> <PUBCHEM_CACTVS_TPSA>
52.6

> <PUBCHEM_MONOISOTOPIC_WEIGHT>
503.28719528

> <PUBCHEM_TOTAL_CHARGE>
0

> <PUBCHEM_HEAVY_ATOM_COUNT>
36

> <PUBCHEM_ATOM_DEF_STEREO_COUNT>
0

> <PUBCHEM_ATOM_UDEF_STEREO_COUNT>
0

> <PUBCHEM_BOND_DEF_STEREO_COUNT>
0

> <PUBCHEM_BOND_UDEF_STEREO_COUNT>
0

> <PUBCHEM_ISOTOPIC_ATOM_COUNT>
0

> <PUBCHEM_COMPONENT_COUNT>
1

> <PUBCHEM_CACTVS_TAUTO_COUNT>
-1

> <PUBCHEM_COORDINATE_TYPE>
1
5
255

> <PUBCHEM_BONDANNOTATIONS>
18  27  8
19  23  8
19  32  8
23  33  8
27  28  8
32  34  8
33  35  8
34  35  8
8  18  8
8  26  8
9  26  8
9  28  8

$$$$
