44372009
  -OEChem-09292322182D

 52 56  0     0  0  0  0  0  0999 V2000
   11.8385    3.3304    0.0000 Cl  0  0  0  0  0  0  0  0  0  0  0  0
    5.9674    2.0930    0.0000 N   0  0  0  0  0  0  0  0  0  0  0  0
    7.9244    2.5055    0.0000 N   0  0  0  0  0  0  0  0  0  0  0  0
    3.7320   -0.3684    0.0000 N   0  0  0  0  0  0  0  0  0  0  0  0
    4.6783   -0.6732    0.0000 N   0  0  0  0  0  0  0  0  0  0  0  0
    6.6353    1.3487    0.0000 C   0  0  0  0  0  0  0  0  0  0  0  0
    6.2781    3.0436    0.0000 C   0  0  0  0  0  0  0  0  0  0  0  0
    7.6138    1.5550    0.0000 C   0  0  0  0  0  0  0  0  0  0  0  0
    7.2566    3.2498    0.0000 C   0  0  0  0  0  0  0  0  0  0  0  0
    4.9889    1.8868    0.0000 C   0  0  0  0  0  0  0  0  0  0  0  0
    4.6783    0.9363    0.0000 C   0  0  0  0  0  0  0  0  0  0  0  0
    8.9030    2.7117    0.0000 C   0  0  0  0  0  0  0  0  0  0  0  0
    3.7320    0.6316    0.0000 C   0  0  0  0  0  0  0  0  0  0  0  0
    5.2619    0.1316    0.0000 C   0  0  0  0  0  0  0  0  0  0  0  0
    9.2136    3.6622    0.0000 C   0  0  0  0  0  0  0  0  0  0  0  0
    9.5708    1.9674    0.0000 C   0  0  0  0  0  0  0  0  0  0  0  0
    2.8660   -0.8684    0.0000 C   0  0  0  0  0  0  0  0  0  0  0  0
    2.8660    1.1316    0.0000 C   0  0  0  0  0  0  0  0  0  0  0  0
    2.0000   -0.3684    0.0000 C   0  0  0  0  0  0  0  0  0  0  0  0
    2.0000    0.6316    0.0000 C   0  0  0  0  0  0  0  0  0  0  0  0
    2.8660   -1.8684    0.0000 C   0  0  0  0  0  0  0  0  0  0  0  0
   10.1921    3.8684    0.0000 C   0  0  0  0  0  0  0  0  0  0  0  0
   10.5493    2.1736    0.0000 C   0  0  0  0  0  0  0  0  0  0  0  0
   10.8600    3.1241    0.0000 C   0  0  0  0  0  0  0  0  0  0  0  0
    2.0000   -2.3684    0.0000 C   0  0  0  0  0  0  0  0  0  0  0  0
    3.7320   -2.3684    0.0000 C   0  0  0  0  0  0  0  0  0  0  0  0
    2.0000   -3.3684    0.0000 C   0  0  0  0  0  0  0  0  0  0  0  0
    3.7320   -3.3684    0.0000 C   0  0  0  0  0  0  0  0  0  0  0  0
    2.8660   -3.8684    0.0000 C   0  0  0  0  0  0  0  0  0  0  0  0
    6.1089    1.0211    0.0000 H   0  0  0  0  0  0  0  0  0  0  0  0
    6.8665    0.7735    0.0000 H   0  0  0  0  0  0  0  0  0  0  0  0
    6.2575    3.6632    0.0000 H   0  0  0  0  0  0  0  0  0  0  0  0
    5.6643    3.1309    0.0000 H   0  0  0  0  0  0  0  0  0  0  0  0
    7.6344    0.9353    0.0000 H   0  0  0  0  0  0  0  0  0  0  0  0
    8.2276    1.4676    0.0000 H   0  0  0  0  0  0  0  0  0  0  0  0
    7.7830    3.5774    0.0000 H   0  0  0  0  0  0  0  0  0  0  0  0
    7.0254    3.8250    0.0000 H   0  0  0  0  0  0  0  0  0  0  0  0
    4.9684    2.5065    0.0000 H   0  0  0  0  0  0  0  0  0  0  0  0
    4.3751    1.9742    0.0000 H   0  0  0  0  0  0  0  0  0  0  0  0
    5.8819    0.1316    0.0000 H   0  0  0  0  0  0  0  0  0  0  0  0
    8.7996    4.1237    0.0000 H   0  0  0  0  0  0  0  0  0  0  0  0
    9.3782    1.3781    0.0000 H   0  0  0  0  0  0  0  0  0  0  0  0
    2.8660    1.7516    0.0000 H   0  0  0  0  0  0  0  0  0  0  0  0
    1.4631   -0.6784    0.0000 H   0  0  0  0  0  0  0  0  0  0  0  0
    1.4631    0.9416    0.0000 H   0  0  0  0  0  0  0  0  0  0  0  0
   10.3847    4.4578    0.0000 H   0  0  0  0  0  0  0  0  0  0  0  0
   10.9634    1.7121    0.0000 H   0  0  0  0  0  0  0  0  0  0  0  0
    1.4631   -2.0584    0.0000 H   0  0  0  0  0  0  0  0  0  0  0  0
    4.2690   -2.0584    0.0000 H   0  0  0  0  0  0  0  0  0  0  0  0
    1.4631   -3.6784    0.0000 H   0  0  0  0  0  0  0  0  0  0  0  0
    4.2690   -3.6784    0.0000 H   0  0  0  0  0  0  0  0  0  0  0  0
    2.8660   -4.4884    0.0000 H   0  0  0  0  0  0  0  0  0  0  0  0
  1 24  1  0  0  0  0
  2  6  1  0  0  0  0
  2  7  1  0  0  0  0
  2 10  1  0  0  0  0
  3  8  1  0  0  0  0
  3  9  1  0  0  0  0
  3 12  1  0  0  0  0
  4  5  1  0  0  0  0
  4 13  1  0  0  0  0
  4 17  1  0  0  0  0
  5 14  2  0  0  0  0
  6  8  1  0  0  0  0
  6 30  1  0  0  0  0
  6 31  1  0  0  0  0
  7  9  1  0  0  0  0
  7 32  1  0  0  0  0
  7 33  1  0  0  0  0
  8 34  1  0  0  0  0
  8 35  1  0  0  0  0
  9 36  1  0  0  0  0
  9 37  1  0  0  0  0
 10 11  1  0  0  0  0
 10 38  1  0  0  0  0
 10 39  1  0  0  0  0
 11 13  2  0  0  0  0
 11 14  1  0  0  0  0
 12 15  2  0  0  0  0
 12 16  1  0  0  0  0
 13 18  1  0  0  0  0
 14 40  1  0  0  0  0
 15 22  1  0  0  0  0
 15 41  1  0  0  0  0
 16 23  2  0  0  0  0
 16 42  1  0  0  0  0
 17 19  2  0  0  0  0
 17 21  1  0  0  0  0
 18 20  2  0  0  0  0
 18 43  1  0  0  0  0
 19 20  1  0  0  0  0
 19 44  1  0  0  0  0
 20 45  1  0  0  0  0
 21 25  2  0  0  0  0
 21 26  1  0  0  0  0
 22 24  2  0  0  0  0
 22 46  1  0  0  0  0
 23 24  1  0  0  0  0
 23 47  1  0  0  0  0
 25 27  1  0  0  0  0
 25 48  1  0  0  0  0
 26 28  2  0  0  0  0
 26 49  1  0  0  0  0
 27 29  2  0  0  0  0
 27 50  1  0  0  0  0
 28 29  1  0  0  0  0
 28 51  1  0  0  0  0
 29 52  1  0  0  0  0
M  END
> <PUBCHEM_COMPOUND_CID>
44372009

> <PUBCHEM_COMPOUND_CANONICALIZED>
1

> <PUBCHEM_CACTVS_COMPLEXITY>
509

> <PUBCHEM_CACTVS_HBOND_ACCEPTOR>
3

> <PUBCHEM_CACTVS_HBOND_DONOR>
0

> <PUBCHEM_CACTVS_ROTATABLE_BOND>
4

> <PUBCHEM_CACTVS_SUBSKEYS>
AAADceB7gAAEAAAAAAAAAAAAAAAAAWAAAAA8eIEAAAAAAFgB9AAAHAIIAAAADArBHiQ8wLMIEACiAzRnRACShCAhhyAYmCA4ZpgIYOLB09GUpAhgiADIyAcQgMAOAABAAAAAAAAAAIAAAAAAAAAAAAAAAA==

> <PUBCHEM_IUPAC_OPENEYE_NAME>
3-[[4-(4-chlorophenyl)piperazin-1-yl]methyl]-7-phenyl-pyrazolo[1,5-a]pyridine

> <PUBCHEM_IUPAC_CAS_NAME>
3-[[4-(4-chlorophenyl)-1-piperazinyl]methyl]-7-phenylpyrazolo[1,5-a]pyridine

> <PUBCHEM_IUPAC_NAME_MARKUP>
3-[[4-(4-chlorophenyl)piperazin-1-yl]methyl]-7-phenylpyrazolo[1,5-a]pyridine

> <PUBCHEM_IUPAC_NAME>
3-[[4-(4-chlorophenyl)piperazin-1-yl]methyl]-7-phenylpyrazolo[1,5-a]pyridine

> <PUBCHEM_IUPAC_SYSTEMATIC_NAME>
3-[[4-(4-chlorophenyl)piperazin-1-yl]methyl]-7-phenyl-pyrazolo[1,5-a]pyridine

> <PUBCHEM_IUPAC_TRADITIONAL_NAME>
3-[[4-(4-chlorophenyl)piperazino]methyl]-7-phenyl-pyrazolo[1,5-a]pyridine

> <PUBCHEM_IUPAC_INCHI>
InChI=1S/C24H23ClN4/c25-21-9-11-22(12-10-21)28-15-13-27(14-16-28)18-20-17-26-29-23(7-4-8-24(20)29)19-5-2-1-3-6-19/h1-12,17H,13-16,18H2

> <PUBCHEM_IUPAC_INCHIKEY>
XDYCBVKXSXIDCW-UHFFFAOYSA-N

> <PUBCHEM_XLOGP3_AA>
4.8

> <PUBCHEM_EXACT_MASS>
402.1611244

> <PUBCHEM_MOLECULAR_FORMULA>
C24H23ClN4

> <PUBCHEM_MOLECULAR_WEIGHT>
402.9

> <PUBCHEM_OPENEYE_CAN_SMILES>
C1CN(CCN1CC2=C3C=CC=C(N3N=C2)C4=CC=CC=C4)C5=CC=C(C=C5)Cl

> <PUBCHEM_OPENEYE_ISO_SMILES>
C1CN(CCN1CC2=C3C=CC=C(N3N=C2)C4=CC=CC=C4)C5=CC=C(C=C5)Cl

> <PUBCHEM_CACTVS_TPSA>
23.8

> <PUBCHEM_MONOISOTOPIC_WEIGHT>
402.1611244

> <PUBCHEM_TOTAL_CHARGE>
0

> <PUBCHEM_HEAVY_ATOM_COUNT>
29

> <PUBCHEM_ATOM_DEF_STEREO_COUNT>
0

> <PUBCHEM_ATOM_UDEF_STEREO_COUNT>
0

> <PUBCHEM_BOND_DEF_STEREO_COUNT>
0

> <PUBCHEM_BOND_UDEF_STEREO_COUNT>
0

> <PUBCHEM_ISOTOPIC_ATOM_COUNT>
0

> <PUBCHEM_COMPONENT_COUNT>
1

> <PUBCHEM_CACTVS_TAUTO_COUNT>
-1

> <PUBCHEM_COORDINATE_TYPE>
1
5
255

> <PUBCHEM_BONDANNOTATIONS>
11  13  8
11  14  8
12  15  8
12  16  8
13  18  8
15  22  8
16  23  8
17  19  8
18  20  8
19  20  8
21  25  8
21  26  8
22  24  8
23  24  8
25  27  8
26  28  8
27  29  8
28  29  8
4  13  8
4  17  8
4  5  8
5  14  8

$$$$
