44406885
  -OEChem-09292322272D

 69 72  0     0  0  0  0  0  0999 V2000
    3.3660   -7.1401    0.0000 F   0  0  0  0  0  0  0  0  0  0  0  0
    2.0000   -6.7741    0.0000 F   0  0  0  0  0  0  0  0  0  0  0  0
    2.3660   -5.4081    0.0000 F   0  0  0  0  0  0  0  0  0  0  0  0
    8.0622    2.7259    0.0000 O   0  0  0  0  0  0  0  0  0  0  0  0
    4.5981   -1.2741    0.0000 N   0  0  0  0  0  0  0  0  0  0  0  0
    4.5981   -3.2741    0.0000 N   0  0  0  0  0  0  0  0  0  0  0  0
    6.3301    5.7259    0.0000 N   0  0  0  0  0  0  0  0  0  0  0  0
    6.3301    2.7259    0.0000 N   0  0  0  0  0  0  0  0  0  0  0  0
    5.4641   -4.7741    0.0000 N   0  0  0  0  0  0  0  0  0  0  0  0
    7.1962    4.2259    0.0000 N   0  0  0  0  0  0  0  0  0  0  0  0
    4.5981   -6.2741    0.0000 N   0  0  0  0  0  0  0  0  0  0  0  0
    3.7320   -1.7741    0.0000 C   0  0  0  0  0  0  0  0  0  0  0  0
    5.4641   -1.7741    0.0000 C   0  0  0  0  0  0  0  0  0  0  0  0
    3.7320   -2.7741    0.0000 C   0  0  0  0  0  0  0  0  0  0  0  0
    5.4641   -2.7741    0.0000 C   0  0  0  0  0  0  0  0  0  0  0  0
    4.5981   -0.2741    0.0000 C   0  0  0  0  0  0  0  0  0  0  0  0
    5.4641    0.2259    0.0000 C   0  0  0  0  0  0  0  0  0  0  0  0
    5.4641    1.2259    0.0000 C   0  0  0  0  0  0  0  0  0  0  0  0
    6.3301    7.1401    0.0000 C   0  0  0  0  0  0  0  0  0  0  0  0
    7.0372    6.4330    0.0000 C   0  0  0  0  0  0  0  0  0  0  0  0
    5.6230    6.4330    0.0000 C   0  0  0  0  0  0  0  0  0  0  0  0
    4.5981   -4.2741    0.0000 C   0  0  0  0  0  0  0  0  0  0  0  0
    6.3301    1.7259    0.0000 C   0  0  0  0  0  0  0  0  0  0  0  0
    6.3301   -6.2741    0.0000 C   0  0  0  0  0  0  0  0  0  0  0  0
    6.3301    4.7259    0.0000 C   0  0  0  0  0  0  0  0  0  0  0  0
    5.4641   -5.7741    0.0000 C   0  0  0  0  0  0  0  0  0  0  0  0
    3.7320   -4.7741    0.0000 C   0  0  0  0  0  0  0  0  0  0  0  0
    5.4641    4.2259    0.0000 C   0  0  0  0  0  0  0  0  0  0  0  0
    5.4641    3.2259    0.0000 C   0  0  0  0  0  0  0  0  0  0  0  0
    3.7320   -5.7741    0.0000 C   0  0  0  0  0  0  0  0  0  0  0  0
    7.1962    3.2259    0.0000 C   0  0  0  0  0  0  0  0  0  0  0  0
    7.1962   -6.7741    0.0000 C   0  0  0  0  0  0  0  0  0  0  0  0
    5.8301   -7.1401    0.0000 C   0  0  0  0  0  0  0  0  0  0  0  0
    6.8301   -5.4081    0.0000 C   0  0  0  0  0  0  0  0  0  0  0  0
    2.8660   -6.2741    0.0000 C   0  0  0  0  0  0  0  0  0  0  0  0
    3.5200   -1.1915    0.0000 H   0  0  0  0  0  0  0  0  0  0  0  0
    3.1215   -1.8818    0.0000 H   0  0  0  0  0  0  0  0  0  0  0  0
    6.0747   -1.8818    0.0000 H   0  0  0  0  0  0  0  0  0  0  0  0
    5.6762   -1.1915    0.0000 H   0  0  0  0  0  0  0  0  0  0  0  0
    3.1215   -2.6664    0.0000 H   0  0  0  0  0  0  0  0  0  0  0  0
    3.5200   -3.3567    0.0000 H   0  0  0  0  0  0  0  0  0  0  0  0
    5.6762   -3.3567    0.0000 H   0  0  0  0  0  0  0  0  0  0  0  0
    6.0747   -2.6664    0.0000 H   0  0  0  0  0  0  0  0  0  0  0  0
    4.3860    0.3085    0.0000 H   0  0  0  0  0  0  0  0  0  0  0  0
    3.9875   -0.3818    0.0000 H   0  0  0  0  0  0  0  0  0  0  0  0
    5.6762   -0.3567    0.0000 H   0  0  0  0  0  0  0  0  0  0  0  0
    6.0747    0.3336    0.0000 H   0  0  0  0  0  0  0  0  0  0  0  0
    5.2520    1.8085    0.0000 H   0  0  0  0  0  0  0  0  0  0  0  0
    4.8535    1.1182    0.0000 H   0  0  0  0  0  0  0  0  0  0  0  0
    6.7685    7.5785    0.0000 H   0  0  0  0  0  0  0  0  0  0  0  0
    5.8917    7.5785    0.0000 H   0  0  0  0  0  0  0  0  0  0  0  0
    7.4756    5.9946    0.0000 H   0  0  0  0  0  0  0  0  0  0  0  0
    7.4756    6.8714    0.0000 H   0  0  0  0  0  0  0  0  0  0  0  0
    5.1846    6.8714    0.0000 H   0  0  0  0  0  0  0  0  0  0  0  0
    5.1846    5.9946    0.0000 H   0  0  0  0  0  0  0  0  0  0  0  0
    6.5422    1.1433    0.0000 H   0  0  0  0  0  0  0  0  0  0  0  0
    6.9407    1.8336    0.0000 H   0  0  0  0  0  0  0  0  0  0  0  0
    3.1951   -4.4641    0.0000 H   0  0  0  0  0  0  0  0  0  0  0  0
    4.9272    4.5359    0.0000 H   0  0  0  0  0  0  0  0  0  0  0  0
    4.9272    2.9159    0.0000 H   0  0  0  0  0  0  0  0  0  0  0  0
    6.8862   -7.3110    0.0000 H   0  0  0  0  0  0  0  0  0  0  0  0
    7.7331   -7.0841    0.0000 H   0  0  0  0  0  0  0  0  0  0  0  0
    7.5062   -6.2372    0.0000 H   0  0  0  0  0  0  0  0  0  0  0  0
    5.2932   -6.8301    0.0000 H   0  0  0  0  0  0  0  0  0  0  0  0
    5.5201   -7.6771    0.0000 H   0  0  0  0  0  0  0  0  0  0  0  0
    6.3671   -7.4501    0.0000 H   0  0  0  0  0  0  0  0  0  0  0  0
    7.3671   -5.7181    0.0000 H   0  0  0  0  0  0  0  0  0  0  0  0
    7.1401   -4.8711    0.0000 H   0  0  0  0  0  0  0  0  0  0  0  0
    6.2932   -5.0981    0.0000 H   0  0  0  0  0  0  0  0  0  0  0  0
  1 35  1  0  0  0  0
  2 35  1  0  0  0  0
  3 35  1  0  0  0  0
  4 31  2  0  0  0  0
  5 12  1  0  0  0  0
  5 13  1  0  0  0  0
  5 16  1  0  0  0  0
  6 14  1  0  0  0  0
  6 15  1  0  0  0  0
  6 22  1  0  0  0  0
  7 20  1  0  0  0  0
  7 21  1  0  0  0  0
  7 25  1  0  0  0  0
  8 23  1  0  0  0  0
  8 29  1  0  0  0  0
  8 31  1  0  0  0  0
  9 22  2  0  0  0  0
  9 26  1  0  0  0  0
 10 25  2  0  0  0  0
 10 31  1  0  0  0  0
 11 26  2  0  0  0  0
 11 30  1  0  0  0  0
 12 14  1  0  0  0  0
 12 36  1  0  0  0  0
 12 37  1  0  0  0  0
 13 15  1  0  0  0  0
 13 38  1  0  0  0  0
 13 39  1  0  0  0  0
 14 40  1  0  0  0  0
 14 41  1  0  0  0  0
 15 42  1  0  0  0  0
 15 43  1  0  0  0  0
 16 17  1  0  0  0  0
 16 44  1  0  0  0  0
 16 45  1  0  0  0  0
 17 18  1  0  0  0  0
 17 46  1  0  0  0  0
 17 47  1  0  0  0  0
 18 23  1  0  0  0  0
 18 48  1  0  0  0  0
 18 49  1  0  0  0  0
 19 20  1  0  0  0  0
 19 21  1  0  0  0  0
 19 50  1  0  0  0  0
 19 51  1  0  0  0  0
 20 52  1  0  0  0  0
 20 53  1  0  0  0  0
 21 54  1  0  0  0  0
 21 55  1  0  0  0  0
 22 27  1  0  0  0  0
 23 56  1  0  0  0  0
 23 57  1  0  0  0  0
 24 26  1  0  0  0  0
 24 32  1  0  0  0  0
 24 33  1  0  0  0  0
 24 34  1  0  0  0  0
 25 28  1  0  0  0  0
 27 30  2  0  0  0  0
 27 58  1  0  0  0  0
 28 29  2  0  0  0  0
 28 59  1  0  0  0  0
 29 60  1  0  0  0  0
 30 35  1  0  0  0  0
 32 61  1  0  0  0  0
 32 62  1  0  0  0  0
 32 63  1  0  0  0  0
 33 64  1  0  0  0  0
 33 65  1  0  0  0  0
 33 66  1  0  0  0  0
 34 67  1  0  0  0  0
 34 68  1  0  0  0  0
 34 69  1  0  0  0  0
M  END
> <PUBCHEM_COMPOUND_CID>
44406885

> <PUBCHEM_COMPOUND_CANONICALIZED>
1

> <PUBCHEM_CACTVS_COMPLEXITY>
798

> <PUBCHEM_CACTVS_HBOND_ACCEPTOR>
8

> <PUBCHEM_CACTVS_HBOND_DONOR>
0

> <PUBCHEM_CACTVS_ROTATABLE_BOND>
8

> <PUBCHEM_CACTVS_SUBSKEYS>
AAADcfB7oYAAAAAAAAAAAAAAAABYAAAAAAAsWIAAAAAAAAABgAAAHwAAAAAADgjBFxQzsJcIEACoASZmdACAgCkhAqAJGCA4ZBiAaABAyMAUBAhIBgLAQCAAAAAAAAAAAAAAAAAAAAAAAAAAAAAAAAAAAA==

> <PUBCHEM_IUPAC_OPENEYE_NAME>
4-(azetidin-1-yl)-1-[4-[4-[2-tert-butyl-6-(trifluoromethyl)pyrimidin-4-yl]piperazin-1-yl]butyl]pyrimidin-2-one

> <PUBCHEM_IUPAC_CAS_NAME>
4-(1-azetidinyl)-1-[4-[4-[2-tert-butyl-6-(trifluoromethyl)-4-pyrimidinyl]-1-piperazinyl]butyl]-2-pyrimidinone

> <PUBCHEM_IUPAC_NAME_MARKUP>
4-(azetidin-1-yl)-1-[4-[4-[2-<I>tert</I>-butyl-6-(trifluoromethyl)pyrimidin-4-yl]piperazin-1-yl]butyl]pyrimidin-2-one

> <PUBCHEM_IUPAC_NAME>
4-(azetidin-1-yl)-1-[4-[4-[2-tert-butyl-6-(trifluoromethyl)pyrimidin-4-yl]piperazin-1-yl]butyl]pyrimidin-2-one

> <PUBCHEM_IUPAC_SYSTEMATIC_NAME>
4-(azetidin-1-yl)-1-[4-[4-[2-tert-butyl-6-(trifluoromethyl)pyrimidin-4-yl]piperazin-1-yl]butyl]pyrimidin-2-one

> <PUBCHEM_IUPAC_TRADITIONAL_NAME>
4-(azetidin-1-yl)-1-[4-[4-[2-tert-butyl-6-(trifluoromethyl)pyrimidin-4-yl]piperazino]butyl]pyrimidin-2-one

> <PUBCHEM_IUPAC_INCHI>
InChI=1S/C24H34F3N7O/c1-23(2,3)21-28-18(24(25,26)27)17-20(29-21)33-15-13-31(14-16-33)8-4-5-9-34-12-7-19(30-22(34)35)32-10-6-11-32/h7,12,17H,4-6,8-11,13-16H2,1-3H3

> <PUBCHEM_IUPAC_INCHIKEY>
KXNPPUPYHKPSNB-UHFFFAOYSA-N

> <PUBCHEM_XLOGP3_AA>
3.2

> <PUBCHEM_EXACT_MASS>
493.27769322

> <PUBCHEM_MOLECULAR_FORMULA>
C24H34F3N7O

> <PUBCHEM_MOLECULAR_WEIGHT>
493.6

> <PUBCHEM_OPENEYE_CAN_SMILES>
CC(C)(C)C1=NC(=CC(=N1)N2CCN(CC2)CCCCN3C=CC(=NC3=O)N4CCC4)C(F)(F)F

> <PUBCHEM_OPENEYE_ISO_SMILES>
CC(C)(C)C1=NC(=CC(=N1)N2CCN(CC2)CCCCN3C=CC(=NC3=O)N4CCC4)C(F)(F)F

> <PUBCHEM_CACTVS_TPSA>
68.2

> <PUBCHEM_MONOISOTOPIC_WEIGHT>
493.27769322

> <PUBCHEM_TOTAL_CHARGE>
0

> <PUBCHEM_HEAVY_ATOM_COUNT>
35

> <PUBCHEM_ATOM_DEF_STEREO_COUNT>
0

> <PUBCHEM_ATOM_UDEF_STEREO_COUNT>
0

> <PUBCHEM_BOND_DEF_STEREO_COUNT>
0

> <PUBCHEM_BOND_UDEF_STEREO_COUNT>
0

> <PUBCHEM_ISOTOPIC_ATOM_COUNT>
0

> <PUBCHEM_COMPONENT_COUNT>
1

> <PUBCHEM_CACTVS_TAUTO_COUNT>
-1

> <PUBCHEM_COORDINATE_TYPE>
1
5
255

> <PUBCHEM_BONDANNOTATIONS>
10  25  8
10  31  8
11  26  8
11  30  8
22  27  8
25  28  8
27  30  8
28  29  8
8  29  8
8  31  8
9  22  8
9  26  8

$$$$
