25069180
  -OEChem-09292322302D

 60 64  0     0  0  0  0  0  0999 V2000
    2.0000    4.3751    0.0000 F   0  0  0  0  0  0  0  0  0  0  0  0
    2.0000    6.3751    0.0000 F   0  0  0  0  0  0  0  0  0  0  0  0
    7.1430   -2.6791    0.0000 O   0  0  0  0  0  0  0  0  0  0  0  0
    8.3734   -6.4097    0.0000 O   0  0  0  0  0  0  0  0  0  0  0  0
    5.4573    1.3406    0.0000 N   0  0  0  0  0  0  0  0  0  0  0  0
    5.4804    3.3405    0.0000 N   0  0  0  0  0  0  0  0  0  0  0  0
   10.0372   -5.7877    0.0000 N   0  0  0  0  0  0  0  0  0  0  0  0
    4.5971    1.8506    0.0000 C   0  0  0  0  0  0  0  0  0  0  0  0
    6.3291    1.8306    0.0000 C   0  0  0  0  0  0  0  0  0  0  0  0
    4.6087    2.8505    0.0000 C   0  0  0  0  0  0  0  0  0  0  0  0
    6.3406    2.8305    0.0000 C   0  0  0  0  0  0  0  0  0  0  0  0
    5.4458    0.3407    0.0000 C   0  0  0  0  0  0  0  0  0  0  0  0
    6.3060   -0.1693    0.0000 C   0  0  0  0  0  0  0  0  0  0  0  0
    5.4920    4.3404    0.0000 C   0  0  0  0  0  0  0  0  0  0  0  0
    6.2944   -1.1692    0.0000 C   0  0  0  0  0  0  0  0  0  0  0  0
    4.5981    4.8751    0.0000 C   0  0  0  0  0  0  0  0  0  0  0  0
    6.3981    4.8543    0.0000 C   0  0  0  0  0  0  0  0  0  0  0  0
    7.1546   -1.6792    0.0000 C   0  0  0  0  0  0  0  0  0  0  0  0
    4.5981    5.8751    0.0000 C   0  0  0  0  0  0  0  0  0  0  0  0
    3.7320    4.3751    0.0000 C   0  0  0  0  0  0  0  0  0  0  0  0
    6.3981    5.8959    0.0000 C   0  0  0  0  0  0  0  0  0  0  0  0
    5.4920    6.4097    0.0000 C   0  0  0  0  0  0  0  0  0  0  0  0
    3.7320    6.3751    0.0000 C   0  0  0  0  0  0  0  0  0  0  0  0
    2.8660    4.8751    0.0000 C   0  0  0  0  0  0  0  0  0  0  0  0
    8.0032   -3.1891    0.0000 C   0  0  0  0  0  0  0  0  0  0  0  0
    2.8660    5.8751    0.0000 C   0  0  0  0  0  0  0  0  0  0  0  0
    9.7236   -4.2091    0.0000 C   0  0  0  0  0  0  0  0  0  0  0  0
    8.8518   -4.6990    0.0000 C   0  0  0  0  0  0  0  0  0  0  0  0
   10.4528   -4.8846    0.0000 C   0  0  0  0  0  0  0  0  0  0  0  0
    7.9916   -4.1891    0.0000 C   0  0  0  0  0  0  0  0  0  0  0  0
    8.8749   -2.6992    0.0000 C   0  0  0  0  0  0  0  0  0  0  0  0
    9.7351   -3.2092    0.0000 C   0  0  0  0  0  0  0  0  0  0  0  0
    9.0498   -5.6732    0.0000 C   0  0  0  0  0  0  0  0  0  0  0  0
    3.9878    1.9653    0.0000 H   0  0  0  0  0  0  0  0  0  0  0  0
    4.3784    1.2705    0.0000 H   0  0  0  0  0  0  0  0  0  0  0  0
    6.5344    1.2456    0.0000 H   0  0  0  0  0  0  0  0  0  0  0  0
    6.9409    1.9312    0.0000 H   0  0  0  0  0  0  0  0  0  0  0  0
    4.4034    3.4356    0.0000 H   0  0  0  0  0  0  0  0  0  0  0  0
    3.9969    2.7499    0.0000 H   0  0  0  0  0  0  0  0  0  0  0  0
    6.9499    2.7158    0.0000 H   0  0  0  0  0  0  0  0  0  0  0  0
    6.5594    3.4106    0.0000 H   0  0  0  0  0  0  0  0  0  0  0  0
    4.8365    0.4554    0.0000 H   0  0  0  0  0  0  0  0  0  0  0  0
    5.2270   -0.2394    0.0000 H   0  0  0  0  0  0  0  0  0  0  0  0
    6.9152   -0.2840    0.0000 H   0  0  0  0  0  0  0  0  0  0  0  0
    6.5247    0.4108    0.0000 H   0  0  0  0  0  0  0  0  0  0  0  0
    5.6851   -1.0545    0.0000 H   0  0  0  0  0  0  0  0  0  0  0  0
    6.0756   -1.7494    0.0000 H   0  0  0  0  0  0  0  0  0  0  0  0
    6.9338    4.5422    0.0000 H   0  0  0  0  0  0  0  0  0  0  0  0
    7.7639   -1.7939    0.0000 H   0  0  0  0  0  0  0  0  0  0  0  0
    7.3734   -1.0991    0.0000 H   0  0  0  0  0  0  0  0  0  0  0  0
    3.7320    3.7551    0.0000 H   0  0  0  0  0  0  0  0  0  0  0  0
    6.9338    6.2080    0.0000 H   0  0  0  0  0  0  0  0  0  0  0  0
    5.4848    7.0297    0.0000 H   0  0  0  0  0  0  0  0  0  0  0  0
    3.7320    6.9951    0.0000 H   0  0  0  0  0  0  0  0  0  0  0  0
   10.9857   -5.2016    0.0000 H   0  0  0  0  0  0  0  0  0  0  0  0
   10.8240   -4.3880    0.0000 H   0  0  0  0  0  0  0  0  0  0  0  0
    7.4512   -4.4928    0.0000 H   0  0  0  0  0  0  0  0  0  0  0  0
    8.8821   -2.0792    0.0000 H   0  0  0  0  0  0  0  0  0  0  0  0
   10.2756   -2.9054    0.0000 H   0  0  0  0  0  0  0  0  0  0  0  0
   10.3410   -6.3282    0.0000 H   0  0  0  0  0  0  0  0  0  0  0  0
  1 24  1  0  0  0  0
  2 26  1  0  0  0  0
  3 18  1  0  0  0  0
  3 25  1  0  0  0  0
  4 33  2  0  0  0  0
  5  8  1  0  0  0  0
  5  9  1  0  0  0  0
  5 12  1  0  0  0  0
  6 10  1  0  0  0  0
  6 11  1  0  0  0  0
  6 14  1  0  0  0  0
  7 29  1  0  0  0  0
  7 33  1  0  0  0  0
  7 60  1  0  0  0  0
  8 10  1  0  0  0  0
  8 34  1  0  0  0  0
  8 35  1  0  0  0  0
  9 11  1  0  0  0  0
  9 36  1  0  0  0  0
  9 37  1  0  0  0  0
 10 38  1  0  0  0  0
 10 39  1  0  0  0  0
 11 40  1  0  0  0  0
 11 41  1  0  0  0  0
 12 13  1  0  0  0  0
 12 42  1  0  0  0  0
 12 43  1  0  0  0  0
 13 15  1  0  0  0  0
 13 44  1  0  0  0  0
 13 45  1  0  0  0  0
 14 16  1  0  0  0  0
 14 17  2  0  0  0  0
 15 18  1  0  0  0  0
 15 46  1  0  0  0  0
 15 47  1  0  0  0  0
 16 19  1  0  0  0  0
 16 20  2  0  0  0  0
 17 21  1  0  0  0  0
 17 48  1  0  0  0  0
 18 49  1  0  0  0  0
 18 50  1  0  0  0  0
 19 22  1  0  0  0  0
 19 23  2  0  0  0  0
 20 24  1  0  0  0  0
 20 51  1  0  0  0  0
 21 22  2  0  0  0  0
 21 52  1  0  0  0  0
 22 53  1  0  0  0  0
 23 26  1  0  0  0  0
 23 54  1  0  0  0  0
 24 26  2  0  0  0  0
 25 30  2  0  0  0  0
 25 31  1  0  0  0  0
 27 28  2  0  0  0  0
 27 29  1  0  0  0  0
 27 32  1  0  0  0  0
 28 30  1  0  0  0  0
 28 33  1  0  0  0  0
 29 55  1  0  0  0  0
 29 56  1  0  0  0  0
 30 57  1  0  0  0  0
 31 32  2  0  0  0  0
 31 58  1  0  0  0  0
 32 59  1  0  0  0  0
M  END
> <PUBCHEM_COMPOUND_CID>
25069180

> <PUBCHEM_COMPOUND_CANONICALIZED>
1

> <PUBCHEM_CACTVS_COMPLEXITY>
659

> <PUBCHEM_CACTVS_HBOND_ACCEPTOR>
6

> <PUBCHEM_CACTVS_HBOND_DONOR>
1

> <PUBCHEM_CACTVS_ROTATABLE_BOND>
7

> <PUBCHEM_CACTVS_SUBSKEYS>
AAADceB7MYAAAAAAAAAAAAAAAAAAAWAAAAA8YMEAAAAAAFjBVAAAHwAQAAAADAzhmA4wxsPABACIAiVSUACCCAAlIgAIiIEObMgMZjLEtZuWOSjkxhHI6Ye+2JKOoAABQAASAABAAAKAACQAAAAAAAAAAA==

> <PUBCHEM_IUPAC_OPENEYE_NAME>
6-[4-[4-(6,7-difluoro-1-naphthyl)piperazin-1-yl]butoxy]isoindolin-1-one

> <PUBCHEM_IUPAC_CAS_NAME>
6-[4-[4-(6,7-difluoro-1-naphthalenyl)-1-piperazinyl]butoxy]-2,3-dihydroisoindol-1-one

> <PUBCHEM_IUPAC_NAME_MARKUP>
6-[4-[4-(6,7-difluoronaphthalen-1-yl)piperazin-1-yl]butoxy]-2,3-dihydroisoindol-1-one

> <PUBCHEM_IUPAC_NAME>
6-[4-[4-(6,7-difluoronaphthalen-1-yl)piperazin-1-yl]butoxy]-2,3-dihydroisoindol-1-one

> <PUBCHEM_IUPAC_SYSTEMATIC_NAME>
6-[4-[4-[6,7-bis(fluoranyl)naphthalen-1-yl]piperazin-1-yl]butoxy]-2,3-dihydroisoindol-1-one

> <PUBCHEM_IUPAC_TRADITIONAL_NAME>
6-[4-[4-(6,7-difluoro-1-naphthyl)piperazino]butoxy]isoindolin-1-one

> <PUBCHEM_IUPAC_INCHI>
InChI=1S/C26H27F2N3O2/c27-23-14-18-4-3-5-25(21(18)16-24(23)28)31-11-9-30(10-12-31)8-1-2-13-33-20-7-6-19-17-29-26(32)22(19)15-20/h3-7,14-16H,1-2,8-13,17H2,(H,29,32)

> <PUBCHEM_IUPAC_INCHIKEY>
BPPQBAPLPIUPNT-UHFFFAOYSA-N

> <PUBCHEM_XLOGP3_AA>
4.5

> <PUBCHEM_EXACT_MASS>
451.20713344

> <PUBCHEM_MOLECULAR_FORMULA>
C26H27F2N3O2

> <PUBCHEM_MOLECULAR_WEIGHT>
451.5

> <PUBCHEM_OPENEYE_CAN_SMILES>
C1CN(CCN1CCCCOC2=CC3=C(CNC3=O)C=C2)C4=CC=CC5=CC(=C(C=C54)F)F

> <PUBCHEM_OPENEYE_ISO_SMILES>
C1CN(CCN1CCCCOC2=CC3=C(CNC3=O)C=C2)C4=CC=CC5=CC(=C(C=C54)F)F

> <PUBCHEM_CACTVS_TPSA>
44.8

> <PUBCHEM_MONOISOTOPIC_WEIGHT>
451.20713344

> <PUBCHEM_TOTAL_CHARGE>
0

> <PUBCHEM_HEAVY_ATOM_COUNT>
33

> <PUBCHEM_ATOM_DEF_STEREO_COUNT>
0

> <PUBCHEM_ATOM_UDEF_STEREO_COUNT>
0

> <PUBCHEM_BOND_DEF_STEREO_COUNT>
0

> <PUBCHEM_BOND_UDEF_STEREO_COUNT>
0

> <PUBCHEM_ISOTOPIC_ATOM_COUNT>
0

> <PUBCHEM_COMPONENT_COUNT>
1

> <PUBCHEM_CACTVS_TAUTO_COUNT>
-1

> <PUBCHEM_COORDINATE_TYPE>
1
5
255

> <PUBCHEM_BONDANNOTATIONS>
14  16  8
14  17  8
16  19  8
16  20  8
17  21  8
19  22  8
19  23  8
20  24  8
21  22  8
23  26  8
24  26  8
25  30  8
25  31  8
27  28  8
27  32  8
28  30  8
31  32  8

$$$$
