162663054
  -OEChem-09292322422D

 61 63  0     1  0  0  0  0  0999 V2000
   14.3547    1.2740    0.0000 Cl  0  0  0  0  0  0  0  0  0  0  0  0
    4.0000   -2.3482    0.0000 O   0  0  0  0  0  0  0  0  0  0  0  0
    9.5000    0.2498    0.0000 N   0  0  3  0  0  0  0  0  0  0  0  0
    4.0000   -0.6162    0.0000 N   0  0  0  0  0  0  0  0  0  0  0  0
    2.5000   -1.4822    0.0000 N   0  0  0  0  0  0  0  0  0  0  0  0
    7.0000   -0.6162    0.0000 C   0  0  0  0  0  0  0  0  0  0  0  0
    6.5000    0.2498    0.0000 C   0  0  0  0  0  0  0  0  0  0  0  0
    6.5000   -1.4822    0.0000 C   0  0  0  0  0  0  0  0  0  0  0  0
    5.0000   -0.6162    0.0000 C   0  0  0  0  0  0  0  0  0  0  0  0
    5.5000    0.2498    0.0000 C   0  0  0  0  0  0  0  0  0  0  0  0
    5.5000   -1.4822    0.0000 C   0  0  0  0  0  0  0  0  0  0  0  0
    8.0000   -0.6162    0.0000 C   0  0  0  0  0  0  0  0  0  0  0  0
    8.5000    0.2498    0.0000 C   0  0  0  0  0  0  0  0  0  0  0  0
    9.9339    1.1508    0.0000 C   0  0  0  0  0  0  0  0  0  0  0  0
   10.9088    1.3733    0.0000 C   0  0  2  0  0  0  0  0  0  0  0  0
    9.9339   -0.6511    0.0000 C   0  0  0  0  0  0  0  0  0  0  0  0
   10.9088   -0.8737    0.0000 C   0  0  0  0  0  0  0  0  0  0  0  0
   11.6906    0.7498    0.0000 C   0  0  0  0  0  0  0  0  0  0  0  0
   11.6906   -0.2502    0.0000 C   0  0  0  0  0  0  0  0  0  0  0  0
   11.1313    2.3482    0.0000 C   0  0  0  0  0  0  0  0  0  0  0  0
    3.5000   -1.4822    0.0000 C   0  0  0  0  0  0  0  0  0  0  0  0
   12.5846    1.2845    0.0000 C   0  0  0  0  0  0  0  0  0  0  0  0
   12.5846   -0.7848    0.0000 C   0  0  0  0  0  0  0  0  0  0  0  0
   13.4907    0.7706    0.0000 C   0  0  0  0  0  0  0  0  0  0  0  0
   13.4907   -0.2710    0.0000 C   0  0  0  0  0  0  0  0  0  0  0  0
    2.0000   -2.3482    0.0000 C   0  0  0  0  0  0  0  0  0  0  0  0
    2.0000   -0.6162    0.0000 C   0  0  0  0  0  0  0  0  0  0  0  0
    7.3100   -0.0793    0.0000 H   0  0  0  0  0  0  0  0  0  0  0  0
    7.0826    0.4619    0.0000 H   0  0  0  0  0  0  0  0  0  0  0  0
    6.3923    0.8604    0.0000 H   0  0  0  0  0  0  0  0  0  0  0  0
    6.3923   -2.0928    0.0000 H   0  0  0  0  0  0  0  0  0  0  0  0
    7.0826   -1.6943    0.0000 H   0  0  0  0  0  0  0  0  0  0  0  0
    4.6900   -0.0793    0.0000 H   0  0  0  0  0  0  0  0  0  0  0  0
    5.6077    0.8604    0.0000 H   0  0  0  0  0  0  0  0  0  0  0  0
    4.9174    0.4619    0.0000 H   0  0  0  0  0  0  0  0  0  0  0  0
    4.9174   -1.6943    0.0000 H   0  0  0  0  0  0  0  0  0  0  0  0
    5.6077   -2.0928    0.0000 H   0  0  0  0  0  0  0  0  0  0  0  0
    7.8923   -1.2268    0.0000 H   0  0  0  0  0  0  0  0  0  0  0  0
    8.5826   -0.8282    0.0000 H   0  0  0  0  0  0  0  0  0  0  0  0
    8.6077    0.8604    0.0000 H   0  0  0  0  0  0  0  0  0  0  0  0
    7.9174    0.4619    0.0000 H   0  0  0  0  0  0  0  0  0  0  0  0
    9.9339    1.7708    0.0000 H   0  0  0  0  0  0  0  0  0  0  0  0
    9.3294    1.2888    0.0000 H   0  0  0  0  0  0  0  0  0  0  0  0
   11.4940    1.5781    0.0000 H   0  0  0  0  0  0  0  0  0  0  0  0
    9.3294   -0.7891    0.0000 H   0  0  0  0  0  0  0  0  0  0  0  0
    9.9339   -1.2711    0.0000 H   0  0  0  0  0  0  0  0  0  0  0  0
    3.6900   -0.0793    0.0000 H   0  0  0  0  0  0  0  0  0  0  0  0
   10.6398   -1.4323    0.0000 H   0  0  0  0  0  0  0  0  0  0  0  0
   11.3935   -1.2602    0.0000 H   0  0  0  0  0  0  0  0  0  0  0  0
   11.7358    2.2103    0.0000 H   0  0  0  0  0  0  0  0  0  0  0  0
   11.2693    2.9527    0.0000 H   0  0  0  0  0  0  0  0  0  0  0  0
   10.5269    2.4862    0.0000 H   0  0  0  0  0  0  0  0  0  0  0  0
   12.5774    1.9044    0.0000 H   0  0  0  0  0  0  0  0  0  0  0  0
   12.5774   -1.4048    0.0000 H   0  0  0  0  0  0  0  0  0  0  0  0
   14.0264   -0.5831    0.0000 H   0  0  0  0  0  0  0  0  0  0  0  0
    1.4631   -2.0382    0.0000 H   0  0  0  0  0  0  0  0  0  0  0  0
    1.6900   -2.8852    0.0000 H   0  0  0  0  0  0  0  0  0  0  0  0
    2.5369   -2.6582    0.0000 H   0  0  0  0  0  0  0  0  0  0  0  0
    2.5369   -0.3062    0.0000 H   0  0  0  0  0  0  0  0  0  0  0  0
    1.6900   -0.0793    0.0000 H   0  0  0  0  0  0  0  0  0  0  0  0
    1.4631   -0.9262    0.0000 H   0  0  0  0  0  0  0  0  0  0  0  0
  1 24  1  0  0  0  0
  2 21  2  0  0  0  0
  3 13  1  0  0  0  0
  3 14  1  0  0  0  0
  3 16  1  0  0  0  0
  4  9  1  0  0  0  0
  4 21  1  0  0  0  0
  4 47  1  0  0  0  0
  5 21  1  0  0  0  0
  5 26  1  0  0  0  0
  5 27  1  0  0  0  0
  6  7  1  0  0  0  0
  6  8  1  0  0  0  0
  6 12  1  0  0  0  0
  6 28  1  0  0  0  0
  7 10  1  0  0  0  0
  7 29  1  0  0  0  0
  7 30  1  0  0  0  0
  8 11  1  0  0  0  0
  8 31  1  0  0  0  0
  8 32  1  0  0  0  0
  9 10  1  0  0  0  0
  9 11  1  0  0  0  0
  9 33  1  0  0  0  0
 10 34  1  0  0  0  0
 10 35  1  0  0  0  0
 11 36  1  0  0  0  0
 11 37  1  0  0  0  0
 12 13  1  0  0  0  0
 12 38  1  0  0  0  0
 12 39  1  0  0  0  0
 13 40  1  0  0  0  0
 13 41  1  0  0  0  0
 14 15  1  0  0  0  0
 14 42  1  0  0  0  0
 14 43  1  0  0  0  0
 15 18  1  0  0  0  0
 15 20  1  1  0  0  0
 15 44  1  0  0  0  0
 16 17  1  0  0  0  0
 16 45  1  0  0  0  0
 16 46  1  0  0  0  0
 17 19  1  0  0  0  0
 17 48  1  0  0  0  0
 17 49  1  0  0  0  0
 18 19  2  0  0  0  0
 18 22  1  0  0  0  0
 19 23  1  0  0  0  0
 20 50  1  0  0  0  0
 20 51  1  0  0  0  0
 20 52  1  0  0  0  0
 22 24  2  0  0  0  0
 22 53  1  0  0  0  0
 23 25  2  0  0  0  0
 23 54  1  0  0  0  0
 24 25  1  0  0  0  0
 25 55  1  0  0  0  0
 26 56  1  0  0  0  0
 26 57  1  0  0  0  0
 26 58  1  0  0  0  0
 27 59  1  0  0  0  0
 27 60  1  0  0  0  0
 27 61  1  0  0  0  0
M  END
> <PUBCHEM_COMPOUND_CID>
162663054

> <PUBCHEM_COMPOUND_CANONICALIZED>
1

> <PUBCHEM_CACTVS_COMPLEXITY>
478

> <PUBCHEM_CACTVS_HBOND_ACCEPTOR>
2

> <PUBCHEM_CACTVS_HBOND_DONOR>
1

> <PUBCHEM_CACTVS_ROTATABLE_BOND>
4

> <PUBCHEM_CACTVS_SUBSKEYS>
AAADcfB7IAAEAAAAAAAAAAAAAAAAAAAAAAAwYAAABYAAAAABAAAAHgIQAAAADSrBGCQzAIPAAACIAiBCEAACAAAgBQAIiIAIAoiIICKBkxGEIAAolgKIiAcQgMAOhAAAIAAQAAAYAABAACAAAAAAAAAAAA==

> <PUBCHEM_IUPAC_OPENEYE_NAME>
3-[4-[2-[(5S)-7-chloro-5-methyl-1,2,4,5-tetrahydro-3-benzazepin-3-yl]ethyl]cyclohexyl]-1,1-dimethyl-urea

> <PUBCHEM_IUPAC_CAS_NAME>
3-[4-[2-[(5S)-7-chloro-5-methyl-1,2,4,5-tetrahydro-3-benzazepin-3-yl]ethyl]cyclohexyl]-1,1-dimethylurea

> <PUBCHEM_IUPAC_NAME_MARKUP>
3-[4-[2-[(5<I>S</I>)-7-chloro-5-methyl-1,2,4,5-tetrahydro-3-benzazepin-3-yl]ethyl]cyclohexyl]-1,1-dimethylurea

> <PUBCHEM_IUPAC_NAME>
3-[4-[2-[(5S)-7-chloro-5-methyl-1,2,4,5-tetrahydro-3-benzazepin-3-yl]ethyl]cyclohexyl]-1,1-dimethylurea

> <PUBCHEM_IUPAC_SYSTEMATIC_NAME>
3-[4-[2-[(5S)-7-chloranyl-5-methyl-1,2,4,5-tetrahydro-3-benzazepin-3-yl]ethyl]cyclohexyl]-1,1-dimethyl-urea

> <PUBCHEM_IUPAC_TRADITIONAL_NAME>
3-[4-[2-[(5S)-7-chloro-5-methyl-1,2,4,5-tetrahydro-3-benzazepin-3-yl]ethyl]cyclohexyl]-1,1-dimethyl-urea

> <PUBCHEM_IUPAC_INCHI>
InChI=1S/C22H34ClN3O/c1-16-15-26(13-11-18-6-7-19(23)14-21(16)18)12-10-17-4-8-20(9-5-17)24-22(27)25(2)3/h6-7,14,16-17,20H,4-5,8-13,15H2,1-3H3,(H,24,27)/t16-,17?,20?/m1/s1

> <PUBCHEM_IUPAC_INCHIKEY>
IDTLNOOYTVGUDL-ZRZPHAQCSA-N

> <PUBCHEM_XLOGP3_AA>
4.4

> <PUBCHEM_EXACT_MASS>
391.2390404

> <PUBCHEM_MOLECULAR_FORMULA>
C22H34ClN3O

> <PUBCHEM_MOLECULAR_WEIGHT>
392.0

> <PUBCHEM_OPENEYE_CAN_SMILES>
CC1CN(CCC2=C1C=C(C=C2)Cl)CCC3CCC(CC3)NC(=O)N(C)C

> <PUBCHEM_OPENEYE_ISO_SMILES>
C[C@@H]1CN(CCC2=C1C=C(C=C2)Cl)CCC3CCC(CC3)NC(=O)N(C)C

> <PUBCHEM_CACTVS_TPSA>
35.6

> <PUBCHEM_MONOISOTOPIC_WEIGHT>
391.2390404

> <PUBCHEM_TOTAL_CHARGE>
0

> <PUBCHEM_HEAVY_ATOM_COUNT>
27

> <PUBCHEM_ATOM_DEF_STEREO_COUNT>
1

> <PUBCHEM_ATOM_UDEF_STEREO_COUNT>
0

> <PUBCHEM_BOND_DEF_STEREO_COUNT>
0

> <PUBCHEM_BOND_UDEF_STEREO_COUNT>
0

> <PUBCHEM_ISOTOPIC_ATOM_COUNT>
0

> <PUBCHEM_COMPONENT_COUNT>
1

> <PUBCHEM_CACTVS_TAUTO_COUNT>
-1

> <PUBCHEM_COORDINATE_TYPE>
1
5
255

> <PUBCHEM_BONDANNOTATIONS>
15  20  5
18  19  8
18  22  8
19  23  8
22  24  8
23  25  8
24  25  8

$$$$
