155534225
  -OEChem-09292322092D

 49 51  0     0  0  0  0  0  0999 V2000
   10.0622    5.4820    0.0000 Cl  0  0  0  0  0  0  0  0  0  0  0  0
    2.0000   -5.4820    0.0000 F   0  0  0  0  0  0  0  0  0  0  0  0
    7.5622    2.8840    0.0000 O   0  0  0  0  0  0  0  0  0  0  0  0
    8.0622    0.0179    0.0000 N   0  0  0  0  0  0  0  0  0  0  0  0
    8.0622    2.0180    0.0000 C   0  0  0  0  0  0  0  0  0  0  0  0
    7.1962    1.5180    0.0000 C   0  0  0  0  0  0  0  0  0  0  0  0
    8.9282    1.5180    0.0000 C   0  0  0  0  0  0  0  0  0  0  0  0
    7.1962    0.5179    0.0000 C   0  0  0  0  0  0  0  0  0  0  0  0
    8.9282    0.5179    0.0000 C   0  0  0  0  0  0  0  0  0  0  0  0
    8.5622    2.8840    0.0000 C   0  0  0  0  0  0  0  0  0  0  0  0
    8.0622   -0.9821    0.0000 C   0  0  0  0  0  0  0  0  0  0  0  0
    7.1962   -1.4820    0.0000 C   0  0  0  0  0  0  0  0  0  0  0  0
    8.0622    3.7500    0.0000 C   0  0  0  0  0  0  0  0  0  0  0  0
    9.5622    2.8840    0.0000 C   0  0  0  0  0  0  0  0  0  0  0  0
    7.1962   -2.4820    0.0000 C   0  0  0  0  0  0  0  0  0  0  0  0
    8.5622    4.6160    0.0000 C   0  0  0  0  0  0  0  0  0  0  0  0
   10.0622    3.7500    0.0000 C   0  0  0  0  0  0  0  0  0  0  0  0
    9.5622    4.6160    0.0000 C   0  0  0  0  0  0  0  0  0  0  0  0
    6.3301   -2.9820    0.0000 C   0  0  0  0  0  0  0  0  0  0  0  0
    5.4641   -3.4820    0.0000 C   0  0  0  0  0  0  0  0  0  0  0  0
    4.5981   -3.9820    0.0000 C   0  0  0  0  0  0  0  0  0  0  0  0
    4.5981   -4.9820    0.0000 C   0  0  0  0  0  0  0  0  0  0  0  0
    3.7320   -3.4820    0.0000 C   0  0  0  0  0  0  0  0  0  0  0  0
    3.7320   -5.4820    0.0000 C   0  0  0  0  0  0  0  0  0  0  0  0
    2.8660   -3.9820    0.0000 C   0  0  0  0  0  0  0  0  0  0  0  0
    2.8660   -4.9820    0.0000 C   0  0  0  0  0  0  0  0  0  0  0  0
    6.9841    2.1006    0.0000 H   0  0  0  0  0  0  0  0  0  0  0  0
    6.5856    1.4103    0.0000 H   0  0  0  0  0  0  0  0  0  0  0  0
    9.5388    1.4103    0.0000 H   0  0  0  0  0  0  0  0  0  0  0  0
    9.1403    2.1006    0.0000 H   0  0  0  0  0  0  0  0  0  0  0  0
    6.5856    0.6256    0.0000 H   0  0  0  0  0  0  0  0  0  0  0  0
    6.9841   -0.0647    0.0000 H   0  0  0  0  0  0  0  0  0  0  0  0
    9.1403   -0.0647    0.0000 H   0  0  0  0  0  0  0  0  0  0  0  0
    9.5388    0.6256    0.0000 H   0  0  0  0  0  0  0  0  0  0  0  0
    8.2742   -1.5647    0.0000 H   0  0  0  0  0  0  0  0  0  0  0  0
    8.6728   -0.8744    0.0000 H   0  0  0  0  0  0  0  0  0  0  0  0
    6.9422    2.8840    0.0000 H   0  0  0  0  0  0  0  0  0  0  0  0
    6.9841   -0.8994    0.0000 H   0  0  0  0  0  0  0  0  0  0  0  0
    6.5856   -1.5897    0.0000 H   0  0  0  0  0  0  0  0  0  0  0  0
    7.4422    3.7500    0.0000 H   0  0  0  0  0  0  0  0  0  0  0  0
    9.8722    2.3470    0.0000 H   0  0  0  0  0  0  0  0  0  0  0  0
    7.4082   -3.0647    0.0000 H   0  0  0  0  0  0  0  0  0  0  0  0
    7.8067   -2.3744    0.0000 H   0  0  0  0  0  0  0  0  0  0  0  0
    8.2522    5.1530    0.0000 H   0  0  0  0  0  0  0  0  0  0  0  0
   10.6822    3.7500    0.0000 H   0  0  0  0  0  0  0  0  0  0  0  0
    5.1350   -5.2920    0.0000 H   0  0  0  0  0  0  0  0  0  0  0  0
    3.7320   -2.8620    0.0000 H   0  0  0  0  0  0  0  0  0  0  0  0
    3.7320   -6.1020    0.0000 H   0  0  0  0  0  0  0  0  0  0  0  0
    2.3291   -3.6720    0.0000 H   0  0  0  0  0  0  0  0  0  0  0  0
  1 18  1  0  0  0  0
  2 26  1  0  0  0  0
  3  5  1  0  0  0  0
  3 37  1  0  0  0  0
  4  8  1  0  0  0  0
  4  9  1  0  0  0  0
  4 11  1  0  0  0  0
  5  6  1  0  0  0  0
  5  7  1  0  0  0  0
  5 10  1  0  0  0  0
  6  8  1  0  0  0  0
  6 27  1  0  0  0  0
  6 28  1  0  0  0  0
  7  9  1  0  0  0  0
  7 29  1  0  0  0  0
  7 30  1  0  0  0  0
  8 31  1  0  0  0  0
  8 32  1  0  0  0  0
  9 33  1  0  0  0  0
  9 34  1  0  0  0  0
 10 13  2  0  0  0  0
 10 14  1  0  0  0  0
 11 12  1  0  0  0  0
 11 35  1  0  0  0  0
 11 36  1  0  0  0  0
 12 15  1  0  0  0  0
 12 38  1  0  0  0  0
 12 39  1  0  0  0  0
 13 16  1  0  0  0  0
 13 40  1  0  0  0  0
 14 17  2  0  0  0  0
 14 41  1  0  0  0  0
 15 19  1  0  0  0  0
 15 42  1  0  0  0  0
 15 43  1  0  0  0  0
 16 18  2  0  0  0  0
 16 44  1  0  0  0  0
 17 18  1  0  0  0  0
 17 45  1  0  0  0  0
 19 20  3  0  0  0  0
 20 21  1  0  0  0  0
 21 22  2  0  0  0  0
 21 23  1  0  0  0  0
 22 24  1  0  0  0  0
 22 46  1  0  0  0  0
 23 25  2  0  0  0  0
 23 47  1  0  0  0  0
 24 26  2  0  0  0  0
 24 48  1  0  0  0  0
 25 26  1  0  0  0  0
 25 49  1  0  0  0  0
M  END
> <PUBCHEM_COMPOUND_CID>
155534225

> <PUBCHEM_COMPOUND_CANONICALIZED>
1

> <PUBCHEM_CACTVS_COMPLEXITY>
489

> <PUBCHEM_CACTVS_HBOND_ACCEPTOR>
3

> <PUBCHEM_CACTVS_HBOND_DONOR>
1

> <PUBCHEM_CACTVS_ROTATABLE_BOND>
5

> <PUBCHEM_CACTVS_SUBSKEYS>
AAADceB6IQAEAAAAAAAAAAAAAAAAAAAAAAA8YIAAAAAAAAABQAAAHwIACAAADEbBmCwwAIMAAgDAEiBCAAgCAAAgBQAIiAAICogIJiKBkxCEcAAmwAGImAeQwOAOhAAAAAAAAAAIAAAAAAAAAAAAAAAAAA==

> <PUBCHEM_IUPAC_OPENEYE_NAME>
4-(4-chlorophenyl)-1-[5-(4-fluorophenyl)pent-4-ynyl]piperidin-4-ol

> <PUBCHEM_IUPAC_CAS_NAME>
4-(4-chlorophenyl)-1-[5-(4-fluorophenyl)pent-4-ynyl]-4-piperidinol

> <PUBCHEM_IUPAC_NAME_MARKUP>
4-(4-chlorophenyl)-1-[5-(4-fluorophenyl)pent-4-ynyl]piperidin-4-ol

> <PUBCHEM_IUPAC_NAME>
4-(4-chlorophenyl)-1-[5-(4-fluorophenyl)pent-4-ynyl]piperidin-4-ol

> <PUBCHEM_IUPAC_SYSTEMATIC_NAME>
4-(4-chlorophenyl)-1-[5-(4-fluorophenyl)pent-4-ynyl]piperidin-4-ol

> <PUBCHEM_IUPAC_TRADITIONAL_NAME>
4-(4-chlorophenyl)-1-[5-(4-fluorophenyl)pent-4-ynyl]piperidin-4-ol

> <PUBCHEM_IUPAC_INCHI>
InChI=1S/C22H23ClFNO/c23-20-9-7-19(8-10-20)22(26)13-16-25(17-14-22)15-3-1-2-4-18-5-11-21(24)12-6-18/h5-12,26H,1,3,13-17H2

> <PUBCHEM_IUPAC_INCHIKEY>
SOPRISPDLYSDTL-UHFFFAOYSA-N

> <PUBCHEM_XLOGP3_AA>
4.9

> <PUBCHEM_EXACT_MASS>
371.1452202

> <PUBCHEM_MOLECULAR_FORMULA>
C22H23ClFNO

> <PUBCHEM_MOLECULAR_WEIGHT>
371.9

> <PUBCHEM_OPENEYE_CAN_SMILES>
C1CN(CCC1(C2=CC=C(C=C2)Cl)O)CCCC#CC3=CC=C(C=C3)F

> <PUBCHEM_OPENEYE_ISO_SMILES>
C1CN(CCC1(C2=CC=C(C=C2)Cl)O)CCCC#CC3=CC=C(C=C3)F

> <PUBCHEM_CACTVS_TPSA>
23.5

> <PUBCHEM_MONOISOTOPIC_WEIGHT>
371.1452202

> <PUBCHEM_TOTAL_CHARGE>
0

> <PUBCHEM_HEAVY_ATOM_COUNT>
26

> <PUBCHEM_ATOM_DEF_STEREO_COUNT>
0

> <PUBCHEM_ATOM_UDEF_STEREO_COUNT>
0

> <PUBCHEM_BOND_DEF_STEREO_COUNT>
0

> <PUBCHEM_BOND_UDEF_STEREO_COUNT>
0

> <PUBCHEM_ISOTOPIC_ATOM_COUNT>
0

> <PUBCHEM_COMPONENT_COUNT>
1

> <PUBCHEM_CACTVS_TAUTO_COUNT>
-1

> <PUBCHEM_COORDINATE_TYPE>
1
5
255

> <PUBCHEM_BONDANNOTATIONS>
10  13  8
10  14  8
13  16  8
14  17  8
16  18  8
17  18  8
21  22  8
21  23  8
22  24  8
23  25  8
24  26  8
25  26  8

$$$$
