20035572
  -OEChem-09292322492D

 45 49  0     1  0  0  0  0  0999 V2000
    6.9654    1.1660    0.0000 N   0  0  3  0  0  0  0  0  0  0  0  0
    4.5124    0.0485    0.0000 N   0  0  0  0  0  0  0  0  0  0  0  0
    6.2962    0.4228    0.0000 C   0  0  3  0  0  0  0  0  0  0  0  0
    6.6028   -0.5727    0.0000 C   0  0  0  0  0  0  0  0  0  0  0  0
    5.3181    0.6307    0.0000 C   0  0  0  0  0  0  0  0  0  0  0  0
    7.9875    0.9651    0.0000 C   0  0  0  0  0  0  0  0  0  0  0  0
    6.6564    2.1170    0.0000 C   0  0  0  0  0  0  0  0  0  0  0  0
    7.6200   -0.7971    0.0000 C   0  0  0  0  0  0  0  0  0  0  0  0
    5.0091    1.5818    0.0000 C   0  0  0  0  0  0  0  0  0  0  0  0
    8.3170   -0.0230    0.0000 C   0  0  0  0  0  0  0  0  0  0  0  0
    5.6782    2.3250    0.0000 C   0  0  0  0  0  0  0  0  0  0  0  0
    5.9216   -0.5044    0.0000 C   0  0  0  0  0  0  0  0  0  0  0  0
    4.0150    1.5792    0.0000 C   0  0  0  0  0  0  0  0  0  0  0  0
    3.7086    0.6335    0.0000 C   0  0  0  0  0  0  0  0  0  0  0  0
    6.5374   -1.2924    0.0000 C   0  0  0  0  0  0  0  0  0  0  0  0
    4.9313   -0.6435    0.0000 C   0  0  0  0  0  0  0  0  0  0  0  0
    3.3334    2.3587    0.0000 C   0  0  0  0  0  0  0  0  0  0  0  0
    2.6994    0.4018    0.0000 C   0  0  0  0  0  0  0  0  0  0  0  0
    6.1627   -2.2196    0.0000 C   0  0  0  0  0  0  0  0  0  0  0  0
    4.5567   -1.5707    0.0000 C   0  0  0  0  0  0  0  0  0  0  0  0
    2.3191    2.1504    0.0000 C   0  0  0  0  0  0  0  0  0  0  0  0
    2.0000    1.1653    0.0000 C   0  0  0  0  0  0  0  0  0  0  0  0
    5.1724   -2.3587    0.0000 C   0  0  0  0  0  0  0  0  0  0  0  0
    5.9878   -0.6511    0.0000 H   0  0  0  0  0  0  0  0  0  0  0  0
    6.5748   -1.1920    0.0000 H   0  0  0  0  0  0  0  0  0  0  0  0
    8.6005    1.0577    0.0000 H   0  0  0  0  0  0  0  0  0  0  0  0
    8.0011    1.5850    0.0000 H   0  0  0  0  0  0  0  0  0  0  0  0
    7.2703    2.2033    0.0000 H   0  0  0  0  0  0  0  0  0  0  0  0
    6.6780    2.7367    0.0000 H   0  0  0  0  0  0  0  0  0  0  0  0
    7.3848   -1.3707    0.0000 H   0  0  0  0  0  0  0  0  0  0  0  0
    8.1449   -1.1270    0.0000 H   0  0  0  0  0  0  0  0  0  0  0  0
    8.6999   -0.5106    0.0000 H   0  0  0  0  0  0  0  0  0  0  0  0
    8.8629    0.2709    0.0000 H   0  0  0  0  0  0  0  0  0  0  0  0
    5.9105    2.8998    0.0000 H   0  0  0  0  0  0  0  0  0  0  0  0
    5.1524    2.6535    0.0000 H   0  0  0  0  0  0  0  0  0  0  0  0
    4.2015   -0.4879    0.0000 H   0  0  0  0  0  0  0  0  0  0  0  0
    7.1513   -1.2060    0.0000 H   0  0  0  0  0  0  0  0  0  0  0  0
    4.5496   -0.1549    0.0000 H   0  0  0  0  0  0  0  0  0  0  0  0
    3.5313    2.9463    0.0000 H   0  0  0  0  0  0  0  0  0  0  0  0
    2.5152   -0.1902    0.0000 H   0  0  0  0  0  0  0  0  0  0  0  0
    6.5444   -2.7081    0.0000 H   0  0  0  0  0  0  0  0  0  0  0  0
    3.9428   -1.6570    0.0000 H   0  0  0  0  0  0  0  0  0  0  0  0
    1.9056    2.6124    0.0000 H   0  0  0  0  0  0  0  0  0  0  0  0
    1.3942    1.0336    0.0000 H   0  0  0  0  0  0  0  0  0  0  0  0
    4.9402   -2.9336    0.0000 H   0  0  0  0  0  0  0  0  0  0  0  0
  1  3  1  0  0  0  0
  1  6  1  0  0  0  0
  1  7  1  0  0  0  0
  2  5  1  0  0  0  0
  2 14  1  0  0  0  0
  2 36  1  0  0  0  0
  3  4  1  0  0  0  0
  3  5  1  0  0  0  0
  3 12  1  0  0  0  0
  4  8  1  0  0  0  0
  4 24  1  0  0  0  0
  4 25  1  0  0  0  0
  5  9  2  0  0  0  0
  6 10  1  0  0  0  0
  6 26  1  0  0  0  0
  6 27  1  0  0  0  0
  7 11  1  0  0  0  0
  7 28  1  0  0  0  0
  7 29  1  0  0  0  0
  8 10  1  0  0  0  0
  8 30  1  0  0  0  0
  8 31  1  0  0  0  0
  9 11  1  0  0  0  0
  9 13  1  0  0  0  0
 10 32  1  0  0  0  0
 10 33  1  0  0  0  0
 11 34  1  0  0  0  0
 11 35  1  0  0  0  0
 12 15  2  0  0  0  0
 12 16  1  0  0  0  0
 13 14  1  0  0  0  0
 13 17  2  0  0  0  0
 14 18  2  0  0  0  0
 15 19  1  0  0  0  0
 15 37  1  0  0  0  0
 16 20  2  0  0  0  0
 16 38  1  0  0  0  0
 17 21  1  0  0  0  0
 17 39  1  0  0  0  0
 18 22  1  0  0  0  0
 18 40  1  0  0  0  0
 19 23  2  0  0  0  0
 19 41  1  0  0  0  0
 20 23  1  0  0  0  0
 20 42  1  0  0  0  0
 21 22  2  0  0  0  0
 21 43  1  0  0  0  0
 22 44  1  0  0  0  0
 23 45  1  0  0  0  0
M  END
> <PUBCHEM_COMPOUND_CID>
20035572

> <PUBCHEM_COMPOUND_CANONICALIZED>
1

> <PUBCHEM_CACTVS_COMPLEXITY>
430

> <PUBCHEM_CACTVS_HBOND_ACCEPTOR>
1

> <PUBCHEM_CACTVS_HBOND_DONOR>
1

> <PUBCHEM_CACTVS_ROTATABLE_BOND>
1

> <PUBCHEM_CACTVS_SUBSKEYS>
AAADceB7AAAAAAAAAAAAAAAAAAAAAWAAAAA8eIEAAAAAAFix9AAAHAAQAAAADIjBHgQwwPPJkACgAyRiRACCgCAhAiAImSA4ZJgIYOLAkZGUIAhgkADIyAcQgMAOgAAAAAACAAAAAAAAAAQAAAAAAAAAAA==

> <PUBCHEM_IUPAC_OPENEYE_NAME>
12b-phenyl-2,3,4,6,7,12-hexahydro-1H-indolo[2,3-a]quinolizine

> <PUBCHEM_IUPAC_CAS_NAME>
12b-phenyl-2,3,4,6,7,12-hexahydro-1H-indolo[2,3-a]quinolizine

> <PUBCHEM_IUPAC_NAME_MARKUP>
12<I>b</I>-phenyl-2,3,4,6,7,12-hexahydro-1<I>H</I>-indolo[2,3-a]quinolizine

> <PUBCHEM_IUPAC_NAME>
12b-phenyl-2,3,4,6,7,12-hexahydro-1H-indolo[2,3-a]quinolizine

> <PUBCHEM_IUPAC_SYSTEMATIC_NAME>
12b-phenyl-2,3,4,6,7,12-hexahydro-1H-indolo[2,3-a]quinolizine

> <PUBCHEM_IUPAC_TRADITIONAL_NAME>
12b-phenyl-2,3,4,6,7,12-hexahydro-1H-pyrido[2,1-a]beta-carboline

> <PUBCHEM_IUPAC_INCHI>
InChI=1S/C21H22N2/c1-2-8-16(9-3-1)21-13-6-7-14-23(21)15-12-18-17-10-4-5-11-19(17)22-20(18)21/h1-5,8-11,22H,6-7,12-15H2

> <PUBCHEM_IUPAC_INCHIKEY>
WAEHSRNKOQVNHT-UHFFFAOYSA-N

> <PUBCHEM_XLOGP3_AA>
4.3

> <PUBCHEM_EXACT_MASS>
302.178298710

> <PUBCHEM_MOLECULAR_FORMULA>
C21H22N2

> <PUBCHEM_MOLECULAR_WEIGHT>
302.4

> <PUBCHEM_OPENEYE_CAN_SMILES>
C1CCN2CCC3=C(C2(C1)C4=CC=CC=C4)NC5=CC=CC=C35

> <PUBCHEM_OPENEYE_ISO_SMILES>
C1CCN2CCC3=C(C2(C1)C4=CC=CC=C4)NC5=CC=CC=C35

> <PUBCHEM_CACTVS_TPSA>
19

> <PUBCHEM_MONOISOTOPIC_WEIGHT>
302.178298710

> <PUBCHEM_TOTAL_CHARGE>
0

> <PUBCHEM_HEAVY_ATOM_COUNT>
23

> <PUBCHEM_ATOM_DEF_STEREO_COUNT>
0

> <PUBCHEM_ATOM_UDEF_STEREO_COUNT>
1

> <PUBCHEM_BOND_DEF_STEREO_COUNT>
0

> <PUBCHEM_BOND_UDEF_STEREO_COUNT>
0

> <PUBCHEM_ISOTOPIC_ATOM_COUNT>
0

> <PUBCHEM_COMPONENT_COUNT>
1

> <PUBCHEM_CACTVS_TAUTO_COUNT>
-1

> <PUBCHEM_COORDINATE_TYPE>
1
5
255

> <PUBCHEM_BONDANNOTATIONS>
12  15  8
12  16  8
13  14  8
13  17  8
14  18  8
15  19  8
16  20  8
17  21  8
18  22  8
19  23  8
2  14  8
2  5  8
20  23  8
21  22  8
3  12  3
5  9  8
9  13  8

$$$$
