117871054
  -OEChem-09292322352D

 72 76  0     0  0  0  0  0  0999 V2000
    6.7619    2.9641    0.0000 O   0  0  0  0  0  0  0  0  0  0  0  0
   12.7619   -0.5000    0.0000 N   0  0  0  0  0  0  0  0  0  0  0  0
   10.7619   -0.5000    0.0000 N   0  0  0  0  0  0  0  0  0  0  0  0
   15.7619   -0.5000    0.0000 N   0  0  0  0  0  0  0  0  0  0  0  0
   14.2619   -1.3660    0.0000 N   0  0  0  0  0  0  0  0  0  0  0  0
    6.7619    1.2320    0.0000 N   0  0  0  0  0  0  0  0  0  0  0  0
    3.7320    2.5981    0.0000 N   0  0  0  0  0  0  0  0  0  0  0  0
    4.6783    1.2933    0.0000 N   0  0  0  0  0  0  0  0  0  0  0  0
   15.7619    1.2320    0.0000 C   0  0  0  0  0  0  0  0  0  0  0  0
   15.7619    2.2320    0.0000 C   0  0  0  0  0  0  0  0  0  0  0  0
   16.6279    1.7320    0.0000 C   0  0  0  0  0  0  0  0  0  0  0  0
   15.2619    0.3660    0.0000 C   0  0  0  0  0  0  0  0  0  0  0  0
   14.2619    0.3660    0.0000 C   0  0  0  0  0  0  0  0  0  0  0  0
   13.7619   -0.5000    0.0000 C   0  0  0  0  0  0  0  0  0  0  0  0
   12.2619   -1.3660    0.0000 C   0  0  0  0  0  0  0  0  0  0  0  0
   12.2619    0.3660    0.0000 C   0  0  0  0  0  0  0  0  0  0  0  0
   11.2619   -1.3660    0.0000 C   0  0  0  0  0  0  0  0  0  0  0  0
   11.2619    0.3660    0.0000 C   0  0  0  0  0  0  0  0  0  0  0  0
   15.2619   -1.3660    0.0000 C   0  0  0  0  0  0  0  0  0  0  0  0
   15.7619   -2.2320    0.0000 C   0  0  0  0  0  0  0  0  0  0  0  0
    9.7619   -0.5000    0.0000 C   0  0  0  0  0  0  0  0  0  0  0  0
    9.2619    0.3660    0.0000 C   0  0  0  0  0  0  0  0  0  0  0  0
   16.2619   -3.0981    0.0000 C   0  0  0  0  0  0  0  0  0  0  0  0
   16.6279   -1.7320    0.0000 C   0  0  0  0  0  0  0  0  0  0  0  0
   14.8959   -2.7320    0.0000 C   0  0  0  0  0  0  0  0  0  0  0  0
    8.2619    0.3660    0.0000 C   0  0  0  0  0  0  0  0  0  0  0  0
    7.7619    1.2320    0.0000 C   0  0  0  0  0  0  0  0  0  0  0  0
    6.2619    2.0981    0.0000 C   0  0  0  0  0  0  0  0  0  0  0  0
    5.2619    2.0981    0.0000 C   0  0  0  0  0  0  0  0  0  0  0  0
    4.6783    2.9028    0.0000 C   0  0  0  0  0  0  0  0  0  0  0  0
    3.7320    1.5981    0.0000 C   0  0  0  0  0  0  0  0  0  0  0  0
    2.8660    3.0981    0.0000 C   0  0  0  0  0  0  0  0  0  0  0  0
    2.8660    1.0981    0.0000 C   0  0  0  0  0  0  0  0  0  0  0  0
    2.0000    2.5981    0.0000 C   0  0  0  0  0  0  0  0  0  0  0  0
    2.0000    1.5981    0.0000 C   0  0  0  0  0  0  0  0  0  0  0  0
   16.2003    0.7936    0.0000 H   0  0  0  0  0  0  0  0  0  0  0  0
   15.9739    2.8147    0.0000 H   0  0  0  0  0  0  0  0  0  0  0  0
   15.1513    2.3397    0.0000 H   0  0  0  0  0  0  0  0  0  0  0  0
   17.0264    1.2571    0.0000 H   0  0  0  0  0  0  0  0  0  0  0  0
   17.0264    2.2070    0.0000 H   0  0  0  0  0  0  0  0  0  0  0  0
   13.9519    0.9030    0.0000 H   0  0  0  0  0  0  0  0  0  0  0  0
   12.1542   -1.9766    0.0000 H   0  0  0  0  0  0  0  0  0  0  0  0
   12.8445   -1.5781    0.0000 H   0  0  0  0  0  0  0  0  0  0  0  0
   12.8445    0.5781    0.0000 H   0  0  0  0  0  0  0  0  0  0  0  0
   12.1542    0.9766    0.0000 H   0  0  0  0  0  0  0  0  0  0  0  0
   10.6793   -1.5781    0.0000 H   0  0  0  0  0  0  0  0  0  0  0  0
   11.3695   -1.9766    0.0000 H   0  0  0  0  0  0  0  0  0  0  0  0
   11.3695    0.9766    0.0000 H   0  0  0  0  0  0  0  0  0  0  0  0
   10.6793    0.5781    0.0000 H   0  0  0  0  0  0  0  0  0  0  0  0
    9.1793   -0.7121    0.0000 H   0  0  0  0  0  0  0  0  0  0  0  0
    9.8695   -1.1106    0.0000 H   0  0  0  0  0  0  0  0  0  0  0  0
    9.8445    0.5781    0.0000 H   0  0  0  0  0  0  0  0  0  0  0  0
    9.1542    0.9766    0.0000 H   0  0  0  0  0  0  0  0  0  0  0  0
   15.7249   -3.4081    0.0000 H   0  0  0  0  0  0  0  0  0  0  0  0
   16.5719   -3.6350    0.0000 H   0  0  0  0  0  0  0  0  0  0  0  0
   16.7988   -2.7881    0.0000 H   0  0  0  0  0  0  0  0  0  0  0  0
   16.9379   -2.2690    0.0000 H   0  0  0  0  0  0  0  0  0  0  0  0
   17.1648   -1.4220    0.0000 H   0  0  0  0  0  0  0  0  0  0  0  0
   16.3179   -1.1951    0.0000 H   0  0  0  0  0  0  0  0  0  0  0  0
   14.5859   -2.1951    0.0000 H   0  0  0  0  0  0  0  0  0  0  0  0
   14.3589   -3.0420    0.0000 H   0  0  0  0  0  0  0  0  0  0  0  0
   15.2059   -3.2690    0.0000 H   0  0  0  0  0  0  0  0  0  0  0  0
    7.6793    0.1540    0.0000 H   0  0  0  0  0  0  0  0  0  0  0  0
    8.3695   -0.2446    0.0000 H   0  0  0  0  0  0  0  0  0  0  0  0
    8.3445    1.4441    0.0000 H   0  0  0  0  0  0  0  0  0  0  0  0
    7.6542    1.8426    0.0000 H   0  0  0  0  0  0  0  0  0  0  0  0
    6.4519    0.6951    0.0000 H   0  0  0  0  0  0  0  0  0  0  0  0
    4.8709    3.4921    0.0000 H   0  0  0  0  0  0  0  0  0  0  0  0
    2.8660    3.7181    0.0000 H   0  0  0  0  0  0  0  0  0  0  0  0
    2.8660    0.4781    0.0000 H   0  0  0  0  0  0  0  0  0  0  0  0
    1.4631    2.9081    0.0000 H   0  0  0  0  0  0  0  0  0  0  0  0
    1.4631    1.2881    0.0000 H   0  0  0  0  0  0  0  0  0  0  0  0
  1 28  2  0  0  0  0
  2 14  1  0  0  0  0
  2 15  1  0  0  0  0
  2 16  1  0  0  0  0
  3 17  1  0  0  0  0
  3 18  1  0  0  0  0
  3 21  1  0  0  0  0
  4 12  1  0  0  0  0
  4 19  2  0  0  0  0
  5 14  2  0  0  0  0
  5 19  1  0  0  0  0
  6 27  1  0  0  0  0
  6 28  1  0  0  0  0
  6 67  1  0  0  0  0
  7 30  1  0  0  0  0
  7 31  1  0  0  0  0
  7 32  1  0  0  0  0
  8 29  1  0  0  0  0
  8 31  2  0  0  0  0
  9 10  1  0  0  0  0
  9 11  1  0  0  0  0
  9 12  1  0  0  0  0
  9 36  1  0  0  0  0
 10 11  1  0  0  0  0
 10 37  1  0  0  0  0
 10 38  1  0  0  0  0
 11 39  1  0  0  0  0
 11 40  1  0  0  0  0
 12 13  2  0  0  0  0
 13 14  1  0  0  0  0
 13 41  1  0  0  0  0
 15 17  1  0  0  0  0
 15 42  1  0  0  0  0
 15 43  1  0  0  0  0
 16 18  1  0  0  0  0
 16 44  1  0  0  0  0
 16 45  1  0  0  0  0
 17 46  1  0  0  0  0
 17 47  1  0  0  0  0
 18 48  1  0  0  0  0
 18 49  1  0  0  0  0
 19 20  1  0  0  0  0
 20 23  1  0  0  0  0
 20 24  1  0  0  0  0
 20 25  1  0  0  0  0
 21 22  1  0  0  0  0
 21 50  1  0  0  0  0
 21 51  1  0  0  0  0
 22 26  1  0  0  0  0
 22 52  1  0  0  0  0
 22 53  1  0  0  0  0
 23 54  1  0  0  0  0
 23 55  1  0  0  0  0
 23 56  1  0  0  0  0
 24 57  1  0  0  0  0
 24 58  1  0  0  0  0
 24 59  1  0  0  0  0
 25 60  1  0  0  0  0
 25 61  1  0  0  0  0
 25 62  1  0  0  0  0
 26 27  1  0  0  0  0
 26 63  1  0  0  0  0
 26 64  1  0  0  0  0
 27 65  1  0  0  0  0
 27 66  1  0  0  0  0
 28 29  1  0  0  0  0
 29 30  2  0  0  0  0
 30 68  1  0  0  0  0
 31 33  1  0  0  0  0
 32 34  2  0  0  0  0
 32 69  1  0  0  0  0
 33 35  2  0  0  0  0
 33 70  1  0  0  0  0
 34 35  1  0  0  0  0
 34 71  1  0  0  0  0
 35 72  1  0  0  0  0
M  END
> <PUBCHEM_COMPOUND_CID>
117871054

> <PUBCHEM_COMPOUND_CANONICALIZED>
1

> <PUBCHEM_CACTVS_COMPLEXITY>
700

> <PUBCHEM_CACTVS_HBOND_ACCEPTOR>
6

> <PUBCHEM_CACTVS_HBOND_DONOR>
1

> <PUBCHEM_CACTVS_ROTATABLE_BOND>
9

> <PUBCHEM_CACTVS_SUBSKEYS>
AAADcfB7oAAAAAAAAAAAAAAAGAAAAWAAAAAsWLAAAAAAAFgB+AAAHgAQAAAADwjBlwQ/sJ/MGACoATd3dACCgC03EqAJ2KG4dNiIaOrA2fGUJIholgLIyOcQAAAMAAAAAAAAAAAAAAAAAAAAAAAAAAAAAA==

> <PUBCHEM_IUPAC_OPENEYE_NAME>
N-[4-[4-(2-tert-butyl-6-cyclopropyl-pyrimidin-4-yl)piperazin-1-yl]butyl]imidazo[1,2-a]pyridine-2-carboxamide

> <PUBCHEM_IUPAC_CAS_NAME>
N-[4-[4-(2-tert-butyl-6-cyclopropyl-4-pyrimidinyl)-1-piperazinyl]butyl]-2-imidazo[1,2-a]pyridinecarboxamide

> <PUBCHEM_IUPAC_NAME_MARKUP>
<I>N</I>-[4-[4-(2-<I>tert</I>-butyl-6-cyclopropylpyrimidin-4-yl)piperazin-1-yl]butyl]imidazo[1,2-a]pyridine-2-carboxamide

> <PUBCHEM_IUPAC_NAME>
N-[4-[4-(2-tert-butyl-6-cyclopropylpyrimidin-4-yl)piperazin-1-yl]butyl]imidazo[1,2-a]pyridine-2-carboxamide

> <PUBCHEM_IUPAC_SYSTEMATIC_NAME>
N-[4-[4-(2-tert-butyl-6-cyclopropyl-pyrimidin-4-yl)piperazin-1-yl]butyl]imidazo[1,2-a]pyridine-2-carboxamide

> <PUBCHEM_IUPAC_TRADITIONAL_NAME>
N-[4-[4-(2-tert-butyl-6-cyclopropyl-pyrimidin-4-yl)piperazino]butyl]imidazo[1,2-a]pyridine-2-carboxamide

> <PUBCHEM_IUPAC_INCHI>
InChI=1S/C27H37N7O/c1-27(2,3)26-30-21(20-9-10-20)18-24(31-26)33-16-14-32(15-17-33)12-7-5-11-28-25(35)22-19-34-13-6-4-8-23(34)29-22/h4,6,8,13,18-20H,5,7,9-12,14-17H2,1-3H3,(H,28,35)

> <PUBCHEM_IUPAC_INCHIKEY>
QSQIAXNZWRLSSO-UHFFFAOYSA-N

> <PUBCHEM_XLOGP3_AA>
4.6

> <PUBCHEM_EXACT_MASS>
475.30595883

> <PUBCHEM_MOLECULAR_FORMULA>
C27H37N7O

> <PUBCHEM_MOLECULAR_WEIGHT>
475.6

> <PUBCHEM_OPENEYE_CAN_SMILES>
CC(C)(C)C1=NC(=CC(=N1)N2CCN(CC2)CCCCNC(=O)C3=CN4C=CC=CC4=N3)C5CC5

> <PUBCHEM_OPENEYE_ISO_SMILES>
CC(C)(C)C1=NC(=CC(=N1)N2CCN(CC2)CCCCNC(=O)C3=CN4C=CC=CC4=N3)C5CC5

> <PUBCHEM_CACTVS_TPSA>
78.7

> <PUBCHEM_MONOISOTOPIC_WEIGHT>
475.30595883

> <PUBCHEM_TOTAL_CHARGE>
0

> <PUBCHEM_HEAVY_ATOM_COUNT>
35

> <PUBCHEM_ATOM_DEF_STEREO_COUNT>
0

> <PUBCHEM_ATOM_UDEF_STEREO_COUNT>
0

> <PUBCHEM_BOND_DEF_STEREO_COUNT>
0

> <PUBCHEM_BOND_UDEF_STEREO_COUNT>
0

> <PUBCHEM_ISOTOPIC_ATOM_COUNT>
0

> <PUBCHEM_COMPONENT_COUNT>
1

> <PUBCHEM_CACTVS_TAUTO_COUNT>
-1

> <PUBCHEM_COORDINATE_TYPE>
1
5
255

> <PUBCHEM_BONDANNOTATIONS>
12  13  8
13  14  8
29  30  8
31  33  8
32  34  8
33  35  8
34  35  8
4  12  8
4  19  8
5  14  8
5  19  8
7  30  8
7  31  8
7  32  8
8  29  8
8  31  8

$$$$
