127047230
  -OEChem-09292322002D

 57 61  0     1  0  0  0  0  0999 V2000
    4.8714    6.2537    0.0000 O   0  0  0  0  0  0  0  0  0  0  0  0
    9.8009   -3.5755    0.0000 O   0  0  0  0  0  0  0  0  0  0  0  0
    9.8622   -1.4919    0.0000 O   0  0  0  0  0  0  0  0  0  0  0  0
    4.6660    4.5081    0.0000 N   0  0  0  0  0  0  0  0  0  0  0  0
    6.3981    2.5081    0.0000 N   0  0  3  0  0  0  0  0  0  0  0  0
    3.3073    5.4520    0.0000 N   0  0  0  0  0  0  0  0  0  0  0  0
    8.1301   -1.4919    0.0000 N   0  0  0  0  0  0  0  0  0  0  0  0
    5.5321    3.0081    0.0000 C   0  0  1  0  0  0  0  0  0  0  0  0
    5.5321    4.0081    0.0000 C   0  0  0  0  0  0  0  0  0  0  0  0
    4.6660    2.5081    0.0000 C   0  0  0  0  0  0  0  0  0  0  0  0
    3.8000    4.0081    0.0000 C   0  0  0  0  0  0  0  0  0  0  0  0
    3.8000    3.0081    0.0000 C   0  0  0  0  0  0  0  0  0  0  0  0
    6.3981    1.5081    0.0000 C   0  0  0  0  0  0  0  0  0  0  0  0
    2.9061    4.5428    0.0000 C   0  0  0  0  0  0  0  0  0  0  0  0
    4.3009    5.4325    0.0000 C   0  0  0  0  0  0  0  0  0  0  0  0
    7.2641    1.0081    0.0000 C   0  0  0  0  0  0  0  0  0  0  0  0
    2.9061    2.4735    0.0000 C   0  0  0  0  0  0  0  0  0  0  0  0
    7.2641    3.0081    0.0000 C   0  0  0  0  0  0  0  0  0  0  0  0
    2.0000    4.0290    0.0000 C   0  0  0  0  0  0  0  0  0  0  0  0
    7.2641    0.0081    0.0000 C   0  0  0  0  0  0  0  0  0  0  0  0
    2.0000    2.9873    0.0000 C   0  0  0  0  0  0  0  0  0  0  0  0
    8.1301   -0.4919    0.0000 C   0  0  0  0  0  0  0  0  0  0  0  0
    8.9962   -1.9919    0.0000 C   0  0  0  0  0  0  0  0  0  0  0  0
    8.9962   -2.9919    0.0000 C   0  0  0  0  0  0  0  0  0  0  0  0
    8.1914   -3.5755    0.0000 C   0  0  0  0  0  0  0  0  0  0  0  0
    8.4962   -4.5217    0.0000 C   0  0  0  0  0  0  0  0  0  0  0  0
    9.4962   -4.5217    0.0000 C   0  0  0  0  0  0  0  0  0  0  0  0
    7.9962   -5.3877    0.0000 C   0  0  0  0  0  0  0  0  0  0  0  0
    9.9962   -5.3877    0.0000 C   0  0  0  0  0  0  0  0  0  0  0  0
    8.4962   -6.2537    0.0000 C   0  0  0  0  0  0  0  0  0  0  0  0
    9.4962   -6.2537    0.0000 C   0  0  0  0  0  0  0  0  0  0  0  0
    5.5321    2.3881    0.0000 H   0  0  0  0  0  0  0  0  0  0  0  0
    6.1426    3.9005    0.0000 H   0  0  0  0  0  0  0  0  0  0  0  0
    5.7441    4.5908    0.0000 H   0  0  0  0  0  0  0  0  0  0  0  0
    4.2675    2.0332    0.0000 H   0  0  0  0  0  0  0  0  0  0  0  0
    5.0646    2.0332    0.0000 H   0  0  0  0  0  0  0  0  0  0  0  0
    5.7875    1.6158    0.0000 H   0  0  0  0  0  0  0  0  0  0  0  0
    6.1860    0.9255    0.0000 H   0  0  0  0  0  0  0  0  0  0  0  0
    7.8747    0.9005    0.0000 H   0  0  0  0  0  0  0  0  0  0  0  0
    7.4762    1.5908    0.0000 H   0  0  0  0  0  0  0  0  0  0  0  0
    2.9132    1.8535    0.0000 H   0  0  0  0  0  0  0  0  0  0  0  0
    7.5741    2.4712    0.0000 H   0  0  0  0  0  0  0  0  0  0  0  0
    7.8010    3.3181    0.0000 H   0  0  0  0  0  0  0  0  0  0  0  0
    6.9541    3.5451    0.0000 H   0  0  0  0  0  0  0  0  0  0  0  0
    2.9739    5.9748    0.0000 H   0  0  0  0  0  0  0  0  0  0  0  0
    1.4643    4.3410    0.0000 H   0  0  0  0  0  0  0  0  0  0  0  0
    6.6535    0.1158    0.0000 H   0  0  0  0  0  0  0  0  0  0  0  0
    7.0521   -0.5745    0.0000 H   0  0  0  0  0  0  0  0  0  0  0  0
    1.4643    2.6753    0.0000 H   0  0  0  0  0  0  0  0  0  0  0  0
    8.7407   -0.5995    0.0000 H   0  0  0  0  0  0  0  0  0  0  0  0
    8.3422    0.0907    0.0000 H   0  0  0  0  0  0  0  0  0  0  0  0
    7.5932   -1.8019    0.0000 H   0  0  0  0  0  0  0  0  0  0  0  0
    7.6021   -3.3829    0.0000 H   0  0  0  0  0  0  0  0  0  0  0  0
    7.3762   -5.3877    0.0000 H   0  0  0  0  0  0  0  0  0  0  0  0
   10.6162   -5.3877    0.0000 H   0  0  0  0  0  0  0  0  0  0  0  0
    8.1862   -6.7907    0.0000 H   0  0  0  0  0  0  0  0  0  0  0  0
    9.8062   -6.7907    0.0000 H   0  0  0  0  0  0  0  0  0  0  0  0
  1 15  2  0  0  0  0
  2 24  1  0  0  0  0
  2 27  1  0  0  0  0
  3 23  2  0  0  0  0
  4  9  1  0  0  0  0
  4 11  1  0  0  0  0
  4 15  1  0  0  0  0
  8  5  1  6  0  0  0
  5 13  1  0  0  0  0
  5 18  1  0  0  0  0
  6 14  1  0  0  0  0
  6 15  1  0  0  0  0
  6 45  1  0  0  0  0
  7 22  1  0  0  0  0
  7 23  1  0  0  0  0
  7 52  1  0  0  0  0
  8  9  1  0  0  0  0
  8 10  1  0  0  0  0
  8 32  1  0  0  0  0
  9 33  1  0  0  0  0
  9 34  1  0  0  0  0
 10 12  1  0  0  0  0
 10 35  1  0  0  0  0
 10 36  1  0  0  0  0
 11 12  2  0  0  0  0
 11 14  1  0  0  0  0
 12 17  1  0  0  0  0
 13 16  1  0  0  0  0
 13 37  1  0  0  0  0
 13 38  1  0  0  0  0
 14 19  2  0  0  0  0
 16 20  1  0  0  0  0
 16 39  1  0  0  0  0
 16 40  1  0  0  0  0
 17 21  2  0  0  0  0
 17 41  1  0  0  0  0
 18 42  1  0  0  0  0
 18 43  1  0  0  0  0
 18 44  1  0  0  0  0
 19 21  1  0  0  0  0
 19 46  1  0  0  0  0
 20 22  1  0  0  0  0
 20 47  1  0  0  0  0
 20 48  1  0  0  0  0
 21 49  1  0  0  0  0
 22 50  1  0  0  0  0
 22 51  1  0  0  0  0
 23 24  1  0  0  0  0
 24 25  2  0  0  0  0
 25 26  1  0  0  0  0
 25 53  1  0  0  0  0
 26 27  1  0  0  0  0
 26 28  2  0  0  0  0
 27 29  2  0  0  0  0
 28 30  1  0  0  0  0
 28 54  1  0  0  0  0
 29 31  1  0  0  0  0
 29 55  1  0  0  0  0
 30 31  2  0  0  0  0
 30 56  1  0  0  0  0
 31 57  1  0  0  0  0
M  END
> <PUBCHEM_COMPOUND_CID>
127047230

> <PUBCHEM_COMPOUND_CANONICALIZED>
1

> <PUBCHEM_CACTVS_COMPLEXITY>
673

> <PUBCHEM_CACTVS_HBOND_ACCEPTOR>
4

> <PUBCHEM_CACTVS_HBOND_DONOR>
2

> <PUBCHEM_CACTVS_ROTATABLE_BOND>
7

> <PUBCHEM_CACTVS_SUBSKEYS>
AAADceB7sAAAAAAAAAAAAAAAAAAAAWJAAAA8YIAAAAAAAFix9AAAHgAQAAAADCzBmAQzxsPABECIAqVSUAKCCAAlIgAIiIHOfMiOZjLEtb+XOSjs1hPY6aeY36LuAAAAQAAKACAAAACAABQAQAAAAAAAAA==

> <PUBCHEM_IUPAC_OPENEYE_NAME>
N-[4-[methyl-[(10R)-2-oxo-1,3-diazatricyclo[6.3.1.04,12]dodeca-4,6,8(12)-trien-10-yl]amino]butyl]benzofuran-2-carboxamide

> <PUBCHEM_IUPAC_CAS_NAME>
N-[4-[methyl-[(10R)-2-oxo-1,3-diazatricyclo[6.3.1.04,12]dodeca-4,6,8(12)-trien-10-yl]amino]butyl]-2-benzofurancarboxamide

> <PUBCHEM_IUPAC_NAME_MARKUP>
<I>N</I>-[4-[methyl-[(10<I>R</I>)-2-oxo-1,3-diazatricyclo[6.3.1.0<SUP>4,12</SUP>]dodeca-4,6,8(12)-trien-10-yl]amino]butyl]-1-benzofuran-2-carboxamide

> <PUBCHEM_IUPAC_NAME>
N-[4-[methyl-[(10R)-2-oxo-1,3-diazatricyclo[6.3.1.04,12]dodeca-4,6,8(12)-trien-10-yl]amino]butyl]-1-benzofuran-2-carboxamide

> <PUBCHEM_IUPAC_SYSTEMATIC_NAME>
N-[4-[methyl-[(10R)-2-oxidanylidene-1,3-diazatricyclo[6.3.1.04,12]dodeca-4,6,8(12)-trien-10-yl]amino]butyl]-1-benzofuran-2-carboxamide

> <PUBCHEM_IUPAC_TRADITIONAL_NAME>
N-[4-[[(10R)-2-keto-1,3-diazatricyclo[6.3.1.04,12]dodeca-4,6,8(12)-trien-10-yl]-methyl-amino]butyl]coumarilamide

> <PUBCHEM_IUPAC_INCHI>
InChI=1S/C24H26N4O3/c1-27(18-13-17-8-6-9-19-22(17)28(15-18)24(30)26-19)12-5-4-11-25-23(29)21-14-16-7-2-3-10-20(16)31-21/h2-3,6-10,14,18H,4-5,11-13,15H2,1H3,(H,25,29)(H,26,30)/t18-/m1/s1

> <PUBCHEM_IUPAC_INCHIKEY>
FGHOMVBEDZJTLR-GOSISDBHSA-N

> <PUBCHEM_XLOGP3_AA>
3.3

> <PUBCHEM_EXACT_MASS>
418.20049070

> <PUBCHEM_MOLECULAR_FORMULA>
C24H26N4O3

> <PUBCHEM_MOLECULAR_WEIGHT>
418.5

> <PUBCHEM_OPENEYE_CAN_SMILES>
CN(CCCCNC(=O)C1=CC2=CC=CC=C2O1)C3CC4=C5C(=CC=C4)NC(=O)N5C3

> <PUBCHEM_OPENEYE_ISO_SMILES>
CN(CCCCNC(=O)C1=CC2=CC=CC=C2O1)[C@@H]3CC4=C5C(=CC=C4)NC(=O)N5C3

> <PUBCHEM_CACTVS_TPSA>
77.8

> <PUBCHEM_MONOISOTOPIC_WEIGHT>
418.20049070

> <PUBCHEM_TOTAL_CHARGE>
0

> <PUBCHEM_HEAVY_ATOM_COUNT>
31

> <PUBCHEM_ATOM_DEF_STEREO_COUNT>
1

> <PUBCHEM_ATOM_UDEF_STEREO_COUNT>
0

> <PUBCHEM_BOND_DEF_STEREO_COUNT>
0

> <PUBCHEM_BOND_UDEF_STEREO_COUNT>
0

> <PUBCHEM_ISOTOPIC_ATOM_COUNT>
0

> <PUBCHEM_COMPONENT_COUNT>
1

> <PUBCHEM_CACTVS_TAUTO_COUNT>
-1

> <PUBCHEM_COORDINATE_TYPE>
1
5
255

> <PUBCHEM_BONDANNOTATIONS>
11  12  8
11  14  8
12  17  8
14  19  8
17  21  8
19  21  8
2  24  8
2  27  8
24  25  8
25  26  8
26  27  8
26  28  8
27  29  8
28  30  8
29  31  8
30  31  8
4  11  8
4  15  8
8  5  6
6  14  8
6  15  8

$$$$
