72736197
  -OEChem-09292322012D

 50 52  0     1  0  0  0  0  0999 V2000
   11.5942    0.0427    0.0000 O   0  0  0  0  0  0  0  0  0  0  0  0
    5.5321    0.5427    0.0000 N   0  0  3  0  0  0  0  0  0  0  0  0
   10.7282   -1.4573    0.0000 N   0  0  0  0  0  0  0  0  0  0  0  0
    8.1301    0.0427    0.0000 C   0  0  0  0  0  0  0  0  0  0  0  0
    8.9962    0.5427    0.0000 C   0  0  0  0  0  0  0  0  0  0  0  0
    8.1301   -0.9573    0.0000 C   0  0  0  0  0  0  0  0  0  0  0  0
    9.8622   -0.9573    0.0000 C   0  0  0  0  0  0  0  0  0  0  0  0
    9.8622    0.0427    0.0000 C   0  0  0  0  0  0  0  0  0  0  0  0
    8.9962   -1.4573    0.0000 C   0  0  0  0  0  0  0  0  0  0  0  0
    7.2641    0.5427    0.0000 C   0  0  0  0  0  0  0  0  0  0  0  0
    6.3981    0.0427    0.0000 C   0  0  0  0  0  0  0  0  0  0  0  0
    5.5321    1.5427    0.0000 C   0  0  0  0  0  0  0  0  0  0  0  0
    4.6660    0.0427    0.0000 C   0  0  0  0  0  0  0  0  0  0  0  0
    4.6660    2.0427    0.0000 C   0  0  0  0  0  0  0  0  0  0  0  0
    3.8000    0.5427    0.0000 C   0  0  0  0  0  0  0  0  0  0  0  0
    3.8000    1.5427    0.0000 C   0  0  0  0  0  0  0  0  0  0  0  0
   11.5942   -0.9573    0.0000 C   0  0  0  0  0  0  0  0  0  0  0  0
    2.9061    0.0080    0.0000 C   0  0  0  0  0  0  0  0  0  0  0  0
    2.9061    2.0773    0.0000 C   0  0  0  0  0  0  0  0  0  0  0  0
   12.4603   -1.4573    0.0000 C   0  0  0  0  0  0  0  0  0  0  0  0
    2.0000    0.5219    0.0000 C   0  0  0  0  0  0  0  0  0  0  0  0
    2.0000    1.5635    0.0000 C   0  0  0  0  0  0  0  0  0  0  0  0
    7.5932   -0.2673    0.0000 H   0  0  0  0  0  0  0  0  0  0  0  0
    9.3947    1.0176    0.0000 H   0  0  0  0  0  0  0  0  0  0  0  0
    8.5976    1.0176    0.0000 H   0  0  0  0  0  0  0  0  0  0  0  0
    7.5196   -0.8497    0.0000 H   0  0  0  0  0  0  0  0  0  0  0  0
    7.9181   -1.5399    0.0000 H   0  0  0  0  0  0  0  0  0  0  0  0
    9.8622   -1.5773    0.0000 H   0  0  0  0  0  0  0  0  0  0  0  0
   10.4728   -0.0650    0.0000 H   0  0  0  0  0  0  0  0  0  0  0  0
   10.0742    0.6253    0.0000 H   0  0  0  0  0  0  0  0  0  0  0  0
    8.5976   -1.9323    0.0000 H   0  0  0  0  0  0  0  0  0  0  0  0
    9.3947   -1.9323    0.0000 H   0  0  0  0  0  0  0  0  0  0  0  0
    7.6626    1.0176    0.0000 H   0  0  0  0  0  0  0  0  0  0  0  0
    6.8656    1.0176    0.0000 H   0  0  0  0  0  0  0  0  0  0  0  0
    5.9996   -0.4323    0.0000 H   0  0  0  0  0  0  0  0  0  0  0  0
    6.7966   -0.4323    0.0000 H   0  0  0  0  0  0  0  0  0  0  0  0
   10.7282   -2.0773    0.0000 H   0  0  0  0  0  0  0  0  0  0  0  0
    6.1426    1.4350    0.0000 H   0  0  0  0  0  0  0  0  0  0  0  0
    5.7441    2.1253    0.0000 H   0  0  0  0  0  0  0  0  0  0  0  0
    4.2675   -0.4323    0.0000 H   0  0  0  0  0  0  0  0  0  0  0  0
    5.0646   -0.4323    0.0000 H   0  0  0  0  0  0  0  0  0  0  0  0
    5.0646    2.5176    0.0000 H   0  0  0  0  0  0  0  0  0  0  0  0
    4.2675    2.5176    0.0000 H   0  0  0  0  0  0  0  0  0  0  0  0
    2.9132   -0.6120    0.0000 H   0  0  0  0  0  0  0  0  0  0  0  0
    2.9132    2.6973    0.0000 H   0  0  0  0  0  0  0  0  0  0  0  0
    1.4643    0.2098    0.0000 H   0  0  0  0  0  0  0  0  0  0  0  0
   12.1503   -1.9943    0.0000 H   0  0  0  0  0  0  0  0  0  0  0  0
   12.9972   -1.7673    0.0000 H   0  0  0  0  0  0  0  0  0  0  0  0
   12.7703   -0.9204    0.0000 H   0  0  0  0  0  0  0  0  0  0  0  0
    1.4643    1.8756    0.0000 H   0  0  0  0  0  0  0  0  0  0  0  0
  1 17  2  0  0  0  0
  2 11  1  0  0  0  0
  2 12  1  0  0  0  0
  2 13  1  0  0  0  0
  3  7  1  0  0  0  0
  3 17  1  0  0  0  0
  3 37  1  0  0  0  0
  4  5  1  0  0  0  0
  4  6  1  0  0  0  0
  4 10  1  0  0  0  0
  4 23  1  0  0  0  0
  5  8  1  0  0  0  0
  5 24  1  0  0  0  0
  5 25  1  0  0  0  0
  6  9  1  0  0  0  0
  6 26  1  0  0  0  0
  6 27  1  0  0  0  0
  7  8  1  0  0  0  0
  7  9  1  0  0  0  0
  7 28  1  0  0  0  0
  8 29  1  0  0  0  0
  8 30  1  0  0  0  0
  9 31  1  0  0  0  0
  9 32  1  0  0  0  0
 10 11  1  0  0  0  0
 10 33  1  0  0  0  0
 10 34  1  0  0  0  0
 11 35  1  0  0  0  0
 11 36  1  0  0  0  0
 12 14  1  0  0  0  0
 12 38  1  0  0  0  0
 12 39  1  0  0  0  0
 13 15  1  0  0  0  0
 13 40  1  0  0  0  0
 13 41  1  0  0  0  0
 14 16  1  0  0  0  0
 14 42  1  0  0  0  0
 14 43  1  0  0  0  0
 15 16  1  0  0  0  0
 15 18  2  0  0  0  0
 16 19  2  0  0  0  0
 17 20  1  0  0  0  0
 18 21  1  0  0  0  0
 18 44  1  0  0  0  0
 19 22  1  0  0  0  0
 19 45  1  0  0  0  0
 20 47  1  0  0  0  0
 20 48  1  0  0  0  0
 20 49  1  0  0  0  0
 21 22  2  0  0  0  0
 21 46  1  0  0  0  0
 22 50  1  0  0  0  0
M  END
> <PUBCHEM_COMPOUND_CID>
72736197

> <PUBCHEM_COMPOUND_CANONICALIZED>
1

> <PUBCHEM_CACTVS_COMPLEXITY>
362

> <PUBCHEM_CACTVS_HBOND_ACCEPTOR>
2

> <PUBCHEM_CACTVS_HBOND_DONOR>
1

> <PUBCHEM_CACTVS_ROTATABLE_BOND>
4

> <PUBCHEM_CACTVS_SUBSKEYS>
AAADceB7IAAAAAAAAAAAAAAAAAAAAAAAAAA8YIAAAAAAAACxAAAAHgAQAAAADSjBmAQyAIPAAACIAiFSEACCAAAgAAAIiIAIBIgIICKAkRGEIAhglgCIiAcQgIAOgAAAAAAQAAAQAAAAACAAAAAAAAAAAA==

> <PUBCHEM_IUPAC_OPENEYE_NAME>
N-[4-[2-(3,4-dihydro-1H-isoquinolin-2-yl)ethyl]cyclohexyl]acetamide

> <PUBCHEM_IUPAC_CAS_NAME>
N-[4-[2-(3,4-dihydro-1H-isoquinolin-2-yl)ethyl]cyclohexyl]acetamide

> <PUBCHEM_IUPAC_NAME_MARKUP>
<I>N</I>-[4-[2-(3,4-dihydro-1<I>H</I>-isoquinolin-2-yl)ethyl]cyclohexyl]acetamide

> <PUBCHEM_IUPAC_NAME>
N-[4-[2-(3,4-dihydro-1H-isoquinolin-2-yl)ethyl]cyclohexyl]acetamide

> <PUBCHEM_IUPAC_SYSTEMATIC_NAME>
N-[4-[2-(3,4-dihydro-1H-isoquinolin-2-yl)ethyl]cyclohexyl]ethanamide

> <PUBCHEM_IUPAC_TRADITIONAL_NAME>
N-[4-[2-(3,4-dihydro-1H-isoquinolin-2-yl)ethyl]cyclohexyl]acetamide

> <PUBCHEM_IUPAC_INCHI>
InChI=1S/C19H28N2O/c1-15(22)20-19-8-6-16(7-9-19)10-12-21-13-11-17-4-2-3-5-18(17)14-21/h2-5,16,19H,6-14H2,1H3,(H,20,22)

> <PUBCHEM_IUPAC_INCHIKEY>
ZRYSIPZYVQINMW-UHFFFAOYSA-N

> <PUBCHEM_XLOGP3_AA>
3

> <PUBCHEM_EXACT_MASS>
300.220163521

> <PUBCHEM_MOLECULAR_FORMULA>
C19H28N2O

> <PUBCHEM_MOLECULAR_WEIGHT>
300.4

> <PUBCHEM_OPENEYE_CAN_SMILES>
CC(=O)NC1CCC(CC1)CCN2CCC3=CC=CC=C3C2

> <PUBCHEM_OPENEYE_ISO_SMILES>
CC(=O)NC1CCC(CC1)CCN2CCC3=CC=CC=C3C2

> <PUBCHEM_CACTVS_TPSA>
32.3

> <PUBCHEM_MONOISOTOPIC_WEIGHT>
300.220163521

> <PUBCHEM_TOTAL_CHARGE>
0

> <PUBCHEM_HEAVY_ATOM_COUNT>
22

> <PUBCHEM_ATOM_DEF_STEREO_COUNT>
0

> <PUBCHEM_ATOM_UDEF_STEREO_COUNT>
0

> <PUBCHEM_BOND_DEF_STEREO_COUNT>
0

> <PUBCHEM_BOND_UDEF_STEREO_COUNT>
0

> <PUBCHEM_ISOTOPIC_ATOM_COUNT>
0

> <PUBCHEM_COMPONENT_COUNT>
1

> <PUBCHEM_CACTVS_TAUTO_COUNT>
-1

> <PUBCHEM_COORDINATE_TYPE>
1
5
255

> <PUBCHEM_BONDANNOTATIONS>
15  16  8
15  18  8
16  19  8
18  21  8
19  22  8
21  22  8

$$$$
