70693729
  -OEChem-09292322052D

153162  0     0  0  0  0  0  0999 V2000
    8.7204    9.4232    0.0000 Cl  0  0  0  0  0  0  0  0  0  0  0  0
   14.5056  -13.8907    0.0000 Cl  0  0  0  0  0  0  0  0  0  0  0  0
    6.6150   -0.9038    0.0000 O   0  0  0  0  0  0  0  0  0  0  0  0
    8.3470   -3.9038    0.0000 O   0  0  0  0  0  0  0  0  0  0  0  0
    8.3471    4.0962    0.0000 O   0  0  0  0  0  0  0  0  0  0  0  0
   13.5431   -4.9039    0.0000 O   0  0  0  0  0  0  0  0  0  0  0  0
    6.6150    7.0962    0.0000 O   0  0  0  0  0  0  0  0  0  0  0  0
   15.2752   -7.9039    0.0000 O   0  0  0  0  0  0  0  0  0  0  0  0
    7.4810    0.5962    0.0000 N   0  0  0  0  0  0  0  0  0  0  0  0
   10.0791   -3.9039    0.0000 N   0  0  0  0  0  0  0  0  0  0  0  0
    7.4810    2.5962    0.0000 N   0  0  0  0  0  0  0  0  0  0  0  0
   11.8111   -4.9039    0.0000 N   0  0  0  0  0  0  0  0  0  0  0  0
    3.9491   11.1878    0.0000 N   0  0  0  0  0  0  0  0  0  0  0  0
   18.4195  -10.6410    0.0000 N   0  0  0  0  0  0  0  0  0  0  0  0
    3.0814   12.9897    0.0000 N   0  0  0  0  0  0  0  0  0  0  0  0
   20.4139  -10.7904    0.0000 N   0  0  0  0  0  0  0  0  0  0  0  0
    4.8830    8.0962    0.0000 N   0  0  0  0  0  0  0  0  0  0  0  0
   15.2752   -9.9039    0.0000 N   0  0  0  0  0  0  0  0  0  0  0  0
    5.3830   10.2868    0.0000 N   0  0  0  0  0  0  0  0  0  0  0  0
   16.9223  -11.4323    0.0000 N   0  0  0  0  0  0  0  0  0  0  0  0
    4.8830    7.0962    0.0000 N   0  0  0  0  0  0  0  0  0  0  0  0
   14.4091   -9.4039    0.0000 N   0  0  0  0  0  0  0  0  0  0  0  0
    6.6150    1.0962    0.0000 C   0  0  0  0  0  0  0  0  0  0  0  0
    8.3470    1.0962    0.0000 C   0  0  0  0  0  0  0  0  0  0  0  0
   10.9451   -3.4039    0.0000 C   0  0  0  0  0  0  0  0  0  0  0  0
   10.0790   -4.9039    0.0000 C   0  0  0  0  0  0  0  0  0  0  0  0
    6.6150    2.0962    0.0000 C   0  0  0  0  0  0  0  0  0  0  0  0
    8.3470    2.0962    0.0000 C   0  0  0  0  0  0  0  0  0  0  0  0
   11.8111   -3.9039    0.0000 C   0  0  0  0  0  0  0  0  0  0  0  0
   10.9451   -5.4039    0.0000 C   0  0  0  0  0  0  0  0  0  0  0  0
    8.3470   -1.9038    0.0000 C   0  0  0  0  0  0  0  0  0  0  0  0
    2.9519   11.2625    0.0000 C   0  0  0  0  0  0  0  0  0  0  0  0
    4.5125   12.0140    0.0000 C   0  0  0  0  0  0  0  0  0  0  0  0
   18.8534  -11.5419    0.0000 C   0  0  0  0  0  0  0  0  0  0  0  0
   18.9828   -9.8147    0.0000 C   0  0  0  0  0  0  0  0  0  0  0  0
    8.3470   -0.9039    0.0000 C   0  0  0  0  0  0  0  0  0  0  0  0
    9.2130   -2.4039    0.0000 C   0  0  0  0  0  0  0  0  0  0  0  0
    7.4810   -0.4038    0.0000 C   0  0  0  0  0  0  0  0  0  0  0  0
    9.2130   -3.4039    0.0000 C   0  0  0  0  0  0  0  0  0  0  0  0
    2.5180   12.1635    0.0000 C   0  0  0  0  0  0  0  0  0  0  0  0
    4.0786   12.9150    0.0000 C   0  0  0  0  0  0  0  0  0  0  0  0
   19.8506  -11.6167    0.0000 C   0  0  0  0  0  0  0  0  0  0  0  0
   19.9800   -9.8895    0.0000 C   0  0  0  0  0  0  0  0  0  0  0  0
    7.4810    3.5962    0.0000 C   0  0  0  0  0  0  0  0  0  0  0  0
   12.6771   -5.4039    0.0000 C   0  0  0  0  0  0  0  0  0  0  0  0
    4.3830   10.2868    0.0000 C   0  0  0  0  0  0  0  0  0  0  0  0
   17.4223  -10.5662    0.0000 C   0  0  0  0  0  0  0  0  0  0  0  0
    6.6150    4.0962    0.0000 C   0  0  0  0  0  0  0  0  0  0  0  0
   12.6771   -6.4039    0.0000 C   0  0  0  0  0  0  0  0  0  0  0  0
    6.6150    5.0962    0.0000 C   0  0  0  0  0  0  0  0  0  0  0  0
   13.5431   -6.9039    0.0000 C   0  0  0  0  0  0  0  0  0  0  0  0
    3.7595    9.5050    0.0000 C   0  0  0  0  0  0  0  0  0  0  0  0
   17.0570   -9.6354    0.0000 C   0  0  0  0  0  0  0  0  0  0  0  0
    2.6475   13.8907    0.0000 C   0  0  0  0  0  0  0  0  0  0  0  0
   21.4111  -10.8652    0.0000 C   0  0  0  0  0  0  0  0  0  0  0  0
    3.9820    8.5301    0.0000 C   0  0  0  0  0  0  0  0  0  0  0  0
   16.1014   -9.3406    0.0000 C   0  0  0  0  0  0  0  0  0  0  0  0
    5.7490    5.5962    0.0000 C   0  0  0  0  0  0  0  0  0  0  0  0
   13.5431   -7.9039    0.0000 C   0  0  0  0  0  0  0  0  0  0  0  0
    5.7840    8.5300    0.0000 C   0  0  0  0  0  0  0  0  0  0  0  0
   15.2004  -10.9011    0.0000 C   0  0  0  0  0  0  0  0  0  0  0  0
    6.0065    9.5050    0.0000 C   0  0  0  0  0  0  0  0  0  0  0  0
   15.9335  -11.5813    0.0000 C   0  0  0  0  0  0  0  0  0  0  0  0
    2.7690    9.8273    0.0000 C   0  0  0  0  0  0  0  0  0  0  0  0
   17.8314   -8.9387    0.0000 C   0  0  0  0  0  0  0  0  0  0  0  0
    5.7490    6.5962    0.0000 C   0  0  0  0  0  0  0  0  0  0  0  0
   14.4091   -8.4039    0.0000 C   0  0  0  0  0  0  0  0  0  0  0  0
    3.2295    7.8099    0.0000 C   0  0  0  0  0  0  0  0  0  0  0  0
   15.8540   -8.3288    0.0000 C   0  0  0  0  0  0  0  0  0  0  0  0
    2.0000    9.1248    0.0000 C   0  0  0  0  0  0  0  0  0  0  0  0
   17.6074   -7.9214    0.0000 C   0  0  0  0  0  0  0  0  0  0  0  0
    6.5365    7.8099    0.0000 C   0  0  0  0  0  0  0  0  0  0  0  0
   14.2005  -11.1927    0.0000 C   0  0  0  0  0  0  0  0  0  0  0  0
    2.2318    8.1092    0.0000 C   0  0  0  0  0  0  0  0  0  0  0  0
   16.6121   -7.6144    0.0000 C   0  0  0  0  0  0  0  0  0  0  0  0
    6.9970    9.8273    0.0000 C   0  0  0  0  0  0  0  0  0  0  0  0
   15.7174  -12.6003    0.0000 C   0  0  0  0  0  0  0  0  0  0  0  0
    7.5342    8.1092    0.0000 C   0  0  0  0  0  0  0  0  0  0  0  0
   13.9608  -12.2064    0.0000 C   0  0  0  0  0  0  0  0  0  0  0  0
    7.7660    9.1247    0.0000 C   0  0  0  0  0  0  0  0  0  0  0  0
   14.7244  -12.9149    0.0000 C   0  0  0  0  0  0  0  0  0  0  0  0
    6.0044    1.2038    0.0000 H   0  0  0  0  0  0  0  0  0  0  0  0
    6.4029    0.5136    0.0000 H   0  0  0  0  0  0  0  0  0  0  0  0
    8.5591    0.5135    0.0000 H   0  0  0  0  0  0  0  0  0  0  0  0
    8.9576    1.2038    0.0000 H   0  0  0  0  0  0  0  0  0  0  0  0
   11.3436   -2.9289    0.0000 H   0  0  0  0  0  0  0  0  0  0  0  0
   10.5466   -2.9289    0.0000 H   0  0  0  0  0  0  0  0  0  0  0  0
    9.4685   -4.7962    0.0000 H   0  0  0  0  0  0  0  0  0  0  0  0
    9.8670   -5.4865    0.0000 H   0  0  0  0  0  0  0  0  0  0  0  0
    6.4030    2.6788    0.0000 H   0  0  0  0  0  0  0  0  0  0  0  0
    6.0044    1.9885    0.0000 H   0  0  0  0  0  0  0  0  0  0  0  0
    8.9576    1.9885    0.0000 H   0  0  0  0  0  0  0  0  0  0  0  0
    8.5591    2.6788    0.0000 H   0  0  0  0  0  0  0  0  0  0  0  0
   12.4217   -4.0115    0.0000 H   0  0  0  0  0  0  0  0  0  0  0  0
   12.0232   -3.3213    0.0000 H   0  0  0  0  0  0  0  0  0  0  0  0
   10.5465   -5.8788    0.0000 H   0  0  0  0  0  0  0  0  0  0  0  0
   11.3436   -5.8788    0.0000 H   0  0  0  0  0  0  0  0  0  0  0  0
    2.3551   11.0946    0.0000 H   0  0  0  0  0  0  0  0  0  0  0  0
    3.0137   10.6456    0.0000 H   0  0  0  0  0  0  0  0  0  0  0  0
    4.9563   11.5811    0.0000 H   0  0  0  0  0  0  0  0  0  0  0  0
    5.0159   12.3759    0.0000 H   0  0  0  0  0  0  0  0  0  0  0  0
   18.2566  -11.7099    0.0000 H   0  0  0  0  0  0  0  0  0  0  0  0
   18.9151  -12.1589    0.0000 H   0  0  0  0  0  0  0  0  0  0  0  0
   19.1358   -9.2139    0.0000 H   0  0  0  0  0  0  0  0  0  0  0  0
   18.4177   -9.5597    0.0000 H   0  0  0  0  0  0  0  0  0  0  0  0
    7.7364   -1.7962    0.0000 H   0  0  0  0  0  0  0  0  0  0  0  0
    8.1350   -2.4865    0.0000 H   0  0  0  0  0  0  0  0  0  0  0  0
    8.9576   -1.0115    0.0000 H   0  0  0  0  0  0  0  0  0  0  0  0
    8.5591   -0.3212    0.0000 H   0  0  0  0  0  0  0  0  0  0  0  0
    9.8236   -2.5115    0.0000 H   0  0  0  0  0  0  0  0  0  0  0  0
    9.4251   -1.8212    0.0000 H   0  0  0  0  0  0  0  0  0  0  0  0
    2.0742   12.5964    0.0000 H   0  0  0  0  0  0  0  0  0  0  0  0
    2.0146   11.8016    0.0000 H   0  0  0  0  0  0  0  0  0  0  0  0
    4.6754   13.0829    0.0000 H   0  0  0  0  0  0  0  0  0  0  0  0
    4.0168   13.5319    0.0000 H   0  0  0  0  0  0  0  0  0  0  0  0
   19.6976  -12.2175    0.0000 H   0  0  0  0  0  0  0  0  0  0  0  0
   20.4157  -11.8717    0.0000 H   0  0  0  0  0  0  0  0  0  0  0  0
   20.5769   -9.7216    0.0000 H   0  0  0  0  0  0  0  0  0  0  0  0
   19.9183   -9.2726    0.0000 H   0  0  0  0  0  0  0  0  0  0  0  0
    6.0044    4.2038    0.0000 H   0  0  0  0  0  0  0  0  0  0  0  0
    6.4030    3.5136    0.0000 H   0  0  0  0  0  0  0  0  0  0  0  0
   12.0665   -6.2962    0.0000 H   0  0  0  0  0  0  0  0  0  0  0  0
   12.4651   -6.9865    0.0000 H   0  0  0  0  0  0  0  0  0  0  0  0
    7.2256    4.9885    0.0000 H   0  0  0  0  0  0  0  0  0  0  0  0
    6.8271    5.6788    0.0000 H   0  0  0  0  0  0  0  0  0  0  0  0
   14.1537   -7.0116    0.0000 H   0  0  0  0  0  0  0  0  0  0  0  0
   13.7552   -6.3213    0.0000 H   0  0  0  0  0  0  0  0  0  0  0  0
    3.2061   14.1597    0.0000 H   0  0  0  0  0  0  0  0  0  0  0  0
    2.3785   14.4493    0.0000 H   0  0  0  0  0  0  0  0  0  0  0  0
    2.0889   13.6217    0.0000 H   0  0  0  0  0  0  0  0  0  0  0  0
   21.3648  -11.4834    0.0000 H   0  0  0  0  0  0  0  0  0  0  0  0
   22.0294  -10.9115    0.0000 H   0  0  0  0  0  0  0  0  0  0  0  0
   21.4575  -10.2469    0.0000 H   0  0  0  0  0  0  0  0  0  0  0  0
    5.1384    5.7038    0.0000 H   0  0  0  0  0  0  0  0  0  0  0  0
    5.5369    5.0136    0.0000 H   0  0  0  0  0  0  0  0  0  0  0  0
   12.9325   -7.7962    0.0000 H   0  0  0  0  0  0  0  0  0  0  0  0
   13.3311   -8.4865    0.0000 H   0  0  0  0  0  0  0  0  0  0  0  0
    2.6380   10.4333    0.0000 H   0  0  0  0  0  0  0  0  0  0  0  0
   18.4217   -9.1283    0.0000 H   0  0  0  0  0  0  0  0  0  0  0  0
    4.3460    6.7862    0.0000 H   0  0  0  0  0  0  0  0  0  0  0  0
   13.8722   -9.7139    0.0000 H   0  0  0  0  0  0  0  0  0  0  0  0
    3.3744    7.2071    0.0000 H   0  0  0  0  0  0  0  0  0  0  0  0
   15.2595   -8.1529    0.0000 H   0  0  0  0  0  0  0  0  0  0  0  0
    1.4083    9.3098    0.0000 H   0  0  0  0  0  0  0  0  0  0  0  0
   18.0636   -7.5015    0.0000 H   0  0  0  0  0  0  0  0  0  0  0  0
    6.3916    7.2070    0.0000 H   0  0  0  0  0  0  0  0  0  0  0  0
   13.7509  -10.7658    0.0000 H   0  0  0  0  0  0  0  0  0  0  0  0
    1.7789    7.6858    0.0000 H   0  0  0  0  0  0  0  0  0  0  0  0
   16.4718   -7.0105    0.0000 H   0  0  0  0  0  0  0  0  0  0  0  0
    7.1280   10.4333    0.0000 H   0  0  0  0  0  0  0  0  0  0  0  0
   16.1767  -13.0167    0.0000 H   0  0  0  0  0  0  0  0  0  0  0  0
    7.9871    7.6858    0.0000 H   0  0  0  0  0  0  0  0  0  0  0  0
   13.3677  -12.3869    0.0000 H   0  0  0  0  0  0  0  0  0  0  0  0
  1 80  1  0  0  0  0
  2 81  1  0  0  0  0
  3 38  2  0  0  0  0
  4 39  2  0  0  0  0
  5 44  2  0  0  0  0
  6 45  2  0  0  0  0
  7 66  2  0  0  0  0
  8 67  2  0  0  0  0
  9 23  1  0  0  0  0
  9 24  1  0  0  0  0
  9 38  1  0  0  0  0
 10 25  1  0  0  0  0
 10 26  1  0  0  0  0
 10 39  1  0  0  0  0
 11 27  1  0  0  0  0
 11 28  1  0  0  0  0
 11 44  1  0  0  0  0
 12 29  1  0  0  0  0
 12 30  1  0  0  0  0
 12 45  1  0  0  0  0
 13 32  1  0  0  0  0
 13 33  1  0  0  0  0
 13 46  1  0  0  0  0
 14 34  1  0  0  0  0
 14 35  1  0  0  0  0
 14 47  1  0  0  0  0
 15 40  1  0  0  0  0
 15 41  1  0  0  0  0
 15 54  1  0  0  0  0
 16 42  1  0  0  0  0
 16 43  1  0  0  0  0
 16 55  1  0  0  0  0
 17 21  1  0  0  0  0
 17 56  1  0  0  0  0
 17 60  1  0  0  0  0
 18 22  1  0  0  0  0
 18 57  1  0  0  0  0
 18 61  1  0  0  0  0
 19 46  2  0  0  0  0
 19 62  1  0  0  0  0
 20 47  2  0  0  0  0
 20 63  1  0  0  0  0
 21 66  1  0  0  0  0
 21140  1  0  0  0  0
 22 67  1  0  0  0  0
 22141  1  0  0  0  0
 23 27  1  0  0  0  0
 23 82  1  0  0  0  0
 23 83  1  0  0  0  0
 24 28  1  0  0  0  0
 24 84  1  0  0  0  0
 24 85  1  0  0  0  0
 25 29  1  0  0  0  0
 25 86  1  0  0  0  0
 25 87  1  0  0  0  0
 26 30  1  0  0  0  0
 26 88  1  0  0  0  0
 26 89  1  0  0  0  0
 27 90  1  0  0  0  0
 27 91  1  0  0  0  0
 28 92  1  0  0  0  0
 28 93  1  0  0  0  0
 29 94  1  0  0  0  0
 29 95  1  0  0  0  0
 30 96  1  0  0  0  0
 30 97  1  0  0  0  0
 31 36  1  0  0  0  0
 31 37  1  0  0  0  0
 31106  1  0  0  0  0
 31107  1  0  0  0  0
 32 40  1  0  0  0  0
 32 98  1  0  0  0  0
 32 99  1  0  0  0  0
 33 41  1  0  0  0  0
 33100  1  0  0  0  0
 33101  1  0  0  0  0
 34 42  1  0  0  0  0
 34102  1  0  0  0  0
 34103  1  0  0  0  0
 35 43  1  0  0  0  0
 35104  1  0  0  0  0
 35105  1  0  0  0  0
 36 38  1  0  0  0  0
 36108  1  0  0  0  0
 36109  1  0  0  0  0
 37 39  1  0  0  0  0
 37110  1  0  0  0  0
 37111  1  0  0  0  0
 40112  1  0  0  0  0
 40113  1  0  0  0  0
 41114  1  0  0  0  0
 41115  1  0  0  0  0
 42116  1  0  0  0  0
 42117  1  0  0  0  0
 43118  1  0  0  0  0
 43119  1  0  0  0  0
 44 48  1  0  0  0  0
 45 49  1  0  0  0  0
 46 52  1  0  0  0  0
 47 53  1  0  0  0  0
 48 50  1  0  0  0  0
 48120  1  0  0  0  0
 48121  1  0  0  0  0
 49 51  1  0  0  0  0
 49122  1  0  0  0  0
 49123  1  0  0  0  0
 50 58  1  0  0  0  0
 50124  1  0  0  0  0
 50125  1  0  0  0  0
 51 59  1  0  0  0  0
 51126  1  0  0  0  0
 51127  1  0  0  0  0
 52 56  1  0  0  0  0
 52 64  2  0  0  0  0
 53 57  1  0  0  0  0
 53 65  2  0  0  0  0
 54128  1  0  0  0  0
 54129  1  0  0  0  0
 54130  1  0  0  0  0
 55131  1  0  0  0  0
 55132  1  0  0  0  0
 55133  1  0  0  0  0
 56 68  2  0  0  0  0
 57 69  2  0  0  0  0
 58 66  1  0  0  0  0
 58134  1  0  0  0  0
 58135  1  0  0  0  0
 59 67  1  0  0  0  0
 59136  1  0  0  0  0
 59137  1  0  0  0  0
 60 62  2  0  0  0  0
 60 72  1  0  0  0  0
 61 63  2  0  0  0  0
 61 73  1  0  0  0  0
 62 76  1  0  0  0  0
 63 77  1  0  0  0  0
 64 70  1  0  0  0  0
 64138  1  0  0  0  0
 65 71  1  0  0  0  0
 65139  1  0  0  0  0
 68 74  1  0  0  0  0
 68142  1  0  0  0  0
 69 75  1  0  0  0  0
 69143  1  0  0  0  0
 70 74  2  0  0  0  0
 70144  1  0  0  0  0
 71 75  2  0  0  0  0
 71145  1  0  0  0  0
 72 78  2  0  0  0  0
 72146  1  0  0  0  0
 73 79  2  0  0  0  0
 73147  1  0  0  0  0
 74148  1  0  0  0  0
 75149  1  0  0  0  0
 76 80  2  0  0  0  0
 76150  1  0  0  0  0
 77 81  2  0  0  0  0
 77151  1  0  0  0  0
 78 80  1  0  0  0  0
 78152  1  0  0  0  0
 79 81  1  0  0  0  0
 79153  1  0  0  0  0
M  END
> <PUBCHEM_COMPOUND_CID>
70693729

> <PUBCHEM_COMPOUND_CANONICALIZED>
1

> <PUBCHEM_CACTVS_COMPLEXITY>
2100

> <PUBCHEM_CACTVS_HBOND_ACCEPTOR>
12

> <PUBCHEM_CACTVS_HBOND_DONOR>
2

> <PUBCHEM_CACTVS_ROTATABLE_BOND>
16

> <PUBCHEM_CACTVS_SUBSKEYS>
AAADcfB/+AAGAAAAAAAAAAAAAAAAAAAAAAA8ePHiBAgAAAABVAAAHgIYAAAADArBmCQzwINiAACoAidydACCBAEhBwAbqAEodpgIYPLB25GUIAhglgDIyAcYgwAOAABAAAICACAAAIAABAQAQAAAAAAAAA==

> <PUBCHEM_IUPAC_OPENEYE_NAME>
N-[3-chloro-6-(4-methylpiperazin-1-yl)benzo[b][1,4]benzodiazepin-11-yl]-5-[4-[5-[4-[5-[[3-chloro-6-(4-methylpiperazin-1-yl)benzo[b][1,4]benzodiazepin-11-yl]amino]-5-oxo-pentanoyl]piperazin-1-yl]-5-oxo-pentanoyl]piperazin-1-yl]-5-oxo-pentanamide

> <PUBCHEM_IUPAC_CAS_NAME>
N-[3-chloro-6-(4-methyl-1-piperazinyl)-11-benzo[b][1,4]benzodiazepinyl]-5-[4-[5-[4-[5-[[3-chloro-6-(4-methyl-1-piperazinyl)-11-benzo[b][1,4]benzodiazepinyl]amino]-1,5-dioxopentyl]-1-piperazinyl]-1,5-dioxopentyl]-1-piperazinyl]-5-oxopentanamide

> <PUBCHEM_IUPAC_NAME_MARKUP>
<I>N</I>-[3-chloro-6-(4-methylpiperazin-1-yl)benzo[b][1,4]benzodiazepin-11-yl]-5-[4-[5-[4-[5-[[3-chloro-6-(4-methylpiperazin-1-yl)benzo[b][1,4]benzodiazepin-11-yl]amino]-5-oxopentanoyl]piperazin-1-yl]-5-oxopentanoyl]piperazin-1-yl]-5-oxopentanamide

> <PUBCHEM_IUPAC_NAME>
N-[3-chloro-6-(4-methylpiperazin-1-yl)benzo[b][1,4]benzodiazepin-11-yl]-5-[4-[5-[4-[5-[[3-chloro-6-(4-methylpiperazin-1-yl)benzo[b][1,4]benzodiazepin-11-yl]amino]-5-oxopentanoyl]piperazin-1-yl]-5-oxopentanoyl]piperazin-1-yl]-5-oxopentanamide

> <PUBCHEM_IUPAC_SYSTEMATIC_NAME>
N-[3-chloranyl-6-(4-methylpiperazin-1-yl)benzo[b][1,4]benzodiazepin-11-yl]-5-[4-[5-[4-[5-[[3-chloranyl-6-(4-methylpiperazin-1-yl)benzo[b][1,4]benzodiazepin-11-yl]amino]-5-oxidanylidene-pentanoyl]piperazin-1-yl]-5-oxidanylidene-pentanoyl]piperazin-1-yl]-5-oxidanylidene-pentanamide

> <PUBCHEM_IUPAC_TRADITIONAL_NAME>
N-[3-chloro-6-(4-methylpiperazino)benzo[b][1,4]benzodiazepin-11-yl]-5-[4-[5-[4-[5-[[3-chloro-6-(4-methylpiperazino)benzo[b][1,4]benzodiazepin-11-yl]amino]-5-keto-pentanoyl]piperazino]-5-keto-pentanoyl]piperazino]-5-keto-valeramide

> <PUBCHEM_IUPAC_INCHI>
InChI=1S/C59H72Cl2N14O6/c1-66-24-28-72(29-25-66)58-44-10-3-5-12-48(44)74(50-22-20-42(60)40-46(50)62-58)64-52(76)14-7-16-54(78)68-32-36-70(37-33-68)56(80)18-9-19-57(81)71-38-34-69(35-39-71)55(79)17-8-15-53(77)65-75-49-13-6-4-11-45(49)59(73-30-26-67(2)27-31-73)63-47-41-43(61)21-23-51(47)75/h3-6,10-13,20-23,40-41H,7-9,14-19,24-39H2,1-2H3,(H,64,76)(H,65,77)

> <PUBCHEM_IUPAC_INCHIKEY>
JIMCDCVSQCCLFD-UHFFFAOYSA-N

> <PUBCHEM_XLOGP3_AA>
3.4

> <PUBCHEM_EXACT_MASS>
1142.5136315

> <PUBCHEM_MOLECULAR_FORMULA>
C59H72Cl2N14O6

> <PUBCHEM_MOLECULAR_WEIGHT>
1144.2

> <PUBCHEM_OPENEYE_CAN_SMILES>
CN1CCN(CC1)C2=NC3=C(C=CC(=C3)Cl)N(C4=CC=CC=C42)NC(=O)CCCC(=O)N5CCN(CC5)C(=O)CCCC(=O)N6CCN(CC6)C(=O)CCCC(=O)NN7C8=C(C=C(C=C8)Cl)N=C(C9=CC=CC=C97)N1CCN(CC1)C

> <PUBCHEM_OPENEYE_ISO_SMILES>
CN1CCN(CC1)C2=NC3=C(C=CC(=C3)Cl)N(C4=CC=CC=C42)NC(=O)CCCC(=O)N5CCN(CC5)C(=O)CCCC(=O)N6CCN(CC6)C(=O)CCCC(=O)NN7C8=C(C=C(C=C8)Cl)N=C(C9=CC=CC=C97)N1CCN(CC1)C

> <PUBCHEM_CACTVS_TPSA>
184

> <PUBCHEM_MONOISOTOPIC_WEIGHT>
1142.5136315

> <PUBCHEM_TOTAL_CHARGE>
0

> <PUBCHEM_HEAVY_ATOM_COUNT>
81

> <PUBCHEM_ATOM_DEF_STEREO_COUNT>
0

> <PUBCHEM_ATOM_UDEF_STEREO_COUNT>
0

> <PUBCHEM_BOND_DEF_STEREO_COUNT>
0

> <PUBCHEM_BOND_UDEF_STEREO_COUNT>
0

> <PUBCHEM_ISOTOPIC_ATOM_COUNT>
0

> <PUBCHEM_COMPONENT_COUNT>
1

> <PUBCHEM_CACTVS_TAUTO_COUNT>
-1

> <PUBCHEM_COORDINATE_TYPE>
1
5
255

> <PUBCHEM_BONDANNOTATIONS>
52  56  8
52  64  8
53  57  8
53  65  8
56  68  8
57  69  8
60  62  8
60  72  8
61  63  8
61  73  8
62  76  8
63  77  8
64  70  8
65  71  8
68  74  8
69  75  8
70  74  8
71  75  8
72  78  8
73  79  8
76  80  8
77  81  8
78  80  8
79  81  8

$$$$
