156013203
  -OEChem-09292322422D

 65 69  0     1  0  0  0  0  0999 V2000
   15.4642    0.7611    0.0000 Cl  0  0  0  0  0  0  0  0  0  0  0  0
   17.3436    0.0771    0.0000 Cl  0  0  0  0  0  0  0  0  0  0  0  0
    5.1390   -1.9567    0.0000 O   0  0  0  0  0  0  0  0  0  0  0  0
    6.3396    1.3421    0.0000 O   0  0  0  0  0  0  0  0  0  0  0  0
    5.9958   -0.4007    0.0000 N   0  0  0  0  0  0  0  0  0  0  0  0
   12.0527    0.1596    0.0000 N   0  0  0  0  0  0  0  0  0  0  0  0
   13.9321   -0.5244    0.0000 N   0  0  0  0  0  0  0  0  0  0  0  0
    3.0145    0.2447    0.0000 C   0  0  1  0  0  0  0  0  0  0  0  0
    2.7557    1.2107    0.0000 C   0  0  2  0  0  0  0  0  0  0  0  0
    4.3872   -0.3473    0.0000 C   0  0  1  0  0  0  0  0  0  0  0  0
    4.7292    0.5924    0.0000 C   0  0  2  0  0  0  0  0  0  0  0  0
    3.4923    2.1933    0.0000 C   0  0  0  0  0  0  0  0  0  0  0  0
    1.6156   -0.2641    0.0000 C   0  0  0  0  0  0  0  0  0  0  0  0
    1.3568    0.7018    0.0000 C   0  0  0  0  0  0  0  0  0  0  0  0
    5.1722   -0.9573    0.0000 C   0  0  0  0  0  0  0  0  0  0  0  0
    5.7226    0.5551    0.0000 C   0  0  0  0  0  0  0  0  0  0  0  0
    6.9355   -0.7427    0.0000 C   0  0  0  0  0  0  0  0  0  0  0  0
    7.7015   -0.0999    0.0000 C   0  0  0  0  0  0  0  0  0  0  0  0
    8.6412   -0.4419    0.0000 C   0  0  0  0  0  0  0  0  0  0  0  0
    9.4073    0.2009    0.0000 C   0  0  0  0  0  0  0  0  0  0  0  0
   10.3470   -0.1412    0.0000 C   0  0  0  0  0  0  0  0  0  0  0  0
   11.1130    0.5016    0.0000 C   0  0  0  0  0  0  0  0  0  0  0  0
   12.8187    0.8024    0.0000 C   0  0  0  0  0  0  0  0  0  0  0  0
   12.2264   -0.8252    0.0000 C   0  0  0  0  0  0  0  0  0  0  0  0
   13.7584    0.4604    0.0000 C   0  0  0  0  0  0  0  0  0  0  0  0
   13.1660   -1.1672    0.0000 C   0  0  0  0  0  0  0  0  0  0  0  0
   14.8718   -0.8664    0.0000 C   0  0  0  0  0  0  0  0  0  0  0  0
   15.6378   -0.2237    0.0000 C   0  0  0  0  0  0  0  0  0  0  0  0
   15.0454   -1.8513    0.0000 C   0  0  0  0  0  0  0  0  0  0  0  0
   16.5775   -0.5657    0.0000 C   0  0  0  0  0  0  0  0  0  0  0  0
   15.9851   -2.1933    0.0000 C   0  0  0  0  0  0  0  0  0  0  0  0
   16.7512   -1.5505    0.0000 C   0  0  0  0  0  0  0  0  0  0  0  0
    3.2345   -0.5763    0.0000 H   0  0  0  0  0  0  0  0  0  0  0  0
    2.5357    2.0317    0.0000 H   0  0  0  0  0  0  0  0  0  0  0  0
    4.0965   -1.1460    0.0000 H   0  0  0  0  0  0  0  0  0  0  0  0
    5.0200    1.3912    0.0000 H   0  0  0  0  0  0  0  0  0  0  0  0
    3.1745    2.7256    0.0000 H   0  0  0  0  0  0  0  0  0  0  0  0
    4.1054    2.2852    0.0000 H   0  0  0  0  0  0  0  0  0  0  0  0
    1.8105   -0.8526    0.0000 H   0  0  0  0  0  0  0  0  0  0  0  0
    1.0216   -0.4419    0.0000 H   0  0  0  0  0  0  0  0  0  0  0  0
    0.7628    0.5241    0.0000 H   0  0  0  0  0  0  0  0  0  0  0  0
    1.1618    1.2904    0.0000 H   0  0  0  0  0  0  0  0  0  0  0  0
    7.4104   -1.1412    0.0000 H   0  0  0  0  0  0  0  0  0  0  0  0
    6.6255   -1.2796    0.0000 H   0  0  0  0  0  0  0  0  0  0  0  0
    7.2266    0.2986    0.0000 H   0  0  0  0  0  0  0  0  0  0  0  0
    8.0115    0.4370    0.0000 H   0  0  0  0  0  0  0  0  0  0  0  0
    9.1162   -0.8405    0.0000 H   0  0  0  0  0  0  0  0  0  0  0  0
    8.3312   -0.9789    0.0000 H   0  0  0  0  0  0  0  0  0  0  0  0
    8.9323    0.5994    0.0000 H   0  0  0  0  0  0  0  0  0  0  0  0
    9.7173    0.7378    0.0000 H   0  0  0  0  0  0  0  0  0  0  0  0
   10.8219   -0.5397    0.0000 H   0  0  0  0  0  0  0  0  0  0  0  0
   10.0370   -0.6781    0.0000 H   0  0  0  0  0  0  0  0  0  0  0  0
   10.6381    0.9002    0.0000 H   0  0  0  0  0  0  0  0  0  0  0  0
   11.4230    1.0386    0.0000 H   0  0  0  0  0  0  0  0  0  0  0  0
   12.3438    1.2009    0.0000 H   0  0  0  0  0  0  0  0  0  0  0  0
   13.1287    1.3393    0.0000 H   0  0  0  0  0  0  0  0  0  0  0  0
   12.1187   -1.4358    0.0000 H   0  0  0  0  0  0  0  0  0  0  0  0
   11.6064   -0.8252    0.0000 H   0  0  0  0  0  0  0  0  0  0  0  0
   13.8661    1.0710    0.0000 H   0  0  0  0  0  0  0  0  0  0  0  0
   14.3784    0.4604    0.0000 H   0  0  0  0  0  0  0  0  0  0  0  0
   13.6410   -1.5657    0.0000 H   0  0  0  0  0  0  0  0  0  0  0  0
   12.8560   -1.7042    0.0000 H   0  0  0  0  0  0  0  0  0  0  0  0
   14.5705   -2.2498    0.0000 H   0  0  0  0  0  0  0  0  0  0  0  0
   16.0928   -2.8039    0.0000 H   0  0  0  0  0  0  0  0  0  0  0  0
   17.3338   -1.7625    0.0000 H   0  0  0  0  0  0  0  0  0  0  0  0
  1 28  1  0  0  0  0
  2 30  1  0  0  0  0
  3 15  2  0  0  0  0
  4 16  2  0  0  0  0
  5 15  1  0  0  0  0
  5 16  1  0  0  0  0
  5 17  1  0  0  0  0
  6 22  1  0  0  0  0
  6 23  1  0  0  0  0
  6 24  1  0  0  0  0
  7 25  1  0  0  0  0
  7 26  1  0  0  0  0
  7 27  1  0  0  0  0
  8 10  1  0  0  0  0
  8 12  1  0  0  0  0
  8 13  1  0  0  0  0
  8 33  1  1  0  0  0
  9 11  1  0  0  0  0
  9 12  1  0  0  0  0
  9 14  1  0  0  0  0
  9 34  1  6  0  0  0
 10 11  1  0  0  0  0
 10 15  1  0  0  0  0
 10 35  1  6  0  0  0
 11 16  1  0  0  0  0
 11 36  1  6  0  0  0
 12 37  1  0  0  0  0
 12 38  1  0  0  0  0
 13 14  1  0  0  0  0
 13 39  1  0  0  0  0
 13 40  1  0  0  0  0
 14 41  1  0  0  0  0
 14 42  1  0  0  0  0
 17 18  1  0  0  0  0
 17 43  1  0  0  0  0
 17 44  1  0  0  0  0
 18 19  1  0  0  0  0
 18 45  1  0  0  0  0
 18 46  1  0  0  0  0
 19 20  1  0  0  0  0
 19 47  1  0  0  0  0
 19 48  1  0  0  0  0
 20 21  1  0  0  0  0
 20 49  1  0  0  0  0
 20 50  1  0  0  0  0
 21 22  1  0  0  0  0
 21 51  1  0  0  0  0
 21 52  1  0  0  0  0
 22 53  1  0  0  0  0
 22 54  1  0  0  0  0
 23 25  1  0  0  0  0
 23 55  1  0  0  0  0
 23 56  1  0  0  0  0
 24 26  1  0  0  0  0
 24 57  1  0  0  0  0
 24 58  1  0  0  0  0
 25 59  1  0  0  0  0
 25 60  1  0  0  0  0
 26 61  1  0  0  0  0
 26 62  1  0  0  0  0
 27 28  2  0  0  0  0
 27 29  1  0  0  0  0
 28 30  1  0  0  0  0
 29 31  2  0  0  0  0
 29 63  1  0  0  0  0
 30 32  2  0  0  0  0
 31 32  1  0  0  0  0
 31 64  1  0  0  0  0
 32 65  1  0  0  0  0
M  END
> <PUBCHEM_COMPOUND_CID>
156013203

> <PUBCHEM_COMPOUND_CANONICALIZED>
1

> <PUBCHEM_CACTVS_COMPLEXITY>
671

> <PUBCHEM_CACTVS_HBOND_ACCEPTOR>
4

> <PUBCHEM_CACTVS_HBOND_DONOR>
0

> <PUBCHEM_CACTVS_ROTATABLE_BOND>
8

> <PUBCHEM_CACTVS_SUBSKEYS>
AAADcfB7MAAGAAAAAAAAAAAAAAAAAeMEAAA8YIAAAAAWAAABAAAAHgIAAAAADQrBkCQwwIMAAACIACVSUACCAAAhBwAIikEIZogIYDLBk5HUIAhghiDIyAcdiMCOgAAAAAIAABQAAAQABCAAKQAACAAAAA==

> <PUBCHEM_IUPAC_OPENEYE_NAME>
(1R,2S,6R,7S)-4-[6-[4-(2,3-dichlorophenyl)piperazin-1-yl]hexyl]-4-azatricyclo[5.2.1.02,6]decane-3,5-dione

> <PUBCHEM_IUPAC_CAS_NAME>
(1R,2S,6R,7S)-4-[6-[4-(2,3-dichlorophenyl)-1-piperazinyl]hexyl]-4-azatricyclo[5.2.1.02,6]decane-3,5-dione

> <PUBCHEM_IUPAC_NAME_MARKUP>
(1<I>R</I>,2<I>S</I>,6<I>R</I>,7<I>S</I>)-4-[6-[4-(2,3-dichlorophenyl)piperazin-1-yl]hexyl]-4-azatricyclo[5.2.1.0<SUP>2,6</SUP>]decane-3,5-dione

> <PUBCHEM_IUPAC_NAME>
(1R,2S,6R,7S)-4-[6-[4-(2,3-dichlorophenyl)piperazin-1-yl]hexyl]-4-azatricyclo[5.2.1.02,6]decane-3,5-dione

> <PUBCHEM_IUPAC_SYSTEMATIC_NAME>
(1R,2S,6R,7S)-4-[6-[4-[2,3-bis(chloranyl)phenyl]piperazin-1-yl]hexyl]-4-azatricyclo[5.2.1.02,6]decane-3,5-dione

> <PUBCHEM_IUPAC_TRADITIONAL_NAME>
(1R,2S,6R,7S)-4-[6-[4-(2,3-dichlorophenyl)piperazino]hexyl]-4-azatricyclo[5.2.1.02,6]decane-3,5-quinone

> <PUBCHEM_IUPAC_INCHI>
InChI=1S/C25H33Cl2N3O2/c26-19-6-5-7-20(23(19)27)29-14-12-28(13-15-29)10-3-1-2-4-11-30-24(31)21-17-8-9-18(16-17)22(21)25(30)32/h5-7,17-18,21-22H,1-4,8-16H2/t17-,18+,21+,22-

> <PUBCHEM_IUPAC_INCHIKEY>
MIVAZVMVBOSSKJ-MTIDIVMFSA-N

> <PUBCHEM_XLOGP3_AA>
5.2

> <PUBCHEM_EXACT_MASS>
477.1949827

> <PUBCHEM_MOLECULAR_FORMULA>
C25H33Cl2N3O2

> <PUBCHEM_MOLECULAR_WEIGHT>
478.5

> <PUBCHEM_OPENEYE_CAN_SMILES>
C1CC2CC1C3C2C(=O)N(C3=O)CCCCCCN4CCN(CC4)C5=C(C(=CC=C5)Cl)Cl

> <PUBCHEM_OPENEYE_ISO_SMILES>
C1C[C@H]2C[C@@H]1[C@H]3[C@@H]2C(=O)N(C3=O)CCCCCCN4CCN(CC4)C5=C(C(=CC=C5)Cl)Cl

> <PUBCHEM_CACTVS_TPSA>
43.9

> <PUBCHEM_MONOISOTOPIC_WEIGHT>
477.1949827

> <PUBCHEM_TOTAL_CHARGE>
0

> <PUBCHEM_HEAVY_ATOM_COUNT>
32

> <PUBCHEM_ATOM_DEF_STEREO_COUNT>
4

> <PUBCHEM_ATOM_UDEF_STEREO_COUNT>
0

> <PUBCHEM_BOND_DEF_STEREO_COUNT>
0

> <PUBCHEM_BOND_UDEF_STEREO_COUNT>
0

> <PUBCHEM_ISOTOPIC_ATOM_COUNT>
0

> <PUBCHEM_COMPONENT_COUNT>
1

> <PUBCHEM_CACTVS_TAUTO_COUNT>
-1

> <PUBCHEM_COORDINATE_TYPE>
1
5
255

> <PUBCHEM_BONDANNOTATIONS>
10  35  6
11  36  6
27  28  8
27  29  8
28  30  8
29  31  8
30  32  8
31  32  8
8  33  5
9  34  6

$$$$
