137631956
  -OEChem-09292322082D

 54 58  0     1  0  0  0  0  0999 V2000
   12.5904   -1.2327    0.0000 O   0  0  0  0  0  0  0  0  0  0  0  0
    7.2602    0.2673    0.0000 N   0  0  3  0  0  0  0  0  0  0  0  0
   11.7243    0.2673    0.0000 N   0  0  0  0  0  0  0  0  0  0  0  0
   15.1884    1.2673    0.0000 N   0  0  0  0  0  0  0  0  0  0  0  0
    2.0000   -0.7602    0.0000 N   0  0  0  0  0  0  0  0  0  0  0  0
    8.9923    0.2673    0.0000 C   0  0  1  0  0  0  0  0  0  0  0  0
    9.9923    0.2673    0.0000 C   0  0  1  0  0  0  0  0  0  0  0  0
    9.4923    1.1333    0.0000 C   0  0  0  0  0  0  0  0  0  0  0  0
    8.1263   -0.2327    0.0000 C   0  0  0  0  0  0  0  0  0  0  0  0
   10.8583   -0.2327    0.0000 C   0  0  0  0  0  0  0  0  0  0  0  0
    7.2602    1.2673    0.0000 C   0  0  0  0  0  0  0  0  0  0  0  0
    6.3942   -0.2327    0.0000 C   0  0  0  0  0  0  0  0  0  0  0  0
    6.3942    1.7673    0.0000 C   0  0  0  0  0  0  0  0  0  0  0  0
    5.5282    0.2673    0.0000 C   0  0  0  0  0  0  0  0  0  0  0  0
    5.5282    1.2673    0.0000 C   0  0  0  0  0  0  0  0  0  0  0  0
   12.5904   -0.2327    0.0000 C   0  0  0  0  0  0  0  0  0  0  0  0
    4.6342   -0.2674    0.0000 C   0  0  0  0  0  0  0  0  0  0  0  0
    4.6342    1.8020    0.0000 C   0  0  0  0  0  0  0  0  0  0  0  0
   13.4564    0.2673    0.0000 C   0  0  0  0  0  0  0  0  0  0  0  0
    3.7282    0.2465    0.0000 C   0  0  0  0  0  0  0  0  0  0  0  0
    3.7282    1.2881    0.0000 C   0  0  0  0  0  0  0  0  0  0  0  0
   14.3224   -0.2327    0.0000 C   0  0  0  0  0  0  0  0  0  0  0  0
   13.4564    1.2673    0.0000 C   0  0  0  0  0  0  0  0  0  0  0  0
   15.1884    0.2673    0.0000 C   0  0  0  0  0  0  0  0  0  0  0  0
    2.8641   -0.2568    0.0000 C   0  0  0  0  0  0  0  0  0  0  0  0
   14.3064   -1.2742    0.0000 C   0  0  0  0  0  0  0  0  0  0  0  0
   14.3224    1.7673    0.0000 C   0  0  0  0  0  0  0  0  0  0  0  0
   16.0984   -0.2395    0.0000 C   0  0  0  0  0  0  0  0  0  0  0  0
   15.2044   -1.8020    0.0000 C   0  0  0  0  0  0  0  0  0  0  0  0
   16.1065   -1.2812    0.0000 C   0  0  0  0  0  0  0  0  0  0  0  0
    9.1528   -0.3316    0.0000 H   0  0  0  0  0  0  0  0  0  0  0  0
   10.4307    0.7057    0.0000 H   0  0  0  0  0  0  0  0  0  0  0  0
    9.9672    1.5318    0.0000 H   0  0  0  0  0  0  0  0  0  0  0  0
    9.0174    1.5318    0.0000 H   0  0  0  0  0  0  0  0  0  0  0  0
    7.7277   -0.7076    0.0000 H   0  0  0  0  0  0  0  0  0  0  0  0
    8.5248   -0.7076    0.0000 H   0  0  0  0  0  0  0  0  0  0  0  0
   10.4598   -0.7076    0.0000 H   0  0  0  0  0  0  0  0  0  0  0  0
   11.2568   -0.7076    0.0000 H   0  0  0  0  0  0  0  0  0  0  0  0
    7.8708    1.1596    0.0000 H   0  0  0  0  0  0  0  0  0  0  0  0
    7.4723    1.8499    0.0000 H   0  0  0  0  0  0  0  0  0  0  0  0
    5.9957   -0.7076    0.0000 H   0  0  0  0  0  0  0  0  0  0  0  0
    6.7928   -0.7076    0.0000 H   0  0  0  0  0  0  0  0  0  0  0  0
   11.7243    0.8873    0.0000 H   0  0  0  0  0  0  0  0  0  0  0  0
    6.7928    2.2422    0.0000 H   0  0  0  0  0  0  0  0  0  0  0  0
    5.9957    2.2422    0.0000 H   0  0  0  0  0  0  0  0  0  0  0  0
    4.6414   -0.8873    0.0000 H   0  0  0  0  0  0  0  0  0  0  0  0
    4.6414    2.4219    0.0000 H   0  0  0  0  0  0  0  0  0  0  0  0
    3.1924    1.6002    0.0000 H   0  0  0  0  0  0  0  0  0  0  0  0
   12.9195    1.5773    0.0000 H   0  0  0  0  0  0  0  0  0  0  0  0
   13.7659   -1.5780    0.0000 H   0  0  0  0  0  0  0  0  0  0  0  0
   14.3224    2.3873    0.0000 H   0  0  0  0  0  0  0  0  0  0  0  0
   16.6318    0.0766    0.0000 H   0  0  0  0  0  0  0  0  0  0  0  0
   15.2020   -2.4220    0.0000 H   0  0  0  0  0  0  0  0  0  0  0  0
   16.6446   -1.5891    0.0000 H   0  0  0  0  0  0  0  0  0  0  0  0
  1 16  2  0  0  0  0
  2  9  1  0  0  0  0
  2 11  1  0  0  0  0
  2 12  1  0  0  0  0
  3 10  1  0  0  0  0
  3 16  1  0  0  0  0
  3 43  1  0  0  0  0
  4 24  1  0  0  0  0
  4 27  2  0  0  0  0
  5 25  3  0  0  0  0
  6  7  1  0  0  0  0
  6  8  1  0  0  0  0
  6  9  1  6  0  0  0
  6 31  1  0  0  0  0
  7  8  1  0  0  0  0
  7 10  1  1  0  0  0
  7 32  1  0  0  0  0
  8 33  1  0  0  0  0
  8 34  1  0  0  0  0
  9 35  1  0  0  0  0
  9 36  1  0  0  0  0
 10 37  1  0  0  0  0
 10 38  1  0  0  0  0
 11 13  1  0  0  0  0
 11 39  1  0  0  0  0
 11 40  1  0  0  0  0
 12 14  1  0  0  0  0
 12 41  1  0  0  0  0
 12 42  1  0  0  0  0
 13 15  1  0  0  0  0
 13 44  1  0  0  0  0
 13 45  1  0  0  0  0
 14 15  2  0  0  0  0
 14 17  1  0  0  0  0
 15 18  1  0  0  0  0
 16 19  1  0  0  0  0
 17 20  2  0  0  0  0
 17 46  1  0  0  0  0
 18 21  2  0  0  0  0
 18 47  1  0  0  0  0
 19 22  1  0  0  0  0
 19 23  2  0  0  0  0
 20 21  1  0  0  0  0
 20 25  1  0  0  0  0
 21 48  1  0  0  0  0
 22 24  1  0  0  0  0
 22 26  2  0  0  0  0
 23 27  1  0  0  0  0
 23 49  1  0  0  0  0
 24 28  2  0  0  0  0
 26 29  1  0  0  0  0
 26 50  1  0  0  0  0
 27 51  1  0  0  0  0
 28 30  1  0  0  0  0
 28 52  1  0  0  0  0
 29 30  2  0  0  0  0
 29 53  1  0  0  0  0
 30 54  1  0  0  0  0
M  END
> <PUBCHEM_COMPOUND_CID>
137631956

> <PUBCHEM_COMPOUND_CANONICALIZED>
1

> <PUBCHEM_CACTVS_COMPLEXITY>
671

> <PUBCHEM_CACTVS_HBOND_ACCEPTOR>
4

> <PUBCHEM_CACTVS_HBOND_DONOR>
1

> <PUBCHEM_CACTVS_ROTATABLE_BOND>
5

> <PUBCHEM_CACTVS_SUBSKEYS>
AAADceB7oAAAAAAAAAAAAAAAGAAAAAAAAAA8eIEAAAAAAACx9AAAHgAQAAAADQjBngQ8wPPIEAC4BzV3VACigCA1AiAI2KE4ZNgIoPLAlZGEIQhglgDIyY8ciMCOwAACAAASAACAAAQAACQAAAAAAAAAAA==

> <PUBCHEM_IUPAC_OPENEYE_NAME>
N-[[(1R,2R)-2-[(7-cyano-3,4-dihydro-1H-isoquinolin-2-yl)methyl]cyclopropyl]methyl]quinoline-4-carboxamide

> <PUBCHEM_IUPAC_CAS_NAME>
N-[[(1R,2R)-2-[(7-cyano-3,4-dihydro-1H-isoquinolin-2-yl)methyl]cyclopropyl]methyl]-4-quinolinecarboxamide

> <PUBCHEM_IUPAC_NAME_MARKUP>
<I>N</I>-[[(1<I>R</I>,2<I>R</I>)-2-[(7-cyano-3,4-dihydro-1<I>H</I>-isoquinolin-2-yl)methyl]cyclopropyl]methyl]quinoline-4-carboxamide

> <PUBCHEM_IUPAC_NAME>
N-[[(1R,2R)-2-[(7-cyano-3,4-dihydro-1H-isoquinolin-2-yl)methyl]cyclopropyl]methyl]quinoline-4-carboxamide

> <PUBCHEM_IUPAC_SYSTEMATIC_NAME>
N-[[(1R,2R)-2-[(7-cyano-3,4-dihydro-1H-isoquinolin-2-yl)methyl]cyclopropyl]methyl]quinoline-4-carboxamide

> <PUBCHEM_IUPAC_TRADITIONAL_NAME>
N-[[(1R,2R)-2-[(7-cyano-3,4-dihydro-1H-isoquinolin-2-yl)methyl]cyclopropyl]methyl]cinchoninamide

> <PUBCHEM_IUPAC_INCHI>
InChI=1S/C25H24N4O/c26-13-17-5-6-18-8-10-29(15-20(18)11-17)16-21-12-19(21)14-28-25(30)23-7-9-27-24-4-2-1-3-22(23)24/h1-7,9,11,19,21H,8,10,12,14-16H2,(H,28,30)/t19-,21-/m0/s1

> <PUBCHEM_IUPAC_INCHIKEY>
JBUWBWVXKLACCD-FPOVZHCZSA-N

> <PUBCHEM_XLOGP3_AA>
3.4

> <PUBCHEM_EXACT_MASS>
396.19501140

> <PUBCHEM_MOLECULAR_FORMULA>
C25H24N4O

> <PUBCHEM_MOLECULAR_WEIGHT>
396.5

> <PUBCHEM_OPENEYE_CAN_SMILES>
C1CN(CC2=C1C=CC(=C2)C#N)CC3CC3CNC(=O)C4=CC=NC5=CC=CC=C45

> <PUBCHEM_OPENEYE_ISO_SMILES>
C1CN(CC2=C1C=CC(=C2)C#N)C[C@@H]3C[C@H]3CNC(=O)C4=CC=NC5=CC=CC=C45

> <PUBCHEM_CACTVS_TPSA>
69

> <PUBCHEM_MONOISOTOPIC_WEIGHT>
396.19501140

> <PUBCHEM_TOTAL_CHARGE>
0

> <PUBCHEM_HEAVY_ATOM_COUNT>
30

> <PUBCHEM_ATOM_DEF_STEREO_COUNT>
2

> <PUBCHEM_ATOM_UDEF_STEREO_COUNT>
0

> <PUBCHEM_BOND_DEF_STEREO_COUNT>
0

> <PUBCHEM_BOND_UDEF_STEREO_COUNT>
0

> <PUBCHEM_ISOTOPIC_ATOM_COUNT>
0

> <PUBCHEM_COMPONENT_COUNT>
1

> <PUBCHEM_CACTVS_TAUTO_COUNT>
-1

> <PUBCHEM_COORDINATE_TYPE>
1
5
255

> <PUBCHEM_BONDANNOTATIONS>
14  15  8
14  17  8
15  18  8
17  20  8
18  21  8
19  22  8
19  23  8
20  21  8
22  24  8
22  26  8
23  27  8
24  28  8
26  29  8
28  30  8
29  30  8
4  24  8
4  27  8
6  9  6
7  10  5

$$$$
