168277063
  -OEChem-09292322452D

 65 67  0     0  0  0  0  0  0999 V2000
    4.9338    7.6200    0.0000 O   0  0  0  0  0  0  0  0  0  0  0  0
   10.1300    1.6200    0.0000 O   0  0  0  0  0  0  0  0  0  0  0  0
    6.6740   13.2862    0.0000 O   0  0  0  0  0  0  0  0  0  0  0  0
    4.0760   13.7862    0.0000 O   0  0  0  0  0  0  0  0  0  0  0  0
    5.8080   14.7862    0.0000 O   0  0  0  0  0  0  0  0  0  0  0  0
    4.9420   12.2862    0.0000 O   0  0  0  0  0  0  0  0  0  0  0  0
    4.9338    4.6200    0.0000 N   0  0  0  0  0  0  0  0  0  0  0  0
    6.6659    3.6200    0.0000 N   0  0  0  0  0  0  0  0  0  0  0  0
    3.2018    7.6200    0.0000 N   0  0  0  0  0  0  0  0  0  0  0  0
    5.7998    5.1200    0.0000 C   0  0  0  0  0  0  0  0  0  0  0  0
    4.9338    3.6200    0.0000 C   0  0  0  0  0  0  0  0  0  0  0  0
    4.0678    5.1200    0.0000 C   0  0  0  0  0  0  0  0  0  0  0  0
    6.6659    4.6200    0.0000 C   0  0  0  0  0  0  0  0  0  0  0  0
    5.7998    3.1200    0.0000 C   0  0  0  0  0  0  0  0  0  0  0  0
    4.0678    6.1200    0.0000 C   0  0  0  0  0  0  0  0  0  0  0  0
    3.2018    6.6200    0.0000 C   0  0  0  0  0  0  0  0  0  0  0  0
    7.5319    3.1200    0.0000 C   0  0  0  0  0  0  0  0  0  0  0  0
    2.3358    8.1200    0.0000 C   0  0  0  0  0  0  0  0  0  0  0  0
    3.2018    9.6200    0.0000 C   0  0  0  0  0  0  0  0  0  0  0  0
    2.3358    9.1200    0.0000 C   0  0  0  0  0  0  0  0  0  0  0  0
    4.0678    9.1200    0.0000 C   0  0  0  0  0  0  0  0  0  0  0  0
    4.0678    8.1200    0.0000 C   0  0  0  0  0  0  0  0  0  0  0  0
    7.5319    2.1200    0.0000 C   0  0  0  0  0  0  0  0  0  0  0  0
    8.3979    3.6200    0.0000 C   0  0  0  0  0  0  0  0  0  0  0  0
    1.4418    7.5853    0.0000 C   0  0  0  0  0  0  0  0  0  0  0  0
    1.4418    9.6547    0.0000 C   0  0  0  0  0  0  0  0  0  0  0  0
    0.5357    8.0992    0.0000 C   0  0  0  0  0  0  0  0  0  0  0  0
    8.3979    1.6200    0.0000 C   0  0  0  0  0  0  0  0  0  0  0  0
    9.2640    3.1200    0.0000 C   0  0  0  0  0  0  0  0  0  0  0  0
    0.5357    9.1408    0.0000 C   0  0  0  0  0  0  0  0  0  0  0  0
    9.2640    2.1200    0.0000 C   0  0  0  0  0  0  0  0  0  0  0  0
   10.1300    0.6200    0.0000 C   0  0  0  0  0  0  0  0  0  0  0  0
    5.8080   13.7862    0.0000 C   0  0  0  0  0  0  0  0  0  0  0  0
    4.9420   13.2862    0.0000 C   0  0  0  0  0  0  0  0  0  0  0  0
    6.1984    5.5950    0.0000 H   0  0  0  0  0  0  0  0  0  0  0  0
    5.4013    5.5950    0.0000 H   0  0  0  0  0  0  0  0  0  0  0  0
    4.3232    3.7277    0.0000 H   0  0  0  0  0  0  0  0  0  0  0  0
    4.7218    3.0374    0.0000 H   0  0  0  0  0  0  0  0  0  0  0  0
    3.4572    5.2277    0.0000 H   0  0  0  0  0  0  0  0  0  0  0  0
    3.8557    4.5374    0.0000 H   0  0  0  0  0  0  0  0  0  0  0  0
    7.2764    4.5123    0.0000 H   0  0  0  0  0  0  0  0  0  0  0  0
    6.8779    5.2026    0.0000 H   0  0  0  0  0  0  0  0  0  0  0  0
    5.4013    2.6450    0.0000 H   0  0  0  0  0  0  0  0  0  0  0  0
    6.1984    2.6450    0.0000 H   0  0  0  0  0  0  0  0  0  0  0  0
    4.6784    6.0123    0.0000 H   0  0  0  0  0  0  0  0  0  0  0  0
    4.2798    6.7026    0.0000 H   0  0  0  0  0  0  0  0  0  0  0  0
    2.5912    6.7277    0.0000 H   0  0  0  0  0  0  0  0  0  0  0  0
    2.9897    6.0374    0.0000 H   0  0  0  0  0  0  0  0  0  0  0  0
    3.6003   10.0949    0.0000 H   0  0  0  0  0  0  0  0  0  0  0  0
    2.8032   10.0949    0.0000 H   0  0  0  0  0  0  0  0  0  0  0  0
    4.6784    9.0123    0.0000 H   0  0  0  0  0  0  0  0  0  0  0  0
    4.2798    9.7026    0.0000 H   0  0  0  0  0  0  0  0  0  0  0  0
    6.9950    1.8100    0.0000 H   0  0  0  0  0  0  0  0  0  0  0  0
    8.3979    4.2400    0.0000 H   0  0  0  0  0  0  0  0  0  0  0  0
    1.4490    6.9654    0.0000 H   0  0  0  0  0  0  0  0  0  0  0  0
    1.4490   10.2746    0.0000 H   0  0  0  0  0  0  0  0  0  0  0  0
    0.0000    7.7871    0.0000 H   0  0  0  0  0  0  0  0  0  0  0  0
    8.3979    1.0000    0.0000 H   0  0  0  0  0  0  0  0  0  0  0  0
    9.8009    3.4300    0.0000 H   0  0  0  0  0  0  0  0  0  0  0  0
    0.0000    9.4529    0.0000 H   0  0  0  0  0  0  0  0  0  0  0  0
    9.5100    0.6200    0.0000 H   0  0  0  0  0  0  0  0  0  0  0  0
   10.1300    0.0000    0.0000 H   0  0  0  0  0  0  0  0  0  0  0  0
   10.7500    0.6200    0.0000 H   0  0  0  0  0  0  0  0  0  0  0  0
    7.2110   13.5962    0.0000 H   0  0  0  0  0  0  0  0  0  0  0  0
    3.5390   13.4762    0.0000 H   0  0  0  0  0  0  0  0  0  0  0  0
  1 22  2  0  0  0  0
  2 31  1  0  0  0  0
  2 32  1  0  0  0  0
  3 33  1  0  0  0  0
  3 64  1  0  0  0  0
  4 34  1  0  0  0  0
  4 65  1  0  0  0  0
  5 33  2  0  0  0  0
  6 34  2  0  0  0  0
  7 10  1  0  0  0  0
  7 11  1  0  0  0  0
  7 12  1  0  0  0  0
  8 13  1  0  0  0  0
  8 14  1  0  0  0  0
  8 17  1  0  0  0  0
  9 16  1  0  0  0  0
  9 18  1  0  0  0  0
  9 22  1  0  0  0  0
 10 13  1  0  0  0  0
 10 35  1  0  0  0  0
 10 36  1  0  0  0  0
 11 14  1  0  0  0  0
 11 37  1  0  0  0  0
 11 38  1  0  0  0  0
 12 15  1  0  0  0  0
 12 39  1  0  0  0  0
 12 40  1  0  0  0  0
 13 41  1  0  0  0  0
 13 42  1  0  0  0  0
 14 43  1  0  0  0  0
 14 44  1  0  0  0  0
 15 16  1  0  0  0  0
 15 45  1  0  0  0  0
 15 46  1  0  0  0  0
 16 47  1  0  0  0  0
 16 48  1  0  0  0  0
 17 23  2  0  0  0  0
 17 24  1  0  0  0  0
 18 20  1  0  0  0  0
 18 25  2  0  0  0  0
 19 20  1  0  0  0  0
 19 21  1  0  0  0  0
 19 49  1  0  0  0  0
 19 50  1  0  0  0  0
 20 26  2  0  0  0  0
 21 22  1  0  0  0  0
 21 51  1  0  0  0  0
 21 52  1  0  0  0  0
 23 28  1  0  0  0  0
 23 53  1  0  0  0  0
 24 29  2  0  0  0  0
 24 54  1  0  0  0  0
 25 27  1  0  0  0  0
 25 55  1  0  0  0  0
 26 30  1  0  0  0  0
 26 56  1  0  0  0  0
 27 30  2  0  0  0  0
 27 57  1  0  0  0  0
 28 31  2  0  0  0  0
 28 58  1  0  0  0  0
 29 31  1  0  0  0  0
 29 59  1  0  0  0  0
 30 60  1  0  0  0  0
 32 61  1  0  0  0  0
 32 62  1  0  0  0  0
 32 63  1  0  0  0  0
 33 34  1  0  0  0  0
M  END
> <PUBCHEM_COMPOUND_CID>
168277063

> <PUBCHEM_COMPOUND_CANONICALIZED>
1

> <PUBCHEM_CACTVS_COMPLEXITY>
570

> <PUBCHEM_CACTVS_HBOND_ACCEPTOR>
8

> <PUBCHEM_CACTVS_HBOND_DONOR>
2

> <PUBCHEM_CACTVS_ROTATABLE_BOND>
7

> <PUBCHEM_CACTVS_SUBSKEYS>
AAADceB7OAAAAAAAAAAAAAAAAAAAAAAAAAA8eIEAAAAAAACxQAAAHgAACAAADAzBmAYyzoMABgCIAiXSWAKCCAAhIgAIiAFObIgNZjLE8ZuUMChkxhHJ6Ae4yYCeAEAAAAACAAAAgAAAAAQAAAAAAAAAAA==

> <PUBCHEM_IUPAC_OPENEYE_NAME>
1-[3-[4-(4-methoxyphenyl)piperazin-1-yl]propyl]-3,4-dihydroquinolin-2-one;oxalic acid

> <PUBCHEM_IUPAC_CAS_NAME>
1-[3-[4-(4-methoxyphenyl)-1-piperazinyl]propyl]-3,4-dihydroquinolin-2-one;oxalic acid

> <PUBCHEM_IUPAC_NAME_MARKUP>
1-[3-[4-(4-methoxyphenyl)piperazin-1-yl]propyl]-3,4-dihydroquinolin-2-one;oxalic acid

> <PUBCHEM_IUPAC_NAME>
1-[3-[4-(4-methoxyphenyl)piperazin-1-yl]propyl]-3,4-dihydroquinolin-2-one;oxalic acid

> <PUBCHEM_IUPAC_SYSTEMATIC_NAME>
ethanedioic acid;1-[3-[4-(4-methoxyphenyl)piperazin-1-yl]propyl]-3,4-dihydroquinolin-2-one

> <PUBCHEM_IUPAC_TRADITIONAL_NAME>
1-[3-[4-(4-methoxyphenyl)piperazino]propyl]-3,4-dihydrocarbostyril;oxalic acid

> <PUBCHEM_IUPAC_INCHI>
InChI=1S/C23H29N3O2.C2H2O4/c1-28-21-10-8-20(9-11-21)25-17-15-24(16-18-25)13-4-14-26-22-6-3-2-5-19(22)7-12-23(26)27;3-1(4)2(5)6/h2-3,5-6,8-11H,4,7,12-18H2,1H3;(H,3,4)(H,5,6)

> <PUBCHEM_IUPAC_INCHIKEY>
OWVLRKDFHCPGKC-UHFFFAOYSA-N

> <PUBCHEM_EXACT_MASS>
469.22128572

> <PUBCHEM_MOLECULAR_FORMULA>
C25H31N3O6

> <PUBCHEM_MOLECULAR_WEIGHT>
469.5

> <PUBCHEM_OPENEYE_CAN_SMILES>
COC1=CC=C(C=C1)N2CCN(CC2)CCCN3C(=O)CCC4=CC=CC=C43.C(=O)(C(=O)O)O

> <PUBCHEM_OPENEYE_ISO_SMILES>
COC1=CC=C(C=C1)N2CCN(CC2)CCCN3C(=O)CCC4=CC=CC=C43.C(=O)(C(=O)O)O

> <PUBCHEM_CACTVS_TPSA>
111

> <PUBCHEM_MONOISOTOPIC_WEIGHT>
469.22128572

> <PUBCHEM_TOTAL_CHARGE>
0

> <PUBCHEM_HEAVY_ATOM_COUNT>
34

> <PUBCHEM_ATOM_DEF_STEREO_COUNT>
0

> <PUBCHEM_ATOM_UDEF_STEREO_COUNT>
0

> <PUBCHEM_BOND_DEF_STEREO_COUNT>
0

> <PUBCHEM_BOND_UDEF_STEREO_COUNT>
0

> <PUBCHEM_ISOTOPIC_ATOM_COUNT>
0

> <PUBCHEM_COMPONENT_COUNT>
2

> <PUBCHEM_CACTVS_TAUTO_COUNT>
-1

> <PUBCHEM_COORDINATE_TYPE>
1
5
255

> <PUBCHEM_BONDANNOTATIONS>
17  23  8
17  24  8
18  20  8
18  25  8
20  26  8
23  28  8
24  29  8
25  27  8
26  30  8
27  30  8
28  31  8
29  31  8

$$$$
