122181333
  -OEChem-09292322362D

 54 56  0     1  0  0  0  0  0999 V2000
   12.7619   -3.8971    0.0000 F   0  0  0  0  0  0  0  0  0  0  0  0
    9.7619    1.2990    0.0000 O   0  0  0  0  0  0  0  0  0  0  0  0
    6.2619    2.1651    0.0000 N   0  0  3  0  0  0  0  0  0  0  0  0
    8.2619    0.4330    0.0000 N   0  0  0  0  0  0  0  0  0  0  0  0
    5.2619    2.1651    0.0000 C   0  0  0  0  0  0  0  0  0  0  0  0
    4.6783    1.3603    0.0000 C   0  0  0  0  0  0  0  0  0  0  0  0
    4.6783    2.9698    0.0000 C   0  0  0  0  0  0  0  0  0  0  0  0
    3.7320    1.6651    0.0000 C   0  0  0  0  0  0  0  0  0  0  0  0
    3.7320    2.6651    0.0000 C   0  0  0  0  0  0  0  0  0  0  0  0
    6.7619    3.0311    0.0000 C   0  0  0  0  0  0  0  0  0  0  0  0
    6.7619    1.2990    0.0000 C   0  0  0  0  0  0  0  0  0  0  0  0
    2.8660    1.1651    0.0000 C   0  0  0  0  0  0  0  0  0  0  0  0
    2.8660    3.1651    0.0000 C   0  0  0  0  0  0  0  0  0  0  0  0
    7.7619    3.0311    0.0000 C   0  0  0  0  0  0  0  0  0  0  0  0
    7.7619    1.2990    0.0000 C   0  0  0  0  0  0  0  0  0  0  0  0
    2.0000    1.6651    0.0000 C   0  0  0  0  0  0  0  0  0  0  0  0
    2.0000    2.6651    0.0000 C   0  0  0  0  0  0  0  0  0  0  0  0
    8.2619    3.8971    0.0000 C   0  0  0  0  0  0  0  0  0  0  0  0
    9.2619    0.4330    0.0000 C   0  0  0  0  0  0  0  0  0  0  0  0
    9.7619   -0.4330    0.0000 C   0  0  0  0  0  0  0  0  0  0  0  0
   10.7619   -0.4330    0.0000 C   0  0  0  0  0  0  0  0  0  0  0  0
   11.2619   -1.2990    0.0000 C   0  0  0  0  0  0  0  0  0  0  0  0
   12.2619   -1.2990    0.0000 C   0  0  0  0  0  0  0  0  0  0  0  0
   10.7619   -2.1651    0.0000 C   0  0  0  0  0  0  0  0  0  0  0  0
   12.7619   -2.1651    0.0000 C   0  0  0  0  0  0  0  0  0  0  0  0
   11.2619   -3.0311    0.0000 C   0  0  0  0  0  0  0  0  0  0  0  0
   12.2619   -3.0311    0.0000 C   0  0  0  0  0  0  0  0  0  0  0  0
    5.5436    2.7174    0.0000 H   0  0  0  0  0  0  0  0  0  0  0  0
    4.4272    0.7934    0.0000 H   0  0  0  0  0  0  0  0  0  0  0  0
    5.2156    1.0511    0.0000 H   0  0  0  0  0  0  0  0  0  0  0  0
    5.2156    3.2790    0.0000 H   0  0  0  0  0  0  0  0  0  0  0  0
    4.4272    3.5367    0.0000 H   0  0  0  0  0  0  0  0  0  0  0  0
    6.8695    3.6417    0.0000 H   0  0  0  0  0  0  0  0  0  0  0  0
    6.1793    3.2431    0.0000 H   0  0  0  0  0  0  0  0  0  0  0  0
    6.1793    1.0870    0.0000 H   0  0  0  0  0  0  0  0  0  0  0  0
    6.8695    0.6885    0.0000 H   0  0  0  0  0  0  0  0  0  0  0  0
    2.8660    0.5451    0.0000 H   0  0  0  0  0  0  0  0  0  0  0  0
    2.8660    3.7851    0.0000 H   0  0  0  0  0  0  0  0  0  0  0  0
    7.6542    2.4205    0.0000 H   0  0  0  0  0  0  0  0  0  0  0  0
    8.3445    2.8190    0.0000 H   0  0  0  0  0  0  0  0  0  0  0  0
    8.3445    1.5111    0.0000 H   0  0  0  0  0  0  0  0  0  0  0  0
    7.6542    1.9096    0.0000 H   0  0  0  0  0  0  0  0  0  0  0  0
    1.4631    1.3551    0.0000 H   0  0  0  0  0  0  0  0  0  0  0  0
    1.4631    2.9751    0.0000 H   0  0  0  0  0  0  0  0  0  0  0  0
    8.7988    3.5871    0.0000 H   0  0  0  0  0  0  0  0  0  0  0  0
    8.5719    4.4340    0.0000 H   0  0  0  0  0  0  0  0  0  0  0  0
    7.7249    4.2071    0.0000 H   0  0  0  0  0  0  0  0  0  0  0  0
    7.9519   -0.1039    0.0000 H   0  0  0  0  0  0  0  0  0  0  0  0
    9.4519   -0.9699    0.0000 H   0  0  0  0  0  0  0  0  0  0  0  0
   11.0719    0.1039    0.0000 H   0  0  0  0  0  0  0  0  0  0  0  0
   12.5719   -0.7621    0.0000 H   0  0  0  0  0  0  0  0  0  0  0  0
   10.1419   -2.1651    0.0000 H   0  0  0  0  0  0  0  0  0  0  0  0
   13.3819   -2.1651    0.0000 H   0  0  0  0  0  0  0  0  0  0  0  0
   10.9519   -3.5680    0.0000 H   0  0  0  0  0  0  0  0  0  0  0  0
  1 27  1  0  0  0  0
  2 19  2  0  0  0  0
  3  5  1  0  0  0  0
  3 10  1  0  0  0  0
  3 11  1  0  0  0  0
  4 15  1  0  0  0  0
  4 19  1  0  0  0  0
  4 48  1  0  0  0  0
  5  6  1  0  0  0  0
  5  7  1  0  0  0  0
  5 28  1  0  0  0  0
  6  8  1  0  0  0  0
  6 29  1  0  0  0  0
  6 30  1  0  0  0  0
  7  9  1  0  0  0  0
  7 31  1  0  0  0  0
  7 32  1  0  0  0  0
  8  9  1  0  0  0  0
  8 12  2  0  0  0  0
  9 13  2  0  0  0  0
 10 14  1  0  0  0  0
 10 33  1  0  0  0  0
 10 34  1  0  0  0  0
 11 15  1  0  0  0  0
 11 35  1  0  0  0  0
 11 36  1  0  0  0  0
 12 16  1  0  0  0  0
 12 37  1  0  0  0  0
 13 17  1  0  0  0  0
 13 38  1  0  0  0  0
 14 18  1  0  0  0  0
 14 39  1  0  0  0  0
 14 40  1  0  0  0  0
 15 41  1  0  0  0  0
 15 42  1  0  0  0  0
 16 17  2  0  0  0  0
 16 43  1  0  0  0  0
 17 44  1  0  0  0  0
 18 45  1  0  0  0  0
 18 46  1  0  0  0  0
 18 47  1  0  0  0  0
 19 20  1  0  0  0  0
 20 21  2  0  0  0  0
 20 49  1  0  0  0  0
 21 22  1  0  0  0  0
 21 50  1  0  0  0  0
 22 23  2  0  0  0  0
 22 24  1  0  0  0  0
 23 25  1  0  0  0  0
 23 51  1  0  0  0  0
 24 26  2  0  0  0  0
 24 52  1  0  0  0  0
 25 27  2  0  0  0  0
 25 53  1  0  0  0  0
 26 27  1  0  0  0  0
 26 54  1  0  0  0  0
M  END
> <PUBCHEM_COMPOUND_CID>
122181333

> <PUBCHEM_COMPOUND_CANONICALIZED>
1

> <PUBCHEM_CACTVS_COMPLEXITY>
473

> <PUBCHEM_CACTVS_HBOND_ACCEPTOR>
3

> <PUBCHEM_CACTVS_HBOND_DONOR>
1

> <PUBCHEM_CACTVS_ROTATABLE_BOND>
8

> <PUBCHEM_CACTVS_SUBSKEYS>
AAADceB7IQAAAAAAAAAAAAAAAAAAAYAAAAAwYAAAAAAAAGABQAAAHwAQAAAADCjBmAwyAIPAAACIAiFSEACCAAAgAAAIiIAIAMgIYCKAkRGUIAAglgCIiYcQgIAOgAAAAAAQAAAAAAAAACAAACAACAAAAA==

> <PUBCHEM_IUPAC_OPENEYE_NAME>
(E)-3-(4-fluorophenyl)-N-[2-[indan-2-yl(propyl)amino]ethyl]prop-2-enamide

> <PUBCHEM_IUPAC_CAS_NAME>
(E)-N-[2-[2,3-dihydro-1H-inden-2-yl(propyl)amino]ethyl]-3-(4-fluorophenyl)-2-propenamide

> <PUBCHEM_IUPAC_NAME_MARKUP>
(<I>E</I>)-<I>N</I>-[2-[2,3-dihydro-1<I>H</I>-inden-2-yl(propyl)amino]ethyl]-3-(4-fluorophenyl)prop-2-enamide

> <PUBCHEM_IUPAC_NAME>
(E)-N-[2-[2,3-dihydro-1H-inden-2-yl(propyl)amino]ethyl]-3-(4-fluorophenyl)prop-2-enamide

> <PUBCHEM_IUPAC_SYSTEMATIC_NAME>
(E)-N-[2-[2,3-dihydro-1H-inden-2-yl(propyl)amino]ethyl]-3-(4-fluorophenyl)prop-2-enamide

> <PUBCHEM_IUPAC_TRADITIONAL_NAME>
(E)-3-(4-fluorophenyl)-N-[2-[indan-2-yl(propyl)amino]ethyl]acrylamide

> <PUBCHEM_IUPAC_INCHI>
InChI=1S/C23H27FN2O/c1-2-14-26(22-16-19-5-3-4-6-20(19)17-22)15-13-25-23(27)12-9-18-7-10-21(24)11-8-18/h3-12,22H,2,13-17H2,1H3,(H,25,27)/b12-9+

> <PUBCHEM_IUPAC_INCHIKEY>
RBFMCJMIEVSALT-FMIVXFBMSA-N

> <PUBCHEM_XLOGP3_AA>
4.7

> <PUBCHEM_EXACT_MASS>
366.21074165

> <PUBCHEM_MOLECULAR_FORMULA>
C23H27FN2O

> <PUBCHEM_MOLECULAR_WEIGHT>
366.5

> <PUBCHEM_OPENEYE_CAN_SMILES>
CCCN(CCNC(=O)C=CC1=CC=C(C=C1)F)C2CC3=CC=CC=C3C2

> <PUBCHEM_OPENEYE_ISO_SMILES>
CCCN(CCNC(=O)/C=C/C1=CC=C(C=C1)F)C2CC3=CC=CC=C3C2

> <PUBCHEM_CACTVS_TPSA>
32.3

> <PUBCHEM_MONOISOTOPIC_WEIGHT>
366.21074165

> <PUBCHEM_TOTAL_CHARGE>
0

> <PUBCHEM_HEAVY_ATOM_COUNT>
27

> <PUBCHEM_ATOM_DEF_STEREO_COUNT>
0

> <PUBCHEM_ATOM_UDEF_STEREO_COUNT>
0

> <PUBCHEM_BOND_DEF_STEREO_COUNT>
1

> <PUBCHEM_BOND_UDEF_STEREO_COUNT>
0

> <PUBCHEM_ISOTOPIC_ATOM_COUNT>
0

> <PUBCHEM_COMPONENT_COUNT>
1

> <PUBCHEM_CACTVS_TAUTO_COUNT>
-1

> <PUBCHEM_COORDINATE_TYPE>
1
5
255

> <PUBCHEM_BONDANNOTATIONS>
12  16  8
13  17  8
16  17  8
22  23  8
22  24  8
23  25  8
24  26  8
25  27  8
26  27  8
8  12  8
8  9  8
9  13  8

$$$$
