44338264
  -OEChem-09292322192D

 50 54  0     0  0  0  0  0  0999 V2000
    8.9030    1.8870    0.0000 Cl  0  0  0  0  0  0  0  0  0  0  0  0
    6.2619   -0.6931    0.0000 S   0  0  0  0  0  0  0  0  0  0  0  0
   11.3497   -2.3681    0.0000 O   0  0  0  0  0  0  0  0  0  0  0  0
    4.6783    0.1117    0.0000 N   0  0  0  0  0  0  0  0  0  0  0  0
    4.6783   -1.4978    0.0000 N   0  0  0  0  0  0  0  0  0  0  0  0
   11.3497   -0.7501    0.0000 N   0  0  0  0  0  0  0  0  0  0  0  0
   12.3007   -2.0591    0.0000 N   0  0  0  0  0  0  0  0  0  0  0  0
    3.7320   -0.1931    0.0000 C   0  0  0  0  0  0  0  0  0  0  0  0
    4.9889    1.0622    0.0000 C   0  0  0  0  0  0  0  0  0  0  0  0
    5.2619   -0.6931    0.0000 C   0  0  0  0  0  0  0  0  0  0  0  0
    3.7320   -1.1931    0.0000 C   0  0  0  0  0  0  0  0  0  0  0  0
    5.9674    1.2684    0.0000 C   0  0  0  0  0  0  0  0  0  0  0  0
    2.8660    0.3069    0.0000 C   0  0  0  0  0  0  0  0  0  0  0  0
    2.8660   -1.6931    0.0000 C   0  0  0  0  0  0  0  0  0  0  0  0
    6.7619   -1.5591    0.0000 C   0  0  0  0  0  0  0  0  0  0  0  0
    7.7619   -1.5591    0.0000 C   0  0  0  0  0  0  0  0  0  0  0  0
    2.0000   -0.1931    0.0000 C   0  0  0  0  0  0  0  0  0  0  0  0
    6.6353    0.5241    0.0000 C   0  0  0  0  0  0  0  0  0  0  0  0
    6.2781    2.2189    0.0000 C   0  0  0  0  0  0  0  0  0  0  0  0
    2.0000   -1.1931    0.0000 C   0  0  0  0  0  0  0  0  0  0  0  0
    8.2619   -2.4251    0.0000 C   0  0  0  0  0  0  0  0  0  0  0  0
    8.2619   -0.6931    0.0000 C   0  0  0  0  0  0  0  0  0  0  0  0
    7.6138    0.7303    0.0000 C   0  0  0  0  0  0  0  0  0  0  0  0
    7.2566    2.4251    0.0000 C   0  0  0  0  0  0  0  0  0  0  0  0
    9.7619   -1.5591    0.0000 C   0  0  0  0  0  0  0  0  0  0  0  0
    9.2619   -2.4251    0.0000 C   0  0  0  0  0  0  0  0  0  0  0  0
    9.2619   -0.6931    0.0000 C   0  0  0  0  0  0  0  0  0  0  0  0
    7.9244    1.6808    0.0000 C   0  0  0  0  0  0  0  0  0  0  0  0
   10.7619   -1.5591    0.0000 C   0  0  0  0  0  0  0  0  0  0  0  0
   12.3007   -1.0591    0.0000 C   0  0  0  0  0  0  0  0  0  0  0  0
   13.1097   -0.4713    0.0000 C   0  0  0  0  0  0  0  0  0  0  0  0
    4.9684    1.6818    0.0000 H   0  0  0  0  0  0  0  0  0  0  0  0
    4.3751    1.1495    0.0000 H   0  0  0  0  0  0  0  0  0  0  0  0
    2.8660    0.9269    0.0000 H   0  0  0  0  0  0  0  0  0  0  0  0
    2.8660   -2.3131    0.0000 H   0  0  0  0  0  0  0  0  0  0  0  0
    6.1793   -1.7712    0.0000 H   0  0  0  0  0  0  0  0  0  0  0  0
    6.8695   -2.1697    0.0000 H   0  0  0  0  0  0  0  0  0  0  0  0
    1.4631    0.1169    0.0000 H   0  0  0  0  0  0  0  0  0  0  0  0
    6.4427   -0.0652    0.0000 H   0  0  0  0  0  0  0  0  0  0  0  0
    5.8640    2.6804    0.0000 H   0  0  0  0  0  0  0  0  0  0  0  0
    1.4631   -1.5031    0.0000 H   0  0  0  0  0  0  0  0  0  0  0  0
    7.9519   -2.9621    0.0000 H   0  0  0  0  0  0  0  0  0  0  0  0
    7.9519   -0.1561    0.0000 H   0  0  0  0  0  0  0  0  0  0  0  0
    8.0279    0.2688    0.0000 H   0  0  0  0  0  0  0  0  0  0  0  0
    7.4492    3.0144    0.0000 H   0  0  0  0  0  0  0  0  0  0  0  0
    9.5719   -2.9621    0.0000 H   0  0  0  0  0  0  0  0  0  0  0  0
    9.5719   -0.1561    0.0000 H   0  0  0  0  0  0  0  0  0  0  0  0
   13.4742   -0.9729    0.0000 H   0  0  0  0  0  0  0  0  0  0  0  0
   13.6113   -0.1069    0.0000 H   0  0  0  0  0  0  0  0  0  0  0  0
   12.7453    0.0303    0.0000 H   0  0  0  0  0  0  0  0  0  0  0  0
  1 28  1  0  0  0  0
  2 10  1  0  0  0  0
  2 15  1  0  0  0  0
  3  7  1  0  0  0  0
  3 29  1  0  0  0  0
  4  8  1  0  0  0  0
  4  9  1  0  0  0  0
  4 10  1  0  0  0  0
  5 10  2  0  0  0  0
  5 11  1  0  0  0  0
  6 29  2  0  0  0  0
  6 30  1  0  0  0  0
  7 30  2  0  0  0  0
  8 11  1  0  0  0  0
  8 13  2  0  0  0  0
  9 12  1  0  0  0  0
  9 32  1  0  0  0  0
  9 33  1  0  0  0  0
 11 14  2  0  0  0  0
 12 18  2  0  0  0  0
 12 19  1  0  0  0  0
 13 17  1  0  0  0  0
 13 34  1  0  0  0  0
 14 20  1  0  0  0  0
 14 35  1  0  0  0  0
 15 16  1  0  0  0  0
 15 36  1  0  0  0  0
 15 37  1  0  0  0  0
 16 21  2  0  0  0  0
 16 22  1  0  0  0  0
 17 20  2  0  0  0  0
 17 38  1  0  0  0  0
 18 23  1  0  0  0  0
 18 39  1  0  0  0  0
 19 24  2  0  0  0  0
 19 40  1  0  0  0  0
 20 41  1  0  0  0  0
 21 26  1  0  0  0  0
 21 42  1  0  0  0  0
 22 27  2  0  0  0  0
 22 43  1  0  0  0  0
 23 28  2  0  0  0  0
 23 44  1  0  0  0  0
 24 28  1  0  0  0  0
 24 45  1  0  0  0  0
 25 26  2  0  0  0  0
 25 27  1  0  0  0  0
 25 29  1  0  0  0  0
 26 46  1  0  0  0  0
 27 47  1  0  0  0  0
 30 31  1  0  0  0  0
 31 48  1  0  0  0  0
 31 49  1  0  0  0  0
 31 50  1  0  0  0  0
M  END
> <PUBCHEM_COMPOUND_CID>
44338264

> <PUBCHEM_COMPOUND_CANONICALIZED>
1

> <PUBCHEM_CACTVS_COMPLEXITY>
570

> <PUBCHEM_CACTVS_HBOND_ACCEPTOR>
5

> <PUBCHEM_CACTVS_HBOND_DONOR>
0

> <PUBCHEM_CACTVS_ROTATABLE_BOND>
6

> <PUBCHEM_CACTVS_SUBSKEYS>
AAADceB7oABEAAAAAAAAAAAAAAAAAWLAAAAwYMAAAAAAAFgB/AAAHgYEAAAADArF3ySz0LccEAipAydydgCC0C1lF7Ap2CE4ftiIbrLhn5GUMQhsxQPIyaeYyDCORAAAAAAAACCIAAAAAAAAQAAAAAAAAA==

> <PUBCHEM_IUPAC_OPENEYE_NAME>
5-[4-[[1-[(4-chlorophenyl)methyl]benzimidazol-2-yl]sulfanylmethyl]phenyl]-3-methyl-1,2,4-oxadiazole

> <PUBCHEM_IUPAC_CAS_NAME>
5-[4-[[[1-[(4-chlorophenyl)methyl]-2-benzimidazolyl]thio]methyl]phenyl]-3-methyl-1,2,4-oxadiazole

> <PUBCHEM_IUPAC_NAME_MARKUP>
5-[4-[[1-[(4-chlorophenyl)methyl]benzimidazol-2-yl]sulfanylmethyl]phenyl]-3-methyl-1,2,4-oxadiazole

> <PUBCHEM_IUPAC_NAME>
5-[4-[[1-[(4-chlorophenyl)methyl]benzimidazol-2-yl]sulfanylmethyl]phenyl]-3-methyl-1,2,4-oxadiazole

> <PUBCHEM_IUPAC_SYSTEMATIC_NAME>
5-[4-[[1-[(4-chlorophenyl)methyl]benzimidazol-2-yl]sulfanylmethyl]phenyl]-3-methyl-1,2,4-oxadiazole

> <PUBCHEM_IUPAC_TRADITIONAL_NAME>
5-[4-[[[1-(4-chlorobenzyl)benzimidazol-2-yl]thio]methyl]phenyl]-3-methyl-1,2,4-oxadiazole

> <PUBCHEM_IUPAC_INCHI>
InChI=1S/C24H19ClN4OS/c1-16-26-23(30-28-16)19-10-6-18(7-11-19)15-31-24-27-21-4-2-3-5-22(21)29(24)14-17-8-12-20(25)13-9-17/h2-13H,14-15H2,1H3

> <PUBCHEM_IUPAC_INCHIKEY>
XRLKXFYGGNVIJA-UHFFFAOYSA-N

> <PUBCHEM_XLOGP3_AA>
6.3

> <PUBCHEM_EXACT_MASS>
446.0968101

> <PUBCHEM_MOLECULAR_FORMULA>
C24H19ClN4OS

> <PUBCHEM_MOLECULAR_WEIGHT>
447.0

> <PUBCHEM_OPENEYE_CAN_SMILES>
CC1=NOC(=N1)C2=CC=C(C=C2)CSC3=NC4=CC=CC=C4N3CC5=CC=C(C=C5)Cl

> <PUBCHEM_OPENEYE_ISO_SMILES>
CC1=NOC(=N1)C2=CC=C(C=C2)CSC3=NC4=CC=CC=C4N3CC5=CC=C(C=C5)Cl

> <PUBCHEM_CACTVS_TPSA>
82

> <PUBCHEM_MONOISOTOPIC_WEIGHT>
446.0968101

> <PUBCHEM_TOTAL_CHARGE>
0

> <PUBCHEM_HEAVY_ATOM_COUNT>
31

> <PUBCHEM_ATOM_DEF_STEREO_COUNT>
0

> <PUBCHEM_ATOM_UDEF_STEREO_COUNT>
0

> <PUBCHEM_BOND_DEF_STEREO_COUNT>
0

> <PUBCHEM_BOND_UDEF_STEREO_COUNT>
0

> <PUBCHEM_ISOTOPIC_ATOM_COUNT>
0

> <PUBCHEM_COMPONENT_COUNT>
1

> <PUBCHEM_CACTVS_TAUTO_COUNT>
-1

> <PUBCHEM_COORDINATE_TYPE>
1
5
255

> <PUBCHEM_BONDANNOTATIONS>
11  14  8
12  18  8
12  19  8
13  17  8
14  20  8
16  21  8
16  22  8
17  20  8
18  23  8
19  24  8
21  26  8
22  27  8
23  28  8
24  28  8
25  26  8
25  27  8
3  29  8
3  7  8
4  10  8
4  8  8
5  10  8
5  11  8
6  29  8
6  30  8
7  30  8
8  11  8
8  13  8

$$$$
