45261734
  -OEChem-09292322132D

 54 56  0     1  0  0  0  0  0999 V2000
    5.4310    0.0000    0.0000 Cl  0  0  0  0  0  0  0  0  0  0  0  0
    0.0000    5.6368    0.0000 F   0  0  0  0  0  0  0  0  0  0  0  0
    0.3660    4.2708    0.0000 F   0  0  0  0  0  0  0  0  0  0  0  0
    1.3660    6.0028    0.0000 F   0  0  0  0  0  0  0  0  0  0  0  0
    8.6602    3.6368    0.0000 O   0  0  0  0  0  0  0  0  0  0  0  0
    5.1962    3.6368    0.0000 N   0  0  0  0  0  0  0  0  0  0  0  0
    6.9282    4.6368    0.0000 C   0  0  0  0  0  0  0  0  0  0  0  0
    7.7942    5.1368    0.0000 C   0  0  3  0  0  0  0  0  0  0  0  0
    6.9282    3.6368    0.0000 C   0  0  0  0  0  0  0  0  0  0  0  0
    6.0622    5.1368    0.0000 C   0  0  0  0  0  0  0  0  0  0  0  0
    6.0622    3.1368    0.0000 C   0  0  0  0  0  0  0  0  0  0  0  0
    5.1962    4.6368    0.0000 C   0  0  0  0  0  0  0  0  0  0  0  0
    7.7942    6.1368    0.0000 C   0  0  0  0  0  0  0  0  0  0  0  0
    8.6602    4.6368    0.0000 C   0  0  0  0  0  0  0  0  0  0  0  0
    8.6602    6.6368    0.0000 C   0  0  0  0  0  0  0  0  0  0  0  0
    9.5263    5.1368    0.0000 C   0  0  0  0  0  0  0  0  0  0  0  0
    9.5263    6.1368    0.0000 C   0  0  0  0  0  0  0  0  0  0  0  0
    4.3301    3.1368    0.0000 C   0  0  0  0  0  0  0  0  0  0  0  0
    3.4641    3.6368    0.0000 C   0  0  0  0  0  0  0  0  0  0  0  0
   10.4202    4.6021    0.0000 C   0  0  0  0  0  0  0  0  0  0  0  0
   10.4202    6.6714    0.0000 C   0  0  0  0  0  0  0  0  0  0  0  0
   11.3263    5.1160    0.0000 C   0  0  0  0  0  0  0  0  0  0  0  0
   11.3263    6.1576    0.0000 C   0  0  0  0  0  0  0  0  0  0  0  0
    2.5981    3.1368    0.0000 C   0  0  0  0  0  0  0  0  0  0  0  0
    3.4641    4.6368    0.0000 C   0  0  0  0  0  0  0  0  0  0  0  0
    1.7320    3.6368    0.0000 C   0  0  0  0  0  0  0  0  0  0  0  0
    2.5981    5.1368    0.0000 C   0  0  0  0  0  0  0  0  0  0  0  0
    1.7320    4.6368    0.0000 C   0  0  0  0  0  0  0  0  0  0  0  0
    0.8660    5.1368    0.0000 C   0  0  0  0  0  0  0  0  0  0  0  0
    7.4651    4.3268    0.0000 H   0  0  0  0  0  0  0  0  0  0  0  0
    7.2573    5.4468    0.0000 H   0  0  0  0  0  0  0  0  0  0  0  0
    7.1403    3.0542    0.0000 H   0  0  0  0  0  0  0  0  0  0  0  0
    7.5388    3.7444    0.0000 H   0  0  0  0  0  0  0  0  0  0  0  0
    6.4607    5.6117    0.0000 H   0  0  0  0  0  0  0  0  0  0  0  0
    5.6636    5.6117    0.0000 H   0  0  0  0  0  0  0  0  0  0  0  0
    5.6636    2.6618    0.0000 H   0  0  0  0  0  0  0  0  0  0  0  0
    6.4607    2.6618    0.0000 H   0  0  0  0  0  0  0  0  0  0  0  0
    4.9841    5.2194    0.0000 H   0  0  0  0  0  0  0  0  0  0  0  0
    4.5856    4.5291    0.0000 H   0  0  0  0  0  0  0  0  0  0  0  0
    7.5822    6.7194    0.0000 H   0  0  0  0  0  0  0  0  0  0  0  0
    7.1836    6.0291    0.0000 H   0  0  0  0  0  0  0  0  0  0  0  0
    9.0588    7.1117    0.0000 H   0  0  0  0  0  0  0  0  0  0  0  0
    8.2617    7.1117    0.0000 H   0  0  0  0  0  0  0  0  0  0  0  0
    3.9316    2.6618    0.0000 H   0  0  0  0  0  0  0  0  0  0  0  0
    4.7286    2.6618    0.0000 H   0  0  0  0  0  0  0  0  0  0  0  0
   10.4131    3.9822    0.0000 H   0  0  0  0  0  0  0  0  0  0  0  0
   10.4131    7.2914    0.0000 H   0  0  0  0  0  0  0  0  0  0  0  0
   11.8620    4.8039    0.0000 H   0  0  0  0  0  0  0  0  0  0  0  0
   11.8620    6.4697    0.0000 H   0  0  0  0  0  0  0  0  0  0  0  0
    2.5981    2.5168    0.0000 H   0  0  0  0  0  0  0  0  0  0  0  0
    4.0010    4.9468    0.0000 H   0  0  0  0  0  0  0  0  0  0  0  0
    1.1951    3.3268    0.0000 H   0  0  0  0  0  0  0  0  0  0  0  0
    2.5981    5.7568    0.0000 H   0  0  0  0  0  0  0  0  0  0  0  0
    6.4310    0.0000    0.0000 H   0  0  0  0  0  0  0  0  0  0  0  0
  1 54  1  0  0  0  0
  2 29  1  0  0  0  0
  3 29  1  0  0  0  0
  4 29  1  0  0  0  0
  5 14  2  0  0  0  0
  6 11  1  0  0  0  0
  6 12  1  0  0  0  0
  6 18  1  0  0  0  0
  7  8  1  0  0  0  0
  7  9  1  0  0  0  0
  7 10  1  0  0  0  0
  7 30  1  0  0  0  0
  8 13  1  0  0  0  0
  8 14  1  0  0  0  0
  8 31  1  0  0  0  0
  9 11  1  0  0  0  0
  9 32  1  0  0  0  0
  9 33  1  0  0  0  0
 10 12  1  0  0  0  0
 10 34  1  0  0  0  0
 10 35  1  0  0  0  0
 11 36  1  0  0  0  0
 11 37  1  0  0  0  0
 12 38  1  0  0  0  0
 12 39  1  0  0  0  0
 13 15  1  0  0  0  0
 13 40  1  0  0  0  0
 13 41  1  0  0  0  0
 14 16  1  0  0  0  0
 15 17  1  0  0  0  0
 15 42  1  0  0  0  0
 15 43  1  0  0  0  0
 16 17  1  0  0  0  0
 16 20  2  0  0  0  0
 17 21  2  0  0  0  0
 18 19  1  0  0  0  0
 18 44  1  0  0  0  0
 18 45  1  0  0  0  0
 19 24  2  0  0  0  0
 19 25  1  0  0  0  0
 20 22  1  0  0  0  0
 20 46  1  0  0  0  0
 21 23  1  0  0  0  0
 21 47  1  0  0  0  0
 22 23  2  0  0  0  0
 22 48  1  0  0  0  0
 23 49  1  0  0  0  0
 24 26  1  0  0  0  0
 24 50  1  0  0  0  0
 25 27  2  0  0  0  0
 25 51  1  0  0  0  0
 26 28  2  0  0  0  0
 26 52  1  0  0  0  0
 27 28  1  0  0  0  0
 27 53  1  0  0  0  0
 28 29  1  0  0  0  0
M  END
> <PUBCHEM_COMPOUND_CID>
45261734

> <PUBCHEM_COMPOUND_CANONICALIZED>
1

> <PUBCHEM_CACTVS_COMPLEXITY>
533

> <PUBCHEM_CACTVS_HBOND_ACCEPTOR>
5

> <PUBCHEM_CACTVS_HBOND_DONOR>
1

> <PUBCHEM_CACTVS_ROTATABLE_BOND>
3

> <PUBCHEM_CACTVS_SUBSKEYS>
AAADceB6IYAEAAAAAAAAAAAAAAAAAAAAAAA8YMEAAAAAAADBQAAAHwAAAAAADQTBmBQwAIMAAACIAqBSAACCAAAkAAAIiAEIBMgIIDKAlRGEIQhggACIiYcYicCOwAAAAAAQAACAAAQAACAAAAAAAAAAAA==

> <PUBCHEM_IUPAC_OPENEYE_NAME>
2-[1-[[4-(trifluoromethyl)phenyl]methyl]-4-piperidyl]tetralin-1-one;hydrochloride

> <PUBCHEM_IUPAC_CAS_NAME>
2-[1-[[4-(trifluoromethyl)phenyl]methyl]-4-piperidinyl]-3,4-dihydro-2H-naphthalen-1-one;hydrochloride

> <PUBCHEM_IUPAC_NAME_MARKUP>
2-[1-[[4-(trifluoromethyl)phenyl]methyl]piperidin-4-yl]-3,4-dihydro-2<I>H</I>-naphthalen-1-one;hydrochloride

> <PUBCHEM_IUPAC_NAME>
2-[1-[[4-(trifluoromethyl)phenyl]methyl]piperidin-4-yl]-3,4-dihydro-2H-naphthalen-1-one;hydrochloride

> <PUBCHEM_IUPAC_SYSTEMATIC_NAME>
2-[1-[[4-(trifluoromethyl)phenyl]methyl]piperidin-4-yl]-3,4-dihydro-2H-naphthalen-1-one;hydrochloride

> <PUBCHEM_IUPAC_TRADITIONAL_NAME>
2-[1-[4-(trifluoromethyl)benzyl]-4-piperidyl]tetralin-1-one;hydrochloride

> <PUBCHEM_IUPAC_INCHI>
InChI=1S/C23H24F3NO.ClH/c24-23(25,26)19-8-5-16(6-9-19)15-27-13-11-18(12-14-27)21-10-7-17-3-1-2-4-20(17)22(21)28;/h1-6,8-9,18,21H,7,10-15H2;1H

> <PUBCHEM_IUPAC_INCHIKEY>
YJFYTKBPTWCDCZ-UHFFFAOYSA-N

> <PUBCHEM_EXACT_MASS>
423.1576766

> <PUBCHEM_MOLECULAR_FORMULA>
C23H25ClF3NO

> <PUBCHEM_MOLECULAR_WEIGHT>
423.9

> <PUBCHEM_OPENEYE_CAN_SMILES>
C1CC2=CC=CC=C2C(=O)C1C3CCN(CC3)CC4=CC=C(C=C4)C(F)(F)F.Cl

> <PUBCHEM_OPENEYE_ISO_SMILES>
C1CC2=CC=CC=C2C(=O)C1C3CCN(CC3)CC4=CC=C(C=C4)C(F)(F)F.Cl

> <PUBCHEM_CACTVS_TPSA>
20.3

> <PUBCHEM_MONOISOTOPIC_WEIGHT>
423.1576766

> <PUBCHEM_TOTAL_CHARGE>
0

> <PUBCHEM_HEAVY_ATOM_COUNT>
29

> <PUBCHEM_ATOM_DEF_STEREO_COUNT>
0

> <PUBCHEM_ATOM_UDEF_STEREO_COUNT>
1

> <PUBCHEM_BOND_DEF_STEREO_COUNT>
0

> <PUBCHEM_BOND_UDEF_STEREO_COUNT>
0

> <PUBCHEM_ISOTOPIC_ATOM_COUNT>
0

> <PUBCHEM_COMPONENT_COUNT>
2

> <PUBCHEM_CACTVS_TAUTO_COUNT>
-1

> <PUBCHEM_COORDINATE_TYPE>
1
5
255

> <PUBCHEM_BONDANNOTATIONS>
16  17  8
16  20  8
17  21  8
19  24  8
19  25  8
20  22  8
21  23  8
22  23  8
24  26  8
25  27  8
26  28  8
27  28  8
8  7  3

$$$$
