9954003
  -OEChem-09292322252D

 58 62  0     1  0  0  0  0  0999 V2000
    5.1496   -6.0456    0.0000 F   0  0  0  0  0  0  0  0  0  0  0  0
    7.6106    3.4256    0.0000 O   0  0  0  0  0  0  0  0  0  0  0  0
    9.3426    5.4256    0.0000 O   0  0  0  0  0  0  0  0  0  0  0  0
    5.8853    0.3912    0.0000 N   0  0  0  0  0  0  0  0  0  0  0  0
    5.8622    2.3910    0.0000 N   0  0  0  0  0  0  0  0  0  0  0  0
    7.6106    5.4256    0.0000 N   0  0  0  0  0  0  0  0  0  0  0  0
    2.6171   -2.9788    0.0000 N   0  0  0  0  0  0  0  0  0  0  0  0
    6.7455    0.9011    0.0000 C   0  0  0  0  0  0  0  0  0  0  0  0
    5.0135    0.8811    0.0000 C   0  0  0  0  0  0  0  0  0  0  0  0
    6.7339    1.9011    0.0000 C   0  0  0  0  0  0  0  0  0  0  0  0
    5.0020    1.8810    0.0000 C   0  0  0  0  0  0  0  0  0  0  0  0
    5.8968   -0.6088    0.0000 C   0  0  0  0  0  0  0  0  0  0  0  0
    5.0367   -1.1188    0.0000 C   0  0  0  0  0  0  0  0  0  0  0  0
    5.8506    3.3910    0.0000 C   0  0  0  0  0  0  0  0  0  0  0  0
    5.0482   -2.1187    0.0000 C   0  0  0  0  0  0  0  0  0  0  0  0
    6.7445    3.9256    0.0000 C   0  0  0  0  0  0  0  0  0  0  0  0
    4.1880   -2.6287    0.0000 C   0  0  0  0  0  0  0  0  0  0  0  0
    4.9445    3.9048    0.0000 C   0  0  0  0  0  0  0  0  0  0  0  0
    6.7445    4.9256    0.0000 C   0  0  0  0  0  0  0  0  0  0  0  0
    4.0964   -3.6185    0.0000 C   0  0  0  0  0  0  0  0  0  0  0  0
    8.4766    3.9256    0.0000 C   0  0  1  0  0  0  0  0  0  0  0  0
    3.2756   -2.2341    0.0000 C   0  0  0  0  0  0  0  0  0  0  0  0
    4.9445    4.9464    0.0000 C   0  0  0  0  0  0  0  0  0  0  0  0
    5.8506    5.4603    0.0000 C   0  0  0  0  0  0  0  0  0  0  0  0
    3.1204   -3.8360    0.0000 C   0  0  0  0  0  0  0  0  0  0  0  0
    8.4766    4.9256    0.0000 C   0  0  0  0  0  0  0  0  0  0  0  0
    4.7728   -4.3550    0.0000 C   0  0  0  0  0  0  0  0  0  0  0  0
    9.3426    3.4256    0.0000 C   0  0  0  0  0  0  0  0  0  0  0  0
    2.8207   -4.7901    0.0000 C   0  0  0  0  0  0  0  0  0  0  0  0
    4.4732   -5.3091    0.0000 C   0  0  0  0  0  0  0  0  0  0  0  0
    3.4971   -5.5266    0.0000 C   0  0  0  0  0  0  0  0  0  0  0  0
    6.9642    0.3210    0.0000 H   0  0  0  0  0  0  0  0  0  0  0  0
    7.3548    1.0159    0.0000 H   0  0  0  0  0  0  0  0  0  0  0  0
    4.4018    0.9817    0.0000 H   0  0  0  0  0  0  0  0  0  0  0  0
    4.8082    0.2961    0.0000 H   0  0  0  0  0  0  0  0  0  0  0  0
    7.3457    1.8005    0.0000 H   0  0  0  0  0  0  0  0  0  0  0  0
    6.9392    2.4861    0.0000 H   0  0  0  0  0  0  0  0  0  0  0  0
    4.7832    2.4612    0.0000 H   0  0  0  0  0  0  0  0  0  0  0  0
    4.3927    1.7663    0.0000 H   0  0  0  0  0  0  0  0  0  0  0  0
    6.1156   -1.1889    0.0000 H   0  0  0  0  0  0  0  0  0  0  0  0
    6.5061   -0.4941    0.0000 H   0  0  0  0  0  0  0  0  0  0  0  0
    4.8179   -0.5386    0.0000 H   0  0  0  0  0  0  0  0  0  0  0  0
    4.4274   -1.2335    0.0000 H   0  0  0  0  0  0  0  0  0  0  0  0
    5.2670   -2.6988    0.0000 H   0  0  0  0  0  0  0  0  0  0  0  0
    5.6575   -2.0040    0.0000 H   0  0  0  0  0  0  0  0  0  0  0  0
    4.4088    3.5927    0.0000 H   0  0  0  0  0  0  0  0  0  0  0  0
    8.4766    3.3056    0.0000 H   0  0  0  0  0  0  0  0  0  0  0  0
    3.1408   -1.6289    0.0000 H   0  0  0  0  0  0  0  0  0  0  0  0
    4.4088    5.2585    0.0000 H   0  0  0  0  0  0  0  0  0  0  0  0
    5.8578    6.0802    0.0000 H   0  0  0  0  0  0  0  0  0  0  0  0
    7.6106    6.0456    0.0000 H   0  0  0  0  0  0  0  0  0  0  0  0
    2.0000   -2.9190    0.0000 H   0  0  0  0  0  0  0  0  0  0  0  0
    5.3780   -4.2202    0.0000 H   0  0  0  0  0  0  0  0  0  0  0  0
    9.0326    2.8887    0.0000 H   0  0  0  0  0  0  0  0  0  0  0  0
    9.8796    3.1156    0.0000 H   0  0  0  0  0  0  0  0  0  0  0  0
    9.6526    3.9626    0.0000 H   0  0  0  0  0  0  0  0  0  0  0  0
    2.2156   -4.9250    0.0000 H   0  0  0  0  0  0  0  0  0  0  0  0
    3.3113   -6.1181    0.0000 H   0  0  0  0  0  0  0  0  0  0  0  0
  1 30  1  0  0  0  0
  2 16  1  0  0  0  0
  2 21  1  0  0  0  0
  3 26  2  0  0  0  0
  4  8  1  0  0  0  0
  4  9  1  0  0  0  0
  4 12  1  0  0  0  0
  5 10  1  0  0  0  0
  5 11  1  0  0  0  0
  5 14  1  0  0  0  0
  6 19  1  0  0  0  0
  6 26  1  0  0  0  0
  6 51  1  0  0  0  0
  7 22  1  0  0  0  0
  7 25  1  0  0  0  0
  7 52  1  0  0  0  0
  8 10  1  0  0  0  0
  8 32  1  0  0  0  0
  8 33  1  0  0  0  0
  9 11  1  0  0  0  0
  9 34  1  0  0  0  0
  9 35  1  0  0  0  0
 10 36  1  0  0  0  0
 10 37  1  0  0  0  0
 11 38  1  0  0  0  0
 11 39  1  0  0  0  0
 12 13  1  0  0  0  0
 12 40  1  0  0  0  0
 12 41  1  0  0  0  0
 13 15  1  0  0  0  0
 13 42  1  0  0  0  0
 13 43  1  0  0  0  0
 14 16  1  0  0  0  0
 14 18  2  0  0  0  0
 15 17  1  0  0  0  0
 15 44  1  0  0  0  0
 15 45  1  0  0  0  0
 16 19  2  0  0  0  0
 17 20  1  0  0  0  0
 17 22  2  0  0  0  0
 18 23  1  0  0  0  0
 18 46  1  0  0  0  0
 19 24  1  0  0  0  0
 20 25  2  0  0  0  0
 20 27  1  0  0  0  0
 21 26  1  0  0  0  0
 21 28  1  1  0  0  0
 21 47  1  0  0  0  0
 22 48  1  0  0  0  0
 23 24  2  0  0  0  0
 23 49  1  0  0  0  0
 24 50  1  0  0  0  0
 25 29  1  0  0  0  0
 27 30  2  0  0  0  0
 27 53  1  0  0  0  0
 28 54  1  0  0  0  0
 28 55  1  0  0  0  0
 28 56  1  0  0  0  0
 29 31  2  0  0  0  0
 29 57  1  0  0  0  0
 30 31  1  0  0  0  0
 31 58  1  0  0  0  0
M  END
> <PUBCHEM_COMPOUND_CID>
9954003

> <PUBCHEM_COMPOUND_CANONICALIZED>
1

> <PUBCHEM_CACTVS_COMPLEXITY>
629

> <PUBCHEM_CACTVS_HBOND_ACCEPTOR>
5

> <PUBCHEM_CACTVS_HBOND_DONOR>
2

> <PUBCHEM_CACTVS_ROTATABLE_BOND>
5

> <PUBCHEM_CACTVS_SUBSKEYS>
AAADceB7sQAAAAAAAAAAAAAAAAAAAWAAAAA8eIEAAAAAAFix9AAAHwAQAAAADBzhng4+xvPJlACoAzV3VAKCiCAxIiAI2aF9bJgOZuLE8d+XOCjk1BHY6AeQwMAOgAAAAAQCEAAAAAAACAQgAAAAAAAAAA==

> <PUBCHEM_IUPAC_OPENEYE_NAME>
(2R)-8-[4-[3-(5-fluoro-1H-indol-3-yl)propyl]piperazin-1-yl]-2-methyl-4H-1,4-benzoxazin-3-one

> <PUBCHEM_IUPAC_CAS_NAME>
(2R)-8-[4-[3-(5-fluoro-1H-indol-3-yl)propyl]-1-piperazinyl]-2-methyl-4H-1,4-benzoxazin-3-one

> <PUBCHEM_IUPAC_NAME_MARKUP>
(2<I>R</I>)-8-[4-[3-(5-fluoro-1<I>H</I>-indol-3-yl)propyl]piperazin-1-yl]-2-methyl-4<I>H</I>-1,4-benzoxazin-3-one

> <PUBCHEM_IUPAC_NAME>
(2R)-8-[4-[3-(5-fluoro-1H-indol-3-yl)propyl]piperazin-1-yl]-2-methyl-4H-1,4-benzoxazin-3-one

> <PUBCHEM_IUPAC_SYSTEMATIC_NAME>
(2R)-8-[4-[3-(5-fluoranyl-1H-indol-3-yl)propyl]piperazin-1-yl]-2-methyl-4H-1,4-benzoxazin-3-one

> <PUBCHEM_IUPAC_TRADITIONAL_NAME>
(2R)-8-[4-[3-(5-fluoro-1H-indol-3-yl)propyl]piperazino]-2-methyl-4H-1,4-benzoxazin-3-one

> <PUBCHEM_IUPAC_INCHI>
InChI=1S/C24H27FN4O2/c1-16-24(30)27-21-5-2-6-22(23(21)31-16)29-12-10-28(11-13-29)9-3-4-17-15-26-20-8-7-18(25)14-19(17)20/h2,5-8,14-16,26H,3-4,9-13H2,1H3,(H,27,30)/t16-/m1/s1

> <PUBCHEM_IUPAC_INCHIKEY>
SDAMYSWGWHXMRT-MRXNPFEDSA-N

> <PUBCHEM_XLOGP3_AA>
3.8

> <PUBCHEM_EXACT_MASS>
422.21180428

> <PUBCHEM_MOLECULAR_FORMULA>
C24H27FN4O2

> <PUBCHEM_MOLECULAR_WEIGHT>
422.5

> <PUBCHEM_OPENEYE_CAN_SMILES>
CC1C(=O)NC2=C(O1)C(=CC=C2)N3CCN(CC3)CCCC4=CNC5=C4C=C(C=C5)F

> <PUBCHEM_OPENEYE_ISO_SMILES>
C[C@@H]1C(=O)NC2=C(O1)C(=CC=C2)N3CCN(CC3)CCCC4=CNC5=C4C=C(C=C5)F

> <PUBCHEM_CACTVS_TPSA>
60.6

> <PUBCHEM_MONOISOTOPIC_WEIGHT>
422.21180428

> <PUBCHEM_TOTAL_CHARGE>
0

> <PUBCHEM_HEAVY_ATOM_COUNT>
31

> <PUBCHEM_ATOM_DEF_STEREO_COUNT>
1

> <PUBCHEM_ATOM_UDEF_STEREO_COUNT>
0

> <PUBCHEM_BOND_DEF_STEREO_COUNT>
0

> <PUBCHEM_BOND_UDEF_STEREO_COUNT>
0

> <PUBCHEM_ISOTOPIC_ATOM_COUNT>
0

> <PUBCHEM_COMPONENT_COUNT>
1

> <PUBCHEM_CACTVS_TAUTO_COUNT>
3

> <PUBCHEM_COORDINATE_TYPE>
1
5
255

> <PUBCHEM_BONDANNOTATIONS>
14  16  8
14  18  8
16  19  8
17  20  8
17  22  8
18  23  8
19  24  8
20  25  8
20  27  8
21  28  5
23  24  8
25  29  8
27  30  8
29  31  8
30  31  8
7  22  8
7  25  8

$$$$
