117870140
  -OEChem-09292322052D

 79 82  0     0  0  0  0  0  0999 V2000
   17.1279   -4.3481    0.0000 F   0  0  0  0  0  0  0  0  0  0  0  0
   17.4939   -2.9820    0.0000 F   0  0  0  0  0  0  0  0  0  0  0  0
   15.7619   -3.9820    0.0000 F   0  0  0  0  0  0  0  0  0  0  0  0
    7.6279    1.7141    0.0000 O   0  0  0  0  0  0  0  0  0  0  0  0
   11.6279   -1.7500    0.0000 N   0  0  0  0  0  0  0  0  0  0  0  0
   13.6279   -1.7500    0.0000 N   0  0  0  0  0  0  0  0  0  0  0  0
   15.1279   -0.8840    0.0000 N   0  0  0  0  0  0  0  0  0  0  0  0
   16.6279   -1.7500    0.0000 N   0  0  0  0  0  0  0  0  0  0  0  0
    7.6279   -0.0179    0.0000 N   0  0  0  0  0  0  0  0  0  0  0  0
    4.5981    1.3481    0.0000 N   0  0  0  0  0  0  0  0  0  0  0  0
    5.5443    0.0433    0.0000 N   0  0  0  0  0  0  0  0  0  0  0  0
    2.8660    3.3481    0.0000 N   0  0  0  0  0  0  0  0  0  0  0  0
   12.1279   -0.8840    0.0000 C   0  0  0  0  0  0  0  0  0  0  0  0
   12.1279   -2.6160    0.0000 C   0  0  0  0  0  0  0  0  0  0  0  0
   13.1279   -0.8840    0.0000 C   0  0  0  0  0  0  0  0  0  0  0  0
   13.1279   -2.6160    0.0000 C   0  0  0  0  0  0  0  0  0  0  0  0
   10.6279   -1.7500    0.0000 C   0  0  0  0  0  0  0  0  0  0  0  0
   10.1279   -0.8840    0.0000 C   0  0  0  0  0  0  0  0  0  0  0  0
   14.6279   -1.7500    0.0000 C   0  0  0  0  0  0  0  0  0  0  0  0
    9.1279   -0.8840    0.0000 C   0  0  0  0  0  0  0  0  0  0  0  0
   16.6279   -0.0179    0.0000 C   0  0  0  0  0  0  0  0  0  0  0  0
   16.1279   -0.8840    0.0000 C   0  0  0  0  0  0  0  0  0  0  0  0
    8.6279   -0.0179    0.0000 C   0  0  0  0  0  0  0  0  0  0  0  0
   15.1279   -2.6160    0.0000 C   0  0  0  0  0  0  0  0  0  0  0  0
   16.1279   -2.6160    0.0000 C   0  0  0  0  0  0  0  0  0  0  0  0
   17.1279    0.8481    0.0000 C   0  0  0  0  0  0  0  0  0  0  0  0
   17.4939   -0.5179    0.0000 C   0  0  0  0  0  0  0  0  0  0  0  0
   15.7619    0.4821    0.0000 C   0  0  0  0  0  0  0  0  0  0  0  0
   16.6279   -3.4820    0.0000 C   0  0  0  0  0  0  0  0  0  0  0  0
    7.1279    0.8481    0.0000 C   0  0  0  0  0  0  0  0  0  0  0  0
    6.1279    0.8481    0.0000 C   0  0  0  0  0  0  0  0  0  0  0  0
    3.7320    1.8481    0.0000 C   0  0  0  0  0  0  0  0  0  0  0  0
    5.5443    1.6528    0.0000 C   0  0  0  0  0  0  0  0  0  0  0  0
    4.5981    0.3481    0.0000 C   0  0  0  0  0  0  0  0  0  0  0  0
    3.7320    2.8481    0.0000 C   0  0  0  0  0  0  0  0  0  0  0  0
    2.8660    1.3481    0.0000 C   0  0  0  0  0  0  0  0  0  0  0  0
    3.7320   -0.1519    0.0000 C   0  0  0  0  0  0  0  0  0  0  0  0
    2.8660    0.3481    0.0000 C   0  0  0  0  0  0  0  0  0  0  0  0
    2.8660    4.3481    0.0000 C   0  0  0  0  0  0  0  0  0  0  0  0
    2.0000    2.8481    0.0000 C   0  0  0  0  0  0  0  0  0  0  0  0
   12.2356   -0.2734    0.0000 H   0  0  0  0  0  0  0  0  0  0  0  0
   11.5453   -0.6719    0.0000 H   0  0  0  0  0  0  0  0  0  0  0  0
   11.5453   -2.8281    0.0000 H   0  0  0  0  0  0  0  0  0  0  0  0
   12.2356   -3.2266    0.0000 H   0  0  0  0  0  0  0  0  0  0  0  0
   13.7105   -0.6719    0.0000 H   0  0  0  0  0  0  0  0  0  0  0  0
   13.0202   -0.2734    0.0000 H   0  0  0  0  0  0  0  0  0  0  0  0
   13.0202   -3.2266    0.0000 H   0  0  0  0  0  0  0  0  0  0  0  0
   13.7105   -2.8281    0.0000 H   0  0  0  0  0  0  0  0  0  0  0  0
   10.0453   -1.9620    0.0000 H   0  0  0  0  0  0  0  0  0  0  0  0
   10.7356   -2.3606    0.0000 H   0  0  0  0  0  0  0  0  0  0  0  0
   10.7105   -0.6719    0.0000 H   0  0  0  0  0  0  0  0  0  0  0  0
   10.0202   -0.2734    0.0000 H   0  0  0  0  0  0  0  0  0  0  0  0
    8.5453   -1.0960    0.0000 H   0  0  0  0  0  0  0  0  0  0  0  0
    9.2356   -1.4946    0.0000 H   0  0  0  0  0  0  0  0  0  0  0  0
    9.2105    0.1941    0.0000 H   0  0  0  0  0  0  0  0  0  0  0  0
    8.5202    0.5926    0.0000 H   0  0  0  0  0  0  0  0  0  0  0  0
   14.8179   -3.1530    0.0000 H   0  0  0  0  0  0  0  0  0  0  0  0
   17.6648    0.5381    0.0000 H   0  0  0  0  0  0  0  0  0  0  0  0
   17.4379    1.3850    0.0000 H   0  0  0  0  0  0  0  0  0  0  0  0
   16.5910    1.1581    0.0000 H   0  0  0  0  0  0  0  0  0  0  0  0
   17.1839   -1.0549    0.0000 H   0  0  0  0  0  0  0  0  0  0  0  0
   18.0309   -0.8279    0.0000 H   0  0  0  0  0  0  0  0  0  0  0  0
   17.8039    0.0190    0.0000 H   0  0  0  0  0  0  0  0  0  0  0  0
   16.0719    1.0190    0.0000 H   0  0  0  0  0  0  0  0  0  0  0  0
   15.2249    0.7921    0.0000 H   0  0  0  0  0  0  0  0  0  0  0  0
   15.4519   -0.0549    0.0000 H   0  0  0  0  0  0  0  0  0  0  0  0
    7.3179   -0.5549    0.0000 H   0  0  0  0  0  0  0  0  0  0  0  0
    5.7369    2.2421    0.0000 H   0  0  0  0  0  0  0  0  0  0  0  0
    4.3426    2.7404    0.0000 H   0  0  0  0  0  0  0  0  0  0  0  0
    3.9441    3.4307    0.0000 H   0  0  0  0  0  0  0  0  0  0  0  0
    2.3291    1.6581    0.0000 H   0  0  0  0  0  0  0  0  0  0  0  0
    3.7320   -0.7719    0.0000 H   0  0  0  0  0  0  0  0  0  0  0  0
    2.3291    0.0381    0.0000 H   0  0  0  0  0  0  0  0  0  0  0  0
    3.4860    4.3481    0.0000 H   0  0  0  0  0  0  0  0  0  0  0  0
    2.8660    4.9681    0.0000 H   0  0  0  0  0  0  0  0  0  0  0  0
    2.2460    4.3481    0.0000 H   0  0  0  0  0  0  0  0  0  0  0  0
    1.6900    3.3850    0.0000 H   0  0  0  0  0  0  0  0  0  0  0  0
    1.4631    2.5381    0.0000 H   0  0  0  0  0  0  0  0  0  0  0  0
    2.3100    2.3111    0.0000 H   0  0  0  0  0  0  0  0  0  0  0  0
  1 29  1  0  0  0  0
  2 29  1  0  0  0  0
  3 29  1  0  0  0  0
  4 30  2  0  0  0  0
  5 13  1  0  0  0  0
  5 14  1  0  0  0  0
  5 17  1  0  0  0  0
  6 15  1  0  0  0  0
  6 16  1  0  0  0  0
  6 19  1  0  0  0  0
  7 19  2  0  0  0  0
  7 22  1  0  0  0  0
  8 22  2  0  0  0  0
  8 25  1  0  0  0  0
  9 23  1  0  0  0  0
  9 30  1  0  0  0  0
  9 67  1  0  0  0  0
 10 32  1  0  0  0  0
 10 33  1  0  0  0  0
 10 34  1  0  0  0  0
 11 31  1  0  0  0  0
 11 34  2  0  0  0  0
 12 35  1  0  0  0  0
 12 39  1  0  0  0  0
 12 40  1  0  0  0  0
 13 15  1  0  0  0  0
 13 41  1  0  0  0  0
 13 42  1  0  0  0  0
 14 16  1  0  0  0  0
 14 43  1  0  0  0  0
 14 44  1  0  0  0  0
 15 45  1  0  0  0  0
 15 46  1  0  0  0  0
 16 47  1  0  0  0  0
 16 48  1  0  0  0  0
 17 18  1  0  0  0  0
 17 49  1  0  0  0  0
 17 50  1  0  0  0  0
 18 20  1  0  0  0  0
 18 51  1  0  0  0  0
 18 52  1  0  0  0  0
 19 24  1  0  0  0  0
 20 23  1  0  0  0  0
 20 53  1  0  0  0  0
 20 54  1  0  0  0  0
 21 22  1  0  0  0  0
 21 26  1  0  0  0  0
 21 27  1  0  0  0  0
 21 28  1  0  0  0  0
 23 55  1  0  0  0  0
 23 56  1  0  0  0  0
 24 25  2  0  0  0  0
 24 57  1  0  0  0  0
 25 29  1  0  0  0  0
 26 58  1  0  0  0  0
 26 59  1  0  0  0  0
 26 60  1  0  0  0  0
 27 61  1  0  0  0  0
 27 62  1  0  0  0  0
 27 63  1  0  0  0  0
 28 64  1  0  0  0  0
 28 65  1  0  0  0  0
 28 66  1  0  0  0  0
 30 31  1  0  0  0  0
 31 33  2  0  0  0  0
 32 35  1  0  0  0  0
 32 36  2  0  0  0  0
 33 68  1  0  0  0  0
 34 37  1  0  0  0  0
 35 69  1  0  0  0  0
 35 70  1  0  0  0  0
 36 38  1  0  0  0  0
 36 71  1  0  0  0  0
 37 38  2  0  0  0  0
 37 72  1  0  0  0  0
 38 73  1  0  0  0  0
 39 74  1  0  0  0  0
 39 75  1  0  0  0  0
 39 76  1  0  0  0  0
 40 77  1  0  0  0  0
 40 78  1  0  0  0  0
 40 79  1  0  0  0  0
M  END
> <PUBCHEM_COMPOUND_CID>
117870140

> <PUBCHEM_COMPOUND_CANONICALIZED>
1

> <PUBCHEM_CACTVS_COMPLEXITY>
814

> <PUBCHEM_CACTVS_HBOND_ACCEPTOR>
10

> <PUBCHEM_CACTVS_HBOND_DONOR>
1

> <PUBCHEM_CACTVS_ROTATABLE_BOND>
10

> <PUBCHEM_CACTVS_SUBSKEYS>
AAADcfB74YAAAAAAAAAAAAAAAAAAAWAAAAAsWLAAAAAAAFgB+AAAHwAQAAAADgjBlxQ/sJ/MGACoATd3dACCgC03EqAJ2KG4dNiIaOrA2fGUJIholgLIyOcQAAAAAAAAAAAAAAAAAAAAAAAAAAAAAAAAAA==

> <PUBCHEM_IUPAC_OPENEYE_NAME>
N-[4-[4-[2-tert-butyl-6-(trifluoromethyl)pyrimidin-4-yl]piperazin-1-yl]butyl]-5-[(dimethylamino)methyl]imidazo[1,2-a]pyridine-2-carboxamide

> <PUBCHEM_IUPAC_CAS_NAME>
N-[4-[4-[2-tert-butyl-6-(trifluoromethyl)-4-pyrimidinyl]-1-piperazinyl]butyl]-5-[(dimethylamino)methyl]-2-imidazo[1,2-a]pyridinecarboxamide

> <PUBCHEM_IUPAC_NAME_MARKUP>
<I>N</I>-[4-[4-[2-<I>tert</I>-butyl-6-(trifluoromethyl)pyrimidin-4-yl]piperazin-1-yl]butyl]-5-[(dimethylamino)methyl]imidazo[1,2-a]pyridine-2-carboxamide

> <PUBCHEM_IUPAC_NAME>
N-[4-[4-[2-tert-butyl-6-(trifluoromethyl)pyrimidin-4-yl]piperazin-1-yl]butyl]-5-[(dimethylamino)methyl]imidazo[1,2-a]pyridine-2-carboxamide

> <PUBCHEM_IUPAC_SYSTEMATIC_NAME>
N-[4-[4-[2-tert-butyl-6-(trifluoromethyl)pyrimidin-4-yl]piperazin-1-yl]butyl]-5-[(dimethylamino)methyl]imidazo[1,2-a]pyridine-2-carboxamide

> <PUBCHEM_IUPAC_TRADITIONAL_NAME>
N-[4-[4-[2-tert-butyl-6-(trifluoromethyl)pyrimidin-4-yl]piperazino]butyl]-5-[(dimethylamino)methyl]imidazo[1,2-a]pyridine-2-carboxamide

> <PUBCHEM_IUPAC_INCHI>
InChI=1S/C28H39F3N8O/c1-27(2,3)26-34-22(28(29,30)31)17-24(35-26)38-15-13-37(14-16-38)12-7-6-11-32-25(40)21-19-39-20(18-36(4)5)9-8-10-23(39)33-21/h8-10,17,19H,6-7,11-16,18H2,1-5H3,(H,32,40)

> <PUBCHEM_IUPAC_INCHIKEY>
JUJJUAKPUFHLKF-UHFFFAOYSA-N

> <PUBCHEM_XLOGP3_AA>
4.8

> <PUBCHEM_EXACT_MASS>
560.31989238

> <PUBCHEM_MOLECULAR_FORMULA>
C28H39F3N8O

> <PUBCHEM_MOLECULAR_WEIGHT>
560.7

> <PUBCHEM_OPENEYE_CAN_SMILES>
CC(C)(C)C1=NC(=CC(=N1)N2CCN(CC2)CCCCNC(=O)C3=CN4C(=N3)C=CC=C4CN(C)C)C(F)(F)F

> <PUBCHEM_OPENEYE_ISO_SMILES>
CC(C)(C)C1=NC(=CC(=N1)N2CCN(CC2)CCCCNC(=O)C3=CN4C(=N3)C=CC=C4CN(C)C)C(F)(F)F

> <PUBCHEM_CACTVS_TPSA>
81.9

> <PUBCHEM_MONOISOTOPIC_WEIGHT>
560.31989238

> <PUBCHEM_TOTAL_CHARGE>
0

> <PUBCHEM_HEAVY_ATOM_COUNT>
40

> <PUBCHEM_ATOM_DEF_STEREO_COUNT>
0

> <PUBCHEM_ATOM_UDEF_STEREO_COUNT>
0

> <PUBCHEM_BOND_DEF_STEREO_COUNT>
0

> <PUBCHEM_BOND_UDEF_STEREO_COUNT>
0

> <PUBCHEM_ISOTOPIC_ATOM_COUNT>
0

> <PUBCHEM_COMPONENT_COUNT>
1

> <PUBCHEM_CACTVS_TAUTO_COUNT>
-1

> <PUBCHEM_COORDINATE_TYPE>
1
5
255

> <PUBCHEM_BONDANNOTATIONS>
10  32  8
10  33  8
10  34  8
11  31  8
11  34  8
19  24  8
24  25  8
31  33  8
32  36  8
34  37  8
36  38  8
37  38  8
7  19  8
7  22  8
8  22  8
8  25  8

$$$$
