56944860
  -OEChem-09292322392D

 62 66  0     1  0  0  0  0  0999 V2000
    5.1132   -6.2312    0.0000 Cl  0  0  0  0  0  0  0  0  0  0  0  0
    9.3874    3.1966    0.0000 S   0  0  0  0  0  0  0  0  0  0  0  0
    8.3874    3.1966    0.0000 O   0  0  0  0  0  0  0  0  0  0  0  0
   10.3874    3.1966    0.0000 O   0  0  0  0  0  0  0  0  0  0  0  0
    6.7893   -1.3034    0.0000 N   0  0  3  0  0  0  0  0  0  0  0  0
    9.3874    2.1966    0.0000 N   0  0  0  0  0  0  0  0  0  0  0  0
    2.6164   -3.1353    0.0000 N   0  0  0  0  0  0  0  0  0  0  0  0
    5.9233   -0.8034    0.0000 C   0  0  0  0  0  0  0  0  0  0  0  0
    5.0573   -1.3034    0.0000 C   0  0  0  0  0  0  0  0  0  0  0  0
    7.6554   -0.8034    0.0000 C   0  0  0  0  0  0  0  0  0  0  0  0
    6.7893   -2.3034    0.0000 C   0  0  0  0  0  0  0  0  0  0  0  0
    5.0573   -2.3034    0.0000 C   0  0  0  0  0  0  0  0  0  0  0  0
    7.6554    0.1966    0.0000 C   0  0  0  0  0  0  0  0  0  0  0  0
    5.9233   -2.8034    0.0000 C   0  0  0  0  0  0  0  0  0  0  0  0
    8.5214    0.6966    0.0000 C   0  0  0  0  0  0  0  0  0  0  0  0
    4.1912   -2.8034    0.0000 C   0  0  0  0  0  0  0  0  0  0  0  0
    8.5214    1.6966    0.0000 C   0  0  0  0  0  0  0  0  0  0  0  0
    4.0882   -3.7921    0.0000 C   0  0  0  0  0  0  0  0  0  0  0  0
    3.2835   -2.3983    0.0000 C   0  0  0  0  0  0  0  0  0  0  0  0
    3.1097   -3.9984    0.0000 C   0  0  0  0  0  0  0  0  0  0  0  0
    4.7560   -4.5364    0.0000 C   0  0  0  0  0  0  0  0  0  0  0  0
    9.3874    4.1966    0.0000 C   0  0  0  0  0  0  0  0  0  0  0  0
    2.7990   -4.9489    0.0000 C   0  0  0  0  0  0  0  0  0  0  0  0
   10.2534    4.6966    0.0000 C   0  0  0  0  0  0  0  0  0  0  0  0
    4.4454   -5.4870    0.0000 C   0  0  0  0  0  0  0  0  0  0  0  0
    3.4669   -5.6932    0.0000 C   0  0  0  0  0  0  0  0  0  0  0  0
   10.2534    5.6966    0.0000 C   0  0  0  0  0  0  0  0  0  0  0  0
    8.5214    4.6966    0.0000 C   0  0  0  0  0  0  0  0  0  0  0  0
   11.1474    4.1619    0.0000 C   0  0  0  0  0  0  0  0  0  0  0  0
    9.3874    6.1966    0.0000 C   0  0  0  0  0  0  0  0  0  0  0  0
    8.5214    5.6966    0.0000 C   0  0  0  0  0  0  0  0  0  0  0  0
   11.1474    6.2312    0.0000 C   0  0  0  0  0  0  0  0  0  0  0  0
   12.0534    4.6758    0.0000 C   0  0  0  0  0  0  0  0  0  0  0  0
   12.0534    5.7174    0.0000 C   0  0  0  0  0  0  0  0  0  0  0  0
    6.3218   -0.3285    0.0000 H   0  0  0  0  0  0  0  0  0  0  0  0
    5.5248   -0.3285    0.0000 H   0  0  0  0  0  0  0  0  0  0  0  0
    7.8674   -1.3860    0.0000 H   0  0  0  0  0  0  0  0  0  0  0  0
    8.2659   -0.6957    0.0000 H   0  0  0  0  0  0  0  0  0  0  0  0
    4.8452   -0.7208    0.0000 H   0  0  0  0  0  0  0  0  0  0  0  0
    4.4467   -1.4111    0.0000 H   0  0  0  0  0  0  0  0  0  0  0  0
    7.0014   -2.8860    0.0000 H   0  0  0  0  0  0  0  0  0  0  0  0
    7.3999   -2.1958    0.0000 H   0  0  0  0  0  0  0  0  0  0  0  0
    7.4433    0.7792    0.0000 H   0  0  0  0  0  0  0  0  0  0  0  0
    7.0448    0.0889    0.0000 H   0  0  0  0  0  0  0  0  0  0  0  0
    5.9233   -3.4234    0.0000 H   0  0  0  0  0  0  0  0  0  0  0  0
    8.7334    0.1140    0.0000 H   0  0  0  0  0  0  0  0  0  0  0  0
    9.1320    0.8043    0.0000 H   0  0  0  0  0  0  0  0  0  0  0  0
    8.3093    2.2792    0.0000 H   0  0  0  0  0  0  0  0  0  0  0  0
    7.9108    1.5889    0.0000 H   0  0  0  0  0  0  0  0  0  0  0  0
    3.1556   -1.7916    0.0000 H   0  0  0  0  0  0  0  0  0  0  0  0
    9.9243    1.8866    0.0000 H   0  0  0  0  0  0  0  0  0  0  0  0
    2.0000   -3.0684    0.0000 H   0  0  0  0  0  0  0  0  0  0  0  0
    5.3627   -4.4086    0.0000 H   0  0  0  0  0  0  0  0  0  0  0  0
    2.1923   -5.0767    0.0000 H   0  0  0  0  0  0  0  0  0  0  0  0
    3.2743   -6.2825    0.0000 H   0  0  0  0  0  0  0  0  0  0  0  0
    7.9844    4.3866    0.0000 H   0  0  0  0  0  0  0  0  0  0  0  0
   11.1402    3.5420    0.0000 H   0  0  0  0  0  0  0  0  0  0  0  0
    9.3874    6.8166    0.0000 H   0  0  0  0  0  0  0  0  0  0  0  0
    7.9844    6.0066    0.0000 H   0  0  0  0  0  0  0  0  0  0  0  0
   11.1402    6.8512    0.0000 H   0  0  0  0  0  0  0  0  0  0  0  0
   12.5892    4.3637    0.0000 H   0  0  0  0  0  0  0  0  0  0  0  0
   12.5892    6.0295    0.0000 H   0  0  0  0  0  0  0  0  0  0  0  0
  1 25  1  0  0  0  0
  2  3  2  0  0  0  0
  2  4  2  0  0  0  0
  2  6  1  0  0  0  0
  2 22  1  0  0  0  0
  5  8  1  0  0  0  0
  5 10  1  0  0  0  0
  5 11  1  0  0  0  0
  6 17  1  0  0  0  0
  6 51  1  0  0  0  0
  7 19  1  0  0  0  0
  7 20  1  0  0  0  0
  7 52  1  0  0  0  0
  8  9  1  0  0  0  0
  8 35  1  0  0  0  0
  8 36  1  0  0  0  0
  9 12  1  0  0  0  0
  9 39  1  0  0  0  0
  9 40  1  0  0  0  0
 10 13  1  0  0  0  0
 10 37  1  0  0  0  0
 10 38  1  0  0  0  0
 11 14  1  0  0  0  0
 11 41  1  0  0  0  0
 11 42  1  0  0  0  0
 12 14  2  0  0  0  0
 12 16  1  0  0  0  0
 13 15  1  0  0  0  0
 13 43  1  0  0  0  0
 13 44  1  0  0  0  0
 14 45  1  0  0  0  0
 15 17  1  0  0  0  0
 15 46  1  0  0  0  0
 15 47  1  0  0  0  0
 16 18  1  0  0  0  0
 16 19  2  0  0  0  0
 17 48  1  0  0  0  0
 17 49  1  0  0  0  0
 18 20  2  0  0  0  0
 18 21  1  0  0  0  0
 19 50  1  0  0  0  0
 20 23  1  0  0  0  0
 21 25  2  0  0  0  0
 21 53  1  0  0  0  0
 22 24  1  0  0  0  0
 22 28  2  0  0  0  0
 23 26  2  0  0  0  0
 23 54  1  0  0  0  0
 24 27  1  0  0  0  0
 24 29  2  0  0  0  0
 25 26  1  0  0  0  0
 26 55  1  0  0  0  0
 27 30  1  0  0  0  0
 27 32  2  0  0  0  0
 28 31  1  0  0  0  0
 28 56  1  0  0  0  0
 29 33  1  0  0  0  0
 29 57  1  0  0  0  0
 30 31  2  0  0  0  0
 30 58  1  0  0  0  0
 31 59  1  0  0  0  0
 32 34  1  0  0  0  0
 32 60  1  0  0  0  0
 33 34  2  0  0  0  0
 33 61  1  0  0  0  0
 34 62  1  0  0  0  0
M  END
> <PUBCHEM_COMPOUND_CID>
56944860

> <PUBCHEM_COMPOUND_CANONICALIZED>
1

> <PUBCHEM_CACTVS_COMPLEXITY>
813

> <PUBCHEM_CACTVS_HBOND_ACCEPTOR>
4

> <PUBCHEM_CACTVS_HBOND_DONOR>
2

> <PUBCHEM_CACTVS_ROTATABLE_BOND>
8

> <PUBCHEM_CACTVS_SUBSKEYS>
AAADceB7MABEAAAAAAAAAAAAAAAAAWAAAAAwYMEAAAAAAFjB9AAAHAYQQAAADArBXiQ8wfPJkAKgAzRnRHDCgDAxByAI2bg4ZpgIIOLBk5GEIAhgkADIyAcQgMAOgABAoAAWAAAAAIFAACwAAAAAAAAAAA==

> <PUBCHEM_IUPAC_OPENEYE_NAME>
N-[4-[4-(5-chloro-1H-indol-3-yl)-3,6-dihydro-2H-pyridin-1-yl]butyl]naphthalene-1-sulfonamide

> <PUBCHEM_IUPAC_CAS_NAME>
N-[4-[4-(5-chloro-1H-indol-3-yl)-3,6-dihydro-2H-pyridin-1-yl]butyl]-1-naphthalenesulfonamide

> <PUBCHEM_IUPAC_NAME_MARKUP>
<I>N</I>-[4-[4-(5-chloro-1<I>H</I>-indol-3-yl)-3,6-dihydro-2<I>H</I>-pyridin-1-yl]butyl]naphthalene-1-sulfonamide

> <PUBCHEM_IUPAC_NAME>
N-[4-[4-(5-chloro-1H-indol-3-yl)-3,6-dihydro-2H-pyridin-1-yl]butyl]naphthalene-1-sulfonamide

> <PUBCHEM_IUPAC_SYSTEMATIC_NAME>
N-[4-[4-(5-chloranyl-1H-indol-3-yl)-3,6-dihydro-2H-pyridin-1-yl]butyl]naphthalene-1-sulfonamide

> <PUBCHEM_IUPAC_TRADITIONAL_NAME>
N-[4-[4-(5-chloro-1H-indol-3-yl)-3,6-dihydro-2H-pyridin-1-yl]butyl]naphthalene-1-sulfonamide

> <PUBCHEM_IUPAC_INCHI>
InChI=1S/C27H28ClN3O2S/c28-22-10-11-26-24(18-22)25(19-29-26)21-12-16-31(17-13-21)15-4-3-14-30-34(32,33)27-9-5-7-20-6-1-2-8-23(20)27/h1-2,5-12,18-19,29-30H,3-4,13-17H2

> <PUBCHEM_IUPAC_INCHIKEY>
KOMBSQZUWFYWJG-UHFFFAOYSA-N

> <PUBCHEM_XLOGP3_AA>
5.5

> <PUBCHEM_EXACT_MASS>
493.1590760

> <PUBCHEM_MOLECULAR_FORMULA>
C27H28ClN3O2S

> <PUBCHEM_MOLECULAR_WEIGHT>
494.0

> <PUBCHEM_OPENEYE_CAN_SMILES>
C1CN(CC=C1C2=CNC3=C2C=C(C=C3)Cl)CCCCNS(=O)(=O)C4=CC=CC5=CC=CC=C54

> <PUBCHEM_OPENEYE_ISO_SMILES>
C1CN(CC=C1C2=CNC3=C2C=C(C=C3)Cl)CCCCNS(=O)(=O)C4=CC=CC5=CC=CC=C54

> <PUBCHEM_CACTVS_TPSA>
73.6

> <PUBCHEM_MONOISOTOPIC_WEIGHT>
493.1590760

> <PUBCHEM_TOTAL_CHARGE>
0

> <PUBCHEM_HEAVY_ATOM_COUNT>
34

> <PUBCHEM_ATOM_DEF_STEREO_COUNT>
0

> <PUBCHEM_ATOM_UDEF_STEREO_COUNT>
0

> <PUBCHEM_BOND_DEF_STEREO_COUNT>
0

> <PUBCHEM_BOND_UDEF_STEREO_COUNT>
0

> <PUBCHEM_ISOTOPIC_ATOM_COUNT>
0

> <PUBCHEM_COMPONENT_COUNT>
1

> <PUBCHEM_CACTVS_TAUTO_COUNT>
-1

> <PUBCHEM_COORDINATE_TYPE>
1
5
255

> <PUBCHEM_BONDANNOTATIONS>
16  18  8
16  19  8
18  20  8
18  21  8
20  23  8
21  25  8
22  24  8
22  28  8
23  26  8
24  27  8
24  29  8
25  26  8
27  30  8
27  32  8
28  31  8
29  33  8
30  31  8
32  34  8
33  34  8
7  19  8
7  20  8

$$$$
