136043855
  -OEChem-09292322282D

 55 60  0     0  0  0  0  0  0999 V2000
    9.9254   -3.2320    0.0000 Cl  0  0  0  0  0  0  0  0  0  0  0  0
    2.6622    5.1790    0.0000 F   0  0  0  0  0  0  0  0  0  0  0  0
    2.0000    4.2077    0.0000 F   0  0  0  0  0  0  0  0  0  0  0  0
    3.0284    3.2440    0.0000 O   0  0  0  0  0  0  0  0  0  0  0  0
    3.9351    4.5738    0.0000 O   0  0  0  0  0  0  0  0  0  0  0  0
    4.2863    0.3345    0.0000 N   0  0  0  0  0  0  0  0  0  0  0  0
    5.1541   -1.4674    0.0000 N   0  0  0  0  0  0  0  0  0  0  0  0
    6.5880   -2.3684    0.0000 N   0  0  0  0  0  0  0  0  0  0  0  0
    6.0879   -4.5590    0.0000 N   0  0  0  0  0  0  0  0  0  0  0  0
    5.2835    0.2598    0.0000 C   0  0  0  0  0  0  0  0  0  0  0  0
    3.7230   -0.4917    0.0000 C   0  0  0  0  0  0  0  0  0  0  0  0
    5.7174   -0.6412    0.0000 C   0  0  0  0  0  0  0  0  0  0  0  0
    4.1569   -1.3927    0.0000 C   0  0  0  0  0  0  0  0  0  0  0  0
    3.8524    1.2355    0.0000 C   0  0  0  0  0  0  0  0  0  0  0  0
    5.5880   -2.3684    0.0000 C   0  0  0  0  0  0  0  0  0  0  0  0
    4.4158    2.0618    0.0000 C   0  0  0  0  0  0  0  0  0  0  0  0
    4.9644   -3.1502    0.0000 C   0  0  0  0  0  0  0  0  0  0  0  0
    3.9819    2.9627    0.0000 C   0  0  0  0  0  0  0  0  0  0  0  0
    5.1870   -4.1251    0.0000 C   0  0  0  0  0  0  0  0  0  0  0  0
    5.4130    1.9870    0.0000 C   0  0  0  0  0  0  0  0  0  0  0  0
    4.5452    3.7890    0.0000 C   0  0  0  0  0  0  0  0  0  0  0  0
    7.2114   -3.1502    0.0000 C   0  0  0  0  0  0  0  0  0  0  0  0
    3.9740   -2.8279    0.0000 C   0  0  0  0  0  0  0  0  0  0  0  0
    6.9889   -4.1251    0.0000 C   0  0  0  0  0  0  0  0  0  0  0  0
    5.9763    2.8132    0.0000 C   0  0  0  0  0  0  0  0  0  0  0  0
    5.5424    3.7142    0.0000 C   0  0  0  0  0  0  0  0  0  0  0  0
    4.4344   -4.8453    0.0000 C   0  0  0  0  0  0  0  0  0  0  0  0
    2.9996    4.2376    0.0000 C   0  0  0  0  0  0  0  0  0  0  0  0
    3.2049   -3.5304    0.0000 C   0  0  0  0  0  0  0  0  0  0  0  0
    3.4367   -4.5460    0.0000 C   0  0  0  0  0  0  0  0  0  0  0  0
    8.2019   -2.8279    0.0000 C   0  0  0  0  0  0  0  0  0  0  0  0
    7.7414   -4.8453    0.0000 C   0  0  0  0  0  0  0  0  0  0  0  0
    8.9709   -3.5305    0.0000 C   0  0  0  0  0  0  0  0  0  0  0  0
    8.7392   -4.5460    0.0000 C   0  0  0  0  0  0  0  0  0  0  0  0
    5.8804    0.4277    0.0000 H   0  0  0  0  0  0  0  0  0  0  0  0
    5.2218    0.8767    0.0000 H   0  0  0  0  0  0  0  0  0  0  0  0
    3.2792   -0.0588    0.0000 H   0  0  0  0  0  0  0  0  0  0  0  0
    3.2196   -0.8536    0.0000 H   0  0  0  0  0  0  0  0  0  0  0  0
    6.1612   -1.0741    0.0000 H   0  0  0  0  0  0  0  0  0  0  0  0
    6.2208   -0.2792    0.0000 H   0  0  0  0  0  0  0  0  0  0  0  0
    3.5600   -1.5606    0.0000 H   0  0  0  0  0  0  0  0  0  0  0  0
    4.2186   -2.0096    0.0000 H   0  0  0  0  0  0  0  0  0  0  0  0
    3.4086    1.6684    0.0000 H   0  0  0  0  0  0  0  0  0  0  0  0
    3.3490    0.8736    0.0000 H   0  0  0  0  0  0  0  0  0  0  0  0
    5.6820    1.4284    0.0000 H   0  0  0  0  0  0  0  0  0  0  0  0
    3.8430   -2.2218    0.0000 H   0  0  0  0  0  0  0  0  0  0  0  0
    6.0879   -5.1790    0.0000 H   0  0  0  0  0  0  0  0  0  0  0  0
    6.5946    2.7669    0.0000 H   0  0  0  0  0  0  0  0  0  0  0  0
    5.8917    4.2265    0.0000 H   0  0  0  0  0  0  0  0  0  0  0  0
    4.5793   -5.4481    0.0000 H   0  0  0  0  0  0  0  0  0  0  0  0
    2.6132   -3.3454    0.0000 H   0  0  0  0  0  0  0  0  0  0  0  0
    2.9838   -4.9694    0.0000 H   0  0  0  0  0  0  0  0  0  0  0  0
    8.3329   -2.2219    0.0000 H   0  0  0  0  0  0  0  0  0  0  0  0
    7.5965   -5.4481    0.0000 H   0  0  0  0  0  0  0  0  0  0  0  0
    9.1920   -4.9694    0.0000 H   0  0  0  0  0  0  0  0  0  0  0  0
  1 33  1  0  0  0  0
  2 28  1  0  0  0  0
  3 28  1  0  0  0  0
  4 18  1  0  0  0  0
  4 28  1  0  0  0  0
  5 21  1  0  0  0  0
  5 28  1  0  0  0  0
  6 10  1  0  0  0  0
  6 11  1  0  0  0  0
  6 14  1  0  0  0  0
  7 12  1  0  0  0  0
  7 13  1  0  0  0  0
  7 15  1  0  0  0  0
  8 15  2  0  0  0  0
  8 22  1  0  0  0  0
  9 19  1  0  0  0  0
  9 24  1  0  0  0  0
  9 47  1  0  0  0  0
 10 12  1  0  0  0  0
 10 35  1  0  0  0  0
 10 36  1  0  0  0  0
 11 13  1  0  0  0  0
 11 37  1  0  0  0  0
 11 38  1  0  0  0  0
 12 39  1  0  0  0  0
 12 40  1  0  0  0  0
 13 41  1  0  0  0  0
 13 42  1  0  0  0  0
 14 16  1  0  0  0  0
 14 43  1  0  0  0  0
 14 44  1  0  0  0  0
 15 17  1  0  0  0  0
 16 18  2  0  0  0  0
 16 20  1  0  0  0  0
 17 19  1  0  0  0  0
 17 23  2  0  0  0  0
 18 21  1  0  0  0  0
 19 27  2  0  0  0  0
 20 25  2  0  0  0  0
 20 45  1  0  0  0  0
 21 26  2  0  0  0  0
 22 24  2  0  0  0  0
 22 31  1  0  0  0  0
 23 29  1  0  0  0  0
 23 46  1  0  0  0  0
 24 32  1  0  0  0  0
 25 26  1  0  0  0  0
 25 48  1  0  0  0  0
 26 49  1  0  0  0  0
 27 30  1  0  0  0  0
 27 50  1  0  0  0  0
 29 30  2  0  0  0  0
 29 51  1  0  0  0  0
 30 52  1  0  0  0  0
 31 33  2  0  0  0  0
 31 53  1  0  0  0  0
 32 34  2  0  0  0  0
 32 54  1  0  0  0  0
 33 34  1  0  0  0  0
 34 55  1  0  0  0  0
M  END
> <PUBCHEM_COMPOUND_CID>
136043855

> <PUBCHEM_COMPOUND_CANONICALIZED>
1

> <PUBCHEM_CACTVS_COMPLEXITY>
765

> <PUBCHEM_CACTVS_HBOND_ACCEPTOR>
7

> <PUBCHEM_CACTVS_HBOND_DONOR>
1

> <PUBCHEM_CACTVS_ROTATABLE_BOND>
3

> <PUBCHEM_CACTVS_SUBSKEYS>
AAADceB7sYAEAAAAAAAAAAAAAAAAASAAAAA8YMEABAAAAEgBUAAAHwIQAAAADA7BmDQxzoPABACgAiZiZACCCAEhJwAJiAAu/pgdZuLF+5u0MCpm0BHO6AewwDAOAABBAAIKQCAAAIIABBSAQAAAAAAAAA==

> <PUBCHEM_IUPAC_OPENEYE_NAME>
3-chloro-6-[4-[(2,2-difluoro-1,3-benzodioxol-4-yl)methyl]piperazin-1-yl]-11H-benzo[b][1,4]benzodiazepine

> <PUBCHEM_IUPAC_CAS_NAME>
3-chloro-6-[4-[(2,2-difluoro-1,3-benzodioxol-4-yl)methyl]-1-piperazinyl]-11H-benzo[b][1,4]benzodiazepine

> <PUBCHEM_IUPAC_NAME_MARKUP>
3-chloro-6-[4-[(2,2-difluoro-1,3-benzodioxol-4-yl)methyl]piperazin-1-yl]-11<I>H</I>-benzo[b][1,4]benzodiazepine

> <PUBCHEM_IUPAC_NAME>
3-chloro-6-[4-[(2,2-difluoro-1,3-benzodioxol-4-yl)methyl]piperazin-1-yl]-11H-benzo[b][1,4]benzodiazepine

> <PUBCHEM_IUPAC_SYSTEMATIC_NAME>
6-[4-[[2,2-bis(fluoranyl)-1,3-benzodioxol-4-yl]methyl]piperazin-1-yl]-3-chloranyl-11H-benzo[b][1,4]benzodiazepine

> <PUBCHEM_IUPAC_TRADITIONAL_NAME>
3-chloro-6-[4-[(2,2-difluoro-1,3-benzodioxol-4-yl)methyl]piperazino]-11H-benzo[b][1,4]benzodiazepine

> <PUBCHEM_IUPAC_INCHI>
InChI=1S/C25H21ClF2N4O2/c26-17-8-9-20-21(14-17)30-24(18-5-1-2-6-19(18)29-20)32-12-10-31(11-13-32)15-16-4-3-7-22-23(16)34-25(27,28)33-22/h1-9,14,29H,10-13,15H2

> <PUBCHEM_IUPAC_INCHIKEY>
KWRGIOCXQHUGEL-UHFFFAOYSA-N

> <PUBCHEM_XLOGP3_AA>
5.2

> <PUBCHEM_EXACT_MASS>
482.1321099

> <PUBCHEM_MOLECULAR_FORMULA>
C25H21ClF2N4O2

> <PUBCHEM_MOLECULAR_WEIGHT>
482.9

> <PUBCHEM_OPENEYE_CAN_SMILES>
C1CN(CCN1CC2=C3C(=CC=C2)OC(O3)(F)F)C4=NC5=C(C=CC(=C5)Cl)NC6=CC=CC=C64

> <PUBCHEM_OPENEYE_ISO_SMILES>
C1CN(CCN1CC2=C3C(=CC=C2)OC(O3)(F)F)C4=NC5=C(C=CC(=C5)Cl)NC6=CC=CC=C64

> <PUBCHEM_CACTVS_TPSA>
49.3

> <PUBCHEM_MONOISOTOPIC_WEIGHT>
482.1321099

> <PUBCHEM_TOTAL_CHARGE>
0

> <PUBCHEM_HEAVY_ATOM_COUNT>
34

> <PUBCHEM_ATOM_DEF_STEREO_COUNT>
0

> <PUBCHEM_ATOM_UDEF_STEREO_COUNT>
0

> <PUBCHEM_BOND_DEF_STEREO_COUNT>
0

> <PUBCHEM_BOND_UDEF_STEREO_COUNT>
0

> <PUBCHEM_ISOTOPIC_ATOM_COUNT>
0

> <PUBCHEM_COMPONENT_COUNT>
1

> <PUBCHEM_CACTVS_TAUTO_COUNT>
-1

> <PUBCHEM_COORDINATE_TYPE>
1
5
255

> <PUBCHEM_BONDANNOTATIONS>
16  18  8
16  20  8
17  19  8
17  23  8
18  21  8
19  27  8
20  25  8
21  26  8
22  24  8
22  31  8
23  29  8
24  32  8
25  26  8
27  30  8
29  30  8
31  33  8
32  34  8
33  34  8

$$$$
