155542160
  -OEChem-09292322422D

 55 59  0     1  0  0  0  0  0999 V2000
    6.2619   -2.7071    0.0000 S   0  0  0  0  0  0  0  0  0  0  0  0
    6.2619   -3.7071    0.0000 O   0  0  0  0  0  0  0  0  0  0  0  0
    6.2619   -1.7071    0.0000 O   0  0  0  0  0  0  0  0  0  0  0  0
    2.8660    1.2929    0.0000 N   0  0  0  0  0  0  0  0  0  0  0  0
    2.8660   -0.7071    0.0000 N   0  0  0  0  0  0  0  0  0  0  0  0
    5.2619   -2.7071    0.0000 N   0  0  3  0  0  0  0  0  0  0  0  0
    2.8660    2.2929    0.0000 C   0  0  0  0  0  0  0  0  0  0  0  0
    3.5731    3.0000    0.0000 C   0  0  0  0  0  0  0  0  0  0  0  0
    2.1589    3.0000    0.0000 C   0  0  0  0  0  0  0  0  0  0  0  0
    2.8660    3.7071    0.0000 C   0  0  0  0  0  0  0  0  0  0  0  0
    2.0000    0.7929    0.0000 C   0  0  0  0  0  0  0  0  0  0  0  0
    3.7320    0.7929    0.0000 C   0  0  0  0  0  0  0  0  0  0  0  0
    2.0000   -0.2071    0.0000 C   0  0  0  0  0  0  0  0  0  0  0  0
    3.7320   -0.2071    0.0000 C   0  0  0  0  0  0  0  0  0  0  0  0
    2.8660   -1.7071    0.0000 C   0  0  0  0  0  0  0  0  0  0  0  0
    3.7320   -2.2071    0.0000 C   0  0  0  0  0  0  0  0  0  0  0  0
    4.6783   -1.9024    0.0000 C   0  0  0  0  0  0  0  0  0  0  0  0
    3.7320   -3.2071    0.0000 C   0  0  0  0  0  0  0  0  0  0  0  0
    4.6783   -3.5118    0.0000 C   0  0  0  0  0  0  0  0  0  0  0  0
    2.0000   -2.2071    0.0000 C   0  0  0  0  0  0  0  0  0  0  0  0
    2.8660   -3.7071    0.0000 C   0  0  0  0  0  0  0  0  0  0  0  0
    2.0000   -3.2071    0.0000 C   0  0  0  0  0  0  0  0  0  0  0  0
    7.2619   -2.7071    0.0000 C   0  0  0  0  0  0  0  0  0  0  0  0
    7.7619   -1.8411    0.0000 C   0  0  0  0  0  0  0  0  0  0  0  0
    7.7619   -3.5731    0.0000 C   0  0  0  0  0  0  0  0  0  0  0  0
    8.7619   -1.8411    0.0000 C   0  0  0  0  0  0  0  0  0  0  0  0
    8.7619   -3.5731    0.0000 C   0  0  0  0  0  0  0  0  0  0  0  0
    9.2619   -2.7071    0.0000 C   0  0  0  0  0  0  0  0  0  0  0  0
    3.4388    2.0556    0.0000 H   0  0  0  0  0  0  0  0  0  0  0  0
    4.0115    2.5616    0.0000 H   0  0  0  0  0  0  0  0  0  0  0  0
    4.0115    3.4384    0.0000 H   0  0  0  0  0  0  0  0  0  0  0  0
    1.7205    3.4384    0.0000 H   0  0  0  0  0  0  0  0  0  0  0  0
    1.7205    2.5616    0.0000 H   0  0  0  0  0  0  0  0  0  0  0  0
    3.3044    4.1455    0.0000 H   0  0  0  0  0  0  0  0  0  0  0  0
    2.4276    4.1455    0.0000 H   0  0  0  0  0  0  0  0  0  0  0  0
    1.7880    1.3755    0.0000 H   0  0  0  0  0  0  0  0  0  0  0  0
    1.3894    0.6852    0.0000 H   0  0  0  0  0  0  0  0  0  0  0  0
    4.3426    0.6852    0.0000 H   0  0  0  0  0  0  0  0  0  0  0  0
    3.9441    1.3755    0.0000 H   0  0  0  0  0  0  0  0  0  0  0  0
    1.3894   -0.0994    0.0000 H   0  0  0  0  0  0  0  0  0  0  0  0
    1.7880   -0.7897    0.0000 H   0  0  0  0  0  0  0  0  0  0  0  0
    3.9441   -0.7897    0.0000 H   0  0  0  0  0  0  0  0  0  0  0  0
    4.3426   -0.0994    0.0000 H   0  0  0  0  0  0  0  0  0  0  0  0
    5.2156   -1.5932    0.0000 H   0  0  0  0  0  0  0  0  0  0  0  0
    4.4272   -1.3355    0.0000 H   0  0  0  0  0  0  0  0  0  0  0  0
    4.4272   -4.0788    0.0000 H   0  0  0  0  0  0  0  0  0  0  0  0
    5.2156   -3.8211    0.0000 H   0  0  0  0  0  0  0  0  0  0  0  0
    1.4631   -1.8971    0.0000 H   0  0  0  0  0  0  0  0  0  0  0  0
    2.8660   -4.3271    0.0000 H   0  0  0  0  0  0  0  0  0  0  0  0
    1.4631   -3.5171    0.0000 H   0  0  0  0  0  0  0  0  0  0  0  0
    7.4519   -1.3042    0.0000 H   0  0  0  0  0  0  0  0  0  0  0  0
    7.4519   -4.1101    0.0000 H   0  0  0  0  0  0  0  0  0  0  0  0
    9.0719   -1.3042    0.0000 H   0  0  0  0  0  0  0  0  0  0  0  0
    9.0719   -4.1101    0.0000 H   0  0  0  0  0  0  0  0  0  0  0  0
    9.8819   -2.7071    0.0000 H   0  0  0  0  0  0  0  0  0  0  0  0
  1  2  2  0  0  0  0
  1  3  2  0  0  0  0
  1  6  1  0  0  0  0
  1 23  1  0  0  0  0
  4  7  1  0  0  0  0
  4 11  1  0  0  0  0
  4 12  1  0  0  0  0
  5 13  1  0  0  0  0
  5 14  1  0  0  0  0
  5 15  1  0  0  0  0
  6 17  1  0  0  0  0
  6 19  1  0  0  0  0
  7  8  1  0  0  0  0
  7  9  1  0  0  0  0
  7 29  1  0  0  0  0
  8 10  1  0  0  0  0
  8 30  1  0  0  0  0
  8 31  1  0  0  0  0
  9 10  1  0  0  0  0
  9 32  1  0  0  0  0
  9 33  1  0  0  0  0
 10 34  1  0  0  0  0
 10 35  1  0  0  0  0
 11 13  1  0  0  0  0
 11 36  1  0  0  0  0
 11 37  1  0  0  0  0
 12 14  1  0  0  0  0
 12 38  1  0  0  0  0
 12 39  1  0  0  0  0
 13 40  1  0  0  0  0
 13 41  1  0  0  0  0
 14 42  1  0  0  0  0
 14 43  1  0  0  0  0
 15 16  1  0  0  0  0
 15 20  2  0  0  0  0
 16 17  1  0  0  0  0
 16 18  2  0  0  0  0
 17 44  1  0  0  0  0
 17 45  1  0  0  0  0
 18 19  1  0  0  0  0
 18 21  1  0  0  0  0
 19 46  1  0  0  0  0
 19 47  1  0  0  0  0
 20 22  1  0  0  0  0
 20 48  1  0  0  0  0
 21 22  2  0  0  0  0
 21 49  1  0  0  0  0
 22 50  1  0  0  0  0
 23 24  2  0  0  0  0
 23 25  1  0  0  0  0
 24 26  1  0  0  0  0
 24 51  1  0  0  0  0
 25 27  2  0  0  0  0
 25 52  1  0  0  0  0
 26 28  2  0  0  0  0
 26 53  1  0  0  0  0
 27 28  1  0  0  0  0
 27 54  1  0  0  0  0
 28 55  1  0  0  0  0
M  END
> <PUBCHEM_COMPOUND_CID>
155542160

> <PUBCHEM_COMPOUND_CANONICALIZED>
1

> <PUBCHEM_CACTVS_COMPLEXITY>
631

> <PUBCHEM_CACTVS_HBOND_ACCEPTOR>
5

> <PUBCHEM_CACTVS_HBOND_DONOR>
0

> <PUBCHEM_CACTVS_ROTATABLE_BOND>
4

> <PUBCHEM_CACTVS_SUBSKEYS>
AAADceB7MABAAAAAAAAAAAAAAABgAWAAAAA8YIAAAAAAAFgBQAAAHAQAQAAADCjBWAQwwYMAAAKAAiRCQHDCABAhAgAIiBgIZIgIYCLA0ZGUIAhggADIyAcQgIAOgAAAQAASAAAAAACAACQAAAAAAAAAAA==

> <PUBCHEM_IUPAC_OPENEYE_NAME>
2-(benzenesulfonyl)-4-(4-cyclobutylpiperazin-1-yl)isoindoline

> <PUBCHEM_IUPAC_CAS_NAME>
2-(benzenesulfonyl)-4-(4-cyclobutyl-1-piperazinyl)-1,3-dihydroisoindole

> <PUBCHEM_IUPAC_NAME_MARKUP>
2-(benzenesulfonyl)-4-(4-cyclobutylpiperazin-1-yl)-1,3-dihydroisoindole

> <PUBCHEM_IUPAC_NAME>
2-(benzenesulfonyl)-4-(4-cyclobutylpiperazin-1-yl)-1,3-dihydroisoindole

> <PUBCHEM_IUPAC_SYSTEMATIC_NAME>
4-(4-cyclobutylpiperazin-1-yl)-2-(phenylsulfonyl)-1,3-dihydroisoindole

> <PUBCHEM_IUPAC_TRADITIONAL_NAME>
2-besyl-4-(4-cyclobutylpiperazino)isoindoline

> <PUBCHEM_IUPAC_INCHI>
InChI=1S/C22H27N3O2S/c26-28(27,20-9-2-1-3-10-20)25-16-18-6-4-11-22(21(18)17-25)24-14-12-23(13-15-24)19-7-5-8-19/h1-4,6,9-11,19H,5,7-8,12-17H2

> <PUBCHEM_IUPAC_INCHIKEY>
FEUOYGFGQUAIGL-UHFFFAOYSA-N

> <PUBCHEM_XLOGP3_AA>
3

> <PUBCHEM_EXACT_MASS>
397.18239829

> <PUBCHEM_MOLECULAR_FORMULA>
C22H27N3O2S

> <PUBCHEM_MOLECULAR_WEIGHT>
397.5

> <PUBCHEM_OPENEYE_CAN_SMILES>
C1CC(C1)N2CCN(CC2)C3=CC=CC4=C3CN(C4)S(=O)(=O)C5=CC=CC=C5

> <PUBCHEM_OPENEYE_ISO_SMILES>
C1CC(C1)N2CCN(CC2)C3=CC=CC4=C3CN(C4)S(=O)(=O)C5=CC=CC=C5

> <PUBCHEM_CACTVS_TPSA>
52.2

> <PUBCHEM_MONOISOTOPIC_WEIGHT>
397.18239829

> <PUBCHEM_TOTAL_CHARGE>
0

> <PUBCHEM_HEAVY_ATOM_COUNT>
28

> <PUBCHEM_ATOM_DEF_STEREO_COUNT>
0

> <PUBCHEM_ATOM_UDEF_STEREO_COUNT>
0

> <PUBCHEM_BOND_DEF_STEREO_COUNT>
0

> <PUBCHEM_BOND_UDEF_STEREO_COUNT>
0

> <PUBCHEM_ISOTOPIC_ATOM_COUNT>
0

> <PUBCHEM_COMPONENT_COUNT>
1

> <PUBCHEM_CACTVS_TAUTO_COUNT>
-1

> <PUBCHEM_COORDINATE_TYPE>
1
5
255

> <PUBCHEM_BONDANNOTATIONS>
15  16  8
15  20  8
16  18  8
18  21  8
20  22  8
21  22  8
23  24  8
23  25  8
24  26  8
25  27  8
26  28  8
27  28  8

$$$$
