56664949
  -OEChem-09292322322D

 73 75  0     0  0  0  0  0  0999 V2000
   10.9395    0.6305    0.0000 O   0  0  0  0  0  0  0  0  0  0  0  0
    4.8639    4.1071    0.0000 O   0  0  0  0  0  0  0  0  0  0  0  0
    1.3998    4.0937    0.0000 O   0  0  0  0  0  0  0  0  0  0  0  0
   16.2017    0.6546    0.0000 O   0  0  0  0  0  0  0  0  0  0  0  0
    9.3999    8.7375    0.0000 O   0  0  0  0  0  0  0  0  0  0  0  0
    6.8018    9.2375    0.0000 O   0  0  0  0  0  0  0  0  0  0  0  0
    8.5339   10.2375    0.0000 O   0  0  0  0  0  0  0  0  0  0  0  0
    7.6678    7.7375    0.0000 O   0  0  0  0  0  0  0  0  0  0  0  0
    6.6075    1.1138    0.0000 N   0  0  0  0  0  0  0  0  0  0  0  0
    4.8716    2.1071    0.0000 N   0  0  0  0  0  0  0  0  0  0  0  0
   14.4697    0.6546    0.0000 N   0  0  0  0  0  0  0  0  0  0  0  0
    6.6036    2.1138    0.0000 C   0  0  0  0  0  0  0  0  0  0  0  0
    5.7434    0.6104    0.0000 C   0  0  0  0  0  0  0  0  0  0  0  0
    5.7357    2.6104    0.0000 C   0  0  0  0  0  0  0  0  0  0  0  0
    4.8755    1.1071    0.0000 C   0  0  0  0  0  0  0  0  0  0  0  0
    7.4754    0.6171    0.0000 C   0  0  0  0  0  0  0  0  0  0  0  0
    8.3395    1.1204    0.0000 C   0  0  0  0  0  0  0  0  0  0  0  0
    4.0037    2.6037    0.0000 C   0  0  0  0  0  0  0  0  0  0  0  0
    9.2075    0.6238    0.0000 C   0  0  0  0  0  0  0  0  0  0  0  0
    3.9998    3.6037    0.0000 C   0  0  0  0  0  0  0  0  0  0  0  0
   10.0716    1.1271    0.0000 C   0  0  0  0  0  0  0  0  0  0  0  0
    3.1396    2.1004    0.0000 C   0  0  0  0  0  0  0  0  0  0  0  0
    3.1319    4.1004    0.0000 C   0  0  0  0  0  0  0  0  0  0  0  0
    2.2716    2.5971    0.0000 C   0  0  0  0  0  0  0  0  0  0  0  0
    2.2678    3.5971    0.0000 C   0  0  0  0  0  0  0  0  0  0  0  0
   11.8036    1.1338    0.0000 C   0  0  0  0  0  0  0  0  0  0  0  0
   13.6036    2.1546    0.0000 C   0  0  0  0  0  0  0  0  0  0  0  0
   14.4697    2.6546    0.0000 C   0  0  0  0  0  0  0  0  0  0  0  0
   13.6036    1.1546    0.0000 C   0  0  0  0  0  0  0  0  0  0  0  0
   12.7097    0.6200    0.0000 C   0  0  0  0  0  0  0  0  0  0  0  0
   15.3357    2.1546    0.0000 C   0  0  0  0  0  0  0  0  0  0  0  0
   11.8036    2.1754    0.0000 C   0  0  0  0  0  0  0  0  0  0  0  0
   12.7097    2.6893    0.0000 C   0  0  0  0  0  0  0  0  0  0  0  0
   15.3357    1.1546    0.0000 C   0  0  0  0  0  0  0  0  0  0  0  0
    4.8600    5.1071    0.0000 C   0  0  0  0  0  0  0  0  0  0  0  0
    0.5357    3.5904    0.0000 C   0  0  0  0  0  0  0  0  0  0  0  0
    8.5339    9.2375    0.0000 C   0  0  0  0  0  0  0  0  0  0  0  0
    7.6678    8.7375    0.0000 C   0  0  0  0  0  0  0  0  0  0  0  0
    7.2146    2.0085    0.0000 H   0  0  0  0  0  0  0  0  0  0  0  0
    6.8135    2.6972    0.0000 H   0  0  0  0  0  0  0  0  0  0  0  0
    5.3467    0.1340    0.0000 H   0  0  0  0  0  0  0  0  0  0  0  0
    6.1438    0.1370    0.0000 H   0  0  0  0  0  0  0  0  0  0  0  0
    6.1324    3.0869    0.0000 H   0  0  0  0  0  0  0  0  0  0  0  0
    5.3354    3.0838    0.0000 H   0  0  0  0  0  0  0  0  0  0  0  0
    4.2645    1.2124    0.0000 H   0  0  0  0  0  0  0  0  0  0  0  0
    4.6657    0.5237    0.0000 H   0  0  0  0  0  0  0  0  0  0  0  0
    7.0788    0.1406    0.0000 H   0  0  0  0  0  0  0  0  0  0  0  0
    7.8758    0.1437    0.0000 H   0  0  0  0  0  0  0  0  0  0  0  0
    8.7362    1.5969    0.0000 H   0  0  0  0  0  0  0  0  0  0  0  0
    7.9392    1.5939    0.0000 H   0  0  0  0  0  0  0  0  0  0  0  0
    8.8108    0.1473    0.0000 H   0  0  0  0  0  0  0  0  0  0  0  0
    9.6078    0.1504    0.0000 H   0  0  0  0  0  0  0  0  0  0  0  0
   10.4683    1.6036    0.0000 H   0  0  0  0  0  0  0  0  0  0  0  0
    9.6712    1.6005    0.0000 H   0  0  0  0  0  0  0  0  0  0  0  0
    3.1420    1.4804    0.0000 H   0  0  0  0  0  0  0  0  0  0  0  0
    3.1295    4.7204    0.0000 H   0  0  0  0  0  0  0  0  0  0  0  0
    1.7359    2.2850    0.0000 H   0  0  0  0  0  0  0  0  0  0  0  0
   14.8682    3.1296    0.0000 H   0  0  0  0  0  0  0  0  0  0  0  0
   14.0711    3.1296    0.0000 H   0  0  0  0  0  0  0  0  0  0  0  0
   15.9463    2.0470    0.0000 H   0  0  0  0  0  0  0  0  0  0  0  0
   15.5477    2.7372    0.0000 H   0  0  0  0  0  0  0  0  0  0  0  0
   12.7169    0.0000    0.0000 H   0  0  0  0  0  0  0  0  0  0  0  0
   11.2679    2.4875    0.0000 H   0  0  0  0  0  0  0  0  0  0  0  0
   12.7169    3.3092    0.0000 H   0  0  0  0  0  0  0  0  0  0  0  0
   14.4697    0.0346    0.0000 H   0  0  0  0  0  0  0  0  0  0  0  0
    5.4800    5.1095    0.0000 H   0  0  0  0  0  0  0  0  0  0  0  0
    4.8577    5.7271    0.0000 H   0  0  0  0  0  0  0  0  0  0  0  0
    4.2400    5.1047    0.0000 H   0  0  0  0  0  0  0  0  0  0  0  0
    0.2237    4.1261    0.0000 H   0  0  0  0  0  0  0  0  0  0  0  0
    0.0000    3.2783    0.0000 H   0  0  0  0  0  0  0  0  0  0  0  0
    0.8478    3.0546    0.0000 H   0  0  0  0  0  0  0  0  0  0  0  0
    9.9368    9.0475    0.0000 H   0  0  0  0  0  0  0  0  0  0  0  0
    6.2649    8.9275    0.0000 H   0  0  0  0  0  0  0  0  0  0  0  0
  1 21  1  0  0  0  0
  1 26  1  0  0  0  0
  2 20  1  0  0  0  0
  2 35  1  0  0  0  0
  3 25  1  0  0  0  0
  3 36  1  0  0  0  0
  4 34  2  0  0  0  0
  5 37  1  0  0  0  0
  5 72  1  0  0  0  0
  6 38  1  0  0  0  0
  6 73  1  0  0  0  0
  7 37  2  0  0  0  0
  8 38  2  0  0  0  0
  9 12  1  0  0  0  0
  9 13  1  0  0  0  0
  9 16  1  0  0  0  0
 10 14  1  0  0  0  0
 10 15  1  0  0  0  0
 10 18  1  0  0  0  0
 11 29  1  0  0  0  0
 11 34  1  0  0  0  0
 11 65  1  0  0  0  0
 12 14  1  0  0  0  0
 12 39  1  0  0  0  0
 12 40  1  0  0  0  0
 13 15  1  0  0  0  0
 13 41  1  0  0  0  0
 13 42  1  0  0  0  0
 14 43  1  0  0  0  0
 14 44  1  0  0  0  0
 15 45  1  0  0  0  0
 15 46  1  0  0  0  0
 16 17  1  0  0  0  0
 16 47  1  0  0  0  0
 16 48  1  0  0  0  0
 17 19  1  0  0  0  0
 17 49  1  0  0  0  0
 17 50  1  0  0  0  0
 18 20  2  0  0  0  0
 18 22  1  0  0  0  0
 19 21  1  0  0  0  0
 19 51  1  0  0  0  0
 19 52  1  0  0  0  0
 20 23  1  0  0  0  0
 21 53  1  0  0  0  0
 21 54  1  0  0  0  0
 22 24  2  0  0  0  0
 22 55  1  0  0  0  0
 23 25  2  0  0  0  0
 23 56  1  0  0  0  0
 24 25  1  0  0  0  0
 24 57  1  0  0  0  0
 26 30  2  0  0  0  0
 26 32  1  0  0  0  0
 27 28  1  0  0  0  0
 27 29  2  0  0  0  0
 27 33  1  0  0  0  0
 28 31  1  0  0  0  0
 28 58  1  0  0  0  0
 28 59  1  0  0  0  0
 29 30  1  0  0  0  0
 30 62  1  0  0  0  0
 31 34  1  0  0  0  0
 31 60  1  0  0  0  0
 31 61  1  0  0  0  0
 32 33  2  0  0  0  0
 32 63  1  0  0  0  0
 33 64  1  0  0  0  0
 35 66  1  0  0  0  0
 35 67  1  0  0  0  0
 35 68  1  0  0  0  0
 36 69  1  0  0  0  0
 36 70  1  0  0  0  0
 36 71  1  0  0  0  0
 37 38  1  0  0  0  0
M  END
> <PUBCHEM_COMPOUND_CID>
56664949

> <PUBCHEM_COMPOUND_CANONICALIZED>
1

> <PUBCHEM_CACTVS_COMPLEXITY>
655

> <PUBCHEM_CACTVS_HBOND_ACCEPTOR>
10

> <PUBCHEM_CACTVS_HBOND_DONOR>
3

> <PUBCHEM_CACTVS_ROTATABLE_BOND>
10

> <PUBCHEM_CACTVS_SUBSKEYS>
AAADcfB7PAAAAAAAAAAAAAAAAAAAAAAAAAA8eIEAAAAAAACxQAAAHgAQCAAADAzhmAYyzoPABgCIAiXSWAKCCAAhIgAIiAFPbIgPZzLEsZuXOCjn1B3Z6Ae4+a+eIEAACgACEABAgAAUAAQgAAAAAAAAAA==

> <PUBCHEM_IUPAC_OPENEYE_NAME>
7-[4-[4-(2,4-dimethoxyphenyl)piperazin-1-yl]butoxy]-3,4-dihydro-1H-quinolin-2-one;oxalic acid

> <PUBCHEM_IUPAC_CAS_NAME>
7-[4-[4-(2,4-dimethoxyphenyl)-1-piperazinyl]butoxy]-3,4-dihydro-1H-quinolin-2-one;oxalic acid

> <PUBCHEM_IUPAC_NAME_MARKUP>
7-[4-[4-(2,4-dimethoxyphenyl)piperazin-1-yl]butoxy]-3,4-dihydro-1<I>H</I>-quinolin-2-one;oxalic acid

> <PUBCHEM_IUPAC_NAME>
7-[4-[4-(2,4-dimethoxyphenyl)piperazin-1-yl]butoxy]-3,4-dihydro-1H-quinolin-2-one;oxalic acid

> <PUBCHEM_IUPAC_SYSTEMATIC_NAME>
7-[4-[4-(2,4-dimethoxyphenyl)piperazin-1-yl]butoxy]-3,4-dihydro-1H-quinolin-2-one;ethanedioic acid

> <PUBCHEM_IUPAC_TRADITIONAL_NAME>
7-[4-[4-(2,4-dimethoxyphenyl)piperazino]butoxy]-3,4-dihydrocarbostyril;oxalic acid

> <PUBCHEM_IUPAC_INCHI>
InChI=1S/C25H33N3O4.C2H2O4/c1-30-20-8-9-23(24(18-20)31-2)28-14-12-27(13-15-28)11-3-4-16-32-21-7-5-19-6-10-25(29)26-22(19)17-21;3-1(4)2(5)6/h5,7-9,17-18H,3-4,6,10-16H2,1-2H3,(H,26,29);(H,3,4)(H,5,6)

> <PUBCHEM_IUPAC_INCHIKEY>
YAMSIQVALMIIBD-UHFFFAOYSA-N

> <PUBCHEM_EXACT_MASS>
529.24241508

> <PUBCHEM_MOLECULAR_FORMULA>
C27H35N3O8

> <PUBCHEM_MOLECULAR_WEIGHT>
529.6

> <PUBCHEM_OPENEYE_CAN_SMILES>
COC1=CC(=C(C=C1)N2CCN(CC2)CCCCOC3=CC4=C(CCC(=O)N4)C=C3)OC.C(=O)(C(=O)O)O

> <PUBCHEM_OPENEYE_ISO_SMILES>
COC1=CC(=C(C=C1)N2CCN(CC2)CCCCOC3=CC4=C(CCC(=O)N4)C=C3)OC.C(=O)(C(=O)O)O

> <PUBCHEM_CACTVS_TPSA>
138

> <PUBCHEM_MONOISOTOPIC_WEIGHT>
529.24241508

> <PUBCHEM_TOTAL_CHARGE>
0

> <PUBCHEM_HEAVY_ATOM_COUNT>
38

> <PUBCHEM_ATOM_DEF_STEREO_COUNT>
0

> <PUBCHEM_ATOM_UDEF_STEREO_COUNT>
0

> <PUBCHEM_BOND_DEF_STEREO_COUNT>
0

> <PUBCHEM_BOND_UDEF_STEREO_COUNT>
0

> <PUBCHEM_ISOTOPIC_ATOM_COUNT>
0

> <PUBCHEM_COMPONENT_COUNT>
2

> <PUBCHEM_CACTVS_TAUTO_COUNT>
-1

> <PUBCHEM_COORDINATE_TYPE>
1
5
255

> <PUBCHEM_BONDANNOTATIONS>
18  20  8
18  22  8
20  23  8
22  24  8
23  25  8
24  25  8
26  30  8
26  32  8
27  29  8
27  33  8
29  30  8
32  33  8

$$$$
