10436045
  -OEChem-09292322152D

 65 68  0     0  0  0  0  0  0999 V2000
   15.7733    3.5563    0.0000 Cl  0  0  0  0  0  0  0  0  0  0  0  0
   16.3946    5.4573    0.0000 Cl  0  0  0  0  0  0  0  0  0  0  0  0
    2.5369   -3.6013    0.0000 O   0  0  0  0  0  0  0  0  0  0  0  0
   10.5235    4.2200    0.0000 O   0  0  0  0  0  0  0  0  0  0  0  0
    7.0132   -0.9450    0.0000 N   0  0  0  0  0  0  0  0  0  0  0  0
    6.0812   -5.4061    0.0000 N   0  0  0  0  0  0  0  0  0  0  0  0
   10.8807    2.5252    0.0000 N   0  0  0  0  0  0  0  0  0  0  0  0
    6.3919   -2.8461    0.0000 C   0  0  0  0  0  0  0  0  0  0  0  0
    5.7240   -2.1018    0.0000 C   0  0  0  0  0  0  0  0  0  0  0  0
    7.3704   -2.6399    0.0000 C   0  0  0  0  0  0  0  0  0  0  0  0
    6.0347   -1.1513    0.0000 C   0  0  0  0  0  0  0  0  0  0  0  0
    7.6811   -1.6893    0.0000 C   0  0  0  0  0  0  0  0  0  0  0  0
    6.0812   -3.7966    0.0000 C   0  0  0  0  0  0  0  0  0  0  0  0
    7.3239    0.0055    0.0000 C   0  0  0  0  0  0  0  0  0  0  0  0
    8.3024    0.2117    0.0000 C   0  0  0  0  0  0  0  0  0  0  0  0
    5.1350   -4.1013    0.0000 C   0  0  0  0  0  0  0  0  0  0  0  0
    6.6648   -4.6013    0.0000 C   0  0  0  0  0  0  0  0  0  0  0  0
    8.6130    1.1622    0.0000 C   0  0  0  0  0  0  0  0  0  0  0  0
    5.1350   -5.1013    0.0000 C   0  0  0  0  0  0  0  0  0  0  0  0
    4.2690   -3.6013    0.0000 C   0  0  0  0  0  0  0  0  0  0  0  0
    9.5916    1.3684    0.0000 C   0  0  0  0  0  0  0  0  0  0  0  0
    4.2690   -5.6013    0.0000 C   0  0  0  0  0  0  0  0  0  0  0  0
    3.4030   -4.1013    0.0000 C   0  0  0  0  0  0  0  0  0  0  0  0
    9.9022    2.3190    0.0000 C   0  0  0  0  0  0  0  0  0  0  0  0
    3.4030   -5.1013    0.0000 C   0  0  0  0  0  0  0  0  0  0  0  0
   11.1914    3.4757    0.0000 C   0  0  0  0  0  0  0  0  0  0  0  0
   12.1699    3.6819    0.0000 C   0  0  0  0  0  0  0  0  0  0  0  0
   12.4806    4.6324    0.0000 C   0  0  0  0  0  0  0  0  0  0  0  0
   13.4591    4.8386    0.0000 C   0  0  0  0  0  0  0  0  0  0  0  0
   14.1269    4.0944    0.0000 C   0  0  0  0  0  0  0  0  0  0  0  0
   13.7697    5.7892    0.0000 C   0  0  0  0  0  0  0  0  0  0  0  0
   15.1054    4.3006    0.0000 C   0  0  0  0  0  0  0  0  0  0  0  0
   14.7482    5.9954    0.0000 C   0  0  0  0  0  0  0  0  0  0  0  0
   15.4161    5.2511    0.0000 C   0  0  0  0  0  0  0  0  0  0  0  0
    5.7852   -2.9739    0.0000 H   0  0  0  0  0  0  0  0  0  0  0  0
    5.1771   -1.8098    0.0000 H   0  0  0  0  0  0  0  0  0  0  0  0
    5.3415   -2.5897    0.0000 H   0  0  0  0  0  0  0  0  0  0  0  0
    7.3910   -3.2595    0.0000 H   0  0  0  0  0  0  0  0  0  0  0  0
    7.9842   -2.7272    0.0000 H   0  0  0  0  0  0  0  0  0  0  0  0
    6.0142   -0.5316    0.0000 H   0  0  0  0  0  0  0  0  0  0  0  0
    5.4209   -1.0639    0.0000 H   0  0  0  0  0  0  0  0  0  0  0  0
    8.2280   -1.9814    0.0000 H   0  0  0  0  0  0  0  0  0  0  0  0
    8.0636   -1.2014    0.0000 H   0  0  0  0  0  0  0  0  0  0  0  0
    7.3033    0.6251    0.0000 H   0  0  0  0  0  0  0  0  0  0  0  0
    6.7101    0.0928    0.0000 H   0  0  0  0  0  0  0  0  0  0  0  0
    8.3230   -0.4080    0.0000 H   0  0  0  0  0  0  0  0  0  0  0  0
    8.9162    0.1243    0.0000 H   0  0  0  0  0  0  0  0  0  0  0  0
    7.2848   -4.6013    0.0000 H   0  0  0  0  0  0  0  0  0  0  0  0
    8.5925    1.7819    0.0000 H   0  0  0  0  0  0  0  0  0  0  0  0
    7.9992    1.2496    0.0000 H   0  0  0  0  0  0  0  0  0  0  0  0
    6.2738   -5.9954    0.0000 H   0  0  0  0  0  0  0  0  0  0  0  0
    4.2690   -2.9813    0.0000 H   0  0  0  0  0  0  0  0  0  0  0  0
    9.6121    0.7488    0.0000 H   0  0  0  0  0  0  0  0  0  0  0  0
   10.2054    1.2811    0.0000 H   0  0  0  0  0  0  0  0  0  0  0  0
    4.2690   -6.2213    0.0000 H   0  0  0  0  0  0  0  0  0  0  0  0
    9.8816    2.9386    0.0000 H   0  0  0  0  0  0  0  0  0  0  0  0
    9.2884    2.4063    0.0000 H   0  0  0  0  0  0  0  0  0  0  0  0
    2.8660   -5.4113    0.0000 H   0  0  0  0  0  0  0  0  0  0  0  0
   11.2948    2.0637    0.0000 H   0  0  0  0  0  0  0  0  0  0  0  0
    2.0000   -3.9113    0.0000 H   0  0  0  0  0  0  0  0  0  0  0  0
   12.5840    3.2204    0.0000 H   0  0  0  0  0  0  0  0  0  0  0  0
   12.0665    5.0939    0.0000 H   0  0  0  0  0  0  0  0  0  0  0  0
   13.9343    3.5050    0.0000 H   0  0  0  0  0  0  0  0  0  0  0  0
   13.3557    6.2506    0.0000 H   0  0  0  0  0  0  0  0  0  0  0  0
   14.9408    6.5847    0.0000 H   0  0  0  0  0  0  0  0  0  0  0  0
  1 32  1  0  0  0  0
  2 34  1  0  0  0  0
  3 23  1  0  0  0  0
  3 60  1  0  0  0  0
  4 26  2  0  0  0  0
  5 11  1  0  0  0  0
  5 12  1  0  0  0  0
  5 14  1  0  0  0  0
  6 17  1  0  0  0  0
  6 19  1  0  0  0  0
  6 51  1  0  0  0  0
  7 24  1  0  0  0  0
  7 26  1  0  0  0  0
  7 59  1  0  0  0  0
  8  9  1  0  0  0  0
  8 10  1  0  0  0  0
  8 13  1  0  0  0  0
  8 35  1  0  0  0  0
  9 11  1  0  0  0  0
  9 36  1  0  0  0  0
  9 37  1  0  0  0  0
 10 12  1  0  0  0  0
 10 38  1  0  0  0  0
 10 39  1  0  0  0  0
 11 40  1  0  0  0  0
 11 41  1  0  0  0  0
 12 42  1  0  0  0  0
 12 43  1  0  0  0  0
 13 16  1  0  0  0  0
 13 17  2  0  0  0  0
 14 15  1  0  0  0  0
 14 44  1  0  0  0  0
 14 45  1  0  0  0  0
 15 18  1  0  0  0  0
 15 46  1  0  0  0  0
 15 47  1  0  0  0  0
 16 19  2  0  0  0  0
 16 20  1  0  0  0  0
 17 48  1  0  0  0  0
 18 21  1  0  0  0  0
 18 49  1  0  0  0  0
 18 50  1  0  0  0  0
 19 22  1  0  0  0  0
 20 23  2  0  0  0  0
 20 52  1  0  0  0  0
 21 24  1  0  0  0  0
 21 53  1  0  0  0  0
 21 54  1  0  0  0  0
 22 25  2  0  0  0  0
 22 55  1  0  0  0  0
 23 25  1  0  0  0  0
 24 56  1  0  0  0  0
 24 57  1  0  0  0  0
 25 58  1  0  0  0  0
 26 27  1  0  0  0  0
 27 28  2  0  0  0  0
 27 61  1  0  0  0  0
 28 29  1  0  0  0  0
 28 62  1  0  0  0  0
 29 30  2  0  0  0  0
 29 31  1  0  0  0  0
 30 32  1  0  0  0  0
 30 63  1  0  0  0  0
 31 33  2  0  0  0  0
 31 64  1  0  0  0  0
 32 34  2  0  0  0  0
 33 34  1  0  0  0  0
 33 65  1  0  0  0  0
M  END
> <PUBCHEM_COMPOUND_CID>
10436045

> <PUBCHEM_COMPOUND_CANONICALIZED>
1

> <PUBCHEM_CACTVS_COMPLEXITY>
670

> <PUBCHEM_CACTVS_HBOND_ACCEPTOR>
3

> <PUBCHEM_CACTVS_HBOND_DONOR>
3

> <PUBCHEM_CACTVS_ROTATABLE_BOND>
9

> <PUBCHEM_CACTVS_SUBSKEYS>
AAADceB7MAAGAAAAAAAAAAAAAAAAAWAAAAA8YIAAAAAAAFgB9AAAHgIQCAAADQ7BniQ8xvPJkgCoAzV3VACCgCAxJyAI2+A+btgIJuLDk5OEcAhk1hHI2Yew0PIOhEABIAACAAQIgAJAAAQACAAAAAAAAA==

> <PUBCHEM_IUPAC_OPENEYE_NAME>
(E)-3-(3,4-dichlorophenyl)-N-[5-[4-(5-hydroxy-1H-indol-3-yl)-1-piperidyl]pentyl]prop-2-enamide

> <PUBCHEM_IUPAC_CAS_NAME>
(E)-3-(3,4-dichlorophenyl)-N-[5-[4-(5-hydroxy-1H-indol-3-yl)-1-piperidinyl]pentyl]-2-propenamide

> <PUBCHEM_IUPAC_NAME_MARKUP>
(<I>E</I>)-3-(3,4-dichlorophenyl)-<I>N</I>-[5-[4-(5-hydroxy-1<I>H</I>-indol-3-yl)piperidin-1-yl]pentyl]prop-2-enamide

> <PUBCHEM_IUPAC_NAME>
(E)-3-(3,4-dichlorophenyl)-N-[5-[4-(5-hydroxy-1H-indol-3-yl)piperidin-1-yl]pentyl]prop-2-enamide

> <PUBCHEM_IUPAC_SYSTEMATIC_NAME>
(E)-3-(3,4-dichlorophenyl)-N-[5-[4-(5-oxidanyl-1H-indol-3-yl)piperidin-1-yl]pentyl]prop-2-enamide

> <PUBCHEM_IUPAC_TRADITIONAL_NAME>
(E)-3-(3,4-dichlorophenyl)-N-[5-[4-(5-hydroxy-1H-indol-3-yl)piperidino]pentyl]acrylamide

> <PUBCHEM_IUPAC_INCHI>
InChI=1S/C27H31Cl2N3O2/c28-24-7-4-19(16-25(24)29)5-9-27(34)30-12-2-1-3-13-32-14-10-20(11-15-32)23-18-31-26-8-6-21(33)17-22(23)26/h4-9,16-18,20,31,33H,1-3,10-15H2,(H,30,34)/b9-5+

> <PUBCHEM_IUPAC_INCHIKEY>
QBRLVMQBZIFWTB-WEVVVXLNSA-N

> <PUBCHEM_XLOGP3_AA>
6

> <PUBCHEM_EXACT_MASS>
499.1793326

> <PUBCHEM_MOLECULAR_FORMULA>
C27H31Cl2N3O2

> <PUBCHEM_MOLECULAR_WEIGHT>
500.5

> <PUBCHEM_OPENEYE_CAN_SMILES>
C1CN(CCC1C2=CNC3=C2C=C(C=C3)O)CCCCCNC(=O)C=CC4=CC(=C(C=C4)Cl)Cl

> <PUBCHEM_OPENEYE_ISO_SMILES>
C1CN(CCC1C2=CNC3=C2C=C(C=C3)O)CCCCCNC(=O)/C=C/C4=CC(=C(C=C4)Cl)Cl

> <PUBCHEM_CACTVS_TPSA>
68.4

> <PUBCHEM_MONOISOTOPIC_WEIGHT>
499.1793326

> <PUBCHEM_TOTAL_CHARGE>
0

> <PUBCHEM_HEAVY_ATOM_COUNT>
34

> <PUBCHEM_ATOM_DEF_STEREO_COUNT>
0

> <PUBCHEM_ATOM_UDEF_STEREO_COUNT>
0

> <PUBCHEM_BOND_DEF_STEREO_COUNT>
1

> <PUBCHEM_BOND_UDEF_STEREO_COUNT>
0

> <PUBCHEM_ISOTOPIC_ATOM_COUNT>
0

> <PUBCHEM_COMPONENT_COUNT>
1

> <PUBCHEM_CACTVS_TAUTO_COUNT>
18

> <PUBCHEM_COORDINATE_TYPE>
1
5
255

> <PUBCHEM_BONDANNOTATIONS>
13  16  8
13  17  8
16  19  8
16  20  8
19  22  8
20  23  8
22  25  8
23  25  8
29  30  8
29  31  8
30  32  8
31  33  8
32  34  8
33  34  8
6  17  8
6  19  8

$$$$
