10679285
  -OEChem-09292322522D

 26 27  0     1  0  0  0  0  0999 V2000
    5.1491   -2.0649    0.0000 O   0  0  0  0  0  0  0  0  0  0  0  0
    4.2724    1.4596    0.0000 O   0  0  0  0  0  0  0  0  0  0  0  0
    6.8811   -0.0649    0.0000 N   0  0  0  0  0  0  0  0  0  0  0  0
    2.5405    1.4796    0.0000 N   0  0  0  0  0  0  0  0  0  0  0  0
    6.0151   -0.5649    0.0000 C   0  0  2  0  0  0  0  0  0  0  0  0
    5.1491   -0.0649    0.0000 C   0  0  0  0  0  0  0  0  0  0  0  0
    4.2830   -0.5649    0.0000 C   0  0  0  0  0  0  0  0  0  0  0  0
    6.0151   -1.5649    0.0000 C   0  0  0  0  0  0  0  0  0  0  0  0
    4.2830   -1.5649    0.0000 C   0  0  0  0  0  0  0  0  0  0  0  0
    3.3891   -0.0303    0.0000 C   0  0  0  0  0  0  0  0  0  0  0  0
    3.3891   -2.0996    0.0000 C   0  0  0  0  0  0  0  0  0  0  0  0
    2.4830   -0.5441    0.0000 C   0  0  0  0  0  0  0  0  0  0  0  0
    2.4830   -1.5858    0.0000 C   0  0  0  0  0  0  0  0  0  0  0  0
    3.4007    0.9697    0.0000 C   0  0  0  0  0  0  0  0  0  0  0  0
    6.5520   -0.8749    0.0000 H   0  0  0  0  0  0  0  0  0  0  0  0
    5.5476    0.4100    0.0000 H   0  0  0  0  0  0  0  0  0  0  0  0
    4.7505    0.4100    0.0000 H   0  0  0  0  0  0  0  0  0  0  0  0
    6.2272   -2.1476    0.0000 H   0  0  0  0  0  0  0  0  0  0  0  0
    6.6257   -1.4573    0.0000 H   0  0  0  0  0  0  0  0  0  0  0  0
    7.4181   -0.3749    0.0000 H   0  0  0  0  0  0  0  0  0  0  0  0
    6.8811    0.5551    0.0000 H   0  0  0  0  0  0  0  0  0  0  0  0
    3.3963   -2.7196    0.0000 H   0  0  0  0  0  0  0  0  0  0  0  0
    1.9473   -0.2321    0.0000 H   0  0  0  0  0  0  0  0  0  0  0  0
    1.9473   -1.8978    0.0000 H   0  0  0  0  0  0  0  0  0  0  0  0
    2.5476    2.0996    0.0000 H   0  0  0  0  0  0  0  0  0  0  0  0
    2.0000    1.1759    0.0000 H   0  0  0  0  0  0  0  0  0  0  0  0
  1  8  1  0  0  0  0
  1  9  1  0  0  0  0
  2 14  2  0  0  0  0
  5  3  1  1  0  0  0
  3 20  1  0  0  0  0
  3 21  1  0  0  0  0
  4 14  1  0  0  0  0
  4 25  1  0  0  0  0
  4 26  1  0  0  0  0
  5  6  1  0  0  0  0
  5  8  1  0  0  0  0
  5 15  1  0  0  0  0
  6  7  1  0  0  0  0
  6 16  1  0  0  0  0
  6 17  1  0  0  0  0
  7  9  1  0  0  0  0
  7 10  2  0  0  0  0
  8 18  1  0  0  0  0
  8 19  1  0  0  0  0
  9 11  2  0  0  0  0
 10 12  1  0  0  0  0
 10 14  1  0  0  0  0
 11 13  1  0  0  0  0
 11 22  1  0  0  0  0
 12 13  2  0  0  0  0
 12 23  1  0  0  0  0
 13 24  1  0  0  0  0
M  END
> <PUBCHEM_COMPOUND_CID>
10679285

> <PUBCHEM_COMPOUND_CANONICALIZED>
1

> <PUBCHEM_CACTVS_COMPLEXITY>
232

> <PUBCHEM_CACTVS_HBOND_ACCEPTOR>
3

> <PUBCHEM_CACTVS_HBOND_DONOR>
2

> <PUBCHEM_CACTVS_ROTATABLE_BOND>
1

> <PUBCHEM_CACTVS_SUBSKEYS>
AAADccBzMAAAAAAAAAAAAAAAAAAAAAAAAAA0QAAAAAAAAACRAAAAHgAQAAAADCzhmAYwBoBABACIAiFSEACCCAAkIAAIiIEGDMgOJjKEtRuDOSDk0BEIqYe6ybCegAABAAAYAAAAAAIAADAAAAAAAAAAAA==

> <PUBCHEM_IUPAC_OPENEYE_NAME>
(3R)-3-aminochromane-5-carboxamide

> <PUBCHEM_IUPAC_CAS_NAME>
(3R)-3-amino-3,4-dihydro-2H-1-benzopyran-5-carboxamide

> <PUBCHEM_IUPAC_NAME_MARKUP>
(3<I>R</I>)-3-amino-3,4-dihydro-2<I>H</I>-chromene-5-carboxamide

> <PUBCHEM_IUPAC_NAME>
(3R)-3-amino-3,4-dihydro-2H-chromene-5-carboxamide

> <PUBCHEM_IUPAC_SYSTEMATIC_NAME>
(3R)-3-azanyl-3,4-dihydro-2H-chromene-5-carboxamide

> <PUBCHEM_IUPAC_TRADITIONAL_NAME>
(3R)-3-aminochroman-5-carboxamide

> <PUBCHEM_IUPAC_INCHI>
InChI=1S/C10H12N2O2/c11-6-4-8-7(10(12)13)2-1-3-9(8)14-5-6/h1-3,6H,4-5,11H2,(H2,12,13)/t6-/m1/s1

> <PUBCHEM_IUPAC_INCHIKEY>
BSIXOZMGFYGXST-ZCFIWIBFSA-N

> <PUBCHEM_XLOGP3_AA>
-0.1

> <PUBCHEM_EXACT_MASS>
192.089877630

> <PUBCHEM_MOLECULAR_FORMULA>
C10H12N2O2

> <PUBCHEM_MOLECULAR_WEIGHT>
192.21

> <PUBCHEM_OPENEYE_CAN_SMILES>
C1C(COC2=CC=CC(=C21)C(=O)N)N

> <PUBCHEM_OPENEYE_ISO_SMILES>
C1[C@H](COC2=CC=CC(=C21)C(=O)N)N

> <PUBCHEM_CACTVS_TPSA>
78.3

> <PUBCHEM_MONOISOTOPIC_WEIGHT>
192.089877630

> <PUBCHEM_TOTAL_CHARGE>
0

> <PUBCHEM_HEAVY_ATOM_COUNT>
14

> <PUBCHEM_ATOM_DEF_STEREO_COUNT>
1

> <PUBCHEM_ATOM_UDEF_STEREO_COUNT>
0

> <PUBCHEM_BOND_DEF_STEREO_COUNT>
0

> <PUBCHEM_BOND_UDEF_STEREO_COUNT>
0

> <PUBCHEM_ISOTOPIC_ATOM_COUNT>
0

> <PUBCHEM_COMPONENT_COUNT>
1

> <PUBCHEM_CACTVS_TAUTO_COUNT>
-1

> <PUBCHEM_COORDINATE_TYPE>
1
5
255

> <PUBCHEM_BONDANNOTATIONS>
10  12  8
11  13  8
12  13  8
5  3  5
7  10  8
7  9  8
9  11  8

$$$$
