44415835
  -OEChem-09292322282D

 68 72  0     0  0  0  0  0  0999 V2000
    8.7204    1.4297    0.0000 Cl  0  0  0  0  0  0  0  0  0  0  0  0
    6.6150   -0.8973    0.0000 O   0  0  0  0  0  0  0  0  0  0  0  0
    4.0169   -4.3972    0.0000 O   0  0  0  0  0  0  0  0  0  0  0  0
    7.4810   -4.3973    0.0000 O   0  0  0  0  0  0  0  0  0  0  0  0
    5.7490   -5.3973    0.0000 O   0  0  0  0  0  0  0  0  0  0  0  0
    3.9491    3.1944    0.0000 N   0  0  0  0  0  0  0  0  0  0  0  0
    3.0814    4.9963    0.0000 N   0  0  0  0  0  0  0  0  0  0  0  0
    4.8830    0.1027    0.0000 N   0  0  0  0  0  0  0  0  0  0  0  0
    5.3830    2.2934    0.0000 N   0  0  0  0  0  0  0  0  0  0  0  0
    4.8830   -0.8973    0.0000 N   0  0  0  0  0  0  0  0  0  0  0  0
    2.9519    3.2691    0.0000 C   0  0  0  0  0  0  0  0  0  0  0  0
    4.5125    4.0206    0.0000 C   0  0  0  0  0  0  0  0  0  0  0  0
    2.5180    4.1701    0.0000 C   0  0  0  0  0  0  0  0  0  0  0  0
    4.0786    4.9216    0.0000 C   0  0  0  0  0  0  0  0  0  0  0  0
    4.3830    2.2934    0.0000 C   0  0  0  0  0  0  0  0  0  0  0  0
    3.7595    1.5116    0.0000 C   0  0  0  0  0  0  0  0  0  0  0  0
    2.6475    5.8973    0.0000 C   0  0  0  0  0  0  0  0  0  0  0  0
    3.9820    0.5366    0.0000 C   0  0  0  0  0  0  0  0  0  0  0  0
    5.7840    0.5366    0.0000 C   0  0  0  0  0  0  0  0  0  0  0  0
    6.0065    1.5115    0.0000 C   0  0  0  0  0  0  0  0  0  0  0  0
    2.7690    1.8339    0.0000 C   0  0  0  0  0  0  0  0  0  0  0  0
    3.2295   -0.1835    0.0000 C   0  0  0  0  0  0  0  0  0  0  0  0
    2.0000    1.1313    0.0000 C   0  0  0  0  0  0  0  0  0  0  0  0
    6.5365   -0.1836    0.0000 C   0  0  0  0  0  0  0  0  0  0  0  0
    6.9970    1.8339    0.0000 C   0  0  0  0  0  0  0  0  0  0  0  0
    2.2318    0.1158    0.0000 C   0  0  0  0  0  0  0  0  0  0  0  0
    7.5342    0.1158    0.0000 C   0  0  0  0  0  0  0  0  0  0  0  0
    7.7660    1.1313    0.0000 C   0  0  0  0  0  0  0  0  0  0  0  0
    5.7490   -1.3973    0.0000 C   0  0  0  0  0  0  0  0  0  0  0  0
    5.7490   -2.3973    0.0000 C   0  0  0  0  0  0  0  0  0  0  0  0
    6.6150   -2.8973    0.0000 C   0  0  0  0  0  0  0  0  0  0  0  0
    4.8830   -2.8973    0.0000 C   0  0  0  0  0  0  0  0  0  0  0  0
    4.8830   -3.8973    0.0000 C   0  0  0  0  0  0  0  0  0  0  0  0
    6.6150   -3.8973    0.0000 C   0  0  0  0  0  0  0  0  0  0  0  0
    5.7490   -4.3973    0.0000 C   0  0  0  0  0  0  0  0  0  0  0  0
    4.0169   -5.3972    0.0000 C   0  0  0  0  0  0  0  0  0  0  0  0
    8.3471   -3.8973    0.0000 C   0  0  0  0  0  0  0  0  0  0  0  0
    6.6150   -5.8973    0.0000 C   0  0  0  0  0  0  0  0  0  0  0  0
    2.3551    3.1012    0.0000 H   0  0  0  0  0  0  0  0  0  0  0  0
    3.0137    2.6522    0.0000 H   0  0  0  0  0  0  0  0  0  0  0  0
    4.9563    3.5877    0.0000 H   0  0  0  0  0  0  0  0  0  0  0  0
    5.0159    4.3825    0.0000 H   0  0  0  0  0  0  0  0  0  0  0  0
    2.0742    4.6030    0.0000 H   0  0  0  0  0  0  0  0  0  0  0  0
    2.0146    3.8082    0.0000 H   0  0  0  0  0  0  0  0  0  0  0  0
    4.6754    5.0895    0.0000 H   0  0  0  0  0  0  0  0  0  0  0  0
    4.0168    5.5385    0.0000 H   0  0  0  0  0  0  0  0  0  0  0  0
    3.2061    6.1663    0.0000 H   0  0  0  0  0  0  0  0  0  0  0  0
    2.3785    6.4559    0.0000 H   0  0  0  0  0  0  0  0  0  0  0  0
    2.0889    5.6283    0.0000 H   0  0  0  0  0  0  0  0  0  0  0  0
    2.6380    2.4399    0.0000 H   0  0  0  0  0  0  0  0  0  0  0  0
    3.3744   -0.7864    0.0000 H   0  0  0  0  0  0  0  0  0  0  0  0
    1.4083    1.3164    0.0000 H   0  0  0  0  0  0  0  0  0  0  0  0
    4.3460   -1.2073    0.0000 H   0  0  0  0  0  0  0  0  0  0  0  0
    6.3916   -0.7864    0.0000 H   0  0  0  0  0  0  0  0  0  0  0  0
    7.1280    2.4399    0.0000 H   0  0  0  0  0  0  0  0  0  0  0  0
    1.7789   -0.3076    0.0000 H   0  0  0  0  0  0  0  0  0  0  0  0
    7.9871   -0.3077    0.0000 H   0  0  0  0  0  0  0  0  0  0  0  0
    7.1520   -2.5873    0.0000 H   0  0  0  0  0  0  0  0  0  0  0  0
    4.3460   -2.5873    0.0000 H   0  0  0  0  0  0  0  0  0  0  0  0
    3.3969   -5.3972    0.0000 H   0  0  0  0  0  0  0  0  0  0  0  0
    4.0169   -6.0172    0.0000 H   0  0  0  0  0  0  0  0  0  0  0  0
    4.6369   -5.3973    0.0000 H   0  0  0  0  0  0  0  0  0  0  0  0
    8.6571   -4.4342    0.0000 H   0  0  0  0  0  0  0  0  0  0  0  0
    8.8840   -3.5873    0.0000 H   0  0  0  0  0  0  0  0  0  0  0  0
    8.0371   -3.3604    0.0000 H   0  0  0  0  0  0  0  0  0  0  0  0
    6.3050   -6.4342    0.0000 H   0  0  0  0  0  0  0  0  0  0  0  0
    7.1519   -6.2073    0.0000 H   0  0  0  0  0  0  0  0  0  0  0  0
    6.9250   -5.3603    0.0000 H   0  0  0  0  0  0  0  0  0  0  0  0
  1 28  1  0  0  0  0
  2 29  2  0  0  0  0
  3 33  1  0  0  0  0
  3 36  1  0  0  0  0
  4 34  1  0  0  0  0
  4 37  1  0  0  0  0
  5 35  1  0  0  0  0
  5 38  1  0  0  0  0
  6 11  1  0  0  0  0
  6 12  1  0  0  0  0
  6 15  1  0  0  0  0
  7 13  1  0  0  0  0
  7 14  1  0  0  0  0
  7 17  1  0  0  0  0
  8 10  1  0  0  0  0
  8 18  1  0  0  0  0
  8 19  1  0  0  0  0
  9 15  2  0  0  0  0
  9 20  1  0  0  0  0
 10 29  1  0  0  0  0
 10 53  1  0  0  0  0
 11 13  1  0  0  0  0
 11 39  1  0  0  0  0
 11 40  1  0  0  0  0
 12 14  1  0  0  0  0
 12 41  1  0  0  0  0
 12 42  1  0  0  0  0
 13 43  1  0  0  0  0
 13 44  1  0  0  0  0
 14 45  1  0  0  0  0
 14 46  1  0  0  0  0
 15 16  1  0  0  0  0
 16 18  1  0  0  0  0
 16 21  2  0  0  0  0
 17 47  1  0  0  0  0
 17 48  1  0  0  0  0
 17 49  1  0  0  0  0
 18 22  2  0  0  0  0
 19 20  2  0  0  0  0
 19 24  1  0  0  0  0
 20 25  1  0  0  0  0
 21 23  1  0  0  0  0
 21 50  1  0  0  0  0
 22 26  1  0  0  0  0
 22 51  1  0  0  0  0
 23 26  2  0  0  0  0
 23 52  1  0  0  0  0
 24 27  2  0  0  0  0
 24 54  1  0  0  0  0
 25 28  2  0  0  0  0
 25 55  1  0  0  0  0
 26 56  1  0  0  0  0
 27 28  1  0  0  0  0
 27 57  1  0  0  0  0
 29 30  1  0  0  0  0
 30 31  2  0  0  0  0
 30 32  1  0  0  0  0
 31 34  1  0  0  0  0
 31 58  1  0  0  0  0
 32 33  2  0  0  0  0
 32 59  1  0  0  0  0
 33 35  1  0  0  0  0
 34 35  2  0  0  0  0
 36 60  1  0  0  0  0
 36 61  1  0  0  0  0
 36 62  1  0  0  0  0
 37 63  1  0  0  0  0
 37 64  1  0  0  0  0
 37 65  1  0  0  0  0
 38 66  1  0  0  0  0
 38 67  1  0  0  0  0
 38 68  1  0  0  0  0
M  END
> <PUBCHEM_COMPOUND_CID>
44415835

> <PUBCHEM_COMPOUND_CANONICALIZED>
1

> <PUBCHEM_CACTVS_COMPLEXITY>
826

> <PUBCHEM_CACTVS_HBOND_ACCEPTOR>
7

> <PUBCHEM_CACTVS_HBOND_DONOR>
1

> <PUBCHEM_CACTVS_ROTATABLE_BOND>
6

> <PUBCHEM_CACTVS_SUBSKEYS>
AAADceB7uAAEAAAAAAAAAAAAAAAAAAAAAAA8YMEABAAAAAABUAAAHgIYAAAADA7BmCYzxoNiBACoAidydACCDAElJwAbqAEu/tgNZ/LF/5uUMSplwBXK6Ye6/BzOIABBCAICQCBAAIIQBASAQAAAAAAAAA==

> <PUBCHEM_IUPAC_OPENEYE_NAME>
N-[3-chloro-6-(4-methylpiperazin-1-yl)benzo[b][1,4]benzodiazepin-11-yl]-3,4,5-trimethoxy-benzamide

> <PUBCHEM_IUPAC_CAS_NAME>
N-[3-chloro-6-(4-methyl-1-piperazinyl)-11-benzo[b][1,4]benzodiazepinyl]-3,4,5-trimethoxybenzamide

> <PUBCHEM_IUPAC_NAME_MARKUP>
<I>N</I>-[3-chloro-6-(4-methylpiperazin-1-yl)benzo[b][1,4]benzodiazepin-11-yl]-3,4,5-trimethoxybenzamide

> <PUBCHEM_IUPAC_NAME>
N-[3-chloro-6-(4-methylpiperazin-1-yl)benzo[b][1,4]benzodiazepin-11-yl]-3,4,5-trimethoxybenzamide

> <PUBCHEM_IUPAC_SYSTEMATIC_NAME>
N-[3-chloranyl-6-(4-methylpiperazin-1-yl)benzo[b][1,4]benzodiazepin-11-yl]-3,4,5-trimethoxy-benzamide

> <PUBCHEM_IUPAC_TRADITIONAL_NAME>
N-[3-chloro-6-(4-methylpiperazino)benzo[b][1,4]benzodiazepin-11-yl]-3,4,5-trimethoxy-benzamide

> <PUBCHEM_IUPAC_INCHI>
InChI=1S/C28H30ClN5O4/c1-32-11-13-33(14-12-32)27-20-7-5-6-8-22(20)34(23-10-9-19(29)17-21(23)30-27)31-28(35)18-15-24(36-2)26(38-4)25(16-18)37-3/h5-10,15-17H,11-14H2,1-4H3,(H,31,35)

> <PUBCHEM_IUPAC_INCHIKEY>
PUAJJDPOGQASSI-UHFFFAOYSA-N

> <PUBCHEM_XLOGP3_AA>
4.3

> <PUBCHEM_EXACT_MASS>
535.1986321

> <PUBCHEM_MOLECULAR_FORMULA>
C28H30ClN5O4

> <PUBCHEM_MOLECULAR_WEIGHT>
536.0

> <PUBCHEM_OPENEYE_CAN_SMILES>
CN1CCN(CC1)C2=NC3=C(C=CC(=C3)Cl)N(C4=CC=CC=C42)NC(=O)C5=CC(=C(C(=C5)OC)OC)OC

> <PUBCHEM_OPENEYE_ISO_SMILES>
CN1CCN(CC1)C2=NC3=C(C=CC(=C3)Cl)N(C4=CC=CC=C42)NC(=O)C5=CC(=C(C(=C5)OC)OC)OC

> <PUBCHEM_CACTVS_TPSA>
78.9

> <PUBCHEM_MONOISOTOPIC_WEIGHT>
535.1986321

> <PUBCHEM_TOTAL_CHARGE>
0

> <PUBCHEM_HEAVY_ATOM_COUNT>
38

> <PUBCHEM_ATOM_DEF_STEREO_COUNT>
0

> <PUBCHEM_ATOM_UDEF_STEREO_COUNT>
0

> <PUBCHEM_BOND_DEF_STEREO_COUNT>
0

> <PUBCHEM_BOND_UDEF_STEREO_COUNT>
0

> <PUBCHEM_ISOTOPIC_ATOM_COUNT>
0

> <PUBCHEM_COMPONENT_COUNT>
1

> <PUBCHEM_CACTVS_TAUTO_COUNT>
-1

> <PUBCHEM_COORDINATE_TYPE>
1
5
255

> <PUBCHEM_BONDANNOTATIONS>
16  18  8
16  21  8
18  22  8
19  20  8
19  24  8
20  25  8
21  23  8
22  26  8
23  26  8
24  27  8
25  28  8
27  28  8
30  31  8
30  32  8
31  34  8
32  33  8
33  35  8
34  35  8

$$$$
