49799694
  -OEChem-09292322302D

 60 63  0     0  0  0  0  0  0999 V2000
   10.4682    1.6200    0.0000 O   0  0  0  0  0  0  0  0  0  0  0  0
   10.1131    8.3637    0.0000 O   0  0  0  0  0  0  0  0  0  0  0  0
    3.1350    4.6730    0.0000 O   0  0  0  0  0  0  0  0  0  0  0  0
    0.5369    5.1730    0.0000 O   0  0  0  0  0  0  0  0  0  0  0  0
    2.2690    6.1730    0.0000 O   0  0  0  0  0  0  0  0  0  0  0  0
    1.4030    3.6730    0.0000 O   0  0  0  0  0  0  0  0  0  0  0  0
    9.8166    5.2763    0.0000 N   0  0  0  0  0  0  0  0  0  0  0  0
    8.8846    2.4247    0.0000 N   0  0  0  0  0  0  0  0  0  0  0  0
    8.8846    0.8153    0.0000 N   0  0  0  0  0  0  0  0  0  0  0  0
   12.7058    6.2593    0.0000 N   0  0  0  0  0  0  0  0  0  0  0  0
    9.1953    3.3752    0.0000 C   0  0  0  0  0  0  0  0  0  0  0  0
    8.5274    4.1196    0.0000 C   0  0  0  0  0  0  0  0  0  0  0  0
   10.1738    3.5815    0.0000 C   0  0  0  0  0  0  0  0  0  0  0  0
    8.8381    5.0701    0.0000 C   0  0  0  0  0  0  0  0  0  0  0  0
   10.4844    4.5320    0.0000 C   0  0  0  0  0  0  0  0  0  0  0  0
   10.1272    6.2268    0.0000 C   0  0  0  0  0  0  0  0  0  0  0  0
    7.9384    2.1200    0.0000 C   0  0  0  0  0  0  0  0  0  0  0  0
    9.4682    1.6200    0.0000 C   0  0  0  0  0  0  0  0  0  0  0  0
   11.1058    6.4330    0.0000 C   0  0  0  0  0  0  0  0  0  0  0  0
    7.9384    1.1200    0.0000 C   0  0  0  0  0  0  0  0  0  0  0  0
   11.5109    7.3408    0.0000 C   0  0  0  0  0  0  0  0  0  0  0  0
    7.0724    2.6200    0.0000 C   0  0  0  0  0  0  0  0  0  0  0  0
   11.8428    5.7660    0.0000 C   0  0  0  0  0  0  0  0  0  0  0  0
   12.5050    7.2328    0.0000 C   0  0  0  0  0  0  0  0  0  0  0  0
    7.0724    0.6200    0.0000 C   0  0  0  0  0  0  0  0  0  0  0  0
   11.1073    8.2558    0.0000 C   0  0  0  0  0  0  0  0  0  0  0  0
    6.2063    2.1200    0.0000 C   0  0  0  0  0  0  0  0  0  0  0  0
    6.2063    1.1200    0.0000 C   0  0  0  0  0  0  0  0  0  0  0  0
   13.0956    8.0398    0.0000 C   0  0  0  0  0  0  0  0  0  0  0  0
   11.6979    9.0627    0.0000 C   0  0  0  0  0  0  0  0  0  0  0  0
   12.6920    8.9548    0.0000 C   0  0  0  0  0  0  0  0  0  0  0  0
    9.7096    9.2787    0.0000 C   0  0  0  0  0  0  0  0  0  0  0  0
    2.2690    5.1730    0.0000 C   0  0  0  0  0  0  0  0  0  0  0  0
    1.4030    4.6730    0.0000 C   0  0  0  0  0  0  0  0  0  0  0  0
    9.6093    2.9138    0.0000 H   0  0  0  0  0  0  0  0  0  0  0  0
    7.9805    4.4116    0.0000 H   0  0  0  0  0  0  0  0  0  0  0  0
    8.1449    3.6316    0.0000 H   0  0  0  0  0  0  0  0  0  0  0  0
   10.1943    2.9618    0.0000 H   0  0  0  0  0  0  0  0  0  0  0  0
   10.7876    3.4941    0.0000 H   0  0  0  0  0  0  0  0  0  0  0  0
    8.8175    5.6897    0.0000 H   0  0  0  0  0  0  0  0  0  0  0  0
    8.2243    5.1574    0.0000 H   0  0  0  0  0  0  0  0  0  0  0  0
   11.0313    4.2400    0.0000 H   0  0  0  0  0  0  0  0  0  0  0  0
   10.8670    5.0199    0.0000 H   0  0  0  0  0  0  0  0  0  0  0  0
   10.1067    6.8465    0.0000 H   0  0  0  0  0  0  0  0  0  0  0  0
    9.5134    6.3142    0.0000 H   0  0  0  0  0  0  0  0  0  0  0  0
    9.0772    0.2259    0.0000 H   0  0  0  0  0  0  0  0  0  0  0  0
    7.0724    3.2400    0.0000 H   0  0  0  0  0  0  0  0  0  0  0  0
   11.7758    5.1496    0.0000 H   0  0  0  0  0  0  0  0  0  0  0  0
    7.0724    0.0000    0.0000 H   0  0  0  0  0  0  0  0  0  0  0  0
   13.2709    6.0042    0.0000 H   0  0  0  0  0  0  0  0  0  0  0  0
    5.6694    2.4300    0.0000 H   0  0  0  0  0  0  0  0  0  0  0  0
    5.6694    0.8100    0.0000 H   0  0  0  0  0  0  0  0  0  0  0  0
   13.7120    7.9729    0.0000 H   0  0  0  0  0  0  0  0  0  0  0  0
   11.4477    9.6300    0.0000 H   0  0  0  0  0  0  0  0  0  0  0  0
   13.0582    9.4551    0.0000 H   0  0  0  0  0  0  0  0  0  0  0  0
   10.2768    9.5289    0.0000 H   0  0  0  0  0  0  0  0  0  0  0  0
    9.4594    9.8460    0.0000 H   0  0  0  0  0  0  0  0  0  0  0  0
    9.1423    9.0285    0.0000 H   0  0  0  0  0  0  0  0  0  0  0  0
    3.6720    4.9830    0.0000 H   0  0  0  0  0  0  0  0  0  0  0  0
    0.0000    4.8630    0.0000 H   0  0  0  0  0  0  0  0  0  0  0  0
  1 18  2  0  0  0  0
  2 26  1  0  0  0  0
  2 32  1  0  0  0  0
  3 33  1  0  0  0  0
  3 59  1  0  0  0  0
  4 34  1  0  0  0  0
  4 60  1  0  0  0  0
  5 33  2  0  0  0  0
  6 34  2  0  0  0  0
  7 14  1  0  0  0  0
  7 15  1  0  0  0  0
  7 16  1  0  0  0  0
  8 11  1  0  0  0  0
  8 17  1  0  0  0  0
  8 18  1  0  0  0  0
  9 18  1  0  0  0  0
  9 20  1  0  0  0  0
  9 46  1  0  0  0  0
 10 23  1  0  0  0  0
 10 24  1  0  0  0  0
 10 50  1  0  0  0  0
 11 12  1  0  0  0  0
 11 13  1  0  0  0  0
 11 35  1  0  0  0  0
 12 14  1  0  0  0  0
 12 36  1  0  0  0  0
 12 37  1  0  0  0  0
 13 15  1  0  0  0  0
 13 38  1  0  0  0  0
 13 39  1  0  0  0  0
 14 40  1  0  0  0  0
 14 41  1  0  0  0  0
 15 42  1  0  0  0  0
 15 43  1  0  0  0  0
 16 19  1  0  0  0  0
 16 44  1  0  0  0  0
 16 45  1  0  0  0  0
 17 20  1  0  0  0  0
 17 22  2  0  0  0  0
 19 21  1  0  0  0  0
 19 23  2  0  0  0  0
 20 25  2  0  0  0  0
 21 24  2  0  0  0  0
 21 26  1  0  0  0  0
 22 27  1  0  0  0  0
 22 47  1  0  0  0  0
 23 48  1  0  0  0  0
 24 29  1  0  0  0  0
 25 28  1  0  0  0  0
 25 49  1  0  0  0  0
 26 30  2  0  0  0  0
 27 28  2  0  0  0  0
 27 51  1  0  0  0  0
 28 52  1  0  0  0  0
 29 31  2  0  0  0  0
 29 53  1  0  0  0  0
 30 31  1  0  0  0  0
 30 54  1  0  0  0  0
 31 55  1  0  0  0  0
 32 56  1  0  0  0  0
 32 57  1  0  0  0  0
 32 58  1  0  0  0  0
 33 34  1  0  0  0  0
M  END
> <PUBCHEM_COMPOUND_CID>
49799694

> <PUBCHEM_COMPOUND_CANONICALIZED>
1

> <PUBCHEM_CACTVS_COMPLEXITY>
636

> <PUBCHEM_CACTVS_HBOND_ACCEPTOR>
7

> <PUBCHEM_CACTVS_HBOND_DONOR>
4

> <PUBCHEM_CACTVS_ROTATABLE_BOND>
5

> <PUBCHEM_CACTVS_SUBSKEYS>
AAADceB7uAAAAAAAAAAAAAAAAAAAAWLAAAA8YIAAAAAAAFgB9AAAHgAQCAAADCzBngY/zvPJlgCoAzT3XAKCiCAxIiAI2aB+fJiNZuLE8ZuUMChu1hvJ6Cew0OMOgAAAAgAKACAAAAAEABQAQAAAAAAAAA==

> <PUBCHEM_IUPAC_OPENEYE_NAME>
3-[1-[(4-methoxy-1H-indol-3-yl)methyl]-4-piperidyl]-1H-benzimidazol-2-one;oxalic acid

> <PUBCHEM_IUPAC_CAS_NAME>
3-[1-[(4-methoxy-1H-indol-3-yl)methyl]-4-piperidinyl]-1H-benzimidazol-2-one;oxalic acid

> <PUBCHEM_IUPAC_NAME_MARKUP>
3-[1-[(4-methoxy-1<I>H</I>-indol-3-yl)methyl]piperidin-4-yl]-1<I>H</I>-benzimidazol-2-one;oxalic acid

> <PUBCHEM_IUPAC_NAME>
3-[1-[(4-methoxy-1H-indol-3-yl)methyl]piperidin-4-yl]-1H-benzimidazol-2-one;oxalic acid

> <PUBCHEM_IUPAC_SYSTEMATIC_NAME>
ethanedioic acid;3-[1-[(4-methoxy-1H-indol-3-yl)methyl]piperidin-4-yl]-1H-benzimidazol-2-one

> <PUBCHEM_IUPAC_TRADITIONAL_NAME>
3-[1-[(4-methoxy-1H-indol-3-yl)methyl]-4-piperidyl]-1H-benzimidazol-2-one;oxalic acid

> <PUBCHEM_IUPAC_INCHI>
InChI=1S/C22H24N4O2.C2H2O4/c1-28-20-8-4-6-18-21(20)15(13-23-18)14-25-11-9-16(10-12-25)26-19-7-3-2-5-17(19)24-22(26)27;3-1(4)2(5)6/h2-8,13,16,23H,9-12,14H2,1H3,(H,24,27);(H,3,4)(H,5,6)

> <PUBCHEM_IUPAC_INCHIKEY>
FTWLMQRWYILDDU-UHFFFAOYSA-N

> <PUBCHEM_EXACT_MASS>
466.18523456

> <PUBCHEM_MOLECULAR_FORMULA>
C24H26N4O6

> <PUBCHEM_MOLECULAR_WEIGHT>
466.5

> <PUBCHEM_OPENEYE_CAN_SMILES>
COC1=CC=CC2=C1C(=CN2)CN3CCC(CC3)N4C5=CC=CC=C5NC4=O.C(=O)(C(=O)O)O

> <PUBCHEM_OPENEYE_ISO_SMILES>
COC1=CC=CC2=C1C(=CN2)CN3CCC(CC3)N4C5=CC=CC=C5NC4=O.C(=O)(C(=O)O)O

> <PUBCHEM_CACTVS_TPSA>
135

> <PUBCHEM_MONOISOTOPIC_WEIGHT>
466.18523456

> <PUBCHEM_TOTAL_CHARGE>
0

> <PUBCHEM_HEAVY_ATOM_COUNT>
34

> <PUBCHEM_ATOM_DEF_STEREO_COUNT>
0

> <PUBCHEM_ATOM_UDEF_STEREO_COUNT>
0

> <PUBCHEM_BOND_DEF_STEREO_COUNT>
0

> <PUBCHEM_BOND_UDEF_STEREO_COUNT>
0

> <PUBCHEM_ISOTOPIC_ATOM_COUNT>
0

> <PUBCHEM_COMPONENT_COUNT>
2

> <PUBCHEM_CACTVS_TAUTO_COUNT>
-1

> <PUBCHEM_COORDINATE_TYPE>
1
5
255

> <PUBCHEM_BONDANNOTATIONS>
10  23  8
10  24  8
17  20  8
17  22  8
19  21  8
19  23  8
20  25  8
21  24  8
21  26  8
22  27  8
24  29  8
25  28  8
26  30  8
27  28  8
29  31  8
30  31  8
8  17  8
8  18  8
9  18  8
9  20  8

$$$$
