145992860
  -OEChem-09292322062D

 63 68  0     1  0  0  0  0  0999 V2000
   12.5410   -1.8063    0.0000 O   0  0  0  0  0  0  0  0  0  0  0  0
   11.3403    1.4925    0.0000 O   0  0  0  0  0  0  0  0  0  0  0  0
    3.9445    0.6489    0.0000 O   0  0  0  0  0  0  0  0  0  0  0  0
    2.0000   -0.0589    0.0000 O   0  0  0  0  0  0  0  0  0  0  0  0
   11.6841   -0.2503    0.0000 N   0  0  0  0  0  0  0  0  0  0  0  0
    7.3330    0.0092    0.0000 N   0  0  0  0  0  0  0  0  0  0  0  0
    5.4536   -0.6748    0.0000 N   0  0  0  0  0  0  0  0  0  0  0  0
   13.2927   -0.1969    0.0000 C   0  0  1  0  0  0  0  0  0  0  0  0
   12.9507    0.7428    0.0000 C   0  0  2  0  0  0  0  0  0  0  0  0
   14.6654    0.3951    0.0000 C   0  0  2  0  0  0  0  0  0  0  0  0
   14.9242    1.3611    0.0000 C   0  0  1  0  0  0  0  0  0  0  0  0
   14.1876    2.3437    0.0000 C   0  0  0  0  0  0  0  0  0  0  0  0
   16.0644   -0.1137    0.0000 C   0  0  0  0  0  0  0  0  0  0  0  0
   16.3232    0.8522    0.0000 C   0  0  0  0  0  0  0  0  0  0  0  0
   12.5078   -0.8069    0.0000 C   0  0  0  0  0  0  0  0  0  0  0  0
   11.9573    0.7055    0.0000 C   0  0  0  0  0  0  0  0  0  0  0  0
   10.7445   -0.5923    0.0000 C   0  0  0  0  0  0  0  0  0  0  0  0
    9.9784    0.0505    0.0000 C   0  0  0  0  0  0  0  0  0  0  0  0
    9.0387   -0.2915    0.0000 C   0  0  0  0  0  0  0  0  0  0  0  0
    8.2727    0.3512    0.0000 C   0  0  0  0  0  0  0  0  0  0  0  0
    6.5669    0.6520    0.0000 C   0  0  0  0  0  0  0  0  0  0  0  0
    7.1593   -0.9756    0.0000 C   0  0  0  0  0  0  0  0  0  0  0  0
    5.6272    0.3100    0.0000 C   0  0  0  0  0  0  0  0  0  0  0  0
    6.2196   -1.3176    0.0000 C   0  0  0  0  0  0  0  0  0  0  0  0
    4.5139   -1.0168    0.0000 C   0  0  0  0  0  0  0  0  0  0  0  0
    3.7479   -0.3740    0.0000 C   0  0  0  0  0  0  0  0  0  0  0  0
    4.3402   -2.0016    0.0000 C   0  0  0  0  0  0  0  0  0  0  0  0
    2.8082   -0.7161    0.0000 C   0  0  0  0  0  0  0  0  0  0  0  0
    3.4006   -2.3437    0.0000 C   0  0  0  0  0  0  0  0  0  0  0  0
    2.6345   -1.7009    0.0000 C   0  0  0  0  0  0  0  0  0  0  0  0
    3.1518    1.3245    0.0000 C   0  0  0  0  0  0  0  0  0  0  0  0
    2.1730    0.9683    0.0000 C   0  0  0  0  0  0  0  0  0  0  0  0
   13.5834   -0.9956    0.0000 H   0  0  0  0  0  0  0  0  0  0  0  0
   12.6600    1.5415    0.0000 H   0  0  0  0  0  0  0  0  0  0  0  0
   14.4454   -0.4259    0.0000 H   0  0  0  0  0  0  0  0  0  0  0  0
   15.1442    2.1821    0.0000 H   0  0  0  0  0  0  0  0  0  0  0  0
   14.5054    2.8760    0.0000 H   0  0  0  0  0  0  0  0  0  0  0  0
   13.5745    2.4356    0.0000 H   0  0  0  0  0  0  0  0  0  0  0  0
   16.3507   -0.6636    0.0000 H   0  0  0  0  0  0  0  0  0  0  0  0
   16.8731    1.1386    0.0000 H   0  0  0  0  0  0  0  0  0  0  0  0
   10.2695   -0.9908    0.0000 H   0  0  0  0  0  0  0  0  0  0  0  0
   11.0545   -1.1292    0.0000 H   0  0  0  0  0  0  0  0  0  0  0  0
   10.4534    0.4490    0.0000 H   0  0  0  0  0  0  0  0  0  0  0  0
    9.6684    0.5874    0.0000 H   0  0  0  0  0  0  0  0  0  0  0  0
    8.5638   -0.6901    0.0000 H   0  0  0  0  0  0  0  0  0  0  0  0
    9.3487   -0.8285    0.0000 H   0  0  0  0  0  0  0  0  0  0  0  0
    8.7476    0.7498    0.0000 H   0  0  0  0  0  0  0  0  0  0  0  0
    7.9627    0.8882    0.0000 H   0  0  0  0  0  0  0  0  0  0  0  0
    7.0419    1.0505    0.0000 H   0  0  0  0  0  0  0  0  0  0  0  0
    6.2569    1.1890    0.0000 H   0  0  0  0  0  0  0  0  0  0  0  0
    7.2670   -1.5862    0.0000 H   0  0  0  0  0  0  0  0  0  0  0  0
    7.7793   -0.9756    0.0000 H   0  0  0  0  0  0  0  0  0  0  0  0
    5.5196    0.9206    0.0000 H   0  0  0  0  0  0  0  0  0  0  0  0
    5.0072    0.3100    0.0000 H   0  0  0  0  0  0  0  0  0  0  0  0
    5.7447   -1.7161    0.0000 H   0  0  0  0  0  0  0  0  0  0  0  0
    6.5296   -1.8545    0.0000 H   0  0  0  0  0  0  0  0  0  0  0  0
    4.8152   -2.4002    0.0000 H   0  0  0  0  0  0  0  0  0  0  0  0
    3.2929   -2.9542    0.0000 H   0  0  0  0  0  0  0  0  0  0  0  0
    2.0519   -1.9129    0.0000 H   0  0  0  0  0  0  0  0  0  0  0  0
    3.6288    1.7206    0.0000 H   0  0  0  0  0  0  0  0  0  0  0  0
    2.8432    1.8623    0.0000 H   0  0  0  0  0  0  0  0  0  0  0  0
    2.0637    1.5786    0.0000 H   0  0  0  0  0  0  0  0  0  0  0  0
    1.5530    0.9651    0.0000 H   0  0  0  0  0  0  0  0  0  0  0  0
  1 15  2  0  0  0  0
  2 16  2  0  0  0  0
  3 26  1  0  0  0  0
  3 31  1  0  0  0  0
  4 28  1  0  0  0  0
  4 32  1  0  0  0  0
  5 15  1  0  0  0  0
  5 16  1  0  0  0  0
  5 17  1  0  0  0  0
  6 20  1  0  0  0  0
  6 21  1  0  0  0  0
  6 22  1  0  0  0  0
  7 23  1  0  0  0  0
  7 24  1  0  0  0  0
  7 25  1  0  0  0  0
  8  9  1  0  0  0  0
  8 10  1  0  0  0  0
  8 15  1  0  0  0  0
  8 33  1  6  0  0  0
  9 11  1  0  0  0  0
  9 16  1  0  0  0  0
  9 34  1  6  0  0  0
 10 12  1  0  0  0  0
 10 13  1  0  0  0  0
 10 35  1  1  0  0  0
 11 12  1  0  0  0  0
 11 14  1  0  0  0  0
 11 36  1  6  0  0  0
 12 37  1  0  0  0  0
 12 38  1  0  0  0  0
 13 14  2  0  0  0  0
 13 39  1  0  0  0  0
 14 40  1  0  0  0  0
 17 18  1  0  0  0  0
 17 41  1  0  0  0  0
 17 42  1  0  0  0  0
 18 19  1  0  0  0  0
 18 43  1  0  0  0  0
 18 44  1  0  0  0  0
 19 20  1  0  0  0  0
 19 45  1  0  0  0  0
 19 46  1  0  0  0  0
 20 47  1  0  0  0  0
 20 48  1  0  0  0  0
 21 23  1  0  0  0  0
 21 49  1  0  0  0  0
 21 50  1  0  0  0  0
 22 24  1  0  0  0  0
 22 51  1  0  0  0  0
 22 52  1  0  0  0  0
 23 53  1  0  0  0  0
 23 54  1  0  0  0  0
 24 55  1  0  0  0  0
 24 56  1  0  0  0  0
 25 26  2  0  0  0  0
 25 27  1  0  0  0  0
 26 28  1  0  0  0  0
 27 29  2  0  0  0  0
 27 57  1  0  0  0  0
 28 30  2  0  0  0  0
 29 30  1  0  0  0  0
 29 58  1  0  0  0  0
 30 59  1  0  0  0  0
 31 32  1  0  0  0  0
 31 60  1  0  0  0  0
 31 61  1  0  0  0  0
 32 62  1  0  0  0  0
 32 63  1  0  0  0  0
M  END
> <PUBCHEM_COMPOUND_CID>
145992860

> <PUBCHEM_COMPOUND_CANONICALIZED>
1

> <PUBCHEM_CACTVS_COMPLEXITY>
734

> <PUBCHEM_CACTVS_HBOND_ACCEPTOR>
6

> <PUBCHEM_CACTVS_HBOND_DONOR>
0

> <PUBCHEM_CACTVS_ROTATABLE_BOND>
6

> <PUBCHEM_CACTVS_SUBSKEYS>
AAADceB7OAAAAAAAAAAAAAAAAAAAAeIEAAA8SIEAAAAWAACRAAAAHgAAAAAADQzhkAYwxoMABACIACVSUACCCAAhIgAIiAEP7IgPZjLEsZuXOCrmxjna6Aed2AOOgAAAAgAAUAAAAAAEAACgAQAACAAAAA==

> <PUBCHEM_IUPAC_OPENEYE_NAME>
(1R,2R,6S,7S)-4-[4-[4-(2,3-dihydro-1,4-benzodioxin-5-yl)piperazin-1-yl]butyl]-4-azatricyclo[5.2.1.02,6]dec-8-ene-3,5-dione

> <PUBCHEM_IUPAC_CAS_NAME>
(1R,2R,6S,7S)-4-[4-[4-(2,3-dihydro-1,4-benzodioxin-5-yl)-1-piperazinyl]butyl]-4-azatricyclo[5.2.1.02,6]dec-8-ene-3,5-dione

> <PUBCHEM_IUPAC_NAME_MARKUP>
(1<I>R</I>,2<I>R</I>,6<I>S</I>,7<I>S</I>)-4-[4-[4-(2,3-dihydro-1,4-benzodioxin-5-yl)piperazin-1-yl]butyl]-4-azatricyclo[5.2.1.0<SUP>2,6</SUP>]dec-8-ene-3,5-dione

> <PUBCHEM_IUPAC_NAME>
(1R,2R,6S,7S)-4-[4-[4-(2,3-dihydro-1,4-benzodioxin-5-yl)piperazin-1-yl]butyl]-4-azatricyclo[5.2.1.02,6]dec-8-ene-3,5-dione

> <PUBCHEM_IUPAC_SYSTEMATIC_NAME>
(1R,2R,6S,7S)-4-[4-[4-(2,3-dihydro-1,4-benzodioxin-5-yl)piperazin-1-yl]butyl]-4-azatricyclo[5.2.1.02,6]dec-8-ene-3,5-dione

> <PUBCHEM_IUPAC_TRADITIONAL_NAME>
(1R,2R,6S,7S)-4-[4-[4-(2,3-dihydro-1,4-benzodioxin-5-yl)piperazino]butyl]-4-azatricyclo[5.2.1.02,6]dec-8-ene-3,5-quinone

> <PUBCHEM_IUPAC_INCHI>
InChI=1S/C25H31N3O4/c29-24-21-17-6-7-18(16-17)22(21)25(30)28(24)9-2-1-8-26-10-12-27(13-11-26)19-4-3-5-20-23(19)32-15-14-31-20/h3-7,17-18,21-22H,1-2,8-16H2/t17-,18+,21+,22-

> <PUBCHEM_IUPAC_INCHIKEY>
OBKOPYWWTQOWFZ-MTIDIVMFSA-N

> <PUBCHEM_XLOGP3_AA>
2.3

> <PUBCHEM_EXACT_MASS>
437.23145648

> <PUBCHEM_MOLECULAR_FORMULA>
C25H31N3O4

> <PUBCHEM_MOLECULAR_WEIGHT>
437.5

> <PUBCHEM_OPENEYE_CAN_SMILES>
C1CN(CCN1CCCCN2C(=O)C3C4CC(C3C2=O)C=C4)C5=C6C(=CC=C5)OCCO6

> <PUBCHEM_OPENEYE_ISO_SMILES>
C1CN(CCN1CCCCN2C(=O)[C@@H]3[C@@H]4C[C@H]([C@@H]3C2=O)C=C4)C5=C6C(=CC=C5)OCCO6

> <PUBCHEM_CACTVS_TPSA>
62.3

> <PUBCHEM_MONOISOTOPIC_WEIGHT>
437.23145648

> <PUBCHEM_TOTAL_CHARGE>
0

> <PUBCHEM_HEAVY_ATOM_COUNT>
32

> <PUBCHEM_ATOM_DEF_STEREO_COUNT>
4

> <PUBCHEM_ATOM_UDEF_STEREO_COUNT>
0

> <PUBCHEM_BOND_DEF_STEREO_COUNT>
0

> <PUBCHEM_BOND_UDEF_STEREO_COUNT>
0

> <PUBCHEM_ISOTOPIC_ATOM_COUNT>
0

> <PUBCHEM_COMPONENT_COUNT>
1

> <PUBCHEM_CACTVS_TAUTO_COUNT>
-1

> <PUBCHEM_COORDINATE_TYPE>
1
5
255

> <PUBCHEM_BONDANNOTATIONS>
10  35  5
11  36  6
25  26  8
25  27  8
26  28  8
27  29  8
28  30  8
29  30  8
8  33  6
9  34  6

$$$$
