137655556
  -OEChem-09292322002D

 62 66  0     1  0  0  0  0  0999 V2000
    4.1238    3.4072    0.0000 O   0  0  0  0  0  0  0  0  0  0  0  0
    3.4488   -7.1388    0.0000 O   0  0  0  0  0  0  0  0  0  0  0  0
    6.9790   -6.1630    0.0000 O   0  0  0  0  0  0  0  0  0  0  0  0
    3.9488   -0.9482    0.0000 N   0  0  3  0  0  0  0  0  0  0  0  0
    3.4488   -3.1388    0.0000 N   0  0  3  0  0  0  0  0  0  0  0  0
    5.2088   -6.1735    0.0000 N   0  0  0  0  0  0  0  0  0  0  0  0
    2.4339    5.8859    0.0000 N   0  0  0  0  0  0  0  0  0  0  0  0
    2.0593    6.8067    0.0000 N   0  0  0  0  0  0  0  0  0  0  0  0
    2.9488   -0.9482    0.0000 C   0  0  0  0  0  0  0  0  0  0  0  0
    4.5723   -1.7300    0.0000 C   0  0  0  0  0  0  0  0  0  0  0  0
    2.3253   -1.7300    0.0000 C   0  0  0  0  0  0  0  0  0  0  0  0
    4.3498   -2.7050    0.0000 C   0  0  0  0  0  0  0  0  0  0  0  0
    2.5479   -2.7050    0.0000 C   0  0  0  0  0  0  0  0  0  0  0  0
    4.3827   -0.0472    0.0000 C   0  0  0  0  0  0  0  0  0  0  0  0
    3.8194    0.7790    0.0000 C   0  0  0  0  0  0  0  0  0  0  0  0
    3.4488   -4.1388    0.0000 C   0  0  0  0  0  0  0  0  0  0  0  0
    4.2533    1.6800    0.0000 C   0  0  0  0  0  0  0  0  0  0  0  0
    4.3149   -4.6388    0.0000 C   0  0  0  0  0  0  0  0  0  0  0  0
    2.5828   -4.6388    0.0000 C   0  0  0  0  0  0  0  0  0  0  0  0
    4.3149   -5.6388    0.0000 C   0  0  0  0  0  0  0  0  0  0  0  0
    3.6900    2.5062    0.0000 C   0  0  0  0  0  0  0  0  0  0  0  0
    2.5828   -5.6388    0.0000 C   0  0  0  0  0  0  0  0  0  0  0  0
    5.2088   -4.1042    0.0000 C   0  0  0  0  0  0  0  0  0  0  0  0
    3.4488   -6.1388    0.0000 C   0  0  0  0  0  0  0  0  0  0  0  0
    6.1149   -4.6180    0.0000 C   0  0  0  0  0  0  0  0  0  0  0  0
    6.1149   -5.6596    0.0000 C   0  0  0  0  0  0  0  0  0  0  0  0
    3.5605    4.2334    0.0000 C   0  0  0  0  0  0  0  0  0  0  0  0
    3.9944    5.1344    0.0000 C   0  0  0  0  0  0  0  0  0  0  0  0
    2.5633    4.1587    0.0000 C   0  0  0  0  0  0  0  0  0  0  0  0
    3.4311    5.9606    0.0000 C   0  0  0  0  0  0  0  0  0  0  0  0
    2.0000    4.9849    0.0000 C   0  0  0  0  0  0  0  0  0  0  0  0
    3.6643    6.9270    0.0000 C   0  0  0  0  0  0  0  0  0  0  0  0
    2.8182    7.4488    0.0000 C   0  0  0  0  0  0  0  0  0  0  0  0
    3.0868   -0.3437    0.0000 H   0  0  0  0  0  0  0  0  0  0  0  0
    2.3902   -0.6792    0.0000 H   0  0  0  0  0  0  0  0  0  0  0  0
    5.1309   -1.9990    0.0000 H   0  0  0  0  0  0  0  0  0  0  0  0
    4.9589   -1.2453    0.0000 H   0  0  0  0  0  0  0  0  0  0  0  0
    1.9388   -1.2453    0.0000 H   0  0  0  0  0  0  0  0  0  0  0  0
    1.7667   -1.9990    0.0000 H   0  0  0  0  0  0  0  0  0  0  0  0
    4.4878   -3.3094    0.0000 H   0  0  0  0  0  0  0  0  0  0  0  0
    4.9698   -2.7050    0.0000 H   0  0  0  0  0  0  0  0  0  0  0  0
    1.9279   -2.7050    0.0000 H   0  0  0  0  0  0  0  0  0  0  0  0
    2.4099   -3.3094    0.0000 H   0  0  0  0  0  0  0  0  0  0  0  0
    4.8861   -0.4091    0.0000 H   0  0  0  0  0  0  0  0  0  0  0  0
    4.8266    0.3857    0.0000 H   0  0  0  0  0  0  0  0  0  0  0  0
    3.3160    1.1409    0.0000 H   0  0  0  0  0  0  0  0  0  0  0  0
    3.3756    0.3461    0.0000 H   0  0  0  0  0  0  0  0  0  0  0  0
    4.7567    1.3181    0.0000 H   0  0  0  0  0  0  0  0  0  0  0  0
    4.6971    2.1129    0.0000 H   0  0  0  0  0  0  0  0  0  0  0  0
    2.0459   -4.3288    0.0000 H   0  0  0  0  0  0  0  0  0  0  0  0
    3.1866    2.8682    0.0000 H   0  0  0  0  0  0  0  0  0  0  0  0
    3.2461    2.0733    0.0000 H   0  0  0  0  0  0  0  0  0  0  0  0
    2.0459   -5.9488    0.0000 H   0  0  0  0  0  0  0  0  0  0  0  0
    5.2016   -3.4842    0.0000 H   0  0  0  0  0  0  0  0  0  0  0  0
    5.2016   -6.7934    0.0000 H   0  0  0  0  0  0  0  0  0  0  0  0
    6.6506   -4.3060    0.0000 H   0  0  0  0  0  0  0  0  0  0  0  0
    2.9119   -7.4488    0.0000 H   0  0  0  0  0  0  0  0  0  0  0  0
    4.6127    5.1807    0.0000 H   0  0  0  0  0  0  0  0  0  0  0  0
    2.2943    3.6001    0.0000 H   0  0  0  0  0  0  0  0  0  0  0  0
    1.3817    4.9386    0.0000 H   0  0  0  0  0  0  0  0  0  0  0  0
    4.2375    7.1631    0.0000 H   0  0  0  0  0  0  0  0  0  0  0  0
    2.7718    8.0671    0.0000 H   0  0  0  0  0  0  0  0  0  0  0  0
  1 21  1  0  0  0  0
  1 27  1  0  0  0  0
  2 24  1  0  0  0  0
  2 57  1  0  0  0  0
  3 26  2  0  0  0  0
  4  9  1  0  0  0  0
  4 10  1  0  0  0  0
  4 14  1  0  0  0  0
  5 12  1  0  0  0  0
  5 13  1  0  0  0  0
  5 16  1  0  0  0  0
  6 20  1  0  0  0  0
  6 26  1  0  0  0  0
  6 55  1  0  0  0  0
  7  8  1  0  0  0  0
  7 30  1  0  0  0  0
  7 31  1  0  0  0  0
  8 33  2  0  0  0  0
  9 11  1  0  0  0  0
  9 34  1  0  0  0  0
  9 35  1  0  0  0  0
 10 12  1  0  0  0  0
 10 36  1  0  0  0  0
 10 37  1  0  0  0  0
 11 13  1  0  0  0  0
 11 38  1  0  0  0  0
 11 39  1  0  0  0  0
 12 40  1  0  0  0  0
 12 41  1  0  0  0  0
 13 42  1  0  0  0  0
 13 43  1  0  0  0  0
 14 15  1  0  0  0  0
 14 44  1  0  0  0  0
 14 45  1  0  0  0  0
 15 17  1  0  0  0  0
 15 46  1  0  0  0  0
 15 47  1  0  0  0  0
 16 18  2  0  0  0  0
 16 19  1  0  0  0  0
 17 21  1  0  0  0  0
 17 48  1  0  0  0  0
 17 49  1  0  0  0  0
 18 20  1  0  0  0  0
 18 23  1  0  0  0  0
 19 22  2  0  0  0  0
 19 50  1  0  0  0  0
 20 24  2  0  0  0  0
 21 51  1  0  0  0  0
 21 52  1  0  0  0  0
 22 24  1  0  0  0  0
 22 53  1  0  0  0  0
 23 25  2  0  0  0  0
 23 54  1  0  0  0  0
 25 26  1  0  0  0  0
 25 56  1  0  0  0  0
 27 28  2  0  0  0  0
 27 29  1  0  0  0  0
 28 30  1  0  0  0  0
 28 58  1  0  0  0  0
 29 31  2  0  0  0  0
 29 59  1  0  0  0  0
 30 32  2  0  0  0  0
 31 60  1  0  0  0  0
 32 33  1  0  0  0  0
 32 61  1  0  0  0  0
 33 62  1  0  0  0  0
M  END
> <PUBCHEM_COMPOUND_CID>
137655556

> <PUBCHEM_COMPOUND_CANONICALIZED>
1

> <PUBCHEM_CACTVS_COMPLEXITY>
691

> <PUBCHEM_CACTVS_HBOND_ACCEPTOR>
6

> <PUBCHEM_CACTVS_HBOND_DONOR>
2

> <PUBCHEM_CACTVS_ROTATABLE_BOND>
7

> <PUBCHEM_CACTVS_SUBSKEYS>
AAADceB7sAAAAAAAAAAAAAAAAAAAAWAAAAA8QIAABYAAAFiB8AAAHgAYCAAADAzhngY8xrPIFgCqAzV3VACSjCAxoiAY2CA/bNgOZuLW8duW/Cjm3BnY+Yew0BAOAEABAAQCEAAAgAIACAQgAAAAAAAAAA==

> <PUBCHEM_IUPAC_OPENEYE_NAME>
8-hydroxy-5-[4-(4-pyrazolo[1,5-a]pyridin-5-yloxybutyl)-1,4-diazepan-1-yl]-1H-quinolin-2-one

> <PUBCHEM_IUPAC_CAS_NAME>
8-hydroxy-5-[4-[4-(5-pyrazolo[1,5-a]pyridinyloxy)butyl]-1,4-diazepan-1-yl]-1H-quinolin-2-one

> <PUBCHEM_IUPAC_NAME_MARKUP>
8-hydroxy-5-[4-(4-pyrazolo[1,5-a]pyridin-5-yloxybutyl)-1,4-diazepan-1-yl]-1<I>H</I>-quinolin-2-one

> <PUBCHEM_IUPAC_NAME>
8-hydroxy-5-[4-(4-pyrazolo[1,5-a]pyridin-5-yloxybutyl)-1,4-diazepan-1-yl]-1H-quinolin-2-one

> <PUBCHEM_IUPAC_SYSTEMATIC_NAME>
8-oxidanyl-5-[4-(4-pyrazolo[1,5-a]pyridin-5-yloxybutyl)-1,4-diazepan-1-yl]-1H-quinolin-2-one

> <PUBCHEM_IUPAC_TRADITIONAL_NAME>
8-hydroxy-5-[4-(4-pyrazolo[1,5-a]pyridin-5-yloxybutyl)-1,4-diazepan-1-yl]carbostyril

> <PUBCHEM_IUPAC_INCHI>
InChI=1S/C25H29N5O3/c31-23-6-5-22(21-4-7-24(32)27-25(21)23)29-13-3-12-28(15-16-29)11-1-2-17-33-20-9-14-30-19(18-20)8-10-26-30/h4-10,14,18,31H,1-3,11-13,15-17H2,(H,27,32)

> <PUBCHEM_IUPAC_INCHIKEY>
TYDUDPVGSUDIDV-UHFFFAOYSA-N

> <PUBCHEM_XLOGP3_AA>
2.8

> <PUBCHEM_EXACT_MASS>
447.22703980

> <PUBCHEM_MOLECULAR_FORMULA>
C25H29N5O3

> <PUBCHEM_MOLECULAR_WEIGHT>
447.5

> <PUBCHEM_OPENEYE_CAN_SMILES>
C1CN(CCN(C1)C2=C3C=CC(=O)NC3=C(C=C2)O)CCCCOC4=CC5=CC=NN5C=C4

> <PUBCHEM_OPENEYE_ISO_SMILES>
C1CN(CCN(C1)C2=C3C=CC(=O)NC3=C(C=C2)O)CCCCOC4=CC5=CC=NN5C=C4

> <PUBCHEM_CACTVS_TPSA>
82.3

> <PUBCHEM_MONOISOTOPIC_WEIGHT>
447.22703980

> <PUBCHEM_TOTAL_CHARGE>
0

> <PUBCHEM_HEAVY_ATOM_COUNT>
33

> <PUBCHEM_ATOM_DEF_STEREO_COUNT>
0

> <PUBCHEM_ATOM_UDEF_STEREO_COUNT>
0

> <PUBCHEM_BOND_DEF_STEREO_COUNT>
0

> <PUBCHEM_BOND_UDEF_STEREO_COUNT>
0

> <PUBCHEM_ISOTOPIC_ATOM_COUNT>
0

> <PUBCHEM_COMPONENT_COUNT>
1

> <PUBCHEM_CACTVS_TAUTO_COUNT>
-1

> <PUBCHEM_COORDINATE_TYPE>
1
5
255

> <PUBCHEM_BONDANNOTATIONS>
16  18  8
16  19  8
18  20  8
18  23  8
19  22  8
20  24  8
22  24  8
23  25  8
25  26  8
27  28  8
27  29  8
28  30  8
29  31  8
30  32  8
32  33  8
6  20  8
6  26  8
7  30  8
7  31  8
7  8  8
8  33  8

$$$$
