142405812
  -OEChem-09292322422D

 51 54  0     1  0  0  0  0  0999 V2000
   11.3650   -1.2603    0.0000 Cl  0  0  0  0  0  0  0  0  0  0  0  0
    3.6901   -1.2602    0.0000 O   0  0  0  0  0  0  0  0  0  0  0  0
    5.7259    2.3063    0.0000 N   0  0  3  0  0  0  0  0  0  0  0  0
    8.0275   -0.3966    0.0000 N   0  0  0  0  0  0  0  0  0  0  0  0
    7.5275   -2.5873    0.0000 N   0  0  0  0  0  0  0  0  0  0  0  0
    6.7231    2.2316    0.0000 C   0  0  2  0  0  0  0  0  0  0  0  0
    5.1626    1.4801    0.0000 C   0  0  0  0  0  0  0  0  0  0  0  0
    5.5965    0.5791    0.0000 C   0  0  0  0  0  0  0  0  0  0  0  0
    6.5937    0.5044    0.0000 C   0  0  0  0  0  0  0  0  0  0  0  0
    7.1570    1.3306    0.0000 C   0  0  0  0  0  0  0  0  0  0  0  0
    7.0275   -0.3966    0.0000 C   0  0  0  0  0  0  0  0  0  0  0  0
    7.2864    3.0578    0.0000 C   0  0  0  0  0  0  0  0  0  0  0  0
    5.2920    3.2073    0.0000 C   0  0  0  0  0  0  0  0  0  0  0  0
    6.4040   -1.1784    0.0000 C   0  0  0  0  0  0  0  0  0  0  0  0
    6.6266   -2.1534    0.0000 C   0  0  0  0  0  0  0  0  0  0  0  0
    5.4135   -0.8561    0.0000 C   0  0  0  0  0  0  0  0  0  0  0  0
    8.6510   -1.1785    0.0000 C   0  0  0  0  0  0  0  0  0  0  0  0
    8.4285   -2.1534    0.0000 C   0  0  0  0  0  0  0  0  0  0  0  0
    5.8740   -2.8736    0.0000 C   0  0  0  0  0  0  0  0  0  0  0  0
    4.6445   -1.5587    0.0000 C   0  0  0  0  0  0  0  0  0  0  0  0
    4.8763   -2.5742    0.0000 C   0  0  0  0  0  0  0  0  0  0  0  0
    9.6415   -0.8561    0.0000 C   0  0  0  0  0  0  0  0  0  0  0  0
    9.1810   -2.8736    0.0000 C   0  0  0  0  0  0  0  0  0  0  0  0
   10.4105   -1.5587    0.0000 C   0  0  0  0  0  0  0  0  0  0  0  0
   10.1787   -2.5742    0.0000 C   0  0  0  0  0  0  0  0  0  0  0  0
    2.9544   -1.9376    0.0000 C   0  0  0  0  0  0  0  0  0  0  0  0
    2.0000   -1.6391    0.0000 C   0  0  0  0  0  0  0  0  0  0  0  0
    6.4541    2.7902    0.0000 H   0  0  0  0  0  0  0  0  0  0  0  0
    4.7188    1.9130    0.0000 H   0  0  0  0  0  0  0  0  0  0  0  0
    4.6592    1.1181    0.0000 H   0  0  0  0  0  0  0  0  0  0  0  0
    4.9996    0.4112    0.0000 H   0  0  0  0  0  0  0  0  0  0  0  0
    5.6582   -0.0378    0.0000 H   0  0  0  0  0  0  0  0  0  0  0  0
    7.7752    1.2842    0.0000 H   0  0  0  0  0  0  0  0  0  0  0  0
    7.7987    2.7085    0.0000 H   0  0  0  0  0  0  0  0  0  0  0  0
    7.6357    3.5701    0.0000 H   0  0  0  0  0  0  0  0  0  0  0  0
    6.7742    3.4070    0.0000 H   0  0  0  0  0  0  0  0  0  0  0  0
    5.8506    3.4763    0.0000 H   0  0  0  0  0  0  0  0  0  0  0  0
    5.0230    3.7659    0.0000 H   0  0  0  0  0  0  0  0  0  0  0  0
    4.7334    2.9383    0.0000 H   0  0  0  0  0  0  0  0  0  0  0  0
    5.2826   -0.2501    0.0000 H   0  0  0  0  0  0  0  0  0  0  0  0
    7.5275   -3.2073    0.0000 H   0  0  0  0  0  0  0  0  0  0  0  0
    6.0189   -3.4764    0.0000 H   0  0  0  0  0  0  0  0  0  0  0  0
    4.4234   -2.9976    0.0000 H   0  0  0  0  0  0  0  0  0  0  0  0
    9.7725   -0.2501    0.0000 H   0  0  0  0  0  0  0  0  0  0  0  0
    9.0361   -3.4764    0.0000 H   0  0  0  0  0  0  0  0  0  0  0  0
   10.6316   -2.9977    0.0000 H   0  0  0  0  0  0  0  0  0  0  0  0
    2.6694   -2.4882    0.0000 H   0  0  0  0  0  0  0  0  0  0  0  0
    3.4472   -2.3138    0.0000 H   0  0  0  0  0  0  0  0  0  0  0  0
    2.1850   -1.0474    0.0000 H   0  0  0  0  0  0  0  0  0  0  0  0
    1.4083   -1.4541    0.0000 H   0  0  0  0  0  0  0  0  0  0  0  0
    1.8150   -2.2309    0.0000 H   0  0  0  0  0  0  0  0  0  0  0  0
  1 24  1  0  0  0  0
  2 20  1  0  0  0  0
  2 26  1  0  0  0  0
  3  6  1  0  0  0  0
  3  7  1  0  0  0  0
  3 13  1  0  0  0  0
  4 11  2  0  0  0  0
  4 17  1  0  0  0  0
  5 15  1  0  0  0  0
  5 18  1  0  0  0  0
  5 41  1  0  0  0  0
  6 10  1  0  0  0  0
  6 12  1  1  0  0  0
  6 28  1  0  0  0  0
  7  8  1  0  0  0  0
  7 29  1  0  0  0  0
  7 30  1  0  0  0  0
  8  9  1  0  0  0  0
  8 31  1  0  0  0  0
  8 32  1  0  0  0  0
  9 10  2  0  0  0  0
  9 11  1  0  0  0  0
 10 33  1  0  0  0  0
 11 14  1  0  0  0  0
 12 34  1  0  0  0  0
 12 35  1  0  0  0  0
 12 36  1  0  0  0  0
 13 37  1  0  0  0  0
 13 38  1  0  0  0  0
 13 39  1  0  0  0  0
 14 15  2  0  0  0  0
 14 16  1  0  0  0  0
 15 19  1  0  0  0  0
 16 20  2  0  0  0  0
 16 40  1  0  0  0  0
 17 18  2  0  0  0  0
 17 22  1  0  0  0  0
 18 23  1  0  0  0  0
 19 21  2  0  0  0  0
 19 42  1  0  0  0  0
 20 21  1  0  0  0  0
 21 43  1  0  0  0  0
 22 24  2  0  0  0  0
 22 44  1  0  0  0  0
 23 25  2  0  0  0  0
 23 45  1  0  0  0  0
 24 25  1  0  0  0  0
 25 46  1  0  0  0  0
 26 27  1  0  0  0  0
 26 47  1  0  0  0  0
 26 48  1  0  0  0  0
 27 49  1  0  0  0  0
 27 50  1  0  0  0  0
 27 51  1  0  0  0  0
M  END
> <PUBCHEM_COMPOUND_CID>
142405812

> <PUBCHEM_COMPOUND_CANONICALIZED>
1

> <PUBCHEM_CACTVS_COMPLEXITY>
592

> <PUBCHEM_CACTVS_HBOND_ACCEPTOR>
4

> <PUBCHEM_CACTVS_HBOND_DONOR>
1

> <PUBCHEM_CACTVS_ROTATABLE_BOND>
3

> <PUBCHEM_CACTVS_SUBSKEYS>
AAADceB7IAAEAAAAAAAAAAAAAAAAAAAAAAAwYIAABAAAAAABQAAAHgIQAAAADC7hmCYyxoPABACgAyRiRACCCAAhJwAIiAAufpgMZuLFs5uWOCjk0BHI6AewwLAOAEBBAAICACAAgIIABAQAQAAAAAAAAA==

> <PUBCHEM_IUPAC_OPENEYE_NAME>
3-chloro-6-[(6S)-1,6-dimethyl-3,6-dihydro-2H-pyridin-4-yl]-8-ethoxy-11H-benzo[b][1,4]benzodiazepine

> <PUBCHEM_IUPAC_CAS_NAME>
3-chloro-6-[(6S)-1,6-dimethyl-3,6-dihydro-2H-pyridin-4-yl]-8-ethoxy-11H-benzo[b][1,4]benzodiazepine

> <PUBCHEM_IUPAC_NAME_MARKUP>
3-chloro-6-[(6<I>S</I>)-1,6-dimethyl-3,6-dihydro-2<I>H</I>-pyridin-4-yl]-8-ethoxy-11<I>H</I>-benzo[b][1,4]benzodiazepine

> <PUBCHEM_IUPAC_NAME>
3-chloro-6-[(6S)-1,6-dimethyl-3,6-dihydro-2H-pyridin-4-yl]-8-ethoxy-11H-benzo[b][1,4]benzodiazepine

> <PUBCHEM_IUPAC_SYSTEMATIC_NAME>
3-chloranyl-6-[(6S)-1,6-dimethyl-3,6-dihydro-2H-pyridin-4-yl]-8-ethoxy-11H-benzo[b][1,4]benzodiazepine

> <PUBCHEM_IUPAC_TRADITIONAL_NAME>
3-chloro-6-[(6S)-1,6-dimethyl-3,6-dihydro-2H-pyridin-4-yl]-8-ethoxy-11H-benzo[b][1,4]benzodiazepine

> <PUBCHEM_IUPAC_INCHI>
InChI=1S/C22H24ClN3O/c1-4-27-17-6-8-19-18(13-17)22(15-9-10-26(3)14(2)11-15)25-21-12-16(23)5-7-20(21)24-19/h5-8,11-14,24H,4,9-10H2,1-3H3/t14-/m0/s1

> <PUBCHEM_IUPAC_INCHIKEY>
DPJXHAWXEVIDTM-AWEZNQCLSA-N

> <PUBCHEM_XLOGP3_AA>
4.7

> <PUBCHEM_EXACT_MASS>
381.1607901

> <PUBCHEM_MOLECULAR_FORMULA>
C22H24ClN3O

> <PUBCHEM_MOLECULAR_WEIGHT>
381.9

> <PUBCHEM_OPENEYE_CAN_SMILES>
CCOC1=CC2=C(C=C1)NC3=C(C=C(C=C3)Cl)N=C2C4=CC(N(CC4)C)C

> <PUBCHEM_OPENEYE_ISO_SMILES>
CCOC1=CC2=C(C=C1)NC3=C(C=C(C=C3)Cl)N=C2C4=C[C@@H](N(CC4)C)C

> <PUBCHEM_CACTVS_TPSA>
36.9

> <PUBCHEM_MONOISOTOPIC_WEIGHT>
381.1607901

> <PUBCHEM_TOTAL_CHARGE>
0

> <PUBCHEM_HEAVY_ATOM_COUNT>
27

> <PUBCHEM_ATOM_DEF_STEREO_COUNT>
1

> <PUBCHEM_ATOM_UDEF_STEREO_COUNT>
0

> <PUBCHEM_BOND_DEF_STEREO_COUNT>
0

> <PUBCHEM_BOND_UDEF_STEREO_COUNT>
0

> <PUBCHEM_ISOTOPIC_ATOM_COUNT>
0

> <PUBCHEM_COMPONENT_COUNT>
1

> <PUBCHEM_CACTVS_TAUTO_COUNT>
-1

> <PUBCHEM_COORDINATE_TYPE>
1
5
255

> <PUBCHEM_BONDANNOTATIONS>
14  15  8
14  16  8
15  19  8
16  20  8
17  18  8
17  22  8
18  23  8
19  21  8
20  21  8
22  24  8
23  25  8
24  25  8
6  12  5

$$$$
