11623652
  -OEChem-09292322492D

 47 50  0     1  0  0  0  0  0999 V2000
    5.4354    0.8618    0.0000 N   0  0  3  0  0  0  0  0  0  0  0  0
    2.6197   -1.7739    0.0000 N   0  0  0  0  0  0  0  0  0  0  0  0
    4.6693    1.5046    0.0000 C   0  0  3  0  0  0  0  0  0  0  0  0
    3.6693    1.5046    0.0000 C   0  0  0  0  0  0  0  0  0  0  0  0
    2.9033    0.8618    0.0000 C   0  0  0  0  0  0  0  0  0  0  0  0
    2.7296   -0.1230    0.0000 C   0  0  0  0  0  0  0  0  0  0  0  0
    4.1693   -1.3310    0.0000 C   0  0  0  0  0  0  0  0  0  0  0  0
    5.6090   -0.1230    0.0000 C   0  0  0  0  0  0  0  0  0  0  0  0
    5.1090   -0.9890    0.0000 C   0  0  0  0  0  0  0  0  0  0  0  0
    3.2296   -0.9890    0.0000 C   0  0  0  0  0  0  0  0  0  0  0  0
    4.1321   -2.3244    0.0000 C   0  0  0  0  0  0  0  0  0  0  0  0
    5.0114    2.4443    0.0000 C   0  0  0  0  0  0  0  0  0  0  0  0
    3.1762   -2.5976    0.0000 C   0  0  0  0  0  0  0  0  0  0  0  0
    6.3014    1.3618    0.0000 C   0  0  0  0  0  0  0  0  0  0  0  0
    4.8873   -3.0328    0.0000 C   0  0  0  0  0  0  0  0  0  0  0  0
    4.3686    3.2104    0.0000 C   0  0  0  0  0  0  0  0  0  0  0  0
    5.9962    2.6180    0.0000 C   0  0  0  0  0  0  0  0  0  0  0  0
    2.9094   -3.5981    0.0000 C   0  0  0  0  0  0  0  0  0  0  0  0
    4.6437   -4.0392    0.0000 C   0  0  0  0  0  0  0  0  0  0  0  0
    3.6481   -4.3237    0.0000 C   0  0  0  0  0  0  0  0  0  0  0  0
    4.7106    4.1501    0.0000 C   0  0  0  0  0  0  0  0  0  0  0  0
    6.3382    3.5577    0.0000 C   0  0  0  0  0  0  0  0  0  0  0  0
    5.6954    4.3237    0.0000 C   0  0  0  0  0  0  0  0  0  0  0  0
    5.2682    1.6651    0.0000 H   0  0  0  0  0  0  0  0  0  0  0  0
    3.8472    2.0986    0.0000 H   0  0  0  0  0  0  0  0  0  0  0  0
    3.1513    1.8453    0.0000 H   0  0  0  0  0  0  0  0  0  0  0  0
    2.6577    1.4311    0.0000 H   0  0  0  0  0  0  0  0  0  0  0  0
    2.2875    0.7899    0.0000 H   0  0  0  0  0  0  0  0  0  0  0  0
    2.1756    0.1553    0.0000 H   0  0  0  0  0  0  0  0  0  0  0  0
    2.3042   -0.5739    0.0000 H   0  0  0  0  0  0  0  0  0  0  0  0
    6.0345   -0.5739    0.0000 H   0  0  0  0  0  0  0  0  0  0  0  0
    6.1631    0.1553    0.0000 H   0  0  0  0  0  0  0  0  0  0  0  0
    5.1451   -1.6079    0.0000 H   0  0  0  0  0  0  0  0  0  0  0  0
    5.7123   -1.1320    0.0000 H   0  0  0  0  0  0  0  0  0  0  0  0
    2.0000   -1.7534    0.0000 H   0  0  0  0  0  0  0  0  0  0  0  0
    6.6114    0.8249    0.0000 H   0  0  0  0  0  0  0  0  0  0  0  0
    6.8383    1.6718    0.0000 H   0  0  0  0  0  0  0  0  0  0  0  0
    5.9914    1.8988    0.0000 H   0  0  0  0  0  0  0  0  0  0  0  0
    5.4814   -2.8555    0.0000 H   0  0  0  0  0  0  0  0  0  0  0  0
    3.7580    3.1027    0.0000 H   0  0  0  0  0  0  0  0  0  0  0  0
    6.3947    2.1430    0.0000 H   0  0  0  0  0  0  0  0  0  0  0  0
    2.3114   -3.7615    0.0000 H   0  0  0  0  0  0  0  0  0  0  0  0
    5.0910   -4.4685    0.0000 H   0  0  0  0  0  0  0  0  0  0  0  0
    3.4952   -4.9246    0.0000 H   0  0  0  0  0  0  0  0  0  0  0  0
    4.3121    4.6250    0.0000 H   0  0  0  0  0  0  0  0  0  0  0  0
    6.9488    3.6653    0.0000 H   0  0  0  0  0  0  0  0  0  0  0  0
    5.9074    4.9063    0.0000 H   0  0  0  0  0  0  0  0  0  0  0  0
  1  3  1  0  0  0  0
  1  8  1  0  0  0  0
  1 14  1  0  0  0  0
  2 10  1  0  0  0  0
  2 13  1  0  0  0  0
  2 35  1  0  0  0  0
  3  4  1  0  0  0  0
  3 12  1  0  0  0  0
  3 24  1  0  0  0  0
  4  5  1  0  0  0  0
  4 25  1  0  0  0  0
  4 26  1  0  0  0  0
  5  6  1  0  0  0  0
  5 27  1  0  0  0  0
  5 28  1  0  0  0  0
  6 10  1  0  0  0  0
  6 29  1  0  0  0  0
  6 30  1  0  0  0  0
  7  9  1  0  0  0  0
  7 10  2  0  0  0  0
  7 11  1  0  0  0  0
  8  9  1  0  0  0  0
  8 31  1  0  0  0  0
  8 32  1  0  0  0  0
  9 33  1  0  0  0  0
  9 34  1  0  0  0  0
 11 13  1  0  0  0  0
 11 15  2  0  0  0  0
 12 16  2  0  0  0  0
 12 17  1  0  0  0  0
 13 18  2  0  0  0  0
 14 36  1  0  0  0  0
 14 37  1  0  0  0  0
 14 38  1  0  0  0  0
 15 19  1  0  0  0  0
 15 39  1  0  0  0  0
 16 21  1  0  0  0  0
 16 40  1  0  0  0  0
 17 22  2  0  0  0  0
 17 41  1  0  0  0  0
 18 20  1  0  0  0  0
 18 42  1  0  0  0  0
 19 20  2  0  0  0  0
 19 43  1  0  0  0  0
 20 44  1  0  0  0  0
 21 23  2  0  0  0  0
 21 45  1  0  0  0  0
 22 23  1  0  0  0  0
 22 46  1  0  0  0  0
 23 47  1  0  0  0  0
M  END
> <PUBCHEM_COMPOUND_CID>
11623652

> <PUBCHEM_COMPOUND_CANONICALIZED>
1

> <PUBCHEM_CACTVS_COMPLEXITY>
376

> <PUBCHEM_CACTVS_HBOND_ACCEPTOR>
1

> <PUBCHEM_CACTVS_HBOND_DONOR>
1

> <PUBCHEM_CACTVS_ROTATABLE_BOND>
1

> <PUBCHEM_CACTVS_SUBSKEYS>
AAADceB7AAAAAAAAAAAAAAAAAAAAAWAAAAAwYAAAAAAAAFgB9AAAHAAQAAAADCjBHgQywPPJkACgAyRiRACCgCAhAiAImSA4ZJgIIOLAkZGEIAhgkADIyAcQgMAOgAAAAAACAAAAAAAAAAQAAAAAAAAAAA==

> <PUBCHEM_IUPAC_OPENEYE_NAME>
3-methyl-4-phenyl-2,4,5,6,7,8-hexahydro-1H-azonino[5,4-b]indole

> <PUBCHEM_IUPAC_CAS_NAME>
3-methyl-4-phenyl-2,4,5,6,7,8-hexahydro-1H-azonino[5,4-b]indole

> <PUBCHEM_IUPAC_NAME_MARKUP>
3-methyl-4-phenyl-2,4,5,6,7,8-hexahydro-1<I>H</I>-azonino[5,4-b]indole

> <PUBCHEM_IUPAC_NAME>
3-methyl-4-phenyl-2,4,5,6,7,8-hexahydro-1H-azonino[5,4-b]indole

> <PUBCHEM_IUPAC_SYSTEMATIC_NAME>
3-methyl-4-phenyl-2,4,5,6,7,8-hexahydro-1H-azonino[5,4-b]indole

> <PUBCHEM_IUPAC_TRADITIONAL_NAME>
3-methyl-4-phenyl-2,4,5,6,7,8-hexahydro-1H-azonin[5,4-b]indole

> <PUBCHEM_IUPAC_INCHI>
InChI=1S/C21H24N2/c1-23-15-14-18-17-10-5-6-11-19(17)22-20(18)12-7-13-21(23)16-8-3-2-4-9-16/h2-6,8-11,21-22H,7,12-15H2,1H3

> <PUBCHEM_IUPAC_INCHIKEY>
NPHHQESYNYBBOA-UHFFFAOYSA-N

> <PUBCHEM_XLOGP3_AA>
4.7

> <PUBCHEM_EXACT_MASS>
304.193948774

> <PUBCHEM_MOLECULAR_FORMULA>
C21H24N2

> <PUBCHEM_MOLECULAR_WEIGHT>
304.4

> <PUBCHEM_OPENEYE_CAN_SMILES>
CN1CCC2=C(CCCC1C3=CC=CC=C3)NC4=CC=CC=C24

> <PUBCHEM_OPENEYE_ISO_SMILES>
CN1CCC2=C(CCCC1C3=CC=CC=C3)NC4=CC=CC=C24

> <PUBCHEM_CACTVS_TPSA>
19

> <PUBCHEM_MONOISOTOPIC_WEIGHT>
304.193948774

> <PUBCHEM_TOTAL_CHARGE>
0

> <PUBCHEM_HEAVY_ATOM_COUNT>
23

> <PUBCHEM_ATOM_DEF_STEREO_COUNT>
0

> <PUBCHEM_ATOM_UDEF_STEREO_COUNT>
1

> <PUBCHEM_BOND_DEF_STEREO_COUNT>
0

> <PUBCHEM_BOND_UDEF_STEREO_COUNT>
0

> <PUBCHEM_ISOTOPIC_ATOM_COUNT>
0

> <PUBCHEM_COMPONENT_COUNT>
1

> <PUBCHEM_CACTVS_TAUTO_COUNT>
-1

> <PUBCHEM_COORDINATE_TYPE>
1
5
255

> <PUBCHEM_BONDANNOTATIONS>
11  13  8
11  15  8
12  16  8
12  17  8
13  18  8
15  19  8
16  21  8
17  22  8
18  20  8
19  20  8
2  10  8
2  13  8
21  23  8
22  23  8
3  12  3
7  10  8
7  11  8

$$$$
