156014079
  -OEChem-09292322422D

 67 71  0     0  0  0  0  0  0999 V2000
    9.6370    3.6776    0.0000 S   0  0  0  0  0  0  0  0  0  0  0  0
    2.0000   -4.1544    0.0000 S   0  0  0  0  0  0  0  0  0  0  0  0
    8.6370    3.6776    0.0000 O   0  0  0  0  0  0  0  0  0  0  0  0
   10.6370    3.6776    0.0000 O   0  0  0  0  0  0  0  0  0  0  0  0
    6.1730   -2.3224    0.0000 N   0  0  0  0  0  0  0  0  0  0  0  0
    4.4409   -3.3224    0.0000 N   0  0  0  0  0  0  0  0  0  0  0  0
    2.6671   -3.4173    0.0000 N   0  0  0  0  0  0  0  0  0  0  0  0
    9.6370    2.6776    0.0000 N   0  0  0  0  0  0  0  0  0  0  0  0
    5.3069   -1.8224    0.0000 C   0  0  0  0  0  0  0  0  0  0  0  0
    6.1730   -3.3224    0.0000 C   0  0  0  0  0  0  0  0  0  0  0  0
    4.4409   -2.3224    0.0000 C   0  0  0  0  0  0  0  0  0  0  0  0
    5.3069   -3.8224    0.0000 C   0  0  0  0  0  0  0  0  0  0  0  0
    7.0390   -1.8224    0.0000 C   0  0  0  0  0  0  0  0  0  0  0  0
    7.0390   -0.8224    0.0000 C   0  0  0  0  0  0  0  0  0  0  0  0
    7.9050   -0.3224    0.0000 C   0  0  0  0  0  0  0  0  0  0  0  0
    7.9050    0.6776    0.0000 C   0  0  0  0  0  0  0  0  0  0  0  0
    3.5749   -3.8224    0.0000 C   0  0  0  0  0  0  0  0  0  0  0  0
    8.7710    1.1776    0.0000 C   0  0  0  0  0  0  0  0  0  0  0  0
    3.4718   -4.8112    0.0000 C   0  0  0  0  0  0  0  0  0  0  0  0
    8.7710    2.1776    0.0000 C   0  0  0  0  0  0  0  0  0  0  0  0
    2.4933   -5.0174    0.0000 C   0  0  0  0  0  0  0  0  0  0  0  0
    4.1397   -5.5555    0.0000 C   0  0  0  0  0  0  0  0  0  0  0  0
    2.1827   -5.9679    0.0000 C   0  0  0  0  0  0  0  0  0  0  0  0
    9.6370    4.6776    0.0000 C   0  0  0  0  0  0  0  0  0  0  0  0
    3.8290   -6.5060    0.0000 C   0  0  0  0  0  0  0  0  0  0  0  0
   10.5031    5.1776    0.0000 C   0  0  0  0  0  0  0  0  0  0  0  0
    2.8505   -6.7122    0.0000 C   0  0  0  0  0  0  0  0  0  0  0  0
   10.5031    6.1776    0.0000 C   0  0  0  0  0  0  0  0  0  0  0  0
    8.7710    5.1776    0.0000 C   0  0  0  0  0  0  0  0  0  0  0  0
   11.3970    4.6429    0.0000 C   0  0  0  0  0  0  0  0  0  0  0  0
    9.6370    6.6776    0.0000 C   0  0  0  0  0  0  0  0  0  0  0  0
    8.7710    6.1776    0.0000 C   0  0  0  0  0  0  0  0  0  0  0  0
   11.3970    6.7122    0.0000 C   0  0  0  0  0  0  0  0  0  0  0  0
   12.3031    5.1567    0.0000 C   0  0  0  0  0  0  0  0  0  0  0  0
   12.3031    6.1984    0.0000 C   0  0  0  0  0  0  0  0  0  0  0  0
    5.7054   -1.3475    0.0000 H   0  0  0  0  0  0  0  0  0  0  0  0
    4.9084   -1.3475    0.0000 H   0  0  0  0  0  0  0  0  0  0  0  0
    6.3850   -3.9051    0.0000 H   0  0  0  0  0  0  0  0  0  0  0  0
    6.7835   -3.2148    0.0000 H   0  0  0  0  0  0  0  0  0  0  0  0
    4.2288   -1.7398    0.0000 H   0  0  0  0  0  0  0  0  0  0  0  0
    3.8303   -2.4301    0.0000 H   0  0  0  0  0  0  0  0  0  0  0  0
    4.9084   -4.2974    0.0000 H   0  0  0  0  0  0  0  0  0  0  0  0
    5.7054   -4.2974    0.0000 H   0  0  0  0  0  0  0  0  0  0  0  0
    7.2510   -2.4051    0.0000 H   0  0  0  0  0  0  0  0  0  0  0  0
    7.6496   -1.7148    0.0000 H   0  0  0  0  0  0  0  0  0  0  0  0
    6.8269   -0.2398    0.0000 H   0  0  0  0  0  0  0  0  0  0  0  0
    6.4284   -0.9301    0.0000 H   0  0  0  0  0  0  0  0  0  0  0  0
    8.1171   -0.9051    0.0000 H   0  0  0  0  0  0  0  0  0  0  0  0
    8.5156   -0.2148    0.0000 H   0  0  0  0  0  0  0  0  0  0  0  0
    7.6930    1.2602    0.0000 H   0  0  0  0  0  0  0  0  0  0  0  0
    7.2944    0.5699    0.0000 H   0  0  0  0  0  0  0  0  0  0  0  0
    8.9831    0.5949    0.0000 H   0  0  0  0  0  0  0  0  0  0  0  0
    9.3816    1.2852    0.0000 H   0  0  0  0  0  0  0  0  0  0  0  0
    8.5590    2.7602    0.0000 H   0  0  0  0  0  0  0  0  0  0  0  0
    8.1604    2.0699    0.0000 H   0  0  0  0  0  0  0  0  0  0  0  0
   10.1740    2.3676    0.0000 H   0  0  0  0  0  0  0  0  0  0  0  0
    4.7463   -5.4276    0.0000 H   0  0  0  0  0  0  0  0  0  0  0  0
    1.5760   -6.0958    0.0000 H   0  0  0  0  0  0  0  0  0  0  0  0
    4.2431   -6.9675    0.0000 H   0  0  0  0  0  0  0  0  0  0  0  0
    2.6579   -7.3015    0.0000 H   0  0  0  0  0  0  0  0  0  0  0  0
    8.2341    4.8675    0.0000 H   0  0  0  0  0  0  0  0  0  0  0  0
   11.3898    4.0229    0.0000 H   0  0  0  0  0  0  0  0  0  0  0  0
    9.6370    7.2976    0.0000 H   0  0  0  0  0  0  0  0  0  0  0  0
    8.2341    6.4876    0.0000 H   0  0  0  0  0  0  0  0  0  0  0  0
   11.3898    7.3322    0.0000 H   0  0  0  0  0  0  0  0  0  0  0  0
   12.8388    4.8447    0.0000 H   0  0  0  0  0  0  0  0  0  0  0  0
   12.8388    6.5104    0.0000 H   0  0  0  0  0  0  0  0  0  0  0  0
  1  3  2  0  0  0  0
  1  4  2  0  0  0  0
  1  8  1  0  0  0  0
  1 24  1  0  0  0  0
  2  7  1  0  0  0  0
  2 21  1  0  0  0  0
  5  9  1  0  0  0  0
  5 10  1  0  0  0  0
  5 13  1  0  0  0  0
  6 11  1  0  0  0  0
  6 12  1  0  0  0  0
  6 17  1  0  0  0  0
  7 17  2  0  0  0  0
  8 20  1  0  0  0  0
  8 56  1  0  0  0  0
  9 11  1  0  0  0  0
  9 36  1  0  0  0  0
  9 37  1  0  0  0  0
 10 12  1  0  0  0  0
 10 38  1  0  0  0  0
 10 39  1  0  0  0  0
 11 40  1  0  0  0  0
 11 41  1  0  0  0  0
 12 42  1  0  0  0  0
 12 43  1  0  0  0  0
 13 14  1  0  0  0  0
 13 44  1  0  0  0  0
 13 45  1  0  0  0  0
 14 15  1  0  0  0  0
 14 46  1  0  0  0  0
 14 47  1  0  0  0  0
 15 16  1  0  0  0  0
 15 48  1  0  0  0  0
 15 49  1  0  0  0  0
 16 18  1  0  0  0  0
 16 50  1  0  0  0  0
 16 51  1  0  0  0  0
 17 19  1  0  0  0  0
 18 20  1  0  0  0  0
 18 52  1  0  0  0  0
 18 53  1  0  0  0  0
 19 21  1  0  0  0  0
 19 22  2  0  0  0  0
 20 54  1  0  0  0  0
 20 55  1  0  0  0  0
 21 23  2  0  0  0  0
 22 25  1  0  0  0  0
 22 57  1  0  0  0  0
 23 27  1  0  0  0  0
 23 58  1  0  0  0  0
 24 26  1  0  0  0  0
 24 29  2  0  0  0  0
 25 27  2  0  0  0  0
 25 59  1  0  0  0  0
 26 28  1  0  0  0  0
 26 30  2  0  0  0  0
 27 60  1  0  0  0  0
 28 31  1  0  0  0  0
 28 33  2  0  0  0  0
 29 32  1  0  0  0  0
 29 61  1  0  0  0  0
 30 34  1  0  0  0  0
 30 62  1  0  0  0  0
 31 32  2  0  0  0  0
 31 63  1  0  0  0  0
 32 64  1  0  0  0  0
 33 35  1  0  0  0  0
 33 65  1  0  0  0  0
 34 35  2  0  0  0  0
 34 66  1  0  0  0  0
 35 67  1  0  0  0  0
M  END
> <PUBCHEM_COMPOUND_CID>
156014079

> <PUBCHEM_COMPOUND_CANONICALIZED>
1

> <PUBCHEM_CACTVS_COMPLEXITY>
753

> <PUBCHEM_CACTVS_HBOND_ACCEPTOR>
7

> <PUBCHEM_CACTVS_HBOND_DONOR>
1

> <PUBCHEM_CACTVS_ROTATABLE_BOND>
10

> <PUBCHEM_CACTVS_SUBSKEYS>
AAADcfB7sABgAAAAAAAAAAAAAAAAAWAAAAA8YMEAAAAAAFjB9AAAHAQQQAAADADBWgQxsdNAAAKkAiJiYHDDABAhAABJmLgoRJiIYKLAmZGUIAxgkALIyAcQgIAOgAAAgAAUAAAAAAEAACgAAAAAAAAAAA==

> <PUBCHEM_IUPAC_OPENEYE_NAME>
N-[6-[4-(1,2-benzothiazol-3-yl)piperazin-1-yl]hexyl]naphthalene-1-sulfonamide

> <PUBCHEM_IUPAC_CAS_NAME>
N-[6-[4-(1,2-benzothiazol-3-yl)-1-piperazinyl]hexyl]-1-naphthalenesulfonamide

> <PUBCHEM_IUPAC_NAME_MARKUP>
<I>N</I>-[6-[4-(1,2-benzothiazol-3-yl)piperazin-1-yl]hexyl]naphthalene-1-sulfonamide

> <PUBCHEM_IUPAC_NAME>
N-[6-[4-(1,2-benzothiazol-3-yl)piperazin-1-yl]hexyl]naphthalene-1-sulfonamide

> <PUBCHEM_IUPAC_SYSTEMATIC_NAME>
N-[6-[4-(1,2-benzothiazol-3-yl)piperazin-1-yl]hexyl]naphthalene-1-sulfonamide

> <PUBCHEM_IUPAC_TRADITIONAL_NAME>
N-[6-[4-(1,2-benzothiazol-3-yl)piperazino]hexyl]naphthalene-1-sulfonamide

> <PUBCHEM_IUPAC_INCHI>
InChI=1S/C27H32N4O2S2/c32-35(33,26-15-9-11-22-10-3-4-12-23(22)26)28-16-7-1-2-8-17-30-18-20-31(21-19-30)27-24-13-5-6-14-25(24)34-29-27/h3-6,9-15,28H,1-2,7-8,16-21H2

> <PUBCHEM_IUPAC_INCHIKEY>
SDZBCEFNKKQHFZ-UHFFFAOYSA-N

> <PUBCHEM_XLOGP3_AA>
5.9

> <PUBCHEM_EXACT_MASS>
508.19666862

> <PUBCHEM_MOLECULAR_FORMULA>
C27H32N4O2S2

> <PUBCHEM_MOLECULAR_WEIGHT>
508.7

> <PUBCHEM_OPENEYE_CAN_SMILES>
C1CN(CCN1CCCCCCNS(=O)(=O)C2=CC=CC3=CC=CC=C32)C4=NSC5=CC=CC=C54

> <PUBCHEM_OPENEYE_ISO_SMILES>
C1CN(CCN1CCCCCCNS(=O)(=O)C2=CC=CC3=CC=CC=C32)C4=NSC5=CC=CC=C54

> <PUBCHEM_CACTVS_TPSA>
102

> <PUBCHEM_MONOISOTOPIC_WEIGHT>
508.19666862

> <PUBCHEM_TOTAL_CHARGE>
0

> <PUBCHEM_HEAVY_ATOM_COUNT>
35

> <PUBCHEM_ATOM_DEF_STEREO_COUNT>
0

> <PUBCHEM_ATOM_UDEF_STEREO_COUNT>
0

> <PUBCHEM_BOND_DEF_STEREO_COUNT>
0

> <PUBCHEM_BOND_UDEF_STEREO_COUNT>
0

> <PUBCHEM_ISOTOPIC_ATOM_COUNT>
0

> <PUBCHEM_COMPONENT_COUNT>
1

> <PUBCHEM_CACTVS_TAUTO_COUNT>
-1

> <PUBCHEM_COORDINATE_TYPE>
1
5
255

> <PUBCHEM_BONDANNOTATIONS>
17  19  8
19  21  8
19  22  8
2  21  8
2  7  8
21  23  8
22  25  8
23  27  8
24  26  8
24  29  8
25  27  8
26  28  8
26  30  8
28  31  8
28  33  8
29  32  8
30  34  8
31  32  8
33  35  8
34  35  8
7  17  8

$$$$
