44454223
  -OEChem-09292322492D

 73 78  0     1  0  0  0  0  0999 V2000
   10.6826   -1.7338    0.0000 S   0  0  0  0  0  0  0  0  0  0  0  0
    2.9061   -1.0364    0.0000 O   0  0  0  0  0  0  0  0  0  0  0  0
    3.7894    2.5228    0.0000 O   0  0  0  0  0  0  0  0  0  0  0  0
    7.6826   -0.0018    0.0000 N   0  0  3  0  0  0  0  0  0  0  0  0
    2.9061    1.0329    0.0000 N   0  0  0  0  0  0  0  0  0  0  0  0
   12.2704   -0.9248    0.0000 N   0  0  0  0  0  0  0  0  0  0  0  0
   12.2704   -2.5428    0.0000 N   0  0  0  0  0  0  0  0  0  0  0  0
   13.2215   -2.2338    0.0000 N   0  0  0  0  0  0  0  0  0  0  0  0
   16.7111   -0.8739    0.0000 N   0  0  0  0  0  0  0  0  0  0  0  0
    7.2583    0.8825    0.0000 C   0  0  0  0  0  0  0  0  0  0  0  0
    7.2583   -0.8860    0.0000 C   0  0  0  0  0  0  0  0  0  0  0  0
    6.3030    1.1046    0.0000 C   0  0  0  0  0  0  0  0  0  0  0  0
    6.3030   -1.1081    0.0000 C   0  0  0  0  0  0  0  0  0  0  0  0
    5.5321    0.4982    0.0000 C   0  0  0  0  0  0  0  0  0  0  0  0
    5.5321   -0.5018    0.0000 C   0  0  0  0  0  0  0  0  0  0  0  0
    8.6826   -0.0018    0.0000 C   0  0  0  0  0  0  0  0  0  0  0  0
    4.6660    0.9982    0.0000 C   0  0  0  0  0  0  0  0  0  0  0  0
    3.8000    0.4982    0.0000 C   0  0  0  0  0  0  0  0  0  0  0  0
    4.6660   -1.0018    0.0000 C   0  0  0  0  0  0  0  0  0  0  0  0
    3.8000   -0.5018    0.0000 C   0  0  0  0  0  0  0  0  0  0  0  0
    9.1826   -0.8678    0.0000 C   0  0  0  0  0  0  0  0  0  0  0  0
    2.0000    0.5191    0.0000 C   0  0  0  0  0  0  0  0  0  0  0  0
    2.0000   -0.5226    0.0000 C   0  0  0  0  0  0  0  0  0  0  0  0
   10.1826   -0.8678    0.0000 C   0  0  0  0  0  0  0  0  0  0  0  0
    2.9176    2.0328    0.0000 C   0  0  0  0  0  0  0  0  0  0  0  0
    2.0574    2.5428    0.0000 C   0  0  0  0  0  0  0  0  0  0  0  0
   11.6826   -1.7338    0.0000 C   0  0  0  0  0  0  0  0  0  0  0  0
   13.2215   -1.2338    0.0000 C   0  0  0  0  0  0  0  0  0  0  0  0
   14.0305   -0.6460    0.0000 C   0  0  0  0  0  0  0  0  0  0  0  0
   14.9441   -1.0528    0.0000 C   0  0  0  0  0  0  0  0  0  0  0  0
   11.9614    0.0263    0.0000 C   0  0  0  0  0  0  0  0  0  0  0  0
   15.7531   -0.4650    0.0000 C   0  0  0  0  0  0  0  0  0  0  0  0
   13.9260    0.3485    0.0000 C   0  0  0  0  0  0  0  0  0  0  0  0
   15.0369   -2.0902    0.0000 C   0  0  0  0  0  0  0  0  0  0  0  0
   15.6485    0.5296    0.0000 C   0  0  0  0  0  0  0  0  0  0  0  0
   14.7350    0.9363    0.0000 C   0  0  0  0  0  0  0  0  0  0  0  0
   15.9852   -2.5212    0.0000 C   0  0  0  0  0  0  0  0  0  0  0  0
   16.8279   -1.9090    0.0000 C   0  0  0  0  0  0  0  0  0  0  0  0
   17.7430   -2.3122    0.0000 C   0  0  0  0  0  0  0  0  0  0  0  0
    7.8630    1.0191    0.0000 H   0  0  0  0  0  0  0  0  0  0  0  0
    7.2602    1.5025    0.0000 H   0  0  0  0  0  0  0  0  0  0  0  0
    7.2602   -1.5060    0.0000 H   0  0  0  0  0  0  0  0  0  0  0  0
    7.8630   -1.0226    0.0000 H   0  0  0  0  0  0  0  0  0  0  0  0
    6.5747    1.6618    0.0000 H   0  0  0  0  0  0  0  0  0  0  0  0
    5.8205    1.4940    0.0000 H   0  0  0  0  0  0  0  0  0  0  0  0
    5.8205   -1.4975    0.0000 H   0  0  0  0  0  0  0  0  0  0  0  0
    6.5747   -1.6654    0.0000 H   0  0  0  0  0  0  0  0  0  0  0  0
    9.2653    0.2103    0.0000 H   0  0  0  0  0  0  0  0  0  0  0  0
    8.5750    0.6088    0.0000 H   0  0  0  0  0  0  0  0  0  0  0  0
    4.6660    1.6182    0.0000 H   0  0  0  0  0  0  0  0  0  0  0  0
    4.6660   -1.6218    0.0000 H   0  0  0  0  0  0  0  0  0  0  0  0
    8.6000   -1.0798    0.0000 H   0  0  0  0  0  0  0  0  0  0  0  0
    9.2903   -1.4784    0.0000 H   0  0  0  0  0  0  0  0  0  0  0  0
    1.7909    1.1027    0.0000 H   0  0  0  0  0  0  0  0  0  0  0  0
    1.3891    0.4130    0.0000 H   0  0  0  0  0  0  0  0  0  0  0  0
    1.3891   -0.4165    0.0000 H   0  0  0  0  0  0  0  0  0  0  0  0
    1.7909   -1.1063    0.0000 H   0  0  0  0  0  0  0  0  0  0  0  0
   10.7653   -0.6557    0.0000 H   0  0  0  0  0  0  0  0  0  0  0  0
   10.0750   -0.2572    0.0000 H   0  0  0  0  0  0  0  0  0  0  0  0
    2.3736    3.0761    0.0000 H   0  0  0  0  0  0  0  0  0  0  0  0
    1.5241    2.8590    0.0000 H   0  0  0  0  0  0  0  0  0  0  0  0
    1.7413    2.0095    0.0000 H   0  0  0  0  0  0  0  0  0  0  0  0
   12.5511    0.2179    0.0000 H   0  0  0  0  0  0  0  0  0  0  0  0
   11.7698    0.6159    0.0000 H   0  0  0  0  0  0  0  0  0  0  0  0
   11.3718   -0.1653    0.0000 H   0  0  0  0  0  0  0  0  0  0  0  0
   13.3596    0.6007    0.0000 H   0  0  0  0  0  0  0  0  0  0  0  0
   14.5312   -2.4488    0.0000 H   0  0  0  0  0  0  0  0  0  0  0  0
   16.1501    0.8940    0.0000 H   0  0  0  0  0  0  0  0  0  0  0  0
   14.6702    1.5529    0.0000 H   0  0  0  0  0  0  0  0  0  0  0  0
   16.0477   -3.1381    0.0000 H   0  0  0  0  0  0  0  0  0  0  0  0
   17.4930   -2.8796    0.0000 H   0  0  0  0  0  0  0  0  0  0  0  0
   18.3104   -2.5622    0.0000 H   0  0  0  0  0  0  0  0  0  0  0  0
   17.9930   -1.7448    0.0000 H   0  0  0  0  0  0  0  0  0  0  0  0
  1 24  1  0  0  0  0
  1 27  1  0  0  0  0
  2 20  1  0  0  0  0
  2 23  1  0  0  0  0
  3 25  2  0  0  0  0
  4 10  1  0  0  0  0
  4 11  1  0  0  0  0
  4 16  1  0  0  0  0
  5 18  1  0  0  0  0
  5 22  1  0  0  0  0
  5 25  1  0  0  0  0
  6 27  1  0  0  0  0
  6 28  1  0  0  0  0
  6 31  1  0  0  0  0
  7  8  1  0  0  0  0
  7 27  2  0  0  0  0
  8 28  2  0  0  0  0
  9 32  1  0  0  0  0
  9 38  2  0  0  0  0
 10 12  1  0  0  0  0
 10 40  1  0  0  0  0
 10 41  1  0  0  0  0
 11 13  1  0  0  0  0
 11 42  1  0  0  0  0
 11 43  1  0  0  0  0
 12 14  1  0  0  0  0
 12 44  1  0  0  0  0
 12 45  1  0  0  0  0
 13 15  1  0  0  0  0
 13 46  1  0  0  0  0
 13 47  1  0  0  0  0
 14 15  1  0  0  0  0
 14 17  2  0  0  0  0
 15 19  2  0  0  0  0
 16 21  1  0  0  0  0
 16 48  1  0  0  0  0
 16 49  1  0  0  0  0
 17 18  1  0  0  0  0
 17 50  1  0  0  0  0
 18 20  2  0  0  0  0
 19 20  1  0  0  0  0
 19 51  1  0  0  0  0
 21 24  1  0  0  0  0
 21 52  1  0  0  0  0
 21 53  1  0  0  0  0
 22 23  1  0  0  0  0
 22 54  1  0  0  0  0
 22 55  1  0  0  0  0
 23 56  1  0  0  0  0
 23 57  1  0  0  0  0
 24 58  1  0  0  0  0
 24 59  1  0  0  0  0
 25 26  1  0  0  0  0
 26 60  1  0  0  0  0
 26 61  1  0  0  0  0
 26 62  1  0  0  0  0
 28 29  1  0  0  0  0
 29 30  2  0  0  0  0
 29 33  1  0  0  0  0
 30 32  1  0  0  0  0
 30 34  1  0  0  0  0
 31 63  1  0  0  0  0
 31 64  1  0  0  0  0
 31 65  1  0  0  0  0
 32 35  2  0  0  0  0
 33 36  2  0  0  0  0
 33 66  1  0  0  0  0
 34 37  2  0  0  0  0
 34 67  1  0  0  0  0
 35 36  1  0  0  0  0
 35 68  1  0  0  0  0
 36 69  1  0  0  0  0
 37 38  1  0  0  0  0
 37 70  1  0  0  0  0
 38 39  1  0  0  0  0
 39 71  1  0  0  0  0
 39 72  1  0  0  0  0
 39 73  1  0  0  0  0
M  END
> <PUBCHEM_COMPOUND_CID>
44454223

> <PUBCHEM_COMPOUND_CANONICALIZED>
1

> <PUBCHEM_CACTVS_COMPLEXITY>
835

> <PUBCHEM_CACTVS_HBOND_ACCEPTOR>
7

> <PUBCHEM_CACTVS_HBOND_DONOR>
0

> <PUBCHEM_CACTVS_ROTATABLE_BOND>
6

> <PUBCHEM_CACTVS_SUBSKEYS>
AAADcfB7sABAAAAAAAAAAAAAAAAAAWAAAAA8eIEABYAAAACx/AAAHgQIAAAADAzl3waz1vcMFAiqAydydACS2CthIrAd2CA/bJiOLuLkuZuHOCjkzhPY6AeQ0PIOqAABQAASEABQAAKAACQgAAAAAAAAAA==

> <PUBCHEM_IUPAC_OPENEYE_NAME>
1-[8-[3-[[4-methyl-5-(2-methyl-5-quinolyl)-1,2,4-triazol-3-yl]sulfanyl]propyl]-2,3,6,7,9,10-hexahydro-[1,4]oxazino[2,3-h][3]benzazepin-4-yl]ethanone

> <PUBCHEM_IUPAC_CAS_NAME>
1-[8-[3-[[4-methyl-5-(2-methyl-5-quinolinyl)-1,2,4-triazol-3-yl]thio]propyl]-2,3,6,7,9,10-hexahydro-[1,4]oxazino[2,3-h][3]benzazepin-4-yl]ethanone

> <PUBCHEM_IUPAC_NAME_MARKUP>
1-[8-[3-[[4-methyl-5-(2-methylquinolin-5-yl)-1,2,4-triazol-3-yl]sulfanyl]propyl]-2,3,6,7,9,10-hexahydro-[1,4]oxazino[2,3-h][3]benzazepin-4-yl]ethanone

> <PUBCHEM_IUPAC_NAME>
1-[8-[3-[[4-methyl-5-(2-methylquinolin-5-yl)-1,2,4-triazol-3-yl]sulfanyl]propyl]-2,3,6,7,9,10-hexahydro-[1,4]oxazino[2,3-h][3]benzazepin-4-yl]ethanone

> <PUBCHEM_IUPAC_SYSTEMATIC_NAME>
1-[8-[3-[[4-methyl-5-(2-methylquinolin-5-yl)-1,2,4-triazol-3-yl]sulfanyl]propyl]-2,3,6,7,9,10-hexahydro-[1,4]oxazino[2,3-h][3]benzazepin-4-yl]ethanone

> <PUBCHEM_IUPAC_TRADITIONAL_NAME>
1-[8-[3-[[4-methyl-5-(2-methyl-5-quinolyl)-1,2,4-triazol-3-yl]thio]propyl]-2,3,6,7,9,10-hexahydro-[1,4]oxazino[2,3-h][3]benzazepin-4-yl]ethanone

> <PUBCHEM_IUPAC_INCHI>
InChI=1S/C30H34N6O2S/c1-20-8-9-24-25(6-4-7-26(24)31-20)29-32-33-30(34(29)3)39-17-5-12-35-13-10-22-18-27-28(19-23(22)11-14-35)38-16-15-36(27)21(2)37/h4,6-9,18-19H,5,10-17H2,1-3H3

> <PUBCHEM_IUPAC_INCHIKEY>
MDWSQWMMLXSJIP-UHFFFAOYSA-N

> <PUBCHEM_XLOGP3_AA>
4.1

> <PUBCHEM_EXACT_MASS>
542.24639552

> <PUBCHEM_MOLECULAR_FORMULA>
C30H34N6O2S

> <PUBCHEM_MOLECULAR_WEIGHT>
542.7

> <PUBCHEM_OPENEYE_CAN_SMILES>
CC1=NC2=CC=CC(=C2C=C1)C3=NN=C(N3C)SCCCN4CCC5=CC6=C(C=C5CC4)OCCN6C(=O)C

> <PUBCHEM_OPENEYE_ISO_SMILES>
CC1=NC2=CC=CC(=C2C=C1)C3=NN=C(N3C)SCCCN4CCC5=CC6=C(C=C5CC4)OCCN6C(=O)C

> <PUBCHEM_CACTVS_TPSA>
102

> <PUBCHEM_MONOISOTOPIC_WEIGHT>
542.24639552

> <PUBCHEM_TOTAL_CHARGE>
0

> <PUBCHEM_HEAVY_ATOM_COUNT>
39

> <PUBCHEM_ATOM_DEF_STEREO_COUNT>
0

> <PUBCHEM_ATOM_UDEF_STEREO_COUNT>
0

> <PUBCHEM_BOND_DEF_STEREO_COUNT>
0

> <PUBCHEM_BOND_UDEF_STEREO_COUNT>
0

> <PUBCHEM_ISOTOPIC_ATOM_COUNT>
0

> <PUBCHEM_COMPONENT_COUNT>
1

> <PUBCHEM_CACTVS_TAUTO_COUNT>
-1

> <PUBCHEM_COORDINATE_TYPE>
1
5
255

> <PUBCHEM_BONDANNOTATIONS>
14  15  8
14  17  8
15  19  8
17  18  8
18  20  8
19  20  8
29  30  8
29  33  8
30  32  8
30  34  8
32  35  8
33  36  8
34  37  8
35  36  8
37  38  8
6  27  8
6  28  8
7  27  8
7  8  8
8  28  8
9  32  8
9  38  8

$$$$
