10364677
  -OEChem-09292322182D

 66 69  0     1  0  0  0  0  0999 V2000
   15.9224   -0.6192    0.0000 O   0  0  0  0  0  0  0  0  0  0  0  0
   10.6603   -0.5950    0.0000 N   0  0  3  0  0  0  0  0  0  0  0  0
    6.3301   -0.0950    0.0000 N   0  0  0  0  0  0  0  0  0  0  0  0
    4.5981    0.9050    0.0000 N   0  0  0  0  0  0  0  0  0  0  0  0
   11.5263   -0.0950    0.0000 C   0  0  3  0  0  0  0  0  0  0  0  0
   11.5263    0.9050    0.0000 C   0  0  0  0  0  0  0  0  0  0  0  0
   12.3923   -0.5950    0.0000 C   0  0  0  0  0  0  0  0  0  0  0  0
   12.3923    1.4050    0.0000 C   0  0  0  0  0  0  0  0  0  0  0  0
    9.7942   -0.0950    0.0000 C   0  0  0  0  0  0  0  0  0  0  0  0
   13.2583   -0.0950    0.0000 C   0  0  0  0  0  0  0  0  0  0  0  0
    8.9282   -0.5950    0.0000 C   0  0  0  0  0  0  0  0  0  0  0  0
   13.2583    0.9050    0.0000 C   0  0  0  0  0  0  0  0  0  0  0  0
    8.0622   -0.0950    0.0000 C   0  0  0  0  0  0  0  0  0  0  0  0
    7.1962   -0.5950    0.0000 C   0  0  0  0  0  0  0  0  0  0  0  0
    6.3301    0.9050    0.0000 C   0  0  0  0  0  0  0  0  0  0  0  0
    5.4641   -0.5950    0.0000 C   0  0  0  0  0  0  0  0  0  0  0  0
    5.4641    1.4050    0.0000 C   0  0  0  0  0  0  0  0  0  0  0  0
    4.5981   -0.0950    0.0000 C   0  0  0  0  0  0  0  0  0  0  0  0
   10.6603   -1.5950    0.0000 C   0  0  0  0  0  0  0  0  0  0  0  0
   14.1523   -0.6297    0.0000 C   0  0  0  0  0  0  0  0  0  0  0  0
   14.1523    1.4397    0.0000 C   0  0  0  0  0  0  0  0  0  0  0  0
    3.7320    1.4050    0.0000 C   0  0  0  0  0  0  0  0  0  0  0  0
   15.0583   -0.1158    0.0000 C   0  0  0  0  0  0  0  0  0  0  0  0
   15.0583    0.9258    0.0000 C   0  0  0  0  0  0  0  0  0  0  0  0
    9.7942   -2.0950    0.0000 C   0  0  0  0  0  0  0  0  0  0  0  0
    2.8660    0.9050    0.0000 C   0  0  0  0  0  0  0  0  0  0  0  0
    3.7320    2.4050    0.0000 C   0  0  0  0  0  0  0  0  0  0  0  0
    2.0000    1.4050    0.0000 C   0  0  0  0  0  0  0  0  0  0  0  0
    2.8660    2.9050    0.0000 C   0  0  0  0  0  0  0  0  0  0  0  0
    2.0000    2.4050    0.0000 C   0  0  0  0  0  0  0  0  0  0  0  0
    8.9282   -2.5950    0.0000 C   0  0  0  0  0  0  0  0  0  0  0  0
   10.9893    0.2150    0.0000 H   0  0  0  0  0  0  0  0  0  0  0  0
   11.3142    1.4876    0.0000 H   0  0  0  0  0  0  0  0  0  0  0  0
   10.9157    0.7973    0.0000 H   0  0  0  0  0  0  0  0  0  0  0  0
   11.9938   -1.0700    0.0000 H   0  0  0  0  0  0  0  0  0  0  0  0
   12.7908   -1.0700    0.0000 H   0  0  0  0  0  0  0  0  0  0  0  0
   12.7908    1.8800    0.0000 H   0  0  0  0  0  0  0  0  0  0  0  0
   11.9938    1.8800    0.0000 H   0  0  0  0  0  0  0  0  0  0  0  0
   10.1928    0.3799    0.0000 H   0  0  0  0  0  0  0  0  0  0  0  0
    9.3957    0.3799    0.0000 H   0  0  0  0  0  0  0  0  0  0  0  0
    8.5297   -1.0700    0.0000 H   0  0  0  0  0  0  0  0  0  0  0  0
    9.3267   -1.0700    0.0000 H   0  0  0  0  0  0  0  0  0  0  0  0
    8.4607    0.3799    0.0000 H   0  0  0  0  0  0  0  0  0  0  0  0
    7.6636    0.3799    0.0000 H   0  0  0  0  0  0  0  0  0  0  0  0
    6.7976   -1.0700    0.0000 H   0  0  0  0  0  0  0  0  0  0  0  0
    7.5947   -1.0700    0.0000 H   0  0  0  0  0  0  0  0  0  0  0  0
    6.9407    0.7973    0.0000 H   0  0  0  0  0  0  0  0  0  0  0  0
    6.5422    1.4876    0.0000 H   0  0  0  0  0  0  0  0  0  0  0  0
    5.0656   -1.0700    0.0000 H   0  0  0  0  0  0  0  0  0  0  0  0
    5.8626   -1.0700    0.0000 H   0  0  0  0  0  0  0  0  0  0  0  0
    5.8626    1.8800    0.0000 H   0  0  0  0  0  0  0  0  0  0  0  0
    5.0656    1.8800    0.0000 H   0  0  0  0  0  0  0  0  0  0  0  0
    3.9875    0.0127    0.0000 H   0  0  0  0  0  0  0  0  0  0  0  0
    4.3860   -0.6776    0.0000 H   0  0  0  0  0  0  0  0  0  0  0  0
   10.8723   -2.1776    0.0000 H   0  0  0  0  0  0  0  0  0  0  0  0
   11.2708   -1.4873    0.0000 H   0  0  0  0  0  0  0  0  0  0  0  0
   14.1451   -1.2496    0.0000 H   0  0  0  0  0  0  0  0  0  0  0  0
   14.1451    2.0596    0.0000 H   0  0  0  0  0  0  0  0  0  0  0  0
   15.5941    1.2379    0.0000 H   0  0  0  0  0  0  0  0  0  0  0  0
    2.8660    0.2850    0.0000 H   0  0  0  0  0  0  0  0  0  0  0  0
    4.2690    2.7150    0.0000 H   0  0  0  0  0  0  0  0  0  0  0  0
   16.4606   -0.3112    0.0000 H   0  0  0  0  0  0  0  0  0  0  0  0
    1.4631    1.0950    0.0000 H   0  0  0  0  0  0  0  0  0  0  0  0
    2.8660    3.5250    0.0000 H   0  0  0  0  0  0  0  0  0  0  0  0
    1.4631    2.7150    0.0000 H   0  0  0  0  0  0  0  0  0  0  0  0
    8.3913   -2.9050    0.0000 H   0  0  0  0  0  0  0  0  0  0  0  0
  1 23  1  0  0  0  0
  1 62  1  0  0  0  0
  2  5  1  0  0  0  0
  2  9  1  0  0  0  0
  2 19  1  0  0  0  0
  3 14  1  0  0  0  0
  3 15  1  0  0  0  0
  3 16  1  0  0  0  0
  4 17  1  0  0  0  0
  4 18  1  0  0  0  0
  4 22  1  0  0  0  0
  5  6  1  0  0  0  0
  5  7  1  0  0  0  0
  5 32  1  0  0  0  0
  6  8  1  0  0  0  0
  6 33  1  0  0  0  0
  6 34  1  0  0  0  0
  7 10  1  0  0  0  0
  7 35  1  0  0  0  0
  7 36  1  0  0  0  0
  8 12  1  0  0  0  0
  8 37  1  0  0  0  0
  8 38  1  0  0  0  0
  9 11  1  0  0  0  0
  9 39  1  0  0  0  0
  9 40  1  0  0  0  0
 10 12  2  0  0  0  0
 10 20  1  0  0  0  0
 11 13  1  0  0  0  0
 11 41  1  0  0  0  0
 11 42  1  0  0  0  0
 12 21  1  0  0  0  0
 13 14  1  0  0  0  0
 13 43  1  0  0  0  0
 13 44  1  0  0  0  0
 14 45  1  0  0  0  0
 14 46  1  0  0  0  0
 15 17  1  0  0  0  0
 15 47  1  0  0  0  0
 15 48  1  0  0  0  0
 16 18  1  0  0  0  0
 16 49  1  0  0  0  0
 16 50  1  0  0  0  0
 17 51  1  0  0  0  0
 17 52  1  0  0  0  0
 18 53  1  0  0  0  0
 18 54  1  0  0  0  0
 19 25  1  0  0  0  0
 19 55  1  0  0  0  0
 19 56  1  0  0  0  0
 20 23  2  0  0  0  0
 20 57  1  0  0  0  0
 21 24  2  0  0  0  0
 21 58  1  0  0  0  0
 22 26  2  0  0  0  0
 22 27  1  0  0  0  0
 23 24  1  0  0  0  0
 24 59  1  0  0  0  0
 25 31  3  0  0  0  0
 26 28  1  0  0  0  0
 26 60  1  0  0  0  0
 27 29  2  0  0  0  0
 27 61  1  0  0  0  0
 28 30  2  0  0  0  0
 28 63  1  0  0  0  0
 29 30  1  0  0  0  0
 29 64  1  0  0  0  0
 30 65  1  0  0  0  0
 31 66  1  0  0  0  0
M  END
> <PUBCHEM_COMPOUND_CID>
10364677

> <PUBCHEM_COMPOUND_CANONICALIZED>
1

> <PUBCHEM_CACTVS_COMPLEXITY>
572

> <PUBCHEM_CACTVS_HBOND_ACCEPTOR>
4

> <PUBCHEM_CACTVS_HBOND_DONOR>
1

> <PUBCHEM_CACTVS_ROTATABLE_BOND>
8

> <PUBCHEM_CACTVS_SUBSKEYS>
AAADcfB7IAAAAAAAAAAAAAAAAAAAAAAAAAA8YMEAAAAAAADBQAAAHgAACAAADCzBmAQwxoMAAgDAGiRCQACCAAAhIgAIiAAObIgIZiLCkZOUcAhkwBHI2AeQ0LMOoAABAAAQAABQAAKAACAAAAAAAAAAAA==

> <PUBCHEM_IUPAC_OPENEYE_NAME>
3-[4-(4-phenylpiperazin-1-yl)butyl-prop-2-ynyl-amino]tetralin-6-ol

> <PUBCHEM_IUPAC_CAS_NAME>
7-[4-(4-phenyl-1-piperazinyl)butyl-prop-2-ynylamino]-5,6,7,8-tetrahydronaphthalen-2-ol

> <PUBCHEM_IUPAC_NAME_MARKUP>
7-[4-(4-phenylpiperazin-1-yl)butyl-prop-2-ynylamino]-5,6,7,8-tetrahydronaphthalen-2-ol

> <PUBCHEM_IUPAC_NAME>
7-[4-(4-phenylpiperazin-1-yl)butyl-prop-2-ynylamino]-5,6,7,8-tetrahydronaphthalen-2-ol

> <PUBCHEM_IUPAC_SYSTEMATIC_NAME>
7-[4-(4-phenylpiperazin-1-yl)butyl-prop-2-ynyl-amino]-5,6,7,8-tetrahydronaphthalen-2-ol

> <PUBCHEM_IUPAC_TRADITIONAL_NAME>
3-[4-(4-phenylpiperazino)butyl-propargyl-amino]tetralin-6-ol

> <PUBCHEM_IUPAC_INCHI>
InChI=1S/C27H35N3O/c1-2-14-29(26-12-10-23-11-13-27(31)22-24(23)21-26)16-7-6-15-28-17-19-30(20-18-28)25-8-4-3-5-9-25/h1,3-5,8-9,11,13,22,26,31H,6-7,10,12,14-21H2

> <PUBCHEM_IUPAC_INCHIKEY>
LXFPKJLLIWPMEU-UHFFFAOYSA-N

> <PUBCHEM_XLOGP3_AA>
4.8

> <PUBCHEM_EXACT_MASS>
417.278012748

> <PUBCHEM_MOLECULAR_FORMULA>
C27H35N3O

> <PUBCHEM_MOLECULAR_WEIGHT>
417.6

> <PUBCHEM_OPENEYE_CAN_SMILES>
C#CCN(CCCCN1CCN(CC1)C2=CC=CC=C2)C3CCC4=C(C3)C=C(C=C4)O

> <PUBCHEM_OPENEYE_ISO_SMILES>
C#CCN(CCCCN1CCN(CC1)C2=CC=CC=C2)C3CCC4=C(C3)C=C(C=C4)O

> <PUBCHEM_CACTVS_TPSA>
30

> <PUBCHEM_MONOISOTOPIC_WEIGHT>
417.278012748

> <PUBCHEM_TOTAL_CHARGE>
0

> <PUBCHEM_HEAVY_ATOM_COUNT>
31

> <PUBCHEM_ATOM_DEF_STEREO_COUNT>
0

> <PUBCHEM_ATOM_UDEF_STEREO_COUNT>
1

> <PUBCHEM_BOND_DEF_STEREO_COUNT>
0

> <PUBCHEM_BOND_UDEF_STEREO_COUNT>
0

> <PUBCHEM_ISOTOPIC_ATOM_COUNT>
0

> <PUBCHEM_COMPONENT_COUNT>
1

> <PUBCHEM_CACTVS_TAUTO_COUNT>
-1

> <PUBCHEM_COORDINATE_TYPE>
1
5
255

> <PUBCHEM_BONDANNOTATIONS>
10  12  8
10  20  8
12  21  8
5  2  3
20  23  8
21  24  8
22  26  8
22  27  8
23  24  8
26  28  8
27  29  8
28  30  8
29  30  8

$$$$
