10786190
  -OEChem-09292322132D

 42 45  0     1  0  0  0  0  0999 V2000
    3.7204    1.5857    0.0000 S   0  0  0  0  0  0  0  0  0  0  0  0
    2.0000    2.6056    0.0000 F   0  0  0  0  0  0  0  0  0  0  0  0
    3.3702    2.9558    0.0000 F   0  0  0  0  0  0  0  0  0  0  0  0
    2.3502    1.2354    0.0000 F   0  0  0  0  0  0  0  0  0  0  0  0
    4.5806    1.0757    0.0000 O   0  0  0  0  0  0  0  0  0  0  0  0
    4.2303    2.4458    0.0000 O   0  0  0  0  0  0  0  0  0  0  0  0
    3.2104    0.7255    0.0000 O   0  0  0  0  0  0  0  0  0  0  0  0
    8.0532   -1.9558    0.0000 N   0  0  3  0  0  0  0  0  0  0  0  0
    7.1950   -1.4589    0.0000 C   0  0  1  0  0  0  0  0  0  0  0  0
    7.1950   -0.4589    0.0000 C   0  0  0  0  0  0  0  0  0  0  0  0
    6.3290   -1.9589    0.0000 C   0  0  0  0  0  0  0  0  0  0  0  0
    8.1050    0.0479    0.0000 C   0  0  0  0  0  0  0  0  0  0  0  0
    8.9187   -1.4717    0.0000 C   0  0  0  0  0  0  0  0  0  0  0  0
    6.3290    0.0411    0.0000 C   0  0  0  0  0  0  0  0  0  0  0  0
    8.9443   -0.4803    0.0000 C   0  0  0  0  0  0  0  0  0  0  0  0
    5.4629   -1.4589    0.0000 C   0  0  0  0  0  0  0  0  0  0  0  0
    5.4629   -0.4589    0.0000 C   0  0  0  0  0  0  0  0  0  0  0  0
    8.0458   -2.9558    0.0000 C   0  0  0  0  0  0  0  0  0  0  0  0
    8.1130    1.0895    0.0000 C   0  0  0  0  0  0  0  0  0  0  0  0
    6.3129    1.0826    0.0000 C   0  0  0  0  0  0  0  0  0  0  0  0
    4.5690    0.0757    0.0000 C   0  0  0  0  0  0  0  0  0  0  0  0
    4.5690   -1.9936    0.0000 C   0  0  0  0  0  0  0  0  0  0  0  0
    7.2109    1.6103    0.0000 C   0  0  0  0  0  0  0  0  0  0  0  0
    3.6629   -0.4381    0.0000 C   0  0  0  0  0  0  0  0  0  0  0  0
    3.6629   -1.4797    0.0000 C   0  0  0  0  0  0  0  0  0  0  0  0
    2.8602    2.0956    0.0000 C   0  0  0  0  0  0  0  0  0  0  0  0
    7.1944   -2.3089    0.0000 H   0  0  0  0  0  0  0  0  0  0  0  0
    5.9304   -2.4339    0.0000 H   0  0  0  0  0  0  0  0  0  0  0  0
    6.7275   -2.4339    0.0000 H   0  0  0  0  0  0  0  0  0  0  0  0
    9.1204   -2.0579    0.0000 H   0  0  0  0  0  0  0  0  0  0  0  0
    9.5315   -1.3773    0.0000 H   0  0  0  0  0  0  0  0  0  0  0  0
    9.5514   -0.6062    0.0000 H   0  0  0  0  0  0  0  0  0  0  0  0
    9.1761    0.0948    0.0000 H   0  0  0  0  0  0  0  0  0  0  0  0
    7.4258   -2.9512    0.0000 H   0  0  0  0  0  0  0  0  0  0  0  0
    8.0412   -3.5758    0.0000 H   0  0  0  0  0  0  0  0  0  0  0  0
    8.6658   -2.9604    0.0000 H   0  0  0  0  0  0  0  0  0  0  0  0
    8.6511    1.3974    0.0000 H   0  0  0  0  0  0  0  0  0  0  0  0
    5.7724    1.3864    0.0000 H   0  0  0  0  0  0  0  0  0  0  0  0
    4.5762   -2.6135    0.0000 H   0  0  0  0  0  0  0  0  0  0  0  0
    7.2086    2.2303    0.0000 H   0  0  0  0  0  0  0  0  0  0  0  0
    3.1272   -0.1260    0.0000 H   0  0  0  0  0  0  0  0  0  0  0  0
    3.1272   -1.7918    0.0000 H   0  0  0  0  0  0  0  0  0  0  0  0
  1  5  1  0  0  0  0
  1  6  2  0  0  0  0
  1  7  2  0  0  0  0
  1 26  1  0  0  0  0
  2 26  1  0  0  0  0
  3 26  1  0  0  0  0
  4 26  1  0  0  0  0
  5 21  1  0  0  0  0
  8  9  1  0  0  0  0
  8 13  1  0  0  0  0
  8 18  1  0  0  0  0
  9 10  1  0  0  0  0
  9 11  1  0  0  0  0
  9 27  1  1  0  0  0
 10 12  2  0  0  0  0
 10 14  1  0  0  0  0
 11 16  1  0  0  0  0
 11 28  1  0  0  0  0
 11 29  1  0  0  0  0
 12 15  1  0  0  0  0
 12 19  1  0  0  0  0
 13 15  1  0  0  0  0
 13 30  1  0  0  0  0
 13 31  1  0  0  0  0
 14 17  1  0  0  0  0
 14 20  2  0  0  0  0
 15 32  1  0  0  0  0
 15 33  1  0  0  0  0
 16 17  2  0  0  0  0
 16 22  1  0  0  0  0
 17 21  1  0  0  0  0
 18 34  1  0  0  0  0
 18 35  1  0  0  0  0
 18 36  1  0  0  0  0
 19 23  2  0  0  0  0
 19 37  1  0  0  0  0
 20 23  1  0  0  0  0
 20 38  1  0  0  0  0
 21 24  2  0  0  0  0
 22 25  2  0  0  0  0
 22 39  1  0  0  0  0
 23 40  1  0  0  0  0
 24 25  1  0  0  0  0
 24 41  1  0  0  0  0
 25 42  1  0  0  0  0
M  END
> <PUBCHEM_COMPOUND_CID>
10786190

> <PUBCHEM_COMPOUND_CANONICALIZED>
1

> <PUBCHEM_CACTVS_COMPLEXITY>
633

> <PUBCHEM_CACTVS_HBOND_ACCEPTOR>
7

> <PUBCHEM_CACTVS_HBOND_DONOR>
0

> <PUBCHEM_CACTVS_ROTATABLE_BOND>
2

> <PUBCHEM_CACTVS_SUBSKEYS>
AAADceB6MYBAAAAAAAAAAAAAAAAAAAAAAAA8YMEAAAAAAADxQAAAHwQAAAAADCzBmBQyBoMAAAKAAiBCAHCCAAAgIAAIiAAODIgIJiKAkROEMAhkwBGIiAeQ0PMOgAADAAAYAACQAAaAADQAAAAAAAAAAA==

> <PUBCHEM_IUPAC_OPENEYE_NAME>
[(6aR)-6-methyl-5,6,6a,7-tetrahydro-4H-dibenzo[de,g]quinolin-11-yl] trifluoromethanesulfonate

> <PUBCHEM_IUPAC_CAS_NAME>
trifluoromethanesulfonic acid [(6aR)-6-methyl-5,6,6a,7-tetrahydro-4H-dibenzo[de,g]quinolin-11-yl] ester

> <PUBCHEM_IUPAC_NAME_MARKUP>
[(6<I>a</I><I>R</I>)-6-methyl-5,6,6<I>a</I>,7-tetrahydro-4<I>H</I>-dibenzo[de,g]quinolin-11-yl] trifluoromethanesulfonate

> <PUBCHEM_IUPAC_NAME>
[(6aR)-6-methyl-5,6,6a,7-tetrahydro-4H-dibenzo[de,g]quinolin-11-yl] trifluoromethanesulfonate

> <PUBCHEM_IUPAC_SYSTEMATIC_NAME>
[(6aR)-6-methyl-5,6,6a,7-tetrahydro-4H-dibenzo[de,g]quinolin-11-yl] tris(fluoranyl)methanesulfonate

> <PUBCHEM_IUPAC_TRADITIONAL_NAME>
trifluoromethanesulfonic acid [(6aR)-6-methyl-5,6,6a,7-tetrahydro-4H-dibenzo[de,g]quinolin-11-yl] ester

> <PUBCHEM_IUPAC_INCHI>
InChI=1S/C18H16F3NO3S/c1-22-9-8-11-4-2-6-13-16(11)14(22)10-12-5-3-7-15(17(12)13)25-26(23,24)18(19,20)21/h2-7,14H,8-10H2,1H3/t14-/m1/s1

> <PUBCHEM_IUPAC_INCHIKEY>
AZFCGGUCEYWFCK-CQSZACIVSA-N

> <PUBCHEM_XLOGP3>
3.8

> <PUBCHEM_EXACT_MASS>
383.08029903

> <PUBCHEM_MOLECULAR_FORMULA>
C18H16F3NO3S

> <PUBCHEM_MOLECULAR_WEIGHT>
383.4

> <PUBCHEM_OPENEYE_CAN_SMILES>
CN1CCC2=C3C1CC4=C(C3=CC=C2)C(=CC=C4)OS(=O)(=O)C(F)(F)F

> <PUBCHEM_OPENEYE_ISO_SMILES>
CN1CCC2=C3[C@H]1CC4=C(C3=CC=C2)C(=CC=C4)OS(=O)(=O)C(F)(F)F

> <PUBCHEM_CACTVS_TPSA>
55

> <PUBCHEM_MONOISOTOPIC_WEIGHT>
383.08029903

> <PUBCHEM_TOTAL_CHARGE>
0

> <PUBCHEM_HEAVY_ATOM_COUNT>
26

> <PUBCHEM_ATOM_DEF_STEREO_COUNT>
1

> <PUBCHEM_ATOM_UDEF_STEREO_COUNT>
0

> <PUBCHEM_BOND_DEF_STEREO_COUNT>
0

> <PUBCHEM_BOND_UDEF_STEREO_COUNT>
0

> <PUBCHEM_ISOTOPIC_ATOM_COUNT>
0

> <PUBCHEM_COMPONENT_COUNT>
1

> <PUBCHEM_CACTVS_TAUTO_COUNT>
-1

> <PUBCHEM_COORDINATE_TYPE>
1
5
255

> <PUBCHEM_BONDANNOTATIONS>
10  12  8
10  14  8
12  19  8
14  20  8
16  17  8
16  22  8
17  21  8
19  23  8
20  23  8
21  24  8
22  25  8
24  25  8
9  27  5

$$$$
