44387776
  -OEChem-09292322522D

 53 56  0     0  0  0  0  0  0999 V2000
    5.0981    1.6596    0.0000 S   0  0  0  0  0  0  0  0  0  0  0  0
    3.7320    1.2936    0.0000 F   0  0  0  0  0  0  0  0  0  0  0  0
    2.0000   -3.7064    0.0000 F   0  0  0  0  0  0  0  0  0  0  0  0
    3.7320   -6.7064    0.0000 F   0  0  0  0  0  0  0  0  0  0  0  0
    5.9641    1.1596    0.0000 O   0  0  0  0  0  0  0  0  0  0  0  0
    4.2320    2.1596    0.0000 O   0  0  0  0  0  0  0  0  0  0  0  0
    4.5981   -1.2064    0.0000 N   0  0  0  0  0  0  0  0  0  0  0  0
    7.0981    5.1237    0.0000 N   0  0  0  0  0  0  0  0  0  0  0  0
    8.0926    5.2282    0.0000 N   0  0  0  0  0  0  0  0  0  0  0  0
    4.5981    0.7936    0.0000 C   0  0  0  0  0  0  0  0  0  0  0  0
    5.4641    0.2936    0.0000 C   0  0  0  0  0  0  0  0  0  0  0  0
    3.7320    0.2936    0.0000 C   0  0  0  0  0  0  0  0  0  0  0  0
    5.4641   -0.7064    0.0000 C   0  0  0  0  0  0  0  0  0  0  0  0
    3.7320   -0.7064    0.0000 C   0  0  0  0  0  0  0  0  0  0  0  0
    4.5981   -2.2064    0.0000 C   0  0  0  0  0  0  0  0  0  0  0  0
    5.5981    2.5256    0.0000 C   0  0  0  0  0  0  0  0  0  0  0  0
    3.7320   -2.7064    0.0000 C   0  0  0  0  0  0  0  0  0  0  0  0
    5.0981    3.3917    0.0000 C   0  0  0  0  0  0  0  0  0  0  0  0
    6.5981    2.5256    0.0000 C   0  0  0  0  0  0  0  0  0  0  0  0
    3.7320   -3.7064    0.0000 C   0  0  0  0  0  0  0  0  0  0  0  0
    5.5981    4.2577    0.0000 C   0  0  0  0  0  0  0  0  0  0  0  0
    7.0981    3.3917    0.0000 C   0  0  0  0  0  0  0  0  0  0  0  0
    6.5981    4.2577    0.0000 C   0  0  0  0  0  0  0  0  0  0  0  0
    2.8660   -4.2064    0.0000 C   0  0  0  0  0  0  0  0  0  0  0  0
    4.5981   -4.2064    0.0000 C   0  0  0  0  0  0  0  0  0  0  0  0
    2.8660   -5.2064    0.0000 C   0  0  0  0  0  0  0  0  0  0  0  0
    4.5981   -5.2064    0.0000 C   0  0  0  0  0  0  0  0  0  0  0  0
    3.7320   -5.7064    0.0000 C   0  0  0  0  0  0  0  0  0  0  0  0
    6.6913    6.0373    0.0000 C   0  0  0  0  0  0  0  0  0  0  0  0
    7.4345    6.7064    0.0000 C   0  0  0  0  0  0  0  0  0  0  0  0
    8.3005    6.2064    0.0000 C   0  0  0  0  0  0  0  0  0  0  0  0
    6.0747    0.1859    0.0000 H   0  0  0  0  0  0  0  0  0  0  0  0
    5.6762    0.8762    0.0000 H   0  0  0  0  0  0  0  0  0  0  0  0
    3.5200    0.8762    0.0000 H   0  0  0  0  0  0  0  0  0  0  0  0
    3.1215    0.1859    0.0000 H   0  0  0  0  0  0  0  0  0  0  0  0
    5.6762   -1.2890    0.0000 H   0  0  0  0  0  0  0  0  0  0  0  0
    6.0747   -0.5987    0.0000 H   0  0  0  0  0  0  0  0  0  0  0  0
    3.1215   -0.5987    0.0000 H   0  0  0  0  0  0  0  0  0  0  0  0
    3.5200   -1.2890    0.0000 H   0  0  0  0  0  0  0  0  0  0  0  0
    4.8101   -2.7890    0.0000 H   0  0  0  0  0  0  0  0  0  0  0  0
    5.2087   -2.0987    0.0000 H   0  0  0  0  0  0  0  0  0  0  0  0
    3.5200   -2.1238    0.0000 H   0  0  0  0  0  0  0  0  0  0  0  0
    3.1215   -2.8141    0.0000 H   0  0  0  0  0  0  0  0  0  0  0  0
    4.4781    3.3917    0.0000 H   0  0  0  0  0  0  0  0  0  0  0  0
    6.9081    1.9887    0.0000 H   0  0  0  0  0  0  0  0  0  0  0  0
    5.2881    4.7946    0.0000 H   0  0  0  0  0  0  0  0  0  0  0  0
    7.7181    3.3917    0.0000 H   0  0  0  0  0  0  0  0  0  0  0  0
    5.1350   -3.8964    0.0000 H   0  0  0  0  0  0  0  0  0  0  0  0
    2.3291   -5.5164    0.0000 H   0  0  0  0  0  0  0  0  0  0  0  0
    5.1350   -5.5164    0.0000 H   0  0  0  0  0  0  0  0  0  0  0  0
    6.0849    6.1662    0.0000 H   0  0  0  0  0  0  0  0  0  0  0  0
    7.3697    7.3230    0.0000 H   0  0  0  0  0  0  0  0  0  0  0  0
    8.8669    6.4586    0.0000 H   0  0  0  0  0  0  0  0  0  0  0  0
  1  5  2  0  0  0  0
  1  6  2  0  0  0  0
  1 10  1  0  0  0  0
  1 16  1  0  0  0  0
  2 10  1  0  0  0  0
  3 24  1  0  0  0  0
  4 28  1  0  0  0  0
  7 13  1  0  0  0  0
  7 14  1  0  0  0  0
  7 15  1  0  0  0  0
  8  9  1  0  0  0  0
  8 23  1  0  0  0  0
  8 29  1  0  0  0  0
  9 31  2  0  0  0  0
 10 11  1  0  0  0  0
 10 12  1  0  0  0  0
 11 13  1  0  0  0  0
 11 32  1  0  0  0  0
 11 33  1  0  0  0  0
 12 14  1  0  0  0  0
 12 34  1  0  0  0  0
 12 35  1  0  0  0  0
 13 36  1  0  0  0  0
 13 37  1  0  0  0  0
 14 38  1  0  0  0  0
 14 39  1  0  0  0  0
 15 17  1  0  0  0  0
 15 40  1  0  0  0  0
 15 41  1  0  0  0  0
 16 18  2  0  0  0  0
 16 19  1  0  0  0  0
 17 20  1  0  0  0  0
 17 42  1  0  0  0  0
 17 43  1  0  0  0  0
 18 21  1  0  0  0  0
 18 44  1  0  0  0  0
 19 22  2  0  0  0  0
 19 45  1  0  0  0  0
 20 24  2  0  0  0  0
 20 25  1  0  0  0  0
 21 23  2  0  0  0  0
 21 46  1  0  0  0  0
 22 23  1  0  0  0  0
 22 47  1  0  0  0  0
 24 26  1  0  0  0  0
 25 27  2  0  0  0  0
 25 48  1  0  0  0  0
 26 28  2  0  0  0  0
 26 49  1  0  0  0  0
 27 28  1  0  0  0  0
 27 50  1  0  0  0  0
 29 30  2  0  0  0  0
 29 51  1  0  0  0  0
 30 31  1  0  0  0  0
 30 52  1  0  0  0  0
 31 53  1  0  0  0  0
M  END
> <PUBCHEM_COMPOUND_CID>
44387776

> <PUBCHEM_COMPOUND_CANONICALIZED>
1

> <PUBCHEM_CACTVS_COMPLEXITY>
689

> <PUBCHEM_CACTVS_HBOND_ACCEPTOR>
7

> <PUBCHEM_CACTVS_HBOND_DONOR>
0

> <PUBCHEM_CACTVS_ROTATABLE_BOND>
6

> <PUBCHEM_CACTVS_SUBSKEYS>
AAADceB7MYBAAAAAAAAAAAAAAAAAAWAAAAA8YIAAAAAAAAAB0AAAHQQIAAAADAjBWgw8wZMIAAqiAjRnRHDSBCAxihAYmDg4ZJgIIOLg0dGEpAhgiADoyAcQgIAOAAQAAAAAAAAACAAAAAAAAAAAAAAAAA==

> <PUBCHEM_IUPAC_OPENEYE_NAME>
1-[2-(2,4-difluorophenyl)ethyl]-4-fluoro-4-(4-pyrazol-1-ylphenyl)sulfonyl-piperidine

> <PUBCHEM_IUPAC_CAS_NAME>
1-[2-(2,4-difluorophenyl)ethyl]-4-fluoro-4-[4-(1-pyrazolyl)phenyl]sulfonylpiperidine

> <PUBCHEM_IUPAC_NAME_MARKUP>
1-[2-(2,4-difluorophenyl)ethyl]-4-fluoro-4-(4-pyrazol-1-ylphenyl)sulfonylpiperidine

> <PUBCHEM_IUPAC_NAME>
1-[2-(2,4-difluorophenyl)ethyl]-4-fluoro-4-(4-pyrazol-1-ylphenyl)sulfonylpiperidine

> <PUBCHEM_IUPAC_SYSTEMATIC_NAME>
1-[2-[2,4-bis(fluoranyl)phenyl]ethyl]-4-fluoranyl-4-(4-pyrazol-1-ylphenyl)sulfonyl-piperidine

> <PUBCHEM_IUPAC_TRADITIONAL_NAME>
1-[2-(2,4-difluorophenyl)ethyl]-4-fluoro-4-(4-pyrazol-1-ylphenyl)sulfonyl-piperidine

> <PUBCHEM_IUPAC_INCHI>
InChI=1S/C22H22F3N3O2S/c23-18-3-2-17(21(24)16-18)8-13-27-14-9-22(25,10-15-27)31(29,30)20-6-4-19(5-7-20)28-12-1-11-26-28/h1-7,11-12,16H,8-10,13-15H2

> <PUBCHEM_IUPAC_INCHIKEY>
UQBVRNKSOWSPQR-UHFFFAOYSA-N

> <PUBCHEM_XLOGP3_AA>
4.1

> <PUBCHEM_EXACT_MASS>
449.13848261

> <PUBCHEM_MOLECULAR_FORMULA>
C22H22F3N3O2S

> <PUBCHEM_MOLECULAR_WEIGHT>
449.5

> <PUBCHEM_OPENEYE_CAN_SMILES>
C1CN(CCC1(F)S(=O)(=O)C2=CC=C(C=C2)N3C=CC=N3)CCC4=C(C=C(C=C4)F)F

> <PUBCHEM_OPENEYE_ISO_SMILES>
C1CN(CCC1(F)S(=O)(=O)C2=CC=C(C=C2)N3C=CC=N3)CCC4=C(C=C(C=C4)F)F

> <PUBCHEM_CACTVS_TPSA>
63.6

> <PUBCHEM_MONOISOTOPIC_WEIGHT>
449.13848261

> <PUBCHEM_TOTAL_CHARGE>
0

> <PUBCHEM_HEAVY_ATOM_COUNT>
31

> <PUBCHEM_ATOM_DEF_STEREO_COUNT>
0

> <PUBCHEM_ATOM_UDEF_STEREO_COUNT>
0

> <PUBCHEM_BOND_DEF_STEREO_COUNT>
0

> <PUBCHEM_BOND_UDEF_STEREO_COUNT>
0

> <PUBCHEM_ISOTOPIC_ATOM_COUNT>
0

> <PUBCHEM_COMPONENT_COUNT>
1

> <PUBCHEM_CACTVS_TAUTO_COUNT>
-1

> <PUBCHEM_COORDINATE_TYPE>
1
5
255

> <PUBCHEM_BONDANNOTATIONS>
16  18  8
16  19  8
18  21  8
19  22  8
20  24  8
20  25  8
21  23  8
22  23  8
24  26  8
25  27  8
26  28  8
27  28  8
29  30  8
30  31  8
8  29  8
8  9  8
9  31  8

$$$$
