24900872
  -OEChem-09292322072D

 64 67  0     1  0  0  0  0  0999 V2000
   15.0706   -1.5403    0.0000 S   0  0  0  0  0  0  0  0  0  0  0  0
   14.1244    0.1550    0.0000 O   0  0  0  0  0  0  0  0  0  0  0  0
   13.2583   -4.3450    0.0000 O   0  0  0  0  0  0  0  0  0  0  0  0
   16.6542   -2.3450    0.0000 O   0  0  0  0  0  0  0  0  0  0  0  0
   12.3923    1.1550    0.0000 N   0  0  0  0  0  0  0  0  0  0  0  0
    7.1962    3.1550    0.0000 N   0  0  0  0  0  0  0  0  0  0  0  0
   15.0706   -3.1497    0.0000 N   0  0  0  0  0  0  0  0  0  0  0  0
    2.8660    2.6550    0.0000 N   0  0  0  0  0  0  0  0  0  0  0  0
   13.2583   -0.3450    0.0000 C   0  0  1  0  0  0  0  0  0  0  0  0
   12.3923    0.1550    0.0000 C   0  0  0  0  0  0  0  0  0  0  0  0
   13.2583   -1.3450    0.0000 C   0  0  0  0  0  0  0  0  0  0  0  0
   11.5263    1.6550    0.0000 C   0  0  0  0  0  0  0  0  0  0  0  0
   11.5263    2.6550    0.0000 C   0  0  0  0  0  0  0  0  0  0  0  0
   10.6603    3.1550    0.0000 C   0  0  0  0  0  0  0  0  0  0  0  0
   14.1244   -1.8450    0.0000 C   0  0  0  0  0  0  0  0  0  0  0  0
    8.9282    3.1550    0.0000 C   0  0  0  0  0  0  0  0  0  0  0  0
    8.0622    2.6550    0.0000 C   0  0  0  0  0  0  0  0  0  0  0  0
   14.1244   -2.8450    0.0000 C   0  0  0  0  0  0  0  0  0  0  0  0
    9.7942    2.6550    0.0000 C   0  0  0  0  0  0  0  0  0  0  0  0
    6.3301    2.6550    0.0000 C   0  0  0  0  0  0  0  0  0  0  0  0
   12.3923   -1.8450    0.0000 C   0  0  0  0  0  0  0  0  0  0  0  0
    5.4641    3.1550    0.0000 C   0  0  0  0  0  0  0  0  0  0  0  0
   10.6603    4.1550    0.0000 C   0  0  0  0  0  0  0  0  0  0  0  0
   13.2583   -3.3450    0.0000 C   0  0  0  0  0  0  0  0  0  0  0  0
    4.5981    2.6550    0.0000 C   0  0  0  0  0  0  0  0  0  0  0  0
    8.9282    4.1550    0.0000 C   0  0  0  0  0  0  0  0  0  0  0  0
   12.3923   -2.8450    0.0000 C   0  0  0  0  0  0  0  0  0  0  0  0
    9.7942    4.6550    0.0000 C   0  0  0  0  0  0  0  0  0  0  0  0
   15.6542   -2.3450    0.0000 C   0  0  0  0  0  0  0  0  0  0  0  0
    3.7320    3.1550    0.0000 C   0  0  0  0  0  0  0  0  0  0  0  0
    3.7320    4.1550    0.0000 C   0  0  0  0  0  0  0  0  0  0  0  0
    2.8660    4.6550    0.0000 C   0  0  0  0  0  0  0  0  0  0  0  0
    2.0000    3.1550    0.0000 C   0  0  0  0  0  0  0  0  0  0  0  0
    2.0000    4.1550    0.0000 C   0  0  0  0  0  0  0  0  0  0  0  0
   13.7953   -0.6550    0.0000 H   0  0  0  0  0  0  0  0  0  0  0  0
   11.7817    0.2627    0.0000 H   0  0  0  0  0  0  0  0  0  0  0  0
   12.1803   -0.4276    0.0000 H   0  0  0  0  0  0  0  0  0  0  0  0
   10.9157    1.7627    0.0000 H   0  0  0  0  0  0  0  0  0  0  0  0
   11.3142    1.0724    0.0000 H   0  0  0  0  0  0  0  0  0  0  0  0
   12.1369    2.5473    0.0000 H   0  0  0  0  0  0  0  0  0  0  0  0
   11.7383    3.2376    0.0000 H   0  0  0  0  0  0  0  0  0  0  0  0
   12.9292    1.4650    0.0000 H   0  0  0  0  0  0  0  0  0  0  0  0
    7.6636    2.1800    0.0000 H   0  0  0  0  0  0  0  0  0  0  0  0
    8.4607    2.1800    0.0000 H   0  0  0  0  0  0  0  0  0  0  0  0
    9.7942    2.0350    0.0000 H   0  0  0  0  0  0  0  0  0  0  0  0
    5.9316    2.1800    0.0000 H   0  0  0  0  0  0  0  0  0  0  0  0
    6.7287    2.1800    0.0000 H   0  0  0  0  0  0  0  0  0  0  0  0
    5.8626    3.6300    0.0000 H   0  0  0  0  0  0  0  0  0  0  0  0
    5.0656    3.6300    0.0000 H   0  0  0  0  0  0  0  0  0  0  0  0
   11.8554   -1.5350    0.0000 H   0  0  0  0  0  0  0  0  0  0  0  0
    7.1962    3.7750    0.0000 H   0  0  0  0  0  0  0  0  0  0  0  0
   11.1972    4.4650    0.0000 H   0  0  0  0  0  0  0  0  0  0  0  0
    4.1996    2.1800    0.0000 H   0  0  0  0  0  0  0  0  0  0  0  0
    4.9966    2.1800    0.0000 H   0  0  0  0  0  0  0  0  0  0  0  0
    8.3913    4.4650    0.0000 H   0  0  0  0  0  0  0  0  0  0  0  0
   11.8554   -3.1550    0.0000 H   0  0  0  0  0  0  0  0  0  0  0  0
    9.7942    5.2750    0.0000 H   0  0  0  0  0  0  0  0  0  0  0  0
   15.2632   -3.7390    0.0000 H   0  0  0  0  0  0  0  0  0  0  0  0
   14.1244    0.7750    0.0000 H   0  0  0  0  0  0  0  0  0  0  0  0
    4.2690    4.4650    0.0000 H   0  0  0  0  0  0  0  0  0  0  0  0
   12.7214   -4.6550    0.0000 H   0  0  0  0  0  0  0  0  0  0  0  0
    2.8660    5.2750    0.0000 H   0  0  0  0  0  0  0  0  0  0  0  0
    1.4631    2.8450    0.0000 H   0  0  0  0  0  0  0  0  0  0  0  0
    1.4631    4.4650    0.0000 H   0  0  0  0  0  0  0  0  0  0  0  0
  1 15  1  0  0  0  0
  1 29  1  0  0  0  0
  9  2  1  6  0  0  0
  2 59  1  0  0  0  0
  3 24  1  0  0  0  0
  3 61  1  0  0  0  0
  4 29  2  0  0  0  0
  5 10  1  0  0  0  0
  5 12  1  0  0  0  0
  5 42  1  0  0  0  0
  6 17  1  0  0  0  0
  6 20  1  0  0  0  0
  6 51  1  0  0  0  0
  7 18  1  0  0  0  0
  7 29  1  0  0  0  0
  7 58  1  0  0  0  0
  8 30  1  0  0  0  0
  8 33  2  0  0  0  0
  9 10  1  0  0  0  0
  9 11  1  0  0  0  0
  9 35  1  0  0  0  0
 10 36  1  0  0  0  0
 10 37  1  0  0  0  0
 11 15  2  0  0  0  0
 11 21  1  0  0  0  0
 12 13  1  0  0  0  0
 12 38  1  0  0  0  0
 12 39  1  0  0  0  0
 13 14  1  0  0  0  0
 13 40  1  0  0  0  0
 13 41  1  0  0  0  0
 14 19  2  0  0  0  0
 14 23  1  0  0  0  0
 15 18  1  0  0  0  0
 16 17  1  0  0  0  0
 16 19  1  0  0  0  0
 16 26  2  0  0  0  0
 17 43  1  0  0  0  0
 17 44  1  0  0  0  0
 18 24  2  0  0  0  0
 19 45  1  0  0  0  0
 20 22  1  0  0  0  0
 20 46  1  0  0  0  0
 20 47  1  0  0  0  0
 21 27  2  0  0  0  0
 21 50  1  0  0  0  0
 22 25  1  0  0  0  0
 22 48  1  0  0  0  0
 22 49  1  0  0  0  0
 23 28  2  0  0  0  0
 23 52  1  0  0  0  0
 24 27  1  0  0  0  0
 25 30  1  0  0  0  0
 25 53  1  0  0  0  0
 25 54  1  0  0  0  0
 26 28  1  0  0  0  0
 26 55  1  0  0  0  0
 27 56  1  0  0  0  0
 28 57  1  0  0  0  0
 30 31  2  0  0  0  0
 31 32  1  0  0  0  0
 31 60  1  0  0  0  0
 32 34  2  0  0  0  0
 32 62  1  0  0  0  0
 33 34  1  0  0  0  0
 33 63  1  0  0  0  0
 34 64  1  0  0  0  0
M  END
> <PUBCHEM_COMPOUND_CID>
24900872

> <PUBCHEM_COMPOUND_CANONICALIZED>
1

> <PUBCHEM_CACTVS_COMPLEXITY>
627

> <PUBCHEM_CACTVS_HBOND_ACCEPTOR>
7

> <PUBCHEM_CACTVS_HBOND_DONOR>
5

> <PUBCHEM_CACTVS_ROTATABLE_BOND>
12

> <PUBCHEM_CACTVS_SUBSKEYS>
AAADceB7sABAAAAAAAAAAAAAAAAAAWAAAAA8YIAAAAAAAFgB0AAAHgQQCAAADBzh3gY8x5LIEgioAzRnVACCgCBxKjAI2LQ/bJgKNuLykZOEcAhk1BHY2Aew4OQOIAACRAAEEQBAAASIAAgiAAAAAAAAAA==

> <PUBCHEM_IUPAC_OPENEYE_NAME>
4-hydroxy-7-[(1R)-1-hydroxy-2-[2-[3-[[3-(2-pyridyl)propylamino]methyl]phenyl]ethylamino]ethyl]-3H-1,3-benzothiazol-2-one

> <PUBCHEM_IUPAC_CAS_NAME>
4-hydroxy-7-[(1R)-1-hydroxy-2-[2-[3-[[3-(2-pyridinyl)propylamino]methyl]phenyl]ethylamino]ethyl]-3H-1,3-benzothiazol-2-one

> <PUBCHEM_IUPAC_NAME_MARKUP>
4-hydroxy-7-[(1<I>R</I>)-1-hydroxy-2-[2-[3-[(3-pyridin-2-ylpropylamino)methyl]phenyl]ethylamino]ethyl]-3<I>H</I>-1,3-benzothiazol-2-one

> <PUBCHEM_IUPAC_NAME>
4-hydroxy-7-[(1R)-1-hydroxy-2-[2-[3-[(3-pyridin-2-ylpropylamino)methyl]phenyl]ethylamino]ethyl]-3H-1,3-benzothiazol-2-one

> <PUBCHEM_IUPAC_SYSTEMATIC_NAME>
4-oxidanyl-7-[(1R)-1-oxidanyl-2-[2-[3-[(3-pyridin-2-ylpropylamino)methyl]phenyl]ethylamino]ethyl]-3H-1,3-benzothiazol-2-one

> <PUBCHEM_IUPAC_TRADITIONAL_NAME>
4-hydroxy-7-[(1R)-1-hydroxy-2-[2-[3-[[3-(2-pyridyl)propylamino]methyl]phenyl]ethylamino]ethyl]-3H-1,3-benzothiazol-2-one

> <PUBCHEM_IUPAC_INCHI>
InChI=1S/C26H30N4O3S/c31-22-10-9-21(25-24(22)30-26(33)34-25)23(32)17-28-14-11-18-5-3-6-19(15-18)16-27-12-4-8-20-7-1-2-13-29-20/h1-3,5-7,9-10,13,15,23,27-28,31-32H,4,8,11-12,14,16-17H2,(H,30,33)/t23-/m0/s1

> <PUBCHEM_IUPAC_INCHIKEY>
IUPSVOSSHSTCNC-QHCPKHFHSA-N

> <PUBCHEM_XLOGP3_AA>
2.6

> <PUBCHEM_EXACT_MASS>
478.20386201

> <PUBCHEM_MOLECULAR_FORMULA>
C26H30N4O3S

> <PUBCHEM_MOLECULAR_WEIGHT>
478.6

> <PUBCHEM_OPENEYE_CAN_SMILES>
C1=CC=NC(=C1)CCCNCC2=CC=CC(=C2)CCNCC(C3=C4C(=C(C=C3)O)NC(=O)S4)O

> <PUBCHEM_OPENEYE_ISO_SMILES>
C1=CC=NC(=C1)CCCNCC2=CC=CC(=C2)CCNC[C@@H](C3=C4C(=C(C=C3)O)NC(=O)S4)O

> <PUBCHEM_CACTVS_TPSA>
132

> <PUBCHEM_MONOISOTOPIC_WEIGHT>
478.20386201

> <PUBCHEM_TOTAL_CHARGE>
0

> <PUBCHEM_HEAVY_ATOM_COUNT>
34

> <PUBCHEM_ATOM_DEF_STEREO_COUNT>
1

> <PUBCHEM_ATOM_UDEF_STEREO_COUNT>
0

> <PUBCHEM_BOND_DEF_STEREO_COUNT>
0

> <PUBCHEM_BOND_UDEF_STEREO_COUNT>
0

> <PUBCHEM_ISOTOPIC_ATOM_COUNT>
0

> <PUBCHEM_COMPONENT_COUNT>
1

> <PUBCHEM_CACTVS_TAUTO_COUNT>
-1

> <PUBCHEM_COORDINATE_TYPE>
1
5
255

> <PUBCHEM_BONDANNOTATIONS>
1  15  8
1  29  8
11  15  8
11  21  8
14  19  8
14  23  8
15  18  8
16  19  8
16  26  8
18  24  8
9  2  6
21  27  8
23  28  8
24  27  8
26  28  8
30  31  8
31  32  8
32  34  8
33  34  8
7  18  8
7  29  8
8  30  8
8  33  8

$$$$
