44627466
  -OEChem-09292322302D

 56 60  0     1  0  0  0  0  0999 V2000
    6.8867   -2.7115    0.0000 S   0  0  0  0  0  0  0  0  0  0  0  0
   13.1576    0.5205    0.0000 F   0  0  0  0  0  0  0  0  0  0  0  0
    3.5388   -0.6237    0.0000 O   0  0  0  0  0  0  0  0  0  0  0  0
    9.8867   -0.9795    0.0000 N   0  0  3  0  0  0  0  0  0  0  0  0
    5.2989   -1.9025    0.0000 N   0  0  0  0  0  0  0  0  0  0  0  0
    5.2989   -3.5205    0.0000 N   0  0  0  0  0  0  0  0  0  0  0  0
    4.3479   -3.2115    0.0000 N   0  0  0  0  0  0  0  0  0  0  0  0
    2.0000   -1.1237    0.0000 N   0  0  0  0  0  0  0  0  0  0  0  0
   11.4255   -0.4795    0.0000 C   0  0  3  0  0  0  0  0  0  0  0  0
   11.4255   -1.4795    0.0000 C   0  0  3  0  0  0  0  0  0  0  0  0
   12.2921   -0.9795    0.0000 C   0  0  0  0  0  0  0  0  0  0  0  0
   10.4745   -0.1704    0.0000 C   0  0  0  0  0  0  0  0  0  0  0  0
   10.4745   -1.7885    0.0000 C   0  0  0  0  0  0  0  0  0  0  0  0
   11.4255    0.5205    0.0000 C   0  0  0  0  0  0  0  0  0  0  0  0
    8.8867   -0.9795    0.0000 C   0  0  0  0  0  0  0  0  0  0  0  0
   12.2916    1.0205    0.0000 C   0  0  0  0  0  0  0  0  0  0  0  0
   10.5595    1.0205    0.0000 C   0  0  0  0  0  0  0  0  0  0  0  0
    8.3867   -1.8455    0.0000 C   0  0  0  0  0  0  0  0  0  0  0  0
   12.2916    2.0205    0.0000 C   0  0  0  0  0  0  0  0  0  0  0  0
   10.5595    2.0205    0.0000 C   0  0  0  0  0  0  0  0  0  0  0  0
   11.4255    2.5205    0.0000 C   0  0  0  0  0  0  0  0  0  0  0  0
    7.3867   -1.8455    0.0000 C   0  0  0  0  0  0  0  0  0  0  0  0
   11.4255    3.5205    0.0000 C   0  0  0  0  0  0  0  0  0  0  0  0
    5.8867   -2.7115    0.0000 C   0  0  0  0  0  0  0  0  0  0  0  0
    4.3479   -2.2115    0.0000 C   0  0  0  0  0  0  0  0  0  0  0  0
    5.6079   -0.9514    0.0000 C   0  0  0  0  0  0  0  0  0  0  0  0
    3.5388   -1.6237    0.0000 C   0  0  0  0  0  0  0  0  0  0  0  0
    2.5878   -1.9328    0.0000 C   0  0  0  0  0  0  0  0  0  0  0  0
    2.2788   -2.8838    0.0000 C   0  0  0  0  0  0  0  0  0  0  0  0
    2.5878   -0.3147    0.0000 C   0  0  0  0  0  0  0  0  0  0  0  0
   11.6776   -2.0459    0.0000 H   0  0  0  0  0  0  0  0  0  0  0  0
   12.6906   -1.4544    0.0000 H   0  0  0  0  0  0  0  0  0  0  0  0
   12.6906   -0.5045    0.0000 H   0  0  0  0  0  0  0  0  0  0  0  0
   10.7267    0.3959    0.0000 H   0  0  0  0  0  0  0  0  0  0  0  0
    9.9376    0.1396    0.0000 H   0  0  0  0  0  0  0  0  0  0  0  0
    9.9376   -2.0985    0.0000 H   0  0  0  0  0  0  0  0  0  0  0  0
   10.7267   -2.3549    0.0000 H   0  0  0  0  0  0  0  0  0  0  0  0
    8.9944   -0.3689    0.0000 H   0  0  0  0  0  0  0  0  0  0  0  0
    8.3041   -0.7674    0.0000 H   0  0  0  0  0  0  0  0  0  0  0  0
   10.0226    0.7105    0.0000 H   0  0  0  0  0  0  0  0  0  0  0  0
    8.2790   -2.4561    0.0000 H   0  0  0  0  0  0  0  0  0  0  0  0
    8.9693   -2.0575    0.0000 H   0  0  0  0  0  0  0  0  0  0  0  0
   12.8285    2.3305    0.0000 H   0  0  0  0  0  0  0  0  0  0  0  0
   10.0226    2.3305    0.0000 H   0  0  0  0  0  0  0  0  0  0  0  0
    7.4944   -1.2349    0.0000 H   0  0  0  0  0  0  0  0  0  0  0  0
    6.8041   -1.6334    0.0000 H   0  0  0  0  0  0  0  0  0  0  0  0
   12.0455    3.5205    0.0000 H   0  0  0  0  0  0  0  0  0  0  0  0
   11.4255    4.1405    0.0000 H   0  0  0  0  0  0  0  0  0  0  0  0
   10.8055    3.5205    0.0000 H   0  0  0  0  0  0  0  0  0  0  0  0
    6.1976   -1.1430    0.0000 H   0  0  0  0  0  0  0  0  0  0  0  0
    5.7995   -0.3618    0.0000 H   0  0  0  0  0  0  0  0  0  0  0  0
    5.0183   -0.7599    0.0000 H   0  0  0  0  0  0  0  0  0  0  0  0
    1.6891   -2.6922    0.0000 H   0  0  0  0  0  0  0  0  0  0  0  0
    2.0872   -3.4735    0.0000 H   0  0  0  0  0  0  0  0  0  0  0  0
    2.8684   -3.0754    0.0000 H   0  0  0  0  0  0  0  0  0  0  0  0
    2.3962    0.2749    0.0000 H   0  0  0  0  0  0  0  0  0  0  0  0
  1 22  1  0  0  0  0
  1 24  1  0  0  0  0
  2 16  1  0  0  0  0
  3 27  1  0  0  0  0
  3 30  1  0  0  0  0
  4 12  1  0  0  0  0
  4 13  1  0  0  0  0
  4 15  1  0  0  0  0
  5 24  1  0  0  0  0
  5 25  1  0  0  0  0
  5 26  1  0  0  0  0
  6  7  1  0  0  0  0
  6 24  2  0  0  0  0
  7 25  2  0  0  0  0
  8 28  1  0  0  0  0
  8 30  2  0  0  0  0
  9 10  1  0  0  0  0
  9 11  1  0  0  0  0
  9 12  1  0  0  0  0
  9 14  1  0  0  0  0
 10 11  1  0  0  0  0
 10 13  1  0  0  0  0
 10 31  1  0  0  0  0
 11 32  1  0  0  0  0
 11 33  1  0  0  0  0
 12 34  1  0  0  0  0
 12 35  1  0  0  0  0
 13 36  1  0  0  0  0
 13 37  1  0  0  0  0
 14 16  2  0  0  0  0
 14 17  1  0  0  0  0
 15 18  1  0  0  0  0
 15 38  1  0  0  0  0
 15 39  1  0  0  0  0
 16 19  1  0  0  0  0
 17 20  2  0  0  0  0
 17 40  1  0  0  0  0
 18 22  1  0  0  0  0
 18 41  1  0  0  0  0
 18 42  1  0  0  0  0
 19 21  2  0  0  0  0
 19 43  1  0  0  0  0
 20 21  1  0  0  0  0
 20 44  1  0  0  0  0
 21 23  1  0  0  0  0
 22 45  1  0  0  0  0
 22 46  1  0  0  0  0
 23 47  1  0  0  0  0
 23 48  1  0  0  0  0
 23 49  1  0  0  0  0
 25 27  1  0  0  0  0
 26 50  1  0  0  0  0
 26 51  1  0  0  0  0
 26 52  1  0  0  0  0
 27 28  2  0  0  0  0
 28 29  1  0  0  0  0
 29 53  1  0  0  0  0
 29 54  1  0  0  0  0
 29 55  1  0  0  0  0
 30 56  1  0  0  0  0
M  END
> <PUBCHEM_COMPOUND_CID>
44627466

> <PUBCHEM_COMPOUND_CANONICALIZED>
1

> <PUBCHEM_CACTVS_COMPLEXITY>
616

> <PUBCHEM_CACTVS_HBOND_ACCEPTOR>
7

> <PUBCHEM_CACTVS_HBOND_DONOR>
0

> <PUBCHEM_CACTVS_ROTATABLE_BOND>
7

> <PUBCHEM_CACTVS_SUBSKEYS>
AAADceB7oQBAAAAAAAAAAAAAGAAAAWLFgAA8QAAAAAAAAAAB8AAAHwQIAAAADwzF3w63lJcMFEiqA6Zz9ASS2Ct7YLAd2CG9RJiOKCLk2TGNIChgjALYiAcQgMAPwAAAAAAAAACAAAAAAAAAAAAAAAAAAA==

> <PUBCHEM_IUPAC_OPENEYE_NAME>
5-[5-[3-[1-(2-fluoro-4-methyl-phenyl)-3-azabicyclo[3.1.0]hexan-3-yl]propylsulfanyl]-4-methyl-1,2,4-triazol-3-yl]-4-methyl-oxazole

> <PUBCHEM_IUPAC_CAS_NAME>
5-[5-[3-[1-(2-fluoro-4-methylphenyl)-3-azabicyclo[3.1.0]hexan-3-yl]propylthio]-4-methyl-1,2,4-triazol-3-yl]-4-methyloxazole

> <PUBCHEM_IUPAC_NAME_MARKUP>
5-[5-[3-[1-(2-fluoro-4-methylphenyl)-3-azabicyclo[3.1.0]hexan-3-yl]propylsulfanyl]-4-methyl-1,2,4-triazol-3-yl]-4-methyl-1,3-oxazole

> <PUBCHEM_IUPAC_NAME>
5-[5-[3-[1-(2-fluoro-4-methylphenyl)-3-azabicyclo[3.1.0]hexan-3-yl]propylsulfanyl]-4-methyl-1,2,4-triazol-3-yl]-4-methyl-1,3-oxazole

> <PUBCHEM_IUPAC_SYSTEMATIC_NAME>
5-[5-[3-[1-(2-fluoranyl-4-methyl-phenyl)-3-azabicyclo[3.1.0]hexan-3-yl]propylsulfanyl]-4-methyl-1,2,4-triazol-3-yl]-4-methyl-1,3-oxazole

> <PUBCHEM_IUPAC_TRADITIONAL_NAME>
5-[5-[3-[1-(2-fluoro-4-methyl-phenyl)-3-azabicyclo[3.1.0]hexan-3-yl]propylthio]-4-methyl-1,2,4-triazol-3-yl]-4-methyl-oxazole

> <PUBCHEM_IUPAC_INCHI>
InChI=1S/C22H26FN5OS/c1-14-5-6-17(18(23)9-14)22-10-16(22)11-28(12-22)7-4-8-30-21-26-25-20(27(21)3)19-15(2)24-13-29-19/h5-6,9,13,16H,4,7-8,10-12H2,1-3H3

> <PUBCHEM_IUPAC_INCHIKEY>
QVNYQMPOJPXEFQ-UHFFFAOYSA-N

> <PUBCHEM_XLOGP3_AA>
3.6

> <PUBCHEM_EXACT_MASS>
427.18420981

> <PUBCHEM_MOLECULAR_FORMULA>
C22H26FN5OS

> <PUBCHEM_MOLECULAR_WEIGHT>
427.5

> <PUBCHEM_OPENEYE_CAN_SMILES>
CC1=CC(=C(C=C1)C23CC2CN(C3)CCCSC4=NN=C(N4C)C5=C(N=CO5)C)F

> <PUBCHEM_OPENEYE_ISO_SMILES>
CC1=CC(=C(C=C1)C23CC2CN(C3)CCCSC4=NN=C(N4C)C5=C(N=CO5)C)F

> <PUBCHEM_CACTVS_TPSA>
85.3

> <PUBCHEM_MONOISOTOPIC_WEIGHT>
427.18420981

> <PUBCHEM_TOTAL_CHARGE>
0

> <PUBCHEM_HEAVY_ATOM_COUNT>
30

> <PUBCHEM_ATOM_DEF_STEREO_COUNT>
0

> <PUBCHEM_ATOM_UDEF_STEREO_COUNT>
2

> <PUBCHEM_BOND_DEF_STEREO_COUNT>
0

> <PUBCHEM_BOND_UDEF_STEREO_COUNT>
0

> <PUBCHEM_ISOTOPIC_ATOM_COUNT>
0

> <PUBCHEM_COMPONENT_COUNT>
1

> <PUBCHEM_CACTVS_TAUTO_COUNT>
-1

> <PUBCHEM_COORDINATE_TYPE>
1
5
255

> <PUBCHEM_BONDANNOTATIONS>
10  11  3
14  16  8
14  17  8
16  19  8
17  20  8
19  21  8
20  21  8
27  28  8
3  27  8
3  30  8
5  24  8
5  25  8
6  24  8
6  7  8
7  25  8
8  28  8
8  30  8
9  14  3

$$$$
