132955
  -OEChem-09292322002D

 34 36  0     1  0  0  0  0  0999 V2000
    4.8714    3.1228    0.0000 O   0  0  0  0  0  0  0  0  0  0  0  0
    4.6660    1.3772    0.0000 N   0  0  0  0  0  0  0  0  0  0  0  0
    6.3981   -0.6228    0.0000 N   0  0  0  0  0  0  0  0  0  0  0  0
    3.3073    2.3211    0.0000 N   0  0  0  0  0  0  0  0  0  0  0  0
    5.5321   -0.1228    0.0000 C   0  0  1  0  0  0  0  0  0  0  0  0
    5.5321    0.8772    0.0000 C   0  0  0  0  0  0  0  0  0  0  0  0
    4.6660   -0.6228    0.0000 C   0  0  0  0  0  0  0  0  0  0  0  0
    3.8000    0.8772    0.0000 C   0  0  0  0  0  0  0  0  0  0  0  0
    3.8000   -0.1228    0.0000 C   0  0  0  0  0  0  0  0  0  0  0  0
    2.9061    1.4119    0.0000 C   0  0  0  0  0  0  0  0  0  0  0  0
    4.3009    2.3015    0.0000 C   0  0  0  0  0  0  0  0  0  0  0  0
    6.3981   -1.6228    0.0000 C   0  0  0  0  0  0  0  0  0  0  0  0
    2.9061   -0.6575    0.0000 C   0  0  0  0  0  0  0  0  0  0  0  0
    2.0000    0.8980    0.0000 C   0  0  0  0  0  0  0  0  0  0  0  0
    2.0000   -0.1436    0.0000 C   0  0  0  0  0  0  0  0  0  0  0  0
    7.2641   -2.1228    0.0000 C   0  0  0  0  0  0  0  0  0  0  0  0
    7.2641   -3.1228    0.0000 C   0  0  0  0  0  0  0  0  0  0  0  0
    5.5321   -0.7428    0.0000 H   0  0  0  0  0  0  0  0  0  0  0  0
    6.1426    0.7695    0.0000 H   0  0  0  0  0  0  0  0  0  0  0  0
    5.7441    1.4598    0.0000 H   0  0  0  0  0  0  0  0  0  0  0  0
    4.2675   -1.0978    0.0000 H   0  0  0  0  0  0  0  0  0  0  0  0
    5.0646   -1.0978    0.0000 H   0  0  0  0  0  0  0  0  0  0  0  0
    6.9350   -0.3128    0.0000 H   0  0  0  0  0  0  0  0  0  0  0  0
    5.7875   -1.5151    0.0000 H   0  0  0  0  0  0  0  0  0  0  0  0
    6.1860   -2.2054    0.0000 H   0  0  0  0  0  0  0  0  0  0  0  0
    2.9132   -1.2774    0.0000 H   0  0  0  0  0  0  0  0  0  0  0  0
    2.9739    2.8438    0.0000 H   0  0  0  0  0  0  0  0  0  0  0  0
    1.4643    1.2101    0.0000 H   0  0  0  0  0  0  0  0  0  0  0  0
    1.4643   -0.4557    0.0000 H   0  0  0  0  0  0  0  0  0  0  0  0
    7.8747   -2.2305    0.0000 H   0  0  0  0  0  0  0  0  0  0  0  0
    7.4762   -1.5402    0.0000 H   0  0  0  0  0  0  0  0  0  0  0  0
    6.6441   -3.1228    0.0000 H   0  0  0  0  0  0  0  0  0  0  0  0
    7.2641   -3.7428    0.0000 H   0  0  0  0  0  0  0  0  0  0  0  0
    7.8841   -3.1228    0.0000 H   0  0  0  0  0  0  0  0  0  0  0  0
  1 11  2  0  0  0  0
  2  6  1  0  0  0  0
  2  8  1  0  0  0  0
  2 11  1  0  0  0  0
  5  3  1  6  0  0  0
  3 12  1  0  0  0  0
  3 23  1  0  0  0  0
  4 10  1  0  0  0  0
  4 11  1  0  0  0  0
  4 27  1  0  0  0  0
  5  6  1  0  0  0  0
  5  7  1  0  0  0  0
  5 18  1  0  0  0  0
  6 19  1  0  0  0  0
  6 20  1  0  0  0  0
  7  9  1  0  0  0  0
  7 21  1  0  0  0  0
  7 22  1  0  0  0  0
  8  9  2  0  0  0  0
  8 10  1  0  0  0  0
  9 13  1  0  0  0  0
 10 14  2  0  0  0  0
 12 16  1  0  0  0  0
 12 24  1  0  0  0  0
 12 25  1  0  0  0  0
 13 15  2  0  0  0  0
 13 26  1  0  0  0  0
 14 15  1  0  0  0  0
 14 28  1  0  0  0  0
 15 29  1  0  0  0  0
 16 17  1  0  0  0  0
 16 30  1  0  0  0  0
 16 31  1  0  0  0  0
 17 32  1  0  0  0  0
 17 33  1  0  0  0  0
 17 34  1  0  0  0  0
M  END
> <PUBCHEM_COMPOUND_CID>
132955

> <PUBCHEM_COMPOUND_CANONICALIZED>
1

> <PUBCHEM_CACTVS_COMPLEXITY>
307

> <PUBCHEM_CACTVS_HBOND_ACCEPTOR>
2

> <PUBCHEM_CACTVS_HBOND_DONOR>
2

> <PUBCHEM_CACTVS_ROTATABLE_BOND>
3

> <PUBCHEM_CACTVS_SUBSKEYS>
AAADceBzIAAAAAAAAAAAAAAAAAAAAWAAAAA8QAAAAAAAAFixAAAAHgAQAAAADCjBGAQzwIPAAACIAiRCUACCAAAhAgAIiIAIdIiIYCLAkZGUIAholgLIyCcQgIAOAAAAQAACACAAAACAAAQAQAAAAAAAAA==

> <PUBCHEM_IUPAC_OPENEYE_NAME>
(10R)-10-(propylamino)-1,3-diazatricyclo[6.3.1.04,12]dodeca-4,6,8(12)-trien-2-one

> <PUBCHEM_IUPAC_CAS_NAME>
(10R)-10-(propylamino)-1,3-diazatricyclo[6.3.1.04,12]dodeca-4,6,8(12)-trien-2-one

> <PUBCHEM_IUPAC_NAME_MARKUP>
(10<I>R</I>)-10-(propylamino)-1,3-diazatricyclo[6.3.1.0<SUP>4,12</SUP>]dodeca-4,6,8(12)-trien-2-one

> <PUBCHEM_IUPAC_NAME>
(10R)-10-(propylamino)-1,3-diazatricyclo[6.3.1.04,12]dodeca-4,6,8(12)-trien-2-one

> <PUBCHEM_IUPAC_SYSTEMATIC_NAME>
(10R)-10-(propylamino)-1,3-diazatricyclo[6.3.1.04,12]dodeca-4,6,8(12)-trien-2-one

> <PUBCHEM_IUPAC_TRADITIONAL_NAME>
(10R)-10-(propylamino)-1,3-diazatricyclo[6.3.1.04,12]dodeca-4,6,8(12)-trien-2-one

> <PUBCHEM_IUPAC_INCHI>
InChI=1S/C13H17N3O/c1-2-6-14-10-7-9-4-3-5-11-12(9)16(8-10)13(17)15-11/h3-5,10,14H,2,6-8H2,1H3,(H,15,17)/t10-/m1/s1

> <PUBCHEM_IUPAC_INCHIKEY>
XTWUNLMHXDDOMD-SNVBAGLBSA-N

> <PUBCHEM_XLOGP3_AA>
1.3

> <PUBCHEM_EXACT_MASS>
231.137162174

> <PUBCHEM_MOLECULAR_FORMULA>
C13H17N3O

> <PUBCHEM_MOLECULAR_WEIGHT>
231.29

> <PUBCHEM_OPENEYE_CAN_SMILES>
CCCNC1CC2=C3C(=CC=C2)NC(=O)N3C1

> <PUBCHEM_OPENEYE_ISO_SMILES>
CCCN[C@@H]1CC2=C3C(=CC=C2)NC(=O)N3C1

> <PUBCHEM_CACTVS_TPSA>
44.4

> <PUBCHEM_MONOISOTOPIC_WEIGHT>
231.137162174

> <PUBCHEM_TOTAL_CHARGE>
0

> <PUBCHEM_HEAVY_ATOM_COUNT>
17

> <PUBCHEM_ATOM_DEF_STEREO_COUNT>
1

> <PUBCHEM_ATOM_UDEF_STEREO_COUNT>
0

> <PUBCHEM_BOND_DEF_STEREO_COUNT>
0

> <PUBCHEM_BOND_UDEF_STEREO_COUNT>
0

> <PUBCHEM_ISOTOPIC_ATOM_COUNT>
0

> <PUBCHEM_COMPONENT_COUNT>
1

> <PUBCHEM_CACTVS_TAUTO_COUNT>
-1

> <PUBCHEM_COORDINATE_TYPE>
1
5
255

> <PUBCHEM_BONDANNOTATIONS>
10  14  8
13  15  8
14  15  8
2  11  8
2  8  8
5  3  6
4  10  8
4  11  8
8  10  8
8  9  8
9  13  8

$$$$
