155560181
  -OEChem-09292322412D

 61 64  0     0  0  0  0  0  0999 V2000
    5.5211    5.4139    0.0000 S   0  0  0  0  0  0  0  0  0  0  0  0
    4.5981    1.8261    0.0000 O   0  0  0  0  0  0  0  0  0  0  0  0
    5.4641    0.3261    0.0000 O   0  0  0  0  0  0  0  0  0  0  0  0
    8.2981    4.1267    0.0000 O   0  0  0  0  0  0  0  0  0  0  0  0
    2.8660   -2.1739    0.0000 N   0  0  0  0  0  0  0  0  0  0  0  0
    2.8660   -4.1739    0.0000 N   0  0  0  0  0  0  0  0  0  0  0  0
    3.7320    0.3261    0.0000 N   0  0  0  0  0  0  0  0  0  0  0  0
    8.8334    5.7740    0.0000 N   0  0  0  0  0  0  0  0  0  0  0  0
    2.0000   -2.6739    0.0000 C   0  0  0  0  0  0  0  0  0  0  0  0
    3.7320   -2.6739    0.0000 C   0  0  0  0  0  0  0  0  0  0  0  0
    2.0000   -3.6739    0.0000 C   0  0  0  0  0  0  0  0  0  0  0  0
    3.7320   -3.6739    0.0000 C   0  0  0  0  0  0  0  0  0  0  0  0
    2.8660   -1.1739    0.0000 C   0  0  0  0  0  0  0  0  0  0  0  0
    2.8660   -5.1739    0.0000 C   0  0  0  0  0  0  0  0  0  0  0  0
    3.7320   -0.6739    0.0000 C   0  0  0  0  0  0  0  0  0  0  0  0
    2.0000   -5.6739    0.0000 C   0  0  0  0  0  0  0  0  0  0  0  0
    3.7320   -5.6739    0.0000 C   0  0  0  0  0  0  0  0  0  0  0  0
    2.0000   -6.6739    0.0000 C   0  0  0  0  0  0  0  0  0  0  0  0
    3.7320   -6.6739    0.0000 C   0  0  0  0  0  0  0  0  0  0  0  0
    2.8660   -7.1739    0.0000 C   0  0  0  0  0  0  0  0  0  0  0  0
    4.5981    0.8261    0.0000 C   0  0  0  0  0  0  0  0  0  0  0  0
    5.4641    2.3261    0.0000 C   0  0  0  0  0  0  0  0  0  0  0  0
    6.3301    3.8261    0.0000 C   0  0  0  0  0  0  0  0  0  0  0  0
    6.3301    4.8261    0.0000 C   0  0  0  0  0  0  0  0  0  0  0  0
    5.4641    3.3261    0.0000 C   0  0  0  0  0  0  0  0  0  0  0  0
    7.1391    5.4139    0.0000 C   0  0  0  0  0  0  0  0  0  0  0  0
    6.3301    1.8261    0.0000 C   0  0  0  0  0  0  0  0  0  0  0  0
    7.1962    3.3261    0.0000 C   0  0  0  0  0  0  0  0  0  0  0  0
    5.8301    6.3649    0.0000 C   0  0  0  0  0  0  0  0  0  0  0  0
    6.8301    6.3649    0.0000 C   0  0  0  0  0  0  0  0  0  0  0  0
    7.1962    2.3261    0.0000 C   0  0  0  0  0  0  0  0  0  0  0  0
    8.0902    5.1048    0.0000 C   0  0  0  0  0  0  0  0  0  0  0  0
    5.2423    7.1739    0.0000 C   0  0  0  0  0  0  0  0  0  0  0  0
    1.7880   -2.0913    0.0000 H   0  0  0  0  0  0  0  0  0  0  0  0
    1.3894   -2.7816    0.0000 H   0  0  0  0  0  0  0  0  0  0  0  0
    4.3426   -2.7816    0.0000 H   0  0  0  0  0  0  0  0  0  0  0  0
    3.9441   -2.0913    0.0000 H   0  0  0  0  0  0  0  0  0  0  0  0
    1.3894   -3.5663    0.0000 H   0  0  0  0  0  0  0  0  0  0  0  0
    1.7880   -4.2565    0.0000 H   0  0  0  0  0  0  0  0  0  0  0  0
    3.9441   -4.2565    0.0000 H   0  0  0  0  0  0  0  0  0  0  0  0
    4.3426   -3.5663    0.0000 H   0  0  0  0  0  0  0  0  0  0  0  0
    2.6540   -0.5913    0.0000 H   0  0  0  0  0  0  0  0  0  0  0  0
    2.2554   -1.2816    0.0000 H   0  0  0  0  0  0  0  0  0  0  0  0
    3.9441   -1.2565    0.0000 H   0  0  0  0  0  0  0  0  0  0  0  0
    4.3426   -0.5663    0.0000 H   0  0  0  0  0  0  0  0  0  0  0  0
    1.4631   -5.3639    0.0000 H   0  0  0  0  0  0  0  0  0  0  0  0
    4.2690   -5.3639    0.0000 H   0  0  0  0  0  0  0  0  0  0  0  0
    3.1951    0.6361    0.0000 H   0  0  0  0  0  0  0  0  0  0  0  0
    1.4631   -6.9839    0.0000 H   0  0  0  0  0  0  0  0  0  0  0  0
    4.2690   -6.9839    0.0000 H   0  0  0  0  0  0  0  0  0  0  0  0
    2.8660   -7.7939    0.0000 H   0  0  0  0  0  0  0  0  0  0  0  0
    4.9272    3.6361    0.0000 H   0  0  0  0  0  0  0  0  0  0  0  0
    6.3301    1.2061    0.0000 H   0  0  0  0  0  0  0  0  0  0  0  0
    7.7331    3.6361    0.0000 H   0  0  0  0  0  0  0  0  0  0  0  0
    7.1946    6.8665    0.0000 H   0  0  0  0  0  0  0  0  0  0  0  0
    7.7331    2.0161    0.0000 H   0  0  0  0  0  0  0  0  0  0  0  0
    5.7439    7.5384    0.0000 H   0  0  0  0  0  0  0  0  0  0  0  0
    4.8779    7.6755    0.0000 H   0  0  0  0  0  0  0  0  0  0  0  0
    4.7408    6.8095    0.0000 H   0  0  0  0  0  0  0  0  0  0  0  0
    9.4230    5.5824    0.0000 H   0  0  0  0  0  0  0  0  0  0  0  0
    8.7044    6.3804    0.0000 H   0  0  0  0  0  0  0  0  0  0  0  0
  1 24  1  0  0  0  0
  1 29  1  0  0  0  0
  2 21  1  0  0  0  0
  2 22  1  0  0  0  0
  3 21  2  0  0  0  0
  4 32  2  0  0  0  0
  5  9  1  0  0  0  0
  5 10  1  0  0  0  0
  5 13  1  0  0  0  0
  6 11  1  0  0  0  0
  6 12  1  0  0  0  0
  6 14  1  0  0  0  0
  7 15  1  0  0  0  0
  7 21  1  0  0  0  0
  7 48  1  0  0  0  0
  8 32  1  0  0  0  0
  8 60  1  0  0  0  0
  8 61  1  0  0  0  0
  9 11  1  0  0  0  0
  9 34  1  0  0  0  0
  9 35  1  0  0  0  0
 10 12  1  0  0  0  0
 10 36  1  0  0  0  0
 10 37  1  0  0  0  0
 11 38  1  0  0  0  0
 11 39  1  0  0  0  0
 12 40  1  0  0  0  0
 12 41  1  0  0  0  0
 13 15  1  0  0  0  0
 13 42  1  0  0  0  0
 13 43  1  0  0  0  0
 14 16  2  0  0  0  0
 14 17  1  0  0  0  0
 15 44  1  0  0  0  0
 15 45  1  0  0  0  0
 16 18  1  0  0  0  0
 16 46  1  0  0  0  0
 17 19  2  0  0  0  0
 17 47  1  0  0  0  0
 18 20  2  0  0  0  0
 18 49  1  0  0  0  0
 19 20  1  0  0  0  0
 19 50  1  0  0  0  0
 20 51  1  0  0  0  0
 22 25  1  0  0  0  0
 22 27  2  0  0  0  0
 23 24  1  0  0  0  0
 23 25  2  0  0  0  0
 23 28  1  0  0  0  0
 24 26  2  0  0  0  0
 25 52  1  0  0  0  0
 26 30  1  0  0  0  0
 26 32  1  0  0  0  0
 27 31  1  0  0  0  0
 27 53  1  0  0  0  0
 28 31  2  0  0  0  0
 28 54  1  0  0  0  0
 29 30  2  0  0  0  0
 29 33  1  0  0  0  0
 30 55  1  0  0  0  0
 31 56  1  0  0  0  0
 33 57  1  0  0  0  0
 33 58  1  0  0  0  0
 33 59  1  0  0  0  0
M  END
> <PUBCHEM_COMPOUND_CID>
155560181

> <PUBCHEM_COMPOUND_CANONICALIZED>
1

> <PUBCHEM_CACTVS_COMPLEXITY>
652

> <PUBCHEM_CACTVS_HBOND_ACCEPTOR>
6

> <PUBCHEM_CACTVS_HBOND_DONOR>
2

> <PUBCHEM_CACTVS_ROTATABLE_BOND>
8

> <PUBCHEM_CACTVS_SUBSKEYS>
AAADceB7sABAAAAAAAAAAAAAAAAAASAAAAA8YIAAAAAAAAAB0AAAHgQQAAAADAzB2AQyz4PABAiMAiVSWACDCIAlKhBIiJkObMkMZjLktZucMyhk1hHo6YeYyPCOAAABAAAAAAAAAAIAAAAAAAAAAAAAAA==

> <PUBCHEM_IUPAC_OPENEYE_NAME>
[3-(3-carbamoyl-5-methyl-2-thienyl)phenyl] N-[2-(4-phenylpiperazin-1-yl)ethyl]carbamate

> <PUBCHEM_IUPAC_CAS_NAME>
N-[2-(4-phenyl-1-piperazinyl)ethyl]carbamic acid [3-(3-carbamoyl-5-methyl-2-thiophenyl)phenyl] ester

> <PUBCHEM_IUPAC_NAME_MARKUP>
[3-(3-carbamoyl-5-methylthiophen-2-yl)phenyl] <I>N</I>-[2-(4-phenylpiperazin-1-yl)ethyl]carbamate

> <PUBCHEM_IUPAC_NAME>
[3-(3-carbamoyl-5-methylthiophen-2-yl)phenyl] N-[2-(4-phenylpiperazin-1-yl)ethyl]carbamate

> <PUBCHEM_IUPAC_SYSTEMATIC_NAME>
[3-(3-aminocarbonyl-5-methyl-thiophen-2-yl)phenyl] N-[2-(4-phenylpiperazin-1-yl)ethyl]carbamate

> <PUBCHEM_IUPAC_TRADITIONAL_NAME>
N-[2-(4-phenylpiperazino)ethyl]carbamic acid [3-(3-carbamoyl-5-methyl-2-thienyl)phenyl] ester

> <PUBCHEM_IUPAC_INCHI>
InChI=1S/C25H28N4O3S/c1-18-16-22(24(26)30)23(33-18)19-6-5-9-21(17-19)32-25(31)27-10-11-28-12-14-29(15-13-28)20-7-3-2-4-8-20/h2-9,16-17H,10-15H2,1H3,(H2,26,30)(H,27,31)

> <PUBCHEM_IUPAC_INCHIKEY>
COGCORROFSOJTQ-UHFFFAOYSA-N

> <PUBCHEM_XLOGP3_AA>
3.8

> <PUBCHEM_EXACT_MASS>
464.18821194

> <PUBCHEM_MOLECULAR_FORMULA>
C25H28N4O3S

> <PUBCHEM_MOLECULAR_WEIGHT>
464.6

> <PUBCHEM_OPENEYE_CAN_SMILES>
CC1=CC(=C(S1)C2=CC(=CC=C2)OC(=O)NCCN3CCN(CC3)C4=CC=CC=C4)C(=O)N

> <PUBCHEM_OPENEYE_ISO_SMILES>
CC1=CC(=C(S1)C2=CC(=CC=C2)OC(=O)NCCN3CCN(CC3)C4=CC=CC=C4)C(=O)N

> <PUBCHEM_CACTVS_TPSA>
116

> <PUBCHEM_MONOISOTOPIC_WEIGHT>
464.18821194

> <PUBCHEM_TOTAL_CHARGE>
0

> <PUBCHEM_HEAVY_ATOM_COUNT>
33

> <PUBCHEM_ATOM_DEF_STEREO_COUNT>
0

> <PUBCHEM_ATOM_UDEF_STEREO_COUNT>
0

> <PUBCHEM_BOND_DEF_STEREO_COUNT>
0

> <PUBCHEM_BOND_UDEF_STEREO_COUNT>
0

> <PUBCHEM_ISOTOPIC_ATOM_COUNT>
0

> <PUBCHEM_COMPONENT_COUNT>
1

> <PUBCHEM_CACTVS_TAUTO_COUNT>
-1

> <PUBCHEM_COORDINATE_TYPE>
1
5
255

> <PUBCHEM_BONDANNOTATIONS>
1  24  8
1  29  8
14  16  8
14  17  8
16  18  8
17  19  8
18  20  8
19  20  8
22  25  8
22  27  8
23  25  8
23  28  8
24  26  8
26  30  8
27  31  8
28  31  8
29  30  8

$$$$
