118736369
  -OEChem-09292322352D

 75 80  0     0  0  0  0  0  0999 V2000
   12.9224    3.7920    0.0000 O   0  0  0  0  0  0  0  0  0  0  0  0
    3.3823   -3.2343    0.0000 O   0  0  0  0  0  0  0  0  0  0  0  0
    2.6330    0.2254    0.0000 O   0  0  0  0  0  0  0  0  0  0  0  0
   10.6000    1.2216    0.0000 N   0  0  0  0  0  0  0  0  0  0  0  0
   11.0192    3.1772    0.0000 N   0  0  0  0  0  0  0  0  0  0  0  0
    7.1164   -2.6338    0.0000 N   0  0  0  0  0  0  0  0  0  0  0  0
    5.5047   -2.6352    0.0000 N   0  0  0  0  0  0  0  0  0  0  0  0
    6.0047   -1.0964    0.0000 N   0  0  0  0  0  0  0  0  0  0  0  0
    4.3197   -0.3116    0.0000 N   0  0  0  0  0  0  0  0  0  0  0  0
    2.9773   -1.5110    0.0000 N   0  0  0  0  0  0  0  0  0  0  0  0
   11.5516    1.5290    0.0000 C   0  0  0  0  0  0  0  0  0  0  0  0
    9.8580    1.8920    0.0000 C   0  0  0  0  0  0  0  0  0  0  0  0
   10.3904    0.2439    0.0000 C   0  0  0  0  0  0  0  0  0  0  0  0
   11.7612    2.5068    0.0000 C   0  0  0  0  0  0  0  0  0  0  0  0
   10.0676    2.8698    0.0000 C   0  0  0  0  0  0  0  0  0  0  0  0
    9.4388   -0.0635    0.0000 C   0  0  0  0  0  0  0  0  0  0  0  0
    9.2292   -1.0413    0.0000 C   0  0  0  0  0  0  0  0  0  0  0  0
    8.2776   -1.3487    0.0000 C   0  0  0  0  0  0  0  0  0  0  0  0
    8.0680   -2.3265    0.0000 C   0  0  0  0  0  0  0  0  0  0  0  0
    6.3137   -2.0474    0.0000 C   0  0  0  0  0  0  0  0  0  0  0  0
    6.8084   -3.5790    0.0000 C   0  0  0  0  0  0  0  0  0  0  0  0
   11.2288    4.1550    0.0000 C   0  0  0  0  0  0  0  0  0  0  0  0
    4.6957   -2.0474    0.0000 C   0  0  0  0  0  0  0  0  0  0  0  0
    5.8143   -3.5798    0.0000 C   0  0  0  0  0  0  0  0  0  0  0  0
    5.0047   -1.0964    0.0000 C   0  0  0  0  0  0  0  0  0  0  0  0
    7.3962   -4.3880    0.0000 C   0  0  0  0  0  0  0  0  0  0  0  0
    3.6803   -2.2797    0.0000 C   0  0  0  0  0  0  0  0  0  0  0  0
   12.1804    4.4624    0.0000 C   0  0  0  0  0  0  0  0  0  0  0  0
   10.4868    4.8254    0.0000 C   0  0  0  0  0  0  0  0  0  0  0  0
    3.2992   -0.5204    0.0000 C   0  0  0  0  0  0  0  0  0  0  0  0
    6.9895   -5.3016    0.0000 C   0  0  0  0  0  0  0  0  0  0  0  0
    8.3907   -4.2835    0.0000 C   0  0  0  0  0  0  0  0  0  0  0  0
    4.6397    0.6358    0.0000 C   0  0  0  0  0  0  0  0  0  0  0  0
   12.3900    5.4402    0.0000 C   0  0  0  0  0  0  0  0  0  0  0  0
   10.6964    5.8032    0.0000 C   0  0  0  0  0  0  0  0  0  0  0  0
    2.0000   -1.7227    0.0000 C   0  0  0  0  0  0  0  0  0  0  0  0
   11.6480    6.1106    0.0000 C   0  0  0  0  0  0  0  0  0  0  0  0
    7.5772   -6.1106    0.0000 C   0  0  0  0  0  0  0  0  0  0  0  0
    8.9785   -5.0925    0.0000 C   0  0  0  0  0  0  0  0  0  0  0  0
    8.5718   -6.0060    0.0000 C   0  0  0  0  0  0  0  0  0  0  0  0
   11.6368    0.9149    0.0000 H   0  0  0  0  0  0  0  0  0  0  0  0
   12.1712    1.5063    0.0000 H   0  0  0  0  0  0  0  0  0  0  0  0
    9.2836    2.1253    0.0000 H   0  0  0  0  0  0  0  0  0  0  0  0
    9.5286    1.3668    0.0000 H   0  0  0  0  0  0  0  0  0  0  0  0
   10.4756   -0.3703    0.0000 H   0  0  0  0  0  0  0  0  0  0  0  0
   11.0100    0.2211    0.0000 H   0  0  0  0  0  0  0  0  0  0  0  0
   12.3357    2.2736    0.0000 H   0  0  0  0  0  0  0  0  0  0  0  0
   12.0907    3.0320    0.0000 H   0  0  0  0  0  0  0  0  0  0  0  0
    9.9824    3.4840    0.0000 H   0  0  0  0  0  0  0  0  0  0  0  0
    9.4480    2.8926    0.0000 H   0  0  0  0  0  0  0  0  0  0  0  0
    9.3536    0.5506    0.0000 H   0  0  0  0  0  0  0  0  0  0  0  0
    8.8192   -0.0408    0.0000 H   0  0  0  0  0  0  0  0  0  0  0  0
    9.3144   -1.6554    0.0000 H   0  0  0  0  0  0  0  0  0  0  0  0
    9.8488   -1.0640    0.0000 H   0  0  0  0  0  0  0  0  0  0  0  0
    8.1924   -0.7346    0.0000 H   0  0  0  0  0  0  0  0  0  0  0  0
    7.6580   -1.3260    0.0000 H   0  0  0  0  0  0  0  0  0  0  0  0
    8.1532   -2.9406    0.0000 H   0  0  0  0  0  0  0  0  0  0  0  0
    8.6876   -2.3492    0.0000 H   0  0  0  0  0  0  0  0  0  0  0  0
    5.4508   -4.0821    0.0000 H   0  0  0  0  0  0  0  0  0  0  0  0
    9.8968    4.6348    0.0000 H   0  0  0  0  0  0  0  0  0  0  0  0
    6.3729   -5.3664    0.0000 H   0  0  0  0  0  0  0  0  0  0  0  0
    8.6429   -3.7171    0.0000 H   0  0  0  0  0  0  0  0  0  0  0  0
    5.2271    0.4374    0.0000 H   0  0  0  0  0  0  0  0  0  0  0  0
    4.8381    1.2232    0.0000 H   0  0  0  0  0  0  0  0  0  0  0  0
    4.0523    0.8342    0.0000 H   0  0  0  0  0  0  0  0  0  0  0  0
   12.9800    5.6307    0.0000 H   0  0  0  0  0  0  0  0  0  0  0  0
   10.2364    6.2189    0.0000 H   0  0  0  0  0  0  0  0  0  0  0  0
    1.8688   -1.1167    0.0000 H   0  0  0  0  0  0  0  0  0  0  0  0
    1.3940   -1.8539    0.0000 H   0  0  0  0  0  0  0  0  0  0  0  0
    2.1312   -2.3286    0.0000 H   0  0  0  0  0  0  0  0  0  0  0  0
   11.7780    6.7168    0.0000 H   0  0  0  0  0  0  0  0  0  0  0  0
    7.3251   -6.6770    0.0000 H   0  0  0  0  0  0  0  0  0  0  0  0
    9.5951   -5.0277    0.0000 H   0  0  0  0  0  0  0  0  0  0  0  0
   13.5124    3.9825    0.0000 H   0  0  0  0  0  0  0  0  0  0  0  0
    8.9362   -6.5076    0.0000 H   0  0  0  0  0  0  0  0  0  0  0  0
  1 28  1  0  0  0  0
  1 74  1  0  0  0  0
  2 27  2  0  0  0  0
  3 30  2  0  0  0  0
  4 11  1  0  0  0  0
  4 12  1  0  0  0  0
  4 13  1  0  0  0  0
  5 14  1  0  0  0  0
  5 15  1  0  0  0  0
  5 22  1  0  0  0  0
  6 19  1  0  0  0  0
  6 20  1  0  0  0  0
  6 21  1  0  0  0  0
  7 20  1  0  0  0  0
  7 23  1  0  0  0  0
  7 24  1  0  0  0  0
  8 20  2  0  0  0  0
  8 25  1  0  0  0  0
  9 25  1  0  0  0  0
  9 30  1  0  0  0  0
  9 33  1  0  0  0  0
 10 27  1  0  0  0  0
 10 30  1  0  0  0  0
 10 36  1  0  0  0  0
 11 14  1  0  0  0  0
 11 41  1  0  0  0  0
 11 42  1  0  0  0  0
 12 15  1  0  0  0  0
 12 43  1  0  0  0  0
 12 44  1  0  0  0  0
 13 16  1  0  0  0  0
 13 45  1  0  0  0  0
 13 46  1  0  0  0  0
 14 47  1  0  0  0  0
 14 48  1  0  0  0  0
 15 49  1  0  0  0  0
 15 50  1  0  0  0  0
 16 17  1  0  0  0  0
 16 51  1  0  0  0  0
 16 52  1  0  0  0  0
 17 18  1  0  0  0  0
 17 53  1  0  0  0  0
 17 54  1  0  0  0  0
 18 19  1  0  0  0  0
 18 55  1  0  0  0  0
 18 56  1  0  0  0  0
 19 57  1  0  0  0  0
 19 58  1  0  0  0  0
 21 24  2  0  0  0  0
 21 26  1  0  0  0  0
 22 28  1  0  0  0  0
 22 29  2  0  0  0  0
 23 25  2  0  0  0  0
 23 27  1  0  0  0  0
 24 59  1  0  0  0  0
 26 31  2  0  0  0  0
 26 32  1  0  0  0  0
 28 34  2  0  0  0  0
 29 35  1  0  0  0  0
 29 60  1  0  0  0  0
 31 38  1  0  0  0  0
 31 61  1  0  0  0  0
 32 39  2  0  0  0  0
 32 62  1  0  0  0  0
 33 63  1  0  0  0  0
 33 64  1  0  0  0  0
 33 65  1  0  0  0  0
 34 37  1  0  0  0  0
 34 66  1  0  0  0  0
 35 37  2  0  0  0  0
 35 67  1  0  0  0  0
 36 68  1  0  0  0  0
 36 69  1  0  0  0  0
 36 70  1  0  0  0  0
 37 71  1  0  0  0  0
 38 40  2  0  0  0  0
 38 72  1  0  0  0  0
 39 40  1  0  0  0  0
 39 73  1  0  0  0  0
 40 75  1  0  0  0  0
M  END
> <PUBCHEM_COMPOUND_CID>
118736369

> <PUBCHEM_COMPOUND_CANONICALIZED>
1

> <PUBCHEM_CACTVS_COMPLEXITY>
893

> <PUBCHEM_CACTVS_HBOND_ACCEPTOR>
6

> <PUBCHEM_CACTVS_HBOND_DONOR>
1

> <PUBCHEM_CACTVS_ROTATABLE_BOND>
8

> <PUBCHEM_CACTVS_SUBSKEYS>
AAADcfB7sAAAAAAAAAAAAAAAAAAAAWLAAAA8eIEAAAAWAFgB9AAAHgAACAAADAzBngQ/9pcMGgCoAzd3dACCgC03MqAJ2CG/fNiKburS2bOUcIhsxzPY2GeQwIAOAAAAAAAAEAAAAAAAAAAgAAAAAAAAAA==

> <PUBCHEM_IUPAC_OPENEYE_NAME>
6-[5-[4-(2-hydroxyphenyl)piperazin-1-yl]pentyl]-2,4-dimethyl-7-phenyl-purino[7,8-a]imidazole-1,3-dione

> <PUBCHEM_IUPAC_CAS_NAME>
6-[5-[4-(2-hydroxyphenyl)-1-piperazinyl]pentyl]-2,4-dimethyl-7-phenylpurino[7,8-a]imidazole-1,3-dione

> <PUBCHEM_IUPAC_NAME_MARKUP>
6-[5-[4-(2-hydroxyphenyl)piperazin-1-yl]pentyl]-2,4-dimethyl-7-phenylpurino[7,8-a]imidazole-1,3-dione

> <PUBCHEM_IUPAC_NAME>
6-[5-[4-(2-hydroxyphenyl)piperazin-1-yl]pentyl]-2,4-dimethyl-7-phenylpurino[7,8-a]imidazole-1,3-dione

> <PUBCHEM_IUPAC_SYSTEMATIC_NAME>
6-[5-[4-(2-hydroxyphenyl)piperazin-1-yl]pentyl]-2,4-dimethyl-7-phenyl-purino[7,8-a]imidazole-1,3-dione

> <PUBCHEM_IUPAC_TRADITIONAL_NAME>
6-[5-[4-(2-hydroxyphenyl)piperazino]pentyl]-2,4-dimethyl-7-phenyl-purin[7,8-a]imidazole-1,3-quinone

> <PUBCHEM_IUPAC_INCHI>
InChI=1S/C30H35N7O3/c1-32-27-26(28(39)33(2)30(32)40)37-21-24(22-11-5-3-6-12-22)36(29(37)31-27)16-10-4-9-15-34-17-19-35(20-18-34)23-13-7-8-14-25(23)38/h3,5-8,11-14,21,38H,4,9-10,15-20H2,1-2H3

> <PUBCHEM_IUPAC_INCHIKEY>
QWTRQKKHBPRIJR-UHFFFAOYSA-N

> <PUBCHEM_XLOGP3_AA>
4.4

> <PUBCHEM_EXACT_MASS>
541.28013800

> <PUBCHEM_MOLECULAR_FORMULA>
C30H35N7O3

> <PUBCHEM_MOLECULAR_WEIGHT>
541.6

> <PUBCHEM_OPENEYE_CAN_SMILES>
CN1C2=C(C(=O)N(C1=O)C)N3C=C(N(C3=N2)CCCCCN4CCN(CC4)C5=CC=CC=C5O)C6=CC=CC=C6

> <PUBCHEM_OPENEYE_ISO_SMILES>
CN1C2=C(C(=O)N(C1=O)C)N3C=C(N(C3=N2)CCCCCN4CCN(CC4)C5=CC=CC=C5O)C6=CC=CC=C6

> <PUBCHEM_CACTVS_TPSA>
89.6

> <PUBCHEM_MONOISOTOPIC_WEIGHT>
541.28013800

> <PUBCHEM_TOTAL_CHARGE>
0

> <PUBCHEM_HEAVY_ATOM_COUNT>
40

> <PUBCHEM_ATOM_DEF_STEREO_COUNT>
0

> <PUBCHEM_ATOM_UDEF_STEREO_COUNT>
0

> <PUBCHEM_BOND_DEF_STEREO_COUNT>
0

> <PUBCHEM_BOND_UDEF_STEREO_COUNT>
0

> <PUBCHEM_ISOTOPIC_ATOM_COUNT>
0

> <PUBCHEM_COMPONENT_COUNT>
1

> <PUBCHEM_CACTVS_TAUTO_COUNT>
-1

> <PUBCHEM_COORDINATE_TYPE>
1
5
255

> <PUBCHEM_BONDANNOTATIONS>
10  27  8
10  30  8
21  24  8
22  28  8
22  29  8
23  25  8
23  27  8
26  31  8
26  32  8
28  34  8
29  35  8
31  38  8
32  39  8
34  37  8
35  37  8
38  40  8
39  40  8
6  20  8
6  21  8
7  20  8
7  23  8
7  24  8
8  20  8
8  25  8
9  25  8
9  30  8

$$$$
