71724995
  -OEChem-09292322012D

 51 54  0     0  0  0  0  0  0999 V2000
   10.6279    2.4291    0.0000 O   0  0  0  0  0  0  0  0  0  0  0  0
    7.6279   -2.7671    0.0000 O   0  0  0  0  0  0  0  0  0  0  0  0
    8.6279    0.6970    0.0000 N   0  0  0  0  0  0  0  0  0  0  0  0
    7.6279   -1.0350    0.0000 N   0  0  0  0  0  0  0  0  0  0  0  0
    5.5443   -2.7058    0.0000 N   0  0  0  0  0  0  0  0  0  0  0  0
   13.1279    3.2951    0.0000 N   0  0  0  0  0  0  0  0  0  0  0  0
    7.6279    0.6970    0.0000 C   0  0  0  0  0  0  0  0  0  0  0  0
    9.1279   -0.1690    0.0000 C   0  0  0  0  0  0  0  0  0  0  0  0
    7.1279   -0.1690    0.0000 C   0  0  0  0  0  0  0  0  0  0  0  0
    8.6279   -1.0350    0.0000 C   0  0  0  0  0  0  0  0  0  0  0  0
    9.1279    1.5630    0.0000 C   0  0  0  0  0  0  0  0  0  0  0  0
    7.1279   -1.9010    0.0000 C   0  0  0  0  0  0  0  0  0  0  0  0
   10.1279    1.5630    0.0000 C   0  0  0  0  0  0  0  0  0  0  0  0
    6.1279   -1.9010    0.0000 C   0  0  0  0  0  0  0  0  0  0  0  0
    5.5443   -1.0963    0.0000 C   0  0  0  0  0  0  0  0  0  0  0  0
    4.5981   -2.4010    0.0000 C   0  0  0  0  0  0  0  0  0  0  0  0
    4.5981   -1.4010    0.0000 C   0  0  0  0  0  0  0  0  0  0  0  0
    3.7320   -2.9010    0.0000 C   0  0  0  0  0  0  0  0  0  0  0  0
    3.7320   -0.9010    0.0000 C   0  0  0  0  0  0  0  0  0  0  0  0
    2.8660   -2.4010    0.0000 C   0  0  0  0  0  0  0  0  0  0  0  0
    2.8660   -1.4010    0.0000 C   0  0  0  0  0  0  0  0  0  0  0  0
   11.6279    2.4291    0.0000 C   0  0  0  0  0  0  0  0  0  0  0  0
    2.0000   -2.9010    0.0000 C   0  0  0  0  0  0  0  0  0  0  0  0
   12.1279    1.5630    0.0000 C   0  0  0  0  0  0  0  0  0  0  0  0
   12.1279    3.2951    0.0000 C   0  0  0  0  0  0  0  0  0  0  0  0
   13.1279    1.5630    0.0000 C   0  0  0  0  0  0  0  0  0  0  0  0
   13.6279    2.4291    0.0000 C   0  0  0  0  0  0  0  0  0  0  0  0
    7.7356    1.3076    0.0000 H   0  0  0  0  0  0  0  0  0  0  0  0
    7.0453    0.9091    0.0000 H   0  0  0  0  0  0  0  0  0  0  0  0
    9.6028   -0.5675    0.0000 H   0  0  0  0  0  0  0  0  0  0  0  0
    9.6028    0.2295    0.0000 H   0  0  0  0  0  0  0  0  0  0  0  0
    6.6530    0.2295    0.0000 H   0  0  0  0  0  0  0  0  0  0  0  0
    6.6530   -0.5675    0.0000 H   0  0  0  0  0  0  0  0  0  0  0  0
    8.5202   -1.6456    0.0000 H   0  0  0  0  0  0  0  0  0  0  0  0
    9.2105   -1.2471    0.0000 H   0  0  0  0  0  0  0  0  0  0  0  0
    9.2356    2.1736    0.0000 H   0  0  0  0  0  0  0  0  0  0  0  0
    8.5453    1.7751    0.0000 H   0  0  0  0  0  0  0  0  0  0  0  0
   10.0202    0.9525    0.0000 H   0  0  0  0  0  0  0  0  0  0  0  0
   10.7105    1.3510    0.0000 H   0  0  0  0  0  0  0  0  0  0  0  0
    5.7369   -3.2951    0.0000 H   0  0  0  0  0  0  0  0  0  0  0  0
    5.7369   -0.5070    0.0000 H   0  0  0  0  0  0  0  0  0  0  0  0
    3.7320   -3.5210    0.0000 H   0  0  0  0  0  0  0  0  0  0  0  0
    3.7320   -0.2810    0.0000 H   0  0  0  0  0  0  0  0  0  0  0  0
    2.3291   -1.0910    0.0000 H   0  0  0  0  0  0  0  0  0  0  0  0
    1.6900   -2.3641    0.0000 H   0  0  0  0  0  0  0  0  0  0  0  0
    1.4631   -3.2110    0.0000 H   0  0  0  0  0  0  0  0  0  0  0  0
    2.3100   -3.4380    0.0000 H   0  0  0  0  0  0  0  0  0  0  0  0
   11.8179    1.0261    0.0000 H   0  0  0  0  0  0  0  0  0  0  0  0
   11.8179    3.8320    0.0000 H   0  0  0  0  0  0  0  0  0  0  0  0
   13.4379    1.0261    0.0000 H   0  0  0  0  0  0  0  0  0  0  0  0
   14.2479    2.4291    0.0000 H   0  0  0  0  0  0  0  0  0  0  0  0
  1 13  1  0  0  0  0
  1 22  1  0  0  0  0
  2 12  2  0  0  0  0
  3  7  1  0  0  0  0
  3  8  1  0  0  0  0
  3 11  1  0  0  0  0
  4  9  1  0  0  0  0
  4 10  1  0  0  0  0
  4 12  1  0  0  0  0
  5 14  1  0  0  0  0
  5 16  1  0  0  0  0
  5 40  1  0  0  0  0
  6 25  1  0  0  0  0
  6 27  2  0  0  0  0
  7  9  1  0  0  0  0
  7 28  1  0  0  0  0
  7 29  1  0  0  0  0
  8 10  1  0  0  0  0
  8 30  1  0  0  0  0
  8 31  1  0  0  0  0
  9 32  1  0  0  0  0
  9 33  1  0  0  0  0
 10 34  1  0  0  0  0
 10 35  1  0  0  0  0
 11 13  1  0  0  0  0
 11 36  1  0  0  0  0
 11 37  1  0  0  0  0
 12 14  1  0  0  0  0
 13 38  1  0  0  0  0
 13 39  1  0  0  0  0
 14 15  2  0  0  0  0
 15 17  1  0  0  0  0
 15 41  1  0  0  0  0
 16 17  2  0  0  0  0
 16 18  1  0  0  0  0
 17 19  1  0  0  0  0
 18 20  2  0  0  0  0
 18 42  1  0  0  0  0
 19 21  2  0  0  0  0
 19 43  1  0  0  0  0
 20 21  1  0  0  0  0
 20 23  1  0  0  0  0
 21 44  1  0  0  0  0
 22 24  1  0  0  0  0
 22 25  2  0  0  0  0
 23 45  1  0  0  0  0
 23 46  1  0  0  0  0
 23 47  1  0  0  0  0
 24 26  2  0  0  0  0
 24 48  1  0  0  0  0
 25 49  1  0  0  0  0
 26 27  1  0  0  0  0
 26 50  1  0  0  0  0
 27 51  1  0  0  0  0
M  END
> <PUBCHEM_COMPOUND_CID>
71724995

> <PUBCHEM_COMPOUND_CANONICALIZED>
1

> <PUBCHEM_CACTVS_COMPLEXITY>
495

> <PUBCHEM_CACTVS_HBOND_ACCEPTOR>
4

> <PUBCHEM_CACTVS_HBOND_DONOR>
1

> <PUBCHEM_CACTVS_ROTATABLE_BOND>
5

> <PUBCHEM_CACTVS_SUBSKEYS>
AAADceB7sAAAAAAAAAAAAAAAAAAAAWAAAAA8WIAAAAAAAFgB/AAAHgAQAAAADAzhngY+xvPJlACoAzV3VASCiCA3YiAI2SG/bNgOZvLEtbuXOSjk1hHY6Yc4icCeQAAAQAACAACAAACAAAQAAAAAAAAAAA==

> <PUBCHEM_IUPAC_OPENEYE_NAME>
(6-methyl-1H-indol-2-yl)-[4-[2-(3-pyridyloxy)ethyl]piperazin-1-yl]methanone

> <PUBCHEM_IUPAC_CAS_NAME>
(6-methyl-1H-indol-2-yl)-[4-[2-(3-pyridinyloxy)ethyl]-1-piperazinyl]methanone

> <PUBCHEM_IUPAC_NAME_MARKUP>
(6-methyl-1<I>H</I>-indol-2-yl)-[4-(2-pyridin-3-yloxyethyl)piperazin-1-yl]methanone

> <PUBCHEM_IUPAC_NAME>
(6-methyl-1H-indol-2-yl)-[4-(2-pyridin-3-yloxyethyl)piperazin-1-yl]methanone

> <PUBCHEM_IUPAC_SYSTEMATIC_NAME>
(6-methyl-1H-indol-2-yl)-[4-(2-pyridin-3-yloxyethyl)piperazin-1-yl]methanone

> <PUBCHEM_IUPAC_TRADITIONAL_NAME>
(6-methyl-1H-indol-2-yl)-[4-[2-(3-pyridyloxy)ethyl]piperazino]methanone

> <PUBCHEM_IUPAC_INCHI>
InChI=1S/C21H24N4O2/c1-16-4-5-17-14-20(23-19(17)13-16)21(26)25-9-7-24(8-10-25)11-12-27-18-3-2-6-22-15-18/h2-6,13-15,23H,7-12H2,1H3

> <PUBCHEM_IUPAC_INCHIKEY>
ZAVNMUPCFJDCTL-UHFFFAOYSA-N

> <PUBCHEM_XLOGP3_AA>
2.6

> <PUBCHEM_EXACT_MASS>
364.18992602

> <PUBCHEM_MOLECULAR_FORMULA>
C21H24N4O2

> <PUBCHEM_MOLECULAR_WEIGHT>
364.4

> <PUBCHEM_OPENEYE_CAN_SMILES>
CC1=CC2=C(C=C1)C=C(N2)C(=O)N3CCN(CC3)CCOC4=CN=CC=C4

> <PUBCHEM_OPENEYE_ISO_SMILES>
CC1=CC2=C(C=C1)C=C(N2)C(=O)N3CCN(CC3)CCOC4=CN=CC=C4

> <PUBCHEM_CACTVS_TPSA>
61.5

> <PUBCHEM_MONOISOTOPIC_WEIGHT>
364.18992602

> <PUBCHEM_TOTAL_CHARGE>
0

> <PUBCHEM_HEAVY_ATOM_COUNT>
27

> <PUBCHEM_ATOM_DEF_STEREO_COUNT>
0

> <PUBCHEM_ATOM_UDEF_STEREO_COUNT>
0

> <PUBCHEM_BOND_DEF_STEREO_COUNT>
0

> <PUBCHEM_BOND_UDEF_STEREO_COUNT>
0

> <PUBCHEM_ISOTOPIC_ATOM_COUNT>
0

> <PUBCHEM_COMPONENT_COUNT>
1

> <PUBCHEM_CACTVS_TAUTO_COUNT>
-1

> <PUBCHEM_COORDINATE_TYPE>
1
5
255

> <PUBCHEM_BONDANNOTATIONS>
14  15  8
15  17  8
16  17  8
16  18  8
17  19  8
18  20  8
19  21  8
20  21  8
22  24  8
22  25  8
24  26  8
26  27  8
5  14  8
5  16  8
6  25  8
6  27  8

$$$$
