54325399
  -OEChem-09292322212D

 64 67  0     1  0  0  0  0  0999 V2000
   10.1467   -2.9556    0.0000 S   0  0  0  0  0  0  0  0  0  0  0  0
    6.1686   -2.5375    0.0000 O   0  0  0  0  0  0  0  0  0  0  0  0
   10.0422   -3.9501    0.0000 O   0  0  0  0  0  0  0  0  0  0  0  0
   10.2513   -1.9610    0.0000 O   0  0  0  0  0  0  0  0  0  0  0  0
    5.3955    1.7830    0.0000 N   0  0  3  0  0  0  0  0  0  0  0  0
    6.3661   -0.7115    0.0000 N   0  0  0  0  0  0  0  0  0  0  0  0
    4.4945    2.2169    0.0000 C   0  0  1  0  0  0  0  0  0  0  0  0
    4.2720    3.1918    0.0000 C   0  0  0  0  0  0  0  0  0  0  0  0
    6.2965    2.2169    0.0000 C   0  0  0  0  0  0  0  0  0  0  0  0
    4.8955    3.9736    0.0000 C   0  0  0  0  0  0  0  0  0  0  0  0
    6.5190    3.1918    0.0000 C   0  0  0  0  0  0  0  0  0  0  0  0
    5.8955    3.9736    0.0000 C   0  0  0  0  0  0  0  0  0  0  0  0
    5.3955    0.7830    0.0000 C   0  0  0  0  0  0  0  0  0  0  0  0
    3.7127    1.5934    0.0000 C   0  0  0  0  0  0  0  0  0  0  0  0
    6.2615    0.2830    0.0000 C   0  0  0  0  0  0  0  0  0  0  0  0
    3.8618    0.6046    0.0000 C   0  0  0  0  0  0  0  0  0  0  0  0
    2.7818    1.9587    0.0000 C   0  0  0  0  0  0  0  0  0  0  0  0
    7.1751    0.6897    0.0000 C   0  0  0  0  0  0  0  0  0  0  0  0
    7.3442   -0.9194    0.0000 C   0  0  0  0  0  0  0  0  0  0  0  0
    7.8442   -0.0534    0.0000 C   0  0  0  0  0  0  0  0  0  0  0  0
    3.0799   -0.0189    0.0000 C   0  0  0  0  0  0  0  0  0  0  0  0
    2.0000    1.3352    0.0000 C   0  0  0  0  0  0  0  0  0  0  0  0
    7.7509   -1.8330    0.0000 C   0  0  0  0  0  0  0  0  0  0  0  0
    2.1490    0.3464    0.0000 C   0  0  0  0  0  0  0  0  0  0  0  0
    8.7455   -1.9375    0.0000 C   0  0  0  0  0  0  0  0  0  0  0  0
    7.1632   -2.6420    0.0000 C   0  0  0  0  0  0  0  0  0  0  0  0
    9.1522   -2.8510    0.0000 C   0  0  0  0  0  0  0  0  0  0  0  0
    7.5699   -3.5555    0.0000 C   0  0  0  0  0  0  0  0  0  0  0  0
    8.5644   -3.6601    0.0000 C   0  0  0  0  0  0  0  0  0  0  0  0
   11.1412   -3.0601    0.0000 C   0  0  0  0  0  0  0  0  0  0  0  0
   11.5480   -3.9736    0.0000 C   0  0  0  0  0  0  0  0  0  0  0  0
    5.5808   -3.3465    0.0000 C   0  0  0  0  0  0  0  0  0  0  0  0
    4.5640    1.6008    0.0000 H   0  0  0  0  0  0  0  0  0  0  0  0
    3.8854    3.6766    0.0000 H   0  0  0  0  0  0  0  0  0  0  0  0
    3.7134    2.9228    0.0000 H   0  0  0  0  0  0  0  0  0  0  0  0
    6.4344    1.6124    0.0000 H   0  0  0  0  0  0  0  0  0  0  0  0
    6.9165    2.2169    0.0000 H   0  0  0  0  0  0  0  0  0  0  0  0
    5.0335    4.5781    0.0000 H   0  0  0  0  0  0  0  0  0  0  0  0
    4.3369    4.2427    0.0000 H   0  0  0  0  0  0  0  0  0  0  0  0
    7.0776    2.9228    0.0000 H   0  0  0  0  0  0  0  0  0  0  0  0
    6.9056    3.6766    0.0000 H   0  0  0  0  0  0  0  0  0  0  0  0
    6.4541    4.2427    0.0000 H   0  0  0  0  0  0  0  0  0  0  0  0
    5.7575    4.5781    0.0000 H   0  0  0  0  0  0  0  0  0  0  0  0
    4.7849    0.8907    0.0000 H   0  0  0  0  0  0  0  0  0  0  0  0
    5.1834    0.2004    0.0000 H   0  0  0  0  0  0  0  0  0  0  0  0
    4.4389    0.3781    0.0000 H   0  0  0  0  0  0  0  0  0  0  0  0
    2.6894    2.5718    0.0000 H   0  0  0  0  0  0  0  0  0  0  0  0
    5.9053   -1.1264    0.0000 H   0  0  0  0  0  0  0  0  0  0  0  0
    7.3040    1.2962    0.0000 H   0  0  0  0  0  0  0  0  0  0  0  0
    8.4608    0.0114    0.0000 H   0  0  0  0  0  0  0  0  0  0  0  0
    3.1723   -0.6320    0.0000 H   0  0  0  0  0  0  0  0  0  0  0  0
    1.4229    1.5618    0.0000 H   0  0  0  0  0  0  0  0  0  0  0  0
    1.6643   -0.0401    0.0000 H   0  0  0  0  0  0  0  0  0  0  0  0
    9.1099   -1.4359    0.0000 H   0  0  0  0  0  0  0  0  0  0  0  0
    7.2055   -4.0571    0.0000 H   0  0  0  0  0  0  0  0  0  0  0  0
    8.8166   -4.2265    0.0000 H   0  0  0  0  0  0  0  0  0  0  0  0
   11.7428   -2.9101    0.0000 H   0  0  0  0  0  0  0  0  0  0  0  0
   11.0980   -2.4416    0.0000 H   0  0  0  0  0  0  0  0  0  0  0  0
   10.9816   -4.2258    0.0000 H   0  0  0  0  0  0  0  0  0  0  0  0
   11.8002   -4.5400    0.0000 H   0  0  0  0  0  0  0  0  0  0  0  0
   12.1144   -3.7215    0.0000 H   0  0  0  0  0  0  0  0  0  0  0  0
    5.0793   -2.9820    0.0000 H   0  0  0  0  0  0  0  0  0  0  0  0
    5.2164   -3.8481    0.0000 H   0  0  0  0  0  0  0  0  0  0  0  0
    6.0824   -3.7109    0.0000 H   0  0  0  0  0  0  0  0  0  0  0  0
  1  3  2  0  0  0  0
  1  4  2  0  0  0  0
  1 27  1  0  0  0  0
  1 30  1  0  0  0  0
  2 26  1  0  0  0  0
  2 32  1  0  0  0  0
  5  7  1  0  0  0  0
  5  9  1  0  0  0  0
  5 13  1  0  0  0  0
  6 15  1  0  0  0  0
  6 19  1  0  0  0  0
  6 48  1  0  0  0  0
  7  8  1  0  0  0  0
  7 14  1  6  0  0  0
  7 33  1  0  0  0  0
  8 10  1  0  0  0  0
  8 34  1  0  0  0  0
  8 35  1  0  0  0  0
  9 11  1  0  0  0  0
  9 36  1  0  0  0  0
  9 37  1  0  0  0  0
 10 12  1  0  0  0  0
 10 38  1  0  0  0  0
 10 39  1  0  0  0  0
 11 12  1  0  0  0  0
 11 40  1  0  0  0  0
 11 41  1  0  0  0  0
 12 42  1  0  0  0  0
 12 43  1  0  0  0  0
 13 15  1  0  0  0  0
 13 44  1  0  0  0  0
 13 45  1  0  0  0  0
 14 16  2  0  0  0  0
 14 17  1  0  0  0  0
 15 18  2  0  0  0  0
 16 21  1  0  0  0  0
 16 46  1  0  0  0  0
 17 22  2  0  0  0  0
 17 47  1  0  0  0  0
 18 20  1  0  0  0  0
 18 49  1  0  0  0  0
 19 20  2  0  0  0  0
 19 23  1  0  0  0  0
 20 50  1  0  0  0  0
 21 24  2  0  0  0  0
 21 51  1  0  0  0  0
 22 24  1  0  0  0  0
 22 52  1  0  0  0  0
 23 25  1  0  0  0  0
 23 26  2  0  0  0  0
 24 53  1  0  0  0  0
 25 27  2  0  0  0  0
 25 54  1  0  0  0  0
 26 28  1  0  0  0  0
 27 29  1  0  0  0  0
 28 29  2  0  0  0  0
 28 55  1  0  0  0  0
 29 56  1  0  0  0  0
 30 31  1  0  0  0  0
 30 57  1  0  0  0  0
 30 58  1  0  0  0  0
 31 59  1  0  0  0  0
 31 60  1  0  0  0  0
 31 61  1  0  0  0  0
 32 62  1  0  0  0  0
 32 63  1  0  0  0  0
 32 64  1  0  0  0  0
M  END
> <PUBCHEM_COMPOUND_CID>
54325399

> <PUBCHEM_COMPOUND_CANONICALIZED>
1

> <PUBCHEM_CACTVS_COMPLEXITY>
673

> <PUBCHEM_CACTVS_HBOND_ACCEPTOR>
4

> <PUBCHEM_CACTVS_HBOND_DONOR>
1

> <PUBCHEM_CACTVS_ROTATABLE_BOND>
7

> <PUBCHEM_CACTVS_SUBSKEYS>
AAADcfB7MABAAAAAAAAAAAAAAAAAAWAAAAAwYAAABYAAAAAB0AAAHgQQAAAADCzF3gayh5PJlAqgAyRiRHDCiCAhKjAImTg+bJgMZuLksZuUMChm0BHo6AeQwOAOAIAAgAAIAAABAAEAABAAAAAAAAAAAA==

> <PUBCHEM_IUPAC_OPENEYE_NAME>
(2S)-1-[[5-(5-ethylsulfonyl-2-methoxy-phenyl)-1H-pyrrol-2-yl]methyl]-2-phenyl-azepane

> <PUBCHEM_IUPAC_CAS_NAME>
(2S)-1-[[5-(5-ethylsulfonyl-2-methoxyphenyl)-1H-pyrrol-2-yl]methyl]-2-phenylazepane

> <PUBCHEM_IUPAC_NAME_MARKUP>
(2<I>S</I>)-1-[[5-(5-ethylsulfonyl-2-methoxyphenyl)-1<I>H</I>-pyrrol-2-yl]methyl]-2-phenylazepane

> <PUBCHEM_IUPAC_NAME>
(2S)-1-[[5-(5-ethylsulfonyl-2-methoxyphenyl)-1H-pyrrol-2-yl]methyl]-2-phenylazepane

> <PUBCHEM_IUPAC_SYSTEMATIC_NAME>
(2S)-1-[[5-(5-ethylsulfonyl-2-methoxy-phenyl)-1H-pyrrol-2-yl]methyl]-2-phenyl-azepane

> <PUBCHEM_IUPAC_TRADITIONAL_NAME>
(2S)-1-[[5-(5-esyl-2-methoxy-phenyl)-1H-pyrrol-2-yl]methyl]-2-phenyl-azepane

> <PUBCHEM_IUPAC_INCHI>
InChI=1S/C26H32N2O3S/c1-3-32(29,30)22-14-16-26(31-2)23(18-22)24-15-13-21(27-24)19-28-17-9-5-8-12-25(28)20-10-6-4-7-11-20/h4,6-7,10-11,13-16,18,25,27H,3,5,8-9,12,17,19H2,1-2H3/t25-/m0/s1

> <PUBCHEM_IUPAC_INCHIKEY>
SUOCMIKXLFKQTH-VWLOTQADSA-N

> <PUBCHEM_XLOGP3_AA>
4.6

> <PUBCHEM_EXACT_MASS>
452.21336406

> <PUBCHEM_MOLECULAR_FORMULA>
C26H32N2O3S

> <PUBCHEM_MOLECULAR_WEIGHT>
452.6

> <PUBCHEM_OPENEYE_CAN_SMILES>
CCS(=O)(=O)C1=CC(=C(C=C1)OC)C2=CC=C(N2)CN3CCCCCC3C4=CC=CC=C4

> <PUBCHEM_OPENEYE_ISO_SMILES>
CCS(=O)(=O)C1=CC(=C(C=C1)OC)C2=CC=C(N2)CN3CCCCC[C@H]3C4=CC=CC=C4

> <PUBCHEM_CACTVS_TPSA>
70.8

> <PUBCHEM_MONOISOTOPIC_WEIGHT>
452.21336406

> <PUBCHEM_TOTAL_CHARGE>
0

> <PUBCHEM_HEAVY_ATOM_COUNT>
32

> <PUBCHEM_ATOM_DEF_STEREO_COUNT>
1

> <PUBCHEM_ATOM_UDEF_STEREO_COUNT>
0

> <PUBCHEM_BOND_DEF_STEREO_COUNT>
0

> <PUBCHEM_BOND_UDEF_STEREO_COUNT>
0

> <PUBCHEM_ISOTOPIC_ATOM_COUNT>
0

> <PUBCHEM_COMPONENT_COUNT>
1

> <PUBCHEM_CACTVS_TAUTO_COUNT>
-1

> <PUBCHEM_COORDINATE_TYPE>
1
5
255

> <PUBCHEM_BONDANNOTATIONS>
14  16  8
14  17  8
15  18  8
16  21  8
17  22  8
18  20  8
19  20  8
21  24  8
22  24  8
23  25  8
23  26  8
25  27  8
26  28  8
27  29  8
28  29  8
6  15  8
6  19  8
7  14  6

$$$$
