122189387
  -OEChem-09292322002D

 58 62  0     0  0  0  0  0  0999 V2000
    2.9945    1.2069    0.0000 O   0  0  0  0  0  0  0  0  0  0  0  0
    6.1591   -0.2021    0.0000 N   0  0  0  0  0  0  0  0  0  0  0  0
    4.9836    1.4159    0.0000 N   0  0  0  0  0  0  0  0  0  0  0  0
   10.9064   -1.9475    0.0000 N   0  0  0  0  0  0  0  0  0  0  0  0
    9.8238   -0.7451    0.0000 N   0  0  0  0  0  0  0  0  0  0  0  0
   10.8019   -0.9530    0.0000 N   0  0  0  0  0  0  0  0  0  0  0  0
   13.5045   -3.4475    0.0000 N   0  0  0  0  0  0  0  0  0  0  0  0
   14.4507   -3.7522    0.0000 N   0  0  0  0  0  0  0  0  0  0  0  0
    6.5659    0.7114    0.0000 C   0  0  0  0  0  0  0  0  0  0  0  0
    5.1646   -0.3066    0.0000 C   0  0  0  0  0  0  0  0  0  0  0  0
    5.9781    1.5204    0.0000 C   0  0  0  0  0  0  0  0  0  0  0  0
    4.5768    0.5024    0.0000 C   0  0  0  0  0  0  0  0  0  0  0  0
    6.7469   -1.0111    0.0000 C   0  0  0  0  0  0  0  0  0  0  0  0
    7.7414   -0.9066    0.0000 C   0  0  0  0  0  0  0  0  0  0  0  0
    4.3958    2.2249    0.0000 C   0  0  0  0  0  0  0  0  0  0  0  0
    8.3292   -1.7156    0.0000 C   0  0  0  0  0  0  0  0  0  0  0  0
    3.4013    2.1204    0.0000 C   0  0  0  0  0  0  0  0  0  0  0  0
    4.8025    3.1385    0.0000 C   0  0  0  0  0  0  0  0  0  0  0  0
    9.3238   -1.6111    0.0000 C   0  0  0  0  0  0  0  0  0  0  0  0
    2.8135    2.9294    0.0000 C   0  0  0  0  0  0  0  0  0  0  0  0
    4.2147    3.9475    0.0000 C   0  0  0  0  0  0  0  0  0  0  0  0
    9.9929   -2.3542    0.0000 C   0  0  0  0  0  0  0  0  0  0  0  0
    3.2202    3.8430    0.0000 C   0  0  0  0  0  0  0  0  0  0  0  0
   11.7725   -2.4475    0.0000 C   0  0  0  0  0  0  0  0  0  0  0  0
   12.6385   -1.9475    0.0000 C   0  0  0  0  0  0  0  0  0  0  0  0
    2.0000    1.1023    0.0000 C   0  0  0  0  0  0  0  0  0  0  0  0
   13.5045   -2.4475    0.0000 C   0  0  0  0  0  0  0  0  0  0  0  0
   11.7725   -3.4475    0.0000 C   0  0  0  0  0  0  0  0  0  0  0  0
   12.6385   -3.9475    0.0000 C   0  0  0  0  0  0  0  0  0  0  0  0
   14.4507   -2.1428    0.0000 C   0  0  0  0  0  0  0  0  0  0  0  0
   15.0343   -2.9475    0.0000 C   0  0  0  0  0  0  0  0  0  0  0  0
    7.0799    0.3647    0.0000 H   0  0  0  0  0  0  0  0  0  0  0  0
    6.9966    1.1574    0.0000 H   0  0  0  0  0  0  0  0  0  0  0  0
    4.6074   -0.5784    0.0000 H   0  0  0  0  0  0  0  0  0  0  0  0
    5.3355   -0.9026    0.0000 H   0  0  0  0  0  0  0  0  0  0  0  0
    6.5353    1.7922    0.0000 H   0  0  0  0  0  0  0  0  0  0  0  0
    5.8072    2.1164    0.0000 H   0  0  0  0  0  0  0  0  0  0  0  0
    4.0628    0.8491    0.0000 H   0  0  0  0  0  0  0  0  0  0  0  0
    4.1461    0.0564    0.0000 H   0  0  0  0  0  0  0  0  0  0  0  0
    6.1897   -1.2829    0.0000 H   0  0  0  0  0  0  0  0  0  0  0  0
    6.9178   -1.6071    0.0000 H   0  0  0  0  0  0  0  0  0  0  0  0
    8.2987   -0.6348    0.0000 H   0  0  0  0  0  0  0  0  0  0  0  0
    7.5706   -0.3106    0.0000 H   0  0  0  0  0  0  0  0  0  0  0  0
    7.7720   -1.9874    0.0000 H   0  0  0  0  0  0  0  0  0  0  0  0
    8.5001   -2.3116    0.0000 H   0  0  0  0  0  0  0  0  0  0  0  0
    5.4191    3.2033    0.0000 H   0  0  0  0  0  0  0  0  0  0  0  0
    2.1969    2.8646    0.0000 H   0  0  0  0  0  0  0  0  0  0  0  0
    4.4669    4.5139    0.0000 H   0  0  0  0  0  0  0  0  0  0  0  0
    9.8640   -2.9607    0.0000 H   0  0  0  0  0  0  0  0  0  0  0  0
    2.8558    4.3446    0.0000 H   0  0  0  0  0  0  0  0  0  0  0  0
   12.6385   -1.3275    0.0000 H   0  0  0  0  0  0  0  0  0  0  0  0
   11.2355   -3.7575    0.0000 H   0  0  0  0  0  0  0  0  0  0  0  0
    1.9352    1.7189    0.0000 H   0  0  0  0  0  0  0  0  0  0  0  0
    1.3834    1.0375    0.0000 H   0  0  0  0  0  0  0  0  0  0  0  0
    2.0648    0.4857    0.0000 H   0  0  0  0  0  0  0  0  0  0  0  0
   12.6385   -4.5675    0.0000 H   0  0  0  0  0  0  0  0  0  0  0  0
   14.6433   -1.5534    0.0000 H   0  0  0  0  0  0  0  0  0  0  0  0
   15.6543   -2.9475    0.0000 H   0  0  0  0  0  0  0  0  0  0  0  0
  1 17  1  0  0  0  0
  1 26  1  0  0  0  0
  2  9  1  0  0  0  0
  2 10  1  0  0  0  0
  2 13  1  0  0  0  0
  3 11  1  0  0  0  0
  3 12  1  0  0  0  0
  3 15  1  0  0  0  0
  4  6  1  0  0  0  0
  4 22  1  0  0  0  0
  4 24  1  0  0  0  0
  5  6  2  0  0  0  0
  5 19  1  0  0  0  0
  7  8  1  0  0  0  0
  7 27  1  0  0  0  0
  7 29  1  0  0  0  0
  8 31  2  0  0  0  0
  9 11  1  0  0  0  0
  9 32  1  0  0  0  0
  9 33  1  0  0  0  0
 10 12  1  0  0  0  0
 10 34  1  0  0  0  0
 10 35  1  0  0  0  0
 11 36  1  0  0  0  0
 11 37  1  0  0  0  0
 12 38  1  0  0  0  0
 12 39  1  0  0  0  0
 13 14  1  0  0  0  0
 13 40  1  0  0  0  0
 13 41  1  0  0  0  0
 14 16  1  0  0  0  0
 14 42  1  0  0  0  0
 14 43  1  0  0  0  0
 15 17  1  0  0  0  0
 15 18  2  0  0  0  0
 16 19  1  0  0  0  0
 16 44  1  0  0  0  0
 16 45  1  0  0  0  0
 17 20  2  0  0  0  0
 18 21  1  0  0  0  0
 18 46  1  0  0  0  0
 19 22  2  0  0  0  0
 20 23  1  0  0  0  0
 20 47  1  0  0  0  0
 21 23  2  0  0  0  0
 21 48  1  0  0  0  0
 22 49  1  0  0  0  0
 23 50  1  0  0  0  0
 24 25  2  0  0  0  0
 24 28  1  0  0  0  0
 25 27  1  0  0  0  0
 25 51  1  0  0  0  0
 26 53  1  0  0  0  0
 26 54  1  0  0  0  0
 26 55  1  0  0  0  0
 27 30  2  0  0  0  0
 28 29  2  0  0  0  0
 28 52  1  0  0  0  0
 29 56  1  0  0  0  0
 30 31  1  0  0  0  0
 30 57  1  0  0  0  0
 31 58  1  0  0  0  0
M  END
> <PUBCHEM_COMPOUND_CID>
122189387

> <PUBCHEM_COMPOUND_CANONICALIZED>
1

> <PUBCHEM_CACTVS_COMPLEXITY>
558

> <PUBCHEM_CACTVS_HBOND_ACCEPTOR>
6

> <PUBCHEM_CACTVS_HBOND_DONOR>
0

> <PUBCHEM_CACTVS_ROTATABLE_BOND>
7

> <PUBCHEM_CACTVS_SUBSKEYS>
AAADceB7oAAAAAAAAAAAAAAAAAAAAWLAAAA8WIAAAAAAAFgB/AAAHgAIAAAACAzBlgY+xrMIFACiATRnRACSjCQxsiAY2CA/fJgOZuLE8duVtChkyBHY6AeQwAAAAAAAAAAAEAAAAAAAAAAgAAAAAAAAAA==

> <PUBCHEM_IUPAC_OPENEYE_NAME>
5-[4-[3-[4-(2-methoxyphenyl)piperazin-1-yl]propyl]triazol-1-yl]pyrazolo[1,5-a]pyridine

> <PUBCHEM_IUPAC_CAS_NAME>
5-[4-[3-[4-(2-methoxyphenyl)-1-piperazinyl]propyl]-1-triazolyl]pyrazolo[1,5-a]pyridine

> <PUBCHEM_IUPAC_NAME_MARKUP>
5-[4-[3-[4-(2-methoxyphenyl)piperazin-1-yl]propyl]triazol-1-yl]pyrazolo[1,5-a]pyridine

> <PUBCHEM_IUPAC_NAME>
5-[4-[3-[4-(2-methoxyphenyl)piperazin-1-yl]propyl]triazol-1-yl]pyrazolo[1,5-a]pyridine

> <PUBCHEM_IUPAC_SYSTEMATIC_NAME>
5-[4-[3-[4-(2-methoxyphenyl)piperazin-1-yl]propyl]-1,2,3-triazol-1-yl]pyrazolo[1,5-a]pyridine

> <PUBCHEM_IUPAC_TRADITIONAL_NAME>
5-[4-[3-[4-(2-methoxyphenyl)piperazino]propyl]triazol-1-yl]pyrazolo[1,5-a]pyridine

> <PUBCHEM_IUPAC_INCHI>
InChI=1S/C23H27N7O/c1-31-23-7-3-2-6-22(23)28-15-13-27(14-16-28)11-4-5-19-18-30(26-25-19)21-9-12-29-20(17-21)8-10-24-29/h2-3,6-10,12,17-18H,4-5,11,13-16H2,1H3

> <PUBCHEM_IUPAC_INCHIKEY>
JYBLRFDZVBZKOY-UHFFFAOYSA-N

> <PUBCHEM_XLOGP3_AA>
2.7

> <PUBCHEM_EXACT_MASS>
417.22770851

> <PUBCHEM_MOLECULAR_FORMULA>
C23H27N7O

> <PUBCHEM_MOLECULAR_WEIGHT>
417.5

> <PUBCHEM_OPENEYE_CAN_SMILES>
COC1=CC=CC=C1N2CCN(CC2)CCCC3=CN(N=N3)C4=CC5=CC=NN5C=C4

> <PUBCHEM_OPENEYE_ISO_SMILES>
COC1=CC=CC=C1N2CCN(CC2)CCCC3=CN(N=N3)C4=CC5=CC=NN5C=C4

> <PUBCHEM_CACTVS_TPSA>
63.7

> <PUBCHEM_MONOISOTOPIC_WEIGHT>
417.22770851

> <PUBCHEM_TOTAL_CHARGE>
0

> <PUBCHEM_HEAVY_ATOM_COUNT>
31

> <PUBCHEM_ATOM_DEF_STEREO_COUNT>
0

> <PUBCHEM_ATOM_UDEF_STEREO_COUNT>
0

> <PUBCHEM_BOND_DEF_STEREO_COUNT>
0

> <PUBCHEM_BOND_UDEF_STEREO_COUNT>
0

> <PUBCHEM_ISOTOPIC_ATOM_COUNT>
0

> <PUBCHEM_COMPONENT_COUNT>
1

> <PUBCHEM_CACTVS_TAUTO_COUNT>
-1

> <PUBCHEM_COORDINATE_TYPE>
1
5
255

> <PUBCHEM_BONDANNOTATIONS>
15  17  8
15  18  8
17  20  8
18  21  8
19  22  8
20  23  8
21  23  8
24  25  8
24  28  8
25  27  8
27  30  8
28  29  8
30  31  8
4  22  8
4  6  8
5  19  8
5  6  8
7  27  8
7  29  8
7  8  8
8  31  8

$$$$
