44317801
  -OEChem-09292322142D

 48 49  0     1  0  0  0  0  0999 V2000
    6.0010   -4.6445    0.0000 Cl  0  0  0  0  0  0  0  0  0  0  0  0
    2.5369   -4.6445    0.0000 Cl  0  0  0  0  0  0  0  0  0  0  0  0
    5.0351    4.6445    0.0000 F   0  0  0  0  0  0  0  0  0  0  0  0
    3.4030   -1.1445    0.0000 O   0  0  0  0  0  0  0  0  0  0  0  0
    6.0010   -2.6445    0.0000 O   0  0  0  0  0  0  0  0  0  0  0  0
    2.5369   -2.6445    0.0000 O   0  0  0  0  0  0  0  0  0  0  0  0
    6.1056    1.3500    0.0000 N   0  0  3  0  0  0  0  0  0  0  0  0
    5.1350   -1.1445    0.0000 N   0  0  0  0  0  0  0  0  0  0  0  0
    6.0010    0.3555    0.0000 C   0  0  1  0  0  0  0  0  0  0  0  0
    6.9146   -0.0513    0.0000 C   0  0  0  0  0  0  0  0  0  0  0  0
    7.0837    1.5579    0.0000 C   0  0  0  0  0  0  0  0  0  0  0  0
    7.5837    0.6919    0.0000 C   0  0  0  0  0  0  0  0  0  0  0  0
    5.3624    2.0191    0.0000 C   0  0  0  0  0  0  0  0  0  0  0  0
    5.1350   -0.1445    0.0000 C   0  0  0  0  0  0  0  0  0  0  0  0
    5.5703    2.9973    0.0000 C   0  0  0  0  0  0  0  0  0  0  0  0
    4.8272    3.6664    0.0000 C   0  0  3  0  0  0  0  0  0  0  0  0
    4.2690   -1.6445    0.0000 C   0  0  0  0  0  0  0  0  0  0  0  0
    3.8761    3.3574    0.0000 C   0  0  0  0  0  0  0  0  0  0  0  0
    4.2690   -2.6445    0.0000 C   0  0  0  0  0  0  0  0  0  0  0  0
    5.1350   -3.1445    0.0000 C   0  0  0  0  0  0  0  0  0  0  0  0
    3.4030   -3.1445    0.0000 C   0  0  0  0  0  0  0  0  0  0  0  0
    5.1350   -4.1445    0.0000 C   0  0  0  0  0  0  0  0  0  0  0  0
    3.4030   -4.1445    0.0000 C   0  0  0  0  0  0  0  0  0  0  0  0
    4.2690   -4.6445    0.0000 C   0  0  0  0  0  0  0  0  0  0  0  0
    6.8671   -3.1445    0.0000 C   0  0  0  0  0  0  0  0  0  0  0  0
    5.4811    0.6931    0.0000 H   0  0  0  0  0  0  0  0  0  0  0  0
    6.6046   -0.5882    0.0000 H   0  0  0  0  0  0  0  0  0  0  0  0
    7.4162   -0.4157    0.0000 H   0  0  0  0  0  0  0  0  0  0  0  0
    7.6501    1.8101    0.0000 H   0  0  0  0  0  0  0  0  0  0  0  0
    6.8921    2.1476    0.0000 H   0  0  0  0  0  0  0  0  0  0  0  0
    7.9986    0.2311    0.0000 H   0  0  0  0  0  0  0  0  0  0  0  0
    8.0853    1.0563    0.0000 H   0  0  0  0  0  0  0  0  0  0  0  0
    4.7876    2.2514    0.0000 H   0  0  0  0  0  0  0  0  0  0  0  0
    5.0339    1.4933    0.0000 H   0  0  0  0  0  0  0  0  0  0  0  0
    4.9230    0.4381    0.0000 H   0  0  0  0  0  0  0  0  0  0  0  0
    4.5244   -0.2522    0.0000 H   0  0  0  0  0  0  0  0  0  0  0  0
    6.1452    2.7650    0.0000 H   0  0  0  0  0  0  0  0  0  0  0  0
    5.8989    3.5230    0.0000 H   0  0  0  0  0  0  0  0  0  0  0  0
    5.6720   -1.4545    0.0000 H   0  0  0  0  0  0  0  0  0  0  0  0
    5.4168    3.8580    0.0000 H   0  0  0  0  0  0  0  0  0  0  0  0
    3.6845    3.9470    0.0000 H   0  0  0  0  0  0  0  0  0  0  0  0
    3.2865    3.1658    0.0000 H   0  0  0  0  0  0  0  0  0  0  0  0
    4.0677    2.7677    0.0000 H   0  0  0  0  0  0  0  0  0  0  0  0
    4.2690   -5.2645    0.0000 H   0  0  0  0  0  0  0  0  0  0  0  0
    2.0000   -2.9545    0.0000 H   0  0  0  0  0  0  0  0  0  0  0  0
    6.5571   -3.6815    0.0000 H   0  0  0  0  0  0  0  0  0  0  0  0
    7.4040   -3.4545    0.0000 H   0  0  0  0  0  0  0  0  0  0  0  0
    7.1771   -2.6076    0.0000 H   0  0  0  0  0  0  0  0  0  0  0  0
  1 22  1  0  0  0  0
  2 23  1  0  0  0  0
  3 16  1  0  0  0  0
  4 17  2  0  0  0  0
  5 20  1  0  0  0  0
  5 25  1  0  0  0  0
  6 21  1  0  0  0  0
  6 45  1  0  0  0  0
  7  9  1  0  0  0  0
  7 11  1  0  0  0  0
  7 13  1  0  0  0  0
  8 14  1  0  0  0  0
  8 17  1  0  0  0  0
  8 39  1  0  0  0  0
  9 10  1  0  0  0  0
  9 14  1  1  0  0  0
  9 26  1  0  0  0  0
 10 12  1  0  0  0  0
 10 27  1  0  0  0  0
 10 28  1  0  0  0  0
 11 12  1  0  0  0  0
 11 29  1  0  0  0  0
 11 30  1  0  0  0  0
 12 31  1  0  0  0  0
 12 32  1  0  0  0  0
 13 15  1  0  0  0  0
 13 33  1  0  0  0  0
 13 34  1  0  0  0  0
 14 35  1  0  0  0  0
 14 36  1  0  0  0  0
 15 16  1  0  0  0  0
 15 37  1  0  0  0  0
 15 38  1  0  0  0  0
 16 18  1  0  0  0  0
 16 40  1  0  0  0  0
 17 19  1  0  0  0  0
 18 41  1  0  0  0  0
 18 42  1  0  0  0  0
 18 43  1  0  0  0  0
 19 20  1  0  0  0  0
 19 21  2  0  0  0  0
 20 22  2  0  0  0  0
 21 23  1  0  0  0  0
 22 24  1  0  0  0  0
 23 24  2  0  0  0  0
 24 44  1  0  0  0  0
 25 46  1  0  0  0  0
 25 47  1  0  0  0  0
 25 48  1  0  0  0  0
M  END
> <PUBCHEM_COMPOUND_CID>
44317801

> <PUBCHEM_COMPOUND_CANONICALIZED>
1

> <PUBCHEM_CACTVS_COMPLEXITY>
446

> <PUBCHEM_CACTVS_HBOND_ACCEPTOR>
5

> <PUBCHEM_CACTVS_HBOND_DONOR>
2

> <PUBCHEM_CACTVS_ROTATABLE_BOND>
7

> <PUBCHEM_CACTVS_SUBSKEYS>
AAADceB7MQAGAAAAAAAAAAAAAAAAAWAAAAAwAAAAAAAAAAABAAAAHwIQCAAADC7BmCYyBoPABgCIAiFSEACCCAAkJUAAiIEMD8gMZzeHthuUcWhn9hWIuQeY6CyOACAAKACICAAAQABQARAQAAAAAAAAAA==

> <PUBCHEM_IUPAC_OPENEYE_NAME>
3,5-dichloro-N-[[(2S)-1-(3-fluorobutyl)pyrrolidin-2-yl]methyl]-2-hydroxy-6-methoxy-benzamide

> <PUBCHEM_IUPAC_CAS_NAME>
3,5-dichloro-N-[[(2S)-1-(3-fluorobutyl)-2-pyrrolidinyl]methyl]-2-hydroxy-6-methoxybenzamide

> <PUBCHEM_IUPAC_NAME_MARKUP>
3,5-dichloro-<I>N</I>-[[(2<I>S</I>)-1-(3-fluorobutyl)pyrrolidin-2-yl]methyl]-2-hydroxy-6-methoxybenzamide

> <PUBCHEM_IUPAC_NAME>
3,5-dichloro-N-[[(2S)-1-(3-fluorobutyl)pyrrolidin-2-yl]methyl]-2-hydroxy-6-methoxybenzamide

> <PUBCHEM_IUPAC_SYSTEMATIC_NAME>
3,5-bis(chloranyl)-N-[[(2S)-1-(3-fluoranylbutyl)pyrrolidin-2-yl]methyl]-2-methoxy-6-oxidanyl-benzamide

> <PUBCHEM_IUPAC_TRADITIONAL_NAME>
3,5-dichloro-N-[[(2S)-1-(3-fluorobutyl)pyrrolidin-2-yl]methyl]-2-hydroxy-6-methoxy-benzamide

> <PUBCHEM_IUPAC_INCHI>
InChI=1S/C17H23Cl2FN2O3/c1-10(20)5-7-22-6-3-4-11(22)9-21-17(24)14-15(23)12(18)8-13(19)16(14)25-2/h8,10-11,23H,3-7,9H2,1-2H3,(H,21,24)/t10?,11-/m0/s1

> <PUBCHEM_IUPAC_INCHIKEY>
XWGVVQPWPKLBHE-DTIOYNMSSA-N

> <PUBCHEM_XLOGP3_AA>
4.3

> <PUBCHEM_EXACT_MASS>
392.1069762

> <PUBCHEM_MOLECULAR_FORMULA>
C17H23Cl2FN2O3

> <PUBCHEM_MOLECULAR_WEIGHT>
393.3

> <PUBCHEM_OPENEYE_CAN_SMILES>
CC(CCN1CCCC1CNC(=O)C2=C(C(=CC(=C2OC)Cl)Cl)O)F

> <PUBCHEM_OPENEYE_ISO_SMILES>
CC(CCN1CCC[C@H]1CNC(=O)C2=C(C(=CC(=C2OC)Cl)Cl)O)F

> <PUBCHEM_CACTVS_TPSA>
61.8

> <PUBCHEM_MONOISOTOPIC_WEIGHT>
392.1069762

> <PUBCHEM_TOTAL_CHARGE>
0

> <PUBCHEM_HEAVY_ATOM_COUNT>
25

> <PUBCHEM_ATOM_DEF_STEREO_COUNT>
1

> <PUBCHEM_ATOM_UDEF_STEREO_COUNT>
1

> <PUBCHEM_BOND_DEF_STEREO_COUNT>
0

> <PUBCHEM_BOND_UDEF_STEREO_COUNT>
0

> <PUBCHEM_ISOTOPIC_ATOM_COUNT>
0

> <PUBCHEM_COMPONENT_COUNT>
1

> <PUBCHEM_CACTVS_TAUTO_COUNT>
-1

> <PUBCHEM_COORDINATE_TYPE>
1
5
255

> <PUBCHEM_BONDANNOTATIONS>
19  20  8
19  21  8
20  22  8
21  23  8
22  24  8
23  24  8
16  3  3
9  14  5

$$$$
