121304710
  -OEChem-09292322372D

 59 63  0     1  0  0  0  0  0999 V2000
    3.8968    1.5102    0.0000 S   0  0  0  0  0  0  0  0  0  0  0  0
    9.5890   -6.8398    0.0000 F   0  0  0  0  0  0  0  0  0  0  0  0
    8.2230   -7.2059    0.0000 F   0  0  0  0  0  0  0  0  0  0  0  0
    9.2230   -5.4738    0.0000 F   0  0  0  0  0  0  0  0  0  0  0  0
    2.0000    5.4458    0.0000 O   0  0  0  0  0  0  0  0  0  0  0  0
    4.2589   -1.9350    0.0000 N   0  0  3  0  0  0  0  0  0  0  0  0
    3.6180    3.2702    0.0000 N   0  0  0  0  0  0  0  0  0  0  0  0
    2.3090    2.3192    0.0000 N   0  0  0  0  0  0  0  0  0  0  0  0
    2.0000    3.2702    0.0000 N   0  0  0  0  0  0  0  0  0  0  0  0
    2.3090    6.3968    0.0000 N   0  0  0  0  0  0  0  0  0  0  0  0
    4.7589   -3.4738    0.0000 C   0  0  2  0  0  0  0  0  0  0  0  0
    5.2589   -4.3398    0.0000 C   0  0  2  0  0  0  0  0  0  0  0  0
    4.2589   -4.3398    0.0000 C   0  0  0  0  0  0  0  0  0  0  0  0
    5.5679   -2.8860    0.0000 C   0  0  0  0  0  0  0  0  0  0  0  0
    3.9499   -2.8860    0.0000 C   0  0  0  0  0  0  0  0  0  0  0  0
    5.2589   -1.9350    0.0000 C   0  0  0  0  0  0  0  0  0  0  0  0
    6.1249   -4.8398    0.0000 C   0  0  0  0  0  0  0  0  0  0  0  0
    3.6711   -1.1260    0.0000 C   0  0  0  0  0  0  0  0  0  0  0  0
    6.1249   -5.8398    0.0000 C   0  0  0  0  0  0  0  0  0  0  0  0
    6.9910   -4.3398    0.0000 C   0  0  0  0  0  0  0  0  0  0  0  0
    4.0778   -0.2124    0.0000 C   0  0  0  0  0  0  0  0  0  0  0  0
    6.9910   -6.3398    0.0000 C   0  0  0  0  0  0  0  0  0  0  0  0
    7.8570   -4.8398    0.0000 C   0  0  0  0  0  0  0  0  0  0  0  0
    7.8570   -5.8398    0.0000 C   0  0  0  0  0  0  0  0  0  0  0  0
    3.4901    0.5966    0.0000 C   0  0  0  0  0  0  0  0  0  0  0  0
    8.7230   -6.3398    0.0000 C   0  0  0  0  0  0  0  0  0  0  0  0
    3.3090    2.3192    0.0000 C   0  0  0  0  0  0  0  0  0  0  0  0
    2.8090    3.8580    0.0000 C   0  0  0  0  0  0  0  0  0  0  0  0
    4.5691    3.5792    0.0000 C   0  0  0  0  0  0  0  0  0  0  0  0
    2.8090    4.8580    0.0000 C   0  0  0  0  0  0  0  0  0  0  0  0
    3.6180    5.4458    0.0000 C   0  0  0  0  0  0  0  0  0  0  0  0
    3.3090    6.3968    0.0000 C   0  0  0  0  0  0  0  0  0  0  0  0
    3.8968    7.2059    0.0000 C   0  0  0  0  0  0  0  0  0  0  0  0
    5.0984   -4.9387    0.0000 H   0  0  0  0  0  0  0  0  0  0  0  0
    3.6763   -4.1278    0.0000 H   0  0  0  0  0  0  0  0  0  0  0  0
    4.1512   -4.9504    0.0000 H   0  0  0  0  0  0  0  0  0  0  0  0
    5.8779   -3.4230    0.0000 H   0  0  0  0  0  0  0  0  0  0  0  0
    6.1343   -2.6338    0.0000 H   0  0  0  0  0  0  0  0  0  0  0  0
    3.3835   -2.6338    0.0000 H   0  0  0  0  0  0  0  0  0  0  0  0
    3.6399   -3.4230    0.0000 H   0  0  0  0  0  0  0  0  0  0  0  0
    5.8654   -1.8061    0.0000 H   0  0  0  0  0  0  0  0  0  0  0  0
    5.1941   -1.3184    0.0000 H   0  0  0  0  0  0  0  0  0  0  0  0
    3.1571   -0.7793    0.0000 H   0  0  0  0  0  0  0  0  0  0  0  0
    3.2404   -1.5720    0.0000 H   0  0  0  0  0  0  0  0  0  0  0  0
    5.5880   -6.1498    0.0000 H   0  0  0  0  0  0  0  0  0  0  0  0
    6.9910   -3.7198    0.0000 H   0  0  0  0  0  0  0  0  0  0  0  0
    4.5918   -0.5591    0.0000 H   0  0  0  0  0  0  0  0  0  0  0  0
    4.5085    0.2336    0.0000 H   0  0  0  0  0  0  0  0  0  0  0  0
    6.9910   -6.9598    0.0000 H   0  0  0  0  0  0  0  0  0  0  0  0
    8.3939   -4.5298    0.0000 H   0  0  0  0  0  0  0  0  0  0  0  0
    2.9761    0.9433    0.0000 H   0  0  0  0  0  0  0  0  0  0  0  0
    3.0594    0.1506    0.0000 H   0  0  0  0  0  0  0  0  0  0  0  0
    4.7607    2.9896    0.0000 H   0  0  0  0  0  0  0  0  0  0  0  0
    5.1588    3.7708    0.0000 H   0  0  0  0  0  0  0  0  0  0  0  0
    4.3775    4.1689    0.0000 H   0  0  0  0  0  0  0  0  0  0  0  0
    4.2077    5.2542    0.0000 H   0  0  0  0  0  0  0  0  0  0  0  0
    4.3984    6.8414    0.0000 H   0  0  0  0  0  0  0  0  0  0  0  0
    4.2612    7.7075    0.0000 H   0  0  0  0  0  0  0  0  0  0  0  0
    3.3952    7.5703    0.0000 H   0  0  0  0  0  0  0  0  0  0  0  0
  1 25  1  0  0  0  0
  1 27  1  0  0  0  0
  2 26  1  0  0  0  0
  3 26  1  0  0  0  0
  4 26  1  0  0  0  0
  5 10  1  0  0  0  0
  5 30  1  0  0  0  0
  6 15  1  0  0  0  0
  6 16  1  0  0  0  0
  6 18  1  0  0  0  0
  7 27  1  0  0  0  0
  7 28  1  0  0  0  0
  7 29  1  0  0  0  0
  8  9  1  0  0  0  0
  8 27  2  0  0  0  0
  9 28  2  0  0  0  0
 10 32  2  0  0  0  0
 11 12  1  0  0  0  0
 11 13  1  6  0  0  0
 11 14  1  0  0  0  0
 11 15  1  0  0  0  0
 12 13  1  0  0  0  0
 12 17  1  1  0  0  0
 12 34  1  0  0  0  0
 13 35  1  0  0  0  0
 13 36  1  0  0  0  0
 14 16  1  0  0  0  0
 14 37  1  0  0  0  0
 14 38  1  0  0  0  0
 15 39  1  0  0  0  0
 15 40  1  0  0  0  0
 16 41  1  0  0  0  0
 16 42  1  0  0  0  0
 17 19  2  0  0  0  0
 17 20  1  0  0  0  0
 18 21  1  0  0  0  0
 18 43  1  0  0  0  0
 18 44  1  0  0  0  0
 19 22  1  0  0  0  0
 19 45  1  0  0  0  0
 20 23  2  0  0  0  0
 20 46  1  0  0  0  0
 21 25  1  0  0  0  0
 21 47  1  0  0  0  0
 21 48  1  0  0  0  0
 22 24  2  0  0  0  0
 22 49  1  0  0  0  0
 23 24  1  0  0  0  0
 23 50  1  0  0  0  0
 24 26  1  0  0  0  0
 25 51  1  0  0  0  0
 25 52  1  0  0  0  0
 28 30  1  0  0  0  0
 29 53  1  0  0  0  0
 29 54  1  0  0  0  0
 29 55  1  0  0  0  0
 30 31  2  0  0  0  0
 31 32  1  0  0  0  0
 31 56  1  0  0  0  0
 32 33  1  0  0  0  0
 33 57  1  0  0  0  0
 33 58  1  0  0  0  0
 33 59  1  0  0  0  0
M  END
> <PUBCHEM_COMPOUND_CID>
121304710

> <PUBCHEM_COMPOUND_CANONICALIZED>
1

> <PUBCHEM_CACTVS_COMPLEXITY>
679

> <PUBCHEM_CACTVS_HBOND_ACCEPTOR>
9

> <PUBCHEM_CACTVS_HBOND_DONOR>
0

> <PUBCHEM_CACTVS_ROTATABLE_BOND>
7

> <PUBCHEM_CACTVS_SUBSKEYS>
AAADceB7oYBAAAAAAAAAAAAAGAAAAWLFgAAwAAAAAAAAAAAB8AAAHwQMAAAADwzF3xSzlJccEAirA6ZyZgSS0AtmIrA92CG+bNqKLrqgmbOEMYhmiBqYyUcQgMAPwAAAAAAAAACAAAAAAAAAAAAAAAAAAA==

> <PUBCHEM_IUPAC_OPENEYE_NAME>
3-methyl-5-[4-methyl-5-[3-[(2R,3S)-2-[4-(trifluoromethyl)phenyl]-5-azaspiro[2.4]heptan-5-yl]propylsulfanyl]-1,2,4-triazol-3-yl]isoxazole

> <PUBCHEM_IUPAC_CAS_NAME>
3-methyl-5-[4-methyl-5-[3-[(2R,3S)-2-[4-(trifluoromethyl)phenyl]-5-azaspiro[2.4]heptan-5-yl]propylthio]-1,2,4-triazol-3-yl]isoxazole

> <PUBCHEM_IUPAC_NAME_MARKUP>
3-methyl-5-[4-methyl-5-[3-[(2<I>R</I>,3<I>S</I>)-2-[4-(trifluoromethyl)phenyl]-5-azaspiro[2.4]heptan-5-yl]propylsulfanyl]-1,2,4-triazol-3-yl]-1,2-oxazole

> <PUBCHEM_IUPAC_NAME>
3-methyl-5-[4-methyl-5-[3-[(2R,3S)-2-[4-(trifluoromethyl)phenyl]-5-azaspiro[2.4]heptan-5-yl]propylsulfanyl]-1,2,4-triazol-3-yl]-1,2-oxazole

> <PUBCHEM_IUPAC_SYSTEMATIC_NAME>
3-methyl-5-[4-methyl-5-[3-[(2R,3S)-2-[4-(trifluoromethyl)phenyl]-5-azaspiro[2.4]heptan-5-yl]propylsulfanyl]-1,2,4-triazol-3-yl]-1,2-oxazole

> <PUBCHEM_IUPAC_TRADITIONAL_NAME>
3-methyl-5-[4-methyl-5-[3-[(2R,3S)-2-[4-(trifluoromethyl)phenyl]-5-azaspiro[2.4]heptan-5-yl]propylthio]-1,2,4-triazol-3-yl]isoxazole

> <PUBCHEM_IUPAC_INCHI>
InChI=1S/C23H26F3N5OS/c1-15-12-19(32-29-15)20-27-28-21(30(20)2)33-11-3-9-31-10-8-22(14-31)13-18(22)16-4-6-17(7-5-16)23(24,25)26/h4-7,12,18H,3,8-11,13-14H2,1-2H3/t18-,22+/m1/s1

> <PUBCHEM_IUPAC_INCHIKEY>
TXEGIIUTZDNUKA-GCJKJVERSA-N

> <PUBCHEM_XLOGP3_AA>
4.2

> <PUBCHEM_EXACT_MASS>
477.18101613

> <PUBCHEM_MOLECULAR_FORMULA>
C23H26F3N5OS

> <PUBCHEM_MOLECULAR_WEIGHT>
477.5

> <PUBCHEM_OPENEYE_CAN_SMILES>
CC1=NOC(=C1)C2=NN=C(N2C)SCCCN3CCC4(C3)CC4C5=CC=C(C=C5)C(F)(F)F

> <PUBCHEM_OPENEYE_ISO_SMILES>
CC1=NOC(=C1)C2=NN=C(N2C)SCCCN3CC[C@@]4(C3)C[C@@H]4C5=CC=C(C=C5)C(F)(F)F

> <PUBCHEM_CACTVS_TPSA>
85.3

> <PUBCHEM_MONOISOTOPIC_WEIGHT>
477.18101613

> <PUBCHEM_TOTAL_CHARGE>
0

> <PUBCHEM_HEAVY_ATOM_COUNT>
33

> <PUBCHEM_ATOM_DEF_STEREO_COUNT>
2

> <PUBCHEM_ATOM_UDEF_STEREO_COUNT>
0

> <PUBCHEM_BOND_DEF_STEREO_COUNT>
0

> <PUBCHEM_BOND_UDEF_STEREO_COUNT>
0

> <PUBCHEM_ISOTOPIC_ATOM_COUNT>
0

> <PUBCHEM_COMPONENT_COUNT>
1

> <PUBCHEM_CACTVS_TAUTO_COUNT>
-1

> <PUBCHEM_COORDINATE_TYPE>
1
5
255

> <PUBCHEM_BONDANNOTATIONS>
10  32  8
11  13  6
12  17  5
17  19  8
17  20  8
19  22  8
20  23  8
22  24  8
23  24  8
30  31  8
31  32  8
5  10  8
5  30  8
7  27  8
7  28  8
8  27  8
8  9  8
9  28  8

$$$$
