11957730
  -OEChem-09292322032D

 66 67  0     1  0  0  0  0  0999 V2000
   10.8681    5.6200    0.0000 O   0  0  0  0  0  0  0  0  0  0  0  0
    0.5369    5.6200    0.0000 O   0  0  0  0  0  0  0  0  0  0  0  0
    4.0010    3.6200    0.0000 O   0  0  0  0  0  0  0  0  0  0  0  0
    1.4030    4.1200    0.0000 O   0  0  0  0  0  0  0  0  0  0  0  0
    2.2690    3.6200    0.0000 O   0  0  0  0  0  0  0  0  0  0  0  0
    9.1360    3.6200    0.0000 N   0  0  0  0  0  0  0  0  0  0  0  0
    9.1360    6.6200    0.0000 N   0  0  3  0  0  0  0  0  0  0  0  0
   10.0021    8.1200    0.0000 N   0  0  0  0  0  0  0  0  0  0  0  0
    9.1360    5.6200    0.0000 C   0  0  0  0  0  0  0  0  0  0  0  0
    8.2700    5.1200    0.0000 C   0  0  0  0  0  0  0  0  0  0  0  0
   10.0021    5.1200    0.0000 C   0  0  0  0  0  0  0  0  0  0  0  0
    8.2700    4.1200    0.0000 C   0  0  0  0  0  0  0  0  0  0  0  0
   10.0021    4.1200    0.0000 C   0  0  0  0  0  0  0  0  0  0  0  0
    9.1360    2.6200    0.0000 C   0  0  0  0  0  0  0  0  0  0  0  0
   10.0021    7.1200    0.0000 C   0  0  0  0  0  0  0  0  0  0  0  0
    8.2700    7.1200    0.0000 C   0  0  0  0  0  0  0  0  0  0  0  0
    8.2700    2.1200    0.0000 C   0  0  0  0  0  0  0  0  0  0  0  0
   10.8681    6.6200    0.0000 C   0  0  0  0  0  0  0  0  0  0  0  0
    7.4040    2.6200    0.0000 C   0  0  0  0  0  0  0  0  0  0  0  0
    8.2700    1.1200    0.0000 C   0  0  0  0  0  0  0  0  0  0  0  0
   11.7341    7.1200    0.0000 C   0  0  0  0  0  0  0  0  0  0  0  0
   10.8681    8.6200    0.0000 C   0  0  0  0  0  0  0  0  0  0  0  0
    6.5380    2.1200    0.0000 C   0  0  0  0  0  0  0  0  0  0  0  0
    7.4040    0.6200    0.0000 C   0  0  0  0  0  0  0  0  0  0  0  0
   11.7341    8.1200    0.0000 C   0  0  0  0  0  0  0  0  0  0  0  0
   11.7341    5.1200    0.0000 C   0  0  0  0  0  0  0  0  0  0  0  0
    6.5380    1.1200    0.0000 C   0  0  0  0  0  0  0  0  0  0  0  0
   12.6002    5.6200    0.0000 C   0  0  0  0  0  0  0  0  0  0  0  0
   11.7341    4.1200    0.0000 C   0  0  0  0  0  0  0  0  0  0  0  0
    2.2690    5.6200    0.0000 C   0  0  0  0  0  0  0  0  0  0  0  0
    3.1350    5.1200    0.0000 C   0  0  0  0  0  0  0  0  0  0  0  0
    1.4030    5.1200    0.0000 C   0  0  0  0  0  0  0  0  0  0  0  0
    3.1350    4.1200    0.0000 C   0  0  0  0  0  0  0  0  0  0  0  0
    9.6730    5.9300    0.0000 H   0  0  0  0  0  0  0  0  0  0  0  0
    8.0580    5.7026    0.0000 H   0  0  0  0  0  0  0  0  0  0  0  0
    7.6594    5.0123    0.0000 H   0  0  0  0  0  0  0  0  0  0  0  0
   10.6127    5.0123    0.0000 H   0  0  0  0  0  0  0  0  0  0  0  0
   10.2141    5.7026    0.0000 H   0  0  0  0  0  0  0  0  0  0  0  0
    7.6594    4.2277    0.0000 H   0  0  0  0  0  0  0  0  0  0  0  0
    8.0580    3.5374    0.0000 H   0  0  0  0  0  0  0  0  0  0  0  0
   10.2141    3.5374    0.0000 H   0  0  0  0  0  0  0  0  0  0  0  0
   10.6127    4.2277    0.0000 H   0  0  0  0  0  0  0  0  0  0  0  0
    9.3481    2.0374    0.0000 H   0  0  0  0  0  0  0  0  0  0  0  0
    9.7466    2.7277    0.0000 H   0  0  0  0  0  0  0  0  0  0  0  0
    8.5800    7.6569    0.0000 H   0  0  0  0  0  0  0  0  0  0  0  0
    7.7331    7.4300    0.0000 H   0  0  0  0  0  0  0  0  0  0  0  0
    7.9600    6.5831    0.0000 H   0  0  0  0  0  0  0  0  0  0  0  0
    7.4040    3.2400    0.0000 H   0  0  0  0  0  0  0  0  0  0  0  0
    8.8070    0.8100    0.0000 H   0  0  0  0  0  0  0  0  0  0  0  0
   12.2711    6.8100    0.0000 H   0  0  0  0  0  0  0  0  0  0  0  0
   10.8681    9.2400    0.0000 H   0  0  0  0  0  0  0  0  0  0  0  0
    6.0010    2.4300    0.0000 H   0  0  0  0  0  0  0  0  0  0  0  0
    7.4040    0.0000    0.0000 H   0  0  0  0  0  0  0  0  0  0  0  0
   12.2711    8.4300    0.0000 H   0  0  0  0  0  0  0  0  0  0  0  0
   11.1972    4.8100    0.0000 H   0  0  0  0  0  0  0  0  0  0  0  0
    6.0010    0.8100    0.0000 H   0  0  0  0  0  0  0  0  0  0  0  0
   12.9102    5.0831    0.0000 H   0  0  0  0  0  0  0  0  0  0  0  0
   13.1371    5.9300    0.0000 H   0  0  0  0  0  0  0  0  0  0  0  0
   12.2902    6.1569    0.0000 H   0  0  0  0  0  0  0  0  0  0  0  0
   11.1141    4.1200    0.0000 H   0  0  0  0  0  0  0  0  0  0  0  0
   11.7341    3.5000    0.0000 H   0  0  0  0  0  0  0  0  0  0  0  0
   12.3541    4.1200    0.0000 H   0  0  0  0  0  0  0  0  0  0  0  0
    2.2690    6.2400    0.0000 H   0  0  0  0  0  0  0  0  0  0  0  0
    3.6720    5.4300    0.0000 H   0  0  0  0  0  0  0  0  0  0  0  0
    0.0000    5.3100    0.0000 H   0  0  0  0  0  0  0  0  0  0  0  0
    4.0010    3.0000    0.0000 H   0  0  0  0  0  0  0  0  0  0  0  0
  1 18  1  0  0  0  0
  1 26  1  0  0  0  0
  2 32  1  0  0  0  0
  2 65  1  0  0  0  0
  3 33  1  0  0  0  0
  3 66  1  0  0  0  0
  4 32  2  0  0  0  0
  5 33  2  0  0  0  0
  6 12  1  0  0  0  0
  6 13  1  0  0  0  0
  6 14  1  0  0  0  0
  7  9  1  0  0  0  0
  7 15  1  0  0  0  0
  7 16  1  0  0  0  0
  8 15  1  0  0  0  0
  8 22  2  0  0  0  0
  9 10  1  0  0  0  0
  9 11  1  0  0  0  0
  9 34  1  0  0  0  0
 10 12  1  0  0  0  0
 10 35  1  0  0  0  0
 10 36  1  0  0  0  0
 11 13  1  0  0  0  0
 11 37  1  0  0  0  0
 11 38  1  0  0  0  0
 12 39  1  0  0  0  0
 12 40  1  0  0  0  0
 13 41  1  0  0  0  0
 13 42  1  0  0  0  0
 14 17  1  0  0  0  0
 14 43  1  0  0  0  0
 14 44  1  0  0  0  0
 15 18  2  0  0  0  0
 16 45  1  0  0  0  0
 16 46  1  0  0  0  0
 16 47  1  0  0  0  0
 17 19  2  0  0  0  0
 17 20  1  0  0  0  0
 18 21  1  0  0  0  0
 19 23  1  0  0  0  0
 19 48  1  0  0  0  0
 20 24  2  0  0  0  0
 20 49  1  0  0  0  0
 21 25  2  0  0  0  0
 21 50  1  0  0  0  0
 22 25  1  0  0  0  0
 22 51  1  0  0  0  0
 23 27  2  0  0  0  0
 23 52  1  0  0  0  0
 24 27  1  0  0  0  0
 24 53  1  0  0  0  0
 25 54  1  0  0  0  0
 26 28  1  0  0  0  0
 26 29  1  0  0  0  0
 26 55  1  0  0  0  0
 27 56  1  0  0  0  0
 28 57  1  0  0  0  0
 28 58  1  0  0  0  0
 28 59  1  0  0  0  0
 29 60  1  0  0  0  0
 29 61  1  0  0  0  0
 29 62  1  0  0  0  0
 30 31  2  0  0  0  0
 30 32  1  0  0  0  0
 30 63  1  0  0  0  0
 31 33  1  0  0  0  0
 31 64  1  0  0  0  0
M  END
> <PUBCHEM_COMPOUND_CID>
11957730

> <PUBCHEM_COMPOUND_CANONICALIZED>
1

> <PUBCHEM_CACTVS_COMPLEXITY>
494

> <PUBCHEM_CACTVS_HBOND_ACCEPTOR>
8

> <PUBCHEM_CACTVS_HBOND_DONOR>
2

> <PUBCHEM_CACTVS_ROTATABLE_BOND>
8

> <PUBCHEM_CACTVS_SUBSKEYS>
AAADcfB7OAAAAAAAAAAAAAAAAAAAAAAAAAA8WIAAAAAAAAABwAAAHgAACAAADDzhmgY/vpMIFgCoAjL3bASCiCkxYiAJ2CA/bNiOJuLE+ZuHOCjswBPY+acwgAAOAAAAAAAAAAAAAAAAAAAAAAAAAAAAAA==

> <PUBCHEM_IUPAC_OPENEYE_NAME>
N-(1-benzyl-4-piperidyl)-3-isopropoxy-N-methyl-pyridin-2-amine;maleic acid

> <PUBCHEM_IUPAC_CAS_NAME>
(Z)-2-butenedioic acid;N-methyl-N-[1-(phenylmethyl)-4-piperidinyl]-3-propan-2-yloxy-2-pyridinamine

> <PUBCHEM_IUPAC_NAME_MARKUP>
<I>N</I>-(1-benzylpiperidin-4-yl)-<I>N</I>-methyl-3-propan-2-yloxypyridin-2-amine;(<I>Z</I>)-but-2-enedioic acid

> <PUBCHEM_IUPAC_NAME>
N-(1-benzylpiperidin-4-yl)-N-methyl-3-propan-2-yloxypyridin-2-amine;(Z)-but-2-enedioic acid

> <PUBCHEM_IUPAC_SYSTEMATIC_NAME>
(Z)-but-2-enedioic acid;N-methyl-N-[1-(phenylmethyl)piperidin-4-yl]-3-propan-2-yloxy-pyridin-2-amine

> <PUBCHEM_IUPAC_TRADITIONAL_NAME>
(1-benzyl-4-piperidyl)-(3-isopropoxy-2-pyridyl)-methyl-amine;maleic acid

> <PUBCHEM_IUPAC_INCHI>
InChI=1S/C21H29N3O.C4H4O4/c1-17(2)25-20-10-7-13-22-21(20)23(3)19-11-14-24(15-12-19)16-18-8-5-4-6-9-18;5-3(6)1-2-4(7)8/h4-10,13,17,19H,11-12,14-16H2,1-3H3;1-2H,(H,5,6)(H,7,8)/b;2-1-

> <PUBCHEM_IUPAC_INCHIKEY>
KPYPLDPMBWPEBO-BTJKTKAUSA-N

> <PUBCHEM_EXACT_MASS>
455.24202116

> <PUBCHEM_MOLECULAR_FORMULA>
C25H33N3O5

> <PUBCHEM_MOLECULAR_WEIGHT>
455.5

> <PUBCHEM_OPENEYE_CAN_SMILES>
CC(C)OC1=C(N=CC=C1)N(C)C2CCN(CC2)CC3=CC=CC=C3.C(=CC(=O)O)C(=O)O

> <PUBCHEM_OPENEYE_ISO_SMILES>
CC(C)OC1=C(N=CC=C1)N(C)C2CCN(CC2)CC3=CC=CC=C3.C(=C\C(=O)O)\C(=O)O

> <PUBCHEM_CACTVS_TPSA>
103

> <PUBCHEM_MONOISOTOPIC_WEIGHT>
455.24202116

> <PUBCHEM_TOTAL_CHARGE>
0

> <PUBCHEM_HEAVY_ATOM_COUNT>
33

> <PUBCHEM_ATOM_DEF_STEREO_COUNT>
0

> <PUBCHEM_ATOM_UDEF_STEREO_COUNT>
0

> <PUBCHEM_BOND_DEF_STEREO_COUNT>
1

> <PUBCHEM_BOND_UDEF_STEREO_COUNT>
0

> <PUBCHEM_ISOTOPIC_ATOM_COUNT>
0

> <PUBCHEM_COMPONENT_COUNT>
2

> <PUBCHEM_CACTVS_TAUTO_COUNT>
-1

> <PUBCHEM_COORDINATE_TYPE>
1
5
255

> <PUBCHEM_BONDANNOTATIONS>
15  18  8
17  19  8
17  20  8
18  21  8
19  23  8
20  24  8
21  25  8
22  25  8
23  27  8
24  27  8
8  15  8
8  22  8

$$$$
