44415837
  -OEChem-09292322282D

 62 66  0     0  0  0  0  0  0999 V2000
    9.0701    0.2666    0.0000 Cl  0  0  0  0  0  0  0  0  0  0  0  0
    4.3666   -3.5604    0.0000 Cl  0  0  0  0  0  0  0  0  0  0  0  0
    6.9647   -2.0604    0.0000 O   0  0  0  0  0  0  0  0  0  0  0  0
    3.4311    3.8332    0.0000 N   0  0  0  0  0  0  0  0  0  0  0  0
    4.2988    2.0312    0.0000 N   0  0  0  0  0  0  0  0  0  0  0  0
    5.7327    1.1303    0.0000 N   0  0  0  0  0  0  0  0  0  0  0  0
    5.2327   -1.0604    0.0000 N   0  0  0  0  0  0  0  0  0  0  0  0
    5.2327   -2.0604    0.0000 N   0  0  0  0  0  0  0  0  0  0  0  0
    4.4283    3.7584    0.0000 C   0  0  0  0  0  0  0  0  0  0  0  0
    2.8678    3.0069    0.0000 C   0  0  0  0  0  0  0  0  0  0  0  0
    4.8622    2.8575    0.0000 C   0  0  0  0  0  0  0  0  0  0  0  0
    3.3016    2.1060    0.0000 C   0  0  0  0  0  0  0  0  0  0  0  0
    2.9972    4.7342    0.0000 C   0  0  0  0  0  0  0  0  0  0  0  0
    4.7327    1.1303    0.0000 C   0  0  0  0  0  0  0  0  0  0  0  0
    3.5605    5.5604    0.0000 C   0  0  0  0  0  0  0  0  0  0  0  0
    2.0000    4.8089    0.0000 C   0  0  0  0  0  0  0  0  0  0  0  0
    4.1092    0.3484    0.0000 C   0  0  0  0  0  0  0  0  0  0  0  0
    4.3317   -0.6265    0.0000 C   0  0  0  0  0  0  0  0  0  0  0  0
    6.3562    0.3484    0.0000 C   0  0  0  0  0  0  0  0  0  0  0  0
    6.1337   -0.6265    0.0000 C   0  0  0  0  0  0  0  0  0  0  0  0
    3.1187    0.6708    0.0000 C   0  0  0  0  0  0  0  0  0  0  0  0
    3.5792   -1.3467    0.0000 C   0  0  0  0  0  0  0  0  0  0  0  0
    2.3497   -0.0318    0.0000 C   0  0  0  0  0  0  0  0  0  0  0  0
    7.3467    0.6708    0.0000 C   0  0  0  0  0  0  0  0  0  0  0  0
    2.5815   -1.0473    0.0000 C   0  0  0  0  0  0  0  0  0  0  0  0
    6.8862   -1.3467    0.0000 C   0  0  0  0  0  0  0  0  0  0  0  0
    8.1157   -0.0318    0.0000 C   0  0  0  0  0  0  0  0  0  0  0  0
    7.8839   -1.0474    0.0000 C   0  0  0  0  0  0  0  0  0  0  0  0
    6.0987   -2.5604    0.0000 C   0  0  0  0  0  0  0  0  0  0  0  0
    6.0987   -3.5604    0.0000 C   0  0  0  0  0  0  0  0  0  0  0  0
    5.2327   -4.0604    0.0000 C   0  0  0  0  0  0  0  0  0  0  0  0
    6.9647   -4.0604    0.0000 C   0  0  0  0  0  0  0  0  0  0  0  0
    5.2327   -5.0604    0.0000 C   0  0  0  0  0  0  0  0  0  0  0  0
    6.9647   -5.0604    0.0000 C   0  0  0  0  0  0  0  0  0  0  0  0
    6.0987   -5.5604    0.0000 C   0  0  0  0  0  0  0  0  0  0  0  0
    5.0251    3.9264    0.0000 H   0  0  0  0  0  0  0  0  0  0  0  0
    4.3666    4.3754    0.0000 H   0  0  0  0  0  0  0  0  0  0  0  0
    2.4239    3.4399    0.0000 H   0  0  0  0  0  0  0  0  0  0  0  0
    2.3644    2.6450    0.0000 H   0  0  0  0  0  0  0  0  0  0  0  0
    5.3060    2.4246    0.0000 H   0  0  0  0  0  0  0  0  0  0  0  0
    5.3656    3.2194    0.0000 H   0  0  0  0  0  0  0  0  0  0  0  0
    2.7048    1.9381    0.0000 H   0  0  0  0  0  0  0  0  0  0  0  0
    3.3634    1.4891    0.0000 H   0  0  0  0  0  0  0  0  0  0  0  0
    2.7282    5.2928    0.0000 H   0  0  0  0  0  0  0  0  0  0  0  0
    4.0728    5.2111    0.0000 H   0  0  0  0  0  0  0  0  0  0  0  0
    3.9098    6.0726    0.0000 H   0  0  0  0  0  0  0  0  0  0  0  0
    3.0483    5.9096    0.0000 H   0  0  0  0  0  0  0  0  0  0  0  0
    2.0463    5.4272    0.0000 H   0  0  0  0  0  0  0  0  0  0  0  0
    1.3817    4.8552    0.0000 H   0  0  0  0  0  0  0  0  0  0  0  0
    1.9537    4.1906    0.0000 H   0  0  0  0  0  0  0  0  0  0  0  0
    2.9878    1.2768    0.0000 H   0  0  0  0  0  0  0  0  0  0  0  0
    3.7241   -1.9495    0.0000 H   0  0  0  0  0  0  0  0  0  0  0  0
    1.7580    0.1532    0.0000 H   0  0  0  0  0  0  0  0  0  0  0  0
    7.4777    1.2768    0.0000 H   0  0  0  0  0  0  0  0  0  0  0  0
    2.1286   -1.4708    0.0000 H   0  0  0  0  0  0  0  0  0  0  0  0
    6.7413   -1.9495    0.0000 H   0  0  0  0  0  0  0  0  0  0  0  0
    4.6958   -2.3704    0.0000 H   0  0  0  0  0  0  0  0  0  0  0  0
    8.3368   -1.4708    0.0000 H   0  0  0  0  0  0  0  0  0  0  0  0
    7.5017   -3.7504    0.0000 H   0  0  0  0  0  0  0  0  0  0  0  0
    4.6957   -5.3704    0.0000 H   0  0  0  0  0  0  0  0  0  0  0  0
    7.5016   -5.3704    0.0000 H   0  0  0  0  0  0  0  0  0  0  0  0
    6.0987   -6.1804    0.0000 H   0  0  0  0  0  0  0  0  0  0  0  0
  1 27  1  0  0  0  0
  2 31  1  0  0  0  0
  3 29  2  0  0  0  0
  4  9  1  0  0  0  0
  4 10  1  0  0  0  0
  4 13  1  0  0  0  0
  5 11  1  0  0  0  0
  5 12  1  0  0  0  0
  5 14  1  0  0  0  0
  6 14  2  0  0  0  0
  6 19  1  0  0  0  0
  7  8  1  0  0  0  0
  7 18  1  0  0  0  0
  7 20  1  0  0  0  0
  8 29  1  0  0  0  0
  8 57  1  0  0  0  0
  9 11  1  0  0  0  0
  9 36  1  0  0  0  0
  9 37  1  0  0  0  0
 10 12  1  0  0  0  0
 10 38  1  0  0  0  0
 10 39  1  0  0  0  0
 11 40  1  0  0  0  0
 11 41  1  0  0  0  0
 12 42  1  0  0  0  0
 12 43  1  0  0  0  0
 13 15  1  0  0  0  0
 13 16  1  0  0  0  0
 13 44  1  0  0  0  0
 14 17  1  0  0  0  0
 15 45  1  0  0  0  0
 15 46  1  0  0  0  0
 15 47  1  0  0  0  0
 16 48  1  0  0  0  0
 16 49  1  0  0  0  0
 16 50  1  0  0  0  0
 17 18  1  0  0  0  0
 17 21  2  0  0  0  0
 18 22  2  0  0  0  0
 19 20  2  0  0  0  0
 19 24  1  0  0  0  0
 20 26  1  0  0  0  0
 21 23  1  0  0  0  0
 21 51  1  0  0  0  0
 22 25  1  0  0  0  0
 22 52  1  0  0  0  0
 23 25  2  0  0  0  0
 23 53  1  0  0  0  0
 24 27  2  0  0  0  0
 24 54  1  0  0  0  0
 25 55  1  0  0  0  0
 26 28  2  0  0  0  0
 26 56  1  0  0  0  0
 27 28  1  0  0  0  0
 28 58  1  0  0  0  0
 29 30  1  0  0  0  0
 30 31  1  0  0  0  0
 30 32  2  0  0  0  0
 31 33  2  0  0  0  0
 32 34  1  0  0  0  0
 32 59  1  0  0  0  0
 33 35  1  0  0  0  0
 33 60  1  0  0  0  0
 34 35  2  0  0  0  0
 34 61  1  0  0  0  0
 35 62  1  0  0  0  0
M  END
> <PUBCHEM_COMPOUND_CID>
44415837

> <PUBCHEM_COMPOUND_CANONICALIZED>
1

> <PUBCHEM_CACTVS_COMPLEXITY>
771

> <PUBCHEM_CACTVS_HBOND_ACCEPTOR>
4

> <PUBCHEM_CACTVS_HBOND_DONOR>
1

> <PUBCHEM_CACTVS_ROTATABLE_BOND>
4

> <PUBCHEM_CACTVS_SUBSKEYS>
AAADceB7oAAGAAAAAAAAAAAAAAAAAAAAAAA8YMEABAAAAAABUAAAHgIYAAAADCrBmCQzwINiAACoAidydACCBAElBwAbqAEodtgIYPLB35GUIQhggADIzYcYiACOAABAAAIDACAAAIAABAYAQAAAAAAAAA==

> <PUBCHEM_IUPAC_OPENEYE_NAME>
2-chloro-N-[3-chloro-6-(4-isopropylpiperazin-1-yl)benzo[b][1,4]benzodiazepin-11-yl]benzamide

> <PUBCHEM_IUPAC_CAS_NAME>
2-chloro-N-[3-chloro-6-(4-propan-2-yl-1-piperazinyl)-11-benzo[b][1,4]benzodiazepinyl]benzamide

> <PUBCHEM_IUPAC_NAME_MARKUP>
2-chloro-<I>N</I>-[3-chloro-6-(4-propan-2-ylpiperazin-1-yl)benzo[b][1,4]benzodiazepin-11-yl]benzamide

> <PUBCHEM_IUPAC_NAME>
2-chloro-N-[3-chloro-6-(4-propan-2-ylpiperazin-1-yl)benzo[b][1,4]benzodiazepin-11-yl]benzamide

> <PUBCHEM_IUPAC_SYSTEMATIC_NAME>
2-chloranyl-N-[3-chloranyl-6-(4-propan-2-ylpiperazin-1-yl)benzo[b][1,4]benzodiazepin-11-yl]benzamide

> <PUBCHEM_IUPAC_TRADITIONAL_NAME>
2-chloro-N-[3-chloro-6-(4-isopropylpiperazino)benzo[b][1,4]benzodiazepin-11-yl]benzamide

> <PUBCHEM_IUPAC_INCHI>
InChI=1S/C27H27Cl2N5O/c1-18(2)32-13-15-33(16-14-32)26-21-8-4-6-10-24(21)34(25-12-11-19(28)17-23(25)30-26)31-27(35)20-7-3-5-9-22(20)29/h3-12,17-18H,13-16H2,1-2H3,(H,31,35)

> <PUBCHEM_IUPAC_INCHIKEY>
PRDAXZPQPYWOJJ-UHFFFAOYSA-N

> <PUBCHEM_XLOGP3_AA>
5.8

> <PUBCHEM_EXACT_MASS>
507.1592659

> <PUBCHEM_MOLECULAR_FORMULA>
C27H27Cl2N5O

> <PUBCHEM_MOLECULAR_WEIGHT>
508.4

> <PUBCHEM_OPENEYE_CAN_SMILES>
CC(C)N1CCN(CC1)C2=NC3=C(C=CC(=C3)Cl)N(C4=CC=CC=C42)NC(=O)C5=CC=CC=C5Cl

> <PUBCHEM_OPENEYE_ISO_SMILES>
CC(C)N1CCN(CC1)C2=NC3=C(C=CC(=C3)Cl)N(C4=CC=CC=C42)NC(=O)C5=CC=CC=C5Cl

> <PUBCHEM_CACTVS_TPSA>
51.2

> <PUBCHEM_MONOISOTOPIC_WEIGHT>
507.1592659

> <PUBCHEM_TOTAL_CHARGE>
0

> <PUBCHEM_HEAVY_ATOM_COUNT>
35

> <PUBCHEM_ATOM_DEF_STEREO_COUNT>
0

> <PUBCHEM_ATOM_UDEF_STEREO_COUNT>
0

> <PUBCHEM_BOND_DEF_STEREO_COUNT>
0

> <PUBCHEM_BOND_UDEF_STEREO_COUNT>
0

> <PUBCHEM_ISOTOPIC_ATOM_COUNT>
0

> <PUBCHEM_COMPONENT_COUNT>
1

> <PUBCHEM_CACTVS_TAUTO_COUNT>
-1

> <PUBCHEM_COORDINATE_TYPE>
1
5
255

> <PUBCHEM_BONDANNOTATIONS>
17  18  8
17  21  8
18  22  8
19  20  8
19  24  8
20  26  8
21  23  8
22  25  8
23  25  8
24  27  8
26  28  8
27  28  8
30  31  8
30  32  8
31  33  8
32  34  8
33  35  8
34  35  8

$$$$
