44340376
  -OEChem-09292322192D

 54 57  0     1  0  0  0  0  0999 V2000
   10.8031    1.8807    0.0000 Br  0  0  0  0  0  0  0  0  0  0  0  0
    9.0710   -2.1193    0.0000 O   0  0  0  0  0  0  0  0  0  0  0  0
   10.8031   -2.1193    0.0000 O   0  0  0  0  0  0  0  0  0  0  0  0
    5.3903    0.5831    0.0000 N   0  0  3  0  0  0  0  0  0  0  0  0
    8.2050   -0.6193    0.0000 N   0  0  0  0  0  0  0  0  0  0  0  0
    6.4730   -0.6193    0.0000 C   0  0  2  0  0  0  0  0  0  0  0  0
    5.5594   -1.0260    0.0000 C   0  0  0  0  0  0  0  0  0  0  0  0
    6.3684    0.3752    0.0000 C   0  0  0  0  0  0  0  0  0  0  0  0
    4.8903   -0.2829    0.0000 C   0  0  0  0  0  0  0  0  0  0  0  0
    7.3390   -1.1193    0.0000 C   0  0  0  0  0  0  0  0  0  0  0  0
    4.9836    1.4967    0.0000 C   0  0  0  0  0  0  0  0  0  0  0  0
    3.9890    1.6012    0.0000 C   0  0  0  0  0  0  0  0  0  0  0  0
    9.0710   -1.1193    0.0000 C   0  0  0  0  0  0  0  0  0  0  0  0
    3.4013    0.7922    0.0000 C   0  0  0  0  0  0  0  0  0  0  0  0
    3.5823    2.5148    0.0000 C   0  0  0  0  0  0  0  0  0  0  0  0
    9.9371   -0.6193    0.0000 C   0  0  0  0  0  0  0  0  0  0  0  0
    2.4067    0.8967    0.0000 C   0  0  0  0  0  0  0  0  0  0  0  0
    2.5878    2.6193    0.0000 C   0  0  0  0  0  0  0  0  0  0  0  0
   10.8031   -1.1193    0.0000 C   0  0  0  0  0  0  0  0  0  0  0  0
    9.9371    0.3807    0.0000 C   0  0  0  0  0  0  0  0  0  0  0  0
    2.0000    1.8103    0.0000 C   0  0  0  0  0  0  0  0  0  0  0  0
   11.6691   -0.6193    0.0000 C   0  0  0  0  0  0  0  0  0  0  0  0
   11.6691    0.3807    0.0000 C   0  0  0  0  0  0  0  0  0  0  0  0
   10.8031    0.8807    0.0000 C   0  0  0  0  0  0  0  0  0  0  0  0
   12.5631   -1.1540    0.0000 C   0  0  0  0  0  0  0  0  0  0  0  0
   12.5631    0.9154    0.0000 C   0  0  0  0  0  0  0  0  0  0  0  0
   13.4691   -0.6401    0.0000 C   0  0  0  0  0  0  0  0  0  0  0  0
   13.4691    0.4015    0.0000 C   0  0  0  0  0  0  0  0  0  0  0  0
   11.6691   -2.6193    0.0000 C   0  0  0  0  0  0  0  0  0  0  0  0
    6.9930   -0.2816    0.0000 H   0  0  0  0  0  0  0  0  0  0  0  0
    5.0578   -1.3904    0.0000 H   0  0  0  0  0  0  0  0  0  0  0  0
    5.8694   -1.5630    0.0000 H   0  0  0  0  0  0  0  0  0  0  0  0
    6.9884    0.3752    0.0000 H   0  0  0  0  0  0  0  0  0  0  0  0
    6.4333    0.9918    0.0000 H   0  0  0  0  0  0  0  0  0  0  0  0
    4.3887    0.0815    0.0000 H   0  0  0  0  0  0  0  0  0  0  0  0
    4.4754   -0.7436    0.0000 H   0  0  0  0  0  0  0  0  0  0  0  0
    6.9405   -1.5942    0.0000 H   0  0  0  0  0  0  0  0  0  0  0  0
    7.7375   -1.5942    0.0000 H   0  0  0  0  0  0  0  0  0  0  0  0
    5.5851    1.6467    0.0000 H   0  0  0  0  0  0  0  0  0  0  0  0
    4.9403    2.1152    0.0000 H   0  0  0  0  0  0  0  0  0  0  0  0
    8.2050    0.0007    0.0000 H   0  0  0  0  0  0  0  0  0  0  0  0
    3.6534    0.2258    0.0000 H   0  0  0  0  0  0  0  0  0  0  0  0
    3.9467    3.0164    0.0000 H   0  0  0  0  0  0  0  0  0  0  0  0
    2.0423    0.3951    0.0000 H   0  0  0  0  0  0  0  0  0  0  0  0
    2.3356    3.1857    0.0000 H   0  0  0  0  0  0  0  0  0  0  0  0
    9.4001    0.6907    0.0000 H   0  0  0  0  0  0  0  0  0  0  0  0
    1.3834    1.8751    0.0000 H   0  0  0  0  0  0  0  0  0  0  0  0
   12.5559   -1.7739    0.0000 H   0  0  0  0  0  0  0  0  0  0  0  0
   12.5559    1.5353    0.0000 H   0  0  0  0  0  0  0  0  0  0  0  0
   14.0049   -0.9522    0.0000 H   0  0  0  0  0  0  0  0  0  0  0  0
   14.0049    0.7136    0.0000 H   0  0  0  0  0  0  0  0  0  0  0  0
   11.3591   -3.1562    0.0000 H   0  0  0  0  0  0  0  0  0  0  0  0
   12.2061   -2.9293    0.0000 H   0  0  0  0  0  0  0  0  0  0  0  0
   11.9791   -2.0824    0.0000 H   0  0  0  0  0  0  0  0  0  0  0  0
  1 24  1  0  0  0  0
  2 13  2  0  0  0  0
  3 19  1  0  0  0  0
  3 29  1  0  0  0  0
  4  8  1  0  0  0  0
  4  9  1  0  0  0  0
  4 11  1  0  0  0  0
  5 10  1  0  0  0  0
  5 13  1  0  0  0  0
  5 41  1  0  0  0  0
  6  7  1  0  0  0  0
  6  8  1  0  0  0  0
  6 10  1  6  0  0  0
  6 30  1  0  0  0  0
  7  9  1  0  0  0  0
  7 31  1  0  0  0  0
  7 32  1  0  0  0  0
  8 33  1  0  0  0  0
  8 34  1  0  0  0  0
  9 35  1  0  0  0  0
  9 36  1  0  0  0  0
 10 37  1  0  0  0  0
 10 38  1  0  0  0  0
 11 12  1  0  0  0  0
 11 39  1  0  0  0  0
 11 40  1  0  0  0  0
 12 14  2  0  0  0  0
 12 15  1  0  0  0  0
 13 16  1  0  0  0  0
 14 17  1  0  0  0  0
 14 42  1  0  0  0  0
 15 18  2  0  0  0  0
 15 43  1  0  0  0  0
 16 19  2  0  0  0  0
 16 20  1  0  0  0  0
 17 21  2  0  0  0  0
 17 44  1  0  0  0  0
 18 21  1  0  0  0  0
 18 45  1  0  0  0  0
 19 22  1  0  0  0  0
 20 24  2  0  0  0  0
 20 46  1  0  0  0  0
 21 47  1  0  0  0  0
 22 23  1  0  0  0  0
 22 25  2  0  0  0  0
 23 24  1  0  0  0  0
 23 26  2  0  0  0  0
 25 27  1  0  0  0  0
 25 48  1  0  0  0  0
 26 28  1  0  0  0  0
 26 49  1  0  0  0  0
 27 28  2  0  0  0  0
 27 50  1  0  0  0  0
 28 51  1  0  0  0  0
 29 52  1  0  0  0  0
 29 53  1  0  0  0  0
 29 54  1  0  0  0  0
M  END
> <PUBCHEM_COMPOUND_CID>
44340376

> <PUBCHEM_COMPOUND_CANONICALIZED>
1

> <PUBCHEM_CACTVS_COMPLEXITY>
539

> <PUBCHEM_CACTVS_HBOND_ACCEPTOR>
3

> <PUBCHEM_CACTVS_HBOND_DONOR>
1

> <PUBCHEM_CACTVS_ROTATABLE_BOND>
6

> <PUBCHEM_CACTVS_SUBSKEYS>
AAADceB7MAAAEAAAAAAAAAAAAAAAAWAAAAAwYMAAAAAAAADBVAAAHgBQAAABrQTBmAYyBsPABACIAiFSEACCCAAkIAQIiIEMDOgMJjaE9RuEMWhm9hGIq5eYyPCOwBADEAAYgACAIAYgADEAAAAAAAAAAA==

> <PUBCHEM_IUPAC_OPENEYE_NAME>
N-[[(3S)-1-benzylpyrrolidin-3-yl]methyl]-4-bromo-1-methoxy-naphthalene-2-carboxamide

> <PUBCHEM_IUPAC_CAS_NAME>
4-bromo-1-methoxy-N-[[(3S)-1-(phenylmethyl)-3-pyrrolidinyl]methyl]-2-naphthalenecarboxamide

> <PUBCHEM_IUPAC_NAME_MARKUP>
<I>N</I>-[[(3<I>S</I>)-1-benzylpyrrolidin-3-yl]methyl]-4-bromo-1-methoxynaphthalene-2-carboxamide

> <PUBCHEM_IUPAC_NAME>
N-[[(3S)-1-benzylpyrrolidin-3-yl]methyl]-4-bromo-1-methoxynaphthalene-2-carboxamide

> <PUBCHEM_IUPAC_SYSTEMATIC_NAME>
4-bromanyl-1-methoxy-N-[[(3S)-1-(phenylmethyl)pyrrolidin-3-yl]methyl]naphthalene-2-carboxamide

> <PUBCHEM_IUPAC_TRADITIONAL_NAME>
N-[[(3S)-1-benzylpyrrolidin-3-yl]methyl]-4-bromo-1-methoxy-2-naphthamide

> <PUBCHEM_IUPAC_INCHI>
InChI=1S/C24H25BrN2O2/c1-29-23-20-10-6-5-9-19(20)22(25)13-21(23)24(28)26-14-18-11-12-27(16-18)15-17-7-3-2-4-8-17/h2-10,13,18H,11-12,14-16H2,1H3,(H,26,28)/t18-/m0/s1

> <PUBCHEM_IUPAC_INCHIKEY>
CNAWUGXPLJMOSN-SFHVURJKSA-N

> <PUBCHEM_XLOGP3_AA>
5

> <PUBCHEM_EXACT_MASS>
452.10994

> <PUBCHEM_MOLECULAR_FORMULA>
C24H25BrN2O2

> <PUBCHEM_MOLECULAR_WEIGHT>
453.4

> <PUBCHEM_OPENEYE_CAN_SMILES>
COC1=C(C=C(C2=CC=CC=C21)Br)C(=O)NCC3CCN(C3)CC4=CC=CC=C4

> <PUBCHEM_OPENEYE_ISO_SMILES>
COC1=C(C=C(C2=CC=CC=C21)Br)C(=O)NC[C@@H]3CCN(C3)CC4=CC=CC=C4

> <PUBCHEM_CACTVS_TPSA>
41.6

> <PUBCHEM_MONOISOTOPIC_WEIGHT>
452.10994

> <PUBCHEM_TOTAL_CHARGE>
0

> <PUBCHEM_HEAVY_ATOM_COUNT>
29

> <PUBCHEM_ATOM_DEF_STEREO_COUNT>
1

> <PUBCHEM_ATOM_UDEF_STEREO_COUNT>
0

> <PUBCHEM_BOND_DEF_STEREO_COUNT>
0

> <PUBCHEM_BOND_UDEF_STEREO_COUNT>
0

> <PUBCHEM_ISOTOPIC_ATOM_COUNT>
0

> <PUBCHEM_COMPONENT_COUNT>
1

> <PUBCHEM_CACTVS_TAUTO_COUNT>
-1

> <PUBCHEM_COORDINATE_TYPE>
1
5
255

> <PUBCHEM_BONDANNOTATIONS>
12  14  8
12  15  8
14  17  8
15  18  8
16  19  8
16  20  8
17  21  8
18  21  8
19  22  8
20  24  8
22  23  8
22  25  8
23  24  8
23  26  8
25  27  8
26  28  8
27  28  8
6  10  6

$$$$
