90466425
  -OEChem-09292322002D

 71 74  0     0  0  0  0  0  0999 V2000
    4.5981    6.4050    0.0000 O   0  0  0  0  0  0  0  0  0  0  0  0
    5.4641   -2.0950    0.0000 O   0  0  0  0  0  0  0  0  0  0  0  0
    6.3301   -0.5950    0.0000 O   0  0  0  0  0  0  0  0  0  0  0  0
    4.5981   -6.5950    0.0000 O   0  0  0  0  0  0  0  0  0  0  0  0
    2.8660    3.4050    0.0000 N   0  0  0  0  0  0  0  0  0  0  0  0
    2.8660    5.4050    0.0000 N   0  0  0  0  0  0  0  0  0  0  0  0
    4.5981   -0.5950    0.0000 N   0  0  0  0  0  0  0  0  0  0  0  0
    5.4641   -8.0950    0.0000 N   0  0  0  0  0  0  0  0  0  0  0  0
    2.0000    3.9050    0.0000 C   0  0  0  0  0  0  0  0  0  0  0  0
    3.7320    3.9050    0.0000 C   0  0  0  0  0  0  0  0  0  0  0  0
    2.0000    4.9050    0.0000 C   0  0  0  0  0  0  0  0  0  0  0  0
    3.7320    4.9050    0.0000 C   0  0  0  0  0  0  0  0  0  0  0  0
    2.8660    2.4050    0.0000 C   0  0  0  0  0  0  0  0  0  0  0  0
    3.7320    1.9050    0.0000 C   0  0  0  0  0  0  0  0  0  0  0  0
    2.8660    6.4050    0.0000 C   0  0  0  0  0  0  0  0  0  0  0  0
    3.7320    0.9050    0.0000 C   0  0  0  0  0  0  0  0  0  0  0  0
    4.5981    0.4050    0.0000 C   0  0  0  0  0  0  0  0  0  0  0  0
    3.7320    6.9050    0.0000 C   0  0  0  0  0  0  0  0  0  0  0  0
    2.0000    6.9050    0.0000 C   0  0  0  0  0  0  0  0  0  0  0  0
    3.7320    7.9050    0.0000 C   0  0  0  0  0  0  0  0  0  0  0  0
    2.0000    7.9050    0.0000 C   0  0  0  0  0  0  0  0  0  0  0  0
    2.8660    8.4050    0.0000 C   0  0  0  0  0  0  0  0  0  0  0  0
    5.4641   -1.0950    0.0000 C   0  0  0  0  0  0  0  0  0  0  0  0
    5.4641    6.9050    0.0000 C   0  0  0  0  0  0  0  0  0  0  0  0
    6.3301   -2.5950    0.0000 C   0  0  0  0  0  0  0  0  0  0  0  0
    7.1962   -4.0950    0.0000 C   0  0  0  0  0  0  0  0  0  0  0  0
    6.3301   -3.5950    0.0000 C   0  0  0  0  0  0  0  0  0  0  0  0
    7.1962   -5.0950    0.0000 C   0  0  0  0  0  0  0  0  0  0  0  0
    7.1962   -2.0950    0.0000 C   0  0  0  0  0  0  0  0  0  0  0  0
    8.0622   -3.5950    0.0000 C   0  0  0  0  0  0  0  0  0  0  0  0
    8.0622   -2.5950    0.0000 C   0  0  0  0  0  0  0  0  0  0  0  0
    6.3301   -5.5950    0.0000 C   0  0  0  0  0  0  0  0  0  0  0  0
    8.0622   -5.5950    0.0000 C   0  0  0  0  0  0  0  0  0  0  0  0
    6.3301   -6.5950    0.0000 C   0  0  0  0  0  0  0  0  0  0  0  0
    8.0622   -6.5950    0.0000 C   0  0  0  0  0  0  0  0  0  0  0  0
    7.1962   -7.0950    0.0000 C   0  0  0  0  0  0  0  0  0  0  0  0
    5.4641   -7.0950    0.0000 C   0  0  0  0  0  0  0  0  0  0  0  0
    1.3894    4.0127    0.0000 H   0  0  0  0  0  0  0  0  0  0  0  0
    1.7880    3.3224    0.0000 H   0  0  0  0  0  0  0  0  0  0  0  0
    3.9441    3.3224    0.0000 H   0  0  0  0  0  0  0  0  0  0  0  0
    4.3426    4.0127    0.0000 H   0  0  0  0  0  0  0  0  0  0  0  0
    1.7880    5.4876    0.0000 H   0  0  0  0  0  0  0  0  0  0  0  0
    1.3894    4.7973    0.0000 H   0  0  0  0  0  0  0  0  0  0  0  0
    4.3426    4.7973    0.0000 H   0  0  0  0  0  0  0  0  0  0  0  0
    3.9441    5.4876    0.0000 H   0  0  0  0  0  0  0  0  0  0  0  0
    2.2554    2.5127    0.0000 H   0  0  0  0  0  0  0  0  0  0  0  0
    2.6540    1.8224    0.0000 H   0  0  0  0  0  0  0  0  0  0  0  0
    4.3426    1.7973    0.0000 H   0  0  0  0  0  0  0  0  0  0  0  0
    3.9441    2.4876    0.0000 H   0  0  0  0  0  0  0  0  0  0  0  0
    3.1215    1.0127    0.0000 H   0  0  0  0  0  0  0  0  0  0  0  0
    3.5200    0.3224    0.0000 H   0  0  0  0  0  0  0  0  0  0  0  0
    5.2087    0.2973    0.0000 H   0  0  0  0  0  0  0  0  0  0  0  0
    4.8101    0.9876    0.0000 H   0  0  0  0  0  0  0  0  0  0  0  0
    1.4631    6.5950    0.0000 H   0  0  0  0  0  0  0  0  0  0  0  0
    4.2690    8.2150    0.0000 H   0  0  0  0  0  0  0  0  0  0  0  0
    1.4631    8.2150    0.0000 H   0  0  0  0  0  0  0  0  0  0  0  0
    4.0611   -0.9050    0.0000 H   0  0  0  0  0  0  0  0  0  0  0  0
    2.8660    9.0250    0.0000 H   0  0  0  0  0  0  0  0  0  0  0  0
    5.7741    6.3681    0.0000 H   0  0  0  0  0  0  0  0  0  0  0  0
    6.0010    7.2150    0.0000 H   0  0  0  0  0  0  0  0  0  0  0  0
    5.1541    7.4419    0.0000 H   0  0  0  0  0  0  0  0  0  0  0  0
    5.7932   -3.9050    0.0000 H   0  0  0  0  0  0  0  0  0  0  0  0
    7.1962   -1.4750    0.0000 H   0  0  0  0  0  0  0  0  0  0  0  0
    8.5991   -3.9050    0.0000 H   0  0  0  0  0  0  0  0  0  0  0  0
    8.5991   -2.2850    0.0000 H   0  0  0  0  0  0  0  0  0  0  0  0
    5.7932   -5.2850    0.0000 H   0  0  0  0  0  0  0  0  0  0  0  0
    8.5991   -5.2850    0.0000 H   0  0  0  0  0  0  0  0  0  0  0  0
    8.5991   -6.9050    0.0000 H   0  0  0  0  0  0  0  0  0  0  0  0
    7.1962   -7.7150    0.0000 H   0  0  0  0  0  0  0  0  0  0  0  0
    4.9272   -8.4050    0.0000 H   0  0  0  0  0  0  0  0  0  0  0  0
    6.0010   -8.4050    0.0000 H   0  0  0  0  0  0  0  0  0  0  0  0
  1 18  1  0  0  0  0
  1 24  1  0  0  0  0
  2 23  1  0  0  0  0
  2 25  1  0  0  0  0
  3 23  2  0  0  0  0
  4 37  2  0  0  0  0
  5  9  1  0  0  0  0
  5 10  1  0  0  0  0
  5 13  1  0  0  0  0
  6 11  1  0  0  0  0
  6 12  1  0  0  0  0
  6 15  1  0  0  0  0
  7 17  1  0  0  0  0
  7 23  1  0  0  0  0
  7 57  1  0  0  0  0
  8 37  1  0  0  0  0
  8 70  1  0  0  0  0
  8 71  1  0  0  0  0
  9 11  1  0  0  0  0
  9 38  1  0  0  0  0
  9 39  1  0  0  0  0
 10 12  1  0  0  0  0
 10 40  1  0  0  0  0
 10 41  1  0  0  0  0
 11 42  1  0  0  0  0
 11 43  1  0  0  0  0
 12 44  1  0  0  0  0
 12 45  1  0  0  0  0
 13 14  1  0  0  0  0
 13 46  1  0  0  0  0
 13 47  1  0  0  0  0
 14 16  1  0  0  0  0
 14 48  1  0  0  0  0
 14 49  1  0  0  0  0
 15 18  1  0  0  0  0
 15 19  2  0  0  0  0
 16 17  1  0  0  0  0
 16 50  1  0  0  0  0
 16 51  1  0  0  0  0
 17 52  1  0  0  0  0
 17 53  1  0  0  0  0
 18 20  2  0  0  0  0
 19 21  1  0  0  0  0
 19 54  1  0  0  0  0
 20 22  1  0  0  0  0
 20 55  1  0  0  0  0
 21 22  2  0  0  0  0
 21 56  1  0  0  0  0
 22 58  1  0  0  0  0
 24 59  1  0  0  0  0
 24 60  1  0  0  0  0
 24 61  1  0  0  0  0
 25 27  1  0  0  0  0
 25 29  2  0  0  0  0
 26 27  2  0  0  0  0
 26 28  1  0  0  0  0
 26 30  1  0  0  0  0
 27 62  1  0  0  0  0
 28 32  2  0  0  0  0
 28 33  1  0  0  0  0
 29 31  1  0  0  0  0
 29 63  1  0  0  0  0
 30 31  2  0  0  0  0
 30 64  1  0  0  0  0
 31 65  1  0  0  0  0
 32 34  1  0  0  0  0
 32 66  1  0  0  0  0
 33 35  2  0  0  0  0
 33 67  1  0  0  0  0
 34 36  2  0  0  0  0
 34 37  1  0  0  0  0
 35 36  1  0  0  0  0
 35 68  1  0  0  0  0
 36 69  1  0  0  0  0
M  END
> <PUBCHEM_COMPOUND_CID>
90466425

> <PUBCHEM_COMPOUND_CANONICALIZED>
1

> <PUBCHEM_CACTVS_COMPLEXITY>
714

> <PUBCHEM_CACTVS_HBOND_ACCEPTOR>
6

> <PUBCHEM_CACTVS_HBOND_DONOR>
2

> <PUBCHEM_CACTVS_ROTATABLE_BOND>
11

> <PUBCHEM_CACTVS_SUBSKEYS>
AAADcfB7uAAAAAAAAAAAAAAAAAAAAAAAAAA8YMEAAAAAAAABUAAAHgAQAAAADAzBmAYyzoPABACIAiVSWACCCAAlIgAIiIEPbMkOZjLEtZudMyhk1hHY6YeYyPCOgAADAAAAEAAAAAYAAAAgAAAAAAAAAA==

> <PUBCHEM_IUPAC_OPENEYE_NAME>
[3-(3-carbamoylphenyl)phenyl] N-[4-[4-(2-methoxyphenyl)piperazin-1-yl]butyl]carbamate

> <PUBCHEM_IUPAC_CAS_NAME>
N-[4-[4-(2-methoxyphenyl)-1-piperazinyl]butyl]carbamic acid [3-(3-carbamoylphenyl)phenyl] ester

> <PUBCHEM_IUPAC_NAME_MARKUP>
[3-(3-carbamoylphenyl)phenyl] <I>N</I>-[4-[4-(2-methoxyphenyl)piperazin-1-yl]butyl]carbamate

> <PUBCHEM_IUPAC_NAME>
[3-(3-carbamoylphenyl)phenyl] N-[4-[4-(2-methoxyphenyl)piperazin-1-yl]butyl]carbamate

> <PUBCHEM_IUPAC_SYSTEMATIC_NAME>
[3-(3-aminocarbonylphenyl)phenyl] N-[4-[4-(2-methoxyphenyl)piperazin-1-yl]butyl]carbamate

> <PUBCHEM_IUPAC_TRADITIONAL_NAME>
N-[4-[4-(2-methoxyphenyl)piperazino]butyl]carbamic acid [3-(3-carbamoylphenyl)phenyl] ester

> <PUBCHEM_IUPAC_INCHI>
InChI=1S/C29H34N4O4/c1-36-27-13-3-2-12-26(27)33-18-16-32(17-19-33)15-5-4-14-31-29(35)37-25-11-7-9-23(21-25)22-8-6-10-24(20-22)28(30)34/h2-3,6-13,20-21H,4-5,14-19H2,1H3,(H2,30,34)(H,31,35)

> <PUBCHEM_IUPAC_INCHIKEY>
JCYQNPLHYOAPCP-UHFFFAOYSA-N

> <PUBCHEM_XLOGP3_AA>
4.3

> <PUBCHEM_EXACT_MASS>
502.25800558

> <PUBCHEM_MOLECULAR_FORMULA>
C29H34N4O4

> <PUBCHEM_MOLECULAR_WEIGHT>
502.6

> <PUBCHEM_OPENEYE_CAN_SMILES>
COC1=CC=CC=C1N2CCN(CC2)CCCCNC(=O)OC3=CC=CC(=C3)C4=CC(=CC=C4)C(=O)N

> <PUBCHEM_OPENEYE_ISO_SMILES>
COC1=CC=CC=C1N2CCN(CC2)CCCCNC(=O)OC3=CC=CC(=C3)C4=CC(=CC=C4)C(=O)N

> <PUBCHEM_CACTVS_TPSA>
97.1

> <PUBCHEM_MONOISOTOPIC_WEIGHT>
502.25800558

> <PUBCHEM_TOTAL_CHARGE>
0

> <PUBCHEM_HEAVY_ATOM_COUNT>
37

> <PUBCHEM_ATOM_DEF_STEREO_COUNT>
0

> <PUBCHEM_ATOM_UDEF_STEREO_COUNT>
0

> <PUBCHEM_BOND_DEF_STEREO_COUNT>
0

> <PUBCHEM_BOND_UDEF_STEREO_COUNT>
0

> <PUBCHEM_ISOTOPIC_ATOM_COUNT>
0

> <PUBCHEM_COMPONENT_COUNT>
1

> <PUBCHEM_CACTVS_TAUTO_COUNT>
-1

> <PUBCHEM_COORDINATE_TYPE>
1
5
255

> <PUBCHEM_BONDANNOTATIONS>
15  18  8
15  19  8
18  20  8
19  21  8
20  22  8
21  22  8
25  27  8
25  29  8
26  27  8
26  30  8
28  32  8
28  33  8
29  31  8
30  31  8
32  34  8
33  35  8
34  36  8
35  36  8

$$$$
