155560516
  -OEChem-09292322402D

 63 66  0     0  0  0  0  0  0999 V2000
    6.6962    7.5194    0.0000 S   0  0  0  0  0  0  0  0  0  0  0  0
    2.8660   -5.5194    0.0000 O   0  0  0  0  0  0  0  0  0  0  0  0
    8.0622    1.4806    0.0000 O   0  0  0  0  0  0  0  0  0  0  0  0
    4.5981   -2.5194    0.0000 N   0  0  0  0  0  0  0  0  0  0  0  0
    4.5981   -4.5194    0.0000 N   0  0  0  0  0  0  0  0  0  0  0  0
    6.3301    1.4806    0.0000 N   0  0  0  0  0  0  0  0  0  0  0  0
    5.4641   -3.0194    0.0000 C   0  0  0  0  0  0  0  0  0  0  0  0
    3.7320   -3.0194    0.0000 C   0  0  0  0  0  0  0  0  0  0  0  0
    5.4641   -4.0194    0.0000 C   0  0  0  0  0  0  0  0  0  0  0  0
    3.7320   -4.0194    0.0000 C   0  0  0  0  0  0  0  0  0  0  0  0
    4.5981   -1.5194    0.0000 C   0  0  0  0  0  0  0  0  0  0  0  0
    5.4641   -1.0194    0.0000 C   0  0  0  0  0  0  0  0  0  0  0  0
    4.5981   -5.5194    0.0000 C   0  0  0  0  0  0  0  0  0  0  0  0
    5.4641   -0.0194    0.0000 C   0  0  0  0  0  0  0  0  0  0  0  0
    6.3301    0.4806    0.0000 C   0  0  0  0  0  0  0  0  0  0  0  0
    3.7320   -6.0194    0.0000 C   0  0  0  0  0  0  0  0  0  0  0  0
    5.4641   -6.0194    0.0000 C   0  0  0  0  0  0  0  0  0  0  0  0
    3.7320   -7.0194    0.0000 C   0  0  0  0  0  0  0  0  0  0  0  0
    5.4641   -7.0194    0.0000 C   0  0  0  0  0  0  0  0  0  0  0  0
    4.5981   -7.5194    0.0000 C   0  0  0  0  0  0  0  0  0  0  0  0
    7.1962    1.9806    0.0000 C   0  0  0  0  0  0  0  0  0  0  0  0
    7.1962    2.9806    0.0000 C   0  0  0  0  0  0  0  0  0  0  0  0
    2.0000   -6.0194    0.0000 C   0  0  0  0  0  0  0  0  0  0  0  0
    8.0622    3.4806    0.0000 C   0  0  0  0  0  0  0  0  0  0  0  0
    6.3301    3.4806    0.0000 C   0  0  0  0  0  0  0  0  0  0  0  0
    7.1962    4.9806    0.0000 C   0  0  0  0  0  0  0  0  0  0  0  0
    8.0622    4.4806    0.0000 C   0  0  0  0  0  0  0  0  0  0  0  0
    6.3301    4.4806    0.0000 C   0  0  0  0  0  0  0  0  0  0  0  0
    7.1962    5.9806    0.0000 C   0  0  0  0  0  0  0  0  0  0  0  0
    8.0052    6.5684    0.0000 C   0  0  0  0  0  0  0  0  0  0  0  0
    6.3871    6.5684    0.0000 C   0  0  0  0  0  0  0  0  0  0  0  0
    7.6962    7.5194    0.0000 C   0  0  0  0  0  0  0  0  0  0  0  0
    6.0747   -3.1271    0.0000 H   0  0  0  0  0  0  0  0  0  0  0  0
    5.6762   -2.4368    0.0000 H   0  0  0  0  0  0  0  0  0  0  0  0
    3.5200   -2.4368    0.0000 H   0  0  0  0  0  0  0  0  0  0  0  0
    3.1215   -3.1271    0.0000 H   0  0  0  0  0  0  0  0  0  0  0  0
    5.6762   -4.6020    0.0000 H   0  0  0  0  0  0  0  0  0  0  0  0
    6.0747   -3.9118    0.0000 H   0  0  0  0  0  0  0  0  0  0  0  0
    3.1215   -3.9118    0.0000 H   0  0  0  0  0  0  0  0  0  0  0  0
    3.5200   -4.6020    0.0000 H   0  0  0  0  0  0  0  0  0  0  0  0
    4.3860   -0.9368    0.0000 H   0  0  0  0  0  0  0  0  0  0  0  0
    3.9875   -1.6271    0.0000 H   0  0  0  0  0  0  0  0  0  0  0  0
    5.6762   -1.6020    0.0000 H   0  0  0  0  0  0  0  0  0  0  0  0
    6.0747   -0.9118    0.0000 H   0  0  0  0  0  0  0  0  0  0  0  0
    5.2520    0.5632    0.0000 H   0  0  0  0  0  0  0  0  0  0  0  0
    4.8535   -0.1271    0.0000 H   0  0  0  0  0  0  0  0  0  0  0  0
    6.5422   -0.1020    0.0000 H   0  0  0  0  0  0  0  0  0  0  0  0
    6.9407    0.5882    0.0000 H   0  0  0  0  0  0  0  0  0  0  0  0
    6.0010   -5.7094    0.0000 H   0  0  0  0  0  0  0  0  0  0  0  0
    3.1951   -7.3294    0.0000 H   0  0  0  0  0  0  0  0  0  0  0  0
    5.7932    1.7906    0.0000 H   0  0  0  0  0  0  0  0  0  0  0  0
    6.0010   -7.3294    0.0000 H   0  0  0  0  0  0  0  0  0  0  0  0
    4.5981   -8.1394    0.0000 H   0  0  0  0  0  0  0  0  0  0  0  0
    1.6900   -5.4825    0.0000 H   0  0  0  0  0  0  0  0  0  0  0  0
    1.4631   -6.3294    0.0000 H   0  0  0  0  0  0  0  0  0  0  0  0
    2.3100   -6.5564    0.0000 H   0  0  0  0  0  0  0  0  0  0  0  0
    8.5991    3.1706    0.0000 H   0  0  0  0  0  0  0  0  0  0  0  0
    5.7932    3.1706    0.0000 H   0  0  0  0  0  0  0  0  0  0  0  0
    8.5991    4.7906    0.0000 H   0  0  0  0  0  0  0  0  0  0  0  0
    5.7932    4.7906    0.0000 H   0  0  0  0  0  0  0  0  0  0  0  0
    8.5948    6.3768    0.0000 H   0  0  0  0  0  0  0  0  0  0  0  0
    5.7975    6.3768    0.0000 H   0  0  0  0  0  0  0  0  0  0  0  0
    8.0606    8.0210    0.0000 H   0  0  0  0  0  0  0  0  0  0  0  0
  1 31  1  0  0  0  0
  1 32  1  0  0  0  0
  2 16  1  0  0  0  0
  2 23  1  0  0  0  0
  3 21  2  0  0  0  0
  4  7  1  0  0  0  0
  4  8  1  0  0  0  0
  4 11  1  0  0  0  0
  5  9  1  0  0  0  0
  5 10  1  0  0  0  0
  5 13  1  0  0  0  0
  6 15  1  0  0  0  0
  6 21  1  0  0  0  0
  6 51  1  0  0  0  0
  7  9  1  0  0  0  0
  7 33  1  0  0  0  0
  7 34  1  0  0  0  0
  8 10  1  0  0  0  0
  8 35  1  0  0  0  0
  8 36  1  0  0  0  0
  9 37  1  0  0  0  0
  9 38  1  0  0  0  0
 10 39  1  0  0  0  0
 10 40  1  0  0  0  0
 11 12  1  0  0  0  0
 11 41  1  0  0  0  0
 11 42  1  0  0  0  0
 12 14  1  0  0  0  0
 12 43  1  0  0  0  0
 12 44  1  0  0  0  0
 13 16  1  0  0  0  0
 13 17  2  0  0  0  0
 14 15  1  0  0  0  0
 14 45  1  0  0  0  0
 14 46  1  0  0  0  0
 15 47  1  0  0  0  0
 15 48  1  0  0  0  0
 16 18  2  0  0  0  0
 17 19  1  0  0  0  0
 17 49  1  0  0  0  0
 18 20  1  0  0  0  0
 18 50  1  0  0  0  0
 19 20  2  0  0  0  0
 19 52  1  0  0  0  0
 20 53  1  0  0  0  0
 21 22  1  0  0  0  0
 22 24  2  0  0  0  0
 22 25  1  0  0  0  0
 23 54  1  0  0  0  0
 23 55  1  0  0  0  0
 23 56  1  0  0  0  0
 24 27  1  0  0  0  0
 24 57  1  0  0  0  0
 25 28  2  0  0  0  0
 25 58  1  0  0  0  0
 26 27  2  0  0  0  0
 26 28  1  0  0  0  0
 26 29  1  0  0  0  0
 27 59  1  0  0  0  0
 28 60  1  0  0  0  0
 29 30  1  0  0  0  0
 29 31  2  0  0  0  0
 30 32  2  0  0  0  0
 30 61  1  0  0  0  0
 31 62  1  0  0  0  0
 32 63  1  0  0  0  0
M  END
> <PUBCHEM_COMPOUND_CID>
155560516

> <PUBCHEM_COMPOUND_CANONICALIZED>
1

> <PUBCHEM_CACTVS_COMPLEXITY>
561

> <PUBCHEM_CACTVS_HBOND_ACCEPTOR>
5

> <PUBCHEM_CACTVS_HBOND_DONOR>
1

> <PUBCHEM_CACTVS_ROTATABLE_BOND>
9

> <PUBCHEM_CACTVS_SUBSKEYS>
AAADceB7MABAAAAAAAAAAAAAAAAAASAAAAA8YIAAAAAAAAAB0AAAHgQQAAAADAzF2Aayx4PABAiMAiVSUACDCIAlKhBIiJkPbMgOZjLktZuVMShk1hH46YeYyMCOwAAAAAAAEACAAAAAAAAgAAAAAAAAAA==

> <PUBCHEM_IUPAC_OPENEYE_NAME>
N-[4-[4-(2-methoxyphenyl)piperazin-1-yl]butyl]-4-(3-thienyl)benzamide

> <PUBCHEM_IUPAC_CAS_NAME>
N-[4-[4-(2-methoxyphenyl)-1-piperazinyl]butyl]-4-(3-thiophenyl)benzamide

> <PUBCHEM_IUPAC_NAME_MARKUP>
<I>N</I>-[4-[4-(2-methoxyphenyl)piperazin-1-yl]butyl]-4-thiophen-3-ylbenzamide

> <PUBCHEM_IUPAC_NAME>
N-[4-[4-(2-methoxyphenyl)piperazin-1-yl]butyl]-4-thiophen-3-ylbenzamide

> <PUBCHEM_IUPAC_SYSTEMATIC_NAME>
N-[4-[4-(2-methoxyphenyl)piperazin-1-yl]butyl]-4-thiophen-3-yl-benzamide

> <PUBCHEM_IUPAC_TRADITIONAL_NAME>
N-[4-[4-(2-methoxyphenyl)piperazino]butyl]-4-(3-thienyl)benzamide

> <PUBCHEM_IUPAC_INCHI>
InChI=1S/C26H31N3O2S/c1-31-25-7-3-2-6-24(25)29-17-15-28(16-18-29)14-5-4-13-27-26(30)22-10-8-21(9-11-22)23-12-19-32-20-23/h2-3,6-12,19-20H,4-5,13-18H2,1H3,(H,27,30)

> <PUBCHEM_IUPAC_INCHIKEY>
VUSBFQZSDADXBE-UHFFFAOYSA-N

> <PUBCHEM_XLOGP3_AA>
4.8

> <PUBCHEM_EXACT_MASS>
449.21369841

> <PUBCHEM_MOLECULAR_FORMULA>
C26H31N3O2S

> <PUBCHEM_MOLECULAR_WEIGHT>
449.6

> <PUBCHEM_OPENEYE_CAN_SMILES>
COC1=CC=CC=C1N2CCN(CC2)CCCCNC(=O)C3=CC=C(C=C3)C4=CSC=C4

> <PUBCHEM_OPENEYE_ISO_SMILES>
COC1=CC=CC=C1N2CCN(CC2)CCCCNC(=O)C3=CC=C(C=C3)C4=CSC=C4

> <PUBCHEM_CACTVS_TPSA>
73

> <PUBCHEM_MONOISOTOPIC_WEIGHT>
449.21369841

> <PUBCHEM_TOTAL_CHARGE>
0

> <PUBCHEM_HEAVY_ATOM_COUNT>
32

> <PUBCHEM_ATOM_DEF_STEREO_COUNT>
0

> <PUBCHEM_ATOM_UDEF_STEREO_COUNT>
0

> <PUBCHEM_BOND_DEF_STEREO_COUNT>
0

> <PUBCHEM_BOND_UDEF_STEREO_COUNT>
0

> <PUBCHEM_ISOTOPIC_ATOM_COUNT>
0

> <PUBCHEM_COMPONENT_COUNT>
1

> <PUBCHEM_CACTVS_TAUTO_COUNT>
-1

> <PUBCHEM_COORDINATE_TYPE>
1
5
255

> <PUBCHEM_BONDANNOTATIONS>
1  31  8
1  32  8
13  16  8
13  17  8
16  18  8
17  19  8
18  20  8
19  20  8
22  24  8
22  25  8
24  27  8
25  28  8
26  27  8
26  28  8
29  30  8
29  31  8
30  32  8

$$$$
