168279625
  -OEChem-09292322452D

 55 59  0     0  0  0  0  0  0999 V2000
   14.2619   -3.4757    0.0000 Cl  0  0  0  0  0  0  0  0  0  0  0  0
    4.9889    3.4757    0.0000 O   0  0  0  0  0  0  0  0  0  0  0  0
    9.2619   -1.7436    0.0000 N   0  0  0  0  0  0  0  0  0  0  0  0
   11.2619   -1.7436    0.0000 N   0  0  0  0  0  0  0  0  0  0  0  0
    5.2619    1.7204    0.0000 N   0  0  0  0  0  0  0  0  0  0  0  0
    3.7320    2.2204    0.0000 N   0  0  0  0  0  0  0  0  0  0  0  0
    4.6783    0.9157    0.0000 N   0  0  0  0  0  0  0  0  0  0  0  0
    9.7619   -2.6097    0.0000 C   0  0  0  0  0  0  0  0  0  0  0  0
    9.7619   -0.8776    0.0000 C   0  0  0  0  0  0  0  0  0  0  0  0
   10.7619   -2.6097    0.0000 C   0  0  0  0  0  0  0  0  0  0  0  0
   10.7619   -0.8776    0.0000 C   0  0  0  0  0  0  0  0  0  0  0  0
    8.2619   -1.7436    0.0000 C   0  0  0  0  0  0  0  0  0  0  0  0
   12.2619   -1.7436    0.0000 C   0  0  0  0  0  0  0  0  0  0  0  0
    7.7619   -0.8776    0.0000 C   0  0  0  0  0  0  0  0  0  0  0  0
    6.7619   -0.8776    0.0000 C   0  0  0  0  0  0  0  0  0  0  0  0
    8.2619   -0.0116    0.0000 C   0  0  0  0  0  0  0  0  0  0  0  0
   12.7619   -2.6097    0.0000 C   0  0  0  0  0  0  0  0  0  0  0  0
   12.7619   -0.8776    0.0000 C   0  0  0  0  0  0  0  0  0  0  0  0
    6.7619    0.8544    0.0000 C   0  0  0  0  0  0  0  0  0  0  0  0
    6.2619   -0.0116    0.0000 C   0  0  0  0  0  0  0  0  0  0  0  0
    7.7619    0.8544    0.0000 C   0  0  0  0  0  0  0  0  0  0  0  0
    6.2619    1.7204    0.0000 C   0  0  0  0  0  0  0  0  0  0  0  0
   13.7619   -2.6097    0.0000 C   0  0  0  0  0  0  0  0  0  0  0  0
   13.7619   -0.8776    0.0000 C   0  0  0  0  0  0  0  0  0  0  0  0
   14.2619   -1.7436    0.0000 C   0  0  0  0  0  0  0  0  0  0  0  0
    4.6783    2.5252    0.0000 C   0  0  0  0  0  0  0  0  0  0  0  0
    3.7320    1.2204    0.0000 C   0  0  0  0  0  0  0  0  0  0  0  0
    2.8660    2.7204    0.0000 C   0  0  0  0  0  0  0  0  0  0  0  0
    2.8660    0.7204    0.0000 C   0  0  0  0  0  0  0  0  0  0  0  0
    2.0000    2.2204    0.0000 C   0  0  0  0  0  0  0  0  0  0  0  0
    2.0000    1.2204    0.0000 C   0  0  0  0  0  0  0  0  0  0  0  0
    9.1793   -2.8217    0.0000 H   0  0  0  0  0  0  0  0  0  0  0  0
    9.8695   -3.2203    0.0000 H   0  0  0  0  0  0  0  0  0  0  0  0
    9.8695   -0.2670    0.0000 H   0  0  0  0  0  0  0  0  0  0  0  0
    9.1793   -0.6656    0.0000 H   0  0  0  0  0  0  0  0  0  0  0  0
   10.6542   -3.2203    0.0000 H   0  0  0  0  0  0  0  0  0  0  0  0
   11.3445   -2.8217    0.0000 H   0  0  0  0  0  0  0  0  0  0  0  0
   11.3445   -0.6656    0.0000 H   0  0  0  0  0  0  0  0  0  0  0  0
   10.6542   -0.2670    0.0000 H   0  0  0  0  0  0  0  0  0  0  0  0
    7.6793   -1.9557    0.0000 H   0  0  0  0  0  0  0  0  0  0  0  0
    8.3695   -2.3542    0.0000 H   0  0  0  0  0  0  0  0  0  0  0  0
    6.4519   -1.4146    0.0000 H   0  0  0  0  0  0  0  0  0  0  0  0
    8.8819   -0.0116    0.0000 H   0  0  0  0  0  0  0  0  0  0  0  0
   12.4519   -3.1466    0.0000 H   0  0  0  0  0  0  0  0  0  0  0  0
   12.4519   -0.3407    0.0000 H   0  0  0  0  0  0  0  0  0  0  0  0
    5.6419   -0.0116    0.0000 H   0  0  0  0  0  0  0  0  0  0  0  0
    8.0719    1.3914    0.0000 H   0  0  0  0  0  0  0  0  0  0  0  0
    6.8445    1.9325    0.0000 H   0  0  0  0  0  0  0  0  0  0  0  0
    6.1542    2.3310    0.0000 H   0  0  0  0  0  0  0  0  0  0  0  0
   14.0719   -0.3407    0.0000 H   0  0  0  0  0  0  0  0  0  0  0  0
   14.8819   -1.7436    0.0000 H   0  0  0  0  0  0  0  0  0  0  0  0
    2.8660    3.3404    0.0000 H   0  0  0  0  0  0  0  0  0  0  0  0
    2.8660    0.1004    0.0000 H   0  0  0  0  0  0  0  0  0  0  0  0
    1.4631    2.5304    0.0000 H   0  0  0  0  0  0  0  0  0  0  0  0
    1.4631    0.9104    0.0000 H   0  0  0  0  0  0  0  0  0  0  0  0
  1 23  1  0  0  0  0
  2 26  2  0  0  0  0
  3  8  1  0  0  0  0
  3  9  1  0  0  0  0
  3 12  1  0  0  0  0
  4 10  1  0  0  0  0
  4 11  1  0  0  0  0
  4 13  1  0  0  0  0
  5  7  1  0  0  0  0
  5 22  1  0  0  0  0
  5 26  1  0  0  0  0
  6 26  1  0  0  0  0
  6 27  1  0  0  0  0
  6 28  1  0  0  0  0
  7 27  2  0  0  0  0
  8 10  1  0  0  0  0
  8 32  1  0  0  0  0
  8 33  1  0  0  0  0
  9 11  1  0  0  0  0
  9 34  1  0  0  0  0
  9 35  1  0  0  0  0
 10 36  1  0  0  0  0
 10 37  1  0  0  0  0
 11 38  1  0  0  0  0
 11 39  1  0  0  0  0
 12 14  1  0  0  0  0
 12 40  1  0  0  0  0
 12 41  1  0  0  0  0
 13 17  2  0  0  0  0
 13 18  1  0  0  0  0
 14 15  2  0  0  0  0
 14 16  1  0  0  0  0
 15 20  1  0  0  0  0
 15 42  1  0  0  0  0
 16 21  2  0  0  0  0
 16 43  1  0  0  0  0
 17 23  1  0  0  0  0
 17 44  1  0  0  0  0
 18 24  2  0  0  0  0
 18 45  1  0  0  0  0
 19 20  2  0  0  0  0
 19 21  1  0  0  0  0
 19 22  1  0  0  0  0
 20 46  1  0  0  0  0
 21 47  1  0  0  0  0
 22 48  1  0  0  0  0
 22 49  1  0  0  0  0
 23 25  2  0  0  0  0
 24 25  1  0  0  0  0
 24 50  1  0  0  0  0
 25 51  1  0  0  0  0
 27 29  1  0  0  0  0
 28 30  2  0  0  0  0
 28 52  1  0  0  0  0
 29 31  2  0  0  0  0
 29 53  1  0  0  0  0
 30 31  1  0  0  0  0
 30 54  1  0  0  0  0
 31 55  1  0  0  0  0
M  END
> <PUBCHEM_COMPOUND_CID>
168279625

> <PUBCHEM_COMPOUND_CANONICALIZED>
1

> <PUBCHEM_CACTVS_COMPLEXITY>
736

> <PUBCHEM_CACTVS_HBOND_ACCEPTOR>
4

> <PUBCHEM_CACTVS_HBOND_DONOR>
0

> <PUBCHEM_CACTVS_ROTATABLE_BOND>
5

> <PUBCHEM_CACTVS_SUBSKEYS>
AAADceB7oAAEAAAAAAAAAAAAAAAAAQAAAAA8YIEAAAAAAEABQAAAHgIIAAAADArBGCQxwIMAAACoAiZmcACSAAAhBwAfiAAYZpiIYCLBk5GUIAhojgLIyAcQgAAOQAAAAAIAAACAAAAABAAAAAAAAAAAAA==

> <PUBCHEM_IUPAC_OPENEYE_NAME>
2-[[4-[[4-(3-chlorophenyl)piperazin-1-yl]methyl]phenyl]methyl]-[1,2,4]triazolo[4,3-a]pyridin-3-one

> <PUBCHEM_IUPAC_CAS_NAME>
2-[[4-[[4-(3-chlorophenyl)-1-piperazinyl]methyl]phenyl]methyl]-[1,2,4]triazolo[4,3-a]pyridin-3-one

> <PUBCHEM_IUPAC_NAME_MARKUP>
2-[[4-[[4-(3-chlorophenyl)piperazin-1-yl]methyl]phenyl]methyl]-[1,2,4]triazolo[4,3-a]pyridin-3-one

> <PUBCHEM_IUPAC_NAME>
2-[[4-[[4-(3-chlorophenyl)piperazin-1-yl]methyl]phenyl]methyl]-[1,2,4]triazolo[4,3-a]pyridin-3-one

> <PUBCHEM_IUPAC_SYSTEMATIC_NAME>
2-[[4-[[4-(3-chlorophenyl)piperazin-1-yl]methyl]phenyl]methyl]-[1,2,4]triazolo[4,3-a]pyridin-3-one

> <PUBCHEM_IUPAC_TRADITIONAL_NAME>
2-[4-[[4-(3-chlorophenyl)piperazino]methyl]benzyl]-[1,2,4]triazolo[4,3-a]pyridin-3-one

> <PUBCHEM_IUPAC_INCHI>
InChI=1S/C24H24ClN5O/c25-21-4-3-5-22(16-21)28-14-12-27(13-15-28)17-19-7-9-20(10-8-19)18-30-24(31)29-11-2-1-6-23(29)26-30/h1-11,16H,12-15,17-18H2

> <PUBCHEM_IUPAC_INCHIKEY>
VSLSUZJMQBJPOJ-UHFFFAOYSA-N

> <PUBCHEM_XLOGP3_AA>
3.8

> <PUBCHEM_EXACT_MASS>
433.1669381

> <PUBCHEM_MOLECULAR_FORMULA>
C24H24ClN5O

> <PUBCHEM_MOLECULAR_WEIGHT>
433.9

> <PUBCHEM_OPENEYE_CAN_SMILES>
C1CN(CCN1CC2=CC=C(C=C2)CN3C(=O)N4C=CC=CC4=N3)C5=CC(=CC=C5)Cl

> <PUBCHEM_OPENEYE_ISO_SMILES>
C1CN(CCN1CC2=CC=C(C=C2)CN3C(=O)N4C=CC=CC4=N3)C5=CC(=CC=C5)Cl

> <PUBCHEM_CACTVS_TPSA>
42.4

> <PUBCHEM_MONOISOTOPIC_WEIGHT>
433.1669381

> <PUBCHEM_TOTAL_CHARGE>
0

> <PUBCHEM_HEAVY_ATOM_COUNT>
31

> <PUBCHEM_ATOM_DEF_STEREO_COUNT>
0

> <PUBCHEM_ATOM_UDEF_STEREO_COUNT>
0

> <PUBCHEM_BOND_DEF_STEREO_COUNT>
0

> <PUBCHEM_BOND_UDEF_STEREO_COUNT>
0

> <PUBCHEM_ISOTOPIC_ATOM_COUNT>
0

> <PUBCHEM_COMPONENT_COUNT>
1

> <PUBCHEM_CACTVS_TAUTO_COUNT>
-1

> <PUBCHEM_COORDINATE_TYPE>
1
5
255

> <PUBCHEM_BONDANNOTATIONS>
13  17  8
13  18  8
14  15  8
14  16  8
15  20  8
16  21  8
17  23  8
18  24  8
19  20  8
19  21  8
23  25  8
24  25  8
27  29  8
28  30  8
29  31  8
30  31  8
5  26  8
5  7  8
6  26  8
6  27  8
6  28  8
7  27  8

$$$$
