162659577
  -OEChem-09292322422D

 53 57  0     1  0  0  0  0  0999 V2000
    2.0000   -4.7815    0.0000 Cl  0  0  0  0  0  0  0  0  0  0  0  0
    7.1279   -3.7815    0.0000 S   0  0  0  0  0  0  0  0  0  0  0  0
    5.5443   -4.5862    0.0000 S   0  0  0  0  0  0  0  0  0  0  0  0
    7.1279   -2.7815    0.0000 O   0  0  0  0  0  0  0  0  0  0  0  0
    7.1279   -4.7815    0.0000 O   0  0  0  0  0  0  0  0  0  0  0  0
   11.9048    2.3265    0.0000 O   0  0  0  0  0  0  0  0  0  0  0  0
    8.9643   -1.3328    0.0000 N   0  0  3  0  0  0  0  0  0  0  0  0
    8.1279   -3.7815    0.0000 N   0  0  0  0  0  0  0  0  0  0  0  0
   11.3184    1.5238    0.0000 N   0  0  0  0  0  0  0  0  0  0  0  0
    8.6279   -2.9155    0.0000 C   0  0  2  0  0  0  0  0  0  0  0  0
    8.2212   -2.0019    0.0000 C   0  0  0  0  0  0  0  0  0  0  0  0
    9.6224   -2.8109    0.0000 C   0  0  0  0  0  0  0  0  0  0  0  0
    9.8303   -1.8328    0.0000 C   0  0  0  0  0  0  0  0  0  0  0  0
    8.8598   -0.3383    0.0000 C   0  0  0  0  0  0  0  0  0  0  0  0
    9.6688    0.2495    0.0000 C   0  0  0  0  0  0  0  0  0  0  0  0
    9.5643    1.2441    0.0000 C   0  0  0  0  0  0  0  0  0  0  0  0
    6.1279   -3.7815    0.0000 C   0  0  0  0  0  0  0  0  0  0  0  0
   10.3733    1.8318    0.0000 C   0  0  0  0  0  0  0  0  0  0  0  0
    5.5443   -2.9768    0.0000 C   0  0  0  0  0  0  0  0  0  0  0  0
   10.3724    2.8259    0.0000 C   0  0  0  0  0  0  0  0  0  0  0  0
    4.5981   -3.2815    0.0000 C   0  0  0  0  0  0  0  0  0  0  0  0
    4.5981   -4.2815    0.0000 C   0  0  0  0  0  0  0  0  0  0  0  0
   11.3240    3.1333    0.0000 C   0  0  0  0  0  0  0  0  0  0  0  0
    9.6304    3.4963    0.0000 C   0  0  0  0  0  0  0  0  0  0  0  0
    3.7320   -2.7815    0.0000 C   0  0  0  0  0  0  0  0  0  0  0  0
    3.7320   -4.7815    0.0000 C   0  0  0  0  0  0  0  0  0  0  0  0
   11.5336    4.1111    0.0000 C   0  0  0  0  0  0  0  0  0  0  0  0
    9.8400    4.4741    0.0000 C   0  0  0  0  0  0  0  0  0  0  0  0
    2.8660   -3.2815    0.0000 C   0  0  0  0  0  0  0  0  0  0  0  0
    2.8660   -4.2815    0.0000 C   0  0  0  0  0  0  0  0  0  0  0  0
   10.7916    4.7815    0.0000 C   0  0  0  0  0  0  0  0  0  0  0  0
    8.0087   -2.8830    0.0000 H   0  0  0  0  0  0  0  0  0  0  0  0
    7.8567   -1.5003    0.0000 H   0  0  0  0  0  0  0  0  0  0  0  0
    7.6842   -2.3119    0.0000 H   0  0  0  0  0  0  0  0  0  0  0  0
    9.6224   -3.4309    0.0000 H   0  0  0  0  0  0  0  0  0  0  0  0
   10.2390   -2.8757    0.0000 H   0  0  0  0  0  0  0  0  0  0  0  0
   10.4200   -2.0244    0.0000 H   0  0  0  0  0  0  0  0  0  0  0  0
   10.0825   -1.2664    0.0000 H   0  0  0  0  0  0  0  0  0  0  0  0
    8.5880    0.2190    0.0000 H   0  0  0  0  0  0  0  0  0  0  0  0
    8.2638   -0.5092    0.0000 H   0  0  0  0  0  0  0  0  0  0  0  0
    8.4379   -4.3184    0.0000 H   0  0  0  0  0  0  0  0  0  0  0  0
    9.9406   -0.3077    0.0000 H   0  0  0  0  0  0  0  0  0  0  0  0
   10.2648    0.4204    0.0000 H   0  0  0  0  0  0  0  0  0  0  0  0
    9.2925    1.8013    0.0000 H   0  0  0  0  0  0  0  0  0  0  0  0
    8.9683    1.0732    0.0000 H   0  0  0  0  0  0  0  0  0  0  0  0
    5.7369   -2.3874    0.0000 H   0  0  0  0  0  0  0  0  0  0  0  0
    9.0405    3.3058    0.0000 H   0  0  0  0  0  0  0  0  0  0  0  0
    3.7320   -2.1615    0.0000 H   0  0  0  0  0  0  0  0  0  0  0  0
    3.7320   -5.4015    0.0000 H   0  0  0  0  0  0  0  0  0  0  0  0
   12.1236    4.3016    0.0000 H   0  0  0  0  0  0  0  0  0  0  0  0
    9.3800    4.8898    0.0000 H   0  0  0  0  0  0  0  0  0  0  0  0
    2.3291   -2.9715    0.0000 H   0  0  0  0  0  0  0  0  0  0  0  0
   10.9216    5.3877    0.0000 H   0  0  0  0  0  0  0  0  0  0  0  0
  1 30  1  0  0  0  0
  2  4  2  0  0  0  0
  2  5  2  0  0  0  0
  2  8  1  0  0  0  0
  2 17  1  0  0  0  0
  3 17  1  0  0  0  0
  3 22  1  0  0  0  0
  6  9  1  0  0  0  0
  6 23  1  0  0  0  0
  7 11  1  0  0  0  0
  7 13  1  0  0  0  0
  7 14  1  0  0  0  0
 10  8  1  6  0  0  0
  8 41  1  0  0  0  0
  9 18  2  0  0  0  0
 10 11  1  0  0  0  0
 10 12  1  0  0  0  0
 10 32  1  0  0  0  0
 11 33  1  0  0  0  0
 11 34  1  0  0  0  0
 12 13  1  0  0  0  0
 12 35  1  0  0  0  0
 12 36  1  0  0  0  0
 13 37  1  0  0  0  0
 13 38  1  0  0  0  0
 14 15  1  0  0  0  0
 14 39  1  0  0  0  0
 14 40  1  0  0  0  0
 15 16  1  0  0  0  0
 15 42  1  0  0  0  0
 15 43  1  0  0  0  0
 16 18  1  0  0  0  0
 16 44  1  0  0  0  0
 16 45  1  0  0  0  0
 17 19  2  0  0  0  0
 18 20  1  0  0  0  0
 19 21  1  0  0  0  0
 19 46  1  0  0  0  0
 20 23  1  0  0  0  0
 20 24  2  0  0  0  0
 21 22  2  0  0  0  0
 21 25  1  0  0  0  0
 22 26  1  0  0  0  0
 23 27  2  0  0  0  0
 24 28  1  0  0  0  0
 24 47  1  0  0  0  0
 25 29  2  0  0  0  0
 25 48  1  0  0  0  0
 26 30  2  0  0  0  0
 26 49  1  0  0  0  0
 27 31  1  0  0  0  0
 27 50  1  0  0  0  0
 28 31  2  0  0  0  0
 28 51  1  0  0  0  0
 29 30  1  0  0  0  0
 29 52  1  0  0  0  0
 31 53  1  0  0  0  0
M  END
> <PUBCHEM_COMPOUND_CID>
162659577

> <PUBCHEM_COMPOUND_CANONICALIZED>
1

> <PUBCHEM_CACTVS_COMPLEXITY>
721

> <PUBCHEM_CACTVS_HBOND_ACCEPTOR>
7

> <PUBCHEM_CACTVS_HBOND_DONOR>
1

> <PUBCHEM_CACTVS_ROTATABLE_BOND>
7

> <PUBCHEM_CACTVS_SUBSKEYS>
AAADceB7MABkAAAAAAAAAAAAAAAAAWLEgAAwYAAAAAAAAFgB/gAAHgYUQAAADC7B3iQwh9NQAAqtA6RyQnDDAZAkLRBomLk+TtoIZrqh15OUMYBm0BmoyceYyKCOBAAAABAMAAAIAAAAIBgAAAAAAAAAAA==

> <PUBCHEM_IUPAC_OPENEYE_NAME>
N-[(3S)-1-[3-(1,2-benzoxazol-3-yl)propyl]pyrrolidin-3-yl]-6-chloro-benzothiophene-2-sulfonamide

> <PUBCHEM_IUPAC_CAS_NAME>
N-[(3S)-1-[3-(1,2-benzoxazol-3-yl)propyl]-3-pyrrolidinyl]-6-chloro-1-benzothiophene-2-sulfonamide

> <PUBCHEM_IUPAC_NAME_MARKUP>
<I>N</I>-[(3<I>S</I>)-1-[3-(1,2-benzoxazol-3-yl)propyl]pyrrolidin-3-yl]-6-chloro-1-benzothiophene-2-sulfonamide

> <PUBCHEM_IUPAC_NAME>
N-[(3S)-1-[3-(1,2-benzoxazol-3-yl)propyl]pyrrolidin-3-yl]-6-chloro-1-benzothiophene-2-sulfonamide

> <PUBCHEM_IUPAC_SYSTEMATIC_NAME>
N-[(3S)-1-[3-(1,2-benzoxazol-3-yl)propyl]pyrrolidin-3-yl]-6-chloranyl-1-benzothiophene-2-sulfonamide

> <PUBCHEM_IUPAC_TRADITIONAL_NAME>
6-chloro-N-[(3S)-1-(3-indoxazen-3-ylpropyl)pyrrolidin-3-yl]benzothiophene-2-sulfonamide

> <PUBCHEM_IUPAC_INCHI>
InChI=1S/C22H22ClN3O3S2/c23-16-8-7-15-12-22(30-21(15)13-16)31(27,28)25-17-9-11-26(14-17)10-3-5-19-18-4-1-2-6-20(18)29-24-19/h1-2,4,6-8,12-13,17,25H,3,5,9-11,14H2/t17-/m0/s1

> <PUBCHEM_IUPAC_INCHIKEY>
NHDHOZYKTMAVEE-KRWDZBQOSA-N

> <PUBCHEM_XLOGP3_AA>
5.2

> <PUBCHEM_EXACT_MASS>
475.0791116

> <PUBCHEM_MOLECULAR_FORMULA>
C22H22ClN3O3S2

> <PUBCHEM_MOLECULAR_WEIGHT>
476.0

> <PUBCHEM_OPENEYE_CAN_SMILES>
C1CN(CC1NS(=O)(=O)C2=CC3=C(S2)C=C(C=C3)Cl)CCCC4=NOC5=CC=CC=C54

> <PUBCHEM_OPENEYE_ISO_SMILES>
C1CN(C[C@H]1NS(=O)(=O)C2=CC3=C(S2)C=C(C=C3)Cl)CCCC4=NOC5=CC=CC=C54

> <PUBCHEM_CACTVS_TPSA>
112

> <PUBCHEM_MONOISOTOPIC_WEIGHT>
475.0791116

> <PUBCHEM_TOTAL_CHARGE>
0

> <PUBCHEM_HEAVY_ATOM_COUNT>
31

> <PUBCHEM_ATOM_DEF_STEREO_COUNT>
1

> <PUBCHEM_ATOM_UDEF_STEREO_COUNT>
0

> <PUBCHEM_BOND_DEF_STEREO_COUNT>
0

> <PUBCHEM_BOND_UDEF_STEREO_COUNT>
0

> <PUBCHEM_ISOTOPIC_ATOM_COUNT>
0

> <PUBCHEM_COMPONENT_COUNT>
1

> <PUBCHEM_CACTVS_TAUTO_COUNT>
-1

> <PUBCHEM_COORDINATE_TYPE>
1
5
255

> <PUBCHEM_BONDANNOTATIONS>
17  19  8
18  20  8
19  21  8
20  23  8
20  24  8
21  22  8
21  25  8
22  26  8
23  27  8
24  28  8
25  29  8
26  30  8
27  31  8
28  31  8
29  30  8
3  17  8
3  22  8
6  23  8
6  9  8
10  8  6
9  18  8

$$$$
