44447013
  -OEChem-09292322262D

 65 70  0     1  0  0  0  0  0999 V2000
    3.7899    1.3162    0.0000 S   0  0  0  0  0  0  0  0  0  0  0  0
   15.2710    3.3818    0.0000 F   0  0  0  0  0  0  0  0  0  0  0  0
   14.6962   -1.1646    0.0000 O   0  0  0  0  0  0  0  0  0  0  0  0
    7.4629   -1.3818    0.0000 N   0  0  0  0  0  0  0  0  0  0  0  0
    5.7308   -0.3818    0.0000 N   0  0  0  0  0  0  0  0  0  0  0  0
   13.0499   -0.6265    0.0000 N   0  0  0  0  0  0  0  0  0  0  0  0
    4.7617    1.1070    0.0000 N   0  0  0  0  0  0  0  0  0  0  0  0
   12.7392   -1.5770    0.0000 C   0  0  3  0  0  0  0  0  0  0  0  0
   11.7930   -1.8818    0.0000 C   0  0  0  0  0  0  0  0  0  0  0  0
   13.3228   -2.3818    0.0000 C   0  0  0  0  0  0  0  0  0  0  0  0
   12.7392   -3.1865    0.0000 C   0  0  0  0  0  0  0  0  0  0  0  0
   11.7930   -2.8818    0.0000 C   0  0  0  0  0  0  0  0  0  0  0  0
    6.5968   -1.8818    0.0000 C   0  0  0  0  0  0  0  0  0  0  0  0
    7.4629   -0.3818    0.0000 C   0  0  0  0  0  0  0  0  0  0  0  0
    8.3289   -1.8818    0.0000 C   0  0  0  0  0  0  0  0  0  0  0  0
    5.7308   -1.3818    0.0000 C   0  0  0  0  0  0  0  0  0  0  0  0
    6.5968    0.1182    0.0000 C   0  0  0  0  0  0  0  0  0  0  0  0
    9.1949   -1.3818    0.0000 C   0  0  0  0  0  0  0  0  0  0  0  0
   10.0610   -1.8818    0.0000 C   0  0  0  0  0  0  0  0  0  0  0  0
   10.9270   -1.3818    0.0000 C   0  0  0  0  0  0  0  0  0  0  0  0
   10.9270   -3.3818    0.0000 C   0  0  0  0  0  0  0  0  0  0  0  0
   10.0610   -2.8818    0.0000 C   0  0  0  0  0  0  0  0  0  0  0  0
    4.8648    0.1182    0.0000 C   0  0  0  0  0  0  0  0  0  0  0  0
    3.9570   -0.2869    0.0000 C   0  0  0  0  0  0  0  0  0  0  0  0
   14.0284   -0.4203    0.0000 C   0  0  0  0  0  0  0  0  0  0  0  0
    3.2892    0.4574    0.0000 C   0  0  0  0  0  0  0  0  0  0  0  0
   14.3391    0.5302    0.0000 C   0  0  0  0  0  0  0  0  0  0  0  0
    3.6464   -1.2374    0.0000 C   0  0  0  0  0  0  0  0  0  0  0  0
    2.3107    0.2512    0.0000 C   0  0  0  0  0  0  0  0  0  0  0  0
    2.6678   -1.4436    0.0000 C   0  0  0  0  0  0  0  0  0  0  0  0
    2.0000   -0.6993    0.0000 C   0  0  0  0  0  0  0  0  0  0  0  0
   13.6712    1.2745    0.0000 C   0  0  0  0  0  0  0  0  0  0  0  0
   15.3176    0.7364    0.0000 C   0  0  0  0  0  0  0  0  0  0  0  0
   13.9819    2.2250    0.0000 C   0  0  0  0  0  0  0  0  0  0  0  0
   15.6282    1.6870    0.0000 C   0  0  0  0  0  0  0  0  0  0  0  0
   14.9604    2.4313    0.0000 C   0  0  0  0  0  0  0  0  0  0  0  0
   13.3517   -1.4808    0.0000 H   0  0  0  0  0  0  0  0  0  0  0  0
   13.7837   -2.7965    0.0000 H   0  0  0  0  0  0  0  0  0  0  0  0
   13.7837   -1.9670    0.0000 H   0  0  0  0  0  0  0  0  0  0  0  0
   12.4882   -3.7534    0.0000 H   0  0  0  0  0  0  0  0  0  0  0  0
   13.2766   -3.4957    0.0000 H   0  0  0  0  0  0  0  0  0  0  0  0
    6.1983   -2.3567    0.0000 H   0  0  0  0  0  0  0  0  0  0  0  0
    6.9954   -2.3567    0.0000 H   0  0  0  0  0  0  0  0  0  0  0  0
    8.0734   -0.4894    0.0000 H   0  0  0  0  0  0  0  0  0  0  0  0
    7.6749    0.2008    0.0000 H   0  0  0  0  0  0  0  0  0  0  0  0
    7.9304   -2.3567    0.0000 H   0  0  0  0  0  0  0  0  0  0  0  0
    8.7274   -2.3567    0.0000 H   0  0  0  0  0  0  0  0  0  0  0  0
    5.1202   -1.2741    0.0000 H   0  0  0  0  0  0  0  0  0  0  0  0
    5.5188   -1.9644    0.0000 H   0  0  0  0  0  0  0  0  0  0  0  0
    6.9954    0.5932    0.0000 H   0  0  0  0  0  0  0  0  0  0  0  0
    6.1983    0.5932    0.0000 H   0  0  0  0  0  0  0  0  0  0  0  0
    9.5934   -0.9068    0.0000 H   0  0  0  0  0  0  0  0  0  0  0  0
    8.7964   -0.9068    0.0000 H   0  0  0  0  0  0  0  0  0  0  0  0
   10.9270   -0.7618    0.0000 H   0  0  0  0  0  0  0  0  0  0  0  0
   10.9270   -4.0018    0.0000 H   0  0  0  0  0  0  0  0  0  0  0  0
    9.5240   -3.1918    0.0000 H   0  0  0  0  0  0  0  0  0  0  0  0
   12.6358   -0.1651    0.0000 H   0  0  0  0  0  0  0  0  0  0  0  0
    4.0604   -1.6989    0.0000 H   0  0  0  0  0  0  0  0  0  0  0  0
    1.8966    0.7127    0.0000 H   0  0  0  0  0  0  0  0  0  0  0  0
    2.4752   -2.0330    0.0000 H   0  0  0  0  0  0  0  0  0  0  0  0
    1.3933   -0.8272    0.0000 H   0  0  0  0  0  0  0  0  0  0  0  0
   13.0645    1.1467    0.0000 H   0  0  0  0  0  0  0  0  0  0  0  0
   15.7316    0.2750    0.0000 H   0  0  0  0  0  0  0  0  0  0  0  0
   13.5678    2.6865    0.0000 H   0  0  0  0  0  0  0  0  0  0  0  0
   16.2349    1.8148    0.0000 H   0  0  0  0  0  0  0  0  0  0  0  0
  1  7  1  0  0  0  0
  1 26  1  0  0  0  0
  2 36  1  0  0  0  0
  3 25  2  0  0  0  0
  4 13  1  0  0  0  0
  4 14  1  0  0  0  0
  4 15  1  0  0  0  0
  5 16  1  0  0  0  0
  5 17  1  0  0  0  0
  5 23  1  0  0  0  0
  6  8  1  0  0  0  0
  6 25  1  0  0  0  0
  6 57  1  0  0  0  0
  7 23  2  0  0  0  0
  8  9  1  0  0  0  0
  8 10  1  0  0  0  0
  8 37  1  0  0  0  0
  9 12  2  0  0  0  0
  9 20  1  0  0  0  0
 10 11  1  0  0  0  0
 10 38  1  0  0  0  0
 10 39  1  0  0  0  0
 11 12  1  0  0  0  0
 11 40  1  0  0  0  0
 11 41  1  0  0  0  0
 12 21  1  0  0  0  0
 13 16  1  0  0  0  0
 13 42  1  0  0  0  0
 13 43  1  0  0  0  0
 14 17  1  0  0  0  0
 14 44  1  0  0  0  0
 14 45  1  0  0  0  0
 15 18  1  0  0  0  0
 15 46  1  0  0  0  0
 15 47  1  0  0  0  0
 16 48  1  0  0  0  0
 16 49  1  0  0  0  0
 17 50  1  0  0  0  0
 17 51  1  0  0  0  0
 18 19  1  0  0  0  0
 18 52  1  0  0  0  0
 18 53  1  0  0  0  0
 19 20  2  0  0  0  0
 19 22  1  0  0  0  0
 20 54  1  0  0  0  0
 21 22  2  0  0  0  0
 21 55  1  0  0  0  0
 22 56  1  0  0  0  0
 23 24  1  0  0  0  0
 24 26  1  0  0  0  0
 24 28  2  0  0  0  0
 25 27  1  0  0  0  0
 26 29  2  0  0  0  0
 27 32  2  0  0  0  0
 27 33  1  0  0  0  0
 28 30  1  0  0  0  0
 28 58  1  0  0  0  0
 29 31  1  0  0  0  0
 29 59  1  0  0  0  0
 30 31  2  0  0  0  0
 30 60  1  0  0  0  0
 31 61  1  0  0  0  0
 32 34  1  0  0  0  0
 32 62  1  0  0  0  0
 33 35  2  0  0  0  0
 33 63  1  0  0  0  0
 34 36  2  0  0  0  0
 34 64  1  0  0  0  0
 35 36  1  0  0  0  0
 35 65  1  0  0  0  0
M  END
> <PUBCHEM_COMPOUND_CID>
44447013

> <PUBCHEM_COMPOUND_CANONICALIZED>
1

> <PUBCHEM_CACTVS_COMPLEXITY>
741

> <PUBCHEM_CACTVS_HBOND_ACCEPTOR>
6

> <PUBCHEM_CACTVS_HBOND_DONOR>
1

> <PUBCHEM_CACTVS_ROTATABLE_BOND>
6

> <PUBCHEM_CACTVS_SUBSKEYS>
AAADceB7oQBAAAAAAAAAAAAAAAAAAeIAAAA8YMEAAAAAAHgB9AAAHwQQQAAADCjB2gwxsdPAAACsAiNycACDABAlAABJmLkoRNiIYLLAnZGUIQxglgLIyYcYiMCOwAACAAAUAACAAAQAACgAACAACQAAAA==

> <PUBCHEM_IUPAC_OPENEYE_NAME>
N-[6-[2-[4-(1,2-benzothiazol-3-yl)piperazin-1-yl]ethyl]indan-1-yl]-4-fluoro-benzamide

> <PUBCHEM_IUPAC_CAS_NAME>
N-[6-[2-[4-(1,2-benzothiazol-3-yl)-1-piperazinyl]ethyl]-2,3-dihydro-1H-inden-1-yl]-4-fluorobenzamide

> <PUBCHEM_IUPAC_NAME_MARKUP>
<I>N</I>-[6-[2-[4-(1,2-benzothiazol-3-yl)piperazin-1-yl]ethyl]-2,3-dihydro-1<I>H</I>-inden-1-yl]-4-fluorobenzamide

> <PUBCHEM_IUPAC_NAME>
N-[6-[2-[4-(1,2-benzothiazol-3-yl)piperazin-1-yl]ethyl]-2,3-dihydro-1H-inden-1-yl]-4-fluorobenzamide

> <PUBCHEM_IUPAC_SYSTEMATIC_NAME>
N-[6-[2-[4-(1,2-benzothiazol-3-yl)piperazin-1-yl]ethyl]-2,3-dihydro-1H-inden-1-yl]-4-fluoranyl-benzamide

> <PUBCHEM_IUPAC_TRADITIONAL_NAME>
N-[6-[2-[4-(1,2-benzothiazol-3-yl)piperazino]ethyl]indan-1-yl]-4-fluoro-benzamide

> <PUBCHEM_IUPAC_INCHI>
InChI=1S/C29H29FN4OS/c30-23-10-7-22(8-11-23)29(35)31-26-12-9-21-6-5-20(19-25(21)26)13-14-33-15-17-34(18-16-33)28-24-3-1-2-4-27(24)36-32-28/h1-8,10-11,19,26H,9,12-18H2,(H,31,35)

> <PUBCHEM_IUPAC_INCHIKEY>
ZBUMCITULAAXBQ-UHFFFAOYSA-N

> <PUBCHEM_XLOGP3_AA>
5.8

> <PUBCHEM_EXACT_MASS>
500.20461090

> <PUBCHEM_MOLECULAR_FORMULA>
C29H29FN4OS

> <PUBCHEM_MOLECULAR_WEIGHT>
500.6

> <PUBCHEM_OPENEYE_CAN_SMILES>
C1CC2=C(C1NC(=O)C3=CC=C(C=C3)F)C=C(C=C2)CCN4CCN(CC4)C5=NSC6=CC=CC=C65

> <PUBCHEM_OPENEYE_ISO_SMILES>
C1CC2=C(C1NC(=O)C3=CC=C(C=C3)F)C=C(C=C2)CCN4CCN(CC4)C5=NSC6=CC=CC=C65

> <PUBCHEM_CACTVS_TPSA>
76.7

> <PUBCHEM_MONOISOTOPIC_WEIGHT>
500.20461090

> <PUBCHEM_TOTAL_CHARGE>
0

> <PUBCHEM_HEAVY_ATOM_COUNT>
36

> <PUBCHEM_ATOM_DEF_STEREO_COUNT>
0

> <PUBCHEM_ATOM_UDEF_STEREO_COUNT>
1

> <PUBCHEM_BOND_DEF_STEREO_COUNT>
0

> <PUBCHEM_BOND_UDEF_STEREO_COUNT>
0

> <PUBCHEM_ISOTOPIC_ATOM_COUNT>
0

> <PUBCHEM_COMPONENT_COUNT>
1

> <PUBCHEM_CACTVS_TAUTO_COUNT>
-1

> <PUBCHEM_COORDINATE_TYPE>
1
5
255

> <PUBCHEM_BONDANNOTATIONS>
1  26  8
1  7  8
12  21  8
19  20  8
19  22  8
21  22  8
23  24  8
24  26  8
24  28  8
26  29  8
27  32  8
27  33  8
28  30  8
29  31  8
30  31  8
32  34  8
33  35  8
34  36  8
35  36  8
8  6  3
7  23  8
9  12  8
9  20  8

$$$$
