10296414
  -OEChem-09292322262D

 61 65  0     0  0  0  0  0  0999 V2000
    6.3840    0.5427    0.0000 O   0  0  0  0  0  0  0  0  0  0  0  0
   15.0722    0.5773    0.0000 O   0  0  0  0  0  0  0  0  0  0  0  0
   16.8424   -1.4815    0.0000 O   0  0  0  0  0  0  0  0  0  0  0  0
    8.9821    0.0427    0.0000 N   0  0  0  0  0  0  0  0  0  0  0  0
   15.0722   -1.4920    0.0000 N   0  0  0  0  0  0  0  0  0  0  0  0
    2.8760    0.5495    0.0000 N   0  0  0  0  0  0  0  0  0  0  0  0
   10.7142   -0.9573    0.0000 C   0  0  0  0  0  0  0  0  0  0  0  0
    9.8482   -1.4573    0.0000 C   0  0  0  0  0  0  0  0  0  0  0  0
   10.7142    0.0427    0.0000 C   0  0  0  0  0  0  0  0  0  0  0  0
    8.9821   -0.9573    0.0000 C   0  0  0  0  0  0  0  0  0  0  0  0
    9.8482    0.5427    0.0000 C   0  0  0  0  0  0  0  0  0  0  0  0
   11.5802   -1.4573    0.0000 C   0  0  0  0  0  0  0  0  0  0  0  0
    8.1161    0.5427    0.0000 C   0  0  0  0  0  0  0  0  0  0  0  0
   12.4462   -0.9573    0.0000 C   0  0  0  0  0  0  0  0  0  0  0  0
    7.2501    0.0427    0.0000 C   0  0  0  0  0  0  0  0  0  0  0  0
   13.3123   -1.4573    0.0000 C   0  0  0  0  0  0  0  0  0  0  0  0
   12.4462    0.0427    0.0000 C   0  0  0  0  0  0  0  0  0  0  0  0
   14.1783   -0.9573    0.0000 C   0  0  0  0  0  0  0  0  0  0  0  0
   13.3123    0.5427    0.0000 C   0  0  0  0  0  0  0  0  0  0  0  0
   14.1783    0.0427    0.0000 C   0  0  0  0  0  0  0  0  0  0  0  0
    5.5180    0.0427    0.0000 C   0  0  0  0  0  0  0  0  0  0  0  0
   15.9783    0.0635    0.0000 C   0  0  0  0  0  0  0  0  0  0  0  0
   15.9783   -0.9781    0.0000 C   0  0  0  0  0  0  0  0  0  0  0  0
    4.6520    0.5427    0.0000 C   0  0  0  0  0  0  0  0  0  0  0  0
    5.5180   -0.9573    0.0000 C   0  0  0  0  0  0  0  0  0  0  0  0
    3.7860    0.0427    0.0000 C   0  0  0  0  0  0  0  0  0  0  0  0
    4.6681    1.5842    0.0000 C   0  0  0  0  0  0  0  0  0  0  0  0
    4.6520   -1.4573    0.0000 C   0  0  0  0  0  0  0  0  0  0  0  0
    3.7860   -0.9573    0.0000 C   0  0  0  0  0  0  0  0  0  0  0  0
    3.7700    2.1119    0.0000 C   0  0  0  0  0  0  0  0  0  0  0  0
    2.8680    1.5911    0.0000 C   0  0  0  0  0  0  0  0  0  0  0  0
    2.0000    2.0878    0.0000 C   0  0  0  0  0  0  0  0  0  0  0  0
   11.2511   -0.6473    0.0000 H   0  0  0  0  0  0  0  0  0  0  0  0
    9.4496   -1.9323    0.0000 H   0  0  0  0  0  0  0  0  0  0  0  0
   10.2467   -1.9323    0.0000 H   0  0  0  0  0  0  0  0  0  0  0  0
   11.3248   -0.0650    0.0000 H   0  0  0  0  0  0  0  0  0  0  0  0
   10.9262    0.6253    0.0000 H   0  0  0  0  0  0  0  0  0  0  0  0
    8.3715   -0.8497    0.0000 H   0  0  0  0  0  0  0  0  0  0  0  0
    8.7701   -1.5399    0.0000 H   0  0  0  0  0  0  0  0  0  0  0  0
   10.2467    1.0176    0.0000 H   0  0  0  0  0  0  0  0  0  0  0  0
    9.4496    1.0176    0.0000 H   0  0  0  0  0  0  0  0  0  0  0  0
   11.1817   -1.9323    0.0000 H   0  0  0  0  0  0  0  0  0  0  0  0
   11.9787   -1.9323    0.0000 H   0  0  0  0  0  0  0  0  0  0  0  0
    8.5146    1.0176    0.0000 H   0  0  0  0  0  0  0  0  0  0  0  0
    7.7176    1.0176    0.0000 H   0  0  0  0  0  0  0  0  0  0  0  0
    6.8516   -0.4323    0.0000 H   0  0  0  0  0  0  0  0  0  0  0  0
    7.6486   -0.4323    0.0000 H   0  0  0  0  0  0  0  0  0  0  0  0
   13.3123   -2.0773    0.0000 H   0  0  0  0  0  0  0  0  0  0  0  0
   11.9093    0.3527    0.0000 H   0  0  0  0  0  0  0  0  0  0  0  0
   13.3123    1.1627    0.0000 H   0  0  0  0  0  0  0  0  0  0  0  0
   15.0651   -2.1119    0.0000 H   0  0  0  0  0  0  0  0  0  0  0  0
   16.5891   -0.0426    0.0000 H   0  0  0  0  0  0  0  0  0  0  0  0
   16.1873    0.6472    0.0000 H   0  0  0  0  0  0  0  0  0  0  0  0
    6.0550   -1.2673    0.0000 H   0  0  0  0  0  0  0  0  0  0  0  0
    5.2086    1.8880    0.0000 H   0  0  0  0  0  0  0  0  0  0  0  0
    4.6520   -2.0773    0.0000 H   0  0  0  0  0  0  0  0  0  0  0  0
    3.2490   -1.2673    0.0000 H   0  0  0  0  0  0  0  0  0  0  0  0
    3.7724    2.7319    0.0000 H   0  0  0  0  0  0  0  0  0  0  0  0
    2.3079    2.6259    0.0000 H   0  0  0  0  0  0  0  0  0  0  0  0
    1.4619    2.3957    0.0000 H   0  0  0  0  0  0  0  0  0  0  0  0
    1.6921    1.5497    0.0000 H   0  0  0  0  0  0  0  0  0  0  0  0
  1 15  1  0  0  0  0
  1 21  1  0  0  0  0
  2 20  1  0  0  0  0
  2 22  1  0  0  0  0
  3 23  2  0  0  0  0
  4 10  1  0  0  0  0
  4 11  1  0  0  0  0
  4 13  1  0  0  0  0
  5 18  1  0  0  0  0
  5 23  1  0  0  0  0
  5 51  1  0  0  0  0
  6 26  1  0  0  0  0
  6 31  2  0  0  0  0
  7  8  1  0  0  0  0
  7  9  1  0  0  0  0
  7 12  1  0  0  0  0
  7 33  1  0  0  0  0
  8 10  1  0  0  0  0
  8 34  1  0  0  0  0
  8 35  1  0  0  0  0
  9 11  1  0  0  0  0
  9 36  1  0  0  0  0
  9 37  1  0  0  0  0
 10 38  1  0  0  0  0
 10 39  1  0  0  0  0
 11 40  1  0  0  0  0
 11 41  1  0  0  0  0
 12 14  1  0  0  0  0
 12 42  1  0  0  0  0
 12 43  1  0  0  0  0
 13 15  1  0  0  0  0
 13 44  1  0  0  0  0
 13 45  1  0  0  0  0
 14 16  2  0  0  0  0
 14 17  1  0  0  0  0
 15 46  1  0  0  0  0
 15 47  1  0  0  0  0
 16 18  1  0  0  0  0
 16 48  1  0  0  0  0
 17 19  2  0  0  0  0
 17 49  1  0  0  0  0
 18 20  2  0  0  0  0
 19 20  1  0  0  0  0
 19 50  1  0  0  0  0
 21 24  1  0  0  0  0
 21 25  2  0  0  0  0
 22 23  1  0  0  0  0
 22 52  1  0  0  0  0
 22 53  1  0  0  0  0
 24 26  2  0  0  0  0
 24 27  1  0  0  0  0
 25 28  1  0  0  0  0
 25 54  1  0  0  0  0
 26 29  1  0  0  0  0
 27 30  2  0  0  0  0
 27 55  1  0  0  0  0
 28 29  2  0  0  0  0
 28 56  1  0  0  0  0
 29 57  1  0  0  0  0
 30 31  1  0  0  0  0
 30 58  1  0  0  0  0
 31 32  1  0  0  0  0
 32 59  1  0  0  0  0
 32 60  1  0  0  0  0
 32 61  1  0  0  0  0
M  END
> <PUBCHEM_COMPOUND_CID>
10296414

> <PUBCHEM_COMPOUND_CANONICALIZED>
1

> <PUBCHEM_CACTVS_COMPLEXITY>
623

> <PUBCHEM_CACTVS_HBOND_ACCEPTOR>
5

> <PUBCHEM_CACTVS_HBOND_DONOR>
1

> <PUBCHEM_CACTVS_ROTATABLE_BOND>
6

> <PUBCHEM_CACTVS_SUBSKEYS>
AAADceB7MAAAAAAAAAAAAAAAAAAAAAAAAAA8eLECAAAAAACx9AAAHgAQAAAADQzhngYyxvPIFACoAyVyVAKCiCAhIiAImCB/bJgOJuLEsZ+HOCjm1BnY6AeQ0OMOIAAAQgAKEABAAACEABQgAAAAAAAAAA==

> <PUBCHEM_IUPAC_OPENEYE_NAME>
6-[[1-[2-[(2-methyl-5-quinolyl)oxy]ethyl]-4-piperidyl]methyl]-4H-1,4-benzoxazin-3-one

> <PUBCHEM_IUPAC_CAS_NAME>
6-[[1-[2-[(2-methyl-5-quinolinyl)oxy]ethyl]-4-piperidinyl]methyl]-4H-1,4-benzoxazin-3-one

> <PUBCHEM_IUPAC_NAME_MARKUP>
6-[[1-[2-(2-methylquinolin-5-yl)oxyethyl]piperidin-4-yl]methyl]-4<I>H</I>-1,4-benzoxazin-3-one

> <PUBCHEM_IUPAC_NAME>
6-[[1-[2-(2-methylquinolin-5-yl)oxyethyl]piperidin-4-yl]methyl]-4H-1,4-benzoxazin-3-one

> <PUBCHEM_IUPAC_SYSTEMATIC_NAME>
6-[[1-[2-(2-methylquinolin-5-yl)oxyethyl]piperidin-4-yl]methyl]-4H-1,4-benzoxazin-3-one

> <PUBCHEM_IUPAC_TRADITIONAL_NAME>
6-[[1-[2-[(2-methyl-5-quinolyl)oxy]ethyl]-4-piperidyl]methyl]-4H-1,4-benzoxazin-3-one

> <PUBCHEM_IUPAC_INCHI>
InChI=1S/C26H29N3O3/c1-18-5-7-21-22(27-18)3-2-4-24(21)31-14-13-29-11-9-19(10-12-29)15-20-6-8-25-23(16-20)28-26(30)17-32-25/h2-8,16,19H,9-15,17H2,1H3,(H,28,30)

> <PUBCHEM_IUPAC_INCHIKEY>
PJSUYRBCBFPCQW-UHFFFAOYSA-N

> <PUBCHEM_XLOGP3_AA>
4.3

> <PUBCHEM_EXACT_MASS>
431.22089180

> <PUBCHEM_MOLECULAR_FORMULA>
C26H29N3O3

> <PUBCHEM_MOLECULAR_WEIGHT>
431.5

> <PUBCHEM_OPENEYE_CAN_SMILES>
CC1=NC2=C(C=C1)C(=CC=C2)OCCN3CCC(CC3)CC4=CC5=C(C=C4)OCC(=O)N5

> <PUBCHEM_OPENEYE_ISO_SMILES>
CC1=NC2=C(C=C1)C(=CC=C2)OCCN3CCC(CC3)CC4=CC5=C(C=C4)OCC(=O)N5

> <PUBCHEM_CACTVS_TPSA>
63.7

> <PUBCHEM_MONOISOTOPIC_WEIGHT>
431.22089180

> <PUBCHEM_TOTAL_CHARGE>
0

> <PUBCHEM_HEAVY_ATOM_COUNT>
32

> <PUBCHEM_ATOM_DEF_STEREO_COUNT>
0

> <PUBCHEM_ATOM_UDEF_STEREO_COUNT>
0

> <PUBCHEM_BOND_DEF_STEREO_COUNT>
0

> <PUBCHEM_BOND_UDEF_STEREO_COUNT>
0

> <PUBCHEM_ISOTOPIC_ATOM_COUNT>
0

> <PUBCHEM_COMPONENT_COUNT>
1

> <PUBCHEM_CACTVS_TAUTO_COUNT>
3

> <PUBCHEM_COORDINATE_TYPE>
1
5
255

> <PUBCHEM_BONDANNOTATIONS>
14  16  8
14  17  8
16  18  8
17  19  8
18  20  8
19  20  8
21  24  8
21  25  8
24  26  8
24  27  8
25  28  8
26  29  8
27  30  8
28  29  8
30  31  8
6  26  8
6  31  8

$$$$
