45102708
  -OEChem-09292322482D

 61 65  0     1  0  0  0  0  0999 V2000
   10.4251    1.1833    0.0000 S   0  0  0  0  0  0  0  0  0  0  0  0
   15.6328   -1.7966    0.0000 O   0  0  0  0  0  0  0  0  0  0  0  0
   10.9218    2.0513    0.0000 O   0  0  0  0  0  0  0  0  0  0  0  0
    9.9285    0.3154    0.0000 O   0  0  0  0  0  0  0  0  0  0  0  0
    4.7024    0.6558    0.0000 N   0  0  3  0  0  0  0  0  0  0  0  0
   13.8969   -0.8033    0.0000 N   0  0  0  0  0  0  0  0  0  0  0  0
    9.5572    1.6800    0.0000 N   0  0  0  0  0  0  0  0  0  0  0  0
    3.6092   -1.1238    0.0000 N   0  0  0  0  0  0  0  0  0  0  0  0
   12.1649   -0.8100    0.0000 N   0  0  0  0  0  0  0  0  0  0  0  0
    2.8660   -1.7929    0.0000 N   0  0  0  0  0  0  0  0  0  0  0  0
    5.1363    1.5568    0.0000 C   0  0  0  0  0  0  0  0  0  0  0  0
    5.1363   -0.2451    0.0000 C   0  0  0  0  0  0  0  0  0  0  0  0
    6.1112    1.7793    0.0000 C   0  0  0  0  0  0  0  0  0  0  0  0
    6.1112   -0.4677    0.0000 C   0  0  0  0  0  0  0  0  0  0  0  0
    6.8931    1.1558    0.0000 C   0  0  0  0  0  0  0  0  0  0  0  0
    6.8931    0.1558    0.0000 C   0  0  0  0  0  0  0  0  0  0  0  0
    3.7024    0.6558    0.0000 C   0  0  0  0  0  0  0  0  0  0  0  0
    7.7870    1.6905    0.0000 C   0  0  0  0  0  0  0  0  0  0  0  0
    7.7870   -0.3788    0.0000 C   0  0  0  0  0  0  0  0  0  0  0  0
    8.6931    1.1766    0.0000 C   0  0  0  0  0  0  0  0  0  0  0  0
    3.2024   -0.2102    0.0000 C   0  0  0  0  0  0  0  0  0  0  0  0
    8.6931    0.1350    0.0000 C   0  0  0  0  0  0  0  0  0  0  0  0
   14.7610   -0.3000    0.0000 C   0  0  0  0  0  0  0  0  0  0  0  0
   13.9008   -1.8033    0.0000 C   0  0  0  0  0  0  0  0  0  0  0  0
   15.6289   -0.7966    0.0000 C   0  0  0  0  0  0  0  0  0  0  0  0
   14.7687   -2.3000    0.0000 C   0  0  0  0  0  0  0  0  0  0  0  0
   13.0290   -0.3067    0.0000 C   0  0  0  0  0  0  0  0  0  0  0  0
   11.2931    0.6867    0.0000 C   0  0  0  0  0  0  0  0  0  0  0  0
    2.2079   -0.3147    0.0000 C   0  0  0  0  0  0  0  0  0  0  0  0
   13.0251    0.6933    0.0000 C   0  0  0  0  0  0  0  0  0  0  0  0
   12.1572    1.1900    0.0000 C   0  0  0  0  0  0  0  0  0  0  0  0
   11.2969   -0.3133    0.0000 C   0  0  0  0  0  0  0  0  0  0  0  0
    2.0000   -1.2929    0.0000 C   0  0  0  0  0  0  0  0  0  0  0  0
    5.1363    2.1768    0.0000 H   0  0  0  0  0  0  0  0  0  0  0  0
    4.5319    1.6948    0.0000 H   0  0  0  0  0  0  0  0  0  0  0  0
    4.5319   -0.3831    0.0000 H   0  0  0  0  0  0  0  0  0  0  0  0
    5.1363   -0.8651    0.0000 H   0  0  0  0  0  0  0  0  0  0  0  0
    6.5960    2.1659    0.0000 H   0  0  0  0  0  0  0  0  0  0  0  0
    5.8422    2.3379    0.0000 H   0  0  0  0  0  0  0  0  0  0  0  0
    5.8422   -1.0263    0.0000 H   0  0  0  0  0  0  0  0  0  0  0  0
    6.5960   -0.8542    0.0000 H   0  0  0  0  0  0  0  0  0  0  0  0
    3.8101    1.2664    0.0000 H   0  0  0  0  0  0  0  0  0  0  0  0
    3.1198    0.8679    0.0000 H   0  0  0  0  0  0  0  0  0  0  0  0
    7.7798    2.3104    0.0000 H   0  0  0  0  0  0  0  0  0  0  0  0
    7.7798   -0.9988    0.0000 H   0  0  0  0  0  0  0  0  0  0  0  0
    9.2288   -0.1771    0.0000 H   0  0  0  0  0  0  0  0  0  0  0  0
   15.1577    0.1765    0.0000 H   0  0  0  0  0  0  0  0  0  0  0  0
   14.3606    0.1734    0.0000 H   0  0  0  0  0  0  0  0  0  0  0  0
   13.2898   -1.6980    0.0000 H   0  0  0  0  0  0  0  0  0  0  0  0
   13.6910   -2.3867    0.0000 H   0  0  0  0  0  0  0  0  0  0  0  0
    9.5548    2.3000    0.0000 H   0  0  0  0  0  0  0  0  0  0  0  0
   16.2399   -0.9019    0.0000 H   0  0  0  0  0  0  0  0  0  0  0  0
   15.8388   -0.2132    0.0000 H   0  0  0  0  0  0  0  0  0  0  0  0
   14.3720   -2.7764    0.0000 H   0  0  0  0  0  0  0  0  0  0  0  0
   15.1691   -2.7734    0.0000 H   0  0  0  0  0  0  0  0  0  0  0  0
    1.7930    0.1460    0.0000 H   0  0  0  0  0  0  0  0  0  0  0  0
    4.2156   -1.2526    0.0000 H   0  0  0  0  0  0  0  0  0  0  0  0
   13.5608    1.0054    0.0000 H   0  0  0  0  0  0  0  0  0  0  0  0
   12.1548    1.8100    0.0000 H   0  0  0  0  0  0  0  0  0  0  0  0
   10.7612   -0.6254    0.0000 H   0  0  0  0  0  0  0  0  0  0  0  0
    1.4336   -1.5450    0.0000 H   0  0  0  0  0  0  0  0  0  0  0  0
  1  3  2  0  0  0  0
  1  4  2  0  0  0  0
  1  7  1  0  0  0  0
  1 28  1  0  0  0  0
  2 25  1  0  0  0  0
  2 26  1  0  0  0  0
  5 11  1  0  0  0  0
  5 12  1  0  0  0  0
  5 17  1  0  0  0  0
  6 23  1  0  0  0  0
  6 24  1  0  0  0  0
  6 27  1  0  0  0  0
  7 20  1  0  0  0  0
  7 51  1  0  0  0  0
  8 10  1  0  0  0  0
  8 21  1  0  0  0  0
  8 57  1  0  0  0  0
  9 27  2  0  0  0  0
  9 32  1  0  0  0  0
 10 33  2  0  0  0  0
 11 13  1  0  0  0  0
 11 34  1  0  0  0  0
 11 35  1  0  0  0  0
 12 14  1  0  0  0  0
 12 36  1  0  0  0  0
 12 37  1  0  0  0  0
 13 15  1  0  0  0  0
 13 38  1  0  0  0  0
 13 39  1  0  0  0  0
 14 16  1  0  0  0  0
 14 40  1  0  0  0  0
 14 41  1  0  0  0  0
 15 16  2  0  0  0  0
 15 18  1  0  0  0  0
 16 19  1  0  0  0  0
 17 21  1  0  0  0  0
 17 42  1  0  0  0  0
 17 43  1  0  0  0  0
 18 20  2  0  0  0  0
 18 44  1  0  0  0  0
 19 22  2  0  0  0  0
 19 45  1  0  0  0  0
 20 22  1  0  0  0  0
 21 29  2  0  0  0  0
 22 46  1  0  0  0  0
 23 25  1  0  0  0  0
 23 47  1  0  0  0  0
 23 48  1  0  0  0  0
 24 26  1  0  0  0  0
 24 49  1  0  0  0  0
 24 50  1  0  0  0  0
 25 52  1  0  0  0  0
 25 53  1  0  0  0  0
 26 54  1  0  0  0  0
 26 55  1  0  0  0  0
 27 30  1  0  0  0  0
 28 31  1  0  0  0  0
 28 32  2  0  0  0  0
 29 33  1  0  0  0  0
 29 56  1  0  0  0  0
 30 31  2  0  0  0  0
 30 58  1  0  0  0  0
 31 59  1  0  0  0  0
 32 60  1  0  0  0  0
 33 61  1  0  0  0  0
M  END
> <PUBCHEM_COMPOUND_CID>
45102708

> <PUBCHEM_COMPOUND_CANONICALIZED>
1

> <PUBCHEM_CACTVS_COMPLEXITY>
728

> <PUBCHEM_CACTVS_HBOND_ACCEPTOR>
8

> <PUBCHEM_CACTVS_HBOND_DONOR>
2

> <PUBCHEM_CACTVS_ROTATABLE_BOND>
6

> <PUBCHEM_CACTVS_SUBSKEYS>
AAADceB7sABAAAAAAAAAAAAAAAAAAWAAAAA8WIAABYAAAAAB8AAAHgQYQAAADAjh3gY98ZNrFAKiAzZnZHDShDkxgiAZ+Tw4ZJiKYOLA2dGXpAhomALYyCcQgIAOiAAAQAAQAAAQAACAACAAAAAAAAAAAA==

> <PUBCHEM_IUPAC_OPENEYE_NAME>
6-morpholino-N-[3-(1H-pyrazol-5-ylmethyl)-1,2,4,5-tetrahydro-3-benzazepin-7-yl]pyridine-3-sulfonamide

> <PUBCHEM_IUPAC_CAS_NAME>
6-(4-morpholinyl)-N-[3-(1H-pyrazol-5-ylmethyl)-1,2,4,5-tetrahydro-3-benzazepin-7-yl]-3-pyridinesulfonamide

> <PUBCHEM_IUPAC_NAME_MARKUP>
6-morpholin-4-yl-<I>N</I>-[3-(1<I>H</I>-pyrazol-5-ylmethyl)-1,2,4,5-tetrahydro-3-benzazepin-7-yl]pyridine-3-sulfonamide

> <PUBCHEM_IUPAC_NAME>
6-morpholin-4-yl-N-[3-(1H-pyrazol-5-ylmethyl)-1,2,4,5-tetrahydro-3-benzazepin-7-yl]pyridine-3-sulfonamide

> <PUBCHEM_IUPAC_SYSTEMATIC_NAME>
6-morpholin-4-yl-N-[3-(1H-pyrazol-5-ylmethyl)-1,2,4,5-tetrahydro-3-benzazepin-7-yl]pyridine-3-sulfonamide

> <PUBCHEM_IUPAC_TRADITIONAL_NAME>
6-morpholino-N-[3-(1H-pyrazol-5-ylmethyl)-1,2,4,5-tetrahydro-3-benzazepin-7-yl]pyridine-3-sulfonamide

> <PUBCHEM_IUPAC_INCHI>
InChI=1S/C23H28N6O3S/c30-33(31,22-3-4-23(24-16-22)29-11-13-32-14-12-29)27-20-2-1-18-6-9-28(10-7-19(18)15-20)17-21-5-8-25-26-21/h1-5,8,15-16,27H,6-7,9-14,17H2,(H,25,26)

> <PUBCHEM_IUPAC_INCHIKEY>
ZRAVHLYAOHIXOD-UHFFFAOYSA-N

> <PUBCHEM_XLOGP3_AA>
1.6

> <PUBCHEM_EXACT_MASS>
468.19435995

> <PUBCHEM_MOLECULAR_FORMULA>
C23H28N6O3S

> <PUBCHEM_MOLECULAR_WEIGHT>
468.6

> <PUBCHEM_OPENEYE_CAN_SMILES>
C1CN(CCC2=C1C=CC(=C2)NS(=O)(=O)C3=CN=C(C=C3)N4CCOCC4)CC5=CC=NN5

> <PUBCHEM_OPENEYE_ISO_SMILES>
C1CN(CCC2=C1C=CC(=C2)NS(=O)(=O)C3=CN=C(C=C3)N4CCOCC4)CC5=CC=NN5

> <PUBCHEM_CACTVS_TPSA>
112

> <PUBCHEM_MONOISOTOPIC_WEIGHT>
468.19435995

> <PUBCHEM_TOTAL_CHARGE>
0

> <PUBCHEM_HEAVY_ATOM_COUNT>
33

> <PUBCHEM_ATOM_DEF_STEREO_COUNT>
0

> <PUBCHEM_ATOM_UDEF_STEREO_COUNT>
0

> <PUBCHEM_BOND_DEF_STEREO_COUNT>
0

> <PUBCHEM_BOND_UDEF_STEREO_COUNT>
0

> <PUBCHEM_ISOTOPIC_ATOM_COUNT>
0

> <PUBCHEM_COMPONENT_COUNT>
1

> <PUBCHEM_CACTVS_TAUTO_COUNT>
-1

> <PUBCHEM_COORDINATE_TYPE>
1
5
255

> <PUBCHEM_BONDANNOTATIONS>
10  33  8
15  16  8
15  18  8
16  19  8
18  20  8
19  22  8
20  22  8
21  29  8
27  30  8
28  31  8
28  32  8
29  33  8
30  31  8
8  10  8
8  21  8
9  27  8
9  32  8

$$$$
