164616004
  -OEChem-09292322432D

 67 71  0     0  0  0  0  0  0999 V2000
    2.0000   -6.0674    0.0000 F   0  0  0  0  0  0  0  0  0  0  0  0
    7.7189    2.3910    0.0000 F   0  0  0  0  0  0  0  0  0  0  0  0
    5.5443   -5.8721    0.0000 O   0  0  0  0  0  0  0  0  0  0  0  0
    9.0546    0.9024    0.0000 O   0  0  0  0  0  0  0  0  0  0  0  0
    6.4763   -1.4111    0.0000 N   0  0  0  0  0  0  0  0  0  0  0  0
   11.2758    4.9107    0.0000 N   0  0  0  0  0  0  0  0  0  0  0  0
    6.1279   -5.0674    0.0000 N   0  0  0  0  0  0  0  0  0  0  0  0
    5.8550   -3.3122    0.0000 C   0  0  0  0  0  0  0  0  0  0  0  0
    6.8335   -3.1059    0.0000 C   0  0  0  0  0  0  0  0  0  0  0  0
    5.1871   -2.5678    0.0000 C   0  0  0  0  0  0  0  0  0  0  0  0
    7.1441   -2.1554    0.0000 C   0  0  0  0  0  0  0  0  0  0  0  0
    5.4978   -1.6173    0.0000 C   0  0  0  0  0  0  0  0  0  0  0  0
    6.7870   -0.4606    0.0000 C   0  0  0  0  0  0  0  0  0  0  0  0
    5.5443   -4.2627    0.0000 C   0  0  0  0  0  0  0  0  0  0  0  0
    7.7654   -0.2544    0.0000 C   0  0  0  0  0  0  0  0  0  0  0  0
   11.9436    4.1664    0.0000 C   0  0  0  0  0  0  0  0  0  0  0  0
   11.5864    5.8612    0.0000 C   0  0  0  0  0  0  0  0  0  0  0  0
   12.9221    4.3726    0.0000 C   0  0  0  0  0  0  0  0  0  0  0  0
   12.5649    6.0674    0.0000 C   0  0  0  0  0  0  0  0  0  0  0  0
    4.5981   -4.5674    0.0000 C   0  0  0  0  0  0  0  0  0  0  0  0
   13.2328    5.3231    0.0000 C   0  0  0  0  0  0  0  0  0  0  0  0
   10.2973    4.7044    0.0000 C   0  0  0  0  0  0  0  0  0  0  0  0
    8.0761    0.6961    0.0000 C   0  0  0  0  0  0  0  0  0  0  0  0
    4.5981   -5.5674    0.0000 C   0  0  0  0  0  0  0  0  0  0  0  0
    3.7320   -4.0674    0.0000 C   0  0  0  0  0  0  0  0  0  0  0  0
    9.9866    3.7539    0.0000 C   0  0  0  0  0  0  0  0  0  0  0  0
    3.7320   -6.0674    0.0000 C   0  0  0  0  0  0  0  0  0  0  0  0
    2.8660   -4.5674    0.0000 C   0  0  0  0  0  0  0  0  0  0  0  0
    9.3653    1.8529    0.0000 C   0  0  0  0  0  0  0  0  0  0  0  0
    9.0081    3.5477    0.0000 C   0  0  0  0  0  0  0  0  0  0  0  0
   10.6545    3.0096    0.0000 C   0  0  0  0  0  0  0  0  0  0  0  0
    2.8660   -5.5674    0.0000 C   0  0  0  0  0  0  0  0  0  0  0  0
    8.6974    2.5972    0.0000 C   0  0  0  0  0  0  0  0  0  0  0  0
   10.3438    2.0591    0.0000 C   0  0  0  0  0  0  0  0  0  0  0  0
    6.2690   -3.7736    0.0000 H   0  0  0  0  0  0  0  0  0  0  0  0
    6.8540   -3.7256    0.0000 H   0  0  0  0  0  0  0  0  0  0  0  0
    7.4473   -3.1933    0.0000 H   0  0  0  0  0  0  0  0  0  0  0  0
    4.6402   -2.2758    0.0000 H   0  0  0  0  0  0  0  0  0  0  0  0
    4.8046   -3.0558    0.0000 H   0  0  0  0  0  0  0  0  0  0  0  0
    7.6910   -2.4474    0.0000 H   0  0  0  0  0  0  0  0  0  0  0  0
    7.5267   -1.6675    0.0000 H   0  0  0  0  0  0  0  0  0  0  0  0
    5.4772   -0.9977    0.0000 H   0  0  0  0  0  0  0  0  0  0  0  0
    4.8840   -1.5300    0.0000 H   0  0  0  0  0  0  0  0  0  0  0  0
    6.7664    0.1591    0.0000 H   0  0  0  0  0  0  0  0  0  0  0  0
    6.1731   -0.3732    0.0000 H   0  0  0  0  0  0  0  0  0  0  0  0
    7.7860   -0.8740    0.0000 H   0  0  0  0  0  0  0  0  0  0  0  0
    8.3793   -0.3417    0.0000 H   0  0  0  0  0  0  0  0  0  0  0  0
   11.4173    3.8387    0.0000 H   0  0  0  0  0  0  0  0  0  0  0  0
   12.1749    3.5911    0.0000 H   0  0  0  0  0  0  0  0  0  0  0  0
   11.5659    6.4808    0.0000 H   0  0  0  0  0  0  0  0  0  0  0  0
   10.9726    5.9485    0.0000 H   0  0  0  0  0  0  0  0  0  0  0  0
   12.9427    3.7529    0.0000 H   0  0  0  0  0  0  0  0  0  0  0  0
   13.5359    4.2852    0.0000 H   0  0  0  0  0  0  0  0  0  0  0  0
   13.0913    6.3950    0.0000 H   0  0  0  0  0  0  0  0  0  0  0  0
   12.3337    6.6427    0.0000 H   0  0  0  0  0  0  0  0  0  0  0  0
   13.7797    5.0311    0.0000 H   0  0  0  0  0  0  0  0  0  0  0  0
   13.6153    5.8110    0.0000 H   0  0  0  0  0  0  0  0  0  0  0  0
   10.2767    5.3241    0.0000 H   0  0  0  0  0  0  0  0  0  0  0  0
    9.6834    4.7918    0.0000 H   0  0  0  0  0  0  0  0  0  0  0  0
    8.0556    1.3158    0.0000 H   0  0  0  0  0  0  0  0  0  0  0  0
    7.4623    0.7835    0.0000 H   0  0  0  0  0  0  0  0  0  0  0  0
    3.7320   -3.4474    0.0000 H   0  0  0  0  0  0  0  0  0  0  0  0
    3.7320   -6.6874    0.0000 H   0  0  0  0  0  0  0  0  0  0  0  0
    2.3291   -4.2574    0.0000 H   0  0  0  0  0  0  0  0  0  0  0  0
    8.5940    4.0092    0.0000 H   0  0  0  0  0  0  0  0  0  0  0  0
   11.2611    3.1375    0.0000 H   0  0  0  0  0  0  0  0  0  0  0  0
   10.7578    1.5976    0.0000 H   0  0  0  0  0  0  0  0  0  0  0  0
  1 32  1  0  0  0  0
  2 33  1  0  0  0  0
  3  7  1  0  0  0  0
  3 24  1  0  0  0  0
  4 23  1  0  0  0  0
  4 29  1  0  0  0  0
  5 11  1  0  0  0  0
  5 12  1  0  0  0  0
  5 13  1  0  0  0  0
  6 16  1  0  0  0  0
  6 17  1  0  0  0  0
  6 22  1  0  0  0  0
  7 14  2  0  0  0  0
  8  9  1  0  0  0  0
  8 10  1  0  0  0  0
  8 14  1  0  0  0  0
  8 35  1  0  0  0  0
  9 11  1  0  0  0  0
  9 36  1  0  0  0  0
  9 37  1  0  0  0  0
 10 12  1  0  0  0  0
 10 38  1  0  0  0  0
 10 39  1  0  0  0  0
 11 40  1  0  0  0  0
 11 41  1  0  0  0  0
 12 42  1  0  0  0  0
 12 43  1  0  0  0  0
 13 15  1  0  0  0  0
 13 44  1  0  0  0  0
 13 45  1  0  0  0  0
 14 20  1  0  0  0  0
 15 23  1  0  0  0  0
 15 46  1  0  0  0  0
 15 47  1  0  0  0  0
 16 18  1  0  0  0  0
 16 48  1  0  0  0  0
 16 49  1  0  0  0  0
 17 19  1  0  0  0  0
 17 50  1  0  0  0  0
 17 51  1  0  0  0  0
 18 21  1  0  0  0  0
 18 52  1  0  0  0  0
 18 53  1  0  0  0  0
 19 21  1  0  0  0  0
 19 54  1  0  0  0  0
 19 55  1  0  0  0  0
 20 24  2  0  0  0  0
 20 25  1  0  0  0  0
 21 56  1  0  0  0  0
 21 57  1  0  0  0  0
 22 26  1  0  0  0  0
 22 58  1  0  0  0  0
 22 59  1  0  0  0  0
 23 60  1  0  0  0  0
 23 61  1  0  0  0  0
 24 27  1  0  0  0  0
 25 28  2  0  0  0  0
 25 62  1  0  0  0  0
 26 30  2  0  0  0  0
 26 31  1  0  0  0  0
 27 32  2  0  0  0  0
 27 63  1  0  0  0  0
 28 32  1  0  0  0  0
 28 64  1  0  0  0  0
 29 33  2  0  0  0  0
 29 34  1  0  0  0  0
 30 33  1  0  0  0  0
 30 65  1  0  0  0  0
 31 34  2  0  0  0  0
 31 66  1  0  0  0  0
 34 67  1  0  0  0  0
M  END
> <PUBCHEM_COMPOUND_CID>
164616004

> <PUBCHEM_COMPOUND_CANONICALIZED>
1

> <PUBCHEM_CACTVS_COMPLEXITY>
615

> <PUBCHEM_CACTVS_HBOND_ACCEPTOR>
7

> <PUBCHEM_CACTVS_HBOND_DONOR>
0

> <PUBCHEM_CACTVS_ROTATABLE_BOND>
8

> <PUBCHEM_CACTVS_SUBSKEYS>
AAADcfB7MYAAAAAAAAAAAAAAAAAAAWAAAAA8eIEAAAAAAFgB9AAAHwAEAAAADQzhng4whtMQBACpA6RyQgCCCAAkIAAomCE+TNoMJrqEtZuGOajmwBmI6ceY2OKOIAAAAAAIAABAAAAAABAAAAAAAAAAAA==

> <PUBCHEM_IUPAC_OPENEYE_NAME>
6-fluoro-3-[1-[3-[2-fluoro-4-(1-piperidylmethyl)phenoxy]propyl]-4-piperidyl]-1,2-benzoxazole

> <PUBCHEM_IUPAC_CAS_NAME>
6-fluoro-3-[1-[3-[2-fluoro-4-(1-piperidinylmethyl)phenoxy]propyl]-4-piperidinyl]-1,2-benzoxazole

> <PUBCHEM_IUPAC_NAME_MARKUP>
6-fluoro-3-[1-[3-[2-fluoro-4-(piperidin-1-ylmethyl)phenoxy]propyl]piperidin-4-yl]-1,2-benzoxazole

> <PUBCHEM_IUPAC_NAME>
6-fluoro-3-[1-[3-[2-fluoro-4-(piperidin-1-ylmethyl)phenoxy]propyl]piperidin-4-yl]-1,2-benzoxazole

> <PUBCHEM_IUPAC_SYSTEMATIC_NAME>
6-fluoranyl-3-[1-[3-[2-fluoranyl-4-(piperidin-1-ylmethyl)phenoxy]propyl]piperidin-4-yl]-1,2-benzoxazole

> <PUBCHEM_IUPAC_TRADITIONAL_NAME>
6-fluoro-3-[1-[3-[2-fluoro-4-(piperidinomethyl)phenoxy]propyl]-4-piperidyl]indoxazene

> <PUBCHEM_IUPAC_INCHI>
InChI=1S/C27H33F2N3O2/c28-22-6-7-23-26(18-22)34-30-27(23)21-9-14-31(15-10-21)13-4-16-33-25-8-5-20(17-24(25)29)19-32-11-2-1-3-12-32/h5-8,17-18,21H,1-4,9-16,19H2

> <PUBCHEM_IUPAC_INCHIKEY>
FFUYAMBLAURQHK-UHFFFAOYSA-N

> <PUBCHEM_XLOGP3_AA>
5.2

> <PUBCHEM_EXACT_MASS>
469.25408363

> <PUBCHEM_MOLECULAR_FORMULA>
C27H33F2N3O2

> <PUBCHEM_MOLECULAR_WEIGHT>
469.6

> <PUBCHEM_OPENEYE_CAN_SMILES>
C1CCN(CC1)CC2=CC(=C(C=C2)OCCCN3CCC(CC3)C4=NOC5=C4C=CC(=C5)F)F

> <PUBCHEM_OPENEYE_ISO_SMILES>
C1CCN(CC1)CC2=CC(=C(C=C2)OCCCN3CCC(CC3)C4=NOC5=C4C=CC(=C5)F)F

> <PUBCHEM_CACTVS_TPSA>
41.7

> <PUBCHEM_MONOISOTOPIC_WEIGHT>
469.25408363

> <PUBCHEM_TOTAL_CHARGE>
0

> <PUBCHEM_HEAVY_ATOM_COUNT>
34

> <PUBCHEM_ATOM_DEF_STEREO_COUNT>
0

> <PUBCHEM_ATOM_UDEF_STEREO_COUNT>
0

> <PUBCHEM_BOND_DEF_STEREO_COUNT>
0

> <PUBCHEM_BOND_UDEF_STEREO_COUNT>
0

> <PUBCHEM_ISOTOPIC_ATOM_COUNT>
0

> <PUBCHEM_COMPONENT_COUNT>
1

> <PUBCHEM_CACTVS_TAUTO_COUNT>
-1

> <PUBCHEM_COORDINATE_TYPE>
1
5
255

> <PUBCHEM_BONDANNOTATIONS>
14  20  8
20  24  8
20  25  8
24  27  8
25  28  8
26  30  8
26  31  8
27  32  8
28  32  8
29  33  8
29  34  8
3  24  8
3  7  8
30  33  8
31  34  8
7  14  8

$$$$
