162662242
  -OEChem-09292322432D

 49 51  0     1  0  0  0  0  0999 V2000
    0.0000    0.6305    0.0000 Br  0  0  0  0  0  0  0  0  0  0  0  0
    7.0602    0.6305    0.0000 Br  0  0  0  0  0  0  0  0  0  0  0  0
    3.5301    0.6546    0.0000 Se  0  0  0  0  0  0  0  0  0  0  0  0
    3.0301    9.6593    0.0000 Cl  0  0  0  0  0  0  0  0  0  0  0  0
    3.5301    5.6546    0.0000 N   0  0  3  0  0  0  0  0  0  0  0  0
    3.5301    2.6546    0.0000 N   0  0  0  0  0  0  0  0  0  0  0  0
    4.3961    5.1546    0.0000 C   0  0  3  0  0  0  0  0  0  0  0  0
    5.2622    5.6546    0.0000 C   0  0  0  0  0  0  0  0  0  0  0  0
    4.3961    4.1546    0.0000 C   0  0  0  0  0  0  0  0  0  0  0  0
    5.2622    6.6546    0.0000 C   0  0  0  0  0  0  0  0  0  0  0  0
    3.5301    6.6546    0.0000 C   0  0  0  0  0  0  0  0  0  0  0  0
    4.3961    7.1546    0.0000 C   0  0  0  0  0  0  0  0  0  0  0  0
    3.5301    3.6546    0.0000 C   0  0  0  0  0  0  0  0  0  0  0  0
    2.6641    5.1546    0.0000 C   0  0  0  0  0  0  0  0  0  0  0  0
    2.6641    2.1546    0.0000 C   0  0  0  0  0  0  0  0  0  0  0  0
    4.3961    2.1546    0.0000 C   0  0  0  0  0  0  0  0  0  0  0  0
    2.6641    1.1546    0.0000 C   0  0  0  0  0  0  0  0  0  0  0  0
    4.3961    1.1546    0.0000 C   0  0  0  0  0  0  0  0  0  0  0  0
    1.7702    2.6893    0.0000 C   0  0  0  0  0  0  0  0  0  0  0  0
    5.2901    2.6893    0.0000 C   0  0  0  0  0  0  0  0  0  0  0  0
    1.7702    0.6200    0.0000 C   0  0  0  0  0  0  0  0  0  0  0  0
    5.2901    0.6200    0.0000 C   0  0  0  0  0  0  0  0  0  0  0  0
    0.8641    2.1754    0.0000 C   0  0  0  0  0  0  0  0  0  0  0  0
    6.1962    2.1754    0.0000 C   0  0  0  0  0  0  0  0  0  0  0  0
    0.8641    1.1338    0.0000 C   0  0  0  0  0  0  0  0  0  0  0  0
    6.1962    1.1338    0.0000 C   0  0  0  0  0  0  0  0  0  0  0  0
    3.8592    4.8446    0.0000 H   0  0  0  0  0  0  0  0  0  0  0  0
    5.4742    5.0720    0.0000 H   0  0  0  0  0  0  0  0  0  0  0  0
    5.8728    5.7623    0.0000 H   0  0  0  0  0  0  0  0  0  0  0  0
    4.6082    3.5720    0.0000 H   0  0  0  0  0  0  0  0  0  0  0  0
    5.0067    4.2623    0.0000 H   0  0  0  0  0  0  0  0  0  0  0  0
    5.8728    6.5470    0.0000 H   0  0  0  0  0  0  0  0  0  0  0  0
    5.4742    7.2372    0.0000 H   0  0  0  0  0  0  0  0  0  0  0  0
    3.3181    7.2372    0.0000 H   0  0  0  0  0  0  0  0  0  0  0  0
    2.9196    6.5470    0.0000 H   0  0  0  0  0  0  0  0  0  0  0  0
    4.7947    7.6296    0.0000 H   0  0  0  0  0  0  0  0  0  0  0  0
    3.9976    7.6296    0.0000 H   0  0  0  0  0  0  0  0  0  0  0  0
    3.3181    4.2372    0.0000 H   0  0  0  0  0  0  0  0  0  0  0  0
    2.9196    3.5470    0.0000 H   0  0  0  0  0  0  0  0  0  0  0  0
    2.3541    5.6916    0.0000 H   0  0  0  0  0  0  0  0  0  0  0  0
    2.1272    4.8446    0.0000 H   0  0  0  0  0  0  0  0  0  0  0  0
    2.9741    4.6177    0.0000 H   0  0  0  0  0  0  0  0  0  0  0  0
    1.7773    3.3092    0.0000 H   0  0  0  0  0  0  0  0  0  0  0  0
    5.2829    3.3092    0.0000 H   0  0  0  0  0  0  0  0  0  0  0  0
    1.7773    0.0000    0.0000 H   0  0  0  0  0  0  0  0  0  0  0  0
    5.2829    0.0000    0.0000 H   0  0  0  0  0  0  0  0  0  0  0  0
    0.3284    2.4875    0.0000 H   0  0  0  0  0  0  0  0  0  0  0  0
    6.7319    2.4875    0.0000 H   0  0  0  0  0  0  0  0  0  0  0  0
    4.0301    9.6593    0.0000 H   0  0  0  0  0  0  0  0  0  0  0  0
  1 25  1  0  0  0  0
  2 26  1  0  0  0  0
  3 17  1  0  0  0  0
  3 18  1  0  0  0  0
  4 49  1  0  0  0  0
  5  7  1  0  0  0  0
  5 11  1  0  0  0  0
  5 14  1  0  0  0  0
  6 13  1  0  0  0  0
  6 15  1  0  0  0  0
  6 16  1  0  0  0  0
  7  8  1  0  0  0  0
  7  9  1  0  0  0  0
  7 27  1  0  0  0  0
  8 10  1  0  0  0  0
  8 28  1  0  0  0  0
  8 29  1  0  0  0  0
  9 13  1  0  0  0  0
  9 30  1  0  0  0  0
  9 31  1  0  0  0  0
 10 12  1  0  0  0  0
 10 32  1  0  0  0  0
 10 33  1  0  0  0  0
 11 12  1  0  0  0  0
 11 34  1  0  0  0  0
 11 35  1  0  0  0  0
 12 36  1  0  0  0  0
 12 37  1  0  0  0  0
 13 38  1  0  0  0  0
 13 39  1  0  0  0  0
 14 40  1  0  0  0  0
 14 41  1  0  0  0  0
 14 42  1  0  0  0  0
 15 17  2  0  0  0  0
 15 19  1  0  0  0  0
 16 18  2  0  0  0  0
 16 20  1  0  0  0  0
 17 21  1  0  0  0  0
 18 22  1  0  0  0  0
 19 23  2  0  0  0  0
 19 43  1  0  0  0  0
 20 24  2  0  0  0  0
 20 44  1  0  0  0  0
 21 25  2  0  0  0  0
 21 45  1  0  0  0  0
 22 26  2  0  0  0  0
 22 46  1  0  0  0  0
 23 25  1  0  0  0  0
 23 47  1  0  0  0  0
 24 26  1  0  0  0  0
 24 48  1  0  0  0  0
M  END
> <PUBCHEM_COMPOUND_CID>
162662242

> <PUBCHEM_COMPOUND_CANONICALIZED>
1

> <PUBCHEM_CACTVS_COMPLEXITY>
425

> <PUBCHEM_CACTVS_HBOND_ACCEPTOR>
2

> <PUBCHEM_CACTVS_HBOND_DONOR>
1

> <PUBCHEM_CACTVS_ROTATABLE_BOND>
3

> <PUBCHEM_CACTVS_SUBSKEYS>
AAADceB7AAAEGAAAIAAAAAAAAAAAAAAAAAA8eIEAAAAAAACxQAAAHADAAAABqCjBEAQywIMAAACAACRCQACCAAAhAgQIiAAIZKgIIGLA0ZGEIAhggADIyhcQgAAAAAAgAAAAAAAAAEAAAAAAAAAAAAAAAA==

> <PUBCHEM_IUPAC_OPENEYE_NAME>
3,7-dibromo-10-[2-(1-methyl-2-piperidyl)ethyl]phenoselenazine;hydrochloride

> <PUBCHEM_IUPAC_CAS_NAME>
3,7-dibromo-10-[2-(1-methyl-2-piperidinyl)ethyl]phenoselenazine;hydrochloride

> <PUBCHEM_IUPAC_NAME_MARKUP>
3,7-dibromo-10-[2-(1-methylpiperidin-2-yl)ethyl]phenoselenazine;hydrochloride

> <PUBCHEM_IUPAC_NAME>
3,7-dibromo-10-[2-(1-methylpiperidin-2-yl)ethyl]phenoselenazine;hydrochloride

> <PUBCHEM_IUPAC_SYSTEMATIC_NAME>
3,7-bis(bromanyl)-10-[2-(1-methylpiperidin-2-yl)ethyl]phenoselenazine;hydrochloride

> <PUBCHEM_IUPAC_TRADITIONAL_NAME>
3,7-dibromo-10-[2-(1-methyl-2-piperidyl)ethyl]phenoselenazine;hydrochloride

> <PUBCHEM_IUPAC_INCHI>
InChI=1S/C20H22Br2N2Se.ClH/c1-23-10-3-2-4-16(23)9-11-24-17-7-5-14(21)12-19(17)25-20-13-15(22)6-8-18(20)24;/h5-8,12-13,16H,2-4,9-11H2,1H3;1H

> <PUBCHEM_IUPAC_INCHIKEY>
PYYZTZRTNNOLCD-UHFFFAOYSA-N

> <PUBCHEM_EXACT_MASS>
565.90612

> <PUBCHEM_MOLECULAR_FORMULA>
C20H23Br2ClN2Se

> <PUBCHEM_MOLECULAR_WEIGHT>
565.6

> <PUBCHEM_OPENEYE_CAN_SMILES>
CN1CCCCC1CCN2C3=C(C=C(C=C3)Br)[Se]C4=C2C=CC(=C4)Br.Cl

> <PUBCHEM_OPENEYE_ISO_SMILES>
CN1CCCCC1CCN2C3=C(C=C(C=C3)Br)[Se]C4=C2C=CC(=C4)Br.Cl

> <PUBCHEM_CACTVS_TPSA>
6.5

> <PUBCHEM_MONOISOTOPIC_WEIGHT>
563.90817

> <PUBCHEM_TOTAL_CHARGE>
0

> <PUBCHEM_HEAVY_ATOM_COUNT>
26

> <PUBCHEM_ATOM_DEF_STEREO_COUNT>
0

> <PUBCHEM_ATOM_UDEF_STEREO_COUNT>
1

> <PUBCHEM_BOND_DEF_STEREO_COUNT>
0

> <PUBCHEM_BOND_UDEF_STEREO_COUNT>
0

> <PUBCHEM_ISOTOPIC_ATOM_COUNT>
0

> <PUBCHEM_COMPONENT_COUNT>
2

> <PUBCHEM_CACTVS_TAUTO_COUNT>
-1

> <PUBCHEM_COORDINATE_TYPE>
1
5
255

> <PUBCHEM_BONDANNOTATIONS>
15  17  8
15  19  8
16  18  8
16  20  8
17  21  8
18  22  8
19  23  8
20  24  8
21  25  8
22  26  8
23  25  8
24  26  8
7  9  3

$$$$
