19592159
  -OEChem-09292322202D

 70 73  0     1  0  0  0  0  0999 V2000
    7.1962    1.7673    0.0000 O   0  0  0  0  0  0  0  0  0  0  0  0
   12.3923    0.7673    0.0000 N   0  0  3  0  0  0  0  0  0  0  0  0
    8.0622    0.2673    0.0000 N   0  0  0  0  0  0  0  0  0  0  0  0
   15.8612   -3.2673    0.0000 N   0  0  0  0  0  0  0  0  0  0  0  0
   13.2583    0.2673    0.0000 C   0  0  3  0  0  0  0  0  0  0  0  0
   13.2583   -0.7327    0.0000 C   0  0  0  0  0  0  0  0  0  0  0  0
   14.1244    0.7673    0.0000 C   0  0  0  0  0  0  0  0  0  0  0  0
   14.1244   -1.2327    0.0000 C   0  0  0  0  0  0  0  0  0  0  0  0
   14.9904    0.2673    0.0000 C   0  0  0  0  0  0  0  0  0  0  0  0
   14.9904   -0.7327    0.0000 C   0  0  0  0  0  0  0  0  0  0  0  0
   11.5263    0.2673    0.0000 C   0  0  0  0  0  0  0  0  0  0  0  0
   12.3923    1.7673    0.0000 C   0  0  0  0  0  0  0  0  0  0  0  0
   10.6603    0.7673    0.0000 C   0  0  0  0  0  0  0  0  0  0  0  0
   11.5263    2.2673    0.0000 C   0  0  0  0  0  0  0  0  0  0  0  0
   15.8843    0.8019    0.0000 C   0  0  0  0  0  0  0  0  0  0  0  0
   15.8843   -1.2674    0.0000 C   0  0  0  0  0  0  0  0  0  0  0  0
    9.7942    0.2673    0.0000 C   0  0  0  0  0  0  0  0  0  0  0  0
   16.7904    0.2881    0.0000 C   0  0  0  0  0  0  0  0  0  0  0  0
   16.7904   -0.7536    0.0000 C   0  0  0  0  0  0  0  0  0  0  0  0
   11.5263    3.2673    0.0000 C   0  0  0  0  0  0  0  0  0  0  0  0
    8.9282    0.7673    0.0000 C   0  0  0  0  0  0  0  0  0  0  0  0
   15.8728   -2.2673    0.0000 C   0  0  0  0  0  0  0  0  0  0  0  0
    7.1962    0.7673    0.0000 C   0  0  0  0  0  0  0  0  0  0  0  0
    6.3301    0.2673    0.0000 C   0  0  0  0  0  0  0  0  0  0  0  0
    5.4641    0.7673    0.0000 C   0  0  0  0  0  0  0  0  0  0  0  0
    6.3301   -0.7327    0.0000 C   0  0  0  0  0  0  0  0  0  0  0  0
    4.5981   -0.7327    0.0000 C   0  0  0  0  0  0  0  0  0  0  0  0
    4.5981    0.2673    0.0000 C   0  0  0  0  0  0  0  0  0  0  0  0
    5.4641   -1.2327    0.0000 C   0  0  0  0  0  0  0  0  0  0  0  0
    3.7320   -1.2327    0.0000 C   0  0  0  0  0  0  0  0  0  0  0  0
    2.8660   -0.7327    0.0000 C   0  0  0  0  0  0  0  0  0  0  0  0
    3.7320   -2.2327    0.0000 C   0  0  0  0  0  0  0  0  0  0  0  0
    2.0000   -1.2327    0.0000 C   0  0  0  0  0  0  0  0  0  0  0  0
    2.8660   -2.7327    0.0000 C   0  0  0  0  0  0  0  0  0  0  0  0
    2.0000   -2.2327    0.0000 C   0  0  0  0  0  0  0  0  0  0  0  0
   13.2583    0.8873    0.0000 H   0  0  0  0  0  0  0  0  0  0  0  0
   12.6477   -0.6251    0.0000 H   0  0  0  0  0  0  0  0  0  0  0  0
   13.0463   -1.3154    0.0000 H   0  0  0  0  0  0  0  0  0  0  0  0
   14.5229    1.2422    0.0000 H   0  0  0  0  0  0  0  0  0  0  0  0
   13.7258    1.2422    0.0000 H   0  0  0  0  0  0  0  0  0  0  0  0
   13.7258   -1.7077    0.0000 H   0  0  0  0  0  0  0  0  0  0  0  0
   14.5229   -1.7077    0.0000 H   0  0  0  0  0  0  0  0  0  0  0  0
   11.1278   -0.2077    0.0000 H   0  0  0  0  0  0  0  0  0  0  0  0
   11.9248   -0.2077    0.0000 H   0  0  0  0  0  0  0  0  0  0  0  0
   13.0029    1.6596    0.0000 H   0  0  0  0  0  0  0  0  0  0  0  0
   12.6044    2.3499    0.0000 H   0  0  0  0  0  0  0  0  0  0  0  0
   11.0588    1.2422    0.0000 H   0  0  0  0  0  0  0  0  0  0  0  0
   10.2617    1.2422    0.0000 H   0  0  0  0  0  0  0  0  0  0  0  0
   10.9157    2.3749    0.0000 H   0  0  0  0  0  0  0  0  0  0  0  0
   11.3142    1.6846    0.0000 H   0  0  0  0  0  0  0  0  0  0  0  0
   15.8772    1.4219    0.0000 H   0  0  0  0  0  0  0  0  0  0  0  0
    9.3957   -0.2077    0.0000 H   0  0  0  0  0  0  0  0  0  0  0  0
   10.1928   -0.2077    0.0000 H   0  0  0  0  0  0  0  0  0  0  0  0
   17.3261    0.6001    0.0000 H   0  0  0  0  0  0  0  0  0  0  0  0
   17.3261   -1.0656    0.0000 H   0  0  0  0  0  0  0  0  0  0  0  0
   12.1463    3.2673    0.0000 H   0  0  0  0  0  0  0  0  0  0  0  0
   11.5263    3.8873    0.0000 H   0  0  0  0  0  0  0  0  0  0  0  0
   10.9063    3.2673    0.0000 H   0  0  0  0  0  0  0  0  0  0  0  0
    9.3267    1.2422    0.0000 H   0  0  0  0  0  0  0  0  0  0  0  0
    8.5297    1.2422    0.0000 H   0  0  0  0  0  0  0  0  0  0  0  0
    8.0622   -0.3527    0.0000 H   0  0  0  0  0  0  0  0  0  0  0  0
    5.4641    1.3873    0.0000 H   0  0  0  0  0  0  0  0  0  0  0  0
    6.8671   -1.0427    0.0000 H   0  0  0  0  0  0  0  0  0  0  0  0
    4.0611    0.5773    0.0000 H   0  0  0  0  0  0  0  0  0  0  0  0
    5.4641   -1.8527    0.0000 H   0  0  0  0  0  0  0  0  0  0  0  0
    2.8660   -0.1127    0.0000 H   0  0  0  0  0  0  0  0  0  0  0  0
    4.2690   -2.5427    0.0000 H   0  0  0  0  0  0  0  0  0  0  0  0
    1.4631   -0.9227    0.0000 H   0  0  0  0  0  0  0  0  0  0  0  0
    2.8660   -3.3527    0.0000 H   0  0  0  0  0  0  0  0  0  0  0  0
    1.4631   -2.5427    0.0000 H   0  0  0  0  0  0  0  0  0  0  0  0
  1 23  2  0  0  0  0
  2  5  1  0  0  0  0
  2 11  1  0  0  0  0
  2 12  1  0  0  0  0
  3 21  1  0  0  0  0
  3 23  1  0  0  0  0
  3 61  1  0  0  0  0
  4 22  3  0  0  0  0
  5  6  1  0  0  0  0
  5  7  1  0  0  0  0
  5 36  1  0  0  0  0
  6  8  1  0  0  0  0
  6 37  1  0  0  0  0
  6 38  1  0  0  0  0
  7  9  1  0  0  0  0
  7 39  1  0  0  0  0
  7 40  1  0  0  0  0
  8 10  1  0  0  0  0
  8 41  1  0  0  0  0
  8 42  1  0  0  0  0
  9 10  2  0  0  0  0
  9 15  1  0  0  0  0
 10 16  1  0  0  0  0
 11 13  1  0  0  0  0
 11 43  1  0  0  0  0
 11 44  1  0  0  0  0
 12 14  1  0  0  0  0
 12 45  1  0  0  0  0
 12 46  1  0  0  0  0
 13 17  1  0  0  0  0
 13 47  1  0  0  0  0
 13 48  1  0  0  0  0
 14 20  1  0  0  0  0
 14 49  1  0  0  0  0
 14 50  1  0  0  0  0
 15 18  2  0  0  0  0
 15 51  1  0  0  0  0
 16 19  2  0  0  0  0
 16 22  1  0  0  0  0
 17 21  1  0  0  0  0
 17 52  1  0  0  0  0
 17 53  1  0  0  0  0
 18 19  1  0  0  0  0
 18 54  1  0  0  0  0
 19 55  1  0  0  0  0
 20 56  1  0  0  0  0
 20 57  1  0  0  0  0
 20 58  1  0  0  0  0
 21 59  1  0  0  0  0
 21 60  1  0  0  0  0
 23 24  1  0  0  0  0
 24 25  2  0  0  0  0
 24 26  1  0  0  0  0
 25 28  1  0  0  0  0
 25 62  1  0  0  0  0
 26 29  2  0  0  0  0
 26 63  1  0  0  0  0
 27 28  2  0  0  0  0
 27 29  1  0  0  0  0
 27 30  1  0  0  0  0
 28 64  1  0  0  0  0
 29 65  1  0  0  0  0
 30 31  2  0  0  0  0
 30 32  1  0  0  0  0
 31 33  1  0  0  0  0
 31 66  1  0  0  0  0
 32 34  2  0  0  0  0
 32 67  1  0  0  0  0
 33 35  2  0  0  0  0
 33 68  1  0  0  0  0
 34 35  1  0  0  0  0
 34 69  1  0  0  0  0
 35 70  1  0  0  0  0
M  END
> <PUBCHEM_COMPOUND_CID>
19592159

> <PUBCHEM_COMPOUND_CANONICALIZED>
1

> <PUBCHEM_CACTVS_COMPLEXITY>
685

> <PUBCHEM_CACTVS_HBOND_ACCEPTOR>
3

> <PUBCHEM_CACTVS_HBOND_DONOR>
1

> <PUBCHEM_CACTVS_ROTATABLE_BOND>
10

> <PUBCHEM_CACTVS_SUBSKEYS>
AAADcfB7IAAAAAAAAAAAAAAAAAAAAAAAAAAwYMGAAAAAAADBUAAAHgAQAAAADCjBmAQyAIPAAACYBiFSEACiAAAkAAAIiIEIBMgIoDKAlRGEIQhglgCIiY8YiMCOwAACAAAQAACQAASAACAAAAAAAAAAAA==

> <PUBCHEM_IUPAC_OPENEYE_NAME>
N-[4-[(5-cyanotetralin-2-yl)-propyl-amino]butyl]-4-phenyl-benzamide

> <PUBCHEM_IUPAC_CAS_NAME>
N-[4-[(5-cyano-1,2,3,4-tetrahydronaphthalen-2-yl)-propylamino]butyl]-4-phenylbenzamide

> <PUBCHEM_IUPAC_NAME_MARKUP>
<I>N</I>-[4-[(5-cyano-1,2,3,4-tetrahydronaphthalen-2-yl)-propylamino]butyl]-4-phenylbenzamide

> <PUBCHEM_IUPAC_NAME>
N-[4-[(5-cyano-1,2,3,4-tetrahydronaphthalen-2-yl)-propylamino]butyl]-4-phenylbenzamide

> <PUBCHEM_IUPAC_SYSTEMATIC_NAME>
N-[4-[(5-cyano-1,2,3,4-tetrahydronaphthalen-2-yl)-propyl-amino]butyl]-4-phenyl-benzamide

> <PUBCHEM_IUPAC_TRADITIONAL_NAME>
N-[4-[(5-cyanotetralin-2-yl)-propyl-amino]butyl]-4-phenyl-benzamide

> <PUBCHEM_IUPAC_INCHI>
InChI=1S/C31H35N3O/c1-2-20-34(29-17-18-30-27(22-29)11-8-12-28(30)23-32)21-7-6-19-33-31(35)26-15-13-25(14-16-26)24-9-4-3-5-10-24/h3-5,8-16,29H,2,6-7,17-22H2,1H3,(H,33,35)

> <PUBCHEM_IUPAC_INCHIKEY>
ZQAMNGCYKZHATK-UHFFFAOYSA-N

> <PUBCHEM_XLOGP3_AA>
6.6

> <PUBCHEM_EXACT_MASS>
465.278012748

> <PUBCHEM_MOLECULAR_FORMULA>
C31H35N3O

> <PUBCHEM_MOLECULAR_WEIGHT>
465.6

> <PUBCHEM_OPENEYE_CAN_SMILES>
CCCN(CCCCNC(=O)C1=CC=C(C=C1)C2=CC=CC=C2)C3CCC4=C(C3)C=CC=C4C#N

> <PUBCHEM_OPENEYE_ISO_SMILES>
CCCN(CCCCNC(=O)C1=CC=C(C=C1)C2=CC=CC=C2)C3CCC4=C(C3)C=CC=C4C#N

> <PUBCHEM_CACTVS_TPSA>
56.1

> <PUBCHEM_MONOISOTOPIC_WEIGHT>
465.278012748

> <PUBCHEM_TOTAL_CHARGE>
0

> <PUBCHEM_HEAVY_ATOM_COUNT>
35

> <PUBCHEM_ATOM_DEF_STEREO_COUNT>
0

> <PUBCHEM_ATOM_UDEF_STEREO_COUNT>
1

> <PUBCHEM_BOND_DEF_STEREO_COUNT>
0

> <PUBCHEM_BOND_UDEF_STEREO_COUNT>
0

> <PUBCHEM_ISOTOPIC_ATOM_COUNT>
0

> <PUBCHEM_COMPONENT_COUNT>
1

> <PUBCHEM_CACTVS_TAUTO_COUNT>
-1

> <PUBCHEM_COORDINATE_TYPE>
1
5
255

> <PUBCHEM_BONDANNOTATIONS>
10  16  8
15  18  8
16  19  8
18  19  8
5  2  3
24  25  8
24  26  8
25  28  8
26  29  8
27  28  8
27  29  8
30  31  8
30  32  8
31  33  8
32  34  8
33  35  8
34  35  8
9  10  8
9  15  8

$$$$
