11642163
  -OEChem-09292322242D

 60 64  0     1  0  0  0  0  0999 V2000
    7.8867    1.4317    0.0000 S   0  0  0  0  0  0  0  0  0  0  0  0
    3.5878    2.2105    0.0000 S   0  0  0  0  0  0  0  0  0  0  0  0
   16.1012   -4.1073    0.0000 F   0  0  0  0  0  0  0  0  0  0  0  0
   16.4673   -2.7412    0.0000 F   0  0  0  0  0  0  0  0  0  0  0  0
   14.7352   -3.7412    0.0000 F   0  0  0  0  0  0  0  0  0  0  0  0
   15.5064   -1.4674    0.0000 O   0  0  0  0  0  0  0  0  0  0  0  0
   10.8867   -0.3004    0.0000 N   0  0  3  0  0  0  0  0  0  0  0  0
   14.1125   -2.2722    0.0000 N   0  0  0  0  0  0  0  0  0  0  0  0
    6.2989    2.2407    0.0000 N   0  0  0  0  0  0  0  0  0  0  0  0
    6.2989    0.6227    0.0000 N   0  0  0  0  0  0  0  0  0  0  0  0
    5.3479    0.9317    0.0000 N   0  0  0  0  0  0  0  0  0  0  0  0
    3.5878    3.8285    0.0000 N   0  0  0  0  0  0  0  0  0  0  0  0
   11.3111   -1.1846    0.0000 C   0  0  0  0  0  0  0  0  0  0  0  0
   11.3111    0.5839    0.0000 C   0  0  0  0  0  0  0  0  0  0  0  0
   12.2664   -1.4067    0.0000 C   0  0  0  0  0  0  0  0  0  0  0  0
   12.2664    0.8060    0.0000 C   0  0  0  0  0  0  0  0  0  0  0  0
   13.0373   -0.8004    0.0000 C   0  0  0  0  0  0  0  0  0  0  0  0
   13.0373    0.1996    0.0000 C   0  0  0  0  0  0  0  0  0  0  0  0
    9.8867   -0.3004    0.0000 C   0  0  0  0  0  0  0  0  0  0  0  0
   13.9033   -1.3003    0.0000 C   0  0  0  0  0  0  0  0  0  0  0  0
    9.3867    0.5657    0.0000 C   0  0  0  0  0  0  0  0  0  0  0  0
   13.9033    0.6996    0.0000 C   0  0  0  0  0  0  0  0  0  0  0  0
   14.7693   -0.8004    0.0000 C   0  0  0  0  0  0  0  0  0  0  0  0
   14.7693    0.1996    0.0000 C   0  0  0  0  0  0  0  0  0  0  0  0
    8.3867    0.5657    0.0000 C   0  0  0  0  0  0  0  0  0  0  0  0
   15.1012   -2.3752    0.0000 C   0  0  0  0  0  0  0  0  0  0  0  0
   15.6012   -3.2412    0.0000 C   0  0  0  0  0  0  0  0  0  0  0  0
    6.8867    1.4317    0.0000 C   0  0  0  0  0  0  0  0  0  0  0  0
    5.3479    1.9317    0.0000 C   0  0  0  0  0  0  0  0  0  0  0  0
    4.5388    2.5195    0.0000 C   0  0  0  0  0  0  0  0  0  0  0  0
    6.6079    3.1918    0.0000 C   0  0  0  0  0  0  0  0  0  0  0  0
    4.5388    3.5195    0.0000 C   0  0  0  0  0  0  0  0  0  0  0  0
    3.0000    3.0195    0.0000 C   0  0  0  0  0  0  0  0  0  0  0  0
    5.3479    4.1073    0.0000 C   0  0  0  0  0  0  0  0  0  0  0  0
    2.0000    3.0195    0.0000 C   0  0  0  0  0  0  0  0  0  0  0  0
   10.7063   -1.3212    0.0000 H   0  0  0  0  0  0  0  0  0  0  0  0
   11.3091   -1.8046    0.0000 H   0  0  0  0  0  0  0  0  0  0  0  0
   11.3091    1.2039    0.0000 H   0  0  0  0  0  0  0  0  0  0  0  0
   10.7063    0.7205    0.0000 H   0  0  0  0  0  0  0  0  0  0  0  0
   11.9946   -1.9640    0.0000 H   0  0  0  0  0  0  0  0  0  0  0  0
   12.7488   -1.7961    0.0000 H   0  0  0  0  0  0  0  0  0  0  0  0
   12.7488    1.1954    0.0000 H   0  0  0  0  0  0  0  0  0  0  0  0
   11.9946    1.3633    0.0000 H   0  0  0  0  0  0  0  0  0  0  0  0
    9.3041   -0.5124    0.0000 H   0  0  0  0  0  0  0  0  0  0  0  0
    9.9944   -0.9109    0.0000 H   0  0  0  0  0  0  0  0  0  0  0  0
    9.9693    0.7777    0.0000 H   0  0  0  0  0  0  0  0  0  0  0  0
    9.2790    1.1763    0.0000 H   0  0  0  0  0  0  0  0  0  0  0  0
   13.9033    1.3196    0.0000 H   0  0  0  0  0  0  0  0  0  0  0  0
   15.3063    0.5097    0.0000 H   0  0  0  0  0  0  0  0  0  0  0  0
    7.8041    0.3536    0.0000 H   0  0  0  0  0  0  0  0  0  0  0  0
    8.4944   -0.0449    0.0000 H   0  0  0  0  0  0  0  0  0  0  0  0
    7.1976    3.0002    0.0000 H   0  0  0  0  0  0  0  0  0  0  0  0
    6.7995    3.7814    0.0000 H   0  0  0  0  0  0  0  0  0  0  0  0
    6.0183    3.3834    0.0000 H   0  0  0  0  0  0  0  0  0  0  0  0
    5.7123    3.6057    0.0000 H   0  0  0  0  0  0  0  0  0  0  0  0
    5.8494    4.4717    0.0000 H   0  0  0  0  0  0  0  0  0  0  0  0
    4.9834    4.6089    0.0000 H   0  0  0  0  0  0  0  0  0  0  0  0
    2.0000    3.6395    0.0000 H   0  0  0  0  0  0  0  0  0  0  0  0
    1.3800    3.0195    0.0000 H   0  0  0  0  0  0  0  0  0  0  0  0
    2.0000    2.3995    0.0000 H   0  0  0  0  0  0  0  0  0  0  0  0
  1 25  1  0  0  0  0
  1 28  1  0  0  0  0
  2 30  1  0  0  0  0
  2 33  1  0  0  0  0
  3 27  1  0  0  0  0
  4 27  1  0  0  0  0
  5 27  1  0  0  0  0
  6 23  1  0  0  0  0
  6 26  1  0  0  0  0
  7 13  1  0  0  0  0
  7 14  1  0  0  0  0
  7 19  1  0  0  0  0
  8 20  1  0  0  0  0
  8 26  2  0  0  0  0
  9 28  1  0  0  0  0
  9 29  1  0  0  0  0
  9 31  1  0  0  0  0
 10 11  1  0  0  0  0
 10 28  2  0  0  0  0
 11 29  2  0  0  0  0
 12 32  1  0  0  0  0
 12 33  2  0  0  0  0
 13 15  1  0  0  0  0
 13 36  1  0  0  0  0
 13 37  1  0  0  0  0
 14 16  1  0  0  0  0
 14 38  1  0  0  0  0
 14 39  1  0  0  0  0
 15 17  1  0  0  0  0
 15 40  1  0  0  0  0
 15 41  1  0  0  0  0
 16 18  1  0  0  0  0
 16 42  1  0  0  0  0
 16 43  1  0  0  0  0
 17 18  2  0  0  0  0
 17 20  1  0  0  0  0
 18 22  1  0  0  0  0
 19 21  1  0  0  0  0
 19 44  1  0  0  0  0
 19 45  1  0  0  0  0
 20 23  2  0  0  0  0
 21 25  1  0  0  0  0
 21 46  1  0  0  0  0
 21 47  1  0  0  0  0
 22 24  2  0  0  0  0
 22 48  1  0  0  0  0
 23 24  1  0  0  0  0
 24 49  1  0  0  0  0
 25 50  1  0  0  0  0
 25 51  1  0  0  0  0
 26 27  1  0  0  0  0
 29 30  1  0  0  0  0
 30 32  2  0  0  0  0
 31 52  1  0  0  0  0
 31 53  1  0  0  0  0
 31 54  1  0  0  0  0
 32 34  1  0  0  0  0
 33 35  1  0  0  0  0
 34 55  1  0  0  0  0
 34 56  1  0  0  0  0
 34 57  1  0  0  0  0
 35 58  1  0  0  0  0
 35 59  1  0  0  0  0
 35 60  1  0  0  0  0
M  END
> <PUBCHEM_COMPOUND_CID>
11642163

> <PUBCHEM_COMPOUND_CANONICALIZED>
1

> <PUBCHEM_CACTVS_COMPLEXITY>
723

> <PUBCHEM_CACTVS_HBOND_ACCEPTOR>
11

> <PUBCHEM_CACTVS_HBOND_DONOR>
0

> <PUBCHEM_CACTVS_ROTATABLE_BOND>
6

> <PUBCHEM_CACTVS_SUBSKEYS>
AAADceB7oYBgAAAAAAAAAAAAAAAAAWLFgAAwAAAABYAAAFgB/gAAHwQIAAAADAzF3xSz17cMFEiuA6dydASS+KtvaLgd2DW/TNiOLrLk/buPOSjkzBP46YeY2bKOoAABQAASEABAAAKAACQgAAAAAAAAAA==

> <PUBCHEM_IUPAC_OPENEYE_NAME>
8-[3-[[5-(2,4-dimethylthiazol-5-yl)-4-methyl-1,2,4-triazol-3-yl]sulfanyl]propyl]-2-(trifluoromethyl)-6,7,9,10-tetrahydrooxazolo[5,4-i][3]benzazepine

> <PUBCHEM_IUPAC_CAS_NAME>
8-[3-[[5-(2,4-dimethyl-5-thiazolyl)-4-methyl-1,2,4-triazol-3-yl]thio]propyl]-2-(trifluoromethyl)-6,7,9,10-tetrahydrooxazolo[5,4-i][3]benzazepine

> <PUBCHEM_IUPAC_NAME_MARKUP>
8-[3-[[5-(2,4-dimethyl-1,3-thiazol-5-yl)-4-methyl-1,2,4-triazol-3-yl]sulfanyl]propyl]-2-(trifluoromethyl)-6,7,9,10-tetrahydro-[1,3]oxazolo[5,4-i][3]benzazepine

> <PUBCHEM_IUPAC_NAME>
8-[3-[[5-(2,4-dimethyl-1,3-thiazol-5-yl)-4-methyl-1,2,4-triazol-3-yl]sulfanyl]propyl]-2-(trifluoromethyl)-6,7,9,10-tetrahydro-[1,3]oxazolo[5,4-i][3]benzazepine

> <PUBCHEM_IUPAC_SYSTEMATIC_NAME>
8-[3-[[5-(2,4-dimethyl-1,3-thiazol-5-yl)-4-methyl-1,2,4-triazol-3-yl]sulfanyl]propyl]-2-(trifluoromethyl)-6,7,9,10-tetrahydro-[1,3]oxazolo[5,4-i][3]benzazepine

> <PUBCHEM_IUPAC_TRADITIONAL_NAME>
8-[3-[[5-(2,4-dimethylthiazol-5-yl)-4-methyl-1,2,4-triazol-3-yl]thio]propyl]-2-(trifluoromethyl)-6,7,9,10-tetrahydrooxazolo[5,4-i][3]benzazepine

> <PUBCHEM_IUPAC_INCHI>
InChI=1S/C23H25F3N6OS2/c1-13-19(35-14(2)27-13)20-29-30-22(31(20)3)34-12-4-9-32-10-7-15-5-6-17-18(16(15)8-11-32)28-21(33-17)23(24,25)26/h5-6H,4,7-12H2,1-3H3

> <PUBCHEM_IUPAC_INCHIKEY>
AGHXSXMZVMLSGU-UHFFFAOYSA-N

> <PUBCHEM_XLOGP3_AA>
4.9

> <PUBCHEM_EXACT_MASS>
522.14833628

> <PUBCHEM_MOLECULAR_FORMULA>
C23H25F3N6OS2

> <PUBCHEM_MOLECULAR_WEIGHT>
522.6

> <PUBCHEM_OPENEYE_CAN_SMILES>
CC1=C(SC(=N1)C)C2=NN=C(N2C)SCCCN3CCC4=C(CC3)C5=C(C=C4)OC(=N5)C(F)(F)F

> <PUBCHEM_OPENEYE_ISO_SMILES>
CC1=C(SC(=N1)C)C2=NN=C(N2C)SCCCN3CCC4=C(CC3)C5=C(C=C4)OC(=N5)C(F)(F)F

> <PUBCHEM_CACTVS_TPSA>
126

> <PUBCHEM_MONOISOTOPIC_WEIGHT>
522.14833628

> <PUBCHEM_TOTAL_CHARGE>
0

> <PUBCHEM_HEAVY_ATOM_COUNT>
35

> <PUBCHEM_ATOM_DEF_STEREO_COUNT>
0

> <PUBCHEM_ATOM_UDEF_STEREO_COUNT>
0

> <PUBCHEM_BOND_DEF_STEREO_COUNT>
0

> <PUBCHEM_BOND_UDEF_STEREO_COUNT>
0

> <PUBCHEM_ISOTOPIC_ATOM_COUNT>
0

> <PUBCHEM_COMPONENT_COUNT>
1

> <PUBCHEM_CACTVS_TAUTO_COUNT>
-1

> <PUBCHEM_COORDINATE_TYPE>
1
5
255

> <PUBCHEM_BONDANNOTATIONS>
10  11  8
10  28  8
11  29  8
12  32  8
12  33  8
17  18  8
17  20  8
18  22  8
2  30  8
2  33  8
20  23  8
22  24  8
23  24  8
30  32  8
6  23  8
6  26  8
8  20  8
8  26  8
9  28  8
9  29  8

$$$$
