155569021
  -OEChem-09292322412D

 64 67  0     0  0  0  0  0  0999 V2000
    8.2812   14.6728    0.0000 Cl  0  0  0  0  0  0  0  0  0  0  0  0
   10.2742   14.5059    0.0000 Cl  0  0  0  0  0  0  0  0  0  0  0  0
    0.0000    7.0851    0.0000 Cl  0  0  0  0  0  0  0  0  0  0  0  0
    4.3155    4.4416    0.0000 O   0  0  0  0  0  0  0  0  0  0  0  0
    6.8510    9.5782    0.0000 N   0  0  0  0  0  0  0  0  0  0  0  0
    7.9921   11.2208    0.0000 N   0  0  0  0  0  0  0  0  0  0  0  0
    5.8469    3.5789    0.0000 N   0  0  0  0  0  0  0  0  0  0  0  0
    7.8476    9.4948    0.0000 C   0  0  0  0  0  0  0  0  0  0  0  0
    6.4251   10.4830    0.0000 C   0  0  0  0  0  0  0  0  0  0  0  0
    6.2805    8.7570    0.0000 C   0  0  0  0  0  0  0  0  0  0  0  0
    8.4181   10.3161    0.0000 C   0  0  0  0  0  0  0  0  0  0  0  0
    6.9956   11.3043    0.0000 C   0  0  0  0  0  0  0  0  0  0  0  0
    6.7065    7.8522    0.0000 C   0  0  0  0  0  0  0  0  0  0  0  0
    6.1360    7.0310    0.0000 C   0  0  0  0  0  0  0  0  0  0  0  0
    6.5620    6.1262    0.0000 C   0  0  0  0  0  0  0  0  0  0  0  0
    5.9914    5.3050    0.0000 C   0  0  0  0  0  0  0  0  0  0  0  0
    6.4174    4.4002    0.0000 C   0  0  0  0  0  0  0  0  0  0  0  0
    8.5626   12.0421    0.0000 C   0  0  0  0  0  0  0  0  0  0  0  0
    6.2120    2.6546    0.0000 C   0  0  0  0  0  0  0  0  0  0  0  0
    5.3460    2.1546    0.0000 C   0  0  0  0  0  0  0  0  0  0  0  0
    4.4520    2.6893    0.0000 C   0  0  0  0  0  0  0  0  0  0  0  0
    4.8533    3.5985    0.0000 C   0  0  0  0  0  0  0  0  0  0  0  0
    5.3460    1.1546    0.0000 C   0  0  0  0  0  0  0  0  0  0  0  0
    8.1366   12.9468    0.0000 C   0  0  0  0  0  0  0  0  0  0  0  0
    9.5591   11.9586    0.0000 C   0  0  0  0  0  0  0  0  0  0  0  0
    7.0780    2.1546    0.0000 C   0  0  0  0  0  0  0  0  0  0  0  0
    3.5460    2.1754    0.0000 C   0  0  0  0  0  0  0  0  0  0  0  0
    6.2120    0.6546    0.0000 C   0  0  0  0  0  0  0  0  0  0  0  0
    4.4520    0.6200    0.0000 C   0  0  0  0  0  0  0  0  0  0  0  0
    7.0780    1.1546    0.0000 C   0  0  0  0  0  0  0  0  0  0  0  0
    3.5460    1.1338    0.0000 C   0  0  0  0  0  0  0  0  0  0  0  0
    8.7072   13.7681    0.0000 C   0  0  0  0  0  0  0  0  0  0  0  0
   10.1297   12.7799    0.0000 C   0  0  0  0  0  0  0  0  0  0  0  0
    9.7037   13.6846    0.0000 C   0  0  0  0  0  0  0  0  0  0  0  0
    7.6893    8.8953    0.0000 H   0  0  0  0  0  0  0  0  0  0  0  0
    8.4104    9.2349    0.0000 H   0  0  0  0  0  0  0  0  0  0  0  0
    5.9850   10.9197    0.0000 H   0  0  0  0  0  0  0  0  0  0  0  0
    5.9185   10.1255    0.0000 H   0  0  0  0  0  0  0  0  0  0  0  0
    5.8405    9.1937    0.0000 H   0  0  0  0  0  0  0  0  0  0  0  0
    5.7740    8.3995    0.0000 H   0  0  0  0  0  0  0  0  0  0  0  0
    8.8581    9.8793    0.0000 H   0  0  0  0  0  0  0  0  0  0  0  0
    8.9246   10.6736    0.0000 H   0  0  0  0  0  0  0  0  0  0  0  0
    7.1538   11.9037    0.0000 H   0  0  0  0  0  0  0  0  0  0  0  0
    6.4327   11.5642    0.0000 H   0  0  0  0  0  0  0  0  0  0  0  0
    7.1465    7.4155    0.0000 H   0  0  0  0  0  0  0  0  0  0  0  0
    7.2130    8.2097    0.0000 H   0  0  0  0  0  0  0  0  0  0  0  0
    5.6960    7.4677    0.0000 H   0  0  0  0  0  0  0  0  0  0  0  0
    5.6294    6.6734    0.0000 H   0  0  0  0  0  0  0  0  0  0  0  0
    7.0020    5.6895    0.0000 H   0  0  0  0  0  0  0  0  0  0  0  0
    7.0685    6.4837    0.0000 H   0  0  0  0  0  0  0  0  0  0  0  0
    5.5514    5.7417    0.0000 H   0  0  0  0  0  0  0  0  0  0  0  0
    5.4849    4.9474    0.0000 H   0  0  0  0  0  0  0  0  0  0  0  0
    6.8575    3.9634    0.0000 H   0  0  0  0  0  0  0  0  0  0  0  0
    6.9240    4.7577    0.0000 H   0  0  0  0  0  0  0  0  0  0  0  0
    7.5188   12.9986    0.0000 H   0  0  0  0  0  0  0  0  0  0  0  0
    9.8232   11.3977    0.0000 H   0  0  0  0  0  0  0  0  0  0  0  0
    7.6150    2.4646    0.0000 H   0  0  0  0  0  0  0  0  0  0  0  0
    3.0102    2.4875    0.0000 H   0  0  0  0  0  0  0  0  0  0  0  0
    6.2120    0.0346    0.0000 H   0  0  0  0  0  0  0  0  0  0  0  0
    4.4592    0.0000    0.0000 H   0  0  0  0  0  0  0  0  0  0  0  0
    7.6150    0.8446    0.0000 H   0  0  0  0  0  0  0  0  0  0  0  0
    3.0102    0.8217    0.0000 H   0  0  0  0  0  0  0  0  0  0  0  0
   10.7475   12.7282    0.0000 H   0  0  0  0  0  0  0  0  0  0  0  0
    1.0000    7.0851    0.0000 H   0  0  0  0  0  0  0  0  0  0  0  0
  1 32  1  0  0  0  0
  2 34  1  0  0  0  0
  3 64  1  0  0  0  0
  4 22  2  0  0  0  0
  5  8  1  0  0  0  0
  5  9  1  0  0  0  0
  5 10  1  0  0  0  0
  6 11  1  0  0  0  0
  6 12  1  0  0  0  0
  6 18  1  0  0  0  0
  7 17  1  0  0  0  0
  7 19  1  0  0  0  0
  7 22  1  0  0  0  0
  8 11  1  0  0  0  0
  8 35  1  0  0  0  0
  8 36  1  0  0  0  0
  9 12  1  0  0  0  0
  9 37  1  0  0  0  0
  9 38  1  0  0  0  0
 10 13  1  0  0  0  0
 10 39  1  0  0  0  0
 10 40  1  0  0  0  0
 11 41  1  0  0  0  0
 11 42  1  0  0  0  0
 12 43  1  0  0  0  0
 12 44  1  0  0  0  0
 13 14  1  0  0  0  0
 13 45  1  0  0  0  0
 13 46  1  0  0  0  0
 14 15  1  0  0  0  0
 14 47  1  0  0  0  0
 14 48  1  0  0  0  0
 15 16  1  0  0  0  0
 15 49  1  0  0  0  0
 15 50  1  0  0  0  0
 16 17  1  0  0  0  0
 16 51  1  0  0  0  0
 16 52  1  0  0  0  0
 17 53  1  0  0  0  0
 17 54  1  0  0  0  0
 18 24  2  0  0  0  0
 18 25  1  0  0  0  0
 19 20  1  0  0  0  0
 19 26  2  0  0  0  0
 20 21  1  0  0  0  0
 20 23  2  0  0  0  0
 21 22  1  0  0  0  0
 21 27  2  0  0  0  0
 23 28  1  0  0  0  0
 23 29  1  0  0  0  0
 24 32  1  0  0  0  0
 24 55  1  0  0  0  0
 25 33  2  0  0  0  0
 25 56  1  0  0  0  0
 26 30  1  0  0  0  0
 26 57  1  0  0  0  0
 27 31  1  0  0  0  0
 27 58  1  0  0  0  0
 28 30  2  0  0  0  0
 28 59  1  0  0  0  0
 29 31  2  0  0  0  0
 29 60  1  0  0  0  0
 30 61  1  0  0  0  0
 31 62  1  0  0  0  0
 32 34  2  0  0  0  0
 33 34  1  0  0  0  0
 33 63  1  0  0  0  0
M  END
> <PUBCHEM_COMPOUND_CID>
155569021

> <PUBCHEM_COMPOUND_CANONICALIZED>
1

> <PUBCHEM_CACTVS_COMPLEXITY>
655

> <PUBCHEM_CACTVS_HBOND_ACCEPTOR>
3

> <PUBCHEM_CACTVS_HBOND_DONOR>
1

> <PUBCHEM_CACTVS_ROTATABLE_BOND>
8

> <PUBCHEM_CACTVS_SUBSKEYS>
AAADceB7IAAGAAAAAAAAAAAAAAAAAWAAAAA8YMEAAAAAAFjBVAAAHgIAAAAADArBmCQwwMMAAACIAiVSUACCAAAlBwAIikEIZsgIYDLBl5GUIQhghgDIyYcciMCOgABCQAISAAQAAISABCQACAAAAAAAAA==

> <PUBCHEM_IUPAC_OPENEYE_NAME>
1-[6-[4-(3,4-dichlorophenyl)piperazin-1-yl]hexyl]benzo[cd]indol-2-one;hydrochloride

> <PUBCHEM_IUPAC_CAS_NAME>
1-[6-[4-(3,4-dichlorophenyl)-1-piperazinyl]hexyl]-2-benzo[cd]indolone;hydrochloride

> <PUBCHEM_IUPAC_NAME_MARKUP>
1-[6-[4-(3,4-dichlorophenyl)piperazin-1-yl]hexyl]benzo[cd]indol-2-one;hydrochloride

> <PUBCHEM_IUPAC_NAME>
1-[6-[4-(3,4-dichlorophenyl)piperazin-1-yl]hexyl]benzo[cd]indol-2-one;hydrochloride

> <PUBCHEM_IUPAC_SYSTEMATIC_NAME>
1-[6-[4-(3,4-dichlorophenyl)piperazin-1-yl]hexyl]benzo[cd]indol-2-one;hydrochloride

> <PUBCHEM_IUPAC_TRADITIONAL_NAME>
1-[6-[4-(3,4-dichlorophenyl)piperazino]hexyl]benzo[cd]indol-2-one;hydrochloride

> <PUBCHEM_IUPAC_INCHI>
InChI=1S/C27H29Cl2N3O.ClH/c28-23-12-11-21(19-24(23)29)31-17-15-30(16-18-31)13-3-1-2-4-14-32-25-10-6-8-20-7-5-9-22(26(20)25)27(32)33;/h5-12,19H,1-4,13-18H2;1H

> <PUBCHEM_IUPAC_INCHIKEY>
CXUMJYPCGWKDIL-UHFFFAOYSA-N

> <PUBCHEM_EXACT_MASS>
517.145446

> <PUBCHEM_MOLECULAR_FORMULA>
C27H30Cl3N3O

> <PUBCHEM_MOLECULAR_WEIGHT>
518.9

> <PUBCHEM_OPENEYE_CAN_SMILES>
C1CN(CCN1CCCCCCN2C3=CC=CC4=C3C(=CC=C4)C2=O)C5=CC(=C(C=C5)Cl)Cl.Cl

> <PUBCHEM_OPENEYE_ISO_SMILES>
C1CN(CCN1CCCCCCN2C3=CC=CC4=C3C(=CC=C4)C2=O)C5=CC(=C(C=C5)Cl)Cl.Cl

> <PUBCHEM_CACTVS_TPSA>
26.8

> <PUBCHEM_MONOISOTOPIC_WEIGHT>
517.145446

> <PUBCHEM_TOTAL_CHARGE>
0

> <PUBCHEM_HEAVY_ATOM_COUNT>
34

> <PUBCHEM_ATOM_DEF_STEREO_COUNT>
0

> <PUBCHEM_ATOM_UDEF_STEREO_COUNT>
0

> <PUBCHEM_BOND_DEF_STEREO_COUNT>
0

> <PUBCHEM_BOND_UDEF_STEREO_COUNT>
0

> <PUBCHEM_ISOTOPIC_ATOM_COUNT>
0

> <PUBCHEM_COMPONENT_COUNT>
2

> <PUBCHEM_CACTVS_TAUTO_COUNT>
-1

> <PUBCHEM_COORDINATE_TYPE>
1
5
255

> <PUBCHEM_BONDANNOTATIONS>
18  24  8
18  25  8
19  20  8
19  26  8
20  21  8
20  23  8
21  27  8
23  28  8
23  29  8
24  32  8
25  33  8
26  30  8
27  31  8
28  30  8
29  31  8
32  34  8
33  34  8

$$$$
