44439400
  -OEChem-09292322492D

 62 65  0     1  0  0  0  0  0999 V2000
   11.6145    0.5280    0.0000 O   0  0  0  0  0  0  0  0  0  0  0  0
    2.0000    1.0343    0.0000 O   0  0  0  0  0  0  0  0  0  0  0  0
    2.0000   -0.9657    0.0000 O   0  0  0  0  0  0  0  0  0  0  0  0
    6.3981   -0.4865    0.0000 N   0  0  0  0  0  0  0  0  0  0  0  0
    8.1301   -0.4932    0.0000 N   0  0  0  0  0  0  0  0  0  0  0  0
   11.6222   -0.4720    0.0000 C   0  0  3  0  0  0  0  0  0  0  0  0
   12.5263   -0.9893    0.0000 C   0  0  0  0  0  0  0  0  0  0  0  0
   12.5223   -2.0309    0.0000 C   0  0  0  0  0  0  0  0  0  0  0  0
   10.7263   -1.0032    0.0000 C   0  0  0  0  0  0  0  0  0  0  0  0
   11.6143   -2.5413    0.0000 C   0  0  0  0  0  0  0  0  0  0  0  0
   10.7224   -2.0032    0.0000 C   0  0  0  0  0  0  0  0  0  0  0  0
    9.8622   -0.4999    0.0000 C   0  0  0  0  0  0  0  0  0  0  0  0
    6.3981    0.5551    0.0000 C   0  0  0  0  0  0  0  0  0  0  0  0
    9.8544   -2.4998    0.0000 C   0  0  0  0  0  0  0  0  0  0  0  0
    5.4920    1.0690    0.0000 C   0  0  0  0  0  0  0  0  0  0  0  0
    5.4920   -1.0004    0.0000 C   0  0  0  0  0  0  0  0  0  0  0  0
    4.5981    0.5343    0.0000 C   0  0  0  0  0  0  0  0  0  0  0  0
    4.5981   -0.4657    0.0000 C   0  0  0  0  0  0  0  0  0  0  0  0
    8.9942   -0.9965    0.0000 C   0  0  0  0  0  0  0  0  0  0  0  0
    8.9904   -1.9965    0.0000 C   0  0  0  0  0  0  0  0  0  0  0  0
   12.4767    1.0346    0.0000 C   0  0  0  0  0  0  0  0  0  0  0  0
    7.2622   -0.9898    0.0000 C   0  0  0  0  0  0  0  0  0  0  0  0
    3.7320    1.0343    0.0000 C   0  0  0  0  0  0  0  0  0  0  0  0
    3.7320   -0.9657    0.0000 C   0  0  0  0  0  0  0  0  0  0  0  0
   12.4690    2.0346    0.0000 C   0  0  0  0  0  0  0  0  0  0  0  0
    2.8660    0.5343    0.0000 C   0  0  0  0  0  0  0  0  0  0  0  0
    2.8660   -0.4657    0.0000 C   0  0  0  0  0  0  0  0  0  0  0  0
   13.3311    2.5413    0.0000 C   0  0  0  0  0  0  0  0  0  0  0  0
    2.0000    2.0343    0.0000 C   0  0  0  0  0  0  0  0  0  0  0  0
    2.0000   -1.9657    0.0000 C   0  0  0  0  0  0  0  0  0  0  0  0
   11.0824   -0.1672    0.0000 H   0  0  0  0  0  0  0  0  0  0  0  0
   13.1368   -1.0978    0.0000 H   0  0  0  0  0  0  0  0  0  0  0  0
   12.7376   -0.4064    0.0000 H   0  0  0  0  0  0  0  0  0  0  0  0
   12.7291   -2.6154    0.0000 H   0  0  0  0  0  0  0  0  0  0  0  0
   13.1336   -1.9272    0.0000 H   0  0  0  0  0  0  0  0  0  0  0  0
   11.2079   -3.0095    0.0000 H   0  0  0  0  0  0  0  0  0  0  0  0
   12.0060   -3.0218    0.0000 H   0  0  0  0  0  0  0  0  0  0  0  0
    9.8646    0.1201    0.0000 H   0  0  0  0  0  0  0  0  0  0  0  0
    7.0089    0.4490    0.0000 H   0  0  0  0  0  0  0  0  0  0  0  0
    6.6071    1.1388    0.0000 H   0  0  0  0  0  0  0  0  0  0  0  0
    5.8856    1.5480    0.0000 H   0  0  0  0  0  0  0  0  0  0  0  0
    5.0874    1.5388    0.0000 H   0  0  0  0  0  0  0  0  0  0  0  0
    9.8521   -3.1198    0.0000 H   0  0  0  0  0  0  0  0  0  0  0  0
    5.0874   -1.4701    0.0000 H   0  0  0  0  0  0  0  0  0  0  0  0
    5.8856   -1.4794    0.0000 H   0  0  0  0  0  0  0  0  0  0  0  0
    8.4522   -2.3044    0.0000 H   0  0  0  0  0  0  0  0  0  0  0  0
   12.6932    0.4537    0.0000 H   0  0  0  0  0  0  0  0  0  0  0  0
   13.0864    1.1470    0.0000 H   0  0  0  0  0  0  0  0  0  0  0  0
    7.2598   -1.6098    0.0000 H   0  0  0  0  0  0  0  0  0  0  0  0
    3.7320    1.6543    0.0000 H   0  0  0  0  0  0  0  0  0  0  0  0
    3.7320   -1.5857    0.0000 H   0  0  0  0  0  0  0  0  0  0  0  0
   12.2524    2.6156    0.0000 H   0  0  0  0  0  0  0  0  0  0  0  0
   11.8592    1.9223    0.0000 H   0  0  0  0  0  0  0  0  0  0  0  0
   13.6453    2.0068    0.0000 H   0  0  0  0  0  0  0  0  0  0  0  0
   13.8657    2.8554    0.0000 H   0  0  0  0  0  0  0  0  0  0  0  0
   13.0170    3.0758    0.0000 H   0  0  0  0  0  0  0  0  0  0  0  0
    2.6200    2.0343    0.0000 H   0  0  0  0  0  0  0  0  0  0  0  0
    2.0000    2.6543    0.0000 H   0  0  0  0  0  0  0  0  0  0  0  0
    1.3800    2.0343    0.0000 H   0  0  0  0  0  0  0  0  0  0  0  0
    1.3800   -1.9657    0.0000 H   0  0  0  0  0  0  0  0  0  0  0  0
    2.0000   -2.5857    0.0000 H   0  0  0  0  0  0  0  0  0  0  0  0
    2.6200   -1.9657    0.0000 H   0  0  0  0  0  0  0  0  0  0  0  0
  1  6  1  0  0  0  0
  1 21  1  0  0  0  0
  2 26  1  0  0  0  0
  2 29  1  0  0  0  0
  3 27  1  0  0  0  0
  3 30  1  0  0  0  0
  4 13  1  0  0  0  0
  4 16  1  0  0  0  0
  4 22  1  0  0  0  0
  5 19  1  0  0  0  0
  5 22  2  0  0  0  0
  6  7  1  0  0  0  0
  6  9  1  0  0  0  0
  6 31  1  0  0  0  0
  7  8  1  0  0  0  0
  7 32  1  0  0  0  0
  7 33  1  0  0  0  0
  8 10  1  0  0  0  0
  8 34  1  0  0  0  0
  8 35  1  0  0  0  0
  9 11  2  0  0  0  0
  9 12  1  0  0  0  0
 10 11  1  0  0  0  0
 10 36  1  0  0  0  0
 10 37  1  0  0  0  0
 11 14  1  0  0  0  0
 12 19  2  0  0  0  0
 12 38  1  0  0  0  0
 13 15  1  0  0  0  0
 13 39  1  0  0  0  0
 13 40  1  0  0  0  0
 14 20  2  0  0  0  0
 14 43  1  0  0  0  0
 15 17  1  0  0  0  0
 15 41  1  0  0  0  0
 15 42  1  0  0  0  0
 16 18  1  0  0  0  0
 16 44  1  0  0  0  0
 16 45  1  0  0  0  0
 17 18  1  0  0  0  0
 17 23  2  0  0  0  0
 18 24  2  0  0  0  0
 19 20  1  0  0  0  0
 20 46  1  0  0  0  0
 21 25  1  0  0  0  0
 21 47  1  0  0  0  0
 21 48  1  0  0  0  0
 22 49  1  0  0  0  0
 23 26  1  0  0  0  0
 23 50  1  0  0  0  0
 24 27  1  0  0  0  0
 24 51  1  0  0  0  0
 25 28  1  0  0  0  0
 25 52  1  0  0  0  0
 25 53  1  0  0  0  0
 26 27  2  0  0  0  0
 28 54  1  0  0  0  0
 28 55  1  0  0  0  0
 28 56  1  0  0  0  0
 29 57  1  0  0  0  0
 29 58  1  0  0  0  0
 29 59  1  0  0  0  0
 30 60  1  0  0  0  0
 30 61  1  0  0  0  0
 30 62  1  0  0  0  0
M  END
> <PUBCHEM_COMPOUND_CID>
44439400

> <PUBCHEM_COMPOUND_CANONICALIZED>
1

> <PUBCHEM_CACTVS_COMPLEXITY>
557

> <PUBCHEM_CACTVS_HBOND_ACCEPTOR>
4

> <PUBCHEM_CACTVS_HBOND_DONOR>
0

> <PUBCHEM_CACTVS_ROTATABLE_BOND>
7

> <PUBCHEM_CACTVS_SUBSKEYS>
AAADcfB7MAAAAAAAAAAAAAAAAAAAAAAAAAA8YMEAAAAAAADxQAAAHgAAAAAADBzhmAYzxoMABACgAiRDZACCCAEgIgAJiAAO7IgNJiKEuZuGMCpkwBGK6Aew0LIOqAABQAAQQABQAAKAADCAAAAAAAAAAA==

> <PUBCHEM_IUPAC_OPENEYE_NAME>
1-(6,7-dimethoxy-3,4-dihydro-1H-isoquinolin-2-yl)-N-(4-propoxytetralin-6-yl)methanimine

> <PUBCHEM_IUPAC_CAS_NAME>
1-(6,7-dimethoxy-3,4-dihydro-1H-isoquinolin-2-yl)-N-(8-propoxy-5,6,7,8-tetrahydronaphthalen-2-yl)methanimine

> <PUBCHEM_IUPAC_NAME_MARKUP>
1-(6,7-dimethoxy-3,4-dihydro-1<I>H</I>-isoquinolin-2-yl)-<I>N</I>-(8-propoxy-5,6,7,8-tetrahydronaphthalen-2-yl)methanimine

> <PUBCHEM_IUPAC_NAME>
1-(6,7-dimethoxy-3,4-dihydro-1H-isoquinolin-2-yl)-N-(8-propoxy-5,6,7,8-tetrahydronaphthalen-2-yl)methanimine

> <PUBCHEM_IUPAC_SYSTEMATIC_NAME>
1-(6,7-dimethoxy-3,4-dihydro-1H-isoquinolin-2-yl)-N-(8-propoxy-5,6,7,8-tetrahydronaphthalen-2-yl)methanimine

> <PUBCHEM_IUPAC_TRADITIONAL_NAME>
(6,7-dimethoxy-3,4-dihydro-1H-isoquinolin-2-yl)methylene-(4-propoxytetralin-6-yl)amine

> <PUBCHEM_IUPAC_INCHI>
InChI=1S/C25H32N2O3/c1-4-12-30-23-7-5-6-18-8-9-21(15-22(18)23)26-17-27-11-10-19-13-24(28-2)25(29-3)14-20(19)16-27/h8-9,13-15,17,23H,4-7,10-12,16H2,1-3H3

> <PUBCHEM_IUPAC_INCHIKEY>
NEMWODFZWVJHSL-UHFFFAOYSA-N

> <PUBCHEM_XLOGP3_AA>
4.4

> <PUBCHEM_EXACT_MASS>
408.24129289

> <PUBCHEM_MOLECULAR_FORMULA>
C25H32N2O3

> <PUBCHEM_MOLECULAR_WEIGHT>
408.5

> <PUBCHEM_OPENEYE_CAN_SMILES>
CCCOC1CCCC2=C1C=C(C=C2)N=CN3CCC4=CC(=C(C=C4C3)OC)OC

> <PUBCHEM_OPENEYE_ISO_SMILES>
CCCOC1CCCC2=C1C=C(C=C2)N=CN3CCC4=CC(=C(C=C4C3)OC)OC

> <PUBCHEM_CACTVS_TPSA>
43.3

> <PUBCHEM_MONOISOTOPIC_WEIGHT>
408.24129289

> <PUBCHEM_TOTAL_CHARGE>
0

> <PUBCHEM_HEAVY_ATOM_COUNT>
30

> <PUBCHEM_ATOM_DEF_STEREO_COUNT>
0

> <PUBCHEM_ATOM_UDEF_STEREO_COUNT>
1

> <PUBCHEM_BOND_DEF_STEREO_COUNT>
0

> <PUBCHEM_BOND_UDEF_STEREO_COUNT>
0

> <PUBCHEM_ISOTOPIC_ATOM_COUNT>
0

> <PUBCHEM_COMPONENT_COUNT>
1

> <PUBCHEM_CACTVS_TAUTO_COUNT>
-1

> <PUBCHEM_COORDINATE_TYPE>
1
5
255

> <PUBCHEM_BONDANNOTATIONS>
6  1  3
11  14  8
12  19  8
14  20  8
17  18  8
17  23  8
18  24  8
19  20  8
23  26  8
24  27  8
26  27  8
9  11  8
9  12  8

$$$$
