122183768
  -OEChem-09292322362D

 58 61  0     1  0  0  0  0  0999 V2000
   15.9224   -0.4827    0.0000 Cl  0  0  0  0  0  0  0  0  0  0  0  0
   17.6545    0.5173    0.0000 Cl  0  0  0  0  0  0  0  0  0  0  0  0
    2.0000   -0.4585    0.0000 F   0  0  0  0  0  0  0  0  0  0  0  0
   10.7263    0.5173    0.0000 O   0  0  0  0  0  0  0  0  0  0  0  0
    7.2622    0.5173    0.0000 O   0  0  0  0  0  0  0  0  0  0  0  0
   12.4583   -0.4827    0.0000 N   0  0  0  0  0  0  0  0  0  0  0  0
   14.1904    0.5173    0.0000 N   0  0  0  0  0  0  0  0  0  0  0  0
    8.1282   -0.9827    0.0000 N   0  0  0  0  0  0  0  0  0  0  0  0
    5.5301   -2.4827    0.0000 N   0  0  0  0  0  0  0  0  0  0  0  0
   12.4583    0.5173    0.0000 C   0  0  0  0  0  0  0  0  0  0  0  0
   13.3244   -0.9827    0.0000 C   0  0  0  0  0  0  0  0  0  0  0  0
   13.3244    1.0173    0.0000 C   0  0  0  0  0  0  0  0  0  0  0  0
   14.1904   -0.4827    0.0000 C   0  0  0  0  0  0  0  0  0  0  0  0
   11.5923   -0.9827    0.0000 C   0  0  0  0  0  0  0  0  0  0  0  0
   10.7263   -0.4827    0.0000 C   0  0  3  0  0  0  0  0  0  0  0  0
    9.8602   -0.9827    0.0000 C   0  0  0  0  0  0  0  0  0  0  0  0
   15.0564    1.0173    0.0000 C   0  0  0  0  0  0  0  0  0  0  0  0
    8.9942   -0.4827    0.0000 C   0  0  0  0  0  0  0  0  0  0  0  0
   15.9224    0.5173    0.0000 C   0  0  0  0  0  0  0  0  0  0  0  0
   15.0564    2.0173    0.0000 C   0  0  0  0  0  0  0  0  0  0  0  0
   16.7885    1.0173    0.0000 C   0  0  0  0  0  0  0  0  0  0  0  0
   15.9224    2.5173    0.0000 C   0  0  0  0  0  0  0  0  0  0  0  0
   16.7885    2.0173    0.0000 C   0  0  0  0  0  0  0  0  0  0  0  0
    7.2622   -0.4827    0.0000 C   0  0  0  0  0  0  0  0  0  0  0  0
    6.3961   -0.9827    0.0000 C   0  0  0  0  0  0  0  0  0  0  0  0
    5.5301   -0.4827    0.0000 C   0  0  0  0  0  0  0  0  0  0  0  0
    4.6641   -0.9827    0.0000 C   0  0  0  0  0  0  0  0  0  0  0  0
    6.3961   -1.9827    0.0000 C   0  0  0  0  0  0  0  0  0  0  0  0
    4.6641   -1.9827    0.0000 C   0  0  0  0  0  0  0  0  0  0  0  0
    3.7702   -0.4480    0.0000 C   0  0  0  0  0  0  0  0  0  0  0  0
    3.7702   -2.5173    0.0000 C   0  0  0  0  0  0  0  0  0  0  0  0
    2.8641   -0.9619    0.0000 C   0  0  0  0  0  0  0  0  0  0  0  0
    2.8641   -2.0035    0.0000 C   0  0  0  0  0  0  0  0  0  0  0  0
   12.2463    1.0999    0.0000 H   0  0  0  0  0  0  0  0  0  0  0  0
   11.8477    0.4097    0.0000 H   0  0  0  0  0  0  0  0  0  0  0  0
   12.9258   -1.4576    0.0000 H   0  0  0  0  0  0  0  0  0  0  0  0
   13.7229   -1.4576    0.0000 H   0  0  0  0  0  0  0  0  0  0  0  0
   13.7229    1.4923    0.0000 H   0  0  0  0  0  0  0  0  0  0  0  0
   12.9258    1.4923    0.0000 H   0  0  0  0  0  0  0  0  0  0  0  0
   14.4024   -1.0653    0.0000 H   0  0  0  0  0  0  0  0  0  0  0  0
   14.8010   -0.3750    0.0000 H   0  0  0  0  0  0  0  0  0  0  0  0
   11.1938   -1.4576    0.0000 H   0  0  0  0  0  0  0  0  0  0  0  0
   11.9908   -1.4576    0.0000 H   0  0  0  0  0  0  0  0  0  0  0  0
   10.1893   -0.1727    0.0000 H   0  0  0  0  0  0  0  0  0  0  0  0
    9.4617   -1.4576    0.0000 H   0  0  0  0  0  0  0  0  0  0  0  0
   10.2588   -1.4576    0.0000 H   0  0  0  0  0  0  0  0  0  0  0  0
    9.3928   -0.0077    0.0000 H   0  0  0  0  0  0  0  0  0  0  0  0
    8.5957   -0.0077    0.0000 H   0  0  0  0  0  0  0  0  0  0  0  0
   10.1893    0.8273    0.0000 H   0  0  0  0  0  0  0  0  0  0  0  0
   14.5195    2.3273    0.0000 H   0  0  0  0  0  0  0  0  0  0  0  0
    8.1282   -1.6027    0.0000 H   0  0  0  0  0  0  0  0  0  0  0  0
   15.9224    3.1373    0.0000 H   0  0  0  0  0  0  0  0  0  0  0  0
   17.3254    2.3273    0.0000 H   0  0  0  0  0  0  0  0  0  0  0  0
    5.5301    0.1373    0.0000 H   0  0  0  0  0  0  0  0  0  0  0  0
    6.9331   -2.2927    0.0000 H   0  0  0  0  0  0  0  0  0  0  0  0
    3.7773    0.1720    0.0000 H   0  0  0  0  0  0  0  0  0  0  0  0
    3.7773   -3.1373    0.0000 H   0  0  0  0  0  0  0  0  0  0  0  0
    2.3284   -2.3156    0.0000 H   0  0  0  0  0  0  0  0  0  0  0  0
  1 19  1  0  0  0  0
  2 21  1  0  0  0  0
  3 32  1  0  0  0  0
  4 15  1  0  0  0  0
  4 49  1  0  0  0  0
  5 24  2  0  0  0  0
  6 10  1  0  0  0  0
  6 11  1  0  0  0  0
  6 14  1  0  0  0  0
  7 12  1  0  0  0  0
  7 13  1  0  0  0  0
  7 17  1  0  0  0  0
  8 18  1  0  0  0  0
  8 24  1  0  0  0  0
  8 51  1  0  0  0  0
  9 28  1  0  0  0  0
  9 29  2  0  0  0  0
 10 12  1  0  0  0  0
 10 34  1  0  0  0  0
 10 35  1  0  0  0  0
 11 13  1  0  0  0  0
 11 36  1  0  0  0  0
 11 37  1  0  0  0  0
 12 38  1  0  0  0  0
 12 39  1  0  0  0  0
 13 40  1  0  0  0  0
 13 41  1  0  0  0  0
 14 15  1  0  0  0  0
 14 42  1  0  0  0  0
 14 43  1  0  0  0  0
 15 16  1  0  0  0  0
 15 44  1  0  0  0  0
 16 18  1  0  0  0  0
 16 45  1  0  0  0  0
 16 46  1  0  0  0  0
 17 19  2  0  0  0  0
 17 20  1  0  0  0  0
 18 47  1  0  0  0  0
 18 48  1  0  0  0  0
 19 21  1  0  0  0  0
 20 22  2  0  0  0  0
 20 50  1  0  0  0  0
 21 23  2  0  0  0  0
 22 23  1  0  0  0  0
 22 52  1  0  0  0  0
 23 53  1  0  0  0  0
 24 25  1  0  0  0  0
 25 26  1  0  0  0  0
 25 28  2  0  0  0  0
 26 27  2  0  0  0  0
 26 54  1  0  0  0  0
 27 29  1  0  0  0  0
 27 30  1  0  0  0  0
 28 55  1  0  0  0  0
 29 31  1  0  0  0  0
 30 32  2  0  0  0  0
 30 56  1  0  0  0  0
 31 33  2  0  0  0  0
 31 57  1  0  0  0  0
 32 33  1  0  0  0  0
 33 58  1  0  0  0  0
M  END
> <PUBCHEM_COMPOUND_CID>
122183768

> <PUBCHEM_COMPOUND_CANONICALIZED>
1

> <PUBCHEM_CACTVS_COMPLEXITY>
640

> <PUBCHEM_CACTVS_HBOND_ACCEPTOR>
6

> <PUBCHEM_CACTVS_HBOND_DONOR>
2

> <PUBCHEM_CACTVS_ROTATABLE_BOND>
7

> <PUBCHEM_CACTVS_SUBSKEYS>
AAADceB7sQAGAAAAAAAAAAAAAAAAAAAAAAA8eIEAAAAAAACx9AAAHwIQCAAADB7hni48wPPIEgCoAzV3VACCgCA1ByAI2uE4ZtgKcPrB15HUYYhilgDYyccYicCeAAAAAAICABQAAAAABAQAKAAAAAAAAA==

> <PUBCHEM_IUPAC_OPENEYE_NAME>
N-[4-[4-(2,3-dichlorophenyl)piperazin-1-yl]-3-hydroxy-butyl]-6-fluoro-quinoline-3-carboxamide

> <PUBCHEM_IUPAC_CAS_NAME>
N-[4-[4-(2,3-dichlorophenyl)-1-piperazinyl]-3-hydroxybutyl]-6-fluoro-3-quinolinecarboxamide

> <PUBCHEM_IUPAC_NAME_MARKUP>
<I>N</I>-[4-[4-(2,3-dichlorophenyl)piperazin-1-yl]-3-hydroxybutyl]-6-fluoroquinoline-3-carboxamide

> <PUBCHEM_IUPAC_NAME>
N-[4-[4-(2,3-dichlorophenyl)piperazin-1-yl]-3-hydroxybutyl]-6-fluoroquinoline-3-carboxamide

> <PUBCHEM_IUPAC_SYSTEMATIC_NAME>
N-[4-[4-[2,3-bis(chloranyl)phenyl]piperazin-1-yl]-3-oxidanyl-butyl]-6-fluoranyl-quinoline-3-carboxamide

> <PUBCHEM_IUPAC_TRADITIONAL_NAME>
N-[4-[4-(2,3-dichlorophenyl)piperazino]-3-hydroxy-butyl]-6-fluoro-quinoline-3-carboxamide

> <PUBCHEM_IUPAC_INCHI>
InChI=1S/C24H25Cl2FN4O2/c25-20-2-1-3-22(23(20)26)31-10-8-30(9-11-31)15-19(32)6-7-28-24(33)17-12-16-13-18(27)4-5-21(16)29-14-17/h1-5,12-14,19,32H,6-11,15H2,(H,28,33)

> <PUBCHEM_IUPAC_INCHIKEY>
GSIBLYYMECNRRS-UHFFFAOYSA-N

> <PUBCHEM_XLOGP3_AA>
4.2

> <PUBCHEM_EXACT_MASS>
490.1338596

> <PUBCHEM_MOLECULAR_FORMULA>
C24H25Cl2FN4O2

> <PUBCHEM_MOLECULAR_WEIGHT>
491.4

> <PUBCHEM_OPENEYE_CAN_SMILES>
C1CN(CCN1CC(CCNC(=O)C2=CN=C3C=CC(=CC3=C2)F)O)C4=C(C(=CC=C4)Cl)Cl

> <PUBCHEM_OPENEYE_ISO_SMILES>
C1CN(CCN1CC(CCNC(=O)C2=CN=C3C=CC(=CC3=C2)F)O)C4=C(C(=CC=C4)Cl)Cl

> <PUBCHEM_CACTVS_TPSA>
68.7

> <PUBCHEM_MONOISOTOPIC_WEIGHT>
490.1338596

> <PUBCHEM_TOTAL_CHARGE>
0

> <PUBCHEM_HEAVY_ATOM_COUNT>
33

> <PUBCHEM_ATOM_DEF_STEREO_COUNT>
0

> <PUBCHEM_ATOM_UDEF_STEREO_COUNT>
1

> <PUBCHEM_BOND_DEF_STEREO_COUNT>
0

> <PUBCHEM_BOND_UDEF_STEREO_COUNT>
0

> <PUBCHEM_ISOTOPIC_ATOM_COUNT>
0

> <PUBCHEM_COMPONENT_COUNT>
1

> <PUBCHEM_CACTVS_TAUTO_COUNT>
-1

> <PUBCHEM_COORDINATE_TYPE>
1
5
255

> <PUBCHEM_BONDANNOTATIONS>
17  19  8
17  20  8
19  21  8
20  22  8
21  23  8
22  23  8
25  26  8
25  28  8
26  27  8
27  29  8
27  30  8
29  31  8
30  32  8
31  33  8
32  33  8
15  4  3
9  28  8
9  29  8

$$$$
