73349358
  -OEChem-09292322472D

 46 51  0     1  0  0  0  0  0999 V2000
    2.8602   -4.9010    0.0000 F   0  0  0  0  0  0  0  0  0  0  0  0
    3.9194    1.0888    0.0000 N   0  0  0  0  0  0  0  0  0  0  0  0
    2.7758    2.9986    0.0000 C   0  0  3  0  0  0  0  0  0  0  0  0
    2.3504    3.6243    0.0000 C   0  0  3  0  0  0  0  0  0  0  0  0
    2.4253    2.0975    0.0000 C   0  0  3  0  0  0  0  0  0  0  0  0
    2.0000    2.6231    0.0000 C   0  0  3  0  0  0  0  0  0  0  0  0
    3.4766    3.4241    0.0000 C   0  0  3  0  0  0  0  0  0  0  0  0
    3.2514    4.0500    0.0000 C   0  0  3  0  0  0  0  0  0  0  0  0
    4.2276    2.7984    0.0000 C   0  0  3  0  0  0  0  0  0  0  0  0
    4.0524    3.5744    0.0000 C   0  0  3  0  0  0  0  0  0  0  0  0
    3.5017    1.9974    0.0000 C   0  0  2  0  0  0  0  0  0  0  0  0
    3.4516    4.9010    0.0000 C   0  0  0  0  0  0  0  0  0  0  0  0
    3.2264    2.5982    0.0000 C   0  0  0  0  0  0  0  0  0  0  0  0
    3.3413    0.2728    0.0000 C   0  0  0  0  0  0  0  0  0  0  0  0
    3.7590   -0.6358    0.0000 C   0  0  0  0  0  0  0  0  0  0  0  0
    3.1810   -1.4518    0.0000 C   0  0  0  0  0  0  0  0  0  0  0  0
    3.5986   -2.3604    0.0000 C   0  0  0  0  0  0  0  0  0  0  0  0
    3.0206   -3.1764    0.0000 C   0  0  0  0  0  0  0  0  0  0  0  0
    4.5943   -2.4530    0.0000 C   0  0  0  0  0  0  0  0  0  0  0  0
    3.4382   -4.0850    0.0000 C   0  0  0  0  0  0  0  0  0  0  0  0
    5.0120   -3.3616    0.0000 C   0  0  0  0  0  0  0  0  0  0  0  0
    4.4340   -4.1776    0.0000 C   0  0  0  0  0  0  0  0  0  0  0  0
    3.2508    2.6002    0.0000 H   0  0  0  0  0  0  0  0  0  0  0  0
    1.8897    4.0392    0.0000 H   0  0  0  0  0  0  0  0  0  0  0  0
    2.1327    1.5509    0.0000 H   0  0  0  0  0  0  0  0  0  0  0  0
    1.3891    2.5171    0.0000 H   0  0  0  0  0  0  0  0  0  0  0  0
    2.9338    3.7236    0.0000 H   0  0  0  0  0  0  0  0  0  0  0  0
    2.7694    4.4399    0.0000 H   0  0  0  0  0  0  0  0  0  0  0  0
    4.8272    2.6408    0.0000 H   0  0  0  0  0  0  0  0  0  0  0  0
    4.5539    3.9389    0.0000 H   0  0  0  0  0  0  0  0  0  0  0  0
    3.1433    1.4915    0.0000 H   0  0  0  0  0  0  0  0  0  0  0  0
    4.0078    5.1751    0.0000 H   0  0  0  0  0  0  0  0  0  0  0  0
    2.9664    5.2870    0.0000 H   0  0  0  0  0  0  0  0  0  0  0  0
    3.0744    1.9971    0.0000 H   0  0  0  0  0  0  0  0  0  0  0  0
    3.7778    2.3147    0.0000 H   0  0  0  0  0  0  0  0  0  0  0  0
    4.5367    1.0314    0.0000 H   0  0  0  0  0  0  0  0  0  0  0  0
    2.9053    0.7136    0.0000 H   0  0  0  0  0  0  0  0  0  0  0  0
    2.8315   -0.0800    0.0000 H   0  0  0  0  0  0  0  0  0  0  0  0
    4.1950   -1.0766    0.0000 H   0  0  0  0  0  0  0  0  0  0  0  0
    4.2688   -0.2829    0.0000 H   0  0  0  0  0  0  0  0  0  0  0  0
    2.7450   -1.0110    0.0000 H   0  0  0  0  0  0  0  0  0  0  0  0
    2.6712   -1.8046    0.0000 H   0  0  0  0  0  0  0  0  0  0  0  0
    2.4032   -3.1190    0.0000 H   0  0  0  0  0  0  0  0  0  0  0  0
    4.9527   -1.9471    0.0000 H   0  0  0  0  0  0  0  0  0  0  0  0
    5.6293   -3.4190    0.0000 H   0  0  0  0  0  0  0  0  0  0  0  0
    4.6929   -4.7409    0.0000 H   0  0  0  0  0  0  0  0  0  0  0  0
  1 20  1  0  0  0  0
  2 11  1  0  0  0  0
  2 14  1  0  0  0  0
  2 36  1  0  0  0  0
  3  4  1  0  0  0  0
  3  5  1  0  0  0  0
  3  7  1  0  0  0  0
  3 23  1  0  0  0  0
  4  6  1  0  0  0  0
  4  8  1  0  0  0  0
  4 24  1  0  0  0  0
  5  6  1  0  0  0  0
  5 11  1  0  0  0  0
  5 25  1  0  0  0  0
  6 13  1  0  0  0  0
  6 26  1  0  0  0  0
  7  9  1  0  0  0  0
  7 12  1  0  0  0  0
  7 27  1  0  0  0  0
  8 10  1  0  0  0  0
  8 12  1  0  0  0  0
  8 28  1  0  0  0  0
  9 10  1  0  0  0  0
  9 11  1  0  0  0  0
  9 29  1  0  0  0  0
 10 13  1  0  0  0  0
 10 30  1  0  0  0  0
 11 31  1  0  0  0  0
 12 32  1  0  0  0  0
 12 33  1  0  0  0  0
 13 34  1  0  0  0  0
 13 35  1  0  0  0  0
 14 15  1  0  0  0  0
 14 37  1  0  0  0  0
 14 38  1  0  0  0  0
 15 16  1  0  0  0  0
 15 39  1  0  0  0  0
 15 40  1  0  0  0  0
 16 17  1  0  0  0  0
 16 41  1  0  0  0  0
 16 42  1  0  0  0  0
 17 18  2  0  0  0  0
 17 19  1  0  0  0  0
 18 20  1  0  0  0  0
 18 43  1  0  0  0  0
 19 21  2  0  0  0  0
 19 44  1  0  0  0  0
 20 22  2  0  0  0  0
 21 22  1  0  0  0  0
 21 45  1  0  0  0  0
 22 46  1  0  0  0  0
M  END
> <PUBCHEM_COMPOUND_CID>
73349358

> <PUBCHEM_COMPOUND_CANONICALIZED>
1

> <PUBCHEM_CACTVS_COMPLEXITY>
478

> <PUBCHEM_CACTVS_HBOND_ACCEPTOR>
2

> <PUBCHEM_CACTVS_HBOND_DONOR>
1

> <PUBCHEM_CACTVS_ROTATABLE_BOND>
5

> <PUBCHEM_CACTVS_SUBSKEYS>
AAADceB6AQAAAAAAAAAAAAAAAABgAYMGDAAwYAAAAAAAAAABAAAAHQAQAAAADSjBGAwwAILAAACAAiBCAAACAAAgAAAIiIAIAIgIICKAkRCEIAAgkACIiAcQgMAOgAAAAAAAAACAAASAACQAASAACQAAAA==

> <PUBCHEM_IUPAC_OPENEYE_NAME>
(8S)-N-[3-(3-fluorophenyl)propyl]pentacyclo[5.4.0.02,6.03,10.05,9]undecan-8-amine

> <PUBCHEM_IUPAC_CAS_NAME>
(8S)-N-[3-(3-fluorophenyl)propyl]-8-pentacyclo[5.4.0.02,6.03,10.05,9]undecanamine

> <PUBCHEM_IUPAC_NAME_MARKUP>
(8<I>S</I>)-<I>N</I>-[3-(3-fluorophenyl)propyl]pentacyclo[5.4.0.0<SUP>2,6</SUP>.0<SUP>3,10</SUP>.0<SUP>5,9</SUP>]undecan-8-amine

> <PUBCHEM_IUPAC_NAME>
(8S)-N-[3-(3-fluorophenyl)propyl]pentacyclo[5.4.0.02,6.03,10.05,9]undecan-8-amine

> <PUBCHEM_IUPAC_SYSTEMATIC_NAME>
(8S)-N-[3-(3-fluorophenyl)propyl]pentacyclo[5.4.0.02,6.03,10.05,9]undecan-8-amine

> <PUBCHEM_IUPAC_TRADITIONAL_NAME>
3-(3-fluorophenyl)propyl-[(8S)-8-pentacyclo[5.4.0.02,6.03,10.05,9]undecanyl]amine

> <PUBCHEM_IUPAC_INCHI>
InChI=1S/C20H24FN/c21-11-5-1-3-10(7-11)4-2-6-22-20-17-13-9-14-16-12(13)8-15(17)18(16)19(14)20/h1,3,5,7,12-20,22H,2,4,6,8-9H2/t12?,13?,14?,15?,16?,17?,18?,19?,20-/m0/s1

> <PUBCHEM_IUPAC_INCHIKEY>
SJWCMFMHVZULSJ-DKSPCFMDSA-N

> <PUBCHEM_XLOGP3_AA>
4.3

> <PUBCHEM_EXACT_MASS>
297.189277932

> <PUBCHEM_MOLECULAR_FORMULA>
C20H24FN

> <PUBCHEM_MOLECULAR_WEIGHT>
297.4

> <PUBCHEM_OPENEYE_CAN_SMILES>
C1C2C3CC4C2C5C1C3C(C45)NCCCC6=CC(=CC=C6)F

> <PUBCHEM_OPENEYE_ISO_SMILES>
C1C2C3CC4C2[C@@H](C5C1C3C45)NCCCC6=CC(=CC=C6)F

> <PUBCHEM_CACTVS_TPSA>
12

> <PUBCHEM_MONOISOTOPIC_WEIGHT>
297.189277932

> <PUBCHEM_TOTAL_CHARGE>
0

> <PUBCHEM_HEAVY_ATOM_COUNT>
22

> <PUBCHEM_ATOM_DEF_STEREO_COUNT>
1

> <PUBCHEM_ATOM_UDEF_STEREO_COUNT>
8

> <PUBCHEM_BOND_DEF_STEREO_COUNT>
0

> <PUBCHEM_BOND_UDEF_STEREO_COUNT>
0

> <PUBCHEM_ISOTOPIC_ATOM_COUNT>
0

> <PUBCHEM_COMPONENT_COUNT>
1

> <PUBCHEM_CACTVS_TAUTO_COUNT>
-1

> <PUBCHEM_COORDINATE_TYPE>
1
5
255

> <PUBCHEM_BONDANNOTATIONS>
10  13  3
17  18  8
17  19  8
18  20  8
19  21  8
20  22  8
21  22  8
3  7  3
4  8  3
5  11  3
6  13  3
7  12  3
8  12  3
9  11  3

$$$$
