12581203
  -OEChem-09292322132D

 40 41  0     1  0  0  0  0  0999 V2000
    7.2125   -2.0123    0.0000 O   0  0  0  0  0  0  0  0  0  0  0  0
    3.7320    1.0223    0.0000 N   0  0  0  0  0  0  0  0  0  0  0  0
    4.5981    0.5223    0.0000 C   0  0  3  0  0  0  0  0  0  0  0  0
    4.5981   -0.4777    0.0000 C   0  0  0  0  0  0  0  0  0  0  0  0
    5.4641    1.0223    0.0000 C   0  0  0  0  0  0  0  0  0  0  0  0
    5.4641   -0.9777    0.0000 C   0  0  0  0  0  0  0  0  0  0  0  0
    6.3301    0.5223    0.0000 C   0  0  0  0  0  0  0  0  0  0  0  0
    6.3301   -0.4777    0.0000 C   0  0  0  0  0  0  0  0  0  0  0  0
    2.8660    0.5223    0.0000 C   0  0  0  0  0  0  0  0  0  0  0  0
    3.7320    2.0223    0.0000 C   0  0  0  0  0  0  0  0  0  0  0  0
    7.2241   -1.0124    0.0000 C   0  0  0  0  0  0  0  0  0  0  0  0
    7.2241    1.0570    0.0000 C   0  0  0  0  0  0  0  0  0  0  0  0
    2.0000    1.0223    0.0000 C   0  0  0  0  0  0  0  0  0  0  0  0
    2.8660    2.5223    0.0000 C   0  0  0  0  0  0  0  0  0  0  0  0
    8.1301   -0.4985    0.0000 C   0  0  0  0  0  0  0  0  0  0  0  0
    8.1301    0.5431    0.0000 C   0  0  0  0  0  0  0  0  0  0  0  0
    8.0727   -2.5223    0.0000 C   0  0  0  0  0  0  0  0  0  0  0  0
    4.0611    0.2123    0.0000 H   0  0  0  0  0  0  0  0  0  0  0  0
    3.9875   -0.3701    0.0000 H   0  0  0  0  0  0  0  0  0  0  0  0
    4.3860   -1.0603    0.0000 H   0  0  0  0  0  0  0  0  0  0  0  0
    5.8626    1.4972    0.0000 H   0  0  0  0  0  0  0  0  0  0  0  0
    5.0656    1.4972    0.0000 H   0  0  0  0  0  0  0  0  0  0  0  0
    5.0656   -1.4527    0.0000 H   0  0  0  0  0  0  0  0  0  0  0  0
    5.8626   -1.4527    0.0000 H   0  0  0  0  0  0  0  0  0  0  0  0
    2.4675    0.0473    0.0000 H   0  0  0  0  0  0  0  0  0  0  0  0
    3.2646    0.0473    0.0000 H   0  0  0  0  0  0  0  0  0  0  0  0
    4.3426    1.9146    0.0000 H   0  0  0  0  0  0  0  0  0  0  0  0
    3.9441    2.6049    0.0000 H   0  0  0  0  0  0  0  0  0  0  0  0
    7.2169    1.6769    0.0000 H   0  0  0  0  0  0  0  0  0  0  0  0
    2.3100    1.5592    0.0000 H   0  0  0  0  0  0  0  0  0  0  0  0
    1.4631    1.3323    0.0000 H   0  0  0  0  0  0  0  0  0  0  0  0
    1.6900    0.4854    0.0000 H   0  0  0  0  0  0  0  0  0  0  0  0
    3.1760    3.0592    0.0000 H   0  0  0  0  0  0  0  0  0  0  0  0
    2.3291    2.8323    0.0000 H   0  0  0  0  0  0  0  0  0  0  0  0
    2.5560    1.9854    0.0000 H   0  0  0  0  0  0  0  0  0  0  0  0
    8.6659   -0.8106    0.0000 H   0  0  0  0  0  0  0  0  0  0  0  0
    8.6659    0.8552    0.0000 H   0  0  0  0  0  0  0  0  0  0  0  0
    7.7565   -3.0556    0.0000 H   0  0  0  0  0  0  0  0  0  0  0  0
    8.6060   -2.8385    0.0000 H   0  0  0  0  0  0  0  0  0  0  0  0
    8.3889   -1.9890    0.0000 H   0  0  0  0  0  0  0  0  0  0  0  0
  1 11  1  0  0  0  0
  1 17  1  0  0  0  0
  2  3  1  0  0  0  0
  2  9  1  0  0  0  0
  2 10  1  0  0  0  0
  3  4  1  0  0  0  0
  3  5  1  0  0  0  0
  3 18  1  0  0  0  0
  4  6  1  0  0  0  0
  4 19  1  0  0  0  0
  4 20  1  0  0  0  0
  5  7  1  0  0  0  0
  5 21  1  0  0  0  0
  5 22  1  0  0  0  0
  6  8  1  0  0  0  0
  6 23  1  0  0  0  0
  6 24  1  0  0  0  0
  7  8  2  0  0  0  0
  7 12  1  0  0  0  0
  8 11  1  0  0  0  0
  9 13  1  0  0  0  0
  9 25  1  0  0  0  0
  9 26  1  0  0  0  0
 10 14  1  0  0  0  0
 10 27  1  0  0  0  0
 10 28  1  0  0  0  0
 11 15  2  0  0  0  0
 12 16  2  0  0  0  0
 12 29  1  0  0  0  0
 13 30  1  0  0  0  0
 13 31  1  0  0  0  0
 13 32  1  0  0  0  0
 14 33  1  0  0  0  0
 14 34  1  0  0  0  0
 14 35  1  0  0  0  0
 15 16  1  0  0  0  0
 15 36  1  0  0  0  0
 16 37  1  0  0  0  0
 17 38  1  0  0  0  0
 17 39  1  0  0  0  0
 17 40  1  0  0  0  0
M  END
> <PUBCHEM_COMPOUND_CID>
12581203

> <PUBCHEM_COMPOUND_CANONICALIZED>
1

> <PUBCHEM_CACTVS_COMPLEXITY>
227

> <PUBCHEM_CACTVS_HBOND_ACCEPTOR>
2

> <PUBCHEM_CACTVS_HBOND_DONOR>
0

> <PUBCHEM_CACTVS_ROTATABLE_BOND>
4

> <PUBCHEM_CACTVS_SUBSKEYS>
AAADceByIAAAAAAAAAAAAAAAAAAAAAAAAAAwYAAAAAAAAADBAAAAHgAAAAAADCzBmAYyBoMABACAAiBCAAACCAAgIAAIiAAOCIgMJiKEsRuEMCAkwBGIqAeQ0LMOgAABAAAYAAAQAAKAADAAAAAAAAAAAA==

> <PUBCHEM_IUPAC_OPENEYE_NAME>
N,N-diethyl-5-methoxy-tetralin-2-amine

> <PUBCHEM_IUPAC_CAS_NAME>
N,N-diethyl-5-methoxy-1,2,3,4-tetrahydronaphthalen-2-amine

> <PUBCHEM_IUPAC_NAME_MARKUP>
<I>N</I>,<I>N</I>-diethyl-5-methoxy-1,2,3,4-tetrahydronaphthalen-2-amine

> <PUBCHEM_IUPAC_NAME>
N,N-diethyl-5-methoxy-1,2,3,4-tetrahydronaphthalen-2-amine

> <PUBCHEM_IUPAC_SYSTEMATIC_NAME>
N,N-diethyl-5-methoxy-1,2,3,4-tetrahydronaphthalen-2-amine

> <PUBCHEM_IUPAC_TRADITIONAL_NAME>
diethyl-(5-methoxytetralin-2-yl)amine

> <PUBCHEM_IUPAC_INCHI>
InChI=1S/C15H23NO/c1-4-16(5-2)13-9-10-14-12(11-13)7-6-8-15(14)17-3/h6-8,13H,4-5,9-11H2,1-3H3

> <PUBCHEM_IUPAC_INCHIKEY>
YGHHMTVTTJJSQZ-UHFFFAOYSA-N

> <PUBCHEM_XLOGP3_AA>
3.4

> <PUBCHEM_EXACT_MASS>
233.177964357

> <PUBCHEM_MOLECULAR_FORMULA>
C15H23NO

> <PUBCHEM_MOLECULAR_WEIGHT>
233.35

> <PUBCHEM_OPENEYE_CAN_SMILES>
CCN(CC)C1CCC2=C(C1)C=CC=C2OC

> <PUBCHEM_OPENEYE_ISO_SMILES>
CCN(CC)C1CCC2=C(C1)C=CC=C2OC

> <PUBCHEM_CACTVS_TPSA>
12.5

> <PUBCHEM_MONOISOTOPIC_WEIGHT>
233.177964357

> <PUBCHEM_TOTAL_CHARGE>
0

> <PUBCHEM_HEAVY_ATOM_COUNT>
17

> <PUBCHEM_ATOM_DEF_STEREO_COUNT>
0

> <PUBCHEM_ATOM_UDEF_STEREO_COUNT>
1

> <PUBCHEM_BOND_DEF_STEREO_COUNT>
0

> <PUBCHEM_BOND_UDEF_STEREO_COUNT>
0

> <PUBCHEM_ISOTOPIC_ATOM_COUNT>
0

> <PUBCHEM_COMPONENT_COUNT>
1

> <PUBCHEM_CACTVS_TAUTO_COUNT>
-1

> <PUBCHEM_COORDINATE_TYPE>
1
5
255

> <PUBCHEM_BONDANNOTATIONS>
11  15  8
12  16  8
15  16  8
3  2  3
7  12  8
7  8  8
8  11  8

$$$$
