155537227
  -OEChem-09292322462D

 55 59  0     0  0  0  0  0  0999 V2000
    4.4511    1.9075    0.0000 S   0  0  0  0  0  0  0  0  0  0  0  0
    3.4511    1.9075    0.0000 O   0  0  0  0  0  0  0  0  0  0  0  0
    5.4511    1.9075    0.0000 O   0  0  0  0  0  0  0  0  0  0  0  0
    7.2766   -4.3307    0.0000 O   0  0  0  0  0  0  0  0  0  0  0  0
    4.4511    0.9075    0.0000 N   0  0  0  0  0  0  0  0  0  0  0  0
    6.0470   -2.9664    0.0000 N   0  0  0  0  0  0  0  0  0  0  0  0
    6.5417   -1.4259    0.0000 N   0  0  0  0  0  0  0  0  0  0  0  0
    7.8061   -2.6816    0.0000 N   0  0  0  0  0  0  0  0  0  0  0  0
    3.6464    0.3239    0.0000 C   0  0  0  0  0  0  0  0  0  0  0  0
    4.9511   -0.6224    0.0000 C   0  0  0  0  0  0  0  0  0  0  0  0
    3.9570   -0.6267    0.0000 C   0  0  0  0  0  0  0  0  0  0  0  0
    5.2558    0.3239    0.0000 C   0  0  0  0  0  0  0  0  0  0  0  0
    4.4511    2.9075    0.0000 C   0  0  0  0  0  0  0  0  0  0  0  0
    5.5417   -1.4293    0.0000 C   0  0  0  0  0  0  0  0  0  0  0  0
    5.3171    3.4075    0.0000 C   0  0  0  0  0  0  0  0  0  0  0  0
    2.6678    0.5301    0.0000 C   0  0  0  0  0  0  0  0  0  0  0  0
    3.2892   -1.3709    0.0000 C   0  0  0  0  0  0  0  0  0  0  0  0
    5.2359   -2.3814    0.0000 C   0  0  0  0  0  0  0  0  0  0  0  0
    5.3171    4.4075    0.0000 C   0  0  0  0  0  0  0  0  0  0  0  0
    3.5851    3.4075    0.0000 C   0  0  0  0  0  0  0  0  0  0  0  0
    2.0000   -0.2142    0.0000 C   0  0  0  0  0  0  0  0  0  0  0  0
    2.3107   -1.1647    0.0000 C   0  0  0  0  0  0  0  0  0  0  0  0
    6.8540   -2.3758    0.0000 C   0  0  0  0  0  0  0  0  0  0  0  0
    6.2110    2.8728    0.0000 C   0  0  0  0  0  0  0  0  0  0  0  0
    4.4511    4.9075    0.0000 C   0  0  0  0  0  0  0  0  0  0  0  0
    3.5851    4.4075    0.0000 C   0  0  0  0  0  0  0  0  0  0  0  0
    4.2860   -2.6938    0.0000 C   0  0  0  0  0  0  0  0  0  0  0  0
    6.2110    4.9421    0.0000 C   0  0  0  0  0  0  0  0  0  0  0  0
    7.1171    3.3867    0.0000 C   0  0  0  0  0  0  0  0  0  0  0  0
    7.1171    4.4283    0.0000 C   0  0  0  0  0  0  0  0  0  0  0  0
    8.0174   -3.6590    0.0000 C   0  0  0  0  0  0  0  0  0  0  0  0
    8.9695   -3.9647    0.0000 C   0  0  0  0  0  0  0  0  0  0  0  0
    9.1808   -4.9421    0.0000 C   0  0  0  0  0  0  0  0  0  0  0  0
    5.8451    0.5165    0.0000 H   0  0  0  0  0  0  0  0  0  0  0  0
    2.4752    1.1194    0.0000 H   0  0  0  0  0  0  0  0  0  0  0  0
    3.4818   -1.9603    0.0000 H   0  0  0  0  0  0  0  0  0  0  0  0
    3.0481    3.0975    0.0000 H   0  0  0  0  0  0  0  0  0  0  0  0
    1.3933   -0.0864    0.0000 H   0  0  0  0  0  0  0  0  0  0  0  0
    1.8966   -1.6262    0.0000 H   0  0  0  0  0  0  0  0  0  0  0  0
    6.0491   -3.5864    0.0000 H   0  0  0  0  0  0  0  0  0  0  0  0
    6.2039    2.2529    0.0000 H   0  0  0  0  0  0  0  0  0  0  0  0
    4.4511    5.5275    0.0000 H   0  0  0  0  0  0  0  0  0  0  0  0
    3.0481    4.7175    0.0000 H   0  0  0  0  0  0  0  0  0  0  0  0
    4.0923   -2.1048    0.0000 H   0  0  0  0  0  0  0  0  0  0  0  0
    3.6970   -2.8874    0.0000 H   0  0  0  0  0  0  0  0  0  0  0  0
    4.4796   -3.2827    0.0000 H   0  0  0  0  0  0  0  0  0  0  0  0
    6.2039    5.5621    0.0000 H   0  0  0  0  0  0  0  0  0  0  0  0
    7.6528    3.0746    0.0000 H   0  0  0  0  0  0  0  0  0  0  0  0
    7.6528    4.7404    0.0000 H   0  0  0  0  0  0  0  0  0  0  0  0
    8.2654   -2.2651    0.0000 H   0  0  0  0  0  0  0  0  0  0  0  0
    9.5890   -3.9409    0.0000 H   0  0  0  0  0  0  0  0  0  0  0  0
    9.0537   -3.3505    0.0000 H   0  0  0  0  0  0  0  0  0  0  0  0
    8.5748   -5.0731    0.0000 H   0  0  0  0  0  0  0  0  0  0  0  0
    9.3118   -5.5481    0.0000 H   0  0  0  0  0  0  0  0  0  0  0  0
    9.7868   -4.8111    0.0000 H   0  0  0  0  0  0  0  0  0  0  0  0
  1  2  2  0  0  0  0
  1  3  2  0  0  0  0
  1  5  1  0  0  0  0
  1 13  1  0  0  0  0
  4 31  2  0  0  0  0
  5  9  1  0  0  0  0
  5 12  1  0  0  0  0
  6 18  1  0  0  0  0
  6 23  1  0  0  0  0
  6 40  1  0  0  0  0
  7 14  1  0  0  0  0
  7 23  2  0  0  0  0
  8 23  1  0  0  0  0
  8 31  1  0  0  0  0
  8 50  1  0  0  0  0
  9 11  1  0  0  0  0
  9 16  2  0  0  0  0
 10 11  1  0  0  0  0
 10 12  2  0  0  0  0
 10 14  1  0  0  0  0
 11 17  2  0  0  0  0
 12 34  1  0  0  0  0
 13 15  1  0  0  0  0
 13 20  2  0  0  0  0
 14 18  2  0  0  0  0
 15 19  1  0  0  0  0
 15 24  2  0  0  0  0
 16 21  1  0  0  0  0
 16 35  1  0  0  0  0
 17 22  1  0  0  0  0
 17 36  1  0  0  0  0
 18 27  1  0  0  0  0
 19 25  1  0  0  0  0
 19 28  2  0  0  0  0
 20 26  1  0  0  0  0
 20 37  1  0  0  0  0
 21 22  2  0  0  0  0
 21 38  1  0  0  0  0
 22 39  1  0  0  0  0
 24 29  1  0  0  0  0
 24 41  1  0  0  0  0
 25 26  2  0  0  0  0
 25 42  1  0  0  0  0
 26 43  1  0  0  0  0
 27 44  1  0  0  0  0
 27 45  1  0  0  0  0
 27 46  1  0  0  0  0
 28 30  1  0  0  0  0
 28 47  1  0  0  0  0
 29 30  2  0  0  0  0
 29 48  1  0  0  0  0
 30 49  1  0  0  0  0
 31 32  1  0  0  0  0
 32 33  1  0  0  0  0
 32 51  1  0  0  0  0
 32 52  1  0  0  0  0
 33 53  1  0  0  0  0
 33 54  1  0  0  0  0
 33 55  1  0  0  0  0
M  END
> <PUBCHEM_COMPOUND_CID>
155537227

> <PUBCHEM_COMPOUND_CANONICALIZED>
1

> <PUBCHEM_CACTVS_COMPLEXITY>
815

> <PUBCHEM_CACTVS_HBOND_ACCEPTOR>
4

> <PUBCHEM_CACTVS_HBOND_DONOR>
2

> <PUBCHEM_CACTVS_ROTATABLE_BOND>
5

> <PUBCHEM_CACTVS_SUBSKEYS>
AAADceB7sABAAAAAAAAAAAAAAAAAAWLAAAAwYMAAAAAAAFjB/AAAHgQQQAAADAjB3gQ/0fbJkAKoAzV3dHDCgD2xEqAJ2Tk4dJiIaOLA2ZGUIAhokQLIyCcQgMAOgAAAgAAWAAAAAAEAACwAAAAAAAAAAA==

> <PUBCHEM_IUPAC_OPENEYE_NAME>
N-[5-methyl-4-[1-(1-naphthylsulfonyl)indol-3-yl]-1H-imidazol-2-yl]propanamide

> <PUBCHEM_IUPAC_CAS_NAME>
N-[5-methyl-4-[1-(1-naphthalenylsulfonyl)-3-indolyl]-1H-imidazol-2-yl]propanamide

> <PUBCHEM_IUPAC_NAME_MARKUP>
<I>N</I>-[5-methyl-4-(1-naphthalen-1-ylsulfonylindol-3-yl)-1<I>H</I>-imidazol-2-yl]propanamide

> <PUBCHEM_IUPAC_NAME>
N-[5-methyl-4-(1-naphthalen-1-ylsulfonylindol-3-yl)-1H-imidazol-2-yl]propanamide

> <PUBCHEM_IUPAC_SYSTEMATIC_NAME>
N-[5-methyl-4-(1-naphthalen-1-ylsulfonylindol-3-yl)-1H-imidazol-2-yl]propanamide

> <PUBCHEM_IUPAC_TRADITIONAL_NAME>
N-[5-methyl-4-[1-(1-naphthylsulfonyl)indol-3-yl]-1H-imidazol-2-yl]propionamide

> <PUBCHEM_IUPAC_INCHI>
InChI=1S/C25H22N4O3S/c1-3-23(30)27-25-26-16(2)24(28-25)20-15-29(21-13-7-6-12-19(20)21)33(31,32)22-14-8-10-17-9-4-5-11-18(17)22/h4-15H,3H2,1-2H3,(H2,26,27,28,30)

> <PUBCHEM_IUPAC_INCHIKEY>
WAXBFCITEAKKMF-UHFFFAOYSA-N

> <PUBCHEM_XLOGP3_AA>
4.7

> <PUBCHEM_EXACT_MASS>
458.14126175

> <PUBCHEM_MOLECULAR_FORMULA>
C25H22N4O3S

> <PUBCHEM_MOLECULAR_WEIGHT>
458.5

> <PUBCHEM_OPENEYE_CAN_SMILES>
CCC(=O)NC1=NC(=C(N1)C)C2=CN(C3=CC=CC=C32)S(=O)(=O)C4=CC=CC5=CC=CC=C54

> <PUBCHEM_OPENEYE_ISO_SMILES>
CCC(=O)NC1=NC(=C(N1)C)C2=CN(C3=CC=CC=C32)S(=O)(=O)C4=CC=CC5=CC=CC=C54

> <PUBCHEM_CACTVS_TPSA>
105

> <PUBCHEM_MONOISOTOPIC_WEIGHT>
458.14126175

> <PUBCHEM_TOTAL_CHARGE>
0

> <PUBCHEM_HEAVY_ATOM_COUNT>
33

> <PUBCHEM_ATOM_DEF_STEREO_COUNT>
0

> <PUBCHEM_ATOM_UDEF_STEREO_COUNT>
0

> <PUBCHEM_BOND_DEF_STEREO_COUNT>
0

> <PUBCHEM_BOND_UDEF_STEREO_COUNT>
0

> <PUBCHEM_ISOTOPIC_ATOM_COUNT>
0

> <PUBCHEM_COMPONENT_COUNT>
1

> <PUBCHEM_CACTVS_TAUTO_COUNT>
-1

> <PUBCHEM_COORDINATE_TYPE>
1
5
255

> <PUBCHEM_BONDANNOTATIONS>
10  11  8
10  12  8
11  17  8
13  15  8
13  20  8
14  18  8
15  19  8
15  24  8
16  21  8
17  22  8
19  25  8
19  28  8
20  26  8
21  22  8
24  29  8
25  26  8
28  30  8
29  30  8
5  12  8
5  9  8
6  18  8
6  23  8
7  14  8
7  23  8
9  11  8
9  16  8

$$$$
