16732894
  -OEChem-09292322092D

 93 99  0     1  0  0  0  0  0999 V2000
    7.2077   -1.9978    0.0000 O   0  0  0  0  0  0  0  0  0  0  0  0
    9.7884    2.5121    0.0000 O   0  0  0  0  0  0  0  0  0  0  0  0
    6.3282    1.4988    0.0000 O   0  0  0  0  0  0  0  0  0  0  0  0
   10.7691    2.2902    0.0000 O   0  0  0  0  0  0  0  0  0  0  0  0
    2.0000    0.9821    0.0000 O   0  5  0  0  0  0  0  0  0  0  0  0
    2.8602    2.4854    0.0000 O   0  0  0  0  0  0  0  0  0  0  0  0
   10.7398   -1.9981    0.0000 N   0  0  3  0  0  0  0  0  0  0  0  0
   11.7279   -6.1883    0.0000 N   0  0  0  0  0  0  0  0  0  0  0  0
    8.0679   -0.4945    0.0000 N   0  0  0  0  0  0  0  0  0  0  0  0
    9.4171    3.8767    0.0000 N   0  0  0  0  0  0  0  0  0  0  0  0
    8.0602    1.5055    0.0000 N   0  0  0  0  0  0  0  0  0  0  0  0
   12.0538    3.4519    0.0000 N   0  0  0  0  0  0  0  0  0  0  0  0
    2.8641    1.4854    0.0000 N   0  3  0  0  0  0  0  0  0  0  0  0
   10.7238   -3.0396    0.0000 C   0  0  1  0  0  0  0  0  0  0  0  0
    9.8578   -3.5396    0.0000 C   0  0  0  0  0  0  0  0  0  0  0  0
   11.5898   -3.5396    0.0000 C   0  0  0  0  0  0  0  0  0  0  0  0
    8.9397   -1.9912    0.0000 C   0  0  1  0  0  0  0  0  0  0  0  0
    9.8418   -1.4704    0.0000 C   0  0  0  0  0  0  0  0  0  0  0  0
   11.5898   -4.5396    0.0000 C   0  0  0  0  0  0  0  0  0  0  0  0
    9.8578   -4.5396    0.0000 C   0  0  0  0  0  0  0  0  0  0  0  0
   10.7238   -5.0396    0.0000 C   0  0  0  0  0  0  0  0  0  0  0  0
    8.9477   -3.0328    0.0000 C   0  0  0  0  0  0  0  0  0  0  0  0
   10.7398   -6.0811    0.0000 C   0  0  0  0  0  0  0  0  0  0  0  0
   11.6116   -1.5082    0.0000 C   0  0  0  0  0  0  0  0  0  0  0  0
   12.2077   -5.3180    0.0000 C   0  0  0  0  0  0  0  0  0  0  0  0
    8.0718   -1.4945    0.0000 C   0  0  0  0  0  0  0  0  0  0  0  0
    8.9477   -5.0465    0.0000 C   0  0  0  0  0  0  0  0  0  0  0  0
    9.8418   -6.6089    0.0000 C   0  0  0  0  0  0  0  0  0  0  0  0
    8.9397   -6.0881    0.0000 C   0  0  0  0  0  0  0  0  0  0  0  0
    7.2000    0.0021    0.0000 C   0  0  2  0  0  0  0  0  0  0  0  0
    8.0564    2.5055    0.0000 C   0  0  1  0  0  0  0  0  0  0  0  0
   10.4054    3.9836    0.0000 C   0  0  1  0  0  0  0  0  0  0  0  0
   10.6109    4.9562    0.0000 C   0  0  0  0  0  0  0  0  0  0  0  0
    7.1884    3.0021    0.0000 C   0  0  0  0  0  0  0  0  0  0  0  0
    8.9204    3.0088    0.0000 C   0  0  0  0  0  0  0  0  0  0  0  0
    9.0085    4.7830    0.0000 C   0  0  0  0  0  0  0  0  0  0  0  0
    9.7502    5.4537    0.0000 C   0  0  0  0  0  0  0  0  0  0  0  0
    7.1961    1.0021    0.0000 C   0  0  0  0  0  0  0  0  0  0  0  0
    6.3359   -0.5012    0.0000 C   0  0  0  0  0  0  0  0  0  0  0  0
   11.0761    3.2419    0.0000 C   0  0  0  0  0  0  0  0  0  0  0  0
    6.6851    3.8662    0.0000 C   0  0  0  0  0  0  0  0  0  0  0  0
    6.3243    2.4988    0.0000 C   0  0  0  0  0  0  0  0  0  0  0  0
    8.0568    5.0900    0.0000 C   0  0  0  0  0  0  0  0  0  0  0  0
    9.5402    6.4314    0.0000 C   0  0  0  0  0  0  0  0  0  0  0  0
    5.4679   -0.0045    0.0000 C   0  0  0  0  0  0  0  0  0  0  0  0
    7.8468    6.0677    0.0000 C   0  0  0  0  0  0  0  0  0  0  0  0
    8.5885    6.7384    0.0000 C   0  0  0  0  0  0  0  0  0  0  0  0
    4.6038   -0.5079    0.0000 C   0  0  0  0  0  0  0  0  0  0  0  0
    5.4641    0.9955    0.0000 C   0  0  0  0  0  0  0  0  0  0  0  0
    3.7359   -0.0112    0.0000 C   0  0  0  0  0  0  0  0  0  0  0  0
    4.5961    1.4921    0.0000 C   0  0  0  0  0  0  0  0  0  0  0  0
    3.7320    0.9888    0.0000 C   0  0  0  0  0  0  0  0  0  0  0  0
   11.4631   -2.6203    0.0000 H   0  0  0  0  0  0  0  0  0  0  0  0
   12.2004   -3.6473    0.0000 H   0  0  0  0  0  0  0  0  0  0  0  0
   11.8018   -2.9570    0.0000 H   0  0  0  0  0  0  0  0  0  0  0  0
    8.9385   -1.3712    0.0000 H   0  0  0  0  0  0  0  0  0  0  0  0
   10.2428   -0.9975    0.0000 H   0  0  0  0  0  0  0  0  0  0  0  0
    9.4445   -0.9944    0.0000 H   0  0  0  0  0  0  0  0  0  0  0  0
    8.4144   -3.3490    0.0000 H   0  0  0  0  0  0  0  0  0  0  0  0
   11.9154   -2.0486    0.0000 H   0  0  0  0  0  0  0  0  0  0  0  0
   12.1521   -1.2044    0.0000 H   0  0  0  0  0  0  0  0  0  0  0  0
   11.3078   -0.9677    0.0000 H   0  0  0  0  0  0  0  0  0  0  0  0
   12.8256   -5.2662    0.0000 H   0  0  0  0  0  0  0  0  0  0  0  0
    8.4144   -4.7303    0.0000 H   0  0  0  0  0  0  0  0  0  0  0  0
   12.0139   -6.7384    0.0000 H   0  0  0  0  0  0  0  0  0  0  0  0
    9.8442   -7.2289    0.0000 H   0  0  0  0  0  0  0  0  0  0  0  0
    8.6036   -0.1825    0.0000 H   0  0  0  0  0  0  0  0  0  0  0  0
    7.2024   -0.6179    0.0000 H   0  0  0  0  0  0  0  0  0  0  0  0
    8.4016   -6.3960    0.0000 H   0  0  0  0  0  0  0  0  0  0  0  0
    7.5206    2.1934    0.0000 H   0  0  0  0  0  0  0  0  0  0  0  0
   10.1847    3.4042    0.0000 H   0  0  0  0  0  0  0  0  0  0  0  0
   11.2007    4.7650    0.0000 H   0  0  0  0  0  0  0  0  0  0  0  0
   10.8630    5.5226    0.0000 H   0  0  0  0  0  0  0  0  0  0  0  0
    7.6251    3.4422    0.0000 H   0  0  0  0  0  0  0  0  0  0  0  0
    8.5983    1.1975    0.0000 H   0  0  0  0  0  0  0  0  0  0  0  0
    5.9392   -0.9777    0.0000 H   0  0  0  0  0  0  0  0  0  0  0  0
    6.7362   -0.9746    0.0000 H   0  0  0  0  0  0  0  0  0  0  0  0
    7.2208    4.1783    0.0000 H   0  0  0  0  0  0  0  0  0  0  0  0
    6.3730    4.4019    0.0000 H   0  0  0  0  0  0  0  0  0  0  0  0
    6.1493    3.5541    0.0000 H   0  0  0  0  0  0  0  0  0  0  0  0
    6.0122    3.0345    0.0000 H   0  0  0  0  0  0  0  0  0  0  0  0
    5.7886    2.1867    0.0000 H   0  0  0  0  0  0  0  0  0  0  0  0
    6.6364    1.9630    0.0000 H   0  0  0  0  0  0  0  0  0  0  0  0
    7.5969    4.6741    0.0000 H   0  0  0  0  0  0  0  0  0  0  0  0
   10.0001    6.8472    0.0000 H   0  0  0  0  0  0  0  0  0  0  0  0
    7.2567    6.2580    0.0000 H   0  0  0  0  0  0  0  0  0  0  0  0
    8.4583    7.3445    0.0000 H   0  0  0  0  0  0  0  0  0  0  0  0
   12.2442    4.0419    0.0000 H   0  0  0  0  0  0  0  0  0  0  0  0
   12.4697    2.9920    0.0000 H   0  0  0  0  0  0  0  0  0  0  0  0
    4.6062   -1.1279    0.0000 H   0  0  0  0  0  0  0  0  0  0  0  0
    5.9998    1.3075    0.0000 H   0  0  0  0  0  0  0  0  0  0  0  0
    3.2002   -0.3233    0.0000 H   0  0  0  0  0  0  0  0  0  0  0  0
    4.5937    2.1121    0.0000 H   0  0  0  0  0  0  0  0  0  0  0  0
  1 26  2  0  0  0  0
  2 35  2  0  0  0  0
  3 38  2  0  0  0  0
  4 40  2  0  0  0  0
  5 13  1  0  0  0  0
  6 13  2  0  0  0  0
  7 14  1  0  0  0  0
  7 18  1  0  0  0  0
  7 24  1  0  0  0  0
  8 23  1  0  0  0  0
  8 25  1  0  0  0  0
  8 65  1  0  0  0  0
  9 26  1  0  0  0  0
 30  9  1  1  0  0  0
  9 67  1  0  0  0  0
 10 32  1  0  0  0  0
 10 35  1  0  0  0  0
 10 36  1  0  0  0  0
 31 11  1  1  0  0  0
 11 38  1  0  0  0  0
 11 75  1  0  0  0  0
 12 40  1  0  0  0  0
 12 88  1  0  0  0  0
 12 89  1  0  0  0  0
 13 52  1  0  0  0  0
 14 15  1  0  0  0  0
 14 16  1  0  0  0  0
 14 53  1  1  0  0  0
 15 20  1  0  0  0  0
 15 22  2  0  0  0  0
 16 19  1  0  0  0  0
 16 54  1  0  0  0  0
 16 55  1  0  0  0  0
 17 18  1  0  0  0  0
 17 22  1  0  0  0  0
 17 26  1  1  0  0  0
 17 56  1  0  0  0  0
 18 57  1  0  0  0  0
 18 58  1  0  0  0  0
 19 21  1  0  0  0  0
 19 25  2  0  0  0  0
 20 21  2  0  0  0  0
 20 27  1  0  0  0  0
 21 23  1  0  0  0  0
 22 59  1  0  0  0  0
 23 28  2  0  0  0  0
 24 60  1  0  0  0  0
 24 61  1  0  0  0  0
 24 62  1  0  0  0  0
 25 63  1  0  0  0  0
 27 29  2  0  0  0  0
 27 64  1  0  0  0  0
 28 29  1  0  0  0  0
 28 66  1  0  0  0  0
 29 69  1  0  0  0  0
 30 38  1  0  0  0  0
 30 39  1  0  0  0  0
 30 68  1  0  0  0  0
 31 34  1  0  0  0  0
 31 35  1  0  0  0  0
 31 70  1  0  0  0  0
 32 33  1  0  0  0  0
 32 40  1  1  0  0  0
 32 71  1  0  0  0  0
 33 37  1  0  0  0  0
 33 72  1  0  0  0  0
 33 73  1  0  0  0  0
 34 41  1  0  0  0  0
 34 42  1  0  0  0  0
 34 74  1  0  0  0  0
 36 37  1  0  0  0  0
 36 43  2  0  0  0  0
 37 44  2  0  0  0  0
 39 45  1  0  0  0  0
 39 76  1  0  0  0  0
 39 77  1  0  0  0  0
 41 78  1  0  0  0  0
 41 79  1  0  0  0  0
 41 80  1  0  0  0  0
 42 81  1  0  0  0  0
 42 82  1  0  0  0  0
 42 83  1  0  0  0  0
 43 46  1  0  0  0  0
 43 84  1  0  0  0  0
 44 47  1  0  0  0  0
 44 85  1  0  0  0  0
 45 48  2  0  0  0  0
 45 49  1  0  0  0  0
 46 47  2  0  0  0  0
 46 86  1  0  0  0  0
 47 87  1  0  0  0  0
 48 50  1  0  0  0  0
 48 90  1  0  0  0  0
 49 51  2  0  0  0  0
 49 91  1  0  0  0  0
 50 52  2  0  0  0  0
 50 92  1  0  0  0  0
 51 52  1  0  0  0  0
 51 93  1  0  0  0  0
M  CHG  2   5  -1  13   1
M  END
> <PUBCHEM_COMPOUND_CID>
16732894

> <PUBCHEM_COMPOUND_CANONICALIZED>
1

> <PUBCHEM_CACTVS_COMPLEXITY>
1420

> <PUBCHEM_CACTVS_HBOND_ACCEPTOR>
7

> <PUBCHEM_CACTVS_HBOND_DONOR>
4

> <PUBCHEM_CACTVS_ROTATABLE_BOND>
9

> <PUBCHEM_CACTVS_SUBSKEYS>
AAADcfB/uAAAAAAAAAAAAAAAAAAAAWLAAAAwYMGCAAAAAFjB9AAAHgAUAAAADSjBngQ+wPPZ0ACpAzV3VwCCgCAxAiAo2aG4ZJoIYPrA0bGUIAhglgDIyAcYicCeiAAAQAASAAAQAASAACQAAAAAAAAAAA==

> <PUBCHEM_IUPAC_OPENEYE_NAME>
(6aR,9R)-N-[(1S)-2-[[(1S)-1-[(2S)-2-carbamoylindoline-1-carbonyl]-2-methyl-propyl]amino]-1-[(4-nitrophenyl)methyl]-2-oxo-ethyl]-7-methyl-6,6a,8,9-tetrahydro-4H-indolo[4,3-fg]quinoline-9-carboxamide

> <PUBCHEM_IUPAC_CAS_NAME>
(6aR,9R)-N-[(2S)-1-[[(2S)-1-[(2S)-2-carbamoyl-2,3-dihydroindol-1-yl]-3-methyl-1-oxobutan-2-yl]amino]-3-(4-nitrophenyl)-1-oxopropan-2-yl]-7-methyl-6,6a,8,9-tetrahydro-4H-indolo[4,3-fg]quinoline-9-carboxamide

> <PUBCHEM_IUPAC_NAME_MARKUP>
(6<I>a</I><I>R</I>,9<I>R</I>)-<I>N</I>-[(2<I>S</I>)-1-[[(2<I>S</I>)-1-[(2<I>S</I>)-2-carbamoyl-2,3-dihydroindol-1-yl]-3-methyl-1-oxobutan-2-yl]amino]-3-(4-nitrophenyl)-1-oxopropan-2-yl]-7-methyl-6,6<I>a</I>,8,9-tetrahydro-4<I>H</I>-indolo[4,3-fg]quinoline-9-carboxamide

> <PUBCHEM_IUPAC_NAME>
(6aR,9R)-N-[(2S)-1-[[(2S)-1-[(2S)-2-carbamoyl-2,3-dihydroindol-1-yl]-3-methyl-1-oxobutan-2-yl]amino]-3-(4-nitrophenyl)-1-oxopropan-2-yl]-7-methyl-6,6a,8,9-tetrahydro-4H-indolo[4,3-fg]quinoline-9-carboxamide

> <PUBCHEM_IUPAC_SYSTEMATIC_NAME>
(6aR,9R)-N-[(2S)-1-[[(2S)-1-[(2S)-2-aminocarbonyl-2,3-dihydroindol-1-yl]-3-methyl-1-oxidanylidene-butan-2-yl]amino]-3-(4-nitrophenyl)-1-oxidanylidene-propan-2-yl]-7-methyl-6,6a,8,9-tetrahydro-4H-indolo[4,3-fg]quinoline-9-carboxamide

> <PUBCHEM_IUPAC_TRADITIONAL_NAME>
(6aR,9R)-N-[(1S)-2-[[(1S)-1-[(2S)-2-carbamoylindoline-1-carbonyl]-2-methyl-propyl]amino]-2-keto-1-(4-nitrobenzyl)ethyl]-7-methyl-6,6a,8,9-tetrahydro-4H-indolo[4,3-fg]quinoline-9-carboxamide

> <PUBCHEM_IUPAC_INCHI>
InChI=1S/C39H41N7O6/c1-21(2)35(39(50)45-31-10-5-4-7-23(31)17-33(45)36(40)47)43-38(49)30(15-22-11-13-26(14-12-22)46(51)52)42-37(48)25-16-28-27-8-6-9-29-34(27)24(19-41-29)18-32(28)44(3)20-25/h4-14,16,19,21,25,30,32-33,35,41H,15,17-18,20H2,1-3H3,(H2,40,47)(H,42,48)(H,43,49)/t25-,30+,32-,33+,35+/m1/s1

> <PUBCHEM_IUPAC_INCHIKEY>
OSBIAWPZBNFCQQ-ODNYIURZSA-N

> <PUBCHEM_XLOGP3_AA>
3.9

> <PUBCHEM_EXACT_MASS>
703.31183205

> <PUBCHEM_MOLECULAR_FORMULA>
C39H41N7O6

> <PUBCHEM_MOLECULAR_WEIGHT>
703.8

> <PUBCHEM_OPENEYE_CAN_SMILES>
CC(C)C(C(=O)N1C(CC2=CC=CC=C21)C(=O)N)NC(=O)C(CC3=CC=C(C=C3)[N+](=O)[O-])NC(=O)C4CN(C5CC6=CNC7=CC=CC(=C67)C5=C4)C

> <PUBCHEM_OPENEYE_ISO_SMILES>
CC(C)[C@@H](C(=O)N1[C@@H](CC2=CC=CC=C21)C(=O)N)NC(=O)[C@H](CC3=CC=C(C=C3)[N+](=O)[O-])NC(=O)[C@H]4CN([C@@H]5CC6=CNC7=CC=CC(=C67)C5=C4)C

> <PUBCHEM_CACTVS_TPSA>
186

> <PUBCHEM_MONOISOTOPIC_WEIGHT>
703.31183205

> <PUBCHEM_TOTAL_CHARGE>
0

> <PUBCHEM_HEAVY_ATOM_COUNT>
52

> <PUBCHEM_ATOM_DEF_STEREO_COUNT>
5

> <PUBCHEM_ATOM_UDEF_STEREO_COUNT>
0

> <PUBCHEM_BOND_DEF_STEREO_COUNT>
0

> <PUBCHEM_BOND_UDEF_STEREO_COUNT>
0

> <PUBCHEM_ISOTOPIC_ATOM_COUNT>
0

> <PUBCHEM_COMPONENT_COUNT>
1

> <PUBCHEM_CACTVS_TAUTO_COUNT>
-1

> <PUBCHEM_COORDINATE_TYPE>
1
5
255

> <PUBCHEM_BONDANNOTATIONS>
31  11  5
14  53  5
17  26  5
19  21  8
19  25  8
20  21  8
20  27  8
21  23  8
23  28  8
27  29  8
28  29  8
32  40  5
36  37  8
36  43  8
37  44  8
43  46  8
44  47  8
45  48  8
45  49  8
46  47  8
48  50  8
49  51  8
50  52  8
51  52  8
8  23  8
8  25  8
30  9  5

$$$$
