44436730
  -OEChem-09292322252D

 74 78  0     1  0  0  0  0  0999 V2000
   12.3982    0.5114    0.0000 O   0  0  0  0  0  0  0  0  0  0  0  0
    5.5549   -0.0169    0.0000 N   0  0  3  0  0  0  0  0  0  0  0  0
    7.2021    1.5114    0.0000 N   0  0  3  0  0  0  0  0  0  0  0  0
   11.5322    2.0114    0.0000 N   0  0  0  0  0  0  0  0  0  0  0  0
    6.5438   -0.1660    0.0000 C   0  0  0  0  0  0  0  0  0  0  0  0
    5.0549    0.8491    0.0000 C   0  0  0  0  0  0  0  0  0  0  0  0
    7.2768    0.5142    0.0000 C   0  0  0  0  0  0  0  0  0  0  0  0
    6.3758    2.0747    0.0000 C   0  0  0  0  0  0  0  0  0  0  0  0
    5.4203    1.7800    0.0000 C   0  0  0  0  0  0  0  0  0  0  0  0
    4.9916   -0.8432    0.0000 C   0  0  0  0  0  0  0  0  0  0  0  0
    8.0681    2.0114    0.0000 C   0  0  0  0  0  0  0  0  0  0  0  0
    8.9341    1.5114    0.0000 C   0  0  0  0  0  0  0  0  0  0  0  0
    3.9944   -0.7684    0.0000 C   0  0  0  0  0  0  0  0  0  0  0  0
    5.4255   -1.7441    0.0000 C   0  0  0  0  0  0  0  0  0  0  0  0
    9.8002    2.0114    0.0000 C   0  0  0  0  0  0  0  0  0  0  0  0
    3.5605    0.1325    0.0000 C   0  0  0  0  0  0  0  0  0  0  0  0
    6.4227   -1.8189    0.0000 C   0  0  0  0  0  0  0  0  0  0  0  0
    3.4311   -1.5947    0.0000 C   0  0  0  0  0  0  0  0  0  0  0  0
    4.8622   -2.5704    0.0000 C   0  0  0  0  0  0  0  0  0  0  0  0
   10.6662    1.5114    0.0000 C   0  0  0  0  0  0  0  0  0  0  0  0
    2.5633    0.2073    0.0000 C   0  0  0  0  0  0  0  0  0  0  0  0
    6.8566   -2.7198    0.0000 C   0  0  0  0  0  0  0  0  0  0  0  0
    2.4339   -1.5199    0.0000 C   0  0  0  0  0  0  0  0  0  0  0  0
    5.2961   -3.4713    0.0000 C   0  0  0  0  0  0  0  0  0  0  0  0
    2.0000   -0.6190    0.0000 C   0  0  0  0  0  0  0  0  0  0  0  0
    6.2933   -3.5461    0.0000 C   0  0  0  0  0  0  0  0  0  0  0  0
   12.3982    1.5114    0.0000 C   0  0  0  0  0  0  0  0  0  0  0  0
   13.2643    2.0114    0.0000 C   0  0  0  0  0  0  0  0  0  0  0  0
   14.1303    1.5114    0.0000 C   0  0  0  0  0  0  0  0  0  0  0  0
   13.2643    3.0114    0.0000 C   0  0  0  0  0  0  0  0  0  0  0  0
   14.9963    2.0114    0.0000 C   0  0  0  0  0  0  0  0  0  0  0  0
   14.9963    3.0114    0.0000 C   0  0  0  0  0  0  0  0  0  0  0  0
   14.1303    3.5114    0.0000 C   0  0  0  0  0  0  0  0  0  0  0  0
   15.8903    1.4768    0.0000 C   0  0  0  0  0  0  0  0  0  0  0  0
   15.8903    3.5461    0.0000 C   0  0  0  0  0  0  0  0  0  0  0  0
   16.7963    1.9906    0.0000 C   0  0  0  0  0  0  0  0  0  0  0  0
   16.7963    3.0322    0.0000 C   0  0  0  0  0  0  0  0  0  0  0  0
    6.3172   -0.7431    0.0000 H   0  0  0  0  0  0  0  0  0  0  0  0
    7.0560   -0.5152    0.0000 H   0  0  0  0  0  0  0  0  0  0  0  0
    4.5427    1.1984    0.0000 H   0  0  0  0  0  0  0  0  0  0  0  0
    4.6004    0.4274    0.0000 H   0  0  0  0  0  0  0  0  0  0  0  0
    7.5868   -0.0227    0.0000 H   0  0  0  0  0  0  0  0  0  0  0  0
    7.8693    0.6970    0.0000 H   0  0  0  0  0  0  0  0  0  0  0  0
    6.8303    2.4964    0.0000 H   0  0  0  0  0  0  0  0  0  0  0  0
    6.0658    2.6117    0.0000 H   0  0  0  0  0  0  0  0  0  0  0  0
    5.3739    2.3982    0.0000 H   0  0  0  0  0  0  0  0  0  0  0  0
    4.8072    1.8724    0.0000 H   0  0  0  0  0  0  0  0  0  0  0  0
    4.7226   -0.2846    0.0000 H   0  0  0  0  0  0  0  0  0  0  0  0
    8.4666    2.4864    0.0000 H   0  0  0  0  0  0  0  0  0  0  0  0
    7.6696    2.4864    0.0000 H   0  0  0  0  0  0  0  0  0  0  0  0
    8.5356    1.0365    0.0000 H   0  0  0  0  0  0  0  0  0  0  0  0
    9.3327    1.0365    0.0000 H   0  0  0  0  0  0  0  0  0  0  0  0
   10.1987    2.4864    0.0000 H   0  0  0  0  0  0  0  0  0  0  0  0
    9.4016    2.4864    0.0000 H   0  0  0  0  0  0  0  0  0  0  0  0
    3.9098    0.6448    0.0000 H   0  0  0  0  0  0  0  0  0  0  0  0
    6.7720   -1.3066    0.0000 H   0  0  0  0  0  0  0  0  0  0  0  0
    3.7001   -2.1533    0.0000 H   0  0  0  0  0  0  0  0  0  0  0  0
    4.2439   -2.5240    0.0000 H   0  0  0  0  0  0  0  0  0  0  0  0
   10.2677    1.0365    0.0000 H   0  0  0  0  0  0  0  0  0  0  0  0
   11.0647    1.0365    0.0000 H   0  0  0  0  0  0  0  0  0  0  0  0
    2.2943    0.7659    0.0000 H   0  0  0  0  0  0  0  0  0  0  0  0
    7.4748   -2.7662    0.0000 H   0  0  0  0  0  0  0  0  0  0  0  0
    2.0846   -2.0322    0.0000 H   0  0  0  0  0  0  0  0  0  0  0  0
    4.9468   -3.9836    0.0000 H   0  0  0  0  0  0  0  0  0  0  0  0
   11.5322    2.6314    0.0000 H   0  0  0  0  0  0  0  0  0  0  0  0
    1.3817   -0.5726    0.0000 H   0  0  0  0  0  0  0  0  0  0  0  0
    6.5623   -4.1047    0.0000 H   0  0  0  0  0  0  0  0  0  0  0  0
   14.1303    0.8914    0.0000 H   0  0  0  0  0  0  0  0  0  0  0  0
   12.7273    3.3214    0.0000 H   0  0  0  0  0  0  0  0  0  0  0  0
   14.1303    4.1314    0.0000 H   0  0  0  0  0  0  0  0  0  0  0  0
   15.8831    0.8568    0.0000 H   0  0  0  0  0  0  0  0  0  0  0  0
   15.8831    4.1660    0.0000 H   0  0  0  0  0  0  0  0  0  0  0  0
   17.3321    1.6785    0.0000 H   0  0  0  0  0  0  0  0  0  0  0  0
   17.3321    3.3443    0.0000 H   0  0  0  0  0  0  0  0  0  0  0  0
  1 27  2  0  0  0  0
  2  5  1  0  0  0  0
  2  6  1  0  0  0  0
  2 10  1  0  0  0  0
  3  7  1  0  0  0  0
  3  8  1  0  0  0  0
  3 11  1  0  0  0  0
  4 20  1  0  0  0  0
  4 27  1  0  0  0  0
  4 65  1  0  0  0  0
  5  7  1  0  0  0  0
  5 38  1  0  0  0  0
  5 39  1  0  0  0  0
  6  9  1  0  0  0  0
  6 40  1  0  0  0  0
  6 41  1  0  0  0  0
  7 42  1  0  0  0  0
  7 43  1  0  0  0  0
  8  9  1  0  0  0  0
  8 44  1  0  0  0  0
  8 45  1  0  0  0  0
  9 46  1  0  0  0  0
  9 47  1  0  0  0  0
 10 13  1  0  0  0  0
 10 14  1  0  0  0  0
 10 48  1  0  0  0  0
 11 12  1  0  0  0  0
 11 49  1  0  0  0  0
 11 50  1  0  0  0  0
 12 15  1  0  0  0  0
 12 51  1  0  0  0  0
 12 52  1  0  0  0  0
 13 16  2  0  0  0  0
 13 18  1  0  0  0  0
 14 17  2  0  0  0  0
 14 19  1  0  0  0  0
 15 20  1  0  0  0  0
 15 53  1  0  0  0  0
 15 54  1  0  0  0  0
 16 21  1  0  0  0  0
 16 55  1  0  0  0  0
 17 22  1  0  0  0  0
 17 56  1  0  0  0  0
 18 23  2  0  0  0  0
 18 57  1  0  0  0  0
 19 24  2  0  0  0  0
 19 58  1  0  0  0  0
 20 59  1  0  0  0  0
 20 60  1  0  0  0  0
 21 25  2  0  0  0  0
 21 61  1  0  0  0  0
 22 26  2  0  0  0  0
 22 62  1  0  0  0  0
 23 25  1  0  0  0  0
 23 63  1  0  0  0  0
 24 26  1  0  0  0  0
 24 64  1  0  0  0  0
 25 66  1  0  0  0  0
 26 67  1  0  0  0  0
 27 28  1  0  0  0  0
 28 29  2  0  0  0  0
 28 30  1  0  0  0  0
 29 31  1  0  0  0  0
 29 68  1  0  0  0  0
 30 33  2  0  0  0  0
 30 69  1  0  0  0  0
 31 32  1  0  0  0  0
 31 34  2  0  0  0  0
 32 33  1  0  0  0  0
 32 35  2  0  0  0  0
 33 70  1  0  0  0  0
 34 36  1  0  0  0  0
 34 71  1  0  0  0  0
 35 37  1  0  0  0  0
 35 72  1  0  0  0  0
 36 37  2  0  0  0  0
 36 73  1  0  0  0  0
 37 74  1  0  0  0  0
M  END
> <PUBCHEM_COMPOUND_CID>
44436730

> <PUBCHEM_COMPOUND_CANONICALIZED>
1

> <PUBCHEM_CACTVS_COMPLEXITY>
653

> <PUBCHEM_CACTVS_HBOND_ACCEPTOR>
3

> <PUBCHEM_CACTVS_HBOND_DONOR>
1

> <PUBCHEM_CACTVS_ROTATABLE_BOND>
9

> <PUBCHEM_CACTVS_SUBSKEYS>
AAADcfB/IAAAAAAAAAAAAAAAAAAAAAAAAAAwYMGABYAAAADBVAAAHgAQAAAADCjBmAQwAMPAAACIAiFSEACCAAAkAAAIiIEIBMgIYDKA1RGUIQhglgCIiYcYiMCOwAACAAAQAACAAAQAACAAAAAAAAAAAA==

> <PUBCHEM_IUPAC_OPENEYE_NAME>
N-[4-(4-benzhydryl-1,4-diazepan-1-yl)butyl]naphthalene-2-carboxamide

> <PUBCHEM_IUPAC_CAS_NAME>
N-[4-[4-(diphenylmethyl)-1,4-diazepan-1-yl]butyl]-2-naphthalenecarboxamide

> <PUBCHEM_IUPAC_NAME_MARKUP>
<I>N</I>-[4-(4-benzhydryl-1,4-diazepan-1-yl)butyl]naphthalene-2-carboxamide

> <PUBCHEM_IUPAC_NAME>
N-[4-(4-benzhydryl-1,4-diazepan-1-yl)butyl]naphthalene-2-carboxamide

> <PUBCHEM_IUPAC_SYSTEMATIC_NAME>
N-[4-[4-(diphenylmethyl)-1,4-diazepan-1-yl]butyl]naphthalene-2-carboxamide

> <PUBCHEM_IUPAC_TRADITIONAL_NAME>
N-[4-(4-benzhydryl-1,4-diazepan-1-yl)butyl]-2-naphthamide

> <PUBCHEM_IUPAC_INCHI>
InChI=1S/C33H37N3O/c37-33(31-19-18-27-12-7-8-17-30(27)26-31)34-20-9-10-21-35-22-11-23-36(25-24-35)32(28-13-3-1-4-14-28)29-15-5-2-6-16-29/h1-8,12-19,26,32H,9-11,20-25H2,(H,34,37)

> <PUBCHEM_IUPAC_INCHIKEY>
LDYSMWZYEMTWHM-UHFFFAOYSA-N

> <PUBCHEM_XLOGP3_AA>
6.6

> <PUBCHEM_EXACT_MASS>
491.293662812

> <PUBCHEM_MOLECULAR_FORMULA>
C33H37N3O

> <PUBCHEM_MOLECULAR_WEIGHT>
491.7

> <PUBCHEM_OPENEYE_CAN_SMILES>
C1CN(CCN(C1)C(C2=CC=CC=C2)C3=CC=CC=C3)CCCCNC(=O)C4=CC5=CC=CC=C5C=C4

> <PUBCHEM_OPENEYE_ISO_SMILES>
C1CN(CCN(C1)C(C2=CC=CC=C2)C3=CC=CC=C3)CCCCNC(=O)C4=CC5=CC=CC=C5C=C4

> <PUBCHEM_CACTVS_TPSA>
35.6

> <PUBCHEM_MONOISOTOPIC_WEIGHT>
491.293662812

> <PUBCHEM_TOTAL_CHARGE>
0

> <PUBCHEM_HEAVY_ATOM_COUNT>
37

> <PUBCHEM_ATOM_DEF_STEREO_COUNT>
0

> <PUBCHEM_ATOM_UDEF_STEREO_COUNT>
0

> <PUBCHEM_BOND_DEF_STEREO_COUNT>
0

> <PUBCHEM_BOND_UDEF_STEREO_COUNT>
0

> <PUBCHEM_ISOTOPIC_ATOM_COUNT>
0

> <PUBCHEM_COMPONENT_COUNT>
1

> <PUBCHEM_CACTVS_TAUTO_COUNT>
-1

> <PUBCHEM_COORDINATE_TYPE>
1
5
255

> <PUBCHEM_BONDANNOTATIONS>
13  16  8
13  18  8
14  17  8
14  19  8
16  21  8
17  22  8
18  23  8
19  24  8
21  25  8
22  26  8
23  25  8
24  26  8
28  29  8
28  30  8
29  31  8
30  33  8
31  32  8
31  34  8
32  33  8
32  35  8
34  36  8
35  37  8
36  37  8

$$$$
