122178765
  -OEChem-09292322082D

 64 68  0     1  0  0  0  0  0999 V2000
    4.6828   -0.0650    0.0000 O   0  0  0  0  0  0  0  0  0  0  0  0
   10.1433    2.6152    0.0000 N   0  0  3  0  0  0  0  0  0  0  0  0
    6.0370   -1.1449    0.0000 N   0  0  0  0  0  0  0  0  0  0  0  0
    3.4316   -1.7322    0.0000 N   0  0  0  0  0  0  0  0  0  0  0  0
    7.9074    1.2006    0.0000 C   0  0  0  0  0  0  0  0  0  0  0  0
    8.2728    0.2697    0.0000 C   0  0  0  0  0  0  0  0  0  0  0  0
    6.9186    1.3496    0.0000 C   0  0  0  0  0  0  0  0  0  0  0  0
    6.6605   -0.3631    0.0000 C   0  0  0  0  0  0  0  0  0  0  0  0
    7.6493   -0.5121    0.0000 C   0  0  0  0  0  0  0  0  0  0  0  0
    6.2951    0.5678    0.0000 C   0  0  0  0  0  0  0  0  0  0  0  0
    8.5309    1.9824    0.0000 C   0  0  0  0  0  0  0  0  0  0  0  0
    9.5198    1.8334    0.0000 C   0  0  0  0  0  0  0  0  0  0  0  0
    9.7094    3.5162    0.0000 C   0  0  0  0  0  0  0  0  0  0  0  0
   11.1182    2.3927    0.0000 C   0  0  0  0  0  0  0  0  0  0  0  0
   10.1433    4.4172    0.0000 C   0  0  0  0  0  0  0  0  0  0  0  0
   11.9000    3.0162    0.0000 C   0  0  0  0  0  0  0  0  0  0  0  0
   11.1182    4.6397    0.0000 C   0  0  0  0  0  0  0  0  0  0  0  0
   11.9000    4.0162    0.0000 C   0  0  0  0  0  0  0  0  0  0  0  0
    5.0482   -0.9959    0.0000 C   0  0  0  0  0  0  0  0  0  0  0  0
    4.4247   -1.7777    0.0000 C   0  0  0  0  0  0  0  0  0  0  0  0
   12.7940    2.4815    0.0000 C   0  0  0  0  0  0  0  0  0  0  0  0
   12.7940    4.5508    0.0000 C   0  0  0  0  0  0  0  0  0  0  0  0
   13.7000    2.9954    0.0000 C   0  0  0  0  0  0  0  0  0  0  0  0
   13.7000    4.0370    0.0000 C   0  0  0  0  0  0  0  0  0  0  0  0
    4.6900   -2.7357    0.0000 C   0  0  0  0  0  0  0  0  0  0  0  0
    3.0799   -2.6620    0.0000 C   0  0  0  0  0  0  0  0  0  0  0  0
    3.8618   -3.2855    0.0000 C   0  0  0  0  0  0  0  0  0  0  0  0
    2.1490   -3.0274    0.0000 C   0  0  0  0  0  0  0  0  0  0  0  0
    3.7127   -4.2743    0.0000 C   0  0  0  0  0  0  0  0  0  0  0  0
    2.0000   -4.0162    0.0000 C   0  0  0  0  0  0  0  0  0  0  0  0
    2.7818   -4.6397    0.0000 C   0  0  0  0  0  0  0  0  0  0  0  0
    8.5205    1.1082    0.0000 H   0  0  0  0  0  0  0  0  0  0  0  0
    8.6830   -0.1951    0.0000 H   0  0  0  0  0  0  0  0  0  0  0  0
    8.8018    0.5930    0.0000 H   0  0  0  0  0  0  0  0  0  0  0  0
    7.1161    1.9374    0.0000 H   0  0  0  0  0  0  0  0  0  0  0  0
    6.3741    1.6462    0.0000 H   0  0  0  0  0  0  0  0  0  0  0  0
    6.0474   -0.2707    0.0000 H   0  0  0  0  0  0  0  0  0  0  0  0
    7.4518   -1.0998    0.0000 H   0  0  0  0  0  0  0  0  0  0  0  0
    8.1938   -0.8086    0.0000 H   0  0  0  0  0  0  0  0  0  0  0  0
    5.8849    1.0327    0.0000 H   0  0  0  0  0  0  0  0  0  0  0  0
    5.7661    0.2445    0.0000 H   0  0  0  0  0  0  0  0  0  0  0  0
    8.7284    2.5701    0.0000 H   0  0  0  0  0  0  0  0  0  0  0  0
    7.9864    2.2789    0.0000 H   0  0  0  0  0  0  0  0  0  0  0  0
    9.3223    1.2457    0.0000 H   0  0  0  0  0  0  0  0  0  0  0  0
   10.0643    1.5369    0.0000 H   0  0  0  0  0  0  0  0  0  0  0  0
    6.2635   -1.7220    0.0000 H   0  0  0  0  0  0  0  0  0  0  0  0
    9.2246    3.9028    0.0000 H   0  0  0  0  0  0  0  0  0  0  0  0
    9.2246    3.1296    0.0000 H   0  0  0  0  0  0  0  0  0  0  0  0
   10.8492    1.8341    0.0000 H   0  0  0  0  0  0  0  0  0  0  0  0
   11.6029    2.0061    0.0000 H   0  0  0  0  0  0  0  0  0  0  0  0
   10.1433    5.0371    0.0000 H   0  0  0  0  0  0  0  0  0  0  0  0
    9.5388    4.5551    0.0000 H   0  0  0  0  0  0  0  0  0  0  0  0
   11.6029    5.0262    0.0000 H   0  0  0  0  0  0  0  0  0  0  0  0
   10.8492    5.1983    0.0000 H   0  0  0  0  0  0  0  0  0  0  0  0
   12.7868    1.8616    0.0000 H   0  0  0  0  0  0  0  0  0  0  0  0
   12.7868    5.1708    0.0000 H   0  0  0  0  0  0  0  0  0  0  0  0
   14.2358    2.6833    0.0000 H   0  0  0  0  0  0  0  0  0  0  0  0
   14.2358    4.3491    0.0000 H   0  0  0  0  0  0  0  0  0  0  0  0
    3.0910   -1.2142    0.0000 H   0  0  0  0  0  0  0  0  0  0  0  0
    5.2708   -2.9526    0.0000 H   0  0  0  0  0  0  0  0  0  0  0  0
    1.6643   -2.6408    0.0000 H   0  0  0  0  0  0  0  0  0  0  0  0
    4.1974   -4.6609    0.0000 H   0  0  0  0  0  0  0  0  0  0  0  0
    1.4229   -4.2427    0.0000 H   0  0  0  0  0  0  0  0  0  0  0  0
    2.6894   -5.2528    0.0000 H   0  0  0  0  0  0  0  0  0  0  0  0
  1 19  2  0  0  0  0
  2 12  1  0  0  0  0
  2 13  1  0  0  0  0
  2 14  1  0  0  0  0
  3  8  1  0  0  0  0
  3 19  1  0  0  0  0
  3 46  1  0  0  0  0
  4 20  1  0  0  0  0
  4 26  1  0  0  0  0
  4 59  1  0  0  0  0
  5  6  1  0  0  0  0
  5  7  1  0  0  0  0
  5 11  1  0  0  0  0
  5 32  1  0  0  0  0
  6  9  1  0  0  0  0
  6 33  1  0  0  0  0
  6 34  1  0  0  0  0
  7 10  1  0  0  0  0
  7 35  1  0  0  0  0
  7 36  1  0  0  0  0
  8  9  1  0  0  0  0
  8 10  1  0  0  0  0
  8 37  1  0  0  0  0
  9 38  1  0  0  0  0
  9 39  1  0  0  0  0
 10 40  1  0  0  0  0
 10 41  1  0  0  0  0
 11 12  1  0  0  0  0
 11 42  1  0  0  0  0
 11 43  1  0  0  0  0
 12 44  1  0  0  0  0
 12 45  1  0  0  0  0
 13 15  1  0  0  0  0
 13 47  1  0  0  0  0
 13 48  1  0  0  0  0
 14 16  1  0  0  0  0
 14 49  1  0  0  0  0
 14 50  1  0  0  0  0
 15 17  1  0  0  0  0
 15 51  1  0  0  0  0
 15 52  1  0  0  0  0
 16 18  1  0  0  0  0
 16 21  2  0  0  0  0
 17 18  1  0  0  0  0
 17 53  1  0  0  0  0
 17 54  1  0  0  0  0
 18 22  2  0  0  0  0
 19 20  1  0  0  0  0
 20 25  2  0  0  0  0
 21 23  1  0  0  0  0
 21 55  1  0  0  0  0
 22 24  1  0  0  0  0
 22 56  1  0  0  0  0
 23 24  2  0  0  0  0
 23 57  1  0  0  0  0
 24 58  1  0  0  0  0
 25 27  1  0  0  0  0
 25 60  1  0  0  0  0
 26 27  1  0  0  0  0
 26 28  2  0  0  0  0
 27 29  2  0  0  0  0
 28 30  1  0  0  0  0
 28 61  1  0  0  0  0
 29 31  1  0  0  0  0
 29 62  1  0  0  0  0
 30 31  2  0  0  0  0
 30 63  1  0  0  0  0
 31 64  1  0  0  0  0
M  END
> <PUBCHEM_COMPOUND_CID>
122178765

> <PUBCHEM_COMPOUND_CANONICALIZED>
1

> <PUBCHEM_CACTVS_COMPLEXITY>
587

> <PUBCHEM_CACTVS_HBOND_ACCEPTOR>
2

> <PUBCHEM_CACTVS_HBOND_DONOR>
2

> <PUBCHEM_CACTVS_ROTATABLE_BOND>
5

> <PUBCHEM_CACTVS_SUBSKEYS>
AAADcfB7IAAAAAAAAAAAAAAAAAAAAWAAAAAwYMAABYAAAFgB9AAAHgAQAAAADSjBngQwwPPJkACoAyVyVACCgCAnAiAImaG4ZNgIYPLAlbGUIQhglgDIyYcYiYCegAAAAAASAAAQAAAAACQAAAAAAAAAAA==

> <PUBCHEM_IUPAC_OPENEYE_NAME>
N-[4-[2-(1,3,4,5-tetrahydro-2-benzazepin-2-yl)ethyl]cyclohexyl]-1H-indole-2-carboxamide

> <PUBCHEM_IUPAC_CAS_NAME>
N-[4-[2-(1,3,4,5-tetrahydro-2-benzazepin-2-yl)ethyl]cyclohexyl]-1H-indole-2-carboxamide

> <PUBCHEM_IUPAC_NAME_MARKUP>
<I>N</I>-[4-[2-(1,3,4,5-tetrahydro-2-benzazepin-2-yl)ethyl]cyclohexyl]-1<I>H</I>-indole-2-carboxamide

> <PUBCHEM_IUPAC_NAME>
N-[4-[2-(1,3,4,5-tetrahydro-2-benzazepin-2-yl)ethyl]cyclohexyl]-1H-indole-2-carboxamide

> <PUBCHEM_IUPAC_SYSTEMATIC_NAME>
N-[4-[2-(1,3,4,5-tetrahydro-2-benzazepin-2-yl)ethyl]cyclohexyl]-1H-indole-2-carboxamide

> <PUBCHEM_IUPAC_TRADITIONAL_NAME>
N-[4-[2-(1,3,4,5-tetrahydro-2-benzazepin-2-yl)ethyl]cyclohexyl]-1H-indole-2-carboxamide

> <PUBCHEM_IUPAC_INCHI>
InChI=1S/C27H33N3O/c31-27(26-18-22-7-3-4-10-25(22)29-26)28-24-13-11-20(12-14-24)15-17-30-16-5-9-21-6-1-2-8-23(21)19-30/h1-4,6-8,10,18,20,24,29H,5,9,11-17,19H2,(H,28,31)

> <PUBCHEM_IUPAC_INCHIKEY>
PLBMMIOYNDISOL-UHFFFAOYSA-N

> <PUBCHEM_XLOGP3_AA>
5.5

> <PUBCHEM_EXACT_MASS>
415.262362685

> <PUBCHEM_MOLECULAR_FORMULA>
C27H33N3O

> <PUBCHEM_MOLECULAR_WEIGHT>
415.6

> <PUBCHEM_OPENEYE_CAN_SMILES>
C1CC2=CC=CC=C2CN(C1)CCC3CCC(CC3)NC(=O)C4=CC5=CC=CC=C5N4

> <PUBCHEM_OPENEYE_ISO_SMILES>
C1CC2=CC=CC=C2CN(C1)CCC3CCC(CC3)NC(=O)C4=CC5=CC=CC=C5N4

> <PUBCHEM_CACTVS_TPSA>
48.1

> <PUBCHEM_MONOISOTOPIC_WEIGHT>
415.262362685

> <PUBCHEM_TOTAL_CHARGE>
0

> <PUBCHEM_HEAVY_ATOM_COUNT>
31

> <PUBCHEM_ATOM_DEF_STEREO_COUNT>
0

> <PUBCHEM_ATOM_UDEF_STEREO_COUNT>
0

> <PUBCHEM_BOND_DEF_STEREO_COUNT>
0

> <PUBCHEM_BOND_UDEF_STEREO_COUNT>
0

> <PUBCHEM_ISOTOPIC_ATOM_COUNT>
0

> <PUBCHEM_COMPONENT_COUNT>
1

> <PUBCHEM_CACTVS_TAUTO_COUNT>
-1

> <PUBCHEM_COORDINATE_TYPE>
1
5
255

> <PUBCHEM_BONDANNOTATIONS>
16  18  8
16  21  8
18  22  8
20  25  8
21  23  8
22  24  8
23  24  8
25  27  8
26  27  8
26  28  8
27  29  8
28  30  8
29  31  8
30  31  8
4  20  8
4  26  8

$$$$
