44335828
  -OEChem-09292322162D

 65 68  0     1  0  0  0  0  0999 V2000
    4.3211    0.7839    0.0000 O   0  0  0  0  0  0  0  0  0  0  0  0
    6.2781    0.3715    0.0000 N   0  0  0  0  0  0  0  0  0  0  0  0
    6.8994   -1.5296    0.0000 N   0  0  0  0  0  0  0  0  0  0  0  0
    4.6783    2.4787    0.0000 N   0  0  0  0  0  0  0  0  0  0  0  0
    5.2619    3.2835    0.0000 C   0  0  3  0  0  0  0  0  0  0  0  0
    5.6103   -0.3728    0.0000 C   0  0  0  0  0  0  0  0  0  0  0  0
    7.2566    0.1653    0.0000 C   0  0  0  0  0  0  0  0  0  0  0  0
    5.9209   -1.3234    0.0000 C   0  0  0  0  0  0  0  0  0  0  0  0
    7.5673   -0.7853    0.0000 C   0  0  0  0  0  0  0  0  0  0  0  0
    5.9674    1.3220    0.0000 C   0  0  0  0  0  0  0  0  0  0  0  0
    4.6783    4.0882    0.0000 C   0  0  0  0  0  0  0  0  0  0  0  0
    3.7320    2.7835    0.0000 C   0  0  0  0  0  0  0  0  0  0  0  0
    3.7320    3.7835    0.0000 C   0  0  0  0  0  0  0  0  0  0  0  0
    4.9889    1.5282    0.0000 C   0  0  0  0  0  0  0  0  0  0  0  0
    7.2101   -2.4801    0.0000 C   0  0  0  0  0  0  0  0  0  0  0  0
    6.2619    3.2835    0.0000 C   0  0  0  0  0  0  0  0  0  0  0  0
    8.1886   -2.6863    0.0000 C   0  0  0  0  0  0  0  0  0  0  0  0
   11.1241   -3.3050    0.0000 C   0  0  0  0  0  0  0  0  0  0  0  0
    2.8660    2.2835    0.0000 C   0  0  0  0  0  0  0  0  0  0  0  0
    2.8660    4.2835    0.0000 C   0  0  0  0  0  0  0  0  0  0  0  0
   10.1456   -3.0987    0.0000 C   0  0  0  0  0  0  0  0  0  0  0  0
    8.8564   -1.9420    0.0000 C   0  0  0  0  0  0  0  0  0  0  0  0
    8.4993   -3.6368    0.0000 C   0  0  0  0  0  0  0  0  0  0  0  0
    2.0000    2.7835    0.0000 C   0  0  0  0  0  0  0  0  0  0  0  0
    2.0000    3.7835    0.0000 C   0  0  0  0  0  0  0  0  0  0  0  0
    9.8349   -2.1482    0.0000 C   0  0  0  0  0  0  0  0  0  0  0  0
    9.4778   -3.8430    0.0000 C   0  0  0  0  0  0  0  0  0  0  0  0
   12.1026   -3.5112    0.0000 C   0  0  0  0  0  0  0  0  0  0  0  0
   10.9179   -4.2835    0.0000 C   0  0  0  0  0  0  0  0  0  0  0  0
   11.3303   -2.3264    0.0000 C   0  0  0  0  0  0  0  0  0  0  0  0
    5.5436    2.7312    0.0000 H   0  0  0  0  0  0  0  0  0  0  0  0
    5.2277    0.1151    0.0000 H   0  0  0  0  0  0  0  0  0  0  0  0
    5.0633   -0.6648    0.0000 H   0  0  0  0  0  0  0  0  0  0  0  0
    7.8704    0.2526    0.0000 H   0  0  0  0  0  0  0  0  0  0  0  0
    7.2772    0.7849    0.0000 H   0  0  0  0  0  0  0  0  0  0  0  0
    5.3071   -1.4107    0.0000 H   0  0  0  0  0  0  0  0  0  0  0  0
    5.9004   -1.9430    0.0000 H   0  0  0  0  0  0  0  0  0  0  0  0
    7.9498   -1.2732    0.0000 H   0  0  0  0  0  0  0  0  0  0  0  0
    8.1142   -0.4932    0.0000 H   0  0  0  0  0  0  0  0  0  0  0  0
    6.5812    1.4094    0.0000 H   0  0  0  0  0  0  0  0  0  0  0  0
    5.9880    1.9416    0.0000 H   0  0  0  0  0  0  0  0  0  0  0  0
    5.2156    4.3974    0.0000 H   0  0  0  0  0  0  0  0  0  0  0  0
    4.4272    4.6551    0.0000 H   0  0  0  0  0  0  0  0  0  0  0  0
    6.5963   -2.5674    0.0000 H   0  0  0  0  0  0  0  0  0  0  0  0
    7.1895   -3.0997    0.0000 H   0  0  0  0  0  0  0  0  0  0  0  0
    6.2619    2.6635    0.0000 H   0  0  0  0  0  0  0  0  0  0  0  0
    6.8819    3.2835    0.0000 H   0  0  0  0  0  0  0  0  0  0  0  0
    6.2619    3.9035    0.0000 H   0  0  0  0  0  0  0  0  0  0  0  0
    2.8660    1.6635    0.0000 H   0  0  0  0  0  0  0  0  0  0  0  0
    2.8660    4.9035    0.0000 H   0  0  0  0  0  0  0  0  0  0  0  0
    8.6638   -1.3527    0.0000 H   0  0  0  0  0  0  0  0  0  0  0  0
    8.0852   -4.0983    0.0000 H   0  0  0  0  0  0  0  0  0  0  0  0
    1.4631    2.4735    0.0000 H   0  0  0  0  0  0  0  0  0  0  0  0
    1.4631    4.0935    0.0000 H   0  0  0  0  0  0  0  0  0  0  0  0
   10.2490   -1.6868    0.0000 H   0  0  0  0  0  0  0  0  0  0  0  0
    9.6704   -4.4324    0.0000 H   0  0  0  0  0  0  0  0  0  0  0  0
   11.9748   -4.1178    0.0000 H   0  0  0  0  0  0  0  0  0  0  0  0
   12.7093   -3.6390    0.0000 H   0  0  0  0  0  0  0  0  0  0  0  0
   12.2305   -2.9045    0.0000 H   0  0  0  0  0  0  0  0  0  0  0  0
   10.3112   -4.1556    0.0000 H   0  0  0  0  0  0  0  0  0  0  0  0
   10.7900   -4.8901    0.0000 H   0  0  0  0  0  0  0  0  0  0  0  0
   11.5246   -4.4113    0.0000 H   0  0  0  0  0  0  0  0  0  0  0  0
   11.9370   -2.4543    0.0000 H   0  0  0  0  0  0  0  0  0  0  0  0
   11.4582   -1.7198    0.0000 H   0  0  0  0  0  0  0  0  0  0  0  0
   10.7237   -2.1986    0.0000 H   0  0  0  0  0  0  0  0  0  0  0  0
  1 14  2  0  0  0  0
  2  6  1  0  0  0  0
  2  7  1  0  0  0  0
  2 10  1  0  0  0  0
  3  8  1  0  0  0  0
  3  9  1  0  0  0  0
  3 15  1  0  0  0  0
  4  5  1  0  0  0  0
  4 12  1  0  0  0  0
  4 14  1  0  0  0  0
  5 11  1  0  0  0  0
  5 16  1  0  0  0  0
  5 31  1  0  0  0  0
  6  8  1  0  0  0  0
  6 32  1  0  0  0  0
  6 33  1  0  0  0  0
  7  9  1  0  0  0  0
  7 34  1  0  0  0  0
  7 35  1  0  0  0  0
  8 36  1  0  0  0  0
  8 37  1  0  0  0  0
  9 38  1  0  0  0  0
  9 39  1  0  0  0  0
 10 14  1  0  0  0  0
 10 40  1  0  0  0  0
 10 41  1  0  0  0  0
 11 13  1  0  0  0  0
 11 42  1  0  0  0  0
 11 43  1  0  0  0  0
 12 13  1  0  0  0  0
 12 19  2  0  0  0  0
 13 20  2  0  0  0  0
 15 17  1  0  0  0  0
 15 44  1  0  0  0  0
 15 45  1  0  0  0  0
 16 46  1  0  0  0  0
 16 47  1  0  0  0  0
 16 48  1  0  0  0  0
 17 22  2  0  0  0  0
 17 23  1  0  0  0  0
 18 21  1  0  0  0  0
 18 28  1  0  0  0  0
 18 29  1  0  0  0  0
 18 30  1  0  0  0  0
 19 24  1  0  0  0  0
 19 49  1  0  0  0  0
 20 25  1  0  0  0  0
 20 50  1  0  0  0  0
 21 26  2  0  0  0  0
 21 27  1  0  0  0  0
 22 26  1  0  0  0  0
 22 51  1  0  0  0  0
 23 27  2  0  0  0  0
 23 52  1  0  0  0  0
 24 25  2  0  0  0  0
 24 53  1  0  0  0  0
 25 54  1  0  0  0  0
 26 55  1  0  0  0  0
 27 56  1  0  0  0  0
 28 57  1  0  0  0  0
 28 58  1  0  0  0  0
 28 59  1  0  0  0  0
 29 60  1  0  0  0  0
 29 61  1  0  0  0  0
 29 62  1  0  0  0  0
 30 63  1  0  0  0  0
 30 64  1  0  0  0  0
 30 65  1  0  0  0  0
M  END
> <PUBCHEM_COMPOUND_CID>
44335828

> <PUBCHEM_COMPOUND_CANONICALIZED>
1

> <PUBCHEM_CACTVS_COMPLEXITY>
569

> <PUBCHEM_CACTVS_HBOND_ACCEPTOR>
3

> <PUBCHEM_CACTVS_HBOND_DONOR>
0

> <PUBCHEM_CACTVS_ROTATABLE_BOND>
5

> <PUBCHEM_CACTVS_SUBSKEYS>
AAADcfB7IAAAAAAAAAAAAAAAAAAAAWAAAAA8YIAAAAAAAFgBQAAAHgAAAAAADijBmAQywIMAAACIAiVSUACCAAAhAgAIiACIZIgIYCLAkbGUIAhghgDIyAcQgMAPwAAAAAACAACAAAAAAAQAAAAAAAAAAA==

> <PUBCHEM_IUPAC_OPENEYE_NAME>
2-[4-[(4-tert-butylphenyl)methyl]piperazin-1-yl]-1-(2-methylindolin-1-yl)ethanone

> <PUBCHEM_IUPAC_CAS_NAME>
2-[4-[(4-tert-butylphenyl)methyl]-1-piperazinyl]-1-(2-methyl-2,3-dihydroindol-1-yl)ethanone

> <PUBCHEM_IUPAC_NAME_MARKUP>
2-[4-[(4-<I>tert</I>-butylphenyl)methyl]piperazin-1-yl]-1-(2-methyl-2,3-dihydroindol-1-yl)ethanone

> <PUBCHEM_IUPAC_NAME>
2-[4-[(4-tert-butylphenyl)methyl]piperazin-1-yl]-1-(2-methyl-2,3-dihydroindol-1-yl)ethanone

> <PUBCHEM_IUPAC_SYSTEMATIC_NAME>
2-[4-[(4-tert-butylphenyl)methyl]piperazin-1-yl]-1-(2-methyl-2,3-dihydroindol-1-yl)ethanone

> <PUBCHEM_IUPAC_TRADITIONAL_NAME>
2-[4-(4-tert-butylbenzyl)piperazino]-1-(2-methylindolin-1-yl)ethanone

> <PUBCHEM_IUPAC_INCHI>
InChI=1S/C26H35N3O/c1-20-17-22-7-5-6-8-24(22)29(20)25(30)19-28-15-13-27(14-16-28)18-21-9-11-23(12-10-21)26(2,3)4/h5-12,20H,13-19H2,1-4H3

> <PUBCHEM_IUPAC_INCHIKEY>
JHLGZIBTXUVCIJ-UHFFFAOYSA-N

> <PUBCHEM_XLOGP3_AA>
4.8

> <PUBCHEM_EXACT_MASS>
405.278012748

> <PUBCHEM_MOLECULAR_FORMULA>
C26H35N3O

> <PUBCHEM_MOLECULAR_WEIGHT>
405.6

> <PUBCHEM_OPENEYE_CAN_SMILES>
CC1CC2=CC=CC=C2N1C(=O)CN3CCN(CC3)CC4=CC=C(C=C4)C(C)(C)C

> <PUBCHEM_OPENEYE_ISO_SMILES>
CC1CC2=CC=CC=C2N1C(=O)CN3CCN(CC3)CC4=CC=C(C=C4)C(C)(C)C

> <PUBCHEM_CACTVS_TPSA>
26.8

> <PUBCHEM_MONOISOTOPIC_WEIGHT>
405.278012748

> <PUBCHEM_TOTAL_CHARGE>
0

> <PUBCHEM_HEAVY_ATOM_COUNT>
30

> <PUBCHEM_ATOM_DEF_STEREO_COUNT>
0

> <PUBCHEM_ATOM_UDEF_STEREO_COUNT>
1

> <PUBCHEM_BOND_DEF_STEREO_COUNT>
0

> <PUBCHEM_BOND_UDEF_STEREO_COUNT>
0

> <PUBCHEM_ISOTOPIC_ATOM_COUNT>
0

> <PUBCHEM_COMPONENT_COUNT>
1

> <PUBCHEM_CACTVS_TAUTO_COUNT>
-1

> <PUBCHEM_COORDINATE_TYPE>
1
5
255

> <PUBCHEM_BONDANNOTATIONS>
12  13  8
12  19  8
13  20  8
17  22  8
17  23  8
19  24  8
20  25  8
21  26  8
21  27  8
22  26  8
23  27  8
24  25  8
5  16  3

$$$$
