162658259
  -OEChem-09292322062D

 61 65  0     1  0  0  0  0  0999 V2000
    6.9939    3.9827    0.0000 S   0  0  0  0  0  0  0  0  0  0  0  0
    2.5836   -5.3221    0.0000 S   0  0  0  0  0  0  0  0  0  0  0  0
    7.9939    3.9827    0.0000 O   0  0  0  0  0  0  0  0  0  0  0  0
    7.4939    3.1166    0.0000 O   0  0  0  0  0  0  0  0  0  0  0  0
    2.5978    3.4585    0.0000 O   0  0  0  0  0  0  0  0  0  0  0  0
    4.3958   -0.5173    0.0000 N   0  0  0  0  0  0  0  0  0  0  0  0
    4.3958   -2.5173    0.0000 N   0  0  0  0  0  0  0  0  0  0  0  0
    6.1279    3.4827    0.0000 N   0  0  3  0  0  0  0  0  0  0  0  0
    3.5298   -1.0173    0.0000 C   0  0  0  0  0  0  0  0  0  0  0  0
    5.2619   -1.0173    0.0000 C   0  0  0  0  0  0  0  0  0  0  0  0
    4.3958    0.4827    0.0000 C   0  0  0  0  0  0  0  0  0  0  0  0
    3.5298   -2.0173    0.0000 C   0  0  0  0  0  0  0  0  0  0  0  0
    5.2619   -2.0173    0.0000 C   0  0  0  0  0  0  0  0  0  0  0  0
    5.2619    0.9827    0.0000 C   0  0  0  0  0  0  0  0  0  0  0  0
    5.2619    1.9827    0.0000 C   0  0  0  0  0  0  0  0  0  0  0  0
    6.1279    2.4827    0.0000 C   0  0  0  0  0  0  0  0  0  0  0  0
    6.9939    4.9827    0.0000 C   0  0  0  0  0  0  0  0  0  0  0  0
    5.2619    3.9827    0.0000 C   0  0  0  0  0  0  0  0  0  0  0  0
    6.1279    5.4827    0.0000 C   0  0  0  0  0  0  0  0  0  0  0  0
    5.2619    4.9827    0.0000 C   0  0  0  0  0  0  0  0  0  0  0  0
    4.3958   -3.5173    0.0000 C   0  0  0  0  0  0  0  0  0  0  0  0
    3.5298   -4.0173    0.0000 C   0  0  0  0  0  0  0  0  0  0  0  0
    4.3679    3.4480    0.0000 C   0  0  0  0  0  0  0  0  0  0  0  0
    4.3679    5.5173    0.0000 C   0  0  0  0  0  0  0  0  0  0  0  0
    5.2619   -4.0173    0.0000 C   0  0  0  0  0  0  0  0  0  0  0  0
    3.4619    3.9618    0.0000 C   0  0  0  0  0  0  0  0  0  0  0  0
    3.5298   -5.0173    0.0000 C   0  0  0  0  0  0  0  0  0  0  0  0
    3.4619    5.0035    0.0000 C   0  0  0  0  0  0  0  0  0  0  0  0
    2.5836   -3.7126    0.0000 C   0  0  0  0  0  0  0  0  0  0  0  0
    5.2619   -5.0173    0.0000 C   0  0  0  0  0  0  0  0  0  0  0  0
    4.3958   -5.5173    0.0000 C   0  0  0  0  0  0  0  0  0  0  0  0
    2.0000   -4.5173    0.0000 C   0  0  0  0  0  0  0  0  0  0  0  0
    3.3178   -0.4347    0.0000 H   0  0  0  0  0  0  0  0  0  0  0  0
    2.9192   -1.1250    0.0000 H   0  0  0  0  0  0  0  0  0  0  0  0
    5.8725   -1.1250    0.0000 H   0  0  0  0  0  0  0  0  0  0  0  0
    5.4739   -0.4347    0.0000 H   0  0  0  0  0  0  0  0  0  0  0  0
    4.1838    1.0653    0.0000 H   0  0  0  0  0  0  0  0  0  0  0  0
    3.7853    0.3750    0.0000 H   0  0  0  0  0  0  0  0  0  0  0  0
    2.9192   -1.9097    0.0000 H   0  0  0  0  0  0  0  0  0  0  0  0
    3.3178   -2.5999    0.0000 H   0  0  0  0  0  0  0  0  0  0  0  0
    5.4739   -2.5999    0.0000 H   0  0  0  0  0  0  0  0  0  0  0  0
    5.8725   -1.9097    0.0000 H   0  0  0  0  0  0  0  0  0  0  0  0
    5.4739    0.4001    0.0000 H   0  0  0  0  0  0  0  0  0  0  0  0
    5.8725    1.0903    0.0000 H   0  0  0  0  0  0  0  0  0  0  0  0
    5.0498    2.5653    0.0000 H   0  0  0  0  0  0  0  0  0  0  0  0
    4.6513    1.8750    0.0000 H   0  0  0  0  0  0  0  0  0  0  0  0
    6.3400    1.9001    0.0000 H   0  0  0  0  0  0  0  0  0  0  0  0
    6.7385    2.5903    0.0000 H   0  0  0  0  0  0  0  0  0  0  0  0
    7.6045    4.8750    0.0000 H   0  0  0  0  0  0  0  0  0  0  0  0
    7.2060    5.5653    0.0000 H   0  0  0  0  0  0  0  0  0  0  0  0
    6.5264    5.9576    0.0000 H   0  0  0  0  0  0  0  0  0  0  0  0
    5.7294    5.9576    0.0000 H   0  0  0  0  0  0  0  0  0  0  0  0
    4.3751    2.8280    0.0000 H   0  0  0  0  0  0  0  0  0  0  0  0
    4.3751    6.1373    0.0000 H   0  0  0  0  0  0  0  0  0  0  0  0
    5.7988   -3.7073    0.0000 H   0  0  0  0  0  0  0  0  0  0  0  0
    2.9261    5.3156    0.0000 H   0  0  0  0  0  0  0  0  0  0  0  0
    2.3910   -3.1233    0.0000 H   0  0  0  0  0  0  0  0  0  0  0  0
    5.7988   -5.3273    0.0000 H   0  0  0  0  0  0  0  0  0  0  0  0
    4.3958   -6.1373    0.0000 H   0  0  0  0  0  0  0  0  0  0  0  0
    1.3800   -4.5173    0.0000 H   0  0  0  0  0  0  0  0  0  0  0  0
    2.0596    3.7664    0.0000 H   0  0  0  0  0  0  0  0  0  0  0  0
  1  3  2  0  0  0  0
  1  4  2  0  0  0  0
  1  8  1  0  0  0  0
  1 17  1  0  0  0  0
  2 27  1  0  0  0  0
  2 32  1  0  0  0  0
  5 26  1  0  0  0  0
  5 61  1  0  0  0  0
  6  9  1  0  0  0  0
  6 10  1  0  0  0  0
  6 11  1  0  0  0  0
  7 12  1  0  0  0  0
  7 13  1  0  0  0  0
  7 21  1  0  0  0  0
  8 16  1  0  0  0  0
  8 18  1  0  0  0  0
  9 12  1  0  0  0  0
  9 33  1  0  0  0  0
  9 34  1  0  0  0  0
 10 13  1  0  0  0  0
 10 35  1  0  0  0  0
 10 36  1  0  0  0  0
 11 14  1  0  0  0  0
 11 37  1  0  0  0  0
 11 38  1  0  0  0  0
 12 39  1  0  0  0  0
 12 40  1  0  0  0  0
 13 41  1  0  0  0  0
 13 42  1  0  0  0  0
 14 15  1  0  0  0  0
 14 43  1  0  0  0  0
 14 44  1  0  0  0  0
 15 16  1  0  0  0  0
 15 45  1  0  0  0  0
 15 46  1  0  0  0  0
 16 47  1  0  0  0  0
 16 48  1  0  0  0  0
 17 19  1  0  0  0  0
 17 49  1  0  0  0  0
 17 50  1  0  0  0  0
 18 20  2  0  0  0  0
 18 23  1  0  0  0  0
 19 20  1  0  0  0  0
 19 51  1  0  0  0  0
 19 52  1  0  0  0  0
 20 24  1  0  0  0  0
 21 22  2  0  0  0  0
 21 25  1  0  0  0  0
 22 27  1  0  0  0  0
 22 29  1  0  0  0  0
 23 26  2  0  0  0  0
 23 53  1  0  0  0  0
 24 28  2  0  0  0  0
 24 54  1  0  0  0  0
 25 30  2  0  0  0  0
 25 55  1  0  0  0  0
 26 28  1  0  0  0  0
 27 31  2  0  0  0  0
 28 56  1  0  0  0  0
 29 32  2  0  0  0  0
 29 57  1  0  0  0  0
 30 31  1  0  0  0  0
 30 58  1  0  0  0  0
 31 59  1  0  0  0  0
 32 60  1  0  0  0  0
M  END
> <PUBCHEM_COMPOUND_CID>
162658259

> <PUBCHEM_COMPOUND_CANONICALIZED>
1

> <PUBCHEM_CACTVS_COMPLEXITY>
723

> <PUBCHEM_CACTVS_HBOND_ACCEPTOR>
7

> <PUBCHEM_CACTVS_HBOND_DONOR>
1

> <PUBCHEM_CACTVS_ROTATABLE_BOND>
6

> <PUBCHEM_CACTVS_SUBSKEYS>
AAADceB7MABgAAAAAAAAAAAAAAAAASAAAAA8eIEAAAAAAEix9AAAHgQASAAADAzF2ASwx8MAAgqEAiRCQHDDAIAhKhBIiBgObIgIZiLikZOUcAxmwBno2AeQ0IMOIAAAAiAGAABAAAAEQAwAAAAAAAAAAA==

> <PUBCHEM_IUPAC_OPENEYE_NAME>
1-[4-[4-(benzothiophen-4-yl)piperazin-1-yl]butyl]-2,2-dioxo-3,4-dihydro-2lambda6,1-benzothiazin-7-ol

> <PUBCHEM_IUPAC_CAS_NAME>
1-[4-[4-(1-benzothiophen-4-yl)-1-piperazinyl]butyl]-2,2-dioxo-3,4-dihydro-2lambda6,1-benzothiazin-7-ol

> <PUBCHEM_IUPAC_NAME_MARKUP>
1-[4-[4-(1-benzothiophen-4-yl)piperazin-1-yl]butyl]-2,2-dioxo-3,4-dihydro-2&lambda;<SUP>6</SUP>,1-benzothiazin-7-ol

> <PUBCHEM_IUPAC_NAME>
1-[4-[4-(1-benzothiophen-4-yl)piperazin-1-yl]butyl]-2,2-dioxo-3,4-dihydro-2lambda6,1-benzothiazin-7-ol

> <PUBCHEM_IUPAC_SYSTEMATIC_NAME>
1-[4-[4-(1-benzothiophen-4-yl)piperazin-1-yl]butyl]-2,2-bis(oxidanylidene)-3,4-dihydro-2lambda6,1-benzothiazin-7-ol

> <PUBCHEM_IUPAC_TRADITIONAL_NAME>
1-[4-[4-(benzothiophen-4-yl)piperazino]butyl]-2,2-diketo-3,4-dihydro-2lambda6,1-benzothiazin-7-ol

> <PUBCHEM_IUPAC_INCHI>
InChI=1S/C24H29N3O3S2/c28-20-7-6-19-9-17-32(29,30)27(23(19)18-20)11-2-1-10-25-12-14-26(15-13-25)22-4-3-5-24-21(22)8-16-31-24/h3-8,16,18,28H,1-2,9-15,17H2

> <PUBCHEM_IUPAC_INCHIKEY>
YYSLWKJTVSGHOV-UHFFFAOYSA-N

> <PUBCHEM_XLOGP3_AA>
4.1

> <PUBCHEM_EXACT_MASS>
471.16503414

> <PUBCHEM_MOLECULAR_FORMULA>
C24H29N3O3S2

> <PUBCHEM_MOLECULAR_WEIGHT>
471.6

> <PUBCHEM_OPENEYE_CAN_SMILES>
C1CS(=O)(=O)N(C2=C1C=CC(=C2)O)CCCCN3CCN(CC3)C4=C5C=CSC5=CC=C4

> <PUBCHEM_OPENEYE_ISO_SMILES>
C1CS(=O)(=O)N(C2=C1C=CC(=C2)O)CCCCN3CCN(CC3)C4=C5C=CSC5=CC=C4

> <PUBCHEM_CACTVS_TPSA>
101

> <PUBCHEM_MONOISOTOPIC_WEIGHT>
471.16503414

> <PUBCHEM_TOTAL_CHARGE>
0

> <PUBCHEM_HEAVY_ATOM_COUNT>
32

> <PUBCHEM_ATOM_DEF_STEREO_COUNT>
0

> <PUBCHEM_ATOM_UDEF_STEREO_COUNT>
0

> <PUBCHEM_BOND_DEF_STEREO_COUNT>
0

> <PUBCHEM_BOND_UDEF_STEREO_COUNT>
0

> <PUBCHEM_ISOTOPIC_ATOM_COUNT>
0

> <PUBCHEM_COMPONENT_COUNT>
1

> <PUBCHEM_CACTVS_TAUTO_COUNT>
-1

> <PUBCHEM_COORDINATE_TYPE>
1
5
255

> <PUBCHEM_BONDANNOTATIONS>
18  20  8
18  23  8
2  27  8
2  32  8
20  24  8
21  22  8
21  25  8
22  27  8
22  29  8
23  26  8
24  28  8
25  30  8
26  28  8
27  31  8
29  32  8
30  31  8

$$$$
