44338291
  -OEChem-09292322192D

 49 52  0     1  0  0  0  0  0999 V2000
    2.3176    3.2322    0.0000 Cl  0  0  0  0  0  0  0  0  0  0  0  0
    6.2619   -1.5002    0.0000 S   0  0  3  0  0  0  0  0  0  0  0  0
    6.7619   -0.6342    0.0000 O   0  0  0  0  0  0  0  0  0  0  0  0
   11.2619   -3.2322    0.0000 O   0  0  0  0  0  0  0  0  0  0  0  0
   11.2619   -1.5002    0.0000 O   0  0  0  0  0  0  0  0  0  0  0  0
    4.6783   -0.6955    0.0000 N   0  0  0  0  0  0  0  0  0  0  0  0
    4.6783   -2.3049    0.0000 N   0  0  0  0  0  0  0  0  0  0  0  0
    3.7320   -1.0002    0.0000 C   0  0  0  0  0  0  0  0  0  0  0  0
    4.9889    0.2550    0.0000 C   0  0  0  0  0  0  0  0  0  0  0  0
    5.2619   -1.5002    0.0000 C   0  0  0  0  0  0  0  0  0  0  0  0
    3.7320   -2.0002    0.0000 C   0  0  0  0  0  0  0  0  0  0  0  0
    4.3211    0.9994    0.0000 C   0  0  0  0  0  0  0  0  0  0  0  0
    6.7619   -2.3662    0.0000 C   0  0  0  0  0  0  0  0  0  0  0  0
    2.8660   -0.5002    0.0000 C   0  0  0  0  0  0  0  0  0  0  0  0
    2.8660   -2.5002    0.0000 C   0  0  0  0  0  0  0  0  0  0  0  0
    7.7619   -2.3662    0.0000 C   0  0  0  0  0  0  0  0  0  0  0  0
    2.0000   -1.0002    0.0000 C   0  0  0  0  0  0  0  0  0  0  0  0
    2.0000   -2.0002    0.0000 C   0  0  0  0  0  0  0  0  0  0  0  0
    3.3426    0.7931    0.0000 C   0  0  0  0  0  0  0  0  0  0  0  0
    4.6318    1.9499    0.0000 C   0  0  0  0  0  0  0  0  0  0  0  0
    8.2619   -3.2322    0.0000 C   0  0  0  0  0  0  0  0  0  0  0  0
    8.2619   -1.5002    0.0000 C   0  0  0  0  0  0  0  0  0  0  0  0
    2.6747    1.5374    0.0000 C   0  0  0  0  0  0  0  0  0  0  0  0
    3.9639    2.6942    0.0000 C   0  0  0  0  0  0  0  0  0  0  0  0
    9.2619   -3.2322    0.0000 C   0  0  0  0  0  0  0  0  0  0  0  0
    9.2619   -1.5002    0.0000 C   0  0  0  0  0  0  0  0  0  0  0  0
    9.7619   -2.3662    0.0000 C   0  0  0  0  0  0  0  0  0  0  0  0
    2.9854    2.4880    0.0000 C   0  0  0  0  0  0  0  0  0  0  0  0
   10.7619   -2.3662    0.0000 C   0  0  0  0  0  0  0  0  0  0  0  0
   12.2619   -3.2322    0.0000 C   0  0  0  0  0  0  0  0  0  0  0  0
    5.5359   -0.0370    0.0000 H   0  0  0  0  0  0  0  0  0  0  0  0
    5.3715    0.7430    0.0000 H   0  0  0  0  0  0  0  0  0  0  0  0
    6.1793   -2.5783    0.0000 H   0  0  0  0  0  0  0  0  0  0  0  0
    6.8695   -2.9768    0.0000 H   0  0  0  0  0  0  0  0  0  0  0  0
    2.8660    0.1198    0.0000 H   0  0  0  0  0  0  0  0  0  0  0  0
    2.8660   -3.1202    0.0000 H   0  0  0  0  0  0  0  0  0  0  0  0
    1.4631   -0.6902    0.0000 H   0  0  0  0  0  0  0  0  0  0  0  0
    1.4631   -2.3102    0.0000 H   0  0  0  0  0  0  0  0  0  0  0  0
    3.1500    0.2038    0.0000 H   0  0  0  0  0  0  0  0  0  0  0  0
    5.2384    2.0777    0.0000 H   0  0  0  0  0  0  0  0  0  0  0  0
    7.9519   -3.7692    0.0000 H   0  0  0  0  0  0  0  0  0  0  0  0
    7.9519   -0.9633    0.0000 H   0  0  0  0  0  0  0  0  0  0  0  0
    2.0681    1.4096    0.0000 H   0  0  0  0  0  0  0  0  0  0  0  0
    4.1565    3.2835    0.0000 H   0  0  0  0  0  0  0  0  0  0  0  0
    9.5719   -3.7692    0.0000 H   0  0  0  0  0  0  0  0  0  0  0  0
    9.5719   -0.9633    0.0000 H   0  0  0  0  0  0  0  0  0  0  0  0
   12.2619   -3.8522    0.0000 H   0  0  0  0  0  0  0  0  0  0  0  0
   12.8819   -3.2322    0.0000 H   0  0  0  0  0  0  0  0  0  0  0  0
   12.2619   -2.6123    0.0000 H   0  0  0  0  0  0  0  0  0  0  0  0
  1 28  1  0  0  0  0
  2  3  2  0  0  0  0
  2 10  1  0  0  0  0
  2 13  1  0  0  0  0
  4 29  1  0  0  0  0
  4 30  1  0  0  0  0
  5 29  2  0  0  0  0
  6  8  1  0  0  0  0
  6  9  1  0  0  0  0
  6 10  1  0  0  0  0
  7 10  2  0  0  0  0
  7 11  1  0  0  0  0
  8 11  1  0  0  0  0
  8 14  2  0  0  0  0
  9 12  1  0  0  0  0
  9 31  1  0  0  0  0
  9 32  1  0  0  0  0
 11 15  2  0  0  0  0
 12 19  2  0  0  0  0
 12 20  1  0  0  0  0
 13 16  1  0  0  0  0
 13 33  1  0  0  0  0
 13 34  1  0  0  0  0
 14 17  1  0  0  0  0
 14 35  1  0  0  0  0
 15 18  1  0  0  0  0
 15 36  1  0  0  0  0
 16 21  2  0  0  0  0
 16 22  1  0  0  0  0
 17 18  2  0  0  0  0
 17 37  1  0  0  0  0
 18 38  1  0  0  0  0
 19 23  1  0  0  0  0
 19 39  1  0  0  0  0
 20 24  2  0  0  0  0
 20 40  1  0  0  0  0
 21 25  1  0  0  0  0
 21 41  1  0  0  0  0
 22 26  2  0  0  0  0
 22 42  1  0  0  0  0
 23 28  2  0  0  0  0
 23 43  1  0  0  0  0
 24 28  1  0  0  0  0
 24 44  1  0  0  0  0
 25 27  2  0  0  0  0
 25 45  1  0  0  0  0
 26 27  1  0  0  0  0
 26 46  1  0  0  0  0
 27 29  1  0  0  0  0
 30 47  1  0  0  0  0
 30 48  1  0  0  0  0
 30 49  1  0  0  0  0
M  END
> <PUBCHEM_COMPOUND_CID>
44338291

> <PUBCHEM_COMPOUND_CANONICALIZED>
1

> <PUBCHEM_CACTVS_COMPLEXITY>
605

> <PUBCHEM_CACTVS_HBOND_ACCEPTOR>
5

> <PUBCHEM_CACTVS_HBOND_DONOR>
0

> <PUBCHEM_CACTVS_ROTATABLE_BOND>
7

> <PUBCHEM_CACTVS_SUBSKEYS>
AAADceB7MABEAAAAAAAAAAAAAAAAAWAAAAAwYMAAAAAAAFgB9AAAHgYAAAAADArF3iaz2LcMFAqoAyTybEDK0C1lF7AJ2CE4ftiIbrLhv5mUMQhswAPI6aeYyDCORAAAAAAAACCIAAAAAAAAQAAAAAAAAA==

> <PUBCHEM_IUPAC_OPENEYE_NAME>
methyl 4-[[1-[(4-chlorophenyl)methyl]benzimidazol-2-yl]sulfinylmethyl]benzoate

> <PUBCHEM_IUPAC_CAS_NAME>
4-[[1-[(4-chlorophenyl)methyl]-2-benzimidazolyl]sulfinylmethyl]benzoic acid methyl ester

> <PUBCHEM_IUPAC_NAME_MARKUP>
methyl 4-[[1-[(4-chlorophenyl)methyl]benzimidazol-2-yl]sulfinylmethyl]benzoate

> <PUBCHEM_IUPAC_NAME>
methyl 4-[[1-[(4-chlorophenyl)methyl]benzimidazol-2-yl]sulfinylmethyl]benzoate

> <PUBCHEM_IUPAC_SYSTEMATIC_NAME>
methyl 4-[[1-[(4-chlorophenyl)methyl]benzimidazol-2-yl]sulfinylmethyl]benzoate

> <PUBCHEM_IUPAC_TRADITIONAL_NAME>
4-[[1-(4-chlorobenzyl)benzimidazol-2-yl]sulfinylmethyl]benzoic acid methyl ester

> <PUBCHEM_IUPAC_INCHI>
InChI=1S/C23H19ClN2O3S/c1-29-22(27)18-10-6-17(7-11-18)15-30(28)23-25-20-4-2-3-5-21(20)26(23)14-16-8-12-19(24)13-9-16/h2-13H,14-15H2,1H3

> <PUBCHEM_IUPAC_INCHIKEY>
YJNUYVIFARPTCL-UHFFFAOYSA-N

> <PUBCHEM_XLOGP3_AA>
4.6

> <PUBCHEM_EXACT_MASS>
438.0804913

> <PUBCHEM_MOLECULAR_FORMULA>
C23H19ClN2O3S

> <PUBCHEM_MOLECULAR_WEIGHT>
438.9

> <PUBCHEM_OPENEYE_CAN_SMILES>
COC(=O)C1=CC=C(C=C1)CS(=O)C2=NC3=CC=CC=C3N2CC4=CC=C(C=C4)Cl

> <PUBCHEM_OPENEYE_ISO_SMILES>
COC(=O)C1=CC=C(C=C1)CS(=O)C2=NC3=CC=CC=C3N2CC4=CC=C(C=C4)Cl

> <PUBCHEM_CACTVS_TPSA>
80.4

> <PUBCHEM_MONOISOTOPIC_WEIGHT>
438.0804913

> <PUBCHEM_TOTAL_CHARGE>
0

> <PUBCHEM_HEAVY_ATOM_COUNT>
30

> <PUBCHEM_ATOM_DEF_STEREO_COUNT>
0

> <PUBCHEM_ATOM_UDEF_STEREO_COUNT>
1

> <PUBCHEM_BOND_DEF_STEREO_COUNT>
0

> <PUBCHEM_BOND_UDEF_STEREO_COUNT>
0

> <PUBCHEM_ISOTOPIC_ATOM_COUNT>
0

> <PUBCHEM_COMPONENT_COUNT>
1

> <PUBCHEM_CACTVS_TAUTO_COUNT>
-1

> <PUBCHEM_COORDINATE_TYPE>
1
5
255

> <PUBCHEM_BONDANNOTATIONS>
11  15  8
12  19  8
12  20  8
14  17  8
15  18  8
16  21  8
16  22  8
17  18  8
19  23  8
2  13  3
20  24  8
21  25  8
22  26  8
23  28  8
24  28  8
25  27  8
26  27  8
6  10  8
6  8  8
7  10  8
7  11  8
8  11  8
8  14  8

$$$$
