15665506
  -OEChem-09292322512D

 62 66  0     1  0  0  0  0  0999 V2000
    6.8798   -1.5331    0.0000 O   0  0  0  0  0  0  0  0  0  0  0  0
    8.6719   -2.5678    0.0000 O   0  0  0  0  0  0  0  0  0  0  0  0
   12.2303    2.0118    0.0000 O   0  0  0  0  0  0  0  0  0  0  0  0
    3.0000   -2.7086    0.0000 O   0  0  0  0  0  0  0  0  0  0  0  0
    3.0000   -4.4407    0.0000 O   0  0  0  0  0  0  0  0  0  0  0  0
    8.6381    0.4979    0.0000 N   0  0  0  0  0  0  0  0  0  0  0  0
   10.8629    2.3726    0.0000 N   0  0  0  0  0  0  0  0  0  0  0  0
   11.8696    0.6444    0.0000 N   0  0  0  0  0  0  0  0  0  0  0  0
    5.0836   -4.3794    0.0000 N   0  0  0  0  0  0  0  0  0  0  0  0
   10.3663    1.5046    0.0000 C   0  0  0  0  0  0  0  0  0  0  0  0
   10.3701    0.5046    0.0000 C   0  0  0  0  0  0  0  0  0  0  0  0
    9.4983    2.0013    0.0000 C   0  0  0  0  0  0  0  0  0  0  0  0
    9.5060    0.0013    0.0000 C   0  0  0  0  0  0  0  0  0  0  0  0
    8.6342    1.4979    0.0000 C   0  0  0  0  0  0  0  0  0  0  0  0
    7.7740   -0.0054    0.0000 C   0  0  0  0  0  0  0  0  0  0  0  0
    7.7778   -1.0054    0.0000 C   0  0  3  0  0  0  0  0  0  0  0  0
   11.3662    1.5085    0.0000 C   0  0  0  0  0  0  0  0  0  0  0  0
    8.6799   -1.5262    0.0000 C   0  0  0  0  0  0  0  0  0  0  0  0
   10.3596    3.2367    0.0000 C   0  0  0  0  0  0  0  0  0  0  0  0
    6.8958   -2.5746    0.0000 C   0  0  0  0  0  0  0  0  0  0  0  0
    7.7619   -3.0746    0.0000 C   0  0  0  0  0  0  0  0  0  0  0  0
    6.0298   -3.0746    0.0000 C   0  0  0  0  0  0  0  0  0  0  0  0
    9.3596    3.2328    0.0000 C   0  0  0  0  0  0  0  0  0  0  0  0
   10.8562    4.1046    0.0000 C   0  0  0  0  0  0  0  0  0  0  0  0
    6.0298   -4.0746    0.0000 C   0  0  0  0  0  0  0  0  0  0  0  0
    7.7619   -4.0746    0.0000 C   0  0  0  0  0  0  0  0  0  0  0  0
    6.8958   -4.5746    0.0000 C   0  0  0  0  0  0  0  0  0  0  0  0
    5.0836   -2.7699    0.0000 C   0  0  0  0  0  0  0  0  0  0  0  0
    8.8562    4.0969    0.0000 C   0  0  0  0  0  0  0  0  0  0  0  0
   10.3529    4.9687    0.0000 C   0  0  0  0  0  0  0  0  0  0  0  0
    4.5000   -3.5746    0.0000 C   0  0  0  0  0  0  0  0  0  0  0  0
    9.3529    4.9648    0.0000 C   0  0  0  0  0  0  0  0  0  0  0  0
    3.5000   -3.5746    0.0000 C   0  0  0  0  0  0  0  0  0  0  0  0
    2.0000   -2.7086    0.0000 C   0  0  0  0  0  0  0  0  0  0  0  0
   10.5844   -0.0772    0.0000 H   0  0  0  0  0  0  0  0  0  0  0  0
   10.9803    0.6146    0.0000 H   0  0  0  0  0  0  0  0  0  0  0  0
    9.8950    2.4778    0.0000 H   0  0  0  0  0  0  0  0  0  0  0  0
    9.0980    2.4747    0.0000 H   0  0  0  0  0  0  0  0  0  0  0  0
    9.1093   -0.4752    0.0000 H   0  0  0  0  0  0  0  0  0  0  0  0
    9.9064   -0.4721    0.0000 H   0  0  0  0  0  0  0  0  0  0  0  0
    8.4199    2.0797    0.0000 H   0  0  0  0  0  0  0  0  0  0  0  0
    8.0241    1.3879    0.0000 H   0  0  0  0  0  0  0  0  0  0  0  0
    7.5597    0.5764    0.0000 H   0  0  0  0  0  0  0  0  0  0  0  0
    7.1638   -0.1154    0.0000 H   0  0  0  0  0  0  0  0  0  0  0  0
   11.3986    2.6846    0.0000 H   0  0  0  0  0  0  0  0  0  0  0  0
    7.2391   -0.6985    0.0000 H   0  0  0  0  0  0  0  0  0  0  0  0
    9.2899   -1.6370    0.0000 H   0  0  0  0  0  0  0  0  0  0  0  0
    8.8935   -0.9441    0.0000 H   0  0  0  0  0  0  0  0  0  0  0  0
   12.4896    0.6468    0.0000 H   0  0  0  0  0  0  0  0  0  0  0  0
   11.5617    0.1063    0.0000 H   0  0  0  0  0  0  0  0  0  0  0  0
    9.0517    2.6947    0.0000 H   0  0  0  0  0  0  0  0  0  0  0  0
   11.4762    4.1070    0.0000 H   0  0  0  0  0  0  0  0  0  0  0  0
    8.2988   -4.3846    0.0000 H   0  0  0  0  0  0  0  0  0  0  0  0
    4.8910   -2.1806    0.0000 H   0  0  0  0  0  0  0  0  0  0  0  0
    6.8958   -5.1946    0.0000 H   0  0  0  0  0  0  0  0  0  0  0  0
    8.2362    4.0945    0.0000 H   0  0  0  0  0  0  0  0  0  0  0  0
   10.6608    5.5068    0.0000 H   0  0  0  0  0  0  0  0  0  0  0  0
    4.8910   -4.9687    0.0000 H   0  0  0  0  0  0  0  0  0  0  0  0
    9.0408    5.5006    0.0000 H   0  0  0  0  0  0  0  0  0  0  0  0
    2.0000   -2.0886    0.0000 H   0  0  0  0  0  0  0  0  0  0  0  0
    1.3800   -2.7086    0.0000 H   0  0  0  0  0  0  0  0  0  0  0  0
    2.0000   -3.3286    0.0000 H   0  0  0  0  0  0  0  0  0  0  0  0
  1 16  1  0  0  0  0
  1 20  1  0  0  0  0
  2 18  1  0  0  0  0
  2 21  1  0  0  0  0
  3 17  2  0  0  0  0
  4 33  1  0  0  0  0
  4 34  1  0  0  0  0
  5 33  2  0  0  0  0
  6 13  1  0  0  0  0
  6 14  1  0  0  0  0
  6 15  1  0  0  0  0
  7 10  1  0  0  0  0
  7 19  1  0  0  0  0
  7 45  1  0  0  0  0
  8 17  1  0  0  0  0
  8 49  1  0  0  0  0
  8 50  1  0  0  0  0
  9 25  1  0  0  0  0
  9 31  1  0  0  0  0
  9 58  1  0  0  0  0
 10 11  1  0  0  0  0
 10 12  1  0  0  0  0
 10 17  1  0  0  0  0
 11 13  1  0  0  0  0
 11 35  1  0  0  0  0
 11 36  1  0  0  0  0
 12 14  1  0  0  0  0
 12 37  1  0  0  0  0
 12 38  1  0  0  0  0
 13 39  1  0  0  0  0
 13 40  1  0  0  0  0
 14 41  1  0  0  0  0
 14 42  1  0  0  0  0
 15 16  1  0  0  0  0
 15 43  1  0  0  0  0
 15 44  1  0  0  0  0
 16 18  1  0  0  0  0
 16 46  1  0  0  0  0
 18 47  1  0  0  0  0
 18 48  1  0  0  0  0
 19 23  2  0  0  0  0
 19 24  1  0  0  0  0
 20 21  2  0  0  0  0
 20 22  1  0  0  0  0
 21 26  1  0  0  0  0
 22 25  2  0  0  0  0
 22 28  1  0  0  0  0
 23 29  1  0  0  0  0
 23 51  1  0  0  0  0
 24 30  2  0  0  0  0
 24 52  1  0  0  0  0
 25 27  1  0  0  0  0
 26 27  2  0  0  0  0
 26 53  1  0  0  0  0
 27 55  1  0  0  0  0
 28 31  2  0  0  0  0
 28 54  1  0  0  0  0
 29 32  2  0  0  0  0
 29 56  1  0  0  0  0
 30 32  1  0  0  0  0
 30 57  1  0  0  0  0
 31 33  1  0  0  0  0
 32 59  1  0  0  0  0
 34 60  1  0  0  0  0
 34 61  1  0  0  0  0
 34 62  1  0  0  0  0
M  END
> <PUBCHEM_COMPOUND_CID>
15665506

> <PUBCHEM_COMPOUND_CANONICALIZED>
1

> <PUBCHEM_CACTVS_COMPLEXITY>
737

> <PUBCHEM_CACTVS_HBOND_ACCEPTOR>
7

> <PUBCHEM_CACTVS_HBOND_DONOR>
3

> <PUBCHEM_CACTVS_ROTATABLE_BOND>
7

> <PUBCHEM_CACTVS_SUBSKEYS>
AAADceB7uAAAAAAAAAAAAAAAAAAAAWAAAAA8aIEAAAAAAFiR9AAAHgAQAAAADJzhngYyzvPJlACoAyXyXASCiCAnIiAImSG+7NgPZvLE9buXOSrm0Bna6Ye8/b/eAEABAgAKQAAAgAIEABSAAAAAAAAAAA==

> <PUBCHEM_IUPAC_OPENEYE_NAME>
methyl 2-[(4-anilino-4-carbamoyl-1-piperidyl)methyl]-3,7-dihydro-2H-[1,4]dioxino[2,3-e]indole-8-carboxylate

> <PUBCHEM_IUPAC_CAS_NAME>
2-[(4-anilino-4-carbamoyl-1-piperidinyl)methyl]-3,7-dihydro-2H-[1,4]dioxino[2,3-e]indole-8-carboxylic acid methyl ester

> <PUBCHEM_IUPAC_NAME_MARKUP>
methyl 2-[(4-anilino-4-carbamoylpiperidin-1-yl)methyl]-3,7-dihydro-2<I>H</I>-[1,4]dioxino[2,3-e]indole-8-carboxylate

> <PUBCHEM_IUPAC_NAME>
methyl 2-[(4-anilino-4-carbamoylpiperidin-1-yl)methyl]-3,7-dihydro-2H-[1,4]dioxino[2,3-e]indole-8-carboxylate

> <PUBCHEM_IUPAC_SYSTEMATIC_NAME>
methyl 2-[(4-aminocarbonyl-4-phenylazanyl-piperidin-1-yl)methyl]-3,7-dihydro-2H-[1,4]dioxino[2,3-e]indole-8-carboxylate

> <PUBCHEM_IUPAC_TRADITIONAL_NAME>
2-[(4-anilino-4-carbamoyl-piperidino)methyl]-3,7-dihydro-2H-[1,4]dioxin[2,3-e]indole-8-carboxylic acid methyl ester

> <PUBCHEM_IUPAC_INCHI>
InChI=1S/C25H28N4O5/c1-32-23(30)20-13-18-19(27-20)7-8-21-22(18)34-17(15-33-21)14-29-11-9-25(10-12-29,24(26)31)28-16-5-3-2-4-6-16/h2-8,13,17,27-28H,9-12,14-15H2,1H3,(H2,26,31)

> <PUBCHEM_IUPAC_INCHIKEY>
TZWWOCFOYDRGRO-UHFFFAOYSA-N

> <PUBCHEM_XLOGP3_AA>
3

> <PUBCHEM_EXACT_MASS>
464.20597001

> <PUBCHEM_MOLECULAR_FORMULA>
C25H28N4O5

> <PUBCHEM_MOLECULAR_WEIGHT>
464.5

> <PUBCHEM_OPENEYE_CAN_SMILES>
COC(=O)C1=CC2=C(N1)C=CC3=C2OC(CO3)CN4CCC(CC4)(C(=O)N)NC5=CC=CC=C5

> <PUBCHEM_OPENEYE_ISO_SMILES>
COC(=O)C1=CC2=C(N1)C=CC3=C2OC(CO3)CN4CCC(CC4)(C(=O)N)NC5=CC=CC=C5

> <PUBCHEM_CACTVS_TPSA>
119

> <PUBCHEM_MONOISOTOPIC_WEIGHT>
464.20597001

> <PUBCHEM_TOTAL_CHARGE>
0

> <PUBCHEM_HEAVY_ATOM_COUNT>
34

> <PUBCHEM_ATOM_DEF_STEREO_COUNT>
0

> <PUBCHEM_ATOM_UDEF_STEREO_COUNT>
1

> <PUBCHEM_BOND_DEF_STEREO_COUNT>
0

> <PUBCHEM_BOND_UDEF_STEREO_COUNT>
0

> <PUBCHEM_ISOTOPIC_ATOM_COUNT>
0

> <PUBCHEM_COMPONENT_COUNT>
1

> <PUBCHEM_CACTVS_TAUTO_COUNT>
-1

> <PUBCHEM_COORDINATE_TYPE>
1
5
255

> <PUBCHEM_BONDANNOTATIONS>
16  15  3
19  23  8
19  24  8
20  21  8
20  22  8
21  26  8
22  25  8
22  28  8
23  29  8
24  30  8
25  27  8
26  27  8
28  31  8
29  32  8
30  32  8
9  25  8
9  31  8

$$$$
