122183771
  -OEChem-09292322002D

 62 66  0     0  0  0  0  0  0999 V2000
    2.5280   -2.1364    0.0000 O   0  0  0  0  0  0  0  0  0  0  0  0
    5.9921    1.8636    0.0000 N   0  0  0  0  0  0  0  0  0  0  0  0
    5.9921    3.8636    0.0000 N   0  0  0  0  0  0  0  0  0  0  0  0
    4.2601   -2.1364    0.0000 N   0  0  0  0  0  0  0  0  0  0  0  0
    2.5893   -4.2200    0.0000 N   0  0  0  0  0  0  0  0  0  0  0  0
    6.8582    2.3636    0.0000 C   0  0  0  0  0  0  0  0  0  0  0  0
    5.1261    2.3636    0.0000 C   0  0  0  0  0  0  0  0  0  0  0  0
    6.8582    3.3636    0.0000 C   0  0  0  0  0  0  0  0  0  0  0  0
    5.1261    3.3636    0.0000 C   0  0  0  0  0  0  0  0  0  0  0  0
    5.9921    0.8636    0.0000 C   0  0  0  0  0  0  0  0  0  0  0  0
    5.1261    0.3636    0.0000 C   0  0  0  0  0  0  0  0  0  0  0  0
    5.9921    4.8636    0.0000 C   0  0  0  0  0  0  0  0  0  0  0  0
    5.1261   -0.6364    0.0000 C   0  0  0  0  0  0  0  0  0  0  0  0
    6.8582    5.3636    0.0000 C   0  0  0  0  0  0  0  0  0  0  0  0
    4.2601   -1.1364    0.0000 C   0  0  0  0  0  0  0  0  0  0  0  0
    5.1261    5.3636    0.0000 C   0  0  0  0  0  0  0  0  0  0  0  0
    6.8582    6.3636    0.0000 C   0  0  0  0  0  0  0  0  0  0  0  0
    7.7521    4.8290    0.0000 C   0  0  0  0  0  0  0  0  0  0  0  0
    5.1261    6.3636    0.0000 C   0  0  0  0  0  0  0  0  0  0  0  0
    5.9921    6.8636    0.0000 C   0  0  0  0  0  0  0  0  0  0  0  0
    7.7521    6.8983    0.0000 C   0  0  0  0  0  0  0  0  0  0  0  0
    8.6582    5.3428    0.0000 C   0  0  0  0  0  0  0  0  0  0  0  0
    8.6582    6.3844    0.0000 C   0  0  0  0  0  0  0  0  0  0  0  0
    3.3940   -2.6364    0.0000 C   0  0  0  0  0  0  0  0  0  0  0  0
    3.3940   -3.6364    0.0000 C   0  0  0  0  0  0  0  0  0  0  0  0
    2.8940   -5.1662    0.0000 C   0  0  0  0  0  0  0  0  0  0  0  0
    3.8940   -5.1662    0.0000 C   0  0  0  0  0  0  0  0  0  0  0  0
    4.1988   -4.2200    0.0000 C   0  0  0  0  0  0  0  0  0  0  0  0
    2.3940   -6.0322    0.0000 C   0  0  0  0  0  0  0  0  0  0  0  0
    4.3940   -6.0322    0.0000 C   0  0  0  0  0  0  0  0  0  0  0  0
    2.8940   -6.8983    0.0000 C   0  0  0  0  0  0  0  0  0  0  0  0
    3.8940   -6.8983    0.0000 C   0  0  0  0  0  0  0  0  0  0  0  0
    7.0702    1.7810    0.0000 H   0  0  0  0  0  0  0  0  0  0  0  0
    7.4687    2.4713    0.0000 H   0  0  0  0  0  0  0  0  0  0  0  0
    4.5155    2.4713    0.0000 H   0  0  0  0  0  0  0  0  0  0  0  0
    4.9140    1.7810    0.0000 H   0  0  0  0  0  0  0  0  0  0  0  0
    7.4687    3.2560    0.0000 H   0  0  0  0  0  0  0  0  0  0  0  0
    7.0702    3.9462    0.0000 H   0  0  0  0  0  0  0  0  0  0  0  0
    4.9140    3.9462    0.0000 H   0  0  0  0  0  0  0  0  0  0  0  0
    4.5155    3.2560    0.0000 H   0  0  0  0  0  0  0  0  0  0  0  0
    6.2042    0.2810    0.0000 H   0  0  0  0  0  0  0  0  0  0  0  0
    6.6027    0.9713    0.0000 H   0  0  0  0  0  0  0  0  0  0  0  0
    4.9140    0.9462    0.0000 H   0  0  0  0  0  0  0  0  0  0  0  0
    4.5155    0.2559    0.0000 H   0  0  0  0  0  0  0  0  0  0  0  0
    5.3382   -1.2190    0.0000 H   0  0  0  0  0  0  0  0  0  0  0  0
    5.7367   -0.5287    0.0000 H   0  0  0  0  0  0  0  0  0  0  0  0
    4.0480   -0.5538    0.0000 H   0  0  0  0  0  0  0  0  0  0  0  0
    3.6495   -1.2441    0.0000 H   0  0  0  0  0  0  0  0  0  0  0  0
    4.5892    5.0536    0.0000 H   0  0  0  0  0  0  0  0  0  0  0  0
    7.7449    4.2090    0.0000 H   0  0  0  0  0  0  0  0  0  0  0  0
    4.5892    6.6736    0.0000 H   0  0  0  0  0  0  0  0  0  0  0  0
    5.9921    7.4836    0.0000 H   0  0  0  0  0  0  0  0  0  0  0  0
    4.7970   -2.4464    0.0000 H   0  0  0  0  0  0  0  0  0  0  0  0
    7.7449    7.5182    0.0000 H   0  0  0  0  0  0  0  0  0  0  0  0
    9.1939    5.0307    0.0000 H   0  0  0  0  0  0  0  0  0  0  0  0
    9.1939    6.6965    0.0000 H   0  0  0  0  0  0  0  0  0  0  0  0
    2.0000   -4.0274    0.0000 H   0  0  0  0  0  0  0  0  0  0  0  0
    4.7881   -4.0274    0.0000 H   0  0  0  0  0  0  0  0  0  0  0  0
    1.7740   -6.0322    0.0000 H   0  0  0  0  0  0  0  0  0  0  0  0
    5.0140   -6.0322    0.0000 H   0  0  0  0  0  0  0  0  0  0  0  0
    2.5840   -7.4352    0.0000 H   0  0  0  0  0  0  0  0  0  0  0  0
    4.2040   -7.4352    0.0000 H   0  0  0  0  0  0  0  0  0  0  0  0
  1 24  2  0  0  0  0
  2  6  1  0  0  0  0
  2  7  1  0  0  0  0
  2 10  1  0  0  0  0
  3  8  1  0  0  0  0
  3  9  1  0  0  0  0
  3 12  1  0  0  0  0
  4 15  1  0  0  0  0
  4 24  1  0  0  0  0
  4 53  1  0  0  0  0
  5 25  1  0  0  0  0
  5 26  1  0  0  0  0
  5 57  1  0  0  0  0
  6  8  1  0  0  0  0
  6 33  1  0  0  0  0
  6 34  1  0  0  0  0
  7  9  1  0  0  0  0
  7 35  1  0  0  0  0
  7 36  1  0  0  0  0
  8 37  1  0  0  0  0
  8 38  1  0  0  0  0
  9 39  1  0  0  0  0
  9 40  1  0  0  0  0
 10 11  1  0  0  0  0
 10 41  1  0  0  0  0
 10 42  1  0  0  0  0
 11 13  1  0  0  0  0
 11 43  1  0  0  0  0
 11 44  1  0  0  0  0
 12 14  1  0  0  0  0
 12 16  2  0  0  0  0
 13 15  1  0  0  0  0
 13 45  1  0  0  0  0
 13 46  1  0  0  0  0
 14 17  1  0  0  0  0
 14 18  2  0  0  0  0
 15 47  1  0  0  0  0
 15 48  1  0  0  0  0
 16 19  1  0  0  0  0
 16 49  1  0  0  0  0
 17 20  1  0  0  0  0
 17 21  2  0  0  0  0
 18 22  1  0  0  0  0
 18 50  1  0  0  0  0
 19 20  2  0  0  0  0
 19 51  1  0  0  0  0
 20 52  1  0  0  0  0
 21 23  1  0  0  0  0
 21 54  1  0  0  0  0
 22 23  2  0  0  0  0
 22 55  1  0  0  0  0
 23 56  1  0  0  0  0
 24 25  1  0  0  0  0
 25 28  2  0  0  0  0
 26 27  1  0  0  0  0
 26 29  2  0  0  0  0
 27 28  1  0  0  0  0
 27 30  2  0  0  0  0
 28 58  1  0  0  0  0
 29 31  1  0  0  0  0
 29 59  1  0  0  0  0
 30 32  1  0  0  0  0
 30 60  1  0  0  0  0
 31 32  2  0  0  0  0
 31 61  1  0  0  0  0
 32 62  1  0  0  0  0
M  END
> <PUBCHEM_COMPOUND_CID>
122183771

> <PUBCHEM_COMPOUND_CANONICALIZED>
1

> <PUBCHEM_CACTVS_COMPLEXITY>
605

> <PUBCHEM_CACTVS_HBOND_ACCEPTOR>
3

> <PUBCHEM_CACTVS_HBOND_DONOR>
2

> <PUBCHEM_CACTVS_ROTATABLE_BOND>
7

> <PUBCHEM_CACTVS_SUBSKEYS>
AAADceB7oAAAAAAAAAAAAAAAAAAAAWAAAAA8YMEAAAAAAFjB9AAAHgAQAAAADAjBngQwwPPJkACoAyVyVACCgCAnAiAImaG4ZNgIYPLAlbGUIQhglgDIyYcYiYCegAAAQAASAAAAAACAACQAAAAAAAAAAA==

> <PUBCHEM_IUPAC_OPENEYE_NAME>
N-[4-[4-(1-naphthyl)piperazin-1-yl]butyl]-1H-indole-2-carboxamide

> <PUBCHEM_IUPAC_CAS_NAME>
N-[4-[4-(1-naphthalenyl)-1-piperazinyl]butyl]-1H-indole-2-carboxamide

> <PUBCHEM_IUPAC_NAME_MARKUP>
<I>N</I>-[4-(4-naphthalen-1-ylpiperazin-1-yl)butyl]-1<I>H</I>-indole-2-carboxamide

> <PUBCHEM_IUPAC_NAME>
N-[4-(4-naphthalen-1-ylpiperazin-1-yl)butyl]-1H-indole-2-carboxamide

> <PUBCHEM_IUPAC_SYSTEMATIC_NAME>
N-[4-(4-naphthalen-1-ylpiperazin-1-yl)butyl]-1H-indole-2-carboxamide

> <PUBCHEM_IUPAC_TRADITIONAL_NAME>
N-[4-[4-(1-naphthyl)piperazino]butyl]-1H-indole-2-carboxamide

> <PUBCHEM_IUPAC_INCHI>
InChI=1S/C27H30N4O/c32-27(25-20-22-9-2-4-12-24(22)29-25)28-14-5-6-15-30-16-18-31(19-17-30)26-13-7-10-21-8-1-3-11-23(21)26/h1-4,7-13,20,29H,5-6,14-19H2,(H,28,32)

> <PUBCHEM_IUPAC_INCHIKEY>
PVDOYAVBGNHRBV-UHFFFAOYSA-N

> <PUBCHEM_XLOGP3_AA>
5.3

> <PUBCHEM_EXACT_MASS>
426.24196159

> <PUBCHEM_MOLECULAR_FORMULA>
C27H30N4O

> <PUBCHEM_MOLECULAR_WEIGHT>
426.6

> <PUBCHEM_OPENEYE_CAN_SMILES>
C1CN(CCN1CCCCNC(=O)C2=CC3=CC=CC=C3N2)C4=CC=CC5=CC=CC=C54

> <PUBCHEM_OPENEYE_ISO_SMILES>
C1CN(CCN1CCCCNC(=O)C2=CC3=CC=CC=C3N2)C4=CC=CC5=CC=CC=C54

> <PUBCHEM_CACTVS_TPSA>
51.4

> <PUBCHEM_MONOISOTOPIC_WEIGHT>
426.24196159

> <PUBCHEM_TOTAL_CHARGE>
0

> <PUBCHEM_HEAVY_ATOM_COUNT>
32

> <PUBCHEM_ATOM_DEF_STEREO_COUNT>
0

> <PUBCHEM_ATOM_UDEF_STEREO_COUNT>
0

> <PUBCHEM_BOND_DEF_STEREO_COUNT>
0

> <PUBCHEM_BOND_UDEF_STEREO_COUNT>
0

> <PUBCHEM_ISOTOPIC_ATOM_COUNT>
0

> <PUBCHEM_COMPONENT_COUNT>
1

> <PUBCHEM_CACTVS_TAUTO_COUNT>
-1

> <PUBCHEM_COORDINATE_TYPE>
1
5
255

> <PUBCHEM_BONDANNOTATIONS>
12  14  8
12  16  8
14  17  8
14  18  8
16  19  8
17  20  8
17  21  8
18  22  8
19  20  8
21  23  8
22  23  8
25  28  8
26  27  8
26  29  8
27  28  8
27  30  8
29  31  8
30  32  8
31  32  8
5  25  8
5  26  8

$$$$
