15467370
  -OEChem-09292322502D

 43 45  0     0  0  0  0  0  0999 V2000
    2.8660   -5.7738    0.0000 Cl  0  0  0  0  0  0  0  0  0  0  0  0
    2.8660    0.2262    0.0000 N   0  0  0  0  0  0  0  0  0  0  0  0
    2.8660   -1.7738    0.0000 N   0  0  0  0  0  0  0  0  0  0  0  0
    3.8366    2.7207    0.0000 N   0  0  0  0  0  0  0  0  0  0  0  0
    7.0295    5.7738    0.0000 N   0  0  0  0  0  0  0  0  0  0  0  0
    7.3916    2.3287    0.0000 N   0  0  0  0  0  0  0  0  0  0  0  0
    3.7320   -0.2738    0.0000 C   0  0  0  0  0  0  0  0  0  0  0  0
    2.0000   -0.2738    0.0000 C   0  0  0  0  0  0  0  0  0  0  0  0
    3.7320   -1.2738    0.0000 C   0  0  0  0  0  0  0  0  0  0  0  0
    2.0000   -1.2738    0.0000 C   0  0  0  0  0  0  0  0  0  0  0  0
    2.8660    1.2262    0.0000 C   0  0  0  0  0  0  0  0  0  0  0  0
    2.8660   -2.7738    0.0000 C   0  0  0  0  0  0  0  0  0  0  0  0
    3.7320    1.7262    0.0000 C   0  0  0  0  0  0  0  0  0  0  0  0
    4.6456    1.3195    0.0000 C   0  0  0  0  0  0  0  0  0  0  0  0
    2.0000   -3.2738    0.0000 C   0  0  0  0  0  0  0  0  0  0  0  0
    3.7320   -3.2738    0.0000 C   0  0  0  0  0  0  0  0  0  0  0  0
    4.8147    2.9286    0.0000 C   0  0  0  0  0  0  0  0  0  0  0  0
    5.3147    2.0626    0.0000 C   0  0  0  0  0  0  0  0  0  0  0  0
    2.0000   -4.2738    0.0000 C   0  0  0  0  0  0  0  0  0  0  0  0
    3.7320   -4.2738    0.0000 C   0  0  0  0  0  0  0  0  0  0  0  0
    2.8660   -4.7738    0.0000 C   0  0  0  0  0  0  0  0  0  0  0  0
    5.2215    3.8422    0.0000 C   0  0  0  0  0  0  0  0  0  0  0  0
    6.2160    3.9467    0.0000 C   0  0  0  0  0  0  0  0  0  0  0  0
    6.6227    4.8602    0.0000 C   0  0  0  0  0  0  0  0  0  0  0  0
    6.8038    3.1377    0.0000 C   0  0  0  0  0  0  0  0  0  0  0  0
    4.3426   -0.3815    0.0000 H   0  0  0  0  0  0  0  0  0  0  0  0
    3.9441    0.3088    0.0000 H   0  0  0  0  0  0  0  0  0  0  0  0
    1.7880    0.3088    0.0000 H   0  0  0  0  0  0  0  0  0  0  0  0
    1.3894   -0.3815    0.0000 H   0  0  0  0  0  0  0  0  0  0  0  0
    3.9441   -1.8564    0.0000 H   0  0  0  0  0  0  0  0  0  0  0  0
    4.3426   -1.1661    0.0000 H   0  0  0  0  0  0  0  0  0  0  0  0
    1.3894   -1.1661    0.0000 H   0  0  0  0  0  0  0  0  0  0  0  0
    1.7880   -1.8564    0.0000 H   0  0  0  0  0  0  0  0  0  0  0  0
    2.6540    1.8088    0.0000 H   0  0  0  0  0  0  0  0  0  0  0  0
    2.2554    1.1185    0.0000 H   0  0  0  0  0  0  0  0  0  0  0  0
    3.3758    3.1356    0.0000 H   0  0  0  0  0  0  0  0  0  0  0  0
    4.7745    0.7130    0.0000 H   0  0  0  0  0  0  0  0  0  0  0  0
    1.4631   -2.9638    0.0000 H   0  0  0  0  0  0  0  0  0  0  0  0
    4.2690   -2.9638    0.0000 H   0  0  0  0  0  0  0  0  0  0  0  0
    5.9313    1.9978    0.0000 H   0  0  0  0  0  0  0  0  0  0  0  0
    1.4631   -4.5838    0.0000 H   0  0  0  0  0  0  0  0  0  0  0  0
    4.2690   -4.5838    0.0000 H   0  0  0  0  0  0  0  0  0  0  0  0
    4.8570    4.3438    0.0000 H   0  0  0  0  0  0  0  0  0  0  0  0
  1 21  1  0  0  0  0
  2  7  1  0  0  0  0
  2  8  1  0  0  0  0
  2 11  1  0  0  0  0
  3  9  1  0  0  0  0
  3 10  1  0  0  0  0
  3 12  1  0  0  0  0
  4 13  1  0  0  0  0
  4 17  1  0  0  0  0
  4 36  1  0  0  0  0
  5 24  3  0  0  0  0
  6 25  3  0  0  0  0
  7  9  1  0  0  0  0
  7 26  1  0  0  0  0
  7 27  1  0  0  0  0
  8 10  1  0  0  0  0
  8 28  1  0  0  0  0
  8 29  1  0  0  0  0
  9 30  1  0  0  0  0
  9 31  1  0  0  0  0
 10 32  1  0  0  0  0
 10 33  1  0  0  0  0
 11 13  1  0  0  0  0
 11 34  1  0  0  0  0
 11 35  1  0  0  0  0
 12 15  2  0  0  0  0
 12 16  1  0  0  0  0
 13 14  2  0  0  0  0
 14 18  1  0  0  0  0
 14 37  1  0  0  0  0
 15 19  1  0  0  0  0
 15 38  1  0  0  0  0
 16 20  2  0  0  0  0
 16 39  1  0  0  0  0
 17 18  2  0  0  0  0
 17 22  1  0  0  0  0
 18 40  1  0  0  0  0
 19 21  2  0  0  0  0
 19 41  1  0  0  0  0
 20 21  1  0  0  0  0
 20 42  1  0  0  0  0
 22 23  2  0  0  0  0
 22 43  1  0  0  0  0
 23 24  1  0  0  0  0
 23 25  1  0  0  0  0
M  END
> <PUBCHEM_COMPOUND_CID>
15467370

> <PUBCHEM_COMPOUND_CANONICALIZED>
1

> <PUBCHEM_CACTVS_COMPLEXITY>
551

> <PUBCHEM_CACTVS_HBOND_ACCEPTOR>
4

> <PUBCHEM_CACTVS_HBOND_DONOR>
1

> <PUBCHEM_CACTVS_ROTATABLE_BOND>
4

> <PUBCHEM_CACTVS_SUBSKEYS>
AAADceB7gAAEAAAAAAAAAAAAAAAAAWAAAAA8QAAAAAAAAAABwAAAHAIQAAAADArBFiQwwJPJkACwByRiRACigCAhByAImSA4ZpgI4OLBk5GUIAhgkADIyAcQAAAAAABAAAAAAAAAAIAAAAAAAAAAAAAAAA==

> <PUBCHEM_IUPAC_OPENEYE_NAME>
2-[[5-[[4-(4-chlorophenyl)piperazin-1-yl]methyl]-1H-pyrrol-2-yl]methylene]propanedinitrile

> <PUBCHEM_IUPAC_CAS_NAME>
2-[[5-[[4-(4-chlorophenyl)-1-piperazinyl]methyl]-1H-pyrrol-2-yl]methylidene]propanedinitrile

> <PUBCHEM_IUPAC_NAME_MARKUP>
2-[[5-[[4-(4-chlorophenyl)piperazin-1-yl]methyl]-1<I>H</I>-pyrrol-2-yl]methylidene]propanedinitrile

> <PUBCHEM_IUPAC_NAME>
2-[[5-[[4-(4-chlorophenyl)piperazin-1-yl]methyl]-1H-pyrrol-2-yl]methylidene]propanedinitrile

> <PUBCHEM_IUPAC_SYSTEMATIC_NAME>
2-[[5-[[4-(4-chlorophenyl)piperazin-1-yl]methyl]-1H-pyrrol-2-yl]methylidene]propanedinitrile

> <PUBCHEM_IUPAC_TRADITIONAL_NAME>
2-[[5-[[4-(4-chlorophenyl)piperazino]methyl]-1H-pyrrol-2-yl]methylene]malononitrile

> <PUBCHEM_IUPAC_INCHI>
InChI=1S/C19H18ClN5/c20-16-1-5-19(6-2-16)25-9-7-24(8-10-25)14-18-4-3-17(23-18)11-15(12-21)13-22/h1-6,11,23H,7-10,14H2

> <PUBCHEM_IUPAC_INCHIKEY>
HEBQIUNCEBCMFD-UHFFFAOYSA-N

> <PUBCHEM_XLOGP3_AA>
2.9

> <PUBCHEM_EXACT_MASS>
351.1250733

> <PUBCHEM_MOLECULAR_FORMULA>
C19H18ClN5

> <PUBCHEM_MOLECULAR_WEIGHT>
351.8

> <PUBCHEM_OPENEYE_CAN_SMILES>
C1CN(CCN1CC2=CC=C(N2)C=C(C#N)C#N)C3=CC=C(C=C3)Cl

> <PUBCHEM_OPENEYE_ISO_SMILES>
C1CN(CCN1CC2=CC=C(N2)C=C(C#N)C#N)C3=CC=C(C=C3)Cl

> <PUBCHEM_CACTVS_TPSA>
69.8

> <PUBCHEM_MONOISOTOPIC_WEIGHT>
351.1250733

> <PUBCHEM_TOTAL_CHARGE>
0

> <PUBCHEM_HEAVY_ATOM_COUNT>
25

> <PUBCHEM_ATOM_DEF_STEREO_COUNT>
0

> <PUBCHEM_ATOM_UDEF_STEREO_COUNT>
0

> <PUBCHEM_BOND_DEF_STEREO_COUNT>
0

> <PUBCHEM_BOND_UDEF_STEREO_COUNT>
0

> <PUBCHEM_ISOTOPIC_ATOM_COUNT>
0

> <PUBCHEM_COMPONENT_COUNT>
1

> <PUBCHEM_CACTVS_TAUTO_COUNT>
-1

> <PUBCHEM_COORDINATE_TYPE>
1
5
255

> <PUBCHEM_BONDANNOTATIONS>
12  15  8
12  16  8
13  14  8
14  18  8
15  19  8
16  20  8
17  18  8
19  21  8
20  21  8
4  13  8
4  17  8

$$$$
