44190762
  -OEChem-09292322032D

 58 61  0     1  0  0  0  0  0999 V2000
   12.1276    3.2841    0.0000 Cl  0  0  0  0  0  0  0  0  0  0  0  0
    2.6266    0.7040    0.0000 F   0  0  0  0  0  0  0  0  0  0  0  0
    2.9926   -0.6620    0.0000 F   0  0  0  0  0  0  0  0  0  0  0  0
    3.9926    1.0700    0.0000 F   0  0  0  0  0  0  0  0  0  0  0  0
    4.3586   -0.2960    0.0000 O   0  0  0  0  0  0  0  0  0  0  0  0
    7.5457    3.2036    0.0000 O   0  0  0  0  0  0  0  0  0  0  0  0
    4.9209   -2.1274    0.0000 O   0  0  0  0  0  0  0  0  0  0  0  0
    2.6067   -3.4098    0.0000 O   0  0  0  0  0  0  0  0  0  0  0  0
    2.9639   -1.7150    0.0000 O   0  0  0  0  0  0  0  0  0  0  0  0
    7.9029   -0.1007    0.0000 N   0  0  0  0  0  0  0  0  0  0  0  0
    6.9567    0.2040    0.0000 C   0  0  0  0  0  0  0  0  0  0  0  0
    8.4865    0.7040    0.0000 C   0  0  0  0  0  0  0  0  0  0  0  0
    6.9567    1.2040    0.0000 C   0  0  0  0  0  0  0  0  0  0  0  0
    7.9029    1.5088    0.0000 C   0  0  0  0  0  0  0  0  0  0  0  0
    8.2136   -1.0512    0.0000 C   0  0  0  0  0  0  0  0  0  0  0  0
    6.0907   -0.2960    0.0000 C   0  0  0  0  0  0  0  0  0  0  0  0
    7.5457   -1.7955    0.0000 C   0  0  0  0  0  0  0  0  0  0  0  0
    6.0907    1.7040    0.0000 C   0  0  0  0  0  0  0  0  0  0  0  0
    9.4865    0.7040    0.0000 C   0  0  0  0  0  0  0  0  0  0  0  0
    8.2136    2.4593    0.0000 C   0  0  0  0  0  0  0  0  0  0  0  0
    5.2246    0.2040    0.0000 C   0  0  0  0  0  0  0  0  0  0  0  0
    5.2246    1.2040    0.0000 C   0  0  0  0  0  0  0  0  0  0  0  0
    6.5672   -1.5893    0.0000 C   0  0  0  0  0  0  0  0  0  0  0  0
    7.8564   -2.7461    0.0000 C   0  0  0  0  0  0  0  0  0  0  0  0
    9.1921    2.6655    0.0000 C   0  0  0  0  0  0  0  0  0  0  0  0
    5.8994   -2.3336    0.0000 C   0  0  0  0  0  0  0  0  0  0  0  0
    7.1885   -3.4904    0.0000 C   0  0  0  0  0  0  0  0  0  0  0  0
    6.2100   -3.2841    0.0000 C   0  0  0  0  0  0  0  0  0  0  0  0
    9.5027    3.6160    0.0000 C   0  0  0  0  0  0  0  0  0  0  0  0
    9.8599    1.9212    0.0000 C   0  0  0  0  0  0  0  0  0  0  0  0
    4.2530   -2.8717    0.0000 C   0  0  2  0  0  0  0  0  0  0  0  0
   10.4812    3.8222    0.0000 C   0  0  0  0  0  0  0  0  0  0  0  0
   10.8384    2.1274    0.0000 C   0  0  0  0  0  0  0  0  0  0  0  0
    3.4926    0.2040    0.0000 C   0  0  0  0  0  0  0  0  0  0  0  0
   11.1491    3.0779    0.0000 C   0  0  0  0  0  0  0  0  0  0  0  0
    4.5637   -3.8222    0.0000 C   0  0  0  0  0  0  0  0  0  0  0  0
    3.2745   -2.6655    0.0000 C   0  0  0  0  0  0  0  0  0  0  0  0
    8.5961   -1.5391    0.0000 H   0  0  0  0  0  0  0  0  0  0  0  0
    8.7605   -0.7592    0.0000 H   0  0  0  0  0  0  0  0  0  0  0  0
    6.0907   -0.9160    0.0000 H   0  0  0  0  0  0  0  0  0  0  0  0
    6.0907    2.3240    0.0000 H   0  0  0  0  0  0  0  0  0  0  0  0
    9.4865    0.0840    0.0000 H   0  0  0  0  0  0  0  0  0  0  0  0
   10.1065    0.7040    0.0000 H   0  0  0  0  0  0  0  0  0  0  0  0
    9.4865    1.3240    0.0000 H   0  0  0  0  0  0  0  0  0  0  0  0
    4.6877    1.5140    0.0000 H   0  0  0  0  0  0  0  0  0  0  0  0
    6.3746   -1.0000    0.0000 H   0  0  0  0  0  0  0  0  0  0  0  0
    8.4631   -2.8739    0.0000 H   0  0  0  0  0  0  0  0  0  0  0  0
    7.3812   -4.0797    0.0000 H   0  0  0  0  0  0  0  0  0  0  0  0
    5.7960   -3.7456    0.0000 H   0  0  0  0  0  0  0  0  0  0  0  0
    9.0887    4.0775    0.0000 H   0  0  0  0  0  0  0  0  0  0  0  0
    9.6673    1.3319    0.0000 H   0  0  0  0  0  0  0  0  0  0  0  0
    4.0604   -2.2824    0.0000 H   0  0  0  0  0  0  0  0  0  0  0  0
   10.6739    4.4116    0.0000 H   0  0  0  0  0  0  0  0  0  0  0  0
   11.2525    1.6659    0.0000 H   0  0  0  0  0  0  0  0  0  0  0  0
    3.9744   -4.0148    0.0000 H   0  0  0  0  0  0  0  0  0  0  0  0
    4.7563   -4.4116    0.0000 H   0  0  0  0  0  0  0  0  0  0  0  0
    5.1530   -3.6296    0.0000 H   0  0  0  0  0  0  0  0  0  0  0  0
    2.0000   -3.2819    0.0000 H   0  0  0  0  0  0  0  0  0  0  0  0
  1 35  1  0  0  0  0
  2 34  1  0  0  0  0
  3 34  1  0  0  0  0
  4 34  1  0  0  0  0
  5 21  1  0  0  0  0
  5 34  1  0  0  0  0
  6 20  2  0  0  0  0
  7 26  1  0  0  0  0
 31  7  1  6  0  0  0
  8 37  1  0  0  0  0
  8 58  1  0  0  0  0
  9 37  2  0  0  0  0
 10 11  1  0  0  0  0
 10 12  1  0  0  0  0
 10 15  1  0  0  0  0
 11 13  2  0  0  0  0
 11 16  1  0  0  0  0
 12 14  2  0  0  0  0
 12 19  1  0  0  0  0
 13 14  1  0  0  0  0
 13 18  1  0  0  0  0
 14 20  1  0  0  0  0
 15 17  1  0  0  0  0
 15 38  1  0  0  0  0
 15 39  1  0  0  0  0
 16 21  2  0  0  0  0
 16 40  1  0  0  0  0
 17 23  2  0  0  0  0
 17 24  1  0  0  0  0
 18 22  2  0  0  0  0
 18 41  1  0  0  0  0
 19 42  1  0  0  0  0
 19 43  1  0  0  0  0
 19 44  1  0  0  0  0
 20 25  1  0  0  0  0
 21 22  1  0  0  0  0
 22 45  1  0  0  0  0
 23 26  1  0  0  0  0
 23 46  1  0  0  0  0
 24 27  2  0  0  0  0
 24 47  1  0  0  0  0
 25 29  2  0  0  0  0
 25 30  1  0  0  0  0
 26 28  2  0  0  0  0
 27 28  1  0  0  0  0
 27 48  1  0  0  0  0
 28 49  1  0  0  0  0
 29 32  1  0  0  0  0
 29 50  1  0  0  0  0
 30 33  2  0  0  0  0
 30 51  1  0  0  0  0
 31 36  1  0  0  0  0
 31 37  1  0  0  0  0
 31 52  1  0  0  0  0
 32 35  2  0  0  0  0
 32 53  1  0  0  0  0
 33 35  1  0  0  0  0
 33 54  1  0  0  0  0
 36 55  1  0  0  0  0
 36 56  1  0  0  0  0
 36 57  1  0  0  0  0
M  END
> <PUBCHEM_COMPOUND_CID>
44190762

> <PUBCHEM_COMPOUND_CANONICALIZED>
1

> <PUBCHEM_CACTVS_COMPLEXITY>
805

> <PUBCHEM_CACTVS_HBOND_ACCEPTOR>
8

> <PUBCHEM_CACTVS_HBOND_DONOR>
1

> <PUBCHEM_CACTVS_ROTATABLE_BOND>
8

> <PUBCHEM_CACTVS_SUBSKEYS>
AAADceB6OYAEAAAAAAAAAAAAAAAAAWAAAAAwYMAAAAAAAFgB9AAAHwIACAAADB7hnjYyzvMMFgCoA6TyTAKCiCAlJyAI2CF+btgNJvrFt5+GeajmwBnL6ce82POOpAABAgACAABIAAIEAAQAAAAAAAAAAA==

> <PUBCHEM_IUPAC_OPENEYE_NAME>
(2R)-2-[3-[[3-(4-chlorobenzoyl)-2-methyl-6-(trifluoromethoxy)indol-1-yl]methyl]phenoxy]propanoic acid

> <PUBCHEM_IUPAC_CAS_NAME>
(2R)-2-[3-[[3-[(4-chlorophenyl)-oxomethyl]-2-methyl-6-(trifluoromethoxy)-1-indolyl]methyl]phenoxy]propanoic acid

> <PUBCHEM_IUPAC_NAME_MARKUP>
(2<I>R</I>)-2-[3-[[3-(4-chlorobenzoyl)-2-methyl-6-(trifluoromethoxy)indol-1-yl]methyl]phenoxy]propanoic acid

> <PUBCHEM_IUPAC_NAME>
(2R)-2-[3-[[3-(4-chlorobenzoyl)-2-methyl-6-(trifluoromethoxy)indol-1-yl]methyl]phenoxy]propanoic acid

> <PUBCHEM_IUPAC_SYSTEMATIC_NAME>
(2R)-2-[3-[[3-(4-chlorophenyl)carbonyl-2-methyl-6-(trifluoromethyloxy)indol-1-yl]methyl]phenoxy]propanoic acid

> <PUBCHEM_IUPAC_TRADITIONAL_NAME>
(2R)-2-[3-[[3-(4-chlorobenzoyl)-2-methyl-6-(trifluoromethoxy)indol-1-yl]methyl]phenoxy]propionic acid

> <PUBCHEM_IUPAC_INCHI>
InChI=1S/C27H21ClF3NO5/c1-15-24(25(33)18-6-8-19(28)9-7-18)22-11-10-21(37-27(29,30)31)13-23(22)32(15)14-17-4-3-5-20(12-17)36-16(2)26(34)35/h3-13,16H,14H2,1-2H3,(H,34,35)/t16-/m1/s1

> <PUBCHEM_IUPAC_INCHIKEY>
DHUATBAZHILHIC-MRXNPFEDSA-N

> <PUBCHEM_XLOGP3_AA>
7.1

> <PUBCHEM_EXACT_MASS>
531.1060350

> <PUBCHEM_MOLECULAR_FORMULA>
C27H21ClF3NO5

> <PUBCHEM_MOLECULAR_WEIGHT>
531.9

> <PUBCHEM_OPENEYE_CAN_SMILES>
CC1=C(C2=C(N1CC3=CC(=CC=C3)OC(C)C(=O)O)C=C(C=C2)OC(F)(F)F)C(=O)C4=CC=C(C=C4)Cl

> <PUBCHEM_OPENEYE_ISO_SMILES>
CC1=C(C2=C(N1CC3=CC(=CC=C3)O[C@H](C)C(=O)O)C=C(C=C2)OC(F)(F)F)C(=O)C4=CC=C(C=C4)Cl

> <PUBCHEM_CACTVS_TPSA>
77.8

> <PUBCHEM_MONOISOTOPIC_WEIGHT>
531.1060350

> <PUBCHEM_TOTAL_CHARGE>
0

> <PUBCHEM_HEAVY_ATOM_COUNT>
37

> <PUBCHEM_ATOM_DEF_STEREO_COUNT>
1

> <PUBCHEM_ATOM_UDEF_STEREO_COUNT>
0

> <PUBCHEM_BOND_DEF_STEREO_COUNT>
0

> <PUBCHEM_BOND_UDEF_STEREO_COUNT>
0

> <PUBCHEM_ISOTOPIC_ATOM_COUNT>
0

> <PUBCHEM_COMPONENT_COUNT>
1

> <PUBCHEM_CACTVS_TAUTO_COUNT>
-1

> <PUBCHEM_COORDINATE_TYPE>
1
5
255

> <PUBCHEM_BONDANNOTATIONS>
10  11  8
10  12  8
11  13  8
11  16  8
12  14  8
13  14  8
13  18  8
16  21  8
17  23  8
17  24  8
18  22  8
21  22  8
23  26  8
24  27  8
25  29  8
25  30  8
26  28  8
27  28  8
29  32  8
30  33  8
32  35  8
33  35  8
31  7  6

$$$$
