44372154
  -OEChem-09292322512D

 55 59  0     0  0  0  0  0  0999 V2000
   11.8385    3.8304    0.0000 Cl  0  0  0  0  0  0  0  0  0  0  0  0
    2.8660   -4.3684    0.0000 F   0  0  0  0  0  0  0  0  0  0  0  0
    5.9674    2.5930    0.0000 N   0  0  0  0  0  0  0  0  0  0  0  0
    7.9244    3.0055    0.0000 N   0  0  0  0  0  0  0  0  0  0  0  0
    3.7320    0.1316    0.0000 N   0  0  0  0  0  0  0  0  0  0  0  0
    4.6783   -0.1732    0.0000 N   0  0  0  0  0  0  0  0  0  0  0  0
    6.6353    1.8487    0.0000 C   0  0  0  0  0  0  0  0  0  0  0  0
    6.2781    3.5436    0.0000 C   0  0  0  0  0  0  0  0  0  0  0  0
    7.6138    2.0550    0.0000 C   0  0  0  0  0  0  0  0  0  0  0  0
    7.2566    3.7498    0.0000 C   0  0  0  0  0  0  0  0  0  0  0  0
    4.9889    2.3868    0.0000 C   0  0  0  0  0  0  0  0  0  0  0  0
    4.6783    1.4363    0.0000 C   0  0  0  0  0  0  0  0  0  0  0  0
    3.7320    1.1316    0.0000 C   0  0  0  0  0  0  0  0  0  0  0  0
    8.9030    3.2117    0.0000 C   0  0  0  0  0  0  0  0  0  0  0  0
    5.2619    0.6316    0.0000 C   0  0  0  0  0  0  0  0  0  0  0  0
    2.8660   -0.3684    0.0000 C   0  0  0  0  0  0  0  0  0  0  0  0
    2.8660    1.6316    0.0000 C   0  0  0  0  0  0  0  0  0  0  0  0
    9.5708    2.4674    0.0000 C   0  0  0  0  0  0  0  0  0  0  0  0
    9.2136    4.1622    0.0000 C   0  0  0  0  0  0  0  0  0  0  0  0
    6.2619    0.6316    0.0000 C   0  0  0  0  0  0  0  0  0  0  0  0
    2.0000    0.1316    0.0000 C   0  0  0  0  0  0  0  0  0  0  0  0
    2.0000    1.1316    0.0000 C   0  0  0  0  0  0  0  0  0  0  0  0
    2.8660   -1.3684    0.0000 C   0  0  0  0  0  0  0  0  0  0  0  0
   10.5493    2.6736    0.0000 C   0  0  0  0  0  0  0  0  0  0  0  0
   10.1921    4.3684    0.0000 C   0  0  0  0  0  0  0  0  0  0  0  0
   10.8600    3.6241    0.0000 C   0  0  0  0  0  0  0  0  0  0  0  0
    3.7320   -1.8684    0.0000 C   0  0  0  0  0  0  0  0  0  0  0  0
    2.0000   -1.8684    0.0000 C   0  0  0  0  0  0  0  0  0  0  0  0
    3.7320   -2.8684    0.0000 C   0  0  0  0  0  0  0  0  0  0  0  0
    2.0000   -2.8684    0.0000 C   0  0  0  0  0  0  0  0  0  0  0  0
    2.8660   -3.3684    0.0000 C   0  0  0  0  0  0  0  0  0  0  0  0
    6.1089    1.5211    0.0000 H   0  0  0  0  0  0  0  0  0  0  0  0
    6.8665    1.2735    0.0000 H   0  0  0  0  0  0  0  0  0  0  0  0
    6.2575    4.1632    0.0000 H   0  0  0  0  0  0  0  0  0  0  0  0
    5.6643    3.6309    0.0000 H   0  0  0  0  0  0  0  0  0  0  0  0
    7.6344    1.4353    0.0000 H   0  0  0  0  0  0  0  0  0  0  0  0
    8.2276    1.9676    0.0000 H   0  0  0  0  0  0  0  0  0  0  0  0
    7.7830    4.0774    0.0000 H   0  0  0  0  0  0  0  0  0  0  0  0
    7.0254    4.3250    0.0000 H   0  0  0  0  0  0  0  0  0  0  0  0
    4.9684    3.0065    0.0000 H   0  0  0  0  0  0  0  0  0  0  0  0
    4.3751    2.4742    0.0000 H   0  0  0  0  0  0  0  0  0  0  0  0
    2.8660    2.2516    0.0000 H   0  0  0  0  0  0  0  0  0  0  0  0
    9.3782    1.8781    0.0000 H   0  0  0  0  0  0  0  0  0  0  0  0
    8.7996    4.6237    0.0000 H   0  0  0  0  0  0  0  0  0  0  0  0
    6.2619    0.0116    0.0000 H   0  0  0  0  0  0  0  0  0  0  0  0
    6.8819    0.6316    0.0000 H   0  0  0  0  0  0  0  0  0  0  0  0
    6.2619    1.2516    0.0000 H   0  0  0  0  0  0  0  0  0  0  0  0
    1.4631   -0.1784    0.0000 H   0  0  0  0  0  0  0  0  0  0  0  0
    1.4631    1.4416    0.0000 H   0  0  0  0  0  0  0  0  0  0  0  0
   10.9634    2.2121    0.0000 H   0  0  0  0  0  0  0  0  0  0  0  0
   10.3847    4.9578    0.0000 H   0  0  0  0  0  0  0  0  0  0  0  0
    4.2690   -1.5584    0.0000 H   0  0  0  0  0  0  0  0  0  0  0  0
    1.4631   -1.5584    0.0000 H   0  0  0  0  0  0  0  0  0  0  0  0
    4.2690   -3.1784    0.0000 H   0  0  0  0  0  0  0  0  0  0  0  0
    1.4631   -3.1784    0.0000 H   0  0  0  0  0  0  0  0  0  0  0  0
  1 26  1  0  0  0  0
  2 31  1  0  0  0  0
  3  7  1  0  0  0  0
  3  8  1  0  0  0  0
  3 11  1  0  0  0  0
  4  9  1  0  0  0  0
  4 10  1  0  0  0  0
  4 14  1  0  0  0  0
  5  6  1  0  0  0  0
  5 13  1  0  0  0  0
  5 16  1  0  0  0  0
  6 15  2  0  0  0  0
  7  9  1  0  0  0  0
  7 32  1  0  0  0  0
  7 33  1  0  0  0  0
  8 10  1  0  0  0  0
  8 34  1  0  0  0  0
  8 35  1  0  0  0  0
  9 36  1  0  0  0  0
  9 37  1  0  0  0  0
 10 38  1  0  0  0  0
 10 39  1  0  0  0  0
 11 12  1  0  0  0  0
 11 40  1  0  0  0  0
 11 41  1  0  0  0  0
 12 13  2  0  0  0  0
 12 15  1  0  0  0  0
 13 17  1  0  0  0  0
 14 18  2  0  0  0  0
 14 19  1  0  0  0  0
 15 20  1  0  0  0  0
 16 21  2  0  0  0  0
 16 23  1  0  0  0  0
 17 22  2  0  0  0  0
 17 42  1  0  0  0  0
 18 24  1  0  0  0  0
 18 43  1  0  0  0  0
 19 25  2  0  0  0  0
 19 44  1  0  0  0  0
 20 45  1  0  0  0  0
 20 46  1  0  0  0  0
 20 47  1  0  0  0  0
 21 22  1  0  0  0  0
 21 48  1  0  0  0  0
 22 49  1  0  0  0  0
 23 27  2  0  0  0  0
 23 28  1  0  0  0  0
 24 26  2  0  0  0  0
 24 50  1  0  0  0  0
 25 26  1  0  0  0  0
 25 51  1  0  0  0  0
 27 29  1  0  0  0  0
 27 52  1  0  0  0  0
 28 30  2  0  0  0  0
 28 53  1  0  0  0  0
 29 31  2  0  0  0  0
 29 54  1  0  0  0  0
 30 31  1  0  0  0  0
 30 55  1  0  0  0  0
M  END
> <PUBCHEM_COMPOUND_CID>
44372154

> <PUBCHEM_COMPOUND_CANONICALIZED>
1

> <PUBCHEM_CACTVS_COMPLEXITY>
570

> <PUBCHEM_CACTVS_HBOND_ACCEPTOR>
4

> <PUBCHEM_CACTVS_HBOND_DONOR>
0

> <PUBCHEM_CACTVS_ROTATABLE_BOND>
4

> <PUBCHEM_CACTVS_SUBSKEYS>
AAADceB7gQAEAAAAAAAAAAAAAAAAAWAAAAA8eIEAAAAAAFgB9AAAHQIIAAAADArBHiwywLMIEACiAyRiRACShCAhByAYmCA4ZpgIYOLB09GUpAhgiADIyAcQgMAOAABAAAAAAAAAAIAAAAAAAAAAAAAAAA==

> <PUBCHEM_IUPAC_OPENEYE_NAME>
3-[[4-(4-chlorophenyl)piperazin-1-yl]methyl]-7-(4-fluorophenyl)-2-methyl-pyrazolo[1,5-a]pyridine

> <PUBCHEM_IUPAC_CAS_NAME>
3-[[4-(4-chlorophenyl)-1-piperazinyl]methyl]-7-(4-fluorophenyl)-2-methylpyrazolo[1,5-a]pyridine

> <PUBCHEM_IUPAC_NAME_MARKUP>
3-[[4-(4-chlorophenyl)piperazin-1-yl]methyl]-7-(4-fluorophenyl)-2-methylpyrazolo[1,5-a]pyridine

> <PUBCHEM_IUPAC_NAME>
3-[[4-(4-chlorophenyl)piperazin-1-yl]methyl]-7-(4-fluorophenyl)-2-methylpyrazolo[1,5-a]pyridine

> <PUBCHEM_IUPAC_SYSTEMATIC_NAME>
3-[[4-(4-chlorophenyl)piperazin-1-yl]methyl]-7-(4-fluorophenyl)-2-methyl-pyrazolo[1,5-a]pyridine

> <PUBCHEM_IUPAC_TRADITIONAL_NAME>
3-[[4-(4-chlorophenyl)piperazino]methyl]-7-(4-fluorophenyl)-2-methyl-pyrazolo[1,5-a]pyridine

> <PUBCHEM_IUPAC_INCHI>
InChI=1S/C25H24ClFN4/c1-18-23(17-29-13-15-30(16-14-29)22-11-7-20(26)8-12-22)25-4-2-3-24(31(25)28-18)19-5-9-21(27)10-6-19/h2-12H,13-17H2,1H3

> <PUBCHEM_IUPAC_INCHIKEY>
NSRMSZBPAQTJBS-UHFFFAOYSA-N

> <PUBCHEM_XLOGP3_AA>
5.3

> <PUBCHEM_EXACT_MASS>
434.1673526

> <PUBCHEM_MOLECULAR_FORMULA>
C25H24ClFN4

> <PUBCHEM_MOLECULAR_WEIGHT>
434.9

> <PUBCHEM_OPENEYE_CAN_SMILES>
CC1=NN2C(=C1CN3CCN(CC3)C4=CC=C(C=C4)Cl)C=CC=C2C5=CC=C(C=C5)F

> <PUBCHEM_OPENEYE_ISO_SMILES>
CC1=NN2C(=C1CN3CCN(CC3)C4=CC=C(C=C4)Cl)C=CC=C2C5=CC=C(C=C5)F

> <PUBCHEM_CACTVS_TPSA>
23.8

> <PUBCHEM_MONOISOTOPIC_WEIGHT>
434.1673526

> <PUBCHEM_TOTAL_CHARGE>
0

> <PUBCHEM_HEAVY_ATOM_COUNT>
31

> <PUBCHEM_ATOM_DEF_STEREO_COUNT>
0

> <PUBCHEM_ATOM_UDEF_STEREO_COUNT>
0

> <PUBCHEM_BOND_DEF_STEREO_COUNT>
0

> <PUBCHEM_BOND_UDEF_STEREO_COUNT>
0

> <PUBCHEM_ISOTOPIC_ATOM_COUNT>
0

> <PUBCHEM_COMPONENT_COUNT>
1

> <PUBCHEM_CACTVS_TAUTO_COUNT>
-1

> <PUBCHEM_COORDINATE_TYPE>
1
5
255

> <PUBCHEM_BONDANNOTATIONS>
12  13  8
12  15  8
13  17  8
14  18  8
14  19  8
16  21  8
17  22  8
18  24  8
19  25  8
21  22  8
23  27  8
23  28  8
24  26  8
25  26  8
27  29  8
28  30  8
29  31  8
30  31  8
5  13  8
5  16  8
5  6  8
6  15  8

$$$$
