132257265
  -OEChem-09292322452D

 56 58  0     0  0  0  0  0  0999 V2000
    2.0000   -3.0981    0.0000 Cl  0  0  0  0  0  0  0  0  0  0  0  0
    4.9641    0.7679    0.0000 F   0  0  0  0  0  0  0  0  0  0  0  0
    2.0000   -5.0981    0.0000 F   0  0  0  0  0  0  0  0  0  0  0  0
    6.3301   -3.5981    0.0000 O   0  0  0  0  0  0  0  0  0  0  0  0
    8.9641    2.5000    0.0000 O   0  0  0  0  0  0  0  0  0  0  0  0
    5.4641   -2.0981    0.0000 N   0  0  0  0  0  0  0  0  0  0  0  0
    6.9641    0.7679    0.0000 N   0  0  0  0  0  0  0  0  0  0  0  0
    9.9641    4.2320    0.0000 N   0  0  0  0  0  0  0  0  0  0  0  0
    5.4641   -0.0981    0.0000 C   0  0  0  0  0  0  0  0  0  0  0  0
    4.5981   -0.5981    0.0000 C   0  0  0  0  0  0  0  0  0  0  0  0
    6.3301   -0.5981    0.0000 C   0  0  0  0  0  0  0  0  0  0  0  0
    4.5981   -1.5981    0.0000 C   0  0  0  0  0  0  0  0  0  0  0  0
    6.3301   -1.5981    0.0000 C   0  0  0  0  0  0  0  0  0  0  0  0
    5.9641    0.7679    0.0000 C   0  0  0  0  0  0  0  0  0  0  0  0
    5.4641   -3.0981    0.0000 C   0  0  0  0  0  0  0  0  0  0  0  0
    7.4641    1.6340    0.0000 C   0  0  0  0  0  0  0  0  0  0  0  0
    4.5981   -3.5981    0.0000 C   0  0  0  0  0  0  0  0  0  0  0  0
    8.4641    1.6340    0.0000 C   0  0  0  0  0  0  0  0  0  0  0  0
    3.7320   -3.0981    0.0000 C   0  0  0  0  0  0  0  0  0  0  0  0
    4.5981   -4.5981    0.0000 C   0  0  0  0  0  0  0  0  0  0  0  0
    2.8660   -3.5981    0.0000 C   0  0  0  0  0  0  0  0  0  0  0  0
    3.7320   -5.0981    0.0000 C   0  0  0  0  0  0  0  0  0  0  0  0
    2.8660   -4.5981    0.0000 C   0  0  0  0  0  0  0  0  0  0  0  0
    9.9641    2.5000    0.0000 C   0  0  0  0  0  0  0  0  0  0  0  0
   10.4641    3.3660    0.0000 C   0  0  0  0  0  0  0  0  0  0  0  0
   10.4641    1.6340    0.0000 C   0  0  0  0  0  0  0  0  0  0  0  0
   11.4641    3.3660    0.0000 C   0  0  0  0  0  0  0  0  0  0  0  0
   11.4641    1.6340    0.0000 C   0  0  0  0  0  0  0  0  0  0  0  0
   11.9641    2.5000    0.0000 C   0  0  0  0  0  0  0  0  0  0  0  0
   10.4641    5.0981    0.0000 C   0  0  0  0  0  0  0  0  0  0  0  0
    4.3860   -0.0155    0.0000 H   0  0  0  0  0  0  0  0  0  0  0  0
    3.9875   -0.7057    0.0000 H   0  0  0  0  0  0  0  0  0  0  0  0
    6.9407   -0.7057    0.0000 H   0  0  0  0  0  0  0  0  0  0  0  0
    6.5422   -0.0155    0.0000 H   0  0  0  0  0  0  0  0  0  0  0  0
    3.9875   -1.4904    0.0000 H   0  0  0  0  0  0  0  0  0  0  0  0
    4.3860   -2.1807    0.0000 H   0  0  0  0  0  0  0  0  0  0  0  0
    6.5422   -2.1807    0.0000 H   0  0  0  0  0  0  0  0  0  0  0  0
    6.9407   -1.4904    0.0000 H   0  0  0  0  0  0  0  0  0  0  0  0
    6.0718    1.3785    0.0000 H   0  0  0  0  0  0  0  0  0  0  0  0
    5.3815    0.9800    0.0000 H   0  0  0  0  0  0  0  0  0  0  0  0
    7.2741    0.2310    0.0000 H   0  0  0  0  0  0  0  0  0  0  0  0
    7.5718    2.2446    0.0000 H   0  0  0  0  0  0  0  0  0  0  0  0
    6.8815    1.8460    0.0000 H   0  0  0  0  0  0  0  0  0  0  0  0
    8.3564    1.0234    0.0000 H   0  0  0  0  0  0  0  0  0  0  0  0
    9.0467    1.4219    0.0000 H   0  0  0  0  0  0  0  0  0  0  0  0
    3.7320   -2.4781    0.0000 H   0  0  0  0  0  0  0  0  0  0  0  0
    5.1350   -4.9081    0.0000 H   0  0  0  0  0  0  0  0  0  0  0  0
    3.7320   -5.7181    0.0000 H   0  0  0  0  0  0  0  0  0  0  0  0
   10.1541    1.0970    0.0000 H   0  0  0  0  0  0  0  0  0  0  0  0
   11.7741    3.9030    0.0000 H   0  0  0  0  0  0  0  0  0  0  0  0
   11.7741    1.0970    0.0000 H   0  0  0  0  0  0  0  0  0  0  0  0
    9.3441    4.2320    0.0000 H   0  0  0  0  0  0  0  0  0  0  0  0
   12.5841    2.5000    0.0000 H   0  0  0  0  0  0  0  0  0  0  0  0
   11.0010    4.7881    0.0000 H   0  0  0  0  0  0  0  0  0  0  0  0
   10.7741    5.6350    0.0000 H   0  0  0  0  0  0  0  0  0  0  0  0
    9.9272    5.4081    0.0000 H   0  0  0  0  0  0  0  0  0  0  0  0
  1 21  1  0  0  0  0
  2  9  1  0  0  0  0
  3 23  1  0  0  0  0
  4 15  2  0  0  0  0
  5 18  1  0  0  0  0
  5 24  1  0  0  0  0
  6 12  1  0  0  0  0
  6 13  1  0  0  0  0
  6 15  1  0  0  0  0
  7 14  1  0  0  0  0
  7 16  1  0  0  0  0
  7 41  1  0  0  0  0
  8 25  1  0  0  0  0
  8 30  1  0  0  0  0
  8 52  1  0  0  0  0
  9 10  1  0  0  0  0
  9 11  1  0  0  0  0
  9 14  1  0  0  0  0
 10 12  1  0  0  0  0
 10 31  1  0  0  0  0
 10 32  1  0  0  0  0
 11 13  1  0  0  0  0
 11 33  1  0  0  0  0
 11 34  1  0  0  0  0
 12 35  1  0  0  0  0
 12 36  1  0  0  0  0
 13 37  1  0  0  0  0
 13 38  1  0  0  0  0
 14 39  1  0  0  0  0
 14 40  1  0  0  0  0
 15 17  1  0  0  0  0
 16 18  1  0  0  0  0
 16 42  1  0  0  0  0
 16 43  1  0  0  0  0
 17 19  2  0  0  0  0
 17 20  1  0  0  0  0
 18 44  1  0  0  0  0
 18 45  1  0  0  0  0
 19 21  1  0  0  0  0
 19 46  1  0  0  0  0
 20 22  2  0  0  0  0
 20 47  1  0  0  0  0
 21 23  2  0  0  0  0
 22 23  1  0  0  0  0
 22 48  1  0  0  0  0
 24 25  1  0  0  0  0
 24 26  2  0  0  0  0
 25 27  2  0  0  0  0
 26 28  1  0  0  0  0
 26 49  1  0  0  0  0
 27 29  1  0  0  0  0
 27 50  1  0  0  0  0
 28 29  2  0  0  0  0
 28 51  1  0  0  0  0
 29 53  1  0  0  0  0
 30 54  1  0  0  0  0
 30 55  1  0  0  0  0
 30 56  1  0  0  0  0
M  END
> <PUBCHEM_COMPOUND_CID>
132257265

> <PUBCHEM_COMPOUND_CANONICALIZED>
1

> <PUBCHEM_CACTVS_COMPLEXITY>
549

> <PUBCHEM_CACTVS_HBOND_ACCEPTOR>
6

> <PUBCHEM_CACTVS_HBOND_DONOR>
2

> <PUBCHEM_CACTVS_ROTATABLE_BOND>
8

> <PUBCHEM_CACTVS_SUBSKEYS>
AAADceB7MYAEAAAAAAAAAAAAAAAAAAAAAAA8YIAAAAAAAAABQAAAHwIQAAAADA7hmC4yxoPABACIAiVSUACCCAAlJwAIiIEPbsgOJjLFt5uHOSjk1hHY6YeYyACOAAAAIAAAEAAAAABAAAAgAAAAAAAAAA==

> <PUBCHEM_IUPAC_OPENEYE_NAME>
(3-chloro-4-fluoro-phenyl)-[4-fluoro-4-[[2-[2-(methylamino)phenoxy]ethylamino]methyl]-1-piperidyl]methanone

> <PUBCHEM_IUPAC_CAS_NAME>
(3-chloro-4-fluorophenyl)-[4-fluoro-4-[[2-[2-(methylamino)phenoxy]ethylamino]methyl]-1-piperidinyl]methanone

> <PUBCHEM_IUPAC_NAME_MARKUP>
(3-chloro-4-fluorophenyl)-[4-fluoro-4-[[2-[2-(methylamino)phenoxy]ethylamino]methyl]piperidin-1-yl]methanone

> <PUBCHEM_IUPAC_NAME>
(3-chloro-4-fluorophenyl)-[4-fluoro-4-[[2-[2-(methylamino)phenoxy]ethylamino]methyl]piperidin-1-yl]methanone

> <PUBCHEM_IUPAC_SYSTEMATIC_NAME>
(3-chloranyl-4-fluoranyl-phenyl)-[4-fluoranyl-4-[[2-[2-(methylamino)phenoxy]ethylamino]methyl]piperidin-1-yl]methanone

> <PUBCHEM_IUPAC_TRADITIONAL_NAME>
(3-chloro-4-fluoro-phenyl)-[4-fluoro-4-[[2-[2-(methylamino)phenoxy]ethylamino]methyl]piperidino]methanone

> <PUBCHEM_IUPAC_INCHI>
InChI=1S/C22H26ClF2N3O2/c1-26-19-4-2-3-5-20(19)30-13-10-27-15-22(25)8-11-28(12-9-22)21(29)16-6-7-18(24)17(23)14-16/h2-7,14,26-27H,8-13,15H2,1H3

> <PUBCHEM_IUPAC_INCHIKEY>
GKXSCSYAOOOLAP-UHFFFAOYSA-N

> <PUBCHEM_XLOGP3_AA>
4

> <PUBCHEM_EXACT_MASS>
437.1681611

> <PUBCHEM_MOLECULAR_FORMULA>
C22H26ClF2N3O2

> <PUBCHEM_MOLECULAR_WEIGHT>
437.9

> <PUBCHEM_OPENEYE_CAN_SMILES>
CNC1=CC=CC=C1OCCNCC2(CCN(CC2)C(=O)C3=CC(=C(C=C3)F)Cl)F

> <PUBCHEM_OPENEYE_ISO_SMILES>
CNC1=CC=CC=C1OCCNCC2(CCN(CC2)C(=O)C3=CC(=C(C=C3)F)Cl)F

> <PUBCHEM_CACTVS_TPSA>
53.6

> <PUBCHEM_MONOISOTOPIC_WEIGHT>
437.1681611

> <PUBCHEM_TOTAL_CHARGE>
0

> <PUBCHEM_HEAVY_ATOM_COUNT>
30

> <PUBCHEM_ATOM_DEF_STEREO_COUNT>
0

> <PUBCHEM_ATOM_UDEF_STEREO_COUNT>
0

> <PUBCHEM_BOND_DEF_STEREO_COUNT>
0

> <PUBCHEM_BOND_UDEF_STEREO_COUNT>
0

> <PUBCHEM_ISOTOPIC_ATOM_COUNT>
0

> <PUBCHEM_COMPONENT_COUNT>
1

> <PUBCHEM_CACTVS_TAUTO_COUNT>
-1

> <PUBCHEM_COORDINATE_TYPE>
1
5
255

> <PUBCHEM_BONDANNOTATIONS>
17  19  8
17  20  8
19  21  8
20  22  8
21  23  8
22  23  8
24  25  8
24  26  8
25  27  8
26  28  8
27  29  8
28  29  8

$$$$
