127027384
  -OEChem-09292322362D

 66 69  0     0  0  0  0  0  0999 V2000
    2.8660   -1.0173    0.0000 S   0  0  0  0  0  0  0  0  0  0  0  0
   14.1244   -0.5173    0.0000 O   0  0  0  0  0  0  0  0  0  0  0  0
    2.3660   -0.1513    0.0000 O   0  0  0  0  0  0  0  0  0  0  0  0
    3.3660   -1.8834    0.0000 O   0  0  0  0  0  0  0  0  0  0  0  0
    8.9282    0.4827    0.0000 N   0  0  0  0  0  0  0  0  0  0  0  0
    7.1962   -0.5173    0.0000 N   0  0  0  0  0  0  0  0  0  0  0  0
   13.2583    0.9827    0.0000 N   0  0  0  0  0  0  0  0  0  0  0  0
    3.7320   -0.5173    0.0000 N   0  0  0  0  0  0  0  0  0  0  0  0
    8.0622    0.9827    0.0000 C   0  0  0  0  0  0  0  0  0  0  0  0
    8.9282   -0.5173    0.0000 C   0  0  0  0  0  0  0  0  0  0  0  0
    7.1962    0.4827    0.0000 C   0  0  0  0  0  0  0  0  0  0  0  0
    8.0622   -1.0173    0.0000 C   0  0  0  0  0  0  0  0  0  0  0  0
    9.7942    0.9827    0.0000 C   0  0  0  0  0  0  0  0  0  0  0  0
   10.6603    0.4827    0.0000 C   0  0  0  0  0  0  0  0  0  0  0  0
    6.3301   -1.0173    0.0000 C   0  0  0  0  0  0  0  0  0  0  0  0
   11.5263    0.9827    0.0000 C   0  0  0  0  0  0  0  0  0  0  0  0
   12.3923    0.4827    0.0000 C   0  0  0  0  0  0  0  0  0  0  0  0
    5.4641   -0.5173    0.0000 C   0  0  0  0  0  0  0  0  0  0  0  0
    6.3301   -2.0173    0.0000 C   0  0  0  0  0  0  0  0  0  0  0  0
    4.5981   -1.0173    0.0000 C   0  0  0  0  0  0  0  0  0  0  0  0
    5.4641   -2.5173    0.0000 C   0  0  0  0  0  0  0  0  0  0  0  0
    4.5981   -2.0173    0.0000 C   0  0  0  0  0  0  0  0  0  0  0  0
   14.1244    0.4827    0.0000 C   0  0  0  0  0  0  0  0  0  0  0  0
   14.9904    0.9827    0.0000 C   0  0  0  0  0  0  0  0  0  0  0  0
   15.8564    0.4827    0.0000 C   0  0  0  0  0  0  0  0  0  0  0  0
   16.7224    0.9827    0.0000 C   0  0  0  0  0  0  0  0  0  0  0  0
   14.9904    1.9827    0.0000 C   0  0  0  0  0  0  0  0  0  0  0  0
    2.0000   -1.5173    0.0000 C   0  0  0  0  0  0  0  0  0  0  0  0
   16.7224    1.9827    0.0000 C   0  0  0  0  0  0  0  0  0  0  0  0
   15.8564    2.4827    0.0000 C   0  0  0  0  0  0  0  0  0  0  0  0
   17.6164    0.4480    0.0000 C   0  0  0  0  0  0  0  0  0  0  0  0
   17.6164    2.5173    0.0000 C   0  0  0  0  0  0  0  0  0  0  0  0
   18.5224    0.9619    0.0000 C   0  0  0  0  0  0  0  0  0  0  0  0
   18.5224    2.0035    0.0000 C   0  0  0  0  0  0  0  0  0  0  0  0
    8.4607    1.4576    0.0000 H   0  0  0  0  0  0  0  0  0  0  0  0
    7.6636    1.4576    0.0000 H   0  0  0  0  0  0  0  0  0  0  0  0
    9.1403   -1.0999    0.0000 H   0  0  0  0  0  0  0  0  0  0  0  0
    9.5388   -0.4097    0.0000 H   0  0  0  0  0  0  0  0  0  0  0  0
    6.9841    1.0653    0.0000 H   0  0  0  0  0  0  0  0  0  0  0  0
    6.5856    0.3750    0.0000 H   0  0  0  0  0  0  0  0  0  0  0  0
    7.6636   -1.4923    0.0000 H   0  0  0  0  0  0  0  0  0  0  0  0
    8.4607   -1.4923    0.0000 H   0  0  0  0  0  0  0  0  0  0  0  0
   10.1928    1.4576    0.0000 H   0  0  0  0  0  0  0  0  0  0  0  0
    9.3957    1.4576    0.0000 H   0  0  0  0  0  0  0  0  0  0  0  0
   10.2617    0.0077    0.0000 H   0  0  0  0  0  0  0  0  0  0  0  0
   11.0588    0.0077    0.0000 H   0  0  0  0  0  0  0  0  0  0  0  0
   11.9248    1.4576    0.0000 H   0  0  0  0  0  0  0  0  0  0  0  0
   11.1278    1.4576    0.0000 H   0  0  0  0  0  0  0  0  0  0  0  0
   11.9938    0.0077    0.0000 H   0  0  0  0  0  0  0  0  0  0  0  0
   12.7908    0.0077    0.0000 H   0  0  0  0  0  0  0  0  0  0  0  0
    5.4641    0.1027    0.0000 H   0  0  0  0  0  0  0  0  0  0  0  0
    6.8671   -2.3273    0.0000 H   0  0  0  0  0  0  0  0  0  0  0  0
    5.4641   -3.1373    0.0000 H   0  0  0  0  0  0  0  0  0  0  0  0
   13.2583    1.6027    0.0000 H   0  0  0  0  0  0  0  0  0  0  0  0
    4.0611   -2.3273    0.0000 H   0  0  0  0  0  0  0  0  0  0  0  0
    3.7320    0.1027    0.0000 H   0  0  0  0  0  0  0  0  0  0  0  0
   15.8564   -0.1373    0.0000 H   0  0  0  0  0  0  0  0  0  0  0  0
   14.4534    2.2927    0.0000 H   0  0  0  0  0  0  0  0  0  0  0  0
    1.6900   -0.9804    0.0000 H   0  0  0  0  0  0  0  0  0  0  0  0
    1.4631   -1.8273    0.0000 H   0  0  0  0  0  0  0  0  0  0  0  0
    2.3100   -2.0543    0.0000 H   0  0  0  0  0  0  0  0  0  0  0  0
   15.8564    3.1027    0.0000 H   0  0  0  0  0  0  0  0  0  0  0  0
   17.6092   -0.1720    0.0000 H   0  0  0  0  0  0  0  0  0  0  0  0
   17.6092    3.1373    0.0000 H   0  0  0  0  0  0  0  0  0  0  0  0
   19.0582    0.6498    0.0000 H   0  0  0  0  0  0  0  0  0  0  0  0
   19.0582    2.3156    0.0000 H   0  0  0  0  0  0  0  0  0  0  0  0
  1  3  2  0  0  0  0
  1  4  2  0  0  0  0
  1  8  1  0  0  0  0
  1 28  1  0  0  0  0
  2 23  2  0  0  0  0
  5  9  1  0  0  0  0
  5 10  1  0  0  0  0
  5 13  1  0  0  0  0
  6 11  1  0  0  0  0
  6 12  1  0  0  0  0
  6 15  1  0  0  0  0
  7 17  1  0  0  0  0
  7 23  1  0  0  0  0
  7 54  1  0  0  0  0
  8 20  1  0  0  0  0
  8 56  1  0  0  0  0
  9 11  1  0  0  0  0
  9 35  1  0  0  0  0
  9 36  1  0  0  0  0
 10 12  1  0  0  0  0
 10 37  1  0  0  0  0
 10 38  1  0  0  0  0
 11 39  1  0  0  0  0
 11 40  1  0  0  0  0
 12 41  1  0  0  0  0
 12 42  1  0  0  0  0
 13 14  1  0  0  0  0
 13 43  1  0  0  0  0
 13 44  1  0  0  0  0
 14 16  1  0  0  0  0
 14 45  1  0  0  0  0
 14 46  1  0  0  0  0
 15 18  1  0  0  0  0
 15 19  2  0  0  0  0
 16 17  1  0  0  0  0
 16 47  1  0  0  0  0
 16 48  1  0  0  0  0
 17 49  1  0  0  0  0
 17 50  1  0  0  0  0
 18 20  2  0  0  0  0
 18 51  1  0  0  0  0
 19 21  1  0  0  0  0
 19 52  1  0  0  0  0
 20 22  1  0  0  0  0
 21 22  2  0  0  0  0
 21 53  1  0  0  0  0
 22 55  1  0  0  0  0
 23 24  1  0  0  0  0
 24 25  2  0  0  0  0
 24 27  1  0  0  0  0
 25 26  1  0  0  0  0
 25 57  1  0  0  0  0
 26 29  1  0  0  0  0
 26 31  2  0  0  0  0
 27 30  2  0  0  0  0
 27 58  1  0  0  0  0
 28 59  1  0  0  0  0
 28 60  1  0  0  0  0
 28 61  1  0  0  0  0
 29 30  1  0  0  0  0
 29 32  2  0  0  0  0
 30 62  1  0  0  0  0
 31 33  1  0  0  0  0
 31 63  1  0  0  0  0
 32 34  1  0  0  0  0
 32 64  1  0  0  0  0
 33 34  2  0  0  0  0
 33 65  1  0  0  0  0
 34 66  1  0  0  0  0
M  END
> <PUBCHEM_COMPOUND_CID>
127027384

> <PUBCHEM_COMPOUND_CANONICALIZED>
1

> <PUBCHEM_CACTVS_COMPLEXITY>
748

> <PUBCHEM_CACTVS_HBOND_ACCEPTOR>
6

> <PUBCHEM_CACTVS_HBOND_DONOR>
2

> <PUBCHEM_CACTVS_ROTATABLE_BOND>
9

> <PUBCHEM_CACTVS_SUBSKEYS>
AAADcfB7sABAAAAAAAAAAAAAAAAAAAAAAAA8YMEAAAAAAADBVAAAHgQQQAAADAjBmASywMPAAAKIAiVSUHCCAAAlAgAIiIEIZMgIYDLA1dGUIQhglgDIyYcYiMCOwAACAAQQAACAAAQACCAAAAAAAAAAAA==

> <PUBCHEM_IUPAC_OPENEYE_NAME>
N-[4-[4-[3-(methanesulfonamido)phenyl]piperazin-1-yl]butyl]naphthalene-2-carboxamide

> <PUBCHEM_IUPAC_CAS_NAME>
N-[4-[4-[3-(methanesulfonamido)phenyl]-1-piperazinyl]butyl]-2-naphthalenecarboxamide

> <PUBCHEM_IUPAC_NAME_MARKUP>
<I>N</I>-[4-[4-[3-(methanesulfonamido)phenyl]piperazin-1-yl]butyl]naphthalene-2-carboxamide

> <PUBCHEM_IUPAC_NAME>
N-[4-[4-[3-(methanesulfonamido)phenyl]piperazin-1-yl]butyl]naphthalene-2-carboxamide

> <PUBCHEM_IUPAC_SYSTEMATIC_NAME>
N-[4-[4-[3-(methylsulfonylamino)phenyl]piperazin-1-yl]butyl]naphthalene-2-carboxamide

> <PUBCHEM_IUPAC_TRADITIONAL_NAME>
N-[4-[4-[3-(methanesulfonamido)phenyl]piperazino]butyl]-2-naphthamide

> <PUBCHEM_IUPAC_INCHI>
InChI=1S/C26H32N4O3S/c1-34(32,33)28-24-9-6-10-25(20-24)30-17-15-29(16-18-30)14-5-4-13-27-26(31)23-12-11-21-7-2-3-8-22(21)19-23/h2-3,6-12,19-20,28H,4-5,13-18H2,1H3,(H,27,31)

> <PUBCHEM_IUPAC_INCHIKEY>
PVEJYMIAJKGDRP-UHFFFAOYSA-N

> <PUBCHEM_XLOGP3_AA>
3.8

> <PUBCHEM_EXACT_MASS>
480.21951207

> <PUBCHEM_MOLECULAR_FORMULA>
C26H32N4O3S

> <PUBCHEM_MOLECULAR_WEIGHT>
480.6

> <PUBCHEM_OPENEYE_CAN_SMILES>
CS(=O)(=O)NC1=CC(=CC=C1)N2CCN(CC2)CCCCNC(=O)C3=CC4=CC=CC=C4C=C3

> <PUBCHEM_OPENEYE_ISO_SMILES>
CS(=O)(=O)NC1=CC(=CC=C1)N2CCN(CC2)CCCCNC(=O)C3=CC4=CC=CC=C4C=C3

> <PUBCHEM_CACTVS_TPSA>
90.1

> <PUBCHEM_MONOISOTOPIC_WEIGHT>
480.21951207

> <PUBCHEM_TOTAL_CHARGE>
0

> <PUBCHEM_HEAVY_ATOM_COUNT>
34

> <PUBCHEM_ATOM_DEF_STEREO_COUNT>
0

> <PUBCHEM_ATOM_UDEF_STEREO_COUNT>
0

> <PUBCHEM_BOND_DEF_STEREO_COUNT>
0

> <PUBCHEM_BOND_UDEF_STEREO_COUNT>
0

> <PUBCHEM_ISOTOPIC_ATOM_COUNT>
0

> <PUBCHEM_COMPONENT_COUNT>
1

> <PUBCHEM_CACTVS_TAUTO_COUNT>
-1

> <PUBCHEM_COORDINATE_TYPE>
1
5
255

> <PUBCHEM_BONDANNOTATIONS>
15  18  8
15  19  8
18  20  8
19  21  8
20  22  8
21  22  8
24  25  8
24  27  8
25  26  8
26  29  8
26  31  8
27  30  8
29  30  8
29  32  8
31  33  8
32  34  8
33  34  8

$$$$
