166627466
  -OEChem-09292322442D

 66 69  0     1  0  0  0  0  0999 V2000
    3.4030   -2.2500    0.0000 Cl  0  0  0  0  0  0  0  0  0  0  0  0
    9.4651    3.2500    0.0000 O   0  0  0  0  0  0  0  0  0  0  0  0
    2.5369    3.2500    0.0000 O   0  0  0  0  0  0  0  0  0  0  0  0
    5.1350    0.7500    0.0000 N   0  0  0  0  0  0  0  0  0  0  0  0
    5.1350   -1.2500    0.0000 N   0  0  0  0  0  0  0  0  0  0  0  0
    4.2690    0.2500    0.0000 C   0  0  0  0  0  0  0  0  0  0  0  0
    6.0010    0.2500    0.0000 C   0  0  0  0  0  0  0  0  0  0  0  0
    5.1350    1.7500    0.0000 C   0  0  0  0  0  0  0  0  0  0  0  0
    4.2690   -0.7500    0.0000 C   0  0  0  0  0  0  0  0  0  0  0  0
    6.0010   -0.7500    0.0000 C   0  0  0  0  0  0  0  0  0  0  0  0
    6.0010    2.2500    0.0000 C   0  0  0  0  0  0  0  0  0  0  0  0
    6.0010    3.2500    0.0000 C   0  0  3  0  0  0  0  0  0  0  0  0
    5.1350   -2.2500    0.0000 C   0  0  0  0  0  0  0  0  0  0  0  0
    6.8671    3.7500    0.0000 C   0  0  0  0  0  0  0  0  0  0  0  0
    5.1350    3.7500    0.0000 C   0  0  0  0  0  0  0  0  0  0  0  0
    4.2690   -2.7500    0.0000 C   0  0  0  0  0  0  0  0  0  0  0  0
    6.0010   -2.7500    0.0000 C   0  0  0  0  0  0  0  0  0  0  0  0
    7.7331    3.2500    0.0000 C   0  0  0  0  0  0  0  0  0  0  0  0
    6.8671    4.7500    0.0000 C   0  0  0  0  0  0  0  0  0  0  0  0
    4.2690    3.2500    0.0000 C   0  0  0  0  0  0  0  0  0  0  0  0
    5.1350    4.7500    0.0000 C   0  0  0  0  0  0  0  0  0  0  0  0
    4.2690   -3.7500    0.0000 C   0  0  0  0  0  0  0  0  0  0  0  0
    6.0010   -3.7500    0.0000 C   0  0  0  0  0  0  0  0  0  0  0  0
    5.1350   -4.2500    0.0000 C   0  0  0  0  0  0  0  0  0  0  0  0
    8.5991    3.7500    0.0000 C   0  0  0  0  0  0  0  0  0  0  0  0
    3.4030   -4.2500    0.0000 C   0  0  0  0  0  0  0  0  0  0  0  0
    3.4030    3.7500    0.0000 C   0  0  0  0  0  0  0  0  0  0  0  0
    7.7331    5.2500    0.0000 C   0  0  0  0  0  0  0  0  0  0  0  0
    4.2690    5.2500    0.0000 C   0  0  0  0  0  0  0  0  0  0  0  0
    8.5991    4.7500    0.0000 C   0  0  0  0  0  0  0  0  0  0  0  0
    3.4030    4.7500    0.0000 C   0  0  0  0  0  0  0  0  0  0  0  0
    3.4030   -5.2500    0.0000 C   0  0  0  0  0  0  0  0  0  0  0  0
   10.3312    3.7500    0.0000 C   0  0  0  0  0  0  0  0  0  0  0  0
    4.0569    0.8326    0.0000 H   0  0  0  0  0  0  0  0  0  0  0  0
    3.6584    0.1423    0.0000 H   0  0  0  0  0  0  0  0  0  0  0  0
    6.6116    0.1423    0.0000 H   0  0  0  0  0  0  0  0  0  0  0  0
    6.2131    0.8326    0.0000 H   0  0  0  0  0  0  0  0  0  0  0  0
    4.9230    2.3326    0.0000 H   0  0  0  0  0  0  0  0  0  0  0  0
    4.5244    1.6423    0.0000 H   0  0  0  0  0  0  0  0  0  0  0  0
    3.6584   -0.6423    0.0000 H   0  0  0  0  0  0  0  0  0  0  0  0
    4.0569   -1.3326    0.0000 H   0  0  0  0  0  0  0  0  0  0  0  0
    6.2131   -1.3326    0.0000 H   0  0  0  0  0  0  0  0  0  0  0  0
    6.6116   -0.6423    0.0000 H   0  0  0  0  0  0  0  0  0  0  0  0
    6.2131    1.6674    0.0000 H   0  0  0  0  0  0  0  0  0  0  0  0
    6.6116    2.3577    0.0000 H   0  0  0  0  0  0  0  0  0  0  0  0
    6.5380    2.9400    0.0000 H   0  0  0  0  0  0  0  0  0  0  0  0
    6.5380   -2.4400    0.0000 H   0  0  0  0  0  0  0  0  0  0  0  0
    7.7331    2.6300    0.0000 H   0  0  0  0  0  0  0  0  0  0  0  0
    6.3301    5.0600    0.0000 H   0  0  0  0  0  0  0  0  0  0  0  0
    4.2690    2.6300    0.0000 H   0  0  0  0  0  0  0  0  0  0  0  0
    5.6720    5.0600    0.0000 H   0  0  0  0  0  0  0  0  0  0  0  0
    6.5380   -4.0600    0.0000 H   0  0  0  0  0  0  0  0  0  0  0  0
    5.1350   -4.8700    0.0000 H   0  0  0  0  0  0  0  0  0  0  0  0
    3.1909   -3.6674    0.0000 H   0  0  0  0  0  0  0  0  0  0  0  0
    2.7924   -4.3577    0.0000 H   0  0  0  0  0  0  0  0  0  0  0  0
    7.7331    5.8700    0.0000 H   0  0  0  0  0  0  0  0  0  0  0  0
    4.2690    5.8700    0.0000 H   0  0  0  0  0  0  0  0  0  0  0  0
    9.1360    5.0600    0.0000 H   0  0  0  0  0  0  0  0  0  0  0  0
    2.8660    5.0600    0.0000 H   0  0  0  0  0  0  0  0  0  0  0  0
    2.7830   -5.2500    0.0000 H   0  0  0  0  0  0  0  0  0  0  0  0
    3.4030   -5.8700    0.0000 H   0  0  0  0  0  0  0  0  0  0  0  0
    4.0230   -5.2500    0.0000 H   0  0  0  0  0  0  0  0  0  0  0  0
    2.0000    3.5600    0.0000 H   0  0  0  0  0  0  0  0  0  0  0  0
   10.6412    3.2131    0.0000 H   0  0  0  0  0  0  0  0  0  0  0  0
   10.8681    4.0600    0.0000 H   0  0  0  0  0  0  0  0  0  0  0  0
   10.0212    4.2869    0.0000 H   0  0  0  0  0  0  0  0  0  0  0  0
  1 16  1  0  0  0  0
  2 25  1  0  0  0  0
  2 33  1  0  0  0  0
  3 27  1  0  0  0  0
  3 63  1  0  0  0  0
  4  6  1  0  0  0  0
  4  7  1  0  0  0  0
  4  8  1  0  0  0  0
  5  9  1  0  0  0  0
  5 10  1  0  0  0  0
  5 13  1  0  0  0  0
  6  9  1  0  0  0  0
  6 34  1  0  0  0  0
  6 35  1  0  0  0  0
  7 10  1  0  0  0  0
  7 36  1  0  0  0  0
  7 37  1  0  0  0  0
  8 11  1  0  0  0  0
  8 38  1  0  0  0  0
  8 39  1  0  0  0  0
  9 40  1  0  0  0  0
  9 41  1  0  0  0  0
 10 42  1  0  0  0  0
 10 43  1  0  0  0  0
 11 12  1  0  0  0  0
 11 44  1  0  0  0  0
 11 45  1  0  0  0  0
 12 14  1  0  0  0  0
 12 15  1  0  0  0  0
 12 46  1  0  0  0  0
 13 16  1  0  0  0  0
 13 17  2  0  0  0  0
 14 18  2  0  0  0  0
 14 19  1  0  0  0  0
 15 20  2  0  0  0  0
 15 21  1  0  0  0  0
 16 22  2  0  0  0  0
 17 23  1  0  0  0  0
 17 47  1  0  0  0  0
 18 25  1  0  0  0  0
 18 48  1  0  0  0  0
 19 28  2  0  0  0  0
 19 49  1  0  0  0  0
 20 27  1  0  0  0  0
 20 50  1  0  0  0  0
 21 29  2  0  0  0  0
 21 51  1  0  0  0  0
 22 24  1  0  0  0  0
 22 26  1  0  0  0  0
 23 24  2  0  0  0  0
 23 52  1  0  0  0  0
 24 53  1  0  0  0  0
 25 30  2  0  0  0  0
 26 32  1  0  0  0  0
 26 54  1  0  0  0  0
 26 55  1  0  0  0  0
 27 31  2  0  0  0  0
 28 30  1  0  0  0  0
 28 56  1  0  0  0  0
 29 31  1  0  0  0  0
 29 57  1  0  0  0  0
 30 58  1  0  0  0  0
 31 59  1  0  0  0  0
 32 60  1  0  0  0  0
 32 61  1  0  0  0  0
 32 62  1  0  0  0  0
 33 64  1  0  0  0  0
 33 65  1  0  0  0  0
 33 66  1  0  0  0  0
M  END
> <PUBCHEM_COMPOUND_CID>
166627466

> <PUBCHEM_COMPOUND_CANONICALIZED>
1

> <PUBCHEM_CACTVS_COMPLEXITY>
570

> <PUBCHEM_CACTVS_HBOND_ACCEPTOR>
4

> <PUBCHEM_CACTVS_HBOND_DONOR>
1

> <PUBCHEM_CACTVS_ROTATABLE_BOND>
8

> <PUBCHEM_CACTVS_SUBSKEYS>
AAADcfB7MAAEAAAAAAAAAAAAAAAAAAAAAAA8YMEAAAAAAAABUAAAHgIACAAADQ7BmCYyxoMABgCAAiRCQACCCAAhJgAIiAAObogMZiLHs5vUcChkwBHI+AeQwPAOgAABQAABABAAAAKAAAIAIAAAAAAAAA==

> <PUBCHEM_IUPAC_OPENEYE_NAME>
3-[3-[4-(2-chloro-3-ethyl-phenyl)piperazin-1-yl]-1-(3-methoxyphenyl)propyl]phenol

> <PUBCHEM_IUPAC_CAS_NAME>
3-[3-[4-(2-chloro-3-ethylphenyl)-1-piperazinyl]-1-(3-methoxyphenyl)propyl]phenol

> <PUBCHEM_IUPAC_NAME_MARKUP>
3-[3-[4-(2-chloro-3-ethylphenyl)piperazin-1-yl]-1-(3-methoxyphenyl)propyl]phenol

> <PUBCHEM_IUPAC_NAME>
3-[3-[4-(2-chloro-3-ethylphenyl)piperazin-1-yl]-1-(3-methoxyphenyl)propyl]phenol

> <PUBCHEM_IUPAC_SYSTEMATIC_NAME>
3-[3-[4-(2-chloranyl-3-ethyl-phenyl)piperazin-1-yl]-1-(3-methoxyphenyl)propyl]phenol

> <PUBCHEM_IUPAC_TRADITIONAL_NAME>
3-[3-[4-(2-chloro-3-ethyl-phenyl)piperazino]-1-(3-methoxyphenyl)propyl]phenol

> <PUBCHEM_IUPAC_INCHI>
InChI=1S/C28H33ClN2O2/c1-3-21-7-6-12-27(28(21)29)31-17-15-30(16-18-31)14-13-26(22-8-4-10-24(32)19-22)23-9-5-11-25(20-23)33-2/h4-12,19-20,26,32H,3,13-18H2,1-2H3

> <PUBCHEM_IUPAC_INCHIKEY>
UZHIOMXZZAVYQK-UHFFFAOYSA-N

> <PUBCHEM_XLOGP3_AA>
6.7

> <PUBCHEM_EXACT_MASS>
464.2230560

> <PUBCHEM_MOLECULAR_FORMULA>
C28H33ClN2O2

> <PUBCHEM_MOLECULAR_WEIGHT>
465.0

> <PUBCHEM_OPENEYE_CAN_SMILES>
CCC1=C(C(=CC=C1)N2CCN(CC2)CCC(C3=CC(=CC=C3)O)C4=CC(=CC=C4)OC)Cl

> <PUBCHEM_OPENEYE_ISO_SMILES>
CCC1=C(C(=CC=C1)N2CCN(CC2)CCC(C3=CC(=CC=C3)O)C4=CC(=CC=C4)OC)Cl

> <PUBCHEM_CACTVS_TPSA>
35.9

> <PUBCHEM_MONOISOTOPIC_WEIGHT>
464.2230560

> <PUBCHEM_TOTAL_CHARGE>
0

> <PUBCHEM_HEAVY_ATOM_COUNT>
33

> <PUBCHEM_ATOM_DEF_STEREO_COUNT>
0

> <PUBCHEM_ATOM_UDEF_STEREO_COUNT>
1

> <PUBCHEM_BOND_DEF_STEREO_COUNT>
0

> <PUBCHEM_BOND_UDEF_STEREO_COUNT>
0

> <PUBCHEM_ISOTOPIC_ATOM_COUNT>
0

> <PUBCHEM_COMPONENT_COUNT>
1

> <PUBCHEM_CACTVS_TAUTO_COUNT>
-1

> <PUBCHEM_COORDINATE_TYPE>
1
5
255

> <PUBCHEM_BONDANNOTATIONS>
12  11  3
13  16  8
13  17  8
14  18  8
14  19  8
15  20  8
15  21  8
16  22  8
17  23  8
18  25  8
19  28  8
20  27  8
21  29  8
22  24  8
23  24  8
25  30  8
27  31  8
28  30  8
29  31  8

$$$$
