71449644
  -OEChem-09292322332D

 56 59  0     1  0  0  0  0  0999 V2000
    4.1701   -1.3152    0.0000 S   0  0  0  0  0  0  0  0  0  0  0  0
    2.1810   -1.1062    0.0000 F   0  0  0  0  0  0  0  0  0  0  0  0
    3.8080   -4.7603    0.0000 F   0  0  0  0  0  0  0  0  0  0  0  0
    9.0671    1.7257    0.0000 O   0  0  0  0  0  0  0  0  0  0  0  0
    3.3611   -0.7274    0.0000 O   0  0  0  0  0  0  0  0  0  0  0  0
    4.9791   -1.9030    0.0000 O   0  0  0  0  0  0  0  0  0  0  0  0
    7.3351   -0.2743    0.0000 N   0  0  3  0  0  0  0  0  0  0  0  0
    4.7579   -0.5062    0.0000 N   0  0  0  0  0  0  0  0  0  0  0  0
    5.7524   -0.6107    0.0000 C   0  0  3  0  0  0  0  0  0  0  0  0
    6.4215    0.1324    0.0000 C   0  0  0  0  0  0  0  0  0  0  0  0
    6.2524   -1.4768    0.0000 C   0  0  0  0  0  0  0  0  0  0  0  0
    7.2306   -1.2688    0.0000 C   0  0  0  0  0  0  0  0  0  0  0  0
    8.2011    0.2257    0.0000 C   0  0  0  0  0  0  0  0  0  0  0  0
    8.2011    1.2257    0.0000 C   0  0  0  0  0  0  0  0  0  0  0  0
    9.9332    3.2257    0.0000 C   0  0  0  0  0  0  0  0  0  0  0  0
   10.8271    2.6910    0.0000 C   0  0  0  0  0  0  0  0  0  0  0  0
   11.7332    3.2049    0.0000 C   0  0  0  0  0  0  0  0  0  0  0  0
   11.7332    4.2465    0.0000 C   0  0  0  0  0  0  0  0  0  0  0  0
   10.8271    4.7603    0.0000 C   0  0  0  0  0  0  0  0  0  0  0  0
    9.9332    4.2257    0.0000 C   0  0  0  0  0  0  0  0  0  0  0  0
    9.0671    2.7257    0.0000 C   0  0  0  0  0  0  0  0  0  0  0  0
    3.5823   -2.1242    0.0000 C   0  0  0  0  0  0  0  0  0  0  0  0
    9.0671    4.7257    0.0000 C   0  0  0  0  0  0  0  0  0  0  0  0
    8.2011    3.2257    0.0000 C   0  0  0  0  0  0  0  0  0  0  0  0
    8.2011    4.2257    0.0000 C   0  0  0  0  0  0  0  0  0  0  0  0
    2.5878   -2.0197    0.0000 C   0  0  0  0  0  0  0  0  0  0  0  0
    3.9890   -3.0378    0.0000 C   0  0  0  0  0  0  0  0  0  0  0  0
    3.4013   -3.8468    0.0000 C   0  0  0  0  0  0  0  0  0  0  0  0
    2.0000   -2.8287    0.0000 C   0  0  0  0  0  0  0  0  0  0  0  0
    2.4067   -3.7423    0.0000 C   0  0  0  0  0  0  0  0  0  0  0  0
    5.5302   -0.0319    0.0000 H   0  0  0  0  0  0  0  0  0  0  0  0
    6.7315    0.6694    0.0000 H   0  0  0  0  0  0  0  0  0  0  0  0
    5.9199    0.4968    0.0000 H   0  0  0  0  0  0  0  0  0  0  0  0
    5.6860   -1.7289    0.0000 H   0  0  0  0  0  0  0  0  0  0  0  0
    6.4440   -2.0664    0.0000 H   0  0  0  0  0  0  0  0  0  0  0  0
    7.2954   -1.8854    0.0000 H   0  0  0  0  0  0  0  0  0  0  0  0
    7.8506   -1.2688    0.0000 H   0  0  0  0  0  0  0  0  0  0  0  0
    8.4132   -0.3569    0.0000 H   0  0  0  0  0  0  0  0  0  0  0  0
    8.8117    0.3333    0.0000 H   0  0  0  0  0  0  0  0  0  0  0  0
    4.5057    0.0602    0.0000 H   0  0  0  0  0  0  0  0  0  0  0  0
    7.9890    1.8083    0.0000 H   0  0  0  0  0  0  0  0  0  0  0  0
    7.5905    1.1180    0.0000 H   0  0  0  0  0  0  0  0  0  0  0  0
   10.4225    2.2212    0.0000 H   0  0  0  0  0  0  0  0  0  0  0  0
   11.2207    2.2120    0.0000 H   0  0  0  0  0  0  0  0  0  0  0  0
   11.9422    2.6212    0.0000 H   0  0  0  0  0  0  0  0  0  0  0  0
   12.3440    3.3110    0.0000 H   0  0  0  0  0  0  0  0  0  0  0  0
   12.3440    4.1404    0.0000 H   0  0  0  0  0  0  0  0  0  0  0  0
   11.9422    4.8302    0.0000 H   0  0  0  0  0  0  0  0  0  0  0  0
   11.2207    5.2394    0.0000 H   0  0  0  0  0  0  0  0  0  0  0  0
   10.4225    5.2301    0.0000 H   0  0  0  0  0  0  0  0  0  0  0  0
    9.0671    5.3457    0.0000 H   0  0  0  0  0  0  0  0  0  0  0  0
    7.6642    2.9157    0.0000 H   0  0  0  0  0  0  0  0  0  0  0  0
    7.6642    4.5357    0.0000 H   0  0  0  0  0  0  0  0  0  0  0  0
    4.6056   -3.1026    0.0000 H   0  0  0  0  0  0  0  0  0  0  0  0
    1.3834   -2.7639    0.0000 H   0  0  0  0  0  0  0  0  0  0  0  0
    2.0423   -4.2439    0.0000 H   0  0  0  0  0  0  0  0  0  0  0  0
  1  5  2  0  0  0  0
  1  6  2  0  0  0  0
  1  8  1  0  0  0  0
  1 22  1  0  0  0  0
  2 26  1  0  0  0  0
  3 28  1  0  0  0  0
  4 14  1  0  0  0  0
  4 21  1  0  0  0  0
  7 10  1  0  0  0  0
  7 12  1  0  0  0  0
  7 13  1  0  0  0  0
  8  9  1  0  0  0  0
  8 40  1  0  0  0  0
  9 10  1  0  0  0  0
  9 11  1  0  0  0  0
  9 31  1  0  0  0  0
 10 32  1  0  0  0  0
 10 33  1  0  0  0  0
 11 12  1  0  0  0  0
 11 34  1  0  0  0  0
 11 35  1  0  0  0  0
 12 36  1  0  0  0  0
 12 37  1  0  0  0  0
 13 14  1  0  0  0  0
 13 38  1  0  0  0  0
 13 39  1  0  0  0  0
 14 41  1  0  0  0  0
 14 42  1  0  0  0  0
 15 16  1  0  0  0  0
 15 20  2  0  0  0  0
 15 21  1  0  0  0  0
 16 17  1  0  0  0  0
 16 43  1  0  0  0  0
 16 44  1  0  0  0  0
 17 18  1  0  0  0  0
 17 45  1  0  0  0  0
 17 46  1  0  0  0  0
 18 19  1  0  0  0  0
 18 47  1  0  0  0  0
 18 48  1  0  0  0  0
 19 20  1  0  0  0  0
 19 49  1  0  0  0  0
 19 50  1  0  0  0  0
 20 23  1  0  0  0  0
 21 24  2  0  0  0  0
 22 26  2  0  0  0  0
 22 27  1  0  0  0  0
 23 25  2  0  0  0  0
 23 51  1  0  0  0  0
 24 25  1  0  0  0  0
 24 52  1  0  0  0  0
 25 53  1  0  0  0  0
 26 29  1  0  0  0  0
 27 28  2  0  0  0  0
 27 54  1  0  0  0  0
 28 30  1  0  0  0  0
 29 30  2  0  0  0  0
 29 55  1  0  0  0  0
 30 56  1  0  0  0  0
M  END
> <PUBCHEM_COMPOUND_CID>
71449644

> <PUBCHEM_COMPOUND_CANONICALIZED>
1

> <PUBCHEM_CACTVS_COMPLEXITY>
659

> <PUBCHEM_CACTVS_HBOND_ACCEPTOR>
7

> <PUBCHEM_CACTVS_HBOND_DONOR>
1

> <PUBCHEM_CACTVS_ROTATABLE_BOND>
7

> <PUBCHEM_CACTVS_SUBSKEYS>
AAADceB7MYBAAAAAAAAAAAAAAAAAAWAAAAAwYMAAAAAAAADBQAAAHwQQQAAADCzh2A4wB4NABAKAAiBCAHBCCBAgIAAIiJgOCIgOZiKE8RqXOCCk0BGYqAeAwLAOgAABAAAYAAAAAAIAADAAAAAAAAAAAA==

> <PUBCHEM_IUPAC_OPENEYE_NAME>
2,5-difluoro-N-[1-(2-tetralin-5-yloxyethyl)pyrrolidin-3-yl]benzenesulfonamide

> <PUBCHEM_IUPAC_CAS_NAME>
2,5-difluoro-N-[1-[2-(5,6,7,8-tetrahydronaphthalen-1-yloxy)ethyl]-3-pyrrolidinyl]benzenesulfonamide

> <PUBCHEM_IUPAC_NAME_MARKUP>
2,5-difluoro-<I>N</I>-[1-[2-(5,6,7,8-tetrahydronaphthalen-1-yloxy)ethyl]pyrrolidin-3-yl]benzenesulfonamide

> <PUBCHEM_IUPAC_NAME>
2,5-difluoro-N-[1-[2-(5,6,7,8-tetrahydronaphthalen-1-yloxy)ethyl]pyrrolidin-3-yl]benzenesulfonamide

> <PUBCHEM_IUPAC_SYSTEMATIC_NAME>
2,5-bis(fluoranyl)-N-[1-[2-(5,6,7,8-tetrahydronaphthalen-1-yloxy)ethyl]pyrrolidin-3-yl]benzenesulfonamide

> <PUBCHEM_IUPAC_TRADITIONAL_NAME>
2,5-difluoro-N-[1-(2-tetralin-5-yloxyethyl)pyrrolidin-3-yl]benzenesulfonamide

> <PUBCHEM_IUPAC_INCHI>
InChI=1S/C22H26F2N2O3S/c23-17-8-9-20(24)22(14-17)30(27,28)25-18-10-11-26(15-18)12-13-29-21-7-3-5-16-4-1-2-6-19(16)21/h3,5,7-9,14,18,25H,1-2,4,6,10-13,15H2

> <PUBCHEM_IUPAC_INCHIKEY>
QHVDRXNWAMTCNP-UHFFFAOYSA-N

> <PUBCHEM_XLOGP3_AA>
4.4

> <PUBCHEM_EXACT_MASS>
436.16322019

> <PUBCHEM_MOLECULAR_FORMULA>
C22H26F2N2O3S

> <PUBCHEM_MOLECULAR_WEIGHT>
436.5

> <PUBCHEM_OPENEYE_CAN_SMILES>
C1CCC2=C(C1)C=CC=C2OCCN3CCC(C3)NS(=O)(=O)C4=C(C=CC(=C4)F)F

> <PUBCHEM_OPENEYE_ISO_SMILES>
C1CCC2=C(C1)C=CC=C2OCCN3CCC(C3)NS(=O)(=O)C4=C(C=CC(=C4)F)F

> <PUBCHEM_CACTVS_TPSA>
67

> <PUBCHEM_MONOISOTOPIC_WEIGHT>
436.16322019

> <PUBCHEM_TOTAL_CHARGE>
0

> <PUBCHEM_HEAVY_ATOM_COUNT>
30

> <PUBCHEM_ATOM_DEF_STEREO_COUNT>
0

> <PUBCHEM_ATOM_UDEF_STEREO_COUNT>
1

> <PUBCHEM_BOND_DEF_STEREO_COUNT>
0

> <PUBCHEM_BOND_UDEF_STEREO_COUNT>
0

> <PUBCHEM_ISOTOPIC_ATOM_COUNT>
0

> <PUBCHEM_COMPONENT_COUNT>
1

> <PUBCHEM_CACTVS_TAUTO_COUNT>
-1

> <PUBCHEM_COORDINATE_TYPE>
1
5
255

> <PUBCHEM_BONDANNOTATIONS>
15  20  8
15  21  8
20  23  8
21  24  8
22  26  8
22  27  8
23  25  8
24  25  8
26  29  8
27  28  8
28  30  8
29  30  8
9  8  3

$$$$
