24901144
  -OEChem-09292322042D

 62 65  0     1  0  0  0  0  0999 V2000
   14.2045   -1.5403    0.0000 S   0  0  0  0  0  0  0  0  0  0  0  0
    2.8660    4.1550    0.0000 F   0  0  0  0  0  0  0  0  0  0  0  0
   13.2583    0.1550    0.0000 O   0  0  0  0  0  0  0  0  0  0  0  0
   12.3923   -4.3450    0.0000 O   0  0  0  0  0  0  0  0  0  0  0  0
   15.7882   -2.3450    0.0000 O   0  0  0  0  0  0  0  0  0  0  0  0
   11.5263    1.1550    0.0000 N   0  0  0  0  0  0  0  0  0  0  0  0
    6.3301    3.1550    0.0000 N   0  0  0  0  0  0  0  0  0  0  0  0
   14.2045   -3.1497    0.0000 N   0  0  0  0  0  0  0  0  0  0  0  0
   12.3923   -0.3450    0.0000 C   0  0  1  0  0  0  0  0  0  0  0  0
   11.5263    0.1550    0.0000 C   0  0  0  0  0  0  0  0  0  0  0  0
   12.3923   -1.3450    0.0000 C   0  0  0  0  0  0  0  0  0  0  0  0
   10.6603    1.6550    0.0000 C   0  0  0  0  0  0  0  0  0  0  0  0
   10.6603    2.6550    0.0000 C   0  0  0  0  0  0  0  0  0  0  0  0
    9.7942    3.1550    0.0000 C   0  0  0  0  0  0  0  0  0  0  0  0
   13.2583   -1.8450    0.0000 C   0  0  0  0  0  0  0  0  0  0  0  0
   13.2583   -2.8450    0.0000 C   0  0  0  0  0  0  0  0  0  0  0  0
    8.0622    3.1550    0.0000 C   0  0  0  0  0  0  0  0  0  0  0  0
    8.9282    2.6550    0.0000 C   0  0  0  0  0  0  0  0  0  0  0  0
   11.5263   -1.8450    0.0000 C   0  0  0  0  0  0  0  0  0  0  0  0
    7.1962    2.6550    0.0000 C   0  0  0  0  0  0  0  0  0  0  0  0
    9.7942    4.1550    0.0000 C   0  0  0  0  0  0  0  0  0  0  0  0
    5.4641    2.6550    0.0000 C   0  0  0  0  0  0  0  0  0  0  0  0
   12.3923   -3.3450    0.0000 C   0  0  0  0  0  0  0  0  0  0  0  0
   11.5263   -2.8450    0.0000 C   0  0  0  0  0  0  0  0  0  0  0  0
    4.5981    3.1550    0.0000 C   0  0  0  0  0  0  0  0  0  0  0  0
    8.0622    4.1550    0.0000 C   0  0  0  0  0  0  0  0  0  0  0  0
    8.9282    4.6550    0.0000 C   0  0  0  0  0  0  0  0  0  0  0  0
   14.7882   -2.3450    0.0000 C   0  0  0  0  0  0  0  0  0  0  0  0
    3.7320    2.6550    0.0000 C   0  0  0  0  0  0  0  0  0  0  0  0
    2.8660    3.1550    0.0000 C   0  0  0  0  0  0  0  0  0  0  0  0
    3.7320    1.6550    0.0000 C   0  0  0  0  0  0  0  0  0  0  0  0
    2.0000    2.6550    0.0000 C   0  0  0  0  0  0  0  0  0  0  0  0
    2.8660    1.1550    0.0000 C   0  0  0  0  0  0  0  0  0  0  0  0
    2.0000    1.6550    0.0000 C   0  0  0  0  0  0  0  0  0  0  0  0
   12.3923    0.2750    0.0000 H   0  0  0  0  0  0  0  0  0  0  0  0
   10.9157    0.2627    0.0000 H   0  0  0  0  0  0  0  0  0  0  0  0
   11.3142   -0.4276    0.0000 H   0  0  0  0  0  0  0  0  0  0  0  0
   10.0497    1.7627    0.0000 H   0  0  0  0  0  0  0  0  0  0  0  0
   10.4482    1.0724    0.0000 H   0  0  0  0  0  0  0  0  0  0  0  0
   11.2708    2.5473    0.0000 H   0  0  0  0  0  0  0  0  0  0  0  0
   10.8723    3.2376    0.0000 H   0  0  0  0  0  0  0  0  0  0  0  0
   12.0632    1.4650    0.0000 H   0  0  0  0  0  0  0  0  0  0  0  0
    8.9282    2.0350    0.0000 H   0  0  0  0  0  0  0  0  0  0  0  0
   10.9893   -1.5350    0.0000 H   0  0  0  0  0  0  0  0  0  0  0  0
    6.7976    2.1800    0.0000 H   0  0  0  0  0  0  0  0  0  0  0  0
    7.5947    2.1800    0.0000 H   0  0  0  0  0  0  0  0  0  0  0  0
    5.0656    2.1800    0.0000 H   0  0  0  0  0  0  0  0  0  0  0  0
    5.8626    2.1800    0.0000 H   0  0  0  0  0  0  0  0  0  0  0  0
   10.3312    4.4650    0.0000 H   0  0  0  0  0  0  0  0  0  0  0  0
    6.3301    3.7750    0.0000 H   0  0  0  0  0  0  0  0  0  0  0  0
   10.9893   -3.1550    0.0000 H   0  0  0  0  0  0  0  0  0  0  0  0
    4.9966    3.6300    0.0000 H   0  0  0  0  0  0  0  0  0  0  0  0
    4.1996    3.6300    0.0000 H   0  0  0  0  0  0  0  0  0  0  0  0
    7.5252    4.4650    0.0000 H   0  0  0  0  0  0  0  0  0  0  0  0
   14.3972   -3.7390    0.0000 H   0  0  0  0  0  0  0  0  0  0  0  0
    8.9282    5.2750    0.0000 H   0  0  0  0  0  0  0  0  0  0  0  0
   13.2583    0.7750    0.0000 H   0  0  0  0  0  0  0  0  0  0  0  0
    4.2690    1.3450    0.0000 H   0  0  0  0  0  0  0  0  0  0  0  0
   11.8554   -4.6550    0.0000 H   0  0  0  0  0  0  0  0  0  0  0  0
    1.4631    2.9650    0.0000 H   0  0  0  0  0  0  0  0  0  0  0  0
    2.8660    0.5350    0.0000 H   0  0  0  0  0  0  0  0  0  0  0  0
    1.4631    1.3450    0.0000 H   0  0  0  0  0  0  0  0  0  0  0  0
  1 15  1  0  0  0  0
  1 28  1  0  0  0  0
  2 30  1  0  0  0  0
  9  3  1  6  0  0  0
  3 57  1  0  0  0  0
  4 23  1  0  0  0  0
  4 59  1  0  0  0  0
  5 28  2  0  0  0  0
  6 10  1  0  0  0  0
  6 12  1  0  0  0  0
  6 42  1  0  0  0  0
  7 20  1  0  0  0  0
  7 22  1  0  0  0  0
  7 50  1  0  0  0  0
  8 16  1  0  0  0  0
  8 28  1  0  0  0  0
  8 55  1  0  0  0  0
  9 10  1  0  0  0  0
  9 11  1  0  0  0  0
  9 35  1  0  0  0  0
 10 36  1  0  0  0  0
 10 37  1  0  0  0  0
 11 15  2  0  0  0  0
 11 19  1  0  0  0  0
 12 13  1  0  0  0  0
 12 38  1  0  0  0  0
 12 39  1  0  0  0  0
 13 14  1  0  0  0  0
 13 40  1  0  0  0  0
 13 41  1  0  0  0  0
 14 18  2  0  0  0  0
 14 21  1  0  0  0  0
 15 16  1  0  0  0  0
 16 23  2  0  0  0  0
 17 18  1  0  0  0  0
 17 20  1  0  0  0  0
 17 26  2  0  0  0  0
 18 43  1  0  0  0  0
 19 24  2  0  0  0  0
 19 44  1  0  0  0  0
 20 45  1  0  0  0  0
 20 46  1  0  0  0  0
 21 27  2  0  0  0  0
 21 49  1  0  0  0  0
 22 25  1  0  0  0  0
 22 47  1  0  0  0  0
 22 48  1  0  0  0  0
 23 24  1  0  0  0  0
 24 51  1  0  0  0  0
 25 29  1  0  0  0  0
 25 52  1  0  0  0  0
 25 53  1  0  0  0  0
 26 27  1  0  0  0  0
 26 54  1  0  0  0  0
 27 56  1  0  0  0  0
 29 30  1  0  0  0  0
 29 31  2  0  0  0  0
 30 32  2  0  0  0  0
 31 33  1  0  0  0  0
 31 58  1  0  0  0  0
 32 34  1  0  0  0  0
 32 60  1  0  0  0  0
 33 34  2  0  0  0  0
 33 61  1  0  0  0  0
 34 62  1  0  0  0  0
M  END
> <PUBCHEM_COMPOUND_CID>
24901144

> <PUBCHEM_COMPOUND_CANONICALIZED>
1

> <PUBCHEM_CACTVS_COMPLEXITY>
644

> <PUBCHEM_CACTVS_HBOND_ACCEPTOR>
7

> <PUBCHEM_CACTVS_HBOND_DONOR>
5

> <PUBCHEM_CACTVS_ROTATABLE_BOND>
11

> <PUBCHEM_CACTVS_SUBSKEYS>
AAADceB7MQBAAAAAAAAAAAAAAAAAAWAAAAAwYMAAAAAAAFgBUAAAHwQQCAAADBzh2A4wx4LAAgiIAiRCUACCAABhKBAIiJQPTIgKNiLykZOEcAhk1BHY2Aew4OQOIAACRAAEEQBAAASIAAgiAAAAAAAAAA==

> <PUBCHEM_IUPAC_OPENEYE_NAME>
7-[(1R)-2-[2-[3-[[2-(2-fluorophenyl)ethylamino]methyl]phenyl]ethylamino]-1-hydroxy-ethyl]-4-hydroxy-3H-1,3-benzothiazol-2-one

> <PUBCHEM_IUPAC_CAS_NAME>
7-[(1R)-2-[2-[3-[[2-(2-fluorophenyl)ethylamino]methyl]phenyl]ethylamino]-1-hydroxyethyl]-4-hydroxy-3H-1,3-benzothiazol-2-one

> <PUBCHEM_IUPAC_NAME_MARKUP>
7-[(1<I>R</I>)-2-[2-[3-[[2-(2-fluorophenyl)ethylamino]methyl]phenyl]ethylamino]-1-hydroxyethyl]-4-hydroxy-3<I>H</I>-1,3-benzothiazol-2-one

> <PUBCHEM_IUPAC_NAME>
7-[(1R)-2-[2-[3-[[2-(2-fluorophenyl)ethylamino]methyl]phenyl]ethylamino]-1-hydroxyethyl]-4-hydroxy-3H-1,3-benzothiazol-2-one

> <PUBCHEM_IUPAC_SYSTEMATIC_NAME>
7-[(1R)-2-[2-[3-[[2-(2-fluorophenyl)ethylamino]methyl]phenyl]ethylamino]-1-oxidanyl-ethyl]-4-oxidanyl-3H-1,3-benzothiazol-2-one

> <PUBCHEM_IUPAC_TRADITIONAL_NAME>
7-[(1R)-2-[2-[3-[[2-(2-fluorophenyl)ethylamino]methyl]phenyl]ethylamino]-1-hydroxy-ethyl]-4-hydroxy-3H-1,3-benzothiazol-2-one

> <PUBCHEM_IUPAC_INCHI>
InChI=1S/C26H28FN3O3S/c27-21-7-2-1-6-19(21)11-13-28-15-18-5-3-4-17(14-18)10-12-29-16-23(32)20-8-9-22(31)24-25(20)34-26(33)30-24/h1-9,14,23,28-29,31-32H,10-13,15-16H2,(H,30,33)/t23-/m0/s1

> <PUBCHEM_IUPAC_INCHIKEY>
HIBBORWAHJKGBI-QHCPKHFHSA-N

> <PUBCHEM_XLOGP3_AA>
3.4

> <PUBCHEM_EXACT_MASS>
481.18354110

> <PUBCHEM_MOLECULAR_FORMULA>
C26H28FN3O3S

> <PUBCHEM_MOLECULAR_WEIGHT>
481.6

> <PUBCHEM_OPENEYE_CAN_SMILES>
C1=CC=C(C(=C1)CCNCC2=CC=CC(=C2)CCNCC(C3=C4C(=C(C=C3)O)NC(=O)S4)O)F

> <PUBCHEM_OPENEYE_ISO_SMILES>
C1=CC=C(C(=C1)CCNCC2=CC=CC(=C2)CCNC[C@@H](C3=C4C(=C(C=C3)O)NC(=O)S4)O)F

> <PUBCHEM_CACTVS_TPSA>
119

> <PUBCHEM_MONOISOTOPIC_WEIGHT>
481.18354110

> <PUBCHEM_TOTAL_CHARGE>
0

> <PUBCHEM_HEAVY_ATOM_COUNT>
34

> <PUBCHEM_ATOM_DEF_STEREO_COUNT>
1

> <PUBCHEM_ATOM_UDEF_STEREO_COUNT>
0

> <PUBCHEM_BOND_DEF_STEREO_COUNT>
0

> <PUBCHEM_BOND_UDEF_STEREO_COUNT>
0

> <PUBCHEM_ISOTOPIC_ATOM_COUNT>
0

> <PUBCHEM_COMPONENT_COUNT>
1

> <PUBCHEM_CACTVS_TAUTO_COUNT>
-1

> <PUBCHEM_COORDINATE_TYPE>
1
5
255

> <PUBCHEM_BONDANNOTATIONS>
1  15  8
1  28  8
11  15  8
11  19  8
14  18  8
14  21  8
15  16  8
16  23  8
17  18  8
17  26  8
19  24  8
21  27  8
23  24  8
26  27  8
29  30  8
29  31  8
9  3  6
30  32  8
31  33  8
32  34  8
33  34  8
8  16  8
8  28  8

$$$$
