71658075
  -OEChem-09292322332D

 62 65  0     1  0  0  0  0  0999 V2000
    4.6783    0.5893    0.0000 S   0  0  0  0  0  0  0  0  0  0  0  0
   14.6050   -1.8307    0.0000 O   0  0  0  0  0  0  0  0  0  0  0  0
    6.7619    2.2600    0.0000 O   0  0  0  0  0  0  0  0  0  0  0  0
   10.7619   -1.2041    0.0000 N   0  0  3  0  0  0  0  0  0  0  0  0
   12.9525   -0.7041    0.0000 N   0  0  3  0  0  0  0  0  0  0  0  0
    6.7619    0.5280    0.0000 N   0  0  0  0  0  0  0  0  0  0  0  0
   11.1958   -2.1050    0.0000 C   0  0  0  0  0  0  0  0  0  0  0  0
   11.1958   -0.3031    0.0000 C   0  0  0  0  0  0  0  0  0  0  0  0
   12.1707   -2.3276    0.0000 C   0  0  0  0  0  0  0  0  0  0  0  0
   12.1707   -0.0806    0.0000 C   0  0  0  0  0  0  0  0  0  0  0  0
   12.9525   -1.7041    0.0000 C   0  0  0  0  0  0  0  0  0  0  0  0
    9.7619   -1.2041    0.0000 C   0  0  0  0  0  0  0  0  0  0  0  0
    9.2619   -0.3380    0.0000 C   0  0  0  0  0  0  0  0  0  0  0  0
   13.8535   -0.2702    0.0000 C   0  0  0  0  0  0  0  0  0  0  0  0
    8.2619   -0.3380    0.0000 C   0  0  0  0  0  0  0  0  0  0  0  0
    7.7619    0.5280    0.0000 C   0  0  0  0  0  0  0  0  0  0  0  0
   14.6797   -0.8335    0.0000 C   0  0  0  0  0  0  0  0  0  0  0  0
   13.9282    0.7270    0.0000 C   0  0  0  0  0  0  0  0  0  0  0  0
   15.5807   -0.3996    0.0000 C   0  0  0  0  0  0  0  0  0  0  0  0
   14.8292    1.1609    0.0000 C   0  0  0  0  0  0  0  0  0  0  0  0
   15.6554    0.5976    0.0000 C   0  0  0  0  0  0  0  0  0  0  0  0
    6.2619    1.3940    0.0000 C   0  0  0  0  0  0  0  0  0  0  0  0
    5.2619    1.3940    0.0000 C   0  0  0  0  0  0  0  0  0  0  0  0
   15.4312   -2.3940    0.0000 C   0  0  0  0  0  0  0  0  0  0  0  0
    4.6783    2.1988    0.0000 C   0  0  0  0  0  0  0  0  0  0  0  0
    3.7320    1.8940    0.0000 C   0  0  0  0  0  0  0  0  0  0  0  0
    3.7320    0.8940    0.0000 C   0  0  0  0  0  0  0  0  0  0  0  0
    2.8660    2.3940    0.0000 C   0  0  0  0  0  0  0  0  0  0  0  0
    2.8660    0.3940    0.0000 C   0  0  0  0  0  0  0  0  0  0  0  0
    2.0000    1.8940    0.0000 C   0  0  0  0  0  0  0  0  0  0  0  0
    2.0000    0.8940    0.0000 C   0  0  0  0  0  0  0  0  0  0  0  0
   10.5913   -2.2430    0.0000 H   0  0  0  0  0  0  0  0  0  0  0  0
   11.1958   -2.7250    0.0000 H   0  0  0  0  0  0  0  0  0  0  0  0
   11.1958    0.3169    0.0000 H   0  0  0  0  0  0  0  0  0  0  0  0
   10.5913   -0.1651    0.0000 H   0  0  0  0  0  0  0  0  0  0  0  0
   11.9017   -2.8862    0.0000 H   0  0  0  0  0  0  0  0  0  0  0  0
   12.6554   -2.7141    0.0000 H   0  0  0  0  0  0  0  0  0  0  0  0
   12.6554    0.3060    0.0000 H   0  0  0  0  0  0  0  0  0  0  0  0
   11.9017    0.4780    0.0000 H   0  0  0  0  0  0  0  0  0  0  0  0
   13.2215   -2.2627    0.0000 H   0  0  0  0  0  0  0  0  0  0  0  0
   13.5570   -1.5661    0.0000 H   0  0  0  0  0  0  0  0  0  0  0  0
    9.1793   -1.4161    0.0000 H   0  0  0  0  0  0  0  0  0  0  0  0
    9.8695   -1.8146    0.0000 H   0  0  0  0  0  0  0  0  0  0  0  0
    9.8445   -0.1260    0.0000 H   0  0  0  0  0  0  0  0  0  0  0  0
    9.1542    0.2725    0.0000 H   0  0  0  0  0  0  0  0  0  0  0  0
    7.6793   -0.5501    0.0000 H   0  0  0  0  0  0  0  0  0  0  0  0
    8.3695   -0.9486    0.0000 H   0  0  0  0  0  0  0  0  0  0  0  0
    8.3445    0.7400    0.0000 H   0  0  0  0  0  0  0  0  0  0  0  0
    7.6542    1.1386    0.0000 H   0  0  0  0  0  0  0  0  0  0  0  0
   13.4160    1.0763    0.0000 H   0  0  0  0  0  0  0  0  0  0  0  0
    6.4519   -0.0089    0.0000 H   0  0  0  0  0  0  0  0  0  0  0  0
   16.0930   -0.7489    0.0000 H   0  0  0  0  0  0  0  0  0  0  0  0
   14.8755    1.7792    0.0000 H   0  0  0  0  0  0  0  0  0  0  0  0
   16.2140    0.8666    0.0000 H   0  0  0  0  0  0  0  0  0  0  0  0
   15.0820   -2.9063    0.0000 H   0  0  0  0  0  0  0  0  0  0  0  0
   15.9435   -2.7433    0.0000 H   0  0  0  0  0  0  0  0  0  0  0  0
   15.7805   -1.8818    0.0000 H   0  0  0  0  0  0  0  0  0  0  0  0
    4.8709    2.7881    0.0000 H   0  0  0  0  0  0  0  0  0  0  0  0
    2.8660    3.0140    0.0000 H   0  0  0  0  0  0  0  0  0  0  0  0
    2.8660   -0.2260    0.0000 H   0  0  0  0  0  0  0  0  0  0  0  0
    1.4631    2.2040    0.0000 H   0  0  0  0  0  0  0  0  0  0  0  0
    1.4631    0.5840    0.0000 H   0  0  0  0  0  0  0  0  0  0  0  0
  1 23  1  0  0  0  0
  1 27  1  0  0  0  0
  2 17  1  0  0  0  0
  2 24  1  0  0  0  0
  3 22  2  0  0  0  0
  4  7  1  0  0  0  0
  4  8  1  0  0  0  0
  4 12  1  0  0  0  0
  5 10  1  0  0  0  0
  5 11  1  0  0  0  0
  5 14  1  0  0  0  0
  6 16  1  0  0  0  0
  6 22  1  0  0  0  0
  6 51  1  0  0  0  0
  7  9  1  0  0  0  0
  7 32  1  0  0  0  0
  7 33  1  0  0  0  0
  8 10  1  0  0  0  0
  8 34  1  0  0  0  0
  8 35  1  0  0  0  0
  9 11  1  0  0  0  0
  9 36  1  0  0  0  0
  9 37  1  0  0  0  0
 10 38  1  0  0  0  0
 10 39  1  0  0  0  0
 11 40  1  0  0  0  0
 11 41  1  0  0  0  0
 12 13  1  0  0  0  0
 12 42  1  0  0  0  0
 12 43  1  0  0  0  0
 13 15  1  0  0  0  0
 13 44  1  0  0  0  0
 13 45  1  0  0  0  0
 14 17  1  0  0  0  0
 14 18  2  0  0  0  0
 15 16  1  0  0  0  0
 15 46  1  0  0  0  0
 15 47  1  0  0  0  0
 16 48  1  0  0  0  0
 16 49  1  0  0  0  0
 17 19  2  0  0  0  0
 18 20  1  0  0  0  0
 18 50  1  0  0  0  0
 19 21  1  0  0  0  0
 19 52  1  0  0  0  0
 20 21  2  0  0  0  0
 20 53  1  0  0  0  0
 21 54  1  0  0  0  0
 22 23  1  0  0  0  0
 23 25  2  0  0  0  0
 24 55  1  0  0  0  0
 24 56  1  0  0  0  0
 24 57  1  0  0  0  0
 25 26  1  0  0  0  0
 25 58  1  0  0  0  0
 26 27  1  0  0  0  0
 26 28  2  0  0  0  0
 27 29  2  0  0  0  0
 28 30  1  0  0  0  0
 28 59  1  0  0  0  0
 29 31  1  0  0  0  0
 29 60  1  0  0  0  0
 30 31  2  0  0  0  0
 30 61  1  0  0  0  0
 31 62  1  0  0  0  0
M  END
> <PUBCHEM_COMPOUND_CID>
71658075

> <PUBCHEM_COMPOUND_CANONICALIZED>
1

> <PUBCHEM_CACTVS_COMPLEXITY>
563

> <PUBCHEM_CACTVS_HBOND_ACCEPTOR>
5

> <PUBCHEM_CACTVS_HBOND_DONOR>
1

> <PUBCHEM_CACTVS_ROTATABLE_BOND>
8

> <PUBCHEM_CACTVS_SUBSKEYS>
AAADceB7MABAAAAAAAAAAAAAAAAAASAAAAAwYAAABYAAAEgB9AAAHgQQAAAADAzB2AYyx8PABAiMAiVSUACDCIAlKhBIiJkPbMgOZjLk9ZuVMShk1hH46YeYyICOAAAAAAAEEAAAAAAAAAggAAAAAAAAAA==

> <PUBCHEM_IUPAC_OPENEYE_NAME>
N-[4-[4-(2-methoxyphenyl)-1,4-diazepan-1-yl]butyl]benzothiophene-2-carboxamide

> <PUBCHEM_IUPAC_CAS_NAME>
N-[4-[4-(2-methoxyphenyl)-1,4-diazepan-1-yl]butyl]-1-benzothiophene-2-carboxamide

> <PUBCHEM_IUPAC_NAME_MARKUP>
<I>N</I>-[4-[4-(2-methoxyphenyl)-1,4-diazepan-1-yl]butyl]-1-benzothiophene-2-carboxamide

> <PUBCHEM_IUPAC_NAME>
N-[4-[4-(2-methoxyphenyl)-1,4-diazepan-1-yl]butyl]-1-benzothiophene-2-carboxamide

> <PUBCHEM_IUPAC_SYSTEMATIC_NAME>
N-[4-[4-(2-methoxyphenyl)-1,4-diazepan-1-yl]butyl]-1-benzothiophene-2-carboxamide

> <PUBCHEM_IUPAC_TRADITIONAL_NAME>
N-[4-[4-(2-methoxyphenyl)-1,4-diazepan-1-yl]butyl]benzothiophene-2-carboxamide

> <PUBCHEM_IUPAC_INCHI>
InChI=1S/C25H31N3O2S/c1-30-22-11-4-3-10-21(22)28-16-8-15-27(17-18-28)14-7-6-13-26-25(29)24-19-20-9-2-5-12-23(20)31-24/h2-5,9-12,19H,6-8,13-18H2,1H3,(H,26,29)

> <PUBCHEM_IUPAC_INCHIKEY>
MGLBPQCNRNAVCP-UHFFFAOYSA-N

> <PUBCHEM_XLOGP3_AA>
5.2

> <PUBCHEM_EXACT_MASS>
437.21369841

> <PUBCHEM_MOLECULAR_FORMULA>
C25H31N3O2S

> <PUBCHEM_MOLECULAR_WEIGHT>
437.6

> <PUBCHEM_OPENEYE_CAN_SMILES>
COC1=CC=CC=C1N2CCCN(CC2)CCCCNC(=O)C3=CC4=CC=CC=C4S3

> <PUBCHEM_OPENEYE_ISO_SMILES>
COC1=CC=CC=C1N2CCCN(CC2)CCCCNC(=O)C3=CC4=CC=CC=C4S3

> <PUBCHEM_CACTVS_TPSA>
73

> <PUBCHEM_MONOISOTOPIC_WEIGHT>
437.21369841

> <PUBCHEM_TOTAL_CHARGE>
0

> <PUBCHEM_HEAVY_ATOM_COUNT>
31

> <PUBCHEM_ATOM_DEF_STEREO_COUNT>
0

> <PUBCHEM_ATOM_UDEF_STEREO_COUNT>
0

> <PUBCHEM_BOND_DEF_STEREO_COUNT>
0

> <PUBCHEM_BOND_UDEF_STEREO_COUNT>
0

> <PUBCHEM_ISOTOPIC_ATOM_COUNT>
0

> <PUBCHEM_COMPONENT_COUNT>
1

> <PUBCHEM_CACTVS_TAUTO_COUNT>
-1

> <PUBCHEM_COORDINATE_TYPE>
1
5
255

> <PUBCHEM_BONDANNOTATIONS>
1  23  8
1  27  8
14  17  8
14  18  8
17  19  8
18  20  8
19  21  8
20  21  8
23  25  8
25  26  8
26  27  8
26  28  8
27  29  8
28  30  8
29  31  8
30  31  8

$$$$
