56944668
  -OEChem-09292322352D

 59 63  0     0  0  0  0  0  0999 V2000
   12.7715    0.5816    0.0000 S   0  0  0  0  0  0  0  0  0  0  0  0
    2.0000   -0.3946    0.0000 F   0  0  0  0  0  0  0  0  0  0  0  0
    4.7684   -2.6163    0.0000 O   0  0  0  0  0  0  0  0  0  0  0  0
   12.2715    1.4477    0.0000 O   0  0  0  0  0  0  0  0  0  0  0  0
   13.2715   -0.2844    0.0000 O   0  0  0  0  0  0  0  0  0  0  0  0
    8.4414    0.0816    0.0000 N   0  0  0  0  0  0  0  0  0  0  0  0
    5.7402   -2.4071    0.0000 N   0  0  0  0  0  0  0  0  0  0  0  0
   11.9055    0.0816    0.0000 N   0  0  0  0  0  0  0  0  0  0  0  0
    6.7093   -0.9184    0.0000 C   0  0  0  0  0  0  0  0  0  0  0  0
    6.7093    0.0816    0.0000 C   0  0  0  0  0  0  0  0  0  0  0  0
    7.5754   -1.4184    0.0000 C   0  0  0  0  0  0  0  0  0  0  0  0
    7.5754    0.5816    0.0000 C   0  0  0  0  0  0  0  0  0  0  0  0
    8.4414   -0.9184    0.0000 C   0  0  0  0  0  0  0  0  0  0  0  0
    9.3074    0.5816    0.0000 C   0  0  0  0  0  0  0  0  0  0  0  0
    5.8433   -1.4184    0.0000 C   0  0  0  0  0  0  0  0  0  0  0  0
   10.1734    0.0816    0.0000 C   0  0  0  0  0  0  0  0  0  0  0  0
    4.9355   -1.0132    0.0000 C   0  0  0  0  0  0  0  0  0  0  0  0
   11.0395    0.5816    0.0000 C   0  0  0  0  0  0  0  0  0  0  0  0
    4.2677   -1.7576    0.0000 C   0  0  0  0  0  0  0  0  0  0  0  0
    4.6249   -0.0627    0.0000 C   0  0  0  0  0  0  0  0  0  0  0  0
    3.2892   -1.5513    0.0000 C   0  0  0  0  0  0  0  0  0  0  0  0
    3.6464    0.1435    0.0000 C   0  0  0  0  0  0  0  0  0  0  0  0
    2.9785   -0.6008    0.0000 C   0  0  0  0  0  0  0  0  0  0  0  0
   13.6375    1.0816    0.0000 C   0  0  0  0  0  0  0  0  0  0  0  0
   14.5036    0.5816    0.0000 C   0  0  0  0  0  0  0  0  0  0  0  0
   13.6375    2.0816    0.0000 C   0  0  0  0  0  0  0  0  0  0  0  0
   15.3696    1.0816    0.0000 C   0  0  0  0  0  0  0  0  0  0  0  0
   15.3696    2.0816    0.0000 C   0  0  0  0  0  0  0  0  0  0  0  0
   14.5036    2.5816    0.0000 C   0  0  0  0  0  0  0  0  0  0  0  0
   16.2635    0.5470    0.0000 C   0  0  0  0  0  0  0  0  0  0  0  0
   16.2635    2.6163    0.0000 C   0  0  0  0  0  0  0  0  0  0  0  0
   17.1696    1.0608    0.0000 C   0  0  0  0  0  0  0  0  0  0  0  0
   17.1696    2.1024    0.0000 C   0  0  0  0  0  0  0  0  0  0  0  0
    6.7093   -1.5384    0.0000 H   0  0  0  0  0  0  0  0  0  0  0  0
    6.4973    0.6642    0.0000 H   0  0  0  0  0  0  0  0  0  0  0  0
    6.0988   -0.0260    0.0000 H   0  0  0  0  0  0  0  0  0  0  0  0
    7.1768   -1.8933    0.0000 H   0  0  0  0  0  0  0  0  0  0  0  0
    7.9739   -1.8933    0.0000 H   0  0  0  0  0  0  0  0  0  0  0  0
    7.9739    1.0566    0.0000 H   0  0  0  0  0  0  0  0  0  0  0  0
    7.1768    1.0566    0.0000 H   0  0  0  0  0  0  0  0  0  0  0  0
    8.6534   -1.5010    0.0000 H   0  0  0  0  0  0  0  0  0  0  0  0
    9.0520   -0.8107    0.0000 H   0  0  0  0  0  0  0  0  0  0  0  0
    9.7059    1.0566    0.0000 H   0  0  0  0  0  0  0  0  0  0  0  0
    8.9089    1.0566    0.0000 H   0  0  0  0  0  0  0  0  0  0  0  0
    9.7749   -0.3933    0.0000 H   0  0  0  0  0  0  0  0  0  0  0  0
   10.5720   -0.3933    0.0000 H   0  0  0  0  0  0  0  0  0  0  0  0
   11.4380    1.0566    0.0000 H   0  0  0  0  0  0  0  0  0  0  0  0
   10.6409    1.0566    0.0000 H   0  0  0  0  0  0  0  0  0  0  0  0
    5.0389    0.3987    0.0000 H   0  0  0  0  0  0  0  0  0  0  0  0
   11.9055   -0.5384    0.0000 H   0  0  0  0  0  0  0  0  0  0  0  0
    2.8751   -2.0128    0.0000 H   0  0  0  0  0  0  0  0  0  0  0  0
    3.4537    0.7328    0.0000 H   0  0  0  0  0  0  0  0  0  0  0  0
   14.5036   -0.0384    0.0000 H   0  0  0  0  0  0  0  0  0  0  0  0
   13.1006    2.3916    0.0000 H   0  0  0  0  0  0  0  0  0  0  0  0
   14.5036    3.2016    0.0000 H   0  0  0  0  0  0  0  0  0  0  0  0
   16.2564   -0.0730    0.0000 H   0  0  0  0  0  0  0  0  0  0  0  0
   16.2564    3.2362    0.0000 H   0  0  0  0  0  0  0  0  0  0  0  0
   17.7053    0.7488    0.0000 H   0  0  0  0  0  0  0  0  0  0  0  0
   17.7053    2.4145    0.0000 H   0  0  0  0  0  0  0  0  0  0  0  0
  1  4  2  0  0  0  0
  1  5  2  0  0  0  0
  1  8  1  0  0  0  0
  1 24  1  0  0  0  0
  2 23  1  0  0  0  0
  3  7  1  0  0  0  0
  3 19  1  0  0  0  0
  6 12  1  0  0  0  0
  6 13  1  0  0  0  0
  6 14  1  0  0  0  0
  7 15  2  0  0  0  0
  8 18  1  0  0  0  0
  8 50  1  0  0  0  0
  9 10  1  0  0  0  0
  9 11  1  0  0  0  0
  9 15  1  0  0  0  0
  9 34  1  0  0  0  0
 10 12  1  0  0  0  0
 10 35  1  0  0  0  0
 10 36  1  0  0  0  0
 11 13  1  0  0  0  0
 11 37  1  0  0  0  0
 11 38  1  0  0  0  0
 12 39  1  0  0  0  0
 12 40  1  0  0  0  0
 13 41  1  0  0  0  0
 13 42  1  0  0  0  0
 14 16  1  0  0  0  0
 14 43  1  0  0  0  0
 14 44  1  0  0  0  0
 15 17  1  0  0  0  0
 16 18  1  0  0  0  0
 16 45  1  0  0  0  0
 16 46  1  0  0  0  0
 17 19  2  0  0  0  0
 17 20  1  0  0  0  0
 18 47  1  0  0  0  0
 18 48  1  0  0  0  0
 19 21  1  0  0  0  0
 20 22  2  0  0  0  0
 20 49  1  0  0  0  0
 21 23  2  0  0  0  0
 21 51  1  0  0  0  0
 22 23  1  0  0  0  0
 22 52  1  0  0  0  0
 24 25  2  0  0  0  0
 24 26  1  0  0  0  0
 25 27  1  0  0  0  0
 25 53  1  0  0  0  0
 26 29  2  0  0  0  0
 26 54  1  0  0  0  0
 27 28  1  0  0  0  0
 27 30  2  0  0  0  0
 28 29  1  0  0  0  0
 28 31  2  0  0  0  0
 29 55  1  0  0  0  0
 30 32  1  0  0  0  0
 30 56  1  0  0  0  0
 31 33  1  0  0  0  0
 31 57  1  0  0  0  0
 32 33  2  0  0  0  0
 32 58  1  0  0  0  0
 33 59  1  0  0  0  0
M  END
> <PUBCHEM_COMPOUND_CID>
56944668

> <PUBCHEM_COMPOUND_CANONICALIZED>
1

> <PUBCHEM_CACTVS_COMPLEXITY>
740

> <PUBCHEM_CACTVS_HBOND_ACCEPTOR>
7

> <PUBCHEM_CACTVS_HBOND_DONOR>
1

> <PUBCHEM_CACTVS_ROTATABLE_BOND>
7

> <PUBCHEM_CACTVS_SUBSKEYS>
AAADceB7MQBAAAAAAAAAAAAAAAAAAWAAAAA8YMEAAAAAAFjB9AAAHwQUQAAADQzB3gwwh9NQAAKpA6RyQnDCABAkIAAomLk+TNoIJrqA1ZOEMYBm0BmIyceYyOCOkAAAgAAYAAAgAAEAADAAAAAAAAAAAA==

> <PUBCHEM_IUPAC_OPENEYE_NAME>
N-[3-[4-(6-fluoro-1,2-benzoxazol-3-yl)-1-piperidyl]propyl]naphthalene-2-sulfonamide

> <PUBCHEM_IUPAC_CAS_NAME>
N-[3-[4-(6-fluoro-1,2-benzoxazol-3-yl)-1-piperidinyl]propyl]-2-naphthalenesulfonamide

> <PUBCHEM_IUPAC_NAME_MARKUP>
<I>N</I>-[3-[4-(6-fluoro-1,2-benzoxazol-3-yl)piperidin-1-yl]propyl]naphthalene-2-sulfonamide

> <PUBCHEM_IUPAC_NAME>
N-[3-[4-(6-fluoro-1,2-benzoxazol-3-yl)piperidin-1-yl]propyl]naphthalene-2-sulfonamide

> <PUBCHEM_IUPAC_SYSTEMATIC_NAME>
N-[3-[4-(6-fluoranyl-1,2-benzoxazol-3-yl)piperidin-1-yl]propyl]naphthalene-2-sulfonamide

> <PUBCHEM_IUPAC_TRADITIONAL_NAME>
N-[3-[4-(6-fluoroindoxazen-3-yl)piperidino]propyl]naphthalene-2-sulfonamide

> <PUBCHEM_IUPAC_INCHI>
InChI=1S/C25H26FN3O3S/c26-21-7-9-23-24(17-21)32-28-25(23)19-10-14-29(15-11-19)13-3-12-27-33(30,31)22-8-6-18-4-1-2-5-20(18)16-22/h1-2,4-9,16-17,19,27H,3,10-15H2

> <PUBCHEM_IUPAC_INCHIKEY>
MCYLXTMEEBXVDF-UHFFFAOYSA-N

> <PUBCHEM_XLOGP3_AA>
4.7

> <PUBCHEM_EXACT_MASS>
467.16789104

> <PUBCHEM_MOLECULAR_FORMULA>
C25H26FN3O3S

> <PUBCHEM_MOLECULAR_WEIGHT>
467.6

> <PUBCHEM_OPENEYE_CAN_SMILES>
C1CN(CCC1C2=NOC3=C2C=CC(=C3)F)CCCNS(=O)(=O)C4=CC5=CC=CC=C5C=C4

> <PUBCHEM_OPENEYE_ISO_SMILES>
C1CN(CCC1C2=NOC3=C2C=CC(=C3)F)CCCNS(=O)(=O)C4=CC5=CC=CC=C5C=C4

> <PUBCHEM_CACTVS_TPSA>
83.8

> <PUBCHEM_MONOISOTOPIC_WEIGHT>
467.16789104

> <PUBCHEM_TOTAL_CHARGE>
0

> <PUBCHEM_HEAVY_ATOM_COUNT>
33

> <PUBCHEM_ATOM_DEF_STEREO_COUNT>
0

> <PUBCHEM_ATOM_UDEF_STEREO_COUNT>
0

> <PUBCHEM_BOND_DEF_STEREO_COUNT>
0

> <PUBCHEM_BOND_UDEF_STEREO_COUNT>
0

> <PUBCHEM_ISOTOPIC_ATOM_COUNT>
0

> <PUBCHEM_COMPONENT_COUNT>
1

> <PUBCHEM_CACTVS_TAUTO_COUNT>
-1

> <PUBCHEM_COORDINATE_TYPE>
1
5
255

> <PUBCHEM_BONDANNOTATIONS>
15  17  8
17  19  8
17  20  8
19  21  8
20  22  8
21  23  8
22  23  8
24  25  8
24  26  8
25  27  8
26  29  8
27  28  8
27  30  8
28  29  8
28  31  8
3  19  8
3  7  8
30  32  8
31  33  8
32  33  8
7  15  8

$$$$
