141312275
  -OEChem-09292322412D

 43 46  0     1  0  0  0  0  0999 V2000
    9.3735    1.9767    0.0000 O   0  0  0  0  0  0  0  0  0  0  0  0
    2.8660   -1.1659    0.0000 O   0  0  0  0  0  0  0  0  0  0  0  0
    7.3423    1.4904    0.0000 N   0  0  3  0  0  0  0  0  0  0  0  0
    6.4103   -2.9706    0.0000 N   0  0  0  0  0  0  0  0  0  0  0  0
    6.3638    1.2842    0.0000 C   0  0  0  0  0  0  0  0  0  0  0  0
    6.0531    0.3336    0.0000 C   0  0  0  0  0  0  0  0  0  0  0  0
    6.7210   -0.4107    0.0000 C   0  0  0  0  0  0  0  0  0  0  0  0
    8.0102    0.7461    0.0000 C   0  0  0  0  0  0  0  0  0  0  0  0
    6.4103   -1.3612    0.0000 C   0  0  0  0  0  0  0  0  0  0  0  0
    7.6995   -0.2044    0.0000 C   0  0  0  0  0  0  0  0  0  0  0  0
    7.6530    2.4409    0.0000 C   0  0  0  0  0  0  0  0  0  0  0  0
    5.4641   -1.6659    0.0000 C   0  0  0  0  0  0  0  0  0  0  0  0
    5.4641   -2.6659    0.0000 C   0  0  0  0  0  0  0  0  0  0  0  0
    6.9939   -2.1659    0.0000 C   0  0  0  0  0  0  0  0  0  0  0  0
    8.6315    2.6471    0.0000 C   0  0  0  0  0  0  0  0  0  0  0  0
    4.5981   -1.1659    0.0000 C   0  0  0  0  0  0  0  0  0  0  0  0
    4.5981   -3.1659    0.0000 C   0  0  0  0  0  0  0  0  0  0  0  0
    3.7320   -1.6659    0.0000 C   0  0  0  0  0  0  0  0  0  0  0  0
    3.7320   -2.6659    0.0000 C   0  0  0  0  0  0  0  0  0  0  0  0
    9.0398    3.5600    0.0000 C   0  0  0  0  0  0  0  0  0  0  0  0
   10.0341    3.4537    0.0000 C   0  0  0  0  0  0  0  0  0  0  0  0
   10.2404    2.4752    0.0000 C   0  0  0  0  0  0  0  0  0  0  0  0
    2.0000   -1.6659    0.0000 C   0  0  0  0  0  0  0  0  0  0  0  0
    6.3432    1.9038    0.0000 H   0  0  0  0  0  0  0  0  0  0  0  0
    5.7500    1.3715    0.0000 H   0  0  0  0  0  0  0  0  0  0  0  0
    5.5062    0.6257    0.0000 H   0  0  0  0  0  0  0  0  0  0  0  0
    5.6706   -0.1543    0.0000 H   0  0  0  0  0  0  0  0  0  0  0  0
    8.5571    0.4541    0.0000 H   0  0  0  0  0  0  0  0  0  0  0  0
    8.3927    1.2340    0.0000 H   0  0  0  0  0  0  0  0  0  0  0  0
    8.1136   -0.6659    0.0000 H   0  0  0  0  0  0  0  0  0  0  0  0
    7.6324    3.0606    0.0000 H   0  0  0  0  0  0  0  0  0  0  0  0
    7.0392    2.5282    0.0000 H   0  0  0  0  0  0  0  0  0  0  0  0
    7.6139   -2.1659    0.0000 H   0  0  0  0  0  0  0  0  0  0  0  0
    6.6029   -3.5600    0.0000 H   0  0  0  0  0  0  0  0  0  0  0  0
    4.5981   -0.5459    0.0000 H   0  0  0  0  0  0  0  0  0  0  0  0
    4.5981   -3.7859    0.0000 H   0  0  0  0  0  0  0  0  0  0  0  0
    3.1951   -2.9759    0.0000 H   0  0  0  0  0  0  0  0  0  0  0  0
    8.7307    4.0974    0.0000 H   0  0  0  0  0  0  0  0  0  0  0  0
   10.4498    3.9138    0.0000 H   0  0  0  0  0  0  0  0  0  0  0  0
   10.8063    2.2220    0.0000 H   0  0  0  0  0  0  0  0  0  0  0  0
    1.6900   -1.1290    0.0000 H   0  0  0  0  0  0  0  0  0  0  0  0
    1.4631   -1.9759    0.0000 H   0  0  0  0  0  0  0  0  0  0  0  0
    2.3100   -2.2028    0.0000 H   0  0  0  0  0  0  0  0  0  0  0  0
  1 15  1  0  0  0  0
  1 22  1  0  0  0  0
  2 18  1  0  0  0  0
  2 23  1  0  0  0  0
  3  5  1  0  0  0  0
  3  8  1  0  0  0  0
  3 11  1  0  0  0  0
  4 13  1  0  0  0  0
  4 14  1  0  0  0  0
  4 34  1  0  0  0  0
  5  6  1  0  0  0  0
  5 24  1  0  0  0  0
  5 25  1  0  0  0  0
  6  7  1  0  0  0  0
  6 26  1  0  0  0  0
  6 27  1  0  0  0  0
  7  9  1  0  0  0  0
  7 10  2  0  0  0  0
  8 10  1  0  0  0  0
  8 28  1  0  0  0  0
  8 29  1  0  0  0  0
  9 12  1  0  0  0  0
  9 14  2  0  0  0  0
 10 30  1  0  0  0  0
 11 15  1  0  0  0  0
 11 31  1  0  0  0  0
 11 32  1  0  0  0  0
 12 13  2  0  0  0  0
 12 16  1  0  0  0  0
 13 17  1  0  0  0  0
 14 33  1  0  0  0  0
 15 20  2  0  0  0  0
 16 18  2  0  0  0  0
 16 35  1  0  0  0  0
 17 19  2  0  0  0  0
 17 36  1  0  0  0  0
 18 19  1  0  0  0  0
 19 37  1  0  0  0  0
 20 21  1  0  0  0  0
 20 38  1  0  0  0  0
 21 22  2  0  0  0  0
 21 39  1  0  0  0  0
 22 40  1  0  0  0  0
 23 41  1  0  0  0  0
 23 42  1  0  0  0  0
 23 43  1  0  0  0  0
M  END
> <PUBCHEM_COMPOUND_CID>
141312275

> <PUBCHEM_COMPOUND_CANONICALIZED>
1

> <PUBCHEM_CACTVS_COMPLEXITY>
439

> <PUBCHEM_CACTVS_HBOND_ACCEPTOR>
3

> <PUBCHEM_CACTVS_HBOND_DONOR>
1

> <PUBCHEM_CACTVS_ROTATABLE_BOND>
4

> <PUBCHEM_CACTVS_SUBSKEYS>
AAADceB7MAAAAAAAAAAAAAAAAAAAAWJAAAAwQAAAAAAAAFgB/AAAHgAQAAAADAzhngY+xvPJlECoA7x3xACCiCA1IiAI2aG+bNgOJvLEtbuHOSjk0BHY6Ye40fIOgEABAAACAAAAgAIAAAQAAAAAAAAAAA==

> <PUBCHEM_IUPAC_OPENEYE_NAME>
3-[1-(2-furylmethyl)-3,6-dihydro-2H-pyridin-4-yl]-5-methoxy-1H-indole

> <PUBCHEM_IUPAC_CAS_NAME>
3-[1-(2-furanylmethyl)-3,6-dihydro-2H-pyridin-4-yl]-5-methoxy-1H-indole

> <PUBCHEM_IUPAC_NAME_MARKUP>
3-[1-(furan-2-ylmethyl)-3,6-dihydro-2<I>H</I>-pyridin-4-yl]-5-methoxy-1<I>H</I>-indole

> <PUBCHEM_IUPAC_NAME>
3-[1-(furan-2-ylmethyl)-3,6-dihydro-2H-pyridin-4-yl]-5-methoxy-1H-indole

> <PUBCHEM_IUPAC_SYSTEMATIC_NAME>
3-[1-(furan-2-ylmethyl)-3,6-dihydro-2H-pyridin-4-yl]-5-methoxy-1H-indole

> <PUBCHEM_IUPAC_TRADITIONAL_NAME>
3-[1-(2-furfuryl)-3,6-dihydro-2H-pyridin-4-yl]-5-methoxy-1H-indole

> <PUBCHEM_IUPAC_INCHI>
InChI=1S/C19H20N2O2/c1-22-15-4-5-19-17(11-15)18(12-20-19)14-6-8-21(9-7-14)13-16-3-2-10-23-16/h2-6,10-12,20H,7-9,13H2,1H3

> <PUBCHEM_IUPAC_INCHIKEY>
JYPYFLTYYNRKCH-UHFFFAOYSA-N

> <PUBCHEM_XLOGP3_AA>
2.8

> <PUBCHEM_EXACT_MASS>
308.152477885

> <PUBCHEM_MOLECULAR_FORMULA>
C19H20N2O2

> <PUBCHEM_MOLECULAR_WEIGHT>
308.4

> <PUBCHEM_OPENEYE_CAN_SMILES>
COC1=CC2=C(C=C1)NC=C2C3=CCN(CC3)CC4=CC=CO4

> <PUBCHEM_OPENEYE_ISO_SMILES>
COC1=CC2=C(C=C1)NC=C2C3=CCN(CC3)CC4=CC=CO4

> <PUBCHEM_CACTVS_TPSA>
41.4

> <PUBCHEM_MONOISOTOPIC_WEIGHT>
308.152477885

> <PUBCHEM_TOTAL_CHARGE>
0

> <PUBCHEM_HEAVY_ATOM_COUNT>
23

> <PUBCHEM_ATOM_DEF_STEREO_COUNT>
0

> <PUBCHEM_ATOM_UDEF_STEREO_COUNT>
0

> <PUBCHEM_BOND_DEF_STEREO_COUNT>
0

> <PUBCHEM_BOND_UDEF_STEREO_COUNT>
0

> <PUBCHEM_ISOTOPIC_ATOM_COUNT>
0

> <PUBCHEM_COMPONENT_COUNT>
1

> <PUBCHEM_CACTVS_TAUTO_COUNT>
-1

> <PUBCHEM_COORDINATE_TYPE>
1
5
255

> <PUBCHEM_BONDANNOTATIONS>
1  15  8
1  22  8
12  13  8
12  16  8
13  17  8
15  20  8
16  18  8
17  19  8
18  19  8
20  21  8
21  22  8
4  13  8
4  14  8
9  12  8
9  14  8

$$$$
