42631781
  -OEChem-09292322422D

 56 59  0     0  0  0  0  0  0999 V2000
    8.4241    6.0585    0.0000 Cl  0  0  0  0  0  0  0  0  0  0  0  0
    1.4030    0.0000    0.0000 F   0  0  0  0  0  0  0  0  0  0  0  0
    4.8950    9.9653    0.0000 O   0  0  0  0  0  0  0  0  0  0  0  0
    4.8950   12.0347    0.0000 O   0  0  0  0  0  0  0  0  0  0  0  0
    3.1350    7.0000    0.0000 N   0  0  0  0  0  0  0  0  0  0  0  0
    3.1350    9.0000    0.0000 N   0  0  0  0  0  0  0  0  0  0  0  0
    0.5369    5.5000    0.0000 N   0  0  0  0  0  0  0  0  0  0  0  0
    4.0010    7.5000    0.0000 C   0  0  0  0  0  0  0  0  0  0  0  0
    2.2690    7.5000    0.0000 C   0  0  0  0  0  0  0  0  0  0  0  0
    4.0010    8.5000    0.0000 C   0  0  0  0  0  0  0  0  0  0  0  0
    2.2690    8.5000    0.0000 C   0  0  0  0  0  0  0  0  0  0  0  0
    3.1350    6.0000    0.0000 C   0  0  0  0  0  0  0  0  0  0  0  0
    3.1350   10.0000    0.0000 C   0  0  0  0  0  0  0  0  0  0  0  0
    4.0010   10.5000    0.0000 C   0  0  0  0  0  0  0  0  0  0  0  0
    2.2690    5.5000    0.0000 C   0  0  0  0  0  0  0  0  0  0  0  0
    2.2690   10.5000    0.0000 C   0  0  0  0  0  0  0  0  0  0  0  0
    4.0010   11.5000    0.0000 C   0  0  0  0  0  0  0  0  0  0  0  0
    2.2690    4.5000    0.0000 C   0  0  0  0  0  0  0  0  0  0  0  0
    2.2690   11.5000    0.0000 C   0  0  0  0  0  0  0  0  0  0  0  0
    3.1350   12.0000    0.0000 C   0  0  0  0  0  0  0  0  0  0  0  0
    1.4030    6.0000    0.0000 C   0  0  0  0  0  0  0  0  0  0  0  0
    5.8010   10.4792    0.0000 C   0  0  0  0  0  0  0  0  0  0  0  0
    5.8010   11.5208    0.0000 C   0  0  0  0  0  0  0  0  0  0  0  0
    1.4030    4.0000    0.0000 C   0  0  0  0  0  0  0  0  0  0  0  0
    0.5369    4.5000    0.0000 C   0  0  0  0  0  0  0  0  0  0  0  0
    1.4030    3.0000    0.0000 C   0  0  0  0  0  0  0  0  0  0  0  0
    2.2690    2.5000    0.0000 C   0  0  0  0  0  0  0  0  0  0  0  0
    0.5369    2.5000    0.0000 C   0  0  0  0  0  0  0  0  0  0  0  0
    2.2690    1.5000    0.0000 C   0  0  0  0  0  0  0  0  0  0  0  0
    0.5369    1.5000    0.0000 C   0  0  0  0  0  0  0  0  0  0  0  0
    1.4030    1.0000    0.0000 C   0  0  0  0  0  0  0  0  0  0  0  0
    4.2131    6.9174    0.0000 H   0  0  0  0  0  0  0  0  0  0  0  0
    4.6116    7.6077    0.0000 H   0  0  0  0  0  0  0  0  0  0  0  0
    1.6584    7.6077    0.0000 H   0  0  0  0  0  0  0  0  0  0  0  0
    2.0569    6.9174    0.0000 H   0  0  0  0  0  0  0  0  0  0  0  0
    4.6116    8.3923    0.0000 H   0  0  0  0  0  0  0  0  0  0  0  0
    4.2131    9.0826    0.0000 H   0  0  0  0  0  0  0  0  0  0  0  0
    2.0569    9.0826    0.0000 H   0  0  0  0  0  0  0  0  0  0  0  0
    1.6584    8.3923    0.0000 H   0  0  0  0  0  0  0  0  0  0  0  0
    3.3471    5.4174    0.0000 H   0  0  0  0  0  0  0  0  0  0  0  0
    3.7456    6.1077    0.0000 H   0  0  0  0  0  0  0  0  0  0  0  0
    1.7320   10.1900    0.0000 H   0  0  0  0  0  0  0  0  0  0  0  0
    2.8059    4.1900    0.0000 H   0  0  0  0  0  0  0  0  0  0  0  0
    1.7320   11.8100    0.0000 H   0  0  0  0  0  0  0  0  0  0  0  0
    3.1350   12.6200    0.0000 H   0  0  0  0  0  0  0  0  0  0  0  0
    1.4030    6.6200    0.0000 H   0  0  0  0  0  0  0  0  0  0  0  0
    6.0101    9.8955    0.0000 H   0  0  0  0  0  0  0  0  0  0  0  0
    6.4119   10.5853    0.0000 H   0  0  0  0  0  0  0  0  0  0  0  0
    6.4119   11.4147    0.0000 H   0  0  0  0  0  0  0  0  0  0  0  0
    6.0101   12.1045    0.0000 H   0  0  0  0  0  0  0  0  0  0  0  0
    0.0000    4.1900    0.0000 H   0  0  0  0  0  0  0  0  0  0  0  0
    2.8059    2.8100    0.0000 H   0  0  0  0  0  0  0  0  0  0  0  0
    0.0000    2.8100    0.0000 H   0  0  0  0  0  0  0  0  0  0  0  0
    2.8059    1.1900    0.0000 H   0  0  0  0  0  0  0  0  0  0  0  0
    0.0000    1.1900    0.0000 H   0  0  0  0  0  0  0  0  0  0  0  0
    9.4241    6.0585    0.0000 H   0  0  0  0  0  0  0  0  0  0  0  0
  1 56  1  0  0  0  0
  2 31  1  0  0  0  0
  3 14  1  0  0  0  0
  3 22  1  0  0  0  0
  4 17  1  0  0  0  0
  4 23  1  0  0  0  0
  5  8  1  0  0  0  0
  5  9  1  0  0  0  0
  5 12  1  0  0  0  0
  6 10  1  0  0  0  0
  6 11  1  0  0  0  0
  6 13  1  0  0  0  0
  7 21  2  0  0  0  0
  7 25  1  0  0  0  0
  8 10  1  0  0  0  0
  8 32  1  0  0  0  0
  8 33  1  0  0  0  0
  9 11  1  0  0  0  0
  9 34  1  0  0  0  0
  9 35  1  0  0  0  0
 10 36  1  0  0  0  0
 10 37  1  0  0  0  0
 11 38  1  0  0  0  0
 11 39  1  0  0  0  0
 12 15  1  0  0  0  0
 12 40  1  0  0  0  0
 12 41  1  0  0  0  0
 13 14  2  0  0  0  0
 13 16  1  0  0  0  0
 14 17  1  0  0  0  0
 15 18  2  0  0  0  0
 15 21  1  0  0  0  0
 16 19  2  0  0  0  0
 16 42  1  0  0  0  0
 17 20  2  0  0  0  0
 18 24  1  0  0  0  0
 18 43  1  0  0  0  0
 19 20  1  0  0  0  0
 19 44  1  0  0  0  0
 20 45  1  0  0  0  0
 21 46  1  0  0  0  0
 22 23  1  0  0  0  0
 22 47  1  0  0  0  0
 22 48  1  0  0  0  0
 23 49  1  0  0  0  0
 23 50  1  0  0  0  0
 24 25  2  0  0  0  0
 24 26  1  0  0  0  0
 25 51  1  0  0  0  0
 26 27  2  0  0  0  0
 26 28  1  0  0  0  0
 27 29  1  0  0  0  0
 27 52  1  0  0  0  0
 28 30  2  0  0  0  0
 28 53  1  0  0  0  0
 29 31  2  0  0  0  0
 29 54  1  0  0  0  0
 30 31  1  0  0  0  0
 30 55  1  0  0  0  0
M  END
> <PUBCHEM_COMPOUND_CID>
42631781

> <PUBCHEM_COMPOUND_CANONICALIZED>
1

> <PUBCHEM_CACTVS_COMPLEXITY>
537

> <PUBCHEM_CACTVS_HBOND_ACCEPTOR>
6

> <PUBCHEM_CACTVS_HBOND_DONOR>
1

> <PUBCHEM_CACTVS_ROTATABLE_BOND>
4

> <PUBCHEM_CACTVS_SUBSKEYS>
AAADceB7MQAEAAAAAAAAAAAAAAAAAAAAAAA8eJECAAAAAACR0AAAHwAAAAAADAzhmg48xpMIFACgAjRnRACCiCAxIiAI2CAv7JgPZuLE8ZuXOCrmwBna6AeQ0MMOgAAAAgAAUAAAAAAEAACgAAAAAAAAAA==

> <PUBCHEM_IUPAC_OPENEYE_NAME>
1-(2,3-dihydro-1,4-benzodioxin-5-yl)-4-[[5-(4-fluorophenyl)-3-pyridyl]methyl]piperazine;hydrochloride

> <PUBCHEM_IUPAC_CAS_NAME>
1-(2,3-dihydro-1,4-benzodioxin-5-yl)-4-[[5-(4-fluorophenyl)-3-pyridinyl]methyl]piperazine;hydrochloride

> <PUBCHEM_IUPAC_NAME_MARKUP>
1-(2,3-dihydro-1,4-benzodioxin-5-yl)-4-[[5-(4-fluorophenyl)pyridin-3-yl]methyl]piperazine;hydrochloride

> <PUBCHEM_IUPAC_NAME>
1-(2,3-dihydro-1,4-benzodioxin-5-yl)-4-[[5-(4-fluorophenyl)pyridin-3-yl]methyl]piperazine;hydrochloride

> <PUBCHEM_IUPAC_SYSTEMATIC_NAME>
1-(2,3-dihydro-1,4-benzodioxin-5-yl)-4-[[5-(4-fluorophenyl)pyridin-3-yl]methyl]piperazine;hydrochloride

> <PUBCHEM_IUPAC_TRADITIONAL_NAME>
1-(2,3-dihydro-1,4-benzodioxin-5-yl)-4-[[5-(4-fluorophenyl)-3-pyridyl]methyl]piperazine;hydrochloride

> <PUBCHEM_IUPAC_INCHI>
InChI=1S/C24H24FN3O2.ClH/c25-21-6-4-19(5-7-21)20-14-18(15-26-16-20)17-27-8-10-28(11-9-27)22-2-1-3-23-24(22)30-13-12-29-23;/h1-7,14-16H,8-13,17H2;1H

> <PUBCHEM_IUPAC_INCHIKEY>
PAPGPUNOWOEIPA-UHFFFAOYSA-N

> <PUBCHEM_EXACT_MASS>
441.1619329

> <PUBCHEM_MOLECULAR_FORMULA>
C24H25ClFN3O2

> <PUBCHEM_MOLECULAR_WEIGHT>
441.9

> <PUBCHEM_OPENEYE_CAN_SMILES>
C1CN(CCN1CC2=CC(=CN=C2)C3=CC=C(C=C3)F)C4=C5C(=CC=C4)OCCO5.Cl

> <PUBCHEM_OPENEYE_ISO_SMILES>
C1CN(CCN1CC2=CC(=CN=C2)C3=CC=C(C=C3)F)C4=C5C(=CC=C4)OCCO5.Cl

> <PUBCHEM_CACTVS_TPSA>
37.8

> <PUBCHEM_MONOISOTOPIC_WEIGHT>
441.1619329

> <PUBCHEM_TOTAL_CHARGE>
0

> <PUBCHEM_HEAVY_ATOM_COUNT>
31

> <PUBCHEM_ATOM_DEF_STEREO_COUNT>
0

> <PUBCHEM_ATOM_UDEF_STEREO_COUNT>
0

> <PUBCHEM_BOND_DEF_STEREO_COUNT>
0

> <PUBCHEM_BOND_UDEF_STEREO_COUNT>
0

> <PUBCHEM_ISOTOPIC_ATOM_COUNT>
0

> <PUBCHEM_COMPONENT_COUNT>
2

> <PUBCHEM_CACTVS_TAUTO_COUNT>
1

> <PUBCHEM_COORDINATE_TYPE>
1
5
255

> <PUBCHEM_BONDANNOTATIONS>
13  14  8
13  16  8
14  17  8
15  18  8
15  21  8
16  19  8
17  20  8
18  24  8
19  20  8
24  25  8
26  27  8
26  28  8
27  29  8
28  30  8
29  31  8
30  31  8
7  21  8
7  25  8

$$$$
