56926585
  -OEChem-09292322482D

 49 52  0     0  0  0  0  0  0999 V2000
    2.0000    0.7327    0.0000 F   0  0  0  0  0  0  0  0  0  0  0  0
   11.5542    0.1980    0.0000 O   0  0  0  0  0  0  0  0  0  0  0  0
   11.5542    2.2673    0.0000 O   0  0  0  0  0  0  0  0  0  0  0  0
    2.0000   -1.2673    0.0000 O   0  0  0  0  0  0  0  0  0  0  0  0
    6.3301   -0.7673    0.0000 N   0  0  0  0  0  0  0  0  0  0  0  0
    8.0622    0.2327    0.0000 N   0  0  0  0  0  0  0  0  0  0  0  0
    7.1962   -1.2673    0.0000 C   0  0  0  0  0  0  0  0  0  0  0  0
    6.3301    0.2327    0.0000 C   0  0  0  0  0  0  0  0  0  0  0  0
    8.0622   -0.7673    0.0000 C   0  0  0  0  0  0  0  0  0  0  0  0
    7.1962    0.7327    0.0000 C   0  0  0  0  0  0  0  0  0  0  0  0
    5.4641   -1.2673    0.0000 C   0  0  0  0  0  0  0  0  0  0  0  0
    8.9282    0.7327    0.0000 C   0  0  0  0  0  0  0  0  0  0  0  0
    4.5981   -0.7673    0.0000 C   0  0  0  0  0  0  0  0  0  0  0  0
    9.7942    0.2327    0.0000 C   0  0  0  0  0  0  0  0  0  0  0  0
    8.9282    1.7327    0.0000 C   0  0  0  0  0  0  0  0  0  0  0  0
   10.6603    0.7327    0.0000 C   0  0  0  0  0  0  0  0  0  0  0  0
   10.6603    1.7327    0.0000 C   0  0  0  0  0  0  0  0  0  0  0  0
    9.7942    2.2327    0.0000 C   0  0  0  0  0  0  0  0  0  0  0  0
    3.7320   -1.2673    0.0000 C   0  0  0  0  0  0  0  0  0  0  0  0
    4.5981    0.2327    0.0000 C   0  0  0  0  0  0  0  0  0  0  0  0
   12.4603    0.7119    0.0000 C   0  0  0  0  0  0  0  0  0  0  0  0
   12.4603    1.7535    0.0000 C   0  0  0  0  0  0  0  0  0  0  0  0
    2.8660   -0.7673    0.0000 C   0  0  0  0  0  0  0  0  0  0  0  0
    3.7320    0.7327    0.0000 C   0  0  0  0  0  0  0  0  0  0  0  0
    2.8660    0.2327    0.0000 C   0  0  0  0  0  0  0  0  0  0  0  0
    2.0000   -2.2673    0.0000 C   0  0  0  0  0  0  0  0  0  0  0  0
    6.7976   -1.7423    0.0000 H   0  0  0  0  0  0  0  0  0  0  0  0
    7.5947   -1.7423    0.0000 H   0  0  0  0  0  0  0  0  0  0  0  0
    6.1181    0.8153    0.0000 H   0  0  0  0  0  0  0  0  0  0  0  0
    5.7196    0.1250    0.0000 H   0  0  0  0  0  0  0  0  0  0  0  0
    8.2742   -1.3499    0.0000 H   0  0  0  0  0  0  0  0  0  0  0  0
    8.6728   -0.6597    0.0000 H   0  0  0  0  0  0  0  0  0  0  0  0
    7.5947    1.2076    0.0000 H   0  0  0  0  0  0  0  0  0  0  0  0
    6.7976    1.2076    0.0000 H   0  0  0  0  0  0  0  0  0  0  0  0
    5.0656   -1.7423    0.0000 H   0  0  0  0  0  0  0  0  0  0  0  0
    5.8626   -1.7423    0.0000 H   0  0  0  0  0  0  0  0  0  0  0  0
    9.7942   -0.3873    0.0000 H   0  0  0  0  0  0  0  0  0  0  0  0
    8.3913    2.0427    0.0000 H   0  0  0  0  0  0  0  0  0  0  0  0
    9.7942    2.8527    0.0000 H   0  0  0  0  0  0  0  0  0  0  0  0
    3.7320   -1.8873    0.0000 H   0  0  0  0  0  0  0  0  0  0  0  0
    5.1350    0.5427    0.0000 H   0  0  0  0  0  0  0  0  0  0  0  0
   12.6693    0.1282    0.0000 H   0  0  0  0  0  0  0  0  0  0  0  0
   13.0711    0.8179    0.0000 H   0  0  0  0  0  0  0  0  0  0  0  0
   13.0711    1.6474    0.0000 H   0  0  0  0  0  0  0  0  0  0  0  0
   12.6693    2.3372    0.0000 H   0  0  0  0  0  0  0  0  0  0  0  0
    3.7320    1.3527    0.0000 H   0  0  0  0  0  0  0  0  0  0  0  0
    1.3800   -2.2673    0.0000 H   0  0  0  0  0  0  0  0  0  0  0  0
    2.0000   -2.8873    0.0000 H   0  0  0  0  0  0  0  0  0  0  0  0
    2.6200   -2.2673    0.0000 H   0  0  0  0  0  0  0  0  0  0  0  0
  1 25  1  0  0  0  0
  2 16  1  0  0  0  0
  2 21  1  0  0  0  0
  3 17  1  0  0  0  0
  3 22  1  0  0  0  0
  4 23  1  0  0  0  0
  4 26  1  0  0  0  0
  5  7  1  0  0  0  0
  5  8  1  0  0  0  0
  5 11  1  0  0  0  0
  6  9  1  0  0  0  0
  6 10  1  0  0  0  0
  6 12  1  0  0  0  0
  7  9  1  0  0  0  0
  7 27  1  0  0  0  0
  7 28  1  0  0  0  0
  8 10  1  0  0  0  0
  8 29  1  0  0  0  0
  8 30  1  0  0  0  0
  9 31  1  0  0  0  0
  9 32  1  0  0  0  0
 10 33  1  0  0  0  0
 10 34  1  0  0  0  0
 11 13  1  0  0  0  0
 11 35  1  0  0  0  0
 11 36  1  0  0  0  0
 12 14  2  0  0  0  0
 12 15  1  0  0  0  0
 13 19  2  0  0  0  0
 13 20  1  0  0  0  0
 14 16  1  0  0  0  0
 14 37  1  0  0  0  0
 15 18  2  0  0  0  0
 15 38  1  0  0  0  0
 16 17  2  0  0  0  0
 17 18  1  0  0  0  0
 18 39  1  0  0  0  0
 19 23  1  0  0  0  0
 19 40  1  0  0  0  0
 20 24  2  0  0  0  0
 20 41  1  0  0  0  0
 21 22  1  0  0  0  0
 21 42  1  0  0  0  0
 21 43  1  0  0  0  0
 22 44  1  0  0  0  0
 22 45  1  0  0  0  0
 23 25  2  0  0  0  0
 24 25  1  0  0  0  0
 24 46  1  0  0  0  0
 26 47  1  0  0  0  0
 26 48  1  0  0  0  0
 26 49  1  0  0  0  0
M  END
> <PUBCHEM_COMPOUND_CID>
56926585

> <PUBCHEM_COMPOUND_CANONICALIZED>
1

> <PUBCHEM_CACTVS_COMPLEXITY>
447

> <PUBCHEM_CACTVS_HBOND_ACCEPTOR>
6

> <PUBCHEM_CACTVS_HBOND_DONOR>
0

> <PUBCHEM_CACTVS_ROTATABLE_BOND>
4

> <PUBCHEM_CACTVS_SUBSKEYS>
AAADceB7MQAAAAAAAAAAAAAAAAAAAAAAAAA8aIEAAAAAAACRQAAAHwAAAAAADAzhmA4yxoMABACAAiRCQACCCAAhIgAIiAAO7IgNZiLEsZuWOCrmwBnK6Aew0BMOAEABAgAAQAAAgAIEAACAAAAAAAAAAA==

> <PUBCHEM_IUPAC_OPENEYE_NAME>
1-(2,3-dihydro-1,4-benzodioxin-6-yl)-4-[(4-fluoro-3-methoxy-phenyl)methyl]piperazine

> <PUBCHEM_IUPAC_CAS_NAME>
1-(2,3-dihydro-1,4-benzodioxin-6-yl)-4-[(4-fluoro-3-methoxyphenyl)methyl]piperazine

> <PUBCHEM_IUPAC_NAME_MARKUP>
1-(2,3-dihydro-1,4-benzodioxin-6-yl)-4-[(4-fluoro-3-methoxyphenyl)methyl]piperazine

> <PUBCHEM_IUPAC_NAME>
1-(2,3-dihydro-1,4-benzodioxin-6-yl)-4-[(4-fluoro-3-methoxyphenyl)methyl]piperazine

> <PUBCHEM_IUPAC_SYSTEMATIC_NAME>
1-(2,3-dihydro-1,4-benzodioxin-6-yl)-4-[(4-fluoranyl-3-methoxy-phenyl)methyl]piperazine

> <PUBCHEM_IUPAC_TRADITIONAL_NAME>
1-(2,3-dihydro-1,4-benzodioxin-6-yl)-4-(4-fluoro-3-methoxy-benzyl)piperazine

> <PUBCHEM_IUPAC_INCHI>
InChI=1S/C20H23FN2O3/c1-24-19-12-15(2-4-17(19)21)14-22-6-8-23(9-7-22)16-3-5-18-20(13-16)26-11-10-25-18/h2-5,12-13H,6-11,14H2,1H3

> <PUBCHEM_IUPAC_INCHIKEY>
OSBMHRHGAFUBCG-UHFFFAOYSA-N

> <PUBCHEM_XLOGP3_AA>
3.1

> <PUBCHEM_EXACT_MASS>
358.16927076

> <PUBCHEM_MOLECULAR_FORMULA>
C20H23FN2O3

> <PUBCHEM_MOLECULAR_WEIGHT>
358.4

> <PUBCHEM_OPENEYE_CAN_SMILES>
COC1=C(C=CC(=C1)CN2CCN(CC2)C3=CC4=C(C=C3)OCCO4)F

> <PUBCHEM_OPENEYE_ISO_SMILES>
COC1=C(C=CC(=C1)CN2CCN(CC2)C3=CC4=C(C=C3)OCCO4)F

> <PUBCHEM_CACTVS_TPSA>
34.2

> <PUBCHEM_MONOISOTOPIC_WEIGHT>
358.16927076

> <PUBCHEM_TOTAL_CHARGE>
0

> <PUBCHEM_HEAVY_ATOM_COUNT>
26

> <PUBCHEM_ATOM_DEF_STEREO_COUNT>
0

> <PUBCHEM_ATOM_UDEF_STEREO_COUNT>
0

> <PUBCHEM_BOND_DEF_STEREO_COUNT>
0

> <PUBCHEM_BOND_UDEF_STEREO_COUNT>
0

> <PUBCHEM_ISOTOPIC_ATOM_COUNT>
0

> <PUBCHEM_COMPONENT_COUNT>
1

> <PUBCHEM_CACTVS_TAUTO_COUNT>
-1

> <PUBCHEM_COORDINATE_TYPE>
1
5
255

> <PUBCHEM_BONDANNOTATIONS>
12  14  8
12  15  8
13  19  8
13  20  8
14  16  8
15  18  8
16  17  8
17  18  8
19  23  8
20  24  8
23  25  8
24  25  8

$$$$
