46880566
  -OEChem-09292322482D

 60 64  0     1  0  0  0  0  0999 V2000
    2.0000   -2.2500    0.0000 F   0  0  0  0  0  0  0  0  0  0  0  0
    3.0000   -3.2500    0.0000 F   0  0  0  0  0  0  0  0  0  0  0  0
    4.0000   -2.2500    0.0000 F   0  0  0  0  0  0  0  0  0  0  0  0
   10.7942   -0.7500    0.0000 O   0  0  0  0  0  0  0  0  0  0  0  0
    7.3301    3.2500    0.0000 O   0  0  0  0  0  0  0  0  0  0  0  0
    9.9282    0.7500    0.0000 N   0  0  0  0  0  0  0  0  0  0  0  0
    8.1962    1.7500    0.0000 N   0  0  0  0  0  0  0  0  0  0  0  0
   14.3385    0.4453    0.0000 N   0  0  0  0  0  0  0  0  0  0  0  0
    9.9282    1.7500    0.0000 C   0  0  2  0  0  0  0  0  0  0  0  0
    9.0622    2.2500    0.0000 C   0  0  0  0  0  0  0  0  0  0  0  0
    9.0622    0.2500    0.0000 C   0  0  0  0  0  0  0  0  0  0  0  0
    8.1962    0.7500    0.0000 C   0  0  0  0  0  0  0  0  0  0  0  0
   10.7942    2.2500    0.0000 C   0  0  0  0  0  0  0  0  0  0  0  0
   10.7942    0.2500    0.0000 C   0  0  0  0  0  0  0  0  0  0  0  0
    7.3301    2.2500    0.0000 C   0  0  0  0  0  0  0  0  0  0  0  0
   11.6603    0.7500    0.0000 C   0  0  0  0  0  0  0  0  0  0  0  0
    6.4641    1.7500    0.0000 C   0  0  0  0  0  0  0  0  0  0  0  0
   12.5263    0.2500    0.0000 C   0  0  0  0  0  0  0  0  0  0  0  0
   11.6603    1.7500    0.0000 C   0  0  0  0  0  0  0  0  0  0  0  0
   13.3923    0.7500    0.0000 C   0  0  0  0  0  0  0  0  0  0  0  0
    6.4641    0.7500    0.0000 C   0  0  0  0  0  0  0  0  0  0  0  0
    5.5981    2.2500    0.0000 C   0  0  0  0  0  0  0  0  0  0  0  0
   13.3923    1.7500    0.0000 C   0  0  0  0  0  0  0  0  0  0  0  0
   12.5263    2.2500    0.0000 C   0  0  0  0  0  0  0  0  0  0  0  0
    4.7320    0.7500    0.0000 C   0  0  0  0  0  0  0  0  0  0  0  0
    5.5981    0.2500    0.0000 C   0  0  0  0  0  0  0  0  0  0  0  0
    4.7320    1.7500    0.0000 C   0  0  0  0  0  0  0  0  0  0  0  0
   14.3385    2.0547    0.0000 C   0  0  0  0  0  0  0  0  0  0  0  0
   14.9221    1.2500    0.0000 C   0  0  0  0  0  0  0  0  0  0  0  0
    3.8660    0.2500    0.0000 C   0  0  0  0  0  0  0  0  0  0  0  0
    3.8660   -0.7500    0.0000 C   0  0  0  0  0  0  0  0  0  0  0  0
    3.0000    0.7500    0.0000 C   0  0  0  0  0  0  0  0  0  0  0  0
    3.0000   -1.2500    0.0000 C   0  0  0  0  0  0  0  0  0  0  0  0
    2.1340    0.2500    0.0000 C   0  0  0  0  0  0  0  0  0  0  0  0
    2.1340   -0.7500    0.0000 C   0  0  0  0  0  0  0  0  0  0  0  0
    3.0000   -2.2500    0.0000 C   0  0  0  0  0  0  0  0  0  0  0  0
   10.4651    1.4400    0.0000 H   0  0  0  0  0  0  0  0  0  0  0  0
    9.4607    2.7250    0.0000 H   0  0  0  0  0  0  0  0  0  0  0  0
    8.6636    2.7250    0.0000 H   0  0  0  0  0  0  0  0  0  0  0  0
    8.6636   -0.2249    0.0000 H   0  0  0  0  0  0  0  0  0  0  0  0
    9.4607   -0.2249    0.0000 H   0  0  0  0  0  0  0  0  0  0  0  0
    7.5856    0.8577    0.0000 H   0  0  0  0  0  0  0  0  0  0  0  0
    7.9841    0.1674    0.0000 H   0  0  0  0  0  0  0  0  0  0  0  0
   11.1042    1.7131    0.0000 H   0  0  0  0  0  0  0  0  0  0  0  0
   11.3312    2.5600    0.0000 H   0  0  0  0  0  0  0  0  0  0  0  0
   10.4842    2.7869    0.0000 H   0  0  0  0  0  0  0  0  0  0  0  0
   12.5263   -0.3700    0.0000 H   0  0  0  0  0  0  0  0  0  0  0  0
   11.1233    2.0600    0.0000 H   0  0  0  0  0  0  0  0  0  0  0  0
    7.0010    0.4400    0.0000 H   0  0  0  0  0  0  0  0  0  0  0  0
    5.5981    2.8700    0.0000 H   0  0  0  0  0  0  0  0  0  0  0  0
   12.5263    2.8700    0.0000 H   0  0  0  0  0  0  0  0  0  0  0  0
    5.5981   -0.3700    0.0000 H   0  0  0  0  0  0  0  0  0  0  0  0
    4.1951    2.0600    0.0000 H   0  0  0  0  0  0  0  0  0  0  0  0
   14.5311   -0.1441    0.0000 H   0  0  0  0  0  0  0  0  0  0  0  0
   14.5311    2.6440    0.0000 H   0  0  0  0  0  0  0  0  0  0  0  0
   15.5421    1.2500    0.0000 H   0  0  0  0  0  0  0  0  0  0  0  0
    4.4030   -1.0600    0.0000 H   0  0  0  0  0  0  0  0  0  0  0  0
    3.0000    1.3700    0.0000 H   0  0  0  0  0  0  0  0  0  0  0  0
    1.5970    0.5600    0.0000 H   0  0  0  0  0  0  0  0  0  0  0  0
    1.5970   -1.0600    0.0000 H   0  0  0  0  0  0  0  0  0  0  0  0
  1 36  1  0  0  0  0
  2 36  1  0  0  0  0
  3 36  1  0  0  0  0
  4 14  2  0  0  0  0
  5 15  2  0  0  0  0
  6  9  1  0  0  0  0
  6 11  1  0  0  0  0
  6 14  1  0  0  0  0
  7 10  1  0  0  0  0
  7 12  1  0  0  0  0
  7 15  1  0  0  0  0
  8 20  1  0  0  0  0
  8 29  1  0  0  0  0
  8 54  1  0  0  0  0
  9 10  1  0  0  0  0
  9 13  1  6  0  0  0
  9 37  1  0  0  0  0
 10 38  1  0  0  0  0
 10 39  1  0  0  0  0
 11 12  1  0  0  0  0
 11 40  1  0  0  0  0
 11 41  1  0  0  0  0
 12 42  1  0  0  0  0
 12 43  1  0  0  0  0
 13 44  1  0  0  0  0
 13 45  1  0  0  0  0
 13 46  1  0  0  0  0
 14 16  1  0  0  0  0
 15 17  1  0  0  0  0
 16 18  2  0  0  0  0
 16 19  1  0  0  0  0
 17 21  2  0  0  0  0
 17 22  1  0  0  0  0
 18 20  1  0  0  0  0
 18 47  1  0  0  0  0
 19 24  2  0  0  0  0
 19 48  1  0  0  0  0
 20 23  2  0  0  0  0
 21 26  1  0  0  0  0
 21 49  1  0  0  0  0
 22 27  2  0  0  0  0
 22 50  1  0  0  0  0
 23 24  1  0  0  0  0
 23 28  1  0  0  0  0
 24 51  1  0  0  0  0
 25 26  2  0  0  0  0
 25 27  1  0  0  0  0
 25 30  1  0  0  0  0
 26 52  1  0  0  0  0
 27 53  1  0  0  0  0
 28 29  2  0  0  0  0
 28 55  1  0  0  0  0
 29 56  1  0  0  0  0
 30 31  2  0  0  0  0
 30 32  1  0  0  0  0
 31 33  1  0  0  0  0
 31 57  1  0  0  0  0
 32 34  2  0  0  0  0
 32 58  1  0  0  0  0
 33 35  2  0  0  0  0
 33 36  1  0  0  0  0
 34 35  1  0  0  0  0
 34 59  1  0  0  0  0
 35 60  1  0  0  0  0
M  END
> <PUBCHEM_COMPOUND_CID>
46880566

> <PUBCHEM_COMPOUND_CANONICALIZED>
1

> <PUBCHEM_CACTVS_COMPLEXITY>
797

> <PUBCHEM_CACTVS_HBOND_ACCEPTOR>
5

> <PUBCHEM_CACTVS_HBOND_DONOR>
1

> <PUBCHEM_CACTVS_ROTATABLE_BOND>
3

> <PUBCHEM_CACTVS_SUBSKEYS>
AAADceB7MYAAAAAAAAAAAAAAAAAAAWAAAAA8YMEAAAAAAFgB9AAAHwAQAAAADCjBnhQ+wPPJkACoAzV3VACCgCA1AiAI2aE4ZNgIYPLAlZGUIQhglgDIyYcciMCOwAACQAACAACAAASAAAQAAAAAAAAAAA==

> <PUBCHEM_IUPAC_OPENEYE_NAME>
[(3S)-4-(1H-indole-6-carbonyl)-3-methyl-piperazin-1-yl]-[4-[3-(trifluoromethyl)phenyl]phenyl]methanone

> <PUBCHEM_IUPAC_CAS_NAME>
[(3S)-4-[1H-indol-6-yl(oxo)methyl]-3-methyl-1-piperazinyl]-[4-[3-(trifluoromethyl)phenyl]phenyl]methanone

> <PUBCHEM_IUPAC_NAME_MARKUP>
[(3<I>S</I>)-4-(1<I>H</I>-indole-6-carbonyl)-3-methylpiperazin-1-yl]-[4-[3-(trifluoromethyl)phenyl]phenyl]methanone

> <PUBCHEM_IUPAC_NAME>
[(3S)-4-(1H-indole-6-carbonyl)-3-methylpiperazin-1-yl]-[4-[3-(trifluoromethyl)phenyl]phenyl]methanone

> <PUBCHEM_IUPAC_SYSTEMATIC_NAME>
[(3S)-4-(1H-indol-6-ylcarbonyl)-3-methyl-piperazin-1-yl]-[4-[3-(trifluoromethyl)phenyl]phenyl]methanone

> <PUBCHEM_IUPAC_TRADITIONAL_NAME>
[(3S)-4-(1H-indole-6-carbonyl)-3-methyl-piperazino]-[4-[3-(trifluoromethyl)phenyl]phenyl]methanone

> <PUBCHEM_IUPAC_INCHI>
InChI=1S/C28H24F3N3O2/c1-18-17-33(13-14-34(18)27(36)23-10-7-20-11-12-32-25(20)16-23)26(35)21-8-5-19(6-9-21)22-3-2-4-24(15-22)28(29,30)31/h2-12,15-16,18,32H,13-14,17H2,1H3/t18-/m0/s1

> <PUBCHEM_IUPAC_INCHIKEY>
MYYHPWVXRPLYMD-SFHVURJKSA-N

> <PUBCHEM_XLOGP3_AA>
5.4

> <PUBCHEM_EXACT_MASS>
491.18206150

> <PUBCHEM_MOLECULAR_FORMULA>
C28H24F3N3O2

> <PUBCHEM_MOLECULAR_WEIGHT>
491.5

> <PUBCHEM_OPENEYE_CAN_SMILES>
CC1CN(CCN1C(=O)C2=CC3=C(C=C2)C=CN3)C(=O)C4=CC=C(C=C4)C5=CC(=CC=C5)C(F)(F)F

> <PUBCHEM_OPENEYE_ISO_SMILES>
C[C@H]1CN(CCN1C(=O)C2=CC3=C(C=C2)C=CN3)C(=O)C4=CC=C(C=C4)C5=CC(=CC=C5)C(F)(F)F

> <PUBCHEM_CACTVS_TPSA>
56.4

> <PUBCHEM_MONOISOTOPIC_WEIGHT>
491.18206150

> <PUBCHEM_TOTAL_CHARGE>
0

> <PUBCHEM_HEAVY_ATOM_COUNT>
36

> <PUBCHEM_ATOM_DEF_STEREO_COUNT>
1

> <PUBCHEM_ATOM_UDEF_STEREO_COUNT>
0

> <PUBCHEM_BOND_DEF_STEREO_COUNT>
0

> <PUBCHEM_BOND_UDEF_STEREO_COUNT>
0

> <PUBCHEM_ISOTOPIC_ATOM_COUNT>
0

> <PUBCHEM_COMPONENT_COUNT>
1

> <PUBCHEM_CACTVS_TAUTO_COUNT>
-1

> <PUBCHEM_COORDINATE_TYPE>
1
5
255

> <PUBCHEM_BONDANNOTATIONS>
16  18  8
16  19  8
17  21  8
17  22  8
18  20  8
19  24  8
20  23  8
21  26  8
22  27  8
23  24  8
23  28  8
25  26  8
25  27  8
28  29  8
30  31  8
30  32  8
31  33  8
32  34  8
33  35  8
34  35  8
8  20  8
8  29  8
9  13  6

$$$$
