44436720
  -OEChem-09292322252D

 68 72  0     1  0  0  0  0  0999 V2000
   15.6584   -2.6224    0.0000 Cl  0  0  0  0  0  0  0  0  0  0  0  0
    4.9889   -1.3262    0.0000 O   0  0  0  0  0  0  0  0  0  0  0  0
    4.9889    2.1842    0.0000 O   0  0  0  0  0  0  0  0  0  0  0  0
   11.4525   -0.8030    0.0000 N   0  0  3  0  0  0  0  0  0  0  0  0
    9.2619   -1.3030    0.0000 N   0  0  3  0  0  0  0  0  0  0  0  0
    5.2619    0.4290    0.0000 N   0  0  0  0  0  0  0  0  0  0  0  0
   10.6707   -0.1796    0.0000 C   0  0  0  0  0  0  0  0  0  0  0  0
    9.6958   -0.4021    0.0000 C   0  0  0  0  0  0  0  0  0  0  0  0
   11.4525   -1.8030    0.0000 C   0  0  0  0  0  0  0  0  0  0  0  0
    9.6958   -2.2040    0.0000 C   0  0  0  0  0  0  0  0  0  0  0  0
   10.6707   -2.4265    0.0000 C   0  0  0  0  0  0  0  0  0  0  0  0
   12.3535   -0.3692    0.0000 C   0  0  3  0  0  0  0  0  0  0  0  0
    8.2619   -1.3030    0.0000 C   0  0  0  0  0  0  0  0  0  0  0  0
    7.7619   -0.4370    0.0000 C   0  0  0  0  0  0  0  0  0  0  0  0
   13.1797   -0.9325    0.0000 C   0  0  0  0  0  0  0  0  0  0  0  0
   12.4282    0.6280    0.0000 C   0  0  0  0  0  0  0  0  0  0  0  0
    6.7619   -0.4370    0.0000 C   0  0  0  0  0  0  0  0  0  0  0  0
    6.2619    0.4290    0.0000 C   0  0  0  0  0  0  0  0  0  0  0  0
   14.0807   -0.4986    0.0000 C   0  0  0  0  0  0  0  0  0  0  0  0
   13.1050   -1.9297    0.0000 C   0  0  0  0  0  0  0  0  0  0  0  0
   13.3292    1.0619    0.0000 C   0  0  0  0  0  0  0  0  0  0  0  0
   11.6020    1.1914    0.0000 C   0  0  0  0  0  0  0  0  0  0  0  0
    4.6783   -0.3757    0.0000 C   0  0  0  0  0  0  0  0  0  0  0  0
    4.6783    1.2337    0.0000 C   0  0  0  0  0  0  0  0  0  0  0  0
   14.9069   -1.0619    0.0000 C   0  0  0  0  0  0  0  0  0  0  0  0
   13.9312   -2.4930    0.0000 C   0  0  0  0  0  0  0  0  0  0  0  0
   13.4039    2.0591    0.0000 C   0  0  0  0  0  0  0  0  0  0  0  0
   11.6767    2.1886    0.0000 C   0  0  0  0  0  0  0  0  0  0  0  0
    3.7320   -0.0710    0.0000 C   0  0  0  0  0  0  0  0  0  0  0  0
    3.7320    0.9290    0.0000 C   0  0  0  0  0  0  0  0  0  0  0  0
   14.8322   -2.0591    0.0000 C   0  0  0  0  0  0  0  0  0  0  0  0
   12.5777    2.6224    0.0000 C   0  0  0  0  0  0  0  0  0  0  0  0
    2.8660   -0.5710    0.0000 C   0  0  0  0  0  0  0  0  0  0  0  0
    2.8660    1.4290    0.0000 C   0  0  0  0  0  0  0  0  0  0  0  0
    2.0000   -0.0710    0.0000 C   0  0  0  0  0  0  0  0  0  0  0  0
    2.0000    0.9290    0.0000 C   0  0  0  0  0  0  0  0  0  0  0  0
   11.1554    0.2070    0.0000 H   0  0  0  0  0  0  0  0  0  0  0  0
   10.4017    0.3790    0.0000 H   0  0  0  0  0  0  0  0  0  0  0  0
    9.6958    0.2179    0.0000 H   0  0  0  0  0  0  0  0  0  0  0  0
    9.0913   -0.2641    0.0000 H   0  0  0  0  0  0  0  0  0  0  0  0
   11.7215   -2.3616    0.0000 H   0  0  0  0  0  0  0  0  0  0  0  0
   12.0570   -1.6651    0.0000 H   0  0  0  0  0  0  0  0  0  0  0  0
    9.0913   -2.3420    0.0000 H   0  0  0  0  0  0  0  0  0  0  0  0
    9.6958   -2.8240    0.0000 H   0  0  0  0  0  0  0  0  0  0  0  0
   10.4017   -2.9851    0.0000 H   0  0  0  0  0  0  0  0  0  0  0  0
   11.1554   -2.8131    0.0000 H   0  0  0  0  0  0  0  0  0  0  0  0
   11.8412   -0.0199    0.0000 H   0  0  0  0  0  0  0  0  0  0  0  0
    7.6793   -1.5151    0.0000 H   0  0  0  0  0  0  0  0  0  0  0  0
    8.3695   -1.9136    0.0000 H   0  0  0  0  0  0  0  0  0  0  0  0
    8.3445   -0.2250    0.0000 H   0  0  0  0  0  0  0  0  0  0  0  0
    7.6542    0.1736    0.0000 H   0  0  0  0  0  0  0  0  0  0  0  0
    6.1793   -0.6491    0.0000 H   0  0  0  0  0  0  0  0  0  0  0  0
    6.8695   -1.0476    0.0000 H   0  0  0  0  0  0  0  0  0  0  0  0
    6.8445    0.6411    0.0000 H   0  0  0  0  0  0  0  0  0  0  0  0
    6.1542    1.0396    0.0000 H   0  0  0  0  0  0  0  0  0  0  0  0
   14.1270    0.1197    0.0000 H   0  0  0  0  0  0  0  0  0  0  0  0
   12.5464   -2.1987    0.0000 H   0  0  0  0  0  0  0  0  0  0  0  0
   13.8415    0.7127    0.0000 H   0  0  0  0  0  0  0  0  0  0  0  0
   11.0434    0.9224    0.0000 H   0  0  0  0  0  0  0  0  0  0  0  0
   15.4655   -0.7929    0.0000 H   0  0  0  0  0  0  0  0  0  0  0  0
   13.8849   -3.1113    0.0000 H   0  0  0  0  0  0  0  0  0  0  0  0
   13.9625    2.3281    0.0000 H   0  0  0  0  0  0  0  0  0  0  0  0
   11.1644    2.5378    0.0000 H   0  0  0  0  0  0  0  0  0  0  0  0
   12.6240    3.2407    0.0000 H   0  0  0  0  0  0  0  0  0  0  0  0
    2.8660   -1.1910    0.0000 H   0  0  0  0  0  0  0  0  0  0  0  0
    2.8660    2.0490    0.0000 H   0  0  0  0  0  0  0  0  0  0  0  0
    1.4631   -0.3810    0.0000 H   0  0  0  0  0  0  0  0  0  0  0  0
    1.4631    1.2390    0.0000 H   0  0  0  0  0  0  0  0  0  0  0  0
  1 31  1  0  0  0  0
  2 23  2  0  0  0  0
  3 24  2  0  0  0  0
  4  7  1  0  0  0  0
  4  9  1  0  0  0  0
  4 12  1  0  0  0  0
  5  8  1  0  0  0  0
  5 10  1  0  0  0  0
  5 13  1  0  0  0  0
  6 18  1  0  0  0  0
  6 23  1  0  0  0  0
  6 24  1  0  0  0  0
  7  8  1  0  0  0  0
  7 37  1  0  0  0  0
  7 38  1  0  0  0  0
  8 39  1  0  0  0  0
  8 40  1  0  0  0  0
  9 11  1  0  0  0  0
  9 41  1  0  0  0  0
  9 42  1  0  0  0  0
 10 11  1  0  0  0  0
 10 43  1  0  0  0  0
 10 44  1  0  0  0  0
 11 45  1  0  0  0  0
 11 46  1  0  0  0  0
 12 15  1  0  0  0  0
 12 16  1  0  0  0  0
 12 47  1  0  0  0  0
 13 14  1  0  0  0  0
 13 48  1  0  0  0  0
 13 49  1  0  0  0  0
 14 17  1  0  0  0  0
 14 50  1  0  0  0  0
 14 51  1  0  0  0  0
 15 19  2  0  0  0  0
 15 20  1  0  0  0  0
 16 21  2  0  0  0  0
 16 22  1  0  0  0  0
 17 18  1  0  0  0  0
 17 52  1  0  0  0  0
 17 53  1  0  0  0  0
 18 54  1  0  0  0  0
 18 55  1  0  0  0  0
 19 25  1  0  0  0  0
 19 56  1  0  0  0  0
 20 26  2  0  0  0  0
 20 57  1  0  0  0  0
 21 27  1  0  0  0  0
 21 58  1  0  0  0  0
 22 28  2  0  0  0  0
 22 59  1  0  0  0  0
 23 29  1  0  0  0  0
 24 30  1  0  0  0  0
 25 31  2  0  0  0  0
 25 60  1  0  0  0  0
 26 31  1  0  0  0  0
 26 61  1  0  0  0  0
 27 32  2  0  0  0  0
 27 62  1  0  0  0  0
 28 32  1  0  0  0  0
 28 63  1  0  0  0  0
 29 30  1  0  0  0  0
 29 33  2  0  0  0  0
 30 34  2  0  0  0  0
 32 64  1  0  0  0  0
 33 35  1  0  0  0  0
 33 65  1  0  0  0  0
 34 36  1  0  0  0  0
 34 66  1  0  0  0  0
 35 36  2  0  0  0  0
 35 67  1  0  0  0  0
 36 68  1  0  0  0  0
M  END
> <PUBCHEM_COMPOUND_CID>
44436720

> <PUBCHEM_COMPOUND_CANONICALIZED>
1

> <PUBCHEM_CACTVS_COMPLEXITY>
710

> <PUBCHEM_CACTVS_HBOND_ACCEPTOR>
4

> <PUBCHEM_CACTVS_HBOND_DONOR>
0

> <PUBCHEM_CACTVS_ROTATABLE_BOND>
8

> <PUBCHEM_CACTVS_SUBSKEYS>
AAADcfB7MAAEAAAAAAAAAAAAAAAAAWAAAAAwYMAABYAAAFgBUAAAHgIAAAAADCrBmCQwAIMAAACIAiFSEACCAAAkBQAIiAEIBsgIYDKB1xGUIQhghiCIiYcdiMCOhAAAAAAQAAAIAAAAACAAAAAAAAAAAA==

> <PUBCHEM_IUPAC_OPENEYE_NAME>
2-[4-[4-[(4-chlorophenyl)-phenyl-methyl]-1,4-diazepan-1-yl]butyl]isoindoline-1,3-dione

> <PUBCHEM_IUPAC_CAS_NAME>
2-[4-[4-[(4-chlorophenyl)-phenylmethyl]-1,4-diazepan-1-yl]butyl]isoindole-1,3-dione

> <PUBCHEM_IUPAC_NAME_MARKUP>
2-[4-[4-[(4-chlorophenyl)-phenylmethyl]-1,4-diazepan-1-yl]butyl]isoindole-1,3-dione

> <PUBCHEM_IUPAC_NAME>
2-[4-[4-[(4-chlorophenyl)-phenylmethyl]-1,4-diazepan-1-yl]butyl]isoindole-1,3-dione

> <PUBCHEM_IUPAC_SYSTEMATIC_NAME>
2-[4-[4-[(4-chlorophenyl)-phenyl-methyl]-1,4-diazepan-1-yl]butyl]isoindole-1,3-dione

> <PUBCHEM_IUPAC_TRADITIONAL_NAME>
2-[4-[4-[(4-chlorophenyl)-phenyl-methyl]-1,4-diazepan-1-yl]butyl]isoindoline-1,3-quinone

> <PUBCHEM_IUPAC_INCHI>
InChI=1S/C30H32ClN3O2/c31-25-15-13-24(14-16-25)28(23-9-2-1-3-10-23)33-19-8-18-32(21-22-33)17-6-7-20-34-29(35)26-11-4-5-12-27(26)30(34)36/h1-5,9-16,28H,6-8,17-22H2

> <PUBCHEM_IUPAC_INCHIKEY>
UPEDKGWAXYKNLY-UHFFFAOYSA-N

> <PUBCHEM_XLOGP3_AA>
5.6

> <PUBCHEM_EXACT_MASS>
501.2183050

> <PUBCHEM_MOLECULAR_FORMULA>
C30H32ClN3O2

> <PUBCHEM_MOLECULAR_WEIGHT>
502.0

> <PUBCHEM_OPENEYE_CAN_SMILES>
C1CN(CCN(C1)C(C2=CC=CC=C2)C3=CC=C(C=C3)Cl)CCCCN4C(=O)C5=CC=CC=C5C4=O

> <PUBCHEM_OPENEYE_ISO_SMILES>
C1CN(CCN(C1)C(C2=CC=CC=C2)C3=CC=C(C=C3)Cl)CCCCN4C(=O)C5=CC=CC=C5C4=O

> <PUBCHEM_CACTVS_TPSA>
43.9

> <PUBCHEM_MONOISOTOPIC_WEIGHT>
501.2183050

> <PUBCHEM_TOTAL_CHARGE>
0

> <PUBCHEM_HEAVY_ATOM_COUNT>
36

> <PUBCHEM_ATOM_DEF_STEREO_COUNT>
0

> <PUBCHEM_ATOM_UDEF_STEREO_COUNT>
1

> <PUBCHEM_BOND_DEF_STEREO_COUNT>
0

> <PUBCHEM_BOND_UDEF_STEREO_COUNT>
0

> <PUBCHEM_ISOTOPIC_ATOM_COUNT>
0

> <PUBCHEM_COMPONENT_COUNT>
1

> <PUBCHEM_CACTVS_TAUTO_COUNT>
-1

> <PUBCHEM_COORDINATE_TYPE>
1
5
255

> <PUBCHEM_BONDANNOTATIONS>
12  16  3
15  19  8
15  20  8
16  21  8
16  22  8
19  25  8
20  26  8
21  27  8
22  28  8
25  31  8
26  31  8
27  32  8
28  32  8
29  30  8
29  33  8
30  34  8
33  35  8
34  36  8
35  36  8

$$$$
