164623892
  -OEChem-09292322022D

 55 58  0     1  0  0  0  0  0999 V2000
    3.7282    1.2036    0.0000 Cl  0  0  0  0  0  0  0  0  0  0  0  0
    2.0000    0.1970    0.0000 Cl  0  0  0  0  0  0  0  0  0  0  0  0
   12.5281   -0.2625    0.0000 O   0  0  0  0  0  0  0  0  0  0  0  0
   17.7903   -0.2383    0.0000 O   0  0  0  0  0  0  0  0  0  0  0  0
    8.1961    0.2208    0.0000 N   0  0  0  0  0  0  0  0  0  0  0  0
   16.0583   -0.2383    0.0000 N   0  0  0  0  0  0  0  0  0  0  0  0
    6.4641    0.2142    0.0000 C   0  0  3  0  0  0  0  0  0  0  0  0
    5.4641    0.2103    0.0000 C   0  0  3  0  0  0  0  0  0  0  0  0
    5.9607    1.0783    0.0000 C   0  0  0  0  0  0  0  0  0  0  0  0
    7.3320   -0.2825    0.0000 C   0  0  0  0  0  0  0  0  0  0  0  0
    4.6000   -0.2930    0.0000 C   0  0  0  0  0  0  0  0  0  0  0  0
    3.7320    0.2036    0.0000 C   0  0  0  0  0  0  0  0  0  0  0  0
    4.6038   -1.2930    0.0000 C   0  0  0  0  0  0  0  0  0  0  0  0
    9.0640   -0.2758    0.0000 C   0  0  0  0  0  0  0  0  0  0  0  0
    9.9281    0.2275    0.0000 C   0  0  0  0  0  0  0  0  0  0  0  0
    2.8680   -0.2997    0.0000 C   0  0  0  0  0  0  0  0  0  0  0  0
    3.7398   -1.7964    0.0000 C   0  0  0  0  0  0  0  0  0  0  0  0
    2.8718   -1.2997    0.0000 C   0  0  0  0  0  0  0  0  0  0  0  0
   10.7961   -0.2691    0.0000 C   0  0  0  0  0  0  0  0  0  0  0  0
   11.6602    0.2342    0.0000 C   0  0  0  0  0  0  0  0  0  0  0  0
   15.1922    1.2617    0.0000 C   0  0  0  0  0  0  0  0  0  0  0  0
   16.0583    1.7617    0.0000 C   0  0  0  0  0  0  0  0  0  0  0  0
   13.3922    0.2409    0.0000 C   0  0  0  0  0  0  0  0  0  0  0  0
   15.1922    0.2617    0.0000 C   0  0  0  0  0  0  0  0  0  0  0  0
   16.9243    1.2617    0.0000 C   0  0  0  0  0  0  0  0  0  0  0  0
   14.2983   -0.2730    0.0000 C   0  0  0  0  0  0  0  0  0  0  0  0
   14.2983    1.7964    0.0000 C   0  0  0  0  0  0  0  0  0  0  0  0
   13.3922    1.2825    0.0000 C   0  0  0  0  0  0  0  0  0  0  0  0
   16.9243    0.2617    0.0000 C   0  0  0  0  0  0  0  0  0  0  0  0
    6.9008    0.6543    0.0000 H   0  0  0  0  0  0  0  0  0  0  0  0
    5.6268   -0.3879    0.0000 H   0  0  0  0  0  0  0  0  0  0  0  0
    6.4341    1.4786    0.0000 H   0  0  0  0  0  0  0  0  0  0  0  0
    5.4842    1.4750    0.0000 H   0  0  0  0  0  0  0  0  0  0  0  0
    6.9353   -0.7590    0.0000 H   0  0  0  0  0  0  0  0  0  0  0  0
    7.7324   -0.7559    0.0000 H   0  0  0  0  0  0  0  0  0  0  0  0
    8.1937    0.8408    0.0000 H   0  0  0  0  0  0  0  0  0  0  0  0
    5.1420   -1.6009    0.0000 H   0  0  0  0  0  0  0  0  0  0  0  0
    8.6674   -0.7523    0.0000 H   0  0  0  0  0  0  0  0  0  0  0  0
    9.4644   -0.7492    0.0000 H   0  0  0  0  0  0  0  0  0  0  0  0
   10.3248    0.7040    0.0000 H   0  0  0  0  0  0  0  0  0  0  0  0
    9.5278    0.7009    0.0000 H   0  0  0  0  0  0  0  0  0  0  0  0
    3.7421   -2.4163    0.0000 H   0  0  0  0  0  0  0  0  0  0  0  0
    2.3361   -1.6118    0.0000 H   0  0  0  0  0  0  0  0  0  0  0  0
   10.3994   -0.7456    0.0000 H   0  0  0  0  0  0  0  0  0  0  0  0
   11.1964   -0.7425    0.0000 H   0  0  0  0  0  0  0  0  0  0  0  0
   12.0569    0.7107    0.0000 H   0  0  0  0  0  0  0  0  0  0  0  0
   11.2598    0.7076    0.0000 H   0  0  0  0  0  0  0  0  0  0  0  0
   16.4568    2.2366    0.0000 H   0  0  0  0  0  0  0  0  0  0  0  0
   15.6597    2.2366    0.0000 H   0  0  0  0  0  0  0  0  0  0  0  0
   17.5349    1.1540    0.0000 H   0  0  0  0  0  0  0  0  0  0  0  0
   17.1363    1.8443    0.0000 H   0  0  0  0  0  0  0  0  0  0  0  0
   14.3055   -0.8929    0.0000 H   0  0  0  0  0  0  0  0  0  0  0  0
   14.3055    2.4163    0.0000 H   0  0  0  0  0  0  0  0  0  0  0  0
   12.8565    1.5946    0.0000 H   0  0  0  0  0  0  0  0  0  0  0  0
   16.0583   -0.8583    0.0000 H   0  0  0  0  0  0  0  0  0  0  0  0
  1 12  1  0  0  0  0
  2 16  1  0  0  0  0
  3 20  1  0  0  0  0
  3 23  1  0  0  0  0
  4 29  2  0  0  0  0
  5 10  1  0  0  0  0
  5 14  1  0  0  0  0
  5 36  1  0  0  0  0
  6 24  1  0  0  0  0
  6 29  1  0  0  0  0
  6 55  1  0  0  0  0
  7  8  1  0  0  0  0
  7  9  1  0  0  0  0
  7 10  1  0  0  0  0
  7 30  1  0  0  0  0
  8  9  1  0  0  0  0
  8 11  1  0  0  0  0
  8 31  1  0  0  0  0
  9 32  1  0  0  0  0
  9 33  1  0  0  0  0
 10 34  1  0  0  0  0
 10 35  1  0  0  0  0
 11 12  2  0  0  0  0
 11 13  1  0  0  0  0
 12 16  1  0  0  0  0
 13 17  2  0  0  0  0
 13 37  1  0  0  0  0
 14 15  1  0  0  0  0
 14 38  1  0  0  0  0
 14 39  1  0  0  0  0
 15 19  1  0  0  0  0
 15 40  1  0  0  0  0
 15 41  1  0  0  0  0
 16 18  2  0  0  0  0
 17 18  1  0  0  0  0
 17 42  1  0  0  0  0
 18 43  1  0  0  0  0
 19 20  1  0  0  0  0
 19 44  1  0  0  0  0
 19 45  1  0  0  0  0
 20 46  1  0  0  0  0
 20 47  1  0  0  0  0
 21 22  1  0  0  0  0
 21 24  2  0  0  0  0
 21 27  1  0  0  0  0
 22 25  1  0  0  0  0
 22 48  1  0  0  0  0
 22 49  1  0  0  0  0
 23 26  2  0  0  0  0
 23 28  1  0  0  0  0
 24 26  1  0  0  0  0
 25 29  1  0  0  0  0
 25 50  1  0  0  0  0
 25 51  1  0  0  0  0
 26 52  1  0  0  0  0
 27 28  2  0  0  0  0
 27 53  1  0  0  0  0
 28 54  1  0  0  0  0
M  END
> <PUBCHEM_COMPOUND_CID>
164623892

> <PUBCHEM_COMPOUND_CANONICALIZED>
1

> <PUBCHEM_CACTVS_COMPLEXITY>
549

> <PUBCHEM_CACTVS_HBOND_ACCEPTOR>
3

> <PUBCHEM_CACTVS_HBOND_DONOR>
2

> <PUBCHEM_CACTVS_ROTATABLE_BOND>
9

> <PUBCHEM_CACTVS_SUBSKEYS>
AAADceB7MAAGAAAAAAAAAAAAGAAAAAAAAAA8YIAAAAAAAACxQAAAHgIQAAAADQ7hmCYwxoLABACIAiVSUACCCAAhJwAIisEObogMJjLFs5uGOCjm1BnI6Ae42eOeoAAAIgADAARAAABEAAYACAAAAAAAAA==

> <PUBCHEM_IUPAC_OPENEYE_NAME>
7-[4-[[2-(2,3-dichlorophenyl)cyclopropyl]methylamino]butoxy]-3,4-dihydro-1H-quinolin-2-one

> <PUBCHEM_IUPAC_CAS_NAME>
7-[4-[[2-(2,3-dichlorophenyl)cyclopropyl]methylamino]butoxy]-3,4-dihydro-1H-quinolin-2-one

> <PUBCHEM_IUPAC_NAME_MARKUP>
7-[4-[[2-(2,3-dichlorophenyl)cyclopropyl]methylamino]butoxy]-3,4-dihydro-1<I>H</I>-quinolin-2-one

> <PUBCHEM_IUPAC_NAME>
7-[4-[[2-(2,3-dichlorophenyl)cyclopropyl]methylamino]butoxy]-3,4-dihydro-1H-quinolin-2-one

> <PUBCHEM_IUPAC_SYSTEMATIC_NAME>
7-[4-[[2-[2,3-bis(chloranyl)phenyl]cyclopropyl]methylamino]butoxy]-3,4-dihydro-1H-quinolin-2-one

> <PUBCHEM_IUPAC_TRADITIONAL_NAME>
7-[4-[[2-(2,3-dichlorophenyl)cyclopropyl]methylamino]butoxy]-3,4-dihydrocarbostyril

> <PUBCHEM_IUPAC_INCHI>
InChI=1S/C23H26Cl2N2O2/c24-20-5-3-4-18(23(20)25)19-12-16(19)14-26-10-1-2-11-29-17-8-6-15-7-9-22(28)27-21(15)13-17/h3-6,8,13,16,19,26H,1-2,7,9-12,14H2,(H,27,28)

> <PUBCHEM_IUPAC_INCHIKEY>
QFYZGXPIOVYJOV-UHFFFAOYSA-N

> <PUBCHEM_XLOGP3_AA>
4.7

> <PUBCHEM_EXACT_MASS>
432.1371335

> <PUBCHEM_MOLECULAR_FORMULA>
C23H26Cl2N2O2

> <PUBCHEM_MOLECULAR_WEIGHT>
433.4

> <PUBCHEM_OPENEYE_CAN_SMILES>
C1CC(=O)NC2=C1C=CC(=C2)OCCCCNCC3CC3C4=C(C(=CC=C4)Cl)Cl

> <PUBCHEM_OPENEYE_ISO_SMILES>
C1CC(=O)NC2=C1C=CC(=C2)OCCCCNCC3CC3C4=C(C(=CC=C4)Cl)Cl

> <PUBCHEM_CACTVS_TPSA>
50.4

> <PUBCHEM_MONOISOTOPIC_WEIGHT>
432.1371335

> <PUBCHEM_TOTAL_CHARGE>
0

> <PUBCHEM_HEAVY_ATOM_COUNT>
29

> <PUBCHEM_ATOM_DEF_STEREO_COUNT>
0

> <PUBCHEM_ATOM_UDEF_STEREO_COUNT>
2

> <PUBCHEM_BOND_DEF_STEREO_COUNT>
0

> <PUBCHEM_BOND_UDEF_STEREO_COUNT>
0

> <PUBCHEM_ISOTOPIC_ATOM_COUNT>
0

> <PUBCHEM_COMPONENT_COUNT>
1

> <PUBCHEM_CACTVS_TAUTO_COUNT>
-1

> <PUBCHEM_COORDINATE_TYPE>
1
5
255

> <PUBCHEM_BONDANNOTATIONS>
11  12  8
11  13  8
12  16  8
13  17  8
16  18  8
17  18  8
21  24  8
21  27  8
23  26  8
23  28  8
24  26  8
27  28  8
7  10  3
8  11  3

$$$$
