418856
  -OEChem-09292322502D

 26 28  0     0  0  0  0  0  0999 V2000
    5.0190   -1.3731    0.0000 N   0  0  0  0  0  0  0  0  0  0  0  0
    5.9972   -1.5497    0.0000 N   0  0  0  0  0  0  0  0  0  0  0  0
    5.3830    1.8023    0.0000 C   0  0  0  0  0  0  0  0  0  0  0  0
    6.0065    1.0205    0.0000 C   0  0  0  0  0  0  0  0  0  0  0  0
    4.3830    1.8023    0.0000 C   0  0  0  0  0  0  0  0  0  0  0  0
    3.7595    1.0205    0.0000 C   0  0  0  0  0  0  0  0  0  0  0  0
    5.7840    0.0455    0.0000 C   0  0  0  0  0  0  0  0  0  0  0  0
    3.9820    0.0455    0.0000 C   0  0  0  0  0  0  0  0  0  0  0  0
    4.8830   -0.3883    0.0000 C   0  0  0  0  0  0  0  0  0  0  0  0
    2.7690    1.3428    0.0000 C   0  0  0  0  0  0  0  0  0  0  0  0
    6.4691   -0.6748    0.0000 C   0  0  0  0  0  0  0  0  0  0  0  0
    3.2295   -0.6746    0.0000 C   0  0  0  0  0  0  0  0  0  0  0  0
    2.0000    0.6402    0.0000 C   0  0  0  0  0  0  0  0  0  0  0  0
    2.2318   -0.3753    0.0000 C   0  0  0  0  0  0  0  0  0  0  0  0
    5.9416    2.0713    0.0000 H   0  0  0  0  0  0  0  0  0  0  0  0
    5.2450    2.4068    0.0000 H   0  0  0  0  0  0  0  0  0  0  0  0
    6.5651    0.7515    0.0000 H   0  0  0  0  0  0  0  0  0  0  0  0
    6.3930    1.5052    0.0000 H   0  0  0  0  0  0  0  0  0  0  0  0
    4.5210    2.4068    0.0000 H   0  0  0  0  0  0  0  0  0  0  0  0
    3.8244    2.0713    0.0000 H   0  0  0  0  0  0  0  0  0  0  0  0
    2.6380    1.9488    0.0000 H   0  0  0  0  0  0  0  0  0  0  0  0
    7.0836   -0.5926    0.0000 H   0  0  0  0  0  0  0  0  0  0  0  0
    3.3744   -1.2774    0.0000 H   0  0  0  0  0  0  0  0  0  0  0  0
    4.5716   -1.8023    0.0000 H   0  0  0  0  0  0  0  0  0  0  0  0
    1.4082    0.8253    0.0000 H   0  0  0  0  0  0  0  0  0  0  0  0
    1.7789   -0.7987    0.0000 H   0  0  0  0  0  0  0  0  0  0  0  0
  1  2  1  0  0  0  0
  1  9  1  0  0  0  0
  1 24  1  0  0  0  0
  2 11  2  0  0  0  0
  3  4  1  0  0  0  0
  3  5  1  0  0  0  0
  3 15  1  0  0  0  0
  3 16  1  0  0  0  0
  4  7  1  0  0  0  0
  4 17  1  0  0  0  0
  4 18  1  0  0  0  0
  5  6  1  0  0  0  0
  5 19  1  0  0  0  0
  5 20  1  0  0  0  0
  6  8  1  0  0  0  0
  6 10  2  0  0  0  0
  7  9  2  0  0  0  0
  7 11  1  0  0  0  0
  8  9  1  0  0  0  0
  8 12  2  0  0  0  0
 10 13  1  0  0  0  0
 10 21  1  0  0  0  0
 11 22  1  0  0  0  0
 12 14  1  0  0  0  0
 12 23  1  0  0  0  0
 13 14  2  0  0  0  0
 13 25  1  0  0  0  0
 14 26  1  0  0  0  0
M  END
> <PUBCHEM_COMPOUND_CID>
418856

> <PUBCHEM_COMPOUND_CANONICALIZED>
1

> <PUBCHEM_CACTVS_COMPLEXITY>
205

> <PUBCHEM_CACTVS_HBOND_ACCEPTOR>
1

> <PUBCHEM_CACTVS_HBOND_DONOR>
1

> <PUBCHEM_CACTVS_ROTATABLE_BOND>
0

> <PUBCHEM_CACTVS_SUBSKEYS>
AAADccBzAAAAAAAAAAAAAAAAAAAAAWAAAAAwAAAABgAAAACxwAAAHAAYAAAADAjBHgQ8gJBjAACiAzRnQACSBAAggAAYuSAgRJgIIKKA0dGApABgiAAIyAcQgMAOgAAAAAAQAAAAAAAAACAAAAAAAAAAAA==

> <PUBCHEM_IUPAC_OPENEYE_NAME>
3,4-diazatricyclo[8.4.0.02,6]tetradeca-1(14),2(6),4,10,12-pentaene

> <PUBCHEM_IUPAC_CAS_NAME>
3,4-diazatricyclo[8.4.0.02,6]tetradeca-1(14),2(6),4,10,12-pentaene

> <PUBCHEM_IUPAC_NAME_MARKUP>
3,4-diazatricyclo[8.4.0.0<SUP>2,6</SUP>]tetradeca-1(14),2(6),4,10,12-pentaene

> <PUBCHEM_IUPAC_NAME>
3,4-diazatricyclo[8.4.0.02,6]tetradeca-1(14),2(6),4,10,12-pentaene

> <PUBCHEM_IUPAC_SYSTEMATIC_NAME>
3,4-diazatricyclo[8.4.0.02,6]tetradeca-1(14),2(6),4,10,12-pentaene

> <PUBCHEM_IUPAC_TRADITIONAL_NAME>
3,4-diazatricyclo[8.4.0.02,6]tetradeca-1(14),2(6),4,10,12-pentaene

> <PUBCHEM_IUPAC_INCHI>
InChI=1S/C12H12N2/c1-2-7-11-9(4-1)5-3-6-10-8-13-14-12(10)11/h1-2,4,7-8H,3,5-6H2,(H,13,14)

> <PUBCHEM_IUPAC_INCHIKEY>
YQWLSLWGRRGKTR-UHFFFAOYSA-N

> <PUBCHEM_XLOGP3_AA>
2.7

> <PUBCHEM_EXACT_MASS>
184.100048391

> <PUBCHEM_MOLECULAR_FORMULA>
C12H12N2

> <PUBCHEM_MOLECULAR_WEIGHT>
184.24

> <PUBCHEM_OPENEYE_CAN_SMILES>
C1CC2=CC=CC=C2C3=C(C1)C=NN3

> <PUBCHEM_OPENEYE_ISO_SMILES>
C1CC2=CC=CC=C2C3=C(C1)C=NN3

> <PUBCHEM_CACTVS_TPSA>
28.7

> <PUBCHEM_MONOISOTOPIC_WEIGHT>
184.100048391

> <PUBCHEM_TOTAL_CHARGE>
0

> <PUBCHEM_HEAVY_ATOM_COUNT>
14

> <PUBCHEM_ATOM_DEF_STEREO_COUNT>
0

> <PUBCHEM_ATOM_UDEF_STEREO_COUNT>
0

> <PUBCHEM_BOND_DEF_STEREO_COUNT>
0

> <PUBCHEM_BOND_UDEF_STEREO_COUNT>
0

> <PUBCHEM_ISOTOPIC_ATOM_COUNT>
0

> <PUBCHEM_COMPONENT_COUNT>
1

> <PUBCHEM_CACTVS_TAUTO_COUNT>
-1

> <PUBCHEM_COORDINATE_TYPE>
1
5
255

> <PUBCHEM_BONDANNOTATIONS>
1  2  8
1  9  8
10  13  8
12  14  8
13  14  8
2  11  8
6  10  8
6  8  8
7  11  8
7  9  8
8  12  8

$$$$
