13038304
  -OEChem-09292322082D

 25 27  0     0  0  0  0  0  0999 V2000
    5.9030   -2.0377    0.0000 S   0  0  0  0  0  0  0  0  0  0  0  0
    4.0908    0.7670    0.0000 N   0  0  0  0  0  0  0  0  0  0  0  0
    3.2247   -0.7330    0.0000 N   0  0  0  0  0  0  0  0  0  0  0  0
    4.0908   -2.2330    0.0000 N   0  0  0  0  0  0  0  0  0  0  0  0
    3.2247    1.2670    0.0000 C   0  0  0  0  0  0  0  0  0  0  0  0
    2.9659    2.2330    0.0000 C   0  0  0  0  0  0  0  0  0  0  0  0
    2.2588    1.0082    0.0000 C   0  0  0  0  0  0  0  0  0  0  0  0
    2.0000    1.9741    0.0000 C   0  0  0  0  0  0  0  0  0  0  0  0
    4.0908   -0.2330    0.0000 C   0  0  0  0  0  0  0  0  0  0  0  0
    4.9568   -0.7330    0.0000 C   0  0  0  0  0  0  0  0  0  0  0  0
    4.9568   -1.7330    0.0000 C   0  0  0  0  0  0  0  0  0  0  0  0
    5.9030   -0.4282    0.0000 C   0  0  0  0  0  0  0  0  0  0  0  0
    3.2247   -1.7330    0.0000 C   0  0  0  0  0  0  0  0  0  0  0  0
    6.4866   -1.2330    0.0000 C   0  0  0  0  0  0  0  0  0  0  0  0
    3.1438    0.6523    0.0000 H   0  0  0  0  0  0  0  0  0  0  0  0
    3.5648    2.3934    0.0000 H   0  0  0  0  0  0  0  0  0  0  0  0
    2.8055    2.8318    0.0000 H   0  0  0  0  0  0  0  0  0  0  0  0
    1.6600    0.8478    0.0000 H   0  0  0  0  0  0  0  0  0  0  0  0
    2.4193    0.4093    0.0000 H   0  0  0  0  0  0  0  0  0  0  0  0
    1.8395    2.5730    0.0000 H   0  0  0  0  0  0  0  0  0  0  0  0
    1.4011    1.8137    0.0000 H   0  0  0  0  0  0  0  0  0  0  0  0
    4.6277    1.0770    0.0000 H   0  0  0  0  0  0  0  0  0  0  0  0
    6.0956    0.1611    0.0000 H   0  0  0  0  0  0  0  0  0  0  0  0
    7.1066   -1.2330    0.0000 H   0  0  0  0  0  0  0  0  0  0  0  0
    2.6878   -2.0430    0.0000 H   0  0  0  0  0  0  0  0  0  0  0  0
  1 11  1  0  0  0  0
  1 14  1  0  0  0  0
  2  5  1  0  0  0  0
  2  9  1  0  0  0  0
  2 22  1  0  0  0  0
  3  9  1  0  0  0  0
  3 13  2  0  0  0  0
  4 11  2  0  0  0  0
  4 13  1  0  0  0  0
  5  6  1  0  0  0  0
  5  7  1  0  0  0  0
  5 15  1  0  0  0  0
  6  8  1  0  0  0  0
  6 16  1  0  0  0  0
  6 17  1  0  0  0  0
  7  8  1  0  0  0  0
  7 18  1  0  0  0  0
  7 19  1  0  0  0  0
  8 20  1  0  0  0  0
  8 21  1  0  0  0  0
  9 10  2  0  0  0  0
 10 11  1  0  0  0  0
 10 12  1  0  0  0  0
 12 14  2  0  0  0  0
 12 23  1  0  0  0  0
 13 25  1  0  0  0  0
 14 24  1  0  0  0  0
M  END
> <PUBCHEM_COMPOUND_CID>
13038304

> <PUBCHEM_COMPOUND_CANONICALIZED>
1

> <PUBCHEM_CACTVS_COMPLEXITY>
208

> <PUBCHEM_CACTVS_HBOND_ACCEPTOR>
4

> <PUBCHEM_CACTVS_HBOND_DONOR>
1

> <PUBCHEM_CACTVS_ROTATABLE_BOND>
2

> <PUBCHEM_CACTVS_SUBSKEYS>
AAADccBzAABAAAAAAAAAAAAAAABgASAAAAAsAAAAAAAAAFgB+AAAHAQQAAAADCjFWgS1sdbIEAikAiJjZACD0KlxCLhJ2LgoRJiIKIBgyMEEBAxIEALgQCAAAAAIAAAAAAAAAAAAAAAAAAAAAAAAAAAAAA==

> <PUBCHEM_IUPAC_OPENEYE_NAME>
N-cyclobutylthieno[2,3-d]pyrimidin-4-amine

> <PUBCHEM_IUPAC_CAS_NAME>
N-cyclobutyl-4-thieno[2,3-d]pyrimidinamine

> <PUBCHEM_IUPAC_NAME_MARKUP>
<I>N</I>-cyclobutylthieno[2,3-d]pyrimidin-4-amine

> <PUBCHEM_IUPAC_NAME>
N-cyclobutylthieno[2,3-d]pyrimidin-4-amine

> <PUBCHEM_IUPAC_SYSTEMATIC_NAME>
N-cyclobutylthieno[2,3-d]pyrimidin-4-amine

> <PUBCHEM_IUPAC_TRADITIONAL_NAME>
cyclobutyl(thieno[2,3-d]pyrimidin-4-yl)amine

> <PUBCHEM_IUPAC_INCHI>
InChI=1S/C10H11N3S/c1-2-7(3-1)13-9-8-4-5-14-10(8)12-6-11-9/h4-7H,1-3H2,(H,11,12,13)

> <PUBCHEM_IUPAC_INCHIKEY>
RKYIPFXXBXGICH-UHFFFAOYSA-N

> <PUBCHEM_XLOGP3>
2.3

> <PUBCHEM_EXACT_MASS>
205.06736854

> <PUBCHEM_MOLECULAR_FORMULA>
C10H11N3S

> <PUBCHEM_MOLECULAR_WEIGHT>
205.28

> <PUBCHEM_OPENEYE_CAN_SMILES>
C1CC(C1)NC2=C3C=CSC3=NC=N2

> <PUBCHEM_OPENEYE_ISO_SMILES>
C1CC(C1)NC2=C3C=CSC3=NC=N2

> <PUBCHEM_CACTVS_TPSA>
66

> <PUBCHEM_MONOISOTOPIC_WEIGHT>
205.06736854

> <PUBCHEM_TOTAL_CHARGE>
0

> <PUBCHEM_HEAVY_ATOM_COUNT>
14

> <PUBCHEM_ATOM_DEF_STEREO_COUNT>
0

> <PUBCHEM_ATOM_UDEF_STEREO_COUNT>
0

> <PUBCHEM_BOND_DEF_STEREO_COUNT>
0

> <PUBCHEM_BOND_UDEF_STEREO_COUNT>
0

> <PUBCHEM_ISOTOPIC_ATOM_COUNT>
0

> <PUBCHEM_COMPONENT_COUNT>
1

> <PUBCHEM_CACTVS_TAUTO_COUNT>
-1

> <PUBCHEM_COORDINATE_TYPE>
1
5
255

> <PUBCHEM_BONDANNOTATIONS>
1  11  8
1  14  8
10  11  8
10  12  8
12  14  8
3  13  8
3  9  8
4  11  8
4  13  8
9  10  8

$$$$
