12049907
  -OEChem-09292322152D

 66 70  0     1  0  0  0  0  0999 V2000
    5.5347   -1.1628    0.0000 O   0  0  0  0  0  0  0  0  0  0  0  0
   11.0347    1.4353    0.0000 N   0  0  3  0  0  0  0  0  0  0  0  0
    5.5347    0.5693    0.0000 N   0  0  0  0  0  0  0  0  0  0  0  0
    2.0347   -0.2968    0.0000 N   0  0  0  0  0  0  0  0  0  0  0  0
   16.7535    2.9628    0.0000 N   0  0  0  0  0  0  0  0  0  0  0  0
    8.5347    0.5693    0.0000 C   0  0  0  0  0  0  0  0  0  0  0  0
    8.0347   -0.2968    0.0000 C   0  0  0  0  0  0  0  0  0  0  0  0
    8.0347    1.4353    0.0000 C   0  0  0  0  0  0  0  0  0  0  0  0
    6.5347    0.5693    0.0000 C   0  0  0  0  0  0  0  0  0  0  0  0
    7.0347   -0.2968    0.0000 C   0  0  0  0  0  0  0  0  0  0  0  0
    7.0347    1.4353    0.0000 C   0  0  0  0  0  0  0  0  0  0  0  0
    9.5347    0.5693    0.0000 C   0  0  0  0  0  0  0  0  0  0  0  0
   10.0347    1.4353    0.0000 C   0  0  0  0  0  0  0  0  0  0  0  0
   11.4685    2.3363    0.0000 C   0  0  0  0  0  0  0  0  0  0  0  0
   11.4685    0.5343    0.0000 C   0  0  0  0  0  0  0  0  0  0  0  0
   12.4435    2.5588    0.0000 C   0  0  0  0  0  0  0  0  0  0  0  0
   12.4435    0.3118    0.0000 C   0  0  0  0  0  0  0  0  0  0  0  0
   13.2253    1.9353    0.0000 C   0  0  0  0  0  0  0  0  0  0  0  0
   13.2253    0.9353    0.0000 C   0  0  0  0  0  0  0  0  0  0  0  0
    5.0347   -0.2968    0.0000 C   0  0  0  0  0  0  0  0  0  0  0  0
   14.1192    2.4700    0.0000 C   0  0  0  0  0  0  0  0  0  0  0  0
    4.0347   -0.2968    0.0000 C   0  0  0  0  0  0  0  0  0  0  0  0
   14.1192    0.4006    0.0000 C   0  0  0  0  0  0  0  0  0  0  0  0
   15.0253    1.9561    0.0000 C   0  0  0  0  0  0  0  0  0  0  0  0
   15.0253    0.9145    0.0000 C   0  0  0  0  0  0  0  0  0  0  0  0
    3.5347   -1.1628    0.0000 C   0  0  0  0  0  0  0  0  0  0  0  0
    3.5347    0.5693    0.0000 C   0  0  0  0  0  0  0  0  0  0  0  0
    2.5347   -1.1628    0.0000 C   0  0  0  0  0  0  0  0  0  0  0  0
    4.0693   -2.0567    0.0000 C   0  0  0  0  0  0  0  0  0  0  0  0
    2.5347    0.5693    0.0000 C   0  0  0  0  0  0  0  0  0  0  0  0
   15.8894    2.4594    0.0000 C   0  0  0  0  0  0  0  0  0  0  0  0
    2.0000   -2.0567    0.0000 C   0  0  0  0  0  0  0  0  0  0  0  0
    3.5555   -2.9628    0.0000 C   0  0  0  0  0  0  0  0  0  0  0  0
    2.5138   -2.9628    0.0000 C   0  0  0  0  0  0  0  0  0  0  0  0
    8.8447    1.1062    0.0000 H   0  0  0  0  0  0  0  0  0  0  0  0
    7.9270   -0.9073    0.0000 H   0  0  0  0  0  0  0  0  0  0  0  0
    8.6173   -0.5088    0.0000 H   0  0  0  0  0  0  0  0  0  0  0  0
    8.6173    1.6474    0.0000 H   0  0  0  0  0  0  0  0  0  0  0  0
    7.9270    2.0459    0.0000 H   0  0  0  0  0  0  0  0  0  0  0  0
    6.2247    1.1062    0.0000 H   0  0  0  0  0  0  0  0  0  0  0  0
    6.4520   -0.5088    0.0000 H   0  0  0  0  0  0  0  0  0  0  0  0
    7.1423   -0.9073    0.0000 H   0  0  0  0  0  0  0  0  0  0  0  0
    7.1423    2.0459    0.0000 H   0  0  0  0  0  0  0  0  0  0  0  0
    6.4520    1.6474    0.0000 H   0  0  0  0  0  0  0  0  0  0  0  0
    9.4270   -0.0413    0.0000 H   0  0  0  0  0  0  0  0  0  0  0  0
   10.1173    0.3572    0.0000 H   0  0  0  0  0  0  0  0  0  0  0  0
   10.1423    2.0459    0.0000 H   0  0  0  0  0  0  0  0  0  0  0  0
    9.4520    1.6474    0.0000 H   0  0  0  0  0  0  0  0  0  0  0  0
    5.2247    1.1062    0.0000 H   0  0  0  0  0  0  0  0  0  0  0  0
   11.4685    2.9563    0.0000 H   0  0  0  0  0  0  0  0  0  0  0  0
   10.8641    2.4742    0.0000 H   0  0  0  0  0  0  0  0  0  0  0  0
   10.8641    0.3964    0.0000 H   0  0  0  0  0  0  0  0  0  0  0  0
   11.4685   -0.0857    0.0000 H   0  0  0  0  0  0  0  0  0  0  0  0
   12.9282    2.9454    0.0000 H   0  0  0  0  0  0  0  0  0  0  0  0
   12.1745    3.1174    0.0000 H   0  0  0  0  0  0  0  0  0  0  0  0
   12.1745   -0.2468    0.0000 H   0  0  0  0  0  0  0  0  0  0  0  0
   12.9282   -0.0748    0.0000 H   0  0  0  0  0  0  0  0  0  0  0  0
   14.1121    3.0899    0.0000 H   0  0  0  0  0  0  0  0  0  0  0  0
   14.1121   -0.2193    0.0000 H   0  0  0  0  0  0  0  0  0  0  0  0
   15.5611    0.6024    0.0000 H   0  0  0  0  0  0  0  0  0  0  0  0
    3.8447    1.1062    0.0000 H   0  0  0  0  0  0  0  0  0  0  0  0
    4.6893   -2.0496    0.0000 H   0  0  0  0  0  0  0  0  0  0  0  0
    2.2247    1.1062    0.0000 H   0  0  0  0  0  0  0  0  0  0  0  0
    1.3800   -2.0496    0.0000 H   0  0  0  0  0  0  0  0  0  0  0  0
    3.8675   -3.4985    0.0000 H   0  0  0  0  0  0  0  0  0  0  0  0
    2.2018   -3.4985    0.0000 H   0  0  0  0  0  0  0  0  0  0  0  0
  1 20  2  0  0  0  0
  2 13  1  0  0  0  0
  2 14  1  0  0  0  0
  2 15  1  0  0  0  0
  3  9  1  0  0  0  0
  3 20  1  0  0  0  0
  3 49  1  0  0  0  0
  4 28  1  0  0  0  0
  4 30  2  0  0  0  0
  5 31  3  0  0  0  0
  6  7  1  0  0  0  0
  6  8  1  0  0  0  0
  6 12  1  0  0  0  0
  6 35  1  0  0  0  0
  7 10  1  0  0  0  0
  7 36  1  0  0  0  0
  7 37  1  0  0  0  0
  8 11  1  0  0  0  0
  8 38  1  0  0  0  0
  8 39  1  0  0  0  0
  9 10  1  0  0  0  0
  9 11  1  0  0  0  0
  9 40  1  0  0  0  0
 10 41  1  0  0  0  0
 10 42  1  0  0  0  0
 11 43  1  0  0  0  0
 11 44  1  0  0  0  0
 12 13  1  0  0  0  0
 12 45  1  0  0  0  0
 12 46  1  0  0  0  0
 13 47  1  0  0  0  0
 13 48  1  0  0  0  0
 14 16  1  0  0  0  0
 14 50  1  0  0  0  0
 14 51  1  0  0  0  0
 15 17  1  0  0  0  0
 15 52  1  0  0  0  0
 15 53  1  0  0  0  0
 16 18  1  0  0  0  0
 16 54  1  0  0  0  0
 16 55  1  0  0  0  0
 17 19  1  0  0  0  0
 17 56  1  0  0  0  0
 17 57  1  0  0  0  0
 18 19  2  0  0  0  0
 18 21  1  0  0  0  0
 19 23  1  0  0  0  0
 20 22  1  0  0  0  0
 21 24  2  0  0  0  0
 21 58  1  0  0  0  0
 22 26  1  0  0  0  0
 22 27  2  0  0  0  0
 23 25  2  0  0  0  0
 23 59  1  0  0  0  0
 24 25  1  0  0  0  0
 24 31  1  0  0  0  0
 25 60  1  0  0  0  0
 26 28  1  0  0  0  0
 26 29  2  0  0  0  0
 27 30  1  0  0  0  0
 27 61  1  0  0  0  0
 28 32  2  0  0  0  0
 29 33  1  0  0  0  0
 29 62  1  0  0  0  0
 30 63  1  0  0  0  0
 32 34  1  0  0  0  0
 32 64  1  0  0  0  0
 33 34  2  0  0  0  0
 33 65  1  0  0  0  0
 34 66  1  0  0  0  0
M  END
> <PUBCHEM_COMPOUND_CID>
12049907

> <PUBCHEM_COMPOUND_CANONICALIZED>
1

> <PUBCHEM_CACTVS_COMPLEXITY>
723

> <PUBCHEM_CACTVS_HBOND_ACCEPTOR>
4

> <PUBCHEM_CACTVS_HBOND_DONOR>
1

> <PUBCHEM_CACTVS_ROTATABLE_BOND>
5

> <PUBCHEM_CACTVS_SUBSKEYS>
AAADcfB7oAAAAAAAAAAAAAAAAAAAAAAAAAA8YMEABYAAAACx9AAAHgAQAAAADSjBngQ8wPPIEAC4BzV3VACigCA1AiAI2KE4ZNgIoPLAlZGEIQhglgDIyY8ciMCOwAACAAASAACQAAQAACQAAAAAAAAAAA==

> <PUBCHEM_IUPAC_OPENEYE_NAME>
N-[4-[2-(7-cyano-1,2,4,5-tetrahydro-3-benzazepin-3-yl)ethyl]cyclohexyl]quinoline-4-carboxamide

> <PUBCHEM_IUPAC_CAS_NAME>
N-[4-[2-(7-cyano-1,2,4,5-tetrahydro-3-benzazepin-3-yl)ethyl]cyclohexyl]-4-quinolinecarboxamide

> <PUBCHEM_IUPAC_NAME_MARKUP>
<I>N</I>-[4-[2-(7-cyano-1,2,4,5-tetrahydro-3-benzazepin-3-yl)ethyl]cyclohexyl]quinoline-4-carboxamide

> <PUBCHEM_IUPAC_NAME>
N-[4-[2-(7-cyano-1,2,4,5-tetrahydro-3-benzazepin-3-yl)ethyl]cyclohexyl]quinoline-4-carboxamide

> <PUBCHEM_IUPAC_SYSTEMATIC_NAME>
N-[4-[2-(7-cyano-1,2,4,5-tetrahydro-3-benzazepin-3-yl)ethyl]cyclohexyl]quinoline-4-carboxamide

> <PUBCHEM_IUPAC_TRADITIONAL_NAME>
N-[4-[2-(7-cyano-1,2,4,5-tetrahydro-3-benzazepin-3-yl)ethyl]cyclohexyl]cinchoninamide

> <PUBCHEM_IUPAC_INCHI>
InChI=1S/C29H32N4O/c30-20-22-5-8-23-13-17-33(18-14-24(23)19-22)16-12-21-6-9-25(10-7-21)32-29(34)27-11-15-31-28-4-2-1-3-26(27)28/h1-5,8,11,15,19,21,25H,6-7,9-10,12-14,16-18H2,(H,32,34)

> <PUBCHEM_IUPAC_INCHIKEY>
WXWUAAQDRLQFOP-UHFFFAOYSA-N

> <PUBCHEM_XLOGP3_AA>
5.1

> <PUBCHEM_EXACT_MASS>
452.25761166

> <PUBCHEM_MOLECULAR_FORMULA>
C29H32N4O

> <PUBCHEM_MOLECULAR_WEIGHT>
452.6

> <PUBCHEM_OPENEYE_CAN_SMILES>
C1CC(CCC1CCN2CCC3=C(CC2)C=C(C=C3)C#N)NC(=O)C4=CC=NC5=CC=CC=C45

> <PUBCHEM_OPENEYE_ISO_SMILES>
C1CC(CCC1CCN2CCC3=C(CC2)C=C(C=C3)C#N)NC(=O)C4=CC=NC5=CC=CC=C45

> <PUBCHEM_CACTVS_TPSA>
69

> <PUBCHEM_MONOISOTOPIC_WEIGHT>
452.25761166

> <PUBCHEM_TOTAL_CHARGE>
0

> <PUBCHEM_HEAVY_ATOM_COUNT>
34

> <PUBCHEM_ATOM_DEF_STEREO_COUNT>
0

> <PUBCHEM_ATOM_UDEF_STEREO_COUNT>
0

> <PUBCHEM_BOND_DEF_STEREO_COUNT>
0

> <PUBCHEM_BOND_UDEF_STEREO_COUNT>
0

> <PUBCHEM_ISOTOPIC_ATOM_COUNT>
0

> <PUBCHEM_COMPONENT_COUNT>
1

> <PUBCHEM_CACTVS_TAUTO_COUNT>
-1

> <PUBCHEM_COORDINATE_TYPE>
1
5
255

> <PUBCHEM_BONDANNOTATIONS>
18  19  8
18  21  8
19  23  8
21  24  8
22  26  8
22  27  8
23  25  8
24  25  8
26  28  8
26  29  8
27  30  8
28  32  8
29  33  8
32  34  8
33  34  8
4  28  8
4  30  8

$$$$
