162646407
  -OEChem-09292322432D

 50 53  0     0  0  0  0  0  0999 V2000
    7.5673    4.0753    0.0000 Cl  0  0  0  0  0  0  0  0  0  0  0  0
    4.9889    1.7618    0.0000 S   0  0  0  0  0  0  0  0  0  0  0  0
    5.9394    1.4512    0.0000 O   0  0  0  0  0  0  0  0  0  0  0  0
    4.0384    2.0725    0.0000 O   0  0  0  0  0  0  0  0  0  0  0  0
    2.8660   -1.9934    0.0000 N   0  0  0  0  0  0  0  0  0  0  0  0
    4.6783    0.8113    0.0000 N   0  0  0  0  0  0  0  0  0  0  0  0
    2.8660   -3.9934    0.0000 N   0  0  0  0  0  0  0  0  0  0  0  0
    4.6783   -0.7981    0.0000 N   0  0  0  0  0  0  0  0  0  0  0  0
    2.0000   -0.4934    0.0000 N   0  0  0  0  0  0  0  0  0  0  0  0
    2.0000   -2.4934    0.0000 C   0  0  0  0  0  0  0  0  0  0  0  0
    3.7320   -2.4934    0.0000 C   0  0  0  0  0  0  0  0  0  0  0  0
    3.7320   -0.4934    0.0000 C   0  0  0  0  0  0  0  0  0  0  0  0
    2.8660   -0.9934    0.0000 C   0  0  0  0  0  0  0  0  0  0  0  0
    5.2619    0.0066    0.0000 C   0  0  0  0  0  0  0  0  0  0  0  0
    3.7320    0.5066    0.0000 C   0  0  0  0  0  0  0  0  0  0  0  0
    2.0000   -3.4934    0.0000 C   0  0  0  0  0  0  0  0  0  0  0  0
    3.7320   -3.4934    0.0000 C   0  0  0  0  0  0  0  0  0  0  0  0
    6.2619    0.0066    0.0000 C   0  0  0  0  0  0  0  0  0  0  0  0
    2.8660    1.0066    0.0000 C   0  0  0  0  0  0  0  0  0  0  0  0
    6.7619   -0.8594    0.0000 C   0  0  0  0  0  0  0  0  0  0  0  0
    6.7619    0.8726    0.0000 C   0  0  0  0  0  0  0  0  0  0  0  0
    5.2996    2.7124    0.0000 C   0  0  0  0  0  0  0  0  0  0  0  0
    2.0000    0.5066    0.0000 C   0  0  0  0  0  0  0  0  0  0  0  0
    6.2781    2.9186    0.0000 C   0  0  0  0  0  0  0  0  0  0  0  0
    4.6318    3.4567    0.0000 C   0  0  0  0  0  0  0  0  0  0  0  0
    6.5888    3.8691    0.0000 C   0  0  0  0  0  0  0  0  0  0  0  0
    4.9424    4.4072    0.0000 C   0  0  0  0  0  0  0  0  0  0  0  0
    5.9209    4.6134    0.0000 C   0  0  0  0  0  0  0  0  0  0  0  0
    1.7880   -1.9108    0.0000 H   0  0  0  0  0  0  0  0  0  0  0  0
    1.3894   -2.6011    0.0000 H   0  0  0  0  0  0  0  0  0  0  0  0
    4.3426   -2.6011    0.0000 H   0  0  0  0  0  0  0  0  0  0  0  0
    3.9441   -1.9108    0.0000 H   0  0  0  0  0  0  0  0  0  0  0  0
    1.3894   -3.3857    0.0000 H   0  0  0  0  0  0  0  0  0  0  0  0
    1.7880   -4.0760    0.0000 H   0  0  0  0  0  0  0  0  0  0  0  0
    3.9441   -4.0760    0.0000 H   0  0  0  0  0  0  0  0  0  0  0  0
    4.3426   -3.3857    0.0000 H   0  0  0  0  0  0  0  0  0  0  0  0
    6.8819    0.0066    0.0000 H   0  0  0  0  0  0  0  0  0  0  0  0
    2.8660   -4.6134    0.0000 H   0  0  0  0  0  0  0  0  0  0  0  0
    2.8660    1.6266    0.0000 H   0  0  0  0  0  0  0  0  0  0  0  0
    6.2249   -1.1694    0.0000 H   0  0  0  0  0  0  0  0  0  0  0  0
    7.0719   -1.3964    0.0000 H   0  0  0  0  0  0  0  0  0  0  0  0
    7.2988   -0.5494    0.0000 H   0  0  0  0  0  0  0  0  0  0  0  0
    7.2988    0.5626    0.0000 H   0  0  0  0  0  0  0  0  0  0  0  0
    7.0719    1.4096    0.0000 H   0  0  0  0  0  0  0  0  0  0  0  0
    6.2249    1.1826    0.0000 H   0  0  0  0  0  0  0  0  0  0  0  0
    1.4631    0.8166    0.0000 H   0  0  0  0  0  0  0  0  0  0  0  0
    6.6922    2.4571    0.0000 H   0  0  0  0  0  0  0  0  0  0  0  0
    4.0251    3.3288    0.0000 H   0  0  0  0  0  0  0  0  0  0  0  0
    4.5284    4.8686    0.0000 H   0  0  0  0  0  0  0  0  0  0  0  0
    6.1135    5.2027    0.0000 H   0  0  0  0  0  0  0  0  0  0  0  0
  1 26  1  0  0  0  0
  2  3  2  0  0  0  0
  2  4  2  0  0  0  0
  2  6  1  0  0  0  0
  2 22  1  0  0  0  0
  5 10  1  0  0  0  0
  5 11  1  0  0  0  0
  5 13  1  0  0  0  0
  6 14  1  0  0  0  0
  6 15  1  0  0  0  0
  7 16  1  0  0  0  0
  7 17  1  0  0  0  0
  7 38  1  0  0  0  0
  8 12  1  0  0  0  0
  8 14  2  0  0  0  0
  9 13  2  0  0  0  0
  9 23  1  0  0  0  0
 10 16  1  0  0  0  0
 10 29  1  0  0  0  0
 10 30  1  0  0  0  0
 11 17  1  0  0  0  0
 11 31  1  0  0  0  0
 11 32  1  0  0  0  0
 12 13  1  0  0  0  0
 12 15  2  0  0  0  0
 14 18  1  0  0  0  0
 15 19  1  0  0  0  0
 16 33  1  0  0  0  0
 16 34  1  0  0  0  0
 17 35  1  0  0  0  0
 17 36  1  0  0  0  0
 18 20  1  0  0  0  0
 18 21  1  0  0  0  0
 18 37  1  0  0  0  0
 19 23  2  0  0  0  0
 19 39  1  0  0  0  0
 20 40  1  0  0  0  0
 20 41  1  0  0  0  0
 20 42  1  0  0  0  0
 21 43  1  0  0  0  0
 21 44  1  0  0  0  0
 21 45  1  0  0  0  0
 22 24  2  0  0  0  0
 22 25  1  0  0  0  0
 23 46  1  0  0  0  0
 24 26  1  0  0  0  0
 24 47  1  0  0  0  0
 25 27  2  0  0  0  0
 25 48  1  0  0  0  0
 26 28  2  0  0  0  0
 27 28  1  0  0  0  0
 27 49  1  0  0  0  0
 28 50  1  0  0  0  0
M  END
> <PUBCHEM_COMPOUND_CID>
162646407

> <PUBCHEM_COMPOUND_CANONICALIZED>
1

> <PUBCHEM_CACTVS_COMPLEXITY>
637

> <PUBCHEM_CACTVS_HBOND_ACCEPTOR>
6

> <PUBCHEM_CACTVS_HBOND_DONOR>
1

> <PUBCHEM_CACTVS_ROTATABLE_BOND>
4

> <PUBCHEM_CACTVS_SUBSKEYS>
AAADceB7sABEAAAAAAAAAAAAAAAAAWAAAAA8WIAAAAAAAFgB/AAAHAYQQAAADQrBVyQ/8bfIEAKgATZnZHDCgD0xF6AJ2Lg4dpiIaOLB29GUJAhokALIyCcQAAAAAAAAABAAAAAAAAAAIAAAAAAAAAAAAA==

> <PUBCHEM_IUPAC_OPENEYE_NAME>
1-(3-chlorophenyl)sulfonyl-2-isopropyl-4-piperazin-1-yl-imidazo[4,5-c]pyridine

> <PUBCHEM_IUPAC_CAS_NAME>
1-(3-chlorophenyl)sulfonyl-4-(1-piperazinyl)-2-propan-2-ylimidazo[4,5-c]pyridine

> <PUBCHEM_IUPAC_NAME_MARKUP>
1-(3-chlorophenyl)sulfonyl-4-piperazin-1-yl-2-propan-2-ylimidazo[4,5-c]pyridine

> <PUBCHEM_IUPAC_NAME>
1-(3-chlorophenyl)sulfonyl-4-piperazin-1-yl-2-propan-2-ylimidazo[4,5-c]pyridine

> <PUBCHEM_IUPAC_SYSTEMATIC_NAME>
1-(3-chlorophenyl)sulfonyl-4-piperazin-1-yl-2-propan-2-yl-imidazo[4,5-c]pyridine

> <PUBCHEM_IUPAC_TRADITIONAL_NAME>
1-(3-chlorophenyl)sulfonyl-2-isopropyl-4-piperazino-imidazo[4,5-c]pyridine

> <PUBCHEM_IUPAC_INCHI>
InChI=1S/C19H22ClN5O2S/c1-13(2)18-23-17-16(6-7-22-19(17)24-10-8-21-9-11-24)25(18)28(26,27)15-5-3-4-14(20)12-15/h3-7,12-13,21H,8-11H2,1-2H3

> <PUBCHEM_IUPAC_INCHIKEY>
QWMKBPOOVMOXIR-UHFFFAOYSA-N

> <PUBCHEM_XLOGP3_AA>
3.2

> <PUBCHEM_EXACT_MASS>
419.1182738

> <PUBCHEM_MOLECULAR_FORMULA>
C19H22ClN5O2S

> <PUBCHEM_MOLECULAR_WEIGHT>
419.9

> <PUBCHEM_OPENEYE_CAN_SMILES>
CC(C)C1=NC2=C(N1S(=O)(=O)C3=CC(=CC=C3)Cl)C=CN=C2N4CCNCC4

> <PUBCHEM_OPENEYE_ISO_SMILES>
CC(C)C1=NC2=C(N1S(=O)(=O)C3=CC(=CC=C3)Cl)C=CN=C2N4CCNCC4

> <PUBCHEM_CACTVS_TPSA>
88.5

> <PUBCHEM_MONOISOTOPIC_WEIGHT>
419.1182738

> <PUBCHEM_TOTAL_CHARGE>
0

> <PUBCHEM_HEAVY_ATOM_COUNT>
28

> <PUBCHEM_ATOM_DEF_STEREO_COUNT>
0

> <PUBCHEM_ATOM_UDEF_STEREO_COUNT>
0

> <PUBCHEM_BOND_DEF_STEREO_COUNT>
0

> <PUBCHEM_BOND_UDEF_STEREO_COUNT>
0

> <PUBCHEM_ISOTOPIC_ATOM_COUNT>
0

> <PUBCHEM_COMPONENT_COUNT>
1

> <PUBCHEM_CACTVS_TAUTO_COUNT>
-1

> <PUBCHEM_COORDINATE_TYPE>
1
5
255

> <PUBCHEM_BONDANNOTATIONS>
12  13  8
12  15  8
15  19  8
19  23  8
22  24  8
22  25  8
24  26  8
25  27  8
26  28  8
27  28  8
6  14  8
6  15  8
8  12  8
8  14  8
9  13  8
9  23  8

$$$$
