137631892
  -OEChem-09292322392D

 65 69  0     0  0  0  0  0  0999 V2000
    4.5981    6.2673    0.0000 Cl  0  0  0  0  0  0  0  0  0  0  0  0
    2.8660    7.2673    0.0000 Cl  0  0  0  0  0  0  0  0  0  0  0  0
    3.7320   -4.2327    0.0000 S   0  0  0  0  0  0  0  0  0  0  0  0
    2.7320   -4.2327    0.0000 O   0  0  0  0  0  0  0  0  0  0  0  0
    4.7320   -4.2327    0.0000 O   0  0  0  0  0  0  0  0  0  0  0  0
    3.7320   -3.2327    0.0000 N   0  0  0  0  0  0  0  0  0  0  0  0
    2.8660    1.2673    0.0000 N   0  0  0  0  0  0  0  0  0  0  0  0
    2.8660    3.2673    0.0000 N   0  0  0  0  0  0  0  0  0  0  0  0
    5.4920   -7.2673    0.0000 N   0  0  0  0  0  0  0  0  0  0  0  0
    3.7320   -1.2327    0.0000 C   0  0  0  0  0  0  0  0  0  0  0  0
    4.5981   -1.7327    0.0000 C   0  0  0  0  0  0  0  0  0  0  0  0
    2.8660   -1.7327    0.0000 C   0  0  0  0  0  0  0  0  0  0  0  0
    3.7320   -0.2327    0.0000 C   0  0  0  0  0  0  0  0  0  0  0  0
    4.5981   -2.7327    0.0000 C   0  0  0  0  0  0  0  0  0  0  0  0
    2.8660   -2.7327    0.0000 C   0  0  0  0  0  0  0  0  0  0  0  0
    2.8660    0.2673    0.0000 C   0  0  0  0  0  0  0  0  0  0  0  0
    2.0000    1.7673    0.0000 C   0  0  0  0  0  0  0  0  0  0  0  0
    3.7320    1.7673    0.0000 C   0  0  0  0  0  0  0  0  0  0  0  0
    2.0000    2.7673    0.0000 C   0  0  0  0  0  0  0  0  0  0  0  0
    3.7320    2.7673    0.0000 C   0  0  0  0  0  0  0  0  0  0  0  0
    3.7320   -5.2327    0.0000 C   0  0  0  0  0  0  0  0  0  0  0  0
    2.8660    4.2673    0.0000 C   0  0  0  0  0  0  0  0  0  0  0  0
    4.5981   -5.7327    0.0000 C   0  0  0  0  0  0  0  0  0  0  0  0
    2.8660   -5.7327    0.0000 C   0  0  0  0  0  0  0  0  0  0  0  0
    3.7320    4.7673    0.0000 C   0  0  0  0  0  0  0  0  0  0  0  0
    2.0000    4.7673    0.0000 C   0  0  0  0  0  0  0  0  0  0  0  0
    4.5981   -6.7327    0.0000 C   0  0  0  0  0  0  0  0  0  0  0  0
    2.8660   -6.7327    0.0000 C   0  0  0  0  0  0  0  0  0  0  0  0
    5.4920   -5.1980    0.0000 C   0  0  0  0  0  0  0  0  0  0  0  0
    3.7320   -7.2327    0.0000 C   0  0  0  0  0  0  0  0  0  0  0  0
    3.7320    5.7673    0.0000 C   0  0  0  0  0  0  0  0  0  0  0  0
    2.0000    5.7673    0.0000 C   0  0  0  0  0  0  0  0  0  0  0  0
    2.8660    6.2673    0.0000 C   0  0  0  0  0  0  0  0  0  0  0  0
    6.3981   -5.7118    0.0000 C   0  0  0  0  0  0  0  0  0  0  0  0
    6.3981   -6.7535    0.0000 C   0  0  0  0  0  0  0  0  0  0  0  0
    4.2690   -0.9227    0.0000 H   0  0  0  0  0  0  0  0  0  0  0  0
    5.2087   -1.8403    0.0000 H   0  0  0  0  0  0  0  0  0  0  0  0
    4.8101   -1.1501    0.0000 H   0  0  0  0  0  0  0  0  0  0  0  0
    2.6540   -1.1501    0.0000 H   0  0  0  0  0  0  0  0  0  0  0  0
    2.2554   -1.8403    0.0000 H   0  0  0  0  0  0  0  0  0  0  0  0
    4.3426   -0.3403    0.0000 H   0  0  0  0  0  0  0  0  0  0  0  0
    3.9441    0.3499    0.0000 H   0  0  0  0  0  0  0  0  0  0  0  0
    4.8101   -3.3153    0.0000 H   0  0  0  0  0  0  0  0  0  0  0  0
    5.2087   -2.6250    0.0000 H   0  0  0  0  0  0  0  0  0  0  0  0
    2.2554   -2.6250    0.0000 H   0  0  0  0  0  0  0  0  0  0  0  0
    2.6540   -3.3153    0.0000 H   0  0  0  0  0  0  0  0  0  0  0  0
    2.2554    0.3750    0.0000 H   0  0  0  0  0  0  0  0  0  0  0  0
    2.6540   -0.3153    0.0000 H   0  0  0  0  0  0  0  0  0  0  0  0
    1.3894    1.8750    0.0000 H   0  0  0  0  0  0  0  0  0  0  0  0
    1.7880    1.1847    0.0000 H   0  0  0  0  0  0  0  0  0  0  0  0
    3.9441    1.1847    0.0000 H   0  0  0  0  0  0  0  0  0  0  0  0
    4.3426    1.8750    0.0000 H   0  0  0  0  0  0  0  0  0  0  0  0
    1.7880    3.3499    0.0000 H   0  0  0  0  0  0  0  0  0  0  0  0
    1.3894    2.6597    0.0000 H   0  0  0  0  0  0  0  0  0  0  0  0
    4.3426    2.6597    0.0000 H   0  0  0  0  0  0  0  0  0  0  0  0
    3.9441    3.3499    0.0000 H   0  0  0  0  0  0  0  0  0  0  0  0
    2.3291   -5.4227    0.0000 H   0  0  0  0  0  0  0  0  0  0  0  0
    4.2690    4.4573    0.0000 H   0  0  0  0  0  0  0  0  0  0  0  0
    1.4631    4.4573    0.0000 H   0  0  0  0  0  0  0  0  0  0  0  0
    2.3291   -7.0427    0.0000 H   0  0  0  0  0  0  0  0  0  0  0  0
    5.4848   -4.5780    0.0000 H   0  0  0  0  0  0  0  0  0  0  0  0
    3.7320   -7.8527    0.0000 H   0  0  0  0  0  0  0  0  0  0  0  0
    1.4631    6.0773    0.0000 H   0  0  0  0  0  0  0  0  0  0  0  0
    6.9338   -5.3998    0.0000 H   0  0  0  0  0  0  0  0  0  0  0  0
    6.9338   -7.0656    0.0000 H   0  0  0  0  0  0  0  0  0  0  0  0
  1 31  1  0  0  0  0
  2 33  1  0  0  0  0
  3  4  2  0  0  0  0
  3  5  2  0  0  0  0
  3  6  1  0  0  0  0
  3 21  1  0  0  0  0
  6 14  1  0  0  0  0
  6 15  1  0  0  0  0
  7 16  1  0  0  0  0
  7 17  1  0  0  0  0
  7 18  1  0  0  0  0
  8 19  1  0  0  0  0
  8 20  1  0  0  0  0
  8 22  1  0  0  0  0
  9 27  1  0  0  0  0
  9 35  2  0  0  0  0
 10 11  1  0  0  0  0
 10 12  1  0  0  0  0
 10 13  1  0  0  0  0
 10 36  1  0  0  0  0
 11 14  1  0  0  0  0
 11 37  1  0  0  0  0
 11 38  1  0  0  0  0
 12 15  1  0  0  0  0
 12 39  1  0  0  0  0
 12 40  1  0  0  0  0
 13 16  1  0  0  0  0
 13 41  1  0  0  0  0
 13 42  1  0  0  0  0
 14 43  1  0  0  0  0
 14 44  1  0  0  0  0
 15 45  1  0  0  0  0
 15 46  1  0  0  0  0
 16 47  1  0  0  0  0
 16 48  1  0  0  0  0
 17 19  1  0  0  0  0
 17 49  1  0  0  0  0
 17 50  1  0  0  0  0
 18 20  1  0  0  0  0
 18 51  1  0  0  0  0
 18 52  1  0  0  0  0
 19 53  1  0  0  0  0
 19 54  1  0  0  0  0
 20 55  1  0  0  0  0
 20 56  1  0  0  0  0
 21 23  1  0  0  0  0
 21 24  2  0  0  0  0
 22 25  2  0  0  0  0
 22 26  1  0  0  0  0
 23 27  2  0  0  0  0
 23 29  1  0  0  0  0
 24 28  1  0  0  0  0
 24 57  1  0  0  0  0
 25 31  1  0  0  0  0
 25 58  1  0  0  0  0
 26 32  2  0  0  0  0
 26 59  1  0  0  0  0
 27 30  1  0  0  0  0
 28 30  2  0  0  0  0
 28 60  1  0  0  0  0
 29 34  2  0  0  0  0
 29 61  1  0  0  0  0
 30 62  1  0  0  0  0
 31 33  2  0  0  0  0
 32 33  1  0  0  0  0
 32 63  1  0  0  0  0
 34 35  1  0  0  0  0
 34 64  1  0  0  0  0
 35 65  1  0  0  0  0
M  END
> <PUBCHEM_COMPOUND_CID>
137631892

> <PUBCHEM_COMPOUND_CANONICALIZED>
1

> <PUBCHEM_CACTVS_COMPLEXITY>
781

> <PUBCHEM_CACTVS_HBOND_ACCEPTOR>
6

> <PUBCHEM_CACTVS_HBOND_DONOR>
0

> <PUBCHEM_CACTVS_ROTATABLE_BOND>
6

> <PUBCHEM_CACTVS_SUBSKEYS>
AAADceB7sABGAAAAAAAAAAAAAAAAAAAAAAA8eLECAAAAAACx9AAAHAYAQAAADQrBXiQ8wfMIEAKgAzRnRHDCgDAxByAI2ng4ZpgIYOLBk5GUIAxggADIyAcQgIAOAABAACIGAAQAAIAARAwACAAAAAAAAA==

> <PUBCHEM_IUPAC_OPENEYE_NAME>
5-[[4-[2-[4-(3,4-dichlorophenyl)piperazin-1-yl]ethyl]-1-piperidyl]sulfonyl]quinoline

> <PUBCHEM_IUPAC_CAS_NAME>
5-[[4-[2-[4-(3,4-dichlorophenyl)-1-piperazinyl]ethyl]-1-piperidinyl]sulfonyl]quinoline

> <PUBCHEM_IUPAC_NAME_MARKUP>
5-[4-[2-[4-(3,4-dichlorophenyl)piperazin-1-yl]ethyl]piperidin-1-yl]sulfonylquinoline

> <PUBCHEM_IUPAC_NAME>
5-[4-[2-[4-(3,4-dichlorophenyl)piperazin-1-yl]ethyl]piperidin-1-yl]sulfonylquinoline

> <PUBCHEM_IUPAC_SYSTEMATIC_NAME>
5-[4-[2-[4-(3,4-dichlorophenyl)piperazin-1-yl]ethyl]piperidin-1-yl]sulfonylquinoline

> <PUBCHEM_IUPAC_TRADITIONAL_NAME>
5-[4-[2-[4-(3,4-dichlorophenyl)piperazino]ethyl]piperidino]sulfonylquinoline

> <PUBCHEM_IUPAC_INCHI>
InChI=1S/C26H30Cl2N4O2S/c27-23-7-6-21(19-24(23)28)31-17-15-30(16-18-31)12-8-20-9-13-32(14-10-20)35(33,34)26-5-1-4-25-22(26)3-2-11-29-25/h1-7,11,19-20H,8-10,12-18H2

> <PUBCHEM_IUPAC_INCHIKEY>
UUNZFDPGHIFDOR-UHFFFAOYSA-N

> <PUBCHEM_XLOGP3_AA>
5.3

> <PUBCHEM_EXACT_MASS>
532.1466528

> <PUBCHEM_MOLECULAR_FORMULA>
C26H30Cl2N4O2S

> <PUBCHEM_MOLECULAR_WEIGHT>
533.5

> <PUBCHEM_OPENEYE_CAN_SMILES>
C1CN(CCC1CCN2CCN(CC2)C3=CC(=C(C=C3)Cl)Cl)S(=O)(=O)C4=CC=CC5=C4C=CC=N5

> <PUBCHEM_OPENEYE_ISO_SMILES>
C1CN(CCC1CCN2CCN(CC2)C3=CC(=C(C=C3)Cl)Cl)S(=O)(=O)C4=CC=CC5=C4C=CC=N5

> <PUBCHEM_CACTVS_TPSA>
65.1

> <PUBCHEM_MONOISOTOPIC_WEIGHT>
532.1466528

> <PUBCHEM_TOTAL_CHARGE>
0

> <PUBCHEM_HEAVY_ATOM_COUNT>
35

> <PUBCHEM_ATOM_DEF_STEREO_COUNT>
0

> <PUBCHEM_ATOM_UDEF_STEREO_COUNT>
0

> <PUBCHEM_BOND_DEF_STEREO_COUNT>
0

> <PUBCHEM_BOND_UDEF_STEREO_COUNT>
0

> <PUBCHEM_ISOTOPIC_ATOM_COUNT>
0

> <PUBCHEM_COMPONENT_COUNT>
1

> <PUBCHEM_CACTVS_TAUTO_COUNT>
-1

> <PUBCHEM_COORDINATE_TYPE>
1
5
255

> <PUBCHEM_BONDANNOTATIONS>
21  23  8
21  24  8
22  25  8
22  26  8
23  27  8
23  29  8
24  28  8
25  31  8
26  32  8
27  30  8
28  30  8
29  34  8
31  33  8
32  33  8
34  35  8
9  27  8
9  35  8

$$$$
