9975434
  -OEChem-09292322222D

 52 54  0     1  0  0  0  0  0999 V2000
   10.6766   -2.5123    0.0000 O   0  0  0  0  0  0  0  0  0  0  0  0
    2.0000    1.5223    0.0000 O   0  5  0  0  0  0  0  0  0  0  0  0
    2.8660    3.0223    0.0000 O   0  0  0  0  0  0  0  0  0  0  0  0
    7.1962    0.5223    0.0000 N   0  0  3  0  0  0  0  0  0  0  0  0
    2.8660    2.0223    0.0000 N   0  3  0  0  0  0  0  0  0  0  0  0
    8.0622    0.0223    0.0000 C   0  0  2  0  0  0  0  0  0  0  0  0
    8.0622   -0.9777    0.0000 C   0  0  0  0  0  0  0  0  0  0  0  0
    8.9282    0.5223    0.0000 C   0  0  0  0  0  0  0  0  0  0  0  0
    8.9282   -1.4777    0.0000 C   0  0  0  0  0  0  0  0  0  0  0  0
    9.7942    0.0223    0.0000 C   0  0  0  0  0  0  0  0  0  0  0  0
    9.7942   -0.9777    0.0000 C   0  0  0  0  0  0  0  0  0  0  0  0
    7.1962    1.5223    0.0000 C   0  0  0  0  0  0  0  0  0  0  0  0
    6.3301    0.0223    0.0000 C   0  0  0  0  0  0  0  0  0  0  0  0
   10.6882   -1.5124    0.0000 C   0  0  0  0  0  0  0  0  0  0  0  0
   10.6882    0.5569    0.0000 C   0  0  0  0  0  0  0  0  0  0  0  0
    8.0622    2.0223    0.0000 C   0  0  0  0  0  0  0  0  0  0  0  0
    5.4641    0.5223    0.0000 C   0  0  0  0  0  0  0  0  0  0  0  0
   11.5942   -0.9985    0.0000 C   0  0  0  0  0  0  0  0  0  0  0  0
   11.5942    0.0431    0.0000 C   0  0  0  0  0  0  0  0  0  0  0  0
    8.0622    3.0223    0.0000 C   0  0  0  0  0  0  0  0  0  0  0  0
    4.5981    0.0223    0.0000 C   0  0  0  0  0  0  0  0  0  0  0  0
    5.4641    1.5223    0.0000 C   0  0  0  0  0  0  0  0  0  0  0  0
    3.7320    0.5223    0.0000 C   0  0  0  0  0  0  0  0  0  0  0  0
    4.5981    2.0223    0.0000 C   0  0  0  0  0  0  0  0  0  0  0  0
    3.7320    1.5223    0.0000 C   0  0  0  0  0  0  0  0  0  0  0  0
   11.5368   -3.0223    0.0000 C   0  0  0  0  0  0  0  0  0  0  0  0
    8.0622    0.6423    0.0000 H   0  0  0  0  0  0  0  0  0  0  0  0
    7.4516   -0.8701    0.0000 H   0  0  0  0  0  0  0  0  0  0  0  0
    7.8501   -1.5603    0.0000 H   0  0  0  0  0  0  0  0  0  0  0  0
    9.3267    0.9972    0.0000 H   0  0  0  0  0  0  0  0  0  0  0  0
    8.5297    0.9972    0.0000 H   0  0  0  0  0  0  0  0  0  0  0  0
    8.5297   -1.9527    0.0000 H   0  0  0  0  0  0  0  0  0  0  0  0
    9.3267   -1.9527    0.0000 H   0  0  0  0  0  0  0  0  0  0  0  0
    6.9841    2.1049    0.0000 H   0  0  0  0  0  0  0  0  0  0  0  0
    6.5856    1.4146    0.0000 H   0  0  0  0  0  0  0  0  0  0  0  0
    5.9316   -0.4527    0.0000 H   0  0  0  0  0  0  0  0  0  0  0  0
    6.7287   -0.4527    0.0000 H   0  0  0  0  0  0  0  0  0  0  0  0
   10.6810    1.1769    0.0000 H   0  0  0  0  0  0  0  0  0  0  0  0
    8.2742    1.4397    0.0000 H   0  0  0  0  0  0  0  0  0  0  0  0
    8.6728    2.1300    0.0000 H   0  0  0  0  0  0  0  0  0  0  0  0
   12.1300   -1.3106    0.0000 H   0  0  0  0  0  0  0  0  0  0  0  0
   12.1300    0.3552    0.0000 H   0  0  0  0  0  0  0  0  0  0  0  0
    8.6822    3.0223    0.0000 H   0  0  0  0  0  0  0  0  0  0  0  0
    8.0622    3.6423    0.0000 H   0  0  0  0  0  0  0  0  0  0  0  0
    7.4422    3.0223    0.0000 H   0  0  0  0  0  0  0  0  0  0  0  0
    4.5981   -0.5977    0.0000 H   0  0  0  0  0  0  0  0  0  0  0  0
    6.0010    1.8323    0.0000 H   0  0  0  0  0  0  0  0  0  0  0  0
    3.1951    0.2123    0.0000 H   0  0  0  0  0  0  0  0  0  0  0  0
    4.5981    2.6423    0.0000 H   0  0  0  0  0  0  0  0  0  0  0  0
   11.2206   -3.5556    0.0000 H   0  0  0  0  0  0  0  0  0  0  0  0
   12.0701   -3.3385    0.0000 H   0  0  0  0  0  0  0  0  0  0  0  0
   11.8530   -2.4890    0.0000 H   0  0  0  0  0  0  0  0  0  0  0  0
  1 14  1  0  0  0  0
  1 26  1  0  0  0  0
  2  5  1  0  0  0  0
  3  5  2  0  0  0  0
  6  4  1  1  0  0  0
  4 12  1  0  0  0  0
  4 13  1  0  0  0  0
  5 25  1  0  0  0  0
  6  7  1  0  0  0  0
  6  8  1  0  0  0  0
  6 27  1  0  0  0  0
  7  9  1  0  0  0  0
  7 28  1  0  0  0  0
  7 29  1  0  0  0  0
  8 10  1  0  0  0  0
  8 30  1  0  0  0  0
  8 31  1  0  0  0  0
  9 11  1  0  0  0  0
  9 32  1  0  0  0  0
  9 33  1  0  0  0  0
 10 11  2  0  0  0  0
 10 15  1  0  0  0  0
 11 14  1  0  0  0  0
 12 16  1  0  0  0  0
 12 34  1  0  0  0  0
 12 35  1  0  0  0  0
 13 17  1  0  0  0  0
 13 36  1  0  0  0  0
 13 37  1  0  0  0  0
 14 18  2  0  0  0  0
 15 19  2  0  0  0  0
 15 38  1  0  0  0  0
 16 20  1  0  0  0  0
 16 39  1  0  0  0  0
 16 40  1  0  0  0  0
 17 21  2  0  0  0  0
 17 22  1  0  0  0  0
 18 19  1  0  0  0  0
 18 41  1  0  0  0  0
 19 42  1  0  0  0  0
 20 43  1  0  0  0  0
 20 44  1  0  0  0  0
 20 45  1  0  0  0  0
 21 23  1  0  0  0  0
 21 46  1  0  0  0  0
 22 24  2  0  0  0  0
 22 47  1  0  0  0  0
 23 25  2  0  0  0  0
 23 48  1  0  0  0  0
 24 25  1  0  0  0  0
 24 49  1  0  0  0  0
 26 50  1  0  0  0  0
 26 51  1  0  0  0  0
 26 52  1  0  0  0  0
M  CHG  2   2  -1   5   1
M  END
> <PUBCHEM_COMPOUND_CID>
9975434

> <PUBCHEM_COMPOUND_CANONICALIZED>
1

> <PUBCHEM_CACTVS_COMPLEXITY>
445

> <PUBCHEM_CACTVS_HBOND_ACCEPTOR>
4

> <PUBCHEM_CACTVS_HBOND_DONOR>
0

> <PUBCHEM_CACTVS_ROTATABLE_BOND>
6

> <PUBCHEM_CACTVS_SUBSKEYS>
AAADceB7MAAAAAAAAAAAAAAAAAAAAAAAAAAwYMAAAAAAAADBQAAAHgAEAAAADCzBmAYyxoMQRACBAiRCQwCCCAAgIgAoiAAObIoMJiKEsZuEMChkwBGI6AeQ0LMOiAABAAAYAAAQAAKAADAAAAAAAAAAAA==

> <PUBCHEM_IUPAC_OPENEYE_NAME>
(2R)-5-methoxy-N-[(4-nitrophenyl)methyl]-N-propyl-tetralin-2-amine

> <PUBCHEM_IUPAC_CAS_NAME>
(2R)-5-methoxy-N-[(4-nitrophenyl)methyl]-N-propyl-1,2,3,4-tetrahydronaphthalen-2-amine

> <PUBCHEM_IUPAC_NAME_MARKUP>
(2<I>R</I>)-5-methoxy-<I>N</I>-[(4-nitrophenyl)methyl]-<I>N</I>-propyl-1,2,3,4-tetrahydronaphthalen-2-amine

> <PUBCHEM_IUPAC_NAME>
(2R)-5-methoxy-N-[(4-nitrophenyl)methyl]-N-propyl-1,2,3,4-tetrahydronaphthalen-2-amine

> <PUBCHEM_IUPAC_SYSTEMATIC_NAME>
(2R)-5-methoxy-N-[(4-nitrophenyl)methyl]-N-propyl-1,2,3,4-tetrahydronaphthalen-2-amine

> <PUBCHEM_IUPAC_TRADITIONAL_NAME>
[(2R)-5-methoxytetralin-2-yl]-(4-nitrobenzyl)-propyl-amine

> <PUBCHEM_IUPAC_INCHI>
InChI=1S/C21H26N2O3/c1-3-13-22(15-16-7-9-18(10-8-16)23(24)25)19-11-12-20-17(14-19)5-4-6-21(20)26-2/h4-10,19H,3,11-15H2,1-2H3/t19-/m1/s1

> <PUBCHEM_IUPAC_INCHIKEY>
OQFVFESDHDATCZ-LJQANCHMSA-N

> <PUBCHEM_XLOGP3_AA>
4.9

> <PUBCHEM_EXACT_MASS>
354.19434270

> <PUBCHEM_MOLECULAR_FORMULA>
C21H26N2O3

> <PUBCHEM_MOLECULAR_WEIGHT>
354.4

> <PUBCHEM_OPENEYE_CAN_SMILES>
CCCN(CC1=CC=C(C=C1)[N+](=O)[O-])C2CCC3=C(C2)C=CC=C3OC

> <PUBCHEM_OPENEYE_ISO_SMILES>
CCCN(CC1=CC=C(C=C1)[N+](=O)[O-])[C@@H]2CCC3=C(C2)C=CC=C3OC

> <PUBCHEM_CACTVS_TPSA>
58.3

> <PUBCHEM_MONOISOTOPIC_WEIGHT>
354.19434270

> <PUBCHEM_TOTAL_CHARGE>
0

> <PUBCHEM_HEAVY_ATOM_COUNT>
26

> <PUBCHEM_ATOM_DEF_STEREO_COUNT>
1

> <PUBCHEM_ATOM_UDEF_STEREO_COUNT>
0

> <PUBCHEM_BOND_DEF_STEREO_COUNT>
0

> <PUBCHEM_BOND_UDEF_STEREO_COUNT>
0

> <PUBCHEM_ISOTOPIC_ATOM_COUNT>
0

> <PUBCHEM_COMPONENT_COUNT>
1

> <PUBCHEM_CACTVS_TAUTO_COUNT>
-1

> <PUBCHEM_COORDINATE_TYPE>
1
5
255

> <PUBCHEM_BONDANNOTATIONS>
10  11  8
10  15  8
11  14  8
14  18  8
15  19  8
17  21  8
17  22  8
18  19  8
21  23  8
22  24  8
23  25  8
24  25  8
6  4  5

$$$$
