90466717
  -OEChem-09292322002D

 68 71  0     0  0  0  0  0  0999 V2000
    8.9282    6.4050    0.0000 O   0  0  0  0  0  0  0  0  0  0  0  0
    4.5981   -1.0950    0.0000 O   0  0  0  0  0  0  0  0  0  0  0  0
    6.3301   -1.0950    0.0000 O   0  0  0  0  0  0  0  0  0  0  0  0
    2.0000   -6.5950    0.0000 O   0  0  0  0  0  0  0  0  0  0  0  0
    7.1962    3.4050    0.0000 N   0  0  0  0  0  0  0  0  0  0  0  0
    7.1962    5.4050    0.0000 N   0  0  0  0  0  0  0  0  0  0  0  0
    5.4641    0.4050    0.0000 N   0  0  0  0  0  0  0  0  0  0  0  0
    2.8660   -8.0950    0.0000 N   0  0  0  0  0  0  0  0  0  0  0  0
    6.3301    3.9050    0.0000 C   0  0  0  0  0  0  0  0  0  0  0  0
    8.0622    3.9050    0.0000 C   0  0  0  0  0  0  0  0  0  0  0  0
    6.3301    4.9050    0.0000 C   0  0  0  0  0  0  0  0  0  0  0  0
    8.0622    4.9050    0.0000 C   0  0  0  0  0  0  0  0  0  0  0  0
    7.1962    2.4050    0.0000 C   0  0  0  0  0  0  0  0  0  0  0  0
    6.3301    1.9050    0.0000 C   0  0  0  0  0  0  0  0  0  0  0  0
    7.1962    6.4050    0.0000 C   0  0  0  0  0  0  0  0  0  0  0  0
    6.3301    0.9050    0.0000 C   0  0  0  0  0  0  0  0  0  0  0  0
    8.0622    6.9050    0.0000 C   0  0  0  0  0  0  0  0  0  0  0  0
    6.3301    6.9050    0.0000 C   0  0  0  0  0  0  0  0  0  0  0  0
    8.0622    7.9050    0.0000 C   0  0  0  0  0  0  0  0  0  0  0  0
    6.3301    7.9050    0.0000 C   0  0  0  0  0  0  0  0  0  0  0  0
    7.1962    8.4050    0.0000 C   0  0  0  0  0  0  0  0  0  0  0  0
    5.4641   -0.5950    0.0000 C   0  0  0  0  0  0  0  0  0  0  0  0
    9.7942    6.9050    0.0000 C   0  0  0  0  0  0  0  0  0  0  0  0
    4.5981   -2.0950    0.0000 C   0  0  0  0  0  0  0  0  0  0  0  0
    4.5981   -4.0950    0.0000 C   0  0  0  0  0  0  0  0  0  0  0  0
    5.4641   -2.5950    0.0000 C   0  0  0  0  0  0  0  0  0  0  0  0
    3.7320   -2.5950    0.0000 C   0  0  0  0  0  0  0  0  0  0  0  0
    4.5981   -5.0950    0.0000 C   0  0  0  0  0  0  0  0  0  0  0  0
    5.4641   -3.5950    0.0000 C   0  0  0  0  0  0  0  0  0  0  0  0
    3.7320   -3.5950    0.0000 C   0  0  0  0  0  0  0  0  0  0  0  0
    3.7320   -5.5950    0.0000 C   0  0  0  0  0  0  0  0  0  0  0  0
    5.4641   -5.5950    0.0000 C   0  0  0  0  0  0  0  0  0  0  0  0
    3.7320   -6.5950    0.0000 C   0  0  0  0  0  0  0  0  0  0  0  0
    5.4641   -6.5950    0.0000 C   0  0  0  0  0  0  0  0  0  0  0  0
    4.5981   -7.0950    0.0000 C   0  0  0  0  0  0  0  0  0  0  0  0
    2.8660   -7.0950    0.0000 C   0  0  0  0  0  0  0  0  0  0  0  0
    5.7196    4.0127    0.0000 H   0  0  0  0  0  0  0  0  0  0  0  0
    6.1181    3.3224    0.0000 H   0  0  0  0  0  0  0  0  0  0  0  0
    8.2742    3.3224    0.0000 H   0  0  0  0  0  0  0  0  0  0  0  0
    8.6728    4.0127    0.0000 H   0  0  0  0  0  0  0  0  0  0  0  0
    6.1181    5.4876    0.0000 H   0  0  0  0  0  0  0  0  0  0  0  0
    5.7196    4.7973    0.0000 H   0  0  0  0  0  0  0  0  0  0  0  0
    8.6728    4.7973    0.0000 H   0  0  0  0  0  0  0  0  0  0  0  0
    8.2742    5.4876    0.0000 H   0  0  0  0  0  0  0  0  0  0  0  0
    7.4082    1.8224    0.0000 H   0  0  0  0  0  0  0  0  0  0  0  0
    7.8067    2.5127    0.0000 H   0  0  0  0  0  0  0  0  0  0  0  0
    6.1181    2.4876    0.0000 H   0  0  0  0  0  0  0  0  0  0  0  0
    5.7196    1.7973    0.0000 H   0  0  0  0  0  0  0  0  0  0  0  0
    6.5422    0.3224    0.0000 H   0  0  0  0  0  0  0  0  0  0  0  0
    6.9407    1.0127    0.0000 H   0  0  0  0  0  0  0  0  0  0  0  0
    5.7932    6.5950    0.0000 H   0  0  0  0  0  0  0  0  0  0  0  0
    4.9272    0.7150    0.0000 H   0  0  0  0  0  0  0  0  0  0  0  0
    8.5991    8.2150    0.0000 H   0  0  0  0  0  0  0  0  0  0  0  0
    5.7932    8.2150    0.0000 H   0  0  0  0  0  0  0  0  0  0  0  0
    7.1962    9.0250    0.0000 H   0  0  0  0  0  0  0  0  0  0  0  0
   10.1042    6.3681    0.0000 H   0  0  0  0  0  0  0  0  0  0  0  0
   10.3312    7.2150    0.0000 H   0  0  0  0  0  0  0  0  0  0  0  0
    9.4842    7.4419    0.0000 H   0  0  0  0  0  0  0  0  0  0  0  0
    6.0010   -2.2850    0.0000 H   0  0  0  0  0  0  0  0  0  0  0  0
    3.1951   -2.2850    0.0000 H   0  0  0  0  0  0  0  0  0  0  0  0
    6.0010   -3.9050    0.0000 H   0  0  0  0  0  0  0  0  0  0  0  0
    3.1951   -3.9050    0.0000 H   0  0  0  0  0  0  0  0  0  0  0  0
    3.1951   -5.2850    0.0000 H   0  0  0  0  0  0  0  0  0  0  0  0
    6.0010   -5.2850    0.0000 H   0  0  0  0  0  0  0  0  0  0  0  0
    6.0010   -6.9050    0.0000 H   0  0  0  0  0  0  0  0  0  0  0  0
    4.5981   -7.7150    0.0000 H   0  0  0  0  0  0  0  0  0  0  0  0
    2.3291   -8.4050    0.0000 H   0  0  0  0  0  0  0  0  0  0  0  0
    3.4030   -8.4050    0.0000 H   0  0  0  0  0  0  0  0  0  0  0  0
  1 17  1  0  0  0  0
  1 23  1  0  0  0  0
  2 22  1  0  0  0  0
  2 24  1  0  0  0  0
  3 22  2  0  0  0  0
  4 36  2  0  0  0  0
  5  9  1  0  0  0  0
  5 10  1  0  0  0  0
  5 13  1  0  0  0  0
  6 11  1  0  0  0  0
  6 12  1  0  0  0  0
  6 15  1  0  0  0  0
  7 16  1  0  0  0  0
  7 22  1  0  0  0  0
  7 52  1  0  0  0  0
  8 36  1  0  0  0  0
  8 67  1  0  0  0  0
  8 68  1  0  0  0  0
  9 11  1  0  0  0  0
  9 37  1  0  0  0  0
  9 38  1  0  0  0  0
 10 12  1  0  0  0  0
 10 39  1  0  0  0  0
 10 40  1  0  0  0  0
 11 41  1  0  0  0  0
 11 42  1  0  0  0  0
 12 43  1  0  0  0  0
 12 44  1  0  0  0  0
 13 14  1  0  0  0  0
 13 45  1  0  0  0  0
 13 46  1  0  0  0  0
 14 16  1  0  0  0  0
 14 47  1  0  0  0  0
 14 48  1  0  0  0  0
 15 17  1  0  0  0  0
 15 18  2  0  0  0  0
 16 49  1  0  0  0  0
 16 50  1  0  0  0  0
 17 19  2  0  0  0  0
 18 20  1  0  0  0  0
 18 51  1  0  0  0  0
 19 21  1  0  0  0  0
 19 53  1  0  0  0  0
 20 21  2  0  0  0  0
 20 54  1  0  0  0  0
 21 55  1  0  0  0  0
 23 56  1  0  0  0  0
 23 57  1  0  0  0  0
 23 58  1  0  0  0  0
 24 26  2  0  0  0  0
 24 27  1  0  0  0  0
 25 28  1  0  0  0  0
 25 29  2  0  0  0  0
 25 30  1  0  0  0  0
 26 29  1  0  0  0  0
 26 59  1  0  0  0  0
 27 30  2  0  0  0  0
 27 60  1  0  0  0  0
 28 31  2  0  0  0  0
 28 32  1  0  0  0  0
 29 61  1  0  0  0  0
 30 62  1  0  0  0  0
 31 33  1  0  0  0  0
 31 63  1  0  0  0  0
 32 34  2  0  0  0  0
 32 64  1  0  0  0  0
 33 35  2  0  0  0  0
 33 36  1  0  0  0  0
 34 35  1  0  0  0  0
 34 65  1  0  0  0  0
 35 66  1  0  0  0  0
M  END
> <PUBCHEM_COMPOUND_CID>
90466717

> <PUBCHEM_COMPOUND_CANONICALIZED>
1

> <PUBCHEM_CACTVS_COMPLEXITY>
691

> <PUBCHEM_CACTVS_HBOND_ACCEPTOR>
6

> <PUBCHEM_CACTVS_HBOND_DONOR>
2

> <PUBCHEM_CACTVS_ROTATABLE_BOND>
10

> <PUBCHEM_CACTVS_SUBSKEYS>
AAADcfB7uAAAAAAAAAAAAAAAAAAAAAAAAAA8YMEAAAAAAAABUAAAHgAQAAAADAzBmAYyzoPABACIAiVSWACCCAAlIgAIiIEPbMkOZjLE9ZudMyhk1hHY6YeYyPCOoAACAAAAEABAAAQAAAAgAAAAAAAAAA==

> <PUBCHEM_IUPAC_OPENEYE_NAME>
[4-(3-carbamoylphenyl)phenyl] N-[3-[4-(2-methoxyphenyl)piperazin-1-yl]propyl]carbamate

> <PUBCHEM_IUPAC_CAS_NAME>
N-[3-[4-(2-methoxyphenyl)-1-piperazinyl]propyl]carbamic acid [4-(3-carbamoylphenyl)phenyl] ester

> <PUBCHEM_IUPAC_NAME_MARKUP>
[4-(3-carbamoylphenyl)phenyl] <I>N</I>-[3-[4-(2-methoxyphenyl)piperazin-1-yl]propyl]carbamate

> <PUBCHEM_IUPAC_NAME>
[4-(3-carbamoylphenyl)phenyl] N-[3-[4-(2-methoxyphenyl)piperazin-1-yl]propyl]carbamate

> <PUBCHEM_IUPAC_SYSTEMATIC_NAME>
[4-(3-aminocarbonylphenyl)phenyl] N-[3-[4-(2-methoxyphenyl)piperazin-1-yl]propyl]carbamate

> <PUBCHEM_IUPAC_TRADITIONAL_NAME>
N-[3-[4-(2-methoxyphenyl)piperazino]propyl]carbamic acid [4-(3-carbamoylphenyl)phenyl] ester

> <PUBCHEM_IUPAC_INCHI>
InChI=1S/C28H32N4O4/c1-35-26-9-3-2-8-25(26)32-18-16-31(17-19-32)15-5-14-30-28(34)36-24-12-10-21(11-13-24)22-6-4-7-23(20-22)27(29)33/h2-4,6-13,20H,5,14-19H2,1H3,(H2,29,33)(H,30,34)

> <PUBCHEM_IUPAC_INCHIKEY>
ZUARVBUFFCRJPZ-UHFFFAOYSA-N

> <PUBCHEM_XLOGP3_AA>
4

> <PUBCHEM_EXACT_MASS>
488.24235551

> <PUBCHEM_MOLECULAR_FORMULA>
C28H32N4O4

> <PUBCHEM_MOLECULAR_WEIGHT>
488.6

> <PUBCHEM_OPENEYE_CAN_SMILES>
COC1=CC=CC=C1N2CCN(CC2)CCCNC(=O)OC3=CC=C(C=C3)C4=CC(=CC=C4)C(=O)N

> <PUBCHEM_OPENEYE_ISO_SMILES>
COC1=CC=CC=C1N2CCN(CC2)CCCNC(=O)OC3=CC=C(C=C3)C4=CC(=CC=C4)C(=O)N

> <PUBCHEM_CACTVS_TPSA>
97.1

> <PUBCHEM_MONOISOTOPIC_WEIGHT>
488.24235551

> <PUBCHEM_TOTAL_CHARGE>
0

> <PUBCHEM_HEAVY_ATOM_COUNT>
36

> <PUBCHEM_ATOM_DEF_STEREO_COUNT>
0

> <PUBCHEM_ATOM_UDEF_STEREO_COUNT>
0

> <PUBCHEM_BOND_DEF_STEREO_COUNT>
0

> <PUBCHEM_BOND_UDEF_STEREO_COUNT>
0

> <PUBCHEM_ISOTOPIC_ATOM_COUNT>
0

> <PUBCHEM_COMPONENT_COUNT>
1

> <PUBCHEM_CACTVS_TAUTO_COUNT>
-1

> <PUBCHEM_COORDINATE_TYPE>
1
5
255

> <PUBCHEM_BONDANNOTATIONS>
15  17  8
15  18  8
17  19  8
18  20  8
19  21  8
20  21  8
24  26  8
24  27  8
25  29  8
25  30  8
26  29  8
27  30  8
28  31  8
28  32  8
31  33  8
32  34  8
33  35  8
34  35  8

$$$$
