44415577
  -OEChem-09292322282D

 52 56  0     0  0  0  0  0  0999 V2000
    8.7204    0.4491    0.0000 Cl  0  0  0  0  0  0  0  0  0  0  0  0
    6.6150   -1.8778    0.0000 O   0  0  0  0  0  0  0  0  0  0  0  0
    5.2490   -4.9167    0.0000 O   0  0  0  0  0  0  0  0  0  0  0  0
    3.9491    2.2138    0.0000 N   0  0  0  0  0  0  0  0  0  0  0  0
    3.0814    4.0157    0.0000 N   0  0  0  0  0  0  0  0  0  0  0  0
    4.8830   -0.8778    0.0000 N   0  0  0  0  0  0  0  0  0  0  0  0
    5.3830    1.3128    0.0000 N   0  0  0  0  0  0  0  0  0  0  0  0
    4.8830   -1.8778    0.0000 N   0  0  0  0  0  0  0  0  0  0  0  0
    4.9400   -3.9656    0.0000 N   0  0  0  0  0  0  0  0  0  0  0  0
    4.5125    3.0400    0.0000 C   0  0  0  0  0  0  0  0  0  0  0  0
    2.9519    2.2885    0.0000 C   0  0  0  0  0  0  0  0  0  0  0  0
    4.0786    3.9410    0.0000 C   0  0  0  0  0  0  0  0  0  0  0  0
    2.5180    3.1895    0.0000 C   0  0  0  0  0  0  0  0  0  0  0  0
    4.3830    1.3128    0.0000 C   0  0  0  0  0  0  0  0  0  0  0  0
    3.7595    0.5310    0.0000 C   0  0  0  0  0  0  0  0  0  0  0  0
    2.6475    4.9167    0.0000 C   0  0  0  0  0  0  0  0  0  0  0  0
    3.9820   -0.4440    0.0000 C   0  0  0  0  0  0  0  0  0  0  0  0
    5.7840   -0.4440    0.0000 C   0  0  0  0  0  0  0  0  0  0  0  0
    6.0065    0.5310    0.0000 C   0  0  0  0  0  0  0  0  0  0  0  0
    2.7690    0.8533    0.0000 C   0  0  0  0  0  0  0  0  0  0  0  0
    3.2295   -1.1641    0.0000 C   0  0  0  0  0  0  0  0  0  0  0  0
    2.0000    0.1507    0.0000 C   0  0  0  0  0  0  0  0  0  0  0  0
    6.5365   -1.1642    0.0000 C   0  0  0  0  0  0  0  0  0  0  0  0
    6.9970    0.8533    0.0000 C   0  0  0  0  0  0  0  0  0  0  0  0
    2.2318   -0.8648    0.0000 C   0  0  0  0  0  0  0  0  0  0  0  0
    7.5342   -0.8648    0.0000 C   0  0  0  0  0  0  0  0  0  0  0  0
    7.7660    0.1507    0.0000 C   0  0  0  0  0  0  0  0  0  0  0  0
    5.7490   -2.3778    0.0000 C   0  0  0  0  0  0  0  0  0  0  0  0
    5.7490   -3.3778    0.0000 C   0  0  0  0  0  0  0  0  0  0  0  0
    6.5580   -3.9656    0.0000 C   0  0  0  0  0  0  0  0  0  0  0  0
    6.2490   -4.9167    0.0000 C   0  0  0  0  0  0  0  0  0  0  0  0
    4.9563    2.6071    0.0000 H   0  0  0  0  0  0  0  0  0  0  0  0
    5.0159    3.4019    0.0000 H   0  0  0  0  0  0  0  0  0  0  0  0
    2.3551    2.1206    0.0000 H   0  0  0  0  0  0  0  0  0  0  0  0
    3.0137    1.6716    0.0000 H   0  0  0  0  0  0  0  0  0  0  0  0
    4.6754    4.1089    0.0000 H   0  0  0  0  0  0  0  0  0  0  0  0
    4.0168    4.5579    0.0000 H   0  0  0  0  0  0  0  0  0  0  0  0
    2.0742    3.6224    0.0000 H   0  0  0  0  0  0  0  0  0  0  0  0
    2.0146    2.8276    0.0000 H   0  0  0  0  0  0  0  0  0  0  0  0
    3.2061    5.1857    0.0000 H   0  0  0  0  0  0  0  0  0  0  0  0
    2.3785    5.4753    0.0000 H   0  0  0  0  0  0  0  0  0  0  0  0
    2.0889    4.6477    0.0000 H   0  0  0  0  0  0  0  0  0  0  0  0
    2.6380    1.4593    0.0000 H   0  0  0  0  0  0  0  0  0  0  0  0
    3.3744   -1.7669    0.0000 H   0  0  0  0  0  0  0  0  0  0  0  0
    1.4083    0.3358    0.0000 H   0  0  0  0  0  0  0  0  0  0  0  0
    6.3916   -1.7670    0.0000 H   0  0  0  0  0  0  0  0  0  0  0  0
    7.1280    1.4593    0.0000 H   0  0  0  0  0  0  0  0  0  0  0  0
    1.7789   -1.2882    0.0000 H   0  0  0  0  0  0  0  0  0  0  0  0
    4.3460   -2.1878    0.0000 H   0  0  0  0  0  0  0  0  0  0  0  0
    7.9871   -1.2883    0.0000 H   0  0  0  0  0  0  0  0  0  0  0  0
    7.1477   -3.7740    0.0000 H   0  0  0  0  0  0  0  0  0  0  0  0
    6.6134   -5.4183    0.0000 H   0  0  0  0  0  0  0  0  0  0  0  0
  1 27  1  0  0  0  0
  2 28  2  0  0  0  0
  3  9  1  0  0  0  0
  3 31  1  0  0  0  0
  4 10  1  0  0  0  0
  4 11  1  0  0  0  0
  4 14  1  0  0  0  0
  5 12  1  0  0  0  0
  5 13  1  0  0  0  0
  5 16  1  0  0  0  0
  6  8  1  0  0  0  0
  6 17  1  0  0  0  0
  6 18  1  0  0  0  0
  7 14  2  0  0  0  0
  7 19  1  0  0  0  0
  8 28  1  0  0  0  0
  8 49  1  0  0  0  0
  9 29  2  0  0  0  0
 10 12  1  0  0  0  0
 10 32  1  0  0  0  0
 10 33  1  0  0  0  0
 11 13  1  0  0  0  0
 11 34  1  0  0  0  0
 11 35  1  0  0  0  0
 12 36  1  0  0  0  0
 12 37  1  0  0  0  0
 13 38  1  0  0  0  0
 13 39  1  0  0  0  0
 14 15  1  0  0  0  0
 15 17  1  0  0  0  0
 15 20  2  0  0  0  0
 16 40  1  0  0  0  0
 16 41  1  0  0  0  0
 16 42  1  0  0  0  0
 17 21  2  0  0  0  0
 18 19  2  0  0  0  0
 18 23  1  0  0  0  0
 19 24  1  0  0  0  0
 20 22  1  0  0  0  0
 20 43  1  0  0  0  0
 21 25  1  0  0  0  0
 21 44  1  0  0  0  0
 22 25  2  0  0  0  0
 22 45  1  0  0  0  0
 23 26  2  0  0  0  0
 23 46  1  0  0  0  0
 24 27  2  0  0  0  0
 24 47  1  0  0  0  0
 25 48  1  0  0  0  0
 26 27  1  0  0  0  0
 26 50  1  0  0  0  0
 28 29  1  0  0  0  0
 29 30  1  0  0  0  0
 30 31  2  0  0  0  0
 30 51  1  0  0  0  0
 31 52  1  0  0  0  0
M  END
> <PUBCHEM_COMPOUND_CID>
44415577

> <PUBCHEM_COMPOUND_CANONICALIZED>
1

> <PUBCHEM_CACTVS_COMPLEXITY>
685

> <PUBCHEM_CACTVS_HBOND_ACCEPTOR>
6

> <PUBCHEM_CACTVS_HBOND_DONOR>
1

> <PUBCHEM_CACTVS_ROTATABLE_BOND>
3

> <PUBCHEM_CACTVS_SUBSKEYS>
AAADceB7sAAEAAAAAAAAAAAAAAAAAWAAAAA8YIAABAAAAAAB0AAAHgIcAAAADArhniYzxJNyAACpAy9y9gCCBAEnJwA7uCG+ftoIZvrB35OUMYhmgBjIycc3gAAOAABAAAICACAAAIAABAQAQAAAAAAAAA==

> <PUBCHEM_IUPAC_OPENEYE_NAME>
N-[3-chloro-6-(4-methylpiperazin-1-yl)benzo[b][1,4]benzodiazepin-11-yl]isoxazole-3-carboxamide

> <PUBCHEM_IUPAC_CAS_NAME>
N-[3-chloro-6-(4-methyl-1-piperazinyl)-11-benzo[b][1,4]benzodiazepinyl]-3-isoxazolecarboxamide

> <PUBCHEM_IUPAC_NAME_MARKUP>
<I>N</I>-[3-chloro-6-(4-methylpiperazin-1-yl)benzo[b][1,4]benzodiazepin-11-yl]-1,2-oxazole-3-carboxamide

> <PUBCHEM_IUPAC_NAME>
N-[3-chloro-6-(4-methylpiperazin-1-yl)benzo[b][1,4]benzodiazepin-11-yl]-1,2-oxazole-3-carboxamide

> <PUBCHEM_IUPAC_SYSTEMATIC_NAME>
N-[3-chloranyl-6-(4-methylpiperazin-1-yl)benzo[b][1,4]benzodiazepin-11-yl]-1,2-oxazole-3-carboxamide

> <PUBCHEM_IUPAC_TRADITIONAL_NAME>
N-[3-chloro-6-(4-methylpiperazino)benzo[b][1,4]benzodiazepin-11-yl]isoxazole-3-carboxamide

> <PUBCHEM_IUPAC_INCHI>
InChI=1S/C22H21ClN6O2/c1-27-9-11-28(12-10-27)21-16-4-2-3-5-19(16)29(25-22(30)17-8-13-31-26-17)20-7-6-15(23)14-18(20)24-21/h2-8,13-14H,9-12H2,1H3,(H,25,30)

> <PUBCHEM_IUPAC_INCHIKEY>
XWSLVHMENQYJFV-UHFFFAOYSA-N

> <PUBCHEM_XLOGP3_AA>
3.2

> <PUBCHEM_EXACT_MASS>
436.1414516

> <PUBCHEM_MOLECULAR_FORMULA>
C22H21ClN6O2

> <PUBCHEM_MOLECULAR_WEIGHT>
436.9

> <PUBCHEM_OPENEYE_CAN_SMILES>
CN1CCN(CC1)C2=NC3=C(C=CC(=C3)Cl)N(C4=CC=CC=C42)NC(=O)C5=NOC=C5

> <PUBCHEM_OPENEYE_ISO_SMILES>
CN1CCN(CC1)C2=NC3=C(C=CC(=C3)Cl)N(C4=CC=CC=C42)NC(=O)C5=NOC=C5

> <PUBCHEM_CACTVS_TPSA>
77.2

> <PUBCHEM_MONOISOTOPIC_WEIGHT>
436.1414516

> <PUBCHEM_TOTAL_CHARGE>
0

> <PUBCHEM_HEAVY_ATOM_COUNT>
31

> <PUBCHEM_ATOM_DEF_STEREO_COUNT>
0

> <PUBCHEM_ATOM_UDEF_STEREO_COUNT>
0

> <PUBCHEM_BOND_DEF_STEREO_COUNT>
0

> <PUBCHEM_BOND_UDEF_STEREO_COUNT>
0

> <PUBCHEM_ISOTOPIC_ATOM_COUNT>
0

> <PUBCHEM_COMPONENT_COUNT>
1

> <PUBCHEM_CACTVS_TAUTO_COUNT>
-1

> <PUBCHEM_COORDINATE_TYPE>
1
5
255

> <PUBCHEM_BONDANNOTATIONS>
15  17  8
15  20  8
17  21  8
18  19  8
18  23  8
19  24  8
20  22  8
21  25  8
22  25  8
23  26  8
24  27  8
26  27  8
29  30  8
3  31  8
3  9  8
30  31  8
9  29  8

$$$$
