146025818
  -OEChem-09292322012D

 47 50  0     1  0  0  0  0  0999 V2000
    3.7320   -1.7980    0.0000 Br  0  0  0  0  0  0  0  0  0  0  0  0
    5.5138    1.2608    0.0000 O   0  0  0  0  0  0  0  0  0  0  0  0
    3.7320    0.2503    0.0000 O   0  0  0  0  0  0  0  0  0  0  0  0
    3.7818    1.2808    0.0000 O   0  0  0  0  0  0  0  0  0  0  0  0
    2.8602   -1.2463    0.0000 O   0  0  0  0  0  0  0  0  0  0  0  0
    8.9864   -1.7707    0.0000 N   0  0  3  0  0  0  0  0  0  0  0  0
    8.1282   -1.2738    0.0000 C   0  0  1  0  0  0  0  0  0  0  0  0
    8.1282   -0.2738    0.0000 C   0  0  0  0  0  0  0  0  0  0  0  0
    7.2622   -1.7738    0.0000 C   0  0  0  0  0  0  0  0  0  0  0  0
    9.0382    0.2330    0.0000 C   0  0  0  0  0  0  0  0  0  0  0  0
    9.8519   -1.2866    0.0000 C   0  0  0  0  0  0  0  0  0  0  0  0
    9.8775   -0.2952    0.0000 C   0  0  0  0  0  0  0  0  0  0  0  0
    7.2622    0.2262    0.0000 C   0  0  0  0  0  0  0  0  0  0  0  0
    6.3961   -1.2738    0.0000 C   0  0  0  0  0  0  0  0  0  0  0  0
    6.3961   -0.2738    0.0000 C   0  0  0  0  0  0  0  0  0  0  0  0
    8.9790   -2.7707    0.0000 C   0  0  0  0  0  0  0  0  0  0  0  0
    9.0462    1.2746    0.0000 C   0  0  0  0  0  0  0  0  0  0  0  0
    7.2461    1.2677    0.0000 C   0  0  0  0  0  0  0  0  0  0  0  0
    5.5022    0.2609    0.0000 C   0  0  0  0  0  0  0  0  0  0  0  0
    5.5022   -1.8085    0.0000 C   0  0  0  0  0  0  0  0  0  0  0  0
    8.1441    1.7955    0.0000 C   0  0  0  0  0  0  0  0  0  0  0  0
    4.5961   -0.2530    0.0000 C   0  0  0  0  0  0  0  0  0  0  0  0
    4.5961   -1.2946    0.0000 C   0  0  0  0  0  0  0  0  0  0  0  0
    4.6536    1.7708    0.0000 C   0  0  0  0  0  0  0  0  0  0  0  0
    2.8641   -0.2463    0.0000 C   0  0  0  0  0  0  0  0  0  0  0  0
    4.6651    2.7707    0.0000 C   0  0  0  0  0  0  0  0  0  0  0  0
    2.0000    0.2570    0.0000 C   0  0  0  0  0  0  0  0  0  0  0  0
    8.1277   -2.1238    0.0000 H   0  0  0  0  0  0  0  0  0  0  0  0
    6.8636   -2.2487    0.0000 H   0  0  0  0  0  0  0  0  0  0  0  0
    7.6607   -2.2487    0.0000 H   0  0  0  0  0  0  0  0  0  0  0  0
   10.0536   -1.8728    0.0000 H   0  0  0  0  0  0  0  0  0  0  0  0
   10.4647   -1.1922    0.0000 H   0  0  0  0  0  0  0  0  0  0  0  0
   10.4846   -0.4211    0.0000 H   0  0  0  0  0  0  0  0  0  0  0  0
   10.1093    0.2799    0.0000 H   0  0  0  0  0  0  0  0  0  0  0  0
    8.3590   -2.7661    0.0000 H   0  0  0  0  0  0  0  0  0  0  0  0
    8.9744   -3.3907    0.0000 H   0  0  0  0  0  0  0  0  0  0  0  0
    9.5990   -2.7753    0.0000 H   0  0  0  0  0  0  0  0  0  0  0  0
    9.5844    1.5826    0.0000 H   0  0  0  0  0  0  0  0  0  0  0  0
    6.7056    1.5715    0.0000 H   0  0  0  0  0  0  0  0  0  0  0  0
    5.5094   -2.4284    0.0000 H   0  0  0  0  0  0  0  0  0  0  0  0
    8.1418    2.4154    0.0000 H   0  0  0  0  0  0  0  0  0  0  0  0
    5.2851    2.7635    0.0000 H   0  0  0  0  0  0  0  0  0  0  0  0
    4.6723    3.3907    0.0000 H   0  0  0  0  0  0  0  0  0  0  0  0
    4.0452    2.7779    0.0000 H   0  0  0  0  0  0  0  0  0  0  0  0
    2.3121    0.7928    0.0000 H   0  0  0  0  0  0  0  0  0  0  0  0
    1.4643    0.5691    0.0000 H   0  0  0  0  0  0  0  0  0  0  0  0
    1.6879   -0.2787    0.0000 H   0  0  0  0  0  0  0  0  0  0  0  0
  1 23  1  0  0  0  0
  2 19  1  0  0  0  0
  2 24  1  0  0  0  0
  3 22  1  0  0  0  0
  3 25  1  0  0  0  0
  4 24  2  0  0  0  0
  5 25  2  0  0  0  0
  6  7  1  0  0  0  0
  6 11  1  0  0  0  0
  6 16  1  0  0  0  0
  7  8  1  0  0  0  0
  7  9  1  0  0  0  0
  7 28  1  1  0  0  0
  8 10  2  0  0  0  0
  8 13  1  0  0  0  0
  9 14  1  0  0  0  0
  9 29  1  0  0  0  0
  9 30  1  0  0  0  0
 10 12  1  0  0  0  0
 10 17  1  0  0  0  0
 11 12  1  0  0  0  0
 11 31  1  0  0  0  0
 11 32  1  0  0  0  0
 12 33  1  0  0  0  0
 12 34  1  0  0  0  0
 13 15  1  0  0  0  0
 13 18  2  0  0  0  0
 14 15  1  0  0  0  0
 14 20  2  0  0  0  0
 15 19  2  0  0  0  0
 16 35  1  0  0  0  0
 16 36  1  0  0  0  0
 16 37  1  0  0  0  0
 17 21  2  0  0  0  0
 17 38  1  0  0  0  0
 18 21  1  0  0  0  0
 18 39  1  0  0  0  0
 19 22  1  0  0  0  0
 20 23  1  0  0  0  0
 20 40  1  0  0  0  0
 21 41  1  0  0  0  0
 22 23  2  0  0  0  0
 24 26  1  0  0  0  0
 25 27  1  0  0  0  0
 26 42  1  0  0  0  0
 26 43  1  0  0  0  0
 26 44  1  0  0  0  0
 27 45  1  0  0  0  0
 27 46  1  0  0  0  0
 27 47  1  0  0  0  0
M  END
> <PUBCHEM_COMPOUND_CID>
146025818

> <PUBCHEM_COMPOUND_CANONICALIZED>
1

> <PUBCHEM_CACTVS_COMPLEXITY>
599

> <PUBCHEM_CACTVS_HBOND_ACCEPTOR>
5

> <PUBCHEM_CACTVS_HBOND_DONOR>
0

> <PUBCHEM_CACTVS_ROTATABLE_BOND>
4

> <PUBCHEM_CACTVS_SUBSKEYS>
AAADceB6OAAAEAAAAAAAAAAAAAAAAAAAAAA8YMEAAAAAAADxQAAAHgBAAAABrCzBmAQyDoMABACIAiDSCACCCAAgIAQIiAAMjKgNJiKEsRuGOirkwBGKqheQ0PMOogADEIAYRADUAAahADSIAAAAAAAAAA==

> <PUBCHEM_IUPAC_OPENEYE_NAME>
[(6aR)-11-acetoxy-9-bromo-6-methyl-5,6,6a,7-tetrahydro-4H-dibenzo[de,g]quinolin-10-yl] acetate

> <PUBCHEM_IUPAC_CAS_NAME>
acetic acid [(6aR)-11-acetyloxy-9-bromo-6-methyl-5,6,6a,7-tetrahydro-4H-dibenzo[de,g]quinolin-10-yl] ester

> <PUBCHEM_IUPAC_NAME_MARKUP>
[(6<I>a</I><I>R</I>)-11-acetyloxy-9-bromo-6-methyl-5,6,6<I>a</I>,7-tetrahydro-4<I>H</I>-dibenzo[de,g]quinolin-10-yl] acetate

> <PUBCHEM_IUPAC_NAME>
[(6aR)-11-acetyloxy-9-bromo-6-methyl-5,6,6a,7-tetrahydro-4H-dibenzo[de,g]quinolin-10-yl] acetate

> <PUBCHEM_IUPAC_SYSTEMATIC_NAME>
[(6aR)-11-acetyloxy-9-bromanyl-6-methyl-5,6,6a,7-tetrahydro-4H-dibenzo[de,g]quinolin-10-yl] ethanoate

> <PUBCHEM_IUPAC_TRADITIONAL_NAME>
acetic acid [(6aR)-11-acetoxy-9-bromo-6-methyl-5,6,6a,7-tetrahydro-4H-dibenzo[de,g]quinolin-10-yl] ester

> <PUBCHEM_IUPAC_INCHI>
InChI=1S/C21H20BrNO4/c1-11(24)26-20-16(22)9-14-10-17-18-13(7-8-23(17)3)5-4-6-15(18)19(14)21(20)27-12(2)25/h4-6,9,17H,7-8,10H2,1-3H3/t17-/m1/s1

> <PUBCHEM_IUPAC_INCHIKEY>
NXZVPWFCOOICMZ-QGZVFWFLSA-N

> <PUBCHEM_XLOGP3_AA>
3.7

> <PUBCHEM_EXACT_MASS>
429.05757

> <PUBCHEM_MOLECULAR_FORMULA>
C21H20BrNO4

> <PUBCHEM_MOLECULAR_WEIGHT>
430.3

> <PUBCHEM_OPENEYE_CAN_SMILES>
CC(=O)OC1=C(C=C2CC3C4=C(CCN3C)C=CC=C4C2=C1OC(=O)C)Br

> <PUBCHEM_OPENEYE_ISO_SMILES>
CC(=O)OC1=C(C=C2C[C@@H]3C4=C(CCN3C)C=CC=C4C2=C1OC(=O)C)Br

> <PUBCHEM_CACTVS_TPSA>
55.8

> <PUBCHEM_MONOISOTOPIC_WEIGHT>
429.05757

> <PUBCHEM_TOTAL_CHARGE>
0

> <PUBCHEM_HEAVY_ATOM_COUNT>
27

> <PUBCHEM_ATOM_DEF_STEREO_COUNT>
1

> <PUBCHEM_ATOM_UDEF_STEREO_COUNT>
0

> <PUBCHEM_BOND_DEF_STEREO_COUNT>
0

> <PUBCHEM_BOND_UDEF_STEREO_COUNT>
0

> <PUBCHEM_ISOTOPIC_ATOM_COUNT>
0

> <PUBCHEM_COMPONENT_COUNT>
1

> <PUBCHEM_CACTVS_TAUTO_COUNT>
-1

> <PUBCHEM_COORDINATE_TYPE>
1
5
255

> <PUBCHEM_BONDANNOTATIONS>
10  17  8
13  18  8
14  15  8
14  20  8
15  19  8
17  21  8
18  21  8
19  22  8
20  23  8
22  23  8
7  28  5
8  10  8
8  13  8

$$$$
