166633199
  -OEChem-09292322452D

 45 47  0     1  0  0  0  0  0999 V2000
    3.0723    3.1349    0.0000 O   0  0  0  0  0  0  0  0  0  0  0  0
    6.0370   -4.2493    0.0000 O   0  0  0  0  0  0  0  0  0  0  0  0
    4.5723    2.2689    0.0000 O   0  0  0  0  0  0  0  0  0  0  0  0
    5.7405   -0.6434    0.0000 N   0  0  0  0  0  0  0  0  0  0  0  0
    4.0501   -1.4117    0.0000 C   0  0  2  0  0  0  0  0  0  0  0  0
    4.3089   -0.4458    0.0000 C   0  0  2  0  0  0  0  0  0  0  0  0
    2.8290   -2.2774    0.0000 C   0  0  0  0  0  0  0  0  0  0  0  0
    3.5723    0.5368    0.0000 C   0  0  0  0  0  0  0  0  0  0  0  0
    5.3217   -2.2063    0.0000 C   0  0  0  0  0  0  0  0  0  0  0  0
    2.2756   -0.7569    0.0000 C   0  0  0  0  0  0  0  0  0  0  0  0
    2.0000   -1.7182    0.0000 C   0  0  0  0  0  0  0  0  0  0  0  0
    6.0989   -1.5770    0.0000 C   0  0  0  0  0  0  0  0  0  0  0  0
    4.1373   -2.4079    0.0000 C   0  0  0  0  0  0  0  0  0  0  0  0
    3.0723    1.4029    0.0000 C   0  0  0  0  0  0  0  0  0  0  0  0
    5.0435   -2.8305    0.0000 C   0  0  0  0  0  0  0  0  0  0  0  0
    3.3181   -2.9815    0.0000 C   0  0  0  0  0  0  0  0  0  0  0  0
    3.5723    2.2689    0.0000 C   0  0  0  0  0  0  0  0  0  0  0  0
    5.1307   -3.8267    0.0000 C   0  0  0  0  0  0  0  0  0  0  0  0
    3.4052   -3.9777    0.0000 C   0  0  0  0  0  0  0  0  0  0  0  0
    4.3116   -4.4003    0.0000 C   0  0  0  0  0  0  0  0  0  0  0  0
    3.5723    4.0009    0.0000 C   0  0  0  0  0  0  0  0  0  0  0  0
    3.0723    4.8670    0.0000 C   0  0  0  0  0  0  0  0  0  0  0  0
    4.5289    0.3753    0.0000 H   0  0  0  0  0  0  0  0  0  0  0  0
    2.4232   -2.7461    0.0000 H   0  0  0  0  0  0  0  0  0  0  0  0
    3.2457   -2.7365    0.0000 H   0  0  0  0  0  0  0  0  0  0  0  0
    4.9372   -2.6927    0.0000 H   0  0  0  0  0  0  0  0  0  0  0  0
    5.7627   -2.6422    0.0000 H   0  0  0  0  0  0  0  0  0  0  0  0
    2.2706   -0.1369    0.0000 H   0  0  0  0  0  0  0  0  0  0  0  0
    1.6613   -0.6731    0.0000 H   0  0  0  0  0  0  0  0  0  0  0  0
    1.4252   -1.4859    0.0000 H   0  0  0  0  0  0  0  0  0  0  0  0
    1.7089   -2.2656    0.0000 H   0  0  0  0  0  0  0  0  0  0  0  0
    6.4366   -2.0970    0.0000 H   0  0  0  0  0  0  0  0  0  0  0  0
    6.6513   -1.2955    0.0000 H   0  0  0  0  0  0  0  0  0  0  0  0
    6.0782   -0.1235    0.0000 H   0  0  0  0  0  0  0  0  0  0  0  0
    2.4523    1.4029    0.0000 H   0  0  0  0  0  0  0  0  0  0  0  0
    5.5514   -2.4749    0.0000 H   0  0  0  0  0  0  0  0  0  0  0  0
    2.7562   -2.7194    0.0000 H   0  0  0  0  0  0  0  0  0  0  0  0
    2.8974   -4.3333    0.0000 H   0  0  0  0  0  0  0  0  0  0  0  0
    4.3657   -5.0179    0.0000 H   0  0  0  0  0  0  0  0  0  0  0  0
    6.0910   -4.8670    0.0000 H   0  0  0  0  0  0  0  0  0  0  0  0
    4.0472    3.6024    0.0000 H   0  0  0  0  0  0  0  0  0  0  0  0
    4.0472    4.3995    0.0000 H   0  0  0  0  0  0  0  0  0  0  0  0
    3.6092    5.1770    0.0000 H   0  0  0  0  0  0  0  0  0  0  0  0
    2.7623    5.4039    0.0000 H   0  0  0  0  0  0  0  0  0  0  0  0
    2.5353    4.5570    0.0000 H   0  0  0  0  0  0  0  0  0  0  0  0
  1 17  1  0  0  0  0
  1 21  1  0  0  0  0
  2 18  1  0  0  0  0
  2 40  1  0  0  0  0
  3 17  2  0  0  0  0
  4  6  1  0  0  0  0
  4 12  1  0  0  0  0
  4 34  1  0  0  0  0
  5  7  1  0  0  0  0
  5  8  1  0  0  0  0
  5  9  1  0  0  0  0
  5 13  1  1  0  0  0
  6  8  1  0  0  0  0
  6 10  1  0  0  0  0
  6 23  1  6  0  0  0
  7 11  1  0  0  0  0
  7 24  1  0  0  0  0
  7 25  1  0  0  0  0
  8 14  2  0  0  0  0
  9 12  1  0  0  0  0
  9 26  1  0  0  0  0
  9 27  1  0  0  0  0
 10 11  1  0  0  0  0
 10 28  1  0  0  0  0
 10 29  1  0  0  0  0
 11 30  1  0  0  0  0
 11 31  1  0  0  0  0
 12 32  1  0  0  0  0
 12 33  1  0  0  0  0
 13 15  2  0  0  0  0
 13 16  1  0  0  0  0
 14 17  1  0  0  0  0
 14 35  1  0  0  0  0
 15 18  1  0  0  0  0
 15 36  1  0  0  0  0
 16 19  2  0  0  0  0
 16 37  1  0  0  0  0
 18 20  2  0  0  0  0
 19 20  1  0  0  0  0
 19 38  1  0  0  0  0
 20 39  1  0  0  0  0
 21 22  1  0  0  0  0
 21 41  1  0  0  0  0
 21 42  1  0  0  0  0
 22 43  1  0  0  0  0
 22 44  1  0  0  0  0
 22 45  1  0  0  0  0
M  END
> <PUBCHEM_COMPOUND_CID>
166633199

> <PUBCHEM_COMPOUND_CANONICALIZED>
1

> <PUBCHEM_CACTVS_COMPLEXITY>
448

> <PUBCHEM_CACTVS_HBOND_ACCEPTOR>
4

> <PUBCHEM_CACTVS_HBOND_DONOR>
2

> <PUBCHEM_CACTVS_ROTATABLE_BOND>
4

> <PUBCHEM_CACTVS_SUBSKEYS>
AAADceB6MAAAAAAAAAAAAAAAAAAAAAAAAAA8YIAAAAAWAAABAAAAHgAQCAAADizhmAYyDoLABgCIAiDSCACCAAAgIAAIiIAOCMgIJiKCsRKGcAAk0BGIuQeQwPAPgAABAAAAAAAAAAKAAAAAAAAAAAAAAA==

> <PUBCHEM_IUPAC_OPENEYE_NAME>
ethyl (2Z)-2-[(1S,5S)-5-(3-hydroxyphenyl)-2-azabicyclo[3.3.1]nonan-9-ylidene]acetate

> <PUBCHEM_IUPAC_CAS_NAME>
(2Z)-2-[(1S,5S)-5-(3-hydroxyphenyl)-2-azabicyclo[3.3.1]nonan-9-ylidene]acetic acid ethyl ester

> <PUBCHEM_IUPAC_NAME_MARKUP>
ethyl (2<I>Z</I>)-2-[(1<I>S</I>,5<I>S</I>)-5-(3-hydroxyphenyl)-2-azabicyclo[3.3.1]nonan-9-ylidene]acetate

> <PUBCHEM_IUPAC_NAME>
ethyl (2Z)-2-[(1S,5S)-5-(3-hydroxyphenyl)-2-azabicyclo[3.3.1]nonan-9-ylidene]acetate

> <PUBCHEM_IUPAC_SYSTEMATIC_NAME>
ethyl (2Z)-2-[(1S,5S)-5-(3-hydroxyphenyl)-2-azabicyclo[3.3.1]nonan-9-ylidene]ethanoate

> <PUBCHEM_IUPAC_TRADITIONAL_NAME>
(2Z)-2-[(1S,5S)-5-(3-hydroxyphenyl)-2-azabicyclo[3.3.1]nonan-9-ylidene]acetic acid ethyl ester

> <PUBCHEM_IUPAC_INCHI>
InChI=1S/C18H23NO3/c1-2-22-17(21)12-15-16-7-4-8-18(15,9-10-19-16)13-5-3-6-14(20)11-13/h3,5-6,11-12,16,19-20H,2,4,7-10H2,1H3/b15-12+/t16-,18-/m0/s1

> <PUBCHEM_IUPAC_INCHIKEY>
CERQQXVWKFJWFS-QUJHGWJTSA-N

> <PUBCHEM_XLOGP3_AA>
2.5

> <PUBCHEM_EXACT_MASS>
301.16779360

> <PUBCHEM_MOLECULAR_FORMULA>
C18H23NO3

> <PUBCHEM_MOLECULAR_WEIGHT>
301.4

> <PUBCHEM_OPENEYE_CAN_SMILES>
CCOC(=O)C=C1C2CCCC1(CCN2)C3=CC(=CC=C3)O

> <PUBCHEM_OPENEYE_ISO_SMILES>
CCOC(=O)/C=C/1\[C@@H]2CCC[C@]1(CCN2)C3=CC(=CC=C3)O

> <PUBCHEM_CACTVS_TPSA>
58.6

> <PUBCHEM_MONOISOTOPIC_WEIGHT>
301.16779360

> <PUBCHEM_TOTAL_CHARGE>
0

> <PUBCHEM_HEAVY_ATOM_COUNT>
22

> <PUBCHEM_ATOM_DEF_STEREO_COUNT>
2

> <PUBCHEM_ATOM_UDEF_STEREO_COUNT>
0

> <PUBCHEM_BOND_DEF_STEREO_COUNT>
1

> <PUBCHEM_BOND_UDEF_STEREO_COUNT>
0

> <PUBCHEM_ISOTOPIC_ATOM_COUNT>
0

> <PUBCHEM_COMPONENT_COUNT>
1

> <PUBCHEM_CACTVS_TAUTO_COUNT>
-1

> <PUBCHEM_COORDINATE_TYPE>
1
5
255

> <PUBCHEM_BONDANNOTATIONS>
13  15  8
13  16  8
15  18  8
16  19  8
18  20  8
19  20  8
5  13  5
6  23  6

$$$$
