44441217
  -OEChem-09292322262D

 48 51  0     1  0  0  0  0  0999 V2000
    2.0000   -1.3030    0.0000 F   0  0  0  0  0  0  0  0  0  0  0  0
    5.4641    1.6970    0.0000 O   0  0  0  0  0  0  0  0  0  0  0  0
   10.6603    1.6970    0.0000 O   0  0  0  0  0  0  0  0  0  0  0  0
    8.0622   -0.8030    0.0000 N   0  0  0  0  0  0  0  0  0  0  0  0
   12.4725   -1.1077    0.0000 N   0  0  0  0  0  0  0  0  0  0  0  0
   13.0561   -0.3030    0.0000 N   0  0  0  0  0  0  0  0  0  0  0  0
    9.7942   -0.8030    0.0000 C   0  0  3  0  0  0  0  0  0  0  0  0
    8.9282   -1.3030    0.0000 C   0  0  0  0  0  0  0  0  0  0  0  0
    6.3301    0.1970    0.0000 C   0  0  0  0  0  0  0  0  0  0  0  0
    8.0622    0.1970    0.0000 C   0  0  0  0  0  0  0  0  0  0  0  0
    7.1962   -1.3030    0.0000 C   0  0  0  0  0  0  0  0  0  0  0  0
    7.1962    0.6970    0.0000 C   0  0  0  0  0  0  0  0  0  0  0  0
    6.3301   -0.8030    0.0000 C   0  0  0  0  0  0  0  0  0  0  0  0
   10.6603   -1.3030    0.0000 C   0  0  0  0  0  0  0  0  0  0  0  0
    9.7942    0.1970    0.0000 C   0  0  0  0  0  0  0  0  0  0  0  0
   11.5263   -0.8030    0.0000 C   0  0  0  0  0  0  0  0  0  0  0  0
    5.4641    0.6970    0.0000 C   0  0  0  0  0  0  0  0  0  0  0  0
   10.6603    0.6970    0.0000 C   0  0  0  0  0  0  0  0  0  0  0  0
   11.5263    0.1970    0.0000 C   0  0  0  0  0  0  0  0  0  0  0  0
    4.5981    0.1970    0.0000 C   0  0  0  0  0  0  0  0  0  0  0  0
   12.4725    0.5018    0.0000 C   0  0  0  0  0  0  0  0  0  0  0  0
    4.5981   -0.8030    0.0000 C   0  0  0  0  0  0  0  0  0  0  0  0
    3.7320    0.6970    0.0000 C   0  0  0  0  0  0  0  0  0  0  0  0
    3.7320   -1.3030    0.0000 C   0  0  0  0  0  0  0  0  0  0  0  0
    2.8660    0.1970    0.0000 C   0  0  0  0  0  0  0  0  0  0  0  0
    2.8660   -0.8030    0.0000 C   0  0  0  0  0  0  0  0  0  0  0  0
    9.2573   -0.4930    0.0000 H   0  0  0  0  0  0  0  0  0  0  0  0
    8.5297   -1.7779    0.0000 H   0  0  0  0  0  0  0  0  0  0  0  0
    9.3267   -1.7779    0.0000 H   0  0  0  0  0  0  0  0  0  0  0  0
    5.7932   -0.1130    0.0000 H   0  0  0  0  0  0  0  0  0  0  0  0
    8.6728    0.0894    0.0000 H   0  0  0  0  0  0  0  0  0  0  0  0
    8.2742    0.7796    0.0000 H   0  0  0  0  0  0  0  0  0  0  0  0
    6.7976   -1.7779    0.0000 H   0  0  0  0  0  0  0  0  0  0  0  0
    7.5947   -1.7779    0.0000 H   0  0  0  0  0  0  0  0  0  0  0  0
    7.5947    1.1720    0.0000 H   0  0  0  0  0  0  0  0  0  0  0  0
    6.7976    1.1720    0.0000 H   0  0  0  0  0  0  0  0  0  0  0  0
    5.7196   -0.6953    0.0000 H   0  0  0  0  0  0  0  0  0  0  0  0
    6.1181   -1.3856    0.0000 H   0  0  0  0  0  0  0  0  0  0  0  0
   10.2617   -1.7779    0.0000 H   0  0  0  0  0  0  0  0  0  0  0  0
   11.0588   -1.7779    0.0000 H   0  0  0  0  0  0  0  0  0  0  0  0
    9.5822    0.7796    0.0000 H   0  0  0  0  0  0  0  0  0  0  0  0
    9.1836    0.0894    0.0000 H   0  0  0  0  0  0  0  0  0  0  0  0
   12.6651   -1.6970    0.0000 H   0  0  0  0  0  0  0  0  0  0  0  0
   12.6651    1.0911    0.0000 H   0  0  0  0  0  0  0  0  0  0  0  0
    5.1350   -1.1130    0.0000 H   0  0  0  0  0  0  0  0  0  0  0  0
    3.7320    1.3170    0.0000 H   0  0  0  0  0  0  0  0  0  0  0  0
    3.7320   -1.9230    0.0000 H   0  0  0  0  0  0  0  0  0  0  0  0
    2.3291    0.5070    0.0000 H   0  0  0  0  0  0  0  0  0  0  0  0
  1 26  1  0  0  0  0
  2 17  2  0  0  0  0
  3 18  2  0  0  0  0
  4  8  1  0  0  0  0
  4 10  1  0  0  0  0
  4 11  1  0  0  0  0
  5  6  1  0  0  0  0
  5 16  1  0  0  0  0
  5 43  1  0  0  0  0
  6 21  2  0  0  0  0
  7  8  1  0  0  0  0
  7 14  1  0  0  0  0
  7 15  1  0  0  0  0
  7 27  1  0  0  0  0
  8 28  1  0  0  0  0
  8 29  1  0  0  0  0
  9 12  1  0  0  0  0
  9 13  1  0  0  0  0
  9 17  1  0  0  0  0
  9 30  1  0  0  0  0
 10 12  1  0  0  0  0
 10 31  1  0  0  0  0
 10 32  1  0  0  0  0
 11 13  1  0  0  0  0
 11 33  1  0  0  0  0
 11 34  1  0  0  0  0
 12 35  1  0  0  0  0
 12 36  1  0  0  0  0
 13 37  1  0  0  0  0
 13 38  1  0  0  0  0
 14 16  1  0  0  0  0
 14 39  1  0  0  0  0
 14 40  1  0  0  0  0
 15 18  1  0  0  0  0
 15 41  1  0  0  0  0
 15 42  1  0  0  0  0
 16 19  2  0  0  0  0
 17 20  1  0  0  0  0
 18 19  1  0  0  0  0
 19 21  1  0  0  0  0
 20 22  2  0  0  0  0
 20 23  1  0  0  0  0
 21 44  1  0  0  0  0
 22 24  1  0  0  0  0
 22 45  1  0  0  0  0
 23 25  2  0  0  0  0
 23 46  1  0  0  0  0
 24 26  2  0  0  0  0
 24 47  1  0  0  0  0
 25 26  1  0  0  0  0
 25 48  1  0  0  0  0
M  END
> <PUBCHEM_COMPOUND_CID>
44441217

> <PUBCHEM_COMPOUND_CANONICALIZED>
1

> <PUBCHEM_CACTVS_COMPLEXITY>
527

> <PUBCHEM_CACTVS_HBOND_ACCEPTOR>
5

> <PUBCHEM_CACTVS_HBOND_DONOR>
1

> <PUBCHEM_CACTVS_ROTATABLE_BOND>
4

> <PUBCHEM_CACTVS_SUBSKEYS>
AAADceB7MQAAAAAAAAAAAAAAAAAAAWAAAAA8YIAAAAAAAFgBwAAAHwAYAAAADQzBngw8gJNjAACqA7R3QACSBAAkgAAYuSE4RNgIILqA1dCEpYBgmACIycccicCeAAAAAAAAAACAAACAAAQAAAAAAAAAAA==

> <PUBCHEM_IUPAC_OPENEYE_NAME>
6-[[4-(4-fluorobenzoyl)-1-piperidyl]methyl]-1,5,6,7-tetrahydroindazol-4-one

> <PUBCHEM_IUPAC_CAS_NAME>
6-[[4-[(4-fluorophenyl)-oxomethyl]-1-piperidinyl]methyl]-1,5,6,7-tetrahydroindazol-4-one

> <PUBCHEM_IUPAC_NAME_MARKUP>
6-[[4-(4-fluorobenzoyl)piperidin-1-yl]methyl]-1,5,6,7-tetrahydroindazol-4-one

> <PUBCHEM_IUPAC_NAME>
6-[[4-(4-fluorobenzoyl)piperidin-1-yl]methyl]-1,5,6,7-tetrahydroindazol-4-one

> <PUBCHEM_IUPAC_SYSTEMATIC_NAME>
6-[[4-(4-fluorophenyl)carbonylpiperidin-1-yl]methyl]-1,5,6,7-tetrahydroindazol-4-one

> <PUBCHEM_IUPAC_TRADITIONAL_NAME>
6-[[4-(4-fluorobenzoyl)piperidino]methyl]-1,5,6,7-tetrahydroindazol-4-one

> <PUBCHEM_IUPAC_INCHI>
InChI=1S/C20H22FN3O2/c21-16-3-1-14(2-4-16)20(26)15-5-7-24(8-6-15)12-13-9-18-17(11-22-23-18)19(25)10-13/h1-4,11,13,15H,5-10,12H2,(H,22,23)

> <PUBCHEM_IUPAC_INCHIKEY>
IOHGCEFLIGUPNB-UHFFFAOYSA-N

> <PUBCHEM_XLOGP3_AA>
2.2

> <PUBCHEM_EXACT_MASS>
355.16960512

> <PUBCHEM_MOLECULAR_FORMULA>
C20H22FN3O2

> <PUBCHEM_MOLECULAR_WEIGHT>
355.4

> <PUBCHEM_OPENEYE_CAN_SMILES>
C1CN(CCC1C(=O)C2=CC=C(C=C2)F)CC3CC4=C(C=NN4)C(=O)C3

> <PUBCHEM_OPENEYE_ISO_SMILES>
C1CN(CCC1C(=O)C2=CC=C(C=C2)F)CC3CC4=C(C=NN4)C(=O)C3

> <PUBCHEM_CACTVS_TPSA>
66.1

> <PUBCHEM_MONOISOTOPIC_WEIGHT>
355.16960512

> <PUBCHEM_TOTAL_CHARGE>
0

> <PUBCHEM_HEAVY_ATOM_COUNT>
26

> <PUBCHEM_ATOM_DEF_STEREO_COUNT>
0

> <PUBCHEM_ATOM_UDEF_STEREO_COUNT>
1

> <PUBCHEM_BOND_DEF_STEREO_COUNT>
0

> <PUBCHEM_BOND_UDEF_STEREO_COUNT>
0

> <PUBCHEM_ISOTOPIC_ATOM_COUNT>
0

> <PUBCHEM_COMPONENT_COUNT>
1

> <PUBCHEM_CACTVS_TAUTO_COUNT>
-1

> <PUBCHEM_COORDINATE_TYPE>
1
5
255

> <PUBCHEM_BONDANNOTATIONS>
16  19  8
19  21  8
20  22  8
20  23  8
22  24  8
23  25  8
24  26  8
25  26  8
5  16  8
5  6  8
6  21  8
7  8  3

$$$$
