53248210
  -OEChem-09292322322D

 63 66  0     1  0  0  0  0  0999 V2000
   11.4939    0.3660    0.0000 F   0  0  0  0  0  0  0  0  0  0  0  0
   15.4939    0.3660    0.0000 O   0  0  0  0  0  0  0  0  0  0  0  0
    6.4103    0.4273    0.0000 O   0  0  0  0  0  0  0  0  0  0  0  0
    8.4939    2.0981    0.0000 O   0  0  0  0  0  0  0  0  0  0  0  0
    2.8660    2.2320    0.0000 O   0  0  0  0  0  0  0  0  0  0  0  0
   12.4939   -1.3660    0.0000 N   0  0  0  0  0  0  0  0  0  0  0  0
   14.4939   -1.3660    0.0000 N   0  0  0  0  0  0  0  0  0  0  0  0
    8.4939    0.3660    0.0000 N   0  0  0  0  0  0  0  0  0  0  0  0
   12.9939   -2.2320    0.0000 C   0  0  0  0  0  0  0  0  0  0  0  0
   12.9939   -0.5000    0.0000 C   0  0  0  0  0  0  0  0  0  0  0  0
   13.9939   -2.2320    0.0000 C   0  0  0  0  0  0  0  0  0  0  0  0
   13.9939   -0.5000    0.0000 C   0  0  0  0  0  0  0  0  0  0  0  0
   11.4939   -1.3660    0.0000 C   0  0  0  0  0  0  0  0  0  0  0  0
   10.9939   -0.5000    0.0000 C   0  0  3  0  0  0  0  0  0  0  0  0
   15.4939   -1.3660    0.0000 C   0  0  0  0  0  0  0  0  0  0  0  0
    9.9939   -0.5000    0.0000 C   0  0  0  0  0  0  0  0  0  0  0  0
    9.4939    0.3660    0.0000 C   0  0  0  0  0  0  0  0  0  0  0  0
   15.9939   -0.5000    0.0000 C   0  0  0  0  0  0  0  0  0  0  0  0
   15.9939   -2.2320    0.0000 C   0  0  0  0  0  0  0  0  0  0  0  0
   16.9939   -0.5000    0.0000 C   0  0  0  0  0  0  0  0  0  0  0  0
   16.9939   -2.2320    0.0000 C   0  0  0  0  0  0  0  0  0  0  0  0
   17.4939   -1.3660    0.0000 C   0  0  0  0  0  0  0  0  0  0  0  0
    7.9939    1.2320    0.0000 C   0  0  0  0  0  0  0  0  0  0  0  0
    6.9939    1.2320    0.0000 C   0  0  0  0  0  0  0  0  0  0  0  0
   15.9939    1.2320    0.0000 C   0  0  0  0  0  0  0  0  0  0  0  0
    6.4103    2.0368    0.0000 C   0  0  0  0  0  0  0  0  0  0  0  0
    5.4641    1.7320    0.0000 C   0  0  0  0  0  0  0  0  0  0  0  0
    5.4641    0.7321    0.0000 C   0  0  0  0  0  0  0  0  0  0  0  0
    4.5981    2.2320    0.0000 C   0  0  0  0  0  0  0  0  0  0  0  0
    4.5981    0.2321    0.0000 C   0  0  0  0  0  0  0  0  0  0  0  0
    3.7320    1.7320    0.0000 C   0  0  0  0  0  0  0  0  0  0  0  0
    3.7320    0.7321    0.0000 C   0  0  0  0  0  0  0  0  0  0  0  0
    2.0000    1.7320    0.0000 C   0  0  0  0  0  0  0  0  0  0  0  0
   12.4113   -2.4441    0.0000 H   0  0  0  0  0  0  0  0  0  0  0  0
   13.1016   -2.8426    0.0000 H   0  0  0  0  0  0  0  0  0  0  0  0
   13.1016    0.1106    0.0000 H   0  0  0  0  0  0  0  0  0  0  0  0
   12.4113   -0.2879    0.0000 H   0  0  0  0  0  0  0  0  0  0  0  0
   13.8863   -2.8426    0.0000 H   0  0  0  0  0  0  0  0  0  0  0  0
   14.5765   -2.4441    0.0000 H   0  0  0  0  0  0  0  0  0  0  0  0
   14.5765   -0.2879    0.0000 H   0  0  0  0  0  0  0  0  0  0  0  0
   13.8863    0.1106    0.0000 H   0  0  0  0  0  0  0  0  0  0  0  0
   10.9113   -1.5781    0.0000 H   0  0  0  0  0  0  0  0  0  0  0  0
   11.6016   -1.9766    0.0000 H   0  0  0  0  0  0  0  0  0  0  0  0
   11.6139   -0.5000    0.0000 H   0  0  0  0  0  0  0  0  0  0  0  0
    9.4113   -0.7121    0.0000 H   0  0  0  0  0  0  0  0  0  0  0  0
   10.1016   -1.1106    0.0000 H   0  0  0  0  0  0  0  0  0  0  0  0
   10.0765    0.5781    0.0000 H   0  0  0  0  0  0  0  0  0  0  0  0
    9.3863    0.9766    0.0000 H   0  0  0  0  0  0  0  0  0  0  0  0
   15.6839   -2.7690    0.0000 H   0  0  0  0  0  0  0  0  0  0  0  0
    8.1839   -0.1709    0.0000 H   0  0  0  0  0  0  0  0  0  0  0  0
   17.3039    0.0369    0.0000 H   0  0  0  0  0  0  0  0  0  0  0  0
   17.3039   -2.7690    0.0000 H   0  0  0  0  0  0  0  0  0  0  0  0
   18.1139   -1.3660    0.0000 H   0  0  0  0  0  0  0  0  0  0  0  0
   16.5309    0.9221    0.0000 H   0  0  0  0  0  0  0  0  0  0  0  0
   16.3039    1.7690    0.0000 H   0  0  0  0  0  0  0  0  0  0  0  0
   15.4570    1.5420    0.0000 H   0  0  0  0  0  0  0  0  0  0  0  0
    6.6029    2.6261    0.0000 H   0  0  0  0  0  0  0  0  0  0  0  0
    4.5981    2.8521    0.0000 H   0  0  0  0  0  0  0  0  0  0  0  0
    4.5981   -0.3879    0.0000 H   0  0  0  0  0  0  0  0  0  0  0  0
    3.1951    0.4221    0.0000 H   0  0  0  0  0  0  0  0  0  0  0  0
    1.6900    2.2690    0.0000 H   0  0  0  0  0  0  0  0  0  0  0  0
    1.4631    1.4220    0.0000 H   0  0  0  0  0  0  0  0  0  0  0  0
    2.3100    1.1951    0.0000 H   0  0  0  0  0  0  0  0  0  0  0  0
  1 14  1  0  0  0  0
  2 18  1  0  0  0  0
  2 25  1  0  0  0  0
  3 24  1  0  0  0  0
  3 28  1  0  0  0  0
  4 23  2  0  0  0  0
  5 31  1  0  0  0  0
  5 33  1  0  0  0  0
  6  9  1  0  0  0  0
  6 10  1  0  0  0  0
  6 13  1  0  0  0  0
  7 11  1  0  0  0  0
  7 12  1  0  0  0  0
  7 15  1  0  0  0  0
  8 17  1  0  0  0  0
  8 23  1  0  0  0  0
  8 50  1  0  0  0  0
  9 11  1  0  0  0  0
  9 34  1  0  0  0  0
  9 35  1  0  0  0  0
 10 12  1  0  0  0  0
 10 36  1  0  0  0  0
 10 37  1  0  0  0  0
 11 38  1  0  0  0  0
 11 39  1  0  0  0  0
 12 40  1  0  0  0  0
 12 41  1  0  0  0  0
 13 14  1  0  0  0  0
 13 42  1  0  0  0  0
 13 43  1  0  0  0  0
 14 16  1  0  0  0  0
 14 44  1  0  0  0  0
 15 18  1  0  0  0  0
 15 19  2  0  0  0  0
 16 17  1  0  0  0  0
 16 45  1  0  0  0  0
 16 46  1  0  0  0  0
 17 47  1  0  0  0  0
 17 48  1  0  0  0  0
 18 20  2  0  0  0  0
 19 21  1  0  0  0  0
 19 49  1  0  0  0  0
 20 22  1  0  0  0  0
 20 51  1  0  0  0  0
 21 22  2  0  0  0  0
 21 52  1  0  0  0  0
 22 53  1  0  0  0  0
 23 24  1  0  0  0  0
 24 26  2  0  0  0  0
 25 54  1  0  0  0  0
 25 55  1  0  0  0  0
 25 56  1  0  0  0  0
 26 27  1  0  0  0  0
 26 57  1  0  0  0  0
 27 28  2  0  0  0  0
 27 29  1  0  0  0  0
 28 30  1  0  0  0  0
 29 31  2  0  0  0  0
 29 58  1  0  0  0  0
 30 32  2  0  0  0  0
 30 59  1  0  0  0  0
 31 32  1  0  0  0  0
 32 60  1  0  0  0  0
 33 61  1  0  0  0  0
 33 62  1  0  0  0  0
 33 63  1  0  0  0  0
M  END
> <PUBCHEM_COMPOUND_CID>
53248210

> <PUBCHEM_COMPOUND_CANONICALIZED>
1

> <PUBCHEM_CACTVS_COMPLEXITY>
619

> <PUBCHEM_CACTVS_HBOND_ACCEPTOR>
7

> <PUBCHEM_CACTVS_HBOND_DONOR>
1

> <PUBCHEM_CACTVS_ROTATABLE_BOND>
9

> <PUBCHEM_CACTVS_SUBSKEYS>
AAADceB7OQAAAAAAAAAAAAAAAAAAASAAAAA8YIAAAAAAAEgB9AAAHwAQAAAADAzBmAYyxsPABECIAqVSUAKCCAAlIgAIiIHPbMgOZjLEtb+XOSjk1hHY6Yfa/77uAQABAAAIEAACAAIAABAgAAAAAAAAAA==

> <PUBCHEM_IUPAC_OPENEYE_NAME>
N-[3-fluoro-4-[4-(2-methoxyphenyl)piperazin-1-yl]butyl]-5-methoxy-benzofuran-2-carboxamide

> <PUBCHEM_IUPAC_CAS_NAME>
N-[3-fluoro-4-[4-(2-methoxyphenyl)-1-piperazinyl]butyl]-5-methoxy-2-benzofurancarboxamide

> <PUBCHEM_IUPAC_NAME_MARKUP>
<I>N</I>-[3-fluoro-4-[4-(2-methoxyphenyl)piperazin-1-yl]butyl]-5-methoxy-1-benzofuran-2-carboxamide

> <PUBCHEM_IUPAC_NAME>
N-[3-fluoro-4-[4-(2-methoxyphenyl)piperazin-1-yl]butyl]-5-methoxy-1-benzofuran-2-carboxamide

> <PUBCHEM_IUPAC_SYSTEMATIC_NAME>
N-[3-fluoranyl-4-[4-(2-methoxyphenyl)piperazin-1-yl]butyl]-5-methoxy-1-benzofuran-2-carboxamide

> <PUBCHEM_IUPAC_TRADITIONAL_NAME>
N-[3-fluoro-4-[4-(2-methoxyphenyl)piperazino]butyl]-5-methoxy-coumarilamide

> <PUBCHEM_IUPAC_INCHI>
InChI=1S/C25H30FN3O4/c1-31-20-7-8-22-18(15-20)16-24(33-22)25(30)27-10-9-19(26)17-28-11-13-29(14-12-28)21-5-3-4-6-23(21)32-2/h3-8,15-16,19H,9-14,17H2,1-2H3,(H,27,30)

> <PUBCHEM_IUPAC_INCHIKEY>
CSQTYZHHBNDDMS-UHFFFAOYSA-N

> <PUBCHEM_XLOGP3_AA>
4.3

> <PUBCHEM_EXACT_MASS>
455.22203461

> <PUBCHEM_MOLECULAR_FORMULA>
C25H30FN3O4

> <PUBCHEM_MOLECULAR_WEIGHT>
455.5

> <PUBCHEM_OPENEYE_CAN_SMILES>
COC1=CC2=C(C=C1)OC(=C2)C(=O)NCCC(CN3CCN(CC3)C4=CC=CC=C4OC)F

> <PUBCHEM_OPENEYE_ISO_SMILES>
COC1=CC2=C(C=C1)OC(=C2)C(=O)NCCC(CN3CCN(CC3)C4=CC=CC=C4OC)F

> <PUBCHEM_CACTVS_TPSA>
67.2

> <PUBCHEM_MONOISOTOPIC_WEIGHT>
455.22203461

> <PUBCHEM_TOTAL_CHARGE>
0

> <PUBCHEM_HEAVY_ATOM_COUNT>
33

> <PUBCHEM_ATOM_DEF_STEREO_COUNT>
0

> <PUBCHEM_ATOM_UDEF_STEREO_COUNT>
1

> <PUBCHEM_BOND_DEF_STEREO_COUNT>
0

> <PUBCHEM_BOND_UDEF_STEREO_COUNT>
0

> <PUBCHEM_ISOTOPIC_ATOM_COUNT>
0

> <PUBCHEM_COMPONENT_COUNT>
1

> <PUBCHEM_CACTVS_TAUTO_COUNT>
-1

> <PUBCHEM_COORDINATE_TYPE>
1
5
255

> <PUBCHEM_BONDANNOTATIONS>
14  1  3
15  18  8
15  19  8
18  20  8
19  21  8
20  22  8
21  22  8
24  26  8
26  27  8
27  28  8
27  29  8
28  30  8
29  31  8
3  24  8
3  28  8
30  32  8
31  32  8

$$$$
