56664947
  -OEChem-09292322322D

 70 73  0     0  0  0  0  0  0999 V2000
    4.1027    4.2628    0.0000 O   0  0  0  0  0  0  0  0  0  0  0  0
   10.4037    0.6305    0.0000 O   0  0  0  0  0  0  0  0  0  0  0  0
   15.6658    0.6546    0.0000 O   0  0  0  0  0  0  0  0  0  0  0  0
    9.1320    7.3728    0.0000 O   0  0  0  0  0  0  0  0  0  0  0  0
    6.5339    7.8728    0.0000 O   0  0  0  0  0  0  0  0  0  0  0  0
    8.2659    8.8728    0.0000 O   0  0  0  0  0  0  0  0  0  0  0  0
    7.3999    6.3728    0.0000 O   0  0  0  0  0  0  0  0  0  0  0  0
    6.0716    1.1138    0.0000 N   0  0  0  0  0  0  0  0  0  0  0  0
    3.4678    2.6037    0.0000 N   0  0  0  0  0  0  0  0  0  0  0  0
    2.3883    3.7975    0.0000 N   0  0  0  0  0  0  0  0  0  0  0  0
   13.9338    0.6546    0.0000 N   0  0  0  0  0  0  0  0  0  0  0  0
    4.3358    2.1071    0.0000 C   0  0  0  0  0  0  0  0  0  0  0  0
    4.3396    1.1071    0.0000 C   0  0  0  0  0  0  0  0  0  0  0  0
    5.1998    2.6104    0.0000 C   0  0  0  0  0  0  0  0  0  0  0  0
    5.2076    0.6104    0.0000 C   0  0  0  0  0  0  0  0  0  0  0  0
    6.0678    2.1138    0.0000 C   0  0  0  0  0  0  0  0  0  0  0  0
    6.9396    0.6171    0.0000 C   0  0  0  0  0  0  0  0  0  0  0  0
    2.5616    2.1951    0.0000 C   0  0  0  0  0  0  0  0  0  0  0  0
    7.8037    1.1204    0.0000 C   0  0  0  0  0  0  0  0  0  0  0  0
    3.3609    3.5921    0.0000 C   0  0  0  0  0  0  0  0  0  0  0  0
    1.8909    2.9369    0.0000 C   0  0  0  0  0  0  0  0  0  0  0  0
    8.6716    0.6238    0.0000 C   0  0  0  0  0  0  0  0  0  0  0  0
    2.2546    1.2434    0.0000 C   0  0  0  0  0  0  0  0  0  0  0  0
    0.9132    2.7269    0.0000 C   0  0  0  0  0  0  0  0  0  0  0  0
    9.5357    1.1271    0.0000 C   0  0  0  0  0  0  0  0  0  0  0  0
    1.2769    1.0334    0.0000 C   0  0  0  0  0  0  0  0  0  0  0  0
    0.6062    1.7752    0.0000 C   0  0  0  0  0  0  0  0  0  0  0  0
   11.2678    1.1338    0.0000 C   0  0  0  0  0  0  0  0  0  0  0  0
   13.0678    2.1546    0.0000 C   0  0  0  0  0  0  0  0  0  0  0  0
   13.0678    1.1546    0.0000 C   0  0  0  0  0  0  0  0  0  0  0  0
   13.9338    2.6546    0.0000 C   0  0  0  0  0  0  0  0  0  0  0  0
   12.1738    0.6200    0.0000 C   0  0  0  0  0  0  0  0  0  0  0  0
   14.7998    2.1546    0.0000 C   0  0  0  0  0  0  0  0  0  0  0  0
   11.2678    2.1754    0.0000 C   0  0  0  0  0  0  0  0  0  0  0  0
   12.1738    2.6893    0.0000 C   0  0  0  0  0  0  0  0  0  0  0  0
   14.7998    1.1546    0.0000 C   0  0  0  0  0  0  0  0  0  0  0  0
    8.2659    7.8728    0.0000 C   0  0  0  0  0  0  0  0  0  0  0  0
    7.3999    7.3728    0.0000 C   0  0  0  0  0  0  0  0  0  0  0  0
    3.8000    1.7950    0.0000 H   0  0  0  0  0  0  0  0  0  0  0  0
    3.7286    1.2124    0.0000 H   0  0  0  0  0  0  0  0  0  0  0  0
    4.1298    0.5237    0.0000 H   0  0  0  0  0  0  0  0  0  0  0  0
    5.5965    3.0869    0.0000 H   0  0  0  0  0  0  0  0  0  0  0  0
    4.7995    3.0838    0.0000 H   0  0  0  0  0  0  0  0  0  0  0  0
    4.8108    0.1340    0.0000 H   0  0  0  0  0  0  0  0  0  0  0  0
    5.6079    0.1370    0.0000 H   0  0  0  0  0  0  0  0  0  0  0  0
    6.6788    2.0085    0.0000 H   0  0  0  0  0  0  0  0  0  0  0  0
    6.2776    2.6972    0.0000 H   0  0  0  0  0  0  0  0  0  0  0  0
    6.5429    0.1406    0.0000 H   0  0  0  0  0  0  0  0  0  0  0  0
    7.3399    0.1437    0.0000 H   0  0  0  0  0  0  0  0  0  0  0  0
    8.2004    1.5969    0.0000 H   0  0  0  0  0  0  0  0  0  0  0  0
    7.4033    1.5939    0.0000 H   0  0  0  0  0  0  0  0  0  0  0  0
    8.2749    0.1473    0.0000 H   0  0  0  0  0  0  0  0  0  0  0  0
    9.0720    0.1504    0.0000 H   0  0  0  0  0  0  0  0  0  0  0  0
    2.1359    4.3638    0.0000 H   0  0  0  0  0  0  0  0  0  0  0  0
    2.6704    0.7836    0.0000 H   0  0  0  0  0  0  0  0  0  0  0  0
    0.4973    3.1867    0.0000 H   0  0  0  0  0  0  0  0  0  0  0  0
    9.9324    1.6036    0.0000 H   0  0  0  0  0  0  0  0  0  0  0  0
    9.1354    1.6005    0.0000 H   0  0  0  0  0  0  0  0  0  0  0  0
    1.0865    0.4434    0.0000 H   0  0  0  0  0  0  0  0  0  0  0  0
    0.0000    1.6450    0.0000 H   0  0  0  0  0  0  0  0  0  0  0  0
   14.3323    3.1296    0.0000 H   0  0  0  0  0  0  0  0  0  0  0  0
   13.5353    3.1296    0.0000 H   0  0  0  0  0  0  0  0  0  0  0  0
   12.1810    0.0000    0.0000 H   0  0  0  0  0  0  0  0  0  0  0  0
   15.4104    2.0470    0.0000 H   0  0  0  0  0  0  0  0  0  0  0  0
   15.0119    2.7372    0.0000 H   0  0  0  0  0  0  0  0  0  0  0  0
   10.7320    2.4875    0.0000 H   0  0  0  0  0  0  0  0  0  0  0  0
   12.1810    3.3092    0.0000 H   0  0  0  0  0  0  0  0  0  0  0  0
   13.9338    0.0346    0.0000 H   0  0  0  0  0  0  0  0  0  0  0  0
    9.6689    7.6828    0.0000 H   0  0  0  0  0  0  0  0  0  0  0  0
    5.9970    7.5628    0.0000 H   0  0  0  0  0  0  0  0  0  0  0  0
  1 20  2  0  0  0  0
  2 25  1  0  0  0  0
  2 28  1  0  0  0  0
  3 36  2  0  0  0  0
  4 37  1  0  0  0  0
  4 69  1  0  0  0  0
  5 38  1  0  0  0  0
  5 70  1  0  0  0  0
  6 37  2  0  0  0  0
  7 38  2  0  0  0  0
  8 15  1  0  0  0  0
  8 16  1  0  0  0  0
  8 17  1  0  0  0  0
  9 12  1  0  0  0  0
  9 18  1  0  0  0  0
  9 20  1  0  0  0  0
 10 20  1  0  0  0  0
 10 21  1  0  0  0  0
 10 54  1  0  0  0  0
 11 30  1  0  0  0  0
 11 36  1  0  0  0  0
 11 68  1  0  0  0  0
 12 13  1  0  0  0  0
 12 14  1  0  0  0  0
 12 39  1  0  0  0  0
 13 15  1  0  0  0  0
 13 40  1  0  0  0  0
 13 41  1  0  0  0  0
 14 16  1  0  0  0  0
 14 42  1  0  0  0  0
 14 43  1  0  0  0  0
 15 44  1  0  0  0  0
 15 45  1  0  0  0  0
 16 46  1  0  0  0  0
 16 47  1  0  0  0  0
 17 19  1  0  0  0  0
 17 48  1  0  0  0  0
 17 49  1  0  0  0  0
 18 21  1  0  0  0  0
 18 23  2  0  0  0  0
 19 22  1  0  0  0  0
 19 50  1  0  0  0  0
 19 51  1  0  0  0  0
 21 24  2  0  0  0  0
 22 25  1  0  0  0  0
 22 52  1  0  0  0  0
 22 53  1  0  0  0  0
 23 26  1  0  0  0  0
 23 55  1  0  0  0  0
 24 27  1  0  0  0  0
 24 56  1  0  0  0  0
 25 57  1  0  0  0  0
 25 58  1  0  0  0  0
 26 27  2  0  0  0  0
 26 59  1  0  0  0  0
 27 60  1  0  0  0  0
 28 32  2  0  0  0  0
 28 34  1  0  0  0  0
 29 30  2  0  0  0  0
 29 31  1  0  0  0  0
 29 35  1  0  0  0  0
 30 32  1  0  0  0  0
 31 33  1  0  0  0  0
 31 61  1  0  0  0  0
 31 62  1  0  0  0  0
 32 63  1  0  0  0  0
 33 36  1  0  0  0  0
 33 64  1  0  0  0  0
 33 65  1  0  0  0  0
 34 35  2  0  0  0  0
 34 66  1  0  0  0  0
 35 67  1  0  0  0  0
 37 38  1  0  0  0  0
M  END
> <PUBCHEM_COMPOUND_CID>
56664947

> <PUBCHEM_COMPOUND_CANONICALIZED>
1

> <PUBCHEM_CACTVS_COMPLEXITY>
737

> <PUBCHEM_CACTVS_HBOND_ACCEPTOR>
8

> <PUBCHEM_CACTVS_HBOND_DONOR>
4

> <PUBCHEM_CACTVS_ROTATABLE_BOND>
8

> <PUBCHEM_CACTVS_SUBSKEYS>
AAADcfB7uAAAAAAAAAAAAAAAAAAAAWAAAAA8eIEAAAAAAFixQAAAHgAQCAAADCzhmAYxzoPABgCIAiXSWAKCCAAhIgAIiAFOfIiNZjLE8ZuWOCju1hvJ6Ce42aOeIAAAAgACACBAAAAEAAQAQAAAAAAAAA==

> <PUBCHEM_IUPAC_OPENEYE_NAME>
oxalic acid;7-[4-[4-(2-oxo-3H-benzimidazol-1-yl)-1-piperidyl]butoxy]-3,4-dihydro-1H-quinolin-2-one

> <PUBCHEM_IUPAC_CAS_NAME>
oxalic acid;7-[4-[4-(2-oxo-3H-benzimidazol-1-yl)-1-piperidinyl]butoxy]-3,4-dihydro-1H-quinolin-2-one

> <PUBCHEM_IUPAC_NAME_MARKUP>
oxalic acid;7-[4-[4-(2-oxo-3<I>H</I>-benzimidazol-1-yl)piperidin-1-yl]butoxy]-3,4-dihydro-1<I>H</I>-quinolin-2-one

> <PUBCHEM_IUPAC_NAME>
oxalic acid;7-[4-[4-(2-oxo-3H-benzimidazol-1-yl)piperidin-1-yl]butoxy]-3,4-dihydro-1H-quinolin-2-one

> <PUBCHEM_IUPAC_SYSTEMATIC_NAME>
ethanedioic acid;7-[4-[4-(2-oxidanylidene-3H-benzimidazol-1-yl)piperidin-1-yl]butoxy]-3,4-dihydro-1H-quinolin-2-one

> <PUBCHEM_IUPAC_TRADITIONAL_NAME>
7-[4-[4-(2-keto-3H-benzimidazol-1-yl)piperidino]butoxy]-3,4-dihydrocarbostyril;oxalic acid

> <PUBCHEM_IUPAC_INCHI>
InChI=1S/C25H30N4O3.C2H2O4/c30-24-10-8-18-7-9-20(17-22(18)26-24)32-16-4-3-13-28-14-11-19(12-15-28)29-23-6-2-1-5-21(23)27-25(29)31;3-1(4)2(5)6/h1-2,5-7,9,17,19H,3-4,8,10-16H2,(H,26,30)(H,27,31);(H,3,4)(H,5,6)

> <PUBCHEM_IUPAC_INCHIKEY>
CTSJCHPMCFSUCT-UHFFFAOYSA-N

> <PUBCHEM_EXACT_MASS>
524.22709937

> <PUBCHEM_MOLECULAR_FORMULA>
C27H32N4O7

> <PUBCHEM_MOLECULAR_WEIGHT>
524.6

> <PUBCHEM_OPENEYE_CAN_SMILES>
C1CN(CCC1N2C3=CC=CC=C3NC2=O)CCCCOC4=CC5=C(CCC(=O)N5)C=C4.C(=O)(C(=O)O)O

> <PUBCHEM_OPENEYE_ISO_SMILES>
C1CN(CCC1N2C3=CC=CC=C3NC2=O)CCCCOC4=CC5=C(CCC(=O)N5)C=C4.C(=O)(C(=O)O)O

> <PUBCHEM_CACTVS_TPSA>
149

> <PUBCHEM_MONOISOTOPIC_WEIGHT>
524.22709937

> <PUBCHEM_TOTAL_CHARGE>
0

> <PUBCHEM_HEAVY_ATOM_COUNT>
38

> <PUBCHEM_ATOM_DEF_STEREO_COUNT>
0

> <PUBCHEM_ATOM_UDEF_STEREO_COUNT>
0

> <PUBCHEM_BOND_DEF_STEREO_COUNT>
0

> <PUBCHEM_BOND_UDEF_STEREO_COUNT>
0

> <PUBCHEM_ISOTOPIC_ATOM_COUNT>
0

> <PUBCHEM_COMPONENT_COUNT>
2

> <PUBCHEM_CACTVS_TAUTO_COUNT>
-1

> <PUBCHEM_COORDINATE_TYPE>
1
5
255

> <PUBCHEM_BONDANNOTATIONS>
10  20  8
10  21  8
18  21  8
18  23  8
21  24  8
23  26  8
24  27  8
26  27  8
28  32  8
28  34  8
29  30  8
29  35  8
30  32  8
34  35  8
9  18  8
9  20  8

$$$$
