137657949
  -OEChem-09292322062D

 54 58  0     0  0  0  0  0  0999 V2000
   13.1973   -1.0083    0.0000 S   0  0  0  0  0  0  0  0  0  0  0  0
    4.6660   -1.1754    0.0000 O   0  0  0  0  0  0  0  0  0  0  0  0
    2.9176    2.8592    0.0000 O   0  0  0  0  0  0  0  0  0  0  0  0
    8.1301   -0.1754    0.0000 N   0  0  0  0  0  0  0  0  0  0  0  0
    9.8622   -1.1754    0.0000 N   0  0  0  0  0  0  0  0  0  0  0  0
    3.8000    0.3246    0.0000 N   0  0  0  0  0  0  0  0  0  0  0  0
    4.6660    1.8246    0.0000 N   0  0  0  0  0  0  0  0  0  0  0  0
    8.9962    0.3246    0.0000 C   0  0  0  0  0  0  0  0  0  0  0  0
    8.1301   -1.1754    0.0000 C   0  0  0  0  0  0  0  0  0  0  0  0
    9.8622   -0.1754    0.0000 C   0  0  0  0  0  0  0  0  0  0  0  0
    8.9962   -1.6754    0.0000 C   0  0  0  0  0  0  0  0  0  0  0  0
    7.2641    0.3246    0.0000 C   0  0  0  0  0  0  0  0  0  0  0  0
    6.3981   -0.1754    0.0000 C   0  0  0  0  0  0  0  0  0  0  0  0
   10.7282   -1.6754    0.0000 C   0  0  0  0  0  0  0  0  0  0  0  0
    5.5321    0.3246    0.0000 C   0  0  0  0  0  0  0  0  0  0  0  0
   11.5942   -1.1754    0.0000 C   0  0  0  0  0  0  0  0  0  0  0  0
   10.7282   -2.6754    0.0000 C   0  0  0  0  0  0  0  0  0  0  0  0
   12.4603   -1.6754    0.0000 C   0  0  0  0  0  0  0  0  0  0  0  0
    5.5321    1.3246    0.0000 C   0  0  0  0  0  0  0  0  0  0  0  0
    4.6660   -0.1754    0.0000 C   0  0  0  0  0  0  0  0  0  0  0  0
   11.8034   -0.2036    0.0000 C   0  0  0  0  0  0  0  0  0  0  0  0
   11.5942   -3.1754    0.0000 C   0  0  0  0  0  0  0  0  0  0  0  0
   12.4603   -2.6754    0.0000 C   0  0  0  0  0  0  0  0  0  0  0  0
    3.8000    1.3246    0.0000 C   0  0  0  0  0  0  0  0  0  0  0  0
    6.3981    1.8246    0.0000 C   0  0  0  0  0  0  0  0  0  0  0  0
   12.7922   -0.1005    0.0000 C   0  0  0  0  0  0  0  0  0  0  0  0
    2.9061   -0.2101    0.0000 C   0  0  0  0  0  0  0  0  0  0  0  0
    2.9061    1.8593    0.0000 C   0  0  0  0  0  0  0  0  0  0  0  0
    2.0000    0.3038    0.0000 C   0  0  0  0  0  0  0  0  0  0  0  0
    2.0000    1.3454    0.0000 C   0  0  0  0  0  0  0  0  0  0  0  0
    9.3947    0.7996    0.0000 H   0  0  0  0  0  0  0  0  0  0  0  0
    8.5976    0.7996    0.0000 H   0  0  0  0  0  0  0  0  0  0  0  0
    7.5196   -1.0677    0.0000 H   0  0  0  0  0  0  0  0  0  0  0  0
    7.9181   -1.7580    0.0000 H   0  0  0  0  0  0  0  0  0  0  0  0
   10.4728   -0.2831    0.0000 H   0  0  0  0  0  0  0  0  0  0  0  0
   10.0742    0.4072    0.0000 H   0  0  0  0  0  0  0  0  0  0  0  0
    8.5976   -2.1503    0.0000 H   0  0  0  0  0  0  0  0  0  0  0  0
    9.3947   -2.1503    0.0000 H   0  0  0  0  0  0  0  0  0  0  0  0
    7.6626    0.7996    0.0000 H   0  0  0  0  0  0  0  0  0  0  0  0
    6.8656    0.7996    0.0000 H   0  0  0  0  0  0  0  0  0  0  0  0
    5.9996   -0.6503    0.0000 H   0  0  0  0  0  0  0  0  0  0  0  0
    6.7966   -0.6503    0.0000 H   0  0  0  0  0  0  0  0  0  0  0  0
   10.1913   -2.9854    0.0000 H   0  0  0  0  0  0  0  0  0  0  0  0
   11.3894    0.2579    0.0000 H   0  0  0  0  0  0  0  0  0  0  0  0
   11.5942   -3.7954    0.0000 H   0  0  0  0  0  0  0  0  0  0  0  0
   12.9972   -2.9854    0.0000 H   0  0  0  0  0  0  0  0  0  0  0  0
    6.7081    1.2877    0.0000 H   0  0  0  0  0  0  0  0  0  0  0  0
    6.9350    2.1346    0.0000 H   0  0  0  0  0  0  0  0  0  0  0  0
    6.0881    2.3615    0.0000 H   0  0  0  0  0  0  0  0  0  0  0  0
   13.1022    0.4364    0.0000 H   0  0  0  0  0  0  0  0  0  0  0  0
    2.9132   -0.8300    0.0000 H   0  0  0  0  0  0  0  0  0  0  0  0
    1.4643   -0.0083    0.0000 H   0  0  0  0  0  0  0  0  0  0  0  0
    1.4643    1.6575    0.0000 H   0  0  0  0  0  0  0  0  0  0  0  0
    2.3843    3.1754    0.0000 H   0  0  0  0  0  0  0  0  0  0  0  0
  1 18  1  0  0  0  0
  1 26  1  0  0  0  0
  2 20  2  0  0  0  0
  3 28  1  0  0  0  0
  3 54  1  0  0  0  0
  4  8  1  0  0  0  0
  4  9  1  0  0  0  0
  4 12  1  0  0  0  0
  5 10  1  0  0  0  0
  5 11  1  0  0  0  0
  5 14  1  0  0  0  0
  6 20  1  0  0  0  0
  6 24  1  0  0  0  0
  6 27  1  0  0  0  0
  7 19  1  0  0  0  0
  7 24  2  0  0  0  0
  8 10  1  0  0  0  0
  8 31  1  0  0  0  0
  8 32  1  0  0  0  0
  9 11  1  0  0  0  0
  9 33  1  0  0  0  0
  9 34  1  0  0  0  0
 10 35  1  0  0  0  0
 10 36  1  0  0  0  0
 11 37  1  0  0  0  0
 11 38  1  0  0  0  0
 12 13  1  0  0  0  0
 12 39  1  0  0  0  0
 12 40  1  0  0  0  0
 13 15  1  0  0  0  0
 13 41  1  0  0  0  0
 13 42  1  0  0  0  0
 14 16  2  0  0  0  0
 14 17  1  0  0  0  0
 15 19  2  0  0  0  0
 15 20  1  0  0  0  0
 16 18  1  0  0  0  0
 16 21  1  0  0  0  0
 17 22  2  0  0  0  0
 17 43  1  0  0  0  0
 18 23  2  0  0  0  0
 19 25  1  0  0  0  0
 21 26  2  0  0  0  0
 21 44  1  0  0  0  0
 22 23  1  0  0  0  0
 22 45  1  0  0  0  0
 23 46  1  0  0  0  0
 24 28  1  0  0  0  0
 25 47  1  0  0  0  0
 25 48  1  0  0  0  0
 25 49  1  0  0  0  0
 26 50  1  0  0  0  0
 27 29  2  0  0  0  0
 27 51  1  0  0  0  0
 28 30  2  0  0  0  0
 29 30  1  0  0  0  0
 29 52  1  0  0  0  0
 30 53  1  0  0  0  0
M  END
> <PUBCHEM_COMPOUND_CID>
137657949

> <PUBCHEM_COMPOUND_CANONICALIZED>
1

> <PUBCHEM_CACTVS_COMPLEXITY>
825

> <PUBCHEM_CACTVS_HBOND_ACCEPTOR>
6

> <PUBCHEM_CACTVS_HBOND_DONOR>
1

> <PUBCHEM_CACTVS_ROTATABLE_BOND>
4

> <PUBCHEM_CACTVS_SUBSKEYS>
AAADceB7sABAAAAAAAAAAAAAAAAAASAAAAA8QIEAAAAAAEiB8AAAHgQACAAADAzF2ASzwcMAAgisAid2dASDAIEhKhBJiBkIZNgKYDLgmZGUIAxghgD4yUcUgIAOAAAAACAGAAAAAAAAQAwAAAAAAAAAAA==

> <PUBCHEM_IUPAC_OPENEYE_NAME>
3-[2-[4-(benzothiophen-4-yl)piperazin-1-yl]ethyl]-9-hydroxy-2-methyl-pyrido[1,2-a]pyrimidin-4-one

> <PUBCHEM_IUPAC_CAS_NAME>
3-[2-[4-(1-benzothiophen-4-yl)-1-piperazinyl]ethyl]-9-hydroxy-2-methyl-4-pyrido[1,2-a]pyrimidinone

> <PUBCHEM_IUPAC_NAME_MARKUP>
3-[2-[4-(1-benzothiophen-4-yl)piperazin-1-yl]ethyl]-9-hydroxy-2-methylpyrido[1,2-a]pyrimidin-4-one

> <PUBCHEM_IUPAC_NAME>
3-[2-[4-(1-benzothiophen-4-yl)piperazin-1-yl]ethyl]-9-hydroxy-2-methylpyrido[1,2-a]pyrimidin-4-one

> <PUBCHEM_IUPAC_SYSTEMATIC_NAME>
3-[2-[4-(1-benzothiophen-4-yl)piperazin-1-yl]ethyl]-2-methyl-9-oxidanyl-pyrido[1,2-a]pyrimidin-4-one

> <PUBCHEM_IUPAC_TRADITIONAL_NAME>
3-[2-[4-(benzothiophen-4-yl)piperazino]ethyl]-9-hydroxy-2-methyl-pyrido[1,2-a]pyrimidin-4-one

> <PUBCHEM_IUPAC_INCHI>
InChI=1S/C23H24N4O2S/c1-16-17(23(29)27-9-3-5-20(28)22(27)24-16)7-10-25-11-13-26(14-12-25)19-4-2-6-21-18(19)8-15-30-21/h2-6,8-9,15,28H,7,10-14H2,1H3

> <PUBCHEM_IUPAC_INCHIKEY>
XZIBXVSMGZCFPR-UHFFFAOYSA-N

> <PUBCHEM_XLOGP3_AA>
3.3

> <PUBCHEM_EXACT_MASS>
420.16199719

> <PUBCHEM_MOLECULAR_FORMULA>
C23H24N4O2S

> <PUBCHEM_MOLECULAR_WEIGHT>
420.5

> <PUBCHEM_OPENEYE_CAN_SMILES>
CC1=C(C(=O)N2C=CC=C(C2=N1)O)CCN3CCN(CC3)C4=C5C=CSC5=CC=C4

> <PUBCHEM_OPENEYE_ISO_SMILES>
CC1=C(C(=O)N2C=CC=C(C2=N1)O)CCN3CCN(CC3)C4=C5C=CSC5=CC=C4

> <PUBCHEM_CACTVS_TPSA>
87.6

> <PUBCHEM_MONOISOTOPIC_WEIGHT>
420.16199719

> <PUBCHEM_TOTAL_CHARGE>
0

> <PUBCHEM_HEAVY_ATOM_COUNT>
30

> <PUBCHEM_ATOM_DEF_STEREO_COUNT>
0

> <PUBCHEM_ATOM_UDEF_STEREO_COUNT>
0

> <PUBCHEM_BOND_DEF_STEREO_COUNT>
0

> <PUBCHEM_BOND_UDEF_STEREO_COUNT>
0

> <PUBCHEM_ISOTOPIC_ATOM_COUNT>
0

> <PUBCHEM_COMPONENT_COUNT>
1

> <PUBCHEM_CACTVS_TAUTO_COUNT>
-1

> <PUBCHEM_COORDINATE_TYPE>
1
5
255

> <PUBCHEM_BONDANNOTATIONS>
1  18  8
1  26  8
14  16  8
14  17  8
15  19  8
15  20  8
16  18  8
16  21  8
17  22  8
18  23  8
21  26  8
22  23  8
24  28  8
27  29  8
28  30  8
29  30  8
6  20  8
6  24  8
6  27  8
7  19  8
7  24  8

$$$$
