9995264
  -OEChem-09292322142D

 42 45  0     1  0  0  0  0  0999 V2000
    9.0000   -0.7846    0.0000 O   0  0  0  0  0  0  0  0  0  0  0  0
    8.1340   -2.2846    0.0000 O   0  0  0  0  0  0  0  0  0  0  0  0
    5.4679   -0.8054    0.0000 N   0  0  3  0  0  0  0  0  0  0  0  0
    5.4679    0.2362    0.0000 C   0  0  0  0  0  0  0  0  0  0  0  0
    6.3740    0.7500    0.0000 C   0  0  0  0  0  0  0  0  0  0  0  0
    7.2679    0.2154    0.0000 C   0  0  0  0  0  0  0  0  0  0  0  0
    6.3740   -1.3193    0.0000 C   0  0  0  0  0  0  0  0  0  0  0  0
    7.2679   -0.7846    0.0000 C   0  0  0  0  0  0  0  0  0  0  0  0
    4.6038   -1.3088    0.0000 C   0  0  0  0  0  0  0  0  0  0  0  0
    8.1340    0.7154    0.0000 C   0  0  0  0  0  0  0  0  0  0  0  0
    9.0000    0.2154    0.0000 C   0  0  0  0  0  0  0  0  0  0  0  0
    8.1340   -1.2846    0.0000 C   0  0  0  0  0  0  0  0  0  0  0  0
    3.7359   -0.8121    0.0000 C   0  0  0  0  0  0  0  0  0  0  0  0
    8.1179    1.7569    0.0000 C   0  0  0  0  0  0  0  0  0  0  0  0
    9.9100    0.7222    0.0000 C   0  0  0  0  0  0  0  0  0  0  0  0
    9.9180    1.7638    0.0000 C   0  0  0  0  0  0  0  0  0  0  0  0
    9.0159    2.2846    0.0000 C   0  0  0  0  0  0  0  0  0  0  0  0
    3.7320    0.1879    0.0000 C   0  0  0  0  0  0  0  0  0  0  0  0
    2.8718   -1.3155    0.0000 C   0  0  0  0  0  0  0  0  0  0  0  0
   10.7860    2.2605    0.0000 C   0  0  0  0  0  0  0  0  0  0  0  0
    2.8641    0.6845    0.0000 C   0  0  0  0  0  0  0  0  0  0  0  0
    2.0038   -0.8188    0.0000 C   0  0  0  0  0  0  0  0  0  0  0  0
    2.0000    0.1812    0.0000 C   0  0  0  0  0  0  0  0  0  0  0  0
    5.2589    0.8199    0.0000 H   0  0  0  0  0  0  0  0  0  0  0  0
    4.8571    0.1301    0.0000 H   0  0  0  0  0  0  0  0  0  0  0  0
    6.7786    1.2198    0.0000 H   0  0  0  0  0  0  0  0  0  0  0  0
    5.9804    1.2290    0.0000 H   0  0  0  0  0  0  0  0  0  0  0  0
    5.9804   -1.7983    0.0000 H   0  0  0  0  0  0  0  0  0  0  0  0
    6.7786   -1.7891    0.0000 H   0  0  0  0  0  0  0  0  0  0  0  0
    4.2071   -1.7853    0.0000 H   0  0  0  0  0  0  0  0  0  0  0  0
    5.0042   -1.7822    0.0000 H   0  0  0  0  0  0  0  0  0  0  0  0
    7.5774    2.0606    0.0000 H   0  0  0  0  0  0  0  0  0  0  0  0
   10.4433    0.4060    0.0000 H   0  0  0  0  0  0  0  0  0  0  0  0
    9.0136    2.9046    0.0000 H   0  0  0  0  0  0  0  0  0  0  0  0
    4.2678    0.4999    0.0000 H   0  0  0  0  0  0  0  0  0  0  0  0
    2.8742   -1.9354    0.0000 H   0  0  0  0  0  0  0  0  0  0  0  0
   11.0939    1.7224    0.0000 H   0  0  0  0  0  0  0  0  0  0  0  0
   11.3241    2.5684    0.0000 H   0  0  0  0  0  0  0  0  0  0  0  0
   10.4780    2.7986    0.0000 H   0  0  0  0  0  0  0  0  0  0  0  0
    2.8617    1.3045    0.0000 H   0  0  0  0  0  0  0  0  0  0  0  0
    1.4681   -1.1309    0.0000 H   0  0  0  0  0  0  0  0  0  0  0  0
    1.4619    0.4891    0.0000 H   0  0  0  0  0  0  0  0  0  0  0  0
  1 11  1  0  0  0  0
  1 12  1  0  0  0  0
  2 12  2  0  0  0  0
  3  4  1  0  0  0  0
  3  7  1  0  0  0  0
  3  9  1  0  0  0  0
  4  5  1  0  0  0  0
  4 24  1  0  0  0  0
  4 25  1  0  0  0  0
  5  6  1  0  0  0  0
  5 26  1  0  0  0  0
  5 27  1  0  0  0  0
  6  8  2  0  0  0  0
  6 10  1  0  0  0  0
  7  8  1  0  0  0  0
  7 28  1  0  0  0  0
  7 29  1  0  0  0  0
  8 12  1  0  0  0  0
  9 13  1  0  0  0  0
  9 30  1  0  0  0  0
  9 31  1  0  0  0  0
 10 11  2  0  0  0  0
 10 14  1  0  0  0  0
 11 15  1  0  0  0  0
 13 18  2  0  0  0  0
 13 19  1  0  0  0  0
 14 17  2  0  0  0  0
 14 32  1  0  0  0  0
 15 16  2  0  0  0  0
 15 33  1  0  0  0  0
 16 17  1  0  0  0  0
 16 20  1  0  0  0  0
 17 34  1  0  0  0  0
 18 21  1  0  0  0  0
 18 35  1  0  0  0  0
 19 22  2  0  0  0  0
 19 36  1  0  0  0  0
 20 37  1  0  0  0  0
 20 38  1  0  0  0  0
 20 39  1  0  0  0  0
 21 23  2  0  0  0  0
 21 40  1  0  0  0  0
 22 23  1  0  0  0  0
 22 41  1  0  0  0  0
 23 42  1  0  0  0  0
M  END
> <PUBCHEM_COMPOUND_CID>
9995264

> <PUBCHEM_COMPOUND_CANONICALIZED>
1

> <PUBCHEM_CACTVS_COMPLEXITY>
492

> <PUBCHEM_CACTVS_HBOND_ACCEPTOR>
3

> <PUBCHEM_CACTVS_HBOND_DONOR>
0

> <PUBCHEM_CACTVS_ROTATABLE_BOND>
2

> <PUBCHEM_CACTVS_SUBSKEYS>
AAADceB6MAAAAAAAAAAAAAAAAAAAAAAAAAAwYIEAAAAAAACxQAAAHgAAAAAADATBmAQyDoMABACIAiDSCACCCAAgIAAIiAEODMgMJiqEsRuGOijmwBGIqQeQ0PIOQAABAAAIAACAAAIAABAAAAAAAAAAAA==

> <PUBCHEM_IUPAC_OPENEYE_NAME>
3-benzyl-8-methyl-2,4-dihydro-1H-chromeno[3,4-c]pyridin-5-one

> <PUBCHEM_IUPAC_CAS_NAME>
8-methyl-3-(phenylmethyl)-2,4-dihydro-1H-[1]benzopyrano[3,4-c]pyridin-5-one

> <PUBCHEM_IUPAC_NAME_MARKUP>
3-benzyl-8-methyl-2,4-dihydro-1<I>H</I>-chromeno[3,4-c]pyridin-5-one

> <PUBCHEM_IUPAC_NAME>
3-benzyl-8-methyl-2,4-dihydro-1H-chromeno[3,4-c]pyridin-5-one

> <PUBCHEM_IUPAC_SYSTEMATIC_NAME>
8-methyl-3-(phenylmethyl)-2,4-dihydro-1H-chromeno[3,4-c]pyridin-5-one

> <PUBCHEM_IUPAC_TRADITIONAL_NAME>
3-benzyl-8-methyl-2,4-dihydro-1H-chromeno[3,4-c]pyridin-5-one

> <PUBCHEM_IUPAC_INCHI>
InChI=1S/C20H19NO2/c1-14-7-8-17-16-9-10-21(12-15-5-3-2-4-6-15)13-18(16)20(22)23-19(17)11-14/h2-8,11H,9-10,12-13H2,1H3

> <PUBCHEM_IUPAC_INCHIKEY>
JYTBEUORVGHEBI-UHFFFAOYSA-N

> <PUBCHEM_XLOGP3_AA>
3.2

> <PUBCHEM_EXACT_MASS>
305.141578849

> <PUBCHEM_MOLECULAR_FORMULA>
C20H19NO2

> <PUBCHEM_MOLECULAR_WEIGHT>
305.4

> <PUBCHEM_OPENEYE_CAN_SMILES>
CC1=CC2=C(C=C1)C3=C(CN(CC3)CC4=CC=CC=C4)C(=O)O2

> <PUBCHEM_OPENEYE_ISO_SMILES>
CC1=CC2=C(C=C1)C3=C(CN(CC3)CC4=CC=CC=C4)C(=O)O2

> <PUBCHEM_CACTVS_TPSA>
29.5

> <PUBCHEM_MONOISOTOPIC_WEIGHT>
305.141578849

> <PUBCHEM_TOTAL_CHARGE>
0

> <PUBCHEM_HEAVY_ATOM_COUNT>
23

> <PUBCHEM_ATOM_DEF_STEREO_COUNT>
0

> <PUBCHEM_ATOM_UDEF_STEREO_COUNT>
0

> <PUBCHEM_BOND_DEF_STEREO_COUNT>
0

> <PUBCHEM_BOND_UDEF_STEREO_COUNT>
0

> <PUBCHEM_ISOTOPIC_ATOM_COUNT>
0

> <PUBCHEM_COMPONENT_COUNT>
1

> <PUBCHEM_CACTVS_TAUTO_COUNT>
-1

> <PUBCHEM_COORDINATE_TYPE>
1
5
255

> <PUBCHEM_BONDANNOTATIONS>
1  11  8
1  12  8
10  11  8
10  14  8
11  15  8
13  18  8
13  19  8
14  17  8
15  16  8
16  17  8
18  21  8
19  22  8
21  23  8
22  23  8
6  10  8
6  8  8
8  12  8

$$$$
