145990459
  -OEChem-09292322392D

 67 71  0     1  0  0  0  0  0999 V2000
    3.2601   -6.5367    0.0000 F   0  0  0  0  0  0  0  0  0  0  0  0
    5.4921    0.0021    0.0000 O   0  0  0  0  0  0  0  0  0  0  0  0
    2.0000   -1.2767    0.0000 O   0  0  0  0  0  0  0  0  0  0  0  0
    5.5202   -1.2767    0.0000 O   0  0  0  0  0  0  0  0  0  0  0  0
    5.4921    2.0021    0.0000 N   0  0  0  0  0  0  0  0  0  0  0  0
    7.2242    3.0021    0.0000 N   0  0  0  0  0  0  0  0  0  0  0  0
    3.7601   -0.9979    0.0000 N   0  0  0  0  0  0  0  0  0  0  0  0
    4.2601   -2.5368    0.0000 N   0  0  0  0  0  0  0  0  0  0  0  0
    6.3582    1.5021    0.0000 C   0  0  0  0  0  0  0  0  0  0  0  0
    5.4921    3.0021    0.0000 C   0  0  0  0  0  0  0  0  0  0  0  0
    4.6261    1.5021    0.0000 C   0  0  0  0  0  0  0  0  0  0  0  0
    7.2242    2.0021    0.0000 C   0  0  0  0  0  0  0  0  0  0  0  0
    6.3582    3.5021    0.0000 C   0  0  0  0  0  0  0  0  0  0  0  0
    4.6261    0.5021    0.0000 C   0  0  3  0  0  0  0  0  0  0  0  0
    3.7601    0.0021    0.0000 C   0  0  0  0  0  0  0  0  0  0  0  0
    3.2601   -2.5368    0.0000 C   0  0  3  0  0  0  0  0  0  0  0  0
    8.0902    3.5021    0.0000 C   0  0  0  0  0  0  0  0  0  0  0  0
    2.9511   -1.5857    0.0000 C   0  0  0  0  0  0  0  0  0  0  0  0
    4.5691   -1.5857    0.0000 C   0  0  0  0  0  0  0  0  0  0  0  0
    3.2601   -3.5368    0.0000 C   0  0  0  0  0  0  0  0  0  0  0  0
    8.0902    4.5021    0.0000 C   0  0  0  0  0  0  0  0  0  0  0  0
    2.3090   -2.8458    0.0000 C   0  0  0  0  0  0  0  0  0  0  0  0
    8.9562    5.0021    0.0000 C   0  0  0  0  0  0  0  0  0  0  0  0
    7.2242    5.0021    0.0000 C   0  0  0  0  0  0  0  0  0  0  0  0
    4.1261   -4.0367    0.0000 C   0  0  0  0  0  0  0  0  0  0  0  0
    2.3940   -4.0367    0.0000 C   0  0  0  0  0  0  0  0  0  0  0  0
    8.9562    6.0021    0.0000 C   0  0  0  0  0  0  0  0  0  0  0  0
    7.2242    6.0021    0.0000 C   0  0  0  0  0  0  0  0  0  0  0  0
    9.8502    4.4674    0.0000 C   0  0  0  0  0  0  0  0  0  0  0  0
    8.0902    6.5021    0.0000 C   0  0  0  0  0  0  0  0  0  0  0  0
    4.1261   -5.0367    0.0000 C   0  0  0  0  0  0  0  0  0  0  0  0
    2.3940   -5.0367    0.0000 C   0  0  0  0  0  0  0  0  0  0  0  0
    3.2601   -5.5367    0.0000 C   0  0  0  0  0  0  0  0  0  0  0  0
    9.8502    6.5367    0.0000 C   0  0  0  0  0  0  0  0  0  0  0  0
   10.7562    4.9813    0.0000 C   0  0  0  0  0  0  0  0  0  0  0  0
   10.7562    6.0229    0.0000 C   0  0  0  0  0  0  0  0  0  0  0  0
    5.9596    1.0271    0.0000 H   0  0  0  0  0  0  0  0  0  0  0  0
    6.7567    1.0271    0.0000 H   0  0  0  0  0  0  0  0  0  0  0  0
    5.2801    3.5847    0.0000 H   0  0  0  0  0  0  0  0  0  0  0  0
    4.8815    2.8944    0.0000 H   0  0  0  0  0  0  0  0  0  0  0  0
    4.4140    2.0847    0.0000 H   0  0  0  0  0  0  0  0  0  0  0  0
    4.0155    1.3944    0.0000 H   0  0  0  0  0  0  0  0  0  0  0  0
    7.4362    1.4195    0.0000 H   0  0  0  0  0  0  0  0  0  0  0  0
    7.8348    2.1098    0.0000 H   0  0  0  0  0  0  0  0  0  0  0  0
    6.7567    3.9770    0.0000 H   0  0  0  0  0  0  0  0  0  0  0  0
    5.9596    3.9770    0.0000 H   0  0  0  0  0  0  0  0  0  0  0  0
    5.1630    0.8121    0.0000 H   0  0  0  0  0  0  0  0  0  0  0  0
    3.5480    0.5847    0.0000 H   0  0  0  0  0  0  0  0  0  0  0  0
    3.1495   -0.1056    0.0000 H   0  0  0  0  0  0  0  0  0  0  0  0
    8.3023    2.9195    0.0000 H   0  0  0  0  0  0  0  0  0  0  0  0
    8.7008    3.6098    0.0000 H   0  0  0  0  0  0  0  0  0  0  0  0
    4.6245   -3.0383    0.0000 H   0  0  0  0  0  0  0  0  0  0  0  0
    2.1174   -2.2561    0.0000 H   0  0  0  0  0  0  0  0  0  0  0  0
    1.7194   -3.0374    0.0000 H   0  0  0  0  0  0  0  0  0  0  0  0
    2.5006   -3.4354    0.0000 H   0  0  0  0  0  0  0  0  0  0  0  0
    5.4921   -0.6179    0.0000 H   0  0  0  0  0  0  0  0  0  0  0  0
    6.6872    4.6921    0.0000 H   0  0  0  0  0  0  0  0  0  0  0  0
    4.6630   -3.7268    0.0000 H   0  0  0  0  0  0  0  0  0  0  0  0
    1.8571   -3.7268    0.0000 H   0  0  0  0  0  0  0  0  0  0  0  0
    6.6872    6.3121    0.0000 H   0  0  0  0  0  0  0  0  0  0  0  0
    9.8430    3.8475    0.0000 H   0  0  0  0  0  0  0  0  0  0  0  0
    8.0902    7.1221    0.0000 H   0  0  0  0  0  0  0  0  0  0  0  0
    4.6630   -5.3468    0.0000 H   0  0  0  0  0  0  0  0  0  0  0  0
    1.8571   -5.3468    0.0000 H   0  0  0  0  0  0  0  0  0  0  0  0
    9.8430    7.1567    0.0000 H   0  0  0  0  0  0  0  0  0  0  0  0
   11.2920    4.6692    0.0000 H   0  0  0  0  0  0  0  0  0  0  0  0
   11.2920    6.3350    0.0000 H   0  0  0  0  0  0  0  0  0  0  0  0
  1 33  1  0  0  0  0
  2 14  1  0  0  0  0
  2 56  1  0  0  0  0
  3 18  2  0  0  0  0
  4 19  2  0  0  0  0
  5  9  1  0  0  0  0
  5 10  1  0  0  0  0
  5 11  1  0  0  0  0
  6 12  1  0  0  0  0
  6 13  1  0  0  0  0
  6 17  1  0  0  0  0
  7 15  1  0  0  0  0
  7 18  1  0  0  0  0
  7 19  1  0  0  0  0
  8 16  1  0  0  0  0
  8 19  1  0  0  0  0
  8 52  1  0  0  0  0
  9 12  1  0  0  0  0
  9 37  1  0  0  0  0
  9 38  1  0  0  0  0
 10 13  1  0  0  0  0
 10 39  1  0  0  0  0
 10 40  1  0  0  0  0
 11 14  1  0  0  0  0
 11 41  1  0  0  0  0
 11 42  1  0  0  0  0
 12 43  1  0  0  0  0
 12 44  1  0  0  0  0
 13 45  1  0  0  0  0
 13 46  1  0  0  0  0
 14 15  1  0  0  0  0
 14 47  1  0  0  0  0
 15 48  1  0  0  0  0
 15 49  1  0  0  0  0
 16 18  1  0  0  0  0
 16 20  1  0  0  0  0
 16 22  1  0  0  0  0
 17 21  1  0  0  0  0
 17 50  1  0  0  0  0
 17 51  1  0  0  0  0
 20 25  2  0  0  0  0
 20 26  1  0  0  0  0
 21 23  1  0  0  0  0
 21 24  2  0  0  0  0
 22 53  1  0  0  0  0
 22 54  1  0  0  0  0
 22 55  1  0  0  0  0
 23 27  1  0  0  0  0
 23 29  2  0  0  0  0
 24 28  1  0  0  0  0
 24 57  1  0  0  0  0
 25 31  1  0  0  0  0
 25 58  1  0  0  0  0
 26 32  2  0  0  0  0
 26 59  1  0  0  0  0
 27 30  1  0  0  0  0
 27 34  2  0  0  0  0
 28 30  2  0  0  0  0
 28 60  1  0  0  0  0
 29 35  1  0  0  0  0
 29 61  1  0  0  0  0
 30 62  1  0  0  0  0
 31 33  2  0  0  0  0
 31 63  1  0  0  0  0
 32 33  1  0  0  0  0
 32 64  1  0  0  0  0
 34 36  1  0  0  0  0
 34 65  1  0  0  0  0
 35 36  2  0  0  0  0
 35 66  1  0  0  0  0
 36 67  1  0  0  0  0
M  END
> <PUBCHEM_COMPOUND_CID>
145990459

> <PUBCHEM_COMPOUND_CANONICALIZED>
1

> <PUBCHEM_CACTVS_COMPLEXITY>
783

> <PUBCHEM_CACTVS_HBOND_ACCEPTOR>
6

> <PUBCHEM_CACTVS_HBOND_DONOR>
2

> <PUBCHEM_CACTVS_ROTATABLE_BOND>
7

> <PUBCHEM_CACTVS_SUBSKEYS>
AAADceB7sQAAAAAAAAAAAAAAAAAAAWAAAAA8YMEAAAAAAADBVAAAHwAQCAAADJzhmA4zAMPAAgCIAiFSEACCAAAgAAAIiAGIBIiKcDKA1TGUIAholyKYiAcYiMCOgAACAAAQAAAAAAQAACAAAAAAAAAAAA==

> <PUBCHEM_IUPAC_OPENEYE_NAME>
5-(4-fluorophenyl)-3-[2-hydroxy-3-[4-(1-naphthylmethyl)piperazin-1-yl]propyl]-5-methyl-imidazolidine-2,4-dione

> <PUBCHEM_IUPAC_CAS_NAME>
5-(4-fluorophenyl)-3-[2-hydroxy-3-[4-(1-naphthalenylmethyl)-1-piperazinyl]propyl]-5-methylimidazolidine-2,4-dione

> <PUBCHEM_IUPAC_NAME_MARKUP>
5-(4-fluorophenyl)-3-[2-hydroxy-3-[4-(naphthalen-1-ylmethyl)piperazin-1-yl]propyl]-5-methylimidazolidine-2,4-dione

> <PUBCHEM_IUPAC_NAME>
5-(4-fluorophenyl)-3-[2-hydroxy-3-[4-(naphthalen-1-ylmethyl)piperazin-1-yl]propyl]-5-methylimidazolidine-2,4-dione

> <PUBCHEM_IUPAC_SYSTEMATIC_NAME>
5-(4-fluorophenyl)-5-methyl-3-[3-[4-(naphthalen-1-ylmethyl)piperazin-1-yl]-2-oxidanyl-propyl]imidazolidine-2,4-dione

> <PUBCHEM_IUPAC_TRADITIONAL_NAME>
5-(4-fluorophenyl)-3-[2-hydroxy-3-[4-(1-naphthylmethyl)piperazino]propyl]-5-methyl-hydantoin

> <PUBCHEM_IUPAC_INCHI>
InChI=1S/C28H31FN4O3/c1-28(22-9-11-23(29)12-10-22)26(35)33(27(36)30-28)19-24(34)18-32-15-13-31(14-16-32)17-21-7-4-6-20-5-2-3-8-25(20)21/h2-12,24,34H,13-19H2,1H3,(H,30,36)

> <PUBCHEM_IUPAC_INCHIKEY>
IJXPOPOFXJXXMC-UHFFFAOYSA-N

> <PUBCHEM_XLOGP3_AA>
3.1

> <PUBCHEM_EXACT_MASS>
490.23801903

> <PUBCHEM_MOLECULAR_FORMULA>
C28H31FN4O3

> <PUBCHEM_MOLECULAR_WEIGHT>
490.6

> <PUBCHEM_OPENEYE_CAN_SMILES>
CC1(C(=O)N(C(=O)N1)CC(CN2CCN(CC2)CC3=CC=CC4=CC=CC=C43)O)C5=CC=C(C=C5)F

> <PUBCHEM_OPENEYE_ISO_SMILES>
CC1(C(=O)N(C(=O)N1)CC(CN2CCN(CC2)CC3=CC=CC4=CC=CC=C43)O)C5=CC=C(C=C5)F

> <PUBCHEM_CACTVS_TPSA>
76.1

> <PUBCHEM_MONOISOTOPIC_WEIGHT>
490.23801903

> <PUBCHEM_TOTAL_CHARGE>
0

> <PUBCHEM_HEAVY_ATOM_COUNT>
36

> <PUBCHEM_ATOM_DEF_STEREO_COUNT>
0

> <PUBCHEM_ATOM_UDEF_STEREO_COUNT>
2

> <PUBCHEM_BOND_DEF_STEREO_COUNT>
0

> <PUBCHEM_BOND_UDEF_STEREO_COUNT>
0

> <PUBCHEM_ISOTOPIC_ATOM_COUNT>
0

> <PUBCHEM_COMPONENT_COUNT>
1

> <PUBCHEM_CACTVS_TAUTO_COUNT>
-1

> <PUBCHEM_COORDINATE_TYPE>
1
5
255

> <PUBCHEM_BONDANNOTATIONS>
16  22  3
14  2  3
20  25  8
20  26  8
21  23  8
21  24  8
23  27  8
23  29  8
24  28  8
25  31  8
26  32  8
27  30  8
27  34  8
28  30  8
29  35  8
31  33  8
32  33  8
34  36  8
35  36  8

$$$$
