127047182
  -OEChem-09292322002D

 64 66  0     0  0  0  0  0  0999 V2000
   13.5452    5.8858    0.0000 Cl  0  0  0  0  0  0  0  0  0  0  0  0
    8.3312    8.6200    0.0000 O   0  0  0  0  0  0  0  0  0  0  0  0
    6.5991    8.6200    0.0000 O   0  0  0  0  0  0  0  0  0  0  0  0
    4.8671    3.6200    0.0000 N   0  0  0  0  0  0  0  0  0  0  0  0
    3.1350    2.6200    0.0000 N   0  0  0  0  0  0  0  0  0  0  0  0
    7.4651    7.1200    0.0000 N   0  0  0  0  0  0  0  0  0  0  0  0
    4.0010    4.1200    0.0000 C   0  0  0  0  0  0  0  0  0  0  0  0
    4.8671    2.6200    0.0000 C   0  0  0  0  0  0  0  0  0  0  0  0
    3.1350    3.6200    0.0000 C   0  0  0  0  0  0  0  0  0  0  0  0
    4.0010    2.1200    0.0000 C   0  0  0  0  0  0  0  0  0  0  0  0
    5.7331    4.1200    0.0000 C   0  0  0  0  0  0  0  0  0  0  0  0
    5.7331    5.1200    0.0000 C   0  0  0  0  0  0  0  0  0  0  0  0
    2.2690    2.1200    0.0000 C   0  0  0  0  0  0  0  0  0  0  0  0
    6.5991    5.6200    0.0000 C   0  0  0  0  0  0  0  0  0  0  0  0
    1.4030    2.6200    0.0000 C   0  0  0  0  0  0  0  0  0  0  0  0
    6.5991    6.6200    0.0000 C   0  0  0  0  0  0  0  0  0  0  0  0
    2.2690    1.1200    0.0000 C   0  0  0  0  0  0  0  0  0  0  0  0
    0.5369    2.1200    0.0000 C   0  0  0  0  0  0  0  0  0  0  0  0
    1.4030    3.6200    0.0000 C   0  0  0  0  0  0  0  0  0  0  0  0
    1.4030    0.6200    0.0000 C   0  0  0  0  0  0  0  0  0  0  0  0
    0.5369    1.1200    0.0000 C   0  0  0  0  0  0  0  0  0  0  0  0
    7.4651    8.1200    0.0000 C   0  0  0  0  0  0  0  0  0  0  0  0
    8.3312    9.6200    0.0000 C   0  0  0  0  0  0  0  0  0  0  0  0
    9.1972   10.1200    0.0000 C   0  0  0  0  0  0  0  0  0  0  0  0
    9.1972   11.1200    0.0000 C   0  0  0  0  0  0  0  0  0  0  0  0
    7.4651   10.1200    0.0000 C   0  0  0  0  0  0  0  0  0  0  0  0
   10.0911    9.5853    0.0000 C   0  0  0  0  0  0  0  0  0  0  0  0
    8.3312   11.6200    0.0000 C   0  0  0  0  0  0  0  0  0  0  0  0
    7.4651   11.1200    0.0000 C   0  0  0  0  0  0  0  0  0  0  0  0
   10.0911   11.6547    0.0000 C   0  0  0  0  0  0  0  0  0  0  0  0
   10.9972   10.0992    0.0000 C   0  0  0  0  0  0  0  0  0  0  0  0
   10.9972   11.1408    0.0000 C   0  0  0  0  0  0  0  0  0  0  0  0
    4.3996    4.5950    0.0000 H   0  0  0  0  0  0  0  0  0  0  0  0
    3.6025    4.5950    0.0000 H   0  0  0  0  0  0  0  0  0  0  0  0
    5.0791    2.0374    0.0000 H   0  0  0  0  0  0  0  0  0  0  0  0
    5.4776    2.7277    0.0000 H   0  0  0  0  0  0  0  0  0  0  0  0
    2.9230    4.2026    0.0000 H   0  0  0  0  0  0  0  0  0  0  0  0
    2.5244    3.5123    0.0000 H   0  0  0  0  0  0  0  0  0  0  0  0
    3.6025    1.6450    0.0000 H   0  0  0  0  0  0  0  0  0  0  0  0
    4.3996    1.6450    0.0000 H   0  0  0  0  0  0  0  0  0  0  0  0
    5.9451    3.5374    0.0000 H   0  0  0  0  0  0  0  0  0  0  0  0
    6.3437    4.2277    0.0000 H   0  0  0  0  0  0  0  0  0  0  0  0
    5.5210    5.7026    0.0000 H   0  0  0  0  0  0  0  0  0  0  0  0
    5.1225    5.0123    0.0000 H   0  0  0  0  0  0  0  0  0  0  0  0
    6.8112    5.0374    0.0000 H   0  0  0  0  0  0  0  0  0  0  0  0
    7.2097    5.7277    0.0000 H   0  0  0  0  0  0  0  0  0  0  0  0
    6.3871    7.2026    0.0000 H   0  0  0  0  0  0  0  0  0  0  0  0
    5.9885    6.5123    0.0000 H   0  0  0  0  0  0  0  0  0  0  0  0
    2.8059    0.8100    0.0000 H   0  0  0  0  0  0  0  0  0  0  0  0
    0.0000    2.4300    0.0000 H   0  0  0  0  0  0  0  0  0  0  0  0
    2.0230    3.6200    0.0000 H   0  0  0  0  0  0  0  0  0  0  0  0
    1.4030    4.2400    0.0000 H   0  0  0  0  0  0  0  0  0  0  0  0
    0.7830    3.6200    0.0000 H   0  0  0  0  0  0  0  0  0  0  0  0
    1.4030    0.0000    0.0000 H   0  0  0  0  0  0  0  0  0  0  0  0
    0.0000    0.8100    0.0000 H   0  0  0  0  0  0  0  0  0  0  0  0
    8.0021    6.8100    0.0000 H   0  0  0  0  0  0  0  0  0  0  0  0
    6.9282    9.8100    0.0000 H   0  0  0  0  0  0  0  0  0  0  0  0
   10.0840    8.9654    0.0000 H   0  0  0  0  0  0  0  0  0  0  0  0
    8.3312   12.2400    0.0000 H   0  0  0  0  0  0  0  0  0  0  0  0
    6.9282   11.4300    0.0000 H   0  0  0  0  0  0  0  0  0  0  0  0
   10.0840   12.2746    0.0000 H   0  0  0  0  0  0  0  0  0  0  0  0
   11.5329    9.7871    0.0000 H   0  0  0  0  0  0  0  0  0  0  0  0
   11.5329   11.4529    0.0000 H   0  0  0  0  0  0  0  0  0  0  0  0
   14.5452    5.8858    0.0000 H   0  0  0  0  0  0  0  0  0  0  0  0
  1 64  1  0  0  0  0
  2 22  1  0  0  0  0
  2 23  1  0  0  0  0
  3 22  2  0  0  0  0
  4  7  1  0  0  0  0
  4  8  1  0  0  0  0
  4 11  1  0  0  0  0
  5  9  1  0  0  0  0
  5 10  1  0  0  0  0
  5 13  1  0  0  0  0
  6 16  1  0  0  0  0
  6 22  1  0  0  0  0
  6 56  1  0  0  0  0
  7  9  1  0  0  0  0
  7 33  1  0  0  0  0
  7 34  1  0  0  0  0
  8 10  1  0  0  0  0
  8 35  1  0  0  0  0
  8 36  1  0  0  0  0
  9 37  1  0  0  0  0
  9 38  1  0  0  0  0
 10 39  1  0  0  0  0
 10 40  1  0  0  0  0
 11 12  1  0  0  0  0
 11 41  1  0  0  0  0
 11 42  1  0  0  0  0
 12 14  1  0  0  0  0
 12 43  1  0  0  0  0
 12 44  1  0  0  0  0
 13 15  1  0  0  0  0
 13 17  2  0  0  0  0
 14 16  1  0  0  0  0
 14 45  1  0  0  0  0
 14 46  1  0  0  0  0
 15 18  2  0  0  0  0
 15 19  1  0  0  0  0
 16 47  1  0  0  0  0
 16 48  1  0  0  0  0
 17 20  1  0  0  0  0
 17 49  1  0  0  0  0
 18 21  1  0  0  0  0
 18 50  1  0  0  0  0
 19 51  1  0  0  0  0
 19 52  1  0  0  0  0
 19 53  1  0  0  0  0
 20 21  2  0  0  0  0
 20 54  1  0  0  0  0
 21 55  1  0  0  0  0
 23 24  1  0  0  0  0
 23 26  2  0  0  0  0
 24 25  1  0  0  0  0
 24 27  2  0  0  0  0
 25 28  1  0  0  0  0
 25 30  2  0  0  0  0
 26 29  1  0  0  0  0
 26 57  1  0  0  0  0
 27 31  1  0  0  0  0
 27 58  1  0  0  0  0
 28 29  2  0  0  0  0
 28 59  1  0  0  0  0
 29 60  1  0  0  0  0
 30 32  1  0  0  0  0
 30 61  1  0  0  0  0
 31 32  2  0  0  0  0
 31 62  1  0  0  0  0
 32 63  1  0  0  0  0
M  END
> <PUBCHEM_COMPOUND_CID>
127047182

> <PUBCHEM_COMPOUND_CANONICALIZED>
1

> <PUBCHEM_CACTVS_COMPLEXITY>
549

> <PUBCHEM_CACTVS_HBOND_ACCEPTOR>
4

> <PUBCHEM_CACTVS_HBOND_DONOR>
2

> <PUBCHEM_CACTVS_ROTATABLE_BOND>
8

> <PUBCHEM_CACTVS_SUBSKEYS>
AAADcfB7MAAEAAAAAAAAAAAAAAAAAAAAAAA8YMEAAAAAAADBVAAAHgAQAAAADAzBmAQyzsPABACIAiRCWACCCAAhIgAIiIAObIkMZiLEsZucMihk1hHI6AeQwLAOgAABAAAaAAAAAAIAADQAAAAAAAAAAA==

> <PUBCHEM_IUPAC_OPENEYE_NAME>
1-naphthyl N-[4-[4-(o-tolyl)piperazin-1-yl]butyl]carbamate;hydrochloride

> <PUBCHEM_IUPAC_CAS_NAME>
N-[4-[4-(2-methylphenyl)-1-piperazinyl]butyl]carbamic acid 1-naphthalenyl ester;hydrochloride

> <PUBCHEM_IUPAC_NAME_MARKUP>
naphthalen-1-yl <I>N</I>-[4-[4-(2-methylphenyl)piperazin-1-yl]butyl]carbamate;hydrochloride

> <PUBCHEM_IUPAC_NAME>
naphthalen-1-yl N-[4-[4-(2-methylphenyl)piperazin-1-yl]butyl]carbamate;hydrochloride

> <PUBCHEM_IUPAC_SYSTEMATIC_NAME>
naphthalen-1-yl N-[4-[4-(2-methylphenyl)piperazin-1-yl]butyl]carbamate;hydrochloride

> <PUBCHEM_IUPAC_TRADITIONAL_NAME>
N-[4-[4-(o-tolyl)piperazino]butyl]carbamic acid 1-naphthyl ester;hydrochloride

> <PUBCHEM_IUPAC_INCHI>
InChI=1S/C26H31N3O2.ClH/c1-21-9-2-5-13-24(21)29-19-17-28(18-20-29)16-7-6-15-27-26(30)31-25-14-8-11-22-10-3-4-12-23(22)25;/h2-5,8-14H,6-7,15-20H2,1H3,(H,27,30);1H

> <PUBCHEM_IUPAC_INCHIKEY>
RNBFGBOJPIEKSK-UHFFFAOYSA-N

> <PUBCHEM_EXACT_MASS>
453.2183050

> <PUBCHEM_MOLECULAR_FORMULA>
C26H32ClN3O2

> <PUBCHEM_MOLECULAR_WEIGHT>
454.0

> <PUBCHEM_OPENEYE_CAN_SMILES>
CC1=CC=CC=C1N2CCN(CC2)CCCCNC(=O)OC3=CC=CC4=CC=CC=C43.Cl

> <PUBCHEM_OPENEYE_ISO_SMILES>
CC1=CC=CC=C1N2CCN(CC2)CCCCNC(=O)OC3=CC=CC4=CC=CC=C43.Cl

> <PUBCHEM_CACTVS_TPSA>
44.8

> <PUBCHEM_MONOISOTOPIC_WEIGHT>
453.2183050

> <PUBCHEM_TOTAL_CHARGE>
0

> <PUBCHEM_HEAVY_ATOM_COUNT>
32

> <PUBCHEM_ATOM_DEF_STEREO_COUNT>
0

> <PUBCHEM_ATOM_UDEF_STEREO_COUNT>
0

> <PUBCHEM_BOND_DEF_STEREO_COUNT>
0

> <PUBCHEM_BOND_UDEF_STEREO_COUNT>
0

> <PUBCHEM_ISOTOPIC_ATOM_COUNT>
0

> <PUBCHEM_COMPONENT_COUNT>
2

> <PUBCHEM_CACTVS_TAUTO_COUNT>
-1

> <PUBCHEM_COORDINATE_TYPE>
1
5
255

> <PUBCHEM_BONDANNOTATIONS>
13  15  8
13  17  8
15  18  8
17  20  8
18  21  8
20  21  8
23  24  8
23  26  8
24  25  8
24  27  8
25  28  8
25  30  8
26  29  8
27  31  8
28  29  8
30  32  8
31  32  8

$$$$
