164615496
  -OEChem-09292322432D

 57 60  0     1  0  0  0  0  0999 V2000
    5.4176    3.2805    0.0000 O   0  0  0  0  0  0  0  0  0  0  0  0
    8.0436    1.7458    0.0000 O   0  0  0  0  0  0  0  0  0  0  0  0
    8.0557    5.8151    0.0000 O   0  0  0  0  0  0  0  0  0  0  0  0
    2.0000   -2.8286    0.0000 O   0  0  0  0  0  0  0  0  0  0  0  0
    5.4176    1.2112    0.0000 N   0  0  3  0  0  0  0  0  0  0  0  0
    3.7319   -2.8086    0.0000 N   0  0  0  0  0  0  0  0  0  0  0  0
    6.3116    1.7458    0.0000 C   0  0  1  0  0  0  0  0  0  0  0  0
    6.3116    2.7458    0.0000 C   0  0  1  0  0  0  0  0  0  0  0  0
    4.5116    1.7250    0.0000 C   0  0  0  0  0  0  0  0  0  0  0  0
    7.1776    1.2458    0.0000 C   0  0  0  0  0  0  0  0  0  0  0  0
    5.4292    0.2112    0.0000 C   0  0  0  0  0  0  0  0  0  0  0  0
    7.1776    3.2458    0.0000 C   0  0  0  0  0  0  0  0  0  0  0  0
    4.5116    2.7666    0.0000 C   0  0  0  0  0  0  0  0  0  0  0  0
    4.5690   -0.2988    0.0000 C   0  0  0  0  0  0  0  0  0  0  0  0
    8.0436    2.7458    0.0000 C   0  0  0  0  0  0  0  0  0  0  0  0
    7.1615    4.2873    0.0000 C   0  0  0  0  0  0  0  0  0  0  0  0
    4.5806   -1.2987    0.0000 C   0  0  0  0  0  0  0  0  0  0  0  0
    8.9536    3.2526    0.0000 C   0  0  0  0  0  0  0  0  0  0  0  0
    8.0596    4.8151    0.0000 C   0  0  0  0  0  0  0  0  0  0  0  0
    3.7204   -1.8087    0.0000 C   0  0  0  0  0  0  0  0  0  0  0  0
    8.9616    4.2942    0.0000 C   0  0  0  0  0  0  0  0  0  0  0  0
    2.8718   -3.3186    0.0000 C   0  0  0  0  0  0  0  0  0  0  0  0
    8.9198    6.3184    0.0000 C   0  0  0  0  0  0  0  0  0  0  0  0
    2.8833   -4.3185    0.0000 C   0  0  0  0  0  0  0  0  0  0  0  0
    3.7551   -4.8085    0.0000 C   0  0  0  0  0  0  0  0  0  0  0  0
    2.0231   -4.8285    0.0000 C   0  0  0  0  0  0  0  0  0  0  0  0
    3.7666   -5.8084    0.0000 C   0  0  0  0  0  0  0  0  0  0  0  0
    2.0347   -5.8284    0.0000 C   0  0  0  0  0  0  0  0  0  0  0  0
    2.9064   -6.3184    0.0000 C   0  0  0  0  0  0  0  0  0  0  0  0
    6.3181    0.8958    0.0000 H   0  0  0  0  0  0  0  0  0  0  0  0
    6.3181    3.5958    0.0000 H   0  0  0  0  0  0  0  0  0  0  0  0
    3.9007    1.8311    0.0000 H   0  0  0  0  0  0  0  0  0  0  0  0
    4.3025    1.1413    0.0000 H   0  0  0  0  0  0  0  0  0  0  0  0
    6.7791    0.7709    0.0000 H   0  0  0  0  0  0  0  0  0  0  0  0
    7.5761    0.7709    0.0000 H   0  0  0  0  0  0  0  0  0  0  0  0
    5.6480   -0.3689    0.0000 H   0  0  0  0  0  0  0  0  0  0  0  0
    6.0385    0.3259    0.0000 H   0  0  0  0  0  0  0  0  0  0  0  0
    4.3025    3.3503    0.0000 H   0  0  0  0  0  0  0  0  0  0  0  0
    3.9007    2.6605    0.0000 H   0  0  0  0  0  0  0  0  0  0  0  0
    4.3502    0.2814    0.0000 H   0  0  0  0  0  0  0  0  0  0  0  0
    3.9597   -0.4135    0.0000 H   0  0  0  0  0  0  0  0  0  0  0  0
    6.6210    4.5911    0.0000 H   0  0  0  0  0  0  0  0  0  0  0  0
    4.7993   -1.8788    0.0000 H   0  0  0  0  0  0  0  0  0  0  0  0
    5.1898   -1.1840    0.0000 H   0  0  0  0  0  0  0  0  0  0  0  0
    9.4869    2.9365    0.0000 H   0  0  0  0  0  0  0  0  0  0  0  0
    3.5016   -1.2286    0.0000 H   0  0  0  0  0  0  0  0  0  0  0  0
    3.1111   -1.9234    0.0000 H   0  0  0  0  0  0  0  0  0  0  0  0
    9.4998    4.6022    0.0000 H   0  0  0  0  0  0  0  0  0  0  0  0
    4.2724   -3.1124    0.0000 H   0  0  0  0  0  0  0  0  0  0  0  0
    9.2319    5.7827    0.0000 H   0  0  0  0  0  0  0  0  0  0  0  0
    9.4555    6.6305    0.0000 H   0  0  0  0  0  0  0  0  0  0  0  0
    8.6077    6.8541    0.0000 H   0  0  0  0  0  0  0  0  0  0  0  0
    4.2884   -4.4923    0.0000 H   0  0  0  0  0  0  0  0  0  0  0  0
    1.4826   -4.5247    0.0000 H   0  0  0  0  0  0  0  0  0  0  0  0
    4.3071   -6.1122    0.0000 H   0  0  0  0  0  0  0  0  0  0  0  0
    1.5014   -6.1446    0.0000 H   0  0  0  0  0  0  0  0  0  0  0  0
    2.9136   -6.9384    0.0000 H   0  0  0  0  0  0  0  0  0  0  0  0
  1  8  1  0  0  0  0
  1 13  1  0  0  0  0
  2 10  1  0  0  0  0
  2 15  1  0  0  0  0
  3 19  1  0  0  0  0
  3 23  1  0  0  0  0
  4 22  2  0  0  0  0
  5  7  1  0  0  0  0
  5  9  1  0  0  0  0
  5 11  1  0  0  0  0
  6 20  1  0  0  0  0
  6 22  1  0  0  0  0
  6 49  1  0  0  0  0
  7  8  1  0  0  0  0
  7 10  1  0  0  0  0
  7 30  1  6  0  0  0
  8 12  1  0  0  0  0
  8 31  1  1  0  0  0
  9 13  1  0  0  0  0
  9 32  1  0  0  0  0
  9 33  1  0  0  0  0
 10 34  1  0  0  0  0
 10 35  1  0  0  0  0
 11 14  1  0  0  0  0
 11 36  1  0  0  0  0
 11 37  1  0  0  0  0
 12 15  2  0  0  0  0
 12 16  1  0  0  0  0
 13 38  1  0  0  0  0
 13 39  1  0  0  0  0
 14 17  1  0  0  0  0
 14 40  1  0  0  0  0
 14 41  1  0  0  0  0
 15 18  1  0  0  0  0
 16 19  2  0  0  0  0
 16 42  1  0  0  0  0
 17 20  1  0  0  0  0
 17 43  1  0  0  0  0
 17 44  1  0  0  0  0
 18 21  2  0  0  0  0
 18 45  1  0  0  0  0
 19 21  1  0  0  0  0
 20 46  1  0  0  0  0
 20 47  1  0  0  0  0
 21 48  1  0  0  0  0
 22 24  1  0  0  0  0
 23 50  1  0  0  0  0
 23 51  1  0  0  0  0
 23 52  1  0  0  0  0
 24 25  2  0  0  0  0
 24 26  1  0  0  0  0
 25 27  1  0  0  0  0
 25 53  1  0  0  0  0
 26 28  2  0  0  0  0
 26 54  1  0  0  0  0
 27 29  2  0  0  0  0
 27 55  1  0  0  0  0
 28 29  1  0  0  0  0
 28 56  1  0  0  0  0
 29 57  1  0  0  0  0
M  END
> <PUBCHEM_COMPOUND_CID>
164615496

> <PUBCHEM_COMPOUND_CANONICALIZED>
1

> <PUBCHEM_CACTVS_COMPLEXITY>
525

> <PUBCHEM_CACTVS_HBOND_ACCEPTOR>
5

> <PUBCHEM_CACTVS_HBOND_DONOR>
1

> <PUBCHEM_CACTVS_ROTATABLE_BOND>
7

> <PUBCHEM_CACTVS_SUBSKEYS>
AAADceB7OAAAAAAAAAAAAAAAAAAAAAAAAAA8aIEAAAAAAACxQAAAHgAQAAAADDzhmAYyBoPABACIAiFSEACCCAAkIAAIiIEODMgOJzKEtRuHOSjl1hGYqYf42LOOAQABAAAIAAACAAIAABAAAAAAAAAAAA==

> <PUBCHEM_IUPAC_OPENEYE_NAME>
N-[4-[(4aR,10bR)-9-methoxy-3,4a,5,10b-tetrahydro-2H-chromeno[4,3-b][1,4]oxazin-4-yl]butyl]benzamide

> <PUBCHEM_IUPAC_CAS_NAME>
N-[4-[(4aR,10bR)-9-methoxy-3,4a,5,10b-tetrahydro-2H-[1]benzopyrano[4,3-b][1,4]oxazin-4-yl]butyl]benzamide

> <PUBCHEM_IUPAC_NAME_MARKUP>
<I>N</I>-[4-[(4<I>a</I><I>R</I>,10<I>b</I><I>R</I>)-9-methoxy-3,4<I>a</I>,5,10<I>b</I>-tetrahydro-2<I>H</I>-chromeno[4,3-b][1,4]oxazin-4-yl]butyl]benzamide

> <PUBCHEM_IUPAC_NAME>
N-[4-[(4aR,10bR)-9-methoxy-3,4a,5,10b-tetrahydro-2H-chromeno[4,3-b][1,4]oxazin-4-yl]butyl]benzamide

> <PUBCHEM_IUPAC_SYSTEMATIC_NAME>
N-[4-[(4aR,10bR)-9-methoxy-3,4a,5,10b-tetrahydro-2H-chromeno[4,3-b][1,4]oxazin-4-yl]butyl]benzamide

> <PUBCHEM_IUPAC_TRADITIONAL_NAME>
N-[4-[(4aR,10bR)-9-methoxy-3,4a,5,10b-tetrahydro-2H-chromeno[4,3-b][1,4]oxazin-4-yl]butyl]benzamide

> <PUBCHEM_IUPAC_INCHI>
InChI=1S/C23H28N2O4/c1-27-18-9-10-21-19(15-18)22-20(16-29-21)25(13-14-28-22)12-6-5-11-24-23(26)17-7-3-2-4-8-17/h2-4,7-10,15,20,22H,5-6,11-14,16H2,1H3,(H,24,26)/t20-,22-/m1/s1

> <PUBCHEM_IUPAC_INCHIKEY>
ZZOGNBGGXVYUEA-IFMALSPDSA-N

> <PUBCHEM_XLOGP3>
3.1

> <PUBCHEM_EXACT_MASS>
396.20490738

> <PUBCHEM_MOLECULAR_FORMULA>
C23H28N2O4

> <PUBCHEM_MOLECULAR_WEIGHT>
396.5

> <PUBCHEM_OPENEYE_CAN_SMILES>
COC1=CC2=C(C=C1)OCC3C2OCCN3CCCCNC(=O)C4=CC=CC=C4

> <PUBCHEM_OPENEYE_ISO_SMILES>
COC1=CC2=C(C=C1)OC[C@@H]3[C@@H]2OCCN3CCCCNC(=O)C4=CC=CC=C4

> <PUBCHEM_CACTVS_TPSA>
60

> <PUBCHEM_MONOISOTOPIC_WEIGHT>
396.20490738

> <PUBCHEM_TOTAL_CHARGE>
0

> <PUBCHEM_HEAVY_ATOM_COUNT>
29

> <PUBCHEM_ATOM_DEF_STEREO_COUNT>
2

> <PUBCHEM_ATOM_UDEF_STEREO_COUNT>
0

> <PUBCHEM_BOND_DEF_STEREO_COUNT>
0

> <PUBCHEM_BOND_UDEF_STEREO_COUNT>
0

> <PUBCHEM_ISOTOPIC_ATOM_COUNT>
0

> <PUBCHEM_COMPONENT_COUNT>
1

> <PUBCHEM_CACTVS_TAUTO_COUNT>
-1

> <PUBCHEM_COORDINATE_TYPE>
1
5
255

> <PUBCHEM_BONDANNOTATIONS>
12  15  8
12  16  8
15  18  8
16  19  8
18  21  8
19  21  8
24  25  8
24  26  8
25  27  8
26  28  8
27  29  8
28  29  8
7  30  6
8  31  5

$$$$
