155525571
  -OEChem-09292322412D

 52 55  0     1  0  0  0  0  0999 V2000
    3.7320   -1.2879    0.0000 O   0  0  0  0  0  0  0  0  0  0  0  0
    8.2083    1.3684    0.0000 N   0  0  3  0  0  0  0  0  0  0  0  0
    7.2764   -3.0926    0.0000 N   0  0  0  0  0  0  0  0  0  0  0  0
    7.2298    1.1622    0.0000 C   0  0  0  0  0  0  0  0  0  0  0  0
    6.9192    0.2117    0.0000 C   0  0  0  0  0  0  0  0  0  0  0  0
    7.5870   -0.5326    0.0000 C   0  0  0  0  0  0  0  0  0  0  0  0
    8.8762    0.6241    0.0000 C   0  0  0  0  0  0  0  0  0  0  0  0
    7.2764   -1.4831    0.0000 C   0  0  0  0  0  0  0  0  0  0  0  0
    8.5655   -0.3264    0.0000 C   0  0  0  0  0  0  0  0  0  0  0  0
    8.5190    2.3190    0.0000 C   0  0  0  0  0  0  0  0  0  0  0  0
    6.3301   -1.7879    0.0000 C   0  0  0  0  0  0  0  0  0  0  0  0
    6.3301   -2.7879    0.0000 C   0  0  0  0  0  0  0  0  0  0  0  0
    7.8600   -2.2879    0.0000 C   0  0  0  0  0  0  0  0  0  0  0  0
    9.4975    2.5252    0.0000 C   0  0  0  0  0  0  0  0  0  0  0  0
    5.4641   -1.2879    0.0000 C   0  0  0  0  0  0  0  0  0  0  0  0
    5.4641   -3.2879    0.0000 C   0  0  0  0  0  0  0  0  0  0  0  0
    4.5981   -1.7879    0.0000 C   0  0  0  0  0  0  0  0  0  0  0  0
    4.5981   -2.7879    0.0000 C   0  0  0  0  0  0  0  0  0  0  0  0
   10.1653    1.7809    0.0000 C   0  0  0  0  0  0  0  0  0  0  0  0
    9.8082    3.4757    0.0000 C   0  0  0  0  0  0  0  0  0  0  0  0
    2.8660   -1.7879    0.0000 C   0  0  0  0  0  0  0  0  0  0  0  0
   11.1439    1.9871    0.0000 C   0  0  0  0  0  0  0  0  0  0  0  0
   10.7867    3.6819    0.0000 C   0  0  0  0  0  0  0  0  0  0  0  0
   11.4545    2.9376    0.0000 C   0  0  0  0  0  0  0  0  0  0  0  0
    2.0000   -1.2879    0.0000 C   0  0  0  0  0  0  0  0  0  0  0  0
    2.8660   -2.7879    0.0000 C   0  0  0  0  0  0  0  0  0  0  0  0
    7.2093    1.7819    0.0000 H   0  0  0  0  0  0  0  0  0  0  0  0
    6.6160    1.2496    0.0000 H   0  0  0  0  0  0  0  0  0  0  0  0
    6.3722    0.5037    0.0000 H   0  0  0  0  0  0  0  0  0  0  0  0
    6.5366   -0.2762    0.0000 H   0  0  0  0  0  0  0  0  0  0  0  0
    9.4231    0.3321    0.0000 H   0  0  0  0  0  0  0  0  0  0  0  0
    9.2587    1.1120    0.0000 H   0  0  0  0  0  0  0  0  0  0  0  0
    8.9796   -0.7879    0.0000 H   0  0  0  0  0  0  0  0  0  0  0  0
    8.4984    2.9386    0.0000 H   0  0  0  0  0  0  0  0  0  0  0  0
    7.9052    2.4063    0.0000 H   0  0  0  0  0  0  0  0  0  0  0  0
    8.4800   -2.2879    0.0000 H   0  0  0  0  0  0  0  0  0  0  0  0
    7.4690   -3.6819    0.0000 H   0  0  0  0  0  0  0  0  0  0  0  0
    5.4641   -0.6679    0.0000 H   0  0  0  0  0  0  0  0  0  0  0  0
    5.4641   -3.9079    0.0000 H   0  0  0  0  0  0  0  0  0  0  0  0
    4.0611   -3.0979    0.0000 H   0  0  0  0  0  0  0  0  0  0  0  0
    9.9727    1.1916    0.0000 H   0  0  0  0  0  0  0  0  0  0  0  0
    9.3941    3.9372    0.0000 H   0  0  0  0  0  0  0  0  0  0  0  0
    2.8660   -1.1679    0.0000 H   0  0  0  0  0  0  0  0  0  0  0  0
   11.5579    1.5256    0.0000 H   0  0  0  0  0  0  0  0  0  0  0  0
   10.9793    4.2712    0.0000 H   0  0  0  0  0  0  0  0  0  0  0  0
   12.0612    3.0655    0.0000 H   0  0  0  0  0  0  0  0  0  0  0  0
    2.3100   -0.7509    0.0000 H   0  0  0  0  0  0  0  0  0  0  0  0
    1.4631   -0.9779    0.0000 H   0  0  0  0  0  0  0  0  0  0  0  0
    1.6900   -1.8248    0.0000 H   0  0  0  0  0  0  0  0  0  0  0  0
    2.2460   -2.7879    0.0000 H   0  0  0  0  0  0  0  0  0  0  0  0
    2.8660   -3.4079    0.0000 H   0  0  0  0  0  0  0  0  0  0  0  0
    3.4860   -2.7879    0.0000 H   0  0  0  0  0  0  0  0  0  0  0  0
  1 17  1  0  0  0  0
  1 21  1  0  0  0  0
  2  4  1  0  0  0  0
  2  7  1  0  0  0  0
  2 10  1  0  0  0  0
  3 12  1  0  0  0  0
  3 13  1  0  0  0  0
  3 37  1  0  0  0  0
  4  5  1  0  0  0  0
  4 27  1  0  0  0  0
  4 28  1  0  0  0  0
  5  6  1  0  0  0  0
  5 29  1  0  0  0  0
  5 30  1  0  0  0  0
  6  8  1  0  0  0  0
  6  9  2  0  0  0  0
  7  9  1  0  0  0  0
  7 31  1  0  0  0  0
  7 32  1  0  0  0  0
  8 11  1  0  0  0  0
  8 13  2  0  0  0  0
  9 33  1  0  0  0  0
 10 14  1  0  0  0  0
 10 34  1  0  0  0  0
 10 35  1  0  0  0  0
 11 12  2  0  0  0  0
 11 15  1  0  0  0  0
 12 16  1  0  0  0  0
 13 36  1  0  0  0  0
 14 19  2  0  0  0  0
 14 20  1  0  0  0  0
 15 17  2  0  0  0  0
 15 38  1  0  0  0  0
 16 18  2  0  0  0  0
 16 39  1  0  0  0  0
 17 18  1  0  0  0  0
 18 40  1  0  0  0  0
 19 22  1  0  0  0  0
 19 41  1  0  0  0  0
 20 23  2  0  0  0  0
 20 42  1  0  0  0  0
 21 25  1  0  0  0  0
 21 26  1  0  0  0  0
 21 43  1  0  0  0  0
 22 24  2  0  0  0  0
 22 44  1  0  0  0  0
 23 24  1  0  0  0  0
 23 45  1  0  0  0  0
 24 46  1  0  0  0  0
 25 47  1  0  0  0  0
 25 48  1  0  0  0  0
 25 49  1  0  0  0  0
 26 50  1  0  0  0  0
 26 51  1  0  0  0  0
 26 52  1  0  0  0  0
M  END
> <PUBCHEM_COMPOUND_CID>
155525571

> <PUBCHEM_COMPOUND_CANONICALIZED>
1

> <PUBCHEM_CACTVS_COMPLEXITY>
483

> <PUBCHEM_CACTVS_HBOND_ACCEPTOR>
2

> <PUBCHEM_CACTVS_HBOND_DONOR>
1

> <PUBCHEM_CACTVS_ROTATABLE_BOND>
5

> <PUBCHEM_CACTVS_SUBSKEYS>
AAADceB7IAAAAAAAAAAAAAAAAAAAAWAAAAAwYIAAAAAAAFgB9AAAHgAQAAAADBzhngY+xvPJlACgAzRnRACCiCAxIiAI2aA+bJgMJuLEsZuGOCjk0BHI6Aew0PIOgEABAAACAAAAgAIAAAQAAAAAAAAAAA==

> <PUBCHEM_IUPAC_OPENEYE_NAME>
3-(1-benzyl-3,6-dihydro-2H-pyridin-4-yl)-5-isopropoxy-1H-indole

> <PUBCHEM_IUPAC_CAS_NAME>
3-[1-(phenylmethyl)-3,6-dihydro-2H-pyridin-4-yl]-5-propan-2-yloxy-1H-indole

> <PUBCHEM_IUPAC_NAME_MARKUP>
3-(1-benzyl-3,6-dihydro-2<I>H</I>-pyridin-4-yl)-5-propan-2-yloxy-1<I>H</I>-indole

> <PUBCHEM_IUPAC_NAME>
3-(1-benzyl-3,6-dihydro-2H-pyridin-4-yl)-5-propan-2-yloxy-1H-indole

> <PUBCHEM_IUPAC_SYSTEMATIC_NAME>
3-[1-(phenylmethyl)-3,6-dihydro-2H-pyridin-4-yl]-5-propan-2-yloxy-1H-indole

> <PUBCHEM_IUPAC_TRADITIONAL_NAME>
3-(1-benzyl-3,6-dihydro-2H-pyridin-4-yl)-5-isopropoxy-1H-indole

> <PUBCHEM_IUPAC_INCHI>
InChI=1S/C23H26N2O/c1-17(2)26-20-8-9-23-21(14-20)22(15-24-23)19-10-12-25(13-11-19)16-18-6-4-3-5-7-18/h3-10,14-15,17,24H,11-13,16H2,1-2H3

> <PUBCHEM_IUPAC_INCHIKEY>
SHLNXAGTOHBRSE-UHFFFAOYSA-N

> <PUBCHEM_XLOGP3_AA>
4.5

> <PUBCHEM_EXACT_MASS>
346.204513457

> <PUBCHEM_MOLECULAR_FORMULA>
C23H26N2O

> <PUBCHEM_MOLECULAR_WEIGHT>
346.5

> <PUBCHEM_OPENEYE_CAN_SMILES>
CC(C)OC1=CC2=C(C=C1)NC=C2C3=CCN(CC3)CC4=CC=CC=C4

> <PUBCHEM_OPENEYE_ISO_SMILES>
CC(C)OC1=CC2=C(C=C1)NC=C2C3=CCN(CC3)CC4=CC=CC=C4

> <PUBCHEM_CACTVS_TPSA>
28.3

> <PUBCHEM_MONOISOTOPIC_WEIGHT>
346.204513457

> <PUBCHEM_TOTAL_CHARGE>
0

> <PUBCHEM_HEAVY_ATOM_COUNT>
26

> <PUBCHEM_ATOM_DEF_STEREO_COUNT>
0

> <PUBCHEM_ATOM_UDEF_STEREO_COUNT>
0

> <PUBCHEM_BOND_DEF_STEREO_COUNT>
0

> <PUBCHEM_BOND_UDEF_STEREO_COUNT>
0

> <PUBCHEM_ISOTOPIC_ATOM_COUNT>
0

> <PUBCHEM_COMPONENT_COUNT>
1

> <PUBCHEM_CACTVS_TAUTO_COUNT>
-1

> <PUBCHEM_COORDINATE_TYPE>
1
5
255

> <PUBCHEM_BONDANNOTATIONS>
11  12  8
11  15  8
12  16  8
14  19  8
14  20  8
15  17  8
16  18  8
17  18  8
19  22  8
20  23  8
22  24  8
23  24  8
3  12  8
3  13  8
8  11  8
8  13  8

$$$$
