57383417
  -OEChem-09292321582D

 55 58  0     1  0  0  0  0  0999 V2000
    9.9533   -1.2678    0.0000 S   0  0  3  0  0  0  0  0  0  0  0  0
   10.8872    1.8238    0.0000 O   0  0  0  0  0  0  0  0  0  0  0  0
    9.9533   -2.2678    0.0000 O   0  0  0  0  0  0  0  0  0  0  0  0
    5.8971    1.0350    0.0000 O   0  0  0  0  0  0  0  0  0  0  0  0
    9.4533    0.9229    0.0000 N   0  0  0  0  0  0  0  0  0  0  0  0
    5.3802   -0.6181    0.0000 N   0  0  0  0  0  0  0  0  0  0  0  0
    8.8298    0.1411    0.0000 C   0  0  0  0  0  0  0  0  0  0  0  0
    9.0523   -0.8339    0.0000 C   0  0  0  0  0  0  0  0  0  0  0  0
    7.0703   -0.2392    0.0000 C   0  0  0  0  0  0  0  0  0  0  0  0
    7.8393    0.4634    0.0000 C   0  0  0  0  0  0  0  0  0  0  0  0
    9.0194    1.8238    0.0000 C   0  0  0  0  0  0  0  0  0  0  0  0
   11.0768    0.1410    0.0000 C   0  0  0  0  0  0  0  0  0  0  0  0
   10.8543   -0.8339    0.0000 C   0  0  0  0  0  0  0  0  0  0  0  0
   10.4533    0.9229    0.0000 C   0  0  0  0  0  0  0  0  0  0  0  0
    8.2998   -1.5540    0.0000 C   0  0  0  0  0  0  0  0  0  0  0  0
    6.1159    0.0593    0.0000 C   0  0  0  0  0  0  0  0  0  0  0  0
    7.3021   -1.2547    0.0000 C   0  0  0  0  0  0  0  0  0  0  0  0
    4.4258   -0.3196    0.0000 C   0  0  0  0  0  0  0  0  0  0  0  0
    5.5990   -1.5938    0.0000 C   0  0  0  0  0  0  0  0  0  0  0  0
   12.0673    0.4634    0.0000 C   0  0  0  0  0  0  0  0  0  0  0  0
   11.6068   -1.5541    0.0000 C   0  0  0  0  0  0  0  0  0  0  0  0
    9.5828    2.6501    0.0000 C   0  0  0  0  0  0  0  0  0  0  0  0
    3.6901   -0.9970    0.0000 C   0  0  0  0  0  0  0  0  0  0  0  0
    4.8633   -2.2712    0.0000 C   0  0  0  0  0  0  0  0  0  0  0  0
   12.8363   -0.2392    0.0000 C   0  0  0  0  0  0  0  0  0  0  0  0
   12.6045   -1.2547    0.0000 C   0  0  0  0  0  0  0  0  0  0  0  0
    3.9088   -1.9728    0.0000 C   0  0  0  0  0  0  0  0  0  0  0  0
    2.7357   -0.6985    0.0000 C   0  0  0  0  0  0  0  0  0  0  0  0
    3.1732   -2.6501    0.0000 C   0  0  0  0  0  0  0  0  0  0  0  0
    2.0000   -1.3759    0.0000 C   0  0  0  0  0  0  0  0  0  0  0  0
    2.2188   -2.3516    0.0000 C   0  0  0  0  0  0  0  0  0  0  0  0
    7.7084    1.0694    0.0000 H   0  0  0  0  0  0  0  0  0  0  0  0
    8.5756    2.2568    0.0000 H   0  0  0  0  0  0  0  0  0  0  0  0
    8.5160    1.4619    0.0000 H   0  0  0  0  0  0  0  0  0  0  0  0
    8.4447   -2.1569    0.0000 H   0  0  0  0  0  0  0  0  0  0  0  0
    6.8492   -1.6782    0.0000 H   0  0  0  0  0  0  0  0  0  0  0  0
    4.7108    0.2310    0.0000 H   0  0  0  0  0  0  0  0  0  0  0  0
    3.9330    0.0566    0.0000 H   0  0  0  0  0  0  0  0  0  0  0  0
    5.9333   -2.1160    0.0000 H   0  0  0  0  0  0  0  0  0  0  0  0
    6.1712   -1.3552    0.0000 H   0  0  0  0  0  0  0  0  0  0  0  0
   12.1983    1.0694    0.0000 H   0  0  0  0  0  0  0  0  0  0  0  0
   11.4619   -2.1569    0.0000 H   0  0  0  0  0  0  0  0  0  0  0  0
   10.0950    2.3008    0.0000 H   0  0  0  0  0  0  0  0  0  0  0  0
    9.9320    3.1624    0.0000 H   0  0  0  0  0  0  0  0  0  0  0  0
    9.0705    2.9994    0.0000 H   0  0  0  0  0  0  0  0  0  0  0  0
    4.4433   -1.8151    0.0000 H   0  0  0  0  0  0  0  0  0  0  0  0
    4.4072   -2.6911    0.0000 H   0  0  0  0  0  0  0  0  0  0  0  0
    5.2832   -2.7273    0.0000 H   0  0  0  0  0  0  0  0  0  0  0  0
   13.4281   -0.0542    0.0000 H   0  0  0  0  0  0  0  0  0  0  0  0
   13.0574   -1.6782    0.0000 H   0  0  0  0  0  0  0  0  0  0  0  0
    4.5006   -2.1578    0.0000 H   0  0  0  0  0  0  0  0  0  0  0  0
    2.6000   -0.0935    0.0000 H   0  0  0  0  0  0  0  0  0  0  0  0
    3.3088   -3.2551    0.0000 H   0  0  0  0  0  0  0  0  0  0  0  0
    1.4083   -1.1908    0.0000 H   0  0  0  0  0  0  0  0  0  0  0  0
    1.7626   -2.7716    0.0000 H   0  0  0  0  0  0  0  0  0  0  0  0
  1  3  2  0  0  0  0
  1  8  1  0  0  0  0
  1 13  1  0  0  0  0
  2 14  2  0  0  0  0
  4 16  2  0  0  0  0
  5  7  1  0  0  0  0
  5 11  1  0  0  0  0
  5 14  1  0  0  0  0
  6 16  1  0  0  0  0
  6 18  1  0  0  0  0
  6 19  1  0  0  0  0
  7  8  2  0  0  0  0
  7 10  1  0  0  0  0
  8 15  1  0  0  0  0
  9 10  2  0  0  0  0
  9 16  1  0  0  0  0
  9 17  1  0  0  0  0
 10 32  1  0  0  0  0
 11 22  1  0  0  0  0
 11 33  1  0  0  0  0
 11 34  1  0  0  0  0
 12 13  1  0  0  0  0
 12 14  1  0  0  0  0
 12 20  2  0  0  0  0
 13 21  2  0  0  0  0
 15 17  2  0  0  0  0
 15 35  1  0  0  0  0
 17 36  1  0  0  0  0
 18 23  1  0  0  0  0
 18 37  1  0  0  0  0
 18 38  1  0  0  0  0
 19 24  1  0  0  0  0
 19 39  1  0  0  0  0
 19 40  1  0  0  0  0
 20 25  1  0  0  0  0
 20 41  1  0  0  0  0
 21 26  1  0  0  0  0
 21 42  1  0  0  0  0
 22 43  1  0  0  0  0
 22 44  1  0  0  0  0
 22 45  1  0  0  0  0
 23 27  2  0  0  0  0
 23 28  1  0  0  0  0
 24 46  1  0  0  0  0
 24 47  1  0  0  0  0
 24 48  1  0  0  0  0
 25 26  2  0  0  0  0
 25 49  1  0  0  0  0
 26 50  1  0  0  0  0
 27 29  1  0  0  0  0
 27 51  1  0  0  0  0
 28 30  2  0  0  0  0
 28 52  1  0  0  0  0
 29 31  2  0  0  0  0
 29 53  1  0  0  0  0
 30 31  1  0  0  0  0
 30 54  1  0  0  0  0
 31 55  1  0  0  0  0
M  END
> <PUBCHEM_COMPOUND_CID>
57383417

> <PUBCHEM_COMPOUND_CANONICALIZED>
1

> <PUBCHEM_CACTVS_COMPLEXITY>
678

> <PUBCHEM_CACTVS_HBOND_ACCEPTOR>
4

> <PUBCHEM_CACTVS_HBOND_DONOR>
0

> <PUBCHEM_CACTVS_ROTATABLE_BOND>
5

> <PUBCHEM_CACTVS_SUBSKEYS>
AAADceB7MABAAAAAAAAAAAAAAAAAAAAAAAAwYMAABYAAAAABUAAAHgQAAAAADAjB2AQywYMAAAqIAiVSUEDCAAAlChAIiB0IZMgIIDLglZGEIQhghgDoyYcciACOEAAAQAAEAQAgAACAAAgCAAAAAAAAAA==

> <PUBCHEM_IUPAC_OPENEYE_NAME>
N-benzyl-N,5-diethyl-6,11-dioxo-benzo[b][1,4]benzothiazepine-3-carboxamide

> <PUBCHEM_IUPAC_CAS_NAME>
N,5-diethyl-6,11-dioxo-N-(phenylmethyl)-3-benzo[b][1,4]benzothiazepinecarboxamide

> <PUBCHEM_IUPAC_NAME_MARKUP>
<I>N</I>-benzyl-<I>N</I>,5-diethyl-6,11-dioxobenzo[b][1,4]benzothiazepine-3-carboxamide

> <PUBCHEM_IUPAC_NAME>
N-benzyl-N,5-diethyl-6,11-dioxobenzo[b][1,4]benzothiazepine-3-carboxamide

> <PUBCHEM_IUPAC_SYSTEMATIC_NAME>
N,5-diethyl-6,11-bis(oxidanylidene)-N-(phenylmethyl)benzo[b][1,4]benzothiazepine-3-carboxamide

> <PUBCHEM_IUPAC_TRADITIONAL_NAME>
N-benzyl-N,5-diethyl-6,11-diketo-benzo[b][1,4]benzothiazepine-3-carboxamide

> <PUBCHEM_IUPAC_INCHI>
InChI=1S/C25H24N2O3S/c1-3-26(17-18-10-6-5-7-11-18)24(28)19-14-15-23-21(16-19)27(4-2)25(29)20-12-8-9-13-22(20)31(23)30/h5-16H,3-4,17H2,1-2H3

> <PUBCHEM_IUPAC_INCHIKEY>
PQOUEBDDYMTOIK-UHFFFAOYSA-N

> <PUBCHEM_XLOGP3_AA>
3.5

> <PUBCHEM_EXACT_MASS>
432.15076381

> <PUBCHEM_MOLECULAR_FORMULA>
C25H24N2O3S

> <PUBCHEM_MOLECULAR_WEIGHT>
432.5

> <PUBCHEM_OPENEYE_CAN_SMILES>
CCN1C2=C(C=CC(=C2)C(=O)N(CC)CC3=CC=CC=C3)S(=O)C4=CC=CC=C4C1=O

> <PUBCHEM_OPENEYE_ISO_SMILES>
CCN1C2=C(C=CC(=C2)C(=O)N(CC)CC3=CC=CC=C3)S(=O)C4=CC=CC=C4C1=O

> <PUBCHEM_CACTVS_TPSA>
76.9

> <PUBCHEM_MONOISOTOPIC_WEIGHT>
432.15076381

> <PUBCHEM_TOTAL_CHARGE>
0

> <PUBCHEM_HEAVY_ATOM_COUNT>
31

> <PUBCHEM_ATOM_DEF_STEREO_COUNT>
0

> <PUBCHEM_ATOM_UDEF_STEREO_COUNT>
1

> <PUBCHEM_BOND_DEF_STEREO_COUNT>
0

> <PUBCHEM_BOND_UDEF_STEREO_COUNT>
0

> <PUBCHEM_ISOTOPIC_ATOM_COUNT>
0

> <PUBCHEM_COMPONENT_COUNT>
1

> <PUBCHEM_CACTVS_TAUTO_COUNT>
-1

> <PUBCHEM_COORDINATE_TYPE>
1
5
255

> <PUBCHEM_BONDANNOTATIONS>
1  13  3
12  13  8
12  20  8
13  21  8
15  17  8
20  25  8
21  26  8
23  27  8
23  28  8
25  26  8
27  29  8
28  30  8
29  31  8
30  31  8
7  10  8
7  8  8
8  15  8
9  10  8
9  17  8

$$$$
