44447073
  -OEChem-09292322092D

 62 68  0     1  0  0  0  0  0999 V2000
    8.7593   -4.6532    0.0000 Br  0  0  0  0  0  0  0  0  0  0  0  0
    2.7627   -1.4165    0.0000 O   0  0  0  0  0  0  0  0  0  0  0  0
    2.4016    6.1570    0.0000 O   0  0  0  0  0  0  0  0  0  0  0  0
    6.2949   -1.4168    0.0000 N   0  0  3  0  0  0  0  0  0  0  0  0
    3.6230    0.0868    0.0000 N   0  0  0  0  0  0  0  0  0  0  0  0
    7.2829   -5.6069    0.0000 N   0  0  0  0  0  0  0  0  0  0  0  0
    3.6152    2.0868    0.0000 N   0  0  0  0  0  0  0  0  0  0  0  0
    2.0000    5.2477    0.0000 N   0  0  0  0  0  0  0  0  0  0  0  0
    3.3907    6.0578    0.0000 N   0  0  0  0  0  0  0  0  0  0  0  0
    5.4128   -2.9583    0.0000 C   0  0  2  0  0  0  0  0  0  0  0  0
    6.2788   -2.4583    0.0000 C   0  0  1  0  0  0  0  0  0  0  0  0
    4.5028   -2.4514    0.0000 C   0  0  0  0  0  0  0  0  0  0  0  0
    4.4948   -1.4098    0.0000 C   0  0  2  0  0  0  0  0  0  0  0  0
    7.1448   -2.9583    0.0000 C   0  0  0  0  0  0  0  0  0  0  0  0
    5.3968   -0.8890    0.0000 C   0  0  0  0  0  0  0  0  0  0  0  0
    5.4128   -3.9583    0.0000 C   0  0  0  0  0  0  0  0  0  0  0  0
    6.2788   -4.4583    0.0000 C   0  0  0  0  0  0  0  0  0  0  0  0
    7.1448   -3.9583    0.0000 C   0  0  0  0  0  0  0  0  0  0  0  0
    3.6268   -0.9132    0.0000 C   0  0  0  0  0  0  0  0  0  0  0  0
    7.1666   -0.9268    0.0000 C   0  0  0  0  0  0  0  0  0  0  0  0
    6.2949   -5.4998    0.0000 C   0  0  0  0  0  0  0  0  0  0  0  0
    4.5028   -4.4651    0.0000 C   0  0  0  0  0  0  0  0  0  0  0  0
    7.7628   -4.7366    0.0000 C   0  0  0  0  0  0  0  0  0  0  0  0
    2.7550    0.5835    0.0000 C   0  0  0  0  0  0  0  0  0  0  0  0
    4.4870    0.5902    0.0000 C   0  0  0  0  0  0  0  0  0  0  0  0
    5.3968   -6.0275    0.0000 C   0  0  0  0  0  0  0  0  0  0  0  0
    4.4948   -5.5067    0.0000 C   0  0  0  0  0  0  0  0  0  0  0  0
    2.7512    1.5835    0.0000 C   0  0  0  0  0  0  0  0  0  0  0  0
    4.4832    1.5901    0.0000 C   0  0  0  0  0  0  0  0  0  0  0  0
    3.6114    3.0868    0.0000 C   0  0  0  0  0  0  0  0  0  0  0  0
    2.7434    3.5834    0.0000 C   0  0  0  0  0  0  0  0  0  0  0  0
    4.4755    3.5901    0.0000 C   0  0  0  0  0  0  0  0  0  0  0  0
    2.7396    4.5834    0.0000 C   0  0  0  0  0  0  0  0  0  0  0  0
    4.4716    4.5901    0.0000 C   0  0  0  0  0  0  0  0  0  0  0  0
    3.6037    5.0868    0.0000 C   0  0  0  0  0  0  0  0  0  0  0  0
    4.6800   -3.3889    0.0000 H   0  0  0  0  0  0  0  0  0  0  0  0
    7.0182   -2.0390    0.0000 H   0  0  0  0  0  0  0  0  0  0  0  0
    3.8911   -2.3500    0.0000 H   0  0  0  0  0  0  0  0  0  0  0  0
    4.2982   -3.0367    0.0000 H   0  0  0  0  0  0  0  0  0  0  0  0
    3.9596   -1.7229    0.0000 H   0  0  0  0  0  0  0  0  0  0  0  0
    7.7554   -3.0659    0.0000 H   0  0  0  0  0  0  0  0  0  0  0  0
    7.3569   -2.3757    0.0000 H   0  0  0  0  0  0  0  0  0  0  0  0
    5.7978   -0.4161    0.0000 H   0  0  0  0  0  0  0  0  0  0  0  0
    4.9995   -0.4130    0.0000 H   0  0  0  0  0  0  0  0  0  0  0  0
    7.4704   -1.4673    0.0000 H   0  0  0  0  0  0  0  0  0  0  0  0
    7.7071   -0.6230    0.0000 H   0  0  0  0  0  0  0  0  0  0  0  0
    6.8628   -0.3863    0.0000 H   0  0  0  0  0  0  0  0  0  0  0  0
    3.9695   -4.1489    0.0000 H   0  0  0  0  0  0  0  0  0  0  0  0
    7.5689   -6.1570    0.0000 H   0  0  0  0  0  0  0  0  0  0  0  0
    2.1440    0.6888    0.0000 H   0  0  0  0  0  0  0  0  0  0  0  0
    2.5452    0.0001    0.0000 H   0  0  0  0  0  0  0  0  0  0  0  0
    4.7013    0.0084    0.0000 H   0  0  0  0  0  0  0  0  0  0  0  0
    5.0972    0.7002    0.0000 H   0  0  0  0  0  0  0  0  0  0  0  0
    5.3992   -6.6475    0.0000 H   0  0  0  0  0  0  0  0  0  0  0  0
    3.9566   -5.8146    0.0000 H   0  0  0  0  0  0  0  0  0  0  0  0
    2.5368    2.1653    0.0000 H   0  0  0  0  0  0  0  0  0  0  0  0
    2.1410    1.4734    0.0000 H   0  0  0  0  0  0  0  0  0  0  0  0
    5.0942    1.4848    0.0000 H   0  0  0  0  0  0  0  0  0  0  0  0
    4.6930    2.1736    0.0000 H   0  0  0  0  0  0  0  0  0  0  0  0
    2.2077    3.2714    0.0000 H   0  0  0  0  0  0  0  0  0  0  0  0
    5.0136    3.2822    0.0000 H   0  0  0  0  0  0  0  0  0  0  0  0
    5.0074    4.9022    0.0000 H   0  0  0  0  0  0  0  0  0  0  0  0
  1 23  1  0  0  0  0
  2 19  2  0  0  0  0
  3  8  1  0  0  0  0
  3  9  1  0  0  0  0
  4 11  1  0  0  0  0
  4 15  1  0  0  0  0
  4 20  1  0  0  0  0
  5 19  1  0  0  0  0
  5 24  1  0  0  0  0
  5 25  1  0  0  0  0
  6 21  1  0  0  0  0
  6 23  1  0  0  0  0
  6 49  1  0  0  0  0
  7 28  1  0  0  0  0
  7 29  1  0  0  0  0
  7 30  1  0  0  0  0
  8 33  2  0  0  0  0
  9 35  2  0  0  0  0
 10 11  1  0  0  0  0
 10 12  1  0  0  0  0
 10 16  1  0  0  0  0
 10 36  1  6  0  0  0
 11 14  1  0  0  0  0
 11 37  1  1  0  0  0
 12 13  1  0  0  0  0
 12 38  1  0  0  0  0
 12 39  1  0  0  0  0
 13 15  1  0  0  0  0
 13 19  1  1  0  0  0
 13 40  1  0  0  0  0
 14 18  1  0  0  0  0
 14 41  1  0  0  0  0
 14 42  1  0  0  0  0
 15 43  1  0  0  0  0
 15 44  1  0  0  0  0
 16 17  2  0  0  0  0
 16 22  1  0  0  0  0
 17 18  1  0  0  0  0
 17 21  1  0  0  0  0
 18 23  2  0  0  0  0
 20 45  1  0  0  0  0
 20 46  1  0  0  0  0
 20 47  1  0  0  0  0
 21 26  2  0  0  0  0
 22 27  2  0  0  0  0
 22 48  1  0  0  0  0
 24 28  1  0  0  0  0
 24 50  1  0  0  0  0
 24 51  1  0  0  0  0
 25 29  1  0  0  0  0
 25 52  1  0  0  0  0
 25 53  1  0  0  0  0
 26 27  1  0  0  0  0
 26 54  1  0  0  0  0
 27 55  1  0  0  0  0
 28 56  1  0  0  0  0
 28 57  1  0  0  0  0
 29 58  1  0  0  0  0
 29 59  1  0  0  0  0
 30 31  2  0  0  0  0
 30 32  1  0  0  0  0
 31 33  1  0  0  0  0
 31 60  1  0  0  0  0
 32 34  2  0  0  0  0
 32 61  1  0  0  0  0
 33 35  1  0  0  0  0
 34 35  1  0  0  0  0
 34 62  1  0  0  0  0
M  END
> <PUBCHEM_COMPOUND_CID>
44447073

> <PUBCHEM_COMPOUND_CANONICALIZED>
1

> <PUBCHEM_CACTVS_COMPLEXITY>
811

> <PUBCHEM_CACTVS_HBOND_ACCEPTOR>
6

> <PUBCHEM_CACTVS_HBOND_DONOR>
1

> <PUBCHEM_CACTVS_ROTATABLE_BOND>
2

> <PUBCHEM_CACTVS_SUBSKEYS>
AAADceB7sAAAEAAAAAAAAAAAAAAAAWLAAAA8eMECAAAAAFjx/gAAHgBUAAABPSjBngQywPPZkACpAyVyVgCCgCQhEiQomSE4dLoIYPrA0dGUJAhgloDIyhcYicCegACAQAQSACCQAQSACCQAQAAAAAAAAA==

> <PUBCHEM_IUPAC_OPENEYE_NAME>
[(6aR,9R,10aR)-5-bromo-7-methyl-6,6a,8,9,10,10a-hexahydro-4H-indolo[4,3-fg]quinolin-9-yl]-[4-(2,1,3-benzoxadiazol-5-yl)piperazin-1-yl]methanone

> <PUBCHEM_IUPAC_CAS_NAME>
[(6aR,9R,10aR)-5-bromo-7-methyl-6,6a,8,9,10,10a-hexahydro-4H-indolo[4,3-fg]quinolin-9-yl]-[4-(2,1,3-benzoxadiazol-5-yl)-1-piperazinyl]methanone

> <PUBCHEM_IUPAC_NAME_MARKUP>
[(6<I>a</I><I>R</I>,9<I>R</I>,10<I>a</I><I>R</I>)-5-bromo-7-methyl-6,6<I>a</I>,8,9,10,10<I>a</I>-hexahydro-4<I>H</I>-indolo[4,3-fg]quinolin-9-yl]-[4-(2,1,3-benzoxadiazol-5-yl)piperazin-1-yl]methanone

> <PUBCHEM_IUPAC_NAME>
[(6aR,9R,10aR)-5-bromo-7-methyl-6,6a,8,9,10,10a-hexahydro-4H-indolo[4,3-fg]quinolin-9-yl]-[4-(2,1,3-benzoxadiazol-5-yl)piperazin-1-yl]methanone

> <PUBCHEM_IUPAC_SYSTEMATIC_NAME>
[(6aR,9R,10aR)-5-bromanyl-7-methyl-6,6a,8,9,10,10a-hexahydro-4H-indolo[4,3-fg]quinolin-9-yl]-[4-(2,1,3-benzoxadiazol-5-yl)piperazin-1-yl]methanone

> <PUBCHEM_IUPAC_TRADITIONAL_NAME>
[(6aR,9R,10aR)-5-bromo-7-methyl-6,6a,8,9,10,10a-hexahydro-4H-indolo[4,3-fg]quinolin-9-yl]-(4-benzofurazan-5-ylpiperazino)methanone

> <PUBCHEM_IUPAC_INCHI>
InChI=1S/C26H27BrN6O2/c1-31-14-15(11-18-17-3-2-4-21-24(17)19(13-23(18)31)25(27)28-21)26(34)33-9-7-32(8-10-33)16-5-6-20-22(12-16)30-35-29-20/h2-6,12,15,18,23,28H,7-11,13-14H2,1H3/t15-,18-,23-/m1/s1

> <PUBCHEM_IUPAC_INCHIKEY>
GZFMZJDVLOZLLL-OMXJDXKCSA-N

> <PUBCHEM_XLOGP3_AA>
3.7

> <PUBCHEM_EXACT_MASS>
534.13789

> <PUBCHEM_MOLECULAR_FORMULA>
C26H27BrN6O2

> <PUBCHEM_MOLECULAR_WEIGHT>
535.4

> <PUBCHEM_OPENEYE_CAN_SMILES>
CN1CC(CC2C1CC3=C(NC4=CC=CC2=C34)Br)C(=O)N5CCN(CC5)C6=CC7=NON=C7C=C6

> <PUBCHEM_OPENEYE_ISO_SMILES>
CN1C[C@@H](C[C@H]2[C@H]1CC3=C(NC4=CC=CC2=C34)Br)C(=O)N5CCN(CC5)C6=CC7=NON=C7C=C6

> <PUBCHEM_CACTVS_TPSA>
81.5

> <PUBCHEM_MONOISOTOPIC_WEIGHT>
534.13789

> <PUBCHEM_TOTAL_CHARGE>
0

> <PUBCHEM_HEAVY_ATOM_COUNT>
35

> <PUBCHEM_ATOM_DEF_STEREO_COUNT>
3

> <PUBCHEM_ATOM_UDEF_STEREO_COUNT>
0

> <PUBCHEM_BOND_DEF_STEREO_COUNT>
0

> <PUBCHEM_BOND_UDEF_STEREO_COUNT>
0

> <PUBCHEM_ISOTOPIC_ATOM_COUNT>
0

> <PUBCHEM_COMPONENT_COUNT>
1

> <PUBCHEM_CACTVS_TAUTO_COUNT>
-1

> <PUBCHEM_COORDINATE_TYPE>
1
5
255

> <PUBCHEM_BONDANNOTATIONS>
10  36  6
11  37  5
13  19  5
16  17  8
16  22  8
17  18  8
17  21  8
18  23  8
21  26  8
22  27  8
26  27  8
3  8  8
3  9  8
30  31  8
30  32  8
31  33  8
32  34  8
33  35  8
34  35  8
6  21  8
6  23  8
8  33  8
9  35  8

$$$$
