9955820
  -OEChem-09292321582D

 63 68  0     1  0  0  0  0  0999 V2000
    5.8616   -2.4832    0.0000 S   0  0  3  0  0  0  0  0  0  0  0  0
    8.2417   -1.3278    0.0000 O   0  0  0  0  0  0  0  0  0  0  0  0
    5.6028   -1.5173    0.0000 O   0  0  0  0  0  0  0  0  0  0  0  0
    5.8616    0.3452    0.0000 N   0  0  0  0  0  0  0  0  0  0  0  0
    7.0863   -3.7080    0.0000 N   0  0  0  0  0  0  0  0  0  0  0  0
    5.4133    2.0182    0.0000 C   0  0  0  0  0  0  0  0  0  0  0  0
    4.9355    3.9668    0.0000 C   0  0  0  0  0  0  0  0  0  0  0  0
    5.6721    2.9842    0.0000 C   0  0  0  0  0  0  0  0  0  0  0  0
    6.8122    1.5094    0.0000 C   0  0  0  0  0  0  0  0  0  0  0  0
    4.0406    1.4262    0.0000 C   0  0  0  0  0  0  0  0  0  0  0  0
    5.1545    1.0523    0.0000 C   0  0  0  0  0  0  0  0  0  0  0  0
    7.0711    2.4754    0.0000 C   0  0  0  0  0  0  0  0  0  0  0  0
    3.6986    2.3659    0.0000 C   0  0  0  0  0  0  0  0  0  0  0  0
    5.6028   -0.6207    0.0000 C   0  0  0  0  0  0  0  0  0  0  0  0
    6.8275    0.6040    0.0000 C   0  0  0  0  0  0  0  0  0  0  0  0
    7.5373    0.7616    0.0000 C   0  0  0  0  0  0  0  0  0  0  0  0
    3.3834    0.6181    0.0000 C   0  0  0  0  0  0  0  0  0  0  0  0
    7.2758   -1.0690    0.0000 C   0  0  0  0  0  0  0  0  0  0  0  0
    6.3099   -1.3278    0.0000 C   0  0  0  0  0  0  0  0  0  0  0  0
    7.5346   -0.1031    0.0000 C   0  0  0  0  0  0  0  0  0  0  0  0
    8.0729    2.7604    0.0000 C   0  0  0  0  0  0  0  0  0  0  0  0
    2.6757    2.5626    0.0000 C   0  0  0  0  0  0  0  0  0  0  0  0
    8.5455    1.0234    0.0000 C   0  0  0  0  0  0  0  0  0  0  0  0
    2.3563    0.7910    0.0000 C   0  0  0  0  0  0  0  0  0  0  0  0
    8.8151    2.0296    0.0000 C   0  0  0  0  0  0  0  0  0  0  0  0
    2.0000    1.7698    0.0000 C   0  0  0  0  0  0  0  0  0  0  0  0
    7.5346   -2.0349    0.0000 C   0  0  0  0  0  0  0  0  0  0  0  0
    6.8275   -2.7420    0.0000 C   0  0  0  0  0  0  0  0  0  0  0  0
    8.5006   -2.2938    0.0000 C   0  0  0  0  0  0  0  0  0  0  0  0
    8.7594   -3.2597    0.0000 C   0  0  0  0  0  0  0  0  0  0  0  0
    8.0523   -3.9668    0.0000 C   0  0  0  0  0  0  0  0  0  0  0  0
    5.1545   -3.1903    0.0000 C   0  0  0  0  0  0  0  0  0  0  0  0
    4.1886   -2.9315    0.0000 C   0  0  0  0  0  0  0  0  0  0  0  0
    5.2533    4.4991    0.0000 H   0  0  0  0  0  0  0  0  0  0  0  0
    4.3224    4.0587    0.0000 H   0  0  0  0  0  0  0  0  0  0  0  0
    6.0415    3.4821    0.0000 H   0  0  0  0  0  0  0  0  0  0  0  0
    4.5926    1.3143    0.0000 H   0  0  0  0  0  0  0  0  0  0  0  0
    4.7989    0.5444    0.0000 H   0  0  0  0  0  0  0  0  0  0  0  0
    5.0409   -0.3587    0.0000 H   0  0  0  0  0  0  0  0  0  0  0  0
    5.2472   -1.1286    0.0000 H   0  0  0  0  0  0  0  0  0  0  0  0
    7.3354    0.9596    0.0000 H   0  0  0  0  0  0  0  0  0  0  0  0
    6.5655    1.1659    0.0000 H   0  0  0  0  0  0  0  0  0  0  0  0
    7.3700    0.1646    0.0000 H   0  0  0  0  0  0  0  0  0  0  0  0
    3.6022    0.0379    0.0000 H   0  0  0  0  0  0  0  0  0  0  0  0
    5.8020   -1.6834    0.0000 H   0  0  0  0  0  0  0  0  0  0  0  0
    6.5719   -1.8897    0.0000 H   0  0  0  0  0  0  0  0  0  0  0  0
    8.0965   -0.3651    0.0000 H   0  0  0  0  0  0  0  0  0  0  0  0
    7.8902    0.4048    0.0000 H   0  0  0  0  0  0  0  0  0  0  0  0
    8.2264    3.3611    0.0000 H   0  0  0  0  0  0  0  0  0  0  0  0
    2.4704    3.1476    0.0000 H   0  0  0  0  0  0  0  0  0  0  0  0
    8.9822    0.5833    0.0000 H   0  0  0  0  0  0  0  0  0  0  0  0
    1.9596    0.3145    0.0000 H   0  0  0  0  0  0  0  0  0  0  0  0
    9.4134    2.1923    0.0000 H   0  0  0  0  0  0  0  0  0  0  0  0
    1.3898    1.8798    0.0000 H   0  0  0  0  0  0  0  0  0  0  0  0
    8.6801   -0.8894    0.0000 H   0  0  0  0  0  0  0  0  0  0  0  0
    8.9390   -1.8553    0.0000 H   0  0  0  0  0  0  0  0  0  0  0  0
    9.3582   -3.4201    0.0000 H   0  0  0  0  0  0  0  0  0  0  0  0
    8.2127   -4.5657    0.0000 H   0  0  0  0  0  0  0  0  0  0  0  0
    4.8925   -3.7522    0.0000 H   0  0  0  0  0  0  0  0  0  0  0  0
    5.6624   -3.5459    0.0000 H   0  0  0  0  0  0  0  0  0  0  0  0
    4.3490   -2.3326    0.0000 H   0  0  0  0  0  0  0  0  0  0  0  0
    3.5897   -2.7710    0.0000 H   0  0  0  0  0  0  0  0  0  0  0  0
    4.0281   -3.5304    0.0000 H   0  0  0  0  0  0  0  0  0  0  0  0
  1  3  2  0  0  0  0
  1 28  1  0  0  0  0
  1 32  1  0  0  0  0
  2 18  1  0  0  0  0
  2 55  1  0  0  0  0
  4 11  1  0  0  0  0
  4 14  1  0  0  0  0
  4 15  1  0  0  0  0
  5 28  1  0  0  0  0
  5 31  2  0  0  0  0
  6  7  1  0  0  0  0
  6  9  1  0  0  0  0
  6 10  1  0  0  0  0
  6 11  1  0  0  0  0
  7  8  1  0  0  0  0
  7 34  1  0  0  0  0
  7 35  1  0  0  0  0
  8 12  1  0  0  0  0
  8 13  1  0  0  0  0
  8 36  1  0  0  0  0
  9 12  1  0  0  0  0
  9 16  2  0  0  0  0
 10 13  1  0  0  0  0
 10 17  2  0  0  0  0
 11 37  1  0  0  0  0
 11 38  1  0  0  0  0
 12 21  2  0  0  0  0
 13 22  2  0  0  0  0
 14 19  1  0  0  0  0
 14 39  1  0  0  0  0
 14 40  1  0  0  0  0
 15 20  1  0  0  0  0
 15 41  1  0  0  0  0
 15 42  1  0  0  0  0
 16 23  1  0  0  0  0
 16 43  1  0  0  0  0
 17 24  1  0  0  0  0
 17 44  1  0  0  0  0
 18 19  1  0  0  0  0
 18 20  1  0  0  0  0
 18 27  1  0  0  0  0
 19 45  1  0  0  0  0
 19 46  1  0  0  0  0
 20 47  1  0  0  0  0
 20 48  1  0  0  0  0
 21 25  1  0  0  0  0
 21 49  1  0  0  0  0
 22 26  1  0  0  0  0
 22 50  1  0  0  0  0
 23 25  2  0  0  0  0
 23 51  1  0  0  0  0
 24 26  2  0  0  0  0
 24 52  1  0  0  0  0
 25 53  1  0  0  0  0
 26 54  1  0  0  0  0
 27 28  2  0  0  0  0
 27 29  1  0  0  0  0
 29 30  2  0  0  0  0
 29 56  1  0  0  0  0
 30 31  1  0  0  0  0
 30 57  1  0  0  0  0
 31 58  1  0  0  0  0
 32 33  1  0  0  0  0
 32 59  1  0  0  0  0
 32 60  1  0  0  0  0
 33 61  1  0  0  0  0
 33 62  1  0  0  0  0
 33 63  1  0  0  0  0
M  END
> <PUBCHEM_COMPOUND_CID>
9955820

> <PUBCHEM_COMPOUND_CANONICALIZED>
1

> <PUBCHEM_CACTVS_COMPLEXITY>
711

> <PUBCHEM_CACTVS_HBOND_ACCEPTOR>
5

> <PUBCHEM_CACTVS_HBOND_DONOR>
1

> <PUBCHEM_CACTVS_ROTATABLE_BOND>
5

> <PUBCHEM_CACTVS_SUBSKEYS>
AAADceB7MABAAAAAAAAAAAAAAAAAAYMAAAA8eMECAAAAAGAB0AAAHgQACAAAD0TF2gS+gZMIEgqgAjBnREDK0CBxCjAI2DA4bJgIJuLgkZGEcAhmwAHo2AeQkMIPgAAAAAAQAACAAAQAACAAAQAACAAAAA==

> <PUBCHEM_IUPAC_OPENEYE_NAME>
4-(2-ethylsulfinyl-3-pyridyl)-1-(1-tetracyclo[6.6.1.02,7.09,14]pentadeca-2,4,6,9,11,13-hexaenylmethyl)piperidin-4-ol

> <PUBCHEM_IUPAC_CAS_NAME>
4-(2-ethylsulfinyl-3-pyridinyl)-1-(1-tetracyclo[6.6.1.02,7.09,14]pentadeca-2,4,6,9,11,13-hexaenylmethyl)-4-piperidinol

> <PUBCHEM_IUPAC_NAME_MARKUP>
4-(2-ethylsulfinylpyridin-3-yl)-1-(1-tetracyclo[6.6.1.0<SUP>2,7</SUP>.0<SUP>9,14</SUP>]pentadeca-2,4,6,9,11,13-hexaenylmethyl)piperidin-4-ol

> <PUBCHEM_IUPAC_NAME>
4-(2-ethylsulfinylpyridin-3-yl)-1-(1-tetracyclo[6.6.1.02,7.09,14]pentadeca-2,4,6,9,11,13-hexaenylmethyl)piperidin-4-ol

> <PUBCHEM_IUPAC_SYSTEMATIC_NAME>
4-(2-ethylsulfinylpyridin-3-yl)-1-(1-tetracyclo[6.6.1.02,7.09,14]pentadeca-2,4,6,9,11,13-hexaenylmethyl)piperidin-4-ol

> <PUBCHEM_IUPAC_TRADITIONAL_NAME>
4-(2-ethylsulfinyl-3-pyridyl)-1-(1-tetracyclo[6.6.1.02,7.09,14]pentadeca-2,4,6,9,11,13-hexaenylmethyl)piperidin-4-ol

> <PUBCHEM_IUPAC_INCHI>
InChI=1S/C28H30N2O2S/c1-2-33(32)26-25(12-7-15-29-26)28(31)13-16-30(17-14-28)19-27-18-22(20-8-3-5-10-23(20)27)21-9-4-6-11-24(21)27/h3-12,15,22,31H,2,13-14,16-19H2,1H3

> <PUBCHEM_IUPAC_INCHIKEY>
LVMVFEHQMHETDS-UHFFFAOYSA-N

> <PUBCHEM_XLOGP3_AA>
3.4

> <PUBCHEM_EXACT_MASS>
458.20279938

> <PUBCHEM_MOLECULAR_FORMULA>
C28H30N2O2S

> <PUBCHEM_MOLECULAR_WEIGHT>
458.6

> <PUBCHEM_OPENEYE_CAN_SMILES>
CCS(=O)C1=C(C=CC=N1)C2(CCN(CC2)CC34CC(C5=CC=CC=C53)C6=CC=CC=C46)O

> <PUBCHEM_OPENEYE_ISO_SMILES>
CCS(=O)C1=C(C=CC=N1)C2(CCN(CC2)CC34CC(C5=CC=CC=C53)C6=CC=CC=C46)O

> <PUBCHEM_CACTVS_TPSA>
72.6

> <PUBCHEM_MONOISOTOPIC_WEIGHT>
458.20279938

> <PUBCHEM_TOTAL_CHARGE>
0

> <PUBCHEM_HEAVY_ATOM_COUNT>
33

> <PUBCHEM_ATOM_DEF_STEREO_COUNT>
0

> <PUBCHEM_ATOM_UDEF_STEREO_COUNT>
1

> <PUBCHEM_BOND_DEF_STEREO_COUNT>
0

> <PUBCHEM_BOND_UDEF_STEREO_COUNT>
0

> <PUBCHEM_ISOTOPIC_ATOM_COUNT>
0

> <PUBCHEM_COMPONENT_COUNT>
1

> <PUBCHEM_CACTVS_TAUTO_COUNT>
-1

> <PUBCHEM_COORDINATE_TYPE>
1
5
255

> <PUBCHEM_BONDANNOTATIONS>
1  32  3
10  13  8
10  17  8
12  21  8
13  22  8
16  23  8
17  24  8
21  25  8
22  26  8
23  25  8
24  26  8
27  28  8
27  29  8
29  30  8
30  31  8
5  28  8
5  31  8
9  12  8
9  16  8

$$$$
