44214764
  -OEChem-09292322092D

 54 57  0     1  0  0  0  0  0999 V2000
    4.6750    6.2942    0.0000 F   0  0  0  0  0  0  0  0  0  0  0  0
    3.6750    7.2942    0.0000 F   0  0  0  0  0  0  0  0  0  0  0  0
    2.6750    6.2942    0.0000 F   0  0  0  0  0  0  0  0  0  0  0  0
    4.5411   -1.2058    0.0000 O   0  0  0  0  0  0  0  0  0  0  0  0
    3.3090   -3.7446    0.0000 N   0  0  3  0  0  0  0  0  0  0  0  0
    2.8090   -1.2058    0.0000 N   0  0  0  0  0  0  0  0  0  0  0  0
    2.8090   -2.2058    0.0000 C   0  0  3  0  0  0  0  0  0  0  0  0
    2.0000   -2.7935    0.0000 C   0  0  0  0  0  0  0  0  0  0  0  0
    3.6180   -2.7935    0.0000 C   0  0  0  0  0  0  0  0  0  0  0  0
    2.3090   -3.7446    0.0000 C   0  0  0  0  0  0  0  0  0  0  0  0
    3.8968   -4.5536    0.0000 C   0  0  0  0  0  0  0  0  0  0  0  0
    3.4901   -5.4672    0.0000 C   0  0  0  0  0  0  0  0  0  0  0  0
    3.6750   -0.7058    0.0000 C   0  0  0  0  0  0  0  0  0  0  0  0
    2.4955   -5.5717    0.0000 C   0  0  0  0  0  0  0  0  0  0  0  0
    4.0778   -6.2762    0.0000 C   0  0  0  0  0  0  0  0  0  0  0  0
    3.6750    0.2942    0.0000 C   0  0  0  0  0  0  0  0  0  0  0  0
    2.0888   -6.4852    0.0000 C   0  0  0  0  0  0  0  0  0  0  0  0
    3.6711   -7.1897    0.0000 C   0  0  0  0  0  0  0  0  0  0  0  0
    2.8090    0.7942    0.0000 C   0  0  0  0  0  0  0  0  0  0  0  0
    4.5411    0.7942    0.0000 C   0  0  0  0  0  0  0  0  0  0  0  0
    2.6766   -7.2942    0.0000 C   0  0  0  0  0  0  0  0  0  0  0  0
    3.6750    2.2942    0.0000 C   0  0  0  0  0  0  0  0  0  0  0  0
    2.8090    1.7942    0.0000 C   0  0  0  0  0  0  0  0  0  0  0  0
    4.5411    1.7942    0.0000 C   0  0  0  0  0  0  0  0  0  0  0  0
    3.6750    3.2942    0.0000 C   0  0  0  0  0  0  0  0  0  0  0  0
    2.8090    3.7942    0.0000 C   0  0  0  0  0  0  0  0  0  0  0  0
    4.5411    3.7942    0.0000 C   0  0  0  0  0  0  0  0  0  0  0  0
    3.6750    5.2942    0.0000 C   0  0  0  0  0  0  0  0  0  0  0  0
    2.8090    4.7942    0.0000 C   0  0  0  0  0  0  0  0  0  0  0  0
    4.5411    4.7942    0.0000 C   0  0  0  0  0  0  0  0  0  0  0  0
    3.6750    6.2942    0.0000 C   0  0  0  0  0  0  0  0  0  0  0  0
    3.3614   -1.9243    0.0000 H   0  0  0  0  0  0  0  0  0  0  0  0
    1.6900   -2.2566    0.0000 H   0  0  0  0  0  0  0  0  0  0  0  0
    1.4336   -3.0457    0.0000 H   0  0  0  0  0  0  0  0  0  0  0  0
    4.1844   -3.0457    0.0000 H   0  0  0  0  0  0  0  0  0  0  0  0
    3.9280   -2.2566    0.0000 H   0  0  0  0  0  0  0  0  0  0  0  0
    1.7026   -3.8735    0.0000 H   0  0  0  0  0  0  0  0  0  0  0  0
    2.3738   -4.3612    0.0000 H   0  0  0  0  0  0  0  0  0  0  0  0
    4.4108   -4.9003    0.0000 H   0  0  0  0  0  0  0  0  0  0  0  0
    4.3275   -4.1076    0.0000 H   0  0  0  0  0  0  0  0  0  0  0  0
    2.2721   -0.8958    0.0000 H   0  0  0  0  0  0  0  0  0  0  0  0
    2.1311   -5.0701    0.0000 H   0  0  0  0  0  0  0  0  0  0  0  0
    4.6944   -6.2114    0.0000 H   0  0  0  0  0  0  0  0  0  0  0  0
    1.4722   -6.5500    0.0000 H   0  0  0  0  0  0  0  0  0  0  0  0
    4.0355   -7.6913    0.0000 H   0  0  0  0  0  0  0  0  0  0  0  0
    2.2721    0.4842    0.0000 H   0  0  0  0  0  0  0  0  0  0  0  0
    5.0780    0.4842    0.0000 H   0  0  0  0  0  0  0  0  0  0  0  0
    2.4244   -7.8606    0.0000 H   0  0  0  0  0  0  0  0  0  0  0  0
    2.2721    2.1042    0.0000 H   0  0  0  0  0  0  0  0  0  0  0  0
    5.0780    2.1042    0.0000 H   0  0  0  0  0  0  0  0  0  0  0  0
    2.2721    3.4842    0.0000 H   0  0  0  0  0  0  0  0  0  0  0  0
    5.0780    3.4842    0.0000 H   0  0  0  0  0  0  0  0  0  0  0  0
    2.2721    5.1043    0.0000 H   0  0  0  0  0  0  0  0  0  0  0  0
    5.0780    5.1043    0.0000 H   0  0  0  0  0  0  0  0  0  0  0  0
  1 31  1  0  0  0  0
  2 31  1  0  0  0  0
  3 31  1  0  0  0  0
  4 13  2  0  0  0  0
  5  9  1  0  0  0  0
  5 10  1  0  0  0  0
  5 11  1  0  0  0  0
  6  7  1  0  0  0  0
  6 13  1  0  0  0  0
  6 41  1  0  0  0  0
  7  8  1  0  0  0  0
  7  9  1  0  0  0  0
  7 32  1  0  0  0  0
  8 10  1  0  0  0  0
  8 33  1  0  0  0  0
  8 34  1  0  0  0  0
  9 35  1  0  0  0  0
  9 36  1  0  0  0  0
 10 37  1  0  0  0  0
 10 38  1  0  0  0  0
 11 12  1  0  0  0  0
 11 39  1  0  0  0  0
 11 40  1  0  0  0  0
 12 14  2  0  0  0  0
 12 15  1  0  0  0  0
 13 16  1  0  0  0  0
 14 17  1  0  0  0  0
 14 42  1  0  0  0  0
 15 18  2  0  0  0  0
 15 43  1  0  0  0  0
 16 19  2  0  0  0  0
 16 20  1  0  0  0  0
 17 21  2  0  0  0  0
 17 44  1  0  0  0  0
 18 21  1  0  0  0  0
 18 45  1  0  0  0  0
 19 23  1  0  0  0  0
 19 46  1  0  0  0  0
 20 24  2  0  0  0  0
 20 47  1  0  0  0  0
 21 48  1  0  0  0  0
 22 23  2  0  0  0  0
 22 24  1  0  0  0  0
 22 25  1  0  0  0  0
 23 49  1  0  0  0  0
 24 50  1  0  0  0  0
 25 26  2  0  0  0  0
 25 27  1  0  0  0  0
 26 29  1  0  0  0  0
 26 51  1  0  0  0  0
 27 30  2  0  0  0  0
 27 52  1  0  0  0  0
 28 29  2  0  0  0  0
 28 30  1  0  0  0  0
 28 31  1  0  0  0  0
 29 53  1  0  0  0  0
 30 54  1  0  0  0  0
M  END
> <PUBCHEM_COMPOUND_CID>
44214764

> <PUBCHEM_COMPOUND_CANONICALIZED>
1

> <PUBCHEM_CACTVS_COMPLEXITY>
574

> <PUBCHEM_CACTVS_HBOND_ACCEPTOR>
5

> <PUBCHEM_CACTVS_HBOND_DONOR>
1

> <PUBCHEM_CACTVS_ROTATABLE_BOND>
5

> <PUBCHEM_CACTVS_SUBSKEYS>
AAADceB7IYAAAAAAAAAAAAAAAAAAAWAAAAAwYMAAAAAAAAABUAAAHwAQAAAADCjBmBQwAIPAAACIAiFSEACCAAAkAAAIiIEIBMgIYDKA1RGUIQhglgCIiYcYiMCOwAAAAAAAAACAAAAAAAAAAAAAAAAAAA==

> <PUBCHEM_IUPAC_OPENEYE_NAME>
N-(1-benzylpyrrolidin-3-yl)-4-[4-(trifluoromethyl)phenyl]benzamide

> <PUBCHEM_IUPAC_CAS_NAME>
N-[1-(phenylmethyl)-3-pyrrolidinyl]-4-[4-(trifluoromethyl)phenyl]benzamide

> <PUBCHEM_IUPAC_NAME_MARKUP>
<I>N</I>-(1-benzylpyrrolidin-3-yl)-4-[4-(trifluoromethyl)phenyl]benzamide

> <PUBCHEM_IUPAC_NAME>
N-(1-benzylpyrrolidin-3-yl)-4-[4-(trifluoromethyl)phenyl]benzamide

> <PUBCHEM_IUPAC_SYSTEMATIC_NAME>
N-[1-(phenylmethyl)pyrrolidin-3-yl]-4-[4-(trifluoromethyl)phenyl]benzamide

> <PUBCHEM_IUPAC_TRADITIONAL_NAME>
N-(1-benzylpyrrolidin-3-yl)-4-[4-(trifluoromethyl)phenyl]benzamide

> <PUBCHEM_IUPAC_INCHI>
InChI=1S/C25H23F3N2O/c26-25(27,28)22-12-10-20(11-13-22)19-6-8-21(9-7-19)24(31)29-23-14-15-30(17-23)16-18-4-2-1-3-5-18/h1-13,23H,14-17H2,(H,29,31)

> <PUBCHEM_IUPAC_INCHIKEY>
CMKZLXVPTDYVOB-UHFFFAOYSA-N

> <PUBCHEM_XLOGP3_AA>
5.4

> <PUBCHEM_EXACT_MASS>
424.17624785

> <PUBCHEM_MOLECULAR_FORMULA>
C25H23F3N2O

> <PUBCHEM_MOLECULAR_WEIGHT>
424.5

> <PUBCHEM_OPENEYE_CAN_SMILES>
C1CN(CC1NC(=O)C2=CC=C(C=C2)C3=CC=C(C=C3)C(F)(F)F)CC4=CC=CC=C4

> <PUBCHEM_OPENEYE_ISO_SMILES>
C1CN(CC1NC(=O)C2=CC=C(C=C2)C3=CC=C(C=C3)C(F)(F)F)CC4=CC=CC=C4

> <PUBCHEM_CACTVS_TPSA>
32.3

> <PUBCHEM_MONOISOTOPIC_WEIGHT>
424.17624785

> <PUBCHEM_TOTAL_CHARGE>
0

> <PUBCHEM_HEAVY_ATOM_COUNT>
31

> <PUBCHEM_ATOM_DEF_STEREO_COUNT>
0

> <PUBCHEM_ATOM_UDEF_STEREO_COUNT>
1

> <PUBCHEM_BOND_DEF_STEREO_COUNT>
0

> <PUBCHEM_BOND_UDEF_STEREO_COUNT>
0

> <PUBCHEM_ISOTOPIC_ATOM_COUNT>
0

> <PUBCHEM_COMPONENT_COUNT>
1

> <PUBCHEM_CACTVS_TAUTO_COUNT>
-1

> <PUBCHEM_COORDINATE_TYPE>
1
5
255

> <PUBCHEM_BONDANNOTATIONS>
12  14  8
12  15  8
14  17  8
15  18  8
16  19  8
16  20  8
17  21  8
18  21  8
19  23  8
20  24  8
22  23  8
22  24  8
25  26  8
25  27  8
26  29  8
27  30  8
28  29  8
28  30  8
7  6  3

$$$$
