137642224
  -OEChem-09292322452D

 45 48  0     0  0  0  0  0  0999 V2000
    7.5673    1.3056    0.0000 N   0  0  0  0  0  0  0  0  0  0  0  0
    8.1886    3.2066    0.0000 N   0  0  0  0  0  0  0  0  0  0  0  0
    6.2781    0.1489    0.0000 N   0  0  0  0  0  0  0  0  0  0  0  0
    7.9244   -0.3892    0.0000 N   0  0  0  0  0  0  0  0  0  0  0  0
    4.6783   -3.5678    0.0000 N   0  0  0  0  0  0  0  0  0  0  0  0
    6.6353   -1.5460    0.0000 N   0  0  0  0  0  0  0  0  0  0  0  0
    8.2816   -2.0840    0.0000 N   0  0  0  0  0  0  0  0  0  0  0  0
    6.8994    2.0499    0.0000 C   0  0  0  0  0  0  0  0  0  0  0  0
    8.5458    1.5118    0.0000 C   0  0  0  0  0  0  0  0  0  0  0  0
    7.2101    3.0004    0.0000 C   0  0  0  0  0  0  0  0  0  0  0  0
    8.8564    2.4623    0.0000 C   0  0  0  0  0  0  0  0  0  0  0  0
    7.2566    0.3551    0.0000 C   0  0  0  0  0  0  0  0  0  0  0  0
    8.4993    4.1572    0.0000 C   0  0  0  0  0  0  0  0  0  0  0  0
    4.9889   -1.0079    0.0000 C   0  0  0  0  0  0  0  0  0  0  0  0
    4.6783   -1.9584    0.0000 C   0  0  0  0  0  0  0  0  0  0  0  0
    5.9674   -0.8016    0.0000 C   0  0  0  0  0  0  0  0  0  0  0  0
    3.7320   -2.2631    0.0000 C   0  0  0  0  0  0  0  0  0  0  0  0
    3.7320   -3.2631    0.0000 C   0  0  0  0  0  0  0  0  0  0  0  0
    5.2619   -2.7631    0.0000 C   0  0  0  0  0  0  0  0  0  0  0  0
    7.6138   -1.3397    0.0000 C   0  0  0  0  0  0  0  0  0  0  0  0
    2.8660   -1.7631    0.0000 C   0  0  0  0  0  0  0  0  0  0  0  0
    2.8660   -3.7631    0.0000 C   0  0  0  0  0  0  0  0  0  0  0  0
    2.0000   -2.2631    0.0000 C   0  0  0  0  0  0  0  0  0  0  0  0
    2.0000   -3.2631    0.0000 C   0  0  0  0  0  0  0  0  0  0  0  0
    6.3525    2.3419    0.0000 H   0  0  0  0  0  0  0  0  0  0  0  0
    6.5169    1.5620    0.0000 H   0  0  0  0  0  0  0  0  0  0  0  0
    8.5663    0.8922    0.0000 H   0  0  0  0  0  0  0  0  0  0  0  0
    9.1596    1.4245    0.0000 H   0  0  0  0  0  0  0  0  0  0  0  0
    7.1895    3.6201    0.0000 H   0  0  0  0  0  0  0  0  0  0  0  0
    6.5963    3.0878    0.0000 H   0  0  0  0  0  0  0  0  0  0  0  0
    9.4034    2.1703    0.0000 H   0  0  0  0  0  0  0  0  0  0  0  0
    9.2390    2.9503    0.0000 H   0  0  0  0  0  0  0  0  0  0  0  0
    9.0886    3.9646    0.0000 H   0  0  0  0  0  0  0  0  0  0  0  0
    8.6919    4.7465    0.0000 H   0  0  0  0  0  0  0  0  0  0  0  0
    7.9099    4.3498    0.0000 H   0  0  0  0  0  0  0  0  0  0  0  0
    4.9684   -0.3882    0.0000 H   0  0  0  0  0  0  0  0  0  0  0  0
    4.3751   -0.9205    0.0000 H   0  0  0  0  0  0  0  0  0  0  0  0
    5.8819   -2.7631    0.0000 H   0  0  0  0  0  0  0  0  0  0  0  0
    4.8709   -4.1572    0.0000 H   0  0  0  0  0  0  0  0  0  0  0  0
    2.8660   -1.1431    0.0000 H   0  0  0  0  0  0  0  0  0  0  0  0
    2.8660   -4.3831    0.0000 H   0  0  0  0  0  0  0  0  0  0  0  0
    1.4631   -1.9531    0.0000 H   0  0  0  0  0  0  0  0  0  0  0  0
    1.4631   -3.5731    0.0000 H   0  0  0  0  0  0  0  0  0  0  0  0
    8.8883   -1.9562    0.0000 H   0  0  0  0  0  0  0  0  0  0  0  0
    8.0890   -2.6734    0.0000 H   0  0  0  0  0  0  0  0  0  0  0  0
  1  8  1  0  0  0  0
  1  9  1  0  0  0  0
  1 12  1  0  0  0  0
  2 10  1  0  0  0  0
  2 11  1  0  0  0  0
  2 13  1  0  0  0  0
  3 12  2  0  0  0  0
  3 16  1  0  0  0  0
  4 12  1  0  0  0  0
  4 20  2  0  0  0  0
  5 18  1  0  0  0  0
  5 19  1  0  0  0  0
  5 39  1  0  0  0  0
  6 16  2  0  0  0  0
  6 20  1  0  0  0  0
  7 20  1  0  0  0  0
  7 44  1  0  0  0  0
  7 45  1  0  0  0  0
  8 10  1  0  0  0  0
  8 25  1  0  0  0  0
  8 26  1  0  0  0  0
  9 11  1  0  0  0  0
  9 27  1  0  0  0  0
  9 28  1  0  0  0  0
 10 29  1  0  0  0  0
 10 30  1  0  0  0  0
 11 31  1  0  0  0  0
 11 32  1  0  0  0  0
 13 33  1  0  0  0  0
 13 34  1  0  0  0  0
 13 35  1  0  0  0  0
 14 15  1  0  0  0  0
 14 16  1  0  0  0  0
 14 36  1  0  0  0  0
 14 37  1  0  0  0  0
 15 17  1  0  0  0  0
 15 19  2  0  0  0  0
 17 18  1  0  0  0  0
 17 21  2  0  0  0  0
 18 22  2  0  0  0  0
 19 38  1  0  0  0  0
 21 23  1  0  0  0  0
 21 40  1  0  0  0  0
 22 24  1  0  0  0  0
 22 41  1  0  0  0  0
 23 24  2  0  0  0  0
 23 42  1  0  0  0  0
 24 43  1  0  0  0  0
M  END
> <PUBCHEM_COMPOUND_CID>
137642224

> <PUBCHEM_COMPOUND_CANONICALIZED>
1

> <PUBCHEM_CACTVS_COMPLEXITY>
412

> <PUBCHEM_CACTVS_HBOND_ACCEPTOR>
6

> <PUBCHEM_CACTVS_HBOND_DONOR>
2

> <PUBCHEM_CACTVS_ROTATABLE_BOND>
3

> <PUBCHEM_CACTVS_SUBSKEYS>
AAADceB7gAAAAAAAAAAAAAAAAAAAAWAAAAA8WIAAAAAAAFgB/AAAHAAQAAAADAjBHwQ/0PfJkACgAzZnZACCgCkxAqAJ2aA4ZJiIaOLAmZGUIAhokALIyAcQgMAOgAAAAAACAAAAAAAAAAQAAAAAAAAAAA==

> <PUBCHEM_IUPAC_OPENEYE_NAME>
4-(1H-indol-3-ylmethyl)-6-(4-methylpiperazin-1-yl)-1,3,5-triazin-2-amine

> <PUBCHEM_IUPAC_CAS_NAME>
4-(1H-indol-3-ylmethyl)-6-(4-methyl-1-piperazinyl)-1,3,5-triazin-2-amine

> <PUBCHEM_IUPAC_NAME_MARKUP>
4-(1<I>H</I>-indol-3-ylmethyl)-6-(4-methylpiperazin-1-yl)-1,3,5-triazin-2-amine

> <PUBCHEM_IUPAC_NAME>
4-(1H-indol-3-ylmethyl)-6-(4-methylpiperazin-1-yl)-1,3,5-triazin-2-amine

> <PUBCHEM_IUPAC_SYSTEMATIC_NAME>
4-(1H-indol-3-ylmethyl)-6-(4-methylpiperazin-1-yl)-1,3,5-triazin-2-amine

> <PUBCHEM_IUPAC_TRADITIONAL_NAME>
[4-(1H-indol-3-ylmethyl)-6-(4-methylpiperazino)-s-triazin-2-yl]amine

> <PUBCHEM_IUPAC_INCHI>
InChI=1S/C17H21N7/c1-23-6-8-24(9-7-23)17-21-15(20-16(18)22-17)10-12-11-19-14-5-3-2-4-13(12)14/h2-5,11,19H,6-10H2,1H3,(H2,18,20,21,22)

> <PUBCHEM_IUPAC_INCHIKEY>
UJCHUXZLJMJSPN-UHFFFAOYSA-N

> <PUBCHEM_XLOGP3_AA>
2

> <PUBCHEM_EXACT_MASS>
323.18584370

> <PUBCHEM_MOLECULAR_FORMULA>
C17H21N7

> <PUBCHEM_MOLECULAR_WEIGHT>
323.4

> <PUBCHEM_OPENEYE_CAN_SMILES>
CN1CCN(CC1)C2=NC(=NC(=N2)N)CC3=CNC4=CC=CC=C43

> <PUBCHEM_OPENEYE_ISO_SMILES>
CN1CCN(CC1)C2=NC(=NC(=N2)N)CC3=CNC4=CC=CC=C43

> <PUBCHEM_CACTVS_TPSA>
87

> <PUBCHEM_MONOISOTOPIC_WEIGHT>
323.18584370

> <PUBCHEM_TOTAL_CHARGE>
0

> <PUBCHEM_HEAVY_ATOM_COUNT>
24

> <PUBCHEM_ATOM_DEF_STEREO_COUNT>
0

> <PUBCHEM_ATOM_UDEF_STEREO_COUNT>
0

> <PUBCHEM_BOND_DEF_STEREO_COUNT>
0

> <PUBCHEM_BOND_UDEF_STEREO_COUNT>
0

> <PUBCHEM_ISOTOPIC_ATOM_COUNT>
0

> <PUBCHEM_COMPONENT_COUNT>
1

> <PUBCHEM_CACTVS_TAUTO_COUNT>
-1

> <PUBCHEM_COORDINATE_TYPE>
1
5
255

> <PUBCHEM_BONDANNOTATIONS>
15  17  8
15  19  8
17  18  8
17  21  8
18  22  8
21  23  8
22  24  8
23  24  8
3  12  8
3  16  8
4  12  8
4  20  8
5  18  8
5  19  8
6  16  8
6  20  8

$$$$
