11304851
  -OEChem-09292322072D

 44 47  0     0  0  0  0  0  0999 V2000
    6.3981   -0.1754    0.0000 S   0  0  0  0  0  0  0  0  0  0  0  0
    6.8981   -1.0414    0.0000 O   0  0  0  0  0  0  0  0  0  0  0  0
    5.8981   -1.0414    0.0000 O   0  0  0  0  0  0  0  0  0  0  0  0
    4.6497    2.8592    0.0000 O   0  0  0  0  0  0  0  0  0  0  0  0
    8.1301   -0.1754    0.0000 O   0  0  0  0  0  0  0  0  0  0  0  0
    2.0000    0.2971    0.0000 O   0  5  0  0  0  0  0  0  0  0  0  0
    2.8718   -1.1995    0.0000 O   0  0  0  0  0  0  0  0  0  0  0  0
    6.3981    1.8246    0.0000 N   0  0  0  0  0  0  0  0  0  0  0  0
    7.2641    0.3246    0.0000 N   0  0  0  0  0  0  0  0  0  0  0  0
    8.1301    1.8246    0.0000 N   0  0  0  0  0  0  0  0  0  0  0  0
    2.8680   -0.1995    0.0000 N   0  3  0  0  0  0  0  0  0  0  0  0
    5.5320    0.3246    0.0000 C   0  0  0  0  0  0  0  0  0  0  0  0
    5.5320    1.3246    0.0000 C   0  0  0  0  0  0  0  0  0  0  0  0
    7.2641    1.3246    0.0000 C   0  0  0  0  0  0  0  0  0  0  0  0
    4.6381   -0.2101    0.0000 C   0  0  0  0  0  0  0  0  0  0  0  0
    4.6381    1.8593    0.0000 C   0  0  0  0  0  0  0  0  0  0  0  0
    3.7320    0.3038    0.0000 C   0  0  0  0  0  0  0  0  0  0  0  0
    3.7320    1.3454    0.0000 C   0  0  0  0  0  0  0  0  0  0  0  0
    8.9962    1.3246    0.0000 C   0  0  0  0  0  0  0  0  0  0  0  0
    8.9962    0.3246    0.0000 C   0  0  0  0  0  0  0  0  0  0  0  0
    9.8622    1.8246    0.0000 C   0  0  0  0  0  0  0  0  0  0  0  0
    9.8622   -0.1754    0.0000 C   0  0  0  0  0  0  0  0  0  0  0  0
   10.7282    1.3246    0.0000 C   0  0  0  0  0  0  0  0  0  0  0  0
   10.7282    0.3246    0.0000 C   0  0  0  0  0  0  0  0  0  0  0  0
    8.1301   -1.1754    0.0000 C   0  0  0  0  0  0  0  0  0  0  0  0
    8.9962   -1.6754    0.0000 C   0  0  0  0  0  0  0  0  0  0  0  0
    7.2641   -1.6754    0.0000 C   0  0  0  0  0  0  0  0  0  0  0  0
    8.9962   -2.6754    0.0000 C   0  0  0  0  0  0  0  0  0  0  0  0
    7.2641   -2.6754    0.0000 C   0  0  0  0  0  0  0  0  0  0  0  0
    8.1301   -3.1754    0.0000 C   0  0  0  0  0  0  0  0  0  0  0  0
    6.3981    2.4446    0.0000 H   0  0  0  0  0  0  0  0  0  0  0  0
    4.6453   -0.8300    0.0000 H   0  0  0  0  0  0  0  0  0  0  0  0
    3.1963    1.6575    0.0000 H   0  0  0  0  0  0  0  0  0  0  0  0
    8.1301    2.4446    0.0000 H   0  0  0  0  0  0  0  0  0  0  0  0
    9.8622    2.4446    0.0000 H   0  0  0  0  0  0  0  0  0  0  0  0
    9.8622   -0.7954    0.0000 H   0  0  0  0  0  0  0  0  0  0  0  0
   11.2651    1.6346    0.0000 H   0  0  0  0  0  0  0  0  0  0  0  0
    4.1164    3.1754    0.0000 H   0  0  0  0  0  0  0  0  0  0  0  0
   11.2651    0.0146    0.0000 H   0  0  0  0  0  0  0  0  0  0  0  0
    9.5331   -1.3654    0.0000 H   0  0  0  0  0  0  0  0  0  0  0  0
    6.7272   -1.3654    0.0000 H   0  0  0  0  0  0  0  0  0  0  0  0
    9.5331   -2.9854    0.0000 H   0  0  0  0  0  0  0  0  0  0  0  0
    6.7272   -2.9854    0.0000 H   0  0  0  0  0  0  0  0  0  0  0  0
    8.1301   -3.7954    0.0000 H   0  0  0  0  0  0  0  0  0  0  0  0
  1  2  2  0  0  0  0
  1  3  2  0  0  0  0
  1  9  1  0  0  0  0
  1 12  1  0  0  0  0
  4 16  1  0  0  0  0
  4 38  1  0  0  0  0
  5 20  1  0  0  0  0
  5 25  1  0  0  0  0
  6 11  1  0  0  0  0
  7 11  2  0  0  0  0
  8 13  1  0  0  0  0
  8 14  1  0  0  0  0
  8 31  1  0  0  0  0
  9 14  2  0  0  0  0
 10 14  1  0  0  0  0
 10 19  1  0  0  0  0
 10 34  1  0  0  0  0
 11 17  1  0  0  0  0
 12 13  1  0  0  0  0
 12 15  2  0  0  0  0
 13 16  2  0  0  0  0
 15 17  1  0  0  0  0
 15 32  1  0  0  0  0
 16 18  1  0  0  0  0
 17 18  2  0  0  0  0
 18 33  1  0  0  0  0
 19 20  1  0  0  0  0
 19 21  2  0  0  0  0
 20 22  2  0  0  0  0
 21 23  1  0  0  0  0
 21 35  1  0  0  0  0
 22 24  1  0  0  0  0
 22 36  1  0  0  0  0
 23 24  2  0  0  0  0
 23 37  1  0  0  0  0
 24 39  1  0  0  0  0
 25 26  2  0  0  0  0
 25 27  1  0  0  0  0
 26 28  1  0  0  0  0
 26 40  1  0  0  0  0
 27 29  2  0  0  0  0
 27 41  1  0  0  0  0
 28 30  2  0  0  0  0
 28 42  1  0  0  0  0
 29 30  1  0  0  0  0
 29 43  1  0  0  0  0
 30 44  1  0  0  0  0
M  CHG  2   6  -1  11   1
M  END
> <PUBCHEM_COMPOUND_CID>
11304851

> <PUBCHEM_COMPOUND_CANONICALIZED>
1

> <PUBCHEM_CACTVS_COMPLEXITY>
758

> <PUBCHEM_CACTVS_HBOND_ACCEPTOR>
7

> <PUBCHEM_CACTVS_HBOND_DONOR>
3

> <PUBCHEM_CACTVS_ROTATABLE_BOND>
4

> <PUBCHEM_CACTVS_SUBSKEYS>
AAADccB7uABAAAAAAAAAAAAAAAAAAAAAAAAwYMEAAAAAAACBUAAAHgQUSAAACAyB0AAxx4LQRgKhACRCY3DCCBAhIgApiBwHbIqOJiLWuZuHeCzu0BtY+CeQUAEAAACABiAAEQAAAQAMQAAiAAAAAAAAAA==

> <PUBCHEM_IUPAC_OPENEYE_NAME>
7-nitro-1,1-dioxo-3-(2-phenoxyanilino)-4H-1lambda6,2,4-benzothiadiazin-5-ol

> <PUBCHEM_IUPAC_CAS_NAME>
7-nitro-1,1-dioxo-3-(2-phenoxyanilino)-4H-1lambda6,2,4-benzothiadiazin-5-ol

> <PUBCHEM_IUPAC_NAME_MARKUP>
7-nitro-1,1-dioxo-3-(2-phenoxyanilino)-4<I>H</I>-1&lambda;<SUP>6</SUP>,2,4-benzothiadiazin-5-ol

> <PUBCHEM_IUPAC_NAME>
7-nitro-1,1-dioxo-3-(2-phenoxyanilino)-4H-1lambda6,2,4-benzothiadiazin-5-ol

> <PUBCHEM_IUPAC_SYSTEMATIC_NAME>
7-nitro-1,1-bis(oxidanylidene)-3-[(2-phenoxyphenyl)amino]-4H-1lambda6,2,4-benzothiadiazin-5-ol

> <PUBCHEM_IUPAC_TRADITIONAL_NAME>
1,1-diketo-7-nitro-3-(2-phenoxyanilino)-4H-1lambda6,2,4-benzothiadiazin-5-ol

> <PUBCHEM_IUPAC_INCHI>
InChI=1S/C19H14N4O6S/c24-15-10-12(23(25)26)11-17-18(15)21-19(22-30(17,27)28)20-14-8-4-5-9-16(14)29-13-6-2-1-3-7-13/h1-11,24H,(H2,20,21,22)

> <PUBCHEM_IUPAC_INCHIKEY>
YRQLRCRBEYSAIN-UHFFFAOYSA-N

> <PUBCHEM_XLOGP3_AA>
2.8

> <PUBCHEM_EXACT_MASS>
426.06340535

> <PUBCHEM_MOLECULAR_FORMULA>
C19H14N4O6S

> <PUBCHEM_MOLECULAR_WEIGHT>
426.4

> <PUBCHEM_OPENEYE_CAN_SMILES>
C1=CC=C(C=C1)OC2=CC=CC=C2NC3=NS(=O)(=O)C4=CC(=CC(=C4N3)O)[N+](=O)[O-]

> <PUBCHEM_OPENEYE_ISO_SMILES>
C1=CC=C(C=C1)OC2=CC=CC=C2NC3=NS(=O)(=O)C4=CC(=CC(=C4N3)O)[N+](=O)[O-]

> <PUBCHEM_CACTVS_TPSA>
154

> <PUBCHEM_MONOISOTOPIC_WEIGHT>
426.06340535

> <PUBCHEM_TOTAL_CHARGE>
0

> <PUBCHEM_HEAVY_ATOM_COUNT>
30

> <PUBCHEM_ATOM_DEF_STEREO_COUNT>
0

> <PUBCHEM_ATOM_UDEF_STEREO_COUNT>
0

> <PUBCHEM_BOND_DEF_STEREO_COUNT>
0

> <PUBCHEM_BOND_UDEF_STEREO_COUNT>
0

> <PUBCHEM_ISOTOPIC_ATOM_COUNT>
0

> <PUBCHEM_COMPONENT_COUNT>
1

> <PUBCHEM_CACTVS_TAUTO_COUNT>
-1

> <PUBCHEM_COORDINATE_TYPE>
1
5
255

> <PUBCHEM_BONDANNOTATIONS>
12  13  8
12  15  8
13  16  8
15  17  8
16  18  8
17  18  8
19  20  8
19  21  8
20  22  8
21  23  8
22  24  8
23  24  8
25  26  8
25  27  8
26  28  8
27  29  8
28  30  8
29  30  8

$$$$
