49865589
  -OEChem-09292322302D

 43 46  0     1  0  0  0  0  0999 V2000
    5.0249    1.9045    0.0000 S   0  0  0  0  0  0  0  0  0  0  0  0
    4.5249    2.7705    0.0000 O   0  0  0  0  0  0  0  0  0  0  0  0
    5.5249    1.0385    0.0000 O   0  0  0  0  0  0  0  0  0  0  0  0
    2.6200   -3.0955    0.0000 N   0  0  0  0  0  0  0  0  0  0  0  0
    4.1588    1.4045    0.0000 N   0  0  3  0  0  0  0  0  0  0  0  0
    4.1588   -2.5955    0.0000 C   0  0  1  0  0  0  0  0  0  0  0  0
    4.1588   -3.5955    0.0000 C   0  0  2  0  0  0  0  0  0  0  0  0
    5.0254   -3.0955    0.0000 C   0  0  0  0  0  0  0  0  0  0  0  0
    3.2078   -2.2865    0.0000 C   0  0  0  0  0  0  0  0  0  0  0  0
    3.2078   -3.9045    0.0000 C   0  0  0  0  0  0  0  0  0  0  0  0
    4.1588   -1.5955    0.0000 C   0  0  0  0  0  0  0  0  0  0  0  0
    3.2928   -1.0955    0.0000 C   0  0  0  0  0  0  0  0  0  0  0  0
    5.0249   -1.0955    0.0000 C   0  0  0  0  0  0  0  0  0  0  0  0
    3.2928   -0.0955    0.0000 C   0  0  0  0  0  0  0  0  0  0  0  0
    5.0249   -0.0955    0.0000 C   0  0  0  0  0  0  0  0  0  0  0  0
    4.1588    0.4045    0.0000 C   0  0  0  0  0  0  0  0  0  0  0  0
    3.2928    1.9045    0.0000 C   0  0  0  0  0  0  0  0  0  0  0  0
    5.8909    2.4045    0.0000 C   0  0  0  0  0  0  0  0  0  0  0  0
    5.8909    3.4045    0.0000 C   0  0  0  0  0  0  0  0  0  0  0  0
    6.7569    1.9045    0.0000 C   0  0  0  0  0  0  0  0  0  0  0  0
    6.7569    3.9045    0.0000 C   0  0  0  0  0  0  0  0  0  0  0  0
    7.6229    2.4045    0.0000 C   0  0  0  0  0  0  0  0  0  0  0  0
    7.6229    3.4045    0.0000 C   0  0  0  0  0  0  0  0  0  0  0  0
    4.5045   -4.3720    0.0000 H   0  0  0  0  0  0  0  0  0  0  0  0
    5.4239   -3.5705    0.0000 H   0  0  0  0  0  0  0  0  0  0  0  0
    5.4239   -2.6205    0.0000 H   0  0  0  0  0  0  0  0  0  0  0  0
    3.4600   -1.7201    0.0000 H   0  0  0  0  0  0  0  0  0  0  0  0
    2.6708   -1.9765    0.0000 H   0  0  0  0  0  0  0  0  0  0  0  0
    2.6708   -4.2145    0.0000 H   0  0  0  0  0  0  0  0  0  0  0  0
    3.4600   -4.4709    0.0000 H   0  0  0  0  0  0  0  0  0  0  0  0
    2.0000   -3.0955    0.0000 H   0  0  0  0  0  0  0  0  0  0  0  0
    2.7559   -1.4055    0.0000 H   0  0  0  0  0  0  0  0  0  0  0  0
    5.5618   -1.4055    0.0000 H   0  0  0  0  0  0  0  0  0  0  0  0
    2.7559    0.2145    0.0000 H   0  0  0  0  0  0  0  0  0  0  0  0
    5.5618    0.2145    0.0000 H   0  0  0  0  0  0  0  0  0  0  0  0
    3.6028    2.4414    0.0000 H   0  0  0  0  0  0  0  0  0  0  0  0
    2.7559    2.2145    0.0000 H   0  0  0  0  0  0  0  0  0  0  0  0
    2.9828    1.3676    0.0000 H   0  0  0  0  0  0  0  0  0  0  0  0
    5.3540    3.7145    0.0000 H   0  0  0  0  0  0  0  0  0  0  0  0
    6.7569    1.2845    0.0000 H   0  0  0  0  0  0  0  0  0  0  0  0
    6.7569    4.5245    0.0000 H   0  0  0  0  0  0  0  0  0  0  0  0
    8.1599    2.0945    0.0000 H   0  0  0  0  0  0  0  0  0  0  0  0
    8.1599    3.7145    0.0000 H   0  0  0  0  0  0  0  0  0  0  0  0
  1  2  2  0  0  0  0
  1  3  2  0  0  0  0
  1  5  1  0  0  0  0
  1 18  1  0  0  0  0
  4  9  1  0  0  0  0
  4 10  1  0  0  0  0
  4 31  1  0  0  0  0
  5 16  1  0  0  0  0
  5 17  1  0  0  0  0
  6  7  1  0  0  0  0
  6  8  1  0  0  0  0
  6  9  1  0  0  0  0
  6 11  1  1  0  0  0
  7  8  1  0  0  0  0
  7 10  1  0  0  0  0
  7 24  1  1  0  0  0
  8 25  1  0  0  0  0
  8 26  1  0  0  0  0
  9 27  1  0  0  0  0
  9 28  1  0  0  0  0
 10 29  1  0  0  0  0
 10 30  1  0  0  0  0
 11 12  2  0  0  0  0
 11 13  1  0  0  0  0
 12 14  1  0  0  0  0
 12 32  1  0  0  0  0
 13 15  2  0  0  0  0
 13 33  1  0  0  0  0
 14 16  2  0  0  0  0
 14 34  1  0  0  0  0
 15 16  1  0  0  0  0
 15 35  1  0  0  0  0
 17 36  1  0  0  0  0
 17 37  1  0  0  0  0
 17 38  1  0  0  0  0
 18 19  2  0  0  0  0
 18 20  1  0  0  0  0
 19 21  1  0  0  0  0
 19 39  1  0  0  0  0
 20 22  2  0  0  0  0
 20 40  1  0  0  0  0
 21 23  2  0  0  0  0
 21 41  1  0  0  0  0
 22 23  1  0  0  0  0
 22 42  1  0  0  0  0
 23 43  1  0  0  0  0
M  END
> <PUBCHEM_COMPOUND_CID>
49865589

> <PUBCHEM_COMPOUND_CANONICALIZED>
1

> <PUBCHEM_CACTVS_COMPLEXITY>
530

> <PUBCHEM_CACTVS_HBOND_ACCEPTOR>
4

> <PUBCHEM_CACTVS_HBOND_DONOR>
1

> <PUBCHEM_CACTVS_ROTATABLE_BOND>
4

> <PUBCHEM_CACTVS_SUBSKEYS>
AAADceB7MABAAAAAAAAAAAAAGAAAAWAAAAA8YIAAAAAAAAABQAAAHAQQQAAADwjBWAQywYLAAAKAAiRCQHDCABAhAgAIiJgIZIgIICLAkZGEIAhgkADIyAcQgMAPiAAAAAAAAAAQAAAAAAAAAAAAAAAAAA==

> <PUBCHEM_IUPAC_OPENEYE_NAME>
N-[4-[(1R,5S)-3-azabicyclo[3.1.0]hexan-1-yl]phenyl]-N-methyl-benzenesulfonamide

> <PUBCHEM_IUPAC_CAS_NAME>
N-[4-[(1R,5S)-3-azabicyclo[3.1.0]hexan-1-yl]phenyl]-N-methylbenzenesulfonamide

> <PUBCHEM_IUPAC_NAME_MARKUP>
<I>N</I>-[4-[(1<I>R</I>,5<I>S</I>)-3-azabicyclo[3.1.0]hexan-1-yl]phenyl]-<I>N</I>-methylbenzenesulfonamide

> <PUBCHEM_IUPAC_NAME>
N-[4-[(1R,5S)-3-azabicyclo[3.1.0]hexan-1-yl]phenyl]-N-methylbenzenesulfonamide

> <PUBCHEM_IUPAC_SYSTEMATIC_NAME>
N-[4-[(1R,5S)-3-azabicyclo[3.1.0]hexan-1-yl]phenyl]-N-methyl-benzenesulfonamide

> <PUBCHEM_IUPAC_TRADITIONAL_NAME>
N-[4-[(1R,5S)-3-azabicyclo[3.1.0]hexan-1-yl]phenyl]-N-methyl-benzenesulfonamide

> <PUBCHEM_IUPAC_INCHI>
InChI=1S/C18H20N2O2S/c1-20(23(21,22)17-5-3-2-4-6-17)16-9-7-14(8-10-16)18-11-15(18)12-19-13-18/h2-10,15,19H,11-13H2,1H3/t15-,18+/m1/s1

> <PUBCHEM_IUPAC_INCHIKEY>
KATDCUORFQOJBY-QAPCUYQASA-N

> <PUBCHEM_XLOGP3_AA>
2.4

> <PUBCHEM_EXACT_MASS>
328.12454906

> <PUBCHEM_MOLECULAR_FORMULA>
C18H20N2O2S

> <PUBCHEM_MOLECULAR_WEIGHT>
328.4

> <PUBCHEM_OPENEYE_CAN_SMILES>
CN(C1=CC=C(C=C1)C23CC2CNC3)S(=O)(=O)C4=CC=CC=C4

> <PUBCHEM_OPENEYE_ISO_SMILES>
CN(C1=CC=C(C=C1)[C@@]23C[C@@H]2CNC3)S(=O)(=O)C4=CC=CC=C4

> <PUBCHEM_CACTVS_TPSA>
57.8

> <PUBCHEM_MONOISOTOPIC_WEIGHT>
328.12454906

> <PUBCHEM_TOTAL_CHARGE>
0

> <PUBCHEM_HEAVY_ATOM_COUNT>
23

> <PUBCHEM_ATOM_DEF_STEREO_COUNT>
2

> <PUBCHEM_ATOM_UDEF_STEREO_COUNT>
0

> <PUBCHEM_BOND_DEF_STEREO_COUNT>
0

> <PUBCHEM_BOND_UDEF_STEREO_COUNT>
0

> <PUBCHEM_ISOTOPIC_ATOM_COUNT>
0

> <PUBCHEM_COMPONENT_COUNT>
1

> <PUBCHEM_CACTVS_TAUTO_COUNT>
-1

> <PUBCHEM_COORDINATE_TYPE>
1
5
255

> <PUBCHEM_BONDANNOTATIONS>
11  12  8
11  13  8
12  14  8
13  15  8
14  16  8
15  16  8
18  19  8
18  20  8
19  21  8
20  22  8
21  23  8
22  23  8
6  11  5
7  24  5

$$$$
