165112403
  -OEChem-09292322452D

 75 79  0     1  0  0  0  0  0999 V2000
   20.3956   -1.6838    0.0000 F   0  0  0  0  0  0  0  0  0  0  0  0
   19.5238   -3.1805    0.0000 F   0  0  0  0  0  0  0  0  0  0  0  0
    7.4409    1.4484    0.0000 O   0  0  0  0  0  0  0  0  0  0  0  0
   17.7956   -2.1738    0.0000 O   0  0  0  0  0  0  0  0  0  0  0  0
   12.9409   -1.1496    0.0000 N   0  0  3  0  0  0  0  0  0  0  0  0
    7.4409   -0.2836    0.0000 N   0  0  0  0  0  0  0  0  0  0  0  0
   16.0255   -2.1843    0.0000 N   0  0  0  0  0  0  0  0  0  0  0  0
    2.8660    1.1165    0.0000 N   0  0  0  0  0  0  0  0  0  0  0  0
    2.9691    2.1052    0.0000 N   0  0  0  0  0  0  0  0  0  0  0  0
   10.4409   -0.2836    0.0000 C   0  0  0  0  0  0  0  0  0  0  0  0
    9.9409   -1.1496    0.0000 C   0  0  0  0  0  0  0  0  0  0  0  0
    9.9409    0.5824    0.0000 C   0  0  0  0  0  0  0  0  0  0  0  0
    8.4409   -0.2836    0.0000 C   0  0  0  0  0  0  0  0  0  0  0  0
    8.9409   -1.1496    0.0000 C   0  0  0  0  0  0  0  0  0  0  0  0
    8.9409    0.5824    0.0000 C   0  0  0  0  0  0  0  0  0  0  0  0
   11.4409   -0.2836    0.0000 C   0  0  0  0  0  0  0  0  0  0  0  0
   11.9409   -1.1496    0.0000 C   0  0  0  0  0  0  0  0  0  0  0  0
   13.3748   -0.2487    0.0000 C   0  0  0  0  0  0  0  0  0  0  0  0
   13.3748   -2.0506    0.0000 C   0  0  0  0  0  0  0  0  0  0  0  0
   14.3497   -0.0262    0.0000 C   0  0  0  0  0  0  0  0  0  0  0  0
   14.3497   -2.2731    0.0000 C   0  0  0  0  0  0  0  0  0  0  0  0
    6.9409    0.5824    0.0000 C   0  0  0  0  0  0  0  0  0  0  0  0
   15.1315   -0.6497    0.0000 C   0  0  0  0  0  0  0  0  0  0  0  0
   15.1315   -1.6496    0.0000 C   0  0  0  0  0  0  0  0  0  0  0  0
    5.9409    0.5824    0.0000 C   0  0  0  0  0  0  0  0  0  0  0  0
   16.0255   -0.1150    0.0000 C   0  0  0  0  0  0  0  0  0  0  0  0
    5.4409    1.4484    0.0000 C   0  0  0  0  0  0  0  0  0  0  0  0
   16.9315   -0.6288    0.0000 C   0  0  0  0  0  0  0  0  0  0  0  0
   16.9315   -1.6705    0.0000 C   0  0  0  0  0  0  0  0  0  0  0  0
    4.4409    1.4484    0.0000 C   0  0  0  0  0  0  0  0  0  0  0  0
    5.9409    2.3144    0.0000 C   0  0  0  0  0  0  0  0  0  0  0  0
    3.9409    2.3144    0.0000 C   0  0  0  0  0  0  0  0  0  0  0  0
    3.7738    0.7114    0.0000 C   0  0  0  0  0  0  0  0  0  0  0  0
    5.4409    3.1805    0.0000 C   0  0  0  0  0  0  0  0  0  0  0  0
    4.4409    3.1805    0.0000 C   0  0  0  0  0  0  0  0  0  0  0  0
   18.6636   -1.6772    0.0000 C   0  0  0  0  0  0  0  0  0  0  0  0
    2.0000    0.6165    0.0000 C   0  0  0  0  0  0  0  0  0  0  0  0
   19.5277   -2.1805    0.0000 C   0  0  0  0  0  0  0  0  0  0  0  0
   10.7509    0.2533    0.0000 H   0  0  0  0  0  0  0  0  0  0  0  0
    9.8332   -1.7602    0.0000 H   0  0  0  0  0  0  0  0  0  0  0  0
   10.5235   -1.3617    0.0000 H   0  0  0  0  0  0  0  0  0  0  0  0
   10.5235    0.7944    0.0000 H   0  0  0  0  0  0  0  0  0  0  0  0
    9.8332    1.1930    0.0000 H   0  0  0  0  0  0  0  0  0  0  0  0
    8.1309    0.2533    0.0000 H   0  0  0  0  0  0  0  0  0  0  0  0
    8.3583   -1.3617    0.0000 H   0  0  0  0  0  0  0  0  0  0  0  0
    9.0486   -1.7602    0.0000 H   0  0  0  0  0  0  0  0  0  0  0  0
    9.0486    1.1930    0.0000 H   0  0  0  0  0  0  0  0  0  0  0  0
    8.3583    0.7944    0.0000 H   0  0  0  0  0  0  0  0  0  0  0  0
   12.0235   -0.0716    0.0000 H   0  0  0  0  0  0  0  0  0  0  0  0
   11.3332    0.3270    0.0000 H   0  0  0  0  0  0  0  0  0  0  0  0
   11.3583   -1.3617    0.0000 H   0  0  0  0  0  0  0  0  0  0  0  0
   12.0486   -1.7602    0.0000 H   0  0  0  0  0  0  0  0  0  0  0  0
    7.1309   -0.8206    0.0000 H   0  0  0  0  0  0  0  0  0  0  0  0
   13.3748    0.3713    0.0000 H   0  0  0  0  0  0  0  0  0  0  0  0
   12.7703   -0.1107    0.0000 H   0  0  0  0  0  0  0  0  0  0  0  0
   12.7703   -2.1886    0.0000 H   0  0  0  0  0  0  0  0  0  0  0  0
   13.3748   -2.6706    0.0000 H   0  0  0  0  0  0  0  0  0  0  0  0
   14.8344    0.3604    0.0000 H   0  0  0  0  0  0  0  0  0  0  0  0
   14.0807    0.5324    0.0000 H   0  0  0  0  0  0  0  0  0  0  0  0
   14.0807   -2.8317    0.0000 H   0  0  0  0  0  0  0  0  0  0  0  0
   14.8344   -2.6597    0.0000 H   0  0  0  0  0  0  0  0  0  0  0  0
    5.3583    0.3703    0.0000 H   0  0  0  0  0  0  0  0  0  0  0  0
    6.0486   -0.0282    0.0000 H   0  0  0  0  0  0  0  0  0  0  0  0
   16.0183    0.5050    0.0000 H   0  0  0  0  0  0  0  0  0  0  0  0
   17.4673   -0.3168    0.0000 H   0  0  0  0  0  0  0  0  0  0  0  0
    6.5609    2.3144    0.0000 H   0  0  0  0  0  0  0  0  0  0  0  0
    3.9017    0.1047    0.0000 H   0  0  0  0  0  0  0  0  0  0  0  0
    5.7509    3.7174    0.0000 H   0  0  0  0  0  0  0  0  0  0  0  0
    4.1309    3.7174    0.0000 H   0  0  0  0  0  0  0  0  0  0  0  0
   19.0639   -1.2037    0.0000 H   0  0  0  0  0  0  0  0  0  0  0  0
   18.2669   -1.2007    0.0000 H   0  0  0  0  0  0  0  0  0  0  0  0
    1.6900    1.1535    0.0000 H   0  0  0  0  0  0  0  0  0  0  0  0
    1.4631    0.3065    0.0000 H   0  0  0  0  0  0  0  0  0  0  0  0
    2.3100    0.0796    0.0000 H   0  0  0  0  0  0  0  0  0  0  0  0
   19.5301   -1.5605    0.0000 H   0  0  0  0  0  0  0  0  0  0  0  0
  1 38  1  0  0  0  0
  2 38  1  0  0  0  0
  3 22  2  0  0  0  0
  4 29  1  0  0  0  0
  4 36  1  0  0  0  0
  5 17  1  0  0  0  0
  5 18  1  0  0  0  0
  5 19  1  0  0  0  0
  6 13  1  0  0  0  0
  6 22  1  0  0  0  0
  6 53  1  0  0  0  0
  7 24  1  0  0  0  0
  7 29  2  0  0  0  0
  8  9  1  0  0  0  0
  8 33  1  0  0  0  0
  8 37  1  0  0  0  0
  9 32  2  0  0  0  0
 10 11  1  0  0  0  0
 10 12  1  0  0  0  0
 10 16  1  0  0  0  0
 10 39  1  0  0  0  0
 11 14  1  0  0  0  0
 11 40  1  0  0  0  0
 11 41  1  0  0  0  0
 12 15  1  0  0  0  0
 12 42  1  0  0  0  0
 12 43  1  0  0  0  0
 13 14  1  0  0  0  0
 13 15  1  0  0  0  0
 13 44  1  0  0  0  0
 14 45  1  0  0  0  0
 14 46  1  0  0  0  0
 15 47  1  0  0  0  0
 15 48  1  0  0  0  0
 16 17  1  0  0  0  0
 16 49  1  0  0  0  0
 16 50  1  0  0  0  0
 17 51  1  0  0  0  0
 17 52  1  0  0  0  0
 18 20  1  0  0  0  0
 18 54  1  0  0  0  0
 18 55  1  0  0  0  0
 19 21  1  0  0  0  0
 19 56  1  0  0  0  0
 19 57  1  0  0  0  0
 20 23  1  0  0  0  0
 20 58  1  0  0  0  0
 20 59  1  0  0  0  0
 21 24  1  0  0  0  0
 21 60  1  0  0  0  0
 21 61  1  0  0  0  0
 22 25  1  0  0  0  0
 23 24  2  0  0  0  0
 23 26  1  0  0  0  0
 25 27  1  0  0  0  0
 25 62  1  0  0  0  0
 25 63  1  0  0  0  0
 26 28  2  0  0  0  0
 26 64  1  0  0  0  0
 27 30  1  0  0  0  0
 27 31  2  0  0  0  0
 28 29  1  0  0  0  0
 28 65  1  0  0  0  0
 30 32  1  0  0  0  0
 30 33  2  0  0  0  0
 31 34  1  0  0  0  0
 31 66  1  0  0  0  0
 32 35  1  0  0  0  0
 33 67  1  0  0  0  0
 34 35  2  0  0  0  0
 34 68  1  0  0  0  0
 35 69  1  0  0  0  0
 36 38  1  0  0  0  0
 36 70  1  0  0  0  0
 36 71  1  0  0  0  0
 37 72  1  0  0  0  0
 37 73  1  0  0  0  0
 37 74  1  0  0  0  0
 38 75  1  0  0  0  0
M  END
> <PUBCHEM_COMPOUND_CID>
165112403

> <PUBCHEM_COMPOUND_CANONICALIZED>
1

> <PUBCHEM_CACTVS_COMPLEXITY>
753

> <PUBCHEM_CACTVS_HBOND_ACCEPTOR>
7

> <PUBCHEM_CACTVS_HBOND_DONOR>
1

> <PUBCHEM_CACTVS_ROTATABLE_BOND>
9

> <PUBCHEM_CACTVS_SUBSKEYS>
AAADcfB7sYAAAAAAAAAAAAAAAAAAAWAAAAA8YIAABYAAAFgB/AAAHwAYAAAADSjhnhY+xPPIFACqAzV3VACSjCAxoiAY2KE+bJgMJvLE9duOvCjk3hHI6AeY2aGegAAAQAASAAAQAACAACQAAAAAAAAAAA==

> <PUBCHEM_IUPAC_OPENEYE_NAME>
N-[4-[2-[2-(2,2-difluoroethoxy)-5,6,8,9-tetrahydropyrido[2,3-d]azepin-7-yl]ethyl]cyclohexyl]-2-(2-methylindazol-4-yl)acetamide

> <PUBCHEM_IUPAC_CAS_NAME>
N-[4-[2-[2-(2,2-difluoroethoxy)-5,6,8,9-tetrahydropyrido[2,3-d]azepin-7-yl]ethyl]cyclohexyl]-2-(2-methyl-4-indazolyl)acetamide

> <PUBCHEM_IUPAC_NAME_MARKUP>
<I>N</I>-[4-[2-[2-(2,2-difluoroethoxy)-5,6,8,9-tetrahydropyrido[2,3-d]azepin-7-yl]ethyl]cyclohexyl]-2-(2-methylindazol-4-yl)acetamide

> <PUBCHEM_IUPAC_NAME>
N-[4-[2-[2-(2,2-difluoroethoxy)-5,6,8,9-tetrahydropyrido[2,3-d]azepin-7-yl]ethyl]cyclohexyl]-2-(2-methylindazol-4-yl)acetamide

> <PUBCHEM_IUPAC_SYSTEMATIC_NAME>
N-[4-[2-[2-[2,2-bis(fluoranyl)ethoxy]-5,6,8,9-tetrahydropyrido[2,3-d]azepin-7-yl]ethyl]cyclohexyl]-2-(2-methylindazol-4-yl)ethanamide

> <PUBCHEM_IUPAC_TRADITIONAL_NAME>
N-[4-[2-[2-(2,2-difluoroethoxy)-5,6,8,9-tetrahydropyrid[2,3-d]azepin-7-yl]ethyl]cyclohexyl]-2-(2-methylindazol-4-yl)acetamide

> <PUBCHEM_IUPAC_INCHI>
InChI=1S/C29H37F2N5O2/c1-35-18-24-22(3-2-4-26(24)34-35)17-28(37)32-23-8-5-20(6-9-23)11-14-36-15-12-21-7-10-29(38-19-27(30)31)33-25(21)13-16-36/h2-4,7,10,18,20,23,27H,5-6,8-9,11-17,19H2,1H3,(H,32,37)

> <PUBCHEM_IUPAC_INCHIKEY>
RRJQXEPYGACJSE-UHFFFAOYSA-N

> <PUBCHEM_XLOGP3_AA>
4.8

> <PUBCHEM_EXACT_MASS>
525.29153176

> <PUBCHEM_MOLECULAR_FORMULA>
C29H37F2N5O2

> <PUBCHEM_MOLECULAR_WEIGHT>
525.6

> <PUBCHEM_OPENEYE_CAN_SMILES>
CN1C=C2C(=N1)C=CC=C2CC(=O)NC3CCC(CC3)CCN4CCC5=C(CC4)N=C(C=C5)OCC(F)F

> <PUBCHEM_OPENEYE_ISO_SMILES>
CN1C=C2C(=N1)C=CC=C2CC(=O)NC3CCC(CC3)CCN4CCC5=C(CC4)N=C(C=C5)OCC(F)F

> <PUBCHEM_CACTVS_TPSA>
72.3

> <PUBCHEM_MONOISOTOPIC_WEIGHT>
525.29153176

> <PUBCHEM_TOTAL_CHARGE>
0

> <PUBCHEM_HEAVY_ATOM_COUNT>
38

> <PUBCHEM_ATOM_DEF_STEREO_COUNT>
0

> <PUBCHEM_ATOM_UDEF_STEREO_COUNT>
0

> <PUBCHEM_BOND_DEF_STEREO_COUNT>
0

> <PUBCHEM_BOND_UDEF_STEREO_COUNT>
0

> <PUBCHEM_ISOTOPIC_ATOM_COUNT>
0

> <PUBCHEM_COMPONENT_COUNT>
1

> <PUBCHEM_CACTVS_TAUTO_COUNT>
-1

> <PUBCHEM_COORDINATE_TYPE>
1
5
255

> <PUBCHEM_BONDANNOTATIONS>
23  24  8
23  26  8
26  28  8
27  30  8
27  31  8
28  29  8
30  32  8
30  33  8
31  34  8
32  35  8
34  35  8
7  24  8
7  29  8
8  33  8
8  9  8
9  32  8

$$$$
