44454402
  -OEChem-09292322492D

 60 64  0     1  0  0  0  0  0999 V2000
    8.7062    2.8773    0.0000 S   0  0  0  0  0  0  0  0  0  0  0  0
    3.4887   -4.3050    0.0000 O   0  0  0  0  0  0  0  0  0  0  0  0
   12.0541    4.9651    0.0000 O   0  0  0  0  0  0  0  0  0  0  0  0
    5.2062    0.2792    0.0000 N   0  0  3  0  0  0  0  0  0  0  0  0
    2.0949   -3.5003    0.0000 N   0  0  0  0  0  0  0  0  0  0  0  0
   10.2940    3.6863    0.0000 N   0  0  0  0  0  0  0  0  0  0  0  0
   10.2940    2.0683    0.0000 N   0  0  0  0  0  0  0  0  0  0  0  0
   11.2451    2.3773    0.0000 N   0  0  0  0  0  0  0  0  0  0  0  0
   13.5929    4.4651    0.0000 N   0  0  0  0  0  0  0  0  0  0  0  0
    5.7598   -0.5304    0.0000 C   0  0  0  0  0  0  0  0  0  0  0  0
    4.2283    0.3539    0.0000 C   0  0  0  0  0  0  0  0  0  0  0  0
    5.4745   -1.4688    0.0000 C   0  0  0  0  0  0  0  0  0  0  0  0
    3.5583   -0.3624    0.0000 C   0  0  0  0  0  0  0  0  0  0  0  0
    5.7062    1.1453    0.0000 C   0  0  0  0  0  0  0  0  0  0  0  0
    4.5640   -1.8332    0.0000 C   0  0  0  0  0  0  0  0  0  0  0  0
    3.6979   -1.3332    0.0000 C   0  0  0  0  0  0  0  0  0  0  0  0
    6.7062    1.1453    0.0000 C   0  0  0  0  0  0  0  0  0  0  0  0
    4.5640   -2.8332    0.0000 C   0  0  0  0  0  0  0  0  0  0  0  0
    2.8319   -1.8332    0.0000 C   0  0  0  0  0  0  0  0  0  0  0  0
    7.2062    2.0113    0.0000 C   0  0  0  0  0  0  0  0  0  0  0  0
    3.6979   -3.3332    0.0000 C   0  0  0  0  0  0  0  0  0  0  0  0
    2.8319   -2.8332    0.0000 C   0  0  0  0  0  0  0  0  0  0  0  0
    8.2062    2.0113    0.0000 C   0  0  0  0  0  0  0  0  0  0  0  0
    2.5000   -4.4081    0.0000 C   0  0  0  0  0  0  0  0  0  0  0  0
    2.0000   -5.2741    0.0000 C   0  0  0  0  0  0  0  0  0  0  0  0
    9.7062    2.8773    0.0000 C   0  0  0  0  0  0  0  0  0  0  0  0
   11.2451    3.3773    0.0000 C   0  0  0  0  0  0  0  0  0  0  0  0
    9.9850    4.6374    0.0000 C   0  0  0  0  0  0  0  0  0  0  0  0
   12.0541    3.9651    0.0000 C   0  0  0  0  0  0  0  0  0  0  0  0
   13.0051    3.6561    0.0000 C   0  0  0  0  0  0  0  0  0  0  0  0
   13.3142    2.7050    0.0000 C   0  0  0  0  0  0  0  0  0  0  0  0
   13.0051    5.2741    0.0000 C   0  0  0  0  0  0  0  0  0  0  0  0
    6.2977   -0.8387    0.0000 H   0  0  0  0  0  0  0  0  0  0  0  0
    6.1805   -0.0749    0.0000 H   0  0  0  0  0  0  0  0  0  0  0  0
    4.4124    0.9459    0.0000 H   0  0  0  0  0  0  0  0  0  0  0  0
    3.6923    0.6655    0.0000 H   0  0  0  0  0  0  0  0  0  0  0  0
    5.5705   -2.0813    0.0000 H   0  0  0  0  0  0  0  0  0  0  0  0
    6.0930   -1.5120    0.0000 H   0  0  0  0  0  0  0  0  0  0  0  0
    3.2116    0.1516    0.0000 H   0  0  0  0  0  0  0  0  0  0  0  0
    2.9798   -0.5856    0.0000 H   0  0  0  0  0  0  0  0  0  0  0  0
    5.8139    1.7558    0.0000 H   0  0  0  0  0  0  0  0  0  0  0  0
    5.1236    1.3573    0.0000 H   0  0  0  0  0  0  0  0  0  0  0  0
    6.5986    0.5347    0.0000 H   0  0  0  0  0  0  0  0  0  0  0  0
    7.2888    0.9332    0.0000 H   0  0  0  0  0  0  0  0  0  0  0  0
    5.1009   -3.1432    0.0000 H   0  0  0  0  0  0  0  0  0  0  0  0
    2.2950   -1.5232    0.0000 H   0  0  0  0  0  0  0  0  0  0  0  0
    7.3139    2.6219    0.0000 H   0  0  0  0  0  0  0  0  0  0  0  0
    6.6236    2.2233    0.0000 H   0  0  0  0  0  0  0  0  0  0  0  0
    8.0986    1.4007    0.0000 H   0  0  0  0  0  0  0  0  0  0  0  0
    8.7888    1.7992    0.0000 H   0  0  0  0  0  0  0  0  0  0  0  0
    1.4631   -4.9641    0.0000 H   0  0  0  0  0  0  0  0  0  0  0  0
    1.6900   -5.8110    0.0000 H   0  0  0  0  0  0  0  0  0  0  0  0
    2.5369   -5.5841    0.0000 H   0  0  0  0  0  0  0  0  0  0  0  0
   10.5747    4.8290    0.0000 H   0  0  0  0  0  0  0  0  0  0  0  0
    9.7934    5.2270    0.0000 H   0  0  0  0  0  0  0  0  0  0  0  0
    9.3954    4.4458    0.0000 H   0  0  0  0  0  0  0  0  0  0  0  0
   12.7245    2.5134    0.0000 H   0  0  0  0  0  0  0  0  0  0  0  0
   13.5058    2.1154    0.0000 H   0  0  0  0  0  0  0  0  0  0  0  0
   13.9038    2.8966    0.0000 H   0  0  0  0  0  0  0  0  0  0  0  0
   13.1967    5.8638    0.0000 H   0  0  0  0  0  0  0  0  0  0  0  0
  1 23  1  0  0  0  0
  1 26  1  0  0  0  0
  2 21  1  0  0  0  0
  2 24  1  0  0  0  0
  3 29  1  0  0  0  0
  3 32  1  0  0  0  0
  4 10  1  0  0  0  0
  4 11  1  0  0  0  0
  4 14  1  0  0  0  0
  5 22  1  0  0  0  0
  5 24  2  0  0  0  0
  6 26  1  0  0  0  0
  6 27  1  0  0  0  0
  6 28  1  0  0  0  0
  7  8  1  0  0  0  0
  7 26  2  0  0  0  0
  8 27  2  0  0  0  0
  9 30  1  0  0  0  0
  9 32  2  0  0  0  0
 10 12  1  0  0  0  0
 10 33  1  0  0  0  0
 10 34  1  0  0  0  0
 11 13  1  0  0  0  0
 11 35  1  0  0  0  0
 11 36  1  0  0  0  0
 12 15  1  0  0  0  0
 12 37  1  0  0  0  0
 12 38  1  0  0  0  0
 13 16  1  0  0  0  0
 13 39  1  0  0  0  0
 13 40  1  0  0  0  0
 14 17  1  0  0  0  0
 14 41  1  0  0  0  0
 14 42  1  0  0  0  0
 15 16  1  0  0  0  0
 15 18  2  0  0  0  0
 16 19  2  0  0  0  0
 17 20  1  0  0  0  0
 17 43  1  0  0  0  0
 17 44  1  0  0  0  0
 18 21  1  0  0  0  0
 18 45  1  0  0  0  0
 19 22  1  0  0  0  0
 19 46  1  0  0  0  0
 20 23  1  0  0  0  0
 20 47  1  0  0  0  0
 20 48  1  0  0  0  0
 21 22  2  0  0  0  0
 23 49  1  0  0  0  0
 23 50  1  0  0  0  0
 24 25  1  0  0  0  0
 25 51  1  0  0  0  0
 25 52  1  0  0  0  0
 25 53  1  0  0  0  0
 27 29  1  0  0  0  0
 28 54  1  0  0  0  0
 28 55  1  0  0  0  0
 28 56  1  0  0  0  0
 29 30  2  0  0  0  0
 30 31  1  0  0  0  0
 31 57  1  0  0  0  0
 31 58  1  0  0  0  0
 31 59  1  0  0  0  0
 32 60  1  0  0  0  0
M  END
> <PUBCHEM_COMPOUND_CID>
44454402

> <PUBCHEM_COMPOUND_CANONICALIZED>
1

> <PUBCHEM_CACTVS_COMPLEXITY>
617

> <PUBCHEM_CACTVS_HBOND_ACCEPTOR>
8

> <PUBCHEM_CACTVS_HBOND_DONOR>
0

> <PUBCHEM_CACTVS_ROTATABLE_BOND>
7

> <PUBCHEM_CACTVS_SUBSKEYS>
AAADceB7sABAAAAAAAAAAAAAAAAAAWLFgAAwAAAABYAAAFgB/gAAHgQIAAAADAzF3wa31rcMFEiqA6dz9ASS2Ct/YrAV2CG/bNiOLrLk/buPOSjkzBPY6YeY2bKOqAABQAAQEABQAAKAACAgAAAAAAAAAA==

> <PUBCHEM_IUPAC_OPENEYE_NAME>
2-methyl-7-[4-[[4-methyl-5-(4-methyloxazol-5-yl)-1,2,4-triazol-3-yl]sulfanyl]butyl]-5,6,8,9-tetrahydrooxazolo[4,5-h][3]benzazepine

> <PUBCHEM_IUPAC_CAS_NAME>
2-methyl-7-[4-[[4-methyl-5-(4-methyl-5-oxazolyl)-1,2,4-triazol-3-yl]thio]butyl]-5,6,8,9-tetrahydrooxazolo[4,5-h][3]benzazepine

> <PUBCHEM_IUPAC_NAME_MARKUP>
2-methyl-7-[4-[[4-methyl-5-(4-methyl-1,3-oxazol-5-yl)-1,2,4-triazol-3-yl]sulfanyl]butyl]-5,6,8,9-tetrahydro-[1,3]oxazolo[4,5-h][3]benzazepine

> <PUBCHEM_IUPAC_NAME>
2-methyl-7-[4-[[4-methyl-5-(4-methyl-1,3-oxazol-5-yl)-1,2,4-triazol-3-yl]sulfanyl]butyl]-5,6,8,9-tetrahydro-[1,3]oxazolo[4,5-h][3]benzazepine

> <PUBCHEM_IUPAC_SYSTEMATIC_NAME>
2-methyl-7-[4-[[4-methyl-5-(4-methyl-1,3-oxazol-5-yl)-1,2,4-triazol-3-yl]sulfanyl]butyl]-5,6,8,9-tetrahydro-[1,3]oxazolo[4,5-h][3]benzazepine

> <PUBCHEM_IUPAC_TRADITIONAL_NAME>
2-methyl-7-[4-[[4-methyl-5-(4-methyloxazol-5-yl)-1,2,4-triazol-3-yl]thio]butyl]-5,6,8,9-tetrahydrooxazolo[4,5-h][3]benzazepine

> <PUBCHEM_IUPAC_INCHI>
InChI=1S/C23H28N6O2S/c1-15-21(30-14-24-15)22-26-27-23(28(22)3)32-11-5-4-8-29-9-6-17-12-19-20(31-16(2)25-19)13-18(17)7-10-29/h12-14H,4-11H2,1-3H3

> <PUBCHEM_IUPAC_INCHIKEY>
BDRCTGAXOWRNQU-UHFFFAOYSA-N

> <PUBCHEM_XLOGP3_AA>
3.8

> <PUBCHEM_EXACT_MASS>
452.19944533

> <PUBCHEM_MOLECULAR_FORMULA>
C23H28N6O2S

> <PUBCHEM_MOLECULAR_WEIGHT>
452.6

> <PUBCHEM_OPENEYE_CAN_SMILES>
CC1=C(OC=N1)C2=NN=C(N2C)SCCCCN3CCC4=CC5=C(C=C4CC3)OC(=N5)C

> <PUBCHEM_OPENEYE_ISO_SMILES>
CC1=C(OC=N1)C2=NN=C(N2C)SCCCCN3CCC4=CC5=C(C=C4CC3)OC(=N5)C

> <PUBCHEM_CACTVS_TPSA>
111

> <PUBCHEM_MONOISOTOPIC_WEIGHT>
452.19944533

> <PUBCHEM_TOTAL_CHARGE>
0

> <PUBCHEM_HEAVY_ATOM_COUNT>
32

> <PUBCHEM_ATOM_DEF_STEREO_COUNT>
0

> <PUBCHEM_ATOM_UDEF_STEREO_COUNT>
0

> <PUBCHEM_BOND_DEF_STEREO_COUNT>
0

> <PUBCHEM_BOND_UDEF_STEREO_COUNT>
0

> <PUBCHEM_ISOTOPIC_ATOM_COUNT>
0

> <PUBCHEM_COMPONENT_COUNT>
1

> <PUBCHEM_CACTVS_TAUTO_COUNT>
-1

> <PUBCHEM_COORDINATE_TYPE>
1
5
255

> <PUBCHEM_BONDANNOTATIONS>
15  16  8
15  18  8
16  19  8
18  21  8
19  22  8
2  21  8
2  24  8
21  22  8
29  30  8
3  29  8
3  32  8
5  22  8
5  24  8
6  26  8
6  27  8
7  26  8
7  8  8
8  27  8
9  30  8
9  32  8

$$$$
