168275096
  -OEChem-09292322442D

 55 57  0     0  0  0  0  0  0999 V2000
    3.2152   11.9024    0.0000 O   0  0  0  0  0  0  0  0  0  0  0  0
    6.5084    1.0000    0.0000 O   0  0  0  0  0  0  0  0  0  0  0  0
    3.9104    1.5000    0.0000 O   0  0  0  0  0  0  0  0  0  0  0  0
    5.6424    2.5000    0.0000 O   0  0  0  0  0  0  0  0  0  0  0  0
    4.7764    0.0000    0.0000 O   0  0  0  0  0  0  0  0  0  0  0  0
    6.7988    9.3656    0.0000 N   0  0  0  0  0  0  0  0  0  0  0  0
    7.7988    7.6335    0.0000 N   0  0  0  0  0  0  0  0  0  0  0  0
    3.2152   10.2929    0.0000 N   0  0  0  0  0  0  0  0  0  0  0  0
    6.2988    8.4996    0.0000 C   0  0  0  0  0  0  0  0  0  0  0  0
    7.7988    9.3656    0.0000 C   0  0  0  0  0  0  0  0  0  0  0  0
    6.7988    7.6335    0.0000 C   0  0  0  0  0  0  0  0  0  0  0  0
    8.2988    8.4996    0.0000 C   0  0  0  0  0  0  0  0  0  0  0  0
    6.2988   10.2316    0.0000 C   0  0  0  0  0  0  0  0  0  0  0  0
    5.2988   10.2316    0.0000 C   0  0  0  0  0  0  0  0  0  0  0  0
    8.2988    6.7675    0.0000 C   0  0  0  0  0  0  0  0  0  0  0  0
    4.7988   11.0976    0.0000 C   0  0  0  0  0  0  0  0  0  0  0  0
    7.7988    5.9015    0.0000 C   0  0  0  0  0  0  0  0  0  0  0  0
    9.2988    6.7675    0.0000 C   0  0  0  0  0  0  0  0  0  0  0  0
    3.7988   11.0976    0.0000 C   0  0  0  0  0  0  0  0  0  0  0  0
    8.2988    5.0355    0.0000 C   0  0  0  0  0  0  0  0  0  0  0  0
    9.7988    5.9015    0.0000 C   0  0  0  0  0  0  0  0  0  0  0  0
    9.2988    5.0355    0.0000 C   0  0  0  0  0  0  0  0  0  0  0  0
    2.2690   11.5976    0.0000 C   0  0  0  0  0  0  0  0  0  0  0  0
    2.2690   10.5976    0.0000 C   0  0  0  0  0  0  0  0  0  0  0  0
    1.4030   12.0976    0.0000 C   0  0  0  0  0  0  0  0  0  0  0  0
    1.4030   10.0976    0.0000 C   0  0  0  0  0  0  0  0  0  0  0  0
    0.5369   11.5976    0.0000 C   0  0  0  0  0  0  0  0  0  0  0  0
    0.5369   10.5976    0.0000 C   0  0  0  0  0  0  0  0  0  0  0  0
    5.6424    1.5000    0.0000 C   0  0  0  0  0  0  0  0  0  0  0  0
    4.7764    1.0000    0.0000 C   0  0  0  0  0  0  0  0  0  0  0  0
    5.8239    8.8981    0.0000 H   0  0  0  0  0  0  0  0  0  0  0  0
    5.8239    8.1010    0.0000 H   0  0  0  0  0  0  0  0  0  0  0  0
    8.3814    9.5776    0.0000 H   0  0  0  0  0  0  0  0  0  0  0  0
    7.6912    9.9762    0.0000 H   0  0  0  0  0  0  0  0  0  0  0  0
    6.2162    7.4215    0.0000 H   0  0  0  0  0  0  0  0  0  0  0  0
    6.9065    7.0230    0.0000 H   0  0  0  0  0  0  0  0  0  0  0  0
    8.7738    8.1010    0.0000 H   0  0  0  0  0  0  0  0  0  0  0  0
    8.7738    8.8981    0.0000 H   0  0  0  0  0  0  0  0  0  0  0  0
    6.8814   10.4437    0.0000 H   0  0  0  0  0  0  0  0  0  0  0  0
    6.1912   10.8422    0.0000 H   0  0  0  0  0  0  0  0  0  0  0  0
    4.7162   10.0196    0.0000 H   0  0  0  0  0  0  0  0  0  0  0  0
    5.4065    9.6210    0.0000 H   0  0  0  0  0  0  0  0  0  0  0  0
    5.3814   11.3097    0.0000 H   0  0  0  0  0  0  0  0  0  0  0  0
    4.6912   11.7082    0.0000 H   0  0  0  0  0  0  0  0  0  0  0  0
    7.1788    5.9015    0.0000 H   0  0  0  0  0  0  0  0  0  0  0  0
    9.6088    7.3044    0.0000 H   0  0  0  0  0  0  0  0  0  0  0  0
    7.9888    4.4985    0.0000 H   0  0  0  0  0  0  0  0  0  0  0  0
   10.4188    5.9015    0.0000 H   0  0  0  0  0  0  0  0  0  0  0  0
    9.6088    4.4985    0.0000 H   0  0  0  0  0  0  0  0  0  0  0  0
    1.4030   12.7176    0.0000 H   0  0  0  0  0  0  0  0  0  0  0  0
    1.4030    9.4776    0.0000 H   0  0  0  0  0  0  0  0  0  0  0  0
    0.0000   11.9076    0.0000 H   0  0  0  0  0  0  0  0  0  0  0  0
    0.0000   10.2876    0.0000 H   0  0  0  0  0  0  0  0  0  0  0  0
    7.0454    1.3100    0.0000 H   0  0  0  0  0  0  0  0  0  0  0  0
    3.3734    1.1900    0.0000 H   0  0  0  0  0  0  0  0  0  0  0  0
  1 19  1  0  0  0  0
  1 23  1  0  0  0  0
  2 29  1  0  0  0  0
  2 54  1  0  0  0  0
  3 30  1  0  0  0  0
  3 55  1  0  0  0  0
  4 29  2  0  0  0  0
  5 30  2  0  0  0  0
  6  9  1  0  0  0  0
  6 10  1  0  0  0  0
  6 13  1  0  0  0  0
  7 11  1  0  0  0  0
  7 12  1  0  0  0  0
  7 15  1  0  0  0  0
  8 19  2  0  0  0  0
  8 24  1  0  0  0  0
  9 11  1  0  0  0  0
  9 31  1  0  0  0  0
  9 32  1  0  0  0  0
 10 12  1  0  0  0  0
 10 33  1  0  0  0  0
 10 34  1  0  0  0  0
 11 35  1  0  0  0  0
 11 36  1  0  0  0  0
 12 37  1  0  0  0  0
 12 38  1  0  0  0  0
 13 14  1  0  0  0  0
 13 39  1  0  0  0  0
 13 40  1  0  0  0  0
 14 16  1  0  0  0  0
 14 41  1  0  0  0  0
 14 42  1  0  0  0  0
 15 17  2  0  0  0  0
 15 18  1  0  0  0  0
 16 19  1  0  0  0  0
 16 43  1  0  0  0  0
 16 44  1  0  0  0  0
 17 20  1  0  0  0  0
 17 45  1  0  0  0  0
 18 21  2  0  0  0  0
 18 46  1  0  0  0  0
 20 22  2  0  0  0  0
 20 47  1  0  0  0  0
 21 22  1  0  0  0  0
 21 48  1  0  0  0  0
 22 49  1  0  0  0  0
 23 24  1  0  0  0  0
 23 25  2  0  0  0  0
 24 26  2  0  0  0  0
 25 27  1  0  0  0  0
 25 50  1  0  0  0  0
 26 28  1  0  0  0  0
 26 51  1  0  0  0  0
 27 28  2  0  0  0  0
 27 52  1  0  0  0  0
 28 53  1  0  0  0  0
 29 30  1  0  0  0  0
M  END
> <PUBCHEM_COMPOUND_CID>
168275096

> <PUBCHEM_COMPOUND_CANONICALIZED>
1

> <PUBCHEM_CACTVS_COMPLEXITY>
449

> <PUBCHEM_CACTVS_HBOND_ACCEPTOR>
8

> <PUBCHEM_CACTVS_HBOND_DONOR>
2

> <PUBCHEM_CACTVS_ROTATABLE_BOND>
6

> <PUBCHEM_CACTVS_SUBSKEYS>
AAADceB7OAAAAAAAAAAAAAAAAAAAAWAAAAA8YIAAAAAAAFgB9AAAHgAACAAACAzBlgQwzrMIFkCoAaXyXAaCiCAvYiAImCH/bNgPZrLEtbufOSjkxBHZ6Ye8SAAAAAAAAAAAEAAAAAAAAAAgAAAAAAAAAA==

> <PUBCHEM_IUPAC_OPENEYE_NAME>
oxalic acid;2-[3-(4-phenylpiperazin-1-yl)propyl]-1,3-benzoxazole

> <PUBCHEM_IUPAC_CAS_NAME>
oxalic acid;2-[3-(4-phenyl-1-piperazinyl)propyl]-1,3-benzoxazole

> <PUBCHEM_IUPAC_NAME_MARKUP>
oxalic acid;2-[3-(4-phenylpiperazin-1-yl)propyl]-1,3-benzoxazole

> <PUBCHEM_IUPAC_NAME>
oxalic acid;2-[3-(4-phenylpiperazin-1-yl)propyl]-1,3-benzoxazole

> <PUBCHEM_IUPAC_SYSTEMATIC_NAME>
ethanedioic acid;2-[3-(4-phenylpiperazin-1-yl)propyl]-1,3-benzoxazole

> <PUBCHEM_IUPAC_TRADITIONAL_NAME>
oxalic acid;2-[3-(4-phenylpiperazino)propyl]-1,3-benzoxazole

> <PUBCHEM_IUPAC_INCHI>
InChI=1S/C20H23N3O.C2H2O4/c1-2-7-17(8-3-1)23-15-13-22(14-16-23)12-6-11-20-21-18-9-4-5-10-19(18)24-20;3-1(4)2(5)6/h1-5,7-10H,6,11-16H2;(H,3,4)(H,5,6)

> <PUBCHEM_IUPAC_INCHIKEY>
COZRZYCBHQXKPT-UHFFFAOYSA-N

> <PUBCHEM_EXACT_MASS>
411.17942091

> <PUBCHEM_MOLECULAR_FORMULA>
C22H25N3O5

> <PUBCHEM_MOLECULAR_WEIGHT>
411.5

> <PUBCHEM_OPENEYE_CAN_SMILES>
C1CN(CCN1CCCC2=NC3=CC=CC=C3O2)C4=CC=CC=C4.C(=O)(C(=O)O)O

> <PUBCHEM_OPENEYE_ISO_SMILES>
C1CN(CCN1CCCC2=NC3=CC=CC=C3O2)C4=CC=CC=C4.C(=O)(C(=O)O)O

> <PUBCHEM_CACTVS_TPSA>
107

> <PUBCHEM_MONOISOTOPIC_WEIGHT>
411.17942091

> <PUBCHEM_TOTAL_CHARGE>
0

> <PUBCHEM_HEAVY_ATOM_COUNT>
30

> <PUBCHEM_ATOM_DEF_STEREO_COUNT>
0

> <PUBCHEM_ATOM_UDEF_STEREO_COUNT>
0

> <PUBCHEM_BOND_DEF_STEREO_COUNT>
0

> <PUBCHEM_BOND_UDEF_STEREO_COUNT>
0

> <PUBCHEM_ISOTOPIC_ATOM_COUNT>
0

> <PUBCHEM_COMPONENT_COUNT>
2

> <PUBCHEM_CACTVS_TAUTO_COUNT>
-1

> <PUBCHEM_COORDINATE_TYPE>
1
5
255

> <PUBCHEM_BONDANNOTATIONS>
1  19  8
1  23  8
15  17  8
15  18  8
17  20  8
18  21  8
20  22  8
21  22  8
23  24  8
23  25  8
24  26  8
25  27  8
26  28  8
27  28  8
8  19  8
8  24  8

$$$$
