66801565
  -OEChem-09292322472D

 55 59  0     0  0  0  0  0  0999 V2000
    9.3653    2.5344    0.0000 S   0  0  0  0  0  0  0  0  0  0  0  0
   11.9592    4.6373    0.0000 S   0  0  0  0  0  0  0  0  0  0  0  0
    2.0000   -5.3859    0.0000 F   0  0  0  0  0  0  0  0  0  0  0  0
    5.5443   -5.1907    0.0000 O   0  0  0  0  0  0  0  0  0  0  0  0
   10.3158    2.2237    0.0000 O   0  0  0  0  0  0  0  0  0  0  0  0
    8.4148    2.8450    0.0000 O   0  0  0  0  0  0  0  0  0  0  0  0
    6.4763   -0.7296    0.0000 N   0  0  0  0  0  0  0  0  0  0  0  0
    6.1279   -4.3859    0.0000 N   0  0  0  0  0  0  0  0  0  0  0  0
    9.0546    1.5838    0.0000 N   0  0  0  0  0  0  0  0  0  0  0  0
   11.4592    3.1075    0.0000 N   0  0  0  0  0  0  0  0  0  0  0  0
    5.8550   -2.6307    0.0000 C   0  0  0  0  0  0  0  0  0  0  0  0
    5.1871   -1.8864    0.0000 C   0  0  0  0  0  0  0  0  0  0  0  0
    6.8335   -2.4245    0.0000 C   0  0  0  0  0  0  0  0  0  0  0  0
    5.4978   -0.9359    0.0000 C   0  0  0  0  0  0  0  0  0  0  0  0
    7.1441   -1.4739    0.0000 C   0  0  0  0  0  0  0  0  0  0  0  0
    6.7870    0.2209    0.0000 C   0  0  0  0  0  0  0  0  0  0  0  0
    5.5443   -3.5812    0.0000 C   0  0  0  0  0  0  0  0  0  0  0  0
    7.7654    0.4271    0.0000 C   0  0  0  0  0  0  0  0  0  0  0  0
    4.5981   -3.8859    0.0000 C   0  0  0  0  0  0  0  0  0  0  0  0
    8.0761    1.3776    0.0000 C   0  0  0  0  0  0  0  0  0  0  0  0
    4.5981   -4.8859    0.0000 C   0  0  0  0  0  0  0  0  0  0  0  0
    3.7320   -3.3859    0.0000 C   0  0  0  0  0  0  0  0  0  0  0  0
    3.7320   -5.3859    0.0000 C   0  0  0  0  0  0  0  0  0  0  0  0
    2.8660   -3.8859    0.0000 C   0  0  0  0  0  0  0  0  0  0  0  0
    2.8660   -4.8859    0.0000 C   0  0  0  0  0  0  0  0  0  0  0  0
    9.6759    3.4849    0.0000 C   0  0  0  0  0  0  0  0  0  0  0  0
   10.6545    3.6911    0.0000 C   0  0  0  0  0  0  0  0  0  0  0  0
    9.0081    4.2292    0.0000 C   0  0  0  0  0  0  0  0  0  0  0  0
   10.9651    4.6416    0.0000 C   0  0  0  0  0  0  0  0  0  0  0  0
    9.3188    5.1797    0.0000 C   0  0  0  0  0  0  0  0  0  0  0  0
   10.2973    5.3859    0.0000 C   0  0  0  0  0  0  0  0  0  0  0  0
   12.2639    3.6911    0.0000 C   0  0  0  0  0  0  0  0  0  0  0  0
    6.2690   -3.0921    0.0000 H   0  0  0  0  0  0  0  0  0  0  0  0
    4.6402   -1.5944    0.0000 H   0  0  0  0  0  0  0  0  0  0  0  0
    4.8046   -2.3743    0.0000 H   0  0  0  0  0  0  0  0  0  0  0  0
    6.8540   -3.0441    0.0000 H   0  0  0  0  0  0  0  0  0  0  0  0
    7.4473   -2.5118    0.0000 H   0  0  0  0  0  0  0  0  0  0  0  0
    5.4772   -0.3162    0.0000 H   0  0  0  0  0  0  0  0  0  0  0  0
    4.8840   -0.8485    0.0000 H   0  0  0  0  0  0  0  0  0  0  0  0
    7.6910   -1.7660    0.0000 H   0  0  0  0  0  0  0  0  0  0  0  0
    7.5267   -0.9860    0.0000 H   0  0  0  0  0  0  0  0  0  0  0  0
    6.7664    0.8405    0.0000 H   0  0  0  0  0  0  0  0  0  0  0  0
    6.1731    0.3082    0.0000 H   0  0  0  0  0  0  0  0  0  0  0  0
    7.7860   -0.1926    0.0000 H   0  0  0  0  0  0  0  0  0  0  0  0
    8.3793    0.3398    0.0000 H   0  0  0  0  0  0  0  0  0  0  0  0
    8.0556    1.9973    0.0000 H   0  0  0  0  0  0  0  0  0  0  0  0
    7.4623    1.4650    0.0000 H   0  0  0  0  0  0  0  0  0  0  0  0
    3.7320   -2.7659    0.0000 H   0  0  0  0  0  0  0  0  0  0  0  0
    9.4687    1.1224    0.0000 H   0  0  0  0  0  0  0  0  0  0  0  0
    3.7320   -6.0059    0.0000 H   0  0  0  0  0  0  0  0  0  0  0  0
    2.3291   -3.5759    0.0000 H   0  0  0  0  0  0  0  0  0  0  0  0
    8.4014    4.1013    0.0000 H   0  0  0  0  0  0  0  0  0  0  0  0
    8.9047    5.6412    0.0000 H   0  0  0  0  0  0  0  0  0  0  0  0
   10.4899    5.9752    0.0000 H   0  0  0  0  0  0  0  0  0  0  0  0
   12.8532    3.4985    0.0000 H   0  0  0  0  0  0  0  0  0  0  0  0
  1  5  2  0  0  0  0
  1  6  2  0  0  0  0
  1  9  1  0  0  0  0
  1 26  1  0  0  0  0
  2 29  1  0  0  0  0
  2 32  1  0  0  0  0
  3 25  1  0  0  0  0
  4  8  1  0  0  0  0
  4 21  1  0  0  0  0
  7 14  1  0  0  0  0
  7 15  1  0  0  0  0
  7 16  1  0  0  0  0
  8 17  2  0  0  0  0
  9 20  1  0  0  0  0
  9 49  1  0  0  0  0
 10 27  1  0  0  0  0
 10 32  2  0  0  0  0
 11 12  1  0  0  0  0
 11 13  1  0  0  0  0
 11 17  1  0  0  0  0
 11 33  1  0  0  0  0
 12 14  1  0  0  0  0
 12 34  1  0  0  0  0
 12 35  1  0  0  0  0
 13 15  1  0  0  0  0
 13 36  1  0  0  0  0
 13 37  1  0  0  0  0
 14 38  1  0  0  0  0
 14 39  1  0  0  0  0
 15 40  1  0  0  0  0
 15 41  1  0  0  0  0
 16 18  1  0  0  0  0
 16 42  1  0  0  0  0
 16 43  1  0  0  0  0
 17 19  1  0  0  0  0
 18 20  1  0  0  0  0
 18 44  1  0  0  0  0
 18 45  1  0  0  0  0
 19 21  2  0  0  0  0
 19 22  1  0  0  0  0
 20 46  1  0  0  0  0
 20 47  1  0  0  0  0
 21 23  1  0  0  0  0
 22 24  2  0  0  0  0
 22 48  1  0  0  0  0
 23 25  2  0  0  0  0
 23 50  1  0  0  0  0
 24 25  1  0  0  0  0
 24 51  1  0  0  0  0
 26 27  1  0  0  0  0
 26 28  2  0  0  0  0
 27 29  2  0  0  0  0
 28 30  1  0  0  0  0
 28 52  1  0  0  0  0
 29 31  1  0  0  0  0
 30 31  2  0  0  0  0
 30 53  1  0  0  0  0
 31 54  1  0  0  0  0
 32 55  1  0  0  0  0
M  END
> <PUBCHEM_COMPOUND_CID>
66801565

> <PUBCHEM_COMPOUND_CANONICALIZED>
1

> <PUBCHEM_CACTVS_COMPLEXITY>
731

> <PUBCHEM_CACTVS_HBOND_ACCEPTOR>
9

> <PUBCHEM_CACTVS_HBOND_DONOR>
1

> <PUBCHEM_CACTVS_ROTATABLE_BOND>
7

> <PUBCHEM_CACTVS_SUBSKEYS>
AAADceB7sQBgAAAAAAAAAAAAAAAAAWLAAAA8YIAAAAAAAFgB/gAAHwQUQAAADQzB3gy0x/NYEAqtA6RzRnDD8LB1KDho2L0+TNoIJrrg1ZOEMYhm0BnIyceYyOCOAAAAAEAIAQAAAAAAgBACAAAAAAAAAA==

> <PUBCHEM_IUPAC_OPENEYE_NAME>
N-[3-[4-(6-fluoro-1,2-benzoxazol-3-yl)-1-piperidyl]propyl]-1,3-benzothiazole-4-sulfonamide

> <PUBCHEM_IUPAC_CAS_NAME>
N-[3-[4-(6-fluoro-1,2-benzoxazol-3-yl)-1-piperidinyl]propyl]-1,3-benzothiazole-4-sulfonamide

> <PUBCHEM_IUPAC_NAME_MARKUP>
<I>N</I>-[3-[4-(6-fluoro-1,2-benzoxazol-3-yl)piperidin-1-yl]propyl]-1,3-benzothiazole-4-sulfonamide

> <PUBCHEM_IUPAC_NAME>
N-[3-[4-(6-fluoro-1,2-benzoxazol-3-yl)piperidin-1-yl]propyl]-1,3-benzothiazole-4-sulfonamide

> <PUBCHEM_IUPAC_SYSTEMATIC_NAME>
N-[3-[4-(6-fluoranyl-1,2-benzoxazol-3-yl)piperidin-1-yl]propyl]-1,3-benzothiazole-4-sulfonamide

> <PUBCHEM_IUPAC_TRADITIONAL_NAME>
N-[3-[4-(6-fluoroindoxazen-3-yl)piperidino]propyl]-1,3-benzothiazole-4-sulfonamide

> <PUBCHEM_IUPAC_INCHI>
InChI=1S/C22H23FN4O3S2/c23-16-5-6-17-18(13-16)30-26-21(17)15-7-11-27(12-8-15)10-2-9-25-32(28,29)20-4-1-3-19-22(20)24-14-31-19/h1,3-6,13-15,25H,2,7-12H2

> <PUBCHEM_IUPAC_INCHIKEY>
IJJVMTLWQBMFNW-UHFFFAOYSA-N

> <PUBCHEM_XLOGP3_AA>
3.9

> <PUBCHEM_EXACT_MASS>
474.11956112

> <PUBCHEM_MOLECULAR_FORMULA>
C22H23FN4O3S2

> <PUBCHEM_MOLECULAR_WEIGHT>
474.6

> <PUBCHEM_OPENEYE_CAN_SMILES>
C1CN(CCC1C2=NOC3=C2C=CC(=C3)F)CCCNS(=O)(=O)C4=CC=CC5=C4N=CS5

> <PUBCHEM_OPENEYE_ISO_SMILES>
C1CN(CCC1C2=NOC3=C2C=CC(=C3)F)CCCNS(=O)(=O)C4=CC=CC5=C4N=CS5

> <PUBCHEM_CACTVS_TPSA>
125

> <PUBCHEM_MONOISOTOPIC_WEIGHT>
474.11956112

> <PUBCHEM_TOTAL_CHARGE>
0

> <PUBCHEM_HEAVY_ATOM_COUNT>
32

> <PUBCHEM_ATOM_DEF_STEREO_COUNT>
0

> <PUBCHEM_ATOM_UDEF_STEREO_COUNT>
0

> <PUBCHEM_BOND_DEF_STEREO_COUNT>
0

> <PUBCHEM_BOND_UDEF_STEREO_COUNT>
0

> <PUBCHEM_ISOTOPIC_ATOM_COUNT>
0

> <PUBCHEM_COMPONENT_COUNT>
1

> <PUBCHEM_CACTVS_TAUTO_COUNT>
-1

> <PUBCHEM_COORDINATE_TYPE>
1
5
255

> <PUBCHEM_BONDANNOTATIONS>
10  27  8
10  32  8
17  19  8
19  21  8
19  22  8
2  29  8
2  32  8
21  23  8
22  24  8
23  25  8
24  25  8
26  27  8
26  28  8
27  29  8
28  30  8
29  31  8
30  31  8
4  21  8
4  8  8
8  17  8

$$$$
