118731505
  -OEChem-09292322352D

 75 80  0     0  0  0  0  0  0999 V2000
    3.8088    0.9681    0.0000 S   0  0  0  0  0  0  0  0  0  0  0  0
    4.7221    1.3752    0.0000 O   0  0  0  0  0  0  0  0  0  0  0  0
    2.8954    0.5610    0.0000 O   0  0  0  0  0  0  0  0  0  0  0  0
   12.2312   -3.1124    0.0000 O   0  0  0  0  0  0  0  0  0  0  0  0
   17.4934   -3.0882    0.0000 O   0  0  0  0  0  0  0  0  0  0  0  0
    7.8992   -2.6291    0.0000 N   0  0  0  0  0  0  0  0  0  0  0  0
    4.2158    0.0547    0.0000 N   0  0  0  0  0  0  0  0  0  0  0  0
   15.7613   -3.0882    0.0000 N   0  0  0  0  0  0  0  0  0  0  0  0
    6.1633   -1.6358    0.0000 C   0  0  0  0  0  0  0  0  0  0  0  0
    6.1671   -2.6357    0.0000 C   0  0  0  0  0  0  0  0  0  0  0  0
    7.0274   -1.1324    0.0000 C   0  0  0  0  0  0  0  0  0  0  0  0
    7.0351   -3.1324    0.0000 C   0  0  0  0  0  0  0  0  0  0  0  0
    7.8953   -1.6291    0.0000 C   0  0  0  0  0  0  0  0  0  0  0  0
    5.2953   -1.1391    0.0000 C   0  0  0  0  0  0  0  0  0  0  0  0
    8.7671   -3.1257    0.0000 C   0  0  0  0  0  0  0  0  0  0  0  0
    4.3891   -1.5477    0.0000 C   0  0  0  0  0  0  0  0  0  0  0  0
    5.1885   -0.1508    0.0000 C   0  0  0  0  0  0  0  0  0  0  0  0
    3.7184   -0.8060    0.0000 C   0  0  0  0  0  0  0  0  0  0  0  0
    9.6312   -2.6224    0.0000 C   0  0  0  0  0  0  0  0  0  0  0  0
   10.4992   -3.1190    0.0000 C   0  0  0  0  0  0  0  0  0  0  0  0
    4.0821   -2.4994    0.0000 C   0  0  0  0  0  0  0  0  0  0  0  0
    2.7407   -1.0160    0.0000 C   0  0  0  0  0  0  0  0  0  0  0  0
    3.1044   -2.7094    0.0000 C   0  0  0  0  0  0  0  0  0  0  0  0
   11.3632   -2.6157    0.0000 C   0  0  0  0  0  0  0  0  0  0  0  0
    2.4337   -1.9677    0.0000 C   0  0  0  0  0  0  0  0  0  0  0  0
    3.4017    1.8814    0.0000 C   0  0  0  0  0  0  0  0  0  0  0  0
    2.4071    1.9856    0.0000 C   0  0  0  0  0  0  0  0  0  0  0  0
    3.9891    2.6907    0.0000 C   0  0  0  0  0  0  0  0  0  0  0  0
   13.0953   -2.6090    0.0000 C   0  0  0  0  0  0  0  0  0  0  0  0
    2.0000    2.8990    0.0000 C   0  0  0  0  0  0  0  0  0  0  0  0
    3.5820    3.6041    0.0000 C   0  0  0  0  0  0  0  0  0  0  0  0
   14.8953   -1.5882    0.0000 C   0  0  0  0  0  0  0  0  0  0  0  0
   14.8953   -2.5882    0.0000 C   0  0  0  0  0  0  0  0  0  0  0  0
   14.0014   -3.1229    0.0000 C   0  0  0  0  0  0  0  0  0  0  0  0
   15.7613   -1.0882    0.0000 C   0  0  0  0  0  0  0  0  0  0  0  0
   13.0953   -1.5674    0.0000 C   0  0  0  0  0  0  0  0  0  0  0  0
    2.5875    3.7082    0.0000 C   0  0  0  0  0  0  0  0  0  0  0  0
   16.6273   -1.5882    0.0000 C   0  0  0  0  0  0  0  0  0  0  0  0
   14.0014   -1.0536    0.0000 C   0  0  0  0  0  0  0  0  0  0  0  0
   16.6273   -2.5882    0.0000 C   0  0  0  0  0  0  0  0  0  0  0  0
    5.6275   -1.9478    0.0000 H   0  0  0  0  0  0  0  0  0  0  0  0
    5.5561   -2.5304    0.0000 H   0  0  0  0  0  0  0  0  0  0  0  0
    5.9573   -3.2192    0.0000 H   0  0  0  0  0  0  0  0  0  0  0  0
    7.4241   -0.6559    0.0000 H   0  0  0  0  0  0  0  0  0  0  0  0
    6.6270   -0.6590    0.0000 H   0  0  0  0  0  0  0  0  0  0  0  0
    6.6384   -3.6089    0.0000 H   0  0  0  0  0  0  0  0  0  0  0  0
    7.4354   -3.6058    0.0000 H   0  0  0  0  0  0  0  0  0  0  0  0
    8.5063   -1.7344    0.0000 H   0  0  0  0  0  0  0  0  0  0  0  0
    8.1051   -1.0456    0.0000 H   0  0  0  0  0  0  0  0  0  0  0  0
    8.3704   -3.6022    0.0000 H   0  0  0  0  0  0  0  0  0  0  0  0
    9.1675   -3.5991    0.0000 H   0  0  0  0  0  0  0  0  0  0  0  0
    5.6483    0.2651    0.0000 H   0  0  0  0  0  0  0  0  0  0  0  0
   10.0279   -2.1459    0.0000 H   0  0  0  0  0  0  0  0  0  0  0  0
    9.2308   -2.1490    0.0000 H   0  0  0  0  0  0  0  0  0  0  0  0
   10.1025   -3.5955    0.0000 H   0  0  0  0  0  0  0  0  0  0  0  0
   10.8995   -3.5925    0.0000 H   0  0  0  0  0  0  0  0  0  0  0  0
    4.4980   -2.9593    0.0000 H   0  0  0  0  0  0  0  0  0  0  0  0
    2.3249   -0.5561    0.0000 H   0  0  0  0  0  0  0  0  0  0  0  0
    2.9141   -3.2995    0.0000 H   0  0  0  0  0  0  0  0  0  0  0  0
   11.7599   -2.1392    0.0000 H   0  0  0  0  0  0  0  0  0  0  0  0
   10.9629   -2.1423    0.0000 H   0  0  0  0  0  0  0  0  0  0  0  0
    1.8275   -2.0979    0.0000 H   0  0  0  0  0  0  0  0  0  0  0  0
    2.0429    1.4839    0.0000 H   0  0  0  0  0  0  0  0  0  0  0  0
    4.6057    2.6261    0.0000 H   0  0  0  0  0  0  0  0  0  0  0  0
    1.3834    2.9635    0.0000 H   0  0  0  0  0  0  0  0  0  0  0  0
    3.9463    4.1058    0.0000 H   0  0  0  0  0  0  0  0  0  0  0  0
   16.1598   -0.6133    0.0000 H   0  0  0  0  0  0  0  0  0  0  0  0
   15.3628   -0.6133    0.0000 H   0  0  0  0  0  0  0  0  0  0  0  0
   14.0085   -3.7428    0.0000 H   0  0  0  0  0  0  0  0  0  0  0  0
   12.5595   -1.2553    0.0000 H   0  0  0  0  0  0  0  0  0  0  0  0
   17.2379   -1.6959    0.0000 H   0  0  0  0  0  0  0  0  0  0  0  0
   16.8394   -1.0056    0.0000 H   0  0  0  0  0  0  0  0  0  0  0  0
    2.3351    4.2745    0.0000 H   0  0  0  0  0  0  0  0  0  0  0  0
   14.0085   -0.4336    0.0000 H   0  0  0  0  0  0  0  0  0  0  0  0
   15.7613   -3.7082    0.0000 H   0  0  0  0  0  0  0  0  0  0  0  0
  1  2  2  0  0  0  0
  1  3  2  0  0  0  0
  1  7  1  0  0  0  0
  1 26  1  0  0  0  0
  4 24  1  0  0  0  0
  4 29  1  0  0  0  0
  5 40  2  0  0  0  0
  6 12  1  0  0  0  0
  6 13  1  0  0  0  0
  6 15  1  0  0  0  0
  7 17  1  0  0  0  0
  7 18  1  0  0  0  0
  8 33  1  0  0  0  0
  8 40  1  0  0  0  0
  8 75  1  0  0  0  0
  9 10  1  0  0  0  0
  9 11  1  0  0  0  0
  9 14  1  0  0  0  0
  9 41  1  0  0  0  0
 10 12  1  0  0  0  0
 10 42  1  0  0  0  0
 10 43  1  0  0  0  0
 11 13  1  0  0  0  0
 11 44  1  0  0  0  0
 11 45  1  0  0  0  0
 12 46  1  0  0  0  0
 12 47  1  0  0  0  0
 13 48  1  0  0  0  0
 13 49  1  0  0  0  0
 14 16  1  0  0  0  0
 14 17  2  0  0  0  0
 15 19  1  0  0  0  0
 15 50  1  0  0  0  0
 15 51  1  0  0  0  0
 16 18  1  0  0  0  0
 16 21  2  0  0  0  0
 17 52  1  0  0  0  0
 18 22  2  0  0  0  0
 19 20  1  0  0  0  0
 19 53  1  0  0  0  0
 19 54  1  0  0  0  0
 20 24  1  0  0  0  0
 20 55  1  0  0  0  0
 20 56  1  0  0  0  0
 21 23  1  0  0  0  0
 21 57  1  0  0  0  0
 22 25  1  0  0  0  0
 22 58  1  0  0  0  0
 23 25  2  0  0  0  0
 23 59  1  0  0  0  0
 24 60  1  0  0  0  0
 24 61  1  0  0  0  0
 25 62  1  0  0  0  0
 26 27  2  0  0  0  0
 26 28  1  0  0  0  0
 27 30  1  0  0  0  0
 27 63  1  0  0  0  0
 28 31  2  0  0  0  0
 28 64  1  0  0  0  0
 29 34  2  0  0  0  0
 29 36  1  0  0  0  0
 30 37  2  0  0  0  0
 30 65  1  0  0  0  0
 31 37  1  0  0  0  0
 31 66  1  0  0  0  0
 32 33  2  0  0  0  0
 32 35  1  0  0  0  0
 32 39  1  0  0  0  0
 33 34  1  0  0  0  0
 34 69  1  0  0  0  0
 35 38  1  0  0  0  0
 35 67  1  0  0  0  0
 35 68  1  0  0  0  0
 36 39  2  0  0  0  0
 36 70  1  0  0  0  0
 37 73  1  0  0  0  0
 38 40  1  0  0  0  0
 38 71  1  0  0  0  0
 38 72  1  0  0  0  0
 39 74  1  0  0  0  0
M  END
> <PUBCHEM_COMPOUND_CID>
118731505

> <PUBCHEM_COMPOUND_CANONICALIZED>
1

> <PUBCHEM_CACTVS_COMPLEXITY>
940

> <PUBCHEM_CACTVS_HBOND_ACCEPTOR>
5

> <PUBCHEM_CACTVS_HBOND_DONOR>
1

> <PUBCHEM_CACTVS_ROTATABLE_BOND>
9

> <PUBCHEM_CACTVS_SUBSKEYS>
AAADcfB/OABAAAAAAAAAAAAAAAAAAWAAAAA8eMECAAAAAFix9AAAHgQQQAAADQzh3gY8x/PIFAKoAzV3VHDCiDAxIiAI2Dk+bJgMJvLEsZuGOCjm1BnI6Ae42eOeoAAAAgACAABAAAAEAAQAAAAAAAAAAA==

> <PUBCHEM_IUPAC_OPENEYE_NAME>
7-[4-[4-[1-(benzenesulfonyl)indol-3-yl]-1-piperidyl]butoxy]-3,4-dihydro-1H-quinolin-2-one

> <PUBCHEM_IUPAC_CAS_NAME>
7-[4-[4-[1-(benzenesulfonyl)-3-indolyl]-1-piperidinyl]butoxy]-3,4-dihydro-1H-quinolin-2-one

> <PUBCHEM_IUPAC_NAME_MARKUP>
7-[4-[4-[1-(benzenesulfonyl)indol-3-yl]piperidin-1-yl]butoxy]-3,4-dihydro-1<I>H</I>-quinolin-2-one

> <PUBCHEM_IUPAC_NAME>
7-[4-[4-[1-(benzenesulfonyl)indol-3-yl]piperidin-1-yl]butoxy]-3,4-dihydro-1H-quinolin-2-one

> <PUBCHEM_IUPAC_SYSTEMATIC_NAME>
7-[4-[4-[1-(phenylsulfonyl)indol-3-yl]piperidin-1-yl]butoxy]-3,4-dihydro-1H-quinolin-2-one

> <PUBCHEM_IUPAC_TRADITIONAL_NAME>
7-[4-[4-(1-besylindol-3-yl)piperidino]butoxy]-3,4-dihydrocarbostyril

> <PUBCHEM_IUPAC_INCHI>
InChI=1S/C32H35N3O4S/c36-32-15-13-25-12-14-26(22-30(25)33-32)39-21-7-6-18-34-19-16-24(17-20-34)29-23-35(31-11-5-4-10-28(29)31)40(37,38)27-8-2-1-3-9-27/h1-5,8-12,14,22-24H,6-7,13,15-21H2,(H,33,36)

> <PUBCHEM_IUPAC_INCHIKEY>
YYUSYSDMZDYQHY-UHFFFAOYSA-N

> <PUBCHEM_XLOGP3_AA>
5.3

> <PUBCHEM_EXACT_MASS>
557.23482778

> <PUBCHEM_MOLECULAR_FORMULA>
C32H35N3O4S

> <PUBCHEM_MOLECULAR_WEIGHT>
557.7

> <PUBCHEM_OPENEYE_CAN_SMILES>
C1CN(CCC1C2=CN(C3=CC=CC=C32)S(=O)(=O)C4=CC=CC=C4)CCCCOC5=CC6=C(CCC(=O)N6)C=C5

> <PUBCHEM_OPENEYE_ISO_SMILES>
C1CN(CCC1C2=CN(C3=CC=CC=C32)S(=O)(=O)C4=CC=CC=C4)CCCCOC5=CC6=C(CCC(=O)N6)C=C5

> <PUBCHEM_CACTVS_TPSA>
89

> <PUBCHEM_MONOISOTOPIC_WEIGHT>
557.23482778

> <PUBCHEM_TOTAL_CHARGE>
0

> <PUBCHEM_HEAVY_ATOM_COUNT>
40

> <PUBCHEM_ATOM_DEF_STEREO_COUNT>
0

> <PUBCHEM_ATOM_UDEF_STEREO_COUNT>
0

> <PUBCHEM_BOND_DEF_STEREO_COUNT>
0

> <PUBCHEM_BOND_UDEF_STEREO_COUNT>
0

> <PUBCHEM_ISOTOPIC_ATOM_COUNT>
0

> <PUBCHEM_COMPONENT_COUNT>
1

> <PUBCHEM_CACTVS_TAUTO_COUNT>
-1

> <PUBCHEM_COORDINATE_TYPE>
1
5
255

> <PUBCHEM_BONDANNOTATIONS>
14  16  8
14  17  8
16  18  8
16  21  8
18  22  8
21  23  8
22  25  8
23  25  8
26  27  8
26  28  8
27  30  8
28  31  8
29  34  8
29  36  8
30  37  8
31  37  8
32  33  8
32  39  8
33  34  8
36  39  8
7  17  8
7  18  8

$$$$
