44394618
  -OEChem-09292322092D

 51 54  0     1  0  0  0  0  0999 V2000
    2.8660   -6.7942    0.0000 F   0  0  0  0  0  0  0  0  0  0  0  0
    2.0000    0.7058    0.0000 O   0  0  0  0  0  0  0  0  0  0  0  0
    4.2320    3.2446    0.0000 N   0  0  3  0  0  0  0  0  0  0  0  0
    3.7320    0.7058    0.0000 N   0  0  0  0  0  0  0  0  0  0  0  0
    3.7320    1.7058    0.0000 C   0  0  3  0  0  0  0  0  0  0  0  0
    2.9230    2.2935    0.0000 C   0  0  0  0  0  0  0  0  0  0  0  0
    4.5411    2.2935    0.0000 C   0  0  0  0  0  0  0  0  0  0  0  0
    3.2320    3.2446    0.0000 C   0  0  0  0  0  0  0  0  0  0  0  0
    4.8198    4.0536    0.0000 C   0  0  0  0  0  0  0  0  0  0  0  0
    4.4131    4.9672    0.0000 C   0  0  0  0  0  0  0  0  0  0  0  0
    2.8660    0.2058    0.0000 C   0  0  0  0  0  0  0  0  0  0  0  0
    5.0009    5.7762    0.0000 C   0  0  0  0  0  0  0  0  0  0  0  0
    3.4186    5.0717    0.0000 C   0  0  0  0  0  0  0  0  0  0  0  0
    2.8660   -0.7942    0.0000 C   0  0  0  0  0  0  0  0  0  0  0  0
    4.5942    6.6897    0.0000 C   0  0  0  0  0  0  0  0  0  0  0  0
    3.0118    5.9852    0.0000 C   0  0  0  0  0  0  0  0  0  0  0  0
    2.0000   -1.2942    0.0000 C   0  0  0  0  0  0  0  0  0  0  0  0
    3.7320   -1.2942    0.0000 C   0  0  0  0  0  0  0  0  0  0  0  0
    3.5996    6.7942    0.0000 C   0  0  0  0  0  0  0  0  0  0  0  0
    2.8660   -2.7942    0.0000 C   0  0  0  0  0  0  0  0  0  0  0  0
    2.0000   -2.2942    0.0000 C   0  0  0  0  0  0  0  0  0  0  0  0
    3.7320   -2.2942    0.0000 C   0  0  0  0  0  0  0  0  0  0  0  0
    2.8660   -3.7942    0.0000 C   0  0  0  0  0  0  0  0  0  0  0  0
    2.0000   -4.2942    0.0000 C   0  0  0  0  0  0  0  0  0  0  0  0
    3.7320   -4.2942    0.0000 C   0  0  0  0  0  0  0  0  0  0  0  0
    2.0000   -5.2942    0.0000 C   0  0  0  0  0  0  0  0  0  0  0  0
    3.7320   -5.2942    0.0000 C   0  0  0  0  0  0  0  0  0  0  0  0
    2.8660   -5.7942    0.0000 C   0  0  0  0  0  0  0  0  0  0  0  0
    4.2845    1.4243    0.0000 H   0  0  0  0  0  0  0  0  0  0  0  0
    2.3566    2.5457    0.0000 H   0  0  0  0  0  0  0  0  0  0  0  0
    2.6130    1.7566    0.0000 H   0  0  0  0  0  0  0  0  0  0  0  0
    4.8511    1.7566    0.0000 H   0  0  0  0  0  0  0  0  0  0  0  0
    5.1075    2.5457    0.0000 H   0  0  0  0  0  0  0  0  0  0  0  0
    3.2969    3.8612    0.0000 H   0  0  0  0  0  0  0  0  0  0  0  0
    2.6256    3.3735    0.0000 H   0  0  0  0  0  0  0  0  0  0  0  0
    5.2505    3.6076    0.0000 H   0  0  0  0  0  0  0  0  0  0  0  0
    5.3338    4.4003    0.0000 H   0  0  0  0  0  0  0  0  0  0  0  0
    4.2690    0.3958    0.0000 H   0  0  0  0  0  0  0  0  0  0  0  0
    5.6175    5.7114    0.0000 H   0  0  0  0  0  0  0  0  0  0  0  0
    3.0542    4.5701    0.0000 H   0  0  0  0  0  0  0  0  0  0  0  0
    4.9586    7.1913    0.0000 H   0  0  0  0  0  0  0  0  0  0  0  0
    2.3952    6.0500    0.0000 H   0  0  0  0  0  0  0  0  0  0  0  0
    1.4631   -0.9842    0.0000 H   0  0  0  0  0  0  0  0  0  0  0  0
    4.2690   -0.9842    0.0000 H   0  0  0  0  0  0  0  0  0  0  0  0
    3.3474    7.3606    0.0000 H   0  0  0  0  0  0  0  0  0  0  0  0
    1.4631   -2.6042    0.0000 H   0  0  0  0  0  0  0  0  0  0  0  0
    4.2690   -2.6042    0.0000 H   0  0  0  0  0  0  0  0  0  0  0  0
    1.4631   -3.9842    0.0000 H   0  0  0  0  0  0  0  0  0  0  0  0
    4.2690   -3.9842    0.0000 H   0  0  0  0  0  0  0  0  0  0  0  0
    1.4631   -5.6043    0.0000 H   0  0  0  0  0  0  0  0  0  0  0  0
    4.2690   -5.6043    0.0000 H   0  0  0  0  0  0  0  0  0  0  0  0
  1 28  1  0  0  0  0
  2 11  2  0  0  0  0
  3  7  1  0  0  0  0
  3  8  1  0  0  0  0
  3  9  1  0  0  0  0
  4  5  1  0  0  0  0
  4 11  1  0  0  0  0
  4 38  1  0  0  0  0
  5  6  1  0  0  0  0
  5  7  1  0  0  0  0
  5 29  1  0  0  0  0
  6  8  1  0  0  0  0
  6 30  1  0  0  0  0
  6 31  1  0  0  0  0
  7 32  1  0  0  0  0
  7 33  1  0  0  0  0
  8 34  1  0  0  0  0
  8 35  1  0  0  0  0
  9 10  1  0  0  0  0
  9 36  1  0  0  0  0
  9 37  1  0  0  0  0
 10 12  2  0  0  0  0
 10 13  1  0  0  0  0
 11 14  1  0  0  0  0
 12 15  1  0  0  0  0
 12 39  1  0  0  0  0
 13 16  2  0  0  0  0
 13 40  1  0  0  0  0
 14 17  2  0  0  0  0
 14 18  1  0  0  0  0
 15 19  2  0  0  0  0
 15 41  1  0  0  0  0
 16 19  1  0  0  0  0
 16 42  1  0  0  0  0
 17 21  1  0  0  0  0
 17 43  1  0  0  0  0
 18 22  2  0  0  0  0
 18 44  1  0  0  0  0
 19 45  1  0  0  0  0
 20 21  2  0  0  0  0
 20 22  1  0  0  0  0
 20 23  1  0  0  0  0
 21 46  1  0  0  0  0
 22 47  1  0  0  0  0
 23 24  2  0  0  0  0
 23 25  1  0  0  0  0
 24 26  1  0  0  0  0
 24 48  1  0  0  0  0
 25 27  2  0  0  0  0
 25 49  1  0  0  0  0
 26 28  2  0  0  0  0
 26 50  1  0  0  0  0
 27 28  1  0  0  0  0
 27 51  1  0  0  0  0
M  END
> <PUBCHEM_COMPOUND_CID>
44394618

> <PUBCHEM_COMPOUND_CANONICALIZED>
1

> <PUBCHEM_CACTVS_COMPLEXITY>
491

> <PUBCHEM_CACTVS_HBOND_ACCEPTOR>
3

> <PUBCHEM_CACTVS_HBOND_DONOR>
1

> <PUBCHEM_CACTVS_ROTATABLE_BOND>
5

> <PUBCHEM_CACTVS_SUBSKEYS>
AAADceB7IQAAAAAAAAAAAAAAAAAAAWAAAAAwYMAAAAAAAAABUAAAHwAQAAAADCjBmAwwAIPAAACIAiFSEACCAAAkAAAIiIEIBMgIYDKA1RGUIQhglgCIiYcYiMCOwAAAAAAAAACAAAAAAAAAAAAAAAAAAA==

> <PUBCHEM_IUPAC_OPENEYE_NAME>
N-(1-benzylpyrrolidin-3-yl)-4-(4-fluorophenyl)benzamide

> <PUBCHEM_IUPAC_CAS_NAME>
4-(4-fluorophenyl)-N-[1-(phenylmethyl)-3-pyrrolidinyl]benzamide

> <PUBCHEM_IUPAC_NAME_MARKUP>
<I>N</I>-(1-benzylpyrrolidin-3-yl)-4-(4-fluorophenyl)benzamide

> <PUBCHEM_IUPAC_NAME>
N-(1-benzylpyrrolidin-3-yl)-4-(4-fluorophenyl)benzamide

> <PUBCHEM_IUPAC_SYSTEMATIC_NAME>
4-(4-fluorophenyl)-N-[1-(phenylmethyl)pyrrolidin-3-yl]benzamide

> <PUBCHEM_IUPAC_TRADITIONAL_NAME>
N-(1-benzylpyrrolidin-3-yl)-4-(4-fluorophenyl)benzamide

> <PUBCHEM_IUPAC_INCHI>
InChI=1S/C24H23FN2O/c25-22-12-10-20(11-13-22)19-6-8-21(9-7-19)24(28)26-23-14-15-27(17-23)16-18-4-2-1-3-5-18/h1-13,23H,14-17H2,(H,26,28)

> <PUBCHEM_IUPAC_INCHIKEY>
MSJWCCHOETUGFO-UHFFFAOYSA-N

> <PUBCHEM_XLOGP3_AA>
4.7

> <PUBCHEM_EXACT_MASS>
374.17944152

> <PUBCHEM_MOLECULAR_FORMULA>
C24H23FN2O

> <PUBCHEM_MOLECULAR_WEIGHT>
374.4

> <PUBCHEM_OPENEYE_CAN_SMILES>
C1CN(CC1NC(=O)C2=CC=C(C=C2)C3=CC=C(C=C3)F)CC4=CC=CC=C4

> <PUBCHEM_OPENEYE_ISO_SMILES>
C1CN(CC1NC(=O)C2=CC=C(C=C2)C3=CC=C(C=C3)F)CC4=CC=CC=C4

> <PUBCHEM_CACTVS_TPSA>
32.3

> <PUBCHEM_MONOISOTOPIC_WEIGHT>
374.17944152

> <PUBCHEM_TOTAL_CHARGE>
0

> <PUBCHEM_HEAVY_ATOM_COUNT>
28

> <PUBCHEM_ATOM_DEF_STEREO_COUNT>
0

> <PUBCHEM_ATOM_UDEF_STEREO_COUNT>
1

> <PUBCHEM_BOND_DEF_STEREO_COUNT>
0

> <PUBCHEM_BOND_UDEF_STEREO_COUNT>
0

> <PUBCHEM_ISOTOPIC_ATOM_COUNT>
0

> <PUBCHEM_COMPONENT_COUNT>
1

> <PUBCHEM_CACTVS_TAUTO_COUNT>
-1

> <PUBCHEM_COORDINATE_TYPE>
1
5
255

> <PUBCHEM_BONDANNOTATIONS>
10  12  8
10  13  8
12  15  8
13  16  8
14  17  8
14  18  8
15  19  8
16  19  8
17  21  8
18  22  8
20  21  8
20  22  8
23  24  8
23  25  8
24  26  8
25  27  8
26  28  8
27  28  8
5  4  3

$$$$
