11628452
  -OEChem-09292322492D

 76 82  0     1  0  0  0  0  0999 V2000
    7.3222    2.0982    0.0000 S   0  0  0  0  0  0  0  0  0  0  0  0
    5.6047   -5.9501    0.0000 O   0  0  0  0  0  0  0  0  0  0  0  0
    7.3222   -1.3659    0.0000 N   0  0  3  0  0  0  0  0  0  0  0  0
    4.2109   -5.1454    0.0000 N   0  0  0  0  0  0  0  0  0  0  0  0
    4.5227   -7.8328    0.0000 N   0  0  0  0  0  0  0  0  0  0  0  0
    8.8167    3.0688    0.0000 N   0  0  0  0  0  0  0  0  0  0  0  0
    3.7796   -8.5019    0.0000 N   0  0  0  0  0  0  0  0  0  0  0  0
    7.4155    3.8778    0.0000 N   0  0  0  0  0  0  0  0  0  0  0  0
    8.1586    4.5469    0.0000 N   0  0  0  0  0  0  0  0  0  0  0  0
   11.0811    6.8891    0.0000 N   0  0  0  0  0  0  0  0  0  0  0  0
    7.8758   -2.1755    0.0000 C   0  0  0  0  0  0  0  0  0  0  0  0
    6.3443   -1.2912    0.0000 C   0  0  0  0  0  0  0  0  0  0  0  0
    7.5905   -3.1139    0.0000 C   0  0  0  0  0  0  0  0  0  0  0  0
    5.6743   -2.0075    0.0000 C   0  0  0  0  0  0  0  0  0  0  0  0
    6.6799   -3.4783    0.0000 C   0  0  0  0  0  0  0  0  0  0  0  0
    5.8139   -2.9783    0.0000 C   0  0  0  0  0  0  0  0  0  0  0  0
    7.8222   -0.4998    0.0000 C   0  0  0  0  0  0  0  0  0  0  0  0
    7.3222    0.3662    0.0000 C   0  0  0  0  0  0  0  0  0  0  0  0
    6.6799   -4.4783    0.0000 C   0  0  0  0  0  0  0  0  0  0  0  0
    4.9479   -3.4783    0.0000 C   0  0  0  0  0  0  0  0  0  0  0  0
    5.8139   -4.9783    0.0000 C   0  0  0  0  0  0  0  0  0  0  0  0
    4.9479   -4.4783    0.0000 C   0  0  0  0  0  0  0  0  0  0  0  0
    7.8222    1.2322    0.0000 C   0  0  0  0  0  0  0  0  0  0  0  0
    4.6160   -6.0532    0.0000 C   0  0  0  0  0  0  0  0  0  0  0  0
    4.1160   -6.9192    0.0000 C   0  0  0  0  0  0  0  0  0  0  0  0
    7.8222    2.9643    0.0000 C   0  0  0  0  0  0  0  0  0  0  0  0
    3.1215   -7.0238    0.0000 C   0  0  0  0  0  0  0  0  0  0  0  0
    9.0246    4.0469    0.0000 C   0  0  0  0  0  0  0  0  0  0  0  0
    2.9136   -8.0019    0.0000 C   0  0  0  0  0  0  0  0  0  0  0  0
    9.9382    4.4537    0.0000 C   0  0  0  0  0  0  0  0  0  0  0  0
    5.5009   -8.0407    0.0000 C   0  0  0  0  0  0  0  0  0  0  0  0
   10.0427    5.4482    0.0000 C   0  0  0  0  0  0  0  0  0  0  0  0
    9.4859    2.3256    0.0000 C   0  0  0  0  0  0  0  0  0  0  0  0
   10.9563    5.8549    0.0000 C   0  0  0  0  0  0  0  0  0  0  0  0
   10.7472    3.8659    0.0000 C   0  0  0  0  0  0  0  0  0  0  0  0
    2.0000   -8.4086    0.0000 C   0  0  0  0  0  0  0  0  0  0  0  0
    9.1907    6.0474    0.0000 C   0  0  0  0  0  0  0  0  0  0  0  0
   11.7653    5.2672    0.0000 C   0  0  0  0  0  0  0  0  0  0  0  0
   11.6608    4.2726    0.0000 C   0  0  0  0  0  0  0  0  0  0  0  0
    9.2916    7.0841    0.0000 C   0  0  0  0  0  0  0  0  0  0  0  0
   10.2432    7.5078    0.0000 C   0  0  0  0  0  0  0  0  0  0  0  0
   10.3515    8.5019    0.0000 C   0  0  0  0  0  0  0  0  0  0  0  0
    8.4137   -2.4838    0.0000 H   0  0  0  0  0  0  0  0  0  0  0  0
    8.2965   -1.7200    0.0000 H   0  0  0  0  0  0  0  0  0  0  0  0
    6.5283   -0.6992    0.0000 H   0  0  0  0  0  0  0  0  0  0  0  0
    5.8083   -0.9796    0.0000 H   0  0  0  0  0  0  0  0  0  0  0  0
    7.6865   -3.7264    0.0000 H   0  0  0  0  0  0  0  0  0  0  0  0
    8.2090   -3.1572    0.0000 H   0  0  0  0  0  0  0  0  0  0  0  0
    5.3275   -1.4935    0.0000 H   0  0  0  0  0  0  0  0  0  0  0  0
    5.0958   -2.2307    0.0000 H   0  0  0  0  0  0  0  0  0  0  0  0
    8.2972   -0.8984    0.0000 H   0  0  0  0  0  0  0  0  0  0  0  0
    8.2972   -0.1013    0.0000 H   0  0  0  0  0  0  0  0  0  0  0  0
    6.8473    0.7647    0.0000 H   0  0  0  0  0  0  0  0  0  0  0  0
    6.8473   -0.0323    0.0000 H   0  0  0  0  0  0  0  0  0  0  0  0
    7.2169   -4.7883    0.0000 H   0  0  0  0  0  0  0  0  0  0  0  0
    4.4109   -3.1683    0.0000 H   0  0  0  0  0  0  0  0  0  0  0  0
    8.2972    0.8337    0.0000 H   0  0  0  0  0  0  0  0  0  0  0  0
    8.2972    1.6307    0.0000 H   0  0  0  0  0  0  0  0  0  0  0  0
    2.7066   -6.5630    0.0000 H   0  0  0  0  0  0  0  0  0  0  0  0
    5.3720   -8.6471    0.0000 H   0  0  0  0  0  0  0  0  0  0  0  0
    6.1073   -8.1696    0.0000 H   0  0  0  0  0  0  0  0  0  0  0  0
    5.6298   -7.4342    0.0000 H   0  0  0  0  0  0  0  0  0  0  0  0
    9.0251    1.9108    0.0000 H   0  0  0  0  0  0  0  0  0  0  0  0
    9.9007    1.8649    0.0000 H   0  0  0  0  0  0  0  0  0  0  0  0
    9.9466    2.7405    0.0000 H   0  0  0  0  0  0  0  0  0  0  0  0
   10.6824    3.2493    0.0000 H   0  0  0  0  0  0  0  0  0  0  0  0
    1.7478   -7.8422    0.0000 H   0  0  0  0  0  0  0  0  0  0  0  0
    1.4336   -8.6608    0.0000 H   0  0  0  0  0  0  0  0  0  0  0  0
    2.2522   -8.9750    0.0000 H   0  0  0  0  0  0  0  0  0  0  0  0
    8.6272    5.7887    0.0000 H   0  0  0  0  0  0  0  0  0  0  0  0
   12.3317    5.5193    0.0000 H   0  0  0  0  0  0  0  0  0  0  0  0
   12.1623    3.9082    0.0000 H   0  0  0  0  0  0  0  0  0  0  0  0
    8.7886    7.4466    0.0000 H   0  0  0  0  0  0  0  0  0  0  0  0
   10.9679    8.4347    0.0000 H   0  0  0  0  0  0  0  0  0  0  0  0
   10.4187    9.1182    0.0000 H   0  0  0  0  0  0  0  0  0  0  0  0
    9.7352    8.5691    0.0000 H   0  0  0  0  0  0  0  0  0  0  0  0
  1 23  1  0  0  0  0
  1 26  1  0  0  0  0
  2 21  1  0  0  0  0
  2 24  1  0  0  0  0
  3 11  1  0  0  0  0
  3 12  1  0  0  0  0
  3 17  1  0  0  0  0
  4 22  1  0  0  0  0
  4 24  2  0  0  0  0
  5  7  1  0  0  0  0
  5 25  1  0  0  0  0
  5 31  1  0  0  0  0
  6 26  1  0  0  0  0
  6 28  1  0  0  0  0
  6 33  1  0  0  0  0
  7 29  2  0  0  0  0
  8  9  1  0  0  0  0
  8 26  2  0  0  0  0
  9 28  2  0  0  0  0
 10 34  1  0  0  0  0
 10 41  2  0  0  0  0
 11 13  1  0  0  0  0
 11 43  1  0  0  0  0
 11 44  1  0  0  0  0
 12 14  1  0  0  0  0
 12 45  1  0  0  0  0
 12 46  1  0  0  0  0
 13 15  1  0  0  0  0
 13 47  1  0  0  0  0
 13 48  1  0  0  0  0
 14 16  1  0  0  0  0
 14 49  1  0  0  0  0
 14 50  1  0  0  0  0
 15 16  1  0  0  0  0
 15 19  2  0  0  0  0
 16 20  2  0  0  0  0
 17 18  1  0  0  0  0
 17 51  1  0  0  0  0
 17 52  1  0  0  0  0
 18 23  1  0  0  0  0
 18 53  1  0  0  0  0
 18 54  1  0  0  0  0
 19 21  1  0  0  0  0
 19 55  1  0  0  0  0
 20 22  1  0  0  0  0
 20 56  1  0  0  0  0
 21 22  2  0  0  0  0
 23 57  1  0  0  0  0
 23 58  1  0  0  0  0
 24 25  1  0  0  0  0
 25 27  2  0  0  0  0
 27 29  1  0  0  0  0
 27 59  1  0  0  0  0
 28 30  1  0  0  0  0
 29 36  1  0  0  0  0
 30 32  2  0  0  0  0
 30 35  1  0  0  0  0
 31 60  1  0  0  0  0
 31 61  1  0  0  0  0
 31 62  1  0  0  0  0
 32 34  1  0  0  0  0
 32 37  1  0  0  0  0
 33 63  1  0  0  0  0
 33 64  1  0  0  0  0
 33 65  1  0  0  0  0
 34 38  2  0  0  0  0
 35 39  2  0  0  0  0
 35 66  1  0  0  0  0
 36 67  1  0  0  0  0
 36 68  1  0  0  0  0
 36 69  1  0  0  0  0
 37 40  2  0  0  0  0
 37 70  1  0  0  0  0
 38 39  1  0  0  0  0
 38 71  1  0  0  0  0
 39 72  1  0  0  0  0
 40 41  1  0  0  0  0
 40 73  1  0  0  0  0
 41 42  1  0  0  0  0
 42 74  1  0  0  0  0
 42 75  1  0  0  0  0
 42 76  1  0  0  0  0
M  END
> <PUBCHEM_COMPOUND_CID>
11628452

> <PUBCHEM_COMPOUND_CANONICALIZED>
1

> <PUBCHEM_CACTVS_COMPLEXITY>
901

> <PUBCHEM_CACTVS_HBOND_ACCEPTOR>
8

> <PUBCHEM_CACTVS_HBOND_DONOR>
0

> <PUBCHEM_CACTVS_ROTATABLE_BOND>
7

> <PUBCHEM_CACTVS_SUBSKEYS>
AAADcfB/4ABAAAAAAAAAAAAAAAAAAWLFgAA8YIAABYAAAFix/gAAHgQIAAAADAzF3wSz1vcMFEiqA6dydASS3Ctv4rAd2CG/bNiObvLk/fufvSjkzBPY6Ye82fKOqAABQAASEABQAAKAACQgAAAAAAAAAA==

> <PUBCHEM_IUPAC_OPENEYE_NAME>
2-(2,5-dimethylpyrazol-3-yl)-7-[3-[[4-methyl-5-(2-methyl-5-quinolyl)-1,2,4-triazol-3-yl]sulfanyl]propyl]-5,6,8,9-tetrahydrooxazolo[4,5-h][3]benzazepine

> <PUBCHEM_IUPAC_CAS_NAME>
2-(2,5-dimethyl-3-pyrazolyl)-7-[3-[[4-methyl-5-(2-methyl-5-quinolinyl)-1,2,4-triazol-3-yl]thio]propyl]-5,6,8,9-tetrahydrooxazolo[4,5-h][3]benzazepine

> <PUBCHEM_IUPAC_NAME_MARKUP>
2-(2,5-dimethylpyrazol-3-yl)-7-[3-[[4-methyl-5-(2-methylquinolin-5-yl)-1,2,4-triazol-3-yl]sulfanyl]propyl]-5,6,8,9-tetrahydro-[1,3]oxazolo[4,5-h][3]benzazepine

> <PUBCHEM_IUPAC_NAME>
2-(2,5-dimethylpyrazol-3-yl)-7-[3-[[4-methyl-5-(2-methylquinolin-5-yl)-1,2,4-triazol-3-yl]sulfanyl]propyl]-5,6,8,9-tetrahydro-[1,3]oxazolo[4,5-h][3]benzazepine

> <PUBCHEM_IUPAC_SYSTEMATIC_NAME>
2-(2,5-dimethylpyrazol-3-yl)-7-[3-[[4-methyl-5-(2-methylquinolin-5-yl)-1,2,4-triazol-3-yl]sulfanyl]propyl]-5,6,8,9-tetrahydro-[1,3]oxazolo[4,5-h][3]benzazepine

> <PUBCHEM_IUPAC_TRADITIONAL_NAME>
2-(2,5-dimethylpyrazol-3-yl)-7-[3-[[4-methyl-5-(2-methyl-5-quinolyl)-1,2,4-triazol-3-yl]thio]propyl]-5,6,8,9-tetrahydrooxazolo[4,5-h][3]benzazepine

> <PUBCHEM_IUPAC_INCHI>
InChI=1S/C32H34N8OS/c1-20-9-10-24-25(7-5-8-26(24)33-20)30-35-36-32(38(30)3)42-16-6-13-40-14-11-22-18-27-29(19-23(22)12-15-40)41-31(34-27)28-17-21(2)37-39(28)4/h5,7-10,17-19H,6,11-16H2,1-4H3

> <PUBCHEM_IUPAC_INCHIKEY>
XBWBWCMBNYVAKR-UHFFFAOYSA-N

> <PUBCHEM_XLOGP3_AA>
5.2

> <PUBCHEM_EXACT_MASS>
578.25762891

> <PUBCHEM_MOLECULAR_FORMULA>
C32H34N8OS

> <PUBCHEM_MOLECULAR_WEIGHT>
578.7

> <PUBCHEM_OPENEYE_CAN_SMILES>
CC1=NC2=CC=CC(=C2C=C1)C3=NN=C(N3C)SCCCN4CCC5=CC6=C(C=C5CC4)OC(=N6)C7=CC(=NN7C)C

> <PUBCHEM_OPENEYE_ISO_SMILES>
CC1=NC2=CC=CC(=C2C=C1)C3=NN=C(N3C)SCCCN4CCC5=CC6=C(C=C5CC4)OC(=N6)C7=CC(=NN7C)C

> <PUBCHEM_CACTVS_TPSA>
116

> <PUBCHEM_MONOISOTOPIC_WEIGHT>
578.25762891

> <PUBCHEM_TOTAL_CHARGE>
0

> <PUBCHEM_HEAVY_ATOM_COUNT>
42

> <PUBCHEM_ATOM_DEF_STEREO_COUNT>
0

> <PUBCHEM_ATOM_UDEF_STEREO_COUNT>
0

> <PUBCHEM_BOND_DEF_STEREO_COUNT>
0

> <PUBCHEM_BOND_UDEF_STEREO_COUNT>
0

> <PUBCHEM_ISOTOPIC_ATOM_COUNT>
0

> <PUBCHEM_COMPONENT_COUNT>
1

> <PUBCHEM_CACTVS_TAUTO_COUNT>
-1

> <PUBCHEM_COORDINATE_TYPE>
1
5
255

> <PUBCHEM_BONDANNOTATIONS>
10  34  8
10  41  8
15  16  8
15  19  8
16  20  8
19  21  8
2  21  8
2  24  8
20  22  8
21  22  8
25  27  8
27  29  8
30  32  8
30  35  8
32  34  8
32  37  8
34  38  8
35  39  8
37  40  8
38  39  8
4  22  8
4  24  8
40  41  8
5  25  8
5  7  8
6  26  8
6  28  8
7  29  8
8  26  8
8  9  8
9  28  8

$$$$
