72545009
  -OEChem-09292322472D

 59 62  0     1  0  0  0  0  0999 V2000
    6.0010    2.9301    0.0000 F   0  0  0  0  0  0  0  0  0  0  0  0
    4.2690    0.9301    0.0000 O   0  0  0  0  0  0  0  0  0  0  0  0
    4.2690    3.9301    0.0000 O   0  0  0  0  0  0  0  0  0  0  0  0
    2.5369    2.9301    0.0000 O   0  0  0  0  0  0  0  0  0  0  0  0
    2.5369   -0.0699    0.0000 O   0  0  0  0  0  0  0  0  0  0  0  0
   11.2875   -3.3266    0.0000 O   0  0  0  0  0  0  0  0  0  0  0  0
    8.4850   -1.2904    0.0000 N   0  0  0  0  0  0  0  0  0  0  0  0
    6.0010    0.9301    0.0000 N   0  0  0  0  0  0  0  0  0  0  0  0
   10.4740   -1.4995    0.0000 N   0  0  0  0  0  0  0  0  0  0  0  0
    6.9146    1.3368    0.0000 N   0  0  0  0  0  0  0  0  0  0  0  0
    7.5837    0.5937    0.0000 N   0  0  0  0  0  0  0  0  0  0  0  0
    4.2690    2.9301    0.0000 C   0  0  1  0  0  0  0  0  0  0  0  0
    3.4030    2.4301    0.0000 C   0  0  1  0  0  0  0  0  0  0  0  0
    5.1350    1.4301    0.0000 C   0  0  1  0  0  0  0  0  0  0  0  0
    5.1350    2.4301    0.0000 C   0  0  2  0  0  0  0  0  0  0  0  0
    3.4030    1.4301    0.0000 C   0  0  1  0  0  0  0  0  0  0  0  0
    8.8917   -2.2040    0.0000 C   0  0  0  0  0  0  0  0  0  0  0  0
    9.0728   -0.4814    0.0000 C   0  0  0  0  0  0  0  0  0  0  0  0
    9.8862   -2.3085    0.0000 C   0  0  0  0  0  0  0  0  0  0  0  0
   10.0673   -0.5859    0.0000 C   0  0  0  0  0  0  0  0  0  0  0  0
    7.4904   -1.1859    0.0000 C   0  0  0  0  0  0  0  0  0  0  0  0
    2.5369    0.9301    0.0000 C   0  0  0  0  0  0  0  0  0  0  0  0
    7.0837   -0.2723    0.0000 C   0  0  0  0  0  0  0  0  0  0  0  0
    6.1056   -0.0644    0.0000 C   0  0  0  0  0  0  0  0  0  0  0  0
   11.4685   -1.6040    0.0000 C   0  0  0  0  0  0  0  0  0  0  0  0
   11.8753   -2.5175    0.0000 C   0  0  0  0  0  0  0  0  0  0  0  0
   12.0563   -0.7950    0.0000 C   0  0  0  0  0  0  0  0  0  0  0  0
   12.8698   -2.6221    0.0000 C   0  0  0  0  0  0  0  0  0  0  0  0
   13.0508   -0.8995    0.0000 C   0  0  0  0  0  0  0  0  0  0  0  0
   13.4576   -1.8130    0.0000 C   0  0  0  0  0  0  0  0  0  0  0  0
   11.6942   -4.2401    0.0000 C   0  0  0  0  0  0  0  0  0  0  0  0
    3.7320    3.2401    0.0000 H   0  0  0  0  0  0  0  0  0  0  0  0
    3.4030    3.0501    0.0000 H   0  0  0  0  0  0  0  0  0  0  0  0
    5.6720    1.7401    0.0000 H   0  0  0  0  0  0  0  0  0  0  0  0
    5.1350    3.0501    0.0000 H   0  0  0  0  0  0  0  0  0  0  0  0
    3.4030    0.8101    0.0000 H   0  0  0  0  0  0  0  0  0  0  0  0
    8.2901   -2.3539    0.0000 H   0  0  0  0  0  0  0  0  0  0  0  0
    8.9350   -2.8224    0.0000 H   0  0  0  0  0  0  0  0  0  0  0  0
    9.2436    0.1146    0.0000 H   0  0  0  0  0  0  0  0  0  0  0  0
    8.5155   -0.2096    0.0000 H   0  0  0  0  0  0  0  0  0  0  0  0
    9.7153   -2.9045    0.0000 H   0  0  0  0  0  0  0  0  0  0  0  0
   10.4435   -2.5803    0.0000 H   0  0  0  0  0  0  0  0  0  0  0  0
   10.6689   -0.4359    0.0000 H   0  0  0  0  0  0  0  0  0  0  0  0
   10.0240    0.0326    0.0000 H   0  0  0  0  0  0  0  0  0  0  0  0
    6.8889   -1.3359    0.0000 H   0  0  0  0  0  0  0  0  0  0  0  0
    7.5337   -1.8044    0.0000 H   0  0  0  0  0  0  0  0  0  0  0  0
    2.3249    1.5127    0.0000 H   0  0  0  0  0  0  0  0  0  0  0  0
    1.9264    0.8224    0.0000 H   0  0  0  0  0  0  0  0  0  0  0  0
    5.6448   -0.4793    0.0000 H   0  0  0  0  0  0  0  0  0  0  0  0
    3.7320    4.2401    0.0000 H   0  0  0  0  0  0  0  0  0  0  0  0
    2.0000    2.6201    0.0000 H   0  0  0  0  0  0  0  0  0  0  0  0
    2.0000   -0.3799    0.0000 H   0  0  0  0  0  0  0  0  0  0  0  0
   11.8041   -0.2286    0.0000 H   0  0  0  0  0  0  0  0  0  0  0  0
   13.1220   -3.1885    0.0000 H   0  0  0  0  0  0  0  0  0  0  0  0
   13.4153   -0.3979    0.0000 H   0  0  0  0  0  0  0  0  0  0  0  0
   14.0742   -1.8779    0.0000 H   0  0  0  0  0  0  0  0  0  0  0  0
   11.1278   -4.4923    0.0000 H   0  0  0  0  0  0  0  0  0  0  0  0
   11.9464   -4.8065    0.0000 H   0  0  0  0  0  0  0  0  0  0  0  0
   12.2606   -3.9879    0.0000 H   0  0  0  0  0  0  0  0  0  0  0  0
 15  1  1  1  0  0  0
  2 14  1  0  0  0  0
  2 16  1  0  0  0  0
 12  3  1  6  0  0  0
  3 50  1  0  0  0  0
 13  4  1  1  0  0  0
  4 51  1  0  0  0  0
  5 22  1  0  0  0  0
  5 52  1  0  0  0  0
  6 26  1  0  0  0  0
  6 31  1  0  0  0  0
  7 17  1  0  0  0  0
  7 18  1  0  0  0  0
  7 21  1  0  0  0  0
  8 10  1  0  0  0  0
 14  8  1  6  0  0  0
  8 24  1  0  0  0  0
  9 19  1  0  0  0  0
  9 20  1  0  0  0  0
  9 25  1  0  0  0  0
 10 11  2  0  0  0  0
 11 23  1  0  0  0  0
 12 13  1  0  0  0  0
 12 15  1  0  0  0  0
 12 32  1  0  0  0  0
 13 16  1  0  0  0  0
 13 33  1  0  0  0  0
 14 15  1  0  0  0  0
 14 34  1  0  0  0  0
 15 35  1  0  0  0  0
 16 22  1  6  0  0  0
 16 36  1  0  0  0  0
 17 19  1  0  0  0  0
 17 37  1  0  0  0  0
 17 38  1  0  0  0  0
 18 20  1  0  0  0  0
 18 39  1  0  0  0  0
 18 40  1  0  0  0  0
 19 41  1  0  0  0  0
 19 42  1  0  0  0  0
 20 43  1  0  0  0  0
 20 44  1  0  0  0  0
 21 23  1  0  0  0  0
 21 45  1  0  0  0  0
 21 46  1  0  0  0  0
 22 47  1  0  0  0  0
 22 48  1  0  0  0  0
 23 24  2  0  0  0  0
 24 49  1  0  0  0  0
 25 26  1  0  0  0  0
 25 27  2  0  0  0  0
 26 28  2  0  0  0  0
 27 29  1  0  0  0  0
 27 53  1  0  0  0  0
 28 30  1  0  0  0  0
 28 54  1  0  0  0  0
 29 30  2  0  0  0  0
 29 55  1  0  0  0  0
 30 56  1  0  0  0  0
 31 57  1  0  0  0  0
 31 58  1  0  0  0  0
 31 59  1  0  0  0  0
M  END
> <PUBCHEM_COMPOUND_CID>
72545009

> <PUBCHEM_COMPOUND_CANONICALIZED>
1

> <PUBCHEM_CACTVS_COMPLEXITY>
572

> <PUBCHEM_CACTVS_HBOND_ACCEPTOR>
10

> <PUBCHEM_CACTVS_HBOND_DONOR>
3

> <PUBCHEM_CACTVS_ROTATABLE_BOND>
6

> <PUBCHEM_CACTVS_SUBSKEYS>
AAADceB7uQAAAAAAAAAAAAAAAAAAAWAAAAA8SIAAAAAAAAABwAAAHwAICAAACBzhlgY+xpMIBgCiATRnRACCDAQxsgAY2AA/fIgPdiLE8ZufcChnwBHb6AfwUAIAAAAAAAAAEAAAAAAAAAAgAAAAAAAAAA==

> <PUBCHEM_IUPAC_OPENEYE_NAME>
(2R,3S,4S,5R,6R)-5-fluoro-2-(hydroxymethyl)-6-[4-[[4-(2-methoxyphenyl)piperazin-1-yl]methyl]triazol-1-yl]tetrahydropyran-3,4-diol

> <PUBCHEM_IUPAC_CAS_NAME>
(2R,3S,4S,5R,6R)-5-fluoro-2-(hydroxymethyl)-6-[4-[[4-(2-methoxyphenyl)-1-piperazinyl]methyl]-1-triazolyl]oxane-3,4-diol

> <PUBCHEM_IUPAC_NAME_MARKUP>
(2<I>R</I>,3<I>S</I>,4<I>S</I>,5<I>R</I>,6<I>R</I>)-5-fluoro-2-(hydroxymethyl)-6-[4-[[4-(2-methoxyphenyl)piperazin-1-yl]methyl]triazol-1-yl]oxane-3,4-diol

> <PUBCHEM_IUPAC_NAME>
(2R,3S,4S,5R,6R)-5-fluoro-2-(hydroxymethyl)-6-[4-[[4-(2-methoxyphenyl)piperazin-1-yl]methyl]triazol-1-yl]oxane-3,4-diol

> <PUBCHEM_IUPAC_SYSTEMATIC_NAME>
(2R,3S,4S,5R,6R)-5-fluoranyl-2-(hydroxymethyl)-6-[4-[[4-(2-methoxyphenyl)piperazin-1-yl]methyl]-1,2,3-triazol-1-yl]oxane-3,4-diol

> <PUBCHEM_IUPAC_TRADITIONAL_NAME>
(2R,3S,4S,5R,6R)-5-fluoro-6-[4-[[4-(2-methoxyphenyl)piperazino]methyl]triazol-1-yl]-2-methylol-tetrahydropyran-3,4-diol

> <PUBCHEM_IUPAC_INCHI>
InChI=1S/C20H28FN5O5/c1-30-15-5-3-2-4-14(15)25-8-6-24(7-9-25)10-13-11-26(23-22-13)20-17(21)19(29)18(28)16(12-27)31-20/h2-5,11,16-20,27-29H,6-10,12H2,1H3/t16-,17-,18-,19-,20-/m1/s1

> <PUBCHEM_IUPAC_INCHIKEY>
SSVIIFPCYYWMIA-LASHMREHSA-N

> <PUBCHEM_XLOGP3_AA>
-0.1

> <PUBCHEM_EXACT_MASS>
437.20744717

> <PUBCHEM_MOLECULAR_FORMULA>
C20H28FN5O5

> <PUBCHEM_MOLECULAR_WEIGHT>
437.5

> <PUBCHEM_OPENEYE_CAN_SMILES>
COC1=CC=CC=C1N2CCN(CC2)CC3=CN(N=N3)C4C(C(C(C(O4)CO)O)O)F

> <PUBCHEM_OPENEYE_ISO_SMILES>
COC1=CC=CC=C1N2CCN(CC2)CC3=CN(N=N3)[C@H]4[C@@H]([C@H]([C@@H]([C@H](O4)CO)O)O)F

> <PUBCHEM_CACTVS_TPSA>
116

> <PUBCHEM_MONOISOTOPIC_WEIGHT>
437.20744717

> <PUBCHEM_TOTAL_CHARGE>
0

> <PUBCHEM_HEAVY_ATOM_COUNT>
31

> <PUBCHEM_ATOM_DEF_STEREO_COUNT>
5

> <PUBCHEM_ATOM_UDEF_STEREO_COUNT>
0

> <PUBCHEM_BOND_DEF_STEREO_COUNT>
0

> <PUBCHEM_BOND_UDEF_STEREO_COUNT>
0

> <PUBCHEM_ISOTOPIC_ATOM_COUNT>
0

> <PUBCHEM_COMPONENT_COUNT>
1

> <PUBCHEM_CACTVS_TAUTO_COUNT>
-1

> <PUBCHEM_COORDINATE_TYPE>
1
5
255

> <PUBCHEM_BONDANNOTATIONS>
15  1  5
10  11  8
11  23  8
16  22  6
23  24  8
25  26  8
25  27  8
26  28  8
27  29  8
28  30  8
29  30  8
12  3  6
13  4  5
8  10  8
14  8  6
8  24  8

$$$$
