168270458
  -OEChem-09292322442D

 72 77  0     1  0  0  0  0  0999 V2000
    2.8361   -4.0960    0.0000 Cl  0  0  0  0  0  0  0  0  0  0  0  0
    2.0000   -5.9128    0.0000 Cl  0  0  0  0  0  0  0  0  0  0  0  0
    9.0237    2.3454    0.0000 F   0  0  0  0  0  0  0  0  0  0  0  0
    9.2661    3.4957    0.0000 F   0  0  0  0  0  0  0  0  0  0  0  0
   13.4056    3.4208    0.0000 F   0  0  0  0  0  0  0  0  0  0  0  0
   12.9056    2.5548    0.0000 F   0  0  0  0  0  0  0  0  0  0  0  0
   11.5396    2.9208    0.0000 N   0  0  0  0  0  0  0  0  0  0  0  0
   10.6735    3.4208    0.0000 N   0  0  3  0  0  0  0  0  0  0  0  0
   10.3416    1.8459    0.0000 N   0  3  0  0  0  0  0  0  0  0  0  0
   12.4056    4.4208    0.0000 N   0  3  0  0  0  0  0  0  0  0  0  0
    5.6637   -2.0948    0.0000 N   0  0  0  0  0  0  0  0  0  0  0  0
    4.8276   -3.9116    0.0000 N   0  0  0  0  0  0  0  0  0  0  0  0
    8.9094    0.8148    0.0000 N   0  0  0  0  0  0  0  0  0  0  0  0
   11.3304    1.9490    0.0000 C   0  0  0  0  0  0  0  0  0  0  0  0
   11.5396    4.9208    0.0000 C   0  0  0  0  0  0  0  0  0  0  0  0
    4.6680   -2.1870    0.0000 C   0  0  0  0  0  0  0  0  0  0  0  0
    6.2414   -2.9110    0.0000 C   0  0  0  0  0  0  0  0  0  0  0  0
    6.0818   -1.1864    0.0000 C   0  0  0  0  0  0  0  0  0  0  0  0
   10.6735    4.4208    0.0000 C   0  0  0  0  0  0  0  0  0  0  0  0
    4.2499   -3.0954    0.0000 C   0  0  0  0  0  0  0  0  0  0  0  0
    5.8233   -3.8195    0.0000 C   0  0  0  0  0  0  0  0  0  0  0  0
    9.9051    0.9069    0.0000 C   0  0  0  0  0  0  0  0  0  0  0  0
    7.0775   -1.0942    0.0000 C   0  0  0  0  0  0  0  0  0  0  0  0
   13.1426    5.0879    0.0000 C   0  0  0  0  0  0  0  0  0  0  0  0
   11.7488    5.8926    0.0000 C   0  0  0  0  0  0  0  0  0  0  0  0
    7.4956   -0.1858    0.0000 C   0  0  0  0  0  0  0  0  0  0  0  0
    8.4913   -0.0936    0.0000 C   0  0  0  0  0  0  0  0  0  0  0  0
   11.9511    1.1202    0.0000 C   0  0  0  0  0  0  0  0  0  0  0  0
   12.7375    5.9957    0.0000 C   0  0  0  0  0  0  0  0  0  0  0  0
   10.5066    0.0640    0.0000 C   0  0  0  0  0  0  0  0  0  0  0  0
    4.4096   -4.8200    0.0000 C   0  0  0  0  0  0  0  0  0  0  0  0
   11.5364    0.1714    0.0000 C   0  0  0  0  0  0  0  0  0  0  0  0
   14.1211    4.8816    0.0000 C   0  0  0  0  0  0  0  0  0  0  0  0
   11.0809    6.6369    0.0000 C   0  0  0  0  0  0  0  0  0  0  0  0
    3.4138   -4.9122    0.0000 C   0  0  0  0  0  0  0  0  0  0  0  0
    4.9872   -5.6363    0.0000 C   0  0  0  0  0  0  0  0  0  0  0  0
    2.9957   -5.8206    0.0000 C   0  0  0  0  0  0  0  0  0  0  0  0
    4.5692   -6.5447    0.0000 C   0  0  0  0  0  0  0  0  0  0  0  0
    3.5734   -6.6369    0.0000 C   0  0  0  0  0  0  0  0  0  0  0  0
    9.9365    2.7537    0.0000 B   0  5  0  0  0  0  0  0  0  0  0  0
   12.4056    3.4208    0.0000 B   0  5  0  0  0  0  0  0  0  0  0  0
    4.7189   -1.5690    0.0000 H   0  0  0  0  0  0  0  0  0  0  0  0
    4.0683   -2.0295    0.0000 H   0  0  0  0  0  0  0  0  0  0  0  0
    6.7511   -3.2641    0.0000 H   0  0  0  0  0  0  0  0  0  0  0  0
    6.6776   -2.4704    0.0000 H   0  0  0  0  0  0  0  0  0  0  0  0
    6.1327   -0.5685    0.0000 H   0  0  0  0  0  0  0  0  0  0  0  0
    5.4821   -1.0289    0.0000 H   0  0  0  0  0  0  0  0  0  0  0  0
   10.1366    4.7308    0.0000 H   0  0  0  0  0  0  0  0  0  0  0  0
    3.7403   -2.7423    0.0000 H   0  0  0  0  0  0  0  0  0  0  0  0
    3.8137   -3.5360    0.0000 H   0  0  0  0  0  0  0  0  0  0  0  0
    5.7724   -4.4374    0.0000 H   0  0  0  0  0  0  0  0  0  0  0  0
    6.4230   -3.9769    0.0000 H   0  0  0  0  0  0  0  0  0  0  0  0
    7.0266   -1.7121    0.0000 H   0  0  0  0  0  0  0  0  0  0  0  0
    7.6772   -1.2517    0.0000 H   0  0  0  0  0  0  0  0  0  0  0  0
    7.5465    0.4321    0.0000 H   0  0  0  0  0  0  0  0  0  0  0  0
    6.8959   -0.0283    0.0000 H   0  0  0  0  0  0  0  0  0  0  0  0
    8.4404   -0.7115    0.0000 H   0  0  0  0  0  0  0  0  0  0  0  0
    9.0910   -0.2511    0.0000 H   0  0  0  0  0  0  0  0  0  0  0  0
   12.5670    1.1916    0.0000 H   0  0  0  0  0  0  0  0  0  0  0  0
   13.0475    6.5326    0.0000 H   0  0  0  0  0  0  0  0  0  0  0  0
    8.5512    1.3209    0.0000 H   0  0  0  0  0  0  0  0  0  0  0  0
   10.2517   -0.5012    0.0000 H   0  0  0  0  0  0  0  0  0  0  0  0
   11.9024   -0.3291    0.0000 H   0  0  0  0  0  0  0  0  0  0  0  0
   13.9933    4.2750    0.0000 H   0  0  0  0  0  0  0  0  0  0  0  0
   14.7278    4.7538    0.0000 H   0  0  0  0  0  0  0  0  0  0  0  0
   14.2490    5.4883    0.0000 H   0  0  0  0  0  0  0  0  0  0  0  0
   11.5424    7.0510    0.0000 H   0  0  0  0  0  0  0  0  0  0  0  0
   10.6669    7.0984    0.0000 H   0  0  0  0  0  0  0  0  0  0  0  0
   10.6195    6.2228    0.0000 H   0  0  0  0  0  0  0  0  0  0  0  0
    5.6046   -5.5792    0.0000 H   0  0  0  0  0  0  0  0  0  0  0  0
    4.9273   -7.0508    0.0000 H   0  0  0  0  0  0  0  0  0  0  0  0
    3.3142   -7.2001    0.0000 H   0  0  0  0  0  0  0  0  0  0  0  0
  1 35  1  0  0  0  0
  2 37  1  0  0  0  0
  3 40  1  0  0  0  0
  4 40  1  0  0  0  0
  5 41  1  0  0  0  0
  6 41  1  0  0  0  0
  7  8  1  0  0  0  0
  7 14  1  0  0  0  0
  7 41  1  0  0  0  0
  8 19  1  0  0  0  0
  8 40  1  0  0  0  0
  9 14  1  0  0  0  0
  9 22  2  0  0  0  0
  9 40  1  0  0  0  0
 10 15  1  0  0  0  0
 10 24  2  0  0  0  0
 10 41  1  0  0  0  0
 11 16  1  0  0  0  0
 11 17  1  0  0  0  0
 11 18  1  0  0  0  0
 12 20  1  0  0  0  0
 12 21  1  0  0  0  0
 12 31  1  0  0  0  0
 13 22  1  0  0  0  0
 13 27  1  0  0  0  0
 13 61  1  0  0  0  0
 14 28  2  0  0  0  0
 15 19  2  0  0  0  0
 15 25  1  0  0  0  0
 16 20  1  0  0  0  0
 16 42  1  0  0  0  0
 16 43  1  0  0  0  0
 17 21  1  0  0  0  0
 17 44  1  0  0  0  0
 17 45  1  0  0  0  0
 18 23  1  0  0  0  0
 18 46  1  0  0  0  0
 18 47  1  0  0  0  0
 19 48  1  0  0  0  0
 20 49  1  0  0  0  0
 20 50  1  0  0  0  0
 21 51  1  0  0  0  0
 21 52  1  0  0  0  0
 22 30  1  0  0  0  0
 23 26  1  0  0  0  0
 23 53  1  0  0  0  0
 23 54  1  0  0  0  0
 24 29  1  0  0  0  0
 24 33  1  0  0  0  0
 25 29  2  0  0  0  0
 25 34  1  0  0  0  0
 26 27  1  0  0  0  0
 26 55  1  0  0  0  0
 26 56  1  0  0  0  0
 27 57  1  0  0  0  0
 27 58  1  0  0  0  0
 28 32  1  0  0  0  0
 28 59  1  0  0  0  0
 29 60  1  0  0  0  0
 30 32  2  0  0  0  0
 30 62  1  0  0  0  0
 31 35  2  0  0  0  0
 31 36  1  0  0  0  0
 32 63  1  0  0  0  0
 33 64  1  0  0  0  0
 33 65  1  0  0  0  0
 33 66  1  0  0  0  0
 34 67  1  0  0  0  0
 34 68  1  0  0  0  0
 34 69  1  0  0  0  0
 35 37  1  0  0  0  0
 36 38  2  0  0  0  0
 36 70  1  0  0  0  0
 37 39  2  0  0  0  0
 38 39  1  0  0  0  0
 38 71  1  0  0  0  0
 39 72  1  0  0  0  0
M  CHG  4   9   1  10   1  40  -1  41  -1
M  END
> <PUBCHEM_COMPOUND_CID>
168270458

> <PUBCHEM_COMPOUND_CANONICALIZED>
1

> <PUBCHEM_CACTVS_COMPLEXITY>
1100

> <PUBCHEM_CACTVS_HBOND_ACCEPTOR>
11

> <PUBCHEM_CACTVS_HBOND_DONOR>
1

> <PUBCHEM_CACTVS_ROTATABLE_BOND>
7

> <PUBCHEM_CACTVS_SUBSKEYS>
AAADceN7gcAGAAAAAAAAAAAAAAAAAWIAAAA8WIEAAAAAAFgBwAAUHAIYAAAADArBEiQz8JPIEACgAyZmZACChCkhByAdmuA4ZpiIYOLBm5HUIAhokALIyCcQAAAAAAAAAAIAABQAAAAABAAAKAAAAAAAAA==

> <PUBCHEM_IUPAC_OPENEYE_NAME>
N-[4-[4-(2,3-dichlorophenyl)piperazin-1-yl]butyl]-8,8,16,16-tetrafluoro-12,14-dimethyl-1,9-diaza-7,15-diazonia-8,16-diboranuidatetracyclo[7.7.0.02,7.011,15]hexadeca-2,4,6,10,12,14-hexaen-6-amine

> <PUBCHEM_IUPAC_CAS_NAME>
N-[4-[4-(2,3-dichlorophenyl)-1-piperazinyl]butyl]-8,8,16,16-tetrafluoro-12,14-dimethyl-1,9-diaza-7,15-diazonia-8,16-diboranuidatetracyclo[7.7.0.02,7.011,15]hexadeca-2,4,6,10,12,14-hexaen-6-amine

> <PUBCHEM_IUPAC_NAME_MARKUP>
<I>N</I>-[4-[4-(2,3-dichlorophenyl)piperazin-1-yl]butyl]-8,8,16,16-tetrafluoro-12,14-dimethyl-1,9-diaza-7,15-diazonia-8,16-diboranuidatetracyclo[7.7.0.0<SUP>2,7</SUP>.0<SUP>11,15</SUP>]hexadeca-2,4,6,10,12,14-hexaen-6-amine

> <PUBCHEM_IUPAC_NAME>
N-[4-[4-(2,3-dichlorophenyl)piperazin-1-yl]butyl]-8,8,16,16-tetrafluoro-12,14-dimethyl-1,9-diaza-7,15-diazonia-8,16-diboranuidatetracyclo[7.7.0.02,7.011,15]hexadeca-2,4,6,10,12,14-hexaen-6-amine

> <PUBCHEM_IUPAC_SYSTEMATIC_NAME>
N-[4-[4-[2,3-bis(chloranyl)phenyl]piperazin-1-yl]butyl]-8,8,16,16-tetrakis(fluoranyl)-12,14-dimethyl-1,9-diaza-7,15-diazonia-8,16-diboranuidatetracyclo[7.7.0.02,7.011,15]hexadeca-2,4,6,10,12,14-hexaen-6-amine

> <PUBCHEM_IUPAC_TRADITIONAL_NAME>
4-[4-(2,3-dichlorophenyl)piperazino]butyl-(8,8,16,16-tetrafluoro-12,14-dimethyl-1,9-diaza-7,15-diazonia-8,16-diboranuidatetracyclo[7.7.0.02,7.011,15]hexadeca-2,4,6,10,12,14-hexaen-6-yl)amine

> <PUBCHEM_IUPAC_INCHI>
InChI=1S/C26H31B2Cl2F4N7/c1-19-17-20(2)39-23(19)18-38-27(31,32)40-24(9-6-10-25(40)41(38)28(39,33)34)35-11-3-4-12-36-13-15-37(16-14-36)22-8-5-7-21(29)26(22)30/h5-10,17-18,35H,3-4,11-16H2,1-2H3

> <PUBCHEM_IUPAC_INCHIKEY>
SEAFJMXOYIXBAV-UHFFFAOYSA-N

> <PUBCHEM_EXACT_MASS>
609.2140224

> <PUBCHEM_MOLECULAR_FORMULA>
C26H31B2Cl2F4N7

> <PUBCHEM_MOLECULAR_WEIGHT>
610.1

> <PUBCHEM_OPENEYE_CAN_SMILES>
[B-]1(N2C=C3C(=CC(=[N+]3[B-](N2C4=CC=CC(=[N+]41)NCCCCN5CCN(CC5)C6=C(C(=CC=C6)Cl)Cl)(F)F)C)C)(F)F

> <PUBCHEM_OPENEYE_ISO_SMILES>
[B-]1(N2C=C3C(=CC(=[N+]3[B-](N2C4=CC=CC(=[N+]41)NCCCCN5CCN(CC5)C6=C(C(=CC=C6)Cl)Cl)(F)F)C)C)(F)F

> <PUBCHEM_CACTVS_TPSA>
31.9

> <PUBCHEM_MONOISOTOPIC_WEIGHT>
609.2140224

> <PUBCHEM_TOTAL_CHARGE>
0

> <PUBCHEM_HEAVY_ATOM_COUNT>
41

> <PUBCHEM_ATOM_DEF_STEREO_COUNT>
0

> <PUBCHEM_ATOM_UDEF_STEREO_COUNT>
0

> <PUBCHEM_BOND_DEF_STEREO_COUNT>
0

> <PUBCHEM_BOND_UDEF_STEREO_COUNT>
0

> <PUBCHEM_ISOTOPIC_ATOM_COUNT>
0

> <PUBCHEM_COMPONENT_COUNT>
1

> <PUBCHEM_CACTVS_TAUTO_COUNT>
-1

> <PUBCHEM_COORDINATE_TYPE>
1
5
255

> <PUBCHEM_BONDANNOTATIONS>
14  28  8
22  30  8
28  32  8
30  32  8
31  35  8
31  36  8
35  37  8
36  38  8
37  39  8
38  39  8
9  14  8
9  22  8

$$$$
