46225583
  -OEChem-09292322292D

 48 52  0     0  0  0  0  0  0999 V2000
    8.5938   -3.3971    0.0000 S   0  0  0  0  0  0  0  0  0  0  0  0
    6.7619    0.7758    0.0000 N   0  0  0  0  0  0  0  0  0  0  0  0
    4.6783    2.4466    0.0000 N   0  0  0  0  0  0  0  0  0  0  0  0
    7.8568   -2.7300    0.0000 N   0  0  0  0  0  0  0  0  0  0  0  0
    4.6783    0.8371    0.0000 N   0  0  0  0  0  0  0  0  0  0  0  0
    7.7619   -0.9562    0.0000 C   0  0  0  0  0  0  0  0  0  0  0  0
    6.7619   -0.9562    0.0000 C   0  0  0  0  0  0  0  0  0  0  0  0
    8.2619   -0.0902    0.0000 C   0  0  0  0  0  0  0  0  0  0  0  0
    6.2619   -0.0902    0.0000 C   0  0  0  0  0  0  0  0  0  0  0  0
    7.7619    0.7758    0.0000 C   0  0  0  0  0  0  0  0  0  0  0  0
    8.2619   -1.8222    0.0000 C   0  0  0  0  0  0  0  0  0  0  0  0
    6.2619    1.6419    0.0000 C   0  0  0  0  0  0  0  0  0  0  0  0
    5.2619    1.6419    0.0000 C   0  0  0  0  0  0  0  0  0  0  0  0
    9.2506   -1.9253    0.0000 C   0  0  0  0  0  0  0  0  0  0  0  0
    9.4568   -2.9038    0.0000 C   0  0  0  0  0  0  0  0  0  0  0  0
    3.7320    2.1419    0.0000 C   0  0  0  0  0  0  0  0  0  0  0  0
    9.9949   -1.2574    0.0000 C   0  0  0  0  0  0  0  0  0  0  0  0
    3.7320    1.1419    0.0000 C   0  0  0  0  0  0  0  0  0  0  0  0
    4.9889    3.3971    0.0000 C   0  0  0  0  0  0  0  0  0  0  0  0
   10.4073   -3.2145    0.0000 C   0  0  0  0  0  0  0  0  0  0  0  0
    2.8660    2.6419    0.0000 C   0  0  0  0  0  0  0  0  0  0  0  0
   10.9454   -1.5681    0.0000 C   0  0  0  0  0  0  0  0  0  0  0  0
    2.8660    0.6419    0.0000 C   0  0  0  0  0  0  0  0  0  0  0  0
   11.1516   -2.5466    0.0000 C   0  0  0  0  0  0  0  0  0  0  0  0
    2.0000    2.1419    0.0000 C   0  0  0  0  0  0  0  0  0  0  0  0
    2.0000    1.1419    0.0000 C   0  0  0  0  0  0  0  0  0  0  0  0
    7.4519   -1.4932    0.0000 H   0  0  0  0  0  0  0  0  0  0  0  0
    6.1793   -1.1683    0.0000 H   0  0  0  0  0  0  0  0  0  0  0  0
    6.8695   -1.5668    0.0000 H   0  0  0  0  0  0  0  0  0  0  0  0
    8.7368   -0.4887    0.0000 H   0  0  0  0  0  0  0  0  0  0  0  0
    8.7368    0.3083    0.0000 H   0  0  0  0  0  0  0  0  0  0  0  0
    5.7869    0.3083    0.0000 H   0  0  0  0  0  0  0  0  0  0  0  0
    5.7869   -0.4887    0.0000 H   0  0  0  0  0  0  0  0  0  0  0  0
    8.3445    0.9879    0.0000 H   0  0  0  0  0  0  0  0  0  0  0  0
    7.6542    1.3864    0.0000 H   0  0  0  0  0  0  0  0  0  0  0  0
    6.8445    1.8539    0.0000 H   0  0  0  0  0  0  0  0  0  0  0  0
    6.1542    2.2524    0.0000 H   0  0  0  0  0  0  0  0  0  0  0  0
    9.8671   -0.6508    0.0000 H   0  0  0  0  0  0  0  0  0  0  0  0
    5.5783    3.2045    0.0000 H   0  0  0  0  0  0  0  0  0  0  0  0
    5.1815    3.9864    0.0000 H   0  0  0  0  0  0  0  0  0  0  0  0
    4.3996    3.5897    0.0000 H   0  0  0  0  0  0  0  0  0  0  0  0
   10.5352   -3.8211    0.0000 H   0  0  0  0  0  0  0  0  0  0  0  0
    2.8660    3.2619    0.0000 H   0  0  0  0  0  0  0  0  0  0  0  0
   11.4069   -1.1540    0.0000 H   0  0  0  0  0  0  0  0  0  0  0  0
    2.8660    0.0219    0.0000 H   0  0  0  0  0  0  0  0  0  0  0  0
   11.7410   -2.7392    0.0000 H   0  0  0  0  0  0  0  0  0  0  0  0
    1.4631    2.4519    0.0000 H   0  0  0  0  0  0  0  0  0  0  0  0
    1.4631    0.8319    0.0000 H   0  0  0  0  0  0  0  0  0  0  0  0
  1  4  1  0  0  0  0
  1 15  1  0  0  0  0
  2  9  1  0  0  0  0
  2 10  1  0  0  0  0
  2 12  1  0  0  0  0
  3 13  1  0  0  0  0
  3 16  1  0  0  0  0
  3 19  1  0  0  0  0
  4 11  2  0  0  0  0
  5 13  2  0  0  0  0
  5 18  1  0  0  0  0
  6  7  1  0  0  0  0
  6  8  1  0  0  0  0
  6 11  1  0  0  0  0
  6 27  1  0  0  0  0
  7  9  1  0  0  0  0
  7 28  1  0  0  0  0
  7 29  1  0  0  0  0
  8 10  1  0  0  0  0
  8 30  1  0  0  0  0
  8 31  1  0  0  0  0
  9 32  1  0  0  0  0
  9 33  1  0  0  0  0
 10 34  1  0  0  0  0
 10 35  1  0  0  0  0
 11 14  1  0  0  0  0
 12 13  1  0  0  0  0
 12 36  1  0  0  0  0
 12 37  1  0  0  0  0
 14 15  1  0  0  0  0
 14 17  2  0  0  0  0
 15 20  2  0  0  0  0
 16 18  1  0  0  0  0
 16 21  2  0  0  0  0
 17 22  1  0  0  0  0
 17 38  1  0  0  0  0
 18 23  2  0  0  0  0
 19 39  1  0  0  0  0
 19 40  1  0  0  0  0
 19 41  1  0  0  0  0
 20 24  1  0  0  0  0
 20 42  1  0  0  0  0
 21 25  1  0  0  0  0
 21 43  1  0  0  0  0
 22 24  2  0  0  0  0
 22 44  1  0  0  0  0
 23 26  1  0  0  0  0
 23 45  1  0  0  0  0
 24 46  1  0  0  0  0
 25 26  2  0  0  0  0
 25 47  1  0  0  0  0
 26 48  1  0  0  0  0
M  END
> <PUBCHEM_COMPOUND_CID>
46225583

> <PUBCHEM_COMPOUND_CANONICALIZED>
1

> <PUBCHEM_CACTVS_COMPLEXITY>
481

> <PUBCHEM_CACTVS_HBOND_ACCEPTOR>
4

> <PUBCHEM_CACTVS_HBOND_DONOR>
0

> <PUBCHEM_CACTVS_ROTATABLE_BOND>
3

> <PUBCHEM_CACTVS_SUBSKEYS>
AAADceB7gABAAAAAAAAAAAAAAAAAAWLAAAA8YIAAAAAAAFgB/gAAHAQAQAAADQjBXwQz0fcMEACkAyZiZACDgD0hEqBJ2Dg4dJiIaKLAmZGUIAxogALIyCcQgMAOAAAAAAAEACAAAAAAAAgAQAAAAAAAAA==

> <PUBCHEM_IUPAC_OPENEYE_NAME>
3-[1-[(1-methylbenzimidazol-2-yl)methyl]-4-piperidyl]-1,2-benzothiazole

> <PUBCHEM_IUPAC_CAS_NAME>
3-[1-[(1-methyl-2-benzimidazolyl)methyl]-4-piperidinyl]-1,2-benzothiazole

> <PUBCHEM_IUPAC_NAME_MARKUP>
3-[1-[(1-methylbenzimidazol-2-yl)methyl]piperidin-4-yl]-1,2-benzothiazole

> <PUBCHEM_IUPAC_NAME>
3-[1-[(1-methylbenzimidazol-2-yl)methyl]piperidin-4-yl]-1,2-benzothiazole

> <PUBCHEM_IUPAC_SYSTEMATIC_NAME>
3-[1-[(1-methylbenzimidazol-2-yl)methyl]piperidin-4-yl]-1,2-benzothiazole

> <PUBCHEM_IUPAC_TRADITIONAL_NAME>
3-[1-[(1-methylbenzimidazol-2-yl)methyl]-4-piperidyl]-1,2-benzothiazole

> <PUBCHEM_IUPAC_INCHI>
InChI=1S/C21H22N4S/c1-24-18-8-4-3-7-17(18)22-20(24)14-25-12-10-15(11-13-25)21-16-6-2-5-9-19(16)26-23-21/h2-9,15H,10-14H2,1H3

> <PUBCHEM_IUPAC_INCHIKEY>
HYGJPVUOYCSNGB-UHFFFAOYSA-N

> <PUBCHEM_XLOGP3_AA>
4

> <PUBCHEM_EXACT_MASS>
362.15651789

> <PUBCHEM_MOLECULAR_FORMULA>
C21H22N4S

> <PUBCHEM_MOLECULAR_WEIGHT>
362.5

> <PUBCHEM_OPENEYE_CAN_SMILES>
CN1C2=CC=CC=C2N=C1CN3CCC(CC3)C4=NSC5=CC=CC=C54

> <PUBCHEM_OPENEYE_ISO_SMILES>
CN1C2=CC=CC=C2N=C1CN3CCC(CC3)C4=NSC5=CC=CC=C54

> <PUBCHEM_CACTVS_TPSA>
62.2

> <PUBCHEM_MONOISOTOPIC_WEIGHT>
362.15651789

> <PUBCHEM_TOTAL_CHARGE>
0

> <PUBCHEM_HEAVY_ATOM_COUNT>
26

> <PUBCHEM_ATOM_DEF_STEREO_COUNT>
0

> <PUBCHEM_ATOM_UDEF_STEREO_COUNT>
0

> <PUBCHEM_BOND_DEF_STEREO_COUNT>
0

> <PUBCHEM_BOND_UDEF_STEREO_COUNT>
0

> <PUBCHEM_ISOTOPIC_ATOM_COUNT>
0

> <PUBCHEM_COMPONENT_COUNT>
1

> <PUBCHEM_CACTVS_TAUTO_COUNT>
-1

> <PUBCHEM_COORDINATE_TYPE>
1
5
255

> <PUBCHEM_BONDANNOTATIONS>
1  15  8
1  4  8
11  14  8
14  15  8
14  17  8
15  20  8
16  18  8
16  21  8
17  22  8
18  23  8
20  24  8
21  25  8
22  24  8
23  26  8
25  26  8
3  13  8
3  16  8
4  11  8
5  13  8
5  18  8

$$$$
