13687192
  -OEChem-09292322252D

 65 69  0     1  0  0  0  0  0999 V2000
   14.2619   -3.4757    0.0000 Cl  0  0  0  0  0  0  0  0  0  0  0  0
    4.9889   -0.0348    0.0000 O   0  0  0  0  0  0  0  0  0  0  0  0
    4.9889    3.4757    0.0000 O   0  0  0  0  0  0  0  0  0  0  0  0
   11.2619   -0.0116    0.0000 N   0  0  0  0  0  0  0  0  0  0  0  0
    9.2619   -0.0116    0.0000 N   0  0  0  0  0  0  0  0  0  0  0  0
    5.2619    1.7204    0.0000 N   0  0  0  0  0  0  0  0  0  0  0  0
   10.7619   -0.8776    0.0000 C   0  0  0  0  0  0  0  0  0  0  0  0
   10.7619    0.8544    0.0000 C   0  0  0  0  0  0  0  0  0  0  0  0
    9.7619   -0.8776    0.0000 C   0  0  0  0  0  0  0  0  0  0  0  0
    9.7619    0.8544    0.0000 C   0  0  0  0  0  0  0  0  0  0  0  0
   12.2619   -0.0116    0.0000 C   0  0  3  0  0  0  0  0  0  0  0  0
    8.2619   -0.0116    0.0000 C   0  0  0  0  0  0  0  0  0  0  0  0
    7.7619    0.8544    0.0000 C   0  0  0  0  0  0  0  0  0  0  0  0
   12.7619   -0.8776    0.0000 C   0  0  0  0  0  0  0  0  0  0  0  0
   12.7619    0.8544    0.0000 C   0  0  0  0  0  0  0  0  0  0  0  0
    6.7619    0.8544    0.0000 C   0  0  0  0  0  0  0  0  0  0  0  0
    6.2619    1.7204    0.0000 C   0  0  0  0  0  0  0  0  0  0  0  0
   13.7619   -0.8776    0.0000 C   0  0  0  0  0  0  0  0  0  0  0  0
   12.2619   -1.7436    0.0000 C   0  0  0  0  0  0  0  0  0  0  0  0
   13.7619    0.8544    0.0000 C   0  0  0  0  0  0  0  0  0  0  0  0
   12.2619    1.7204    0.0000 C   0  0  0  0  0  0  0  0  0  0  0  0
    4.6783    0.9157    0.0000 C   0  0  0  0  0  0  0  0  0  0  0  0
    4.6783    2.5252    0.0000 C   0  0  0  0  0  0  0  0  0  0  0  0
   14.2619   -1.7436    0.0000 C   0  0  0  0  0  0  0  0  0  0  0  0
   12.7619   -2.6097    0.0000 C   0  0  0  0  0  0  0  0  0  0  0  0
   14.2619    1.7204    0.0000 C   0  0  0  0  0  0  0  0  0  0  0  0
   12.7619    2.5865    0.0000 C   0  0  0  0  0  0  0  0  0  0  0  0
    3.7320    1.2204    0.0000 C   0  0  0  0  0  0  0  0  0  0  0  0
    3.7320    2.2204    0.0000 C   0  0  0  0  0  0  0  0  0  0  0  0
   13.7619   -2.6097    0.0000 C   0  0  0  0  0  0  0  0  0  0  0  0
   13.7619    2.5865    0.0000 C   0  0  0  0  0  0  0  0  0  0  0  0
    2.8660    0.7204    0.0000 C   0  0  0  0  0  0  0  0  0  0  0  0
    2.8660    2.7204    0.0000 C   0  0  0  0  0  0  0  0  0  0  0  0
    2.0000    1.2204    0.0000 C   0  0  0  0  0  0  0  0  0  0  0  0
    2.0000    2.2204    0.0000 C   0  0  0  0  0  0  0  0  0  0  0  0
   10.6542   -1.4882    0.0000 H   0  0  0  0  0  0  0  0  0  0  0  0
   11.3445   -1.0897    0.0000 H   0  0  0  0  0  0  0  0  0  0  0  0
   11.3445    1.0665    0.0000 H   0  0  0  0  0  0  0  0  0  0  0  0
   10.6542    1.4650    0.0000 H   0  0  0  0  0  0  0  0  0  0  0  0
    9.1793   -1.0897    0.0000 H   0  0  0  0  0  0  0  0  0  0  0  0
    9.8695   -1.4882    0.0000 H   0  0  0  0  0  0  0  0  0  0  0  0
    9.8695    1.4650    0.0000 H   0  0  0  0  0  0  0  0  0  0  0  0
    9.1793    1.0665    0.0000 H   0  0  0  0  0  0  0  0  0  0  0  0
   11.9519   -0.5485    0.0000 H   0  0  0  0  0  0  0  0  0  0  0  0
    7.6793   -0.2237    0.0000 H   0  0  0  0  0  0  0  0  0  0  0  0
    8.3695   -0.6222    0.0000 H   0  0  0  0  0  0  0  0  0  0  0  0
    8.3445    1.0665    0.0000 H   0  0  0  0  0  0  0  0  0  0  0  0
    7.6542    1.4650    0.0000 H   0  0  0  0  0  0  0  0  0  0  0  0
    6.1793    0.6424    0.0000 H   0  0  0  0  0  0  0  0  0  0  0  0
    6.8695    0.2438    0.0000 H   0  0  0  0  0  0  0  0  0  0  0  0
    6.8445    1.9325    0.0000 H   0  0  0  0  0  0  0  0  0  0  0  0
    6.1542    2.3310    0.0000 H   0  0  0  0  0  0  0  0  0  0  0  0
   14.0719   -0.3407    0.0000 H   0  0  0  0  0  0  0  0  0  0  0  0
   11.6419   -1.7436    0.0000 H   0  0  0  0  0  0  0  0  0  0  0  0
   14.0719    0.3175    0.0000 H   0  0  0  0  0  0  0  0  0  0  0  0
   11.6419    1.7204    0.0000 H   0  0  0  0  0  0  0  0  0  0  0  0
   14.8819   -1.7436    0.0000 H   0  0  0  0  0  0  0  0  0  0  0  0
   12.4519   -3.1466    0.0000 H   0  0  0  0  0  0  0  0  0  0  0  0
   14.8819    1.7204    0.0000 H   0  0  0  0  0  0  0  0  0  0  0  0
   12.4519    3.1234    0.0000 H   0  0  0  0  0  0  0  0  0  0  0  0
   14.0719    3.1234    0.0000 H   0  0  0  0  0  0  0  0  0  0  0  0
    2.8660    0.1004    0.0000 H   0  0  0  0  0  0  0  0  0  0  0  0
    2.8660    3.3404    0.0000 H   0  0  0  0  0  0  0  0  0  0  0  0
    1.4631    0.9104    0.0000 H   0  0  0  0  0  0  0  0  0  0  0  0
    1.4631    2.5304    0.0000 H   0  0  0  0  0  0  0  0  0  0  0  0
  1 30  1  0  0  0  0
  2 22  2  0  0  0  0
  3 23  2  0  0  0  0
  4  7  1  0  0  0  0
  4  8  1  0  0  0  0
  4 11  1  0  0  0  0
  5  9  1  0  0  0  0
  5 10  1  0  0  0  0
  5 12  1  0  0  0  0
  6 17  1  0  0  0  0
  6 22  1  0  0  0  0
  6 23  1  0  0  0  0
  7  9  1  0  0  0  0
  7 36  1  0  0  0  0
  7 37  1  0  0  0  0
  8 10  1  0  0  0  0
  8 38  1  0  0  0  0
  8 39  1  0  0  0  0
  9 40  1  0  0  0  0
  9 41  1  0  0  0  0
 10 42  1  0  0  0  0
 10 43  1  0  0  0  0
 11 14  1  0  0  0  0
 11 15  1  0  0  0  0
 11 44  1  0  0  0  0
 12 13  1  0  0  0  0
 12 45  1  0  0  0  0
 12 46  1  0  0  0  0
 13 16  1  0  0  0  0
 13 47  1  0  0  0  0
 13 48  1  0  0  0  0
 14 18  2  0  0  0  0
 14 19  1  0  0  0  0
 15 20  2  0  0  0  0
 15 21  1  0  0  0  0
 16 17  1  0  0  0  0
 16 49  1  0  0  0  0
 16 50  1  0  0  0  0
 17 51  1  0  0  0  0
 17 52  1  0  0  0  0
 18 24  1  0  0  0  0
 18 53  1  0  0  0  0
 19 25  2  0  0  0  0
 19 54  1  0  0  0  0
 20 26  1  0  0  0  0
 20 55  1  0  0  0  0
 21 27  2  0  0  0  0
 21 56  1  0  0  0  0
 22 28  1  0  0  0  0
 23 29  1  0  0  0  0
 24 30  2  0  0  0  0
 24 57  1  0  0  0  0
 25 30  1  0  0  0  0
 25 58  1  0  0  0  0
 26 31  2  0  0  0  0
 26 59  1  0  0  0  0
 27 31  1  0  0  0  0
 27 60  1  0  0  0  0
 28 29  1  0  0  0  0
 28 32  2  0  0  0  0
 29 33  2  0  0  0  0
 31 61  1  0  0  0  0
 32 34  1  0  0  0  0
 32 62  1  0  0  0  0
 33 35  1  0  0  0  0
 33 63  1  0  0  0  0
 34 35  2  0  0  0  0
 34 64  1  0  0  0  0
 35 65  1  0  0  0  0
M  END
> <PUBCHEM_COMPOUND_CID>
13687192

> <PUBCHEM_COMPOUND_CANONICALIZED>
1

> <PUBCHEM_CACTVS_COMPLEXITY>
687

> <PUBCHEM_CACTVS_HBOND_ACCEPTOR>
4

> <PUBCHEM_CACTVS_HBOND_DONOR>
0

> <PUBCHEM_CACTVS_ROTATABLE_BOND>
8

> <PUBCHEM_CACTVS_SUBSKEYS>
AAADceB7MAAEAAAAAAAAAAAAAAAAAWAAAAA8YMEAAAAAAFgBUAAAHgIAAAAADCrBmCQwAIMAAACIAiFSEACCAAAkBQAIiAEIBsgIYDKBlxGUIQhghiCIiYcdiMCOhAAAAAAQAAAIAAAAACAAAAAAAAAAAA==

> <PUBCHEM_IUPAC_OPENEYE_NAME>
2-[4-[4-[(4-chlorophenyl)-phenyl-methyl]piperazin-1-yl]butyl]isoindoline-1,3-dione

> <PUBCHEM_IUPAC_CAS_NAME>
2-[4-[4-[(4-chlorophenyl)-phenylmethyl]-1-piperazinyl]butyl]isoindole-1,3-dione

> <PUBCHEM_IUPAC_NAME_MARKUP>
2-[4-[4-[(4-chlorophenyl)-phenylmethyl]piperazin-1-yl]butyl]isoindole-1,3-dione

> <PUBCHEM_IUPAC_NAME>
2-[4-[4-[(4-chlorophenyl)-phenylmethyl]piperazin-1-yl]butyl]isoindole-1,3-dione

> <PUBCHEM_IUPAC_SYSTEMATIC_NAME>
2-[4-[4-[(4-chlorophenyl)-phenyl-methyl]piperazin-1-yl]butyl]isoindole-1,3-dione

> <PUBCHEM_IUPAC_TRADITIONAL_NAME>
2-[4-[4-[(4-chlorophenyl)-phenyl-methyl]piperazino]butyl]isoindoline-1,3-quinone

> <PUBCHEM_IUPAC_INCHI>
InChI=1S/C29H30ClN3O2/c30-24-14-12-23(13-15-24)27(22-8-2-1-3-9-22)32-20-18-31(19-21-32)16-6-7-17-33-28(34)25-10-4-5-11-26(25)29(33)35/h1-5,8-15,27H,6-7,16-21H2

> <PUBCHEM_IUPAC_INCHIKEY>
FPECFHTXABEENA-UHFFFAOYSA-N

> <PUBCHEM_XLOGP3>
5.9

> <PUBCHEM_EXACT_MASS>
487.2026549

> <PUBCHEM_MOLECULAR_FORMULA>
C29H30ClN3O2

> <PUBCHEM_MOLECULAR_WEIGHT>
488.0

> <PUBCHEM_OPENEYE_CAN_SMILES>
C1CN(CCN1CCCCN2C(=O)C3=CC=CC=C3C2=O)C(C4=CC=CC=C4)C5=CC=C(C=C5)Cl

> <PUBCHEM_OPENEYE_ISO_SMILES>
C1CN(CCN1CCCCN2C(=O)C3=CC=CC=C3C2=O)C(C4=CC=CC=C4)C5=CC=C(C=C5)Cl

> <PUBCHEM_CACTVS_TPSA>
43.9

> <PUBCHEM_MONOISOTOPIC_WEIGHT>
487.2026549

> <PUBCHEM_TOTAL_CHARGE>
0

> <PUBCHEM_HEAVY_ATOM_COUNT>
35

> <PUBCHEM_ATOM_DEF_STEREO_COUNT>
0

> <PUBCHEM_ATOM_UDEF_STEREO_COUNT>
1

> <PUBCHEM_BOND_DEF_STEREO_COUNT>
0

> <PUBCHEM_BOND_UDEF_STEREO_COUNT>
0

> <PUBCHEM_ISOTOPIC_ATOM_COUNT>
0

> <PUBCHEM_COMPONENT_COUNT>
1

> <PUBCHEM_CACTVS_TAUTO_COUNT>
-1

> <PUBCHEM_COORDINATE_TYPE>
1
5
255

> <PUBCHEM_BONDANNOTATIONS>
11  15  3
14  18  8
14  19  8
15  20  8
15  21  8
18  24  8
19  25  8
20  26  8
21  27  8
24  30  8
25  30  8
26  31  8
27  31  8
28  29  8
28  32  8
29  33  8
32  34  8
33  35  8
34  35  8

$$$$
