44415844
  -OEChem-09292322282D

 61 66  0     0  0  0  0  0  0999 V2000
    8.7204    0.6970    0.0000 Cl  0  0  0  0  0  0  0  0  0  0  0  0
    6.6150   -1.6299    0.0000 O   0  0  0  0  0  0  0  0  0  0  0  0
    3.9491    2.4617    0.0000 N   0  0  0  0  0  0  0  0  0  0  0  0
    3.0814    4.2636    0.0000 N   0  0  0  0  0  0  0  0  0  0  0  0
    4.8830   -0.6299    0.0000 N   0  0  0  0  0  0  0  0  0  0  0  0
    5.3830    1.5607    0.0000 N   0  0  0  0  0  0  0  0  0  0  0  0
    4.8830   -1.6299    0.0000 N   0  0  0  0  0  0  0  0  0  0  0  0
    4.8830   -3.6299    0.0000 N   0  0  0  0  0  0  0  0  0  0  0  0
    4.5125    3.2879    0.0000 C   0  0  0  0  0  0  0  0  0  0  0  0
    2.9519    2.5364    0.0000 C   0  0  0  0  0  0  0  0  0  0  0  0
    4.0786    4.1889    0.0000 C   0  0  0  0  0  0  0  0  0  0  0  0
    2.5180    3.4374    0.0000 C   0  0  0  0  0  0  0  0  0  0  0  0
    4.3830    1.5607    0.0000 C   0  0  0  0  0  0  0  0  0  0  0  0
    3.7595    0.7789    0.0000 C   0  0  0  0  0  0  0  0  0  0  0  0
    2.6475    5.1646    0.0000 C   0  0  0  0  0  0  0  0  0  0  0  0
    3.9820   -0.1960    0.0000 C   0  0  0  0  0  0  0  0  0  0  0  0
    5.7840   -0.1960    0.0000 C   0  0  0  0  0  0  0  0  0  0  0  0
    6.0065    0.7789    0.0000 C   0  0  0  0  0  0  0  0  0  0  0  0
    2.7690    1.1012    0.0000 C   0  0  0  0  0  0  0  0  0  0  0  0
    3.2295   -0.9162    0.0000 C   0  0  0  0  0  0  0  0  0  0  0  0
    2.0000    0.3987    0.0000 C   0  0  0  0  0  0  0  0  0  0  0  0
    6.5365   -0.9162    0.0000 C   0  0  0  0  0  0  0  0  0  0  0  0
    6.9970    1.1012    0.0000 C   0  0  0  0  0  0  0  0  0  0  0  0
    2.2318   -0.6169    0.0000 C   0  0  0  0  0  0  0  0  0  0  0  0
    7.5342   -0.6169    0.0000 C   0  0  0  0  0  0  0  0  0  0  0  0
    7.7660    0.3986    0.0000 C   0  0  0  0  0  0  0  0  0  0  0  0
    5.7490   -2.1299    0.0000 C   0  0  0  0  0  0  0  0  0  0  0  0
    5.7490   -3.1299    0.0000 C   0  0  0  0  0  0  0  0  0  0  0  0
    6.6150   -3.6299    0.0000 C   0  0  0  0  0  0  0  0  0  0  0  0
    6.6150   -4.6299    0.0000 C   0  0  0  0  0  0  0  0  0  0  0  0
    7.5090   -3.0953    0.0000 C   0  0  0  0  0  0  0  0  0  0  0  0
    5.7490   -5.1299    0.0000 C   0  0  0  0  0  0  0  0  0  0  0  0
    7.5090   -5.1646    0.0000 C   0  0  0  0  0  0  0  0  0  0  0  0
    4.8830   -4.6299    0.0000 C   0  0  0  0  0  0  0  0  0  0  0  0
    8.4150   -3.6091    0.0000 C   0  0  0  0  0  0  0  0  0  0  0  0
    8.4150   -4.6508    0.0000 C   0  0  0  0  0  0  0  0  0  0  0  0
    4.9563    2.8550    0.0000 H   0  0  0  0  0  0  0  0  0  0  0  0
    5.0159    3.6498    0.0000 H   0  0  0  0  0  0  0  0  0  0  0  0
    2.3551    2.3685    0.0000 H   0  0  0  0  0  0  0  0  0  0  0  0
    3.0137    1.9195    0.0000 H   0  0  0  0  0  0  0  0  0  0  0  0
    4.6754    4.3568    0.0000 H   0  0  0  0  0  0  0  0  0  0  0  0
    4.0168    4.8058    0.0000 H   0  0  0  0  0  0  0  0  0  0  0  0
    2.0742    3.8703    0.0000 H   0  0  0  0  0  0  0  0  0  0  0  0
    2.0146    3.0755    0.0000 H   0  0  0  0  0  0  0  0  0  0  0  0
    3.2061    5.4336    0.0000 H   0  0  0  0  0  0  0  0  0  0  0  0
    2.3785    5.7232    0.0000 H   0  0  0  0  0  0  0  0  0  0  0  0
    2.0889    4.8956    0.0000 H   0  0  0  0  0  0  0  0  0  0  0  0
    2.6380    1.7072    0.0000 H   0  0  0  0  0  0  0  0  0  0  0  0
    3.3744   -1.5190    0.0000 H   0  0  0  0  0  0  0  0  0  0  0  0
    1.4083    0.5837    0.0000 H   0  0  0  0  0  0  0  0  0  0  0  0
    4.3460   -1.9399    0.0000 H   0  0  0  0  0  0  0  0  0  0  0  0
    6.3916   -1.5190    0.0000 H   0  0  0  0  0  0  0  0  0  0  0  0
    7.1280    1.7072    0.0000 H   0  0  0  0  0  0  0  0  0  0  0  0
    1.7789   -1.0403    0.0000 H   0  0  0  0  0  0  0  0  0  0  0  0
    7.9871   -1.0404    0.0000 H   0  0  0  0  0  0  0  0  0  0  0  0
    7.5018   -2.4753    0.0000 H   0  0  0  0  0  0  0  0  0  0  0  0
    5.7490   -5.7499    0.0000 H   0  0  0  0  0  0  0  0  0  0  0  0
    7.5018   -5.7846    0.0000 H   0  0  0  0  0  0  0  0  0  0  0  0
    4.3460   -4.9399    0.0000 H   0  0  0  0  0  0  0  0  0  0  0  0
    8.9508   -3.2971    0.0000 H   0  0  0  0  0  0  0  0  0  0  0  0
    8.9508   -4.9628    0.0000 H   0  0  0  0  0  0  0  0  0  0  0  0
  1 26  1  0  0  0  0
  2 27  2  0  0  0  0
  3  9  1  0  0  0  0
  3 10  1  0  0  0  0
  3 13  1  0  0  0  0
  4 11  1  0  0  0  0
  4 12  1  0  0  0  0
  4 15  1  0  0  0  0
  5  7  1  0  0  0  0
  5 16  1  0  0  0  0
  5 17  1  0  0  0  0
  6 13  2  0  0  0  0
  6 18  1  0  0  0  0
  7 27  1  0  0  0  0
  7 51  1  0  0  0  0
  8 28  2  0  0  0  0
  8 34  1  0  0  0  0
  9 11  1  0  0  0  0
  9 37  1  0  0  0  0
  9 38  1  0  0  0  0
 10 12  1  0  0  0  0
 10 39  1  0  0  0  0
 10 40  1  0  0  0  0
 11 41  1  0  0  0  0
 11 42  1  0  0  0  0
 12 43  1  0  0  0  0
 12 44  1  0  0  0  0
 13 14  1  0  0  0  0
 14 16  1  0  0  0  0
 14 19  2  0  0  0  0
 15 45  1  0  0  0  0
 15 46  1  0  0  0  0
 15 47  1  0  0  0  0
 16 20  2  0  0  0  0
 17 18  2  0  0  0  0
 17 22  1  0  0  0  0
 18 23  1  0  0  0  0
 19 21  1  0  0  0  0
 19 48  1  0  0  0  0
 20 24  1  0  0  0  0
 20 49  1  0  0  0  0
 21 24  2  0  0  0  0
 21 50  1  0  0  0  0
 22 25  2  0  0  0  0
 22 52  1  0  0  0  0
 23 26  2  0  0  0  0
 23 53  1  0  0  0  0
 24 54  1  0  0  0  0
 25 26  1  0  0  0  0
 25 55  1  0  0  0  0
 27 28  1  0  0  0  0
 28 29  1  0  0  0  0
 29 30  1  0  0  0  0
 29 31  2  0  0  0  0
 30 32  1  0  0  0  0
 30 33  2  0  0  0  0
 31 35  1  0  0  0  0
 31 56  1  0  0  0  0
 32 34  2  0  0  0  0
 32 57  1  0  0  0  0
 33 36  1  0  0  0  0
 33 58  1  0  0  0  0
 34 59  1  0  0  0  0
 35 36  2  0  0  0  0
 35 60  1  0  0  0  0
 36 61  1  0  0  0  0
M  END
> <PUBCHEM_COMPOUND_CID>
44415844

> <PUBCHEM_COMPOUND_CANONICALIZED>
1

> <PUBCHEM_CACTVS_COMPLEXITY>
816

> <PUBCHEM_CACTVS_HBOND_ACCEPTOR>
5

> <PUBCHEM_CACTVS_HBOND_DONOR>
1

> <PUBCHEM_CACTVS_ROTATABLE_BOND>
3

> <PUBCHEM_CACTVS_SUBSKEYS>
AAADceB7oAAEAAAAAAAAAAAAAAAAAAAAAAA8eMECBAAAAACx9AAAHgIYAAAADArBniQ/wNNqEACoAzd3dACChCE3ByAb+CG4dtgIYPLB37GUIQhggADIyQcYiICOgABAAAISACAAAIAABCQAQAAAAAAAAA==

> <PUBCHEM_IUPAC_OPENEYE_NAME>
N-[3-chloro-6-(4-methylpiperazin-1-yl)benzo[b][1,4]benzodiazepin-11-yl]isoquinoline-1-carboxamide

> <PUBCHEM_IUPAC_CAS_NAME>
N-[3-chloro-6-(4-methyl-1-piperazinyl)-11-benzo[b][1,4]benzodiazepinyl]-1-isoquinolinecarboxamide

> <PUBCHEM_IUPAC_NAME_MARKUP>
<I>N</I>-[3-chloro-6-(4-methylpiperazin-1-yl)benzo[b][1,4]benzodiazepin-11-yl]isoquinoline-1-carboxamide

> <PUBCHEM_IUPAC_NAME>
N-[3-chloro-6-(4-methylpiperazin-1-yl)benzo[b][1,4]benzodiazepin-11-yl]isoquinoline-1-carboxamide

> <PUBCHEM_IUPAC_SYSTEMATIC_NAME>
N-[3-chloranyl-6-(4-methylpiperazin-1-yl)benzo[b][1,4]benzodiazepin-11-yl]isoquinoline-1-carboxamide

> <PUBCHEM_IUPAC_TRADITIONAL_NAME>
N-[3-chloro-6-(4-methylpiperazino)benzo[b][1,4]benzodiazepin-11-yl]isoquinoline-1-carboxamide

> <PUBCHEM_IUPAC_INCHI>
InChI=1S/C28H25ClN6O/c1-33-14-16-34(17-15-33)27-22-8-4-5-9-24(22)35(25-11-10-20(29)18-23(25)31-27)32-28(36)26-21-7-3-2-6-19(21)12-13-30-26/h2-13,18H,14-17H2,1H3,(H,32,36)

> <PUBCHEM_IUPAC_INCHIKEY>
DFZQEPFGPDCJJF-UHFFFAOYSA-N

> <PUBCHEM_XLOGP3_AA>
4.9

> <PUBCHEM_EXACT_MASS>
496.1778371

> <PUBCHEM_MOLECULAR_FORMULA>
C28H25ClN6O

> <PUBCHEM_MOLECULAR_WEIGHT>
497.0

> <PUBCHEM_OPENEYE_CAN_SMILES>
CN1CCN(CC1)C2=NC3=C(C=CC(=C3)Cl)N(C4=CC=CC=C42)NC(=O)C5=NC=CC6=CC=CC=C65

> <PUBCHEM_OPENEYE_ISO_SMILES>
CN1CCN(CC1)C2=NC3=C(C=CC(=C3)Cl)N(C4=CC=CC=C42)NC(=O)C5=NC=CC6=CC=CC=C65

> <PUBCHEM_CACTVS_TPSA>
64.1

> <PUBCHEM_MONOISOTOPIC_WEIGHT>
496.1778371

> <PUBCHEM_TOTAL_CHARGE>
0

> <PUBCHEM_HEAVY_ATOM_COUNT>
36

> <PUBCHEM_ATOM_DEF_STEREO_COUNT>
0

> <PUBCHEM_ATOM_UDEF_STEREO_COUNT>
0

> <PUBCHEM_BOND_DEF_STEREO_COUNT>
0

> <PUBCHEM_BOND_UDEF_STEREO_COUNT>
0

> <PUBCHEM_ISOTOPIC_ATOM_COUNT>
0

> <PUBCHEM_COMPONENT_COUNT>
1

> <PUBCHEM_CACTVS_TAUTO_COUNT>
-1

> <PUBCHEM_COORDINATE_TYPE>
1
5
255

> <PUBCHEM_BONDANNOTATIONS>
14  16  8
14  19  8
16  20  8
17  18  8
17  22  8
18  23  8
19  21  8
20  24  8
21  24  8
22  25  8
23  26  8
25  26  8
28  29  8
29  30  8
29  31  8
30  32  8
30  33  8
31  35  8
32  34  8
33  36  8
35  36  8
8  28  8
8  34  8

$$$$
