127049865
  -OEChem-09292322052D

 58 61  0     0  0  0  0  0  0999 V2000
    4.6783   -5.7690    0.0000 S   0  0  0  0  0  0  0  0  0  0  0  0
   12.4133    2.7809    0.0000 F   0  0  0  0  0  0  0  0  0  0  0  0
    8.4993    1.9560    0.0000 O   0  0  0  0  0  0  0  0  0  0  0  0
   12.0561    4.4757    0.0000 O   0  0  0  0  0  0  0  0  0  0  0  0
    5.6103   -1.3080    0.0000 N   0  0  0  0  0  0  0  0  0  0  0  0
    4.9889   -3.2090    0.0000 N   0  0  0  0  0  0  0  0  0  0  0  0
    5.2619   -4.9643    0.0000 N   0  0  0  0  0  0  0  0  0  0  0  0
   10.4097    5.0138    0.0000 N   0  0  0  0  0  0  0  0  0  0  0  0
    4.6318   -1.5142    0.0000 C   0  0  0  0  0  0  0  0  0  0  0  0
    6.2781   -2.0523    0.0000 C   0  0  0  0  0  0  0  0  0  0  0  0
    4.3211   -2.4647    0.0000 C   0  0  0  0  0  0  0  0  0  0  0  0
    5.9674   -3.0028    0.0000 C   0  0  0  0  0  0  0  0  0  0  0  0
    5.9209   -0.3575    0.0000 C   0  0  0  0  0  0  0  0  0  0  0  0
    6.8994   -0.1513    0.0000 C   0  0  0  0  0  0  0  0  0  0  0  0
    4.6783   -4.1596    0.0000 C   0  0  0  0  0  0  0  0  0  0  0  0
    7.2101    0.7993    0.0000 C   0  0  0  0  0  0  0  0  0  0  0  0
    3.7320   -4.4643    0.0000 C   0  0  0  0  0  0  0  0  0  0  0  0
    8.1886    1.0055    0.0000 C   0  0  0  0  0  0  0  0  0  0  0  0
    3.7320   -5.4643    0.0000 C   0  0  0  0  0  0  0  0  0  0  0  0
    2.8660   -3.9643    0.0000 C   0  0  0  0  0  0  0  0  0  0  0  0
    2.8660   -5.9643    0.0000 C   0  0  0  0  0  0  0  0  0  0  0  0
    2.0000   -4.4643    0.0000 C   0  0  0  0  0  0  0  0  0  0  0  0
    2.0000   -5.4643    0.0000 C   0  0  0  0  0  0  0  0  0  0  0  0
    9.4778    2.1622    0.0000 C   0  0  0  0  0  0  0  0  0  0  0  0
    9.7884    3.1127    0.0000 C   0  0  0  0  0  0  0  0  0  0  0  0
   10.1456    1.4179    0.0000 C   0  0  0  0  0  0  0  0  0  0  0  0
   10.7669    3.3190    0.0000 C   0  0  0  0  0  0  0  0  0  0  0  0
   11.1241    1.6241    0.0000 C   0  0  0  0  0  0  0  0  0  0  0  0
   11.4348    2.5746    0.0000 C   0  0  0  0  0  0  0  0  0  0  0  0
   11.0776    4.2695    0.0000 C   0  0  0  0  0  0  0  0  0  0  0  0
   10.7204    5.9643    0.0000 C   0  0  0  0  0  0  0  0  0  0  0  0
    4.6112   -0.8946    0.0000 H   0  0  0  0  0  0  0  0  0  0  0  0
    4.0179   -1.4269    0.0000 H   0  0  0  0  0  0  0  0  0  0  0  0
    6.8250   -2.3443    0.0000 H   0  0  0  0  0  0  0  0  0  0  0  0
    6.6607   -1.5644    0.0000 H   0  0  0  0  0  0  0  0  0  0  0  0
    3.7742   -2.1727    0.0000 H   0  0  0  0  0  0  0  0  0  0  0  0
    3.9385   -2.9527    0.0000 H   0  0  0  0  0  0  0  0  0  0  0  0
    5.9880   -3.6225    0.0000 H   0  0  0  0  0  0  0  0  0  0  0  0
    6.5812   -3.0902    0.0000 H   0  0  0  0  0  0  0  0  0  0  0  0
    5.9004    0.2622    0.0000 H   0  0  0  0  0  0  0  0  0  0  0  0
    5.3071   -0.2701    0.0000 H   0  0  0  0  0  0  0  0  0  0  0  0
    6.9200   -0.7709    0.0000 H   0  0  0  0  0  0  0  0  0  0  0  0
    7.5132   -0.2386    0.0000 H   0  0  0  0  0  0  0  0  0  0  0  0
    7.1895    1.4189    0.0000 H   0  0  0  0  0  0  0  0  0  0  0  0
    6.5963    0.8866    0.0000 H   0  0  0  0  0  0  0  0  0  0  0  0
    8.2092    0.3858    0.0000 H   0  0  0  0  0  0  0  0  0  0  0  0
    8.8024    0.9181    0.0000 H   0  0  0  0  0  0  0  0  0  0  0  0
    2.8660   -3.3443    0.0000 H   0  0  0  0  0  0  0  0  0  0  0  0
    2.8660   -6.5843    0.0000 H   0  0  0  0  0  0  0  0  0  0  0  0
    1.4631   -4.1543    0.0000 H   0  0  0  0  0  0  0  0  0  0  0  0
    1.4631   -5.7743    0.0000 H   0  0  0  0  0  0  0  0  0  0  0  0
    9.3744    3.5742    0.0000 H   0  0  0  0  0  0  0  0  0  0  0  0
    9.9530    0.8286    0.0000 H   0  0  0  0  0  0  0  0  0  0  0  0
   11.5382    1.1627    0.0000 H   0  0  0  0  0  0  0  0  0  0  0  0
    9.8031    4.8859    0.0000 H   0  0  0  0  0  0  0  0  0  0  0  0
   11.3097    5.7717    0.0000 H   0  0  0  0  0  0  0  0  0  0  0  0
   10.9130    6.5536    0.0000 H   0  0  0  0  0  0  0  0  0  0  0  0
   10.1311    6.1569    0.0000 H   0  0  0  0  0  0  0  0  0  0  0  0
  1  7  1  0  0  0  0
  1 19  1  0  0  0  0
  2 29  1  0  0  0  0
  3 18  1  0  0  0  0
  3 24  1  0  0  0  0
  4 30  2  0  0  0  0
  5  9  1  0  0  0  0
  5 10  1  0  0  0  0
  5 13  1  0  0  0  0
  6 11  1  0  0  0  0
  6 12  1  0  0  0  0
  6 15  1  0  0  0  0
  7 15  2  0  0  0  0
  8 30  1  0  0  0  0
  8 31  1  0  0  0  0
  8 55  1  0  0  0  0
  9 11  1  0  0  0  0
  9 32  1  0  0  0  0
  9 33  1  0  0  0  0
 10 12  1  0  0  0  0
 10 34  1  0  0  0  0
 10 35  1  0  0  0  0
 11 36  1  0  0  0  0
 11 37  1  0  0  0  0
 12 38  1  0  0  0  0
 12 39  1  0  0  0  0
 13 14  1  0  0  0  0
 13 40  1  0  0  0  0
 13 41  1  0  0  0  0
 14 16  1  0  0  0  0
 14 42  1  0  0  0  0
 14 43  1  0  0  0  0
 15 17  1  0  0  0  0
 16 18  1  0  0  0  0
 16 44  1  0  0  0  0
 16 45  1  0  0  0  0
 17 19  1  0  0  0  0
 17 20  2  0  0  0  0
 18 46  1  0  0  0  0
 18 47  1  0  0  0  0
 19 21  2  0  0  0  0
 20 22  1  0  0  0  0
 20 48  1  0  0  0  0
 21 23  1  0  0  0  0
 21 49  1  0  0  0  0
 22 23  2  0  0  0  0
 22 50  1  0  0  0  0
 23 51  1  0  0  0  0
 24 25  2  0  0  0  0
 24 26  1  0  0  0  0
 25 27  1  0  0  0  0
 25 52  1  0  0  0  0
 26 28  2  0  0  0  0
 26 53  1  0  0  0  0
 27 29  2  0  0  0  0
 27 30  1  0  0  0  0
 28 29  1  0  0  0  0
 28 54  1  0  0  0  0
 31 56  1  0  0  0  0
 31 57  1  0  0  0  0
 31 58  1  0  0  0  0
M  END
> <PUBCHEM_COMPOUND_CID>
127049865

> <PUBCHEM_COMPOUND_CANONICALIZED>
1

> <PUBCHEM_CACTVS_COMPLEXITY>
578

> <PUBCHEM_CACTVS_HBOND_ACCEPTOR>
7

> <PUBCHEM_CACTVS_HBOND_DONOR>
1

> <PUBCHEM_CACTVS_ROTATABLE_BOND>
8

> <PUBCHEM_CACTVS_SUBSKEYS>
AAADceB7sQBAAAAAAAAAAAAAAAAAAWAAAAA8YIAAAAAAAFgB9AAAHwQQQAAADATh2g4zt9PABACsAiNycACDCBAlIABJmLkuTNiMZrLEvZuWOSzkwhPI6Ye6yBCOAAABAAAEAAAAAAIAAAgAAAAAAAAAAA==

> <PUBCHEM_IUPAC_OPENEYE_NAME>
5-[4-[4-(1,2-benzothiazol-3-yl)piperazin-1-yl]butoxy]-2-fluoro-N-methyl-benzamide

> <PUBCHEM_IUPAC_CAS_NAME>
5-[4-[4-(1,2-benzothiazol-3-yl)-1-piperazinyl]butoxy]-2-fluoro-N-methylbenzamide

> <PUBCHEM_IUPAC_NAME_MARKUP>
5-[4-[4-(1,2-benzothiazol-3-yl)piperazin-1-yl]butoxy]-2-fluoro-<I>N</I>-methylbenzamide

> <PUBCHEM_IUPAC_NAME>
5-[4-[4-(1,2-benzothiazol-3-yl)piperazin-1-yl]butoxy]-2-fluoro-N-methylbenzamide

> <PUBCHEM_IUPAC_SYSTEMATIC_NAME>
5-[4-[4-(1,2-benzothiazol-3-yl)piperazin-1-yl]butoxy]-2-fluoranyl-N-methyl-benzamide

> <PUBCHEM_IUPAC_TRADITIONAL_NAME>
5-[4-[4-(1,2-benzothiazol-3-yl)piperazino]butoxy]-2-fluoro-N-methyl-benzamide

> <PUBCHEM_IUPAC_INCHI>
InChI=1S/C23H27FN4O2S/c1-25-23(29)19-16-17(8-9-20(19)24)30-15-5-4-10-27-11-13-28(14-12-27)22-18-6-2-3-7-21(18)31-26-22/h2-3,6-9,16H,4-5,10-15H2,1H3,(H,25,29)

> <PUBCHEM_IUPAC_INCHIKEY>
UWKPCCXPIUTYOC-UHFFFAOYSA-N

> <PUBCHEM_XLOGP3_AA>
4.3

> <PUBCHEM_EXACT_MASS>
442.18387545

> <PUBCHEM_MOLECULAR_FORMULA>
C23H27FN4O2S

> <PUBCHEM_MOLECULAR_WEIGHT>
442.6

> <PUBCHEM_OPENEYE_CAN_SMILES>
CNC(=O)C1=C(C=CC(=C1)OCCCCN2CCN(CC2)C3=NSC4=CC=CC=C43)F

> <PUBCHEM_OPENEYE_ISO_SMILES>
CNC(=O)C1=C(C=CC(=C1)OCCCCN2CCN(CC2)C3=NSC4=CC=CC=C43)F

> <PUBCHEM_CACTVS_TPSA>
85.9

> <PUBCHEM_MONOISOTOPIC_WEIGHT>
442.18387545

> <PUBCHEM_TOTAL_CHARGE>
0

> <PUBCHEM_HEAVY_ATOM_COUNT>
31

> <PUBCHEM_ATOM_DEF_STEREO_COUNT>
0

> <PUBCHEM_ATOM_UDEF_STEREO_COUNT>
0

> <PUBCHEM_BOND_DEF_STEREO_COUNT>
0

> <PUBCHEM_BOND_UDEF_STEREO_COUNT>
0

> <PUBCHEM_ISOTOPIC_ATOM_COUNT>
0

> <PUBCHEM_COMPONENT_COUNT>
1

> <PUBCHEM_CACTVS_TAUTO_COUNT>
-1

> <PUBCHEM_COORDINATE_TYPE>
1
5
255

> <PUBCHEM_BONDANNOTATIONS>
1  19  8
1  7  8
15  17  8
17  19  8
17  20  8
19  21  8
20  22  8
21  23  8
22  23  8
24  25  8
24  26  8
25  27  8
26  28  8
27  29  8
28  29  8
7  15  8

$$$$
