71508712
  -OEChem-09292322332D

 53 57  0     0  0  0  0  0  0999 V2000
    9.3641   -4.6068    0.0000 F   0  0  0  0  0  0  0  0  0  0  0  0
    9.0535    3.6563    0.0000 N   0  0  0  0  0  0  0  0  0  0  0  0
    8.1215   -0.8047    0.0000 N   0  0  0  0  0  0  0  0  0  0  0  0
    3.6636    0.5933    0.0000 N   0  0  0  0  0  0  0  0  0  0  0  0
    4.4727    1.9945    0.0000 N   0  0  0  0  0  0  0  0  0  0  0  0
    2.9945    1.3364    0.0000 N   0  0  0  0  0  0  0  0  0  0  0  0
    8.4322    1.7552    0.0000 C   0  0  0  0  0  0  0  0  0  0  0  0
    7.7643    2.4996    0.0000 C   0  0  0  0  0  0  0  0  0  0  0  0
    9.4107    1.9615    0.0000 C   0  0  0  0  0  0  0  0  0  0  0  0
    8.1215    0.8047    0.0000 C   0  0  0  0  0  0  0  0  0  0  0  0
    8.0750    3.4501    0.0000 C   0  0  0  0  0  0  0  0  0  0  0  0
    9.7213    2.9120    0.0000 C   0  0  0  0  0  0  0  0  0  0  0  0
    7.1753    0.5000    0.0000 C   0  0  0  0  0  0  0  0  0  0  0  0
    8.7051    0.0000    0.0000 C   0  0  0  0  0  0  0  0  0  0  0  0
    7.1753   -0.5000    0.0000 C   0  0  0  0  0  0  0  0  0  0  0  0
    9.3641    4.6068    0.0000 C   0  0  0  0  0  0  0  0  0  0  0  0
    6.3092    1.0000    0.0000 C   0  0  0  0  0  0  0  0  0  0  0  0
    6.3092   -1.0000    0.0000 C   0  0  0  0  0  0  0  0  0  0  0  0
    8.4322   -1.7552    0.0000 C   0  0  0  0  0  0  0  0  0  0  0  0
    5.4432    0.5000    0.0000 C   0  0  0  0  0  0  0  0  0  0  0  0
    5.4432   -0.5000    0.0000 C   0  0  0  0  0  0  0  0  0  0  0  0
    7.7643   -2.4996    0.0000 C   0  0  0  0  0  0  0  0  0  0  0  0
    9.4107   -1.9615    0.0000 C   0  0  0  0  0  0  0  0  0  0  0  0
    4.5772    1.0000    0.0000 C   0  0  0  0  0  0  0  0  0  0  0  0
    8.0750   -3.4501    0.0000 C   0  0  0  0  0  0  0  0  0  0  0  0
    9.7213   -2.9120    0.0000 C   0  0  0  0  0  0  0  0  0  0  0  0
    9.0535   -3.6563    0.0000 C   0  0  0  0  0  0  0  0  0  0  0  0
    3.4945    2.2024    0.0000 C   0  0  0  0  0  0  0  0  0  0  0  0
    2.0000    1.2319    0.0000 C   0  0  0  0  0  0  0  0  0  0  0  0
    7.8255    1.6274    0.0000 H   0  0  0  0  0  0  0  0  0  0  0  0
    7.2174    2.7916    0.0000 H   0  0  0  0  0  0  0  0  0  0  0  0
    7.3818    2.0116    0.0000 H   0  0  0  0  0  0  0  0  0  0  0  0
    9.4312    1.3418    0.0000 H   0  0  0  0  0  0  0  0  0  0  0  0
   10.0245    1.8741    0.0000 H   0  0  0  0  0  0  0  0  0  0  0  0
    8.0544    4.0697    0.0000 H   0  0  0  0  0  0  0  0  0  0  0  0
    7.4612    3.5374    0.0000 H   0  0  0  0  0  0  0  0  0  0  0  0
   10.2682    2.6200    0.0000 H   0  0  0  0  0  0  0  0  0  0  0  0
   10.1039    3.3999    0.0000 H   0  0  0  0  0  0  0  0  0  0  0  0
    9.3251    0.0000    0.0000 H   0  0  0  0  0  0  0  0  0  0  0  0
    9.9535    4.4142    0.0000 H   0  0  0  0  0  0  0  0  0  0  0  0
    9.5567    5.1961    0.0000 H   0  0  0  0  0  0  0  0  0  0  0  0
    8.7748    4.7994    0.0000 H   0  0  0  0  0  0  0  0  0  0  0  0
    6.3092    1.6200    0.0000 H   0  0  0  0  0  0  0  0  0  0  0  0
    6.3092   -1.6200    0.0000 H   0  0  0  0  0  0  0  0  0  0  0  0
    4.9063   -0.8100    0.0000 H   0  0  0  0  0  0  0  0  0  0  0  0
    7.1576   -2.3717    0.0000 H   0  0  0  0  0  0  0  0  0  0  0  0
    9.8247   -1.5000    0.0000 H   0  0  0  0  0  0  0  0  0  0  0  0
    7.6609   -3.9115    0.0000 H   0  0  0  0  0  0  0  0  0  0  0  0
   10.3280   -3.0398    0.0000 H   0  0  0  0  0  0  0  0  0  0  0  0
    3.2424    2.7688    0.0000 H   0  0  0  0  0  0  0  0  0  0  0  0
    1.9352    1.8485    0.0000 H   0  0  0  0  0  0  0  0  0  0  0  0
    1.3834    1.1671    0.0000 H   0  0  0  0  0  0  0  0  0  0  0  0
    2.0648    0.6153    0.0000 H   0  0  0  0  0  0  0  0  0  0  0  0
  1 27  1  0  0  0  0
  2 11  1  0  0  0  0
  2 12  1  0  0  0  0
  2 16  1  0  0  0  0
  3 14  1  0  0  0  0
  3 15  1  0  0  0  0
  3 19  1  0  0  0  0
  4  6  1  0  0  0  0
  4 24  2  0  0  0  0
  5 24  1  0  0  0  0
  5 28  2  0  0  0  0
  6 28  1  0  0  0  0
  6 29  1  0  0  0  0
  7  8  1  0  0  0  0
  7  9  1  0  0  0  0
  7 10  1  0  0  0  0
  7 30  1  0  0  0  0
  8 11  1  0  0  0  0
  8 31  1  0  0  0  0
  8 32  1  0  0  0  0
  9 12  1  0  0  0  0
  9 33  1  0  0  0  0
  9 34  1  0  0  0  0
 10 13  1  0  0  0  0
 10 14  2  0  0  0  0
 11 35  1  0  0  0  0
 11 36  1  0  0  0  0
 12 37  1  0  0  0  0
 12 38  1  0  0  0  0
 13 15  2  0  0  0  0
 13 17  1  0  0  0  0
 14 39  1  0  0  0  0
 15 18  1  0  0  0  0
 16 40  1  0  0  0  0
 16 41  1  0  0  0  0
 16 42  1  0  0  0  0
 17 20  2  0  0  0  0
 17 43  1  0  0  0  0
 18 21  2  0  0  0  0
 18 44  1  0  0  0  0
 19 22  2  0  0  0  0
 19 23  1  0  0  0  0
 20 21  1  0  0  0  0
 20 24  1  0  0  0  0
 21 45  1  0  0  0  0
 22 25  1  0  0  0  0
 22 46  1  0  0  0  0
 23 26  2  0  0  0  0
 23 47  1  0  0  0  0
 25 27  2  0  0  0  0
 25 48  1  0  0  0  0
 26 27  1  0  0  0  0
 26 49  1  0  0  0  0
 28 50  1  0  0  0  0
 29 51  1  0  0  0  0
 29 52  1  0  0  0  0
 29 53  1  0  0  0  0
M  END
> <PUBCHEM_COMPOUND_CID>
71508712

> <PUBCHEM_COMPOUND_CANONICALIZED>
1

> <PUBCHEM_CACTVS_COMPLEXITY>
545

> <PUBCHEM_CACTVS_HBOND_ACCEPTOR>
4

> <PUBCHEM_CACTVS_HBOND_DONOR>
0

> <PUBCHEM_CACTVS_ROTATABLE_BOND>
3

> <PUBCHEM_CACTVS_SUBSKEYS>
AAADceB7gQAAAAAAAAAAAAAAAAAAAWLAAAA8YIAAAAAAAFgB/AAAHQAIAAAADQjBHww/0PcMEACiAzZnZACSgCsxgqAd2CA4ZJiIKOLAmZGEIAhoiALIyAcQgMAOiAACAAACAAAQAAQAAAQAAAAAAAAAAA==

> <PUBCHEM_IUPAC_OPENEYE_NAME>
1-(4-fluorophenyl)-3-(1-methyl-4-piperidyl)-5-(1-methyl-1,2,4-triazol-3-yl)indole

> <PUBCHEM_IUPAC_CAS_NAME>
1-(4-fluorophenyl)-3-(1-methyl-4-piperidinyl)-5-(1-methyl-1,2,4-triazol-3-yl)indole

> <PUBCHEM_IUPAC_NAME_MARKUP>
1-(4-fluorophenyl)-3-(1-methylpiperidin-4-yl)-5-(1-methyl-1,2,4-triazol-3-yl)indole

> <PUBCHEM_IUPAC_NAME>
1-(4-fluorophenyl)-3-(1-methylpiperidin-4-yl)-5-(1-methyl-1,2,4-triazol-3-yl)indole

> <PUBCHEM_IUPAC_SYSTEMATIC_NAME>
1-(4-fluorophenyl)-3-(1-methylpiperidin-4-yl)-5-(1-methyl-1,2,4-triazol-3-yl)indole

> <PUBCHEM_IUPAC_TRADITIONAL_NAME>
1-(4-fluorophenyl)-3-(1-methyl-4-piperidyl)-5-(1-methyl-1,2,4-triazol-3-yl)indole

> <PUBCHEM_IUPAC_INCHI>
InChI=1S/C23H24FN5/c1-27-11-9-16(10-12-27)21-14-29(19-6-4-18(24)5-7-19)22-8-3-17(13-20(21)22)23-25-15-28(2)26-23/h3-8,13-16H,9-12H2,1-2H3

> <PUBCHEM_IUPAC_INCHIKEY>
QHNXJRSEHMJHRM-UHFFFAOYSA-N

> <PUBCHEM_XLOGP3_AA>
4.1

> <PUBCHEM_EXACT_MASS>
389.20157395

> <PUBCHEM_MOLECULAR_FORMULA>
C23H24FN5

> <PUBCHEM_MOLECULAR_WEIGHT>
389.5

> <PUBCHEM_OPENEYE_CAN_SMILES>
CN1CCC(CC1)C2=CN(C3=C2C=C(C=C3)C4=NN(C=N4)C)C5=CC=C(C=C5)F

> <PUBCHEM_OPENEYE_ISO_SMILES>
CN1CCC(CC1)C2=CN(C3=C2C=C(C=C3)C4=NN(C=N4)C)C5=CC=C(C=C5)F

> <PUBCHEM_CACTVS_TPSA>
38.9

> <PUBCHEM_MONOISOTOPIC_WEIGHT>
389.20157395

> <PUBCHEM_TOTAL_CHARGE>
0

> <PUBCHEM_HEAVY_ATOM_COUNT>
29

> <PUBCHEM_ATOM_DEF_STEREO_COUNT>
0

> <PUBCHEM_ATOM_UDEF_STEREO_COUNT>
0

> <PUBCHEM_BOND_DEF_STEREO_COUNT>
0

> <PUBCHEM_BOND_UDEF_STEREO_COUNT>
0

> <PUBCHEM_ISOTOPIC_ATOM_COUNT>
0

> <PUBCHEM_COMPONENT_COUNT>
1

> <PUBCHEM_CACTVS_TAUTO_COUNT>
-1

> <PUBCHEM_COORDINATE_TYPE>
1
5
255

> <PUBCHEM_BONDANNOTATIONS>
10  13  8
10  14  8
13  15  8
13  17  8
15  18  8
17  20  8
18  21  8
19  22  8
19  23  8
20  21  8
22  25  8
23  26  8
25  27  8
26  27  8
3  14  8
3  15  8
4  24  8
4  6  8
5  24  8
5  28  8
6  28  8

$$$$
