168292602
  -OEChem-09292322442D

 76 81  0     1  0  0  0  0  0999 V2000
    9.4257    3.4957    0.0000 F   0  0  0  0  0  0  0  0  0  0  0  0
    9.1833    2.3454    0.0000 F   0  0  0  0  0  0  0  0  0  0  0  0
   13.5652    3.4208    0.0000 F   0  0  0  0  0  0  0  0  0  0  0  0
   13.0652    2.5548    0.0000 F   0  0  0  0  0  0  0  0  0  0  0  0
    2.9957   -4.0960    0.0000 O   0  0  0  0  0  0  0  0  0  0  0  0
   11.6992    2.9208    0.0000 N   0  0  0  0  0  0  0  0  0  0  0  0
   10.8332    3.4208    0.0000 N   0  0  3  0  0  0  0  0  0  0  0  0
   10.5013    1.8459    0.0000 N   0  3  0  0  0  0  0  0  0  0  0  0
   12.5652    4.4208    0.0000 N   0  3  0  0  0  0  0  0  0  0  0  0
    5.8233   -2.0948    0.0000 N   0  0  0  0  0  0  0  0  0  0  0  0
    4.9872   -3.9116    0.0000 N   0  0  0  0  0  0  0  0  0  0  0  0
    9.0690    0.8148    0.0000 N   0  0  0  0  0  0  0  0  0  0  0  0
   11.4900    1.9490    0.0000 C   0  0  0  0  0  0  0  0  0  0  0  0
   11.6992    4.9208    0.0000 C   0  0  0  0  0  0  0  0  0  0  0  0
    4.8276   -2.1870    0.0000 C   0  0  0  0  0  0  0  0  0  0  0  0
    6.4010   -2.9110    0.0000 C   0  0  0  0  0  0  0  0  0  0  0  0
    6.2414   -1.1864    0.0000 C   0  0  0  0  0  0  0  0  0  0  0  0
   10.8332    4.4208    0.0000 C   0  0  0  0  0  0  0  0  0  0  0  0
    4.4096   -3.0954    0.0000 C   0  0  0  0  0  0  0  0  0  0  0  0
    5.9830   -3.8195    0.0000 C   0  0  0  0  0  0  0  0  0  0  0  0
   10.0648    0.9069    0.0000 C   0  0  0  0  0  0  0  0  0  0  0  0
    7.2372   -1.0942    0.0000 C   0  0  0  0  0  0  0  0  0  0  0  0
   13.3022    5.0879    0.0000 C   0  0  0  0  0  0  0  0  0  0  0  0
   11.9084    5.8926    0.0000 C   0  0  0  0  0  0  0  0  0  0  0  0
    7.6552   -0.1858    0.0000 C   0  0  0  0  0  0  0  0  0  0  0  0
    8.6510   -0.0936    0.0000 C   0  0  0  0  0  0  0  0  0  0  0  0
   12.1107    1.1202    0.0000 C   0  0  0  0  0  0  0  0  0  0  0  0
   12.8971    5.9957    0.0000 C   0  0  0  0  0  0  0  0  0  0  0  0
   10.6662    0.0640    0.0000 C   0  0  0  0  0  0  0  0  0  0  0  0
    4.5692   -4.8200    0.0000 C   0  0  0  0  0  0  0  0  0  0  0  0
   11.6961    0.1714    0.0000 C   0  0  0  0  0  0  0  0  0  0  0  0
   14.2807    4.8816    0.0000 C   0  0  0  0  0  0  0  0  0  0  0  0
   11.2406    6.6369    0.0000 C   0  0  0  0  0  0  0  0  0  0  0  0
    3.5734   -4.9122    0.0000 C   0  0  0  0  0  0  0  0  0  0  0  0
    5.1469   -5.6363    0.0000 C   0  0  0  0  0  0  0  0  0  0  0  0
    3.1554   -5.8206    0.0000 C   0  0  0  0  0  0  0  0  0  0  0  0
    4.7288   -6.5447    0.0000 C   0  0  0  0  0  0  0  0  0  0  0  0
    3.7331   -6.6369    0.0000 C   0  0  0  0  0  0  0  0  0  0  0  0
    2.0000   -4.1881    0.0000 C   0  0  0  0  0  0  0  0  0  0  0  0
   10.0962    2.7537    0.0000 B   0  5  0  0  0  0  0  0  0  0  0  0
   12.5652    3.4208    0.0000 B   0  5  0  0  0  0  0  0  0  0  0  0
    4.8785   -1.5690    0.0000 H   0  0  0  0  0  0  0  0  0  0  0  0
    4.2279   -2.0295    0.0000 H   0  0  0  0  0  0  0  0  0  0  0  0
    6.9107   -3.2641    0.0000 H   0  0  0  0  0  0  0  0  0  0  0  0
    6.8372   -2.4704    0.0000 H   0  0  0  0  0  0  0  0  0  0  0  0
    6.2923   -0.5685    0.0000 H   0  0  0  0  0  0  0  0  0  0  0  0
    5.6417   -1.0289    0.0000 H   0  0  0  0  0  0  0  0  0  0  0  0
   10.2962    4.7308    0.0000 H   0  0  0  0  0  0  0  0  0  0  0  0
    3.8999   -2.7423    0.0000 H   0  0  0  0  0  0  0  0  0  0  0  0
    3.9734   -3.5360    0.0000 H   0  0  0  0  0  0  0  0  0  0  0  0
    5.9320   -4.4374    0.0000 H   0  0  0  0  0  0  0  0  0  0  0  0
    6.5826   -3.9769    0.0000 H   0  0  0  0  0  0  0  0  0  0  0  0
    7.1862   -1.7121    0.0000 H   0  0  0  0  0  0  0  0  0  0  0  0
    7.8368   -1.2517    0.0000 H   0  0  0  0  0  0  0  0  0  0  0  0
    7.7062    0.4321    0.0000 H   0  0  0  0  0  0  0  0  0  0  0  0
    7.0555   -0.0283    0.0000 H   0  0  0  0  0  0  0  0  0  0  0  0
    8.6000   -0.7115    0.0000 H   0  0  0  0  0  0  0  0  0  0  0  0
    9.2506   -0.2511    0.0000 H   0  0  0  0  0  0  0  0  0  0  0  0
   12.7266    1.1916    0.0000 H   0  0  0  0  0  0  0  0  0  0  0  0
   13.2071    6.5326    0.0000 H   0  0  0  0  0  0  0  0  0  0  0  0
    8.7108    1.3209    0.0000 H   0  0  0  0  0  0  0  0  0  0  0  0
   10.4113   -0.5012    0.0000 H   0  0  0  0  0  0  0  0  0  0  0  0
   12.0620   -0.3291    0.0000 H   0  0  0  0  0  0  0  0  0  0  0  0
   14.1529    4.2750    0.0000 H   0  0  0  0  0  0  0  0  0  0  0  0
   14.8874    4.7538    0.0000 H   0  0  0  0  0  0  0  0  0  0  0  0
   14.4086    5.4883    0.0000 H   0  0  0  0  0  0  0  0  0  0  0  0
   11.7020    7.0510    0.0000 H   0  0  0  0  0  0  0  0  0  0  0  0
   10.8265    7.0984    0.0000 H   0  0  0  0  0  0  0  0  0  0  0  0
   10.7791    6.2228    0.0000 H   0  0  0  0  0  0  0  0  0  0  0  0
    5.7642   -5.5792    0.0000 H   0  0  0  0  0  0  0  0  0  0  0  0
    2.5380   -5.8778    0.0000 H   0  0  0  0  0  0  0  0  0  0  0  0
    5.0870   -7.0508    0.0000 H   0  0  0  0  0  0  0  0  0  0  0  0
    3.4739   -7.2001    0.0000 H   0  0  0  0  0  0  0  0  0  0  0  0
    1.9429   -3.5708    0.0000 H   0  0  0  0  0  0  0  0  0  0  0  0
    1.3826   -4.2453    0.0000 H   0  0  0  0  0  0  0  0  0  0  0  0
    2.0571   -4.8055    0.0000 H   0  0  0  0  0  0  0  0  0  0  0  0
  1 40  1  0  0  0  0
  2 40  1  0  0  0  0
  3 41  1  0  0  0  0
  4 41  1  0  0  0  0
  5 34  1  0  0  0  0
  5 39  1  0  0  0  0
  6  7  1  0  0  0  0
  6 13  1  0  0  0  0
  6 41  1  0  0  0  0
  7 18  1  0  0  0  0
  7 40  1  0  0  0  0
  8 13  1  0  0  0  0
  8 21  2  0  0  0  0
  8 40  1  0  0  0  0
  9 14  1  0  0  0  0
  9 23  2  0  0  0  0
  9 41  1  0  0  0  0
 10 15  1  0  0  0  0
 10 16  1  0  0  0  0
 10 17  1  0  0  0  0
 11 19  1  0  0  0  0
 11 20  1  0  0  0  0
 11 30  1  0  0  0  0
 12 21  1  0  0  0  0
 12 26  1  0  0  0  0
 12 61  1  0  0  0  0
 13 27  2  0  0  0  0
 14 18  2  0  0  0  0
 14 24  1  0  0  0  0
 15 19  1  0  0  0  0
 15 42  1  0  0  0  0
 15 43  1  0  0  0  0
 16 20  1  0  0  0  0
 16 44  1  0  0  0  0
 16 45  1  0  0  0  0
 17 22  1  0  0  0  0
 17 46  1  0  0  0  0
 17 47  1  0  0  0  0
 18 48  1  0  0  0  0
 19 49  1  0  0  0  0
 19 50  1  0  0  0  0
 20 51  1  0  0  0  0
 20 52  1  0  0  0  0
 21 29  1  0  0  0  0
 22 25  1  0  0  0  0
 22 53  1  0  0  0  0
 22 54  1  0  0  0  0
 23 28  1  0  0  0  0
 23 32  1  0  0  0  0
 24 28  2  0  0  0  0
 24 33  1  0  0  0  0
 25 26  1  0  0  0  0
 25 55  1  0  0  0  0
 25 56  1  0  0  0  0
 26 57  1  0  0  0  0
 26 58  1  0  0  0  0
 27 31  1  0  0  0  0
 27 59  1  0  0  0  0
 28 60  1  0  0  0  0
 29 31  2  0  0  0  0
 29 62  1  0  0  0  0
 30 34  1  0  0  0  0
 30 35  2  0  0  0  0
 31 63  1  0  0  0  0
 32 64  1  0  0  0  0
 32 65  1  0  0  0  0
 32 66  1  0  0  0  0
 33 67  1  0  0  0  0
 33 68  1  0  0  0  0
 33 69  1  0  0  0  0
 34 36  2  0  0  0  0
 35 37  1  0  0  0  0
 35 70  1  0  0  0  0
 36 38  1  0  0  0  0
 36 71  1  0  0  0  0
 37 38  2  0  0  0  0
 37 72  1  0  0  0  0
 38 73  1  0  0  0  0
 39 74  1  0  0  0  0
 39 75  1  0  0  0  0
 39 76  1  0  0  0  0
M  CHG  4   8   1   9   1  40  -1  41  -1
M  END
> <PUBCHEM_COMPOUND_CID>
168292602

> <PUBCHEM_COMPOUND_CANONICALIZED>
1

> <PUBCHEM_CACTVS_COMPLEXITY>
1080

> <PUBCHEM_CACTVS_HBOND_ACCEPTOR>
12

> <PUBCHEM_CACTVS_HBOND_DONOR>
1

> <PUBCHEM_CACTVS_ROTATABLE_BOND>
8

> <PUBCHEM_CACTVS_SUBSKEYS>
AAADcfN7ocAAAAAAAAAAAAAAAAAAAWIAAAA8WIEAAAAAAFgBwAAUHgAYAAAADAzBkgYz9pPIFACgAyZmZACCjCkhIiAdmKA/bJiOZuLEuZuVMChs0BPY6CeQQAAAAAAAAAAAEAAAAAAAAAAgAAAAAAAAAA==

> <PUBCHEM_IUPAC_OPENEYE_NAME>
8,8,16,16-tetrafluoro-N-[4-[4-(2-methoxyphenyl)piperazin-1-yl]butyl]-12,14-dimethyl-1,9-diaza-7,15-diazonia-8,16-diboranuidatetracyclo[7.7.0.02,7.011,15]hexadeca-2,4,6,10,12,14-hexaen-6-amine

> <PUBCHEM_IUPAC_CAS_NAME>
8,8,16,16-tetrafluoro-N-[4-[4-(2-methoxyphenyl)-1-piperazinyl]butyl]-12,14-dimethyl-1,9-diaza-7,15-diazonia-8,16-diboranuidatetracyclo[7.7.0.02,7.011,15]hexadeca-2,4,6,10,12,14-hexaen-6-amine

> <PUBCHEM_IUPAC_NAME_MARKUP>
8,8,16,16-tetrafluoro-<I>N</I>-[4-[4-(2-methoxyphenyl)piperazin-1-yl]butyl]-12,14-dimethyl-1,9-diaza-7,15-diazonia-8,16-diboranuidatetracyclo[7.7.0.0<SUP>2,7</SUP>.0<SUP>11,15</SUP>]hexadeca-2,4,6,10,12,14-hexaen-6-amine

> <PUBCHEM_IUPAC_NAME>
8,8,16,16-tetrafluoro-N-[4-[4-(2-methoxyphenyl)piperazin-1-yl]butyl]-12,14-dimethyl-1,9-diaza-7,15-diazonia-8,16-diboranuidatetracyclo[7.7.0.02,7.011,15]hexadeca-2,4,6,10,12,14-hexaen-6-amine

> <PUBCHEM_IUPAC_SYSTEMATIC_NAME>
8,8,16,16-tetrakis(fluoranyl)-N-[4-[4-(2-methoxyphenyl)piperazin-1-yl]butyl]-12,14-dimethyl-1,9-diaza-7,15-diazonia-8,16-diboranuidatetracyclo[7.7.0.02,7.011,15]hexadeca-2,4,6,10,12,14-hexaen-6-amine

> <PUBCHEM_IUPAC_TRADITIONAL_NAME>
4-[4-(2-methoxyphenyl)piperazino]butyl-(8,8,16,16-tetrafluoro-12,14-dimethyl-1,9-diaza-7,15-diazonia-8,16-diboranuidatetracyclo[7.7.0.02,7.011,15]hexadeca-2,4,6,10,12,14-hexaen-6-yl)amine

> <PUBCHEM_IUPAC_INCHI>
InChI=1S/C27H35B2F4N7O/c1-21-19-22(2)38-24(21)20-37-28(30,31)39-26(11-8-12-27(39)40(37)29(38,32)33)34-13-6-7-14-35-15-17-36(18-16-35)23-9-4-5-10-25(23)41-3/h4-5,8-12,19-20,34H,6-7,13-18H2,1-3H3

> <PUBCHEM_IUPAC_INCHIKEY>
HWSGUVGRRBAPDE-UHFFFAOYSA-N

> <PUBCHEM_EXACT_MASS>
571.3025317

> <PUBCHEM_MOLECULAR_FORMULA>
C27H35B2F4N7O

> <PUBCHEM_MOLECULAR_WEIGHT>
571.2

> <PUBCHEM_OPENEYE_CAN_SMILES>
[B-]1(N2C=C3C(=CC(=[N+]3[B-](N2C4=CC=CC(=[N+]41)NCCCCN5CCN(CC5)C6=CC=CC=C6OC)(F)F)C)C)(F)F

> <PUBCHEM_OPENEYE_ISO_SMILES>
[B-]1(N2C=C3C(=CC(=[N+]3[B-](N2C4=CC=CC(=[N+]41)NCCCCN5CCN(CC5)C6=CC=CC=C6OC)(F)F)C)C)(F)F

> <PUBCHEM_CACTVS_TPSA>
41.1

> <PUBCHEM_MONOISOTOPIC_WEIGHT>
571.3025317

> <PUBCHEM_TOTAL_CHARGE>
0

> <PUBCHEM_HEAVY_ATOM_COUNT>
41

> <PUBCHEM_ATOM_DEF_STEREO_COUNT>
0

> <PUBCHEM_ATOM_UDEF_STEREO_COUNT>
0

> <PUBCHEM_BOND_DEF_STEREO_COUNT>
0

> <PUBCHEM_BOND_UDEF_STEREO_COUNT>
0

> <PUBCHEM_ISOTOPIC_ATOM_COUNT>
0

> <PUBCHEM_COMPONENT_COUNT>
1

> <PUBCHEM_CACTVS_TAUTO_COUNT>
-1

> <PUBCHEM_COORDINATE_TYPE>
1
5
255

> <PUBCHEM_BONDANNOTATIONS>
13  27  8
21  29  8
27  31  8
29  31  8
30  34  8
30  35  8
34  36  8
35  37  8
36  38  8
37  38  8
8  13  8
8  21  8

$$$$
