10665626
  -OEChem-09292322142D

 47 50  0     1  0  0  0  0  0999 V2000
    6.3981   -2.5002    0.0000 O   0  0  0  0  0  0  0  0  0  0  0  0
    8.1301   -2.5002    0.0000 O   0  0  0  0  0  0  0  0  0  0  0  0
    4.6497   -3.5348    0.0000 O   0  0  0  0  0  0  0  0  0  0  0  0
    2.8680   -2.5244    0.0000 O   0  0  0  0  0  0  0  0  0  0  0  0
    8.1821    0.5482    0.0000 N   0  0  3  0  0  0  0  0  0  0  0  0
    7.2800    1.0690    0.0000 C   0  0  0  0  0  0  0  0  0  0  0  0
    6.3820    0.5413    0.0000 C   0  0  0  0  0  0  0  0  0  0  0  0
    6.3981   -0.5003    0.0000 C   0  0  0  0  0  0  0  0  0  0  0  0
    8.1741   -0.4934    0.0000 C   0  0  0  0  0  0  0  0  0  0  0  0
    7.2641   -1.0002    0.0000 C   0  0  0  0  0  0  0  0  0  0  0  0
    9.0501    1.0448    0.0000 C   0  0  0  0  0  0  0  0  0  0  0  0
    5.5320   -1.0002    0.0000 C   0  0  0  0  0  0  0  0  0  0  0  0
    5.5320   -2.0002    0.0000 C   0  0  0  0  0  0  0  0  0  0  0  0
    7.2641   -2.0002    0.0000 C   0  0  0  0  0  0  0  0  0  0  0  0
    9.0539    2.0448    0.0000 C   0  0  0  0  0  0  0  0  0  0  0  0
    4.6381   -0.4656    0.0000 C   0  0  0  0  0  0  0  0  0  0  0  0
    4.6381   -2.5349    0.0000 C   0  0  0  0  0  0  0  0  0  0  0  0
    3.7320   -0.9794    0.0000 C   0  0  0  0  0  0  0  0  0  0  0  0
    3.7320   -2.0211    0.0000 C   0  0  0  0  0  0  0  0  0  0  0  0
    9.9219    2.5415    0.0000 C   0  0  0  0  0  0  0  0  0  0  0  0
    8.1898    2.5482    0.0000 C   0  0  0  0  0  0  0  0  0  0  0  0
    9.9257    3.5415    0.0000 C   0  0  0  0  0  0  0  0  0  0  0  0
    8.1937    3.5482    0.0000 C   0  0  0  0  0  0  0  0  0  0  0  0
    9.0616    4.0448    0.0000 C   0  0  0  0  0  0  0  0  0  0  0  0
    3.7895   -4.0448    0.0000 C   0  0  0  0  0  0  0  0  0  0  0  0
    2.0000   -2.0277    0.0000 C   0  0  0  0  0  0  0  0  0  0  0  0
    7.6774    1.5450    0.0000 H   0  0  0  0  0  0  0  0  0  0  0  0
    6.8791    1.5419    0.0000 H   0  0  0  0  0  0  0  0  0  0  0  0
    6.1640    1.1216    0.0000 H   0  0  0  0  0  0  0  0  0  0  0  0
    5.7729    0.4258    0.0000 H   0  0  0  0  0  0  0  0  0  0  0  0
    8.3786   -1.0787    0.0000 H   0  0  0  0  0  0  0  0  0  0  0  0
    8.7858   -0.3920    0.0000 H   0  0  0  0  0  0  0  0  0  0  0  0
    9.2599    0.4614    0.0000 H   0  0  0  0  0  0  0  0  0  0  0  0
    9.6611    1.1502    0.0000 H   0  0  0  0  0  0  0  0  0  0  0  0
    4.6453    0.1544    0.0000 H   0  0  0  0  0  0  0  0  0  0  0  0
    3.1963   -0.6674    0.0000 H   0  0  0  0  0  0  0  0  0  0  0  0
   10.4576    2.2294    0.0000 H   0  0  0  0  0  0  0  0  0  0  0  0
    7.6517    2.2402    0.0000 H   0  0  0  0  0  0  0  0  0  0  0  0
   10.4639    3.8494    0.0000 H   0  0  0  0  0  0  0  0  0  0  0  0
    7.6580    3.8602    0.0000 H   0  0  0  0  0  0  0  0  0  0  0  0
    9.0640    4.6648    0.0000 H   0  0  0  0  0  0  0  0  0  0  0  0
    3.4733   -3.5115    0.0000 H   0  0  0  0  0  0  0  0  0  0  0  0
    3.2562   -4.3610    0.0000 H   0  0  0  0  0  0  0  0  0  0  0  0
    4.1057   -4.5781    0.0000 H   0  0  0  0  0  0  0  0  0  0  0  0
    2.3079   -1.4896    0.0000 H   0  0  0  0  0  0  0  0  0  0  0  0
    1.4619   -1.7198    0.0000 H   0  0  0  0  0  0  0  0  0  0  0  0
    1.6921   -2.5659    0.0000 H   0  0  0  0  0  0  0  0  0  0  0  0
  1 13  1  0  0  0  0
  1 14  1  0  0  0  0
  2 14  2  0  0  0  0
  3 17  1  0  0  0  0
  3 25  1  0  0  0  0
  4 19  1  0  0  0  0
  4 26  1  0  0  0  0
  5  6  1  0  0  0  0
  5  9  1  0  0  0  0
  5 11  1  0  0  0  0
  6  7  1  0  0  0  0
  6 27  1  0  0  0  0
  6 28  1  0  0  0  0
  7  8  1  0  0  0  0
  7 29  1  0  0  0  0
  7 30  1  0  0  0  0
  8 10  2  0  0  0  0
  8 12  1  0  0  0  0
  9 10  1  0  0  0  0
  9 31  1  0  0  0  0
  9 32  1  0  0  0  0
 10 14  1  0  0  0  0
 11 15  1  0  0  0  0
 11 33  1  0  0  0  0
 11 34  1  0  0  0  0
 12 13  2  0  0  0  0
 12 16  1  0  0  0  0
 13 17  1  0  0  0  0
 15 20  2  0  0  0  0
 15 21  1  0  0  0  0
 16 18  2  0  0  0  0
 16 35  1  0  0  0  0
 17 19  2  0  0  0  0
 18 19  1  0  0  0  0
 18 36  1  0  0  0  0
 20 22  1  0  0  0  0
 20 37  1  0  0  0  0
 21 23  2  0  0  0  0
 21 38  1  0  0  0  0
 22 24  2  0  0  0  0
 22 39  1  0  0  0  0
 23 24  1  0  0  0  0
 23 40  1  0  0  0  0
 24 41  1  0  0  0  0
 25 42  1  0  0  0  0
 25 43  1  0  0  0  0
 25 44  1  0  0  0  0
 26 45  1  0  0  0  0
 26 46  1  0  0  0  0
 26 47  1  0  0  0  0
M  END
> <PUBCHEM_COMPOUND_CID>
10665626

> <PUBCHEM_COMPOUND_CANONICALIZED>
1

> <PUBCHEM_CACTVS_COMPLEXITY>
554

> <PUBCHEM_CACTVS_HBOND_ACCEPTOR>
5

> <PUBCHEM_CACTVS_HBOND_DONOR>
0

> <PUBCHEM_CACTVS_ROTATABLE_BOND>
4

> <PUBCHEM_CACTVS_SUBSKEYS>
AAADceB6OAAAAAAAAAAAAAAAAAAAAAAAAAAwYIEAAAAAAACxQAAAHgAAAAAADATBmAYyDoMABACIAiDSCACCCAAgIAAIiAEOjMgNJyqEsRuGOirnwBWKqQeQ8L4OIAABCAAIQABAAAIQABCAAAAAAAAAAA==

> <PUBCHEM_IUPAC_OPENEYE_NAME>
3-benzyl-7,8-dimethoxy-2,4-dihydro-1H-chromeno[3,4-c]pyridin-5-one

> <PUBCHEM_IUPAC_CAS_NAME>
7,8-dimethoxy-3-(phenylmethyl)-2,4-dihydro-1H-[1]benzopyrano[3,4-c]pyridin-5-one

> <PUBCHEM_IUPAC_NAME_MARKUP>
3-benzyl-7,8-dimethoxy-2,4-dihydro-1<I>H</I>-chromeno[3,4-c]pyridin-5-one

> <PUBCHEM_IUPAC_NAME>
3-benzyl-7,8-dimethoxy-2,4-dihydro-1H-chromeno[3,4-c]pyridin-5-one

> <PUBCHEM_IUPAC_SYSTEMATIC_NAME>
7,8-dimethoxy-3-(phenylmethyl)-2,4-dihydro-1H-chromeno[3,4-c]pyridin-5-one

> <PUBCHEM_IUPAC_TRADITIONAL_NAME>
3-benzyl-7,8-dimethoxy-2,4-dihydro-1H-chromeno[3,4-c]pyridin-5-one

> <PUBCHEM_IUPAC_INCHI>
InChI=1S/C21H21NO4/c1-24-18-9-8-16-15-10-11-22(12-14-6-4-3-5-7-14)13-17(15)21(23)26-19(16)20(18)25-2/h3-9H,10-13H2,1-2H3

> <PUBCHEM_IUPAC_INCHIKEY>
ITUXESRMFODXIB-UHFFFAOYSA-N

> <PUBCHEM_XLOGP3_AA>
2.8

> <PUBCHEM_EXACT_MASS>
351.14705815

> <PUBCHEM_MOLECULAR_FORMULA>
C21H21NO4

> <PUBCHEM_MOLECULAR_WEIGHT>
351.4

> <PUBCHEM_OPENEYE_CAN_SMILES>
COC1=C(C2=C(C=C1)C3=C(CN(CC3)CC4=CC=CC=C4)C(=O)O2)OC

> <PUBCHEM_OPENEYE_ISO_SMILES>
COC1=C(C2=C(C=C1)C3=C(CN(CC3)CC4=CC=CC=C4)C(=O)O2)OC

> <PUBCHEM_CACTVS_TPSA>
48

> <PUBCHEM_MONOISOTOPIC_WEIGHT>
351.14705815

> <PUBCHEM_TOTAL_CHARGE>
0

> <PUBCHEM_HEAVY_ATOM_COUNT>
26

> <PUBCHEM_ATOM_DEF_STEREO_COUNT>
0

> <PUBCHEM_ATOM_UDEF_STEREO_COUNT>
0

> <PUBCHEM_BOND_DEF_STEREO_COUNT>
0

> <PUBCHEM_BOND_UDEF_STEREO_COUNT>
0

> <PUBCHEM_ISOTOPIC_ATOM_COUNT>
0

> <PUBCHEM_COMPONENT_COUNT>
1

> <PUBCHEM_CACTVS_TAUTO_COUNT>
-1

> <PUBCHEM_COORDINATE_TYPE>
1
5
255

> <PUBCHEM_BONDANNOTATIONS>
1  13  8
1  14  8
10  14  8
12  13  8
12  16  8
13  17  8
15  20  8
15  21  8
16  18  8
17  19  8
18  19  8
20  22  8
21  23  8
22  24  8
23  24  8
8  10  8
8  12  8

$$$$
