11547151
  -OEChem-09292322242D

 68 71  0     0  0  0  0  0  0999 V2000
    8.0902   -5.7942    0.0000 O   0  0  0  0  0  0  0  0  0  0  0  0
    2.8940    1.2058    0.0000 O   0  0  0  0  0  0  0  0  0  0  0  0
    6.3582   -2.7942    0.0000 N   0  0  0  0  0  0  0  0  0  0  0  0
    6.3582   -4.7942    0.0000 N   0  0  0  0  0  0  0  0  0  0  0  0
    4.6261    1.2058    0.0000 N   0  0  0  0  0  0  0  0  0  0  0  0
    3.2601    4.2446    0.0000 N   0  0  0  0  0  0  0  0  0  0  0  0
    4.5691    3.2935    0.0000 N   0  0  0  0  0  0  0  0  0  0  0  0
    4.2601    4.2446    0.0000 N   0  0  0  0  0  0  0  0  0  0  0  0
    5.4921   -3.2942    0.0000 C   0  0  0  0  0  0  0  0  0  0  0  0
    7.2242   -3.2942    0.0000 C   0  0  0  0  0  0  0  0  0  0  0  0
    5.4921   -4.2942    0.0000 C   0  0  0  0  0  0  0  0  0  0  0  0
    7.2242   -4.2942    0.0000 C   0  0  0  0  0  0  0  0  0  0  0  0
    6.3582   -1.7942    0.0000 C   0  0  0  0  0  0  0  0  0  0  0  0
    5.4921   -1.2942    0.0000 C   0  0  0  0  0  0  0  0  0  0  0  0
    6.3582   -5.7942    0.0000 C   0  0  0  0  0  0  0  0  0  0  0  0
    5.4921   -0.2942    0.0000 C   0  0  0  0  0  0  0  0  0  0  0  0
    4.6261    0.2058    0.0000 C   0  0  0  0  0  0  0  0  0  0  0  0
    7.2242   -6.2942    0.0000 C   0  0  0  0  0  0  0  0  0  0  0  0
    5.4921   -6.2942    0.0000 C   0  0  0  0  0  0  0  0  0  0  0  0
    7.2242   -7.2942    0.0000 C   0  0  0  0  0  0  0  0  0  0  0  0
    5.4921   -7.2942    0.0000 C   0  0  0  0  0  0  0  0  0  0  0  0
    6.3582   -7.7942    0.0000 C   0  0  0  0  0  0  0  0  0  0  0  0
    3.7601    1.7058    0.0000 C   0  0  0  0  0  0  0  0  0  0  0  0
    3.7601    2.7058    0.0000 C   0  0  0  0  0  0  0  0  0  0  0  0
    2.9511    3.2935    0.0000 C   0  0  0  0  0  0  0  0  0  0  0  0
    8.9562   -6.2942    0.0000 C   0  0  0  0  0  0  0  0  0  0  0  0
    2.6723    5.0536    0.0000 C   0  0  0  0  0  0  0  0  0  0  0  0
    2.0000    2.9845    0.0000 C   0  0  0  0  0  0  0  0  0  0  0  0
    3.0790    5.9672    0.0000 C   0  0  0  0  0  0  0  0  0  0  0  0
    2.4912    6.7762    0.0000 C   0  0  0  0  0  0  0  0  0  0  0  0
    4.0736    6.0717    0.0000 C   0  0  0  0  0  0  0  0  0  0  0  0
    2.8980    7.6897    0.0000 C   0  0  0  0  0  0  0  0  0  0  0  0
    4.4803    6.9852    0.0000 C   0  0  0  0  0  0  0  0  0  0  0  0
    3.8925    7.7942    0.0000 C   0  0  0  0  0  0  0  0  0  0  0  0
    5.2801   -2.7116    0.0000 H   0  0  0  0  0  0  0  0  0  0  0  0
    4.8815   -3.4019    0.0000 H   0  0  0  0  0  0  0  0  0  0  0  0
    7.8348   -3.4019    0.0000 H   0  0  0  0  0  0  0  0  0  0  0  0
    7.4362   -2.7116    0.0000 H   0  0  0  0  0  0  0  0  0  0  0  0
    4.8815   -4.1866    0.0000 H   0  0  0  0  0  0  0  0  0  0  0  0
    5.2801   -4.8769    0.0000 H   0  0  0  0  0  0  0  0  0  0  0  0
    7.4362   -4.8769    0.0000 H   0  0  0  0  0  0  0  0  0  0  0  0
    7.8348   -4.1866    0.0000 H   0  0  0  0  0  0  0  0  0  0  0  0
    6.9687   -1.9019    0.0000 H   0  0  0  0  0  0  0  0  0  0  0  0
    6.5702   -1.2116    0.0000 H   0  0  0  0  0  0  0  0  0  0  0  0
    4.8815   -1.1866    0.0000 H   0  0  0  0  0  0  0  0  0  0  0  0
    5.2801   -1.8769    0.0000 H   0  0  0  0  0  0  0  0  0  0  0  0
    6.1027   -0.4019    0.0000 H   0  0  0  0  0  0  0  0  0  0  0  0
    5.7042    0.2884    0.0000 H   0  0  0  0  0  0  0  0  0  0  0  0
    4.0155    0.3134    0.0000 H   0  0  0  0  0  0  0  0  0  0  0  0
    4.4140   -0.3769    0.0000 H   0  0  0  0  0  0  0  0  0  0  0  0
    4.9552   -5.9842    0.0000 H   0  0  0  0  0  0  0  0  0  0  0  0
    7.7611   -7.6042    0.0000 H   0  0  0  0  0  0  0  0  0  0  0  0
    5.1630    1.5158    0.0000 H   0  0  0  0  0  0  0  0  0  0  0  0
    4.9552   -7.6042    0.0000 H   0  0  0  0  0  0  0  0  0  0  0  0
    6.3582   -8.4142    0.0000 H   0  0  0  0  0  0  0  0  0  0  0  0
    8.6462   -6.8312    0.0000 H   0  0  0  0  0  0  0  0  0  0  0  0
    9.4932   -6.6042    0.0000 H   0  0  0  0  0  0  0  0  0  0  0  0
    9.2662   -5.7573    0.0000 H   0  0  0  0  0  0  0  0  0  0  0  0
    2.1583    5.4003    0.0000 H   0  0  0  0  0  0  0  0  0  0  0  0
    2.2416    4.6076    0.0000 H   0  0  0  0  0  0  0  0  0  0  0  0
    1.8084    3.5742    0.0000 H   0  0  0  0  0  0  0  0  0  0  0  0
    1.4103    2.7929    0.0000 H   0  0  0  0  0  0  0  0  0  0  0  0
    2.1916    2.3949    0.0000 H   0  0  0  0  0  0  0  0  0  0  0  0
    1.8746    6.7114    0.0000 H   0  0  0  0  0  0  0  0  0  0  0  0
    4.4380    5.5701    0.0000 H   0  0  0  0  0  0  0  0  0  0  0  0
    2.5336    8.1913    0.0000 H   0  0  0  0  0  0  0  0  0  0  0  0
    5.0969    7.0500    0.0000 H   0  0  0  0  0  0  0  0  0  0  0  0
    4.1447    8.3606    0.0000 H   0  0  0  0  0  0  0  0  0  0  0  0
  1 18  1  0  0  0  0
  1 26  1  0  0  0  0
  2 23  2  0  0  0  0
  3  9  1  0  0  0  0
  3 10  1  0  0  0  0
  3 13  1  0  0  0  0
  4 11  1  0  0  0  0
  4 12  1  0  0  0  0
  4 15  1  0  0  0  0
  5 17  1  0  0  0  0
  5 23  1  0  0  0  0
  5 53  1  0  0  0  0
  6  8  1  0  0  0  0
  6 25  1  0  0  0  0
  6 27  1  0  0  0  0
  7  8  2  0  0  0  0
  7 24  1  0  0  0  0
  9 11  1  0  0  0  0
  9 35  1  0  0  0  0
  9 36  1  0  0  0  0
 10 12  1  0  0  0  0
 10 37  1  0  0  0  0
 10 38  1  0  0  0  0
 11 39  1  0  0  0  0
 11 40  1  0  0  0  0
 12 41  1  0  0  0  0
 12 42  1  0  0  0  0
 13 14  1  0  0  0  0
 13 43  1  0  0  0  0
 13 44  1  0  0  0  0
 14 16  1  0  0  0  0
 14 45  1  0  0  0  0
 14 46  1  0  0  0  0
 15 18  1  0  0  0  0
 15 19  2  0  0  0  0
 16 17  1  0  0  0  0
 16 47  1  0  0  0  0
 16 48  1  0  0  0  0
 17 49  1  0  0  0  0
 17 50  1  0  0  0  0
 18 20  2  0  0  0  0
 19 21  1  0  0  0  0
 19 51  1  0  0  0  0
 20 22  1  0  0  0  0
 20 52  1  0  0  0  0
 21 22  2  0  0  0  0
 21 54  1  0  0  0  0
 22 55  1  0  0  0  0
 23 24  1  0  0  0  0
 24 25  2  0  0  0  0
 25 28  1  0  0  0  0
 26 56  1  0  0  0  0
 26 57  1  0  0  0  0
 26 58  1  0  0  0  0
 27 29  1  0  0  0  0
 27 59  1  0  0  0  0
 27 60  1  0  0  0  0
 28 61  1  0  0  0  0
 28 62  1  0  0  0  0
 28 63  1  0  0  0  0
 29 30  2  0  0  0  0
 29 31  1  0  0  0  0
 30 32  1  0  0  0  0
 30 64  1  0  0  0  0
 31 33  2  0  0  0  0
 31 65  1  0  0  0  0
 32 34  2  0  0  0  0
 32 66  1  0  0  0  0
 33 34  1  0  0  0  0
 33 67  1  0  0  0  0
 34 68  1  0  0  0  0
M  END
> <PUBCHEM_COMPOUND_CID>
11547151

> <PUBCHEM_COMPOUND_CANONICALIZED>
1

> <PUBCHEM_CACTVS_COMPLEXITY>
608

> <PUBCHEM_CACTVS_HBOND_ACCEPTOR>
6

> <PUBCHEM_CACTVS_HBOND_DONOR>
1

> <PUBCHEM_CACTVS_ROTATABLE_BOND>
10

> <PUBCHEM_CACTVS_SUBSKEYS>
AAADcfB7sAAAAAAAAAAAAAAAAAAAAWAAAAA8YIAAAAAAAAAB0AAAHgAYAAAADAzBngYyxpPIBACqAyVyVACCDAQnsgAY2IG/fMgOZjrE8ZuVMahk1hHY6UeQwAAOAAAAAAAAEAAAAAAAAAAgAAAAAAAAAA==

> <PUBCHEM_IUPAC_OPENEYE_NAME>
1-benzyl-N-[4-[4-(2-methoxyphenyl)piperazin-1-yl]butyl]-5-methyl-triazole-4-carboxamide

> <PUBCHEM_IUPAC_CAS_NAME>
N-[4-[4-(2-methoxyphenyl)-1-piperazinyl]butyl]-5-methyl-1-(phenylmethyl)-4-triazolecarboxamide

> <PUBCHEM_IUPAC_NAME_MARKUP>
1-benzyl-<I>N</I>-[4-[4-(2-methoxyphenyl)piperazin-1-yl]butyl]-5-methyltriazole-4-carboxamide

> <PUBCHEM_IUPAC_NAME>
1-benzyl-N-[4-[4-(2-methoxyphenyl)piperazin-1-yl]butyl]-5-methyltriazole-4-carboxamide

> <PUBCHEM_IUPAC_SYSTEMATIC_NAME>
N-[4-[4-(2-methoxyphenyl)piperazin-1-yl]butyl]-5-methyl-1-(phenylmethyl)-1,2,3-triazole-4-carboxamide

> <PUBCHEM_IUPAC_TRADITIONAL_NAME>
1-benzyl-N-[4-[4-(2-methoxyphenyl)piperazino]butyl]-5-methyl-triazole-4-carboxamide

> <PUBCHEM_IUPAC_INCHI>
InChI=1S/C26H34N6O2/c1-21-25(28-29-32(21)20-22-10-4-3-5-11-22)26(33)27-14-8-9-15-30-16-18-31(19-17-30)23-12-6-7-13-24(23)34-2/h3-7,10-13H,8-9,14-20H2,1-2H3,(H,27,33)

> <PUBCHEM_IUPAC_INCHIKEY>
IITURQZUYHBHDS-UHFFFAOYSA-N

> <PUBCHEM_XLOGP3_AA>
3.6

> <PUBCHEM_EXACT_MASS>
462.27432435

> <PUBCHEM_MOLECULAR_FORMULA>
C26H34N6O2

> <PUBCHEM_MOLECULAR_WEIGHT>
462.6

> <PUBCHEM_OPENEYE_CAN_SMILES>
CC1=C(N=NN1CC2=CC=CC=C2)C(=O)NCCCCN3CCN(CC3)C4=CC=CC=C4OC

> <PUBCHEM_OPENEYE_ISO_SMILES>
CC1=C(N=NN1CC2=CC=CC=C2)C(=O)NCCCCN3CCN(CC3)C4=CC=CC=C4OC

> <PUBCHEM_CACTVS_TPSA>
75.5

> <PUBCHEM_MONOISOTOPIC_WEIGHT>
462.27432435

> <PUBCHEM_TOTAL_CHARGE>
0

> <PUBCHEM_HEAVY_ATOM_COUNT>
34

> <PUBCHEM_ATOM_DEF_STEREO_COUNT>
0

> <PUBCHEM_ATOM_UDEF_STEREO_COUNT>
0

> <PUBCHEM_BOND_DEF_STEREO_COUNT>
0

> <PUBCHEM_BOND_UDEF_STEREO_COUNT>
0

> <PUBCHEM_ISOTOPIC_ATOM_COUNT>
0

> <PUBCHEM_COMPONENT_COUNT>
1

> <PUBCHEM_CACTVS_TAUTO_COUNT>
-1

> <PUBCHEM_COORDINATE_TYPE>
1
5
255

> <PUBCHEM_BONDANNOTATIONS>
15  18  8
15  19  8
18  20  8
19  21  8
20  22  8
21  22  8
24  25  8
29  30  8
29  31  8
30  32  8
31  33  8
32  34  8
33  34  8
6  25  8
6  8  8
7  24  8
7  8  8

$$$$
