155555506
  -OEChem-09292322402D

 47 50  0     1  0  0  0  0  0999 V2000
    8.5189    1.3013    0.0000 O   0  0  0  0  0  0  0  0  0  0  0  0
    6.2781   -0.1628    0.0000 N   0  0  3  0  0  0  0  0  0  0  0  0
    4.6783   -3.8795    0.0000 N   0  0  0  0  0  0  0  0  0  0  0  0
    4.9889   -1.3195    0.0000 C   0  0  0  0  0  0  0  0  0  0  0  0
    5.9674   -1.1133    0.0000 C   0  0  0  0  0  0  0  0  0  0  0  0
    4.6783   -2.2700    0.0000 C   0  0  0  0  0  0  0  0  0  0  0  0
    3.7320   -2.5748    0.0000 C   0  0  0  0  0  0  0  0  0  0  0  0
    7.2566    0.0435    0.0000 C   0  0  0  0  0  0  0  0  0  0  0  0
    3.7320   -3.5748    0.0000 C   0  0  0  0  0  0  0  0  0  0  0  0
    5.2619   -3.0748    0.0000 C   0  0  0  0  0  0  0  0  0  0  0  0
    7.5673    0.9940    0.0000 C   0  0  0  0  0  0  0  0  0  0  0  0
    5.6103    0.5815    0.0000 C   0  0  0  0  0  0  0  0  0  0  0  0
    2.8660   -2.0748    0.0000 C   0  0  0  0  0  0  0  0  0  0  0  0
    2.8660   -4.0748    0.0000 C   0  0  0  0  0  0  0  0  0  0  0  0
    6.9809    1.8040    0.0000 C   0  0  0  0  0  0  0  0  0  0  0  0
    2.0000   -2.5748    0.0000 C   0  0  0  0  0  0  0  0  0  0  0  0
    8.5206    2.3013    0.0000 C   0  0  0  0  0  0  0  0  0  0  0  0
    2.0000   -3.5748    0.0000 C   0  0  0  0  0  0  0  0  0  0  0  0
    7.5701    2.6120    0.0000 C   0  0  0  0  0  0  0  0  0  0  0  0
    9.3306    2.8877    0.0000 C   0  0  0  0  0  0  0  0  0  0  0  0
   10.2435    2.4794    0.0000 C   0  0  0  0  0  0  0  0  0  0  0  0
    9.2278    3.8824    0.0000 C   0  0  0  0  0  0  0  0  0  0  0  0
   11.0535    3.0658    0.0000 C   0  0  0  0  0  0  0  0  0  0  0  0
   10.0378    4.4688    0.0000 C   0  0  0  0  0  0  0  0  0  0  0  0
   10.9507    4.0605    0.0000 C   0  0  0  0  0  0  0  0  0  0  0  0
    4.9684   -0.6998    0.0000 H   0  0  0  0  0  0  0  0  0  0  0  0
    4.3751   -1.2322    0.0000 H   0  0  0  0  0  0  0  0  0  0  0  0
    5.9880   -1.7330    0.0000 H   0  0  0  0  0  0  0  0  0  0  0  0
    6.5812   -1.2006    0.0000 H   0  0  0  0  0  0  0  0  0  0  0  0
    7.2772   -0.5762    0.0000 H   0  0  0  0  0  0  0  0  0  0  0  0
    7.8704   -0.0439    0.0000 H   0  0  0  0  0  0  0  0  0  0  0  0
    5.8819   -3.0748    0.0000 H   0  0  0  0  0  0  0  0  0  0  0  0
    4.8709   -4.4688    0.0000 H   0  0  0  0  0  0  0  0  0  0  0  0
    6.0717    0.9956    0.0000 H   0  0  0  0  0  0  0  0  0  0  0  0
    5.1962    1.0430    0.0000 H   0  0  0  0  0  0  0  0  0  0  0  0
    5.1488    0.1675    0.0000 H   0  0  0  0  0  0  0  0  0  0  0  0
    2.8660   -1.4548    0.0000 H   0  0  0  0  0  0  0  0  0  0  0  0
    2.8660   -4.6948    0.0000 H   0  0  0  0  0  0  0  0  0  0  0  0
    6.3609    1.8051    0.0000 H   0  0  0  0  0  0  0  0  0  0  0  0
    1.4631   -2.2648    0.0000 H   0  0  0  0  0  0  0  0  0  0  0  0
    1.4631   -3.8848    0.0000 H   0  0  0  0  0  0  0  0  0  0  0  0
    7.3795    3.2020    0.0000 H   0  0  0  0  0  0  0  0  0  0  0  0
   10.3072    1.8627    0.0000 H   0  0  0  0  0  0  0  0  0  0  0  0
    8.6618    4.1356    0.0000 H   0  0  0  0  0  0  0  0  0  0  0  0
   11.6195    2.8126    0.0000 H   0  0  0  0  0  0  0  0  0  0  0  0
    9.9741    5.0855    0.0000 H   0  0  0  0  0  0  0  0  0  0  0  0
   11.4529    4.4240    0.0000 H   0  0  0  0  0  0  0  0  0  0  0  0
  1 11  1  0  0  0  0
  1 17  1  0  0  0  0
  2  5  1  0  0  0  0
  2  8  1  0  0  0  0
  2 12  1  0  0  0  0
  3  9  1  0  0  0  0
  3 10  1  0  0  0  0
  3 33  1  0  0  0  0
  4  5  1  0  0  0  0
  4  6  1  0  0  0  0
  4 26  1  0  0  0  0
  4 27  1  0  0  0  0
  5 28  1  0  0  0  0
  5 29  1  0  0  0  0
  6  7  1  0  0  0  0
  6 10  2  0  0  0  0
  7  9  1  0  0  0  0
  7 13  2  0  0  0  0
  8 11  1  0  0  0  0
  8 30  1  0  0  0  0
  8 31  1  0  0  0  0
  9 14  2  0  0  0  0
 10 32  1  0  0  0  0
 11 15  2  0  0  0  0
 12 34  1  0  0  0  0
 12 35  1  0  0  0  0
 12 36  1  0  0  0  0
 13 16  1  0  0  0  0
 13 37  1  0  0  0  0
 14 18  1  0  0  0  0
 14 38  1  0  0  0  0
 15 19  1  0  0  0  0
 15 39  1  0  0  0  0
 16 18  2  0  0  0  0
 16 40  1  0  0  0  0
 17 19  2  0  0  0  0
 17 20  1  0  0  0  0
 18 41  1  0  0  0  0
 19 42  1  0  0  0  0
 20 21  2  0  0  0  0
 20 22  1  0  0  0  0
 21 23  1  0  0  0  0
 21 43  1  0  0  0  0
 22 24  2  0  0  0  0
 22 44  1  0  0  0  0
 23 25  2  0  0  0  0
 23 45  1  0  0  0  0
 24 25  1  0  0  0  0
 24 46  1  0  0  0  0
 25 47  1  0  0  0  0
M  END
> <PUBCHEM_COMPOUND_CID>
155555506

> <PUBCHEM_COMPOUND_CANONICALIZED>
1

> <PUBCHEM_CACTVS_COMPLEXITY>
409

> <PUBCHEM_CACTVS_HBOND_ACCEPTOR>
2

> <PUBCHEM_CACTVS_HBOND_DONOR>
1

> <PUBCHEM_CACTVS_ROTATABLE_BOND>
6

> <PUBCHEM_CACTVS_SUBSKEYS>
AAADceB7IAAAAAAAAAAAAAAAAAAAAWJAAAAwYAAAAAAAAFgB/AAAHgAQAAAADAzBngQ+xPPJlECoA7R3RACCiCA1IiAI2aG+bNgOJvLEtbuHOSjk0BHY6YeY2fKOgAAAAAACAAAAAAAAAAQAAAAAAAAAAA==

> <PUBCHEM_IUPAC_OPENEYE_NAME>
2-(1H-indol-3-yl)-N-methyl-N-[(5-phenyl-2-furyl)methyl]ethanamine

> <PUBCHEM_IUPAC_CAS_NAME>
2-(1H-indol-3-yl)-N-methyl-N-[(5-phenyl-2-furanyl)methyl]ethanamine

> <PUBCHEM_IUPAC_NAME_MARKUP>
2-(1<I>H</I>-indol-3-yl)-<I>N</I>-methyl-<I>N</I>-[(5-phenylfuran-2-yl)methyl]ethanamine

> <PUBCHEM_IUPAC_NAME>
2-(1H-indol-3-yl)-N-methyl-N-[(5-phenylfuran-2-yl)methyl]ethanamine

> <PUBCHEM_IUPAC_SYSTEMATIC_NAME>
2-(1H-indol-3-yl)-N-methyl-N-[(5-phenylfuran-2-yl)methyl]ethanamine

> <PUBCHEM_IUPAC_TRADITIONAL_NAME>
2-(1H-indol-3-yl)ethyl-methyl-[(5-phenyl-2-furyl)methyl]amine

> <PUBCHEM_IUPAC_INCHI>
InChI=1S/C22H22N2O/c1-24(14-13-18-15-23-21-10-6-5-9-20(18)21)16-19-11-12-22(25-19)17-7-3-2-4-8-17/h2-12,15,23H,13-14,16H2,1H3

> <PUBCHEM_IUPAC_INCHIKEY>
JTENRKUQAXBDKF-UHFFFAOYSA-N

> <PUBCHEM_XLOGP3_AA>
4.6

> <PUBCHEM_EXACT_MASS>
330.173213330

> <PUBCHEM_MOLECULAR_FORMULA>
C22H22N2O

> <PUBCHEM_MOLECULAR_WEIGHT>
330.4

> <PUBCHEM_OPENEYE_CAN_SMILES>
CN(CCC1=CNC2=CC=CC=C21)CC3=CC=C(O3)C4=CC=CC=C4

> <PUBCHEM_OPENEYE_ISO_SMILES>
CN(CCC1=CNC2=CC=CC=C21)CC3=CC=C(O3)C4=CC=CC=C4

> <PUBCHEM_CACTVS_TPSA>
32.2

> <PUBCHEM_MONOISOTOPIC_WEIGHT>
330.173213330

> <PUBCHEM_TOTAL_CHARGE>
0

> <PUBCHEM_HEAVY_ATOM_COUNT>
25

> <PUBCHEM_ATOM_DEF_STEREO_COUNT>
0

> <PUBCHEM_ATOM_UDEF_STEREO_COUNT>
0

> <PUBCHEM_BOND_DEF_STEREO_COUNT>
0

> <PUBCHEM_BOND_UDEF_STEREO_COUNT>
0

> <PUBCHEM_ISOTOPIC_ATOM_COUNT>
0

> <PUBCHEM_COMPONENT_COUNT>
1

> <PUBCHEM_CACTVS_TAUTO_COUNT>
-1

> <PUBCHEM_COORDINATE_TYPE>
1
5
255

> <PUBCHEM_BONDANNOTATIONS>
1  11  8
1  17  8
11  15  8
13  16  8
14  18  8
15  19  8
16  18  8
17  19  8
20  21  8
20  22  8
21  23  8
22  24  8
23  25  8
24  25  8
3  10  8
3  9  8
6  10  8
6  7  8
7  13  8
7  9  8
9  14  8

$$$$
