15665510
  -OEChem-09292322142D

 73 79  0     1  0  0  0  0  0999 V2000
   11.7212    4.0108    0.0000 O   0  0  0  0  0  0  0  0  0  0  0  0
    8.8798   -0.6881    0.0000 O   0  0  0  0  0  0  0  0  0  0  0  0
   10.6719   -1.7227    0.0000 O   0  0  0  0  0  0  0  0  0  0  0  0
    5.0000   -1.8636    0.0000 O   0  0  0  0  0  0  0  0  0  0  0  0
    5.0000   -3.5956    0.0000 O   0  0  0  0  0  0  0  0  0  0  0  0
   13.2814    1.9465    0.0000 N   0  0  3  0  0  0  0  0  0  0  0  0
   10.6381    1.3430    0.0000 N   0  0  0  0  0  0  0  0  0  0  0  0
   13.4443    3.5563    0.0000 N   0  0  0  0  0  0  0  0  0  0  0  0
    7.0836   -3.5343    0.0000 N   0  0  0  0  0  0  0  0  0  0  0  0
   12.3663    2.3497    0.0000 C   0  0  0  0  0  0  0  0  0  0  0  0
   12.3701    1.3497    0.0000 C   0  0  0  0  0  0  0  0  0  0  0  0
   11.4983    2.8463    0.0000 C   0  0  0  0  0  0  0  0  0  0  0  0
   11.5060    0.8463    0.0000 C   0  0  0  0  0  0  0  0  0  0  0  0
   10.6342    2.3430    0.0000 C   0  0  0  0  0  0  0  0  0  0  0  0
   12.4669    3.3446    0.0000 C   0  0  0  0  0  0  0  0  0  0  0  0
   13.9476    2.6922    0.0000 C   0  0  0  0  0  0  0  0  0  0  0  0
    9.7740    0.8397    0.0000 C   0  0  0  0  0  0  0  0  0  0  0  0
   13.4930    0.9691    0.0000 C   0  0  0  0  0  0  0  0  0  0  0  0
    9.7778   -0.1603    0.0000 C   0  0  3  0  0  0  0  0  0  0  0  0
   10.6799   -0.6811    0.0000 C   0  0  0  0  0  0  0  0  0  0  0  0
   12.7525    0.2971    0.0000 C   0  0  0  0  0  0  0  0  0  0  0  0
   14.4453    0.6638    0.0000 C   0  0  0  0  0  0  0  0  0  0  0  0
    8.8958   -1.7296    0.0000 C   0  0  0  0  0  0  0  0  0  0  0  0
   12.9642   -0.6802    0.0000 C   0  0  0  0  0  0  0  0  0  0  0  0
   14.6570   -0.3136    0.0000 C   0  0  0  0  0  0  0  0  0  0  0  0
    9.7619   -2.2296    0.0000 C   0  0  0  0  0  0  0  0  0  0  0  0
    8.0298   -2.2296    0.0000 C   0  0  0  0  0  0  0  0  0  0  0  0
   13.9164   -0.9856    0.0000 C   0  0  0  0  0  0  0  0  0  0  0  0
    8.0298   -3.2296    0.0000 C   0  0  0  0  0  0  0  0  0  0  0  0
    9.7619   -3.2296    0.0000 C   0  0  0  0  0  0  0  0  0  0  0  0
    8.8958   -3.7296    0.0000 C   0  0  0  0  0  0  0  0  0  0  0  0
    7.0836   -1.9248    0.0000 C   0  0  0  0  0  0  0  0  0  0  0  0
    6.5000   -2.7296    0.0000 C   0  0  0  0  0  0  0  0  0  0  0  0
    5.5000   -2.7296    0.0000 C   0  0  0  0  0  0  0  0  0  0  0  0
    4.0000   -1.8636    0.0000 C   0  0  0  0  0  0  0  0  0  0  0  0
    3.5000   -0.9975    0.0000 C   0  0  0  0  0  0  0  0  0  0  0  0
    2.5000   -0.9975    0.0000 C   0  0  0  0  0  0  0  0  0  0  0  0
    4.0000   -0.1315    0.0000 C   0  0  0  0  0  0  0  0  0  0  0  0
    2.0000   -0.1315    0.0000 C   0  0  0  0  0  0  0  0  0  0  0  0
    3.5000    0.7345    0.0000 C   0  0  0  0  0  0  0  0  0  0  0  0
    2.5000    0.7345    0.0000 C   0  0  0  0  0  0  0  0  0  0  0  0
   12.5844    0.7679    0.0000 H   0  0  0  0  0  0  0  0  0  0  0  0
   12.9803    1.4597    0.0000 H   0  0  0  0  0  0  0  0  0  0  0  0
   11.8950    3.3228    0.0000 H   0  0  0  0  0  0  0  0  0  0  0  0
   11.0979    3.3197    0.0000 H   0  0  0  0  0  0  0  0  0  0  0  0
   11.1093    0.3699    0.0000 H   0  0  0  0  0  0  0  0  0  0  0  0
   11.9064    0.3729    0.0000 H   0  0  0  0  0  0  0  0  0  0  0  0
   10.4199    2.9248    0.0000 H   0  0  0  0  0  0  0  0  0  0  0  0
   10.0241    2.2330    0.0000 H   0  0  0  0  0  0  0  0  0  0  0  0
   14.3643    2.2330    0.0000 H   0  0  0  0  0  0  0  0  0  0  0  0
   14.4478    3.0585    0.0000 H   0  0  0  0  0  0  0  0  0  0  0  0
    9.5597    1.4215    0.0000 H   0  0  0  0  0  0  0  0  0  0  0  0
    9.1638    0.7297    0.0000 H   0  0  0  0  0  0  0  0  0  0  0  0
   13.6943    4.1236    0.0000 H   0  0  0  0  0  0  0  0  0  0  0  0
    9.2391    0.1466    0.0000 H   0  0  0  0  0  0  0  0  0  0  0  0
   11.2899   -0.7919    0.0000 H   0  0  0  0  0  0  0  0  0  0  0  0
   10.8935   -0.0991    0.0000 H   0  0  0  0  0  0  0  0  0  0  0  0
   12.1621    0.4864    0.0000 H   0  0  0  0  0  0  0  0  0  0  0  0
   14.9044    1.0804    0.0000 H   0  0  0  0  0  0  0  0  0  0  0  0
   12.5050   -1.0968    0.0000 H   0  0  0  0  0  0  0  0  0  0  0  0
   15.2473   -0.5029    0.0000 H   0  0  0  0  0  0  0  0  0  0  0  0
   14.0476   -1.5915    0.0000 H   0  0  0  0  0  0  0  0  0  0  0  0
   10.2988   -3.5396    0.0000 H   0  0  0  0  0  0  0  0  0  0  0  0
    8.8958   -4.3496    0.0000 H   0  0  0  0  0  0  0  0  0  0  0  0
    6.8910   -1.3355    0.0000 H   0  0  0  0  0  0  0  0  0  0  0  0
    6.8910   -4.1236    0.0000 H   0  0  0  0  0  0  0  0  0  0  0  0
    3.4174   -2.0756    0.0000 H   0  0  0  0  0  0  0  0  0  0  0  0
    4.1077   -2.4741    0.0000 H   0  0  0  0  0  0  0  0  0  0  0  0
    2.1900   -1.5345    0.0000 H   0  0  0  0  0  0  0  0  0  0  0  0
    4.6200   -0.1315    0.0000 H   0  0  0  0  0  0  0  0  0  0  0  0
    1.3800   -0.1315    0.0000 H   0  0  0  0  0  0  0  0  0  0  0  0
    3.8100    1.2714    0.0000 H   0  0  0  0  0  0  0  0  0  0  0  0
    2.1900    1.2714    0.0000 H   0  0  0  0  0  0  0  0  0  0  0  0
  1 15  2  0  0  0  0
  2 19  1  0  0  0  0
  2 23  1  0  0  0  0
  3 20  1  0  0  0  0
  3 26  1  0  0  0  0
  4 34  1  0  0  0  0
  4 35  1  0  0  0  0
  5 34  2  0  0  0  0
  6 10  1  0  0  0  0
  6 16  1  0  0  0  0
  6 18  1  0  0  0  0
  7 13  1  0  0  0  0
  7 14  1  0  0  0  0
  7 17  1  0  0  0  0
  8 15  1  0  0  0  0
  8 16  1  0  0  0  0
  8 54  1  0  0  0  0
  9 29  1  0  0  0  0
  9 33  1  0  0  0  0
  9 66  1  0  0  0  0
 10 11  1  0  0  0  0
 10 12  1  0  0  0  0
 10 15  1  0  0  0  0
 11 13  1  0  0  0  0
 11 42  1  0  0  0  0
 11 43  1  0  0  0  0
 12 14  1  0  0  0  0
 12 44  1  0  0  0  0
 12 45  1  0  0  0  0
 13 46  1  0  0  0  0
 13 47  1  0  0  0  0
 14 48  1  0  0  0  0
 14 49  1  0  0  0  0
 16 50  1  0  0  0  0
 16 51  1  0  0  0  0
 17 19  1  0  0  0  0
 17 52  1  0  0  0  0
 17 53  1  0  0  0  0
 18 21  2  0  0  0  0
 18 22  1  0  0  0  0
 19 20  1  0  0  0  0
 19 55  1  0  0  0  0
 20 56  1  0  0  0  0
 20 57  1  0  0  0  0
 21 24  1  0  0  0  0
 21 58  1  0  0  0  0
 22 25  2  0  0  0  0
 22 59  1  0  0  0  0
 23 26  2  0  0  0  0
 23 27  1  0  0  0  0
 24 28  2  0  0  0  0
 24 60  1  0  0  0  0
 25 28  1  0  0  0  0
 25 61  1  0  0  0  0
 26 30  1  0  0  0  0
 27 29  2  0  0  0  0
 27 32  1  0  0  0  0
 28 62  1  0  0  0  0
 29 31  1  0  0  0  0
 30 31  2  0  0  0  0
 30 63  1  0  0  0  0
 31 64  1  0  0  0  0
 32 33  2  0  0  0  0
 32 65  1  0  0  0  0
 33 34  1  0  0  0  0
 35 36  1  0  0  0  0
 35 67  1  0  0  0  0
 35 68  1  0  0  0  0
 36 37  2  0  0  0  0
 36 38  1  0  0  0  0
 37 39  1  0  0  0  0
 37 69  1  0  0  0  0
 38 40  2  0  0  0  0
 38 70  1  0  0  0  0
 39 41  2  0  0  0  0
 39 71  1  0  0  0  0
 40 41  1  0  0  0  0
 40 72  1  0  0  0  0
 41 73  1  0  0  0  0
M  END
> <PUBCHEM_COMPOUND_CID>
15665510

> <PUBCHEM_COMPOUND_CANONICALIZED>
1

> <PUBCHEM_CACTVS_COMPLEXITY>
929

> <PUBCHEM_CACTVS_HBOND_ACCEPTOR>
7

> <PUBCHEM_CACTVS_HBOND_DONOR>
2

> <PUBCHEM_CACTVS_ROTATABLE_BOND>
7

> <PUBCHEM_CACTVS_SUBSKEYS>
AAADcfB/uAAAAAAAAAAAAAAAAAAAAWLAAAA8aMECAAAAAFiR9AAAHgAQAAAADJzhngYxzvPJlACoAyXyXASCiCAnIiAImaG+7NiPZvLE9buXOSru0xva6ae8/b/eAEABAgAKQAAAgAIEABSAAAAAAAAAAA==

> <PUBCHEM_IUPAC_OPENEYE_NAME>
benzyl 2-[(4-oxo-1-phenyl-1,3,8-triazaspiro[4.5]decan-8-yl)methyl]-3,7-dihydro-2H-[1,4]dioxino[2,3-e]indole-8-carboxylate

> <PUBCHEM_IUPAC_CAS_NAME>
2-[(4-oxo-1-phenyl-1,3,8-triazaspiro[4.5]decan-8-yl)methyl]-3,7-dihydro-2H-[1,4]dioxino[2,3-e]indole-8-carboxylic acid (phenylmethyl) ester

> <PUBCHEM_IUPAC_NAME_MARKUP>
benzyl 2-[(4-oxo-1-phenyl-1,3,8-triazaspiro[4.5]decan-8-yl)methyl]-3,7-dihydro-2<I>H</I>-[1,4]dioxino[2,3-e]indole-8-carboxylate

> <PUBCHEM_IUPAC_NAME>
benzyl 2-[(4-oxo-1-phenyl-1,3,8-triazaspiro[4.5]decan-8-yl)methyl]-3,7-dihydro-2H-[1,4]dioxino[2,3-e]indole-8-carboxylate

> <PUBCHEM_IUPAC_SYSTEMATIC_NAME>
(phenylmethyl) 2-[(4-oxidanylidene-1-phenyl-1,3,8-triazaspiro[4.5]decan-8-yl)methyl]-3,7-dihydro-2H-[1,4]dioxino[2,3-e]indole-8-carboxylate

> <PUBCHEM_IUPAC_TRADITIONAL_NAME>
2-[(4-keto-1-phenyl-1,3,8-triazaspiro[4.5]decan-8-yl)methyl]-3,7-dihydro-2H-[1,4]dioxin[2,3-e]indole-8-carboxylic acid benzyl ester

> <PUBCHEM_IUPAC_INCHI>
InChI=1S/C32H32N4O5/c37-30(40-19-22-7-3-1-4-8-22)27-17-25-26(34-27)11-12-28-29(25)41-24(20-39-28)18-35-15-13-32(14-16-35)31(38)33-21-36(32)23-9-5-2-6-10-23/h1-12,17,24,34H,13-16,18-21H2,(H,33,38)

> <PUBCHEM_IUPAC_INCHIKEY>
DQQCWQGYIUCCKR-UHFFFAOYSA-N

> <PUBCHEM_XLOGP3_AA>
4.9

> <PUBCHEM_EXACT_MASS>
552.23727013

> <PUBCHEM_MOLECULAR_FORMULA>
C32H32N4O5

> <PUBCHEM_MOLECULAR_WEIGHT>
552.6

> <PUBCHEM_OPENEYE_CAN_SMILES>
C1CN(CCC12C(=O)NCN2C3=CC=CC=C3)CC4COC5=C(O4)C6=C(C=C5)NC(=C6)C(=O)OCC7=CC=CC=C7

> <PUBCHEM_OPENEYE_ISO_SMILES>
C1CN(CCC12C(=O)NCN2C3=CC=CC=C3)CC4COC5=C(O4)C6=C(C=C5)NC(=C6)C(=O)OCC7=CC=CC=C7

> <PUBCHEM_CACTVS_TPSA>
96.1

> <PUBCHEM_MONOISOTOPIC_WEIGHT>
552.23727013

> <PUBCHEM_TOTAL_CHARGE>
0

> <PUBCHEM_HEAVY_ATOM_COUNT>
41

> <PUBCHEM_ATOM_DEF_STEREO_COUNT>
0

> <PUBCHEM_ATOM_UDEF_STEREO_COUNT>
1

> <PUBCHEM_BOND_DEF_STEREO_COUNT>
0

> <PUBCHEM_BOND_UDEF_STEREO_COUNT>
0

> <PUBCHEM_ISOTOPIC_ATOM_COUNT>
0

> <PUBCHEM_COMPONENT_COUNT>
1

> <PUBCHEM_CACTVS_TAUTO_COUNT>
-1

> <PUBCHEM_COORDINATE_TYPE>
1
5
255

> <PUBCHEM_BONDANNOTATIONS>
19  17  3
18  21  8
18  22  8
21  24  8
22  25  8
23  26  8
23  27  8
24  28  8
25  28  8
26  30  8
27  29  8
27  32  8
29  31  8
30  31  8
32  33  8
36  37  8
36  38  8
37  39  8
38  40  8
39  41  8
40  41  8
9  29  8
9  33  8

$$$$
