11551474
  -OEChem-09292322492D

 50 53  0     1  0  0  0  0  0999 V2000
    5.9418    0.9284    0.0000 N   0  0  3  0  0  0  0  0  0  0  0  0
    2.6067   -1.2387    0.0000 N   0  0  0  0  0  0  0  0  0  0  0  0
    5.9418    1.9284    0.0000 C   0  0  3  0  0  0  0  0  0  0  0  0
    5.0757    2.4284    0.0000 C   0  0  0  0  0  0  0  0  0  0  0  0
    4.2097    1.9284    0.0000 C   0  0  0  0  0  0  0  0  0  0  0  0
    5.0757    0.4284    0.0000 C   0  0  0  0  0  0  0  0  0  0  0  0
    4.2097    0.9284    0.0000 C   0  0  0  0  0  0  0  0  0  0  0  0
    4.2097   -1.0716    0.0000 C   0  0  0  0  0  0  0  0  0  0  0  0
    5.0757   -0.5716    0.0000 C   0  0  0  0  0  0  0  0  0  0  0  0
    3.3437    0.4284    0.0000 C   0  0  0  0  0  0  0  0  0  0  0  0
    3.3437   -0.5716    0.0000 C   0  0  0  0  0  0  0  0  0  0  0  0
    4.0005   -2.0434    0.0000 C   0  0  0  0  0  0  0  0  0  0  0  0
    6.8078    2.4284    0.0000 C   0  0  0  0  0  0  0  0  0  0  0  0
    3.0118   -2.1465    0.0000 C   0  0  0  0  0  0  0  0  0  0  0  0
    6.8078    0.4284    0.0000 C   0  0  0  0  0  0  0  0  0  0  0  0
    4.6213   -2.8722    0.0000 C   0  0  0  0  0  0  0  0  0  0  0  0
    6.8078    3.4284    0.0000 C   0  0  0  0  0  0  0  0  0  0  0  0
    7.6738    1.9284    0.0000 C   0  0  0  0  0  0  0  0  0  0  0  0
    2.5753   -3.0855    0.0000 C   0  0  0  0  0  0  0  0  0  0  0  0
    4.2066   -3.8210    0.0000 C   0  0  0  0  0  0  0  0  0  0  0  0
    3.1767   -3.9284    0.0000 C   0  0  0  0  0  0  0  0  0  0  0  0
    7.6738    3.9284    0.0000 C   0  0  0  0  0  0  0  0  0  0  0  0
    8.5398    2.4284    0.0000 C   0  0  0  0  0  0  0  0  0  0  0  0
    8.5398    3.4284    0.0000 C   0  0  0  0  0  0  0  0  0  0  0  0
    5.9418    2.5484    0.0000 H   0  0  0  0  0  0  0  0  0  0  0  0
    5.4743    2.9033    0.0000 H   0  0  0  0  0  0  0  0  0  0  0  0
    4.6772    2.9033    0.0000 H   0  0  0  0  0  0  0  0  0  0  0  0
    3.9977    2.5110    0.0000 H   0  0  0  0  0  0  0  0  0  0  0  0
    3.5991    1.8207    0.0000 H   0  0  0  0  0  0  0  0  0  0  0  0
    4.8637    1.0110    0.0000 H   0  0  0  0  0  0  0  0  0  0  0  0
    4.4652    0.3207    0.0000 H   0  0  0  0  0  0  0  0  0  0  0  0
    4.4218    0.3458    0.0000 H   0  0  0  0  0  0  0  0  0  0  0  0
    4.8203    1.0360    0.0000 H   0  0  0  0  0  0  0  0  0  0  0  0
    5.2878   -1.1542    0.0000 H   0  0  0  0  0  0  0  0  0  0  0  0
    5.6863   -0.4640    0.0000 H   0  0  0  0  0  0  0  0  0  0  0  0
    3.1316    1.0110    0.0000 H   0  0  0  0  0  0  0  0  0  0  0  0
    2.7331    0.3207    0.0000 H   0  0  0  0  0  0  0  0  0  0  0  0
    2.0000   -1.1109    0.0000 H   0  0  0  0  0  0  0  0  0  0  0  0
    6.4978   -0.1086    0.0000 H   0  0  0  0  0  0  0  0  0  0  0  0
    7.3447    0.1184    0.0000 H   0  0  0  0  0  0  0  0  0  0  0  0
    7.1178    0.9653    0.0000 H   0  0  0  0  0  0  0  0  0  0  0  0
    5.2371   -2.8008    0.0000 H   0  0  0  0  0  0  0  0  0  0  0  0
    6.2709    3.7384    0.0000 H   0  0  0  0  0  0  0  0  0  0  0  0
    7.6738    1.3084    0.0000 H   0  0  0  0  0  0  0  0  0  0  0  0
    1.9579   -3.1426    0.0000 H   0  0  0  0  0  0  0  0  0  0  0  0
    4.5725   -4.3215    0.0000 H   0  0  0  0  0  0  0  0  0  0  0  0
    2.9219   -4.4936    0.0000 H   0  0  0  0  0  0  0  0  0  0  0  0
    7.6738    4.5484    0.0000 H   0  0  0  0  0  0  0  0  0  0  0  0
    9.0768    2.1184    0.0000 H   0  0  0  0  0  0  0  0  0  0  0  0
    9.0768    3.7384    0.0000 H   0  0  0  0  0  0  0  0  0  0  0  0
  1  3  1  0  0  0  0
  1  6  1  0  0  0  0
  1 15  1  0  0  0  0
  2 11  1  0  0  0  0
  2 14  1  0  0  0  0
  2 38  1  0  0  0  0
  3  4  1  0  0  0  0
  3 13  1  0  0  0  0
  3 25  1  0  0  0  0
  4  5  1  0  0  0  0
  4 26  1  0  0  0  0
  4 27  1  0  0  0  0
  5  7  1  0  0  0  0
  5 28  1  0  0  0  0
  5 29  1  0  0  0  0
  6  9  1  0  0  0  0
  6 30  1  0  0  0  0
  6 31  1  0  0  0  0
  7 10  1  0  0  0  0
  7 32  1  0  0  0  0
  7 33  1  0  0  0  0
  8  9  1  0  0  0  0
  8 11  2  0  0  0  0
  8 12  1  0  0  0  0
  9 34  1  0  0  0  0
  9 35  1  0  0  0  0
 10 11  1  0  0  0  0
 10 36  1  0  0  0  0
 10 37  1  0  0  0  0
 12 14  1  0  0  0  0
 12 16  2  0  0  0  0
 13 17  2  0  0  0  0
 13 18  1  0  0  0  0
 14 19  2  0  0  0  0
 15 39  1  0  0  0  0
 15 40  1  0  0  0  0
 15 41  1  0  0  0  0
 16 20  1  0  0  0  0
 16 42  1  0  0  0  0
 17 22  1  0  0  0  0
 17 43  1  0  0  0  0
 18 23  2  0  0  0  0
 18 44  1  0  0  0  0
 19 21  1  0  0  0  0
 19 45  1  0  0  0  0
 20 21  2  0  0  0  0
 20 46  1  0  0  0  0
 21 47  1  0  0  0  0
 22 24  2  0  0  0  0
 22 48  1  0  0  0  0
 23 24  1  0  0  0  0
 23 49  1  0  0  0  0
 24 50  1  0  0  0  0
M  END
> <PUBCHEM_COMPOUND_CID>
11551474

> <PUBCHEM_COMPOUND_CANONICALIZED>
1

> <PUBCHEM_CACTVS_COMPLEXITY>
389

> <PUBCHEM_CACTVS_HBOND_ACCEPTOR>
1

> <PUBCHEM_CACTVS_HBOND_DONOR>
1

> <PUBCHEM_CACTVS_ROTATABLE_BOND>
1

> <PUBCHEM_CACTVS_SUBSKEYS>
AAADceB7AAAAAAAAAAAAAAAAAAAAAWAAAAAwYAAAAAAAAFix9AAAHAAQAAAADCjBHgQywPPJkACgAyRiRACCgCAhAiAImSA4ZJgIIOLAkZGEIAhgkADIyAcQgMAOgAAAAAACAAAAAAAAAAQAAAAAAAAAAA==

> <PUBCHEM_IUPAC_OPENEYE_NAME>
7-methyl-6-phenyl-7,17-diazatricyclo[8.7.0.011,16]heptadeca-1(10),11,13,15-tetraene

> <PUBCHEM_IUPAC_CAS_NAME>
7-methyl-6-phenyl-7,17-diazatricyclo[8.7.0.011,16]heptadeca-1(10),11,13,15-tetraene

> <PUBCHEM_IUPAC_NAME_MARKUP>
7-methyl-6-phenyl-7,17-diazatricyclo[8.7.0.0<SUP>11,16</SUP>]heptadeca-1(10),11,13,15-tetraene

> <PUBCHEM_IUPAC_NAME>
7-methyl-6-phenyl-7,17-diazatricyclo[8.7.0.011,16]heptadeca-1(10),11,13,15-tetraene

> <PUBCHEM_IUPAC_SYSTEMATIC_NAME>
7-methyl-6-phenyl-7,17-diazatricyclo[8.7.0.011,16]heptadeca-1(10),11,13,15-tetraene

> <PUBCHEM_IUPAC_TRADITIONAL_NAME>
7-methyl-6-phenyl-7,17-diazatricyclo[8.7.0.011,16]heptadeca-1(10),11,13,15-tetraene

> <PUBCHEM_IUPAC_INCHI>
InChI=1S/C22H26N2/c1-24-16-15-19-18-11-5-6-12-20(18)23-21(19)13-7-8-14-22(24)17-9-3-2-4-10-17/h2-6,9-12,22-23H,7-8,13-16H2,1H3

> <PUBCHEM_IUPAC_INCHIKEY>
LSIBHGOFKYGMOL-UHFFFAOYSA-N

> <PUBCHEM_XLOGP3_AA>
5

> <PUBCHEM_EXACT_MASS>
318.209598838

> <PUBCHEM_MOLECULAR_FORMULA>
C22H26N2

> <PUBCHEM_MOLECULAR_WEIGHT>
318.5

> <PUBCHEM_OPENEYE_CAN_SMILES>
CN1CCC2=C(CCCCC1C3=CC=CC=C3)NC4=CC=CC=C24

> <PUBCHEM_OPENEYE_ISO_SMILES>
CN1CCC2=C(CCCCC1C3=CC=CC=C3)NC4=CC=CC=C24

> <PUBCHEM_CACTVS_TPSA>
19

> <PUBCHEM_MONOISOTOPIC_WEIGHT>
318.209598838

> <PUBCHEM_TOTAL_CHARGE>
0

> <PUBCHEM_HEAVY_ATOM_COUNT>
24

> <PUBCHEM_ATOM_DEF_STEREO_COUNT>
0

> <PUBCHEM_ATOM_UDEF_STEREO_COUNT>
1

> <PUBCHEM_BOND_DEF_STEREO_COUNT>
0

> <PUBCHEM_BOND_UDEF_STEREO_COUNT>
0

> <PUBCHEM_ISOTOPIC_ATOM_COUNT>
0

> <PUBCHEM_COMPONENT_COUNT>
1

> <PUBCHEM_CACTVS_TAUTO_COUNT>
-1

> <PUBCHEM_COORDINATE_TYPE>
1
5
255

> <PUBCHEM_BONDANNOTATIONS>
12  14  8
12  16  8
13  17  8
13  18  8
14  19  8
16  20  8
17  22  8
18  23  8
19  21  8
2  11  8
2  14  8
20  21  8
22  24  8
23  24  8
3  13  3
8  11  8
8  12  8

$$$$
