24873453
  -OEChem-09292322252D

 74 78  0     1  0  0  0  0  0999 V2000
   12.3923    0.2327    0.0000 O   0  0  0  0  0  0  0  0  0  0  0  0
    7.1962    1.2327    0.0000 N   0  0  0  0  0  0  0  0  0  0  0  0
    4.5981   -0.2673    0.0000 N   0  0  3  0  0  0  0  0  0  0  0  0
   11.5263    1.7327    0.0000 N   0  0  0  0  0  0  0  0  0  0  0  0
    5.4641    0.2327    0.0000 C   0  0  0  0  0  0  0  0  0  0  0  0
    5.4641    1.2327    0.0000 C   0  0  0  0  0  0  0  0  0  0  0  0
    6.3301   -0.2673    0.0000 C   0  0  0  0  0  0  0  0  0  0  0  0
    6.3301    1.7327    0.0000 C   0  0  0  0  0  0  0  0  0  0  0  0
    7.1962    0.2327    0.0000 C   0  0  0  0  0  0  0  0  0  0  0  0
    8.0622    1.7327    0.0000 C   0  0  0  0  0  0  0  0  0  0  0  0
    8.9282    1.2327    0.0000 C   0  0  0  0  0  0  0  0  0  0  0  0
    4.5981   -1.2673    0.0000 C   0  0  0  0  0  0  0  0  0  0  0  0
    3.7320    0.2327    0.0000 C   0  0  0  0  0  0  0  0  0  0  0  0
    9.7942    1.7327    0.0000 C   0  0  0  0  0  0  0  0  0  0  0  0
    3.7320   -1.7673    0.0000 C   0  0  0  0  0  0  0  0  0  0  0  0
    2.8660   -0.2673    0.0000 C   0  0  0  0  0  0  0  0  0  0  0  0
    3.7320    1.2327    0.0000 C   0  0  0  0  0  0  0  0  0  0  0  0
   10.6603    1.2327    0.0000 C   0  0  0  0  0  0  0  0  0  0  0  0
    2.8660   -1.2673    0.0000 C   0  0  0  0  0  0  0  0  0  0  0  0
    3.7320   -2.7673    0.0000 C   0  0  0  0  0  0  0  0  0  0  0  0
    2.0000    0.2327    0.0000 C   0  0  0  0  0  0  0  0  0  0  0  0
    2.8660    1.7327    0.0000 C   0  0  0  0  0  0  0  0  0  0  0  0
    2.0000    1.2327    0.0000 C   0  0  0  0  0  0  0  0  0  0  0  0
    2.0000   -1.7673    0.0000 C   0  0  0  0  0  0  0  0  0  0  0  0
    2.8660   -3.2673    0.0000 C   0  0  0  0  0  0  0  0  0  0  0  0
    2.0000   -2.7673    0.0000 C   0  0  0  0  0  0  0  0  0  0  0  0
   12.3923    1.2327    0.0000 C   0  0  0  0  0  0  0  0  0  0  0  0
   13.2583    1.7327    0.0000 C   0  0  0  0  0  0  0  0  0  0  0  0
   14.1244    1.2327    0.0000 C   0  0  0  0  0  0  0  0  0  0  0  0
   13.2583    2.7327    0.0000 C   0  0  0  0  0  0  0  0  0  0  0  0
   14.9904    1.7327    0.0000 C   0  0  0  0  0  0  0  0  0  0  0  0
   14.9904    2.7327    0.0000 C   0  0  0  0  0  0  0  0  0  0  0  0
   14.1244    3.2327    0.0000 C   0  0  0  0  0  0  0  0  0  0  0  0
   15.8843    1.1980    0.0000 C   0  0  0  0  0  0  0  0  0  0  0  0
   15.8843    3.2673    0.0000 C   0  0  0  0  0  0  0  0  0  0  0  0
   16.7904    1.7118    0.0000 C   0  0  0  0  0  0  0  0  0  0  0  0
   16.7904    2.7535    0.0000 C   0  0  0  0  0  0  0  0  0  0  0  0
    5.4641   -0.3873    0.0000 H   0  0  0  0  0  0  0  0  0  0  0  0
    5.2520    1.8153    0.0000 H   0  0  0  0  0  0  0  0  0  0  0  0
    4.8535    1.1250    0.0000 H   0  0  0  0  0  0  0  0  0  0  0  0
    5.9316   -0.7423    0.0000 H   0  0  0  0  0  0  0  0  0  0  0  0
    6.7287   -0.7423    0.0000 H   0  0  0  0  0  0  0  0  0  0  0  0
    6.7287    2.2076    0.0000 H   0  0  0  0  0  0  0  0  0  0  0  0
    5.9316    2.2076    0.0000 H   0  0  0  0  0  0  0  0  0  0  0  0
    7.4082   -0.3499    0.0000 H   0  0  0  0  0  0  0  0  0  0  0  0
    7.8067    0.3403    0.0000 H   0  0  0  0  0  0  0  0  0  0  0  0
    8.4607    2.2076    0.0000 H   0  0  0  0  0  0  0  0  0  0  0  0
    7.6636    2.2076    0.0000 H   0  0  0  0  0  0  0  0  0  0  0  0
    8.5297    0.7577    0.0000 H   0  0  0  0  0  0  0  0  0  0  0  0
    9.3267    0.7577    0.0000 H   0  0  0  0  0  0  0  0  0  0  0  0
    4.8101   -1.8499    0.0000 H   0  0  0  0  0  0  0  0  0  0  0  0
    5.2087   -1.1597    0.0000 H   0  0  0  0  0  0  0  0  0  0  0  0
   10.1928    2.2076    0.0000 H   0  0  0  0  0  0  0  0  0  0  0  0
    9.3957    2.2076    0.0000 H   0  0  0  0  0  0  0  0  0  0  0  0
    2.8660   -0.8873    0.0000 H   0  0  0  0  0  0  0  0  0  0  0  0
    4.2690    1.5427    0.0000 H   0  0  0  0  0  0  0  0  0  0  0  0
   10.2617    0.7577    0.0000 H   0  0  0  0  0  0  0  0  0  0  0  0
   11.0588    0.7577    0.0000 H   0  0  0  0  0  0  0  0  0  0  0  0
    2.8660   -0.6473    0.0000 H   0  0  0  0  0  0  0  0  0  0  0  0
    4.2690   -3.0773    0.0000 H   0  0  0  0  0  0  0  0  0  0  0  0
    1.4631   -0.0773    0.0000 H   0  0  0  0  0  0  0  0  0  0  0  0
    2.8660    2.3527    0.0000 H   0  0  0  0  0  0  0  0  0  0  0  0
   11.5263    2.3527    0.0000 H   0  0  0  0  0  0  0  0  0  0  0  0
    1.4631    1.5427    0.0000 H   0  0  0  0  0  0  0  0  0  0  0  0
    1.4631   -1.4573    0.0000 H   0  0  0  0  0  0  0  0  0  0  0  0
    2.8660   -3.8873    0.0000 H   0  0  0  0  0  0  0  0  0  0  0  0
    1.4631   -3.0773    0.0000 H   0  0  0  0  0  0  0  0  0  0  0  0
   14.1244    0.6127    0.0000 H   0  0  0  0  0  0  0  0  0  0  0  0
   12.7214    3.0427    0.0000 H   0  0  0  0  0  0  0  0  0  0  0  0
   14.1244    3.8527    0.0000 H   0  0  0  0  0  0  0  0  0  0  0  0
   15.8772    0.5780    0.0000 H   0  0  0  0  0  0  0  0  0  0  0  0
   15.8772    3.8873    0.0000 H   0  0  0  0  0  0  0  0  0  0  0  0
   17.3261    1.3998    0.0000 H   0  0  0  0  0  0  0  0  0  0  0  0
   17.3261    3.0656    0.0000 H   0  0  0  0  0  0  0  0  0  0  0  0
  1 27  2  0  0  0  0
  2  8  1  0  0  0  0
  2  9  1  0  0  0  0
  2 10  1  0  0  0  0
  3  5  1  0  0  0  0
  3 12  1  0  0  0  0
  3 13  1  0  0  0  0
  4 18  1  0  0  0  0
  4 27  1  0  0  0  0
  4 63  1  0  0  0  0
  5  6  1  0  0  0  0
  5  7  1  0  0  0  0
  5 38  1  0  0  0  0
  6  8  1  0  0  0  0
  6 39  1  0  0  0  0
  6 40  1  0  0  0  0
  7  9  1  0  0  0  0
  7 41  1  0  0  0  0
  7 42  1  0  0  0  0
  8 43  1  0  0  0  0
  8 44  1  0  0  0  0
  9 45  1  0  0  0  0
  9 46  1  0  0  0  0
 10 11  1  0  0  0  0
 10 47  1  0  0  0  0
 10 48  1  0  0  0  0
 11 14  1  0  0  0  0
 11 49  1  0  0  0  0
 11 50  1  0  0  0  0
 12 15  1  0  0  0  0
 12 51  1  0  0  0  0
 12 52  1  0  0  0  0
 13 16  2  0  0  0  0
 13 17  1  0  0  0  0
 14 18  1  0  0  0  0
 14 53  1  0  0  0  0
 14 54  1  0  0  0  0
 15 19  2  0  0  0  0
 15 20  1  0  0  0  0
 16 21  1  0  0  0  0
 16 55  1  0  0  0  0
 17 22  2  0  0  0  0
 17 56  1  0  0  0  0
 18 57  1  0  0  0  0
 18 58  1  0  0  0  0
 19 24  1  0  0  0  0
 19 59  1  0  0  0  0
 20 25  2  0  0  0  0
 20 60  1  0  0  0  0
 21 23  2  0  0  0  0
 21 61  1  0  0  0  0
 22 23  1  0  0  0  0
 22 62  1  0  0  0  0
 23 64  1  0  0  0  0
 24 26  2  0  0  0  0
 24 65  1  0  0  0  0
 25 26  1  0  0  0  0
 25 66  1  0  0  0  0
 26 67  1  0  0  0  0
 27 28  1  0  0  0  0
 28 29  2  0  0  0  0
 28 30  1  0  0  0  0
 29 31  1  0  0  0  0
 29 68  1  0  0  0  0
 30 33  2  0  0  0  0
 30 69  1  0  0  0  0
 31 32  1  0  0  0  0
 31 34  2  0  0  0  0
 32 33  1  0  0  0  0
 32 35  2  0  0  0  0
 33 70  1  0  0  0  0
 34 36  1  0  0  0  0
 34 71  1  0  0  0  0
 35 37  1  0  0  0  0
 35 72  1  0  0  0  0
 36 37  2  0  0  0  0
 36 73  1  0  0  0  0
 37 74  1  0  0  0  0
M  END
> <PUBCHEM_COMPOUND_CID>
24873453

> <PUBCHEM_COMPOUND_CANONICALIZED>
1

> <PUBCHEM_CACTVS_COMPLEXITY>
663

> <PUBCHEM_CACTVS_HBOND_ACCEPTOR>
3

> <PUBCHEM_CACTVS_HBOND_DONOR>
1

> <PUBCHEM_CACTVS_ROTATABLE_BOND>
10

> <PUBCHEM_CACTVS_SUBSKEYS>
AAADcfB/IAAAAAAAAAAAAAAAAAAAAAAAAAA8YMGCAAAAAADBVAAAHgAQAAAADCjBmAQwwMPAAACIAiVSUACCAAAlAgAIiIEIZMgIIDLA1ZGEIQhglgDIyYcYiMCOwAACAAAQAACAAAQAACAAAAAAAAAAAA==

> <PUBCHEM_IUPAC_OPENEYE_NAME>
N-[4-[4-(N-benzylanilino)-1-piperidyl]butyl]naphthalene-2-carboxamide

> <PUBCHEM_IUPAC_CAS_NAME>
N-[4-[4-(N-(phenylmethyl)anilino)-1-piperidinyl]butyl]-2-naphthalenecarboxamide

> <PUBCHEM_IUPAC_NAME_MARKUP>
<I>N</I>-[4-[4-(<I>N</I>-benzylanilino)piperidin-1-yl]butyl]naphthalene-2-carboxamide

> <PUBCHEM_IUPAC_NAME>
N-[4-[4-(N-benzylanilino)piperidin-1-yl]butyl]naphthalene-2-carboxamide

> <PUBCHEM_IUPAC_SYSTEMATIC_NAME>
N-[4-[4-[phenyl-(phenylmethyl)amino]piperidin-1-yl]butyl]naphthalene-2-carboxamide

> <PUBCHEM_IUPAC_TRADITIONAL_NAME>
N-[4-[4-(N-benzylanilino)piperidino]butyl]-2-naphthamide

> <PUBCHEM_IUPAC_INCHI>
InChI=1S/C33H37N3O/c37-33(30-18-17-28-13-7-8-14-29(28)25-30)34-21-9-10-22-35-23-19-32(20-24-35)36(31-15-5-2-6-16-31)26-27-11-3-1-4-12-27/h1-8,11-18,25,32H,9-10,19-24,26H2,(H,34,37)

> <PUBCHEM_IUPAC_INCHIKEY>
XCARDCCUPWWHMP-UHFFFAOYSA-N

> <PUBCHEM_XLOGP3_AA>
7.1

> <PUBCHEM_EXACT_MASS>
491.293662812

> <PUBCHEM_MOLECULAR_FORMULA>
C33H37N3O

> <PUBCHEM_MOLECULAR_WEIGHT>
491.7

> <PUBCHEM_OPENEYE_CAN_SMILES>
C1CN(CCC1N(CC2=CC=CC=C2)C3=CC=CC=C3)CCCCNC(=O)C4=CC5=CC=CC=C5C=C4

> <PUBCHEM_OPENEYE_ISO_SMILES>
C1CN(CCC1N(CC2=CC=CC=C2)C3=CC=CC=C3)CCCCNC(=O)C4=CC5=CC=CC=C5C=C4

> <PUBCHEM_CACTVS_TPSA>
35.6

> <PUBCHEM_MONOISOTOPIC_WEIGHT>
491.293662812

> <PUBCHEM_TOTAL_CHARGE>
0

> <PUBCHEM_HEAVY_ATOM_COUNT>
37

> <PUBCHEM_ATOM_DEF_STEREO_COUNT>
0

> <PUBCHEM_ATOM_UDEF_STEREO_COUNT>
0

> <PUBCHEM_BOND_DEF_STEREO_COUNT>
0

> <PUBCHEM_BOND_UDEF_STEREO_COUNT>
0

> <PUBCHEM_ISOTOPIC_ATOM_COUNT>
0

> <PUBCHEM_COMPONENT_COUNT>
1

> <PUBCHEM_CACTVS_TAUTO_COUNT>
-1

> <PUBCHEM_COORDINATE_TYPE>
1
5
255

> <PUBCHEM_BONDANNOTATIONS>
13  16  8
13  17  8
15  19  8
15  20  8
16  21  8
17  22  8
19  24  8
20  25  8
21  23  8
22  23  8
24  26  8
25  26  8
28  29  8
28  30  8
29  31  8
30  33  8
31  32  8
31  34  8
32  33  8
32  35  8
34  36  8
35  37  8
36  37  8

$$$$
