44269820
  -OEChem-09292322152D

 45 48  0     0  0  0  0  0  0999 V2000
    4.6660    1.2500    0.0000 Cl  0  0  0  0  0  0  0  0  0  0  0  0
    6.3981    0.2500    0.0000 S   0  0  0  0  0  0  0  0  0  0  0  0
    6.3981   -1.7500    0.0000 N   0  0  0  0  0  0  0  0  0  0  0  0
    8.1301   -2.7500    0.0000 N   0  0  0  0  0  0  0  0  0  0  0  0
    4.6660   -1.7500    0.0000 N   0  0  0  0  0  0  0  0  0  0  0  0
    6.3981   -2.7500    0.0000 C   0  0  0  0  0  0  0  0  0  0  0  0
    7.2641   -1.2500    0.0000 C   0  0  0  0  0  0  0  0  0  0  0  0
    7.2641   -3.2500    0.0000 C   0  0  0  0  0  0  0  0  0  0  0  0
    8.1301   -1.7500    0.0000 C   0  0  0  0  0  0  0  0  0  0  0  0
    5.5321   -1.2500    0.0000 C   0  0  0  0  0  0  0  0  0  0  0  0
    8.9962   -3.2500    0.0000 C   0  0  0  0  0  0  0  0  0  0  0  0
    5.5321   -0.2500    0.0000 C   0  0  0  0  0  0  0  0  0  0  0  0
    3.8000   -1.2500    0.0000 C   0  0  0  0  0  0  0  0  0  0  0  0
    4.6660    0.2500    0.0000 C   0  0  0  0  0  0  0  0  0  0  0  0
    3.8000   -0.2500    0.0000 C   0  0  0  0  0  0  0  0  0  0  0  0
    2.9061   -1.7847    0.0000 C   0  0  0  0  0  0  0  0  0  0  0  0
    2.9061    0.2847    0.0000 C   0  0  0  0  0  0  0  0  0  0  0  0
    2.0000   -1.2708    0.0000 C   0  0  0  0  0  0  0  0  0  0  0  0
    2.0000   -0.2292    0.0000 C   0  0  0  0  0  0  0  0  0  0  0  0
    6.3981    1.2500    0.0000 C   0  0  0  0  0  0  0  0  0  0  0  0
    5.5321    1.7500    0.0000 C   0  0  0  0  0  0  0  0  0  0  0  0
    7.2641    1.7500    0.0000 C   0  0  0  0  0  0  0  0  0  0  0  0
    5.5321    2.7500    0.0000 C   0  0  0  0  0  0  0  0  0  0  0  0
    7.2641    2.7500    0.0000 C   0  0  0  0  0  0  0  0  0  0  0  0
    6.3981    3.2500    0.0000 C   0  0  0  0  0  0  0  0  0  0  0  0
    5.7875   -2.6423    0.0000 H   0  0  0  0  0  0  0  0  0  0  0  0
    6.1860   -3.3326    0.0000 H   0  0  0  0  0  0  0  0  0  0  0  0
    7.6626   -0.7751    0.0000 H   0  0  0  0  0  0  0  0  0  0  0  0
    6.8656   -0.7751    0.0000 H   0  0  0  0  0  0  0  0  0  0  0  0
    6.8656   -3.7250    0.0000 H   0  0  0  0  0  0  0  0  0  0  0  0
    7.6626   -3.7250    0.0000 H   0  0  0  0  0  0  0  0  0  0  0  0
    8.7407   -1.8577    0.0000 H   0  0  0  0  0  0  0  0  0  0  0  0
    8.3422   -1.1674    0.0000 H   0  0  0  0  0  0  0  0  0  0  0  0
    8.6862   -3.7869    0.0000 H   0  0  0  0  0  0  0  0  0  0  0  0
    9.5331   -3.5600    0.0000 H   0  0  0  0  0  0  0  0  0  0  0  0
    9.3062   -2.7131    0.0000 H   0  0  0  0  0  0  0  0  0  0  0  0
    2.9132   -2.4046    0.0000 H   0  0  0  0  0  0  0  0  0  0  0  0
    2.9132    0.9046    0.0000 H   0  0  0  0  0  0  0  0  0  0  0  0
    1.4643   -1.5829    0.0000 H   0  0  0  0  0  0  0  0  0  0  0  0
    1.4643    0.0829    0.0000 H   0  0  0  0  0  0  0  0  0  0  0  0
    4.9951    1.4400    0.0000 H   0  0  0  0  0  0  0  0  0  0  0  0
    7.8010    1.4400    0.0000 H   0  0  0  0  0  0  0  0  0  0  0  0
    4.9951    3.0600    0.0000 H   0  0  0  0  0  0  0  0  0  0  0  0
    7.8010    3.0600    0.0000 H   0  0  0  0  0  0  0  0  0  0  0  0
    6.3981    3.8700    0.0000 H   0  0  0  0  0  0  0  0  0  0  0  0
  1 14  1  0  0  0  0
  2 12  1  0  0  0  0
  2 20  1  0  0  0  0
  3  6  1  0  0  0  0
  3  7  1  0  0  0  0
  3 10  1  0  0  0  0
  4  8  1  0  0  0  0
  4  9  1  0  0  0  0
  4 11  1  0  0  0  0
  5 10  2  0  0  0  0
  5 13  1  0  0  0  0
  6  8  1  0  0  0  0
  6 26  1  0  0  0  0
  6 27  1  0  0  0  0
  7  9  1  0  0  0  0
  7 28  1  0  0  0  0
  7 29  1  0  0  0  0
  8 30  1  0  0  0  0
  8 31  1  0  0  0  0
  9 32  1  0  0  0  0
  9 33  1  0  0  0  0
 10 12  1  0  0  0  0
 11 34  1  0  0  0  0
 11 35  1  0  0  0  0
 11 36  1  0  0  0  0
 12 14  2  0  0  0  0
 13 15  1  0  0  0  0
 13 16  2  0  0  0  0
 14 15  1  0  0  0  0
 15 17  2  0  0  0  0
 16 18  1  0  0  0  0
 16 37  1  0  0  0  0
 17 19  1  0  0  0  0
 17 38  1  0  0  0  0
 18 19  2  0  0  0  0
 18 39  1  0  0  0  0
 19 40  1  0  0  0  0
 20 21  2  0  0  0  0
 20 22  1  0  0  0  0
 21 23  1  0  0  0  0
 21 41  1  0  0  0  0
 22 24  2  0  0  0  0
 22 42  1  0  0  0  0
 23 25  2  0  0  0  0
 23 43  1  0  0  0  0
 24 25  1  0  0  0  0
 24 44  1  0  0  0  0
 25 45  1  0  0  0  0
M  END
> <PUBCHEM_COMPOUND_CID>
44269820

> <PUBCHEM_COMPOUND_CANONICALIZED>
1

> <PUBCHEM_CACTVS_COMPLEXITY>
423

> <PUBCHEM_CACTVS_HBOND_ACCEPTOR>
4

> <PUBCHEM_CACTVS_HBOND_DONOR>
0

> <PUBCHEM_CACTVS_ROTATABLE_BOND>
3

> <PUBCHEM_CACTVS_SUBSKEYS>
AAADceB7AABEAAAAAAAAAAAAAAAAAAAAAAA8eIEAAAAAAACx9AAAHAYAAAAADArBXiQz8fMIEAigAyZiZACCgCkhDjAJmDw4ZpiIYOLhm5GUIAhogALoyCcQgIAOAAAAAAACAAAAAAAAAAQAAAAAAAAAAA==

> <PUBCHEM_IUPAC_OPENEYE_NAME>
4-chloro-2-(4-methylpiperazin-1-yl)-3-phenylsulfanyl-quinoline

> <PUBCHEM_IUPAC_CAS_NAME>
4-chloro-2-(4-methyl-1-piperazinyl)-3-(phenylthio)quinoline

> <PUBCHEM_IUPAC_NAME_MARKUP>
4-chloro-2-(4-methylpiperazin-1-yl)-3-phenylsulfanylquinoline

> <PUBCHEM_IUPAC_NAME>
4-chloro-2-(4-methylpiperazin-1-yl)-3-phenylsulfanylquinoline

> <PUBCHEM_IUPAC_SYSTEMATIC_NAME>
4-chloranyl-2-(4-methylpiperazin-1-yl)-3-phenylsulfanyl-quinoline

> <PUBCHEM_IUPAC_TRADITIONAL_NAME>
4-chloro-2-(4-methylpiperazino)-3-(phenylthio)quinoline

> <PUBCHEM_IUPAC_INCHI>
InChI=1S/C20H20ClN3S/c1-23-11-13-24(14-12-23)20-19(25-15-7-3-2-4-8-15)18(21)16-9-5-6-10-17(16)22-20/h2-10H,11-14H2,1H3

> <PUBCHEM_IUPAC_INCHIKEY>
IKVYRMAXMYKCCI-UHFFFAOYSA-N

> <PUBCHEM_XLOGP3_AA>
5.2

> <PUBCHEM_EXACT_MASS>
369.1066465

> <PUBCHEM_MOLECULAR_FORMULA>
C20H20ClN3S

> <PUBCHEM_MOLECULAR_WEIGHT>
369.9

> <PUBCHEM_OPENEYE_CAN_SMILES>
CN1CCN(CC1)C2=NC3=CC=CC=C3C(=C2SC4=CC=CC=C4)Cl

> <PUBCHEM_OPENEYE_ISO_SMILES>
CN1CCN(CC1)C2=NC3=CC=CC=C3C(=C2SC4=CC=CC=C4)Cl

> <PUBCHEM_CACTVS_TPSA>
44.7

> <PUBCHEM_MONOISOTOPIC_WEIGHT>
369.1066465

> <PUBCHEM_TOTAL_CHARGE>
0

> <PUBCHEM_HEAVY_ATOM_COUNT>
25

> <PUBCHEM_ATOM_DEF_STEREO_COUNT>
0

> <PUBCHEM_ATOM_UDEF_STEREO_COUNT>
0

> <PUBCHEM_BOND_DEF_STEREO_COUNT>
0

> <PUBCHEM_BOND_UDEF_STEREO_COUNT>
0

> <PUBCHEM_ISOTOPIC_ATOM_COUNT>
0

> <PUBCHEM_COMPONENT_COUNT>
1

> <PUBCHEM_CACTVS_TAUTO_COUNT>
-1

> <PUBCHEM_COORDINATE_TYPE>
1
5
255

> <PUBCHEM_BONDANNOTATIONS>
10  12  8
12  14  8
13  15  8
13  16  8
14  15  8
15  17  8
16  18  8
17  19  8
18  19  8
20  21  8
20  22  8
21  23  8
22  24  8
23  25  8
24  25  8
5  10  8
5  13  8

$$$$
