56833378
  -OEChem-09292321592D

174181  0     1  0  0  0  0  0999 V2000
   31.0755   -5.0096    0.0000 O   0  0  0  0  0  0  0  0  0  0  0  0
   11.2619    7.6040    0.0000 O   0  0  0  0  0  0  0  0  0  0  0  0
   26.8539   -6.7923    0.0000 O   0  0  0  0  0  0  0  0  0  0  0  0
   12.7619    3.2738    0.0000 O   0  0  0  0  0  0  0  0  0  0  0  0
   28.1921   -8.2785    0.0000 O   0  0  0  0  0  0  0  0  0  0  0  0
   10.7619    3.2738    0.0000 O   0  0  0  0  0  0  0  0  0  0  0  0
   35.7083   -7.5663    0.0000 N   0  0  3  0  0  0  0  0  0  0  0  0
    6.2619    9.3360    0.0000 N   0  0  3  0  0  0  0  0  0  0  0  0
   31.4356   -6.7038    0.0000 N   0  0  0  0  0  0  0  0  0  0  0  0
    9.7619    6.7379    0.0000 N   0  0  0  0  0  0  0  0  0  0  0  0
   21.9502   -5.5527    0.0000 N   0  0  0  0  0  0  0  0  0  0  0  0
   16.9643    0.4591    0.0000 N   0  0  0  0  0  0  0  0  0  0  0  0
   22.1581   -6.5308    0.0000 N   0  0  0  0  0  0  0  0  0  0  0  0
   16.0983   -0.0409    0.0000 N   0  0  0  0  0  0  0  0  0  0  0  0
   23.1526   -6.6353    0.0000 N   0  0  0  0  0  0  0  0  0  0  0  0
   15.3551    0.6282    0.0000 N   0  0  0  0  0  0  0  0  0  0  0  0
   36.3774   -8.3094    0.0000 C   0  0  0  0  0  0  0  0  0  0  0  0
    5.2619    9.3360    0.0000 C   0  0  0  0  0  0  0  0  0  0  0  0
   37.3660   -8.2047    0.0000 C   0  0  0  0  0  0  0  0  0  0  0  0
   36.1699   -9.2816    0.0000 C   0  0  0  0  0  0  0  0  0  0  0  0
    4.6783    8.5313    0.0000 C   0  0  0  0  0  0  0  0  0  0  0  0
    4.6783   10.1407    0.0000 C   0  0  0  0  0  0  0  0  0  0  0  0
   37.7727   -9.1118    0.0000 C   0  0  0  0  0  0  0  0  0  0  0  0
   37.0295   -9.7809    0.0000 C   0  0  0  0  0  0  0  0  0  0  0  0
    3.7320    8.8360    0.0000 C   0  0  0  0  0  0  0  0  0  0  0  0
    3.7320    9.8360    0.0000 C   0  0  0  0  0  0  0  0  0  0  0  0
   34.7302   -7.7742    0.0000 C   0  0  0  0  0  0  0  0  0  0  0  0
    6.7619    8.4700    0.0000 C   0  0  0  0  0  0  0  0  0  0  0  0
   36.0173   -6.6152    0.0000 C   0  0  0  0  0  0  0  0  0  0  0  0
    6.7619   10.2020    0.0000 C   0  0  0  0  0  0  0  0  0  0  0  0
   34.0610   -7.0311    0.0000 C   0  0  0  0  0  0  0  0  0  0  0  0
    7.7619    8.4700    0.0000 C   0  0  0  0  0  0  0  0  0  0  0  0
   38.7237   -9.4208    0.0000 C   0  0  0  0  0  0  0  0  0  0  0  0
   37.2374  -10.7591    0.0000 C   0  0  0  0  0  0  0  0  0  0  0  0
    2.8660    8.3360    0.0000 C   0  0  0  0  0  0  0  0  0  0  0  0
    2.8660   10.3360    0.0000 C   0  0  0  0  0  0  0  0  0  0  0  0
   35.3482   -5.8721    0.0000 C   0  0  0  0  0  0  0  0  0  0  0  0
    7.7619   10.2020    0.0000 C   0  0  0  0  0  0  0  0  0  0  0  0
   33.0829   -7.2390    0.0000 C   0  0  0  0  0  0  0  0  0  0  0  0
    8.2619    7.6040    0.0000 C   0  0  0  0  0  0  0  0  0  0  0  0
   38.9316  -10.3989    0.0000 C   0  0  0  0  0  0  0  0  0  0  0  0
   38.1885  -11.0681    0.0000 C   0  0  0  0  0  0  0  0  0  0  0  0
    2.0000    8.8360    0.0000 C   0  0  0  0  0  0  0  0  0  0  0  0
    2.0000    9.8360    0.0000 C   0  0  0  0  0  0  0  0  0  0  0  0
   35.6572   -4.9210    0.0000 C   0  0  0  0  0  0  0  0  0  0  0  0
    8.2619   11.0681    0.0000 C   0  0  0  0  0  0  0  0  0  0  0  0
   32.4137   -6.4958    0.0000 C   0  0  0  0  0  0  0  0  0  0  0  0
    9.2619    7.6040    0.0000 C   0  0  0  0  0  0  0  0  0  0  0  0
   30.7665   -5.9606    0.0000 C   0  0  0  0  0  0  0  0  0  0  0  0
   10.7619    6.7379    0.0000 C   0  0  0  0  0  0  0  0  0  0  0  0
   29.7883   -6.1685    0.0000 C   0  0  0  0  0  0  0  0  0  0  0  0
   11.2619    5.8719    0.0000 C   0  0  0  0  0  0  0  0  0  0  0  0
   29.4793   -7.1196    0.0000 C   0  0  0  0  0  0  0  0  0  0  0  0
   10.7619    5.0059    0.0000 C   0  0  0  0  0  0  0  0  0  0  0  0
   29.1192   -5.4254    0.0000 C   0  0  0  0  0  0  0  0  0  0  0  0
   12.2619    5.8719    0.0000 C   0  0  0  0  0  0  0  0  0  0  0  0
   28.5012   -7.3275    0.0000 C   0  0  0  0  0  0  0  0  0  0  0  0
   11.2619    4.1399    0.0000 C   0  0  0  0  0  0  0  0  0  0  0  0
   28.1410   -5.6333    0.0000 C   0  0  0  0  0  0  0  0  0  0  0  0
   12.7619    5.0059    0.0000 C   0  0  0  0  0  0  0  0  0  0  0  0
   19.9140   -2.7501    0.0000 C   0  0  0  0  0  0  0  0  0  0  0  0
   19.0005   -2.3434    0.0000 C   0  0  0  0  0  0  0  0  0  0  0  0
   20.0185   -3.7447    0.0000 C   0  0  0  0  0  0  0  0  0  0  0  0
   18.8959   -1.3489    0.0000 C   0  0  0  0  0  0  0  0  0  0  0  0
   27.8320   -6.5843    0.0000 C   0  0  0  0  0  0  0  0  0  0  0  0
   12.2619    4.1399    0.0000 C   0  0  0  0  0  0  0  0  0  0  0  0
   20.9321   -4.1514    0.0000 C   0  0  0  0  0  0  0  0  0  0  0  0
   17.9824   -0.9421    0.0000 C   0  0  0  0  0  0  0  0  0  0  0  0
   21.0366   -5.1459    0.0000 C   0  0  0  0  0  0  0  0  0  0  0  0
   17.8779    0.0524    0.0000 C   0  0  0  0  0  0  0  0  0  0  0  0
   26.1847   -6.0491    0.0000 C   0  0  0  0  0  0  0  0  0  0  0  0
   13.7619    3.2738    0.0000 C   0  0  0  0  0  0  0  0  0  0  0  0
   25.2066   -6.2570    0.0000 C   0  0  0  0  0  0  0  0  0  0  0  0
   14.2619    2.4078    0.0000 C   0  0  0  0  0  0  0  0  0  0  0  0
   24.5375   -5.5139    0.0000 C   0  0  0  0  0  0  0  0  0  0  0  0
   15.2619    2.4078    0.0000 C   0  0  0  0  0  0  0  0  0  0  0  0
   23.5593   -5.7218    0.0000 C   0  0  0  0  0  0  0  0  0  0  0  0
   15.7619    1.5418    0.0000 C   0  0  0  0  0  0  0  0  0  0  0  0
   22.8162   -5.0527    0.0000 C   0  0  0  0  0  0  0  0  0  0  0  0
   16.7564    1.4373    0.0000 C   0  0  0  0  0  0  0  0  0  0  0  0
   28.8613   -9.0217    0.0000 C   0  0  0  0  0  0  0  0  0  0  0  0
    9.7619    3.2738    0.0000 C   0  0  0  0  0  0  0  0  0  0  0  0
   36.5994   -7.7305    0.0000 H   0  0  0  0  0  0  0  0  0  0  0  0
    5.5436    8.7837    0.0000 H   0  0  0  0  0  0  0  0  0  0  0  0
   37.9552   -8.0119    0.0000 H   0  0  0  0  0  0  0  0  0  0  0  0
   37.2362   -7.5984    0.0000 H   0  0  0  0  0  0  0  0  0  0  0  0
   35.5805   -9.0892    0.0000 H   0  0  0  0  0  0  0  0  0  0  0  0
   35.9166   -9.8475    0.0000 H   0  0  0  0  0  0  0  0  0  0  0  0
    4.4272    7.9644    0.0000 H   0  0  0  0  0  0  0  0  0  0  0  0
    5.2156    8.2221    0.0000 H   0  0  0  0  0  0  0  0  0  0  0  0
    5.2156   10.4500    0.0000 H   0  0  0  0  0  0  0  0  0  0  0  0
    4.4272   10.7077    0.0000 H   0  0  0  0  0  0  0  0  0  0  0  0
   34.2044   -8.1028    0.0000 H   0  0  0  0  0  0  0  0  0  0  0  0
   34.9624   -8.3491    0.0000 H   0  0  0  0  0  0  0  0  0  0  0  0
    6.1793    8.2579    0.0000 H   0  0  0  0  0  0  0  0  0  0  0  0
    6.8695    7.8594    0.0000 H   0  0  0  0  0  0  0  0  0  0  0  0
   36.5648   -6.9063    0.0000 H   0  0  0  0  0  0  0  0  0  0  0  0
   36.3990   -6.1267    0.0000 H   0  0  0  0  0  0  0  0  0  0  0  0
    6.8695   10.8126    0.0000 H   0  0  0  0  0  0  0  0  0  0  0  0
    6.1793   10.4141    0.0000 H   0  0  0  0  0  0  0  0  0  0  0  0
   34.5868   -6.7025    0.0000 H   0  0  0  0  0  0  0  0  0  0  0  0
   33.8288   -6.4562    0.0000 H   0  0  0  0  0  0  0  0  0  0  0  0
    8.3445    8.6820    0.0000 H   0  0  0  0  0  0  0  0  0  0  0  0
    7.6542    9.0806    0.0000 H   0  0  0  0  0  0  0  0  0  0  0  0
   39.1845   -9.0059    0.0000 H   0  0  0  0  0  0  0  0  0  0  0  0
   36.7767  -11.1739    0.0000 H   0  0  0  0  0  0  0  0  0  0  0  0
    2.8660    7.7160    0.0000 H   0  0  0  0  0  0  0  0  0  0  0  0
    2.8660   10.9560    0.0000 H   0  0  0  0  0  0  0  0  0  0  0  0
   34.8008   -5.5810    0.0000 H   0  0  0  0  0  0  0  0  0  0  0  0
   34.9665   -6.3607    0.0000 H   0  0  0  0  0  0  0  0  0  0  0  0
    7.6542    9.5915    0.0000 H   0  0  0  0  0  0  0  0  0  0  0  0
    8.3445    9.9900    0.0000 H   0  0  0  0  0  0  0  0  0  0  0  0
   32.5571   -7.5675    0.0000 H   0  0  0  0  0  0  0  0  0  0  0  0
   33.3151   -7.8138    0.0000 H   0  0  0  0  0  0  0  0  0  0  0  0
    7.6793    7.3919    0.0000 H   0  0  0  0  0  0  0  0  0  0  0  0
    8.3695    6.9934    0.0000 H   0  0  0  0  0  0  0  0  0  0  0  0
   39.5213  -10.5905    0.0000 H   0  0  0  0  0  0  0  0  0  0  0  0
   38.3174  -11.6745    0.0000 H   0  0  0  0  0  0  0  0  0  0  0  0
    1.4631    8.5260    0.0000 H   0  0  0  0  0  0  0  0  0  0  0  0
    1.4631   10.1460    0.0000 H   0  0  0  0  0  0  0  0  0  0  0  0
   36.2469   -5.1126    0.0000 H   0  0  0  0  0  0  0  0  0  0  0  0
   35.8488   -4.3314    0.0000 H   0  0  0  0  0  0  0  0  0  0  0  0
   35.0676   -4.7295    0.0000 H   0  0  0  0  0  0  0  0  0  0  0  0
    8.7988   10.7581    0.0000 H   0  0  0  0  0  0  0  0  0  0  0  0
    8.5719   11.6050    0.0000 H   0  0  0  0  0  0  0  0  0  0  0  0
    7.7249   11.3781    0.0000 H   0  0  0  0  0  0  0  0  0  0  0  0
   32.9395   -6.1673    0.0000 H   0  0  0  0  0  0  0  0  0  0  0  0
   32.1815   -5.9210    0.0000 H   0  0  0  0  0  0  0  0  0  0  0  0
    9.8445    7.8160    0.0000 H   0  0  0  0  0  0  0  0  0  0  0  0
    9.1542    8.2145    0.0000 H   0  0  0  0  0  0  0  0  0  0  0  0
   31.2440   -7.2934    0.0000 H   0  0  0  0  0  0  0  0  0  0  0  0
    9.4519    6.2010    0.0000 H   0  0  0  0  0  0  0  0  0  0  0  0
   29.8942   -7.5803    0.0000 H   0  0  0  0  0  0  0  0  0  0  0  0
   10.1419    5.0059    0.0000 H   0  0  0  0  0  0  0  0  0  0  0  0
   29.3108   -4.8357    0.0000 H   0  0  0  0  0  0  0  0  0  0  0  0
   12.5719    6.4088    0.0000 H   0  0  0  0  0  0  0  0  0  0  0  0
   20.5325   -2.7934    0.0000 H   0  0  0  0  0  0  0  0  0  0  0  0
   20.0640   -2.1486    0.0000 H   0  0  0  0  0  0  0  0  0  0  0  0
   18.3820   -2.3002    0.0000 H   0  0  0  0  0  0  0  0  0  0  0  0
   18.8505   -2.9450    0.0000 H   0  0  0  0  0  0  0  0  0  0  0  0
   27.7262   -5.1725    0.0000 H   0  0  0  0  0  0  0  0  0  0  0  0
   13.3819    5.0059    0.0000 H   0  0  0  0  0  0  0  0  0  0  0  0
   19.4000   -3.7014    0.0000 H   0  0  0  0  0  0  0  0  0  0  0  0
   19.8685   -4.3463    0.0000 H   0  0  0  0  0  0  0  0  0  0  0  0
   19.5144   -1.3921    0.0000 H   0  0  0  0  0  0  0  0  0  0  0  0
   19.0459   -0.7473    0.0000 H   0  0  0  0  0  0  0  0  0  0  0  0
   21.5506   -4.1946    0.0000 H   0  0  0  0  0  0  0  0  0  0  0  0
   21.0821   -3.5498    0.0000 H   0  0  0  0  0  0  0  0  0  0  0  0
   17.3639   -0.8989    0.0000 H   0  0  0  0  0  0  0  0  0  0  0  0
   17.8324   -1.5437    0.0000 H   0  0  0  0  0  0  0  0  0  0  0  0
   20.4181   -5.1027    0.0000 H   0  0  0  0  0  0  0  0  0  0  0  0
   20.8866   -5.7475    0.0000 H   0  0  0  0  0  0  0  0  0  0  0  0
   18.4963    0.0091    0.0000 H   0  0  0  0  0  0  0  0  0  0  0  0
   18.0279    0.6540    0.0000 H   0  0  0  0  0  0  0  0  0  0  0  0
   26.7105   -5.7206    0.0000 H   0  0  0  0  0  0  0  0  0  0  0  0
   25.9525   -5.4743    0.0000 H   0  0  0  0  0  0  0  0  0  0  0  0
   14.3445    3.4859    0.0000 H   0  0  0  0  0  0  0  0  0  0  0  0
   13.6542    3.8844    0.0000 H   0  0  0  0  0  0  0  0  0  0  0  0
   24.6808   -6.5856    0.0000 H   0  0  0  0  0  0  0  0  0  0  0  0
   25.4389   -6.8319    0.0000 H   0  0  0  0  0  0  0  0  0  0  0  0
   13.6793    2.1958    0.0000 H   0  0  0  0  0  0  0  0  0  0  0  0
   14.3695    1.7972    0.0000 H   0  0  0  0  0  0  0  0  0  0  0  0
   25.0633   -5.1853    0.0000 H   0  0  0  0  0  0  0  0  0  0  0  0
   24.3052   -4.9390    0.0000 H   0  0  0  0  0  0  0  0  0  0  0  0
   15.8445    2.6199    0.0000 H   0  0  0  0  0  0  0  0  0  0  0  0
   15.1542    3.0184    0.0000 H   0  0  0  0  0  0  0  0  0  0  0  0
   22.8810   -4.4361    0.0000 H   0  0  0  0  0  0  0  0  0  0  0  0
   17.1713    1.8980    0.0000 H   0  0  0  0  0  0  0  0  0  0  0  0
   28.4005   -9.4366    0.0000 H   0  0  0  0  0  0  0  0  0  0  0  0
   29.2761   -9.4824    0.0000 H   0  0  0  0  0  0  0  0  0  0  0  0
   29.3220   -8.6068    0.0000 H   0  0  0  0  0  0  0  0  0  0  0  0
    9.7619    3.8938    0.0000 H   0  0  0  0  0  0  0  0  0  0  0  0
    9.1419    3.2738    0.0000 H   0  0  0  0  0  0  0  0  0  0  0  0
    9.7619    2.6538    0.0000 H   0  0  0  0  0  0  0  0  0  0  0  0
  1 49  2  0  0  0  0
  2 50  2  0  0  0  0
  3 65  1  0  0  0  0
  3 71  1  0  0  0  0
  4 66  1  0  0  0  0
  4 72  1  0  0  0  0
  5 57  1  0  0  0  0
  5 81  1  0  0  0  0
  6 58  1  0  0  0  0
  6 82  1  0  0  0  0
  7 17  1  0  0  0  0
  7 27  1  0  0  0  0
  7 29  1  0  0  0  0
  8 18  1  0  0  0  0
  8 28  1  0  0  0  0
  8 30  1  0  0  0  0
  9 47  1  0  0  0  0
  9 49  1  0  0  0  0
  9131  1  0  0  0  0
 10 48  1  0  0  0  0
 10 50  1  0  0  0  0
 10132  1  0  0  0  0
 11 13  1  0  0  0  0
 11 69  1  0  0  0  0
 11 79  1  0  0  0  0
 12 14  1  0  0  0  0
 12 70  1  0  0  0  0
 12 80  1  0  0  0  0
 13 15  2  0  0  0  0
 14 16  2  0  0  0  0
 15 77  1  0  0  0  0
 16 78  1  0  0  0  0
 17 19  1  0  0  0  0
 17 20  1  0  0  0  0
 17 83  1  0  0  0  0
 18 21  1  0  0  0  0
 18 22  1  0  0  0  0
 18 84  1  0  0  0  0
 19 23  1  0  0  0  0
 19 85  1  0  0  0  0
 19 86  1  0  0  0  0
 20 24  1  0  0  0  0
 20 87  1  0  0  0  0
 20 88  1  0  0  0  0
 21 25  1  0  0  0  0
 21 89  1  0  0  0  0
 21 90  1  0  0  0  0
 22 26  1  0  0  0  0
 22 91  1  0  0  0  0
 22 92  1  0  0  0  0
 23 24  1  0  0  0  0
 23 33  2  0  0  0  0
 24 34  2  0  0  0  0
 25 26  1  0  0  0  0
 25 35  2  0  0  0  0
 26 36  2  0  0  0  0
 27 31  1  0  0  0  0
 27 93  1  0  0  0  0
 27 94  1  0  0  0  0
 28 32  1  0  0  0  0
 28 95  1  0  0  0  0
 28 96  1  0  0  0  0
 29 37  1  0  0  0  0
 29 97  1  0  0  0  0
 29 98  1  0  0  0  0
 30 38  1  0  0  0  0
 30 99  1  0  0  0  0
 30100  1  0  0  0  0
 31 39  1  0  0  0  0
 31101  1  0  0  0  0
 31102  1  0  0  0  0
 32 40  1  0  0  0  0
 32103  1  0  0  0  0
 32104  1  0  0  0  0
 33 41  1  0  0  0  0
 33105  1  0  0  0  0
 34 42  1  0  0  0  0
 34106  1  0  0  0  0
 35 43  1  0  0  0  0
 35107  1  0  0  0  0
 36 44  1  0  0  0  0
 36108  1  0  0  0  0
 37 45  1  0  0  0  0
 37109  1  0  0  0  0
 37110  1  0  0  0  0
 38 46  1  0  0  0  0
 38111  1  0  0  0  0
 38112  1  0  0  0  0
 39 47  1  0  0  0  0
 39113  1  0  0  0  0
 39114  1  0  0  0  0
 40 48  1  0  0  0  0
 40115  1  0  0  0  0
 40116  1  0  0  0  0
 41 42  2  0  0  0  0
 41117  1  0  0  0  0
 42118  1  0  0  0  0
 43 44  2  0  0  0  0
 43119  1  0  0  0  0
 44120  1  0  0  0  0
 45121  1  0  0  0  0
 45122  1  0  0  0  0
 45123  1  0  0  0  0
 46124  1  0  0  0  0
 46125  1  0  0  0  0
 46126  1  0  0  0  0
 47127  1  0  0  0  0
 47128  1  0  0  0  0
 48129  1  0  0  0  0
 48130  1  0  0  0  0
 49 51  1  0  0  0  0
 50 52  1  0  0  0  0
 51 53  2  0  0  0  0
 51 55  1  0  0  0  0
 52 54  2  0  0  0  0
 52 56  1  0  0  0  0
 53 57  1  0  0  0  0
 53133  1  0  0  0  0
 54 58  1  0  0  0  0
 54134  1  0  0  0  0
 55 59  2  0  0  0  0
 55135  1  0  0  0  0
 56 60  2  0  0  0  0
 56136  1  0  0  0  0
 57 65  2  0  0  0  0
 58 66  2  0  0  0  0
 59 65  1  0  0  0  0
 59141  1  0  0  0  0
 60 66  1  0  0  0  0
 60142  1  0  0  0  0
 61 62  1  0  0  0  0
 61 63  1  0  0  0  0
 61137  1  0  0  0  0
 61138  1  0  0  0  0
 62 64  1  0  0  0  0
 62139  1  0  0  0  0
 62140  1  0  0  0  0
 63 67  1  0  0  0  0
 63143  1  0  0  0  0
 63144  1  0  0  0  0
 64 68  1  0  0  0  0
 64145  1  0  0  0  0
 64146  1  0  0  0  0
 67 69  1  0  0  0  0
 67147  1  0  0  0  0
 67148  1  0  0  0  0
 68 70  1  0  0  0  0
 68149  1  0  0  0  0
 68150  1  0  0  0  0
 69151  1  0  0  0  0
 69152  1  0  0  0  0
 70153  1  0  0  0  0
 70154  1  0  0  0  0
 71 73  1  0  0  0  0
 71155  1  0  0  0  0
 71156  1  0  0  0  0
 72 74  1  0  0  0  0
 72157  1  0  0  0  0
 72158  1  0  0  0  0
 73 75  1  0  0  0  0
 73159  1  0  0  0  0
 73160  1  0  0  0  0
 74 76  1  0  0  0  0
 74161  1  0  0  0  0
 74162  1  0  0  0  0
 75 77  1  0  0  0  0
 75163  1  0  0  0  0
 75164  1  0  0  0  0
 76 78  1  0  0  0  0
 76165  1  0  0  0  0
 76166  1  0  0  0  0
 77 79  2  0  0  0  0
 78 80  2  0  0  0  0
 79167  1  0  0  0  0
 80168  1  0  0  0  0
 81169  1  0  0  0  0
 81170  1  0  0  0  0
 81171  1  0  0  0  0
 82172  1  0  0  0  0
 82173  1  0  0  0  0
 82174  1  0  0  0  0
M  END
> <PUBCHEM_COMPOUND_CID>
56833378

> <PUBCHEM_COMPOUND_CANONICALIZED>
1

> <PUBCHEM_CACTVS_COMPLEXITY>
1610

> <PUBCHEM_CACTVS_HBOND_ACCEPTOR>
12

> <PUBCHEM_CACTVS_HBOND_DONOR>
2

> <PUBCHEM_CACTVS_ROTATABLE_BOND>
39

> <PUBCHEM_CACTVS_SUBSKEYS>
AAADcfB/+AAAAAAAAAAAAAAAAAAAAePECAAwYMGAAAAAAGAB9AAAHgAYAAAADCzhngY+hpPIBACqAzV3VACCDAQ1sgAY2IE+/MgNZjLEtRuWOSrk1hHK6Ye63JLOoAABAAAQQABAAAIAACCAACAACAAAAA==

> <PUBCHEM_IUPAC_OPENEYE_NAME>
N-[4-[indan-2-yl(propyl)amino]butyl]-4-[3-[1-[8-[4-[3-[4-[4-[indan-2-yl(propyl)amino]butylcarbamoyl]-2-methoxy-phenoxy]propyl]triazol-1-yl]octyl]triazol-4-yl]propoxy]-3-methoxy-benzamide

> <PUBCHEM_IUPAC_CAS_NAME>
N-[4-[2,3-dihydro-1H-inden-2-yl(propyl)amino]butyl]-4-[3-[1-[8-[4-[3-[4-[[4-[2,3-dihydro-1H-inden-2-yl(propyl)amino]butylamino]-oxomethyl]-2-methoxyphenoxy]propyl]-1-triazolyl]octyl]-4-triazolyl]propoxy]-3-methoxybenzamide

> <PUBCHEM_IUPAC_NAME_MARKUP>
<I>N</I>-[4-[2,3-dihydro-1<I>H</I>-inden-2-yl(propyl)amino]butyl]-4-[3-[1-[8-[4-[3-[4-[4-[2,3-dihydro-1<I>H</I>-inden-2-yl(propyl)amino]butylcarbamoyl]-2-methoxyphenoxy]propyl]triazol-1-yl]octyl]triazol-4-yl]propoxy]-3-methoxybenzamide

> <PUBCHEM_IUPAC_NAME>
N-[4-[2,3-dihydro-1H-inden-2-yl(propyl)amino]butyl]-4-[3-[1-[8-[4-[3-[4-[4-[2,3-dihydro-1H-inden-2-yl(propyl)amino]butylcarbamoyl]-2-methoxyphenoxy]propyl]triazol-1-yl]octyl]triazol-4-yl]propoxy]-3-methoxybenzamide

> <PUBCHEM_IUPAC_SYSTEMATIC_NAME>
N-[4-[2,3-dihydro-1H-inden-2-yl(propyl)amino]butyl]-4-[3-[1-[8-[4-[3-[4-[4-[2,3-dihydro-1H-inden-2-yl(propyl)amino]butylcarbamoyl]-2-methoxy-phenoxy]propyl]-1,2,3-triazol-1-yl]octyl]-1,2,3-triazol-4-yl]propoxy]-3-methoxy-benzamide

> <PUBCHEM_IUPAC_TRADITIONAL_NAME>
N-[4-[indan-2-yl(propyl)amino]butyl]-4-[3-[1-[8-[4-[3-[4-[4-[indan-2-yl(propyl)amino]butylcarbamoyl]-2-methoxy-phenoxy]propyl]triazol-1-yl]octyl]triazol-4-yl]propoxy]-3-methoxy-benzamide

> <PUBCHEM_IUPAC_INCHI>
InChI=1S/C66H92N10O6/c1-5-35-73(59-43-51-23-11-12-24-52(51)44-59)37-19-15-33-67-65(77)55-29-31-61(63(47-55)79-3)81-41-21-27-57-49-75(71-69-57)39-17-9-7-8-10-18-40-76-50-58(70-72-76)28-22-42-82-62-32-30-56(48-64(62)80-4)66(78)68-34-16-20-38-74(36-6-2)60-45-53-25-13-14-26-54(53)46-60/h11-14,23-26,29-32,47-50,59-60H,5-10,15-22,27-28,33-46H2,1-4H3,(H,67,77)(H,68,78)

> <PUBCHEM_IUPAC_INCHIKEY>
KBPAXMUQBHLMMA-UHFFFAOYSA-N

> <PUBCHEM_XLOGP3_AA>
12.1

> <PUBCHEM_EXACT_MASS>
1120.72013069

> <PUBCHEM_MOLECULAR_FORMULA>
C66H92N10O6

> <PUBCHEM_MOLECULAR_WEIGHT>
1121.5

> <PUBCHEM_OPENEYE_CAN_SMILES>
CCCN(CCCCNC(=O)C1=CC(=C(C=C1)OCCCC2=CN(N=N2)CCCCCCCCN3C=C(N=N3)CCCOC4=C(C=C(C=C4)C(=O)NCCCCN(CCC)C5CC6=CC=CC=C6C5)OC)OC)C7CC8=CC=CC=C8C7

> <PUBCHEM_OPENEYE_ISO_SMILES>
CCCN(CCCCNC(=O)C1=CC(=C(C=C1)OCCCC2=CN(N=N2)CCCCCCCCN3C=C(N=N3)CCCOC4=C(C=C(C=C4)C(=O)NCCCCN(CCC)C5CC6=CC=CC=C6C5)OC)OC)C7CC8=CC=CC=C8C7

> <PUBCHEM_CACTVS_TPSA>
163

> <PUBCHEM_MONOISOTOPIC_WEIGHT>
1120.72013069

> <PUBCHEM_TOTAL_CHARGE>
0

> <PUBCHEM_HEAVY_ATOM_COUNT>
82

> <PUBCHEM_ATOM_DEF_STEREO_COUNT>
0

> <PUBCHEM_ATOM_UDEF_STEREO_COUNT>
0

> <PUBCHEM_BOND_DEF_STEREO_COUNT>
0

> <PUBCHEM_BOND_UDEF_STEREO_COUNT>
0

> <PUBCHEM_ISOTOPIC_ATOM_COUNT>
0

> <PUBCHEM_COMPONENT_COUNT>
1

> <PUBCHEM_CACTVS_TAUTO_COUNT>
-1

> <PUBCHEM_COORDINATE_TYPE>
1
5
255

> <PUBCHEM_BONDANNOTATIONS>
11  13  8
11  79  8
12  14  8
12  80  8
13  15  8
14  16  8
15  77  8
16  78  8
23  24  8
23  33  8
24  34  8
25  26  8
25  35  8
26  36  8
33  41  8
34  42  8
35  43  8
36  44  8
41  42  8
43  44  8
51  53  8
51  55  8
52  54  8
52  56  8
53  57  8
54  58  8
55  59  8
56  60  8
57  65  8
58  66  8
59  65  8
60  66  8
77  79  8
78  80  8

$$$$
