44324071
  -OEChem-09292322512D

 40 42  0     1  0  0  0  0  0999 V2000
    6.8497   -1.0664    0.0000 O   0  0  0  0  0  0  0  0  0  0  0  0
    4.6318    1.5747    0.0000 N   0  0  3  0  0  0  0  0  0  0  0  0
    4.6783   -2.6801    0.0000 N   0  0  0  0  0  0  0  0  0  0  0  0
    4.6783   -1.0707    0.0000 C   0  0  0  0  0  0  0  0  0  0  0  0
    4.9889   -0.1202    0.0000 C   0  0  0  0  0  0  0  0  0  0  0  0
    4.3211    0.6241    0.0000 C   0  0  0  0  0  0  0  0  0  0  0  0
    3.7320   -1.3754    0.0000 C   0  0  0  0  0  0  0  0  0  0  0  0
    5.2619   -1.8754    0.0000 C   0  0  0  0  0  0  0  0  0  0  0  0
    3.7320   -2.3754    0.0000 C   0  0  0  0  0  0  0  0  0  0  0  0
    6.2619   -1.8754    0.0000 C   0  0  0  0  0  0  0  0  0  0  0  0
    3.9639    2.3190    0.0000 C   0  0  0  0  0  0  0  0  0  0  0  0
    2.8660   -0.8754    0.0000 C   0  0  0  0  0  0  0  0  0  0  0  0
    2.8660   -2.8754    0.0000 C   0  0  0  0  0  0  0  0  0  0  0  0
    5.6103    1.7809    0.0000 C   0  0  0  0  0  0  0  0  0  0  0  0
    2.0000   -1.3754    0.0000 C   0  0  0  0  0  0  0  0  0  0  0  0
    2.0000   -2.3754    0.0000 C   0  0  0  0  0  0  0  0  0  0  0  0
    4.2746    3.2695    0.0000 C   0  0  0  0  0  0  0  0  0  0  0  0
    6.8497   -2.6844    0.0000 C   0  0  0  0  0  0  0  0  0  0  0  0
    7.8007   -2.3754    0.0000 C   0  0  0  0  0  0  0  0  0  0  0  0
    7.8007   -1.3754    0.0000 C   0  0  0  0  0  0  0  0  0  0  0  0
    5.5359   -0.4122    0.0000 H   0  0  0  0  0  0  0  0  0  0  0  0
    5.3715    0.3677    0.0000 H   0  0  0  0  0  0  0  0  0  0  0  0
    3.7742    0.9162    0.0000 H   0  0  0  0  0  0  0  0  0  0  0  0
    3.9385    0.1362    0.0000 H   0  0  0  0  0  0  0  0  0  0  0  0
    4.8709   -3.2695    0.0000 H   0  0  0  0  0  0  0  0  0  0  0  0
    3.4170    2.6110    0.0000 H   0  0  0  0  0  0  0  0  0  0  0  0
    3.5814    1.8310    0.0000 H   0  0  0  0  0  0  0  0  0  0  0  0
    2.8660   -0.2554    0.0000 H   0  0  0  0  0  0  0  0  0  0  0  0
    2.8660   -3.4954    0.0000 H   0  0  0  0  0  0  0  0  0  0  0  0
    5.7381    1.1742    0.0000 H   0  0  0  0  0  0  0  0  0  0  0  0
    6.2169    1.9087    0.0000 H   0  0  0  0  0  0  0  0  0  0  0  0
    5.4824    2.3876    0.0000 H   0  0  0  0  0  0  0  0  0  0  0  0
    1.4631   -1.0654    0.0000 H   0  0  0  0  0  0  0  0  0  0  0  0
    1.4631   -2.6854    0.0000 H   0  0  0  0  0  0  0  0  0  0  0  0
    4.8639    3.0769    0.0000 H   0  0  0  0  0  0  0  0  0  0  0  0
    4.4672    3.8588    0.0000 H   0  0  0  0  0  0  0  0  0  0  0  0
    3.6852    3.4621    0.0000 H   0  0  0  0  0  0  0  0  0  0  0  0
    6.6581   -3.2741    0.0000 H   0  0  0  0  0  0  0  0  0  0  0  0
    8.3023   -2.7398    0.0000 H   0  0  0  0  0  0  0  0  0  0  0  0
    8.3023   -1.0110    0.0000 H   0  0  0  0  0  0  0  0  0  0  0  0
  1 10  1  0  0  0  0
  1 20  1  0  0  0  0
  2  6  1  0  0  0  0
  2 11  1  0  0  0  0
  2 14  1  0  0  0  0
  3  8  1  0  0  0  0
  3  9  1  0  0  0  0
  3 25  1  0  0  0  0
  4  5  1  0  0  0  0
  4  7  1  0  0  0  0
  4  8  2  0  0  0  0
  5  6  1  0  0  0  0
  5 21  1  0  0  0  0
  5 22  1  0  0  0  0
  6 23  1  0  0  0  0
  6 24  1  0  0  0  0
  7  9  1  0  0  0  0
  7 12  2  0  0  0  0
  8 10  1  0  0  0  0
  9 13  2  0  0  0  0
 10 18  2  0  0  0  0
 11 17  1  0  0  0  0
 11 26  1  0  0  0  0
 11 27  1  0  0  0  0
 12 15  1  0  0  0  0
 12 28  1  0  0  0  0
 13 16  1  0  0  0  0
 13 29  1  0  0  0  0
 14 30  1  0  0  0  0
 14 31  1  0  0  0  0
 14 32  1  0  0  0  0
 15 16  2  0  0  0  0
 15 33  1  0  0  0  0
 16 34  1  0  0  0  0
 17 35  1  0  0  0  0
 17 36  1  0  0  0  0
 17 37  1  0  0  0  0
 18 19  1  0  0  0  0
 18 38  1  0  0  0  0
 19 20  2  0  0  0  0
 19 39  1  0  0  0  0
 20 40  1  0  0  0  0
M  END
> <PUBCHEM_COMPOUND_CID>
44324071

> <PUBCHEM_COMPOUND_CANONICALIZED>
1

> <PUBCHEM_CACTVS_COMPLEXITY>
309

> <PUBCHEM_CACTVS_HBOND_ACCEPTOR>
2

> <PUBCHEM_CACTVS_HBOND_DONOR>
1

> <PUBCHEM_CACTVS_ROTATABLE_BOND>
5

> <PUBCHEM_CACTVS_SUBSKEYS>
AAADceB7IAAAAAAAAAAAAAAAAAAAAWJAAAAwAAAAAAAAAFgB/AAAHgAQAAAADAzhngYyxPPJlECoA6xyxASCiCAnIiAImSG+bNgOJvLEtbuHOSjk0BHY6YeY2eOegAAAAAACAAAAAAAAAAQAAAAAAAAAAA==

> <PUBCHEM_IUPAC_OPENEYE_NAME>
N-ethyl-2-[2-(2-furyl)-1H-indol-3-yl]-N-methyl-ethanamine

> <PUBCHEM_IUPAC_CAS_NAME>
N-ethyl-2-[2-(2-furanyl)-1H-indol-3-yl]-N-methylethanamine

> <PUBCHEM_IUPAC_NAME_MARKUP>
<I>N</I>-ethyl-2-[2-(furan-2-yl)-1<I>H</I>-indol-3-yl]-<I>N</I>-methylethanamine

> <PUBCHEM_IUPAC_NAME>
N-ethyl-2-[2-(furan-2-yl)-1H-indol-3-yl]-N-methylethanamine

> <PUBCHEM_IUPAC_SYSTEMATIC_NAME>
N-ethyl-2-[2-(furan-2-yl)-1H-indol-3-yl]-N-methyl-ethanamine

> <PUBCHEM_IUPAC_TRADITIONAL_NAME>
ethyl-[2-[2-(2-furyl)-1H-indol-3-yl]ethyl]-methyl-amine

> <PUBCHEM_IUPAC_INCHI>
InChI=1S/C17H20N2O/c1-3-19(2)11-10-14-13-7-4-5-8-15(13)18-17(14)16-9-6-12-20-16/h4-9,12,18H,3,10-11H2,1-2H3

> <PUBCHEM_IUPAC_INCHIKEY>
CIXYYTIQIAPPSA-UHFFFAOYSA-N

> <PUBCHEM_XLOGP3_AA>
3.5

> <PUBCHEM_EXACT_MASS>
268.157563266

> <PUBCHEM_MOLECULAR_FORMULA>
C17H20N2O

> <PUBCHEM_MOLECULAR_WEIGHT>
268.35

> <PUBCHEM_OPENEYE_CAN_SMILES>
CCN(C)CCC1=C(NC2=CC=CC=C21)C3=CC=CO3

> <PUBCHEM_OPENEYE_ISO_SMILES>
CCN(C)CCC1=C(NC2=CC=CC=C21)C3=CC=CO3

> <PUBCHEM_CACTVS_TPSA>
32.2

> <PUBCHEM_MONOISOTOPIC_WEIGHT>
268.157563266

> <PUBCHEM_TOTAL_CHARGE>
0

> <PUBCHEM_HEAVY_ATOM_COUNT>
20

> <PUBCHEM_ATOM_DEF_STEREO_COUNT>
0

> <PUBCHEM_ATOM_UDEF_STEREO_COUNT>
0

> <PUBCHEM_BOND_DEF_STEREO_COUNT>
0

> <PUBCHEM_BOND_UDEF_STEREO_COUNT>
0

> <PUBCHEM_ISOTOPIC_ATOM_COUNT>
0

> <PUBCHEM_COMPONENT_COUNT>
1

> <PUBCHEM_CACTVS_TAUTO_COUNT>
-1

> <PUBCHEM_COORDINATE_TYPE>
1
5
255

> <PUBCHEM_BONDANNOTATIONS>
1  10  8
1  20  8
10  18  8
12  15  8
13  16  8
15  16  8
18  19  8
19  20  8
3  8  8
3  9  8
4  7  8
4  8  8
7  12  8
7  9  8
9  13  8

$$$$
