11620847
  -OEChem-09292322492D

 75 80  0     1  0  0  0  0  0999 V2000
    6.2062    1.7399    0.0000 S   0  0  0  0  0  0  0  0  0  0  0  0
    5.1566   -7.0528    0.0000 O   0  0  0  0  0  0  0  0  0  0  0  0
    6.2062   -1.7242    0.0000 N   0  0  3  0  0  0  0  0  0  0  0  0
    3.5000   -6.4115    0.0000 N   0  0  0  0  0  0  0  0  0  0  0  0
    7.7008    2.7105    0.0000 N   0  0  0  0  0  0  0  0  0  0  0  0
    6.2995    3.5195    0.0000 N   0  0  0  0  0  0  0  0  0  0  0  0
    7.0426    4.1886    0.0000 N   0  0  0  0  0  0  0  0  0  0  0  0
    9.9651    6.5307    0.0000 N   0  0  0  0  0  0  0  0  0  0  0  0
    4.6979   -3.3366    0.0000 C   0  0  0  0  0  0  0  0  0  0  0  0
    5.5640   -3.8366    0.0000 C   0  0  0  0  0  0  0  0  0  0  0  0
    4.5583   -2.3658    0.0000 C   0  0  0  0  0  0  0  0  0  0  0  0
    6.4745   -3.4722    0.0000 C   0  0  0  0  0  0  0  0  0  0  0  0
    5.2283   -1.6496    0.0000 C   0  0  0  0  0  0  0  0  0  0  0  0
    6.7598   -2.5338    0.0000 C   0  0  0  0  0  0  0  0  0  0  0  0
    3.8319   -4.8366    0.0000 C   0  0  0  0  0  0  0  0  0  0  0  0
    4.6979   -5.3366    0.0000 C   0  0  0  0  0  0  0  0  0  0  0  0
    3.0949   -5.5037    0.0000 C   0  0  0  0  0  0  0  0  0  0  0  0
    3.8319   -3.8366    0.0000 C   0  0  0  0  0  0  0  0  0  0  0  0
    5.5640   -4.8366    0.0000 C   0  0  0  0  0  0  0  0  0  0  0  0
    6.7062   -0.8582    0.0000 C   0  0  0  0  0  0  0  0  0  0  0  0
    4.4887   -6.3085    0.0000 C   0  0  0  0  0  0  0  0  0  0  0  0
    3.0000   -7.2776    0.0000 C   0  0  0  0  0  0  0  0  0  0  0  0
    6.2062    0.0079    0.0000 C   0  0  0  0  0  0  0  0  0  0  0  0
    2.0000   -7.2776    0.0000 C   0  0  0  0  0  0  0  0  0  0  0  0
    3.5000   -8.1436    0.0000 C   0  0  0  0  0  0  0  0  0  0  0  0
    6.7062    0.8739    0.0000 C   0  0  0  0  0  0  0  0  0  0  0  0
    6.7062    2.6059    0.0000 C   0  0  0  0  0  0  0  0  0  0  0  0
    7.9087    3.6886    0.0000 C   0  0  0  0  0  0  0  0  0  0  0  0
    8.8222    4.0954    0.0000 C   0  0  0  0  0  0  0  0  0  0  0  0
    8.3699    1.9673    0.0000 C   0  0  0  0  0  0  0  0  0  0  0  0
    8.9267    5.0899    0.0000 C   0  0  0  0  0  0  0  0  0  0  0  0
    9.8403    5.4966    0.0000 C   0  0  0  0  0  0  0  0  0  0  0  0
    9.6312    3.5076    0.0000 C   0  0  0  0  0  0  0  0  0  0  0  0
    8.0747    5.6891    0.0000 C   0  0  0  0  0  0  0  0  0  0  0  0
   10.6493    4.9088    0.0000 C   0  0  0  0  0  0  0  0  0  0  0  0
   10.5448    3.9143    0.0000 C   0  0  0  0  0  0  0  0  0  0  0  0
    8.1756    6.7258    0.0000 C   0  0  0  0  0  0  0  0  0  0  0  0
    9.1272    7.1495    0.0000 C   0  0  0  0  0  0  0  0  0  0  0  0
    9.2355    8.1436    0.0000 C   0  0  0  0  0  0  0  0  0  0  0  0
    4.2116   -1.8519    0.0000 H   0  0  0  0  0  0  0  0  0  0  0  0
    3.9798   -2.5890    0.0000 H   0  0  0  0  0  0  0  0  0  0  0  0
    6.5705   -4.0847    0.0000 H   0  0  0  0  0  0  0  0  0  0  0  0
    7.0930   -3.5155    0.0000 H   0  0  0  0  0  0  0  0  0  0  0  0
    5.4124   -1.0575    0.0000 H   0  0  0  0  0  0  0  0  0  0  0  0
    4.6923   -1.3379    0.0000 H   0  0  0  0  0  0  0  0  0  0  0  0
    7.2977   -2.8421    0.0000 H   0  0  0  0  0  0  0  0  0  0  0  0
    7.1805   -2.0784    0.0000 H   0  0  0  0  0  0  0  0  0  0  0  0
    2.7294   -5.0029    0.0000 H   0  0  0  0  0  0  0  0  0  0  0  0
    2.5584   -5.8145    0.0000 H   0  0  0  0  0  0  0  0  0  0  0  0
    3.2950   -3.5266    0.0000 H   0  0  0  0  0  0  0  0  0  0  0  0
    6.1009   -5.1466    0.0000 H   0  0  0  0  0  0  0  0  0  0  0  0
    7.1812   -1.2567    0.0000 H   0  0  0  0  0  0  0  0  0  0  0  0
    7.1812   -0.4596    0.0000 H   0  0  0  0  0  0  0  0  0  0  0  0
    2.6900   -7.8145    0.0000 H   0  0  0  0  0  0  0  0  0  0  0  0
    5.7313    0.4064    0.0000 H   0  0  0  0  0  0  0  0  0  0  0  0
    5.7313   -0.3907    0.0000 H   0  0  0  0  0  0  0  0  0  0  0  0
    2.0000   -6.6576    0.0000 H   0  0  0  0  0  0  0  0  0  0  0  0
    1.3800   -7.2776    0.0000 H   0  0  0  0  0  0  0  0  0  0  0  0
    2.0000   -7.8976    0.0000 H   0  0  0  0  0  0  0  0  0  0  0  0
    2.9631   -8.4536    0.0000 H   0  0  0  0  0  0  0  0  0  0  0  0
    3.8100   -8.6805    0.0000 H   0  0  0  0  0  0  0  0  0  0  0  0
    4.0369   -7.8336    0.0000 H   0  0  0  0  0  0  0  0  0  0  0  0
    7.1812    0.4754    0.0000 H   0  0  0  0  0  0  0  0  0  0  0  0
    7.1812    1.2724    0.0000 H   0  0  0  0  0  0  0  0  0  0  0  0
    7.9091    1.5525    0.0000 H   0  0  0  0  0  0  0  0  0  0  0  0
    8.7848    1.5066    0.0000 H   0  0  0  0  0  0  0  0  0  0  0  0
    8.8306    2.3822    0.0000 H   0  0  0  0  0  0  0  0  0  0  0  0
    9.5664    2.8910    0.0000 H   0  0  0  0  0  0  0  0  0  0  0  0
    7.5113    5.4304    0.0000 H   0  0  0  0  0  0  0  0  0  0  0  0
   11.2157    5.1610    0.0000 H   0  0  0  0  0  0  0  0  0  0  0  0
   11.0464    3.5499    0.0000 H   0  0  0  0  0  0  0  0  0  0  0  0
    7.6726    7.0883    0.0000 H   0  0  0  0  0  0  0  0  0  0  0  0
    9.8519    8.0764    0.0000 H   0  0  0  0  0  0  0  0  0  0  0  0
    9.3027    8.7599    0.0000 H   0  0  0  0  0  0  0  0  0  0  0  0
    8.6192    8.2108    0.0000 H   0  0  0  0  0  0  0  0  0  0  0  0
  1 26  1  0  0  0  0
  1 27  1  0  0  0  0
  2 21  2  0  0  0  0
  3 13  1  0  0  0  0
  3 14  1  0  0  0  0
  3 20  1  0  0  0  0
  4 17  1  0  0  0  0
  4 21  1  0  0  0  0
  4 22  1  0  0  0  0
  5 27  1  0  0  0  0
  5 28  1  0  0  0  0
  5 30  1  0  0  0  0
  6  7  1  0  0  0  0
  6 27  2  0  0  0  0
  7 28  2  0  0  0  0
  8 32  1  0  0  0  0
  8 38  2  0  0  0  0
  9 10  1  0  0  0  0
  9 11  1  0  0  0  0
  9 18  2  0  0  0  0
 10 12  1  0  0  0  0
 10 19  2  0  0  0  0
 11 13  1  0  0  0  0
 11 40  1  0  0  0  0
 11 41  1  0  0  0  0
 12 14  1  0  0  0  0
 12 42  1  0  0  0  0
 12 43  1  0  0  0  0
 13 44  1  0  0  0  0
 13 45  1  0  0  0  0
 14 46  1  0  0  0  0
 14 47  1  0  0  0  0
 15 16  2  0  0  0  0
 15 17  1  0  0  0  0
 15 18  1  0  0  0  0
 16 19  1  0  0  0  0
 16 21  1  0  0  0  0
 17 48  1  0  0  0  0
 17 49  1  0  0  0  0
 18 50  1  0  0  0  0
 19 51  1  0  0  0  0
 20 23  1  0  0  0  0
 20 52  1  0  0  0  0
 20 53  1  0  0  0  0
 22 24  1  0  0  0  0
 22 25  1  0  0  0  0
 22 54  1  0  0  0  0
 23 26  1  0  0  0  0
 23 55  1  0  0  0  0
 23 56  1  0  0  0  0
 24 57  1  0  0  0  0
 24 58  1  0  0  0  0
 24 59  1  0  0  0  0
 25 60  1  0  0  0  0
 25 61  1  0  0  0  0
 25 62  1  0  0  0  0
 26 63  1  0  0  0  0
 26 64  1  0  0  0  0
 28 29  1  0  0  0  0
 29 31  2  0  0  0  0
 29 33  1  0  0  0  0
 30 65  1  0  0  0  0
 30 66  1  0  0  0  0
 30 67  1  0  0  0  0
 31 32  1  0  0  0  0
 31 34  1  0  0  0  0
 32 35  2  0  0  0  0
 33 36  2  0  0  0  0
 33 68  1  0  0  0  0
 34 37  2  0  0  0  0
 34 69  1  0  0  0  0
 35 36  1  0  0  0  0
 35 70  1  0  0  0  0
 36 71  1  0  0  0  0
 37 38  1  0  0  0  0
 37 72  1  0  0  0  0
 38 39  1  0  0  0  0
 39 73  1  0  0  0  0
 39 74  1  0  0  0  0
 39 75  1  0  0  0  0
M  END
> <PUBCHEM_COMPOUND_CID>
11620847

> <PUBCHEM_COMPOUND_CANONICALIZED>
1

> <PUBCHEM_CACTVS_COMPLEXITY>
844

> <PUBCHEM_CACTVS_HBOND_ACCEPTOR>
6

> <PUBCHEM_CACTVS_HBOND_DONOR>
0

> <PUBCHEM_CACTVS_ROTATABLE_BOND>
7

> <PUBCHEM_CACTVS_SUBSKEYS>
AAADcfB7oABAAAAAAAAAAAAAAAAAAWLAAAA8YIAABYAAAFix/AAAHgQIAAAADCjF3wSz0PcMEAiqAydydACS0CtlArAd2CE4ZNiIKPLgnZGEIQhgjgLIyYcciMCOwAACQAASAACAAASAACQAAAAAAAAAAA==

> <PUBCHEM_IUPAC_OPENEYE_NAME>
2-isopropyl-7-[3-[[4-methyl-5-(2-methyl-5-quinolyl)-1,2,4-triazol-3-yl]sulfanyl]propyl]-5,6,8,9-tetrahydro-1H-pyrrolo[3,4-h][3]benzazepin-3-one

> <PUBCHEM_IUPAC_CAS_NAME>
7-[3-[[4-methyl-5-(2-methyl-5-quinolinyl)-1,2,4-triazol-3-yl]thio]propyl]-2-propan-2-yl-5,6,8,9-tetrahydro-1H-pyrrolo[3,4-h][3]benzazepin-3-one

> <PUBCHEM_IUPAC_NAME_MARKUP>
7-[3-[[4-methyl-5-(2-methylquinolin-5-yl)-1,2,4-triazol-3-yl]sulfanyl]propyl]-2-propan-2-yl-5,6,8,9-tetrahydro-1<I>H</I>-pyrrolo[3,4-h][3]benzazepin-3-one

> <PUBCHEM_IUPAC_NAME>
7-[3-[[4-methyl-5-(2-methylquinolin-5-yl)-1,2,4-triazol-3-yl]sulfanyl]propyl]-2-propan-2-yl-5,6,8,9-tetrahydro-1H-pyrrolo[3,4-h][3]benzazepin-3-one

> <PUBCHEM_IUPAC_SYSTEMATIC_NAME>
7-[3-[[4-methyl-5-(2-methylquinolin-5-yl)-1,2,4-triazol-3-yl]sulfanyl]propyl]-2-propan-2-yl-5,6,8,9-tetrahydro-1H-pyrrolo[3,4-h][3]benzazepin-3-one

> <PUBCHEM_IUPAC_TRADITIONAL_NAME>
2-isopropyl-7-[3-[[4-methyl-5-(2-methyl-5-quinolyl)-1,2,4-triazol-3-yl]thio]propyl]-5,6,8,9-tetrahydro-1H-pyrrolo[3,4-h][3]benzazepin-3-one

> <PUBCHEM_IUPAC_INCHI>
InChI=1S/C31H36N6OS/c1-20(2)37-19-24-17-22-11-14-36(15-12-23(22)18-27(24)30(37)38)13-6-16-39-31-34-33-29(35(31)4)26-7-5-8-28-25(26)10-9-21(3)32-28/h5,7-10,17-18,20H,6,11-16,19H2,1-4H3

> <PUBCHEM_IUPAC_INCHIKEY>
RLYPJRVMOKDHBV-UHFFFAOYSA-N

> <PUBCHEM_XLOGP3_AA>
4.8

> <PUBCHEM_EXACT_MASS>
540.26713097

> <PUBCHEM_MOLECULAR_FORMULA>
C31H36N6OS

> <PUBCHEM_MOLECULAR_WEIGHT>
540.7

> <PUBCHEM_OPENEYE_CAN_SMILES>
CC1=NC2=CC=CC(=C2C=C1)C3=NN=C(N3C)SCCCN4CCC5=CC6=C(C=C5CC4)C(=O)N(C6)C(C)C

> <PUBCHEM_OPENEYE_ISO_SMILES>
CC1=NC2=CC=CC(=C2C=C1)C3=NN=C(N3C)SCCCN4CCC5=CC6=C(C=C5CC4)C(=O)N(C6)C(C)C

> <PUBCHEM_CACTVS_TPSA>
92.4

> <PUBCHEM_MONOISOTOPIC_WEIGHT>
540.26713097

> <PUBCHEM_TOTAL_CHARGE>
0

> <PUBCHEM_HEAVY_ATOM_COUNT>
39

> <PUBCHEM_ATOM_DEF_STEREO_COUNT>
0

> <PUBCHEM_ATOM_UDEF_STEREO_COUNT>
0

> <PUBCHEM_BOND_DEF_STEREO_COUNT>
0

> <PUBCHEM_BOND_UDEF_STEREO_COUNT>
0

> <PUBCHEM_ISOTOPIC_ATOM_COUNT>
0

> <PUBCHEM_COMPONENT_COUNT>
1

> <PUBCHEM_CACTVS_TAUTO_COUNT>
-1

> <PUBCHEM_COORDINATE_TYPE>
1
5
255

> <PUBCHEM_BONDANNOTATIONS>
10  19  8
15  16  8
15  18  8
16  19  8
29  31  8
29  33  8
31  32  8
31  34  8
32  35  8
33  36  8
34  37  8
35  36  8
37  38  8
5  27  8
5  28  8
6  27  8
6  7  8
7  28  8
8  32  8
8  38  8
9  10  8
9  18  8

$$$$
