71541180
  -OEChem-09292322052D

 40 43  0     1  0  0  0  0  0999 V2000
    4.1087   -2.4052    0.0000 S   0  0  0  0  0  0  0  0  0  0  0  0
    5.8262    2.1791    0.0000 N   0  0  3  0  0  0  0  0  0  0  0  0
    2.7149   -1.6004    0.0000 N   0  0  0  0  0  0  0  0  0  0  0  0
    8.8262    3.9112    0.0000 N   0  0  0  0  0  0  0  0  0  0  0  0
    2.6200   -3.3742    0.0000 N   0  0  0  0  0  0  0  0  0  0  0  0
    6.3798    1.3695    0.0000 C   0  0  0  0  0  0  0  0  0  0  0  0
    4.8483    2.2537    0.0000 C   0  0  0  0  0  0  0  0  0  0  0  0
    6.0945    0.4311    0.0000 C   0  0  0  0  0  0  0  0  0  0  0  0
    4.1783    1.5375    0.0000 C   0  0  0  0  0  0  0  0  0  0  0  0
    5.1840    0.0667    0.0000 C   0  0  0  0  0  0  0  0  0  0  0  0
    4.3179    0.5667    0.0000 C   0  0  0  0  0  0  0  0  0  0  0  0
    6.3262    3.0452    0.0000 C   0  0  0  0  0  0  0  0  0  0  0  0
    5.1840   -0.9333    0.0000 C   0  0  0  0  0  0  0  0  0  0  0  0
    3.4519    0.0667    0.0000 C   0  0  0  0  0  0  0  0  0  0  0  0
    4.3179   -1.4333    0.0000 C   0  0  0  0  0  0  0  0  0  0  0  0
    3.4519   -0.9333    0.0000 C   0  0  0  0  0  0  0  0  0  0  0  0
    7.3262    3.0452    0.0000 C   0  0  0  0  0  0  0  0  0  0  0  0
    7.8262    2.1791    0.0000 C   0  0  0  0  0  0  0  0  0  0  0  0
    7.8262    3.9112    0.0000 C   0  0  0  0  0  0  0  0  0  0  0  0
    3.1200   -2.5082    0.0000 C   0  0  0  0  0  0  0  0  0  0  0  0
    8.8262    2.1791    0.0000 C   0  0  0  0  0  0  0  0  0  0  0  0
    9.3262    3.0452    0.0000 C   0  0  0  0  0  0  0  0  0  0  0  0
    6.9177    1.0612    0.0000 H   0  0  0  0  0  0  0  0  0  0  0  0
    6.8005    1.8249    0.0000 H   0  0  0  0  0  0  0  0  0  0  0  0
    5.0324    2.8458    0.0000 H   0  0  0  0  0  0  0  0  0  0  0  0
    4.3123    2.5654    0.0000 H   0  0  0  0  0  0  0  0  0  0  0  0
    6.1905   -0.1814    0.0000 H   0  0  0  0  0  0  0  0  0  0  0  0
    6.7130    0.3878    0.0000 H   0  0  0  0  0  0  0  0  0  0  0  0
    3.8316    2.0514    0.0000 H   0  0  0  0  0  0  0  0  0  0  0  0
    3.5998    1.3143    0.0000 H   0  0  0  0  0  0  0  0  0  0  0  0
    6.4339    3.6557    0.0000 H   0  0  0  0  0  0  0  0  0  0  0  0
    5.7436    3.2572    0.0000 H   0  0  0  0  0  0  0  0  0  0  0  0
    5.7209   -1.2433    0.0000 H   0  0  0  0  0  0  0  0  0  0  0  0
    2.9150    0.3767    0.0000 H   0  0  0  0  0  0  0  0  0  0  0  0
    7.5162    1.6422    0.0000 H   0  0  0  0  0  0  0  0  0  0  0  0
    7.5162    4.4481    0.0000 H   0  0  0  0  0  0  0  0  0  0  0  0
    9.1362    1.6422    0.0000 H   0  0  0  0  0  0  0  0  0  0  0  0
    9.9462    3.0452    0.0000 H   0  0  0  0  0  0  0  0  0  0  0  0
    2.0000   -3.3742    0.0000 H   0  0  0  0  0  0  0  0  0  0  0  0
    2.9300   -3.9112    0.0000 H   0  0  0  0  0  0  0  0  0  0  0  0
  1 15  1  0  0  0  0
  1 20  1  0  0  0  0
  2  6  1  0  0  0  0
  2  7  1  0  0  0  0
  2 12  1  0  0  0  0
  3 16  1  0  0  0  0
  3 20  2  0  0  0  0
  4 19  1  0  0  0  0
  4 22  2  0  0  0  0
  5 20  1  0  0  0  0
  5 39  1  0  0  0  0
  5 40  1  0  0  0  0
  6  8  1  0  0  0  0
  6 23  1  0  0  0  0
  6 24  1  0  0  0  0
  7  9  1  0  0  0  0
  7 25  1  0  0  0  0
  7 26  1  0  0  0  0
  8 10  1  0  0  0  0
  8 27  1  0  0  0  0
  8 28  1  0  0  0  0
  9 11  1  0  0  0  0
  9 29  1  0  0  0  0
  9 30  1  0  0  0  0
 10 11  1  0  0  0  0
 10 13  2  0  0  0  0
 11 14  2  0  0  0  0
 12 17  1  0  0  0  0
 12 31  1  0  0  0  0
 12 32  1  0  0  0  0
 13 15  1  0  0  0  0
 13 33  1  0  0  0  0
 14 16  1  0  0  0  0
 14 34  1  0  0  0  0
 15 16  2  0  0  0  0
 17 18  1  0  0  0  0
 17 19  2  0  0  0  0
 18 21  2  0  0  0  0
 18 35  1  0  0  0  0
 19 36  1  0  0  0  0
 21 22  1  0  0  0  0
 21 37  1  0  0  0  0
 22 38  1  0  0  0  0
M  END
> <PUBCHEM_COMPOUND_CID>
71541180

> <PUBCHEM_COMPOUND_CANONICALIZED>
1

> <PUBCHEM_CACTVS_COMPLEXITY>
380

> <PUBCHEM_CACTVS_HBOND_ACCEPTOR>
5

> <PUBCHEM_CACTVS_HBOND_DONOR>
1

> <PUBCHEM_CACTVS_ROTATABLE_BOND>
2

> <PUBCHEM_CACTVS_SUBSKEYS>
AAADceB7gABAAAAAAAAAAAAAAAAAAWAAAAA8QAAABYAAAFgB/AAAHAQQAAAADAjBXgQ90bNIEAikAzRnZACD8KlxCjlI2Dw4ZJiIIOLg0ZGEIAhggALIyCcQgIAOmAAAwAAQAQAwAAGAACACAAAAAAAAAA==

> <PUBCHEM_IUPAC_OPENEYE_NAME>
7-(3-pyridylmethyl)-5,6,8,9-tetrahydrothiazolo[4,5-h][3]benzazepin-2-amine

> <PUBCHEM_IUPAC_CAS_NAME>
7-(3-pyridinylmethyl)-5,6,8,9-tetrahydrothiazolo[4,5-h][3]benzazepin-2-amine

> <PUBCHEM_IUPAC_NAME_MARKUP>
7-(pyridin-3-ylmethyl)-5,6,8,9-tetrahydro-[1,3]thiazolo[4,5-h][3]benzazepin-2-amine

> <PUBCHEM_IUPAC_NAME>
7-(pyridin-3-ylmethyl)-5,6,8,9-tetrahydro-[1,3]thiazolo[4,5-h][3]benzazepin-2-amine

> <PUBCHEM_IUPAC_SYSTEMATIC_NAME>
7-(pyridin-3-ylmethyl)-5,6,8,9-tetrahydro-[1,3]thiazolo[4,5-h][3]benzazepin-2-amine

> <PUBCHEM_IUPAC_TRADITIONAL_NAME>
[7-(3-pyridylmethyl)-5,6,8,9-tetrahydrothiazolo[4,5-h][3]benzazepin-2-yl]amine

> <PUBCHEM_IUPAC_INCHI>
InChI=1S/C17H18N4S/c18-17-20-15-8-13-3-6-21(11-12-2-1-5-19-10-12)7-4-14(13)9-16(15)22-17/h1-2,5,8-10H,3-4,6-7,11H2,(H2,18,20)

> <PUBCHEM_IUPAC_INCHIKEY>
JPKHZHOYEQNEDE-UHFFFAOYSA-N

> <PUBCHEM_XLOGP3_AA>
2.8

> <PUBCHEM_EXACT_MASS>
310.12521776

> <PUBCHEM_MOLECULAR_FORMULA>
C17H18N4S

> <PUBCHEM_MOLECULAR_WEIGHT>
310.4

> <PUBCHEM_OPENEYE_CAN_SMILES>
C1CN(CCC2=CC3=C(C=C21)N=C(S3)N)CC4=CN=CC=C4

> <PUBCHEM_OPENEYE_ISO_SMILES>
C1CN(CCC2=CC3=C(C=C21)N=C(S3)N)CC4=CN=CC=C4

> <PUBCHEM_CACTVS_TPSA>
83.3

> <PUBCHEM_MONOISOTOPIC_WEIGHT>
310.12521776

> <PUBCHEM_TOTAL_CHARGE>
0

> <PUBCHEM_HEAVY_ATOM_COUNT>
22

> <PUBCHEM_ATOM_DEF_STEREO_COUNT>
0

> <PUBCHEM_ATOM_UDEF_STEREO_COUNT>
0

> <PUBCHEM_BOND_DEF_STEREO_COUNT>
0

> <PUBCHEM_BOND_UDEF_STEREO_COUNT>
0

> <PUBCHEM_ISOTOPIC_ATOM_COUNT>
0

> <PUBCHEM_COMPONENT_COUNT>
1

> <PUBCHEM_CACTVS_TAUTO_COUNT>
-1

> <PUBCHEM_COORDINATE_TYPE>
1
5
255

> <PUBCHEM_BONDANNOTATIONS>
1  15  8
1  20  8
10  11  8
10  13  8
11  14  8
13  15  8
14  16  8
15  16  8
17  18  8
17  19  8
18  21  8
21  22  8
3  16  8
3  20  8
4  19  8
4  22  8

$$$$
