56598070
  -OEChem-09292321592D

 54 57  0     1  0  0  0  0  0999 V2000
    3.1266    0.3804    0.0000 Cl  0  0  0  0  0  0  0  0  0  0  0  0
    2.0000   -1.2721    0.0000 Cl  0  0  0  0  0  0  0  0  0  0  0  0
   14.6426    0.4545    0.0000 S   0  0  0  0  0  0  0  0  0  0  0  0
   11.0983    2.2592    0.0000 O   0  0  0  0  0  0  0  0  0  0  0  0
    6.7682    1.7592    0.0000 N   0  0  3  0  0  0  0  0  0  0  0  0
    5.1210    0.2309    0.0000 N   0  0  3  0  0  0  0  0  0  0  0  0
   14.6426    2.0640    0.0000 N   0  0  0  0  0  0  0  0  0  0  0  0
    5.9420    2.3226    0.0000 C   0  0  0  0  0  0  0  0  0  0  0  0
    6.8429    0.7620    0.0000 C   0  0  0  0  0  0  0  0  0  0  0  0
    4.9864    2.0278    0.0000 C   0  0  0  0  0  0  0  0  0  0  0  0
    6.1099    0.0819    0.0000 C   0  0  0  0  0  0  0  0  0  0  0  0
    4.6210    1.0969    0.0000 C   0  0  0  0  0  0  0  0  0  0  0  0
    7.6342    2.2592    0.0000 C   0  0  0  0  0  0  0  0  0  0  0  0
    8.5002    1.7592    0.0000 C   0  0  0  0  0  0  0  0  0  0  0  0
    4.5577   -0.5953    0.0000 C   0  0  0  0  0  0  0  0  0  0  0  0
    9.3663    2.2592    0.0000 C   0  0  0  0  0  0  0  0  0  0  0  0
   10.2323    1.7592    0.0000 C   0  0  0  0  0  0  0  0  0  0  0  0
    3.5605   -0.5206    0.0000 C   0  0  0  0  0  0  0  0  0  0  0  0
    4.9916   -1.4963    0.0000 C   0  0  0  0  0  0  0  0  0  0  0  0
    2.9972   -1.3469    0.0000 C   0  0  0  0  0  0  0  0  0  0  0  0
    4.4283   -2.3226    0.0000 C   0  0  0  0  0  0  0  0  0  0  0  0
    3.4311   -2.2478    0.0000 C   0  0  0  0  0  0  0  0  0  0  0  0
   11.9644    1.7592    0.0000 C   0  0  0  0  0  0  0  0  0  0  0  0
   12.8304    2.2592    0.0000 C   0  0  0  0  0  0  0  0  0  0  0  0
   11.9644    0.7592    0.0000 C   0  0  0  0  0  0  0  0  0  0  0  0
   13.6964    1.7592    0.0000 C   0  0  0  0  0  0  0  0  0  0  0  0
   13.6964    0.7592    0.0000 C   0  0  0  0  0  0  0  0  0  0  0  0
   12.8304    0.2592    0.0000 C   0  0  0  0  0  0  0  0  0  0  0  0
   15.2262    1.2592    0.0000 C   0  0  0  0  0  0  0  0  0  0  0  0
    6.3964    2.7443    0.0000 H   0  0  0  0  0  0  0  0  0  0  0  0
    5.6320    2.8595    0.0000 H   0  0  0  0  0  0  0  0  0  0  0  0
    7.1529    0.2251    0.0000 H   0  0  0  0  0  0  0  0  0  0  0  0
    7.4354    0.9448    0.0000 H   0  0  0  0  0  0  0  0  0  0  0  0
    4.9401    2.6461    0.0000 H   0  0  0  0  0  0  0  0  0  0  0  0
    4.3733    2.1202    0.0000 H   0  0  0  0  0  0  0  0  0  0  0  0
    5.8834   -0.4953    0.0000 H   0  0  0  0  0  0  0  0  0  0  0  0
    6.6222   -0.2674    0.0000 H   0  0  0  0  0  0  0  0  0  0  0  0
    4.1088    1.4462    0.0000 H   0  0  0  0  0  0  0  0  0  0  0  0
    4.1666    0.6752    0.0000 H   0  0  0  0  0  0  0  0  0  0  0  0
    8.0328    2.7342    0.0000 H   0  0  0  0  0  0  0  0  0  0  0  0
    7.2357    2.7342    0.0000 H   0  0  0  0  0  0  0  0  0  0  0  0
    8.1017    1.2843    0.0000 H   0  0  0  0  0  0  0  0  0  0  0  0
    8.8988    1.2843    0.0000 H   0  0  0  0  0  0  0  0  0  0  0  0
    9.7648    2.7342    0.0000 H   0  0  0  0  0  0  0  0  0  0  0  0
    8.9678    2.7342    0.0000 H   0  0  0  0  0  0  0  0  0  0  0  0
    9.8338    1.2843    0.0000 H   0  0  0  0  0  0  0  0  0  0  0  0
   10.6308    1.2843    0.0000 H   0  0  0  0  0  0  0  0  0  0  0  0
    5.6099   -1.5426    0.0000 H   0  0  0  0  0  0  0  0  0  0  0  0
    4.6973   -2.8812    0.0000 H   0  0  0  0  0  0  0  0  0  0  0  0
    3.0818   -2.7601    0.0000 H   0  0  0  0  0  0  0  0  0  0  0  0
   12.8304    2.8792    0.0000 H   0  0  0  0  0  0  0  0  0  0  0  0
   11.4274    0.4492    0.0000 H   0  0  0  0  0  0  0  0  0  0  0  0
   12.8304   -0.3608    0.0000 H   0  0  0  0  0  0  0  0  0  0  0  0
   15.8462    1.2592    0.0000 H   0  0  0  0  0  0  0  0  0  0  0  0
  1 18  1  0  0  0  0
  2 20  1  0  0  0  0
  3 27  1  0  0  0  0
  3 29  1  0  0  0  0
  4 17  1  0  0  0  0
  4 23  1  0  0  0  0
  5  8  1  0  0  0  0
  5  9  1  0  0  0  0
  5 13  1  0  0  0  0
  6 11  1  0  0  0  0
  6 12  1  0  0  0  0
  6 15  1  0  0  0  0
  7 26  1  0  0  0  0
  7 29  2  0  0  0  0
  8 10  1  0  0  0  0
  8 30  1  0  0  0  0
  8 31  1  0  0  0  0
  9 11  1  0  0  0  0
  9 32  1  0  0  0  0
  9 33  1  0  0  0  0
 10 12  1  0  0  0  0
 10 34  1  0  0  0  0
 10 35  1  0  0  0  0
 11 36  1  0  0  0  0
 11 37  1  0  0  0  0
 12 38  1  0  0  0  0
 12 39  1  0  0  0  0
 13 14  1  0  0  0  0
 13 40  1  0  0  0  0
 13 41  1  0  0  0  0
 14 16  1  0  0  0  0
 14 42  1  0  0  0  0
 14 43  1  0  0  0  0
 15 18  2  0  0  0  0
 15 19  1  0  0  0  0
 16 17  1  0  0  0  0
 16 44  1  0  0  0  0
 16 45  1  0  0  0  0
 17 46  1  0  0  0  0
 17 47  1  0  0  0  0
 18 20  1  0  0  0  0
 19 21  2  0  0  0  0
 19 48  1  0  0  0  0
 20 22  2  0  0  0  0
 21 22  1  0  0  0  0
 21 49  1  0  0  0  0
 22 50  1  0  0  0  0
 23 24  2  0  0  0  0
 23 25  1  0  0  0  0
 24 26  1  0  0  0  0
 24 51  1  0  0  0  0
 25 28  2  0  0  0  0
 25 52  1  0  0  0  0
 26 27  2  0  0  0  0
 27 28  1  0  0  0  0
 28 53  1  0  0  0  0
 29 54  1  0  0  0  0
M  END
> <PUBCHEM_COMPOUND_CID>
56598070

> <PUBCHEM_COMPOUND_CANONICALIZED>
1

> <PUBCHEM_CACTVS_COMPLEXITY>
503

> <PUBCHEM_CACTVS_HBOND_ACCEPTOR>
5

> <PUBCHEM_CACTVS_HBOND_DONOR>
0

> <PUBCHEM_CACTVS_ROTATABLE_BOND>
7

> <PUBCHEM_CACTVS_SUBSKEYS>
AAADceB7IABGAAAAAAAAAAAAAAAAAWAAAAAwYAAABYAAAFgB9AAAHgYAAAAACA7h1ia0x7MIFAikASRjRACD+KBxLzhI2nw+bpgMZqLl85vWOCjmwBnI6AewUAMAAIAAAgIAARQBAAAEBAACKAAAAAAAAA==

> <PUBCHEM_IUPAC_OPENEYE_NAME>
5-[4-[4-(2,3-dichlorophenyl)-1,4-diazepan-1-yl]butoxy]-1,3-benzothiazole

> <PUBCHEM_IUPAC_CAS_NAME>
5-[4-[4-(2,3-dichlorophenyl)-1,4-diazepan-1-yl]butoxy]-1,3-benzothiazole

> <PUBCHEM_IUPAC_NAME_MARKUP>
5-[4-[4-(2,3-dichlorophenyl)-1,4-diazepan-1-yl]butoxy]-1,3-benzothiazole

> <PUBCHEM_IUPAC_NAME>
5-[4-[4-(2,3-dichlorophenyl)-1,4-diazepan-1-yl]butoxy]-1,3-benzothiazole

> <PUBCHEM_IUPAC_SYSTEMATIC_NAME>
5-[4-[4-[2,3-bis(chloranyl)phenyl]-1,4-diazepan-1-yl]butoxy]-1,3-benzothiazole

> <PUBCHEM_IUPAC_TRADITIONAL_NAME>
5-[4-[4-(2,3-dichlorophenyl)-1,4-diazepan-1-yl]butoxy]-1,3-benzothiazole

> <PUBCHEM_IUPAC_INCHI>
InChI=1S/C22H25Cl2N3OS/c23-18-5-3-6-20(22(18)24)27-11-4-10-26(12-13-27)9-1-2-14-28-17-7-8-21-19(15-17)25-16-29-21/h3,5-8,15-16H,1-2,4,9-14H2

> <PUBCHEM_IUPAC_INCHIKEY>
WYMJRTXYUOPUMF-UHFFFAOYSA-N

> <PUBCHEM_XLOGP3_AA>
6.3

> <PUBCHEM_EXACT_MASS>
449.1095390

> <PUBCHEM_MOLECULAR_FORMULA>
C22H25Cl2N3OS

> <PUBCHEM_MOLECULAR_WEIGHT>
450.4

> <PUBCHEM_OPENEYE_CAN_SMILES>
C1CN(CCN(C1)C2=C(C(=CC=C2)Cl)Cl)CCCCOC3=CC4=C(C=C3)SC=N4

> <PUBCHEM_OPENEYE_ISO_SMILES>
C1CN(CCN(C1)C2=C(C(=CC=C2)Cl)Cl)CCCCOC3=CC4=C(C=C3)SC=N4

> <PUBCHEM_CACTVS_TPSA>
56.8

> <PUBCHEM_MONOISOTOPIC_WEIGHT>
449.1095390

> <PUBCHEM_TOTAL_CHARGE>
0

> <PUBCHEM_HEAVY_ATOM_COUNT>
29

> <PUBCHEM_ATOM_DEF_STEREO_COUNT>
0

> <PUBCHEM_ATOM_UDEF_STEREO_COUNT>
0

> <PUBCHEM_BOND_DEF_STEREO_COUNT>
0

> <PUBCHEM_BOND_UDEF_STEREO_COUNT>
0

> <PUBCHEM_ISOTOPIC_ATOM_COUNT>
0

> <PUBCHEM_COMPONENT_COUNT>
1

> <PUBCHEM_CACTVS_TAUTO_COUNT>
-1

> <PUBCHEM_COORDINATE_TYPE>
1
5
255

> <PUBCHEM_BONDANNOTATIONS>
15  18  8
15  19  8
18  20  8
19  21  8
20  22  8
21  22  8
23  24  8
23  25  8
24  26  8
25  28  8
26  27  8
27  28  8
3  27  8
3  29  8
7  26  8
7  29  8

$$$$
