25096873
  -OEChem-09292322322D

 62 63  0     0  0  0  0  0  0999 V2000
    3.0000    2.6200    0.0000 Cl  0  0  0  0  0  0  0  0  0  0  0  0
    3.0000    0.6200    0.0000 Cl  0  0  0  0  0  0  0  0  0  0  0  0
    0.0000    6.5785    0.0000 Cl  0  0  0  0  0  0  0  0  0  0  0  0
    7.3301   11.1200    0.0000 O   0  0  0  0  0  0  0  0  0  0  0  0
    4.7320    5.6200    0.0000 N   0  0  0  0  0  0  0  0  0  0  0  0
    5.5981   11.1200    0.0000 N   0  0  0  0  0  0  0  0  0  0  0  0
    4.7320    3.6200    0.0000 N   0  0  0  0  0  0  0  0  0  0  0  0
    6.4641   12.6200    0.0000 N   0  0  0  0  0  0  0  0  0  0  0  0
    5.5981    8.1200    0.0000 C   0  0  0  0  0  0  0  0  0  0  0  0
    6.4641    8.6200    0.0000 C   0  0  0  0  0  0  0  0  0  0  0  0
    4.7320    8.6200    0.0000 C   0  0  0  0  0  0  0  0  0  0  0  0
    5.5981   10.1200    0.0000 C   0  0  0  0  0  0  0  0  0  0  0  0
    6.4641    9.6200    0.0000 C   0  0  0  0  0  0  0  0  0  0  0  0
    4.7320    9.6200    0.0000 C   0  0  0  0  0  0  0  0  0  0  0  0
    5.5981    7.1200    0.0000 C   0  0  0  0  0  0  0  0  0  0  0  0
    4.7320    6.6200    0.0000 C   0  0  0  0  0  0  0  0  0  0  0  0
    5.5981    5.1200    0.0000 C   0  0  0  0  0  0  0  0  0  0  0  0
    3.8660    5.1200    0.0000 C   0  0  0  0  0  0  0  0  0  0  0  0
    5.5981    4.1200    0.0000 C   0  0  0  0  0  0  0  0  0  0  0  0
    3.8660    4.1200    0.0000 C   0  0  0  0  0  0  0  0  0  0  0  0
    6.4641   11.6200    0.0000 C   0  0  0  0  0  0  0  0  0  0  0  0
    4.7320    2.6200    0.0000 C   0  0  0  0  0  0  0  0  0  0  0  0
    3.8660    2.1200    0.0000 C   0  0  0  0  0  0  0  0  0  0  0  0
    5.5981    2.1200    0.0000 C   0  0  0  0  0  0  0  0  0  0  0  0
    7.3301   13.1200    0.0000 C   0  0  0  0  0  0  0  0  0  0  0  0
    5.5981   13.1200    0.0000 C   0  0  0  0  0  0  0  0  0  0  0  0
    3.8660    1.1200    0.0000 C   0  0  0  0  0  0  0  0  0  0  0  0
    5.5981    1.1200    0.0000 C   0  0  0  0  0  0  0  0  0  0  0  0
    4.7320    0.6200    0.0000 C   0  0  0  0  0  0  0  0  0  0  0  0
    6.1350    7.8100    0.0000 H   0  0  0  0  0  0  0  0  0  0  0  0
    6.6762    8.0374    0.0000 H   0  0  0  0  0  0  0  0  0  0  0  0
    7.0747    8.7277    0.0000 H   0  0  0  0  0  0  0  0  0  0  0  0
    4.1215    8.7277    0.0000 H   0  0  0  0  0  0  0  0  0  0  0  0
    4.5200    8.0374    0.0000 H   0  0  0  0  0  0  0  0  0  0  0  0
    6.1350   10.4300    0.0000 H   0  0  0  0  0  0  0  0  0  0  0  0
    7.0747    9.5123    0.0000 H   0  0  0  0  0  0  0  0  0  0  0  0
    6.6762   10.2026    0.0000 H   0  0  0  0  0  0  0  0  0  0  0  0
    4.5200   10.2026    0.0000 H   0  0  0  0  0  0  0  0  0  0  0  0
    4.1215    9.5123    0.0000 H   0  0  0  0  0  0  0  0  0  0  0  0
    5.8101    6.5374    0.0000 H   0  0  0  0  0  0  0  0  0  0  0  0
    6.2087    7.2277    0.0000 H   0  0  0  0  0  0  0  0  0  0  0  0
    4.5200    7.2026    0.0000 H   0  0  0  0  0  0  0  0  0  0  0  0
    4.1215    6.5123    0.0000 H   0  0  0  0  0  0  0  0  0  0  0  0
    6.2087    5.0123    0.0000 H   0  0  0  0  0  0  0  0  0  0  0  0
    5.8101    5.7026    0.0000 H   0  0  0  0  0  0  0  0  0  0  0  0
    3.6540    5.7026    0.0000 H   0  0  0  0  0  0  0  0  0  0  0  0
    3.2554    5.0123    0.0000 H   0  0  0  0  0  0  0  0  0  0  0  0
    5.0611   11.4300    0.0000 H   0  0  0  0  0  0  0  0  0  0  0  0
    5.8101    3.5374    0.0000 H   0  0  0  0  0  0  0  0  0  0  0  0
    6.2087    4.2277    0.0000 H   0  0  0  0  0  0  0  0  0  0  0  0
    3.2554    4.2277    0.0000 H   0  0  0  0  0  0  0  0  0  0  0  0
    3.6540    3.5374    0.0000 H   0  0  0  0  0  0  0  0  0  0  0  0
    6.1350    2.4300    0.0000 H   0  0  0  0  0  0  0  0  0  0  0  0
    7.6401   12.5831    0.0000 H   0  0  0  0  0  0  0  0  0  0  0  0
    7.8671   13.4300    0.0000 H   0  0  0  0  0  0  0  0  0  0  0  0
    7.0201   13.6569    0.0000 H   0  0  0  0  0  0  0  0  0  0  0  0
    5.9081   13.6569    0.0000 H   0  0  0  0  0  0  0  0  0  0  0  0
    5.0611   13.4300    0.0000 H   0  0  0  0  0  0  0  0  0  0  0  0
    5.2881   12.5831    0.0000 H   0  0  0  0  0  0  0  0  0  0  0  0
    6.1350    0.8100    0.0000 H   0  0  0  0  0  0  0  0  0  0  0  0
    4.7320    0.0000    0.0000 H   0  0  0  0  0  0  0  0  0  0  0  0
    1.0000    6.5785    0.0000 H   0  0  0  0  0  0  0  0  0  0  0  0
  1 23  1  0  0  0  0
  2 27  1  0  0  0  0
  3 62  1  0  0  0  0
  4 21  2  0  0  0  0
  5 16  1  0  0  0  0
  5 17  1  0  0  0  0
  5 18  1  0  0  0  0
  6 12  1  0  0  0  0
  6 21  1  0  0  0  0
  6 48  1  0  0  0  0
  7 19  1  0  0  0  0
  7 20  1  0  0  0  0
  7 22  1  0  0  0  0
  8 21  1  0  0  0  0
  8 25  1  0  0  0  0
  8 26  1  0  0  0  0
  9 10  1  0  0  0  0
  9 11  1  0  0  0  0
  9 15  1  0  0  0  0
  9 30  1  0  0  0  0
 10 13  1  0  0  0  0
 10 31  1  0  0  0  0
 10 32  1  0  0  0  0
 11 14  1  0  0  0  0
 11 33  1  0  0  0  0
 11 34  1  0  0  0  0
 12 13  1  0  0  0  0
 12 14  1  0  0  0  0
 12 35  1  0  0  0  0
 13 36  1  0  0  0  0
 13 37  1  0  0  0  0
 14 38  1  0  0  0  0
 14 39  1  0  0  0  0
 15 16  1  0  0  0  0
 15 40  1  0  0  0  0
 15 41  1  0  0  0  0
 16 42  1  0  0  0  0
 16 43  1  0  0  0  0
 17 19  1  0  0  0  0
 17 44  1  0  0  0  0
 17 45  1  0  0  0  0
 18 20  1  0  0  0  0
 18 46  1  0  0  0  0
 18 47  1  0  0  0  0
 19 49  1  0  0  0  0
 19 50  1  0  0  0  0
 20 51  1  0  0  0  0
 20 52  1  0  0  0  0
 22 23  2  0  0  0  0
 22 24  1  0  0  0  0
 23 27  1  0  0  0  0
 24 28  2  0  0  0  0
 24 53  1  0  0  0  0
 25 54  1  0  0  0  0
 25 55  1  0  0  0  0
 25 56  1  0  0  0  0
 26 57  1  0  0  0  0
 26 58  1  0  0  0  0
 26 59  1  0  0  0  0
 27 29  2  0  0  0  0
 28 29  1  0  0  0  0
 28 60  1  0  0  0  0
 29 61  1  0  0  0  0
M  END
> <PUBCHEM_COMPOUND_CID>
25096873

> <PUBCHEM_COMPOUND_CANONICALIZED>
1

> <PUBCHEM_CACTVS_COMPLEXITY>
491

> <PUBCHEM_CACTVS_HBOND_ACCEPTOR>
3

> <PUBCHEM_CACTVS_HBOND_DONOR>
2

> <PUBCHEM_CACTVS_ROTATABLE_BOND>
5

> <PUBCHEM_CACTVS_SUBSKEYS>
AAADcfB7oAAGAAAAAAAAAAAAAAAAAAAAAAA8YIAAAAAAAAABAAAAHgIQAAAADSrBECQzwIPAAACIACRCUACCAAAhBwAIisAIZoiIYCLBk5HUIAholgLIyAcQgIAOAAAAAAIAABQQAAAABAAAKAAAAAAAAA==

> <PUBCHEM_IUPAC_OPENEYE_NAME>
3-[4-[2-[4-(2,3-dichlorophenyl)piperazin-1-yl]ethyl]cyclohexyl]-1,1-dimethyl-urea;hydrochloride

> <PUBCHEM_IUPAC_CAS_NAME>
3-[4-[2-[4-(2,3-dichlorophenyl)-1-piperazinyl]ethyl]cyclohexyl]-1,1-dimethylurea;hydrochloride

> <PUBCHEM_IUPAC_NAME_MARKUP>
3-[4-[2-[4-(2,3-dichlorophenyl)piperazin-1-yl]ethyl]cyclohexyl]-1,1-dimethylurea;hydrochloride

> <PUBCHEM_IUPAC_NAME>
3-[4-[2-[4-(2,3-dichlorophenyl)piperazin-1-yl]ethyl]cyclohexyl]-1,1-dimethylurea;hydrochloride

> <PUBCHEM_IUPAC_SYSTEMATIC_NAME>
3-[4-[2-[4-[2,3-bis(chloranyl)phenyl]piperazin-1-yl]ethyl]cyclohexyl]-1,1-dimethyl-urea;hydrochloride

> <PUBCHEM_IUPAC_TRADITIONAL_NAME>
3-[4-[2-[4-(2,3-dichlorophenyl)piperazino]ethyl]cyclohexyl]-1,1-dimethyl-urea;hydrochloride

> <PUBCHEM_IUPAC_INCHI>
InChI=1S/C21H32Cl2N4O.ClH/c1-25(2)21(28)24-17-8-6-16(7-9-17)10-11-26-12-14-27(15-13-26)19-5-3-4-18(22)20(19)23;/h3-5,16-17H,6-15H2,1-2H3,(H,24,28);1H

> <PUBCHEM_IUPAC_INCHIKEY>
GPPJWWMREQHLQT-UHFFFAOYSA-N

> <PUBCHEM_EXACT_MASS>
462.171995

> <PUBCHEM_MOLECULAR_FORMULA>
C21H33Cl3N4O

> <PUBCHEM_MOLECULAR_WEIGHT>
463.9

> <PUBCHEM_OPENEYE_CAN_SMILES>
CN(C)C(=O)NC1CCC(CC1)CCN2CCN(CC2)C3=C(C(=CC=C3)Cl)Cl.Cl

> <PUBCHEM_OPENEYE_ISO_SMILES>
CN(C)C(=O)NC1CCC(CC1)CCN2CCN(CC2)C3=C(C(=CC=C3)Cl)Cl.Cl

> <PUBCHEM_CACTVS_TPSA>
38.8

> <PUBCHEM_MONOISOTOPIC_WEIGHT>
462.171995

> <PUBCHEM_TOTAL_CHARGE>
0

> <PUBCHEM_HEAVY_ATOM_COUNT>
29

> <PUBCHEM_ATOM_DEF_STEREO_COUNT>
0

> <PUBCHEM_ATOM_UDEF_STEREO_COUNT>
0

> <PUBCHEM_BOND_DEF_STEREO_COUNT>
0

> <PUBCHEM_BOND_UDEF_STEREO_COUNT>
0

> <PUBCHEM_ISOTOPIC_ATOM_COUNT>
0

> <PUBCHEM_COMPONENT_COUNT>
2

> <PUBCHEM_CACTVS_TAUTO_COUNT>
-1

> <PUBCHEM_COORDINATE_TYPE>
1
5
255

> <PUBCHEM_BONDANNOTATIONS>
22  23  8
22  24  8
23  27  8
24  28  8
27  29  8
28  29  8

$$$$
