168297547
  -OEChem-09292322442D

 76 82  0     1  0  0  0  0  0999 V2000
    8.2704    3.3926    0.0000 F   0  0  0  0  0  0  0  0  0  0  0  0
    8.0279    2.2422    0.0000 F   0  0  0  0  0  0  0  0  0  0  0  0
   12.4099    3.3176    0.0000 F   0  0  0  0  0  0  0  0  0  0  0  0
   11.9099    2.4516    0.0000 F   0  0  0  0  0  0  0  0  0  0  0  0
    4.9872   -5.6473    0.0000 O   0  0  0  0  0  0  0  0  0  0  0  0
   10.5438    2.8176    0.0000 N   0  0  0  0  0  0  0  0  0  0  0  0
    9.6778    3.3176    0.0000 N   0  0  3  0  0  0  0  0  0  0  0  0
    9.3459    1.7428    0.0000 N   0  3  0  0  0  0  0  0  0  0  0  0
    4.6680   -2.1979    0.0000 N   0  0  0  0  0  0  0  0  0  0  0  0
   11.4099    4.3177    0.0000 N   0  3  0  0  0  0  0  0  0  0  0  0
    3.8319   -4.0148    0.0000 N   0  0  0  0  0  0  0  0  0  0  0  0
    7.9136    0.7117    0.0000 N   0  0  0  0  0  0  0  0  0  0  0  0
   10.3346    1.8458    0.0000 C   0  0  0  0  0  0  0  0  0  0  0  0
    3.6722   -2.2901    0.0000 C   0  0  0  0  0  0  0  0  0  0  0  0
    5.2457   -3.0142    0.0000 C   0  0  0  0  0  0  0  0  0  0  0  0
   10.5438    4.8177    0.0000 C   0  0  0  0  0  0  0  0  0  0  0  0
    5.0860   -1.2895    0.0000 C   0  0  0  0  0  0  0  0  0  0  0  0
    3.2542   -3.1985    0.0000 C   0  0  0  0  0  0  0  0  0  0  0  0
    4.8276   -3.9226    0.0000 C   0  0  0  0  0  0  0  0  0  0  0  0
    9.6778    4.3177    0.0000 C   0  0  0  0  0  0  0  0  0  0  0  0
    8.9094    0.8038    0.0000 C   0  0  0  0  0  0  0  0  0  0  0  0
    6.0818   -1.1973    0.0000 C   0  0  0  0  0  0  0  0  0  0  0  0
   12.1469    4.9847    0.0000 C   0  0  0  0  0  0  0  0  0  0  0  0
    6.4998   -0.2889    0.0000 C   0  0  0  0  0  0  0  0  0  0  0  0
   11.7418    5.8925    0.0000 C   0  0  0  0  0  0  0  0  0  0  0  0
    7.4956   -0.1968    0.0000 C   0  0  0  0  0  0  0  0  0  0  0  0
   10.7530    5.7895    0.0000 C   0  0  0  0  0  0  0  0  0  0  0  0
   10.9554    1.0171    0.0000 C   0  0  0  0  0  0  0  0  0  0  0  0
    9.5108   -0.0391    0.0000 C   0  0  0  0  0  0  0  0  0  0  0  0
    3.4138   -4.9232    0.0000 C   0  0  0  0  0  0  0  0  0  0  0  0
   10.5407    0.0683    0.0000 C   0  0  0  0  0  0  0  0  0  0  0  0
   13.1750    4.8615    0.0000 C   0  0  0  0  0  0  0  0  0  0  0  0
   12.3367    6.7400    0.0000 C   0  0  0  0  0  0  0  0  0  0  0  0
    3.9915   -5.7394    0.0000 C   0  0  0  0  0  0  0  0  0  0  0  0
   13.7893    5.6950    0.0000 C   0  0  0  0  0  0  0  0  0  0  0  0
    2.4181   -5.0153    0.0000 C   0  0  0  0  0  0  0  0  0  0  0  0
   13.3673    6.6406    0.0000 C   0  0  0  0  0  0  0  0  0  0  0  0
    3.5734   -6.6479    0.0000 C   0  0  0  0  0  0  0  0  0  0  0  0
    2.0000   -5.9238    0.0000 C   0  0  0  0  0  0  0  0  0  0  0  0
    2.5777   -6.7400    0.0000 C   0  0  0  0  0  0  0  0  0  0  0  0
    5.5649   -6.4635    0.0000 C   0  0  0  0  0  0  0  0  0  0  0  0
    8.9408    2.6506    0.0000 B   0  5  0  0  0  0  0  0  0  0  0  0
   11.4099    3.3176    0.0000 B   0  5  0  0  0  0  0  0  0  0  0  0
    3.7232   -1.6722    0.0000 H   0  0  0  0  0  0  0  0  0  0  0  0
    3.0726   -2.1326    0.0000 H   0  0  0  0  0  0  0  0  0  0  0  0
    5.7553   -3.3672    0.0000 H   0  0  0  0  0  0  0  0  0  0  0  0
    5.6819   -2.5736    0.0000 H   0  0  0  0  0  0  0  0  0  0  0  0
    5.1370   -0.6716    0.0000 H   0  0  0  0  0  0  0  0  0  0  0  0
    4.4864   -1.1320    0.0000 H   0  0  0  0  0  0  0  0  0  0  0  0
    2.7445   -2.8454    0.0000 H   0  0  0  0  0  0  0  0  0  0  0  0
    2.8180   -3.6391    0.0000 H   0  0  0  0  0  0  0  0  0  0  0  0
    4.7767   -4.5405    0.0000 H   0  0  0  0  0  0  0  0  0  0  0  0
    5.4273   -4.0801    0.0000 H   0  0  0  0  0  0  0  0  0  0  0  0
    9.1409    4.6276    0.0000 H   0  0  0  0  0  0  0  0  0  0  0  0
    6.0308   -1.8152    0.0000 H   0  0  0  0  0  0  0  0  0  0  0  0
    6.6815   -1.3548    0.0000 H   0  0  0  0  0  0  0  0  0  0  0  0
    6.5508    0.3290    0.0000 H   0  0  0  0  0  0  0  0  0  0  0  0
    5.9002   -0.1315    0.0000 H   0  0  0  0  0  0  0  0  0  0  0  0
    7.4447   -0.8147    0.0000 H   0  0  0  0  0  0  0  0  0  0  0  0
    8.0953   -0.3542    0.0000 H   0  0  0  0  0  0  0  0  0  0  0  0
   10.3390    6.2509    0.0000 H   0  0  0  0  0  0  0  0  0  0  0  0
   11.5713    1.0885    0.0000 H   0  0  0  0  0  0  0  0  0  0  0  0
    7.5555    1.2177    0.0000 H   0  0  0  0  0  0  0  0  0  0  0  0
    9.2560   -0.6043    0.0000 H   0  0  0  0  0  0  0  0  0  0  0  0
   10.9066   -0.4322    0.0000 H   0  0  0  0  0  0  0  0  0  0  0  0
   13.4211    4.2925    0.0000 H   0  0  0  0  0  0  0  0  0  0  0  0
   12.0775    7.3032    0.0000 H   0  0  0  0  0  0  0  0  0  0  0  0
   14.4057    5.6284    0.0000 H   0  0  0  0  0  0  0  0  0  0  0  0
    2.0599   -4.5093    0.0000 H   0  0  0  0  0  0  0  0  0  0  0  0
   13.7294    7.1439    0.0000 H   0  0  0  0  0  0  0  0  0  0  0  0
    3.9316   -7.1539    0.0000 H   0  0  0  0  0  0  0  0  0  0  0  0
    1.3826   -5.9809    0.0000 H   0  0  0  0  0  0  0  0  0  0  0  0
    2.3185   -7.3032    0.0000 H   0  0  0  0  0  0  0  0  0  0  0  0
    5.0588   -6.8217    0.0000 H   0  0  0  0  0  0  0  0  0  0  0  0
    5.9231   -6.9696    0.0000 H   0  0  0  0  0  0  0  0  0  0  0  0
    6.0710   -6.1054    0.0000 H   0  0  0  0  0  0  0  0  0  0  0  0
  1 42  1  0  0  0  0
  2 42  1  0  0  0  0
  3 43  1  0  0  0  0
  4 43  1  0  0  0  0
  5 34  1  0  0  0  0
  5 41  1  0  0  0  0
  6  7  1  0  0  0  0
  6 13  1  0  0  0  0
  6 43  1  0  0  0  0
  7 20  1  0  0  0  0
  7 42  1  0  0  0  0
  8 13  1  0  0  0  0
  8 21  2  0  0  0  0
  8 42  1  0  0  0  0
  9 14  1  0  0  0  0
  9 15  1  0  0  0  0
  9 17  1  0  0  0  0
 10 16  1  0  0  0  0
 10 23  2  0  0  0  0
 10 43  1  0  0  0  0
 11 18  1  0  0  0  0
 11 19  1  0  0  0  0
 11 30  1  0  0  0  0
 12 21  1  0  0  0  0
 12 26  1  0  0  0  0
 12 63  1  0  0  0  0
 13 28  2  0  0  0  0
 14 18  1  0  0  0  0
 14 44  1  0  0  0  0
 14 45  1  0  0  0  0
 15 19  1  0  0  0  0
 15 46  1  0  0  0  0
 15 47  1  0  0  0  0
 16 20  2  0  0  0  0
 16 27  1  0  0  0  0
 17 22  1  0  0  0  0
 17 48  1  0  0  0  0
 17 49  1  0  0  0  0
 18 50  1  0  0  0  0
 18 51  1  0  0  0  0
 19 52  1  0  0  0  0
 19 53  1  0  0  0  0
 20 54  1  0  0  0  0
 21 29  1  0  0  0  0
 22 24  1  0  0  0  0
 22 55  1  0  0  0  0
 22 56  1  0  0  0  0
 23 25  1  0  0  0  0
 23 32  1  0  0  0  0
 24 26  1  0  0  0  0
 24 57  1  0  0  0  0
 24 58  1  0  0  0  0
 25 27  2  0  0  0  0
 25 33  1  0  0  0  0
 26 59  1  0  0  0  0
 26 60  1  0  0  0  0
 27 61  1  0  0  0  0
 28 31  1  0  0  0  0
 28 62  1  0  0  0  0
 29 31  2  0  0  0  0
 29 64  1  0  0  0  0
 30 34  1  0  0  0  0
 30 36  2  0  0  0  0
 31 65  1  0  0  0  0
 32 35  2  0  0  0  0
 32 66  1  0  0  0  0
 33 37  2  0  0  0  0
 33 67  1  0  0  0  0
 34 38  2  0  0  0  0
 35 37  1  0  0  0  0
 35 68  1  0  0  0  0
 36 39  1  0  0  0  0
 36 69  1  0  0  0  0
 37 70  1  0  0  0  0
 38 40  1  0  0  0  0
 38 71  1  0  0  0  0
 39 40  2  0  0  0  0
 39 72  1  0  0  0  0
 40 73  1  0  0  0  0
 41 74  1  0  0  0  0
 41 75  1  0  0  0  0
 41 76  1  0  0  0  0
M  CHG  4   8   1  10   1  42  -1  43  -1
M  END
> <PUBCHEM_COMPOUND_CID>
168297547

> <PUBCHEM_COMPOUND_CANONICALIZED>
1

> <PUBCHEM_CACTVS_COMPLEXITY>
1240

> <PUBCHEM_CACTVS_HBOND_ACCEPTOR>
12

> <PUBCHEM_CACTVS_HBOND_DONOR>
1

> <PUBCHEM_CACTVS_ROTATABLE_BOND>
8

> <PUBCHEM_CACTVS_SUBSKEYS>
AAADcfN7ocAAAAAAAAAAAAAAAAAAAWIAAAA8WIECAAAAAFgBwAAUHgAYAAAADAzBkgYz9pPIFACgAyZmZACCjCkhIiAdmKA/bJiOZuLEuZuVMChs0BPY6CeQQAAAAAAAAAAAEAAAAAAAAAAgAAAAAAAAAA==

> <PUBCHEM_IUPAC_OPENEYE_NAME>
2,2,10,10-tetrafluoro-N-[4-[4-(2-methoxyphenyl)piperazin-1-yl]butyl]-3,11-diaza-1,9-diazonia-2,10-diboranuidapentacyclo[11.7.0.03,11.04,9.015,20]icosa-1(20),4,6,8,12,14,16,18-octaen-8-amine

> <PUBCHEM_IUPAC_CAS_NAME>
2,2,10,10-tetrafluoro-N-[4-[4-(2-methoxyphenyl)-1-piperazinyl]butyl]-3,11-diaza-1,9-diazonia-2,10-diboranuidapentacyclo[11.7.0.03,11.04,9.015,20]eicosa-1(20),4,6,8,12,14,16,18-octaen-8-amine

> <PUBCHEM_IUPAC_NAME_MARKUP>
2,2,10,10-tetrafluoro-<I>N</I>-[4-[4-(2-methoxyphenyl)piperazin-1-yl]butyl]-3,11-diaza-1,9-diazonia-2,10-diboranuidapentacyclo[11.7.0.0<SUP>3,11</SUP>.0<SUP>4,9</SUP>.0<SUP>15,20</SUP>]icosa-1(20),4,6,8,12,14,16,18-octaen-8-amine

> <PUBCHEM_IUPAC_NAME>
2,2,10,10-tetrafluoro-N-[4-[4-(2-methoxyphenyl)piperazin-1-yl]butyl]-3,11-diaza-1,9-diazonia-2,10-diboranuidapentacyclo[11.7.0.03,11.04,9.015,20]icosa-1(20),4,6,8,12,14,16,18-octaen-8-amine

> <PUBCHEM_IUPAC_SYSTEMATIC_NAME>
2,2,10,10-tetrakis(fluoranyl)-N-[4-[4-(2-methoxyphenyl)piperazin-1-yl]butyl]-3,11-diaza-1,9-diazonia-2,10-diboranuidapentacyclo[11.7.0.03,11.04,9.015,20]icosa-1(20),4,6,8,12,14,16,18-octaen-8-amine

> <PUBCHEM_IUPAC_TRADITIONAL_NAME>
4-[4-(2-methoxyphenyl)piperazino]butyl-(2,2,10,10-tetrafluoro-3,11-diaza-1,9-diazonia-2,10-diboranuidapentacyclo[11.7.0.03,11.04,9.015,20]eicosa-1(20),4,6,8,12,14,16,18-octaen-8-yl)amine

> <PUBCHEM_IUPAC_INCHI>
InChI=1S/C29H33B2F4N7O/c1-43-27-12-5-4-11-26(27)38-19-17-37(18-20-38)16-7-6-15-36-28-13-8-14-29-41(28)30(32,33)39-22-24-21-23-9-2-3-10-25(23)40(24)31(34,35)42(29)39/h2-5,8-14,21-22,36H,6-7,15-20H2,1H3

> <PUBCHEM_IUPAC_INCHIKEY>
SHKMYWRRXARHJG-UHFFFAOYSA-N

> <PUBCHEM_EXACT_MASS>
593.2868817

> <PUBCHEM_MOLECULAR_FORMULA>
C29H33B2F4N7O

> <PUBCHEM_MOLECULAR_WEIGHT>
593.2

> <PUBCHEM_OPENEYE_CAN_SMILES>
[B-]1(N2C=C3C=C4C=CC=CC4=[N+]3[B-](N2C5=CC=CC(=[N+]51)NCCCCN6CCN(CC6)C7=CC=CC=C7OC)(F)F)(F)F

> <PUBCHEM_OPENEYE_ISO_SMILES>
[B-]1(N2C=C3C=C4C=CC=CC4=[N+]3[B-](N2C5=CC=CC(=[N+]51)NCCCCN6CCN(CC6)C7=CC=CC=C7OC)(F)F)(F)F

> <PUBCHEM_CACTVS_TPSA>
41.1

> <PUBCHEM_MONOISOTOPIC_WEIGHT>
593.2868817

> <PUBCHEM_TOTAL_CHARGE>
0

> <PUBCHEM_HEAVY_ATOM_COUNT>
43

> <PUBCHEM_ATOM_DEF_STEREO_COUNT>
0

> <PUBCHEM_ATOM_UDEF_STEREO_COUNT>
0

> <PUBCHEM_BOND_DEF_STEREO_COUNT>
0

> <PUBCHEM_BOND_UDEF_STEREO_COUNT>
0

> <PUBCHEM_ISOTOPIC_ATOM_COUNT>
0

> <PUBCHEM_COMPONENT_COUNT>
1

> <PUBCHEM_CACTVS_TAUTO_COUNT>
-1

> <PUBCHEM_COORDINATE_TYPE>
1
5
255

> <PUBCHEM_BONDANNOTATIONS>
13  28  8
21  29  8
23  25  8
23  32  8
25  33  8
28  31  8
29  31  8
30  34  8
30  36  8
32  35  8
33  37  8
34  38  8
35  37  8
36  39  8
38  40  8
39  40  8
8  13  8
8  21  8

$$$$
