162671452
  -OEChem-09292322432D

 58 62  0     1  0  0  0  0  0999 V2000
    5.9237    4.0099    0.0000 O   0  0  0  0  0  0  0  0  0  0  0  0
    8.5497    2.4752    0.0000 O   0  0  0  0  0  0  0  0  0  0  0  0
    8.5618    6.5445    0.0000 O   0  0  0  0  0  0  0  0  0  0  0  0
    2.5061   -2.0992    0.0000 O   0  0  0  0  0  0  0  0  0  0  0  0
    5.9237    1.9406    0.0000 N   0  0  3  0  0  0  0  0  0  0  0  0
    4.2381   -2.0792    0.0000 N   0  0  0  0  0  0  0  0  0  0  0  0
    2.5915   -4.1820    0.0000 N   0  0  0  0  0  0  0  0  0  0  0  0
    6.8177    2.4752    0.0000 C   0  0  2  0  0  0  0  0  0  0  0  0
    6.8177    3.4752    0.0000 C   0  0  1  0  0  0  0  0  0  0  0  0
    5.0177    2.4544    0.0000 C   0  0  0  0  0  0  0  0  0  0  0  0
    7.6837    1.9752    0.0000 C   0  0  0  0  0  0  0  0  0  0  0  0
    5.9353    0.9406    0.0000 C   0  0  0  0  0  0  0  0  0  0  0  0
    7.6837    3.9752    0.0000 C   0  0  0  0  0  0  0  0  0  0  0  0
    5.0177    3.4960    0.0000 C   0  0  0  0  0  0  0  0  0  0  0  0
    5.0751    0.4307    0.0000 C   0  0  0  0  0  0  0  0  0  0  0  0
    8.5497    3.4752    0.0000 C   0  0  0  0  0  0  0  0  0  0  0  0
    5.0867   -0.5693    0.0000 C   0  0  0  0  0  0  0  0  0  0  0  0
    7.6676    5.0167    0.0000 C   0  0  0  0  0  0  0  0  0  0  0  0
    9.4597    3.9821    0.0000 C   0  0  0  0  0  0  0  0  0  0  0  0
    4.2265   -1.0793    0.0000 C   0  0  0  0  0  0  0  0  0  0  0  0
    8.5657    5.5445    0.0000 C   0  0  0  0  0  0  0  0  0  0  0  0
    9.4678    5.0237    0.0000 C   0  0  0  0  0  0  0  0  0  0  0  0
    3.3779   -2.5892    0.0000 C   0  0  0  0  0  0  0  0  0  0  0  0
    3.3894   -3.5891    0.0000 C   0  0  0  0  0  0  0  0  0  0  0  0
    4.2009   -4.1634    0.0000 C   0  0  0  0  0  0  0  0  0  0  0  0
    2.9072   -5.1246    0.0000 C   0  0  0  0  0  0  0  0  0  0  0  0
    3.9071   -5.1130    0.0000 C   0  0  0  0  0  0  0  0  0  0  0  0
    2.4172   -5.9964    0.0000 C   0  0  0  0  0  0  0  0  0  0  0  0
    4.4171   -5.9732    0.0000 C   0  0  0  0  0  0  0  0  0  0  0  0
    2.9272   -6.8566    0.0000 C   0  0  0  0  0  0  0  0  0  0  0  0
    3.9271   -6.8450    0.0000 C   0  0  0  0  0  0  0  0  0  0  0  0
    6.8242    1.6252    0.0000 H   0  0  0  0  0  0  0  0  0  0  0  0
    6.8242    4.3252    0.0000 H   0  0  0  0  0  0  0  0  0  0  0  0
    4.4068    2.5605    0.0000 H   0  0  0  0  0  0  0  0  0  0  0  0
    4.8086    1.8707    0.0000 H   0  0  0  0  0  0  0  0  0  0  0  0
    7.2852    1.5003    0.0000 H   0  0  0  0  0  0  0  0  0  0  0  0
    8.0822    1.5003    0.0000 H   0  0  0  0  0  0  0  0  0  0  0  0
    6.1541    0.3605    0.0000 H   0  0  0  0  0  0  0  0  0  0  0  0
    6.5446    1.0554    0.0000 H   0  0  0  0  0  0  0  0  0  0  0  0
    4.8086    4.0797    0.0000 H   0  0  0  0  0  0  0  0  0  0  0  0
    4.4068    3.3900    0.0000 H   0  0  0  0  0  0  0  0  0  0  0  0
    4.8564    1.0108    0.0000 H   0  0  0  0  0  0  0  0  0  0  0  0
    4.4658    0.3159    0.0000 H   0  0  0  0  0  0  0  0  0  0  0  0
    5.3055   -1.1494    0.0000 H   0  0  0  0  0  0  0  0  0  0  0  0
    5.6960   -0.4546    0.0000 H   0  0  0  0  0  0  0  0  0  0  0  0
    7.1272    5.3205    0.0000 H   0  0  0  0  0  0  0  0  0  0  0  0
    9.9930    3.6659    0.0000 H   0  0  0  0  0  0  0  0  0  0  0  0
    4.0077   -0.4991    0.0000 H   0  0  0  0  0  0  0  0  0  0  0  0
    3.6172   -1.1940    0.0000 H   0  0  0  0  0  0  0  0  0  0  0  0
   10.0059    5.3316    0.0000 H   0  0  0  0  0  0  0  0  0  0  0  0
    4.7786   -2.3830    0.0000 H   0  0  0  0  0  0  0  0  0  0  0  0
    9.0976    6.8566    0.0000 H   0  0  0  0  0  0  0  0  0  0  0  0
    2.0000   -3.9962    0.0000 H   0  0  0  0  0  0  0  0  0  0  0  0
    4.7879   -3.9640    0.0000 H   0  0  0  0  0  0  0  0  0  0  0  0
    1.7972   -6.0035    0.0000 H   0  0  0  0  0  0  0  0  0  0  0  0
    5.0370   -5.9661    0.0000 H   0  0  0  0  0  0  0  0  0  0  0  0
    2.6234   -7.3970    0.0000 H   0  0  0  0  0  0  0  0  0  0  0  0
    4.2433   -7.3783    0.0000 H   0  0  0  0  0  0  0  0  0  0  0  0
  1  9  1  0  0  0  0
  1 14  1  0  0  0  0
  2 11  1  0  0  0  0
  2 16  1  0  0  0  0
  3 21  1  0  0  0  0
  3 52  1  0  0  0  0
  4 23  2  0  0  0  0
  5  8  1  0  0  0  0
  5 10  1  0  0  0  0
  5 12  1  0  0  0  0
  6 20  1  0  0  0  0
  6 23  1  0  0  0  0
  6 51  1  0  0  0  0
  7 24  1  0  0  0  0
  7 26  1  0  0  0  0
  7 53  1  0  0  0  0
  8  9  1  0  0  0  0
  8 11  1  0  0  0  0
  8 32  1  1  0  0  0
  9 13  1  0  0  0  0
  9 33  1  1  0  0  0
 10 14  1  0  0  0  0
 10 34  1  0  0  0  0
 10 35  1  0  0  0  0
 11 36  1  0  0  0  0
 11 37  1  0  0  0  0
 12 15  1  0  0  0  0
 12 38  1  0  0  0  0
 12 39  1  0  0  0  0
 13 16  2  0  0  0  0
 13 18  1  0  0  0  0
 14 40  1  0  0  0  0
 14 41  1  0  0  0  0
 15 17  1  0  0  0  0
 15 42  1  0  0  0  0
 15 43  1  0  0  0  0
 16 19  1  0  0  0  0
 17 20  1  0  0  0  0
 17 44  1  0  0  0  0
 17 45  1  0  0  0  0
 18 21  2  0  0  0  0
 18 46  1  0  0  0  0
 19 22  2  0  0  0  0
 19 47  1  0  0  0  0
 20 48  1  0  0  0  0
 20 49  1  0  0  0  0
 21 22  1  0  0  0  0
 22 50  1  0  0  0  0
 23 24  1  0  0  0  0
 24 25  2  0  0  0  0
 25 27  1  0  0  0  0
 25 54  1  0  0  0  0
 26 27  1  0  0  0  0
 26 28  2  0  0  0  0
 27 29  2  0  0  0  0
 28 30  1  0  0  0  0
 28 55  1  0  0  0  0
 29 31  1  0  0  0  0
 29 56  1  0  0  0  0
 30 31  2  0  0  0  0
 30 57  1  0  0  0  0
 31 58  1  0  0  0  0
M  END
> <PUBCHEM_COMPOUND_CID>
162671452

> <PUBCHEM_COMPOUND_CANONICALIZED>
1

> <PUBCHEM_CACTVS_COMPLEXITY>
620

> <PUBCHEM_CACTVS_HBOND_ACCEPTOR>
5

> <PUBCHEM_CACTVS_HBOND_DONOR>
3

> <PUBCHEM_CACTVS_ROTATABLE_BOND>
6

> <PUBCHEM_CACTVS_SUBSKEYS>
AAADceB7OAAAAAAAAAAAAAAAAAAAAWAAAAA8aIEAAAAAAFix9AAAHgAQCAAADDzhngYwxvPJlgCoAyVyVACCiCAnIiAImaG+bNgOZ/LGtbuXeSjl1hHY+Yf42bOeAQABAAAKAAACAAIAABQAAAAAAAAAAA==

> <PUBCHEM_IUPAC_OPENEYE_NAME>
N-[4-[(4aS,10bR)-9-hydroxy-3,4a,5,10b-tetrahydro-2H-chromeno[4,3-b][1,4]oxazin-4-yl]butyl]-1H-indole-2-carboxamide

> <PUBCHEM_IUPAC_CAS_NAME>
N-[4-[(4aS,10bR)-9-hydroxy-3,4a,5,10b-tetrahydro-2H-[1]benzopyrano[4,3-b][1,4]oxazin-4-yl]butyl]-1H-indole-2-carboxamide

> <PUBCHEM_IUPAC_NAME_MARKUP>
<I>N</I>-[4-[(4<I>a</I><I>S</I>,10<I>b</I><I>R</I>)-9-hydroxy-3,4<I>a</I>,5,10<I>b</I>-tetrahydro-2<I>H</I>-chromeno[4,3-b][1,4]oxazin-4-yl]butyl]-1<I>H</I>-indole-2-carboxamide

> <PUBCHEM_IUPAC_NAME>
N-[4-[(4aS,10bR)-9-hydroxy-3,4a,5,10b-tetrahydro-2H-chromeno[4,3-b][1,4]oxazin-4-yl]butyl]-1H-indole-2-carboxamide

> <PUBCHEM_IUPAC_SYSTEMATIC_NAME>
N-[4-[(4aS,10bR)-9-oxidanyl-3,4a,5,10b-tetrahydro-2H-chromeno[4,3-b][1,4]oxazin-4-yl]butyl]-1H-indole-2-carboxamide

> <PUBCHEM_IUPAC_TRADITIONAL_NAME>
N-[4-[(4aS,10bR)-9-hydroxy-3,4a,5,10b-tetrahydro-2H-chromeno[4,3-b][1,4]oxazin-4-yl]butyl]-1H-indole-2-carboxamide

> <PUBCHEM_IUPAC_INCHI>
InChI=1S/C24H27N3O4/c28-17-7-8-22-18(14-17)23-21(15-31-22)27(11-12-30-23)10-4-3-9-25-24(29)20-13-16-5-1-2-6-19(16)26-20/h1-2,5-8,13-14,21,23,26,28H,3-4,9-12,15H2,(H,25,29)/t21-,23+/m0/s1

> <PUBCHEM_IUPAC_INCHIKEY>
XUAGVHSWKPRGFP-JTHBVZDNSA-N

> <PUBCHEM_XLOGP3>
3.2

> <PUBCHEM_EXACT_MASS>
421.20015635

> <PUBCHEM_MOLECULAR_FORMULA>
C24H27N3O4

> <PUBCHEM_MOLECULAR_WEIGHT>
421.5

> <PUBCHEM_OPENEYE_CAN_SMILES>
C1COC2C(N1CCCCNC(=O)C3=CC4=CC=CC=C4N3)COC5=C2C=C(C=C5)O

> <PUBCHEM_OPENEYE_ISO_SMILES>
C1CO[C@H]2[C@@H](N1CCCCNC(=O)C3=CC4=CC=CC=C4N3)COC5=C2C=C(C=C5)O

> <PUBCHEM_CACTVS_TPSA>
86.8

> <PUBCHEM_MONOISOTOPIC_WEIGHT>
421.20015635

> <PUBCHEM_TOTAL_CHARGE>
0

> <PUBCHEM_HEAVY_ATOM_COUNT>
31

> <PUBCHEM_ATOM_DEF_STEREO_COUNT>
2

> <PUBCHEM_ATOM_UDEF_STEREO_COUNT>
0

> <PUBCHEM_BOND_DEF_STEREO_COUNT>
0

> <PUBCHEM_BOND_UDEF_STEREO_COUNT>
0

> <PUBCHEM_ISOTOPIC_ATOM_COUNT>
0

> <PUBCHEM_COMPONENT_COUNT>
1

> <PUBCHEM_CACTVS_TAUTO_COUNT>
-1

> <PUBCHEM_COORDINATE_TYPE>
1
5
255

> <PUBCHEM_BONDANNOTATIONS>
13  16  8
13  18  8
16  19  8
18  21  8
19  22  8
21  22  8
24  25  8
25  27  8
26  27  8
26  28  8
27  29  8
28  30  8
29  31  8
30  31  8
7  24  8
7  26  8
8  32  5
9  33  5

$$$$
