137653978
  -OEChem-09292322392D

 75 78  0     1  0  0  0  0  0999 V2000
    4.8714   -2.5547    0.0000 O   0  0  0  0  0  0  0  0  0  0  0  0
    2.5401    2.6778    0.0000 O   0  0  0  0  0  0  0  0  0  0  0  0
    4.6660   -4.3003    0.0000 N   0  0  0  0  0  0  0  0  0  0  0  0
    3.3073   -3.3564    0.0000 N   0  0  0  0  0  0  0  0  0  0  0  0
    6.3981   -6.3003    0.0000 N   0  0  0  0  0  0  0  0  0  0  0  0
    5.5321   -5.8003    0.0000 C   0  0  1  0  0  0  0  0  0  0  0  0
    5.5321   -4.8003    0.0000 C   0  0  0  0  0  0  0  0  0  0  0  0
    3.8000   -4.8003    0.0000 C   0  0  0  0  0  0  0  0  0  0  0  0
    4.6660   -6.3003    0.0000 C   0  0  0  0  0  0  0  0  0  0  0  0
    3.8000   -5.8003    0.0000 C   0  0  0  0  0  0  0  0  0  0  0  0
    2.9061   -4.2656    0.0000 C   0  0  0  0  0  0  0  0  0  0  0  0
    4.3009   -3.3760    0.0000 C   0  0  0  0  0  0  0  0  0  0  0  0
    2.7696   -2.5133    0.0000 C   0  0  0  0  0  0  0  0  0  0  0  0
    2.9061   -6.3350    0.0000 C   0  0  0  0  0  0  0  0  0  0  0  0
    2.0000   -4.7795    0.0000 C   0  0  0  0  0  0  0  0  0  0  0  0
    3.2308   -1.6260    0.0000 C   0  0  0  0  0  0  0  0  0  0  0  0
    6.3981   -7.3003    0.0000 C   0  0  0  0  0  0  0  0  0  0  0  0
    2.0000   -5.8211    0.0000 C   0  0  0  0  0  0  0  0  0  0  0  0
    2.6931   -0.7829    0.0000 C   0  0  0  0  0  0  0  0  0  0  0  0
    3.1544    0.1043    0.0000 C   0  0  0  0  0  0  0  0  0  0  0  0
    7.2641   -7.8003    0.0000 C   0  0  0  0  0  0  0  0  0  0  0  0
    2.6166    0.9474    0.0000 C   0  0  0  0  0  0  0  0  0  0  0  0
    7.2641   -8.8003    0.0000 C   0  0  0  0  0  0  0  0  0  0  0  0
    3.0779    1.8347    0.0000 C   0  0  0  0  0  0  0  0  0  0  0  0
    3.0014    3.5650    0.0000 C   0  0  0  0  0  0  0  0  0  0  0  0
    2.4637    4.4082    0.0000 C   0  0  0  0  0  0  0  0  0  0  0  0
    2.9250    5.2954    0.0000 C   0  0  0  0  0  0  0  0  0  0  0  0
    2.3872    6.1385    0.0000 C   0  0  0  0  0  0  0  0  0  0  0  0
    2.8485    7.0258    0.0000 C   0  0  0  0  0  0  0  0  0  0  0  0
    2.3107    7.8689    0.0000 C   0  0  0  0  0  0  0  0  0  0  0  0
    3.8475    7.0699    0.0000 C   0  0  0  0  0  0  0  0  0  0  0  0
    2.7720    8.7561    0.0000 C   0  0  0  0  0  0  0  0  0  0  0  0
    4.3088    7.9572    0.0000 C   0  0  0  0  0  0  0  0  0  0  0  0
    3.7710    8.8003    0.0000 C   0  0  0  0  0  0  0  0  0  0  0  0
    5.5321   -6.4203    0.0000 H   0  0  0  0  0  0  0  0  0  0  0  0
    6.1426   -4.9079    0.0000 H   0  0  0  0  0  0  0  0  0  0  0  0
    5.7441   -4.2177    0.0000 H   0  0  0  0  0  0  0  0  0  0  0  0
    4.2675   -6.7752    0.0000 H   0  0  0  0  0  0  0  0  0  0  0  0
    5.0646   -6.7752    0.0000 H   0  0  0  0  0  0  0  0  0  0  0  0
    2.2775   -2.1361    0.0000 H   0  0  0  0  0  0  0  0  0  0  0  0
    2.3127   -2.9324    0.0000 H   0  0  0  0  0  0  0  0  0  0  0  0
    6.9350   -5.9903    0.0000 H   0  0  0  0  0  0  0  0  0  0  0  0
    2.9132   -6.9549    0.0000 H   0  0  0  0  0  0  0  0  0  0  0  0
    1.4643   -4.4674    0.0000 H   0  0  0  0  0  0  0  0  0  0  0  0
    3.7229   -2.0032    0.0000 H   0  0  0  0  0  0  0  0  0  0  0  0
    3.6877   -1.2069    0.0000 H   0  0  0  0  0  0  0  0  0  0  0  0
    5.7875   -7.1926    0.0000 H   0  0  0  0  0  0  0  0  0  0  0  0
    6.1860   -7.8829    0.0000 H   0  0  0  0  0  0  0  0  0  0  0  0
    1.4643   -6.1332    0.0000 H   0  0  0  0  0  0  0  0  0  0  0  0
    2.2010   -0.4058    0.0000 H   0  0  0  0  0  0  0  0  0  0  0  0
    2.2362   -1.2020    0.0000 H   0  0  0  0  0  0  0  0  0  0  0  0
    3.6464   -0.2728    0.0000 H   0  0  0  0  0  0  0  0  0  0  0  0
    3.6112    0.5234    0.0000 H   0  0  0  0  0  0  0  0  0  0  0  0
    7.8747   -7.9080    0.0000 H   0  0  0  0  0  0  0  0  0  0  0  0
    7.4762   -7.2177    0.0000 H   0  0  0  0  0  0  0  0  0  0  0  0
    2.1245    1.3246    0.0000 H   0  0  0  0  0  0  0  0  0  0  0  0
    2.1597    0.5283    0.0000 H   0  0  0  0  0  0  0  0  0  0  0  0
    6.6441   -8.8003    0.0000 H   0  0  0  0  0  0  0  0  0  0  0  0
    7.2641   -9.4203    0.0000 H   0  0  0  0  0  0  0  0  0  0  0  0
    7.8841   -8.8003    0.0000 H   0  0  0  0  0  0  0  0  0  0  0  0
    3.5700    1.4575    0.0000 H   0  0  0  0  0  0  0  0  0  0  0  0
    3.5348    2.2538    0.0000 H   0  0  0  0  0  0  0  0  0  0  0  0
    3.4935    3.1879    0.0000 H   0  0  0  0  0  0  0  0  0  0  0  0
    3.4583    3.9842    0.0000 H   0  0  0  0  0  0  0  0  0  0  0  0
    1.9716    4.7853    0.0000 H   0  0  0  0  0  0  0  0  0  0  0  0
    2.0068    3.9890    0.0000 H   0  0  0  0  0  0  0  0  0  0  0  0
    3.4170    4.9182    0.0000 H   0  0  0  0  0  0  0  0  0  0  0  0
    3.3818    5.7145    0.0000 H   0  0  0  0  0  0  0  0  0  0  0  0
    1.8951    6.5157    0.0000 H   0  0  0  0  0  0  0  0  0  0  0  0
    1.9303    5.7194    0.0000 H   0  0  0  0  0  0  0  0  0  0  0  0
    1.6914    7.8415    0.0000 H   0  0  0  0  0  0  0  0  0  0  0  0
    4.1809    6.5472    0.0000 H   0  0  0  0  0  0  0  0  0  0  0  0
    2.4386    9.2789    0.0000 H   0  0  0  0  0  0  0  0  0  0  0  0
    4.9282    7.9846    0.0000 H   0  0  0  0  0  0  0  0  0  0  0  0
    4.0570    9.3504    0.0000 H   0  0  0  0  0  0  0  0  0  0  0  0
  1 12  2  0  0  0  0
  2 24  1  0  0  0  0
  2 25  1  0  0  0  0
  3  7  1  0  0  0  0
  3  8  1  0  0  0  0
  3 12  1  0  0  0  0
  4 11  1  0  0  0  0
  4 12  1  0  0  0  0
  4 13  1  0  0  0  0
  6  5  1  6  0  0  0
  5 17  1  0  0  0  0
  5 42  1  0  0  0  0
  6  7  1  0  0  0  0
  6  9  1  0  0  0  0
  6 35  1  0  0  0  0
  7 36  1  0  0  0  0
  7 37  1  0  0  0  0
  8 10  2  0  0  0  0
  8 11  1  0  0  0  0
  9 10  1  0  0  0  0
  9 38  1  0  0  0  0
  9 39  1  0  0  0  0
 10 14  1  0  0  0  0
 11 15  2  0  0  0  0
 13 16  1  0  0  0  0
 13 40  1  0  0  0  0
 13 41  1  0  0  0  0
 14 18  2  0  0  0  0
 14 43  1  0  0  0  0
 15 18  1  0  0  0  0
 15 44  1  0  0  0  0
 16 19  1  0  0  0  0
 16 45  1  0  0  0  0
 16 46  1  0  0  0  0
 17 21  1  0  0  0  0
 17 47  1  0  0  0  0
 17 48  1  0  0  0  0
 18 49  1  0  0  0  0
 19 20  1  0  0  0  0
 19 50  1  0  0  0  0
 19 51  1  0  0  0  0
 20 22  1  0  0  0  0
 20 52  1  0  0  0  0
 20 53  1  0  0  0  0
 21 23  1  0  0  0  0
 21 54  1  0  0  0  0
 21 55  1  0  0  0  0
 22 24  1  0  0  0  0
 22 56  1  0  0  0  0
 22 57  1  0  0  0  0
 23 58  1  0  0  0  0
 23 59  1  0  0  0  0
 23 60  1  0  0  0  0
 24 61  1  0  0  0  0
 24 62  1  0  0  0  0
 25 26  1  0  0  0  0
 25 63  1  0  0  0  0
 25 64  1  0  0  0  0
 26 27  1  0  0  0  0
 26 65  1  0  0  0  0
 26 66  1  0  0  0  0
 27 28  1  0  0  0  0
 27 67  1  0  0  0  0
 27 68  1  0  0  0  0
 28 29  1  0  0  0  0
 28 69  1  0  0  0  0
 28 70  1  0  0  0  0
 29 30  2  0  0  0  0
 29 31  1  0  0  0  0
 30 32  1  0  0  0  0
 30 71  1  0  0  0  0
 31 33  2  0  0  0  0
 31 72  1  0  0  0  0
 32 34  2  0  0  0  0
 32 73  1  0  0  0  0
 33 34  1  0  0  0  0
 33 74  1  0  0  0  0
 34 75  1  0  0  0  0
M  END
> <PUBCHEM_COMPOUND_CID>
137653978

> <PUBCHEM_COMPOUND_CANONICALIZED>
1

> <PUBCHEM_CACTVS_COMPLEXITY>
594

> <PUBCHEM_CACTVS_HBOND_ACCEPTOR>
3

> <PUBCHEM_CACTVS_HBOND_DONOR>
1

> <PUBCHEM_CACTVS_ROTATABLE_BOND>
15

> <PUBCHEM_CACTVS_SUBSKEYS>
AAADcfB7MAAAAAAAAAAAAAAAAAAAAWAAAAA8YIAAAAAAAFixQAAAHgAQAAAADCjhmAYzwIPABACIAiRCUACCAAAhAgAIiIAIdIiIYCLAkZGWIAhslgLIyCeQwLAOAAAAQAACACAAAACAAAQAQAAAAAAAAA==

> <PUBCHEM_IUPAC_OPENEYE_NAME>
(10R)-3-[6-(4-phenylbutoxy)hexyl]-10-(propylamino)-1,3-diazatricyclo[6.3.1.04,12]dodeca-4,6,8(12)-trien-2-one

> <PUBCHEM_IUPAC_CAS_NAME>
(10R)-3-[6-(4-phenylbutoxy)hexyl]-10-(propylamino)-1,3-diazatricyclo[6.3.1.04,12]dodeca-4,6,8(12)-trien-2-one

> <PUBCHEM_IUPAC_NAME_MARKUP>
(10<I>R</I>)-3-[6-(4-phenylbutoxy)hexyl]-10-(propylamino)-1,3-diazatricyclo[6.3.1.0<SUP>4,12</SUP>]dodeca-4,6,8(12)-trien-2-one

> <PUBCHEM_IUPAC_NAME>
(10R)-3-[6-(4-phenylbutoxy)hexyl]-10-(propylamino)-1,3-diazatricyclo[6.3.1.04,12]dodeca-4,6,8(12)-trien-2-one

> <PUBCHEM_IUPAC_SYSTEMATIC_NAME>
(10R)-3-[6-(4-phenylbutoxy)hexyl]-10-(propylamino)-1,3-diazatricyclo[6.3.1.04,12]dodeca-4,6,8(12)-trien-2-one

> <PUBCHEM_IUPAC_TRADITIONAL_NAME>
(10R)-3-[6-(4-phenylbutoxy)hexyl]-10-(propylamino)-1,3-diazatricyclo[6.3.1.04,12]dodeca-4,6,8(12)-trien-2-one

> <PUBCHEM_IUPAC_INCHI>
InChI=1S/C29H41N3O2/c1-2-18-30-26-22-25-16-12-17-27-28(25)32(23-26)29(33)31(27)19-9-3-4-10-20-34-21-11-8-15-24-13-6-5-7-14-24/h5-7,12-14,16-17,26,30H,2-4,8-11,15,18-23H2,1H3/t26-/m1/s1

> <PUBCHEM_IUPAC_INCHIKEY>
JYECEDKUXBIHSW-AREMUKBSSA-N

> <PUBCHEM_XLOGP3_AA>
5.4

> <PUBCHEM_EXACT_MASS>
463.31987756

> <PUBCHEM_MOLECULAR_FORMULA>
C29H41N3O2

> <PUBCHEM_MOLECULAR_WEIGHT>
463.7

> <PUBCHEM_OPENEYE_CAN_SMILES>
CCCNC1CC2=C3C(=CC=C2)N(C(=O)N3C1)CCCCCCOCCCCC4=CC=CC=C4

> <PUBCHEM_OPENEYE_ISO_SMILES>
CCCN[C@@H]1CC2=C3C(=CC=C2)N(C(=O)N3C1)CCCCCCOCCCCC4=CC=CC=C4

> <PUBCHEM_CACTVS_TPSA>
44.8

> <PUBCHEM_MONOISOTOPIC_WEIGHT>
463.31987756

> <PUBCHEM_TOTAL_CHARGE>
0

> <PUBCHEM_HEAVY_ATOM_COUNT>
34

> <PUBCHEM_ATOM_DEF_STEREO_COUNT>
1

> <PUBCHEM_ATOM_UDEF_STEREO_COUNT>
0

> <PUBCHEM_BOND_DEF_STEREO_COUNT>
0

> <PUBCHEM_BOND_UDEF_STEREO_COUNT>
0

> <PUBCHEM_ISOTOPIC_ATOM_COUNT>
0

> <PUBCHEM_COMPONENT_COUNT>
1

> <PUBCHEM_CACTVS_TAUTO_COUNT>
-1

> <PUBCHEM_COORDINATE_TYPE>
1
5
255

> <PUBCHEM_BONDANNOTATIONS>
10  14  8
11  15  8
14  18  8
15  18  8
29  30  8
29  31  8
3  12  8
3  8  8
30  32  8
31  33  8
32  34  8
33  34  8
4  11  8
4  12  8
6  5  6
8  10  8
8  11  8

$$$$
