44436600
  -OEChem-09292322252D

 58 60  0     0  0  0  0  0  0999 V2000
    2.8660   -5.5600    0.0000 O   0  0  0  0  0  0  0  0  0  0  0  0
    8.0622    1.4400    0.0000 O   0  0  0  0  0  0  0  0  0  0  0  0
    4.5981   -2.5600    0.0000 N   0  0  0  0  0  0  0  0  0  0  0  0
    4.5981   -4.5600    0.0000 N   0  0  0  0  0  0  0  0  0  0  0  0
    6.3301    1.4400    0.0000 N   0  0  0  0  0  0  0  0  0  0  0  0
    5.4641   -3.0600    0.0000 C   0  0  0  0  0  0  0  0  0  0  0  0
    3.7320   -3.0600    0.0000 C   0  0  0  0  0  0  0  0  0  0  0  0
    5.4641   -4.0600    0.0000 C   0  0  0  0  0  0  0  0  0  0  0  0
    3.7320   -4.0600    0.0000 C   0  0  0  0  0  0  0  0  0  0  0  0
    4.5981   -1.5600    0.0000 C   0  0  0  0  0  0  0  0  0  0  0  0
    5.4641   -1.0600    0.0000 C   0  0  0  0  0  0  0  0  0  0  0  0
    4.5981   -5.5600    0.0000 C   0  0  0  0  0  0  0  0  0  0  0  0
    5.4641   -0.0600    0.0000 C   0  0  0  0  0  0  0  0  0  0  0  0
    6.3301    0.4400    0.0000 C   0  0  0  0  0  0  0  0  0  0  0  0
    3.7320   -6.0600    0.0000 C   0  0  0  0  0  0  0  0  0  0  0  0
    5.4641   -6.0600    0.0000 C   0  0  0  0  0  0  0  0  0  0  0  0
    3.7320   -7.0600    0.0000 C   0  0  0  0  0  0  0  0  0  0  0  0
    5.4641   -7.0600    0.0000 C   0  0  0  0  0  0  0  0  0  0  0  0
    4.5981   -7.5600    0.0000 C   0  0  0  0  0  0  0  0  0  0  0  0
    7.1962    1.9400    0.0000 C   0  0  0  0  0  0  0  0  0  0  0  0
    2.0000   -6.0600    0.0000 C   0  0  0  0  0  0  0  0  0  0  0  0
    7.1962    2.9400    0.0000 C   0  0  0  0  0  0  0  0  0  0  0  0
    6.3301    3.4400    0.0000 C   0  0  0  0  0  0  0  0  0  0  0  0
    8.0622    3.4400    0.0000 C   0  0  0  0  0  0  0  0  0  0  0  0
    6.3301    4.4400    0.0000 C   0  0  0  0  0  0  0  0  0  0  0  0
    8.0622    4.4400    0.0000 C   0  0  0  0  0  0  0  0  0  0  0  0
    7.1962    4.9400    0.0000 C   0  0  0  0  0  0  0  0  0  0  0  0
    7.1962    5.9400    0.0000 C   0  0  0  0  0  0  0  0  0  0  0  0
    7.1962    6.9400    0.0000 C   0  0  0  0  0  0  0  0  0  0  0  0
    6.0747   -3.1677    0.0000 H   0  0  0  0  0  0  0  0  0  0  0  0
    5.6762   -2.4774    0.0000 H   0  0  0  0  0  0  0  0  0  0  0  0
    3.5200   -2.4774    0.0000 H   0  0  0  0  0  0  0  0  0  0  0  0
    3.1215   -3.1677    0.0000 H   0  0  0  0  0  0  0  0  0  0  0  0
    5.6762   -4.6426    0.0000 H   0  0  0  0  0  0  0  0  0  0  0  0
    6.0747   -3.9523    0.0000 H   0  0  0  0  0  0  0  0  0  0  0  0
    3.1215   -3.9523    0.0000 H   0  0  0  0  0  0  0  0  0  0  0  0
    3.5200   -4.6426    0.0000 H   0  0  0  0  0  0  0  0  0  0  0  0
    4.3860   -0.9774    0.0000 H   0  0  0  0  0  0  0  0  0  0  0  0
    3.9875   -1.6677    0.0000 H   0  0  0  0  0  0  0  0  0  0  0  0
    5.6762   -1.6426    0.0000 H   0  0  0  0  0  0  0  0  0  0  0  0
    6.0747   -0.9523    0.0000 H   0  0  0  0  0  0  0  0  0  0  0  0
    5.2520    0.5226    0.0000 H   0  0  0  0  0  0  0  0  0  0  0  0
    4.8535   -0.1677    0.0000 H   0  0  0  0  0  0  0  0  0  0  0  0
    6.5422   -0.1426    0.0000 H   0  0  0  0  0  0  0  0  0  0  0  0
    6.9407    0.5477    0.0000 H   0  0  0  0  0  0  0  0  0  0  0  0
    6.0010   -5.7500    0.0000 H   0  0  0  0  0  0  0  0  0  0  0  0
    3.1951   -7.3700    0.0000 H   0  0  0  0  0  0  0  0  0  0  0  0
    6.0010   -7.3700    0.0000 H   0  0  0  0  0  0  0  0  0  0  0  0
    5.7932    1.7500    0.0000 H   0  0  0  0  0  0  0  0  0  0  0  0
    4.5981   -8.1800    0.0000 H   0  0  0  0  0  0  0  0  0  0  0  0
    1.6900   -5.5231    0.0000 H   0  0  0  0  0  0  0  0  0  0  0  0
    1.4631   -6.3700    0.0000 H   0  0  0  0  0  0  0  0  0  0  0  0
    2.3100   -6.5969    0.0000 H   0  0  0  0  0  0  0  0  0  0  0  0
    5.7932    3.1300    0.0000 H   0  0  0  0  0  0  0  0  0  0  0  0
    8.5991    3.1300    0.0000 H   0  0  0  0  0  0  0  0  0  0  0  0
    5.7932    4.7500    0.0000 H   0  0  0  0  0  0  0  0  0  0  0  0
    8.5991    4.7500    0.0000 H   0  0  0  0  0  0  0  0  0  0  0  0
    7.1962    7.5600    0.0000 H   0  0  0  0  0  0  0  0  0  0  0  0
  1 15  1  0  0  0  0
  1 21  1  0  0  0  0
  2 20  2  0  0  0  0
  3  6  1  0  0  0  0
  3  7  1  0  0  0  0
  3 10  1  0  0  0  0
  4  8  1  0  0  0  0
  4  9  1  0  0  0  0
  4 12  1  0  0  0  0
  5 14  1  0  0  0  0
  5 20  1  0  0  0  0
  5 49  1  0  0  0  0
  6  8  1  0  0  0  0
  6 30  1  0  0  0  0
  6 31  1  0  0  0  0
  7  9  1  0  0  0  0
  7 32  1  0  0  0  0
  7 33  1  0  0  0  0
  8 34  1  0  0  0  0
  8 35  1  0  0  0  0
  9 36  1  0  0  0  0
  9 37  1  0  0  0  0
 10 11  1  0  0  0  0
 10 38  1  0  0  0  0
 10 39  1  0  0  0  0
 11 13  1  0  0  0  0
 11 40  1  0  0  0  0
 11 41  1  0  0  0  0
 12 15  1  0  0  0  0
 12 16  2  0  0  0  0
 13 14  1  0  0  0  0
 13 42  1  0  0  0  0
 13 43  1  0  0  0  0
 14 44  1  0  0  0  0
 14 45  1  0  0  0  0
 15 17  2  0  0  0  0
 16 18  1  0  0  0  0
 16 46  1  0  0  0  0
 17 19  1  0  0  0  0
 17 47  1  0  0  0  0
 18 19  2  0  0  0  0
 18 48  1  0  0  0  0
 19 50  1  0  0  0  0
 20 22  1  0  0  0  0
 21 51  1  0  0  0  0
 21 52  1  0  0  0  0
 21 53  1  0  0  0  0
 22 23  2  0  0  0  0
 22 24  1  0  0  0  0
 23 25  1  0  0  0  0
 23 54  1  0  0  0  0
 24 26  2  0  0  0  0
 24 55  1  0  0  0  0
 25 27  2  0  0  0  0
 25 56  1  0  0  0  0
 26 27  1  0  0  0  0
 26 57  1  0  0  0  0
 27 28  1  0  0  0  0
 28 29  3  0  0  0  0
 29 58  1  0  0  0  0
M  END
> <PUBCHEM_COMPOUND_CID>
44436600

> <PUBCHEM_COMPOUND_CANONICALIZED>
1

> <PUBCHEM_CACTVS_COMPLEXITY>
542

> <PUBCHEM_CACTVS_HBOND_ACCEPTOR>
4

> <PUBCHEM_CACTVS_HBOND_DONOR>
1

> <PUBCHEM_CACTVS_ROTATABLE_BOND>
9

> <PUBCHEM_CACTVS_SUBSKEYS>
AAADceB7MAAAAAAAAAAAAAAAAAAAAAAAAAA8YIAAAAAAAAABQAAAHgAQAAAADAzBmAYyxoPABADIGiVSUAiCCAAlIgAIiIEPbMgOZjLEtZuVMShk1hHY6YeYyACOQAAAAAAAEACAAAAAAAAgAAAAAAAAAA==

> <PUBCHEM_IUPAC_OPENEYE_NAME>
4-ethynyl-N-[4-[4-(2-methoxyphenyl)piperazin-1-yl]butyl]benzamide

> <PUBCHEM_IUPAC_CAS_NAME>
4-ethynyl-N-[4-[4-(2-methoxyphenyl)-1-piperazinyl]butyl]benzamide

> <PUBCHEM_IUPAC_NAME_MARKUP>
4-ethynyl-<I>N</I>-[4-[4-(2-methoxyphenyl)piperazin-1-yl]butyl]benzamide

> <PUBCHEM_IUPAC_NAME>
4-ethynyl-N-[4-[4-(2-methoxyphenyl)piperazin-1-yl]butyl]benzamide

> <PUBCHEM_IUPAC_SYSTEMATIC_NAME>
4-ethynyl-N-[4-[4-(2-methoxyphenyl)piperazin-1-yl]butyl]benzamide

> <PUBCHEM_IUPAC_TRADITIONAL_NAME>
4-ethynyl-N-[4-[4-(2-methoxyphenyl)piperazino]butyl]benzamide

> <PUBCHEM_IUPAC_INCHI>
InChI=1S/C24H29N3O2/c1-3-20-10-12-21(13-11-20)24(28)25-14-6-7-15-26-16-18-27(19-17-26)22-8-4-5-9-23(22)29-2/h1,4-5,8-13H,6-7,14-19H2,2H3,(H,25,28)

> <PUBCHEM_IUPAC_INCHIKEY>
CQLNLMLQKSNCPW-UHFFFAOYSA-N

> <PUBCHEM_XLOGP3_AA>
3.8

> <PUBCHEM_EXACT_MASS>
391.22597718

> <PUBCHEM_MOLECULAR_FORMULA>
C24H29N3O2

> <PUBCHEM_MOLECULAR_WEIGHT>
391.5

> <PUBCHEM_OPENEYE_CAN_SMILES>
COC1=CC=CC=C1N2CCN(CC2)CCCCNC(=O)C3=CC=C(C=C3)C#C

> <PUBCHEM_OPENEYE_ISO_SMILES>
COC1=CC=CC=C1N2CCN(CC2)CCCCNC(=O)C3=CC=C(C=C3)C#C

> <PUBCHEM_CACTVS_TPSA>
44.8

> <PUBCHEM_MONOISOTOPIC_WEIGHT>
391.22597718

> <PUBCHEM_TOTAL_CHARGE>
0

> <PUBCHEM_HEAVY_ATOM_COUNT>
29

> <PUBCHEM_ATOM_DEF_STEREO_COUNT>
0

> <PUBCHEM_ATOM_UDEF_STEREO_COUNT>
0

> <PUBCHEM_BOND_DEF_STEREO_COUNT>
0

> <PUBCHEM_BOND_UDEF_STEREO_COUNT>
0

> <PUBCHEM_ISOTOPIC_ATOM_COUNT>
0

> <PUBCHEM_COMPONENT_COUNT>
1

> <PUBCHEM_CACTVS_TAUTO_COUNT>
-1

> <PUBCHEM_COORDINATE_TYPE>
1
5
255

> <PUBCHEM_BONDANNOTATIONS>
12  15  8
12  16  8
15  17  8
16  18  8
17  19  8
18  19  8
22  23  8
22  24  8
23  25  8
24  26  8
25  27  8
26  27  8

$$$$
