10667433
  -OEChem-09292322252D

 57 60  0     0  0  0  0  0  0999 V2000
   10.1456   -2.4715    0.0000 O   0  0  0  0  0  0  0  0  0  0  0  0
    6.2619    3.9107    0.0000 O   0  0  0  0  0  0  0  0  0  0  0  0
    7.5673   -0.1581    0.0000 N   0  0  0  0  0  0  0  0  0  0  0  0
    8.1886   -2.0591    0.0000 N   0  0  0  0  0  0  0  0  0  0  0  0
    4.6783    3.1059    0.0000 N   0  0  0  0  0  0  0  0  0  0  0  0
    6.8994   -0.9024    0.0000 C   0  0  0  0  0  0  0  0  0  0  0  0
    8.5458   -0.3643    0.0000 C   0  0  0  0  0  0  0  0  0  0  0  0
    7.2566    0.7925    0.0000 C   0  0  0  0  0  0  0  0  0  0  0  0
    7.2101   -1.8529    0.0000 C   0  0  0  0  0  0  0  0  0  0  0  0
    8.8564   -1.3148    0.0000 C   0  0  0  0  0  0  0  0  0  0  0  0
    6.2781    0.9987    0.0000 C   0  0  0  0  0  0  0  0  0  0  0  0
    5.9674    1.9492    0.0000 C   0  0  0  0  0  0  0  0  0  0  0  0
    4.9889    2.1554    0.0000 C   0  0  0  0  0  0  0  0  0  0  0  0
    8.4993   -3.0096    0.0000 C   0  0  0  0  0  0  0  0  0  0  0  0
    3.7320    3.4107    0.0000 C   0  0  0  0  0  0  0  0  0  0  0  0
    3.7320    4.4107    0.0000 C   0  0  0  0  0  0  0  0  0  0  0  0
    4.6783    4.7154    0.0000 C   0  0  0  0  0  0  0  0  0  0  0  0
    5.2619    3.9107    0.0000 C   0  0  0  0  0  0  0  0  0  0  0  0
    9.4778   -3.2158    0.0000 C   0  0  0  0  0  0  0  0  0  0  0  0
    7.8314   -3.7539    0.0000 C   0  0  0  0  0  0  0  0  0  0  0  0
    2.8660    2.9107    0.0000 C   0  0  0  0  0  0  0  0  0  0  0  0
    2.8660    4.9107    0.0000 C   0  0  0  0  0  0  0  0  0  0  0  0
    9.7884   -4.1664    0.0000 C   0  0  0  0  0  0  0  0  0  0  0  0
    8.1421   -4.7044    0.0000 C   0  0  0  0  0  0  0  0  0  0  0  0
    2.0000    3.4107    0.0000 C   0  0  0  0  0  0  0  0  0  0  0  0
    2.0000    4.4107    0.0000 C   0  0  0  0  0  0  0  0  0  0  0  0
    9.1206   -4.9107    0.0000 C   0  0  0  0  0  0  0  0  0  0  0  0
   11.1241   -2.6778    0.0000 C   0  0  0  0  0  0  0  0  0  0  0  0
    6.5169   -0.4145    0.0000 H   0  0  0  0  0  0  0  0  0  0  0  0
    6.3525   -1.1944    0.0000 H   0  0  0  0  0  0  0  0  0  0  0  0
    9.1596   -0.2769    0.0000 H   0  0  0  0  0  0  0  0  0  0  0  0
    8.5663    0.2554    0.0000 H   0  0  0  0  0  0  0  0  0  0  0  0
    7.8704    0.8798    0.0000 H   0  0  0  0  0  0  0  0  0  0  0  0
    7.2772    1.4121    0.0000 H   0  0  0  0  0  0  0  0  0  0  0  0
    6.5963   -1.9402    0.0000 H   0  0  0  0  0  0  0  0  0  0  0  0
    7.1895   -2.4726    0.0000 H   0  0  0  0  0  0  0  0  0  0  0  0
    9.2390   -1.8027    0.0000 H   0  0  0  0  0  0  0  0  0  0  0  0
    9.4034   -1.0228    0.0000 H   0  0  0  0  0  0  0  0  0  0  0  0
    5.6643    0.9113    0.0000 H   0  0  0  0  0  0  0  0  0  0  0  0
    6.2575    0.3790    0.0000 H   0  0  0  0  0  0  0  0  0  0  0  0
    6.5812    2.0365    0.0000 H   0  0  0  0  0  0  0  0  0  0  0  0
    5.9880    2.5688    0.0000 H   0  0  0  0  0  0  0  0  0  0  0  0
    4.3751    2.0681    0.0000 H   0  0  0  0  0  0  0  0  0  0  0  0
    4.9684    1.5358    0.0000 H   0  0  0  0  0  0  0  0  0  0  0  0
    5.2156    5.0246    0.0000 H   0  0  0  0  0  0  0  0  0  0  0  0
    4.4272    5.2823    0.0000 H   0  0  0  0  0  0  0  0  0  0  0  0
    7.2247   -3.6261    0.0000 H   0  0  0  0  0  0  0  0  0  0  0  0
    2.8660    2.2907    0.0000 H   0  0  0  0  0  0  0  0  0  0  0  0
    2.8660    5.5307    0.0000 H   0  0  0  0  0  0  0  0  0  0  0  0
   10.3951   -4.2942    0.0000 H   0  0  0  0  0  0  0  0  0  0  0  0
    7.7280   -5.1659    0.0000 H   0  0  0  0  0  0  0  0  0  0  0  0
    1.4631    3.1007    0.0000 H   0  0  0  0  0  0  0  0  0  0  0  0
    1.4631    4.7207    0.0000 H   0  0  0  0  0  0  0  0  0  0  0  0
    9.3132   -5.5000    0.0000 H   0  0  0  0  0  0  0  0  0  0  0  0
   10.9963   -3.2844    0.0000 H   0  0  0  0  0  0  0  0  0  0  0  0
   11.7308   -2.8056    0.0000 H   0  0  0  0  0  0  0  0  0  0  0  0
   11.2520   -2.0711    0.0000 H   0  0  0  0  0  0  0  0  0  0  0  0
  1 19  1  0  0  0  0
  1 28  1  0  0  0  0
  2 18  2  0  0  0  0
  3  6  1  0  0  0  0
  3  7  1  0  0  0  0
  3  8  1  0  0  0  0
  4  9  1  0  0  0  0
  4 10  1  0  0  0  0
  4 14  1  0  0  0  0
  5 13  1  0  0  0  0
  5 15  1  0  0  0  0
  5 18  1  0  0  0  0
  6  9  1  0  0  0  0
  6 29  1  0  0  0  0
  6 30  1  0  0  0  0
  7 10  1  0  0  0  0
  7 31  1  0  0  0  0
  7 32  1  0  0  0  0
  8 11  1  0  0  0  0
  8 33  1  0  0  0  0
  8 34  1  0  0  0  0
  9 35  1  0  0  0  0
  9 36  1  0  0  0  0
 10 37  1  0  0  0  0
 10 38  1  0  0  0  0
 11 12  1  0  0  0  0
 11 39  1  0  0  0  0
 11 40  1  0  0  0  0
 12 13  1  0  0  0  0
 12 41  1  0  0  0  0
 12 42  1  0  0  0  0
 13 43  1  0  0  0  0
 13 44  1  0  0  0  0
 14 19  1  0  0  0  0
 14 20  2  0  0  0  0
 15 16  1  0  0  0  0
 15 21  2  0  0  0  0
 16 17  1  0  0  0  0
 16 22  2  0  0  0  0
 17 18  1  0  0  0  0
 17 45  1  0  0  0  0
 17 46  1  0  0  0  0
 19 23  2  0  0  0  0
 20 24  1  0  0  0  0
 20 47  1  0  0  0  0
 21 25  1  0  0  0  0
 21 48  1  0  0  0  0
 22 26  1  0  0  0  0
 22 49  1  0  0  0  0
 23 27  1  0  0  0  0
 23 50  1  0  0  0  0
 24 27  2  0  0  0  0
 24 51  1  0  0  0  0
 25 26  2  0  0  0  0
 25 52  1  0  0  0  0
 26 53  1  0  0  0  0
 27 54  1  0  0  0  0
 28 55  1  0  0  0  0
 28 56  1  0  0  0  0
 28 57  1  0  0  0  0
M  END
> <PUBCHEM_COMPOUND_CID>
10667433

> <PUBCHEM_COMPOUND_CANONICALIZED>
1

> <PUBCHEM_CACTVS_COMPLEXITY>
506

> <PUBCHEM_CACTVS_HBOND_ACCEPTOR>
4

> <PUBCHEM_CACTVS_HBOND_DONOR>
0

> <PUBCHEM_CACTVS_ROTATABLE_BOND>
7

> <PUBCHEM_CACTVS_SUBSKEYS>
AAADceB7MAAAAAAAAAAAAAAAAAAAAWAAAAA8YIAAAAAAAFgBQAAAHgAAAAAADAzBmAYyxoMABACIAiVSUACCCAAhIgAIiAEPbIgOZjLEtZuVMChkxhHY6AecyICOAAAAAAACEAAAAAAAAAQgAAAAAAAAAA==

> <PUBCHEM_IUPAC_OPENEYE_NAME>
1-[4-[4-(2-methoxyphenyl)piperazin-1-yl]butyl]indolin-2-one

> <PUBCHEM_IUPAC_CAS_NAME>
1-[4-[4-(2-methoxyphenyl)-1-piperazinyl]butyl]-3H-indol-2-one

> <PUBCHEM_IUPAC_NAME_MARKUP>
1-[4-[4-(2-methoxyphenyl)piperazin-1-yl]butyl]-3<I>H</I>-indol-2-one

> <PUBCHEM_IUPAC_NAME>
1-[4-[4-(2-methoxyphenyl)piperazin-1-yl]butyl]-3H-indol-2-one

> <PUBCHEM_IUPAC_SYSTEMATIC_NAME>
1-[4-[4-(2-methoxyphenyl)piperazin-1-yl]butyl]-3H-indol-2-one

> <PUBCHEM_IUPAC_TRADITIONAL_NAME>
1-[4-[4-(2-methoxyphenyl)piperazino]butyl]oxindole

> <PUBCHEM_IUPAC_INCHI>
InChI=1S/C23H29N3O2/c1-28-22-11-5-4-10-21(22)25-16-14-24(15-17-25)12-6-7-13-26-20-9-3-2-8-19(20)18-23(26)27/h2-5,8-11H,6-7,12-18H2,1H3

> <PUBCHEM_IUPAC_INCHIKEY>
VJMHUOSOEAGNQW-UHFFFAOYSA-N

> <PUBCHEM_XLOGP3_AA>
3.3

> <PUBCHEM_EXACT_MASS>
379.22597718

> <PUBCHEM_MOLECULAR_FORMULA>
C23H29N3O2

> <PUBCHEM_MOLECULAR_WEIGHT>
379.5

> <PUBCHEM_OPENEYE_CAN_SMILES>
COC1=CC=CC=C1N2CCN(CC2)CCCCN3C(=O)CC4=CC=CC=C43

> <PUBCHEM_OPENEYE_ISO_SMILES>
COC1=CC=CC=C1N2CCN(CC2)CCCCN3C(=O)CC4=CC=CC=C43

> <PUBCHEM_CACTVS_TPSA>
36

> <PUBCHEM_MONOISOTOPIC_WEIGHT>
379.22597718

> <PUBCHEM_TOTAL_CHARGE>
0

> <PUBCHEM_HEAVY_ATOM_COUNT>
28

> <PUBCHEM_ATOM_DEF_STEREO_COUNT>
0

> <PUBCHEM_ATOM_UDEF_STEREO_COUNT>
0

> <PUBCHEM_BOND_DEF_STEREO_COUNT>
0

> <PUBCHEM_BOND_UDEF_STEREO_COUNT>
0

> <PUBCHEM_ISOTOPIC_ATOM_COUNT>
0

> <PUBCHEM_COMPONENT_COUNT>
1

> <PUBCHEM_CACTVS_TAUTO_COUNT>
-1

> <PUBCHEM_COORDINATE_TYPE>
1
5
255

> <PUBCHEM_BONDANNOTATIONS>
14  19  8
14  20  8
15  16  8
15  21  8
16  22  8
19  23  8
20  24  8
21  25  8
22  26  8
23  27  8
24  27  8
25  26  8

$$$$
