127046963
  -OEChem-09292322472D

 56 59  0     0  0  0  0  0  0999 V2000
    8.4530   -1.8240    0.0000 S   0  0  0  0  0  0  0  0  0  0  0  0
    9.4035   -1.5133    0.0000 O   0  0  0  0  0  0  0  0  0  0  0  0
    7.5025   -2.1347    0.0000 O   0  0  0  0  0  0  0  0  0  0  0  0
    4.5981   -1.0687    0.0000 N   0  0  0  0  0  0  0  0  0  0  0  0
    2.8660   -2.0687    0.0000 N   0  0  0  0  0  0  0  0  0  0  0  0
    8.1424   -0.8735    0.0000 N   0  0  0  0  0  0  0  0  0  0  0  0
    6.3301   -1.0687    0.0000 N   0  0  0  0  0  0  0  0  0  0  0  0
    5.4641    3.4313    0.0000 N   0  0  0  0  0  0  0  0  0  0  0  0
    4.5981   -2.0687    0.0000 C   0  0  0  0  0  0  0  0  0  0  0  0
    3.7320   -0.5687    0.0000 C   0  0  0  0  0  0  0  0  0  0  0  0
    3.7320   -2.5687    0.0000 C   0  0  0  0  0  0  0  0  0  0  0  0
    2.8660   -1.0687    0.0000 C   0  0  0  0  0  0  0  0  0  0  0  0
    5.4641   -0.5687    0.0000 C   0  0  0  0  0  0  0  0  0  0  0  0
    7.1962   -0.5687    0.0000 C   0  0  0  0  0  0  0  0  0  0  0  0
    8.7637   -2.7745    0.0000 C   0  0  0  0  0  0  0  0  0  0  0  0
    7.1962    0.4313    0.0000 C   0  0  0  0  0  0  0  0  0  0  0  0
    9.7422   -2.9807    0.0000 C   0  0  0  0  0  0  0  0  0  0  0  0
    6.3301    0.9313    0.0000 C   0  0  0  0  0  0  0  0  0  0  0  0
    5.4641    0.4313    0.0000 C   0  0  0  0  0  0  0  0  0  0  0  0
    2.0000   -2.5687    0.0000 C   0  0  0  0  0  0  0  0  0  0  0  0
    8.7260   -0.0687    0.0000 C   0  0  0  0  0  0  0  0  0  0  0  0
    8.1424    0.7360    0.0000 C   0  0  0  0  0  0  0  0  0  0  0  0
   10.0529   -3.9313    0.0000 C   0  0  0  0  0  0  0  0  0  0  0  0
   10.4100   -2.2364    0.0000 C   0  0  0  0  0  0  0  0  0  0  0  0
    6.3301    1.9313    0.0000 C   0  0  0  0  0  0  0  0  0  0  0  0
    7.1962    2.4313    0.0000 C   0  0  0  0  0  0  0  0  0  0  0  0
    5.4641    2.4313    0.0000 C   0  0  0  0  0  0  0  0  0  0  0  0
    7.1962    3.4313    0.0000 C   0  0  0  0  0  0  0  0  0  0  0  0
    6.3301    3.9313    0.0000 C   0  0  0  0  0  0  0  0  0  0  0  0
    4.8101   -2.6514    0.0000 H   0  0  0  0  0  0  0  0  0  0  0  0
    5.2087   -1.9611    0.0000 H   0  0  0  0  0  0  0  0  0  0  0  0
    4.1306   -0.0938    0.0000 H   0  0  0  0  0  0  0  0  0  0  0  0
    3.3335   -0.0938    0.0000 H   0  0  0  0  0  0  0  0  0  0  0  0
    3.3335   -3.0437    0.0000 H   0  0  0  0  0  0  0  0  0  0  0  0
    4.1306   -3.0437    0.0000 H   0  0  0  0  0  0  0  0  0  0  0  0
    2.6540   -0.4861    0.0000 H   0  0  0  0  0  0  0  0  0  0  0  0
    2.2554   -1.1764    0.0000 H   0  0  0  0  0  0  0  0  0  0  0  0
    8.1499   -2.8619    0.0000 H   0  0  0  0  0  0  0  0  0  0  0  0
    8.7431   -3.3942    0.0000 H   0  0  0  0  0  0  0  0  0  0  0  0
    9.5496   -2.3914    0.0000 H   0  0  0  0  0  0  0  0  0  0  0  0
    4.9272    0.7413    0.0000 H   0  0  0  0  0  0  0  0  0  0  0  0
    9.3460   -0.0687    0.0000 H   0  0  0  0  0  0  0  0  0  0  0  0
    1.6900   -2.0318    0.0000 H   0  0  0  0  0  0  0  0  0  0  0  0
    1.4631   -2.8787    0.0000 H   0  0  0  0  0  0  0  0  0  0  0  0
    2.3100   -3.1057    0.0000 H   0  0  0  0  0  0  0  0  0  0  0  0
    8.3350    1.3253    0.0000 H   0  0  0  0  0  0  0  0  0  0  0  0
    9.4635   -4.1239    0.0000 H   0  0  0  0  0  0  0  0  0  0  0  0
   10.2455   -4.5206    0.0000 H   0  0  0  0  0  0  0  0  0  0  0  0
   10.6422   -3.7386    0.0000 H   0  0  0  0  0  0  0  0  0  0  0  0
   10.8715   -2.6505    0.0000 H   0  0  0  0  0  0  0  0  0  0  0  0
   10.8241   -1.7750    0.0000 H   0  0  0  0  0  0  0  0  0  0  0  0
    9.9486   -1.8224    0.0000 H   0  0  0  0  0  0  0  0  0  0  0  0
    7.7331    2.1213    0.0000 H   0  0  0  0  0  0  0  0  0  0  0  0
    4.9272    2.1213    0.0000 H   0  0  0  0  0  0  0  0  0  0  0  0
    7.7331    3.7413    0.0000 H   0  0  0  0  0  0  0  0  0  0  0  0
    6.3301    4.5513    0.0000 H   0  0  0  0  0  0  0  0  0  0  0  0
  1  2  2  0  0  0  0
  1  3  2  0  0  0  0
  1  6  1  0  0  0  0
  1 15  1  0  0  0  0
  4  9  1  0  0  0  0
  4 10  1  0  0  0  0
  4 13  1  0  0  0  0
  5 11  1  0  0  0  0
  5 12  1  0  0  0  0
  5 20  1  0  0  0  0
  6 14  1  0  0  0  0
  6 21  1  0  0  0  0
  7 13  2  0  0  0  0
  7 14  1  0  0  0  0
  8 27  1  0  0  0  0
  8 29  2  0  0  0  0
  9 11  1  0  0  0  0
  9 30  1  0  0  0  0
  9 31  1  0  0  0  0
 10 12  1  0  0  0  0
 10 32  1  0  0  0  0
 10 33  1  0  0  0  0
 11 34  1  0  0  0  0
 11 35  1  0  0  0  0
 12 36  1  0  0  0  0
 12 37  1  0  0  0  0
 13 19  1  0  0  0  0
 14 16  2  0  0  0  0
 15 17  1  0  0  0  0
 15 38  1  0  0  0  0
 15 39  1  0  0  0  0
 16 18  1  0  0  0  0
 16 22  1  0  0  0  0
 17 23  1  0  0  0  0
 17 24  1  0  0  0  0
 17 40  1  0  0  0  0
 18 19  2  0  0  0  0
 18 25  1  0  0  0  0
 19 41  1  0  0  0  0
 20 43  1  0  0  0  0
 20 44  1  0  0  0  0
 20 45  1  0  0  0  0
 21 22  2  0  0  0  0
 21 42  1  0  0  0  0
 22 46  1  0  0  0  0
 23 47  1  0  0  0  0
 23 48  1  0  0  0  0
 23 49  1  0  0  0  0
 24 50  1  0  0  0  0
 24 51  1  0  0  0  0
 24 52  1  0  0  0  0
 25 26  1  0  0  0  0
 25 27  2  0  0  0  0
 26 28  2  0  0  0  0
 26 53  1  0  0  0  0
 27 54  1  0  0  0  0
 28 29  1  0  0  0  0
 28 55  1  0  0  0  0
 29 56  1  0  0  0  0
M  END
> <PUBCHEM_COMPOUND_CID>
127046963

> <PUBCHEM_COMPOUND_CANONICALIZED>
1

> <PUBCHEM_CACTVS_COMPLEXITY>
644

> <PUBCHEM_CACTVS_HBOND_ACCEPTOR>
6

> <PUBCHEM_CACTVS_HBOND_DONOR>
0

> <PUBCHEM_CACTVS_ROTATABLE_BOND>
5

> <PUBCHEM_CACTVS_SUBSKEYS>
AAADceB7sABAAAAAAAAAAAAAAAAAAWAAAAAsWLAAAAAAAFgB/gAAHAQAQAAADQDFWwS/sN8IEAKgAjJnZHDCgCkxAqAJ2CA4ZJiIaOLAmZGUIAhogALIyCcQgMAOgAAAAAAAAAAAAAAAAAAAAAAAAAAAAA==

> <PUBCHEM_IUPAC_OPENEYE_NAME>
1-isobutylsulfonyl-6-(4-methylpiperazin-1-yl)-4-(3-pyridyl)pyrrolo[2,3-b]pyridine

> <PUBCHEM_IUPAC_CAS_NAME>
6-(4-methyl-1-piperazinyl)-1-(2-methylpropylsulfonyl)-4-(3-pyridinyl)pyrrolo[2,3-b]pyridine

> <PUBCHEM_IUPAC_NAME_MARKUP>
6-(4-methylpiperazin-1-yl)-1-(2-methylpropylsulfonyl)-4-pyridin-3-ylpyrrolo[2,3-b]pyridine

> <PUBCHEM_IUPAC_NAME>
6-(4-methylpiperazin-1-yl)-1-(2-methylpropylsulfonyl)-4-pyridin-3-ylpyrrolo[2,3-b]pyridine

> <PUBCHEM_IUPAC_SYSTEMATIC_NAME>
6-(4-methylpiperazin-1-yl)-1-(2-methylpropylsulfonyl)-4-pyridin-3-yl-pyrrolo[2,3-b]pyridine

> <PUBCHEM_IUPAC_TRADITIONAL_NAME>
1-isobutylsulfonyl-6-(4-methylpiperazino)-4-(3-pyridyl)pyrrolo[2,3-b]pyridine

> <PUBCHEM_IUPAC_INCHI>
InChI=1S/C21H27N5O2S/c1-16(2)15-29(27,28)26-8-6-18-19(17-5-4-7-22-14-17)13-20(23-21(18)26)25-11-9-24(3)10-12-25/h4-8,13-14,16H,9-12,15H2,1-3H3

> <PUBCHEM_IUPAC_INCHIKEY>
UFEABECFKJGHBC-UHFFFAOYSA-N

> <PUBCHEM_XLOGP3_AA>
3.1

> <PUBCHEM_EXACT_MASS>
413.18854629

> <PUBCHEM_MOLECULAR_FORMULA>
C21H27N5O2S

> <PUBCHEM_MOLECULAR_WEIGHT>
413.5

> <PUBCHEM_OPENEYE_CAN_SMILES>
CC(C)CS(=O)(=O)N1C=CC2=C1N=C(C=C2C3=CN=CC=C3)N4CCN(CC4)C

> <PUBCHEM_OPENEYE_ISO_SMILES>
CC(C)CS(=O)(=O)N1C=CC2=C1N=C(C=C2C3=CN=CC=C3)N4CCN(CC4)C

> <PUBCHEM_CACTVS_TPSA>
79.7

> <PUBCHEM_MONOISOTOPIC_WEIGHT>
413.18854629

> <PUBCHEM_TOTAL_CHARGE>
0

> <PUBCHEM_HEAVY_ATOM_COUNT>
29

> <PUBCHEM_ATOM_DEF_STEREO_COUNT>
0

> <PUBCHEM_ATOM_UDEF_STEREO_COUNT>
0

> <PUBCHEM_BOND_DEF_STEREO_COUNT>
0

> <PUBCHEM_BOND_UDEF_STEREO_COUNT>
0

> <PUBCHEM_ISOTOPIC_ATOM_COUNT>
0

> <PUBCHEM_COMPONENT_COUNT>
1

> <PUBCHEM_CACTVS_TAUTO_COUNT>
-1

> <PUBCHEM_COORDINATE_TYPE>
1
5
255

> <PUBCHEM_BONDANNOTATIONS>
13  19  8
14  16  8
16  18  8
16  22  8
18  19  8
21  22  8
25  26  8
25  27  8
26  28  8
28  29  8
6  14  8
6  21  8
7  13  8
7  14  8
8  27  8
8  29  8

$$$$
