17867626
  -OEChem-09292322222D

 51 54  0     1  0  0  0  0  0999 V2000
    2.8660   -2.7176    0.0000 S   0  0  0  0  0  0  0  0  0  0  0  0
   12.1279   -1.4856    0.0000 O   0  0  0  0  0  0  0  0  0  0  0  0
    2.0000   -2.2176    0.0000 O   0  0  0  0  0  0  0  0  0  0  0  0
    3.7320   -3.2176    0.0000 O   0  0  0  0  0  0  0  0  0  0  0  0
    8.8660   -0.9856    0.0000 N   0  0  3  0  0  0  0  0  0  0  0  0
    3.3660   -1.8516    0.0000 N   0  0  0  0  0  0  0  0  0  0  0  0
   12.1361    3.5837    0.0000 N   0  0  0  0  0  0  0  0  0  0  0  0
   10.3959   -1.4856    0.0000 C   0  0  3  0  0  0  0  0  0  0  0  0
   10.3959   -0.4856    0.0000 C   0  0  3  0  0  0  0  0  0  0  0  0
    9.4496   -1.7903    0.0000 C   0  0  0  0  0  0  0  0  0  0  0  0
    9.4496   -0.1809    0.0000 C   0  0  0  0  0  0  0  0  0  0  0  0
   11.2619   -1.9856    0.0000 C   0  0  0  0  0  0  0  0  0  0  0  0
   11.2619    0.0144    0.0000 C   0  0  0  0  0  0  0  0  0  0  0  0
    7.8660   -0.9856    0.0000 C   0  0  0  0  0  0  0  0  0  0  0  0
   12.1279   -0.4856    0.0000 C   0  0  0  0  0  0  0  0  0  0  0  0
    7.3660   -1.8516    0.0000 C   0  0  0  0  0  0  0  0  0  0  0  0
   11.2458    1.0559    0.0000 C   0  0  0  0  0  0  0  0  0  0  0  0
   13.0379    0.0213    0.0000 C   0  0  0  0  0  0  0  0  0  0  0  0
   12.1439    1.5837    0.0000 C   0  0  0  0  0  0  0  0  0  0  0  0
    6.3660   -1.8516    0.0000 C   0  0  0  0  0  0  0  0  0  0  0  0
   13.0459    1.0629    0.0000 C   0  0  0  0  0  0  0  0  0  0  0  0
    5.8660   -2.7176    0.0000 C   0  0  0  0  0  0  0  0  0  0  0  0
    5.8660   -0.9856    0.0000 C   0  0  0  0  0  0  0  0  0  0  0  0
   12.1400    2.5837    0.0000 C   0  0  0  0  0  0  0  0  0  0  0  0
    4.8660   -2.7176    0.0000 C   0  0  0  0  0  0  0  0  0  0  0  0
    4.8660   -0.9856    0.0000 C   0  0  0  0  0  0  0  0  0  0  0  0
    4.3660   -1.8516    0.0000 C   0  0  0  0  0  0  0  0  0  0  0  0
    2.3660   -3.5837    0.0000 C   0  0  0  0  0  0  0  0  0  0  0  0
   10.3302   -2.1021    0.0000 H   0  0  0  0  0  0  0  0  0  0  0  0
   10.3302    0.1309    0.0000 H   0  0  0  0  0  0  0  0  0  0  0  0
    8.9122   -2.0995    0.0000 H   0  0  0  0  0  0  0  0  0  0  0  0
    9.7007   -2.3572    0.0000 H   0  0  0  0  0  0  0  0  0  0  0  0
    9.7007    0.3861    0.0000 H   0  0  0  0  0  0  0  0  0  0  0  0
    8.9122    0.1284    0.0000 H   0  0  0  0  0  0  0  0  0  0  0  0
   10.8634   -2.4605    0.0000 H   0  0  0  0  0  0  0  0  0  0  0  0
   11.6604   -2.4605    0.0000 H   0  0  0  0  0  0  0  0  0  0  0  0
    7.9737   -0.3750    0.0000 H   0  0  0  0  0  0  0  0  0  0  0  0
    7.2834   -0.7735    0.0000 H   0  0  0  0  0  0  0  0  0  0  0  0
    7.2584   -2.4622    0.0000 H   0  0  0  0  0  0  0  0  0  0  0  0
    7.9486   -2.0637    0.0000 H   0  0  0  0  0  0  0  0  0  0  0  0
   10.7053    1.3597    0.0000 H   0  0  0  0  0  0  0  0  0  0  0  0
   13.5712   -0.2949    0.0000 H   0  0  0  0  0  0  0  0  0  0  0  0
   13.5841    1.3708    0.0000 H   0  0  0  0  0  0  0  0  0  0  0  0
    6.1760   -3.2546    0.0000 H   0  0  0  0  0  0  0  0  0  0  0  0
    6.1760   -0.4486    0.0000 H   0  0  0  0  0  0  0  0  0  0  0  0
    4.5560   -3.2546    0.0000 H   0  0  0  0  0  0  0  0  0  0  0  0
    4.5560   -0.4486    0.0000 H   0  0  0  0  0  0  0  0  0  0  0  0
    3.0560   -1.3147    0.0000 H   0  0  0  0  0  0  0  0  0  0  0  0
    1.8291   -3.2737    0.0000 H   0  0  0  0  0  0  0  0  0  0  0  0
    2.0560   -4.1206    0.0000 H   0  0  0  0  0  0  0  0  0  0  0  0
    2.9030   -3.8937    0.0000 H   0  0  0  0  0  0  0  0  0  0  0  0
  1  3  2  0  0  0  0
  1  4  2  0  0  0  0
  1  6  1  0  0  0  0
  1 28  1  0  0  0  0
  2 12  1  0  0  0  0
  2 15  1  0  0  0  0
  5 10  1  0  0  0  0
  5 11  1  0  0  0  0
  5 14  1  0  0  0  0
  6 27  1  0  0  0  0
  6 48  1  0  0  0  0
  7 24  3  0  0  0  0
  8  9  1  0  0  0  0
  8 10  1  0  0  0  0
  8 12  1  0  0  0  0
  8 29  1  0  0  0  0
  9 11  1  0  0  0  0
  9 13  1  0  0  0  0
  9 30  1  0  0  0  0
 10 31  1  0  0  0  0
 10 32  1  0  0  0  0
 11 33  1  0  0  0  0
 11 34  1  0  0  0  0
 12 35  1  0  0  0  0
 12 36  1  0  0  0  0
 13 15  2  0  0  0  0
 13 17  1  0  0  0  0
 14 16  1  0  0  0  0
 14 37  1  0  0  0  0
 14 38  1  0  0  0  0
 15 18  1  0  0  0  0
 16 20  1  0  0  0  0
 16 39  1  0  0  0  0
 16 40  1  0  0  0  0
 17 19  2  0  0  0  0
 17 41  1  0  0  0  0
 18 21  2  0  0  0  0
 18 42  1  0  0  0  0
 19 21  1  0  0  0  0
 19 24  1  0  0  0  0
 20 22  2  0  0  0  0
 20 23  1  0  0  0  0
 21 43  1  0  0  0  0
 22 25  1  0  0  0  0
 22 44  1  0  0  0  0
 23 26  2  0  0  0  0
 23 45  1  0  0  0  0
 25 27  2  0  0  0  0
 25 46  1  0  0  0  0
 26 27  1  0  0  0  0
 26 47  1  0  0  0  0
 28 49  1  0  0  0  0
 28 50  1  0  0  0  0
 28 51  1  0  0  0  0
M  END
> <PUBCHEM_COMPOUND_CID>
17867626

> <PUBCHEM_COMPOUND_CANONICALIZED>
1

> <PUBCHEM_CACTVS_COMPLEXITY>
689

> <PUBCHEM_CACTVS_HBOND_ACCEPTOR>
6

> <PUBCHEM_CACTVS_HBOND_DONOR>
1

> <PUBCHEM_CACTVS_ROTATABLE_BOND>
5

> <PUBCHEM_CACTVS_SUBSKEYS>
AAADceB7MABAAAAAAAAAAAAAAAAAAWAAAAA0YIAAAAAAAFiRQAAAHgQQQAAADQzhmAayxoNABAKQBiRCQHCiCAAgIgAIiAAObIgMpiKEsZuGOCDm0BGI6A+w0OIOqAACAAAIAABQAAQAABAAAAAAAAAAAA==

> <PUBCHEM_IUPAC_OPENEYE_NAME>
N-[4-[2-(8-cyano-3,3a,4,9b-tetrahydro-1H-chromeno[3,4-c]pyrrol-2-yl)ethyl]phenyl]methanesulfonamide

> <PUBCHEM_IUPAC_CAS_NAME>
N-[4-[2-(8-cyano-3,3a,4,9b-tetrahydro-1H-[1]benzopyrano[3,4-c]pyrrol-2-yl)ethyl]phenyl]methanesulfonamide

> <PUBCHEM_IUPAC_NAME_MARKUP>
<I>N</I>-[4-[2-(8-cyano-3,3<I>a</I>,4,9<I>b</I>-tetrahydro-1<I>H</I>-chromeno[3,4-c]pyrrol-2-yl)ethyl]phenyl]methanesulfonamide

> <PUBCHEM_IUPAC_NAME>
N-[4-[2-(8-cyano-3,3a,4,9b-tetrahydro-1H-chromeno[3,4-c]pyrrol-2-yl)ethyl]phenyl]methanesulfonamide

> <PUBCHEM_IUPAC_SYSTEMATIC_NAME>
N-[4-[2-(8-cyano-3,3a,4,9b-tetrahydro-1H-chromeno[3,4-c]pyrrol-2-yl)ethyl]phenyl]methanesulfonamide

> <PUBCHEM_IUPAC_TRADITIONAL_NAME>
N-[4-[2-(8-cyano-3,3a,4,9b-tetrahydro-1H-chromeno[3,4-c]pyrrol-2-yl)ethyl]phenyl]methanesulfonamide

> <PUBCHEM_IUPAC_INCHI>
InChI=1S/C21H23N3O3S/c1-28(25,26)23-18-5-2-15(3-6-18)8-9-24-12-17-14-27-21-7-4-16(11-22)10-19(21)20(17)13-24/h2-7,10,17,20,23H,8-9,12-14H2,1H3

> <PUBCHEM_IUPAC_INCHIKEY>
QENYNNSJVREWOL-UHFFFAOYSA-N

> <PUBCHEM_XLOGP3_AA>
2.4

> <PUBCHEM_EXACT_MASS>
397.14601278

> <PUBCHEM_MOLECULAR_FORMULA>
C21H23N3O3S

> <PUBCHEM_MOLECULAR_WEIGHT>
397.5

> <PUBCHEM_OPENEYE_CAN_SMILES>
CS(=O)(=O)NC1=CC=C(C=C1)CCN2CC3COC4=C(C3C2)C=C(C=C4)C#N

> <PUBCHEM_OPENEYE_ISO_SMILES>
CS(=O)(=O)NC1=CC=C(C=C1)CCN2CC3COC4=C(C3C2)C=C(C=C4)C#N

> <PUBCHEM_CACTVS_TPSA>
90.8

> <PUBCHEM_MONOISOTOPIC_WEIGHT>
397.14601278

> <PUBCHEM_TOTAL_CHARGE>
0

> <PUBCHEM_HEAVY_ATOM_COUNT>
28

> <PUBCHEM_ATOM_DEF_STEREO_COUNT>
0

> <PUBCHEM_ATOM_UDEF_STEREO_COUNT>
2

> <PUBCHEM_BOND_DEF_STEREO_COUNT>
0

> <PUBCHEM_BOND_UDEF_STEREO_COUNT>
0

> <PUBCHEM_ISOTOPIC_ATOM_COUNT>
0

> <PUBCHEM_COMPONENT_COUNT>
1

> <PUBCHEM_CACTVS_TAUTO_COUNT>
-1

> <PUBCHEM_COORDINATE_TYPE>
1
5
255

> <PUBCHEM_BONDANNOTATIONS>
13  15  8
13  17  8
15  18  8
17  19  8
18  21  8
19  21  8
20  22  8
20  23  8
22  25  8
23  26  8
25  27  8
26  27  8
8  10  3
9  11  3

$$$$
