44415338
  -OEChem-09292322282D

 66 71  0     0  0  0  0  0  0999 V2000
    8.7204    1.7149    0.0000 Cl  0  0  0  0  0  0  0  0  0  0  0  0
    8.4601   -2.0818    0.0000 F   0  0  0  0  0  0  0  0  0  0  0  0
    7.8181   -3.3419    0.0000 F   0  0  0  0  0  0  0  0  0  0  0  0
    7.2001   -1.4398    0.0000 F   0  0  0  0  0  0  0  0  0  0  0  0
    6.6150   -0.6121    0.0000 O   0  0  0  0  0  0  0  0  0  0  0  0
    3.9491    3.4796    0.0000 N   0  0  0  0  0  0  0  0  0  0  0  0
    3.0814    5.2815    0.0000 N   0  0  0  0  0  0  0  0  0  0  0  0
    4.8830    0.3880    0.0000 N   0  0  0  0  0  0  0  0  0  0  0  0
    5.3830    2.5786    0.0000 N   0  0  0  0  0  0  0  0  0  0  0  0
    4.8830   -0.6120    0.0000 N   0  0  0  0  0  0  0  0  0  0  0  0
    6.2490   -3.6509    0.0000 N   0  0  0  0  0  0  0  0  0  0  0  0
    5.2490   -3.6509    0.0000 N   0  0  0  0  0  0  0  0  0  0  0  0
    2.9519    3.5543    0.0000 C   0  0  0  0  0  0  0  0  0  0  0  0
    4.5125    4.3058    0.0000 C   0  0  0  0  0  0  0  0  0  0  0  0
    2.5180    4.4553    0.0000 C   0  0  0  0  0  0  0  0  0  0  0  0
    4.0786    5.2068    0.0000 C   0  0  0  0  0  0  0  0  0  0  0  0
    4.3830    2.5786    0.0000 C   0  0  0  0  0  0  0  0  0  0  0  0
    3.7595    1.7968    0.0000 C   0  0  0  0  0  0  0  0  0  0  0  0
    2.6475    6.1825    0.0000 C   0  0  0  0  0  0  0  0  0  0  0  0
    3.9820    0.8218    0.0000 C   0  0  0  0  0  0  0  0  0  0  0  0
    5.7840    0.8218    0.0000 C   0  0  0  0  0  0  0  0  0  0  0  0
    6.0065    1.7968    0.0000 C   0  0  0  0  0  0  0  0  0  0  0  0
    2.7690    2.1191    0.0000 C   0  0  0  0  0  0  0  0  0  0  0  0
    3.2295    0.1017    0.0000 C   0  0  0  0  0  0  0  0  0  0  0  0
    2.0000    1.4165    0.0000 C   0  0  0  0  0  0  0  0  0  0  0  0
    6.5365    0.1016    0.0000 C   0  0  0  0  0  0  0  0  0  0  0  0
    6.9970    2.1191    0.0000 C   0  0  0  0  0  0  0  0  0  0  0  0
    2.2318    0.4010    0.0000 C   0  0  0  0  0  0  0  0  0  0  0  0
    5.7490   -1.1121    0.0000 C   0  0  0  0  0  0  0  0  0  0  0  0
    7.5342    0.4010    0.0000 C   0  0  0  0  0  0  0  0  0  0  0  0
    7.7660    1.4165    0.0000 C   0  0  0  0  0  0  0  0  0  0  0  0
    5.7490   -2.1121    0.0000 C   0  0  0  0  0  0  0  0  0  0  0  0
    6.5580   -2.6998    0.0000 C   0  0  0  0  0  0  0  0  0  0  0  0
    4.9400   -2.6998    0.0000 C   0  0  0  0  0  0  0  0  0  0  0  0
    7.5091   -2.3908    0.0000 C   0  0  0  0  0  0  0  0  0  0  0  0
    6.8368   -4.4599    0.0000 C   0  0  0  0  0  0  0  0  0  0  0  0
    6.4300   -5.3735    0.0000 C   0  0  0  0  0  0  0  0  0  0  0  0
    7.8313   -4.3554    0.0000 C   0  0  0  0  0  0  0  0  0  0  0  0
    7.0178   -6.1825    0.0000 C   0  0  0  0  0  0  0  0  0  0  0  0
    8.4191   -5.1644    0.0000 C   0  0  0  0  0  0  0  0  0  0  0  0
    8.0123   -6.0780    0.0000 C   0  0  0  0  0  0  0  0  0  0  0  0
    2.3551    3.3864    0.0000 H   0  0  0  0  0  0  0  0  0  0  0  0
    3.0137    2.9374    0.0000 H   0  0  0  0  0  0  0  0  0  0  0  0
    4.9563    3.8729    0.0000 H   0  0  0  0  0  0  0  0  0  0  0  0
    5.0159    4.6677    0.0000 H   0  0  0  0  0  0  0  0  0  0  0  0
    2.0742    4.8882    0.0000 H   0  0  0  0  0  0  0  0  0  0  0  0
    2.0146    4.0934    0.0000 H   0  0  0  0  0  0  0  0  0  0  0  0
    4.6754    5.3747    0.0000 H   0  0  0  0  0  0  0  0  0  0  0  0
    4.0168    5.8237    0.0000 H   0  0  0  0  0  0  0  0  0  0  0  0
    3.2061    6.4515    0.0000 H   0  0  0  0  0  0  0  0  0  0  0  0
    2.3785    6.7411    0.0000 H   0  0  0  0  0  0  0  0  0  0  0  0
    2.0889    5.9135    0.0000 H   0  0  0  0  0  0  0  0  0  0  0  0
    2.6380    2.7251    0.0000 H   0  0  0  0  0  0  0  0  0  0  0  0
    3.3744   -0.5012    0.0000 H   0  0  0  0  0  0  0  0  0  0  0  0
    4.3460   -0.9220    0.0000 H   0  0  0  0  0  0  0  0  0  0  0  0
    1.4083    1.6016    0.0000 H   0  0  0  0  0  0  0  0  0  0  0  0
    6.3916   -0.5012    0.0000 H   0  0  0  0  0  0  0  0  0  0  0  0
    7.1280    2.7251    0.0000 H   0  0  0  0  0  0  0  0  0  0  0  0
    1.7789   -0.0224    0.0000 H   0  0  0  0  0  0  0  0  0  0  0  0
    7.9871   -0.0225    0.0000 H   0  0  0  0  0  0  0  0  0  0  0  0
    4.3503   -2.5082    0.0000 H   0  0  0  0  0  0  0  0  0  0  0  0
    5.8134   -5.4383    0.0000 H   0  0  0  0  0  0  0  0  0  0  0  0
    8.0835   -3.7890    0.0000 H   0  0  0  0  0  0  0  0  0  0  0  0
    6.7656   -6.7489    0.0000 H   0  0  0  0  0  0  0  0  0  0  0  0
    9.0357   -5.0996    0.0000 H   0  0  0  0  0  0  0  0  0  0  0  0
    8.3768   -6.5796    0.0000 H   0  0  0  0  0  0  0  0  0  0  0  0
  1 31  1  0  0  0  0
  2 35  1  0  0  0  0
  3 35  1  0  0  0  0
  4 35  1  0  0  0  0
  5 29  2  0  0  0  0
  6 13  1  0  0  0  0
  6 14  1  0  0  0  0
  6 17  1  0  0  0  0
  7 15  1  0  0  0  0
  7 16  1  0  0  0  0
  7 19  1  0  0  0  0
  8 10  1  0  0  0  0
  8 20  1  0  0  0  0
  8 21  1  0  0  0  0
  9 17  2  0  0  0  0
  9 22  1  0  0  0  0
 10 29  1  0  0  0  0
 10 55  1  0  0  0  0
 11 12  1  0  0  0  0
 11 33  1  0  0  0  0
 11 36  1  0  0  0  0
 12 34  2  0  0  0  0
 13 15  1  0  0  0  0
 13 42  1  0  0  0  0
 13 43  1  0  0  0  0
 14 16  1  0  0  0  0
 14 44  1  0  0  0  0
 14 45  1  0  0  0  0
 15 46  1  0  0  0  0
 15 47  1  0  0  0  0
 16 48  1  0  0  0  0
 16 49  1  0  0  0  0
 17 18  1  0  0  0  0
 18 20  1  0  0  0  0
 18 23  2  0  0  0  0
 19 50  1  0  0  0  0
 19 51  1  0  0  0  0
 19 52  1  0  0  0  0
 20 24  2  0  0  0  0
 21 22  2  0  0  0  0
 21 26  1  0  0  0  0
 22 27  1  0  0  0  0
 23 25  1  0  0  0  0
 23 53  1  0  0  0  0
 24 28  1  0  0  0  0
 24 54  1  0  0  0  0
 25 28  2  0  0  0  0
 25 56  1  0  0  0  0
 26 30  2  0  0  0  0
 26 57  1  0  0  0  0
 27 31  2  0  0  0  0
 27 58  1  0  0  0  0
 28 59  1  0  0  0  0
 29 32  1  0  0  0  0
 30 31  1  0  0  0  0
 30 60  1  0  0  0  0
 32 33  2  0  0  0  0
 32 34  1  0  0  0  0
 33 35  1  0  0  0  0
 34 61  1  0  0  0  0
 36 37  2  0  0  0  0
 36 38  1  0  0  0  0
 37 39  1  0  0  0  0
 37 62  1  0  0  0  0
 38 40  2  0  0  0  0
 38 63  1  0  0  0  0
 39 41  2  0  0  0  0
 39 64  1  0  0  0  0
 40 41  1  0  0  0  0
 40 65  1  0  0  0  0
 41 66  1  0  0  0  0
M  END
> <PUBCHEM_COMPOUND_CID>
44415338

> <PUBCHEM_COMPOUND_CANONICALIZED>
1

> <PUBCHEM_CACTVS_COMPLEXITY>
955

> <PUBCHEM_CACTVS_HBOND_ACCEPTOR>
8

> <PUBCHEM_CACTVS_HBOND_DONOR>
1

> <PUBCHEM_CACTVS_ROTATABLE_BOND>
4

> <PUBCHEM_CACTVS_SUBSKEYS>
AAADceB7oYAEAAAAAAAAAAAAAAAAAWAAAAA8YMEABAAAAAAB1AAAHwIYAAAADArBnjQ/wJNqAACqAzd3dACSBCElhwAbuCEodtgIYPrB29GUpYhgiADIyccQgAAOAABAAAICACAAAIAABAQAQAAAAAAAAA==

> <PUBCHEM_IUPAC_OPENEYE_NAME>
N-[3-chloro-6-(4-methylpiperazin-1-yl)benzo[b][1,4]benzodiazepin-11-yl]-1-phenyl-5-(trifluoromethyl)pyrazole-4-carboxamide

> <PUBCHEM_IUPAC_CAS_NAME>
N-[3-chloro-6-(4-methyl-1-piperazinyl)-11-benzo[b][1,4]benzodiazepinyl]-1-phenyl-5-(trifluoromethyl)-4-pyrazolecarboxamide

> <PUBCHEM_IUPAC_NAME_MARKUP>
<I>N</I>-[3-chloro-6-(4-methylpiperazin-1-yl)benzo[b][1,4]benzodiazepin-11-yl]-1-phenyl-5-(trifluoromethyl)pyrazole-4-carboxamide

> <PUBCHEM_IUPAC_NAME>
N-[3-chloro-6-(4-methylpiperazin-1-yl)benzo[b][1,4]benzodiazepin-11-yl]-1-phenyl-5-(trifluoromethyl)pyrazole-4-carboxamide

> <PUBCHEM_IUPAC_SYSTEMATIC_NAME>
N-[3-chloranyl-6-(4-methylpiperazin-1-yl)benzo[b][1,4]benzodiazepin-11-yl]-1-phenyl-5-(trifluoromethyl)pyrazole-4-carboxamide

> <PUBCHEM_IUPAC_TRADITIONAL_NAME>
N-[3-chloro-6-(4-methylpiperazino)benzo[b][1,4]benzodiazepin-11-yl]-1-phenyl-5-(trifluoromethyl)pyrazole-4-carboxamide

> <PUBCHEM_IUPAC_INCHI>
InChI=1S/C29H25ClF3N7O/c1-37-13-15-38(16-14-37)27-21-9-5-6-10-24(21)40(25-12-11-19(30)17-23(25)35-27)36-28(41)22-18-34-39(26(22)29(31,32)33)20-7-3-2-4-8-20/h2-12,17-18H,13-16H2,1H3,(H,36,41)

> <PUBCHEM_IUPAC_INCHIKEY>
OFDFSLKEZUMNQF-UHFFFAOYSA-N

> <PUBCHEM_XLOGP3_AA>
5.3

> <PUBCHEM_EXACT_MASS>
579.1761206

> <PUBCHEM_MOLECULAR_FORMULA>
C29H25ClF3N7O

> <PUBCHEM_MOLECULAR_WEIGHT>
580.0

> <PUBCHEM_OPENEYE_CAN_SMILES>
CN1CCN(CC1)C2=NC3=C(C=CC(=C3)Cl)N(C4=CC=CC=C42)NC(=O)C5=C(N(N=C5)C6=CC=CC=C6)C(F)(F)F

> <PUBCHEM_OPENEYE_ISO_SMILES>
CN1CCN(CC1)C2=NC3=C(C=CC(=C3)Cl)N(C4=CC=CC=C42)NC(=O)C5=C(N(N=C5)C6=CC=CC=C6)C(F)(F)F

> <PUBCHEM_CACTVS_TPSA>
69

> <PUBCHEM_MONOISOTOPIC_WEIGHT>
579.1761206

> <PUBCHEM_TOTAL_CHARGE>
0

> <PUBCHEM_HEAVY_ATOM_COUNT>
41

> <PUBCHEM_ATOM_DEF_STEREO_COUNT>
0

> <PUBCHEM_ATOM_UDEF_STEREO_COUNT>
0

> <PUBCHEM_BOND_DEF_STEREO_COUNT>
0

> <PUBCHEM_BOND_UDEF_STEREO_COUNT>
0

> <PUBCHEM_ISOTOPIC_ATOM_COUNT>
0

> <PUBCHEM_COMPONENT_COUNT>
1

> <PUBCHEM_CACTVS_TAUTO_COUNT>
-1

> <PUBCHEM_COORDINATE_TYPE>
1
5
255

> <PUBCHEM_BONDANNOTATIONS>
11  12  8
11  33  8
12  34  8
18  20  8
18  23  8
20  24  8
21  22  8
21  26  8
22  27  8
23  25  8
24  28  8
25  28  8
26  30  8
27  31  8
30  31  8
32  33  8
32  34  8
36  37  8
36  38  8
37  39  8
38  40  8
39  41  8
40  41  8

$$$$
