9820680
  -OEChem-09292322222D

 40 42  0     0  0  0  0  0  0999 V2000
    4.5981   -3.8030    0.0000 Cl  0  0  0  0  0  0  0  0  0  0  0  0
   10.7260   -2.8030    0.0000 F   0  0  0  0  0  0  0  0  0  0  0  0
    9.7260   -1.8030    0.0000 F   0  0  0  0  0  0  0  0  0  0  0  0
    9.7260   -3.8030    0.0000 F   0  0  0  0  0  0  0  0  0  0  0  0
    6.3301   -0.8030    0.0000 O   0  0  0  0  0  0  0  0  0  0  0  0
    8.1424   -3.6077    0.0000 N   0  0  0  0  0  0  0  0  0  0  0  0
    4.5981    1.1970    0.0000 N   0  0  0  0  0  0  0  0  0  0  0  0
    8.1424   -1.9982    0.0000 N   0  0  0  0  0  0  0  0  0  0  0  0
    7.1962   -2.3030    0.0000 C   0  0  0  0  0  0  0  0  0  0  0  0
    7.1962   -3.3030    0.0000 C   0  0  0  0  0  0  0  0  0  0  0  0
    6.3301   -1.8030    0.0000 C   0  0  0  0  0  0  0  0  0  0  0  0
    5.4641    0.6970    0.0000 C   0  0  0  0  0  0  0  0  0  0  0  0
    5.4641   -0.3030    0.0000 C   0  0  0  0  0  0  0  0  0  0  0  0
    4.5981    2.1970    0.0000 C   0  0  0  0  0  0  0  0  0  0  0  0
    8.7260   -2.8030    0.0000 C   0  0  0  0  0  0  0  0  0  0  0  0
    6.3301   -3.8030    0.0000 C   0  0  0  0  0  0  0  0  0  0  0  0
    5.4641   -2.3030    0.0000 C   0  0  0  0  0  0  0  0  0  0  0  0
    3.7320    2.6970    0.0000 C   0  0  0  0  0  0  0  0  0  0  0  0
    5.4641   -3.3030    0.0000 C   0  0  0  0  0  0  0  0  0  0  0  0
    9.7260   -2.8030    0.0000 C   0  0  0  0  0  0  0  0  0  0  0  0
    2.8660    2.1970    0.0000 C   0  0  0  0  0  0  0  0  0  0  0  0
    3.7320    3.6970    0.0000 C   0  0  0  0  0  0  0  0  0  0  0  0
    2.0000    2.6970    0.0000 C   0  0  0  0  0  0  0  0  0  0  0  0
    2.8660    4.1970    0.0000 C   0  0  0  0  0  0  0  0  0  0  0  0
    2.0000    3.6970    0.0000 C   0  0  0  0  0  0  0  0  0  0  0  0
    6.0747    0.5894    0.0000 H   0  0  0  0  0  0  0  0  0  0  0  0
    5.6762    1.2796    0.0000 H   0  0  0  0  0  0  0  0  0  0  0  0
    4.8535   -0.1953    0.0000 H   0  0  0  0  0  0  0  0  0  0  0  0
    5.2520   -0.8856    0.0000 H   0  0  0  0  0  0  0  0  0  0  0  0
    8.3350   -4.1970    0.0000 H   0  0  0  0  0  0  0  0  0  0  0  0
    5.2087    2.0894    0.0000 H   0  0  0  0  0  0  0  0  0  0  0  0
    4.8101    2.7796    0.0000 H   0  0  0  0  0  0  0  0  0  0  0  0
    4.0611    0.8870    0.0000 H   0  0  0  0  0  0  0  0  0  0  0  0
    6.3301   -4.4230    0.0000 H   0  0  0  0  0  0  0  0  0  0  0  0
    4.9272   -1.9930    0.0000 H   0  0  0  0  0  0  0  0  0  0  0  0
    2.8660    1.5770    0.0000 H   0  0  0  0  0  0  0  0  0  0  0  0
    4.2690    4.0070    0.0000 H   0  0  0  0  0  0  0  0  0  0  0  0
    1.4631    2.3870    0.0000 H   0  0  0  0  0  0  0  0  0  0  0  0
    2.8660    4.8170    0.0000 H   0  0  0  0  0  0  0  0  0  0  0  0
    1.4631    4.0070    0.0000 H   0  0  0  0  0  0  0  0  0  0  0  0
  1 19  1  0  0  0  0
  2 20  1  0  0  0  0
  3 20  1  0  0  0  0
  4 20  1  0  0  0  0
  5 11  1  0  0  0  0
  5 13  1  0  0  0  0
  6 10  1  0  0  0  0
  6 15  1  0  0  0  0
  6 30  1  0  0  0  0
  7 12  1  0  0  0  0
  7 14  1  0  0  0  0
  7 33  1  0  0  0  0
  8  9  1  0  0  0  0
  8 15  2  0  0  0  0
  9 10  2  0  0  0  0
  9 11  1  0  0  0  0
 10 16  1  0  0  0  0
 11 17  2  0  0  0  0
 12 13  1  0  0  0  0
 12 26  1  0  0  0  0
 12 27  1  0  0  0  0
 13 28  1  0  0  0  0
 13 29  1  0  0  0  0
 14 18  1  0  0  0  0
 14 31  1  0  0  0  0
 14 32  1  0  0  0  0
 15 20  1  0  0  0  0
 16 19  2  0  0  0  0
 16 34  1  0  0  0  0
 17 19  1  0  0  0  0
 17 35  1  0  0  0  0
 18 21  2  0  0  0  0
 18 22  1  0  0  0  0
 21 23  1  0  0  0  0
 21 36  1  0  0  0  0
 22 24  2  0  0  0  0
 22 37  1  0  0  0  0
 23 25  2  0  0  0  0
 23 38  1  0  0  0  0
 24 25  1  0  0  0  0
 24 39  1  0  0  0  0
 25 40  1  0  0  0  0
M  END
> <PUBCHEM_COMPOUND_CID>
9820680

> <PUBCHEM_COMPOUND_CANONICALIZED>
1

> <PUBCHEM_CACTVS_COMPLEXITY>
420

> <PUBCHEM_CACTVS_HBOND_ACCEPTOR>
6

> <PUBCHEM_CACTVS_HBOND_DONOR>
2

> <PUBCHEM_CACTVS_ROTATABLE_BOND>
6

> <PUBCHEM_CACTVS_SUBSKEYS>
AAADccB7IYAEAAAAAAAAAAAAAAAAAWAAAAAwYAAAAAAAAFgB9AAAHwIQAAAADA7hnzYx1rbJlACgAyZiZASCiC2hd6AJmaA/fpiObqLFu5uXOCju0BvY6CeQ0AMOAABAAwIAECAAAIAGBAAgQAAAAAAAAA==

> <PUBCHEM_IUPAC_OPENEYE_NAME>
N-benzyl-2-[[6-chloro-2-(trifluoromethyl)-1H-benzimidazol-4-yl]oxy]ethanamine

> <PUBCHEM_IUPAC_CAS_NAME>
2-[[6-chloro-2-(trifluoromethyl)-1H-benzimidazol-4-yl]oxy]-N-(phenylmethyl)ethanamine

> <PUBCHEM_IUPAC_NAME_MARKUP>
<I>N</I>-benzyl-2-[[6-chloro-2-(trifluoromethyl)-1<I>H</I>-benzimidazol-4-yl]oxy]ethanamine

> <PUBCHEM_IUPAC_NAME>
N-benzyl-2-[[6-chloro-2-(trifluoromethyl)-1H-benzimidazol-4-yl]oxy]ethanamine

> <PUBCHEM_IUPAC_SYSTEMATIC_NAME>
2-[[6-chloranyl-2-(trifluoromethyl)-1H-benzimidazol-4-yl]oxy]-N-(phenylmethyl)ethanamine

> <PUBCHEM_IUPAC_TRADITIONAL_NAME>
benzyl-[2-[[6-chloro-2-(trifluoromethyl)-1H-benzimidazol-4-yl]oxy]ethyl]amine

> <PUBCHEM_IUPAC_INCHI>
InChI=1S/C17H15ClF3N3O/c18-12-8-13-15(24-16(23-13)17(19,20)21)14(9-12)25-7-6-22-10-11-4-2-1-3-5-11/h1-5,8-9,22H,6-7,10H2,(H,23,24)

> <PUBCHEM_IUPAC_INCHIKEY>
MMZIPJNBJQJCBM-UHFFFAOYSA-N

> <PUBCHEM_XLOGP3_AA>
4.1

> <PUBCHEM_EXACT_MASS>
369.0855743

> <PUBCHEM_MOLECULAR_FORMULA>
C17H15ClF3N3O

> <PUBCHEM_MOLECULAR_WEIGHT>
369.8

> <PUBCHEM_OPENEYE_CAN_SMILES>
C1=CC=C(C=C1)CNCCOC2=CC(=CC3=C2N=C(N3)C(F)(F)F)Cl

> <PUBCHEM_OPENEYE_ISO_SMILES>
C1=CC=C(C=C1)CNCCOC2=CC(=CC3=C2N=C(N3)C(F)(F)F)Cl

> <PUBCHEM_CACTVS_TPSA>
49.9

> <PUBCHEM_MONOISOTOPIC_WEIGHT>
369.0855743

> <PUBCHEM_TOTAL_CHARGE>
0

> <PUBCHEM_HEAVY_ATOM_COUNT>
25

> <PUBCHEM_ATOM_DEF_STEREO_COUNT>
0

> <PUBCHEM_ATOM_UDEF_STEREO_COUNT>
0

> <PUBCHEM_BOND_DEF_STEREO_COUNT>
0

> <PUBCHEM_BOND_UDEF_STEREO_COUNT>
0

> <PUBCHEM_ISOTOPIC_ATOM_COUNT>
0

> <PUBCHEM_COMPONENT_COUNT>
1

> <PUBCHEM_CACTVS_TAUTO_COUNT>
-1

> <PUBCHEM_COORDINATE_TYPE>
1
5
255

> <PUBCHEM_BONDANNOTATIONS>
10  16  8
11  17  8
16  19  8
17  19  8
18  21  8
18  22  8
21  23  8
22  24  8
23  25  8
24  25  8
6  10  8
6  15  8
8  15  8
8  9  8
9  10  8
9  11  8

$$$$
