71459659
  -OEChem-09292321592D

 93 96  0     1  0  0  0  0  0999 V2000
    2.9176   -2.6092    0.0000 O   0  0  0  0  0  0  0  0  0  0  0  0
   18.5388   -2.6092    0.0000 O   0  0  0  0  0  0  0  0  0  0  0  0
    6.3981    0.4254    0.0000 N   0  0  3  0  0  0  0  0  0  0  0  0
   15.0583    0.4254    0.0000 N   0  0  3  0  0  0  0  0  0  0  0  0
    5.5321   -0.0746    0.0000 C   0  0  1  0  0  0  0  0  0  0  0  0
   15.9244   -0.0746    0.0000 C   0  0  1  0  0  0  0  0  0  0  0  0
    5.5321   -1.0746    0.0000 C   0  0  0  0  0  0  0  0  0  0  0  0
   15.9244   -1.0746    0.0000 C   0  0  0  0  0  0  0  0  0  0  0  0
    4.6660    0.4254    0.0000 C   0  0  0  0  0  0  0  0  0  0  0  0
   16.7904    0.4254    0.0000 C   0  0  0  0  0  0  0  0  0  0  0  0
    4.6660   -1.5746    0.0000 C   0  0  0  0  0  0  0  0  0  0  0  0
   16.7904   -1.5746    0.0000 C   0  0  0  0  0  0  0  0  0  0  0  0
    7.2641   -0.0746    0.0000 C   0  0  0  0  0  0  0  0  0  0  0  0
   14.1923   -0.0746    0.0000 C   0  0  0  0  0  0  0  0  0  0  0  0
    3.8000   -0.0746    0.0000 C   0  0  0  0  0  0  0  0  0  0  0  0
   17.6564   -0.0746    0.0000 C   0  0  0  0  0  0  0  0  0  0  0  0
    3.8000   -1.0746    0.0000 C   0  0  0  0  0  0  0  0  0  0  0  0
   17.6564   -1.0746    0.0000 C   0  0  0  0  0  0  0  0  0  0  0  0
    6.3981    1.4254    0.0000 C   0  0  0  0  0  0  0  0  0  0  0  0
   15.0583    1.4254    0.0000 C   0  0  0  0  0  0  0  0  0  0  0  0
    8.1301    0.4254    0.0000 C   0  0  0  0  0  0  0  0  0  0  0  0
   13.3263    0.4254    0.0000 C   0  0  0  0  0  0  0  0  0  0  0  0
    8.9962   -0.0746    0.0000 C   0  0  0  0  0  0  0  0  0  0  0  0
   12.4603   -0.0746    0.0000 C   0  0  0  0  0  0  0  0  0  0  0  0
    9.8622    0.4254    0.0000 C   0  0  0  0  0  0  0  0  0  0  0  0
   11.5942    0.4254    0.0000 C   0  0  0  0  0  0  0  0  0  0  0  0
   10.7282   -0.0746    0.0000 C   0  0  0  0  0  0  0  0  0  0  0  0
    7.2641    1.9254    0.0000 C   0  0  0  0  0  0  0  0  0  0  0  0
   14.1923    1.9254    0.0000 C   0  0  0  0  0  0  0  0  0  0  0  0
    2.9061    0.4601    0.0000 C   0  0  0  0  0  0  0  0  0  0  0  0
   18.5504    0.4601    0.0000 C   0  0  0  0  0  0  0  0  0  0  0  0
    2.9061   -1.6093    0.0000 C   0  0  0  0  0  0  0  0  0  0  0  0
   18.5504   -1.6093    0.0000 C   0  0  0  0  0  0  0  0  0  0  0  0
    2.0000   -0.0538    0.0000 C   0  0  0  0  0  0  0  0  0  0  0  0
   19.4564   -0.0538    0.0000 C   0  0  0  0  0  0  0  0  0  0  0  0
    2.0000   -1.0954    0.0000 C   0  0  0  0  0  0  0  0  0  0  0  0
   19.4564   -1.0954    0.0000 C   0  0  0  0  0  0  0  0  0  0  0  0
    7.2641    2.9254    0.0000 C   0  0  0  0  0  0  0  0  0  0  0  0
   14.1923    2.9254    0.0000 C   0  0  0  0  0  0  0  0  0  0  0  0
    5.5321    0.5454    0.0000 H   0  0  0  0  0  0  0  0  0  0  0  0
   15.3874   -0.3846    0.0000 H   0  0  0  0  0  0  0  0  0  0  0  0
    5.7441   -1.6572    0.0000 H   0  0  0  0  0  0  0  0  0  0  0  0
    6.1426   -0.9669    0.0000 H   0  0  0  0  0  0  0  0  0  0  0  0
   15.3138   -0.9669    0.0000 H   0  0  0  0  0  0  0  0  0  0  0  0
   15.7123   -1.6572    0.0000 H   0  0  0  0  0  0  0  0  0  0  0  0
    5.0646    0.9003    0.0000 H   0  0  0  0  0  0  0  0  0  0  0  0
    4.2675    0.9003    0.0000 H   0  0  0  0  0  0  0  0  0  0  0  0
   17.1889    0.9003    0.0000 H   0  0  0  0  0  0  0  0  0  0  0  0
   16.3919    0.9003    0.0000 H   0  0  0  0  0  0  0  0  0  0  0  0
    4.2675   -2.0496    0.0000 H   0  0  0  0  0  0  0  0  0  0  0  0
    5.0646   -2.0496    0.0000 H   0  0  0  0  0  0  0  0  0  0  0  0
   16.3919   -2.0496    0.0000 H   0  0  0  0  0  0  0  0  0  0  0  0
   17.1889   -2.0496    0.0000 H   0  0  0  0  0  0  0  0  0  0  0  0
    6.8656   -0.5496    0.0000 H   0  0  0  0  0  0  0  0  0  0  0  0
    7.6626   -0.5496    0.0000 H   0  0  0  0  0  0  0  0  0  0  0  0
   13.7938   -0.5496    0.0000 H   0  0  0  0  0  0  0  0  0  0  0  0
   14.5908   -0.5496    0.0000 H   0  0  0  0  0  0  0  0  0  0  0  0
    6.1860    2.0080    0.0000 H   0  0  0  0  0  0  0  0  0  0  0  0
    5.7875    1.3177    0.0000 H   0  0  0  0  0  0  0  0  0  0  0  0
   15.6689    1.3177    0.0000 H   0  0  0  0  0  0  0  0  0  0  0  0
   15.2704    2.0080    0.0000 H   0  0  0  0  0  0  0  0  0  0  0  0
    8.5287    0.9003    0.0000 H   0  0  0  0  0  0  0  0  0  0  0  0
    7.7316    0.9003    0.0000 H   0  0  0  0  0  0  0  0  0  0  0  0
   13.7248    0.9003    0.0000 H   0  0  0  0  0  0  0  0  0  0  0  0
   12.9278    0.9003    0.0000 H   0  0  0  0  0  0  0  0  0  0  0  0
    8.5976   -0.5496    0.0000 H   0  0  0  0  0  0  0  0  0  0  0  0
    9.3947   -0.5496    0.0000 H   0  0  0  0  0  0  0  0  0  0  0  0
   12.0617   -0.5496    0.0000 H   0  0  0  0  0  0  0  0  0  0  0  0
   12.8588   -0.5496    0.0000 H   0  0  0  0  0  0  0  0  0  0  0  0
   10.2607    0.9003    0.0000 H   0  0  0  0  0  0  0  0  0  0  0  0
    9.4637    0.9003    0.0000 H   0  0  0  0  0  0  0  0  0  0  0  0
   11.9928    0.9003    0.0000 H   0  0  0  0  0  0  0  0  0  0  0  0
   11.1957    0.9003    0.0000 H   0  0  0  0  0  0  0  0  0  0  0  0
   10.3297   -0.5496    0.0000 H   0  0  0  0  0  0  0  0  0  0  0  0
   11.1267   -0.5496    0.0000 H   0  0  0  0  0  0  0  0  0  0  0  0
    7.4762    1.3428    0.0000 H   0  0  0  0  0  0  0  0  0  0  0  0
    7.8747    2.0330    0.0000 H   0  0  0  0  0  0  0  0  0  0  0  0
   13.5817    2.0330    0.0000 H   0  0  0  0  0  0  0  0  0  0  0  0
   13.9803    1.3428    0.0000 H   0  0  0  0  0  0  0  0  0  0  0  0
    2.9132    1.0800    0.0000 H   0  0  0  0  0  0  0  0  0  0  0  0
   18.5432    1.0800    0.0000 H   0  0  0  0  0  0  0  0  0  0  0  0
    1.4643    0.2583    0.0000 H   0  0  0  0  0  0  0  0  0  0  0  0
   19.9922    0.2583    0.0000 H   0  0  0  0  0  0  0  0  0  0  0  0
    1.4643   -1.4075    0.0000 H   0  0  0  0  0  0  0  0  0  0  0  0
   19.9922   -1.4075    0.0000 H   0  0  0  0  0  0  0  0  0  0  0  0
    7.8841    2.9254    0.0000 H   0  0  0  0  0  0  0  0  0  0  0  0
    7.2641    3.5454    0.0000 H   0  0  0  0  0  0  0  0  0  0  0  0
    6.6441    2.9254    0.0000 H   0  0  0  0  0  0  0  0  0  0  0  0
   14.8123    2.9254    0.0000 H   0  0  0  0  0  0  0  0  0  0  0  0
   14.1923    3.5454    0.0000 H   0  0  0  0  0  0  0  0  0  0  0  0
   13.5723    2.9254    0.0000 H   0  0  0  0  0  0  0  0  0  0  0  0
    2.3843   -2.9254    0.0000 H   0  0  0  0  0  0  0  0  0  0  0  0
   19.0721   -2.9254    0.0000 H   0  0  0  0  0  0  0  0  0  0  0  0
  1 32  1  0  0  0  0
  1 92  1  0  0  0  0
  2 33  1  0  0  0  0
  2 93  1  0  0  0  0
  5  3  1  1  0  0  0
  3 13  1  0  0  0  0
  3 19  1  0  0  0  0
  6  4  1  6  0  0  0
  4 14  1  0  0  0  0
  4 20  1  0  0  0  0
  5  7  1  0  0  0  0
  5  9  1  0  0  0  0
  5 40  1  0  0  0  0
  6  8  1  0  0  0  0
  6 10  1  0  0  0  0
  6 41  1  0  0  0  0
  7 11  1  0  0  0  0
  7 42  1  0  0  0  0
  7 43  1  0  0  0  0
  8 12  1  0  0  0  0
  8 44  1  0  0  0  0
  8 45  1  0  0  0  0
  9 15  1  0  0  0  0
  9 46  1  0  0  0  0
  9 47  1  0  0  0  0
 10 16  1  0  0  0  0
 10 48  1  0  0  0  0
 10 49  1  0  0  0  0
 11 17  1  0  0  0  0
 11 50  1  0  0  0  0
 11 51  1  0  0  0  0
 12 18  1  0  0  0  0
 12 52  1  0  0  0  0
 12 53  1  0  0  0  0
 13 21  1  0  0  0  0
 13 54  1  0  0  0  0
 13 55  1  0  0  0  0
 14 22  1  0  0  0  0
 14 56  1  0  0  0  0
 14 57  1  0  0  0  0
 15 17  2  0  0  0  0
 15 30  1  0  0  0  0
 16 18  2  0  0  0  0
 16 31  1  0  0  0  0
 17 32  1  0  0  0  0
 18 33  1  0  0  0  0
 19 28  1  0  0  0  0
 19 58  1  0  0  0  0
 19 59  1  0  0  0  0
 20 29  1  0  0  0  0
 20 60  1  0  0  0  0
 20 61  1  0  0  0  0
 21 23  1  0  0  0  0
 21 62  1  0  0  0  0
 21 63  1  0  0  0  0
 22 24  1  0  0  0  0
 22 64  1  0  0  0  0
 22 65  1  0  0  0  0
 23 25  1  0  0  0  0
 23 66  1  0  0  0  0
 23 67  1  0  0  0  0
 24 26  1  0  0  0  0
 24 68  1  0  0  0  0
 24 69  1  0  0  0  0
 25 27  1  0  0  0  0
 25 70  1  0  0  0  0
 25 71  1  0  0  0  0
 26 27  1  0  0  0  0
 26 72  1  0  0  0  0
 26 73  1  0  0  0  0
 27 74  1  0  0  0  0
 27 75  1  0  0  0  0
 28 38  1  0  0  0  0
 28 76  1  0  0  0  0
 28 77  1  0  0  0  0
 29 39  1  0  0  0  0
 29 78  1  0  0  0  0
 29 79  1  0  0  0  0
 30 34  2  0  0  0  0
 30 80  1  0  0  0  0
 31 35  2  0  0  0  0
 31 81  1  0  0  0  0
 32 36  2  0  0  0  0
 33 37  2  0  0  0  0
 34 36  1  0  0  0  0
 34 82  1  0  0  0  0
 35 37  1  0  0  0  0
 35 83  1  0  0  0  0
 36 84  1  0  0  0  0
 37 85  1  0  0  0  0
 38 86  1  0  0  0  0
 38 87  1  0  0  0  0
 38 88  1  0  0  0  0
 39 89  1  0  0  0  0
 39 90  1  0  0  0  0
 39 91  1  0  0  0  0
M  END
> <PUBCHEM_COMPOUND_CID>
71459659

> <PUBCHEM_COMPOUND_CANONICALIZED>
1

> <PUBCHEM_CACTVS_COMPLEXITY>
605

> <PUBCHEM_CACTVS_HBOND_ACCEPTOR>
4

> <PUBCHEM_CACTVS_HBOND_DONOR>
2

> <PUBCHEM_CACTVS_ROTATABLE_BOND>
16

> <PUBCHEM_CACTVS_SUBSKEYS>
AAADcfB/MAAAAAAAAAAAAAAAAAAAAAAAAAAwYMGAAAAAAADBQAAAHgAACAAADCzBmAQyBoMAAgCAAiBCAAACAAAgIAAIiAAOCIgIJiKCkROEcAAkwBGImAeQ0LMOgAABAAAYAAAQAAKAADAAAAAAAAAAAA==

> <PUBCHEM_IUPAC_OPENEYE_NAME>
(2S)-2-[9-[[(2S)-5-hydroxytetralin-2-yl]-propyl-amino]nonyl-propyl-amino]tetralin-5-ol

> <PUBCHEM_IUPAC_CAS_NAME>
(6S)-6-[9-[[(2S)-5-hydroxy-1,2,3,4-tetrahydronaphthalen-2-yl]-propylamino]nonyl-propylamino]-5,6,7,8-tetrahydronaphthalen-1-ol

> <PUBCHEM_IUPAC_NAME_MARKUP>
(6<I>S</I>)-6-[9-[[(2<I>S</I>)-5-hydroxy-1,2,3,4-tetrahydronaphthalen-2-yl]-propylamino]nonyl-propylamino]-5,6,7,8-tetrahydronaphthalen-1-ol

> <PUBCHEM_IUPAC_NAME>
(6S)-6-[9-[[(2S)-5-hydroxy-1,2,3,4-tetrahydronaphthalen-2-yl]-propylamino]nonyl-propylamino]-5,6,7,8-tetrahydronaphthalen-1-ol

> <PUBCHEM_IUPAC_SYSTEMATIC_NAME>
(6S)-6-[9-[[(2S)-5-oxidanyl-1,2,3,4-tetrahydronaphthalen-2-yl]-propyl-amino]nonyl-propyl-amino]-5,6,7,8-tetrahydronaphthalen-1-ol

> <PUBCHEM_IUPAC_TRADITIONAL_NAME>
(2S)-2-[9-[[(2S)-5-hydroxytetralin-2-yl]-propyl-amino]nonyl-propyl-amino]tetralin-5-ol

> <PUBCHEM_IUPAC_INCHI>
InChI=1S/C35H54N2O2/c1-3-22-36(30-18-20-32-28(26-30)14-12-16-34(32)38)24-10-8-6-5-7-9-11-25-37(23-4-2)31-19-21-33-29(27-31)15-13-17-35(33)39/h12-17,30-31,38-39H,3-11,18-27H2,1-2H3/t30-,31-/m0/s1

> <PUBCHEM_IUPAC_INCHIKEY>
FAUOEZQOXBUMAX-CONSDPRKSA-N

> <PUBCHEM_XLOGP3_AA>
9.3

> <PUBCHEM_EXACT_MASS>
534.41852897

> <PUBCHEM_MOLECULAR_FORMULA>
C35H54N2O2

> <PUBCHEM_MOLECULAR_WEIGHT>
534.8

> <PUBCHEM_OPENEYE_CAN_SMILES>
CCCN(CCCCCCCCCN(CCC)C1CCC2=C(C1)C=CC=C2O)C3CCC4=C(C3)C=CC=C4O

> <PUBCHEM_OPENEYE_ISO_SMILES>
CCCN(CCCCCCCCCN(CCC)[C@H]1CCC2=C(C1)C=CC=C2O)[C@H]3CCC4=C(C3)C=CC=C4O

> <PUBCHEM_CACTVS_TPSA>
46.9

> <PUBCHEM_MONOISOTOPIC_WEIGHT>
534.41852897

> <PUBCHEM_TOTAL_CHARGE>
0

> <PUBCHEM_HEAVY_ATOM_COUNT>
39

> <PUBCHEM_ATOM_DEF_STEREO_COUNT>
2

> <PUBCHEM_ATOM_UDEF_STEREO_COUNT>
0

> <PUBCHEM_BOND_DEF_STEREO_COUNT>
0

> <PUBCHEM_BOND_UDEF_STEREO_COUNT>
0

> <PUBCHEM_ISOTOPIC_ATOM_COUNT>
0

> <PUBCHEM_COMPONENT_COUNT>
1

> <PUBCHEM_CACTVS_TAUTO_COUNT>
-1

> <PUBCHEM_COORDINATE_TYPE>
1
5
255

> <PUBCHEM_BONDANNOTATIONS>
15  17  8
15  30  8
16  18  8
16  31  8
17  32  8
18  33  8
5  3  5
30  34  8
31  35  8
32  36  8
33  37  8
34  36  8
35  37  8
6  4  6

$$$$
