72545008
  -OEChem-09292322342D

 66 68  0     0  0  0  0  0  0999 V2000
   16.5406    5.5317    0.0000 F   0  0  0  0  0  0  0  0  0  0  0  0
    2.8660   -3.5317    0.0000 O   0  0  0  0  0  0  0  0  0  0  0  0
    9.6236    1.9047    0.0000 O   0  0  0  0  0  0  0  0  0  0  0  0
   11.7937    3.4182    0.0000 O   0  0  0  0  0  0  0  0  0  0  0  0
   14.3705    4.0182    0.0000 O   0  0  0  0  0  0  0  0  0  0  0  0
    4.5981   -0.5317    0.0000 N   0  0  0  0  0  0  0  0  0  0  0  0
    4.5981   -2.5317    0.0000 N   0  0  0  0  0  0  0  0  0  0  0  0
    7.0468    1.3047    0.0000 N   0  0  0  0  0  0  0  0  0  0  0  0
    5.5686    1.9628    0.0000 N   0  0  0  0  0  0  0  0  0  0  0  0
    6.5468    2.1708    0.0000 N   0  0  0  0  0  0  0  0  0  0  0  0
    5.4641   -1.0317    0.0000 C   0  0  0  0  0  0  0  0  0  0  0  0
    3.7320   -1.0317    0.0000 C   0  0  0  0  0  0  0  0  0  0  0  0
    5.4641   -2.0317    0.0000 C   0  0  0  0  0  0  0  0  0  0  0  0
    3.7320   -2.0317    0.0000 C   0  0  0  0  0  0  0  0  0  0  0  0
    4.5981    0.4683    0.0000 C   0  0  0  0  0  0  0  0  0  0  0  0
    4.5981   -3.5317    0.0000 C   0  0  0  0  0  0  0  0  0  0  0  0
    5.4641    0.9683    0.0000 C   0  0  0  0  0  0  0  0  0  0  0  0
    3.7320   -4.0317    0.0000 C   0  0  0  0  0  0  0  0  0  0  0  0
    5.4641   -4.0317    0.0000 C   0  0  0  0  0  0  0  0  0  0  0  0
    6.3776    0.5616    0.0000 C   0  0  0  0  0  0  0  0  0  0  0  0
    3.7320   -5.0317    0.0000 C   0  0  0  0  0  0  0  0  0  0  0  0
    5.4641   -5.0317    0.0000 C   0  0  0  0  0  0  0  0  0  0  0  0
    8.0413    1.2002    0.0000 C   0  0  0  0  0  0  0  0  0  0  0  0
    4.5981   -5.5317    0.0000 C   0  0  0  0  0  0  0  0  0  0  0  0
    8.6291    2.0092    0.0000 C   0  0  0  0  0  0  0  0  0  0  0  0
    2.0000   -4.0317    0.0000 C   0  0  0  0  0  0  0  0  0  0  0  0
   10.2114    2.7137    0.0000 C   0  0  0  0  0  0  0  0  0  0  0  0
   11.2059    2.6092    0.0000 C   0  0  0  0  0  0  0  0  0  0  0  0
   12.7882    3.3137    0.0000 C   0  0  0  0  0  0  0  0  0  0  0  0
   13.3760    4.1227    0.0000 C   0  0  0  0  0  0  0  0  0  0  0  0
   14.9583    4.8272    0.0000 C   0  0  0  0  0  0  0  0  0  0  0  0
   15.9528    4.7226    0.0000 C   0  0  0  0  0  0  0  0  0  0  0  0
    6.0747   -1.1393    0.0000 H   0  0  0  0  0  0  0  0  0  0  0  0
    5.6762   -0.4491    0.0000 H   0  0  0  0  0  0  0  0  0  0  0  0
    3.5200   -0.4491    0.0000 H   0  0  0  0  0  0  0  0  0  0  0  0
    3.1215   -1.1393    0.0000 H   0  0  0  0  0  0  0  0  0  0  0  0
    5.6762   -2.6143    0.0000 H   0  0  0  0  0  0  0  0  0  0  0  0
    6.0747   -1.9240    0.0000 H   0  0  0  0  0  0  0  0  0  0  0  0
    3.1215   -1.9240    0.0000 H   0  0  0  0  0  0  0  0  0  0  0  0
    3.5200   -2.6143    0.0000 H   0  0  0  0  0  0  0  0  0  0  0  0
    4.3860    1.0509    0.0000 H   0  0  0  0  0  0  0  0  0  0  0  0
    3.9875    0.3607    0.0000 H   0  0  0  0  0  0  0  0  0  0  0  0
    6.0010   -3.7217    0.0000 H   0  0  0  0  0  0  0  0  0  0  0  0
    6.5066   -0.0449    0.0000 H   0  0  0  0  0  0  0  0  0  0  0  0
    3.1951   -5.3417    0.0000 H   0  0  0  0  0  0  0  0  0  0  0  0
    6.0010   -5.3417    0.0000 H   0  0  0  0  0  0  0  0  0  0  0  0
    7.8704    0.6042    0.0000 H   0  0  0  0  0  0  0  0  0  0  0  0
    8.5986    0.9284    0.0000 H   0  0  0  0  0  0  0  0  0  0  0  0
    4.5981   -6.1517    0.0000 H   0  0  0  0  0  0  0  0  0  0  0  0
    8.8000    2.6052    0.0000 H   0  0  0  0  0  0  0  0  0  0  0  0
    8.0718    2.2810    0.0000 H   0  0  0  0  0  0  0  0  0  0  0  0
    1.6900   -3.4947    0.0000 H   0  0  0  0  0  0  0  0  0  0  0  0
    1.4631   -4.3417    0.0000 H   0  0  0  0  0  0  0  0  0  0  0  0
    2.3100   -4.5686    0.0000 H   0  0  0  0  0  0  0  0  0  0  0  0
   10.3823    3.3097    0.0000 H   0  0  0  0  0  0  0  0  0  0  0  0
    9.6541    2.9855    0.0000 H   0  0  0  0  0  0  0  0  0  0  0  0
   11.0350    2.0132    0.0000 H   0  0  0  0  0  0  0  0  0  0  0  0
   11.7632    2.3374    0.0000 H   0  0  0  0  0  0  0  0  0  0  0  0
   12.6173    2.7177    0.0000 H   0  0  0  0  0  0  0  0  0  0  0  0
   13.3455    3.0419    0.0000 H   0  0  0  0  0  0  0  0  0  0  0  0
   13.5469    4.7187    0.0000 H   0  0  0  0  0  0  0  0  0  0  0  0
   12.8188    4.3945    0.0000 H   0  0  0  0  0  0  0  0  0  0  0  0
   15.1292    5.4232    0.0000 H   0  0  0  0  0  0  0  0  0  0  0  0
   14.4011    5.0990    0.0000 H   0  0  0  0  0  0  0  0  0  0  0  0
   15.7819    4.1267    0.0000 H   0  0  0  0  0  0  0  0  0  0  0  0
   16.5101    4.4509    0.0000 H   0  0  0  0  0  0  0  0  0  0  0  0
  1 32  1  0  0  0  0
  2 18  1  0  0  0  0
  2 26  1  0  0  0  0
  3 25  1  0  0  0  0
  3 27  1  0  0  0  0
  4 28  1  0  0  0  0
  4 29  1  0  0  0  0
  5 30  1  0  0  0  0
  5 31  1  0  0  0  0
  6 11  1  0  0  0  0
  6 12  1  0  0  0  0
  6 15  1  0  0  0  0
  7 13  1  0  0  0  0
  7 14  1  0  0  0  0
  7 16  1  0  0  0  0
  8 10  1  0  0  0  0
  8 20  1  0  0  0  0
  8 23  1  0  0  0  0
  9 10  2  0  0  0  0
  9 17  1  0  0  0  0
 11 13  1  0  0  0  0
 11 33  1  0  0  0  0
 11 34  1  0  0  0  0
 12 14  1  0  0  0  0
 12 35  1  0  0  0  0
 12 36  1  0  0  0  0
 13 37  1  0  0  0  0
 13 38  1  0  0  0  0
 14 39  1  0  0  0  0
 14 40  1  0  0  0  0
 15 17  1  0  0  0  0
 15 41  1  0  0  0  0
 15 42  1  0  0  0  0
 16 18  1  0  0  0  0
 16 19  2  0  0  0  0
 17 20  2  0  0  0  0
 18 21  2  0  0  0  0
 19 22  1  0  0  0  0
 19 43  1  0  0  0  0
 20 44  1  0  0  0  0
 21 24  1  0  0  0  0
 21 45  1  0  0  0  0
 22 24  2  0  0  0  0
 22 46  1  0  0  0  0
 23 25  1  0  0  0  0
 23 47  1  0  0  0  0
 23 48  1  0  0  0  0
 24 49  1  0  0  0  0
 25 50  1  0  0  0  0
 25 51  1  0  0  0  0
 26 52  1  0  0  0  0
 26 53  1  0  0  0  0
 26 54  1  0  0  0  0
 27 28  1  0  0  0  0
 27 55  1  0  0  0  0
 27 56  1  0  0  0  0
 28 57  1  0  0  0  0
 28 58  1  0  0  0  0
 29 30  1  0  0  0  0
 29 59  1  0  0  0  0
 29 60  1  0  0  0  0
 30 61  1  0  0  0  0
 30 62  1  0  0  0  0
 31 32  1  0  0  0  0
 31 63  1  0  0  0  0
 31 64  1  0  0  0  0
 32 65  1  0  0  0  0
 32 66  1  0  0  0  0
M  END
> <PUBCHEM_COMPOUND_CID>
72545008

> <PUBCHEM_COMPOUND_CANONICALIZED>
1

> <PUBCHEM_CACTVS_COMPLEXITY>
487

> <PUBCHEM_CACTVS_HBOND_ACCEPTOR>
9

> <PUBCHEM_CACTVS_HBOND_DONOR>
0

> <PUBCHEM_CACTVS_ROTATABLE_BOND>
15

> <PUBCHEM_CACTVS_SUBSKEYS>
AAADcfB7uQAAAAAAAAAAAAAAAAAAAWAAAAA8QAAAAAAAAAABwAAAHwAIAAAACAzhlgY+xpMIBACiATRnRACCDAQxsgAY2AA/fIgPZiLE8ZuXMChkwBHa6AeQQAAAAAAAAAAAEAAAAAAAAAAgAAAAAAAAAA==

> <PUBCHEM_IUPAC_OPENEYE_NAME>
1-[[1-[2-[2-[2-(2-fluoroethoxy)ethoxy]ethoxy]ethyl]triazol-4-yl]methyl]-4-(2-methoxyphenyl)piperazine

> <PUBCHEM_IUPAC_CAS_NAME>
1-[[1-[2-[2-[2-(2-fluoroethoxy)ethoxy]ethoxy]ethyl]-4-triazolyl]methyl]-4-(2-methoxyphenyl)piperazine

> <PUBCHEM_IUPAC_NAME_MARKUP>
1-[[1-[2-[2-[2-(2-fluoroethoxy)ethoxy]ethoxy]ethyl]triazol-4-yl]methyl]-4-(2-methoxyphenyl)piperazine

> <PUBCHEM_IUPAC_NAME>
1-[[1-[2-[2-[2-(2-fluoroethoxy)ethoxy]ethoxy]ethyl]triazol-4-yl]methyl]-4-(2-methoxyphenyl)piperazine

> <PUBCHEM_IUPAC_SYSTEMATIC_NAME>
1-[[1-[2-[2-[2-(2-fluoranylethoxy)ethoxy]ethoxy]ethyl]-1,2,3-triazol-4-yl]methyl]-4-(2-methoxyphenyl)piperazine

> <PUBCHEM_IUPAC_TRADITIONAL_NAME>
1-[[1-[2-[2-[2-(2-fluoroethoxy)ethoxy]ethoxy]ethyl]triazol-4-yl]methyl]-4-(2-methoxyphenyl)piperazine

> <PUBCHEM_IUPAC_INCHI>
InChI=1S/C22H34FN5O4/c1-29-22-5-3-2-4-21(22)27-9-7-26(8-10-27)18-20-19-28(25-24-20)11-13-31-15-17-32-16-14-30-12-6-23/h2-5,19H,6-18H2,1H3

> <PUBCHEM_IUPAC_INCHIKEY>
WTAVHOMZPZTGNJ-UHFFFAOYSA-N

> <PUBCHEM_XLOGP3_AA>
1

> <PUBCHEM_EXACT_MASS>
451.25948274

> <PUBCHEM_MOLECULAR_FORMULA>
C22H34FN5O4

> <PUBCHEM_MOLECULAR_WEIGHT>
451.5

> <PUBCHEM_OPENEYE_CAN_SMILES>
COC1=CC=CC=C1N2CCN(CC2)CC3=CN(N=N3)CCOCCOCCOCCF

> <PUBCHEM_OPENEYE_ISO_SMILES>
COC1=CC=CC=C1N2CCN(CC2)CC3=CN(N=N3)CCOCCOCCOCCF

> <PUBCHEM_CACTVS_TPSA>
74.1

> <PUBCHEM_MONOISOTOPIC_WEIGHT>
451.25948274

> <PUBCHEM_TOTAL_CHARGE>
0

> <PUBCHEM_HEAVY_ATOM_COUNT>
32

> <PUBCHEM_ATOM_DEF_STEREO_COUNT>
0

> <PUBCHEM_ATOM_UDEF_STEREO_COUNT>
0

> <PUBCHEM_BOND_DEF_STEREO_COUNT>
0

> <PUBCHEM_BOND_UDEF_STEREO_COUNT>
0

> <PUBCHEM_ISOTOPIC_ATOM_COUNT>
0

> <PUBCHEM_COMPONENT_COUNT>
1

> <PUBCHEM_CACTVS_TAUTO_COUNT>
-1

> <PUBCHEM_COORDINATE_TYPE>
1
5
255

> <PUBCHEM_BONDANNOTATIONS>
16  18  8
16  19  8
17  20  8
18  21  8
19  22  8
21  24  8
22  24  8
8  10  8
8  20  8
9  10  8
9  17  8

$$$$
