118719811
  -OEChem-09292322362D

 56 59  0     0  0  0  0  0  0999 V2000
    9.1524   -3.9715    0.0000 O   0  0  0  0  0  0  0  0  0  0  0  0
    2.6166    3.4400    0.0000 O   0  0  0  0  0  0  0  0  0  0  0  0
    7.4204   -0.9715    0.0000 N   0  0  0  0  0  0  0  0  0  0  0  0
    7.4204   -2.9715    0.0000 N   0  0  0  0  0  0  0  0  0  0  0  0
    4.6056    3.2309    0.0000 N   0  0  0  0  0  0  0  0  0  0  0  0
    4.7748    1.6217    0.0000 N   0  0  0  0  0  0  0  0  0  0  0  0
    4.1056    2.3649    0.0000 N   0  0  0  0  0  0  0  0  0  0  0  0
    6.5544   -1.4715    0.0000 C   0  0  0  0  0  0  0  0  0  0  0  0
    8.2864   -1.4715    0.0000 C   0  0  0  0  0  0  0  0  0  0  0  0
    6.5544   -2.4715    0.0000 C   0  0  0  0  0  0  0  0  0  0  0  0
    8.2864   -2.4715    0.0000 C   0  0  0  0  0  0  0  0  0  0  0  0
    7.4204    0.0285    0.0000 C   0  0  0  0  0  0  0  0  0  0  0  0
    6.5544    0.5285    0.0000 C   0  0  0  0  0  0  0  0  0  0  0  0
    7.4204   -3.9715    0.0000 C   0  0  0  0  0  0  0  0  0  0  0  0
    6.5544    1.5285    0.0000 C   0  0  0  0  0  0  0  0  0  0  0  0
    8.2864   -4.4715    0.0000 C   0  0  0  0  0  0  0  0  0  0  0  0
    6.5544   -4.4715    0.0000 C   0  0  0  0  0  0  0  0  0  0  0  0
    5.6883    2.0285    0.0000 C   0  0  0  0  0  0  0  0  0  0  0  0
    8.2864   -5.4715    0.0000 C   0  0  0  0  0  0  0  0  0  0  0  0
    6.5544   -5.4715    0.0000 C   0  0  0  0  0  0  0  0  0  0  0  0
    5.5838    3.0230    0.0000 C   0  0  0  0  0  0  0  0  0  0  0  0
    7.4204   -5.9715    0.0000 C   0  0  0  0  0  0  0  0  0  0  0  0
    4.1989    4.1444    0.0000 C   0  0  0  0  0  0  0  0  0  0  0  0
   10.0185   -4.4715    0.0000 C   0  0  0  0  0  0  0  0  0  0  0  0
    3.2044    4.2490    0.0000 C   0  0  0  0  0  0  0  0  0  0  0  0
    4.7867    4.9535    0.0000 C   0  0  0  0  0  0  0  0  0  0  0  0
    2.7976    5.1625    0.0000 C   0  0  0  0  0  0  0  0  0  0  0  0
    4.3800    5.8670    0.0000 C   0  0  0  0  0  0  0  0  0  0  0  0
    3.3854    5.9715    0.0000 C   0  0  0  0  0  0  0  0  0  0  0  0
    6.3423   -0.8889    0.0000 H   0  0  0  0  0  0  0  0  0  0  0  0
    5.9438   -1.5792    0.0000 H   0  0  0  0  0  0  0  0  0  0  0  0
    8.8970   -1.5792    0.0000 H   0  0  0  0  0  0  0  0  0  0  0  0
    8.4984   -0.8889    0.0000 H   0  0  0  0  0  0  0  0  0  0  0  0
    5.9438   -2.3639    0.0000 H   0  0  0  0  0  0  0  0  0  0  0  0
    6.3423   -3.0541    0.0000 H   0  0  0  0  0  0  0  0  0  0  0  0
    8.4984   -3.0541    0.0000 H   0  0  0  0  0  0  0  0  0  0  0  0
    8.8970   -2.3639    0.0000 H   0  0  0  0  0  0  0  0  0  0  0  0
    8.0310   -0.0792    0.0000 H   0  0  0  0  0  0  0  0  0  0  0  0
    7.6324    0.6111    0.0000 H   0  0  0  0  0  0  0  0  0  0  0  0
    5.9438    0.6361    0.0000 H   0  0  0  0  0  0  0  0  0  0  0  0
    6.3423   -0.0541    0.0000 H   0  0  0  0  0  0  0  0  0  0  0  0
    7.1649    1.4208    0.0000 H   0  0  0  0  0  0  0  0  0  0  0  0
    6.7664    2.1111    0.0000 H   0  0  0  0  0  0  0  0  0  0  0  0
    6.0174   -4.1615    0.0000 H   0  0  0  0  0  0  0  0  0  0  0  0
    8.8233   -5.7815    0.0000 H   0  0  0  0  0  0  0  0  0  0  0  0
    6.0174   -5.7815    0.0000 H   0  0  0  0  0  0  0  0  0  0  0  0
    6.0445    3.4378    0.0000 H   0  0  0  0  0  0  0  0  0  0  0  0
    7.4204   -6.5915    0.0000 H   0  0  0  0  0  0  0  0  0  0  0  0
    9.7084   -5.0085    0.0000 H   0  0  0  0  0  0  0  0  0  0  0  0
   10.5554   -4.7815    0.0000 H   0  0  0  0  0  0  0  0  0  0  0  0
   10.3285   -3.9346    0.0000 H   0  0  0  0  0  0  0  0  0  0  0  0
    5.4033    4.8886    0.0000 H   0  0  0  0  0  0  0  0  0  0  0  0
    2.1810    5.2273    0.0000 H   0  0  0  0  0  0  0  0  0  0  0  0
    4.7444    6.3686    0.0000 H   0  0  0  0  0  0  0  0  0  0  0  0
    3.1333    6.5379    0.0000 H   0  0  0  0  0  0  0  0  0  0  0  0
    2.0000    3.5048    0.0000 H   0  0  0  0  0  0  0  0  0  0  0  0
  1 16  1  0  0  0  0
  1 24  1  0  0  0  0
  2 25  1  0  0  0  0
  2 56  1  0  0  0  0
  3  8  1  0  0  0  0
  3  9  1  0  0  0  0
  3 12  1  0  0  0  0
  4 10  1  0  0  0  0
  4 11  1  0  0  0  0
  4 14  1  0  0  0  0
  5  7  1  0  0  0  0
  5 21  1  0  0  0  0
  5 23  1  0  0  0  0
  6  7  2  0  0  0  0
  6 18  1  0  0  0  0
  8 10  1  0  0  0  0
  8 30  1  0  0  0  0
  8 31  1  0  0  0  0
  9 11  1  0  0  0  0
  9 32  1  0  0  0  0
  9 33  1  0  0  0  0
 10 34  1  0  0  0  0
 10 35  1  0  0  0  0
 11 36  1  0  0  0  0
 11 37  1  0  0  0  0
 12 13  1  0  0  0  0
 12 38  1  0  0  0  0
 12 39  1  0  0  0  0
 13 15  1  0  0  0  0
 13 40  1  0  0  0  0
 13 41  1  0  0  0  0
 14 16  1  0  0  0  0
 14 17  2  0  0  0  0
 15 18  1  0  0  0  0
 15 42  1  0  0  0  0
 15 43  1  0  0  0  0
 16 19  2  0  0  0  0
 17 20  1  0  0  0  0
 17 44  1  0  0  0  0
 18 21  2  0  0  0  0
 19 22  1  0  0  0  0
 19 45  1  0  0  0  0
 20 22  2  0  0  0  0
 20 46  1  0  0  0  0
 21 47  1  0  0  0  0
 22 48  1  0  0  0  0
 23 25  1  0  0  0  0
 23 26  2  0  0  0  0
 24 49  1  0  0  0  0
 24 50  1  0  0  0  0
 24 51  1  0  0  0  0
 25 27  2  0  0  0  0
 26 28  1  0  0  0  0
 26 52  1  0  0  0  0
 27 29  1  0  0  0  0
 27 53  1  0  0  0  0
 28 29  2  0  0  0  0
 28 54  1  0  0  0  0
 29 55  1  0  0  0  0
M  END
> <PUBCHEM_COMPOUND_CID>
118719811

> <PUBCHEM_COMPOUND_CANONICALIZED>
1

> <PUBCHEM_CACTVS_COMPLEXITY>
488

> <PUBCHEM_CACTVS_HBOND_ACCEPTOR>
6

> <PUBCHEM_CACTVS_HBOND_DONOR>
1

> <PUBCHEM_CACTVS_ROTATABLE_BOND>
7

> <PUBCHEM_CACTVS_SUBSKEYS>
AAADceB7sAAAAAAAAAAAAAAAAAAAAWAAAAA8YIAAAAAAAAAB0AAAHgAICAAACAzBlgY+xpMIBgCiATRnRACCDCQxsgAYmAA/fIgOZmLWsZuVcChkwBHY+AeQQAAAAAAAAAAAEAAAAAAAAAAgAAAAAAAAAA==

> <PUBCHEM_IUPAC_OPENEYE_NAME>
2-[4-[3-[4-(2-methoxyphenyl)piperazin-1-yl]propyl]triazol-1-yl]phenol

> <PUBCHEM_IUPAC_CAS_NAME>
2-[4-[3-[4-(2-methoxyphenyl)-1-piperazinyl]propyl]-1-triazolyl]phenol

> <PUBCHEM_IUPAC_NAME_MARKUP>
2-[4-[3-[4-(2-methoxyphenyl)piperazin-1-yl]propyl]triazol-1-yl]phenol

> <PUBCHEM_IUPAC_NAME>
2-[4-[3-[4-(2-methoxyphenyl)piperazin-1-yl]propyl]triazol-1-yl]phenol

> <PUBCHEM_IUPAC_SYSTEMATIC_NAME>
2-[4-[3-[4-(2-methoxyphenyl)piperazin-1-yl]propyl]-1,2,3-triazol-1-yl]phenol

> <PUBCHEM_IUPAC_TRADITIONAL_NAME>
2-[4-[3-[4-(2-methoxyphenyl)piperazino]propyl]triazol-1-yl]phenol

> <PUBCHEM_IUPAC_INCHI>
InChI=1S/C22H27N5O2/c1-29-22-11-5-3-9-20(22)26-15-13-25(14-16-26)12-6-7-18-17-27(24-23-18)19-8-2-4-10-21(19)28/h2-5,8-11,17,28H,6-7,12-16H2,1H3

> <PUBCHEM_IUPAC_INCHIKEY>
GEGLEQALPLAWHZ-UHFFFAOYSA-N

> <PUBCHEM_XLOGP3_AA>
3.2

> <PUBCHEM_EXACT_MASS>
393.21647512

> <PUBCHEM_MOLECULAR_FORMULA>
C22H27N5O2

> <PUBCHEM_MOLECULAR_WEIGHT>
393.5

> <PUBCHEM_OPENEYE_CAN_SMILES>
COC1=CC=CC=C1N2CCN(CC2)CCCC3=CN(N=N3)C4=CC=CC=C4O

> <PUBCHEM_OPENEYE_ISO_SMILES>
COC1=CC=CC=C1N2CCN(CC2)CCCC3=CN(N=N3)C4=CC=CC=C4O

> <PUBCHEM_CACTVS_TPSA>
66.6

> <PUBCHEM_MONOISOTOPIC_WEIGHT>
393.21647512

> <PUBCHEM_TOTAL_CHARGE>
0

> <PUBCHEM_HEAVY_ATOM_COUNT>
29

> <PUBCHEM_ATOM_DEF_STEREO_COUNT>
0

> <PUBCHEM_ATOM_UDEF_STEREO_COUNT>
0

> <PUBCHEM_BOND_DEF_STEREO_COUNT>
0

> <PUBCHEM_BOND_UDEF_STEREO_COUNT>
0

> <PUBCHEM_ISOTOPIC_ATOM_COUNT>
0

> <PUBCHEM_COMPONENT_COUNT>
1

> <PUBCHEM_CACTVS_TAUTO_COUNT>
-1

> <PUBCHEM_COORDINATE_TYPE>
1
5
255

> <PUBCHEM_BONDANNOTATIONS>
14  16  8
14  17  8
16  19  8
17  20  8
18  21  8
19  22  8
20  22  8
23  25  8
23  26  8
25  27  8
26  28  8
27  29  8
28  29  8
5  21  8
5  7  8
6  18  8
6  7  8

$$$$
