44397588
  -OEChem-09292322092D

 86 88  0     0  0  0  0  0  0999 V2000
   10.3681    9.6690    0.0000 F   0  0  0  0  0  0  0  0  0  0  0  0
   10.0021    8.3030    0.0000 F   0  0  0  0  0  0  0  0  0  0  0  0
   11.3681    7.9370    0.0000 F   0  0  0  0  0  0  0  0  0  0  0  0
    4.8671    3.6200    0.0000 O   0  0  0  0  0  0  0  0  0  0  0  0
   12.6002    8.8030    0.0000 O   0  0  0  0  0  0  0  0  0  0  0  0
   11.7341   10.3030    0.0000 O   0  0  0  0  0  0  0  0  0  0  0  0
    4.0010    5.1200    0.0000 N   0  0  0  0  0  0  0  0  0  0  0  0
    1.4030    5.6200    0.0000 N   0  0  0  0  0  0  0  0  0  0  0  0
    5.7331   13.1200    0.0000 N   0  0  0  0  0  0  0  0  0  0  0  0
    3.1350    5.6200    0.0000 C   0  0  0  0  0  0  0  0  0  0  0  0
    4.8671    5.6200    0.0000 C   0  0  0  0  0  0  0  0  0  0  0  0
    2.2690    5.1200    0.0000 C   0  0  0  0  0  0  0  0  0  0  0  0
    4.8671    6.6200    0.0000 C   0  0  0  0  0  0  0  0  0  0  0  0
    4.8671    8.6200    0.0000 C   0  0  0  0  0  0  0  0  0  0  0  0
    4.0010    7.1200    0.0000 C   0  0  0  0  0  0  0  0  0  0  0  0
    5.7331    7.1200    0.0000 C   0  0  0  0  0  0  0  0  0  0  0  0
    4.8671    9.6200    0.0000 C   0  0  0  0  0  0  0  0  0  0  0  0
    4.0010    4.1200    0.0000 C   0  0  0  0  0  0  0  0  0  0  0  0
    4.0010    8.1200    0.0000 C   0  0  0  0  0  0  0  0  0  0  0  0
    5.7331    8.1200    0.0000 C   0  0  0  0  0  0  0  0  0  0  0  0
    4.8671   11.6200    0.0000 C   0  0  0  0  0  0  0  0  0  0  0  0
    4.8671   12.6200    0.0000 C   0  0  0  0  0  0  0  0  0  0  0  0
    5.7331   14.1200    0.0000 C   0  0  0  0  0  0  0  0  0  0  0  0
    5.7331   10.1200    0.0000 C   0  0  0  0  0  0  0  0  0  0  0  0
    4.0010   10.1200    0.0000 C   0  0  0  0  0  0  0  0  0  0  0  0
    6.5991   14.6200    0.0000 C   0  0  0  0  0  0  0  0  0  0  0  0
    5.7331   11.1200    0.0000 C   0  0  0  0  0  0  0  0  0  0  0  0
    4.0010   11.1200    0.0000 C   0  0  0  0  0  0  0  0  0  0  0  0
    0.5369    5.1200    0.0000 C   0  0  0  0  0  0  0  0  0  0  0  0
    1.4030    6.6200    0.0000 C   0  0  0  0  0  0  0  0  0  0  0  0
    6.5991   15.6200    0.0000 C   0  0  0  0  0  0  0  0  0  0  0  0
    3.1350    3.6200    0.0000 C   0  0  0  0  0  0  0  0  0  0  0  0
    7.4651   16.1200    0.0000 C   0  0  0  0  0  0  0  0  0  0  0  0
    5.7331   16.1200    0.0000 C   0  0  0  0  0  0  0  0  0  0  0  0
    3.1350    2.6200    0.0000 C   0  0  0  0  0  0  0  0  0  0  0  0
    2.2690    2.1200    0.0000 C   0  0  0  0  0  0  0  0  0  0  0  0
    7.4651   17.1200    0.0000 C   0  0  0  0  0  0  0  0  0  0  0  0
    5.7331   17.1200    0.0000 C   0  0  0  0  0  0  0  0  0  0  0  0
    6.5991   17.6200    0.0000 C   0  0  0  0  0  0  0  0  0  0  0  0
    2.2690    1.1200    0.0000 C   0  0  0  0  0  0  0  0  0  0  0  0
    1.4030    2.6200    0.0000 C   0  0  0  0  0  0  0  0  0  0  0  0
    1.4030    0.6200    0.0000 C   0  0  0  0  0  0  0  0  0  0  0  0
    0.5369    2.1200    0.0000 C   0  0  0  0  0  0  0  0  0  0  0  0
    0.5369    1.1200    0.0000 C   0  0  0  0  0  0  0  0  0  0  0  0
   10.8681    8.8030    0.0000 C   0  0  0  0  0  0  0  0  0  0  0  0
   11.7341    9.3030    0.0000 C   0  0  0  0  0  0  0  0  0  0  0  0
    3.5335    6.0950    0.0000 H   0  0  0  0  0  0  0  0  0  0  0  0
    2.7365    6.0950    0.0000 H   0  0  0  0  0  0  0  0  0  0  0  0
    5.0791    5.0374    0.0000 H   0  0  0  0  0  0  0  0  0  0  0  0
    5.4776    5.7277    0.0000 H   0  0  0  0  0  0  0  0  0  0  0  0
    1.8705    4.6450    0.0000 H   0  0  0  0  0  0  0  0  0  0  0  0
    2.6675    4.6450    0.0000 H   0  0  0  0  0  0  0  0  0  0  0  0
    3.4641    6.8100    0.0000 H   0  0  0  0  0  0  0  0  0  0  0  0
    6.2700    6.8100    0.0000 H   0  0  0  0  0  0  0  0  0  0  0  0
    3.4641    8.4300    0.0000 H   0  0  0  0  0  0  0  0  0  0  0  0
    6.2700    8.4300    0.0000 H   0  0  0  0  0  0  0  0  0  0  0  0
    4.6550   13.2026    0.0000 H   0  0  0  0  0  0  0  0  0  0  0  0
    4.2565   12.5123    0.0000 H   0  0  0  0  0  0  0  0  0  0  0  0
    5.5210   14.7026    0.0000 H   0  0  0  0  0  0  0  0  0  0  0  0
    5.1225   14.0123    0.0000 H   0  0  0  0  0  0  0  0  0  0  0  0
    6.2700    9.8100    0.0000 H   0  0  0  0  0  0  0  0  0  0  0  0
    3.4641    9.8100    0.0000 H   0  0  0  0  0  0  0  0  0  0  0  0
    6.2700   12.8100    0.0000 H   0  0  0  0  0  0  0  0  0  0  0  0
    6.8112   14.0374    0.0000 H   0  0  0  0  0  0  0  0  0  0  0  0
    7.2097   14.7277    0.0000 H   0  0  0  0  0  0  0  0  0  0  0  0
    6.2700   11.4300    0.0000 H   0  0  0  0  0  0  0  0  0  0  0  0
    3.4641   11.4300    0.0000 H   0  0  0  0  0  0  0  0  0  0  0  0
    0.2269    5.6569    0.0000 H   0  0  0  0  0  0  0  0  0  0  0  0
    0.0000    4.8100    0.0000 H   0  0  0  0  0  0  0  0  0  0  0  0
    0.8469    4.5831    0.0000 H   0  0  0  0  0  0  0  0  0  0  0  0
    2.0230    6.6200    0.0000 H   0  0  0  0  0  0  0  0  0  0  0  0
    1.4030    7.2400    0.0000 H   0  0  0  0  0  0  0  0  0  0  0  0
    0.7830    6.6200    0.0000 H   0  0  0  0  0  0  0  0  0  0  0  0
    2.5981    3.9300    0.0000 H   0  0  0  0  0  0  0  0  0  0  0  0
    8.0021   15.8100    0.0000 H   0  0  0  0  0  0  0  0  0  0  0  0
    5.1962   15.8100    0.0000 H   0  0  0  0  0  0  0  0  0  0  0  0
    3.6720    2.3100    0.0000 H   0  0  0  0  0  0  0  0  0  0  0  0
    8.0021   17.4300    0.0000 H   0  0  0  0  0  0  0  0  0  0  0  0
    5.1962   17.4300    0.0000 H   0  0  0  0  0  0  0  0  0  0  0  0
    6.5991   18.2400    0.0000 H   0  0  0  0  0  0  0  0  0  0  0  0
    2.8059    0.8100    0.0000 H   0  0  0  0  0  0  0  0  0  0  0  0
    1.4030    3.2400    0.0000 H   0  0  0  0  0  0  0  0  0  0  0  0
    1.4030    0.0000    0.0000 H   0  0  0  0  0  0  0  0  0  0  0  0
    0.0000    2.4300    0.0000 H   0  0  0  0  0  0  0  0  0  0  0  0
    0.0000    0.8100    0.0000 H   0  0  0  0  0  0  0  0  0  0  0  0
   13.1371    9.1130    0.0000 H   0  0  0  0  0  0  0  0  0  0  0  0
  1 45  1  0  0  0  0
  2 45  1  0  0  0  0
  3 45  1  0  0  0  0
  4 18  2  0  0  0  0
  5 46  1  0  0  0  0
  5 86  1  0  0  0  0
  6 46  2  0  0  0  0
  7 10  1  0  0  0  0
  7 11  1  0  0  0  0
  7 18  1  0  0  0  0
  8 12  1  0  0  0  0
  8 29  1  0  0  0  0
  8 30  1  0  0  0  0
  9 22  1  0  0  0  0
  9 23  1  0  0  0  0
  9 63  1  0  0  0  0
 10 12  1  0  0  0  0
 10 47  1  0  0  0  0
 10 48  1  0  0  0  0
 11 13  1  0  0  0  0
 11 49  1  0  0  0  0
 11 50  1  0  0  0  0
 12 51  1  0  0  0  0
 12 52  1  0  0  0  0
 13 15  2  0  0  0  0
 13 16  1  0  0  0  0
 14 17  1  0  0  0  0
 14 19  2  0  0  0  0
 14 20  1  0  0  0  0
 15 19  1  0  0  0  0
 15 53  1  0  0  0  0
 16 20  2  0  0  0  0
 16 54  1  0  0  0  0
 17 24  2  0  0  0  0
 17 25  1  0  0  0  0
 18 32  1  0  0  0  0
 19 55  1  0  0  0  0
 20 56  1  0  0  0  0
 21 22  1  0  0  0  0
 21 27  2  0  0  0  0
 21 28  1  0  0  0  0
 22 57  1  0  0  0  0
 22 58  1  0  0  0  0
 23 26  1  0  0  0  0
 23 59  1  0  0  0  0
 23 60  1  0  0  0  0
 24 27  1  0  0  0  0
 24 61  1  0  0  0  0
 25 28  2  0  0  0  0
 25 62  1  0  0  0  0
 26 31  1  0  0  0  0
 26 64  1  0  0  0  0
 26 65  1  0  0  0  0
 27 66  1  0  0  0  0
 28 67  1  0  0  0  0
 29 68  1  0  0  0  0
 29 69  1  0  0  0  0
 29 70  1  0  0  0  0
 30 71  1  0  0  0  0
 30 72  1  0  0  0  0
 30 73  1  0  0  0  0
 31 33  2  0  0  0  0
 31 34  1  0  0  0  0
 32 35  2  0  0  0  0
 32 74  1  0  0  0  0
 33 37  1  0  0  0  0
 33 75  1  0  0  0  0
 34 38  2  0  0  0  0
 34 76  1  0  0  0  0
 35 36  1  0  0  0  0
 35 77  1  0  0  0  0
 36 40  2  0  0  0  0
 36 41  1  0  0  0  0
 37 39  2  0  0  0  0
 37 78  1  0  0  0  0
 38 39  1  0  0  0  0
 38 79  1  0  0  0  0
 39 80  1  0  0  0  0
 40 42  1  0  0  0  0
 40 81  1  0  0  0  0
 41 43  2  0  0  0  0
 41 82  1  0  0  0  0
 42 44  2  0  0  0  0
 42 83  1  0  0  0  0
 43 44  1  0  0  0  0
 43 84  1  0  0  0  0
 44 85  1  0  0  0  0
 45 46  1  0  0  0  0
M  END
> <PUBCHEM_COMPOUND_CID>
44397588

> <PUBCHEM_COMPOUND_CANONICALIZED>
1

> <PUBCHEM_CACTVS_COMPLEXITY>
776

> <PUBCHEM_CACTVS_HBOND_ACCEPTOR>
8

> <PUBCHEM_CACTVS_HBOND_DONOR>
2

> <PUBCHEM_CACTVS_ROTATABLE_BOND>
13

> <PUBCHEM_CACTVS_SUBSKEYS>
AAADcfB/MYAAAAAAAAAAAAAAAAAAAAAAAAAwYMGAAAAAAAABVAAAHwAQCAAADADBmBQyCIPAAgCIAiHSGACCAAAgAAAIiIAIBMgIYCKAkRGUIAhglgCIiYcQgMAOwAAAAAAAAACAAAAAAAAAAAAAAAAAAA==

> <PUBCHEM_IUPAC_OPENEYE_NAME>
(E)-N-[2-(dimethylamino)ethyl]-3-phenyl-N-[[4-[4-[(2-phenylethylamino)methyl]phenyl]phenyl]methyl]prop-2-enamide;2,2,2-trifluoroacetic acid

> <PUBCHEM_IUPAC_CAS_NAME>
(E)-N-[2-(dimethylamino)ethyl]-3-phenyl-N-[[4-[4-[(2-phenylethylamino)methyl]phenyl]phenyl]methyl]-2-propenamide;2,2,2-trifluoroacetic acid

> <PUBCHEM_IUPAC_NAME_MARKUP>
(<I>E</I>)-<I>N</I>-[2-(dimethylamino)ethyl]-3-phenyl-<I>N</I>-[[4-[4-[(2-phenylethylamino)methyl]phenyl]phenyl]methyl]prop-2-enamide;2,2,2-trifluoroacetic acid

> <PUBCHEM_IUPAC_NAME>
(E)-N-[2-(dimethylamino)ethyl]-3-phenyl-N-[[4-[4-[(2-phenylethylamino)methyl]phenyl]phenyl]methyl]prop-2-enamide;2,2,2-trifluoroacetic acid

> <PUBCHEM_IUPAC_SYSTEMATIC_NAME>
(E)-N-[2-(dimethylamino)ethyl]-3-phenyl-N-[[4-[4-[(2-phenylethylamino)methyl]phenyl]phenyl]methyl]prop-2-enamide;2,2,2-tris(fluoranyl)ethanoic acid

> <PUBCHEM_IUPAC_TRADITIONAL_NAME>
(E)-N-[2-(dimethylamino)ethyl]-N-[4-[4-[(phenethylamino)methyl]phenyl]benzyl]-3-phenyl-acrylamide;2,2,2-trifluoroacetic acid

> <PUBCHEM_IUPAC_INCHI>
InChI=1S/C35H39N3O.C2HF3O2/c1-37(2)25-26-38(35(39)22-17-29-9-5-3-6-10-29)28-32-15-20-34(21-16-32)33-18-13-31(14-19-33)27-36-24-23-30-11-7-4-8-12-30;3-2(4,5)1(6)7/h3-22,36H,23-28H2,1-2H3;(H,6,7)/b22-17+;

> <PUBCHEM_IUPAC_INCHIKEY>
YGSBPGMQWWXFLI-GDHRODDYSA-N

> <PUBCHEM_EXACT_MASS>
631.30217663

> <PUBCHEM_MOLECULAR_FORMULA>
C37H40F3N3O3

> <PUBCHEM_MOLECULAR_WEIGHT>
631.7

> <PUBCHEM_OPENEYE_CAN_SMILES>
CN(C)CCN(CC1=CC=C(C=C1)C2=CC=C(C=C2)CNCCC3=CC=CC=C3)C(=O)C=CC4=CC=CC=C4.C(=O)(C(F)(F)F)O

> <PUBCHEM_OPENEYE_ISO_SMILES>
CN(C)CCN(CC1=CC=C(C=C1)C2=CC=C(C=C2)CNCCC3=CC=CC=C3)C(=O)/C=C/C4=CC=CC=C4.C(=O)(C(F)(F)F)O

> <PUBCHEM_CACTVS_TPSA>
72.9

> <PUBCHEM_MONOISOTOPIC_WEIGHT>
631.30217663

> <PUBCHEM_TOTAL_CHARGE>
0

> <PUBCHEM_HEAVY_ATOM_COUNT>
46

> <PUBCHEM_ATOM_DEF_STEREO_COUNT>
0

> <PUBCHEM_ATOM_UDEF_STEREO_COUNT>
0

> <PUBCHEM_BOND_DEF_STEREO_COUNT>
1

> <PUBCHEM_BOND_UDEF_STEREO_COUNT>
0

> <PUBCHEM_ISOTOPIC_ATOM_COUNT>
0

> <PUBCHEM_COMPONENT_COUNT>
2

> <PUBCHEM_CACTVS_TAUTO_COUNT>
-1

> <PUBCHEM_COORDINATE_TYPE>
1
5
255

> <PUBCHEM_BONDANNOTATIONS>
13  15  8
13  16  8
14  19  8
14  20  8
15  19  8
16  20  8
17  24  8
17  25  8
21  27  8
21  28  8
24  27  8
25  28  8
31  33  8
31  34  8
33  37  8
34  38  8
36  40  8
36  41  8
37  39  8
38  39  8
40  42  8
41  43  8
42  44  8
43  44  8

$$$$
