162662985
  -OEChem-09292322422D

 60 63  0     1  0  0  0  0  0999 V2000
   15.3936    1.2740    0.0000 Cl  0  0  0  0  0  0  0  0  0  0  0  0
    5.0388   -2.3482    0.0000 O   0  0  0  0  0  0  0  0  0  0  0  0
    2.9511   -2.2912    0.0000 O   0  0  0  0  0  0  0  0  0  0  0  0
   10.5388    0.2498    0.0000 N   0  0  3  0  0  0  0  0  0  0  0  0
    5.0388   -0.6162    0.0000 N   0  0  0  0  0  0  0  0  0  0  0  0
    8.0388   -0.6162    0.0000 C   0  0  0  0  0  0  0  0  0  0  0  0
    7.5388    0.2498    0.0000 C   0  0  0  0  0  0  0  0  0  0  0  0
    7.5388   -1.4822    0.0000 C   0  0  0  0  0  0  0  0  0  0  0  0
    6.0388   -0.6162    0.0000 C   0  0  0  0  0  0  0  0  0  0  0  0
    6.5388    0.2498    0.0000 C   0  0  0  0  0  0  0  0  0  0  0  0
    6.5388   -1.4822    0.0000 C   0  0  0  0  0  0  0  0  0  0  0  0
    9.0388   -0.6162    0.0000 C   0  0  0  0  0  0  0  0  0  0  0  0
    9.5388    0.2498    0.0000 C   0  0  0  0  0  0  0  0  0  0  0  0
   10.9727    1.1508    0.0000 C   0  0  0  0  0  0  0  0  0  0  0  0
   11.9477    1.3733    0.0000 C   0  0  1  0  0  0  0  0  0  0  0  0
   10.9727   -0.6511    0.0000 C   0  0  0  0  0  0  0  0  0  0  0  0
   11.9477   -0.8737    0.0000 C   0  0  0  0  0  0  0  0  0  0  0  0
   12.7295    0.7498    0.0000 C   0  0  0  0  0  0  0  0  0  0  0  0
   12.7295   -0.2502    0.0000 C   0  0  0  0  0  0  0  0  0  0  0  0
   12.1702    2.3482    0.0000 C   0  0  0  0  0  0  0  0  0  0  0  0
    4.5388   -1.4822    0.0000 C   0  0  0  0  0  0  0  0  0  0  0  0
   13.6234    1.2845    0.0000 C   0  0  0  0  0  0  0  0  0  0  0  0
   13.6234   -0.7848    0.0000 C   0  0  0  0  0  0  0  0  0  0  0  0
   14.5295    0.7706    0.0000 C   0  0  0  0  0  0  0  0  0  0  0  0
   14.5295   -0.2710    0.0000 C   0  0  0  0  0  0  0  0  0  0  0  0
    3.5388   -1.4822    0.0000 C   0  0  0  0  0  0  0  0  0  0  0  0
    2.9511   -0.6732    0.0000 C   0  0  0  0  0  0  0  0  0  0  0  0
    2.0000   -0.9822    0.0000 C   0  0  0  0  0  0  0  0  0  0  0  0
    2.0000   -1.9822    0.0000 C   0  0  0  0  0  0  0  0  0  0  0  0
    8.3488   -0.0793    0.0000 H   0  0  0  0  0  0  0  0  0  0  0  0
    8.1214    0.4619    0.0000 H   0  0  0  0  0  0  0  0  0  0  0  0
    7.4312    0.8604    0.0000 H   0  0  0  0  0  0  0  0  0  0  0  0
    7.4312   -2.0928    0.0000 H   0  0  0  0  0  0  0  0  0  0  0  0
    8.1214   -1.6943    0.0000 H   0  0  0  0  0  0  0  0  0  0  0  0
    5.7288   -0.0793    0.0000 H   0  0  0  0  0  0  0  0  0  0  0  0
    8.9312   -1.2268    0.0000 H   0  0  0  0  0  0  0  0  0  0  0  0
    9.6214   -0.8282    0.0000 H   0  0  0  0  0  0  0  0  0  0  0  0
    6.6465    0.8604    0.0000 H   0  0  0  0  0  0  0  0  0  0  0  0
    5.9562    0.4619    0.0000 H   0  0  0  0  0  0  0  0  0  0  0  0
    5.9562   -1.6943    0.0000 H   0  0  0  0  0  0  0  0  0  0  0  0
    6.6465   -2.0928    0.0000 H   0  0  0  0  0  0  0  0  0  0  0  0
    9.6465    0.8604    0.0000 H   0  0  0  0  0  0  0  0  0  0  0  0
    8.9562    0.4619    0.0000 H   0  0  0  0  0  0  0  0  0  0  0  0
   10.9727    1.7708    0.0000 H   0  0  0  0  0  0  0  0  0  0  0  0
   10.3683    1.2888    0.0000 H   0  0  0  0  0  0  0  0  0  0  0  0
   12.5329    1.5781    0.0000 H   0  0  0  0  0  0  0  0  0  0  0  0
   10.3683   -0.7891    0.0000 H   0  0  0  0  0  0  0  0  0  0  0  0
   10.9727   -1.2711    0.0000 H   0  0  0  0  0  0  0  0  0  0  0  0
    4.7288   -0.0793    0.0000 H   0  0  0  0  0  0  0  0  0  0  0  0
   11.6786   -1.4323    0.0000 H   0  0  0  0  0  0  0  0  0  0  0  0
   12.4324   -1.2602    0.0000 H   0  0  0  0  0  0  0  0  0  0  0  0
   12.7746    2.2103    0.0000 H   0  0  0  0  0  0  0  0  0  0  0  0
   12.3081    2.9527    0.0000 H   0  0  0  0  0  0  0  0  0  0  0  0
   11.5657    2.4862    0.0000 H   0  0  0  0  0  0  0  0  0  0  0  0
   13.6163    1.9044    0.0000 H   0  0  0  0  0  0  0  0  0  0  0  0
   13.6163   -1.4048    0.0000 H   0  0  0  0  0  0  0  0  0  0  0  0
   15.0652   -0.5831    0.0000 H   0  0  0  0  0  0  0  0  0  0  0  0
    3.1426   -0.0835    0.0000 H   0  0  0  0  0  0  0  0  0  0  0  0
    1.4984   -0.6178    0.0000 H   0  0  0  0  0  0  0  0  0  0  0  0
    1.4984   -2.3466    0.0000 H   0  0  0  0  0  0  0  0  0  0  0  0
  1 24  1  0  0  0  0
  2 21  2  0  0  0  0
  3 26  1  0  0  0  0
  3 29  1  0  0  0  0
  4 13  1  0  0  0  0
  4 14  1  0  0  0  0
  4 16  1  0  0  0  0
  5  9  1  0  0  0  0
  5 21  1  0  0  0  0
  5 49  1  0  0  0  0
  6  7  1  0  0  0  0
  6  8  1  0  0  0  0
  6 12  1  0  0  0  0
  6 30  1  0  0  0  0
  7 10  1  0  0  0  0
  7 31  1  0  0  0  0
  7 32  1  0  0  0  0
  8 11  1  0  0  0  0
  8 33  1  0  0  0  0
  8 34  1  0  0  0  0
  9 10  1  0  0  0  0
  9 11  1  0  0  0  0
  9 35  1  0  0  0  0
 10 38  1  0  0  0  0
 10 39  1  0  0  0  0
 11 40  1  0  0  0  0
 11 41  1  0  0  0  0
 12 13  1  0  0  0  0
 12 36  1  0  0  0  0
 12 37  1  0  0  0  0
 13 42  1  0  0  0  0
 13 43  1  0  0  0  0
 14 15  1  0  0  0  0
 14 44  1  0  0  0  0
 14 45  1  0  0  0  0
 15 18  1  0  0  0  0
 15 20  1  6  0  0  0
 15 46  1  0  0  0  0
 16 17  1  0  0  0  0
 16 47  1  0  0  0  0
 16 48  1  0  0  0  0
 17 19  1  0  0  0  0
 17 50  1  0  0  0  0
 17 51  1  0  0  0  0
 18 19  2  0  0  0  0
 18 22  1  0  0  0  0
 19 23  1  0  0  0  0
 20 52  1  0  0  0  0
 20 53  1  0  0  0  0
 20 54  1  0  0  0  0
 21 26  1  0  0  0  0
 22 24  2  0  0  0  0
 22 55  1  0  0  0  0
 23 25  2  0  0  0  0
 23 56  1  0  0  0  0
 24 25  1  0  0  0  0
 25 57  1  0  0  0  0
 26 27  2  0  0  0  0
 27 28  1  0  0  0  0
 27 58  1  0  0  0  0
 28 29  2  0  0  0  0
 28 59  1  0  0  0  0
 29 60  1  0  0  0  0
M  END
> <PUBCHEM_COMPOUND_CID>
162662985

> <PUBCHEM_COMPOUND_CANONICALIZED>
1

> <PUBCHEM_CACTVS_COMPLEXITY>
537

> <PUBCHEM_CACTVS_HBOND_ACCEPTOR>
3

> <PUBCHEM_CACTVS_HBOND_DONOR>
1

> <PUBCHEM_CACTVS_ROTATABLE_BOND>
5

> <PUBCHEM_CACTVS_SUBSKEYS>
AAADceB7MAAEAAAAAAAAAAAAAAAAASAAAAAwYAAABYAAAAABwAAAHgIQAAAADS7hmCYyBIPABECIAqlSkAKCCAAkJQAIiIHODsgOJjKFtz+HOSjk1hGYqYeYl8IOhAAAIAAQAAAYAABAACAAAAAAAAAAAA==

> <PUBCHEM_IUPAC_OPENEYE_NAME>
N-[4-[2-[(5R)-7-chloro-5-methyl-1,2,4,5-tetrahydro-3-benzazepin-3-yl]ethyl]cyclohexyl]furan-2-carboxamide

> <PUBCHEM_IUPAC_CAS_NAME>
N-[4-[2-[(5R)-7-chloro-5-methyl-1,2,4,5-tetrahydro-3-benzazepin-3-yl]ethyl]cyclohexyl]-2-furancarboxamide

> <PUBCHEM_IUPAC_NAME_MARKUP>
<I>N</I>-[4-[2-[(5<I>R</I>)-7-chloro-5-methyl-1,2,4,5-tetrahydro-3-benzazepin-3-yl]ethyl]cyclohexyl]furan-2-carboxamide

> <PUBCHEM_IUPAC_NAME>
N-[4-[2-[(5R)-7-chloro-5-methyl-1,2,4,5-tetrahydro-3-benzazepin-3-yl]ethyl]cyclohexyl]furan-2-carboxamide

> <PUBCHEM_IUPAC_SYSTEMATIC_NAME>
N-[4-[2-[(5R)-7-chloranyl-5-methyl-1,2,4,5-tetrahydro-3-benzazepin-3-yl]ethyl]cyclohexyl]furan-2-carboxamide

> <PUBCHEM_IUPAC_TRADITIONAL_NAME>
N-[4-[2-[(5R)-7-chloro-5-methyl-1,2,4,5-tetrahydro-3-benzazepin-3-yl]ethyl]cyclohexyl]-2-furamide

> <PUBCHEM_IUPAC_INCHI>
InChI=1S/C24H31ClN2O2/c1-17-16-27(13-11-19-6-7-20(25)15-22(17)19)12-10-18-4-8-21(9-5-18)26-24(28)23-3-2-14-29-23/h2-3,6-7,14-15,17-18,21H,4-5,8-13,16H2,1H3,(H,26,28)/t17-,18?,21?/m0/s1

> <PUBCHEM_IUPAC_INCHIKEY>
KHPOIBBWMVNTMI-XPQZIERPSA-N

> <PUBCHEM_XLOGP3_AA>
5.5

> <PUBCHEM_EXACT_MASS>
414.2074059

> <PUBCHEM_MOLECULAR_FORMULA>
C24H31ClN2O2

> <PUBCHEM_MOLECULAR_WEIGHT>
415.0

> <PUBCHEM_OPENEYE_CAN_SMILES>
CC1CN(CCC2=C1C=C(C=C2)Cl)CCC3CCC(CC3)NC(=O)C4=CC=CO4

> <PUBCHEM_OPENEYE_ISO_SMILES>
C[C@H]1CN(CCC2=C1C=C(C=C2)Cl)CCC3CCC(CC3)NC(=O)C4=CC=CO4

> <PUBCHEM_CACTVS_TPSA>
45.5

> <PUBCHEM_MONOISOTOPIC_WEIGHT>
414.2074059

> <PUBCHEM_TOTAL_CHARGE>
0

> <PUBCHEM_HEAVY_ATOM_COUNT>
29

> <PUBCHEM_ATOM_DEF_STEREO_COUNT>
1

> <PUBCHEM_ATOM_UDEF_STEREO_COUNT>
0

> <PUBCHEM_BOND_DEF_STEREO_COUNT>
0

> <PUBCHEM_BOND_UDEF_STEREO_COUNT>
0

> <PUBCHEM_ISOTOPIC_ATOM_COUNT>
0

> <PUBCHEM_COMPONENT_COUNT>
1

> <PUBCHEM_CACTVS_TAUTO_COUNT>
-1

> <PUBCHEM_COORDINATE_TYPE>
1
5
255

> <PUBCHEM_BONDANNOTATIONS>
15  20  6
18  19  8
18  22  8
19  23  8
22  24  8
23  25  8
24  25  8
26  27  8
27  28  8
28  29  8
3  26  8
3  29  8

$$$$
