11637457
  -OEChem-09292322272D

 37 39  0     1  0  0  0  0  0999 V2000
    2.0000   -1.3796    0.0000 S   0  0  0  0  0  0  0  0  0  0  0  0
    3.6030    1.7874    0.0000 N   0  0  3  0  0  0  0  0  0  0  0  0
    4.4691    2.2874    0.0000 C   0  0  0  0  0  0  0  0  0  0  0  0
    3.6030    0.7874    0.0000 C   0  0  0  0  0  0  0  0  0  0  0  0
    5.3351    1.7874    0.0000 C   0  0  0  0  0  0  0  0  0  0  0  0
    2.7370    0.2874    0.0000 C   0  0  0  0  0  0  0  0  0  0  0  0
    5.3351    0.7874    0.0000 C   0  0  0  0  0  0  0  0  0  0  0  0
    4.4691   -0.7126    0.0000 C   0  0  0  0  0  0  0  0  0  0  0  0
    4.4691    0.2874    0.0000 C   0  0  0  0  0  0  0  0  0  0  0  0
    3.6030   -1.2126    0.0000 C   0  0  0  0  0  0  0  0  0  0  0  0
    2.7370   -0.7126    0.0000 C   0  0  0  0  0  0  0  0  0  0  0  0
    2.7370    2.2874    0.0000 C   0  0  0  0  0  0  0  0  0  0  0  0
    6.7464    0.2103    0.0000 C   0  0  0  0  0  0  0  0  0  0  0  0
    3.3938   -2.1844    0.0000 C   0  0  0  0  0  0  0  0  0  0  0  0
    4.2632   -1.2234    0.0000 C   0  0  0  0  0  0  0  0  0  0  0  0
    2.4051   -2.2874    0.0000 C   0  0  0  0  0  0  0  0  0  0  0  0
    6.8496   -1.3110    0.0000 C   0  0  0  0  0  0  0  0  0  0  0  0
    5.5291   -2.0733    0.0000 C   0  0  0  0  0  0  0  0  0  0  0  0
    4.8676    2.7624    0.0000 H   0  0  0  0  0  0  0  0  0  0  0  0
    4.0705    2.7624    0.0000 H   0  0  0  0  0  0  0  0  0  0  0  0
    3.8151    0.2048    0.0000 H   0  0  0  0  0  0  0  0  0  0  0  0
    4.2136    0.8951    0.0000 H   0  0  0  0  0  0  0  0  0  0  0  0
    5.9457    1.6798    0.0000 H   0  0  0  0  0  0  0  0  0  0  0  0
    5.5471    2.3700    0.0000 H   0  0  0  0  0  0  0  0  0  0  0  0
    2.5250    0.8700    0.0000 H   0  0  0  0  0  0  0  0  0  0  0  0
    2.1264    0.1798    0.0000 H   0  0  0  0  0  0  0  0  0  0  0  0
    4.6811   -1.2952    0.0000 H   0  0  0  0  0  0  0  0  0  0  0  0
    5.0796   -0.6049    0.0000 H   0  0  0  0  0  0  0  0  0  0  0  0
    3.0470    2.8244    0.0000 H   0  0  0  0  0  0  0  0  0  0  0  0
    2.2001    2.5974    0.0000 H   0  0  0  0  0  0  0  0  0  0  0  0
    2.4270    1.7505    0.0000 H   0  0  0  0  0  0  0  0  0  0  0  0
    7.2491    0.5732    0.0000 H   0  0  0  0  0  0  0  0  0  0  0  0
    3.8079   -2.6458    0.0000 H   0  0  0  0  0  0  0  0  0  0  0  0
    3.6976   -1.4773    0.0000 H   0  0  0  0  0  0  0  0  0  0  0  0
    2.0951   -2.8244    0.0000 H   0  0  0  0  0  0  0  0  0  0  0  0
    7.3967   -1.6026    0.0000 H   0  0  0  0  0  0  0  0  0  0  0  0
    5.5081   -2.6930    0.0000 H   0  0  0  0  0  0  0  0  0  0  0  0
  1 11  1  0  0  0  0
  1 16  1  0  0  0  0
  2  3  1  0  0  0  0
  2  4  1  0  0  0  0
  2 12  1  0  0  0  0
  3  5  1  0  0  0  0
  3 19  1  0  0  0  0
  3 20  1  0  0  0  0
  4  6  1  0  0  0  0
  4 21  1  0  0  0  0
  4 22  1  0  0  0  0
  5  7  1  0  0  0  0
  5 23  1  0  0  0  0
  5 24  1  0  0  0  0
  6 11  1  0  0  0  0
  6 25  1  0  0  0  0
  6 26  1  0  0  0  0
  7  9  1  0  0  0  0
  7 13  2  0  0  0  0
  8  9  1  0  0  0  0
  8 10  1  0  0  0  0
  8 27  1  0  0  0  0
  8 28  1  0  0  0  0
  9 15  2  0  0  0  0
 10 11  2  0  0  0  0
 10 14  1  0  0  0  0
 12 29  1  0  0  0  0
 12 30  1  0  0  0  0
 12 31  1  0  0  0  0
 13 17  1  0  0  0  0
 13 32  1  0  0  0  0
 14 16  2  0  0  0  0
 14 33  1  0  0  0  0
 15 18  1  0  0  0  0
 15 34  1  0  0  0  0
 16 35  1  0  0  0  0
 17 18  2  0  0  0  0
 17 36  1  0  0  0  0
 18 37  1  0  0  0  0
M  END
> <PUBCHEM_COMPOUND_CID>
11637457

> <PUBCHEM_COMPOUND_CANONICALIZED>
1

> <PUBCHEM_CACTVS_COMPLEXITY>
268

> <PUBCHEM_CACTVS_HBOND_ACCEPTOR>
2

> <PUBCHEM_CACTVS_HBOND_DONOR>
0

> <PUBCHEM_CACTVS_ROTATABLE_BOND>
0

> <PUBCHEM_CACTVS_SUBSKEYS>
AAADceB6AABAAAAAAAAAAAAAAAAAASAAAAAwAAAAAAAAAACxwAAAHAQAAAAADADFWASyAYMAAAiEAiBCAAADAIAgCBBIiBgIAIgIICKgkRGEIAAggACoiAcQgMAOgAAAAAAQAAAAAAAAACAAAAAAAAAAAA==

> <PUBCHEM_IUPAC_OPENEYE_NAME>
10-methyl-6-thia-10-azatricyclo[11.4.0.03,7]heptadeca-1(17),3(7),4,13,15-pentaene

> <PUBCHEM_IUPAC_CAS_NAME>
10-methyl-6-thia-10-azatricyclo[11.4.0.03,7]heptadeca-1(17),3(7),4,13,15-pentaene

> <PUBCHEM_IUPAC_NAME_MARKUP>
10-methyl-6-thia-10-azatricyclo[11.4.0.0<SUP>3,7</SUP>]heptadeca-1(17),3(7),4,13,15-pentaene

> <PUBCHEM_IUPAC_NAME>
10-methyl-6-thia-10-azatricyclo[11.4.0.03,7]heptadeca-1(17),3(7),4,13,15-pentaene

> <PUBCHEM_IUPAC_SYSTEMATIC_NAME>
10-methyl-6-thia-10-azatricyclo[11.4.0.03,7]heptadeca-1(17),3(7),4,13,15-pentaene

> <PUBCHEM_IUPAC_TRADITIONAL_NAME>
10-methyl-6-thia-10-azatricyclo[11.4.0.03,7]heptadeca-1(17),3(7),4,13,15-pentaene

> <PUBCHEM_IUPAC_INCHI>
InChI=1S/C16H19NS/c1-17-9-6-13-4-2-3-5-14(13)12-15-8-11-18-16(15)7-10-17/h2-5,8,11H,6-7,9-10,12H2,1H3

> <PUBCHEM_IUPAC_INCHIKEY>
FHSMMEAYPKEOAQ-UHFFFAOYSA-N

> <PUBCHEM_XLOGP3_AA>
3.9

> <PUBCHEM_EXACT_MASS>
257.12382078

> <PUBCHEM_MOLECULAR_FORMULA>
C16H19NS

> <PUBCHEM_MOLECULAR_WEIGHT>
257.4

> <PUBCHEM_OPENEYE_CAN_SMILES>
CN1CCC2=CC=CC=C2CC3=C(CC1)SC=C3

> <PUBCHEM_OPENEYE_ISO_SMILES>
CN1CCC2=CC=CC=C2CC3=C(CC1)SC=C3

> <PUBCHEM_CACTVS_TPSA>
31.5

> <PUBCHEM_MONOISOTOPIC_WEIGHT>
257.12382078

> <PUBCHEM_TOTAL_CHARGE>
0

> <PUBCHEM_HEAVY_ATOM_COUNT>
18

> <PUBCHEM_ATOM_DEF_STEREO_COUNT>
0

> <PUBCHEM_ATOM_UDEF_STEREO_COUNT>
0

> <PUBCHEM_BOND_DEF_STEREO_COUNT>
0

> <PUBCHEM_BOND_UDEF_STEREO_COUNT>
0

> <PUBCHEM_ISOTOPIC_ATOM_COUNT>
0

> <PUBCHEM_COMPONENT_COUNT>
1

> <PUBCHEM_CACTVS_TAUTO_COUNT>
-1

> <PUBCHEM_COORDINATE_TYPE>
1
5
255

> <PUBCHEM_BONDANNOTATIONS>
1  11  8
1  16  8
10  11  8
10  14  8
13  17  8
14  16  8
15  18  8
17  18  8
7  13  8
7  9  8
9  15  8

$$$$
