10318141
  -OEChem-09292322142D

 46 49  0     1  0  0  0  0  0999 V2000
    2.3713   -0.6780    0.0000 F   0  0  0  0  0  0  0  0  0  0  0  0
    2.0000    0.6866    0.0000 F   0  0  0  0  0  0  0  0  0  0  0  0
    3.3646    1.0579    0.0000 F   0  0  0  0  0  0  0  0  0  0  0  0
   10.7359   -1.2726    0.0000 O   0  0  0  0  0  0  0  0  0  0  0  0
    9.8699   -2.7726    0.0000 O   0  0  0  0  0  0  0  0  0  0  0  0
   12.5219    1.7726    0.0000 O   0  0  0  0  0  0  0  0  0  0  0  0
    7.2038   -1.2934    0.0000 N   0  0  3  0  0  0  0  0  0  0  0  0
    7.2038   -0.2517    0.0000 C   0  0  0  0  0  0  0  0  0  0  0  0
    8.1099    0.2621    0.0000 C   0  0  0  0  0  0  0  0  0  0  0  0
    8.1099   -1.8072    0.0000 C   0  0  0  0  0  0  0  0  0  0  0  0
    9.0038   -0.2725    0.0000 C   0  0  0  0  0  0  0  0  0  0  0  0
    9.0038   -1.2726    0.0000 C   0  0  0  0  0  0  0  0  0  0  0  0
    6.3397   -1.7967    0.0000 C   0  0  0  0  0  0  0  0  0  0  0  0
    9.8699    0.2275    0.0000 C   0  0  0  0  0  0  0  0  0  0  0  0
    9.8699   -1.7726    0.0000 C   0  0  0  0  0  0  0  0  0  0  0  0
   10.7359   -0.2725    0.0000 C   0  0  0  0  0  0  0  0  0  0  0  0
    5.4718   -1.3000    0.0000 C   0  0  0  0  0  0  0  0  0  0  0  0
    9.8538    1.2690    0.0000 C   0  0  0  0  0  0  0  0  0  0  0  0
   11.6459    0.2343    0.0000 C   0  0  0  0  0  0  0  0  0  0  0  0
    4.6077   -1.8034    0.0000 C   0  0  0  0  0  0  0  0  0  0  0  0
    5.4679   -0.3000    0.0000 C   0  0  0  0  0  0  0  0  0  0  0  0
   10.7518    1.7967    0.0000 C   0  0  0  0  0  0  0  0  0  0  0  0
   11.6539    1.2759    0.0000 C   0  0  0  0  0  0  0  0  0  0  0  0
    3.7398   -1.3067    0.0000 C   0  0  0  0  0  0  0  0  0  0  0  0
    4.6000    0.1966    0.0000 C   0  0  0  0  0  0  0  0  0  0  0  0
    3.7359   -0.3067    0.0000 C   0  0  0  0  0  0  0  0  0  0  0  0
    2.8680    0.1899    0.0000 C   0  0  0  0  0  0  0  0  0  0  0  0
   12.5257    2.7726    0.0000 C   0  0  0  0  0  0  0  0  0  0  0  0
    6.9948    0.3320    0.0000 H   0  0  0  0  0  0  0  0  0  0  0  0
    6.5930   -0.3578    0.0000 H   0  0  0  0  0  0  0  0  0  0  0  0
    8.5145    0.7319    0.0000 H   0  0  0  0  0  0  0  0  0  0  0  0
    7.7163    0.7411    0.0000 H   0  0  0  0  0  0  0  0  0  0  0  0
    7.7163   -2.2862    0.0000 H   0  0  0  0  0  0  0  0  0  0  0  0
    8.5145   -2.2770    0.0000 H   0  0  0  0  0  0  0  0  0  0  0  0
    5.9430   -2.2732    0.0000 H   0  0  0  0  0  0  0  0  0  0  0  0
    6.7401   -2.2701    0.0000 H   0  0  0  0  0  0  0  0  0  0  0  0
    9.3133    1.5727    0.0000 H   0  0  0  0  0  0  0  0  0  0  0  0
   12.1792   -0.0819    0.0000 H   0  0  0  0  0  0  0  0  0  0  0  0
    4.6101   -2.4234    0.0000 H   0  0  0  0  0  0  0  0  0  0  0  0
    6.0037    0.0120    0.0000 H   0  0  0  0  0  0  0  0  0  0  0  0
   10.7494    2.4167    0.0000 H   0  0  0  0  0  0  0  0  0  0  0  0
    3.2040   -1.6188    0.0000 H   0  0  0  0  0  0  0  0  0  0  0  0
    4.5976    0.8166    0.0000 H   0  0  0  0  0  0  0  0  0  0  0  0
   13.1457    2.7702    0.0000 H   0  0  0  0  0  0  0  0  0  0  0  0
   12.5281    3.3925    0.0000 H   0  0  0  0  0  0  0  0  0  0  0  0
   11.9057    2.7749    0.0000 H   0  0  0  0  0  0  0  0  0  0  0  0
  1 27  1  0  0  0  0
  2 27  1  0  0  0  0
  3 27  1  0  0  0  0
  4 15  1  0  0  0  0
  4 16  1  0  0  0  0
  5 15  2  0  0  0  0
  6 23  1  0  0  0  0
  6 28  1  0  0  0  0
  7  8  1  0  0  0  0
  7 10  1  0  0  0  0
  7 13  1  0  0  0  0
  8  9  1  0  0  0  0
  8 29  1  0  0  0  0
  8 30  1  0  0  0  0
  9 11  1  0  0  0  0
  9 31  1  0  0  0  0
  9 32  1  0  0  0  0
 10 12  1  0  0  0  0
 10 33  1  0  0  0  0
 10 34  1  0  0  0  0
 11 12  2  0  0  0  0
 11 14  1  0  0  0  0
 12 15  1  0  0  0  0
 13 17  1  0  0  0  0
 13 35  1  0  0  0  0
 13 36  1  0  0  0  0
 14 16  2  0  0  0  0
 14 18  1  0  0  0  0
 16 19  1  0  0  0  0
 17 20  2  0  0  0  0
 17 21  1  0  0  0  0
 18 22  2  0  0  0  0
 18 37  1  0  0  0  0
 19 23  2  0  0  0  0
 19 38  1  0  0  0  0
 20 24  1  0  0  0  0
 20 39  1  0  0  0  0
 21 25  2  0  0  0  0
 21 40  1  0  0  0  0
 22 23  1  0  0  0  0
 22 41  1  0  0  0  0
 24 26  2  0  0  0  0
 24 42  1  0  0  0  0
 25 26  1  0  0  0  0
 25 43  1  0  0  0  0
 26 27  1  0  0  0  0
 28 44  1  0  0  0  0
 28 45  1  0  0  0  0
 28 46  1  0  0  0  0
M  END
> <PUBCHEM_COMPOUND_CID>
10318141

> <PUBCHEM_COMPOUND_CANONICALIZED>
1

> <PUBCHEM_CACTVS_COMPLEXITY>
625

> <PUBCHEM_CACTVS_HBOND_ACCEPTOR>
7

> <PUBCHEM_CACTVS_HBOND_DONOR>
0

> <PUBCHEM_CACTVS_ROTATABLE_BOND>
3

> <PUBCHEM_CACTVS_SUBSKEYS>
AAADceB6MYAAAAAAAAAAAAAAAAAAAAAAAAAwYIEAAAAAAACxQAAAHwAAAAAADATBmBYyDoMABACIAiDSCACCCAAgIAAIiAEODMgMJyqEsRuGOijnwBWIqQeQ8K4OYAAACAAIAADAAAAQABAAAAAAAAAAAA==

> <PUBCHEM_IUPAC_OPENEYE_NAME>
8-methoxy-3-[[4-(trifluoromethyl)phenyl]methyl]-2,4-dihydro-1H-chromeno[3,4-c]pyridin-5-one

> <PUBCHEM_IUPAC_CAS_NAME>
8-methoxy-3-[[4-(trifluoromethyl)phenyl]methyl]-2,4-dihydro-1H-[1]benzopyrano[3,4-c]pyridin-5-one

> <PUBCHEM_IUPAC_NAME_MARKUP>
8-methoxy-3-[[4-(trifluoromethyl)phenyl]methyl]-2,4-dihydro-1<I>H</I>-chromeno[3,4-c]pyridin-5-one

> <PUBCHEM_IUPAC_NAME>
8-methoxy-3-[[4-(trifluoromethyl)phenyl]methyl]-2,4-dihydro-1H-chromeno[3,4-c]pyridin-5-one

> <PUBCHEM_IUPAC_SYSTEMATIC_NAME>
8-methoxy-3-[[4-(trifluoromethyl)phenyl]methyl]-2,4-dihydro-1H-chromeno[3,4-c]pyridin-5-one

> <PUBCHEM_IUPAC_TRADITIONAL_NAME>
8-methoxy-3-[4-(trifluoromethyl)benzyl]-2,4-dihydro-1H-chromeno[3,4-c]pyridin-5-one

> <PUBCHEM_IUPAC_INCHI>
InChI=1S/C21H18F3NO3/c1-27-15-6-7-17-16-8-9-25(12-18(16)20(26)28-19(17)10-15)11-13-2-4-14(5-3-13)21(22,23)24/h2-7,10H,8-9,11-12H2,1H3

> <PUBCHEM_IUPAC_INCHIKEY>
APSWOEYPVXOOHK-UHFFFAOYSA-N

> <PUBCHEM_XLOGP3_AA>
3.7

> <PUBCHEM_EXACT_MASS>
389.12387792

> <PUBCHEM_MOLECULAR_FORMULA>
C21H18F3NO3

> <PUBCHEM_MOLECULAR_WEIGHT>
389.4

> <PUBCHEM_OPENEYE_CAN_SMILES>
COC1=CC2=C(C=C1)C3=C(CN(CC3)CC4=CC=C(C=C4)C(F)(F)F)C(=O)O2

> <PUBCHEM_OPENEYE_ISO_SMILES>
COC1=CC2=C(C=C1)C3=C(CN(CC3)CC4=CC=C(C=C4)C(F)(F)F)C(=O)O2

> <PUBCHEM_CACTVS_TPSA>
38.8

> <PUBCHEM_MONOISOTOPIC_WEIGHT>
389.12387792

> <PUBCHEM_TOTAL_CHARGE>
0

> <PUBCHEM_HEAVY_ATOM_COUNT>
28

> <PUBCHEM_ATOM_DEF_STEREO_COUNT>
0

> <PUBCHEM_ATOM_UDEF_STEREO_COUNT>
0

> <PUBCHEM_BOND_DEF_STEREO_COUNT>
0

> <PUBCHEM_BOND_UDEF_STEREO_COUNT>
0

> <PUBCHEM_ISOTOPIC_ATOM_COUNT>
0

> <PUBCHEM_COMPONENT_COUNT>
1

> <PUBCHEM_CACTVS_TAUTO_COUNT>
-1

> <PUBCHEM_COORDINATE_TYPE>
1
5
255

> <PUBCHEM_BONDANNOTATIONS>
11  12  8
11  14  8
12  15  8
14  16  8
14  18  8
16  19  8
17  20  8
17  21  8
18  22  8
19  23  8
20  24  8
21  25  8
22  23  8
24  26  8
25  26  8
4  15  8
4  16  8

$$$$
