44350909
  -OEChem-09292322112D

 69 71  0     0  0  0  0  0  0999 V2000
   11.8620    5.6546    0.0000 O   0  0  0  0  0  0  0  0  0  0  0  0
    4.9338    3.6546    0.0000 O   0  0  0  0  0  0  0  0  0  0  0  0
    3.2018    0.6546    0.0000 O   0  0  0  0  0  0  0  0  0  0  0  0
    3.2018    3.6546    0.0000 O   0  0  0  0  0  0  0  0  0  0  0  0
    6.1995   10.7850    0.0000 O   0  0  0  0  0  0  0  0  0  0  0  0
    8.7976   10.2850    0.0000 O   0  0  0  0  0  0  0  0  0  0  0  0
    7.0655    9.2850    0.0000 O   0  0  0  0  0  0  0  0  0  0  0  0
    7.9315   11.7850    0.0000 O   0  0  0  0  0  0  0  0  0  0  0  0
   10.1300    2.6546    0.0000 N   0  0  0  0  0  0  0  0  0  0  0  0
   11.8620    3.6546    0.0000 N   0  0  0  0  0  0  0  0  0  0  0  0
    5.7998    2.1546    0.0000 N   0  0  0  0  0  0  0  0  0  0  0  0
   10.9960    2.1546    0.0000 C   0  0  0  0  0  0  0  0  0  0  0  0
   10.1300    3.6546    0.0000 C   0  0  0  0  0  0  0  0  0  0  0  0
   11.8620    2.6546    0.0000 C   0  0  0  0  0  0  0  0  0  0  0  0
   10.9960    4.1546    0.0000 C   0  0  0  0  0  0  0  0  0  0  0  0
    9.2640    2.1546    0.0000 C   0  0  0  0  0  0  0  0  0  0  0  0
    8.3979    2.6546    0.0000 C   0  0  0  0  0  0  0  0  0  0  0  0
   12.7281    4.1546    0.0000 C   0  0  0  0  0  0  0  0  0  0  0  0
    7.5319    2.1546    0.0000 C   0  0  0  0  0  0  0  0  0  0  0  0
    6.6659    2.6546    0.0000 C   0  0  0  0  0  0  0  0  0  0  0  0
   12.7281    5.1546    0.0000 C   0  0  0  0  0  0  0  0  0  0  0  0
   13.5941    3.6546    0.0000 C   0  0  0  0  0  0  0  0  0  0  0  0
   13.5941    5.6546    0.0000 C   0  0  0  0  0  0  0  0  0  0  0  0
   14.4601    4.1546    0.0000 C   0  0  0  0  0  0  0  0  0  0  0  0
   14.4601    5.1546    0.0000 C   0  0  0  0  0  0  0  0  0  0  0  0
    4.9338    2.6546    0.0000 C   0  0  0  0  0  0  0  0  0  0  0  0
   11.8620    6.6546    0.0000 C   0  0  0  0  0  0  0  0  0  0  0  0
    4.0678    2.1546    0.0000 C   0  0  0  0  0  0  0  0  0  0  0  0
    3.2018    2.6546    0.0000 C   0  0  0  0  0  0  0  0  0  0  0  0
    4.0678    1.1546    0.0000 C   0  0  0  0  0  0  0  0  0  0  0  0
    2.3358    2.1546    0.0000 C   0  0  0  0  0  0  0  0  0  0  0  0
    2.3358    1.1546    0.0000 C   0  0  0  0  0  0  0  0  0  0  0  0
    1.4418    2.6893    0.0000 C   0  0  0  0  0  0  0  0  0  0  0  0
    1.4418    0.6200    0.0000 C   0  0  0  0  0  0  0  0  0  0  0  0
    0.5357    2.1754    0.0000 C   0  0  0  0  0  0  0  0  0  0  0  0
    0.5357    1.1338    0.0000 C   0  0  0  0  0  0  0  0  0  0  0  0
    7.0655   10.2850    0.0000 C   0  0  0  0  0  0  0  0  0  0  0  0
    7.9315   10.7850    0.0000 C   0  0  0  0  0  0  0  0  0  0  0  0
   10.5975    1.6797    0.0000 H   0  0  0  0  0  0  0  0  0  0  0  0
   11.3945    1.6797    0.0000 H   0  0  0  0  0  0  0  0  0  0  0  0
    9.9179    4.2372    0.0000 H   0  0  0  0  0  0  0  0  0  0  0  0
    9.5194    3.5470    0.0000 H   0  0  0  0  0  0  0  0  0  0  0  0
   12.0741    2.0720    0.0000 H   0  0  0  0  0  0  0  0  0  0  0  0
   12.4726    2.7623    0.0000 H   0  0  0  0  0  0  0  0  0  0  0  0
   11.3945    4.6296    0.0000 H   0  0  0  0  0  0  0  0  0  0  0  0
   10.5975    4.6296    0.0000 H   0  0  0  0  0  0  0  0  0  0  0  0
    8.8654    1.6797    0.0000 H   0  0  0  0  0  0  0  0  0  0  0  0
    9.6625    1.6797    0.0000 H   0  0  0  0  0  0  0  0  0  0  0  0
    8.7964    3.1296    0.0000 H   0  0  0  0  0  0  0  0  0  0  0  0
    7.9994    3.1296    0.0000 H   0  0  0  0  0  0  0  0  0  0  0  0
    7.1334    1.6797    0.0000 H   0  0  0  0  0  0  0  0  0  0  0  0
    7.9304    1.6797    0.0000 H   0  0  0  0  0  0  0  0  0  0  0  0
    7.0644    3.1296    0.0000 H   0  0  0  0  0  0  0  0  0  0  0  0
    6.2673    3.1296    0.0000 H   0  0  0  0  0  0  0  0  0  0  0  0
   13.5941    3.0346    0.0000 H   0  0  0  0  0  0  0  0  0  0  0  0
   13.5941    6.2746    0.0000 H   0  0  0  0  0  0  0  0  0  0  0  0
   14.9970    3.8446    0.0000 H   0  0  0  0  0  0  0  0  0  0  0  0
    5.7998    1.5346    0.0000 H   0  0  0  0  0  0  0  0  0  0  0  0
   14.9970    5.4646    0.0000 H   0  0  0  0  0  0  0  0  0  0  0  0
   12.4820    6.6546    0.0000 H   0  0  0  0  0  0  0  0  0  0  0  0
   11.8620    7.2746    0.0000 H   0  0  0  0  0  0  0  0  0  0  0  0
   11.2420    6.6546    0.0000 H   0  0  0  0  0  0  0  0  0  0  0  0
    4.6047    0.8446    0.0000 H   0  0  0  0  0  0  0  0  0  0  0  0
    1.4490    3.3092    0.0000 H   0  0  0  0  0  0  0  0  0  0  0  0
    1.4490    0.0000    0.0000 H   0  0  0  0  0  0  0  0  0  0  0  0
    0.0000    2.4875    0.0000 H   0  0  0  0  0  0  0  0  0  0  0  0
    0.0000    0.8217    0.0000 H   0  0  0  0  0  0  0  0  0  0  0  0
    5.6625   10.4750    0.0000 H   0  0  0  0  0  0  0  0  0  0  0  0
    9.3345   10.5950    0.0000 H   0  0  0  0  0  0  0  0  0  0  0  0
  1 21  1  0  0  0  0
  1 27  1  0  0  0  0
  2 26  2  0  0  0  0
  3 30  1  0  0  0  0
  3 32  1  0  0  0  0
  4 29  2  0  0  0  0
  5 37  1  0  0  0  0
  5 68  1  0  0  0  0
  6 38  1  0  0  0  0
  6 69  1  0  0  0  0
  7 37  2  0  0  0  0
  8 38  2  0  0  0  0
  9 12  1  0  0  0  0
  9 13  1  0  0  0  0
  9 16  1  0  0  0  0
 10 14  1  0  0  0  0
 10 15  1  0  0  0  0
 10 18  1  0  0  0  0
 11 20  1  0  0  0  0
 11 26  1  0  0  0  0
 11 58  1  0  0  0  0
 12 14  1  0  0  0  0
 12 39  1  0  0  0  0
 12 40  1  0  0  0  0
 13 15  1  0  0  0  0
 13 41  1  0  0  0  0
 13 42  1  0  0  0  0
 14 43  1  0  0  0  0
 14 44  1  0  0  0  0
 15 45  1  0  0  0  0
 15 46  1  0  0  0  0
 16 17  1  0  0  0  0
 16 47  1  0  0  0  0
 16 48  1  0  0  0  0
 17 19  1  0  0  0  0
 17 49  1  0  0  0  0
 17 50  1  0  0  0  0
 18 21  1  0  0  0  0
 18 22  2  0  0  0  0
 19 20  1  0  0  0  0
 19 51  1  0  0  0  0
 19 52  1  0  0  0  0
 20 53  1  0  0  0  0
 20 54  1  0  0  0  0
 21 23  2  0  0  0  0
 22 24  1  0  0  0  0
 22 55  1  0  0  0  0
 23 25  1  0  0  0  0
 23 56  1  0  0  0  0
 24 25  2  0  0  0  0
 24 57  1  0  0  0  0
 25 59  1  0  0  0  0
 26 28  1  0  0  0  0
 27 60  1  0  0  0  0
 27 61  1  0  0  0  0
 27 62  1  0  0  0  0
 28 29  1  0  0  0  0
 28 30  2  0  0  0  0
 29 31  1  0  0  0  0
 30 63  1  0  0  0  0
 31 32  1  0  0  0  0
 31 33  2  0  0  0  0
 32 34  2  0  0  0  0
 33 35  1  0  0  0  0
 33 64  1  0  0  0  0
 34 36  1  0  0  0  0
 34 65  1  0  0  0  0
 35 36  2  0  0  0  0
 35 66  1  0  0  0  0
 36 67  1  0  0  0  0
 37 38  1  0  0  0  0
M  END
> <PUBCHEM_COMPOUND_CID>
44350909

> <PUBCHEM_COMPOUND_CANONICALIZED>
1

> <PUBCHEM_CACTVS_COMPLEXITY>
746

> <PUBCHEM_CACTVS_HBOND_ACCEPTOR>
10

> <PUBCHEM_CACTVS_HBOND_DONOR>
3

> <PUBCHEM_CACTVS_ROTATABLE_BOND>
9

> <PUBCHEM_CACTVS_SUBSKEYS>
AAADceB7PAAAAAAAAAAAAAAAAAAAAAAAAAA8YIEAAAAAAACBQAAAHgAQCAAADAzhmAYyzoPABgCIAqXSWAKCCAAlIgAIiIFPbMgPZj7MtZuVMWhk9hHZ6YeY3KLOAAAAAAAIEAAAAAAAABAgAAAAAAAAAA==

> <PUBCHEM_IUPAC_OPENEYE_NAME>
N-[4-[4-(2-methoxyphenyl)piperazin-1-yl]butyl]-4-oxo-chromene-3-carboxamide;oxalic acid

> <PUBCHEM_IUPAC_CAS_NAME>
N-[4-[4-(2-methoxyphenyl)-1-piperazinyl]butyl]-4-oxo-1-benzopyran-3-carboxamide;oxalic acid

> <PUBCHEM_IUPAC_NAME_MARKUP>
<I>N</I>-[4-[4-(2-methoxyphenyl)piperazin-1-yl]butyl]-4-oxochromene-3-carboxamide;oxalic acid

> <PUBCHEM_IUPAC_NAME>
N-[4-[4-(2-methoxyphenyl)piperazin-1-yl]butyl]-4-oxochromene-3-carboxamide;oxalic acid

> <PUBCHEM_IUPAC_SYSTEMATIC_NAME>
ethanedioic acid;N-[4-[4-(2-methoxyphenyl)piperazin-1-yl]butyl]-4-oxidanylidene-chromene-3-carboxamide

> <PUBCHEM_IUPAC_TRADITIONAL_NAME>
4-keto-N-[4-[4-(2-methoxyphenyl)piperazino]butyl]chromene-3-carboxamide;oxalic acid

> <PUBCHEM_IUPAC_INCHI>
InChI=1S/C25H29N3O4.C2H2O4/c1-31-23-11-5-3-9-21(23)28-16-14-27(15-17-28)13-7-6-12-26-25(30)20-18-32-22-10-4-2-8-19(22)24(20)29;3-1(4)2(5)6/h2-5,8-11,18H,6-7,12-17H2,1H3,(H,26,30);(H,3,4)(H,5,6)

> <PUBCHEM_IUPAC_INCHIKEY>
RHYVDKFQIKMMKR-UHFFFAOYSA-N

> <PUBCHEM_EXACT_MASS>
525.21111496

> <PUBCHEM_MOLECULAR_FORMULA>
C27H31N3O8

> <PUBCHEM_MOLECULAR_WEIGHT>
525.5

> <PUBCHEM_OPENEYE_CAN_SMILES>
COC1=CC=CC=C1N2CCN(CC2)CCCCNC(=O)C3=COC4=CC=CC=C4C3=O.C(=O)(C(=O)O)O

> <PUBCHEM_OPENEYE_ISO_SMILES>
COC1=CC=CC=C1N2CCN(CC2)CCCCNC(=O)C3=COC4=CC=CC=C4C3=O.C(=O)(C(=O)O)O

> <PUBCHEM_CACTVS_TPSA>
146

> <PUBCHEM_MONOISOTOPIC_WEIGHT>
525.21111496

> <PUBCHEM_TOTAL_CHARGE>
0

> <PUBCHEM_HEAVY_ATOM_COUNT>
38

> <PUBCHEM_ATOM_DEF_STEREO_COUNT>
0

> <PUBCHEM_ATOM_UDEF_STEREO_COUNT>
0

> <PUBCHEM_BOND_DEF_STEREO_COUNT>
0

> <PUBCHEM_BOND_UDEF_STEREO_COUNT>
0

> <PUBCHEM_ISOTOPIC_ATOM_COUNT>
0

> <PUBCHEM_COMPONENT_COUNT>
2

> <PUBCHEM_CACTVS_TAUTO_COUNT>
-1

> <PUBCHEM_COORDINATE_TYPE>
1
5
255

> <PUBCHEM_BONDANNOTATIONS>
18  21  8
18  22  8
21  23  8
22  24  8
23  25  8
24  25  8
28  29  8
28  30  8
29  31  8
3  30  8
3  32  8
31  32  8
31  33  8
32  34  8
33  35  8
34  36  8
35  36  8

$$$$
