10413085
  -OEChem-09292322242D

 60 63  0     0  0  0  0  0  0999 V2000
    2.0000   -0.0350    0.0000 Br  0  0  0  0  0  0  0  0  0  0  0  0
   14.6279   -0.1690    0.0000 O   0  0  0  0  0  0  0  0  0  0  0  0
    7.6279   -1.9010    0.0000 O   0  0  0  0  0  0  0  0  0  0  0  0
   11.6279    1.5630    0.0000 N   0  0  0  0  0  0  0  0  0  0  0  0
   13.6279    1.5630    0.0000 N   0  0  0  0  0  0  0  0  0  0  0  0
    7.6279   -0.1690    0.0000 N   0  0  0  0  0  0  0  0  0  0  0  0
    5.5443   -1.8398    0.0000 N   0  0  0  0  0  0  0  0  0  0  0  0
   12.1279    2.4291    0.0000 C   0  0  0  0  0  0  0  0  0  0  0  0
   12.1279    0.6970    0.0000 C   0  0  0  0  0  0  0  0  0  0  0  0
   13.1279    2.4291    0.0000 C   0  0  0  0  0  0  0  0  0  0  0  0
   13.1279    0.6970    0.0000 C   0  0  0  0  0  0  0  0  0  0  0  0
   10.6279    1.5630    0.0000 C   0  0  0  0  0  0  0  0  0  0  0  0
   10.1279    0.6970    0.0000 C   0  0  0  0  0  0  0  0  0  0  0  0
   14.6279    1.5630    0.0000 C   0  0  0  0  0  0  0  0  0  0  0  0
    9.1279    0.6970    0.0000 C   0  0  0  0  0  0  0  0  0  0  0  0
    8.6279   -0.1690    0.0000 C   0  0  0  0  0  0  0  0  0  0  0  0
   15.1279    0.6970    0.0000 C   0  0  0  0  0  0  0  0  0  0  0  0
   15.1279    2.4291    0.0000 C   0  0  0  0  0  0  0  0  0  0  0  0
   16.1279    0.6970    0.0000 C   0  0  0  0  0  0  0  0  0  0  0  0
   16.1279    2.4291    0.0000 C   0  0  0  0  0  0  0  0  0  0  0  0
   16.6279    1.5630    0.0000 C   0  0  0  0  0  0  0  0  0  0  0  0
    7.1279   -1.0350    0.0000 C   0  0  0  0  0  0  0  0  0  0  0  0
    6.1279   -1.0350    0.0000 C   0  0  0  0  0  0  0  0  0  0  0  0
    4.5981   -1.5350    0.0000 C   0  0  0  0  0  0  0  0  0  0  0  0
    4.5981   -0.5350    0.0000 C   0  0  0  0  0  0  0  0  0  0  0  0
    5.5443   -0.2303    0.0000 C   0  0  0  0  0  0  0  0  0  0  0  0
   15.1279   -1.0350    0.0000 C   0  0  0  0  0  0  0  0  0  0  0  0
    3.7320   -2.0350    0.0000 C   0  0  0  0  0  0  0  0  0  0  0  0
    3.7320   -0.0350    0.0000 C   0  0  0  0  0  0  0  0  0  0  0  0
    2.8660   -0.5350    0.0000 C   0  0  0  0  0  0  0  0  0  0  0  0
    2.8660   -1.5350    0.0000 C   0  0  0  0  0  0  0  0  0  0  0  0
   12.2356    3.0397    0.0000 H   0  0  0  0  0  0  0  0  0  0  0  0
   11.5453    2.6411    0.0000 H   0  0  0  0  0  0  0  0  0  0  0  0
   11.5453    0.4850    0.0000 H   0  0  0  0  0  0  0  0  0  0  0  0
   12.2356    0.0864    0.0000 H   0  0  0  0  0  0  0  0  0  0  0  0
   13.7105    2.6411    0.0000 H   0  0  0  0  0  0  0  0  0  0  0  0
   13.0202    3.0397    0.0000 H   0  0  0  0  0  0  0  0  0  0  0  0
   13.0202    0.0864    0.0000 H   0  0  0  0  0  0  0  0  0  0  0  0
   13.7105    0.4850    0.0000 H   0  0  0  0  0  0  0  0  0  0  0  0
   10.7356    2.1736    0.0000 H   0  0  0  0  0  0  0  0  0  0  0  0
   10.0453    1.7751    0.0000 H   0  0  0  0  0  0  0  0  0  0  0  0
   10.0202    0.0864    0.0000 H   0  0  0  0  0  0  0  0  0  0  0  0
   10.7105    0.4850    0.0000 H   0  0  0  0  0  0  0  0  0  0  0  0
    9.2356    1.3076    0.0000 H   0  0  0  0  0  0  0  0  0  0  0  0
    8.5453    0.9091    0.0000 H   0  0  0  0  0  0  0  0  0  0  0  0
    8.5202   -0.7796    0.0000 H   0  0  0  0  0  0  0  0  0  0  0  0
    9.2105   -0.3810    0.0000 H   0  0  0  0  0  0  0  0  0  0  0  0
   14.8179    2.9660    0.0000 H   0  0  0  0  0  0  0  0  0  0  0  0
    7.3179    0.3679    0.0000 H   0  0  0  0  0  0  0  0  0  0  0  0
   16.4379    0.1601    0.0000 H   0  0  0  0  0  0  0  0  0  0  0  0
   16.4379    2.9660    0.0000 H   0  0  0  0  0  0  0  0  0  0  0  0
   17.2479    1.5630    0.0000 H   0  0  0  0  0  0  0  0  0  0  0  0
    5.7369   -2.4291    0.0000 H   0  0  0  0  0  0  0  0  0  0  0  0
    5.7369    0.3590    0.0000 H   0  0  0  0  0  0  0  0  0  0  0  0
   14.5910   -1.3450    0.0000 H   0  0  0  0  0  0  0  0  0  0  0  0
   15.4379   -1.5720    0.0000 H   0  0  0  0  0  0  0  0  0  0  0  0
   15.6648   -0.7250    0.0000 H   0  0  0  0  0  0  0  0  0  0  0  0
    3.7320    0.5850    0.0000 H   0  0  0  0  0  0  0  0  0  0  0  0
    3.7320   -2.6550    0.0000 H   0  0  0  0  0  0  0  0  0  0  0  0
    2.3291   -1.8450    0.0000 H   0  0  0  0  0  0  0  0  0  0  0  0
  1 30  1  0  0  0  0
  2 17  1  0  0  0  0
  2 27  1  0  0  0  0
  3 22  2  0  0  0  0
  4  8  1  0  0  0  0
  4  9  1  0  0  0  0
  4 12  1  0  0  0  0
  5 10  1  0  0  0  0
  5 11  1  0  0  0  0
  5 14  1  0  0  0  0
  6 16  1  0  0  0  0
  6 22  1  0  0  0  0
  6 49  1  0  0  0  0
  7 23  1  0  0  0  0
  7 24  1  0  0  0  0
  7 53  1  0  0  0  0
  8 10  1  0  0  0  0
  8 32  1  0  0  0  0
  8 33  1  0  0  0  0
  9 11  1  0  0  0  0
  9 34  1  0  0  0  0
  9 35  1  0  0  0  0
 10 36  1  0  0  0  0
 10 37  1  0  0  0  0
 11 38  1  0  0  0  0
 11 39  1  0  0  0  0
 12 13  1  0  0  0  0
 12 40  1  0  0  0  0
 12 41  1  0  0  0  0
 13 15  1  0  0  0  0
 13 42  1  0  0  0  0
 13 43  1  0  0  0  0
 14 17  1  0  0  0  0
 14 18  2  0  0  0  0
 15 16  1  0  0  0  0
 15 44  1  0  0  0  0
 15 45  1  0  0  0  0
 16 46  1  0  0  0  0
 16 47  1  0  0  0  0
 17 19  2  0  0  0  0
 18 20  1  0  0  0  0
 18 48  1  0  0  0  0
 19 21  1  0  0  0  0
 19 50  1  0  0  0  0
 20 21  2  0  0  0  0
 20 51  1  0  0  0  0
 21 52  1  0  0  0  0
 22 23  1  0  0  0  0
 23 26  2  0  0  0  0
 24 25  2  0  0  0  0
 24 28  1  0  0  0  0
 25 26  1  0  0  0  0
 25 29  1  0  0  0  0
 26 54  1  0  0  0  0
 27 55  1  0  0  0  0
 27 56  1  0  0  0  0
 27 57  1  0  0  0  0
 28 31  2  0  0  0  0
 28 59  1  0  0  0  0
 29 30  2  0  0  0  0
 29 58  1  0  0  0  0
 30 31  1  0  0  0  0
 31 60  1  0  0  0  0
M  END
> <PUBCHEM_COMPOUND_CID>
10413085

> <PUBCHEM_COMPOUND_CANONICALIZED>
1

> <PUBCHEM_CACTVS_COMPLEXITY>
572

> <PUBCHEM_CACTVS_HBOND_ACCEPTOR>
4

> <PUBCHEM_CACTVS_HBOND_DONOR>
2

> <PUBCHEM_CACTVS_ROTATABLE_BOND>
8

> <PUBCHEM_CACTVS_SUBSKEYS>
AAADceB7sAAAEAAAAAAAAAAAAAAAAWAAAAA8YIAAAAAAAFgB9AAAHgBQAAABrAzBngYyxvPJlACoAyVyVACCiCAnIiQImaG/bPgOZvLEtbuVMShk1hHY65eYyYCeAAAgEAACEAAAAEAgAAQgAAAAAAAAAA==

> <PUBCHEM_IUPAC_OPENEYE_NAME>
5-bromo-N-[4-[4-(2-methoxyphenyl)piperazin-1-yl]butyl]-1H-indole-2-carboxamide

> <PUBCHEM_IUPAC_CAS_NAME>
5-bromo-N-[4-[4-(2-methoxyphenyl)-1-piperazinyl]butyl]-1H-indole-2-carboxamide

> <PUBCHEM_IUPAC_NAME_MARKUP>
5-bromo-<I>N</I>-[4-[4-(2-methoxyphenyl)piperazin-1-yl]butyl]-1<I>H</I>-indole-2-carboxamide

> <PUBCHEM_IUPAC_NAME>
5-bromo-N-[4-[4-(2-methoxyphenyl)piperazin-1-yl]butyl]-1H-indole-2-carboxamide

> <PUBCHEM_IUPAC_SYSTEMATIC_NAME>
5-bromanyl-N-[4-[4-(2-methoxyphenyl)piperazin-1-yl]butyl]-1H-indole-2-carboxamide

> <PUBCHEM_IUPAC_TRADITIONAL_NAME>
5-bromo-N-[4-[4-(2-methoxyphenyl)piperazino]butyl]-1H-indole-2-carboxamide

> <PUBCHEM_IUPAC_INCHI>
InChI=1S/C24H29BrN4O2/c1-31-23-7-3-2-6-22(23)29-14-12-28(13-15-29)11-5-4-10-26-24(30)21-17-18-16-19(25)8-9-20(18)27-21/h2-3,6-9,16-17,27H,4-5,10-15H2,1H3,(H,26,30)

> <PUBCHEM_IUPAC_INCHIKEY>
POFDQHAFICYDAQ-UHFFFAOYSA-N

> <PUBCHEM_XLOGP3_AA>
4.7

> <PUBCHEM_EXACT_MASS>
484.14739

> <PUBCHEM_MOLECULAR_FORMULA>
C24H29BrN4O2

> <PUBCHEM_MOLECULAR_WEIGHT>
485.4

> <PUBCHEM_OPENEYE_CAN_SMILES>
COC1=CC=CC=C1N2CCN(CC2)CCCCNC(=O)C3=CC4=C(N3)C=CC(=C4)Br

> <PUBCHEM_OPENEYE_ISO_SMILES>
COC1=CC=CC=C1N2CCN(CC2)CCCCNC(=O)C3=CC4=C(N3)C=CC(=C4)Br

> <PUBCHEM_CACTVS_TPSA>
60.6

> <PUBCHEM_MONOISOTOPIC_WEIGHT>
484.14739

> <PUBCHEM_TOTAL_CHARGE>
0

> <PUBCHEM_HEAVY_ATOM_COUNT>
31

> <PUBCHEM_ATOM_DEF_STEREO_COUNT>
0

> <PUBCHEM_ATOM_UDEF_STEREO_COUNT>
0

> <PUBCHEM_BOND_DEF_STEREO_COUNT>
0

> <PUBCHEM_BOND_UDEF_STEREO_COUNT>
0

> <PUBCHEM_ISOTOPIC_ATOM_COUNT>
0

> <PUBCHEM_COMPONENT_COUNT>
1

> <PUBCHEM_CACTVS_TAUTO_COUNT>
-1

> <PUBCHEM_COORDINATE_TYPE>
1
5
255

> <PUBCHEM_BONDANNOTATIONS>
14  17  8
14  18  8
17  19  8
18  20  8
19  21  8
20  21  8
23  26  8
24  25  8
24  28  8
25  26  8
25  29  8
28  31  8
29  30  8
30  31  8
7  23  8
7  24  8

$$$$
