10250895
  -OEChem-09292322332D

 58 61  0     0  0  0  0  0  0999 V2000
    9.7884    0.4979    0.0000 O   0  0  0  0  0  0  0  0  0  0  0  0
    4.6038   -2.5221    0.0000 O   0  0  0  0  0  0  0  0  0  0  0  0
   13.3185    0.5221    0.0000 O   0  0  0  0  0  0  0  0  0  0  0  0
   15.0506    0.5221    0.0000 O   0  0  0  0  0  0  0  0  0  0  0  0
    6.3243    0.4846    0.0000 N   0  0  0  0  0  0  0  0  0  0  0  0
    4.5961   -0.5221    0.0000 N   0  0  0  0  0  0  0  0  0  0  0  0
    6.3282   -0.5154    0.0000 C   0  0  0  0  0  0  0  0  0  0  0  0
    5.4564    0.9812    0.0000 C   0  0  0  0  0  0  0  0  0  0  0  0
    5.4641   -1.0188    0.0000 C   0  0  0  0  0  0  0  0  0  0  0  0
    4.5923    0.4779    0.0000 C   0  0  0  0  0  0  0  0  0  0  0  0
    7.1884    0.9879    0.0000 C   0  0  0  0  0  0  0  0  0  0  0  0
    8.0564    0.4912    0.0000 C   0  0  0  0  0  0  0  0  0  0  0  0
    3.7320   -1.0254    0.0000 C   0  0  0  0  0  0  0  0  0  0  0  0
    8.9204    0.9946    0.0000 C   0  0  0  0  0  0  0  0  0  0  0  0
    3.7359   -2.0254    0.0000 C   0  0  0  0  0  0  0  0  0  0  0  0
    2.8641   -0.5288    0.0000 C   0  0  0  0  0  0  0  0  0  0  0  0
    2.8718   -2.5288    0.0000 C   0  0  0  0  0  0  0  0  0  0  0  0
    2.0000   -1.0321    0.0000 C   0  0  0  0  0  0  0  0  0  0  0  0
    2.0038   -2.0321    0.0000 C   0  0  0  0  0  0  0  0  0  0  0  0
   10.6525    1.0013    0.0000 C   0  0  0  0  0  0  0  0  0  0  0  0
   11.5585    0.4874    0.0000 C   0  0  0  0  0  0  0  0  0  0  0  0
   10.6525    2.0429    0.0000 C   0  0  0  0  0  0  0  0  0  0  0  0
   12.4525    2.0221    0.0000 C   0  0  0  0  0  0  0  0  0  0  0  0
   12.4525    1.0221    0.0000 C   0  0  0  0  0  0  0  0  0  0  0  0
    4.6077   -3.5221    0.0000 C   0  0  0  0  0  0  0  0  0  0  0  0
   11.5585    2.5567    0.0000 C   0  0  0  0  0  0  0  0  0  0  0  0
   13.3185    2.5221    0.0000 C   0  0  0  0  0  0  0  0  0  0  0  0
   14.1845    2.0221    0.0000 C   0  0  0  0  0  0  0  0  0  0  0  0
   13.3185    3.5221    0.0000 C   0  0  0  0  0  0  0  0  0  0  0  0
   14.1845    1.0221    0.0000 C   0  0  0  0  0  0  0  0  0  0  0  0
    6.5425   -1.0972    0.0000 H   0  0  0  0  0  0  0  0  0  0  0  0
    6.9383   -0.4054    0.0000 H   0  0  0  0  0  0  0  0  0  0  0  0
    5.8531    1.4577    0.0000 H   0  0  0  0  0  0  0  0  0  0  0  0
    5.0560    1.4546    0.0000 H   0  0  0  0  0  0  0  0  0  0  0  0
    5.0674   -1.4952    0.0000 H   0  0  0  0  0  0  0  0  0  0  0  0
    5.8644   -1.4922    0.0000 H   0  0  0  0  0  0  0  0  0  0  0  0
    4.3780    1.0597    0.0000 H   0  0  0  0  0  0  0  0  0  0  0  0
    3.9821    0.3679    0.0000 H   0  0  0  0  0  0  0  0  0  0  0  0
    7.5851    1.4644    0.0000 H   0  0  0  0  0  0  0  0  0  0  0  0
    6.7880    1.4613    0.0000 H   0  0  0  0  0  0  0  0  0  0  0  0
    7.6597    0.0148    0.0000 H   0  0  0  0  0  0  0  0  0  0  0  0
    8.4567    0.0178    0.0000 H   0  0  0  0  0  0  0  0  0  0  0  0
    9.3171    1.4711    0.0000 H   0  0  0  0  0  0  0  0  0  0  0  0
    8.5201    1.4680    0.0000 H   0  0  0  0  0  0  0  0  0  0  0  0
    2.8617    0.0912    0.0000 H   0  0  0  0  0  0  0  0  0  0  0  0
    2.8742   -3.1488    0.0000 H   0  0  0  0  0  0  0  0  0  0  0  0
    1.4619   -0.7242    0.0000 H   0  0  0  0  0  0  0  0  0  0  0  0
    1.4681   -2.3442    0.0000 H   0  0  0  0  0  0  0  0  0  0  0  0
   11.5657   -0.1325    0.0000 H   0  0  0  0  0  0  0  0  0  0  0  0
   10.1167    2.3550    0.0000 H   0  0  0  0  0  0  0  0  0  0  0  0
   11.5657    3.1767    0.0000 H   0  0  0  0  0  0  0  0  0  0  0  0
    3.9877   -3.5245    0.0000 H   0  0  0  0  0  0  0  0  0  0  0  0
    4.6101   -4.1421    0.0000 H   0  0  0  0  0  0  0  0  0  0  0  0
    5.2277   -3.5197    0.0000 H   0  0  0  0  0  0  0  0  0  0  0  0
   14.7215    2.3321    0.0000 H   0  0  0  0  0  0  0  0  0  0  0  0
   13.9385    3.5221    0.0000 H   0  0  0  0  0  0  0  0  0  0  0  0
   13.3185    4.1421    0.0000 H   0  0  0  0  0  0  0  0  0  0  0  0
   12.6985    3.5221    0.0000 H   0  0  0  0  0  0  0  0  0  0  0  0
  1 14  1  0  0  0  0
  1 20  1  0  0  0  0
  2 15  1  0  0  0  0
  2 25  1  0  0  0  0
  3 24  1  0  0  0  0
  3 30  1  0  0  0  0
  4 30  2  0  0  0  0
  5  7  1  0  0  0  0
  5  8  1  0  0  0  0
  5 11  1  0  0  0  0
  6  9  1  0  0  0  0
  6 10  1  0  0  0  0
  6 13  1  0  0  0  0
  7  9  1  0  0  0  0
  7 31  1  0  0  0  0
  7 32  1  0  0  0  0
  8 10  1  0  0  0  0
  8 33  1  0  0  0  0
  8 34  1  0  0  0  0
  9 35  1  0  0  0  0
  9 36  1  0  0  0  0
 10 37  1  0  0  0  0
 10 38  1  0  0  0  0
 11 12  1  0  0  0  0
 11 39  1  0  0  0  0
 11 40  1  0  0  0  0
 12 14  1  0  0  0  0
 12 41  1  0  0  0  0
 12 42  1  0  0  0  0
 13 15  1  0  0  0  0
 13 16  2  0  0  0  0
 14 43  1  0  0  0  0
 14 44  1  0  0  0  0
 15 17  2  0  0  0  0
 16 18  1  0  0  0  0
 16 45  1  0  0  0  0
 17 19  1  0  0  0  0
 17 46  1  0  0  0  0
 18 19  2  0  0  0  0
 18 47  1  0  0  0  0
 19 48  1  0  0  0  0
 20 21  2  0  0  0  0
 20 22  1  0  0  0  0
 21 24  1  0  0  0  0
 21 49  1  0  0  0  0
 22 26  2  0  0  0  0
 22 50  1  0  0  0  0
 23 24  2  0  0  0  0
 23 26  1  0  0  0  0
 23 27  1  0  0  0  0
 25 52  1  0  0  0  0
 25 53  1  0  0  0  0
 25 54  1  0  0  0  0
 26 51  1  0  0  0  0
 27 28  2  0  0  0  0
 27 29  1  0  0  0  0
 28 30  1  0  0  0  0
 28 55  1  0  0  0  0
 29 56  1  0  0  0  0
 29 57  1  0  0  0  0
 29 58  1  0  0  0  0
M  END
> <PUBCHEM_COMPOUND_CID>
10250895

> <PUBCHEM_COMPOUND_CANONICALIZED>
1

> <PUBCHEM_CACTVS_COMPLEXITY>
602

> <PUBCHEM_CACTVS_HBOND_ACCEPTOR>
6

> <PUBCHEM_CACTVS_HBOND_DONOR>
0

> <PUBCHEM_CACTVS_ROTATABLE_BOND>
7

> <PUBCHEM_CACTVS_SUBSKEYS>
AAADceB7OAAAAAAAAAAAAAAAAAAAAAAAAAA8YIEAAAAAAACBQAAAHgAAAAAADAzhmAYyzoMABACIAiTSSACCCAAhIgAIiAAPbMgOZyLEsZuXOijnwBXY6QeQ4KwOIAAACAAIEABAAAAQABAgAAAAAAAAAA==

> <PUBCHEM_IUPAC_OPENEYE_NAME>
7-[3-[4-(2-methoxyphenyl)piperazin-1-yl]propoxy]-4-methyl-chromen-2-one

> <PUBCHEM_IUPAC_CAS_NAME>
7-[3-[4-(2-methoxyphenyl)-1-piperazinyl]propoxy]-4-methyl-1-benzopyran-2-one

> <PUBCHEM_IUPAC_NAME_MARKUP>
7-[3-[4-(2-methoxyphenyl)piperazin-1-yl]propoxy]-4-methylchromen-2-one

> <PUBCHEM_IUPAC_NAME>
7-[3-[4-(2-methoxyphenyl)piperazin-1-yl]propoxy]-4-methylchromen-2-one

> <PUBCHEM_IUPAC_SYSTEMATIC_NAME>
7-[3-[4-(2-methoxyphenyl)piperazin-1-yl]propoxy]-4-methyl-chromen-2-one

> <PUBCHEM_IUPAC_TRADITIONAL_NAME>
7-[3-[4-(2-methoxyphenyl)piperazino]propoxy]-4-methyl-coumarin

> <PUBCHEM_IUPAC_INCHI>
InChI=1S/C24H28N2O4/c1-18-16-24(27)30-23-17-19(8-9-20(18)23)29-15-5-10-25-11-13-26(14-12-25)21-6-3-4-7-22(21)28-2/h3-4,6-9,16-17H,5,10-15H2,1-2H3

> <PUBCHEM_IUPAC_INCHIKEY>
WYYRWPAVRAAIOL-UHFFFAOYSA-N

> <PUBCHEM_XLOGP3_AA>
3.8

> <PUBCHEM_EXACT_MASS>
408.20490738

> <PUBCHEM_MOLECULAR_FORMULA>
C24H28N2O4

> <PUBCHEM_MOLECULAR_WEIGHT>
408.5

> <PUBCHEM_OPENEYE_CAN_SMILES>
CC1=CC(=O)OC2=C1C=CC(=C2)OCCCN3CCN(CC3)C4=CC=CC=C4OC

> <PUBCHEM_OPENEYE_ISO_SMILES>
CC1=CC(=O)OC2=C1C=CC(=C2)OCCCN3CCN(CC3)C4=CC=CC=C4OC

> <PUBCHEM_CACTVS_TPSA>
51.2

> <PUBCHEM_MONOISOTOPIC_WEIGHT>
408.20490738

> <PUBCHEM_TOTAL_CHARGE>
0

> <PUBCHEM_HEAVY_ATOM_COUNT>
30

> <PUBCHEM_ATOM_DEF_STEREO_COUNT>
0

> <PUBCHEM_ATOM_UDEF_STEREO_COUNT>
0

> <PUBCHEM_BOND_DEF_STEREO_COUNT>
0

> <PUBCHEM_BOND_UDEF_STEREO_COUNT>
0

> <PUBCHEM_ISOTOPIC_ATOM_COUNT>
0

> <PUBCHEM_COMPONENT_COUNT>
1

> <PUBCHEM_CACTVS_TAUTO_COUNT>
-1

> <PUBCHEM_COORDINATE_TYPE>
1
5
255

> <PUBCHEM_BONDANNOTATIONS>
13  15  8
13  16  8
15  17  8
16  18  8
17  19  8
18  19  8
20  21  8
20  22  8
21  24  8
22  26  8
23  24  8
23  26  8
23  27  8
27  28  8
28  30  8
3  24  8
3  30  8

$$$$
