71457837
  -OEChem-09292322332D

 43 45  0     0  0  0  0  0  0999 V2000
    2.0000   -3.0042    0.0000 F   0  0  0  0  0  0  0  0  0  0  0  0
    6.4763    1.6521    0.0000 N   0  0  0  0  0  0  0  0  0  0  0  0
    5.5443   -2.8089    0.0000 N   0  0  0  0  0  0  0  0  0  0  0  0
    5.8550   -0.2489    0.0000 C   0  0  0  0  0  0  0  0  0  0  0  0
    6.8335   -0.0427    0.0000 C   0  0  0  0  0  0  0  0  0  0  0  0
    5.1871    0.4954    0.0000 C   0  0  0  0  0  0  0  0  0  0  0  0
    7.1441    0.9078    0.0000 C   0  0  0  0  0  0  0  0  0  0  0  0
    5.4978    1.4459    0.0000 C   0  0  0  0  0  0  0  0  0  0  0  0
    5.5443   -1.1994    0.0000 C   0  0  0  0  0  0  0  0  0  0  0  0
    6.7870    2.6027    0.0000 C   0  0  0  0  0  0  0  0  0  0  0  0
    4.5981   -1.5042    0.0000 C   0  0  0  0  0  0  0  0  0  0  0  0
    6.1279   -2.0042    0.0000 C   0  0  0  0  0  0  0  0  0  0  0  0
    4.5981   -2.5042    0.0000 C   0  0  0  0  0  0  0  0  0  0  0  0
    7.7654    2.8089    0.0000 C   0  0  0  0  0  0  0  0  0  0  0  0
    3.7320   -1.0042    0.0000 C   0  0  0  0  0  0  0  0  0  0  0  0
    3.7320   -3.0042    0.0000 C   0  0  0  0  0  0  0  0  0  0  0  0
    5.8550   -3.7594    0.0000 C   0  0  0  0  0  0  0  0  0  0  0  0
    8.0761    3.7594    0.0000 C   0  0  0  0  0  0  0  0  0  0  0  0
    2.8660   -1.5042    0.0000 C   0  0  0  0  0  0  0  0  0  0  0  0
    2.8660   -2.5042    0.0000 C   0  0  0  0  0  0  0  0  0  0  0  0
    6.2690   -0.7104    0.0000 H   0  0  0  0  0  0  0  0  0  0  0  0
    6.8540   -0.6623    0.0000 H   0  0  0  0  0  0  0  0  0  0  0  0
    7.4473   -0.1300    0.0000 H   0  0  0  0  0  0  0  0  0  0  0  0
    4.6402    0.7874    0.0000 H   0  0  0  0  0  0  0  0  0  0  0  0
    4.8046    0.0075    0.0000 H   0  0  0  0  0  0  0  0  0  0  0  0
    7.6910    0.6158    0.0000 H   0  0  0  0  0  0  0  0  0  0  0  0
    7.5267    1.3958    0.0000 H   0  0  0  0  0  0  0  0  0  0  0  0
    5.4772    2.0656    0.0000 H   0  0  0  0  0  0  0  0  0  0  0  0
    4.8840    1.5333    0.0000 H   0  0  0  0  0  0  0  0  0  0  0  0
    6.7664    3.2223    0.0000 H   0  0  0  0  0  0  0  0  0  0  0  0
    6.1731    2.6900    0.0000 H   0  0  0  0  0  0  0  0  0  0  0  0
    6.7479   -2.0042    0.0000 H   0  0  0  0  0  0  0  0  0  0  0  0
    7.7860    2.1892    0.0000 H   0  0  0  0  0  0  0  0  0  0  0  0
    8.3793    2.7215    0.0000 H   0  0  0  0  0  0  0  0  0  0  0  0
    3.7320   -0.3842    0.0000 H   0  0  0  0  0  0  0  0  0  0  0  0
    3.7320   -3.6242    0.0000 H   0  0  0  0  0  0  0  0  0  0  0  0
    5.2656   -3.9520    0.0000 H   0  0  0  0  0  0  0  0  0  0  0  0
    6.0476   -4.3487    0.0000 H   0  0  0  0  0  0  0  0  0  0  0  0
    6.4443   -3.5668    0.0000 H   0  0  0  0  0  0  0  0  0  0  0  0
    8.6654    3.5668    0.0000 H   0  0  0  0  0  0  0  0  0  0  0  0
    8.2687    4.3487    0.0000 H   0  0  0  0  0  0  0  0  0  0  0  0
    7.4868    3.9520    0.0000 H   0  0  0  0  0  0  0  0  0  0  0  0
    2.3291   -1.1942    0.0000 H   0  0  0  0  0  0  0  0  0  0  0  0
  1 20  1  0  0  0  0
  2  7  1  0  0  0  0
  2  8  1  0  0  0  0
  2 10  1  0  0  0  0
  3 12  1  0  0  0  0
  3 13  1  0  0  0  0
  3 17  1  0  0  0  0
  4  5  1  0  0  0  0
  4  6  1  0  0  0  0
  4  9  1  0  0  0  0
  4 21  1  0  0  0  0
  5  7  1  0  0  0  0
  5 22  1  0  0  0  0
  5 23  1  0  0  0  0
  6  8  1  0  0  0  0
  6 24  1  0  0  0  0
  6 25  1  0  0  0  0
  7 26  1  0  0  0  0
  7 27  1  0  0  0  0
  8 28  1  0  0  0  0
  8 29  1  0  0  0  0
  9 11  1  0  0  0  0
  9 12  2  0  0  0  0
 10 14  1  0  0  0  0
 10 30  1  0  0  0  0
 10 31  1  0  0  0  0
 11 13  2  0  0  0  0
 11 15  1  0  0  0  0
 12 32  1  0  0  0  0
 13 16  1  0  0  0  0
 14 18  1  0  0  0  0
 14 33  1  0  0  0  0
 14 34  1  0  0  0  0
 15 19  2  0  0  0  0
 15 35  1  0  0  0  0
 16 20  2  0  0  0  0
 16 36  1  0  0  0  0
 17 37  1  0  0  0  0
 17 38  1  0  0  0  0
 17 39  1  0  0  0  0
 18 40  1  0  0  0  0
 18 41  1  0  0  0  0
 18 42  1  0  0  0  0
 19 20  1  0  0  0  0
 19 43  1  0  0  0  0
M  END
> <PUBCHEM_COMPOUND_CID>
71457837

> <PUBCHEM_COMPOUND_CANONICALIZED>
1

> <PUBCHEM_CACTVS_COMPLEXITY>
314

> <PUBCHEM_CACTVS_HBOND_ACCEPTOR>
2

> <PUBCHEM_CACTVS_HBOND_DONOR>
0

> <PUBCHEM_CACTVS_ROTATABLE_BOND>
3

> <PUBCHEM_CACTVS_SUBSKEYS>
AAADceB7AQAAAAAAAAAAAAAAAAAAAWAAAAA8QAAAAAAAAFgB8AAAHQAAAAAADQjBHgw+wPMMEACgAzRnRACCgCAxAiAI2CA4ZJgIIOLAkZGEIAhggADIyAcQgMAOgAAAAAACAAAAAAAAAAQAAAAAAAAAAA==

> <PUBCHEM_IUPAC_OPENEYE_NAME>
6-fluoro-1-methyl-3-(1-propyl-4-piperidyl)indole

> <PUBCHEM_IUPAC_CAS_NAME>
6-fluoro-1-methyl-3-(1-propyl-4-piperidinyl)indole

> <PUBCHEM_IUPAC_NAME_MARKUP>
6-fluoro-1-methyl-3-(1-propylpiperidin-4-yl)indole

> <PUBCHEM_IUPAC_NAME>
6-fluoro-1-methyl-3-(1-propylpiperidin-4-yl)indole

> <PUBCHEM_IUPAC_SYSTEMATIC_NAME>
6-fluoranyl-1-methyl-3-(1-propylpiperidin-4-yl)indole

> <PUBCHEM_IUPAC_TRADITIONAL_NAME>
6-fluoro-1-methyl-3-(1-propyl-4-piperidyl)indole

> <PUBCHEM_IUPAC_INCHI>
InChI=1S/C17H23FN2/c1-3-8-20-9-6-13(7-10-20)16-12-19(2)17-11-14(18)4-5-15(16)17/h4-5,11-13H,3,6-10H2,1-2H3

> <PUBCHEM_IUPAC_INCHIKEY>
SKSNWJPZQYVOQU-UHFFFAOYSA-N

> <PUBCHEM_XLOGP3_AA>
3.6

> <PUBCHEM_EXACT_MASS>
274.18452690

> <PUBCHEM_MOLECULAR_FORMULA>
C17H23FN2

> <PUBCHEM_MOLECULAR_WEIGHT>
274.38

> <PUBCHEM_OPENEYE_CAN_SMILES>
CCCN1CCC(CC1)C2=CN(C3=C2C=CC(=C3)F)C

> <PUBCHEM_OPENEYE_ISO_SMILES>
CCCN1CCC(CC1)C2=CN(C3=C2C=CC(=C3)F)C

> <PUBCHEM_CACTVS_TPSA>
8.2

> <PUBCHEM_MONOISOTOPIC_WEIGHT>
274.18452690

> <PUBCHEM_TOTAL_CHARGE>
0

> <PUBCHEM_HEAVY_ATOM_COUNT>
20

> <PUBCHEM_ATOM_DEF_STEREO_COUNT>
0

> <PUBCHEM_ATOM_UDEF_STEREO_COUNT>
0

> <PUBCHEM_BOND_DEF_STEREO_COUNT>
0

> <PUBCHEM_BOND_UDEF_STEREO_COUNT>
0

> <PUBCHEM_ISOTOPIC_ATOM_COUNT>
0

> <PUBCHEM_COMPONENT_COUNT>
1

> <PUBCHEM_CACTVS_TAUTO_COUNT>
-1

> <PUBCHEM_COORDINATE_TYPE>
1
5
255

> <PUBCHEM_BONDANNOTATIONS>
11  13  8
11  15  8
13  16  8
15  19  8
16  20  8
19  20  8
3  12  8
3  13  8
9  11  8
9  12  8

$$$$
