164612933
  -OEChem-09292322442D

 56 59  0     1  0  0  0  0  0999 V2000
   11.5711   -4.2704    0.0000 Cl  0  0  0  0  0  0  0  0  0  0  0  0
    2.0000    3.2704    0.0000 O   0  0  0  0  0  0  0  0  0  0  0  0
    2.0000    1.2704    0.0000 O   0  0  0  0  0  0  0  0  0  0  0  0
    8.9826   -1.7604    0.0000 O   0  0  0  0  0  0  0  0  0  0  0  0
    6.3981    1.7496    0.0000 N   0  0  3  0  0  0  0  0  0  0  0  0
    9.8544   -0.2638    0.0000 N   0  0  0  0  0  0  0  0  0  0  0  0
    6.3981    2.7912    0.0000 C   0  0  0  0  0  0  0  0  0  0  0  0
    5.4920    1.2357    0.0000 C   0  0  0  0  0  0  0  0  0  0  0  0
    5.4920    3.3051    0.0000 C   0  0  0  0  0  0  0  0  0  0  0  0
    4.5981    1.7704    0.0000 C   0  0  0  0  0  0  0  0  0  0  0  0
    4.5981    2.7704    0.0000 C   0  0  0  0  0  0  0  0  0  0  0  0
    7.2622    1.2462    0.0000 C   0  0  0  0  0  0  0  0  0  0  0  0
    8.1301    1.7429    0.0000 C   0  0  0  0  0  0  0  0  0  0  0  0
    3.7320    3.2704    0.0000 C   0  0  0  0  0  0  0  0  0  0  0  0
    3.7320    1.2704    0.0000 C   0  0  0  0  0  0  0  0  0  0  0  0
    8.9942    1.2396    0.0000 C   0  0  0  0  0  0  0  0  0  0  0  0
    2.8660    2.7704    0.0000 C   0  0  0  0  0  0  0  0  0  0  0  0
    2.8660    1.7704    0.0000 C   0  0  0  0  0  0  0  0  0  0  0  0
    8.1340    2.7429    0.0000 C   0  0  0  0  0  0  0  0  0  0  0  0
    8.9904    0.2396    0.0000 C   0  0  0  0  0  0  0  0  0  0  0  0
    9.8622    1.7362    0.0000 C   0  0  0  0  0  0  0  0  0  0  0  0
    9.0019    3.2396    0.0000 C   0  0  0  0  0  0  0  0  0  0  0  0
    9.8660    2.7362    0.0000 C   0  0  0  0  0  0  0  0  0  0  0  0
    2.0000    4.2704    0.0000 C   0  0  0  0  0  0  0  0  0  0  0  0
    9.8506   -1.2638    0.0000 C   0  0  0  0  0  0  0  0  0  0  0  0
   10.7147   -1.7671    0.0000 C   0  0  0  0  0  0  0  0  0  0  0  0
   10.7108   -2.7671    0.0000 C   0  0  0  0  0  0  0  0  0  0  0  0
   11.5826   -1.2704    0.0000 C   0  0  0  0  0  0  0  0  0  0  0  0
   11.5749   -3.2704    0.0000 C   0  0  0  0  0  0  0  0  0  0  0  0
   12.4467   -1.7738    0.0000 C   0  0  0  0  0  0  0  0  0  0  0  0
   12.4429   -2.7738    0.0000 C   0  0  0  0  0  0  0  0  0  0  0  0
    7.0089    2.6851    0.0000 H   0  0  0  0  0  0  0  0  0  0  0  0
    6.6071    3.3749    0.0000 H   0  0  0  0  0  0  0  0  0  0  0  0
    5.0874    0.7660    0.0000 H   0  0  0  0  0  0  0  0  0  0  0  0
    5.8856    0.7567    0.0000 H   0  0  0  0  0  0  0  0  0  0  0  0
    5.8856    3.7841    0.0000 H   0  0  0  0  0  0  0  0  0  0  0  0
    5.0874    3.7748    0.0000 H   0  0  0  0  0  0  0  0  0  0  0  0
    6.8618    0.7728    0.0000 H   0  0  0  0  0  0  0  0  0  0  0  0
    7.6589    0.7698    0.0000 H   0  0  0  0  0  0  0  0  0  0  0  0
    3.7320    3.8904    0.0000 H   0  0  0  0  0  0  0  0  0  0  0  0
    3.7320    0.6504    0.0000 H   0  0  0  0  0  0  0  0  0  0  0  0
    7.5982    3.0550    0.0000 H   0  0  0  0  0  0  0  0  0  0  0  0
    8.3802    0.3496    0.0000 H   0  0  0  0  0  0  0  0  0  0  0  0
    8.7761   -0.3422    0.0000 H   0  0  0  0  0  0  0  0  0  0  0  0
   10.3979    1.4242    0.0000 H   0  0  0  0  0  0  0  0  0  0  0  0
    9.0043    3.8596    0.0000 H   0  0  0  0  0  0  0  0  0  0  0  0
   10.4041    3.0442    0.0000 H   0  0  0  0  0  0  0  0  0  0  0  0
   10.3926    0.0442    0.0000 H   0  0  0  0  0  0  0  0  0  0  0  0
    2.0000    0.6504    0.0000 H   0  0  0  0  0  0  0  0  0  0  0  0
    2.6200    4.2704    0.0000 H   0  0  0  0  0  0  0  0  0  0  0  0
    2.0000    4.8904    0.0000 H   0  0  0  0  0  0  0  0  0  0  0  0
    1.3800    4.2704    0.0000 H   0  0  0  0  0  0  0  0  0  0  0  0
   10.1727   -3.0750    0.0000 H   0  0  0  0  0  0  0  0  0  0  0  0
   11.5850   -0.6504    0.0000 H   0  0  0  0  0  0  0  0  0  0  0  0
   12.9849   -1.4658    0.0000 H   0  0  0  0  0  0  0  0  0  0  0  0
   12.9786   -3.0858    0.0000 H   0  0  0  0  0  0  0  0  0  0  0  0
  1 29  1  0  0  0  0
  2 17  1  0  0  0  0
  2 24  1  0  0  0  0
  3 18  1  0  0  0  0
  3 49  1  0  0  0  0
  4 25  2  0  0  0  0
  5  7  1  0  0  0  0
  5  8  1  0  0  0  0
  5 12  1  0  0  0  0
  6 20  1  0  0  0  0
  6 25  1  0  0  0  0
  6 48  1  0  0  0  0
  7  9  1  0  0  0  0
  7 32  1  0  0  0  0
  7 33  1  0  0  0  0
  8 10  1  0  0  0  0
  8 34  1  0  0  0  0
  8 35  1  0  0  0  0
  9 11  1  0  0  0  0
  9 36  1  0  0  0  0
  9 37  1  0  0  0  0
 10 11  1  0  0  0  0
 10 15  2  0  0  0  0
 11 14  2  0  0  0  0
 12 13  1  0  0  0  0
 12 38  1  0  0  0  0
 12 39  1  0  0  0  0
 13 16  1  0  0  0  0
 13 19  2  0  0  0  0
 14 17  1  0  0  0  0
 14 40  1  0  0  0  0
 15 18  1  0  0  0  0
 15 41  1  0  0  0  0
 16 20  1  0  0  0  0
 16 21  2  0  0  0  0
 17 18  2  0  0  0  0
 19 22  1  0  0  0  0
 19 42  1  0  0  0  0
 20 43  1  0  0  0  0
 20 44  1  0  0  0  0
 21 23  1  0  0  0  0
 21 45  1  0  0  0  0
 22 23  2  0  0  0  0
 22 46  1  0  0  0  0
 23 47  1  0  0  0  0
 24 50  1  0  0  0  0
 24 51  1  0  0  0  0
 24 52  1  0  0  0  0
 25 26  1  0  0  0  0
 26 27  2  0  0  0  0
 26 28  1  0  0  0  0
 27 29  1  0  0  0  0
 27 53  1  0  0  0  0
 28 30  2  0  0  0  0
 28 54  1  0  0  0  0
 29 31  2  0  0  0  0
 30 31  1  0  0  0  0
 30 55  1  0  0  0  0
 31 56  1  0  0  0  0
M  END
> <PUBCHEM_COMPOUND_CID>
164612933

> <PUBCHEM_COMPOUND_CANONICALIZED>
1

> <PUBCHEM_CACTVS_COMPLEXITY>
591

> <PUBCHEM_CACTVS_HBOND_ACCEPTOR>
4

> <PUBCHEM_CACTVS_HBOND_DONOR>
2

> <PUBCHEM_CACTVS_ROTATABLE_BOND>
6

> <PUBCHEM_CACTVS_SUBSKEYS>
AAADceB7MAAEAAAAAAAAAAAAAAAAAAAAAAA8YMEAAAAAAACxUAAAHgIQCAAADAbBmCYyBoPABgCIAiFSEACCCAAkJQAIiIEOjsgNJjKHtxuEcStkxhGLuYe42LKOoAABIAAQQABAAAJAACCAAAAAAAAAAA==

> <PUBCHEM_IUPAC_OPENEYE_NAME>
3-chloro-N-[[2-[(7-hydroxy-6-methoxy-3,4-dihydro-1H-isoquinolin-2-yl)methyl]phenyl]methyl]benzamide

> <PUBCHEM_IUPAC_CAS_NAME>
3-chloro-N-[[2-[(7-hydroxy-6-methoxy-3,4-dihydro-1H-isoquinolin-2-yl)methyl]phenyl]methyl]benzamide

> <PUBCHEM_IUPAC_NAME_MARKUP>
3-chloro-<I>N</I>-[[2-[(7-hydroxy-6-methoxy-3,4-dihydro-1<I>H</I>-isoquinolin-2-yl)methyl]phenyl]methyl]benzamide

> <PUBCHEM_IUPAC_NAME>
3-chloro-N-[[2-[(7-hydroxy-6-methoxy-3,4-dihydro-1H-isoquinolin-2-yl)methyl]phenyl]methyl]benzamide

> <PUBCHEM_IUPAC_SYSTEMATIC_NAME>
3-chloranyl-N-[[2-[(6-methoxy-7-oxidanyl-3,4-dihydro-1H-isoquinolin-2-yl)methyl]phenyl]methyl]benzamide

> <PUBCHEM_IUPAC_TRADITIONAL_NAME>
3-chloro-N-[2-[(7-hydroxy-6-methoxy-3,4-dihydro-1H-isoquinolin-2-yl)methyl]benzyl]benzamide

> <PUBCHEM_IUPAC_INCHI>
InChI=1S/C25H25ClN2O3/c1-31-24-13-17-9-10-28(16-21(17)12-23(24)29)15-20-6-3-2-5-19(20)14-27-25(30)18-7-4-8-22(26)11-18/h2-8,11-13,29H,9-10,14-16H2,1H3,(H,27,30)

> <PUBCHEM_IUPAC_INCHIKEY>
DJIHVEIRASRGEQ-UHFFFAOYSA-N

> <PUBCHEM_XLOGP3_AA>
4.3

> <PUBCHEM_EXACT_MASS>
436.1553704

> <PUBCHEM_MOLECULAR_FORMULA>
C25H25ClN2O3

> <PUBCHEM_MOLECULAR_WEIGHT>
436.9

> <PUBCHEM_OPENEYE_CAN_SMILES>
COC1=C(C=C2CN(CCC2=C1)CC3=CC=CC=C3CNC(=O)C4=CC(=CC=C4)Cl)O

> <PUBCHEM_OPENEYE_ISO_SMILES>
COC1=C(C=C2CN(CCC2=C1)CC3=CC=CC=C3CNC(=O)C4=CC(=CC=C4)Cl)O

> <PUBCHEM_CACTVS_TPSA>
61.8

> <PUBCHEM_MONOISOTOPIC_WEIGHT>
436.1553704

> <PUBCHEM_TOTAL_CHARGE>
0

> <PUBCHEM_HEAVY_ATOM_COUNT>
31

> <PUBCHEM_ATOM_DEF_STEREO_COUNT>
0

> <PUBCHEM_ATOM_UDEF_STEREO_COUNT>
0

> <PUBCHEM_BOND_DEF_STEREO_COUNT>
0

> <PUBCHEM_BOND_UDEF_STEREO_COUNT>
0

> <PUBCHEM_ISOTOPIC_ATOM_COUNT>
0

> <PUBCHEM_COMPONENT_COUNT>
1

> <PUBCHEM_CACTVS_TAUTO_COUNT>
-1

> <PUBCHEM_COORDINATE_TYPE>
1
5
255

> <PUBCHEM_BONDANNOTATIONS>
10  11  8
10  15  8
11  14  8
13  16  8
13  19  8
14  17  8
15  18  8
16  21  8
17  18  8
19  22  8
21  23  8
22  23  8
26  27  8
26  28  8
27  29  8
28  30  8
29  31  8
30  31  8

$$$$
