137640391
  -OEChem-09292322002D

 57 60  0     0  0  0  0  0  0999 V2000
    2.8660    0.3971    0.0000 O   0  0  0  0  0  0  0  0  0  0  0  0
    9.7942   -0.6029    0.0000 O   0  0  0  0  0  0  0  0  0  0  0  0
    6.3301    0.3971    0.0000 N   0  0  0  0  0  0  0  0  0  0  0  0
    4.5981   -0.6029    0.0000 N   0  0  0  0  0  0  0  0  0  0  0  0
   10.6603    0.8971    0.0000 N   0  0  0  0  0  0  0  0  0  0  0  0
   13.2583   -0.6029    0.0000 N   0  0  0  0  0  0  0  0  0  0  0  0
   14.2045   -0.9076    0.0000 N   0  0  0  0  0  0  0  0  0  0  0  0
   14.8259    2.6029    0.0000 N   0  0  0  0  0  0  0  0  0  0  0  0
    5.4641    0.8971    0.0000 C   0  0  0  0  0  0  0  0  0  0  0  0
    6.3301   -0.6029    0.0000 C   0  0  0  0  0  0  0  0  0  0  0  0
    4.5981    0.3971    0.0000 C   0  0  0  0  0  0  0  0  0  0  0  0
    5.4641   -1.1029    0.0000 C   0  0  0  0  0  0  0  0  0  0  0  0
    7.1962    0.8971    0.0000 C   0  0  0  0  0  0  0  0  0  0  0  0
    8.0622    0.3971    0.0000 C   0  0  0  0  0  0  0  0  0  0  0  0
    3.7320   -1.1029    0.0000 C   0  0  0  0  0  0  0  0  0  0  0  0
    8.9282    0.8971    0.0000 C   0  0  0  0  0  0  0  0  0  0  0  0
    2.8660   -0.6029    0.0000 C   0  0  0  0  0  0  0  0  0  0  0  0
    3.7320   -2.1029    0.0000 C   0  0  0  0  0  0  0  0  0  0  0  0
    9.7942    0.3971    0.0000 C   0  0  0  0  0  0  0  0  0  0  0  0
    2.0000   -1.1029    0.0000 C   0  0  0  0  0  0  0  0  0  0  0  0
    2.8660   -2.6029    0.0000 C   0  0  0  0  0  0  0  0  0  0  0  0
    2.0000   -2.1029    0.0000 C   0  0  0  0  0  0  0  0  0  0  0  0
   11.5263    0.3971    0.0000 C   0  0  0  0  0  0  0  0  0  0  0  0
   12.3923    0.8971    0.0000 C   0  0  0  0  0  0  0  0  0  0  0  0
    2.0000    0.8971    0.0000 C   0  0  0  0  0  0  0  0  0  0  0  0
   13.2583    0.3971    0.0000 C   0  0  0  0  0  0  0  0  0  0  0  0
   11.5263   -0.6029    0.0000 C   0  0  0  0  0  0  0  0  0  0  0  0
   12.3923   -1.1029    0.0000 C   0  0  0  0  0  0  0  0  0  0  0  0
   14.2045    0.7018    0.0000 C   0  0  0  0  0  0  0  0  0  0  0  0
   14.7882   -0.1029    0.0000 C   0  0  0  0  0  0  0  0  0  0  0  0
   14.5152    1.6524    0.0000 C   0  0  0  0  0  0  0  0  0  0  0  0
    5.8626    1.3721    0.0000 H   0  0  0  0  0  0  0  0  0  0  0  0
    5.0656    1.3721    0.0000 H   0  0  0  0  0  0  0  0  0  0  0  0
    6.5422   -1.1855    0.0000 H   0  0  0  0  0  0  0  0  0  0  0  0
    6.9407   -0.4952    0.0000 H   0  0  0  0  0  0  0  0  0  0  0  0
    4.3860    0.9797    0.0000 H   0  0  0  0  0  0  0  0  0  0  0  0
    3.9875    0.2895    0.0000 H   0  0  0  0  0  0  0  0  0  0  0  0
    5.0656   -1.5778    0.0000 H   0  0  0  0  0  0  0  0  0  0  0  0
    5.8626   -1.5778    0.0000 H   0  0  0  0  0  0  0  0  0  0  0  0
    7.5947    1.3721    0.0000 H   0  0  0  0  0  0  0  0  0  0  0  0
    6.7976    1.3721    0.0000 H   0  0  0  0  0  0  0  0  0  0  0  0
    7.6636   -0.0778    0.0000 H   0  0  0  0  0  0  0  0  0  0  0  0
    8.4607   -0.0778    0.0000 H   0  0  0  0  0  0  0  0  0  0  0  0
    9.3267    1.3721    0.0000 H   0  0  0  0  0  0  0  0  0  0  0  0
    8.5297    1.3721    0.0000 H   0  0  0  0  0  0  0  0  0  0  0  0
    4.2690   -2.4129    0.0000 H   0  0  0  0  0  0  0  0  0  0  0  0
    1.4631   -0.7929    0.0000 H   0  0  0  0  0  0  0  0  0  0  0  0
    2.8660   -3.2229    0.0000 H   0  0  0  0  0  0  0  0  0  0  0  0
    1.4631   -2.4129    0.0000 H   0  0  0  0  0  0  0  0  0  0  0  0
   10.6603    1.5171    0.0000 H   0  0  0  0  0  0  0  0  0  0  0  0
   12.3923    1.5171    0.0000 H   0  0  0  0  0  0  0  0  0  0  0  0
    2.3100    1.4340    0.0000 H   0  0  0  0  0  0  0  0  0  0  0  0
    1.4631    1.2071    0.0000 H   0  0  0  0  0  0  0  0  0  0  0  0
    1.6900    0.3602    0.0000 H   0  0  0  0  0  0  0  0  0  0  0  0
   10.9893   -0.9129    0.0000 H   0  0  0  0  0  0  0  0  0  0  0  0
   12.3923   -1.7229    0.0000 H   0  0  0  0  0  0  0  0  0  0  0  0
   15.4082   -0.1029    0.0000 H   0  0  0  0  0  0  0  0  0  0  0  0
  1 17  1  0  0  0  0
  1 25  1  0  0  0  0
  2 19  2  0  0  0  0
  3  9  1  0  0  0  0
  3 10  1  0  0  0  0
  3 13  1  0  0  0  0
  4 11  1  0  0  0  0
  4 12  1  0  0  0  0
  4 15  1  0  0  0  0
  5 19  1  0  0  0  0
  5 23  1  0  0  0  0
  5 50  1  0  0  0  0
  6  7  1  0  0  0  0
  6 26  1  0  0  0  0
  6 28  1  0  0  0  0
  7 30  2  0  0  0  0
  8 31  3  0  0  0  0
  9 11  1  0  0  0  0
  9 32  1  0  0  0  0
  9 33  1  0  0  0  0
 10 12  1  0  0  0  0
 10 34  1  0  0  0  0
 10 35  1  0  0  0  0
 11 36  1  0  0  0  0
 11 37  1  0  0  0  0
 12 38  1  0  0  0  0
 12 39  1  0  0  0  0
 13 14  1  0  0  0  0
 13 40  1  0  0  0  0
 13 41  1  0  0  0  0
 14 16  1  0  0  0  0
 14 42  1  0  0  0  0
 14 43  1  0  0  0  0
 15 17  1  0  0  0  0
 15 18  2  0  0  0  0
 16 19  1  0  0  0  0
 16 44  1  0  0  0  0
 16 45  1  0  0  0  0
 17 20  2  0  0  0  0
 18 21  1  0  0  0  0
 18 46  1  0  0  0  0
 20 22  1  0  0  0  0
 20 47  1  0  0  0  0
 21 22  2  0  0  0  0
 21 48  1  0  0  0  0
 22 49  1  0  0  0  0
 23 24  2  0  0  0  0
 23 27  1  0  0  0  0
 24 26  1  0  0  0  0
 24 51  1  0  0  0  0
 25 52  1  0  0  0  0
 25 53  1  0  0  0  0
 25 54  1  0  0  0  0
 26 29  2  0  0  0  0
 27 28  2  0  0  0  0
 27 55  1  0  0  0  0
 28 56  1  0  0  0  0
 29 30  1  0  0  0  0
 29 31  1  0  0  0  0
 30 57  1  0  0  0  0
M  END
> <PUBCHEM_COMPOUND_CID>
137640391

> <PUBCHEM_COMPOUND_CANONICALIZED>
1

> <PUBCHEM_CACTVS_COMPLEXITY>
643

> <PUBCHEM_CACTVS_HBOND_ACCEPTOR>
6

> <PUBCHEM_CACTVS_HBOND_DONOR>
1

> <PUBCHEM_CACTVS_ROTATABLE_BOND>
7

> <PUBCHEM_CACTVS_SUBSKEYS>
AAADceB7sAAAAAAAAAAAAAAAAAAAAWAAAAA8WIAAAAAAAFgB8AAAHgAYAAAADAzBngY+xrPIFAC6BzV3VACyjCAxoiAY2CE/bJgO5vLE8duVtChk3BHY6A+UwEAMAAAAAAAAEAAAAAAAAAAgAAAAAAAAAA==

> <PUBCHEM_IUPAC_OPENEYE_NAME>
N-(3-cyanopyrazolo[1,5-a]pyridin-5-yl)-4-[4-(2-methoxyphenyl)piperazin-1-yl]butanamide

> <PUBCHEM_IUPAC_CAS_NAME>
N-(3-cyano-5-pyrazolo[1,5-a]pyridinyl)-4-[4-(2-methoxyphenyl)-1-piperazinyl]butanamide

> <PUBCHEM_IUPAC_NAME_MARKUP>
<I>N</I>-(3-cyanopyrazolo[1,5-a]pyridin-5-yl)-4-[4-(2-methoxyphenyl)piperazin-1-yl]butanamide

> <PUBCHEM_IUPAC_NAME>
N-(3-cyanopyrazolo[1,5-a]pyridin-5-yl)-4-[4-(2-methoxyphenyl)piperazin-1-yl]butanamide

> <PUBCHEM_IUPAC_SYSTEMATIC_NAME>
N-(3-cyanopyrazolo[1,5-a]pyridin-5-yl)-4-[4-(2-methoxyphenyl)piperazin-1-yl]butanamide

> <PUBCHEM_IUPAC_TRADITIONAL_NAME>
N-(3-cyanopyrazolo[1,5-a]pyridin-5-yl)-4-[4-(2-methoxyphenyl)piperazino]butyramide

> <PUBCHEM_IUPAC_INCHI>
InChI=1S/C23H26N6O2/c1-31-22-6-3-2-5-20(22)28-13-11-27(12-14-28)9-4-7-23(30)26-19-8-10-29-21(15-19)18(16-24)17-25-29/h2-3,5-6,8,10,15,17H,4,7,9,11-14H2,1H3,(H,26,30)

> <PUBCHEM_IUPAC_INCHIKEY>
VDIKOHJQRNCQAT-UHFFFAOYSA-N

> <PUBCHEM_XLOGP3_AA>
1.8

> <PUBCHEM_EXACT_MASS>
418.21172409

> <PUBCHEM_MOLECULAR_FORMULA>
C23H26N6O2

> <PUBCHEM_MOLECULAR_WEIGHT>
418.5

> <PUBCHEM_OPENEYE_CAN_SMILES>
COC1=CC=CC=C1N2CCN(CC2)CCCC(=O)NC3=CC4=C(C=NN4C=C3)C#N

> <PUBCHEM_OPENEYE_ISO_SMILES>
COC1=CC=CC=C1N2CCN(CC2)CCCC(=O)NC3=CC4=C(C=NN4C=C3)C#N

> <PUBCHEM_CACTVS_TPSA>
85.9

> <PUBCHEM_MONOISOTOPIC_WEIGHT>
418.21172409

> <PUBCHEM_TOTAL_CHARGE>
0

> <PUBCHEM_HEAVY_ATOM_COUNT>
31

> <PUBCHEM_ATOM_DEF_STEREO_COUNT>
0

> <PUBCHEM_ATOM_UDEF_STEREO_COUNT>
0

> <PUBCHEM_BOND_DEF_STEREO_COUNT>
0

> <PUBCHEM_BOND_UDEF_STEREO_COUNT>
0

> <PUBCHEM_ISOTOPIC_ATOM_COUNT>
0

> <PUBCHEM_COMPONENT_COUNT>
1

> <PUBCHEM_CACTVS_TAUTO_COUNT>
-1

> <PUBCHEM_COORDINATE_TYPE>
1
5
255

> <PUBCHEM_BONDANNOTATIONS>
15  17  8
15  18  8
17  20  8
18  21  8
20  22  8
21  22  8
23  24  8
23  27  8
24  26  8
26  29  8
27  28  8
29  30  8
6  26  8
6  28  8
6  7  8
7  30  8

$$$$
