127049061
  -OEChem-09292322372D

 55 59  0     0  0  0  0  0  0999 V2000
    2.0000   -5.3910    0.0000 Cl  0  0  0  0  0  0  0  0  0  0  0  0
    8.7817    3.3340    0.0000 S   0  0  0  0  0  0  0  0  0  0  0  0
    7.1279   -4.3910    0.0000 O   0  0  0  0  0  0  0  0  0  0  0  0
    6.4763   -0.7347    0.0000 N   0  0  0  0  0  0  0  0  0  0  0  0
    5.5443   -3.5863    0.0000 N   0  0  0  0  0  0  0  0  0  0  0  0
    5.5443   -5.1958    0.0000 N   0  0  0  0  0  0  0  0  0  0  0  0
   10.3115    2.8340    0.0000 N   0  0  0  0  0  0  0  0  0  0  0  0
    5.8550   -2.6358    0.0000 C   0  0  0  0  0  0  0  0  0  0  0  0
    5.1871   -1.8915    0.0000 C   0  0  0  0  0  0  0  0  0  0  0  0
    6.8335   -2.4296    0.0000 C   0  0  0  0  0  0  0  0  0  0  0  0
    5.4978   -0.9410    0.0000 C   0  0  0  0  0  0  0  0  0  0  0  0
    7.1441   -1.4790    0.0000 C   0  0  0  0  0  0  0  0  0  0  0  0
    6.7870    0.2158    0.0000 C   0  0  0  0  0  0  0  0  0  0  0  0
    7.7654    0.4220    0.0000 C   0  0  0  0  0  0  0  0  0  0  0  0
    4.5981   -3.8910    0.0000 C   0  0  0  0  0  0  0  0  0  0  0  0
    6.1279   -4.3910    0.0000 C   0  0  0  0  0  0  0  0  0  0  0  0
    4.5981   -4.8910    0.0000 C   0  0  0  0  0  0  0  0  0  0  0  0
    8.0761    1.3725    0.0000 C   0  0  0  0  0  0  0  0  0  0  0  0
    3.7320   -3.3910    0.0000 C   0  0  0  0  0  0  0  0  0  0  0  0
    9.0546    1.5788    0.0000 C   0  0  0  0  0  0  0  0  0  0  0  0
    3.7320   -5.3910    0.0000 C   0  0  0  0  0  0  0  0  0  0  0  0
    2.8660   -3.8910    0.0000 C   0  0  0  0  0  0  0  0  0  0  0  0
    2.8660   -4.8910    0.0000 C   0  0  0  0  0  0  0  0  0  0  0  0
    9.3653    2.5293    0.0000 C   0  0  0  0  0  0  0  0  0  0  0  0
    9.3653    4.1387    0.0000 C   0  0  0  0  0  0  0  0  0  0  0  0
   10.3158    3.8281    0.0000 C   0  0  0  0  0  0  0  0  0  0  0  0
    9.1591    5.1172    0.0000 C   0  0  0  0  0  0  0  0  0  0  0  0
   11.0601    4.4959    0.0000 C   0  0  0  0  0  0  0  0  0  0  0  0
    9.9034    5.7851    0.0000 C   0  0  0  0  0  0  0  0  0  0  0  0
   10.8539    5.4744    0.0000 C   0  0  0  0  0  0  0  0  0  0  0  0
    6.2690   -3.0972    0.0000 H   0  0  0  0  0  0  0  0  0  0  0  0
    4.6402   -1.5994    0.0000 H   0  0  0  0  0  0  0  0  0  0  0  0
    4.8046   -2.3794    0.0000 H   0  0  0  0  0  0  0  0  0  0  0  0
    6.8540   -3.0492    0.0000 H   0  0  0  0  0  0  0  0  0  0  0  0
    7.4473   -2.5169    0.0000 H   0  0  0  0  0  0  0  0  0  0  0  0
    5.4772   -0.3213    0.0000 H   0  0  0  0  0  0  0  0  0  0  0  0
    4.8840   -0.8536    0.0000 H   0  0  0  0  0  0  0  0  0  0  0  0
    7.6910   -1.7710    0.0000 H   0  0  0  0  0  0  0  0  0  0  0  0
    7.5267   -0.9911    0.0000 H   0  0  0  0  0  0  0  0  0  0  0  0
    6.7664    0.8354    0.0000 H   0  0  0  0  0  0  0  0  0  0  0  0
    6.1731    0.3031    0.0000 H   0  0  0  0  0  0  0  0  0  0  0  0
    7.7860   -0.1977    0.0000 H   0  0  0  0  0  0  0  0  0  0  0  0
    8.3793    0.3347    0.0000 H   0  0  0  0  0  0  0  0  0  0  0  0
    8.0556    1.9922    0.0000 H   0  0  0  0  0  0  0  0  0  0  0  0
    7.4623    1.4599    0.0000 H   0  0  0  0  0  0  0  0  0  0  0  0
    5.7369   -5.7851    0.0000 H   0  0  0  0  0  0  0  0  0  0  0  0
    3.7320   -2.7710    0.0000 H   0  0  0  0  0  0  0  0  0  0  0  0
    9.0752    0.9591    0.0000 H   0  0  0  0  0  0  0  0  0  0  0  0
    9.6684    1.4914    0.0000 H   0  0  0  0  0  0  0  0  0  0  0  0
    3.7320   -6.0110    0.0000 H   0  0  0  0  0  0  0  0  0  0  0  0
    2.3291   -3.5810    0.0000 H   0  0  0  0  0  0  0  0  0  0  0  0
    8.5697    5.3098    0.0000 H   0  0  0  0  0  0  0  0  0  0  0  0
   11.6494    4.3033    0.0000 H   0  0  0  0  0  0  0  0  0  0  0  0
    9.7755    6.3918    0.0000 H   0  0  0  0  0  0  0  0  0  0  0  0
   11.3154    5.8885    0.0000 H   0  0  0  0  0  0  0  0  0  0  0  0
  1 23  1  0  0  0  0
  2 24  1  0  0  0  0
  2 25  1  0  0  0  0
  3 16  2  0  0  0  0
  4 11  1  0  0  0  0
  4 12  1  0  0  0  0
  4 13  1  0  0  0  0
  5  8  1  0  0  0  0
  5 15  1  0  0  0  0
  5 16  1  0  0  0  0
  6 16  1  0  0  0  0
  6 17  1  0  0  0  0
  6 46  1  0  0  0  0
  7 24  2  0  0  0  0
  7 26  1  0  0  0  0
  8  9  1  0  0  0  0
  8 10  1  0  0  0  0
  8 31  1  0  0  0  0
  9 11  1  0  0  0  0
  9 32  1  0  0  0  0
  9 33  1  0  0  0  0
 10 12  1  0  0  0  0
 10 34  1  0  0  0  0
 10 35  1  0  0  0  0
 11 36  1  0  0  0  0
 11 37  1  0  0  0  0
 12 38  1  0  0  0  0
 12 39  1  0  0  0  0
 13 14  1  0  0  0  0
 13 40  1  0  0  0  0
 13 41  1  0  0  0  0
 14 18  1  0  0  0  0
 14 42  1  0  0  0  0
 14 43  1  0  0  0  0
 15 17  2  0  0  0  0
 15 19  1  0  0  0  0
 17 21  1  0  0  0  0
 18 20  1  0  0  0  0
 18 44  1  0  0  0  0
 18 45  1  0  0  0  0
 19 22  2  0  0  0  0
 19 47  1  0  0  0  0
 20 24  1  0  0  0  0
 20 48  1  0  0  0  0
 20 49  1  0  0  0  0
 21 23  2  0  0  0  0
 21 50  1  0  0  0  0
 22 23  1  0  0  0  0
 22 51  1  0  0  0  0
 25 26  1  0  0  0  0
 25 27  2  0  0  0  0
 26 28  2  0  0  0  0
 27 29  1  0  0  0  0
 27 52  1  0  0  0  0
 28 30  1  0  0  0  0
 28 53  1  0  0  0  0
 29 30  2  0  0  0  0
 29 54  1  0  0  0  0
 30 55  1  0  0  0  0
M  END
> <PUBCHEM_COMPOUND_CID>
127049061

> <PUBCHEM_COMPOUND_CANONICALIZED>
1

> <PUBCHEM_CACTVS_COMPLEXITY>
602

> <PUBCHEM_CACTVS_HBOND_ACCEPTOR>
4

> <PUBCHEM_CACTVS_HBOND_DONOR>
1

> <PUBCHEM_CACTVS_ROTATABLE_BOND>
6

> <PUBCHEM_CACTVS_SUBSKEYS>
AAADceB7oABEAAAAAAAAAAAAAAAAAWLAAAA8YIAAAAAAAFgB9AAAHgYQAAAACCrBViQxwbPIEAisASRiVACD8KBhDzhImDw4dpiIYKLh05GUIAholgLoyCcQAAAAAABAAAIAASAAAIAABAACQAAAAAAAAA==

> <PUBCHEM_IUPAC_OPENEYE_NAME>
3-[1-[4-(1,3-benzothiazol-2-yl)butyl]-4-piperidyl]-6-chloro-1H-benzimidazol-2-one

> <PUBCHEM_IUPAC_CAS_NAME>
3-[1-[4-(1,3-benzothiazol-2-yl)butyl]-4-piperidinyl]-6-chloro-1H-benzimidazol-2-one

> <PUBCHEM_IUPAC_NAME_MARKUP>
3-[1-[4-(1,3-benzothiazol-2-yl)butyl]piperidin-4-yl]-6-chloro-1<I>H</I>-benzimidazol-2-one

> <PUBCHEM_IUPAC_NAME>
3-[1-[4-(1,3-benzothiazol-2-yl)butyl]piperidin-4-yl]-6-chloro-1H-benzimidazol-2-one

> <PUBCHEM_IUPAC_SYSTEMATIC_NAME>
3-[1-[4-(1,3-benzothiazol-2-yl)butyl]piperidin-4-yl]-6-chloranyl-1H-benzimidazol-2-one

> <PUBCHEM_IUPAC_TRADITIONAL_NAME>
3-[1-[4-(1,3-benzothiazol-2-yl)butyl]-4-piperidyl]-6-chloro-1H-benzimidazol-2-one

> <PUBCHEM_IUPAC_INCHI>
InChI=1S/C23H25ClN4OS/c24-16-8-9-20-19(15-16)26-23(29)28(20)17-10-13-27(14-11-17)12-4-3-7-22-25-18-5-1-2-6-21(18)30-22/h1-2,5-6,8-9,15,17H,3-4,7,10-14H2,(H,26,29)

> <PUBCHEM_IUPAC_INCHIKEY>
PCHGCRMRRUZREQ-UHFFFAOYSA-N

> <PUBCHEM_XLOGP3_AA>
5.1

> <PUBCHEM_EXACT_MASS>
440.1437603

> <PUBCHEM_MOLECULAR_FORMULA>
C23H25ClN4OS

> <PUBCHEM_MOLECULAR_WEIGHT>
441.0

> <PUBCHEM_OPENEYE_CAN_SMILES>
C1CN(CCC1N2C3=C(C=C(C=C3)Cl)NC2=O)CCCCC4=NC5=CC=CC=C5S4

> <PUBCHEM_OPENEYE_ISO_SMILES>
C1CN(CCC1N2C3=C(C=C(C=C3)Cl)NC2=O)CCCCC4=NC5=CC=CC=C5S4

> <PUBCHEM_CACTVS_TPSA>
76.7

> <PUBCHEM_MONOISOTOPIC_WEIGHT>
440.1437603

> <PUBCHEM_TOTAL_CHARGE>
0

> <PUBCHEM_HEAVY_ATOM_COUNT>
30

> <PUBCHEM_ATOM_DEF_STEREO_COUNT>
0

> <PUBCHEM_ATOM_UDEF_STEREO_COUNT>
0

> <PUBCHEM_BOND_DEF_STEREO_COUNT>
0

> <PUBCHEM_BOND_UDEF_STEREO_COUNT>
0

> <PUBCHEM_ISOTOPIC_ATOM_COUNT>
0

> <PUBCHEM_COMPONENT_COUNT>
1

> <PUBCHEM_CACTVS_TAUTO_COUNT>
-1

> <PUBCHEM_COORDINATE_TYPE>
1
5
255

> <PUBCHEM_BONDANNOTATIONS>
15  17  8
15  19  8
17  21  8
19  22  8
2  24  8
2  25  8
21  23  8
22  23  8
25  26  8
25  27  8
26  28  8
27  29  8
28  30  8
29  30  8
5  15  8
5  16  8
6  16  8
6  17  8
7  24  8
7  26  8

$$$$
