155534362
  -OEChem-09292322412D

 73 78  0     1  0  0  0  0  0999 V2000
    6.3981    2.6392    0.0000 O   0  0  0  0  0  0  0  0  0  0  0  0
    4.6660   -0.3608    0.0000 O   0  0  0  0  0  0  0  0  0  0  0  0
    4.6660    6.6392    0.0000 O   0  0  0  0  0  0  0  0  0  0  0  0
    8.1301   -2.3608    0.0000 N   0  0  3  0  0  0  0  0  0  0  0  0
    8.4962   -6.3906    0.0000 N   0  0  0  0  0  0  0  0  0  0  0  0
    5.5321    1.1392    0.0000 N   0  0  0  0  0  0  0  0  0  0  0  0
    3.8000    1.1392    0.0000 N   0  0  0  0  0  0  0  0  0  0  0  0
    8.9962   -3.8608    0.0000 C   0  0  3  0  0  0  0  0  0  0  0  0
    8.1301   -3.3608    0.0000 C   0  0  0  0  0  0  0  0  0  0  0  0
    9.8622   -3.3608    0.0000 C   0  0  0  0  0  0  0  0  0  0  0  0
    9.8622   -2.3608    0.0000 C   0  0  0  0  0  0  0  0  0  0  0  0
    8.9962   -1.8608    0.0000 C   0  0  0  0  0  0  0  0  0  0  0  0
    8.9962   -4.8608    0.0000 C   0  0  0  0  0  0  0  0  0  0  0  0
    7.2641   -1.8608    0.0000 C   0  0  0  0  0  0  0  0  0  0  0  0
    7.2641   -0.8608    0.0000 C   0  0  0  0  0  0  0  0  0  0  0  0
    9.8009   -5.4444    0.0000 C   0  0  0  0  0  0  0  0  0  0  0  0
    8.1914   -5.4444    0.0000 C   0  0  0  0  0  0  0  0  0  0  0  0
    6.3981   -0.3608    0.0000 C   0  0  0  0  0  0  0  0  0  0  0  0
    9.4902   -6.3949    0.0000 C   0  0  0  0  0  0  0  0  0  0  0  0
    6.3981    0.6392    0.0000 C   0  0  0  0  0  0  0  0  0  0  0  0
   10.7794   -5.2382    0.0000 C   0  0  0  0  0  0  0  0  0  0  0  0
   10.1581   -7.1392    0.0000 C   0  0  0  0  0  0  0  0  0  0  0  0
   11.4472   -5.9825    0.0000 C   0  0  0  0  0  0  0  0  0  0  0  0
   11.1366   -6.9330    0.0000 C   0  0  0  0  0  0  0  0  0  0  0  0
    5.5321    2.1392    0.0000 C   0  0  0  0  0  0  0  0  0  0  0  0
    4.6660    0.6392    0.0000 C   0  0  0  0  0  0  0  0  0  0  0  0
    4.6660    2.6392    0.0000 C   0  0  0  0  0  0  0  0  0  0  0  0
    3.8000    2.1392    0.0000 C   0  0  0  0  0  0  0  0  0  0  0  0
    4.6660    3.6392    0.0000 C   0  0  0  0  0  0  0  0  0  0  0  0
    2.9061    0.6046    0.0000 C   0  0  0  0  0  0  0  0  0  0  0  0
    2.9061    2.6739    0.0000 C   0  0  0  0  0  0  0  0  0  0  0  0
    2.0000    1.1184    0.0000 C   0  0  0  0  0  0  0  0  0  0  0  0
    2.0000    2.1600    0.0000 C   0  0  0  0  0  0  0  0  0  0  0  0
    5.5321    4.1392    0.0000 C   0  0  0  0  0  0  0  0  0  0  0  0
    3.8000    4.1392    0.0000 C   0  0  0  0  0  0  0  0  0  0  0  0
    5.5321    5.1392    0.0000 C   0  0  0  0  0  0  0  0  0  0  0  0
    3.8000    5.1392    0.0000 C   0  0  0  0  0  0  0  0  0  0  0  0
    4.6660    5.6392    0.0000 C   0  0  0  0  0  0  0  0  0  0  0  0
    5.5321    7.1392    0.0000 C   0  0  0  0  0  0  0  0  0  0  0  0
    9.5331   -4.1708    0.0000 H   0  0  0  0  0  0  0  0  0  0  0  0
    7.5196   -3.2531    0.0000 H   0  0  0  0  0  0  0  0  0  0  0  0
    7.9181   -3.9434    0.0000 H   0  0  0  0  0  0  0  0  0  0  0  0
   10.0742   -3.9434    0.0000 H   0  0  0  0  0  0  0  0  0  0  0  0
   10.4728   -3.2531    0.0000 H   0  0  0  0  0  0  0  0  0  0  0  0
   10.4728   -2.4684    0.0000 H   0  0  0  0  0  0  0  0  0  0  0  0
   10.0742   -1.7782    0.0000 H   0  0  0  0  0  0  0  0  0  0  0  0
    9.3947   -1.3858    0.0000 H   0  0  0  0  0  0  0  0  0  0  0  0
    8.5976   -1.3858    0.0000 H   0  0  0  0  0  0  0  0  0  0  0  0
    6.6535   -1.7531    0.0000 H   0  0  0  0  0  0  0  0  0  0  0  0
    7.0521   -2.4434    0.0000 H   0  0  0  0  0  0  0  0  0  0  0  0
    7.8747   -0.9684    0.0000 H   0  0  0  0  0  0  0  0  0  0  0  0
    7.4762   -0.2782    0.0000 H   0  0  0  0  0  0  0  0  0  0  0  0
    7.6021   -5.2518    0.0000 H   0  0  0  0  0  0  0  0  0  0  0  0
    5.7875   -0.2531    0.0000 H   0  0  0  0  0  0  0  0  0  0  0  0
    6.1860   -0.9434    0.0000 H   0  0  0  0  0  0  0  0  0  0  0  0
    8.1300   -6.8909    0.0000 H   0  0  0  0  0  0  0  0  0  0  0  0
    7.0087    0.5316    0.0000 H   0  0  0  0  0  0  0  0  0  0  0  0
    6.6101    1.2218    0.0000 H   0  0  0  0  0  0  0  0  0  0  0  0
   10.9720   -4.6489    0.0000 H   0  0  0  0  0  0  0  0  0  0  0  0
    9.9655   -7.7285    0.0000 H   0  0  0  0  0  0  0  0  0  0  0  0
   12.0539   -5.8546    0.0000 H   0  0  0  0  0  0  0  0  0  0  0  0
   11.5506   -7.3945    0.0000 H   0  0  0  0  0  0  0  0  0  0  0  0
    2.9132   -0.0154    0.0000 H   0  0  0  0  0  0  0  0  0  0  0  0
    2.9132    3.2938    0.0000 H   0  0  0  0  0  0  0  0  0  0  0  0
    1.4643    0.8063    0.0000 H   0  0  0  0  0  0  0  0  0  0  0  0
    1.4643    2.4721    0.0000 H   0  0  0  0  0  0  0  0  0  0  0  0
    6.0690    3.8292    0.0000 H   0  0  0  0  0  0  0  0  0  0  0  0
    3.2631    3.8292    0.0000 H   0  0  0  0  0  0  0  0  0  0  0  0
    6.0690    5.4492    0.0000 H   0  0  0  0  0  0  0  0  0  0  0  0
    3.2631    5.4492    0.0000 H   0  0  0  0  0  0  0  0  0  0  0  0
    5.8421    6.6023    0.0000 H   0  0  0  0  0  0  0  0  0  0  0  0
    6.0690    7.4492    0.0000 H   0  0  0  0  0  0  0  0  0  0  0  0
    5.2221    7.6762    0.0000 H   0  0  0  0  0  0  0  0  0  0  0  0
  1 25  2  0  0  0  0
  2 26  2  0  0  0  0
  3 38  1  0  0  0  0
  3 39  1  0  0  0  0
  4  9  1  0  0  0  0
  4 12  1  0  0  0  0
  4 14  1  0  0  0  0
  5 17  1  0  0  0  0
  5 19  1  0  0  0  0
  5 56  1  0  0  0  0
  6 20  1  0  0  0  0
  6 25  1  0  0  0  0
  6 26  1  0  0  0  0
  7 26  1  0  0  0  0
  7 28  1  0  0  0  0
  7 30  1  0  0  0  0
  8  9  1  0  0  0  0
  8 10  1  0  0  0  0
  8 13  1  0  0  0  0
  8 40  1  0  0  0  0
  9 41  1  0  0  0  0
  9 42  1  0  0  0  0
 10 11  1  0  0  0  0
 10 43  1  0  0  0  0
 10 44  1  0  0  0  0
 11 12  1  0  0  0  0
 11 45  1  0  0  0  0
 11 46  1  0  0  0  0
 12 47  1  0  0  0  0
 12 48  1  0  0  0  0
 13 16  1  0  0  0  0
 13 17  2  0  0  0  0
 14 15  1  0  0  0  0
 14 49  1  0  0  0  0
 14 50  1  0  0  0  0
 15 18  1  0  0  0  0
 15 51  1  0  0  0  0
 15 52  1  0  0  0  0
 16 19  1  0  0  0  0
 16 21  2  0  0  0  0
 17 53  1  0  0  0  0
 18 20  1  0  0  0  0
 18 54  1  0  0  0  0
 18 55  1  0  0  0  0
 19 22  2  0  0  0  0
 20 57  1  0  0  0  0
 20 58  1  0  0  0  0
 21 23  1  0  0  0  0
 21 59  1  0  0  0  0
 22 24  1  0  0  0  0
 22 60  1  0  0  0  0
 23 24  2  0  0  0  0
 23 61  1  0  0  0  0
 24 62  1  0  0  0  0
 25 27  1  0  0  0  0
 27 28  2  0  0  0  0
 27 29  1  0  0  0  0
 28 31  1  0  0  0  0
 29 34  2  0  0  0  0
 29 35  1  0  0  0  0
 30 32  2  0  0  0  0
 30 63  1  0  0  0  0
 31 33  2  0  0  0  0
 31 64  1  0  0  0  0
 32 33  1  0  0  0  0
 32 65  1  0  0  0  0
 33 66  1  0  0  0  0
 34 36  1  0  0  0  0
 34 67  1  0  0  0  0
 35 37  2  0  0  0  0
 35 68  1  0  0  0  0
 36 38  2  0  0  0  0
 36 69  1  0  0  0  0
 37 38  1  0  0  0  0
 37 70  1  0  0  0  0
 39 71  1  0  0  0  0
 39 72  1  0  0  0  0
 39 73  1  0  0  0  0
M  END
> <PUBCHEM_COMPOUND_CID>
155534362

> <PUBCHEM_COMPOUND_CANONICALIZED>
1

> <PUBCHEM_CACTVS_COMPLEXITY>
997

> <PUBCHEM_CACTVS_HBOND_ACCEPTOR>
4

> <PUBCHEM_CACTVS_HBOND_DONOR>
1

> <PUBCHEM_CACTVS_ROTATABLE_BOND>
8

> <PUBCHEM_CACTVS_SUBSKEYS>
AAADcfB/sAAAAAAAAAAAAAAAAAAAAWAAAAA8YIECAAAAAFiB9AAAHgAQAAAADQzBngY/xvPJlACoAzV3VACCiCAxIiAI2aE+bNiMJvLEtZuEMChs1zPI6UeYyMCOoAAAAAACAABAAAAAAAQAAAAAAAAAAA==

> <PUBCHEM_IUPAC_OPENEYE_NAME>
2-[4-[3-(1H-indol-3-yl)-1-piperidyl]butyl]-4-(4-methoxyphenyl)pyrido[1,2-c]pyrimidine-1,3-dione

> <PUBCHEM_IUPAC_CAS_NAME>
2-[4-[3-(1H-indol-3-yl)-1-piperidinyl]butyl]-4-(4-methoxyphenyl)pyrido[1,2-c]pyrimidine-1,3-dione

> <PUBCHEM_IUPAC_NAME_MARKUP>
2-[4-[3-(1<I>H</I>-indol-3-yl)piperidin-1-yl]butyl]-4-(4-methoxyphenyl)pyrido[1,2-c]pyrimidine-1,3-dione

> <PUBCHEM_IUPAC_NAME>
2-[4-[3-(1H-indol-3-yl)piperidin-1-yl]butyl]-4-(4-methoxyphenyl)pyrido[1,2-c]pyrimidine-1,3-dione

> <PUBCHEM_IUPAC_SYSTEMATIC_NAME>
2-[4-[3-(1H-indol-3-yl)piperidin-1-yl]butyl]-4-(4-methoxyphenyl)pyrido[1,2-c]pyrimidine-1,3-dione

> <PUBCHEM_IUPAC_TRADITIONAL_NAME>
2-[4-[3-(1H-indol-3-yl)piperidino]butyl]-4-(4-methoxyphenyl)pyrido[1,2-c]pyrimidine-1,3-quinone

> <PUBCHEM_IUPAC_INCHI>
InChI=1S/C32H34N4O3/c1-39-25-15-13-23(14-16-25)30-29-12-4-5-19-35(29)32(38)36(31(30)37)20-7-6-17-34-18-8-9-24(22-34)27-21-33-28-11-3-2-10-26(27)28/h2-5,10-16,19,21,24,33H,6-9,17-18,20,22H2,1H3

> <PUBCHEM_IUPAC_INCHIKEY>
LMKOKEWRSZSLAW-UHFFFAOYSA-N

> <PUBCHEM_XLOGP3_AA>
5

> <PUBCHEM_EXACT_MASS>
522.26309096

> <PUBCHEM_MOLECULAR_FORMULA>
C32H34N4O3

> <PUBCHEM_MOLECULAR_WEIGHT>
522.6

> <PUBCHEM_OPENEYE_CAN_SMILES>
COC1=CC=C(C=C1)C2=C3C=CC=CN3C(=O)N(C2=O)CCCCN4CCCC(C4)C5=CNC6=CC=CC=C65

> <PUBCHEM_OPENEYE_ISO_SMILES>
COC1=CC=C(C=C1)C2=C3C=CC=CN3C(=O)N(C2=O)CCCCN4CCCC(C4)C5=CNC6=CC=CC=C65

> <PUBCHEM_CACTVS_TPSA>
68.9

> <PUBCHEM_MONOISOTOPIC_WEIGHT>
522.26309096

> <PUBCHEM_TOTAL_CHARGE>
0

> <PUBCHEM_HEAVY_ATOM_COUNT>
39

> <PUBCHEM_ATOM_DEF_STEREO_COUNT>
0

> <PUBCHEM_ATOM_UDEF_STEREO_COUNT>
1

> <PUBCHEM_BOND_DEF_STEREO_COUNT>
0

> <PUBCHEM_BOND_UDEF_STEREO_COUNT>
0

> <PUBCHEM_ISOTOPIC_ATOM_COUNT>
0

> <PUBCHEM_COMPONENT_COUNT>
1

> <PUBCHEM_CACTVS_TAUTO_COUNT>
-1

> <PUBCHEM_COORDINATE_TYPE>
1
5
255

> <PUBCHEM_BONDANNOTATIONS>
13  16  8
13  17  8
16  19  8
16  21  8
19  22  8
21  23  8
22  24  8
23  24  8
25  27  8
27  28  8
28  31  8
29  34  8
29  35  8
30  32  8
31  33  8
32  33  8
34  36  8
35  37  8
36  38  8
37  38  8
5  17  8
5  19  8
6  25  8
6  26  8
7  26  8
7  28  8
7  30  8
8  13  3

$$$$
