10378785
  -OEChem-09292322152D

 36 40  0     1  0  0  0  0  0999 V2000
    3.7214   -2.2181    0.0000 O   0  0  0  0  0  0  0  0  0  0  0  0
    2.0000   -2.1831    0.0000 O   0  0  0  0  0  0  0  0  0  0  0  0
    6.3389    1.2831    0.0000 N   0  0  3  0  0  0  0  0  0  0  0  0
    5.4806    0.7862    0.0000 C   0  0  1  0  0  0  0  0  0  0  0  0
    5.4806   -0.2138    0.0000 C   0  0  0  0  0  0  0  0  0  0  0  0
    4.6146    1.2862    0.0000 C   0  0  0  0  0  0  0  0  0  0  0  0
    4.6146   -0.7138    0.0000 C   0  0  0  0  0  0  0  0  0  0  0  0
    6.3906   -0.7207    0.0000 C   0  0  0  0  0  0  0  0  0  0  0  0
    7.2044    0.7989    0.0000 C   0  0  0  0  0  0  0  0  0  0  0  0
    7.2300   -0.1924    0.0000 C   0  0  0  0  0  0  0  0  0  0  0  0
    3.7486   -0.2138    0.0000 C   0  0  0  0  0  0  0  0  0  0  0  0
    3.7486    0.7862    0.0000 C   0  0  0  0  0  0  0  0  0  0  0  0
    4.5986   -1.7553    0.0000 C   0  0  0  0  0  0  0  0  0  0  0  0
    6.3987   -1.7623    0.0000 C   0  0  0  0  0  0  0  0  0  0  0  0
    2.8891   -0.7086    0.0000 C   0  0  0  0  0  0  0  0  0  0  0  0
    6.3315    2.2831    0.0000 C   0  0  0  0  0  0  0  0  0  0  0  0
    5.4966   -2.2831    0.0000 C   0  0  0  0  0  0  0  0  0  0  0  0
    2.8778    1.3003    0.0000 C   0  0  0  0  0  0  0  0  0  0  0  0
    2.8757   -1.7002    0.0000 C   0  0  0  0  0  0  0  0  0  0  0  0
    2.0067   -0.2147    0.0000 C   0  0  0  0  0  0  0  0  0  0  0  0
    2.0010    0.7965    0.0000 C   0  0  0  0  0  0  0  0  0  0  0  0
    5.4801    1.6362    0.0000 H   0  0  0  0  0  0  0  0  0  0  0  0
    5.0132    1.7611    0.0000 H   0  0  0  0  0  0  0  0  0  0  0  0
    4.2161    1.7611    0.0000 H   0  0  0  0  0  0  0  0  0  0  0  0
    7.8171    0.7046    0.0000 H   0  0  0  0  0  0  0  0  0  0  0  0
    7.4061    1.3852    0.0000 H   0  0  0  0  0  0  0  0  0  0  0  0
    7.4617   -0.7675    0.0000 H   0  0  0  0  0  0  0  0  0  0  0  0
    7.8370   -0.0665    0.0000 H   0  0  0  0  0  0  0  0  0  0  0  0
    6.9368   -2.0702    0.0000 H   0  0  0  0  0  0  0  0  0  0  0  0
    6.9514    2.2877    0.0000 H   0  0  0  0  0  0  0  0  0  0  0  0
    6.3269    2.9031    0.0000 H   0  0  0  0  0  0  0  0  0  0  0  0
    5.7115    2.2785    0.0000 H   0  0  0  0  0  0  0  0  0  0  0  0
    5.4942   -2.9031    0.0000 H   0  0  0  0  0  0  0  0  0  0  0  0
    2.8815    1.9203    0.0000 H   0  0  0  0  0  0  0  0  0  0  0  0
    1.4727   -0.5298    0.0000 H   0  0  0  0  0  0  0  0  0  0  0  0
    1.4635    1.1056    0.0000 H   0  0  0  0  0  0  0  0  0  0  0  0
  1 13  1  0  0  0  0
  1 19  1  0  0  0  0
  2 19  2  0  0  0  0
  3  4  1  0  0  0  0
  3  9  1  0  0  0  0
  3 16  1  0  0  0  0
  4  5  1  0  0  0  0
  4  6  1  0  0  0  0
  4 22  1  6  0  0  0
  5  7  1  0  0  0  0
  5  8  2  0  0  0  0
  6 12  1  0  0  0  0
  6 23  1  0  0  0  0
  6 24  1  0  0  0  0
  7 11  1  0  0  0  0
  7 13  2  0  0  0  0
  8 10  1  0  0  0  0
  8 14  1  0  0  0  0
  9 10  1  0  0  0  0
  9 25  1  0  0  0  0
  9 26  1  0  0  0  0
 10 27  1  0  0  0  0
 10 28  1  0  0  0  0
 11 12  2  0  0  0  0
 11 15  1  0  0  0  0
 12 18  1  0  0  0  0
 13 17  1  0  0  0  0
 14 17  2  0  0  0  0
 14 29  1  0  0  0  0
 15 19  1  0  0  0  0
 15 20  2  0  0  0  0
 16 30  1  0  0  0  0
 16 31  1  0  0  0  0
 16 32  1  0  0  0  0
 17 33  1  0  0  0  0
 18 21  2  0  0  0  0
 18 34  1  0  0  0  0
 20 21  1  0  0  0  0
 20 35  1  0  0  0  0
 21 36  1  0  0  0  0
M  END
> <PUBCHEM_COMPOUND_CID>
10378785

> <PUBCHEM_COMPOUND_CANONICALIZED>
1

> <PUBCHEM_CACTVS_COMPLEXITY>
464

> <PUBCHEM_CACTVS_HBOND_ACCEPTOR>
3

> <PUBCHEM_CACTVS_HBOND_DONOR>
0

> <PUBCHEM_CACTVS_ROTATABLE_BOND>
0

> <PUBCHEM_CACTVS_SUBSKEYS>
AAADccB6MAAAAAAAAAAAAAAAAAAAAAAAAAA8aMECAAAAAADxQAAAHgAAAAAADCzBmAQyDoMABACIAiDSCACCCAAkIAAIiAEODMgMJjKEtRuGOyjkwBGIqYe4zPDOoAADAAAYAADQAAaAADQAAAAAAAAAAA==

> <PUBCHEM_IUPAC_OPENEYE_NAME>
(1R)-2-methyl-9-oxa-2-azapentacyclo[13.3.1.05,18.08,17.011,16]nonadeca-5(18),6,8(17),11,13,15-hexaen-10-one

> <PUBCHEM_IUPAC_CAS_NAME>
(1R)-2-methyl-9-oxa-2-azapentacyclo[13.3.1.05,18.08,17.011,16]nonadeca-5(18),6,8(17),11,13,15-hexaen-10-one

> <PUBCHEM_IUPAC_NAME_MARKUP>
(1<I>R</I>)-2-methyl-9-oxa-2-azapentacyclo[13.3.1.0<SUP>5,18</SUP>.0<SUP>8,17</SUP>.0<SUP>11,16</SUP>]nonadeca-5(18),6,8(17),11,13,15-hexaen-10-one

> <PUBCHEM_IUPAC_NAME>
(1R)-2-methyl-9-oxa-2-azapentacyclo[13.3.1.05,18.08,17.011,16]nonadeca-5(18),6,8(17),11,13,15-hexaen-10-one

> <PUBCHEM_IUPAC_SYSTEMATIC_NAME>
(1R)-2-methyl-9-oxa-2-azapentacyclo[13.3.1.05,18.08,17.011,16]nonadeca-5(18),6,8(17),11,13,15-hexaen-10-one

> <PUBCHEM_IUPAC_TRADITIONAL_NAME>
(1R)-2-methyl-9-oxa-2-azapentacyclo[13.3.1.05,18.08,17.011,16]nonadeca-5(18),6,8(17),11,13,15-hexaen-10-one

> <PUBCHEM_IUPAC_INCHI>
InChI=1S/C18H15NO2/c1-19-8-7-10-5-6-14-17-15-11(9-13(19)16(10)17)3-2-4-12(15)18(20)21-14/h2-6,13H,7-9H2,1H3/t13-/m1/s1

> <PUBCHEM_IUPAC_INCHIKEY>
UCVKKWQVIIHPLH-CYBMUJFWSA-N

> <PUBCHEM_XLOGP3_AA>
3

> <PUBCHEM_EXACT_MASS>
277.110278721

> <PUBCHEM_MOLECULAR_FORMULA>
C18H15NO2

> <PUBCHEM_MOLECULAR_WEIGHT>
277.3

> <PUBCHEM_OPENEYE_CAN_SMILES>
CN1CCC2=C3C1CC4=C5C3=C(C=C2)OC(=O)C5=CC=C4

> <PUBCHEM_OPENEYE_ISO_SMILES>
CN1CCC2=C3[C@H]1CC4=C5C3=C(C=C2)OC(=O)C5=CC=C4

> <PUBCHEM_CACTVS_TPSA>
29.5

> <PUBCHEM_MONOISOTOPIC_WEIGHT>
277.110278721

> <PUBCHEM_TOTAL_CHARGE>
0

> <PUBCHEM_HEAVY_ATOM_COUNT>
21

> <PUBCHEM_ATOM_DEF_STEREO_COUNT>
1

> <PUBCHEM_ATOM_UDEF_STEREO_COUNT>
0

> <PUBCHEM_BOND_DEF_STEREO_COUNT>
0

> <PUBCHEM_BOND_UDEF_STEREO_COUNT>
0

> <PUBCHEM_ISOTOPIC_ATOM_COUNT>
0

> <PUBCHEM_COMPONENT_COUNT>
1

> <PUBCHEM_CACTVS_TAUTO_COUNT>
-1

> <PUBCHEM_COORDINATE_TYPE>
1
5
255

> <PUBCHEM_BONDANNOTATIONS>
1  13  8
1  19  8
11  12  8
11  15  8
12  18  8
13  17  8
14  17  8
15  19  8
15  20  8
18  21  8
20  21  8
4  22  6
5  7  8
5  8  8
7  11  8
7  13  8
8  14  8

$$$$
