90645303
  -OEChem-09292322352D

 70 73  0     0  0  0  0  0  0999 V2000
   18.5920   -3.8404    0.0000 Cl  0  0  0  0  0  0  0  0  0  0  0  0
    5.5443    0.8190    0.0000 S   0  0  0  0  0  0  0  0  0  0  0  0
   15.9939   -1.3404    0.0000 O   0  0  0  0  0  0  0  0  0  0  0  0
    7.6279    2.4897    0.0000 O   0  0  0  0  0  0  0  0  0  0  0  0
   13.1279   -1.8404    0.0000 N   0  0  0  0  0  0  0  0  0  0  0  0
    7.6279    0.7577    0.0000 N   0  0  0  0  0  0  0  0  0  0  0  0
    3.7320    0.6237    0.0000 N   0  0  0  0  0  0  0  0  0  0  0  0
    5.8550    3.3789    0.0000 N   0  0  0  0  0  0  0  0  0  0  0  0
   15.1279   -1.8404    0.0000 C   0  0  0  0  0  0  0  0  0  0  0  0
   14.6279   -2.7064    0.0000 C   0  0  0  0  0  0  0  0  0  0  0  0
   14.6279   -0.9744    0.0000 C   0  0  0  0  0  0  0  0  0  0  0  0
   13.6279   -2.7064    0.0000 C   0  0  0  0  0  0  0  0  0  0  0  0
   13.6279   -0.9744    0.0000 C   0  0  0  0  0  0  0  0  0  0  0  0
   12.1279   -1.8404    0.0000 C   0  0  0  0  0  0  0  0  0  0  0  0
   15.9939   -2.3404    0.0000 C   0  0  0  0  0  0  0  0  0  0  0  0
   11.6279   -0.9744    0.0000 C   0  0  0  0  0  0  0  0  0  0  0  0
   10.6279   -0.9744    0.0000 C   0  0  0  0  0  0  0  0  0  0  0  0
   16.8600   -1.8404    0.0000 C   0  0  0  0  0  0  0  0  0  0  0  0
   15.9939   -3.3404    0.0000 C   0  0  0  0  0  0  0  0  0  0  0  0
   10.1279   -0.1084    0.0000 C   0  0  0  0  0  0  0  0  0  0  0  0
    9.1279   -0.1084    0.0000 C   0  0  0  0  0  0  0  0  0  0  0  0
   17.7260   -2.3404    0.0000 C   0  0  0  0  0  0  0  0  0  0  0  0
   16.8600   -3.8404    0.0000 C   0  0  0  0  0  0  0  0  0  0  0  0
   17.7260   -3.3404    0.0000 C   0  0  0  0  0  0  0  0  0  0  0  0
    8.6279    0.7577    0.0000 C   0  0  0  0  0  0  0  0  0  0  0  0
    7.1279    1.6237    0.0000 C   0  0  0  0  0  0  0  0  0  0  0  0
    6.1279    1.6237    0.0000 C   0  0  0  0  0  0  0  0  0  0  0  0
    4.5981    2.1237    0.0000 C   0  0  0  0  0  0  0  0  0  0  0  0
    5.5443    2.4284    0.0000 C   0  0  0  0  0  0  0  0  0  0  0  0
    4.5981    1.1237    0.0000 C   0  0  0  0  0  0  0  0  0  0  0  0
    3.7320    2.6237    0.0000 C   0  0  0  0  0  0  0  0  0  0  0  0
    2.8660    2.1237    0.0000 C   0  0  0  0  0  0  0  0  0  0  0  0
    2.8660    1.1237    0.0000 C   0  0  0  0  0  0  0  0  0  0  0  0
    3.7320    3.6237    0.0000 C   0  0  0  0  0  0  0  0  0  0  0  0
    2.0000    0.6237    0.0000 C   0  0  0  0  0  0  0  0  0  0  0  0
   14.5202   -3.3170    0.0000 H   0  0  0  0  0  0  0  0  0  0  0  0
   15.2105   -2.9185    0.0000 H   0  0  0  0  0  0  0  0  0  0  0  0
   15.2105   -0.7623    0.0000 H   0  0  0  0  0  0  0  0  0  0  0  0
   14.5202   -0.3638    0.0000 H   0  0  0  0  0  0  0  0  0  0  0  0
   13.0453   -2.9185    0.0000 H   0  0  0  0  0  0  0  0  0  0  0  0
   13.7356   -3.3170    0.0000 H   0  0  0  0  0  0  0  0  0  0  0  0
   13.7356   -0.3638    0.0000 H   0  0  0  0  0  0  0  0  0  0  0  0
   13.0453   -0.7623    0.0000 H   0  0  0  0  0  0  0  0  0  0  0  0
   11.5453   -2.0525    0.0000 H   0  0  0  0  0  0  0  0  0  0  0  0
   12.2356   -2.4510    0.0000 H   0  0  0  0  0  0  0  0  0  0  0  0
   12.2105   -0.7623    0.0000 H   0  0  0  0  0  0  0  0  0  0  0  0
   11.5202   -0.3638    0.0000 H   0  0  0  0  0  0  0  0  0  0  0  0
   15.9939   -0.7204    0.0000 H   0  0  0  0  0  0  0  0  0  0  0  0
   10.0453   -1.1864    0.0000 H   0  0  0  0  0  0  0  0  0  0  0  0
   10.7356   -1.5850    0.0000 H   0  0  0  0  0  0  0  0  0  0  0  0
   16.8600   -1.2204    0.0000 H   0  0  0  0  0  0  0  0  0  0  0  0
   15.4570   -3.6504    0.0000 H   0  0  0  0  0  0  0  0  0  0  0  0
   10.7105    0.1037    0.0000 H   0  0  0  0  0  0  0  0  0  0  0  0
   10.0202    0.5022    0.0000 H   0  0  0  0  0  0  0  0  0  0  0  0
    8.5453   -0.3204    0.0000 H   0  0  0  0  0  0  0  0  0  0  0  0
    9.2356   -0.7189    0.0000 H   0  0  0  0  0  0  0  0  0  0  0  0
   18.2629   -2.0304    0.0000 H   0  0  0  0  0  0  0  0  0  0  0  0
   16.8600   -4.4604    0.0000 H   0  0  0  0  0  0  0  0  0  0  0  0
    9.2105    0.9697    0.0000 H   0  0  0  0  0  0  0  0  0  0  0  0
    8.5202    1.3682    0.0000 H   0  0  0  0  0  0  0  0  0  0  0  0
    7.3179    0.2207    0.0000 H   0  0  0  0  0  0  0  0  0  0  0  0
    2.3291    2.4337    0.0000 H   0  0  0  0  0  0  0  0  0  0  0  0
    4.3520    3.6237    0.0000 H   0  0  0  0  0  0  0  0  0  0  0  0
    3.7320    4.2437    0.0000 H   0  0  0  0  0  0  0  0  0  0  0  0
    3.1120    3.6237    0.0000 H   0  0  0  0  0  0  0  0  0  0  0  0
    6.4616    3.5068    0.0000 H   0  0  0  0  0  0  0  0  0  0  0  0
    5.4409    3.8404    0.0000 H   0  0  0  0  0  0  0  0  0  0  0  0
    1.6900    1.1606    0.0000 H   0  0  0  0  0  0  0  0  0  0  0  0
    1.4631    0.3137    0.0000 H   0  0  0  0  0  0  0  0  0  0  0  0
    2.3100    0.0868    0.0000 H   0  0  0  0  0  0  0  0  0  0  0  0
  1 24  1  0  0  0  0
  2 27  1  0  0  0  0
  2 30  1  0  0  0  0
  3  9  1  0  0  0  0
  3 48  1  0  0  0  0
  4 26  2  0  0  0  0
  5 12  1  0  0  0  0
  5 13  1  0  0  0  0
  5 14  1  0  0  0  0
  6 25  1  0  0  0  0
  6 26  1  0  0  0  0
  6 61  1  0  0  0  0
  7 30  1  0  0  0  0
  7 33  2  0  0  0  0
  8 29  1  0  0  0  0
  8 66  1  0  0  0  0
  8 67  1  0  0  0  0
  9 10  1  0  0  0  0
  9 11  1  0  0  0  0
  9 15  1  0  0  0  0
 10 12  1  0  0  0  0
 10 36  1  0  0  0  0
 10 37  1  0  0  0  0
 11 13  1  0  0  0  0
 11 38  1  0  0  0  0
 11 39  1  0  0  0  0
 12 40  1  0  0  0  0
 12 41  1  0  0  0  0
 13 42  1  0  0  0  0
 13 43  1  0  0  0  0
 14 16  1  0  0  0  0
 14 44  1  0  0  0  0
 14 45  1  0  0  0  0
 15 18  2  0  0  0  0
 15 19  1  0  0  0  0
 16 17  1  0  0  0  0
 16 46  1  0  0  0  0
 16 47  1  0  0  0  0
 17 20  1  0  0  0  0
 17 49  1  0  0  0  0
 17 50  1  0  0  0  0
 18 22  1  0  0  0  0
 18 51  1  0  0  0  0
 19 23  2  0  0  0  0
 19 52  1  0  0  0  0
 20 21  1  0  0  0  0
 20 53  1  0  0  0  0
 20 54  1  0  0  0  0
 21 25  1  0  0  0  0
 21 55  1  0  0  0  0
 21 56  1  0  0  0  0
 22 24  2  0  0  0  0
 22 57  1  0  0  0  0
 23 24  1  0  0  0  0
 23 58  1  0  0  0  0
 25 59  1  0  0  0  0
 25 60  1  0  0  0  0
 26 27  1  0  0  0  0
 27 29  2  0  0  0  0
 28 29  1  0  0  0  0
 28 30  2  0  0  0  0
 28 31  1  0  0  0  0
 31 32  2  0  0  0  0
 31 34  1  0  0  0  0
 32 33  1  0  0  0  0
 32 62  1  0  0  0  0
 33 35  1  0  0  0  0
 34 63  1  0  0  0  0
 34 64  1  0  0  0  0
 34 65  1  0  0  0  0
 35 68  1  0  0  0  0
 35 69  1  0  0  0  0
 35 70  1  0  0  0  0
M  END
> <PUBCHEM_COMPOUND_CID>
90645303

> <PUBCHEM_COMPOUND_CANONICALIZED>
1

> <PUBCHEM_CACTVS_COMPLEXITY>
684

> <PUBCHEM_CACTVS_HBOND_ACCEPTOR>
6

> <PUBCHEM_CACTVS_HBOND_DONOR>
3

> <PUBCHEM_CACTVS_ROTATABLE_BOND>
9

> <PUBCHEM_CACTVS_SUBSKEYS>
AAADcfB7sABEAAAAAAAAAAAAAAAAASAAAAA8WIAAAAAAAFgB/AAAHgYQCAAADE7B3iQywdPIEgisAyVyVACD0KBlDzgImLU4btgIJnrh19GEdYxm1gHo2UeYyeCOhAAAAAAAAAAIAAAAAAAAAAAAAAAAAA==

> <PUBCHEM_IUPAC_OPENEYE_NAME>
3-amino-N-[6-[4-(4-chlorophenyl)-4-hydroxy-1-piperidyl]hexyl]-4,6-dimethyl-thieno[2,3-b]pyridine-2-carboxamide

> <PUBCHEM_IUPAC_CAS_NAME>
3-amino-N-[6-[4-(4-chlorophenyl)-4-hydroxy-1-piperidinyl]hexyl]-4,6-dimethyl-2-thieno[2,3-b]pyridinecarboxamide

> <PUBCHEM_IUPAC_NAME_MARKUP>
3-amino-<I>N</I>-[6-[4-(4-chlorophenyl)-4-hydroxypiperidin-1-yl]hexyl]-4,6-dimethylthieno[2,3-b]pyridine-2-carboxamide

> <PUBCHEM_IUPAC_NAME>
3-amino-N-[6-[4-(4-chlorophenyl)-4-hydroxypiperidin-1-yl]hexyl]-4,6-dimethylthieno[2,3-b]pyridine-2-carboxamide

> <PUBCHEM_IUPAC_SYSTEMATIC_NAME>
3-azanyl-N-[6-[4-(4-chlorophenyl)-4-oxidanyl-piperidin-1-yl]hexyl]-4,6-dimethyl-thieno[2,3-b]pyridine-2-carboxamide

> <PUBCHEM_IUPAC_TRADITIONAL_NAME>
3-amino-N-[6-[4-(4-chlorophenyl)-4-hydroxy-piperidino]hexyl]-4,6-dimethyl-thieno[2,3-b]pyridine-2-carboxamide

> <PUBCHEM_IUPAC_INCHI>
InChI=1S/C27H35ClN4O2S/c1-18-17-19(2)31-26-22(18)23(29)24(35-26)25(33)30-13-5-3-4-6-14-32-15-11-27(34,12-16-32)20-7-9-21(28)10-8-20/h7-10,17,34H,3-6,11-16,29H2,1-2H3,(H,30,33)

> <PUBCHEM_IUPAC_INCHIKEY>
GWZPCOVXCOPKJA-UHFFFAOYSA-N

> <PUBCHEM_XLOGP3_AA>
5.7

> <PUBCHEM_EXACT_MASS>
514.2169252

> <PUBCHEM_MOLECULAR_FORMULA>
C27H35ClN4O2S

> <PUBCHEM_MOLECULAR_WEIGHT>
515.1

> <PUBCHEM_OPENEYE_CAN_SMILES>
CC1=CC(=NC2=C1C(=C(S2)C(=O)NCCCCCCN3CCC(CC3)(C4=CC=C(C=C4)Cl)O)N)C

> <PUBCHEM_OPENEYE_ISO_SMILES>
CC1=CC(=NC2=C1C(=C(S2)C(=O)NCCCCCCN3CCC(CC3)(C4=CC=C(C=C4)Cl)O)N)C

> <PUBCHEM_CACTVS_TPSA>
120

> <PUBCHEM_MONOISOTOPIC_WEIGHT>
514.2169252

> <PUBCHEM_TOTAL_CHARGE>
0

> <PUBCHEM_HEAVY_ATOM_COUNT>
35

> <PUBCHEM_ATOM_DEF_STEREO_COUNT>
0

> <PUBCHEM_ATOM_UDEF_STEREO_COUNT>
0

> <PUBCHEM_BOND_DEF_STEREO_COUNT>
0

> <PUBCHEM_BOND_UDEF_STEREO_COUNT>
0

> <PUBCHEM_ISOTOPIC_ATOM_COUNT>
0

> <PUBCHEM_COMPONENT_COUNT>
1

> <PUBCHEM_CACTVS_TAUTO_COUNT>
-1

> <PUBCHEM_COORDINATE_TYPE>
1
5
255

> <PUBCHEM_BONDANNOTATIONS>
15  18  8
15  19  8
18  22  8
19  23  8
2  27  8
2  30  8
22  24  8
23  24  8
27  29  8
28  29  8
28  30  8
28  31  8
31  32  8
32  33  8
7  30  8
7  33  8

$$$$
