57398875
  -OEChem-09292322322D

145152  0     0  0  0  0  0  0999 V2000
   37.1332    0.6736    0.0000 O   0  0  0  0  0  0  0  0  0  0  0  0
    3.5998    0.6736    0.0000 O   0  0  0  0  0  0  0  0  0  0  0  0
   29.6158   -0.0256    0.0000 O   0  0  0  0  0  0  0  0  0  0  0  0
   11.1172   -0.0256    0.0000 O   0  0  0  0  0  0  0  0  0  0  0  0
   25.5627   -2.0252    0.0000 O   0  0  0  0  0  0  0  0  0  0  0  0
   15.1704   -2.0252    0.0000 O   0  0  0  0  0  0  0  0  0  0  0  0
   22.9646   -1.5252    0.0000 O   0  0  0  0  0  0  0  0  0  0  0  0
   17.7684   -1.5252    0.0000 O   0  0  0  0  0  0  0  0  0  0  0  0
   20.3665   -2.0252    0.0000 O   0  0  0  0  0  0  0  0  0  0  0  0
   33.8405    1.7498    0.0000 N   0  0  0  0  0  0  0  0  0  0  0  0
    6.8925    1.7498    0.0000 N   0  0  0  0  0  0  0  0  0  0  0  0
   35.7975    2.1622    0.0000 N   0  0  0  0  0  0  0  0  0  0  0  0
    4.9355    2.1622    0.0000 N   0  0  0  0  0  0  0  0  0  0  0  0
   31.2621   -0.5637    0.0000 N   0  0  0  0  0  0  0  0  0  0  0  0
    9.4709   -0.5637    0.0000 N   0  0  0  0  0  0  0  0  0  0  0  0
   29.0268   -3.0252    0.0000 N   0  0  0  0  0  0  0  0  0  0  0  0
   11.7063   -3.0252    0.0000 N   0  0  0  0  0  0  0  0  0  0  0  0
   29.9730   -3.3299    0.0000 N   0  0  0  0  0  0  0  0  0  0  0  0
   10.7600   -3.3299    0.0000 N   0  0  0  0  0  0  0  0  0  0  0  0
   34.5083    1.0055    0.0000 C   0  0  0  0  0  0  0  0  0  0  0  0
   34.1511    2.7003    0.0000 C   0  0  0  0  0  0  0  0  0  0  0  0
    6.2247    1.0055    0.0000 C   0  0  0  0  0  0  0  0  0  0  0  0
    6.5819    2.7003    0.0000 C   0  0  0  0  0  0  0  0  0  0  0  0
   35.4868    1.2117    0.0000 C   0  0  0  0  0  0  0  0  0  0  0  0
   35.1297    2.9065    0.0000 C   0  0  0  0  0  0  0  0  0  0  0  0
    5.2462    1.2117    0.0000 C   0  0  0  0  0  0  0  0  0  0  0  0
    5.6034    2.9065    0.0000 C   0  0  0  0  0  0  0  0  0  0  0  0
   32.8620    1.5436    0.0000 C   0  0  0  0  0  0  0  0  0  0  0  0
    7.8710    1.5436    0.0000 C   0  0  0  0  0  0  0  0  0  0  0  0
   32.5513    0.5930    0.0000 C   0  0  0  0  0  0  0  0  0  0  0  0
    8.1817    0.5930    0.0000 C   0  0  0  0  0  0  0  0  0  0  0  0
   36.7760    2.3684    0.0000 C   0  0  0  0  0  0  0  0  0  0  0  0
    3.9570    2.3684    0.0000 C   0  0  0  0  0  0  0  0  0  0  0  0
   31.5728    0.3868    0.0000 C   0  0  0  0  0  0  0  0  0  0  0  0
    9.1602    0.3868    0.0000 C   0  0  0  0  0  0  0  0  0  0  0  0
   37.4438    1.6241    0.0000 C   0  0  0  0  0  0  0  0  0  0  0  0
    3.2892    1.6241    0.0000 C   0  0  0  0  0  0  0  0  0  0  0  0
   37.0867    3.3190    0.0000 C   0  0  0  0  0  0  0  0  0  0  0  0
    3.6464    3.3190    0.0000 C   0  0  0  0  0  0  0  0  0  0  0  0
   38.4224    1.8304    0.0000 C   0  0  0  0  0  0  0  0  0  0  0  0
    2.3107    1.8304    0.0000 C   0  0  0  0  0  0  0  0  0  0  0  0
   38.0652    3.5252    0.0000 C   0  0  0  0  0  0  0  0  0  0  0  0
    2.6678    3.5252    0.0000 C   0  0  0  0  0  0  0  0  0  0  0  0
   38.7330    2.7809    0.0000 C   0  0  0  0  0  0  0  0  0  0  0  0
    2.0000    2.7809    0.0000 C   0  0  0  0  0  0  0  0  0  0  0  0
   30.2836   -0.7699    0.0000 C   0  0  0  0  0  0  0  0  0  0  0  0
   10.4494   -0.7699    0.0000 C   0  0  0  0  0  0  0  0  0  0  0  0
   29.9730   -1.7204    0.0000 C   0  0  0  0  0  0  0  0  0  0  0  0
   10.7600   -1.7204    0.0000 C   0  0  0  0  0  0  0  0  0  0  0  0
   37.8010   -0.0707    0.0000 C   0  0  0  0  0  0  0  0  0  0  0  0
    2.9320   -0.0707    0.0000 C   0  0  0  0  0  0  0  0  0  0  0  0
   29.0268   -2.0252    0.0000 C   0  0  0  0  0  0  0  0  0  0  0  0
   11.7063   -2.0252    0.0000 C   0  0  0  0  0  0  0  0  0  0  0  0
   30.5566   -2.5252    0.0000 C   0  0  0  0  0  0  0  0  0  0  0  0
   10.1764   -2.5252    0.0000 C   0  0  0  0  0  0  0  0  0  0  0  0
   28.1607   -1.5252    0.0000 C   0  0  0  0  0  0  0  0  0  0  0  0
   12.5723   -1.5252    0.0000 C   0  0  0  0  0  0  0  0  0  0  0  0
   27.2947   -2.0252    0.0000 C   0  0  0  0  0  0  0  0  0  0  0  0
   13.4383   -2.0252    0.0000 C   0  0  0  0  0  0  0  0  0  0  0  0
   28.1607   -3.5252    0.0000 C   0  0  0  0  0  0  0  0  0  0  0  0
   12.5723   -3.5252    0.0000 C   0  0  0  0  0  0  0  0  0  0  0  0
   27.2947   -3.0252    0.0000 C   0  0  0  0  0  0  0  0  0  0  0  0
   13.4383   -3.0252    0.0000 C   0  0  0  0  0  0  0  0  0  0  0  0
   26.4287   -1.5252    0.0000 C   0  0  0  0  0  0  0  0  0  0  0  0
   14.3043   -1.5252    0.0000 C   0  0  0  0  0  0  0  0  0  0  0  0
   24.6966   -1.5252    0.0000 C   0  0  0  0  0  0  0  0  0  0  0  0
   16.0364   -1.5252    0.0000 C   0  0  0  0  0  0  0  0  0  0  0  0
   23.8306   -2.0252    0.0000 C   0  0  0  0  0  0  0  0  0  0  0  0
   16.9024   -2.0252    0.0000 C   0  0  0  0  0  0  0  0  0  0  0  0
   22.0986   -2.0252    0.0000 C   0  0  0  0  0  0  0  0  0  0  0  0
   18.6345   -2.0252    0.0000 C   0  0  0  0  0  0  0  0  0  0  0  0
   21.2325   -1.5252    0.0000 C   0  0  0  0  0  0  0  0  0  0  0  0
   19.5005   -1.5252    0.0000 C   0  0  0  0  0  0  0  0  0  0  0  0
   33.9820    0.6778    0.0000 H   0  0  0  0  0  0  0  0  0  0  0  0
   34.7396    0.4302    0.0000 H   0  0  0  0  0  0  0  0  0  0  0  0
   34.1306    3.3200    0.0000 H   0  0  0  0  0  0  0  0  0  0  0  0
   33.5373    2.7877    0.0000 H   0  0  0  0  0  0  0  0  0  0  0  0
    5.9934    0.4302    0.0000 H   0  0  0  0  0  0  0  0  0  0  0  0
    6.7510    0.6778    0.0000 H   0  0  0  0  0  0  0  0  0  0  0  0
    7.1957    2.7877    0.0000 H   0  0  0  0  0  0  0  0  0  0  0  0
    6.6024    3.3200    0.0000 H   0  0  0  0  0  0  0  0  0  0  0  0
   35.5074    0.5920    0.0000 H   0  0  0  0  0  0  0  0  0  0  0  0
   36.1007    1.1244    0.0000 H   0  0  0  0  0  0  0  0  0  0  0  0
   35.6560    3.2342    0.0000 H   0  0  0  0  0  0  0  0  0  0  0  0
   34.8984    3.4818    0.0000 H   0  0  0  0  0  0  0  0  0  0  0  0
    4.6324    1.1243    0.0000 H   0  0  0  0  0  0  0  0  0  0  0  0
    5.2256    0.5920    0.0000 H   0  0  0  0  0  0  0  0  0  0  0  0
    5.8346    3.4818    0.0000 H   0  0  0  0  0  0  0  0  0  0  0  0
    5.0770    3.2342    0.0000 H   0  0  0  0  0  0  0  0  0  0  0  0
   32.8414    2.1632    0.0000 H   0  0  0  0  0  0  0  0  0  0  0  0
   32.2482    1.6309    0.0000 H   0  0  0  0  0  0  0  0  0  0  0  0
    8.4848    1.6309    0.0000 H   0  0  0  0  0  0  0  0  0  0  0  0
    7.8916    2.1632    0.0000 H   0  0  0  0  0  0  0  0  0  0  0  0
   32.5719   -0.0266    0.0000 H   0  0  0  0  0  0  0  0  0  0  0  0
   33.1651    0.5057    0.0000 H   0  0  0  0  0  0  0  0  0  0  0  0
    7.5679    0.5057    0.0000 H   0  0  0  0  0  0  0  0  0  0  0  0
    8.1611   -0.0266    0.0000 H   0  0  0  0  0  0  0  0  0  0  0  0
   31.5522    1.0065    0.0000 H   0  0  0  0  0  0  0  0  0  0  0  0
   30.9590    0.4742    0.0000 H   0  0  0  0  0  0  0  0  0  0  0  0
    9.7740    0.4742    0.0000 H   0  0  0  0  0  0  0  0  0  0  0  0
    9.1808    1.0065    0.0000 H   0  0  0  0  0  0  0  0  0  0  0  0
   36.6726    3.7804    0.0000 H   0  0  0  0  0  0  0  0  0  0  0  0
    4.0604    3.7804    0.0000 H   0  0  0  0  0  0  0  0  0  0  0  0
   31.6762   -1.0252    0.0000 H   0  0  0  0  0  0  0  0  0  0  0  0
    9.0568   -1.0252    0.0000 H   0  0  0  0  0  0  0  0  0  0  0  0
   38.8364    1.3689    0.0000 H   0  0  0  0  0  0  0  0  0  0  0  0
    1.8966    1.3689    0.0000 H   0  0  0  0  0  0  0  0  0  0  0  0
   38.2578    4.1145    0.0000 H   0  0  0  0  0  0  0  0  0  0  0  0
    2.4752    4.1145    0.0000 H   0  0  0  0  0  0  0  0  0  0  0  0
   39.3397    2.9087    0.0000 H   0  0  0  0  0  0  0  0  0  0  0  0
    1.3933    2.9087    0.0000 H   0  0  0  0  0  0  0  0  0  0  0  0
   37.3396   -0.4848    0.0000 H   0  0  0  0  0  0  0  0  0  0  0  0
   38.2151   -0.5322    0.0000 H   0  0  0  0  0  0  0  0  0  0  0  0
   38.2625    0.3434    0.0000 H   0  0  0  0  0  0  0  0  0  0  0  0
    2.4705    0.3434    0.0000 H   0  0  0  0  0  0  0  0  0  0  0  0
    2.5179   -0.5322    0.0000 H   0  0  0  0  0  0  0  0  0  0  0  0
    3.3934   -0.4848    0.0000 H   0  0  0  0  0  0  0  0  0  0  0  0
   31.1766   -2.5252    0.0000 H   0  0  0  0  0  0  0  0  0  0  0  0
    9.5564   -2.5252    0.0000 H   0  0  0  0  0  0  0  0  0  0  0  0
   28.1607   -0.9052    0.0000 H   0  0  0  0  0  0  0  0  0  0  0  0
   12.5723   -0.9052    0.0000 H   0  0  0  0  0  0  0  0  0  0  0  0
   28.1607   -4.1452    0.0000 H   0  0  0  0  0  0  0  0  0  0  0  0
   12.5723   -4.1452    0.0000 H   0  0  0  0  0  0  0  0  0  0  0  0
   26.7578   -3.3352    0.0000 H   0  0  0  0  0  0  0  0  0  0  0  0
   13.9752   -3.3352    0.0000 H   0  0  0  0  0  0  0  0  0  0  0  0
   26.8272   -1.0502    0.0000 H   0  0  0  0  0  0  0  0  0  0  0  0
   26.0302   -1.0502    0.0000 H   0  0  0  0  0  0  0  0  0  0  0  0
   14.7029   -1.0502    0.0000 H   0  0  0  0  0  0  0  0  0  0  0  0
   13.9058   -1.0502    0.0000 H   0  0  0  0  0  0  0  0  0  0  0  0
   25.0952   -1.0502    0.0000 H   0  0  0  0  0  0  0  0  0  0  0  0
   24.2981   -1.0502    0.0000 H   0  0  0  0  0  0  0  0  0  0  0  0
   16.4349   -1.0502    0.0000 H   0  0  0  0  0  0  0  0  0  0  0  0
   15.6379   -1.0502    0.0000 H   0  0  0  0  0  0  0  0  0  0  0  0
   23.4321   -2.5001    0.0000 H   0  0  0  0  0  0  0  0  0  0  0  0
   24.2291   -2.5001    0.0000 H   0  0  0  0  0  0  0  0  0  0  0  0
   16.5039   -2.5001    0.0000 H   0  0  0  0  0  0  0  0  0  0  0  0
   17.3009   -2.5001    0.0000 H   0  0  0  0  0  0  0  0  0  0  0  0
   21.7000   -2.5001    0.0000 H   0  0  0  0  0  0  0  0  0  0  0  0
   22.4971   -2.5001    0.0000 H   0  0  0  0  0  0  0  0  0  0  0  0
   18.2359   -2.5001    0.0000 H   0  0  0  0  0  0  0  0  0  0  0  0
   19.0330   -2.5001    0.0000 H   0  0  0  0  0  0  0  0  0  0  0  0
   21.6311   -1.0502    0.0000 H   0  0  0  0  0  0  0  0  0  0  0  0
   20.8340   -1.0502    0.0000 H   0  0  0  0  0  0  0  0  0  0  0  0
   19.8990   -1.0502    0.0000 H   0  0  0  0  0  0  0  0  0  0  0  0
   19.1020   -1.0502    0.0000 H   0  0  0  0  0  0  0  0  0  0  0  0
  1 36  1  0  0  0  0
  1 50  1  0  0  0  0
  2 37  1  0  0  0  0
  2 51  1  0  0  0  0
  3 46  2  0  0  0  0
  4 47  2  0  0  0  0
  5 64  1  0  0  0  0
  5 66  1  0  0  0  0
  6 65  1  0  0  0  0
  6 67  1  0  0  0  0
  7 68  1  0  0  0  0
  7 70  1  0  0  0  0
  8 69  1  0  0  0  0
  8 71  1  0  0  0  0
  9 72  1  0  0  0  0
  9 73  1  0  0  0  0
 10 20  1  0  0  0  0
 10 21  1  0  0  0  0
 10 28  1  0  0  0  0
 11 22  1  0  0  0  0
 11 23  1  0  0  0  0
 11 29  1  0  0  0  0
 12 24  1  0  0  0  0
 12 25  1  0  0  0  0
 12 32  1  0  0  0  0
 13 26  1  0  0  0  0
 13 27  1  0  0  0  0
 13 33  1  0  0  0  0
 14 34  1  0  0  0  0
 14 46  1  0  0  0  0
 14104  1  0  0  0  0
 15 35  1  0  0  0  0
 15 47  1  0  0  0  0
 15105  1  0  0  0  0
 16 18  1  0  0  0  0
 16 52  1  0  0  0  0
 16 60  1  0  0  0  0
 17 19  1  0  0  0  0
 17 53  1  0  0  0  0
 17 61  1  0  0  0  0
 18 54  2  0  0  0  0
 19 55  2  0  0  0  0
 20 24  1  0  0  0  0
 20 74  1  0  0  0  0
 20 75  1  0  0  0  0
 21 25  1  0  0  0  0
 21 76  1  0  0  0  0
 21 77  1  0  0  0  0
 22 26  1  0  0  0  0
 22 78  1  0  0  0  0
 22 79  1  0  0  0  0
 23 27  1  0  0  0  0
 23 80  1  0  0  0  0
 23 81  1  0  0  0  0
 24 82  1  0  0  0  0
 24 83  1  0  0  0  0
 25 84  1  0  0  0  0
 25 85  1  0  0  0  0
 26 86  1  0  0  0  0
 26 87  1  0  0  0  0
 27 88  1  0  0  0  0
 27 89  1  0  0  0  0
 28 30  1  0  0  0  0
 28 90  1  0  0  0  0
 28 91  1  0  0  0  0
 29 31  1  0  0  0  0
 29 92  1  0  0  0  0
 29 93  1  0  0  0  0
 30 34  1  0  0  0  0
 30 94  1  0  0  0  0
 30 95  1  0  0  0  0
 31 35  1  0  0  0  0
 31 96  1  0  0  0  0
 31 97  1  0  0  0  0
 32 36  1  0  0  0  0
 32 38  2  0  0  0  0
 33 37  1  0  0  0  0
 33 39  2  0  0  0  0
 34 98  1  0  0  0  0
 34 99  1  0  0  0  0
 35100  1  0  0  0  0
 35101  1  0  0  0  0
 36 40  2  0  0  0  0
 37 41  2  0  0  0  0
 38 42  1  0  0  0  0
 38102  1  0  0  0  0
 39 43  1  0  0  0  0
 39103  1  0  0  0  0
 40 44  1  0  0  0  0
 40106  1  0  0  0  0
 41 45  1  0  0  0  0
 41107  1  0  0  0  0
 42 44  2  0  0  0  0
 42108  1  0  0  0  0
 43 45  2  0  0  0  0
 43109  1  0  0  0  0
 44110  1  0  0  0  0
 45111  1  0  0  0  0
 46 48  1  0  0  0  0
 47 49  1  0  0  0  0
 48 52  2  0  0  0  0
 48 54  1  0  0  0  0
 49 53  2  0  0  0  0
 49 55  1  0  0  0  0
 50112  1  0  0  0  0
 50113  1  0  0  0  0
 50114  1  0  0  0  0
 51115  1  0  0  0  0
 51116  1  0  0  0  0
 51117  1  0  0  0  0
 52 56  1  0  0  0  0
 53 57  1  0  0  0  0
 54118  1  0  0  0  0
 55119  1  0  0  0  0
 56 58  2  0  0  0  0
 56120  1  0  0  0  0
 57 59  2  0  0  0  0
 57121  1  0  0  0  0
 58 62  1  0  0  0  0
 58 64  1  0  0  0  0
 59 63  1  0  0  0  0
 59 65  1  0  0  0  0
 60 62  2  0  0  0  0
 60122  1  0  0  0  0
 61 63  2  0  0  0  0
 61123  1  0  0  0  0
 62124  1  0  0  0  0
 63125  1  0  0  0  0
 64126  1  0  0  0  0
 64127  1  0  0  0  0
 65128  1  0  0  0  0
 65129  1  0  0  0  0
 66 68  1  0  0  0  0
 66130  1  0  0  0  0
 66131  1  0  0  0  0
 67 69  1  0  0  0  0
 67132  1  0  0  0  0
 67133  1  0  0  0  0
 68134  1  0  0  0  0
 68135  1  0  0  0  0
 69136  1  0  0  0  0
 69137  1  0  0  0  0
 70 72  1  0  0  0  0
 70138  1  0  0  0  0
 70139  1  0  0  0  0
 71 73  1  0  0  0  0
 71140  1  0  0  0  0
 71141  1  0  0  0  0
 72142  1  0  0  0  0
 72143  1  0  0  0  0
 73144  1  0  0  0  0
 73145  1  0  0  0  0
M  END
> <PUBCHEM_COMPOUND_CID>
57398875

> <PUBCHEM_COMPOUND_CANONICALIZED>
1

> <PUBCHEM_CACTVS_COMPLEXITY>
1450

> <PUBCHEM_CACTVS_HBOND_ACCEPTOR>
15

> <PUBCHEM_CACTVS_HBOND_DONOR>
2

> <PUBCHEM_CACTVS_ROTATABLE_BOND>
30

> <PUBCHEM_CACTVS_SUBSKEYS>
AAADcfB//AAAAAAAAAAAAAAAAAAAAWLAAAA8eLFiAAAAAFgB/gAAHgAYAAAADAzhngY+xrPIFACqAzV3VACSjCA1oiAY2KE/bNgPZvrE9duXtahk3hHa6ce4yFCOAAAAAAAAEAAAAAAAAAAgAAAAAAAAAA==

> <PUBCHEM_IUPAC_OPENEYE_NAME>
N-[3-[4-(2-methoxyphenyl)piperazin-1-yl]propyl]-5-[2-[2-[2-[2-[[3-[3-[4-(2-methoxyphenyl)piperazin-1-yl]propylcarbamoyl]pyrazolo[1,5-a]pyridin-5-yl]methoxy]ethoxy]ethoxy]ethoxy]ethoxymethyl]pyrazolo[1,5-a]pyridine-3-carboxamide

> <PUBCHEM_IUPAC_CAS_NAME>
N-[3-[4-(2-methoxyphenyl)-1-piperazinyl]propyl]-5-[2-[2-[2-[2-[[3-[[3-[4-(2-methoxyphenyl)-1-piperazinyl]propylamino]-oxomethyl]-5-pyrazolo[1,5-a]pyridinyl]methoxy]ethoxy]ethoxy]ethoxy]ethoxymethyl]-3-pyrazolo[1,5-a]pyridinecarboxamide

> <PUBCHEM_IUPAC_NAME_MARKUP>
<I>N</I>-[3-[4-(2-methoxyphenyl)piperazin-1-yl]propyl]-5-[2-[2-[2-[2-[[3-[3-[4-(2-methoxyphenyl)piperazin-1-yl]propylcarbamoyl]pyrazolo[1,5-a]pyridin-5-yl]methoxy]ethoxy]ethoxy]ethoxy]ethoxymethyl]pyrazolo[1,5-a]pyridine-3-carboxamide

> <PUBCHEM_IUPAC_NAME>
N-[3-[4-(2-methoxyphenyl)piperazin-1-yl]propyl]-5-[2-[2-[2-[2-[[3-[3-[4-(2-methoxyphenyl)piperazin-1-yl]propylcarbamoyl]pyrazolo[1,5-a]pyridin-5-yl]methoxy]ethoxy]ethoxy]ethoxy]ethoxymethyl]pyrazolo[1,5-a]pyridine-3-carboxamide

> <PUBCHEM_IUPAC_SYSTEMATIC_NAME>
N-[3-[4-(2-methoxyphenyl)piperazin-1-yl]propyl]-5-[2-[2-[2-[2-[[3-[3-[4-(2-methoxyphenyl)piperazin-1-yl]propylcarbamoyl]pyrazolo[1,5-a]pyridin-5-yl]methoxy]ethoxy]ethoxy]ethoxy]ethoxymethyl]pyrazolo[1,5-a]pyridine-3-carboxamide

> <PUBCHEM_IUPAC_TRADITIONAL_NAME>
N-[3-[4-(2-methoxyphenyl)piperazino]propyl]-5-[2-[2-[2-[2-[[3-[3-[4-(2-methoxyphenyl)piperazino]propylcarbamoyl]pyrazolo[1,5-a]pyridin-5-yl]methoxy]ethoxy]ethoxy]ethoxy]ethoxymethyl]pyrazolo[1,5-a]pyridine-3-carboxamide

> <PUBCHEM_IUPAC_INCHI>
InChI=1S/C54H72N10O9/c1-67-51-11-5-3-9-47(51)61-25-21-59(22-26-61)17-7-15-55-53(65)45-39-57-63-19-13-43(37-49(45)63)41-72-35-33-70-31-29-69-30-32-71-34-36-73-42-44-14-20-64-50(38-44)46(40-58-64)54(66)56-16-8-18-60-23-27-62(28-24-60)48-10-4-6-12-52(48)68-2/h3-6,9-14,19-20,37-40H,7-8,15-18,21-36,41-42H2,1-2H3,(H,55,65)(H,56,66)

> <PUBCHEM_IUPAC_INCHIKEY>
YOPFVVBZYPEBHX-UHFFFAOYSA-N

> <PUBCHEM_XLOGP3_AA>
3.2

> <PUBCHEM_EXACT_MASS>
1004.54837391

> <PUBCHEM_MOLECULAR_FORMULA>
C54H72N10O9

> <PUBCHEM_MOLECULAR_WEIGHT>
1005.2

> <PUBCHEM_OPENEYE_CAN_SMILES>
COC1=CC=CC=C1N2CCN(CC2)CCCNC(=O)C3=C4C=C(C=CN4N=C3)COCCOCCOCCOCCOCC5=CC6=C(C=NN6C=C5)C(=O)NCCCN7CCN(CC7)C8=CC=CC=C8OC

> <PUBCHEM_OPENEYE_ISO_SMILES>
COC1=CC=CC=C1N2CCN(CC2)CCCNC(=O)C3=C4C=C(C=CN4N=C3)COCCOCCOCCOCCOCC5=CC6=C(C=NN6C=C5)C(=O)NCCCN7CCN(CC7)C8=CC=CC=C8OC

> <PUBCHEM_CACTVS_TPSA>
170

> <PUBCHEM_MONOISOTOPIC_WEIGHT>
1004.54837391

> <PUBCHEM_TOTAL_CHARGE>
0

> <PUBCHEM_HEAVY_ATOM_COUNT>
73

> <PUBCHEM_ATOM_DEF_STEREO_COUNT>
0

> <PUBCHEM_ATOM_UDEF_STEREO_COUNT>
0

> <PUBCHEM_BOND_DEF_STEREO_COUNT>
0

> <PUBCHEM_BOND_UDEF_STEREO_COUNT>
0

> <PUBCHEM_ISOTOPIC_ATOM_COUNT>
0

> <PUBCHEM_COMPONENT_COUNT>
1

> <PUBCHEM_CACTVS_TAUTO_COUNT>
-1

> <PUBCHEM_COORDINATE_TYPE>
1
5
255

> <PUBCHEM_BONDANNOTATIONS>
16  18  8
16  52  8
16  60  8
17  19  8
17  53  8
17  61  8
18  54  8
19  55  8
32  36  8
32  38  8
33  37  8
33  39  8
36  40  8
37  41  8
38  42  8
39  43  8
40  44  8
41  45  8
42  44  8
43  45  8
48  52  8
48  54  8
49  53  8
49  55  8
52  56  8
53  57  8
56  58  8
57  59  8
58  62  8
59  63  8
60  62  8
61  63  8

$$$$
