122180956
  -OEChem-09292322362D

 52 54  0     1  0  0  0  0  0999 V2000
   13.7619   -2.1651    0.0000 F   0  0  0  0  0  0  0  0  0  0  0  0
   10.7619   -3.8971    0.0000 F   0  0  0  0  0  0  0  0  0  0  0  0
   12.7619   -3.8971    0.0000 F   0  0  0  0  0  0  0  0  0  0  0  0
    9.7619    1.2990    0.0000 O   0  0  0  0  0  0  0  0  0  0  0  0
    6.2619    2.1651    0.0000 N   0  0  3  0  0  0  0  0  0  0  0  0
    8.2619    0.4330    0.0000 N   0  0  0  0  0  0  0  0  0  0  0  0
    9.7619   -0.4330    0.0000 N   0  0  0  0  0  0  0  0  0  0  0  0
   10.7619   -0.4330    0.0000 N   0  0  0  0  0  0  0  0  0  0  0  0
    5.2619    2.1651    0.0000 C   0  0  0  0  0  0  0  0  0  0  0  0
    4.6783    1.3603    0.0000 C   0  0  0  0  0  0  0  0  0  0  0  0
    4.6783    2.9698    0.0000 C   0  0  0  0  0  0  0  0  0  0  0  0
    3.7320    1.6651    0.0000 C   0  0  0  0  0  0  0  0  0  0  0  0
    3.7320    2.6651    0.0000 C   0  0  0  0  0  0  0  0  0  0  0  0
    6.7619    3.0311    0.0000 C   0  0  0  0  0  0  0  0  0  0  0  0
    6.7619    1.2990    0.0000 C   0  0  0  0  0  0  0  0  0  0  0  0
    2.8660    1.1651    0.0000 C   0  0  0  0  0  0  0  0  0  0  0  0
    2.8660    3.1651    0.0000 C   0  0  0  0  0  0  0  0  0  0  0  0
    7.7619    3.0311    0.0000 C   0  0  0  0  0  0  0  0  0  0  0  0
    7.7619    1.2990    0.0000 C   0  0  0  0  0  0  0  0  0  0  0  0
    2.0000    1.6651    0.0000 C   0  0  0  0  0  0  0  0  0  0  0  0
    2.0000    2.6651    0.0000 C   0  0  0  0  0  0  0  0  0  0  0  0
    8.2619    3.8971    0.0000 C   0  0  0  0  0  0  0  0  0  0  0  0
    9.2619    0.4330    0.0000 C   0  0  0  0  0  0  0  0  0  0  0  0
   11.2619   -1.2990    0.0000 C   0  0  0  0  0  0  0  0  0  0  0  0
   10.7619   -2.1651    0.0000 C   0  0  0  0  0  0  0  0  0  0  0  0
   12.2619   -1.2990    0.0000 C   0  0  0  0  0  0  0  0  0  0  0  0
   12.7619   -2.1651    0.0000 C   0  0  0  0  0  0  0  0  0  0  0  0
   11.2619   -3.0311    0.0000 C   0  0  0  0  0  0  0  0  0  0  0  0
   12.2619   -3.0311    0.0000 C   0  0  0  0  0  0  0  0  0  0  0  0
    5.5436    2.7174    0.0000 H   0  0  0  0  0  0  0  0  0  0  0  0
    4.4272    0.7934    0.0000 H   0  0  0  0  0  0  0  0  0  0  0  0
    5.2156    1.0511    0.0000 H   0  0  0  0  0  0  0  0  0  0  0  0
    5.2156    3.2790    0.0000 H   0  0  0  0  0  0  0  0  0  0  0  0
    4.4272    3.5367    0.0000 H   0  0  0  0  0  0  0  0  0  0  0  0
    6.8695    3.6417    0.0000 H   0  0  0  0  0  0  0  0  0  0  0  0
    6.1793    3.2431    0.0000 H   0  0  0  0  0  0  0  0  0  0  0  0
    6.1793    1.0870    0.0000 H   0  0  0  0  0  0  0  0  0  0  0  0
    6.8695    0.6885    0.0000 H   0  0  0  0  0  0  0  0  0  0  0  0
    2.8660    0.5451    0.0000 H   0  0  0  0  0  0  0  0  0  0  0  0
    2.8660    3.7851    0.0000 H   0  0  0  0  0  0  0  0  0  0  0  0
    7.6542    2.4205    0.0000 H   0  0  0  0  0  0  0  0  0  0  0  0
    8.3445    2.8190    0.0000 H   0  0  0  0  0  0  0  0  0  0  0  0
    8.3445    1.5111    0.0000 H   0  0  0  0  0  0  0  0  0  0  0  0
    7.6542    1.9096    0.0000 H   0  0  0  0  0  0  0  0  0  0  0  0
    1.4631    1.3551    0.0000 H   0  0  0  0  0  0  0  0  0  0  0  0
    1.4631    2.9751    0.0000 H   0  0  0  0  0  0  0  0  0  0  0  0
    8.7988    3.5871    0.0000 H   0  0  0  0  0  0  0  0  0  0  0  0
    8.5719    4.4340    0.0000 H   0  0  0  0  0  0  0  0  0  0  0  0
    7.7249    4.2071    0.0000 H   0  0  0  0  0  0  0  0  0  0  0  0
    7.9519   -0.1039    0.0000 H   0  0  0  0  0  0  0  0  0  0  0  0
   10.1419   -2.1651    0.0000 H   0  0  0  0  0  0  0  0  0  0  0  0
   12.5719   -0.7621    0.0000 H   0  0  0  0  0  0  0  0  0  0  0  0
  1 27  1  0  0  0  0
  2 28  1  0  0  0  0
  3 29  1  0  0  0  0
  4 23  2  0  0  0  0
  5  9  1  0  0  0  0
  5 14  1  0  0  0  0
  5 15  1  0  0  0  0
  6 19  1  0  0  0  0
  6 23  1  0  0  0  0
  6 50  1  0  0  0  0
  7  8  2  0  0  0  0
  7 23  1  0  0  0  0
  8 24  1  0  0  0  0
  9 10  1  0  0  0  0
  9 11  1  0  0  0  0
  9 30  1  0  0  0  0
 10 12  1  0  0  0  0
 10 31  1  0  0  0  0
 10 32  1  0  0  0  0
 11 13  1  0  0  0  0
 11 33  1  0  0  0  0
 11 34  1  0  0  0  0
 12 13  1  0  0  0  0
 12 16  2  0  0  0  0
 13 17  2  0  0  0  0
 14 18  1  0  0  0  0
 14 35  1  0  0  0  0
 14 36  1  0  0  0  0
 15 19  1  0  0  0  0
 15 37  1  0  0  0  0
 15 38  1  0  0  0  0
 16 20  1  0  0  0  0
 16 39  1  0  0  0  0
 17 21  1  0  0  0  0
 17 40  1  0  0  0  0
 18 22  1  0  0  0  0
 18 41  1  0  0  0  0
 18 42  1  0  0  0  0
 19 43  1  0  0  0  0
 19 44  1  0  0  0  0
 20 21  2  0  0  0  0
 20 45  1  0  0  0  0
 21 46  1  0  0  0  0
 22 47  1  0  0  0  0
 22 48  1  0  0  0  0
 22 49  1  0  0  0  0
 24 25  2  0  0  0  0
 24 26  1  0  0  0  0
 25 28  1  0  0  0  0
 25 51  1  0  0  0  0
 26 27  2  0  0  0  0
 26 52  1  0  0  0  0
 27 29  1  0  0  0  0
 28 29  2  0  0  0  0
M  END
> <PUBCHEM_COMPOUND_CID>
122180956

> <PUBCHEM_COMPOUND_CANONICALIZED>
1

> <PUBCHEM_CACTVS_COMPLEXITY>
538

> <PUBCHEM_CACTVS_HBOND_ACCEPTOR>
6

> <PUBCHEM_CACTVS_HBOND_DONOR>
1

> <PUBCHEM_CACTVS_ROTATABLE_BOND>
7

> <PUBCHEM_CACTVS_SUBSKEYS>
AAADceB7oYAAAAAAAAAAAAAAAAAAAYAAAAAwYAAAAAAAAGABQAAAHwAYAAAADCjBGAwzwIPAAACKAiRCUACCAAAgAgAIiIAIZIiIYCKAkZGUIABglgKIyAcQgIAOgAAAAAAQAAAAAAAAACAAACAACAAAAA==

> <PUBCHEM_IUPAC_OPENEYE_NAME>
1-[2-[indan-2-yl(propyl)amino]ethyl]-3-(3,4,5-trifluorophenyl)imino-urea

> <PUBCHEM_IUPAC_CAS_NAME>
1-[2-[2,3-dihydro-1H-inden-2-yl(propyl)amino]ethyl]-3-(3,4,5-trifluorophenyl)iminourea

> <PUBCHEM_IUPAC_NAME_MARKUP>
1-[2-[2,3-dihydro-1<I>H</I>-inden-2-yl(propyl)amino]ethyl]-3-(3,4,5-trifluorophenyl)iminourea

> <PUBCHEM_IUPAC_NAME>
1-[2-[2,3-dihydro-1H-inden-2-yl(propyl)amino]ethyl]-3-(3,4,5-trifluorophenyl)iminourea

> <PUBCHEM_IUPAC_SYSTEMATIC_NAME>
1-[2-[2,3-dihydro-1H-inden-2-yl(propyl)amino]ethyl]-3-[3,4,5-tris(fluoranyl)phenyl]imino-urea

> <PUBCHEM_IUPAC_TRADITIONAL_NAME>
1-[2-[indan-2-yl(propyl)amino]ethyl]-3-(3,4,5-trifluorophenyl)imino-urea

> <PUBCHEM_IUPAC_INCHI>
InChI=1S/C21H23F3N4O/c1-2-8-28(17-10-14-5-3-4-6-15(14)11-17)9-7-25-21(29)27-26-16-12-18(22)20(24)19(23)13-16/h3-6,12-13,17H,2,7-11H2,1H3,(H,25,29)

> <PUBCHEM_IUPAC_INCHIKEY>
WWZCKJOSLFFMMU-UHFFFAOYSA-N

> <PUBCHEM_XLOGP3_AA>
5

> <PUBCHEM_EXACT_MASS>
404.18239586

> <PUBCHEM_MOLECULAR_FORMULA>
C21H23F3N4O

> <PUBCHEM_MOLECULAR_WEIGHT>
404.4

> <PUBCHEM_OPENEYE_CAN_SMILES>
CCCN(CCNC(=O)N=NC1=CC(=C(C(=C1)F)F)F)C2CC3=CC=CC=C3C2

> <PUBCHEM_OPENEYE_ISO_SMILES>
CCCN(CCNC(=O)N=NC1=CC(=C(C(=C1)F)F)F)C2CC3=CC=CC=C3C2

> <PUBCHEM_CACTVS_TPSA>
57.1

> <PUBCHEM_MONOISOTOPIC_WEIGHT>
404.18239586

> <PUBCHEM_TOTAL_CHARGE>
0

> <PUBCHEM_HEAVY_ATOM_COUNT>
29

> <PUBCHEM_ATOM_DEF_STEREO_COUNT>
0

> <PUBCHEM_ATOM_UDEF_STEREO_COUNT>
0

> <PUBCHEM_BOND_DEF_STEREO_COUNT>
0

> <PUBCHEM_BOND_UDEF_STEREO_COUNT>
0

> <PUBCHEM_ISOTOPIC_ATOM_COUNT>
0

> <PUBCHEM_COMPONENT_COUNT>
1

> <PUBCHEM_CACTVS_TAUTO_COUNT>
-1

> <PUBCHEM_COORDINATE_TYPE>
1
5
255

> <PUBCHEM_BONDANNOTATIONS>
12  13  8
12  16  8
13  17  8
16  20  8
17  21  8
20  21  8
24  25  8
24  26  8
25  28  8
26  27  8
27  29  8
28  29  8

$$$$
