137652312
  -OEChem-09292322472D

 67 71  0     0  0  0  0  0  0999 V2000
    4.6701   -2.4648    0.0000 S   0  0  0  0  0  0  0  0  0  0  0  0
    6.4021    0.5352    0.0000 N   0  0  0  0  0  0  0  0  0  0  0  0
    6.4021    4.5352    0.0000 N   0  0  0  0  0  0  0  0  0  0  0  0
    7.2682    6.0352    0.0000 N   0  0  0  0  0  0  0  0  0  0  0  0
    3.8611   -4.0526    0.0000 N   0  0  0  0  0  0  0  0  0  0  0  0
    5.4791   -4.0526    0.0000 N   0  0  0  0  0  0  0  0  0  0  0  0
    5.1701   -5.0036    0.0000 N   0  0  0  0  0  0  0  0  0  0  0  0
    6.4021    2.5352    0.0000 C   0  0  0  0  0  0  0  0  0  0  0  0
    5.5361    2.0352    0.0000 C   0  0  0  0  0  0  0  0  0  0  0  0
    7.2682    2.0352    0.0000 C   0  0  0  0  0  0  0  0  0  0  0  0
    5.5361    3.0352    0.0000 C   0  0  0  0  0  0  0  0  0  0  0  0
    7.2682    3.0352    0.0000 C   0  0  0  0  0  0  0  0  0  0  0  0
    5.5361    1.0352    0.0000 C   0  0  0  0  0  0  0  0  0  0  0  0
    7.2682    1.0352    0.0000 C   0  0  0  0  0  0  0  0  0  0  0  0
    5.5361    4.0352    0.0000 C   0  0  0  0  0  0  0  0  0  0  0  0
    7.2682    4.0352    0.0000 C   0  0  0  0  0  0  0  0  0  0  0  0
    6.4021   -0.4648    0.0000 C   0  0  0  0  0  0  0  0  0  0  0  0
    6.4021    5.5352    0.0000 C   0  0  0  0  0  0  0  0  0  0  0  0
    5.5361   -0.9648    0.0000 C   0  0  0  0  0  0  0  0  0  0  0  0
    5.5361   -1.9648    0.0000 C   0  0  0  0  0  0  0  0  0  0  0  0
    5.5361    6.0352    0.0000 C   0  0  0  0  0  0  0  0  0  0  0  0
    5.5361    7.0352    0.0000 C   0  0  0  0  0  0  0  0  0  0  0  0
    7.2682    7.0352    0.0000 C   0  0  0  0  0  0  0  0  0  0  0  0
    6.4021    7.5352    0.0000 C   0  0  0  0  0  0  0  0  0  0  0  0
    4.6701   -3.4648    0.0000 C   0  0  0  0  0  0  0  0  0  0  0  0
    4.1701   -5.0036    0.0000 C   0  0  0  0  0  0  0  0  0  0  0  0
    2.9100   -3.7436    0.0000 C   0  0  0  0  0  0  0  0  0  0  0  0
    3.5823   -5.8126    0.0000 C   0  0  0  0  0  0  0  0  0  0  0  0
    3.9890   -6.7262    0.0000 C   0  0  0  0  0  0  0  0  0  0  0  0
    2.5878   -5.7081    0.0000 C   0  0  0  0  0  0  0  0  0  0  0  0
    3.4013   -7.5352    0.0000 C   0  0  0  0  0  0  0  0  0  0  0  0
    2.0000   -6.5171    0.0000 C   0  0  0  0  0  0  0  0  0  0  0  0
    2.4067   -7.4307    0.0000 C   0  0  0  0  0  0  0  0  0  0  0  0
    5.3241    2.6178    0.0000 H   0  0  0  0  0  0  0  0  0  0  0  0
    4.9255    1.9276    0.0000 H   0  0  0  0  0  0  0  0  0  0  0  0
    7.8788    1.9276    0.0000 H   0  0  0  0  0  0  0  0  0  0  0  0
    7.4802    2.6178    0.0000 H   0  0  0  0  0  0  0  0  0  0  0  0
    4.9255    3.1429    0.0000 H   0  0  0  0  0  0  0  0  0  0  0  0
    5.3241    2.4526    0.0000 H   0  0  0  0  0  0  0  0  0  0  0  0
    7.4802    2.4526    0.0000 H   0  0  0  0  0  0  0  0  0  0  0  0
    7.8788    3.1429    0.0000 H   0  0  0  0  0  0  0  0  0  0  0  0
    4.9255    1.1429    0.0000 H   0  0  0  0  0  0  0  0  0  0  0  0
    5.3241    0.4526    0.0000 H   0  0  0  0  0  0  0  0  0  0  0  0
    7.4802    0.4526    0.0000 H   0  0  0  0  0  0  0  0  0  0  0  0
    7.8788    1.1429    0.0000 H   0  0  0  0  0  0  0  0  0  0  0  0
    5.3241    4.6178    0.0000 H   0  0  0  0  0  0  0  0  0  0  0  0
    4.9255    3.9276    0.0000 H   0  0  0  0  0  0  0  0  0  0  0  0
    7.8788    3.9276    0.0000 H   0  0  0  0  0  0  0  0  0  0  0  0
    7.4802    4.6178    0.0000 H   0  0  0  0  0  0  0  0  0  0  0  0
    6.6142   -1.0474    0.0000 H   0  0  0  0  0  0  0  0  0  0  0  0
    7.0127   -0.3571    0.0000 H   0  0  0  0  0  0  0  0  0  0  0  0
    5.3241   -0.3822    0.0000 H   0  0  0  0  0  0  0  0  0  0  0  0
    4.9255   -1.0724    0.0000 H   0  0  0  0  0  0  0  0  0  0  0  0
    5.7482   -2.5474    0.0000 H   0  0  0  0  0  0  0  0  0  0  0  0
    6.1467   -1.8571    0.0000 H   0  0  0  0  0  0  0  0  0  0  0  0
    4.9992    5.7252    0.0000 H   0  0  0  0  0  0  0  0  0  0  0  0
    4.9992    7.3452    0.0000 H   0  0  0  0  0  0  0  0  0  0  0  0
    7.8051    7.3452    0.0000 H   0  0  0  0  0  0  0  0  0  0  0  0
    6.4021    8.1552    0.0000 H   0  0  0  0  0  0  0  0  0  0  0  0
    3.1016   -3.1539    0.0000 H   0  0  0  0  0  0  0  0  0  0  0  0
    2.3204   -3.5520    0.0000 H   0  0  0  0  0  0  0  0  0  0  0  0
    2.7184   -4.3332    0.0000 H   0  0  0  0  0  0  0  0  0  0  0  0
    4.6056   -6.7910    0.0000 H   0  0  0  0  0  0  0  0  0  0  0  0
    2.3356   -5.1417    0.0000 H   0  0  0  0  0  0  0  0  0  0  0  0
    3.6534   -8.1016    0.0000 H   0  0  0  0  0  0  0  0  0  0  0  0
    1.3834   -6.4523    0.0000 H   0  0  0  0  0  0  0  0  0  0  0  0
    2.0423   -7.9323    0.0000 H   0  0  0  0  0  0  0  0  0  0  0  0
  1 20  1  0  0  0  0
  1 25  1  0  0  0  0
  2 13  1  0  0  0  0
  2 14  1  0  0  0  0
  2 17  1  0  0  0  0
  3 15  1  0  0  0  0
  3 16  1  0  0  0  0
  3 18  1  0  0  0  0
  4 18  1  0  0  0  0
  4 23  2  0  0  0  0
  5 25  1  0  0  0  0
  5 26  1  0  0  0  0
  5 27  1  0  0  0  0
  6  7  1  0  0  0  0
  6 25  2  0  0  0  0
  7 26  2  0  0  0  0
  8  9  1  0  0  0  0
  8 10  1  0  0  0  0
  8 11  1  0  0  0  0
  8 12  1  0  0  0  0
  9 13  1  0  0  0  0
  9 34  1  0  0  0  0
  9 35  1  0  0  0  0
 10 14  1  0  0  0  0
 10 36  1  0  0  0  0
 10 37  1  0  0  0  0
 11 15  1  0  0  0  0
 11 38  1  0  0  0  0
 11 39  1  0  0  0  0
 12 16  1  0  0  0  0
 12 40  1  0  0  0  0
 12 41  1  0  0  0  0
 13 42  1  0  0  0  0
 13 43  1  0  0  0  0
 14 44  1  0  0  0  0
 14 45  1  0  0  0  0
 15 46  1  0  0  0  0
 15 47  1  0  0  0  0
 16 48  1  0  0  0  0
 16 49  1  0  0  0  0
 17 19  1  0  0  0  0
 17 50  1  0  0  0  0
 17 51  1  0  0  0  0
 18 21  2  0  0  0  0
 19 20  1  0  0  0  0
 19 52  1  0  0  0  0
 19 53  1  0  0  0  0
 20 54  1  0  0  0  0
 20 55  1  0  0  0  0
 21 22  1  0  0  0  0
 21 56  1  0  0  0  0
 22 24  2  0  0  0  0
 22 57  1  0  0  0  0
 23 24  1  0  0  0  0
 23 58  1  0  0  0  0
 24 59  1  0  0  0  0
 26 28  1  0  0  0  0
 27 60  1  0  0  0  0
 27 61  1  0  0  0  0
 27 62  1  0  0  0  0
 28 29  2  0  0  0  0
 28 30  1  0  0  0  0
 29 31  1  0  0  0  0
 29 63  1  0  0  0  0
 30 32  2  0  0  0  0
 30 64  1  0  0  0  0
 31 33  2  0  0  0  0
 31 65  1  0  0  0  0
 32 33  1  0  0  0  0
 32 66  1  0  0  0  0
 33 67  1  0  0  0  0
M  END
> <PUBCHEM_COMPOUND_CID>
137652312

> <PUBCHEM_COMPOUND_CANONICALIZED>
1

> <PUBCHEM_CACTVS_COMPLEXITY>
581

> <PUBCHEM_CACTVS_HBOND_ACCEPTOR>
6

> <PUBCHEM_CACTVS_HBOND_DONOR>
0

> <PUBCHEM_CACTVS_ROTATABLE_BOND>
7

> <PUBCHEM_CACTVS_SUBSKEYS>
AAADcfB7gABAAAAAAAAAAAAAAAAAAWAAAAA8WLEAAAAAAAAB8AAAHAQIAAAADgDFWwS/sJcMEAiiAjJnZACS0CtxArAd2CA4ZJiIKOLgmZGEIAhoiALIyCcQgAAPAAAAAAAAAAAAAAAAAAAAAAAAAAAAAA==

> <PUBCHEM_IUPAC_OPENEYE_NAME>
9-[3-[(4-methyl-5-phenyl-1,2,4-triazol-3-yl)sulfanyl]propyl]-3-(2-pyridyl)-3,9-diazaspiro[5.5]undecane

> <PUBCHEM_IUPAC_CAS_NAME>
9-[3-[(4-methyl-5-phenyl-1,2,4-triazol-3-yl)thio]propyl]-3-(2-pyridinyl)-3,9-diazaspiro[5.5]undecane

> <PUBCHEM_IUPAC_NAME_MARKUP>
9-[3-[(4-methyl-5-phenyl-1,2,4-triazol-3-yl)sulfanyl]propyl]-3-pyridin-2-yl-3,9-diazaspiro[5.5]undecane

> <PUBCHEM_IUPAC_NAME>
9-[3-[(4-methyl-5-phenyl-1,2,4-triazol-3-yl)sulfanyl]propyl]-3-pyridin-2-yl-3,9-diazaspiro[5.5]undecane

> <PUBCHEM_IUPAC_SYSTEMATIC_NAME>
9-[3-[(4-methyl-5-phenyl-1,2,4-triazol-3-yl)sulfanyl]propyl]-3-pyridin-2-yl-3,9-diazaspiro[5.5]undecane

> <PUBCHEM_IUPAC_TRADITIONAL_NAME>
9-[3-[(4-methyl-5-phenyl-1,2,4-triazol-3-yl)thio]propyl]-3-(2-pyridyl)-3,9-diazaspiro[5.5]undecane

> <PUBCHEM_IUPAC_INCHI>
InChI=1S/C26H34N6S/c1-30-24(22-8-3-2-4-9-22)28-29-25(30)33-21-7-16-31-17-11-26(12-18-31)13-19-32(20-14-26)23-10-5-6-15-27-23/h2-6,8-10,15H,7,11-14,16-21H2,1H3

> <PUBCHEM_IUPAC_INCHIKEY>
LNZYQGOEJQNILH-UHFFFAOYSA-N

> <PUBCHEM_XLOGP3_AA>
4.5

> <PUBCHEM_EXACT_MASS>
462.25656628

> <PUBCHEM_MOLECULAR_FORMULA>
C26H34N6S

> <PUBCHEM_MOLECULAR_WEIGHT>
462.7

> <PUBCHEM_OPENEYE_CAN_SMILES>
CN1C(=NN=C1SCCCN2CCC3(CC2)CCN(CC3)C4=CC=CC=N4)C5=CC=CC=C5

> <PUBCHEM_OPENEYE_ISO_SMILES>
CN1C(=NN=C1SCCCN2CCC3(CC2)CCN(CC3)C4=CC=CC=N4)C5=CC=CC=C5

> <PUBCHEM_CACTVS_TPSA>
75.4

> <PUBCHEM_MONOISOTOPIC_WEIGHT>
462.25656628

> <PUBCHEM_TOTAL_CHARGE>
0

> <PUBCHEM_HEAVY_ATOM_COUNT>
33

> <PUBCHEM_ATOM_DEF_STEREO_COUNT>
0

> <PUBCHEM_ATOM_UDEF_STEREO_COUNT>
0

> <PUBCHEM_BOND_DEF_STEREO_COUNT>
0

> <PUBCHEM_BOND_UDEF_STEREO_COUNT>
0

> <PUBCHEM_ISOTOPIC_ATOM_COUNT>
0

> <PUBCHEM_COMPONENT_COUNT>
1

> <PUBCHEM_CACTVS_TAUTO_COUNT>
-1

> <PUBCHEM_COORDINATE_TYPE>
1
5
255

> <PUBCHEM_BONDANNOTATIONS>
18  21  8
21  22  8
22  24  8
23  24  8
28  29  8
28  30  8
29  31  8
30  32  8
31  33  8
32  33  8
4  18  8
4  23  8
5  25  8
5  26  8
6  25  8
6  7  8
7  26  8

$$$$
