11809382
  -OEChem-09292322342D

 48 51  0     0  0  0  0  0  0999 V2000
    6.3301    1.0530    0.0000 N   0  0  0  0  0  0  0  0  0  0  0  0
    4.5981    0.0530    0.0000 N   0  0  0  0  0  0  0  0  0  0  0  0
   12.4725    1.3577    0.0000 N   0  0  0  0  0  0  0  0  0  0  0  0
   12.4725   -0.2518    0.0000 N   0  0  0  0  0  0  0  0  0  0  0  0
    6.3301    0.0530    0.0000 C   0  0  0  0  0  0  0  0  0  0  0  0
    5.4641    1.5530    0.0000 C   0  0  0  0  0  0  0  0  0  0  0  0
    5.4641   -0.4470    0.0000 C   0  0  0  0  0  0  0  0  0  0  0  0
    4.5981    1.0530    0.0000 C   0  0  0  0  0  0  0  0  0  0  0  0
    7.1962    1.5530    0.0000 C   0  0  0  0  0  0  0  0  0  0  0  0
    8.0622    1.0530    0.0000 C   0  0  0  0  0  0  0  0  0  0  0  0
    8.9282    1.5530    0.0000 C   0  0  0  0  0  0  0  0  0  0  0  0
    3.7320   -0.4470    0.0000 C   0  0  0  0  0  0  0  0  0  0  0  0
    9.7942    1.0530    0.0000 C   0  0  0  0  0  0  0  0  0  0  0  0
    2.8660    0.0530    0.0000 C   0  0  0  0  0  0  0  0  0  0  0  0
    3.7320   -1.4470    0.0000 C   0  0  0  0  0  0  0  0  0  0  0  0
   10.6603    1.5530    0.0000 C   0  0  0  0  0  0  0  0  0  0  0  0
    9.7942    0.0530    0.0000 C   0  0  0  0  0  0  0  0  0  0  0  0
   11.5263    1.0530    0.0000 C   0  0  0  0  0  0  0  0  0  0  0  0
    2.0000   -0.4470    0.0000 C   0  0  0  0  0  0  0  0  0  0  0  0
    2.8660   -1.9470    0.0000 C   0  0  0  0  0  0  0  0  0  0  0  0
   11.5263    0.0530    0.0000 C   0  0  0  0  0  0  0  0  0  0  0  0
   10.6603   -0.4470    0.0000 C   0  0  0  0  0  0  0  0  0  0  0  0
    2.0000   -1.4470    0.0000 C   0  0  0  0  0  0  0  0  0  0  0  0
   13.0561    0.5530    0.0000 C   0  0  0  0  0  0  0  0  0  0  0  0
    6.5422   -0.5296    0.0000 H   0  0  0  0  0  0  0  0  0  0  0  0
    6.9407    0.1606    0.0000 H   0  0  0  0  0  0  0  0  0  0  0  0
    5.8626    2.0279    0.0000 H   0  0  0  0  0  0  0  0  0  0  0  0
    5.0656    2.0279    0.0000 H   0  0  0  0  0  0  0  0  0  0  0  0
    5.0656   -0.9220    0.0000 H   0  0  0  0  0  0  0  0  0  0  0  0
    5.8626   -0.9220    0.0000 H   0  0  0  0  0  0  0  0  0  0  0  0
    4.3860    1.6356    0.0000 H   0  0  0  0  0  0  0  0  0  0  0  0
    3.9875    0.9453    0.0000 H   0  0  0  0  0  0  0  0  0  0  0  0
    7.5947    2.0279    0.0000 H   0  0  0  0  0  0  0  0  0  0  0  0
    6.7976    2.0279    0.0000 H   0  0  0  0  0  0  0  0  0  0  0  0
    7.6636    0.5780    0.0000 H   0  0  0  0  0  0  0  0  0  0  0  0
    8.4607    0.5780    0.0000 H   0  0  0  0  0  0  0  0  0  0  0  0
    9.3267    2.0279    0.0000 H   0  0  0  0  0  0  0  0  0  0  0  0
    8.5297    2.0279    0.0000 H   0  0  0  0  0  0  0  0  0  0  0  0
    2.8660    0.6730    0.0000 H   0  0  0  0  0  0  0  0  0  0  0  0
    4.2690   -1.7570    0.0000 H   0  0  0  0  0  0  0  0  0  0  0  0
   10.6603    2.1730    0.0000 H   0  0  0  0  0  0  0  0  0  0  0  0
    9.2573   -0.2570    0.0000 H   0  0  0  0  0  0  0  0  0  0  0  0
    1.4631   -0.1370    0.0000 H   0  0  0  0  0  0  0  0  0  0  0  0
    2.8660   -2.5670    0.0000 H   0  0  0  0  0  0  0  0  0  0  0  0
   10.6603   -1.0670    0.0000 H   0  0  0  0  0  0  0  0  0  0  0  0
    1.4631   -1.7570    0.0000 H   0  0  0  0  0  0  0  0  0  0  0  0
   12.6651    1.9470    0.0000 H   0  0  0  0  0  0  0  0  0  0  0  0
   13.6761    0.5530    0.0000 H   0  0  0  0  0  0  0  0  0  0  0  0
  1  5  1  0  0  0  0
  1  6  1  0  0  0  0
  1  9  1  0  0  0  0
  2  7  1  0  0  0  0
  2  8  1  0  0  0  0
  2 12  1  0  0  0  0
  3 18  1  0  0  0  0
  3 24  1  0  0  0  0
  3 47  1  0  0  0  0
  4 21  1  0  0  0  0
  4 24  2  0  0  0  0
  5  7  1  0  0  0  0
  5 25  1  0  0  0  0
  5 26  1  0  0  0  0
  6  8  1  0  0  0  0
  6 27  1  0  0  0  0
  6 28  1  0  0  0  0
  7 29  1  0  0  0  0
  7 30  1  0  0  0  0
  8 31  1  0  0  0  0
  8 32  1  0  0  0  0
  9 10  1  0  0  0  0
  9 33  1  0  0  0  0
  9 34  1  0  0  0  0
 10 11  1  0  0  0  0
 10 35  1  0  0  0  0
 10 36  1  0  0  0  0
 11 13  1  0  0  0  0
 11 37  1  0  0  0  0
 11 38  1  0  0  0  0
 12 14  2  0  0  0  0
 12 15  1  0  0  0  0
 13 16  2  0  0  0  0
 13 17  1  0  0  0  0
 14 19  1  0  0  0  0
 14 39  1  0  0  0  0
 15 20  2  0  0  0  0
 15 40  1  0  0  0  0
 16 18  1  0  0  0  0
 16 41  1  0  0  0  0
 17 22  2  0  0  0  0
 17 42  1  0  0  0  0
 18 21  2  0  0  0  0
 19 23  2  0  0  0  0
 19 43  1  0  0  0  0
 20 23  1  0  0  0  0
 20 44  1  0  0  0  0
 21 22  1  0  0  0  0
 22 45  1  0  0  0  0
 23 46  1  0  0  0  0
 24 48  1  0  0  0  0
M  END
> <PUBCHEM_COMPOUND_CID>
11809382

> <PUBCHEM_COMPOUND_CANONICALIZED>
1

> <PUBCHEM_CACTVS_COMPLEXITY>
374

> <PUBCHEM_CACTVS_HBOND_ACCEPTOR>
3

> <PUBCHEM_CACTVS_HBOND_DONOR>
1

> <PUBCHEM_CACTVS_ROTATABLE_BOND>
5

> <PUBCHEM_CACTVS_SUBSKEYS>
AAADceB7gAAAAAAAAAAAAAAAAAAAAWAAAAA8YIAAAAAAAFgB9AAAHAAQAAAADAjBHgQ10LfJkACgAyRjZACCgC2xEqAJ2aA4dJiIaKLAmZGUIAhokALIyCcQgIAOCAAAQAAAACAQAACAAAAAQAAAAAAAAA==

> <PUBCHEM_IUPAC_OPENEYE_NAME>
6-[3-(4-phenylpiperazin-1-yl)propyl]-1H-benzimidazole

> <PUBCHEM_IUPAC_CAS_NAME>
6-[3-(4-phenyl-1-piperazinyl)propyl]-1H-benzimidazole

> <PUBCHEM_IUPAC_NAME_MARKUP>
6-[3-(4-phenylpiperazin-1-yl)propyl]-1<I>H</I>-benzimidazole

> <PUBCHEM_IUPAC_NAME>
6-[3-(4-phenylpiperazin-1-yl)propyl]-1H-benzimidazole

> <PUBCHEM_IUPAC_SYSTEMATIC_NAME>
6-[3-(4-phenylpiperazin-1-yl)propyl]-1H-benzimidazole

> <PUBCHEM_IUPAC_TRADITIONAL_NAME>
6-[3-(4-phenylpiperazino)propyl]-1H-benzimidazole

> <PUBCHEM_IUPAC_INCHI>
InChI=1S/C20H24N4/c1-2-6-18(7-3-1)24-13-11-23(12-14-24)10-4-5-17-8-9-19-20(15-17)22-16-21-19/h1-3,6-9,15-16H,4-5,10-14H2,(H,21,22)

> <PUBCHEM_IUPAC_INCHIKEY>
NXACGFFPVFDPGP-UHFFFAOYSA-N

> <PUBCHEM_XLOGP3_AA>
3.7

> <PUBCHEM_EXACT_MASS>
320.20009678

> <PUBCHEM_MOLECULAR_FORMULA>
C20H24N4

> <PUBCHEM_MOLECULAR_WEIGHT>
320.4

> <PUBCHEM_OPENEYE_CAN_SMILES>
C1CN(CCN1CCCC2=CC3=C(C=C2)N=CN3)C4=CC=CC=C4

> <PUBCHEM_OPENEYE_ISO_SMILES>
C1CN(CCN1CCCC2=CC3=C(C=C2)N=CN3)C4=CC=CC=C4

> <PUBCHEM_CACTVS_TPSA>
35.2

> <PUBCHEM_MONOISOTOPIC_WEIGHT>
320.20009678

> <PUBCHEM_TOTAL_CHARGE>
0

> <PUBCHEM_HEAVY_ATOM_COUNT>
24

> <PUBCHEM_ATOM_DEF_STEREO_COUNT>
0

> <PUBCHEM_ATOM_UDEF_STEREO_COUNT>
0

> <PUBCHEM_BOND_DEF_STEREO_COUNT>
0

> <PUBCHEM_BOND_UDEF_STEREO_COUNT>
0

> <PUBCHEM_ISOTOPIC_ATOM_COUNT>
0

> <PUBCHEM_COMPONENT_COUNT>
1

> <PUBCHEM_CACTVS_TAUTO_COUNT>
-1

> <PUBCHEM_COORDINATE_TYPE>
1
5
255

> <PUBCHEM_BONDANNOTATIONS>
12  14  8
12  15  8
13  16  8
13  17  8
14  19  8
15  20  8
16  18  8
17  22  8
18  21  8
19  23  8
20  23  8
21  22  8
3  18  8
3  24  8
4  21  8
4  24  8

$$$$
