44425711
  -OEChem-09292322242D

 52 55  0     1  0  0  0  0  0999 V2000
    7.8547   -4.9744    0.0000 Br  0  0  0  0  0  0  0  0  0  0  0  0
    7.8239    5.0738    0.0000 Cl  0  0  0  0  0  0  0  0  0  0  0  0
    7.8509   -1.9262    0.0000 S   0  0  0  0  0  0  0  0  0  0  0  0
    8.8509   -1.9223    0.0000 O   0  0  0  0  0  0  0  0  0  0  0  0
    6.8509   -1.9300    0.0000 O   0  0  0  0  0  0  0  0  0  0  0  0
    3.0000   -3.9503    0.0000 N   0  0  3  0  0  0  0  0  0  0  0  0
    7.8547   -2.9261    0.0000 N   0  0  0  0  0  0  0  0  0  0  0  0
    4.4088   -2.8268    0.0000 C   0  0  0  0  0  0  0  0  0  0  0  0
    4.4088   -5.0738    0.0000 C   0  0  0  0  0  0  0  0  0  0  0  0
    3.4339   -3.0493    0.0000 C   0  0  0  0  0  0  0  0  0  0  0  0
    3.4339   -4.8513    0.0000 C   0  0  0  0  0  0  0  0  0  0  0  0
    5.1906   -3.4503    0.0000 C   0  0  0  0  0  0  0  0  0  0  0  0
    5.1906   -4.4503    0.0000 C   0  0  0  0  0  0  0  0  0  0  0  0
    6.0846   -2.9156    0.0000 C   0  0  0  0  0  0  0  0  0  0  0  0
    6.0846   -4.9850    0.0000 C   0  0  0  0  0  0  0  0  0  0  0  0
    6.9906   -3.4295    0.0000 C   0  0  0  0  0  0  0  0  0  0  0  0
    2.0000   -3.9503    0.0000 C   0  0  0  0  0  0  0  0  0  0  0  0
    6.9906   -4.4711    0.0000 C   0  0  0  0  0  0  0  0  0  0  0  0
    7.8470   -0.9262    0.0000 C   0  0  0  0  0  0  0  0  0  0  0  0
    6.9791   -0.4295    0.0000 C   0  0  0  0  0  0  0  0  0  0  0  0
    8.7111   -0.4228    0.0000 C   0  0  0  0  0  0  0  0  0  0  0  0
    7.8393    1.0738    0.0000 C   0  0  0  0  0  0  0  0  0  0  0  0
    6.9752    0.5705    0.0000 C   0  0  0  0  0  0  0  0  0  0  0  0
    8.7073    0.5772    0.0000 C   0  0  0  0  0  0  0  0  0  0  0  0
    7.8355    2.0738    0.0000 C   0  0  0  0  0  0  0  0  0  0  0  0
    8.6996    2.5772    0.0000 C   0  0  0  0  0  0  0  0  0  0  0  0
    6.9675    2.5705    0.0000 C   0  0  0  0  0  0  0  0  0  0  0  0
    8.6957    3.5771    0.0000 C   0  0  0  0  0  0  0  0  0  0  0  0
    6.9637    3.5705    0.0000 C   0  0  0  0  0  0  0  0  0  0  0  0
    7.8278    4.0738    0.0000 C   0  0  0  0  0  0  0  0  0  0  0  0
    4.8936   -2.4402    0.0000 H   0  0  0  0  0  0  0  0  0  0  0  0
    4.1398   -2.2682    0.0000 H   0  0  0  0  0  0  0  0  0  0  0  0
    4.1398   -5.6324    0.0000 H   0  0  0  0  0  0  0  0  0  0  0  0
    4.8936   -5.4604    0.0000 H   0  0  0  0  0  0  0  0  0  0  0  0
    3.4339   -2.4293    0.0000 H   0  0  0  0  0  0  0  0  0  0  0  0
    2.8294   -2.9114    0.0000 H   0  0  0  0  0  0  0  0  0  0  0  0
    2.8294   -4.9892    0.0000 H   0  0  0  0  0  0  0  0  0  0  0  0
    3.4339   -5.4713    0.0000 H   0  0  0  0  0  0  0  0  0  0  0  0
    6.0774   -2.2957    0.0000 H   0  0  0  0  0  0  0  0  0  0  0  0
    6.0774   -5.6049    0.0000 H   0  0  0  0  0  0  0  0  0  0  0  0
    2.0000   -3.3303    0.0000 H   0  0  0  0  0  0  0  0  0  0  0  0
    1.3800   -3.9503    0.0000 H   0  0  0  0  0  0  0  0  0  0  0  0
    2.0000   -4.5703    0.0000 H   0  0  0  0  0  0  0  0  0  0  0  0
    8.3929   -3.2341    0.0000 H   0  0  0  0  0  0  0  0  0  0  0  0
    6.4434   -0.7416    0.0000 H   0  0  0  0  0  0  0  0  0  0  0  0
    9.2492   -0.7308    0.0000 H   0  0  0  0  0  0  0  0  0  0  0  0
    6.4371    0.8784    0.0000 H   0  0  0  0  0  0  0  0  0  0  0  0
    9.2430    0.8892    0.0000 H   0  0  0  0  0  0  0  0  0  0  0  0
    9.2377    2.2692    0.0000 H   0  0  0  0  0  0  0  0  0  0  0  0
    6.4318    2.2584    0.0000 H   0  0  0  0  0  0  0  0  0  0  0  0
    9.2314    3.8892    0.0000 H   0  0  0  0  0  0  0  0  0  0  0  0
    6.4255    3.8784    0.0000 H   0  0  0  0  0  0  0  0  0  0  0  0
  1 18  1  0  0  0  0
  2 30  1  0  0  0  0
  3  4  2  0  0  0  0
  3  5  2  0  0  0  0
  3  7  1  0  0  0  0
  3 19  1  0  0  0  0
  6 10  1  0  0  0  0
  6 11  1  0  0  0  0
  6 17  1  0  0  0  0
  7 16  1  0  0  0  0
  7 44  1  0  0  0  0
  8 10  1  0  0  0  0
  8 12  1  0  0  0  0
  8 31  1  0  0  0  0
  8 32  1  0  0  0  0
  9 11  1  0  0  0  0
  9 13  1  0  0  0  0
  9 33  1  0  0  0  0
  9 34  1  0  0  0  0
 10 35  1  0  0  0  0
 10 36  1  0  0  0  0
 11 37  1  0  0  0  0
 11 38  1  0  0  0  0
 12 13  1  0  0  0  0
 12 14  2  0  0  0  0
 13 15  2  0  0  0  0
 14 16  1  0  0  0  0
 14 39  1  0  0  0  0
 15 18  1  0  0  0  0
 15 40  1  0  0  0  0
 16 18  2  0  0  0  0
 17 41  1  0  0  0  0
 17 42  1  0  0  0  0
 17 43  1  0  0  0  0
 19 20  2  0  0  0  0
 19 21  1  0  0  0  0
 20 23  1  0  0  0  0
 20 45  1  0  0  0  0
 21 24  2  0  0  0  0
 21 46  1  0  0  0  0
 22 23  2  0  0  0  0
 22 24  1  0  0  0  0
 22 25  1  0  0  0  0
 23 47  1  0  0  0  0
 24 48  1  0  0  0  0
 25 26  2  0  0  0  0
 25 27  1  0  0  0  0
 26 28  1  0  0  0  0
 26 49  1  0  0  0  0
 27 29  2  0  0  0  0
 27 50  1  0  0  0  0
 28 30  2  0  0  0  0
 28 51  1  0  0  0  0
 29 30  1  0  0  0  0
 29 52  1  0  0  0  0
M  END
> <PUBCHEM_COMPOUND_CID>
44425711

> <PUBCHEM_COMPOUND_CANONICALIZED>
1

> <PUBCHEM_CACTVS_COMPLEXITY>
657

> <PUBCHEM_CACTVS_HBOND_ACCEPTOR>
4

> <PUBCHEM_CACTVS_HBOND_DONOR>
1

> <PUBCHEM_CACTVS_ROTATABLE_BOND>
4

> <PUBCHEM_CACTVS_SUBSKEYS>
AAADceB7MABEEAAAAAAAAAAAAAAAAAAAAAAwYMAABYAAAAABUAAAHAZQQAABrArBWCQywYNAAAKAAiRCQHDCABAgBwQIiBgIZqgIICKBk5GEIABgkACIyhcQgMAOngAAUAAQAAg8AACgACAAEAAAAAAAAA==

> <PUBCHEM_IUPAC_OPENEYE_NAME>
N-(7-bromo-3-methyl-1,2,4,5-tetrahydro-3-benzazepin-8-yl)-4-(4-chlorophenyl)benzenesulfonamide

> <PUBCHEM_IUPAC_CAS_NAME>
N-(7-bromo-3-methyl-1,2,4,5-tetrahydro-3-benzazepin-8-yl)-4-(4-chlorophenyl)benzenesulfonamide

> <PUBCHEM_IUPAC_NAME_MARKUP>
<I>N</I>-(7-bromo-3-methyl-1,2,4,5-tetrahydro-3-benzazepin-8-yl)-4-(4-chlorophenyl)benzenesulfonamide

> <PUBCHEM_IUPAC_NAME>
N-(7-bromo-3-methyl-1,2,4,5-tetrahydro-3-benzazepin-8-yl)-4-(4-chlorophenyl)benzenesulfonamide

> <PUBCHEM_IUPAC_SYSTEMATIC_NAME>
N-(7-bromanyl-3-methyl-1,2,4,5-tetrahydro-3-benzazepin-8-yl)-4-(4-chlorophenyl)benzenesulfonamide

> <PUBCHEM_IUPAC_TRADITIONAL_NAME>
N-(7-bromo-3-methyl-1,2,4,5-tetrahydro-3-benzazepin-8-yl)-4-(4-chlorophenyl)benzenesulfonamide

> <PUBCHEM_IUPAC_INCHI>
InChI=1S/C23H22BrClN2O2S/c1-27-12-10-18-14-22(24)23(15-19(18)11-13-27)26-30(28,29)21-8-4-17(5-9-21)16-2-6-20(25)7-3-16/h2-9,14-15,26H,10-13H2,1H3

> <PUBCHEM_IUPAC_INCHIKEY>
QKCWJUZPSFBAKW-UHFFFAOYSA-N

> <PUBCHEM_XLOGP3_AA>
5.7

> <PUBCHEM_EXACT_MASS>
504.02739

> <PUBCHEM_MOLECULAR_FORMULA>
C23H22BrClN2O2S

> <PUBCHEM_MOLECULAR_WEIGHT>
505.9

> <PUBCHEM_OPENEYE_CAN_SMILES>
CN1CCC2=CC(=C(C=C2CC1)Br)NS(=O)(=O)C3=CC=C(C=C3)C4=CC=C(C=C4)Cl

> <PUBCHEM_OPENEYE_ISO_SMILES>
CN1CCC2=CC(=C(C=C2CC1)Br)NS(=O)(=O)C3=CC=C(C=C3)C4=CC=C(C=C4)Cl

> <PUBCHEM_CACTVS_TPSA>
57.8

> <PUBCHEM_MONOISOTOPIC_WEIGHT>
504.02739

> <PUBCHEM_TOTAL_CHARGE>
0

> <PUBCHEM_HEAVY_ATOM_COUNT>
30

> <PUBCHEM_ATOM_DEF_STEREO_COUNT>
0

> <PUBCHEM_ATOM_UDEF_STEREO_COUNT>
0

> <PUBCHEM_BOND_DEF_STEREO_COUNT>
0

> <PUBCHEM_BOND_UDEF_STEREO_COUNT>
0

> <PUBCHEM_ISOTOPIC_ATOM_COUNT>
0

> <PUBCHEM_COMPONENT_COUNT>
1

> <PUBCHEM_CACTVS_TAUTO_COUNT>
-1

> <PUBCHEM_COORDINATE_TYPE>
1
5
255

> <PUBCHEM_BONDANNOTATIONS>
12  13  8
12  14  8
13  15  8
14  16  8
15  18  8
16  18  8
19  20  8
19  21  8
20  23  8
21  24  8
22  23  8
22  24  8
25  26  8
25  27  8
26  28  8
27  29  8
28  30  8
29  30  8

$$$$
