118736408
  -OEChem-09292322092D

103108  0     1  0  0  0  0  0999 V2000
    9.9622    3.2483    0.0000 O   0  0  0  0  0  0  0  0  0  0  0  0
   10.2339   -0.3470    0.0000 O   0  0  0  0  0  0  0  0  0  0  0  0
   13.4835   -1.9093    0.0000 O   0  0  0  0  0  0  0  0  0  0  0  0
   15.1696    1.2777    0.0000 O   0  0  0  0  0  0  0  0  0  0  0  0
    6.9654    3.8957    0.0000 N   0  0  3  0  0  0  0  0  0  0  0  0
    4.5124    2.7782    0.0000 N   0  0  0  0  0  0  0  0  0  0  0  0
    9.6086    1.5527    0.0000 N   0  0  0  0  0  0  0  0  0  0  0  0
   11.8792    0.1946    0.0000 N   0  0  0  0  0  0  0  0  0  0  0  0
   13.8370   -0.2137    0.0000 N   0  0  0  0  0  0  0  0  0  0  0  0
   12.7915   -3.7476    0.0000 N   0  0  0  0  0  0  0  0  0  0  0  0
   16.4612    0.1237    0.0000 N   0  0  0  0  0  0  0  0  0  0  0  0
   17.7119   -3.6757    0.0000 N   0  0  0  0  0  0  0  0  0  0  0  0
    6.2962    3.1525    0.0000 C   0  0  2  0  0  0  0  0  0  0  0  0
    6.6028    2.1570    0.0000 C   0  0  0  0  0  0  0  0  0  0  0  0
    8.3170    2.7067    0.0000 C   0  0  2  0  0  0  0  0  0  0  0  0
    7.9875    3.6948    0.0000 C   0  0  0  0  0  0  0  0  0  0  0  0
    7.6200    1.9326    0.0000 C   0  0  0  0  0  0  0  0  0  0  0  0
    5.3181    3.3604    0.0000 C   0  0  0  0  0  0  0  0  0  0  0  0
    6.6564    4.8467    0.0000 C   0  0  0  0  0  0  0  0  0  0  0  0
    5.0091    4.3115    0.0000 C   0  0  0  0  0  0  0  0  0  0  0  0
    5.6782    5.0547    0.0000 C   0  0  0  0  0  0  0  0  0  0  0  0
    4.0150    4.3089    0.0000 C   0  0  0  0  0  0  0  0  0  0  0  0
    9.2959    2.5026    0.0000 C   0  0  0  0  0  0  0  0  0  0  0  0
    3.7086    3.3632    0.0000 C   0  0  0  0  0  0  0  0  0  0  0  0
    3.3334    5.0884    0.0000 C   0  0  0  0  0  0  0  0  0  0  0  0
    2.6994    3.1315    0.0000 C   0  0  0  0  0  0  0  0  0  0  0  0
   10.5875    1.3486    0.0000 C   0  0  1  0  0  0  0  0  0  0  0  0
    2.3191    4.8801    0.0000 C   0  0  0  0  0  0  0  0  0  0  0  0
    2.0000    3.8950    0.0000 C   0  0  0  0  0  0  0  0  0  0  0  0
   11.2538    2.0943    0.0000 C   0  0  0  0  0  0  0  0  0  0  0  0
   10.9002    0.3987    0.0000 C   0  0  0  0  0  0  0  0  0  0  0  0
   12.2327    1.8902    0.0000 C   0  0  0  0  0  0  0  0  0  0  0  0
   12.1918   -0.7553    0.0000 C   0  0  1  0  0  0  0  0  0  0  0  0
   12.8990    2.6359    0.0000 C   0  0  0  0  0  0  0  0  0  0  0  0
   11.5256   -1.5010    0.0000 C   0  0  0  0  0  0  0  0  0  0  0  0
   13.1708   -0.9594    0.0000 C   0  0  0  0  0  0  0  0  0  0  0  0
   13.8779    2.4317    0.0000 C   0  0  0  0  0  0  0  0  0  0  0  0
   11.8383   -2.4509    0.0000 C   0  0  0  0  0  0  0  0  0  0  0  0
   14.8160   -0.4178    0.0000 C   0  0  1  0  0  0  0  0  0  0  0  0
   11.2564   -3.2568    0.0000 C   0  0  0  0  0  0  0  0  0  0  0  0
   15.1287   -1.3677    0.0000 C   0  0  0  0  0  0  0  0  0  0  0  0
   12.7851   -2.7536    0.0000 C   0  0  0  0  0  0  0  0  0  0  0  0
   11.8486   -4.0626    0.0000 C   0  0  0  0  0  0  0  0  0  0  0  0
   16.1076   -1.5718    0.0000 C   0  0  0  0  0  0  0  0  0  0  0  0
   10.2624   -3.3669    0.0000 C   0  0  0  0  0  0  0  0  0  0  0  0
   15.4822    0.3279    0.0000 C   0  0  0  0  0  0  0  0  0  0  0  0
   16.4203   -2.5217    0.0000 C   0  0  0  0  0  0  0  0  0  0  0  0
   11.4470   -4.9784    0.0000 C   0  0  0  0  0  0  0  0  0  0  0  0
    9.8608   -4.2827    0.0000 C   0  0  0  0  0  0  0  0  0  0  0  0
   17.3992   -2.7258    0.0000 C   0  0  0  0  0  0  0  0  0  0  0  0
   10.4531   -5.0884    0.0000 C   0  0  0  0  0  0  0  0  0  0  0  0
    5.7226    2.5253    0.0000 H   0  0  0  0  0  0  0  0  0  0  0  0
    5.9878    2.0787    0.0000 H   0  0  0  0  0  0  0  0  0  0  0  0
    6.5748    1.5377    0.0000 H   0  0  0  0  0  0  0  0  0  0  0  0
    8.5097    2.1174    0.0000 H   0  0  0  0  0  0  0  0  0  0  0  0
    8.6005    3.7874    0.0000 H   0  0  0  0  0  0  0  0  0  0  0  0
    8.0011    4.3147    0.0000 H   0  0  0  0  0  0  0  0  0  0  0  0
    7.3848    1.3590    0.0000 H   0  0  0  0  0  0  0  0  0  0  0  0
    8.1449    1.6027    0.0000 H   0  0  0  0  0  0  0  0  0  0  0  0
    7.2703    4.9330    0.0000 H   0  0  0  0  0  0  0  0  0  0  0  0
    6.6780    5.4664    0.0000 H   0  0  0  0  0  0  0  0  0  0  0  0
    5.9105    5.6295    0.0000 H   0  0  0  0  0  0  0  0  0  0  0  0
    5.1524    5.3832    0.0000 H   0  0  0  0  0  0  0  0  0  0  0  0
    4.5113    2.1582    0.0000 H   0  0  0  0  0  0  0  0  0  0  0  0
    9.1955    1.0904    0.0000 H   0  0  0  0  0  0  0  0  0  0  0  0
    3.5313    5.6760    0.0000 H   0  0  0  0  0  0  0  0  0  0  0  0
    2.5152    2.5395    0.0000 H   0  0  0  0  0  0  0  0  0  0  0  0
   10.3937    1.9375    0.0000 H   0  0  0  0  0  0  0  0  0  0  0  0
    1.9056    5.3421    0.0000 H   0  0  0  0  0  0  0  0  0  0  0  0
    1.3942    3.7633    0.0000 H   0  0  0  0  0  0  0  0  0  0  0  0
   11.4838    2.6700    0.0000 H   0  0  0  0  0  0  0  0  0  0  0  0
   10.7267    2.4208    0.0000 H   0  0  0  0  0  0  0  0  0  0  0  0
   12.0027    1.3144    0.0000 H   0  0  0  0  0  0  0  0  0  0  0  0
   12.7598    1.5636    0.0000 H   0  0  0  0  0  0  0  0  0  0  0  0
   12.2922    0.6569    0.0000 H   0  0  0  0  0  0  0  0  0  0  0  0
   12.6049   -0.2929    0.0000 H   0  0  0  0  0  0  0  0  0  0  0  0
   13.1290    3.2116    0.0000 H   0  0  0  0  0  0  0  0  0  0  0  0
   12.3719    2.9624    0.0000 H   0  0  0  0  0  0  0  0  0  0  0  0
   11.1420   -1.0139    0.0000 H   0  0  0  0  0  0  0  0  0  0  0  0
   10.9793   -1.7942    0.0000 H   0  0  0  0  0  0  0  0  0  0  0  0
   13.7514    1.8248    0.0000 H   0  0  0  0  0  0  0  0  0  0  0  0
   14.4849    2.3052    0.0000 H   0  0  0  0  0  0  0  0  0  0  0  0
   14.0045    3.0387    0.0000 H   0  0  0  0  0  0  0  0  0  0  0  0
   13.6432    0.3752    0.0000 H   0  0  0  0  0  0  0  0  0  0  0  0
   14.6221    0.1711    0.0000 H   0  0  0  0  0  0  0  0  0  0  0  0
   14.5150   -1.4564    0.0000 H   0  0  0  0  0  0  0  0  0  0  0  0
   15.1094   -1.9874    0.0000 H   0  0  0  0  0  0  0  0  0  0  0  0
   13.2847   -2.3864    0.0000 H   0  0  0  0  0  0  0  0  0  0  0  0
   16.7212   -1.4832    0.0000 H   0  0  0  0  0  0  0  0  0  0  0  0
   16.1268   -0.9521    0.0000 H   0  0  0  0  0  0  0  0  0  0  0  0
   13.2958   -4.1084    0.0000 H   0  0  0  0  0  0  0  0  0  0  0  0
    9.8952   -2.8674    0.0000 H   0  0  0  0  0  0  0  0  0  0  0  0
   15.8067   -2.6104    0.0000 H   0  0  0  0  0  0  0  0  0  0  0  0
   16.4010   -3.1414    0.0000 H   0  0  0  0  0  0  0  0  0  0  0  0
   11.8142   -5.4779    0.0000 H   0  0  0  0  0  0  0  0  0  0  0  0
    9.2446   -4.3510    0.0000 H   0  0  0  0  0  0  0  0  0  0  0  0
   18.0128   -2.6372    0.0000 H   0  0  0  0  0  0  0  0  0  0  0  0
   17.4185   -2.1061    0.0000 H   0  0  0  0  0  0  0  0  0  0  0  0
   10.2041   -5.6562    0.0000 H   0  0  0  0  0  0  0  0  0  0  0  0
   16.8743    0.5861    0.0000 H   0  0  0  0  0  0  0  0  0  0  0  0
   16.6550   -0.4652    0.0000 H   0  0  0  0  0  0  0  0  0  0  0  0
   18.3188   -3.8023    0.0000 H   0  0  0  0  0  0  0  0  0  0  0  0
   17.2988   -4.1380    0.0000 H   0  0  0  0  0  0  0  0  0  0  0  0
  1 23  2  0  0  0  0
  2 31  2  0  0  0  0
  3 36  2  0  0  0  0
  4 46  2  0  0  0  0
  5 13  1  0  0  0  0
  5 16  1  0  0  0  0
  5 19  1  0  0  0  0
  6 18  1  0  0  0  0
  6 24  1  0  0  0  0
  6 64  1  0  0  0  0
  7 23  1  0  0  0  0
 27  7  1  1  0  0  0
  7 65  1  0  0  0  0
  8 31  1  0  0  0  0
 33  8  1  6  0  0  0
  8 75  1  0  0  0  0
  9 36  1  0  0  0  0
 39  9  1  6  0  0  0
  9 84  1  0  0  0  0
 10 42  1  0  0  0  0
 10 43  1  0  0  0  0
 10 91  1  0  0  0  0
 11 46  1  0  0  0  0
 11100  1  0  0  0  0
 11101  1  0  0  0  0
 12 50  1  0  0  0  0
 12102  1  0  0  0  0
 12103  1  0  0  0  0
 13 14  1  0  0  0  0
 13 18  1  0  0  0  0
 13 52  1  1  0  0  0
 14 17  1  0  0  0  0
 14 53  1  0  0  0  0
 14 54  1  0  0  0  0
 15 16  1  0  0  0  0
 15 17  1  0  0  0  0
 15 23  1  1  0  0  0
 15 55  1  0  0  0  0
 16 56  1  0  0  0  0
 16 57  1  0  0  0  0
 17 58  1  0  0  0  0
 17 59  1  0  0  0  0
 18 20  2  0  0  0  0
 19 21  1  0  0  0  0
 19 60  1  0  0  0  0
 19 61  1  0  0  0  0
 20 21  1  0  0  0  0
 20 22  1  0  0  0  0
 21 62  1  0  0  0  0
 21 63  1  0  0  0  0
 22 24  1  0  0  0  0
 22 25  2  0  0  0  0
 24 26  2  0  0  0  0
 25 28  1  0  0  0  0
 25 66  1  0  0  0  0
 26 29  1  0  0  0  0
 26 67  1  0  0  0  0
 27 30  1  0  0  0  0
 27 31  1  0  0  0  0
 27 68  1  0  0  0  0
 28 29  2  0  0  0  0
 28 69  1  0  0  0  0
 29 70  1  0  0  0  0
 30 32  1  0  0  0  0
 30 71  1  0  0  0  0
 30 72  1  0  0  0  0
 32 34  1  0  0  0  0
 32 73  1  0  0  0  0
 32 74  1  0  0  0  0
 33 35  1  0  0  0  0
 33 36  1  0  0  0  0
 33 76  1  0  0  0  0
 34 37  1  0  0  0  0
 34 77  1  0  0  0  0
 34 78  1  0  0  0  0
 35 38  1  0  0  0  0
 35 79  1  0  0  0  0
 35 80  1  0  0  0  0
 37 81  1  0  0  0  0
 37 82  1  0  0  0  0
 37 83  1  0  0  0  0
 38 40  1  0  0  0  0
 38 42  2  0  0  0  0
 39 41  1  0  0  0  0
 39 46  1  0  0  0  0
 39 85  1  0  0  0  0
 40 43  1  0  0  0  0
 40 45  2  0  0  0  0
 41 44  1  0  0  0  0
 41 86  1  0  0  0  0
 41 87  1  0  0  0  0
 42 88  1  0  0  0  0
 43 48  2  0  0  0  0
 44 47  1  0  0  0  0
 44 89  1  0  0  0  0
 44 90  1  0  0  0  0
 45 49  1  0  0  0  0
 45 92  1  0  0  0  0
 47 50  1  0  0  0  0
 47 93  1  0  0  0  0
 47 94  1  0  0  0  0
 48 51  1  0  0  0  0
 48 95  1  0  0  0  0
 49 51  2  0  0  0  0
 49 96  1  0  0  0  0
 50 97  1  0  0  0  0
 50 98  1  0  0  0  0
 51 99  1  0  0  0  0
M  END
> <PUBCHEM_COMPOUND_CID>
118736408

> <PUBCHEM_COMPOUND_CANONICALIZED>
1

> <PUBCHEM_CACTVS_COMPLEXITY>
1200

> <PUBCHEM_CACTVS_HBOND_ACCEPTOR>
6

> <PUBCHEM_CACTVS_HBOND_DONOR>
7

> <PUBCHEM_CACTVS_ROTATABLE_BOND>
16

> <PUBCHEM_CACTVS_SUBSKEYS>
AAADcfB/+AAAAAAAAAAAAAAAAAAAAWLAAAA8eIEAAAAAAFix/gAAHgAQAAAADSjBngQ+wPPJkACoAzV3VACCgCAxAiAI2aG4ZJgIYPrA0bGUIAhglgDIyAcYicCegAAAAAACAAAAAAAAAAQAAAAAAAAAAA==

> <PUBCHEM_IUPAC_OPENEYE_NAME>
(3S,12bR)-N-[(1S)-1-[[(1S)-2-[[(1S)-5-amino-1-carbamoyl-pentyl]amino]-1-(1H-indol-3-ylmethyl)-2-oxo-ethyl]carbamoyl]pentyl]-1,2,3,4,6,7,12,12b-octahydroindolo[2,3-a]quinolizine-3-carboxamide

> <PUBCHEM_IUPAC_CAS_NAME>
(3S,12bR)-N-[(2S)-1-[[(2S)-1-[[(2S)-1,6-diamino-1-oxohexan-2-yl]amino]-3-(1H-indol-3-yl)-1-oxopropan-2-yl]amino]-1-oxohexan-2-yl]-1,2,3,4,6,7,12,12b-octahydroindolo[2,3-a]quinolizine-3-carboxamide

> <PUBCHEM_IUPAC_NAME_MARKUP>
(3<I>S</I>,12<I>b</I><I>R</I>)-<I>N</I>-[(2<I>S</I>)-1-[[(2<I>S</I>)-1-[[(2<I>S</I>)-1,6-diamino-1-oxohexan-2-yl]amino]-3-(1<I>H</I>-indol-3-yl)-1-oxopropan-2-yl]amino]-1-oxohexan-2-yl]-1,2,3,4,6,7,12,12<I>b</I>-octahydroindolo[2,3-a]quinolizine-3-carboxamide

> <PUBCHEM_IUPAC_NAME>
(3S,12bR)-N-[(2S)-1-[[(2S)-1-[[(2S)-1,6-diamino-1-oxohexan-2-yl]amino]-3-(1H-indol-3-yl)-1-oxopropan-2-yl]amino]-1-oxohexan-2-yl]-1,2,3,4,6,7,12,12b-octahydroindolo[2,3-a]quinolizine-3-carboxamide

> <PUBCHEM_IUPAC_SYSTEMATIC_NAME>
(3S,12bR)-N-[(2S)-1-[[(2S)-1-[[(2S)-1,6-bis(azanyl)-1-oxidanylidene-hexan-2-yl]amino]-3-(1H-indol-3-yl)-1-oxidanylidene-propan-2-yl]amino]-1-oxidanylidene-hexan-2-yl]-1,2,3,4,6,7,12,12b-octahydroindolo[2,3-a]quinolizine-3-carboxamide

> <PUBCHEM_IUPAC_TRADITIONAL_NAME>
(3S,12bR)-N-[(1S)-1-[[(1S)-2-[[(1S)-5-amino-1-carbamoyl-pentyl]amino]-1-(1H-indol-3-ylmethyl)-2-keto-ethyl]carbamoyl]pentyl]-1,2,3,4,6,7,12,12b-octahydropyrido[2,1-a]beta-carboline-3-carboxamide

> <PUBCHEM_IUPAC_INCHI>
InChI=1S/C39H52N8O4/c1-2-3-12-32(45-37(49)24-16-17-34-35-28(18-20-47(34)23-24)27-11-5-7-14-30(27)43-35)38(50)46-33(21-25-22-42-29-13-6-4-10-26(25)29)39(51)44-31(36(41)48)15-8-9-19-40/h4-7,10-11,13-14,22,24,31-34,42-43H,2-3,8-9,12,15-21,23,40H2,1H3,(H2,41,48)(H,44,51)(H,45,49)(H,46,50)/t24-,31-,32-,33-,34+/m0/s1

> <PUBCHEM_IUPAC_INCHIKEY>
BUSZPEZABSAFAL-YWNCIPKLSA-N

> <PUBCHEM_XLOGP3_AA>
3.5

> <PUBCHEM_EXACT_MASS>
696.41115217

> <PUBCHEM_MOLECULAR_FORMULA>
C39H52N8O4

> <PUBCHEM_MOLECULAR_WEIGHT>
696.9

> <PUBCHEM_OPENEYE_CAN_SMILES>
CCCCC(C(=O)NC(CC1=CNC2=CC=CC=C21)C(=O)NC(CCCCN)C(=O)N)NC(=O)C3CCC4C5=C(CCN4C3)C6=CC=CC=C6N5

> <PUBCHEM_OPENEYE_ISO_SMILES>
CCCC[C@@H](C(=O)N[C@@H](CC1=CNC2=CC=CC=C21)C(=O)N[C@@H](CCCCN)C(=O)N)NC(=O)[C@H]3CC[C@@H]4C5=C(CCN4C3)C6=CC=CC=C6N5

> <PUBCHEM_CACTVS_TPSA>
191

> <PUBCHEM_MONOISOTOPIC_WEIGHT>
696.41115217

> <PUBCHEM_TOTAL_CHARGE>
0

> <PUBCHEM_HEAVY_ATOM_COUNT>
51

> <PUBCHEM_ATOM_DEF_STEREO_COUNT>
5

> <PUBCHEM_ATOM_UDEF_STEREO_COUNT>
0

> <PUBCHEM_BOND_DEF_STEREO_COUNT>
0

> <PUBCHEM_BOND_UDEF_STEREO_COUNT>
0

> <PUBCHEM_ISOTOPIC_ATOM_COUNT>
0

> <PUBCHEM_COMPONENT_COUNT>
1

> <PUBCHEM_CACTVS_TAUTO_COUNT>
-1

> <PUBCHEM_COORDINATE_TYPE>
1
5
255

> <PUBCHEM_BONDANNOTATIONS>
10  42  8
10  43  8
13  52  5
15  23  5
18  20  8
20  22  8
22  24  8
22  25  8
24  26  8
25  28  8
26  29  8
28  29  8
38  40  8
38  42  8
40  43  8
40  45  8
43  48  8
45  49  8
48  51  8
49  51  8
6  18  8
6  24  8
27  7  5
33  8  6
39  9  6

$$$$
