138670743
  -OEChem-09292322452D

 72 77  0     1  0  0  0  0  0999 V2000
    5.5000    0.9802    0.0000 O   0  0  0  0  0  0  0  0  0  0  0  0
   11.0000   -1.6179    0.0000 N   0  0  3  0  0  0  0  0  0  0  0  0
    5.5000   -0.7519    0.0000 N   0  0  0  0  0  0  0  0  0  0  0  0
   14.0846   -2.6526    0.0000 N   0  0  0  0  0  0  0  0  0  0  0  0
    3.0000    2.5100    0.0000 N   0  0  0  0  0  0  0  0  0  0  0  0
    2.1953    1.9264    0.0000 N   0  0  0  0  0  0  0  0  0  0  0  0
    8.5000   -0.7519    0.0000 C   0  0  0  0  0  0  0  0  0  0  0  0
    8.0000   -1.6179    0.0000 C   0  0  0  0  0  0  0  0  0  0  0  0
    8.0000    0.1141    0.0000 C   0  0  0  0  0  0  0  0  0  0  0  0
    6.5000   -0.7519    0.0000 C   0  0  0  0  0  0  0  0  0  0  0  0
   15.8547   -2.6420    0.0000 C   0  0  0  0  0  0  0  0  0  0  0  0
    7.0000   -1.6179    0.0000 C   0  0  0  0  0  0  0  0  0  0  0  0
    7.0000    0.1141    0.0000 C   0  0  0  0  0  0  0  0  0  0  0  0
    9.5000   -0.7519    0.0000 C   0  0  0  0  0  0  0  0  0  0  0  0
   16.3514   -3.5100    0.0000 C   0  0  0  0  0  0  0  0  0  0  0  0
   16.8547   -2.6459    0.0000 C   0  0  0  0  0  0  0  0  0  0  0  0
   10.0000   -1.6179    0.0000 C   0  0  0  0  0  0  0  0  0  0  0  0
   14.9907   -2.1387    0.0000 C   0  0  0  0  0  0  0  0  0  0  0  0
   11.4339   -2.5189    0.0000 C   0  0  0  0  0  0  0  0  0  0  0  0
   11.4339   -0.7169    0.0000 C   0  0  0  0  0  0  0  0  0  0  0  0
   12.4088   -2.7414    0.0000 C   0  0  0  0  0  0  0  0  0  0  0  0
   12.4088   -0.4944    0.0000 C   0  0  0  0  0  0  0  0  0  0  0  0
   13.1906   -2.1179    0.0000 C   0  0  0  0  0  0  0  0  0  0  0  0
   13.1906   -1.1179    0.0000 C   0  0  0  0  0  0  0  0  0  0  0  0
   14.9907   -1.0971    0.0000 C   0  0  0  0  0  0  0  0  0  0  0  0
   14.0846   -0.5832    0.0000 C   0  0  0  0  0  0  0  0  0  0  0  0
    5.0000    0.1141    0.0000 C   0  0  0  0  0  0  0  0  0  0  0  0
    4.0000    0.1141    0.0000 C   0  0  0  0  0  0  0  0  0  0  0  0
    3.5000    0.9802    0.0000 C   0  0  0  0  0  0  0  0  0  0  0  0
    3.5000   -0.7519    0.0000 C   0  0  0  0  0  0  0  0  0  0  0  0
    2.5000    0.9802    0.0000 C   0  0  0  0  0  0  0  0  0  0  0  0
    3.8047    1.9264    0.0000 C   0  0  0  0  0  0  0  0  0  0  0  0
    2.5000   -0.7519    0.0000 C   0  0  0  0  0  0  0  0  0  0  0  0
    2.0000    0.1141    0.0000 C   0  0  0  0  0  0  0  0  0  0  0  0
    3.0000    3.5100    0.0000 C   0  0  0  0  0  0  0  0  0  0  0  0
    8.8100   -0.2149    0.0000 H   0  0  0  0  0  0  0  0  0  0  0  0
    7.8923   -2.2285    0.0000 H   0  0  0  0  0  0  0  0  0  0  0  0
    8.5826   -1.8300    0.0000 H   0  0  0  0  0  0  0  0  0  0  0  0
    8.5826    0.3262    0.0000 H   0  0  0  0  0  0  0  0  0  0  0  0
    7.8923    0.7247    0.0000 H   0  0  0  0  0  0  0  0  0  0  0  0
    6.1900   -0.2149    0.0000 H   0  0  0  0  0  0  0  0  0  0  0  0
   16.0175   -2.0438    0.0000 H   0  0  0  0  0  0  0  0  0  0  0  0
    6.4174   -1.8300    0.0000 H   0  0  0  0  0  0  0  0  0  0  0  0
    7.1077   -2.2285    0.0000 H   0  0  0  0  0  0  0  0  0  0  0  0
    7.1077    0.7247    0.0000 H   0  0  0  0  0  0  0  0  0  0  0  0
    6.4174    0.3262    0.0000 H   0  0  0  0  0  0  0  0  0  0  0  0
   10.0826   -0.5398    0.0000 H   0  0  0  0  0  0  0  0  0  0  0  0
    9.3923   -0.1413    0.0000 H   0  0  0  0  0  0  0  0  0  0  0  0
   15.8749   -3.9067    0.0000 H   0  0  0  0  0  0  0  0  0  0  0  0
   16.8248   -3.9104    0.0000 H   0  0  0  0  0  0  0  0  0  0  0  0
   17.4365   -2.8602    0.0000 H   0  0  0  0  0  0  0  0  0  0  0  0
   16.9648   -2.0358    0.0000 H   0  0  0  0  0  0  0  0  0  0  0  0
    9.4174   -1.8300    0.0000 H   0  0  0  0  0  0  0  0  0  0  0  0
   10.1077   -2.2285    0.0000 H   0  0  0  0  0  0  0  0  0  0  0  0
   10.8294   -2.6568    0.0000 H   0  0  0  0  0  0  0  0  0  0  0  0
   11.4339   -3.1389    0.0000 H   0  0  0  0  0  0  0  0  0  0  0  0
   11.4339   -0.0969    0.0000 H   0  0  0  0  0  0  0  0  0  0  0  0
   10.8294   -0.5790    0.0000 H   0  0  0  0  0  0  0  0  0  0  0  0
    5.1900   -1.2888    0.0000 H   0  0  0  0  0  0  0  0  0  0  0  0
   12.1398   -3.3000    0.0000 H   0  0  0  0  0  0  0  0  0  0  0  0
   12.8935   -3.1280    0.0000 H   0  0  0  0  0  0  0  0  0  0  0  0
   12.8935   -0.1079    0.0000 H   0  0  0  0  0  0  0  0  0  0  0  0
   12.1398    0.0642    0.0000 H   0  0  0  0  0  0  0  0  0  0  0  0
   15.5264   -0.7850    0.0000 H   0  0  0  0  0  0  0  0  0  0  0  0
   14.0774    0.0367    0.0000 H   0  0  0  0  0  0  0  0  0  0  0  0
    3.8100   -1.2888    0.0000 H   0  0  0  0  0  0  0  0  0  0  0  0
    4.3940    2.1190    0.0000 H   0  0  0  0  0  0  0  0  0  0  0  0
    2.1900   -1.2888    0.0000 H   0  0  0  0  0  0  0  0  0  0  0  0
    1.3800    0.1141    0.0000 H   0  0  0  0  0  0  0  0  0  0  0  0
    3.6200    3.5100    0.0000 H   0  0  0  0  0  0  0  0  0  0  0  0
    3.0000    4.1300    0.0000 H   0  0  0  0  0  0  0  0  0  0  0  0
    2.3800    3.5100    0.0000 H   0  0  0  0  0  0  0  0  0  0  0  0
  1 27  2  0  0  0  0
  2 17  1  0  0  0  0
  2 19  1  0  0  0  0
  2 20  1  0  0  0  0
  3 10  1  0  0  0  0
  3 27  1  0  0  0  0
  3 59  1  0  0  0  0
  4 18  2  0  0  0  0
  4 23  1  0  0  0  0
  5  6  1  0  0  0  0
  5 32  1  0  0  0  0
  5 35  1  0  0  0  0
  6 31  2  0  0  0  0
  7  8  1  0  0  0  0
  7  9  1  0  0  0  0
  7 14  1  0  0  0  0
  7 36  1  0  0  0  0
  8 12  1  0  0  0  0
  8 37  1  0  0  0  0
  8 38  1  0  0  0  0
  9 13  1  0  0  0  0
  9 39  1  0  0  0  0
  9 40  1  0  0  0  0
 10 12  1  0  0  0  0
 10 13  1  0  0  0  0
 10 41  1  0  0  0  0
 11 15  1  0  0  0  0
 11 16  1  0  0  0  0
 11 18  1  0  0  0  0
 11 42  1  0  0  0  0
 12 43  1  0  0  0  0
 12 44  1  0  0  0  0
 13 45  1  0  0  0  0
 13 46  1  0  0  0  0
 14 17  1  0  0  0  0
 14 47  1  0  0  0  0
 14 48  1  0  0  0  0
 15 16  1  0  0  0  0
 15 49  1  0  0  0  0
 15 50  1  0  0  0  0
 16 51  1  0  0  0  0
 16 52  1  0  0  0  0
 17 53  1  0  0  0  0
 17 54  1  0  0  0  0
 18 25  1  0  0  0  0
 19 21  1  0  0  0  0
 19 55  1  0  0  0  0
 19 56  1  0  0  0  0
 20 22  1  0  0  0  0
 20 57  1  0  0  0  0
 20 58  1  0  0  0  0
 21 23  1  0  0  0  0
 21 60  1  0  0  0  0
 21 61  1  0  0  0  0
 22 24  1  0  0  0  0
 22 62  1  0  0  0  0
 22 63  1  0  0  0  0
 23 24  2  0  0  0  0
 24 26  1  0  0  0  0
 25 26  2  0  0  0  0
 25 64  1  0  0  0  0
 26 65  1  0  0  0  0
 27 28  1  0  0  0  0
 28 29  1  0  0  0  0
 28 30  2  0  0  0  0
 29 31  1  0  0  0  0
 29 32  2  0  0  0  0
 30 33  1  0  0  0  0
 30 66  1  0  0  0  0
 31 34  1  0  0  0  0
 32 67  1  0  0  0  0
 33 34  2  0  0  0  0
 33 68  1  0  0  0  0
 34 69  1  0  0  0  0
 35 70  1  0  0  0  0
 35 71  1  0  0  0  0
 35 72  1  0  0  0  0
M  END
> <PUBCHEM_COMPOUND_CID>
138670743

> <PUBCHEM_COMPOUND_CANONICALIZED>
1

> <PUBCHEM_CACTVS_COMPLEXITY>
720

> <PUBCHEM_CACTVS_HBOND_ACCEPTOR>
4

> <PUBCHEM_CACTVS_HBOND_DONOR>
1

> <PUBCHEM_CACTVS_ROTATABLE_BOND>
6

> <PUBCHEM_CACTVS_SUBSKEYS>
AAADcfB7oAAAAAAAAAAAAAAAGAAAAWAAAAA8YIAABYAAAFgB/AAAHgAYAAAADSjBngQ+wPPIEACqAzV3VACShCA1giAY2KE4ZNgIIPLA1dGEpQhgngDIyYcciMCOgAAAQAASAAAQAACAACQAAAAAAAAAAA==

> <PUBCHEM_IUPAC_OPENEYE_NAME>
N-[4-[2-(2-cyclopropyl-5,6,8,9-tetrahydropyrido[2,3-d]azepin-7-yl)ethyl]cyclohexyl]-2-methyl-indazole-4-carboxamide

> <PUBCHEM_IUPAC_CAS_NAME>
N-[4-[2-(2-cyclopropyl-5,6,8,9-tetrahydropyrido[2,3-d]azepin-7-yl)ethyl]cyclohexyl]-2-methyl-4-indazolecarboxamide

> <PUBCHEM_IUPAC_NAME_MARKUP>
<I>N</I>-[4-[2-(2-cyclopropyl-5,6,8,9-tetrahydropyrido[2,3-d]azepin-7-yl)ethyl]cyclohexyl]-2-methylindazole-4-carboxamide

> <PUBCHEM_IUPAC_NAME>
N-[4-[2-(2-cyclopropyl-5,6,8,9-tetrahydropyrido[2,3-d]azepin-7-yl)ethyl]cyclohexyl]-2-methylindazole-4-carboxamide

> <PUBCHEM_IUPAC_SYSTEMATIC_NAME>
N-[4-[2-(2-cyclopropyl-5,6,8,9-tetrahydropyrido[2,3-d]azepin-7-yl)ethyl]cyclohexyl]-2-methyl-indazole-4-carboxamide

> <PUBCHEM_IUPAC_TRADITIONAL_NAME>
N-[4-[2-(2-cyclopropyl-5,6,8,9-tetrahydropyrid[2,3-d]azepin-7-yl)ethyl]cyclohexyl]-2-methyl-indazole-4-carboxamide

> <PUBCHEM_IUPAC_INCHI>
InChI=1S/C29H37N5O/c1-33-19-25-24(3-2-4-28(25)32-33)29(35)30-23-10-5-20(6-11-23)13-16-34-17-14-22-9-12-26(21-7-8-21)31-27(22)15-18-34/h2-4,9,12,19-21,23H,5-8,10-11,13-18H2,1H3,(H,30,35)

> <PUBCHEM_IUPAC_INCHIKEY>
BIYGZOAYJAQYDW-UHFFFAOYSA-N

> <PUBCHEM_XLOGP3_AA>
4.3

> <PUBCHEM_EXACT_MASS>
471.29981082

> <PUBCHEM_MOLECULAR_FORMULA>
C29H37N5O

> <PUBCHEM_MOLECULAR_WEIGHT>
471.6

> <PUBCHEM_OPENEYE_CAN_SMILES>
CN1C=C2C(=N1)C=CC=C2C(=O)NC3CCC(CC3)CCN4CCC5=C(CC4)N=C(C=C5)C6CC6

> <PUBCHEM_OPENEYE_ISO_SMILES>
CN1C=C2C(=N1)C=CC=C2C(=O)NC3CCC(CC3)CCN4CCC5=C(CC4)N=C(C=C5)C6CC6

> <PUBCHEM_CACTVS_TPSA>
63

> <PUBCHEM_MONOISOTOPIC_WEIGHT>
471.29981082

> <PUBCHEM_TOTAL_CHARGE>
0

> <PUBCHEM_HEAVY_ATOM_COUNT>
35

> <PUBCHEM_ATOM_DEF_STEREO_COUNT>
0

> <PUBCHEM_ATOM_UDEF_STEREO_COUNT>
0

> <PUBCHEM_BOND_DEF_STEREO_COUNT>
0

> <PUBCHEM_BOND_UDEF_STEREO_COUNT>
0

> <PUBCHEM_ISOTOPIC_ATOM_COUNT>
0

> <PUBCHEM_COMPONENT_COUNT>
1

> <PUBCHEM_CACTVS_TAUTO_COUNT>
-1

> <PUBCHEM_COORDINATE_TYPE>
1
5
255

> <PUBCHEM_BONDANNOTATIONS>
18  25  8
23  24  8
24  26  8
25  26  8
28  29  8
28  30  8
29  31  8
29  32  8
30  33  8
31  34  8
33  34  8
4  18  8
4  23  8
5  32  8
5  6  8
6  31  8

$$$$
