76321555
  -OEChem-09292321592D

 64 66  0     1  0  0  0  0  0999 V2000
   14.4606    0.6200    0.0000 I   0  0  0  0  0  0  0  0  0  0  0  0
    4.0682    3.6200    0.0000 O   0  0  0  0  0  0  0  0  0  0  0  0
    0.5381    3.5958    0.0000 O   0  0  0  0  0  0  0  0  0  0  0  0
    8.5293    9.2862    0.0000 O   0  0  0  0  0  0  0  0  0  0  0  0
    5.9312    9.7862    0.0000 O   0  0  0  0  0  0  0  0  0  0  0  0
    7.6633   10.7862    0.0000 O   0  0  0  0  0  0  0  0  0  0  0  0
    6.7973    8.2862    0.0000 O   0  0  0  0  0  0  0  0  0  0  0  0
    9.2644    3.6200    0.0000 N   0  0  0  0  0  0  0  0  0  0  0  0
   10.9965    2.6200    0.0000 N   0  0  0  0  0  0  0  0  0  0  0  0
    6.6663    4.1200    0.0000 N   0  0  0  0  0  0  0  0  0  0  0  0
    9.2644    2.6200    0.0000 C   0  0  0  0  0  0  0  0  0  0  0  0
   10.1304    4.1200    0.0000 C   0  0  0  0  0  0  0  0  0  0  0  0
   10.1304    2.1200    0.0000 C   0  0  0  0  0  0  0  0  0  0  0  0
   10.9965    3.6200    0.0000 C   0  0  0  0  0  0  0  0  0  0  0  0
    8.3984    4.1200    0.0000 C   0  0  0  0  0  0  0  0  0  0  0  0
    4.9343    4.1200    0.0000 C   0  0  1  0  0  0  0  0  0  0  0  0
    7.5324    3.6200    0.0000 C   0  0  0  0  0  0  0  0  0  0  0  0
    5.8003    3.6200    0.0000 C   0  0  0  0  0  0  0  0  0  0  0  0
    4.9343    5.1200    0.0000 C   0  0  0  0  0  0  0  0  0  0  0  0
    4.0682    5.6200    0.0000 C   0  0  0  0  0  0  0  0  0  0  0  0
   11.8625    2.1200    0.0000 C   0  0  0  0  0  0  0  0  0  0  0  0
    3.2022    5.1200    0.0000 C   0  0  0  0  0  0  0  0  0  0  0  0
    3.2022    4.1200    0.0000 C   0  0  0  0  0  0  0  0  0  0  0  0
   12.7285    2.6200    0.0000 C   0  0  0  0  0  0  0  0  0  0  0  0
   11.8625    1.1200    0.0000 C   0  0  0  0  0  0  0  0  0  0  0  0
    2.3083    5.6547    0.0000 C   0  0  0  0  0  0  0  0  0  0  0  0
    2.3083    3.5853    0.0000 C   0  0  0  0  0  0  0  0  0  0  0  0
    1.4022    5.1408    0.0000 C   0  0  0  0  0  0  0  0  0  0  0  0
    1.4022    4.0992    0.0000 C   0  0  0  0  0  0  0  0  0  0  0  0
   13.5945    2.1200    0.0000 C   0  0  0  0  0  0  0  0  0  0  0  0
   12.7285    0.6200    0.0000 C   0  0  0  0  0  0  0  0  0  0  0  0
   13.5945    1.1200    0.0000 C   0  0  0  0  0  0  0  0  0  0  0  0
    7.6633    9.7862    0.0000 C   0  0  0  0  0  0  0  0  0  0  0  0
    6.7973    9.2862    0.0000 C   0  0  0  0  0  0  0  0  0  0  0  0
    8.6538    2.7277    0.0000 H   0  0  0  0  0  0  0  0  0  0  0  0
    9.0524    2.0374    0.0000 H   0  0  0  0  0  0  0  0  0  0  0  0
   10.5290    4.5950    0.0000 H   0  0  0  0  0  0  0  0  0  0  0  0
    9.7319    4.5950    0.0000 H   0  0  0  0  0  0  0  0  0  0  0  0
    9.7319    1.6450    0.0000 H   0  0  0  0  0  0  0  0  0  0  0  0
   10.5290    1.6450    0.0000 H   0  0  0  0  0  0  0  0  0  0  0  0
   11.6070    3.5123    0.0000 H   0  0  0  0  0  0  0  0  0  0  0  0
   11.2085    4.2026    0.0000 H   0  0  0  0  0  0  0  0  0  0  0  0
    8.7969    4.5950    0.0000 H   0  0  0  0  0  0  0  0  0  0  0  0
    7.9998    4.5950    0.0000 H   0  0  0  0  0  0  0  0  0  0  0  0
    4.9343    3.5000    0.0000 H   0  0  0  0  0  0  0  0  0  0  0  0
    7.1338    3.1450    0.0000 H   0  0  0  0  0  0  0  0  0  0  0  0
    7.9309    3.1450    0.0000 H   0  0  0  0  0  0  0  0  0  0  0  0
    5.4018    3.1450    0.0000 H   0  0  0  0  0  0  0  0  0  0  0  0
    6.1988    3.1450    0.0000 H   0  0  0  0  0  0  0  0  0  0  0  0
    5.5449    5.0123    0.0000 H   0  0  0  0  0  0  0  0  0  0  0  0
    5.1463    5.7026    0.0000 H   0  0  0  0  0  0  0  0  0  0  0  0
    6.6663    4.7400    0.0000 H   0  0  0  0  0  0  0  0  0  0  0  0
    4.4668    6.0950    0.0000 H   0  0  0  0  0  0  0  0  0  0  0  0
    3.6697    6.0950    0.0000 H   0  0  0  0  0  0  0  0  0  0  0  0
   12.7285    3.2400    0.0000 H   0  0  0  0  0  0  0  0  0  0  0  0
   11.3255    0.8100    0.0000 H   0  0  0  0  0  0  0  0  0  0  0  0
    2.3154    6.2746    0.0000 H   0  0  0  0  0  0  0  0  0  0  0  0
    2.3154    2.9654    0.0000 H   0  0  0  0  0  0  0  0  0  0  0  0
    0.8665    5.4529    0.0000 H   0  0  0  0  0  0  0  0  0  0  0  0
   14.1315    2.4300    0.0000 H   0  0  0  0  0  0  0  0  0  0  0  0
   12.7285    0.0000    0.0000 H   0  0  0  0  0  0  0  0  0  0  0  0
    0.0000    3.9038    0.0000 H   0  0  0  0  0  0  0  0  0  0  0  0
    9.0662    9.5962    0.0000 H   0  0  0  0  0  0  0  0  0  0  0  0
    5.3943    9.4762    0.0000 H   0  0  0  0  0  0  0  0  0  0  0  0
  1 32  1  0  0  0  0
  2 16  1  0  0  0  0
  2 23  1  0  0  0  0
  3 29  1  0  0  0  0
  3 62  1  0  0  0  0
  4 33  1  0  0  0  0
  4 63  1  0  0  0  0
  5 34  1  0  0  0  0
  5 64  1  0  0  0  0
  6 33  2  0  0  0  0
  7 34  2  0  0  0  0
  8 11  1  0  0  0  0
  8 12  1  0  0  0  0
  8 15  1  0  0  0  0
  9 13  1  0  0  0  0
  9 14  1  0  0  0  0
  9 21  1  0  0  0  0
 10 17  1  0  0  0  0
 10 18  1  0  0  0  0
 10 52  1  0  0  0  0
 11 13  1  0  0  0  0
 11 35  1  0  0  0  0
 11 36  1  0  0  0  0
 12 14  1  0  0  0  0
 12 37  1  0  0  0  0
 12 38  1  0  0  0  0
 13 39  1  0  0  0  0
 13 40  1  0  0  0  0
 14 41  1  0  0  0  0
 14 42  1  0  0  0  0
 15 17  1  0  0  0  0
 15 43  1  0  0  0  0
 15 44  1  0  0  0  0
 16 18  1  6  0  0  0
 16 19  1  0  0  0  0
 16 45  1  0  0  0  0
 17 46  1  0  0  0  0
 17 47  1  0  0  0  0
 18 48  1  0  0  0  0
 18 49  1  0  0  0  0
 19 20  1  0  0  0  0
 19 50  1  0  0  0  0
 19 51  1  0  0  0  0
 20 22  1  0  0  0  0
 20 53  1  0  0  0  0
 20 54  1  0  0  0  0
 21 24  2  0  0  0  0
 21 25  1  0  0  0  0
 22 23  2  0  0  0  0
 22 26  1  0  0  0  0
 23 27  1  0  0  0  0
 24 30  1  0  0  0  0
 24 55  1  0  0  0  0
 25 31  2  0  0  0  0
 25 56  1  0  0  0  0
 26 28  2  0  0  0  0
 26 57  1  0  0  0  0
 27 29  2  0  0  0  0
 27 58  1  0  0  0  0
 28 29  1  0  0  0  0
 28 59  1  0  0  0  0
 30 32  2  0  0  0  0
 30 60  1  0  0  0  0
 31 32  1  0  0  0  0
 31 61  1  0  0  0  0
 33 34  1  0  0  0  0
M  END
> <PUBCHEM_COMPOUND_CID>
76321555

> <PUBCHEM_COMPOUND_CANONICALIZED>
1

> <PUBCHEM_CACTVS_COMPLEXITY>
538

> <PUBCHEM_CACTVS_HBOND_ACCEPTOR>
9

> <PUBCHEM_CACTVS_HBOND_DONOR>
4

> <PUBCHEM_CACTVS_ROTATABLE_BOND>
7

> <PUBCHEM_CACTVS_SUBSKEYS>
AAADceB7OAAAAgAAAAAAAAAAAAAAAAAAAAA8aIEAAAAAAACRQAAAHgAwCAAADBzjmAYwzoPABgCIAiTSSAKCCAAhIgAIiIBObIgPZyLGsZuXeCjl0BXZ+AeQ4KwOIAAACAAIAABAAAAQABAAAAAAAAAAAA==

> <PUBCHEM_IUPAC_OPENEYE_NAME>
(2R)-2-[[2-[4-(4-iodophenyl)piperazin-1-yl]ethylamino]methyl]chroman-7-ol;oxalic acid

> <PUBCHEM_IUPAC_CAS_NAME>
(2R)-2-[[2-[4-(4-iodophenyl)-1-piperazinyl]ethylamino]methyl]-3,4-dihydro-2H-1-benzopyran-7-ol;oxalic acid

> <PUBCHEM_IUPAC_NAME_MARKUP>
(2<I>R</I>)-2-[[2-[4-(4-iodophenyl)piperazin-1-yl]ethylamino]methyl]-3,4-dihydro-2<I>H</I>-chromen-7-ol;oxalic acid

> <PUBCHEM_IUPAC_NAME>
(2R)-2-[[2-[4-(4-iodophenyl)piperazin-1-yl]ethylamino]methyl]-3,4-dihydro-2H-chromen-7-ol;oxalic acid

> <PUBCHEM_IUPAC_SYSTEMATIC_NAME>
ethanedioic acid;(2R)-2-[[2-[4-(4-iodophenyl)piperazin-1-yl]ethylamino]methyl]-3,4-dihydro-2H-chromen-7-ol

> <PUBCHEM_IUPAC_TRADITIONAL_NAME>
(2R)-2-[[2-[4-(4-iodophenyl)piperazino]ethylamino]methyl]chroman-7-ol;oxalic acid

> <PUBCHEM_IUPAC_INCHI>
InChI=1S/C22H28IN3O2.C2H2O4/c23-18-3-5-19(6-4-18)26-13-11-25(12-14-26)10-9-24-16-21-8-2-17-1-7-20(27)15-22(17)28-21;3-1(4)2(5)6/h1,3-7,15,21,24,27H,2,8-14,16H2;(H,3,4)(H,5,6)/t21-;/m1./s1

> <PUBCHEM_IUPAC_INCHIKEY>
YNLXAVVGSZRKMZ-ZMBIFBSDSA-N

> <PUBCHEM_EXACT_MASS>
583.11793

> <PUBCHEM_MOLECULAR_FORMULA>
C24H30IN3O6

> <PUBCHEM_MOLECULAR_WEIGHT>
583.4

> <PUBCHEM_OPENEYE_CAN_SMILES>
C1CC2=C(C=C(C=C2)O)OC1CNCCN3CCN(CC3)C4=CC=C(C=C4)I.C(=O)(C(=O)O)O

> <PUBCHEM_OPENEYE_ISO_SMILES>
C1CC2=C(C=C(C=C2)O)O[C@H]1CNCCN3CCN(CC3)C4=CC=C(C=C4)I.C(=O)(C(=O)O)O

> <PUBCHEM_CACTVS_TPSA>
123

> <PUBCHEM_MONOISOTOPIC_WEIGHT>
583.11793

> <PUBCHEM_TOTAL_CHARGE>
0

> <PUBCHEM_HEAVY_ATOM_COUNT>
34

> <PUBCHEM_ATOM_DEF_STEREO_COUNT>
1

> <PUBCHEM_ATOM_UDEF_STEREO_COUNT>
0

> <PUBCHEM_BOND_DEF_STEREO_COUNT>
0

> <PUBCHEM_BOND_UDEF_STEREO_COUNT>
0

> <PUBCHEM_ISOTOPIC_ATOM_COUNT>
0

> <PUBCHEM_COMPONENT_COUNT>
2

> <PUBCHEM_CACTVS_TAUTO_COUNT>
-1

> <PUBCHEM_COORDINATE_TYPE>
1
5
255

> <PUBCHEM_BONDANNOTATIONS>
16  18  6
21  24  8
21  25  8
22  23  8
22  26  8
23  27  8
24  30  8
25  31  8
26  28  8
27  29  8
28  29  8
30  32  8
31  32  8

$$$$
