44436731
  -OEChem-09292322252D

 72 75  0     1  0  0  0  0  0999 V2000
    3.7126    2.8964    0.0000 O   0  0  0  0  0  0  0  0  0  0  0  0
    4.5981   -4.4012    0.0000 N   0  0  3  0  0  0  0  0  0  0  0  0
    5.0981   -2.2106    0.0000 N   0  0  3  0  0  0  0  0  0  0  0  0
    5.2731    2.1448    0.0000 N   0  0  0  0  0  0  0  0  0  0  0  0
    5.4990   -3.9673    0.0000 C   0  0  0  0  0  0  0  0  0  0  0  0
    3.6971   -3.9673    0.0000 C   0  0  0  0  0  0  0  0  0  0  0  0
    5.7216   -2.9924    0.0000 C   0  0  0  0  0  0  0  0  0  0  0  0
    4.0981   -2.2106    0.0000 C   0  0  0  0  0  0  0  0  0  0  0  0
    3.4746   -2.9924    0.0000 C   0  0  0  0  0  0  0  0  0  0  0  0
    4.5981   -5.4012    0.0000 C   0  0  0  0  0  0  0  0  0  0  0  0
    5.5320   -1.3096    0.0000 C   0  0  0  0  0  0  0  0  0  0  0  0
    4.9686   -0.4833    0.0000 C   0  0  0  0  0  0  0  0  0  0  0  0
    3.7320   -5.9012    0.0000 C   0  0  0  0  0  0  0  0  0  0  0  0
    5.4641   -5.9012    0.0000 C   0  0  0  0  0  0  0  0  0  0  0  0
    5.4025    0.4176    0.0000 C   0  0  0  0  0  0  0  0  0  0  0  0
    3.7320   -6.9012    0.0000 C   0  0  0  0  0  0  0  0  0  0  0  0
    5.4641   -6.9012    0.0000 C   0  0  0  0  0  0  0  0  0  0  0  0
    2.8660   -5.4012    0.0000 C   0  0  0  0  0  0  0  0  0  0  0  0
    6.3301   -5.4012    0.0000 C   0  0  0  0  0  0  0  0  0  0  0  0
    4.8392    1.2439    0.0000 C   0  0  0  0  0  0  0  0  0  0  0  0
    2.8660   -7.4012    0.0000 C   0  0  0  0  0  0  0  0  0  0  0  0
    6.3301   -7.4012    0.0000 C   0  0  0  0  0  0  0  0  0  0  0  0
    2.0000   -5.9012    0.0000 C   0  0  0  0  0  0  0  0  0  0  0  0
    7.1962   -5.9012    0.0000 C   0  0  0  0  0  0  0  0  0  0  0  0
    2.0000   -6.9012    0.0000 C   0  0  0  0  0  0  0  0  0  0  0  0
    7.1962   -6.9012    0.0000 C   0  0  0  0  0  0  0  0  0  0  0  0
    4.7098    2.9711    0.0000 C   0  0  0  0  0  0  0  0  0  0  0  0
    5.1436    3.8720    0.0000 C   0  0  0  0  0  0  0  0  0  0  0  0
    4.5803    4.6983    0.0000 C   0  0  0  0  0  0  0  0  0  0  0  0
    5.0142    5.5992    0.0000 C   0  0  0  0  0  0  0  0  0  0  0  0
    6.0114    5.6740    0.0000 C   0  0  0  0  0  0  0  0  0  0  0  0
    4.4509    6.4255    0.0000 C   0  0  0  0  0  0  0  0  0  0  0  0
    6.4453    6.5750    0.0000 C   0  0  0  0  0  0  0  0  0  0  0  0
    4.8848    7.3265    0.0000 C   0  0  0  0  0  0  0  0  0  0  0  0
    5.8820    7.4012    0.0000 C   0  0  0  0  0  0  0  0  0  0  0  0
    5.6370   -4.5718    0.0000 H   0  0  0  0  0  0  0  0  0  0  0  0
    6.1190   -3.9673    0.0000 H   0  0  0  0  0  0  0  0  0  0  0  0
    3.0771   -3.9673    0.0000 H   0  0  0  0  0  0  0  0  0  0  0  0
    3.5591   -4.5718    0.0000 H   0  0  0  0  0  0  0  0  0  0  0  0
    6.2802   -3.2614    0.0000 H   0  0  0  0  0  0  0  0  0  0  0  0
    6.1081   -2.5076    0.0000 H   0  0  0  0  0  0  0  0  0  0  0  0
    4.2360   -1.6061    0.0000 H   0  0  0  0  0  0  0  0  0  0  0  0
    3.5395   -1.9415    0.0000 H   0  0  0  0  0  0  0  0  0  0  0  0
    3.0880   -2.5076    0.0000 H   0  0  0  0  0  0  0  0  0  0  0  0
    2.9160   -3.2614    0.0000 H   0  0  0  0  0  0  0  0  0  0  0  0
    4.5981   -6.0212    0.0000 H   0  0  0  0  0  0  0  0  0  0  0  0
    6.0354   -1.6715    0.0000 H   0  0  0  0  0  0  0  0  0  0  0  0
    5.9758   -0.8767    0.0000 H   0  0  0  0  0  0  0  0  0  0  0  0
    4.4652   -0.1214    0.0000 H   0  0  0  0  0  0  0  0  0  0  0  0
    4.5248   -0.9162    0.0000 H   0  0  0  0  0  0  0  0  0  0  0  0
    5.9059    0.0557    0.0000 H   0  0  0  0  0  0  0  0  0  0  0  0
    5.8464    0.8505    0.0000 H   0  0  0  0  0  0  0  0  0  0  0  0
    4.2690   -7.2112    0.0000 H   0  0  0  0  0  0  0  0  0  0  0  0
    4.9272   -7.2112    0.0000 H   0  0  0  0  0  0  0  0  0  0  0  0
    2.8660   -4.7812    0.0000 H   0  0  0  0  0  0  0  0  0  0  0  0
    6.3301   -4.7812    0.0000 H   0  0  0  0  0  0  0  0  0  0  0  0
    4.3358    1.6058    0.0000 H   0  0  0  0  0  0  0  0  0  0  0  0
    4.3954    0.8110    0.0000 H   0  0  0  0  0  0  0  0  0  0  0  0
    2.8660   -8.0212    0.0000 H   0  0  0  0  0  0  0  0  0  0  0  0
    6.3301   -8.0212    0.0000 H   0  0  0  0  0  0  0  0  0  0  0  0
    1.4631   -5.5912    0.0000 H   0  0  0  0  0  0  0  0  0  0  0  0
    7.7331   -5.5912    0.0000 H   0  0  0  0  0  0  0  0  0  0  0  0
    1.4631   -7.2112    0.0000 H   0  0  0  0  0  0  0  0  0  0  0  0
    7.7331   -7.2112    0.0000 H   0  0  0  0  0  0  0  0  0  0  0  0
    5.8914    2.1912    0.0000 H   0  0  0  0  0  0  0  0  0  0  0  0
    5.7619    3.9184    0.0000 H   0  0  0  0  0  0  0  0  0  0  0  0
    3.9621    4.6520    0.0000 H   0  0  0  0  0  0  0  0  0  0  0  0
    6.3607    5.1617    0.0000 H   0  0  0  0  0  0  0  0  0  0  0  0
    3.8326    6.3792    0.0000 H   0  0  0  0  0  0  0  0  0  0  0  0
    7.0636    6.6213    0.0000 H   0  0  0  0  0  0  0  0  0  0  0  0
    4.5355    7.8387    0.0000 H   0  0  0  0  0  0  0  0  0  0  0  0
    6.1510    7.9598    0.0000 H   0  0  0  0  0  0  0  0  0  0  0  0
  1 27  2  0  0  0  0
  2  5  1  0  0  0  0
  2  6  1  0  0  0  0
  2 10  1  0  0  0  0
  3  7  1  0  0  0  0
  3  8  1  0  0  0  0
  3 11  1  0  0  0  0
  4 20  1  0  0  0  0
  4 27  1  0  0  0  0
  4 65  1  0  0  0  0
  5  7  1  0  0  0  0
  5 36  1  0  0  0  0
  5 37  1  0  0  0  0
  6  9  1  0  0  0  0
  6 38  1  0  0  0  0
  6 39  1  0  0  0  0
  7 40  1  0  0  0  0
  7 41  1  0  0  0  0
  8  9  1  0  0  0  0
  8 42  1  0  0  0  0
  8 43  1  0  0  0  0
  9 44  1  0  0  0  0
  9 45  1  0  0  0  0
 10 13  1  0  0  0  0
 10 14  1  0  0  0  0
 10 46  1  0  0  0  0
 11 12  1  0  0  0  0
 11 47  1  0  0  0  0
 11 48  1  0  0  0  0
 12 15  1  0  0  0  0
 12 49  1  0  0  0  0
 12 50  1  0  0  0  0
 13 16  2  0  0  0  0
 13 18  1  0  0  0  0
 14 17  2  0  0  0  0
 14 19  1  0  0  0  0
 15 20  1  0  0  0  0
 15 51  1  0  0  0  0
 15 52  1  0  0  0  0
 16 21  1  0  0  0  0
 16 53  1  0  0  0  0
 17 22  1  0  0  0  0
 17 54  1  0  0  0  0
 18 23  2  0  0  0  0
 18 55  1  0  0  0  0
 19 24  2  0  0  0  0
 19 56  1  0  0  0  0
 20 57  1  0  0  0  0
 20 58  1  0  0  0  0
 21 25  2  0  0  0  0
 21 59  1  0  0  0  0
 22 26  2  0  0  0  0
 22 60  1  0  0  0  0
 23 25  1  0  0  0  0
 23 61  1  0  0  0  0
 24 26  1  0  0  0  0
 24 62  1  0  0  0  0
 25 63  1  0  0  0  0
 26 64  1  0  0  0  0
 27 28  1  0  0  0  0
 28 29  2  0  0  0  0
 28 66  1  0  0  0  0
 29 30  1  0  0  0  0
 29 67  1  0  0  0  0
 30 31  2  0  0  0  0
 30 32  1  0  0  0  0
 31 33  1  0  0  0  0
 31 68  1  0  0  0  0
 32 34  2  0  0  0  0
 32 69  1  0  0  0  0
 33 35  2  0  0  0  0
 33 70  1  0  0  0  0
 34 35  1  0  0  0  0
 34 71  1  0  0  0  0
 35 72  1  0  0  0  0
M  END
> <PUBCHEM_COMPOUND_CID>
44436731

> <PUBCHEM_COMPOUND_CANONICALIZED>
1

> <PUBCHEM_CACTVS_COMPLEXITY>
599

> <PUBCHEM_CACTVS_HBOND_ACCEPTOR>
3

> <PUBCHEM_CACTVS_HBOND_DONOR>
1

> <PUBCHEM_CACTVS_ROTATABLE_BOND>
10

> <PUBCHEM_CACTVS_SUBSKEYS>
AAADcfB7IAAAAAAAAAAAAAAAAAAAAAAAAAAwYMAABYAAAAABUAAAHgAQAAAADCjBmAQwAIPAAACIAiFSEACCAAAgAAAIiIAIBMgIYCKA0RGUIAhglgCIiYcQgMAOAAAAAAAAAAAAAAAAAAAAAAAAAAAAAA==

> <PUBCHEM_IUPAC_OPENEYE_NAME>
(E)-N-[4-(4-benzhydryl-1,4-diazepan-1-yl)butyl]-3-phenyl-prop-2-enamide

> <PUBCHEM_IUPAC_CAS_NAME>
(E)-N-[4-[4-(diphenylmethyl)-1,4-diazepan-1-yl]butyl]-3-phenyl-2-propenamide

> <PUBCHEM_IUPAC_NAME_MARKUP>
(<I>E</I>)-<I>N</I>-[4-(4-benzhydryl-1,4-diazepan-1-yl)butyl]-3-phenylprop-2-enamide

> <PUBCHEM_IUPAC_NAME>
(E)-N-[4-(4-benzhydryl-1,4-diazepan-1-yl)butyl]-3-phenylprop-2-enamide

> <PUBCHEM_IUPAC_SYSTEMATIC_NAME>
(E)-N-[4-[4-(diphenylmethyl)-1,4-diazepan-1-yl]butyl]-3-phenyl-prop-2-enamide

> <PUBCHEM_IUPAC_TRADITIONAL_NAME>
(E)-N-[4-(4-benzhydryl-1,4-diazepan-1-yl)butyl]-3-phenyl-acrylamide

> <PUBCHEM_IUPAC_INCHI>
InChI=1S/C31H37N3O/c35-30(20-19-27-13-4-1-5-14-27)32-21-10-11-22-33-23-12-24-34(26-25-33)31(28-15-6-2-7-16-28)29-17-8-3-9-18-29/h1-9,13-20,31H,10-12,21-26H2,(H,32,35)/b20-19+

> <PUBCHEM_IUPAC_INCHIKEY>
REVIOUORWMQFEZ-FMQUCBEESA-N

> <PUBCHEM_XLOGP3_AA>
5.7

> <PUBCHEM_EXACT_MASS>
467.293662812

> <PUBCHEM_MOLECULAR_FORMULA>
C31H37N3O

> <PUBCHEM_MOLECULAR_WEIGHT>
467.6

> <PUBCHEM_OPENEYE_CAN_SMILES>
C1CN(CCN(C1)C(C2=CC=CC=C2)C3=CC=CC=C3)CCCCNC(=O)C=CC4=CC=CC=C4

> <PUBCHEM_OPENEYE_ISO_SMILES>
C1CN(CCN(C1)C(C2=CC=CC=C2)C3=CC=CC=C3)CCCCNC(=O)/C=C/C4=CC=CC=C4

> <PUBCHEM_CACTVS_TPSA>
35.6

> <PUBCHEM_MONOISOTOPIC_WEIGHT>
467.293662812

> <PUBCHEM_TOTAL_CHARGE>
0

> <PUBCHEM_HEAVY_ATOM_COUNT>
35

> <PUBCHEM_ATOM_DEF_STEREO_COUNT>
0

> <PUBCHEM_ATOM_UDEF_STEREO_COUNT>
0

> <PUBCHEM_BOND_DEF_STEREO_COUNT>
1

> <PUBCHEM_BOND_UDEF_STEREO_COUNT>
0

> <PUBCHEM_ISOTOPIC_ATOM_COUNT>
0

> <PUBCHEM_COMPONENT_COUNT>
1

> <PUBCHEM_CACTVS_TAUTO_COUNT>
-1

> <PUBCHEM_COORDINATE_TYPE>
1
5
255

> <PUBCHEM_BONDANNOTATIONS>
13  16  8
13  18  8
14  17  8
14  19  8
16  21  8
17  22  8
18  23  8
19  24  8
21  25  8
22  26  8
23  25  8
24  26  8
30  31  8
30  32  8
31  33  8
32  34  8
33  35  8
34  35  8

$$$$
