90644064
  -OEChem-09292322342D

 53 56  0     0  0  0  0  0  0999 V2000
   12.7619   -4.3971    0.0000 Cl  0  0  0  0  0  0  0  0  0  0  0  0
    4.6783    4.2018    0.0000 O   0  0  0  0  0  0  0  0  0  0  0  0
    9.7619    0.7990    0.0000 N   0  0  0  0  0  0  0  0  0  0  0  0
   10.7619   -0.9330    0.0000 N   0  0  0  0  0  0  0  0  0  0  0  0
    4.6783    2.5924    0.0000 N   0  0  0  0  0  0  0  0  0  0  0  0
   10.7619    0.7990    0.0000 C   0  0  0  0  0  0  0  0  0  0  0  0
    9.2619   -0.0670    0.0000 C   0  0  0  0  0  0  0  0  0  0  0  0
   11.2619   -0.0670    0.0000 C   0  0  0  0  0  0  0  0  0  0  0  0
    9.7619   -0.9330    0.0000 C   0  0  0  0  0  0  0  0  0  0  0  0
    9.2619    1.6651    0.0000 C   0  0  0  0  0  0  0  0  0  0  0  0
    8.2619    1.6651    0.0000 C   0  0  0  0  0  0  0  0  0  0  0  0
    7.7619    2.5311    0.0000 C   0  0  0  0  0  0  0  0  0  0  0  0
   11.2619   -1.7990    0.0000 C   0  0  0  0  0  0  0  0  0  0  0  0
    6.7619    2.5311    0.0000 C   0  0  0  0  0  0  0  0  0  0  0  0
    6.2619    3.3971    0.0000 C   0  0  0  0  0  0  0  0  0  0  0  0
   12.2619   -1.7990    0.0000 C   0  0  0  0  0  0  0  0  0  0  0  0
   10.7619   -2.6651    0.0000 C   0  0  0  0  0  0  0  0  0  0  0  0
    5.2619    3.3971    0.0000 C   0  0  0  0  0  0  0  0  0  0  0  0
   12.7619   -2.6651    0.0000 C   0  0  0  0  0  0  0  0  0  0  0  0
   11.2619   -3.5311    0.0000 C   0  0  0  0  0  0  0  0  0  0  0  0
   12.2619   -3.5311    0.0000 C   0  0  0  0  0  0  0  0  0  0  0  0
    3.7320    3.8971    0.0000 C   0  0  0  0  0  0  0  0  0  0  0  0
    3.7320    2.8971    0.0000 C   0  0  0  0  0  0  0  0  0  0  0  0
    2.8660    4.3971    0.0000 C   0  0  0  0  0  0  0  0  0  0  0  0
    2.8660    2.3971    0.0000 C   0  0  0  0  0  0  0  0  0  0  0  0
    2.0000    3.8971    0.0000 C   0  0  0  0  0  0  0  0  0  0  0  0
    2.0000    2.8971    0.0000 C   0  0  0  0  0  0  0  0  0  0  0  0
   11.3445    1.0111    0.0000 H   0  0  0  0  0  0  0  0  0  0  0  0
   10.6542    1.4096    0.0000 H   0  0  0  0  0  0  0  0  0  0  0  0
    8.7869    0.3315    0.0000 H   0  0  0  0  0  0  0  0  0  0  0  0
    8.7869   -0.4655    0.0000 H   0  0  0  0  0  0  0  0  0  0  0  0
   11.7368   -0.4655    0.0000 H   0  0  0  0  0  0  0  0  0  0  0  0
   11.7368    0.3315    0.0000 H   0  0  0  0  0  0  0  0  0  0  0  0
    9.1793   -1.1451    0.0000 H   0  0  0  0  0  0  0  0  0  0  0  0
    9.8695   -1.5436    0.0000 H   0  0  0  0  0  0  0  0  0  0  0  0
    9.8445    1.8771    0.0000 H   0  0  0  0  0  0  0  0  0  0  0  0
    9.1542    2.2756    0.0000 H   0  0  0  0  0  0  0  0  0  0  0  0
    7.6793    1.4530    0.0000 H   0  0  0  0  0  0  0  0  0  0  0  0
    8.3695    1.0545    0.0000 H   0  0  0  0  0  0  0  0  0  0  0  0
    8.3445    2.7431    0.0000 H   0  0  0  0  0  0  0  0  0  0  0  0
    7.6542    3.1417    0.0000 H   0  0  0  0  0  0  0  0  0  0  0  0
    6.1793    2.3190    0.0000 H   0  0  0  0  0  0  0  0  0  0  0  0
    6.8695    1.9205    0.0000 H   0  0  0  0  0  0  0  0  0  0  0  0
    6.8445    3.6092    0.0000 H   0  0  0  0  0  0  0  0  0  0  0  0
    6.1542    4.0077    0.0000 H   0  0  0  0  0  0  0  0  0  0  0  0
   12.5719   -1.2621    0.0000 H   0  0  0  0  0  0  0  0  0  0  0  0
   10.1419   -2.6651    0.0000 H   0  0  0  0  0  0  0  0  0  0  0  0
   13.3819   -2.6651    0.0000 H   0  0  0  0  0  0  0  0  0  0  0  0
   10.9519   -4.0680    0.0000 H   0  0  0  0  0  0  0  0  0  0  0  0
    2.8660    5.0171    0.0000 H   0  0  0  0  0  0  0  0  0  0  0  0
    2.8660    1.7771    0.0000 H   0  0  0  0  0  0  0  0  0  0  0  0
    1.4631    4.2071    0.0000 H   0  0  0  0  0  0  0  0  0  0  0  0
    1.4631    2.5871    0.0000 H   0  0  0  0  0  0  0  0  0  0  0  0
  1 21  1  0  0  0  0
  2 18  1  0  0  0  0
  2 22  1  0  0  0  0
  3  6  1  0  0  0  0
  3  7  1  0  0  0  0
  3 10  1  0  0  0  0
  4  8  1  0  0  0  0
  4  9  1  0  0  0  0
  4 13  1  0  0  0  0
  5 18  2  0  0  0  0
  5 23  1  0  0  0  0
  6  8  1  0  0  0  0
  6 28  1  0  0  0  0
  6 29  1  0  0  0  0
  7  9  1  0  0  0  0
  7 30  1  0  0  0  0
  7 31  1  0  0  0  0
  8 32  1  0  0  0  0
  8 33  1  0  0  0  0
  9 34  1  0  0  0  0
  9 35  1  0  0  0  0
 10 11  1  0  0  0  0
 10 36  1  0  0  0  0
 10 37  1  0  0  0  0
 11 12  1  0  0  0  0
 11 38  1  0  0  0  0
 11 39  1  0  0  0  0
 12 14  1  0  0  0  0
 12 40  1  0  0  0  0
 12 41  1  0  0  0  0
 13 16  2  0  0  0  0
 13 17  1  0  0  0  0
 14 15  1  0  0  0  0
 14 42  1  0  0  0  0
 14 43  1  0  0  0  0
 15 18  1  0  0  0  0
 15 44  1  0  0  0  0
 15 45  1  0  0  0  0
 16 19  1  0  0  0  0
 16 46  1  0  0  0  0
 17 20  2  0  0  0  0
 17 47  1  0  0  0  0
 19 21  2  0  0  0  0
 19 48  1  0  0  0  0
 20 21  1  0  0  0  0
 20 49  1  0  0  0  0
 22 23  1  0  0  0  0
 22 24  2  0  0  0  0
 23 25  2  0  0  0  0
 24 26  1  0  0  0  0
 24 50  1  0  0  0  0
 25 27  1  0  0  0  0
 25 51  1  0  0  0  0
 26 27  2  0  0  0  0
 26 52  1  0  0  0  0
 27 53  1  0  0  0  0
M  END
> <PUBCHEM_COMPOUND_CID>
90644064

> <PUBCHEM_COMPOUND_CANONICALIZED>
1

> <PUBCHEM_CACTVS_COMPLEXITY>
435

> <PUBCHEM_CACTVS_HBOND_ACCEPTOR>
4

> <PUBCHEM_CACTVS_HBOND_DONOR>
0

> <PUBCHEM_CACTVS_ROTATABLE_BOND>
7

> <PUBCHEM_CACTVS_SUBSKEYS>
AAADceB7IAAEAAAAAAAAAAAAAAAAAWAAAAA8YIAAAAAAAFgB9AAAHgIAAAAACA7BliQwxrMIFECoAaVyVASCiCAvZyAImCG/btgOZrLFt7ufOSjkxBHY6YeYSAAAAABAAAAAEAAAAIAAAAAgAAAAAAAAAA==

> <PUBCHEM_IUPAC_OPENEYE_NAME>
2-[5-[4-(4-chlorophenyl)piperazin-1-yl]pentyl]-1,3-benzoxazole

> <PUBCHEM_IUPAC_CAS_NAME>
2-[5-[4-(4-chlorophenyl)-1-piperazinyl]pentyl]-1,3-benzoxazole

> <PUBCHEM_IUPAC_NAME_MARKUP>
2-[5-[4-(4-chlorophenyl)piperazin-1-yl]pentyl]-1,3-benzoxazole

> <PUBCHEM_IUPAC_NAME>
2-[5-[4-(4-chlorophenyl)piperazin-1-yl]pentyl]-1,3-benzoxazole

> <PUBCHEM_IUPAC_SYSTEMATIC_NAME>
2-[5-[4-(4-chlorophenyl)piperazin-1-yl]pentyl]-1,3-benzoxazole

> <PUBCHEM_IUPAC_TRADITIONAL_NAME>
2-[5-[4-(4-chlorophenyl)piperazino]pentyl]-1,3-benzoxazole

> <PUBCHEM_IUPAC_INCHI>
InChI=1S/C22H26ClN3O/c23-18-9-11-19(12-10-18)26-16-14-25(15-17-26)13-5-1-2-8-22-24-20-6-3-4-7-21(20)27-22/h3-4,6-7,9-12H,1-2,5,8,13-17H2

> <PUBCHEM_IUPAC_INCHIKEY>
RTLWHVNMZFCSDU-UHFFFAOYSA-N

> <PUBCHEM_XLOGP3_AA>
5.4

> <PUBCHEM_EXACT_MASS>
383.1764402

> <PUBCHEM_MOLECULAR_FORMULA>
C22H26ClN3O

> <PUBCHEM_MOLECULAR_WEIGHT>
383.9

> <PUBCHEM_OPENEYE_CAN_SMILES>
C1CN(CCN1CCCCCC2=NC3=CC=CC=C3O2)C4=CC=C(C=C4)Cl

> <PUBCHEM_OPENEYE_ISO_SMILES>
C1CN(CCN1CCCCCC2=NC3=CC=CC=C3O2)C4=CC=C(C=C4)Cl

> <PUBCHEM_CACTVS_TPSA>
32.5

> <PUBCHEM_MONOISOTOPIC_WEIGHT>
383.1764402

> <PUBCHEM_TOTAL_CHARGE>
0

> <PUBCHEM_HEAVY_ATOM_COUNT>
27

> <PUBCHEM_ATOM_DEF_STEREO_COUNT>
0

> <PUBCHEM_ATOM_UDEF_STEREO_COUNT>
0

> <PUBCHEM_BOND_DEF_STEREO_COUNT>
0

> <PUBCHEM_BOND_UDEF_STEREO_COUNT>
0

> <PUBCHEM_ISOTOPIC_ATOM_COUNT>
0

> <PUBCHEM_COMPONENT_COUNT>
1

> <PUBCHEM_CACTVS_TAUTO_COUNT>
-1

> <PUBCHEM_COORDINATE_TYPE>
1
5
255

> <PUBCHEM_BONDANNOTATIONS>
13  16  8
13  17  8
16  19  8
17  20  8
19  21  8
2  18  8
2  22  8
20  21  8
22  23  8
22  24  8
23  25  8
24  26  8
25  27  8
26  27  8
5  18  8
5  23  8

$$$$
