71733935
  -OEChem-09292322002D

 65 67  0     1  0  0  0  0  0999 V2000
   10.3312    0.1550    0.0000 O   0  0  0  0  0  0  0  0  0  0  0  0
    6.8671   -3.8450    0.0000 N   0  0  3  0  0  0  0  0  0  0  0  0
    8.5991    0.1550    0.0000 N   0  0  0  0  0  0  0  0  0  0  0  0
    6.0010   -4.3450    0.0000 C   0  0  1  0  0  0  0  0  0  0  0  0
    5.1350   -3.8450    0.0000 C   0  0  0  0  0  0  0  0  0  0  0  0
    6.0010   -5.3450    0.0000 C   0  0  0  0  0  0  0  0  0  0  0  0
    6.8671   -2.8450    0.0000 C   0  0  0  0  0  0  0  0  0  0  0  0
    4.2690   -4.3450    0.0000 C   0  0  0  0  0  0  0  0  0  0  0  0
    7.7331   -4.3450    0.0000 C   0  0  0  0  0  0  0  0  0  0  0  0
    7.7331   -2.3450    0.0000 C   0  0  0  0  0  0  0  0  0  0  0  0
    5.1350   -5.8450    0.0000 C   0  0  0  0  0  0  0  0  0  0  0  0
    4.2690   -5.3450    0.0000 C   0  0  0  0  0  0  0  0  0  0  0  0
    7.7331   -5.3450    0.0000 C   0  0  0  0  0  0  0  0  0  0  0  0
    7.7331   -1.3450    0.0000 C   0  0  0  0  0  0  0  0  0  0  0  0
    8.5991   -0.8450    0.0000 C   0  0  0  0  0  0  0  0  0  0  0  0
    8.5991   -5.8450    0.0000 C   0  0  0  0  0  0  0  0  0  0  0  0
    3.4030   -5.8450    0.0000 C   0  0  0  0  0  0  0  0  0  0  0  0
    9.4651    0.6550    0.0000 C   0  0  0  0  0  0  0  0  0  0  0  0
    2.5369   -6.3450    0.0000 C   0  0  0  0  0  0  0  0  0  0  0  0
    9.4651    1.6550    0.0000 C   0  0  0  0  0  0  0  0  0  0  0  0
    8.5991    2.1550    0.0000 C   0  0  0  0  0  0  0  0  0  0  0  0
   10.3312    2.1550    0.0000 C   0  0  0  0  0  0  0  0  0  0  0  0
    9.4651    3.6550    0.0000 C   0  0  0  0  0  0  0  0  0  0  0  0
    8.5991    3.1550    0.0000 C   0  0  0  0  0  0  0  0  0  0  0  0
   10.3312    3.1550    0.0000 C   0  0  0  0  0  0  0  0  0  0  0  0
    9.4651    4.6550    0.0000 C   0  0  0  0  0  0  0  0  0  0  0  0
    8.5991    5.1550    0.0000 C   0  0  0  0  0  0  0  0  0  0  0  0
   10.3312    5.1550    0.0000 C   0  0  0  0  0  0  0  0  0  0  0  0
    8.5991    6.1550    0.0000 C   0  0  0  0  0  0  0  0  0  0  0  0
   10.3312    6.1550    0.0000 C   0  0  0  0  0  0  0  0  0  0  0  0
    9.4651    6.6550    0.0000 C   0  0  0  0  0  0  0  0  0  0  0  0
    6.0010   -3.7250    0.0000 H   0  0  0  0  0  0  0  0  0  0  0  0
    5.5335   -3.3700    0.0000 H   0  0  0  0  0  0  0  0  0  0  0  0
    4.7365   -3.3700    0.0000 H   0  0  0  0  0  0  0  0  0  0  0  0
    6.2131   -5.9276    0.0000 H   0  0  0  0  0  0  0  0  0  0  0  0
    6.6116   -5.2373    0.0000 H   0  0  0  0  0  0  0  0  0  0  0  0
    6.6550   -2.2624    0.0000 H   0  0  0  0  0  0  0  0  0  0  0  0
    6.2565   -2.9527    0.0000 H   0  0  0  0  0  0  0  0  0  0  0  0
    4.0569   -3.7624    0.0000 H   0  0  0  0  0  0  0  0  0  0  0  0
    3.6584   -4.4527    0.0000 H   0  0  0  0  0  0  0  0  0  0  0  0
    8.3437   -4.4527    0.0000 H   0  0  0  0  0  0  0  0  0  0  0  0
    7.9451   -3.7624    0.0000 H   0  0  0  0  0  0  0  0  0  0  0  0
    7.9451   -2.9276    0.0000 H   0  0  0  0  0  0  0  0  0  0  0  0
    8.3437   -2.2373    0.0000 H   0  0  0  0  0  0  0  0  0  0  0  0
    5.1350   -6.4650    0.0000 H   0  0  0  0  0  0  0  0  0  0  0  0
    7.1225   -5.2373    0.0000 H   0  0  0  0  0  0  0  0  0  0  0  0
    7.5210   -5.9276    0.0000 H   0  0  0  0  0  0  0  0  0  0  0  0
    7.5210   -0.7624    0.0000 H   0  0  0  0  0  0  0  0  0  0  0  0
    7.1225   -1.4527    0.0000 H   0  0  0  0  0  0  0  0  0  0  0  0
    8.8112   -1.4276    0.0000 H   0  0  0  0  0  0  0  0  0  0  0  0
    9.2097   -0.7373    0.0000 H   0  0  0  0  0  0  0  0  0  0  0  0
    8.2891   -6.3819    0.0000 H   0  0  0  0  0  0  0  0  0  0  0  0
    9.1360   -6.1550    0.0000 H   0  0  0  0  0  0  0  0  0  0  0  0
    8.9091   -5.3081    0.0000 H   0  0  0  0  0  0  0  0  0  0  0  0
    8.0622    0.4650    0.0000 H   0  0  0  0  0  0  0  0  0  0  0  0
    2.0000   -6.6550    0.0000 H   0  0  0  0  0  0  0  0  0  0  0  0
    8.0622    1.8450    0.0000 H   0  0  0  0  0  0  0  0  0  0  0  0
   10.8681    1.8450    0.0000 H   0  0  0  0  0  0  0  0  0  0  0  0
    8.0622    3.4650    0.0000 H   0  0  0  0  0  0  0  0  0  0  0  0
   10.8681    3.4650    0.0000 H   0  0  0  0  0  0  0  0  0  0  0  0
    8.0622    4.8450    0.0000 H   0  0  0  0  0  0  0  0  0  0  0  0
   10.8681    4.8450    0.0000 H   0  0  0  0  0  0  0  0  0  0  0  0
    8.0622    6.4650    0.0000 H   0  0  0  0  0  0  0  0  0  0  0  0
   10.8681    6.4650    0.0000 H   0  0  0  0  0  0  0  0  0  0  0  0
    9.4651    7.2750    0.0000 H   0  0  0  0  0  0  0  0  0  0  0  0
  1 18  2  0  0  0  0
  4  2  1  6  0  0  0
  2  7  1  0  0  0  0
  2  9  1  0  0  0  0
  3 15  1  0  0  0  0
  3 18  1  0  0  0  0
  3 55  1  0  0  0  0
  4  5  1  0  0  0  0
  4  6  1  0  0  0  0
  4 32  1  0  0  0  0
  5  8  1  0  0  0  0
  5 33  1  0  0  0  0
  5 34  1  0  0  0  0
  6 11  1  0  0  0  0
  6 35  1  0  0  0  0
  6 36  1  0  0  0  0
  7 10  1  0  0  0  0
  7 37  1  0  0  0  0
  7 38  1  0  0  0  0
  8 12  1  0  0  0  0
  8 39  1  0  0  0  0
  8 40  1  0  0  0  0
  9 13  1  0  0  0  0
  9 41  1  0  0  0  0
  9 42  1  0  0  0  0
 10 14  1  0  0  0  0
 10 43  1  0  0  0  0
 10 44  1  0  0  0  0
 11 12  2  0  0  0  0
 11 45  1  0  0  0  0
 12 17  1  0  0  0  0
 13 16  1  0  0  0  0
 13 46  1  0  0  0  0
 13 47  1  0  0  0  0
 14 15  1  0  0  0  0
 14 48  1  0  0  0  0
 14 49  1  0  0  0  0
 15 50  1  0  0  0  0
 15 51  1  0  0  0  0
 16 52  1  0  0  0  0
 16 53  1  0  0  0  0
 16 54  1  0  0  0  0
 17 19  3  0  0  0  0
 18 20  1  0  0  0  0
 19 56  1  0  0  0  0
 20 21  2  0  0  0  0
 20 22  1  0  0  0  0
 21 24  1  0  0  0  0
 21 57  1  0  0  0  0
 22 25  2  0  0  0  0
 22 58  1  0  0  0  0
 23 24  2  0  0  0  0
 23 25  1  0  0  0  0
 23 26  1  0  0  0  0
 24 59  1  0  0  0  0
 25 60  1  0  0  0  0
 26 27  2  0  0  0  0
 26 28  1  0  0  0  0
 27 29  1  0  0  0  0
 27 61  1  0  0  0  0
 28 30  2  0  0  0  0
 28 62  1  0  0  0  0
 29 31  2  0  0  0  0
 29 63  1  0  0  0  0
 30 31  1  0  0  0  0
 30 64  1  0  0  0  0
 31 65  1  0  0  0  0
M  END
> <PUBCHEM_COMPOUND_CID>
71733935

> <PUBCHEM_COMPOUND_CANONICALIZED>
1

> <PUBCHEM_CACTVS_COMPLEXITY>
616

> <PUBCHEM_CACTVS_HBOND_ACCEPTOR>
2

> <PUBCHEM_CACTVS_HBOND_DONOR>
1

> <PUBCHEM_CACTVS_ROTATABLE_BOND>
11

> <PUBCHEM_CACTVS_SUBSKEYS>
AAADcfB7IAAAAAAAAAAAAAAAAAAAAAAAAAAwYIAAAAAAAAABQAAAHgAQAAAADCjBmAQyAIPAAADIGiFSEAiCAAAkAAAIiIEIBMgIIDKAlRGEIQhglgCIiYcYiMCOwAAAAAAAAACAAAAAAAAAAAAAAAAAAA==

> <PUBCHEM_IUPAC_OPENEYE_NAME>
N-[4-[[(1S)-4-ethynylcyclohex-3-en-1-yl]-propyl-amino]butyl]-4-phenyl-benzamide

> <PUBCHEM_IUPAC_CAS_NAME>
N-[4-[[(1S)-4-ethynyl-1-cyclohex-3-enyl]-propylamino]butyl]-4-phenylbenzamide

> <PUBCHEM_IUPAC_NAME_MARKUP>
<I>N</I>-[4-[[(1<I>S</I>)-4-ethynylcyclohex-3-en-1-yl]-propylamino]butyl]-4-phenylbenzamide

> <PUBCHEM_IUPAC_NAME>
N-[4-[[(1S)-4-ethynylcyclohex-3-en-1-yl]-propylamino]butyl]-4-phenylbenzamide

> <PUBCHEM_IUPAC_SYSTEMATIC_NAME>
N-[4-[[(1S)-4-ethynylcyclohex-3-en-1-yl]-propyl-amino]butyl]-4-phenyl-benzamide

> <PUBCHEM_IUPAC_TRADITIONAL_NAME>
N-[4-[[(1S)-4-ethynylcyclohex-3-en-1-yl]-propyl-amino]butyl]-4-phenyl-benzamide

> <PUBCHEM_IUPAC_INCHI>
InChI=1S/C28H34N2O/c1-3-21-30(27-18-12-23(4-2)13-19-27)22-9-8-20-29-28(31)26-16-14-25(15-17-26)24-10-6-5-7-11-24/h2,5-7,10-12,14-17,27H,3,8-9,13,18-22H2,1H3,(H,29,31)/t27-/m1/s1

> <PUBCHEM_IUPAC_INCHIKEY>
PWZPBZQTTHOCIS-HHHXNRCGSA-N

> <PUBCHEM_XLOGP3_AA>
5.8

> <PUBCHEM_EXACT_MASS>
414.267113712

> <PUBCHEM_MOLECULAR_FORMULA>
C28H34N2O

> <PUBCHEM_MOLECULAR_WEIGHT>
414.6

> <PUBCHEM_OPENEYE_CAN_SMILES>
CCCN(CCCCNC(=O)C1=CC=C(C=C1)C2=CC=CC=C2)C3CCC(=CC3)C#C

> <PUBCHEM_OPENEYE_ISO_SMILES>
CCCN(CCCCNC(=O)C1=CC=C(C=C1)C2=CC=CC=C2)[C@H]3CCC(=CC3)C#C

> <PUBCHEM_CACTVS_TPSA>
32.3

> <PUBCHEM_MONOISOTOPIC_WEIGHT>
414.267113712

> <PUBCHEM_TOTAL_CHARGE>
0

> <PUBCHEM_HEAVY_ATOM_COUNT>
31

> <PUBCHEM_ATOM_DEF_STEREO_COUNT>
1

> <PUBCHEM_ATOM_UDEF_STEREO_COUNT>
0

> <PUBCHEM_BOND_DEF_STEREO_COUNT>
0

> <PUBCHEM_BOND_UDEF_STEREO_COUNT>
0

> <PUBCHEM_ISOTOPIC_ATOM_COUNT>
0

> <PUBCHEM_COMPONENT_COUNT>
1

> <PUBCHEM_CACTVS_TAUTO_COUNT>
-1

> <PUBCHEM_COORDINATE_TYPE>
1
5
255

> <PUBCHEM_BONDANNOTATIONS>
4  2  6
20  21  8
20  22  8
21  24  8
22  25  8
23  24  8
23  25  8
26  27  8
26  28  8
27  29  8
28  30  8
29  31  8
30  31  8

$$$$
