45272425
  -OEChem-09292322482D

 53 56  0     1  0  0  0  0  0999 V2000
   14.3639   -1.8412    0.0000 F   0  0  0  0  0  0  0  0  0  0  0  0
   14.1426   -0.4444    0.0000 F   0  0  0  0  0  0  0  0  0  0  0  0
   12.9671   -2.0625    0.0000 F   0  0  0  0  0  0  0  0  0  0  0  0
    8.0406   -1.5636    0.0000 O   0  0  0  0  0  0  0  0  0  0  0  0
    7.7619    0.1964    0.0000 N   0  0  0  0  0  0  0  0  0  0  0  0
    9.3007   -0.3036    0.0000 N   0  0  0  0  0  0  0  0  0  0  0  0
    5.2619    1.0625    0.0000 N   0  0  0  0  0  0  0  0  0  0  0  0
    8.3497    1.0054    0.0000 C   0  0  0  0  0  0  0  0  0  0  0  0
    9.3007    0.6964    0.0000 C   0  0  0  0  0  0  0  0  0  0  0  0
    6.7619    0.1964    0.0000 C   0  0  0  0  0  0  0  0  0  0  0  0
    6.2619    1.0625    0.0000 C   0  0  0  0  0  0  0  0  0  0  0  0
   10.1097   -0.8913    0.0000 C   0  0  3  0  0  0  0  0  0  0  0  0
    8.3497   -0.6126    0.0000 C   0  0  0  0  0  0  0  0  0  0  0  0
    4.6783    1.8672    0.0000 C   0  0  0  0  0  0  0  0  0  0  0  0
    4.6783    0.2577    0.0000 C   0  0  0  0  0  0  0  0  0  0  0  0
    3.7320    1.5625    0.0000 C   0  0  0  0  0  0  0  0  0  0  0  0
    3.7320    0.5625    0.0000 C   0  0  0  0  0  0  0  0  0  0  0  0
   11.0233   -0.4846    0.0000 C   0  0  0  0  0  0  0  0  0  0  0  0
   10.0052   -1.8859    0.0000 C   0  0  0  0  0  0  0  0  0  0  0  0
    2.8660    2.0625    0.0000 C   0  0  0  0  0  0  0  0  0  0  0  0
    2.8660    0.0625    0.0000 C   0  0  0  0  0  0  0  0  0  0  0  0
   11.8323   -1.0724    0.0000 C   0  0  0  0  0  0  0  0  0  0  0  0
   11.1278    0.5099    0.0000 C   0  0  0  0  0  0  0  0  0  0  0  0
    2.0000    1.5625    0.0000 C   0  0  0  0  0  0  0  0  0  0  0  0
    2.0000    0.5625    0.0000 C   0  0  0  0  0  0  0  0  0  0  0  0
   12.7458   -0.6657    0.0000 C   0  0  0  0  0  0  0  0  0  0  0  0
   12.0414    0.9166    0.0000 C   0  0  0  0  0  0  0  0  0  0  0  0
   12.8504    0.3289    0.0000 C   0  0  0  0  0  0  0  0  0  0  0  0
   13.5549   -1.2534    0.0000 C   0  0  0  0  0  0  0  0  0  0  0  0
    8.6018    1.5718    0.0000 H   0  0  0  0  0  0  0  0  0  0  0  0
    7.8127    1.3154    0.0000 H   0  0  0  0  0  0  0  0  0  0  0  0
    9.9173    0.6316    0.0000 H   0  0  0  0  0  0  0  0  0  0  0  0
    9.4296    1.3029    0.0000 H   0  0  0  0  0  0  0  0  0  0  0  0
    6.1793   -0.0156    0.0000 H   0  0  0  0  0  0  0  0  0  0  0  0
    6.8695   -0.4141    0.0000 H   0  0  0  0  0  0  0  0  0  0  0  0
    6.8445    1.2745    0.0000 H   0  0  0  0  0  0  0  0  0  0  0  0
    6.1542    1.6730    0.0000 H   0  0  0  0  0  0  0  0  0  0  0  0
    9.5433   -1.1435    0.0000 H   0  0  0  0  0  0  0  0  0  0  0  0
    5.2156    2.1764    0.0000 H   0  0  0  0  0  0  0  0  0  0  0  0
    4.4272    2.4341    0.0000 H   0  0  0  0  0  0  0  0  0  0  0  0
    4.4272   -0.3092    0.0000 H   0  0  0  0  0  0  0  0  0  0  0  0
    5.2156   -0.0515    0.0000 H   0  0  0  0  0  0  0  0  0  0  0  0
    9.3886   -1.8211    0.0000 H   0  0  0  0  0  0  0  0  0  0  0  0
    9.9404   -2.5025    0.0000 H   0  0  0  0  0  0  0  0  0  0  0  0
   10.6218   -1.9507    0.0000 H   0  0  0  0  0  0  0  0  0  0  0  0
    2.8660    2.6825    0.0000 H   0  0  0  0  0  0  0  0  0  0  0  0
    2.8660   -0.5575    0.0000 H   0  0  0  0  0  0  0  0  0  0  0  0
   11.7675   -1.6890    0.0000 H   0  0  0  0  0  0  0  0  0  0  0  0
   10.6262    0.8743    0.0000 H   0  0  0  0  0  0  0  0  0  0  0  0
    1.4631    1.8725    0.0000 H   0  0  0  0  0  0  0  0  0  0  0  0
    1.4631    0.2525    0.0000 H   0  0  0  0  0  0  0  0  0  0  0  0
   12.1062    1.5332    0.0000 H   0  0  0  0  0  0  0  0  0  0  0  0
   13.4168    0.5810    0.0000 H   0  0  0  0  0  0  0  0  0  0  0  0
  1 29  1  0  0  0  0
  2 29  1  0  0  0  0
  3 29  1  0  0  0  0
  4 13  2  0  0  0  0
  5  8  1  0  0  0  0
  5 10  1  0  0  0  0
  5 13  1  0  0  0  0
  6  9  1  0  0  0  0
  6 12  1  0  0  0  0
  6 13  1  0  0  0  0
  7 11  1  0  0  0  0
  7 14  1  0  0  0  0
  7 15  1  0  0  0  0
  8  9  1  0  0  0  0
  8 30  1  0  0  0  0
  8 31  1  0  0  0  0
  9 32  1  0  0  0  0
  9 33  1  0  0  0  0
 10 11  1  0  0  0  0
 10 34  1  0  0  0  0
 10 35  1  0  0  0  0
 11 36  1  0  0  0  0
 11 37  1  0  0  0  0
 12 18  1  0  0  0  0
 12 19  1  0  0  0  0
 12 38  1  0  0  0  0
 14 16  1  0  0  0  0
 14 39  1  0  0  0  0
 14 40  1  0  0  0  0
 15 17  1  0  0  0  0
 15 41  1  0  0  0  0
 15 42  1  0  0  0  0
 16 17  1  0  0  0  0
 16 20  2  0  0  0  0
 17 21  2  0  0  0  0
 18 22  2  0  0  0  0
 18 23  1  0  0  0  0
 19 43  1  0  0  0  0
 19 44  1  0  0  0  0
 19 45  1  0  0  0  0
 20 24  1  0  0  0  0
 20 46  1  0  0  0  0
 21 25  1  0  0  0  0
 21 47  1  0  0  0  0
 22 26  1  0  0  0  0
 22 48  1  0  0  0  0
 23 27  2  0  0  0  0
 23 49  1  0  0  0  0
 24 25  2  0  0  0  0
 24 50  1  0  0  0  0
 25 51  1  0  0  0  0
 26 28  2  0  0  0  0
 26 29  1  0  0  0  0
 27 28  1  0  0  0  0
 27 52  1  0  0  0  0
 28 53  1  0  0  0  0
M  END
> <PUBCHEM_COMPOUND_CID>
45272425

> <PUBCHEM_COMPOUND_CANONICALIZED>
1

> <PUBCHEM_CACTVS_COMPLEXITY>
570

> <PUBCHEM_CACTVS_HBOND_ACCEPTOR>
5

> <PUBCHEM_CACTVS_HBOND_DONOR>
0

> <PUBCHEM_CACTVS_ROTATABLE_BOND>
5

> <PUBCHEM_CACTVS_SUBSKEYS>
AAADceB7IYAAAAAAAAAAAAAAAAAAAWLAAAAwYAAAAAAAAFgBQAAAHwAAAAAADCjBGBQzAIMAAACIAiBCEACCAAAgAAAIiAAIBIiIYCKAkRGUIAhohgKIiAcQgMAOgAACAAAQAAAAAAQAACAAAAAAAAAAAA==

> <PUBCHEM_IUPAC_OPENEYE_NAME>
1-(2-isoindolin-2-ylethyl)-3-[1-[3-(trifluoromethyl)phenyl]ethyl]imidazolidin-2-one

> <PUBCHEM_IUPAC_CAS_NAME>
1-[2-(1,3-dihydroisoindol-2-yl)ethyl]-3-[1-[3-(trifluoromethyl)phenyl]ethyl]-2-imidazolidinone

> <PUBCHEM_IUPAC_NAME_MARKUP>
1-[2-(1,3-dihydroisoindol-2-yl)ethyl]-3-[1-[3-(trifluoromethyl)phenyl]ethyl]imidazolidin-2-one

> <PUBCHEM_IUPAC_NAME>
1-[2-(1,3-dihydroisoindol-2-yl)ethyl]-3-[1-[3-(trifluoromethyl)phenyl]ethyl]imidazolidin-2-one

> <PUBCHEM_IUPAC_SYSTEMATIC_NAME>
1-[2-(1,3-dihydroisoindol-2-yl)ethyl]-3-[1-[3-(trifluoromethyl)phenyl]ethyl]imidazolidin-2-one

> <PUBCHEM_IUPAC_TRADITIONAL_NAME>
1-(2-isoindolin-2-ylethyl)-3-[1-[3-(trifluoromethyl)phenyl]ethyl]-2-imidazolidinone

> <PUBCHEM_IUPAC_INCHI>
InChI=1S/C22H24F3N3O/c1-16(17-7-4-8-20(13-17)22(23,24)25)28-12-11-27(21(28)29)10-9-26-14-18-5-2-3-6-19(18)15-26/h2-8,13,16H,9-12,14-15H2,1H3

> <PUBCHEM_IUPAC_INCHIKEY>
GFLAXMWGVQJOMI-UHFFFAOYSA-N

> <PUBCHEM_XLOGP3_AA>
3.4

> <PUBCHEM_EXACT_MASS>
403.18714688

> <PUBCHEM_MOLECULAR_FORMULA>
C22H24F3N3O

> <PUBCHEM_MOLECULAR_WEIGHT>
403.4

> <PUBCHEM_OPENEYE_CAN_SMILES>
CC(C1=CC(=CC=C1)C(F)(F)F)N2CCN(C2=O)CCN3CC4=CC=CC=C4C3

> <PUBCHEM_OPENEYE_ISO_SMILES>
CC(C1=CC(=CC=C1)C(F)(F)F)N2CCN(C2=O)CCN3CC4=CC=CC=C4C3

> <PUBCHEM_CACTVS_TPSA>
26.8

> <PUBCHEM_MONOISOTOPIC_WEIGHT>
403.18714688

> <PUBCHEM_TOTAL_CHARGE>
0

> <PUBCHEM_HEAVY_ATOM_COUNT>
29

> <PUBCHEM_ATOM_DEF_STEREO_COUNT>
0

> <PUBCHEM_ATOM_UDEF_STEREO_COUNT>
1

> <PUBCHEM_BOND_DEF_STEREO_COUNT>
0

> <PUBCHEM_BOND_UDEF_STEREO_COUNT>
0

> <PUBCHEM_ISOTOPIC_ATOM_COUNT>
0

> <PUBCHEM_COMPONENT_COUNT>
1

> <PUBCHEM_CACTVS_TAUTO_COUNT>
-1

> <PUBCHEM_COORDINATE_TYPE>
1
5
255

> <PUBCHEM_BONDANNOTATIONS>
12  19  3
16  17  8
16  20  8
17  21  8
18  22  8
18  23  8
20  24  8
21  25  8
22  26  8
23  27  8
24  25  8
26  28  8
27  28  8

$$$$
