13720692
  -OEChem-09292322032D

 45 46  0     1  0  0  0  0  0999 V2000
    3.6014    0.0000    0.0000 Cl  0  0  0  0  0  0  0  0  0  0  0  0
    7.6647    5.2279    0.0000 O   0  0  0  0  0  0  0  0  0  0  0  0
    7.6647    3.1796    0.0000 O   0  0  0  0  0  0  0  0  0  0  0  0
    2.8100    4.2038    0.0000 N   0  0  3  0  0  0  0  0  0  0  0  0
    4.2188    5.3273    0.0000 C   0  0  3  0  0  0  0  0  0  0  0  0
    3.2439    5.1047    0.0000 C   0  0  0  0  0  0  0  0  0  0  0  0
    5.0006    4.7038    0.0000 C   0  0  0  0  0  0  0  0  0  0  0  0
    3.2439    3.3028    0.0000 C   0  0  0  0  0  0  0  0  0  0  0  0
    4.2188    3.0803    0.0000 C   0  0  0  0  0  0  0  0  0  0  0  0
    5.0006    3.7038    0.0000 C   0  0  0  0  0  0  0  0  0  0  0  0
    4.4413    6.3022    0.0000 C   0  0  0  0  0  0  0  0  0  0  0  0
    1.8100    4.2038    0.0000 C   0  0  0  0  0  0  0  0  0  0  0  0
    5.8946    5.2384    0.0000 C   0  0  0  0  0  0  0  0  0  0  0  0
    5.8946    3.1691    0.0000 C   0  0  0  0  0  0  0  0  0  0  0  0
    6.8006    4.7246    0.0000 C   0  0  0  0  0  0  0  0  0  0  0  0
    3.7083    6.9824    0.0000 C   0  0  0  0  0  0  0  0  0  0  0  0
    5.3969    6.5970    0.0000 C   0  0  0  0  0  0  0  0  0  0  0  0
    6.8006    3.6830    0.0000 C   0  0  0  0  0  0  0  0  0  0  0  0
    1.3100    3.3378    0.0000 C   0  0  0  0  0  0  0  0  0  0  0  0
    3.9308    7.9573    0.0000 C   0  0  0  0  0  0  0  0  0  0  0  0
    5.6194    7.5719    0.0000 C   0  0  0  0  0  0  0  0  0  0  0  0
    4.8864    8.2520    0.0000 C   0  0  0  0  0  0  0  0  0  0  0  0
    0.3100    3.3378    0.0000 C   0  0  0  0  0  0  0  0  0  0  0  0
    3.7804    5.7657    0.0000 H   0  0  0  0  0  0  0  0  0  0  0  0
    3.2439    5.7247    0.0000 H   0  0  0  0  0  0  0  0  0  0  0  0
    2.6394    5.2427    0.0000 H   0  0  0  0  0  0  0  0  0  0  0  0
    2.6394    3.1648    0.0000 H   0  0  0  0  0  0  0  0  0  0  0  0
    3.2439    2.6828    0.0000 H   0  0  0  0  0  0  0  0  0  0  0  0
    3.9498    2.5217    0.0000 H   0  0  0  0  0  0  0  0  0  0  0  0
    4.7036    2.6937    0.0000 H   0  0  0  0  0  0  0  0  0  0  0  0
    1.9177    4.8144    0.0000 H   0  0  0  0  0  0  0  0  0  0  0  0
    1.2274    4.4158    0.0000 H   0  0  0  0  0  0  0  0  0  0  0  0
    5.8874    5.8584    0.0000 H   0  0  0  0  0  0  0  0  0  0  0  0
    5.8874    2.5492    0.0000 H   0  0  0  0  0  0  0  0  0  0  0  0
    3.1158    6.7996    0.0000 H   0  0  0  0  0  0  0  0  0  0  0  0
    5.8514    6.1752    0.0000 H   0  0  0  0  0  0  0  0  0  0  0  0
    1.6200    2.8008    0.0000 H   0  0  0  0  0  0  0  0  0  0  0  0
    3.4763    8.3790    0.0000 H   0  0  0  0  0  0  0  0  0  0  0  0
    6.2119    7.7546    0.0000 H   0  0  0  0  0  0  0  0  0  0  0  0
    5.0243    8.8565    0.0000 H   0  0  0  0  0  0  0  0  0  0  0  0
    8.2029    4.9200    0.0000 H   0  0  0  0  0  0  0  0  0  0  0  0
    7.6624    2.5596    0.0000 H   0  0  0  0  0  0  0  0  0  0  0  0
    0.0000    3.8747    0.0000 H   0  0  0  0  0  0  0  0  0  0  0  0
    0.0000    2.8008    0.0000 H   0  0  0  0  0  0  0  0  0  0  0  0
    4.6014    0.0000    0.0000 H   0  0  0  0  0  0  0  0  0  0  0  0
  1 45  1  0  0  0  0
  2 15  1  0  0  0  0
  2 41  1  0  0  0  0
  3 18  1  0  0  0  0
  3 42  1  0  0  0  0
  4  6  1  0  0  0  0
  4  8  1  0  0  0  0
  4 12  1  0  0  0  0
  5  6  1  0  0  0  0
  5  7  1  0  0  0  0
  5 11  1  0  0  0  0
  5 24  1  0  0  0  0
  6 25  1  0  0  0  0
  6 26  1  0  0  0  0
  7 10  1  0  0  0  0
  7 13  2  0  0  0  0
  8  9  1  0  0  0  0
  8 27  1  0  0  0  0
  8 28  1  0  0  0  0
  9 10  1  0  0  0  0
  9 29  1  0  0  0  0
  9 30  1  0  0  0  0
 10 14  2  0  0  0  0
 11 16  2  0  0  0  0
 11 17  1  0  0  0  0
 12 19  1  0  0  0  0
 12 31  1  0  0  0  0
 12 32  1  0  0  0  0
 13 15  1  0  0  0  0
 13 33  1  0  0  0  0
 14 18  1  0  0  0  0
 14 34  1  0  0  0  0
 15 18  2  0  0  0  0
 16 20  1  0  0  0  0
 16 35  1  0  0  0  0
 17 21  2  0  0  0  0
 17 36  1  0  0  0  0
 19 23  2  0  0  0  0
 19 37  1  0  0  0  0
 20 22  2  0  0  0  0
 20 38  1  0  0  0  0
 21 22  1  0  0  0  0
 21 39  1  0  0  0  0
 22 40  1  0  0  0  0
 23 43  1  0  0  0  0
 23 44  1  0  0  0  0
M  END
> <PUBCHEM_COMPOUND_CID>
13720692

> <PUBCHEM_COMPOUND_CANONICALIZED>
1

> <PUBCHEM_CACTVS_COMPLEXITY>
366

> <PUBCHEM_CACTVS_HBOND_ACCEPTOR>
3

> <PUBCHEM_CACTVS_HBOND_DONOR>
3

> <PUBCHEM_CACTVS_ROTATABLE_BOND>
3

> <PUBCHEM_CACTVS_SUBSKEYS>
AAADceB6MAAEAAAAAAAAAAAAAAAAAAAAAAAwYAAABYAAAAABQAAAHgAACAAADQTBmAQwBoMAAgCAAiBCAACCAAAgIAAIiAAOiIgJJiKCkROEcAEkwBGJmAeQ0PIOoAABAAAQQABAAAIAACCAAAAAAAAAAA==

> <PUBCHEM_IUPAC_OPENEYE_NAME>
3-allyl-5-phenyl-1,2,4,5-tetrahydro-3-benzazepine-7,8-diol;hydrochloride

> <PUBCHEM_IUPAC_CAS_NAME>
5-phenyl-3-prop-2-enyl-1,2,4,5-tetrahydro-3-benzazepine-7,8-diol;hydrochloride

> <PUBCHEM_IUPAC_NAME_MARKUP>
5-phenyl-3-prop-2-enyl-1,2,4,5-tetrahydro-3-benzazepine-7,8-diol;hydrochloride

> <PUBCHEM_IUPAC_NAME>
5-phenyl-3-prop-2-enyl-1,2,4,5-tetrahydro-3-benzazepine-7,8-diol;hydrochloride

> <PUBCHEM_IUPAC_SYSTEMATIC_NAME>
5-phenyl-3-prop-2-enyl-1,2,4,5-tetrahydro-3-benzazepine-7,8-diol;hydrochloride

> <PUBCHEM_IUPAC_TRADITIONAL_NAME>
3-allyl-5-phenyl-1,2,4,5-tetrahydro-3-benzazepine-7,8-diol;hydrochloride

> <PUBCHEM_IUPAC_INCHI>
InChI=1S/C19H21NO2.ClH/c1-2-9-20-10-8-15-11-18(21)19(22)12-16(15)17(13-20)14-6-4-3-5-7-14;/h2-7,11-12,17,21-22H,1,8-10,13H2;1H

> <PUBCHEM_IUPAC_INCHIKEY>
YAEZFDKWOWTEDU-UHFFFAOYSA-N

> <PUBCHEM_EXACT_MASS>
331.1339066

> <PUBCHEM_MOLECULAR_FORMULA>
C19H22ClNO2

> <PUBCHEM_MOLECULAR_WEIGHT>
331.8

> <PUBCHEM_OPENEYE_CAN_SMILES>
C=CCN1CCC2=CC(=C(C=C2C(C1)C3=CC=CC=C3)O)O.Cl

> <PUBCHEM_OPENEYE_ISO_SMILES>
C=CCN1CCC2=CC(=C(C=C2C(C1)C3=CC=CC=C3)O)O.Cl

> <PUBCHEM_CACTVS_TPSA>
43.7

> <PUBCHEM_MONOISOTOPIC_WEIGHT>
331.1339066

> <PUBCHEM_TOTAL_CHARGE>
0

> <PUBCHEM_HEAVY_ATOM_COUNT>
23

> <PUBCHEM_ATOM_DEF_STEREO_COUNT>
0

> <PUBCHEM_ATOM_UDEF_STEREO_COUNT>
1

> <PUBCHEM_BOND_DEF_STEREO_COUNT>
0

> <PUBCHEM_BOND_UDEF_STEREO_COUNT>
0

> <PUBCHEM_ISOTOPIC_ATOM_COUNT>
0

> <PUBCHEM_COMPONENT_COUNT>
2

> <PUBCHEM_CACTVS_TAUTO_COUNT>
-1

> <PUBCHEM_COORDINATE_TYPE>
1
5
255

> <PUBCHEM_BONDANNOTATIONS>
10  14  8
11  16  8
11  17  8
13  15  8
14  18  8
15  18  8
16  20  8
17  21  8
20  22  8
21  22  8
5  11  3
7  10  8
7  13  8

$$$$
