9908071
  -OEChem-09292322152D

 53 56  0     1  0  0  0  0  0999 V2000
    2.0000    2.7813    0.0000 Cl  0  0  0  0  0  0  0  0  0  0  0  0
    7.8104   -2.3656    0.0000 O   0  0  0  0  0  0  0  0  0  0  0  0
    7.0000   -0.6828    0.0000 N   0  0  0  0  0  0  0  0  0  0  0  0
    5.0000   -0.6828    0.0000 N   0  0  0  0  0  0  0  0  0  0  0  0
    9.4088   -1.8063    0.0000 N   0  0  0  0  0  0  0  0  0  0  0  0
    8.0000   -0.6828    0.0000 C   0  0  3  0  0  0  0  0  0  0  0  0
    6.5000   -1.5489    0.0000 C   0  0  0  0  0  0  0  0  0  0  0  0
    6.5000    0.1832    0.0000 C   0  0  0  0  0  0  0  0  0  0  0  0
    5.5000   -1.5489    0.0000 C   0  0  0  0  0  0  0  0  0  0  0  0
    5.5000    0.1832    0.0000 C   0  0  0  0  0  0  0  0  0  0  0  0
    8.4339    0.2181    0.0000 C   0  0  0  0  0  0  0  0  0  0  0  0
    9.4088    0.4406    0.0000 C   0  0  0  0  0  0  0  0  0  0  0  0
    8.4339   -1.5838    0.0000 C   0  0  0  0  0  0  0  0  0  0  0  0
    4.0000   -0.6828    0.0000 C   0  0  0  0  0  0  0  0  0  0  0  0
   10.1906   -0.1828    0.0000 C   0  0  0  0  0  0  0  0  0  0  0  0
   10.1906   -1.1828    0.0000 C   0  0  0  0  0  0  0  0  0  0  0  0
    3.5000    0.1832    0.0000 C   0  0  0  0  0  0  0  0  0  0  0  0
    9.6313   -2.7813    0.0000 C   0  0  0  0  0  0  0  0  0  0  0  0
   11.0846    0.3518    0.0000 C   0  0  0  0  0  0  0  0  0  0  0  0
   11.0846   -1.7175    0.0000 C   0  0  0  0  0  0  0  0  0  0  0  0
   11.9907   -0.1620    0.0000 C   0  0  0  0  0  0  0  0  0  0  0  0
   11.9907   -1.2037    0.0000 C   0  0  0  0  0  0  0  0  0  0  0  0
    2.5000    0.1832    0.0000 C   0  0  0  0  0  0  0  0  0  0  0  0
    4.0000    1.0492    0.0000 C   0  0  0  0  0  0  0  0  0  0  0  0
    2.0000    1.0492    0.0000 C   0  0  0  0  0  0  0  0  0  0  0  0
    3.5000    1.9152    0.0000 C   0  0  0  0  0  0  0  0  0  0  0  0
    2.5000    1.9152    0.0000 C   0  0  0  0  0  0  0  0  0  0  0  0
    7.6701   -1.2078    0.0000 H   0  0  0  0  0  0  0  0  0  0  0  0
    6.3923   -2.1594    0.0000 H   0  0  0  0  0  0  0  0  0  0  0  0
    7.0826   -1.7609    0.0000 H   0  0  0  0  0  0  0  0  0  0  0  0
    7.0826    0.3952    0.0000 H   0  0  0  0  0  0  0  0  0  0  0  0
    6.3923    0.7938    0.0000 H   0  0  0  0  0  0  0  0  0  0  0  0
    4.9174   -1.7609    0.0000 H   0  0  0  0  0  0  0  0  0  0  0  0
    5.6077   -2.1594    0.0000 H   0  0  0  0  0  0  0  0  0  0  0  0
    5.6077    0.7938    0.0000 H   0  0  0  0  0  0  0  0  0  0  0  0
    4.9174    0.3952    0.0000 H   0  0  0  0  0  0  0  0  0  0  0  0
    8.4339    0.8381    0.0000 H   0  0  0  0  0  0  0  0  0  0  0  0
    7.8294    0.3561    0.0000 H   0  0  0  0  0  0  0  0  0  0  0  0
    9.8936    0.8272    0.0000 H   0  0  0  0  0  0  0  0  0  0  0  0
    9.1398    0.9992    0.0000 H   0  0  0  0  0  0  0  0  0  0  0  0
    3.4174   -0.8949    0.0000 H   0  0  0  0  0  0  0  0  0  0  0  0
    4.1077   -1.2934    0.0000 H   0  0  0  0  0  0  0  0  0  0  0  0
    9.0269   -2.9192    0.0000 H   0  0  0  0  0  0  0  0  0  0  0  0
    9.7693   -3.3857    0.0000 H   0  0  0  0  0  0  0  0  0  0  0  0
   10.2358   -2.6433    0.0000 H   0  0  0  0  0  0  0  0  0  0  0  0
   11.0774    0.9718    0.0000 H   0  0  0  0  0  0  0  0  0  0  0  0
   11.0774   -2.3375    0.0000 H   0  0  0  0  0  0  0  0  0  0  0  0
   12.5264    0.1500    0.0000 H   0  0  0  0  0  0  0  0  0  0  0  0
   12.5264   -1.5157    0.0000 H   0  0  0  0  0  0  0  0  0  0  0  0
    2.1900   -0.3538    0.0000 H   0  0  0  0  0  0  0  0  0  0  0  0
    4.6200    1.0492    0.0000 H   0  0  0  0  0  0  0  0  0  0  0  0
    1.3800    1.0492    0.0000 H   0  0  0  0  0  0  0  0  0  0  0  0
    3.8100    2.4522    0.0000 H   0  0  0  0  0  0  0  0  0  0  0  0
  1 27  1  0  0  0  0
  2 13  2  0  0  0  0
  3  6  1  0  0  0  0
  3  7  1  0  0  0  0
  3  8  1  0  0  0  0
  4  9  1  0  0  0  0
  4 10  1  0  0  0  0
  4 14  1  0  0  0  0
  5 13  1  0  0  0  0
  5 16  1  0  0  0  0
  5 18  1  0  0  0  0
  6 11  1  0  0  0  0
  6 13  1  0  0  0  0
  6 28  1  0  0  0  0
  7  9  1  0  0  0  0
  7 29  1  0  0  0  0
  7 30  1  0  0  0  0
  8 10  1  0  0  0  0
  8 31  1  0  0  0  0
  8 32  1  0  0  0  0
  9 33  1  0  0  0  0
  9 34  1  0  0  0  0
 10 35  1  0  0  0  0
 10 36  1  0  0  0  0
 11 12  1  0  0  0  0
 11 37  1  0  0  0  0
 11 38  1  0  0  0  0
 12 15  1  0  0  0  0
 12 39  1  0  0  0  0
 12 40  1  0  0  0  0
 14 17  1  0  0  0  0
 14 41  1  0  0  0  0
 14 42  1  0  0  0  0
 15 16  1  0  0  0  0
 15 19  2  0  0  0  0
 16 20  2  0  0  0  0
 17 23  2  0  0  0  0
 17 24  1  0  0  0  0
 18 43  1  0  0  0  0
 18 44  1  0  0  0  0
 18 45  1  0  0  0  0
 19 21  1  0  0  0  0
 19 46  1  0  0  0  0
 20 22  1  0  0  0  0
 20 47  1  0  0  0  0
 21 22  2  0  0  0  0
 21 48  1  0  0  0  0
 22 49  1  0  0  0  0
 23 25  1  0  0  0  0
 23 50  1  0  0  0  0
 24 26  2  0  0  0  0
 24 51  1  0  0  0  0
 25 27  2  0  0  0  0
 25 52  1  0  0  0  0
 26 27  1  0  0  0  0
 26 53  1  0  0  0  0
M  END
> <PUBCHEM_COMPOUND_CID>
9908071

> <PUBCHEM_COMPOUND_CANONICALIZED>
1

> <PUBCHEM_CACTVS_COMPLEXITY>
500

> <PUBCHEM_CACTVS_HBOND_ACCEPTOR>
3

> <PUBCHEM_CACTVS_HBOND_DONOR>
0

> <PUBCHEM_CACTVS_ROTATABLE_BOND>
3

> <PUBCHEM_CACTVS_SUBSKEYS>
AAADceB7IAAEAAAAAAAAAAAAAAAAAAAAAAA8YIAABYAAAAABQAAAHgIAAAAADCrBmCQywIMAAACIAiVSUACCAAAhBwAIiAGIZogIYDLBk7GUIAhghgDIyAcYiICOBAAAAAACAAAIAAAAAAQAAAAAAAAAAA==

> <PUBCHEM_IUPAC_OPENEYE_NAME>
3-[4-[(4-chlorophenyl)methyl]piperazin-1-yl]-1-methyl-4,5-dihydro-3H-1-benzazepin-2-one

> <PUBCHEM_IUPAC_CAS_NAME>
3-[4-[(4-chlorophenyl)methyl]-1-piperazinyl]-1-methyl-4,5-dihydro-3H-1-benzazepin-2-one

> <PUBCHEM_IUPAC_NAME_MARKUP>
3-[4-[(4-chlorophenyl)methyl]piperazin-1-yl]-1-methyl-4,5-dihydro-3<I>H</I>-1-benzazepin-2-one

> <PUBCHEM_IUPAC_NAME>
3-[4-[(4-chlorophenyl)methyl]piperazin-1-yl]-1-methyl-4,5-dihydro-3H-1-benzazepin-2-one

> <PUBCHEM_IUPAC_SYSTEMATIC_NAME>
3-[4-[(4-chlorophenyl)methyl]piperazin-1-yl]-1-methyl-4,5-dihydro-3H-1-benzazepin-2-one

> <PUBCHEM_IUPAC_TRADITIONAL_NAME>
3-[4-(4-chlorobenzyl)piperazino]-1-methyl-4,5-dihydro-3H-1-benzazepin-2-one

> <PUBCHEM_IUPAC_INCHI>
InChI=1S/C22H26ClN3O/c1-24-20-5-3-2-4-18(20)8-11-21(22(24)27)26-14-12-25(13-15-26)16-17-6-9-19(23)10-7-17/h2-7,9-10,21H,8,11-16H2,1H3

> <PUBCHEM_IUPAC_INCHIKEY>
QJZDCDLDKXELAM-UHFFFAOYSA-N

> <PUBCHEM_XLOGP3_AA>
3.7

> <PUBCHEM_EXACT_MASS>
383.1764402

> <PUBCHEM_MOLECULAR_FORMULA>
C22H26ClN3O

> <PUBCHEM_MOLECULAR_WEIGHT>
383.9

> <PUBCHEM_OPENEYE_CAN_SMILES>
CN1C2=CC=CC=C2CCC(C1=O)N3CCN(CC3)CC4=CC=C(C=C4)Cl

> <PUBCHEM_OPENEYE_ISO_SMILES>
CN1C2=CC=CC=C2CCC(C1=O)N3CCN(CC3)CC4=CC=C(C=C4)Cl

> <PUBCHEM_CACTVS_TPSA>
26.8

> <PUBCHEM_MONOISOTOPIC_WEIGHT>
383.1764402

> <PUBCHEM_TOTAL_CHARGE>
0

> <PUBCHEM_HEAVY_ATOM_COUNT>
27

> <PUBCHEM_ATOM_DEF_STEREO_COUNT>
0

> <PUBCHEM_ATOM_UDEF_STEREO_COUNT>
1

> <PUBCHEM_BOND_DEF_STEREO_COUNT>
0

> <PUBCHEM_BOND_UDEF_STEREO_COUNT>
0

> <PUBCHEM_ISOTOPIC_ATOM_COUNT>
0

> <PUBCHEM_COMPONENT_COUNT>
1

> <PUBCHEM_CACTVS_TAUTO_COUNT>
-1

> <PUBCHEM_COORDINATE_TYPE>
1
5
255

> <PUBCHEM_BONDANNOTATIONS>
15  16  8
15  19  8
16  20  8
17  23  8
17  24  8
19  21  8
20  22  8
21  22  8
23  25  8
24  26  8
25  27  8
26  27  8
6  3  3

$$$$
