44319723
  -OEChem-09292322152D

 70 73  0     1  0  0  0  0  0999 V2000
    8.0000   -1.6298    0.0000 O   0  0  0  0  0  0  0  0  0  0  0  0
    3.5000    0.9683    0.0000 O   0  0  0  0  0  0  0  0  0  0  0  0
   13.5000    0.9683    0.0000 N   0  0  3  0  0  0  0  0  0  0  0  0
    8.0000    0.1023    0.0000 N   0  0  0  0  0  0  0  0  0  0  0  0
   19.2188    2.4958    0.0000 N   0  0  0  0  0  0  0  0  0  0  0  0
   11.0000    0.1023    0.0000 C   0  0  0  0  0  0  0  0  0  0  0  0
   10.5000   -0.7637    0.0000 C   0  0  0  0  0  0  0  0  0  0  0  0
   10.5000    0.9683    0.0000 C   0  0  0  0  0  0  0  0  0  0  0  0
    9.0000    0.1023    0.0000 C   0  0  0  0  0  0  0  0  0  0  0  0
    9.5000   -0.7637    0.0000 C   0  0  0  0  0  0  0  0  0  0  0  0
    9.5000    0.9683    0.0000 C   0  0  0  0  0  0  0  0  0  0  0  0
   12.0000    0.1023    0.0000 C   0  0  0  0  0  0  0  0  0  0  0  0
   12.5000    0.9683    0.0000 C   0  0  0  0  0  0  0  0  0  0  0  0
   13.9339    1.8693    0.0000 C   0  0  0  0  0  0  0  0  0  0  0  0
   13.9339    0.0673    0.0000 C   0  0  0  0  0  0  0  0  0  0  0  0
   14.9088    2.0918    0.0000 C   0  0  0  0  0  0  0  0  0  0  0  0
   14.9088   -0.1552    0.0000 C   0  0  0  0  0  0  0  0  0  0  0  0
   15.6906    1.4683    0.0000 C   0  0  0  0  0  0  0  0  0  0  0  0
   15.6906    0.4683    0.0000 C   0  0  0  0  0  0  0  0  0  0  0  0
    7.5000   -0.7637    0.0000 C   0  0  0  0  0  0  0  0  0  0  0  0
   16.5846    2.0030    0.0000 C   0  0  0  0  0  0  0  0  0  0  0  0
   16.5846   -0.0664    0.0000 C   0  0  0  0  0  0  0  0  0  0  0  0
    6.5000   -0.7637    0.0000 C   0  0  0  0  0  0  0  0  0  0  0  0
   17.4907    1.4891    0.0000 C   0  0  0  0  0  0  0  0  0  0  0  0
   17.4907    0.4475    0.0000 C   0  0  0  0  0  0  0  0  0  0  0  0
    6.0000   -1.6298    0.0000 C   0  0  0  0  0  0  0  0  0  0  0  0
   18.3547    1.9925    0.0000 C   0  0  0  0  0  0  0  0  0  0  0  0
    5.0000   -1.6298    0.0000 C   0  0  0  0  0  0  0  0  0  0  0  0
    4.5000   -0.7637    0.0000 C   0  0  0  0  0  0  0  0  0  0  0  0
    4.5000   -2.4958    0.0000 C   0  0  0  0  0  0  0  0  0  0  0  0
    3.5000   -0.7637    0.0000 C   0  0  0  0  0  0  0  0  0  0  0  0
    3.5000   -2.4958    0.0000 C   0  0  0  0  0  0  0  0  0  0  0  0
    3.0000   -1.6298    0.0000 C   0  0  0  0  0  0  0  0  0  0  0  0
    3.0000    0.1023    0.0000 C   0  0  0  0  0  0  0  0  0  0  0  0
    2.0000    0.1023    0.0000 C   0  0  0  0  0  0  0  0  0  0  0  0
   11.3100   -0.4347    0.0000 H   0  0  0  0  0  0  0  0  0  0  0  0
   10.3923   -1.3743    0.0000 H   0  0  0  0  0  0  0  0  0  0  0  0
   11.0826   -0.9758    0.0000 H   0  0  0  0  0  0  0  0  0  0  0  0
   11.0826    1.1804    0.0000 H   0  0  0  0  0  0  0  0  0  0  0  0
   10.3923    1.5789    0.0000 H   0  0  0  0  0  0  0  0  0  0  0  0
    8.6900   -0.4347    0.0000 H   0  0  0  0  0  0  0  0  0  0  0  0
    8.9174   -0.9758    0.0000 H   0  0  0  0  0  0  0  0  0  0  0  0
    9.6077   -1.3743    0.0000 H   0  0  0  0  0  0  0  0  0  0  0  0
    9.6077    1.5789    0.0000 H   0  0  0  0  0  0  0  0  0  0  0  0
    8.9174    1.1804    0.0000 H   0  0  0  0  0  0  0  0  0  0  0  0
   11.8923   -0.5083    0.0000 H   0  0  0  0  0  0  0  0  0  0  0  0
   12.5826   -0.1098    0.0000 H   0  0  0  0  0  0  0  0  0  0  0  0
   12.6077    1.5789    0.0000 H   0  0  0  0  0  0  0  0  0  0  0  0
   11.9174    1.1804    0.0000 H   0  0  0  0  0  0  0  0  0  0  0  0
    7.6900    0.6392    0.0000 H   0  0  0  0  0  0  0  0  0  0  0  0
   13.9339    2.4893    0.0000 H   0  0  0  0  0  0  0  0  0  0  0  0
   13.3294    2.0072    0.0000 H   0  0  0  0  0  0  0  0  0  0  0  0
   13.3294   -0.0706    0.0000 H   0  0  0  0  0  0  0  0  0  0  0  0
   13.9339   -0.5527    0.0000 H   0  0  0  0  0  0  0  0  0  0  0  0
   15.3935    2.4784    0.0000 H   0  0  0  0  0  0  0  0  0  0  0  0
   14.6398    2.6504    0.0000 H   0  0  0  0  0  0  0  0  0  0  0  0
   14.6398   -0.7138    0.0000 H   0  0  0  0  0  0  0  0  0  0  0  0
   15.3935   -0.5417    0.0000 H   0  0  0  0  0  0  0  0  0  0  0  0
   16.5774    2.6229    0.0000 H   0  0  0  0  0  0  0  0  0  0  0  0
   16.5774   -0.6863    0.0000 H   0  0  0  0  0  0  0  0  0  0  0  0
    6.1900   -0.2268    0.0000 H   0  0  0  0  0  0  0  0  0  0  0  0
   18.0264    0.1354    0.0000 H   0  0  0  0  0  0  0  0  0  0  0  0
    6.3100   -2.1667    0.0000 H   0  0  0  0  0  0  0  0  0  0  0  0
    4.8100   -0.2268    0.0000 H   0  0  0  0  0  0  0  0  0  0  0  0
    4.8100   -3.0327    0.0000 H   0  0  0  0  0  0  0  0  0  0  0  0
    3.1900   -3.0327    0.0000 H   0  0  0  0  0  0  0  0  0  0  0  0
    2.3800   -1.6298    0.0000 H   0  0  0  0  0  0  0  0  0  0  0  0
    2.0000    0.7223    0.0000 H   0  0  0  0  0  0  0  0  0  0  0  0
    1.3800    0.1023    0.0000 H   0  0  0  0  0  0  0  0  0  0  0  0
    2.0000   -0.5177    0.0000 H   0  0  0  0  0  0  0  0  0  0  0  0
  1 20  2  0  0  0  0
  2 34  2  0  0  0  0
  3 13  1  0  0  0  0
  3 14  1  0  0  0  0
  3 15  1  0  0  0  0
  4  9  1  0  0  0  0
  4 20  1  0  0  0  0
  4 50  1  0  0  0  0
  5 27  3  0  0  0  0
  6  7  1  0  0  0  0
  6  8  1  0  0  0  0
  6 12  1  0  0  0  0
  6 36  1  0  0  0  0
  7 10  1  0  0  0  0
  7 37  1  0  0  0  0
  7 38  1  0  0  0  0
  8 11  1  0  0  0  0
  8 39  1  0  0  0  0
  8 40  1  0  0  0  0
  9 10  1  0  0  0  0
  9 11  1  0  0  0  0
  9 41  1  0  0  0  0
 10 42  1  0  0  0  0
 10 43  1  0  0  0  0
 11 44  1  0  0  0  0
 11 45  1  0  0  0  0
 12 13  1  0  0  0  0
 12 46  1  0  0  0  0
 12 47  1  0  0  0  0
 13 48  1  0  0  0  0
 13 49  1  0  0  0  0
 14 16  1  0  0  0  0
 14 51  1  0  0  0  0
 14 52  1  0  0  0  0
 15 17  1  0  0  0  0
 15 53  1  0  0  0  0
 15 54  1  0  0  0  0
 16 18  1  0  0  0  0
 16 55  1  0  0  0  0
 16 56  1  0  0  0  0
 17 19  1  0  0  0  0
 17 57  1  0  0  0  0
 17 58  1  0  0  0  0
 18 19  2  0  0  0  0
 18 21  1  0  0  0  0
 19 22  1  0  0  0  0
 20 23  1  0  0  0  0
 21 24  2  0  0  0  0
 21 59  1  0  0  0  0
 22 25  2  0  0  0  0
 22 60  1  0  0  0  0
 23 26  2  0  0  0  0
 23 61  1  0  0  0  0
 24 25  1  0  0  0  0
 24 27  1  0  0  0  0
 25 62  1  0  0  0  0
 26 28  1  0  0  0  0
 26 63  1  0  0  0  0
 28 29  2  0  0  0  0
 28 30  1  0  0  0  0
 29 31  1  0  0  0  0
 29 64  1  0  0  0  0
 30 32  2  0  0  0  0
 30 65  1  0  0  0  0
 31 33  2  0  0  0  0
 31 34  1  0  0  0  0
 32 33  1  0  0  0  0
 32 66  1  0  0  0  0
 33 67  1  0  0  0  0
 34 35  1  0  0  0  0
 35 68  1  0  0  0  0
 35 69  1  0  0  0  0
 35 70  1  0  0  0  0
M  END
> <PUBCHEM_COMPOUND_CID>
44319723

> <PUBCHEM_COMPOUND_CANONICALIZED>
1

> <PUBCHEM_CACTVS_COMPLEXITY>
791

> <PUBCHEM_CACTVS_HBOND_ACCEPTOR>
4

> <PUBCHEM_CACTVS_HBOND_DONOR>
1

> <PUBCHEM_CACTVS_ROTATABLE_BOND>
7

> <PUBCHEM_CACTVS_SUBSKEYS>
AAADcfB7MAAAAAAAAAAAAAAAAAAAAAAAAAAwYMAABYAAAAABQAAAHgAQAAAADSzBmAQyAIPAAACYBqFSEACiAAAkAAAIiIEIAMgIoDKAlRGEIQAglgCIiY8YiMCOwAACAAAQAACQAAQAACAAAAAAAAAAAA==

> <PUBCHEM_IUPAC_OPENEYE_NAME>
(E)-3-(3-acetylphenyl)-N-[4-[2-(7-cyano-1,2,4,5-tetrahydro-3-benzazepin-3-yl)ethyl]cyclohexyl]prop-2-enamide

> <PUBCHEM_IUPAC_CAS_NAME>
(E)-3-(3-acetylphenyl)-N-[4-[2-(7-cyano-1,2,4,5-tetrahydro-3-benzazepin-3-yl)ethyl]cyclohexyl]-2-propenamide

> <PUBCHEM_IUPAC_NAME_MARKUP>
(<I>E</I>)-3-(3-acetylphenyl)-<I>N</I>-[4-[2-(7-cyano-1,2,4,5-tetrahydro-3-benzazepin-3-yl)ethyl]cyclohexyl]prop-2-enamide

> <PUBCHEM_IUPAC_NAME>
(E)-3-(3-acetylphenyl)-N-[4-[2-(7-cyano-1,2,4,5-tetrahydro-3-benzazepin-3-yl)ethyl]cyclohexyl]prop-2-enamide

> <PUBCHEM_IUPAC_SYSTEMATIC_NAME>
(E)-N-[4-[2-(7-cyano-1,2,4,5-tetrahydro-3-benzazepin-3-yl)ethyl]cyclohexyl]-3-(3-ethanoylphenyl)prop-2-enamide

> <PUBCHEM_IUPAC_TRADITIONAL_NAME>
(E)-3-(3-acetylphenyl)-N-[4-[2-(7-cyano-1,2,4,5-tetrahydro-3-benzazepin-3-yl)ethyl]cyclohexyl]acrylamide

> <PUBCHEM_IUPAC_INCHI>
InChI=1S/C30H35N3O2/c1-22(34)27-4-2-3-24(19-27)8-12-30(35)32-29-10-6-23(7-11-29)13-16-33-17-14-26-9-5-25(21-31)20-28(26)15-18-33/h2-5,8-9,12,19-20,23,29H,6-7,10-11,13-18H2,1H3,(H,32,35)/b12-8+

> <PUBCHEM_IUPAC_INCHIKEY>
PIXRONAZKMZTPE-XYOKQWHBSA-N

> <PUBCHEM_XLOGP3_AA>
4.9

> <PUBCHEM_EXACT_MASS>
469.27292737

> <PUBCHEM_MOLECULAR_FORMULA>
C30H35N3O2

> <PUBCHEM_MOLECULAR_WEIGHT>
469.6

> <PUBCHEM_OPENEYE_CAN_SMILES>
CC(=O)C1=CC=CC(=C1)C=CC(=O)NC2CCC(CC2)CCN3CCC4=C(CC3)C=C(C=C4)C#N

> <PUBCHEM_OPENEYE_ISO_SMILES>
CC(=O)C1=CC=CC(=C1)/C=C/C(=O)NC2CCC(CC2)CCN3CCC4=C(CC3)C=C(C=C4)C#N

> <PUBCHEM_CACTVS_TPSA>
73.2

> <PUBCHEM_MONOISOTOPIC_WEIGHT>
469.27292737

> <PUBCHEM_TOTAL_CHARGE>
0

> <PUBCHEM_HEAVY_ATOM_COUNT>
35

> <PUBCHEM_ATOM_DEF_STEREO_COUNT>
0

> <PUBCHEM_ATOM_UDEF_STEREO_COUNT>
0

> <PUBCHEM_BOND_DEF_STEREO_COUNT>
1

> <PUBCHEM_BOND_UDEF_STEREO_COUNT>
0

> <PUBCHEM_ISOTOPIC_ATOM_COUNT>
0

> <PUBCHEM_COMPONENT_COUNT>
1

> <PUBCHEM_CACTVS_TAUTO_COUNT>
-1

> <PUBCHEM_COORDINATE_TYPE>
1
5
255

> <PUBCHEM_BONDANNOTATIONS>
18  19  8
18  21  8
19  22  8
21  24  8
22  25  8
24  25  8
28  29  8
28  30  8
29  31  8
30  32  8
31  33  8
32  33  8

$$$$
