44353399
  -OEChem-09292322202D

 66 68  0     1  0  0  0  0  0999 V2000
    2.0000   -3.0137    0.0000 Cl  0  0  0  0  0  0  0  0  0  0  0  0
    8.0622   -2.5137    0.0000 O   0  0  0  0  0  0  0  0  0  0  0  0
    6.3301   -2.5137    0.0000 O   0  0  0  0  0  0  0  0  0  0  0  0
   11.5923    0.5104    0.0000 N   0  0  0  0  0  0  0  0  0  0  0  0
   10.7282    0.0071    0.0000 C   0  0  1  0  0  0  0  0  0  0  0  0
    9.8222    0.5209    0.0000 C   0  0  2  0  0  0  0  0  0  0  0  0
   10.7282   -1.0346    0.0000 C   0  0  0  0  0  0  0  0  0  0  0  0
    8.9282   -0.0137    0.0000 C   0  0  0  0  0  0  0  0  0  0  0  0
    9.8222   -1.5484    0.0000 C   0  0  0  0  0  0  0  0  0  0  0  0
    8.9282   -1.0137    0.0000 C   0  0  0  0  0  0  0  0  0  0  0  0
    9.8106    1.5209    0.0000 C   0  0  0  0  0  0  0  0  0  0  0  0
   12.4602    0.0138    0.0000 C   0  0  0  0  0  0  0  0  0  0  0  0
   11.5884    1.5104    0.0000 C   0  0  0  0  0  0  0  0  0  0  0  0
    8.0622   -1.5137    0.0000 C   0  0  0  0  0  0  0  0  0  0  0  0
    8.0622    0.4863    0.0000 C   0  0  0  0  0  0  0  0  0  0  0  0
    7.1962   -1.0137    0.0000 C   0  0  0  0  0  0  0  0  0  0  0  0
   13.3243    0.5171    0.0000 C   0  0  0  0  0  0  0  0  0  0  0  0
   12.4525    2.0137    0.0000 C   0  0  0  0  0  0  0  0  0  0  0  0
    7.1962   -0.0137    0.0000 C   0  0  0  0  0  0  0  0  0  0  0  0
    6.3301   -1.5137    0.0000 C   0  0  3  0  0  0  0  0  0  0  0  0
   14.1923    0.0204    0.0000 C   0  0  0  0  0  0  0  0  0  0  0  0
   12.4487    3.0137    0.0000 C   0  0  0  0  0  0  0  0  0  0  0  0
    5.4641   -1.0137    0.0000 C   0  0  0  0  0  0  0  0  0  0  0  0
    8.9282   -3.0137    0.0000 C   0  0  0  0  0  0  0  0  0  0  0  0
    4.5981   -1.5137    0.0000 C   0  0  0  0  0  0  0  0  0  0  0  0
    4.5981   -2.5137    0.0000 C   0  0  0  0  0  0  0  0  0  0  0  0
    3.7320   -1.0137    0.0000 C   0  0  0  0  0  0  0  0  0  0  0  0
    3.7320   -3.0137    0.0000 C   0  0  0  0  0  0  0  0  0  0  0  0
    2.8660   -1.5137    0.0000 C   0  0  0  0  0  0  0  0  0  0  0  0
    2.8660   -2.5137    0.0000 C   0  0  0  0  0  0  0  0  0  0  0  0
   10.7246    0.6271    0.0000 H   0  0  0  0  0  0  0  0  0  0  0  0
   10.3561    0.8361    0.0000 H   0  0  0  0  0  0  0  0  0  0  0  0
   10.9373   -1.6182    0.0000 H   0  0  0  0  0  0  0  0  0  0  0  0
   11.3391   -0.9285    0.0000 H   0  0  0  0  0  0  0  0  0  0  0  0
    9.4176   -2.0182    0.0000 H   0  0  0  0  0  0  0  0  0  0  0  0
   10.2158   -2.0274    0.0000 H   0  0  0  0  0  0  0  0  0  0  0  0
   10.4305    1.5280    0.0000 H   0  0  0  0  0  0  0  0  0  0  0  0
    9.8034    2.1408    0.0000 H   0  0  0  0  0  0  0  0  0  0  0  0
    9.1906    1.5137    0.0000 H   0  0  0  0  0  0  0  0  0  0  0  0
   12.0636   -0.4627    0.0000 H   0  0  0  0  0  0  0  0  0  0  0  0
   12.8606   -0.4597    0.0000 H   0  0  0  0  0  0  0  0  0  0  0  0
   11.3742    2.0922    0.0000 H   0  0  0  0  0  0  0  0  0  0  0  0
   10.9783    1.4004    0.0000 H   0  0  0  0  0  0  0  0  0  0  0  0
    8.0622    1.1063    0.0000 H   0  0  0  0  0  0  0  0  0  0  0  0
   13.7210    0.9936    0.0000 H   0  0  0  0  0  0  0  0  0  0  0  0
   12.9240    0.9905    0.0000 H   0  0  0  0  0  0  0  0  0  0  0  0
   12.6668    1.4320    0.0000 H   0  0  0  0  0  0  0  0  0  0  0  0
   13.0627    2.1238    0.0000 H   0  0  0  0  0  0  0  0  0  0  0  0
    6.6592    0.2963    0.0000 H   0  0  0  0  0  0  0  0  0  0  0  0
    6.8671   -1.8237    0.0000 H   0  0  0  0  0  0  0  0  0  0  0  0
   13.8844   -0.5177    0.0000 H   0  0  0  0  0  0  0  0  0  0  0  0
   14.7304   -0.2875    0.0000 H   0  0  0  0  0  0  0  0  0  0  0  0
   14.5002    0.5586    0.0000 H   0  0  0  0  0  0  0  0  0  0  0  0
   13.0687    3.0161    0.0000 H   0  0  0  0  0  0  0  0  0  0  0  0
   12.4463    3.6337    0.0000 H   0  0  0  0  0  0  0  0  0  0  0  0
   11.8287    3.0113    0.0000 H   0  0  0  0  0  0  0  0  0  0  0  0
    5.8626   -0.5388    0.0000 H   0  0  0  0  0  0  0  0  0  0  0  0
    5.0656   -0.5388    0.0000 H   0  0  0  0  0  0  0  0  0  0  0  0
    8.6182   -3.5507    0.0000 H   0  0  0  0  0  0  0  0  0  0  0  0
    9.4651   -3.3237    0.0000 H   0  0  0  0  0  0  0  0  0  0  0  0
    9.2382   -2.4768    0.0000 H   0  0  0  0  0  0  0  0  0  0  0  0
    5.7932   -2.8237    0.0000 H   0  0  0  0  0  0  0  0  0  0  0  0
    5.1350   -2.8237    0.0000 H   0  0  0  0  0  0  0  0  0  0  0  0
    3.7320   -0.3937    0.0000 H   0  0  0  0  0  0  0  0  0  0  0  0
    3.7320   -3.6337    0.0000 H   0  0  0  0  0  0  0  0  0  0  0  0
    2.3291   -1.2037    0.0000 H   0  0  0  0  0  0  0  0  0  0  0  0
  1 30  1  0  0  0  0
  2 14  1  0  0  0  0
  2 24  1  0  0  0  0
  3 20  1  0  0  0  0
  3 62  1  0  0  0  0
  5  4  1  6  0  0  0
  4 12  1  0  0  0  0
  4 13  1  0  0  0  0
  5  6  1  0  0  0  0
  5  7  1  0  0  0  0
  5 31  1  0  0  0  0
  6  8  1  0  0  0  0
  6 11  1  6  0  0  0
  6 32  1  0  0  0  0
  7  9  1  0  0  0  0
  7 33  1  0  0  0  0
  7 34  1  0  0  0  0
  8 10  2  0  0  0  0
  8 15  1  0  0  0  0
  9 10  1  0  0  0  0
  9 35  1  0  0  0  0
  9 36  1  0  0  0  0
 10 14  1  0  0  0  0
 11 37  1  0  0  0  0
 11 38  1  0  0  0  0
 11 39  1  0  0  0  0
 12 17  1  0  0  0  0
 12 40  1  0  0  0  0
 12 41  1  0  0  0  0
 13 18  1  0  0  0  0
 13 42  1  0  0  0  0
 13 43  1  0  0  0  0
 14 16  2  0  0  0  0
 15 19  2  0  0  0  0
 15 44  1  0  0  0  0
 16 19  1  0  0  0  0
 16 20  1  0  0  0  0
 17 21  1  0  0  0  0
 17 45  1  0  0  0  0
 17 46  1  0  0  0  0
 18 22  1  0  0  0  0
 18 47  1  0  0  0  0
 18 48  1  0  0  0  0
 19 49  1  0  0  0  0
 20 23  1  0  0  0  0
 20 50  1  0  0  0  0
 21 51  1  0  0  0  0
 21 52  1  0  0  0  0
 21 53  1  0  0  0  0
 22 54  1  0  0  0  0
 22 55  1  0  0  0  0
 22 56  1  0  0  0  0
 23 25  1  0  0  0  0
 23 57  1  0  0  0  0
 23 58  1  0  0  0  0
 24 59  1  0  0  0  0
 24 60  1  0  0  0  0
 24 61  1  0  0  0  0
 25 26  2  0  0  0  0
 25 27  1  0  0  0  0
 26 28  1  0  0  0  0
 26 63  1  0  0  0  0
 27 29  2  0  0  0  0
 27 64  1  0  0  0  0
 28 30  2  0  0  0  0
 28 65  1  0  0  0  0
 29 30  1  0  0  0  0
 29 66  1  0  0  0  0
M  END
> <PUBCHEM_COMPOUND_CID>
44353399

> <PUBCHEM_COMPOUND_CANONICALIZED>
1

> <PUBCHEM_CACTVS_COMPLEXITY>
489

> <PUBCHEM_CACTVS_HBOND_ACCEPTOR>
3

> <PUBCHEM_CACTVS_HBOND_DONOR>
1

> <PUBCHEM_CACTVS_ROTATABLE_BOND>
9

> <PUBCHEM_CACTVS_SUBSKEYS>
AAADcfB6MAAEAAAAAAAAAAAAAAAAAAAAAAAwYMAAAAAAAADBQAAAHgIACAAADT7hmCYyBoMABgCAAiBCAAACCAAgJQAIiAAMCogMNyKFsxuEcCAlwBGIuAeQ0PMOxAADAAAYAACYAAaAADQAAAAAAAAAAA==

> <PUBCHEM_IUPAC_OPENEYE_NAME>
2-(4-chlorophenyl)-1-[(1S,2R)-2-(dipropylamino)-5-methoxy-1-methyl-tetralin-6-yl]ethanol

> <PUBCHEM_IUPAC_CAS_NAME>
2-(4-chlorophenyl)-1-[(5S,6R)-6-(dipropylamino)-1-methoxy-5-methyl-5,6,7,8-tetrahydronaphthalen-2-yl]ethanol

> <PUBCHEM_IUPAC_NAME_MARKUP>
2-(4-chlorophenyl)-1-[(5<I>S</I>,6<I>R</I>)-6-(dipropylamino)-1-methoxy-5-methyl-5,6,7,8-tetrahydronaphthalen-2-yl]ethanol

> <PUBCHEM_IUPAC_NAME>
2-(4-chlorophenyl)-1-[(5S,6R)-6-(dipropylamino)-1-methoxy-5-methyl-5,6,7,8-tetrahydronaphthalen-2-yl]ethanol

> <PUBCHEM_IUPAC_SYSTEMATIC_NAME>
2-(4-chlorophenyl)-1-[(5S,6R)-6-(dipropylamino)-1-methoxy-5-methyl-5,6,7,8-tetrahydronaphthalen-2-yl]ethanol

> <PUBCHEM_IUPAC_TRADITIONAL_NAME>
2-(4-chlorophenyl)-1-[(1S,2R)-2-(dipropylamino)-5-methoxy-1-methyl-tetralin-6-yl]ethanol

> <PUBCHEM_IUPAC_INCHI>
InChI=1S/C26H36ClNO2/c1-5-15-28(16-6-2)24-14-13-22-21(18(24)3)11-12-23(26(22)30-4)25(29)17-19-7-9-20(27)10-8-19/h7-12,18,24-25,29H,5-6,13-17H2,1-4H3/t18-,24+,25?/m0/s1

> <PUBCHEM_IUPAC_INCHIKEY>
ZSHABDJGHVJYOC-HKNRPGJNSA-N

> <PUBCHEM_XLOGP3_AA>
6.5

> <PUBCHEM_EXACT_MASS>
429.2434571

> <PUBCHEM_MOLECULAR_FORMULA>
C26H36ClNO2

> <PUBCHEM_MOLECULAR_WEIGHT>
430.0

> <PUBCHEM_OPENEYE_CAN_SMILES>
CCCN(CCC)C1CCC2=C(C1C)C=CC(=C2OC)C(CC3=CC=C(C=C3)Cl)O

> <PUBCHEM_OPENEYE_ISO_SMILES>
CCCN(CCC)[C@@H]1CCC2=C([C@@H]1C)C=CC(=C2OC)C(CC3=CC=C(C=C3)Cl)O

> <PUBCHEM_CACTVS_TPSA>
32.7

> <PUBCHEM_MONOISOTOPIC_WEIGHT>
429.2434571

> <PUBCHEM_TOTAL_CHARGE>
0

> <PUBCHEM_HEAVY_ATOM_COUNT>
30

> <PUBCHEM_ATOM_DEF_STEREO_COUNT>
2

> <PUBCHEM_ATOM_UDEF_STEREO_COUNT>
1

> <PUBCHEM_BOND_DEF_STEREO_COUNT>
0

> <PUBCHEM_BOND_UDEF_STEREO_COUNT>
0

> <PUBCHEM_ISOTOPIC_ATOM_COUNT>
0

> <PUBCHEM_COMPONENT_COUNT>
1

> <PUBCHEM_CACTVS_TAUTO_COUNT>
-1

> <PUBCHEM_COORDINATE_TYPE>
1
5
255

> <PUBCHEM_BONDANNOTATIONS>
10  14  8
14  16  8
15  19  8
16  19  8
25  26  8
25  27  8
26  28  8
27  29  8
28  30  8
29  30  8
20  3  3
5  4  6
6  11  6
8  10  8
8  15  8

$$$$
