11692214
  -OEChem-09292322492D

 72 77  0     1  0  0  0  0  0999 V2000
    6.2062    1.3069    0.0000 S   0  0  0  0  0  0  0  0  0  0  0  0
    4.4887   -6.7415    0.0000 O   0  0  0  0  0  0  0  0  0  0  0  0
    6.2062   -2.1572    0.0000 N   0  0  3  0  0  0  0  0  0  0  0  0
    3.0949   -5.9368    0.0000 N   0  0  0  0  0  0  0  0  0  0  0  0
    7.7008    2.2774    0.0000 N   0  0  0  0  0  0  0  0  0  0  0  0
    6.2995    3.0865    0.0000 N   0  0  0  0  0  0  0  0  0  0  0  0
    7.0426    3.7556    0.0000 N   0  0  0  0  0  0  0  0  0  0  0  0
    9.9651    6.0977    0.0000 N   0  0  0  0  0  0  0  0  0  0  0  0
    6.7598   -2.9668    0.0000 C   0  0  0  0  0  0  0  0  0  0  0  0
    5.2283   -2.0826    0.0000 C   0  0  0  0  0  0  0  0  0  0  0  0
    6.4745   -3.9052    0.0000 C   0  0  0  0  0  0  0  0  0  0  0  0
    5.5640   -4.2697    0.0000 C   0  0  0  0  0  0  0  0  0  0  0  0
    4.5583   -2.7989    0.0000 C   0  0  0  0  0  0  0  0  0  0  0  0
    4.6979   -3.7697    0.0000 C   0  0  0  0  0  0  0  0  0  0  0  0
    6.7062   -1.2912    0.0000 C   0  0  0  0  0  0  0  0  0  0  0  0
    5.5640   -5.2697    0.0000 C   0  0  0  0  0  0  0  0  0  0  0  0
    3.8319   -4.2697    0.0000 C   0  0  0  0  0  0  0  0  0  0  0  0
    6.2062   -0.4252    0.0000 C   0  0  0  0  0  0  0  0  0  0  0  0
    4.6979   -5.7697    0.0000 C   0  0  0  0  0  0  0  0  0  0  0  0
    3.8319   -5.2697    0.0000 C   0  0  0  0  0  0  0  0  0  0  0  0
    6.4300   -5.7697    0.0000 C   0  0  0  0  0  0  0  0  0  0  0  0
    6.7062    0.4409    0.0000 C   0  0  0  0  0  0  0  0  0  0  0  0
    3.5000   -6.8445    0.0000 C   0  0  0  0  0  0  0  0  0  0  0  0
    3.0000   -7.7106    0.0000 C   0  0  0  0  0  0  0  0  0  0  0  0
    6.7062    2.1729    0.0000 C   0  0  0  0  0  0  0  0  0  0  0  0
    2.0000   -7.7106    0.0000 C   0  0  0  0  0  0  0  0  0  0  0  0
    7.9087    3.2556    0.0000 C   0  0  0  0  0  0  0  0  0  0  0  0
    8.8222    3.6623    0.0000 C   0  0  0  0  0  0  0  0  0  0  0  0
    8.9267    4.6569    0.0000 C   0  0  0  0  0  0  0  0  0  0  0  0
    8.3699    1.5343    0.0000 C   0  0  0  0  0  0  0  0  0  0  0  0
    9.8403    5.0636    0.0000 C   0  0  0  0  0  0  0  0  0  0  0  0
    9.6312    3.0746    0.0000 C   0  0  0  0  0  0  0  0  0  0  0  0
    8.0747    5.2560    0.0000 C   0  0  0  0  0  0  0  0  0  0  0  0
   10.6493    4.4758    0.0000 C   0  0  0  0  0  0  0  0  0  0  0  0
   10.5448    3.4813    0.0000 C   0  0  0  0  0  0  0  0  0  0  0  0
    8.1756    6.2928    0.0000 C   0  0  0  0  0  0  0  0  0  0  0  0
    9.1272    6.7164    0.0000 C   0  0  0  0  0  0  0  0  0  0  0  0
    9.2355    7.7106    0.0000 C   0  0  0  0  0  0  0  0  0  0  0  0
    7.2977   -3.2751    0.0000 H   0  0  0  0  0  0  0  0  0  0  0  0
    7.1805   -2.5114    0.0000 H   0  0  0  0  0  0  0  0  0  0  0  0
    5.4124   -1.4906    0.0000 H   0  0  0  0  0  0  0  0  0  0  0  0
    4.6923   -1.7709    0.0000 H   0  0  0  0  0  0  0  0  0  0  0  0
    6.5705   -4.5177    0.0000 H   0  0  0  0  0  0  0  0  0  0  0  0
    7.0930   -3.9485    0.0000 H   0  0  0  0  0  0  0  0  0  0  0  0
    4.2116   -2.2849    0.0000 H   0  0  0  0  0  0  0  0  0  0  0  0
    3.9798   -3.0220    0.0000 H   0  0  0  0  0  0  0  0  0  0  0  0
    7.1812   -1.6897    0.0000 H   0  0  0  0  0  0  0  0  0  0  0  0
    7.1812   -0.8926    0.0000 H   0  0  0  0  0  0  0  0  0  0  0  0
    3.2950   -3.9597    0.0000 H   0  0  0  0  0  0  0  0  0  0  0  0
    5.7313   -0.0266    0.0000 H   0  0  0  0  0  0  0  0  0  0  0  0
    5.7313   -0.8237    0.0000 H   0  0  0  0  0  0  0  0  0  0  0  0
    6.1200   -6.3066    0.0000 H   0  0  0  0  0  0  0  0  0  0  0  0
    6.9669   -6.0797    0.0000 H   0  0  0  0  0  0  0  0  0  0  0  0
    6.7400   -5.2327    0.0000 H   0  0  0  0  0  0  0  0  0  0  0  0
    7.1812    0.0423    0.0000 H   0  0  0  0  0  0  0  0  0  0  0  0
    7.1812    0.8394    0.0000 H   0  0  0  0  0  0  0  0  0  0  0  0
    2.8923   -8.3211    0.0000 H   0  0  0  0  0  0  0  0  0  0  0  0
    3.5826   -7.9226    0.0000 H   0  0  0  0  0  0  0  0  0  0  0  0
    2.0000   -7.0906    0.0000 H   0  0  0  0  0  0  0  0  0  0  0  0
    1.3800   -7.7106    0.0000 H   0  0  0  0  0  0  0  0  0  0  0  0
    2.0000   -8.3306    0.0000 H   0  0  0  0  0  0  0  0  0  0  0  0
    7.9091    1.1194    0.0000 H   0  0  0  0  0  0  0  0  0  0  0  0
    8.7848    1.0736    0.0000 H   0  0  0  0  0  0  0  0  0  0  0  0
    8.8306    1.9492    0.0000 H   0  0  0  0  0  0  0  0  0  0  0  0
    9.5664    2.4580    0.0000 H   0  0  0  0  0  0  0  0  0  0  0  0
    7.5113    4.9973    0.0000 H   0  0  0  0  0  0  0  0  0  0  0  0
   11.2157    4.7280    0.0000 H   0  0  0  0  0  0  0  0  0  0  0  0
   11.0464    3.1169    0.0000 H   0  0  0  0  0  0  0  0  0  0  0  0
    7.6726    6.6553    0.0000 H   0  0  0  0  0  0  0  0  0  0  0  0
    9.8519    7.6434    0.0000 H   0  0  0  0  0  0  0  0  0  0  0  0
    9.3027    8.3269    0.0000 H   0  0  0  0  0  0  0  0  0  0  0  0
    8.6192    7.7778    0.0000 H   0  0  0  0  0  0  0  0  0  0  0  0
  1 22  1  0  0  0  0
  1 25  1  0  0  0  0
  2 19  1  0  0  0  0
  2 23  1  0  0  0  0
  3  9  1  0  0  0  0
  3 10  1  0  0  0  0
  3 15  1  0  0  0  0
  4 20  1  0  0  0  0
  4 23  2  0  0  0  0
  5 25  1  0  0  0  0
  5 27  1  0  0  0  0
  5 30  1  0  0  0  0
  6  7  1  0  0  0  0
  6 25  2  0  0  0  0
  7 27  2  0  0  0  0
  8 31  1  0  0  0  0
  8 37  2  0  0  0  0
  9 11  1  0  0  0  0
  9 39  1  0  0  0  0
  9 40  1  0  0  0  0
 10 13  1  0  0  0  0
 10 41  1  0  0  0  0
 10 42  1  0  0  0  0
 11 12  1  0  0  0  0
 11 43  1  0  0  0  0
 11 44  1  0  0  0  0
 12 14  1  0  0  0  0
 12 16  2  0  0  0  0
 13 14  1  0  0  0  0
 13 45  1  0  0  0  0
 13 46  1  0  0  0  0
 14 17  2  0  0  0  0
 15 18  1  0  0  0  0
 15 47  1  0  0  0  0
 15 48  1  0  0  0  0
 16 19  1  0  0  0  0
 16 21  1  0  0  0  0
 17 20  1  0  0  0  0
 17 49  1  0  0  0  0
 18 22  1  0  0  0  0
 18 50  1  0  0  0  0
 18 51  1  0  0  0  0
 19 20  2  0  0  0  0
 21 52  1  0  0  0  0
 21 53  1  0  0  0  0
 21 54  1  0  0  0  0
 22 55  1  0  0  0  0
 22 56  1  0  0  0  0
 23 24  1  0  0  0  0
 24 26  1  0  0  0  0
 24 57  1  0  0  0  0
 24 58  1  0  0  0  0
 26 59  1  0  0  0  0
 26 60  1  0  0  0  0
 26 61  1  0  0  0  0
 27 28  1  0  0  0  0
 28 29  2  0  0  0  0
 28 32  1  0  0  0  0
 29 31  1  0  0  0  0
 29 33  1  0  0  0  0
 30 62  1  0  0  0  0
 30 63  1  0  0  0  0
 30 64  1  0  0  0  0
 31 34  2  0  0  0  0
 32 35  2  0  0  0  0
 32 65  1  0  0  0  0
 33 36  2  0  0  0  0
 33 66  1  0  0  0  0
 34 35  1  0  0  0  0
 34 67  1  0  0  0  0
 35 68  1  0  0  0  0
 36 37  1  0  0  0  0
 36 69  1  0  0  0  0
 37 38  1  0  0  0  0
 38 70  1  0  0  0  0
 38 71  1  0  0  0  0
 38 72  1  0  0  0  0
M  END
> <PUBCHEM_COMPOUND_CID>
11692214

> <PUBCHEM_COMPOUND_CANONICALIZED>
1

> <PUBCHEM_CACTVS_COMPLEXITY>
775

> <PUBCHEM_CACTVS_HBOND_ACCEPTOR>
7

> <PUBCHEM_CACTVS_HBOND_DONOR>
0

> <PUBCHEM_CACTVS_ROTATABLE_BOND>
7

> <PUBCHEM_CACTVS_SUBSKEYS>
AAADcfB7oABAAAAAAAAAAAAAAAAAAWLAAAA8YIAABYAAAFix/gAAHgQIAAAADAzF3wSz1vcMFEiqA6dydASS2CtvYrAd2CG9bNiOLvLkvbuPOSjkzBPY6YeY2fKOqAADQAAaEABQAAaAADQgAAAAAAAAAA==

> <PUBCHEM_IUPAC_OPENEYE_NAME>
2-ethyl-10-methyl-7-[3-[[4-methyl-5-(2-methyl-5-quinolyl)-1,2,4-triazol-3-yl]sulfanyl]propyl]-5,6,8,9-tetrahydrooxazolo[4,5-h][3]benzazepine

> <PUBCHEM_IUPAC_CAS_NAME>
2-ethyl-10-methyl-7-[3-[[4-methyl-5-(2-methyl-5-quinolinyl)-1,2,4-triazol-3-yl]thio]propyl]-5,6,8,9-tetrahydrooxazolo[4,5-h][3]benzazepine

> <PUBCHEM_IUPAC_NAME_MARKUP>
2-ethyl-10-methyl-7-[3-[[4-methyl-5-(2-methylquinolin-5-yl)-1,2,4-triazol-3-yl]sulfanyl]propyl]-5,6,8,9-tetrahydro-[1,3]oxazolo[4,5-h][3]benzazepine

> <PUBCHEM_IUPAC_NAME>
2-ethyl-10-methyl-7-[3-[[4-methyl-5-(2-methylquinolin-5-yl)-1,2,4-triazol-3-yl]sulfanyl]propyl]-5,6,8,9-tetrahydro-[1,3]oxazolo[4,5-h][3]benzazepine

> <PUBCHEM_IUPAC_SYSTEMATIC_NAME>
2-ethyl-10-methyl-7-[3-[[4-methyl-5-(2-methylquinolin-5-yl)-1,2,4-triazol-3-yl]sulfanyl]propyl]-5,6,8,9-tetrahydro-[1,3]oxazolo[4,5-h][3]benzazepine

> <PUBCHEM_IUPAC_TRADITIONAL_NAME>
2-ethyl-10-methyl-7-[3-[[4-methyl-5-(2-methyl-5-quinolyl)-1,2,4-triazol-3-yl]thio]propyl]-5,6,8,9-tetrahydrooxazolo[4,5-h][3]benzazepine

> <PUBCHEM_IUPAC_INCHI>
InChI=1S/C30H34N6OS/c1-5-27-32-26-18-21-12-15-36(16-13-22(21)20(3)28(26)37-27)14-7-17-38-30-34-33-29(35(30)4)24-8-6-9-25-23(24)11-10-19(2)31-25/h6,8-11,18H,5,7,12-17H2,1-4H3

> <PUBCHEM_IUPAC_INCHIKEY>
SVBOCVYSHIJYID-UHFFFAOYSA-N

> <PUBCHEM_XLOGP3_AA>
6

> <PUBCHEM_EXACT_MASS>
526.25148090

> <PUBCHEM_MOLECULAR_FORMULA>
C30H34N6OS

> <PUBCHEM_MOLECULAR_WEIGHT>
526.7

> <PUBCHEM_OPENEYE_CAN_SMILES>
CCC1=NC2=C(O1)C(=C3CCN(CCC3=C2)CCCSC4=NN=C(N4C)C5=C6C=CC(=NC6=CC=C5)C)C

> <PUBCHEM_OPENEYE_ISO_SMILES>
CCC1=NC2=C(O1)C(=C3CCN(CCC3=C2)CCCSC4=NN=C(N4C)C5=C6C=CC(=NC6=CC=C5)C)C

> <PUBCHEM_CACTVS_TPSA>
98.2

> <PUBCHEM_MONOISOTOPIC_WEIGHT>
526.25148090

> <PUBCHEM_TOTAL_CHARGE>
0

> <PUBCHEM_HEAVY_ATOM_COUNT>
38

> <PUBCHEM_ATOM_DEF_STEREO_COUNT>
0

> <PUBCHEM_ATOM_UDEF_STEREO_COUNT>
0

> <PUBCHEM_BOND_DEF_STEREO_COUNT>
0

> <PUBCHEM_BOND_UDEF_STEREO_COUNT>
0

> <PUBCHEM_ISOTOPIC_ATOM_COUNT>
0

> <PUBCHEM_COMPONENT_COUNT>
1

> <PUBCHEM_CACTVS_TAUTO_COUNT>
-1

> <PUBCHEM_COORDINATE_TYPE>
1
5
255

> <PUBCHEM_BONDANNOTATIONS>
12  14  8
12  16  8
14  17  8
16  19  8
17  20  8
19  20  8
2  19  8
2  23  8
28  29  8
28  32  8
29  31  8
29  33  8
31  34  8
32  35  8
33  36  8
34  35  8
36  37  8
4  20  8
4  23  8
5  25  8
5  27  8
6  25  8
6  7  8
7  27  8
8  31  8
8  37  8

$$$$
