11079151
  -OEChem-09292322112D

 55 58  0     1  0  0  0  0  0999 V2000
    2.9059    6.2846    0.0000 F   0  0  0  0  0  0  0  0  0  0  0  0
    2.9180    2.2154    0.0000 O   0  0  0  0  0  0  0  0  0  0  0  0
    5.5161   -1.2846    0.0000 O   0  0  0  0  0  0  0  0  0  0  0  0
    3.7841   -0.2846    0.0000 N   0  0  0  0  0  0  0  0  0  0  0  0
    3.7841    1.7154    0.0000 C   0  0  0  0  0  0  0  0  0  0  0  0
    2.9180    1.2154    0.0000 C   0  0  0  0  0  0  0  0  0  0  0  0
    4.6501    1.2154    0.0000 C   0  0  0  0  0  0  0  0  0  0  0  0
    4.6501    2.2154    0.0000 C   0  0  0  0  0  0  0  0  0  0  0  0
    2.9180    0.2154    0.0000 C   0  0  0  0  0  0  0  0  0  0  0  0
    4.6501    0.2154    0.0000 C   0  0  0  0  0  0  0  0  0  0  0  0
    4.6501    3.2154    0.0000 C   0  0  0  0  0  0  0  0  0  0  0  0
    3.7841   -1.2846    0.0000 C   0  0  0  0  0  0  0  0  0  0  0  0
    3.7841    3.7154    0.0000 C   0  0  0  0  0  0  0  0  0  0  0  0
    2.9180    3.2154    0.0000 C   0  0  0  0  0  0  0  0  0  0  0  0
    4.6501   -1.7846    0.0000 C   0  0  3  0  0  0  0  0  0  0  0  0
    4.6501   -2.7846    0.0000 C   0  0  0  0  0  0  0  0  0  0  0  0
    3.8001    4.7569    0.0000 C   0  0  0  0  0  0  0  0  0  0  0  0
    2.0080    3.7222    0.0000 C   0  0  0  0  0  0  0  0  0  0  0  0
    5.5161   -3.2846    0.0000 C   0  0  0  0  0  0  0  0  0  0  0  0
    2.9021    5.2846    0.0000 C   0  0  0  0  0  0  0  0  0  0  0  0
    2.0000    4.7638    0.0000 C   0  0  0  0  0  0  0  0  0  0  0  0
    5.5161   -4.2846    0.0000 C   0  0  0  0  0  0  0  0  0  0  0  0
    4.6501   -4.7846    0.0000 C   0  0  0  0  0  0  0  0  0  0  0  0
    6.3821   -4.7846    0.0000 C   0  0  0  0  0  0  0  0  0  0  0  0
    4.6501   -5.7846    0.0000 C   0  0  0  0  0  0  0  0  0  0  0  0
    6.3821   -5.7846    0.0000 C   0  0  0  0  0  0  0  0  0  0  0  0
    5.5161   -6.2846    0.0000 C   0  0  0  0  0  0  0  0  0  0  0  0
    2.7060    1.7980    0.0000 H   0  0  0  0  0  0  0  0  0  0  0  0
    2.3074    1.1077    0.0000 H   0  0  0  0  0  0  0  0  0  0  0  0
    5.2607    1.1077    0.0000 H   0  0  0  0  0  0  0  0  0  0  0  0
    4.8621    1.7980    0.0000 H   0  0  0  0  0  0  0  0  0  0  0  0
    4.8621    1.6328    0.0000 H   0  0  0  0  0  0  0  0  0  0  0  0
    5.2607    2.3230    0.0000 H   0  0  0  0  0  0  0  0  0  0  0  0
    2.3074    0.3230    0.0000 H   0  0  0  0  0  0  0  0  0  0  0  0
    2.7060   -0.3672    0.0000 H   0  0  0  0  0  0  0  0  0  0  0  0
    4.8621   -0.3672    0.0000 H   0  0  0  0  0  0  0  0  0  0  0  0
    5.2607    0.3230    0.0000 H   0  0  0  0  0  0  0  0  0  0  0  0
    5.2607    3.1077    0.0000 H   0  0  0  0  0  0  0  0  0  0  0  0
    4.8621    3.7980    0.0000 H   0  0  0  0  0  0  0  0  0  0  0  0
    3.1735   -1.1770    0.0000 H   0  0  0  0  0  0  0  0  0  0  0  0
    3.5720   -1.8672    0.0000 H   0  0  0  0  0  0  0  0  0  0  0  0
    5.1870   -2.0946    0.0000 H   0  0  0  0  0  0  0  0  0  0  0  0
    4.0395   -2.6770    0.0000 H   0  0  0  0  0  0  0  0  0  0  0  0
    4.4380   -3.3672    0.0000 H   0  0  0  0  0  0  0  0  0  0  0  0
    4.3406    5.0606    0.0000 H   0  0  0  0  0  0  0  0  0  0  0  0
    1.4747    3.4060    0.0000 H   0  0  0  0  0  0  0  0  0  0  0  0
    6.1267   -3.3923    0.0000 H   0  0  0  0  0  0  0  0  0  0  0  0
    5.7282   -2.7020    0.0000 H   0  0  0  0  0  0  0  0  0  0  0  0
    1.4619    5.0718    0.0000 H   0  0  0  0  0  0  0  0  0  0  0  0
    6.0530   -1.5946    0.0000 H   0  0  0  0  0  0  0  0  0  0  0  0
    4.1132   -4.4746    0.0000 H   0  0  0  0  0  0  0  0  0  0  0  0
    6.9191   -4.4746    0.0000 H   0  0  0  0  0  0  0  0  0  0  0  0
    4.1132   -6.0946    0.0000 H   0  0  0  0  0  0  0  0  0  0  0  0
    6.9191   -6.0946    0.0000 H   0  0  0  0  0  0  0  0  0  0  0  0
    5.5161   -6.9046    0.0000 H   0  0  0  0  0  0  0  0  0  0  0  0
  1 20  1  0  0  0  0
  2  5  1  0  0  0  0
  2 14  1  0  0  0  0
  3 15  1  0  0  0  0
  3 50  1  0  0  0  0
  4  9  1  0  0  0  0
  4 10  1  0  0  0  0
  4 12  1  0  0  0  0
  5  6  1  0  0  0  0
  5  7  1  0  0  0  0
  5  8  1  0  0  0  0
  6  9  1  0  0  0  0
  6 28  1  0  0  0  0
  6 29  1  0  0  0  0
  7 10  1  0  0  0  0
  7 30  1  0  0  0  0
  7 31  1  0  0  0  0
  8 11  1  0  0  0  0
  8 32  1  0  0  0  0
  8 33  1  0  0  0  0
  9 34  1  0  0  0  0
  9 35  1  0  0  0  0
 10 36  1  0  0  0  0
 10 37  1  0  0  0  0
 11 13  1  0  0  0  0
 11 38  1  0  0  0  0
 11 39  1  0  0  0  0
 12 15  1  0  0  0  0
 12 40  1  0  0  0  0
 12 41  1  0  0  0  0
 13 14  2  0  0  0  0
 13 17  1  0  0  0  0
 14 18  1  0  0  0  0
 15 16  1  0  0  0  0
 15 42  1  0  0  0  0
 16 19  1  0  0  0  0
 16 43  1  0  0  0  0
 16 44  1  0  0  0  0
 17 20  2  0  0  0  0
 17 45  1  0  0  0  0
 18 21  2  0  0  0  0
 18 46  1  0  0  0  0
 19 22  1  0  0  0  0
 19 47  1  0  0  0  0
 19 48  1  0  0  0  0
 20 21  1  0  0  0  0
 21 49  1  0  0  0  0
 22 23  2  0  0  0  0
 22 24  1  0  0  0  0
 23 25  1  0  0  0  0
 23 51  1  0  0  0  0
 24 26  2  0  0  0  0
 24 52  1  0  0  0  0
 25 27  2  0  0  0  0
 25 53  1  0  0  0  0
 26 27  1  0  0  0  0
 26 54  1  0  0  0  0
 27 55  1  0  0  0  0
M  END
> <PUBCHEM_COMPOUND_CID>
11079151

> <PUBCHEM_COMPOUND_CANONICALIZED>
1

> <PUBCHEM_CACTVS_COMPLEXITY>
459

> <PUBCHEM_CACTVS_HBOND_ACCEPTOR>
4

> <PUBCHEM_CACTVS_HBOND_DONOR>
1

> <PUBCHEM_CACTVS_ROTATABLE_BOND>
5

> <PUBCHEM_CACTVS_SUBSKEYS>
AAADceB6MQAAAAAAAAAAAAAAAAAAAAAAAAA8aIEAAAAAAACRQAAAHwAACAAADFThmA4wBoMABgCAAiBCAAACCAAgIAAIiAAOCIgONiKEsRqGeCCmwBGYqAeQwPAOAAAAAAAIAAAAAAAAABAAAAAAAAAAAA==

> <PUBCHEM_IUPAC_OPENEYE_NAME>
1-(6-fluorospiro[chromane-2,4'-piperidine]-1'-yl)-4-phenyl-butan-2-ol

> <PUBCHEM_IUPAC_CAS_NAME>
1-(6-fluoro-1'-spiro[3,4-dihydro-2H-1-benzopyran-2,4'-piperidine]yl)-4-phenyl-2-butanol

> <PUBCHEM_IUPAC_NAME_MARKUP>
1-(6-fluorospiro[3,4-dihydrochromene-2,4&apos;-piperidine]-1&apos;-yl)-4-phenylbutan-2-ol

> <PUBCHEM_IUPAC_NAME>
1-(6-fluorospiro[3,4-dihydrochromene-2,4'-piperidine]-1'-yl)-4-phenylbutan-2-ol

> <PUBCHEM_IUPAC_SYSTEMATIC_NAME>
1-(6-fluoranylspiro[3,4-dihydrochromene-2,4'-piperidine]-1'-yl)-4-phenyl-butan-2-ol

> <PUBCHEM_IUPAC_TRADITIONAL_NAME>
1-(6-fluorospiro[chroman-2,4'-piperidine]-1'-yl)-4-phenyl-butan-2-ol

> <PUBCHEM_IUPAC_INCHI>
InChI=1S/C23H28FNO2/c24-20-7-9-22-19(16-20)10-11-23(27-22)12-14-25(15-13-23)17-21(26)8-6-18-4-2-1-3-5-18/h1-5,7,9,16,21,26H,6,8,10-15,17H2

> <PUBCHEM_IUPAC_INCHIKEY>
JPTJNKGXZCFAFQ-UHFFFAOYSA-N

> <PUBCHEM_XLOGP3_AA>
4.5

> <PUBCHEM_EXACT_MASS>
369.21040730

> <PUBCHEM_MOLECULAR_FORMULA>
C23H28FNO2

> <PUBCHEM_MOLECULAR_WEIGHT>
369.5

> <PUBCHEM_OPENEYE_CAN_SMILES>
C1CC2(CCN(CC2)CC(CCC3=CC=CC=C3)O)OC4=C1C=C(C=C4)F

> <PUBCHEM_OPENEYE_ISO_SMILES>
C1CC2(CCN(CC2)CC(CCC3=CC=CC=C3)O)OC4=C1C=C(C=C4)F

> <PUBCHEM_CACTVS_TPSA>
32.7

> <PUBCHEM_MONOISOTOPIC_WEIGHT>
369.21040730

> <PUBCHEM_TOTAL_CHARGE>
0

> <PUBCHEM_HEAVY_ATOM_COUNT>
27

> <PUBCHEM_ATOM_DEF_STEREO_COUNT>
0

> <PUBCHEM_ATOM_UDEF_STEREO_COUNT>
1

> <PUBCHEM_BOND_DEF_STEREO_COUNT>
0

> <PUBCHEM_BOND_UDEF_STEREO_COUNT>
0

> <PUBCHEM_ISOTOPIC_ATOM_COUNT>
0

> <PUBCHEM_COMPONENT_COUNT>
1

> <PUBCHEM_CACTVS_TAUTO_COUNT>
-1

> <PUBCHEM_COORDINATE_TYPE>
1
5
255

> <PUBCHEM_BONDANNOTATIONS>
13  14  8
13  17  8
14  18  8
17  20  8
18  21  8
20  21  8
22  23  8
22  24  8
23  25  8
24  26  8
25  27  8
26  27  8
15  3  3

$$$$
