44212310
  -OEChem-09292322212D

 67 70  0     1  0  0  0  0  0999 V2000
   10.7795   -2.9556    0.0000 S   0  0  0  0  0  0  0  0  0  0  0  0
    6.8014   -2.5375    0.0000 O   0  0  0  0  0  0  0  0  0  0  0  0
   10.6750   -3.9501    0.0000 O   0  0  0  0  0  0  0  0  0  0  0  0
   10.8840   -1.9610    0.0000 O   0  0  0  0  0  0  0  0  0  0  0  0
    6.0283    1.7830    0.0000 N   0  0  3  0  0  0  0  0  0  0  0  0
    6.9988   -0.7115    0.0000 N   0  0  0  0  0  0  0  0  0  0  0  0
    5.1273    2.2169    0.0000 C   0  0  3  0  0  0  0  0  0  0  0  0
    4.9048    3.1918    0.0000 C   0  0  0  0  0  0  0  0  0  0  0  0
    6.9293    2.2169    0.0000 C   0  0  0  0  0  0  0  0  0  0  0  0
    5.5283    3.9736    0.0000 C   0  0  0  0  0  0  0  0  0  0  0  0
    7.1518    3.1918    0.0000 C   0  0  0  0  0  0  0  0  0  0  0  0
    6.5283    3.9736    0.0000 C   0  0  0  0  0  0  0  0  0  0  0  0
    6.0283    0.7830    0.0000 C   0  0  0  0  0  0  0  0  0  0  0  0
    4.3455    1.5934    0.0000 C   0  0  0  0  0  0  0  0  0  0  0  0
    6.8943    0.2830    0.0000 C   0  0  0  0  0  0  0  0  0  0  0  0
    4.4945    0.6046    0.0000 C   0  0  0  0  0  0  0  0  0  0  0  0
    3.4146    1.9587    0.0000 C   0  0  0  0  0  0  0  0  0  0  0  0
    7.8079    0.6897    0.0000 C   0  0  0  0  0  0  0  0  0  0  0  0
    7.9770   -0.9194    0.0000 C   0  0  0  0  0  0  0  0  0  0  0  0
    3.7127   -0.0189    0.0000 C   0  0  0  0  0  0  0  0  0  0  0  0
    2.6328    1.3352    0.0000 C   0  0  0  0  0  0  0  0  0  0  0  0
    8.4770   -0.0534    0.0000 C   0  0  0  0  0  0  0  0  0  0  0  0
    2.7818    0.3464    0.0000 C   0  0  0  0  0  0  0  0  0  0  0  0
    8.3837   -1.8330    0.0000 C   0  0  0  0  0  0  0  0  0  0  0  0
    2.0000   -0.2771    0.0000 C   0  0  0  0  0  0  0  0  0  0  0  0
    9.3782   -1.9375    0.0000 C   0  0  0  0  0  0  0  0  0  0  0  0
    7.7960   -2.6420    0.0000 C   0  0  0  0  0  0  0  0  0  0  0  0
    9.7850   -2.8510    0.0000 C   0  0  0  0  0  0  0  0  0  0  0  0
    8.2027   -3.5555    0.0000 C   0  0  0  0  0  0  0  0  0  0  0  0
    9.1972   -3.6601    0.0000 C   0  0  0  0  0  0  0  0  0  0  0  0
   11.7740   -3.0601    0.0000 C   0  0  0  0  0  0  0  0  0  0  0  0
   12.1808   -3.9736    0.0000 C   0  0  0  0  0  0  0  0  0  0  0  0
    6.2136   -3.3465    0.0000 C   0  0  0  0  0  0  0  0  0  0  0  0
    4.5421    2.4217    0.0000 H   0  0  0  0  0  0  0  0  0  0  0  0
    4.5182    3.6766    0.0000 H   0  0  0  0  0  0  0  0  0  0  0  0
    4.3462    2.9228    0.0000 H   0  0  0  0  0  0  0  0  0  0  0  0
    7.0672    1.6124    0.0000 H   0  0  0  0  0  0  0  0  0  0  0  0
    7.5493    2.2169    0.0000 H   0  0  0  0  0  0  0  0  0  0  0  0
    5.6663    4.5781    0.0000 H   0  0  0  0  0  0  0  0  0  0  0  0
    4.9697    4.2427    0.0000 H   0  0  0  0  0  0  0  0  0  0  0  0
    7.7104    2.9228    0.0000 H   0  0  0  0  0  0  0  0  0  0  0  0
    7.5384    3.6766    0.0000 H   0  0  0  0  0  0  0  0  0  0  0  0
    7.0869    4.2427    0.0000 H   0  0  0  0  0  0  0  0  0  0  0  0
    6.3903    4.5781    0.0000 H   0  0  0  0  0  0  0  0  0  0  0  0
    5.4177    0.8907    0.0000 H   0  0  0  0  0  0  0  0  0  0  0  0
    5.8162    0.2004    0.0000 H   0  0  0  0  0  0  0  0  0  0  0  0
    5.0717    0.3781    0.0000 H   0  0  0  0  0  0  0  0  0  0  0  0
    3.3222    2.5718    0.0000 H   0  0  0  0  0  0  0  0  0  0  0  0
    6.5381   -1.1264    0.0000 H   0  0  0  0  0  0  0  0  0  0  0  0
    7.9368    1.2962    0.0000 H   0  0  0  0  0  0  0  0  0  0  0  0
    3.8051   -0.6320    0.0000 H   0  0  0  0  0  0  0  0  0  0  0  0
    2.0556    1.5618    0.0000 H   0  0  0  0  0  0  0  0  0  0  0  0
    9.0936    0.0114    0.0000 H   0  0  0  0  0  0  0  0  0  0  0  0
    1.6134    0.2077    0.0000 H   0  0  0  0  0  0  0  0  0  0  0  0
    1.5153   -0.6636    0.0000 H   0  0  0  0  0  0  0  0  0  0  0  0
    2.3866   -0.7618    0.0000 H   0  0  0  0  0  0  0  0  0  0  0  0
    9.7427   -1.4359    0.0000 H   0  0  0  0  0  0  0  0  0  0  0  0
    7.8383   -4.0571    0.0000 H   0  0  0  0  0  0  0  0  0  0  0  0
    9.4494   -4.2265    0.0000 H   0  0  0  0  0  0  0  0  0  0  0  0
   12.3756   -2.9101    0.0000 H   0  0  0  0  0  0  0  0  0  0  0  0
   11.7308   -2.4416    0.0000 H   0  0  0  0  0  0  0  0  0  0  0  0
   11.6144   -4.2258    0.0000 H   0  0  0  0  0  0  0  0  0  0  0  0
   12.4329   -4.5400    0.0000 H   0  0  0  0  0  0  0  0  0  0  0  0
   12.7472   -3.7215    0.0000 H   0  0  0  0  0  0  0  0  0  0  0  0
    5.7120   -2.9820    0.0000 H   0  0  0  0  0  0  0  0  0  0  0  0
    5.8492   -3.8481    0.0000 H   0  0  0  0  0  0  0  0  0  0  0  0
    6.7152   -3.7109    0.0000 H   0  0  0  0  0  0  0  0  0  0  0  0
  1  3  2  0  0  0  0
  1  4  2  0  0  0  0
  1 28  1  0  0  0  0
  1 31  1  0  0  0  0
  2 27  1  0  0  0  0
  2 33  1  0  0  0  0
  5  7  1  0  0  0  0
  5  9  1  0  0  0  0
  5 13  1  0  0  0  0
  6 15  1  0  0  0  0
  6 19  1  0  0  0  0
  6 49  1  0  0  0  0
  7  8  1  0  0  0  0
  7 14  1  0  0  0  0
  7 34  1  0  0  0  0
  8 10  1  0  0  0  0
  8 35  1  0  0  0  0
  8 36  1  0  0  0  0
  9 11  1  0  0  0  0
  9 37  1  0  0  0  0
  9 38  1  0  0  0  0
 10 12  1  0  0  0  0
 10 39  1  0  0  0  0
 10 40  1  0  0  0  0
 11 12  1  0  0  0  0
 11 41  1  0  0  0  0
 11 42  1  0  0  0  0
 12 43  1  0  0  0  0
 12 44  1  0  0  0  0
 13 15  1  0  0  0  0
 13 45  1  0  0  0  0
 13 46  1  0  0  0  0
 14 16  2  0  0  0  0
 14 17  1  0  0  0  0
 15 18  2  0  0  0  0
 16 20  1  0  0  0  0
 16 47  1  0  0  0  0
 17 21  2  0  0  0  0
 17 48  1  0  0  0  0
 18 22  1  0  0  0  0
 18 50  1  0  0  0  0
 19 22  2  0  0  0  0
 19 24  1  0  0  0  0
 20 23  2  0  0  0  0
 20 51  1  0  0  0  0
 21 23  1  0  0  0  0
 21 52  1  0  0  0  0
 22 53  1  0  0  0  0
 23 25  1  0  0  0  0
 24 26  1  0  0  0  0
 24 27  2  0  0  0  0
 25 54  1  0  0  0  0
 25 55  1  0  0  0  0
 25 56  1  0  0  0  0
 26 28  2  0  0  0  0
 26 57  1  0  0  0  0
 27 29  1  0  0  0  0
 28 30  1  0  0  0  0
 29 30  2  0  0  0  0
 29 58  1  0  0  0  0
 30 59  1  0  0  0  0
 31 32  1  0  0  0  0
 31 60  1  0  0  0  0
 31 61  1  0  0  0  0
 32 62  1  0  0  0  0
 32 63  1  0  0  0  0
 32 64  1  0  0  0  0
 33 65  1  0  0  0  0
 33 66  1  0  0  0  0
 33 67  1  0  0  0  0
M  END
> <PUBCHEM_COMPOUND_CID>
44212310

> <PUBCHEM_COMPOUND_CANONICALIZED>
1

> <PUBCHEM_CACTVS_COMPLEXITY>
701

> <PUBCHEM_CACTVS_HBOND_ACCEPTOR>
4

> <PUBCHEM_CACTVS_HBOND_DONOR>
1

> <PUBCHEM_CACTVS_ROTATABLE_BOND>
7

> <PUBCHEM_CACTVS_SUBSKEYS>
AAADcfB7MABAAAAAAAAAAAAAAAAAAWAAAAAwYAAABYAAAAAB0AAAHgQQAAAADCzF3gayh5PJlAqgAyRiRHDCiCAhKjAImTg+bJgMZuLksZuUMChm0BHo6AeQwOAOQIAAgAAIAACBAAEAABAAAAAAAAAAAA==

> <PUBCHEM_IUPAC_OPENEYE_NAME>
1-[[5-(5-ethylsulfonyl-2-methoxy-phenyl)-1H-pyrrol-2-yl]methyl]-2-(p-tolyl)azepane

> <PUBCHEM_IUPAC_CAS_NAME>
1-[[5-(5-ethylsulfonyl-2-methoxyphenyl)-1H-pyrrol-2-yl]methyl]-2-(4-methylphenyl)azepane

> <PUBCHEM_IUPAC_NAME_MARKUP>
1-[[5-(5-ethylsulfonyl-2-methoxyphenyl)-1<I>H</I>-pyrrol-2-yl]methyl]-2-(4-methylphenyl)azepane

> <PUBCHEM_IUPAC_NAME>
1-[[5-(5-ethylsulfonyl-2-methoxyphenyl)-1H-pyrrol-2-yl]methyl]-2-(4-methylphenyl)azepane

> <PUBCHEM_IUPAC_SYSTEMATIC_NAME>
1-[[5-(5-ethylsulfonyl-2-methoxy-phenyl)-1H-pyrrol-2-yl]methyl]-2-(4-methylphenyl)azepane

> <PUBCHEM_IUPAC_TRADITIONAL_NAME>
1-[[5-(5-esyl-2-methoxy-phenyl)-1H-pyrrol-2-yl]methyl]-2-(p-tolyl)azepane

> <PUBCHEM_IUPAC_INCHI>
InChI=1S/C27H34N2O3S/c1-4-33(30,31)23-14-16-27(32-3)24(18-23)25-15-13-22(28-25)19-29-17-7-5-6-8-26(29)21-11-9-20(2)10-12-21/h9-16,18,26,28H,4-8,17,19H2,1-3H3

> <PUBCHEM_IUPAC_INCHIKEY>
XMOYTZMFUFFAOA-UHFFFAOYSA-N

> <PUBCHEM_XLOGP3_AA>
4.9

> <PUBCHEM_EXACT_MASS>
466.22901412

> <PUBCHEM_MOLECULAR_FORMULA>
C27H34N2O3S

> <PUBCHEM_MOLECULAR_WEIGHT>
466.6

> <PUBCHEM_OPENEYE_CAN_SMILES>
CCS(=O)(=O)C1=CC(=C(C=C1)OC)C2=CC=C(N2)CN3CCCCCC3C4=CC=C(C=C4)C

> <PUBCHEM_OPENEYE_ISO_SMILES>
CCS(=O)(=O)C1=CC(=C(C=C1)OC)C2=CC=C(N2)CN3CCCCCC3C4=CC=C(C=C4)C

> <PUBCHEM_CACTVS_TPSA>
70.8

> <PUBCHEM_MONOISOTOPIC_WEIGHT>
466.22901412

> <PUBCHEM_TOTAL_CHARGE>
0

> <PUBCHEM_HEAVY_ATOM_COUNT>
33

> <PUBCHEM_ATOM_DEF_STEREO_COUNT>
0

> <PUBCHEM_ATOM_UDEF_STEREO_COUNT>
1

> <PUBCHEM_BOND_DEF_STEREO_COUNT>
0

> <PUBCHEM_BOND_UDEF_STEREO_COUNT>
0

> <PUBCHEM_ISOTOPIC_ATOM_COUNT>
0

> <PUBCHEM_COMPONENT_COUNT>
1

> <PUBCHEM_CACTVS_TAUTO_COUNT>
-1

> <PUBCHEM_COORDINATE_TYPE>
1
5
255

> <PUBCHEM_BONDANNOTATIONS>
14  16  8
14  17  8
15  18  8
16  20  8
17  21  8
18  22  8
19  22  8
20  23  8
21  23  8
24  26  8
24  27  8
26  28  8
27  29  8
28  30  8
29  30  8
6  15  8
6  19  8
7  14  3

$$$$
