10216820
  -OEChem-09292322242D

 55 58  0     1  0  0  0  0  0999 V2000
   14.7983   -2.2933    0.0000 Cl  0  0  0  0  0  0  0  0  0  0  0  0
    8.7227    1.1833    0.0000 S   0  0  0  0  0  0  0  0  0  0  0  0
    9.2194    2.0513    0.0000 O   0  0  0  0  0  0  0  0  0  0  0  0
    8.2260    0.3154    0.0000 O   0  0  0  0  0  0  0  0  0  0  0  0
    3.0000    0.6558    0.0000 N   0  0  3  0  0  0  0  0  0  0  0  0
    7.8547    1.6800    0.0000 N   0  0  0  0  0  0  0  0  0  0  0  0
    4.4088    1.7793    0.0000 C   0  0  0  0  0  0  0  0  0  0  0  0
    4.4088   -0.4677    0.0000 C   0  0  0  0  0  0  0  0  0  0  0  0
    3.4339    1.5568    0.0000 C   0  0  0  0  0  0  0  0  0  0  0  0
    3.4339   -0.2451    0.0000 C   0  0  0  0  0  0  0  0  0  0  0  0
    5.1906    1.1558    0.0000 C   0  0  0  0  0  0  0  0  0  0  0  0
    5.1906    0.1558    0.0000 C   0  0  0  0  0  0  0  0  0  0  0  0
    6.0846    1.6905    0.0000 C   0  0  0  0  0  0  0  0  0  0  0  0
    6.0846   -0.3788    0.0000 C   0  0  0  0  0  0  0  0  0  0  0  0
    6.9906    1.1766    0.0000 C   0  0  0  0  0  0  0  0  0  0  0  0
    2.0000    0.6558    0.0000 C   0  0  0  0  0  0  0  0  0  0  0  0
    6.9906    0.1350    0.0000 C   0  0  0  0  0  0  0  0  0  0  0  0
    9.5906    0.6867    0.0000 C   0  0  0  0  0  0  0  0  0  0  0  0
    9.5945   -0.3133    0.0000 C   0  0  0  0  0  0  0  0  0  0  0  0
   10.4624   -0.8100    0.0000 C   0  0  0  0  0  0  0  0  0  0  0  0
   11.3265   -0.3067    0.0000 C   0  0  0  0  0  0  0  0  0  0  0  0
   10.4547    1.1900    0.0000 C   0  0  0  0  0  0  0  0  0  0  0  0
   11.3227    0.6933    0.0000 C   0  0  0  0  0  0  0  0  0  0  0  0
   12.1945   -0.8033    0.0000 C   0  0  0  0  0  0  0  0  0  0  0  0
   10.4663   -1.8100    0.0000 C   0  0  0  0  0  0  0  0  0  0  0  0
   13.0586   -0.3000    0.0000 C   0  0  0  0  0  0  0  0  0  0  0  0
   12.1983   -1.8033    0.0000 C   0  0  0  0  0  0  0  0  0  0  0  0
   13.9265   -0.7966    0.0000 C   0  0  0  0  0  0  0  0  0  0  0  0
   13.0663   -2.3000    0.0000 C   0  0  0  0  0  0  0  0  0  0  0  0
   13.9304   -1.7966    0.0000 C   0  0  0  0  0  0  0  0  0  0  0  0
    4.8936    2.1659    0.0000 H   0  0  0  0  0  0  0  0  0  0  0  0
    4.1398    2.3379    0.0000 H   0  0  0  0  0  0  0  0  0  0  0  0
    4.1398   -1.0263    0.0000 H   0  0  0  0  0  0  0  0  0  0  0  0
    4.8936   -0.8542    0.0000 H   0  0  0  0  0  0  0  0  0  0  0  0
    3.4339    2.1768    0.0000 H   0  0  0  0  0  0  0  0  0  0  0  0
    2.8294    1.6948    0.0000 H   0  0  0  0  0  0  0  0  0  0  0  0
    2.8294   -0.3831    0.0000 H   0  0  0  0  0  0  0  0  0  0  0  0
    3.4339   -0.8651    0.0000 H   0  0  0  0  0  0  0  0  0  0  0  0
    6.0774    2.3104    0.0000 H   0  0  0  0  0  0  0  0  0  0  0  0
    6.0774   -0.9988    0.0000 H   0  0  0  0  0  0  0  0  0  0  0  0
    2.0000    1.2758    0.0000 H   0  0  0  0  0  0  0  0  0  0  0  0
    1.3800    0.6558    0.0000 H   0  0  0  0  0  0  0  0  0  0  0  0
    2.0000    0.0358    0.0000 H   0  0  0  0  0  0  0  0  0  0  0  0
    7.5264   -0.1771    0.0000 H   0  0  0  0  0  0  0  0  0  0  0  0
    7.8524    2.3000    0.0000 H   0  0  0  0  0  0  0  0  0  0  0  0
    9.0588   -0.6254    0.0000 H   0  0  0  0  0  0  0  0  0  0  0  0
   10.4523    1.8100    0.0000 H   0  0  0  0  0  0  0  0  0  0  0  0
   11.8584    1.0054    0.0000 H   0  0  0  0  0  0  0  0  0  0  0  0
    9.8463   -1.8124    0.0000 H   0  0  0  0  0  0  0  0  0  0  0  0
   10.4687   -2.4300    0.0000 H   0  0  0  0  0  0  0  0  0  0  0  0
   11.0863   -1.8076    0.0000 H   0  0  0  0  0  0  0  0  0  0  0  0
   13.0562    0.3200    0.0000 H   0  0  0  0  0  0  0  0  0  0  0  0
   11.6626   -2.1154    0.0000 H   0  0  0  0  0  0  0  0  0  0  0  0
   14.4622   -0.4846    0.0000 H   0  0  0  0  0  0  0  0  0  0  0  0
   13.0687   -2.9200    0.0000 H   0  0  0  0  0  0  0  0  0  0  0  0
  1 30  1  0  0  0  0
  2  3  2  0  0  0  0
  2  4  2  0  0  0  0
  2  6  1  0  0  0  0
  2 18  1  0  0  0  0
  5  9  1  0  0  0  0
  5 10  1  0  0  0  0
  5 16  1  0  0  0  0
  6 15  1  0  0  0  0
  6 45  1  0  0  0  0
  7  9  1  0  0  0  0
  7 11  1  0  0  0  0
  7 31  1  0  0  0  0
  7 32  1  0  0  0  0
  8 10  1  0  0  0  0
  8 12  1  0  0  0  0
  8 33  1  0  0  0  0
  8 34  1  0  0  0  0
  9 35  1  0  0  0  0
  9 36  1  0  0  0  0
 10 37  1  0  0  0  0
 10 38  1  0  0  0  0
 11 12  2  0  0  0  0
 11 13  1  0  0  0  0
 12 14  1  0  0  0  0
 13 15  2  0  0  0  0
 13 39  1  0  0  0  0
 14 17  2  0  0  0  0
 14 40  1  0  0  0  0
 15 17  1  0  0  0  0
 16 41  1  0  0  0  0
 16 42  1  0  0  0  0
 16 43  1  0  0  0  0
 17 44  1  0  0  0  0
 18 19  2  0  0  0  0
 18 22  1  0  0  0  0
 19 20  1  0  0  0  0
 19 46  1  0  0  0  0
 20 21  2  0  0  0  0
 20 25  1  0  0  0  0
 21 23  1  0  0  0  0
 21 24  1  0  0  0  0
 22 23  2  0  0  0  0
 22 47  1  0  0  0  0
 23 48  1  0  0  0  0
 24 26  2  0  0  0  0
 24 27  1  0  0  0  0
 25 49  1  0  0  0  0
 25 50  1  0  0  0  0
 25 51  1  0  0  0  0
 26 28  1  0  0  0  0
 26 52  1  0  0  0  0
 27 29  2  0  0  0  0
 27 53  1  0  0  0  0
 28 30  2  0  0  0  0
 28 54  1  0  0  0  0
 29 30  1  0  0  0  0
 29 55  1  0  0  0  0
M  END
> <PUBCHEM_COMPOUND_CID>
10216820

> <PUBCHEM_COMPOUND_CANONICALIZED>
1

> <PUBCHEM_CACTVS_COMPLEXITY>
659

> <PUBCHEM_CACTVS_HBOND_ACCEPTOR>
4

> <PUBCHEM_CACTVS_HBOND_DONOR>
1

> <PUBCHEM_CACTVS_ROTATABLE_BOND>
4

> <PUBCHEM_CACTVS_SUBSKEYS>
AAADceB7MABEAAAAAAAAAAAAAAAAAAAAAAAwYMAABYAAAAABUAAAHAYQQAAADArBWCQywYNAAAKAAiRCQHDCABAgBwAIiBgIZogIICKBk5GEIABgkACIyAcQgMAOnAAAwAAQAAA4AAGAACAAAAAAAAAAAA==

> <PUBCHEM_IUPAC_OPENEYE_NAME>
4-(4-chlorophenyl)-3-methyl-N-(3-methyl-1,2,4,5-tetrahydro-3-benzazepin-7-yl)benzenesulfonamide

> <PUBCHEM_IUPAC_CAS_NAME>
4-(4-chlorophenyl)-3-methyl-N-(3-methyl-1,2,4,5-tetrahydro-3-benzazepin-7-yl)benzenesulfonamide

> <PUBCHEM_IUPAC_NAME_MARKUP>
4-(4-chlorophenyl)-3-methyl-<I>N</I>-(3-methyl-1,2,4,5-tetrahydro-3-benzazepin-7-yl)benzenesulfonamide

> <PUBCHEM_IUPAC_NAME>
4-(4-chlorophenyl)-3-methyl-N-(3-methyl-1,2,4,5-tetrahydro-3-benzazepin-7-yl)benzenesulfonamide

> <PUBCHEM_IUPAC_SYSTEMATIC_NAME>
4-(4-chlorophenyl)-3-methyl-N-(3-methyl-1,2,4,5-tetrahydro-3-benzazepin-7-yl)benzenesulfonamide

> <PUBCHEM_IUPAC_TRADITIONAL_NAME>
4-(4-chlorophenyl)-3-methyl-N-(3-methyl-1,2,4,5-tetrahydro-3-benzazepin-7-yl)benzenesulfonamide

> <PUBCHEM_IUPAC_INCHI>
InChI=1S/C24H25ClN2O2S/c1-17-15-23(9-10-24(17)19-3-6-21(25)7-4-19)30(28,29)26-22-8-5-18-11-13-27(2)14-12-20(18)16-22/h3-10,15-16,26H,11-14H2,1-2H3

> <PUBCHEM_IUPAC_INCHIKEY>
UAJYHPWCBGWDNL-UHFFFAOYSA-N

> <PUBCHEM_XLOGP3_AA>
5.4

> <PUBCHEM_EXACT_MASS>
440.1325269

> <PUBCHEM_MOLECULAR_FORMULA>
C24H25ClN2O2S

> <PUBCHEM_MOLECULAR_WEIGHT>
441.0

> <PUBCHEM_OPENEYE_CAN_SMILES>
CC1=C(C=CC(=C1)S(=O)(=O)NC2=CC3=C(CCN(CC3)C)C=C2)C4=CC=C(C=C4)Cl

> <PUBCHEM_OPENEYE_ISO_SMILES>
CC1=C(C=CC(=C1)S(=O)(=O)NC2=CC3=C(CCN(CC3)C)C=C2)C4=CC=C(C=C4)Cl

> <PUBCHEM_CACTVS_TPSA>
57.8

> <PUBCHEM_MONOISOTOPIC_WEIGHT>
440.1325269

> <PUBCHEM_TOTAL_CHARGE>
0

> <PUBCHEM_HEAVY_ATOM_COUNT>
30

> <PUBCHEM_ATOM_DEF_STEREO_COUNT>
0

> <PUBCHEM_ATOM_UDEF_STEREO_COUNT>
0

> <PUBCHEM_BOND_DEF_STEREO_COUNT>
0

> <PUBCHEM_BOND_UDEF_STEREO_COUNT>
0

> <PUBCHEM_ISOTOPIC_ATOM_COUNT>
0

> <PUBCHEM_COMPONENT_COUNT>
1

> <PUBCHEM_CACTVS_TAUTO_COUNT>
-1

> <PUBCHEM_COORDINATE_TYPE>
1
5
255

> <PUBCHEM_BONDANNOTATIONS>
11  12  8
11  13  8
12  14  8
13  15  8
14  17  8
15  17  8
18  19  8
18  22  8
19  20  8
20  21  8
21  23  8
22  23  8
24  26  8
24  27  8
26  28  8
27  29  8
28  30  8
29  30  8

$$$$
