52945022
  -OEChem-09292322482D

 61 64  0     1  0  0  0  0  0999 V2000
   12.3306    6.0571    0.0000 Cl  0  0  0  0  0  0  0  0  0  0  0  0
    3.0596    5.3821    0.0000 S   0  0  0  0  0  0  0  0  0  0  0  0
   10.3305    8.6142    0.0000 F   0  0  0  0  0  0  0  0  0  0  0  0
    8.5985   12.6142    0.0000 F   0  0  0  0  0  0  0  0  0  0  0  0
    9.5985   11.6142    0.0000 F   0  0  0  0  0  0  0  0  0  0  0  0
    7.5985   11.6142    0.0000 F   0  0  0  0  0  0  0  0  0  0  0  0
    3.1938    1.4389    0.0000 O   0  0  0  0  0  0  0  0  0  0  0  0
    6.0596    7.1142    0.0000 N   0  0  0  0  0  0  0  0  0  0  0  0
    2.9664    3.6026    0.0000 N   0  0  0  0  0  0  0  0  0  0  0  0
    1.5651    4.4116    0.0000 N   0  0  0  0  0  0  0  0  0  0  0  0
    1.3572    3.4334    0.0000 N   0  0  0  0  0  0  0  0  0  0  0  0
    1.9913    0.3562    0.0000 N   0  0  0  0  0  0  0  0  0  0  0  0
    8.5985    7.6142    0.0000 C   0  0  2  0  0  0  0  0  0  0  0  0
    8.5985    6.6142    0.0000 C   0  0  3  0  0  0  0  0  0  0  0  0
    9.4650    7.1142    0.0000 C   0  0  0  0  0  0  0  0  0  0  0  0
    7.6474    7.9232    0.0000 C   0  0  0  0  0  0  0  0  0  0  0  0
    7.6474    6.3052    0.0000 C   0  0  0  0  0  0  0  0  0  0  0  0
    7.0596    7.1142    0.0000 C   0  0  1  0  0  0  0  0  0  0  0  0
    8.5985    8.6142    0.0000 C   0  0  0  0  0  0  0  0  0  0  0  0
    9.4645    9.1142    0.0000 C   0  0  0  0  0  0  0  0  0  0  0  0
    7.7324    9.1142    0.0000 C   0  0  0  0  0  0  0  0  0  0  0  0
    5.5596    6.2482    0.0000 C   0  0  0  0  0  0  0  0  0  0  0  0
    9.4645   10.1142    0.0000 C   0  0  0  0  0  0  0  0  0  0  0  0
    7.7324   10.1142    0.0000 C   0  0  0  0  0  0  0  0  0  0  0  0
    8.5985   10.6142    0.0000 C   0  0  0  0  0  0  0  0  0  0  0  0
    4.5596    6.2482    0.0000 C   0  0  0  0  0  0  0  0  0  0  0  0
    4.0596    5.3821    0.0000 C   0  0  0  0  0  0  0  0  0  0  0  0
    8.5985   11.6142    0.0000 C   0  0  0  0  0  0  0  0  0  0  0  0
    2.5596    4.5161    0.0000 C   0  0  0  0  0  0  0  0  0  0  0  0
    2.2232    2.9334    0.0000 C   0  0  0  0  0  0  0  0  0  0  0  0
    3.9445    3.3946    0.0000 C   0  0  0  0  0  0  0  0  0  0  0  0
    2.3277    1.9389    0.0000 C   0  0  0  0  0  0  0  0  0  0  0  0
    1.5846    1.2698    0.0000 C   0  0  0  0  0  0  0  0  0  0  0  0
    0.6065    1.4777    0.0000 C   0  0  0  0  0  0  0  0  0  0  0  0
    2.9859    0.4608    0.0000 C   0  0  0  0  0  0  0  0  0  0  0  0
    8.8506    6.0477    0.0000 H   0  0  0  0  0  0  0  0  0  0  0  0
    9.8635    6.6392    0.0000 H   0  0  0  0  0  0  0  0  0  0  0  0
    9.8635    7.5892    0.0000 H   0  0  0  0  0  0  0  0  0  0  0  0
    7.8996    8.4896    0.0000 H   0  0  0  0  0  0  0  0  0  0  0  0
    7.1105    8.2332    0.0000 H   0  0  0  0  0  0  0  0  0  0  0  0
    7.1105    5.9952    0.0000 H   0  0  0  0  0  0  0  0  0  0  0  0
    7.8996    5.7388    0.0000 H   0  0  0  0  0  0  0  0  0  0  0  0
    6.7782    6.5618    0.0000 H   0  0  0  0  0  0  0  0  0  0  0  0
    5.7496    7.6511    0.0000 H   0  0  0  0  0  0  0  0  0  0  0  0
    7.1955    8.8042    0.0000 H   0  0  0  0  0  0  0  0  0  0  0  0
    5.4520    5.6376    0.0000 H   0  0  0  0  0  0  0  0  0  0  0  0
    6.1422    6.0361    0.0000 H   0  0  0  0  0  0  0  0  0  0  0  0
   10.0014   10.4242    0.0000 H   0  0  0  0  0  0  0  0  0  0  0  0
    7.1955   10.4242    0.0000 H   0  0  0  0  0  0  0  0  0  0  0  0
    4.6673    6.8587    0.0000 H   0  0  0  0  0  0  0  0  0  0  0  0
    3.9770    6.4602    0.0000 H   0  0  0  0  0  0  0  0  0  0  0  0
    3.9520    4.7715    0.0000 H   0  0  0  0  0  0  0  0  0  0  0  0
    4.6422    5.1701    0.0000 H   0  0  0  0  0  0  0  0  0  0  0  0
    3.8156    2.7882    0.0000 H   0  0  0  0  0  0  0  0  0  0  0  0
    4.5510    3.2657    0.0000 H   0  0  0  0  0  0  0  0  0  0  0  0
    4.0734    4.0011    0.0000 H   0  0  0  0  0  0  0  0  0  0  0  0
    0.7354    2.0841    0.0000 H   0  0  0  0  0  0  0  0  0  0  0  0
    0.0000    1.6066    0.0000 H   0  0  0  0  0  0  0  0  0  0  0  0
    0.4775    0.8712    0.0000 H   0  0  0  0  0  0  0  0  0  0  0  0
    3.4007    0.0000    0.0000 H   0  0  0  0  0  0  0  0  0  0  0  0
   13.3306    6.0571    0.0000 H   0  0  0  0  0  0  0  0  0  0  0  0
  1 61  1  0  0  0  0
  2 27  1  0  0  0  0
  2 29  1  0  0  0  0
  3 20  1  0  0  0  0
  4 28  1  0  0  0  0
  5 28  1  0  0  0  0
  6 28  1  0  0  0  0
  7 32  1  0  0  0  0
  7 35  1  0  0  0  0
 18  8  1  1  0  0  0
  8 22  1  0  0  0  0
  8 44  1  0  0  0  0
  9 29  1  0  0  0  0
  9 30  1  0  0  0  0
  9 31  1  0  0  0  0
 10 11  1  0  0  0  0
 10 29  2  0  0  0  0
 11 30  2  0  0  0  0
 12 33  1  0  0  0  0
 12 35  2  0  0  0  0
 13 14  1  0  0  0  0
 13 15  1  0  0  0  0
 13 16  1  0  0  0  0
 13 19  1  6  0  0  0
 14 15  1  0  0  0  0
 14 17  1  0  0  0  0
 14 36  1  0  0  0  0
 15 37  1  0  0  0  0
 15 38  1  0  0  0  0
 16 18  1  0  0  0  0
 16 39  1  0  0  0  0
 16 40  1  0  0  0  0
 17 18  1  0  0  0  0
 17 41  1  0  0  0  0
 17 42  1  0  0  0  0
 18 43  1  0  0  0  0
 19 20  2  0  0  0  0
 19 21  1  0  0  0  0
 20 23  1  0  0  0  0
 21 24  2  0  0  0  0
 21 45  1  0  0  0  0
 22 26  1  0  0  0  0
 22 46  1  0  0  0  0
 22 47  1  0  0  0  0
 23 25  2  0  0  0  0
 23 48  1  0  0  0  0
 24 25  1  0  0  0  0
 24 49  1  0  0  0  0
 25 28  1  0  0  0  0
 26 27  1  0  0  0  0
 26 50  1  0  0  0  0
 26 51  1  0  0  0  0
 27 52  1  0  0  0  0
 27 53  1  0  0  0  0
 30 32  1  0  0  0  0
 31 54  1  0  0  0  0
 31 55  1  0  0  0  0
 31 56  1  0  0  0  0
 32 33  2  0  0  0  0
 33 34  1  0  0  0  0
 34 57  1  0  0  0  0
 34 58  1  0  0  0  0
 34 59  1  0  0  0  0
 35 60  1  0  0  0  0
M  END
> <PUBCHEM_COMPOUND_CID>
52945022

> <PUBCHEM_COMPOUND_CANONICALIZED>
1

> <PUBCHEM_CACTVS_COMPLEXITY>
719

> <PUBCHEM_CACTVS_HBOND_ACCEPTOR>
10

> <PUBCHEM_CACTVS_HBOND_DONOR>
2

> <PUBCHEM_CACTVS_ROTATABLE_BOND>
8

> <PUBCHEM_CACTVS_SUBSKEYS>
AAADceB7ocBEAAAAAAAAAAAAGAAAAeLEAAAwYAAAAAAAAAAB8AAAHwQYAAAADyzF3x63lJfMFEiqA6Zz9ASS2Ct7YLAd2KG9RJiOKCLk2TCNIChgnALYiAcQgMAPwAAAAAAAAACAAACAAAAAACAACAAAAA==

> <PUBCHEM_IUPAC_OPENEYE_NAME>
(1S,3R)-1-[2-fluoro-4-(trifluoromethyl)phenyl]-N-[3-[[4-methyl-5-(4-methyloxazol-5-yl)-1,2,4-triazol-3-yl]sulfanyl]propyl]bicyclo[3.1.0]hexan-3-amine;hydrochloride

> <PUBCHEM_IUPAC_CAS_NAME>
(1S,3R)-1-[2-fluoro-4-(trifluoromethyl)phenyl]-N-[3-[[4-methyl-5-(4-methyl-5-oxazolyl)-1,2,4-triazol-3-yl]thio]propyl]-3-bicyclo[3.1.0]hexanamine;hydrochloride

> <PUBCHEM_IUPAC_NAME_MARKUP>
(1<I>S</I>,3<I>R</I>)-1-[2-fluoro-4-(trifluoromethyl)phenyl]-<I>N</I>-[3-[[4-methyl-5-(4-methyl-1,3-oxazol-5-yl)-1,2,4-triazol-3-yl]sulfanyl]propyl]bicyclo[3.1.0]hexan-3-amine;hydrochloride

> <PUBCHEM_IUPAC_NAME>
(1S,3R)-1-[2-fluoro-4-(trifluoromethyl)phenyl]-N-[3-[[4-methyl-5-(4-methyl-1,3-oxazol-5-yl)-1,2,4-triazol-3-yl]sulfanyl]propyl]bicyclo[3.1.0]hexan-3-amine;hydrochloride

> <PUBCHEM_IUPAC_SYSTEMATIC_NAME>
(1S,3R)-1-[2-fluoranyl-4-(trifluoromethyl)phenyl]-N-[3-[[4-methyl-5-(4-methyl-1,3-oxazol-5-yl)-1,2,4-triazol-3-yl]sulfanyl]propyl]bicyclo[3.1.0]hexan-3-amine;hydrochloride

> <PUBCHEM_IUPAC_TRADITIONAL_NAME>
[(1S,3R)-1-[2-fluoro-4-(trifluoromethyl)phenyl]-3-bicyclo[3.1.0]hexanyl]-[3-[[4-methyl-5-(4-methyloxazol-5-yl)-1,2,4-triazol-3-yl]thio]propyl]amine;hydrochloride

> <PUBCHEM_IUPAC_INCHI>
InChI=1S/C23H25F4N5OS.ClH/c1-13-19(33-12-29-13)20-30-31-21(32(20)2)34-7-3-6-28-16-8-15-10-22(15,11-16)17-5-4-14(9-18(17)24)23(25,26)27;/h4-5,9,12,15-16,28H,3,6-8,10-11H2,1-2H3;1H/t15?,16-,22+;/m1./s1

> <PUBCHEM_IUPAC_INCHIKEY>
ZQWGORNKXZEBSY-RFRLNANNSA-N

> <PUBCHEM_EXACT_MASS>
531.1482720

> <PUBCHEM_MOLECULAR_FORMULA>
C23H26ClF4N5OS

> <PUBCHEM_MOLECULAR_WEIGHT>
532.0

> <PUBCHEM_OPENEYE_CAN_SMILES>
CC1=C(OC=N1)C2=NN=C(N2C)SCCCNC3CC4CC4(C3)C5=C(C=C(C=C5)C(F)(F)F)F.Cl

> <PUBCHEM_OPENEYE_ISO_SMILES>
CC1=C(OC=N1)C2=NN=C(N2C)SCCCN[C@@H]3CC4C[C@@]4(C3)C5=C(C=C(C=C5)C(F)(F)F)F.Cl

> <PUBCHEM_CACTVS_TPSA>
94.1

> <PUBCHEM_MONOISOTOPIC_WEIGHT>
531.1482720

> <PUBCHEM_TOTAL_CHARGE>
0

> <PUBCHEM_HEAVY_ATOM_COUNT>
35

> <PUBCHEM_ATOM_DEF_STEREO_COUNT>
2

> <PUBCHEM_ATOM_UDEF_STEREO_COUNT>
1

> <PUBCHEM_BOND_DEF_STEREO_COUNT>
0

> <PUBCHEM_BOND_UDEF_STEREO_COUNT>
0

> <PUBCHEM_ISOTOPIC_ATOM_COUNT>
0

> <PUBCHEM_COMPONENT_COUNT>
2

> <PUBCHEM_CACTVS_TAUTO_COUNT>
-1

> <PUBCHEM_COORDINATE_TYPE>
1
5
255

> <PUBCHEM_BONDANNOTATIONS>
10  11  8
10  29  8
11  30  8
12  33  8
12  35  8
13  19  6
14  17  3
19  20  8
19  21  8
20  23  8
21  24  8
23  25  8
24  25  8
32  33  8
7  32  8
7  35  8
18  8  5
9  29  8
9  30  8

$$$$
