44564950
  -OEChem-09292322092D

 68 71  0     1  0  0  0  0  0999 V2000
    9.4848    6.9528    0.0000 Cl  0  0  0  0  0  0  0  0  0  0  0  0
    7.4634   13.4110    0.0000 F   0  0  0  0  0  0  0  0  0  0  0  0
    5.7314   14.4110    0.0000 F   0  0  0  0  0  0  0  0  0  0  0  0
    6.5974    6.9110    0.0000 O   0  0  0  0  0  0  0  0  0  0  0  0
    5.7314    8.4110    0.0000 N   0  0  0  0  0  0  0  0  0  0  0  0
    3.9993    5.4110    0.0000 N   0  0  3  0  0  0  0  0  0  0  0  0
    5.7314   10.4110    0.0000 N   0  0  0  0  0  0  0  0  0  0  0  0
    3.1333    2.9110    0.0000 C   0  0  0  0  0  0  0  0  0  0  0  0
    3.1333    3.9110    0.0000 C   0  0  0  0  0  0  0  0  0  0  0  0
    3.9423    2.3232    0.0000 C   0  0  0  0  0  0  0  0  0  0  0  0
    2.3243    2.3232    0.0000 C   0  0  0  0  0  0  0  0  0  0  0  0
    3.9993    4.4110    0.0000 C   0  0  0  0  0  0  0  0  0  0  0  0
    3.6333    1.3721    0.0000 C   0  0  0  0  0  0  0  0  0  0  0  0
    2.6333    1.3721    0.0000 C   0  0  0  0  0  0  0  0  0  0  0  0
    4.8654    8.9110    0.0000 C   0  0  0  0  0  0  0  0  0  0  0  0
    6.5974    8.9110    0.0000 C   0  0  0  0  0  0  0  0  0  0  0  0
    4.8654    9.9110    0.0000 C   0  0  0  0  0  0  0  0  0  0  0  0
    6.5974    9.9110    0.0000 C   0  0  0  0  0  0  0  0  0  0  0  0
    4.8654    5.9110    0.0000 C   0  0  0  0  0  0  0  0  0  0  0  0
    4.8654    6.9110    0.0000 C   0  0  0  0  0  0  0  0  0  0  0  0
    4.9577    2.5554    0.0000 C   0  0  0  0  0  0  0  0  0  0  0  0
    1.3089    2.5554    0.0000 C   0  0  0  0  0  0  0  0  0  0  0  0
    5.7314    7.4110    0.0000 C   0  0  0  0  0  0  0  0  0  0  0  0
    4.3183    0.5874    0.0000 C   0  0  0  0  0  0  0  0  0  0  0  0
    1.9483    0.5874    0.0000 C   0  0  0  0  0  0  0  0  0  0  0  0
    3.1333    5.9110    0.0000 C   0  0  0  0  0  0  0  0  0  0  0  0
    5.7314   11.4110    0.0000 C   0  0  0  0  0  0  0  0  0  0  0  0
    5.6607    1.7868    0.0000 C   0  0  0  0  0  0  0  0  0  0  0  0
    0.6060    1.7868    0.0000 C   0  0  0  0  0  0  0  0  0  0  0  0
    5.3388    0.7961    0.0000 C   0  0  0  0  0  0  0  0  0  0  0  0
    0.9278    0.7961    0.0000 C   0  0  0  0  0  0  0  0  0  0  0  0
    6.5974   11.9110    0.0000 C   0  0  0  0  0  0  0  0  0  0  0  0
    4.8654   11.9110    0.0000 C   0  0  0  0  0  0  0  0  0  0  0  0
    6.5974   12.9110    0.0000 C   0  0  0  0  0  0  0  0  0  0  0  0
    4.8654   12.9110    0.0000 C   0  0  0  0  0  0  0  0  0  0  0  0
    5.7314   13.4110    0.0000 C   0  0  0  0  0  0  0  0  0  0  0  0
    3.6857    3.1924    0.0000 H   0  0  0  0  0  0  0  0  0  0  0  0
    2.9213    4.4936    0.0000 H   0  0  0  0  0  0  0  0  0  0  0  0
    2.5227    3.8033    0.0000 H   0  0  0  0  0  0  0  0  0  0  0  0
    4.2114    3.8284    0.0000 H   0  0  0  0  0  0  0  0  0  0  0  0
    4.6099    4.5186    0.0000 H   0  0  0  0  0  0  0  0  0  0  0  0
    4.2548    9.0186    0.0000 H   0  0  0  0  0  0  0  0  0  0  0  0
    4.6533    8.3284    0.0000 H   0  0  0  0  0  0  0  0  0  0  0  0
    6.8095    8.3284    0.0000 H   0  0  0  0  0  0  0  0  0  0  0  0
    7.2080    9.0186    0.0000 H   0  0  0  0  0  0  0  0  0  0  0  0
    4.6533   10.4936    0.0000 H   0  0  0  0  0  0  0  0  0  0  0  0
    4.2548    9.8033    0.0000 H   0  0  0  0  0  0  0  0  0  0  0  0
    7.2080    9.8033    0.0000 H   0  0  0  0  0  0  0  0  0  0  0  0
    6.8095   10.4936    0.0000 H   0  0  0  0  0  0  0  0  0  0  0  0
    5.0774    5.3284    0.0000 H   0  0  0  0  0  0  0  0  0  0  0  0
    5.4759    6.0186    0.0000 H   0  0  0  0  0  0  0  0  0  0  0  0
    4.6533    7.4936    0.0000 H   0  0  0  0  0  0  0  0  0  0  0  0
    4.2548    6.8033    0.0000 H   0  0  0  0  0  0  0  0  0  0  0  0
    5.1425    3.1473    0.0000 H   0  0  0  0  0  0  0  0  0  0  0  0
    1.1241    3.1473    0.0000 H   0  0  0  0  0  0  0  0  0  0  0  0
    4.1199    0.0000    0.0000 H   0  0  0  0  0  0  0  0  0  0  0  0
    2.1467    0.0000    0.0000 H   0  0  0  0  0  0  0  0  0  0  0  0
    3.4433    6.4479    0.0000 H   0  0  0  0  0  0  0  0  0  0  0  0
    2.5964    6.2210    0.0000 H   0  0  0  0  0  0  0  0  0  0  0  0
    2.8233    5.3740    0.0000 H   0  0  0  0  0  0  0  0  0  0  0  0
    6.2666    1.9180    0.0000 H   0  0  0  0  0  0  0  0  0  0  0  0
    0.0000    1.9180    0.0000 H   0  0  0  0  0  0  0  0  0  0  0  0
    5.7519    0.3338    0.0000 H   0  0  0  0  0  0  0  0  0  0  0  0
    0.5148    0.3338    0.0000 H   0  0  0  0  0  0  0  0  0  0  0  0
    7.1344   11.6010    0.0000 H   0  0  0  0  0  0  0  0  0  0  0  0
    4.3284   11.6010    0.0000 H   0  0  0  0  0  0  0  0  0  0  0  0
    4.3284   13.2210    0.0000 H   0  0  0  0  0  0  0  0  0  0  0  0
   10.4848    6.9528    0.0000 H   0  0  0  0  0  0  0  0  0  0  0  0
  1 68  1  0  0  0  0
  2 34  1  0  0  0  0
  3 36  1  0  0  0  0
  4 23  2  0  0  0  0
  5 15  1  0  0  0  0
  5 16  1  0  0  0  0
  5 23  1  0  0  0  0
  6 12  1  0  0  0  0
  6 19  1  0  0  0  0
  6 26  1  0  0  0  0
  7 17  1  0  0  0  0
  7 18  1  0  0  0  0
  7 27  1  0  0  0  0
  8  9  1  0  0  0  0
  8 10  1  0  0  0  0
  8 11  1  0  0  0  0
  8 37  1  0  0  0  0
  9 12  1  0  0  0  0
  9 38  1  0  0  0  0
  9 39  1  0  0  0  0
 10 13  1  0  0  0  0
 10 21  2  0  0  0  0
 11 14  1  0  0  0  0
 11 22  2  0  0  0  0
 12 40  1  0  0  0  0
 12 41  1  0  0  0  0
 13 14  1  0  0  0  0
 13 24  2  0  0  0  0
 14 25  2  0  0  0  0
 15 17  1  0  0  0  0
 15 42  1  0  0  0  0
 15 43  1  0  0  0  0
 16 18  1  0  0  0  0
 16 44  1  0  0  0  0
 16 45  1  0  0  0  0
 17 46  1  0  0  0  0
 17 47  1  0  0  0  0
 18 48  1  0  0  0  0
 18 49  1  0  0  0  0
 19 20  1  0  0  0  0
 19 50  1  0  0  0  0
 19 51  1  0  0  0  0
 20 23  1  0  0  0  0
 20 52  1  0  0  0  0
 20 53  1  0  0  0  0
 21 28  1  0  0  0  0
 21 54  1  0  0  0  0
 22 29  1  0  0  0  0
 22 55  1  0  0  0  0
 24 30  1  0  0  0  0
 24 56  1  0  0  0  0
 25 31  1  0  0  0  0
 25 57  1  0  0  0  0
 26 58  1  0  0  0  0
 26 59  1  0  0  0  0
 26 60  1  0  0  0  0
 27 32  2  0  0  0  0
 27 33  1  0  0  0  0
 28 30  2  0  0  0  0
 28 61  1  0  0  0  0
 29 31  2  0  0  0  0
 29 62  1  0  0  0  0
 30 63  1  0  0  0  0
 31 64  1  0  0  0  0
 32 34  1  0  0  0  0
 32 65  1  0  0  0  0
 33 35  2  0  0  0  0
 33 66  1  0  0  0  0
 34 36  2  0  0  0  0
 35 36  1  0  0  0  0
 35 67  1  0  0  0  0
M  END
> <PUBCHEM_COMPOUND_CID>
44564950

> <PUBCHEM_COMPOUND_CANONICALIZED>
1

> <PUBCHEM_CACTVS_COMPLEXITY>
677

> <PUBCHEM_CACTVS_HBOND_ACCEPTOR>
5

> <PUBCHEM_CACTVS_HBOND_DONOR>
1

> <PUBCHEM_CACTVS_ROTATABLE_BOND>
7

> <PUBCHEM_CACTVS_SUBSKEYS>
AAADcfB7IYAEAAAAAAAAAAAAAAAAAYAAAAA8YMEAAAAAAGABUAAAHwAAAAAADQjBmAwywIMAAACIAiVSUACCAAAhAgAIiAEIZIgIYCrA0ZGUIAhghgDIyAcQgMAOgAAAAAAQAAAAAAAAACAAAQAACAAAAA==

> <PUBCHEM_IUPAC_OPENEYE_NAME>
1-[4-(3,4-difluorophenyl)piperazin-1-yl]-3-[2-(9H-fluoren-9-yl)ethyl-methyl-amino]propan-1-one;hydrochloride

> <PUBCHEM_IUPAC_CAS_NAME>
1-[4-(3,4-difluorophenyl)-1-piperazinyl]-3-[2-(9H-fluoren-9-yl)ethyl-methylamino]-1-propanone;hydrochloride

> <PUBCHEM_IUPAC_NAME_MARKUP>
1-[4-(3,4-difluorophenyl)piperazin-1-yl]-3-[2-(9<I>H</I>-fluoren-9-yl)ethyl-methylamino]propan-1-one;hydrochloride

> <PUBCHEM_IUPAC_NAME>
1-[4-(3,4-difluorophenyl)piperazin-1-yl]-3-[2-(9H-fluoren-9-yl)ethyl-methylamino]propan-1-one;hydrochloride

> <PUBCHEM_IUPAC_SYSTEMATIC_NAME>
1-[4-[3,4-bis(fluoranyl)phenyl]piperazin-1-yl]-3-[2-(9H-fluoren-9-yl)ethyl-methyl-amino]propan-1-one;hydrochloride

> <PUBCHEM_IUPAC_TRADITIONAL_NAME>
1-[4-(3,4-difluorophenyl)piperazino]-3-[2-(9H-fluoren-9-yl)ethyl-methyl-amino]propan-1-one;hydrochloride

> <PUBCHEM_IUPAC_INCHI>
InChI=1S/C29H31F2N3O.ClH/c1-32(14-12-26-24-8-4-2-6-22(24)23-7-3-5-9-25(23)26)15-13-29(35)34-18-16-33(17-19-34)21-10-11-27(30)28(31)20-21;/h2-11,20,26H,12-19H2,1H3;1H

> <PUBCHEM_IUPAC_INCHIKEY>
MJIOKZJYJYOUKX-UHFFFAOYSA-N

> <PUBCHEM_EXACT_MASS>
511.2201967

> <PUBCHEM_MOLECULAR_FORMULA>
C29H32ClF2N3O

> <PUBCHEM_MOLECULAR_WEIGHT>
512.0

> <PUBCHEM_OPENEYE_CAN_SMILES>
CN(CCC1C2=CC=CC=C2C3=CC=CC=C13)CCC(=O)N4CCN(CC4)C5=CC(=C(C=C5)F)F.Cl

> <PUBCHEM_OPENEYE_ISO_SMILES>
CN(CCC1C2=CC=CC=C2C3=CC=CC=C13)CCC(=O)N4CCN(CC4)C5=CC(=C(C=C5)F)F.Cl

> <PUBCHEM_CACTVS_TPSA>
26.8

> <PUBCHEM_MONOISOTOPIC_WEIGHT>
511.2201967

> <PUBCHEM_TOTAL_CHARGE>
0

> <PUBCHEM_HEAVY_ATOM_COUNT>
36

> <PUBCHEM_ATOM_DEF_STEREO_COUNT>
0

> <PUBCHEM_ATOM_UDEF_STEREO_COUNT>
0

> <PUBCHEM_BOND_DEF_STEREO_COUNT>
0

> <PUBCHEM_BOND_UDEF_STEREO_COUNT>
0

> <PUBCHEM_ISOTOPIC_ATOM_COUNT>
0

> <PUBCHEM_COMPONENT_COUNT>
2

> <PUBCHEM_CACTVS_TAUTO_COUNT>
-1

> <PUBCHEM_COORDINATE_TYPE>
1
5
255

> <PUBCHEM_BONDANNOTATIONS>
10  13  8
10  21  8
11  14  8
11  22  8
13  24  8
14  25  8
21  28  8
22  29  8
24  30  8
25  31  8
27  32  8
27  33  8
28  30  8
29  31  8
32  34  8
33  35  8
34  36  8
35  36  8

$$$$
