122180612
  -OEChem-09292322362D

 68 72  0     0  0  0  0  0  0999 V2000
    4.9836    7.1623    0.0000 O   0  0  0  0  0  0  0  0  0  0  0  0
    5.3457    3.7172    0.0000 N   0  0  0  0  0  0  0  0  0  0  0  0
    4.1701    5.3352    0.0000 N   0  0  0  0  0  0  0  0  0  0  0  0
    6.2956   -0.5370    0.0000 N   0  0  0  0  0  0  0  0  0  0  0  0
    7.2956   -0.5370    0.0000 N   0  0  0  0  0  0  0  0  0  0  0  0
    7.6046   -1.4880    0.0000 N   0  0  0  0  0  0  0  0  0  0  0  0
    5.7524    4.6307    0.0000 C   0  0  0  0  0  0  0  0  0  0  0  0
    4.3511    3.6126    0.0000 C   0  0  0  0  0  0  0  0  0  0  0  0
    5.1646    5.4397    0.0000 C   0  0  0  0  0  0  0  0  0  0  0  0
    3.7634    4.4216    0.0000 C   0  0  0  0  0  0  0  0  0  0  0  0
    5.9334    2.9081    0.0000 C   0  0  0  0  0  0  0  0  0  0  0  0
    5.5267    1.9946    0.0000 C   0  0  0  0  0  0  0  0  0  0  0  0
    3.5823    6.1442    0.0000 C   0  0  0  0  0  0  0  0  0  0  0  0
    6.1145    1.1856    0.0000 C   0  0  0  0  0  0  0  0  0  0  0  0
    5.7078    0.2720    0.0000 C   0  0  0  0  0  0  0  0  0  0  0  0
    3.9890    7.0578    0.0000 C   0  0  0  0  0  0  0  0  0  0  0  0
    2.5878    6.0397    0.0000 C   0  0  0  0  0  0  0  0  0  0  0  0
    3.4013    7.8668    0.0000 C   0  0  0  0  0  0  0  0  0  0  0  0
    2.0000    6.8487    0.0000 C   0  0  0  0  0  0  0  0  0  0  0  0
    2.4067    7.7622    0.0000 C   0  0  0  0  0  0  0  0  0  0  0  0
    5.9865   -1.4880    0.0000 C   0  0  0  0  0  0  0  0  0  0  0  0
    6.7956   -2.0758    0.0000 C   0  0  0  0  0  0  0  0  0  0  0  0
    6.7956   -3.0758    0.0000 C   0  0  0  0  0  0  0  0  0  0  0  0
    5.3903    8.0758    0.0000 C   0  0  0  0  0  0  0  0  0  0  0  0
    7.6616   -3.5758    0.0000 C   0  0  0  0  0  0  0  0  0  0  0  0
    5.9295   -3.5758    0.0000 C   0  0  0  0  0  0  0  0  0  0  0  0
    6.7956   -5.0758    0.0000 C   0  0  0  0  0  0  0  0  0  0  0  0
    7.6616   -4.5758    0.0000 C   0  0  0  0  0  0  0  0  0  0  0  0
    5.9295   -4.5758    0.0000 C   0  0  0  0  0  0  0  0  0  0  0  0
    6.7956   -6.0758    0.0000 C   0  0  0  0  0  0  0  0  0  0  0  0
    5.9295   -6.5758    0.0000 C   0  0  0  0  0  0  0  0  0  0  0  0
    7.6616   -6.5758    0.0000 C   0  0  0  0  0  0  0  0  0  0  0  0
    5.9295   -7.5758    0.0000 C   0  0  0  0  0  0  0  0  0  0  0  0
    7.6616   -7.5758    0.0000 C   0  0  0  0  0  0  0  0  0  0  0  0
    6.7956   -8.0758    0.0000 C   0  0  0  0  0  0  0  0  0  0  0  0
    6.2664    4.2840    0.0000 H   0  0  0  0  0  0  0  0  0  0  0  0
    6.1831    5.0767    0.0000 H   0  0  0  0  0  0  0  0  0  0  0  0
    3.7939    3.3408    0.0000 H   0  0  0  0  0  0  0  0  0  0  0  0
    4.5220    3.0166    0.0000 H   0  0  0  0  0  0  0  0  0  0  0  0
    5.7219    5.7115    0.0000 H   0  0  0  0  0  0  0  0  0  0  0  0
    4.9937    6.0357    0.0000 H   0  0  0  0  0  0  0  0  0  0  0  0
    3.2494    4.7683    0.0000 H   0  0  0  0  0  0  0  0  0  0  0  0
    3.3327    3.9756    0.0000 H   0  0  0  0  0  0  0  0  0  0  0  0
    6.4474    2.5614    0.0000 H   0  0  0  0  0  0  0  0  0  0  0  0
    6.3641    3.3541    0.0000 H   0  0  0  0  0  0  0  0  0  0  0  0
    5.0127    2.3413    0.0000 H   0  0  0  0  0  0  0  0  0  0  0  0
    5.0960    1.5486    0.0000 H   0  0  0  0  0  0  0  0  0  0  0  0
    6.6285    0.8389    0.0000 H   0  0  0  0  0  0  0  0  0  0  0  0
    6.5452    1.6316    0.0000 H   0  0  0  0  0  0  0  0  0  0  0  0
    5.1938    0.6187    0.0000 H   0  0  0  0  0  0  0  0  0  0  0  0
    5.2771   -0.1740    0.0000 H   0  0  0  0  0  0  0  0  0  0  0  0
    2.3356    5.4733    0.0000 H   0  0  0  0  0  0  0  0  0  0  0  0
    3.6534    8.4332    0.0000 H   0  0  0  0  0  0  0  0  0  0  0  0
    1.3834    6.7839    0.0000 H   0  0  0  0  0  0  0  0  0  0  0  0
    2.0423    8.2638    0.0000 H   0  0  0  0  0  0  0  0  0  0  0  0
    5.3969   -1.6796    0.0000 H   0  0  0  0  0  0  0  0  0  0  0  0
    5.9567    7.8236    0.0000 H   0  0  0  0  0  0  0  0  0  0  0  0
    5.6425    8.6422    0.0000 H   0  0  0  0  0  0  0  0  0  0  0  0
    4.8239    8.3280    0.0000 H   0  0  0  0  0  0  0  0  0  0  0  0
    8.1985   -3.2658    0.0000 H   0  0  0  0  0  0  0  0  0  0  0  0
    5.3926   -3.2658    0.0000 H   0  0  0  0  0  0  0  0  0  0  0  0
    8.1985   -4.8858    0.0000 H   0  0  0  0  0  0  0  0  0  0  0  0
    5.3926   -4.8858    0.0000 H   0  0  0  0  0  0  0  0  0  0  0  0
    5.3926   -6.2658    0.0000 H   0  0  0  0  0  0  0  0  0  0  0  0
    8.1985   -6.2658    0.0000 H   0  0  0  0  0  0  0  0  0  0  0  0
    5.3926   -7.8858    0.0000 H   0  0  0  0  0  0  0  0  0  0  0  0
    8.1985   -7.8858    0.0000 H   0  0  0  0  0  0  0  0  0  0  0  0
    6.7956   -8.6958    0.0000 H   0  0  0  0  0  0  0  0  0  0  0  0
  1 16  1  0  0  0  0
  1 24  1  0  0  0  0
  2  7  1  0  0  0  0
  2  8  1  0  0  0  0
  2 11  1  0  0  0  0
  3  9  1  0  0  0  0
  3 10  1  0  0  0  0
  3 13  1  0  0  0  0
  4  5  1  0  0  0  0
  4 15  1  0  0  0  0
  4 21  1  0  0  0  0
  5  6  2  0  0  0  0
  6 22  1  0  0  0  0
  7  9  1  0  0  0  0
  7 36  1  0  0  0  0
  7 37  1  0  0  0  0
  8 10  1  0  0  0  0
  8 38  1  0  0  0  0
  8 39  1  0  0  0  0
  9 40  1  0  0  0  0
  9 41  1  0  0  0  0
 10 42  1  0  0  0  0
 10 43  1  0  0  0  0
 11 12  1  0  0  0  0
 11 44  1  0  0  0  0
 11 45  1  0  0  0  0
 12 14  1  0  0  0  0
 12 46  1  0  0  0  0
 12 47  1  0  0  0  0
 13 16  1  0  0  0  0
 13 17  2  0  0  0  0
 14 15  1  0  0  0  0
 14 48  1  0  0  0  0
 14 49  1  0  0  0  0
 15 50  1  0  0  0  0
 15 51  1  0  0  0  0
 16 18  2  0  0  0  0
 17 19  1  0  0  0  0
 17 52  1  0  0  0  0
 18 20  1  0  0  0  0
 18 53  1  0  0  0  0
 19 20  2  0  0  0  0
 19 54  1  0  0  0  0
 20 55  1  0  0  0  0
 21 22  2  0  0  0  0
 21 56  1  0  0  0  0
 22 23  1  0  0  0  0
 23 25  2  0  0  0  0
 23 26  1  0  0  0  0
 24 57  1  0  0  0  0
 24 58  1  0  0  0  0
 24 59  1  0  0  0  0
 25 28  1  0  0  0  0
 25 60  1  0  0  0  0
 26 29  2  0  0  0  0
 26 61  1  0  0  0  0
 27 28  2  0  0  0  0
 27 29  1  0  0  0  0
 27 30  1  0  0  0  0
 28 62  1  0  0  0  0
 29 63  1  0  0  0  0
 30 31  2  0  0  0  0
 30 32  1  0  0  0  0
 31 33  1  0  0  0  0
 31 64  1  0  0  0  0
 32 34  2  0  0  0  0
 32 65  1  0  0  0  0
 33 35  2  0  0  0  0
 33 66  1  0  0  0  0
 34 35  1  0  0  0  0
 34 67  1  0  0  0  0
 35 68  1  0  0  0  0
M  END
> <PUBCHEM_COMPOUND_CID>
122180612

> <PUBCHEM_COMPOUND_CANONICALIZED>
1

> <PUBCHEM_CACTVS_COMPLEXITY>
598

> <PUBCHEM_CACTVS_HBOND_ACCEPTOR>
5

> <PUBCHEM_CACTVS_HBOND_DONOR>
0

> <PUBCHEM_CACTVS_ROTATABLE_BOND>
9

> <PUBCHEM_CACTVS_SUBSKEYS>
AAADcfB7oAAAAAAAAAAAAAAAAAAAAWAAAAA8YMEAAAAAAAAB1AAAHgAIAAAADAzBngY+xpMIBACiAzRnRACCDAQxsgAY2CA/fJgOZqLEsZuVMChkwBHY6AeQwMAOwAAAAAAAEACAAAAAAAAgAAAAAAAAAA==

> <PUBCHEM_IUPAC_OPENEYE_NAME>
1-(2-methoxyphenyl)-4-[4-[4-(4-phenylphenyl)triazol-1-yl]butyl]piperazine

> <PUBCHEM_IUPAC_CAS_NAME>
1-(2-methoxyphenyl)-4-[4-[4-(4-phenylphenyl)-1-triazolyl]butyl]piperazine

> <PUBCHEM_IUPAC_NAME_MARKUP>
1-(2-methoxyphenyl)-4-[4-[4-(4-phenylphenyl)triazol-1-yl]butyl]piperazine

> <PUBCHEM_IUPAC_NAME>
1-(2-methoxyphenyl)-4-[4-[4-(4-phenylphenyl)triazol-1-yl]butyl]piperazine

> <PUBCHEM_IUPAC_SYSTEMATIC_NAME>
1-(2-methoxyphenyl)-4-[4-[4-(4-phenylphenyl)-1,2,3-triazol-1-yl]butyl]piperazine

> <PUBCHEM_IUPAC_TRADITIONAL_NAME>
1-(2-methoxyphenyl)-4-[4-[4-(4-phenylphenyl)triazol-1-yl]butyl]piperazine

> <PUBCHEM_IUPAC_INCHI>
InChI=1S/C29H33N5O/c1-35-29-12-6-5-11-28(29)33-21-19-32(20-22-33)17-7-8-18-34-23-27(30-31-34)26-15-13-25(14-16-26)24-9-3-2-4-10-24/h2-6,9-16,23H,7-8,17-22H2,1H3

> <PUBCHEM_IUPAC_INCHIKEY>
ATOMZLGTVBAGNB-UHFFFAOYSA-N

> <PUBCHEM_XLOGP3_AA>
5.2

> <PUBCHEM_EXACT_MASS>
467.26851069

> <PUBCHEM_MOLECULAR_FORMULA>
C29H33N5O

> <PUBCHEM_MOLECULAR_WEIGHT>
467.6

> <PUBCHEM_OPENEYE_CAN_SMILES>
COC1=CC=CC=C1N2CCN(CC2)CCCCN3C=C(N=N3)C4=CC=C(C=C4)C5=CC=CC=C5

> <PUBCHEM_OPENEYE_ISO_SMILES>
COC1=CC=CC=C1N2CCN(CC2)CCCCN3C=C(N=N3)C4=CC=C(C=C4)C5=CC=CC=C5

> <PUBCHEM_CACTVS_TPSA>
46.4

> <PUBCHEM_MONOISOTOPIC_WEIGHT>
467.26851069

> <PUBCHEM_TOTAL_CHARGE>
0

> <PUBCHEM_HEAVY_ATOM_COUNT>
35

> <PUBCHEM_ATOM_DEF_STEREO_COUNT>
0

> <PUBCHEM_ATOM_UDEF_STEREO_COUNT>
0

> <PUBCHEM_BOND_DEF_STEREO_COUNT>
0

> <PUBCHEM_BOND_UDEF_STEREO_COUNT>
0

> <PUBCHEM_ISOTOPIC_ATOM_COUNT>
0

> <PUBCHEM_COMPONENT_COUNT>
1

> <PUBCHEM_CACTVS_TAUTO_COUNT>
-1

> <PUBCHEM_COORDINATE_TYPE>
1
5
255

> <PUBCHEM_BONDANNOTATIONS>
13  16  8
13  17  8
16  18  8
17  19  8
18  20  8
19  20  8
21  22  8
23  25  8
23  26  8
25  28  8
26  29  8
27  28  8
27  29  8
30  31  8
30  32  8
31  33  8
32  34  8
33  35  8
34  35  8
4  21  8
4  5  8
5  6  8
6  22  8

$$$$
