56926587
  -OEChem-09292322482D

 44 47  0     0  0  0  0  0  0999 V2000
    2.0000    0.2327    0.0000 F   0  0  0  0  0  0  0  0  0  0  0  0
   11.5542   -0.3020    0.0000 O   0  0  0  0  0  0  0  0  0  0  0  0
   11.5542    1.7673    0.0000 O   0  0  0  0  0  0  0  0  0  0  0  0
    6.3301   -1.2673    0.0000 N   0  0  0  0  0  0  0  0  0  0  0  0
    8.0622   -0.2673    0.0000 N   0  0  0  0  0  0  0  0  0  0  0  0
    3.7320    0.2327    0.0000 N   0  0  0  0  0  0  0  0  0  0  0  0
    7.1962   -1.7673    0.0000 C   0  0  0  0  0  0  0  0  0  0  0  0
    6.3301   -0.2673    0.0000 C   0  0  0  0  0  0  0  0  0  0  0  0
    8.0622   -1.2673    0.0000 C   0  0  0  0  0  0  0  0  0  0  0  0
    7.1962    0.2327    0.0000 C   0  0  0  0  0  0  0  0  0  0  0  0
    5.4641   -1.7673    0.0000 C   0  0  0  0  0  0  0  0  0  0  0  0
    8.9282    0.2327    0.0000 C   0  0  0  0  0  0  0  0  0  0  0  0
    4.5981   -1.2673    0.0000 C   0  0  0  0  0  0  0  0  0  0  0  0
    9.7942   -0.2673    0.0000 C   0  0  0  0  0  0  0  0  0  0  0  0
    8.9282    1.2327    0.0000 C   0  0  0  0  0  0  0  0  0  0  0  0
   10.6603    0.2327    0.0000 C   0  0  0  0  0  0  0  0  0  0  0  0
   10.6603    1.2327    0.0000 C   0  0  0  0  0  0  0  0  0  0  0  0
    9.7942    1.7327    0.0000 C   0  0  0  0  0  0  0  0  0  0  0  0
    3.7320   -1.7673    0.0000 C   0  0  0  0  0  0  0  0  0  0  0  0
    4.5981   -0.2673    0.0000 C   0  0  0  0  0  0  0  0  0  0  0  0
   12.4603    0.2119    0.0000 C   0  0  0  0  0  0  0  0  0  0  0  0
   12.4603    1.2535    0.0000 C   0  0  0  0  0  0  0  0  0  0  0  0
    2.8660   -1.2673    0.0000 C   0  0  0  0  0  0  0  0  0  0  0  0
    2.8660   -0.2673    0.0000 C   0  0  0  0  0  0  0  0  0  0  0  0
    6.7976   -2.2423    0.0000 H   0  0  0  0  0  0  0  0  0  0  0  0
    7.5947   -2.2423    0.0000 H   0  0  0  0  0  0  0  0  0  0  0  0
    6.1181    0.3153    0.0000 H   0  0  0  0  0  0  0  0  0  0  0  0
    5.7196   -0.3750    0.0000 H   0  0  0  0  0  0  0  0  0  0  0  0
    8.2742   -1.8499    0.0000 H   0  0  0  0  0  0  0  0  0  0  0  0
    8.6728   -1.1597    0.0000 H   0  0  0  0  0  0  0  0  0  0  0  0
    7.5947    0.7076    0.0000 H   0  0  0  0  0  0  0  0  0  0  0  0
    6.7976    0.7076    0.0000 H   0  0  0  0  0  0  0  0  0  0  0  0
    5.0656   -2.2423    0.0000 H   0  0  0  0  0  0  0  0  0  0  0  0
    5.8626   -2.2423    0.0000 H   0  0  0  0  0  0  0  0  0  0  0  0
    9.7942   -0.8873    0.0000 H   0  0  0  0  0  0  0  0  0  0  0  0
    8.3913    1.5427    0.0000 H   0  0  0  0  0  0  0  0  0  0  0  0
    9.7942    2.3527    0.0000 H   0  0  0  0  0  0  0  0  0  0  0  0
    3.7320   -2.3873    0.0000 H   0  0  0  0  0  0  0  0  0  0  0  0
    5.1350    0.0427    0.0000 H   0  0  0  0  0  0  0  0  0  0  0  0
   12.6693   -0.3718    0.0000 H   0  0  0  0  0  0  0  0  0  0  0  0
   13.0711    0.3179    0.0000 H   0  0  0  0  0  0  0  0  0  0  0  0
   13.0711    1.1474    0.0000 H   0  0  0  0  0  0  0  0  0  0  0  0
   12.6693    1.8372    0.0000 H   0  0  0  0  0  0  0  0  0  0  0  0
    2.3291   -1.5773    0.0000 H   0  0  0  0  0  0  0  0  0  0  0  0
  1 24  1  0  0  0  0
  2 16  1  0  0  0  0
  2 21  1  0  0  0  0
  3 17  1  0  0  0  0
  3 22  1  0  0  0  0
  4  7  1  0  0  0  0
  4  8  1  0  0  0  0
  4 11  1  0  0  0  0
  5  9  1  0  0  0  0
  5 10  1  0  0  0  0
  5 12  1  0  0  0  0
  6 20  1  0  0  0  0
  6 24  2  0  0  0  0
  7  9  1  0  0  0  0
  7 25  1  0  0  0  0
  7 26  1  0  0  0  0
  8 10  1  0  0  0  0
  8 27  1  0  0  0  0
  8 28  1  0  0  0  0
  9 29  1  0  0  0  0
  9 30  1  0  0  0  0
 10 31  1  0  0  0  0
 10 32  1  0  0  0  0
 11 13  1  0  0  0  0
 11 33  1  0  0  0  0
 11 34  1  0  0  0  0
 12 14  2  0  0  0  0
 12 15  1  0  0  0  0
 13 19  1  0  0  0  0
 13 20  2  0  0  0  0
 14 16  1  0  0  0  0
 14 35  1  0  0  0  0
 15 18  2  0  0  0  0
 15 36  1  0  0  0  0
 16 17  2  0  0  0  0
 17 18  1  0  0  0  0
 18 37  1  0  0  0  0
 19 23  2  0  0  0  0
 19 38  1  0  0  0  0
 20 39  1  0  0  0  0
 21 22  1  0  0  0  0
 21 40  1  0  0  0  0
 21 41  1  0  0  0  0
 22 42  1  0  0  0  0
 22 43  1  0  0  0  0
 23 24  1  0  0  0  0
 23 44  1  0  0  0  0
M  END
> <PUBCHEM_COMPOUND_CID>
56926587

> <PUBCHEM_COMPOUND_CANONICALIZED>
1

> <PUBCHEM_CACTVS_COMPLEXITY>
406

> <PUBCHEM_CACTVS_HBOND_ACCEPTOR>
6

> <PUBCHEM_CACTVS_HBOND_DONOR>
0

> <PUBCHEM_CACTVS_ROTATABLE_BOND>
3

> <PUBCHEM_CACTVS_SUBSKEYS>
AAADceB7MQAAAAAAAAAAAAAAAAAAAAAAAAA8WJEAAAAAAACRwAAAHwAAAAAADAzhmg48xpMIFACgAjRnRACCiCAxIiAI2CA+7JgNZuLE8ZuWOCrmwBnK6AewUAMMAEAAAgAAQAAAgAAEAACAAAAAAAAAAA==

> <PUBCHEM_IUPAC_OPENEYE_NAME>
1-(2,3-dihydro-1,4-benzodioxin-6-yl)-4-[(6-fluoro-3-pyridyl)methyl]piperazine

> <PUBCHEM_IUPAC_CAS_NAME>
1-(2,3-dihydro-1,4-benzodioxin-6-yl)-4-[(6-fluoro-3-pyridinyl)methyl]piperazine

> <PUBCHEM_IUPAC_NAME_MARKUP>
1-(2,3-dihydro-1,4-benzodioxin-6-yl)-4-[(6-fluoropyridin-3-yl)methyl]piperazine

> <PUBCHEM_IUPAC_NAME>
1-(2,3-dihydro-1,4-benzodioxin-6-yl)-4-[(6-fluoropyridin-3-yl)methyl]piperazine

> <PUBCHEM_IUPAC_SYSTEMATIC_NAME>
1-(2,3-dihydro-1,4-benzodioxin-6-yl)-4-[(6-fluoranylpyridin-3-yl)methyl]piperazine

> <PUBCHEM_IUPAC_TRADITIONAL_NAME>
1-(2,3-dihydro-1,4-benzodioxin-6-yl)-4-[(6-fluoro-3-pyridyl)methyl]piperazine

> <PUBCHEM_IUPAC_INCHI>
InChI=1S/C18H20FN3O2/c19-18-4-1-14(12-20-18)13-21-5-7-22(8-6-21)15-2-3-16-17(11-15)24-10-9-23-16/h1-4,11-12H,5-10,13H2

> <PUBCHEM_IUPAC_INCHIKEY>
NAIGOHVHPOGNLZ-UHFFFAOYSA-N

> <PUBCHEM_XLOGP3_AA>
2.4

> <PUBCHEM_EXACT_MASS>
329.15395505

> <PUBCHEM_MOLECULAR_FORMULA>
C18H20FN3O2

> <PUBCHEM_MOLECULAR_WEIGHT>
329.4

> <PUBCHEM_OPENEYE_CAN_SMILES>
C1CN(CCN1CC2=CN=C(C=C2)F)C3=CC4=C(C=C3)OCCO4

> <PUBCHEM_OPENEYE_ISO_SMILES>
C1CN(CCN1CC2=CN=C(C=C2)F)C3=CC4=C(C=C3)OCCO4

> <PUBCHEM_CACTVS_TPSA>
37.8

> <PUBCHEM_MONOISOTOPIC_WEIGHT>
329.15395505

> <PUBCHEM_TOTAL_CHARGE>
0

> <PUBCHEM_HEAVY_ATOM_COUNT>
24

> <PUBCHEM_ATOM_DEF_STEREO_COUNT>
0

> <PUBCHEM_ATOM_UDEF_STEREO_COUNT>
0

> <PUBCHEM_BOND_DEF_STEREO_COUNT>
0

> <PUBCHEM_BOND_UDEF_STEREO_COUNT>
0

> <PUBCHEM_ISOTOPIC_ATOM_COUNT>
0

> <PUBCHEM_COMPONENT_COUNT>
1

> <PUBCHEM_CACTVS_TAUTO_COUNT>
-1

> <PUBCHEM_COORDINATE_TYPE>
1
5
255

> <PUBCHEM_BONDANNOTATIONS>
12  14  8
12  15  8
13  19  8
13  20  8
14  16  8
15  18  8
16  17  8
17  18  8
19  23  8
23  24  8
6  20  8
6  24  8

$$$$
