122181329
  -OEChem-09292322362D

 60 62  0     1  0  0  0  0  0999 V2000
   14.2619   -4.3301    0.0000 F   0  0  0  0  0  0  0  0  0  0  0  0
   11.2619    0.8660    0.0000 O   0  0  0  0  0  0  0  0  0  0  0  0
    6.2619    2.5981    0.0000 N   0  0  3  0  0  0  0  0  0  0  0  0
    9.7619   -0.0000    0.0000 N   0  0  0  0  0  0  0  0  0  0  0  0
    5.2619    2.5981    0.0000 C   0  0  0  0  0  0  0  0  0  0  0  0
    4.6783    1.7933    0.0000 C   0  0  0  0  0  0  0  0  0  0  0  0
    4.6783    3.4028    0.0000 C   0  0  0  0  0  0  0  0  0  0  0  0
    3.7320    2.0981    0.0000 C   0  0  0  0  0  0  0  0  0  0  0  0
    3.7320    3.0981    0.0000 C   0  0  0  0  0  0  0  0  0  0  0  0
    6.7619    1.7320    0.0000 C   0  0  0  0  0  0  0  0  0  0  0  0
    6.7619    3.4641    0.0000 C   0  0  0  0  0  0  0  0  0  0  0  0
    7.7619    1.7320    0.0000 C   0  0  0  0  0  0  0  0  0  0  0  0
    2.8660    1.5981    0.0000 C   0  0  0  0  0  0  0  0  0  0  0  0
    2.8660    3.5981    0.0000 C   0  0  0  0  0  0  0  0  0  0  0  0
    7.7619    3.4641    0.0000 C   0  0  0  0  0  0  0  0  0  0  0  0
    8.2619    0.8660    0.0000 C   0  0  0  0  0  0  0  0  0  0  0  0
    2.0000    2.0981    0.0000 C   0  0  0  0  0  0  0  0  0  0  0  0
    2.0000    3.0981    0.0000 C   0  0  0  0  0  0  0  0  0  0  0  0
    8.2619    4.3301    0.0000 C   0  0  0  0  0  0  0  0  0  0  0  0
    9.2619    0.8660    0.0000 C   0  0  0  0  0  0  0  0  0  0  0  0
   10.7619   -0.0000    0.0000 C   0  0  0  0  0  0  0  0  0  0  0  0
   11.2619   -0.8660    0.0000 C   0  0  0  0  0  0  0  0  0  0  0  0
   12.2619   -0.8660    0.0000 C   0  0  0  0  0  0  0  0  0  0  0  0
   12.7619   -1.7320    0.0000 C   0  0  0  0  0  0  0  0  0  0  0  0
   12.2619   -2.5981    0.0000 C   0  0  0  0  0  0  0  0  0  0  0  0
   13.7619   -1.7320    0.0000 C   0  0  0  0  0  0  0  0  0  0  0  0
   12.7619   -3.4641    0.0000 C   0  0  0  0  0  0  0  0  0  0  0  0
   14.2619   -2.5981    0.0000 C   0  0  0  0  0  0  0  0  0  0  0  0
   13.7619   -3.4641    0.0000 C   0  0  0  0  0  0  0  0  0  0  0  0
    5.5436    2.0458    0.0000 H   0  0  0  0  0  0  0  0  0  0  0  0
    4.4272    1.2264    0.0000 H   0  0  0  0  0  0  0  0  0  0  0  0
    5.2156    1.4841    0.0000 H   0  0  0  0  0  0  0  0  0  0  0  0
    5.2156    3.7120    0.0000 H   0  0  0  0  0  0  0  0  0  0  0  0
    4.4272    3.9697    0.0000 H   0  0  0  0  0  0  0  0  0  0  0  0
    6.1793    1.5200    0.0000 H   0  0  0  0  0  0  0  0  0  0  0  0
    6.8695    1.1215    0.0000 H   0  0  0  0  0  0  0  0  0  0  0  0
    6.8695    4.0747    0.0000 H   0  0  0  0  0  0  0  0  0  0  0  0
    6.1793    3.6762    0.0000 H   0  0  0  0  0  0  0  0  0  0  0  0
    8.3445    1.9441    0.0000 H   0  0  0  0  0  0  0  0  0  0  0  0
    7.6542    2.3426    0.0000 H   0  0  0  0  0  0  0  0  0  0  0  0
    2.8660    0.9781    0.0000 H   0  0  0  0  0  0  0  0  0  0  0  0
    2.8660    4.2181    0.0000 H   0  0  0  0  0  0  0  0  0  0  0  0
    7.6542    2.8535    0.0000 H   0  0  0  0  0  0  0  0  0  0  0  0
    8.3445    3.2520    0.0000 H   0  0  0  0  0  0  0  0  0  0  0  0
    7.6793    0.6540    0.0000 H   0  0  0  0  0  0  0  0  0  0  0  0
    8.3695    0.2554    0.0000 H   0  0  0  0  0  0  0  0  0  0  0  0
    1.4631    1.7881    0.0000 H   0  0  0  0  0  0  0  0  0  0  0  0
    1.4631    3.4081    0.0000 H   0  0  0  0  0  0  0  0  0  0  0  0
    8.7988    4.0201    0.0000 H   0  0  0  0  0  0  0  0  0  0  0  0
    8.5719    4.8671    0.0000 H   0  0  0  0  0  0  0  0  0  0  0  0
    7.7249    4.6401    0.0000 H   0  0  0  0  0  0  0  0  0  0  0  0
    9.8445    1.0781    0.0000 H   0  0  0  0  0  0  0  0  0  0  0  0
    9.1542    1.4766    0.0000 H   0  0  0  0  0  0  0  0  0  0  0  0
    9.4519   -0.5369    0.0000 H   0  0  0  0  0  0  0  0  0  0  0  0
   10.9519   -1.4030    0.0000 H   0  0  0  0  0  0  0  0  0  0  0  0
   12.5719   -0.3291    0.0000 H   0  0  0  0  0  0  0  0  0  0  0  0
   11.6419   -2.5981    0.0000 H   0  0  0  0  0  0  0  0  0  0  0  0
   14.0719   -1.1951    0.0000 H   0  0  0  0  0  0  0  0  0  0  0  0
   12.4519   -4.0010    0.0000 H   0  0  0  0  0  0  0  0  0  0  0  0
   14.8819   -2.5981    0.0000 H   0  0  0  0  0  0  0  0  0  0  0  0
  1 29  1  0  0  0  0
  2 21  2  0  0  0  0
  3  5  1  0  0  0  0
  3 10  1  0  0  0  0
  3 11  1  0  0  0  0
  4 20  1  0  0  0  0
  4 21  1  0  0  0  0
  4 54  1  0  0  0  0
  5  6  1  0  0  0  0
  5  7  1  0  0  0  0
  5 30  1  0  0  0  0
  6  8  1  0  0  0  0
  6 31  1  0  0  0  0
  6 32  1  0  0  0  0
  7  9  1  0  0  0  0
  7 33  1  0  0  0  0
  7 34  1  0  0  0  0
  8  9  1  0  0  0  0
  8 13  2  0  0  0  0
  9 14  2  0  0  0  0
 10 12  1  0  0  0  0
 10 35  1  0  0  0  0
 10 36  1  0  0  0  0
 11 15  1  0  0  0  0
 11 37  1  0  0  0  0
 11 38  1  0  0  0  0
 12 16  1  0  0  0  0
 12 39  1  0  0  0  0
 12 40  1  0  0  0  0
 13 17  1  0  0  0  0
 13 41  1  0  0  0  0
 14 18  1  0  0  0  0
 14 42  1  0  0  0  0
 15 19  1  0  0  0  0
 15 43  1  0  0  0  0
 15 44  1  0  0  0  0
 16 20  1  0  0  0  0
 16 45  1  0  0  0  0
 16 46  1  0  0  0  0
 17 18  2  0  0  0  0
 17 47  1  0  0  0  0
 18 48  1  0  0  0  0
 19 49  1  0  0  0  0
 19 50  1  0  0  0  0
 19 51  1  0  0  0  0
 20 52  1  0  0  0  0
 20 53  1  0  0  0  0
 21 22  1  0  0  0  0
 22 23  2  0  0  0  0
 22 55  1  0  0  0  0
 23 24  1  0  0  0  0
 23 56  1  0  0  0  0
 24 25  2  0  0  0  0
 24 26  1  0  0  0  0
 25 27  1  0  0  0  0
 25 57  1  0  0  0  0
 26 28  2  0  0  0  0
 26 58  1  0  0  0  0
 27 29  2  0  0  0  0
 27 59  1  0  0  0  0
 28 29  1  0  0  0  0
 28 60  1  0  0  0  0
M  END
> <PUBCHEM_COMPOUND_CID>
122181329

> <PUBCHEM_COMPOUND_CANONICALIZED>
1

> <PUBCHEM_CACTVS_COMPLEXITY>
501

> <PUBCHEM_CACTVS_HBOND_ACCEPTOR>
3

> <PUBCHEM_CACTVS_HBOND_DONOR>
1

> <PUBCHEM_CACTVS_ROTATABLE_BOND>
10

> <PUBCHEM_CACTVS_SUBSKEYS>
AAADceB7IQAAAAAAAAAAAAAAAAAAAYAAAAAwYAAAAAAAAGABQAAAHwAQAAAADCjBmAwyAIPAAACIAiFSEACCAAAgAAAIiIAIAMgIICKAkRGEIAAglgCIiYcQgIAOgAAAAAAQAAAAAAAAACAAACAACAAAAA==

> <PUBCHEM_IUPAC_OPENEYE_NAME>
(E)-3-(4-fluorophenyl)-N-[4-[indan-2-yl(propyl)amino]butyl]prop-2-enamide

> <PUBCHEM_IUPAC_CAS_NAME>
(E)-N-[4-[2,3-dihydro-1H-inden-2-yl(propyl)amino]butyl]-3-(4-fluorophenyl)-2-propenamide

> <PUBCHEM_IUPAC_NAME_MARKUP>
(<I>E</I>)-<I>N</I>-[4-[2,3-dihydro-1<I>H</I>-inden-2-yl(propyl)amino]butyl]-3-(4-fluorophenyl)prop-2-enamide

> <PUBCHEM_IUPAC_NAME>
(E)-N-[4-[2,3-dihydro-1H-inden-2-yl(propyl)amino]butyl]-3-(4-fluorophenyl)prop-2-enamide

> <PUBCHEM_IUPAC_SYSTEMATIC_NAME>
(E)-N-[4-[2,3-dihydro-1H-inden-2-yl(propyl)amino]butyl]-3-(4-fluorophenyl)prop-2-enamide

> <PUBCHEM_IUPAC_TRADITIONAL_NAME>
(E)-3-(4-fluorophenyl)-N-[4-[indan-2-yl(propyl)amino]butyl]acrylamide

> <PUBCHEM_IUPAC_INCHI>
InChI=1S/C25H31FN2O/c1-2-16-28(24-18-21-7-3-4-8-22(21)19-24)17-6-5-15-27-25(29)14-11-20-9-12-23(26)13-10-20/h3-4,7-14,24H,2,5-6,15-19H2,1H3,(H,27,29)/b14-11+

> <PUBCHEM_IUPAC_INCHIKEY>
JSGNRGPOORCANZ-SDNWHVSQSA-N

> <PUBCHEM_XLOGP3_AA>
5.4

> <PUBCHEM_EXACT_MASS>
394.24204178

> <PUBCHEM_MOLECULAR_FORMULA>
C25H31FN2O

> <PUBCHEM_MOLECULAR_WEIGHT>
394.5

> <PUBCHEM_OPENEYE_CAN_SMILES>
CCCN(CCCCNC(=O)C=CC1=CC=C(C=C1)F)C2CC3=CC=CC=C3C2

> <PUBCHEM_OPENEYE_ISO_SMILES>
CCCN(CCCCNC(=O)/C=C/C1=CC=C(C=C1)F)C2CC3=CC=CC=C3C2

> <PUBCHEM_CACTVS_TPSA>
32.3

> <PUBCHEM_MONOISOTOPIC_WEIGHT>
394.24204178

> <PUBCHEM_TOTAL_CHARGE>
0

> <PUBCHEM_HEAVY_ATOM_COUNT>
29

> <PUBCHEM_ATOM_DEF_STEREO_COUNT>
0

> <PUBCHEM_ATOM_UDEF_STEREO_COUNT>
0

> <PUBCHEM_BOND_DEF_STEREO_COUNT>
1

> <PUBCHEM_BOND_UDEF_STEREO_COUNT>
0

> <PUBCHEM_ISOTOPIC_ATOM_COUNT>
0

> <PUBCHEM_COMPONENT_COUNT>
1

> <PUBCHEM_CACTVS_TAUTO_COUNT>
-1

> <PUBCHEM_COORDINATE_TYPE>
1
5
255

> <PUBCHEM_BONDANNOTATIONS>
13  17  8
14  18  8
17  18  8
24  25  8
24  26  8
25  27  8
26  28  8
27  29  8
28  29  8
8  13  8
8  9  8
9  14  8

$$$$
