168269921
  -OEChem-09292322452D

 62 66  0     0  0  0  0  0  0999 V2000
    4.7552   -3.9093    0.0000 O   0  0  0  0  0  0  0  0  0  0  0  0
    5.5981    1.8636    0.0000 N   0  0  0  0  0  0  0  0  0  0  0  0
    5.5981    3.8636    0.0000 N   0  0  0  0  0  0  0  0  0  0  0  0
    3.0000   -3.6364    0.0000 N   0  0  0  0  0  0  0  0  0  0  0  0
    7.3580    4.8290    0.0000 N   0  0  0  0  0  0  0  0  0  0  0  0
    3.5000   -5.1662    0.0000 N   0  0  0  0  0  0  0  0  0  0  0  0
    2.1953   -4.2200    0.0000 N   0  0  0  0  0  0  0  0  0  0  0  0
    6.4641    2.3636    0.0000 C   0  0  0  0  0  0  0  0  0  0  0  0
    4.7320    2.3636    0.0000 C   0  0  0  0  0  0  0  0  0  0  0  0
    6.4641    3.3636    0.0000 C   0  0  0  0  0  0  0  0  0  0  0  0
    4.7320    3.3636    0.0000 C   0  0  0  0  0  0  0  0  0  0  0  0
    5.5981    0.8636    0.0000 C   0  0  0  0  0  0  0  0  0  0  0  0
    4.7320    0.3636    0.0000 C   0  0  0  0  0  0  0  0  0  0  0  0
    4.7320   -0.6364    0.0000 C   0  0  0  0  0  0  0  0  0  0  0  0
    5.5981    4.8636    0.0000 C   0  0  0  0  0  0  0  0  0  0  0  0
    3.8660   -1.1364    0.0000 C   0  0  0  0  0  0  0  0  0  0  0  0
    3.8660   -2.1364    0.0000 C   0  0  0  0  0  0  0  0  0  0  0  0
    6.4641    5.3636    0.0000 C   0  0  0  0  0  0  0  0  0  0  0  0
    3.0000   -2.6364    0.0000 C   0  0  0  0  0  0  0  0  0  0  0  0
    4.7320    5.3636    0.0000 C   0  0  0  0  0  0  0  0  0  0  0  0
    6.4641    6.3636    0.0000 C   0  0  0  0  0  0  0  0  0  0  0  0
    4.7320    6.3636    0.0000 C   0  0  0  0  0  0  0  0  0  0  0  0
    5.5981    6.8636    0.0000 C   0  0  0  0  0  0  0  0  0  0  0  0
    3.8047   -4.2200    0.0000 C   0  0  0  0  0  0  0  0  0  0  0  0
    7.3580    6.8983    0.0000 C   0  0  0  0  0  0  0  0  0  0  0  0
    2.5000   -5.1662    0.0000 C   0  0  0  0  0  0  0  0  0  0  0  0
    8.2641    5.3428    0.0000 C   0  0  0  0  0  0  0  0  0  0  0  0
    8.2641    6.3844    0.0000 C   0  0  0  0  0  0  0  0  0  0  0  0
    4.0000   -6.0322    0.0000 C   0  0  0  0  0  0  0  0  0  0  0  0
    2.0000   -6.0322    0.0000 C   0  0  0  0  0  0  0  0  0  0  0  0
    3.5000   -6.8983    0.0000 C   0  0  0  0  0  0  0  0  0  0  0  0
    2.5000   -6.8983    0.0000 C   0  0  0  0  0  0  0  0  0  0  0  0
    6.6762    1.7810    0.0000 H   0  0  0  0  0  0  0  0  0  0  0  0
    7.0747    2.4713    0.0000 H   0  0  0  0  0  0  0  0  0  0  0  0
    4.1215    2.4713    0.0000 H   0  0  0  0  0  0  0  0  0  0  0  0
    4.5200    1.7810    0.0000 H   0  0  0  0  0  0  0  0  0  0  0  0
    7.0747    3.2560    0.0000 H   0  0  0  0  0  0  0  0  0  0  0  0
    6.6762    3.9462    0.0000 H   0  0  0  0  0  0  0  0  0  0  0  0
    4.5200    3.9462    0.0000 H   0  0  0  0  0  0  0  0  0  0  0  0
    4.1215    3.2560    0.0000 H   0  0  0  0  0  0  0  0  0  0  0  0
    5.8101    0.2810    0.0000 H   0  0  0  0  0  0  0  0  0  0  0  0
    6.2087    0.9713    0.0000 H   0  0  0  0  0  0  0  0  0  0  0  0
    4.5200    0.9462    0.0000 H   0  0  0  0  0  0  0  0  0  0  0  0
    4.1215    0.2559    0.0000 H   0  0  0  0  0  0  0  0  0  0  0  0
    4.9441   -1.2190    0.0000 H   0  0  0  0  0  0  0  0  0  0  0  0
    5.3426   -0.5287    0.0000 H   0  0  0  0  0  0  0  0  0  0  0  0
    3.6540   -0.5538    0.0000 H   0  0  0  0  0  0  0  0  0  0  0  0
    3.2554   -1.2441    0.0000 H   0  0  0  0  0  0  0  0  0  0  0  0
    4.0781   -2.7190    0.0000 H   0  0  0  0  0  0  0  0  0  0  0  0
    4.4766   -2.0287    0.0000 H   0  0  0  0  0  0  0  0  0  0  0  0
    2.7880   -2.0538    0.0000 H   0  0  0  0  0  0  0  0  0  0  0  0
    2.3894   -2.7440    0.0000 H   0  0  0  0  0  0  0  0  0  0  0  0
    4.1951    5.0536    0.0000 H   0  0  0  0  0  0  0  0  0  0  0  0
    4.1951    6.6736    0.0000 H   0  0  0  0  0  0  0  0  0  0  0  0
    5.5981    7.4836    0.0000 H   0  0  0  0  0  0  0  0  0  0  0  0
    7.3509    7.5182    0.0000 H   0  0  0  0  0  0  0  0  0  0  0  0
    8.7998    5.0307    0.0000 H   0  0  0  0  0  0  0  0  0  0  0  0
    8.7998    6.6965    0.0000 H   0  0  0  0  0  0  0  0  0  0  0  0
    4.6200   -6.0322    0.0000 H   0  0  0  0  0  0  0  0  0  0  0  0
    1.3800   -6.0322    0.0000 H   0  0  0  0  0  0  0  0  0  0  0  0
    3.8100   -7.4352    0.0000 H   0  0  0  0  0  0  0  0  0  0  0  0
    2.1900   -7.4352    0.0000 H   0  0  0  0  0  0  0  0  0  0  0  0
  1 24  2  0  0  0  0
  2  8  1  0  0  0  0
  2  9  1  0  0  0  0
  2 12  1  0  0  0  0
  3 10  1  0  0  0  0
  3 11  1  0  0  0  0
  3 15  1  0  0  0  0
  4  7  1  0  0  0  0
  4 19  1  0  0  0  0
  4 24  1  0  0  0  0
  5 18  1  0  0  0  0
  5 27  2  0  0  0  0
  6 24  1  0  0  0  0
  6 26  1  0  0  0  0
  6 29  1  0  0  0  0
  7 26  2  0  0  0  0
  8 10  1  0  0  0  0
  8 33  1  0  0  0  0
  8 34  1  0  0  0  0
  9 11  1  0  0  0  0
  9 35  1  0  0  0  0
  9 36  1  0  0  0  0
 10 37  1  0  0  0  0
 10 38  1  0  0  0  0
 11 39  1  0  0  0  0
 11 40  1  0  0  0  0
 12 13  1  0  0  0  0
 12 41  1  0  0  0  0
 12 42  1  0  0  0  0
 13 14  1  0  0  0  0
 13 43  1  0  0  0  0
 13 44  1  0  0  0  0
 14 16  1  0  0  0  0
 14 45  1  0  0  0  0
 14 46  1  0  0  0  0
 15 18  1  0  0  0  0
 15 20  2  0  0  0  0
 16 17  1  0  0  0  0
 16 47  1  0  0  0  0
 16 48  1  0  0  0  0
 17 19  1  0  0  0  0
 17 49  1  0  0  0  0
 17 50  1  0  0  0  0
 18 21  2  0  0  0  0
 19 51  1  0  0  0  0
 19 52  1  0  0  0  0
 20 22  1  0  0  0  0
 20 53  1  0  0  0  0
 21 23  1  0  0  0  0
 21 25  1  0  0  0  0
 22 23  2  0  0  0  0
 22 54  1  0  0  0  0
 23 55  1  0  0  0  0
 25 28  2  0  0  0  0
 25 56  1  0  0  0  0
 26 30  1  0  0  0  0
 27 28  1  0  0  0  0
 27 57  1  0  0  0  0
 28 58  1  0  0  0  0
 29 31  2  0  0  0  0
 29 59  1  0  0  0  0
 30 32  2  0  0  0  0
 30 60  1  0  0  0  0
 31 32  1  0  0  0  0
 31 61  1  0  0  0  0
 32 62  1  0  0  0  0
M  END
> <PUBCHEM_COMPOUND_CID>
168269921

> <PUBCHEM_COMPOUND_CANONICALIZED>
1

> <PUBCHEM_CACTVS_COMPLEXITY>
741

> <PUBCHEM_CACTVS_HBOND_ACCEPTOR>
5

> <PUBCHEM_CACTVS_HBOND_DONOR>
0

> <PUBCHEM_CACTVS_ROTATABLE_BOND>
8

> <PUBCHEM_CACTVS_SUBSKEYS>
AAADceB7oAAAAAAAAAAAAAAAAAAAAQAAAAA8WIEAAAAAAECx8AAAHgAIAAAADAjBHgQ9wPMIEACoAzZndACSgCAxEiAf2CA4dJiIYOLAkZGUIAhojgLIyAcQgIAOAAAAQAACACAAAACAAAQAQAAAAAAAAA==

> <PUBCHEM_IUPAC_OPENEYE_NAME>
2-[6-[4-(8-quinolyl)piperazin-1-yl]hexyl]-[1,2,4]triazolo[4,3-a]pyridin-3-one

> <PUBCHEM_IUPAC_CAS_NAME>
2-[6-[4-(8-quinolinyl)-1-piperazinyl]hexyl]-[1,2,4]triazolo[4,3-a]pyridin-3-one

> <PUBCHEM_IUPAC_NAME_MARKUP>
2-[6-(4-quinolin-8-ylpiperazin-1-yl)hexyl]-[1,2,4]triazolo[4,3-a]pyridin-3-one

> <PUBCHEM_IUPAC_NAME>
2-[6-(4-quinolin-8-ylpiperazin-1-yl)hexyl]-[1,2,4]triazolo[4,3-a]pyridin-3-one

> <PUBCHEM_IUPAC_SYSTEMATIC_NAME>
2-[6-(4-quinolin-8-ylpiperazin-1-yl)hexyl]-[1,2,4]triazolo[4,3-a]pyridin-3-one

> <PUBCHEM_IUPAC_TRADITIONAL_NAME>
2-[6-[4-(8-quinolyl)piperazino]hexyl]-[1,2,4]triazolo[4,3-a]pyridin-3-one

> <PUBCHEM_IUPAC_INCHI>
InChI=1S/C25H30N6O/c32-25-30-15-6-3-12-23(30)27-31(25)16-5-2-1-4-14-28-17-19-29(20-18-28)22-11-7-9-21-10-8-13-26-24(21)22/h3,6-13,15H,1-2,4-5,14,16-20H2

> <PUBCHEM_IUPAC_INCHIKEY>
XKFTZAKZMPILFS-UHFFFAOYSA-N

> <PUBCHEM_XLOGP3_AA>
3.6

> <PUBCHEM_EXACT_MASS>
430.24810960

> <PUBCHEM_MOLECULAR_FORMULA>
C25H30N6O

> <PUBCHEM_MOLECULAR_WEIGHT>
430.5

> <PUBCHEM_OPENEYE_CAN_SMILES>
C1CN(CCN1CCCCCCN2C(=O)N3C=CC=CC3=N2)C4=CC=CC5=C4N=CC=C5

> <PUBCHEM_OPENEYE_ISO_SMILES>
C1CN(CCN1CCCCCCN2C(=O)N3C=CC=CC3=N2)C4=CC=CC5=C4N=CC=C5

> <PUBCHEM_CACTVS_TPSA>
55.3

> <PUBCHEM_MONOISOTOPIC_WEIGHT>
430.24810960

> <PUBCHEM_TOTAL_CHARGE>
0

> <PUBCHEM_HEAVY_ATOM_COUNT>
32

> <PUBCHEM_ATOM_DEF_STEREO_COUNT>
0

> <PUBCHEM_ATOM_UDEF_STEREO_COUNT>
0

> <PUBCHEM_BOND_DEF_STEREO_COUNT>
0

> <PUBCHEM_BOND_UDEF_STEREO_COUNT>
0

> <PUBCHEM_ISOTOPIC_ATOM_COUNT>
0

> <PUBCHEM_COMPONENT_COUNT>
1

> <PUBCHEM_CACTVS_TAUTO_COUNT>
-1

> <PUBCHEM_COORDINATE_TYPE>
1
5
255

> <PUBCHEM_BONDANNOTATIONS>
15  18  8
15  20  8
18  21  8
20  22  8
21  23  8
21  25  8
22  23  8
25  28  8
26  30  8
27  28  8
29  31  8
30  32  8
31  32  8
4  24  8
4  7  8
5  18  8
5  27  8
6  24  8
6  26  8
6  29  8
7  26  8

$$$$
