24810004
  -OEChem-09292322112D

 58 62  0     1  0  0  0  0  0999 V2000
    2.0000   -3.6055    0.0000 F   0  0  0  0  0  0  0  0  0  0  0  0
    8.8230   -4.8085    0.0000 F   0  0  0  0  0  0  0  0  0  0  0  0
    5.9324   -1.2526    0.0000 O   0  0  0  0  0  0  0  0  0  0  0  0
    8.4444    1.3444    0.0000 N   0  0  0  0  0  0  0  0  0  0  0  0
    9.1810    0.3618    0.0000 C   0  0  3  0  0  0  0  0  0  0  0  0
    8.9222   -0.6041    0.0000 C   0  0  3  0  0  0  0  0  0  0  0  0
   10.5799   -0.1470    0.0000 C   0  0  0  0  0  0  0  0  0  0  0  0
   10.3211   -1.1129    0.0000 C   0  0  0  0  0  0  0  0  0  0  0  0
    7.1478    0.0507    0.0000 C   0  0  0  0  0  0  0  0  0  0  0  0
    7.7012   -1.4698    0.0000 C   0  0  0  0  0  0  0  0  0  0  0  0
    6.8721   -0.9106    0.0000 C   0  0  0  0  0  0  0  0  0  0  0  0
    7.9444    2.2105    0.0000 C   0  0  0  0  0  0  0  0  0  0  0  0
    8.4444    3.0765    0.0000 C   0  0  0  0  0  0  0  0  0  0  0  0
    5.7588   -2.2374    0.0000 C   0  0  0  0  0  0  0  0  0  0  0  0
    7.9444    3.9425    0.0000 C   0  0  0  0  0  0  0  0  0  0  0  0
    9.4444    3.0765    0.0000 C   0  0  0  0  0  0  0  0  0  0  0  0
    4.8191   -2.5794    0.0000 C   0  0  0  0  0  0  0  0  0  0  0  0
    6.5248   -2.8802    0.0000 C   0  0  0  0  0  0  0  0  0  0  0  0
    8.4444    4.8085    0.0000 C   0  0  0  0  0  0  0  0  0  0  0  0
    9.9444    3.9425    0.0000 C   0  0  0  0  0  0  0  0  0  0  0  0
    4.6454   -3.5642    0.0000 C   0  0  0  0  0  0  0  0  0  0  0  0
    7.4645   -2.5382    0.0000 C   0  0  0  0  0  0  0  0  0  0  0  0
    4.0530   -1.9366    0.0000 C   0  0  0  0  0  0  0  0  0  0  0  0
    6.3512   -3.8650    0.0000 C   0  0  0  0  0  0  0  0  0  0  0  0
    9.4444    4.8085    0.0000 C   0  0  0  0  0  0  0  0  0  0  0  0
    3.7057   -3.9062    0.0000 C   0  0  0  0  0  0  0  0  0  0  0  0
    8.2305   -3.1810    0.0000 C   0  0  0  0  0  0  0  0  0  0  0  0
    3.1133   -2.2786    0.0000 C   0  0  0  0  0  0  0  0  0  0  0  0
    7.1172   -4.5078    0.0000 C   0  0  0  0  0  0  0  0  0  0  0  0
    2.9397   -3.2635    0.0000 C   0  0  0  0  0  0  0  0  0  0  0  0
    8.0569   -4.1658    0.0000 C   0  0  0  0  0  0  0  0  0  0  0  0
    9.5504    0.8598    0.0000 H   0  0  0  0  0  0  0  0  0  0  0  0
    9.0050   -1.2185    0.0000 H   0  0  0  0  0  0  0  0  0  0  0  0
   11.1739   -0.3248    0.0000 H   0  0  0  0  0  0  0  0  0  0  0  0
   10.7749    0.4416    0.0000 H   0  0  0  0  0  0  0  0  0  0  0  0
   10.1262   -1.7015    0.0000 H   0  0  0  0  0  0  0  0  0  0  0  0
   10.9151   -1.2907    0.0000 H   0  0  0  0  0  0  0  0  0  0  0  0
    7.1427    0.6707    0.0000 H   0  0  0  0  0  0  0  0  0  0  0  0
    6.5334    0.1345    0.0000 H   0  0  0  0  0  0  0  0  0  0  0  0
    7.2953   -1.9385    0.0000 H   0  0  0  0  0  0  0  0  0  0  0  0
    8.1178   -1.9289    0.0000 H   0  0  0  0  0  0  0  0  0  0  0  0
    6.4187   -0.4877    0.0000 H   0  0  0  0  0  0  0  0  0  0  0  0
    7.4694    2.6090    0.0000 H   0  0  0  0  0  0  0  0  0  0  0  0
    7.4694    1.8119    0.0000 H   0  0  0  0  0  0  0  0  0  0  0  0
    5.2838   -1.8389    0.0000 H   0  0  0  0  0  0  0  0  0  0  0  0
    7.3244    3.9425    0.0000 H   0  0  0  0  0  0  0  0  0  0  0  0
    9.7544    2.5396    0.0000 H   0  0  0  0  0  0  0  0  0  0  0  0
    8.1344    5.3455    0.0000 H   0  0  0  0  0  0  0  0  0  0  0  0
   10.5644    3.9425    0.0000 H   0  0  0  0  0  0  0  0  0  0  0  0
    5.1204   -3.9628    0.0000 H   0  0  0  0  0  0  0  0  0  0  0  0
    7.5722   -1.9276    0.0000 H   0  0  0  0  0  0  0  0  0  0  0  0
    4.1607   -1.3260    0.0000 H   0  0  0  0  0  0  0  0  0  0  0  0
    5.7686   -4.0770    0.0000 H   0  0  0  0  0  0  0  0  0  0  0  0
    9.7544    5.3455    0.0000 H   0  0  0  0  0  0  0  0  0  0  0  0
    3.5981   -4.5168    0.0000 H   0  0  0  0  0  0  0  0  0  0  0  0
    8.8132   -2.9689    0.0000 H   0  0  0  0  0  0  0  0  0  0  0  0
    2.6384   -1.8801    0.0000 H   0  0  0  0  0  0  0  0  0  0  0  0
    7.0096   -5.1184    0.0000 H   0  0  0  0  0  0  0  0  0  0  0  0
  1 30  1  0  0  0  0
  2 31  1  0  0  0  0
  3 11  1  0  0  0  0
  3 14  1  0  0  0  0
  4  5  1  0  0  0  0
  4  6  1  0  0  0  0
  4 12  1  0  0  0  0
  5  7  1  0  0  0  0
  5  9  1  0  0  0  0
  5 32  1  0  0  0  0
  6  8  1  0  0  0  0
  6 10  1  0  0  0  0
  6 33  1  0  0  0  0
  7  8  1  0  0  0  0
  7 34  1  0  0  0  0
  7 35  1  0  0  0  0
  8 36  1  0  0  0  0
  8 37  1  0  0  0  0
  9 11  1  0  0  0  0
  9 38  1  0  0  0  0
  9 39  1  0  0  0  0
 10 11  1  0  0  0  0
 10 40  1  0  0  0  0
 10 41  1  0  0  0  0
 11 42  1  0  0  0  0
 12 13  1  0  0  0  0
 12 43  1  0  0  0  0
 12 44  1  0  0  0  0
 13 15  2  0  0  0  0
 13 16  1  0  0  0  0
 14 17  1  0  0  0  0
 14 18  1  0  0  0  0
 14 45  1  0  0  0  0
 15 19  1  0  0  0  0
 15 46  1  0  0  0  0
 16 20  2  0  0  0  0
 16 47  1  0  0  0  0
 17 21  2  0  0  0  0
 17 23  1  0  0  0  0
 18 22  2  0  0  0  0
 18 24  1  0  0  0  0
 19 25  2  0  0  0  0
 19 48  1  0  0  0  0
 20 25  1  0  0  0  0
 20 49  1  0  0  0  0
 21 26  1  0  0  0  0
 21 50  1  0  0  0  0
 22 27  1  0  0  0  0
 22 51  1  0  0  0  0
 23 28  2  0  0  0  0
 23 52  1  0  0  0  0
 24 29  2  0  0  0  0
 24 53  1  0  0  0  0
 25 54  1  0  0  0  0
 26 30  2  0  0  0  0
 26 55  1  0  0  0  0
 27 31  2  0  0  0  0
 27 56  1  0  0  0  0
 28 30  1  0  0  0  0
 28 57  1  0  0  0  0
 29 31  1  0  0  0  0
 29 58  1  0  0  0  0
M  END
> <PUBCHEM_COMPOUND_CID>
24810004

> <PUBCHEM_COMPOUND_CANONICALIZED>
1

> <PUBCHEM_CACTVS_COMPLEXITY>
515

> <PUBCHEM_CACTVS_HBOND_ACCEPTOR>
4

> <PUBCHEM_CACTVS_HBOND_DONOR>
0

> <PUBCHEM_CACTVS_ROTATABLE_BOND>
6

> <PUBCHEM_CACTVS_SUBSKEYS>
AAADceB6IYAAAAAAAAAAAAAAAAAAAWAAAAA8YMEABgAAAAABUAAAHwAAAAAADDzhmA4wAIMABACAAiBCAACCAAAgAAAIiAAIDIgIJiKAsRmGMAhmwAGIqAeQwOAOAAAAAAAAAAAAAAAAAAAAAAAAAAAAAA==

> <PUBCHEM_IUPAC_OPENEYE_NAME>
8-benzyl-3-[bis(4-fluorophenyl)methoxy]-8-azabicyclo[3.2.1]octane

> <PUBCHEM_IUPAC_CAS_NAME>
3-[bis(4-fluorophenyl)methoxy]-8-(phenylmethyl)-8-azabicyclo[3.2.1]octane

> <PUBCHEM_IUPAC_NAME_MARKUP>
8-benzyl-3-[bis(4-fluorophenyl)methoxy]-8-azabicyclo[3.2.1]octane

> <PUBCHEM_IUPAC_NAME>
8-benzyl-3-[bis(4-fluorophenyl)methoxy]-8-azabicyclo[3.2.1]octane

> <PUBCHEM_IUPAC_SYSTEMATIC_NAME>
3-[bis(4-fluorophenyl)methoxy]-8-(phenylmethyl)-8-azabicyclo[3.2.1]octane

> <PUBCHEM_IUPAC_TRADITIONAL_NAME>
8-benzyl-3-[bis(4-fluorophenyl)methoxy]-8-azabicyclo[3.2.1]octane

> <PUBCHEM_IUPAC_INCHI>
InChI=1S/C27H27F2NO/c28-22-10-6-20(7-11-22)27(21-8-12-23(29)13-9-21)31-26-16-24-14-15-25(17-26)30(24)18-19-4-2-1-3-5-19/h1-13,24-27H,14-18H2

> <PUBCHEM_IUPAC_INCHIKEY>
YDSZXMRCXLHXST-UHFFFAOYSA-N

> <PUBCHEM_XLOGP3_AA>
6.2

> <PUBCHEM_EXACT_MASS>
419.20607081

> <PUBCHEM_MOLECULAR_FORMULA>
C27H27F2NO

> <PUBCHEM_MOLECULAR_WEIGHT>
419.5

> <PUBCHEM_OPENEYE_CAN_SMILES>
C1CC2CC(CC1N2CC3=CC=CC=C3)OC(C4=CC=C(C=C4)F)C5=CC=C(C=C5)F

> <PUBCHEM_OPENEYE_ISO_SMILES>
C1CC2CC(CC1N2CC3=CC=CC=C3)OC(C4=CC=C(C=C4)F)C5=CC=C(C=C5)F

> <PUBCHEM_CACTVS_TPSA>
12.5

> <PUBCHEM_MONOISOTOPIC_WEIGHT>
419.20607081

> <PUBCHEM_TOTAL_CHARGE>
0

> <PUBCHEM_HEAVY_ATOM_COUNT>
31

> <PUBCHEM_ATOM_DEF_STEREO_COUNT>
0

> <PUBCHEM_ATOM_UDEF_STEREO_COUNT>
2

> <PUBCHEM_BOND_DEF_STEREO_COUNT>
0

> <PUBCHEM_BOND_UDEF_STEREO_COUNT>
0

> <PUBCHEM_ISOTOPIC_ATOM_COUNT>
0

> <PUBCHEM_COMPONENT_COUNT>
1

> <PUBCHEM_CACTVS_TAUTO_COUNT>
-1

> <PUBCHEM_COORDINATE_TYPE>
1
5
255

> <PUBCHEM_BONDANNOTATIONS>
13  15  8
13  16  8
15  19  8
16  20  8
17  21  8
17  23  8
18  22  8
18  24  8
19  25  8
20  25  8
21  26  8
22  27  8
23  28  8
24  29  8
26  30  8
27  31  8
28  30  8
29  31  8
5  7  3
6  8  3

$$$$
