44415558
  -OEChem-09292322282D

 61 66  0     0  0  0  0  0  0999 V2000
    8.7204    1.4643    0.0000 Cl  0  0  0  0  0  0  0  0  0  0  0  0
    6.6150   -0.8626    0.0000 O   0  0  0  0  0  0  0  0  0  0  0  0
    3.9491    3.2290    0.0000 N   0  0  0  0  0  0  0  0  0  0  0  0
    3.0814    5.0309    0.0000 N   0  0  0  0  0  0  0  0  0  0  0  0
    4.8830    0.1374    0.0000 N   0  0  0  0  0  0  0  0  0  0  0  0
    5.3830    2.3280    0.0000 N   0  0  0  0  0  0  0  0  0  0  0  0
    4.8830   -0.8626    0.0000 N   0  0  0  0  0  0  0  0  0  0  0  0
    6.6150   -2.8626    0.0000 N   0  0  0  0  0  0  0  0  0  0  0  0
    2.9519    3.3037    0.0000 C   0  0  0  0  0  0  0  0  0  0  0  0
    4.5125    4.0552    0.0000 C   0  0  0  0  0  0  0  0  0  0  0  0
    2.5180    4.2047    0.0000 C   0  0  0  0  0  0  0  0  0  0  0  0
    4.0786    4.9562    0.0000 C   0  0  0  0  0  0  0  0  0  0  0  0
    4.3830    2.3280    0.0000 C   0  0  0  0  0  0  0  0  0  0  0  0
    3.7595    1.5462    0.0000 C   0  0  0  0  0  0  0  0  0  0  0  0
    2.6475    5.9319    0.0000 C   0  0  0  0  0  0  0  0  0  0  0  0
    3.9820    0.5713    0.0000 C   0  0  0  0  0  0  0  0  0  0  0  0
    5.7840    0.5712    0.0000 C   0  0  0  0  0  0  0  0  0  0  0  0
    6.0065    1.5462    0.0000 C   0  0  0  0  0  0  0  0  0  0  0  0
    2.7690    1.8685    0.0000 C   0  0  0  0  0  0  0  0  0  0  0  0
    3.2295   -0.1489    0.0000 C   0  0  0  0  0  0  0  0  0  0  0  0
    2.0000    1.1660    0.0000 C   0  0  0  0  0  0  0  0  0  0  0  0
    6.5365   -0.1489    0.0000 C   0  0  0  0  0  0  0  0  0  0  0  0
    6.9970    1.8685    0.0000 C   0  0  0  0  0  0  0  0  0  0  0  0
    2.2318    0.1504    0.0000 C   0  0  0  0  0  0  0  0  0  0  0  0
    7.5342    0.1504    0.0000 C   0  0  0  0  0  0  0  0  0  0  0  0
    7.7660    1.1659    0.0000 C   0  0  0  0  0  0  0  0  0  0  0  0
    5.7490   -1.3626    0.0000 C   0  0  0  0  0  0  0  0  0  0  0  0
    5.7490   -2.3626    0.0000 C   0  0  0  0  0  0  0  0  0  0  0  0
    4.8830   -2.8626    0.0000 C   0  0  0  0  0  0  0  0  0  0  0  0
    6.6150   -3.8626    0.0000 C   0  0  0  0  0  0  0  0  0  0  0  0
    5.7490   -4.3626    0.0000 C   0  0  0  0  0  0  0  0  0  0  0  0
    4.8830   -3.8626    0.0000 C   0  0  0  0  0  0  0  0  0  0  0  0
    7.5250   -4.3695    0.0000 C   0  0  0  0  0  0  0  0  0  0  0  0
    5.7329   -5.4041    0.0000 C   0  0  0  0  0  0  0  0  0  0  0  0
    7.5330   -5.4111    0.0000 C   0  0  0  0  0  0  0  0  0  0  0  0
    6.6310   -5.9319    0.0000 C   0  0  0  0  0  0  0  0  0  0  0  0
    2.3551    3.1358    0.0000 H   0  0  0  0  0  0  0  0  0  0  0  0
    3.0137    2.6868    0.0000 H   0  0  0  0  0  0  0  0  0  0  0  0
    4.9563    3.6223    0.0000 H   0  0  0  0  0  0  0  0  0  0  0  0
    5.0159    4.4171    0.0000 H   0  0  0  0  0  0  0  0  0  0  0  0
    2.0742    4.6376    0.0000 H   0  0  0  0  0  0  0  0  0  0  0  0
    2.0146    3.8428    0.0000 H   0  0  0  0  0  0  0  0  0  0  0  0
    4.6754    5.1241    0.0000 H   0  0  0  0  0  0  0  0  0  0  0  0
    4.0168    5.5731    0.0000 H   0  0  0  0  0  0  0  0  0  0  0  0
    3.2061    6.2009    0.0000 H   0  0  0  0  0  0  0  0  0  0  0  0
    2.3785    6.4905    0.0000 H   0  0  0  0  0  0  0  0  0  0  0  0
    2.0889    5.6629    0.0000 H   0  0  0  0  0  0  0  0  0  0  0  0
    2.6380    2.4745    0.0000 H   0  0  0  0  0  0  0  0  0  0  0  0
    3.3744   -0.7517    0.0000 H   0  0  0  0  0  0  0  0  0  0  0  0
    1.4083    1.3510    0.0000 H   0  0  0  0  0  0  0  0  0  0  0  0
    4.3460   -1.1726    0.0000 H   0  0  0  0  0  0  0  0  0  0  0  0
    6.3916   -0.7518    0.0000 H   0  0  0  0  0  0  0  0  0  0  0  0
    7.1280    2.4745    0.0000 H   0  0  0  0  0  0  0  0  0  0  0  0
    1.7789   -0.2730    0.0000 H   0  0  0  0  0  0  0  0  0  0  0  0
    7.9871   -0.2731    0.0000 H   0  0  0  0  0  0  0  0  0  0  0  0
    4.3460   -2.5526    0.0000 H   0  0  0  0  0  0  0  0  0  0  0  0
    4.3460   -4.1726    0.0000 H   0  0  0  0  0  0  0  0  0  0  0  0
    8.0583   -4.0533    0.0000 H   0  0  0  0  0  0  0  0  0  0  0  0
    5.1924   -5.7079    0.0000 H   0  0  0  0  0  0  0  0  0  0  0  0
    8.0712   -5.7190    0.0000 H   0  0  0  0  0  0  0  0  0  0  0  0
    6.6286   -6.5519    0.0000 H   0  0  0  0  0  0  0  0  0  0  0  0
  1 26  1  0  0  0  0
  2 27  2  0  0  0  0
  3  9  1  0  0  0  0
  3 10  1  0  0  0  0
  3 13  1  0  0  0  0
  4 11  1  0  0  0  0
  4 12  1  0  0  0  0
  4 15  1  0  0  0  0
  5  7  1  0  0  0  0
  5 16  1  0  0  0  0
  5 17  1  0  0  0  0
  6 13  2  0  0  0  0
  6 18  1  0  0  0  0
  7 27  1  0  0  0  0
  7 51  1  0  0  0  0
  8 28  2  0  0  0  0
  8 30  1  0  0  0  0
  9 11  1  0  0  0  0
  9 37  1  0  0  0  0
  9 38  1  0  0  0  0
 10 12  1  0  0  0  0
 10 39  1  0  0  0  0
 10 40  1  0  0  0  0
 11 41  1  0  0  0  0
 11 42  1  0  0  0  0
 12 43  1  0  0  0  0
 12 44  1  0  0  0  0
 13 14  1  0  0  0  0
 14 16  1  0  0  0  0
 14 19  2  0  0  0  0
 15 45  1  0  0  0  0
 15 46  1  0  0  0  0
 15 47  1  0  0  0  0
 16 20  2  0  0  0  0
 17 18  2  0  0  0  0
 17 22  1  0  0  0  0
 18 23  1  0  0  0  0
 19 21  1  0  0  0  0
 19 48  1  0  0  0  0
 20 24  1  0  0  0  0
 20 49  1  0  0  0  0
 21 24  2  0  0  0  0
 21 50  1  0  0  0  0
 22 25  2  0  0  0  0
 22 52  1  0  0  0  0
 23 26  2  0  0  0  0
 23 53  1  0  0  0  0
 24 54  1  0  0  0  0
 25 26  1  0  0  0  0
 25 55  1  0  0  0  0
 27 28  1  0  0  0  0
 28 29  1  0  0  0  0
 29 32  2  0  0  0  0
 29 56  1  0  0  0  0
 30 31  1  0  0  0  0
 30 33  2  0  0  0  0
 31 32  1  0  0  0  0
 31 34  2  0  0  0  0
 32 57  1  0  0  0  0
 33 35  1  0  0  0  0
 33 58  1  0  0  0  0
 34 36  1  0  0  0  0
 34 59  1  0  0  0  0
 35 36  2  0  0  0  0
 35 60  1  0  0  0  0
 36 61  1  0  0  0  0
M  END
> <PUBCHEM_COMPOUND_CID>
44415558

> <PUBCHEM_COMPOUND_CANONICALIZED>
1

> <PUBCHEM_CACTVS_COMPLEXITY>
816

> <PUBCHEM_CACTVS_HBOND_ACCEPTOR>
5

> <PUBCHEM_CACTVS_HBOND_DONOR>
1

> <PUBCHEM_CACTVS_ROTATABLE_BOND>
3

> <PUBCHEM_CACTVS_SUBSKEYS>
AAADceB7oAAEAAAAAAAAAAAAAAAAAAAAAAA8eMECBAAAAACx9AAAHgIYAAAADArBniQzwPNqEACoAydydACChCEnByAbuCG4dtgIYPLB37GUIQhggADIyYcYiICOAABAAAICACAAAIAABAQAQAAAAAAAAA==

> <PUBCHEM_IUPAC_OPENEYE_NAME>
N-[3-chloro-6-(4-methylpiperazin-1-yl)benzo[b][1,4]benzodiazepin-11-yl]quinoline-2-carboxamide

> <PUBCHEM_IUPAC_CAS_NAME>
N-[3-chloro-6-(4-methyl-1-piperazinyl)-11-benzo[b][1,4]benzodiazepinyl]-2-quinolinecarboxamide

> <PUBCHEM_IUPAC_NAME_MARKUP>
<I>N</I>-[3-chloro-6-(4-methylpiperazin-1-yl)benzo[b][1,4]benzodiazepin-11-yl]quinoline-2-carboxamide

> <PUBCHEM_IUPAC_NAME>
N-[3-chloro-6-(4-methylpiperazin-1-yl)benzo[b][1,4]benzodiazepin-11-yl]quinoline-2-carboxamide

> <PUBCHEM_IUPAC_SYSTEMATIC_NAME>
N-[3-chloranyl-6-(4-methylpiperazin-1-yl)benzo[b][1,4]benzodiazepin-11-yl]quinoline-2-carboxamide

> <PUBCHEM_IUPAC_TRADITIONAL_NAME>
N-[3-chloro-6-(4-methylpiperazino)benzo[b][1,4]benzodiazepin-11-yl]quinaldamide

> <PUBCHEM_IUPAC_INCHI>
InChI=1S/C28H25ClN6O/c1-33-14-16-34(17-15-33)27-21-7-3-5-9-25(21)35(26-13-11-20(29)18-24(26)31-27)32-28(36)23-12-10-19-6-2-4-8-22(19)30-23/h2-13,18H,14-17H2,1H3,(H,32,36)

> <PUBCHEM_IUPAC_INCHIKEY>
UHAUBAVEWTXMNB-UHFFFAOYSA-N

> <PUBCHEM_XLOGP3_AA>
5

> <PUBCHEM_EXACT_MASS>
496.1778371

> <PUBCHEM_MOLECULAR_FORMULA>
C28H25ClN6O

> <PUBCHEM_MOLECULAR_WEIGHT>
497.0

> <PUBCHEM_OPENEYE_CAN_SMILES>
CN1CCN(CC1)C2=NC3=C(C=CC(=C3)Cl)N(C4=CC=CC=C42)NC(=O)C5=NC6=CC=CC=C6C=C5

> <PUBCHEM_OPENEYE_ISO_SMILES>
CN1CCN(CC1)C2=NC3=C(C=CC(=C3)Cl)N(C4=CC=CC=C42)NC(=O)C5=NC6=CC=CC=C6C=C5

> <PUBCHEM_CACTVS_TPSA>
64.1

> <PUBCHEM_MONOISOTOPIC_WEIGHT>
496.1778371

> <PUBCHEM_TOTAL_CHARGE>
0

> <PUBCHEM_HEAVY_ATOM_COUNT>
36

> <PUBCHEM_ATOM_DEF_STEREO_COUNT>
0

> <PUBCHEM_ATOM_UDEF_STEREO_COUNT>
0

> <PUBCHEM_BOND_DEF_STEREO_COUNT>
0

> <PUBCHEM_BOND_UDEF_STEREO_COUNT>
0

> <PUBCHEM_ISOTOPIC_ATOM_COUNT>
0

> <PUBCHEM_COMPONENT_COUNT>
1

> <PUBCHEM_CACTVS_TAUTO_COUNT>
-1

> <PUBCHEM_COORDINATE_TYPE>
1
5
255

> <PUBCHEM_BONDANNOTATIONS>
14  16  8
14  19  8
16  20  8
17  18  8
17  22  8
18  23  8
19  21  8
20  24  8
21  24  8
22  25  8
23  26  8
25  26  8
28  29  8
29  32  8
30  31  8
30  33  8
31  32  8
31  34  8
33  35  8
34  36  8
35  36  8
8  28  8
8  30  8

$$$$
