156043232
  -OEChem-09292322442D

 53 56  0     1  0  0  0  0  0999 V2000
    3.0723    2.8664    0.0000 O   0  0  0  0  0  0  0  0  0  0  0  0
    6.0370   -2.7857    0.0000 O   0  0  0  0  0  0  0  0  0  0  0  0
    5.7405    0.8201    0.0000 N   0  0  3  0  0  0  0  0  0  0  0  0
    4.0501    0.0519    0.0000 C   0  0  1  0  0  0  0  0  0  0  0  0
    4.3089    1.0178    0.0000 C   0  0  2  0  0  0  0  0  0  0  0  0
    3.5723    2.0004    0.0000 C   0  0  1  0  0  0  0  0  0  0  0  0
    2.8290   -0.8138    0.0000 C   0  0  0  0  0  0  0  0  0  0  0  0
    5.3217   -0.7428    0.0000 C   0  0  0  0  0  0  0  0  0  0  0  0
    2.2756    0.7067    0.0000 C   0  0  0  0  0  0  0  0  0  0  0  0
    2.0000   -0.2546    0.0000 C   0  0  0  0  0  0  0  0  0  0  0  0
    6.0989   -0.1134    0.0000 C   0  0  0  0  0  0  0  0  0  0  0  0
    4.1373   -0.9443    0.0000 C   0  0  0  0  0  0  0  0  0  0  0  0
    6.2852    1.6588    0.0000 C   0  0  0  0  0  0  0  0  0  0  0  0
    5.0435   -1.3669    0.0000 C   0  0  0  0  0  0  0  0  0  0  0  0
    3.3181   -1.5179    0.0000 C   0  0  0  0  0  0  0  0  0  0  0  0
    7.2838    1.6065    0.0000 C   0  0  0  0  0  0  0  0  0  0  0  0
    5.1307   -2.3631    0.0000 C   0  0  0  0  0  0  0  0  0  0  0  0
    3.4052   -2.5141    0.0000 C   0  0  0  0  0  0  0  0  0  0  0  0
    4.3116   -2.9367    0.0000 C   0  0  0  0  0  0  0  0  0  0  0  0
    7.8284    2.4452    0.0000 C   0  0  0  0  0  0  0  0  0  0  0  0
    8.8271    2.3928    0.0000 C   0  0  0  0  0  0  0  0  0  0  0  0
    9.2810    1.5018    0.0000 C   0  0  0  0  0  0  0  0  0  0  0  0
    9.3717    3.2315    0.0000 C   0  0  0  0  0  0  0  0  0  0  0  0
   10.2797    1.4495    0.0000 C   0  0  0  0  0  0  0  0  0  0  0  0
   10.3703    3.1792    0.0000 C   0  0  0  0  0  0  0  0  0  0  0  0
   10.8243    2.2881    0.0000 C   0  0  0  0  0  0  0  0  0  0  0  0
    4.5289    1.8388    0.0000 H   0  0  0  0  0  0  0  0  0  0  0  0
    4.0897    2.3420    0.0000 H   0  0  0  0  0  0  0  0  0  0  0  0
    2.4232   -1.2825    0.0000 H   0  0  0  0  0  0  0  0  0  0  0  0
    3.2457   -1.2729    0.0000 H   0  0  0  0  0  0  0  0  0  0  0  0
    4.9372   -1.2291    0.0000 H   0  0  0  0  0  0  0  0  0  0  0  0
    5.7627   -1.1786    0.0000 H   0  0  0  0  0  0  0  0  0  0  0  0
    2.2706    1.3267    0.0000 H   0  0  0  0  0  0  0  0  0  0  0  0
    1.6613    0.7905    0.0000 H   0  0  0  0  0  0  0  0  0  0  0  0
    1.4252   -0.0223    0.0000 H   0  0  0  0  0  0  0  0  0  0  0  0
    1.7089   -0.8020    0.0000 H   0  0  0  0  0  0  0  0  0  0  0  0
    6.4366   -0.6334    0.0000 H   0  0  0  0  0  0  0  0  0  0  0  0
    6.6513    0.1680    0.0000 H   0  0  0  0  0  0  0  0  0  0  0  0
    6.4246    2.2629    0.0000 H   0  0  0  0  0  0  0  0  0  0  0  0
    5.7144    1.9011    0.0000 H   0  0  0  0  0  0  0  0  0  0  0  0
    3.3823    3.4034    0.0000 H   0  0  0  0  0  0  0  0  0  0  0  0
    5.5514   -1.0113    0.0000 H   0  0  0  0  0  0  0  0  0  0  0  0
    2.7562   -1.2559    0.0000 H   0  0  0  0  0  0  0  0  0  0  0  0
    7.5653    1.0541    0.0000 H   0  0  0  0  0  0  0  0  0  0  0  0
    2.8974   -2.8697    0.0000 H   0  0  0  0  0  0  0  0  0  0  0  0
    4.3657   -3.5543    0.0000 H   0  0  0  0  0  0  0  0  0  0  0  0
    7.5470    2.9976    0.0000 H   0  0  0  0  0  0  0  0  0  0  0  0
    6.0910   -3.4034    0.0000 H   0  0  0  0  0  0  0  0  0  0  0  0
    8.9434    0.9818    0.0000 H   0  0  0  0  0  0  0  0  0  0  0  0
    9.0902    3.7839    0.0000 H   0  0  0  0  0  0  0  0  0  0  0  0
   10.5612    0.8970    0.0000 H   0  0  0  0  0  0  0  0  0  0  0  0
   10.7080    3.6991    0.0000 H   0  0  0  0  0  0  0  0  0  0  0  0
   11.4435    2.2557    0.0000 H   0  0  0  0  0  0  0  0  0  0  0  0
  6  1  1  6  0  0  0
  1 41  1  0  0  0  0
  2 17  1  0  0  0  0
  2 48  1  0  0  0  0
  3  5  1  0  0  0  0
  3 11  1  0  0  0  0
  3 13  1  0  0  0  0
  4  6  1  0  0  0  0
  4  7  1  0  0  0  0
  4  8  1  0  0  0  0
  4 12  1  1  0  0  0
  5  6  1  0  0  0  0
  5  9  1  0  0  0  0
  5 27  1  6  0  0  0
  6 28  1  0  0  0  0
  7 10  1  0  0  0  0
  7 29  1  0  0  0  0
  7 30  1  0  0  0  0
  8 11  1  0  0  0  0
  8 31  1  0  0  0  0
  8 32  1  0  0  0  0
  9 10  1  0  0  0  0
  9 33  1  0  0  0  0
  9 34  1  0  0  0  0
 10 35  1  0  0  0  0
 10 36  1  0  0  0  0
 11 37  1  0  0  0  0
 11 38  1  0  0  0  0
 12 14  2  0  0  0  0
 12 15  1  0  0  0  0
 13 16  1  0  0  0  0
 13 39  1  0  0  0  0
 13 40  1  0  0  0  0
 14 17  1  0  0  0  0
 14 42  1  0  0  0  0
 15 18  2  0  0  0  0
 15 43  1  0  0  0  0
 16 20  2  0  0  0  0
 16 44  1  0  0  0  0
 17 19  2  0  0  0  0
 18 19  1  0  0  0  0
 18 45  1  0  0  0  0
 19 46  1  0  0  0  0
 20 21  1  0  0  0  0
 20 47  1  0  0  0  0
 21 22  2  0  0  0  0
 21 23  1  0  0  0  0
 22 24  1  0  0  0  0
 22 49  1  0  0  0  0
 23 25  2  0  0  0  0
 23 50  1  0  0  0  0
 24 26  2  0  0  0  0
 24 51  1  0  0  0  0
 25 26  1  0  0  0  0
 25 52  1  0  0  0  0
 26 53  1  0  0  0  0
M  END
> <PUBCHEM_COMPOUND_CID>
156043232

> <PUBCHEM_COMPOUND_CANONICALIZED>
1

> <PUBCHEM_CACTVS_COMPLEXITY>
487

> <PUBCHEM_CACTVS_HBOND_ACCEPTOR>
3

> <PUBCHEM_CACTVS_HBOND_DONOR>
2

> <PUBCHEM_CACTVS_ROTATABLE_BOND>
4

> <PUBCHEM_CACTVS_SUBSKEYS>
AAADceB6MAAAAAAAAAAAAAAAAAAAAAAAAAA8YMEAAAAWAAABQAAAHgAACAAADjzhmAYwBoMAAgCAAiBCAACCAAAgIAAIiAAOCIgKNiKCkRKEcAAkwBGYmAew4PQPgAABAAAAAAAAAAKAABAgAAAAAAAAAA==

> <PUBCHEM_IUPAC_OPENEYE_NAME>
(1S,5S,9S)-2-[(E)-cinnamyl]-5-(3-hydroxyphenyl)-2-azabicyclo[3.3.1]nonan-9-ol

> <PUBCHEM_IUPAC_CAS_NAME>
(1S,5S,9S)-5-(3-hydroxyphenyl)-2-[(E)-3-phenylprop-2-enyl]-2-azabicyclo[3.3.1]nonan-9-ol

> <PUBCHEM_IUPAC_NAME_MARKUP>
(1<I>S</I>,5<I>S</I>,9<I>S</I>)-5-(3-hydroxyphenyl)-2-[(<I>E</I>)-3-phenylprop-2-enyl]-2-azabicyclo[3.3.1]nonan-9-ol

> <PUBCHEM_IUPAC_NAME>
(1S,5S,9S)-5-(3-hydroxyphenyl)-2-[(E)-3-phenylprop-2-enyl]-2-azabicyclo[3.3.1]nonan-9-ol

> <PUBCHEM_IUPAC_SYSTEMATIC_NAME>
(1S,5S,9S)-5-(3-hydroxyphenyl)-2-[(E)-3-phenylprop-2-enyl]-2-azabicyclo[3.3.1]nonan-9-ol

> <PUBCHEM_IUPAC_TRADITIONAL_NAME>
(1S,5S,9S)-2-[(E)-cinnamyl]-5-(3-hydroxyphenyl)-2-azabicyclo[3.3.1]nonan-9-ol

> <PUBCHEM_IUPAC_INCHI>
InChI=1S/C23H27NO2/c25-20-11-4-10-19(17-20)23-13-5-12-21(22(23)26)24(16-14-23)15-6-9-18-7-2-1-3-8-18/h1-4,6-11,17,21-22,25-26H,5,12-16H2/b9-6+/t21-,22+,23-/m0/s1

> <PUBCHEM_IUPAC_INCHIKEY>
YZGXFLYQBFUCHR-BHOHKKBBSA-N

> <PUBCHEM_XLOGP3_AA>
4.2

> <PUBCHEM_EXACT_MASS>
349.204179104

> <PUBCHEM_MOLECULAR_FORMULA>
C23H27NO2

> <PUBCHEM_MOLECULAR_WEIGHT>
349.5

> <PUBCHEM_OPENEYE_CAN_SMILES>
C1CC2C(C(C1)(CCN2CC=CC3=CC=CC=C3)C4=CC(=CC=C4)O)O

> <PUBCHEM_OPENEYE_ISO_SMILES>
C1C[C@H]2[C@H]([C@@](C1)(CCN2C/C=C/C3=CC=CC=C3)C4=CC(=CC=C4)O)O

> <PUBCHEM_CACTVS_TPSA>
43.7

> <PUBCHEM_MONOISOTOPIC_WEIGHT>
349.204179104

> <PUBCHEM_TOTAL_CHARGE>
0

> <PUBCHEM_HEAVY_ATOM_COUNT>
26

> <PUBCHEM_ATOM_DEF_STEREO_COUNT>
3

> <PUBCHEM_ATOM_UDEF_STEREO_COUNT>
0

> <PUBCHEM_BOND_DEF_STEREO_COUNT>
1

> <PUBCHEM_BOND_UDEF_STEREO_COUNT>
0

> <PUBCHEM_ISOTOPIC_ATOM_COUNT>
0

> <PUBCHEM_COMPONENT_COUNT>
1

> <PUBCHEM_CACTVS_TAUTO_COUNT>
-1

> <PUBCHEM_COORDINATE_TYPE>
1
5
255

> <PUBCHEM_BONDANNOTATIONS>
6  1  6
12  14  8
12  15  8
14  17  8
15  18  8
17  19  8
18  19  8
21  22  8
21  23  8
22  24  8
23  25  8
24  26  8
25  26  8
4  12  5
5  27  6

$$$$
