23630501
  -OEChem-09292322252D

 62 66  0     1  0  0  0  0  0999 V2000
    2.0000   -1.8755    0.0000 Cl  0  0  0  0  0  0  0  0  0  0  0  0
    2.2091   -3.8645    0.0000 Cl  0  0  0  0  0  0  0  0  0  0  0  0
    7.9840   -1.0134    0.0000 S   0  0  0  0  0  0  0  0  0  0  0  0
   17.4201    2.0853    0.0000 O   0  0  0  0  0  0  0  0  0  0  0  0
   10.9840    0.7187    0.0000 N   0  0  3  0  0  0  0  0  0  0  0  0
   16.7538    1.3396    0.0000 N   0  0  0  0  0  0  0  0  0  0  0  0
    6.3962   -1.8224    0.0000 N   0  0  0  0  0  0  0  0  0  0  0  0
    6.3962   -0.2044    0.0000 N   0  0  0  0  0  0  0  0  0  0  0  0
    5.4451   -0.5134    0.0000 N   0  0  0  0  0  0  0  0  0  0  0  0
   11.4179    1.6196    0.0000 C   0  0  0  0  0  0  0  0  0  0  0  0
   11.4179   -0.1823    0.0000 C   0  0  0  0  0  0  0  0  0  0  0  0
   12.3928    1.8422    0.0000 C   0  0  0  0  0  0  0  0  0  0  0  0
   12.3928   -0.4048    0.0000 C   0  0  0  0  0  0  0  0  0  0  0  0
   13.1746    1.2187    0.0000 C   0  0  0  0  0  0  0  0  0  0  0  0
   13.1746    0.2187    0.0000 C   0  0  0  0  0  0  0  0  0  0  0  0
    9.9840    0.7187    0.0000 C   0  0  0  0  0  0  0  0  0  0  0  0
    9.4840   -0.1474    0.0000 C   0  0  0  0  0  0  0  0  0  0  0  0
   14.0686    1.7533    0.0000 C   0  0  0  0  0  0  0  0  0  0  0  0
   14.0686   -0.3160    0.0000 C   0  0  0  0  0  0  0  0  0  0  0  0
   14.9746    1.2395    0.0000 C   0  0  0  0  0  0  0  0  0  0  0  0
    8.4840   -0.1474    0.0000 C   0  0  0  0  0  0  0  0  0  0  0  0
   14.9746    0.1979    0.0000 C   0  0  0  0  0  0  0  0  0  0  0  0
   15.8387    1.7428    0.0000 C   0  0  0  0  0  0  0  0  0  0  0  0
   15.9394    2.7377    0.0000 C   0  0  0  0  0  0  0  0  0  0  0  0
    6.9840   -1.0134    0.0000 C   0  0  0  0  0  0  0  0  0  0  0  0
   16.9167    2.9494    0.0000 C   0  0  0  0  0  0  0  0  0  0  0  0
    5.4451   -1.5134    0.0000 C   0  0  0  0  0  0  0  0  0  0  0  0
    6.7052   -2.7735    0.0000 C   0  0  0  0  0  0  0  0  0  0  0  0
    4.6361   -2.1012    0.0000 C   0  0  0  0  0  0  0  0  0  0  0  0
   17.3200    3.8645    0.0000 C   0  0  0  0  0  0  0  0  0  0  0  0
    3.7226   -1.6944    0.0000 C   0  0  0  0  0  0  0  0  0  0  0  0
    4.7406   -3.0957    0.0000 C   0  0  0  0  0  0  0  0  0  0  0  0
    2.9136   -2.2822    0.0000 C   0  0  0  0  0  0  0  0  0  0  0  0
    3.9316   -3.6835    0.0000 C   0  0  0  0  0  0  0  0  0  0  0  0
    3.0181   -3.2767    0.0000 C   0  0  0  0  0  0  0  0  0  0  0  0
   11.4179    2.2396    0.0000 H   0  0  0  0  0  0  0  0  0  0  0  0
   10.8134    1.7576    0.0000 H   0  0  0  0  0  0  0  0  0  0  0  0
   10.8134   -0.3203    0.0000 H   0  0  0  0  0  0  0  0  0  0  0  0
   11.4179   -0.8023    0.0000 H   0  0  0  0  0  0  0  0  0  0  0  0
   12.8775    2.2287    0.0000 H   0  0  0  0  0  0  0  0  0  0  0  0
   12.1238    2.4008    0.0000 H   0  0  0  0  0  0  0  0  0  0  0  0
   12.1238   -0.9634    0.0000 H   0  0  0  0  0  0  0  0  0  0  0  0
   12.8775   -0.7914    0.0000 H   0  0  0  0  0  0  0  0  0  0  0  0
   10.0916    1.3292    0.0000 H   0  0  0  0  0  0  0  0  0  0  0  0
    9.4014    0.9307    0.0000 H   0  0  0  0  0  0  0  0  0  0  0  0
    9.3763   -0.7579    0.0000 H   0  0  0  0  0  0  0  0  0  0  0  0
   10.0666   -0.3594    0.0000 H   0  0  0  0  0  0  0  0  0  0  0  0
   14.0614    2.3733    0.0000 H   0  0  0  0  0  0  0  0  0  0  0  0
   14.0614   -0.9360    0.0000 H   0  0  0  0  0  0  0  0  0  0  0  0
    8.5916    0.4632    0.0000 H   0  0  0  0  0  0  0  0  0  0  0  0
    7.9014    0.0647    0.0000 H   0  0  0  0  0  0  0  0  0  0  0  0
   15.5104   -0.1142    0.0000 H   0  0  0  0  0  0  0  0  0  0  0  0
   15.4771    3.1508    0.0000 H   0  0  0  0  0  0  0  0  0  0  0  0
    6.1155   -2.9651    0.0000 H   0  0  0  0  0  0  0  0  0  0  0  0
    6.8968   -3.3631    0.0000 H   0  0  0  0  0  0  0  0  0  0  0  0
    7.2948   -2.5819    0.0000 H   0  0  0  0  0  0  0  0  0  0  0  0
   17.8873    3.6145    0.0000 H   0  0  0  0  0  0  0  0  0  0  0  0
   17.5699    4.4319    0.0000 H   0  0  0  0  0  0  0  0  0  0  0  0
   16.7526    4.1145    0.0000 H   0  0  0  0  0  0  0  0  0  0  0  0
    3.6578   -1.0778    0.0000 H   0  0  0  0  0  0  0  0  0  0  0  0
    5.3070   -3.3479    0.0000 H   0  0  0  0  0  0  0  0  0  0  0  0
    3.9964   -4.3001    0.0000 H   0  0  0  0  0  0  0  0  0  0  0  0
  1 33  1  0  0  0  0
  2 35  1  0  0  0  0
  3 21  1  0  0  0  0
  3 25  1  0  0  0  0
  4  6  1  0  0  0  0
  4 26  1  0  0  0  0
  5 10  1  0  0  0  0
  5 11  1  0  0  0  0
  5 16  1  0  0  0  0
  6 23  2  0  0  0  0
  7 25  1  0  0  0  0
  7 27  1  0  0  0  0
  7 28  1  0  0  0  0
  8  9  1  0  0  0  0
  8 25  2  0  0  0  0
  9 27  2  0  0  0  0
 10 12  1  0  0  0  0
 10 36  1  0  0  0  0
 10 37  1  0  0  0  0
 11 13  1  0  0  0  0
 11 38  1  0  0  0  0
 11 39  1  0  0  0  0
 12 14  1  0  0  0  0
 12 40  1  0  0  0  0
 12 41  1  0  0  0  0
 13 15  1  0  0  0  0
 13 42  1  0  0  0  0
 13 43  1  0  0  0  0
 14 15  2  0  0  0  0
 14 18  1  0  0  0  0
 15 19  1  0  0  0  0
 16 17  1  0  0  0  0
 16 44  1  0  0  0  0
 16 45  1  0  0  0  0
 17 21  1  0  0  0  0
 17 46  1  0  0  0  0
 17 47  1  0  0  0  0
 18 20  2  0  0  0  0
 18 48  1  0  0  0  0
 19 22  2  0  0  0  0
 19 49  1  0  0  0  0
 20 22  1  0  0  0  0
 20 23  1  0  0  0  0
 21 50  1  0  0  0  0
 21 51  1  0  0  0  0
 22 52  1  0  0  0  0
 23 24  1  0  0  0  0
 24 26  2  0  0  0  0
 24 53  1  0  0  0  0
 26 30  1  0  0  0  0
 27 29  1  0  0  0  0
 28 54  1  0  0  0  0
 28 55  1  0  0  0  0
 28 56  1  0  0  0  0
 29 31  2  0  0  0  0
 29 32  1  0  0  0  0
 30 57  1  0  0  0  0
 30 58  1  0  0  0  0
 30 59  1  0  0  0  0
 31 33  1  0  0  0  0
 31 60  1  0  0  0  0
 32 34  2  0  0  0  0
 32 61  1  0  0  0  0
 33 35  2  0  0  0  0
 34 35  1  0  0  0  0
 34 62  1  0  0  0  0
M  END
> <PUBCHEM_COMPOUND_CID>
23630501

> <PUBCHEM_COMPOUND_CANONICALIZED>
1

> <PUBCHEM_CACTVS_COMPLEXITY>
680

> <PUBCHEM_CACTVS_HBOND_ACCEPTOR>
6

> <PUBCHEM_CACTVS_HBOND_DONOR>
0

> <PUBCHEM_CACTVS_ROTATABLE_BOND>
7

> <PUBCHEM_CACTVS_SUBSKEYS>
AAADceB7oABGAAAAAAAAAAAAAAAAAWLAAAAwYAAABYAAAAAB9AAAHgYMAAAADA7F3ySzlJccEAirA6ZyZgCS0AtkJ7A92mE+btqILrqhm5OEMYhmiBqIyUeYyOCOxAACIAAQAASIAARAACAACAAAAAAAAA==

> <PUBCHEM_IUPAC_OPENEYE_NAME>
3-[3-[3-[[5-(3,4-dichlorophenyl)-4-methyl-1,2,4-triazol-3-yl]sulfanyl]propyl]-1,2,4,5-tetrahydro-3-benzazepin-7-yl]-5-methyl-isoxazole

> <PUBCHEM_IUPAC_CAS_NAME>
3-[3-[3-[[5-(3,4-dichlorophenyl)-4-methyl-1,2,4-triazol-3-yl]thio]propyl]-1,2,4,5-tetrahydro-3-benzazepin-7-yl]-5-methylisoxazole

> <PUBCHEM_IUPAC_NAME_MARKUP>
3-[3-[3-[[5-(3,4-dichlorophenyl)-4-methyl-1,2,4-triazol-3-yl]sulfanyl]propyl]-1,2,4,5-tetrahydro-3-benzazepin-7-yl]-5-methyl-1,2-oxazole

> <PUBCHEM_IUPAC_NAME>
3-[3-[3-[[5-(3,4-dichlorophenyl)-4-methyl-1,2,4-triazol-3-yl]sulfanyl]propyl]-1,2,4,5-tetrahydro-3-benzazepin-7-yl]-5-methyl-1,2-oxazole

> <PUBCHEM_IUPAC_SYSTEMATIC_NAME>
3-[3-[3-[[5-(3,4-dichlorophenyl)-4-methyl-1,2,4-triazol-3-yl]sulfanyl]propyl]-1,2,4,5-tetrahydro-3-benzazepin-7-yl]-5-methyl-1,2-oxazole

> <PUBCHEM_IUPAC_TRADITIONAL_NAME>
3-[3-[3-[[5-(3,4-dichlorophenyl)-4-methyl-1,2,4-triazol-3-yl]thio]propyl]-1,2,4,5-tetrahydro-3-benzazepin-7-yl]-5-methyl-isoxazole

> <PUBCHEM_IUPAC_INCHI>
InChI=1S/C26H27Cl2N5OS/c1-17-14-24(31-34-17)20-5-4-18-8-11-33(12-9-19(18)15-20)10-3-13-35-26-30-29-25(32(26)2)21-6-7-22(27)23(28)16-21/h4-7,14-16H,3,8-13H2,1-2H3

> <PUBCHEM_IUPAC_INCHIKEY>
VVGHIMUWASPVQJ-UHFFFAOYSA-N

> <PUBCHEM_XLOGP3_AA>
6.1

> <PUBCHEM_EXACT_MASS>
527.1313371

> <PUBCHEM_MOLECULAR_FORMULA>
C26H27Cl2N5OS

> <PUBCHEM_MOLECULAR_WEIGHT>
528.5

> <PUBCHEM_OPENEYE_CAN_SMILES>
CC1=CC(=NO1)C2=CC3=C(CCN(CC3)CCCSC4=NN=C(N4C)C5=CC(=C(C=C5)Cl)Cl)C=C2

> <PUBCHEM_OPENEYE_ISO_SMILES>
CC1=CC(=NO1)C2=CC3=C(CCN(CC3)CCCSC4=NN=C(N4C)C5=CC(=C(C=C5)Cl)Cl)C=C2

> <PUBCHEM_CACTVS_TPSA>
85.3

> <PUBCHEM_MONOISOTOPIC_WEIGHT>
527.1313371

> <PUBCHEM_TOTAL_CHARGE>
0

> <PUBCHEM_HEAVY_ATOM_COUNT>
35

> <PUBCHEM_ATOM_DEF_STEREO_COUNT>
0

> <PUBCHEM_ATOM_UDEF_STEREO_COUNT>
0

> <PUBCHEM_BOND_DEF_STEREO_COUNT>
0

> <PUBCHEM_BOND_UDEF_STEREO_COUNT>
0

> <PUBCHEM_ISOTOPIC_ATOM_COUNT>
0

> <PUBCHEM_COMPONENT_COUNT>
1

> <PUBCHEM_CACTVS_TAUTO_COUNT>
-1

> <PUBCHEM_COORDINATE_TYPE>
1
5
255

> <PUBCHEM_BONDANNOTATIONS>
14  15  8
14  18  8
15  19  8
18  20  8
19  22  8
20  22  8
23  24  8
24  26  8
29  31  8
29  32  8
31  33  8
32  34  8
33  35  8
34  35  8
4  26  8
4  6  8
6  23  8
7  25  8
7  27  8
8  25  8
8  9  8
9  27  8

$$$$
