44447059
  -OEChem-09292322262D

 61 66  0     1  0  0  0  0  0999 V2000
    3.7899    1.9329    0.0000 S   0  0  0  0  0  0  0  0  0  0  0  0
   14.6962   -0.5478    0.0000 O   0  0  0  0  0  0  0  0  0  0  0  0
   13.7527    1.9570    0.0000 O   0  0  0  0  0  0  0  0  0  0  0  0
    7.4629   -0.7650    0.0000 N   0  0  0  0  0  0  0  0  0  0  0  0
    5.7308    0.2350    0.0000 N   0  0  0  0  0  0  0  0  0  0  0  0
   13.0499   -0.0098    0.0000 N   0  0  0  0  0  0  0  0  0  0  0  0
    4.7617    1.7237    0.0000 N   0  0  0  0  0  0  0  0  0  0  0  0
   14.3419    2.7650    0.0000 N   0  0  0  0  0  0  0  0  0  0  0  0
   12.7392   -0.9603    0.0000 C   0  0  3  0  0  0  0  0  0  0  0  0
   11.7930   -1.2650    0.0000 C   0  0  0  0  0  0  0  0  0  0  0  0
   13.3228   -1.7650    0.0000 C   0  0  0  0  0  0  0  0  0  0  0  0
   12.7392   -2.5697    0.0000 C   0  0  0  0  0  0  0  0  0  0  0  0
   11.7930   -2.2650    0.0000 C   0  0  0  0  0  0  0  0  0  0  0  0
    7.4629    0.2350    0.0000 C   0  0  0  0  0  0  0  0  0  0  0  0
    6.5968   -1.2650    0.0000 C   0  0  0  0  0  0  0  0  0  0  0  0
    8.3289   -1.2650    0.0000 C   0  0  0  0  0  0  0  0  0  0  0  0
    6.5968    0.7350    0.0000 C   0  0  0  0  0  0  0  0  0  0  0  0
    5.7308   -0.7650    0.0000 C   0  0  0  0  0  0  0  0  0  0  0  0
    9.1949   -0.7650    0.0000 C   0  0  0  0  0  0  0  0  0  0  0  0
   10.0610   -1.2650    0.0000 C   0  0  0  0  0  0  0  0  0  0  0  0
   10.9270   -0.7650    0.0000 C   0  0  0  0  0  0  0  0  0  0  0  0
   10.9270   -2.7650    0.0000 C   0  0  0  0  0  0  0  0  0  0  0  0
   10.0610   -2.2650    0.0000 C   0  0  0  0  0  0  0  0  0  0  0  0
    4.8648    0.7350    0.0000 C   0  0  0  0  0  0  0  0  0  0  0  0
    3.9570    0.3299    0.0000 C   0  0  0  0  0  0  0  0  0  0  0  0
   14.0284    0.1965    0.0000 C   0  0  0  0  0  0  0  0  0  0  0  0
    3.2892    1.0742    0.0000 C   0  0  0  0  0  0  0  0  0  0  0  0
    3.6464   -0.6206    0.0000 C   0  0  0  0  0  0  0  0  0  0  0  0
   14.3391    1.1470    0.0000 C   0  0  0  0  0  0  0  0  0  0  0  0
    2.3107    0.8680    0.0000 C   0  0  0  0  0  0  0  0  0  0  0  0
    2.6678   -0.8269    0.0000 C   0  0  0  0  0  0  0  0  0  0  0  0
    2.0000   -0.0826    0.0000 C   0  0  0  0  0  0  0  0  0  0  0  0
   15.2906    1.4544    0.0000 C   0  0  0  0  0  0  0  0  0  0  0  0
   15.2924    2.4543    0.0000 C   0  0  0  0  0  0  0  0  0  0  0  0
   13.3517   -0.8641    0.0000 H   0  0  0  0  0  0  0  0  0  0  0  0
   13.7837   -2.1797    0.0000 H   0  0  0  0  0  0  0  0  0  0  0  0
   13.7837   -1.3503    0.0000 H   0  0  0  0  0  0  0  0  0  0  0  0
   12.4882   -3.1366    0.0000 H   0  0  0  0  0  0  0  0  0  0  0  0
   13.2766   -2.8790    0.0000 H   0  0  0  0  0  0  0  0  0  0  0  0
    8.0734    0.1273    0.0000 H   0  0  0  0  0  0  0  0  0  0  0  0
    7.6749    0.8176    0.0000 H   0  0  0  0  0  0  0  0  0  0  0  0
    6.1983   -1.7400    0.0000 H   0  0  0  0  0  0  0  0  0  0  0  0
    6.9954   -1.7400    0.0000 H   0  0  0  0  0  0  0  0  0  0  0  0
    7.9304   -1.7400    0.0000 H   0  0  0  0  0  0  0  0  0  0  0  0
    8.7274   -1.7400    0.0000 H   0  0  0  0  0  0  0  0  0  0  0  0
    6.9954    1.2099    0.0000 H   0  0  0  0  0  0  0  0  0  0  0  0
    6.1983    1.2099    0.0000 H   0  0  0  0  0  0  0  0  0  0  0  0
    5.1202   -0.6574    0.0000 H   0  0  0  0  0  0  0  0  0  0  0  0
    5.5188   -1.3476    0.0000 H   0  0  0  0  0  0  0  0  0  0  0  0
    9.5934   -0.2901    0.0000 H   0  0  0  0  0  0  0  0  0  0  0  0
    8.7964   -0.2901    0.0000 H   0  0  0  0  0  0  0  0  0  0  0  0
   10.9270   -0.1450    0.0000 H   0  0  0  0  0  0  0  0  0  0  0  0
   10.9270   -3.3850    0.0000 H   0  0  0  0  0  0  0  0  0  0  0  0
    9.5240   -2.5750    0.0000 H   0  0  0  0  0  0  0  0  0  0  0  0
   12.6358    0.4517    0.0000 H   0  0  0  0  0  0  0  0  0  0  0  0
    4.0604   -1.0821    0.0000 H   0  0  0  0  0  0  0  0  0  0  0  0
    1.8966    1.3294    0.0000 H   0  0  0  0  0  0  0  0  0  0  0  0
    2.4752   -1.4162    0.0000 H   0  0  0  0  0  0  0  0  0  0  0  0
    1.3933   -0.2104    0.0000 H   0  0  0  0  0  0  0  0  0  0  0  0
   15.7916    1.0891    0.0000 H   0  0  0  0  0  0  0  0  0  0  0  0
   15.7946    2.8179    0.0000 H   0  0  0  0  0  0  0  0  0  0  0  0
  1  7  1  0  0  0  0
  1 27  1  0  0  0  0
  2 26  2  0  0  0  0
  3  8  1  0  0  0  0
  3 29  1  0  0  0  0
  4 14  1  0  0  0  0
  4 15  1  0  0  0  0
  4 16  1  0  0  0  0
  5 17  1  0  0  0  0
  5 18  1  0  0  0  0
  5 24  1  0  0  0  0
  6  9  1  0  0  0  0
  6 26  1  0  0  0  0
  6 55  1  0  0  0  0
  7 24  2  0  0  0  0
  8 34  2  0  0  0  0
  9 10  1  0  0  0  0
  9 11  1  0  0  0  0
  9 35  1  0  0  0  0
 10 13  2  0  0  0  0
 10 21  1  0  0  0  0
 11 12  1  0  0  0  0
 11 36  1  0  0  0  0
 11 37  1  0  0  0  0
 12 13  1  0  0  0  0
 12 38  1  0  0  0  0
 12 39  1  0  0  0  0
 13 22  1  0  0  0  0
 14 17  1  0  0  0  0
 14 40  1  0  0  0  0
 14 41  1  0  0  0  0
 15 18  1  0  0  0  0
 15 42  1  0  0  0  0
 15 43  1  0  0  0  0
 16 19  1  0  0  0  0
 16 44  1  0  0  0  0
 16 45  1  0  0  0  0
 17 46  1  0  0  0  0
 17 47  1  0  0  0  0
 18 48  1  0  0  0  0
 18 49  1  0  0  0  0
 19 20  1  0  0  0  0
 19 50  1  0  0  0  0
 19 51  1  0  0  0  0
 20 21  2  0  0  0  0
 20 23  1  0  0  0  0
 21 52  1  0  0  0  0
 22 23  2  0  0  0  0
 22 53  1  0  0  0  0
 23 54  1  0  0  0  0
 24 25  1  0  0  0  0
 25 27  1  0  0  0  0
 25 28  2  0  0  0  0
 26 29  1  0  0  0  0
 27 30  2  0  0  0  0
 28 31  1  0  0  0  0
 28 56  1  0  0  0  0
 29 33  2  0  0  0  0
 30 32  1  0  0  0  0
 30 57  1  0  0  0  0
 31 32  2  0  0  0  0
 31 58  1  0  0  0  0
 32 59  1  0  0  0  0
 33 34  1  0  0  0  0
 33 60  1  0  0  0  0
 34 61  1  0  0  0  0
M  END
> <PUBCHEM_COMPOUND_CID>
44447059

> <PUBCHEM_COMPOUND_CANONICALIZED>
1

> <PUBCHEM_CACTVS_COMPLEXITY>
705

> <PUBCHEM_CACTVS_HBOND_ACCEPTOR>
7

> <PUBCHEM_CACTVS_HBOND_DONOR>
1

> <PUBCHEM_CACTVS_ROTATABLE_BOND>
6

> <PUBCHEM_CACTVS_SUBSKEYS>
AAADceB7sABAAAAAAAAAAAAAAAAAAeLEAAA8YIAAAAAAAHgB/AAAHgQUQAAADCzB2gQ9tdPQAACtArN3cgKDABAlIgBpmLn+bNqKZLrAnbGUIYxilgrYyccUgMAOwAACAAAUAACAAAQAACgAACAACQAAAA==

> <PUBCHEM_IUPAC_OPENEYE_NAME>
N-[6-[2-[4-(1,2-benzothiazol-3-yl)piperazin-1-yl]ethyl]indan-1-yl]isoxazole-5-carboxamide

> <PUBCHEM_IUPAC_CAS_NAME>
N-[6-[2-[4-(1,2-benzothiazol-3-yl)-1-piperazinyl]ethyl]-2,3-dihydro-1H-inden-1-yl]-5-isoxazolecarboxamide

> <PUBCHEM_IUPAC_NAME_MARKUP>
<I>N</I>-[6-[2-[4-(1,2-benzothiazol-3-yl)piperazin-1-yl]ethyl]-2,3-dihydro-1<I>H</I>-inden-1-yl]-1,2-oxazole-5-carboxamide

> <PUBCHEM_IUPAC_NAME>
N-[6-[2-[4-(1,2-benzothiazol-3-yl)piperazin-1-yl]ethyl]-2,3-dihydro-1H-inden-1-yl]-1,2-oxazole-5-carboxamide

> <PUBCHEM_IUPAC_SYSTEMATIC_NAME>
N-[6-[2-[4-(1,2-benzothiazol-3-yl)piperazin-1-yl]ethyl]-2,3-dihydro-1H-inden-1-yl]-1,2-oxazole-5-carboxamide

> <PUBCHEM_IUPAC_TRADITIONAL_NAME>
N-[6-[2-[4-(1,2-benzothiazol-3-yl)piperazino]ethyl]indan-1-yl]isoxazole-5-carboxamide

> <PUBCHEM_IUPAC_INCHI>
InChI=1S/C26H27N5O2S/c32-26(23-9-11-27-33-23)28-22-8-7-19-6-5-18(17-21(19)22)10-12-30-13-15-31(16-14-30)25-20-3-1-2-4-24(20)34-29-25/h1-6,9,11,17,22H,7-8,10,12-16H2,(H,28,32)

> <PUBCHEM_IUPAC_INCHIKEY>
LHFRREYTABIJEO-UHFFFAOYSA-N

> <PUBCHEM_XLOGP3_AA>
4.5

> <PUBCHEM_EXACT_MASS>
473.18854629

> <PUBCHEM_MOLECULAR_FORMULA>
C26H27N5O2S

> <PUBCHEM_MOLECULAR_WEIGHT>
473.6

> <PUBCHEM_OPENEYE_CAN_SMILES>
C1CC2=C(C1NC(=O)C3=CC=NO3)C=C(C=C2)CCN4CCN(CC4)C5=NSC6=CC=CC=C65

> <PUBCHEM_OPENEYE_ISO_SMILES>
C1CC2=C(C1NC(=O)C3=CC=NO3)C=C(C=C2)CCN4CCN(CC4)C5=NSC6=CC=CC=C65

> <PUBCHEM_CACTVS_TPSA>
103

> <PUBCHEM_MONOISOTOPIC_WEIGHT>
473.18854629

> <PUBCHEM_TOTAL_CHARGE>
0

> <PUBCHEM_HEAVY_ATOM_COUNT>
34

> <PUBCHEM_ATOM_DEF_STEREO_COUNT>
0

> <PUBCHEM_ATOM_UDEF_STEREO_COUNT>
1

> <PUBCHEM_BOND_DEF_STEREO_COUNT>
0

> <PUBCHEM_BOND_UDEF_STEREO_COUNT>
0

> <PUBCHEM_ISOTOPIC_ATOM_COUNT>
0

> <PUBCHEM_COMPONENT_COUNT>
1

> <PUBCHEM_CACTVS_TAUTO_COUNT>
-1

> <PUBCHEM_COORDINATE_TYPE>
1
5
255

> <PUBCHEM_BONDANNOTATIONS>
1  27  8
1  7  8
10  13  8
10  21  8
13  22  8
20  21  8
20  23  8
22  23  8
24  25  8
25  27  8
25  28  8
27  30  8
28  31  8
29  33  8
3  29  8
3  8  8
30  32  8
31  32  8
33  34  8
9  6  3
7  24  8
8  34  8

$$$$
