21509921
  -OEChem-09292322342D

 42 46  0     1  0  0  0  0  0999 V2000
    4.7821    0.8375    0.0000 N   0  0  0  0  0  0  0  0  0  0  0  0
    3.9654   -2.0884    0.0000 N   0  0  3  0  0  0  0  0  0  0  0  0
    4.6461   -0.1472    0.0000 C   0  0  0  0  0  0  0  0  0  0  0  0
    3.6678   -0.3238    0.0000 C   0  0  0  0  0  0  0  0  0  0  0  0
    3.8811    1.2714    0.0000 C   0  0  0  0  0  0  0  0  0  0  0  0
    3.1960    0.5511    0.0000 C   0  0  0  0  0  0  0  0  0  0  0  0
    5.3270   -0.9273    0.0000 C   0  0  0  0  0  0  0  0  0  0  0  0
    3.3027   -1.2928    0.0000 C   0  0  0  0  0  0  0  0  0  0  0  0
    4.9844   -1.9044    0.0000 C   0  0  0  0  0  0  0  0  0  0  0  0
    3.6586    2.2464    0.0000 C   0  0  0  0  0  0  0  0  0  0  0  0
    5.6830    1.2714    0.0000 C   0  0  0  0  0  0  0  0  0  0  0  0
    4.2821    3.0282    0.0000 C   0  0  0  0  0  0  0  0  0  0  0  0
    5.2821    3.0282    0.0000 C   0  0  0  0  0  0  0  0  0  0  0  0
    5.9056    2.2464    0.0000 C   0  0  0  0  0  0  0  0  0  0  0  0
    2.2459    0.8293    0.0000 C   0  0  0  0  0  0  0  0  0  0  0  0
    2.6989    2.4893    0.0000 C   0  0  0  0  0  0  0  0  0  0  0  0
    3.6237   -3.0282    0.0000 C   0  0  0  0  0  0  0  0  0  0  0  0
    2.0000    1.7882    0.0000 C   0  0  0  0  0  0  0  0  0  0  0  0
    6.4356    0.5512    0.0000 C   0  0  0  0  0  0  0  0  0  0  0  0
    6.8961    2.5687    0.0000 C   0  0  0  0  0  0  0  0  0  0  0  0
    7.4333    0.8506    0.0000 C   0  0  0  0  0  0  0  0  0  0  0  0
    7.6651    1.8661    0.0000 C   0  0  0  0  0  0  0  0  0  0  0  0
    5.8684   -1.2295    0.0000 H   0  0  0  0  0  0  0  0  0  0  0  0
    5.7175   -0.4456    0.0000 H   0  0  0  0  0  0  0  0  0  0  0  0
    2.7685   -0.9781    0.0000 H   0  0  0  0  0  0  0  0  0  0  0  0
    2.9013   -1.7653    0.0000 H   0  0  0  0  0  0  0  0  0  0  0  0
    4.9886   -2.5244    0.0000 H   0  0  0  0  0  0  0  0  0  0  0  0
    5.5960   -2.0064    0.0000 H   0  0  0  0  0  0  0  0  0  0  0  0
    4.4200    3.6326    0.0000 H   0  0  0  0  0  0  0  0  0  0  0  0
    3.7235    3.2972    0.0000 H   0  0  0  0  0  0  0  0  0  0  0  0
    5.8407    3.2972    0.0000 H   0  0  0  0  0  0  0  0  0  0  0  0
    5.1441    3.6326    0.0000 H   0  0  0  0  0  0  0  0  0  0  0  0
    1.8002    0.3983    0.0000 H   0  0  0  0  0  0  0  0  0  0  0  0
    2.5338    3.0869    0.0000 H   0  0  0  0  0  0  0  0  0  0  0  0
    3.0410   -2.8163    0.0000 H   0  0  0  0  0  0  0  0  0  0  0  0
    3.4118   -3.6108    0.0000 H   0  0  0  0  0  0  0  0  0  0  0  0
    4.2063   -3.2401    0.0000 H   0  0  0  0  0  0  0  0  0  0  0  0
    1.4019    1.9514    0.0000 H   0  0  0  0  0  0  0  0  0  0  0  0
    6.2907   -0.0516    0.0000 H   0  0  0  0  0  0  0  0  0  0  0  0
    7.0270    3.1747    0.0000 H   0  0  0  0  0  0  0  0  0  0  0  0
    7.8862    0.4271    0.0000 H   0  0  0  0  0  0  0  0  0  0  0  0
    8.2568    2.0511    0.0000 H   0  0  0  0  0  0  0  0  0  0  0  0
  1  3  1  0  0  0  0
  1  5  1  0  0  0  0
  1 11  1  0  0  0  0
  2  8  1  0  0  0  0
  2  9  1  0  0  0  0
  2 17  1  0  0  0  0
  3  4  2  0  0  0  0
  3  7  1  0  0  0  0
  4  6  1  0  0  0  0
  4  8  1  0  0  0  0
  5  6  1  0  0  0  0
  5 10  2  0  0  0  0
  6 15  2  0  0  0  0
  7  9  1  0  0  0  0
  7 23  1  0  0  0  0
  7 24  1  0  0  0  0
  8 25  1  0  0  0  0
  8 26  1  0  0  0  0
  9 27  1  0  0  0  0
  9 28  1  0  0  0  0
 10 12  1  0  0  0  0
 10 16  1  0  0  0  0
 11 14  1  0  0  0  0
 11 19  2  0  0  0  0
 12 13  1  0  0  0  0
 12 29  1  0  0  0  0
 12 30  1  0  0  0  0
 13 14  1  0  0  0  0
 13 31  1  0  0  0  0
 13 32  1  0  0  0  0
 14 20  2  0  0  0  0
 15 18  1  0  0  0  0
 15 33  1  0  0  0  0
 16 18  2  0  0  0  0
 16 34  1  0  0  0  0
 17 35  1  0  0  0  0
 17 36  1  0  0  0  0
 17 37  1  0  0  0  0
 18 38  1  0  0  0  0
 19 21  1  0  0  0  0
 19 39  1  0  0  0  0
 20 22  1  0  0  0  0
 20 40  1  0  0  0  0
 21 22  2  0  0  0  0
 21 41  1  0  0  0  0
 22 42  1  0  0  0  0
M  END
> <PUBCHEM_COMPOUND_CID>
21509921

> <PUBCHEM_COMPOUND_CANONICALIZED>
1

> <PUBCHEM_CACTVS_COMPLEXITY>
422

> <PUBCHEM_CACTVS_HBOND_ACCEPTOR>
1

> <PUBCHEM_CACTVS_HBOND_DONOR>
0

> <PUBCHEM_CACTVS_ROTATABLE_BOND>
0

> <PUBCHEM_CACTVS_SUBSKEYS>
AAADceB7AAAAAAAAAAAAAAAAAAAAAWAAAAA8YIAABYAAAFix9AAAHAAAAAAADAjBHgQywPMMEACgAyRiRACCgCAhAiAImCA4ZJgIIOLA0ZGEIAhggADIyAcQgMAOgAACAAACAAAAAAQAAAQAAAAAAAAAAA==

> <PUBCHEM_IUPAC_OPENEYE_NAME>
5-methyl-1,5-diazapentacyclo[10.8.1.02,7.08,21.015,20]henicosa-2(7),8,10,12(21),15,17,19-heptaene

> <PUBCHEM_IUPAC_CAS_NAME>
5-methyl-1,5-diazapentacyclo[10.8.1.02,7.08,21.015,20]heneicosa-2(7),8,10,12(21),15,17,19-heptaene

> <PUBCHEM_IUPAC_NAME_MARKUP>
5-methyl-1,5-diazapentacyclo[10.8.1.0<SUP>2,7</SUP>.0<SUP>8,21</SUP>.0<SUP>15,20</SUP>]henicosa-2(7),8,10,12(21),15,17,19-heptaene

> <PUBCHEM_IUPAC_NAME>
5-methyl-1,5-diazapentacyclo[10.8.1.02,7.08,21.015,20]henicosa-2(7),8,10,12(21),15,17,19-heptaene

> <PUBCHEM_IUPAC_SYSTEMATIC_NAME>
5-methyl-1,5-diazapentacyclo[10.8.1.02,7.08,21.015,20]henicosa-2(7),8,10,12(21),15,17,19-heptaene

> <PUBCHEM_IUPAC_TRADITIONAL_NAME>
5-methyl-1,5-diazapentacyclo[10.8.1.02,7.08,21.015,20]heneicosa-2(7),8,10,12(21),15,17,19-heptaene

> <PUBCHEM_IUPAC_INCHI>
InChI=1S/C20H20N2/c1-21-12-11-19-17(13-21)16-7-4-6-15-10-9-14-5-2-3-8-18(14)22(19)20(15)16/h2-8H,9-13H2,1H3

> <PUBCHEM_IUPAC_INCHIKEY>
DVSMVUMYJDOPJQ-UHFFFAOYSA-N

> <PUBCHEM_XLOGP3_AA>
3.9

> <PUBCHEM_EXACT_MASS>
288.162648646

> <PUBCHEM_MOLECULAR_FORMULA>
C20H20N2

> <PUBCHEM_MOLECULAR_WEIGHT>
288.4

> <PUBCHEM_OPENEYE_CAN_SMILES>
CN1CCC2=C(C1)C3=CC=CC4=C3N2C5=CC=CC=C5CC4

> <PUBCHEM_OPENEYE_ISO_SMILES>
CN1CCC2=C(C1)C3=CC=CC4=C3N2C5=CC=CC=C5CC4

> <PUBCHEM_CACTVS_TPSA>
8.2

> <PUBCHEM_MONOISOTOPIC_WEIGHT>
288.162648646

> <PUBCHEM_TOTAL_CHARGE>
0

> <PUBCHEM_HEAVY_ATOM_COUNT>
22

> <PUBCHEM_ATOM_DEF_STEREO_COUNT>
0

> <PUBCHEM_ATOM_UDEF_STEREO_COUNT>
0

> <PUBCHEM_BOND_DEF_STEREO_COUNT>
0

> <PUBCHEM_BOND_UDEF_STEREO_COUNT>
0

> <PUBCHEM_ISOTOPIC_ATOM_COUNT>
0

> <PUBCHEM_COMPONENT_COUNT>
1

> <PUBCHEM_CACTVS_TAUTO_COUNT>
-1

> <PUBCHEM_COORDINATE_TYPE>
1
5
255

> <PUBCHEM_BONDANNOTATIONS>
1  3  8
1  5  8
10  16  8
11  14  8
11  19  8
14  20  8
15  18  8
16  18  8
19  21  8
20  22  8
21  22  8
3  4  8
4  6  8
5  10  8
5  6  8
6  15  8

$$$$
