44436598
  -OEChem-09292322252D

 48 50  0     0  0  0  0  0  0999 V2000
    2.0000   -3.9050    0.0000 Cl  0  0  0  0  0  0  0  0  0  0  0  0
    2.0000   -5.9050    0.0000 Cl  0  0  0  0  0  0  0  0  0  0  0  0
    6.3301    1.5950    0.0000 O   0  0  0  0  0  0  0  0  0  0  0  0
    3.7320   -0.9050    0.0000 N   0  0  0  0  0  0  0  0  0  0  0  0
    3.7320   -2.9050    0.0000 N   0  0  0  0  0  0  0  0  0  0  0  0
    4.5981    1.5950    0.0000 N   0  0  0  0  0  0  0  0  0  0  0  0
    4.5981   -1.4050    0.0000 C   0  0  0  0  0  0  0  0  0  0  0  0
    2.8660   -1.4050    0.0000 C   0  0  0  0  0  0  0  0  0  0  0  0
    4.5981   -2.4050    0.0000 C   0  0  0  0  0  0  0  0  0  0  0  0
    2.8660   -2.4050    0.0000 C   0  0  0  0  0  0  0  0  0  0  0  0
    3.7320    0.0950    0.0000 C   0  0  0  0  0  0  0  0  0  0  0  0
    3.7320   -3.9050    0.0000 C   0  0  0  0  0  0  0  0  0  0  0  0
    4.5981    0.5950    0.0000 C   0  0  0  0  0  0  0  0  0  0  0  0
    2.8660   -4.4050    0.0000 C   0  0  0  0  0  0  0  0  0  0  0  0
    4.5981   -4.4050    0.0000 C   0  0  0  0  0  0  0  0  0  0  0  0
    2.8660   -5.4050    0.0000 C   0  0  0  0  0  0  0  0  0  0  0  0
    4.5981   -5.4050    0.0000 C   0  0  0  0  0  0  0  0  0  0  0  0
    5.4641    2.0950    0.0000 C   0  0  0  0  0  0  0  0  0  0  0  0
    3.7320   -5.9050    0.0000 C   0  0  0  0  0  0  0  0  0  0  0  0
    5.4641    3.0950    0.0000 C   0  0  0  0  0  0  0  0  0  0  0  0
    6.3301    3.5950    0.0000 C   0  0  0  0  0  0  0  0  0  0  0  0
    4.5981    3.5950    0.0000 C   0  0  0  0  0  0  0  0  0  0  0  0
    6.3301    4.5950    0.0000 C   0  0  0  0  0  0  0  0  0  0  0  0
    4.5981    4.5950    0.0000 C   0  0  0  0  0  0  0  0  0  0  0  0
    5.4641    5.0950    0.0000 C   0  0  0  0  0  0  0  0  0  0  0  0
    7.1962    5.0950    0.0000 C   0  0  0  0  0  0  0  0  0  0  0  0
    8.0622    5.5950    0.0000 C   0  0  0  0  0  0  0  0  0  0  0  0
    5.2087   -1.5127    0.0000 H   0  0  0  0  0  0  0  0  0  0  0  0
    4.8101   -0.8224    0.0000 H   0  0  0  0  0  0  0  0  0  0  0  0
    2.6540   -0.8224    0.0000 H   0  0  0  0  0  0  0  0  0  0  0  0
    2.2554   -1.5127    0.0000 H   0  0  0  0  0  0  0  0  0  0  0  0
    4.8101   -2.9876    0.0000 H   0  0  0  0  0  0  0  0  0  0  0  0
    5.2087   -2.2973    0.0000 H   0  0  0  0  0  0  0  0  0  0  0  0
    2.2554   -2.2973    0.0000 H   0  0  0  0  0  0  0  0  0  0  0  0
    2.6540   -2.9876    0.0000 H   0  0  0  0  0  0  0  0  0  0  0  0
    3.5200    0.6776    0.0000 H   0  0  0  0  0  0  0  0  0  0  0  0
    3.1215   -0.0127    0.0000 H   0  0  0  0  0  0  0  0  0  0  0  0
    4.8101    0.0124    0.0000 H   0  0  0  0  0  0  0  0  0  0  0  0
    5.2087    0.7027    0.0000 H   0  0  0  0  0  0  0  0  0  0  0  0
    5.1350   -4.0950    0.0000 H   0  0  0  0  0  0  0  0  0  0  0  0
    4.0611    1.9050    0.0000 H   0  0  0  0  0  0  0  0  0  0  0  0
    5.1350   -5.7150    0.0000 H   0  0  0  0  0  0  0  0  0  0  0  0
    3.7320   -6.5250    0.0000 H   0  0  0  0  0  0  0  0  0  0  0  0
    6.8671    3.2850    0.0000 H   0  0  0  0  0  0  0  0  0  0  0  0
    4.0611    3.2850    0.0000 H   0  0  0  0  0  0  0  0  0  0  0  0
    4.0611    4.9050    0.0000 H   0  0  0  0  0  0  0  0  0  0  0  0
    5.4641    5.7150    0.0000 H   0  0  0  0  0  0  0  0  0  0  0  0
    8.5991    5.9050    0.0000 H   0  0  0  0  0  0  0  0  0  0  0  0
  1 14  1  0  0  0  0
  2 16  1  0  0  0  0
  3 18  2  0  0  0  0
  4  7  1  0  0  0  0
  4  8  1  0  0  0  0
  4 11  1  0  0  0  0
  5  9  1  0  0  0  0
  5 10  1  0  0  0  0
  5 12  1  0  0  0  0
  6 13  1  0  0  0  0
  6 18  1  0  0  0  0
  6 41  1  0  0  0  0
  7  9  1  0  0  0  0
  7 28  1  0  0  0  0
  7 29  1  0  0  0  0
  8 10  1  0  0  0  0
  8 30  1  0  0  0  0
  8 31  1  0  0  0  0
  9 32  1  0  0  0  0
  9 33  1  0  0  0  0
 10 34  1  0  0  0  0
 10 35  1  0  0  0  0
 11 13  1  0  0  0  0
 11 36  1  0  0  0  0
 11 37  1  0  0  0  0
 12 14  2  0  0  0  0
 12 15  1  0  0  0  0
 13 38  1  0  0  0  0
 13 39  1  0  0  0  0
 14 16  1  0  0  0  0
 15 17  2  0  0  0  0
 15 40  1  0  0  0  0
 16 19  2  0  0  0  0
 17 19  1  0  0  0  0
 17 42  1  0  0  0  0
 18 20  1  0  0  0  0
 19 43  1  0  0  0  0
 20 21  1  0  0  0  0
 20 22  2  0  0  0  0
 21 23  2  0  0  0  0
 21 44  1  0  0  0  0
 22 24  1  0  0  0  0
 22 45  1  0  0  0  0
 23 25  1  0  0  0  0
 23 26  1  0  0  0  0
 24 25  2  0  0  0  0
 24 46  1  0  0  0  0
 25 47  1  0  0  0  0
 26 27  3  0  0  0  0
 27 48  1  0  0  0  0
M  END
> <PUBCHEM_COMPOUND_CID>
44436598

> <PUBCHEM_COMPOUND_CANONICALIZED>
1

> <PUBCHEM_CACTVS_COMPLEXITY>
541

> <PUBCHEM_CACTVS_HBOND_ACCEPTOR>
3

> <PUBCHEM_CACTVS_HBOND_DONOR>
1

> <PUBCHEM_CACTVS_ROTATABLE_BOND>
6

> <PUBCHEM_CACTVS_SUBSKEYS>
AAADceB7IAAGAAAAAAAAAAAAAAAAAAAAAAA8YIAAAAAAAAABQAAAHgIQAAAADArBmCQwwIPAAADIGiVSUAiCAAAlBwAIisEIZsgIYDLBl5HUIQhglgDIyYcYiECOAAACAAIAABQAAAQABAAAKAAAAAAAAA==

> <PUBCHEM_IUPAC_OPENEYE_NAME>
N-[2-[4-(2,3-dichlorophenyl)piperazin-1-yl]ethyl]-3-ethynyl-benzamide

> <PUBCHEM_IUPAC_CAS_NAME>
N-[2-[4-(2,3-dichlorophenyl)-1-piperazinyl]ethyl]-3-ethynylbenzamide

> <PUBCHEM_IUPAC_NAME_MARKUP>
<I>N</I>-[2-[4-(2,3-dichlorophenyl)piperazin-1-yl]ethyl]-3-ethynylbenzamide

> <PUBCHEM_IUPAC_NAME>
N-[2-[4-(2,3-dichlorophenyl)piperazin-1-yl]ethyl]-3-ethynylbenzamide

> <PUBCHEM_IUPAC_SYSTEMATIC_NAME>
N-[2-[4-[2,3-bis(chloranyl)phenyl]piperazin-1-yl]ethyl]-3-ethynyl-benzamide

> <PUBCHEM_IUPAC_TRADITIONAL_NAME>
N-[2-[4-(2,3-dichlorophenyl)piperazino]ethyl]-3-ethynyl-benzamide

> <PUBCHEM_IUPAC_INCHI>
InChI=1S/C21H21Cl2N3O/c1-2-16-5-3-6-17(15-16)21(27)24-9-10-25-11-13-26(14-12-25)19-8-4-7-18(22)20(19)23/h1,3-8,15H,9-14H2,(H,24,27)

> <PUBCHEM_IUPAC_INCHIKEY>
ZXMMZWMGSDPKNA-UHFFFAOYSA-N

> <PUBCHEM_XLOGP3_AA>
4.3

> <PUBCHEM_EXACT_MASS>
401.1061677

> <PUBCHEM_MOLECULAR_FORMULA>
C21H21Cl2N3O

> <PUBCHEM_MOLECULAR_WEIGHT>
402.3

> <PUBCHEM_OPENEYE_CAN_SMILES>
C#CC1=CC(=CC=C1)C(=O)NCCN2CCN(CC2)C3=C(C(=CC=C3)Cl)Cl

> <PUBCHEM_OPENEYE_ISO_SMILES>
C#CC1=CC(=CC=C1)C(=O)NCCN2CCN(CC2)C3=C(C(=CC=C3)Cl)Cl

> <PUBCHEM_CACTVS_TPSA>
35.6

> <PUBCHEM_MONOISOTOPIC_WEIGHT>
401.1061677

> <PUBCHEM_TOTAL_CHARGE>
0

> <PUBCHEM_HEAVY_ATOM_COUNT>
27

> <PUBCHEM_ATOM_DEF_STEREO_COUNT>
0

> <PUBCHEM_ATOM_UDEF_STEREO_COUNT>
0

> <PUBCHEM_BOND_DEF_STEREO_COUNT>
0

> <PUBCHEM_BOND_UDEF_STEREO_COUNT>
0

> <PUBCHEM_ISOTOPIC_ATOM_COUNT>
0

> <PUBCHEM_COMPONENT_COUNT>
1

> <PUBCHEM_CACTVS_TAUTO_COUNT>
-1

> <PUBCHEM_COORDINATE_TYPE>
1
5
255

> <PUBCHEM_BONDANNOTATIONS>
12  14  8
12  15  8
14  16  8
15  17  8
16  19  8
17  19  8
20  21  8
20  22  8
21  23  8
22  24  8
23  25  8
24  25  8

$$$$
