53327262
  -OEChem-09292322352D

 54 59  0     1  0  0  0  0  0999 V2000
    7.2121   -0.9386    0.0000 N   0  0  3  0  0  0  0  0  0  0  0  0
    7.1961    1.1307    0.0000 N   0  0  3  0  0  0  0  0  0  0  0  0
    9.0822   -3.5872    0.0000 N   0  0  0  0  0  0  0  0  0  0  0  0
    8.0781   -0.4386    0.0000 C   0  0  3  0  0  0  0  0  0  0  0  0
    8.0942    0.6029    0.0000 C   0  0  0  0  0  0  0  0  0  0  0  0
    8.9441   -0.9386    0.0000 C   0  0  0  0  0  0  0  0  0  0  0  0
    6.3021   -0.4317    0.0000 C   0  0  0  0  0  0  0  0  0  0  0  0
    6.2940    0.6099    0.0000 C   0  0  0  0  0  0  0  0  0  0  0  0
    7.2121   -1.9386    0.0000 C   0  0  0  0  0  0  0  0  0  0  0  0
    8.9441   -1.9386    0.0000 C   0  0  0  0  0  0  0  0  0  0  0  0
    8.0781   -2.4386    0.0000 C   0  0  0  0  0  0  0  0  0  0  0  0
    7.2000    2.1307    0.0000 C   0  0  0  0  0  0  0  0  0  0  0  0
    8.0942   -3.4801    0.0000 C   0  0  0  0  0  0  0  0  0  0  0  0
    9.5620   -2.7169    0.0000 C   0  0  0  0  0  0  0  0  0  0  0  0
    6.3021   -2.4454    0.0000 C   0  0  0  0  0  0  0  0  0  0  0  0
    7.1961   -4.0078    0.0000 C   0  0  0  0  0  0  0  0  0  0  0  0
    6.3359    2.6340    0.0000 C   0  0  0  0  0  0  0  0  0  0  0  0
    6.2940   -3.4870    0.0000 C   0  0  0  0  0  0  0  0  0  0  0  0
    5.4679    2.1374    0.0000 C   0  0  0  0  0  0  0  0  0  0  0  0
    6.3397    3.6340    0.0000 C   0  0  0  0  0  0  0  0  0  0  0  0
    4.6038    2.6407    0.0000 C   0  0  0  0  0  0  0  0  0  0  0  0
    5.4756    4.1373    0.0000 C   0  0  0  0  0  0  0  0  0  0  0  0
    4.6077    3.6407    0.0000 C   0  0  0  0  0  0  0  0  0  0  0  0
    3.7359    2.1440    0.0000 C   0  0  0  0  0  0  0  0  0  0  0  0
    2.8718    2.6474    0.0000 C   0  0  0  0  0  0  0  0  0  0  0  0
    3.7320    1.1440    0.0000 C   0  0  0  0  0  0  0  0  0  0  0  0
    2.0038    2.1507    0.0000 C   0  0  0  0  0  0  0  0  0  0  0  0
    2.8641    0.6474    0.0000 C   0  0  0  0  0  0  0  0  0  0  0  0
    2.0000    1.1507    0.0000 C   0  0  0  0  0  0  0  0  0  0  0  0
    8.6174   -0.1327    0.0000 H   0  0  0  0  0  0  0  0  0  0  0  0
    8.7033    0.4874    0.0000 H   0  0  0  0  0  0  0  0  0  0  0  0
    8.3122    1.1833    0.0000 H   0  0  0  0  0  0  0  0  0  0  0  0
    9.5547   -1.0462    0.0000 H   0  0  0  0  0  0  0  0  0  0  0  0
    9.1562   -0.3560    0.0000 H   0  0  0  0  0  0  0  0  0  0  0  0
    5.6904   -0.3304    0.0000 H   0  0  0  0  0  0  0  0  0  0  0  0
    6.0975   -1.0170    0.0000 H   0  0  0  0  0  0  0  0  0  0  0  0
    6.0805    1.1919    0.0000 H   0  0  0  0  0  0  0  0  0  0  0  0
    5.6840    0.4991    0.0000 H   0  0  0  0  0  0  0  0  0  0  0  0
    7.8101    2.0206    0.0000 H   0  0  0  0  0  0  0  0  0  0  0  0
    7.4143    2.7125    0.0000 H   0  0  0  0  0  0  0  0  0  0  0  0
   10.1799   -2.6652    0.0000 H   0  0  0  0  0  0  0  0  0  0  0  0
    5.7688   -2.1292    0.0000 H   0  0  0  0  0  0  0  0  0  0  0  0
    9.3682   -4.1373    0.0000 H   0  0  0  0  0  0  0  0  0  0  0  0
    7.1985   -4.6278    0.0000 H   0  0  0  0  0  0  0  0  0  0  0  0
    5.7559   -3.7950    0.0000 H   0  0  0  0  0  0  0  0  0  0  0  0
    5.4655    1.5174    0.0000 H   0  0  0  0  0  0  0  0  0  0  0  0
    6.8779    3.9419    0.0000 H   0  0  0  0  0  0  0  0  0  0  0  0
    5.4780    4.7573    0.0000 H   0  0  0  0  0  0  0  0  0  0  0  0
    4.0720    3.9527    0.0000 H   0  0  0  0  0  0  0  0  0  0  0  0
    2.8742    3.2674    0.0000 H   0  0  0  0  0  0  0  0  0  0  0  0
    4.2678    0.8320    0.0000 H   0  0  0  0  0  0  0  0  0  0  0  0
    1.4681    2.4628    0.0000 H   0  0  0  0  0  0  0  0  0  0  0  0
    2.8617    0.0274    0.0000 H   0  0  0  0  0  0  0  0  0  0  0  0
    1.4619    0.8428    0.0000 H   0  0  0  0  0  0  0  0  0  0  0  0
  1  4  1  0  0  0  0
  1  7  1  0  0  0  0
  1  9  1  0  0  0  0
  2  5  1  0  0  0  0
  2  8  1  0  0  0  0
  2 12  1  0  0  0  0
  3 13  1  0  0  0  0
  3 14  1  0  0  0  0
  3 43  1  0  0  0  0
  4  5  1  0  0  0  0
  4  6  1  0  0  0  0
  4 30  1  0  0  0  0
  5 31  1  0  0  0  0
  5 32  1  0  0  0  0
  6 10  1  0  0  0  0
  6 33  1  0  0  0  0
  6 34  1  0  0  0  0
  7  8  1  0  0  0  0
  7 35  1  0  0  0  0
  7 36  1  0  0  0  0
  8 37  1  0  0  0  0
  8 38  1  0  0  0  0
  9 11  1  0  0  0  0
  9 15  2  0  0  0  0
 10 11  1  0  0  0  0
 10 14  2  0  0  0  0
 11 13  2  0  0  0  0
 12 17  1  0  0  0  0
 12 39  1  0  0  0  0
 12 40  1  0  0  0  0
 13 16  1  0  0  0  0
 14 41  1  0  0  0  0
 15 18  1  0  0  0  0
 15 42  1  0  0  0  0
 16 18  2  0  0  0  0
 16 44  1  0  0  0  0
 17 19  2  0  0  0  0
 17 20  1  0  0  0  0
 18 45  1  0  0  0  0
 19 21  1  0  0  0  0
 19 46  1  0  0  0  0
 20 22  2  0  0  0  0
 20 47  1  0  0  0  0
 21 23  2  0  0  0  0
 21 24  1  0  0  0  0
 22 23  1  0  0  0  0
 22 48  1  0  0  0  0
 23 49  1  0  0  0  0
 24 25  2  0  0  0  0
 24 26  1  0  0  0  0
 25 27  1  0  0  0  0
 25 50  1  0  0  0  0
 26 28  2  0  0  0  0
 26 51  1  0  0  0  0
 27 29  2  0  0  0  0
 27 52  1  0  0  0  0
 28 29  1  0  0  0  0
 28 53  1  0  0  0  0
 29 54  1  0  0  0  0
M  END
> <PUBCHEM_COMPOUND_CID>
53327262

> <PUBCHEM_COMPOUND_CANONICALIZED>
1

> <PUBCHEM_CACTVS_COMPLEXITY>
558

> <PUBCHEM_CACTVS_HBOND_ACCEPTOR>
2

> <PUBCHEM_CACTVS_HBOND_DONOR>
1

> <PUBCHEM_CACTVS_ROTATABLE_BOND>
3

> <PUBCHEM_CACTVS_SUBSKEYS>
AAADceB7AAAAAAAAAAAAAAAAAAAAAWAAAAA8eMECAAAAAFix9AAAHAAQAAAADCjBHgQ8wPPJkACgAzRnRACCgCAxAiAI2aA4ZJgIYOLA0dGUJAhgkADIyAcQgMAOgAACAAQCAAAAAAQACAQAAAAAAAAAAA==

> <PUBCHEM_IUPAC_OPENEYE_NAME>
5-[(3-phenylphenyl)methyl]-2,5,11-triazatetracyclo[7.6.1.02,7.012,16]hexadeca-1(15),9,12(16),13-tetraene

> <PUBCHEM_IUPAC_CAS_NAME>
5-[(3-phenylphenyl)methyl]-2,5,11-triazatetracyclo[7.6.1.02,7.012,16]hexadeca-1(15),9,12(16),13-tetraene

> <PUBCHEM_IUPAC_NAME_MARKUP>
5-[(3-phenylphenyl)methyl]-2,5,11-triazatetracyclo[7.6.1.0<SUP>2,7</SUP>.0<SUP>12,16</SUP>]hexadeca-1(15),9,12(16),13-tetraene

> <PUBCHEM_IUPAC_NAME>
5-[(3-phenylphenyl)methyl]-2,5,11-triazatetracyclo[7.6.1.02,7.012,16]hexadeca-1(15),9,12(16),13-tetraene

> <PUBCHEM_IUPAC_SYSTEMATIC_NAME>
5-[(3-phenylphenyl)methyl]-2,5,11-triazatetracyclo[7.6.1.02,7.012,16]hexadeca-1(15),9,12(16),13-tetraene

> <PUBCHEM_IUPAC_TRADITIONAL_NAME>
5-(3-phenylbenzyl)-2,5,11-triazatetracyclo[7.6.1.02,7.012,16]hexadeca-1(15),9,12(16),13-tetraene

> <PUBCHEM_IUPAC_INCHI>
InChI=1S/C26H25N3/c1-2-7-20(8-3-1)21-9-4-6-19(14-21)17-28-12-13-29-23(18-28)15-22-16-27-24-10-5-11-25(29)26(22)24/h1-11,14,16,23,27H,12-13,15,17-18H2

> <PUBCHEM_IUPAC_INCHIKEY>
YMYDUVXFUAIERG-UHFFFAOYSA-N

> <PUBCHEM_XLOGP3_AA>
5.2

> <PUBCHEM_EXACT_MASS>
379.204847810

> <PUBCHEM_MOLECULAR_FORMULA>
C26H25N3

> <PUBCHEM_MOLECULAR_WEIGHT>
379.5

> <PUBCHEM_OPENEYE_CAN_SMILES>
C1CN2C(CC3=CNC4=C3C2=CC=C4)CN1CC5=CC(=CC=C5)C6=CC=CC=C6

> <PUBCHEM_OPENEYE_ISO_SMILES>
C1CN2C(CC3=CNC4=C3C2=CC=C4)CN1CC5=CC(=CC=C5)C6=CC=CC=C6

> <PUBCHEM_CACTVS_TPSA>
22.3

> <PUBCHEM_MONOISOTOPIC_WEIGHT>
379.204847810

> <PUBCHEM_TOTAL_CHARGE>
0

> <PUBCHEM_HEAVY_ATOM_COUNT>
29

> <PUBCHEM_ATOM_DEF_STEREO_COUNT>
0

> <PUBCHEM_ATOM_UDEF_STEREO_COUNT>
1

> <PUBCHEM_BOND_DEF_STEREO_COUNT>
0

> <PUBCHEM_BOND_UDEF_STEREO_COUNT>
0

> <PUBCHEM_ISOTOPIC_ATOM_COUNT>
0

> <PUBCHEM_COMPONENT_COUNT>
1

> <PUBCHEM_CACTVS_TAUTO_COUNT>
-1

> <PUBCHEM_COORDINATE_TYPE>
1
5
255

> <PUBCHEM_BONDANNOTATIONS>
10  11  8
10  14  8
11  13  8
13  16  8
15  18  8
16  18  8
17  19  8
17  20  8
19  21  8
20  22  8
21  23  8
22  23  8
24  25  8
24  26  8
25  27  8
26  28  8
27  29  8
28  29  8
3  13  8
3  14  8
4  6  3
9  11  8
9  15  8

$$$$
