164628758
  -OEChem-09292322432D

 59 63  0     1  0  0  0  0  0999 V2000
    6.2870    4.8218    0.0000 O   0  0  0  0  0  0  0  0  0  0  0  0
    8.9130    3.2872    0.0000 O   0  0  0  0  0  0  0  0  0  0  0  0
    2.8694   -1.2873    0.0000 O   0  0  0  0  0  0  0  0  0  0  0  0
    6.2870    2.7525    0.0000 N   0  0  3  0  0  0  0  0  0  0  0  0
    4.6013   -1.2673    0.0000 N   0  0  0  0  0  0  0  0  0  0  0  0
    7.1810    3.2872    0.0000 C   0  0  1  0  0  0  0  0  0  0  0  0
    7.1810    4.2871    0.0000 C   0  0  1  0  0  0  0  0  0  0  0  0
    5.3809    3.2663    0.0000 C   0  0  0  0  0  0  0  0  0  0  0  0
    8.0470    2.7872    0.0000 C   0  0  0  0  0  0  0  0  0  0  0  0
    6.2986    1.7526    0.0000 C   0  0  0  0  0  0  0  0  0  0  0  0
    8.0470    4.7871    0.0000 C   0  0  0  0  0  0  0  0  0  0  0  0
    5.3809    4.3080    0.0000 C   0  0  0  0  0  0  0  0  0  0  0  0
    5.4384    1.2426    0.0000 C   0  0  0  0  0  0  0  0  0  0  0  0
    8.9130    4.2871    0.0000 C   0  0  0  0  0  0  0  0  0  0  0  0
    5.4500    0.2426    0.0000 C   0  0  0  0  0  0  0  0  0  0  0  0
    8.0309    5.8286    0.0000 C   0  0  0  0  0  0  0  0  0  0  0  0
    9.8230    4.7940    0.0000 C   0  0  0  0  0  0  0  0  0  0  0  0
    4.5898   -0.2673    0.0000 C   0  0  0  0  0  0  0  0  0  0  0  0
    8.9290    6.3564    0.0000 C   0  0  0  0  0  0  0  0  0  0  0  0
    9.8310    5.8356    0.0000 C   0  0  0  0  0  0  0  0  0  0  0  0
    3.7411   -1.7772    0.0000 C   0  0  0  0  0  0  0  0  0  0  0  0
    3.7527   -2.7772    0.0000 C   0  0  0  0  0  0  0  0  0  0  0  0
    2.8925   -3.2872    0.0000 C   0  0  0  0  0  0  0  0  0  0  0  0
    4.6245   -3.2671    0.0000 C   0  0  0  0  0  0  0  0  0  0  0  0
    2.9041   -4.2871    0.0000 C   0  0  0  0  0  0  0  0  0  0  0  0
    3.7758   -4.7770    0.0000 C   0  0  0  0  0  0  0  0  0  0  0  0
    4.6360   -4.2671    0.0000 C   0  0  0  0  0  0  0  0  0  0  0  0
    2.0000   -4.8044    0.0000 C   0  0  0  0  0  0  0  0  0  0  0  0
    3.8039   -5.8183    0.0000 C   0  0  0  0  0  0  0  0  0  0  0  0
    2.0040   -5.8461    0.0000 C   0  0  0  0  0  0  0  0  0  0  0  0
    2.9121   -6.3564    0.0000 C   0  0  0  0  0  0  0  0  0  0  0  0
    7.1875    2.4372    0.0000 H   0  0  0  0  0  0  0  0  0  0  0  0
    7.1875    5.1371    0.0000 H   0  0  0  0  0  0  0  0  0  0  0  0
    4.7701    3.3724    0.0000 H   0  0  0  0  0  0  0  0  0  0  0  0
    5.1719    2.6826    0.0000 H   0  0  0  0  0  0  0  0  0  0  0  0
    7.6484    2.3122    0.0000 H   0  0  0  0  0  0  0  0  0  0  0  0
    8.4455    2.3122    0.0000 H   0  0  0  0  0  0  0  0  0  0  0  0
    6.5173    1.1724    0.0000 H   0  0  0  0  0  0  0  0  0  0  0  0
    6.9079    1.8673    0.0000 H   0  0  0  0  0  0  0  0  0  0  0  0
    5.1719    4.8916    0.0000 H   0  0  0  0  0  0  0  0  0  0  0  0
    4.7701    4.2019    0.0000 H   0  0  0  0  0  0  0  0  0  0  0  0
    5.2196    1.8227    0.0000 H   0  0  0  0  0  0  0  0  0  0  0  0
    4.8291    1.1279    0.0000 H   0  0  0  0  0  0  0  0  0  0  0  0
    5.6687   -0.3375    0.0000 H   0  0  0  0  0  0  0  0  0  0  0  0
    6.0592    0.3574    0.0000 H   0  0  0  0  0  0  0  0  0  0  0  0
    7.4904    6.1324    0.0000 H   0  0  0  0  0  0  0  0  0  0  0  0
   10.3563    4.4778    0.0000 H   0  0  0  0  0  0  0  0  0  0  0  0
    4.3710    0.3128    0.0000 H   0  0  0  0  0  0  0  0  0  0  0  0
    3.9805   -0.3821    0.0000 H   0  0  0  0  0  0  0  0  0  0  0  0
    8.9266    6.9764    0.0000 H   0  0  0  0  0  0  0  0  0  0  0  0
   10.3692    6.1435    0.0000 H   0  0  0  0  0  0  0  0  0  0  0  0
    5.1418   -1.5710    0.0000 H   0  0  0  0  0  0  0  0  0  0  0  0
    2.3520   -2.9834    0.0000 H   0  0  0  0  0  0  0  0  0  0  0  0
    5.1578   -2.9510    0.0000 H   0  0  0  0  0  0  0  0  0  0  0  0
    5.1765   -4.5708    0.0000 H   0  0  0  0  0  0  0  0  0  0  0  0
    1.4631   -4.4944    0.0000 H   0  0  0  0  0  0  0  0  0  0  0  0
    4.3479   -6.1158    0.0000 H   0  0  0  0  0  0  0  0  0  0  0  0
    1.4695   -6.1602    0.0000 H   0  0  0  0  0  0  0  0  0  0  0  0
    2.9216   -6.9763    0.0000 H   0  0  0  0  0  0  0  0  0  0  0  0
  1  7  1  0  0  0  0
  1 12  1  0  0  0  0
  2  9  1  0  0  0  0
  2 14  1  0  0  0  0
  3 21  2  0  0  0  0
  4  6  1  0  0  0  0
  4  8  1  0  0  0  0
  4 10  1  0  0  0  0
  5 18  1  0  0  0  0
  5 21  1  0  0  0  0
  5 52  1  0  0  0  0
  6  7  1  0  0  0  0
  6  9  1  0  0  0  0
  6 32  1  6  0  0  0
  7 11  1  0  0  0  0
  7 33  1  1  0  0  0
  8 12  1  0  0  0  0
  8 34  1  0  0  0  0
  8 35  1  0  0  0  0
  9 36  1  0  0  0  0
  9 37  1  0  0  0  0
 10 13  1  0  0  0  0
 10 38  1  0  0  0  0
 10 39  1  0  0  0  0
 11 14  1  0  0  0  0
 11 16  2  0  0  0  0
 12 40  1  0  0  0  0
 12 41  1  0  0  0  0
 13 15  1  0  0  0  0
 13 42  1  0  0  0  0
 13 43  1  0  0  0  0
 14 17  2  0  0  0  0
 15 18  1  0  0  0  0
 15 44  1  0  0  0  0
 15 45  1  0  0  0  0
 16 19  1  0  0  0  0
 16 46  1  0  0  0  0
 17 20  1  0  0  0  0
 17 47  1  0  0  0  0
 18 48  1  0  0  0  0
 18 49  1  0  0  0  0
 19 20  2  0  0  0  0
 19 50  1  0  0  0  0
 20 51  1  0  0  0  0
 21 22  1  0  0  0  0
 22 23  2  0  0  0  0
 22 24  1  0  0  0  0
 23 25  1  0  0  0  0
 23 53  1  0  0  0  0
 24 27  2  0  0  0  0
 24 54  1  0  0  0  0
 25 26  1  0  0  0  0
 25 28  2  0  0  0  0
 26 27  1  0  0  0  0
 26 29  2  0  0  0  0
 27 55  1  0  0  0  0
 28 30  1  0  0  0  0
 28 56  1  0  0  0  0
 29 31  1  0  0  0  0
 29 57  1  0  0  0  0
 30 31  2  0  0  0  0
 30 58  1  0  0  0  0
 31 59  1  0  0  0  0
M  END
> <PUBCHEM_COMPOUND_CID>
164628758

> <PUBCHEM_COMPOUND_CANONICALIZED>
1

> <PUBCHEM_CACTVS_COMPLEXITY>
599

> <PUBCHEM_CACTVS_HBOND_ACCEPTOR>
4

> <PUBCHEM_CACTVS_HBOND_DONOR>
1

> <PUBCHEM_CACTVS_ROTATABLE_BOND>
6

> <PUBCHEM_CACTVS_SUBSKEYS>
AAADceB7MAAAAAAAAAAAAAAAAAAAAAAAAAA8aMECAAAAAADxVAAAHgAQAAAADDzhmAYwBsPABACIAiFSEACCCAAkIAAIiIEODMgOJzKEtRuHOSjl1hGYqYe4yOCOwAACAAAYAACAAAQAADAAAAAAAAAAAA==

> <PUBCHEM_IUPAC_OPENEYE_NAME>
N-[4-[(4aR,10bR)-3,4a,5,10b-tetrahydro-2H-chromeno[4,3-b][1,4]oxazin-4-yl]butyl]naphthalene-2-carboxamide

> <PUBCHEM_IUPAC_CAS_NAME>
N-[4-[(4aR,10bR)-3,4a,5,10b-tetrahydro-2H-[1]benzopyrano[4,3-b][1,4]oxazin-4-yl]butyl]-2-naphthalenecarboxamide

> <PUBCHEM_IUPAC_NAME_MARKUP>
<I>N</I>-[4-[(4<I>a</I><I>R</I>,10<I>b</I><I>R</I>)-3,4<I>a</I>,5,10<I>b</I>-tetrahydro-2<I>H</I>-chromeno[4,3-b][1,4]oxazin-4-yl]butyl]naphthalene-2-carboxamide

> <PUBCHEM_IUPAC_NAME>
N-[4-[(4aR,10bR)-3,4a,5,10b-tetrahydro-2H-chromeno[4,3-b][1,4]oxazin-4-yl]butyl]naphthalene-2-carboxamide

> <PUBCHEM_IUPAC_SYSTEMATIC_NAME>
N-[4-[(4aR,10bR)-3,4a,5,10b-tetrahydro-2H-chromeno[4,3-b][1,4]oxazin-4-yl]butyl]naphthalene-2-carboxamide

> <PUBCHEM_IUPAC_TRADITIONAL_NAME>
N-[4-[(4aR,10bR)-3,4a,5,10b-tetrahydro-2H-chromeno[4,3-b][1,4]oxazin-4-yl]butyl]-2-naphthamide

> <PUBCHEM_IUPAC_INCHI>
InChI=1S/C26H28N2O3/c29-26(21-12-11-19-7-1-2-8-20(19)17-21)27-13-5-6-14-28-15-16-30-25-22-9-3-4-10-24(22)31-18-23(25)28/h1-4,7-12,17,23,25H,5-6,13-16,18H2,(H,27,29)/t23-,25-/m1/s1

> <PUBCHEM_IUPAC_INCHIKEY>
MCJDONVFVRLBAL-ILBGXUMGSA-N

> <PUBCHEM_XLOGP3>
4.4

> <PUBCHEM_EXACT_MASS>
416.20999276

> <PUBCHEM_MOLECULAR_FORMULA>
C26H28N2O3

> <PUBCHEM_MOLECULAR_WEIGHT>
416.5

> <PUBCHEM_OPENEYE_CAN_SMILES>
C1COC2C(N1CCCCNC(=O)C3=CC4=CC=CC=C4C=C3)COC5=CC=CC=C25

> <PUBCHEM_OPENEYE_ISO_SMILES>
C1CO[C@H]2[C@H](N1CCCCNC(=O)C3=CC4=CC=CC=C4C=C3)COC5=CC=CC=C25

> <PUBCHEM_CACTVS_TPSA>
50.8

> <PUBCHEM_MONOISOTOPIC_WEIGHT>
416.20999276

> <PUBCHEM_TOTAL_CHARGE>
0

> <PUBCHEM_HEAVY_ATOM_COUNT>
31

> <PUBCHEM_ATOM_DEF_STEREO_COUNT>
2

> <PUBCHEM_ATOM_UDEF_STEREO_COUNT>
0

> <PUBCHEM_BOND_DEF_STEREO_COUNT>
0

> <PUBCHEM_BOND_UDEF_STEREO_COUNT>
0

> <PUBCHEM_ISOTOPIC_ATOM_COUNT>
0

> <PUBCHEM_COMPONENT_COUNT>
1

> <PUBCHEM_CACTVS_TAUTO_COUNT>
-1

> <PUBCHEM_COORDINATE_TYPE>
1
5
255

> <PUBCHEM_BONDANNOTATIONS>
11  14  8
11  16  8
14  17  8
16  19  8
17  20  8
19  20  8
22  23  8
22  24  8
23  25  8
24  27  8
25  26  8
25  28  8
26  27  8
26  29  8
28  30  8
29  31  8
30  31  8
6  32  6
7  33  5

$$$$
