155560055
  -OEChem-09292322082D

 51 55  0     0  0  0  0  0  0999 V2000
    4.5274    1.8880    0.0000 S   0  0  0  0  0  0  0  0  0  0  0  0
    8.9481    3.8321    0.0000 O   0  0  0  0  0  0  0  0  0  0  0  0
    8.3374    1.9276    0.0000 N   0  0  0  0  0  0  0  0  0  0  0  0
    6.3518    1.5324    0.0000 N   0  0  0  0  0  0  0  0  0  0  0  0
    6.7328   -0.2269    0.0000 N   0  0  0  0  0  0  0  0  0  0  0  0
    5.3923   -1.3830    0.0000 N   0  0  0  0  0  0  0  0  0  0  0  0
    4.0274    0.3491    0.0000 C   0  0  0  0  0  0  0  0  0  0  0  0
    3.3424   -0.4356    0.0000 C   0  0  0  0  0  0  0  0  0  0  0  0
    2.3219   -0.2269    0.0000 C   0  0  0  0  0  0  0  0  0  0  0  0
    2.0000    0.7637    0.0000 C   0  0  0  0  0  0  0  0  0  0  0  0
    2.7029    1.5324    0.0000 C   0  0  0  0  0  0  0  0  0  0  0  0
    3.7183    1.3002    0.0000 C   0  0  0  0  0  0  0  0  0  0  0  0
    5.0274    0.3491    0.0000 C   0  0  0  0  0  0  0  0  0  0  0  0
    5.3364    1.3002    0.0000 C   0  0  0  0  0  0  0  0  0  0  0  0
    8.0321    0.9754    0.0000 C   0  0  0  0  0  0  0  0  0  0  0  0
    5.7123   -0.4356    0.0000 C   0  0  0  0  0  0  0  0  0  0  0  0
    7.6654    2.6682    0.0000 C   0  0  0  0  0  0  0  0  0  0  0  0
    9.3148    2.1393    0.0000 C   0  0  0  0  0  0  0  0  0  0  0  0
    7.0547    0.7637    0.0000 C   0  0  0  0  0  0  0  0  0  0  0  0
    7.9708    3.6204    0.0000 C   0  0  0  0  0  0  0  0  0  0  0  0
    9.6201    3.0916    0.0000 C   0  0  0  0  0  0  0  0  0  0  0  0
    6.0528   -2.1339    0.0000 C   0  0  0  0  0  0  0  0  0  0  0  0
    5.7328   -3.0813    0.0000 C   0  0  0  0  0  0  0  0  0  0  0  0
    7.0333   -1.9373    0.0000 C   0  0  0  0  0  0  0  0  0  0  0  0
    6.3933   -3.8321    0.0000 C   0  0  0  0  0  0  0  0  0  0  0  0
    7.6938   -2.6881    0.0000 C   0  0  0  0  0  0  0  0  0  0  0  0
    7.3738   -3.6355    0.0000 C   0  0  0  0  0  0  0  0  0  0  0  0
    3.1160   -1.0128    0.0000 H   0  0  0  0  0  0  0  0  0  0  0  0
    3.8724   -0.7574    0.0000 H   0  0  0  0  0  0  0  0  0  0  0  0
    1.7081   -0.3148    0.0000 H   0  0  0  0  0  0  0  0  0  0  0  0
    2.3034   -0.8466    0.0000 H   0  0  0  0  0  0  0  0  0  0  0  0
    1.6208    1.2542    0.0000 H   0  0  0  0  0  0  0  0  0  0  0  0
    1.4518    0.4741    0.0000 H   0  0  0  0  0  0  0  0  0  0  0  0
    2.9426    2.1042    0.0000 H   0  0  0  0  0  0  0  0  0  0  0  0
    2.1806    1.8664    0.0000 H   0  0  0  0  0  0  0  0  0  0  0  0
    8.0561    0.3559    0.0000 H   0  0  0  0  0  0  0  0  0  0  0  0
    8.6464    0.8915    0.0000 H   0  0  0  0  0  0  0  0  0  0  0  0
    7.1169    2.9572    0.0000 H   0  0  0  0  0  0  0  0  0  0  0  0
    7.2856    2.1782    0.0000 H   0  0  0  0  0  0  0  0  0  0  0  0
    9.3388    1.5198    0.0000 H   0  0  0  0  0  0  0  0  0  0  0  0
    9.9290    2.0554    0.0000 H   0  0  0  0  0  0  0  0  0  0  0  0
    7.9467    4.2400    0.0000 H   0  0  0  0  0  0  0  0  0  0  0  0
    7.3565    3.7044    0.0000 H   0  0  0  0  0  0  0  0  0  0  0  0
   10.1686    2.8026    0.0000 H   0  0  0  0  0  0  0  0  0  0  0  0
    9.9999    3.5816    0.0000 H   0  0  0  0  0  0  0  0  0  0  0  0
    4.7844   -1.5049    0.0000 H   0  0  0  0  0  0  0  0  0  0  0  0
    5.1249   -3.2032    0.0000 H   0  0  0  0  0  0  0  0  0  0  0  0
    7.2317   -1.3499    0.0000 H   0  0  0  0  0  0  0  0  0  0  0  0
    6.1949   -4.4195    0.0000 H   0  0  0  0  0  0  0  0  0  0  0  0
    8.3017   -2.5662    0.0000 H   0  0  0  0  0  0  0  0  0  0  0  0
    7.7833   -4.1011    0.0000 H   0  0  0  0  0  0  0  0  0  0  0  0
  1 12  1  0  0  0  0
  1 14  1  0  0  0  0
  2 20  1  0  0  0  0
  2 21  1  0  0  0  0
  3 15  1  0  0  0  0
  3 17  1  0  0  0  0
  3 18  1  0  0  0  0
  4 14  2  0  0  0  0
  4 19  1  0  0  0  0
  5 16  1  0  0  0  0
  5 19  2  0  0  0  0
  6 16  1  0  0  0  0
  6 22  1  0  0  0  0
  6 46  1  0  0  0  0
  7  8  1  0  0  0  0
  7 12  2  0  0  0  0
  7 13  1  0  0  0  0
  8  9  1  0  0  0  0
  8 28  1  0  0  0  0
  8 29  1  0  0  0  0
  9 10  1  0  0  0  0
  9 30  1  0  0  0  0
  9 31  1  0  0  0  0
 10 11  1  0  0  0  0
 10 32  1  0  0  0  0
 10 33  1  0  0  0  0
 11 12  1  0  0  0  0
 11 34  1  0  0  0  0
 11 35  1  0  0  0  0
 13 14  1  0  0  0  0
 13 16  2  0  0  0  0
 15 19  1  0  0  0  0
 15 36  1  0  0  0  0
 15 37  1  0  0  0  0
 17 20  1  0  0  0  0
 17 38  1  0  0  0  0
 17 39  1  0  0  0  0
 18 21  1  0  0  0  0
 18 40  1  0  0  0  0
 18 41  1  0  0  0  0
 20 42  1  0  0  0  0
 20 43  1  0  0  0  0
 21 44  1  0  0  0  0
 21 45  1  0  0  0  0
 22 23  2  0  0  0  0
 22 24  1  0  0  0  0
 23 25  1  0  0  0  0
 23 47  1  0  0  0  0
 24 26  2  0  0  0  0
 24 48  1  0  0  0  0
 25 27  2  0  0  0  0
 25 49  1  0  0  0  0
 26 27  1  0  0  0  0
 26 50  1  0  0  0  0
 27 51  1  0  0  0  0
M  END
> <PUBCHEM_COMPOUND_CID>
155560055

> <PUBCHEM_COMPOUND_CANONICALIZED>
1

> <PUBCHEM_CACTVS_COMPLEXITY>
483

> <PUBCHEM_CACTVS_HBOND_ACCEPTOR>
6

> <PUBCHEM_CACTVS_HBOND_DONOR>
1

> <PUBCHEM_CACTVS_ROTATABLE_BOND>
4

> <PUBCHEM_CACTVS_SUBSKEYS>
AAADceB7oABAAAAAAAAAAAAAAAAAASAAAAA8eIEAAAAAAFgB/AAAHgQQAAAADAjh2wYx8dfIFAikAiZiZACD0KlhCrgJmDA4ZJiKaGLg2dGXJAxokAL4yCcQgMAOgAAAAAAAAAAAAAAAAAgAAAAAAAAAAA==

> <PUBCHEM_IUPAC_OPENEYE_NAME>
2-(morpholinomethyl)-N-phenyl-5,6,7,8-tetrahydrobenzothiopheno[2,3-d]pyrimidin-4-amine

> <PUBCHEM_IUPAC_CAS_NAME>
2-(4-morpholinylmethyl)-N-phenyl-5,6,7,8-tetrahydro-[1]benzothiolo[2,3-d]pyrimidin-4-amine

> <PUBCHEM_IUPAC_NAME_MARKUP>
2-(morpholin-4-ylmethyl)-<I>N</I>-phenyl-5,6,7,8-tetrahydro-[1]benzothiolo[2,3-d]pyrimidin-4-amine

> <PUBCHEM_IUPAC_NAME>
2-(morpholin-4-ylmethyl)-N-phenyl-5,6,7,8-tetrahydro-[1]benzothiolo[2,3-d]pyrimidin-4-amine

> <PUBCHEM_IUPAC_SYSTEMATIC_NAME>
2-(morpholin-4-ylmethyl)-N-phenyl-5,6,7,8-tetrahydro-[1]benzothiolo[2,3-d]pyrimidin-4-amine

> <PUBCHEM_IUPAC_TRADITIONAL_NAME>
[2-(morpholinomethyl)-5,6,7,8-tetrahydrobenzothiopheno[2,3-d]pyrimidin-4-yl]-phenyl-amine

> <PUBCHEM_IUPAC_INCHI>
InChI=1S/C21H24N4OS/c1-2-6-15(7-3-1)22-20-19-16-8-4-5-9-17(16)27-21(19)24-18(23-20)14-25-10-12-26-13-11-25/h1-3,6-7H,4-5,8-14H2,(H,22,23,24)

> <PUBCHEM_IUPAC_INCHIKEY>
UQKWOKJGPLYPHU-UHFFFAOYSA-N

> <PUBCHEM_XLOGP3_AA>
4.2

> <PUBCHEM_EXACT_MASS>
380.16708258

> <PUBCHEM_MOLECULAR_FORMULA>
C21H24N4OS

> <PUBCHEM_MOLECULAR_WEIGHT>
380.5

> <PUBCHEM_OPENEYE_CAN_SMILES>
C1CCC2=C(C1)C3=C(N=C(N=C3S2)CN4CCOCC4)NC5=CC=CC=C5

> <PUBCHEM_OPENEYE_ISO_SMILES>
C1CCC2=C(C1)C3=C(N=C(N=C3S2)CN4CCOCC4)NC5=CC=CC=C5

> <PUBCHEM_CACTVS_TPSA>
78.5

> <PUBCHEM_MONOISOTOPIC_WEIGHT>
380.16708258

> <PUBCHEM_TOTAL_CHARGE>
0

> <PUBCHEM_HEAVY_ATOM_COUNT>
27

> <PUBCHEM_ATOM_DEF_STEREO_COUNT>
0

> <PUBCHEM_ATOM_UDEF_STEREO_COUNT>
0

> <PUBCHEM_BOND_DEF_STEREO_COUNT>
0

> <PUBCHEM_BOND_UDEF_STEREO_COUNT>
0

> <PUBCHEM_ISOTOPIC_ATOM_COUNT>
0

> <PUBCHEM_COMPONENT_COUNT>
1

> <PUBCHEM_CACTVS_TAUTO_COUNT>
-1

> <PUBCHEM_COORDINATE_TYPE>
1
5
255

> <PUBCHEM_BONDANNOTATIONS>
1  12  8
1  14  8
13  14  8
13  16  8
22  23  8
22  24  8
23  25  8
24  26  8
25  27  8
26  27  8
4  14  8
4  19  8
5  16  8
5  19  8
7  12  8
7  13  8

$$$$
