11689612
  -OEChem-09292322282D

 53 57  0     0  0  0  0  0  0999 V2000
    6.7619   -3.5015    0.0000 O   0  0  0  0  0  0  0  0  0  0  0  0
    6.7619   -0.0374    0.0000 N   0  0  0  0  0  0  0  0  0  0  0  0
    7.7619   -1.7694    0.0000 N   0  0  0  0  0  0  0  0  0  0  0  0
    3.7320    1.3287    0.0000 N   0  0  0  0  0  0  0  0  0  0  0  0
    4.6783    0.0239    0.0000 N   0  0  0  0  0  0  0  0  0  0  0  0
    2.8660    2.8287    0.0000 N   0  0  0  0  0  0  0  0  0  0  0  0
    3.6750    3.4164    0.0000 N   0  0  0  0  0  0  0  0  0  0  0  0
    6.2619   -0.9034    0.0000 C   0  0  0  0  0  0  0  0  0  0  0  0
    7.7619   -0.0374    0.0000 C   0  0  0  0  0  0  0  0  0  0  0  0
    6.7619   -1.7694    0.0000 C   0  0  0  0  0  0  0  0  0  0  0  0
    8.2619   -0.9034    0.0000 C   0  0  0  0  0  0  0  0  0  0  0  0
    6.2619    0.8287    0.0000 C   0  0  0  0  0  0  0  0  0  0  0  0
    8.2619   -2.6354    0.0000 C   0  0  0  0  0  0  0  0  0  0  0  0
    5.2619    0.8287    0.0000 C   0  0  0  0  0  0  0  0  0  0  0  0
    4.6783    1.6334    0.0000 C   0  0  0  0  0  0  0  0  0  0  0  0
    7.7619   -3.5015    0.0000 C   0  0  0  0  0  0  0  0  0  0  0  0
    9.2619   -2.6354    0.0000 C   0  0  0  0  0  0  0  0  0  0  0  0
    3.7320    0.3287    0.0000 C   0  0  0  0  0  0  0  0  0  0  0  0
    2.8660    1.8287    0.0000 C   0  0  0  0  0  0  0  0  0  0  0  0
    8.2619   -4.3675    0.0000 C   0  0  0  0  0  0  0  0  0  0  0  0
    9.7619   -3.5015    0.0000 C   0  0  0  0  0  0  0  0  0  0  0  0
    2.8660   -0.1713    0.0000 C   0  0  0  0  0  0  0  0  0  0  0  0
    2.0000    1.3287    0.0000 C   0  0  0  0  0  0  0  0  0  0  0  0
    9.2619   -4.3675    0.0000 C   0  0  0  0  0  0  0  0  0  0  0  0
    2.0000    0.3287    0.0000 C   0  0  0  0  0  0  0  0  0  0  0  0
    2.0570    3.4164    0.0000 C   0  0  0  0  0  0  0  0  0  0  0  0
    6.2619   -4.3675    0.0000 C   0  0  0  0  0  0  0  0  0  0  0  0
    2.3660    4.3675    0.0000 C   0  0  0  0  0  0  0  0  0  0  0  0
    3.3660    4.3675    0.0000 C   0  0  0  0  0  0  0  0  0  0  0  0
    5.7869   -0.5049    0.0000 H   0  0  0  0  0  0  0  0  0  0  0  0
    5.7869   -1.3019    0.0000 H   0  0  0  0  0  0  0  0  0  0  0  0
    8.3445    0.1747    0.0000 H   0  0  0  0  0  0  0  0  0  0  0  0
    7.6542    0.5732    0.0000 H   0  0  0  0  0  0  0  0  0  0  0  0
    6.1793   -1.9815    0.0000 H   0  0  0  0  0  0  0  0  0  0  0  0
    6.8695   -2.3800    0.0000 H   0  0  0  0  0  0  0  0  0  0  0  0
    8.7368   -1.3019    0.0000 H   0  0  0  0  0  0  0  0  0  0  0  0
    8.7368   -0.5049    0.0000 H   0  0  0  0  0  0  0  0  0  0  0  0
    6.8445    1.0407    0.0000 H   0  0  0  0  0  0  0  0  0  0  0  0
    6.1542    1.4392    0.0000 H   0  0  0  0  0  0  0  0  0  0  0  0
    4.8709    2.2227    0.0000 H   0  0  0  0  0  0  0  0  0  0  0  0
    9.5719   -2.0985    0.0000 H   0  0  0  0  0  0  0  0  0  0  0  0
    7.9519   -4.9044    0.0000 H   0  0  0  0  0  0  0  0  0  0  0  0
   10.3819   -3.5015    0.0000 H   0  0  0  0  0  0  0  0  0  0  0  0
    2.8660   -0.7913    0.0000 H   0  0  0  0  0  0  0  0  0  0  0  0
    1.4631    1.6387    0.0000 H   0  0  0  0  0  0  0  0  0  0  0  0
    9.5719   -4.9044    0.0000 H   0  0  0  0  0  0  0  0  0  0  0  0
    1.4631    0.0187    0.0000 H   0  0  0  0  0  0  0  0  0  0  0  0
    1.4674    3.2248    0.0000 H   0  0  0  0  0  0  0  0  0  0  0  0
    5.7249   -4.0575    0.0000 H   0  0  0  0  0  0  0  0  0  0  0  0
    5.9519   -4.9044    0.0000 H   0  0  0  0  0  0  0  0  0  0  0  0
    6.7988   -4.6775    0.0000 H   0  0  0  0  0  0  0  0  0  0  0  0
    2.0016    4.8691    0.0000 H   0  0  0  0  0  0  0  0  0  0  0  0
    3.7304    4.8691    0.0000 H   0  0  0  0  0  0  0  0  0  0  0  0
  1 16  1  0  0  0  0
  1 27  1  0  0  0  0
  2  8  1  0  0  0  0
  2  9  1  0  0  0  0
  2 12  1  0  0  0  0
  3 10  1  0  0  0  0
  3 11  1  0  0  0  0
  3 13  1  0  0  0  0
  4 15  1  0  0  0  0
  4 18  1  0  0  0  0
  4 19  1  0  0  0  0
  5 14  1  0  0  0  0
  5 18  2  0  0  0  0
  6  7  1  0  0  0  0
  6 19  1  0  0  0  0
  6 26  1  0  0  0  0
  7 29  2  0  0  0  0
  8 10  1  0  0  0  0
  8 30  1  0  0  0  0
  8 31  1  0  0  0  0
  9 11  1  0  0  0  0
  9 32  1  0  0  0  0
  9 33  1  0  0  0  0
 10 34  1  0  0  0  0
 10 35  1  0  0  0  0
 11 36  1  0  0  0  0
 11 37  1  0  0  0  0
 12 14  1  0  0  0  0
 12 38  1  0  0  0  0
 12 39  1  0  0  0  0
 13 16  1  0  0  0  0
 13 17  2  0  0  0  0
 14 15  2  0  0  0  0
 15 40  1  0  0  0  0
 16 20  2  0  0  0  0
 17 21  1  0  0  0  0
 17 41  1  0  0  0  0
 18 22  1  0  0  0  0
 19 23  2  0  0  0  0
 20 24  1  0  0  0  0
 20 42  1  0  0  0  0
 21 24  2  0  0  0  0
 21 43  1  0  0  0  0
 22 25  2  0  0  0  0
 22 44  1  0  0  0  0
 23 25  1  0  0  0  0
 23 45  1  0  0  0  0
 24 46  1  0  0  0  0
 25 47  1  0  0  0  0
 26 28  2  0  0  0  0
 26 48  1  0  0  0  0
 27 49  1  0  0  0  0
 27 50  1  0  0  0  0
 27 51  1  0  0  0  0
 28 29  1  0  0  0  0
 28 52  1  0  0  0  0
 29 53  1  0  0  0  0
M  END
> <PUBCHEM_COMPOUND_CID>
11689612

> <PUBCHEM_COMPOUND_CANONICALIZED>
1

> <PUBCHEM_CACTVS_COMPLEXITY>
527

> <PUBCHEM_CACTVS_HBOND_ACCEPTOR>
5

> <PUBCHEM_CACTVS_HBOND_DONOR>
0

> <PUBCHEM_CACTVS_ROTATABLE_BOND>
5

> <PUBCHEM_CACTVS_SUBSKEYS>
AAADceB7oAAAAAAAAAAAAAAAAAAAAWLAAAA8WIAAAAAAAFgB/AAAHgAIAAAACAzBlwY/9p8MHACiATZnZACSjC0xsqAd2CA/fJiObuLE+duVtChsyBPY6CeQQAAAAAAAAAAAEAAAAAAAAAAgAAAAAAAAAA==

> <PUBCHEM_IUPAC_OPENEYE_NAME>
2-[[4-(2-methoxyphenyl)piperazin-1-yl]methyl]-5-pyrazol-1-yl-imidazo[1,2-a]pyridine

> <PUBCHEM_IUPAC_CAS_NAME>
2-[[4-(2-methoxyphenyl)-1-piperazinyl]methyl]-5-(1-pyrazolyl)imidazo[1,2-a]pyridine

> <PUBCHEM_IUPAC_NAME_MARKUP>
2-[[4-(2-methoxyphenyl)piperazin-1-yl]methyl]-5-pyrazol-1-ylimidazo[1,2-a]pyridine

> <PUBCHEM_IUPAC_NAME>
2-[[4-(2-methoxyphenyl)piperazin-1-yl]methyl]-5-pyrazol-1-ylimidazo[1,2-a]pyridine

> <PUBCHEM_IUPAC_SYSTEMATIC_NAME>
2-[[4-(2-methoxyphenyl)piperazin-1-yl]methyl]-5-pyrazol-1-yl-imidazo[1,2-a]pyridine

> <PUBCHEM_IUPAC_TRADITIONAL_NAME>
2-[[4-(2-methoxyphenyl)piperazino]methyl]-5-pyrazol-1-yl-imidazo[1,2-a]pyridine

> <PUBCHEM_IUPAC_INCHI>
InChI=1S/C22H24N6O/c1-29-20-7-3-2-6-19(20)26-14-12-25(13-15-26)16-18-17-27-21(24-18)8-4-9-22(27)28-11-5-10-23-28/h2-11,17H,12-16H2,1H3

> <PUBCHEM_IUPAC_INCHIKEY>
BZHJMSJFFNOURP-UHFFFAOYSA-N

> <PUBCHEM_XLOGP3_AA>
3.5

> <PUBCHEM_EXACT_MASS>
388.20115941

> <PUBCHEM_MOLECULAR_FORMULA>
C22H24N6O

> <PUBCHEM_MOLECULAR_WEIGHT>
388.5

> <PUBCHEM_OPENEYE_CAN_SMILES>
COC1=CC=CC=C1N2CCN(CC2)CC3=CN4C(=N3)C=CC=C4N5C=CC=N5

> <PUBCHEM_OPENEYE_ISO_SMILES>
COC1=CC=CC=C1N2CCN(CC2)CC3=CN4C(=N3)C=CC=C4N5C=CC=N5

> <PUBCHEM_CACTVS_TPSA>
50.8

> <PUBCHEM_MONOISOTOPIC_WEIGHT>
388.20115941

> <PUBCHEM_TOTAL_CHARGE>
0

> <PUBCHEM_HEAVY_ATOM_COUNT>
29

> <PUBCHEM_ATOM_DEF_STEREO_COUNT>
0

> <PUBCHEM_ATOM_UDEF_STEREO_COUNT>
0

> <PUBCHEM_BOND_DEF_STEREO_COUNT>
0

> <PUBCHEM_BOND_UDEF_STEREO_COUNT>
0

> <PUBCHEM_ISOTOPIC_ATOM_COUNT>
0

> <PUBCHEM_COMPONENT_COUNT>
1

> <PUBCHEM_CACTVS_TAUTO_COUNT>
-1

> <PUBCHEM_COORDINATE_TYPE>
1
5
255

> <PUBCHEM_BONDANNOTATIONS>
13  16  8
13  17  8
14  15  8
16  20  8
17  21  8
18  22  8
19  23  8
20  24  8
21  24  8
22  25  8
23  25  8
26  28  8
28  29  8
4  15  8
4  18  8
4  19  8
5  14  8
5  18  8
6  26  8
6  7  8
7  29  8

$$$$
