44415657
  -OEChem-09292322282D

 60 64  0     0  0  0  0  0  0999 V2000
    8.7204    1.7149    0.0000 Cl  0  0  0  0  0  0  0  0  0  0  0  0
    6.5580   -2.6999    0.0000 S   0  0  0  0  0  0  0  0  0  0  0  0
    6.6150   -0.6121    0.0000 O   0  0  0  0  0  0  0  0  0  0  0  0
    4.6612   -4.4599    0.0000 O   0  0  0  0  0  0  0  0  0  0  0  0
    3.9491    3.4796    0.0000 N   0  0  0  0  0  0  0  0  0  0  0  0
    3.0814    5.2815    0.0000 N   0  0  0  0  0  0  0  0  0  0  0  0
    4.8830    0.3879    0.0000 N   0  0  0  0  0  0  0  0  0  0  0  0
    5.3830    2.5786    0.0000 N   0  0  0  0  0  0  0  0  0  0  0  0
    4.8830   -0.6121    0.0000 N   0  0  0  0  0  0  0  0  0  0  0  0
    2.9519    3.5543    0.0000 C   0  0  0  0  0  0  0  0  0  0  0  0
    4.5125    4.3058    0.0000 C   0  0  0  0  0  0  0  0  0  0  0  0
    2.5180    4.4553    0.0000 C   0  0  0  0  0  0  0  0  0  0  0  0
    4.0786    5.2068    0.0000 C   0  0  0  0  0  0  0  0  0  0  0  0
    4.3830    2.5786    0.0000 C   0  0  0  0  0  0  0  0  0  0  0  0
    3.7595    1.7968    0.0000 C   0  0  0  0  0  0  0  0  0  0  0  0
    2.6475    6.1825    0.0000 C   0  0  0  0  0  0  0  0  0  0  0  0
    3.9820    0.8218    0.0000 C   0  0  0  0  0  0  0  0  0  0  0  0
    5.7840    0.8218    0.0000 C   0  0  0  0  0  0  0  0  0  0  0  0
    6.0065    1.7967    0.0000 C   0  0  0  0  0  0  0  0  0  0  0  0
    2.7690    2.1191    0.0000 C   0  0  0  0  0  0  0  0  0  0  0  0
    3.2295    0.1017    0.0000 C   0  0  0  0  0  0  0  0  0  0  0  0
    2.0000    1.4165    0.0000 C   0  0  0  0  0  0  0  0  0  0  0  0
    6.5365    0.1016    0.0000 C   0  0  0  0  0  0  0  0  0  0  0  0
    6.9970    2.1191    0.0000 C   0  0  0  0  0  0  0  0  0  0  0  0
    2.2318    0.4010    0.0000 C   0  0  0  0  0  0  0  0  0  0  0  0
    7.5342    0.4010    0.0000 C   0  0  0  0  0  0  0  0  0  0  0  0
    7.7660    1.4165    0.0000 C   0  0  0  0  0  0  0  0  0  0  0  0
    5.7490   -1.1121    0.0000 C   0  0  0  0  0  0  0  0  0  0  0  0
    5.7490   -2.1121    0.0000 C   0  0  0  0  0  0  0  0  0  0  0  0
    4.9400   -2.6998    0.0000 C   0  0  0  0  0  0  0  0  0  0  0  0
    5.2490   -3.6509    0.0000 C   0  0  0  0  0  0  0  0  0  0  0  0
    6.2490   -3.6509    0.0000 C   0  0  0  0  0  0  0  0  0  0  0  0
    5.0679   -5.3735    0.0000 C   0  0  0  0  0  0  0  0  0  0  0  0
    4.4801   -6.1825    0.0000 C   0  0  0  0  0  0  0  0  0  0  0  0
    2.3551    3.3864    0.0000 H   0  0  0  0  0  0  0  0  0  0  0  0
    3.0137    2.9374    0.0000 H   0  0  0  0  0  0  0  0  0  0  0  0
    4.9563    3.8729    0.0000 H   0  0  0  0  0  0  0  0  0  0  0  0
    5.0159    4.6677    0.0000 H   0  0  0  0  0  0  0  0  0  0  0  0
    2.0742    4.8882    0.0000 H   0  0  0  0  0  0  0  0  0  0  0  0
    2.0146    4.0934    0.0000 H   0  0  0  0  0  0  0  0  0  0  0  0
    4.6754    5.3747    0.0000 H   0  0  0  0  0  0  0  0  0  0  0  0
    4.0168    5.8237    0.0000 H   0  0  0  0  0  0  0  0  0  0  0  0
    3.2061    6.4515    0.0000 H   0  0  0  0  0  0  0  0  0  0  0  0
    2.3785    6.7411    0.0000 H   0  0  0  0  0  0  0  0  0  0  0  0
    2.0889    5.9135    0.0000 H   0  0  0  0  0  0  0  0  0  0  0  0
    2.6380    2.7251    0.0000 H   0  0  0  0  0  0  0  0  0  0  0  0
    3.3744   -0.5012    0.0000 H   0  0  0  0  0  0  0  0  0  0  0  0
    1.4083    1.6016    0.0000 H   0  0  0  0  0  0  0  0  0  0  0  0
    6.3916   -0.5012    0.0000 H   0  0  0  0  0  0  0  0  0  0  0  0
    7.1280    2.7251    0.0000 H   0  0  0  0  0  0  0  0  0  0  0  0
    1.7789   -0.0224    0.0000 H   0  0  0  0  0  0  0  0  0  0  0  0
    4.3460   -0.9221    0.0000 H   0  0  0  0  0  0  0  0  0  0  0  0
    7.9871   -0.0225    0.0000 H   0  0  0  0  0  0  0  0  0  0  0  0
    4.3503   -2.5082    0.0000 H   0  0  0  0  0  0  0  0  0  0  0  0
    6.6134   -4.1525    0.0000 H   0  0  0  0  0  0  0  0  0  0  0  0
    5.4986   -5.8195    0.0000 H   0  0  0  0  0  0  0  0  0  0  0  0
    5.5819   -5.0268    0.0000 H   0  0  0  0  0  0  0  0  0  0  0  0
    3.9786   -5.8181    0.0000 H   0  0  0  0  0  0  0  0  0  0  0  0
    4.1157   -6.6841    0.0000 H   0  0  0  0  0  0  0  0  0  0  0  0
    4.9817   -6.5469    0.0000 H   0  0  0  0  0  0  0  0  0  0  0  0
  1 27  1  0  0  0  0
  2 29  1  0  0  0  0
  2 32  1  0  0  0  0
  3 28  2  0  0  0  0
  4 31  1  0  0  0  0
  4 33  1  0  0  0  0
  5 10  1  0  0  0  0
  5 11  1  0  0  0  0
  5 14  1  0  0  0  0
  6 12  1  0  0  0  0
  6 13  1  0  0  0  0
  6 16  1  0  0  0  0
  7  9  1  0  0  0  0
  7 17  1  0  0  0  0
  7 18  1  0  0  0  0
  8 14  2  0  0  0  0
  8 19  1  0  0  0  0
  9 28  1  0  0  0  0
  9 52  1  0  0  0  0
 10 12  1  0  0  0  0
 10 35  1  0  0  0  0
 10 36  1  0  0  0  0
 11 13  1  0  0  0  0
 11 37  1  0  0  0  0
 11 38  1  0  0  0  0
 12 39  1  0  0  0  0
 12 40  1  0  0  0  0
 13 41  1  0  0  0  0
 13 42  1  0  0  0  0
 14 15  1  0  0  0  0
 15 17  1  0  0  0  0
 15 20  2  0  0  0  0
 16 43  1  0  0  0  0
 16 44  1  0  0  0  0
 16 45  1  0  0  0  0
 17 21  2  0  0  0  0
 18 19  2  0  0  0  0
 18 23  1  0  0  0  0
 19 24  1  0  0  0  0
 20 22  1  0  0  0  0
 20 46  1  0  0  0  0
 21 25  1  0  0  0  0
 21 47  1  0  0  0  0
 22 25  2  0  0  0  0
 22 48  1  0  0  0  0
 23 26  2  0  0  0  0
 23 49  1  0  0  0  0
 24 27  2  0  0  0  0
 24 50  1  0  0  0  0
 25 51  1  0  0  0  0
 26 27  1  0  0  0  0
 26 53  1  0  0  0  0
 28 29  1  0  0  0  0
 29 30  2  0  0  0  0
 30 31  1  0  0  0  0
 30 54  1  0  0  0  0
 31 32  2  0  0  0  0
 32 55  1  0  0  0  0
 33 34  1  0  0  0  0
 33 56  1  0  0  0  0
 33 57  1  0  0  0  0
 34 58  1  0  0  0  0
 34 59  1  0  0  0  0
 34 60  1  0  0  0  0
M  END
> <PUBCHEM_COMPOUND_CID>
44415657

> <PUBCHEM_COMPOUND_CANONICALIZED>
1

> <PUBCHEM_CACTVS_COMPLEXITY>
749

> <PUBCHEM_CACTVS_HBOND_ACCEPTOR>
6

> <PUBCHEM_CACTVS_HBOND_DONOR>
1

> <PUBCHEM_CACTVS_ROTATABLE_BOND>
5

> <PUBCHEM_CACTVS_SUBSKEYS>
AAADceB7sABEAAAAAAAAAAAAAAAAASAAAAA8YIAABAAAAAAB0AAAHgYYAAAADA7l2Cazx4NiBAisAidydACDDIElLxBbqBsuftgMZvLl/5uWOSjkgBDo6Yc6gAAOAABAAAICACAAAIAABAQAQAAAAAAAAA==

> <PUBCHEM_IUPAC_OPENEYE_NAME>
N-[3-chloro-6-(4-methylpiperazin-1-yl)benzo[b][1,4]benzodiazepin-11-yl]-4-ethoxy-thiophene-2-carboxamide

> <PUBCHEM_IUPAC_CAS_NAME>
N-[3-chloro-6-(4-methyl-1-piperazinyl)-11-benzo[b][1,4]benzodiazepinyl]-4-ethoxy-2-thiophenecarboxamide

> <PUBCHEM_IUPAC_NAME_MARKUP>
<I>N</I>-[3-chloro-6-(4-methylpiperazin-1-yl)benzo[b][1,4]benzodiazepin-11-yl]-4-ethoxythiophene-2-carboxamide

> <PUBCHEM_IUPAC_NAME>
N-[3-chloro-6-(4-methylpiperazin-1-yl)benzo[b][1,4]benzodiazepin-11-yl]-4-ethoxythiophene-2-carboxamide

> <PUBCHEM_IUPAC_SYSTEMATIC_NAME>
N-[3-chloranyl-6-(4-methylpiperazin-1-yl)benzo[b][1,4]benzodiazepin-11-yl]-4-ethoxy-thiophene-2-carboxamide

> <PUBCHEM_IUPAC_TRADITIONAL_NAME>
N-[3-chloro-6-(4-methylpiperazino)benzo[b][1,4]benzodiazepin-11-yl]-4-ethoxy-thiophene-2-carboxamide

> <PUBCHEM_IUPAC_INCHI>
InChI=1S/C25H26ClN5O2S/c1-3-33-18-15-23(34-16-18)25(32)28-31-21-7-5-4-6-19(21)24(30-12-10-29(2)11-13-30)27-20-14-17(26)8-9-22(20)31/h4-9,14-16H,3,10-13H2,1-2H3,(H,28,32)

> <PUBCHEM_IUPAC_INCHIKEY>
RHBLTDJVNDWGHH-UHFFFAOYSA-N

> <PUBCHEM_XLOGP3_AA>
4.7

> <PUBCHEM_EXACT_MASS>
495.1495740

> <PUBCHEM_MOLECULAR_FORMULA>
C25H26ClN5O2S

> <PUBCHEM_MOLECULAR_WEIGHT>
496.0

> <PUBCHEM_OPENEYE_CAN_SMILES>
CCOC1=CSC(=C1)C(=O)NN2C3=C(C=C(C=C3)Cl)N=C(C4=CC=CC=C42)N5CCN(CC5)C

> <PUBCHEM_OPENEYE_ISO_SMILES>
CCOC1=CSC(=C1)C(=O)NN2C3=C(C=C(C=C3)Cl)N=C(C4=CC=CC=C42)N5CCN(CC5)C

> <PUBCHEM_CACTVS_TPSA>
88.6

> <PUBCHEM_MONOISOTOPIC_WEIGHT>
495.1495740

> <PUBCHEM_TOTAL_CHARGE>
0

> <PUBCHEM_HEAVY_ATOM_COUNT>
34

> <PUBCHEM_ATOM_DEF_STEREO_COUNT>
0

> <PUBCHEM_ATOM_UDEF_STEREO_COUNT>
0

> <PUBCHEM_BOND_DEF_STEREO_COUNT>
0

> <PUBCHEM_BOND_UDEF_STEREO_COUNT>
0

> <PUBCHEM_ISOTOPIC_ATOM_COUNT>
0

> <PUBCHEM_COMPONENT_COUNT>
1

> <PUBCHEM_CACTVS_TAUTO_COUNT>
-1

> <PUBCHEM_COORDINATE_TYPE>
1
5
255

> <PUBCHEM_BONDANNOTATIONS>
15  17  8
15  20  8
17  21  8
18  19  8
18  23  8
19  24  8
2  29  8
2  32  8
20  22  8
21  25  8
22  25  8
23  26  8
24  27  8
26  27  8
29  30  8
30  31  8
31  32  8

$$$$
