12461787
  -OEChem-09292322472D

 32 33  0     0  0  0  0  0  0999 V2000
    6.7619   -1.4680    0.0000 O   0  0  0  0  0  0  0  0  0  0  0  0
    4.6783   -1.4067    0.0000 N   0  0  0  0  0  0  0  0  0  0  0  0
    6.7619    0.2640    0.0000 N   0  0  0  0  0  0  0  0  0  0  0  0
    8.2619    1.1300    0.0000 C   0  0  0  0  0  0  0  0  0  0  0  0
    7.7619    0.2640    0.0000 C   0  0  0  0  0  0  0  0  0  0  0  0
    5.2619   -0.6020    0.0000 C   0  0  0  0  0  0  0  0  0  0  0  0
    9.2619    1.1300    0.0000 C   0  0  0  0  0  0  0  0  0  0  0  0
    3.7320   -1.1020    0.0000 C   0  0  0  0  0  0  0  0  0  0  0  0
    3.7320   -0.1020    0.0000 C   0  0  0  0  0  0  0  0  0  0  0  0
    4.6783    0.2027    0.0000 C   0  0  0  0  0  0  0  0  0  0  0  0
    6.2619   -0.6020    0.0000 C   0  0  0  0  0  0  0  0  0  0  0  0
    2.8660   -1.6020    0.0000 C   0  0  0  0  0  0  0  0  0  0  0  0
    2.8660    0.3980    0.0000 C   0  0  0  0  0  0  0  0  0  0  0  0
    9.7619    1.9961    0.0000 C   0  0  0  0  0  0  0  0  0  0  0  0
    2.0000   -1.1020    0.0000 C   0  0  0  0  0  0  0  0  0  0  0  0
    2.0000   -0.1020    0.0000 C   0  0  0  0  0  0  0  0  0  0  0  0
    8.3695    1.7406    0.0000 H   0  0  0  0  0  0  0  0  0  0  0  0
    7.6793    1.3421    0.0000 H   0  0  0  0  0  0  0  0  0  0  0  0
    7.6542   -0.3466    0.0000 H   0  0  0  0  0  0  0  0  0  0  0  0
    8.3445    0.0520    0.0000 H   0  0  0  0  0  0  0  0  0  0  0  0
    9.1542    0.5195    0.0000 H   0  0  0  0  0  0  0  0  0  0  0  0
    9.8445    0.9180    0.0000 H   0  0  0  0  0  0  0  0  0  0  0  0
    4.8709   -1.9961    0.0000 H   0  0  0  0  0  0  0  0  0  0  0  0
    4.8709    0.7920    0.0000 H   0  0  0  0  0  0  0  0  0  0  0  0
    6.4519    0.8010    0.0000 H   0  0  0  0  0  0  0  0  0  0  0  0
    2.8660   -2.2220    0.0000 H   0  0  0  0  0  0  0  0  0  0  0  0
    2.8660    1.0180    0.0000 H   0  0  0  0  0  0  0  0  0  0  0  0
   10.2988    1.6861    0.0000 H   0  0  0  0  0  0  0  0  0  0  0  0
   10.0719    2.5330    0.0000 H   0  0  0  0  0  0  0  0  0  0  0  0
    9.2249    2.3061    0.0000 H   0  0  0  0  0  0  0  0  0  0  0  0
    1.4631   -1.4120    0.0000 H   0  0  0  0  0  0  0  0  0  0  0  0
    1.4631    0.2080    0.0000 H   0  0  0  0  0  0  0  0  0  0  0  0
  1 11  2  0  0  0  0
  2  6  1  0  0  0  0
  2  8  1  0  0  0  0
  2 23  1  0  0  0  0
  3  5  1  0  0  0  0
  3 11  1  0  0  0  0
  3 25  1  0  0  0  0
  4  5  1  0  0  0  0
  4  7  1  0  0  0  0
  4 17  1  0  0  0  0
  4 18  1  0  0  0  0
  5 19  1  0  0  0  0
  5 20  1  0  0  0  0
  6 10  2  0  0  0  0
  6 11  1  0  0  0  0
  7 14  1  0  0  0  0
  7 21  1  0  0  0  0
  7 22  1  0  0  0  0
  8  9  1  0  0  0  0
  8 12  2  0  0  0  0
  9 10  1  0  0  0  0
  9 13  2  0  0  0  0
 10 24  1  0  0  0  0
 12 15  1  0  0  0  0
 12 26  1  0  0  0  0
 13 16  1  0  0  0  0
 13 27  1  0  0  0  0
 14 28  1  0  0  0  0
 14 29  1  0  0  0  0
 14 30  1  0  0  0  0
 15 16  2  0  0  0  0
 15 31  1  0  0  0  0
 16 32  1  0  0  0  0
M  END
> <PUBCHEM_COMPOUND_CID>
12461787

> <PUBCHEM_COMPOUND_CANONICALIZED>
1

> <PUBCHEM_CACTVS_COMPLEXITY>
242

> <PUBCHEM_CACTVS_HBOND_ACCEPTOR>
1

> <PUBCHEM_CACTVS_HBOND_DONOR>
2

> <PUBCHEM_CACTVS_ROTATABLE_BOND>
4

> <PUBCHEM_CACTVS_SUBSKEYS>
AAADceBzIAAAAAAAAAAAAAAAAAAAAWAAAAAwAAAAAAAAAFgB8AAAHgAQAAAADAjBngQywPLJkACoAyVyVACCgCAnAiAImaG4ZNgIYPLAlbGUIQhglgDIyYcYiYCeAAAAAAACAAAAAAAAAAQAAAAAAAAAAA==

> <PUBCHEM_IUPAC_OPENEYE_NAME>
N-butyl-1H-indole-2-carboxamide

> <PUBCHEM_IUPAC_CAS_NAME>
N-butyl-1H-indole-2-carboxamide

> <PUBCHEM_IUPAC_NAME_MARKUP>
<I>N</I>-butyl-1<I>H</I>-indole-2-carboxamide

> <PUBCHEM_IUPAC_NAME>
N-butyl-1H-indole-2-carboxamide

> <PUBCHEM_IUPAC_SYSTEMATIC_NAME>
N-butyl-1H-indole-2-carboxamide

> <PUBCHEM_IUPAC_TRADITIONAL_NAME>
N-butyl-1H-indole-2-carboxamide

> <PUBCHEM_IUPAC_INCHI>
InChI=1S/C13H16N2O/c1-2-3-8-14-13(16)12-9-10-6-4-5-7-11(10)15-12/h4-7,9,15H,2-3,8H2,1H3,(H,14,16)

> <PUBCHEM_IUPAC_INCHIKEY>
LEXAFGYQTMMLCP-UHFFFAOYSA-N

> <PUBCHEM_XLOGP3>
3.3

> <PUBCHEM_EXACT_MASS>
216.126263138

> <PUBCHEM_MOLECULAR_FORMULA>
C13H16N2O

> <PUBCHEM_MOLECULAR_WEIGHT>
216.28

> <PUBCHEM_OPENEYE_CAN_SMILES>
CCCCNC(=O)C1=CC2=CC=CC=C2N1

> <PUBCHEM_OPENEYE_ISO_SMILES>
CCCCNC(=O)C1=CC2=CC=CC=C2N1

> <PUBCHEM_CACTVS_TPSA>
44.9

> <PUBCHEM_MONOISOTOPIC_WEIGHT>
216.126263138

> <PUBCHEM_TOTAL_CHARGE>
0

> <PUBCHEM_HEAVY_ATOM_COUNT>
16

> <PUBCHEM_ATOM_DEF_STEREO_COUNT>
0

> <PUBCHEM_ATOM_UDEF_STEREO_COUNT>
0

> <PUBCHEM_BOND_DEF_STEREO_COUNT>
0

> <PUBCHEM_BOND_UDEF_STEREO_COUNT>
0

> <PUBCHEM_ISOTOPIC_ATOM_COUNT>
0

> <PUBCHEM_COMPONENT_COUNT>
1

> <PUBCHEM_CACTVS_TAUTO_COUNT>
-1

> <PUBCHEM_COORDINATE_TYPE>
1
5
255

> <PUBCHEM_BONDANNOTATIONS>
12  15  8
13  16  8
15  16  8
2  6  8
2  8  8
6  10  8
8  12  8
8  9  8
9  10  8
9  13  8

$$$$
