71541278
  -OEChem-09292322052D

 38 41  0     1  0  0  0  0  0999 V2000
    4.1087   -2.6715    0.0000 S   0  0  0  0  0  0  0  0  0  0  0  0
    5.8262    1.9128    0.0000 N   0  0  3  0  0  0  0  0  0  0  0  0
    7.9140    3.5878    0.0000 N   0  0  0  0  0  0  0  0  0  0  0  0
    2.7149   -1.8668    0.0000 N   0  0  0  0  0  0  0  0  0  0  0  0
    8.8651    2.2788    0.0000 N   0  0  0  0  0  0  0  0  0  0  0  0
    2.6200   -3.6406    0.0000 N   0  0  0  0  0  0  0  0  0  0  0  0
    6.3798    1.1032    0.0000 C   0  0  0  0  0  0  0  0  0  0  0  0
    4.8483    1.9874    0.0000 C   0  0  0  0  0  0  0  0  0  0  0  0
    6.0945    0.1648    0.0000 C   0  0  0  0  0  0  0  0  0  0  0  0
    4.1783    1.2711    0.0000 C   0  0  0  0  0  0  0  0  0  0  0  0
    5.1840   -0.1997    0.0000 C   0  0  0  0  0  0  0  0  0  0  0  0
    4.3179    0.3003    0.0000 C   0  0  0  0  0  0  0  0  0  0  0  0
    6.3262    2.7788    0.0000 C   0  0  0  0  0  0  0  0  0  0  0  0
    5.1840   -1.1997    0.0000 C   0  0  0  0  0  0  0  0  0  0  0  0
    3.4519   -0.1997    0.0000 C   0  0  0  0  0  0  0  0  0  0  0  0
    4.3179   -1.6997    0.0000 C   0  0  0  0  0  0  0  0  0  0  0  0
    3.4519   -1.1997    0.0000 C   0  0  0  0  0  0  0  0  0  0  0  0
    7.3262    2.7788    0.0000 C   0  0  0  0  0  0  0  0  0  0  0  0
    7.9140    1.9698    0.0000 C   0  0  0  0  0  0  0  0  0  0  0  0
    3.1200   -2.7745    0.0000 C   0  0  0  0  0  0  0  0  0  0  0  0
    8.8651    3.2788    0.0000 C   0  0  0  0  0  0  0  0  0  0  0  0
    6.9177    0.7949    0.0000 H   0  0  0  0  0  0  0  0  0  0  0  0
    6.8005    1.5586    0.0000 H   0  0  0  0  0  0  0  0  0  0  0  0
    5.0324    2.5794    0.0000 H   0  0  0  0  0  0  0  0  0  0  0  0
    4.3123    2.2991    0.0000 H   0  0  0  0  0  0  0  0  0  0  0  0
    6.1905   -0.4477    0.0000 H   0  0  0  0  0  0  0  0  0  0  0  0
    6.7130    0.1215    0.0000 H   0  0  0  0  0  0  0  0  0  0  0  0
    3.8316    1.7851    0.0000 H   0  0  0  0  0  0  0  0  0  0  0  0
    3.5998    1.0480    0.0000 H   0  0  0  0  0  0  0  0  0  0  0  0
    6.4339    3.3894    0.0000 H   0  0  0  0  0  0  0  0  0  0  0  0
    5.7436    2.9909    0.0000 H   0  0  0  0  0  0  0  0  0  0  0  0
    5.7209   -1.5097    0.0000 H   0  0  0  0  0  0  0  0  0  0  0  0
    2.9150    0.1103    0.0000 H   0  0  0  0  0  0  0  0  0  0  0  0
    7.7224    4.1775    0.0000 H   0  0  0  0  0  0  0  0  0  0  0  0
    7.7224    1.3802    0.0000 H   0  0  0  0  0  0  0  0  0  0  0  0
    9.3667    3.6432    0.0000 H   0  0  0  0  0  0  0  0  0  0  0  0
    2.0000   -3.6406    0.0000 H   0  0  0  0  0  0  0  0  0  0  0  0
    2.9300   -4.1775    0.0000 H   0  0  0  0  0  0  0  0  0  0  0  0
  1 16  1  0  0  0  0
  1 20  1  0  0  0  0
  2  7  1  0  0  0  0
  2  8  1  0  0  0  0
  2 13  1  0  0  0  0
  3 18  1  0  0  0  0
  3 21  1  0  0  0  0
  3 34  1  0  0  0  0
  4 17  1  0  0  0  0
  4 20  2  0  0  0  0
  5 19  1  0  0  0  0
  5 21  2  0  0  0  0
  6 20  1  0  0  0  0
  6 37  1  0  0  0  0
  6 38  1  0  0  0  0
  7  9  1  0  0  0  0
  7 22  1  0  0  0  0
  7 23  1  0  0  0  0
  8 10  1  0  0  0  0
  8 24  1  0  0  0  0
  8 25  1  0  0  0  0
  9 11  1  0  0  0  0
  9 26  1  0  0  0  0
  9 27  1  0  0  0  0
 10 12  1  0  0  0  0
 10 28  1  0  0  0  0
 10 29  1  0  0  0  0
 11 12  1  0  0  0  0
 11 14  2  0  0  0  0
 12 15  2  0  0  0  0
 13 18  1  0  0  0  0
 13 30  1  0  0  0  0
 13 31  1  0  0  0  0
 14 16  1  0  0  0  0
 14 32  1  0  0  0  0
 15 17  1  0  0  0  0
 15 33  1  0  0  0  0
 16 17  2  0  0  0  0
 18 19  2  0  0  0  0
 19 35  1  0  0  0  0
 21 36  1  0  0  0  0
M  END
> <PUBCHEM_COMPOUND_CID>
71541278

> <PUBCHEM_COMPOUND_CANONICALIZED>
1

> <PUBCHEM_CACTVS_COMPLEXITY>
368

> <PUBCHEM_CACTVS_HBOND_ACCEPTOR>
5

> <PUBCHEM_CACTVS_HBOND_DONOR>
2

> <PUBCHEM_CACTVS_ROTATABLE_BOND>
2

> <PUBCHEM_CACTVS_SUBSKEYS>
AAADceBzgABAAAAAAAAAAAAAAAAAAWLAAAAwAAAABYAAAFgB/AAAHAQQAAAADAjBXgQ90bfJkAikAzRnZACD8K3xGrlB2bw4dJiIaKLg2ZGUIAhokALIyCcQgIAOmAAAwAAQAQAwAAGAACACAAAAAAAAAA==

> <PUBCHEM_IUPAC_OPENEYE_NAME>
7-(1H-imidazol-5-ylmethyl)-5,6,8,9-tetrahydrothiazolo[4,5-h][3]benzazepin-2-amine

> <PUBCHEM_IUPAC_CAS_NAME>
7-(1H-imidazol-5-ylmethyl)-5,6,8,9-tetrahydrothiazolo[4,5-h][3]benzazepin-2-amine

> <PUBCHEM_IUPAC_NAME_MARKUP>
7-(1<I>H</I>-imidazol-5-ylmethyl)-5,6,8,9-tetrahydro-[1,3]thiazolo[4,5-h][3]benzazepin-2-amine

> <PUBCHEM_IUPAC_NAME>
7-(1H-imidazol-5-ylmethyl)-5,6,8,9-tetrahydro-[1,3]thiazolo[4,5-h][3]benzazepin-2-amine

> <PUBCHEM_IUPAC_SYSTEMATIC_NAME>
7-(1H-imidazol-5-ylmethyl)-5,6,8,9-tetrahydro-[1,3]thiazolo[4,5-h][3]benzazepin-2-amine

> <PUBCHEM_IUPAC_TRADITIONAL_NAME>
[7-(1H-imidazol-5-ylmethyl)-5,6,8,9-tetrahydrothiazolo[4,5-h][3]benzazepin-2-yl]amine

> <PUBCHEM_IUPAC_INCHI>
InChI=1S/C15H17N5S/c16-15-19-13-5-10-1-3-20(8-12-7-17-9-18-12)4-2-11(10)6-14(13)21-15/h5-7,9H,1-4,8H2,(H2,16,19)(H,17,18)

> <PUBCHEM_IUPAC_INCHIKEY>
HCQFHRLKBNOPPR-UHFFFAOYSA-N

> <PUBCHEM_XLOGP3_AA>
2

> <PUBCHEM_EXACT_MASS>
299.12046674

> <PUBCHEM_MOLECULAR_FORMULA>
C15H17N5S

> <PUBCHEM_MOLECULAR_WEIGHT>
299.4

> <PUBCHEM_OPENEYE_CAN_SMILES>
C1CN(CCC2=CC3=C(C=C21)N=C(S3)N)CC4=CN=CN4

> <PUBCHEM_OPENEYE_ISO_SMILES>
C1CN(CCC2=CC3=C(C=C21)N=C(S3)N)CC4=CN=CN4

> <PUBCHEM_CACTVS_TPSA>
99.1

> <PUBCHEM_MONOISOTOPIC_WEIGHT>
299.12046674

> <PUBCHEM_TOTAL_CHARGE>
0

> <PUBCHEM_HEAVY_ATOM_COUNT>
21

> <PUBCHEM_ATOM_DEF_STEREO_COUNT>
0

> <PUBCHEM_ATOM_UDEF_STEREO_COUNT>
0

> <PUBCHEM_BOND_DEF_STEREO_COUNT>
0

> <PUBCHEM_BOND_UDEF_STEREO_COUNT>
0

> <PUBCHEM_ISOTOPIC_ATOM_COUNT>
0

> <PUBCHEM_COMPONENT_COUNT>
1

> <PUBCHEM_CACTVS_TAUTO_COUNT>
-1

> <PUBCHEM_COORDINATE_TYPE>
1
5
255

> <PUBCHEM_BONDANNOTATIONS>
1  16  8
1  20  8
11  12  8
11  14  8
12  15  8
14  16  8
15  17  8
16  17  8
18  19  8
3  18  8
3  21  8
4  17  8
4  20  8
5  19  8
5  21  8

$$$$
