44436751
  -OEChem-09292322252D

 64 69  0     0  0  0  0  0  0999 V2000
    3.3736    5.0805    0.0000 S   0  0  0  0  0  0  0  0  0  0  0  0
    4.5535    6.6767    0.0000 O   0  0  0  0  0  0  0  0  0  0  0  0
    2.0000   -3.6878    0.0000 O   0  0  0  0  0  0  0  0  0  0  0  0
    5.5105   -3.6878    0.0000 O   0  0  0  0  0  0  0  0  0  0  0  0
    5.4873    0.5851    0.0000 N   0  0  0  0  0  0  0  0  0  0  0  0
    3.7552   -3.4149    0.0000 N   0  0  0  0  0  0  0  0  0  0  0  0
    6.3534    1.0851    0.0000 C   0  0  0  0  0  0  0  0  0  0  0  0
    4.6213    1.0851    0.0000 C   0  0  0  0  0  0  0  0  0  0  0  0
    5.4874    2.5851    0.0000 C   0  0  0  0  0  0  0  0  0  0  0  0
    6.3534    2.0851    0.0000 C   0  0  0  0  0  0  0  0  0  0  0  0
    4.6213    2.0851    0.0000 C   0  0  0  0  0  0  0  0  0  0  0  0
    5.4873   -0.4149    0.0000 C   0  0  0  0  0  0  0  0  0  0  0  0
    5.4874    3.5851    0.0000 C   0  0  0  0  0  0  0  0  0  0  0  0
    4.6213   -0.9149    0.0000 C   0  0  0  0  0  0  0  0  0  0  0  0
    4.6213   -1.9149    0.0000 C   0  0  0  0  0  0  0  0  0  0  0  0
    6.3883    4.0190    0.0000 C   0  0  0  0  0  0  0  0  0  0  0  0
    4.5864    4.0190    0.0000 C   0  0  0  0  0  0  0  0  0  0  0  0
    3.7553   -2.4149    0.0000 C   0  0  0  0  0  0  0  0  0  0  0  0
    6.6109    4.9939    0.0000 C   0  0  0  0  0  0  0  0  0  0  0  0
    4.3639    4.9940    0.0000 C   0  0  0  0  0  0  0  0  0  0  0  0
    5.9874    5.7758    0.0000 C   0  0  0  0  0  0  0  0  0  0  0  0
    7.1409    3.2988    0.0000 C   0  0  0  0  0  0  0  0  0  0  0  0
    4.9874    5.7758    0.0000 C   0  0  0  0  0  0  0  0  0  0  0  0
    3.7317    3.5114    0.0000 C   0  0  0  0  0  0  0  0  0  0  0  0
    7.6014    5.3163    0.0000 C   0  0  0  0  0  0  0  0  0  0  0  0
    2.9505   -3.9985    0.0000 C   0  0  0  0  0  0  0  0  0  0  0  0
    4.5600   -3.9985    0.0000 C   0  0  0  0  0  0  0  0  0  0  0  0
    2.9837    4.1661    0.0000 C   0  0  0  0  0  0  0  0  0  0  0  0
    3.2552   -4.9447    0.0000 C   0  0  0  0  0  0  0  0  0  0  0  0
    4.2552   -4.9447    0.0000 C   0  0  0  0  0  0  0  0  0  0  0  0
    8.1386    3.5982    0.0000 C   0  0  0  0  0  0  0  0  0  0  0  0
    8.3704    4.6137    0.0000 C   0  0  0  0  0  0  0  0  0  0  0  0
    2.7552   -5.8107    0.0000 C   0  0  0  0  0  0  0  0  0  0  0  0
    4.7552   -5.8107    0.0000 C   0  0  0  0  0  0  0  0  0  0  0  0
    3.2552   -6.6767    0.0000 C   0  0  0  0  0  0  0  0  0  0  0  0
    4.2552   -6.6767    0.0000 C   0  0  0  0  0  0  0  0  0  0  0  0
    6.5654    0.5025    0.0000 H   0  0  0  0  0  0  0  0  0  0  0  0
    6.9640    1.1928    0.0000 H   0  0  0  0  0  0  0  0  0  0  0  0
    4.0107    1.1928    0.0000 H   0  0  0  0  0  0  0  0  0  0  0  0
    4.4093    0.5025    0.0000 H   0  0  0  0  0  0  0  0  0  0  0  0
    6.9640    1.9774    0.0000 H   0  0  0  0  0  0  0  0  0  0  0  0
    6.5654    2.6677    0.0000 H   0  0  0  0  0  0  0  0  0  0  0  0
    4.4093    2.6677    0.0000 H   0  0  0  0  0  0  0  0  0  0  0  0
    4.0107    1.9775    0.0000 H   0  0  0  0  0  0  0  0  0  0  0  0
    5.6994   -0.9975    0.0000 H   0  0  0  0  0  0  0  0  0  0  0  0
    6.0979   -0.3072    0.0000 H   0  0  0  0  0  0  0  0  0  0  0  0
    4.4092   -0.3323    0.0000 H   0  0  0  0  0  0  0  0  0  0  0  0
    4.0107   -1.0225    0.0000 H   0  0  0  0  0  0  0  0  0  0  0  0
    4.8333   -2.4975    0.0000 H   0  0  0  0  0  0  0  0  0  0  0  0
    5.2319   -1.8072    0.0000 H   0  0  0  0  0  0  0  0  0  0  0  0
    3.5432   -1.8322    0.0000 H   0  0  0  0  0  0  0  0  0  0  0  0
    3.1447   -2.5225    0.0000 H   0  0  0  0  0  0  0  0  0  0  0  0
    6.5460    6.0448    0.0000 H   0  0  0  0  0  0  0  0  0  0  0  0
    5.8494    6.3802    0.0000 H   0  0  0  0  0  0  0  0  0  0  0  0
    6.9959    2.6960    0.0000 H   0  0  0  0  0  0  0  0  0  0  0  0
    3.6750    2.8940    0.0000 H   0  0  0  0  0  0  0  0  0  0  0  0
    7.7323    5.9223    0.0000 H   0  0  0  0  0  0  0  0  0  0  0  0
    2.3792    4.0281    0.0000 H   0  0  0  0  0  0  0  0  0  0  0  0
    8.5914    3.1747    0.0000 H   0  0  0  0  0  0  0  0  0  0  0  0
    8.9621    4.7987    0.0000 H   0  0  0  0  0  0  0  0  0  0  0  0
    2.1352   -5.8107    0.0000 H   0  0  0  0  0  0  0  0  0  0  0  0
    5.3752   -5.8107    0.0000 H   0  0  0  0  0  0  0  0  0  0  0  0
    2.9452   -7.2137    0.0000 H   0  0  0  0  0  0  0  0  0  0  0  0
    4.5652   -7.2137    0.0000 H   0  0  0  0  0  0  0  0  0  0  0  0
  1 20  1  0  0  0  0
  1 28  1  0  0  0  0
  2 23  2  0  0  0  0
  3 26  2  0  0  0  0
  4 27  2  0  0  0  0
  5  7  1  0  0  0  0
  5  8  1  0  0  0  0
  5 12  1  0  0  0  0
  6 18  1  0  0  0  0
  6 26  1  0  0  0  0
  6 27  1  0  0  0  0
  7 10  1  0  0  0  0
  7 37  1  0  0  0  0
  7 38  1  0  0  0  0
  8 11  1  0  0  0  0
  8 39  1  0  0  0  0
  8 40  1  0  0  0  0
  9 10  1  0  0  0  0
  9 11  1  0  0  0  0
  9 13  2  0  0  0  0
 10 41  1  0  0  0  0
 10 42  1  0  0  0  0
 11 43  1  0  0  0  0
 11 44  1  0  0  0  0
 12 14  1  0  0  0  0
 12 45  1  0  0  0  0
 12 46  1  0  0  0  0
 13 16  1  0  0  0  0
 13 17  1  0  0  0  0
 14 15  1  0  0  0  0
 14 47  1  0  0  0  0
 14 48  1  0  0  0  0
 15 18  1  0  0  0  0
 15 49  1  0  0  0  0
 15 50  1  0  0  0  0
 16 19  1  0  0  0  0
 16 22  2  0  0  0  0
 17 20  2  0  0  0  0
 17 24  1  0  0  0  0
 18 51  1  0  0  0  0
 18 52  1  0  0  0  0
 19 21  1  0  0  0  0
 19 25  2  0  0  0  0
 20 23  1  0  0  0  0
 21 23  1  0  0  0  0
 21 53  1  0  0  0  0
 21 54  1  0  0  0  0
 22 31  1  0  0  0  0
 22 55  1  0  0  0  0
 24 28  2  0  0  0  0
 24 56  1  0  0  0  0
 25 32  1  0  0  0  0
 25 57  1  0  0  0  0
 26 29  1  0  0  0  0
 27 30  1  0  0  0  0
 28 58  1  0  0  0  0
 29 30  1  0  0  0  0
 29 33  2  0  0  0  0
 30 34  2  0  0  0  0
 31 32  2  0  0  0  0
 31 59  1  0  0  0  0
 32 60  1  0  0  0  0
 33 35  1  0  0  0  0
 33 61  1  0  0  0  0
 34 36  1  0  0  0  0
 34 62  1  0  0  0  0
 35 36  2  0  0  0  0
 35 63  1  0  0  0  0
 36 64  1  0  0  0  0
M  END
> <PUBCHEM_COMPOUND_CID>
44436751

> <PUBCHEM_COMPOUND_CANONICALIZED>
1

> <PUBCHEM_CACTVS_COMPLEXITY>
882

> <PUBCHEM_CACTVS_HBOND_ACCEPTOR>
5

> <PUBCHEM_CACTVS_HBOND_DONOR>
0

> <PUBCHEM_CACTVS_ROTATABLE_BOND>
5

> <PUBCHEM_CACTVS_SUBSKEYS>
AAADceB7MABAAAAAAAAAAAAAAAAAAWJAAAA8YIAABgAAAFiR0AAAHgQAAAAADATF2ASwAYMAAAiMAqFSEACDAIAkCBBIiBkIBMgIIDKglRGEIQhghiCoiYcdiMCOgAAAAAAQAAAAAAAAACAAAAAAAAAAAA==

> <PUBCHEM_IUPAC_OPENEYE_NAME>
2-[4-[4-(8-oxo-6-thiatricyclo[8.4.0.03,7]tetradeca-1(14),3(7),4,10,12-pentaen-2-ylidene)-1-piperidyl]butyl]isoindoline-1,3-dione

> <PUBCHEM_IUPAC_CAS_NAME>
2-[4-[4-(8-oxo-6-thiatricyclo[8.4.0.03,7]tetradeca-1(14),3(7),4,10,12-pentaen-2-ylidene)-1-piperidinyl]butyl]isoindole-1,3-dione

> <PUBCHEM_IUPAC_NAME_MARKUP>
2-[4-[4-(8-oxo-6-thiatricyclo[8.4.0.0<SUP>3,7</SUP>]tetradeca-1(14),3(7),4,10,12-pentaen-2-ylidene)piperidin-1-yl]butyl]isoindole-1,3-dione

> <PUBCHEM_IUPAC_NAME>
2-[4-[4-(8-oxo-6-thiatricyclo[8.4.0.03,7]tetradeca-1(14),3(7),4,10,12-pentaen-2-ylidene)piperidin-1-yl]butyl]isoindole-1,3-dione

> <PUBCHEM_IUPAC_SYSTEMATIC_NAME>
2-[4-[4-(8-oxidanylidene-6-thiatricyclo[8.4.0.03,7]tetradeca-1(14),3(7),4,10,12-pentaen-2-ylidene)piperidin-1-yl]butyl]isoindole-1,3-dione

> <PUBCHEM_IUPAC_TRADITIONAL_NAME>
2-[4-[4-(8-keto-6-thiatricyclo[8.4.0.03,7]tetradeca-1(14),3(7),4,10,12-pentaen-2-ylidene)piperidino]butyl]isoindoline-1,3-quinone

> <PUBCHEM_IUPAC_INCHI>
InChI=1S/C30H28N2O3S/c33-26-19-21-7-1-2-8-22(21)27(25-13-18-36-28(25)26)20-11-16-31(17-12-20)14-5-6-15-32-29(34)23-9-3-4-10-24(23)30(32)35/h1-4,7-10,13,18H,5-6,11-12,14-17,19H2

> <PUBCHEM_IUPAC_INCHIKEY>
REKOUMNGFHDWDG-UHFFFAOYSA-N

> <PUBCHEM_XLOGP3_AA>
4.6

> <PUBCHEM_EXACT_MASS>
496.18206393

> <PUBCHEM_MOLECULAR_FORMULA>
C30H28N2O3S

> <PUBCHEM_MOLECULAR_WEIGHT>
496.6

> <PUBCHEM_OPENEYE_CAN_SMILES>
C1CN(CCC1=C2C3=C(C(=O)CC4=CC=CC=C42)SC=C3)CCCCN5C(=O)C6=CC=CC=C6C5=O

> <PUBCHEM_OPENEYE_ISO_SMILES>
C1CN(CCC1=C2C3=C(C(=O)CC4=CC=CC=C42)SC=C3)CCCCN5C(=O)C6=CC=CC=C6C5=O

> <PUBCHEM_CACTVS_TPSA>
85.9

> <PUBCHEM_MONOISOTOPIC_WEIGHT>
496.18206393

> <PUBCHEM_TOTAL_CHARGE>
0

> <PUBCHEM_HEAVY_ATOM_COUNT>
36

> <PUBCHEM_ATOM_DEF_STEREO_COUNT>
0

> <PUBCHEM_ATOM_UDEF_STEREO_COUNT>
0

> <PUBCHEM_BOND_DEF_STEREO_COUNT>
0

> <PUBCHEM_BOND_UDEF_STEREO_COUNT>
0

> <PUBCHEM_ISOTOPIC_ATOM_COUNT>
0

> <PUBCHEM_COMPONENT_COUNT>
1

> <PUBCHEM_CACTVS_TAUTO_COUNT>
-1

> <PUBCHEM_COORDINATE_TYPE>
1
5
255

> <PUBCHEM_BONDANNOTATIONS>
1  20  8
1  28  8
16  19  8
16  22  8
17  20  8
17  24  8
19  25  8
22  31  8
24  28  8
25  32  8
29  30  8
29  33  8
30  34  8
31  32  8
33  35  8
34  36  8
35  36  8

$$$$
