11350623
  -OEChem-09292322472D

 61 64  0     0  0  0  0  0  0999 V2000
   15.0583   -2.7673    0.0000 O   0  0  0  0  0  0  0  0  0  0  0  0
    6.3981    0.2327    0.0000 O   0  0  0  0  0  0  0  0  0  0  0  0
   11.5942    1.2327    0.0000 N   0  0  0  0  0  0  0  0  0  0  0  0
   13.3263    0.2327    0.0000 N   0  0  0  0  0  0  0  0  0  0  0  0
    7.2641    1.7327    0.0000 N   0  0  0  0  0  0  0  0  0  0  0  0
    4.6660    1.2327    0.0000 N   0  0  0  0  0  0  0  0  0  0  0  0
   11.5942    0.2327    0.0000 C   0  0  0  0  0  0  0  0  0  0  0  0
   12.4603    1.7327    0.0000 C   0  0  0  0  0  0  0  0  0  0  0  0
   12.4603   -0.2673    0.0000 C   0  0  0  0  0  0  0  0  0  0  0  0
   13.3263    1.2327    0.0000 C   0  0  0  0  0  0  0  0  0  0  0  0
   10.7282    1.7327    0.0000 C   0  0  0  0  0  0  0  0  0  0  0  0
    9.8622    1.2327    0.0000 C   0  0  0  0  0  0  0  0  0  0  0  0
   14.1923   -0.2673    0.0000 C   0  0  0  0  0  0  0  0  0  0  0  0
    8.9962    1.7327    0.0000 C   0  0  0  0  0  0  0  0  0  0  0  0
    8.1301    1.2327    0.0000 C   0  0  0  0  0  0  0  0  0  0  0  0
   14.1923   -1.2673    0.0000 C   0  0  0  0  0  0  0  0  0  0  0  0
   15.0583    0.2327    0.0000 C   0  0  0  0  0  0  0  0  0  0  0  0
   15.0583   -1.7673    0.0000 C   0  0  0  0  0  0  0  0  0  0  0  0
   15.9244   -0.2673    0.0000 C   0  0  0  0  0  0  0  0  0  0  0  0
   15.9244   -1.2673    0.0000 C   0  0  0  0  0  0  0  0  0  0  0  0
    6.3981    1.2327    0.0000 C   0  0  0  0  0  0  0  0  0  0  0  0
    5.5321    1.7327    0.0000 C   0  0  0  0  0  0  0  0  0  0  0  0
   15.9244   -3.2673    0.0000 C   0  0  0  0  0  0  0  0  0  0  0  0
    5.5321    2.7327    0.0000 C   0  0  0  0  0  0  0  0  0  0  0  0
    3.8000    1.7327    0.0000 C   0  0  0  0  0  0  0  0  0  0  0  0
    3.8000    2.7327    0.0000 C   0  0  0  0  0  0  0  0  0  0  0  0
    4.6660    3.2327    0.0000 C   0  0  0  0  0  0  0  0  0  0  0  0
    2.9061    1.1980    0.0000 C   0  0  0  0  0  0  0  0  0  0  0  0
    2.9061    3.2673    0.0000 C   0  0  0  0  0  0  0  0  0  0  0  0
    2.0000    1.7118    0.0000 C   0  0  0  0  0  0  0  0  0  0  0  0
    2.0000    2.7535    0.0000 C   0  0  0  0  0  0  0  0  0  0  0  0
   10.9837    0.3403    0.0000 H   0  0  0  0  0  0  0  0  0  0  0  0
   11.3822   -0.3499    0.0000 H   0  0  0  0  0  0  0  0  0  0  0  0
   12.8588    2.2076    0.0000 H   0  0  0  0  0  0  0  0  0  0  0  0
   12.0617    2.2076    0.0000 H   0  0  0  0  0  0  0  0  0  0  0  0
   12.0617   -0.7423    0.0000 H   0  0  0  0  0  0  0  0  0  0  0  0
   12.8588   -0.7423    0.0000 H   0  0  0  0  0  0  0  0  0  0  0  0
   13.9369    1.1250    0.0000 H   0  0  0  0  0  0  0  0  0  0  0  0
   13.5383    1.8153    0.0000 H   0  0  0  0  0  0  0  0  0  0  0  0
   11.1267    2.2076    0.0000 H   0  0  0  0  0  0  0  0  0  0  0  0
   10.3297    2.2076    0.0000 H   0  0  0  0  0  0  0  0  0  0  0  0
    9.4637    0.7577    0.0000 H   0  0  0  0  0  0  0  0  0  0  0  0
   10.2607    0.7577    0.0000 H   0  0  0  0  0  0  0  0  0  0  0  0
    9.3947    2.2076    0.0000 H   0  0  0  0  0  0  0  0  0  0  0  0
    8.5976    2.2076    0.0000 H   0  0  0  0  0  0  0  0  0  0  0  0
    7.7316    0.7577    0.0000 H   0  0  0  0  0  0  0  0  0  0  0  0
    8.5287    0.7577    0.0000 H   0  0  0  0  0  0  0  0  0  0  0  0
   13.6554   -1.5773    0.0000 H   0  0  0  0  0  0  0  0  0  0  0  0
   15.0583    0.8527    0.0000 H   0  0  0  0  0  0  0  0  0  0  0  0
    7.2641    2.3527    0.0000 H   0  0  0  0  0  0  0  0  0  0  0  0
   16.4613    0.0427    0.0000 H   0  0  0  0  0  0  0  0  0  0  0  0
   16.4613   -1.5773    0.0000 H   0  0  0  0  0  0  0  0  0  0  0  0
    6.0690    3.0427    0.0000 H   0  0  0  0  0  0  0  0  0  0  0  0
   15.6144   -3.8043    0.0000 H   0  0  0  0  0  0  0  0  0  0  0  0
   16.4613   -3.5773    0.0000 H   0  0  0  0  0  0  0  0  0  0  0  0
   16.2344   -2.7304    0.0000 H   0  0  0  0  0  0  0  0  0  0  0  0
    4.6660    3.8527    0.0000 H   0  0  0  0  0  0  0  0  0  0  0  0
    2.9132    0.5780    0.0000 H   0  0  0  0  0  0  0  0  0  0  0  0
    2.9132    3.8873    0.0000 H   0  0  0  0  0  0  0  0  0  0  0  0
    1.4643    1.3998    0.0000 H   0  0  0  0  0  0  0  0  0  0  0  0
    1.4643    3.0656    0.0000 H   0  0  0  0  0  0  0  0  0  0  0  0
  1 18  1  0  0  0  0
  1 23  1  0  0  0  0
  2 21  2  0  0  0  0
  3  7  1  0  0  0  0
  3  8  1  0  0  0  0
  3 11  1  0  0  0  0
  4  9  1  0  0  0  0
  4 10  1  0  0  0  0
  4 13  1  0  0  0  0
  5 15  1  0  0  0  0
  5 21  1  0  0  0  0
  5 50  1  0  0  0  0
  6 22  2  0  0  0  0
  6 25  1  0  0  0  0
  7  9  1  0  0  0  0
  7 32  1  0  0  0  0
  7 33  1  0  0  0  0
  8 10  1  0  0  0  0
  8 34  1  0  0  0  0
  8 35  1  0  0  0  0
  9 36  1  0  0  0  0
  9 37  1  0  0  0  0
 10 38  1  0  0  0  0
 10 39  1  0  0  0  0
 11 12  1  0  0  0  0
 11 40  1  0  0  0  0
 11 41  1  0  0  0  0
 12 14  1  0  0  0  0
 12 42  1  0  0  0  0
 12 43  1  0  0  0  0
 13 16  2  0  0  0  0
 13 17  1  0  0  0  0
 14 15  1  0  0  0  0
 14 44  1  0  0  0  0
 14 45  1  0  0  0  0
 15 46  1  0  0  0  0
 15 47  1  0  0  0  0
 16 18  1  0  0  0  0
 16 48  1  0  0  0  0
 17 19  2  0  0  0  0
 17 49  1  0  0  0  0
 18 20  2  0  0  0  0
 19 20  1  0  0  0  0
 19 51  1  0  0  0  0
 20 52  1  0  0  0  0
 21 22  1  0  0  0  0
 22 24  1  0  0  0  0
 23 54  1  0  0  0  0
 23 55  1  0  0  0  0
 23 56  1  0  0  0  0
 24 27  2  0  0  0  0
 24 53  1  0  0  0  0
 25 26  1  0  0  0  0
 25 28  2  0  0  0  0
 26 27  1  0  0  0  0
 26 29  2  0  0  0  0
 27 57  1  0  0  0  0
 28 30  1  0  0  0  0
 28 58  1  0  0  0  0
 29 31  1  0  0  0  0
 29 59  1  0  0  0  0
 30 31  2  0  0  0  0
 30 60  1  0  0  0  0
 31 61  1  0  0  0  0
M  END
> <PUBCHEM_COMPOUND_CID>
11350623

> <PUBCHEM_COMPOUND_CANONICALIZED>
1

> <PUBCHEM_CACTVS_COMPLEXITY>
552

> <PUBCHEM_CACTVS_HBOND_ACCEPTOR>
5

> <PUBCHEM_CACTVS_HBOND_DONOR>
1

> <PUBCHEM_CACTVS_ROTATABLE_BOND>
8

> <PUBCHEM_CACTVS_SUBSKEYS>
AAADceB7sAAAAAAAAAAAAAAAAAAAAAAAAAA8eIEAAAAAAACx9AAAHgAQAAAADAzBngYyxvPIFACoAyVyVACCiCAnIiAImKG+bNgMZvLEtbuUMShm1hnI6YeY2IOOAAAAAgACAAAAAAAEAAQAAAAAAAAAAA==

> <PUBCHEM_IUPAC_OPENEYE_NAME>
N-[4-[4-(3-methoxyphenyl)piperazin-1-yl]butyl]quinoline-2-carboxamide

> <PUBCHEM_IUPAC_CAS_NAME>
N-[4-[4-(3-methoxyphenyl)-1-piperazinyl]butyl]-2-quinolinecarboxamide

> <PUBCHEM_IUPAC_NAME_MARKUP>
<I>N</I>-[4-[4-(3-methoxyphenyl)piperazin-1-yl]butyl]quinoline-2-carboxamide

> <PUBCHEM_IUPAC_NAME>
N-[4-[4-(3-methoxyphenyl)piperazin-1-yl]butyl]quinoline-2-carboxamide

> <PUBCHEM_IUPAC_SYSTEMATIC_NAME>
N-[4-[4-(3-methoxyphenyl)piperazin-1-yl]butyl]quinoline-2-carboxamide

> <PUBCHEM_IUPAC_TRADITIONAL_NAME>
N-[4-[4-(3-methoxyphenyl)piperazino]butyl]quinaldamide

> <PUBCHEM_IUPAC_INCHI>
InChI=1S/C25H30N4O2/c1-31-22-9-6-8-21(19-22)29-17-15-28(16-18-29)14-5-4-13-26-25(30)24-12-11-20-7-2-3-10-23(20)27-24/h2-3,6-12,19H,4-5,13-18H2,1H3,(H,26,30)

> <PUBCHEM_IUPAC_INCHIKEY>
KAXPLEDCXIAJCF-UHFFFAOYSA-N

> <PUBCHEM_XLOGP3_AA>
4.1

> <PUBCHEM_EXACT_MASS>
418.23687621

> <PUBCHEM_MOLECULAR_FORMULA>
C25H30N4O2

> <PUBCHEM_MOLECULAR_WEIGHT>
418.5

> <PUBCHEM_OPENEYE_CAN_SMILES>
COC1=CC=CC(=C1)N2CCN(CC2)CCCCNC(=O)C3=NC4=CC=CC=C4C=C3

> <PUBCHEM_OPENEYE_ISO_SMILES>
COC1=CC=CC(=C1)N2CCN(CC2)CCCCNC(=O)C3=NC4=CC=CC=C4C=C3

> <PUBCHEM_CACTVS_TPSA>
57.7

> <PUBCHEM_MONOISOTOPIC_WEIGHT>
418.23687621

> <PUBCHEM_TOTAL_CHARGE>
0

> <PUBCHEM_HEAVY_ATOM_COUNT>
31

> <PUBCHEM_ATOM_DEF_STEREO_COUNT>
0

> <PUBCHEM_ATOM_UDEF_STEREO_COUNT>
0

> <PUBCHEM_BOND_DEF_STEREO_COUNT>
0

> <PUBCHEM_BOND_UDEF_STEREO_COUNT>
0

> <PUBCHEM_ISOTOPIC_ATOM_COUNT>
0

> <PUBCHEM_COMPONENT_COUNT>
1

> <PUBCHEM_CACTVS_TAUTO_COUNT>
-1

> <PUBCHEM_COORDINATE_TYPE>
1
5
255

> <PUBCHEM_BONDANNOTATIONS>
13  16  8
13  17  8
16  18  8
17  19  8
18  20  8
19  20  8
22  24  8
24  27  8
25  26  8
25  28  8
26  27  8
26  29  8
28  30  8
29  31  8
30  31  8
6  22  8
6  25  8

$$$$
