10643780
  -OEChem-09292322102D

 44 47  0     0  0  0  0  0  0999 V2000
   12.4939    2.0490    0.0000 Cl  0  0  0  0  0  0  0  0  0  0  0  0
   11.4939    3.7811    0.0000 Cl  0  0  0  0  0  0  0  0  0  0  0  0
    8.4939   -1.4151    0.0000 N   0  0  0  0  0  0  0  0  0  0  0  0
    9.4939    0.3170    0.0000 N   0  0  0  0  0  0  0  0  0  0  0  0
    6.4103   -3.0858    0.0000 N   0  0  0  0  0  0  0  0  0  0  0  0
    2.0000   -3.7811    0.0000 N   0  0  0  0  0  0  0  0  0  0  0  0
    9.4939   -1.4151    0.0000 C   0  0  0  0  0  0  0  0  0  0  0  0
    7.9939   -0.5490    0.0000 C   0  0  0  0  0  0  0  0  0  0  0  0
    9.9939   -0.5490    0.0000 C   0  0  0  0  0  0  0  0  0  0  0  0
    8.4939    0.3170    0.0000 C   0  0  0  0  0  0  0  0  0  0  0  0
    7.9939   -2.2811    0.0000 C   0  0  0  0  0  0  0  0  0  0  0  0
    6.9939   -2.2811    0.0000 C   0  0  0  0  0  0  0  0  0  0  0  0
    9.9939    1.1830    0.0000 C   0  0  0  0  0  0  0  0  0  0  0  0
    6.4103   -1.4764    0.0000 C   0  0  0  0  0  0  0  0  0  0  0  0
    5.4641   -2.7811    0.0000 C   0  0  0  0  0  0  0  0  0  0  0  0
    5.4641   -1.7811    0.0000 C   0  0  0  0  0  0  0  0  0  0  0  0
   10.9939    1.1830    0.0000 C   0  0  0  0  0  0  0  0  0  0  0  0
    9.4939    2.0490    0.0000 C   0  0  0  0  0  0  0  0  0  0  0  0
    4.5981   -3.2811    0.0000 C   0  0  0  0  0  0  0  0  0  0  0  0
    4.5981   -1.2811    0.0000 C   0  0  0  0  0  0  0  0  0  0  0  0
   11.4939    2.0490    0.0000 C   0  0  0  0  0  0  0  0  0  0  0  0
    9.9939    2.9151    0.0000 C   0  0  0  0  0  0  0  0  0  0  0  0
    3.7320   -2.7811    0.0000 C   0  0  0  0  0  0  0  0  0  0  0  0
    3.7320   -1.7811    0.0000 C   0  0  0  0  0  0  0  0  0  0  0  0
   10.9939    2.9151    0.0000 C   0  0  0  0  0  0  0  0  0  0  0  0
    2.8660   -3.2811    0.0000 C   0  0  0  0  0  0  0  0  0  0  0  0
    9.3863   -2.0256    0.0000 H   0  0  0  0  0  0  0  0  0  0  0  0
   10.0765   -1.6271    0.0000 H   0  0  0  0  0  0  0  0  0  0  0  0
    7.5190   -0.1505    0.0000 H   0  0  0  0  0  0  0  0  0  0  0  0
    7.5190   -0.9476    0.0000 H   0  0  0  0  0  0  0  0  0  0  0  0
   10.4689   -0.9476    0.0000 H   0  0  0  0  0  0  0  0  0  0  0  0
   10.4689   -0.1505    0.0000 H   0  0  0  0  0  0  0  0  0  0  0  0
    8.6016    0.9276    0.0000 H   0  0  0  0  0  0  0  0  0  0  0  0
    7.9113    0.5290    0.0000 H   0  0  0  0  0  0  0  0  0  0  0  0
    7.8863   -2.8917    0.0000 H   0  0  0  0  0  0  0  0  0  0  0  0
    8.5765   -2.4931    0.0000 H   0  0  0  0  0  0  0  0  0  0  0  0
    6.6029   -3.6751    0.0000 H   0  0  0  0  0  0  0  0  0  0  0  0
    6.6029   -0.8870    0.0000 H   0  0  0  0  0  0  0  0  0  0  0  0
   11.3039    0.6461    0.0000 H   0  0  0  0  0  0  0  0  0  0  0  0
    8.8739    2.0490    0.0000 H   0  0  0  0  0  0  0  0  0  0  0  0
    4.5981   -3.9011    0.0000 H   0  0  0  0  0  0  0  0  0  0  0  0
    4.5981   -0.6611    0.0000 H   0  0  0  0  0  0  0  0  0  0  0  0
    9.6839    3.4520    0.0000 H   0  0  0  0  0  0  0  0  0  0  0  0
    3.1951   -1.4711    0.0000 H   0  0  0  0  0  0  0  0  0  0  0  0
  1 21  1  0  0  0  0
  2 25  1  0  0  0  0
  3  7  1  0  0  0  0
  3  8  1  0  0  0  0
  3 11  1  0  0  0  0
  4  9  1  0  0  0  0
  4 10  1  0  0  0  0
  4 13  1  0  0  0  0
  5 12  1  0  0  0  0
  5 15  1  0  0  0  0
  5 37  1  0  0  0  0
  6 26  3  0  0  0  0
  7  9  1  0  0  0  0
  7 27  1  0  0  0  0
  7 28  1  0  0  0  0
  8 10  1  0  0  0  0
  8 29  1  0  0  0  0
  8 30  1  0  0  0  0
  9 31  1  0  0  0  0
  9 32  1  0  0  0  0
 10 33  1  0  0  0  0
 10 34  1  0  0  0  0
 11 12  1  0  0  0  0
 11 35  1  0  0  0  0
 11 36  1  0  0  0  0
 12 14  2  0  0  0  0
 13 17  2  0  0  0  0
 13 18  1  0  0  0  0
 14 16  1  0  0  0  0
 14 38  1  0  0  0  0
 15 16  2  0  0  0  0
 15 19  1  0  0  0  0
 16 20  1  0  0  0  0
 17 21  1  0  0  0  0
 17 39  1  0  0  0  0
 18 22  2  0  0  0  0
 18 40  1  0  0  0  0
 19 23  2  0  0  0  0
 19 41  1  0  0  0  0
 20 24  2  0  0  0  0
 20 42  1  0  0  0  0
 21 25  2  0  0  0  0
 22 25  1  0  0  0  0
 22 43  1  0  0  0  0
 23 24  1  0  0  0  0
 23 26  1  0  0  0  0
 24 44  1  0  0  0  0
M  END
> <PUBCHEM_COMPOUND_CID>
10643780

> <PUBCHEM_COMPOUND_CANONICALIZED>
1

> <PUBCHEM_CACTVS_COMPLEXITY>
527

> <PUBCHEM_CACTVS_HBOND_ACCEPTOR>
3

> <PUBCHEM_CACTVS_HBOND_DONOR>
1

> <PUBCHEM_CACTVS_ROTATABLE_BOND>
3

> <PUBCHEM_CACTVS_SUBSKEYS>
AAADceB7gAAGAAAAAAAAAAAAAAAAAWAAAAA8YIAAAAAAAFgB9AAAHAIQAAAADArBHiQwwPPJkACwByRiRACigCAhByAIm2A4ZpgI4OLBk5GUIAhgkADIyA8QgMAOQABAQAICAASAAICABAQACAAAAAAAAA==

> <PUBCHEM_IUPAC_OPENEYE_NAME>
2-[[4-(3,4-dichlorophenyl)piperazin-1-yl]methyl]-1H-indole-6-carbonitrile

> <PUBCHEM_IUPAC_CAS_NAME>
2-[[4-(3,4-dichlorophenyl)-1-piperazinyl]methyl]-1H-indole-6-carbonitrile

> <PUBCHEM_IUPAC_NAME_MARKUP>
2-[[4-(3,4-dichlorophenyl)piperazin-1-yl]methyl]-1<I>H</I>-indole-6-carbonitrile

> <PUBCHEM_IUPAC_NAME>
2-[[4-(3,4-dichlorophenyl)piperazin-1-yl]methyl]-1H-indole-6-carbonitrile

> <PUBCHEM_IUPAC_SYSTEMATIC_NAME>
2-[[4-(3,4-dichlorophenyl)piperazin-1-yl]methyl]-1H-indole-6-carbonitrile

> <PUBCHEM_IUPAC_TRADITIONAL_NAME>
2-[[4-(3,4-dichlorophenyl)piperazino]methyl]-1H-indole-6-carbonitrile

> <PUBCHEM_IUPAC_INCHI>
InChI=1S/C20H18Cl2N4/c21-18-4-3-17(11-19(18)22)26-7-5-25(6-8-26)13-16-10-15-2-1-14(12-23)9-20(15)24-16/h1-4,9-11,24H,5-8,13H2

> <PUBCHEM_IUPAC_INCHIKEY>
QHTTYYWWULUJBN-UHFFFAOYSA-N

> <PUBCHEM_XLOGP3_AA>
4.5

> <PUBCHEM_EXACT_MASS>
384.0908520

> <PUBCHEM_MOLECULAR_FORMULA>
C20H18Cl2N4

> <PUBCHEM_MOLECULAR_WEIGHT>
385.3

> <PUBCHEM_OPENEYE_CAN_SMILES>
C1CN(CCN1CC2=CC3=C(N2)C=C(C=C3)C#N)C4=CC(=C(C=C4)Cl)Cl

> <PUBCHEM_OPENEYE_ISO_SMILES>
C1CN(CCN1CC2=CC3=C(N2)C=C(C=C3)C#N)C4=CC(=C(C=C4)Cl)Cl

> <PUBCHEM_CACTVS_TPSA>
46.1

> <PUBCHEM_MONOISOTOPIC_WEIGHT>
384.0908520

> <PUBCHEM_TOTAL_CHARGE>
0

> <PUBCHEM_HEAVY_ATOM_COUNT>
26

> <PUBCHEM_ATOM_DEF_STEREO_COUNT>
0

> <PUBCHEM_ATOM_UDEF_STEREO_COUNT>
0

> <PUBCHEM_BOND_DEF_STEREO_COUNT>
0

> <PUBCHEM_BOND_UDEF_STEREO_COUNT>
0

> <PUBCHEM_ISOTOPIC_ATOM_COUNT>
0

> <PUBCHEM_COMPONENT_COUNT>
1

> <PUBCHEM_CACTVS_TAUTO_COUNT>
-1

> <PUBCHEM_COORDINATE_TYPE>
1
5
255

> <PUBCHEM_BONDANNOTATIONS>
12  14  8
13  17  8
13  18  8
14  16  8
15  16  8
15  19  8
16  20  8
17  21  8
18  22  8
19  23  8
20  24  8
21  25  8
22  25  8
23  24  8
5  12  8
5  15  8

$$$$
