126533801
  -OEChem-09292322372D

 67 71  0     1  0  0  0  0  0999 V2000
   11.0845    2.2926    0.0000 S   0  0  0  0  0  0  0  0  0  0  0  0
    3.6473   -0.6643    0.0000 O   0  0  0  0  0  0  0  0  0  0  0  0
    5.6036   -0.2485    0.0000 N   0  0  3  0  0  0  0  0  0  0  0  0
    8.0845    0.5606    0.0000 N   0  0  3  0  0  0  0  0  0  0  0  0
   12.6722    1.4836    0.0000 N   0  0  0  0  0  0  0  0  0  0  0  0
   12.6722    3.1016    0.0000 N   0  0  0  0  0  0  0  0  0  0  0  0
   13.6233    2.7926    0.0000 N   0  0  0  0  0  0  0  0  0  0  0  0
   15.3459    1.6116    0.0000 N   0  0  0  0  0  0  0  0  0  0  0  0
   15.1368   -0.3775    0.0000 N   0  0  0  0  0  0  0  0  0  0  0  0
    6.5546    1.0606    0.0000 C   0  0  3  0  0  0  0  0  0  0  0  0
    6.5546    0.0606    0.0000 C   0  0  3  0  0  0  0  0  0  0  0  0
    7.5008    1.3653    0.0000 C   0  0  0  0  0  0  0  0  0  0  0  0
    5.6036    1.3696    0.0000 C   0  0  0  0  0  0  0  0  0  0  0  0
    7.5008   -0.2442    0.0000 C   0  0  0  0  0  0  0  0  0  0  0  0
    5.0158    0.5606    0.0000 C   0  0  0  0  0  0  0  0  0  0  0  0
    9.0845    0.5606    0.0000 C   0  0  0  0  0  0  0  0  0  0  0  0
    5.2946   -1.1995    0.0000 C   0  0  0  0  0  0  0  0  0  0  0  0
    9.5845    1.4266    0.0000 C   0  0  0  0  0  0  0  0  0  0  0  0
    4.3164   -1.4074    0.0000 C   0  0  0  0  0  0  0  0  0  0  0  0
    5.9637   -1.9427    0.0000 C   0  0  0  0  0  0  0  0  0  0  0  0
   10.5845    1.4266    0.0000 C   0  0  0  0  0  0  0  0  0  0  0  0
    4.0074   -2.3585    0.0000 C   0  0  0  0  0  0  0  0  0  0  0  0
    5.6547   -2.8937    0.0000 C   0  0  0  0  0  0  0  0  0  0  0  0
    4.6765   -3.1016    0.0000 C   0  0  0  0  0  0  0  0  0  0  0  0
    2.6691   -0.8722    0.0000 C   0  0  0  0  0  0  0  0  0  0  0  0
   12.0845    2.2926    0.0000 C   0  0  0  0  0  0  0  0  0  0  0  0
    2.0000   -0.1290    0.0000 C   0  0  0  0  0  0  0  0  0  0  0  0
    2.3601   -1.8232    0.0000 C   0  0  0  0  0  0  0  0  0  0  0  0
   13.6233    1.7926    0.0000 C   0  0  0  0  0  0  0  0  0  0  0  0
   12.3632    0.5325    0.0000 C   0  0  0  0  0  0  0  0  0  0  0  0
   14.4323    1.2048    0.0000 C   0  0  0  0  0  0  0  0  0  0  0  0
   14.3278    0.2103    0.0000 C   0  0  0  0  0  0  0  0  0  0  0  0
   16.1549    1.0238    0.0000 C   0  0  0  0  0  0  0  0  0  0  0  0
   16.0504    0.0293    0.0000 C   0  0  0  0  0  0  0  0  0  0  0  0
    6.5554    1.6806    0.0000 H   0  0  0  0  0  0  0  0  0  0  0  0
    6.5554   -0.5594    0.0000 H   0  0  0  0  0  0  0  0  0  0  0  0
    8.0382    1.6745    0.0000 H   0  0  0  0  0  0  0  0  0  0  0  0
    7.2498    1.9322    0.0000 H   0  0  0  0  0  0  0  0  0  0  0  0
    5.8557    1.9360    0.0000 H   0  0  0  0  0  0  0  0  0  0  0  0
    5.0666    1.6796    0.0000 H   0  0  0  0  0  0  0  0  0  0  0  0
    7.2498   -0.8111    0.0000 H   0  0  0  0  0  0  0  0  0  0  0  0
    8.0382   -0.5534    0.0000 H   0  0  0  0  0  0  0  0  0  0  0  0
    4.5550    0.9754    0.0000 H   0  0  0  0  0  0  0  0  0  0  0  0
    4.5550    0.1457    0.0000 H   0  0  0  0  0  0  0  0  0  0  0  0
    8.9768   -0.0500    0.0000 H   0  0  0  0  0  0  0  0  0  0  0  0
    9.6671    0.3485    0.0000 H   0  0  0  0  0  0  0  0  0  0  0  0
    9.6921    2.0372    0.0000 H   0  0  0  0  0  0  0  0  0  0  0  0
    9.0018    1.6386    0.0000 H   0  0  0  0  0  0  0  0  0  0  0  0
    6.5701   -1.8138    0.0000 H   0  0  0  0  0  0  0  0  0  0  0  0
   10.4768    0.8160    0.0000 H   0  0  0  0  0  0  0  0  0  0  0  0
   11.1671    1.2145    0.0000 H   0  0  0  0  0  0  0  0  0  0  0  0
    3.4009   -2.4874    0.0000 H   0  0  0  0  0  0  0  0  0  0  0  0
    6.0695   -3.3545    0.0000 H   0  0  0  0  0  0  0  0  0  0  0  0
    4.4849   -3.6913    0.0000 H   0  0  0  0  0  0  0  0  0  0  0  0
    2.8607   -0.2825    0.0000 H   0  0  0  0  0  0  0  0  0  0  0  0
    2.4608    0.2858    0.0000 H   0  0  0  0  0  0  0  0  0  0  0  0
    1.5851    0.3317    0.0000 H   0  0  0  0  0  0  0  0  0  0  0  0
    1.5392   -0.5439    0.0000 H   0  0  0  0  0  0  0  0  0  0  0  0
    1.7705   -1.6317    0.0000 H   0  0  0  0  0  0  0  0  0  0  0  0
    2.1685   -2.4129    0.0000 H   0  0  0  0  0  0  0  0  0  0  0  0
    2.9498   -2.0148    0.0000 H   0  0  0  0  0  0  0  0  0  0  0  0
   11.7736    0.7241    0.0000 H   0  0  0  0  0  0  0  0  0  0  0  0
   12.1716   -0.0571    0.0000 H   0  0  0  0  0  0  0  0  0  0  0  0
   12.9529    0.3409    0.0000 H   0  0  0  0  0  0  0  0  0  0  0  0
   13.7614   -0.0419    0.0000 H   0  0  0  0  0  0  0  0  0  0  0  0
   16.7213    1.2760    0.0000 H   0  0  0  0  0  0  0  0  0  0  0  0
   16.5519   -0.3352    0.0000 H   0  0  0  0  0  0  0  0  0  0  0  0
  1 21  1  0  0  0  0
  1 26  1  0  0  0  0
  2 19  1  0  0  0  0
  2 25  1  0  0  0  0
  3 11  1  0  0  0  0
  3 15  1  0  0  0  0
  3 17  1  0  0  0  0
  4 12  1  0  0  0  0
  4 14  1  0  0  0  0
  4 16  1  0  0  0  0
  5 26  1  0  0  0  0
  5 29  1  0  0  0  0
  5 30  1  0  0  0  0
  6  7  1  0  0  0  0
  6 26  2  0  0  0  0
  7 29  2  0  0  0  0
  8 31  2  0  0  0  0
  8 33  1  0  0  0  0
  9 32  2  0  0  0  0
  9 34  1  0  0  0  0
 10 11  1  0  0  0  0
 10 12  1  0  0  0  0
 10 13  1  0  0  0  0
 10 35  1  0  0  0  0
 11 14  1  0  0  0  0
 11 36  1  0  0  0  0
 12 37  1  0  0  0  0
 12 38  1  0  0  0  0
 13 15  1  0  0  0  0
 13 39  1  0  0  0  0
 13 40  1  0  0  0  0
 14 41  1  0  0  0  0
 14 42  1  0  0  0  0
 15 43  1  0  0  0  0
 15 44  1  0  0  0  0
 16 18  1  0  0  0  0
 16 45  1  0  0  0  0
 16 46  1  0  0  0  0
 17 19  1  0  0  0  0
 17 20  2  0  0  0  0
 18 21  1  0  0  0  0
 18 47  1  0  0  0  0
 18 48  1  0  0  0  0
 19 22  2  0  0  0  0
 20 23  1  0  0  0  0
 20 49  1  0  0  0  0
 21 50  1  0  0  0  0
 21 51  1  0  0  0  0
 22 24  1  0  0  0  0
 22 52  1  0  0  0  0
 23 24  2  0  0  0  0
 23 53  1  0  0  0  0
 24 54  1  0  0  0  0
 25 27  1  0  0  0  0
 25 28  1  0  0  0  0
 25 55  1  0  0  0  0
 27 56  1  0  0  0  0
 27 57  1  0  0  0  0
 27 58  1  0  0  0  0
 28 59  1  0  0  0  0
 28 60  1  0  0  0  0
 28 61  1  0  0  0  0
 29 31  1  0  0  0  0
 30 62  1  0  0  0  0
 30 63  1  0  0  0  0
 30 64  1  0  0  0  0
 31 32  1  0  0  0  0
 32 65  1  0  0  0  0
 33 34  2  0  0  0  0
 33 66  1  0  0  0  0
 34 67  1  0  0  0  0
M  END
> <PUBCHEM_COMPOUND_CID>
126533801

> <PUBCHEM_COMPOUND_CANONICALIZED>
1

> <PUBCHEM_CACTVS_COMPLEXITY>
642

> <PUBCHEM_CACTVS_HBOND_ACCEPTOR>
8

> <PUBCHEM_CACTVS_HBOND_DONOR>
0

> <PUBCHEM_CACTVS_ROTATABLE_BOND>
9

> <PUBCHEM_CACTVS_SUBSKEYS>
AAADcfB7oABAAAAAAAAAAAAAAAAAAWLFgAA8QAAAAAAWAAAB8AAAHgQIAAAADTzl1wa/1pcMFAiiATZnZACS2C9xMrAd2CA/fJiObuLk+ZuXOCjkyBPY6AeQQAAKAAAAAAAAEAAAAAAAAAAgAAAAAAAAAA==

> <PUBCHEM_IUPAC_OPENEYE_NAME>
1-(2-isopropoxyphenyl)-5-[3-[(4-methyl-5-pyrazin-2-yl-1,2,4-triazol-3-yl)sulfanyl]propyl]-2,3,3a,4,6,6a-hexahydropyrrolo[2,3-c]pyrrole

> <PUBCHEM_IUPAC_CAS_NAME>
5-[3-[[4-methyl-5-(2-pyrazinyl)-1,2,4-triazol-3-yl]thio]propyl]-1-(2-propan-2-yloxyphenyl)-2,3,3a,4,6,6a-hexahydropyrrolo[2,3-c]pyrrole

> <PUBCHEM_IUPAC_NAME_MARKUP>
5-[3-[(4-methyl-5-pyrazin-2-yl-1,2,4-triazol-3-yl)sulfanyl]propyl]-1-(2-propan-2-yloxyphenyl)-2,3,3<I>a</I>,4,6,6<I>a</I>-hexahydropyrrolo[2,3-c]pyrrole

> <PUBCHEM_IUPAC_NAME>
5-[3-[(4-methyl-5-pyrazin-2-yl-1,2,4-triazol-3-yl)sulfanyl]propyl]-1-(2-propan-2-yloxyphenyl)-2,3,3a,4,6,6a-hexahydropyrrolo[2,3-c]pyrrole

> <PUBCHEM_IUPAC_SYSTEMATIC_NAME>
5-[3-[(4-methyl-5-pyrazin-2-yl-1,2,4-triazol-3-yl)sulfanyl]propyl]-1-(2-propan-2-yloxyphenyl)-2,3,3a,4,6,6a-hexahydropyrrolo[2,3-c]pyrrole

> <PUBCHEM_IUPAC_TRADITIONAL_NAME>
1-(2-isopropoxyphenyl)-5-[3-[(4-methyl-5-pyrazin-2-yl-1,2,4-triazol-3-yl)thio]propyl]-2,3,3a,4,6,6a-hexahydropyrrolo[2,3-c]pyrrole

> <PUBCHEM_IUPAC_INCHI>
InChI=1S/C25H33N7OS/c1-18(2)33-23-8-5-4-7-21(23)32-13-9-19-16-31(17-22(19)32)12-6-14-34-25-29-28-24(30(25)3)20-15-26-10-11-27-20/h4-5,7-8,10-11,15,18-19,22H,6,9,12-14,16-17H2,1-3H3

> <PUBCHEM_IUPAC_INCHIKEY>
QNDFBMWALLMDKL-UHFFFAOYSA-N

> <PUBCHEM_XLOGP3_AA>
3

> <PUBCHEM_EXACT_MASS>
479.24672988

> <PUBCHEM_MOLECULAR_FORMULA>
C25H33N7OS

> <PUBCHEM_MOLECULAR_WEIGHT>
479.6

> <PUBCHEM_OPENEYE_CAN_SMILES>
CC(C)OC1=CC=CC=C1N2CCC3C2CN(C3)CCCSC4=NN=C(N4C)C5=NC=CN=C5

> <PUBCHEM_OPENEYE_ISO_SMILES>
CC(C)OC1=CC=CC=C1N2CCC3C2CN(C3)CCCSC4=NN=C(N4C)C5=NC=CN=C5

> <PUBCHEM_CACTVS_TPSA>
97.5

> <PUBCHEM_MONOISOTOPIC_WEIGHT>
479.24672988

> <PUBCHEM_TOTAL_CHARGE>
0

> <PUBCHEM_HEAVY_ATOM_COUNT>
34

> <PUBCHEM_ATOM_DEF_STEREO_COUNT>
0

> <PUBCHEM_ATOM_UDEF_STEREO_COUNT>
2

> <PUBCHEM_BOND_DEF_STEREO_COUNT>
0

> <PUBCHEM_BOND_UDEF_STEREO_COUNT>
0

> <PUBCHEM_ISOTOPIC_ATOM_COUNT>
0

> <PUBCHEM_COMPONENT_COUNT>
1

> <PUBCHEM_CACTVS_TAUTO_COUNT>
-1

> <PUBCHEM_COORDINATE_TYPE>
1
5
255

> <PUBCHEM_BONDANNOTATIONS>
10  13  3
11  14  3
17  19  8
17  20  8
19  22  8
20  23  8
22  24  8
23  24  8
31  32  8
33  34  8
5  26  8
5  29  8
6  26  8
6  7  8
7  29  8
8  31  8
8  33  8
9  32  8
9  34  8

$$$$
