53327220
  -OEChem-09292322352D

 43 46  0     1  0  0  0  0  0999 V2000
    3.7441   -0.6869    0.0000 N   0  0  3  0  0  0  0  0  0  0  0  0
    3.7282    1.3823    0.0000 N   0  0  3  0  0  0  0  0  0  0  0  0
    5.6142   -3.3356    0.0000 N   0  0  0  0  0  0  0  0  0  0  0  0
    4.6102   -0.1869    0.0000 C   0  0  3  0  0  0  0  0  0  0  0  0
    4.6262    0.8546    0.0000 C   0  0  0  0  0  0  0  0  0  0  0  0
    5.4762   -0.6869    0.0000 C   0  0  0  0  0  0  0  0  0  0  0  0
    2.8341   -0.1801    0.0000 C   0  0  0  0  0  0  0  0  0  0  0  0
    2.8261    0.8615    0.0000 C   0  0  0  0  0  0  0  0  0  0  0  0
    3.7441   -1.6869    0.0000 C   0  0  0  0  0  0  0  0  0  0  0  0
    5.4762   -1.6869    0.0000 C   0  0  0  0  0  0  0  0  0  0  0  0
    4.6102   -2.1869    0.0000 C   0  0  0  0  0  0  0  0  0  0  0  0
    3.7320    2.3823    0.0000 C   0  0  0  0  0  0  0  0  0  0  0  0
    2.8680    2.8857    0.0000 C   0  0  0  0  0  0  0  0  0  0  0  0
    4.6262   -3.2284    0.0000 C   0  0  0  0  0  0  0  0  0  0  0  0
    6.0941   -2.4653    0.0000 C   0  0  0  0  0  0  0  0  0  0  0  0
    2.8341   -2.1938    0.0000 C   0  0  0  0  0  0  0  0  0  0  0  0
    3.7282   -3.7562    0.0000 C   0  0  0  0  0  0  0  0  0  0  0  0
    2.8261   -3.2354    0.0000 C   0  0  0  0  0  0  0  0  0  0  0  0
    2.8718    3.8857    0.0000 C   0  0  0  0  0  0  0  0  0  0  0  0
    2.0000    2.3890    0.0000 C   0  0  0  0  0  0  0  0  0  0  0  0
    5.1495    0.1189    0.0000 H   0  0  0  0  0  0  0  0  0  0  0  0
    5.2354    0.7391    0.0000 H   0  0  0  0  0  0  0  0  0  0  0  0
    4.8442    1.4350    0.0000 H   0  0  0  0  0  0  0  0  0  0  0  0
    6.0868   -0.7946    0.0000 H   0  0  0  0  0  0  0  0  0  0  0  0
    5.6882   -0.1043    0.0000 H   0  0  0  0  0  0  0  0  0  0  0  0
    2.2225   -0.0787    0.0000 H   0  0  0  0  0  0  0  0  0  0  0  0
    2.6296   -0.7654    0.0000 H   0  0  0  0  0  0  0  0  0  0  0  0
    2.6126    1.4436    0.0000 H   0  0  0  0  0  0  0  0  0  0  0  0
    2.2161    0.7507    0.0000 H   0  0  0  0  0  0  0  0  0  0  0  0
    4.3422    2.2723    0.0000 H   0  0  0  0  0  0  0  0  0  0  0  0
    3.9463    2.9641    0.0000 H   0  0  0  0  0  0  0  0  0  0  0  0
    2.3322    3.1977    0.0000 H   0  0  0  0  0  0  0  0  0  0  0  0
    6.7120   -2.4135    0.0000 H   0  0  0  0  0  0  0  0  0  0  0  0
    2.3008   -1.8776    0.0000 H   0  0  0  0  0  0  0  0  0  0  0  0
    5.9002   -3.8857    0.0000 H   0  0  0  0  0  0  0  0  0  0  0  0
    3.7306   -4.3762    0.0000 H   0  0  0  0  0  0  0  0  0  0  0  0
    2.2880   -3.5433    0.0000 H   0  0  0  0  0  0  0  0  0  0  0  0
    3.4918    3.8833    0.0000 H   0  0  0  0  0  0  0  0  0  0  0  0
    2.8742    4.5057    0.0000 H   0  0  0  0  0  0  0  0  0  0  0  0
    2.2518    3.8880    0.0000 H   0  0  0  0  0  0  0  0  0  0  0  0
    1.6921    2.9271    0.0000 H   0  0  0  0  0  0  0  0  0  0  0  0
    1.4619    2.0811    0.0000 H   0  0  0  0  0  0  0  0  0  0  0  0
    2.3079    1.8509    0.0000 H   0  0  0  0  0  0  0  0  0  0  0  0
  1  4  1  0  0  0  0
  1  7  1  0  0  0  0
  1  9  1  0  0  0  0
  2  5  1  0  0  0  0
  2  8  1  0  0  0  0
  2 12  1  0  0  0  0
  3 14  1  0  0  0  0
  3 15  1  0  0  0  0
  3 35  1  0  0  0  0
  4  5  1  0  0  0  0
  4  6  1  0  0  0  0
  4 21  1  0  0  0  0
  5 22  1  0  0  0  0
  5 23  1  0  0  0  0
  6 10  1  0  0  0  0
  6 24  1  0  0  0  0
  6 25  1  0  0  0  0
  7  8  1  0  0  0  0
  7 26  1  0  0  0  0
  7 27  1  0  0  0  0
  8 28  1  0  0  0  0
  8 29  1  0  0  0  0
  9 11  1  0  0  0  0
  9 16  2  0  0  0  0
 10 11  1  0  0  0  0
 10 15  2  0  0  0  0
 11 14  2  0  0  0  0
 12 13  1  0  0  0  0
 12 30  1  0  0  0  0
 12 31  1  0  0  0  0
 13 19  1  0  0  0  0
 13 20  1  0  0  0  0
 13 32  1  0  0  0  0
 14 17  1  0  0  0  0
 15 33  1  0  0  0  0
 16 18  1  0  0  0  0
 16 34  1  0  0  0  0
 17 18  2  0  0  0  0
 17 36  1  0  0  0  0
 18 37  1  0  0  0  0
 19 38  1  0  0  0  0
 19 39  1  0  0  0  0
 19 40  1  0  0  0  0
 20 41  1  0  0  0  0
 20 42  1  0  0  0  0
 20 43  1  0  0  0  0
M  END
> <PUBCHEM_COMPOUND_CID>
53327220

> <PUBCHEM_COMPOUND_CANONICALIZED>
1

> <PUBCHEM_CACTVS_COMPLEXITY>
356

> <PUBCHEM_CACTVS_HBOND_ACCEPTOR>
2

> <PUBCHEM_CACTVS_HBOND_DONOR>
1

> <PUBCHEM_CACTVS_ROTATABLE_BOND>
2

> <PUBCHEM_CACTVS_SUBSKEYS>
AAADceB7AAAAAAAAAAAAAAAAAAAAAWAAAAA8WIAAAAAAAFix8AAAHAAQAAAADSjBHgQ+wPPJkACgAzRnRACCgCAxAiAI2aA4ZJgIYOLA0dGUJAhgkADIyAcQgMAOgAAAAAQCAAAAAAAACAQAAAAAAAAAAA==

> <PUBCHEM_IUPAC_OPENEYE_NAME>
5-isobutyl-2,5,11-triazatetracyclo[7.6.1.02,7.012,16]hexadeca-1(15),9,12(16),13-tetraene

> <PUBCHEM_IUPAC_CAS_NAME>
5-(2-methylpropyl)-2,5,11-triazatetracyclo[7.6.1.02,7.012,16]hexadeca-1(15),9,12(16),13-tetraene

> <PUBCHEM_IUPAC_NAME_MARKUP>
5-(2-methylpropyl)-2,5,11-triazatetracyclo[7.6.1.0<SUP>2,7</SUP>.0<SUP>12,16</SUP>]hexadeca-1(15),9,12(16),13-tetraene

> <PUBCHEM_IUPAC_NAME>
5-(2-methylpropyl)-2,5,11-triazatetracyclo[7.6.1.02,7.012,16]hexadeca-1(15),9,12(16),13-tetraene

> <PUBCHEM_IUPAC_SYSTEMATIC_NAME>
5-(2-methylpropyl)-2,5,11-triazatetracyclo[7.6.1.02,7.012,16]hexadeca-1(15),9,12(16),13-tetraene

> <PUBCHEM_IUPAC_TRADITIONAL_NAME>
5-isobutyl-2,5,11-triazatetracyclo[7.6.1.02,7.012,16]hexadeca-1(15),9,12(16),13-tetraene

> <PUBCHEM_IUPAC_INCHI>
InChI=1S/C17H23N3/c1-12(2)10-19-6-7-20-14(11-19)8-13-9-18-15-4-3-5-16(20)17(13)15/h3-5,9,12,14,18H,6-8,10-11H2,1-2H3

> <PUBCHEM_IUPAC_INCHIKEY>
DMGPDLSWGBDRHU-UHFFFAOYSA-N

> <PUBCHEM_XLOGP3_AA>
3.4

> <PUBCHEM_EXACT_MASS>
269.189197746

> <PUBCHEM_MOLECULAR_FORMULA>
C17H23N3

> <PUBCHEM_MOLECULAR_WEIGHT>
269.4

> <PUBCHEM_OPENEYE_CAN_SMILES>
CC(C)CN1CCN2C(C1)CC3=CNC4=C3C2=CC=C4

> <PUBCHEM_OPENEYE_ISO_SMILES>
CC(C)CN1CCN2C(C1)CC3=CNC4=C3C2=CC=C4

> <PUBCHEM_CACTVS_TPSA>
22.3

> <PUBCHEM_MONOISOTOPIC_WEIGHT>
269.189197746

> <PUBCHEM_TOTAL_CHARGE>
0

> <PUBCHEM_HEAVY_ATOM_COUNT>
20

> <PUBCHEM_ATOM_DEF_STEREO_COUNT>
0

> <PUBCHEM_ATOM_UDEF_STEREO_COUNT>
1

> <PUBCHEM_BOND_DEF_STEREO_COUNT>
0

> <PUBCHEM_BOND_UDEF_STEREO_COUNT>
0

> <PUBCHEM_ISOTOPIC_ATOM_COUNT>
0

> <PUBCHEM_COMPONENT_COUNT>
1

> <PUBCHEM_CACTVS_TAUTO_COUNT>
-1

> <PUBCHEM_COORDINATE_TYPE>
1
5
255

> <PUBCHEM_BONDANNOTATIONS>
10  11  8
10  15  8
11  14  8
14  17  8
16  18  8
17  18  8
3  14  8
3  15  8
4  6  3
9  11  8
9  16  8

$$$$
