118736365
  -OEChem-09292322352D

 65 69  0     0  0  0  0  0  0999 V2000
   13.2619   -3.5245    0.0000 O   0  0  0  0  0  0  0  0  0  0  0  0
    3.3823    0.2607    0.0000 O   0  0  0  0  0  0  0  0  0  0  0  0
    2.6330    3.7203    0.0000 O   0  0  0  0  0  0  0  0  0  0  0  0
   12.1972   -0.2281    0.0000 N   0  0  0  0  0  0  0  0  0  0  0  0
   13.6811   -1.5689    0.0000 N   0  0  0  0  0  0  0  0  0  0  0  0
    7.1164    0.8611    0.0000 N   0  0  0  0  0  0  0  0  0  0  0  0
    5.5047    0.8597    0.0000 N   0  0  0  0  0  0  0  0  0  0  0  0
    6.0047    2.3985    0.0000 N   0  0  0  0  0  0  0  0  0  0  0  0
    4.3197    3.1833    0.0000 N   0  0  0  0  0  0  0  0  0  0  0  0
    2.9773    1.9839    0.0000 N   0  0  0  0  0  0  0  0  0  0  0  0
   13.1487    0.0793    0.0000 C   0  0  0  0  0  0  0  0  0  0  0  0
   11.9875   -1.2058    0.0000 C   0  0  0  0  0  0  0  0  0  0  0  0
   11.4552    0.4424    0.0000 C   0  0  0  0  0  0  0  0  0  0  0  0
   13.8907   -0.5911    0.0000 C   0  0  0  0  0  0  0  0  0  0  0  0
   12.7295   -1.8763    0.0000 C   0  0  0  0  0  0  0  0  0  0  0  0
   10.5036    0.1350    0.0000 C   0  0  0  0  0  0  0  0  0  0  0  0
    9.7616    0.8054    0.0000 C   0  0  0  0  0  0  0  0  0  0  0  0
    8.8100    0.4980    0.0000 C   0  0  0  0  0  0  0  0  0  0  0  0
    8.0680    1.1684    0.0000 C   0  0  0  0  0  0  0  0  0  0  0  0
   14.4231   -2.2393    0.0000 C   0  0  0  0  0  0  0  0  0  0  0  0
    6.3137    1.4475    0.0000 C   0  0  0  0  0  0  0  0  0  0  0  0
    4.6957    1.4475    0.0000 C   0  0  0  0  0  0  0  0  0  0  0  0
    6.8084   -0.0841    0.0000 C   0  0  0  0  0  0  0  0  0  0  0  0
    5.0047    2.3985    0.0000 C   0  0  0  0  0  0  0  0  0  0  0  0
    5.8143   -0.0849    0.0000 C   0  0  0  0  0  0  0  0  0  0  0  0
   14.2135   -3.2171    0.0000 C   0  0  0  0  0  0  0  0  0  0  0  0
   15.3747   -1.9319    0.0000 C   0  0  0  0  0  0  0  0  0  0  0  0
    3.6803    1.2152    0.0000 C   0  0  0  0  0  0  0  0  0  0  0  0
    3.2992    2.9746    0.0000 C   0  0  0  0  0  0  0  0  0  0  0  0
   14.9555   -3.8875    0.0000 C   0  0  0  0  0  0  0  0  0  0  0  0
   16.1167   -2.6023    0.0000 C   0  0  0  0  0  0  0  0  0  0  0  0
    4.6397    4.1307    0.0000 C   0  0  0  0  0  0  0  0  0  0  0  0
   15.9071   -3.5801    0.0000 C   0  0  0  0  0  0  0  0  0  0  0  0
    2.0000    1.7722    0.0000 C   0  0  0  0  0  0  0  0  0  0  0  0
   13.6380    0.4602    0.0000 H   0  0  0  0  0  0  0  0  0  0  0  0
   12.8586    0.6272    0.0000 H   0  0  0  0  0  0  0  0  0  0  0  0
   11.4131   -0.9726    0.0000 H   0  0  0  0  0  0  0  0  0  0  0  0
   11.6581   -1.7311    0.0000 H   0  0  0  0  0  0  0  0  0  0  0  0
   11.9444    0.8232    0.0000 H   0  0  0  0  0  0  0  0  0  0  0  0
   11.1650    0.9903    0.0000 H   0  0  0  0  0  0  0  0  0  0  0  0
   14.4652   -0.8243    0.0000 H   0  0  0  0  0  0  0  0  0  0  0  0
   14.2202   -0.0659    0.0000 H   0  0  0  0  0  0  0  0  0  0  0  0
   12.2403   -2.2571    0.0000 H   0  0  0  0  0  0  0  0  0  0  0  0
   13.0197   -2.4242    0.0000 H   0  0  0  0  0  0  0  0  0  0  0  0
   10.0143   -0.2459    0.0000 H   0  0  0  0  0  0  0  0  0  0  0  0
   10.7937   -0.4129    0.0000 H   0  0  0  0  0  0  0  0  0  0  0  0
   10.2508    1.1863    0.0000 H   0  0  0  0  0  0  0  0  0  0  0  0
    9.4715    1.3533    0.0000 H   0  0  0  0  0  0  0  0  0  0  0  0
    8.3208    0.1172    0.0000 H   0  0  0  0  0  0  0  0  0  0  0  0
    9.1001   -0.0499    0.0000 H   0  0  0  0  0  0  0  0  0  0  0  0
    8.5572    1.5493    0.0000 H   0  0  0  0  0  0  0  0  0  0  0  0
    7.7779    1.7164    0.0000 H   0  0  0  0  0  0  0  0  0  0  0  0
    7.1728   -0.5857    0.0000 H   0  0  0  0  0  0  0  0  0  0  0  0
    5.4508   -0.5872    0.0000 H   0  0  0  0  0  0  0  0  0  0  0  0
   15.5047   -1.3257    0.0000 H   0  0  0  0  0  0  0  0  0  0  0  0
   14.8255   -4.4937    0.0000 H   0  0  0  0  0  0  0  0  0  0  0  0
   16.7067   -2.4118    0.0000 H   0  0  0  0  0  0  0  0  0  0  0  0
    5.2271    3.9323    0.0000 H   0  0  0  0  0  0  0  0  0  0  0  0
    4.8381    4.7181    0.0000 H   0  0  0  0  0  0  0  0  0  0  0  0
    4.0523    4.3291    0.0000 H   0  0  0  0  0  0  0  0  0  0  0  0
   16.3671   -3.9958    0.0000 H   0  0  0  0  0  0  0  0  0  0  0  0
    1.8688    2.3782    0.0000 H   0  0  0  0  0  0  0  0  0  0  0  0
    1.3940    1.6410    0.0000 H   0  0  0  0  0  0  0  0  0  0  0  0
    2.1312    1.1663    0.0000 H   0  0  0  0  0  0  0  0  0  0  0  0
   13.1320   -4.1307    0.0000 H   0  0  0  0  0  0  0  0  0  0  0  0
  1 26  1  0  0  0  0
  1 65  1  0  0  0  0
  2 28  2  0  0  0  0
  3 29  2  0  0  0  0
  4 11  1  0  0  0  0
  4 12  1  0  0  0  0
  4 13  1  0  0  0  0
  5 14  1  0  0  0  0
  5 15  1  0  0  0  0
  5 20  1  0  0  0  0
  6 19  1  0  0  0  0
  6 21  1  0  0  0  0
  6 23  1  0  0  0  0
  7 21  1  0  0  0  0
  7 22  1  0  0  0  0
  7 25  1  0  0  0  0
  8 21  2  0  0  0  0
  8 24  1  0  0  0  0
  9 24  1  0  0  0  0
  9 29  1  0  0  0  0
  9 32  1  0  0  0  0
 10 28  1  0  0  0  0
 10 29  1  0  0  0  0
 10 34  1  0  0  0  0
 11 14  1  0  0  0  0
 11 35  1  0  0  0  0
 11 36  1  0  0  0  0
 12 15  1  0  0  0  0
 12 37  1  0  0  0  0
 12 38  1  0  0  0  0
 13 16  1  0  0  0  0
 13 39  1  0  0  0  0
 13 40  1  0  0  0  0
 14 41  1  0  0  0  0
 14 42  1  0  0  0  0
 15 43  1  0  0  0  0
 15 44  1  0  0  0  0
 16 17  1  0  0  0  0
 16 45  1  0  0  0  0
 16 46  1  0  0  0  0
 17 18  1  0  0  0  0
 17 47  1  0  0  0  0
 17 48  1  0  0  0  0
 18 19  1  0  0  0  0
 18 49  1  0  0  0  0
 18 50  1  0  0  0  0
 19 51  1  0  0  0  0
 19 52  1  0  0  0  0
 20 26  1  0  0  0  0
 20 27  2  0  0  0  0
 22 24  2  0  0  0  0
 22 28  1  0  0  0  0
 23 25  2  0  0  0  0
 23 53  1  0  0  0  0
 25 54  1  0  0  0  0
 26 30  2  0  0  0  0
 27 31  1  0  0  0  0
 27 55  1  0  0  0  0
 30 33  1  0  0  0  0
 30 56  1  0  0  0  0
 31 33  2  0  0  0  0
 31 57  1  0  0  0  0
 32 58  1  0  0  0  0
 32 59  1  0  0  0  0
 32 60  1  0  0  0  0
 33 61  1  0  0  0  0
 34 62  1  0  0  0  0
 34 63  1  0  0  0  0
 34 64  1  0  0  0  0
M  END
> <PUBCHEM_COMPOUND_CID>
118736365

> <PUBCHEM_COMPOUND_CANONICALIZED>
1

> <PUBCHEM_CACTVS_COMPLEXITY>
746

> <PUBCHEM_CACTVS_HBOND_ACCEPTOR>
6

> <PUBCHEM_CACTVS_HBOND_DONOR>
1

> <PUBCHEM_CACTVS_ROTATABLE_BOND>
7

> <PUBCHEM_CACTVS_SUBSKEYS>
AAADceB7sAAAAAAAAAAAAAAAAAAAAWLAAAA8WIAAAAAWAFgB8AAAHgAACAAACAzBlgQ/9pcMGgCoATd3dACCgC03MqAJ2AG/fMiKbmrS2bOUcIhsxzPY2GeQQAAAAAAAAAAAEAAAAAAAAAAgAAAAAAAAAA==

> <PUBCHEM_IUPAC_OPENEYE_NAME>
6-[5-[4-(2-hydroxyphenyl)piperazin-1-yl]pentyl]-2,4-dimethyl-purino[7,8-a]imidazole-1,3-dione

> <PUBCHEM_IUPAC_CAS_NAME>
6-[5-[4-(2-hydroxyphenyl)-1-piperazinyl]pentyl]-2,4-dimethylpurino[7,8-a]imidazole-1,3-dione

> <PUBCHEM_IUPAC_NAME_MARKUP>
6-[5-[4-(2-hydroxyphenyl)piperazin-1-yl]pentyl]-2,4-dimethylpurino[7,8-a]imidazole-1,3-dione

> <PUBCHEM_IUPAC_NAME>
6-[5-[4-(2-hydroxyphenyl)piperazin-1-yl]pentyl]-2,4-dimethylpurino[7,8-a]imidazole-1,3-dione

> <PUBCHEM_IUPAC_SYSTEMATIC_NAME>
6-[5-[4-(2-hydroxyphenyl)piperazin-1-yl]pentyl]-2,4-dimethyl-purino[7,8-a]imidazole-1,3-dione

> <PUBCHEM_IUPAC_TRADITIONAL_NAME>
6-[5-[4-(2-hydroxyphenyl)piperazino]pentyl]-2,4-dimethyl-purin[7,8-a]imidazole-1,3-quinone

> <PUBCHEM_IUPAC_INCHI>
InChI=1S/C24H31N7O3/c1-26-21-20(22(33)27(2)24(26)34)31-17-16-30(23(31)25-21)11-7-3-6-10-28-12-14-29(15-13-28)18-8-4-5-9-19(18)32/h4-5,8-9,16-17,32H,3,6-7,10-15H2,1-2H3

> <PUBCHEM_IUPAC_INCHIKEY>
FUZASPGUXFBSLU-UHFFFAOYSA-N

> <PUBCHEM_XLOGP3_AA>
2.8

> <PUBCHEM_EXACT_MASS>
465.24883788

> <PUBCHEM_MOLECULAR_FORMULA>
C24H31N7O3

> <PUBCHEM_MOLECULAR_WEIGHT>
465.5

> <PUBCHEM_OPENEYE_CAN_SMILES>
CN1C2=C(C(=O)N(C1=O)C)N3C=CN(C3=N2)CCCCCN4CCN(CC4)C5=CC=CC=C5O

> <PUBCHEM_OPENEYE_ISO_SMILES>
CN1C2=C(C(=O)N(C1=O)C)N3C=CN(C3=N2)CCCCCN4CCN(CC4)C5=CC=CC=C5O

> <PUBCHEM_CACTVS_TPSA>
89.6

> <PUBCHEM_MONOISOTOPIC_WEIGHT>
465.24883788

> <PUBCHEM_TOTAL_CHARGE>
0

> <PUBCHEM_HEAVY_ATOM_COUNT>
34

> <PUBCHEM_ATOM_DEF_STEREO_COUNT>
0

> <PUBCHEM_ATOM_UDEF_STEREO_COUNT>
0

> <PUBCHEM_BOND_DEF_STEREO_COUNT>
0

> <PUBCHEM_BOND_UDEF_STEREO_COUNT>
0

> <PUBCHEM_ISOTOPIC_ATOM_COUNT>
0

> <PUBCHEM_COMPONENT_COUNT>
1

> <PUBCHEM_CACTVS_TAUTO_COUNT>
-1

> <PUBCHEM_COORDINATE_TYPE>
1
5
255

> <PUBCHEM_BONDANNOTATIONS>
10  28  8
10  29  8
20  26  8
20  27  8
22  24  8
22  28  8
23  25  8
26  30  8
27  31  8
30  33  8
31  33  8
6  21  8
6  23  8
7  21  8
7  22  8
7  25  8
8  21  8
8  24  8
9  24  8
9  29  8

$$$$
