9845181
  -OEChem-09292322102D

 58 61  0     1  0  0  0  0  0999 V2000
    5.0000    2.1651    0.0000 F   0  0  0  0  0  0  0  0  0  0  0  0
    3.0000   -1.2990    0.0000 F   0  0  0  0  0  0  0  0  0  0  0  0
    2.0000    0.4330    0.0000 F   0  0  0  0  0  0  0  0  0  0  0  0
   10.5000    1.2990    0.0000 O   0  0  0  0  0  0  0  0  0  0  0  0
   10.5000   -2.1651    0.0000 O   0  0  0  0  0  0  0  0  0  0  0  0
   10.5000   -0.4330    0.0000 N   0  0  0  0  0  0  0  0  0  0  0  0
    8.0000    0.4330    0.0000 N   0  0  0  0  0  0  0  0  0  0  0  0
    6.0000    0.4330    0.0000 N   0  0  0  0  0  0  0  0  0  0  0  0
   12.5000   -0.4330    0.0000 C   0  0  0  0  0  0  0  0  0  0  0  0
   13.0878    0.3760    0.0000 C   0  0  0  0  0  0  0  0  0  0  0  0
   13.0878   -1.2420    0.0000 C   0  0  0  0  0  0  0  0  0  0  0  0
   12.0000    0.4330    0.0000 C   0  0  0  0  0  0  0  0  0  0  0  0
   12.0000   -1.2990    0.0000 C   0  0  0  0  0  0  0  0  0  0  0  0
   14.0388    0.0670    0.0000 C   0  0  0  0  0  0  0  0  0  0  0  0
   14.0388   -0.9330    0.0000 C   0  0  0  0  0  0  0  0  0  0  0  0
   11.0000    0.4330    0.0000 C   0  0  0  0  0  0  0  0  0  0  0  0
   11.0000   -1.2990    0.0000 C   0  0  0  0  0  0  0  0  0  0  0  0
    9.5000   -0.4330    0.0000 C   0  0  1  0  0  0  0  0  0  0  0  0
    9.0000    0.4330    0.0000 C   0  0  0  0  0  0  0  0  0  0  0  0
    9.0000   -1.2990    0.0000 C   0  0  0  0  0  0  0  0  0  0  0  0
    7.5000   -0.4330    0.0000 C   0  0  0  0  0  0  0  0  0  0  0  0
    7.5000    1.2990    0.0000 C   0  0  0  0  0  0  0  0  0  0  0  0
    6.5000   -0.4330    0.0000 C   0  0  0  0  0  0  0  0  0  0  0  0
    6.5000    1.2990    0.0000 C   0  0  0  0  0  0  0  0  0  0  0  0
    5.0000    0.4330    0.0000 C   0  0  0  0  0  0  0  0  0  0  0  0
    4.5000    1.2990    0.0000 C   0  0  0  0  0  0  0  0  0  0  0  0
    4.5000   -0.4330    0.0000 C   0  0  0  0  0  0  0  0  0  0  0  0
    3.5000   -0.4330    0.0000 C   0  0  0  0  0  0  0  0  0  0  0  0
    3.5000    1.2990    0.0000 C   0  0  0  0  0  0  0  0  0  0  0  0
    3.0000    0.4330    0.0000 C   0  0  0  0  0  0  0  0  0  0  0  0
   13.3400    0.9424    0.0000 H   0  0  0  0  0  0  0  0  0  0  0  0
   12.5508    0.6860    0.0000 H   0  0  0  0  0  0  0  0  0  0  0  0
   12.5508   -1.5520    0.0000 H   0  0  0  0  0  0  0  0  0  0  0  0
   13.3400   -1.8084    0.0000 H   0  0  0  0  0  0  0  0  0  0  0  0
   12.5826    0.6451    0.0000 H   0  0  0  0  0  0  0  0  0  0  0  0
   11.8923    1.0436    0.0000 H   0  0  0  0  0  0  0  0  0  0  0  0
   11.8923   -1.9096    0.0000 H   0  0  0  0  0  0  0  0  0  0  0  0
   12.5826   -1.5111    0.0000 H   0  0  0  0  0  0  0  0  0  0  0  0
   14.6554    0.0022    0.0000 H   0  0  0  0  0  0  0  0  0  0  0  0
   14.1677    0.6734    0.0000 H   0  0  0  0  0  0  0  0  0  0  0  0
   14.1677   -1.5395    0.0000 H   0  0  0  0  0  0  0  0  0  0  0  0
   14.6554   -0.8682    0.0000 H   0  0  0  0  0  0  0  0  0  0  0  0
    9.8100   -0.9699    0.0000 H   0  0  0  0  0  0  0  0  0  0  0  0
    9.5826    0.6451    0.0000 H   0  0  0  0  0  0  0  0  0  0  0  0
    8.8923    1.0436    0.0000 H   0  0  0  0  0  0  0  0  0  0  0  0
    8.4631   -0.9890    0.0000 H   0  0  0  0  0  0  0  0  0  0  0  0
    8.6900   -1.8360    0.0000 H   0  0  0  0  0  0  0  0  0  0  0  0
    9.5369   -1.6090    0.0000 H   0  0  0  0  0  0  0  0  0  0  0  0
    7.3923   -1.0436    0.0000 H   0  0  0  0  0  0  0  0  0  0  0  0
    8.0826   -0.6451    0.0000 H   0  0  0  0  0  0  0  0  0  0  0  0
    8.0826    1.5111    0.0000 H   0  0  0  0  0  0  0  0  0  0  0  0
    7.3923    1.9096    0.0000 H   0  0  0  0  0  0  0  0  0  0  0  0
    5.9174   -0.6451    0.0000 H   0  0  0  0  0  0  0  0  0  0  0  0
    6.6077   -1.0436    0.0000 H   0  0  0  0  0  0  0  0  0  0  0  0
    6.6077    1.9096    0.0000 H   0  0  0  0  0  0  0  0  0  0  0  0
    5.9174    1.5111    0.0000 H   0  0  0  0  0  0  0  0  0  0  0  0
    4.8100   -0.9699    0.0000 H   0  0  0  0  0  0  0  0  0  0  0  0
    3.1900    1.8360    0.0000 H   0  0  0  0  0  0  0  0  0  0  0  0
  1 26  1  0  0  0  0
  2 28  1  0  0  0  0
  3 30  1  0  0  0  0
  4 16  2  0  0  0  0
  5 17  2  0  0  0  0
  6 16  1  0  0  0  0
  6 17  1  0  0  0  0
  6 18  1  0  0  0  0
  7 19  1  0  0  0  0
  7 21  1  0  0  0  0
  7 22  1  0  0  0  0
  8 23  1  0  0  0  0
  8 24  1  0  0  0  0
  8 25  1  0  0  0  0
  9 10  1  0  0  0  0
  9 11  1  0  0  0  0
  9 12  1  0  0  0  0
  9 13  1  0  0  0  0
 10 14  1  0  0  0  0
 10 31  1  0  0  0  0
 10 32  1  0  0  0  0
 11 15  1  0  0  0  0
 11 33  1  0  0  0  0
 11 34  1  0  0  0  0
 12 16  1  0  0  0  0
 12 35  1  0  0  0  0
 12 36  1  0  0  0  0
 13 17  1  0  0  0  0
 13 37  1  0  0  0  0
 13 38  1  0  0  0  0
 14 15  1  0  0  0  0
 14 39  1  0  0  0  0
 14 40  1  0  0  0  0
 15 41  1  0  0  0  0
 15 42  1  0  0  0  0
 18 19  1  0  0  0  0
 18 20  1  6  0  0  0
 18 43  1  0  0  0  0
 19 44  1  0  0  0  0
 19 45  1  0  0  0  0
 20 46  1  0  0  0  0
 20 47  1  0  0  0  0
 20 48  1  0  0  0  0
 21 23  1  0  0  0  0
 21 49  1  0  0  0  0
 21 50  1  0  0  0  0
 22 24  1  0  0  0  0
 22 51  1  0  0  0  0
 22 52  1  0  0  0  0
 23 53  1  0  0  0  0
 23 54  1  0  0  0  0
 24 55  1  0  0  0  0
 24 56  1  0  0  0  0
 25 26  1  0  0  0  0
 25 27  2  0  0  0  0
 26 29  2  0  0  0  0
 27 28  1  0  0  0  0
 27 57  1  0  0  0  0
 28 30  2  0  0  0  0
 29 30  1  0  0  0  0
 29 58  1  0  0  0  0
M  END
> <PUBCHEM_COMPOUND_CID>
9845181

> <PUBCHEM_COMPOUND_CANONICALIZED>
1

> <PUBCHEM_CACTVS_COMPLEXITY>
630

> <PUBCHEM_CACTVS_HBOND_ACCEPTOR>
7

> <PUBCHEM_CACTVS_HBOND_DONOR>
0

> <PUBCHEM_CACTVS_ROTATABLE_BOND>
4

> <PUBCHEM_CACTVS_SUBSKEYS>
AAADceB7MYAAAAAAAAAAAAAAAAAAAYAAAAA8WIAAAAAAAAABAAAAHwAAAAAADijBkAwywIMAAACIACVSUACCAAAhAgAAiAEIZIgIYDLAkJGUIAhghiDIyAcYiwCPAAAAAAAAAAAAAAAAAAAAAAAAAAAAAA==

> <PUBCHEM_IUPAC_OPENEYE_NAME>
8-[(1R)-1-methyl-2-[4-(2,4,5-trifluorophenyl)piperazin-1-yl]ethyl]-8-azaspiro[4.5]decane-7,9-dione

> <PUBCHEM_IUPAC_CAS_NAME>
8-[(2R)-1-[4-(2,4,5-trifluorophenyl)-1-piperazinyl]propan-2-yl]-8-azaspiro[4.5]decane-7,9-dione

> <PUBCHEM_IUPAC_NAME_MARKUP>
8-[(2<I>R</I>)-1-[4-(2,4,5-trifluorophenyl)piperazin-1-yl]propan-2-yl]-8-azaspiro[4.5]decane-7,9-dione

> <PUBCHEM_IUPAC_NAME>
8-[(2R)-1-[4-(2,4,5-trifluorophenyl)piperazin-1-yl]propan-2-yl]-8-azaspiro[4.5]decane-7,9-dione

> <PUBCHEM_IUPAC_SYSTEMATIC_NAME>
8-[(2R)-1-[4-[2,4,5-tris(fluoranyl)phenyl]piperazin-1-yl]propan-2-yl]-8-azaspiro[4.5]decane-7,9-dione

> <PUBCHEM_IUPAC_TRADITIONAL_NAME>
8-[(1R)-1-methyl-2-[4-(2,4,5-trifluorophenyl)piperazino]ethyl]-8-azaspiro[4.5]decane-7,9-quinone

> <PUBCHEM_IUPAC_INCHI>
InChI=1S/C22H28F3N3O2/c1-15(28-20(29)12-22(13-21(28)30)4-2-3-5-22)14-26-6-8-27(9-7-26)19-11-17(24)16(23)10-18(19)25/h10-11,15H,2-9,12-14H2,1H3/t15-/m1/s1

> <PUBCHEM_IUPAC_INCHIKEY>
WCWNYVYNQAPOOX-OAHLLOKOSA-N

> <PUBCHEM_XLOGP3_AA>
3.6

> <PUBCHEM_EXACT_MASS>
423.21336163

> <PUBCHEM_MOLECULAR_FORMULA>
C22H28F3N3O2

> <PUBCHEM_MOLECULAR_WEIGHT>
423.5

> <PUBCHEM_OPENEYE_CAN_SMILES>
CC(CN1CCN(CC1)C2=CC(=C(C=C2F)F)F)N3C(=O)CC4(CCCC4)CC3=O

> <PUBCHEM_OPENEYE_ISO_SMILES>
C[C@H](CN1CCN(CC1)C2=CC(=C(C=C2F)F)F)N3C(=O)CC4(CCCC4)CC3=O

> <PUBCHEM_CACTVS_TPSA>
43.9

> <PUBCHEM_MONOISOTOPIC_WEIGHT>
423.21336163

> <PUBCHEM_TOTAL_CHARGE>
0

> <PUBCHEM_HEAVY_ATOM_COUNT>
30

> <PUBCHEM_ATOM_DEF_STEREO_COUNT>
1

> <PUBCHEM_ATOM_UDEF_STEREO_COUNT>
0

> <PUBCHEM_BOND_DEF_STEREO_COUNT>
0

> <PUBCHEM_BOND_UDEF_STEREO_COUNT>
0

> <PUBCHEM_ISOTOPIC_ATOM_COUNT>
0

> <PUBCHEM_COMPONENT_COUNT>
1

> <PUBCHEM_CACTVS_TAUTO_COUNT>
-1

> <PUBCHEM_COORDINATE_TYPE>
1
5
255

> <PUBCHEM_BONDANNOTATIONS>
18  20  6
25  26  8
25  27  8
26  29  8
27  28  8
28  30  8
29  30  8

$$$$
