121413012
  -OEChem-09292322442D

 65 69  0     1  0  0  0  0  0999 V2000
   14.5020    0.8428    0.0000 Cl  0  0  0  0  0  0  0  0  0  0  0  0
    4.0000    1.1696    0.0000 O   0  0  0  0  0  0  0  0  0  0  0  0
   10.0388   -0.1964    0.0000 N   0  0  3  0  0  0  0  0  0  0  0  0
    6.5000    0.3036    0.0000 N   0  0  0  0  0  0  0  0  0  0  0  0
    9.8298   -2.1854    0.0000 N   0  0  0  0  0  0  0  0  0  0  0  0
    8.5000    0.3036    0.0000 C   0  0  0  0  0  0  0  0  0  0  0  0
    9.0878    1.1126    0.0000 C   0  0  0  0  0  0  0  0  0  0  0  0
    9.0878   -0.5054    0.0000 C   0  0  0  0  0  0  0  0  0  0  0  0
    8.0000   -0.5624    0.0000 C   0  0  0  0  0  0  0  0  0  0  0  0
    8.0000    1.1696    0.0000 C   0  0  0  0  0  0  0  0  0  0  0  0
   10.0388    0.8036    0.0000 C   0  0  0  0  0  0  0  0  0  0  0  0
    7.0000   -0.5624    0.0000 C   0  0  0  0  0  0  0  0  0  0  0  0
    7.0000    1.1696    0.0000 C   0  0  0  0  0  0  0  0  0  0  0  0
   10.8479   -0.7842    0.0000 C   0  0  3  0  0  0  0  0  0  0  0  0
    5.5000    0.3036    0.0000 C   0  0  0  0  0  0  0  0  0  0  0  0
   11.7614   -0.3774    0.0000 C   0  0  0  0  0  0  0  0  0  0  0  0
   10.7433   -1.7787    0.0000 C   0  0  0  0  0  0  0  0  0  0  0  0
    5.0000    1.1696    0.0000 C   0  0  0  0  0  0  0  0  0  0  0  0
   12.5704   -0.9652    0.0000 C   0  0  0  0  0  0  0  0  0  0  0  0
   11.8659    0.6171    0.0000 C   0  0  0  0  0  0  0  0  0  0  0  0
   11.5523   -2.3665    0.0000 C   0  0  0  0  0  0  0  0  0  0  0  0
   13.4840   -0.5585    0.0000 C   0  0  0  0  0  0  0  0  0  0  0  0
   12.7795    1.0238    0.0000 C   0  0  0  0  0  0  0  0  0  0  0  0
   11.4478   -3.3610    0.0000 C   0  0  0  0  0  0  0  0  0  0  0  0
    9.7253   -3.1799    0.0000 C   0  0  0  0  0  0  0  0  0  0  0  0
   13.5885    0.4360    0.0000 C   0  0  0  0  0  0  0  0  0  0  0  0
   10.5343   -3.7677    0.0000 C   0  0  0  0  0  0  0  0  0  0  0  0
    3.5000    2.0357    0.0000 C   0  0  0  0  0  0  0  0  0  0  0  0
    2.5000    2.0357    0.0000 C   0  0  0  0  0  0  0  0  0  0  0  0
    4.0000    2.9017    0.0000 C   0  0  0  0  0  0  0  0  0  0  0  0
    2.0000    2.9017    0.0000 C   0  0  0  0  0  0  0  0  0  0  0  0
    3.5000    3.7677    0.0000 C   0  0  0  0  0  0  0  0  0  0  0  0
    2.5000    3.7677    0.0000 C   0  0  0  0  0  0  0  0  0  0  0  0
    9.3400    1.6790    0.0000 H   0  0  0  0  0  0  0  0  0  0  0  0
    8.5508    1.4226    0.0000 H   0  0  0  0  0  0  0  0  0  0  0  0
    8.5508   -0.8154    0.0000 H   0  0  0  0  0  0  0  0  0  0  0  0
    9.3400   -1.0718    0.0000 H   0  0  0  0  0  0  0  0  0  0  0  0
    7.8923   -1.1730    0.0000 H   0  0  0  0  0  0  0  0  0  0  0  0
    8.5826   -0.7745    0.0000 H   0  0  0  0  0  0  0  0  0  0  0  0
    8.5826    1.3817    0.0000 H   0  0  0  0  0  0  0  0  0  0  0  0
    7.8923    1.7802    0.0000 H   0  0  0  0  0  0  0  0  0  0  0  0
   10.6554    0.7388    0.0000 H   0  0  0  0  0  0  0  0  0  0  0  0
   10.1677    1.4101    0.0000 H   0  0  0  0  0  0  0  0  0  0  0  0
    6.4174   -0.7745    0.0000 H   0  0  0  0  0  0  0  0  0  0  0  0
    7.1077   -1.1730    0.0000 H   0  0  0  0  0  0  0  0  0  0  0  0
    7.1077    1.7802    0.0000 H   0  0  0  0  0  0  0  0  0  0  0  0
    6.4174    1.3817    0.0000 H   0  0  0  0  0  0  0  0  0  0  0  0
   10.2815   -1.0363    0.0000 H   0  0  0  0  0  0  0  0  0  0  0  0
    4.9174    0.0916    0.0000 H   0  0  0  0  0  0  0  0  0  0  0  0
    5.6077   -0.3070    0.0000 H   0  0  0  0  0  0  0  0  0  0  0  0
    5.5826    1.3817    0.0000 H   0  0  0  0  0  0  0  0  0  0  0  0
    4.8923    1.7802    0.0000 H   0  0  0  0  0  0  0  0  0  0  0  0
   12.5056   -1.5818    0.0000 H   0  0  0  0  0  0  0  0  0  0  0  0
   11.3643    0.9815    0.0000 H   0  0  0  0  0  0  0  0  0  0  0  0
   12.1187   -2.1143    0.0000 H   0  0  0  0  0  0  0  0  0  0  0  0
   13.9856   -0.9229    0.0000 H   0  0  0  0  0  0  0  0  0  0  0  0
   12.8443    1.6404    0.0000 H   0  0  0  0  0  0  0  0  0  0  0  0
   11.9494   -3.7254    0.0000 H   0  0  0  0  0  0  0  0  0  0  0  0
    9.1589   -3.4321    0.0000 H   0  0  0  0  0  0  0  0  0  0  0  0
   10.4695   -4.3843    0.0000 H   0  0  0  0  0  0  0  0  0  0  0  0
    2.1900    1.4987    0.0000 H   0  0  0  0  0  0  0  0  0  0  0  0
    4.6200    2.9017    0.0000 H   0  0  0  0  0  0  0  0  0  0  0  0
    1.3800    2.9017    0.0000 H   0  0  0  0  0  0  0  0  0  0  0  0
    3.8100    4.3047    0.0000 H   0  0  0  0  0  0  0  0  0  0  0  0
    2.1900    4.3047    0.0000 H   0  0  0  0  0  0  0  0  0  0  0  0
  1 26  1  0  0  0  0
  2 18  1  0  0  0  0
  2 28  1  0  0  0  0
  3  8  1  0  0  0  0
  3 11  1  0  0  0  0
  3 14  1  0  0  0  0
  4 12  1  0  0  0  0
  4 13  1  0  0  0  0
  4 15  1  0  0  0  0
  5 17  1  0  0  0  0
  5 25  2  0  0  0  0
  6  7  1  0  0  0  0
  6  8  1  0  0  0  0
  6  9  1  0  0  0  0
  6 10  1  0  0  0  0
  7 11  1  0  0  0  0
  7 34  1  0  0  0  0
  7 35  1  0  0  0  0
  8 36  1  0  0  0  0
  8 37  1  0  0  0  0
  9 12  1  0  0  0  0
  9 38  1  0  0  0  0
  9 39  1  0  0  0  0
 10 13  1  0  0  0  0
 10 40  1  0  0  0  0
 10 41  1  0  0  0  0
 11 42  1  0  0  0  0
 11 43  1  0  0  0  0
 12 44  1  0  0  0  0
 12 45  1  0  0  0  0
 13 46  1  0  0  0  0
 13 47  1  0  0  0  0
 14 16  1  0  0  0  0
 14 17  1  0  0  0  0
 14 48  1  0  0  0  0
 15 18  1  0  0  0  0
 15 49  1  0  0  0  0
 15 50  1  0  0  0  0
 16 19  2  0  0  0  0
 16 20  1  0  0  0  0
 17 21  2  0  0  0  0
 18 51  1  0  0  0  0
 18 52  1  0  0  0  0
 19 22  1  0  0  0  0
 19 53  1  0  0  0  0
 20 23  2  0  0  0  0
 20 54  1  0  0  0  0
 21 24  1  0  0  0  0
 21 55  1  0  0  0  0
 22 26  2  0  0  0  0
 22 56  1  0  0  0  0
 23 26  1  0  0  0  0
 23 57  1  0  0  0  0
 24 27  2  0  0  0  0
 24 58  1  0  0  0  0
 25 27  1  0  0  0  0
 25 59  1  0  0  0  0
 27 60  1  0  0  0  0
 28 29  2  0  0  0  0
 28 30  1  0  0  0  0
 29 31  1  0  0  0  0
 29 61  1  0  0  0  0
 30 32  2  0  0  0  0
 30 62  1  0  0  0  0
 31 33  2  0  0  0  0
 31 63  1  0  0  0  0
 32 33  1  0  0  0  0
 32 64  1  0  0  0  0
 33 65  1  0  0  0  0
M  END
> <PUBCHEM_COMPOUND_CID>
121413012

> <PUBCHEM_COMPOUND_CANONICALIZED>
1

> <PUBCHEM_CACTVS_COMPLEXITY>
582

> <PUBCHEM_CACTVS_HBOND_ACCEPTOR>
4

> <PUBCHEM_CACTVS_HBOND_DONOR>
0

> <PUBCHEM_CACTVS_ROTATABLE_BOND>
7

> <PUBCHEM_CACTVS_SUBSKEYS>
AAADcfB7IAAEAAAAAAAAAAAAAAAAAWAAAAA8eIEAAAAAAAAB0AAAHgIAAAAADi7hniY8hpMIFACgAzRnRACCiCAxJyAI2CA+bpgOZuLFs5uXOCjkwBHY6AeQwMAPBAAAAAAAAAAIAAAAAAAAAAAAAAAAAA==

> <PUBCHEM_IUPAC_OPENEYE_NAME>
2-[(4-chlorophenyl)-(2-pyridyl)methyl]-8-(2-phenoxyethyl)-2,8-diazaspiro[4.5]decane

> <PUBCHEM_IUPAC_CAS_NAME>
2-[(4-chlorophenyl)-(2-pyridinyl)methyl]-8-(2-phenoxyethyl)-2,8-diazaspiro[4.5]decane

> <PUBCHEM_IUPAC_NAME_MARKUP>
2-[(4-chlorophenyl)-pyridin-2-ylmethyl]-8-(2-phenoxyethyl)-2,8-diazaspiro[4.5]decane

> <PUBCHEM_IUPAC_NAME>
2-[(4-chlorophenyl)-pyridin-2-ylmethyl]-8-(2-phenoxyethyl)-2,8-diazaspiro[4.5]decane

> <PUBCHEM_IUPAC_SYSTEMATIC_NAME>
2-[(4-chlorophenyl)-pyridin-2-yl-methyl]-8-(2-phenoxyethyl)-2,8-diazaspiro[4.5]decane

> <PUBCHEM_IUPAC_TRADITIONAL_NAME>
2-[(4-chlorophenyl)-(2-pyridyl)methyl]-8-(2-phenoxyethyl)-2,8-diazaspiro[4.5]decane

> <PUBCHEM_IUPAC_INCHI>
InChI=1S/C28H32ClN3O/c29-24-11-9-23(10-12-24)27(26-8-4-5-16-30-26)32-19-15-28(22-32)13-17-31(18-14-28)20-21-33-25-6-2-1-3-7-25/h1-12,16,27H,13-15,17-22H2

> <PUBCHEM_IUPAC_INCHIKEY>
JDKHJTZHUVFMQJ-UHFFFAOYSA-N

> <PUBCHEM_XLOGP3_AA>
5.5

> <PUBCHEM_EXACT_MASS>
461.2233903

> <PUBCHEM_MOLECULAR_FORMULA>
C28H32ClN3O

> <PUBCHEM_MOLECULAR_WEIGHT>
462.0

> <PUBCHEM_OPENEYE_CAN_SMILES>
C1CN(CCC12CCN(C2)C(C3=CC=C(C=C3)Cl)C4=CC=CC=N4)CCOC5=CC=CC=C5

> <PUBCHEM_OPENEYE_ISO_SMILES>
C1CN(CCC12CCN(C2)C(C3=CC=C(C=C3)Cl)C4=CC=CC=N4)CCOC5=CC=CC=C5

> <PUBCHEM_CACTVS_TPSA>
28.6

> <PUBCHEM_MONOISOTOPIC_WEIGHT>
461.2233903

> <PUBCHEM_TOTAL_CHARGE>
0

> <PUBCHEM_HEAVY_ATOM_COUNT>
33

> <PUBCHEM_ATOM_DEF_STEREO_COUNT>
0

> <PUBCHEM_ATOM_UDEF_STEREO_COUNT>
1

> <PUBCHEM_BOND_DEF_STEREO_COUNT>
0

> <PUBCHEM_BOND_UDEF_STEREO_COUNT>
0

> <PUBCHEM_ISOTOPIC_ATOM_COUNT>
0

> <PUBCHEM_COMPONENT_COUNT>
1

> <PUBCHEM_CACTVS_TAUTO_COUNT>
-1

> <PUBCHEM_COORDINATE_TYPE>
1
5
255

> <PUBCHEM_BONDANNOTATIONS>
14  16  3
16  19  8
16  20  8
17  21  8
19  22  8
20  23  8
21  24  8
22  26  8
23  26  8
24  27  8
25  27  8
28  29  8
28  30  8
29  31  8
30  32  8
31  33  8
32  33  8
5  17  8
5  25  8

$$$$
