155534186
  -OEChem-09292322462D

 73 75  0     1  0  0  0  0  0999 V2000
   13.1002    7.7430    0.0000 Cl  0  0  0  0  0  0  0  0  0  0  0  0
    9.6972    0.0000    0.0000 F   0  0  0  0  0  0  0  0  0  0  0  0
   10.6972    1.0000    0.0000 F   0  0  0  0  0  0  0  0  0  0  0  0
    8.6972    1.0000    0.0000 F   0  0  0  0  0  0  0  0  0  0  0  0
    6.5991   12.3660    0.0000 O   0  0  0  0  0  0  0  0  0  0  0  0
    8.3312    7.3660    0.0000 N   0  0  3  0  0  0  0  0  0  0  0  0
    5.7331   10.8660    0.0000 N   0  0  0  0  0  0  0  0  0  0  0  0
    1.4030   13.3660    0.0000 N   0  0  0  0  0  0  0  0  0  0  0  0
    9.1972    5.8660    0.0000 C   0  0  3  0  0  0  0  0  0  0  0  0
    9.6972    5.0000    0.0000 C   0  0  3  0  0  0  0  0  0  0  0  0
   10.1972    5.8660    0.0000 C   0  0  0  0  0  0  0  0  0  0  0  0
    8.3312    6.3660    0.0000 C   0  0  0  0  0  0  0  0  0  0  0  0
    9.6972    4.0000    0.0000 C   0  0  0  0  0  0  0  0  0  0  0  0
    7.4651    7.8660    0.0000 C   0  0  0  0  0  0  0  0  0  0  0  0
    8.8312    3.5000    0.0000 C   0  0  0  0  0  0  0  0  0  0  0  0
   10.5632    3.5000    0.0000 C   0  0  0  0  0  0  0  0  0  0  0  0
    9.1972    7.8660    0.0000 C   0  0  0  0  0  0  0  0  0  0  0  0
    7.4651    8.8660    0.0000 C   0  0  0  0  0  0  0  0  0  0  0  0
    9.1972    8.8660    0.0000 C   0  0  0  0  0  0  0  0  0  0  0  0
    8.8312    2.5000    0.0000 C   0  0  0  0  0  0  0  0  0  0  0  0
   10.5632    2.5000    0.0000 C   0  0  0  0  0  0  0  0  0  0  0  0
    9.6972    2.0000    0.0000 C   0  0  0  0  0  0  0  0  0  0  0  0
    6.5991    9.3660    0.0000 C   0  0  0  0  0  0  0  0  0  0  0  0
   10.0632    9.3660    0.0000 C   0  0  0  0  0  0  0  0  0  0  0  0
    9.6972    1.0000    0.0000 C   0  0  0  0  0  0  0  0  0  0  0  0
    6.5991   10.3660    0.0000 C   0  0  0  0  0  0  0  0  0  0  0  0
    5.7331   11.8660    0.0000 C   0  0  0  0  0  0  0  0  0  0  0  0
    4.8671   12.3660    0.0000 C   0  0  0  0  0  0  0  0  0  0  0  0
    4.8671   13.3660    0.0000 C   0  0  0  0  0  0  0  0  0  0  0  0
    4.0010   11.8660    0.0000 C   0  0  0  0  0  0  0  0  0  0  0  0
    4.0010   13.8660    0.0000 C   0  0  0  0  0  0  0  0  0  0  0  0
    3.1350   12.3660    0.0000 C   0  0  0  0  0  0  0  0  0  0  0  0
    3.1350   13.3660    0.0000 C   0  0  0  0  0  0  0  0  0  0  0  0
    2.2690   13.8660    0.0000 C   0  0  0  0  0  0  0  0  0  0  0  0
    2.2690   14.8660    0.0000 C   0  0  0  0  0  0  0  0  0  0  0  0
    1.4030   15.3660    0.0000 C   0  0  0  0  0  0  0  0  0  0  0  0
    0.5369   13.8660    0.0000 C   0  0  0  0  0  0  0  0  0  0  0  0
    0.5369   14.8660    0.0000 C   0  0  0  0  0  0  0  0  0  0  0  0
    9.3577    6.4649    0.0000 H   0  0  0  0  0  0  0  0  0  0  0  0
   10.2961    4.8395    0.0000 H   0  0  0  0  0  0  0  0  0  0  0  0
   10.7798    5.6540    0.0000 H   0  0  0  0  0  0  0  0  0  0  0  0
   10.3049    6.4766    0.0000 H   0  0  0  0  0  0  0  0  0  0  0  0
    7.7206    6.4737    0.0000 H   0  0  0  0  0  0  0  0  0  0  0  0
    8.1191    5.7834    0.0000 H   0  0  0  0  0  0  0  0  0  0  0  0
    6.8546    7.9737    0.0000 H   0  0  0  0  0  0  0  0  0  0  0  0
    7.2531    7.2834    0.0000 H   0  0  0  0  0  0  0  0  0  0  0  0
    8.2942    3.8100    0.0000 H   0  0  0  0  0  0  0  0  0  0  0  0
   11.1002    3.8100    0.0000 H   0  0  0  0  0  0  0  0  0  0  0  0
    9.4092    7.2834    0.0000 H   0  0  0  0  0  0  0  0  0  0  0  0
    9.8078    7.9737    0.0000 H   0  0  0  0  0  0  0  0  0  0  0  0
    8.0757    8.7584    0.0000 H   0  0  0  0  0  0  0  0  0  0  0  0
    7.6772    9.4486    0.0000 H   0  0  0  0  0  0  0  0  0  0  0  0
    8.9851    9.4486    0.0000 H   0  0  0  0  0  0  0  0  0  0  0  0
    8.5866    8.7584    0.0000 H   0  0  0  0  0  0  0  0  0  0  0  0
    8.2942    2.1900    0.0000 H   0  0  0  0  0  0  0  0  0  0  0  0
   11.1002    2.1900    0.0000 H   0  0  0  0  0  0  0  0  0  0  0  0
    5.9885    9.4737    0.0000 H   0  0  0  0  0  0  0  0  0  0  0  0
    6.3871    8.7834    0.0000 H   0  0  0  0  0  0  0  0  0  0  0  0
   10.3732    8.8291    0.0000 H   0  0  0  0  0  0  0  0  0  0  0  0
   10.6002    9.6760    0.0000 H   0  0  0  0  0  0  0  0  0  0  0  0
    9.7532    9.9030    0.0000 H   0  0  0  0  0  0  0  0  0  0  0  0
    7.2097   10.2584    0.0000 H   0  0  0  0  0  0  0  0  0  0  0  0
    6.8112   10.9486    0.0000 H   0  0  0  0  0  0  0  0  0  0  0  0
    5.1962   10.5560    0.0000 H   0  0  0  0  0  0  0  0  0  0  0  0
    5.4040   13.6760    0.0000 H   0  0  0  0  0  0  0  0  0  0  0  0
    4.0010   11.2460    0.0000 H   0  0  0  0  0  0  0  0  0  0  0  0
    4.0010   14.4860    0.0000 H   0  0  0  0  0  0  0  0  0  0  0  0
    2.5981   12.0560    0.0000 H   0  0  0  0  0  0  0  0  0  0  0  0
    2.8059   15.1760    0.0000 H   0  0  0  0  0  0  0  0  0  0  0  0
    1.4030   15.9860    0.0000 H   0  0  0  0  0  0  0  0  0  0  0  0
    0.0000   13.5560    0.0000 H   0  0  0  0  0  0  0  0  0  0  0  0
    0.0000   15.1760    0.0000 H   0  0  0  0  0  0  0  0  0  0  0  0
   14.1002    7.7430    0.0000 H   0  0  0  0  0  0  0  0  0  0  0  0
  1 73  1  0  0  0  0
  2 25  1  0  0  0  0
  3 25  1  0  0  0  0
  4 25  1  0  0  0  0
  5 27  2  0  0  0  0
  6 12  1  0  0  0  0
  6 14  1  0  0  0  0
  6 17  1  0  0  0  0
  7 26  1  0  0  0  0
  7 27  1  0  0  0  0
  7 64  1  0  0  0  0
  8 34  1  0  0  0  0
  8 37  2  0  0  0  0
  9 10  1  0  0  0  0
  9 11  1  0  0  0  0
  9 12  1  0  0  0  0
  9 39  1  0  0  0  0
 10 11  1  0  0  0  0
 10 13  1  0  0  0  0
 10 40  1  0  0  0  0
 11 41  1  0  0  0  0
 11 42  1  0  0  0  0
 12 43  1  0  0  0  0
 12 44  1  0  0  0  0
 13 15  2  0  0  0  0
 13 16  1  0  0  0  0
 14 18  1  0  0  0  0
 14 45  1  0  0  0  0
 14 46  1  0  0  0  0
 15 20  1  0  0  0  0
 15 47  1  0  0  0  0
 16 21  2  0  0  0  0
 16 48  1  0  0  0  0
 17 19  1  0  0  0  0
 17 49  1  0  0  0  0
 17 50  1  0  0  0  0
 18 23  1  0  0  0  0
 18 51  1  0  0  0  0
 18 52  1  0  0  0  0
 19 24  1  0  0  0  0
 19 53  1  0  0  0  0
 19 54  1  0  0  0  0
 20 22  2  0  0  0  0
 20 55  1  0  0  0  0
 21 22  1  0  0  0  0
 21 56  1  0  0  0  0
 22 25  1  0  0  0  0
 23 26  1  0  0  0  0
 23 57  1  0  0  0  0
 23 58  1  0  0  0  0
 24 59  1  0  0  0  0
 24 60  1  0  0  0  0
 24 61  1  0  0  0  0
 26 62  1  0  0  0  0
 26 63  1  0  0  0  0
 27 28  1  0  0  0  0
 28 29  2  0  0  0  0
 28 30  1  0  0  0  0
 29 31  1  0  0  0  0
 29 65  1  0  0  0  0
 30 32  2  0  0  0  0
 30 66  1  0  0  0  0
 31 33  2  0  0  0  0
 31 67  1  0  0  0  0
 32 33  1  0  0  0  0
 32 68  1  0  0  0  0
 33 34  1  0  0  0  0
 34 35  2  0  0  0  0
 35 36  1  0  0  0  0
 35 69  1  0  0  0  0
 36 38  2  0  0  0  0
 36 70  1  0  0  0  0
 37 38  1  0  0  0  0
 37 71  1  0  0  0  0
 38 72  1  0  0  0  0
M  END
> <PUBCHEM_COMPOUND_CID>
155534186

> <PUBCHEM_COMPOUND_CANONICALIZED>
1

> <PUBCHEM_CACTVS_COMPLEXITY>
686

> <PUBCHEM_CACTVS_HBOND_ACCEPTOR>
6

> <PUBCHEM_CACTVS_HBOND_DONOR>
2

> <PUBCHEM_CACTVS_ROTATABLE_BOND>
12

> <PUBCHEM_CACTVS_SUBSKEYS>
AAADcfB7IYAEAAAAAAAAAAAAGAAAAAAAAAA8YIAAAAAAAAAB0AAAHwAQAAAADQjBnhQ+gJPIEACoAzV3VACCgCA1AiAI2KE4ZNgIIPLAlZGEIQhglgDIyYcYiMCOwAAAAAAAAACAAAAAAAAAAAAAAAAAAA==

> <PUBCHEM_IUPAC_OPENEYE_NAME>
N-[4-[propyl-[[2-[4-(trifluoromethyl)phenyl]cyclopropyl]methyl]amino]butyl]-4-(2-pyridyl)benzamide;hydrochloride

> <PUBCHEM_IUPAC_CAS_NAME>
N-[4-[propyl-[[2-[4-(trifluoromethyl)phenyl]cyclopropyl]methyl]amino]butyl]-4-(2-pyridinyl)benzamide;hydrochloride

> <PUBCHEM_IUPAC_NAME_MARKUP>
<I>N</I>-[4-[propyl-[[2-[4-(trifluoromethyl)phenyl]cyclopropyl]methyl]amino]butyl]-4-pyridin-2-ylbenzamide;hydrochloride

> <PUBCHEM_IUPAC_NAME>
N-[4-[propyl-[[2-[4-(trifluoromethyl)phenyl]cyclopropyl]methyl]amino]butyl]-4-pyridin-2-ylbenzamide;hydrochloride

> <PUBCHEM_IUPAC_SYSTEMATIC_NAME>
N-[4-[propyl-[[2-[4-(trifluoromethyl)phenyl]cyclopropyl]methyl]amino]butyl]-4-pyridin-2-yl-benzamide;hydrochloride

> <PUBCHEM_IUPAC_TRADITIONAL_NAME>
N-[4-[propyl-[[2-[4-(trifluoromethyl)phenyl]cyclopropyl]methyl]amino]butyl]-4-(2-pyridyl)benzamide;hydrochloride

> <PUBCHEM_IUPAC_INCHI>
InChI=1S/C30H34F3N3O.ClH/c1-2-18-36(21-25-20-27(25)22-12-14-26(15-13-22)30(31,32)33)19-6-5-17-35-29(37)24-10-8-23(9-11-24)28-7-3-4-16-34-28;/h3-4,7-16,25,27H,2,5-6,17-21H2,1H3,(H,35,37);1H

> <PUBCHEM_IUPAC_INCHIKEY>
ZPFCVRSVVBBMQM-UHFFFAOYSA-N

> <PUBCHEM_EXACT_MASS>
545.2420749

> <PUBCHEM_MOLECULAR_FORMULA>
C30H35ClF3N3O

> <PUBCHEM_MOLECULAR_WEIGHT>
546.1

> <PUBCHEM_OPENEYE_CAN_SMILES>
CCCN(CCCCNC(=O)C1=CC=C(C=C1)C2=CC=CC=N2)CC3CC3C4=CC=C(C=C4)C(F)(F)F.Cl

> <PUBCHEM_OPENEYE_ISO_SMILES>
CCCN(CCCCNC(=O)C1=CC=C(C=C1)C2=CC=CC=N2)CC3CC3C4=CC=C(C=C4)C(F)(F)F.Cl

> <PUBCHEM_CACTVS_TPSA>
45.2

> <PUBCHEM_MONOISOTOPIC_WEIGHT>
545.2420749

> <PUBCHEM_TOTAL_CHARGE>
0

> <PUBCHEM_HEAVY_ATOM_COUNT>
38

> <PUBCHEM_ATOM_DEF_STEREO_COUNT>
0

> <PUBCHEM_ATOM_UDEF_STEREO_COUNT>
2

> <PUBCHEM_BOND_DEF_STEREO_COUNT>
0

> <PUBCHEM_BOND_UDEF_STEREO_COUNT>
0

> <PUBCHEM_ISOTOPIC_ATOM_COUNT>
0

> <PUBCHEM_COMPONENT_COUNT>
2

> <PUBCHEM_CACTVS_TAUTO_COUNT>
-1

> <PUBCHEM_COORDINATE_TYPE>
1
5
255

> <PUBCHEM_BONDANNOTATIONS>
10  13  3
13  15  8
13  16  8
15  20  8
16  21  8
20  22  8
21  22  8
28  29  8
28  30  8
29  31  8
30  32  8
31  33  8
32  33  8
34  35  8
35  36  8
36  38  8
37  38  8
8  34  8
8  37  8
9  12  3

$$$$
