44436308
  -OEChem-09292322252D

 56 59  0     0  0  0  0  0  0999 V2000
   13.3959    0.9214    0.0000 F   0  0  0  0  0  0  0  0  0  0  0  0
   14.7619    1.2874    0.0000 F   0  0  0  0  0  0  0  0  0  0  0  0
   15.1279   -0.0786    0.0000 F   0  0  0  0  0  0  0  0  0  0  0  0
    4.9889    2.1767    0.0000 O   0  0  0  0  0  0  0  0  0  0  0  0
    9.2619   -1.3106    0.0000 N   0  0  0  0  0  0  0  0  0  0  0  0
   11.2619   -1.3106    0.0000 N   0  0  0  0  0  0  0  0  0  0  0  0
    5.2619    0.4214    0.0000 N   0  0  0  0  0  0  0  0  0  0  0  0
    9.7619   -0.4446    0.0000 C   0  0  0  0  0  0  0  0  0  0  0  0
    9.7619   -2.1767    0.0000 C   0  0  0  0  0  0  0  0  0  0  0  0
    8.2619   -1.3106    0.0000 C   0  0  0  0  0  0  0  0  0  0  0  0
   10.7619   -0.4446    0.0000 C   0  0  0  0  0  0  0  0  0  0  0  0
   10.7619   -2.1767    0.0000 C   0  0  0  0  0  0  0  0  0  0  0  0
    7.7619   -0.4446    0.0000 C   0  0  0  0  0  0  0  0  0  0  0  0
    6.7619   -0.4446    0.0000 C   0  0  0  0  0  0  0  0  0  0  0  0
    6.2619    0.4214    0.0000 C   0  0  0  0  0  0  0  0  0  0  0  0
   12.2619   -1.3106    0.0000 C   0  0  0  0  0  0  0  0  0  0  0  0
    4.6783   -0.3833    0.0000 C   0  0  0  0  0  0  0  0  0  0  0  0
    3.7320   -0.0786    0.0000 C   0  0  0  0  0  0  0  0  0  0  0  0
    4.6783    1.2261    0.0000 C   0  0  0  0  0  0  0  0  0  0  0  0
    3.7320    0.9214    0.0000 C   0  0  0  0  0  0  0  0  0  0  0  0
   12.7619   -0.4446    0.0000 C   0  0  0  0  0  0  0  0  0  0  0  0
   12.7619   -2.1767    0.0000 C   0  0  0  0  0  0  0  0  0  0  0  0
    2.8660   -0.5786    0.0000 C   0  0  0  0  0  0  0  0  0  0  0  0
   13.7619   -0.4446    0.0000 C   0  0  0  0  0  0  0  0  0  0  0  0
    2.8660    1.4214    0.0000 C   0  0  0  0  0  0  0  0  0  0  0  0
   13.7619   -2.1767    0.0000 C   0  0  0  0  0  0  0  0  0  0  0  0
   14.2619   -1.3106    0.0000 C   0  0  0  0  0  0  0  0  0  0  0  0
    2.0000   -0.0786    0.0000 C   0  0  0  0  0  0  0  0  0  0  0  0
    2.0000    0.9214    0.0000 C   0  0  0  0  0  0  0  0  0  0  0  0
   14.2619    0.4214    0.0000 C   0  0  0  0  0  0  0  0  0  0  0  0
    9.8695    0.1660    0.0000 H   0  0  0  0  0  0  0  0  0  0  0  0
    9.1793   -0.2326    0.0000 H   0  0  0  0  0  0  0  0  0  0  0  0
    9.1793   -2.3887    0.0000 H   0  0  0  0  0  0  0  0  0  0  0  0
    9.8695   -2.7872    0.0000 H   0  0  0  0  0  0  0  0  0  0  0  0
    7.6793   -1.5227    0.0000 H   0  0  0  0  0  0  0  0  0  0  0  0
    8.3695   -1.9212    0.0000 H   0  0  0  0  0  0  0  0  0  0  0  0
   11.3445   -0.2326    0.0000 H   0  0  0  0  0  0  0  0  0  0  0  0
   10.6542    0.1660    0.0000 H   0  0  0  0  0  0  0  0  0  0  0  0
   10.6542   -2.7872    0.0000 H   0  0  0  0  0  0  0  0  0  0  0  0
   11.3445   -2.3887    0.0000 H   0  0  0  0  0  0  0  0  0  0  0  0
    8.3445   -0.2326    0.0000 H   0  0  0  0  0  0  0  0  0  0  0  0
    7.6542    0.1660    0.0000 H   0  0  0  0  0  0  0  0  0  0  0  0
    6.1793   -0.6567    0.0000 H   0  0  0  0  0  0  0  0  0  0  0  0
    6.8695   -1.0552    0.0000 H   0  0  0  0  0  0  0  0  0  0  0  0
    6.8445    0.6335    0.0000 H   0  0  0  0  0  0  0  0  0  0  0  0
    6.1542    1.0320    0.0000 H   0  0  0  0  0  0  0  0  0  0  0  0
    4.4272   -0.9502    0.0000 H   0  0  0  0  0  0  0  0  0  0  0  0
    5.2156   -0.6925    0.0000 H   0  0  0  0  0  0  0  0  0  0  0  0
   12.4519    0.0923    0.0000 H   0  0  0  0  0  0  0  0  0  0  0  0
   12.4519   -2.7136    0.0000 H   0  0  0  0  0  0  0  0  0  0  0  0
    2.8660   -1.1986    0.0000 H   0  0  0  0  0  0  0  0  0  0  0  0
    2.8660    2.0414    0.0000 H   0  0  0  0  0  0  0  0  0  0  0  0
   14.0719   -2.7136    0.0000 H   0  0  0  0  0  0  0  0  0  0  0  0
   14.8819   -1.3106    0.0000 H   0  0  0  0  0  0  0  0  0  0  0  0
    1.4631   -0.3886    0.0000 H   0  0  0  0  0  0  0  0  0  0  0  0
    1.4631    1.2314    0.0000 H   0  0  0  0  0  0  0  0  0  0  0  0
  1 30  1  0  0  0  0
  2 30  1  0  0  0  0
  3 30  1  0  0  0  0
  4 19  2  0  0  0  0
  5  8  1  0  0  0  0
  5  9  1  0  0  0  0
  5 10  1  0  0  0  0
  6 11  1  0  0  0  0
  6 12  1  0  0  0  0
  6 16  1  0  0  0  0
  7 15  1  0  0  0  0
  7 17  1  0  0  0  0
  7 19  1  0  0  0  0
  8 11  1  0  0  0  0
  8 31  1  0  0  0  0
  8 32  1  0  0  0  0
  9 12  1  0  0  0  0
  9 33  1  0  0  0  0
  9 34  1  0  0  0  0
 10 13  1  0  0  0  0
 10 35  1  0  0  0  0
 10 36  1  0  0  0  0
 11 37  1  0  0  0  0
 11 38  1  0  0  0  0
 12 39  1  0  0  0  0
 12 40  1  0  0  0  0
 13 14  1  0  0  0  0
 13 41  1  0  0  0  0
 13 42  1  0  0  0  0
 14 15  1  0  0  0  0
 14 43  1  0  0  0  0
 14 44  1  0  0  0  0
 15 45  1  0  0  0  0
 15 46  1  0  0  0  0
 16 21  1  0  0  0  0
 16 22  2  0  0  0  0
 17 18  1  0  0  0  0
 17 47  1  0  0  0  0
 17 48  1  0  0  0  0
 18 20  1  0  0  0  0
 18 23  2  0  0  0  0
 19 20  1  0  0  0  0
 20 25  2  0  0  0  0
 21 24  2  0  0  0  0
 21 49  1  0  0  0  0
 22 26  1  0  0  0  0
 22 50  1  0  0  0  0
 23 28  1  0  0  0  0
 23 51  1  0  0  0  0
 24 27  1  0  0  0  0
 24 30  1  0  0  0  0
 25 29  1  0  0  0  0
 25 52  1  0  0  0  0
 26 27  2  0  0  0  0
 26 53  1  0  0  0  0
 27 54  1  0  0  0  0
 28 29  2  0  0  0  0
 28 55  1  0  0  0  0
 29 56  1  0  0  0  0
M  END
> <PUBCHEM_COMPOUND_CID>
44436308

> <PUBCHEM_COMPOUND_CANONICALIZED>
1

> <PUBCHEM_CACTVS_COMPLEXITY>
577

> <PUBCHEM_CACTVS_HBOND_ACCEPTOR>
6

> <PUBCHEM_CACTVS_HBOND_DONOR>
0

> <PUBCHEM_CACTVS_ROTATABLE_BOND>
6

> <PUBCHEM_CACTVS_SUBSKEYS>
AAADceB7IYAAAAAAAAAAAAAAAAAAAWAAAAA8YIAAAAAAAFgBQAAAHwAAAAAADAjBmBQwwIMAAACIAiVSUACCAAAlAgAIiAEIZMgIYDLAlZGUIQhghgDIyYcciICOgAAAQAAQAAAAAACAACAAAAAAAAAAAA==

> <PUBCHEM_IUPAC_OPENEYE_NAME>
2-[4-[4-[3-(trifluoromethyl)phenyl]piperazin-1-yl]butyl]isoindolin-1-one

> <PUBCHEM_IUPAC_CAS_NAME>
2-[4-[4-[3-(trifluoromethyl)phenyl]-1-piperazinyl]butyl]-3H-isoindol-1-one

> <PUBCHEM_IUPAC_NAME_MARKUP>
2-[4-[4-[3-(trifluoromethyl)phenyl]piperazin-1-yl]butyl]-3<I>H</I>-isoindol-1-one

> <PUBCHEM_IUPAC_NAME>
2-[4-[4-[3-(trifluoromethyl)phenyl]piperazin-1-yl]butyl]-3H-isoindol-1-one

> <PUBCHEM_IUPAC_SYSTEMATIC_NAME>
2-[4-[4-[3-(trifluoromethyl)phenyl]piperazin-1-yl]butyl]-3H-isoindol-1-one

> <PUBCHEM_IUPAC_TRADITIONAL_NAME>
2-[4-[4-[3-(trifluoromethyl)phenyl]piperazino]butyl]isoindolin-1-one

> <PUBCHEM_IUPAC_INCHI>
InChI=1S/C23H26F3N3O/c24-23(25,26)19-7-5-8-20(16-19)28-14-12-27(13-15-28)10-3-4-11-29-17-18-6-1-2-9-21(18)22(29)30/h1-2,5-9,16H,3-4,10-15,17H2

> <PUBCHEM_IUPAC_INCHIKEY>
CROXIASATJXZSZ-UHFFFAOYSA-N

> <PUBCHEM_XLOGP3_AA>
4.2

> <PUBCHEM_EXACT_MASS>
417.20279695

> <PUBCHEM_MOLECULAR_FORMULA>
C23H26F3N3O

> <PUBCHEM_MOLECULAR_WEIGHT>
417.5

> <PUBCHEM_OPENEYE_CAN_SMILES>
C1CN(CCN1CCCCN2CC3=CC=CC=C3C2=O)C4=CC=CC(=C4)C(F)(F)F

> <PUBCHEM_OPENEYE_ISO_SMILES>
C1CN(CCN1CCCCN2CC3=CC=CC=C3C2=O)C4=CC=CC(=C4)C(F)(F)F

> <PUBCHEM_CACTVS_TPSA>
26.8

> <PUBCHEM_MONOISOTOPIC_WEIGHT>
417.20279695

> <PUBCHEM_TOTAL_CHARGE>
0

> <PUBCHEM_HEAVY_ATOM_COUNT>
30

> <PUBCHEM_ATOM_DEF_STEREO_COUNT>
0

> <PUBCHEM_ATOM_UDEF_STEREO_COUNT>
0

> <PUBCHEM_BOND_DEF_STEREO_COUNT>
0

> <PUBCHEM_BOND_UDEF_STEREO_COUNT>
0

> <PUBCHEM_ISOTOPIC_ATOM_COUNT>
0

> <PUBCHEM_COMPONENT_COUNT>
1

> <PUBCHEM_CACTVS_TAUTO_COUNT>
-1

> <PUBCHEM_COORDINATE_TYPE>
1
5
255

> <PUBCHEM_BONDANNOTATIONS>
16  21  8
16  22  8
18  20  8
18  23  8
20  25  8
21  24  8
22  26  8
23  28  8
24  27  8
25  29  8
26  27  8
28  29  8

$$$$
