44436759
  -OEChem-09292322252D

 70 75  0     0  0  0  0  0  0999 V2000
    2.0000    6.1127    0.0000 Cl  0  0  0  0  0  0  0  0  0  0  0  0
    9.2402   -4.2980    0.0000 S   0  0  0  0  0  0  0  0  0  0  0  0
    9.3015   -2.2144    0.0000 O   0  0  0  0  0  0  0  0  0  0  0  0
    5.8374    1.7856    0.0000 N   0  0  0  0  0  0  0  0  0  0  0  0
    7.4909    4.4993    0.0000 N   0  0  0  0  0  0  0  0  0  0  0  0
    7.5694   -2.2144    0.0000 N   0  0  0  0  0  0  0  0  0  0  0  0
    5.8374    3.7856    0.0000 C   0  0  0  0  0  0  0  0  0  0  0  0
    4.9714    2.2856    0.0000 C   0  0  0  0  0  0  0  0  0  0  0  0
    6.7034    2.2856    0.0000 C   0  0  0  0  0  0  0  0  0  0  0  0
    4.9714    3.2856    0.0000 C   0  0  0  0  0  0  0  0  0  0  0  0
    6.7034    3.2856    0.0000 C   0  0  0  0  0  0  0  0  0  0  0  0
    5.8374    0.7856    0.0000 C   0  0  0  0  0  0  0  0  0  0  0  0
    5.8374    4.7856    0.0000 C   0  0  0  0  0  0  0  0  0  0  0  0
    6.7034    0.2856    0.0000 C   0  0  0  0  0  0  0  0  0  0  0  0
    4.9364    5.2195    0.0000 C   0  0  0  0  0  0  0  0  0  0  0  0
    6.7384    5.2195    0.0000 C   0  0  0  0  0  0  0  0  0  0  0  0
    4.7139    6.1944    0.0000 C   0  0  0  0  0  0  0  0  0  0  0  0
    5.3374    6.9763    0.0000 C   0  0  0  0  0  0  0  0  0  0  0  0
    6.9609    6.1944    0.0000 C   0  0  0  0  0  0  0  0  0  0  0  0
    6.3374    6.9763    0.0000 C   0  0  0  0  0  0  0  0  0  0  0  0
    6.7034   -0.7144    0.0000 C   0  0  0  0  0  0  0  0  0  0  0  0
    4.1839    4.4994    0.0000 C   0  0  0  0  0  0  0  0  0  0  0  0
    7.5694   -1.2144    0.0000 C   0  0  0  0  0  0  0  0  0  0  0  0
    3.7234    6.5168    0.0000 C   0  0  0  0  0  0  0  0  0  0  0  0
    7.9514    6.5168    0.0000 C   0  0  0  0  0  0  0  0  0  0  0  0
    3.1862    4.7987    0.0000 C   0  0  0  0  0  0  0  0  0  0  0  0
    2.9544    5.8142    0.0000 C   0  0  0  0  0  0  0  0  0  0  0  0
    8.7204    5.8142    0.0000 C   0  0  0  0  0  0  0  0  0  0  0  0
    8.4886    4.7987    0.0000 C   0  0  0  0  0  0  0  0  0  0  0  0
    8.4354   -2.7144    0.0000 C   0  0  0  0  0  0  0  0  0  0  0  0
    8.4354   -3.7144    0.0000 C   0  0  0  0  0  0  0  0  0  0  0  0
    7.6307   -4.2980    0.0000 C   0  0  0  0  0  0  0  0  0  0  0  0
    7.9354   -5.2442    0.0000 C   0  0  0  0  0  0  0  0  0  0  0  0
    8.9354   -5.2442    0.0000 C   0  0  0  0  0  0  0  0  0  0  0  0
    7.4354   -6.1102    0.0000 C   0  0  0  0  0  0  0  0  0  0  0  0
    9.4354   -6.1102    0.0000 C   0  0  0  0  0  0  0  0  0  0  0  0
    7.9354   -6.9763    0.0000 C   0  0  0  0  0  0  0  0  0  0  0  0
    8.9354   -6.9763    0.0000 C   0  0  0  0  0  0  0  0  0  0  0  0
    4.3608    2.3933    0.0000 H   0  0  0  0  0  0  0  0  0  0  0  0
    4.7593    1.7030    0.0000 H   0  0  0  0  0  0  0  0  0  0  0  0
    6.9155    1.7030    0.0000 H   0  0  0  0  0  0  0  0  0  0  0  0
    7.3140    2.3933    0.0000 H   0  0  0  0  0  0  0  0  0  0  0  0
    4.7593    3.8682    0.0000 H   0  0  0  0  0  0  0  0  0  0  0  0
    4.3608    3.1780    0.0000 H   0  0  0  0  0  0  0  0  0  0  0  0
    7.3140    3.1780    0.0000 H   0  0  0  0  0  0  0  0  0  0  0  0
    6.9155    3.8682    0.0000 H   0  0  0  0  0  0  0  0  0  0  0  0
    5.2268    0.8933    0.0000 H   0  0  0  0  0  0  0  0  0  0  0  0
    5.6253    0.2030    0.0000 H   0  0  0  0  0  0  0  0  0  0  0  0
    7.3140    0.1780    0.0000 H   0  0  0  0  0  0  0  0  0  0  0  0
    6.9155    0.8682    0.0000 H   0  0  0  0  0  0  0  0  0  0  0  0
    5.4754    7.5807    0.0000 H   0  0  0  0  0  0  0  0  0  0  0  0
    4.7788    7.2453    0.0000 H   0  0  0  0  0  0  0  0  0  0  0  0
    6.8960    7.2453    0.0000 H   0  0  0  0  0  0  0  0  0  0  0  0
    6.1995    7.5807    0.0000 H   0  0  0  0  0  0  0  0  0  0  0  0
    6.0928   -0.6067    0.0000 H   0  0  0  0  0  0  0  0  0  0  0  0
    6.4914   -1.2970    0.0000 H   0  0  0  0  0  0  0  0  0  0  0  0
    4.3288    3.8965    0.0000 H   0  0  0  0  0  0  0  0  0  0  0  0
    8.1800   -1.3220    0.0000 H   0  0  0  0  0  0  0  0  0  0  0  0
    7.7815   -0.6318    0.0000 H   0  0  0  0  0  0  0  0  0  0  0  0
    3.5925    7.1228    0.0000 H   0  0  0  0  0  0  0  0  0  0  0  0
    8.0824    7.1228    0.0000 H   0  0  0  0  0  0  0  0  0  0  0  0
    2.7333    4.3752    0.0000 H   0  0  0  0  0  0  0  0  0  0  0  0
    9.3122    5.9992    0.0000 H   0  0  0  0  0  0  0  0  0  0  0  0
    8.9415    4.3752    0.0000 H   0  0  0  0  0  0  0  0  0  0  0  0
    7.0325   -2.5244    0.0000 H   0  0  0  0  0  0  0  0  0  0  0  0
    7.0414   -4.1054    0.0000 H   0  0  0  0  0  0  0  0  0  0  0  0
    6.8154   -6.1102    0.0000 H   0  0  0  0  0  0  0  0  0  0  0  0
   10.0554   -6.1103    0.0000 H   0  0  0  0  0  0  0  0  0  0  0  0
    7.6254   -7.5132    0.0000 H   0  0  0  0  0  0  0  0  0  0  0  0
    9.2454   -7.5132    0.0000 H   0  0  0  0  0  0  0  0  0  0  0  0
  1 27  1  0  0  0  0
  2 31  1  0  0  0  0
  2 34  1  0  0  0  0
  3 30  2  0  0  0  0
  4  8  1  0  0  0  0
  4  9  1  0  0  0  0
  4 12  1  0  0  0  0
  5 16  1  0  0  0  0
  5 29  2  0  0  0  0
  6 23  1  0  0  0  0
  6 30  1  0  0  0  0
  6 65  1  0  0  0  0
  7 10  1  0  0  0  0
  7 11  1  0  0  0  0
  7 13  2  0  0  0  0
  8 10  1  0  0  0  0
  8 39  1  0  0  0  0
  8 40  1  0  0  0  0
  9 11  1  0  0  0  0
  9 41  1  0  0  0  0
  9 42  1  0  0  0  0
 10 43  1  0  0  0  0
 10 44  1  0  0  0  0
 11 45  1  0  0  0  0
 11 46  1  0  0  0  0
 12 14  1  0  0  0  0
 12 47  1  0  0  0  0
 12 48  1  0  0  0  0
 13 15  1  0  0  0  0
 13 16  1  0  0  0  0
 14 21  1  0  0  0  0
 14 49  1  0  0  0  0
 14 50  1  0  0  0  0
 15 17  2  0  0  0  0
 15 22  1  0  0  0  0
 16 19  2  0  0  0  0
 17 18  1  0  0  0  0
 17 24  1  0  0  0  0
 18 20  1  0  0  0  0
 18 51  1  0  0  0  0
 18 52  1  0  0  0  0
 19 20  1  0  0  0  0
 19 25  1  0  0  0  0
 20 53  1  0  0  0  0
 20 54  1  0  0  0  0
 21 23  1  0  0  0  0
 21 55  1  0  0  0  0
 21 56  1  0  0  0  0
 22 26  2  0  0  0  0
 22 57  1  0  0  0  0
 23 58  1  0  0  0  0
 23 59  1  0  0  0  0
 24 27  2  0  0  0  0
 24 60  1  0  0  0  0
 25 28  2  0  0  0  0
 25 61  1  0  0  0  0
 26 27  1  0  0  0  0
 26 62  1  0  0  0  0
 28 29  1  0  0  0  0
 28 63  1  0  0  0  0
 29 64  1  0  0  0  0
 30 31  1  0  0  0  0
 31 32  2  0  0  0  0
 32 33  1  0  0  0  0
 32 66  1  0  0  0  0
 33 34  1  0  0  0  0
 33 35  2  0  0  0  0
 34 36  2  0  0  0  0
 35 37  1  0  0  0  0
 35 67  1  0  0  0  0
 36 38  1  0  0  0  0
 36 68  1  0  0  0  0
 37 38  2  0  0  0  0
 37 69  1  0  0  0  0
 38 70  1  0  0  0  0
M  END
> <PUBCHEM_COMPOUND_CID>
44436759

> <PUBCHEM_COMPOUND_CANONICALIZED>
1

> <PUBCHEM_CACTVS_COMPLEXITY>
841

> <PUBCHEM_CACTVS_HBOND_ACCEPTOR>
4

> <PUBCHEM_CACTVS_HBOND_DONOR>
1

> <PUBCHEM_CACTVS_ROTATABLE_BOND>
6

> <PUBCHEM_CACTVS_SUBSKEYS>
AAADcfB/IABEAAAAAAAAAAAAAAAAASAAAAA8eIEABgAAAEgB/AAAHgYQAAAADArB3iQ8gdPIEAisAzV3VACDgKA1DzBI2Lk4ZtgIIPLhl5GEIQhglgDoyYcYiMCOhAAAIAAUAAAIAABAACgAAAAAAAAAAA==

> <PUBCHEM_IUPAC_OPENEYE_NAME>
N-[4-[4-(13-chloro-4-azatricyclo[9.4.0.03,8]pentadeca-1(11),3(8),4,6,12,14-hexaen-2-ylidene)-1-piperidyl]butyl]benzothiophene-2-carboxamide

> <PUBCHEM_IUPAC_CAS_NAME>
N-[4-[4-(13-chloro-4-azatricyclo[9.4.0.03,8]pentadeca-1(11),3(8),4,6,12,14-hexaen-2-ylidene)-1-piperidinyl]butyl]-1-benzothiophene-2-carboxamide

> <PUBCHEM_IUPAC_NAME_MARKUP>
<I>N</I>-[4-[4-(13-chloro-4-azatricyclo[9.4.0.0<SUP>3,8</SUP>]pentadeca-1(11),3(8),4,6,12,14-hexaen-2-ylidene)piperidin-1-yl]butyl]-1-benzothiophene-2-carboxamide

> <PUBCHEM_IUPAC_NAME>
N-[4-[4-(13-chloro-4-azatricyclo[9.4.0.03,8]pentadeca-1(11),3(8),4,6,12,14-hexaen-2-ylidene)piperidin-1-yl]butyl]-1-benzothiophene-2-carboxamide

> <PUBCHEM_IUPAC_SYSTEMATIC_NAME>
N-[4-[4-(13-chloranyl-4-azatricyclo[9.4.0.03,8]pentadeca-1(11),3(8),4,6,12,14-hexaen-2-ylidene)piperidin-1-yl]butyl]-1-benzothiophene-2-carboxamide

> <PUBCHEM_IUPAC_TRADITIONAL_NAME>
N-[4-[4-(13-chloro-4-azatricyclo[9.4.0.03,8]pentadeca-1(11),3(8),4,6,12,14-hexaen-2-ylidene)piperidino]butyl]benzothiophene-2-carboxamide

> <PUBCHEM_IUPAC_INCHI>
InChI=1S/C32H32ClN3OS/c33-26-11-12-27-24(20-26)10-9-23-7-5-16-34-31(23)30(27)22-13-18-36(19-14-22)17-4-3-15-35-32(37)29-21-25-6-1-2-8-28(25)38-29/h1-2,5-8,11-12,16,20-21H,3-4,9-10,13-15,17-19H2,(H,35,37)

> <PUBCHEM_IUPAC_INCHIKEY>
WZTRJNUHJASJJE-UHFFFAOYSA-N

> <PUBCHEM_XLOGP3_AA>
6.7

> <PUBCHEM_EXACT_MASS>
541.1954615

> <PUBCHEM_MOLECULAR_FORMULA>
C32H32ClN3OS

> <PUBCHEM_MOLECULAR_WEIGHT>
542.1

> <PUBCHEM_OPENEYE_CAN_SMILES>
C1CC2=C(C=CC(=C2)Cl)C(=C3CCN(CC3)CCCCNC(=O)C4=CC5=CC=CC=C5S4)C6=C1C=CC=N6

> <PUBCHEM_OPENEYE_ISO_SMILES>
C1CC2=C(C=CC(=C2)Cl)C(=C3CCN(CC3)CCCCNC(=O)C4=CC5=CC=CC=C5S4)C6=C1C=CC=N6

> <PUBCHEM_CACTVS_TPSA>
73.5

> <PUBCHEM_MONOISOTOPIC_WEIGHT>
541.1954615

> <PUBCHEM_TOTAL_CHARGE>
0

> <PUBCHEM_HEAVY_ATOM_COUNT>
38

> <PUBCHEM_ATOM_DEF_STEREO_COUNT>
0

> <PUBCHEM_ATOM_UDEF_STEREO_COUNT>
0

> <PUBCHEM_BOND_DEF_STEREO_COUNT>
0

> <PUBCHEM_BOND_UDEF_STEREO_COUNT>
0

> <PUBCHEM_ISOTOPIC_ATOM_COUNT>
0

> <PUBCHEM_COMPONENT_COUNT>
1

> <PUBCHEM_CACTVS_TAUTO_COUNT>
-1

> <PUBCHEM_COORDINATE_TYPE>
1
5
255

> <PUBCHEM_BONDANNOTATIONS>
15  17  8
15  22  8
16  19  8
17  24  8
19  25  8
2  31  8
2  34  8
22  26  8
24  27  8
25  28  8
26  27  8
28  29  8
31  32  8
32  33  8
33  34  8
33  35  8
34  36  8
35  37  8
36  38  8
37  38  8
5  16  8
5  29  8

$$$$
