90643699
  -OEChem-09292322352D

 67 71  0     1  0  0  0  0  0999 V2000
    2.0000   -3.9752    0.0000 Cl  0  0  0  0  0  0  0  0  0  0  0  0
    6.2426    0.2675    0.0000 O   0  0  0  0  0  0  0  0  0  0  0  0
    9.4583    0.9405    0.0000 O   0  0  0  0  0  0  0  0  0  0  0  0
    3.8625    1.0439    0.0000 N   0  0  3  0  0  0  0  0  0  0  0  0
    8.5922    2.4405    0.0000 N   0  0  0  0  0  0  0  0  0  0  0  0
    3.1554    0.3368    0.0000 C   0  0  2  0  0  0  0  0  0  0  0  0
    2.8966   -0.6291    0.0000 C   0  0  2  0  0  0  0  0  0  0  0  0
    2.1895    0.0780    0.0000 C   0  0  0  0  0  0  0  0  0  0  0  0
    6.5015    1.2334    0.0000 C   0  0  0  0  0  0  0  0  0  0  0  0
    7.4674    0.9746    0.0000 C   0  0  0  0  0  0  0  0  0  0  0  0
    6.7603    2.1993    0.0000 C   0  0  0  0  0  0  0  0  0  0  0  0
    5.5355    1.4922    0.0000 C   0  0  0  0  0  0  0  0  0  0  0  0
    7.7262    1.9405    0.0000 C   0  0  0  0  0  0  0  0  0  0  0  0
    4.8284    0.7851    0.0000 C   0  0  0  0  0  0  0  0  0  0  0  0
    3.1554   -1.5950    0.0000 C   0  0  0  0  0  0  0  0  0  0  0  0
    3.6037    2.0099    0.0000 C   0  0  0  0  0  0  0  0  0  0  0  0
    2.6378    2.2687    0.0000 C   0  0  0  0  0  0  0  0  0  0  0  0
    2.4483   -2.3021    0.0000 C   0  0  0  0  0  0  0  0  0  0  0  0
    4.1213   -1.8538    0.0000 C   0  0  0  0  0  0  0  0  0  0  0  0
    9.4583    1.9405    0.0000 C   0  0  0  0  0  0  0  0  0  0  0  0
    2.3789    3.2346    0.0000 C   0  0  0  0  0  0  0  0  0  0  0  0
    2.7071   -3.2681    0.0000 C   0  0  0  0  0  0  0  0  0  0  0  0
    4.3801   -2.8198    0.0000 C   0  0  0  0  0  0  0  0  0  0  0  0
    3.6730   -3.5269    0.0000 C   0  0  0  0  0  0  0  0  0  0  0  0
   10.3243    2.4405    0.0000 C   0  0  0  0  0  0  0  0  0  0  0  0
   11.1903    1.9405    0.0000 C   0  0  0  0  0  0  0  0  0  0  0  0
   10.3243    3.4405    0.0000 C   0  0  0  0  0  0  0  0  0  0  0  0
   12.0563    2.4405    0.0000 C   0  0  0  0  0  0  0  0  0  0  0  0
   11.1903    3.9405    0.0000 C   0  0  0  0  0  0  0  0  0  0  0  0
   12.0563    3.4405    0.0000 C   0  0  0  0  0  0  0  0  0  0  0  0
   12.9503    1.9058    0.0000 C   0  0  0  0  0  0  0  0  0  0  0  0
   12.9503    3.9752    0.0000 C   0  0  0  0  0  0  0  0  0  0  0  0
   13.8563    2.4197    0.0000 C   0  0  0  0  0  0  0  0  0  0  0  0
   13.8563    3.4613    0.0000 C   0  0  0  0  0  0  0  0  0  0  0  0
    3.6923    0.0268    0.0000 H   0  0  0  0  0  0  0  0  0  0  0  0
    2.3596   -0.9391    0.0000 H   0  0  0  0  0  0  0  0  0  0  0  0
    1.9274    0.6399    0.0000 H   0  0  0  0  0  0  0  0  0  0  0  0
    1.6816   -0.2776    0.0000 H   0  0  0  0  0  0  0  0  0  0  0  0
    7.3069    0.3757    0.0000 H   0  0  0  0  0  0  0  0  0  0  0  0
    8.0663    0.8141    0.0000 H   0  0  0  0  0  0  0  0  0  0  0  0
    6.9208    2.7982    0.0000 H   0  0  0  0  0  0  0  0  0  0  0  0
    6.1614    2.3598    0.0000 H   0  0  0  0  0  0  0  0  0  0  0  0
    5.7976    2.0541    0.0000 H   0  0  0  0  0  0  0  0  0  0  0  0
    5.0277    1.8478    0.0000 H   0  0  0  0  0  0  0  0  0  0  0  0
    7.6453    2.5552    0.0000 H   0  0  0  0  0  0  0  0  0  0  0  0
    4.5664    0.2232    0.0000 H   0  0  0  0  0  0  0  0  0  0  0  0
    5.3363    0.4295    0.0000 H   0  0  0  0  0  0  0  0  0  0  0  0
    4.2213    2.0639    0.0000 H   0  0  0  0  0  0  0  0  0  0  0  0
    3.6577    2.6275    0.0000 H   0  0  0  0  0  0  0  0  0  0  0  0
    8.5922    3.0605    0.0000 H   0  0  0  0  0  0  0  0  0  0  0  0
    6.6810   -0.1709    0.0000 H   0  0  0  0  0  0  0  0  0  0  0  0
    2.0201    2.2146    0.0000 H   0  0  0  0  0  0  0  0  0  0  0  0
    2.5837    1.6510    0.0000 H   0  0  0  0  0  0  0  0  0  0  0  0
    1.8494   -2.1417    0.0000 H   0  0  0  0  0  0  0  0  0  0  0  0
    4.5597   -1.4154    0.0000 H   0  0  0  0  0  0  0  0  0  0  0  0
    2.9778    3.3951    0.0000 H   0  0  0  0  0  0  0  0  0  0  0  0
    2.2185    3.8335    0.0000 H   0  0  0  0  0  0  0  0  0  0  0  0
    1.7801    3.0741    0.0000 H   0  0  0  0  0  0  0  0  0  0  0  0
    4.9790   -2.9802    0.0000 H   0  0  0  0  0  0  0  0  0  0  0  0
    3.8335   -4.1258    0.0000 H   0  0  0  0  0  0  0  0  0  0  0  0
   11.1903    1.3205    0.0000 H   0  0  0  0  0  0  0  0  0  0  0  0
    9.7873    3.7505    0.0000 H   0  0  0  0  0  0  0  0  0  0  0  0
   11.1903    4.5605    0.0000 H   0  0  0  0  0  0  0  0  0  0  0  0
   12.9431    1.2859    0.0000 H   0  0  0  0  0  0  0  0  0  0  0  0
   12.9431    4.5951    0.0000 H   0  0  0  0  0  0  0  0  0  0  0  0
   14.3921    2.1076    0.0000 H   0  0  0  0  0  0  0  0  0  0  0  0
   14.3921    3.7734    0.0000 H   0  0  0  0  0  0  0  0  0  0  0  0
  1 22  1  0  0  0  0
  2  9  1  0  0  0  0
  2 51  1  0  0  0  0
  3 20  2  0  0  0  0
  6  4  1  6  0  0  0
  4 14  1  0  0  0  0
  4 16  1  0  0  0  0
  5 13  1  0  0  0  0
  5 20  1  0  0  0  0
  5 50  1  0  0  0  0
  6  7  1  0  0  0  0
  6  8  1  0  0  0  0
  6 35  1  0  0  0  0
  7  8  1  0  0  0  0
  7 15  1  1  0  0  0
  7 36  1  0  0  0  0
  8 37  1  0  0  0  0
  8 38  1  0  0  0  0
  9 10  1  0  0  0  0
  9 11  1  0  0  0  0
  9 12  1  0  0  0  0
 10 13  1  0  0  0  0
 10 39  1  0  0  0  0
 10 40  1  0  0  0  0
 11 13  1  0  0  0  0
 11 41  1  0  0  0  0
 11 42  1  0  0  0  0
 12 14  1  0  0  0  0
 12 43  1  0  0  0  0
 12 44  1  0  0  0  0
 13 45  1  0  0  0  0
 14 46  1  0  0  0  0
 14 47  1  0  0  0  0
 15 18  2  0  0  0  0
 15 19  1  0  0  0  0
 16 17  1  0  0  0  0
 16 48  1  0  0  0  0
 16 49  1  0  0  0  0
 17 21  1  0  0  0  0
 17 52  1  0  0  0  0
 17 53  1  0  0  0  0
 18 22  1  0  0  0  0
 18 54  1  0  0  0  0
 19 23  2  0  0  0  0
 19 55  1  0  0  0  0
 20 25  1  0  0  0  0
 21 56  1  0  0  0  0
 21 57  1  0  0  0  0
 21 58  1  0  0  0  0
 22 24  2  0  0  0  0
 23 24  1  0  0  0  0
 23 59  1  0  0  0  0
 24 60  1  0  0  0  0
 25 26  2  0  0  0  0
 25 27  1  0  0  0  0
 26 28  1  0  0  0  0
 26 61  1  0  0  0  0
 27 29  2  0  0  0  0
 27 62  1  0  0  0  0
 28 30  1  0  0  0  0
 28 31  2  0  0  0  0
 29 30  1  0  0  0  0
 29 63  1  0  0  0  0
 30 32  2  0  0  0  0
 31 33  1  0  0  0  0
 31 64  1  0  0  0  0
 32 34  1  0  0  0  0
 32 65  1  0  0  0  0
 33 34  2  0  0  0  0
 33 66  1  0  0  0  0
 34 67  1  0  0  0  0
M  END
> <PUBCHEM_COMPOUND_CID>
90643699

> <PUBCHEM_COMPOUND_CANONICALIZED>
1

> <PUBCHEM_CACTVS_COMPLEXITY>
696

> <PUBCHEM_CACTVS_HBOND_ACCEPTOR>
3

> <PUBCHEM_CACTVS_HBOND_DONOR>
2

> <PUBCHEM_CACTVS_ROTATABLE_BOND>
9

> <PUBCHEM_CACTVS_SUBSKEYS>
AAADcfB7MAAEAAAAAAAAAAAAGABgAAAAAAAwYMAAAAAAAADBVAAAHgIQCAAADW7BmCQyAMPAAgCIAiFSEACCAAAkBQAIiIEIBsgIIDKBlxGEYQhmlgCIiYcYiMCOwAACIAAQAACAAARAACAAAAAAAAAAAA==

> <PUBCHEM_IUPAC_OPENEYE_NAME>
N-[3-[2-[[(1S,2R)-2-(3-chlorophenyl)cyclopropyl]-propyl-amino]ethyl]-3-hydroxy-cyclobutyl]naphthalene-2-carboxamide

> <PUBCHEM_IUPAC_CAS_NAME>
N-[3-[2-[[(1S,2R)-2-(3-chlorophenyl)cyclopropyl]-propylamino]ethyl]-3-hydroxycyclobutyl]-2-naphthalenecarboxamide

> <PUBCHEM_IUPAC_NAME_MARKUP>
<I>N</I>-[3-[2-[[(1<I>S</I>,2<I>R</I>)-2-(3-chlorophenyl)cyclopropyl]-propylamino]ethyl]-3-hydroxycyclobutyl]naphthalene-2-carboxamide

> <PUBCHEM_IUPAC_NAME>
N-[3-[2-[[(1S,2R)-2-(3-chlorophenyl)cyclopropyl]-propylamino]ethyl]-3-hydroxycyclobutyl]naphthalene-2-carboxamide

> <PUBCHEM_IUPAC_SYSTEMATIC_NAME>
N-[3-[2-[[(1S,2R)-2-(3-chlorophenyl)cyclopropyl]-propyl-amino]ethyl]-3-oxidanyl-cyclobutyl]naphthalene-2-carboxamide

> <PUBCHEM_IUPAC_TRADITIONAL_NAME>
N-[3-[2-[[(1S,2R)-2-(3-chlorophenyl)cyclopropyl]-propyl-amino]ethyl]-3-hydroxy-cyclobutyl]-2-naphthamide

> <PUBCHEM_IUPAC_INCHI>
InChI=1S/C29H33ClN2O2/c1-2-13-32(27-17-26(27)22-8-5-9-24(30)16-22)14-12-29(34)18-25(19-29)31-28(33)23-11-10-20-6-3-4-7-21(20)15-23/h3-11,15-16,25-27,34H,2,12-14,17-19H2,1H3,(H,31,33)/t25?,26-,27+,29?/m1/s1

> <PUBCHEM_IUPAC_INCHIKEY>
XXFDUBQKUBCCOE-KLOPNQGQSA-N

> <PUBCHEM_XLOGP3_AA>
6.1

> <PUBCHEM_EXACT_MASS>
476.2230560

> <PUBCHEM_MOLECULAR_FORMULA>
C29H33ClN2O2

> <PUBCHEM_MOLECULAR_WEIGHT>
477.0

> <PUBCHEM_OPENEYE_CAN_SMILES>
CCCN(CCC1(CC(C1)NC(=O)C2=CC3=CC=CC=C3C=C2)O)C4CC4C5=CC(=CC=C5)Cl

> <PUBCHEM_OPENEYE_ISO_SMILES>
CCCN(CCC1(CC(C1)NC(=O)C2=CC3=CC=CC=C3C=C2)O)[C@H]4C[C@@H]4C5=CC(=CC=C5)Cl

> <PUBCHEM_CACTVS_TPSA>
52.6

> <PUBCHEM_MONOISOTOPIC_WEIGHT>
476.2230560

> <PUBCHEM_TOTAL_CHARGE>
0

> <PUBCHEM_HEAVY_ATOM_COUNT>
34

> <PUBCHEM_ATOM_DEF_STEREO_COUNT>
2

> <PUBCHEM_ATOM_UDEF_STEREO_COUNT>
0

> <PUBCHEM_BOND_DEF_STEREO_COUNT>
0

> <PUBCHEM_BOND_UDEF_STEREO_COUNT>
0

> <PUBCHEM_ISOTOPIC_ATOM_COUNT>
0

> <PUBCHEM_COMPONENT_COUNT>
1

> <PUBCHEM_CACTVS_TAUTO_COUNT>
-1

> <PUBCHEM_COORDINATE_TYPE>
1
5
255

> <PUBCHEM_BONDANNOTATIONS>
15  18  8
15  19  8
18  22  8
19  23  8
22  24  8
23  24  8
25  26  8
25  27  8
26  28  8
27  29  8
28  30  8
28  31  8
29  30  8
30  32  8
31  33  8
32  34  8
33  34  8
6  4  6
7  15  5

$$$$
