137662048
  -OEChem-09292322472D

 56 60  0     1  0  0  0  0  0999 V2000
    8.4392   -0.4585    0.0000 S   0  0  0  0  0  0  0  0  0  0  0  0
    2.0000    4.6629    0.0000 F   0  0  0  0  0  0  0  0  0  0  0  0
    6.0000    4.6629    0.0000 N   0  0  3  0  0  0  0  0  0  0  0  0
    6.7071    2.5415    0.0000 N   0  0  0  0  0  0  0  0  0  0  0  0
    7.6301   -2.0462    0.0000 N   0  0  0  0  0  0  0  0  0  0  0  0
    9.2482   -2.0462    0.0000 N   0  0  0  0  0  0  0  0  0  0  0  0
    8.9392   -2.9973    0.0000 N   0  0  0  0  0  0  0  0  0  0  0  0
    6.7071    3.9558    0.0000 C   0  0  0  0  0  0  0  0  0  0  0  0
    6.0000    3.2486    0.0000 C   0  0  0  0  0  0  0  0  0  0  0  0
    7.4142    3.2486    0.0000 C   0  0  0  0  0  0  0  0  0  0  0  0
    7.4142    4.6629    0.0000 C   0  0  0  0  0  0  0  0  0  0  0  0
    6.7071    5.3700    0.0000 C   0  0  0  0  0  0  0  0  0  0  0  0
    6.7071    1.5415    0.0000 C   0  0  0  0  0  0  0  0  0  0  0  0
    5.0000    4.6629    0.0000 C   0  0  0  0  0  0  0  0  0  0  0  0
    7.5731    1.0415    0.0000 C   0  0  0  0  0  0  0  0  0  0  0  0
    4.5000    3.7968    0.0000 C   0  0  0  0  0  0  0  0  0  0  0  0
    4.5000    5.5289    0.0000 C   0  0  0  0  0  0  0  0  0  0  0  0
    7.5731    0.0415    0.0000 C   0  0  0  0  0  0  0  0  0  0  0  0
    3.5000    3.7968    0.0000 C   0  0  0  0  0  0  0  0  0  0  0  0
    3.5000    5.5289    0.0000 C   0  0  0  0  0  0  0  0  0  0  0  0
    3.0000    4.6629    0.0000 C   0  0  0  0  0  0  0  0  0  0  0  0
    8.4392   -1.4585    0.0000 C   0  0  0  0  0  0  0  0  0  0  0  0
    7.9392   -2.9973    0.0000 C   0  0  0  0  0  0  0  0  0  0  0  0
    6.6791   -1.7372    0.0000 C   0  0  0  0  0  0  0  0  0  0  0  0
    7.3514   -3.8063    0.0000 C   0  0  0  0  0  0  0  0  0  0  0  0
    7.7581   -4.7199    0.0000 C   0  0  0  0  0  0  0  0  0  0  0  0
    6.3568   -3.7018    0.0000 C   0  0  0  0  0  0  0  0  0  0  0  0
    7.1703   -5.5289    0.0000 C   0  0  0  0  0  0  0  0  0  0  0  0
    5.7691   -4.5108    0.0000 C   0  0  0  0  0  0  0  0  0  0  0  0
    6.1758   -5.4244    0.0000 C   0  0  0  0  0  0  0  0  0  0  0  0
    5.5616    3.6870    0.0000 H   0  0  0  0  0  0  0  0  0  0  0  0
    5.5616    2.8102    0.0000 H   0  0  0  0  0  0  0  0  0  0  0  0
    7.8526    2.8102    0.0000 H   0  0  0  0  0  0  0  0  0  0  0  0
    7.8526    3.6870    0.0000 H   0  0  0  0  0  0  0  0  0  0  0  0
    7.8526    4.2244    0.0000 H   0  0  0  0  0  0  0  0  0  0  0  0
    7.8526    5.1013    0.0000 H   0  0  0  0  0  0  0  0  0  0  0  0
    7.1455    5.8084    0.0000 H   0  0  0  0  0  0  0  0  0  0  0  0
    6.2687    5.8084    0.0000 H   0  0  0  0  0  0  0  0  0  0  0  0
    6.0965    1.6492    0.0000 H   0  0  0  0  0  0  0  0  0  0  0  0
    6.4950    0.9589    0.0000 H   0  0  0  0  0  0  0  0  0  0  0  0
    8.1837    0.9339    0.0000 H   0  0  0  0  0  0  0  0  0  0  0  0
    7.7852    1.6242    0.0000 H   0  0  0  0  0  0  0  0  0  0  0  0
    4.8100    3.2599    0.0000 H   0  0  0  0  0  0  0  0  0  0  0  0
    4.8100    6.0658    0.0000 H   0  0  0  0  0  0  0  0  0  0  0  0
    6.9626    0.1492    0.0000 H   0  0  0  0  0  0  0  0  0  0  0  0
    7.3611   -0.5411    0.0000 H   0  0  0  0  0  0  0  0  0  0  0  0
    3.1900    3.2599    0.0000 H   0  0  0  0  0  0  0  0  0  0  0  0
    3.1900    6.0658    0.0000 H   0  0  0  0  0  0  0  0  0  0  0  0
    6.8707   -1.1476    0.0000 H   0  0  0  0  0  0  0  0  0  0  0  0
    6.0894   -1.5456    0.0000 H   0  0  0  0  0  0  0  0  0  0  0  0
    6.4875   -2.3269    0.0000 H   0  0  0  0  0  0  0  0  0  0  0  0
    8.3747   -4.7847    0.0000 H   0  0  0  0  0  0  0  0  0  0  0  0
    6.1047   -3.1354    0.0000 H   0  0  0  0  0  0  0  0  0  0  0  0
    7.4225   -6.0953    0.0000 H   0  0  0  0  0  0  0  0  0  0  0  0
    5.1525   -4.4460    0.0000 H   0  0  0  0  0  0  0  0  0  0  0  0
    5.8114   -5.9260    0.0000 H   0  0  0  0  0  0  0  0  0  0  0  0
  1 18  1  0  0  0  0
  1 22  1  0  0  0  0
  2 21  1  0  0  0  0
  3  8  1  0  0  0  0
  3 12  1  0  0  0  0
  3 14  1  0  0  0  0
  4  9  1  0  0  0  0
  4 10  1  0  0  0  0
  4 13  1  0  0  0  0
  5 22  1  0  0  0  0
  5 23  1  0  0  0  0
  5 24  1  0  0  0  0
  6  7  1  0  0  0  0
  6 22  2  0  0  0  0
  7 23  2  0  0  0  0
  8  9  1  0  0  0  0
  8 10  1  0  0  0  0
  8 11  1  0  0  0  0
  9 31  1  0  0  0  0
  9 32  1  0  0  0  0
 10 33  1  0  0  0  0
 10 34  1  0  0  0  0
 11 12  1  0  0  0  0
 11 35  1  0  0  0  0
 11 36  1  0  0  0  0
 12 37  1  0  0  0  0
 12 38  1  0  0  0  0
 13 15  1  0  0  0  0
 13 39  1  0  0  0  0
 13 40  1  0  0  0  0
 14 16  2  0  0  0  0
 14 17  1  0  0  0  0
 15 18  1  0  0  0  0
 15 41  1  0  0  0  0
 15 42  1  0  0  0  0
 16 19  1  0  0  0  0
 16 43  1  0  0  0  0
 17 20  2  0  0  0  0
 17 44  1  0  0  0  0
 18 45  1  0  0  0  0
 18 46  1  0  0  0  0
 19 21  2  0  0  0  0
 19 47  1  0  0  0  0
 20 21  1  0  0  0  0
 20 48  1  0  0  0  0
 23 25  1  0  0  0  0
 24 49  1  0  0  0  0
 24 50  1  0  0  0  0
 24 51  1  0  0  0  0
 25 26  2  0  0  0  0
 25 27  1  0  0  0  0
 26 28  1  0  0  0  0
 26 52  1  0  0  0  0
 27 29  2  0  0  0  0
 27 53  1  0  0  0  0
 28 30  2  0  0  0  0
 28 54  1  0  0  0  0
 29 30  1  0  0  0  0
 29 55  1  0  0  0  0
 30 56  1  0  0  0  0
M  END
> <PUBCHEM_COMPOUND_CID>
137662048

> <PUBCHEM_COMPOUND_CANONICALIZED>
1

> <PUBCHEM_CACTVS_COMPLEXITY>
560

> <PUBCHEM_CACTVS_HBOND_ACCEPTOR>
6

> <PUBCHEM_CACTVS_HBOND_DONOR>
0

> <PUBCHEM_CACTVS_ROTATABLE_BOND>
7

> <PUBCHEM_CACTVS_SUBSKEYS>
AAADceB7gQBAAAAAAAAAAAAAAABYsWAAAAAwYAAAAAAAAAAB0AAAHQQIAAAADIjFWwyz0IcMEAiiAiZiZACS0AthArAdyCAoZJiIaKLgmZGUIAhgiALIyAcQgAAOAAAAAAAAAAAAAAAAAAAAAAAAAAAAAA==

> <PUBCHEM_IUPAC_OPENEYE_NAME>
1-(4-fluorophenyl)-6-[3-[(4-methyl-5-phenyl-1,2,4-triazol-3-yl)sulfanyl]propyl]-1,6-diazaspiro[3.3]heptane

> <PUBCHEM_IUPAC_CAS_NAME>
1-(4-fluorophenyl)-6-[3-[(4-methyl-5-phenyl-1,2,4-triazol-3-yl)thio]propyl]-1,6-diazaspiro[3.3]heptane

> <PUBCHEM_IUPAC_NAME_MARKUP>
1-(4-fluorophenyl)-6-[3-[(4-methyl-5-phenyl-1,2,4-triazol-3-yl)sulfanyl]propyl]-1,6-diazaspiro[3.3]heptane

> <PUBCHEM_IUPAC_NAME>
1-(4-fluorophenyl)-6-[3-[(4-methyl-5-phenyl-1,2,4-triazol-3-yl)sulfanyl]propyl]-1,6-diazaspiro[3.3]heptane

> <PUBCHEM_IUPAC_SYSTEMATIC_NAME>
1-(4-fluorophenyl)-6-[3-[(4-methyl-5-phenyl-1,2,4-triazol-3-yl)sulfanyl]propyl]-1,6-diazaspiro[3.3]heptane

> <PUBCHEM_IUPAC_TRADITIONAL_NAME>
1-(4-fluorophenyl)-6-[3-[(4-methyl-5-phenyl-1,2,4-triazol-3-yl)thio]propyl]-1,6-diazaspiro[3.3]heptane

> <PUBCHEM_IUPAC_INCHI>
InChI=1S/C23H26FN5S/c1-27-21(18-6-3-2-4-7-18)25-26-22(27)30-15-5-13-28-16-23(17-28)12-14-29(23)20-10-8-19(24)9-11-20/h2-4,6-11H,5,12-17H2,1H3

> <PUBCHEM_IUPAC_INCHIKEY>
HFNDOPJMFKOOBM-UHFFFAOYSA-N

> <PUBCHEM_XLOGP3_AA>
4

> <PUBCHEM_EXACT_MASS>
423.18929519

> <PUBCHEM_MOLECULAR_FORMULA>
C23H26FN5S

> <PUBCHEM_MOLECULAR_WEIGHT>
423.6

> <PUBCHEM_OPENEYE_CAN_SMILES>
CN1C(=NN=C1SCCCN2CC3(C2)CCN3C4=CC=C(C=C4)F)C5=CC=CC=C5

> <PUBCHEM_OPENEYE_ISO_SMILES>
CN1C(=NN=C1SCCCN2CC3(C2)CCN3C4=CC=C(C=C4)F)C5=CC=CC=C5

> <PUBCHEM_CACTVS_TPSA>
62.5

> <PUBCHEM_MONOISOTOPIC_WEIGHT>
423.18929519

> <PUBCHEM_TOTAL_CHARGE>
0

> <PUBCHEM_HEAVY_ATOM_COUNT>
30

> <PUBCHEM_ATOM_DEF_STEREO_COUNT>
0

> <PUBCHEM_ATOM_UDEF_STEREO_COUNT>
0

> <PUBCHEM_BOND_DEF_STEREO_COUNT>
0

> <PUBCHEM_BOND_UDEF_STEREO_COUNT>
0

> <PUBCHEM_ISOTOPIC_ATOM_COUNT>
0

> <PUBCHEM_COMPONENT_COUNT>
1

> <PUBCHEM_CACTVS_TAUTO_COUNT>
-1

> <PUBCHEM_COORDINATE_TYPE>
1
5
255

> <PUBCHEM_BONDANNOTATIONS>
14  16  8
14  17  8
16  19  8
17  20  8
19  21  8
20  21  8
25  26  8
25  27  8
26  28  8
27  29  8
28  30  8
29  30  8
5  22  8
5  23  8
6  22  8
6  7  8
7  23  8

$$$$
