15389746
  -OEChem-09292322232D

 48 50  0     1  0  0  0  0  0999 V2000
    7.2461    1.2742    0.0000 O   0  0  0  0  0  0  0  0  0  0  0  0
    3.7359    1.2568    0.0000 O   0  0  0  0  0  0  0  0  0  0  0  0
    9.0382    0.2395    0.0000 N   0  0  3  0  0  0  0  0  0  0  0  0
    2.8641   -0.2398    0.0000 N   0  0  0  0  0  0  0  0  0  0  0  0
    8.1282   -0.2673    0.0000 C   0  0  1  0  0  0  0  0  0  0  0  0
    7.2622    0.2327    0.0000 C   0  0  1  0  0  0  0  0  0  0  0  0
    8.1282   -1.2673    0.0000 C   0  0  0  0  0  0  0  0  0  0  0  0
    6.3961   -0.2673    0.0000 C   0  0  0  0  0  0  0  0  0  0  0  0
    7.2622   -1.7673    0.0000 C   0  0  0  0  0  0  0  0  0  0  0  0
    9.0462    1.2812    0.0000 C   0  0  0  0  0  0  0  0  0  0  0  0
    6.3961   -1.2673    0.0000 C   0  0  0  0  0  0  0  0  0  0  0  0
    8.1441    1.8020    0.0000 C   0  0  0  0  0  0  0  0  0  0  0  0
    9.8984   -0.2704    0.0000 C   0  0  0  0  0  0  0  0  0  0  0  0
    5.5022    0.2674    0.0000 C   0  0  0  0  0  0  0  0  0  0  0  0
   10.7701    0.2195    0.0000 C   0  0  0  0  0  0  0  0  0  0  0  0
    5.5022   -1.8020    0.0000 C   0  0  0  0  0  0  0  0  0  0  0  0
    4.5961   -0.2465    0.0000 C   0  0  0  0  0  0  0  0  0  0  0  0
    4.5961   -1.2881    0.0000 C   0  0  0  0  0  0  0  0  0  0  0  0
   11.6303   -0.2905    0.0000 C   0  0  0  0  0  0  0  0  0  0  0  0
    3.7320    0.2568    0.0000 C   0  0  0  0  0  0  0  0  0  0  0  0
    2.0000    0.2635    0.0000 C   0  0  0  0  0  0  0  0  0  0  0  0
    2.8602   -1.2398    0.0000 C   0  0  0  0  0  0  0  0  0  0  0  0
    8.8610   -0.6980    0.0000 H   0  0  0  0  0  0  0  0  0  0  0  0
    7.9950    0.6634    0.0000 H   0  0  0  0  0  0  0  0  0  0  0  0
    8.3402   -1.8499    0.0000 H   0  0  0  0  0  0  0  0  0  0  0  0
    8.7388   -1.1596    0.0000 H   0  0  0  0  0  0  0  0  0  0  0  0
    6.8636   -2.2422    0.0000 H   0  0  0  0  0  0  0  0  0  0  0  0
    7.6607   -2.2422    0.0000 H   0  0  0  0  0  0  0  0  0  0  0  0
    9.6562    1.1704    0.0000 H   0  0  0  0  0  0  0  0  0  0  0  0
    9.2598    1.8632    0.0000 H   0  0  0  0  0  0  0  0  0  0  0  0
    8.5414    2.2779    0.0000 H   0  0  0  0  0  0  0  0  0  0  0  0
    7.7432    2.2748    0.0000 H   0  0  0  0  0  0  0  0  0  0  0  0
    9.4944   -0.7407    0.0000 H   0  0  0  0  0  0  0  0  0  0  0  0
   10.2914   -0.7500    0.0000 H   0  0  0  0  0  0  0  0  0  0  0  0
    5.5094    0.8873    0.0000 H   0  0  0  0  0  0  0  0  0  0  0  0
   11.1741    0.6898    0.0000 H   0  0  0  0  0  0  0  0  0  0  0  0
   10.3771    0.6990    0.0000 H   0  0  0  0  0  0  0  0  0  0  0  0
    5.5094   -2.4219    0.0000 H   0  0  0  0  0  0  0  0  0  0  0  0
    4.0604   -1.6002    0.0000 H   0  0  0  0  0  0  0  0  0  0  0  0
   11.3141   -0.8238    0.0000 H   0  0  0  0  0  0  0  0  0  0  0  0
   12.1636   -0.6067    0.0000 H   0  0  0  0  0  0  0  0  0  0  0  0
   11.9465    0.2429    0.0000 H   0  0  0  0  0  0  0  0  0  0  0  0
    2.3121    0.7993    0.0000 H   0  0  0  0  0  0  0  0  0  0  0  0
    1.4643    0.5756    0.0000 H   0  0  0  0  0  0  0  0  0  0  0  0
    1.6879   -0.2722    0.0000 H   0  0  0  0  0  0  0  0  0  0  0  0
    2.2402   -1.2374    0.0000 H   0  0  0  0  0  0  0  0  0  0  0  0
    2.8578   -1.8598    0.0000 H   0  0  0  0  0  0  0  0  0  0  0  0
    3.4802   -1.2422    0.0000 H   0  0  0  0  0  0  0  0  0  0  0  0
  1  6  1  0  0  0  0
  1 12  1  0  0  0  0
  2 20  2  0  0  0  0
  3  5  1  0  0  0  0
  3 10  1  0  0  0  0
  3 13  1  0  0  0  0
  4 20  1  0  0  0  0
  4 21  1  0  0  0  0
  4 22  1  0  0  0  0
  5  6  1  0  0  0  0
  5  7  1  0  0  0  0
  5 23  1  1  0  0  0
  6  8  1  0  0  0  0
  6 24  1  6  0  0  0
  7  9  1  0  0  0  0
  7 25  1  0  0  0  0
  7 26  1  0  0  0  0
  8 11  2  0  0  0  0
  8 14  1  0  0  0  0
  9 11  1  0  0  0  0
  9 27  1  0  0  0  0
  9 28  1  0  0  0  0
 10 12  1  0  0  0  0
 10 29  1  0  0  0  0
 10 30  1  0  0  0  0
 11 16  1  0  0  0  0
 12 31  1  0  0  0  0
 12 32  1  0  0  0  0
 13 15  1  0  0  0  0
 13 33  1  0  0  0  0
 13 34  1  0  0  0  0
 14 17  2  0  0  0  0
 14 35  1  0  0  0  0
 15 19  1  0  0  0  0
 15 36  1  0  0  0  0
 15 37  1  0  0  0  0
 16 18  2  0  0  0  0
 16 38  1  0  0  0  0
 17 18  1  0  0  0  0
 17 20  1  0  0  0  0
 18 39  1  0  0  0  0
 19 40  1  0  0  0  0
 19 41  1  0  0  0  0
 19 42  1  0  0  0  0
 21 43  1  0  0  0  0
 21 44  1  0  0  0  0
 21 45  1  0  0  0  0
 22 46  1  0  0  0  0
 22 47  1  0  0  0  0
 22 48  1  0  0  0  0
M  END
> <PUBCHEM_COMPOUND_CID>
15389746

> <PUBCHEM_COMPOUND_CANONICALIZED>
1

> <PUBCHEM_CACTVS_COMPLEXITY>
399

> <PUBCHEM_CACTVS_HBOND_ACCEPTOR>
3

> <PUBCHEM_CACTVS_HBOND_DONOR>
0

> <PUBCHEM_CACTVS_ROTATABLE_BOND>
3

> <PUBCHEM_CACTVS_SUBSKEYS>
AAADceB7MAAAAAAAAAAAAAAAAAAAAAAAAAA8YIAAAAAAAADxAAAAHgAAAAAADDzhmAYyAIMABACIAiFSEACCAAAkAAAIiAEIDMgKJjKAtRmHMQhkwgGYqYeY3PLOwAACAAAQAACQAAaAADAgAAAAAAAAAA==

> <PUBCHEM_IUPAC_OPENEYE_NAME>
(4aR,10bR)-N,N-dimethyl-4-propyl-2,3,4a,5,6,10b-hexahydrobenzo[h][1,4]benzoxazine-9-carboxamide

> <PUBCHEM_IUPAC_CAS_NAME>
(4aR,10bR)-N,N-dimethyl-4-propyl-2,3,4a,5,6,10b-hexahydrobenzo[h][1,4]benzoxazine-9-carboxamide

> <PUBCHEM_IUPAC_NAME_MARKUP>
(4<I>a</I><I>R</I>,10<I>b</I><I>R</I>)-<I>N</I>,<I>N</I>-dimethyl-4-propyl-2,3,4<I>a</I>,5,6,10<I>b</I>-hexahydrobenzo[h][1,4]benzoxazine-9-carboxamide

> <PUBCHEM_IUPAC_NAME>
(4aR,10bR)-N,N-dimethyl-4-propyl-2,3,4a,5,6,10b-hexahydrobenzo[h][1,4]benzoxazine-9-carboxamide

> <PUBCHEM_IUPAC_SYSTEMATIC_NAME>
(4aR,10bR)-N,N-dimethyl-4-propyl-2,3,4a,5,6,10b-hexahydrobenzo[h][1,4]benzoxazine-9-carboxamide

> <PUBCHEM_IUPAC_TRADITIONAL_NAME>
(4aR,10bR)-N,N-dimethyl-4-propyl-2,3,4a,5,6,10b-hexahydrobenzo[h][1,4]benzoxazine-9-carboxamide

> <PUBCHEM_IUPAC_INCHI>
InChI=1S/C18H26N2O2/c1-4-9-20-10-11-22-17-15-12-14(18(21)19(2)3)6-5-13(15)7-8-16(17)20/h5-6,12,16-17H,4,7-11H2,1-3H3/t16-,17-/m1/s1

> <PUBCHEM_IUPAC_INCHIKEY>
UDEAASQJJIGOTN-IAGOWNOFSA-N

> <PUBCHEM_XLOGP3>
2.3

> <PUBCHEM_EXACT_MASS>
302.199428076

> <PUBCHEM_MOLECULAR_FORMULA>
C18H26N2O2

> <PUBCHEM_MOLECULAR_WEIGHT>
302.4

> <PUBCHEM_OPENEYE_CAN_SMILES>
CCCN1CCOC2C1CCC3=C2C=C(C=C3)C(=O)N(C)C

> <PUBCHEM_OPENEYE_ISO_SMILES>
CCCN1CCO[C@H]2[C@H]1CCC3=C2C=C(C=C3)C(=O)N(C)C

> <PUBCHEM_CACTVS_TPSA>
32.8

> <PUBCHEM_MONOISOTOPIC_WEIGHT>
302.199428076

> <PUBCHEM_TOTAL_CHARGE>
0

> <PUBCHEM_HEAVY_ATOM_COUNT>
22

> <PUBCHEM_ATOM_DEF_STEREO_COUNT>
2

> <PUBCHEM_ATOM_UDEF_STEREO_COUNT>
0

> <PUBCHEM_BOND_DEF_STEREO_COUNT>
0

> <PUBCHEM_BOND_UDEF_STEREO_COUNT>
0

> <PUBCHEM_ISOTOPIC_ATOM_COUNT>
0

> <PUBCHEM_COMPONENT_COUNT>
1

> <PUBCHEM_CACTVS_TAUTO_COUNT>
-1

> <PUBCHEM_COORDINATE_TYPE>
1
5
255

> <PUBCHEM_BONDANNOTATIONS>
11  16  8
14  17  8
16  18  8
17  18  8
5  23  5
6  24  6
8  11  8
8  14  8

$$$$
