71583849
  -OEChem-09292322332D

 66 71  0     0  0  0  0  0  0999 V2000
    4.9431   -1.7494    0.0000 N   0  0  0  0  0  0  0  0  0  0  0  0
    5.9431   -0.0174    0.0000 N   0  0  0  0  0  0  0  0  0  0  0  0
    4.7406    2.7973    0.0000 N   0  0  0  0  0  0  0  0  0  0  0  0
    5.6067    3.2973    0.0000 N   0  0  0  0  0  0  0  0  0  0  0  0
    5.9431   -1.7494    0.0000 C   0  0  0  0  0  0  0  0  0  0  0  0
    4.4431   -0.8834    0.0000 C   0  0  0  0  0  0  0  0  0  0  0  0
    6.4431   -0.8834    0.0000 C   0  0  0  0  0  0  0  0  0  0  0  0
    4.9431   -0.0174    0.0000 C   0  0  0  0  0  0  0  0  0  0  0  0
    4.4431   -2.6155    0.0000 C   0  0  0  0  0  0  0  0  0  0  0  0
    6.4431    0.8486    0.0000 C   0  0  0  0  0  0  0  0  0  0  0  0
    3.5814   -2.1180    0.0000 C   0  0  0  0  0  0  0  0  0  0  0  0
    4.4431   -3.6104    0.0000 C   0  0  0  0  0  0  0  0  0  0  0  0
    4.4431   -1.6206    0.0000 C   0  0  0  0  0  0  0  0  0  0  0  0
    3.5814   -4.1079    0.0000 C   0  0  0  0  0  0  0  0  0  0  0  0
    5.9431    1.7146    0.0000 C   0  0  0  0  0  0  0  0  0  0  0  0
    2.7198   -2.6155    0.0000 C   0  0  0  0  0  0  0  0  0  0  0  0
    5.4835   -1.5984    0.0000 C   0  0  0  0  0  0  0  0  0  0  0  0
    4.4431   -4.6053    0.0000 C   0  0  0  0  0  0  0  0  0  0  0  0
    2.7198   -3.6104    0.0000 C   0  0  0  0  0  0  0  0  0  0  0  0
    5.4835   -4.5832    0.0000 C   0  0  0  0  0  0  0  0  0  0  0  0
    6.3451   -2.0959    0.0000 C   0  0  0  0  0  0  0  0  0  0  0  0
    6.3451   -4.0858    0.0000 C   0  0  0  0  0  0  0  0  0  0  0  0
    4.9486    1.8192    0.0000 C   0  0  0  0  0  0  0  0  0  0  0  0
    6.3498    2.6282    0.0000 C   0  0  0  0  0  0  0  0  0  0  0  0
    5.4835   -2.5934    0.0000 C   0  0  0  0  0  0  0  0  0  0  0  0
    7.2067   -2.5934    0.0000 C   0  0  0  0  0  0  0  0  0  0  0  0
    5.4835   -3.5883    0.0000 C   0  0  0  0  0  0  0  0  0  0  0  0
    7.2067   -3.5883    0.0000 C   0  0  0  0  0  0  0  0  0  0  0  0
    3.8271    3.2041    0.0000 C   0  0  0  0  0  0  0  0  0  0  0  0
    3.7226    4.1986    0.0000 C   0  0  0  0  0  0  0  0  0  0  0  0
    3.0181    2.6163    0.0000 C   0  0  0  0  0  0  0  0  0  0  0  0
    2.8090    4.6053    0.0000 C   0  0  0  0  0  0  0  0  0  0  0  0
    2.1045    3.0230    0.0000 C   0  0  0  0  0  0  0  0  0  0  0  0
    2.0000    4.0175    0.0000 C   0  0  0  0  0  0  0  0  0  0  0  0
    5.8354   -2.3600    0.0000 H   0  0  0  0  0  0  0  0  0  0  0  0
    6.5257   -1.9615    0.0000 H   0  0  0  0  0  0  0  0  0  0  0  0
    3.9681   -0.4849    0.0000 H   0  0  0  0  0  0  0  0  0  0  0  0
    3.9681   -1.2820    0.0000 H   0  0  0  0  0  0  0  0  0  0  0  0
    6.9180   -1.2820    0.0000 H   0  0  0  0  0  0  0  0  0  0  0  0
    6.9180   -0.4849    0.0000 H   0  0  0  0  0  0  0  0  0  0  0  0
    5.0507    0.5932    0.0000 H   0  0  0  0  0  0  0  0  0  0  0  0
    4.3605    0.1946    0.0000 H   0  0  0  0  0  0  0  0  0  0  0  0
    6.9180    0.4501    0.0000 H   0  0  0  0  0  0  0  0  0  0  0  0
    6.9180    1.2472    0.0000 H   0  0  0  0  0  0  0  0  0  0  0  0
    4.9800   -3.9204    0.0000 H   0  0  0  0  0  0  0  0  0  0  0  0
    4.6469   -1.0350    0.0000 H   0  0  0  0  0  0  0  0  0  0  0  0
    4.6099   -2.2177    0.0000 H   0  0  0  0  0  0  0  0  0  0  0  0
    2.1829   -2.3055    0.0000 H   0  0  0  0  0  0  0  0  0  0  0  0
    5.9556   -1.1966    0.0000 H   0  0  0  0  0  0  0  0  0  0  0  0
    5.3294   -2.1990    0.0000 H   0  0  0  0  0  0  0  0  0  0  0  0
    3.9710   -5.0072    0.0000 H   0  0  0  0  0  0  0  0  0  0  0  0
    4.5972   -4.0048    0.0000 H   0  0  0  0  0  0  0  0  0  0  0  0
    2.1829   -3.9204    0.0000 H   0  0  0  0  0  0  0  0  0  0  0  0
    5.2797   -5.1688    0.0000 H   0  0  0  0  0  0  0  0  0  0  0  0
    5.3167   -3.9861    0.0000 H   0  0  0  0  0  0  0  0  0  0  0  0
    4.5337    1.3584    0.0000 H   0  0  0  0  0  0  0  0  0  0  0  0
    6.9563    2.7571    0.0000 H   0  0  0  0  0  0  0  0  0  0  0  0
    4.9466   -2.2834    0.0000 H   0  0  0  0  0  0  0  0  0  0  0  0
    7.7437   -2.2834    0.0000 H   0  0  0  0  0  0  0  0  0  0  0  0
    4.9466   -3.8983    0.0000 H   0  0  0  0  0  0  0  0  0  0  0  0
    7.7437   -3.8983    0.0000 H   0  0  0  0  0  0  0  0  0  0  0  0
    4.2242    4.5630    0.0000 H   0  0  0  0  0  0  0  0  0  0  0  0
    3.0829    1.9997    0.0000 H   0  0  0  0  0  0  0  0  0  0  0  0
    2.7442    5.2219    0.0000 H   0  0  0  0  0  0  0  0  0  0  0  0
    1.6029    2.6586    0.0000 H   0  0  0  0  0  0  0  0  0  0  0  0
    1.4336    4.2697    0.0000 H   0  0  0  0  0  0  0  0  0  0  0  0
  1  5  1  0  0  0  0
  1  6  1  0  0  0  0
  1  9  1  0  0  0  0
  2  7  1  0  0  0  0
  2  8  1  0  0  0  0
  2 10  1  0  0  0  0
  3  4  1  0  0  0  0
  3 23  1  0  0  0  0
  3 29  1  0  0  0  0
  4 24  2  0  0  0  0
  5  7  1  0  0  0  0
  5 35  1  0  0  0  0
  5 36  1  0  0  0  0
  6  8  1  0  0  0  0
  6 37  1  0  0  0  0
  6 38  1  0  0  0  0
  7 39  1  0  0  0  0
  7 40  1  0  0  0  0
  8 41  1  0  0  0  0
  8 42  1  0  0  0  0
  9 11  2  0  0  0  0
  9 12  1  0  0  0  0
 10 15  1  0  0  0  0
 10 43  1  0  0  0  0
 10 44  1  0  0  0  0
 11 13  1  0  0  0  0
 11 16  1  0  0  0  0
 12 14  2  0  0  0  0
 12 45  1  0  0  0  0
 13 17  1  0  0  0  0
 13 46  1  0  0  0  0
 13 47  1  0  0  0  0
 14 18  1  0  0  0  0
 14 19  1  0  0  0  0
 15 23  2  0  0  0  0
 15 24  1  0  0  0  0
 16 19  2  0  0  0  0
 16 48  1  0  0  0  0
 17 21  1  0  0  0  0
 17 49  1  0  0  0  0
 17 50  1  0  0  0  0
 18 20  1  0  0  0  0
 18 51  1  0  0  0  0
 18 52  1  0  0  0  0
 19 53  1  0  0  0  0
 20 22  1  0  0  0  0
 20 54  1  0  0  0  0
 20 55  1  0  0  0  0
 21 25  2  0  0  0  0
 21 26  1  0  0  0  0
 22 27  2  0  0  0  0
 22 28  1  0  0  0  0
 23 56  1  0  0  0  0
 24 57  1  0  0  0  0
 25 27  1  0  0  0  0
 25 58  1  0  0  0  0
 26 28  2  0  0  0  0
 26 59  1  0  0  0  0
 27 60  1  0  0  0  0
 28 61  1  0  0  0  0
 29 30  2  0  0  0  0
 29 31  1  0  0  0  0
 30 32  1  0  0  0  0
 30 62  1  0  0  0  0
 31 33  2  0  0  0  0
 31 63  1  0  0  0  0
 32 34  2  0  0  0  0
 32 64  1  0  0  0  0
 33 34  1  0  0  0  0
 33 65  1  0  0  0  0
 34 66  1  0  0  0  0
M  END
> <PUBCHEM_COMPOUND_CID>
71583849

> <PUBCHEM_COMPOUND_CANONICALIZED>
1

> <PUBCHEM_CACTVS_COMPLEXITY>
617

> <PUBCHEM_CACTVS_HBOND_ACCEPTOR>
3

> <PUBCHEM_CACTVS_HBOND_DONOR>
0

> <PUBCHEM_CACTVS_ROTATABLE_BOND>
4

> <PUBCHEM_CACTVS_SUBSKEYS>
AAADcfB7gAAAAAAAAAAAAAAAAAAAAWAAAAA8YMEAAAAAAAAB1AAAHAAIAAAADAjBGgQ8wJMIAACiAjRnRACSBCAxggAYmCAoZJgIYOLA0dGUpAhgiADIyAcQgMAOQAAAQAACAACAAACAAAQAAAAAAAAAAA==

> <PUBCHEM_IUPAC_OPENEYE_NAME>
1-[(1-phenylpyrazol-4-yl)methyl]-4-(5-tricyclo[8.2.2.24,7]hexadeca-1(13),4,6,10(14),11,15-hexaenyl)piperazine

> <PUBCHEM_IUPAC_CAS_NAME>
1-[(1-phenyl-4-pyrazolyl)methyl]-4-(5-tricyclo[8.2.2.24,7]hexadeca-1(13),4,6,10(14),11,15-hexaenyl)piperazine

> <PUBCHEM_IUPAC_NAME_MARKUP>
1-[(1-phenylpyrazol-4-yl)methyl]-4-(5-tricyclo[8.2.2.2<SUP>4,7</SUP>]hexadeca-1(13),4,6,10(14),11,15-hexaenyl)piperazine

> <PUBCHEM_IUPAC_NAME>
1-[(1-phenylpyrazol-4-yl)methyl]-4-(5-tricyclo[8.2.2.24,7]hexadeca-1(13),4,6,10(14),11,15-hexaenyl)piperazine

> <PUBCHEM_IUPAC_SYSTEMATIC_NAME>
1-[(1-phenylpyrazol-4-yl)methyl]-4-(5-tricyclo[8.2.2.24,7]hexadeca-1(13),4,6,10(14),11,15-hexaenyl)piperazine

> <PUBCHEM_IUPAC_TRADITIONAL_NAME>
1-[(1-phenylpyrazol-4-yl)methyl]-4-(5-tricyclo[8.2.2.24,7]hexadeca-1(13),4,6,10(14),11,15-hexaenyl)piperazine

> <PUBCHEM_IUPAC_INCHI>
InChI=1S/C30H32N4/c1-2-4-29(5-3-1)34-23-27(21-31-34)22-32-16-18-33(19-17-32)30-20-26-11-10-24-6-8-25(9-7-24)12-14-28(30)15-13-26/h1-9,13,15,20-21,23H,10-12,14,16-19,22H2

> <PUBCHEM_IUPAC_INCHIKEY>
VVPCRKVUSARVSE-UHFFFAOYSA-N

> <PUBCHEM_XLOGP3_AA>
5.8

> <PUBCHEM_EXACT_MASS>
448.26269704

> <PUBCHEM_MOLECULAR_FORMULA>
C30H32N4

> <PUBCHEM_MOLECULAR_WEIGHT>
448.6

> <PUBCHEM_OPENEYE_CAN_SMILES>
C1CC2=CC(=C(CCC3=CC=C1C=C3)C=C2)N4CCN(CC4)CC5=CN(N=C5)C6=CC=CC=C6

> <PUBCHEM_OPENEYE_ISO_SMILES>
C1CC2=CC(=C(CCC3=CC=C1C=C3)C=C2)N4CCN(CC4)CC5=CN(N=C5)C6=CC=CC=C6

> <PUBCHEM_CACTVS_TPSA>
24.3

> <PUBCHEM_MONOISOTOPIC_WEIGHT>
448.26269704

> <PUBCHEM_TOTAL_CHARGE>
0

> <PUBCHEM_HEAVY_ATOM_COUNT>
34

> <PUBCHEM_ATOM_DEF_STEREO_COUNT>
0

> <PUBCHEM_ATOM_UDEF_STEREO_COUNT>
0

> <PUBCHEM_BOND_DEF_STEREO_COUNT>
0

> <PUBCHEM_BOND_UDEF_STEREO_COUNT>
0

> <PUBCHEM_ISOTOPIC_ATOM_COUNT>
0

> <PUBCHEM_COMPONENT_COUNT>
1

> <PUBCHEM_CACTVS_TAUTO_COUNT>
-1

> <PUBCHEM_COORDINATE_TYPE>
1
5
255

> <PUBCHEM_BONDANNOTATIONS>
11  16  8
12  14  8
14  19  8
15  23  8
15  24  8
16  19  8
21  25  8
21  26  8
22  27  8
22  28  8
25  27  8
26  28  8
29  30  8
29  31  8
3  23  8
3  4  8
30  32  8
31  33  8
32  34  8
33  34  8
4  24  8
9  11  8
9  12  8

$$$$
