44215433
  -OEChem-09292322322D

 58 62  0     0  0  0  0  0  0999 V2000
    6.3981    2.5201    0.0000 O   0  0  0  0  0  0  0  0  0  0  0  0
    6.3981   -0.4799    0.0000 N   0  0  0  0  0  0  0  0  0  0  0  0
    4.6660    2.5201    0.0000 N   0  0  0  0  0  0  0  0  0  0  0  0
   11.4652   -3.6470    0.0000 N   0  0  0  0  0  0  0  0  0  0  0  0
    8.1301   -1.4799    0.0000 C   0  0  0  0  0  0  0  0  0  0  0  0
    8.1301   -0.4799    0.0000 C   0  0  0  0  0  0  0  0  0  0  0  0
    7.2641   -1.9799    0.0000 C   0  0  0  0  0  0  0  0  0  0  0  0
    7.2641    0.0201    0.0000 C   0  0  0  0  0  0  0  0  0  0  0  0
    6.3981   -1.4799    0.0000 C   0  0  0  0  0  0  0  0  0  0  0  0
    5.5321    0.0201    0.0000 C   0  0  0  0  0  0  0  0  0  0  0  0
    8.9962   -1.9799    0.0000 C   0  0  0  0  0  0  0  0  0  0  0  0
    5.5321    1.0201    0.0000 C   0  0  0  0  0  0  0  0  0  0  0  0
    4.6660    1.5201    0.0000 C   0  0  0  0  0  0  0  0  0  0  0  0
    8.9962   -2.9799    0.0000 C   0  0  0  0  0  0  0  0  0  0  0  0
    9.8622   -1.4799    0.0000 C   0  0  0  0  0  0  0  0  0  0  0  0
    9.8622   -3.4799    0.0000 C   0  0  0  0  0  0  0  0  0  0  0  0
    3.8000    3.0201    0.0000 C   0  0  0  0  0  0  0  0  0  0  0  0
   10.7282   -2.9799    0.0000 C   0  0  0  0  0  0  0  0  0  0  0  0
   10.7282   -1.9799    0.0000 C   0  0  0  0  0  0  0  0  0  0  0  0
    5.5321    3.0201    0.0000 C   0  0  0  0  0  0  0  0  0  0  0  0
    5.5321    4.0201    0.0000 C   0  0  0  0  0  0  0  0  0  0  0  0
    3.8000    4.0201    0.0000 C   0  0  0  0  0  0  0  0  0  0  0  0
    4.6660    4.5201    0.0000 C   0  0  0  0  0  0  0  0  0  0  0  0
   10.0714   -4.4517    0.0000 C   0  0  0  0  0  0  0  0  0  0  0  0
    2.9061    2.4854    0.0000 C   0  0  0  0  0  0  0  0  0  0  0  0
    2.9061    4.5548    0.0000 C   0  0  0  0  0  0  0  0  0  0  0  0
   11.0601   -4.5548    0.0000 C   0  0  0  0  0  0  0  0  0  0  0  0
    2.0000    2.9993    0.0000 C   0  0  0  0  0  0  0  0  0  0  0  0
    2.0000    4.0409    0.0000 C   0  0  0  0  0  0  0  0  0  0  0  0
    8.1301   -2.0999    0.0000 H   0  0  0  0  0  0  0  0  0  0  0  0
    8.7407   -0.5876    0.0000 H   0  0  0  0  0  0  0  0  0  0  0  0
    8.3422    0.1027    0.0000 H   0  0  0  0  0  0  0  0  0  0  0  0
    6.8656   -2.4548    0.0000 H   0  0  0  0  0  0  0  0  0  0  0  0
    7.6626   -2.4548    0.0000 H   0  0  0  0  0  0  0  0  0  0  0  0
    7.6626    0.4951    0.0000 H   0  0  0  0  0  0  0  0  0  0  0  0
    6.8656    0.4951    0.0000 H   0  0  0  0  0  0  0  0  0  0  0  0
    5.7875   -1.3722    0.0000 H   0  0  0  0  0  0  0  0  0  0  0  0
    6.1860   -2.0625    0.0000 H   0  0  0  0  0  0  0  0  0  0  0  0
    4.9215    0.1278    0.0000 H   0  0  0  0  0  0  0  0  0  0  0  0
    5.3200   -0.5625    0.0000 H   0  0  0  0  0  0  0  0  0  0  0  0
    6.1426    0.9124    0.0000 H   0  0  0  0  0  0  0  0  0  0  0  0
    5.7441    1.6027    0.0000 H   0  0  0  0  0  0  0  0  0  0  0  0
    4.0555    1.6278    0.0000 H   0  0  0  0  0  0  0  0  0  0  0  0
    4.4540    0.9375    0.0000 H   0  0  0  0  0  0  0  0  0  0  0  0
    8.4592   -3.2899    0.0000 H   0  0  0  0  0  0  0  0  0  0  0  0
    9.8622   -0.8599    0.0000 H   0  0  0  0  0  0  0  0  0  0  0  0
   11.2651   -1.6699    0.0000 H   0  0  0  0  0  0  0  0  0  0  0  0
    6.1426    3.9124    0.0000 H   0  0  0  0  0  0  0  0  0  0  0  0
    5.7441    4.6027    0.0000 H   0  0  0  0  0  0  0  0  0  0  0  0
    5.0646    4.9950    0.0000 H   0  0  0  0  0  0  0  0  0  0  0  0
    4.2675    4.9950    0.0000 H   0  0  0  0  0  0  0  0  0  0  0  0
    9.6573   -4.9132    0.0000 H   0  0  0  0  0  0  0  0  0  0  0  0
    2.9132    1.8655    0.0000 H   0  0  0  0  0  0  0  0  0  0  0  0
   12.0719   -3.5191    0.0000 H   0  0  0  0  0  0  0  0  0  0  0  0
    2.9132    5.1747    0.0000 H   0  0  0  0  0  0  0  0  0  0  0  0
   11.3701   -5.0917    0.0000 H   0  0  0  0  0  0  0  0  0  0  0  0
    1.4643    2.6872    0.0000 H   0  0  0  0  0  0  0  0  0  0  0  0
    1.4643    4.3530    0.0000 H   0  0  0  0  0  0  0  0  0  0  0  0
  1 20  2  0  0  0  0
  2  8  1  0  0  0  0
  2  9  1  0  0  0  0
  2 10  1  0  0  0  0
  3 13  1  0  0  0  0
  3 17  1  0  0  0  0
  3 20  1  0  0  0  0
  4 18  1  0  0  0  0
  4 27  1  0  0  0  0
  4 54  1  0  0  0  0
  5  6  1  0  0  0  0
  5  7  1  0  0  0  0
  5 11  1  0  0  0  0
  5 30  1  0  0  0  0
  6  8  1  0  0  0  0
  6 31  1  0  0  0  0
  6 32  1  0  0  0  0
  7  9  1  0  0  0  0
  7 33  1  0  0  0  0
  7 34  1  0  0  0  0
  8 35  1  0  0  0  0
  8 36  1  0  0  0  0
  9 37  1  0  0  0  0
  9 38  1  0  0  0  0
 10 12  1  0  0  0  0
 10 39  1  0  0  0  0
 10 40  1  0  0  0  0
 11 14  2  0  0  0  0
 11 15  1  0  0  0  0
 12 13  1  0  0  0  0
 12 41  1  0  0  0  0
 12 42  1  0  0  0  0
 13 43  1  0  0  0  0
 13 44  1  0  0  0  0
 14 16  1  0  0  0  0
 14 45  1  0  0  0  0
 15 19  2  0  0  0  0
 15 46  1  0  0  0  0
 16 18  2  0  0  0  0
 16 24  1  0  0  0  0
 17 22  1  0  0  0  0
 17 25  2  0  0  0  0
 18 19  1  0  0  0  0
 19 47  1  0  0  0  0
 20 21  1  0  0  0  0
 21 23  1  0  0  0  0
 21 48  1  0  0  0  0
 21 49  1  0  0  0  0
 22 23  1  0  0  0  0
 22 26  2  0  0  0  0
 23 50  1  0  0  0  0
 23 51  1  0  0  0  0
 24 27  2  0  0  0  0
 24 52  1  0  0  0  0
 25 28  1  0  0  0  0
 25 53  1  0  0  0  0
 26 29  1  0  0  0  0
 26 55  1  0  0  0  0
 27 56  1  0  0  0  0
 28 29  2  0  0  0  0
 28 57  1  0  0  0  0
 29 58  1  0  0  0  0
M  END
> <PUBCHEM_COMPOUND_CID>
44215433

> <PUBCHEM_COMPOUND_CANONICALIZED>
1

> <PUBCHEM_CACTVS_COMPLEXITY>
558

> <PUBCHEM_CACTVS_HBOND_ACCEPTOR>
2

> <PUBCHEM_CACTVS_HBOND_DONOR>
1

> <PUBCHEM_CACTVS_ROTATABLE_BOND>
5

> <PUBCHEM_CACTVS_SUBSKEYS>
AAADceB7IAAAAAAAAAAAAAAAAAAAAWAAAAA8eIEAAAAAAFix9AAAHgAQAAAADQjBngQ8wPPJkACoAzV3VACCgCAxAiAI2aE4ZJgIIPLA0ZGEIAhglgDIyAcYicCeiAACAAACAAAQAAQAAAQAAAAAAAAAAA==

> <PUBCHEM_IUPAC_OPENEYE_NAME>
1-[3-[4-(1H-indol-5-yl)-1-piperidyl]propyl]-3,4-dihydroquinolin-2-one

> <PUBCHEM_IUPAC_CAS_NAME>
1-[3-[4-(1H-indol-5-yl)-1-piperidinyl]propyl]-3,4-dihydroquinolin-2-one

> <PUBCHEM_IUPAC_NAME_MARKUP>
1-[3-[4-(1<I>H</I>-indol-5-yl)piperidin-1-yl]propyl]-3,4-dihydroquinolin-2-one

> <PUBCHEM_IUPAC_NAME>
1-[3-[4-(1H-indol-5-yl)piperidin-1-yl]propyl]-3,4-dihydroquinolin-2-one

> <PUBCHEM_IUPAC_SYSTEMATIC_NAME>
1-[3-[4-(1H-indol-5-yl)piperidin-1-yl]propyl]-3,4-dihydroquinolin-2-one

> <PUBCHEM_IUPAC_TRADITIONAL_NAME>
1-[3-[4-(1H-indol-5-yl)piperidino]propyl]-3,4-dihydrocarbostyril

> <PUBCHEM_IUPAC_INCHI>
InChI=1S/C25H29N3O/c29-25-9-7-20-4-1-2-5-24(20)28(25)15-3-14-27-16-11-19(12-17-27)21-6-8-23-22(18-21)10-13-26-23/h1-2,4-6,8,10,13,18-19,26H,3,7,9,11-12,14-17H2

> <PUBCHEM_IUPAC_INCHIKEY>
QJMDUKSLBFAKOC-UHFFFAOYSA-N

> <PUBCHEM_XLOGP3_AA>
4

> <PUBCHEM_EXACT_MASS>
387.231062557

> <PUBCHEM_MOLECULAR_FORMULA>
C25H29N3O

> <PUBCHEM_MOLECULAR_WEIGHT>
387.5

> <PUBCHEM_OPENEYE_CAN_SMILES>
C1CN(CCC1C2=CC3=C(C=C2)NC=C3)CCCN4C(=O)CCC5=CC=CC=C54

> <PUBCHEM_OPENEYE_ISO_SMILES>
C1CN(CCC1C2=CC3=C(C=C2)NC=C3)CCCN4C(=O)CCC5=CC=CC=C54

> <PUBCHEM_CACTVS_TPSA>
39.3

> <PUBCHEM_MONOISOTOPIC_WEIGHT>
387.231062557

> <PUBCHEM_TOTAL_CHARGE>
0

> <PUBCHEM_HEAVY_ATOM_COUNT>
29

> <PUBCHEM_ATOM_DEF_STEREO_COUNT>
0

> <PUBCHEM_ATOM_UDEF_STEREO_COUNT>
0

> <PUBCHEM_BOND_DEF_STEREO_COUNT>
0

> <PUBCHEM_BOND_UDEF_STEREO_COUNT>
0

> <PUBCHEM_ISOTOPIC_ATOM_COUNT>
0

> <PUBCHEM_COMPONENT_COUNT>
1

> <PUBCHEM_CACTVS_TAUTO_COUNT>
-1

> <PUBCHEM_COORDINATE_TYPE>
1
5
255

> <PUBCHEM_BONDANNOTATIONS>
11  14  8
11  15  8
14  16  8
15  19  8
16  18  8
16  24  8
17  22  8
17  25  8
18  19  8
22  26  8
24  27  8
25  28  8
26  29  8
28  29  8
4  18  8
4  27  8

$$$$
