12581156
  -OEChem-09292322132D

 34 35  0     1  0  0  0  0  0999 V2000
    7.2125   -1.5723    0.0000 O   0  0  0  0  0  0  0  0  0  0  0  0
    3.7320    1.4623    0.0000 N   0  0  0  0  0  0  0  0  0  0  0  0
    4.5981    0.9623    0.0000 C   0  0  3  0  0  0  0  0  0  0  0  0
    4.5981   -0.0377    0.0000 C   0  0  0  0  0  0  0  0  0  0  0  0
    5.4641    1.4623    0.0000 C   0  0  0  0  0  0  0  0  0  0  0  0
    5.4641   -0.5377    0.0000 C   0  0  0  0  0  0  0  0  0  0  0  0
    6.3301    0.9623    0.0000 C   0  0  0  0  0  0  0  0  0  0  0  0
    6.3301   -0.0377    0.0000 C   0  0  0  0  0  0  0  0  0  0  0  0
    7.2241   -0.5724    0.0000 C   0  0  0  0  0  0  0  0  0  0  0  0
    7.2241    1.4970    0.0000 C   0  0  0  0  0  0  0  0  0  0  0  0
    2.8660    0.9623    0.0000 C   0  0  0  0  0  0  0  0  0  0  0  0
    8.1301   -0.0585    0.0000 C   0  0  0  0  0  0  0  0  0  0  0  0
    8.1301    0.9831    0.0000 C   0  0  0  0  0  0  0  0  0  0  0  0
    2.0000    1.4623    0.0000 C   0  0  0  0  0  0  0  0  0  0  0  0
    8.0727   -2.0823    0.0000 C   0  0  0  0  0  0  0  0  0  0  0  0
    4.5981    1.5823    0.0000 H   0  0  0  0  0  0  0  0  0  0  0  0
    3.9875    0.0699    0.0000 H   0  0  0  0  0  0  0  0  0  0  0  0
    4.3860   -0.6203    0.0000 H   0  0  0  0  0  0  0  0  0  0  0  0
    5.8626    1.9372    0.0000 H   0  0  0  0  0  0  0  0  0  0  0  0
    5.0656    1.9372    0.0000 H   0  0  0  0  0  0  0  0  0  0  0  0
    5.0656   -1.0127    0.0000 H   0  0  0  0  0  0  0  0  0  0  0  0
    5.8626   -1.0127    0.0000 H   0  0  0  0  0  0  0  0  0  0  0  0
    3.7320    2.0823    0.0000 H   0  0  0  0  0  0  0  0  0  0  0  0
    7.2169    2.1169    0.0000 H   0  0  0  0  0  0  0  0  0  0  0  0
    2.4675    0.4873    0.0000 H   0  0  0  0  0  0  0  0  0  0  0  0
    3.2646    0.4873    0.0000 H   0  0  0  0  0  0  0  0  0  0  0  0
    8.6659   -0.3706    0.0000 H   0  0  0  0  0  0  0  0  0  0  0  0
    8.6659    1.2952    0.0000 H   0  0  0  0  0  0  0  0  0  0  0  0
    2.3100    1.9992    0.0000 H   0  0  0  0  0  0  0  0  0  0  0  0
    1.4631    1.7723    0.0000 H   0  0  0  0  0  0  0  0  0  0  0  0
    1.6900    0.9254    0.0000 H   0  0  0  0  0  0  0  0  0  0  0  0
    7.7565   -2.6156    0.0000 H   0  0  0  0  0  0  0  0  0  0  0  0
    8.6060   -2.3985    0.0000 H   0  0  0  0  0  0  0  0  0  0  0  0
    8.3889   -1.5490    0.0000 H   0  0  0  0  0  0  0  0  0  0  0  0
  1  9  1  0  0  0  0
  1 15  1  0  0  0  0
  2  3  1  0  0  0  0
  2 11  1  0  0  0  0
  2 23  1  0  0  0  0
  3  4  1  0  0  0  0
  3  5  1  0  0  0  0
  3 16  1  0  0  0  0
  4  6  1  0  0  0  0
  4 17  1  0  0  0  0
  4 18  1  0  0  0  0
  5  7  1  0  0  0  0
  5 19  1  0  0  0  0
  5 20  1  0  0  0  0
  6  8  1  0  0  0  0
  6 21  1  0  0  0  0
  6 22  1  0  0  0  0
  7  8  2  0  0  0  0
  7 10  1  0  0  0  0
  8  9  1  0  0  0  0
  9 12  2  0  0  0  0
 10 13  2  0  0  0  0
 10 24  1  0  0  0  0
 11 14  1  0  0  0  0
 11 25  1  0  0  0  0
 11 26  1  0  0  0  0
 12 13  1  0  0  0  0
 12 27  1  0  0  0  0
 13 28  1  0  0  0  0
 14 29  1  0  0  0  0
 14 30  1  0  0  0  0
 14 31  1  0  0  0  0
 15 32  1  0  0  0  0
 15 33  1  0  0  0  0
 15 34  1  0  0  0  0
M  END
> <PUBCHEM_COMPOUND_CID>
12581156

> <PUBCHEM_COMPOUND_CANONICALIZED>
1

> <PUBCHEM_CACTVS_COMPLEXITY>
195

> <PUBCHEM_CACTVS_HBOND_ACCEPTOR>
2

> <PUBCHEM_CACTVS_HBOND_DONOR>
1

> <PUBCHEM_CACTVS_ROTATABLE_BOND>
3

> <PUBCHEM_CACTVS_SUBSKEYS>
AAADceByIAAAAAAAAAAAAAAAAAAAAAAAAAAwYAAAAAAAAADBAAAAHgAQAAAADCzBmAYyBoLABACAAiBCAAACCAAgIAAIiIAOCIgMJiKEsRuEMCAk0BGIqAeQ0LMOgAABAAAYAAAQAAKAADAAAAAAAAAAAA==

> <PUBCHEM_IUPAC_OPENEYE_NAME>
N-ethyl-5-methoxy-tetralin-2-amine

> <PUBCHEM_IUPAC_CAS_NAME>
N-ethyl-5-methoxy-1,2,3,4-tetrahydronaphthalen-2-amine

> <PUBCHEM_IUPAC_NAME_MARKUP>
<I>N</I>-ethyl-5-methoxy-1,2,3,4-tetrahydronaphthalen-2-amine

> <PUBCHEM_IUPAC_NAME>
N-ethyl-5-methoxy-1,2,3,4-tetrahydronaphthalen-2-amine

> <PUBCHEM_IUPAC_SYSTEMATIC_NAME>
N-ethyl-5-methoxy-1,2,3,4-tetrahydronaphthalen-2-amine

> <PUBCHEM_IUPAC_TRADITIONAL_NAME>
ethyl-(5-methoxytetralin-2-yl)amine

> <PUBCHEM_IUPAC_INCHI>
InChI=1S/C13H19NO/c1-3-14-11-7-8-12-10(9-11)5-4-6-13(12)15-2/h4-6,11,14H,3,7-9H2,1-2H3

> <PUBCHEM_IUPAC_INCHIKEY>
PBBXHMUHWXEQJW-UHFFFAOYSA-N

> <PUBCHEM_XLOGP3_AA>
2.5

> <PUBCHEM_EXACT_MASS>
205.146664230

> <PUBCHEM_MOLECULAR_FORMULA>
C13H19NO

> <PUBCHEM_MOLECULAR_WEIGHT>
205.30

> <PUBCHEM_OPENEYE_CAN_SMILES>
CCNC1CCC2=C(C1)C=CC=C2OC

> <PUBCHEM_OPENEYE_ISO_SMILES>
CCNC1CCC2=C(C1)C=CC=C2OC

> <PUBCHEM_CACTVS_TPSA>
21.3

> <PUBCHEM_MONOISOTOPIC_WEIGHT>
205.146664230

> <PUBCHEM_TOTAL_CHARGE>
0

> <PUBCHEM_HEAVY_ATOM_COUNT>
15

> <PUBCHEM_ATOM_DEF_STEREO_COUNT>
0

> <PUBCHEM_ATOM_UDEF_STEREO_COUNT>
1

> <PUBCHEM_BOND_DEF_STEREO_COUNT>
0

> <PUBCHEM_BOND_UDEF_STEREO_COUNT>
0

> <PUBCHEM_ISOTOPIC_ATOM_COUNT>
0

> <PUBCHEM_COMPONENT_COUNT>
1

> <PUBCHEM_CACTVS_TAUTO_COUNT>
-1

> <PUBCHEM_COORDINATE_TYPE>
1
5
255

> <PUBCHEM_BONDANNOTATIONS>
10  13  8
12  13  8
3  2  3
7  10  8
7  8  8
8  9  8
9  12  8

$$$$
