11283795
  -OEChem-09292322462D

 71 74  0     1  0  0  0  0  0999 V2000
    3.0000   -2.5173    0.0000 S   0  0  0  0  0  0  0  0  0  0  0  0
    8.1962    2.4827    0.0000 O   0  0  0  0  0  0  0  0  0  0  0  0
    2.0000   -2.5173    0.0000 O   0  0  0  0  0  0  0  0  0  0  0  0
    4.0000   -2.5173    0.0000 O   0  0  0  0  0  0  0  0  0  0  0  0
    6.4641   -2.5173    0.0000 N   0  0  0  0  0  0  0  0  0  0  0  0
    4.7320   -3.5173    0.0000 N   0  0  0  0  0  0  0  0  0  0  0  0
    9.9282    2.4827    0.0000 N   0  0  0  0  0  0  0  0  0  0  0  0
    5.5981   -2.0173    0.0000 C   0  0  0  0  0  0  0  0  0  0  0  0
    6.4641   -3.5173    0.0000 C   0  0  0  0  0  0  0  0  0  0  0  0
    4.7320   -2.5173    0.0000 C   0  0  0  0  0  0  0  0  0  0  0  0
    5.5981   -4.0173    0.0000 C   0  0  0  0  0  0  0  0  0  0  0  0
    7.3301   -2.0173    0.0000 C   0  0  0  0  0  0  0  0  0  0  0  0
    9.9282    3.4827    0.0000 C   0  0  3  0  0  0  0  0  0  0  0  0
    9.0622    3.9827    0.0000 C   0  0  0  0  0  0  0  0  0  0  0  0
    7.3301   -1.0173    0.0000 C   0  0  0  0  0  0  0  0  0  0  0  0
    9.0622    4.9827    0.0000 C   0  0  0  0  0  0  0  0  0  0  0  0
   10.7942    3.9827    0.0000 C   0  0  0  0  0  0  0  0  0  0  0  0
    9.9282    5.4827    0.0000 C   0  0  0  0  0  0  0  0  0  0  0  0
    8.1962   -0.5173    0.0000 C   0  0  0  0  0  0  0  0  0  0  0  0
   10.7942    4.9827    0.0000 C   0  0  0  0  0  0  0  0  0  0  0  0
    3.8660   -4.0173    0.0000 C   0  0  0  0  0  0  0  0  0  0  0  0
    8.1962    0.4827    0.0000 C   0  0  0  0  0  0  0  0  0  0  0  0
    9.0622    0.9827    0.0000 C   0  0  0  0  0  0  0  0  0  0  0  0
    9.0622    1.9827    0.0000 C   0  0  0  0  0  0  0  0  0  0  0  0
    3.0000   -3.5173    0.0000 C   0  0  0  0  0  0  0  0  0  0  0  0
   11.6882    3.4480    0.0000 C   0  0  0  0  0  0  0  0  0  0  0  0
   11.6882    5.5173    0.0000 C   0  0  0  0  0  0  0  0  0  0  0  0
    3.8660   -5.0173    0.0000 C   0  0  0  0  0  0  0  0  0  0  0  0
   12.5942    3.9618    0.0000 C   0  0  0  0  0  0  0  0  0  0  0  0
   12.5942    5.0035    0.0000 C   0  0  0  0  0  0  0  0  0  0  0  0
    2.1340   -4.0173    0.0000 C   0  0  0  0  0  0  0  0  0  0  0  0
    3.0000   -5.5173    0.0000 C   0  0  0  0  0  0  0  0  0  0  0  0
    2.1340   -5.0173    0.0000 C   0  0  0  0  0  0  0  0  0  0  0  0
    3.0000   -1.5173    0.0000 C   0  0  0  0  0  0  0  0  0  0  0  0
    5.9966   -1.5424    0.0000 H   0  0  0  0  0  0  0  0  0  0  0  0
    5.1996   -1.5424    0.0000 H   0  0  0  0  0  0  0  0  0  0  0  0
    6.6762   -4.0999    0.0000 H   0  0  0  0  0  0  0  0  0  0  0  0
    7.0747   -3.4097    0.0000 H   0  0  0  0  0  0  0  0  0  0  0  0
    4.5200   -1.9347    0.0000 H   0  0  0  0  0  0  0  0  0  0  0  0
    4.1215   -2.6250    0.0000 H   0  0  0  0  0  0  0  0  0  0  0  0
    5.1996   -4.4923    0.0000 H   0  0  0  0  0  0  0  0  0  0  0  0
    5.9966   -4.4923    0.0000 H   0  0  0  0  0  0  0  0  0  0  0  0
    7.5422   -2.5999    0.0000 H   0  0  0  0  0  0  0  0  0  0  0  0
    7.9407   -1.9097    0.0000 H   0  0  0  0  0  0  0  0  0  0  0  0
   10.4651    3.1727    0.0000 H   0  0  0  0  0  0  0  0  0  0  0  0
    8.4516    4.0903    0.0000 H   0  0  0  0  0  0  0  0  0  0  0  0
    8.8501    3.4001    0.0000 H   0  0  0  0  0  0  0  0  0  0  0  0
    7.1181   -0.4347    0.0000 H   0  0  0  0  0  0  0  0  0  0  0  0
    6.7196   -1.1250    0.0000 H   0  0  0  0  0  0  0  0  0  0  0  0
    8.8501    5.5653    0.0000 H   0  0  0  0  0  0  0  0  0  0  0  0
    8.4516    4.8750    0.0000 H   0  0  0  0  0  0  0  0  0  0  0  0
   10.3267    5.9576    0.0000 H   0  0  0  0  0  0  0  0  0  0  0  0
    9.5297    5.9576    0.0000 H   0  0  0  0  0  0  0  0  0  0  0  0
    8.4082   -1.0999    0.0000 H   0  0  0  0  0  0  0  0  0  0  0  0
    8.8067   -0.4097    0.0000 H   0  0  0  0  0  0  0  0  0  0  0  0
    7.9841    1.0653    0.0000 H   0  0  0  0  0  0  0  0  0  0  0  0
    7.5856    0.3750    0.0000 H   0  0  0  0  0  0  0  0  0  0  0  0
   10.4651    2.1727    0.0000 H   0  0  0  0  0  0  0  0  0  0  0  0
    9.2742    0.4001    0.0000 H   0  0  0  0  0  0  0  0  0  0  0  0
    9.6728    1.0903    0.0000 H   0  0  0  0  0  0  0  0  0  0  0  0
   11.6810    2.8280    0.0000 H   0  0  0  0  0  0  0  0  0  0  0  0
   11.6810    6.1373    0.0000 H   0  0  0  0  0  0  0  0  0  0  0  0
    4.4030   -5.3273    0.0000 H   0  0  0  0  0  0  0  0  0  0  0  0
   13.1300    3.6498    0.0000 H   0  0  0  0  0  0  0  0  0  0  0  0
   13.1300    5.3156    0.0000 H   0  0  0  0  0  0  0  0  0  0  0  0
    1.5970   -3.7073    0.0000 H   0  0  0  0  0  0  0  0  0  0  0  0
    3.0000   -6.1373    0.0000 H   0  0  0  0  0  0  0  0  0  0  0  0
    1.5970   -5.3273    0.0000 H   0  0  0  0  0  0  0  0  0  0  0  0
    3.6200   -1.5173    0.0000 H   0  0  0  0  0  0  0  0  0  0  0  0
    3.0000   -0.8973    0.0000 H   0  0  0  0  0  0  0  0  0  0  0  0
    2.3800   -1.5173    0.0000 H   0  0  0  0  0  0  0  0  0  0  0  0
  1  3  2  0  0  0  0
  1  4  2  0  0  0  0
  1 25  1  0  0  0  0
  1 34  1  0  0  0  0
  2 24  2  0  0  0  0
  5  8  1  0  0  0  0
  5  9  1  0  0  0  0
  5 12  1  0  0  0  0
  6 10  1  0  0  0  0
  6 11  1  0  0  0  0
  6 21  1  0  0  0  0
  7 13  1  0  0  0  0
  7 24  1  0  0  0  0
  7 58  1  0  0  0  0
  8 10  1  0  0  0  0
  8 35  1  0  0  0  0
  8 36  1  0  0  0  0
  9 11  1  0  0  0  0
  9 37  1  0  0  0  0
  9 38  1  0  0  0  0
 10 39  1  0  0  0  0
 10 40  1  0  0  0  0
 11 41  1  0  0  0  0
 11 42  1  0  0  0  0
 12 15  1  0  0  0  0
 12 43  1  0  0  0  0
 12 44  1  0  0  0  0
 13 14  1  0  0  0  0
 13 17  1  0  0  0  0
 13 45  1  0  0  0  0
 14 16  1  0  0  0  0
 14 46  1  0  0  0  0
 14 47  1  0  0  0  0
 15 19  1  0  0  0  0
 15 48  1  0  0  0  0
 15 49  1  0  0  0  0
 16 18  1  0  0  0  0
 16 50  1  0  0  0  0
 16 51  1  0  0  0  0
 17 20  1  0  0  0  0
 17 26  2  0  0  0  0
 18 20  1  0  0  0  0
 18 52  1  0  0  0  0
 18 53  1  0  0  0  0
 19 22  1  0  0  0  0
 19 54  1  0  0  0  0
 19 55  1  0  0  0  0
 20 27  2  0  0  0  0
 21 25  1  0  0  0  0
 21 28  2  0  0  0  0
 22 23  1  0  0  0  0
 22 56  1  0  0  0  0
 22 57  1  0  0  0  0
 23 24  1  0  0  0  0
 23 59  1  0  0  0  0
 23 60  1  0  0  0  0
 25 31  2  0  0  0  0
 26 29  1  0  0  0  0
 26 61  1  0  0  0  0
 27 30  1  0  0  0  0
 27 62  1  0  0  0  0
 28 32  1  0  0  0  0
 28 63  1  0  0  0  0
 29 30  2  0  0  0  0
 29 64  1  0  0  0  0
 30 65  1  0  0  0  0
 31 33  1  0  0  0  0
 31 66  1  0  0  0  0
 32 33  2  0  0  0  0
 32 67  1  0  0  0  0
 33 68  1  0  0  0  0
 34 69  1  0  0  0  0
 34 70  1  0  0  0  0
 34 71  1  0  0  0  0
M  END
> <PUBCHEM_COMPOUND_CID>
11283795

> <PUBCHEM_COMPOUND_CANONICALIZED>
1

> <PUBCHEM_CACTVS_COMPLEXITY>
745

> <PUBCHEM_CACTVS_HBOND_ACCEPTOR>
5

> <PUBCHEM_CACTVS_HBOND_DONOR>
1

> <PUBCHEM_CACTVS_ROTATABLE_BOND>
9

> <PUBCHEM_CACTVS_SUBSKEYS>
AAADcfB7MABAAAAAAAAAAAAAAAAAAAAAAAA8YMEAAAAAAADBQAAAHgQQAAAADCjB2ASywYPAAAqIAiVSUHDCAAAhChAIiJ0IZIgIYDLgkZGUIAhglgDIyAcYiIAOgAAAAAAQAQAAAACAACQCAAAAAAAAAA==

> <PUBCHEM_IUPAC_OPENEYE_NAME>
6-[4-(2-methylsulfonylphenyl)piperazin-1-yl]-N-tetralin-1-yl-hexanamide

> <PUBCHEM_IUPAC_CAS_NAME>
6-[4-(2-methylsulfonylphenyl)-1-piperazinyl]-N-(1,2,3,4-tetrahydronaphthalen-1-yl)hexanamide

> <PUBCHEM_IUPAC_NAME_MARKUP>
6-[4-(2-methylsulfonylphenyl)piperazin-1-yl]-<I>N</I>-(1,2,3,4-tetrahydronaphthalen-1-yl)hexanamide

> <PUBCHEM_IUPAC_NAME>
6-[4-(2-methylsulfonylphenyl)piperazin-1-yl]-N-(1,2,3,4-tetrahydronaphthalen-1-yl)hexanamide

> <PUBCHEM_IUPAC_SYSTEMATIC_NAME>
6-[4-(2-methylsulfonylphenyl)piperazin-1-yl]-N-(1,2,3,4-tetrahydronaphthalen-1-yl)hexanamide

> <PUBCHEM_IUPAC_TRADITIONAL_NAME>
6-[4-(2-mesylphenyl)piperazino]-N-tetralin-1-yl-hexanamide

> <PUBCHEM_IUPAC_INCHI>
InChI=1S/C27H37N3O3S/c1-34(32,33)26-15-7-6-14-25(26)30-20-18-29(19-21-30)17-8-2-3-16-27(31)28-24-13-9-11-22-10-4-5-12-23(22)24/h4-7,10,12,14-15,24H,2-3,8-9,11,13,16-21H2,1H3,(H,28,31)

> <PUBCHEM_IUPAC_INCHIKEY>
NXWSVHVNLWEBAY-UHFFFAOYSA-N

> <PUBCHEM_XLOGP3_AA>
3.7

> <PUBCHEM_EXACT_MASS>
483.25556322

> <PUBCHEM_MOLECULAR_FORMULA>
C27H37N3O3S

> <PUBCHEM_MOLECULAR_WEIGHT>
483.7

> <PUBCHEM_OPENEYE_CAN_SMILES>
CS(=O)(=O)C1=CC=CC=C1N2CCN(CC2)CCCCCC(=O)NC3CCCC4=CC=CC=C34

> <PUBCHEM_OPENEYE_ISO_SMILES>
CS(=O)(=O)C1=CC=CC=C1N2CCN(CC2)CCCCCC(=O)NC3CCCC4=CC=CC=C34

> <PUBCHEM_CACTVS_TPSA>
78.1

> <PUBCHEM_MONOISOTOPIC_WEIGHT>
483.25556322

> <PUBCHEM_TOTAL_CHARGE>
0

> <PUBCHEM_HEAVY_ATOM_COUNT>
34

> <PUBCHEM_ATOM_DEF_STEREO_COUNT>
0

> <PUBCHEM_ATOM_UDEF_STEREO_COUNT>
1

> <PUBCHEM_BOND_DEF_STEREO_COUNT>
0

> <PUBCHEM_BOND_UDEF_STEREO_COUNT>
0

> <PUBCHEM_ISOTOPIC_ATOM_COUNT>
0

> <PUBCHEM_COMPONENT_COUNT>
1

> <PUBCHEM_CACTVS_TAUTO_COUNT>
-1

> <PUBCHEM_COORDINATE_TYPE>
1
5
255

> <PUBCHEM_BONDANNOTATIONS>
17  20  8
17  26  8
20  27  8
21  25  8
21  28  8
25  31  8
26  29  8
27  30  8
28  32  8
29  30  8
31  33  8
32  33  8
13  7  3

$$$$
