21048822
  -OEChem-09292322482D

 51 52  0     1  0  0  0  0  0999 V2000
    7.1962   -2.1830    0.0000 S   0  0  0  0  0  0  0  0  0  0  0  0
    2.0000    3.8170    0.0000 F   0  0  0  0  0  0  0  0  0  0  0  0
    3.3660    4.1830    0.0000 F   0  0  0  0  0  0  0  0  0  0  0  0
    2.3660    2.4510    0.0000 F   0  0  0  0  0  0  0  0  0  0  0  0
    6.6962   -3.0490    0.0000 O   0  0  0  0  0  0  0  0  0  0  0  0
    7.6962   -1.3170    0.0000 O   0  0  0  0  0  0  0  0  0  0  0  0
    4.5981    1.3170    0.0000 N   0  0  3  0  0  0  0  0  0  0  0  0
    3.7320    2.8170    0.0000 C   0  0  3  0  0  0  0  0  0  0  0  0
    6.3301   -1.6830    0.0000 C   0  0  0  0  0  0  0  0  0  0  0  0
    3.7320    1.8170    0.0000 C   0  0  0  0  0  0  0  0  0  0  0  0
    4.5981    3.3170    0.0000 C   0  0  0  0  0  0  0  0  0  0  0  0
    4.5981    0.3170    0.0000 C   0  0  0  0  0  0  0  0  0  0  0  0
    5.4641   -1.1830    0.0000 C   0  0  0  0  0  0  0  0  0  0  0  0
    5.4641    1.8170    0.0000 C   0  0  0  0  0  0  0  0  0  0  0  0
    5.4641    2.8170    0.0000 C   0  0  0  0  0  0  0  0  0  0  0  0
    5.4641   -0.1830    0.0000 C   0  0  0  0  0  0  0  0  0  0  0  0
    2.8660    3.3170    0.0000 C   0  0  0  0  0  0  0  0  0  0  0  0
    5.8301   -2.5490    0.0000 C   0  0  0  0  0  0  0  0  0  0  0  0
    6.8301   -0.8170    0.0000 C   0  0  0  0  0  0  0  0  0  0  0  0
    8.0622   -2.6830    0.0000 C   0  0  0  0  0  0  0  0  0  0  0  0
    8.9282   -2.1830    0.0000 C   0  0  0  0  0  0  0  0  0  0  0  0
    8.0622   -3.6830    0.0000 C   0  0  0  0  0  0  0  0  0  0  0  0
    9.7942   -2.6830    0.0000 C   0  0  0  0  0  0  0  0  0  0  0  0
    8.9282   -4.1830    0.0000 C   0  0  0  0  0  0  0  0  0  0  0  0
    9.7942   -3.6830    0.0000 C   0  0  0  0  0  0  0  0  0  0  0  0
    3.7320    3.4370    0.0000 H   0  0  0  0  0  0  0  0  0  0  0  0
    3.1215    1.9246    0.0000 H   0  0  0  0  0  0  0  0  0  0  0  0
    3.5200    1.2344    0.0000 H   0  0  0  0  0  0  0  0  0  0  0  0
    4.9966    3.7919    0.0000 H   0  0  0  0  0  0  0  0  0  0  0  0
    4.1996    3.7919    0.0000 H   0  0  0  0  0  0  0  0  0  0  0  0
    4.8535   -1.0754    0.0000 H   0  0  0  0  0  0  0  0  0  0  0  0
    5.2520   -1.7656    0.0000 H   0  0  0  0  0  0  0  0  0  0  0  0
    3.9875    0.4246    0.0000 H   0  0  0  0  0  0  0  0  0  0  0  0
    4.3860   -0.2656    0.0000 H   0  0  0  0  0  0  0  0  0  0  0  0
    5.6762    1.2344    0.0000 H   0  0  0  0  0  0  0  0  0  0  0  0
    6.0747    1.9246    0.0000 H   0  0  0  0  0  0  0  0  0  0  0  0
    6.0747   -0.2907    0.0000 H   0  0  0  0  0  0  0  0  0  0  0  0
    5.6762    0.3996    0.0000 H   0  0  0  0  0  0  0  0  0  0  0  0
    6.0747    2.7093    0.0000 H   0  0  0  0  0  0  0  0  0  0  0  0
    5.6762    3.3996    0.0000 H   0  0  0  0  0  0  0  0  0  0  0  0
    5.2932   -2.2390    0.0000 H   0  0  0  0  0  0  0  0  0  0  0  0
    5.5201   -3.0860    0.0000 H   0  0  0  0  0  0  0  0  0  0  0  0
    6.3671   -2.8590    0.0000 H   0  0  0  0  0  0  0  0  0  0  0  0
    7.3671   -1.1270    0.0000 H   0  0  0  0  0  0  0  0  0  0  0  0
    7.1401   -0.2801    0.0000 H   0  0  0  0  0  0  0  0  0  0  0  0
    6.2932   -0.5070    0.0000 H   0  0  0  0  0  0  0  0  0  0  0  0
    8.9282   -1.5630    0.0000 H   0  0  0  0  0  0  0  0  0  0  0  0
    7.5252   -3.9930    0.0000 H   0  0  0  0  0  0  0  0  0  0  0  0
   10.3312   -2.3730    0.0000 H   0  0  0  0  0  0  0  0  0  0  0  0
    8.9282   -4.8030    0.0000 H   0  0  0  0  0  0  0  0  0  0  0  0
   10.3312   -3.9930    0.0000 H   0  0  0  0  0  0  0  0  0  0  0  0
  1  5  2  0  0  0  0
  1  6  2  0  0  0  0
  1  9  1  0  0  0  0
  1 20  1  0  0  0  0
  2 17  1  0  0  0  0
  3 17  1  0  0  0  0
  4 17  1  0  0  0  0
  7 10  1  0  0  0  0
  7 12  1  0  0  0  0
  7 14  1  0  0  0  0
  8 10  1  0  0  0  0
  8 11  1  0  0  0  0
  8 17  1  0  0  0  0
  8 26  1  0  0  0  0
  9 13  1  0  0  0  0
  9 18  1  0  0  0  0
  9 19  1  0  0  0  0
 10 27  1  0  0  0  0
 10 28  1  0  0  0  0
 11 15  1  0  0  0  0
 11 29  1  0  0  0  0
 11 30  1  0  0  0  0
 12 16  1  0  0  0  0
 12 33  1  0  0  0  0
 12 34  1  0  0  0  0
 13 16  1  0  0  0  0
 13 31  1  0  0  0  0
 13 32  1  0  0  0  0
 14 15  1  0  0  0  0
 14 35  1  0  0  0  0
 14 36  1  0  0  0  0
 15 39  1  0  0  0  0
 15 40  1  0  0  0  0
 16 37  1  0  0  0  0
 16 38  1  0  0  0  0
 18 41  1  0  0  0  0
 18 42  1  0  0  0  0
 18 43  1  0  0  0  0
 19 44  1  0  0  0  0
 19 45  1  0  0  0  0
 19 46  1  0  0  0  0
 20 21  2  0  0  0  0
 20 22  1  0  0  0  0
 21 23  1  0  0  0  0
 21 47  1  0  0  0  0
 22 24  2  0  0  0  0
 22 48  1  0  0  0  0
 23 25  2  0  0  0  0
 23 49  1  0  0  0  0
 24 25  1  0  0  0  0
 24 50  1  0  0  0  0
 25 51  1  0  0  0  0
M  END
> <PUBCHEM_COMPOUND_CID>
21048822

> <PUBCHEM_COMPOUND_CANONICALIZED>
1

> <PUBCHEM_CACTVS_COMPLEXITY>
519

> <PUBCHEM_CACTVS_HBOND_ACCEPTOR>
6

> <PUBCHEM_CACTVS_HBOND_DONOR>
0

> <PUBCHEM_CACTVS_ROTATABLE_BOND>
6

> <PUBCHEM_CACTVS_SUBSKEYS>
AAADceB6MYBAAAAAAAAAAAAAAAAAAAAAAAA8QAAAAAAAAAABAAAAHQQAAAAADQDBUBQyAYMAAAqAACBCAHBCAAAgCBAIiBgIAIgIICKgkRCEIAAggACoiAcQAAAMAAAAAAAAAAAAAAAAAAAAAAAAAAAAAA==

> <PUBCHEM_IUPAC_OPENEYE_NAME>
1-[4-(benzenesulfonyl)-4-methyl-pentyl]-3-(trifluoromethyl)piperidine

> <PUBCHEM_IUPAC_CAS_NAME>
1-[4-(benzenesulfonyl)-4-methylpentyl]-3-(trifluoromethyl)piperidine

> <PUBCHEM_IUPAC_NAME_MARKUP>
1-[4-(benzenesulfonyl)-4-methylpentyl]-3-(trifluoromethyl)piperidine

> <PUBCHEM_IUPAC_NAME>
1-[4-(benzenesulfonyl)-4-methylpentyl]-3-(trifluoromethyl)piperidine

> <PUBCHEM_IUPAC_SYSTEMATIC_NAME>
1-[4-methyl-4-(phenylsulfonyl)pentyl]-3-(trifluoromethyl)piperidine

> <PUBCHEM_IUPAC_TRADITIONAL_NAME>
1-(4-besyl-4-methyl-pentyl)-3-(trifluoromethyl)piperidine

> <PUBCHEM_IUPAC_INCHI>
InChI=1S/C18H26F3NO2S/c1-17(2,25(23,24)16-9-4-3-5-10-16)11-7-13-22-12-6-8-15(14-22)18(19,20)21/h3-5,9-10,15H,6-8,11-14H2,1-2H3

> <PUBCHEM_IUPAC_INCHIKEY>
DPCAHAOUMBAXKR-UHFFFAOYSA-N

> <PUBCHEM_XLOGP3_AA>
4.4

> <PUBCHEM_EXACT_MASS>
377.16363473

> <PUBCHEM_MOLECULAR_FORMULA>
C18H26F3NO2S

> <PUBCHEM_MOLECULAR_WEIGHT>
377.5

> <PUBCHEM_OPENEYE_CAN_SMILES>
CC(C)(CCCN1CCCC(C1)C(F)(F)F)S(=O)(=O)C2=CC=CC=C2

> <PUBCHEM_OPENEYE_ISO_SMILES>
CC(C)(CCCN1CCCC(C1)C(F)(F)F)S(=O)(=O)C2=CC=CC=C2

> <PUBCHEM_CACTVS_TPSA>
45.8

> <PUBCHEM_MONOISOTOPIC_WEIGHT>
377.16363473

> <PUBCHEM_TOTAL_CHARGE>
0

> <PUBCHEM_HEAVY_ATOM_COUNT>
25

> <PUBCHEM_ATOM_DEF_STEREO_COUNT>
0

> <PUBCHEM_ATOM_UDEF_STEREO_COUNT>
1

> <PUBCHEM_BOND_DEF_STEREO_COUNT>
0

> <PUBCHEM_BOND_UDEF_STEREO_COUNT>
0

> <PUBCHEM_ISOTOPIC_ATOM_COUNT>
0

> <PUBCHEM_COMPONENT_COUNT>
1

> <PUBCHEM_CACTVS_TAUTO_COUNT>
-1

> <PUBCHEM_COORDINATE_TYPE>
1
5
255

> <PUBCHEM_BONDANNOTATIONS>
20  21  8
20  22  8
21  23  8
22  24  8
23  25  8
24  25  8
8  17  3

$$$$
