45270678
  -OEChem-09292322282D

 44 47  0     0  0  0  0  0  0999 V2000
   11.0608   -0.5134    0.0000 S   0  0  0  0  0  0  0  0  0  0  0  0
    8.0406   -1.4947    0.0000 O   0  0  0  0  0  0  0  0  0  0  0  0
    5.2619    1.1314    0.0000 N   0  0  0  0  0  0  0  0  0  0  0  0
    7.7619    0.2654    0.0000 N   0  0  0  0  0  0  0  0  0  0  0  0
    9.3007   -0.2346    0.0000 N   0  0  0  0  0  0  0  0  0  0  0  0
    6.2619    1.1314    0.0000 C   0  0  0  0  0  0  0  0  0  0  0  0
    6.7619    0.2654    0.0000 C   0  0  0  0  0  0  0  0  0  0  0  0
    4.6783    0.3267    0.0000 C   0  0  0  0  0  0  0  0  0  0  0  0
    4.6783    1.9362    0.0000 C   0  0  0  0  0  0  0  0  0  0  0  0
    8.3497    1.0744    0.0000 C   0  0  0  0  0  0  0  0  0  0  0  0
    3.7320    0.6314    0.0000 C   0  0  0  0  0  0  0  0  0  0  0  0
    3.7320    1.6314    0.0000 C   0  0  0  0  0  0  0  0  0  0  0  0
    9.3007    0.7654    0.0000 C   0  0  0  0  0  0  0  0  0  0  0  0
    8.3497   -0.5436    0.0000 C   0  0  0  0  0  0  0  0  0  0  0  0
    2.8660    0.1314    0.0000 C   0  0  0  0  0  0  0  0  0  0  0  0
    2.8660    2.1314    0.0000 C   0  0  0  0  0  0  0  0  0  0  0  0
   10.1097   -0.8224    0.0000 C   0  0  0  0  0  0  0  0  0  0  0  0
    2.0000    0.6314    0.0000 C   0  0  0  0  0  0  0  0  0  0  0  0
    2.0000    1.6314    0.0000 C   0  0  0  0  0  0  0  0  0  0  0  0
   10.1097   -1.8224    0.0000 C   0  0  0  0  0  0  0  0  0  0  0  0
   11.6486   -1.3224    0.0000 C   0  0  0  0  0  0  0  0  0  0  0  0
   11.0608   -2.1314    0.0000 C   0  0  0  0  0  0  0  0  0  0  0  0
   12.6486   -1.3224    0.0000 C   0  0  0  0  0  0  0  0  0  0  0  0
    6.8445    1.3435    0.0000 H   0  0  0  0  0  0  0  0  0  0  0  0
    6.1542    1.7420    0.0000 H   0  0  0  0  0  0  0  0  0  0  0  0
    6.1793    0.0533    0.0000 H   0  0  0  0  0  0  0  0  0  0  0  0
    6.8695   -0.3452    0.0000 H   0  0  0  0  0  0  0  0  0  0  0  0
    4.4272   -0.2402    0.0000 H   0  0  0  0  0  0  0  0  0  0  0  0
    5.2156    0.0175    0.0000 H   0  0  0  0  0  0  0  0  0  0  0  0
    5.2156    2.2454    0.0000 H   0  0  0  0  0  0  0  0  0  0  0  0
    4.4272    2.5030    0.0000 H   0  0  0  0  0  0  0  0  0  0  0  0
    8.6018    1.6408    0.0000 H   0  0  0  0  0  0  0  0  0  0  0  0
    7.8127    1.3844    0.0000 H   0  0  0  0  0  0  0  0  0  0  0  0
    9.9173    0.7006    0.0000 H   0  0  0  0  0  0  0  0  0  0  0  0
    9.4296    1.3718    0.0000 H   0  0  0  0  0  0  0  0  0  0  0  0
    2.8660   -0.4886    0.0000 H   0  0  0  0  0  0  0  0  0  0  0  0
    2.8660    2.7514    0.0000 H   0  0  0  0  0  0  0  0  0  0  0  0
    1.4631    0.3214    0.0000 H   0  0  0  0  0  0  0  0  0  0  0  0
    1.4631    1.9414    0.0000 H   0  0  0  0  0  0  0  0  0  0  0  0
    9.6082   -2.1868    0.0000 H   0  0  0  0  0  0  0  0  0  0  0  0
   11.2524   -2.7211    0.0000 H   0  0  0  0  0  0  0  0  0  0  0  0
   12.6486   -1.9424    0.0000 H   0  0  0  0  0  0  0  0  0  0  0  0
   13.2686   -1.3224    0.0000 H   0  0  0  0  0  0  0  0  0  0  0  0
   12.6486   -0.7024    0.0000 H   0  0  0  0  0  0  0  0  0  0  0  0
  1 17  1  0  0  0  0
  1 21  1  0  0  0  0
  2 14  2  0  0  0  0
  3  6  1  0  0  0  0
  3  8  1  0  0  0  0
  3  9  1  0  0  0  0
  4  7  1  0  0  0  0
  4 10  1  0  0  0  0
  4 14  1  0  0  0  0
  5 13  1  0  0  0  0
  5 14  1  0  0  0  0
  5 17  1  0  0  0  0
  6  7  1  0  0  0  0
  6 24  1  0  0  0  0
  6 25  1  0  0  0  0
  7 26  1  0  0  0  0
  7 27  1  0  0  0  0
  8 11  1  0  0  0  0
  8 28  1  0  0  0  0
  8 29  1  0  0  0  0
  9 12  1  0  0  0  0
  9 30  1  0  0  0  0
  9 31  1  0  0  0  0
 10 13  1  0  0  0  0
 10 32  1  0  0  0  0
 10 33  1  0  0  0  0
 11 12  1  0  0  0  0
 11 15  2  0  0  0  0
 12 16  2  0  0  0  0
 13 34  1  0  0  0  0
 13 35  1  0  0  0  0
 15 18  1  0  0  0  0
 15 36  1  0  0  0  0
 16 19  1  0  0  0  0
 16 37  1  0  0  0  0
 17 20  2  0  0  0  0
 18 19  2  0  0  0  0
 18 38  1  0  0  0  0
 19 39  1  0  0  0  0
 20 22  1  0  0  0  0
 20 40  1  0  0  0  0
 21 22  2  0  0  0  0
 21 23  1  0  0  0  0
 22 41  1  0  0  0  0
 23 42  1  0  0  0  0
 23 43  1  0  0  0  0
 23 44  1  0  0  0  0
M  END
> <PUBCHEM_COMPOUND_CID>
45270678

> <PUBCHEM_COMPOUND_CANONICALIZED>
1

> <PUBCHEM_CACTVS_COMPLEXITY>
432

> <PUBCHEM_CACTVS_HBOND_ACCEPTOR>
3

> <PUBCHEM_CACTVS_HBOND_DONOR>
0

> <PUBCHEM_CACTVS_ROTATABLE_BOND>
4

> <PUBCHEM_CACTVS_SUBSKEYS>
AAADceB7IABAAAAAAAAAAAAAAAAAAWLEgAAwAAAAAAAAAFgBwAAAHgQAAAAADADBWAQzgYMAAAiMAiBCUACDAIBhChhIiBgIZIiIYCLgkZGUIAhohgLoyCcQgIAOgAAAAAAQAAAAAAAAACAAAAAAAAAAAA==

> <PUBCHEM_IUPAC_OPENEYE_NAME>
1-(2-isoindolin-2-ylethyl)-3-(5-methyl-2-thienyl)imidazolidin-2-one

> <PUBCHEM_IUPAC_CAS_NAME>
1-[2-(1,3-dihydroisoindol-2-yl)ethyl]-3-(5-methyl-2-thiophenyl)-2-imidazolidinone

> <PUBCHEM_IUPAC_NAME_MARKUP>
1-[2-(1,3-dihydroisoindol-2-yl)ethyl]-3-(5-methylthiophen-2-yl)imidazolidin-2-one

> <PUBCHEM_IUPAC_NAME>
1-[2-(1,3-dihydroisoindol-2-yl)ethyl]-3-(5-methylthiophen-2-yl)imidazolidin-2-one

> <PUBCHEM_IUPAC_SYSTEMATIC_NAME>
1-[2-(1,3-dihydroisoindol-2-yl)ethyl]-3-(5-methylthiophen-2-yl)imidazolidin-2-one

> <PUBCHEM_IUPAC_TRADITIONAL_NAME>
1-(2-isoindolin-2-ylethyl)-3-(5-methyl-2-thienyl)-2-imidazolidinone

> <PUBCHEM_IUPAC_INCHI>
InChI=1S/C18H21N3OS/c1-14-6-7-17(23-14)21-11-10-20(18(21)22)9-8-19-12-15-4-2-3-5-16(15)13-19/h2-7H,8-13H2,1H3

> <PUBCHEM_IUPAC_INCHIKEY>
TTYSBVYYRWWKNF-UHFFFAOYSA-N

> <PUBCHEM_XLOGP3_AA>
2.6

> <PUBCHEM_EXACT_MASS>
327.14053348

> <PUBCHEM_MOLECULAR_FORMULA>
C18H21N3OS

> <PUBCHEM_MOLECULAR_WEIGHT>
327.4

> <PUBCHEM_OPENEYE_CAN_SMILES>
CC1=CC=C(S1)N2CCN(C2=O)CCN3CC4=CC=CC=C4C3

> <PUBCHEM_OPENEYE_ISO_SMILES>
CC1=CC=C(S1)N2CCN(C2=O)CCN3CC4=CC=CC=C4C3

> <PUBCHEM_CACTVS_TPSA>
55

> <PUBCHEM_MONOISOTOPIC_WEIGHT>
327.14053348

> <PUBCHEM_TOTAL_CHARGE>
0

> <PUBCHEM_HEAVY_ATOM_COUNT>
23

> <PUBCHEM_ATOM_DEF_STEREO_COUNT>
0

> <PUBCHEM_ATOM_UDEF_STEREO_COUNT>
0

> <PUBCHEM_BOND_DEF_STEREO_COUNT>
0

> <PUBCHEM_BOND_UDEF_STEREO_COUNT>
0

> <PUBCHEM_ISOTOPIC_ATOM_COUNT>
0

> <PUBCHEM_COMPONENT_COUNT>
1

> <PUBCHEM_CACTVS_TAUTO_COUNT>
-1

> <PUBCHEM_COORDINATE_TYPE>
1
5
255

> <PUBCHEM_BONDANNOTATIONS>
1  17  8
1  21  8
11  12  8
11  15  8
12  16  8
15  18  8
16  19  8
17  20  8
18  19  8
20  22  8
21  22  8

$$$$
