164614549
  -OEChem-09292322012D

 51 51  0     0  0  0  0  0  0999 V2000
   10.9218    3.0372    0.0000 S   0  0  0  0  0  0  0  0  0  0  0  0
    4.9417    0.1237    0.0000 O   0  0  0  0  0  0  0  0  0  0  0  0
    5.4769   -1.5236    0.0000 N   0  0  0  0  0  0  0  0  0  0  0  0
    7.7948    1.0507    0.0000 N   0  0  0  0  0  0  0  0  0  0  0  0
    6.6359   -0.2365    0.0000 N   0  0  0  0  0  0  0  0  0  0  0  0
   11.4218    4.5761    0.0000 N   0  0  0  0  0  0  0  0  0  0  0  0
    6.1006    1.4108    0.0000 N   0  0  0  0  0  0  0  0  0  0  0  0
   12.6819    3.3160    0.0000 N   0  0  0  0  0  0  0  0  0  0  0  0
    3.3669   -3.1198    0.0000 C   0  0  0  0  0  0  0  0  0  0  0  0
    3.1590   -4.0980    0.0000 C   0  0  0  0  0  0  0  0  0  0  0  0
    4.3179   -2.8108    0.0000 C   0  0  0  0  0  0  0  0  0  0  0  0
    2.2079   -4.4070    0.0000 C   0  0  0  0  0  0  0  0  0  0  0  0
    4.5258   -1.8326    0.0000 C   0  0  0  0  0  0  0  0  0  0  0  0
    9.1617    3.3160    0.0000 C   0  0  0  0  0  0  0  0  0  0  0  0
    8.9538    2.3379    0.0000 C   0  0  0  0  0  0  0  0  0  0  0  0
    2.0000   -5.3851    0.0000 C   0  0  0  0  0  0  0  0  0  0  0  0
   10.1128    3.6250    0.0000 C   0  0  0  0  0  0  0  0  0  0  0  0
    8.0028    2.0289    0.0000 C   0  0  0  0  0  0  0  0  0  0  0  0
   10.4218    4.5761    0.0000 C   0  0  0  0  0  0  0  0  0  0  0  0
    5.6848   -0.5455    0.0000 C   0  0  0  0  0  0  0  0  0  0  0  0
    6.8438    0.7417    0.0000 C   0  0  0  0  0  0  0  0  0  0  0  0
    9.8340    5.3851    0.0000 C   0  0  0  0  0  0  0  0  0  0  0  0
   11.7308    3.6250    0.0000 C   0  0  0  0  0  0  0  0  0  0  0  0
    3.2806   -2.5058    0.0000 H   0  0  0  0  0  0  0  0  0  0  0  0
    2.7473   -3.0982    0.0000 H   0  0  0  0  0  0  0  0  0  0  0  0
    3.2453   -4.7119    0.0000 H   0  0  0  0  0  0  0  0  0  0  0  0
    3.7786   -4.1196    0.0000 H   0  0  0  0  0  0  0  0  0  0  0  0
    4.4042   -3.4248    0.0000 H   0  0  0  0  0  0  0  0  0  0  0  0
    4.9376   -2.8324    0.0000 H   0  0  0  0  0  0  0  0  0  0  0  0
    2.1216   -3.7930    0.0000 H   0  0  0  0  0  0  0  0  0  0  0  0
    1.5883   -4.3853    0.0000 H   0  0  0  0  0  0  0  0  0  0  0  0
    4.4396   -1.2187    0.0000 H   0  0  0  0  0  0  0  0  0  0  0  0
    3.9062   -1.8110    0.0000 H   0  0  0  0  0  0  0  0  0  0  0  0
    9.0754    3.9300    0.0000 H   0  0  0  0  0  0  0  0  0  0  0  0
    8.5421    3.3377    0.0000 H   0  0  0  0  0  0  0  0  0  0  0  0
    9.0401    1.7239    0.0000 H   0  0  0  0  0  0  0  0  0  0  0  0
    9.5734    2.3162    0.0000 H   0  0  0  0  0  0  0  0  0  0  0  0
    1.3936   -5.2562    0.0000 H   0  0  0  0  0  0  0  0  0  0  0  0
    1.8711   -5.9916    0.0000 H   0  0  0  0  0  0  0  0  0  0  0  0
    2.6064   -5.5140    0.0000 H   0  0  0  0  0  0  0  0  0  0  0  0
    5.9376   -1.9385    0.0000 H   0  0  0  0  0  0  0  0  0  0  0  0
    7.9165    2.6428    0.0000 H   0  0  0  0  0  0  0  0  0  0  0  0
    7.3831    2.0505    0.0000 H   0  0  0  0  0  0  0  0  0  0  0  0
    7.0966   -0.6513    0.0000 H   0  0  0  0  0  0  0  0  0  0  0  0
   10.3356    5.7495    0.0000 H   0  0  0  0  0  0  0  0  0  0  0  0
    9.4696    5.8867    0.0000 H   0  0  0  0  0  0  0  0  0  0  0  0
    9.3324    5.0207    0.0000 H   0  0  0  0  0  0  0  0  0  0  0  0
    5.5110    1.2192    0.0000 H   0  0  0  0  0  0  0  0  0  0  0  0
    6.2296    2.0173    0.0000 H   0  0  0  0  0  0  0  0  0  0  0  0
   12.8108    2.7096    0.0000 H   0  0  0  0  0  0  0  0  0  0  0  0
   13.1426    3.7309    0.0000 H   0  0  0  0  0  0  0  0  0  0  0  0
  1 17  1  0  0  0  0
  1 23  1  0  0  0  0
  2 20  2  0  0  0  0
  3 13  1  0  0  0  0
  3 20  1  0  0  0  0
  3 41  1  0  0  0  0
  4 18  1  0  0  0  0
  4 21  2  0  0  0  0
  5 20  1  0  0  0  0
  5 21  1  0  0  0  0
  5 44  1  0  0  0  0
  6 19  1  0  0  0  0
  6 23  2  0  0  0  0
  7 21  1  0  0  0  0
  7 48  1  0  0  0  0
  7 49  1  0  0  0  0
  8 23  1  0  0  0  0
  8 50  1  0  0  0  0
  8 51  1  0  0  0  0
  9 10  1  0  0  0  0
  9 11  1  0  0  0  0
  9 24  1  0  0  0  0
  9 25  1  0  0  0  0
 10 12  1  0  0  0  0
 10 26  1  0  0  0  0
 10 27  1  0  0  0  0
 11 13  1  0  0  0  0
 11 28  1  0  0  0  0
 11 29  1  0  0  0  0
 12 16  1  0  0  0  0
 12 30  1  0  0  0  0
 12 31  1  0  0  0  0
 13 32  1  0  0  0  0
 13 33  1  0  0  0  0
 14 15  1  0  0  0  0
 14 17  1  0  0  0  0
 14 34  1  0  0  0  0
 14 35  1  0  0  0  0
 15 18  1  0  0  0  0
 15 36  1  0  0  0  0
 15 37  1  0  0  0  0
 16 38  1  0  0  0  0
 16 39  1  0  0  0  0
 16 40  1  0  0  0  0
 17 19  2  0  0  0  0
 18 42  1  0  0  0  0
 18 43  1  0  0  0  0
 19 22  1  0  0  0  0
 22 45  1  0  0  0  0
 22 46  1  0  0  0  0
 22 47  1  0  0  0  0
M  END
> <PUBCHEM_COMPOUND_CID>
164614549

> <PUBCHEM_COMPOUND_CANONICALIZED>
1

> <PUBCHEM_CACTVS_COMPLEXITY>
379

> <PUBCHEM_CACTVS_HBOND_ACCEPTOR>
5

> <PUBCHEM_CACTVS_HBOND_DONOR>
4

> <PUBCHEM_CACTVS_ROTATABLE_BOND>
10

> <PUBCHEM_CACTVS_SUBSKEYS>
AAADceBzoABAAAAAAAAAAAAAAAAAAWAAAAAAAAAAAAAAAAABgAAAHgQQAAAACAjBVgQDkRLIEAisAQRgdAAA8KlhCDkBGJQ4QAiAIAJgkACEAAAolwJISCMQAAAAAAAAAAAAAAAAAAAAAAAAAAAAAAAAAA==

> <PUBCHEM_IUPAC_OPENEYE_NAME>
1-[N'-[3-(2-amino-4-methyl-thiazol-5-yl)propyl]carbamimidoyl]-3-hexyl-urea

> <PUBCHEM_IUPAC_CAS_NAME>
1-[amino-[3-(2-amino-4-methyl-5-thiazolyl)propylimino]methyl]-3-hexylurea

> <PUBCHEM_IUPAC_NAME_MARKUP>
1-[<I>N</I>&apos;-[3-(2-amino-4-methyl-1,3-thiazol-5-yl)propyl]carbamimidoyl]-3-hexylurea

> <PUBCHEM_IUPAC_NAME>
1-[N'-[3-(2-amino-4-methyl-1,3-thiazol-5-yl)propyl]carbamimidoyl]-3-hexylurea

> <PUBCHEM_IUPAC_SYSTEMATIC_NAME>
1-[N'-[3-(2-azanyl-4-methyl-1,3-thiazol-5-yl)propyl]carbamimidoyl]-3-hexyl-urea

> <PUBCHEM_IUPAC_TRADITIONAL_NAME>
1-[N'-[3-(2-amino-4-methyl-thiazol-5-yl)propyl]amidino]-3-hexyl-urea

> <PUBCHEM_IUPAC_INCHI>
InChI=1S/C15H28N6OS/c1-3-4-5-6-9-19-15(22)21-13(16)18-10-7-8-12-11(2)20-14(17)23-12/h3-10H2,1-2H3,(H2,17,20)(H4,16,18,19,21,22)

> <PUBCHEM_IUPAC_INCHIKEY>
CKIPXVNSJRXNTQ-UHFFFAOYSA-N

> <PUBCHEM_XLOGP3_AA>
3

> <PUBCHEM_EXACT_MASS>
340.20453071

> <PUBCHEM_MOLECULAR_FORMULA>
C15H28N6OS

> <PUBCHEM_MOLECULAR_WEIGHT>
340.5

> <PUBCHEM_OPENEYE_CAN_SMILES>
CCCCCCNC(=O)NC(=NCCCC1=C(N=C(S1)N)C)N

> <PUBCHEM_OPENEYE_ISO_SMILES>
CCCCCCNC(=O)NC(=NCCCC1=C(N=C(S1)N)C)N

> <PUBCHEM_CACTVS_TPSA>
147

> <PUBCHEM_MONOISOTOPIC_WEIGHT>
340.20453071

> <PUBCHEM_TOTAL_CHARGE>
0

> <PUBCHEM_HEAVY_ATOM_COUNT>
23

> <PUBCHEM_ATOM_DEF_STEREO_COUNT>
0

> <PUBCHEM_ATOM_UDEF_STEREO_COUNT>
0

> <PUBCHEM_BOND_DEF_STEREO_COUNT>
0

> <PUBCHEM_BOND_UDEF_STEREO_COUNT>
0

> <PUBCHEM_ISOTOPIC_ATOM_COUNT>
0

> <PUBCHEM_COMPONENT_COUNT>
1

> <PUBCHEM_CACTVS_TAUTO_COUNT>
-1

> <PUBCHEM_COORDINATE_TYPE>
1
5
255

> <PUBCHEM_BONDANNOTATIONS>
1  17  8
1  23  8
17  19  8
6  19  8
6  23  8

$$$$
