121315446
  -OEChem-09292322442D

 62 66  0     1  0  0  0  0  0999 V2000
    6.0767    2.0034    0.0000 S   0  0  0  0  0  0  0  0  0  0  0  0
   13.5049   -5.8626    0.0000 F   0  0  0  0  0  0  0  0  0  0  0  0
   12.1389   -6.2286    0.0000 F   0  0  0  0  0  0  0  0  0  0  0  0
   13.1389   -4.4966    0.0000 F   0  0  0  0  0  0  0  0  0  0  0  0
    4.2213    5.4855    0.0000 O   0  0  0  0  0  0  0  0  0  0  0  0
    7.8088   -0.9965    0.0000 N   0  0  3  0  0  0  0  0  0  0  0  0
    5.1062    3.4980    0.0000 N   0  0  0  0  0  0  0  0  0  0  0  0
    4.2972    2.0967    0.0000 N   0  0  0  0  0  0  0  0  0  0  0  0
    3.6280    2.8399    0.0000 N   0  0  0  0  0  0  0  0  0  0  0  0
    2.6386    5.8219    0.0000 N   0  0  0  0  0  0  0  0  0  0  0  0
    8.6748   -2.4966    0.0000 C   0  0  2  0  0  0  0  0  0  0  0  0
    9.1748   -3.3626    0.0000 C   0  0  2  0  0  0  0  0  0  0  0  0
    8.1748   -3.3626    0.0000 C   0  0  0  0  0  0  0  0  0  0  0  0
    9.5408   -1.9966    0.0000 C   0  0  0  0  0  0  0  0  0  0  0  0
    7.8088   -1.9966    0.0000 C   0  0  0  0  0  0  0  0  0  0  0  0
    9.5408   -0.9965    0.0000 C   0  0  0  0  0  0  0  0  0  0  0  0
   10.0408   -3.8626    0.0000 C   0  0  0  0  0  0  0  0  0  0  0  0
    8.6748   -0.4965    0.0000 C   0  0  0  0  0  0  0  0  0  0  0  0
    6.9428   -0.4965    0.0000 C   0  0  0  0  0  0  0  0  0  0  0  0
   10.0408   -4.8626    0.0000 C   0  0  0  0  0  0  0  0  0  0  0  0
   10.9069   -3.3626    0.0000 C   0  0  0  0  0  0  0  0  0  0  0  0
    6.9428    0.5035    0.0000 C   0  0  0  0  0  0  0  0  0  0  0  0
   10.9069   -5.3626    0.0000 C   0  0  0  0  0  0  0  0  0  0  0  0
   11.7729   -3.8626    0.0000 C   0  0  0  0  0  0  0  0  0  0  0  0
   11.7729   -4.8626    0.0000 C   0  0  0  0  0  0  0  0  0  0  0  0
    6.0767    1.0034    0.0000 C   0  0  0  0  0  0  0  0  0  0  0  0
   12.6389   -5.3626    0.0000 C   0  0  0  0  0  0  0  0  0  0  0  0
    5.2107    2.5034    0.0000 C   0  0  0  0  0  0  0  0  0  0  0  0
    4.1280    3.7059    0.0000 C   0  0  0  0  0  0  0  0  0  0  0  0
    5.8493    4.1671    0.0000 C   0  0  0  0  0  0  0  0  0  0  0  0
    3.7213    4.6194    0.0000 C   0  0  0  0  0  0  0  0  0  0  0  0
    2.7431    4.8273    0.0000 C   0  0  0  0  0  0  0  0  0  0  0  0
    2.0000    4.1582    0.0000 C   0  0  0  0  0  0  0  0  0  0  0  0
    3.5522    6.2286    0.0000 C   0  0  0  0  0  0  0  0  0  0  0  0
    9.0143   -3.9614    0.0000 H   0  0  0  0  0  0  0  0  0  0  0  0
    7.5922   -3.1505    0.0000 H   0  0  0  0  0  0  0  0  0  0  0  0
    8.0671   -3.9732    0.0000 H   0  0  0  0  0  0  0  0  0  0  0  0
    9.7529   -2.5792    0.0000 H   0  0  0  0  0  0  0  0  0  0  0  0
   10.1514   -1.8889    0.0000 H   0  0  0  0  0  0  0  0  0  0  0  0
    7.1982   -1.8889    0.0000 H   0  0  0  0  0  0  0  0  0  0  0  0
    7.5967   -2.5792    0.0000 H   0  0  0  0  0  0  0  0  0  0  0  0
   10.1514   -1.1042    0.0000 H   0  0  0  0  0  0  0  0  0  0  0  0
    9.7529   -0.4139    0.0000 H   0  0  0  0  0  0  0  0  0  0  0  0
    9.0733   -0.0216    0.0000 H   0  0  0  0  0  0  0  0  0  0  0  0
    8.2763   -0.0216    0.0000 H   0  0  0  0  0  0  0  0  0  0  0  0
    6.3322   -0.3889    0.0000 H   0  0  0  0  0  0  0  0  0  0  0  0
    6.7307   -1.0792    0.0000 H   0  0  0  0  0  0  0  0  0  0  0  0
    9.5039   -5.1726    0.0000 H   0  0  0  0  0  0  0  0  0  0  0  0
   10.9069   -2.7426    0.0000 H   0  0  0  0  0  0  0  0  0  0  0  0
    7.5533    0.3958    0.0000 H   0  0  0  0  0  0  0  0  0  0  0  0
    7.1548    1.0861    0.0000 H   0  0  0  0  0  0  0  0  0  0  0  0
   10.9069   -5.9826    0.0000 H   0  0  0  0  0  0  0  0  0  0  0  0
   12.3098   -3.5526    0.0000 H   0  0  0  0  0  0  0  0  0  0  0  0
    5.4662    1.1111    0.0000 H   0  0  0  0  0  0  0  0  0  0  0  0
    5.8647    0.4208    0.0000 H   0  0  0  0  0  0  0  0  0  0  0  0
    6.2642    3.7064    0.0000 H   0  0  0  0  0  0  0  0  0  0  0  0
    6.3101    4.5820    0.0000 H   0  0  0  0  0  0  0  0  0  0  0  0
    5.4345    4.6278    0.0000 H   0  0  0  0  0  0  0  0  0  0  0  0
    1.5851    4.6190    0.0000 H   0  0  0  0  0  0  0  0  0  0  0  0
    1.5392    3.7434    0.0000 H   0  0  0  0  0  0  0  0  0  0  0  0
    2.4149    3.6975    0.0000 H   0  0  0  0  0  0  0  0  0  0  0  0
    3.6811    6.8350    0.0000 H   0  0  0  0  0  0  0  0  0  0  0  0
  1 26  1  0  0  0  0
  1 28  1  0  0  0  0
  2 27  1  0  0  0  0
  3 27  1  0  0  0  0
  4 27  1  0  0  0  0
  5 31  1  0  0  0  0
  5 34  1  0  0  0  0
  6 15  1  0  0  0  0
  6 18  1  0  0  0  0
  6 19  1  0  0  0  0
  7 28  1  0  0  0  0
  7 29  1  0  0  0  0
  7 30  1  0  0  0  0
  8  9  1  0  0  0  0
  8 28  2  0  0  0  0
  9 29  2  0  0  0  0
 10 32  1  0  0  0  0
 10 34  2  0  0  0  0
 11 12  1  0  0  0  0
 11 13  1  6  0  0  0
 11 14  1  0  0  0  0
 11 15  1  0  0  0  0
 12 13  1  0  0  0  0
 12 17  1  1  0  0  0
 12 35  1  0  0  0  0
 13 36  1  0  0  0  0
 13 37  1  0  0  0  0
 14 16  1  0  0  0  0
 14 38  1  0  0  0  0
 14 39  1  0  0  0  0
 15 40  1  0  0  0  0
 15 41  1  0  0  0  0
 16 18  1  0  0  0  0
 16 42  1  0  0  0  0
 16 43  1  0  0  0  0
 17 20  2  0  0  0  0
 17 21  1  0  0  0  0
 18 44  1  0  0  0  0
 18 45  1  0  0  0  0
 19 22  1  0  0  0  0
 19 46  1  0  0  0  0
 19 47  1  0  0  0  0
 20 23  1  0  0  0  0
 20 48  1  0  0  0  0
 21 24  2  0  0  0  0
 21 49  1  0  0  0  0
 22 26  1  0  0  0  0
 22 50  1  0  0  0  0
 22 51  1  0  0  0  0
 23 25  2  0  0  0  0
 23 52  1  0  0  0  0
 24 25  1  0  0  0  0
 24 53  1  0  0  0  0
 25 27  1  0  0  0  0
 26 54  1  0  0  0  0
 26 55  1  0  0  0  0
 29 31  1  0  0  0  0
 30 56  1  0  0  0  0
 30 57  1  0  0  0  0
 30 58  1  0  0  0  0
 31 32  2  0  0  0  0
 32 33  1  0  0  0  0
 33 59  1  0  0  0  0
 33 60  1  0  0  0  0
 33 61  1  0  0  0  0
 34 62  1  0  0  0  0
M  END
> <PUBCHEM_COMPOUND_CID>
121315446

> <PUBCHEM_COMPOUND_CANONICALIZED>
1

> <PUBCHEM_CACTVS_COMPLEXITY>
694

> <PUBCHEM_CACTVS_HBOND_ACCEPTOR>
9

> <PUBCHEM_CACTVS_HBOND_DONOR>
0

> <PUBCHEM_CACTVS_ROTATABLE_BOND>
7

> <PUBCHEM_CACTVS_SUBSKEYS>
AAADceB7oYBAAAAAAAAAAAAAGAAAAWLAAAA8QAAAAAAAAAAB8AAAHwQIAAAADwzF3xa3lJcMFEiqA6Zz9ASS2Ct7YLAd2CG9RJiOKCLk2TCNIChgjALYiAcQgMAPwAAAAAAAAACAAAAAAAAAAAAAAAAAAA==

> <PUBCHEM_IUPAC_OPENEYE_NAME>
4-methyl-5-[4-methyl-5-[3-[(2R,3R)-2-[4-(trifluoromethyl)phenyl]-5-azaspiro[2.5]octan-5-yl]propylsulfanyl]-1,2,4-triazol-3-yl]oxazole

> <PUBCHEM_IUPAC_CAS_NAME>
4-methyl-5-[4-methyl-5-[3-[(2R,3R)-2-[4-(trifluoromethyl)phenyl]-5-azaspiro[2.5]octan-5-yl]propylthio]-1,2,4-triazol-3-yl]oxazole

> <PUBCHEM_IUPAC_NAME_MARKUP>
4-methyl-5-[4-methyl-5-[3-[(2<I>R</I>,3<I>R</I>)-2-[4-(trifluoromethyl)phenyl]-5-azaspiro[2.5]octan-5-yl]propylsulfanyl]-1,2,4-triazol-3-yl]-1,3-oxazole

> <PUBCHEM_IUPAC_NAME>
4-methyl-5-[4-methyl-5-[3-[(2R,3R)-2-[4-(trifluoromethyl)phenyl]-5-azaspiro[2.5]octan-5-yl]propylsulfanyl]-1,2,4-triazol-3-yl]-1,3-oxazole

> <PUBCHEM_IUPAC_SYSTEMATIC_NAME>
4-methyl-5-[4-methyl-5-[3-[(2R,3R)-2-[4-(trifluoromethyl)phenyl]-5-azaspiro[2.5]octan-5-yl]propylsulfanyl]-1,2,4-triazol-3-yl]-1,3-oxazole

> <PUBCHEM_IUPAC_TRADITIONAL_NAME>
4-methyl-5-[4-methyl-5-[3-[(2R,3R)-2-[4-(trifluoromethyl)phenyl]-5-azaspiro[2.5]octan-5-yl]propylthio]-1,2,4-triazol-3-yl]oxazole

> <PUBCHEM_IUPAC_INCHI>
InChI=1S/C24H28F3N5OS/c1-16-20(33-15-28-16)21-29-30-22(31(21)2)34-12-4-11-32-10-3-9-23(14-32)13-19(23)17-5-7-18(8-6-17)24(25,26)27/h5-8,15,19H,3-4,9-14H2,1-2H3/t19-,23+/m1/s1

> <PUBCHEM_IUPAC_INCHIKEY>
XFLDRFXADAYJDR-XXBNENTESA-N

> <PUBCHEM_XLOGP3_AA>
4.5

> <PUBCHEM_EXACT_MASS>
491.19666619

> <PUBCHEM_MOLECULAR_FORMULA>
C24H28F3N5OS

> <PUBCHEM_MOLECULAR_WEIGHT>
491.6

> <PUBCHEM_OPENEYE_CAN_SMILES>
CC1=C(OC=N1)C2=NN=C(N2C)SCCCN3CCCC4(C3)CC4C5=CC=C(C=C5)C(F)(F)F

> <PUBCHEM_OPENEYE_ISO_SMILES>
CC1=C(OC=N1)C2=NN=C(N2C)SCCCN3CCC[C@@]4(C3)C[C@@H]4C5=CC=C(C=C5)C(F)(F)F

> <PUBCHEM_CACTVS_TPSA>
85.3

> <PUBCHEM_MONOISOTOPIC_WEIGHT>
491.19666619

> <PUBCHEM_TOTAL_CHARGE>
0

> <PUBCHEM_HEAVY_ATOM_COUNT>
34

> <PUBCHEM_ATOM_DEF_STEREO_COUNT>
2

> <PUBCHEM_ATOM_UDEF_STEREO_COUNT>
0

> <PUBCHEM_BOND_DEF_STEREO_COUNT>
0

> <PUBCHEM_BOND_UDEF_STEREO_COUNT>
0

> <PUBCHEM_ISOTOPIC_ATOM_COUNT>
0

> <PUBCHEM_COMPONENT_COUNT>
1

> <PUBCHEM_CACTVS_TAUTO_COUNT>
-1

> <PUBCHEM_COORDINATE_TYPE>
1
5
255

> <PUBCHEM_BONDANNOTATIONS>
10  32  8
10  34  8
11  13  6
12  17  5
17  20  8
17  21  8
20  23  8
21  24  8
23  25  8
24  25  8
31  32  8
5  31  8
5  34  8
7  28  8
7  29  8
8  28  8
8  9  8
9  29  8

$$$$
