46881463
  -OEChem-09292321592D

 40 42  0     1  0  0  0  0  0999 V2000
    2.0000   -4.0442    0.0000 Cl  0  0  0  0  0  0  0  0  0  0  0  0
    5.4921   -0.7655    0.0000 O   0  0  0  0  0  0  0  0  0  0  0  0
    4.2320    0.4946    0.0000 N   0  0  0  0  0  0  0  0  0  0  0  0
    3.4186    2.3217    0.0000 N   0  0  0  0  0  0  0  0  0  0  0  0
    3.7320   -1.0442    0.0000 N   0  0  0  0  0  0  0  0  0  0  0  0
    4.4131    2.2172    0.0000 C   0  0  3  0  0  0  0  0  0  0  0  0
    5.0009    3.0262    0.0000 C   0  0  0  0  0  0  0  0  0  0  0  0
    4.8198    1.3036    0.0000 C   0  0  0  0  0  0  0  0  0  0  0  0
    4.5942    3.9397    0.0000 C   0  0  0  0  0  0  0  0  0  0  0  0
    3.5996    4.0442    0.0000 C   0  0  0  0  0  0  0  0  0  0  0  0
    3.0118    3.2352    0.0000 C   0  0  0  0  0  0  0  0  0  0  0  0
    3.2320    0.4946    0.0000 C   0  0  0  0  0  0  0  0  0  0  0  0
    2.9230   -0.4565    0.0000 C   0  0  0  0  0  0  0  0  0  0  0  0
    4.5411   -0.4565    0.0000 C   0  0  0  0  0  0  0  0  0  0  0  0
    3.7320   -2.0442    0.0000 C   0  0  0  0  0  0  0  0  0  0  0  0
    2.8660   -2.5442    0.0000 C   0  0  0  0  0  0  0  0  0  0  0  0
    4.5981   -2.5442    0.0000 C   0  0  0  0  0  0  0  0  0  0  0  0
    2.8660   -3.5442    0.0000 C   0  0  0  0  0  0  0  0  0  0  0  0
    4.5981   -3.5442    0.0000 C   0  0  0  0  0  0  0  0  0  0  0  0
    3.7320   -4.0442    0.0000 C   0  0  0  0  0  0  0  0  0  0  0  0
    4.0487    1.7156    0.0000 H   0  0  0  0  0  0  0  0  0  0  0  0
    5.4316    2.5802    0.0000 H   0  0  0  0  0  0  0  0  0  0  0  0
    5.5149    3.3729    0.0000 H   0  0  0  0  0  0  0  0  0  0  0  0
    5.2505    0.8576    0.0000 H   0  0  0  0  0  0  0  0  0  0  0  0
    5.3338    1.6503    0.0000 H   0  0  0  0  0  0  0  0  0  0  0  0
    5.1957    4.0897    0.0000 H   0  0  0  0  0  0  0  0  0  0  0  0
    4.5509    4.5582    0.0000 H   0  0  0  0  0  0  0  0  0  0  0  0
    3.7705    4.6402    0.0000 H   0  0  0  0  0  0  0  0  0  0  0  0
    3.0424    4.3160    0.0000 H   0  0  0  0  0  0  0  0  0  0  0  0
    3.0542    1.8201    0.0000 H   0  0  0  0  0  0  0  0  0  0  0  0
    2.5812    3.6812    0.0000 H   0  0  0  0  0  0  0  0  0  0  0  0
    2.4978    2.8885    0.0000 H   0  0  0  0  0  0  0  0  0  0  0  0
    3.2969    1.1112    0.0000 H   0  0  0  0  0  0  0  0  0  0  0  0
    2.6256    0.6235    0.0000 H   0  0  0  0  0  0  0  0  0  0  0  0
    2.3566   -0.2043    0.0000 H   0  0  0  0  0  0  0  0  0  0  0  0
    2.6130   -0.9934    0.0000 H   0  0  0  0  0  0  0  0  0  0  0  0
    2.3291   -2.2342    0.0000 H   0  0  0  0  0  0  0  0  0  0  0  0
    5.1350   -2.2342    0.0000 H   0  0  0  0  0  0  0  0  0  0  0  0
    5.1350   -3.8542    0.0000 H   0  0  0  0  0  0  0  0  0  0  0  0
    3.7320   -4.6642    0.0000 H   0  0  0  0  0  0  0  0  0  0  0  0
  1 18  1  0  0  0  0
  2 14  2  0  0  0  0
  3  8  1  0  0  0  0
  3 12  1  0  0  0  0
  3 14  1  0  0  0  0
  4  6  1  0  0  0  0
  4 11  1  0  0  0  0
  4 30  1  0  0  0  0
  5 13  1  0  0  0  0
  5 14  1  0  0  0  0
  5 15  1  0  0  0  0
  6  7  1  0  0  0  0
  6  8  1  0  0  0  0
  6 21  1  0  0  0  0
  7  9  1  0  0  0  0
  7 22  1  0  0  0  0
  7 23  1  0  0  0  0
  8 24  1  0  0  0  0
  8 25  1  0  0  0  0
  9 10  1  0  0  0  0
  9 26  1  0  0  0  0
  9 27  1  0  0  0  0
 10 11  1  0  0  0  0
 10 28  1  0  0  0  0
 10 29  1  0  0  0  0
 11 31  1  0  0  0  0
 11 32  1  0  0  0  0
 12 13  1  0  0  0  0
 12 33  1  0  0  0  0
 12 34  1  0  0  0  0
 13 35  1  0  0  0  0
 13 36  1  0  0  0  0
 15 16  2  0  0  0  0
 15 17  1  0  0  0  0
 16 18  1  0  0  0  0
 16 37  1  0  0  0  0
 17 19  2  0  0  0  0
 17 38  1  0  0  0  0
 18 20  2  0  0  0  0
 19 20  1  0  0  0  0
 19 39  1  0  0  0  0
 20 40  1  0  0  0  0
M  END
> <PUBCHEM_COMPOUND_CID>
46881463

> <PUBCHEM_COMPOUND_CANONICALIZED>
1

> <PUBCHEM_CACTVS_COMPLEXITY>
352

> <PUBCHEM_CACTVS_HBOND_ACCEPTOR>
2

> <PUBCHEM_CACTVS_HBOND_DONOR>
1

> <PUBCHEM_CACTVS_ROTATABLE_BOND>
3

> <PUBCHEM_CACTVS_SUBSKEYS>
AAADceBzIAAEAAAAAAAAAAAAAAAAAWAAAAA8QAAAAAAAAAABAAAAHgIQAAAACCrBECQxwIPAAACIACRCUACCAAAhBwAIiIAIZoiIYCLBk5GUIAholgLIyCcQAAAAAAAAAAIAAAAAAAAABAAAAAAAAAAAAA==

> <PUBCHEM_IUPAC_OPENEYE_NAME>
1-(3-chlorophenyl)-3-(2-piperidylmethyl)imidazolidin-2-one

> <PUBCHEM_IUPAC_CAS_NAME>
1-(3-chlorophenyl)-3-(2-piperidinylmethyl)-2-imidazolidinone

> <PUBCHEM_IUPAC_NAME_MARKUP>
1-(3-chlorophenyl)-3-(piperidin-2-ylmethyl)imidazolidin-2-one

> <PUBCHEM_IUPAC_NAME>
1-(3-chlorophenyl)-3-(piperidin-2-ylmethyl)imidazolidin-2-one

> <PUBCHEM_IUPAC_SYSTEMATIC_NAME>
1-(3-chlorophenyl)-3-(piperidin-2-ylmethyl)imidazolidin-2-one

> <PUBCHEM_IUPAC_TRADITIONAL_NAME>
1-(3-chlorophenyl)-3-(2-piperidylmethyl)-2-imidazolidinone

> <PUBCHEM_IUPAC_INCHI>
InChI=1S/C15H20ClN3O/c16-12-4-3-6-14(10-12)19-9-8-18(15(19)20)11-13-5-1-2-7-17-13/h3-4,6,10,13,17H,1-2,5,7-9,11H2

> <PUBCHEM_IUPAC_INCHIKEY>
HVSRNYNPOUFDNJ-UHFFFAOYSA-N

> <PUBCHEM_XLOGP3_AA>
2.2

> <PUBCHEM_EXACT_MASS>
293.1294900

> <PUBCHEM_MOLECULAR_FORMULA>
C15H20ClN3O

> <PUBCHEM_MOLECULAR_WEIGHT>
293.79

> <PUBCHEM_OPENEYE_CAN_SMILES>
C1CCNC(C1)CN2CCN(C2=O)C3=CC(=CC=C3)Cl

> <PUBCHEM_OPENEYE_ISO_SMILES>
C1CCNC(C1)CN2CCN(C2=O)C3=CC(=CC=C3)Cl

> <PUBCHEM_CACTVS_TPSA>
35.6

> <PUBCHEM_MONOISOTOPIC_WEIGHT>
293.1294900

> <PUBCHEM_TOTAL_CHARGE>
0

> <PUBCHEM_HEAVY_ATOM_COUNT>
20

> <PUBCHEM_ATOM_DEF_STEREO_COUNT>
0

> <PUBCHEM_ATOM_UDEF_STEREO_COUNT>
1

> <PUBCHEM_BOND_DEF_STEREO_COUNT>
0

> <PUBCHEM_BOND_UDEF_STEREO_COUNT>
0

> <PUBCHEM_ISOTOPIC_ATOM_COUNT>
0

> <PUBCHEM_COMPONENT_COUNT>
1

> <PUBCHEM_CACTVS_TAUTO_COUNT>
-1

> <PUBCHEM_COORDINATE_TYPE>
1
5
255

> <PUBCHEM_BONDANNOTATIONS>
15  16  8
15  17  8
16  18  8
17  19  8
18  20  8
19  20  8
6  8  3

$$$$
