16123464
  -OEChem-09292322302D

 44 47  0     1  0  0  0  0  0999 V2000
    5.0249    0.9045    0.0000 S   0  0  0  0  0  0  0  0  0  0  0  0
    8.4890    4.9045    0.0000 F   0  0  0  0  0  0  0  0  0  0  0  0
    9.4890    3.9045    0.0000 F   0  0  0  0  0  0  0  0  0  0  0  0
    7.4890    3.9045    0.0000 F   0  0  0  0  0  0  0  0  0  0  0  0
    4.5249    1.7705    0.0000 O   0  0  0  0  0  0  0  0  0  0  0  0
    5.5249    0.0385    0.0000 O   0  0  0  0  0  0  0  0  0  0  0  0
    8.4890    2.9045    0.0000 O   0  0  0  0  0  0  0  0  0  0  0  0
    2.6200   -4.0955    0.0000 N   0  0  0  0  0  0  0  0  0  0  0  0
    4.1588    0.4045    0.0000 N   0  0  0  0  0  0  0  0  0  0  0  0
    4.1588   -3.5955    0.0000 C   0  0  1  0  0  0  0  0  0  0  0  0
    4.1588   -4.5955    0.0000 C   0  0  2  0  0  0  0  0  0  0  0  0
    5.0254   -4.0955    0.0000 C   0  0  0  0  0  0  0  0  0  0  0  0
    3.2078   -3.2865    0.0000 C   0  0  0  0  0  0  0  0  0  0  0  0
    3.2078   -4.9045    0.0000 C   0  0  0  0  0  0  0  0  0  0  0  0
    4.1588   -2.5955    0.0000 C   0  0  0  0  0  0  0  0  0  0  0  0
    3.2928   -2.0955    0.0000 C   0  0  0  0  0  0  0  0  0  0  0  0
    5.0249   -2.0955    0.0000 C   0  0  0  0  0  0  0  0  0  0  0  0
    3.2928   -1.0955    0.0000 C   0  0  0  0  0  0  0  0  0  0  0  0
    5.0249   -1.0955    0.0000 C   0  0  0  0  0  0  0  0  0  0  0  0
    4.1588   -0.5955    0.0000 C   0  0  0  0  0  0  0  0  0  0  0  0
    5.8909    1.4045    0.0000 C   0  0  0  0  0  0  0  0  0  0  0  0
    6.7569    0.9045    0.0000 C   0  0  0  0  0  0  0  0  0  0  0  0
    5.8909    2.4045    0.0000 C   0  0  0  0  0  0  0  0  0  0  0  0
    7.6229    1.4045    0.0000 C   0  0  0  0  0  0  0  0  0  0  0  0
    6.7569    2.9045    0.0000 C   0  0  0  0  0  0  0  0  0  0  0  0
    7.6229    2.4045    0.0000 C   0  0  0  0  0  0  0  0  0  0  0  0
    8.4890    3.9045    0.0000 C   0  0  0  0  0  0  0  0  0  0  0  0
    4.5045   -5.3720    0.0000 H   0  0  0  0  0  0  0  0  0  0  0  0
    5.4239   -4.5705    0.0000 H   0  0  0  0  0  0  0  0  0  0  0  0
    5.4239   -3.6205    0.0000 H   0  0  0  0  0  0  0  0  0  0  0  0
    3.4600   -2.7201    0.0000 H   0  0  0  0  0  0  0  0  0  0  0  0
    2.6708   -2.9765    0.0000 H   0  0  0  0  0  0  0  0  0  0  0  0
    2.6708   -5.2145    0.0000 H   0  0  0  0  0  0  0  0  0  0  0  0
    3.4600   -5.4709    0.0000 H   0  0  0  0  0  0  0  0  0  0  0  0
    2.0000   -4.0955    0.0000 H   0  0  0  0  0  0  0  0  0  0  0  0
    2.7559   -2.4055    0.0000 H   0  0  0  0  0  0  0  0  0  0  0  0
    5.5618   -2.4055    0.0000 H   0  0  0  0  0  0  0  0  0  0  0  0
    2.7559   -0.7855    0.0000 H   0  0  0  0  0  0  0  0  0  0  0  0
    5.5618   -0.7855    0.0000 H   0  0  0  0  0  0  0  0  0  0  0  0
    3.6219    0.7145    0.0000 H   0  0  0  0  0  0  0  0  0  0  0  0
    6.7569    0.2845    0.0000 H   0  0  0  0  0  0  0  0  0  0  0  0
    5.3540    2.7145    0.0000 H   0  0  0  0  0  0  0  0  0  0  0  0
    8.1599    1.0945    0.0000 H   0  0  0  0  0  0  0  0  0  0  0  0
    6.7569    3.5245    0.0000 H   0  0  0  0  0  0  0  0  0  0  0  0
  1  5  2  0  0  0  0
  1  6  2  0  0  0  0
  1  9  1  0  0  0  0
  1 21  1  0  0  0  0
  2 27  1  0  0  0  0
  3 27  1  0  0  0  0
  4 27  1  0  0  0  0
  7 26  1  0  0  0  0
  7 27  1  0  0  0  0
  8 13  1  0  0  0  0
  8 14  1  0  0  0  0
  8 35  1  0  0  0  0
  9 20  1  0  0  0  0
  9 40  1  0  0  0  0
 10 11  1  0  0  0  0
 10 12  1  0  0  0  0
 10 13  1  0  0  0  0
 10 15  1  1  0  0  0
 11 12  1  0  0  0  0
 11 14  1  0  0  0  0
 11 28  1  1  0  0  0
 12 29  1  0  0  0  0
 12 30  1  0  0  0  0
 13 31  1  0  0  0  0
 13 32  1  0  0  0  0
 14 33  1  0  0  0  0
 14 34  1  0  0  0  0
 15 16  2  0  0  0  0
 15 17  1  0  0  0  0
 16 18  1  0  0  0  0
 16 36  1  0  0  0  0
 17 19  2  0  0  0  0
 17 37  1  0  0  0  0
 18 20  2  0  0  0  0
 18 38  1  0  0  0  0
 19 20  1  0  0  0  0
 19 39  1  0  0  0  0
 21 22  2  0  0  0  0
 21 23  1  0  0  0  0
 22 24  1  0  0  0  0
 22 41  1  0  0  0  0
 23 25  2  0  0  0  0
 23 42  1  0  0  0  0
 24 26  2  0  0  0  0
 24 43  1  0  0  0  0
 25 26  1  0  0  0  0
 25 44  1  0  0  0  0
M  END
> <PUBCHEM_COMPOUND_CID>
16123464

> <PUBCHEM_COMPOUND_CANONICALIZED>
1

> <PUBCHEM_CACTVS_COMPLEXITY>
635

> <PUBCHEM_CACTVS_HBOND_ACCEPTOR>
8

> <PUBCHEM_CACTVS_HBOND_DONOR>
2

> <PUBCHEM_CACTVS_ROTATABLE_BOND>
5

> <PUBCHEM_CACTVS_SUBSKEYS>
AAADceB7MYBAAAAAAAAAAAAAGAAAAWAAAAA8YIAAAAAAAAABQAAAHwQQQAAADwzB2BQwx4LABAKAAiRCQHDCCBAgIgAIiJgObIgMJiKEsZuEMCBk0BGI6AeQwMAPiIAAAAAAAAARAAAAAAAAAAAAAAAAAA==

> <PUBCHEM_IUPAC_OPENEYE_NAME>
N-[4-[(1R,5S)-3-azabicyclo[3.1.0]hexan-1-yl]phenyl]-4-(trifluoromethoxy)benzenesulfonamide

> <PUBCHEM_IUPAC_CAS_NAME>
N-[4-[(1R,5S)-3-azabicyclo[3.1.0]hexan-1-yl]phenyl]-4-(trifluoromethoxy)benzenesulfonamide

> <PUBCHEM_IUPAC_NAME_MARKUP>
<I>N</I>-[4-[(1<I>R</I>,5<I>S</I>)-3-azabicyclo[3.1.0]hexan-1-yl]phenyl]-4-(trifluoromethoxy)benzenesulfonamide

> <PUBCHEM_IUPAC_NAME>
N-[4-[(1R,5S)-3-azabicyclo[3.1.0]hexan-1-yl]phenyl]-4-(trifluoromethoxy)benzenesulfonamide

> <PUBCHEM_IUPAC_SYSTEMATIC_NAME>
N-[4-[(1R,5S)-3-azabicyclo[3.1.0]hexan-1-yl]phenyl]-4-(trifluoromethyloxy)benzenesulfonamide

> <PUBCHEM_IUPAC_TRADITIONAL_NAME>
N-[4-[(1R,5S)-3-azabicyclo[3.1.0]hexan-1-yl]phenyl]-4-(trifluoromethoxy)benzenesulfonamide

> <PUBCHEM_IUPAC_INCHI>
InChI=1S/C18H17F3N2O3S/c19-18(20,21)26-15-5-7-16(8-6-15)27(24,25)23-14-3-1-12(2-4-14)17-9-13(17)10-22-11-17/h1-8,13,22-23H,9-11H2/t13-,17+/m1/s1

> <PUBCHEM_IUPAC_INCHIKEY>
AJNRYBGLAQDAEO-DYVFJYSZSA-N

> <PUBCHEM_XLOGP3_AA>
3.4

> <PUBCHEM_EXACT_MASS>
398.09119807

> <PUBCHEM_MOLECULAR_FORMULA>
C18H17F3N2O3S

> <PUBCHEM_MOLECULAR_WEIGHT>
398.4

> <PUBCHEM_OPENEYE_CAN_SMILES>
C1C2C1(CNC2)C3=CC=C(C=C3)NS(=O)(=O)C4=CC=C(C=C4)OC(F)(F)F

> <PUBCHEM_OPENEYE_ISO_SMILES>
C1[C@H]2[C@@]1(CNC2)C3=CC=C(C=C3)NS(=O)(=O)C4=CC=C(C=C4)OC(F)(F)F

> <PUBCHEM_CACTVS_TPSA>
75.8

> <PUBCHEM_MONOISOTOPIC_WEIGHT>
398.09119807

> <PUBCHEM_TOTAL_CHARGE>
0

> <PUBCHEM_HEAVY_ATOM_COUNT>
27

> <PUBCHEM_ATOM_DEF_STEREO_COUNT>
2

> <PUBCHEM_ATOM_UDEF_STEREO_COUNT>
0

> <PUBCHEM_BOND_DEF_STEREO_COUNT>
0

> <PUBCHEM_BOND_UDEF_STEREO_COUNT>
0

> <PUBCHEM_ISOTOPIC_ATOM_COUNT>
0

> <PUBCHEM_COMPONENT_COUNT>
1

> <PUBCHEM_CACTVS_TAUTO_COUNT>
-1

> <PUBCHEM_COORDINATE_TYPE>
1
5
255

> <PUBCHEM_BONDANNOTATIONS>
10  15  5
11  28  5
15  16  8
15  17  8
16  18  8
17  19  8
18  20  8
19  20  8
21  22  8
21  23  8
22  24  8
23  25  8
24  26  8
25  26  8

$$$$
