56944763
  -OEChem-09292322342D

 56 60  0     0  0  0  0  0  0999 V2000
   11.9055   -0.7890    0.0000 S   0  0  0  0  0  0  0  0  0  0  0  0
    2.0000   -0.3127    0.0000 F   0  0  0  0  0  0  0  0  0  0  0  0
    4.7684    1.9090    0.0000 O   0  0  0  0  0  0  0  0  0  0  0  0
   11.4055    0.0771    0.0000 O   0  0  0  0  0  0  0  0  0  0  0  0
   12.4055   -1.6550    0.0000 O   0  0  0  0  0  0  0  0  0  0  0  0
    8.4414   -0.7890    0.0000 N   0  0  0  0  0  0  0  0  0  0  0  0
    5.7402    1.6998    0.0000 N   0  0  0  0  0  0  0  0  0  0  0  0
   11.0395   -1.2890    0.0000 N   0  0  0  0  0  0  0  0  0  0  0  0
    6.7093    0.2110    0.0000 C   0  0  0  0  0  0  0  0  0  0  0  0
    7.5754    0.7110    0.0000 C   0  0  0  0  0  0  0  0  0  0  0  0
    6.7093   -0.7890    0.0000 C   0  0  0  0  0  0  0  0  0  0  0  0
    8.4414    0.2110    0.0000 C   0  0  0  0  0  0  0  0  0  0  0  0
    7.5754   -1.2890    0.0000 C   0  0  0  0  0  0  0  0  0  0  0  0
    9.3074   -1.2890    0.0000 C   0  0  0  0  0  0  0  0  0  0  0  0
    5.8433    0.7110    0.0000 C   0  0  0  0  0  0  0  0  0  0  0  0
   10.1734   -0.7890    0.0000 C   0  0  0  0  0  0  0  0  0  0  0  0
    4.9355    0.3059    0.0000 C   0  0  0  0  0  0  0  0  0  0  0  0
    4.2677    1.0502    0.0000 C   0  0  0  0  0  0  0  0  0  0  0  0
    4.6249   -0.6446    0.0000 C   0  0  0  0  0  0  0  0  0  0  0  0
    3.2892    0.8440    0.0000 C   0  0  0  0  0  0  0  0  0  0  0  0
    3.6464   -0.8508    0.0000 C   0  0  0  0  0  0  0  0  0  0  0  0
   12.7715   -0.2890    0.0000 C   0  0  0  0  0  0  0  0  0  0  0  0
    2.9785   -0.1065    0.0000 C   0  0  0  0  0  0  0  0  0  0  0  0
   13.6375   -0.7890    0.0000 C   0  0  0  0  0  0  0  0  0  0  0  0
   12.7715    0.7110    0.0000 C   0  0  0  0  0  0  0  0  0  0  0  0
   14.5036   -0.2890    0.0000 C   0  0  0  0  0  0  0  0  0  0  0  0
   14.5036    0.7110    0.0000 C   0  0  0  0  0  0  0  0  0  0  0  0
   13.6375    1.2110    0.0000 C   0  0  0  0  0  0  0  0  0  0  0  0
   15.3975   -0.8236    0.0000 C   0  0  0  0  0  0  0  0  0  0  0  0
   15.3975    1.2457    0.0000 C   0  0  0  0  0  0  0  0  0  0  0  0
   16.3036   -0.3098    0.0000 C   0  0  0  0  0  0  0  0  0  0  0  0
   16.3036    0.7319    0.0000 C   0  0  0  0  0  0  0  0  0  0  0  0
    6.7093    0.8310    0.0000 H   0  0  0  0  0  0  0  0  0  0  0  0
    7.9739    1.1860    0.0000 H   0  0  0  0  0  0  0  0  0  0  0  0
    7.1768    1.1860    0.0000 H   0  0  0  0  0  0  0  0  0  0  0  0
    6.0988   -0.6813    0.0000 H   0  0  0  0  0  0  0  0  0  0  0  0
    6.4973   -1.3716    0.0000 H   0  0  0  0  0  0  0  0  0  0  0  0
    9.0520    0.1034    0.0000 H   0  0  0  0  0  0  0  0  0  0  0  0
    8.6534    0.7936    0.0000 H   0  0  0  0  0  0  0  0  0  0  0  0
    7.1768   -1.7639    0.0000 H   0  0  0  0  0  0  0  0  0  0  0  0
    7.9739   -1.7639    0.0000 H   0  0  0  0  0  0  0  0  0  0  0  0
    8.9089   -1.7639    0.0000 H   0  0  0  0  0  0  0  0  0  0  0  0
    9.7059   -1.7639    0.0000 H   0  0  0  0  0  0  0  0  0  0  0  0
   10.5720   -0.3140    0.0000 H   0  0  0  0  0  0  0  0  0  0  0  0
    9.7749   -0.3140    0.0000 H   0  0  0  0  0  0  0  0  0  0  0  0
   11.0395   -1.9090    0.0000 H   0  0  0  0  0  0  0  0  0  0  0  0
    5.0389   -1.1061    0.0000 H   0  0  0  0  0  0  0  0  0  0  0  0
    2.8751    1.3055    0.0000 H   0  0  0  0  0  0  0  0  0  0  0  0
    3.4537   -1.4401    0.0000 H   0  0  0  0  0  0  0  0  0  0  0  0
   13.6375   -1.4090    0.0000 H   0  0  0  0  0  0  0  0  0  0  0  0
   12.2346    1.0210    0.0000 H   0  0  0  0  0  0  0  0  0  0  0  0
   13.6375    1.8310    0.0000 H   0  0  0  0  0  0  0  0  0  0  0  0
   15.3903   -1.4436    0.0000 H   0  0  0  0  0  0  0  0  0  0  0  0
   15.3903    1.8657    0.0000 H   0  0  0  0  0  0  0  0  0  0  0  0
   16.8393   -0.6218    0.0000 H   0  0  0  0  0  0  0  0  0  0  0  0
   16.8393    1.0439    0.0000 H   0  0  0  0  0  0  0  0  0  0  0  0
  1  4  2  0  0  0  0
  1  5  2  0  0  0  0
  1  8  1  0  0  0  0
  1 22  1  0  0  0  0
  2 23  1  0  0  0  0
  3  7  1  0  0  0  0
  3 18  1  0  0  0  0
  6 12  1  0  0  0  0
  6 13  1  0  0  0  0
  6 14  1  0  0  0  0
  7 15  2  0  0  0  0
  8 16  1  0  0  0  0
  8 46  1  0  0  0  0
  9 10  1  0  0  0  0
  9 11  1  0  0  0  0
  9 15  1  0  0  0  0
  9 33  1  0  0  0  0
 10 12  1  0  0  0  0
 10 34  1  0  0  0  0
 10 35  1  0  0  0  0
 11 13  1  0  0  0  0
 11 36  1  0  0  0  0
 11 37  1  0  0  0  0
 12 38  1  0  0  0  0
 12 39  1  0  0  0  0
 13 40  1  0  0  0  0
 13 41  1  0  0  0  0
 14 16  1  0  0  0  0
 14 42  1  0  0  0  0
 14 43  1  0  0  0  0
 15 17  1  0  0  0  0
 16 44  1  0  0  0  0
 16 45  1  0  0  0  0
 17 18  2  0  0  0  0
 17 19  1  0  0  0  0
 18 20  1  0  0  0  0
 19 21  2  0  0  0  0
 19 47  1  0  0  0  0
 20 23  2  0  0  0  0
 20 48  1  0  0  0  0
 21 23  1  0  0  0  0
 21 49  1  0  0  0  0
 22 24  2  0  0  0  0
 22 25  1  0  0  0  0
 24 26  1  0  0  0  0
 24 50  1  0  0  0  0
 25 28  2  0  0  0  0
 25 51  1  0  0  0  0
 26 27  1  0  0  0  0
 26 29  2  0  0  0  0
 27 28  1  0  0  0  0
 27 30  2  0  0  0  0
 28 52  1  0  0  0  0
 29 31  1  0  0  0  0
 29 53  1  0  0  0  0
 30 32  1  0  0  0  0
 30 54  1  0  0  0  0
 31 32  2  0  0  0  0
 31 55  1  0  0  0  0
 32 56  1  0  0  0  0
M  END
> <PUBCHEM_COMPOUND_CID>
56944763

> <PUBCHEM_COMPOUND_CANONICALIZED>
1

> <PUBCHEM_CACTVS_COMPLEXITY>
725

> <PUBCHEM_CACTVS_HBOND_ACCEPTOR>
7

> <PUBCHEM_CACTVS_HBOND_DONOR>
1

> <PUBCHEM_CACTVS_ROTATABLE_BOND>
6

> <PUBCHEM_CACTVS_SUBSKEYS>
AAADceB7MQBAAAAAAAAAAAAAAAAAAWAAAAA8YMEAAAAAAFjB9AAAHwQUQAAADQzB3gwwh9NQAAKpA6RyQnDCABAkIAAomLk+TNoIZrqAlZOUMYBm0BmIyceYyOCOkAAAgAAYAAAgAAEAADAAAAAAAAAAAA==

> <PUBCHEM_IUPAC_OPENEYE_NAME>
N-[2-[4-(6-fluoro-1,2-benzoxazol-3-yl)-1-piperidyl]ethyl]naphthalene-2-sulfonamide

> <PUBCHEM_IUPAC_CAS_NAME>
N-[2-[4-(6-fluoro-1,2-benzoxazol-3-yl)-1-piperidinyl]ethyl]-2-naphthalenesulfonamide

> <PUBCHEM_IUPAC_NAME_MARKUP>
<I>N</I>-[2-[4-(6-fluoro-1,2-benzoxazol-3-yl)piperidin-1-yl]ethyl]naphthalene-2-sulfonamide

> <PUBCHEM_IUPAC_NAME>
N-[2-[4-(6-fluoro-1,2-benzoxazol-3-yl)piperidin-1-yl]ethyl]naphthalene-2-sulfonamide

> <PUBCHEM_IUPAC_SYSTEMATIC_NAME>
N-[2-[4-(6-fluoranyl-1,2-benzoxazol-3-yl)piperidin-1-yl]ethyl]naphthalene-2-sulfonamide

> <PUBCHEM_IUPAC_TRADITIONAL_NAME>
N-[2-[4-(6-fluoroindoxazen-3-yl)piperidino]ethyl]naphthalene-2-sulfonamide

> <PUBCHEM_IUPAC_INCHI>
InChI=1S/C24H24FN3O3S/c25-20-6-8-22-23(16-20)31-27-24(22)18-9-12-28(13-10-18)14-11-26-32(29,30)21-7-5-17-3-1-2-4-19(17)15-21/h1-8,15-16,18,26H,9-14H2

> <PUBCHEM_IUPAC_INCHIKEY>
UBEFEBGEUSHFSH-UHFFFAOYSA-N

> <PUBCHEM_XLOGP3_AA>
4.3

> <PUBCHEM_EXACT_MASS>
453.15224097

> <PUBCHEM_MOLECULAR_FORMULA>
C24H24FN3O3S

> <PUBCHEM_MOLECULAR_WEIGHT>
453.5

> <PUBCHEM_OPENEYE_CAN_SMILES>
C1CN(CCC1C2=NOC3=C2C=CC(=C3)F)CCNS(=O)(=O)C4=CC5=CC=CC=C5C=C4

> <PUBCHEM_OPENEYE_ISO_SMILES>
C1CN(CCC1C2=NOC3=C2C=CC(=C3)F)CCNS(=O)(=O)C4=CC5=CC=CC=C5C=C4

> <PUBCHEM_CACTVS_TPSA>
83.8

> <PUBCHEM_MONOISOTOPIC_WEIGHT>
453.15224097

> <PUBCHEM_TOTAL_CHARGE>
0

> <PUBCHEM_HEAVY_ATOM_COUNT>
32

> <PUBCHEM_ATOM_DEF_STEREO_COUNT>
0

> <PUBCHEM_ATOM_UDEF_STEREO_COUNT>
0

> <PUBCHEM_BOND_DEF_STEREO_COUNT>
0

> <PUBCHEM_BOND_UDEF_STEREO_COUNT>
0

> <PUBCHEM_ISOTOPIC_ATOM_COUNT>
0

> <PUBCHEM_COMPONENT_COUNT>
1

> <PUBCHEM_CACTVS_TAUTO_COUNT>
-1

> <PUBCHEM_COORDINATE_TYPE>
1
5
255

> <PUBCHEM_BONDANNOTATIONS>
15  17  8
17  18  8
17  19  8
18  20  8
19  21  8
20  23  8
21  23  8
22  24  8
22  25  8
24  26  8
25  28  8
26  27  8
26  29  8
27  28  8
27  30  8
29  31  8
3  18  8
3  7  8
30  32  8
31  32  8
7  15  8

$$$$
