23625541
  -OEChem-09292322252D

 66 70  0     0  0  0  0  0  0999 V2000
    9.2619   -0.2990    0.0000 O   0  0  0  0  0  0  0  0  0  0  0  0
   15.2619   -0.2990    0.0000 O   0  0  0  0  0  0  0  0  0  0  0  0
   12.2619    1.4330    0.0000 N   0  0  0  0  0  0  0  0  0  0  0  0
   14.2619    1.4330    0.0000 N   0  0  0  0  0  0  0  0  0  0  0  0
    3.7320    0.2010    0.0000 N   0  0  0  0  0  0  0  0  0  0  0  0
    4.6783   -1.1038    0.0000 N   0  0  0  0  0  0  0  0  0  0  0  0
   12.7619    0.5670    0.0000 C   0  0  0  0  0  0  0  0  0  0  0  0
   12.7619    2.2990    0.0000 C   0  0  0  0  0  0  0  0  0  0  0  0
   13.7619    0.5670    0.0000 C   0  0  0  0  0  0  0  0  0  0  0  0
   13.7619    2.2990    0.0000 C   0  0  0  0  0  0  0  0  0  0  0  0
   11.2619    1.4330    0.0000 C   0  0  0  0  0  0  0  0  0  0  0  0
   10.7619    0.5670    0.0000 C   0  0  0  0  0  0  0  0  0  0  0  0
   15.2619    1.4330    0.0000 C   0  0  0  0  0  0  0  0  0  0  0  0
    9.7619    0.5670    0.0000 C   0  0  0  0  0  0  0  0  0  0  0  0
   15.7619    0.5670    0.0000 C   0  0  0  0  0  0  0  0  0  0  0  0
   15.7619    2.2990    0.0000 C   0  0  0  0  0  0  0  0  0  0  0  0
   16.7619    0.5670    0.0000 C   0  0  0  0  0  0  0  0  0  0  0  0
   16.7619    2.2990    0.0000 C   0  0  0  0  0  0  0  0  0  0  0  0
   17.2619    1.4330    0.0000 C   0  0  0  0  0  0  0  0  0  0  0  0
    8.2619   -0.2990    0.0000 C   0  0  0  0  0  0  0  0  0  0  0  0
    6.2619   -0.2990    0.0000 C   0  0  0  0  0  0  0  0  0  0  0  0
    7.7619    0.5670    0.0000 C   0  0  0  0  0  0  0  0  0  0  0  0
    7.7619   -1.1651    0.0000 C   0  0  0  0  0  0  0  0  0  0  0  0
    5.2619   -0.2990    0.0000 C   0  0  0  0  0  0  0  0  0  0  0  0
   15.7619   -1.1651    0.0000 C   0  0  0  0  0  0  0  0  0  0  0  0
    3.7320   -0.7990    0.0000 C   0  0  0  0  0  0  0  0  0  0  0  0
    6.7619    0.5670    0.0000 C   0  0  0  0  0  0  0  0  0  0  0  0
    6.7619   -1.1651    0.0000 C   0  0  0  0  0  0  0  0  0  0  0  0
    4.6783    0.5057    0.0000 C   0  0  0  0  0  0  0  0  0  0  0  0
    2.8660   -1.2990    0.0000 C   0  0  0  0  0  0  0  0  0  0  0  0
    2.8660    0.7010    0.0000 C   0  0  0  0  0  0  0  0  0  0  0  0
    2.0000   -0.7990    0.0000 C   0  0  0  0  0  0  0  0  0  0  0  0
    2.0000    0.2010    0.0000 C   0  0  0  0  0  0  0  0  0  0  0  0
    2.8660   -2.2990    0.0000 C   0  0  0  0  0  0  0  0  0  0  0  0
   12.1793    0.3549    0.0000 H   0  0  0  0  0  0  0  0  0  0  0  0
   12.8695   -0.0436    0.0000 H   0  0  0  0  0  0  0  0  0  0  0  0
   12.8695    2.9096    0.0000 H   0  0  0  0  0  0  0  0  0  0  0  0
   12.1793    2.5111    0.0000 H   0  0  0  0  0  0  0  0  0  0  0  0
   13.6542   -0.0436    0.0000 H   0  0  0  0  0  0  0  0  0  0  0  0
   14.3445    0.3549    0.0000 H   0  0  0  0  0  0  0  0  0  0  0  0
   14.3445    2.5111    0.0000 H   0  0  0  0  0  0  0  0  0  0  0  0
   13.6542    2.9096    0.0000 H   0  0  0  0  0  0  0  0  0  0  0  0
   11.3695    2.0436    0.0000 H   0  0  0  0  0  0  0  0  0  0  0  0
   10.6793    1.6451    0.0000 H   0  0  0  0  0  0  0  0  0  0  0  0
   10.6542   -0.0436    0.0000 H   0  0  0  0  0  0  0  0  0  0  0  0
   11.3445    0.3549    0.0000 H   0  0  0  0  0  0  0  0  0  0  0  0
    9.8695    1.1776    0.0000 H   0  0  0  0  0  0  0  0  0  0  0  0
    9.1793    0.7790    0.0000 H   0  0  0  0  0  0  0  0  0  0  0  0
   15.4519    2.8360    0.0000 H   0  0  0  0  0  0  0  0  0  0  0  0
   17.0719    0.0301    0.0000 H   0  0  0  0  0  0  0  0  0  0  0  0
   17.0719    2.8360    0.0000 H   0  0  0  0  0  0  0  0  0  0  0  0
   17.8819    1.4330    0.0000 H   0  0  0  0  0  0  0  0  0  0  0  0
    8.0719    1.1039    0.0000 H   0  0  0  0  0  0  0  0  0  0  0  0
    8.0719   -1.7020    0.0000 H   0  0  0  0  0  0  0  0  0  0  0  0
   15.2249   -1.4751    0.0000 H   0  0  0  0  0  0  0  0  0  0  0  0
   16.0719   -1.7020    0.0000 H   0  0  0  0  0  0  0  0  0  0  0  0
   16.2988   -0.8551    0.0000 H   0  0  0  0  0  0  0  0  0  0  0  0
    6.4519    1.1039    0.0000 H   0  0  0  0  0  0  0  0  0  0  0  0
    6.4519   -1.7020    0.0000 H   0  0  0  0  0  0  0  0  0  0  0  0
    4.8709    1.0950    0.0000 H   0  0  0  0  0  0  0  0  0  0  0  0
    2.8660    1.3210    0.0000 H   0  0  0  0  0  0  0  0  0  0  0  0
    1.4631   -1.1090    0.0000 H   0  0  0  0  0  0  0  0  0  0  0  0
    1.4631    0.5110    0.0000 H   0  0  0  0  0  0  0  0  0  0  0  0
    2.2460   -2.2990    0.0000 H   0  0  0  0  0  0  0  0  0  0  0  0
    2.8660   -2.9190    0.0000 H   0  0  0  0  0  0  0  0  0  0  0  0
    3.4860   -2.2990    0.0000 H   0  0  0  0  0  0  0  0  0  0  0  0
  1 14  1  0  0  0  0
  1 20  1  0  0  0  0
  2 15  1  0  0  0  0
  2 25  1  0  0  0  0
  3  7  1  0  0  0  0
  3  8  1  0  0  0  0
  3 11  1  0  0  0  0
  4  9  1  0  0  0  0
  4 10  1  0  0  0  0
  4 13  1  0  0  0  0
  5 26  1  0  0  0  0
  5 29  1  0  0  0  0
  5 31  1  0  0  0  0
  6 24  1  0  0  0  0
  6 26  2  0  0  0  0
  7  9  1  0  0  0  0
  7 35  1  0  0  0  0
  7 36  1  0  0  0  0
  8 10  1  0  0  0  0
  8 37  1  0  0  0  0
  8 38  1  0  0  0  0
  9 39  1  0  0  0  0
  9 40  1  0  0  0  0
 10 41  1  0  0  0  0
 10 42  1  0  0  0  0
 11 12  1  0  0  0  0
 11 43  1  0  0  0  0
 11 44  1  0  0  0  0
 12 14  1  0  0  0  0
 12 45  1  0  0  0  0
 12 46  1  0  0  0  0
 13 15  1  0  0  0  0
 13 16  2  0  0  0  0
 14 47  1  0  0  0  0
 14 48  1  0  0  0  0
 15 17  2  0  0  0  0
 16 18  1  0  0  0  0
 16 49  1  0  0  0  0
 17 19  1  0  0  0  0
 17 50  1  0  0  0  0
 18 19  2  0  0  0  0
 18 51  1  0  0  0  0
 19 52  1  0  0  0  0
 20 22  2  0  0  0  0
 20 23  1  0  0  0  0
 21 24  1  0  0  0  0
 21 27  2  0  0  0  0
 21 28  1  0  0  0  0
 22 27  1  0  0  0  0
 22 53  1  0  0  0  0
 23 28  2  0  0  0  0
 23 54  1  0  0  0  0
 24 29  2  0  0  0  0
 25 55  1  0  0  0  0
 25 56  1  0  0  0  0
 25 57  1  0  0  0  0
 26 30  1  0  0  0  0
 27 58  1  0  0  0  0
 28 59  1  0  0  0  0
 29 60  1  0  0  0  0
 30 32  2  0  0  0  0
 30 34  1  0  0  0  0
 31 33  2  0  0  0  0
 31 61  1  0  0  0  0
 32 33  1  0  0  0  0
 32 62  1  0  0  0  0
 33 63  1  0  0  0  0
 34 64  1  0  0  0  0
 34 65  1  0  0  0  0
 34 66  1  0  0  0  0
M  END
> <PUBCHEM_COMPOUND_CID>
23625541

> <PUBCHEM_COMPOUND_CANONICALIZED>
1

> <PUBCHEM_CACTVS_COMPLEXITY>
605

> <PUBCHEM_CACTVS_HBOND_ACCEPTOR>
5

> <PUBCHEM_CACTVS_HBOND_DONOR>
0

> <PUBCHEM_CACTVS_ROTATABLE_BOND>
8

> <PUBCHEM_CACTVS_SUBSKEYS>
AAADcfB7sAAAAAAAAAAAAAAAAAAAAWAAAAA8eIEAAAAAAFgB9AAAHgAAAAAADAzhnwY/9p8MHACgAzZnZACCiC0xMqAJ2CA/fJiObuLEuZuXOCjuwBPY6CeQ0IMOIAAAAAAAEABAAAAAAAAgAAAAAAAAAA==

> <PUBCHEM_IUPAC_OPENEYE_NAME>
2-[4-[3-[4-(2-methoxyphenyl)piperazin-1-yl]propoxy]phenyl]-8-methyl-imidazo[1,2-a]pyridine

> <PUBCHEM_IUPAC_CAS_NAME>
2-[4-[3-[4-(2-methoxyphenyl)-1-piperazinyl]propoxy]phenyl]-8-methylimidazo[1,2-a]pyridine

> <PUBCHEM_IUPAC_NAME_MARKUP>
2-[4-[3-[4-(2-methoxyphenyl)piperazin-1-yl]propoxy]phenyl]-8-methylimidazo[1,2-a]pyridine

> <PUBCHEM_IUPAC_NAME>
2-[4-[3-[4-(2-methoxyphenyl)piperazin-1-yl]propoxy]phenyl]-8-methylimidazo[1,2-a]pyridine

> <PUBCHEM_IUPAC_SYSTEMATIC_NAME>
2-[4-[3-[4-(2-methoxyphenyl)piperazin-1-yl]propoxy]phenyl]-8-methyl-imidazo[1,2-a]pyridine

> <PUBCHEM_IUPAC_TRADITIONAL_NAME>
2-[4-[3-[4-(2-methoxyphenyl)piperazino]propoxy]phenyl]-8-methyl-imidazo[1,2-a]pyridine

> <PUBCHEM_IUPAC_INCHI>
InChI=1S/C28H32N4O2/c1-22-7-5-15-32-21-25(29-28(22)32)23-10-12-24(13-11-23)34-20-6-14-30-16-18-31(19-17-30)26-8-3-4-9-27(26)33-2/h3-5,7-13,15,21H,6,14,16-20H2,1-2H3

> <PUBCHEM_IUPAC_INCHIKEY>
WMZWVTIIHJJKKR-UHFFFAOYSA-N

> <PUBCHEM_XLOGP3_AA>
5.7

> <PUBCHEM_EXACT_MASS>
456.25252628

> <PUBCHEM_MOLECULAR_FORMULA>
C28H32N4O2

> <PUBCHEM_MOLECULAR_WEIGHT>
456.6

> <PUBCHEM_OPENEYE_CAN_SMILES>
CC1=CC=CN2C1=NC(=C2)C3=CC=C(C=C3)OCCCN4CCN(CC4)C5=CC=CC=C5OC

> <PUBCHEM_OPENEYE_ISO_SMILES>
CC1=CC=CN2C1=NC(=C2)C3=CC=C(C=C3)OCCCN4CCN(CC4)C5=CC=CC=C5OC

> <PUBCHEM_CACTVS_TPSA>
42.2

> <PUBCHEM_MONOISOTOPIC_WEIGHT>
456.25252628

> <PUBCHEM_TOTAL_CHARGE>
0

> <PUBCHEM_HEAVY_ATOM_COUNT>
34

> <PUBCHEM_ATOM_DEF_STEREO_COUNT>
0

> <PUBCHEM_ATOM_UDEF_STEREO_COUNT>
0

> <PUBCHEM_BOND_DEF_STEREO_COUNT>
0

> <PUBCHEM_BOND_UDEF_STEREO_COUNT>
0

> <PUBCHEM_ISOTOPIC_ATOM_COUNT>
0

> <PUBCHEM_COMPONENT_COUNT>
1

> <PUBCHEM_CACTVS_TAUTO_COUNT>
-1

> <PUBCHEM_COORDINATE_TYPE>
1
5
255

> <PUBCHEM_BONDANNOTATIONS>
13  15  8
13  16  8
15  17  8
16  18  8
17  19  8
18  19  8
20  22  8
20  23  8
21  27  8
21  28  8
22  27  8
23  28  8
24  29  8
26  30  8
30  32  8
31  33  8
32  33  8
5  26  8
5  29  8
5  31  8
6  24  8
6  26  8

$$$$
