11699516
  -OEChem-09292322242D

 68 71  0     0  0  0  0  0  0999 V2000
    2.0000    6.6716    0.0000 Br  0  0  0  0  0  0  0  0  0  0  0  0
    8.5935   -5.7942    0.0000 O   0  0  0  0  0  0  0  0  0  0  0  0
    3.3973    1.2058    0.0000 O   0  0  0  0  0  0  0  0  0  0  0  0
    6.8614   -2.7942    0.0000 N   0  0  0  0  0  0  0  0  0  0  0  0
    6.8614   -4.7942    0.0000 N   0  0  0  0  0  0  0  0  0  0  0  0
    5.1294    1.2058    0.0000 N   0  0  0  0  0  0  0  0  0  0  0  0
    3.7634    4.2446    0.0000 N   0  0  0  0  0  0  0  0  0  0  0  0
    5.0724    3.2935    0.0000 N   0  0  0  0  0  0  0  0  0  0  0  0
    4.7634    4.2446    0.0000 N   0  0  0  0  0  0  0  0  0  0  0  0
    7.7275   -3.2942    0.0000 C   0  0  0  0  0  0  0  0  0  0  0  0
    5.9954   -3.2942    0.0000 C   0  0  0  0  0  0  0  0  0  0  0  0
    7.7275   -4.2942    0.0000 C   0  0  0  0  0  0  0  0  0  0  0  0
    5.9954   -4.2942    0.0000 C   0  0  0  0  0  0  0  0  0  0  0  0
    6.8614   -1.7942    0.0000 C   0  0  0  0  0  0  0  0  0  0  0  0
    5.9954   -1.2942    0.0000 C   0  0  0  0  0  0  0  0  0  0  0  0
    6.8614   -5.7942    0.0000 C   0  0  0  0  0  0  0  0  0  0  0  0
    5.9954   -0.2942    0.0000 C   0  0  0  0  0  0  0  0  0  0  0  0
    5.1294    0.2058    0.0000 C   0  0  0  0  0  0  0  0  0  0  0  0
    7.7275   -6.2942    0.0000 C   0  0  0  0  0  0  0  0  0  0  0  0
    5.9954   -6.2942    0.0000 C   0  0  0  0  0  0  0  0  0  0  0  0
    7.7275   -7.2942    0.0000 C   0  0  0  0  0  0  0  0  0  0  0  0
    5.9954   -7.2942    0.0000 C   0  0  0  0  0  0  0  0  0  0  0  0
    6.8614   -7.7942    0.0000 C   0  0  0  0  0  0  0  0  0  0  0  0
    4.2634    1.7058    0.0000 C   0  0  0  0  0  0  0  0  0  0  0  0
    4.2634    2.7058    0.0000 C   0  0  0  0  0  0  0  0  0  0  0  0
    3.4543    3.2935    0.0000 C   0  0  0  0  0  0  0  0  0  0  0  0
    9.4595   -6.2942    0.0000 C   0  0  0  0  0  0  0  0  0  0  0  0
    3.1756    5.0536    0.0000 C   0  0  0  0  0  0  0  0  0  0  0  0
    2.5033    2.9845    0.0000 C   0  0  0  0  0  0  0  0  0  0  0  0
    3.5823    5.9672    0.0000 C   0  0  0  0  0  0  0  0  0  0  0  0
    2.9945    6.7762    0.0000 C   0  0  0  0  0  0  0  0  0  0  0  0
    4.5768    6.0717    0.0000 C   0  0  0  0  0  0  0  0  0  0  0  0
    3.4013    7.6897    0.0000 C   0  0  0  0  0  0  0  0  0  0  0  0
    4.9836    6.9852    0.0000 C   0  0  0  0  0  0  0  0  0  0  0  0
    4.3958    7.7942    0.0000 C   0  0  0  0  0  0  0  0  0  0  0  0
    8.3380   -3.4019    0.0000 H   0  0  0  0  0  0  0  0  0  0  0  0
    7.9395   -2.7116    0.0000 H   0  0  0  0  0  0  0  0  0  0  0  0
    5.7834   -2.7116    0.0000 H   0  0  0  0  0  0  0  0  0  0  0  0
    5.3848   -3.4019    0.0000 H   0  0  0  0  0  0  0  0  0  0  0  0
    7.9395   -4.8769    0.0000 H   0  0  0  0  0  0  0  0  0  0  0  0
    8.3380   -4.1866    0.0000 H   0  0  0  0  0  0  0  0  0  0  0  0
    5.3848   -4.1866    0.0000 H   0  0  0  0  0  0  0  0  0  0  0  0
    5.7834   -4.8769    0.0000 H   0  0  0  0  0  0  0  0  0  0  0  0
    7.4720   -1.9019    0.0000 H   0  0  0  0  0  0  0  0  0  0  0  0
    7.0735   -1.2116    0.0000 H   0  0  0  0  0  0  0  0  0  0  0  0
    5.3848   -1.1866    0.0000 H   0  0  0  0  0  0  0  0  0  0  0  0
    5.7834   -1.8769    0.0000 H   0  0  0  0  0  0  0  0  0  0  0  0
    6.6060   -0.4019    0.0000 H   0  0  0  0  0  0  0  0  0  0  0  0
    6.2075    0.2884    0.0000 H   0  0  0  0  0  0  0  0  0  0  0  0
    4.5188    0.3134    0.0000 H   0  0  0  0  0  0  0  0  0  0  0  0
    4.9173   -0.3769    0.0000 H   0  0  0  0  0  0  0  0  0  0  0  0
    5.4585   -5.9842    0.0000 H   0  0  0  0  0  0  0  0  0  0  0  0
    5.6663    1.5158    0.0000 H   0  0  0  0  0  0  0  0  0  0  0  0
    8.2644   -7.6042    0.0000 H   0  0  0  0  0  0  0  0  0  0  0  0
    5.4585   -7.6042    0.0000 H   0  0  0  0  0  0  0  0  0  0  0  0
    6.8614   -8.4142    0.0000 H   0  0  0  0  0  0  0  0  0  0  0  0
    9.1495   -6.8312    0.0000 H   0  0  0  0  0  0  0  0  0  0  0  0
    9.9964   -6.6042    0.0000 H   0  0  0  0  0  0  0  0  0  0  0  0
    9.7695   -5.7573    0.0000 H   0  0  0  0  0  0  0  0  0  0  0  0
    2.6616    5.4003    0.0000 H   0  0  0  0  0  0  0  0  0  0  0  0
    2.7449    4.6076    0.0000 H   0  0  0  0  0  0  0  0  0  0  0  0
    2.3117    3.5742    0.0000 H   0  0  0  0  0  0  0  0  0  0  0  0
    1.9136    2.7929    0.0000 H   0  0  0  0  0  0  0  0  0  0  0  0
    2.6949    2.3949    0.0000 H   0  0  0  0  0  0  0  0  0  0  0  0
    4.9413    5.5701    0.0000 H   0  0  0  0  0  0  0  0  0  0  0  0
    3.0368    8.1913    0.0000 H   0  0  0  0  0  0  0  0  0  0  0  0
    5.6002    7.0500    0.0000 H   0  0  0  0  0  0  0  0  0  0  0  0
    4.6480    8.3606    0.0000 H   0  0  0  0  0  0  0  0  0  0  0  0
  1 31  1  0  0  0  0
  2 19  1  0  0  0  0
  2 27  1  0  0  0  0
  3 24  2  0  0  0  0
  4 10  1  0  0  0  0
  4 11  1  0  0  0  0
  4 14  1  0  0  0  0
  5 12  1  0  0  0  0
  5 13  1  0  0  0  0
  5 16  1  0  0  0  0
  6 18  1  0  0  0  0
  6 24  1  0  0  0  0
  6 53  1  0  0  0  0
  7  9  1  0  0  0  0
  7 26  1  0  0  0  0
  7 28  1  0  0  0  0
  8  9  2  0  0  0  0
  8 25  1  0  0  0  0
 10 12  1  0  0  0  0
 10 36  1  0  0  0  0
 10 37  1  0  0  0  0
 11 13  1  0  0  0  0
 11 38  1  0  0  0  0
 11 39  1  0  0  0  0
 12 40  1  0  0  0  0
 12 41  1  0  0  0  0
 13 42  1  0  0  0  0
 13 43  1  0  0  0  0
 14 15  1  0  0  0  0
 14 44  1  0  0  0  0
 14 45  1  0  0  0  0
 15 17  1  0  0  0  0
 15 46  1  0  0  0  0
 15 47  1  0  0  0  0
 16 19  1  0  0  0  0
 16 20  2  0  0  0  0
 17 18  1  0  0  0  0
 17 48  1  0  0  0  0
 17 49  1  0  0  0  0
 18 50  1  0  0  0  0
 18 51  1  0  0  0  0
 19 21  2  0  0  0  0
 20 22  1  0  0  0  0
 20 52  1  0  0  0  0
 21 23  1  0  0  0  0
 21 54  1  0  0  0  0
 22 23  2  0  0  0  0
 22 55  1  0  0  0  0
 23 56  1  0  0  0  0
 24 25  1  0  0  0  0
 25 26  2  0  0  0  0
 26 29  1  0  0  0  0
 27 57  1  0  0  0  0
 27 58  1  0  0  0  0
 27 59  1  0  0  0  0
 28 30  1  0  0  0  0
 28 60  1  0  0  0  0
 28 61  1  0  0  0  0
 29 62  1  0  0  0  0
 29 63  1  0  0  0  0
 29 64  1  0  0  0  0
 30 31  1  0  0  0  0
 30 32  2  0  0  0  0
 31 33  2  0  0  0  0
 32 34  1  0  0  0  0
 32 65  1  0  0  0  0
 33 35  1  0  0  0  0
 33 66  1  0  0  0  0
 34 35  2  0  0  0  0
 34 67  1  0  0  0  0
 35 68  1  0  0  0  0
M  END
> <PUBCHEM_COMPOUND_CID>
11699516

> <PUBCHEM_COMPOUND_CANONICALIZED>
1

> <PUBCHEM_CACTVS_COMPLEXITY>
649

> <PUBCHEM_CACTVS_HBOND_ACCEPTOR>
6

> <PUBCHEM_CACTVS_HBOND_DONOR>
1

> <PUBCHEM_CACTVS_ROTATABLE_BOND>
10

> <PUBCHEM_CACTVS_SUBSKEYS>
AAADcfB7sAAAEAAAAAAAAAAAAAAAAWAAAAA8YIAAAAAAAAAB0AAAHgBYAAABrAzBngYyxpPIBACqAyVyVACCDAQnsgQY2IG/fOgOZjrE8ZuVMahk1hHY61eQwAAOAAAAAAAAkAAAAAAAAAEgAAAAAAAAAA==

> <PUBCHEM_IUPAC_OPENEYE_NAME>
1-[(2-bromophenyl)methyl]-N-[4-[4-(2-methoxyphenyl)piperazin-1-yl]butyl]-5-methyl-triazole-4-carboxamide

> <PUBCHEM_IUPAC_CAS_NAME>
1-[(2-bromophenyl)methyl]-N-[4-[4-(2-methoxyphenyl)-1-piperazinyl]butyl]-5-methyl-4-triazolecarboxamide

> <PUBCHEM_IUPAC_NAME_MARKUP>
1-[(2-bromophenyl)methyl]-<I>N</I>-[4-[4-(2-methoxyphenyl)piperazin-1-yl]butyl]-5-methyltriazole-4-carboxamide

> <PUBCHEM_IUPAC_NAME>
1-[(2-bromophenyl)methyl]-N-[4-[4-(2-methoxyphenyl)piperazin-1-yl]butyl]-5-methyltriazole-4-carboxamide

> <PUBCHEM_IUPAC_SYSTEMATIC_NAME>
1-[(2-bromophenyl)methyl]-N-[4-[4-(2-methoxyphenyl)piperazin-1-yl]butyl]-5-methyl-1,2,3-triazole-4-carboxamide

> <PUBCHEM_IUPAC_TRADITIONAL_NAME>
1-(2-bromobenzyl)-N-[4-[4-(2-methoxyphenyl)piperazino]butyl]-5-methyl-triazole-4-carboxamide

> <PUBCHEM_IUPAC_INCHI>
InChI=1S/C26H33BrN6O2/c1-20-25(29-30-33(20)19-21-9-3-4-10-22(21)27)26(34)28-13-7-8-14-31-15-17-32(18-16-31)23-11-5-6-12-24(23)35-2/h3-6,9-12H,7-8,13-19H2,1-2H3,(H,28,34)

> <PUBCHEM_IUPAC_INCHIKEY>
YFSQZKVPESKTJY-UHFFFAOYSA-N

> <PUBCHEM_XLOGP3_AA>
4.3

> <PUBCHEM_EXACT_MASS>
540.18484

> <PUBCHEM_MOLECULAR_FORMULA>
C26H33BrN6O2

> <PUBCHEM_MOLECULAR_WEIGHT>
541.5

> <PUBCHEM_OPENEYE_CAN_SMILES>
CC1=C(N=NN1CC2=CC=CC=C2Br)C(=O)NCCCCN3CCN(CC3)C4=CC=CC=C4OC

> <PUBCHEM_OPENEYE_ISO_SMILES>
CC1=C(N=NN1CC2=CC=CC=C2Br)C(=O)NCCCCN3CCN(CC3)C4=CC=CC=C4OC

> <PUBCHEM_CACTVS_TPSA>
75.5

> <PUBCHEM_MONOISOTOPIC_WEIGHT>
540.18484

> <PUBCHEM_TOTAL_CHARGE>
0

> <PUBCHEM_HEAVY_ATOM_COUNT>
35

> <PUBCHEM_ATOM_DEF_STEREO_COUNT>
0

> <PUBCHEM_ATOM_UDEF_STEREO_COUNT>
0

> <PUBCHEM_BOND_DEF_STEREO_COUNT>
0

> <PUBCHEM_BOND_UDEF_STEREO_COUNT>
0

> <PUBCHEM_ISOTOPIC_ATOM_COUNT>
0

> <PUBCHEM_COMPONENT_COUNT>
1

> <PUBCHEM_CACTVS_TAUTO_COUNT>
-1

> <PUBCHEM_COORDINATE_TYPE>
1
5
255

> <PUBCHEM_BONDANNOTATIONS>
16  19  8
16  20  8
19  21  8
20  22  8
21  23  8
22  23  8
25  26  8
30  31  8
30  32  8
31  33  8
32  34  8
33  35  8
34  35  8
7  26  8
7  9  8
8  25  8
8  9  8

$$$$
