68630558
  -OEChem-09292322342D

 68 70  0     1  0  0  0  0  0999 V2000
    2.0000   -4.9507    0.0000 Cl  0  0  0  0  0  0  0  0  0  0  0  0
    2.0000   -6.9507    0.0000 Cl  0  0  0  0  0  0  0  0  0  0  0  0
    5.7087    5.2982    0.0000 O   0  0  0  0  0  0  0  0  0  0  0  0
    4.2776    4.3225    0.0000 O   0  0  0  0  0  0  0  0  0  0  0  0
    4.2320   -1.7601    0.0000 N   0  0  3  0  0  0  0  0  0  0  0  0
    5.8382    3.5710    0.0000 N   0  0  0  0  0  0  0  0  0  0  0  0
    3.7320   -3.9507    0.0000 N   0  0  3  0  0  0  0  0  0  0  0  0
    4.5365    0.8681    0.0000 C   0  0  0  0  0  0  0  0  0  0  0  0
    5.5337    0.9428    0.0000 C   0  0  0  0  0  0  0  0  0  0  0  0
    3.9732    1.6944    0.0000 C   0  0  0  0  0  0  0  0  0  0  0  0
    5.4043    2.6700    0.0000 C   0  0  0  0  0  0  0  0  0  0  0  0
    5.9676    1.8438    0.0000 C   0  0  0  0  0  0  0  0  0  0  0  0
    4.4071    2.5953    0.0000 C   0  0  0  0  0  0  0  0  0  0  0  0
    4.1026   -0.0329    0.0000 C   0  0  0  0  0  0  0  0  0  0  0  0
    4.6659   -0.8591    0.0000 C   0  0  0  0  0  0  0  0  0  0  0  0
    3.2320   -1.7601    0.0000 C   0  0  0  0  0  0  0  0  0  0  0  0
    4.8555   -2.5419    0.0000 C   0  0  0  0  0  0  0  0  0  0  0  0
    2.6086   -2.5419    0.0000 C   0  0  0  0  0  0  0  0  0  0  0  0
    4.6330   -3.5168    0.0000 C   0  0  0  0  0  0  0  0  0  0  0  0
    2.8311   -3.5168    0.0000 C   0  0  0  0  0  0  0  0  0  0  0  0
    5.2748    4.3973    0.0000 C   0  0  0  0  0  0  0  0  0  0  0  0
    3.7320   -4.9507    0.0000 C   0  0  0  0  0  0  0  0  0  0  0  0
    5.1454    6.1245    0.0000 C   0  0  0  0  0  0  0  0  0  0  0  0
    2.8660   -5.4507    0.0000 C   0  0  0  0  0  0  0  0  0  0  0  0
    4.5981   -5.4507    0.0000 C   0  0  0  0  0  0  0  0  0  0  0  0
    4.5821    6.9507    0.0000 C   0  0  0  0  0  0  0  0  0  0  0  0
    5.9716    6.6878    0.0000 C   0  0  0  0  0  0  0  0  0  0  0  0
    4.3191    5.5611    0.0000 C   0  0  0  0  0  0  0  0  0  0  0  0
    2.8660   -6.4507    0.0000 C   0  0  0  0  0  0  0  0  0  0  0  0
    4.5981   -6.4507    0.0000 C   0  0  0  0  0  0  0  0  0  0  0  0
    3.7320   -6.9507    0.0000 C   0  0  0  0  0  0  0  0  0  0  0  0
    3.9182    0.8218    0.0000 H   0  0  0  0  0  0  0  0  0  0  0  0
    5.4720    0.3259    0.0000 H   0  0  0  0  0  0  0  0  0  0  0  0
    6.1305    0.7749    0.0000 H   0  0  0  0  0  0  0  0  0  0  0  0
    3.4698    2.0563    0.0000 H   0  0  0  0  0  0  0  0  0  0  0  0
    3.5293    1.2614    0.0000 H   0  0  0  0  0  0  0  0  0  0  0  0
    6.0225    2.7164    0.0000 H   0  0  0  0  0  0  0  0  0  0  0  0
    6.4710    1.4819    0.0000 H   0  0  0  0  0  0  0  0  0  0  0  0
    6.4114    2.2767    0.0000 H   0  0  0  0  0  0  0  0  0  0  0  0
    4.4688    3.2122    0.0000 H   0  0  0  0  0  0  0  0  0  0  0  0
    3.8102    2.7632    0.0000 H   0  0  0  0  0  0  0  0  0  0  0  0
    3.5992    0.3291    0.0000 H   0  0  0  0  0  0  0  0  0  0  0  0
    3.6588   -0.4658    0.0000 H   0  0  0  0  0  0  0  0  0  0  0  0
    5.1693   -1.2210    0.0000 H   0  0  0  0  0  0  0  0  0  0  0  0
    5.1098   -0.4262    0.0000 H   0  0  0  0  0  0  0  0  0  0  0  0
    6.4564    3.6174    0.0000 H   0  0  0  0  0  0  0  0  0  0  0  0
    3.3700   -1.1556    0.0000 H   0  0  0  0  0  0  0  0  0  0  0  0
    2.6734   -1.4910    0.0000 H   0  0  0  0  0  0  0  0  0  0  0  0
    5.4141   -2.8109    0.0000 H   0  0  0  0  0  0  0  0  0  0  0  0
    5.2421   -2.0572    0.0000 H   0  0  0  0  0  0  0  0  0  0  0  0
    2.2220   -2.0572    0.0000 H   0  0  0  0  0  0  0  0  0  0  0  0
    2.0500   -2.8109    0.0000 H   0  0  0  0  0  0  0  0  0  0  0  0
    4.7710   -4.1213    0.0000 H   0  0  0  0  0  0  0  0  0  0  0  0
    5.2530   -3.5168    0.0000 H   0  0  0  0  0  0  0  0  0  0  0  0
    2.2111   -3.5168    0.0000 H   0  0  0  0  0  0  0  0  0  0  0  0
    2.6931   -4.1213    0.0000 H   0  0  0  0  0  0  0  0  0  0  0  0
    5.1350   -5.1407    0.0000 H   0  0  0  0  0  0  0  0  0  0  0  0
    5.0943    7.3000    0.0000 H   0  0  0  0  0  0  0  0  0  0  0  0
    4.2328    7.4630    0.0000 H   0  0  0  0  0  0  0  0  0  0  0  0
    4.0698    6.6014    0.0000 H   0  0  0  0  0  0  0  0  0  0  0  0
    6.3209    6.1755    0.0000 H   0  0  0  0  0  0  0  0  0  0  0  0
    6.4839    7.0370    0.0000 H   0  0  0  0  0  0  0  0  0  0  0  0
    5.6224    7.2001    0.0000 H   0  0  0  0  0  0  0  0  0  0  0  0
    3.9699    6.0734    0.0000 H   0  0  0  0  0  0  0  0  0  0  0  0
    3.8069    5.2119    0.0000 H   0  0  0  0  0  0  0  0  0  0  0  0
    4.6684    5.0489    0.0000 H   0  0  0  0  0  0  0  0  0  0  0  0
    5.1350   -6.7607    0.0000 H   0  0  0  0  0  0  0  0  0  0  0  0
    3.7320   -7.5707    0.0000 H   0  0  0  0  0  0  0  0  0  0  0  0
  1 24  1  0  0  0  0
  2 29  1  0  0  0  0
  3 21  1  0  0  0  0
  3 23  1  0  0  0  0
  4 21  2  0  0  0  0
  5 15  1  0  0  0  0
  5 16  1  0  0  0  0
  5 17  1  0  0  0  0
  6 11  1  0  0  0  0
  6 21  1  0  0  0  0
  6 46  1  0  0  0  0
  7 19  1  0  0  0  0
  7 20  1  0  0  0  0
  7 22  1  0  0  0  0
  8  9  1  0  0  0  0
  8 10  1  0  0  0  0
  8 14  1  0  0  0  0
  8 32  1  0  0  0  0
  9 12  1  0  0  0  0
  9 33  1  0  0  0  0
  9 34  1  0  0  0  0
 10 13  1  0  0  0  0
 10 35  1  0  0  0  0
 10 36  1  0  0  0  0
 11 12  1  0  0  0  0
 11 13  1  0  0  0  0
 11 37  1  0  0  0  0
 12 38  1  0  0  0  0
 12 39  1  0  0  0  0
 13 40  1  0  0  0  0
 13 41  1  0  0  0  0
 14 15  1  0  0  0  0
 14 42  1  0  0  0  0
 14 43  1  0  0  0  0
 15 44  1  0  0  0  0
 15 45  1  0  0  0  0
 16 18  1  0  0  0  0
 16 47  1  0  0  0  0
 16 48  1  0  0  0  0
 17 19  1  0  0  0  0
 17 49  1  0  0  0  0
 17 50  1  0  0  0  0
 18 20  1  0  0  0  0
 18 51  1  0  0  0  0
 18 52  1  0  0  0  0
 19 53  1  0  0  0  0
 19 54  1  0  0  0  0
 20 55  1  0  0  0  0
 20 56  1  0  0  0  0
 22 24  2  0  0  0  0
 22 25  1  0  0  0  0
 23 26  1  0  0  0  0
 23 27  1  0  0  0  0
 23 28  1  0  0  0  0
 24 29  1  0  0  0  0
 25 30  2  0  0  0  0
 25 57  1  0  0  0  0
 26 58  1  0  0  0  0
 26 59  1  0  0  0  0
 26 60  1  0  0  0  0
 27 61  1  0  0  0  0
 27 62  1  0  0  0  0
 27 63  1  0  0  0  0
 28 64  1  0  0  0  0
 28 65  1  0  0  0  0
 28 66  1  0  0  0  0
 29 31  2  0  0  0  0
 30 31  1  0  0  0  0
 30 67  1  0  0  0  0
 31 68  1  0  0  0  0
M  END
> <PUBCHEM_COMPOUND_CID>
68630558

> <PUBCHEM_COMPOUND_CANONICALIZED>
1

> <PUBCHEM_CACTVS_COMPLEXITY>
564

> <PUBCHEM_CACTVS_HBOND_ACCEPTOR>
4

> <PUBCHEM_CACTVS_HBOND_DONOR>
1

> <PUBCHEM_CACTVS_ROTATABLE_BOND>
7

> <PUBCHEM_CACTVS_SUBSKEYS>
AAADcfB7MAAGAAAAAAAAAAAAAAAAAAAAAAAwYAAABYAAAAABAAAAHgIQAAAADW7BkCQyyIPABACIACRCWACCAAAhBwAIisAIZokIYCLB05HcIAhglgDIyAcQgIAOAAAAAAIAABQQAAAABAAAKAAAAAAAAA==

> <PUBCHEM_IUPAC_OPENEYE_NAME>
tert-butyl N-[4-[2-[4-(2,3-dichlorophenyl)-1,4-diazepan-1-yl]ethyl]cyclohexyl]carbamate

> <PUBCHEM_IUPAC_CAS_NAME>
N-[4-[2-[4-(2,3-dichlorophenyl)-1,4-diazepan-1-yl]ethyl]cyclohexyl]carbamic acid tert-butyl ester

> <PUBCHEM_IUPAC_NAME_MARKUP>
<I>tert</I>-butyl <I>N</I>-[4-[2-[4-(2,3-dichlorophenyl)-1,4-diazepan-1-yl]ethyl]cyclohexyl]carbamate

> <PUBCHEM_IUPAC_NAME>
tert-butyl N-[4-[2-[4-(2,3-dichlorophenyl)-1,4-diazepan-1-yl]ethyl]cyclohexyl]carbamate

> <PUBCHEM_IUPAC_SYSTEMATIC_NAME>
tert-butyl N-[4-[2-[4-[2,3-bis(chloranyl)phenyl]-1,4-diazepan-1-yl]ethyl]cyclohexyl]carbamate

> <PUBCHEM_IUPAC_TRADITIONAL_NAME>
N-[4-[2-[4-(2,3-dichlorophenyl)-1,4-diazepan-1-yl]ethyl]cyclohexyl]carbamic acid tert-butyl ester

> <PUBCHEM_IUPAC_INCHI>
InChI=1S/C24H37Cl2N3O2/c1-24(2,3)31-23(30)27-19-10-8-18(9-11-19)12-15-28-13-5-14-29(17-16-28)21-7-4-6-20(25)22(21)26/h4,6-7,18-19H,5,8-17H2,1-3H3,(H,27,30)

> <PUBCHEM_IUPAC_INCHIKEY>
AUOJOHFXEIGMEC-UHFFFAOYSA-N

> <PUBCHEM_XLOGP3_AA>
6.1

> <PUBCHEM_EXACT_MASS>
469.2262828

> <PUBCHEM_MOLECULAR_FORMULA>
C24H37Cl2N3O2

> <PUBCHEM_MOLECULAR_WEIGHT>
470.5

> <PUBCHEM_OPENEYE_CAN_SMILES>
CC(C)(C)OC(=O)NC1CCC(CC1)CCN2CCCN(CC2)C3=C(C(=CC=C3)Cl)Cl

> <PUBCHEM_OPENEYE_ISO_SMILES>
CC(C)(C)OC(=O)NC1CCC(CC1)CCN2CCCN(CC2)C3=C(C(=CC=C3)Cl)Cl

> <PUBCHEM_CACTVS_TPSA>
44.8

> <PUBCHEM_MONOISOTOPIC_WEIGHT>
469.2262828

> <PUBCHEM_TOTAL_CHARGE>
0

> <PUBCHEM_HEAVY_ATOM_COUNT>
31

> <PUBCHEM_ATOM_DEF_STEREO_COUNT>
0

> <PUBCHEM_ATOM_UDEF_STEREO_COUNT>
0

> <PUBCHEM_BOND_DEF_STEREO_COUNT>
0

> <PUBCHEM_BOND_UDEF_STEREO_COUNT>
0

> <PUBCHEM_ISOTOPIC_ATOM_COUNT>
0

> <PUBCHEM_COMPONENT_COUNT>
1

> <PUBCHEM_CACTVS_TAUTO_COUNT>
-1

> <PUBCHEM_COORDINATE_TYPE>
1
5
255

> <PUBCHEM_BONDANNOTATIONS>
22  24  8
22  25  8
24  29  8
25  30  8
29  31  8
30  31  8

$$$$
