53317208
  -OEChem-09292322312D

 97103  0     1  0  0  0  0  0999 V2000
    9.2238   -3.7316    0.0000 O   0  0  0  0  0  0  0  0  0  0  0  0
    2.9957    6.5431    0.0000 O   0  0  0  0  0  0  0  0  0  0  0  0
   12.6965   -6.7631    0.0000 N   0  0  3  0  0  0  0  0  0  0  0  0
    6.1438    5.0976    0.0000 N   0  0  0  0  0  0  0  0  0  0  0  0
    4.9870    6.7291    0.0000 N   0  0  0  0  0  0  0  0  0  0  0  0
    7.5266   -0.7117    0.0000 N   0  0  0  0  0  0  0  0  0  0  0  0
    8.0443    0.8212    0.0000 N   0  0  0  0  0  0  0  0  0  0  0  0
    8.3423   -0.1334    0.0000 N   0  0  0  0  0  0  0  0  0  0  0  0
   11.8382   -6.2662    0.0000 C   0  0  3  0  0  0  0  0  0  0  0  0
   11.8382   -5.2662    0.0000 C   0  0  0  0  0  0  0  0  0  0  0  0
   10.9722   -6.7662    0.0000 C   0  0  0  0  0  0  0  0  0  0  0  0
   13.5619   -6.2789    0.0000 C   0  0  0  0  0  0  0  0  0  0  0  0
   12.7483   -4.7593    0.0000 C   0  0  0  0  0  0  0  0  0  0  0  0
   13.5876   -5.2876    0.0000 C   0  0  0  0  0  0  0  0  0  0  0  0
   10.9722   -4.7662    0.0000 C   0  0  0  0  0  0  0  0  0  0  0  0
   10.1062   -6.2662    0.0000 C   0  0  0  0  0  0  0  0  0  0  0  0
   12.6891   -7.7631    0.0000 C   0  0  0  0  0  0  0  0  0  0  0  0
   10.1062   -5.2662    0.0000 C   0  0  0  0  0  0  0  0  0  0  0  0
   12.7563   -3.7177    0.0000 C   0  0  0  0  0  0  0  0  0  0  0  0
   10.9562   -3.7247    0.0000 C   0  0  0  0  0  0  0  0  0  0  0  0
   13.5514   -8.2695    0.0000 C   0  0  0  0  0  0  0  0  0  0  0  0
    9.2123   -4.7315    0.0000 C   0  0  0  0  0  0  0  0  0  0  0  0
    9.2123   -6.8008    0.0000 C   0  0  0  0  0  0  0  0  0  0  0  0
   11.8542   -3.1969    0.0000 C   0  0  0  0  0  0  0  0  0  0  0  0
    8.3062   -5.2454    0.0000 C   0  0  0  0  0  0  0  0  0  0  0  0
    8.3062   -6.2870    0.0000 C   0  0  0  0  0  0  0  0  0  0  0  0
   13.5440   -9.2694    0.0000 C   0  0  0  0  0  0  0  0  0  0  0  0
    6.5610    6.0064    0.0000 C   0  0  0  0  0  0  0  0  0  0  0  0
    5.1481    5.0046    0.0000 C   0  0  0  0  0  0  0  0  0  0  0  0
    5.9827    6.8222    0.0000 C   0  0  0  0  0  0  0  0  0  0  0  0
    4.5697    5.8204    0.0000 C   0  0  0  0  0  0  0  0  0  0  0  0
    6.7222    4.2819    0.0000 C   0  0  0  0  0  0  0  0  0  0  0  0
    6.3049    3.3731    0.0000 C   0  0  0  0  0  0  0  0  0  0  0  0
    8.3636   -3.2216    0.0000 C   0  0  0  0  0  0  0  0  0  0  0  0
    6.8833    2.5573    0.0000 C   0  0  0  0  0  0  0  0  0  0  0  0
    4.4086    7.5449    0.0000 C   0  0  0  0  0  0  0  0  0  0  0  0
    8.3752   -2.2217    0.0000 C   0  0  0  0  0  0  0  0  0  0  0  0
    6.4660    1.6485    0.0000 C   0  0  0  0  0  0  0  0  0  0  0  0
    7.5150   -1.7117    0.0000 C   0  0  0  0  0  0  0  0  0  0  0  0
    3.4129    7.4519    0.0000 C   0  0  0  0  0  0  0  0  0  0  0  0
    4.8259    8.4537    0.0000 C   0  0  0  0  0  0  0  0  0  0  0  0
    7.0444    0.8328    0.0000 C   0  0  0  0  0  0  0  0  0  0  0  0
    6.7244   -0.1146    0.0000 C   0  0  0  0  0  0  0  0  0  0  0  0
    2.8346    8.2676    0.0000 C   0  0  0  0  0  0  0  0  0  0  0  0
    4.2475    9.2694    0.0000 C   0  0  0  0  0  0  0  0  0  0  0  0
    3.2518    9.1764    0.0000 C   0  0  0  0  0  0  0  0  0  0  0  0
    2.0000    6.4501    0.0000 C   0  0  0  0  0  0  0  0  0  0  0  0
   11.8379   -6.8862    0.0000 H   0  0  0  0  0  0  0  0  0  0  0  0
   10.5737   -7.2411    0.0000 H   0  0  0  0  0  0  0  0  0  0  0  0
   11.3708   -7.2411    0.0000 H   0  0  0  0  0  0  0  0  0  0  0  0
   13.7637   -6.8652    0.0000 H   0  0  0  0  0  0  0  0  0  0  0  0
   14.1747   -6.1846    0.0000 H   0  0  0  0  0  0  0  0  0  0  0  0
   14.1947   -5.4134    0.0000 H   0  0  0  0  0  0  0  0  0  0  0  0
   13.8193   -4.7125    0.0000 H   0  0  0  0  0  0  0  0  0  0  0  0
   12.0793   -7.6509    0.0000 H   0  0  0  0  0  0  0  0  0  0  0  0
   12.4727   -8.3441    0.0000 H   0  0  0  0  0  0  0  0  0  0  0  0
   13.2944   -3.4098    0.0000 H   0  0  0  0  0  0  0  0  0  0  0  0
   10.4157   -3.4209    0.0000 H   0  0  0  0  0  0  0  0  0  0  0  0
   14.1611   -8.3816    0.0000 H   0  0  0  0  0  0  0  0  0  0  0  0
   13.7677   -7.6884    0.0000 H   0  0  0  0  0  0  0  0  0  0  0  0
    9.2194   -7.4208    0.0000 H   0  0  0  0  0  0  0  0  0  0  0  0
   11.8518   -2.5769    0.0000 H   0  0  0  0  0  0  0  0  0  0  0  0
    7.7704   -4.9333    0.0000 H   0  0  0  0  0  0  0  0  0  0  0  0
    7.7704   -6.5990    0.0000 H   0  0  0  0  0  0  0  0  0  0  0  0
   12.9240   -9.2648    0.0000 H   0  0  0  0  0  0  0  0  0  0  0  0
   13.5394   -9.8894    0.0000 H   0  0  0  0  0  0  0  0  0  0  0  0
   14.1639   -9.2740    0.0000 H   0  0  0  0  0  0  0  0  0  0  0  0
    7.0710    5.6538    0.0000 H   0  0  0  0  0  0  0  0  0  0  0  0
    6.9969    6.4474    0.0000 H   0  0  0  0  0  0  0  0  0  0  0  0
    4.5878    4.7393    0.0000 H   0  0  0  0  0  0  0  0  0  0  0  0
    5.3121    4.4067    0.0000 H   0  0  0  0  0  0  0  0  0  0  0  0
    6.5430    7.0875    0.0000 H   0  0  0  0  0  0  0  0  0  0  0  0
    5.8187    7.4201    0.0000 H   0  0  0  0  0  0  0  0  0  0  0  0
    4.0598    6.1730    0.0000 H   0  0  0  0  0  0  0  0  0  0  0  0
    4.1339    5.3794    0.0000 H   0  0  0  0  0  0  0  0  0  0  0  0
    7.2321    3.9292    0.0000 H   0  0  0  0  0  0  0  0  0  0  0  0
    7.1580    4.7228    0.0000 H   0  0  0  0  0  0  0  0  0  0  0  0
    5.7949    3.7257    0.0000 H   0  0  0  0  0  0  0  0  0  0  0  0
    5.8691    2.9321    0.0000 H   0  0  0  0  0  0  0  0  0  0  0  0
    7.7543   -3.1069    0.0000 H   0  0  0  0  0  0  0  0  0  0  0  0
    8.1449   -3.8017    0.0000 H   0  0  0  0  0  0  0  0  0  0  0  0
    7.3932    2.2047    0.0000 H   0  0  0  0  0  0  0  0  0  0  0  0
    7.3191    2.9983    0.0000 H   0  0  0  0  0  0  0  0  0  0  0  0
    8.9845   -2.3364    0.0000 H   0  0  0  0  0  0  0  0  0  0  0  0
    8.5940   -1.6415    0.0000 H   0  0  0  0  0  0  0  0  0  0  0  0
    5.9560    2.0012    0.0000 H   0  0  0  0  0  0  0  0  0  0  0  0
    6.0302    1.2075    0.0000 H   0  0  0  0  0  0  0  0  0  0  0  0
    6.9057   -1.5970    0.0000 H   0  0  0  0  0  0  0  0  0  0  0  0
    7.2962   -2.2918    0.0000 H   0  0  0  0  0  0  0  0  0  0  0  0
    5.4432    8.5114    0.0000 H   0  0  0  0  0  0  0  0  0  0  0  0
    6.1326   -0.2994    0.0000 H   0  0  0  0  0  0  0  0  0  0  0  0
    2.2172    8.2100    0.0000 H   0  0  0  0  0  0  0  0  0  0  0  0
    4.5062    9.8329    0.0000 H   0  0  0  0  0  0  0  0  0  0  0  0
    2.8932    9.6822    0.0000 H   0  0  0  0  0  0  0  0  0  0  0  0
    1.9423    7.0674    0.0000 H   0  0  0  0  0  0  0  0  0  0  0  0
    1.3827    6.3924    0.0000 H   0  0  0  0  0  0  0  0  0  0  0  0
    2.0577    5.8328    0.0000 H   0  0  0  0  0  0  0  0  0  0  0  0
  1 22  1  0  0  0  0
  1 34  1  0  0  0  0
  2 40  1  0  0  0  0
  2 47  1  0  0  0  0
  3  9  1  0  0  0  0
  3 12  1  0  0  0  0
  3 17  1  0  0  0  0
  4 28  1  0  0  0  0
  4 29  1  0  0  0  0
  4 32  1  0  0  0  0
  5 30  1  0  0  0  0
  5 31  1  0  0  0  0
  5 36  1  0  0  0  0
  6  8  1  0  0  0  0
  6 39  1  0  0  0  0
  6 43  1  0  0  0  0
  7  8  2  0  0  0  0
  7 42  1  0  0  0  0
  9 10  1  0  0  0  0
  9 11  1  0  0  0  0
  9 48  1  0  0  0  0
 10 13  2  0  0  0  0
 10 15  1  0  0  0  0
 11 16  1  0  0  0  0
 11 49  1  0  0  0  0
 11 50  1  0  0  0  0
 12 14  1  0  0  0  0
 12 51  1  0  0  0  0
 12 52  1  0  0  0  0
 13 14  1  0  0  0  0
 13 19  1  0  0  0  0
 14 53  1  0  0  0  0
 14 54  1  0  0  0  0
 15 18  1  0  0  0  0
 15 20  2  0  0  0  0
 16 18  2  0  0  0  0
 16 23  1  0  0  0  0
 17 21  1  0  0  0  0
 17 55  1  0  0  0  0
 17 56  1  0  0  0  0
 18 22  1  0  0  0  0
 19 24  2  0  0  0  0
 19 57  1  0  0  0  0
 20 24  1  0  0  0  0
 20 58  1  0  0  0  0
 21 27  1  0  0  0  0
 21 59  1  0  0  0  0
 21 60  1  0  0  0  0
 22 25  2  0  0  0  0
 23 26  2  0  0  0  0
 23 61  1  0  0  0  0
 24 62  1  0  0  0  0
 25 26  1  0  0  0  0
 25 63  1  0  0  0  0
 26 64  1  0  0  0  0
 27 65  1  0  0  0  0
 27 66  1  0  0  0  0
 27 67  1  0  0  0  0
 28 30  1  0  0  0  0
 28 68  1  0  0  0  0
 28 69  1  0  0  0  0
 29 31  1  0  0  0  0
 29 70  1  0  0  0  0
 29 71  1  0  0  0  0
 30 72  1  0  0  0  0
 30 73  1  0  0  0  0
 31 74  1  0  0  0  0
 31 75  1  0  0  0  0
 32 33  1  0  0  0  0
 32 76  1  0  0  0  0
 32 77  1  0  0  0  0
 33 35  1  0  0  0  0
 33 78  1  0  0  0  0
 33 79  1  0  0  0  0
 34 37  1  0  0  0  0
 34 80  1  0  0  0  0
 34 81  1  0  0  0  0
 35 38  1  0  0  0  0
 35 82  1  0  0  0  0
 35 83  1  0  0  0  0
 36 40  1  0  0  0  0
 36 41  2  0  0  0  0
 37 39  1  0  0  0  0
 37 84  1  0  0  0  0
 37 85  1  0  0  0  0
 38 42  1  0  0  0  0
 38 86  1  0  0  0  0
 38 87  1  0  0  0  0
 39 88  1  0  0  0  0
 39 89  1  0  0  0  0
 40 44  2  0  0  0  0
 41 45  1  0  0  0  0
 41 90  1  0  0  0  0
 42 43  2  0  0  0  0
 43 91  1  0  0  0  0
 44 46  1  0  0  0  0
 44 92  1  0  0  0  0
 45 46  2  0  0  0  0
 45 93  1  0  0  0  0
 46 94  1  0  0  0  0
 47 95  1  0  0  0  0
 47 96  1  0  0  0  0
 47 97  1  0  0  0  0
M  END
> <PUBCHEM_COMPOUND_CID>
53317208

> <PUBCHEM_COMPOUND_CANONICALIZED>
1

> <PUBCHEM_CACTVS_COMPLEXITY>
933

> <PUBCHEM_CACTVS_HBOND_ACCEPTOR>
7

> <PUBCHEM_CACTVS_HBOND_DONOR>
0

> <PUBCHEM_CACTVS_ROTATABLE_BOND>
14

> <PUBCHEM_CACTVS_SUBSKEYS>
AAADcfB/sAAAAAAAAAAAAAAAAAAAAWAAAAA8eMGCAAAAAADx1AAAHgAIAAAADCzhngY+xpMIBACiAzRnRACCDAQxsgAY2AA/fIgOZiLEsZuXOCjmwBHY6AeQ0PMOgAADAAAYEACQAAaAADQgAAAAAAAAAA==

> <PUBCHEM_IUPAC_OPENEYE_NAME>
11-[3-[4-[4-[4-(2-methoxyphenyl)piperazin-1-yl]butyl]triazol-1-yl]propoxy]-6-propyl-5,6,6a,7-tetrahydro-4H-dibenzo[de,g]quinoline

> <PUBCHEM_IUPAC_CAS_NAME>
11-[3-[4-[4-[4-(2-methoxyphenyl)-1-piperazinyl]butyl]-1-triazolyl]propoxy]-6-propyl-5,6,6a,7-tetrahydro-4H-dibenzo[de,g]quinoline

> <PUBCHEM_IUPAC_NAME_MARKUP>
11-[3-[4-[4-[4-(2-methoxyphenyl)piperazin-1-yl]butyl]triazol-1-yl]propoxy]-6-propyl-5,6,6<I>a</I>,7-tetrahydro-4<I>H</I>-dibenzo[de,g]quinoline

> <PUBCHEM_IUPAC_NAME>
11-[3-[4-[4-[4-(2-methoxyphenyl)piperazin-1-yl]butyl]triazol-1-yl]propoxy]-6-propyl-5,6,6a,7-tetrahydro-4H-dibenzo[de,g]quinoline

> <PUBCHEM_IUPAC_SYSTEMATIC_NAME>
11-[3-[4-[4-[4-(2-methoxyphenyl)piperazin-1-yl]butyl]-1,2,3-triazol-1-yl]propoxy]-6-propyl-5,6,6a,7-tetrahydro-4H-dibenzo[de,g]quinoline

> <PUBCHEM_IUPAC_TRADITIONAL_NAME>
11-[3-[4-[4-[4-(2-methoxyphenyl)piperazino]butyl]triazol-1-yl]propoxy]-6-propyl-5,6,6a,7-tetrahydro-4H-dibenzo[de,g]quinoline

> <PUBCHEM_IUPAC_INCHI>
InChI=1S/C39H50N6O2/c1-3-19-43-22-18-30-11-8-14-33-38(30)35(43)28-31-12-9-17-37(39(31)33)47-27-10-21-45-29-32(40-41-45)13-6-7-20-42-23-25-44(26-24-42)34-15-4-5-16-36(34)46-2/h4-5,8-9,11-12,14-17,29,35H,3,6-7,10,13,18-28H2,1-2H3

> <PUBCHEM_IUPAC_INCHIKEY>
LKMTURFCSVFFPV-UHFFFAOYSA-N

> <PUBCHEM_XLOGP3_AA>
6.7

> <PUBCHEM_EXACT_MASS>
634.39952486

> <PUBCHEM_MOLECULAR_FORMULA>
C39H50N6O2

> <PUBCHEM_MOLECULAR_WEIGHT>
634.9

> <PUBCHEM_OPENEYE_CAN_SMILES>
CCCN1CCC2=C3C1CC4=C(C3=CC=C2)C(=CC=C4)OCCCN5C=C(N=N5)CCCCN6CCN(CC6)C7=CC=CC=C7OC

> <PUBCHEM_OPENEYE_ISO_SMILES>
CCCN1CCC2=C3C1CC4=C(C3=CC=C2)C(=CC=C4)OCCCN5C=C(N=N5)CCCCN6CCN(CC6)C7=CC=CC=C7OC

> <PUBCHEM_CACTVS_TPSA>
58.9

> <PUBCHEM_MONOISOTOPIC_WEIGHT>
634.39952486

> <PUBCHEM_TOTAL_CHARGE>
0

> <PUBCHEM_HEAVY_ATOM_COUNT>
47

> <PUBCHEM_ATOM_DEF_STEREO_COUNT>
0

> <PUBCHEM_ATOM_UDEF_STEREO_COUNT>
1

> <PUBCHEM_BOND_DEF_STEREO_COUNT>
0

> <PUBCHEM_BOND_UDEF_STEREO_COUNT>
0

> <PUBCHEM_ISOTOPIC_ATOM_COUNT>
0

> <PUBCHEM_COMPONENT_COUNT>
1

> <PUBCHEM_CACTVS_TAUTO_COUNT>
-1

> <PUBCHEM_COORDINATE_TYPE>
1
5
255

> <PUBCHEM_BONDANNOTATIONS>
10  13  8
10  15  8
13  19  8
15  20  8
16  18  8
16  23  8
18  22  8
19  24  8
20  24  8
22  25  8
23  26  8
25  26  8
36  40  8
36  41  8
40  44  8
41  45  8
42  43  8
44  46  8
45  46  8
6  43  8
6  8  8
7  42  8
7  8  8
9  11  3

$$$$
