127050632
  -OEChem-09292322372D

 58 62  0     1  0  0  0  0  0999 V2000
    2.0000   -3.1971    0.0000 Cl  0  0  0  0  0  0  0  0  0  0  0  0
    5.5443   -1.3924    0.0000 S   0  0  0  0  0  0  0  0  0  0  0  0
   12.4067   -2.2251    0.0000 O   0  0  0  0  0  0  0  0  0  0  0  0
   12.7157    0.3439    0.0000 N   0  0  3  0  0  0  0  0  0  0  0  0
   10.1279   -0.4651    0.0000 N   0  0  0  0  0  0  0  0  0  0  0  0
   13.6667   -0.9651    0.0000 N   0  0  0  0  0  0  0  0  0  0  0  0
    5.5443   -3.0018    0.0000 N   0  0  0  0  0  0  0  0  0  0  0  0
   12.1279   -0.4651    0.0000 C   0  0  0  0  0  0  0  0  0  0  0  0
   11.6279    0.4010    0.0000 C   0  0  0  0  0  0  0  0  0  0  0  0
   11.6279   -1.3311    0.0000 C   0  0  0  0  0  0  0  0  0  0  0  0
   10.6279    0.4010    0.0000 C   0  0  0  0  0  0  0  0  0  0  0  0
   10.6279   -1.3311    0.0000 C   0  0  0  0  0  0  0  0  0  0  0  0
   12.7157   -1.2741    0.0000 C   0  0  0  0  0  0  0  0  0  0  0  0
   13.6667    0.0349    0.0000 C   0  0  0  0  0  0  0  0  0  0  0  0
    9.1279   -0.4651    0.0000 C   0  0  0  0  0  0  0  0  0  0  0  0
   12.4067    1.2950    0.0000 C   0  0  0  0  0  0  0  0  0  0  0  0
    8.6279   -1.3311    0.0000 C   0  0  0  0  0  0  0  0  0  0  0  0
    7.6279   -1.3311    0.0000 C   0  0  0  0  0  0  0  0  0  0  0  0
   11.4285    1.5029    0.0000 C   0  0  0  0  0  0  0  0  0  0  0  0
   13.0758    2.0382    0.0000 C   0  0  0  0  0  0  0  0  0  0  0  0
    7.1279   -2.1971    0.0000 C   0  0  0  0  0  0  0  0  0  0  0  0
   11.1195    2.4540    0.0000 C   0  0  0  0  0  0  0  0  0  0  0  0
   12.7668    2.9892    0.0000 C   0  0  0  0  0  0  0  0  0  0  0  0
   11.7886    3.1971    0.0000 C   0  0  0  0  0  0  0  0  0  0  0  0
    6.1279   -2.1971    0.0000 C   0  0  0  0  0  0  0  0  0  0  0  0
    4.5981   -2.6971    0.0000 C   0  0  0  0  0  0  0  0  0  0  0  0
    4.5981   -1.6971    0.0000 C   0  0  0  0  0  0  0  0  0  0  0  0
    3.7320   -3.1971    0.0000 C   0  0  0  0  0  0  0  0  0  0  0  0
    3.7320   -1.1971    0.0000 C   0  0  0  0  0  0  0  0  0  0  0  0
    2.8660   -2.6971    0.0000 C   0  0  0  0  0  0  0  0  0  0  0  0
    2.8660   -1.6971    0.0000 C   0  0  0  0  0  0  0  0  0  0  0  0
   12.2105    0.6130    0.0000 H   0  0  0  0  0  0  0  0  0  0  0  0
   11.5202    1.0115    0.0000 H   0  0  0  0  0  0  0  0  0  0  0  0
   11.5202   -1.9417    0.0000 H   0  0  0  0  0  0  0  0  0  0  0  0
   12.2105   -1.5432    0.0000 H   0  0  0  0  0  0  0  0  0  0  0  0
   10.7356    1.0115    0.0000 H   0  0  0  0  0  0  0  0  0  0  0  0
   10.0453    0.6130    0.0000 H   0  0  0  0  0  0  0  0  0  0  0  0
   10.0453   -1.5432    0.0000 H   0  0  0  0  0  0  0  0  0  0  0  0
   10.7356   -1.9417    0.0000 H   0  0  0  0  0  0  0  0  0  0  0  0
   14.2834   -0.0299    0.0000 H   0  0  0  0  0  0  0  0  0  0  0  0
   13.7957    0.6414    0.0000 H   0  0  0  0  0  0  0  0  0  0  0  0
   14.1683   -1.3295    0.0000 H   0  0  0  0  0  0  0  0  0  0  0  0
    9.2356    0.1455    0.0000 H   0  0  0  0  0  0  0  0  0  0  0  0
    8.5453   -0.2530    0.0000 H   0  0  0  0  0  0  0  0  0  0  0  0
    8.5202   -1.9417    0.0000 H   0  0  0  0  0  0  0  0  0  0  0  0
    9.2105   -1.5432    0.0000 H   0  0  0  0  0  0  0  0  0  0  0  0
    7.7356   -0.7205    0.0000 H   0  0  0  0  0  0  0  0  0  0  0  0
    7.0453   -1.1190    0.0000 H   0  0  0  0  0  0  0  0  0  0  0  0
   11.0137    1.0422    0.0000 H   0  0  0  0  0  0  0  0  0  0  0  0
   13.6823    1.9092    0.0000 H   0  0  0  0  0  0  0  0  0  0  0  0
    7.0202   -2.8077    0.0000 H   0  0  0  0  0  0  0  0  0  0  0  0
    7.7105   -2.4092    0.0000 H   0  0  0  0  0  0  0  0  0  0  0  0
   10.5131    2.5829    0.0000 H   0  0  0  0  0  0  0  0  0  0  0  0
   13.1816    3.4500    0.0000 H   0  0  0  0  0  0  0  0  0  0  0  0
   11.5970    3.7868    0.0000 H   0  0  0  0  0  0  0  0  0  0  0  0
    3.7320   -3.8171    0.0000 H   0  0  0  0  0  0  0  0  0  0  0  0
    3.7320   -0.5771    0.0000 H   0  0  0  0  0  0  0  0  0  0  0  0
    2.3291   -1.3871    0.0000 H   0  0  0  0  0  0  0  0  0  0  0  0
  1 30  1  0  0  0  0
  2 25  1  0  0  0  0
  2 27  1  0  0  0  0
  3 13  2  0  0  0  0
  4  8  1  0  0  0  0
  4 14  1  0  0  0  0
  4 16  1  0  0  0  0
  5 11  1  0  0  0  0
  5 12  1  0  0  0  0
  5 15  1  0  0  0  0
  6 13  1  0  0  0  0
  6 14  1  0  0  0  0
  6 42  1  0  0  0  0
  7 25  2  0  0  0  0
  7 26  1  0  0  0  0
  8  9  1  0  0  0  0
  8 10  1  0  0  0  0
  8 13  1  0  0  0  0
  9 11  1  0  0  0  0
  9 32  1  0  0  0  0
  9 33  1  0  0  0  0
 10 12  1  0  0  0  0
 10 34  1  0  0  0  0
 10 35  1  0  0  0  0
 11 36  1  0  0  0  0
 11 37  1  0  0  0  0
 12 38  1  0  0  0  0
 12 39  1  0  0  0  0
 14 40  1  0  0  0  0
 14 41  1  0  0  0  0
 15 17  1  0  0  0  0
 15 43  1  0  0  0  0
 15 44  1  0  0  0  0
 16 19  2  0  0  0  0
 16 20  1  0  0  0  0
 17 18  1  0  0  0  0
 17 45  1  0  0  0  0
 17 46  1  0  0  0  0
 18 21  1  0  0  0  0
 18 47  1  0  0  0  0
 18 48  1  0  0  0  0
 19 22  1  0  0  0  0
 19 49  1  0  0  0  0
 20 23  2  0  0  0  0
 20 50  1  0  0  0  0
 21 25  1  0  0  0  0
 21 51  1  0  0  0  0
 21 52  1  0  0  0  0
 22 24  2  0  0  0  0
 22 53  1  0  0  0  0
 23 24  1  0  0  0  0
 23 54  1  0  0  0  0
 24 55  1  0  0  0  0
 26 27  2  0  0  0  0
 26 28  1  0  0  0  0
 27 29  1  0  0  0  0
 28 30  2  0  0  0  0
 28 56  1  0  0  0  0
 29 31  2  0  0  0  0
 29 57  1  0  0  0  0
 30 31  1  0  0  0  0
 31 58  1  0  0  0  0
M  END
> <PUBCHEM_COMPOUND_CID>
127050632

> <PUBCHEM_COMPOUND_CANONICALIZED>
1

> <PUBCHEM_CACTVS_COMPLEXITY>
623

> <PUBCHEM_CACTVS_HBOND_ACCEPTOR>
5

> <PUBCHEM_CACTVS_HBOND_DONOR>
1

> <PUBCHEM_CACTVS_ROTATABLE_BOND>
6

> <PUBCHEM_CACTVS_SUBSKEYS>
AAADceB7oABEAAAAAAAAAAAAAAAAAWLAAAA8YIAAAAAAAFgB9AAAHgYQAAAADIrB1iQxwbPIEAisASVyVACD8KBhDzhImL24ZpiIYLLh07GUIAhogwLoyCcUAAAKAAIAAAIAAQAABAAABAACAAAAAAAAAA==

> <PUBCHEM_IUPAC_OPENEYE_NAME>
8-[4-(5-chloro-1,3-benzothiazol-2-yl)butyl]-1-phenyl-1,3,8-triazaspiro[4.5]decan-4-one

> <PUBCHEM_IUPAC_CAS_NAME>
8-[4-(5-chloro-1,3-benzothiazol-2-yl)butyl]-1-phenyl-1,3,8-triazaspiro[4.5]decan-4-one

> <PUBCHEM_IUPAC_NAME_MARKUP>
8-[4-(5-chloro-1,3-benzothiazol-2-yl)butyl]-1-phenyl-1,3,8-triazaspiro[4.5]decan-4-one

> <PUBCHEM_IUPAC_NAME>
8-[4-(5-chloro-1,3-benzothiazol-2-yl)butyl]-1-phenyl-1,3,8-triazaspiro[4.5]decan-4-one

> <PUBCHEM_IUPAC_SYSTEMATIC_NAME>
8-[4-(5-chloranyl-1,3-benzothiazol-2-yl)butyl]-1-phenyl-1,3,8-triazaspiro[4.5]decan-4-one

> <PUBCHEM_IUPAC_TRADITIONAL_NAME>
8-[4-(5-chloro-1,3-benzothiazol-2-yl)butyl]-1-phenyl-1,3,8-triazaspiro[4.5]decan-4-one

> <PUBCHEM_IUPAC_INCHI>
InChI=1S/C24H27ClN4OS/c25-18-9-10-21-20(16-18)27-22(31-21)8-4-5-13-28-14-11-24(12-15-28)23(30)26-17-29(24)19-6-2-1-3-7-19/h1-3,6-7,9-10,16H,4-5,8,11-15,17H2,(H,26,30)

> <PUBCHEM_IUPAC_INCHIKEY>
JEYKHDMZDCZJFI-UHFFFAOYSA-N

> <PUBCHEM_XLOGP3_AA>
5.4

> <PUBCHEM_EXACT_MASS>
454.1594104

> <PUBCHEM_MOLECULAR_FORMULA>
C24H27ClN4OS

> <PUBCHEM_MOLECULAR_WEIGHT>
455.0

> <PUBCHEM_OPENEYE_CAN_SMILES>
C1CN(CCC12C(=O)NCN2C3=CC=CC=C3)CCCCC4=NC5=C(S4)C=CC(=C5)Cl

> <PUBCHEM_OPENEYE_ISO_SMILES>
C1CN(CCC12C(=O)NCN2C3=CC=CC=C3)CCCCC4=NC5=C(S4)C=CC(=C5)Cl

> <PUBCHEM_CACTVS_TPSA>
76.7

> <PUBCHEM_MONOISOTOPIC_WEIGHT>
454.1594104

> <PUBCHEM_TOTAL_CHARGE>
0

> <PUBCHEM_HEAVY_ATOM_COUNT>
31

> <PUBCHEM_ATOM_DEF_STEREO_COUNT>
0

> <PUBCHEM_ATOM_UDEF_STEREO_COUNT>
0

> <PUBCHEM_BOND_DEF_STEREO_COUNT>
0

> <PUBCHEM_BOND_UDEF_STEREO_COUNT>
0

> <PUBCHEM_ISOTOPIC_ATOM_COUNT>
0

> <PUBCHEM_COMPONENT_COUNT>
1

> <PUBCHEM_CACTVS_TAUTO_COUNT>
-1

> <PUBCHEM_COORDINATE_TYPE>
1
5
255

> <PUBCHEM_BONDANNOTATIONS>
16  19  8
16  20  8
19  22  8
2  25  8
2  27  8
20  23  8
22  24  8
23  24  8
26  27  8
26  28  8
27  29  8
28  30  8
29  31  8
30  31  8
7  25  8
7  26  8

$$$$
