25129809
  -OEChem-09292322232D

 49 53  0     1  0  0  0  0  0999 V2000
    7.1594    4.9959    0.0000 F   0  0  0  0  0  0  0  0  0  0  0  0
    5.8089    1.6528    0.0000 O   0  0  0  0  0  0  0  0  0  0  0  0
    5.9674   -1.6404    0.0000 N   0  0  0  0  0  0  0  0  0  0  0  0
    4.6783   -4.4066    0.0000 N   0  0  0  0  0  0  0  0  0  0  0  0
    7.7368   -0.6947    0.0000 C   0  0  2  0  0  0  0  0  0  0  0  0
    7.1907   -1.5324    0.0000 C   0  0  1  0  0  0  0  0  0  0  0  0
    6.5958    1.0358    0.0000 C   0  0  0  0  0  0  0  0  0  0  0  0
    7.5657    0.7922    0.0000 C   0  0  0  0  0  0  0  0  0  0  0  0
    6.0644    0.1887    0.0000 C   0  0  0  0  0  0  0  0  0  0  0  0
    9.0498   -1.3961    0.0000 C   0  0  0  0  0  0  0  0  0  0  0  0
    8.5037   -2.2339    0.0000 C   0  0  0  0  0  0  0  0  0  0  0  0
    4.9889   -1.8466    0.0000 C   0  0  0  0  0  0  0  0  0  0  0  0
    6.7367    2.0258    0.0000 C   0  0  0  0  0  0  0  0  0  0  0  0
    4.6783   -2.7971    0.0000 C   0  0  0  0  0  0  0  0  0  0  0  0
    5.9498    2.6429    0.0000 C   0  0  0  0  0  0  0  0  0  0  0  0
    7.6645    2.3989    0.0000 C   0  0  0  0  0  0  0  0  0  0  0  0
    3.7320   -3.1019    0.0000 C   0  0  0  0  0  0  0  0  0  0  0  0
    5.2619   -3.6019    0.0000 C   0  0  0  0  0  0  0  0  0  0  0  0
    3.7320   -4.1019    0.0000 C   0  0  0  0  0  0  0  0  0  0  0  0
    6.0906    3.6329    0.0000 C   0  0  0  0  0  0  0  0  0  0  0  0
    7.8054    3.3889    0.0000 C   0  0  0  0  0  0  0  0  0  0  0  0
    7.0185    4.0059    0.0000 C   0  0  0  0  0  0  0  0  0  0  0  0
    2.8660   -2.6019    0.0000 C   0  0  0  0  0  0  0  0  0  0  0  0
    2.8660   -4.6019    0.0000 C   0  0  0  0  0  0  0  0  0  0  0  0
    2.0000   -3.1019    0.0000 C   0  0  0  0  0  0  0  0  0  0  0  0
    2.0000   -4.1019    0.0000 C   0  0  0  0  0  0  0  0  0  0  0  0
    8.2010    0.0174    0.0000 H   0  0  0  0  0  0  0  0  0  0  0  0
    6.7266   -2.2445    0.0000 H   0  0  0  0  0  0  0  0  0  0  0  0
    8.1857    0.7887    0.0000 H   0  0  0  0  0  0  0  0  0  0  0  0
    7.6435    1.4073    0.0000 H   0  0  0  0  0  0  0  0  0  0  0  0
    5.5918    0.5900    0.0000 H   0  0  0  0  0  0  0  0  0  0  0  0
    5.5996   -0.2216    0.0000 H   0  0  0  0  0  0  0  0  0  0  0  0
    9.5788   -1.7195    0.0000 H   0  0  0  0  0  0  0  0  0  0  0  0
    9.3577   -0.8580    0.0000 H   0  0  0  0  0  0  0  0  0  0  0  0
    8.1958   -2.7720    0.0000 H   0  0  0  0  0  0  0  0  0  0  0  0
    9.0327   -2.5572    0.0000 H   0  0  0  0  0  0  0  0  0  0  0  0
    4.9684   -1.2270    0.0000 H   0  0  0  0  0  0  0  0  0  0  0  0
    4.3751   -1.7593    0.0000 H   0  0  0  0  0  0  0  0  0  0  0  0
    5.2336    1.4216    0.0000 H   0  0  0  0  0  0  0  0  0  0  0  0
    5.3745    2.4116    0.0000 H   0  0  0  0  0  0  0  0  0  0  0  0
    8.1524    2.0163    0.0000 H   0  0  0  0  0  0  0  0  0  0  0  0
    5.8819   -3.6019    0.0000 H   0  0  0  0  0  0  0  0  0  0  0  0
    5.6027    4.0155    0.0000 H   0  0  0  0  0  0  0  0  0  0  0  0
    8.3807    3.6201    0.0000 H   0  0  0  0  0  0  0  0  0  0  0  0
    4.8709   -4.9959    0.0000 H   0  0  0  0  0  0  0  0  0  0  0  0
    2.8660   -1.9819    0.0000 H   0  0  0  0  0  0  0  0  0  0  0  0
    2.8660   -5.2219    0.0000 H   0  0  0  0  0  0  0  0  0  0  0  0
    1.4631   -2.7919    0.0000 H   0  0  0  0  0  0  0  0  0  0  0  0
    1.4631   -4.4119    0.0000 H   0  0  0  0  0  0  0  0  0  0  0  0
  1 22  1  0  0  0  0
  2  7  1  0  0  0  0
  2 39  1  0  0  0  0
  3  5  1  0  0  0  0
  3  6  1  0  0  0  0
  3 12  1  0  0  0  0
  4 18  1  0  0  0  0
  4 19  1  0  0  0  0
  4 45  1  0  0  0  0
  5  8  1  0  0  0  0
  5 10  1  0  0  0  0
  5 27  1  1  0  0  0
  6  9  1  0  0  0  0
  6 11  1  0  0  0  0
  6 28  1  6  0  0  0
  7  8  1  0  0  0  0
  7  9  1  0  0  0  0
  7 13  1  0  0  0  0
  8 29  1  0  0  0  0
  8 30  1  0  0  0  0
  9 31  1  0  0  0  0
  9 32  1  0  0  0  0
 10 11  1  0  0  0  0
 10 33  1  0  0  0  0
 10 34  1  0  0  0  0
 11 35  1  0  0  0  0
 11 36  1  0  0  0  0
 12 14  1  0  0  0  0
 12 37  1  0  0  0  0
 12 38  1  0  0  0  0
 13 15  2  0  0  0  0
 13 16  1  0  0  0  0
 14 17  1  0  0  0  0
 14 18  2  0  0  0  0
 15 20  1  0  0  0  0
 15 40  1  0  0  0  0
 16 21  2  0  0  0  0
 16 41  1  0  0  0  0
 17 19  1  0  0  0  0
 17 23  2  0  0  0  0
 18 42  1  0  0  0  0
 19 24  2  0  0  0  0
 20 22  2  0  0  0  0
 20 43  1  0  0  0  0
 21 22  1  0  0  0  0
 21 44  1  0  0  0  0
 23 25  1  0  0  0  0
 23 46  1  0  0  0  0
 24 26  1  0  0  0  0
 24 47  1  0  0  0  0
 25 26  2  0  0  0  0
 25 48  1  0  0  0  0
 26 49  1  0  0  0  0
M  END
> <PUBCHEM_COMPOUND_CID>
25129809

> <PUBCHEM_COMPOUND_CANONICALIZED>
1

> <PUBCHEM_CACTVS_COMPLEXITY>
492

> <PUBCHEM_CACTVS_HBOND_ACCEPTOR>
3

> <PUBCHEM_CACTVS_HBOND_DONOR>
2

> <PUBCHEM_CACTVS_ROTATABLE_BOND>
3

> <PUBCHEM_CACTVS_SUBSKEYS>
AAADceB7IQAAAAAAAAAAAAAAAAAAAWLAAAA8YIAABgAAAFgB9AAAHwAQCAAADGzBngw8wPPJkgCgAzRnRACCgCAxAiAI2aA4bJgIJuLA0ZGEcAhm0AHI2AeQwOAOgAAAAAACAAAAAAAAAAQAAAAAAAAAAA==

> <PUBCHEM_IUPAC_OPENEYE_NAME>
(1S,5R)-3-(4-fluorophenyl)-8-(1H-indol-3-ylmethyl)-8-azabicyclo[3.2.1]octan-3-ol

> <PUBCHEM_IUPAC_CAS_NAME>
(1S,5R)-3-(4-fluorophenyl)-8-(1H-indol-3-ylmethyl)-8-azabicyclo[3.2.1]octan-3-ol

> <PUBCHEM_IUPAC_NAME_MARKUP>
(1<I>S</I>,5<I>R</I>)-3-(4-fluorophenyl)-8-(1<I>H</I>-indol-3-ylmethyl)-8-azabicyclo[3.2.1]octan-3-ol

> <PUBCHEM_IUPAC_NAME>
(1S,5R)-3-(4-fluorophenyl)-8-(1H-indol-3-ylmethyl)-8-azabicyclo[3.2.1]octan-3-ol

> <PUBCHEM_IUPAC_SYSTEMATIC_NAME>
(1S,5R)-3-(4-fluorophenyl)-8-(1H-indol-3-ylmethyl)-8-azabicyclo[3.2.1]octan-3-ol

> <PUBCHEM_IUPAC_TRADITIONAL_NAME>
(1S,5R)-3-(4-fluorophenyl)-8-(1H-indol-3-ylmethyl)-8-azabicyclo[3.2.1]octan-3-ol

> <PUBCHEM_IUPAC_INCHI>
InChI=1S/C22H23FN2O/c23-17-7-5-16(6-8-17)22(26)11-18-9-10-19(12-22)25(18)14-15-13-24-21-4-2-1-3-20(15)21/h1-8,13,18-19,24,26H,9-12,14H2/t18-,19+,22?

> <PUBCHEM_IUPAC_INCHIKEY>
LEBXHMQTGORPIS-QIDMFYOTSA-N

> <PUBCHEM_XLOGP3_AA>
3.8

> <PUBCHEM_EXACT_MASS>
350.17944152

> <PUBCHEM_MOLECULAR_FORMULA>
C22H23FN2O

> <PUBCHEM_MOLECULAR_WEIGHT>
350.4

> <PUBCHEM_OPENEYE_CAN_SMILES>
C1CC2CC(CC1N2CC3=CNC4=CC=CC=C43)(C5=CC=C(C=C5)F)O

> <PUBCHEM_OPENEYE_ISO_SMILES>
C1C[C@H]2CC(C[C@@H]1N2CC3=CNC4=CC=CC=C43)(C5=CC=C(C=C5)F)O

> <PUBCHEM_CACTVS_TPSA>
39.3

> <PUBCHEM_MONOISOTOPIC_WEIGHT>
350.17944152

> <PUBCHEM_TOTAL_CHARGE>
0

> <PUBCHEM_HEAVY_ATOM_COUNT>
26

> <PUBCHEM_ATOM_DEF_STEREO_COUNT>
2

> <PUBCHEM_ATOM_UDEF_STEREO_COUNT>
0

> <PUBCHEM_BOND_DEF_STEREO_COUNT>
0

> <PUBCHEM_BOND_UDEF_STEREO_COUNT>
0

> <PUBCHEM_ISOTOPIC_ATOM_COUNT>
0

> <PUBCHEM_COMPONENT_COUNT>
1

> <PUBCHEM_CACTVS_TAUTO_COUNT>
-1

> <PUBCHEM_COORDINATE_TYPE>
1
5
255

> <PUBCHEM_BONDANNOTATIONS>
13  15  8
13  16  8
14  17  8
14  18  8
15  20  8
16  21  8
17  19  8
17  23  8
19  24  8
20  22  8
21  22  8
23  25  8
24  26  8
25  26  8
4  18  8
4  19  8
5  27  5
6  28  6

$$$$
