44454217
  -OEChem-09292322492D

 66 71  0     1  0  0  0  0  0999 V2000
    6.5723    1.3069    0.0000 S   0  0  0  0  0  0  0  0  0  0  0  0
    2.3660   -7.7106    0.0000 F   0  0  0  0  0  0  0  0  0  0  0  0
    2.0000   -6.3445    0.0000 F   0  0  0  0  0  0  0  0  0  0  0  0
    3.7320   -7.3445    0.0000 F   0  0  0  0  0  0  0  0  0  0  0  0
    4.3548   -5.8755    0.0000 O   0  0  0  0  0  0  0  0  0  0  0  0
    6.0723   -1.2912    0.0000 N   0  0  3  0  0  0  0  0  0  0  0  0
    2.9609   -5.0707    0.0000 N   0  0  0  0  0  0  0  0  0  0  0  0
    5.0777    2.2774    0.0000 N   0  0  0  0  0  0  0  0  0  0  0  0
    6.4790    3.0865    0.0000 N   0  0  0  0  0  0  0  0  0  0  0  0
    5.7358    3.7556    0.0000 N   0  0  0  0  0  0  0  0  0  0  0  0
    2.8134    6.0977    0.0000 N   0  0  0  0  0  0  0  0  0  0  0  0
    6.6258   -2.1008    0.0000 C   0  0  0  0  0  0  0  0  0  0  0  0
    6.3405   -3.0392    0.0000 C   0  0  0  0  0  0  0  0  0  0  0  0
    5.4300   -3.4036    0.0000 C   0  0  0  0  0  0  0  0  0  0  0  0
    5.0943   -1.2166    0.0000 C   0  0  0  0  0  0  0  0  0  0  0  0
    4.4243   -1.9328    0.0000 C   0  0  0  0  0  0  0  0  0  0  0  0
    4.5640   -2.9036    0.0000 C   0  0  0  0  0  0  0  0  0  0  0  0
    6.5723   -0.4252    0.0000 C   0  0  0  0  0  0  0  0  0  0  0  0
    5.4300   -4.4036    0.0000 C   0  0  0  0  0  0  0  0  0  0  0  0
    3.6979   -3.4036    0.0000 C   0  0  0  0  0  0  0  0  0  0  0  0
    4.5640   -4.9036    0.0000 C   0  0  0  0  0  0  0  0  0  0  0  0
    3.6979   -4.4036    0.0000 C   0  0  0  0  0  0  0  0  0  0  0  0
    6.0723    0.4409    0.0000 C   0  0  0  0  0  0  0  0  0  0  0  0
    6.2960   -4.9036    0.0000 C   0  0  0  0  0  0  0  0  0  0  0  0
    3.3660   -5.9785    0.0000 C   0  0  0  0  0  0  0  0  0  0  0  0
    6.0723    2.1729    0.0000 C   0  0  0  0  0  0  0  0  0  0  0  0
    2.8660   -6.8445    0.0000 C   0  0  0  0  0  0  0  0  0  0  0  0
    4.8698    3.2556    0.0000 C   0  0  0  0  0  0  0  0  0  0  0  0
    3.9563    3.6623    0.0000 C   0  0  0  0  0  0  0  0  0  0  0  0
    3.8518    4.6569    0.0000 C   0  0  0  0  0  0  0  0  0  0  0  0
    4.4086    1.5343    0.0000 C   0  0  0  0  0  0  0  0  0  0  0  0
    2.9382    5.0636    0.0000 C   0  0  0  0  0  0  0  0  0  0  0  0
    3.1473    3.0746    0.0000 C   0  0  0  0  0  0  0  0  0  0  0  0
    4.7038    5.2560    0.0000 C   0  0  0  0  0  0  0  0  0  0  0  0
    2.1292    4.4758    0.0000 C   0  0  0  0  0  0  0  0  0  0  0  0
    2.2337    3.4813    0.0000 C   0  0  0  0  0  0  0  0  0  0  0  0
    4.6029    6.2928    0.0000 C   0  0  0  0  0  0  0  0  0  0  0  0
    3.6513    6.7164    0.0000 C   0  0  0  0  0  0  0  0  0  0  0  0
    3.5430    7.7106    0.0000 C   0  0  0  0  0  0  0  0  0  0  0  0
    7.1638   -2.4091    0.0000 H   0  0  0  0  0  0  0  0  0  0  0  0
    7.0465   -1.6454    0.0000 H   0  0  0  0  0  0  0  0  0  0  0  0
    6.4365   -3.6517    0.0000 H   0  0  0  0  0  0  0  0  0  0  0  0
    6.9590   -3.0825    0.0000 H   0  0  0  0  0  0  0  0  0  0  0  0
    5.2784   -0.6245    0.0000 H   0  0  0  0  0  0  0  0  0  0  0  0
    4.5584   -0.9049    0.0000 H   0  0  0  0  0  0  0  0  0  0  0  0
    4.0776   -1.4189    0.0000 H   0  0  0  0  0  0  0  0  0  0  0  0
    3.8458   -2.1560    0.0000 H   0  0  0  0  0  0  0  0  0  0  0  0
    7.0472   -0.8237    0.0000 H   0  0  0  0  0  0  0  0  0  0  0  0
    7.0472   -0.0266    0.0000 H   0  0  0  0  0  0  0  0  0  0  0  0
    3.1610   -3.0936    0.0000 H   0  0  0  0  0  0  0  0  0  0  0  0
    5.5973    0.8394    0.0000 H   0  0  0  0  0  0  0  0  0  0  0  0
    5.5973    0.0423    0.0000 H   0  0  0  0  0  0  0  0  0  0  0  0
    5.9860   -5.4406    0.0000 H   0  0  0  0  0  0  0  0  0  0  0  0
    6.8329   -5.2136    0.0000 H   0  0  0  0  0  0  0  0  0  0  0  0
    6.6060   -4.3667    0.0000 H   0  0  0  0  0  0  0  0  0  0  0  0
    3.9479    1.9492    0.0000 H   0  0  0  0  0  0  0  0  0  0  0  0
    3.9938    1.0736    0.0000 H   0  0  0  0  0  0  0  0  0  0  0  0
    4.8694    1.1194    0.0000 H   0  0  0  0  0  0  0  0  0  0  0  0
    3.2121    2.4580    0.0000 H   0  0  0  0  0  0  0  0  0  0  0  0
    5.2672    4.9973    0.0000 H   0  0  0  0  0  0  0  0  0  0  0  0
    1.5628    4.7280    0.0000 H   0  0  0  0  0  0  0  0  0  0  0  0
    1.7321    3.1169    0.0000 H   0  0  0  0  0  0  0  0  0  0  0  0
    5.1059    6.6553    0.0000 H   0  0  0  0  0  0  0  0  0  0  0  0
    4.1593    7.7778    0.0000 H   0  0  0  0  0  0  0  0  0  0  0  0
    3.4758    8.3269    0.0000 H   0  0  0  0  0  0  0  0  0  0  0  0
    2.9266    7.6434    0.0000 H   0  0  0  0  0  0  0  0  0  0  0  0
  1 23  1  0  0  0  0
  1 26  1  0  0  0  0
  2 27  1  0  0  0  0
  3 27  1  0  0  0  0
  4 27  1  0  0  0  0
  5 21  1  0  0  0  0
  5 25  1  0  0  0  0
  6 12  1  0  0  0  0
  6 15  1  0  0  0  0
  6 18  1  0  0  0  0
  7 22  1  0  0  0  0
  7 25  2  0  0  0  0
  8 26  1  0  0  0  0
  8 28  1  0  0  0  0
  8 31  1  0  0  0  0
  9 10  1  0  0  0  0
  9 26  2  0  0  0  0
 10 28  2  0  0  0  0
 11 32  1  0  0  0  0
 11 38  2  0  0  0  0
 12 13  1  0  0  0  0
 12 40  1  0  0  0  0
 12 41  1  0  0  0  0
 13 14  1  0  0  0  0
 13 42  1  0  0  0  0
 13 43  1  0  0  0  0
 14 17  1  0  0  0  0
 14 19  2  0  0  0  0
 15 16  1  0  0  0  0
 15 44  1  0  0  0  0
 15 45  1  0  0  0  0
 16 17  1  0  0  0  0
 16 46  1  0  0  0  0
 16 47  1  0  0  0  0
 17 20  2  0  0  0  0
 18 23  1  0  0  0  0
 18 48  1  0  0  0  0
 18 49  1  0  0  0  0
 19 21  1  0  0  0  0
 19 24  1  0  0  0  0
 20 22  1  0  0  0  0
 20 50  1  0  0  0  0
 21 22  2  0  0  0  0
 23 51  1  0  0  0  0
 23 52  1  0  0  0  0
 24 53  1  0  0  0  0
 24 54  1  0  0  0  0
 24 55  1  0  0  0  0
 25 27  1  0  0  0  0
 28 29  1  0  0  0  0
 29 30  2  0  0  0  0
 29 33  1  0  0  0  0
 30 32  1  0  0  0  0
 30 34  1  0  0  0  0
 31 56  1  0  0  0  0
 31 57  1  0  0  0  0
 31 58  1  0  0  0  0
 32 35  2  0  0  0  0
 33 36  2  0  0  0  0
 33 59  1  0  0  0  0
 34 37  2  0  0  0  0
 34 60  1  0  0  0  0
 35 36  1  0  0  0  0
 35 61  1  0  0  0  0
 36 62  1  0  0  0  0
 37 38  1  0  0  0  0
 37 63  1  0  0  0  0
 38 39  1  0  0  0  0
 39 64  1  0  0  0  0
 39 65  1  0  0  0  0
 39 66  1  0  0  0  0
M  END
> <PUBCHEM_COMPOUND_CID>
44454217

> <PUBCHEM_COMPOUND_CANONICALIZED>
1

> <PUBCHEM_CACTVS_COMPLEXITY>
840

> <PUBCHEM_CACTVS_HBOND_ACCEPTOR>
10

> <PUBCHEM_CACTVS_HBOND_DONOR>
0

> <PUBCHEM_CACTVS_ROTATABLE_BOND>
5

> <PUBCHEM_CACTVS_SUBSKEYS>
AAADceB7oYBAAAAAAAAAAAAAAAAAAWLAAAA8YIAABYAAAFix/gAAHwQIAAAADAzF3xSz1vcMFEiqA6dydASS2CtvYrAd2CG9bNiOLvLEvbuPOSjkzBPY6YeY2fKOqAADQAAaEABQAAaAADQgAAAAAAAAAA==

> <PUBCHEM_IUPAC_OPENEYE_NAME>
10-methyl-7-[2-[[4-methyl-5-(2-methyl-5-quinolyl)-1,2,4-triazol-3-yl]sulfanyl]ethyl]-2-(trifluoromethyl)-5,6,8,9-tetrahydrooxazolo[4,5-h][3]benzazepine

> <PUBCHEM_IUPAC_CAS_NAME>
10-methyl-7-[2-[[4-methyl-5-(2-methyl-5-quinolinyl)-1,2,4-triazol-3-yl]thio]ethyl]-2-(trifluoromethyl)-5,6,8,9-tetrahydrooxazolo[4,5-h][3]benzazepine

> <PUBCHEM_IUPAC_NAME_MARKUP>
10-methyl-7-[2-[[4-methyl-5-(2-methylquinolin-5-yl)-1,2,4-triazol-3-yl]sulfanyl]ethyl]-2-(trifluoromethyl)-5,6,8,9-tetrahydro-[1,3]oxazolo[4,5-h][3]benzazepine

> <PUBCHEM_IUPAC_NAME>
10-methyl-7-[2-[[4-methyl-5-(2-methylquinolin-5-yl)-1,2,4-triazol-3-yl]sulfanyl]ethyl]-2-(trifluoromethyl)-5,6,8,9-tetrahydro-[1,3]oxazolo[4,5-h][3]benzazepine

> <PUBCHEM_IUPAC_SYSTEMATIC_NAME>
10-methyl-7-[2-[[4-methyl-5-(2-methylquinolin-5-yl)-1,2,4-triazol-3-yl]sulfanyl]ethyl]-2-(trifluoromethyl)-5,6,8,9-tetrahydro-[1,3]oxazolo[4,5-h][3]benzazepine

> <PUBCHEM_IUPAC_TRADITIONAL_NAME>
10-methyl-7-[2-[[4-methyl-5-(2-methyl-5-quinolyl)-1,2,4-triazol-3-yl]thio]ethyl]-2-(trifluoromethyl)-5,6,8,9-tetrahydrooxazolo[4,5-h][3]benzazepine

> <PUBCHEM_IUPAC_INCHI>
InChI=1S/C28H27F3N6OS/c1-16-7-8-20-21(5-4-6-22(20)32-16)25-34-35-27(36(25)3)39-14-13-37-11-9-18-15-23-24(17(2)19(18)10-12-37)38-26(33-23)28(29,30)31/h4-8,15H,9-14H2,1-3H3

> <PUBCHEM_IUPAC_INCHIKEY>
WAWZDKTUQQRILI-UHFFFAOYSA-N

> <PUBCHEM_XLOGP3_AA>
5.8

> <PUBCHEM_EXACT_MASS>
552.19191517

> <PUBCHEM_MOLECULAR_FORMULA>
C28H27F3N6OS

> <PUBCHEM_MOLECULAR_WEIGHT>
552.6

> <PUBCHEM_OPENEYE_CAN_SMILES>
CC1=NC2=CC=CC(=C2C=C1)C3=NN=C(N3C)SCCN4CCC5=CC6=C(C(=C5CC4)C)OC(=N6)C(F)(F)F

> <PUBCHEM_OPENEYE_ISO_SMILES>
CC1=NC2=CC=CC(=C2C=C1)C3=NN=C(N3C)SCCN4CCC5=CC6=C(C(=C5CC4)C)OC(=N6)C(F)(F)F

> <PUBCHEM_CACTVS_TPSA>
98.2

> <PUBCHEM_MONOISOTOPIC_WEIGHT>
552.19191517

> <PUBCHEM_TOTAL_CHARGE>
0

> <PUBCHEM_HEAVY_ATOM_COUNT>
39

> <PUBCHEM_ATOM_DEF_STEREO_COUNT>
0

> <PUBCHEM_ATOM_UDEF_STEREO_COUNT>
0

> <PUBCHEM_BOND_DEF_STEREO_COUNT>
0

> <PUBCHEM_BOND_UDEF_STEREO_COUNT>
0

> <PUBCHEM_ISOTOPIC_ATOM_COUNT>
0

> <PUBCHEM_COMPONENT_COUNT>
1

> <PUBCHEM_CACTVS_TAUTO_COUNT>
-1

> <PUBCHEM_COORDINATE_TYPE>
1
5
255

> <PUBCHEM_BONDANNOTATIONS>
10  28  8
11  32  8
11  38  8
14  17  8
14  19  8
17  20  8
19  21  8
20  22  8
21  22  8
29  30  8
29  33  8
30  32  8
30  34  8
32  35  8
33  36  8
34  37  8
35  36  8
37  38  8
5  21  8
5  25  8
7  22  8
7  25  8
8  26  8
8  28  8
9  10  8
9  26  8

$$$$
