9978683
  -OEChem-09292322312D

 51 55  0     0  0  0  0  0  0999 V2000
    8.3651    0.1219    0.0000 S   0  0  0  0  0  0  0  0  0  0  0  0
    7.3651    0.1219    0.0000 O   0  0  0  0  0  0  0  0  0  0  0  0
    9.3651    0.1219    0.0000 O   0  0  0  0  0  0  0  0  0  0  0  0
    4.9355   -1.7936    0.0000 N   0  0  0  0  0  0  0  0  0  0  0  0
    2.9785   -1.3812    0.0000 N   0  0  0  0  0  0  0  0  0  0  0  0
    9.1698   -1.4617    0.0000 N   0  0  0  0  0  0  0  0  0  0  0  0
    8.8651   -2.4079    0.0000 N   0  0  0  0  0  0  0  0  0  0  0  0
    4.2677   -2.5379    0.0000 C   0  0  0  0  0  0  0  0  0  0  0  0
    4.6249   -0.8431    0.0000 C   0  0  0  0  0  0  0  0  0  0  0  0
    3.2892   -2.3317    0.0000 C   0  0  0  0  0  0  0  0  0  0  0  0
    3.6464   -0.6368    0.0000 C   0  0  0  0  0  0  0  0  0  0  0  0
    5.9140   -1.9998    0.0000 C   0  0  0  0  0  0  0  0  0  0  0  0
    7.5604   -1.4617    0.0000 C   0  0  0  0  0  0  0  0  0  0  0  0
    6.5819   -1.2555    0.0000 C   0  0  0  0  0  0  0  0  0  0  0  0
    8.3651   -0.8781    0.0000 C   0  0  0  0  0  0  0  0  0  0  0  0
    2.0000   -1.1749    0.0000 C   0  0  0  0  0  0  0  0  0  0  0  0
    6.2247   -2.9503    0.0000 C   0  0  0  0  0  0  0  0  0  0  0  0
    7.8710   -2.4122    0.0000 C   0  0  0  0  0  0  0  0  0  0  0  0
    7.2032   -3.1566    0.0000 C   0  0  0  0  0  0  0  0  0  0  0  0
    8.3651    1.1219    0.0000 C   0  0  0  0  0  0  0  0  0  0  0  0
    9.2311    1.6219    0.0000 C   0  0  0  0  0  0  0  0  0  0  0  0
    9.2311    2.6219    0.0000 C   0  0  0  0  0  0  0  0  0  0  0  0
    7.4991    1.6219    0.0000 C   0  0  0  0  0  0  0  0  0  0  0  0
   10.1251    1.0872    0.0000 C   0  0  0  0  0  0  0  0  0  0  0  0
    8.3651    3.1219    0.0000 C   0  0  0  0  0  0  0  0  0  0  0  0
    7.4991    2.6219    0.0000 C   0  0  0  0  0  0  0  0  0  0  0  0
   10.1251    3.1566    0.0000 C   0  0  0  0  0  0  0  0  0  0  0  0
   11.0311    1.6011    0.0000 C   0  0  0  0  0  0  0  0  0  0  0  0
   11.0311    2.6427    0.0000 C   0  0  0  0  0  0  0  0  0  0  0  0
    4.0364   -3.1131    0.0000 H   0  0  0  0  0  0  0  0  0  0  0  0
    4.7940   -2.8655    0.0000 H   0  0  0  0  0  0  0  0  0  0  0  0
    5.2387   -0.7557    0.0000 H   0  0  0  0  0  0  0  0  0  0  0  0
    4.6454   -0.2234    0.0000 H   0  0  0  0  0  0  0  0  0  0  0  0
    2.6754   -2.4190    0.0000 H   0  0  0  0  0  0  0  0  0  0  0  0
    3.2686   -2.9513    0.0000 H   0  0  0  0  0  0  0  0  0  0  0  0
    3.8776   -0.0616    0.0000 H   0  0  0  0  0  0  0  0  0  0  0  0
    3.1200   -0.3092    0.0000 H   0  0  0  0  0  0  0  0  0  0  0  0
    6.3893   -0.6662    0.0000 H   0  0  0  0  0  0  0  0  0  0  0  0
    2.1279   -0.5683    0.0000 H   0  0  0  0  0  0  0  0  0  0  0  0
    1.3933   -1.0471    0.0000 H   0  0  0  0  0  0  0  0  0  0  0  0
    1.8721   -1.7816    0.0000 H   0  0  0  0  0  0  0  0  0  0  0  0
    5.8106   -3.4118    0.0000 H   0  0  0  0  0  0  0  0  0  0  0  0
    7.3958   -3.7459    0.0000 H   0  0  0  0  0  0  0  0  0  0  0  0
    9.7592   -1.2691    0.0000 H   0  0  0  0  0  0  0  0  0  0  0  0
    6.9621    1.3119    0.0000 H   0  0  0  0  0  0  0  0  0  0  0  0
   10.1179    0.4673    0.0000 H   0  0  0  0  0  0  0  0  0  0  0  0
    8.3651    3.7419    0.0000 H   0  0  0  0  0  0  0  0  0  0  0  0
    6.9621    2.9319    0.0000 H   0  0  0  0  0  0  0  0  0  0  0  0
   10.1179    3.7765    0.0000 H   0  0  0  0  0  0  0  0  0  0  0  0
   11.5669    1.2890    0.0000 H   0  0  0  0  0  0  0  0  0  0  0  0
   11.5669    2.9548    0.0000 H   0  0  0  0  0  0  0  0  0  0  0  0
  1  2  2  0  0  0  0
  1  3  2  0  0  0  0
  1 15  1  0  0  0  0
  1 20  1  0  0  0  0
  4  8  1  0  0  0  0
  4  9  1  0  0  0  0
  4 12  1  0  0  0  0
  5 10  1  0  0  0  0
  5 11  1  0  0  0  0
  5 16  1  0  0  0  0
  6  7  1  0  0  0  0
  6 15  1  0  0  0  0
  6 44  1  0  0  0  0
  7 18  2  0  0  0  0
  8 10  1  0  0  0  0
  8 30  1  0  0  0  0
  8 31  1  0  0  0  0
  9 11  1  0  0  0  0
  9 32  1  0  0  0  0
  9 33  1  0  0  0  0
 10 34  1  0  0  0  0
 10 35  1  0  0  0  0
 11 36  1  0  0  0  0
 11 37  1  0  0  0  0
 12 14  2  0  0  0  0
 12 17  1  0  0  0  0
 13 14  1  0  0  0  0
 13 15  2  0  0  0  0
 13 18  1  0  0  0  0
 14 38  1  0  0  0  0
 16 39  1  0  0  0  0
 16 40  1  0  0  0  0
 16 41  1  0  0  0  0
 17 19  2  0  0  0  0
 17 42  1  0  0  0  0
 18 19  1  0  0  0  0
 19 43  1  0  0  0  0
 20 21  1  0  0  0  0
 20 23  2  0  0  0  0
 21 22  1  0  0  0  0
 21 24  2  0  0  0  0
 22 25  1  0  0  0  0
 22 27  2  0  0  0  0
 23 26  1  0  0  0  0
 23 45  1  0  0  0  0
 24 28  1  0  0  0  0
 24 46  1  0  0  0  0
 25 26  2  0  0  0  0
 25 47  1  0  0  0  0
 26 48  1  0  0  0  0
 27 29  1  0  0  0  0
 27 49  1  0  0  0  0
 28 29  2  0  0  0  0
 28 50  1  0  0  0  0
 29 51  1  0  0  0  0
M  END
> <PUBCHEM_COMPOUND_CID>
9978683

> <PUBCHEM_COMPOUND_CANONICALIZED>
1

> <PUBCHEM_CACTVS_COMPLEXITY>
673

> <PUBCHEM_CACTVS_HBOND_ACCEPTOR>
5

> <PUBCHEM_CACTVS_HBOND_DONOR>
1

> <PUBCHEM_CACTVS_ROTATABLE_BOND>
3

> <PUBCHEM_CACTVS_SUBSKEYS>
AAADceB7sABAAAAAAAAAAAAAAAAAAWAAAAA8YMEAAAAAAFjB9AAAHAQYAAAADAjBXgQywfNjAAqiAyRiQHDaBgBhChAYuTg4ZJgIYKLg0dGUpAxgiADoyAcQgIAOgACAwAAWAAAAAQGAACwAAAAAAAAAAA==

> <PUBCHEM_IUPAC_OPENEYE_NAME>
5-(4-methylpiperazin-1-yl)-3-(1-naphthylsulfonyl)-2H-indazole

> <PUBCHEM_IUPAC_CAS_NAME>
5-(4-methyl-1-piperazinyl)-3-(1-naphthalenylsulfonyl)-2H-indazole

> <PUBCHEM_IUPAC_NAME_MARKUP>
5-(4-methylpiperazin-1-yl)-3-naphthalen-1-ylsulfonyl-2<I>H</I>-indazole

> <PUBCHEM_IUPAC_NAME>
5-(4-methylpiperazin-1-yl)-3-naphthalen-1-ylsulfonyl-2H-indazole

> <PUBCHEM_IUPAC_SYSTEMATIC_NAME>
5-(4-methylpiperazin-1-yl)-3-naphthalen-1-ylsulfonyl-2H-indazole

> <PUBCHEM_IUPAC_TRADITIONAL_NAME>
5-(4-methylpiperazino)-3-(1-naphthylsulfonyl)-2H-indazole

> <PUBCHEM_IUPAC_INCHI>
InChI=1S/C22H22N4O2S/c1-25-11-13-26(14-12-25)17-9-10-20-19(15-17)22(24-23-20)29(27,28)21-8-4-6-16-5-2-3-7-18(16)21/h2-10,15H,11-14H2,1H3,(H,23,24)

> <PUBCHEM_IUPAC_INCHIKEY>
OQGLQARWXJXSKS-UHFFFAOYSA-N

> <PUBCHEM_XLOGP3_AA>
3.9

> <PUBCHEM_EXACT_MASS>
406.14634713

> <PUBCHEM_MOLECULAR_FORMULA>
C22H22N4O2S

> <PUBCHEM_MOLECULAR_WEIGHT>
406.5

> <PUBCHEM_OPENEYE_CAN_SMILES>
CN1CCN(CC1)C2=CC3=C(NN=C3C=C2)S(=O)(=O)C4=CC=CC5=CC=CC=C54

> <PUBCHEM_OPENEYE_ISO_SMILES>
CN1CCN(CC1)C2=CC3=C(NN=C3C=C2)S(=O)(=O)C4=CC=CC5=CC=CC=C54

> <PUBCHEM_CACTVS_TPSA>
77.7

> <PUBCHEM_MONOISOTOPIC_WEIGHT>
406.14634713

> <PUBCHEM_TOTAL_CHARGE>
0

> <PUBCHEM_HEAVY_ATOM_COUNT>
29

> <PUBCHEM_ATOM_DEF_STEREO_COUNT>
0

> <PUBCHEM_ATOM_UDEF_STEREO_COUNT>
0

> <PUBCHEM_BOND_DEF_STEREO_COUNT>
0

> <PUBCHEM_BOND_UDEF_STEREO_COUNT>
0

> <PUBCHEM_ISOTOPIC_ATOM_COUNT>
0

> <PUBCHEM_COMPONENT_COUNT>
1

> <PUBCHEM_CACTVS_TAUTO_COUNT>
-1

> <PUBCHEM_COORDINATE_TYPE>
1
5
255

> <PUBCHEM_BONDANNOTATIONS>
12  14  8
12  17  8
13  14  8
13  15  8
13  18  8
17  19  8
18  19  8
20  21  8
20  23  8
21  22  8
21  24  8
22  25  8
22  27  8
23  26  8
24  28  8
25  26  8
27  29  8
28  29  8
6  15  8
6  7  8
7  18  8

$$$$
