52947127
  -OEChem-09292322042D

 51 52  0     1  0  0  0  0  0999 V2000
    6.3301   -3.5109    0.0000 Cl  0  0  0  0  0  0  0  0  0  0  0  0
    3.7320   -0.0109    0.0000 O   0  0  0  0  0  0  0  0  0  0  0  0
    2.8660   -1.5109    0.0000 O   0  0  0  0  0  0  0  0  0  0  0  0
    2.8660   -3.5109    0.0000 O   0  0  0  0  0  0  0  0  0  0  0  0
    6.4347    2.4836    0.0000 N   0  0  3  0  0  0  0  0  0  0  0  0
    5.4641   -0.0109    0.0000 N   0  0  0  0  0  0  0  0  0  0  0  0
    6.3301    1.4891    0.0000 C   0  0  1  0  0  0  0  0  0  0  0  0
    7.2437    1.0824    0.0000 C   0  0  0  0  0  0  0  0  0  0  0  0
    7.9128    1.8255    0.0000 C   0  0  0  0  0  0  0  0  0  0  0  0
    7.4128    2.6915    0.0000 C   0  0  0  0  0  0  0  0  0  0  0  0
    5.4641    0.9891    0.0000 C   0  0  0  0  0  0  0  0  0  0  0  0
    5.6915    3.1528    0.0000 C   0  0  0  0  0  0  0  0  0  0  0  0
    5.8994    4.1309    0.0000 C   0  0  0  0  0  0  0  0  0  0  0  0
    4.5981   -0.5109    0.0000 C   0  0  0  0  0  0  0  0  0  0  0  0
    4.5981   -1.5109    0.0000 C   0  0  0  0  0  0  0  0  0  0  0  0
    5.4641   -2.0109    0.0000 C   0  0  0  0  0  0  0  0  0  0  0  0
    6.3301   -1.5109    0.0000 C   0  0  0  0  0  0  0  0  0  0  0  0
    3.7320   -2.0109    0.0000 C   0  0  0  0  0  0  0  0  0  0  0  0
    7.1962   -2.0109    0.0000 C   0  0  0  0  0  0  0  0  0  0  0  0
    5.4641   -3.0109    0.0000 C   0  0  0  0  0  0  0  0  0  0  0  0
    3.7320   -3.0109    0.0000 C   0  0  0  0  0  0  0  0  0  0  0  0
    4.5981   -3.5109    0.0000 C   0  0  0  0  0  0  0  0  0  0  0  0
    8.0622   -1.5109    0.0000 C   0  0  0  0  0  0  0  0  0  0  0  0
    2.0000   -2.0109    0.0000 C   0  0  0  0  0  0  0  0  0  0  0  0
    5.8102    1.8268    0.0000 H   0  0  0  0  0  0  0  0  0  0  0  0
    6.9337    0.5454    0.0000 H   0  0  0  0  0  0  0  0  0  0  0  0
    7.7453    0.7179    0.0000 H   0  0  0  0  0  0  0  0  0  0  0  0
    8.3277    1.3648    0.0000 H   0  0  0  0  0  0  0  0  0  0  0  0
    8.4144    2.1899    0.0000 H   0  0  0  0  0  0  0  0  0  0  0  0
    7.9792    2.9437    0.0000 H   0  0  0  0  0  0  0  0  0  0  0  0
    7.2212    3.2812    0.0000 H   0  0  0  0  0  0  0  0  0  0  0  0
    5.2520    1.5717    0.0000 H   0  0  0  0  0  0  0  0  0  0  0  0
    4.8535    0.8814    0.0000 H   0  0  0  0  0  0  0  0  0  0  0  0
    5.1167    3.3850    0.0000 H   0  0  0  0  0  0  0  0  0  0  0  0
    5.3630    2.6270    0.0000 H   0  0  0  0  0  0  0  0  0  0  0  0
    6.0010   -0.3209    0.0000 H   0  0  0  0  0  0  0  0  0  0  0  0
    6.5059    4.0020    0.0000 H   0  0  0  0  0  0  0  0  0  0  0  0
    6.0283    4.7374    0.0000 H   0  0  0  0  0  0  0  0  0  0  0  0
    5.2930    4.2598    0.0000 H   0  0  0  0  0  0  0  0  0  0  0  0
    6.7287   -1.0360    0.0000 H   0  0  0  0  0  0  0  0  0  0  0  0
    5.9316   -1.0360    0.0000 H   0  0  0  0  0  0  0  0  0  0  0  0
    6.7976   -2.4858    0.0000 H   0  0  0  0  0  0  0  0  0  0  0  0
    7.5947   -2.4858    0.0000 H   0  0  0  0  0  0  0  0  0  0  0  0
    4.5981   -4.1309    0.0000 H   0  0  0  0  0  0  0  0  0  0  0  0
    8.3722   -2.0478    0.0000 H   0  0  0  0  0  0  0  0  0  0  0  0
    8.5991   -1.2009    0.0000 H   0  0  0  0  0  0  0  0  0  0  0  0
    7.7522   -0.9740    0.0000 H   0  0  0  0  0  0  0  0  0  0  0  0
    2.8660   -4.1309    0.0000 H   0  0  0  0  0  0  0  0  0  0  0  0
    1.6900   -1.4740    0.0000 H   0  0  0  0  0  0  0  0  0  0  0  0
    1.4631   -2.3209    0.0000 H   0  0  0  0  0  0  0  0  0  0  0  0
    2.3100   -2.5478    0.0000 H   0  0  0  0  0  0  0  0  0  0  0  0
  1 20  1  0  0  0  0
  2 14  2  0  0  0  0
  3 18  1  0  0  0  0
  3 24  1  0  0  0  0
  4 21  1  0  0  0  0
  4 48  1  0  0  0  0
  5  7  1  0  0  0  0
  5 10  1  0  0  0  0
  5 12  1  0  0  0  0
  6 11  1  0  0  0  0
  6 14  1  0  0  0  0
  6 36  1  0  0  0  0
  7  8  1  0  0  0  0
  7 11  1  1  0  0  0
  7 25  1  0  0  0  0
  8  9  1  0  0  0  0
  8 26  1  0  0  0  0
  8 27  1  0  0  0  0
  9 10  1  0  0  0  0
  9 28  1  0  0  0  0
  9 29  1  0  0  0  0
 10 30  1  0  0  0  0
 10 31  1  0  0  0  0
 11 32  1  0  0  0  0
 11 33  1  0  0  0  0
 12 13  1  0  0  0  0
 12 34  1  0  0  0  0
 12 35  1  0  0  0  0
 13 37  1  0  0  0  0
 13 38  1  0  0  0  0
 13 39  1  0  0  0  0
 14 15  1  0  0  0  0
 15 16  1  0  0  0  0
 15 18  2  0  0  0  0
 16 17  1  0  0  0  0
 16 20  2  0  0  0  0
 17 19  1  0  0  0  0
 17 40  1  0  0  0  0
 17 41  1  0  0  0  0
 18 21  1  0  0  0  0
 19 23  1  0  0  0  0
 19 42  1  0  0  0  0
 19 43  1  0  0  0  0
 20 22  1  0  0  0  0
 21 22  2  0  0  0  0
 22 44  1  0  0  0  0
 23 45  1  0  0  0  0
 23 46  1  0  0  0  0
 23 47  1  0  0  0  0
 24 49  1  0  0  0  0
 24 50  1  0  0  0  0
 24 51  1  0  0  0  0
M  END
> <PUBCHEM_COMPOUND_CID>
52947127

> <PUBCHEM_COMPOUND_CANONICALIZED>
1

> <PUBCHEM_CACTVS_COMPLEXITY>
410

> <PUBCHEM_CACTVS_HBOND_ACCEPTOR>
4

> <PUBCHEM_CACTVS_HBOND_DONOR>
2

> <PUBCHEM_CACTVS_ROTATABLE_BOND>
7

> <PUBCHEM_CACTVS_SUBSKEYS>
AAADceB7MAAEAAAAAAAAAAAAAAAAAWAAAAAwAAAAAAAAAAABAAAAHgIQCAAADC7BmCYyBoPABgCIAiFSEACCCAAkJQAAiIEOjsgNZjaHthuUcWtm9hGLuQe6yLCOoCABIQAZQABAQAJCADKAAAAAAAAAAA==

> <PUBCHEM_IUPAC_OPENEYE_NAME>
5-chloro-N-[[(2S)-1-ethylpyrrolidin-2-yl]methyl]-3-hydroxy-2-methoxy-6-propyl-benzamide

> <PUBCHEM_IUPAC_CAS_NAME>
5-chloro-N-[[(2S)-1-ethyl-2-pyrrolidinyl]methyl]-3-hydroxy-2-methoxy-6-propylbenzamide

> <PUBCHEM_IUPAC_NAME_MARKUP>
5-chloro-<I>N</I>-[[(2<I>S</I>)-1-ethylpyrrolidin-2-yl]methyl]-3-hydroxy-2-methoxy-6-propylbenzamide

> <PUBCHEM_IUPAC_NAME>
5-chloro-N-[[(2S)-1-ethylpyrrolidin-2-yl]methyl]-3-hydroxy-2-methoxy-6-propylbenzamide

> <PUBCHEM_IUPAC_SYSTEMATIC_NAME>
5-chloranyl-N-[[(2S)-1-ethylpyrrolidin-2-yl]methyl]-2-methoxy-3-oxidanyl-6-propyl-benzamide

> <PUBCHEM_IUPAC_TRADITIONAL_NAME>
5-chloro-N-[[(2S)-1-ethylpyrrolidin-2-yl]methyl]-3-hydroxy-2-methoxy-6-propyl-benzamide

> <PUBCHEM_IUPAC_INCHI>
InChI=1S/C18H27ClN2O3/c1-4-7-13-14(19)10-15(22)17(24-3)16(13)18(23)20-11-12-8-6-9-21(12)5-2/h10,12,22H,4-9,11H2,1-3H3,(H,20,23)/t12-/m0/s1

> <PUBCHEM_IUPAC_INCHIKEY>
RZFMBOWSMDNJRN-LBPRGKRZSA-N

> <PUBCHEM_XLOGP3_AA>
3.7

> <PUBCHEM_EXACT_MASS>
354.1710204

> <PUBCHEM_MOLECULAR_FORMULA>
C18H27ClN2O3

> <PUBCHEM_MOLECULAR_WEIGHT>
354.9

> <PUBCHEM_OPENEYE_CAN_SMILES>
CCCC1=C(C=C(C(=C1C(=O)NCC2CCCN2CC)OC)O)Cl

> <PUBCHEM_OPENEYE_ISO_SMILES>
CCCC1=C(C=C(C(=C1C(=O)NC[C@@H]2CCCN2CC)OC)O)Cl

> <PUBCHEM_CACTVS_TPSA>
61.8

> <PUBCHEM_MONOISOTOPIC_WEIGHT>
354.1710204

> <PUBCHEM_TOTAL_CHARGE>
0

> <PUBCHEM_HEAVY_ATOM_COUNT>
24

> <PUBCHEM_ATOM_DEF_STEREO_COUNT>
1

> <PUBCHEM_ATOM_UDEF_STEREO_COUNT>
0

> <PUBCHEM_BOND_DEF_STEREO_COUNT>
0

> <PUBCHEM_BOND_UDEF_STEREO_COUNT>
0

> <PUBCHEM_ISOTOPIC_ATOM_COUNT>
0

> <PUBCHEM_COMPONENT_COUNT>
1

> <PUBCHEM_CACTVS_TAUTO_COUNT>
-1

> <PUBCHEM_COORDINATE_TYPE>
1
5
255

> <PUBCHEM_BONDANNOTATIONS>
15  16  8
15  18  8
16  20  8
18  21  8
20  22  8
21  22  8
7  11  5

$$$$
