127052488
  -OEChem-09292322372D

 63 67  0     0  0  0  0  0  0999 V2000
    4.6783    2.5368    0.0000 S   0  0  0  0  0  0  0  0  0  0  0  0
   14.2619   -3.4641    0.0000 F   0  0  0  0  0  0  0  0  0  0  0  0
   14.2619    3.4641    0.0000 F   0  0  0  0  0  0  0  0  0  0  0  0
   11.2619   -0.0000    0.0000 N   0  0  0  0  0  0  0  0  0  0  0  0
    9.2619   -0.0000    0.0000 N   0  0  0  0  0  0  0  0  0  0  0  0
    4.6783    0.9273    0.0000 N   0  0  0  0  0  0  0  0  0  0  0  0
   10.7619    0.8660    0.0000 C   0  0  0  0  0  0  0  0  0  0  0  0
   10.7619   -0.8660    0.0000 C   0  0  0  0  0  0  0  0  0  0  0  0
    9.7619    0.8660    0.0000 C   0  0  0  0  0  0  0  0  0  0  0  0
    9.7619   -0.8660    0.0000 C   0  0  0  0  0  0  0  0  0  0  0  0
   12.2619   -0.0000    0.0000 C   0  0  0  0  0  0  0  0  0  0  0  0
    8.2619   -0.0000    0.0000 C   0  0  0  0  0  0  0  0  0  0  0  0
    7.7619    0.8660    0.0000 C   0  0  0  0  0  0  0  0  0  0  0  0
   12.7619   -0.8660    0.0000 C   0  0  0  0  0  0  0  0  0  0  0  0
   12.7619    0.8660    0.0000 C   0  0  0  0  0  0  0  0  0  0  0  0
    6.7619    0.8660    0.0000 C   0  0  0  0  0  0  0  0  0  0  0  0
    6.2619    1.7320    0.0000 C   0  0  0  0  0  0  0  0  0  0  0  0
   12.2619   -1.7320    0.0000 C   0  0  0  0  0  0  0  0  0  0  0  0
   13.7619    0.8660    0.0000 C   0  0  0  0  0  0  0  0  0  0  0  0
   13.7619   -0.8660    0.0000 C   0  0  0  0  0  0  0  0  0  0  0  0
   12.2619    1.7320    0.0000 C   0  0  0  0  0  0  0  0  0  0  0  0
    5.2619    1.7320    0.0000 C   0  0  0  0  0  0  0  0  0  0  0  0
   12.7619   -2.5981    0.0000 C   0  0  0  0  0  0  0  0  0  0  0  0
   14.2619    1.7320    0.0000 C   0  0  0  0  0  0  0  0  0  0  0  0
   14.2619   -1.7320    0.0000 C   0  0  0  0  0  0  0  0  0  0  0  0
   12.7619    2.5981    0.0000 C   0  0  0  0  0  0  0  0  0  0  0  0
   13.7619   -2.5981    0.0000 C   0  0  0  0  0  0  0  0  0  0  0  0
   13.7619    2.5981    0.0000 C   0  0  0  0  0  0  0  0  0  0  0  0
    3.7320    2.2320    0.0000 C   0  0  0  0  0  0  0  0  0  0  0  0
    3.7320    1.2320    0.0000 C   0  0  0  0  0  0  0  0  0  0  0  0
    2.8660    2.7320    0.0000 C   0  0  0  0  0  0  0  0  0  0  0  0
    2.8660    0.7321    0.0000 C   0  0  0  0  0  0  0  0  0  0  0  0
    2.0000    2.2320    0.0000 C   0  0  0  0  0  0  0  0  0  0  0  0
    2.0000    1.2320    0.0000 C   0  0  0  0  0  0  0  0  0  0  0  0
   11.3445    1.0781    0.0000 H   0  0  0  0  0  0  0  0  0  0  0  0
   10.6542    1.4766    0.0000 H   0  0  0  0  0  0  0  0  0  0  0  0
   10.6542   -1.4766    0.0000 H   0  0  0  0  0  0  0  0  0  0  0  0
   11.3445   -1.0781    0.0000 H   0  0  0  0  0  0  0  0  0  0  0  0
    9.8695    1.4766    0.0000 H   0  0  0  0  0  0  0  0  0  0  0  0
    9.1793    1.0781    0.0000 H   0  0  0  0  0  0  0  0  0  0  0  0
    9.1793   -1.0781    0.0000 H   0  0  0  0  0  0  0  0  0  0  0  0
    9.8695   -1.4766    0.0000 H   0  0  0  0  0  0  0  0  0  0  0  0
   11.9519    0.5369    0.0000 H   0  0  0  0  0  0  0  0  0  0  0  0
    7.6793   -0.2121    0.0000 H   0  0  0  0  0  0  0  0  0  0  0  0
    8.3695   -0.6106    0.0000 H   0  0  0  0  0  0  0  0  0  0  0  0
    8.3445    1.0781    0.0000 H   0  0  0  0  0  0  0  0  0  0  0  0
    7.6542    1.4766    0.0000 H   0  0  0  0  0  0  0  0  0  0  0  0
    6.1793    0.6540    0.0000 H   0  0  0  0  0  0  0  0  0  0  0  0
    6.8695    0.2554    0.0000 H   0  0  0  0  0  0  0  0  0  0  0  0
    6.8445    1.9441    0.0000 H   0  0  0  0  0  0  0  0  0  0  0  0
    6.1542    2.3426    0.0000 H   0  0  0  0  0  0  0  0  0  0  0  0
   11.6419   -1.7320    0.0000 H   0  0  0  0  0  0  0  0  0  0  0  0
   14.0719    0.3291    0.0000 H   0  0  0  0  0  0  0  0  0  0  0  0
   14.0719   -0.3291    0.0000 H   0  0  0  0  0  0  0  0  0  0  0  0
   11.6419    1.7320    0.0000 H   0  0  0  0  0  0  0  0  0  0  0  0
   12.4519   -3.1350    0.0000 H   0  0  0  0  0  0  0  0  0  0  0  0
   14.8819    1.7320    0.0000 H   0  0  0  0  0  0  0  0  0  0  0  0
   14.8819   -1.7320    0.0000 H   0  0  0  0  0  0  0  0  0  0  0  0
   12.4519    3.1350    0.0000 H   0  0  0  0  0  0  0  0  0  0  0  0
    2.8660    3.3520    0.0000 H   0  0  0  0  0  0  0  0  0  0  0  0
    2.8660    0.1121    0.0000 H   0  0  0  0  0  0  0  0  0  0  0  0
    1.4631    2.5420    0.0000 H   0  0  0  0  0  0  0  0  0  0  0  0
    1.4631    0.9221    0.0000 H   0  0  0  0  0  0  0  0  0  0  0  0
  1 22  1  0  0  0  0
  1 29  1  0  0  0  0
  2 27  1  0  0  0  0
  3 28  1  0  0  0  0
  4  7  1  0  0  0  0
  4  8  1  0  0  0  0
  4 11  1  0  0  0  0
  5  9  1  0  0  0  0
  5 10  1  0  0  0  0
  5 12  1  0  0  0  0
  6 22  2  0  0  0  0
  6 30  1  0  0  0  0
  7  9  1  0  0  0  0
  7 35  1  0  0  0  0
  7 36  1  0  0  0  0
  8 10  1  0  0  0  0
  8 37  1  0  0  0  0
  8 38  1  0  0  0  0
  9 39  1  0  0  0  0
  9 40  1  0  0  0  0
 10 41  1  0  0  0  0
 10 42  1  0  0  0  0
 11 14  1  0  0  0  0
 11 15  1  0  0  0  0
 11 43  1  0  0  0  0
 12 13  1  0  0  0  0
 12 44  1  0  0  0  0
 12 45  1  0  0  0  0
 13 16  1  0  0  0  0
 13 46  1  0  0  0  0
 13 47  1  0  0  0  0
 14 18  2  0  0  0  0
 14 20  1  0  0  0  0
 15 19  2  0  0  0  0
 15 21  1  0  0  0  0
 16 17  1  0  0  0  0
 16 48  1  0  0  0  0
 16 49  1  0  0  0  0
 17 22  1  0  0  0  0
 17 50  1  0  0  0  0
 17 51  1  0  0  0  0
 18 23  1  0  0  0  0
 18 52  1  0  0  0  0
 19 24  1  0  0  0  0
 19 53  1  0  0  0  0
 20 25  2  0  0  0  0
 20 54  1  0  0  0  0
 21 26  2  0  0  0  0
 21 55  1  0  0  0  0
 23 27  2  0  0  0  0
 23 56  1  0  0  0  0
 24 28  2  0  0  0  0
 24 57  1  0  0  0  0
 25 27  1  0  0  0  0
 25 58  1  0  0  0  0
 26 28  1  0  0  0  0
 26 59  1  0  0  0  0
 29 30  1  0  0  0  0
 29 31  2  0  0  0  0
 30 32  2  0  0  0  0
 31 33  1  0  0  0  0
 31 60  1  0  0  0  0
 32 34  1  0  0  0  0
 32 61  1  0  0  0  0
 33 34  2  0  0  0  0
 33 62  1  0  0  0  0
 34 63  1  0  0  0  0
M  END
> <PUBCHEM_COMPOUND_CID>
127052488

> <PUBCHEM_COMPOUND_CANONICALIZED>
1

> <PUBCHEM_CACTVS_COMPLEXITY>
579

> <PUBCHEM_CACTVS_HBOND_ACCEPTOR>
6

> <PUBCHEM_CACTVS_HBOND_DONOR>
0

> <PUBCHEM_CACTVS_ROTATABLE_BOND>
8

> <PUBCHEM_CACTVS_SUBSKEYS>
AAADceB7AYBAAAAAAAAAAAAAAAAAAWAAAAA8YMEAAAAAAFgB9AAAHQQAAAAADCjBXgwwwbMIEAikAyRiRACD8KBhCjhImDw4ZJgIYKLgkZGUIAhggADoyAcQgMAOAAAAAAAAAQAAAAAAAAACAAAAAAAAAA==

> <PUBCHEM_IUPAC_OPENEYE_NAME>
2-[4-[4-[bis(4-fluorophenyl)methyl]piperazin-1-yl]butyl]-1,3-benzothiazole

> <PUBCHEM_IUPAC_CAS_NAME>
2-[4-[4-[bis(4-fluorophenyl)methyl]-1-piperazinyl]butyl]-1,3-benzothiazole

> <PUBCHEM_IUPAC_NAME_MARKUP>
2-[4-[4-[bis(4-fluorophenyl)methyl]piperazin-1-yl]butyl]-1,3-benzothiazole

> <PUBCHEM_IUPAC_NAME>
2-[4-[4-[bis(4-fluorophenyl)methyl]piperazin-1-yl]butyl]-1,3-benzothiazole

> <PUBCHEM_IUPAC_SYSTEMATIC_NAME>
2-[4-[4-[bis(4-fluorophenyl)methyl]piperazin-1-yl]butyl]-1,3-benzothiazole

> <PUBCHEM_IUPAC_TRADITIONAL_NAME>
2-[4-[4-[bis(4-fluorophenyl)methyl]piperazino]butyl]-1,3-benzothiazole

> <PUBCHEM_IUPAC_INCHI>
InChI=1S/C28H29F2N3S/c29-23-12-8-21(9-13-23)28(22-10-14-24(30)15-11-22)33-19-17-32(18-20-33)16-4-3-7-27-31-25-5-1-2-6-26(25)34-27/h1-2,5-6,8-15,28H,3-4,7,16-20H2

> <PUBCHEM_IUPAC_INCHIKEY>
NCKUNUUYANLHKE-UHFFFAOYSA-N

> <PUBCHEM_XLOGP3_AA>
6.6

> <PUBCHEM_EXACT_MASS>
477.20502544

> <PUBCHEM_MOLECULAR_FORMULA>
C28H29F2N3S

> <PUBCHEM_MOLECULAR_WEIGHT>
477.6

> <PUBCHEM_OPENEYE_CAN_SMILES>
C1CN(CCN1CCCCC2=NC3=CC=CC=C3S2)C(C4=CC=C(C=C4)F)C5=CC=C(C=C5)F

> <PUBCHEM_OPENEYE_ISO_SMILES>
C1CN(CCN1CCCCC2=NC3=CC=CC=C3S2)C(C4=CC=C(C=C4)F)C5=CC=C(C=C5)F

> <PUBCHEM_CACTVS_TPSA>
47.6

> <PUBCHEM_MONOISOTOPIC_WEIGHT>
477.20502544

> <PUBCHEM_TOTAL_CHARGE>
0

> <PUBCHEM_HEAVY_ATOM_COUNT>
34

> <PUBCHEM_ATOM_DEF_STEREO_COUNT>
0

> <PUBCHEM_ATOM_UDEF_STEREO_COUNT>
0

> <PUBCHEM_BOND_DEF_STEREO_COUNT>
0

> <PUBCHEM_BOND_UDEF_STEREO_COUNT>
0

> <PUBCHEM_ISOTOPIC_ATOM_COUNT>
0

> <PUBCHEM_COMPONENT_COUNT>
1

> <PUBCHEM_CACTVS_TAUTO_COUNT>
-1

> <PUBCHEM_COORDINATE_TYPE>
1
5
255

> <PUBCHEM_BONDANNOTATIONS>
1  22  8
1  29  8
14  18  8
14  20  8
15  19  8
15  21  8
18  23  8
19  24  8
20  25  8
21  26  8
23  27  8
24  28  8
25  27  8
26  28  8
29  30  8
29  31  8
30  32  8
31  33  8
32  34  8
33  34  8
6  22  8
6  30  8

$$$$
