45260698
  -OEChem-09292322192D

 57 59  0     0  0  0  0  0  0999 V2000
    6.0010    6.8285    0.0000 Cl  0  0  0  0  0  0  0  0  0  0  0  0
    2.5981    7.6200    0.0000 O   0  0  0  0  0  0  0  0  0  0  0  0
    0.0000    9.1200    0.0000 O   0  0  0  0  0  0  0  0  0  0  0  0
    1.7320   13.1200    0.0000 O   0  0  0  0  0  0  0  0  0  0  0  0
    1.7320    5.1200    0.0000 N   0  0  0  0  0  0  0  0  0  0  0  0
    1.7320    7.1200    0.0000 C   0  0  0  0  0  0  0  0  0  0  0  0
    0.8660    6.6200    0.0000 C   0  0  0  0  0  0  0  0  0  0  0  0
    2.5981    6.6200    0.0000 C   0  0  0  0  0  0  0  0  0  0  0  0
    0.8660    5.6200    0.0000 C   0  0  0  0  0  0  0  0  0  0  0  0
    2.5981    5.6200    0.0000 C   0  0  0  0  0  0  0  0  0  0  0  0
    0.8660    7.6200    0.0000 C   0  0  0  0  0  0  0  0  0  0  0  0
    1.7320    4.1200    0.0000 C   0  0  0  0  0  0  0  0  0  0  0  0
    0.8660    8.6200    0.0000 C   0  0  0  0  0  0  0  0  0  0  0  0
    1.7320    9.1200    0.0000 C   0  0  0  0  0  0  0  0  0  0  0  0
    2.5981    8.6200    0.0000 C   0  0  0  0  0  0  0  0  0  0  0  0
    2.5981    3.6200    0.0000 C   0  0  0  0  0  0  0  0  0  0  0  0
    1.7320   10.1200    0.0000 C   0  0  0  0  0  0  0  0  0  0  0  0
    2.5981    2.6200    0.0000 C   0  0  0  0  0  0  0  0  0  0  0  0
    0.8660   10.6200    0.0000 C   0  0  0  0  0  0  0  0  0  0  0  0
    2.5981   10.6200    0.0000 C   0  0  0  0  0  0  0  0  0  0  0  0
    1.7320    2.1200    0.0000 C   0  0  0  0  0  0  0  0  0  0  0  0
    3.4641    2.1200    0.0000 C   0  0  0  0  0  0  0  0  0  0  0  0
    0.8660   11.6200    0.0000 C   0  0  0  0  0  0  0  0  0  0  0  0
    2.5981   11.6200    0.0000 C   0  0  0  0  0  0  0  0  0  0  0  0
    1.7320    1.1200    0.0000 C   0  0  0  0  0  0  0  0  0  0  0  0
    3.4641    1.1200    0.0000 C   0  0  0  0  0  0  0  0  0  0  0  0
    1.7320   12.1200    0.0000 C   0  0  0  0  0  0  0  0  0  0  0  0
    2.5981    0.6200    0.0000 C   0  0  0  0  0  0  0  0  0  0  0  0
    2.5981   13.6200    0.0000 C   0  0  0  0  0  0  0  0  0  0  0  0
    0.6540    7.2026    0.0000 H   0  0  0  0  0  0  0  0  0  0  0  0
    0.2554    6.5123    0.0000 H   0  0  0  0  0  0  0  0  0  0  0  0
    3.2087    6.5123    0.0000 H   0  0  0  0  0  0  0  0  0  0  0  0
    2.8101    7.2026    0.0000 H   0  0  0  0  0  0  0  0  0  0  0  0
    0.2554    5.7277    0.0000 H   0  0  0  0  0  0  0  0  0  0  0  0
    0.6540    5.0374    0.0000 H   0  0  0  0  0  0  0  0  0  0  0  0
    2.8101    5.0374    0.0000 H   0  0  0  0  0  0  0  0  0  0  0  0
    3.2087    5.7277    0.0000 H   0  0  0  0  0  0  0  0  0  0  0  0
    0.2554    7.7277    0.0000 H   0  0  0  0  0  0  0  0  0  0  0  0
    0.6540    7.0374    0.0000 H   0  0  0  0  0  0  0  0  0  0  0  0
    1.1215    4.2277    0.0000 H   0  0  0  0  0  0  0  0  0  0  0  0
    1.5200    3.5374    0.0000 H   0  0  0  0  0  0  0  0  0  0  0  0
    3.1350    8.9300    0.0000 H   0  0  0  0  0  0  0  0  0  0  0  0
    3.2087    3.5123    0.0000 H   0  0  0  0  0  0  0  0  0  0  0  0
    2.8101    4.2026    0.0000 H   0  0  0  0  0  0  0  0  0  0  0  0
    0.3291   10.3100    0.0000 H   0  0  0  0  0  0  0  0  0  0  0  0
    3.1350   10.3100    0.0000 H   0  0  0  0  0  0  0  0  0  0  0  0
    1.1951    2.4300    0.0000 H   0  0  0  0  0  0  0  0  0  0  0  0
    4.0010    2.4300    0.0000 H   0  0  0  0  0  0  0  0  0  0  0  0
    0.3291   11.9300    0.0000 H   0  0  0  0  0  0  0  0  0  0  0  0
    3.1350   11.9300    0.0000 H   0  0  0  0  0  0  0  0  0  0  0  0
    1.1951    0.8100    0.0000 H   0  0  0  0  0  0  0  0  0  0  0  0
    4.0010    0.8100    0.0000 H   0  0  0  0  0  0  0  0  0  0  0  0
    2.5981    0.0000    0.0000 H   0  0  0  0  0  0  0  0  0  0  0  0
    2.9081   13.0831    0.0000 H   0  0  0  0  0  0  0  0  0  0  0  0
    3.1350   13.9300    0.0000 H   0  0  0  0  0  0  0  0  0  0  0  0
    2.2881   14.1569    0.0000 H   0  0  0  0  0  0  0  0  0  0  0  0
    7.0010    6.8285    0.0000 H   0  0  0  0  0  0  0  0  0  0  0  0
  1 57  1  0  0  0  0
  2  6  1  0  0  0  0
  2 15  1  0  0  0  0
  3 13  2  0  0  0  0
  4 27  1  0  0  0  0
  4 29  1  0  0  0  0
  5  9  1  0  0  0  0
  5 10  1  0  0  0  0
  5 12  1  0  0  0  0
  6  7  1  0  0  0  0
  6  8  1  0  0  0  0
  6 11  1  0  0  0  0
  7  9  1  0  0  0  0
  7 30  1  0  0  0  0
  7 31  1  0  0  0  0
  8 10  1  0  0  0  0
  8 32  1  0  0  0  0
  8 33  1  0  0  0  0
  9 34  1  0  0  0  0
  9 35  1  0  0  0  0
 10 36  1  0  0  0  0
 10 37  1  0  0  0  0
 11 13  1  0  0  0  0
 11 38  1  0  0  0  0
 11 39  1  0  0  0  0
 12 16  1  0  0  0  0
 12 40  1  0  0  0  0
 12 41  1  0  0  0  0
 13 14  1  0  0  0  0
 14 15  2  0  0  0  0
 14 17  1  0  0  0  0
 15 42  1  0  0  0  0
 16 18  1  0  0  0  0
 16 43  1  0  0  0  0
 16 44  1  0  0  0  0
 17 19  2  0  0  0  0
 17 20  1  0  0  0  0
 18 21  2  0  0  0  0
 18 22  1  0  0  0  0
 19 23  1  0  0  0  0
 19 45  1  0  0  0  0
 20 24  2  0  0  0  0
 20 46  1  0  0  0  0
 21 25  1  0  0  0  0
 21 47  1  0  0  0  0
 22 26  2  0  0  0  0
 22 48  1  0  0  0  0
 23 27  2  0  0  0  0
 23 49  1  0  0  0  0
 24 27  1  0  0  0  0
 24 50  1  0  0  0  0
 25 28  2  0  0  0  0
 25 51  1  0  0  0  0
 26 28  1  0  0  0  0
 26 52  1  0  0  0  0
 28 53  1  0  0  0  0
 29 54  1  0  0  0  0
 29 55  1  0  0  0  0
 29 56  1  0  0  0  0
M  END
> <PUBCHEM_COMPOUND_CID>
45260698

> <PUBCHEM_COMPOUND_CANONICALIZED>
1

> <PUBCHEM_CACTVS_COMPLEXITY>
550

> <PUBCHEM_CACTVS_HBOND_ACCEPTOR>
4

> <PUBCHEM_CACTVS_HBOND_DONOR>
1

> <PUBCHEM_CACTVS_ROTATABLE_BOND>
5

> <PUBCHEM_CACTVS_SUBSKEYS>
AAADceB6MAAEAAAAAAAAAAAAAAAAAAAAAAA8YIEAAAAAAAABQAAAHgAAAAAADEThmAYyBoMABACIAqBSAAACCAAgIAAIiAEOCMgMJjaEtRuEMCAm4BGIqIeYyfCOIAAAAAAAAABAAAAAAAAAAAAAAAAAAA==

> <PUBCHEM_IUPAC_OPENEYE_NAME>
3-(4-methoxyphenyl)-9-(2-phenylethyl)-1-oxa-9-azaspiro[5.5]undec-2-en-4-one;hydrochloride

> <PUBCHEM_IUPAC_CAS_NAME>
3-(4-methoxyphenyl)-9-(2-phenylethyl)-1-oxa-9-azaspiro[5.5]undec-2-en-4-one;hydrochloride

> <PUBCHEM_IUPAC_NAME_MARKUP>
3-(4-methoxyphenyl)-9-(2-phenylethyl)-1-oxa-9-azaspiro[5.5]undec-2-en-4-one;hydrochloride

> <PUBCHEM_IUPAC_NAME>
3-(4-methoxyphenyl)-9-(2-phenylethyl)-1-oxa-9-azaspiro[5.5]undec-2-en-4-one;hydrochloride

> <PUBCHEM_IUPAC_SYSTEMATIC_NAME>
3-(4-methoxyphenyl)-9-(2-phenylethyl)-1-oxa-9-azaspiro[5.5]undec-2-en-4-one;hydrochloride

> <PUBCHEM_IUPAC_TRADITIONAL_NAME>
3-(4-methoxyphenyl)-9-phenethyl-1-oxa-9-azaspiro[5.5]undec-2-en-4-one;hydrochloride

> <PUBCHEM_IUPAC_INCHI>
InChI=1S/C24H27NO3.ClH/c1-27-21-9-7-20(8-10-21)22-18-28-24(17-23(22)26)12-15-25(16-13-24)14-11-19-5-3-2-4-6-19;/h2-10,18H,11-17H2,1H3;1H

> <PUBCHEM_IUPAC_INCHIKEY>
RMTHJTWIXKWLCX-UHFFFAOYSA-N

> <PUBCHEM_EXACT_MASS>
413.1757714

> <PUBCHEM_MOLECULAR_FORMULA>
C24H28ClNO3

> <PUBCHEM_MOLECULAR_WEIGHT>
413.9

> <PUBCHEM_OPENEYE_CAN_SMILES>
COC1=CC=C(C=C1)C2=COC3(CCN(CC3)CCC4=CC=CC=C4)CC2=O.Cl

> <PUBCHEM_OPENEYE_ISO_SMILES>
COC1=CC=C(C=C1)C2=COC3(CCN(CC3)CCC4=CC=CC=C4)CC2=O.Cl

> <PUBCHEM_CACTVS_TPSA>
38.8

> <PUBCHEM_MONOISOTOPIC_WEIGHT>
413.1757714

> <PUBCHEM_TOTAL_CHARGE>
0

> <PUBCHEM_HEAVY_ATOM_COUNT>
29

> <PUBCHEM_ATOM_DEF_STEREO_COUNT>
0

> <PUBCHEM_ATOM_UDEF_STEREO_COUNT>
0

> <PUBCHEM_BOND_DEF_STEREO_COUNT>
0

> <PUBCHEM_BOND_UDEF_STEREO_COUNT>
0

> <PUBCHEM_ISOTOPIC_ATOM_COUNT>
0

> <PUBCHEM_COMPONENT_COUNT>
2

> <PUBCHEM_CACTVS_TAUTO_COUNT>
-1

> <PUBCHEM_COORDINATE_TYPE>
1
5
255

> <PUBCHEM_BONDANNOTATIONS>
17  19  8
17  20  8
18  21  8
18  22  8
19  23  8
20  24  8
21  25  8
22  26  8
23  27  8
24  27  8
25  28  8
26  28  8

$$$$
