137632586
  -OEChem-09292322392D

 81 81  0     0  0  0  0  0  0999 V2000
   11.1360   16.5841    0.0000 Cl  0  0  0  0  0  0  0  0  0  0  0  0
   10.0021    3.6200    0.0000 S   0  0  0  0  0  0  0  0  0  0  0  0
   10.0021    2.6200    0.0000 S   0  0  0  0  0  0  0  0  0  0  0  0
    0.0000    7.4751    0.0000 F   0  0  0  0  0  0  0  0  0  0  0  0
    0.3660    8.8411    0.0000 F   0  0  0  0  0  0  0  0  0  0  0  0
    1.3660    7.1090    0.0000 F   0  0  0  0  0  0  0  0  0  0  0  0
   14.2711    7.4751    0.0000 F   0  0  0  0  0  0  0  0  0  0  0  0
   14.6371    8.8411    0.0000 F   0  0  0  0  0  0  0  0  0  0  0  0
   15.6371    7.1090    0.0000 F   0  0  0  0  0  0  0  0  0  0  0  0
    8.6360   13.9860    0.0000 O   0  0  0  0  0  0  0  0  0  0  0  0
    6.5380    6.6200    0.0000 O   0  0  0  0  0  0  0  0  0  0  0  0
    8.2700    5.6200    0.0000 O   0  0  0  0  0  0  0  0  0  0  0  0
    2.5981    7.9751    0.0000 O   0  0  0  0  0  0  0  0  0  0  0  0
   16.8691    7.9751    0.0000 O   0  0  0  0  0  0  0  0  0  0  0  0
    1.7320    9.4751    0.0000 O   0  0  0  0  0  0  0  0  0  0  0  0
   16.0031    9.4751    0.0000 O   0  0  0  0  0  0  0  0  0  0  0  0
    9.1360   11.1200    0.0000 N   0  0  0  0  0  0  0  0  0  0  0  0
   11.7341    0.6200    0.0000 N   0  0  0  0  0  0  0  0  0  0  0  0
    9.1360   13.1200    0.0000 C   0  0  0  0  0  0  0  0  0  0  0  0
   10.0021   12.6200    0.0000 C   0  0  0  0  0  0  0  0  0  0  0  0
    8.2700   12.6200    0.0000 C   0  0  0  0  0  0  0  0  0  0  0  0
   10.0021   11.6200    0.0000 C   0  0  0  0  0  0  0  0  0  0  0  0
    8.2700   11.6200    0.0000 C   0  0  0  0  0  0  0  0  0  0  0  0
    9.6360   13.9860    0.0000 C   0  0  0  0  0  0  0  0  0  0  0  0
    9.1360   10.1200    0.0000 C   0  0  0  0  0  0  0  0  0  0  0  0
    8.2700    9.6200    0.0000 C   0  0  0  0  0  0  0  0  0  0  0  0
    9.1360   14.8521    0.0000 C   0  0  0  0  0  0  0  0  0  0  0  0
   10.6360   13.9860    0.0000 C   0  0  0  0  0  0  0  0  0  0  0  0
    8.2700    8.6200    0.0000 C   0  0  0  0  0  0  0  0  0  0  0  0
    9.6360   15.7181    0.0000 C   0  0  0  0  0  0  0  0  0  0  0  0
   11.1360   14.8521    0.0000 C   0  0  0  0  0  0  0  0  0  0  0  0
   10.6360   15.7181    0.0000 C   0  0  0  0  0  0  0  0  0  0  0  0
    7.4040    8.1200    0.0000 C   0  0  0  0  0  0  0  0  0  0  0  0
    9.1360    8.1200    0.0000 C   0  0  0  0  0  0  0  0  0  0  0  0
    7.4040    7.1200    0.0000 C   0  0  0  0  0  0  0  0  0  0  0  0
    9.1360    7.1200    0.0000 C   0  0  0  0  0  0  0  0  0  0  0  0
    8.2700    6.6200    0.0000 C   0  0  0  0  0  0  0  0  0  0  0  0
    9.1360    5.1200    0.0000 C   0  0  0  0  0  0  0  0  0  0  0  0
    5.6720    7.1200    0.0000 C   0  0  0  0  0  0  0  0  0  0  0  0
    9.1360    4.1200    0.0000 C   0  0  0  0  0  0  0  0  0  0  0  0
   10.8681    2.1200    0.0000 C   0  0  0  0  0  0  0  0  0  0  0  0
   10.8681    1.1200    0.0000 C   0  0  0  0  0  0  0  0  0  0  0  0
    0.8660    7.9751    0.0000 C   0  0  0  0  0  0  0  0  0  0  0  0
   15.1371    7.9751    0.0000 C   0  0  0  0  0  0  0  0  0  0  0  0
    1.7320    8.4751    0.0000 C   0  0  0  0  0  0  0  0  0  0  0  0
   16.0031    8.4751    0.0000 C   0  0  0  0  0  0  0  0  0  0  0  0
   10.6127   12.5123    0.0000 H   0  0  0  0  0  0  0  0  0  0  0  0
   10.2141   13.2026    0.0000 H   0  0  0  0  0  0  0  0  0  0  0  0
    8.0580   13.2026    0.0000 H   0  0  0  0  0  0  0  0  0  0  0  0
    7.6594   12.5123    0.0000 H   0  0  0  0  0  0  0  0  0  0  0  0
   10.2141   11.0374    0.0000 H   0  0  0  0  0  0  0  0  0  0  0  0
   10.6127   11.7277    0.0000 H   0  0  0  0  0  0  0  0  0  0  0  0
    7.6594   11.7277    0.0000 H   0  0  0  0  0  0  0  0  0  0  0  0
    8.0580   11.0374    0.0000 H   0  0  0  0  0  0  0  0  0  0  0  0
    9.3481    9.5374    0.0000 H   0  0  0  0  0  0  0  0  0  0  0  0
    9.7466   10.2277    0.0000 H   0  0  0  0  0  0  0  0  0  0  0  0
    8.0160   13.9860    0.0000 H   0  0  0  0  0  0  0  0  0  0  0  0
    8.0580   10.2026    0.0000 H   0  0  0  0  0  0  0  0  0  0  0  0
    7.6594    9.5123    0.0000 H   0  0  0  0  0  0  0  0  0  0  0  0
    8.5160   14.8521    0.0000 H   0  0  0  0  0  0  0  0  0  0  0  0
   10.9460   13.4491    0.0000 H   0  0  0  0  0  0  0  0  0  0  0  0
    9.3260   16.2550    0.0000 H   0  0  0  0  0  0  0  0  0  0  0  0
   11.7560   14.8521    0.0000 H   0  0  0  0  0  0  0  0  0  0  0  0
    6.8671    8.4300    0.0000 H   0  0  0  0  0  0  0  0  0  0  0  0
    9.6730    8.4300    0.0000 H   0  0  0  0  0  0  0  0  0  0  0  0
    9.6730    6.8100    0.0000 H   0  0  0  0  0  0  0  0  0  0  0  0
    9.7466    5.0123    0.0000 H   0  0  0  0  0  0  0  0  0  0  0  0
    9.3481    5.7026    0.0000 H   0  0  0  0  0  0  0  0  0  0  0  0
    5.9820    7.6569    0.0000 H   0  0  0  0  0  0  0  0  0  0  0  0
    5.1350    7.4300    0.0000 H   0  0  0  0  0  0  0  0  0  0  0  0
    5.3620    6.5831    0.0000 H   0  0  0  0  0  0  0  0  0  0  0  0
    8.5255    4.2277    0.0000 H   0  0  0  0  0  0  0  0  0  0  0  0
    8.9240    3.5374    0.0000 H   0  0  0  0  0  0  0  0  0  0  0  0
   11.4787    2.0123    0.0000 H   0  0  0  0  0  0  0  0  0  0  0  0
   11.0802    2.7026    0.0000 H   0  0  0  0  0  0  0  0  0  0  0  0
   10.2575    1.2277    0.0000 H   0  0  0  0  0  0  0  0  0  0  0  0
   10.6560    0.5374    0.0000 H   0  0  0  0  0  0  0  0  0  0  0  0
   11.7341    0.0000    0.0000 H   0  0  0  0  0  0  0  0  0  0  0  0
   12.2711    0.9300    0.0000 H   0  0  0  0  0  0  0  0  0  0  0  0
    3.1350    8.2851    0.0000 H   0  0  0  0  0  0  0  0  0  0  0  0
   17.4061    8.2851    0.0000 H   0  0  0  0  0  0  0  0  0  0  0  0
  1 32  1  0  0  0  0
  2  3  1  0  0  0  0
  2 40  1  0  0  0  0
  3 41  1  0  0  0  0
  4 43  1  0  0  0  0
  5 43  1  0  0  0  0
  6 43  1  0  0  0  0
  7 44  1  0  0  0  0
  8 44  1  0  0  0  0
  9 44  1  0  0  0  0
 10 19  1  0  0  0  0
 10 57  1  0  0  0  0
 11 35  1  0  0  0  0
 11 39  1  0  0  0  0
 12 37  1  0  0  0  0
 12 38  1  0  0  0  0
 13 45  1  0  0  0  0
 13 80  1  0  0  0  0
 14 46  1  0  0  0  0
 14 81  1  0  0  0  0
 15 45  2  0  0  0  0
 16 46  2  0  0  0  0
 17 22  1  0  0  0  0
 17 23  1  0  0  0  0
 17 25  1  0  0  0  0
 18 42  1  0  0  0  0
 18 78  1  0  0  0  0
 18 79  1  0  0  0  0
 19 20  1  0  0  0  0
 19 21  1  0  0  0  0
 19 24  1  0  0  0  0
 20 22  1  0  0  0  0
 20 47  1  0  0  0  0
 20 48  1  0  0  0  0
 21 23  1  0  0  0  0
 21 49  1  0  0  0  0
 21 50  1  0  0  0  0
 22 51  1  0  0  0  0
 22 52  1  0  0  0  0
 23 53  1  0  0  0  0
 23 54  1  0  0  0  0
 24 27  2  0  0  0  0
 24 28  1  0  0  0  0
 25 26  1  0  0  0  0
 25 55  1  0  0  0  0
 25 56  1  0  0  0  0
 26 29  1  0  0  0  0
 26 58  1  0  0  0  0
 26 59  1  0  0  0  0
 27 30  1  0  0  0  0
 27 60  1  0  0  0  0
 28 31  2  0  0  0  0
 28 61  1  0  0  0  0
 29 33  2  0  0  0  0
 29 34  1  0  0  0  0
 30 32  2  0  0  0  0
 30 62  1  0  0  0  0
 31 32  1  0  0  0  0
 31 63  1  0  0  0  0
 33 35  1  0  0  0  0
 33 64  1  0  0  0  0
 34 36  2  0  0  0  0
 34 65  1  0  0  0  0
 35 37  2  0  0  0  0
 36 37  1  0  0  0  0
 36 66  1  0  0  0  0
 38 40  1  0  0  0  0
 38 67  1  0  0  0  0
 38 68  1  0  0  0  0
 39 69  1  0  0  0  0
 39 70  1  0  0  0  0
 39 71  1  0  0  0  0
 40 72  1  0  0  0  0
 40 73  1  0  0  0  0
 41 42  1  0  0  0  0
 41 74  1  0  0  0  0
 41 75  1  0  0  0  0
 42 76  1  0  0  0  0
 42 77  1  0  0  0  0
 43 45  1  0  0  0  0
 44 46  1  0  0  0  0
M  END
> <PUBCHEM_COMPOUND_CID>
137632586

> <PUBCHEM_COMPOUND_CANONICALIZED>
1

> <PUBCHEM_CACTVS_COMPLEXITY>
601

> <PUBCHEM_CACTVS_HBOND_ACCEPTOR>
17

> <PUBCHEM_CACTVS_HBOND_DONOR>
4

> <PUBCHEM_CACTVS_ROTATABLE_BOND>
12

> <PUBCHEM_CACTVS_SUBSKEYS>
AAADcfB7OcBkAAAAAAAAAAAAAAAAAAAAAAA8YIAAAAAAAAABQAAAHwYQCAAADEbl2DayDoNABgCIAiDSCAACCAAgJQAIiIAOiogNJiKFsxuGeCKm0BGKuAeQ0PIOpAABAAAAQABIAAIAAACAAAAAAAAAAA==

> <PUBCHEM_IUPAC_OPENEYE_NAME>
1-[2-[4-[2-(2-aminoethyldisulfanyl)ethoxy]-3-methoxy-phenyl]ethyl]-4-(4-chlorophenyl)piperidin-4-ol;2,2,2-trifluoroacetic acid

> <PUBCHEM_IUPAC_CAS_NAME>
1-[2-[4-[2-(2-aminoethyldisulfanyl)ethoxy]-3-methoxyphenyl]ethyl]-4-(4-chlorophenyl)-4-piperidinol;2,2,2-trifluoroacetic acid

> <PUBCHEM_IUPAC_NAME_MARKUP>
1-[2-[4-[2-(2-aminoethyldisulfanyl)ethoxy]-3-methoxyphenyl]ethyl]-4-(4-chlorophenyl)piperidin-4-ol;2,2,2-trifluoroacetic acid

> <PUBCHEM_IUPAC_NAME>
1-[2-[4-[2-(2-aminoethyldisulfanyl)ethoxy]-3-methoxyphenyl]ethyl]-4-(4-chlorophenyl)piperidin-4-ol;2,2,2-trifluoroacetic acid

> <PUBCHEM_IUPAC_SYSTEMATIC_NAME>
1-[2-[4-[2-(2-azanylethyldisulfanyl)ethoxy]-3-methoxy-phenyl]ethyl]-4-(4-chlorophenyl)piperidin-4-ol;2,2,2-tris(fluoranyl)ethanoic acid

> <PUBCHEM_IUPAC_TRADITIONAL_NAME>
1-[2-[4-[2-(2-aminoethyldisulfanyl)ethoxy]-3-methoxy-phenyl]ethyl]-4-(4-chlorophenyl)piperidin-4-ol;2,2,2-trifluoroacetic acid

> <PUBCHEM_IUPAC_INCHI>
InChI=1S/C24H33ClN2O3S2.2C2HF3O2/c1-29-23-18-19(2-7-22(23)30-15-17-32-31-16-11-26)8-12-27-13-9-24(28,10-14-27)20-3-5-21(25)6-4-20;2*3-2(4,5)1(6)7/h2-7,18,28H,8-17,26H2,1H3;2*(H,6,7)

> <PUBCHEM_IUPAC_INCHIKEY>
VSRBQTZDUTXCJO-UHFFFAOYSA-N

> <PUBCHEM_EXACT_MASS>
724.1478405

> <PUBCHEM_MOLECULAR_FORMULA>
C28H35ClF6N2O7S2

> <PUBCHEM_MOLECULAR_WEIGHT>
725.2

> <PUBCHEM_OPENEYE_CAN_SMILES>
COC1=C(C=CC(=C1)CCN2CCC(CC2)(C3=CC=C(C=C3)Cl)O)OCCSSCCN.C(=O)(C(F)(F)F)O.C(=O)(C(F)(F)F)O

> <PUBCHEM_OPENEYE_ISO_SMILES>
COC1=C(C=CC(=C1)CCN2CCC(CC2)(C3=CC=C(C=C3)Cl)O)OCCSSCCN.C(=O)(C(F)(F)F)O.C(=O)(C(F)(F)F)O

> <PUBCHEM_CACTVS_TPSA>
193

> <PUBCHEM_MONOISOTOPIC_WEIGHT>
724.1478405

> <PUBCHEM_TOTAL_CHARGE>
0

> <PUBCHEM_HEAVY_ATOM_COUNT>
46

> <PUBCHEM_ATOM_DEF_STEREO_COUNT>
0

> <PUBCHEM_ATOM_UDEF_STEREO_COUNT>
0

> <PUBCHEM_BOND_DEF_STEREO_COUNT>
0

> <PUBCHEM_BOND_UDEF_STEREO_COUNT>
0

> <PUBCHEM_ISOTOPIC_ATOM_COUNT>
0

> <PUBCHEM_COMPONENT_COUNT>
3

> <PUBCHEM_CACTVS_TAUTO_COUNT>
-1

> <PUBCHEM_COORDINATE_TYPE>
1
5
255

> <PUBCHEM_BONDANNOTATIONS>
24  27  8
24  28  8
27  30  8
28  31  8
29  33  8
29  34  8
30  32  8
31  32  8
33  35  8
34  36  8
35  37  8
36  37  8

$$$$
