45270903
  -OEChem-09292322282D

 50 53  0     0  0  0  0  0  0999 V2000
    2.0000   -2.8832    0.0000 Cl  0  0  0  0  0  0  0  0  0  0  0  0
    6.7286   -2.1177    0.0000 O   0  0  0  0  0  0  0  0  0  0  0  0
    8.4416    1.3004    0.0000 N   0  0  0  0  0  0  0  0  0  0  0  0
    6.3885   -0.3684    0.0000 N   0  0  0  0  0  0  0  0  0  0  0  0
    5.1135   -1.3646    0.0000 N   0  0  0  0  0  0  0  0  0  0  0  0
   10.4916    1.6069    0.0000 C   0  0  0  0  0  0  0  0  0  0  0  0
   10.7505    2.5728    0.0000 C   0  0  0  0  0  0  0  0  0  0  0  0
   12.1494    2.0640    0.0000 C   0  0  0  0  0  0  0  0  0  0  0  0
   11.8906    1.0981    0.0000 C   0  0  0  0  0  0  0  0  0  0  0  0
   10.3799    3.9215    0.0000 C   0  0  0  0  0  0  0  0  0  0  0  0
    9.5138    3.4215    0.0000 C   0  0  0  0  0  0  0  0  0  0  0  0
    9.2706    0.7412    0.0000 C   0  0  0  0  0  0  0  0  0  0  0  0
    8.7172    2.2617    0.0000 C   0  0  0  0  0  0  0  0  0  0  0  0
    7.5019    0.9584    0.0000 C   0  0  0  0  0  0  0  0  0  0  0  0
    7.3282   -0.0264    0.0000 C   0  0  0  0  0  0  0  0  0  0  0  0
    5.5595    0.1908    0.0000 C   0  0  0  0  0  0  0  0  0  0  0  0
    4.7715   -0.4249    0.0000 C   0  0  0  0  0  0  0  0  0  0  0  0
    6.1129   -1.3297    0.0000 C   0  0  0  0  0  0  0  0  0  0  0  0
    4.5543   -2.1936    0.0000 C   0  0  0  0  0  0  0  0  0  0  0  0
    3.5568   -2.1239    0.0000 C   0  0  0  0  0  0  0  0  0  0  0  0
    4.9927   -3.0924    0.0000 C   0  0  0  0  0  0  0  0  0  0  0  0
    2.9976   -2.9529    0.0000 C   0  0  0  0  0  0  0  0  0  0  0  0
    4.4335   -3.9215    0.0000 C   0  0  0  0  0  0  0  0  0  0  0  0
    3.4359   -3.8517    0.0000 C   0  0  0  0  0  0  0  0  0  0  0  0
   10.5744    0.9924    0.0000 H   0  0  0  0  0  0  0  0  0  0  0  0
   10.6895    1.9558    0.0000 H   0  0  0  0  0  0  0  0  0  0  0  0
   12.3443    2.6526    0.0000 H   0  0  0  0  0  0  0  0  0  0  0  0
   12.7434    1.8862    0.0000 H   0  0  0  0  0  0  0  0  0  0  0  0
   10.1167    4.4828    0.0000 H   0  0  0  0  0  0  0  0  0  0  0  0
   10.9616    4.1360    0.0000 H   0  0  0  0  0  0  0  0  0  0  0  0
   11.6956    0.5095    0.0000 H   0  0  0  0  0  0  0  0  0  0  0  0
   12.4845    0.9203    0.0000 H   0  0  0  0  0  0  0  0  0  0  0  0
    9.2091    3.9614    0.0000 H   0  0  0  0  0  0  0  0  0  0  0  0
    8.9709    3.1220    0.0000 H   0  0  0  0  0  0  0  0  0  0  0  0
    8.8648    0.2725    0.0000 H   0  0  0  0  0  0  0  0  0  0  0  0
    9.6873    0.2821    0.0000 H   0  0  0  0  0  0  0  0  0  0  0  0
    8.7122    2.8817    0.0000 H   0  0  0  0  0  0  0  0  0  0  0  0
    8.1029    2.3455    0.0000 H   0  0  0  0  0  0  0  0  0  0  0  0
    7.3942    1.5690    0.0000 H   0  0  0  0  0  0  0  0  0  0  0  0
    6.8819    0.9584    0.0000 H   0  0  0  0  0  0  0  0  0  0  0  0
    7.4359   -0.6370    0.0000 H   0  0  0  0  0  0  0  0  0  0  0  0
    7.9482   -0.0264    0.0000 H   0  0  0  0  0  0  0  0  0  0  0  0
    5.9580    0.6657    0.0000 H   0  0  0  0  0  0  0  0  0  0  0  0
    5.1288    0.6368    0.0000 H   0  0  0  0  0  0  0  0  0  0  0  0
    4.4429    0.1009    0.0000 H   0  0  0  0  0  0  0  0  0  0  0  0
    4.2142   -0.6967    0.0000 H   0  0  0  0  0  0  0  0  0  0  0  0
    3.2850   -1.5666    0.0000 H   0  0  0  0  0  0  0  0  0  0  0  0
    5.6112   -3.1357    0.0000 H   0  0  0  0  0  0  0  0  0  0  0  0
    4.7053   -4.4787    0.0000 H   0  0  0  0  0  0  0  0  0  0  0  0
    3.0892   -4.3657    0.0000 H   0  0  0  0  0  0  0  0  0  0  0  0
  1 22  1  0  0  0  0
  2 18  2  0  0  0  0
  3 12  1  0  0  0  0
  3 13  1  0  0  0  0
  3 14  1  0  0  0  0
  4 15  1  0  0  0  0
  4 16  1  0  0  0  0
  4 18  1  0  0  0  0
  5 17  1  0  0  0  0
  5 18  1  0  0  0  0
  5 19  1  0  0  0  0
  6  9  1  0  0  0  0
  6 11  1  0  0  0  0
  6 12  1  0  0  0  0
  6 25  1  0  0  0  0
  7  8  1  0  0  0  0
  7 10  1  0  0  0  0
  7 13  1  0  0  0  0
  7 26  1  0  0  0  0
  8  9  1  0  0  0  0
  8 27  1  0  0  0  0
  8 28  1  0  0  0  0
  9 31  1  0  0  0  0
  9 32  1  0  0  0  0
 10 11  1  0  0  0  0
 10 29  1  0  0  0  0
 10 30  1  0  0  0  0
 11 33  1  0  0  0  0
 11 34  1  0  0  0  0
 12 35  1  0  0  0  0
 12 36  1  0  0  0  0
 13 37  1  0  0  0  0
 13 38  1  0  0  0  0
 14 15  1  0  0  0  0
 14 39  1  0  0  0  0
 14 40  1  0  0  0  0
 15 41  1  0  0  0  0
 15 42  1  0  0  0  0
 16 17  1  0  0  0  0
 16 43  1  0  0  0  0
 16 44  1  0  0  0  0
 17 45  1  0  0  0  0
 17 46  1  0  0  0  0
 19 20  2  0  0  0  0
 19 21  1  0  0  0  0
 20 22  1  0  0  0  0
 20 47  1  0  0  0  0
 21 23  2  0  0  0  0
 21 48  1  0  0  0  0
 22 24  2  0  0  0  0
 23 24  1  0  0  0  0
 23 49  1  0  0  0  0
 24 50  1  0  0  0  0
M  END
> <PUBCHEM_COMPOUND_CID>
45270903

> <PUBCHEM_COMPOUND_CANONICALIZED>
1

> <PUBCHEM_CACTVS_COMPLEXITY>
438

> <PUBCHEM_CACTVS_HBOND_ACCEPTOR>
2

> <PUBCHEM_CACTVS_HBOND_DONOR>
0

> <PUBCHEM_CACTVS_ROTATABLE_BOND>
4

> <PUBCHEM_CACTVS_SUBSKEYS>
AAADceB7IAAEAAAAAAAAAAAAAAAAAWAAAAAwYAAABYsAAAABAAAAHgIAAAAADQrBECQxwIMAAACIACRCUACCAAAhBwAIiAAIZoiIYCLBk5GUIAhohgLIyCcQgAAOAAAAAAIAAACAAAAABAAAAAAAAAAAAA==

> <PUBCHEM_IUPAC_OPENEYE_NAME>
1-[2-(3-azabicyclo[3.2.2]nonan-3-yl)ethyl]-3-(3-chlorophenyl)imidazolidin-2-one

> <PUBCHEM_IUPAC_CAS_NAME>
1-[2-(3-azabicyclo[3.2.2]nonan-3-yl)ethyl]-3-(3-chlorophenyl)-2-imidazolidinone

> <PUBCHEM_IUPAC_NAME_MARKUP>
1-[2-(3-azabicyclo[3.2.2]nonan-3-yl)ethyl]-3-(3-chlorophenyl)imidazolidin-2-one

> <PUBCHEM_IUPAC_NAME>
1-[2-(3-azabicyclo[3.2.2]nonan-3-yl)ethyl]-3-(3-chlorophenyl)imidazolidin-2-one

> <PUBCHEM_IUPAC_SYSTEMATIC_NAME>
1-[2-(3-azabicyclo[3.2.2]nonan-3-yl)ethyl]-3-(3-chlorophenyl)imidazolidin-2-one

> <PUBCHEM_IUPAC_TRADITIONAL_NAME>
1-[2-(3-azabicyclo[3.2.2]nonan-3-yl)ethyl]-3-(3-chlorophenyl)-2-imidazolidinone

> <PUBCHEM_IUPAC_INCHI>
InChI=1S/C19H26ClN3O/c20-17-2-1-3-18(12-17)23-11-10-22(19(23)24)9-8-21-13-15-4-5-16(14-21)7-6-15/h1-3,12,15-16H,4-11,13-14H2

> <PUBCHEM_IUPAC_INCHIKEY>
JGRQIRDAIIUUCX-UHFFFAOYSA-N

> <PUBCHEM_XLOGP3_AA>
3.2

> <PUBCHEM_EXACT_MASS>
347.1764402

> <PUBCHEM_MOLECULAR_FORMULA>
C19H26ClN3O

> <PUBCHEM_MOLECULAR_WEIGHT>
347.9

> <PUBCHEM_OPENEYE_CAN_SMILES>
C1CC2CCC1CN(C2)CCN3CCN(C3=O)C4=CC(=CC=C4)Cl

> <PUBCHEM_OPENEYE_ISO_SMILES>
C1CC2CCC1CN(C2)CCN3CCN(C3=O)C4=CC(=CC=C4)Cl

> <PUBCHEM_CACTVS_TPSA>
26.8

> <PUBCHEM_MONOISOTOPIC_WEIGHT>
347.1764402

> <PUBCHEM_TOTAL_CHARGE>
0

> <PUBCHEM_HEAVY_ATOM_COUNT>
24

> <PUBCHEM_ATOM_DEF_STEREO_COUNT>
0

> <PUBCHEM_ATOM_UDEF_STEREO_COUNT>
0

> <PUBCHEM_BOND_DEF_STEREO_COUNT>
0

> <PUBCHEM_BOND_UDEF_STEREO_COUNT>
0

> <PUBCHEM_ISOTOPIC_ATOM_COUNT>
0

> <PUBCHEM_COMPONENT_COUNT>
1

> <PUBCHEM_CACTVS_TAUTO_COUNT>
-1

> <PUBCHEM_COORDINATE_TYPE>
1
5
255

> <PUBCHEM_BONDANNOTATIONS>
19  20  8
19  21  8
20  22  8
21  23  8
22  24  8
23  24  8

$$$$
