135887939
  -OEChem-09292322212D

 68 70  0     0  0  0  0  0  0999 V2000
   11.8620    3.6200    0.0000 O   0  0  0  0  0  0  0  0  0  0  0  0
    3.2018    5.6200    0.0000 O   0  0  0  0  0  0  0  0  0  0  0  0
    8.7976    9.2856    0.0000 O   0  0  0  0  0  0  0  0  0  0  0  0
    4.4674    9.7856    0.0000 O   0  0  0  0  0  0  0  0  0  0  0  0
    7.9315   10.7856    0.0000 O   0  0  0  0  0  0  0  0  0  0  0  0
    5.3334    8.2856    0.0000 O   0  0  0  0  0  0  0  0  0  0  0  0
    8.3979    3.6200    0.0000 N   0  0  0  0  0  0  0  0  0  0  0  0
   10.1300    2.6200    0.0000 N   0  0  0  0  0  0  0  0  0  0  0  0
    4.9338    3.6200    0.0000 N   0  0  0  0  0  0  0  0  0  0  0  0
    3.2018    3.6200    0.0000 N   0  0  0  0  0  0  0  0  0  0  0  0
    8.3979    2.6200    0.0000 C   0  0  0  0  0  0  0  0  0  0  0  0
    9.2640    4.1200    0.0000 C   0  0  0  0  0  0  0  0  0  0  0  0
    9.2640    2.1200    0.0000 C   0  0  0  0  0  0  0  0  0  0  0  0
   10.1300    3.6200    0.0000 C   0  0  0  0  0  0  0  0  0  0  0  0
    7.5319    4.1200    0.0000 C   0  0  0  0  0  0  0  0  0  0  0  0
    6.6659    3.6200    0.0000 C   0  0  0  0  0  0  0  0  0  0  0  0
   10.9960    2.1200    0.0000 C   0  0  0  0  0  0  0  0  0  0  0  0
    5.7998    4.1200    0.0000 C   0  0  0  0  0  0  0  0  0  0  0  0
   11.8620    2.6200    0.0000 C   0  0  0  0  0  0  0  0  0  0  0  0
   10.9960    1.1200    0.0000 C   0  0  0  0  0  0  0  0  0  0  0  0
   12.7281    2.1200    0.0000 C   0  0  0  0  0  0  0  0  0  0  0  0
   11.8620    0.6200    0.0000 C   0  0  0  0  0  0  0  0  0  0  0  0
   12.7281    1.1200    0.0000 C   0  0  0  0  0  0  0  0  0  0  0  0
    4.0678    4.1200    0.0000 C   0  0  0  0  0  0  0  0  0  0  0  0
    4.0678    5.1200    0.0000 C   0  0  0  0  0  0  0  0  0  0  0  0
    2.3358    4.1200    0.0000 C   0  0  0  0  0  0  0  0  0  0  0  0
   12.7281    4.1200    0.0000 C   0  0  0  0  0  0  0  0  0  0  0  0
    2.3358    5.1200    0.0000 C   0  0  0  0  0  0  0  0  0  0  0  0
    1.4418    3.5853    0.0000 C   0  0  0  0  0  0  0  0  0  0  0  0
    1.4418    5.6547    0.0000 C   0  0  0  0  0  0  0  0  0  0  0  0
    0.5357    4.0992    0.0000 C   0  0  0  0  0  0  0  0  0  0  0  0
    0.5357    5.1408    0.0000 C   0  0  0  0  0  0  0  0  0  0  0  0
    7.0655    9.2856    0.0000 C   0  0  0  0  0  0  0  0  0  0  0  0
    6.1995    9.7856    0.0000 C   0  0  0  0  0  0  0  0  0  0  0  0
    7.9315    9.7856    0.0000 C   0  0  0  0  0  0  0  0  0  0  0  0
    5.3334    9.2856    0.0000 C   0  0  0  0  0  0  0  0  0  0  0  0
    7.7873    2.7277    0.0000 H   0  0  0  0  0  0  0  0  0  0  0  0
    8.1859    2.0374    0.0000 H   0  0  0  0  0  0  0  0  0  0  0  0
    9.6625    4.5950    0.0000 H   0  0  0  0  0  0  0  0  0  0  0  0
    8.8654    4.5950    0.0000 H   0  0  0  0  0  0  0  0  0  0  0  0
    8.8654    1.6450    0.0000 H   0  0  0  0  0  0  0  0  0  0  0  0
    9.6625    1.6450    0.0000 H   0  0  0  0  0  0  0  0  0  0  0  0
   10.7406    3.5123    0.0000 H   0  0  0  0  0  0  0  0  0  0  0  0
   10.3420    4.2026    0.0000 H   0  0  0  0  0  0  0  0  0  0  0  0
    7.9304    4.5950    0.0000 H   0  0  0  0  0  0  0  0  0  0  0  0
    7.1334    4.5950    0.0000 H   0  0  0  0  0  0  0  0  0  0  0  0
    6.2673    3.1450    0.0000 H   0  0  0  0  0  0  0  0  0  0  0  0
    7.0644    3.1450    0.0000 H   0  0  0  0  0  0  0  0  0  0  0  0
    6.1984    4.5950    0.0000 H   0  0  0  0  0  0  0  0  0  0  0  0
    5.4013    4.5950    0.0000 H   0  0  0  0  0  0  0  0  0  0  0  0
   10.4591    0.8100    0.0000 H   0  0  0  0  0  0  0  0  0  0  0  0
   13.2650    2.4300    0.0000 H   0  0  0  0  0  0  0  0  0  0  0  0
   11.8620    0.0000    0.0000 H   0  0  0  0  0  0  0  0  0  0  0  0
   13.2650    0.8100    0.0000 H   0  0  0  0  0  0  0  0  0  0  0  0
    4.6784    5.0123    0.0000 H   0  0  0  0  0  0  0  0  0  0  0  0
    4.2798    5.7026    0.0000 H   0  0  0  0  0  0  0  0  0  0  0  0
    3.2018    3.0000    0.0000 H   0  0  0  0  0  0  0  0  0  0  0  0
   13.0381    3.5831    0.0000 H   0  0  0  0  0  0  0  0  0  0  0  0
   13.2650    4.4300    0.0000 H   0  0  0  0  0  0  0  0  0  0  0  0
   12.4180    4.6569    0.0000 H   0  0  0  0  0  0  0  0  0  0  0  0
    1.4490    2.9654    0.0000 H   0  0  0  0  0  0  0  0  0  0  0  0
    1.4490    6.2746    0.0000 H   0  0  0  0  0  0  0  0  0  0  0  0
    0.0000    3.7871    0.0000 H   0  0  0  0  0  0  0  0  0  0  0  0
    0.0000    5.4529    0.0000 H   0  0  0  0  0  0  0  0  0  0  0  0
    7.0655    8.6656    0.0000 H   0  0  0  0  0  0  0  0  0  0  0  0
    6.1995   10.4056    0.0000 H   0  0  0  0  0  0  0  0  0  0  0  0
    9.3345    9.5956    0.0000 H   0  0  0  0  0  0  0  0  0  0  0  0
    3.9305    9.4756    0.0000 H   0  0  0  0  0  0  0  0  0  0  0  0
  1 19  1  0  0  0  0
  1 27  1  0  0  0  0
  2 25  1  0  0  0  0
  2 28  1  0  0  0  0
  3 35  1  0  0  0  0
  3 67  1  0  0  0  0
  4 36  1  0  0  0  0
  4 68  1  0  0  0  0
  5 35  2  0  0  0  0
  6 36  2  0  0  0  0
  7 11  1  0  0  0  0
  7 12  1  0  0  0  0
  7 15  1  0  0  0  0
  8 13  1  0  0  0  0
  8 14  1  0  0  0  0
  8 17  1  0  0  0  0
  9 18  1  0  0  0  0
  9 24  2  0  0  0  0
 10 24  1  0  0  0  0
 10 26  1  0  0  0  0
 10 57  1  0  0  0  0
 11 13  1  0  0  0  0
 11 37  1  0  0  0  0
 11 38  1  0  0  0  0
 12 14  1  0  0  0  0
 12 39  1  0  0  0  0
 12 40  1  0  0  0  0
 13 41  1  0  0  0  0
 13 42  1  0  0  0  0
 14 43  1  0  0  0  0
 14 44  1  0  0  0  0
 15 16  1  0  0  0  0
 15 45  1  0  0  0  0
 15 46  1  0  0  0  0
 16 18  1  0  0  0  0
 16 47  1  0  0  0  0
 16 48  1  0  0  0  0
 17 19  1  0  0  0  0
 17 20  2  0  0  0  0
 18 49  1  0  0  0  0
 18 50  1  0  0  0  0
 19 21  2  0  0  0  0
 20 22  1  0  0  0  0
 20 51  1  0  0  0  0
 21 23  1  0  0  0  0
 21 52  1  0  0  0  0
 22 23  2  0  0  0  0
 22 53  1  0  0  0  0
 23 54  1  0  0  0  0
 24 25  1  0  0  0  0
 25 55  1  0  0  0  0
 25 56  1  0  0  0  0
 26 28  1  0  0  0  0
 26 29  2  0  0  0  0
 27 58  1  0  0  0  0
 27 59  1  0  0  0  0
 27 60  1  0  0  0  0
 28 30  2  0  0  0  0
 29 31  1  0  0  0  0
 29 61  1  0  0  0  0
 30 32  1  0  0  0  0
 30 62  1  0  0  0  0
 31 32  2  0  0  0  0
 31 63  1  0  0  0  0
 32 64  1  0  0  0  0
 33 34  2  0  0  0  0
 33 35  1  0  0  0  0
 33 65  1  0  0  0  0
 34 36  1  0  0  0  0
 34 66  1  0  0  0  0
M  END
> <PUBCHEM_COMPOUND_CID>
135887939

> <PUBCHEM_COMPOUND_CANONICALIZED>
1

> <PUBCHEM_CACTVS_COMPLEXITY>
626

> <PUBCHEM_CACTVS_HBOND_ACCEPTOR>
9

> <PUBCHEM_CACTVS_HBOND_DONOR>
3

> <PUBCHEM_CACTVS_ROTATABLE_BOND>
8

> <PUBCHEM_CACTVS_SUBSKEYS>
AAADcfB7uAAAAAAAAAAAAAAAAAAAAAAAAAA8eIEAAAAAAACxQAAAHgAQCAAACAzhkAYzzoPABgCoACbybASCCAEhIgAJiAAfbMgOZiLE+ZuXOCjk0BHY+YeQQAAAAAAAAAAAEAAAAAAAAAAgAAAAAAAAAA==

> <PUBCHEM_IUPAC_OPENEYE_NAME>
fumaric acid;N-[3-[4-(2-methoxyphenyl)piperazin-1-yl]propyl]-4H-1,4-benzoxazin-3-imine

> <PUBCHEM_IUPAC_CAS_NAME>
(E)-2-butenedioic acid;N-[3-[4-(2-methoxyphenyl)-1-piperazinyl]propyl]-4H-1,4-benzoxazin-3-imine

> <PUBCHEM_IUPAC_NAME_MARKUP>
(<I>E</I>)-but-2-enedioic acid;<I>N</I>-[3-[4-(2-methoxyphenyl)piperazin-1-yl]propyl]-4<I>H</I>-1,4-benzoxazin-3-imine

> <PUBCHEM_IUPAC_NAME>
(E)-but-2-enedioic acid;N-[3-[4-(2-methoxyphenyl)piperazin-1-yl]propyl]-4H-1,4-benzoxazin-3-imine

> <PUBCHEM_IUPAC_SYSTEMATIC_NAME>
(E)-but-2-enedioic acid;N-[3-[4-(2-methoxyphenyl)piperazin-1-yl]propyl]-4H-1,4-benzoxazin-3-imine

> <PUBCHEM_IUPAC_TRADITIONAL_NAME>
4H-1,4-benzoxazin-3-ylidene-[3-[4-(2-methoxyphenyl)piperazino]propyl]amine;fumaric acid

> <PUBCHEM_IUPAC_INCHI>
InChI=1S/C22H28N4O2.C4H4O4/c1-27-21-10-5-3-8-19(21)26-15-13-25(14-16-26)12-6-11-23-22-17-28-20-9-4-2-7-18(20)24-22;5-3(6)1-2-4(7)8/h2-5,7-10H,6,11-17H2,1H3,(H,23,24);1-2H,(H,5,6)(H,7,8)/b;2-1+

> <PUBCHEM_IUPAC_INCHIKEY>
AEHHITPXKWKWPS-WLHGVMLRSA-N

> <PUBCHEM_EXACT_MASS>
496.23218475

> <PUBCHEM_MOLECULAR_FORMULA>
C26H32N4O6

> <PUBCHEM_MOLECULAR_WEIGHT>
496.6

> <PUBCHEM_OPENEYE_CAN_SMILES>
COC1=CC=CC=C1N2CCN(CC2)CCCN=C3COC4=CC=CC=C4N3.C(=CC(=O)O)C(=O)O

> <PUBCHEM_OPENEYE_ISO_SMILES>
COC1=CC=CC=C1N2CCN(CC2)CCCN=C3COC4=CC=CC=C4N3.C(=C/C(=O)O)\C(=O)O

> <PUBCHEM_CACTVS_TPSA>
124

> <PUBCHEM_MONOISOTOPIC_WEIGHT>
496.23218475

> <PUBCHEM_TOTAL_CHARGE>
0

> <PUBCHEM_HEAVY_ATOM_COUNT>
36

> <PUBCHEM_ATOM_DEF_STEREO_COUNT>
0

> <PUBCHEM_ATOM_UDEF_STEREO_COUNT>
0

> <PUBCHEM_BOND_DEF_STEREO_COUNT>
1

> <PUBCHEM_BOND_UDEF_STEREO_COUNT>
0

> <PUBCHEM_ISOTOPIC_ATOM_COUNT>
0

> <PUBCHEM_COMPONENT_COUNT>
2

> <PUBCHEM_CACTVS_TAUTO_COUNT>
-1

> <PUBCHEM_COORDINATE_TYPE>
1
5
255

> <PUBCHEM_BONDANNOTATIONS>
17  19  8
17  20  8
19  21  8
20  22  8
21  23  8
22  23  8
26  28  8
26  29  8
28  30  8
29  31  8
30  32  8
31  32  8

$$$$
