162657622
  -OEChem-09292322422D

 56 60  0     1  0  0  0  0  0999 V2000
   16.6912    0.9457    0.0000 Cl  0  0  0  0  0  0  0  0  0  0  0  0
   11.4290   -1.0785    0.0000 S   0  0  0  0  0  0  0  0  0  0  0  0
   10.9290   -0.2124    0.0000 O   0  0  0  0  0  0  0  0  0  0  0  0
   11.9290   -1.9445    0.0000 O   0  0  0  0  0  0  0  0  0  0  0  0
    4.4550    2.1985    0.0000 O   0  0  0  0  0  0  0  0  0  0  0  0
    8.1143   -0.7421    0.0000 N   0  0  3  0  0  0  0  0  0  0  0  0
   10.5630   -1.5785    0.0000 N   0  0  0  0  0  0  0  0  0  0  0  0
    5.2577    1.6121    0.0000 N   0  0  0  0  0  0  0  0  0  0  0  0
    9.6969   -1.0785    0.0000 C   0  0  1  0  0  0  0  0  0  0  0  0
    8.7834   -1.4852    0.0000 C   0  0  0  0  0  0  0  0  0  0  0  0
    9.5924   -0.0839    0.0000 C   0  0  0  0  0  0  0  0  0  0  0  0
    8.6143    0.1240    0.0000 C   0  0  0  0  0  0  0  0  0  0  0  0
    7.1197   -0.8466    0.0000 C   0  0  0  0  0  0  0  0  0  0  0  0
    6.5320   -0.0376    0.0000 C   0  0  0  0  0  0  0  0  0  0  0  0
    5.5374   -0.1421    0.0000 C   0  0  0  0  0  0  0  0  0  0  0  0
   12.2950   -0.5785    0.0000 C   0  0  0  0  0  0  0  0  0  0  0  0
    4.9496    0.6669    0.0000 C   0  0  0  0  0  0  0  0  0  0  0  0
   13.1610   -1.0785    0.0000 C   0  0  0  0  0  0  0  0  0  0  0  0
   12.2950    0.4215    0.0000 C   0  0  0  0  0  0  0  0  0  0  0  0
    3.9556    0.6661    0.0000 C   0  0  0  0  0  0  0  0  0  0  0  0
   14.0271   -0.5785    0.0000 C   0  0  0  0  0  0  0  0  0  0  0  0
   14.0271    0.4215    0.0000 C   0  0  0  0  0  0  0  0  0  0  0  0
   13.1610    0.9215    0.0000 C   0  0  0  0  0  0  0  0  0  0  0  0
    3.6482    1.6176    0.0000 C   0  0  0  0  0  0  0  0  0  0  0  0
    3.2852   -0.0759    0.0000 C   0  0  0  0  0  0  0  0  0  0  0  0
   14.9210   -1.1131    0.0000 C   0  0  0  0  0  0  0  0  0  0  0  0
   14.9210    0.9562    0.0000 C   0  0  0  0  0  0  0  0  0  0  0  0
    2.6704    1.8272    0.0000 C   0  0  0  0  0  0  0  0  0  0  0  0
    2.3074    0.1337    0.0000 C   0  0  0  0  0  0  0  0  0  0  0  0
   15.8271   -0.5993    0.0000 C   0  0  0  0  0  0  0  0  0  0  0  0
    2.0000    1.0853    0.0000 C   0  0  0  0  0  0  0  0  0  0  0  0
   15.8271    0.4423    0.0000 C   0  0  0  0  0  0  0  0  0  0  0  0
   10.2169   -0.7408    0.0000 H   0  0  0  0  0  0  0  0  0  0  0  0
    8.2818   -1.8496    0.0000 H   0  0  0  0  0  0  0  0  0  0  0  0
    9.0934   -2.0221    0.0000 H   0  0  0  0  0  0  0  0  0  0  0  0
   10.2124   -0.0839    0.0000 H   0  0  0  0  0  0  0  0  0  0  0  0
    9.6572    0.5327    0.0000 H   0  0  0  0  0  0  0  0  0  0  0  0
    8.8059    0.7136    0.0000 H   0  0  0  0  0  0  0  0  0  0  0  0
    8.0479    0.3761    0.0000 H   0  0  0  0  0  0  0  0  0  0  0  0
    6.5625   -1.1184    0.0000 H   0  0  0  0  0  0  0  0  0  0  0  0
    7.2906   -1.4426    0.0000 H   0  0  0  0  0  0  0  0  0  0  0  0
   10.5630   -2.1985    0.0000 H   0  0  0  0  0  0  0  0  0  0  0  0
    7.0892    0.2342    0.0000 H   0  0  0  0  0  0  0  0  0  0  0  0
    6.3611    0.5584    0.0000 H   0  0  0  0  0  0  0  0  0  0  0  0
    4.9802   -0.4139    0.0000 H   0  0  0  0  0  0  0  0  0  0  0  0
    5.7083   -0.7381    0.0000 H   0  0  0  0  0  0  0  0  0  0  0  0
   13.1610   -1.6985    0.0000 H   0  0  0  0  0  0  0  0  0  0  0  0
   11.7581    0.7315    0.0000 H   0  0  0  0  0  0  0  0  0  0  0  0
   13.1610    1.5415    0.0000 H   0  0  0  0  0  0  0  0  0  0  0  0
    3.4757   -0.6659    0.0000 H   0  0  0  0  0  0  0  0  0  0  0  0
   14.9138   -1.7331    0.0000 H   0  0  0  0  0  0  0  0  0  0  0  0
   14.9138    1.5762    0.0000 H   0  0  0  0  0  0  0  0  0  0  0  0
    2.4798    2.4172    0.0000 H   0  0  0  0  0  0  0  0  0  0  0  0
    1.8917   -0.3264    0.0000 H   0  0  0  0  0  0  0  0  0  0  0  0
   16.3628   -0.9114    0.0000 H   0  0  0  0  0  0  0  0  0  0  0  0
    1.3938    1.2152    0.0000 H   0  0  0  0  0  0  0  0  0  0  0  0
  1 32  1  0  0  0  0
  2  3  2  0  0  0  0
  2  4  2  0  0  0  0
  2  7  1  0  0  0  0
  2 16  1  0  0  0  0
  5  8  1  0  0  0  0
  5 24  1  0  0  0  0
  6 10  1  0  0  0  0
  6 12  1  0  0  0  0
  6 13  1  0  0  0  0
  9  7  1  1  0  0  0
  7 42  1  0  0  0  0
  8 17  2  0  0  0  0
  9 10  1  0  0  0  0
  9 11  1  0  0  0  0
  9 33  1  0  0  0  0
 10 34  1  0  0  0  0
 10 35  1  0  0  0  0
 11 12  1  0  0  0  0
 11 36  1  0  0  0  0
 11 37  1  0  0  0  0
 12 38  1  0  0  0  0
 12 39  1  0  0  0  0
 13 14  1  0  0  0  0
 13 40  1  0  0  0  0
 13 41  1  0  0  0  0
 14 15  1  0  0  0  0
 14 43  1  0  0  0  0
 14 44  1  0  0  0  0
 15 17  1  0  0  0  0
 15 45  1  0  0  0  0
 15 46  1  0  0  0  0
 16 18  2  0  0  0  0
 16 19  1  0  0  0  0
 17 20  1  0  0  0  0
 18 21  1  0  0  0  0
 18 47  1  0  0  0  0
 19 23  2  0  0  0  0
 19 48  1  0  0  0  0
 20 24  1  0  0  0  0
 20 25  2  0  0  0  0
 21 22  2  0  0  0  0
 21 26  1  0  0  0  0
 22 23  1  0  0  0  0
 22 27  1  0  0  0  0
 23 49  1  0  0  0  0
 24 28  2  0  0  0  0
 25 29  1  0  0  0  0
 25 50  1  0  0  0  0
 26 30  2  0  0  0  0
 26 51  1  0  0  0  0
 27 32  2  0  0  0  0
 27 52  1  0  0  0  0
 28 31  1  0  0  0  0
 28 53  1  0  0  0  0
 29 31  2  0  0  0  0
 29 54  1  0  0  0  0
 30 32  1  0  0  0  0
 30 55  1  0  0  0  0
 31 56  1  0  0  0  0
M  END
> <PUBCHEM_COMPOUND_CID>
162657622

> <PUBCHEM_COMPOUND_CANONICALIZED>
1

> <PUBCHEM_CACTVS_COMPLEXITY>
733

> <PUBCHEM_CACTVS_HBOND_ACCEPTOR>
6

> <PUBCHEM_CACTVS_HBOND_DONOR>
1

> <PUBCHEM_CACTVS_ROTATABLE_BOND>
7

> <PUBCHEM_CACTVS_SUBSKEYS>
AAADceB7MABEAAAAAAAAAAAAAAAAAWLAAAAwYMAAAAAAAFjB9AAAHgYUQAAADC7B3iQwh9NQAAKpA6RyQnDCABAkJQAomLk+TtoIZrqB15OUMYBm0BmIyceYyKCOlAAAoAAYAAAoAAFAADAAAAAAAAAAAA==

> <PUBCHEM_IUPAC_OPENEYE_NAME>
N-[(3R)-1-[3-(1,2-benzoxazol-3-yl)propyl]pyrrolidin-3-yl]-6-chloro-naphthalene-2-sulfonamide

> <PUBCHEM_IUPAC_CAS_NAME>
N-[(3R)-1-[3-(1,2-benzoxazol-3-yl)propyl]-3-pyrrolidinyl]-6-chloro-2-naphthalenesulfonamide

> <PUBCHEM_IUPAC_NAME_MARKUP>
<I>N</I>-[(3<I>R</I>)-1-[3-(1,2-benzoxazol-3-yl)propyl]pyrrolidin-3-yl]-6-chloronaphthalene-2-sulfonamide

> <PUBCHEM_IUPAC_NAME>
N-[(3R)-1-[3-(1,2-benzoxazol-3-yl)propyl]pyrrolidin-3-yl]-6-chloronaphthalene-2-sulfonamide

> <PUBCHEM_IUPAC_SYSTEMATIC_NAME>
N-[(3R)-1-[3-(1,2-benzoxazol-3-yl)propyl]pyrrolidin-3-yl]-6-chloranyl-naphthalene-2-sulfonamide

> <PUBCHEM_IUPAC_TRADITIONAL_NAME>
6-chloro-N-[(3R)-1-(3-indoxazen-3-ylpropyl)pyrrolidin-3-yl]naphthalene-2-sulfonamide

> <PUBCHEM_IUPAC_INCHI>
InChI=1S/C24H24ClN3O3S/c25-19-9-7-18-15-21(10-8-17(18)14-19)32(29,30)27-20-11-13-28(16-20)12-3-5-23-22-4-1-2-6-24(22)31-26-23/h1-2,4,6-10,14-15,20,27H,3,5,11-13,16H2/t20-/m1/s1

> <PUBCHEM_IUPAC_INCHIKEY>
QUGHLFHSMAECME-HXUWFJFHSA-N

> <PUBCHEM_XLOGP3_AA>
5.1

> <PUBCHEM_EXACT_MASS>
469.1226905

> <PUBCHEM_MOLECULAR_FORMULA>
C24H24ClN3O3S

> <PUBCHEM_MOLECULAR_WEIGHT>
470.0

> <PUBCHEM_OPENEYE_CAN_SMILES>
C1CN(CC1NS(=O)(=O)C2=CC3=C(C=C2)C=C(C=C3)Cl)CCCC4=NOC5=CC=CC=C54

> <PUBCHEM_OPENEYE_ISO_SMILES>
C1CN(C[C@@H]1NS(=O)(=O)C2=CC3=C(C=C2)C=C(C=C3)Cl)CCCC4=NOC5=CC=CC=C54

> <PUBCHEM_CACTVS_TPSA>
83.8

> <PUBCHEM_MONOISOTOPIC_WEIGHT>
469.1226905

> <PUBCHEM_TOTAL_CHARGE>
0

> <PUBCHEM_HEAVY_ATOM_COUNT>
32

> <PUBCHEM_ATOM_DEF_STEREO_COUNT>
1

> <PUBCHEM_ATOM_UDEF_STEREO_COUNT>
0

> <PUBCHEM_BOND_DEF_STEREO_COUNT>
0

> <PUBCHEM_BOND_UDEF_STEREO_COUNT>
0

> <PUBCHEM_ISOTOPIC_ATOM_COUNT>
0

> <PUBCHEM_COMPONENT_COUNT>
1

> <PUBCHEM_CACTVS_TAUTO_COUNT>
-1

> <PUBCHEM_COORDINATE_TYPE>
1
5
255

> <PUBCHEM_BONDANNOTATIONS>
16  18  8
16  19  8
17  20  8
18  21  8
19  23  8
20  24  8
20  25  8
21  22  8
21  26  8
22  23  8
22  27  8
24  28  8
25  29  8
26  30  8
27  32  8
28  31  8
29  31  8
30  32  8
5  24  8
5  8  8
9  7  5
8  17  8

$$$$
