127038076
  -OEChem-09292322362D

 57 59  0     0  0  0  0  0  0999 V2000
    3.0000    3.0000    0.0000 Cl  0  0  0  0  0  0  0  0  0  0  0  0
    4.7320    0.0000    0.0000 Cl  0  0  0  0  0  0  0  0  0  0  0  0
    0.0000    5.8036    0.0000 Cl  0  0  0  0  0  0  0  0  0  0  0  0
    8.4128   11.7024    0.0000 O   0  0  0  0  0  0  0  0  0  0  0  0
    4.7320    6.0000    0.0000 N   0  0  0  0  0  0  0  0  0  0  0  0
    4.7320    4.0000    0.0000 N   0  0  0  0  0  0  0  0  0  0  0  0
    6.4641   10.0000    0.0000 N   0  0  0  0  0  0  0  0  0  0  0  0
    8.2437   10.0933    0.0000 N   0  0  0  0  0  0  0  0  0  0  0  0
    7.4347   11.4945    0.0000 N   0  0  0  0  0  0  0  0  0  0  0  0
    3.8660    5.5000    0.0000 C   0  0  0  0  0  0  0  0  0  0  0  0
    5.5981    5.5000    0.0000 C   0  0  0  0  0  0  0  0  0  0  0  0
    3.8660    4.5000    0.0000 C   0  0  0  0  0  0  0  0  0  0  0  0
    5.5981    4.5000    0.0000 C   0  0  0  0  0  0  0  0  0  0  0  0
    4.7320    7.0000    0.0000 C   0  0  0  0  0  0  0  0  0  0  0  0
    5.5981    7.5000    0.0000 C   0  0  0  0  0  0  0  0  0  0  0  0
    4.7320    3.0000    0.0000 C   0  0  0  0  0  0  0  0  0  0  0  0
    5.5981    8.5000    0.0000 C   0  0  0  0  0  0  0  0  0  0  0  0
    6.4641    9.0000    0.0000 C   0  0  0  0  0  0  0  0  0  0  0  0
    3.8660    2.5000    0.0000 C   0  0  0  0  0  0  0  0  0  0  0  0
    5.5981    2.5000    0.0000 C   0  0  0  0  0  0  0  0  0  0  0  0
    3.8660    1.5000    0.0000 C   0  0  0  0  0  0  0  0  0  0  0  0
    5.5981    1.5000    0.0000 C   0  0  0  0  0  0  0  0  0  0  0  0
    4.7320    1.0000    0.0000 C   0  0  0  0  0  0  0  0  0  0  0  0
    7.3301   10.5000    0.0000 C   0  0  0  0  0  0  0  0  0  0  0  0
    8.9128   10.8364    0.0000 C   0  0  0  0  0  0  0  0  0  0  0  0
    9.9073   10.7319    0.0000 C   0  0  0  0  0  0  0  0  0  0  0  0
   10.4951   11.5409    0.0000 C   0  0  0  0  0  0  0  0  0  0  0  0
   10.3141    9.8183    0.0000 C   0  0  0  0  0  0  0  0  0  0  0  0
   11.4896   11.4364    0.0000 C   0  0  0  0  0  0  0  0  0  0  0  0
   11.3086    9.7138    0.0000 C   0  0  0  0  0  0  0  0  0  0  0  0
   11.8964   10.5228    0.0000 C   0  0  0  0  0  0  0  0  0  0  0  0
    3.6540    6.0826    0.0000 H   0  0  0  0  0  0  0  0  0  0  0  0
    3.2554    5.3923    0.0000 H   0  0  0  0  0  0  0  0  0  0  0  0
    6.2087    5.3923    0.0000 H   0  0  0  0  0  0  0  0  0  0  0  0
    5.8101    6.0826    0.0000 H   0  0  0  0  0  0  0  0  0  0  0  0
    3.2554    4.6077    0.0000 H   0  0  0  0  0  0  0  0  0  0  0  0
    3.6540    3.9174    0.0000 H   0  0  0  0  0  0  0  0  0  0  0  0
    5.8101    3.9174    0.0000 H   0  0  0  0  0  0  0  0  0  0  0  0
    6.2087    4.6077    0.0000 H   0  0  0  0  0  0  0  0  0  0  0  0
    4.5200    7.5826    0.0000 H   0  0  0  0  0  0  0  0  0  0  0  0
    4.1215    6.8923    0.0000 H   0  0  0  0  0  0  0  0  0  0  0  0
    5.8101    6.9174    0.0000 H   0  0  0  0  0  0  0  0  0  0  0  0
    6.2087    7.6077    0.0000 H   0  0  0  0  0  0  0  0  0  0  0  0
    5.3860    9.0826    0.0000 H   0  0  0  0  0  0  0  0  0  0  0  0
    4.9875    8.3923    0.0000 H   0  0  0  0  0  0  0  0  0  0  0  0
    6.6762    8.4174    0.0000 H   0  0  0  0  0  0  0  0  0  0  0  0
    7.0747    9.1077    0.0000 H   0  0  0  0  0  0  0  0  0  0  0  0
    6.1350    2.8100    0.0000 H   0  0  0  0  0  0  0  0  0  0  0  0
    5.9272   10.3100    0.0000 H   0  0  0  0  0  0  0  0  0  0  0  0
    3.3291    1.1900    0.0000 H   0  0  0  0  0  0  0  0  0  0  0  0
    6.1350    1.1900    0.0000 H   0  0  0  0  0  0  0  0  0  0  0  0
   10.2429   12.1073    0.0000 H   0  0  0  0  0  0  0  0  0  0  0  0
    9.9496    9.3167    0.0000 H   0  0  0  0  0  0  0  0  0  0  0  0
   11.8541   11.9380    0.0000 H   0  0  0  0  0  0  0  0  0  0  0  0
   11.5608    9.1474    0.0000 H   0  0  0  0  0  0  0  0  0  0  0  0
   12.5130   10.4580    0.0000 H   0  0  0  0  0  0  0  0  0  0  0  0
    1.0000    5.8036    0.0000 H   0  0  0  0  0  0  0  0  0  0  0  0
  1 19  1  0  0  0  0
  2 23  1  0  0  0  0
  3 57  1  0  0  0  0
  4  9  1  0  0  0  0
  4 25  1  0  0  0  0
  5 10  1  0  0  0  0
  5 11  1  0  0  0  0
  5 14  1  0  0  0  0
  6 12  1  0  0  0  0
  6 13  1  0  0  0  0
  6 16  1  0  0  0  0
  7 18  1  0  0  0  0
  7 24  1  0  0  0  0
  7 49  1  0  0  0  0
  8 24  1  0  0  0  0
  8 25  2  0  0  0  0
  9 24  2  0  0  0  0
 10 12  1  0  0  0  0
 10 32  1  0  0  0  0
 10 33  1  0  0  0  0
 11 13  1  0  0  0  0
 11 34  1  0  0  0  0
 11 35  1  0  0  0  0
 12 36  1  0  0  0  0
 12 37  1  0  0  0  0
 13 38  1  0  0  0  0
 13 39  1  0  0  0  0
 14 15  1  0  0  0  0
 14 40  1  0  0  0  0
 14 41  1  0  0  0  0
 15 17  1  0  0  0  0
 15 42  1  0  0  0  0
 15 43  1  0  0  0  0
 16 19  2  0  0  0  0
 16 20  1  0  0  0  0
 17 18  1  0  0  0  0
 17 44  1  0  0  0  0
 17 45  1  0  0  0  0
 18 46  1  0  0  0  0
 18 47  1  0  0  0  0
 19 21  1  0  0  0  0
 20 22  2  0  0  0  0
 20 48  1  0  0  0  0
 21 23  2  0  0  0  0
 21 50  1  0  0  0  0
 22 23  1  0  0  0  0
 22 51  1  0  0  0  0
 25 26  1  0  0  0  0
 26 27  2  0  0  0  0
 26 28  1  0  0  0  0
 27 29  1  0  0  0  0
 27 52  1  0  0  0  0
 28 30  2  0  0  0  0
 28 53  1  0  0  0  0
 29 31  2  0  0  0  0
 29 54  1  0  0  0  0
 30 31  1  0  0  0  0
 30 55  1  0  0  0  0
 31 56  1  0  0  0  0
M  END
> <PUBCHEM_COMPOUND_CID>
127038076

> <PUBCHEM_COMPOUND_CANONICALIZED>
1

> <PUBCHEM_CACTVS_COMPLEXITY>
502

> <PUBCHEM_CACTVS_HBOND_ACCEPTOR>
6

> <PUBCHEM_CACTVS_HBOND_DONOR>
2

> <PUBCHEM_CACTVS_ROTATABLE_BOND>
8

> <PUBCHEM_CACTVS_SUBSKEYS>
AAADceB7oAAGAAAAAAAAAAAAAAAAAWAAAAA8YIAAAAAAAAAB0AAAHgIUAAAADArBmiQx0IfYEACpAiVydgCCgAklB6AJiKEobtiIbrLBn5HUMQhs0QPIyYeYyCCOAABAAACAABAAAIAAAQAAIAAAAAAAAA==

> <PUBCHEM_IUPAC_OPENEYE_NAME>
N-[4-[4-(2,4-dichlorophenyl)piperazin-1-yl]butyl]-5-phenyl-1,2,4-oxadiazol-3-amine;hydrochloride

> <PUBCHEM_IUPAC_CAS_NAME>
N-[4-[4-(2,4-dichlorophenyl)-1-piperazinyl]butyl]-5-phenyl-1,2,4-oxadiazol-3-amine;hydrochloride

> <PUBCHEM_IUPAC_NAME_MARKUP>
<I>N</I>-[4-[4-(2,4-dichlorophenyl)piperazin-1-yl]butyl]-5-phenyl-1,2,4-oxadiazol-3-amine;hydrochloride

> <PUBCHEM_IUPAC_NAME>
N-[4-[4-(2,4-dichlorophenyl)piperazin-1-yl]butyl]-5-phenyl-1,2,4-oxadiazol-3-amine;hydrochloride

> <PUBCHEM_IUPAC_SYSTEMATIC_NAME>
N-[4-[4-(2,4-dichlorophenyl)piperazin-1-yl]butyl]-5-phenyl-1,2,4-oxadiazol-3-amine;hydrochloride

> <PUBCHEM_IUPAC_TRADITIONAL_NAME>
4-[4-(2,4-dichlorophenyl)piperazino]butyl-(5-phenyl-1,2,4-oxadiazol-3-yl)amine;hydrochloride

> <PUBCHEM_IUPAC_INCHI>
InChI=1S/C22H25Cl2N5O.ClH/c23-18-8-9-20(19(24)16-18)29-14-12-28(13-15-29)11-5-4-10-25-22-26-21(30-27-22)17-6-2-1-3-7-17;/h1-3,6-9,16H,4-5,10-15H2,(H,25,27);1H

> <PUBCHEM_IUPAC_INCHIKEY>
STYCWWIKECWBBA-UHFFFAOYSA-N

> <PUBCHEM_EXACT_MASS>
481.120294

> <PUBCHEM_MOLECULAR_FORMULA>
C22H26Cl3N5O

> <PUBCHEM_MOLECULAR_WEIGHT>
482.8

> <PUBCHEM_OPENEYE_CAN_SMILES>
C1CN(CCN1CCCCNC2=NOC(=N2)C3=CC=CC=C3)C4=C(C=C(C=C4)Cl)Cl.Cl

> <PUBCHEM_OPENEYE_ISO_SMILES>
C1CN(CCN1CCCCNC2=NOC(=N2)C3=CC=CC=C3)C4=C(C=C(C=C4)Cl)Cl.Cl

> <PUBCHEM_CACTVS_TPSA>
57.4

> <PUBCHEM_MONOISOTOPIC_WEIGHT>
481.120294

> <PUBCHEM_TOTAL_CHARGE>
0

> <PUBCHEM_HEAVY_ATOM_COUNT>
31

> <PUBCHEM_ATOM_DEF_STEREO_COUNT>
0

> <PUBCHEM_ATOM_UDEF_STEREO_COUNT>
0

> <PUBCHEM_BOND_DEF_STEREO_COUNT>
0

> <PUBCHEM_BOND_UDEF_STEREO_COUNT>
0

> <PUBCHEM_ISOTOPIC_ATOM_COUNT>
0

> <PUBCHEM_COMPONENT_COUNT>
2

> <PUBCHEM_CACTVS_TAUTO_COUNT>
-1

> <PUBCHEM_COORDINATE_TYPE>
1
5
255

> <PUBCHEM_BONDANNOTATIONS>
16  19  8
16  20  8
19  21  8
20  22  8
21  23  8
22  23  8
26  27  8
26  28  8
27  29  8
28  30  8
29  31  8
30  31  8
4  25  8
4  9  8
8  24  8
8  25  8
9  24  8

$$$$
