145985050
  -OEChem-09292322392D

 65 70  0     1  0  0  0  0  0999 V2000
    4.6660    0.1692    0.0000 S   0  0  0  0  0  0  0  0  0  0  0  0
   14.5199    2.6815    0.0000 F   0  0  0  0  0  0  0  0  0  0  0  0
    5.6660    0.1692    0.0000 O   0  0  0  0  0  0  0  0  0  0  0  0
    3.6660    0.1692    0.0000 O   0  0  0  0  0  0  0  0  0  0  0  0
   12.2739   -0.0673    0.0000 O   0  0  0  0  0  0  0  0  0  0  0  0
    4.6660    1.1692    0.0000 N   0  0  3  0  0  0  0  0  0  0  0  0
    8.1203    1.8080    0.0000 N   0  0  0  0  0  0  0  0  0  0  0  0
   11.2798   -0.0647    0.0000 N   0  0  0  0  0  0  0  0  0  0  0  0
    5.5321   -2.3308    0.0000 N   0  0  0  0  0  0  0  0  0  0  0  0
    5.4751    1.7570    0.0000 C   0  0  1  0  0  0  0  0  0  0  0  0
    5.1660    2.7080    0.0000 C   0  0  0  0  0  0  0  0  0  0  0  0
    6.4261    1.4479    0.0000 C   0  0  0  0  0  0  0  0  0  0  0  0
    4.1660    2.7080    0.0000 C   0  0  0  0  0  0  0  0  0  0  0  0
    3.8570    1.7570    0.0000 C   0  0  0  0  0  0  0  0  0  0  0  0
    7.1692    2.1171    0.0000 C   0  0  0  0  0  0  0  0  0  0  0  0
   10.0224    1.1900    0.0000 C   0  0  0  0  0  0  0  0  0  0  0  0
    8.3282    0.8299    0.0000 C   0  0  0  0  0  0  0  0  0  0  0  0
    8.8634    2.4772    0.0000 C   0  0  0  0  0  0  0  0  0  0  0  0
    9.2793    0.5209    0.0000 C   0  0  0  0  0  0  0  0  0  0  0  0
    9.8145    2.1682    0.0000 C   0  0  0  0  0  0  0  0  0  0  0  0
   10.9735    0.8810    0.0000 C   0  0  0  0  0  0  0  0  0  0  0  0
    4.6660   -0.8308    0.0000 C   0  0  0  0  0  0  0  0  0  0  0  0
   11.7772    1.4660    0.0000 C   0  0  0  0  0  0  0  0  0  0  0  0
    3.8000   -1.3308    0.0000 C   0  0  0  0  0  0  0  0  0  0  0  0
    5.5321   -1.3308    0.0000 C   0  0  0  0  0  0  0  0  0  0  0  0
   12.5852    0.8768    0.0000 C   0  0  0  0  0  0  0  0  0  0  0  0
   11.8834    2.4603    0.0000 C   0  0  0  0  0  0  0  0  0  0  0  0
    3.8000   -2.3308    0.0000 C   0  0  0  0  0  0  0  0  0  0  0  0
    2.9061   -0.7962    0.0000 C   0  0  0  0  0  0  0  0  0  0  0  0
   13.4994    1.2820    0.0000 C   0  0  0  0  0  0  0  0  0  0  0  0
    4.6660   -2.8308    0.0000 C   0  0  0  0  0  0  0  0  0  0  0  0
   12.7977    2.8655    0.0000 C   0  0  0  0  0  0  0  0  0  0  0  0
    2.9061   -2.8655    0.0000 C   0  0  0  0  0  0  0  0  0  0  0  0
   13.6057    2.2763    0.0000 C   0  0  0  0  0  0  0  0  0  0  0  0
    2.0000   -1.3100    0.0000 C   0  0  0  0  0  0  0  0  0  0  0  0
    2.0000   -2.3516    0.0000 C   0  0  0  0  0  0  0  0  0  0  0  0
    5.5720    1.1446    0.0000 H   0  0  0  0  0  0  0  0  0  0  0  0
    5.7725    2.8369    0.0000 H   0  0  0  0  0  0  0  0  0  0  0  0
    5.1012    3.3246    0.0000 H   0  0  0  0  0  0  0  0  0  0  0  0
    6.1350    0.9005    0.0000 H   0  0  0  0  0  0  0  0  0  0  0  0
    6.9147    1.0662    0.0000 H   0  0  0  0  0  0  0  0  0  0  0  0
    4.2308    3.3246    0.0000 H   0  0  0  0  0  0  0  0  0  0  0  0
    3.5596    2.8369    0.0000 H   0  0  0  0  0  0  0  0  0  0  0  0
    3.2906    2.0091    0.0000 H   0  0  0  0  0  0  0  0  0  0  0  0
    3.5470    1.2200    0.0000 H   0  0  0  0  0  0  0  0  0  0  0  0
    7.4603    2.6645    0.0000 H   0  0  0  0  0  0  0  0  0  0  0  0
    6.6807    2.4988    0.0000 H   0  0  0  0  0  0  0  0  0  0  0  0
   10.1513    0.5836    0.0000 H   0  0  0  0  0  0  0  0  0  0  0  0
    7.7086    0.8083    0.0000 H   0  0  0  0  0  0  0  0  0  0  0  0
    8.2419    0.2159    0.0000 H   0  0  0  0  0  0  0  0  0  0  0  0
    9.1545    3.0246    0.0000 H   0  0  0  0  0  0  0  0  0  0  0  0
    8.3749    2.8589    0.0000 H   0  0  0  0  0  0  0  0  0  0  0  0
    8.9882   -0.0265    0.0000 H   0  0  0  0  0  0  0  0  0  0  0  0
    9.7678    0.1392    0.0000 H   0  0  0  0  0  0  0  0  0  0  0  0
   10.4341    2.1898    0.0000 H   0  0  0  0  0  0  0  0  0  0  0  0
    9.9008    2.7821    0.0000 H   0  0  0  0  0  0  0  0  0  0  0  0
    6.0690   -1.0208    0.0000 H   0  0  0  0  0  0  0  0  0  0  0  0
   11.3825    2.8256    0.0000 H   0  0  0  0  0  0  0  0  0  0  0  0
    2.9132   -0.1762    0.0000 H   0  0  0  0  0  0  0  0  0  0  0  0
   14.0004    0.9167    0.0000 H   0  0  0  0  0  0  0  0  0  0  0  0
    4.6660   -3.4508    0.0000 H   0  0  0  0  0  0  0  0  0  0  0  0
   12.8636    3.4820    0.0000 H   0  0  0  0  0  0  0  0  0  0  0  0
    2.9132   -3.4854    0.0000 H   0  0  0  0  0  0  0  0  0  0  0  0
    1.4643   -0.9980    0.0000 H   0  0  0  0  0  0  0  0  0  0  0  0
    1.4643   -2.6637    0.0000 H   0  0  0  0  0  0  0  0  0  0  0  0
  1  3  2  0  0  0  0
  1  4  2  0  0  0  0
  1  6  1  0  0  0  0
  1 22  1  0  0  0  0
  2 34  1  0  0  0  0
  5  8  1  0  0  0  0
  5 26  1  0  0  0  0
  6 10  1  0  0  0  0
  6 14  1  0  0  0  0
  7 15  1  0  0  0  0
  7 17  1  0  0  0  0
  7 18  1  0  0  0  0
  8 21  2  0  0  0  0
  9 25  1  0  0  0  0
  9 31  2  0  0  0  0
 10 11  1  0  0  0  0
 10 12  1  1  0  0  0
 10 37  1  0  0  0  0
 11 13  1  0  0  0  0
 11 38  1  0  0  0  0
 11 39  1  0  0  0  0
 12 15  1  0  0  0  0
 12 40  1  0  0  0  0
 12 41  1  0  0  0  0
 13 14  1  0  0  0  0
 13 42  1  0  0  0  0
 13 43  1  0  0  0  0
 14 44  1  0  0  0  0
 14 45  1  0  0  0  0
 15 46  1  0  0  0  0
 15 47  1  0  0  0  0
 16 19  1  0  0  0  0
 16 20  1  0  0  0  0
 16 21  1  0  0  0  0
 16 48  1  0  0  0  0
 17 19  1  0  0  0  0
 17 49  1  0  0  0  0
 17 50  1  0  0  0  0
 18 20  1  0  0  0  0
 18 51  1  0  0  0  0
 18 52  1  0  0  0  0
 19 53  1  0  0  0  0
 19 54  1  0  0  0  0
 20 55  1  0  0  0  0
 20 56  1  0  0  0  0
 21 23  1  0  0  0  0
 22 24  1  0  0  0  0
 22 25  2  0  0  0  0
 23 26  2  0  0  0  0
 23 27  1  0  0  0  0
 24 28  1  0  0  0  0
 24 29  2  0  0  0  0
 25 57  1  0  0  0  0
 26 30  1  0  0  0  0
 27 32  2  0  0  0  0
 27 58  1  0  0  0  0
 28 31  1  0  0  0  0
 28 33  2  0  0  0  0
 29 35  1  0  0  0  0
 29 59  1  0  0  0  0
 30 34  2  0  0  0  0
 30 60  1  0  0  0  0
 31 61  1  0  0  0  0
 32 34  1  0  0  0  0
 32 62  1  0  0  0  0
 33 36  1  0  0  0  0
 33 63  1  0  0  0  0
 35 36  2  0  0  0  0
 35 64  1  0  0  0  0
 36 65  1  0  0  0  0
M  END
> <PUBCHEM_COMPOUND_CID>
145985050

> <PUBCHEM_COMPOUND_CANONICALIZED>
1

> <PUBCHEM_CACTVS_COMPLEXITY>
848

> <PUBCHEM_CACTVS_HBOND_ACCEPTOR>
8

> <PUBCHEM_CACTVS_HBOND_DONOR>
0

> <PUBCHEM_CACTVS_ROTATABLE_BOND>
6

> <PUBCHEM_CACTVS_SUBSKEYS>
AAADceB7sQBAAAAAAAAAAAAAAAAAAWLAAAA8eIEAAAAAAFix/gAAHwQEQAAADSzB3gw8h9MYEAKpA7R3RnDCgDA1ICAo2D0+TNoIJvrA1ZOEMYhmwBnIyceYyOCOgAAAAAAYAAAAAAAAADAAAAAAAAAAAA==

> <PUBCHEM_IUPAC_OPENEYE_NAME>
6-fluoro-3-[1-[2-[(2S)-1-(4-isoquinolylsulfonyl)pyrrolidin-2-yl]ethyl]-4-piperidyl]-1,2-benzoxazole

> <PUBCHEM_IUPAC_CAS_NAME>
6-fluoro-3-[1-[2-[(2S)-1-(4-isoquinolinylsulfonyl)-2-pyrrolidinyl]ethyl]-4-piperidinyl]-1,2-benzoxazole

> <PUBCHEM_IUPAC_NAME_MARKUP>
6-fluoro-3-[1-[2-[(2<I>S</I>)-1-isoquinolin-4-ylsulfonylpyrrolidin-2-yl]ethyl]piperidin-4-yl]-1,2-benzoxazole

> <PUBCHEM_IUPAC_NAME>
6-fluoro-3-[1-[2-[(2S)-1-isoquinolin-4-ylsulfonylpyrrolidin-2-yl]ethyl]piperidin-4-yl]-1,2-benzoxazole

> <PUBCHEM_IUPAC_SYSTEMATIC_NAME>
6-fluoranyl-3-[1-[2-[(2S)-1-isoquinolin-4-ylsulfonylpyrrolidin-2-yl]ethyl]piperidin-4-yl]-1,2-benzoxazole

> <PUBCHEM_IUPAC_TRADITIONAL_NAME>
6-fluoro-3-[1-[2-[(2S)-1-(4-isoquinolylsulfonyl)pyrrolidin-2-yl]ethyl]-4-piperidyl]indoxazene

> <PUBCHEM_IUPAC_INCHI>
InChI=1S/C27H29FN4O3S/c28-21-7-8-24-25(16-21)35-30-27(24)19-9-13-31(14-10-19)15-11-22-5-3-12-32(22)36(33,34)26-18-29-17-20-4-1-2-6-23(20)26/h1-2,4,6-8,16-19,22H,3,5,9-15H2/t22-/m0/s1

> <PUBCHEM_IUPAC_INCHIKEY>
XPLJHFADXYVMHJ-QFIPXVFZSA-N

> <PUBCHEM_XLOGP3_AA>
4.4

> <PUBCHEM_EXACT_MASS>
508.19444014

> <PUBCHEM_MOLECULAR_FORMULA>
C27H29FN4O3S

> <PUBCHEM_MOLECULAR_WEIGHT>
508.6

> <PUBCHEM_OPENEYE_CAN_SMILES>
C1CC(N(C1)S(=O)(=O)C2=CN=CC3=CC=CC=C32)CCN4CCC(CC4)C5=NOC6=C5C=CC(=C6)F

> <PUBCHEM_OPENEYE_ISO_SMILES>
C1C[C@H](N(C1)S(=O)(=O)C2=CN=CC3=CC=CC=C32)CCN4CCC(CC4)C5=NOC6=C5C=CC(=C6)F

> <PUBCHEM_CACTVS_TPSA>
87.9

> <PUBCHEM_MONOISOTOPIC_WEIGHT>
508.19444014

> <PUBCHEM_TOTAL_CHARGE>
0

> <PUBCHEM_HEAVY_ATOM_COUNT>
36

> <PUBCHEM_ATOM_DEF_STEREO_COUNT>
1

> <PUBCHEM_ATOM_UDEF_STEREO_COUNT>
0

> <PUBCHEM_BOND_DEF_STEREO_COUNT>
0

> <PUBCHEM_BOND_UDEF_STEREO_COUNT>
0

> <PUBCHEM_ISOTOPIC_ATOM_COUNT>
0

> <PUBCHEM_COMPONENT_COUNT>
1

> <PUBCHEM_CACTVS_TAUTO_COUNT>
-1

> <PUBCHEM_COORDINATE_TYPE>
1
5
255

> <PUBCHEM_BONDANNOTATIONS>
10  12  5
21  23  8
22  24  8
22  25  8
23  26  8
23  27  8
24  28  8
24  29  8
26  30  8
27  32  8
28  31  8
28  33  8
29  35  8
30  34  8
32  34  8
33  36  8
35  36  8
5  26  8
5  8  8
8  21  8
9  25  8
9  31  8

$$$$
