44415544
  -OEChem-09292322282D

 56 60  0     0  0  0  0  0  0999 V2000
    5.7490   -5.6473    0.0000 Br  0  0  0  0  0  0  0  0  0  0  0  0
    8.7204    1.1797    0.0000 Cl  0  0  0  0  0  0  0  0  0  0  0  0
    6.6150   -1.1473    0.0000 O   0  0  0  0  0  0  0  0  0  0  0  0
    3.9491    2.9444    0.0000 N   0  0  0  0  0  0  0  0  0  0  0  0
    3.0814    4.7463    0.0000 N   0  0  0  0  0  0  0  0  0  0  0  0
    4.8830   -0.1473    0.0000 N   0  0  0  0  0  0  0  0  0  0  0  0
    5.3830    2.0434    0.0000 N   0  0  0  0  0  0  0  0  0  0  0  0
    4.8830   -1.1473    0.0000 N   0  0  0  0  0  0  0  0  0  0  0  0
    2.9519    3.0191    0.0000 C   0  0  0  0  0  0  0  0  0  0  0  0
    4.5125    3.7706    0.0000 C   0  0  0  0  0  0  0  0  0  0  0  0
    2.5180    3.9201    0.0000 C   0  0  0  0  0  0  0  0  0  0  0  0
    4.0786    4.6716    0.0000 C   0  0  0  0  0  0  0  0  0  0  0  0
    4.3830    2.0434    0.0000 C   0  0  0  0  0  0  0  0  0  0  0  0
    3.7595    1.2616    0.0000 C   0  0  0  0  0  0  0  0  0  0  0  0
    2.6475    5.6473    0.0000 C   0  0  0  0  0  0  0  0  0  0  0  0
    3.9820    0.2866    0.0000 C   0  0  0  0  0  0  0  0  0  0  0  0
    5.7840    0.2866    0.0000 C   0  0  0  0  0  0  0  0  0  0  0  0
    6.0065    1.2615    0.0000 C   0  0  0  0  0  0  0  0  0  0  0  0
    2.7690    1.5839    0.0000 C   0  0  0  0  0  0  0  0  0  0  0  0
    3.2295   -0.4335    0.0000 C   0  0  0  0  0  0  0  0  0  0  0  0
    2.0000    0.8813    0.0000 C   0  0  0  0  0  0  0  0  0  0  0  0
    6.5365   -0.4336    0.0000 C   0  0  0  0  0  0  0  0  0  0  0  0
    6.9970    1.5839    0.0000 C   0  0  0  0  0  0  0  0  0  0  0  0
    2.2318   -0.1342    0.0000 C   0  0  0  0  0  0  0  0  0  0  0  0
    7.5342   -0.1342    0.0000 C   0  0  0  0  0  0  0  0  0  0  0  0
    7.7660    0.8813    0.0000 C   0  0  0  0  0  0  0  0  0  0  0  0
    5.7490   -1.6473    0.0000 C   0  0  0  0  0  0  0  0  0  0  0  0
    5.7490   -2.6473    0.0000 C   0  0  0  0  0  0  0  0  0  0  0  0
    6.6150   -3.1473    0.0000 C   0  0  0  0  0  0  0  0  0  0  0  0
    4.8830   -3.1473    0.0000 C   0  0  0  0  0  0  0  0  0  0  0  0
    6.6150   -4.1473    0.0000 C   0  0  0  0  0  0  0  0  0  0  0  0
    4.8830   -4.1473    0.0000 C   0  0  0  0  0  0  0  0  0  0  0  0
    5.7490   -4.6473    0.0000 C   0  0  0  0  0  0  0  0  0  0  0  0
    2.3551    2.8512    0.0000 H   0  0  0  0  0  0  0  0  0  0  0  0
    3.0137    2.4022    0.0000 H   0  0  0  0  0  0  0  0  0  0  0  0
    4.9563    3.3377    0.0000 H   0  0  0  0  0  0  0  0  0  0  0  0
    5.0159    4.1325    0.0000 H   0  0  0  0  0  0  0  0  0  0  0  0
    2.0742    4.3530    0.0000 H   0  0  0  0  0  0  0  0  0  0  0  0
    2.0146    3.5582    0.0000 H   0  0  0  0  0  0  0  0  0  0  0  0
    4.6754    4.8395    0.0000 H   0  0  0  0  0  0  0  0  0  0  0  0
    4.0168    5.2885    0.0000 H   0  0  0  0  0  0  0  0  0  0  0  0
    3.2061    5.9163    0.0000 H   0  0  0  0  0  0  0  0  0  0  0  0
    2.3785    6.2059    0.0000 H   0  0  0  0  0  0  0  0  0  0  0  0
    2.0889    5.3783    0.0000 H   0  0  0  0  0  0  0  0  0  0  0  0
    2.6380    2.1899    0.0000 H   0  0  0  0  0  0  0  0  0  0  0  0
    3.3744   -1.0364    0.0000 H   0  0  0  0  0  0  0  0  0  0  0  0
    1.4083    1.0664    0.0000 H   0  0  0  0  0  0  0  0  0  0  0  0
    6.3916   -1.0364    0.0000 H   0  0  0  0  0  0  0  0  0  0  0  0
    4.3460   -1.4573    0.0000 H   0  0  0  0  0  0  0  0  0  0  0  0
    7.1280    2.1899    0.0000 H   0  0  0  0  0  0  0  0  0  0  0  0
    1.7789   -0.5576    0.0000 H   0  0  0  0  0  0  0  0  0  0  0  0
    7.9871   -0.5577    0.0000 H   0  0  0  0  0  0  0  0  0  0  0  0
    7.1520   -2.8373    0.0000 H   0  0  0  0  0  0  0  0  0  0  0  0
    4.3460   -2.8373    0.0000 H   0  0  0  0  0  0  0  0  0  0  0  0
    7.1520   -4.4573    0.0000 H   0  0  0  0  0  0  0  0  0  0  0  0
    4.3460   -4.4573    0.0000 H   0  0  0  0  0  0  0  0  0  0  0  0
  1 33  1  0  0  0  0
  2 26  1  0  0  0  0
  3 27  2  0  0  0  0
  4  9  1  0  0  0  0
  4 10  1  0  0  0  0
  4 13  1  0  0  0  0
  5 11  1  0  0  0  0
  5 12  1  0  0  0  0
  5 15  1  0  0  0  0
  6  8  1  0  0  0  0
  6 16  1  0  0  0  0
  6 17  1  0  0  0  0
  7 13  2  0  0  0  0
  7 18  1  0  0  0  0
  8 27  1  0  0  0  0
  8 49  1  0  0  0  0
  9 11  1  0  0  0  0
  9 34  1  0  0  0  0
  9 35  1  0  0  0  0
 10 12  1  0  0  0  0
 10 36  1  0  0  0  0
 10 37  1  0  0  0  0
 11 38  1  0  0  0  0
 11 39  1  0  0  0  0
 12 40  1  0  0  0  0
 12 41  1  0  0  0  0
 13 14  1  0  0  0  0
 14 16  1  0  0  0  0
 14 19  2  0  0  0  0
 15 42  1  0  0  0  0
 15 43  1  0  0  0  0
 15 44  1  0  0  0  0
 16 20  2  0  0  0  0
 17 18  2  0  0  0  0
 17 22  1  0  0  0  0
 18 23  1  0  0  0  0
 19 21  1  0  0  0  0
 19 45  1  0  0  0  0
 20 24  1  0  0  0  0
 20 46  1  0  0  0  0
 21 24  2  0  0  0  0
 21 47  1  0  0  0  0
 22 25  2  0  0  0  0
 22 48  1  0  0  0  0
 23 26  2  0  0  0  0
 23 50  1  0  0  0  0
 24 51  1  0  0  0  0
 25 26  1  0  0  0  0
 25 52  1  0  0  0  0
 27 28  1  0  0  0  0
 28 29  2  0  0  0  0
 28 30  1  0  0  0  0
 29 31  1  0  0  0  0
 29 53  1  0  0  0  0
 30 32  2  0  0  0  0
 30 54  1  0  0  0  0
 31 33  2  0  0  0  0
 31 55  1  0  0  0  0
 32 33  1  0  0  0  0
 32 56  1  0  0  0  0
M  END
> <PUBCHEM_COMPOUND_CID>
44415544

> <PUBCHEM_COMPOUND_CANONICALIZED>
1

> <PUBCHEM_CACTVS_COMPLEXITY>
722

> <PUBCHEM_CACTVS_HBOND_ACCEPTOR>
4

> <PUBCHEM_CACTVS_HBOND_DONOR>
1

> <PUBCHEM_CACTVS_ROTATABLE_BOND>
3

> <PUBCHEM_CACTVS_SUBSKEYS>
AAADceB7oAAEEAAAAAAAAAAAAAAAAAAAAAA8YMEABAAAAAABUAAAHgJYAAABrArBmCQzwINiAACoAidydACCBAElBwQbqAEodvgIYPLB35GUIQhggADIy5cYiACOAgBAAAICACAEAIAABAQAQAAAAAAAAA==

> <PUBCHEM_IUPAC_OPENEYE_NAME>
4-bromo-N-[3-chloro-6-(4-methylpiperazin-1-yl)benzo[b][1,4]benzodiazepin-11-yl]benzamide

> <PUBCHEM_IUPAC_CAS_NAME>
4-bromo-N-[3-chloro-6-(4-methyl-1-piperazinyl)-11-benzo[b][1,4]benzodiazepinyl]benzamide

> <PUBCHEM_IUPAC_NAME_MARKUP>
4-bromo-<I>N</I>-[3-chloro-6-(4-methylpiperazin-1-yl)benzo[b][1,4]benzodiazepin-11-yl]benzamide

> <PUBCHEM_IUPAC_NAME>
4-bromo-N-[3-chloro-6-(4-methylpiperazin-1-yl)benzo[b][1,4]benzodiazepin-11-yl]benzamide

> <PUBCHEM_IUPAC_SYSTEMATIC_NAME>
4-bromanyl-N-[3-chloranyl-6-(4-methylpiperazin-1-yl)benzo[b][1,4]benzodiazepin-11-yl]benzamide

> <PUBCHEM_IUPAC_TRADITIONAL_NAME>
4-bromo-N-[3-chloro-6-(4-methylpiperazino)benzo[b][1,4]benzodiazepin-11-yl]benzamide

> <PUBCHEM_IUPAC_INCHI>
InChI=1S/C25H23BrClN5O/c1-30-12-14-31(15-13-30)24-20-4-2-3-5-22(20)32(23-11-10-19(27)16-21(23)28-24)29-25(33)17-6-8-18(26)9-7-17/h2-11,16H,12-15H2,1H3,(H,29,33)

> <PUBCHEM_IUPAC_INCHIKEY>
RLTWHAFQDQJWDG-UHFFFAOYSA-N

> <PUBCHEM_XLOGP3_AA>
5.1

> <PUBCHEM_EXACT_MASS>
523.07745

> <PUBCHEM_MOLECULAR_FORMULA>
C25H23BrClN5O

> <PUBCHEM_MOLECULAR_WEIGHT>
524.8

> <PUBCHEM_OPENEYE_CAN_SMILES>
CN1CCN(CC1)C2=NC3=C(C=CC(=C3)Cl)N(C4=CC=CC=C42)NC(=O)C5=CC=C(C=C5)Br

> <PUBCHEM_OPENEYE_ISO_SMILES>
CN1CCN(CC1)C2=NC3=C(C=CC(=C3)Cl)N(C4=CC=CC=C42)NC(=O)C5=CC=C(C=C5)Br

> <PUBCHEM_CACTVS_TPSA>
51.2

> <PUBCHEM_MONOISOTOPIC_WEIGHT>
523.07745

> <PUBCHEM_TOTAL_CHARGE>
0

> <PUBCHEM_HEAVY_ATOM_COUNT>
33

> <PUBCHEM_ATOM_DEF_STEREO_COUNT>
0

> <PUBCHEM_ATOM_UDEF_STEREO_COUNT>
0

> <PUBCHEM_BOND_DEF_STEREO_COUNT>
0

> <PUBCHEM_BOND_UDEF_STEREO_COUNT>
0

> <PUBCHEM_ISOTOPIC_ATOM_COUNT>
0

> <PUBCHEM_COMPONENT_COUNT>
1

> <PUBCHEM_CACTVS_TAUTO_COUNT>
-1

> <PUBCHEM_COORDINATE_TYPE>
1
5
255

> <PUBCHEM_BONDANNOTATIONS>
14  16  8
14  19  8
16  20  8
17  18  8
17  22  8
18  23  8
19  21  8
20  24  8
21  24  8
22  25  8
23  26  8
25  26  8
28  29  8
28  30  8
29  31  8
30  32  8
31  33  8
32  33  8

$$$$
