10589897
  -OEChem-09292322512D

 41 44  0     1  0  0  0  0  0999 V2000
    3.3426    1.1622    0.0000 F   0  0  0  0  0  0  0  0  0  0  0  0
    6.2781    1.7809    0.0000 N   0  0  0  0  0  0  0  0  0  0  0  0
    4.6783   -1.9358    0.0000 N   0  0  0  0  0  0  0  0  0  0  0  0
    4.9889    0.6241    0.0000 C   0  0  2  0  0  0  0  0  0  0  0  0
    4.3211    1.3684    0.0000 C   0  0  2  0  0  0  0  0  0  0  0  0
    5.9674    0.8304    0.0000 C   0  0  0  0  0  0  0  0  0  0  0  0
    4.6783   -0.3264    0.0000 C   0  0  0  0  0  0  0  0  0  0  0  0
    4.6318    2.3190    0.0000 C   0  0  0  0  0  0  0  0  0  0  0  0
    5.6103    2.5252    0.0000 C   0  0  0  0  0  0  0  0  0  0  0  0
    3.7320   -0.6311    0.0000 C   0  0  0  0  0  0  0  0  0  0  0  0
    5.2619   -1.1311    0.0000 C   0  0  0  0  0  0  0  0  0  0  0  0
    3.7320   -1.6311    0.0000 C   0  0  0  0  0  0  0  0  0  0  0  0
    6.2619   -1.1311    0.0000 C   0  0  0  0  0  0  0  0  0  0  0  0
    2.8660   -0.1311    0.0000 C   0  0  0  0  0  0  0  0  0  0  0  0
    2.8660   -2.1311    0.0000 C   0  0  0  0  0  0  0  0  0  0  0  0
    2.0000   -0.6311    0.0000 C   0  0  0  0  0  0  0  0  0  0  0  0
    2.0000   -1.6311    0.0000 C   0  0  0  0  0  0  0  0  0  0  0  0
    6.7619   -1.9971    0.0000 C   0  0  0  0  0  0  0  0  0  0  0  0
    6.7619   -0.2651    0.0000 C   0  0  0  0  0  0  0  0  0  0  0  0
    7.7619   -1.9971    0.0000 C   0  0  0  0  0  0  0  0  0  0  0  0
    7.7619   -0.2651    0.0000 C   0  0  0  0  0  0  0  0  0  0  0  0
    8.2619   -1.1311    0.0000 C   0  0  0  0  0  0  0  0  0  0  0  0
    5.5566   -0.0085    0.0000 H   0  0  0  0  0  0  0  0  0  0  0  0
    4.1285    0.7791    0.0000 H   0  0  0  0  0  0  0  0  0  0  0  0
    5.9880    0.2107    0.0000 H   0  0  0  0  0  0  0  0  0  0  0  0
    6.5812    0.7430    0.0000 H   0  0  0  0  0  0  0  0  0  0  0  0
    4.6112    2.9386    0.0000 H   0  0  0  0  0  0  0  0  0  0  0  0
    4.0179    2.4063    0.0000 H   0  0  0  0  0  0  0  0  0  0  0  0
    6.1366    2.8528    0.0000 H   0  0  0  0  0  0  0  0  0  0  0  0
    5.3790    3.1004    0.0000 H   0  0  0  0  0  0  0  0  0  0  0  0
    6.8848    1.9087    0.0000 H   0  0  0  0  0  0  0  0  0  0  0  0
    4.8709   -2.5252    0.0000 H   0  0  0  0  0  0  0  0  0  0  0  0
    2.8660    0.4889    0.0000 H   0  0  0  0  0  0  0  0  0  0  0  0
    2.8660   -2.7511    0.0000 H   0  0  0  0  0  0  0  0  0  0  0  0
    1.4631   -0.3211    0.0000 H   0  0  0  0  0  0  0  0  0  0  0  0
    1.4631   -1.9411    0.0000 H   0  0  0  0  0  0  0  0  0  0  0  0
    6.4519   -2.5341    0.0000 H   0  0  0  0  0  0  0  0  0  0  0  0
    6.4519    0.2718    0.0000 H   0  0  0  0  0  0  0  0  0  0  0  0
    8.0719   -2.5341    0.0000 H   0  0  0  0  0  0  0  0  0  0  0  0
    8.0719    0.2718    0.0000 H   0  0  0  0  0  0  0  0  0  0  0  0
    8.8819   -1.1311    0.0000 H   0  0  0  0  0  0  0  0  0  0  0  0
  5  1  1  1  0  0  0
  2  6  1  0  0  0  0
  2  9  1  0  0  0  0
  2 31  1  0  0  0  0
  3 11  1  0  0  0  0
  3 12  1  0  0  0  0
  3 32  1  0  0  0  0
  4  5  1  0  0  0  0
  4  6  1  0  0  0  0
  4  7  1  0  0  0  0
  4 23  1  1  0  0  0
  5  8  1  0  0  0  0
  5 24  1  0  0  0  0
  6 25  1  0  0  0  0
  6 26  1  0  0  0  0
  7 10  1  0  0  0  0
  7 11  2  0  0  0  0
  8  9  1  0  0  0  0
  8 27  1  0  0  0  0
  8 28  1  0  0  0  0
  9 29  1  0  0  0  0
  9 30  1  0  0  0  0
 10 12  1  0  0  0  0
 10 14  2  0  0  0  0
 11 13  1  0  0  0  0
 12 15  2  0  0  0  0
 13 18  2  0  0  0  0
 13 19  1  0  0  0  0
 14 16  1  0  0  0  0
 14 33  1  0  0  0  0
 15 17  1  0  0  0  0
 15 34  1  0  0  0  0
 16 17  2  0  0  0  0
 16 35  1  0  0  0  0
 17 36  1  0  0  0  0
 18 20  1  0  0  0  0
 18 37  1  0  0  0  0
 19 21  2  0  0  0  0
 19 38  1  0  0  0  0
 20 22  2  0  0  0  0
 20 39  1  0  0  0  0
 21 22  1  0  0  0  0
 21 40  1  0  0  0  0
 22 41  1  0  0  0  0
M  END
> <PUBCHEM_COMPOUND_CID>
10589897

> <PUBCHEM_COMPOUND_CANONICALIZED>
1

> <PUBCHEM_CACTVS_COMPLEXITY>
368

> <PUBCHEM_CACTVS_HBOND_ACCEPTOR>
2

> <PUBCHEM_CACTVS_HBOND_DONOR>
2

> <PUBCHEM_CACTVS_ROTATABLE_BOND>
2

> <PUBCHEM_CACTVS_SUBSKEYS>
AAADceB7AQAAAAAAAAAAAAAAAAAAAWAAAAA8YIAAAAAAAFgB9AAAHQAQAAAADQjBHgQwwPLJkACgAyRiRACCgCAhAiAImaA4ZJgIIOLAkZGEIAhgkADIyAcQgMAOgAAAAAACAAAAAAAAAAQAAAAAAAAAAA==

> <PUBCHEM_IUPAC_OPENEYE_NAME>
3-[(3S,4S)-4-fluoro-3-piperidyl]-2-phenyl-1H-indole

> <PUBCHEM_IUPAC_CAS_NAME>
3-[(3S,4S)-4-fluoro-3-piperidinyl]-2-phenyl-1H-indole

> <PUBCHEM_IUPAC_NAME_MARKUP>
3-[(3<I>S</I>,4<I>S</I>)-4-fluoropiperidin-3-yl]-2-phenyl-1<I>H</I>-indole

> <PUBCHEM_IUPAC_NAME>
3-[(3S,4S)-4-fluoropiperidin-3-yl]-2-phenyl-1H-indole

> <PUBCHEM_IUPAC_SYSTEMATIC_NAME>
3-[(3S,4S)-4-fluoranylpiperidin-3-yl]-2-phenyl-1H-indole

> <PUBCHEM_IUPAC_TRADITIONAL_NAME>
3-[(3S,4S)-4-fluoro-3-piperidyl]-2-phenyl-1H-indole

> <PUBCHEM_IUPAC_INCHI>
InChI=1S/C19H19FN2/c20-16-10-11-21-12-15(16)18-14-8-4-5-9-17(14)22-19(18)13-6-2-1-3-7-13/h1-9,15-16,21-22H,10-12H2/t15-,16-/m0/s1

> <PUBCHEM_IUPAC_INCHIKEY>
QAMSRCBRYCCTDQ-HOTGVXAUSA-N

> <PUBCHEM_XLOGP3_AA>
3.9

> <PUBCHEM_EXACT_MASS>
294.15322678

> <PUBCHEM_MOLECULAR_FORMULA>
C19H19FN2

> <PUBCHEM_MOLECULAR_WEIGHT>
294.4

> <PUBCHEM_OPENEYE_CAN_SMILES>
C1CNCC(C1F)C2=C(NC3=CC=CC=C32)C4=CC=CC=C4

> <PUBCHEM_OPENEYE_ISO_SMILES>
C1CNC[C@@H]([C@H]1F)C2=C(NC3=CC=CC=C32)C4=CC=CC=C4

> <PUBCHEM_CACTVS_TPSA>
27.8

> <PUBCHEM_MONOISOTOPIC_WEIGHT>
294.15322678

> <PUBCHEM_TOTAL_CHARGE>
0

> <PUBCHEM_HEAVY_ATOM_COUNT>
22

> <PUBCHEM_ATOM_DEF_STEREO_COUNT>
2

> <PUBCHEM_ATOM_UDEF_STEREO_COUNT>
0

> <PUBCHEM_BOND_DEF_STEREO_COUNT>
0

> <PUBCHEM_BOND_UDEF_STEREO_COUNT>
0

> <PUBCHEM_ISOTOPIC_ATOM_COUNT>
0

> <PUBCHEM_COMPONENT_COUNT>
1

> <PUBCHEM_CACTVS_TAUTO_COUNT>
-1

> <PUBCHEM_COORDINATE_TYPE>
1
5
255

> <PUBCHEM_BONDANNOTATIONS>
5  1  5
10  12  8
10  14  8
12  15  8
13  18  8
13  19  8
14  16  8
15  17  8
16  17  8
18  20  8
19  21  8
20  22  8
21  22  8
3  11  8
3  12  8
4  23  5
7  10  8
7  11  8

$$$$
