67005292
  -OEChem-09292321592D

 39 40  0     1  0  0  0  0  0999 V2000
    2.7393    0.0000    0.0000 Cl  0  0  0  0  0  0  0  0  0  0  0  0
    4.9617    3.8682    0.0000 O   0  0  0  0  0  0  0  0  0  0  0  0
    1.4534    2.8682    0.0000 O   0  0  0  0  0  0  0  0  0  0  0  0
    4.9617    5.9375    0.0000 N   0  0  3  0  0  0  0  0  0  0  0  0
    4.0678    5.4028    0.0000 C   0  0  1  0  0  0  0  0  0  0  0  0
    4.0678    4.4028    0.0000 C   0  0  1  0  0  0  0  0  0  0  0  0
    3.2018    5.9028    0.0000 C   0  0  0  0  0  0  0  0  0  0  0  0
    3.2018    3.9028    0.0000 C   0  0  0  0  0  0  0  0  0  0  0  0
    2.3358    5.4028    0.0000 C   0  0  0  0  0  0  0  0  0  0  0  0
    5.8678    5.4236    0.0000 C   0  0  0  0  0  0  0  0  0  0  0  0
    2.3358    4.4028    0.0000 C   0  0  0  0  0  0  0  0  0  0  0  0
    5.8678    4.3820    0.0000 C   0  0  0  0  0  0  0  0  0  0  0  0
    4.9502    6.9374    0.0000 C   0  0  0  0  0  0  0  0  0  0  0  0
    1.4418    3.8682    0.0000 C   0  0  0  0  0  0  0  0  0  0  0  0
    1.4418    5.9375    0.0000 C   0  0  0  0  0  0  0  0  0  0  0  0
    0.5357    4.3820    0.0000 C   0  0  0  0  0  0  0  0  0  0  0  0
    0.5357    5.4236    0.0000 C   0  0  0  0  0  0  0  0  0  0  0  0
    5.8104    7.4474    0.0000 C   0  0  0  0  0  0  0  0  0  0  0  0
    5.7988    8.4473    0.0000 C   0  0  0  0  0  0  0  0  0  0  0  0
    4.0612    6.2528    0.0000 H   0  0  0  0  0  0  0  0  0  0  0  0
    4.0612    3.5528    0.0000 H   0  0  0  0  0  0  0  0  0  0  0  0
    3.6003    6.3778    0.0000 H   0  0  0  0  0  0  0  0  0  0  0  0
    2.8032    6.3778    0.0000 H   0  0  0  0  0  0  0  0  0  0  0  0
    2.8032    3.4279    0.0000 H   0  0  0  0  0  0  0  0  0  0  0  0
    3.6003    3.4279    0.0000 H   0  0  0  0  0  0  0  0  0  0  0  0
    6.4787    5.3175    0.0000 H   0  0  0  0  0  0  0  0  0  0  0  0
    6.0769    6.0073    0.0000 H   0  0  0  0  0  0  0  0  0  0  0  0
    6.0769    3.7983    0.0000 H   0  0  0  0  0  0  0  0  0  0  0  0
    6.4787    4.4881    0.0000 H   0  0  0  0  0  0  0  0  0  0  0  0
    4.7314    7.5175    0.0000 H   0  0  0  0  0  0  0  0  0  0  0  0
    4.3409    6.8227    0.0000 H   0  0  0  0  0  0  0  0  0  0  0  0
    1.4490    6.5574    0.0000 H   0  0  0  0  0  0  0  0  0  0  0  0
    0.0000    4.0699    0.0000 H   0  0  0  0  0  0  0  0  0  0  0  0
    0.0000    5.7357    0.0000 H   0  0  0  0  0  0  0  0  0  0  0  0
    6.3508    7.1436    0.0000 H   0  0  0  0  0  0  0  0  0  0  0  0
    0.9201    2.5520    0.0000 H   0  0  0  0  0  0  0  0  0  0  0  0
    6.3321    8.7635    0.0000 H   0  0  0  0  0  0  0  0  0  0  0  0
    5.2583    8.7511    0.0000 H   0  0  0  0  0  0  0  0  0  0  0  0
    3.7393    0.0000    0.0000 H   0  0  0  0  0  0  0  0  0  0  0  0
  1 39  1  0  0  0  0
  2  6  1  0  0  0  0
  2 12  1  0  0  0  0
  3 14  1  0  0  0  0
  3 36  1  0  0  0  0
  4  5  1  0  0  0  0
  4 10  1  0  0  0  0
  4 13  1  0  0  0  0
  5  6  1  0  0  0  0
  5  7  1  0  0  0  0
  5 20  1  6  0  0  0
  6  8  1  0  0  0  0
  6 21  1  1  0  0  0
  7  9  1  0  0  0  0
  7 22  1  0  0  0  0
  7 23  1  0  0  0  0
  8 11  1  0  0  0  0
  8 24  1  0  0  0  0
  8 25  1  0  0  0  0
  9 11  2  0  0  0  0
  9 15  1  0  0  0  0
 10 12  1  0  0  0  0
 10 26  1  0  0  0  0
 10 27  1  0  0  0  0
 11 14  1  0  0  0  0
 12 28  1  0  0  0  0
 12 29  1  0  0  0  0
 13 18  1  0  0  0  0
 13 30  1  0  0  0  0
 13 31  1  0  0  0  0
 14 16  2  0  0  0  0
 15 17  2  0  0  0  0
 15 32  1  0  0  0  0
 16 17  1  0  0  0  0
 16 33  1  0  0  0  0
 17 34  1  0  0  0  0
 18 19  2  0  0  0  0
 18 35  1  0  0  0  0
 19 37  1  0  0  0  0
 19 38  1  0  0  0  0
M  END
> <PUBCHEM_COMPOUND_CID>
67005292

> <PUBCHEM_COMPOUND_CANONICALIZED>
1

> <PUBCHEM_CACTVS_COMPLEXITY>
307

> <PUBCHEM_CACTVS_HBOND_ACCEPTOR>
3

> <PUBCHEM_CACTVS_HBOND_DONOR>
2

> <PUBCHEM_CACTVS_ROTATABLE_BOND>
2

> <PUBCHEM_CACTVS_SUBSKEYS>
AAADceByMAAEAAAAAAAAAAAAAAAAAAAAAAA8YIAAAAAAAADxAAAAHgAACAAADDzhmAYwBoMABgCAAiBCAACCAAAgIAAIiAAOCIgKJiKCkROHcAAkwBGYmAfQ0LMOgAABAAAYAABQAAKAADAgAAAAAAAAAA==

> <PUBCHEM_IUPAC_OPENEYE_NAME>
(4aR,10aR)-4-allyl-2,3,4a,5,10,10a-hexahydrobenzo[g][1,4]benzoxazin-9-ol;hydrochloride

> <PUBCHEM_IUPAC_CAS_NAME>
(4aR,10aR)-4-prop-2-enyl-2,3,4a,5,10,10a-hexahydrobenzo[g][1,4]benzoxazin-9-ol;hydrochloride

> <PUBCHEM_IUPAC_NAME_MARKUP>
(4<I>a</I><I>R</I>,10<I>a</I><I>R</I>)-4-prop-2-enyl-2,3,4<I>a</I>,5,10,10<I>a</I>-hexahydrobenzo[g][1,4]benzoxazin-9-ol;hydrochloride

> <PUBCHEM_IUPAC_NAME>
(4aR,10aR)-4-prop-2-enyl-2,3,4a,5,10,10a-hexahydrobenzo[g][1,4]benzoxazin-9-ol;hydrochloride

> <PUBCHEM_IUPAC_SYSTEMATIC_NAME>
(4aR,10aR)-4-prop-2-enyl-2,3,4a,5,10,10a-hexahydrobenzo[g][1,4]benzoxazin-9-ol;hydrochloride

> <PUBCHEM_IUPAC_TRADITIONAL_NAME>
(4aR,10aR)-4-allyl-2,3,4a,5,10,10a-hexahydrobenzo[g][1,4]benzoxazin-9-ol;hydrochloride

> <PUBCHEM_IUPAC_INCHI>
InChI=1S/C15H19NO2.ClH/c1-2-6-16-7-8-18-15-10-12-11(9-13(15)16)4-3-5-14(12)17;/h2-5,13,15,17H,1,6-10H2;1H/t13-,15-;/m1./s1

> <PUBCHEM_IUPAC_INCHIKEY>
YNQAZTXVGQIQRN-SWYZXDRTSA-N

> <PUBCHEM_EXACT_MASS>
281.1182566

> <PUBCHEM_MOLECULAR_FORMULA>
C15H20ClNO2

> <PUBCHEM_MOLECULAR_WEIGHT>
281.78

> <PUBCHEM_OPENEYE_CAN_SMILES>
C=CCN1CCOC2C1CC3=C(C2)C(=CC=C3)O.Cl

> <PUBCHEM_OPENEYE_ISO_SMILES>
C=CCN1CCO[C@H]2[C@H]1CC3=C(C2)C(=CC=C3)O.Cl

> <PUBCHEM_CACTVS_TPSA>
32.7

> <PUBCHEM_MONOISOTOPIC_WEIGHT>
281.1182566

> <PUBCHEM_TOTAL_CHARGE>
0

> <PUBCHEM_HEAVY_ATOM_COUNT>
19

> <PUBCHEM_ATOM_DEF_STEREO_COUNT>
2

> <PUBCHEM_ATOM_UDEF_STEREO_COUNT>
0

> <PUBCHEM_BOND_DEF_STEREO_COUNT>
0

> <PUBCHEM_BOND_UDEF_STEREO_COUNT>
0

> <PUBCHEM_ISOTOPIC_ATOM_COUNT>
0

> <PUBCHEM_COMPONENT_COUNT>
2

> <PUBCHEM_CACTVS_TAUTO_COUNT>
-1

> <PUBCHEM_COORDINATE_TYPE>
1
5
255

> <PUBCHEM_BONDANNOTATIONS>
11  14  8
14  16  8
15  17  8
16  17  8
5  20  6
6  21  5
9  11  8
9  15  8

$$$$
