44338236
  -OEChem-09292322192D

 48 51  0     0  0  0  0  0  0999 V2000
    8.9030    1.9540    0.0000 Cl  0  0  0  0  0  0  0  0  0  0  0  0
    6.2619   -0.6261    0.0000 S   0  0  0  0  0  0  0  0  0  0  0  0
   10.7619   -1.4921    0.0000 S   0  0  0  0  0  0  0  0  0  0  0  0
   10.7619   -2.4921    0.0000 O   0  0  0  0  0  0  0  0  0  0  0  0
   10.7619   -0.4921    0.0000 O   0  0  0  0  0  0  0  0  0  0  0  0
    4.6783    0.1786    0.0000 N   0  0  0  0  0  0  0  0  0  0  0  0
    4.6783   -1.4308    0.0000 N   0  0  0  0  0  0  0  0  0  0  0  0
    3.7320   -0.1261    0.0000 C   0  0  0  0  0  0  0  0  0  0  0  0
    4.9889    1.1292    0.0000 C   0  0  0  0  0  0  0  0  0  0  0  0
    5.2619   -0.6261    0.0000 C   0  0  0  0  0  0  0  0  0  0  0  0
    3.7320   -1.1261    0.0000 C   0  0  0  0  0  0  0  0  0  0  0  0
    5.9674    1.3354    0.0000 C   0  0  0  0  0  0  0  0  0  0  0  0
    2.8660    0.3739    0.0000 C   0  0  0  0  0  0  0  0  0  0  0  0
    6.7619   -1.4921    0.0000 C   0  0  0  0  0  0  0  0  0  0  0  0
    7.7619   -1.4921    0.0000 C   0  0  0  0  0  0  0  0  0  0  0  0
    2.8660   -1.6261    0.0000 C   0  0  0  0  0  0  0  0  0  0  0  0
    9.7619   -1.4921    0.0000 C   0  0  0  0  0  0  0  0  0  0  0  0
    2.0000   -0.1261    0.0000 C   0  0  0  0  0  0  0  0  0  0  0  0
    6.2781    2.2859    0.0000 C   0  0  0  0  0  0  0  0  0  0  0  0
    6.6353    0.5911    0.0000 C   0  0  0  0  0  0  0  0  0  0  0  0
    2.0000   -1.1261    0.0000 C   0  0  0  0  0  0  0  0  0  0  0  0
    8.2619   -2.3581    0.0000 C   0  0  0  0  0  0  0  0  0  0  0  0
    8.2619   -0.6261    0.0000 C   0  0  0  0  0  0  0  0  0  0  0  0
    9.2619   -2.3581    0.0000 C   0  0  0  0  0  0  0  0  0  0  0  0
    9.2619   -0.6261    0.0000 C   0  0  0  0  0  0  0  0  0  0  0  0
    7.2566    2.4921    0.0000 C   0  0  0  0  0  0  0  0  0  0  0  0
    7.6138    0.7973    0.0000 C   0  0  0  0  0  0  0  0  0  0  0  0
    7.9244    1.7478    0.0000 C   0  0  0  0  0  0  0  0  0  0  0  0
   11.7619   -1.4921    0.0000 C   0  0  0  0  0  0  0  0  0  0  0  0
    4.9684    1.7488    0.0000 H   0  0  0  0  0  0  0  0  0  0  0  0
    4.3751    1.2165    0.0000 H   0  0  0  0  0  0  0  0  0  0  0  0
    2.8660    0.9939    0.0000 H   0  0  0  0  0  0  0  0  0  0  0  0
    6.1793   -1.7042    0.0000 H   0  0  0  0  0  0  0  0  0  0  0  0
    6.8695   -2.1027    0.0000 H   0  0  0  0  0  0  0  0  0  0  0  0
    2.8660   -2.2461    0.0000 H   0  0  0  0  0  0  0  0  0  0  0  0
    1.4631    0.1839    0.0000 H   0  0  0  0  0  0  0  0  0  0  0  0
    5.8640    2.7474    0.0000 H   0  0  0  0  0  0  0  0  0  0  0  0
    6.4427    0.0018    0.0000 H   0  0  0  0  0  0  0  0  0  0  0  0
    1.4631   -1.4361    0.0000 H   0  0  0  0  0  0  0  0  0  0  0  0
    7.9519   -2.8951    0.0000 H   0  0  0  0  0  0  0  0  0  0  0  0
    7.9519   -0.0892    0.0000 H   0  0  0  0  0  0  0  0  0  0  0  0
    9.5719   -2.8951    0.0000 H   0  0  0  0  0  0  0  0  0  0  0  0
    9.5719   -0.0892    0.0000 H   0  0  0  0  0  0  0  0  0  0  0  0
    7.4492    3.0814    0.0000 H   0  0  0  0  0  0  0  0  0  0  0  0
    8.0279    0.3358    0.0000 H   0  0  0  0  0  0  0  0  0  0  0  0
   11.7619   -2.1121    0.0000 H   0  0  0  0  0  0  0  0  0  0  0  0
   12.3819   -1.4921    0.0000 H   0  0  0  0  0  0  0  0  0  0  0  0
   11.7619   -0.8721    0.0000 H   0  0  0  0  0  0  0  0  0  0  0  0
  1 28  1  0  0  0  0
  2 10  1  0  0  0  0
  2 14  1  0  0  0  0
  3  4  2  0  0  0  0
  3  5  2  0  0  0  0
  3 17  1  0  0  0  0
  3 29  1  0  0  0  0
  6  8  1  0  0  0  0
  6  9  1  0  0  0  0
  6 10  1  0  0  0  0
  7 10  2  0  0  0  0
  7 11  1  0  0  0  0
  8 11  1  0  0  0  0
  8 13  2  0  0  0  0
  9 12  1  0  0  0  0
  9 30  1  0  0  0  0
  9 31  1  0  0  0  0
 11 16  2  0  0  0  0
 12 19  2  0  0  0  0
 12 20  1  0  0  0  0
 13 18  1  0  0  0  0
 13 32  1  0  0  0  0
 14 15  1  0  0  0  0
 14 33  1  0  0  0  0
 14 34  1  0  0  0  0
 15 22  2  0  0  0  0
 15 23  1  0  0  0  0
 16 21  1  0  0  0  0
 16 35  1  0  0  0  0
 17 24  2  0  0  0  0
 17 25  1  0  0  0  0
 18 21  2  0  0  0  0
 18 36  1  0  0  0  0
 19 26  1  0  0  0  0
 19 37  1  0  0  0  0
 20 27  2  0  0  0  0
 20 38  1  0  0  0  0
 21 39  1  0  0  0  0
 22 24  1  0  0  0  0
 22 40  1  0  0  0  0
 23 25  2  0  0  0  0
 23 41  1  0  0  0  0
 24 42  1  0  0  0  0
 25 43  1  0  0  0  0
 26 28  2  0  0  0  0
 26 44  1  0  0  0  0
 27 28  1  0  0  0  0
 27 45  1  0  0  0  0
 29 46  1  0  0  0  0
 29 47  1  0  0  0  0
 29 48  1  0  0  0  0
M  END
> <PUBCHEM_COMPOUND_CID>
44338236

> <PUBCHEM_COMPOUND_CANONICALIZED>
1

> <PUBCHEM_CACTVS_COMPLEXITY>
625

> <PUBCHEM_CACTVS_HBOND_ACCEPTOR>
4

> <PUBCHEM_CACTVS_HBOND_DONOR>
0

> <PUBCHEM_CACTVS_ROTATABLE_BOND>
6

> <PUBCHEM_CACTVS_SUBSKEYS>
AAADceB7MABkAAAAAAAAAAAAAAAAAWAAAAAwYMAAAAAAAFgB9AAAHAYAAAAADArFXiSz0bcMEAqgAyRiZHDC0C1hH7AJ2Dg4dpiIaKLhm5GUIAhogALIyCcQgAAOFAAAAAAAACAoAAAAAAAAQAAAAAAAAA==

> <PUBCHEM_IUPAC_OPENEYE_NAME>
1-[(4-chlorophenyl)methyl]-2-[(4-methylsulfonylphenyl)methylsulfanyl]benzimidazole

> <PUBCHEM_IUPAC_CAS_NAME>
1-[(4-chlorophenyl)methyl]-2-[(4-methylsulfonylphenyl)methylthio]benzimidazole

> <PUBCHEM_IUPAC_NAME_MARKUP>
1-[(4-chlorophenyl)methyl]-2-[(4-methylsulfonylphenyl)methylsulfanyl]benzimidazole

> <PUBCHEM_IUPAC_NAME>
1-[(4-chlorophenyl)methyl]-2-[(4-methylsulfonylphenyl)methylsulfanyl]benzimidazole

> <PUBCHEM_IUPAC_SYSTEMATIC_NAME>
1-[(4-chlorophenyl)methyl]-2-[(4-methylsulfonylphenyl)methylsulfanyl]benzimidazole

> <PUBCHEM_IUPAC_TRADITIONAL_NAME>
1-(4-chlorobenzyl)-2-[(4-mesylbenzyl)thio]benzimidazole

> <PUBCHEM_IUPAC_INCHI>
InChI=1S/C22H19ClN2O2S2/c1-29(26,27)19-12-8-17(9-13-19)15-28-22-24-20-4-2-3-5-21(20)25(22)14-16-6-10-18(23)11-7-16/h2-13H,14-15H2,1H3

> <PUBCHEM_IUPAC_INCHIKEY>
ITDUQSGKPPPZOX-UHFFFAOYSA-N

> <PUBCHEM_XLOGP3_AA>
5.2

> <PUBCHEM_EXACT_MASS>
442.0576479

> <PUBCHEM_MOLECULAR_FORMULA>
C22H19ClN2O2S2

> <PUBCHEM_MOLECULAR_WEIGHT>
443.0

> <PUBCHEM_OPENEYE_CAN_SMILES>
CS(=O)(=O)C1=CC=C(C=C1)CSC2=NC3=CC=CC=C3N2CC4=CC=C(C=C4)Cl

> <PUBCHEM_OPENEYE_ISO_SMILES>
CS(=O)(=O)C1=CC=C(C=C1)CSC2=NC3=CC=CC=C3N2CC4=CC=C(C=C4)Cl

> <PUBCHEM_CACTVS_TPSA>
85.6

> <PUBCHEM_MONOISOTOPIC_WEIGHT>
442.0576479

> <PUBCHEM_TOTAL_CHARGE>
0

> <PUBCHEM_HEAVY_ATOM_COUNT>
29

> <PUBCHEM_ATOM_DEF_STEREO_COUNT>
0

> <PUBCHEM_ATOM_UDEF_STEREO_COUNT>
0

> <PUBCHEM_BOND_DEF_STEREO_COUNT>
0

> <PUBCHEM_BOND_UDEF_STEREO_COUNT>
0

> <PUBCHEM_ISOTOPIC_ATOM_COUNT>
0

> <PUBCHEM_COMPONENT_COUNT>
1

> <PUBCHEM_CACTVS_TAUTO_COUNT>
-1

> <PUBCHEM_COORDINATE_TYPE>
1
5
255

> <PUBCHEM_BONDANNOTATIONS>
11  16  8
12  19  8
12  20  8
13  18  8
15  22  8
15  23  8
16  21  8
17  24  8
17  25  8
18  21  8
19  26  8
20  27  8
22  24  8
23  25  8
26  28  8
27  28  8
6  10  8
6  8  8
7  10  8
7  11  8
8  11  8
8  13  8

$$$$
