9795587
  -OEChem-09292322512D

 41 44  0     1  0  0  0  0  0999 V2000
    6.2781    1.7809    0.0000 N   0  0  0  0  0  0  0  0  0  0  0  0
    4.6783   -1.9358    0.0000 N   0  0  0  0  0  0  0  0  0  0  0  0
    4.9889    0.6241    0.0000 C   0  0  3  0  0  0  0  0  0  0  0  0
    4.3211    1.3684    0.0000 C   0  0  0  0  0  0  0  0  0  0  0  0
    5.9674    0.8304    0.0000 C   0  0  0  0  0  0  0  0  0  0  0  0
    4.6783   -0.3264    0.0000 C   0  0  0  0  0  0  0  0  0  0  0  0
    4.6318    2.3190    0.0000 C   0  0  0  0  0  0  0  0  0  0  0  0
    5.6103    2.5252    0.0000 C   0  0  0  0  0  0  0  0  0  0  0  0
    3.7320   -0.6311    0.0000 C   0  0  0  0  0  0  0  0  0  0  0  0
    5.2619   -1.1311    0.0000 C   0  0  0  0  0  0  0  0  0  0  0  0
    3.7320   -1.6311    0.0000 C   0  0  0  0  0  0  0  0  0  0  0  0
    6.2619   -1.1311    0.0000 C   0  0  0  0  0  0  0  0  0  0  0  0
    2.8660   -0.1311    0.0000 C   0  0  0  0  0  0  0  0  0  0  0  0
    2.8660   -2.1311    0.0000 C   0  0  0  0  0  0  0  0  0  0  0  0
    2.0000   -0.6311    0.0000 C   0  0  0  0  0  0  0  0  0  0  0  0
    2.0000   -1.6311    0.0000 C   0  0  0  0  0  0  0  0  0  0  0  0
    6.7619   -1.9971    0.0000 C   0  0  0  0  0  0  0  0  0  0  0  0
    6.7619   -0.2651    0.0000 C   0  0  0  0  0  0  0  0  0  0  0  0
    7.7619   -1.9971    0.0000 C   0  0  0  0  0  0  0  0  0  0  0  0
    7.7619   -0.2651    0.0000 C   0  0  0  0  0  0  0  0  0  0  0  0
    8.2619   -1.1311    0.0000 C   0  0  0  0  0  0  0  0  0  0  0  0
    5.4030    0.1627    0.0000 H   0  0  0  0  0  0  0  0  0  0  0  0
    3.7742    1.6604    0.0000 H   0  0  0  0  0  0  0  0  0  0  0  0
    3.9385    0.8805    0.0000 H   0  0  0  0  0  0  0  0  0  0  0  0
    5.9880    0.2107    0.0000 H   0  0  0  0  0  0  0  0  0  0  0  0
    6.5812    0.7430    0.0000 H   0  0  0  0  0  0  0  0  0  0  0  0
    4.6112    2.9386    0.0000 H   0  0  0  0  0  0  0  0  0  0  0  0
    4.0179    2.4063    0.0000 H   0  0  0  0  0  0  0  0  0  0  0  0
    6.1366    2.8528    0.0000 H   0  0  0  0  0  0  0  0  0  0  0  0
    5.3790    3.1004    0.0000 H   0  0  0  0  0  0  0  0  0  0  0  0
    6.8848    1.9087    0.0000 H   0  0  0  0  0  0  0  0  0  0  0  0
    4.8709   -2.5252    0.0000 H   0  0  0  0  0  0  0  0  0  0  0  0
    2.8660    0.4889    0.0000 H   0  0  0  0  0  0  0  0  0  0  0  0
    2.8660   -2.7511    0.0000 H   0  0  0  0  0  0  0  0  0  0  0  0
    1.4631   -0.3211    0.0000 H   0  0  0  0  0  0  0  0  0  0  0  0
    1.4631   -1.9411    0.0000 H   0  0  0  0  0  0  0  0  0  0  0  0
    6.4519   -2.5341    0.0000 H   0  0  0  0  0  0  0  0  0  0  0  0
    6.4519    0.2718    0.0000 H   0  0  0  0  0  0  0  0  0  0  0  0
    8.0719   -2.5341    0.0000 H   0  0  0  0  0  0  0  0  0  0  0  0
    8.0719    0.2718    0.0000 H   0  0  0  0  0  0  0  0  0  0  0  0
    8.8819   -1.1311    0.0000 H   0  0  0  0  0  0  0  0  0  0  0  0
  1  5  1  0  0  0  0
  1  8  1  0  0  0  0
  1 31  1  0  0  0  0
  2 10  1  0  0  0  0
  2 11  1  0  0  0  0
  2 32  1  0  0  0  0
  3  4  1  0  0  0  0
  3  5  1  0  0  0  0
  3  6  1  0  0  0  0
  3 22  1  0  0  0  0
  4  7  1  0  0  0  0
  4 23  1  0  0  0  0
  4 24  1  0  0  0  0
  5 25  1  0  0  0  0
  5 26  1  0  0  0  0
  6  9  1  0  0  0  0
  6 10  2  0  0  0  0
  7  8  1  0  0  0  0
  7 27  1  0  0  0  0
  7 28  1  0  0  0  0
  8 29  1  0  0  0  0
  8 30  1  0  0  0  0
  9 11  1  0  0  0  0
  9 13  2  0  0  0  0
 10 12  1  0  0  0  0
 11 14  2  0  0  0  0
 12 17  2  0  0  0  0
 12 18  1  0  0  0  0
 13 15  1  0  0  0  0
 13 33  1  0  0  0  0
 14 16  1  0  0  0  0
 14 34  1  0  0  0  0
 15 16  2  0  0  0  0
 15 35  1  0  0  0  0
 16 36  1  0  0  0  0
 17 19  1  0  0  0  0
 17 37  1  0  0  0  0
 18 20  2  0  0  0  0
 18 38  1  0  0  0  0
 19 21  2  0  0  0  0
 19 39  1  0  0  0  0
 20 21  1  0  0  0  0
 20 40  1  0  0  0  0
 21 41  1  0  0  0  0
M  END
> <PUBCHEM_COMPOUND_CID>
9795587

> <PUBCHEM_COMPOUND_CANONICALIZED>
1

> <PUBCHEM_CACTVS_COMPLEXITY>
337

> <PUBCHEM_CACTVS_HBOND_ACCEPTOR>
1

> <PUBCHEM_CACTVS_HBOND_DONOR>
2

> <PUBCHEM_CACTVS_ROTATABLE_BOND>
2

> <PUBCHEM_CACTVS_SUBSKEYS>
AAADceB7AAAAAAAAAAAAAAAAAAAAAWAAAAA8YIAAAAAAAFgB9AAAHAAQAAAADQjBHgQwwPLJkACgAyRiRACCgCAhAiAImaA4ZJgIIOLAkZGEIAhgkADIyAcQgMAOgAAAAAACAAAAAAAAAAQAAAAAAAAAAA==

> <PUBCHEM_IUPAC_OPENEYE_NAME>
2-phenyl-3-(3-piperidyl)-1H-indole

> <PUBCHEM_IUPAC_CAS_NAME>
2-phenyl-3-(3-piperidinyl)-1H-indole

> <PUBCHEM_IUPAC_NAME_MARKUP>
2-phenyl-3-piperidin-3-yl-1<I>H</I>-indole

> <PUBCHEM_IUPAC_NAME>
2-phenyl-3-piperidin-3-yl-1H-indole

> <PUBCHEM_IUPAC_SYSTEMATIC_NAME>
2-phenyl-3-piperidin-3-yl-1H-indole

> <PUBCHEM_IUPAC_TRADITIONAL_NAME>
2-phenyl-3-(3-piperidyl)-1H-indole

> <PUBCHEM_IUPAC_INCHI>
InChI=1S/C19H20N2/c1-2-7-14(8-3-1)19-18(15-9-6-12-20-13-15)16-10-4-5-11-17(16)21-19/h1-5,7-8,10-11,15,20-21H,6,9,12-13H2

> <PUBCHEM_IUPAC_INCHIKEY>
FYHCOUIJWCQUMZ-UHFFFAOYSA-N

> <PUBCHEM_XLOGP3_AA>
3.8

> <PUBCHEM_EXACT_MASS>
276.162648646

> <PUBCHEM_MOLECULAR_FORMULA>
C19H20N2

> <PUBCHEM_MOLECULAR_WEIGHT>
276.4

> <PUBCHEM_OPENEYE_CAN_SMILES>
C1CC(CNC1)C2=C(NC3=CC=CC=C32)C4=CC=CC=C4

> <PUBCHEM_OPENEYE_ISO_SMILES>
C1CC(CNC1)C2=C(NC3=CC=CC=C32)C4=CC=CC=C4

> <PUBCHEM_CACTVS_TPSA>
27.8

> <PUBCHEM_MONOISOTOPIC_WEIGHT>
276.162648646

> <PUBCHEM_TOTAL_CHARGE>
0

> <PUBCHEM_HEAVY_ATOM_COUNT>
21

> <PUBCHEM_ATOM_DEF_STEREO_COUNT>
0

> <PUBCHEM_ATOM_UDEF_STEREO_COUNT>
1

> <PUBCHEM_BOND_DEF_STEREO_COUNT>
0

> <PUBCHEM_BOND_UDEF_STEREO_COUNT>
0

> <PUBCHEM_ISOTOPIC_ATOM_COUNT>
0

> <PUBCHEM_COMPONENT_COUNT>
1

> <PUBCHEM_CACTVS_TAUTO_COUNT>
-1

> <PUBCHEM_COORDINATE_TYPE>
1
5
255

> <PUBCHEM_BONDANNOTATIONS>
11  14  8
12  17  8
12  18  8
13  15  8
14  16  8
15  16  8
17  19  8
18  20  8
19  21  8
2  10  8
2  11  8
20  21  8
3  6  3
6  10  8
6  9  8
9  11  8
9  13  8

$$$$
