138670706
  -OEChem-09292322452D

 69 73  0     1  0  0  0  0  0999 V2000
   14.7691   -0.5851    0.0000 S   0  0  0  0  0  0  0  0  0  0  0  0
    3.1284    1.2547    0.0000 S   0  0  0  0  0  0  0  0  0  0  0  0
   16.3567   -1.3819    0.0000 O   0  0  0  0  0  0  0  0  0  0  0  0
    6.1234    1.1651    0.0000 O   0  0  0  0  0  0  0  0  0  0  0  0
   11.6362   -1.4055    0.0000 N   0  0  3  0  0  0  0  0  0  0  0  0
    6.1320   -0.5669    0.0000 N   0  0  0  0  0  0  0  0  0  0  0  0
   14.7771   -2.1946    0.0000 N   0  0  0  0  0  0  0  0  0  0  0  0
    3.7791    2.7362    0.0000 N   0  0  0  0  0  0  0  0  0  0  0  0
    9.1320   -0.5519    0.0000 C   0  0  0  0  0  0  0  0  0  0  0  0
    8.6363   -1.4204    0.0000 C   0  0  0  0  0  0  0  0  0  0  0  0
    8.6276    0.3116    0.0000 C   0  0  0  0  0  0  0  0  0  0  0  0
    7.1320   -0.5619    0.0000 C   0  0  0  0  0  0  0  0  0  0  0  0
    7.6363   -1.4254    0.0000 C   0  0  0  0  0  0  0  0  0  0  0  0
    7.6277    0.3066    0.0000 C   0  0  0  0  0  0  0  0  0  0  0  0
   17.8610   -2.2405    0.0000 C   0  0  0  0  0  0  0  0  0  0  0  0
   10.1319   -0.5469    0.0000 C   0  0  0  0  0  0  0  0  0  0  0  0
   18.7295   -2.7362    0.0000 C   0  0  0  0  0  0  0  0  0  0  0  0
   18.7245   -1.7362    0.0000 C   0  0  0  0  0  0  0  0  0  0  0  0
   10.6363   -1.4105    0.0000 C   0  0  0  0  0  0  0  0  0  0  0  0
   16.8610   -2.2455    0.0000 C   0  0  0  0  0  0  0  0  0  0  0  0
   12.0656   -0.5024    0.0000 C   0  0  0  0  0  0  0  0  0  0  0  0
   12.0746   -2.3043    0.0000 C   0  0  0  0  0  0  0  0  0  0  0  0
   13.0394   -0.2750    0.0000 C   0  0  0  0  0  0  0  0  0  0  0  0
   13.0506   -2.5219    0.0000 C   0  0  0  0  0  0  0  0  0  0  0  0
   13.8244   -0.8946    0.0000 C   0  0  0  0  0  0  0  0  0  0  0  0
   13.8294   -1.8946    0.0000 C   0  0  0  0  0  0  0  0  0  0  0  0
    5.6277    0.2966    0.0000 C   0  0  0  0  0  0  0  0  0  0  0  0
   15.3567   -1.3869    0.0000 C   0  0  0  0  0  0  0  0  0  0  0  0
    4.6277    0.2916    0.0000 C   0  0  0  0  0  0  0  0  0  0  0  0
    4.1234    1.1552    0.0000 C   0  0  0  0  0  0  0  0  0  0  0  0
    4.5256    2.0707    0.0000 C   0  0  0  0  0  0  0  0  0  0  0  0
    2.9156    2.2318    0.0000 C   0  0  0  0  0  0  0  0  0  0  0  0
    2.0000    2.6340    0.0000 C   0  0  0  0  0  0  0  0  0  0  0  0
    9.4393   -0.0135    0.0000 H   0  0  0  0  0  0  0  0  0  0  0  0
    8.5317   -2.0316    0.0000 H   0  0  0  0  0  0  0  0  0  0  0  0
    9.2199   -1.6296    0.0000 H   0  0  0  0  0  0  0  0  0  0  0  0
    9.2092    0.5265    0.0000 H   0  0  0  0  0  0  0  0  0  0  0  0
    8.5169    0.9216    0.0000 H   0  0  0  0  0  0  0  0  0  0  0  0
    6.8193   -0.0265    0.0000 H   0  0  0  0  0  0  0  0  0  0  0  0
    7.0548   -1.6404    0.0000 H   0  0  0  0  0  0  0  0  0  0  0  0
    7.7470   -2.0355    0.0000 H   0  0  0  0  0  0  0  0  0  0  0  0
    7.7323    0.9177    0.0000 H   0  0  0  0  0  0  0  0  0  0  0  0
    7.0440    0.5158    0.0000 H   0  0  0  0  0  0  0  0  0  0  0  0
   17.6975   -1.6424    0.0000 H   0  0  0  0  0  0  0  0  0  0  0  0
   10.7135   -0.3320    0.0000 H   0  0  0  0  0  0  0  0  0  0  0  0
   10.0212    0.0631    0.0000 H   0  0  0  0  0  0  0  0  0  0  0  0
   18.5203   -3.3198    0.0000 H   0  0  0  0  0  0  0  0  0  0  0  0
   19.3406   -2.8408    0.0000 H   0  0  0  0  0  0  0  0  0  0  0  0
   19.3345   -1.6254    0.0000 H   0  0  0  0  0  0  0  0  0  0  0  0
   18.5095   -1.1546    0.0000 H   0  0  0  0  0  0  0  0  0  0  0  0
   10.0547   -1.6254    0.0000 H   0  0  0  0  0  0  0  0  0  0  0  0
   10.7470   -2.0205    0.0000 H   0  0  0  0  0  0  0  0  0  0  0  0
   16.2794   -2.4604    0.0000 H   0  0  0  0  0  0  0  0  0  0  0  0
   16.9717   -2.8555    0.0000 H   0  0  0  0  0  0  0  0  0  0  0  0
    5.8247   -1.1054    0.0000 H   0  0  0  0  0  0  0  0  0  0  0  0
   12.0625    0.1176    0.0000 H   0  0  0  0  0  0  0  0  0  0  0  0
   11.4605   -0.3674    0.0000 H   0  0  0  0  0  0  0  0  0  0  0  0
   11.4709   -2.4452    0.0000 H   0  0  0  0  0  0  0  0  0  0  0  0
   12.0777   -2.9243    0.0000 H   0  0  0  0  0  0  0  0  0  0  0  0
   13.5222    0.1140    0.0000 H   0  0  0  0  0  0  0  0  0  0  0  0
   12.7676    0.2823    0.0000 H   0  0  0  0  0  0  0  0  0  0  0  0
   12.7844   -3.0819    0.0000 H   0  0  0  0  0  0  0  0  0  0  0  0
   13.5373   -2.9061    0.0000 H   0  0  0  0  0  0  0  0  0  0  0  0
    4.0462    0.0767    0.0000 H   0  0  0  0  0  0  0  0  0  0  0  0
    4.7384   -0.3184    0.0000 H   0  0  0  0  0  0  0  0  0  0  0  0
    5.1314    2.2027    0.0000 H   0  0  0  0  0  0  0  0  0  0  0  0
    2.2494    3.2017    0.0000 H   0  0  0  0  0  0  0  0  0  0  0  0
    1.4324    2.8834    0.0000 H   0  0  0  0  0  0  0  0  0  0  0  0
    1.7506    2.0664    0.0000 H   0  0  0  0  0  0  0  0  0  0  0  0
  1 25  1  0  0  0  0
  1 28  1  0  0  0  0
  2 30  1  0  0  0  0
  2 32  1  0  0  0  0
  3 20  1  0  0  0  0
  3 28  1  0  0  0  0
  4 27  2  0  0  0  0
  5 19  1  0  0  0  0
  5 21  1  0  0  0  0
  5 22  1  0  0  0  0
  6 12  1  0  0  0  0
  6 27  1  0  0  0  0
  6 55  1  0  0  0  0
  7 26  1  0  0  0  0
  7 28  2  0  0  0  0
  8 31  1  0  0  0  0
  8 32  2  0  0  0  0
  9 10  1  0  0  0  0
  9 11  1  0  0  0  0
  9 16  1  0  0  0  0
  9 34  1  0  0  0  0
 10 13  1  0  0  0  0
 10 35  1  0  0  0  0
 10 36  1  0  0  0  0
 11 14  1  0  0  0  0
 11 37  1  0  0  0  0
 11 38  1  0  0  0  0
 12 13  1  0  0  0  0
 12 14  1  0  0  0  0
 12 39  1  0  0  0  0
 13 40  1  0  0  0  0
 13 41  1  0  0  0  0
 14 42  1  0  0  0  0
 14 43  1  0  0  0  0
 15 17  1  0  0  0  0
 15 18  1  0  0  0  0
 15 20  1  0  0  0  0
 15 44  1  0  0  0  0
 16 19  1  0  0  0  0
 16 45  1  0  0  0  0
 16 46  1  0  0  0  0
 17 18  1  0  0  0  0
 17 47  1  0  0  0  0
 17 48  1  0  0  0  0
 18 49  1  0  0  0  0
 18 50  1  0  0  0  0
 19 51  1  0  0  0  0
 19 52  1  0  0  0  0
 20 53  1  0  0  0  0
 20 54  1  0  0  0  0
 21 23  1  0  0  0  0
 21 56  1  0  0  0  0
 21 57  1  0  0  0  0
 22 24  1  0  0  0  0
 22 58  1  0  0  0  0
 22 59  1  0  0  0  0
 23 25  1  0  0  0  0
 23 60  1  0  0  0  0
 23 61  1  0  0  0  0
 24 26  1  0  0  0  0
 24 62  1  0  0  0  0
 24 63  1  0  0  0  0
 25 26  2  0  0  0  0
 27 29  1  0  0  0  0
 29 30  1  0  0  0  0
 29 64  1  0  0  0  0
 29 65  1  0  0  0  0
 30 31  2  0  0  0  0
 31 66  1  0  0  0  0
 32 33  1  0  0  0  0
 33 67  1  0  0  0  0
 33 68  1  0  0  0  0
 33 69  1  0  0  0  0
M  END
> <PUBCHEM_COMPOUND_CID>
138670706

> <PUBCHEM_COMPOUND_CANONICALIZED>
1

> <PUBCHEM_CACTVS_COMPLEXITY>
644

> <PUBCHEM_CACTVS_HBOND_ACCEPTOR>
7

> <PUBCHEM_CACTVS_HBOND_DONOR>
1

> <PUBCHEM_CACTVS_ROTATABLE_BOND>
9

> <PUBCHEM_CACTVS_SUBSKEYS>
AAADcfB7sABgAAAAAAAAAAAAGAAAAWLAAAAwAAAABYAAAACx4AAAHgQQAAAADSjh1gYugRPIFAisARV3VAAA8KBxCDhAWJ04QAgAIBJgxQEMAAAkFgDoSAMUgIAOAAAAAAAAAAAQAAAAAAAAAAAAAAAAAA==

> <PUBCHEM_IUPAC_OPENEYE_NAME>
N-[4-[2-[2-(cyclopropylmethoxy)-4,5,7,8-tetrahydrothiazolo[4,5-d]azepin-6-yl]ethyl]cyclohexyl]-2-(2-methylthiazol-5-yl)acetamide

> <PUBCHEM_IUPAC_CAS_NAME>
N-[4-[2-[2-(cyclopropylmethoxy)-4,5,7,8-tetrahydrothiazolo[4,5-d]azepin-6-yl]ethyl]cyclohexyl]-2-(2-methyl-5-thiazolyl)acetamide

> <PUBCHEM_IUPAC_NAME_MARKUP>
<I>N</I>-[4-[2-[2-(cyclopropylmethoxy)-4,5,7,8-tetrahydro-[1,3]thiazolo[4,5-d]azepin-6-yl]ethyl]cyclohexyl]-2-(2-methyl-1,3-thiazol-5-yl)acetamide

> <PUBCHEM_IUPAC_NAME>
N-[4-[2-[2-(cyclopropylmethoxy)-4,5,7,8-tetrahydro-[1,3]thiazolo[4,5-d]azepin-6-yl]ethyl]cyclohexyl]-2-(2-methyl-1,3-thiazol-5-yl)acetamide

> <PUBCHEM_IUPAC_SYSTEMATIC_NAME>
N-[4-[2-[2-(cyclopropylmethoxy)-4,5,7,8-tetrahydro-[1,3]thiazolo[4,5-d]azepin-6-yl]ethyl]cyclohexyl]-2-(2-methyl-1,3-thiazol-5-yl)ethanamide

> <PUBCHEM_IUPAC_TRADITIONAL_NAME>
N-[4-[2-[2-(cyclopropylmethoxy)-4,5,7,8-tetrahydrothiazol[4,5-d]azepin-6-yl]ethyl]cyclohexyl]-2-(2-methylthiazol-5-yl)acetamide

> <PUBCHEM_IUPAC_INCHI>
InChI=1S/C25H36N4O2S2/c1-17-26-15-21(32-17)14-24(30)27-20-6-4-18(5-7-20)8-11-29-12-9-22-23(10-13-29)33-25(28-22)31-16-19-2-3-19/h15,18-20H,2-14,16H2,1H3,(H,27,30)

> <PUBCHEM_IUPAC_INCHIKEY>
DODUHZQKDPVRII-UHFFFAOYSA-N

> <PUBCHEM_XLOGP3_AA>
4.7

> <PUBCHEM_EXACT_MASS>
488.22796875

> <PUBCHEM_MOLECULAR_FORMULA>
C25H36N4O2S2

> <PUBCHEM_MOLECULAR_WEIGHT>
488.7

> <PUBCHEM_OPENEYE_CAN_SMILES>
CC1=NC=C(S1)CC(=O)NC2CCC(CC2)CCN3CCC4=C(CC3)SC(=N4)OCC5CC5

> <PUBCHEM_OPENEYE_ISO_SMILES>
CC1=NC=C(S1)CC(=O)NC2CCC(CC2)CCN3CCC4=C(CC3)SC(=N4)OCC5CC5

> <PUBCHEM_CACTVS_TPSA>
124

> <PUBCHEM_MONOISOTOPIC_WEIGHT>
488.22796875

> <PUBCHEM_TOTAL_CHARGE>
0

> <PUBCHEM_HEAVY_ATOM_COUNT>
33

> <PUBCHEM_ATOM_DEF_STEREO_COUNT>
0

> <PUBCHEM_ATOM_UDEF_STEREO_COUNT>
0

> <PUBCHEM_BOND_DEF_STEREO_COUNT>
0

> <PUBCHEM_BOND_UDEF_STEREO_COUNT>
0

> <PUBCHEM_ISOTOPIC_ATOM_COUNT>
0

> <PUBCHEM_COMPONENT_COUNT>
1

> <PUBCHEM_CACTVS_TAUTO_COUNT>
-1

> <PUBCHEM_COORDINATE_TYPE>
1
5
255

> <PUBCHEM_BONDANNOTATIONS>
1  25  8
1  28  8
2  30  8
2  32  8
25  26  8
30  31  8
7  26  8
7  28  8
8  31  8
8  32  8

$$$$
