45261764
  -OEChem-09292322132D

 54 56  0     1  0  0  0  0  0999 V2000
    5.2665    0.0000    0.0000 Cl  0  0  0  0  0  0  0  0  0  0  0  0
   10.0796    9.1725    0.0000 F   0  0  0  0  0  0  0  0  0  0  0  0
    8.3312    5.1379    0.0000 O   0  0  0  0  0  0  0  0  0  0  0  0
    4.8671    5.1379    0.0000 N   0  0  0  0  0  0  0  0  0  0  0  0
    6.5991    6.1379    0.0000 C   0  0  0  0  0  0  0  0  0  0  0  0
    7.4651    6.6379    0.0000 C   0  0  3  0  0  0  0  0  0  0  0  0
    6.5991    5.1379    0.0000 C   0  0  0  0  0  0  0  0  0  0  0  0
    5.7331    6.6379    0.0000 C   0  0  0  0  0  0  0  0  0  0  0  0
    5.7331    4.6379    0.0000 C   0  0  0  0  0  0  0  0  0  0  0  0
    4.8671    6.1379    0.0000 C   0  0  0  0  0  0  0  0  0  0  0  0
    7.4651    7.6379    0.0000 C   0  0  0  0  0  0  0  0  0  0  0  0
    8.3312    6.1379    0.0000 C   0  0  0  0  0  0  0  0  0  0  0  0
    8.3312    8.1379    0.0000 C   0  0  0  0  0  0  0  0  0  0  0  0
    4.0010    4.6379    0.0000 C   0  0  0  0  0  0  0  0  0  0  0  0
    9.1972    6.6379    0.0000 C   0  0  0  0  0  0  0  0  0  0  0  0
    9.1972    7.6379    0.0000 C   0  0  0  0  0  0  0  0  0  0  0  0
    3.1350    5.1379    0.0000 C   0  0  0  0  0  0  0  0  0  0  0  0
   10.0911    6.1033    0.0000 C   0  0  0  0  0  0  0  0  0  0  0  0
   10.0911    8.1726    0.0000 C   0  0  0  0  0  0  0  0  0  0  0  0
    2.2690    4.6379    0.0000 C   0  0  0  0  0  0  0  0  0  0  0  0
   10.9972    6.6171    0.0000 C   0  0  0  0  0  0  0  0  0  0  0  0
   10.9972    7.6588    0.0000 C   0  0  0  0  0  0  0  0  0  0  0  0
    1.4030    5.1379    0.0000 C   0  0  0  0  0  0  0  0  0  0  0  0
    2.2690    3.6379    0.0000 C   0  0  0  0  0  0  0  0  0  0  0  0
    0.5369    4.6379    0.0000 C   0  0  0  0  0  0  0  0  0  0  0  0
    1.4030    3.1379    0.0000 C   0  0  0  0  0  0  0  0  0  0  0  0
    0.5369    3.6379    0.0000 C   0  0  0  0  0  0  0  0  0  0  0  0
    6.5991    6.7579    0.0000 H   0  0  0  0  0  0  0  0  0  0  0  0
    7.4651    6.0179    0.0000 H   0  0  0  0  0  0  0  0  0  0  0  0
    6.8112    4.5553    0.0000 H   0  0  0  0  0  0  0  0  0  0  0  0
    7.2097    5.2456    0.0000 H   0  0  0  0  0  0  0  0  0  0  0  0
    6.1316    7.1129    0.0000 H   0  0  0  0  0  0  0  0  0  0  0  0
    5.3346    7.1129    0.0000 H   0  0  0  0  0  0  0  0  0  0  0  0
    5.3346    4.1630    0.0000 H   0  0  0  0  0  0  0  0  0  0  0  0
    6.1316    4.1630    0.0000 H   0  0  0  0  0  0  0  0  0  0  0  0
    4.6550    6.7206    0.0000 H   0  0  0  0  0  0  0  0  0  0  0  0
    4.2565    6.0303    0.0000 H   0  0  0  0  0  0  0  0  0  0  0  0
    7.2531    8.2206    0.0000 H   0  0  0  0  0  0  0  0  0  0  0  0
    6.8546    7.5303    0.0000 H   0  0  0  0  0  0  0  0  0  0  0  0
    8.7297    8.6129    0.0000 H   0  0  0  0  0  0  0  0  0  0  0  0
    7.9326    8.6129    0.0000 H   0  0  0  0  0  0  0  0  0  0  0  0
    3.6025    4.1630    0.0000 H   0  0  0  0  0  0  0  0  0  0  0  0
    4.3996    4.1630    0.0000 H   0  0  0  0  0  0  0  0  0  0  0  0
    3.5335    5.6129    0.0000 H   0  0  0  0  0  0  0  0  0  0  0  0
    2.7365    5.6129    0.0000 H   0  0  0  0  0  0  0  0  0  0  0  0
   10.0840    5.4833    0.0000 H   0  0  0  0  0  0  0  0  0  0  0  0
   11.5329    6.3051    0.0000 H   0  0  0  0  0  0  0  0  0  0  0  0
   11.5329    7.9708    0.0000 H   0  0  0  0  0  0  0  0  0  0  0  0
    1.4030    5.7579    0.0000 H   0  0  0  0  0  0  0  0  0  0  0  0
    2.8059    3.3279    0.0000 H   0  0  0  0  0  0  0  0  0  0  0  0
    0.0000    4.9479    0.0000 H   0  0  0  0  0  0  0  0  0  0  0  0
    1.4030    2.5179    0.0000 H   0  0  0  0  0  0  0  0  0  0  0  0
    0.0000    3.3279    0.0000 H   0  0  0  0  0  0  0  0  0  0  0  0
    6.2665    0.0000    0.0000 H   0  0  0  0  0  0  0  0  0  0  0  0
  1 54  1  0  0  0  0
  2 19  1  0  0  0  0
  3 12  2  0  0  0  0
  4  9  1  0  0  0  0
  4 10  1  0  0  0  0
  4 14  1  0  0  0  0
  5  6  1  0  0  0  0
  5  7  1  0  0  0  0
  5  8  1  0  0  0  0
  5 28  1  0  0  0  0
  6 11  1  0  0  0  0
  6 12  1  0  0  0  0
  6 29  1  0  0  0  0
  7  9  1  0  0  0  0
  7 30  1  0  0  0  0
  7 31  1  0  0  0  0
  8 10  1  0  0  0  0
  8 32  1  0  0  0  0
  8 33  1  0  0  0  0
  9 34  1  0  0  0  0
  9 35  1  0  0  0  0
 10 36  1  0  0  0  0
 10 37  1  0  0  0  0
 11 13  1  0  0  0  0
 11 38  1  0  0  0  0
 11 39  1  0  0  0  0
 12 15  1  0  0  0  0
 13 16  1  0  0  0  0
 13 40  1  0  0  0  0
 13 41  1  0  0  0  0
 14 17  1  0  0  0  0
 14 42  1  0  0  0  0
 14 43  1  0  0  0  0
 15 16  2  0  0  0  0
 15 18  1  0  0  0  0
 16 19  1  0  0  0  0
 17 20  1  0  0  0  0
 17 44  1  0  0  0  0
 17 45  1  0  0  0  0
 18 21  2  0  0  0  0
 18 46  1  0  0  0  0
 19 22  2  0  0  0  0
 20 23  2  0  0  0  0
 20 24  1  0  0  0  0
 21 22  1  0  0  0  0
 21 47  1  0  0  0  0
 22 48  1  0  0  0  0
 23 25  1  0  0  0  0
 23 49  1  0  0  0  0
 24 26  2  0  0  0  0
 24 50  1  0  0  0  0
 25 27  2  0  0  0  0
 25 51  1  0  0  0  0
 26 27  1  0  0  0  0
 26 52  1  0  0  0  0
 27 53  1  0  0  0  0
M  END
> <PUBCHEM_COMPOUND_CID>
45261764

> <PUBCHEM_COMPOUND_CANONICALIZED>
1

> <PUBCHEM_CACTVS_COMPLEXITY>
467

> <PUBCHEM_CACTVS_HBOND_ACCEPTOR>
3

> <PUBCHEM_CACTVS_HBOND_DONOR>
1

> <PUBCHEM_CACTVS_ROTATABLE_BOND>
4

> <PUBCHEM_CACTVS_SUBSKEYS>
AAADceB6IQAEAAAAAAAAAAAAAAAAAAAAAAA8YMEAAAAAAADBQAAAHwAAAAAADQTBmAwwAIMAAACIAqBSAAACAAAkAAAIiAEIAMgIIDKAlRGEIQAggACIiYcYicCOgAAAAAAQAACAAAQAACAAAAAAAAAAAA==

> <PUBCHEM_IUPAC_OPENEYE_NAME>
5-fluoro-2-[1-(2-phenylethyl)-4-piperidyl]tetralin-1-one;hydrochloride

> <PUBCHEM_IUPAC_CAS_NAME>
5-fluoro-2-[1-(2-phenylethyl)-4-piperidinyl]-3,4-dihydro-2H-naphthalen-1-one;hydrochloride

> <PUBCHEM_IUPAC_NAME_MARKUP>
5-fluoro-2-[1-(2-phenylethyl)piperidin-4-yl]-3,4-dihydro-2<I>H</I>-naphthalen-1-one;hydrochloride

> <PUBCHEM_IUPAC_NAME>
5-fluoro-2-[1-(2-phenylethyl)piperidin-4-yl]-3,4-dihydro-2H-naphthalen-1-one;hydrochloride

> <PUBCHEM_IUPAC_SYSTEMATIC_NAME>
5-fluoranyl-2-[1-(2-phenylethyl)piperidin-4-yl]-3,4-dihydro-2H-naphthalen-1-one;hydrochloride

> <PUBCHEM_IUPAC_TRADITIONAL_NAME>
5-fluoro-2-(1-phenethyl-4-piperidyl)tetralin-1-one;hydrochloride

> <PUBCHEM_IUPAC_INCHI>
InChI=1S/C23H26FNO.ClH/c24-22-8-4-7-21-20(22)10-9-19(23(21)26)18-12-15-25(16-13-18)14-11-17-5-2-1-3-6-17;/h1-8,18-19H,9-16H2;1H

> <PUBCHEM_IUPAC_INCHIKEY>
MOHGHOWMUPTEIN-UHFFFAOYSA-N

> <PUBCHEM_EXACT_MASS>
387.1765203

> <PUBCHEM_MOLECULAR_FORMULA>
C23H27ClFNO

> <PUBCHEM_MOLECULAR_WEIGHT>
387.9

> <PUBCHEM_OPENEYE_CAN_SMILES>
C1CC2=C(C=CC=C2F)C(=O)C1C3CCN(CC3)CCC4=CC=CC=C4.Cl

> <PUBCHEM_OPENEYE_ISO_SMILES>
C1CC2=C(C=CC=C2F)C(=O)C1C3CCN(CC3)CCC4=CC=CC=C4.Cl

> <PUBCHEM_CACTVS_TPSA>
20.3

> <PUBCHEM_MONOISOTOPIC_WEIGHT>
387.1765203

> <PUBCHEM_TOTAL_CHARGE>
0

> <PUBCHEM_HEAVY_ATOM_COUNT>
27

> <PUBCHEM_ATOM_DEF_STEREO_COUNT>
0

> <PUBCHEM_ATOM_UDEF_STEREO_COUNT>
1

> <PUBCHEM_BOND_DEF_STEREO_COUNT>
0

> <PUBCHEM_BOND_UDEF_STEREO_COUNT>
0

> <PUBCHEM_ISOTOPIC_ATOM_COUNT>
0

> <PUBCHEM_COMPONENT_COUNT>
2

> <PUBCHEM_CACTVS_TAUTO_COUNT>
-1

> <PUBCHEM_COORDINATE_TYPE>
1
5
255

> <PUBCHEM_BONDANNOTATIONS>
15  16  8
15  18  8
16  19  8
18  21  8
19  22  8
20  23  8
20  24  8
21  22  8
23  25  8
24  26  8
25  27  8
26  27  8
6  5  3

$$$$
