45262343
  -OEChem-09292322122D

 73 75  0     1  0  0  0  0  0999 V2000
    8.8773    0.0000    0.0000 Cl  0  0  0  0  0  0  0  0  0  0  0  0
   17.3547    7.5385    0.0000 S   0  0  0  0  0  0  0  0  0  0  0  0
    7.0000    3.9163    0.0000 O   0  0  0  0  0  0  0  0  0  0  0  0
   17.8581    6.6744    0.0000 O   0  0  0  0  0  0  0  0  0  0  0  0
   16.8514    8.4026    0.0000 O   0  0  0  0  0  0  0  0  0  0  0  0
   12.5000    6.5144    0.0000 N   0  0  3  0  0  0  0  0  0  0  0  0
    7.0000    5.6484    0.0000 N   0  0  0  0  0  0  0  0  0  0  0  0
    0.0000    3.9163    0.0000 N   0  0  0  0  0  0  0  0  0  0  0  0
   10.0000    5.6484    0.0000 C   0  0  0  0  0  0  0  0  0  0  0  0
    9.5000    6.5144    0.0000 C   0  0  0  0  0  0  0  0  0  0  0  0
    9.5000    4.7823    0.0000 C   0  0  0  0  0  0  0  0  0  0  0  0
    8.0000    5.6484    0.0000 C   0  0  0  0  0  0  0  0  0  0  0  0
    8.5000    6.5144    0.0000 C   0  0  0  0  0  0  0  0  0  0  0  0
    8.5000    4.7823    0.0000 C   0  0  0  0  0  0  0  0  0  0  0  0
   11.0000    5.6484    0.0000 C   0  0  0  0  0  0  0  0  0  0  0  0
   11.5000    6.5144    0.0000 C   0  0  0  0  0  0  0  0  0  0  0  0
   12.9339    7.4154    0.0000 C   0  0  0  0  0  0  0  0  0  0  0  0
   12.9339    5.6134    0.0000 C   0  0  0  0  0  0  0  0  0  0  0  0
   13.9088    7.6379    0.0000 C   0  0  0  0  0  0  0  0  0  0  0  0
   13.9088    5.3909    0.0000 C   0  0  0  0  0  0  0  0  0  0  0  0
   14.6906    7.0144    0.0000 C   0  0  0  0  0  0  0  0  0  0  0  0
   14.6906    6.0144    0.0000 C   0  0  0  0  0  0  0  0  0  0  0  0
    6.5000    4.7823    0.0000 C   0  0  0  0  0  0  0  0  0  0  0  0
   15.5846    7.5490    0.0000 C   0  0  0  0  0  0  0  0  0  0  0  0
   15.5846    5.4797    0.0000 C   0  0  0  0  0  0  0  0  0  0  0  0
   16.4907    7.0352    0.0000 C   0  0  0  0  0  0  0  0  0  0  0  0
   16.4907    5.9936    0.0000 C   0  0  0  0  0  0  0  0  0  0  0  0
    5.5000    4.7823    0.0000 C   0  0  0  0  0  0  0  0  0  0  0  0
    5.0000    3.9163    0.0000 C   0  0  0  0  0  0  0  0  0  0  0  0
   18.2188    8.0419    0.0000 C   0  0  0  0  0  0  0  0  0  0  0  0
    4.0000    3.9163    0.0000 C   0  0  0  0  0  0  0  0  0  0  0  0
    3.5000    4.7823    0.0000 C   0  0  0  0  0  0  0  0  0  0  0  0
    3.5000    3.0503    0.0000 C   0  0  0  0  0  0  0  0  0  0  0  0
    2.5000    4.7823    0.0000 C   0  0  0  0  0  0  0  0  0  0  0  0
    2.5000    3.0503    0.0000 C   0  0  0  0  0  0  0  0  0  0  0  0
    2.0000    3.9163    0.0000 C   0  0  0  0  0  0  0  0  0  0  0  0
    1.0000    3.9163    0.0000 C   0  0  0  0  0  0  0  0  0  0  0  0
   10.3100    5.1114    0.0000 H   0  0  0  0  0  0  0  0  0  0  0  0
   10.0826    6.7264    0.0000 H   0  0  0  0  0  0  0  0  0  0  0  0
    9.3923    7.1250    0.0000 H   0  0  0  0  0  0  0  0  0  0  0  0
    9.3923    4.1718    0.0000 H   0  0  0  0  0  0  0  0  0  0  0  0
   10.0826    4.5703    0.0000 H   0  0  0  0  0  0  0  0  0  0  0  0
    7.6900    5.1114    0.0000 H   0  0  0  0  0  0  0  0  0  0  0  0
    8.6077    7.1250    0.0000 H   0  0  0  0  0  0  0  0  0  0  0  0
    7.9174    6.7264    0.0000 H   0  0  0  0  0  0  0  0  0  0  0  0
    7.9174    4.5703    0.0000 H   0  0  0  0  0  0  0  0  0  0  0  0
    8.6077    4.1718    0.0000 H   0  0  0  0  0  0  0  0  0  0  0  0
   10.8923    5.0378    0.0000 H   0  0  0  0  0  0  0  0  0  0  0  0
   11.5826    5.4363    0.0000 H   0  0  0  0  0  0  0  0  0  0  0  0
   11.6077    7.1250    0.0000 H   0  0  0  0  0  0  0  0  0  0  0  0
   10.9174    6.7264    0.0000 H   0  0  0  0  0  0  0  0  0  0  0  0
    6.6900    6.1853    0.0000 H   0  0  0  0  0  0  0  0  0  0  0  0
   12.9339    8.0354    0.0000 H   0  0  0  0  0  0  0  0  0  0  0  0
   12.3294    7.5533    0.0000 H   0  0  0  0  0  0  0  0  0  0  0  0
   12.3294    5.4755    0.0000 H   0  0  0  0  0  0  0  0  0  0  0  0
   12.9339    4.9934    0.0000 H   0  0  0  0  0  0  0  0  0  0  0  0
   14.3935    8.0244    0.0000 H   0  0  0  0  0  0  0  0  0  0  0  0
   13.6398    8.1965    0.0000 H   0  0  0  0  0  0  0  0  0  0  0  0
   13.6398    4.8323    0.0000 H   0  0  0  0  0  0  0  0  0  0  0  0
   14.3935    5.0043    0.0000 H   0  0  0  0  0  0  0  0  0  0  0  0
   15.5774    8.1690    0.0000 H   0  0  0  0  0  0  0  0  0  0  0  0
   15.5774    4.8598    0.0000 H   0  0  0  0  0  0  0  0  0  0  0  0
   17.0264    5.6815    0.0000 H   0  0  0  0  0  0  0  0  0  0  0  0
    5.1900    5.3193    0.0000 H   0  0  0  0  0  0  0  0  0  0  0  0
    5.3100    3.3794    0.0000 H   0  0  0  0  0  0  0  0  0  0  0  0
   18.5309    7.5061    0.0000 H   0  0  0  0  0  0  0  0  0  0  0  0
   18.7546    8.3539    0.0000 H   0  0  0  0  0  0  0  0  0  0  0  0
   17.9068    8.5776    0.0000 H   0  0  0  0  0  0  0  0  0  0  0  0
    3.8100    5.3193    0.0000 H   0  0  0  0  0  0  0  0  0  0  0  0
    3.8100    2.5133    0.0000 H   0  0  0  0  0  0  0  0  0  0  0  0
    2.1900    5.3193    0.0000 H   0  0  0  0  0  0  0  0  0  0  0  0
    2.1900    2.5133    0.0000 H   0  0  0  0  0  0  0  0  0  0  0  0
    9.8773    0.0000    0.0000 H   0  0  0  0  0  0  0  0  0  0  0  0
  1 73  1  0  0  0  0
  2  4  2  0  0  0  0
  2  5  2  0  0  0  0
  2 26  1  0  0  0  0
  2 30  1  0  0  0  0
  3 23  2  0  0  0  0
  6 16  1  0  0  0  0
  6 17  1  0  0  0  0
  6 18  1  0  0  0  0
  7 12  1  0  0  0  0
  7 23  1  0  0  0  0
  7 52  1  0  0  0  0
  8 37  3  0  0  0  0
  9 10  1  0  0  0  0
  9 11  1  0  0  0  0
  9 15  1  0  0  0  0
  9 38  1  0  0  0  0
 10 13  1  0  0  0  0
 10 39  1  0  0  0  0
 10 40  1  0  0  0  0
 11 14  1  0  0  0  0
 11 41  1  0  0  0  0
 11 42  1  0  0  0  0
 12 13  1  0  0  0  0
 12 14  1  0  0  0  0
 12 43  1  0  0  0  0
 13 44  1  0  0  0  0
 13 45  1  0  0  0  0
 14 46  1  0  0  0  0
 14 47  1  0  0  0  0
 15 16  1  0  0  0  0
 15 48  1  0  0  0  0
 15 49  1  0  0  0  0
 16 50  1  0  0  0  0
 16 51  1  0  0  0  0
 17 19  1  0  0  0  0
 17 53  1  0  0  0  0
 17 54  1  0  0  0  0
 18 20  1  0  0  0  0
 18 55  1  0  0  0  0
 18 56  1  0  0  0  0
 19 21  1  0  0  0  0
 19 57  1  0  0  0  0
 19 58  1  0  0  0  0
 20 22  1  0  0  0  0
 20 59  1  0  0  0  0
 20 60  1  0  0  0  0
 21 22  2  0  0  0  0
 21 24  1  0  0  0  0
 22 25  1  0  0  0  0
 23 28  1  0  0  0  0
 24 26  2  0  0  0  0
 24 61  1  0  0  0  0
 25 27  2  0  0  0  0
 25 62  1  0  0  0  0
 26 27  1  0  0  0  0
 27 63  1  0  0  0  0
 28 29  2  0  0  0  0
 28 64  1  0  0  0  0
 29 31  1  0  0  0  0
 29 65  1  0  0  0  0
 30 66  1  0  0  0  0
 30 67  1  0  0  0  0
 30 68  1  0  0  0  0
 31 32  2  0  0  0  0
 31 33  1  0  0  0  0
 32 34  1  0  0  0  0
 32 69  1  0  0  0  0
 33 35  2  0  0  0  0
 33 70  1  0  0  0  0
 34 36  2  0  0  0  0
 34 71  1  0  0  0  0
 35 36  1  0  0  0  0
 35 72  1  0  0  0  0
 36 37  1  0  0  0  0
M  END
> <PUBCHEM_COMPOUND_CID>
45262343

> <PUBCHEM_COMPOUND_CANONICALIZED>
1

> <PUBCHEM_CACTVS_COMPLEXITY>
902

> <PUBCHEM_CACTVS_HBOND_ACCEPTOR>
5

> <PUBCHEM_CACTVS_HBOND_DONOR>
2

> <PUBCHEM_CACTVS_ROTATABLE_BOND>
7

> <PUBCHEM_CACTVS_SUBSKEYS>
AAADcfB7MABEAAAAAAAAAAAAAAAAAAAAAAAwYMAABYAAAAABQAAAHgQQAAAADSjB2ASyAYPAAAqYBiFSEHDiAAAgCBAIiJgIAMgIoCKgkRGEIAAglgCIiY8QgIAO0AAAgAAQAACwAAEAACAAAAAAAAAAAA==

> <PUBCHEM_IUPAC_OPENEYE_NAME>
(E)-3-(4-cyanophenyl)-N-[4-[2-(7-methylsulfonyl-1,2,4,5-tetrahydro-3-benzazepin-3-yl)ethyl]cyclohexyl]prop-2-enamide;hydrochloride

> <PUBCHEM_IUPAC_CAS_NAME>
(E)-3-(4-cyanophenyl)-N-[4-[2-(7-methylsulfonyl-1,2,4,5-tetrahydro-3-benzazepin-3-yl)ethyl]cyclohexyl]-2-propenamide;hydrochloride

> <PUBCHEM_IUPAC_NAME_MARKUP>
(<I>E</I>)-3-(4-cyanophenyl)-<I>N</I>-[4-[2-(7-methylsulfonyl-1,2,4,5-tetrahydro-3-benzazepin-3-yl)ethyl]cyclohexyl]prop-2-enamide;hydrochloride

> <PUBCHEM_IUPAC_NAME>
(E)-3-(4-cyanophenyl)-N-[4-[2-(7-methylsulfonyl-1,2,4,5-tetrahydro-3-benzazepin-3-yl)ethyl]cyclohexyl]prop-2-enamide;hydrochloride

> <PUBCHEM_IUPAC_SYSTEMATIC_NAME>
(E)-3-(4-cyanophenyl)-N-[4-[2-(7-methylsulfonyl-1,2,4,5-tetrahydro-3-benzazepin-3-yl)ethyl]cyclohexyl]prop-2-enamide;hydrochloride

> <PUBCHEM_IUPAC_TRADITIONAL_NAME>
(E)-3-(4-cyanophenyl)-N-[4-[2-(7-mesyl-1,2,4,5-tetrahydro-3-benzazepin-3-yl)ethyl]cyclohexyl]acrylamide;hydrochloride

> <PUBCHEM_IUPAC_INCHI>
InChI=1S/C29H35N3O3S.ClH/c1-36(34,35)28-12-9-25-15-18-32(19-16-26(25)20-28)17-14-23-6-10-27(11-7-23)31-29(33)13-8-22-2-4-24(21-30)5-3-22;/h2-5,8-9,12-13,20,23,27H,6-7,10-11,14-19H2,1H3,(H,31,33);1H/b13-8+;

> <PUBCHEM_IUPAC_INCHIKEY>
PPJAVVDBBJGPCQ-FNXZNAJJSA-N

> <PUBCHEM_EXACT_MASS>
541.2165909

> <PUBCHEM_MOLECULAR_FORMULA>
C29H36ClN3O3S

> <PUBCHEM_MOLECULAR_WEIGHT>
542.1

> <PUBCHEM_OPENEYE_CAN_SMILES>
CS(=O)(=O)C1=CC2=C(CCN(CC2)CCC3CCC(CC3)NC(=O)C=CC4=CC=C(C=C4)C#N)C=C1.Cl

> <PUBCHEM_OPENEYE_ISO_SMILES>
CS(=O)(=O)C1=CC2=C(CCN(CC2)CCC3CCC(CC3)NC(=O)/C=C/C4=CC=C(C=C4)C#N)C=C1.Cl

> <PUBCHEM_CACTVS_TPSA>
98.6

> <PUBCHEM_MONOISOTOPIC_WEIGHT>
541.2165909

> <PUBCHEM_TOTAL_CHARGE>
0

> <PUBCHEM_HEAVY_ATOM_COUNT>
37

> <PUBCHEM_ATOM_DEF_STEREO_COUNT>
0

> <PUBCHEM_ATOM_UDEF_STEREO_COUNT>
0

> <PUBCHEM_BOND_DEF_STEREO_COUNT>
1

> <PUBCHEM_BOND_UDEF_STEREO_COUNT>
0

> <PUBCHEM_ISOTOPIC_ATOM_COUNT>
0

> <PUBCHEM_COMPONENT_COUNT>
2

> <PUBCHEM_CACTVS_TAUTO_COUNT>
-1

> <PUBCHEM_COORDINATE_TYPE>
1
5
255

> <PUBCHEM_BONDANNOTATIONS>
21  22  8
21  24  8
22  25  8
24  26  8
25  27  8
26  27  8
31  32  8
31  33  8
32  34  8
33  35  8
34  36  8
35  36  8

$$$$
