118725997
  -OEChem-09292321592D

 88 93  0     1  0  0  0  0  0999 V2000
    2.5118    1.6909    0.0000 O   0  0  0  0  0  0  0  0  0  0  0  0
   13.7360   -0.7500    0.0000 O   0  0  0  0  0  0  0  0  0  0  0  0
   12.0039   -1.7500    0.0000 O   0  0  0  0  0  0  0  0  0  0  0  0
   24.6478    1.0590    0.0000 O   0  0  0  0  0  0  0  0  0  0  0  0
    7.6738   -0.2500    0.0000 N   0  0  3  0  0  0  0  0  0  0  0  0
    2.6067   -0.0829    0.0000 N   0  0  0  0  0  0  0  0  0  0  0  0
   11.1379   -0.2500    0.0000 N   0  0  0  0  0  0  0  0  0  0  0  0
   18.9321    1.2500    0.0000 N   0  0  0  0  0  0  0  0  0  0  0  0
   21.5302   -0.2500    0.0000 N   0  0  0  0  0  0  0  0  0  0  0  0
   20.6642    1.2500    0.0000 N   0  0  0  0  0  0  0  0  0  0  0  0
   19.7982   -0.2500    0.0000 N   0  0  0  0  0  0  0  0  0  0  0  0
   22.4764   -0.5547    0.0000 N   0  0  0  0  0  0  0  0  0  0  0  0
   22.4764    1.0547    0.0000 N   0  0  0  0  0  0  0  0  0  0  0  0
   20.6642   -1.7500    0.0000 N   0  0  0  0  0  0  0  0  0  0  0  0
    6.8078   -0.7500    0.0000 C   0  0  0  0  0  0  0  0  0  0  0  0
    5.9418   -0.2500    0.0000 C   0  0  0  0  0  0  0  0  0  0  0  0
    8.5398   -0.7500    0.0000 C   0  0  0  0  0  0  0  0  0  0  0  0
    5.0757   -0.7500    0.0000 C   0  0  0  0  0  0  0  0  0  0  0  0
    7.6738    0.7500    0.0000 C   0  0  0  0  0  0  0  0  0  0  0  0
    4.2097   -0.2500    0.0000 C   0  0  0  0  0  0  0  0  0  0  0  0
    9.4059   -0.2500    0.0000 C   0  0  0  0  0  0  0  0  0  0  0  0
    4.0005    0.7218    0.0000 C   0  0  0  0  0  0  0  0  0  0  0  0
    3.3437   -0.7500    0.0000 C   0  0  0  0  0  0  0  0  0  0  0  0
    6.8078    1.2500    0.0000 C   0  0  0  0  0  0  0  0  0  0  0  0
    5.0757   -1.7500    0.0000 C   0  0  0  0  0  0  0  0  0  0  0  0
   10.2719   -0.7500    0.0000 C   0  0  0  0  0  0  0  0  0  0  0  0
    3.0118    0.8249    0.0000 C   0  0  0  0  0  0  0  0  0  0  0  0
    3.3437   -1.7500    0.0000 C   0  0  0  0  0  0  0  0  0  0  0  0
    4.2097   -2.2500    0.0000 C   0  0  0  0  0  0  0  0  0  0  0  0
    6.8078    2.2500    0.0000 C   0  0  0  0  0  0  0  0  0  0  0  0
   12.0039   -0.7500    0.0000 C   0  0  0  0  0  0  0  0  0  0  0  0
   12.8700   -0.2500    0.0000 C   0  0  0  0  0  0  0  0  0  0  0  0
   17.2001    1.2500    0.0000 C   0  0  0  0  0  0  0  0  0  0  0  0
   16.3341    0.7500    0.0000 C   0  0  0  0  0  0  0  0  0  0  0  0
   14.6020   -0.2500    0.0000 C   0  0  0  0  0  0  0  0  0  0  0  0
   18.0661    0.7500    0.0000 C   0  0  0  0  0  0  0  0  0  0  0  0
   15.4680    1.2500    0.0000 C   0  0  0  0  0  0  0  0  0  0  0  0
   16.3341   -0.2500    0.0000 C   0  0  0  0  0  0  0  0  0  0  0  0
   14.6020    0.7500    0.0000 C   0  0  0  0  0  0  0  0  0  0  0  0
   15.4680   -0.7500    0.0000 C   0  0  0  0  0  0  0  0  0  0  0  0
   19.7982    0.7500    0.0000 C   0  0  0  0  0  0  0  0  0  0  0  0
   21.5302    0.7500    0.0000 C   0  0  0  0  0  0  0  0  0  0  0  0
   20.6642   -0.7500    0.0000 C   0  0  0  0  0  0  0  0  0  0  0  0
   23.0601    0.2500    0.0000 C   0  0  0  0  0  0  0  0  0  0  0  0
   24.0601    0.2500    0.0000 C   0  0  0  0  0  0  0  0  0  0  0  0
   24.6478   -0.5590    0.0000 C   0  0  0  0  0  0  0  0  0  0  0  0
   25.5989   -0.2500    0.0000 C   0  0  0  0  0  0  0  0  0  0  0  0
   25.5989    0.7500    0.0000 C   0  0  0  0  0  0  0  0  0  0  0  0
    6.4093   -1.2250    0.0000 H   0  0  0  0  0  0  0  0  0  0  0  0
    7.2063   -1.2250    0.0000 H   0  0  0  0  0  0  0  0  0  0  0  0
    6.3403    0.2249    0.0000 H   0  0  0  0  0  0  0  0  0  0  0  0
    5.5432    0.2249    0.0000 H   0  0  0  0  0  0  0  0  0  0  0  0
    8.1413   -1.2250    0.0000 H   0  0  0  0  0  0  0  0  0  0  0  0
    8.9384   -1.2250    0.0000 H   0  0  0  0  0  0  0  0  0  0  0  0
    8.2844    0.6423    0.0000 H   0  0  0  0  0  0  0  0  0  0  0  0
    7.8859    1.3326    0.0000 H   0  0  0  0  0  0  0  0  0  0  0  0
    9.8044    0.2249    0.0000 H   0  0  0  0  0  0  0  0  0  0  0  0
    9.0073    0.2249    0.0000 H   0  0  0  0  0  0  0  0  0  0  0  0
    4.6170    0.7879    0.0000 H   0  0  0  0  0  0  0  0  0  0  0  0
    3.9996    1.3418    0.0000 H   0  0  0  0  0  0  0  0  0  0  0  0
    6.1972    1.3577    0.0000 H   0  0  0  0  0  0  0  0  0  0  0  0
    6.5957    0.6674    0.0000 H   0  0  0  0  0  0  0  0  0  0  0  0
    5.6127   -2.0600    0.0000 H   0  0  0  0  0  0  0  0  0  0  0  0
    9.8734   -1.2250    0.0000 H   0  0  0  0  0  0  0  0  0  0  0  0
   10.6704   -1.2250    0.0000 H   0  0  0  0  0  0  0  0  0  0  0  0
    2.0000   -0.2108    0.0000 H   0  0  0  0  0  0  0  0  0  0  0  0
    2.8068   -2.0600    0.0000 H   0  0  0  0  0  0  0  0  0  0  0  0
    4.2097   -2.8700    0.0000 H   0  0  0  0  0  0  0  0  0  0  0  0
    7.4278    2.2500    0.0000 H   0  0  0  0  0  0  0  0  0  0  0  0
    6.8078    2.8700    0.0000 H   0  0  0  0  0  0  0  0  0  0  0  0
    6.1878    2.2500    0.0000 H   0  0  0  0  0  0  0  0  0  0  0  0
   11.1379    0.3700    0.0000 H   0  0  0  0  0  0  0  0  0  0  0  0
   13.2685    0.2249    0.0000 H   0  0  0  0  0  0  0  0  0  0  0  0
   12.4714    0.2249    0.0000 H   0  0  0  0  0  0  0  0  0  0  0  0
   17.5986    1.7250    0.0000 H   0  0  0  0  0  0  0  0  0  0  0  0
   16.8016    1.7250    0.0000 H   0  0  0  0  0  0  0  0  0  0  0  0
   17.6676    0.2751    0.0000 H   0  0  0  0  0  0  0  0  0  0  0  0
   18.4647    0.2751    0.0000 H   0  0  0  0  0  0  0  0  0  0  0  0
   15.4680    1.8700    0.0000 H   0  0  0  0  0  0  0  0  0  0  0  0
   16.8710   -0.5600    0.0000 H   0  0  0  0  0  0  0  0  0  0  0  0
   14.0651    1.0600    0.0000 H   0  0  0  0  0  0  0  0  0  0  0  0
   15.4680   -1.3700    0.0000 H   0  0  0  0  0  0  0  0  0  0  0  0
   18.9321    1.8700    0.0000 H   0  0  0  0  0  0  0  0  0  0  0  0
   20.1273   -2.0600    0.0000 H   0  0  0  0  0  0  0  0  0  0  0  0
   21.2011   -2.0600    0.0000 H   0  0  0  0  0  0  0  0  0  0  0  0
   24.4562   -1.1487    0.0000 H   0  0  0  0  0  0  0  0  0  0  0  0
   26.1005   -0.6144    0.0000 H   0  0  0  0  0  0  0  0  0  0  0  0
   26.1005    1.1144    0.0000 H   0  0  0  0  0  0  0  0  0  0  0  0
  1 27  2  0  0  0  0
  2 32  1  0  0  0  0
  2 35  1  0  0  0  0
  3 31  2  0  0  0  0
  4 45  1  0  0  0  0
  4 48  1  0  0  0  0
  5 15  1  0  0  0  0
  5 17  1  0  0  0  0
  5 19  1  0  0  0  0
  6 23  1  0  0  0  0
  6 27  1  0  0  0  0
  6 66  1  0  0  0  0
  7 26  1  0  0  0  0
  7 31  1  0  0  0  0
  7 72  1  0  0  0  0
  8 36  1  0  0  0  0
  8 41  1  0  0  0  0
  8 83  1  0  0  0  0
  9 12  1  0  0  0  0
  9 42  1  0  0  0  0
  9 43  1  0  0  0  0
 10 41  2  0  0  0  0
 10 42  1  0  0  0  0
 11 41  1  0  0  0  0
 11 43  2  0  0  0  0
 12 44  2  0  0  0  0
 13 42  2  0  0  0  0
 13 44  1  0  0  0  0
 14 43  1  0  0  0  0
 14 84  1  0  0  0  0
 14 85  1  0  0  0  0
 15 16  1  0  0  0  0
 15 49  1  0  0  0  0
 15 50  1  0  0  0  0
 16 18  1  0  0  0  0
 16 51  1  0  0  0  0
 16 52  1  0  0  0  0
 17 21  1  0  0  0  0
 17 53  1  0  0  0  0
 17 54  1  0  0  0  0
 18 20  2  0  0  0  0
 18 25  1  0  0  0  0
 19 24  1  0  0  0  0
 19 55  1  0  0  0  0
 19 56  1  0  0  0  0
 20 22  1  0  0  0  0
 20 23  1  0  0  0  0
 21 26  1  0  0  0  0
 21 57  1  0  0  0  0
 21 58  1  0  0  0  0
 22 27  1  0  0  0  0
 22 59  1  0  0  0  0
 22 60  1  0  0  0  0
 23 28  2  0  0  0  0
 24 30  1  0  0  0  0
 24 61  1  0  0  0  0
 24 62  1  0  0  0  0
 25 29  2  0  0  0  0
 25 63  1  0  0  0  0
 26 64  1  0  0  0  0
 26 65  1  0  0  0  0
 28 29  1  0  0  0  0
 28 67  1  0  0  0  0
 29 68  1  0  0  0  0
 30 69  1  0  0  0  0
 30 70  1  0  0  0  0
 30 71  1  0  0  0  0
 31 32  1  0  0  0  0
 32 73  1  0  0  0  0
 32 74  1  0  0  0  0
 33 34  1  0  0  0  0
 33 36  1  0  0  0  0
 33 75  1  0  0  0  0
 33 76  1  0  0  0  0
 34 37  2  0  0  0  0
 34 38  1  0  0  0  0
 35 39  2  0  0  0  0
 35 40  1  0  0  0  0
 36 77  1  0  0  0  0
 36 78  1  0  0  0  0
 37 39  1  0  0  0  0
 37 79  1  0  0  0  0
 38 40  2  0  0  0  0
 38 80  1  0  0  0  0
 39 81  1  0  0  0  0
 40 82  1  0  0  0  0
 44 45  1  0  0  0  0
 45 46  2  0  0  0  0
 46 47  1  0  0  0  0
 46 86  1  0  0  0  0
 47 48  2  0  0  0  0
 47 87  1  0  0  0  0
 48 88  1  0  0  0  0
M  END
> <PUBCHEM_COMPOUND_CID>
118725997

> <PUBCHEM_COMPOUND_CANONICALIZED>
1

> <PUBCHEM_CACTVS_COMPLEXITY>
1020

> <PUBCHEM_CACTVS_HBOND_ACCEPTOR>
11

> <PUBCHEM_CACTVS_HBOND_DONOR>
4

> <PUBCHEM_CACTVS_ROTATABLE_BOND>
17

> <PUBCHEM_CACTVS_SUBSKEYS>
AAADcfB/+AAAAAAAAAAAAAAAAAAAAWLEgAA8YIAAAAAAAFgB/AAAHgAYAAAADAzhmwYz1ofIFECqAq9y9AaSiAsnIqAdiKHubNiOLrLE/b+HOSj83hPY6Yec2YKOoAAAQAASAABAAACAACQAAAAAAAAAAA==

> <PUBCHEM_IUPAC_OPENEYE_NAME>
2-[4-[2-[[7-amino-2-(2-furyl)-[1,2,4]triazolo[1,5-a][1,3,5]triazin-5-yl]amino]ethyl]phenoxy]-N-[3-[2-(2-oxoindolin-4-yl)ethyl-propyl-amino]propyl]acetamide

> <PUBCHEM_IUPAC_CAS_NAME>
2-[4-[2-[[7-amino-2-(2-furanyl)-[1,2,4]triazolo[1,5-a][1,3,5]triazin-5-yl]amino]ethyl]phenoxy]-N-[3-[2-(2-oxo-1,3-dihydroindol-4-yl)ethyl-propylamino]propyl]acetamide

> <PUBCHEM_IUPAC_NAME_MARKUP>
2-[4-[2-[[7-amino-2-(furan-2-yl)-[1,2,4]triazolo[1,5-a][1,3,5]triazin-5-yl]amino]ethyl]phenoxy]-<I>N</I>-[3-[2-(2-oxo-1,3-dihydroindol-4-yl)ethyl-propylamino]propyl]acetamide

> <PUBCHEM_IUPAC_NAME>
2-[4-[2-[[7-amino-2-(furan-2-yl)-[1,2,4]triazolo[1,5-a][1,3,5]triazin-5-yl]amino]ethyl]phenoxy]-N-[3-[2-(2-oxo-1,3-dihydroindol-4-yl)ethyl-propylamino]propyl]acetamide

> <PUBCHEM_IUPAC_SYSTEMATIC_NAME>
2-[4-[2-[[7-azanyl-2-(furan-2-yl)-[1,2,4]triazolo[1,5-a][1,3,5]triazin-5-yl]amino]ethyl]phenoxy]-N-[3-[2-(2-oxidanylidene-1,3-dihydroindol-4-yl)ethyl-propyl-amino]propyl]ethanamide

> <PUBCHEM_IUPAC_TRADITIONAL_NAME>
2-[4-[2-[[7-amino-2-(2-furyl)-[1,2,4]triazolo[1,5-a][1,3,5]triazin-5-yl]amino]ethyl]phenoxy]-N-[3-[2-(2-ketoindolin-4-yl)ethyl-propyl-amino]propyl]acetamide

> <PUBCHEM_IUPAC_INCHI>
InChI=1S/C34H40N10O4/c1-2-17-43(19-14-24-6-3-7-27-26(24)21-29(45)38-27)18-5-15-36-30(46)22-48-25-11-9-23(10-12-25)13-16-37-33-40-32(35)44-34(41-33)39-31(42-44)28-8-4-20-47-28/h3-4,6-12,20H,2,5,13-19,21-22H2,1H3,(H,36,46)(H,38,45)(H3,35,37,39,40,41,42)

> <PUBCHEM_IUPAC_INCHIKEY>
GMHBQXBXDPKIOX-UHFFFAOYSA-N

> <PUBCHEM_XLOGP3_AA>
4

> <PUBCHEM_EXACT_MASS>
652.32339980

> <PUBCHEM_MOLECULAR_FORMULA>
C34H40N10O4

> <PUBCHEM_MOLECULAR_WEIGHT>
652.7

> <PUBCHEM_OPENEYE_CAN_SMILES>
CCCN(CCCNC(=O)COC1=CC=C(C=C1)CCNC2=NC3=NC(=NN3C(=N2)N)C4=CC=CO4)CCC5=C6CC(=O)NC6=CC=C5

> <PUBCHEM_OPENEYE_ISO_SMILES>
CCCN(CCCNC(=O)COC1=CC=C(C=C1)CCNC2=NC3=NC(=NN3C(=N2)N)C4=CC=CO4)CCC5=C6CC(=O)NC6=CC=C5

> <PUBCHEM_CACTVS_TPSA>
178

> <PUBCHEM_MONOISOTOPIC_WEIGHT>
652.32339980

> <PUBCHEM_TOTAL_CHARGE>
0

> <PUBCHEM_HEAVY_ATOM_COUNT>
48

> <PUBCHEM_ATOM_DEF_STEREO_COUNT>
0

> <PUBCHEM_ATOM_UDEF_STEREO_COUNT>
0

> <PUBCHEM_BOND_DEF_STEREO_COUNT>
0

> <PUBCHEM_BOND_UDEF_STEREO_COUNT>
0

> <PUBCHEM_ISOTOPIC_ATOM_COUNT>
0

> <PUBCHEM_COMPONENT_COUNT>
1

> <PUBCHEM_CACTVS_TAUTO_COUNT>
-1

> <PUBCHEM_COORDINATE_TYPE>
1
5
255

> <PUBCHEM_BONDANNOTATIONS>
10  41  8
10  42  8
11  41  8
11  43  8
12  44  8
13  42  8
13  44  8
18  20  8
18  25  8
20  23  8
23  28  8
25  29  8
28  29  8
34  37  8
34  38  8
35  39  8
35  40  8
37  39  8
38  40  8
4  45  8
4  48  8
45  46  8
46  47  8
47  48  8
9  12  8
9  42  8
9  43  8

$$$$
