15115519
  -OEChem-09292322142D

 86 92  0     1  0  0  0  0  0999 V2000
    2.0000   -1.3594    0.0000 F   0  0  0  0  0  0  0  0  0  0  0  0
   11.2788   -1.3874    0.0000 O   0  0  0  0  0  0  0  0  0  0  0  0
    6.5000   -2.2254    0.0000 O   0  0  0  0  0  0  0  0  0  0  0  0
   20.2990   -4.0348    0.0000 O   0  0  0  0  0  0  0  0  0  0  0  0
   21.2562   -0.0381    0.0000 O   0  5  0  0  0  0  0  0  0  0  0  0
   21.9607   -1.6204    0.0000 O   0  0  0  0  0  0  0  0  0  0  0  0
   11.5878    1.1816    0.0000 N   0  0  3  0  0  0  0  0  0  0  0  0
    9.0000    0.3726    0.0000 N   0  0  0  0  0  0  0  0  0  0  0  0
   12.5388   -0.1274    0.0000 N   0  0  0  0  0  0  0  0  0  0  0  0
   17.4975   -2.6596    0.0000 N   0  0  0  0  0  0  0  0  0  0  0  0
   19.3265   -3.8290    0.0000 N   0  0  0  0  0  0  0  0  0  0  0  0
   20.7968   -3.1743    0.0000 N   0  0  0  0  0  0  0  0  0  0  0  0
   21.1517   -1.0326    0.0000 N   0  3  0  0  0  0  0  0  0  0  0  0
   11.0000    0.3726    0.0000 C   0  0  0  0  0  0  0  0  0  0  0  0
   10.5000    1.2386    0.0000 C   0  0  0  0  0  0  0  0  0  0  0  0
   10.5000   -0.4934    0.0000 C   0  0  0  0  0  0  0  0  0  0  0  0
    9.5000    1.2386    0.0000 C   0  0  0  0  0  0  0  0  0  0  0  0
    9.5000   -0.4934    0.0000 C   0  0  0  0  0  0  0  0  0  0  0  0
   11.5878   -0.4364    0.0000 C   0  0  0  0  0  0  0  0  0  0  0  0
   12.5388    0.8726    0.0000 C   0  0  0  0  0  0  0  0  0  0  0  0
    8.0000    0.3726    0.0000 C   0  0  0  0  0  0  0  0  0  0  0  0
   11.2788    2.1327    0.0000 C   0  0  0  0  0  0  0  0  0  0  0  0
   13.3479   -0.7152    0.0000 C   0  0  0  0  0  0  0  0  0  0  0  0
    7.5000   -0.4934    0.0000 C   0  0  0  0  0  0  0  0  0  0  0  0
   14.2614   -0.3084    0.0000 C   0  0  0  0  0  0  0  0  0  0  0  0
   10.3006    2.3406    0.0000 C   0  0  0  0  0  0  0  0  0  0  0  0
   11.9479    2.8758    0.0000 C   0  0  0  0  0  0  0  0  0  0  0  0
    6.5000   -0.4934    0.0000 C   0  0  0  0  0  0  0  0  0  0  0  0
   15.0704   -0.8962    0.0000 C   0  0  0  0  0  0  0  0  0  0  0  0
    9.9916    3.2917    0.0000 C   0  0  0  0  0  0  0  0  0  0  0  0
   11.6389    3.8269    0.0000 C   0  0  0  0  0  0  0  0  0  0  0  0
   10.6607    4.0348    0.0000 C   0  0  0  0  0  0  0  0  0  0  0  0
    6.0000   -1.3594    0.0000 C   0  0  0  0  0  0  0  0  0  0  0  0
   15.9840   -0.4895    0.0000 C   0  0  0  0  0  0  0  0  0  0  0  0
   14.9659   -1.8907    0.0000 C   0  0  0  0  0  0  0  0  0  0  0  0
    5.0000   -1.3594    0.0000 C   0  0  0  0  0  0  0  0  0  0  0  0
   16.7930   -1.0773    0.0000 C   0  0  0  0  0  0  0  0  0  0  0  0
   15.7749   -2.4785    0.0000 C   0  0  0  0  0  0  0  0  0  0  0  0
   16.6885   -2.0718    0.0000 C   0  0  0  0  0  0  0  0  0  0  0  0
    4.5000   -2.2254    0.0000 C   0  0  0  0  0  0  0  0  0  0  0  0
    4.5000   -0.4934    0.0000 C   0  0  0  0  0  0  0  0  0  0  0  0
    3.5000   -2.2254    0.0000 C   0  0  0  0  0  0  0  0  0  0  0  0
    3.5000   -0.4934    0.0000 C   0  0  0  0  0  0  0  0  0  0  0  0
   18.4110   -2.2528    0.0000 C   0  0  0  0  0  0  0  0  0  0  0  0
    3.0000   -1.3594    0.0000 C   0  0  0  0  0  0  0  0  0  0  0  0
   19.2200   -2.8406    0.0000 C   0  0  0  0  0  0  0  0  0  0  0  0
   18.5155   -1.2583    0.0000 C   0  0  0  0  0  0  0  0  0  0  0  0
   20.1336   -2.4339    0.0000 C   0  0  0  0  0  0  0  0  0  0  0  0
   19.4291   -0.8516    0.0000 C   0  0  0  0  0  0  0  0  0  0  0  0
   20.2381   -1.4393    0.0000 C   0  0  0  0  0  0  0  0  0  0  0  0
   11.0826    1.4507    0.0000 H   0  0  0  0  0  0  0  0  0  0  0  0
   10.3923    1.8492    0.0000 H   0  0  0  0  0  0  0  0  0  0  0  0
   10.3923   -1.1040    0.0000 H   0  0  0  0  0  0  0  0  0  0  0  0
   11.0826   -0.7055    0.0000 H   0  0  0  0  0  0  0  0  0  0  0  0
    9.6077    1.8492    0.0000 H   0  0  0  0  0  0  0  0  0  0  0  0
    8.9174    1.4507    0.0000 H   0  0  0  0  0  0  0  0  0  0  0  0
    8.9174   -0.7055    0.0000 H   0  0  0  0  0  0  0  0  0  0  0  0
    9.6077   -1.1040    0.0000 H   0  0  0  0  0  0  0  0  0  0  0  0
   13.1554    0.8078    0.0000 H   0  0  0  0  0  0  0  0  0  0  0  0
   12.6677    1.4791    0.0000 H   0  0  0  0  0  0  0  0  0  0  0  0
    8.1077    0.9832    0.0000 H   0  0  0  0  0  0  0  0  0  0  0  0
    7.4174    0.5847    0.0000 H   0  0  0  0  0  0  0  0  0  0  0  0
   12.9019   -1.1458    0.0000 H   0  0  0  0  0  0  0  0  0  0  0  0
   13.6946   -1.2292    0.0000 H   0  0  0  0  0  0  0  0  0  0  0  0
    7.3923   -1.1040    0.0000 H   0  0  0  0  0  0  0  0  0  0  0  0
    8.0826   -0.7055    0.0000 H   0  0  0  0  0  0  0  0  0  0  0  0
   14.7074    0.1223    0.0000 H   0  0  0  0  0  0  0  0  0  0  0  0
   13.9147    0.2056    0.0000 H   0  0  0  0  0  0  0  0  0  0  0  0
    9.8858    1.8799    0.0000 H   0  0  0  0  0  0  0  0  0  0  0  0
   12.5544    2.7469    0.0000 H   0  0  0  0  0  0  0  0  0  0  0  0
    6.6077    0.1172    0.0000 H   0  0  0  0  0  0  0  0  0  0  0  0
    5.9174   -0.2813    0.0000 H   0  0  0  0  0  0  0  0  0  0  0  0
    9.3852    3.4206    0.0000 H   0  0  0  0  0  0  0  0  0  0  0  0
   12.0537    4.2876    0.0000 H   0  0  0  0  0  0  0  0  0  0  0  0
   10.4691    4.6245    0.0000 H   0  0  0  0  0  0  0  0  0  0  0  0
   16.0488    0.1271    0.0000 H   0  0  0  0  0  0  0  0  0  0  0  0
   14.3995   -2.1429    0.0000 H   0  0  0  0  0  0  0  0  0  0  0  0
   17.3594   -0.8251    0.0000 H   0  0  0  0  0  0  0  0  0  0  0  0
   15.7101   -3.0951    0.0000 H   0  0  0  0  0  0  0  0  0  0  0  0
    4.8100   -2.7624    0.0000 H   0  0  0  0  0  0  0  0  0  0  0  0
    4.8100    0.0435    0.0000 H   0  0  0  0  0  0  0  0  0  0  0  0
   17.4327   -3.2762    0.0000 H   0  0  0  0  0  0  0  0  0  0  0  0
    3.1900   -2.7624    0.0000 H   0  0  0  0  0  0  0  0  0  0  0  0
    3.1900    0.0435    0.0000 H   0  0  0  0  0  0  0  0  0  0  0  0
   18.0140   -0.8939    0.0000 H   0  0  0  0  0  0  0  0  0  0  0  0
   19.4939   -0.2350    0.0000 H   0  0  0  0  0  0  0  0  0  0  0  0
  1 45  1  0  0  0  0
  2 19  2  0  0  0  0
  3 33  2  0  0  0  0
  4 11  1  0  0  0  0
  4 12  1  0  0  0  0
  5 13  1  0  0  0  0
  6 13  2  0  0  0  0
  7 14  1  0  0  0  0
  7 20  1  0  0  0  0
  7 22  1  0  0  0  0
  8 17  1  0  0  0  0
  8 18  1  0  0  0  0
  8 21  1  0  0  0  0
  9 19  1  0  0  0  0
  9 20  1  0  0  0  0
  9 23  1  0  0  0  0
 10 39  1  0  0  0  0
 10 44  1  0  0  0  0
 10 82  1  0  0  0  0
 11 46  2  0  0  0  0
 12 48  2  0  0  0  0
 13 50  1  0  0  0  0
 14 15  1  0  0  0  0
 14 16  1  0  0  0  0
 14 19  1  0  0  0  0
 15 17  1  0  0  0  0
 15 51  1  0  0  0  0
 15 52  1  0  0  0  0
 16 18  1  0  0  0  0
 16 53  1  0  0  0  0
 16 54  1  0  0  0  0
 17 55  1  0  0  0  0
 17 56  1  0  0  0  0
 18 57  1  0  0  0  0
 18 58  1  0  0  0  0
 20 59  1  0  0  0  0
 20 60  1  0  0  0  0
 21 24  1  0  0  0  0
 21 61  1  0  0  0  0
 21 62  1  0  0  0  0
 22 26  2  0  0  0  0
 22 27  1  0  0  0  0
 23 25  1  0  0  0  0
 23 63  1  0  0  0  0
 23 64  1  0  0  0  0
 24 28  1  0  0  0  0
 24 65  1  0  0  0  0
 24 66  1  0  0  0  0
 25 29  1  0  0  0  0
 25 67  1  0  0  0  0
 25 68  1  0  0  0  0
 26 30  1  0  0  0  0
 26 69  1  0  0  0  0
 27 31  2  0  0  0  0
 27 70  1  0  0  0  0
 28 33  1  0  0  0  0
 28 71  1  0  0  0  0
 28 72  1  0  0  0  0
 29 34  2  0  0  0  0
 29 35  1  0  0  0  0
 30 32  2  0  0  0  0
 30 73  1  0  0  0  0
 31 32  1  0  0  0  0
 31 74  1  0  0  0  0
 32 75  1  0  0  0  0
 33 36  1  0  0  0  0
 34 37  1  0  0  0  0
 34 76  1  0  0  0  0
 35 38  2  0  0  0  0
 35 77  1  0  0  0  0
 36 40  2  0  0  0  0
 36 41  1  0  0  0  0
 37 39  2  0  0  0  0
 37 78  1  0  0  0  0
 38 39  1  0  0  0  0
 38 79  1  0  0  0  0
 40 42  1  0  0  0  0
 40 80  1  0  0  0  0
 41 43  2  0  0  0  0
 41 81  1  0  0  0  0
 42 45  2  0  0  0  0
 42 83  1  0  0  0  0
 43 45  1  0  0  0  0
 43 84  1  0  0  0  0
 44 46  1  0  0  0  0
 44 47  2  0  0  0  0
 46 48  1  0  0  0  0
 47 49  1  0  0  0  0
 47 85  1  0  0  0  0
 48 50  1  0  0  0  0
 49 50  2  0  0  0  0
 49 86  1  0  0  0  0
M  CHG  2   5  -1  13   1
M  END
> <PUBCHEM_COMPOUND_CID>
15115519

> <PUBCHEM_COMPOUND_CANONICALIZED>
1

> <PUBCHEM_CACTVS_COMPLEXITY>
1160

> <PUBCHEM_CACTVS_HBOND_ACCEPTOR>
11

> <PUBCHEM_CACTVS_HBOND_DONOR>
1

> <PUBCHEM_CACTVS_ROTATABLE_BOND>
11

> <PUBCHEM_CACTVS_SUBSKEYS>
AAADcfB/uQAAAAAAAAAAAAAAAAAAAWLAAAA8YMGCAAAAAFgB9AAAHwAUAAAADIzBngwxwLPQQACpA6VyUwCCAAQlEgAomCGodNqIYPLA1fGUJQhol4LIyacciICOCACAAAQAACAQAQAACAAAQAAAAAAAAA==

> <PUBCHEM_IUPAC_OPENEYE_NAME>
8-[4-(4-fluorophenyl)-4-oxo-butyl]-3-[2-[4-[(4-nitro-2,1,3-benzoxadiazol-7-yl)amino]phenyl]ethyl]-1-phenyl-1,3,8-triazaspiro[4.5]decan-4-one

> <PUBCHEM_IUPAC_CAS_NAME>
8-[4-(4-fluorophenyl)-4-oxobutyl]-3-[2-[4-[(4-nitro-2,1,3-benzoxadiazol-7-yl)amino]phenyl]ethyl]-1-phenyl-1,3,8-triazaspiro[4.5]decan-4-one

> <PUBCHEM_IUPAC_NAME_MARKUP>
8-[4-(4-fluorophenyl)-4-oxobutyl]-3-[2-[4-[(4-nitro-2,1,3-benzoxadiazol-7-yl)amino]phenyl]ethyl]-1-phenyl-1,3,8-triazaspiro[4.5]decan-4-one

> <PUBCHEM_IUPAC_NAME>
8-[4-(4-fluorophenyl)-4-oxobutyl]-3-[2-[4-[(4-nitro-2,1,3-benzoxadiazol-7-yl)amino]phenyl]ethyl]-1-phenyl-1,3,8-triazaspiro[4.5]decan-4-one

> <PUBCHEM_IUPAC_SYSTEMATIC_NAME>
8-[4-(4-fluorophenyl)-4-oxidanylidene-butyl]-3-[2-[4-[(4-nitro-2,1,3-benzoxadiazol-7-yl)amino]phenyl]ethyl]-1-phenyl-1,3,8-triazaspiro[4.5]decan-4-one

> <PUBCHEM_IUPAC_TRADITIONAL_NAME>
8-[4-(4-fluorophenyl)-4-keto-butyl]-3-[2-[4-[(7-nitrobenzofurazan-4-yl)amino]phenyl]ethyl]-1-phenyl-1,3,8-triazaspiro[4.5]decan-4-one

> <PUBCHEM_IUPAC_INCHI>
InChI=1S/C37H36FN7O5/c38-28-12-10-27(11-13-28)33(46)7-4-21-42-23-19-37(20-24-42)36(47)43(25-44(37)30-5-2-1-3-6-30)22-18-26-8-14-29(15-9-26)39-31-16-17-32(45(48)49)35-34(31)40-50-41-35/h1-3,5-6,8-17,39H,4,7,18-25H2

> <PUBCHEM_IUPAC_INCHIKEY>
AYDICYGRWUFLHA-UHFFFAOYSA-N

> <PUBCHEM_XLOGP3_AA>
6.2

> <PUBCHEM_EXACT_MASS>
677.27619544

> <PUBCHEM_MOLECULAR_FORMULA>
C37H36FN7O5

> <PUBCHEM_MOLECULAR_WEIGHT>
677.7

> <PUBCHEM_OPENEYE_CAN_SMILES>
C1CN(CCC12C(=O)N(CN2C3=CC=CC=C3)CCC4=CC=C(C=C4)NC5=CC=C(C6=NON=C56)[N+](=O)[O-])CCCC(=O)C7=CC=C(C=C7)F

> <PUBCHEM_OPENEYE_ISO_SMILES>
C1CN(CCC12C(=O)N(CN2C3=CC=CC=C3)CCC4=CC=C(C=C4)NC5=CC=C(C6=NON=C56)[N+](=O)[O-])CCCC(=O)C7=CC=C(C=C7)F

> <PUBCHEM_CACTVS_TPSA>
141

> <PUBCHEM_MONOISOTOPIC_WEIGHT>
677.27619544

> <PUBCHEM_TOTAL_CHARGE>
0

> <PUBCHEM_HEAVY_ATOM_COUNT>
50

> <PUBCHEM_ATOM_DEF_STEREO_COUNT>
0

> <PUBCHEM_ATOM_UDEF_STEREO_COUNT>
0

> <PUBCHEM_BOND_DEF_STEREO_COUNT>
0

> <PUBCHEM_BOND_UDEF_STEREO_COUNT>
0

> <PUBCHEM_ISOTOPIC_ATOM_COUNT>
0

> <PUBCHEM_COMPONENT_COUNT>
1

> <PUBCHEM_CACTVS_TAUTO_COUNT>
-1

> <PUBCHEM_COORDINATE_TYPE>
1
5
255

> <PUBCHEM_BONDANNOTATIONS>
11  46  8
12  48  8
22  26  8
22  27  8
26  30  8
27  31  8
29  34  8
29  35  8
30  32  8
31  32  8
34  37  8
35  38  8
36  40  8
36  41  8
37  39  8
38  39  8
4  11  8
4  12  8
40  42  8
41  43  8
42  45  8
43  45  8
44  46  8
44  47  8
46  48  8
47  49  8
48  50  8
49  50  8

$$$$
